500095
  -OEChem-10302200282D
 33 35  0     1  0  0  0  0  0999 V2000
    5.2619   -0.6866    0.0000 O   0  0  0  0  0  0  0  0  0  0  0  0
    4.9889   -2.4419    0.0000 O   0  0  0  0  0  0  0  0  0  0  0  0
    4.9917    2.6866    0.0000 O   0  0  0  0  0  0  0  0  0  0  0  0
    3.7320   -0.1866    0.0000 C   0  0  3  0  0  0  0  0  0  0  0  0
    2.8660    0.3134    0.0000 C   0  0  0  0  0  0  0  0  0  0  0  0
    4.6783    0.1181    0.0000 C   0  0  3  0  0  0  0  0  0  0  0  0
    3.7320   -1.1866    0.0000 C   0  0  0  0  0  0  0  0  0  0  0  0
    2.0000   -0.1866    0.0000 C   0  0  0  0  0  0  0  0  0  0  0  0
    2.8660   -1.6866    0.0000 C   0  0  0  0  0  0  0  0  0  0  0  0
    2.0000   -1.1866    0.0000 C   0  0  0  0  0  0  0  0  0  0  0  0
    3.7320    0.8134    0.0000 C   0  0  0  0  0  0  0  0  0  0  0  0
    4.6783   -1.4914    0.0000 C   0  0  0  0  0  0  0  0  0  0  0  0
    4.9889    1.0686    0.0000 C   0  0  0  0  0  0  0  0  0  0  0  0
    2.8660   -2.6866    0.0000 C   0  0  0  0  0  0  0  0  0  0  0  0
    5.9405    1.3760    0.0000 C   0  0  0  0  0  0  0  0  0  0  0  0
    4.4026    1.8786    0.0000 C   0  0  0  0  0  0  0  0  0  0  0  0
    5.9422    2.3760    0.0000 C   0  0  0  0  0  0  0  0  0  0  0  0
    3.2646    0.7883    0.0000 H   0  0  0  0  0  0  0  0  0  0  0  0
    2.4675    0.7883    0.0000 H   0  0  0  0  0  0  0  0  0  0  0  0
    5.2908    0.2143    0.0000 H   0  0  0  0  0  0  0  0  0  0  0  0
    1.7880    0.3960    0.0000 H   0  0  0  0  0  0  0  0  0  0  0  0
    1.3894   -0.2943    0.0000 H   0  0  0  0  0  0  0  0  0  0  0  0
    1.3894   -1.0790    0.0000 H   0  0  0  0  0  0  0  0  0  0  0  0
    1.7880   -1.7692    0.0000 H   0  0  0  0  0  0  0  0  0  0  0  0
    4.3520    0.8134    0.0000 H   0  0  0  0  0  0  0  0  0  0  0  0
    3.7320    1.4334    0.0000 H   0  0  0  0  0  0  0  0  0  0  0  0
    3.1120    0.8134    0.0000 H   0  0  0  0  0  0  0  0  0  0  0  0
    2.2460   -2.6866    0.0000 H   0  0  0  0  0  0  0  0  0  0  0  0
    2.8660   -3.3066    0.0000 H   0  0  0  0  0  0  0  0  0  0  0  0
    3.4860   -2.6866    0.0000 H   0  0  0  0  0  0  0  0  0  0  0  0
    6.4415    1.0107    0.0000 H   0  0  0  0  0  0  0  0  0  0  0  0
    3.7826    1.8797    0.0000 H   0  0  0  0  0  0  0  0  0  0  0  0
    6.4445    2.7395    0.0000 H   0  0  0  0  0  0  0  0  0  0  0  0
  1  6  1  0  0  0  0
  1 12  1  0  0  0  0
  2 12  2  0  0  0  0
  3 16  1  0  0  0  0
  3 17  1  0  0  0  0
  4  5  1  0  0  0  0
  4  6  1  0  0  0  0
  4  7  1  0  0  0  0
  4 11  1  0  0  0  0
  5  8  1  0  0  0  0
  5 18  1  0  0  0  0
  5 19  1  0  0  0  0
  6 13  1  0  0  0  0
  6 20  1  0  0  0  0
  7  9  2  0  0  0  0
  7 12  1  0  0  0  0
  8 10  1  0  0  0  0
  8 21  1  0  0  0  0
  8 22  1  0  0  0  0
  9 10  1  0  0  0  0
  9 14  1  0  0  0  0
 10 23  1  0  0  0  0
 10 24  1  0  0  0  0
 11 25  1  0  0  0  0
 11 26  1  0  0  0  0
 11 27  1  0  0  0  0
 13 15  1  0  0  0  0
 13 16  2  0  0  0  0
 14 28  1  0  0  0  0
 14 29  1  0  0  0  0
 14 30  1  0  0  0  0
 15 17  2  0  0  0  0
 15 31  1  0  0  0  0
 16 32  1  0  0  0  0
 17 33  1  0  0  0  0
M  END
> <PUBCHEM_COMPOUND_CID>
500095
> <PUBCHEM_COMPOUND_CANONICALIZED>
1
> <PUBCHEM_CACTVS_COMPLEXITY>
385
> <PUBCHEM_CACTVS_HBOND_ACCEPTOR>
3
> <PUBCHEM_CACTVS_HBOND_DONOR>
0
> <PUBCHEM_CACTVS_ROTATABLE_BOND>
1
> <PUBCHEM_CACTVS_SUBSKEYS>
AAADceBwMAAAAAAAAAAAAAAAAAAAASJAAAAgAAAAAAAAAEABgAAAGgAAAAAADhSgmAIyDIAABECIAijSiAACCAAkIAAIiAEGCMgMJxYENQqCGSCl4BEIKYPKyPCPAAAAAAAAAAAAAAAAAAAAAAAAAAAAAA==
> <PUBCHEM_IUPAC_OPENEYE_NAME>
3-(3-furyl)-3a,7-dimethyl-3,4,5,6-tetrahydroisobenzofuran-1-one
> <PUBCHEM_IUPAC_CAS_NAME>
3-(3-furanyl)-3a,7-dimethyl-3,4,5,6-tetrahydroisobenzofuran-1-one
> <PUBCHEM_IUPAC_NAME_MARKUP>
3-(furan-3-yl)-3<I>a</I>,7-dimethyl-3,4,5,6-tetrahydro-2-benzofuran-1-one
> <PUBCHEM_IUPAC_NAME>
3-(furan-3-yl)-3a,7-dimethyl-3,4,5,6-tetrahydro-2-benzofuran-1-one
> <PUBCHEM_IUPAC_SYSTEMATIC_NAME>
3-(furan-3-yl)-3a,7-dimethyl-3,4,5,6-tetrahydro-2-benzofuran-1-one
> <PUBCHEM_IUPAC_TRADITIONAL_NAME>
3-(3-furyl)-3a,7-dimethyl-3,4,5,6-tetrahydroisobenzofuran-1-one
> <PUBCHEM_IUPAC_INCHI>
InChI=1S/C14H16O3/c1-9-4-3-6-14(2)11(9)13(15)17-12(14)10-5-7-16-8-10/h5,7-8,12H,3-4,6H2,1-2H3
> <PUBCHEM_IUPAC_INCHIKEY>
XYYAFLHHHZVPRN-UHFFFAOYSA-N
> <PUBCHEM_XLOGP3_AA>
2.5
> <PUBCHEM_EXACT_MASS>
232.109944368
> <PUBCHEM_MOLECULAR_FORMULA>
C14H16O3
> <PUBCHEM_MOLECULAR_WEIGHT>
232.27
> <PUBCHEM_OPENEYE_CAN_SMILES>
CC1=C2C(=O)OC(C2(CCC1)C)C3=COC=C3
> <PUBCHEM_OPENEYE_ISO_SMILES>
CC1=C2C(=O)OC(C2(CCC1)C)C3=COC=C3
> <PUBCHEM_CACTVS_TPSA>
39.4
> <PUBCHEM_MONOISOTOPIC_WEIGHT>
232.109944368
> <PUBCHEM_TOTAL_CHARGE>
0
> <PUBCHEM_HEAVY_ATOM_COUNT>
17
> <PUBCHEM_ATOM_DEF_STEREO_COUNT>
0
> <PUBCHEM_ATOM_UDEF_STEREO_COUNT>
2
> <PUBCHEM_BOND_DEF_STEREO_COUNT>
0
> <PUBCHEM_BOND_UDEF_STEREO_COUNT>
0
> <PUBCHEM_ISOTOPIC_ATOM_COUNT>
0
> <PUBCHEM_COMPONENT_COUNT>
1
> <PUBCHEM_CACTVS_TAUTO_COUNT>
-1
> <PUBCHEM_COORDINATE_TYPE>
1
5
255
> <PUBCHEM_BONDANNOTATIONS>
13  15  8
13  16  8
15  17  8
3  16  8
3  17  8
4  11  3
6  13  3
$$$$
