500040
  -OEChem-10302200282D
 51 53  0     1  0  0  0  0  0999 V2000
    4.5823    0.7694    0.0000 P   0  0  3  0  0  0  0  0  0  0  0  0
    4.8913   -0.1816    0.0000 O   0  0  0  0  0  0  0  0  0  0  0  0
    5.5334    1.0784    0.0000 O   0  0  0  0  0  0  0  0  0  0  0  0
    3.5823    0.7694    0.0000 N   0  0  3  0  0  0  0  0  0  0  0  0
    3.2733   -0.1816    0.0000 C   0  0  3  0  0  0  0  0  0  0  0  0
    4.0823   -0.7694    0.0000 C   0  0  3  0  0  0  0  0  0  0  0  0
    2.9945    1.5784    0.0000 C   0  0  0  0  0  0  0  0  0  0  0  0
    4.5823    1.7694    0.0000 C   0  0  0  0  0  0  0  0  0  0  0  0
    2.3222   -0.4907    0.0000 C   0  0  0  0  0  0  0  0  0  0  0  0
    5.4483    2.2694    0.0000 C   0  0  0  0  0  0  0  0  0  0  0  0
    4.0823   -1.7694    0.0000 C   0  0  0  0  0  0  0  0  0  0  0  0
    6.3144    1.7694    0.0000 C   0  0  0  0  0  0  0  0  0  0  0  0
    2.0000    1.4739    0.0000 C   0  0  0  0  0  0  0  0  0  0  0  0
    3.4013    2.4920    0.0000 C   0  0  0  0  0  0  0  0  0  0  0  0
    7.1804    2.2694    0.0000 C   0  0  0  0  0  0  0  0  0  0  0  0
    5.4483    3.2694    0.0000 C   0  0  0  0  0  0  0  0  0  0  0  0
    7.1804    3.2694    0.0000 C   0  0  0  0  0  0  0  0  0  0  0  0
    6.3144    3.7694    0.0000 C   0  0  0  0  0  0  0  0  0  0  0  0
    4.9483   -2.2694    0.0000 C   0  0  0  0  0  0  0  0  0  0  0  0
    3.2163   -2.2694    0.0000 C   0  0  0  0  0  0  0  0  0  0  0  0
    4.9483   -3.2694    0.0000 C   0  0  0  0  0  0  0  0  0  0  0  0
    3.2163   -3.2694    0.0000 C   0  0  0  0  0  0  0  0  0  0  0  0
    4.0823   -3.7694    0.0000 C   0  0  0  0  0  0  0  0  0  0  0  0
    2.8349    0.2568    0.0000 H   0  0  0  0  0  0  0  0  0  0  0  0
    4.6347   -1.0509    0.0000 H   0  0  0  0  0  0  0  0  0  0  0  0
    3.6111    1.6432    0.0000 H   0  0  0  0  0  0  0  0  0  0  0  0
    4.3703    2.3520    0.0000 H   0  0  0  0  0  0  0  0  0  0  0  0
    3.9717    1.6618    0.0000 H   0  0  0  0  0  0  0  0  0  0  0  0
    2.1306    0.0990    0.0000 H   0  0  0  0  0  0  0  0  0  0  0  0
    1.7326   -0.6822    0.0000 H   0  0  0  0  0  0  0  0  0  0  0  0
    2.5138   -1.0803    0.0000 H   0  0  0  0  0  0  0  0  0  0  0  0
    5.9158    1.2945    0.0000 H   0  0  0  0  0  0  0  0  0  0  0  0
    6.7129    1.2945    0.0000 H   0  0  0  0  0  0  0  0  0  0  0  0
    1.9352    2.0905    0.0000 H   0  0  0  0  0  0  0  0  0  0  0  0
    1.3834    1.4091    0.0000 H   0  0  0  0  0  0  0  0  0  0  0  0
    2.0648    0.8573    0.0000 H   0  0  0  0  0  0  0  0  0  0  0  0
    3.9677    2.2398    0.0000 H   0  0  0  0  0  0  0  0  0  0  0  0
    3.6534    3.0584    0.0000 H   0  0  0  0  0  0  0  0  0  0  0  0
    2.8349    2.7442    0.0000 H   0  0  0  0  0  0  0  0  0  0  0  0
    7.3924    1.6868    0.0000 H   0  0  0  0  0  0  0  0  0  0  0  0
    7.7910    2.3771    0.0000 H   0  0  0  0  0  0  0  0  0  0  0  0
    4.9114    3.5794    0.0000 H   0  0  0  0  0  0  0  0  0  0  0  0
    7.7910    3.1618    0.0000 H   0  0  0  0  0  0  0  0  0  0  0  0
    7.3924    3.8520    0.0000 H   0  0  0  0  0  0  0  0  0  0  0  0
    6.7129    4.2444    0.0000 H   0  0  0  0  0  0  0  0  0  0  0  0
    5.9158    4.2444    0.0000 H   0  0  0  0  0  0  0  0  0  0  0  0
    5.4853   -1.9594    0.0000 H   0  0  0  0  0  0  0  0  0  0  0  0
    2.6794   -1.9594    0.0000 H   0  0  0  0  0  0  0  0  0  0  0  0
    5.4853   -3.5794    0.0000 H   0  0  0  0  0  0  0  0  0  0  0  0
    2.6794   -3.5794    0.0000 H   0  0  0  0  0  0  0  0  0  0  0  0
    4.0823   -4.3894    0.0000 H   0  0  0  0  0  0  0  0  0  0  0  0
  1  2  1  0  0  0  0
  1  3  2  0  0  0  0
  1  4  1  0  0  0  0
  1  8  1  0  0  0  0
  2  6  1  0  0  0  0
  4  5  1  0  0  0  0
  4  7  1  0  0  0  0
  5  6  1  0  0  0  0
  5  9  1  0  0  0  0
  5 24  1  0  0  0  0
  6 11  1  0  0  0  0
  6 25  1  0  0  0  0
  7 13  1  0  0  0  0
  7 14  1  0  0  0  0
  7 26  1  0  0  0  0
  8 10  1  0  0  0  0
  8 27  1  0  0  0  0
  8 28  1  0  0  0  0
  9 29  1  0  0  0  0
  9 30  1  0  0  0  0
  9 31  1  0  0  0  0
 10 12  1  0  0  0  0
 10 16  2  0  0  0  0
 11 19  2  0  0  0  0
 11 20  1  0  0  0  0
 12 15  1  0  0  0  0
 12 32  1  0  0  0  0
 12 33  1  0  0  0  0
 13 34  1  0  0  0  0
 13 35  1  0  0  0  0
 13 36  1  0  0  0  0
 14 37  1  0  0  0  0
 14 38  1  0  0  0  0
 14 39  1  0  0  0  0
 15 17  1  0  0  0  0
 15 40  1  0  0  0  0
 15 41  1  0  0  0  0
 16 18  1  0  0  0  0
 16 42  1  0  0  0  0
 17 18  1  0  0  0  0
 17 43  1  0  0  0  0
 17 44  1  0  0  0  0
 18 45  1  0  0  0  0
 18 46  1  0  0  0  0
 19 21  1  0  0  0  0
 19 47  1  0  0  0  0
 20 22  2  0  0  0  0
 20 48  1  0  0  0  0
 21 23  2  0  0  0  0
 21 49  1  0  0  0  0
 22 23  1  0  0  0  0
 22 50  1  0  0  0  0
 23 51  1  0  0  0  0
M  END
> <PUBCHEM_COMPOUND_CID>
500040
> <PUBCHEM_COMPOUND_CANONICALIZED>
1
> <PUBCHEM_CACTVS_COMPLEXITY>
482
> <PUBCHEM_CACTVS_HBOND_ACCEPTOR>
3
> <PUBCHEM_CACTVS_HBOND_DONOR>
0
> <PUBCHEM_CACTVS_ROTATABLE_BOND>
4
> <PUBCHEM_CACTVS_SUBSKEYS>
AAADceB6MAIAAAAAAAAAAAAAAAAAAWAAAAAwQAAAAAAAAAABAAAAHggAgCAADDzpmAYyAIIAARCAQiBCAIACAAAgAAAIiAAICIgKJiKAkRGEMAAkwAGYiAeQwKAOAAAAAAAAAAAAAAAAAAAAAAAAAAAAAA==
> <PUBCHEM_IUPAC_OPENEYE_NAME>
2-(cyclohexen-1-ylmethyl)-3-isopropyl-4-methyl-5-phenyl-1,3,2lambda5-oxazaphospholidine 2-oxide
> <PUBCHEM_IUPAC_CAS_NAME>
2-(1-cyclohexenylmethyl)-4-methyl-5-phenyl-3-propan-2-yl-1,3,2lambda5-oxazaphospholidine 2-oxide
> <PUBCHEM_IUPAC_NAME_MARKUP>
2-(cyclohexen-1-ylmethyl)-4-methyl-5-phenyl-3-propan-2-yl-1,3,2&lambda;<SUP>5</SUP>-oxazaphospholidine 2-oxide
> <PUBCHEM_IUPAC_NAME>
2-(cyclohexen-1-ylmethyl)-4-methyl-5-phenyl-3-propan-2-yl-1,3,2lambda5-oxazaphospholidine 2-oxide
> <PUBCHEM_IUPAC_SYSTEMATIC_NAME>
2-(cyclohexen-1-ylmethyl)-4-methyl-5-phenyl-3-propan-2-yl-1,3,2lambda5-oxazaphospholidine 2-oxide
> <PUBCHEM_IUPAC_TRADITIONAL_NAME>
2-(cyclohexen-1-ylmethyl)-3-isopropyl-4-methyl-5-phenyl-1,3,2lambda5-oxazaphospholidine 2-oxide
> <PUBCHEM_IUPAC_INCHI>
InChI=1S/C19H28NO2P/c1-15(2)20-16(3)19(18-12-8-5-9-13-18)22-23(20,21)14-17-10-6-4-7-11-17/h5,8-10,12-13,15-16,19H,4,6-7,11,14H2,1-3H3
> <PUBCHEM_IUPAC_INCHIKEY>
WVSPGKLSTNAFMP-UHFFFAOYSA-N
> <PUBCHEM_XLOGP3_AA>
3.8
> <PUBCHEM_EXACT_MASS>
333.18576613
> <PUBCHEM_MOLECULAR_FORMULA>
C19H28NO2P
> <PUBCHEM_MOLECULAR_WEIGHT>
333.4
> <PUBCHEM_OPENEYE_CAN_SMILES>
CC1C(OP(=O)(N1C(C)C)CC2=CCCCC2)C3=CC=CC=C3
> <PUBCHEM_OPENEYE_ISO_SMILES>
CC1C(OP(=O)(N1C(C)C)CC2=CCCCC2)C3=CC=CC=C3
> <PUBCHEM_CACTVS_TPSA>
29.5
> <PUBCHEM_MONOISOTOPIC_WEIGHT>
333.18576613
> <PUBCHEM_TOTAL_CHARGE>
0
> <PUBCHEM_HEAVY_ATOM_COUNT>
23
> <PUBCHEM_ATOM_DEF_STEREO_COUNT>
0
> <PUBCHEM_ATOM_UDEF_STEREO_COUNT>
3
> <PUBCHEM_BOND_DEF_STEREO_COUNT>
0
> <PUBCHEM_BOND_UDEF_STEREO_COUNT>
0
> <PUBCHEM_ISOTOPIC_ATOM_COUNT>
0
> <PUBCHEM_COMPONENT_COUNT>
1
> <PUBCHEM_CACTVS_TAUTO_COUNT>
-1
> <PUBCHEM_COORDINATE_TYPE>
1
5
255
> <PUBCHEM_BONDANNOTATIONS>
1  8  3
11  19  8
11  20  8
19  21  8
20  22  8
21  23  8
22  23  8
5  9  3
6  11  3
$$$$
