500033
  -OEChem-10302200282D
 76 79  0     1  0  0  0  0  0999 V2000
    6.4004   -1.5118    0.0000 O   0  0  0  0  0  0  0  0  0  0  0  0
    5.4554   -1.0503    0.0000 O   0  0  0  0  0  0  0  0  0  0  0  0
    6.1826    1.5564    0.0000 O   0  0  0  0  0  0  0  0  0  0  0  0
    8.1080    3.6611    0.0000 O   0  0  0  0  0  0  0  0  0  0  0  0
    7.3871   -2.9353    0.0000 O   0  0  0  0  0  0  0  0  0  0  0  0
    7.2845    4.6444    0.0000 O   0  0  0  0  0  0  0  0  0  0  0  0
   10.7631    1.5869    0.0000 O   0  0  0  0  0  0  0  0  0  0  0  0
    4.4852    0.3845    0.0000 O   0  0  0  0  0  0  0  0  0  0  0  0
    8.0784   -0.3487    0.0000 C   0  0  3  0  0  0  0  0  0  0  0  0
    7.2223   -0.9421    0.0000 C   0  0  3  0  0  0  0  0  0  0  0  0
    8.1645   -1.3873    0.0000 C   0  0  0  0  0  0  0  0  0  0  0  0
    7.9845    0.6887    0.0000 C   0  0  3  0  0  0  0  0  0  0  0  0
    6.2838   -0.4902    0.0000 C   0  0  3  0  0  0  0  0  0  0  0  0
    7.0835    1.1225    0.0000 C   0  0  3  0  0  0  0  0  0  0  0  0
    6.2140    0.5491    0.0000 C   0  0  3  0  0  0  0  0  0  0  0  0
    9.1611   -1.3048    0.0000 C   0  0  0  0  0  0  0  0  0  0  0  0
    7.7376   -2.2916    0.0000 C   0  0  0  0  0  0  0  0  0  0  0  0
    6.8610    2.0975    0.0000 C   0  0  3  0  0  0  0  0  0  0  0  0
    8.8855    1.1225    0.0000 C   0  0  0  0  0  0  0  0  0  0  0  0
    7.4845    2.8793    0.0000 C   0  0  3  0  0  0  0  0  0  0  0  0
    5.2160    0.4859    0.0000 C   0  0  0  0  0  0  0  0  0  0  0  0
    9.1080    2.0975    0.0000 C   0  0  0  0  0  0  0  0  0  0  0  0
    8.4845    2.8793    0.0000 C   0  0  0  0  0  0  0  0  0  0  0  0
    5.9312    2.4492    0.0000 C   0  0  0  0  0  0  0  0  0  0  0  0
    6.4828   -2.5084    0.0000 C   0  0  0  0  0  0  0  0  0  0  0  0
    6.9347    3.7075    0.0000 C   0  0  0  0  0  0  0  0  0  0  0  0
    5.9767    3.4422    0.0000 C   0  0  0  0  0  0  0  0  0  0  0  0
    4.5561   -0.6130    0.0000 C   0  0  0  0  0  0  0  0  0  0  0  0
   10.0829    2.3200    0.0000 C   0  0  0  0  0  0  0  0  0  0  0  0
    5.6609   -3.0781    0.0000 C   0  0  0  0  0  0  0  0  0  0  0  0
    5.1949    4.0657    0.0000 C   0  0  0  0  0  0  0  0  0  0  0  0
    3.7277   -1.1731    0.0000 C   0  0  0  0  0  0  0  0  0  0  0  0
    5.7434   -4.0747    0.0000 C   0  0  0  0  0  0  0  0  0  0  0  0
    2.8284   -0.7357    0.0000 C   0  0  0  0  0  0  0  0  0  0  0  0
    4.9215   -4.6444    0.0000 C   0  0  0  0  0  0  0  0  0  0  0  0
    2.0000   -1.2959    0.0000 C   0  0  0  0  0  0  0  0  0  0  0  0
    8.6960   -0.2952    0.0000 H   0  0  0  0  0  0  0  0  0  0  0  0
    8.5238    0.3828    0.0000 H   0  0  0  0  0  0  0  0  0  0  0  0
    5.7268   -0.2180    0.0000 H   0  0  0  0  0  0  0  0  0  0  0  0
    6.0171    1.1370    0.0000 H   0  0  0  0  0  0  0  0  0  0  0  0
    9.2122   -1.9227    0.0000 H   0  0  0  0  0  0  0  0  0  0  0  0
    9.7790   -1.2538    0.0000 H   0  0  0  0  0  0  0  0  0  0  0  0
    9.1100   -0.6870    0.0000 H   0  0  0  0  0  0  0  0  0  0  0  0
    7.1769   -2.0269    0.0000 H   0  0  0  0  0  0  0  0  0  0  0  0
    7.4729   -2.8522    0.0000 H   0  0  0  0  0  0  0  0  0  0  0  0
    8.2982   -2.5562    0.0000 H   0  0  0  0  0  0  0  0  0  0  0  0
    7.4655    1.9595    0.0000 H   0  0  0  0  0  0  0  0  0  0  0  0
    9.3702    0.7360    0.0000 H   0  0  0  0  0  0  0  0  0  0  0  0
    5.1768    1.1047    0.0000 H   0  0  0  0  0  0  0  0  0  0  0  0
    4.5972    0.4467    0.0000 H   0  0  0  0  0  0  0  0  0  0  0  0
    5.2551   -0.1329    0.0000 H   0  0  0  0  0  0  0  0  0  0  0  0
    5.5643    1.5101    0.0000 H   0  0  0  0  0  0  0  0  0  0  0  0
    9.0431    3.1483    0.0000 H   0  0  0  0  0  0  0  0  0  0  0  0
    8.3466    3.4838    0.0000 H   0  0  0  0  0  0  0  0  0  0  0  0
    5.4132    2.1085    0.0000 H   0  0  0  0  0  0  0  0  0  0  0  0
    8.7211    3.5687    0.0000 H   0  0  0  0  0  0  0  0  0  0  0  0
   10.6037    2.6564    0.0000 H   0  0  0  0  0  0  0  0  0  0  0  0
    9.8421    2.8913    0.0000 H   0  0  0  0  0  0  0  0  0  0  0  0
    5.4016   -2.5149    0.0000 H   0  0  0  0  0  0  0  0  0  0  0  0
    5.0613   -3.2357    0.0000 H   0  0  0  0  0  0  0  0  0  0  0  0
    5.5814    4.5504    0.0000 H   0  0  0  0  0  0  0  0  0  0  0  0
    4.7101    4.4523    0.0000 H   0  0  0  0  0  0  0  0  0  0  0  0
    4.8083    3.5810    0.0000 H   0  0  0  0  0  0  0  0  0  0  0  0
    3.3638   -1.6751    0.0000 H   0  0  0  0  0  0  0  0  0  0  0  0
    4.1589   -1.6186    0.0000 H   0  0  0  0  0  0  0  0  0  0  0  0
    6.0027   -4.6378    0.0000 H   0  0  0  0  0  0  0  0  0  0  0  0
    6.3430   -3.9171    0.0000 H   0  0  0  0  0  0  0  0  0  0  0  0
   11.3676    1.7249    0.0000 H   0  0  0  0  0  0  0  0  0  0  0  0
    3.1923   -0.2337    0.0000 H   0  0  0  0  0  0  0  0  0  0  0  0
    2.3972   -0.2902    0.0000 H   0  0  0  0  0  0  0  0  0  0  0  0
    4.5683   -4.1348    0.0000 H   0  0  0  0  0  0  0  0  0  0  0  0
    4.4119   -4.9975    0.0000 H   0  0  0  0  0  0  0  0  0  0  0  0
    5.2747   -5.1539    0.0000 H   0  0  0  0  0  0  0  0  0  0  0  0
    1.6527   -0.7823    0.0000 H   0  0  0  0  0  0  0  0  0  0  0  0
    1.4864   -1.6432    0.0000 H   0  0  0  0  0  0  0  0  0  0  0  0
    2.3473   -1.8095    0.0000 H   0  0  0  0  0  0  0  0  0  0  0  0
  1 10  1  0  0  0  0
  1 25  1  0  0  0  0
  2 13  1  0  0  0  0
  2 28  1  0  0  0  0
  3 14  1  0  0  0  0
  3 52  1  0  0  0  0
  4 20  1  0  0  0  0
  4 56  1  0  0  0  0
  5 25  2  0  0  0  0
  6 26  2  0  0  0  0
  7 29  1  0  0  0  0
  7 68  1  0  0  0  0
  8 28  2  0  0  0  0
  9 10  1  0  0  0  0
  9 11  1  0  0  0  0
  9 12  1  0  0  0  0
  9 37  1  0  0  0  0
 10 11  1  0  0  0  0
 10 13  1  0  0  0  0
 11 16  1  0  0  0  0
 11 17  1  0  0  0  0
 12 14  1  0  0  0  0
 12 19  1  0  0  0  0
 12 38  1  0  0  0  0
 13 15  1  0  0  0  0
 13 39  1  0  0  0  0
 14 15  1  0  0  0  0
 14 18  1  0  0  0  0
 15 21  1  0  0  0  0
 15 40  1  0  0  0  0
 16 41  1  0  0  0  0
 16 42  1  0  0  0  0
 16 43  1  0  0  0  0
 17 44  1  0  0  0  0
 17 45  1  0  0  0  0
 17 46  1  0  0  0  0
 18 20  1  0  0  0  0
 18 24  1  0  0  0  0
 18 47  1  0  0  0  0
 19 22  2  0  0  0  0
 19 48  1  0  0  0  0
 20 23  1  0  0  0  0
 20 26  1  0  0  0  0
 21 49  1  0  0  0  0
 21 50  1  0  0  0  0
 21 51  1  0  0  0  0
 22 23  1  0  0  0  0
 22 29  1  0  0  0  0
 23 53  1  0  0  0  0
 23 54  1  0  0  0  0
 24 27  2  0  0  0  0
 24 55  1  0  0  0  0
 25 30  1  0  0  0  0
 26 27  1  0  0  0  0
 27 31  1  0  0  0  0
 28 32  1  0  0  0  0
 29 57  1  0  0  0  0
 29 58  1  0  0  0  0
 30 33  1  0  0  0  0
 30 59  1  0  0  0  0
 30 60  1  0  0  0  0
 31 61  1  0  0  0  0
 31 62  1  0  0  0  0
 31 63  1  0  0  0  0
 32 34  1  0  0  0  0
 32 64  1  0  0  0  0
 32 65  1  0  0  0  0
 33 35  1  0  0  0  0
 33 66  1  0  0  0  0
 33 67  1  0  0  0  0
 34 36  1  0  0  0  0
 34 69  1  0  0  0  0
 34 70  1  0  0  0  0
 35 71  1  0  0  0  0
 35 72  1  0  0  0  0
 35 73  1  0  0  0  0
 36 74  1  0  0  0  0
 36 75  1  0  0  0  0
 36 76  1  0  0  0  0
M  END
> <PUBCHEM_COMPOUND_CID>
500033
> <PUBCHEM_COMPOUND_CANONICALIZED>
1
> <PUBCHEM_CACTVS_COMPLEXITY>
1030
> <PUBCHEM_CACTVS_HBOND_ACCEPTOR>
8
> <PUBCHEM_CACTVS_HBOND_DONOR>
3
> <PUBCHEM_CACTVS_ROTATABLE_BOND>
9
> <PUBCHEM_CACTVS_SUBSKEYS>
AAADcfB4PAAAAAAAAAAAAAAAGAAAAQAAAAAwAAAABggAAACAAAAAGgAACAAAD1SggAICCAAABgCIAqDSCAIAAAAgAAAACAFAAEgBFBIAAQACUAAFwAAKEYPK7PyPgAAAAAAAAADCAAYQADCAAAAAAAAAAA==
> <PUBCHEM_IUPAC_OPENEYE_NAME>
[13-butanoyloxy-1,6-dihydroxy-8-(hydroxymethyl)-4,12,12,15-tetramethyl-5-oxo-14-tetracyclo[8.5.0.02,6.011,13]pentadeca-3,8-dienyl] butanoate
> <PUBCHEM_IUPAC_CAS_NAME>
butanoic acid [1,6-dihydroxy-8-(hydroxymethyl)-4,12,12,15-tetramethyl-5-oxo-13-(1-oxobutoxy)-14-tetracyclo[8.5.0.02,6.011,13]pentadeca-3,8-dienyl] ester
> <PUBCHEM_IUPAC_NAME_MARKUP>
[13-butanoyloxy-1,6-dihydroxy-8-(hydroxymethyl)-4,12,12,15-tetramethyl-5-oxo-14-tetracyclo[8.5.0.0<SUP>2,6</SUP>.0<SUP>11,13</SUP>]pentadeca-3,8-dienyl] butanoate
> <PUBCHEM_IUPAC_NAME>
[13-butanoyloxy-1,6-dihydroxy-8-(hydroxymethyl)-4,12,12,15-tetramethyl-5-oxo-14-tetracyclo[8.5.0.02,6.011,13]pentadeca-3,8-dienyl] butanoate
> <PUBCHEM_IUPAC_SYSTEMATIC_NAME>
[13-butanoyloxy-8-(hydroxymethyl)-4,12,12,15-tetramethyl-1,6-bis(oxidanyl)-5-oxidanylidene-14-tetracyclo[8.5.0.02,6.011,13]pentadeca-3,8-dienyl] butanoate
> <PUBCHEM_IUPAC_TRADITIONAL_NAME>
butyric acid (13-butyryloxy-1,6-dihydroxy-5-keto-4,12,12,15-tetramethyl-8-methylol-14-tetracyclo[8.5.0.02,6.011,13]pentadeca-3,8-dienyl) ester
> <PUBCHEM_IUPAC_INCHI>
InChI=1S/C28H40O8/c1-7-9-20(30)35-24-16(4)27(34)18(22-25(5,6)28(22,24)36-21(31)10-8-2)12-17(14-29)13-26(33)19(27)11-15(3)23(26)32/h11-12,16,18-19,22,24,29,33-34H,7-10,13-14H2,1-6H3
> <PUBCHEM_IUPAC_INCHIKEY>
BQJRUJTZSGYBEZ-UHFFFAOYSA-N
> <PUBCHEM_XLOGP3_AA>
2
> <PUBCHEM_EXACT_MASS>
504.27231823
> <PUBCHEM_MOLECULAR_FORMULA>
C28H40O8
> <PUBCHEM_MOLECULAR_WEIGHT>
504.6
> <PUBCHEM_OPENEYE_CAN_SMILES>
CCCC(=O)OC1C(C2(C(C=C(CC3(C2C=C(C3=O)C)O)CO)C4C1(C4(C)C)OC(=O)CCC)O)C
> <PUBCHEM_OPENEYE_ISO_SMILES>
CCCC(=O)OC1C(C2(C(C=C(CC3(C2C=C(C3=O)C)O)CO)C4C1(C4(C)C)OC(=O)CCC)O)C
> <PUBCHEM_CACTVS_TPSA>
130
> <PUBCHEM_MONOISOTOPIC_WEIGHT>
504.27231823
> <PUBCHEM_TOTAL_CHARGE>
0
> <PUBCHEM_HEAVY_ATOM_COUNT>
36
> <PUBCHEM_ATOM_DEF_STEREO_COUNT>
0
> <PUBCHEM_ATOM_UDEF_STEREO_COUNT>
8
> <PUBCHEM_BOND_DEF_STEREO_COUNT>
0
> <PUBCHEM_BOND_UDEF_STEREO_COUNT>
0
> <PUBCHEM_ISOTOPIC_ATOM_COUNT>
0
> <PUBCHEM_COMPONENT_COUNT>
1
> <PUBCHEM_CACTVS_TAUTO_COUNT>
-1
> <PUBCHEM_COORDINATE_TYPE>
1
5
255
> <PUBCHEM_BONDANNOTATIONS>
10  1  3
12  19  3
15  21  3
18  24  3
13  2  3
14  3  3
20  4  3
9  11  3
$$$$
