500082
  -OEChem-10302200282D
 55 58  0     1  0  0  0  0  0999 V2000
    4.3177    0.4203    0.0000 O   0  0  0  0  0  0  0  0  0  0  0  0
    6.4870   -0.3207    0.0000 O   0  0  0  0  0  0  0  0  0  0  0  0
    5.7899    1.1100    0.0000 O   0  0  0  0  0  0  0  0  0  0  0  0
    4.5402    1.3953    0.0000 O   0  0  0  0  0  0  0  0  0  0  0  0
    4.6664   -0.2988    0.0000 C   0  0  3  0  0  0  0  0  0  0  0  0
    4.7603   -1.3362    0.0000 C   0  0  3  0  0  0  0  0  0  0  0  0
    3.7655    0.1351    0.0000 C   0  0  3  0  0  0  0  0  0  0  0  0
    2.8959   -0.4383    0.0000 C   0  0  3  0  0  0  0  0  0  0  0  0
    5.5674    0.1351    0.0000 C   0  0  3  0  0  0  0  0  0  0  0  0
    5.6389   -1.8668    0.0000 C   0  0  3  0  0  0  0  0  0  0  0  0
    3.9042   -1.9296    0.0000 C   0  0  0  0  0  0  0  0  0  0  0  0
    2.9657   -1.4776    0.0000 C   0  0  0  0  0  0  0  0  0  0  0  0
    3.5430    1.1100    0.0000 C   0  0  0  0  0  0  0  0  0  0  0  0
    6.5237   -1.3465    0.0000 C   0  0  3  0  0  0  0  0  0  0  0  0
    5.1664    1.8919    0.0000 C   0  0  3  0  0  0  0  0  0  0  0  0
    4.1664    1.8919    0.0000 C   0  0  0  0  0  0  0  0  0  0  0  0
    2.0000    0.0059    0.0000 C   0  0  0  0  0  0  0  0  0  0  0  0
    5.6330   -2.8668    0.0000 C   0  0  0  0  0  0  0  0  0  0  0  0
    7.4004   -1.8275    0.0000 C   0  0  0  0  0  0  0  0  0  0  0  0
    5.3890    2.8668    0.0000 C   0  0  0  0  0  0  0  0  0  0  0  0
    8.2553   -1.3087    0.0000 C   0  0  0  0  0  0  0  0  0  0  0  0
    9.1321   -1.7897    0.0000 C   0  0  0  0  0  0  0  0  0  0  0  0
    9.9870   -1.2709    0.0000 C   0  0  0  0  0  0  0  0  0  0  0  0
    4.7798   -1.9559    0.0000 H   0  0  0  0  0  0  0  0  0  0  0  0
    3.1901    0.3661    0.0000 H   0  0  0  0  0  0  0  0  0  0  0  0
    2.3803   -0.7826    0.0000 H   0  0  0  0  0  0  0  0  0  0  0  0
    6.1275    0.4009    0.0000 H   0  0  0  0  0  0  0  0  0  0  0  0
    6.1762   -2.1762    0.0000 H   0  0  0  0  0  0  0  0  0  0  0  0
    3.5436   -2.4339    0.0000 H   0  0  0  0  0  0  0  0  0  0  0  0
    4.3394   -2.3712    0.0000 H   0  0  0  0  0  0  0  0  0  0  0  0
    2.3491   -1.4127    0.0000 H   0  0  0  0  0  0  0  0  0  0  0  0
    2.7963   -2.0740    0.0000 H   0  0  0  0  0  0  0  0  0  0  0  0
    3.1564    1.5948    0.0000 H   0  0  0  0  0  0  0  0  0  0  0  0
    2.9844    0.8410    0.0000 H   0  0  0  0  0  0  0  0  0  0  0  0
    7.0515   -1.0212    0.0000 H   0  0  0  0  0  0  0  0  0  0  0  0
    4.3044    2.4963    0.0000 H   0  0  0  0  0  0  0  0  0  0  0  0
    3.6078    2.1609    0.0000 H   0  0  0  0  0  0  0  0  0  0  0  0
    2.2755    0.5614    0.0000 H   0  0  0  0  0  0  0  0  0  0  0  0
    1.4446    0.2814    0.0000 H   0  0  0  0  0  0  0  0  0  0  0  0
    1.7246   -0.5495    0.0000 H   0  0  0  0  0  0  0  0  0  0  0  0
    5.0130   -2.8632    0.0000 H   0  0  0  0  0  0  0  0  0  0  0  0
    5.6294   -3.4868    0.0000 H   0  0  0  0  0  0  0  0  0  0  0  0
    6.2530   -2.8704    0.0000 H   0  0  0  0  0  0  0  0  0  0  0  0
    7.0124   -2.3110    0.0000 H   0  0  0  0  0  0  0  0  0  0  0  0
    7.8092   -2.2936    0.0000 H   0  0  0  0  0  0  0  0  0  0  0  0
    5.9934    2.7288    0.0000 H   0  0  0  0  0  0  0  0  0  0  0  0
    5.5269    3.4712    0.0000 H   0  0  0  0  0  0  0  0  0  0  0  0
    4.7845    3.0048    0.0000 H   0  0  0  0  0  0  0  0  0  0  0  0
    8.6434   -0.8252    0.0000 H   0  0  0  0  0  0  0  0  0  0  0  0
    7.8465   -0.8426    0.0000 H   0  0  0  0  0  0  0  0  0  0  0  0
    8.7440   -2.2732    0.0000 H   0  0  0  0  0  0  0  0  0  0  0  0
    9.5409   -2.2558    0.0000 H   0  0  0  0  0  0  0  0  0  0  0  0
   10.3086   -1.8009    0.0000 H   0  0  0  0  0  0  0  0  0  0  0  0
   10.5170   -0.9492    0.0000 H   0  0  0  0  0  0  0  0  0  0  0  0
    9.6653   -0.7408    0.0000 H   0  0  0  0  0  0  0  0  0  0  0  0
  1  4  1  0  0  0  0
  1  5  1  0  0  0  0
  2  9  1  0  0  0  0
  2 14  1  0  0  0  0
  3  9  1  0  0  0  0
  3 15  1  0  0  0  0
  4 15  1  0  0  0  0
  5  6  1  0  0  0  0
  5  7  1  0  0  0  0
  5  9  1  0  0  0  0
  6 10  1  0  0  0  0
  6 11  1  0  0  0  0
  6 24  1  0  0  0  0
  7  8  1  0  0  0  0
  7 13  1  0  0  0  0
  7 25  1  0  0  0  0
  8 12  1  0  0  0  0
  8 17  1  0  0  0  0
  8 26  1  0  0  0  0
  9 27  1  0  0  0  0
 10 14  1  0  0  0  0
 10 18  1  0  0  0  0
 10 28  1  0  0  0  0
 11 12  1  0  0  0  0
 11 29  1  0  0  0  0
 11 30  1  0  0  0  0
 12 31  1  0  0  0  0
 12 32  1  0  0  0  0
 13 16  1  0  0  0  0
 13 33  1  0  0  0  0
 13 34  1  0  0  0  0
 14 19  1  0  0  0  0
 14 35  1  0  0  0  0
 15 16  1  0  0  0  0
 15 20  1  0  0  0  0
 16 36  1  0  0  0  0
 16 37  1  0  0  0  0
 17 38  1  0  0  0  0
 17 39  1  0  0  0  0
 17 40  1  0  0  0  0
 18 41  1  0  0  0  0
 18 42  1  0  0  0  0
 18 43  1  0  0  0  0
 19 21  1  0  0  0  0
 19 44  1  0  0  0  0
 19 45  1  0  0  0  0
 20 46  1  0  0  0  0
 20 47  1  0  0  0  0
 20 48  1  0  0  0  0
 21 22  1  0  0  0  0
 21 49  1  0  0  0  0
 21 50  1  0  0  0  0
 22 23  1  0  0  0  0
 22 51  1  0  0  0  0
 22 52  1  0  0  0  0
 23 53  1  0  0  0  0
 23 54  1  0  0  0  0
 23 55  1  0  0  0  0
M  END
> <PUBCHEM_COMPOUND_CID>
500082
> <PUBCHEM_COMPOUND_CANONICALIZED>
1
> <PUBCHEM_CACTVS_COMPLEXITY>
455
> <PUBCHEM_CACTVS_HBOND_ACCEPTOR>
4
> <PUBCHEM_CACTVS_HBOND_DONOR>
0
> <PUBCHEM_CACTVS_ROTATABLE_BOND>
3
> <PUBCHEM_CACTVS_SUBSKEYS>
AAADcfB4OAAAAAAAAAAAAAAAAAAAAAAAAAA0SIAABIkAAACQAAAAGgAABAAADVSwgAMCCAAABAAAAAAAAAAAAAAAAAAAAAAAAAARAAIAAAAiAAAEAAAGAAHA4PwOgAAAAAAAAACAAAYAADAAAAAAAAAAAA==
> <PUBCHEM_IUPAC_OPENEYE_NAME>
10-butyl-1,5,9-trimethyl-11,14,15,16-tetraoxatetracyclo[10.3.1.04,13.08,13]hexadecane
> <PUBCHEM_IUPAC_CAS_NAME>
10-butyl-1,5,9-trimethyl-11,14,15,16-tetraoxatetracyclo[10.3.1.04,13.08,13]hexadecane
> <PUBCHEM_IUPAC_NAME_MARKUP>
10-butyl-1,5,9-trimethyl-11,14,15,16-tetraoxatetracyclo[10.3.1.0<SUP>4,13</SUP>.0<SUP>8,13</SUP>]hexadecane
> <PUBCHEM_IUPAC_NAME>
10-butyl-1,5,9-trimethyl-11,14,15,16-tetraoxatetracyclo[10.3.1.04,13.08,13]hexadecane
> <PUBCHEM_IUPAC_SYSTEMATIC_NAME>
10-butyl-1,5,9-trimethyl-11,14,15,16-tetraoxatetracyclo[10.3.1.04,13.08,13]hexadecane
> <PUBCHEM_IUPAC_TRADITIONAL_NAME>
10-butyl-1,5,9-trimethyl-11,14,15,16-tetraoxatetracyclo[10.3.1.04,13.08,13]hexadecane
> <PUBCHEM_IUPAC_INCHI>
InChI=1S/C19H32O4/c1-5-6-7-16-13(3)15-9-8-12(2)14-10-11-18(4)21-17(20-16)19(14,15)23-22-18/h12-17H,5-11H2,1-4H3
> <PUBCHEM_IUPAC_INCHIKEY>
NCRPMFJIMMDUKN-UHFFFAOYSA-N
> <PUBCHEM_XLOGP3_AA>
4.9
> <PUBCHEM_EXACT_MASS>
324.23005950
> <PUBCHEM_MOLECULAR_FORMULA>
C19H32O4
> <PUBCHEM_MOLECULAR_WEIGHT>
324.5
> <PUBCHEM_OPENEYE_CAN_SMILES>
CCCCC1C(C2CCC(C3C24C(O1)OC(CC3)(OO4)C)C)C
> <PUBCHEM_OPENEYE_ISO_SMILES>
CCCCC1C(C2CCC(C3C24C(O1)OC(CC3)(OO4)C)C)C
> <PUBCHEM_CACTVS_TPSA>
36.9
> <PUBCHEM_MONOISOTOPIC_WEIGHT>
324.23005950
> <PUBCHEM_TOTAL_CHARGE>
0
> <PUBCHEM_HEAVY_ATOM_COUNT>
23
> <PUBCHEM_ATOM_DEF_STEREO_COUNT>
0
> <PUBCHEM_ATOM_UDEF_STEREO_COUNT>
8
> <PUBCHEM_BOND_DEF_STEREO_COUNT>
0
> <PUBCHEM_BOND_UDEF_STEREO_COUNT>
0
> <PUBCHEM_ISOTOPIC_ATOM_COUNT>
0
> <PUBCHEM_COMPONENT_COUNT>
1
> <PUBCHEM_CACTVS_TAUTO_COUNT>
-1
> <PUBCHEM_COORDINATE_TYPE>
1
5
255
> <PUBCHEM_BONDANNOTATIONS>
10  18  3
14  19  3
15  20  3
9  3  3
5  6  3
6  11  3
7  13  3
8  17  3
$$$$
