500021
  -OEChem-10302200282D
 78 82  0     1  0  0  0  0  0999 V2000
    6.9418   -3.8741    0.0000 O   0  0  0  0  0  0  0  0  0  0  0  0
    7.0128   -2.3395    0.0000 O   0  0  0  0  0  0  0  0  0  0  0  0
    6.2727   -0.7261    0.0000 O   0  0  0  0  0  0  0  0  0  0  0  0
    4.0074   -2.0930    0.0000 O   0  0  0  0  0  0  0  0  0  0  0  0
    7.5599    0.4329    0.0000 O   0  0  0  0  0  0  0  0  0  0  0  0
    2.3601   -1.5578    0.0000 O   0  0  0  0  0  0  0  0  0  0  0  0
    4.6254   -0.1909    0.0000 O   0  0  0  0  0  0  0  0  0  0  0  0
    2.9270    2.9896    0.0000 O   0  0  0  0  0  0  0  0  0  0  0  0
    3.5451    4.8917    0.0000 O   0  0  0  0  0  0  0  0  0  0  0  0
    6.6328   -2.4203    0.0000 C   0  0  3  0  0  0  0  0  0  0  0  0
    7.4418   -3.0081    0.0000 C   0  0  3  0  0  0  0  0  0  0  0  0
    5.6547   -2.6282    0.0000 C   0  0  3  0  0  0  0  0  0  0  0  0
    8.2508   -2.4203    0.0000 C   0  0  3  0  0  0  0  0  0  0  0  0
    6.9418   -1.4692    0.0000 C   0  0  3  0  0  0  0  0  0  0  0  0
    7.9418   -3.8741    0.0000 C   0  0  0  0  0  0  0  0  0  0  0  0
    7.9418   -1.4692    0.0000 C   0  0  0  0  0  0  0  0  0  0  0  0
    6.3238   -3.3714    0.0000 C   0  0  3  0  0  0  0  0  0  0  0  0
    7.0637   -3.4865    0.0000 C   0  0  0  0  0  0  0  0  0  0  0  0
    4.6765   -2.8361    0.0000 C   0  0  0  0  0  0  0  0  0  0  0  0
    4.9855   -1.8851    0.0000 C   0  0  0  0  0  0  0  0  0  0  0  0
    6.0148   -4.3224    0.0000 C   0  0  0  0  0  0  0  0  0  0  0  0
    4.3675   -3.7872    0.0000 C   0  0  0  0  0  0  0  0  0  0  0  0
    5.0366   -4.5303    0.0000 C   0  0  0  0  0  0  0  0  0  0  0  0
    6.5817    0.2250    0.0000 C   0  0  0  0  0  0  0  0  0  0  0  0
    4.7276   -5.4814    0.0000 C   0  0  0  0  0  0  0  0  0  0  0  0
    3.3383   -1.3498    0.0000 C   0  0  0  0  0  0  0  0  0  0  0  0
    5.9126    0.9681    0.0000 C   0  0  0  0  0  0  0  0  0  0  0  0
    3.6473   -0.3988    0.0000 C   0  0  3  0  0  0  0  0  0  0  0  0
    2.9782    0.3444    0.0000 C   0  0  3  0  0  0  0  0  0  0  0  0
    6.2216    1.9192    0.0000 C   0  0  0  0  0  0  0  0  0  0  0  0
    3.2872    1.2954    0.0000 C   0  0  0  0  0  0  0  0  0  0  0  0
    2.0000    0.1364    0.0000 C   0  0  0  0  0  0  0  0  0  0  0  0
    5.5525    2.6623    0.0000 C   0  0  0  0  0  0  0  0  0  0  0  0
    2.6180    2.0386    0.0000 C   0  0  0  0  0  0  0  0  0  0  0  0
    4.5743    2.4544    0.0000 C   0  0  0  0  0  0  0  0  0  0  0  0
    3.9052    3.1975    0.0000 C   0  0  3  0  0  0  0  0  0  0  0  0
    4.2142    4.1486    0.0000 C   0  0  3  0  0  0  0  0  0  0  0  0
    5.1924    4.3565    0.0000 C   0  0  0  0  0  0  0  0  0  0  0  0
    8.8405   -2.6119    0.0000 H   0  0  0  0  0  0  0  0  0  0  0  0
    7.1940   -0.9029    0.0000 H   0  0  0  0  0  0  0  0  0  0  0  0
    8.0495   -4.4847    0.0000 H   0  0  0  0  0  0  0  0  0  0  0  0
    8.5244   -3.6621    0.0000 H   0  0  0  0  0  0  0  0  0  0  0  0
    8.5483   -1.3403    0.0000 H   0  0  0  0  0  0  0  0  0  0  0  0
    7.8770   -0.8526    0.0000 H   0  0  0  0  0  0  0  0  0  0  0  0
    6.8817   -3.6418    0.0000 H   0  0  0  0  0  0  0  0  0  0  0  0
    6.4888   -3.7188    0.0000 H   0  0  0  0  0  0  0  0  0  0  0  0
    7.2960   -4.0614    0.0000 H   0  0  0  0  0  0  0  0  0  0  0  0
    7.6385   -3.2542    0.0000 H   0  0  0  0  0  0  0  0  0  0  0  0
    4.6549   -2.2165    0.0000 H   0  0  0  0  0  0  0  0  0  0  0  0
    4.0626   -2.7498    0.0000 H   0  0  0  0  0  0  0  0  0  0  0  0
    5.5113   -1.5565    0.0000 H   0  0  0  0  0  0  0  0  0  0  0  0
    4.7533   -1.3102    0.0000 H   0  0  0  0  0  0  0  0  0  0  0  0
    6.4296   -4.7832    0.0000 H   0  0  0  0  0  0  0  0  0  0  0  0
    3.8201   -3.4961    0.0000 H   0  0  0  0  0  0  0  0  0  0  0  0
    3.9858   -4.2758    0.0000 H   0  0  0  0  0  0  0  0  0  0  0  0
    4.1380   -5.2898    0.0000 H   0  0  0  0  0  0  0  0  0  0  0  0
    4.5360   -6.0710    0.0000 H   0  0  0  0  0  0  0  0  0  0  0  0
    5.3173   -5.6730    0.0000 H   0  0  0  0  0  0  0  0  0  0  0  0
    5.3061    0.8392    0.0000 H   0  0  0  0  0  0  0  0  0  0  0  0
    4.0621   -0.8595    0.0000 H   0  0  0  0  0  0  0  0  0  0  0  0
    2.5633    0.8051    0.0000 H   0  0  0  0  0  0  0  0  0  0  0  0
    6.8281    2.0481    0.0000 H   0  0  0  0  0  0  0  0  0  0  0  0
    4.8170    0.3988    0.0000 H   0  0  0  0  0  0  0  0  0  0  0  0
    3.8346    1.0044    0.0000 H   0  0  0  0  0  0  0  0  0  0  0  0
    3.6689    1.7840    0.0000 H   0  0  0  0  0  0  0  0  0  0  0  0
    1.8711    0.7429    0.0000 H   0  0  0  0  0  0  0  0  0  0  0  0
    1.3936    0.0075    0.0000 H   0  0  0  0  0  0  0  0  0  0  0  0
    2.1289   -0.4700    0.0000 H   0  0  0  0  0  0  0  0  0  0  0  0
    5.7441    3.2520    0.0000 H   0  0  0  0  0  0  0  0  0  0  0  0
    2.0706    2.3296    0.0000 H   0  0  0  0  0  0  0  0  0  0  0  0
    2.2363    1.5500    0.0000 H   0  0  0  0  0  0  0  0  0  0  0  0
    4.3827    1.8647    0.0000 H   0  0  0  0  0  0  0  0  0  0  0  0
    3.4903    3.6583    0.0000 H   0  0  0  0  0  0  0  0  0  0  0  0
    4.4058    4.7382    0.0000 H   0  0  0  0  0  0  0  0  0  0  0  0
    5.3213    3.7500    0.0000 H   0  0  0  0  0  0  0  0  0  0  0  0
    5.7988    4.4854    0.0000 H   0  0  0  0  0  0  0  0  0  0  0  0
    5.0635    4.9630    0.0000 H   0  0  0  0  0  0  0  0  0  0  0  0
    3.7367    5.4814    0.0000 H   0  0  0  0  0  0  0  0  0  0  0  0
  1 11  1  0  0  0  0
  1 15  1  0  0  0  0
  2 13  1  0  0  0  0
  2 17  1  0  0  0  0
  3 14  1  0  0  0  0
  3 24  1  0  0  0  0
  4 20  1  0  0  0  0
  4 26  1  0  0  0  0
  5 24  2  0  0  0  0
  6 26  2  0  0  0  0
  7 28  1  0  0  0  0
  7 63  1  0  0  0  0
  8 34  1  0  0  0  0
  8 36  1  0  0  0  0
  9 37  1  0  0  0  0
  9 78  1  0  0  0  0
 10 11  1  0  0  0  0
 10 12  1  0  0  0  0
 10 14  1  0  0  0  0
 10 18  1  0  0  0  0
 11 13  1  0  0  0  0
 11 15  1  0  0  0  0
 12 17  1  0  0  0  0
 12 19  1  0  0  0  0
 12 20  1  0  0  0  0
 13 16  1  0  0  0  0
 13 39  1  0  0  0  0
 14 16  1  0  0  0  0
 14 40  1  0  0  0  0
 15 41  1  0  0  0  0
 15 42  1  0  0  0  0
 16 43  1  0  0  0  0
 16 44  1  0  0  0  0
 17 21  1  0  0  0  0
 17 45  1  0  0  0  0
 18 46  1  0  0  0  0
 18 47  1  0  0  0  0
 18 48  1  0  0  0  0
 19 22  1  0  0  0  0
 19 49  1  0  0  0  0
 19 50  1  0  0  0  0
 20 51  1  0  0  0  0
 20 52  1  0  0  0  0
 21 23  2  0  0  0  0
 21 53  1  0  0  0  0
 22 23  1  0  0  0  0
 22 54  1  0  0  0  0
 22 55  1  0  0  0  0
 23 25  1  0  0  0  0
 24 27  1  0  0  0  0
 25 56  1  0  0  0  0
 25 57  1  0  0  0  0
 25 58  1  0  0  0  0
 26 28  1  0  0  0  0
 27 30  2  3  0  0  0
 27 59  1  0  0  0  0
 28 29  1  0  0  0  0
 28 60  1  0  0  0  0
 29 31  1  0  0  0  0
 29 32  1  0  0  0  0
 29 61  1  0  0  0  0
 30 33  1  0  0  0  0
 30 62  1  0  0  0  0
 31 34  1  0  0  0  0
 31 64  1  0  0  0  0
 31 65  1  0  0  0  0
 32 66  1  0  0  0  0
 32 67  1  0  0  0  0
 32 68  1  0  0  0  0
 33 35  2  3  0  0  0
 33 69  1  0  0  0  0
 34 70  1  0  0  0  0
 34 71  1  0  0  0  0
 35 36  1  0  0  0  0
 35 72  1  0  0  0  0
 36 37  1  0  0  0  0
 36 73  1  0  0  0  0
 37 38  1  0  0  0  0
 37 74  1  0  0  0  0
 38 75  1  0  0  0  0
 38 76  1  0  0  0  0
 38 77  1  0  0  0  0
M  END
> <PUBCHEM_COMPOUND_CID>
500021
> <PUBCHEM_COMPOUND_CANONICALIZED>
1
> <PUBCHEM_CACTVS_COMPLEXITY>
1040
> <PUBCHEM_CACTVS_HBOND_ACCEPTOR>
9
> <PUBCHEM_CACTVS_HBOND_DONOR>
2
> <PUBCHEM_CACTVS_ROTATABLE_BOND>
1
> <PUBCHEM_CACTVS_SUBSKEYS>
AAADcfB4PAAAAAAAAAAAAAAAEgAAAYAAAAAkQAAAAAAAAACAAAAAGgAACAAAD1SggAICCAAABgCIAiDSCAIAAAAgAAAICAFAAEgJFBIAIQACUAAFwAALoYPI5PwPgAAAAAAAAAAAAAAAAAAAAIQADCAAAA==
> <PUBCHEM_IUPAC_OPENEYE_NAME>
12-hydroxy-17-(1-hydroxyethyl)-5,13,25-trimethyl-spiro[2,10,16,23-tetraoxatetracyclo[22.2.1.03,8.08,25]heptacosa-4,18,20-triene-26,2'-oxirane]-11,22-dione
> <PUBCHEM_IUPAC_CAS_NAME>
12-hydroxy-17-(1-hydroxyethyl)-5,13,25-trimethylspiro[2,10,16,23-tetraoxatetracyclo[22.2.1.03,8.08,25]heptacosa-4,18,20-triene-26,2'-oxirane]-11,22-dione
> <PUBCHEM_IUPAC_NAME_MARKUP>
12-hydroxy-17-(1-hydroxyethyl)-5,13,25-trimethylspiro[2,10,16,23-tetraoxatetracyclo[22.2.1.0<SUP>3,8</SUP>.0<SUP>8,25</SUP>]heptacosa-4,18,20-triene-26,2&apos;-oxirane]-11,22-dione
> <PUBCHEM_IUPAC_NAME>
12-hydroxy-17-(1-hydroxyethyl)-5,13,25-trimethylspiro[2,10,16,23-tetraoxatetracyclo[22.2.1.03,8.08,25]heptacosa-4,18,20-triene-26,2'-oxirane]-11,22-dione
> <PUBCHEM_IUPAC_SYSTEMATIC_NAME>
17-(1-hydroxyethyl)-5,13,25-trimethyl-12-oxidanyl-spiro[2,10,16,23-tetraoxatetracyclo[22.2.1.03,8.08,25]heptacosa-4,18,20-triene-26,2'-oxirane]-11,22-dione
> <PUBCHEM_IUPAC_TRADITIONAL_NAME>
12-hydroxy-17-(1-hydroxyethyl)-5,13,25-trimethyl-spiro[2,10,16,23-tetraoxatetracyclo[22.2.1.03,8.08,25]heptacosa-4,18,20-triene-26,2'-oxirane]-11,22-quinone
> <PUBCHEM_IUPAC_INCHI>
InChI=1S/C29H40O9/c1-17-9-11-28-15-35-26(33)25(32)18(2)10-12-34-20(19(3)30)7-5-6-8-24(31)38-21-14-23(37-22(28)13-17)29(16-36-29)27(21,28)4/h5-8,13,18-23,25,30,32H,9-12,14-16H2,1-4H3
> <PUBCHEM_IUPAC_INCHIKEY>
NSFWWJIQIKBZMJ-UHFFFAOYSA-N
> <PUBCHEM_XLOGP3_AA>
2.2
> <PUBCHEM_EXACT_MASS>
532.26723285
> <PUBCHEM_MOLECULAR_FORMULA>
C29H40O9
> <PUBCHEM_MOLECULAR_WEIGHT>
532.6
> <PUBCHEM_OPENEYE_CAN_SMILES>
CC1CCOC(C=CC=CC(=O)OC2CC3C4(C2(C5(CCC(=CC5O3)C)COC(=O)C1O)C)CO4)C(C)O
> <PUBCHEM_OPENEYE_ISO_SMILES>
CC1CCOC(C=CC=CC(=O)OC2CC3C4(C2(C5(CCC(=CC5O3)C)COC(=O)C1O)C)CO4)C(C)O
> <PUBCHEM_CACTVS_TPSA>
124
> <PUBCHEM_MONOISOTOPIC_WEIGHT>
532.26723285
> <PUBCHEM_TOTAL_CHARGE>
0
> <PUBCHEM_HEAVY_ATOM_COUNT>
38
> <PUBCHEM_ATOM_DEF_STEREO_COUNT>
0
> <PUBCHEM_ATOM_UDEF_STEREO_COUNT>
10
> <PUBCHEM_BOND_DEF_STEREO_COUNT>
0
> <PUBCHEM_BOND_UDEF_STEREO_COUNT>
2
> <PUBCHEM_ISOTOPIC_ATOM_COUNT>
0
> <PUBCHEM_COMPONENT_COUNT>
1
> <PUBCHEM_CACTVS_TAUTO_COUNT>
-1
> <PUBCHEM_COORDINATE_TYPE>
1
5
255
> <PUBCHEM_BONDANNOTATIONS>
10  18  3
11  15  3
12  19  3
13  16  3
14  16  3
17  21  3
27  30  1
29  32  3
33  35  1
36  35  3
28  7  3
37  9  3
$$$$
