500061
  -OEChem-10302200282D
 52 53  0     1  0  0  0  0  0999 V2000
    2.7473   -0.2593    0.0000 O   0  0  0  0  0  0  0  0  0  0  0  0
    3.2320    0.4330    0.0000 O   0  0  0  0  0  0  0  0  0  0  0  0
    3.7320   -0.4330    0.0000 C   0  0  3  0  0  0  0  0  0  0  0  0
    4.2320    0.4330    0.0000 C   0  0  3  0  0  0  0  0  0  0  0  0
    4.5981   -0.9330    0.0000 C   0  0  0  0  0  0  0  0  0  0  0  0
    4.2320    1.4330    0.0000 C   0  0  0  0  0  0  0  0  0  0  0  0
    4.5981   -1.9330    0.0000 C   0  0  3  0  0  0  0  0  0  0  0  0
    5.0981    1.9330    0.0000 C   0  0  3  0  0  0  0  0  0  0  0  0
    2.8660   -0.9330    0.0000 C   0  0  0  0  0  0  0  0  0  0  0  0
    5.0981   -0.0670    0.0000 C   0  0  0  0  0  0  0  0  0  0  0  0
    3.7320   -2.4330    0.0000 C   0  0  0  0  0  0  0  0  0  0  0  0
    5.9641    1.4330    0.0000 C   0  0  0  0  0  0  0  0  0  0  0  0
    2.8660   -1.9330    0.0000 C   0  0  0  0  0  0  0  0  0  0  0  0
    5.9641    0.4330    0.0000 C   0  0  0  0  0  0  0  0  0  0  0  0
    5.4641   -2.4330    0.0000 C   0  0  0  0  0  0  0  0  0  0  0  0
    5.0981    2.9330    0.0000 C   0  0  0  0  0  0  0  0  0  0  0  0
    2.0000   -0.4330    0.0000 C   0  0  0  0  0  0  0  0  0  0  0  0
    5.5981   -0.9330    0.0000 C   0  0  0  0  0  0  0  0  0  0  0  0
    5.4641   -3.4330    0.0000 C   0  0  0  0  0  0  0  0  0  0  0  0
    5.9641    3.4330    0.0000 C   0  0  0  0  0  0  0  0  0  0  0  0
    6.3301   -1.9330    0.0000 C   0  0  0  0  0  0  0  0  0  0  0  0
    4.2320    3.4330    0.0000 C   0  0  0  0  0  0  0  0  0  0  0  0
    5.2087   -1.0407    0.0000 H   0  0  0  0  0  0  0  0  0  0  0  0
    4.8101   -0.3504    0.0000 H   0  0  0  0  0  0  0  0  0  0  0  0
    4.0200    2.0156    0.0000 H   0  0  0  0  0  0  0  0  0  0  0  0
    3.6215    1.3254    0.0000 H   0  0  0  0  0  0  0  0  0  0  0  0
    4.5981   -2.5530    0.0000 H   0  0  0  0  0  0  0  0  0  0  0  0
    5.6350    2.2430    0.0000 H   0  0  0  0  0  0  0  0  0  0  0  0
    3.3335   -2.9080    0.0000 H   0  0  0  0  0  0  0  0  0  0  0  0
    4.1306   -2.9080    0.0000 H   0  0  0  0  0  0  0  0  0  0  0  0
    6.5747    1.3254    0.0000 H   0  0  0  0  0  0  0  0  0  0  0  0
    6.1762    2.0156    0.0000 H   0  0  0  0  0  0  0  0  0  0  0  0
    2.3291   -2.2430    0.0000 H   0  0  0  0  0  0  0  0  0  0  0  0
    6.5010    0.1230    0.0000 H   0  0  0  0  0  0  0  0  0  0  0  0
    2.5352    0.3232    0.0000 H   0  0  0  0  0  0  0  0  0  0  0  0
    2.9220    0.9699    0.0000 H   0  0  0  0  0  0  0  0  0  0  0  0
    2.3100    0.1039    0.0000 H   0  0  0  0  0  0  0  0  0  0  0  0
    1.4631   -0.1230    0.0000 H   0  0  0  0  0  0  0  0  0  0  0  0
    1.6900   -0.9699    0.0000 H   0  0  0  0  0  0  0  0  0  0  0  0
    5.0612   -1.2430    0.0000 H   0  0  0  0  0  0  0  0  0  0  0  0
    5.9081   -1.4699    0.0000 H   0  0  0  0  0  0  0  0  0  0  0  0
    6.1350   -0.6230    0.0000 H   0  0  0  0  0  0  0  0  0  0  0  0
    4.8441   -3.4330    0.0000 H   0  0  0  0  0  0  0  0  0  0  0  0
    5.4641   -4.0530    0.0000 H   0  0  0  0  0  0  0  0  0  0  0  0
    6.0841   -3.4330    0.0000 H   0  0  0  0  0  0  0  0  0  0  0  0
    6.2741    2.8961    0.0000 H   0  0  0  0  0  0  0  0  0  0  0  0
    6.5010    3.7430    0.0000 H   0  0  0  0  0  0  0  0  0  0  0  0
    5.6541    3.9700    0.0000 H   0  0  0  0  0  0  0  0  0  0  0  0
    6.8671   -2.2430    0.0000 H   0  0  0  0  0  0  0  0  0  0  0  0
    6.3301   -1.3130    0.0000 H   0  0  0  0  0  0  0  0  0  0  0  0
    4.2320    4.0530    0.0000 H   0  0  0  0  0  0  0  0  0  0  0  0
    3.6951    3.1230    0.0000 H   0  0  0  0  0  0  0  0  0  0  0  0
  1  3  1  0  0  0  0
  1 35  1  0  0  0  0
  2  4  1  0  0  0  0
  2 36  1  0  0  0  0
  3  4  1  0  0  0  0
  3  5  1  0  0  0  0
  3  9  1  0  0  0  0
  4  6  1  0  0  0  0
  4 10  1  0  0  0  0
  5  7  1  0  0  0  0
  5 23  1  0  0  0  0
  5 24  1  0  0  0  0
  6  8  1  0  0  0  0
  6 25  1  0  0  0  0
  6 26  1  0  0  0  0
  7 11  1  0  0  0  0
  7 15  1  0  0  0  0
  7 27  1  0  0  0  0
  8 12  1  0  0  0  0
  8 16  1  0  0  0  0
  8 28  1  0  0  0  0
  9 13  2  0  0  0  0
  9 17  1  0  0  0  0
 10 14  2  0  0  0  0
 10 18  1  0  0  0  0
 11 13  1  0  0  0  0
 11 29  1  0  0  0  0
 11 30  1  0  0  0  0
 12 14  1  0  0  0  0
 12 31  1  0  0  0  0
 12 32  1  0  0  0  0
 13 33  1  0  0  0  0
 14 34  1  0  0  0  0
 15 19  1  0  0  0  0
 15 21  2  0  0  0  0
 16 20  1  0  0  0  0
 16 22  2  0  0  0  0
 17 37  1  0  0  0  0
 17 38  1  0  0  0  0
 17 39  1  0  0  0  0
 18 40  1  0  0  0  0
 18 41  1  0  0  0  0
 18 42  1  0  0  0  0
 19 43  1  0  0  0  0
 19 44  1  0  0  0  0
 19 45  1  0  0  0  0
 20 46  1  0  0  0  0
 20 47  1  0  0  0  0
 20 48  1  0  0  0  0
 21 49  1  0  0  0  0
 21 50  1  0  0  0  0
 22 51  1  0  0  0  0
 22 52  1  0  0  0  0
M  END
> <PUBCHEM_COMPOUND_CID>
500061
> <PUBCHEM_COMPOUND_CANONICALIZED>
1
> <PUBCHEM_CACTVS_COMPLEXITY>
504
> <PUBCHEM_CACTVS_HBOND_ACCEPTOR>
2
> <PUBCHEM_CACTVS_HBOND_DONOR>
2
> <PUBCHEM_CACTVS_ROTATABLE_BOND>
3
> <PUBCHEM_CACTVS_SUBSKEYS>
AAADceB4MAAAAAAAAAAAAAAAAAAAAAAAAAAgQAAAAAAAAAAAAAAAGgAACAAADUSAgAACAAAAAgCAAiBCAAAAAAAgAAAACAAAAAgBBAIAAQAAUAAEwAAJEAOAwMAOgAAAAAAAAAAAAAAAAAAAAAAAAAAAAA==
> <PUBCHEM_IUPAC_OPENEYE_NAME>
1-(1-hydroxy-5-isopropenyl-2-methyl-cyclohex-2-en-1-yl)-5-isopropenyl-2-methyl-cyclohex-2-en-1-ol
> <PUBCHEM_IUPAC_CAS_NAME>
1-[1-hydroxy-2-methyl-5-(1-methylethenyl)-1-cyclohex-2-enyl]-2-methyl-5-(1-methylethenyl)-1-cyclohex-2-enol
> <PUBCHEM_IUPAC_NAME_MARKUP>
1-(1-hydroxy-2-methyl-5-prop-1-en-2-ylcyclohex-2-en-1-yl)-2-methyl-5-prop-1-en-2-ylcyclohex-2-en-1-ol
> <PUBCHEM_IUPAC_NAME>
1-(1-hydroxy-2-methyl-5-prop-1-en-2-ylcyclohex-2-en-1-yl)-2-methyl-5-prop-1-en-2-ylcyclohex-2-en-1-ol
> <PUBCHEM_IUPAC_SYSTEMATIC_NAME>
2-methyl-1-(2-methyl-1-oxidanyl-5-prop-1-en-2-yl-cyclohex-2-en-1-yl)-5-prop-1-en-2-yl-cyclohex-2-en-1-ol
> <PUBCHEM_IUPAC_TRADITIONAL_NAME>
1-(1-hydroxy-5-isopropenyl-2-methyl-cyclohex-2-en-1-yl)-5-isopropenyl-2-methyl-cyclohex-2-en-1-ol
> <PUBCHEM_IUPAC_INCHI>
InChI=1S/C20H30O2/c1-13(2)17-9-7-15(5)19(21,11-17)20(22)12-18(14(3)4)10-8-16(20)6/h7-8,17-18,21-22H,1,3,9-12H2,2,4-6H3
> <PUBCHEM_IUPAC_INCHIKEY>
WPQAOGZTDKTBHI-UHFFFAOYSA-N
> <PUBCHEM_XLOGP3_AA>
3.5
> <PUBCHEM_EXACT_MASS>
302.224580195
> <PUBCHEM_MOLECULAR_FORMULA>
C20H30O2
> <PUBCHEM_MOLECULAR_WEIGHT>
302.5
> <PUBCHEM_OPENEYE_CAN_SMILES>
CC1=CCC(CC1(C2(CC(CC=C2C)C(=C)C)O)O)C(=C)C
> <PUBCHEM_OPENEYE_ISO_SMILES>
CC1=CCC(CC1(C2(CC(CC=C2C)C(=C)C)O)O)C(=C)C
> <PUBCHEM_CACTVS_TPSA>
40.5
> <PUBCHEM_MONOISOTOPIC_WEIGHT>
302.224580195
> <PUBCHEM_TOTAL_CHARGE>
0
> <PUBCHEM_HEAVY_ATOM_COUNT>
22
> <PUBCHEM_ATOM_DEF_STEREO_COUNT>
0
> <PUBCHEM_ATOM_UDEF_STEREO_COUNT>
4
> <PUBCHEM_BOND_DEF_STEREO_COUNT>
0
> <PUBCHEM_BOND_UDEF_STEREO_COUNT>
0
> <PUBCHEM_ISOTOPIC_ATOM_COUNT>
0
> <PUBCHEM_COMPONENT_COUNT>
1
> <PUBCHEM_CACTVS_TAUTO_COUNT>
-1
> <PUBCHEM_COORDINATE_TYPE>
1
5
255
> <PUBCHEM_BONDANNOTATIONS>
3  1  3
4  2  3
7  15  3
8  16  3
$$$$
