500034
  -OEChem-10302200282D
 62 65  0     1  0  0  0  0  0999 V2000
    8.0319    1.6807    0.0000 O   0  0  0  0  0  0  0  0  0  0  0  0
    4.7950    0.9244    0.0000 O   0  0  0  0  0  0  0  0  0  0  0  0
    9.0465    2.3102    0.0000 O   0  0  0  0  0  0  0  0  0  0  0  0
   10.1650   -0.0875    0.0000 O   0  0  0  0  0  0  0  0  0  0  0  0
    2.0000   -2.6279    0.0000 O   0  0  0  0  0  0  0  0  0  0  0  0
   10.8722    1.4936    0.0000 N   0  0  0  0  0  0  0  0  0  0  0  0
    7.3931    0.4244    0.0000 C   0  0  3  0  0  0  0  0  0  0  0  0
    7.3931   -0.5756    0.0000 C   0  0  3  0  0  0  0  0  0  0  0  0
    6.5271   -1.0756    0.0000 C   0  0  3  0  0  0  0  0  0  0  0  0
    5.6610   -0.5756    0.0000 C   0  0  3  0  0  0  0  0  0  0  0  0
    8.3393    0.7291    0.0000 C   0  0  3  0  0  0  0  0  0  0  0  0
    6.5271    0.9244    0.0000 C   0  0  0  0  0  0  0  0  0  0  0  0
    8.3393   -0.8803    0.0000 C   0  0  0  0  0  0  0  0  0  0  0  0
    5.6610    0.4244    0.0000 C   0  0  3  0  0  0  0  0  0  0  0  0
    8.9229   -0.0756    0.0000 C   0  0  0  0  0  0  0  0  0  0  0  0
    4.7510   -1.0824    0.0000 C   0  0  3  0  0  0  0  0  0  0  0  0
    6.5431   -2.1171    0.0000 C   0  0  0  0  0  0  0  0  0  0  0  0
    7.3931    1.4244    0.0000 C   0  0  0  0  0  0  0  0  0  0  0  0
    9.1493    1.3155    0.0000 C   0  0  3  0  0  0  0  0  0  0  0  0
    5.6451   -2.6449    0.0000 C   0  0  0  0  0  0  0  0  0  0  0  0
    4.7430   -2.1240    0.0000 C   0  0  0  0  0  0  0  0  0  0  0  0
    4.7587   -0.0825    0.0000 C   0  0  0  0  0  0  0  0  0  0  0  0
    3.8242   -0.5184    0.0000 C   0  0  0  0  0  0  0  0  0  0  0  0
    3.8076   -2.6738    0.0000 C   0  0  0  0  0  0  0  0  0  0  0  0
   10.0622    0.9072    0.0000 C   0  0  0  0  0  0  0  0  0  0  0  0
    2.8763   -1.0463    0.0000 C   0  0  0  0  0  0  0  0  0  0  0  0
    2.8680   -2.1313    0.0000 C   0  0  0  0  0  0  0  0  0  0  0  0
   11.7851    1.0853    0.0000 C   0  0  0  0  0  0  0  0  0  0  0  0
   12.5951    1.6716    0.0000 C   0  0  0  0  0  0  0  0  0  0  0  0
    7.4587   -1.1921    0.0000 H   0  0  0  0  0  0  0  0  0  0  0  0
    7.0664   -1.3814    0.0000 H   0  0  0  0  0  0  0  0  0  0  0  0
    6.1980   -0.2656    0.0000 H   0  0  0  0  0  0  0  0  0  0  0  0
    6.9256    1.3993    0.0000 H   0  0  0  0  0  0  0  0  0  0  0  0
    6.1285    1.3993    0.0000 H   0  0  0  0  0  0  0  0  0  0  0  0
    8.0883   -1.4472    0.0000 H   0  0  0  0  0  0  0  0  0  0  0  0
    8.8767   -1.1896    0.0000 H   0  0  0  0  0  0  0  0  0  0  0  0
    5.6610    1.0444    0.0000 H   0  0  0  0  0  0  0  0  0  0  0  0
    9.3838   -0.4903    0.0000 H   0  0  0  0  0  0  0  0  0  0  0  0
    9.3838    0.3391    0.0000 H   0  0  0  0  0  0  0  0  0  0  0  0
    6.7612   -2.6975    0.0000 H   0  0  0  0  0  0  0  0  0  0  0  0
    7.1523   -2.0016    0.0000 H   0  0  0  0  0  0  0  0  0  0  0  0
    8.0131    1.4244    0.0000 H   0  0  0  0  0  0  0  0  0  0  0  0
    7.3931    2.0444    0.0000 H   0  0  0  0  0  0  0  0  0  0  0  0
    6.7731    1.4244    0.0000 H   0  0  0  0  0  0  0  0  0  0  0  0
    8.5834    1.5687    0.0000 H   0  0  0  0  0  0  0  0  0  0  0  0
    5.2478   -3.1208    0.0000 H   0  0  0  0  0  0  0  0  0  0  0  0
    6.0460   -3.1178    0.0000 H   0  0  0  0  0  0  0  0  0  0  0  0
    5.3787   -0.0873    0.0000 H   0  0  0  0  0  0  0  0  0  0  0  0
    4.7635    0.5375    0.0000 H   0  0  0  0  0  0  0  0  0  0  0  0
    4.1388   -0.0777    0.0000 H   0  0  0  0  0  0  0  0  0  0  0  0
    8.4476    2.1408    0.0000 H   0  0  0  0  0  0  0  0  0  0  0  0
    3.8361    0.1015    0.0000 H   0  0  0  0  0  0  0  0  0  0  0  0
    4.7950    1.5444    0.0000 H   0  0  0  0  0  0  0  0  0  0  0  0
    3.8100   -3.2938    0.0000 H   0  0  0  0  0  0  0  0  0  0  0  0
    9.5488    2.6738    0.0000 H   0  0  0  0  0  0  0  0  0  0  0  0
    2.3430   -0.7301    0.0000 H   0  0  0  0  0  0  0  0  0  0  0  0
   10.8085    2.1103    0.0000 H   0  0  0  0  0  0  0  0  0  0  0  0
   11.4375    0.5719    0.0000 H   0  0  0  0  0  0  0  0  0  0  0  0
   12.2303    0.6538    0.0000 H   0  0  0  0  0  0  0  0  0  0  0  0
   12.9586    1.1694    0.0000 H   0  0  0  0  0  0  0  0  0  0  0  0
   13.0973    2.0352    0.0000 H   0  0  0  0  0  0  0  0  0  0  0  0
   12.2315    2.1739    0.0000 H   0  0  0  0  0  0  0  0  0  0  0  0
  1 11  1  0  0  0  0
  1 51  1  0  0  0  0
  2 14  1  0  0  0  0
  2 53  1  0  0  0  0
  3 19  1  0  0  0  0
  3 55  1  0  0  0  0
  4 25  2  0  0  0  0
  5 27  2  0  0  0  0
  6 25  1  0  0  0  0
  6 28  1  0  0  0  0
  6 57  1  0  0  0  0
  7  8  1  0  0  0  0
  7 11  1  0  0  0  0
  7 12  1  0  0  0  0
  7 18  1  0  0  0  0
  8  9  1  0  0  0  0
  8 13  1  0  0  0  0
  8 30  1  0  0  0  0
  9 10  1  0  0  0  0
  9 17  1  0  0  0  0
  9 31  1  0  0  0  0
 10 14  1  0  0  0  0
 10 16  1  0  0  0  0
 10 32  1  0  0  0  0
 11 15  1  0  0  0  0
 11 19  1  0  0  0  0
 12 14  1  0  0  0  0
 12 33  1  0  0  0  0
 12 34  1  0  0  0  0
 13 15  1  0  0  0  0
 13 35  1  0  0  0  0
 13 36  1  0  0  0  0
 14 37  1  0  0  0  0
 15 38  1  0  0  0  0
 15 39  1  0  0  0  0
 16 21  1  0  0  0  0
 16 22  1  0  0  0  0
 16 23  1  0  0  0  0
 17 20  1  0  0  0  0
 17 40  1  0  0  0  0
 17 41  1  0  0  0  0
 18 42  1  0  0  0  0
 18 43  1  0  0  0  0
 18 44  1  0  0  0  0
 19 25  1  0  0  0  0
 19 45  1  0  0  0  0
 20 21  1  0  0  0  0
 20 46  1  0  0  0  0
 20 47  1  0  0  0  0
 21 24  2  0  0  0  0
 22 48  1  0  0  0  0
 22 49  1  0  0  0  0
 22 50  1  0  0  0  0
 23 26  2  0  0  0  0
 23 52  1  0  0  0  0
 24 27  1  0  0  0  0
 24 54  1  0  0  0  0
 26 27  1  0  0  0  0
 26 56  1  0  0  0  0
 28 29  1  0  0  0  0
 28 58  1  0  0  0  0
 28 59  1  0  0  0  0
 29 60  1  0  0  0  0
 29 61  1  0  0  0  0
 29 62  1  0  0  0  0
M  END
> <PUBCHEM_COMPOUND_CID>
500034
> <PUBCHEM_COMPOUND_CANONICALIZED>
1
> <PUBCHEM_CACTVS_COMPLEXITY>
790
> <PUBCHEM_CACTVS_HBOND_ACCEPTOR>
5
> <PUBCHEM_CACTVS_HBOND_DONOR>
4
> <PUBCHEM_CACTVS_ROTATABLE_BOND>
3
> <PUBCHEM_CACTVS_SUBSKEYS>
AAADcfB6OAAAAAAAAAAAAAAAAAAAAYAAAAAwYIAAAAAAAGDAAAAAHgAQCAAAD1ThgAYCAALAAgCIAqFSEAIAAAAgAAAICIFIAEgDEBYAgQAEQAAGtgCZAYPY6PSPgAAAAAAAAADAAAYAADAAAYAADAAAAA==
> <PUBCHEM_IUPAC_OPENEYE_NAME>
2-(11,17-dihydroxy-10,13-dimethyl-3-oxo-7,8,9,11,12,14,15,16-octahydro-6H-cyclopenta[a]phenanthren-17-yl)-N-ethyl-2-hydroxy-acetamide
> <PUBCHEM_IUPAC_CAS_NAME>
2-(11,17-dihydroxy-10,13-dimethyl-3-oxo-7,8,9,11,12,14,15,16-octahydro-6H-cyclopenta[a]phenanthren-17-yl)-N-ethyl-2-hydroxyacetamide
> <PUBCHEM_IUPAC_NAME_MARKUP>
2-(11,17-dihydroxy-10,13-dimethyl-3-oxo-7,8,9,11,12,14,15,16-octahydro-6<I>H</I>-cyclopenta[a]phenanthren-17-yl)-<I>N</I>-ethyl-2-hydroxyacetamide
> <PUBCHEM_IUPAC_NAME>
2-(11,17-dihydroxy-10,13-dimethyl-3-oxo-7,8,9,11,12,14,15,16-octahydro-6H-cyclopenta[a]phenanthren-17-yl)-N-ethyl-2-hydroxyacetamide
> <PUBCHEM_IUPAC_SYSTEMATIC_NAME>
2-[10,13-dimethyl-11,17-bis(oxidanyl)-3-oxidanylidene-7,8,9,11,12,14,15,16-octahydro-6H-cyclopenta[a]phenanthren-17-yl]-N-ethyl-2-oxidanyl-ethanamide
> <PUBCHEM_IUPAC_TRADITIONAL_NAME>
2-(11,17-dihydroxy-3-keto-10,13-dimethyl-7,8,9,11,12,14,15,16-octahydro-6H-cyclopenta[a]phenanthren-17-yl)-N-ethyl-2-hydroxy-acetamide
> <PUBCHEM_IUPAC_INCHI>
InChI=1S/C23H33NO5/c1-4-24-20(28)19(27)23(29)10-8-16-15-6-5-13-11-14(25)7-9-21(13,2)18(15)17(26)12-22(16,23)3/h7,9,11,15-19,26-27,29H,4-6,8,10,12H2,1-3H3,(H,24,28)
> <PUBCHEM_IUPAC_INCHIKEY>
AMVOSMMWUPSGNN-UHFFFAOYSA-N
> <PUBCHEM_XLOGP3_AA>
1.8
> <PUBCHEM_EXACT_MASS>
403.23587315
> <PUBCHEM_MOLECULAR_FORMULA>
C23H33NO5
> <PUBCHEM_MOLECULAR_WEIGHT>
403.5
> <PUBCHEM_OPENEYE_CAN_SMILES>
CCNC(=O)C(C1(CCC2C1(CC(C3C2CCC4=CC(=O)C=CC34C)O)C)O)O
> <PUBCHEM_OPENEYE_ISO_SMILES>
CCNC(=O)C(C1(CCC2C1(CC(C3C2CCC4=CC(=O)C=CC34C)O)C)O)O
> <PUBCHEM_CACTVS_TPSA>
107
> <PUBCHEM_MONOISOTOPIC_WEIGHT>
403.23587315
> <PUBCHEM_TOTAL_CHARGE>
0
> <PUBCHEM_HEAVY_ATOM_COUNT>
29
> <PUBCHEM_ATOM_DEF_STEREO_COUNT>
0
> <PUBCHEM_ATOM_UDEF_STEREO_COUNT>
8
> <PUBCHEM_BOND_DEF_STEREO_COUNT>
0
> <PUBCHEM_BOND_UDEF_STEREO_COUNT>
0
> <PUBCHEM_ISOTOPIC_ATOM_COUNT>
0
> <PUBCHEM_COMPONENT_COUNT>
1
> <PUBCHEM_CACTVS_TAUTO_COUNT>
-1
> <PUBCHEM_COORDINATE_TYPE>
1
5
255
> <PUBCHEM_BONDANNOTATIONS>
11  1  3
10  14  3
16  22  3
14  2  3
19  3  3
7  18  3
8  13  3
9  17  3
$$$$
