500083
  -OEChem-10302200282D
 24 25  0     1  0  0  0  0  0999 V2000
    6.2034    0.9901    0.0000 I   0  0  0  0  0  0  0  0  0  0  0  0
    5.0687   -0.0000    0.0000 O   0  0  0  0  0  0  0  0  0  0  0  0
    4.7899   -1.7601    0.0000 O   0  0  0  0  0  0  0  0  0  0  0  0
    3.5298   -0.5000    0.0000 N   0  0  0  0  0  0  0  0  0  0  0  0
    3.5298    0.5000    0.0000 C   0  0  3  0  0  0  0  0  0  0  0  0
    4.4809    0.8090    0.0000 C   0  0  3  0  0  0  0  0  0  0  0  0
    2.5836    0.8047    0.0000 C   0  0  0  0  0  0  0  0  0  0  0  0
    2.0000   -0.0000    0.0000 C   0  0  0  0  0  0  0  0  0  0  0  0
    2.5836   -0.8047    0.0000 C   0  0  0  0  0  0  0  0  0  0  0  0
    4.4809   -0.8090    0.0000 C   0  0  0  0  0  0  0  0  0  0  0  0
    5.2899    1.3968    0.0000 C   0  0  0  0  0  0  0  0  0  0  0  0
    4.1719    1.7601    0.0000 C   0  0  0  0  0  0  0  0  0  0  0  0
    3.5290    1.1200    0.0000 H   0  0  0  0  0  0  0  0  0  0  0  0
    2.8346    1.3716    0.0000 H   0  0  0  0  0  0  0  0  0  0  0  0
    2.0462    1.1140    0.0000 H   0  0  0  0  0  0  0  0  0  0  0  0
    1.5391    0.4147    0.0000 H   0  0  0  0  0  0  0  0  0  0  0  0
    1.5391   -0.4147    0.0000 H   0  0  0  0  0  0  0  0  0  0  0  0
    2.0462   -1.1140    0.0000 H   0  0  0  0  0  0  0  0  0  0  0  0
    2.8346   -1.3716    0.0000 H   0  0  0  0  0  0  0  0  0  0  0  0
    5.6366    1.9108    0.0000 H   0  0  0  0  0  0  0  0  0  0  0  0
    4.8439    1.8275    0.0000 H   0  0  0  0  0  0  0  0  0  0  0  0
    4.7615    1.9517    0.0000 H   0  0  0  0  0  0  0  0  0  0  0  0
    3.9803    2.3497    0.0000 H   0  0  0  0  0  0  0  0  0  0  0  0
    3.5822    1.5685    0.0000 H   0  0  0  0  0  0  0  0  0  0  0  0
  1 11  1  0  0  0  0
  2  6  1  0  0  0  0
  2 10  1  0  0  0  0
  3 10  2  0  0  0  0
  4  5  1  0  0  0  0
  4  9  1  0  0  0  0
  4 10  1  0  0  0  0
  5  6  1  0  0  0  0
  5  7  1  0  0  0  0
  5 13  1  0  0  0  0
  6 11  1  0  0  0  0
  6 12  1  0  0  0  0
  7  8  1  0  0  0  0
  7 14  1  0  0  0  0
  7 15  1  0  0  0  0
  8  9  1  0  0  0  0
  8 16  1  0  0  0  0
  8 17  1  0  0  0  0
  9 18  1  0  0  0  0
  9 19  1  0  0  0  0
 11 20  1  0  0  0  0
 11 21  1  0  0  0  0
 12 22  1  0  0  0  0
 12 23  1  0  0  0  0
 12 24  1  0  0  0  0
M  END
> <PUBCHEM_COMPOUND_CID>
500083
> <PUBCHEM_COMPOUND_CANONICALIZED>
1
> <PUBCHEM_CACTVS_COMPLEXITY>
221
> <PUBCHEM_CACTVS_HBOND_ACCEPTOR>
2
> <PUBCHEM_CACTVS_HBOND_DONOR>
0
> <PUBCHEM_CACTVS_ROTATABLE_BOND>
1
> <PUBCHEM_CACTVS_SUBSKEYS>
AAADccByMAAAAgAAAAAAAAAAAAAAAWLAAAAAAAAAAAAWAAAAAAAAHgAgAAAADGzDgAQCCAMABAAIAAAAGAAAAAAAAAAAAAAIAAACAAIAgAANAAAEBgCQAAGQEAIMAAAAAAAAAAAAAAAAAAAAAAAAAAAAAA==
> <PUBCHEM_IUPAC_OPENEYE_NAME>
1-(iodomethyl)-1-methyl-5,6,7,7a-tetrahydropyrrolo[1,2-c]oxazol-3-one
> <PUBCHEM_IUPAC_CAS_NAME>
1-(iodomethyl)-1-methyl-5,6,7,7a-tetrahydropyrrolo[1,2-c]oxazol-3-one
> <PUBCHEM_IUPAC_NAME_MARKUP>
1-(iodomethyl)-1-methyl-5,6,7,7<I>a</I>-tetrahydropyrrolo[1,2-c][1,3]oxazol-3-one
> <PUBCHEM_IUPAC_NAME>
1-(iodomethyl)-1-methyl-5,6,7,7a-tetrahydropyrrolo[1,2-c][1,3]oxazol-3-one
> <PUBCHEM_IUPAC_SYSTEMATIC_NAME>
1-(iodanylmethyl)-1-methyl-5,6,7,7a-tetrahydropyrrolo[1,2-c][1,3]oxazol-3-one
> <PUBCHEM_IUPAC_TRADITIONAL_NAME>
1-(iodomethyl)-1-methyl-5,6,7,7a-tetrahydropyrrolo[1,2-c]oxazol-3-one
> <PUBCHEM_IUPAC_INCHI>
InChI=1S/C8H12INO2/c1-8(5-9)6-3-2-4-10(6)7(11)12-8/h6H,2-5H2,1H3
> <PUBCHEM_IUPAC_INCHIKEY>
OYLHSWKADWTHNC-UHFFFAOYSA-N
> <PUBCHEM_XLOGP3_AA>
1.8
> <PUBCHEM_EXACT_MASS>
280.99128
> <PUBCHEM_MOLECULAR_FORMULA>
C8H12INO2
> <PUBCHEM_MOLECULAR_WEIGHT>
281.09
> <PUBCHEM_OPENEYE_CAN_SMILES>
CC1(C2CCCN2C(=O)O1)CI
> <PUBCHEM_OPENEYE_ISO_SMILES>
CC1(C2CCCN2C(=O)O1)CI
> <PUBCHEM_CACTVS_TPSA>
29.5
> <PUBCHEM_MONOISOTOPIC_WEIGHT>
280.99128
> <PUBCHEM_TOTAL_CHARGE>
0
> <PUBCHEM_HEAVY_ATOM_COUNT>
12
> <PUBCHEM_ATOM_DEF_STEREO_COUNT>
0
> <PUBCHEM_ATOM_UDEF_STEREO_COUNT>
2
> <PUBCHEM_BOND_DEF_STEREO_COUNT>
0
> <PUBCHEM_BOND_UDEF_STEREO_COUNT>
0
> <PUBCHEM_ISOTOPIC_ATOM_COUNT>
0
> <PUBCHEM_COMPONENT_COUNT>
1
> <PUBCHEM_CACTVS_TAUTO_COUNT>
-1
> <PUBCHEM_COORDINATE_TYPE>
1
5
255
> <PUBCHEM_BONDANNOTATIONS>
5  7  3
6  12  3
$$$$
