500096
  -OEChem-10302200282D
 99104  0     1  0  0  0  0  0999 V2000
    6.8117    0.3677    0.0000 O   0  0  0  0  0  0  0  0  0  0  0  0
   10.9848    5.7178    0.0000 O   0  0  0  0  0  0  0  0  0  0  0  0
    3.8493   -0.4683    0.0000 O   0  0  0  0  0  0  0  0  0  0  0  0
    5.5813   -0.4816    0.0000 O   0  0  0  0  0  0  0  0  0  0  0  0
    8.4393   -0.2247    0.0000 O   0  0  0  0  0  0  0  0  0  0  0  0
    6.3872   -5.8629    0.0000 O   0  0  0  0  0  0  0  0  0  0  0  0
    7.3770    2.5734    0.0000 C   0  0  3  0  0  0  0  0  0  0  0  0
    7.3770    3.5734    0.0000 C   0  0  3  0  0  0  0  0  0  0  0  0
    8.2709    4.1081    0.0000 C   0  0  3  0  0  0  0  0  0  0  0  0
    6.5109    2.0734    0.0000 C   0  0  3  0  0  0  0  0  0  0  0  0
    9.1770    3.5942    0.0000 C   0  0  3  0  0  0  0  0  0  0  0  0
    8.2709    2.0388    0.0000 C   0  0  0  0  0  0  0  0  0  0  0  0
    5.6449    2.5734    0.0000 C   0  0  0  0  0  0  0  0  0  0  0  0
    9.1770    2.5526    0.0000 C   0  0  0  0  0  0  0  0  0  0  0  0
   10.1208    4.1295    0.0000 C   0  0  0  0  0  0  0  0  0  0  0  0
    4.7349    2.0666    0.0000 C   0  0  3  0  0  0  0  0  0  0  0  0
    6.5109    4.0734    0.0000 C   0  0  0  0  0  0  0  0  0  0  0  0
    6.5270    1.0319    0.0000 C   0  0  0  0  0  0  0  0  0  0  0  0
    8.2458    5.1928    0.0000 C   0  0  0  0  0  0  0  0  0  0  0  0
    4.7269    1.0250    0.0000 C   0  0  3  0  0  0  0  0  0  0  0  0
    5.6290    0.5042    0.0000 C   0  0  0  0  0  0  0  0  0  0  0  0
    7.7191    1.6338    0.0000 C   0  0  0  0  0  0  0  0  0  0  0  0
    5.6449    3.5734    0.0000 C   0  0  0  0  0  0  0  0  0  0  0  0
   10.1208    5.2145    0.0000 C   0  0  3  0  0  0  0  0  0  0  0  0
    7.4010    4.6014    0.0000 C   0  0  0  0  0  0  0  0  0  0  0  0
    7.1537    1.3074    0.0000 C   0  0  0  0  0  0  0  0  0  0  0  0
    9.1770    5.7497    0.0000 C   0  0  0  0  0  0  0  0  0  0  0  0
    3.8081    2.6307    0.0000 C   0  0  3  0  0  0  0  0  0  0  0  0
    3.7914    0.4753    0.0000 C   0  0  0  0  0  0  0  0  0  0  0  0
    2.8602    2.1027    0.0000 C   0  0  3  0  0  0  0  0  0  0  0  0
   11.1207    4.1256    0.0000 C   0  0  0  0  0  0  0  0  0  0  0  0
   10.6174    3.2615    0.0000 C   0  0  0  0  0  0  0  0  0  0  0  0
    2.8518    1.0178    0.0000 C   0  0  0  0  0  0  0  0  0  0  0  0
    4.7192    0.0250    0.0000 C   0  0  0  0  0  0  0  0  0  0  0  0
    3.8273    3.6305    0.0000 C   0  0  0  0  0  0  0  0  0  0  0  0
    2.0000    2.6127    0.0000 C   0  0  0  0  0  0  0  0  0  0  0  0
    7.4545   -0.3984    0.0000 C   0  0  0  0  0  0  0  0  0  0  0  0
    7.1125   -1.3380    0.0000 C   0  0  0  0  0  0  0  0  0  0  0  0
    7.7553   -2.1041    0.0000 C   0  0  0  0  0  0  0  0  0  0  0  0
    7.4132   -3.0438    0.0000 C   0  0  0  0  0  0  0  0  0  0  0  0
    8.0560   -3.8098    0.0000 C   0  0  0  0  0  0  0  0  0  0  0  0
    6.4284   -3.2174    0.0000 C   0  0  0  0  0  0  0  0  0  0  0  0
    7.7140   -4.7495    0.0000 C   0  0  0  0  0  0  0  0  0  0  0  0
    6.0864   -4.1571    0.0000 C   0  0  0  0  0  0  0  0  0  0  0  0
    6.7292   -4.9232    0.0000 C   0  0  0  0  0  0  0  0  0  0  0  0
    7.9163    3.2676    0.0000 H   0  0  0  0  0  0  0  0  0  0  0  0
    9.7127    3.2822    0.0000 H   0  0  0  0  0  0  0  0  0  0  0  0
    7.8663    1.5690    0.0000 H   0  0  0  0  0  0  0  0  0  0  0  0
    8.6645    1.5598    0.0000 H   0  0  0  0  0  0  0  0  0  0  0  0
    9.3860    1.9689    0.0000 H   0  0  0  0  0  0  0  0  0  0  0  0
    9.7878    2.6587    0.0000 H   0  0  0  0  0  0  0  0  0  0  0  0
    4.7469    2.6865    0.0000 H   0  0  0  0  0  0  0  0  0  0  0  0
    6.9095    4.5484    0.0000 H   0  0  0  0  0  0  0  0  0  0  0  0
    6.1124    4.5484    0.0000 H   0  0  0  0  0  0  0  0  0  0  0  0
    6.7450    0.4515    0.0000 H   0  0  0  0  0  0  0  0  0  0  0  0
    7.1361    1.1474    0.0000 H   0  0  0  0  0  0  0  0  0  0  0  0
    8.0233    5.7715    0.0000 H   0  0  0  0  0  0  0  0  0  0  0  0
    7.6376    5.0726    0.0000 H   0  0  0  0  0  0  0  0  0  0  0  0
    5.2316    0.0282    0.0000 H   0  0  0  0  0  0  0  0  0  0  0  0
    6.0299    0.0313    0.0000 H   0  0  0  0  0  0  0  0  0  0  0  0
    7.1365    1.4217    0.0000 H   0  0  0  0  0  0  0  0  0  0  0  0
    7.9312    1.0512    0.0000 H   0  0  0  0  0  0  0  0  0  0  0  0
    8.3017    1.8459    0.0000 H   0  0  0  0  0  0  0  0  0  0  0  0
    5.1080    3.8834    0.0000 H   0  0  0  0  0  0  0  0  0  0  0  0
   10.1172    5.8345    0.0000 H   0  0  0  0  0  0  0  0  0  0  0  0
    7.6907    0.9974    0.0000 H   0  0  0  0  0  0  0  0  0  0  0  0
    7.5522    1.7823    0.0000 H   0  0  0  0  0  0  0  0  0  0  0  0
    7.7069    5.1407    0.0000 H   0  0  0  0  0  0  0  0  0  0  0  0
    6.8617    4.9072    0.0000 H   0  0  0  0  0  0  0  0  0  0  0  0
    7.0952    4.0621    0.0000 H   0  0  0  0  0  0  0  0  0  0  0  0
    9.5706    6.2287    0.0000 H   0  0  0  0  0  0  0  0  0  0  0  0
    8.7724    6.2195    0.0000 H   0  0  0  0  0  0  0  0  0  0  0  0
    4.3515    2.9292    0.0000 H   0  0  0  0  0  0  0  0  0  0  0  0
    3.3942   -0.0007    0.0000 H   0  0  0  0  0  0  0  0  0  0  0  0
    4.1924    0.0024    0.0000 H   0  0  0  0  0  0  0  0  0  0  0  0
    2.3203    1.7979    0.0000 H   0  0  0  0  0  0  0  0  0  0  0  0
   11.1184    3.5056    0.0000 H   0  0  0  0  0  0  0  0  0  0  0  0
   11.7407    4.1232    0.0000 H   0  0  0  0  0  0  0  0  0  0  0  0
   11.1231    4.7456    0.0000 H   0  0  0  0  0  0  0  0  0  0  0  0
   10.0793    2.9536    0.0000 H   0  0  0  0  0  0  0  0  0  0  0  0
   10.9253    2.7234    0.0000 H   0  0  0  0  0  0  0  0  0  0  0  0
   11.1555    3.5695    0.0000 H   0  0  0  0  0  0  0  0  0  0  0  0
    2.2418    1.1286    0.0000 H   0  0  0  0  0  0  0  0  0  0  0  0
    2.6383    0.4357    0.0000 H   0  0  0  0  0  0  0  0  0  0  0  0
    4.4472    3.6185    0.0000 H   0  0  0  0  0  0  0  0  0  0  0  0
    3.8393    4.2504    0.0000 H   0  0  0  0  0  0  0  0  0  0  0  0
    3.2075    3.6424    0.0000 H   0  0  0  0  0  0  0  0  0  0  0  0
   10.9825    6.3378    0.0000 H   0  0  0  0  0  0  0  0  0  0  0  0
    2.3162    3.1460    0.0000 H   0  0  0  0  0  0  0  0  0  0  0  0
    1.4667    2.9289    0.0000 H   0  0  0  0  0  0  0  0  0  0  0  0
    1.6838    2.0794    0.0000 H   0  0  0  0  0  0  0  0  0  0  0  0
    3.8445   -1.0883    0.0000 H   0  0  0  0  0  0  0  0  0  0  0  0
    6.5019   -1.4457    0.0000 H   0  0  0  0  0  0  0  0  0  0  0  0
    8.3658   -1.9964    0.0000 H   0  0  0  0  0  0  0  0  0  0  0  0
    8.6666   -3.7022    0.0000 H   0  0  0  0  0  0  0  0  0  0  0  0
    6.0299   -2.7425    0.0000 H   0  0  0  0  0  0  0  0  0  0  0  0
    8.1125   -5.2245    0.0000 H   0  0  0  0  0  0  0  0  0  0  0  0
    5.4758   -4.2648    0.0000 H   0  0  0  0  0  0  0  0  0  0  0  0
    6.7857   -6.3378    0.0000 H   0  0  0  0  0  0  0  0  0  0  0  0
  1 26  1  0  0  0  0
  1 37  1  0  0  0  0
  2 24  1  0  0  0  0
  2 88  1  0  0  0  0
  3 34  1  0  0  0  0
  3 92  1  0  0  0  0
  4 34  2  0  0  0  0
  5 37  2  0  0  0  0
  6 45  1  0  0  0  0
  6 99  1  0  0  0  0
  7  8  1  0  0  0  0
  7 10  1  0  0  0  0
  7 12  1  0  0  0  0
  7 22  1  0  0  0  0
  8  9  1  0  0  0  0
  8 17  1  0  0  0  0
  8 46  1  0  0  0  0
  9 11  1  0  0  0  0
  9 19  1  0  0  0  0
  9 25  1  0  0  0  0
 10 13  1  0  0  0  0
 10 18  1  0  0  0  0
 10 26  1  0  0  0  0
 11 14  1  0  0  0  0
 11 15  1  0  0  0  0
 11 47  1  0  0  0  0
 12 14  1  0  0  0  0
 12 48  1  0  0  0  0
 12 49  1  0  0  0  0
 13 16  1  0  0  0  0
 13 23  2  0  0  0  0
 14 50  1  0  0  0  0
 14 51  1  0  0  0  0
 15 24  1  0  0  0  0
 15 31  1  0  0  0  0
 15 32  1  0  0  0  0
 16 20  1  0  0  0  0
 16 28  1  0  0  0  0
 16 52  1  0  0  0  0
 17 23  1  0  0  0  0
 17 53  1  0  0  0  0
 17 54  1  0  0  0  0
 18 21  1  0  0  0  0
 18 55  1  0  0  0  0
 18 56  1  0  0  0  0
 19 27  1  0  0  0  0
 19 57  1  0  0  0  0
 19 58  1  0  0  0  0
 20 21  1  0  0  0  0
 20 29  1  0  0  0  0
 20 34  1  0  0  0  0
 21 59  1  0  0  0  0
 21 60  1  0  0  0  0
 22 61  1  0  0  0  0
 22 62  1  0  0  0  0
 22 63  1  0  0  0  0
 23 64  1  0  0  0  0
 24 27  1  0  0  0  0
 24 65  1  0  0  0  0
 25 68  1  0  0  0  0
 25 69  1  0  0  0  0
 25 70  1  0  0  0  0
 26 66  1  0  0  0  0
 26 67  1  0  0  0  0
 27 71  1  0  0  0  0
 27 72  1  0  0  0  0
 28 30  1  0  0  0  0
 28 35  1  0  0  0  0
 28 73  1  0  0  0  0
 29 33  1  0  0  0  0
 29 74  1  0  0  0  0
 29 75  1  0  0  0  0
 30 33  1  0  0  0  0
 30 36  1  0  0  0  0
 30 76  1  0  0  0  0
 31 77  1  0  0  0  0
 31 78  1  0  0  0  0
 31 79  1  0  0  0  0
 32 80  1  0  0  0  0
 32 81  1  0  0  0  0
 32 82  1  0  0  0  0
 33 83  1  0  0  0  0
 33 84  1  0  0  0  0
 35 85  1  0  0  0  0
 35 86  1  0  0  0  0
 35 87  1  0  0  0  0
 36 89  1  0  0  0  0
 36 90  1  0  0  0  0
 36 91  1  0  0  0  0
 37 38  1  0  0  0  0
 38 39  2  3  0  0  0
 38 93  1  0  0  0  0
 39 40  1  0  0  0  0
 39 94  1  0  0  0  0
 40 41  2  0  0  0  0
 40 42  1  0  0  0  0
 41 43  1  0  0  0  0
 41 95  1  0  0  0  0
 42 44  2  0  0  0  0
 42 96  1  0  0  0  0
 43 45  2  0  0  0  0
 43 97  1  0  0  0  0
 44 45  1  0  0  0  0
 44 98  1  0  0  0  0
M  END
> <PUBCHEM_COMPOUND_CID>
500096
> <PUBCHEM_COMPOUND_CANONICALIZED>
1
> <PUBCHEM_CACTVS_COMPLEXITY>
1230
> <PUBCHEM_CACTVS_HBOND_ACCEPTOR>
6
> <PUBCHEM_CACTVS_HBOND_DONOR>
3
> <PUBCHEM_CACTVS_ROTATABLE_BOND>
6
> <PUBCHEM_CACTVS_SUBSKEYS>
AAADcfB8OAAAAAAAAAAAAAAAAAAAAAAAAAAwYMGDAAAAAADBAAAAGgAACAAADxSgmAIyDoAABgCIAiDSCAACAAAgIAAIiAEGCMgINjKCMRKCcAAkwBEIuYeIyPCPoAAAAAAAAADAAAYAADAAAAAAAAAAAA==
> <PUBCHEM_IUPAC_OPENEYE_NAME>
10-hydroxy-6a-[3-(4-hydroxyphenyl)prop-2-enoyloxymethyl]-1,2,6b,9,9,12a-hexamethyl-2,3,4,5,6,6a,7,8,8a,10,11,12,13,14b-tetradecahydro-1H-picene-4a-carboxylic acid
> <PUBCHEM_IUPAC_CAS_NAME>
10-hydroxy-6a-[[3-(4-hydroxyphenyl)-1-oxoprop-2-enoxy]methyl]-1,2,6b,9,9,12a-hexamethyl-2,3,4,5,6,6a,7,8,8a,10,11,12,13,14b-tetradecahydro-1H-picene-4a-carboxylic acid
> <PUBCHEM_IUPAC_NAME_MARKUP>
10-hydroxy-6<I>a</I>-[3-(4-hydroxyphenyl)prop-2-enoyloxymethyl]-1,2,6<I>b</I>,9,9,12<I>a</I>-hexamethyl-2,3,4,5,6,6<I>a</I>,7,8,8<I>a</I>,10,11,12,13,14<I>b</I>-tetradecahydro-1<I>H</I>-picene-4<I>a</I>-carboxylic acid
> <PUBCHEM_IUPAC_NAME>
10-hydroxy-6a-[3-(4-hydroxyphenyl)prop-2-enoyloxymethyl]-1,2,6b,9,9,12a-hexamethyl-2,3,4,5,6,6a,7,8,8a,10,11,12,13,14b-tetradecahydro-1H-picene-4a-carboxylic acid
> <PUBCHEM_IUPAC_SYSTEMATIC_NAME>
6a-[3-(4-hydroxyphenyl)prop-2-enoyloxymethyl]-1,2,6b,9,9,12a-hexamethyl-10-oxidanyl-2,3,4,5,6,6a,7,8,8a,10,11,12,13,14b-tetradecahydro-1H-picene-4a-carboxylic acid
> <PUBCHEM_IUPAC_TRADITIONAL_NAME>
10-hydroxy-6a-[[3-(4-hydroxyphenyl)acryloyl]oxymethyl]-1,2,6b,9,9,12a-hexamethyl-2,3,4,5,6,6a,7,8,8a,10,11,12,13,14b-tetradecahydro-1H-picene-4a-carboxylic acid
> <PUBCHEM_IUPAC_INCHI>
InChI=1S/C39H54O6/c1-24-15-20-38(34(43)44)21-22-39(23-45-32(42)14-9-26-7-10-27(40)11-8-26)28(33(38)25(24)2)12-13-30-36(5)18-17-31(41)35(3,4)29(36)16-19-37(30,39)6/h7-12,14,24-25,29-31,33,40-41H,13,15-23H2,1-6H3,(H,43,44)
> <PUBCHEM_IUPAC_INCHIKEY>
RZHJGXXCTIXCRI-UHFFFAOYSA-N
> <PUBCHEM_XLOGP3_AA>
8.2
> <PUBCHEM_EXACT_MASS>
618.39203944
> <PUBCHEM_MOLECULAR_FORMULA>
C39H54O6
> <PUBCHEM_MOLECULAR_WEIGHT>
618.8
> <PUBCHEM_OPENEYE_CAN_SMILES>
CC1CCC2(CCC3(C(=CCC4C3(CCC5C4(CCC(C5(C)C)O)C)C)C2C1C)COC(=O)C=CC6=CC=C(C=C6)O)C(=O)O
> <PUBCHEM_OPENEYE_ISO_SMILES>
CC1CCC2(CCC3(C(=CCC4C3(CCC5C4(CCC(C5(C)C)O)C)C)C2C1C)COC(=O)C=CC6=CC=C(C=C6)O)C(=O)O
> <PUBCHEM_CACTVS_TPSA>
104
> <PUBCHEM_MONOISOTOPIC_WEIGHT>
618.39203944
> <PUBCHEM_TOTAL_CHARGE>
0
> <PUBCHEM_HEAVY_ATOM_COUNT>
45
> <PUBCHEM_ATOM_DEF_STEREO_COUNT>
0
> <PUBCHEM_ATOM_UDEF_STEREO_COUNT>
10
> <PUBCHEM_BOND_DEF_STEREO_COUNT>
0
> <PUBCHEM_BOND_UDEF_STEREO_COUNT>
1
> <PUBCHEM_ISOTOPIC_ATOM_COUNT>
0
> <PUBCHEM_COMPONENT_COUNT>
1
> <PUBCHEM_CACTVS_TAUTO_COUNT>
-1
> <PUBCHEM_COORDINATE_TYPE>
1
5
255
> <PUBCHEM_BONDANNOTATIONS>
10  26  3
11  14  3
16  13  3
24  2  3
20  34  3
28  35  3
30  36  3
38  39  1
40  41  8
40  42  8
41  43  8
42  44  8
43  45  8
44  45  8
7  22  3
8  17  3
9  25  3
$$$$
