500089
  -OEChem-10302200282D
 24 25  0     1  0  0  0  0  0999 V2000
    6.3981    0.6550    0.0000 O   0  0  0  0  0  0  0  0  0  0  0  0
    4.6660    1.6550    0.0000 O   0  0  0  0  0  0  0  0  0  0  0  0
    4.6660   -1.3450    0.0000 N   0  0  0  0  0  0  0  0  0  0  0  0
    7.2641   -1.8450    0.0000 N   0  0  0  0  0  0  0  0  0  0  0  0
    5.5321    0.1550    0.0000 C   0  0  3  0  0  0  0  0  0  0  0  0
    4.6660    0.6550    0.0000 C   0  0  3  0  0  0  0  0  0  0  0  0
    5.5321   -0.8450    0.0000 C   0  0  3  0  0  0  0  0  0  0  0  0
    3.8000    0.1550    0.0000 C   0  0  0  0  0  0  0  0  0  0  0  0
    3.8000   -0.8450    0.0000 C   0  0  0  0  0  0  0  0  0  0  0  0
    2.9061    0.6897    0.0000 C   0  0  0  0  0  0  0  0  0  0  0  0
    2.9061   -1.3797    0.0000 C   0  0  0  0  0  0  0  0  0  0  0  0
    2.0000    0.1758    0.0000 C   0  0  0  0  0  0  0  0  0  0  0  0
    6.3981   -1.3450    0.0000 C   0  0  0  0  0  0  0  0  0  0  0  0
    2.0000   -0.8658    0.0000 C   0  0  0  0  0  0  0  0  0  0  0  0
    5.5321    0.7750    0.0000 H   0  0  0  0  0  0  0  0  0  0  0  0
    4.1291    0.9650    0.0000 H   0  0  0  0  0  0  0  0  0  0  0  0
    5.5321   -1.4650    0.0000 H   0  0  0  0  0  0  0  0  0  0  0  0
    4.6660   -1.9650    0.0000 H   0  0  0  0  0  0  0  0  0  0  0  0
    2.9132    1.3096    0.0000 H   0  0  0  0  0  0  0  0  0  0  0  0
    2.9132   -1.9996    0.0000 H   0  0  0  0  0  0  0  0  0  0  0  0
    6.9350    0.3450    0.0000 H   0  0  0  0  0  0  0  0  0  0  0  0
    5.2030    1.9650    0.0000 H   0  0  0  0  0  0  0  0  0  0  0  0
    1.4643    0.4879    0.0000 H   0  0  0  0  0  0  0  0  0  0  0  0
    1.4643   -1.1779    0.0000 H   0  0  0  0  0  0  0  0  0  0  0  0
  1  5  1  0  0  0  0
  1 21  1  0  0  0  0
  2  6  1  0  0  0  0
  2 22  1  0  0  0  0
  3  7  1  0  0  0  0
  3  9  1  0  0  0  0
  3 18  1  0  0  0  0
  4 13  3  0  0  0  0
  5  6  1  0  0  0  0
  5  7  1  0  0  0  0
  5 15  1  0  0  0  0
  6  8  1  0  0  0  0
  6 16  1  0  0  0  0
  7 13  1  0  0  0  0
  7 17  1  0  0  0  0
  8  9  1  0  0  0  0
  8 10  2  0  0  0  0
  9 11  2  0  0  0  0
 10 12  1  0  0  0  0
 10 19  1  0  0  0  0
 11 14  1  0  0  0  0
 11 20  1  0  0  0  0
 12 14  2  0  0  0  0
 12 23  1  0  0  0  0
 14 24  1  0  0  0  0
M  END
> <PUBCHEM_COMPOUND_CID>
500089
> <PUBCHEM_COMPOUND_CANONICALIZED>
1
> <PUBCHEM_CACTVS_COMPLEXITY>
260
> <PUBCHEM_CACTVS_HBOND_ACCEPTOR>
4
> <PUBCHEM_CACTVS_HBOND_DONOR>
3
> <PUBCHEM_CACTVS_ROTATABLE_BOND>
0
> <PUBCHEM_CACTVS_SUBSKEYS>
AAADccBzMAAAAAAAAAAAAAAAAAAAAAAAAAA8QAAAAAAAAACxAAAAHgAQCAAADDzhmAYwwILAAgCQBiRCQACCAAAhAgAIiIAIbIgLtiLAkZGEcAhm0AHZ2A+wwKAOAAAAAAACAAAAAAAAAAQAAAAAAAAAAA==
> <PUBCHEM_IUPAC_OPENEYE_NAME>
3,4-dihydroxy-1,2,3,4-tetrahydroquinoline-2-carbonitrile
> <PUBCHEM_IUPAC_CAS_NAME>
3,4-dihydroxy-1,2,3,4-tetrahydroquinoline-2-carbonitrile
> <PUBCHEM_IUPAC_NAME_MARKUP>
3,4-dihydroxy-1,2,3,4-tetrahydroquinoline-2-carbonitrile
> <PUBCHEM_IUPAC_NAME>
3,4-dihydroxy-1,2,3,4-tetrahydroquinoline-2-carbonitrile
> <PUBCHEM_IUPAC_SYSTEMATIC_NAME>
3,4-bis(oxidanyl)-1,2,3,4-tetrahydroquinoline-2-carbonitrile
> <PUBCHEM_IUPAC_TRADITIONAL_NAME>
3,4-dihydroxy-1,2,3,4-tetrahydroquinoline-2-carbonitrile
> <PUBCHEM_IUPAC_INCHI>
InChI=1S/C10H10N2O2/c11-5-8-10(14)9(13)6-3-1-2-4-7(6)12-8/h1-4,8-10,12-14H
> <PUBCHEM_IUPAC_INCHIKEY>
OBJPMGDLUHXDBS-UHFFFAOYSA-N
> <PUBCHEM_XLOGP3_AA>
0.6
> <PUBCHEM_EXACT_MASS>
190.074227566
> <PUBCHEM_MOLECULAR_FORMULA>
C10H10N2O2
> <PUBCHEM_MOLECULAR_WEIGHT>
190.20
> <PUBCHEM_OPENEYE_CAN_SMILES>
C1=CC=C2C(=C1)C(C(C(N2)C#N)O)O
> <PUBCHEM_OPENEYE_ISO_SMILES>
C1=CC=C2C(=C1)C(C(C(N2)C#N)O)O
> <PUBCHEM_CACTVS_TPSA>
76.3
> <PUBCHEM_MONOISOTOPIC_WEIGHT>
190.074227566
> <PUBCHEM_TOTAL_CHARGE>
0
> <PUBCHEM_HEAVY_ATOM_COUNT>
14
> <PUBCHEM_ATOM_DEF_STEREO_COUNT>
0
> <PUBCHEM_ATOM_UDEF_STEREO_COUNT>
3
> <PUBCHEM_BOND_DEF_STEREO_COUNT>
0
> <PUBCHEM_BOND_UDEF_STEREO_COUNT>
0
> <PUBCHEM_ISOTOPIC_ATOM_COUNT>
0
> <PUBCHEM_COMPONENT_COUNT>
1
> <PUBCHEM_CACTVS_TAUTO_COUNT>
-1
> <PUBCHEM_COORDINATE_TYPE>
1
5
255
> <PUBCHEM_BONDANNOTATIONS>
5  1  3
10  12  8
11  14  8
12  14  8
6  2  3
7  13  3
8  10  8
8  9  8
9  11  8
$$$$
