500097
  -OEChem-10302200282D
 80 85  0     1  0  0  0  0  0999 V2000
    4.7950   -1.3569    0.0000 O   0  0  0  0  0  0  0  0  0  0  0  0
    9.6285   -0.3954    0.0000 O   0  0  0  0  0  0  0  0  0  0  0  0
    7.9821    0.1427    0.0000 O   0  0  0  0  0  0  0  0  0  0  0  0
    2.0000   -4.9092    0.0000 O   0  0  0  0  0  0  0  0  0  0  0  0
   11.3260    1.6742    0.0000 O   0  0  0  0  0  0  0  0  0  0  0  0
   14.2759    1.1487    0.0000 O   0  0  0  0  0  0  0  0  0  0  0  0
   15.0020    4.5358    0.0000 O   0  0  0  0  0  0  0  0  0  0  0  0
   10.9229   -2.3569    0.0000 N   0  0  0  0  0  0  0  0  0  0  0  0
   11.5534   -0.9034    0.0000 N   0  0  0  0  0  0  0  0  0  0  0  0
   12.9907    2.3099    0.0000 N   0  0  0  0  0  0  0  0  0  0  0  0
   12.3614   -1.4926    0.0000 N   0  3  0  0  0  0  0  0  0  0  0  0
   14.6389    2.8423    0.0000 N   0  0  0  0  0  0  0  0  0  0  0  0
   13.1694   -2.0818    0.0000 N   0  5  0  0  0  0  0  0  0  0  0  0
    7.3931   -1.8569    0.0000 C   0  0  3  0  0  0  0  0  0  0  0  0
    7.3931   -2.8569    0.0000 C   0  0  3  0  0  0  0  0  0  0  0  0
    6.5271   -3.3569    0.0000 C   0  0  3  0  0  0  0  0  0  0  0  0
    5.6610   -2.8569    0.0000 C   0  0  3  0  0  0  0  0  0  0  0  0
    8.3393   -1.5522    0.0000 C   0  0  3  0  0  0  0  0  0  0  0  0
    6.5271   -1.3569    0.0000 C   0  0  0  0  0  0  0  0  0  0  0  0
    8.3393   -3.1616    0.0000 C   0  0  0  0  0  0  0  0  0  0  0  0
    5.6610   -1.8569    0.0000 C   0  0  3  0  0  0  0  0  0  0  0  0
    4.7510   -3.3637    0.0000 C   0  0  3  0  0  0  0  0  0  0  0  0
    8.9229   -2.3569    0.0000 C   0  0  3  0  0  0  0  0  0  0  0  0
    6.5431   -4.3984    0.0000 C   0  0  0  0  0  0  0  0  0  0  0  0
    7.3931   -0.8569    0.0000 C   0  0  0  0  0  0  0  0  0  0  0  0
    5.6451   -4.9262    0.0000 C   0  0  0  0  0  0  0  0  0  0  0  0
    4.7430   -4.4053    0.0000 C   0  0  0  0  0  0  0  0  0  0  0  0
    8.6500   -0.6016    0.0000 C   0  0  0  0  0  0  0  0  0  0  0  0
    4.7587   -2.3638    0.0000 C   0  0  0  0  0  0  0  0  0  0  0  0
    3.8242   -2.7997    0.0000 C   0  0  0  0  0  0  0  0  0  0  0  0
    9.9229   -2.3569    0.0000 C   0  0  0  0  0  0  0  0  0  0  0  0
    3.8076   -4.9551    0.0000 C   0  0  0  0  0  0  0  0  0  0  0  0
    2.8763   -3.3276    0.0000 C   0  0  0  0  0  0  0  0  0  0  0  0
    2.8680   -4.4126    0.0000 C   0  0  0  0  0  0  0  0  0  0  0  0
    9.9391    0.5551    0.0000 C   0  0  0  0  0  0  0  0  0  0  0  0
   10.9176    0.7613    0.0000 C   0  0  3  0  0  0  0  0  0  0  0  0
   11.6596    0.0909    0.0000 C   0  0  3  0  0  0  0  0  0  0  0  0
   12.5265    0.5894    0.0000 C   0  0  0  0  0  0  0  0  0  0  0  0
   12.3203    1.5679    0.0000 C   0  0  3  0  0  0  0  0  0  0  0  0
   12.6833    3.2615    0.0000 C   0  0  0  0  0  0  0  0  0  0  0  0
   13.9685    2.1003    0.0000 C   0  0  0  0  0  0  0  0  0  0  0  0
   13.3538    4.0035    0.0000 C   0  0  0  0  0  0  0  0  0  0  0  0
   14.3315    3.7939    0.0000 C   0  0  0  0  0  0  0  0  0  0  0  0
   13.0464    4.9551    0.0000 C   0  0  0  0  0  0  0  0  0  0  0  0
    7.4587   -3.4734    0.0000 H   0  0  0  0  0  0  0  0  0  0  0  0
    7.0664   -3.6627    0.0000 H   0  0  0  0  0  0  0  0  0  0  0  0
    6.1980   -2.5469    0.0000 H   0  0  0  0  0  0  0  0  0  0  0  0
    7.9018   -1.1128    0.0000 H   0  0  0  0  0  0  0  0  0  0  0  0
    6.9256   -0.8819    0.0000 H   0  0  0  0  0  0  0  0  0  0  0  0
    6.1285   -0.8819    0.0000 H   0  0  0  0  0  0  0  0  0  0  0  0
    8.0883   -3.7285    0.0000 H   0  0  0  0  0  0  0  0  0  0  0  0
    8.8767   -3.4708    0.0000 H   0  0  0  0  0  0  0  0  0  0  0  0
    5.6610   -1.2369    0.0000 H   0  0  0  0  0  0  0  0  0  0  0  0
    9.2046   -2.9092    0.0000 H   0  0  0  0  0  0  0  0  0  0  0  0
    6.7612   -4.9788    0.0000 H   0  0  0  0  0  0  0  0  0  0  0  0
    7.1523   -4.2829    0.0000 H   0  0  0  0  0  0  0  0  0  0  0  0
    8.0131   -0.8569    0.0000 H   0  0  0  0  0  0  0  0  0  0  0  0
    7.3931   -0.2369    0.0000 H   0  0  0  0  0  0  0  0  0  0  0  0
    6.7731   -0.8569    0.0000 H   0  0  0  0  0  0  0  0  0  0  0  0
    5.2478   -5.4021    0.0000 H   0  0  0  0  0  0  0  0  0  0  0  0
    6.0460   -5.3990    0.0000 H   0  0  0  0  0  0  0  0  0  0  0  0
    5.3787   -2.3686    0.0000 H   0  0  0  0  0  0  0  0  0  0  0  0
    4.7635   -1.7438    0.0000 H   0  0  0  0  0  0  0  0  0  0  0  0
    4.1388   -2.3590    0.0000 H   0  0  0  0  0  0  0  0  0  0  0  0
    3.8361   -2.1798    0.0000 H   0  0  0  0  0  0  0  0  0  0  0  0
    4.7950   -0.7369    0.0000 H   0  0  0  0  0  0  0  0  0  0  0  0
    3.8100   -5.5751    0.0000 H   0  0  0  0  0  0  0  0  0  0  0  0
    2.3430   -3.0114    0.0000 H   0  0  0  0  0  0  0  0  0  0  0  0
    9.9186    1.1748    0.0000 H   0  0  0  0  0  0  0  0  0  0  0  0
    9.3253    0.6424    0.0000 H   0  0  0  0  0  0  0  0  0  0  0  0
   10.5283    1.2438    0.0000 H   0  0  0  0  0  0  0  0  0  0  0  0
   11.0804   -0.1303    0.0000 H   0  0  0  0  0  0  0  0  0  0  0  0
   12.7777    0.0226    0.0000 H   0  0  0  0  0  0  0  0  0  0  0  0
   13.1165    0.7800    0.0000 H   0  0  0  0  0  0  0  0  0  0  0  0
   12.9189    1.4064    0.0000 H   0  0  0  0  0  0  0  0  0  0  0  0
   12.0771    3.3914    0.0000 H   0  0  0  0  0  0  0  0  0  0  0  0
   15.2451    2.7123    0.0000 H   0  0  0  0  0  0  0  0  0  0  0  0
   13.6364    5.1456    0.0000 H   0  0  0  0  0  0  0  0  0  0  0  0
   12.8558    5.5450    0.0000 H   0  0  0  0  0  0  0  0  0  0  0  0
   12.4564    4.7645    0.0000 H   0  0  0  0  0  0  0  0  0  0  0  0
  1 21  1  0  0  0  0
  1 66  1  0  0  0  0
  2 28  1  0  0  0  0
  2 35  1  0  0  0  0
  3 28  2  0  0  0  0
  4 34  2  0  0  0  0
  5 36  1  0  0  0  0
  5 39  1  0  0  0  0
  6 41  2  0  0  0  0
  7 43  2  0  0  0  0
  8 31  3  0  0  0  0
  9 11  2  0  0  0  0
  9 37  1  0  0  0  0
 10 39  1  0  0  0  0
 10 40  1  0  0  0  0
 10 41  1  0  0  0  0
 11 13  2  0  0  0  0
 12 41  1  0  0  0  0
 12 43  1  0  0  0  0
 12 77  1  0  0  0  0
 14 15  1  0  0  0  0
 14 18  1  0  0  0  0
 14 19  1  0  0  0  0
 14 25  1  0  0  0  0
 15 16  1  0  0  0  0
 15 20  1  0  0  0  0
 15 45  1  0  0  0  0
 16 17  1  0  0  0  0
 16 24  1  0  0  0  0
 16 46  1  0  0  0  0
 17 21  1  0  0  0  0
 17 22  1  0  0  0  0
 17 47  1  0  0  0  0
 18 23  1  0  0  0  0
 18 28  1  0  0  0  0
 18 48  1  0  0  0  0
 19 21  1  0  0  0  0
 19 49  1  0  0  0  0
 19 50  1  0  0  0  0
 20 23  1  0  0  0  0
 20 51  1  0  0  0  0
 20 52  1  0  0  0  0
 21 53  1  0  0  0  0
 22 27  1  0  0  0  0
 22 29  1  0  0  0  0
 22 30  1  0  0  0  0
 23 31  1  0  0  0  0
 23 54  1  0  0  0  0
 24 26  1  0  0  0  0
 24 55  1  0  0  0  0
 24 56  1  0  0  0  0
 25 57  1  0  0  0  0
 25 58  1  0  0  0  0
 25 59  1  0  0  0  0
 26 27  1  0  0  0  0
 26 60  1  0  0  0  0
 26 61  1  0  0  0  0
 27 32  2  0  0  0  0
 29 62  1  0  0  0  0
 29 63  1  0  0  0  0
 29 64  1  0  0  0  0
 30 33  2  0  0  0  0
 30 65  1  0  0  0  0
 32 34  1  0  0  0  0
 32 67  1  0  0  0  0
 33 34  1  0  0  0  0
 33 68  1  0  0  0  0
 35 36  1  0  0  0  0
 35 69  1  0  0  0  0
 35 70  1  0  0  0  0
 36 37  1  0  0  0  0
 36 71  1  0  0  0  0
 37 38  1  0  0  0  0
 37 72  1  0  0  0  0
 38 39  1  0  0  0  0
 38 73  1  0  0  0  0
 38 74  1  0  0  0  0
 39 75  1  0  0  0  0
 40 42  2  0  0  0  0
 40 76  1  0  0  0  0
 42 43  1  0  0  0  0
 42 44  1  0  0  0  0
 44 78  1  0  0  0  0
 44 79  1  0  0  0  0
 44 80  1  0  0  0  0
M  CHG  2  11   1  13  -1
M  END
> <PUBCHEM_COMPOUND_CID>
500097
> <PUBCHEM_COMPOUND_CANONICALIZED>
1
> <PUBCHEM_CACTVS_COMPLEXITY>
1510
> <PUBCHEM_CACTVS_HBOND_ACCEPTOR>
10
> <PUBCHEM_CACTVS_HBOND_DONOR>
2
> <PUBCHEM_CACTVS_ROTATABLE_BOND>
6
> <PUBCHEM_CACTVS_SUBSKEYS>
AAADcfB7uAAAAAAAAAAAAAAAAAAAAaIAAAAwYIEAAAAAAGDAAAAAHgAYCAAADzzhgAYDCAPABgCaBqHWWACAAAAgAAAICAEIAEiDkBIAwQAPQAAOhyIKAcu4/P7PgAAAAAAAAADAAAYAADAAAQAACAAAAA==
> <PUBCHEM_IUPAC_OPENEYE_NAME>
[3-azido-5-(5-methyl-2,4-dioxo-pyrimidin-1-yl)tetrahydrofuran-2-yl]methyl 16-cyano-11-hydroxy-10,13-dimethyl-3-oxo-6,7,8,9,11,12,14,15,16,17-decahydrocyclopenta[a]phenanthrene-17-carboxylate
> <PUBCHEM_IUPAC_CAS_NAME>
16-cyano-11-hydroxy-10,13-dimethyl-3-oxo-6,7,8,9,11,12,14,15,16,17-decahydrocyclopenta[a]phenanthrene-17-carboxylic acid [3-azido-5-(5-methyl-2,4-dioxo-1-pyrimidinyl)-2-oxolanyl]methyl ester
> <PUBCHEM_IUPAC_NAME_MARKUP>
[3-azido-5-(5-methyl-2,4-dioxopyrimidin-1-yl)oxolan-2-yl]methyl 16-cyano-11-hydroxy-10,13-dimethyl-3-oxo-6,7,8,9,11,12,14,15,16,17-decahydrocyclopenta[a]phenanthrene-17-carboxylate
> <PUBCHEM_IUPAC_NAME>
[3-azido-5-(5-methyl-2,4-dioxopyrimidin-1-yl)oxolan-2-yl]methyl 16-cyano-11-hydroxy-10,13-dimethyl-3-oxo-6,7,8,9,11,12,14,15,16,17-decahydrocyclopenta[a]phenanthrene-17-carboxylate
> <PUBCHEM_IUPAC_SYSTEMATIC_NAME>
[3-azido-5-[5-methyl-2,4-bis(oxidanylidene)pyrimidin-1-yl]oxolan-2-yl]methyl 16-cyano-10,13-dimethyl-11-oxidanyl-3-oxidanylidene-6,7,8,9,11,12,14,15,16,17-decahydrocyclopenta[a]phenanthrene-17-carboxylate
> <PUBCHEM_IUPAC_TRADITIONAL_NAME>
16-cyano-11-hydroxy-3-keto-10,13-dimethyl-6,7,8,9,11,12,14,15,16,17-decahydrocyclopenta[a]phenanthrene-17-carboxylic acid [3-azido-5-(2,4-diketo-5-methyl-pyrimidin-1-yl)tetrahydrofuran-2-yl]methyl ester
> <PUBCHEM_IUPAC_INCHI>
InChI=1S/C31H36N6O7/c1-15-13-37(29(42)34-27(15)40)24-10-21(35-36-33)23(44-24)14-43-28(41)25-16(12-32)8-20-19-5-4-17-9-18(38)6-7-30(17,2)26(19)22(39)11-31(20,25)3/h6-7,9,13,16,19-26,39H,4-5,8,10-11,14H2,1-3H3,(H,34,40,42)
> <PUBCHEM_IUPAC_INCHIKEY>
OKRHRZHHNPBYMD-UHFFFAOYSA-N
> <PUBCHEM_XLOGP3_AA>
2.7
> <PUBCHEM_EXACT_MASS>
604.26454751
> <PUBCHEM_MOLECULAR_FORMULA>
C31H36N6O7
> <PUBCHEM_MOLECULAR_WEIGHT>
604.7
> <PUBCHEM_OPENEYE_CAN_SMILES>
CC1=CN(C(=O)NC1=O)C2CC(C(O2)COC(=O)C3C(CC4C3(CC(C5C4CCC6=CC(=O)C=CC56C)O)C)C#N)N=[N+]=[N-]
> <PUBCHEM_OPENEYE_ISO_SMILES>
CC1=CN(C(=O)NC1=O)C2CC(C(O2)COC(=O)C3C(CC4C3(CC(C5C4CCC6=CC(=O)C=CC56C)O)C)C#N)N=[N+]=[N-]
> <PUBCHEM_CACTVS_TPSA>
160
> <PUBCHEM_MONOISOTOPIC_WEIGHT>
604.26454751
> <PUBCHEM_TOTAL_CHARGE>
0
> <PUBCHEM_HEAVY_ATOM_COUNT>
44
> <PUBCHEM_ATOM_DEF_STEREO_COUNT>
0
> <PUBCHEM_ATOM_UDEF_STEREO_COUNT>
11
> <PUBCHEM_BOND_DEF_STEREO_COUNT>
0
> <PUBCHEM_BOND_UDEF_STEREO_COUNT>
0
> <PUBCHEM_ISOTOPIC_ATOM_COUNT>
0
> <PUBCHEM_COMPONENT_COUNT>
1
> <PUBCHEM_CACTVS_TAUTO_COUNT>
-1
> <PUBCHEM_COORDINATE_TYPE>
1
5
255
> <PUBCHEM_BONDANNOTATIONS>
21  1  3
39  10  3
10  40  8
10  41  8
12  41  8
12  43  8
14  25  3
15  20  3
16  24  3
17  21  3
18  28  3
22  29  3
23  31  3
36  35  3
40  42  8
42  43  8
37  9  3
$$$$
