500079
  -OEChem-10302200282D
 45 48  0     1  0  0  0  0  0999 V2000
    2.8184    0.2021    0.0000 O   0  0  0  0  0  0  0  0  0  0  0  0
    6.2055    3.4176    0.0000 O   0  0  0  0  0  0  0  0  0  0  0  0
    4.8117    4.2223    0.0000 O   0  0  0  0  0  0  0  0  0  0  0  0
    2.0000   -3.3254    0.0000 O   0  0  0  0  0  0  0  0  0  0  0  0
    3.7320   -3.3187    0.0000 O   0  0  0  0  0  0  0  0  0  0  0  0
    2.8602   -1.8221    0.0000 N   0  0  0  0  0  0  0  0  0  0  0  0
    4.6185    0.2090    0.0000 C   0  0  3  0  0  0  0  0  0  0  0  0
    3.7205   -0.3187    0.0000 C   0  0  3  0  0  0  0  0  0  0  0  0
    5.4787    0.7190    0.0000 C   0  0  0  0  0  0  0  0  0  0  0  0
    4.6301   -0.7909    0.0000 C   0  0  0  0  0  0  0  0  0  0  0  0
    4.6024    1.2505    0.0000 C   0  0  0  0  0  0  0  0  0  0  0  0
    6.3505    0.2290    0.0000 C   0  0  0  0  0  0  0  0  0  0  0  0
    3.7364    1.7505    0.0000 C   0  0  0  0  0  0  0  0  0  0  0  0
    3.7243   -1.3187    0.0000 C   0  0  0  0  0  0  0  0  0  0  0  0
    2.8264    1.2437    0.0000 C   0  0  0  0  0  0  0  0  0  0  0  0
    5.5018   -1.2809    0.0000 C   0  0  0  0  0  0  0  0  0  0  0  0
    5.4685    1.7505    0.0000 C   0  0  0  0  0  0  0  0  0  0  0  0
    6.3620   -0.7709    0.0000 C   0  0  0  0  0  0  0  0  0  0  0  0
    3.7364    2.7505    0.0000 C   0  0  0  0  0  0  0  0  0  0  0  0
    5.4685    2.7505    0.0000 C   0  0  0  0  0  0  0  0  0  0  0  0
    4.6024    3.2505    0.0000 C   0  0  0  0  0  0  0  0  0  0  0  0
    5.8004    4.3254    0.0000 C   0  0  0  0  0  0  0  0  0  0  0  0
    2.8641   -2.8221    0.0000 C   0  0  0  0  0  0  0  0  0  0  0  0
    2.0038   -4.3254    0.0000 C   0  0  0  0  0  0  0  0  0  0  0  0
    3.1841   -0.6298    0.0000 H   0  0  0  0  0  0  0  0  0  0  0  0
    5.8717    1.1985    0.0000 H   0  0  0  0  0  0  0  0  0  0  0  0
    5.0747    1.1893    0.0000 H   0  0  0  0  0  0  0  0  0  0  0  0
    4.0183   -0.6903    0.0000 H   0  0  0  0  0  0  0  0  0  0  0  0
    4.4248   -1.3759    0.0000 H   0  0  0  0  0  0  0  0  0  0  0  0
    6.9622    0.1284    0.0000 H   0  0  0  0  0  0  0  0  0  0  0  0
    6.5558    0.8141    0.0000 H   0  0  0  0  0  0  0  0  0  0  0  0
    3.9386   -1.9005    0.0000 H   0  0  0  0  0  0  0  0  0  0  0  0
    4.3345   -1.2087    0.0000 H   0  0  0  0  0  0  0  0  0  0  0  0
    2.6219    1.8290    0.0000 H   0  0  0  0  0  0  0  0  0  0  0  0
    2.2148    1.1423    0.0000 H   0  0  0  0  0  0  0  0  0  0  0  0
    5.5090   -1.9008    0.0000 H   0  0  0  0  0  0  0  0  0  0  0  0
    6.0054    1.4405    0.0000 H   0  0  0  0  0  0  0  0  0  0  0  0
    6.9025   -1.0747    0.0000 H   0  0  0  0  0  0  0  0  0  0  0  0
    3.1995    3.0605    0.0000 H   0  0  0  0  0  0  0  0  0  0  0  0
    2.3221   -1.5141    0.0000 H   0  0  0  0  0  0  0  0  0  0  0  0
    6.3900    4.5172    0.0000 H   0  0  0  0  0  0  0  0  0  0  0  0
    5.6716    4.9319    0.0000 H   0  0  0  0  0  0  0  0  0  0  0  0
    1.3839   -4.3278    0.0000 H   0  0  0  0  0  0  0  0  0  0  0  0
    2.0062   -4.9454    0.0000 H   0  0  0  0  0  0  0  0  0  0  0  0
    2.6238   -4.3230    0.0000 H   0  0  0  0  0  0  0  0  0  0  0  0
  1  8  1  0  0  0  0
  1 15  1  0  0  0  0
  2 20  1  0  0  0  0
  2 22  1  0  0  0  0
  3 21  1  0  0  0  0
  3 22  1  0  0  0  0
  4 23  1  0  0  0  0
  4 24  1  0  0  0  0
  5 23  2  0  0  0  0
  6 14  1  0  0  0  0
  6 23  1  0  0  0  0
  6 40  1  0  0  0  0
  7  8  1  0  0  0  0
  7  9  1  0  0  0  0
  7 10  1  0  0  0  0
  7 11  1  0  0  0  0
  8 14  1  0  0  0  0
  8 25  1  0  0  0  0
  9 12  1  0  0  0  0
  9 26  1  0  0  0  0
  9 27  1  0  0  0  0
 10 16  1  0  0  0  0
 10 28  1  0  0  0  0
 10 29  1  0  0  0  0
 11 13  1  0  0  0  0
 11 17  2  0  0  0  0
 12 18  1  0  0  0  0
 12 30  1  0  0  0  0
 12 31  1  0  0  0  0
 13 15  1  0  0  0  0
 13 19  2  0  0  0  0
 14 32  1  0  0  0  0
 14 33  1  0  0  0  0
 15 34  1  0  0  0  0
 15 35  1  0  0  0  0
 16 18  2  0  0  0  0
 16 36  1  0  0  0  0
 17 20  1  0  0  0  0
 17 37  1  0  0  0  0
 18 38  1  0  0  0  0
 19 21  1  0  0  0  0
 19 39  1  0  0  0  0
 20 21  2  0  0  0  0
 22 41  1  0  0  0  0
 22 42  1  0  0  0  0
 24 43  1  0  0  0  0
 24 44  1  0  0  0  0
 24 45  1  0  0  0  0
M  END
> <PUBCHEM_COMPOUND_CID>
500079
> <PUBCHEM_COMPOUND_CANONICALIZED>
1
> <PUBCHEM_CACTVS_COMPLEXITY>
510
> <PUBCHEM_CACTVS_HBOND_ACCEPTOR>
5
> <PUBCHEM_CACTVS_HBOND_DONOR>
1
> <PUBCHEM_CACTVS_ROTATABLE_BOND>
3
> <PUBCHEM_CACTVS_SUBSKEYS>
AAADceB6OAAAAAAAAAAAAAAAAAAAASAAAAA0QIAAAAAAAEiRAAAAHgAQAAAADhThmAcyDoLABACIAiBCGAACCAAgIAAIiIAOiIkfJiKEsRqnMCIk1hEeqAfQ4PwPoAABAAAQQABAAAIAACCAAAAAAAAAAA==
> <PUBCHEM_IUPAC_OPENEYE_NAME>
methyl N-(spiro[5,7-dihydro-[1,3]dioxolo[4,5-g]isochromene-8,4'-cyclohexene]-7-ylmethyl)carbamate
> <PUBCHEM_IUPAC_CAS_NAME>
N-(7-spiro[5,7-dihydro-[1,3]dioxolo[4,5-g][2]benzopyran-8,4'-cyclohexene]ylmethyl)carbamic acid methyl ester
> <PUBCHEM_IUPAC_NAME_MARKUP>
methyl <I>N</I>-(spiro[5,7-dihydro-[1,3]dioxolo[4,5-g]isochromene-8,4&apos;-cyclohexene]-7-ylmethyl)carbamate
> <PUBCHEM_IUPAC_NAME>
methyl N-(spiro[5,7-dihydro-[1,3]dioxolo[4,5-g]isochromene-8,4'-cyclohexene]-7-ylmethyl)carbamate
> <PUBCHEM_IUPAC_SYSTEMATIC_NAME>
methyl N-(spiro[5,7-dihydro-[1,3]dioxolo[4,5-g]isochromene-8,4'-cyclohexene]-7-ylmethyl)carbamate
> <PUBCHEM_IUPAC_TRADITIONAL_NAME>
N-(spiro[5,7-dihydro-[1,3]dioxol[4,5-g]isochromene-8,4'-cyclohexene]-7-ylmethyl)carbamic acid methyl ester
> <PUBCHEM_IUPAC_INCHI>
InChI=1S/C18H21NO5/c1-21-17(20)19-9-16-18(5-3-2-4-6-18)13-8-15-14(23-11-24-15)7-12(13)10-22-16/h2-3,7-8,16H,4-6,9-11H2,1H3,(H,19,20)
> <PUBCHEM_IUPAC_INCHIKEY>
SNGMVNMYOOTQQB-UHFFFAOYSA-N
> <PUBCHEM_XLOGP3_AA>
2.5
> <PUBCHEM_EXACT_MASS>
331.14197277
> <PUBCHEM_MOLECULAR_FORMULA>
C18H21NO5
> <PUBCHEM_MOLECULAR_WEIGHT>
331.4
> <PUBCHEM_OPENEYE_CAN_SMILES>
COC(=O)NCC1C2(CCC=CC2)C3=CC4=C(C=C3CO1)OCO4
> <PUBCHEM_OPENEYE_ISO_SMILES>
COC(=O)NCC1C2(CCC=CC2)C3=CC4=C(C=C3CO1)OCO4
> <PUBCHEM_CACTVS_TPSA>
66
> <PUBCHEM_MONOISOTOPIC_WEIGHT>
331.14197277
> <PUBCHEM_TOTAL_CHARGE>
0
> <PUBCHEM_HEAVY_ATOM_COUNT>
24
> <PUBCHEM_ATOM_DEF_STEREO_COUNT>
0
> <PUBCHEM_ATOM_UDEF_STEREO_COUNT>
2
> <PUBCHEM_BOND_DEF_STEREO_COUNT>
0
> <PUBCHEM_BOND_UDEF_STEREO_COUNT>
0
> <PUBCHEM_ISOTOPIC_ATOM_COUNT>
0
> <PUBCHEM_COMPONENT_COUNT>
1
> <PUBCHEM_CACTVS_TAUTO_COUNT>
-1
> <PUBCHEM_COORDINATE_TYPE>
1
5
255
> <PUBCHEM_BONDANNOTATIONS>
11  13  8
11  17  8
13  19  8
17  20  8
19  21  8
20  21  8
7  9  3
8  14  3
$$$$
