500073
  -OEChem-10302200282D
 41 42  0     1  0  0  0  0  0999 V2000
    2.0000   -0.5765    0.0000 O   0  0  0  0  0  0  0  0  0  0  0  0
    7.2686    0.1936    0.0000 N   0  0  0  0  0  0  0  0  0  0  0  0
    3.5293   -1.3896    0.0000 N   0  0  0  0  0  0  0  0  0  0  0  0
    5.4786    1.3249    0.0000 C   0  0  3  0  0  0  0  0  0  0  0  0
    5.2198    0.3590    0.0000 C   0  0  3  0  0  0  0  0  0  0  0  0
    3.9988   -0.5067    0.0000 C   0  0  3  0  0  0  0  0  0  0  0  0
    4.7420    2.3075    0.0000 C   0  0  0  0  0  0  0  0  0  0  0  0
    6.9103    1.1272    0.0000 C   0  0  0  0  0  0  0  0  0  0  0  0
    3.4454    1.0138    0.0000 C   0  0  0  0  0  0  0  0  0  0  0  0
    3.1697    0.0525    0.0000 C   0  0  0  0  0  0  0  0  0  0  0  0
    6.4915   -0.4357    0.0000 C   0  0  0  0  0  0  0  0  0  0  0  0
    4.5287   -1.3547    0.0000 C   0  0  0  0  0  0  0  0  0  0  0  0
    7.8013    1.5812    0.0000 C   0  0  0  0  0  0  0  0  0  0  0  0
    6.9626    2.1258    0.0000 C   0  0  0  0  0  0  0  0  0  0  0  0
    6.5438   -1.4343    0.0000 C   0  0  0  0  0  0  0  0  0  0  0  0
    2.5299   -1.4246    0.0000 C   0  0  0  0  0  0  0  0  0  0  0  0
    2.0604   -2.3075    0.0000 C   0  0  0  0  0  0  0  0  0  0  0  0
    5.4832    0.7049    0.0000 H   0  0  0  0  0  0  0  0  0  0  0  0
    5.2378   -0.2608    0.0000 H   0  0  0  0  0  0  0  0  0  0  0  0
    5.0598    2.8399    0.0000 H   0  0  0  0  0  0  0  0  0  0  0  0
    4.1289    2.3994    0.0000 H   0  0  0  0  0  0  0  0  0  0  0  0
    3.4403    1.6337    0.0000 H   0  0  0  0  0  0  0  0  0  0  0  0
    2.8311    1.0975    0.0000 H   0  0  0  0  0  0  0  0  0  0  0  0
    2.5949    0.2847    0.0000 H   0  0  0  0  0  0  0  0  0  0  0  0
    2.8787   -0.4949    0.0000 H   0  0  0  0  0  0  0  0  0  0  0  0
    4.0029   -1.6833    0.0000 H   0  0  0  0  0  0  0  0  0  0  0  0
    4.8572   -1.8805    0.0000 H   0  0  0  0  0  0  0  0  0  0  0  0
    5.0545   -1.0262    0.0000 H   0  0  0  0  0  0  0  0  0  0  0  0
    3.8579   -1.9154    0.0000 H   0  0  0  0  0  0  0  0  0  0  0  0
    8.0828    1.0288    0.0000 H   0  0  0  0  0  0  0  0  0  0  0  0
    8.3537    1.8627    0.0000 H   0  0  0  0  0  0  0  0  0  0  0  0
    7.5198    2.1336    0.0000 H   0  0  0  0  0  0  0  0  0  0  0  0
    7.5818    2.0934    0.0000 H   0  0  0  0  0  0  0  0  0  0  0  0
    6.9950    2.7450    0.0000 H   0  0  0  0  0  0  0  0  0  0  0  0
    6.3434    2.1583    0.0000 H   0  0  0  0  0  0  0  0  0  0  0  0
    5.9247   -1.4668    0.0000 H   0  0  0  0  0  0  0  0  0  0  0  0
    6.5763   -2.0535    0.0000 H   0  0  0  0  0  0  0  0  0  0  0  0
    7.1630   -1.4019    0.0000 H   0  0  0  0  0  0  0  0  0  0  0  0
    1.5130   -2.0164    0.0000 H   0  0  0  0  0  0  0  0  0  0  0  0
    1.7694   -2.8549    0.0000 H   0  0  0  0  0  0  0  0  0  0  0  0
    2.6079   -2.5986    0.0000 H   0  0  0  0  0  0  0  0  0  0  0  0
  1 16  2  0  0  0  0
  2  8  1  0  0  0  0
  2 11  2  0  0  0  0
  3  6  1  0  0  0  0
  3 16  1  0  0  0  0
  3 29  1  0  0  0  0
  4  7  1  0  0  0  0
  4  8  1  0  0  0  0
  4  9  1  0  0  0  0
  4 18  1  0  0  0  0
  5  6  1  0  0  0  0
  5  7  1  0  0  0  0
  5 11  1  0  0  0  0
  5 19  1  0  0  0  0
  6 10  1  0  0  0  0
  6 12  1  0  0  0  0
  7 20  1  0  0  0  0
  7 21  1  0  0  0  0
  8 13  1  0  0  0  0
  8 14  1  0  0  0  0
  9 10  1  0  0  0  0
  9 22  1  0  0  0  0
  9 23  1  0  0  0  0
 10 24  1  0  0  0  0
 10 25  1  0  0  0  0
 11 15  1  0  0  0  0
 12 26  1  0  0  0  0
 12 27  1  0  0  0  0
 12 28  1  0  0  0  0
 13 30  1  0  0  0  0
 13 31  1  0  0  0  0
 13 32  1  0  0  0  0
 14 33  1  0  0  0  0
 14 34  1  0  0  0  0
 14 35  1  0  0  0  0
 15 36  1  0  0  0  0
 15 37  1  0  0  0  0
 15 38  1  0  0  0  0
 16 17  1  0  0  0  0
 17 39  1  0  0  0  0
 17 40  1  0  0  0  0
 17 41  1  0  0  0  0
M  END
> <PUBCHEM_COMPOUND_CID>
500073
> <PUBCHEM_COMPOUND_CANONICALIZED>
1
> <PUBCHEM_CACTVS_COMPLEXITY>
372
> <PUBCHEM_CACTVS_HBOND_ACCEPTOR>
2
> <PUBCHEM_CACTVS_HBOND_DONOR>
1
> <PUBCHEM_CACTVS_ROTATABLE_BOND>
1
> <PUBCHEM_CACTVS_SUBSKEYS>
AAADceBzIAAAAAAAAAAAAAAAAAAAAAAAAAAwQAAAAAAQAAAAAAAAHgAQAAAADYiBgAACAALAAAAoAQEwFAAAAAAAAAAAAAAwAAAAAAIAgAAEAAAAFACAAAEQgMAOgAAAAAAAAACQAAQAACQAAAAAAAAAAA==
> <PUBCHEM_IUPAC_OPENEYE_NAME>
N-(2,2,4,6-tetramethyl-3-azabicyclo[3.3.1]non-3-en-6-yl)acetamide
> <PUBCHEM_IUPAC_CAS_NAME>
N-(2,2,4,6-tetramethyl-3-azabicyclo[3.3.1]non-3-en-6-yl)acetamide
> <PUBCHEM_IUPAC_NAME_MARKUP>
<I>N</I>-(2,2,4,6-tetramethyl-3-azabicyclo[3.3.1]non-3-en-6-yl)acetamide
> <PUBCHEM_IUPAC_NAME>
N-(2,2,4,6-tetramethyl-3-azabicyclo[3.3.1]non-3-en-6-yl)acetamide
> <PUBCHEM_IUPAC_SYSTEMATIC_NAME>
N-(2,2,4,6-tetramethyl-3-azabicyclo[3.3.1]non-3-en-6-yl)ethanamide
> <PUBCHEM_IUPAC_TRADITIONAL_NAME>
N-(2,2,4,6-tetramethyl-3-azabicyclo[3.3.1]non-3-en-6-yl)acetamide
> <PUBCHEM_IUPAC_INCHI>
InChI=1S/C14H24N2O/c1-9-12-8-11(13(3,4)15-9)6-7-14(12,5)16-10(2)17/h11-12H,6-8H2,1-5H3,(H,16,17)
> <PUBCHEM_IUPAC_INCHIKEY>
AKRBICRIVVVNDO-UHFFFAOYSA-N
> <PUBCHEM_XLOGP3_AA>
0.9
> <PUBCHEM_EXACT_MASS>
236.188863393
> <PUBCHEM_MOLECULAR_FORMULA>
C14H24N2O
> <PUBCHEM_MOLECULAR_WEIGHT>
236.35
> <PUBCHEM_OPENEYE_CAN_SMILES>
CC1=NC(C2CCC(C1C2)(C)NC(=O)C)(C)C
> <PUBCHEM_OPENEYE_ISO_SMILES>
CC1=NC(C2CCC(C1C2)(C)NC(=O)C)(C)C
> <PUBCHEM_CACTVS_TPSA>
41.5
> <PUBCHEM_MONOISOTOPIC_WEIGHT>
236.188863393
> <PUBCHEM_TOTAL_CHARGE>
0
> <PUBCHEM_HEAVY_ATOM_COUNT>
17
> <PUBCHEM_ATOM_DEF_STEREO_COUNT>
0
> <PUBCHEM_ATOM_UDEF_STEREO_COUNT>
3
> <PUBCHEM_BOND_DEF_STEREO_COUNT>
0
> <PUBCHEM_BOND_UDEF_STEREO_COUNT>
0
> <PUBCHEM_ISOTOPIC_ATOM_COUNT>
0
> <PUBCHEM_COMPONENT_COUNT>
1
> <PUBCHEM_CACTVS_TAUTO_COUNT>
-1
> <PUBCHEM_COORDINATE_TYPE>
1
5
255
> <PUBCHEM_BONDANNOTATIONS>
4  9  3
5  7  3
6  12  3
$$$$
