500058
  -OEChem-10302200282D
 42 44  0     1  0  0  0  0  0999 V2000
    3.0000    0.5000    0.0000 S   0  0  0  0  0  0  0  0  0  0  0  0
    3.8660   -2.0000    0.0000 O   0  0  0  0  0  0  0  0  0  0  0  0
    2.0000    0.5000    0.0000 O   0  0  0  0  0  0  0  0  0  0  0  0
    4.0000    0.5000    0.0000 O   0  0  0  0  0  0  0  0  0  0  0  0
    3.0000   -3.5000    0.0000 O   0  0  0  0  0  0  0  0  0  0  0  0
    3.0000   -0.5000    0.0000 C   0  0  3  0  0  0  0  0  0  0  0  0
    2.1340   -1.0000    0.0000 C   0  0  0  0  0  0  0  0  0  0  0  0
    3.8660   -1.0000    0.0000 C   0  0  3  0  0  0  0  0  0  0  0  0
    2.1340   -2.0000    0.0000 C   0  0  0  0  0  0  0  0  0  0  0  0
    3.0000    1.5000    0.0000 C   0  0  0  0  0  0  0  0  0  0  0  0
    3.0000   -2.5000    0.0000 C   0  0  0  0  0  0  0  0  0  0  0  0
    4.7320   -0.5000    0.0000 C   0  0  0  0  0  0  0  0  0  0  0  0
    3.8660    2.0000    0.0000 C   0  0  0  0  0  0  0  0  0  0  0  0
    2.1340    2.0000    0.0000 C   0  0  0  0  0  0  0  0  0  0  0  0
    5.5981   -1.0000    0.0000 C   0  0  0  0  0  0  0  0  0  0  0  0
    3.8660    3.0000    0.0000 C   0  0  0  0  0  0  0  0  0  0  0  0
    2.1340    3.0000    0.0000 C   0  0  0  0  0  0  0  0  0  0  0  0
    6.4641   -0.5000    0.0000 C   0  0  0  0  0  0  0  0  0  0  0  0
    3.0000    3.5000    0.0000 C   0  0  0  0  0  0  0  0  0  0  0  0
    7.3301   -1.0000    0.0000 C   0  0  0  0  0  0  0  0  0  0  0  0
    6.4641    0.5000    0.0000 C   0  0  0  0  0  0  0  0  0  0  0  0
    8.1962   -0.5000    0.0000 C   0  0  0  0  0  0  0  0  0  0  0  0
    7.3301    1.0000    0.0000 C   0  0  0  0  0  0  0  0  0  0  0  0
    8.1962    0.5000    0.0000 C   0  0  0  0  0  0  0  0  0  0  0  0
    3.5369   -0.1900    0.0000 H   0  0  0  0  0  0  0  0  0  0  0  0
    1.9219   -0.4174    0.0000 H   0  0  0  0  0  0  0  0  0  0  0  0
    1.5234   -1.1077    0.0000 H   0  0  0  0  0  0  0  0  0  0  0  0
    4.4030   -1.3100    0.0000 H   0  0  0  0  0  0  0  0  0  0  0  0
    1.5234   -1.8923    0.0000 H   0  0  0  0  0  0  0  0  0  0  0  0
    1.9219   -2.5826    0.0000 H   0  0  0  0  0  0  0  0  0  0  0  0
    4.7320    0.1200    0.0000 H   0  0  0  0  0  0  0  0  0  0  0  0
    4.4030    1.6900    0.0000 H   0  0  0  0  0  0  0  0  0  0  0  0
    1.5970    1.6900    0.0000 H   0  0  0  0  0  0  0  0  0  0  0  0
    5.5981   -1.6200    0.0000 H   0  0  0  0  0  0  0  0  0  0  0  0
    4.4030    3.3100    0.0000 H   0  0  0  0  0  0  0  0  0  0  0  0
    1.5970    3.3100    0.0000 H   0  0  0  0  0  0  0  0  0  0  0  0
    3.0000    4.1200    0.0000 H   0  0  0  0  0  0  0  0  0  0  0  0
    7.3301   -1.6200    0.0000 H   0  0  0  0  0  0  0  0  0  0  0  0
    5.9272    0.8100    0.0000 H   0  0  0  0  0  0  0  0  0  0  0  0
    8.7331   -0.8100    0.0000 H   0  0  0  0  0  0  0  0  0  0  0  0
    7.3301    1.6200    0.0000 H   0  0  0  0  0  0  0  0  0  0  0  0
    8.7331    0.8100    0.0000 H   0  0  0  0  0  0  0  0  0  0  0  0
  1  3  2  0  0  0  0
  1  4  2  0  0  0  0
  1  6  1  0  0  0  0
  1 10  1  0  0  0  0
  2  8  1  0  0  0  0
  2 11  1  0  0  0  0
  5 11  2  0  0  0  0
  6  7  1  0  0  0  0
  6  8  1  0  0  0  0
  6 25  1  0  0  0  0
  7  9  1  0  0  0  0
  7 26  1  0  0  0  0
  7 27  1  0  0  0  0
  8 12  1  0  0  0  0
  8 28  1  0  0  0  0
  9 11  1  0  0  0  0
  9 29  1  0  0  0  0
  9 30  1  0  0  0  0
 10 13  2  0  0  0  0
 10 14  1  0  0  0  0
 12 15  2  3  0  0  0
 12 31  1  0  0  0  0
 13 16  1  0  0  0  0
 13 32  1  0  0  0  0
 14 17  2  0  0  0  0
 14 33  1  0  0  0  0
 15 18  1  0  0  0  0
 15 34  1  0  0  0  0
 16 19  2  0  0  0  0
 16 35  1  0  0  0  0
 17 19  1  0  0  0  0
 17 36  1  0  0  0  0
 18 20  2  0  0  0  0
 18 21  1  0  0  0  0
 19 37  1  0  0  0  0
 20 22  1  0  0  0  0
 20 38  1  0  0  0  0
 21 23  2  0  0  0  0
 21 39  1  0  0  0  0
 22 24  2  0  0  0  0
 22 40  1  0  0  0  0
 23 24  1  0  0  0  0
 23 41  1  0  0  0  0
 24 42  1  0  0  0  0
M  END
> <PUBCHEM_COMPOUND_CID>
500058
> <PUBCHEM_COMPOUND_CANONICALIZED>
1
> <PUBCHEM_CACTVS_COMPLEXITY>
548
> <PUBCHEM_CACTVS_HBOND_ACCEPTOR>
4
> <PUBCHEM_CACTVS_HBOND_DONOR>
0
> <PUBCHEM_CACTVS_ROTATABLE_BOND>
4
> <PUBCHEM_CACTVS_SUBSKEYS>
AAADceB4OABAAAAAAAAAAAAAAAAAAAAAAAA0YIAAAAAAAAABQAAAGgQAAAAADBSk2AKwCYAABAqIAiDSCHBCAAAgCBAIiBkAAIgIJDKgMRCCMAAkgAAoqAeIzABOAAAAAAAAAAAAAAAAAAAAAAAAAAAAAA==
> <PUBCHEM_IUPAC_OPENEYE_NAME>
5-(benzenesulfonyl)-6-styryl-tetrahydropyran-2-one
> <PUBCHEM_IUPAC_CAS_NAME>
5-(benzenesulfonyl)-6-(2-phenylethenyl)-2-oxanone
> <PUBCHEM_IUPAC_NAME_MARKUP>
5-(benzenesulfonyl)-6-(2-phenylethenyl)oxan-2-one
> <PUBCHEM_IUPAC_NAME>
5-(benzenesulfonyl)-6-(2-phenylethenyl)oxan-2-one
> <PUBCHEM_IUPAC_SYSTEMATIC_NAME>
6-(2-phenylethenyl)-5-(phenylsulfonyl)oxan-2-one
> <PUBCHEM_IUPAC_TRADITIONAL_NAME>
5-besyl-6-styryl-tetrahydropyran-2-one
> <PUBCHEM_IUPAC_INCHI>
InChI=1S/C19H18O4S/c20-19-14-13-18(24(21,22)16-9-5-2-6-10-16)17(23-19)12-11-15-7-3-1-4-8-15/h1-12,17-18H,13-14H2
> <PUBCHEM_IUPAC_INCHIKEY>
NNEURMOBBDOWNZ-UHFFFAOYSA-N
> <PUBCHEM_XLOGP3_AA>
3.4
> <PUBCHEM_EXACT_MASS>
342.09258022
> <PUBCHEM_MOLECULAR_FORMULA>
C19H18O4S
> <PUBCHEM_MOLECULAR_WEIGHT>
342.4
> <PUBCHEM_OPENEYE_CAN_SMILES>
C1CC(=O)OC(C1S(=O)(=O)C2=CC=CC=C2)C=CC3=CC=CC=C3
> <PUBCHEM_OPENEYE_ISO_SMILES>
C1CC(=O)OC(C1S(=O)(=O)C2=CC=CC=C2)C=CC3=CC=CC=C3
> <PUBCHEM_CACTVS_TPSA>
68.8
> <PUBCHEM_MONOISOTOPIC_WEIGHT>
342.09258022
> <PUBCHEM_TOTAL_CHARGE>
0
> <PUBCHEM_HEAVY_ATOM_COUNT>
24
> <PUBCHEM_ATOM_DEF_STEREO_COUNT>
0
> <PUBCHEM_ATOM_UDEF_STEREO_COUNT>
2
> <PUBCHEM_BOND_DEF_STEREO_COUNT>
0
> <PUBCHEM_BOND_UDEF_STEREO_COUNT>
1
> <PUBCHEM_ISOTOPIC_ATOM_COUNT>
0
> <PUBCHEM_COMPONENT_COUNT>
1
> <PUBCHEM_CACTVS_TAUTO_COUNT>
-1
> <PUBCHEM_COORDINATE_TYPE>
1
5
255
> <PUBCHEM_BONDANNOTATIONS>
6  1  3
10  13  8
10  14  8
12  15  1
13  16  8
14  17  8
16  19  8
17  19  8
18  20  8
18  21  8
20  22  8
21  23  8
22  24  8
23  24  8
8  12  3
$$$$
