500068
  -OEChem-10302200282D
 29 30  0     1  0  0  0  0  0999 V2000
    3.5000   -0.3170    0.0000 P   0  0  3  0  0  0  0  0  0  0  0  0
    4.3660   -0.8170    0.0000 O   0  0  0  0  0  0  0  0  0  0  0  0
    3.5000    0.6830    0.0000 O   0  0  0  0  0  0  0  0  0  0  0  0
    3.0000   -1.1830    0.0000 O   0  0  0  0  0  0  0  0  0  0  0  0
    2.5000   -0.3170    0.0000 N   0  0  0  0  0  0  0  0  0  0  0  0
    5.2320    0.6830    0.0000 C   0  0  3  0  0  0  0  0  0  0  0  0
    5.2320   -0.3170    0.0000 C   0  0  3  0  0  0  0  0  0  0  0  0
    6.1783    0.9877    0.0000 C   0  0  0  0  0  0  0  0  0  0  0  0
    6.1783   -0.6217    0.0000 C   0  0  0  0  0  0  0  0  0  0  0  0
    6.7619    0.1830    0.0000 C   0  0  0  0  0  0  0  0  0  0  0  0
    4.3660    1.1830    0.0000 C   0  0  0  0  0  0  0  0  0  0  0  0
    2.0000    0.5490    0.0000 C   0  0  0  0  0  0  0  0  0  0  0  0
    2.0000   -1.1830    0.0000 C   0  0  0  0  0  0  0  0  0  0  0  0
    5.2977    1.2995    0.0000 H   0  0  0  0  0  0  0  0  0  0  0  0
    5.2977   -0.9335    0.0000 H   0  0  0  0  0  0  0  0  0  0  0  0
    6.7156    1.2970    0.0000 H   0  0  0  0  0  0  0  0  0  0  0  0
    5.9272    1.5546    0.0000 H   0  0  0  0  0  0  0  0  0  0  0  0
    5.9272   -1.1886    0.0000 H   0  0  0  0  0  0  0  0  0  0  0  0
    6.7156   -0.9309    0.0000 H   0  0  0  0  0  0  0  0  0  0  0  0
    7.2228   -0.2317    0.0000 H   0  0  0  0  0  0  0  0  0  0  0  0
    7.2228    0.5977    0.0000 H   0  0  0  0  0  0  0  0  0  0  0  0
    4.7646    1.6580    0.0000 H   0  0  0  0  0  0  0  0  0  0  0  0
    3.9675    1.6580    0.0000 H   0  0  0  0  0  0  0  0  0  0  0  0
    2.5369    0.8590    0.0000 H   0  0  0  0  0  0  0  0  0  0  0  0
    1.6900    1.0860    0.0000 H   0  0  0  0  0  0  0  0  0  0  0  0
    1.4631    0.2390    0.0000 H   0  0  0  0  0  0  0  0  0  0  0  0
    1.4631   -0.8730    0.0000 H   0  0  0  0  0  0  0  0  0  0  0  0
    1.6900   -1.7200    0.0000 H   0  0  0  0  0  0  0  0  0  0  0  0
    2.5369   -1.4930    0.0000 H   0  0  0  0  0  0  0  0  0  0  0  0
  1  2  1  0  0  0  0
  1  3  1  0  0  0  0
  1  4  2  0  0  0  0
  1  5  1  0  0  0  0
  2  7  1  0  0  0  0
  3 11  1  0  0  0  0
  5 12  1  0  0  0  0
  5 13  1  0  0  0  0
  6  7  1  0  0  0  0
  6  8  1  0  0  0  0
  6 11  1  0  0  0  0
  6 14  1  0  0  0  0
  7  9  1  0  0  0  0
  7 15  1  0  0  0  0
  8 10  1  0  0  0  0
  8 16  1  0  0  0  0
  8 17  1  0  0  0  0
  9 10  1  0  0  0  0
  9 18  1  0  0  0  0
  9 19  1  0  0  0  0
 10 20  1  0  0  0  0
 10 21  1  0  0  0  0
 11 22  1  0  0  0  0
 11 23  1  0  0  0  0
 12 24  1  0  0  0  0
 12 25  1  0  0  0  0
 12 26  1  0  0  0  0
 13 27  1  0  0  0  0
 13 28  1  0  0  0  0
 13 29  1  0  0  0  0
M  END
> <PUBCHEM_COMPOUND_CID>
500068
> <PUBCHEM_COMPOUND_CANONICALIZED>
1
> <PUBCHEM_CACTVS_COMPLEXITY>
244
> <PUBCHEM_CACTVS_HBOND_ACCEPTOR>
4
> <PUBCHEM_CACTVS_HBOND_DONOR>
0
> <PUBCHEM_CACTVS_ROTATABLE_BOND>
1
> <PUBCHEM_CACTVS_SUBSKEYS>
AAADceByMAIAAAAAAAAAAAAAAAAAAYAAAAAkAAAAAAAAAEgAAAAAHgAAgCAADRSggAYCAAIAARAAQAAAAIAAAAAAAAAAAAAIAAAAAAIAAAAAAAAFAAAAAAGAQAAOAAAAAAAAAAAAAAAAAAAAAAAABAAAAA==
> <PUBCHEM_IUPAC_OPENEYE_NAME>
N,N-dimethyl-2-oxo-4,4a,5,6,7,7a-hexahydrocyclopenta[d][1,3,2]dioxaphosphinin-2-amine
> <PUBCHEM_IUPAC_CAS_NAME>
N,N-dimethyl-2-oxo-4,4a,5,6,7,7a-hexahydrocyclopenta[d][1,3,2]dioxaphosphorin-2-amine
> <PUBCHEM_IUPAC_NAME_MARKUP>
<I>N</I>,<I>N</I>-dimethyl-2-oxo-4,4<I>a</I>,5,6,7,7<I>a</I>-hexahydrocyclopenta[d][1,3,2]dioxaphosphinin-2-amine
> <PUBCHEM_IUPAC_NAME>
N,N-dimethyl-2-oxo-4,4a,5,6,7,7a-hexahydrocyclopenta[d][1,3,2]dioxaphosphinin-2-amine
> <PUBCHEM_IUPAC_SYSTEMATIC_NAME>
N,N-dimethyl-2-oxidanylidene-4,4a,5,6,7,7a-hexahydrocyclopenta[d][1,3,2]dioxaphosphinin-2-amine
> <PUBCHEM_IUPAC_TRADITIONAL_NAME>
(2-keto-4,4a,5,6,7,7a-hexahydrocyclopenta[d][1,3,2]dioxaphosphorin-2-yl)-dimethyl-amine
> <PUBCHEM_IUPAC_INCHI>
InChI=1S/C8H16NO3P/c1-9(2)13(10)11-6-7-4-3-5-8(7)12-13/h7-8H,3-6H2,1-2H3
> <PUBCHEM_IUPAC_INCHIKEY>
FEBXTOXMMYJSOP-UHFFFAOYSA-N
> <PUBCHEM_XLOGP3_AA>
0.6
> <PUBCHEM_EXACT_MASS>
205.08678037
> <PUBCHEM_MOLECULAR_FORMULA>
C8H16NO3P
> <PUBCHEM_MOLECULAR_WEIGHT>
205.19
> <PUBCHEM_OPENEYE_CAN_SMILES>
CN(C)P1(=O)OCC2CCCC2O1
> <PUBCHEM_OPENEYE_ISO_SMILES>
CN(C)P1(=O)OCC2CCCC2O1
> <PUBCHEM_CACTVS_TPSA>
38.8
> <PUBCHEM_MONOISOTOPIC_WEIGHT>
205.08678037
> <PUBCHEM_TOTAL_CHARGE>
0
> <PUBCHEM_HEAVY_ATOM_COUNT>
13
> <PUBCHEM_ATOM_DEF_STEREO_COUNT>
0
> <PUBCHEM_ATOM_UDEF_STEREO_COUNT>
3
> <PUBCHEM_BOND_DEF_STEREO_COUNT>
0
> <PUBCHEM_BOND_UDEF_STEREO_COUNT>
0
> <PUBCHEM_ISOTOPIC_ATOM_COUNT>
0
> <PUBCHEM_COMPONENT_COUNT>
1
> <PUBCHEM_CACTVS_TAUTO_COUNT>
-1
> <PUBCHEM_COORDINATE_TYPE>
1
5
255
> <PUBCHEM_BONDANNOTATIONS>
1  5  3
6  8  3
7  9  3
$$$$
