500112
  -OEChem-10302200282D
 68 72  0     1  0  0  0  0  0999 V2000
   10.6933   -0.7286    0.0000 O   0  0  0  0  0  0  0  0  0  0  0  0
   11.1416    0.9445    0.0000 O   0  0  0  0  0  0  0  0  0  0  0  0
    9.2098   -0.4697    0.0000 O   0  0  0  0  0  0  0  0  0  0  0  0
   12.8959   -1.8360    0.0000 N   0  0  0  0  0  0  0  0  0  0  0  0
    3.9318    1.0832    0.0000 N   0  0  0  0  0  0  0  0  0  0  0  0
    4.8978    0.8244    0.0000 N   0  0  0  0  0  0  0  0  0  0  0  0
    5.6049    1.5315    0.0000 N   0  0  0  0  0  0  0  0  0  0  0  0
   12.6371   -2.8019    0.0000 C   0  0  0  0  0  0  0  0  0  0  0  0
   11.6593   -0.9874    0.0000 C   0  0  3  0  0  0  0  0  0  0  0  0
   14.0360   -3.3108    0.0000 C   0  0  0  0  0  0  0  0  0  0  0  0
   11.2643   -3.3940    0.0000 C   0  0  0  0  0  0  0  0  0  0  0  0
   12.5253   -0.4874    0.0000 C   0  0  0  0  0  0  0  0  0  0  0  0
   14.2948   -2.3448    0.0000 C   0  0  0  0  0  0  0  0  0  0  0  0
   10.9223   -2.4543    0.0000 C   0  0  0  0  0  0  0  0  0  0  0  0
   10.4345    0.2374    0.0000 C   0  0  0  0  0  0  0  0  0  0  0  0
    9.4686    0.4962    0.0000 C   0  0  3  0  0  0  0  0  0  0  0  0
    2.7071    2.3079    0.0000 C   0  0  3  0  0  0  0  0  0  0  0  0
    2.0000    1.6008    0.0000 C   0  0  0  0  0  0  0  0  0  0  0  0
    3.6730    2.0491    0.0000 C   0  0  0  0  0  0  0  0  0  0  0  0
    2.2588    0.6349    0.0000 C   0  0  0  0  0  0  0  0  0  0  0  0
    3.2247    0.3761    0.0000 C   0  0  0  0  0  0  0  0  0  0  0  0
    8.5027    0.7550    0.0000 C   0  0  0  0  0  0  0  0  0  0  0  0
    9.7274    1.4621    0.0000 C   0  0  0  0  0  0  0  0  0  0  0  0
    2.4483    3.2738    0.0000 C   0  0  0  0  0  0  0  0  0  0  0  0
    7.7956    0.0479    0.0000 C   0  0  0  0  0  0  0  0  0  0  0  0
    8.2438    1.7209    0.0000 C   0  0  0  0  0  0  0  0  0  0  0  0
    9.0203    2.1692    0.0000 C   0  0  0  0  0  0  0  0  0  0  0  0
   10.6933    1.7209    0.0000 C   0  0  0  0  0  0  0  0  0  0  0  0
    6.5708    1.2726    0.0000 C   0  0  0  0  0  0  0  0  0  0  0  0
    6.8296    0.3067    0.0000 C   0  0  0  0  0  0  0  0  0  0  0  0
    7.2779    1.9798    0.0000 C   0  0  0  0  0  0  0  0  0  0  0  0
    9.2791    3.1351    0.0000 C   0  0  0  0  0  0  0  0  0  0  0  0
   10.9522    2.6869    0.0000 C   0  0  0  0  0  0  0  0  0  0  0  0
   10.2450    3.3940    0.0000 C   0  0  0  0  0  0  0  0  0  0  0  0
   12.6551   -3.4217    0.0000 H   0  0  0  0  0  0  0  0  0  0  0  0
   11.5783   -0.3727    0.0000 H   0  0  0  0  0  0  0  0  0  0  0  0
   13.8411   -3.8993    0.0000 H   0  0  0  0  0  0  0  0  0  0  0  0
   14.6300   -3.4885    0.0000 H   0  0  0  0  0  0  0  0  0  0  0  0
   10.6860   -3.6173    0.0000 H   0  0  0  0  0  0  0  0  0  0  0  0
   11.4988   -3.9679    0.0000 H   0  0  0  0  0  0  0  0  0  0  0  0
   13.1070   -0.2729    0.0000 H   0  0  0  0  0  0  0  0  0  0  0  0
   12.2621    0.0740    0.0000 H   0  0  0  0  0  0  0  0  0  0  0  0
   14.8888   -2.5226    0.0000 H   0  0  0  0  0  0  0  0  0  0  0  0
   14.4897   -1.7563    0.0000 H   0  0  0  0  0  0  0  0  0  0  0  0
   10.7280   -1.8655    0.0000 H   0  0  0  0  0  0  0  0  0  0  0  0
   10.3366   -2.6575    0.0000 H   0  0  0  0  0  0  0  0  0  0  0  0
    3.1455    2.7463    0.0000 H   0  0  0  0  0  0  0  0  0  0  0  0
    1.6444    2.1087    0.0000 H   0  0  0  0  0  0  0  0  0  0  0  0
    1.4381    1.3388    0.0000 H   0  0  0  0  0  0  0  0  0  0  0  0
    4.2907    2.1031    0.0000 H   0  0  0  0  0  0  0  0  0  0  0  0
    3.7271    2.6667    0.0000 H   0  0  0  0  0  0  0  0  0  0  0  0
    1.6412    0.5808    0.0000 H   0  0  0  0  0  0  0  0  0  0  0  0
    2.2048    0.0172    0.0000 H   0  0  0  0  0  0  0  0  0  0  0  0
    2.9627   -0.1858    0.0000 H   0  0  0  0  0  0  0  0  0  0  0  0
    3.7326    0.0205    0.0000 H   0  0  0  0  0  0  0  0  0  0  0  0
    3.0472    3.4343    0.0000 H   0  0  0  0  0  0  0  0  0  0  0  0
    2.2878    3.8727    0.0000 H   0  0  0  0  0  0  0  0  0  0  0  0
    1.8494    3.1134    0.0000 H   0  0  0  0  0  0  0  0  0  0  0  0
    8.6109   -0.6302    0.0000 H   0  0  0  0  0  0  0  0  0  0  0  0
    7.9560   -0.5510    0.0000 H   0  0  0  0  0  0  0  0  0  0  0  0
    8.6822    2.1593    0.0000 H   0  0  0  0  0  0  0  0  0  0  0  0
    8.4214    2.0088    0.0000 H   0  0  0  0  0  0  0  0  0  0  0  0
   11.1317    1.2825    0.0000 H   0  0  0  0  0  0  0  0  0  0  0  0
    6.3912   -0.1317    0.0000 H   0  0  0  0  0  0  0  0  0  0  0  0
    7.1174    2.5786    0.0000 H   0  0  0  0  0  0  0  0  0  0  0  0
    8.8407    3.5736    0.0000 H   0  0  0  0  0  0  0  0  0  0  0  0
   11.5510    2.8473    0.0000 H   0  0  0  0  0  0  0  0  0  0  0  0
   10.4055    3.9928    0.0000 H   0  0  0  0  0  0  0  0  0  0  0  0
  1  9  1  0  0  0  0
  1 15  1  0  0  0  0
  2 15  2  0  0  0  0
  3 16  1  0  0  0  0
  3 59  1  0  0  0  0
  4 12  1  0  0  0  0
  4 13  1  0  0  0  0
  4 14  1  0  0  0  0
  5  6  1  0  0  0  0
  5 19  1  0  0  0  0
  5 21  1  0  0  0  0
  6  7  2  0  0  0  0
  7 29  1  0  0  0  0
  8  9  1  0  0  0  0
  8 10  1  0  0  0  0
  8 11  1  0  0  0  0
  8 35  1  0  0  0  0
  9 12  1  0  0  0  0
  9 36  1  0  0  0  0
 10 13  1  0  0  0  0
 10 37  1  0  0  0  0
 10 38  1  0  0  0  0
 11 14  1  0  0  0  0
 11 39  1  0  0  0  0
 11 40  1  0  0  0  0
 12 41  1  0  0  0  0
 12 42  1  0  0  0  0
 13 43  1  0  0  0  0
 13 44  1  0  0  0  0
 14 45  1  0  0  0  0
 14 46  1  0  0  0  0
 15 16  1  0  0  0  0
 16 22  1  0  0  0  0
 16 23  1  0  0  0  0
 17 18  1  0  0  0  0
 17 19  1  0  0  0  0
 17 24  1  0  0  0  0
 17 47  1  0  0  0  0
 18 20  1  0  0  0  0
 18 48  1  0  0  0  0
 18 49  1  0  0  0  0
 19 50  1  0  0  0  0
 19 51  1  0  0  0  0
 20 21  1  0  0  0  0
 20 52  1  0  0  0  0
 20 53  1  0  0  0  0
 21 54  1  0  0  0  0
 21 55  1  0  0  0  0
 22 25  2  0  0  0  0
 22 26  1  0  0  0  0
 23 27  2  0  0  0  0
 23 28  1  0  0  0  0
 24 56  1  0  0  0  0
 24 57  1  0  0  0  0
 24 58  1  0  0  0  0
 25 30  1  0  0  0  0
 25 60  1  0  0  0  0
 26 31  2  0  0  0  0
 26 61  1  0  0  0  0
 27 32  1  0  0  0  0
 27 62  1  0  0  0  0
 28 33  2  0  0  0  0
 28 63  1  0  0  0  0
 29 30  2  0  0  0  0
 29 31  1  0  0  0  0
 30 64  1  0  0  0  0
 31 65  1  0  0  0  0
 32 34  2  0  0  0  0
 32 66  1  0  0  0  0
 33 34  1  0  0  0  0
 33 67  1  0  0  0  0
 34 68  1  0  0  0  0
M  END
> <PUBCHEM_COMPOUND_CID>
500112
> <PUBCHEM_COMPOUND_CANONICALIZED>
1
> <PUBCHEM_CACTVS_COMPLEXITY>
711
> <PUBCHEM_CACTVS_HBOND_ACCEPTOR>
7
> <PUBCHEM_CACTVS_HBOND_DONOR>
1
> <PUBCHEM_CACTVS_ROTATABLE_BOND>
7
> <PUBCHEM_CACTVS_SUBSKEYS>
AAADcfB7sAAAAAAAAAAAAAAAAAAAAAAAAAA8eLFiAAAAAAABQAAAHgAICAAADVzhmAYyyIMABgCKAiTSSAKCAAAgAgAYiAFIbIgLJjKAlZGHcABkwAGb2Ae42OGOiAAAAAAAAAAQAAAAAAAAAAAAAAAAAA==
> <PUBCHEM_IUPAC_OPENEYE_NAME>
quinuclidin-3-yl 2-hydroxy-2-[4-[(3-methyl-1-piperidyl)azo]phenyl]-2-phenyl-acetate
> <PUBCHEM_IUPAC_CAS_NAME>
2-hydroxy-2-[4-[(3-methyl-1-piperidinyl)azo]phenyl]-2-phenylacetic acid 1-azabicyclo[2.2.2]octan-3-yl ester
> <PUBCHEM_IUPAC_NAME_MARKUP>
1-azabicyclo[2.2.2]octan-3-yl 2-hydroxy-2-[4-[(3-methylpiperidin-1-yl)diazenyl]phenyl]-2-phenylacetate
> <PUBCHEM_IUPAC_NAME>
1-azabicyclo[2.2.2]octan-3-yl 2-hydroxy-2-[4-[(3-methylpiperidin-1-yl)diazenyl]phenyl]-2-phenylacetate
> <PUBCHEM_IUPAC_SYSTEMATIC_NAME>
1-azabicyclo[2.2.2]octan-3-yl 2-[4-[(3-methylpiperidin-1-yl)diazenyl]phenyl]-2-oxidanyl-2-phenyl-ethanoate
> <PUBCHEM_IUPAC_TRADITIONAL_NAME>
2-hydroxy-2-[4-(3-methylpiperidino)azophenyl]-2-phenyl-acetic acid quinuclidin-3-yl ester
> <PUBCHEM_IUPAC_INCHI>
InChI=1S/C27H34N4O3/c1-20-6-5-15-31(18-20)29-28-24-11-9-23(10-12-24)27(33,22-7-3-2-4-8-22)26(32)34-25-19-30-16-13-21(25)14-17-30/h2-4,7-12,20-21,25,33H,5-6,13-19H2,1H3
> <PUBCHEM_IUPAC_INCHIKEY>
SZTCVIJRGVLUNV-UHFFFAOYSA-N
> <PUBCHEM_XLOGP3_AA>
5.2
> <PUBCHEM_EXACT_MASS>
462.26309096
> <PUBCHEM_MOLECULAR_FORMULA>
C27H34N4O3
> <PUBCHEM_MOLECULAR_WEIGHT>
462.6
> <PUBCHEM_OPENEYE_CAN_SMILES>
CC1CCCN(C1)N=NC2=CC=C(C=C2)C(C3=CC=CC=C3)(C(=O)OC4CN5CCC4CC5)O
> <PUBCHEM_OPENEYE_ISO_SMILES>
CC1CCCN(C1)N=NC2=CC=C(C=C2)C(C3=CC=CC=C3)(C(=O)OC4CN5CCC4CC5)O
> <PUBCHEM_CACTVS_TPSA>
77.7
> <PUBCHEM_MONOISOTOPIC_WEIGHT>
462.26309096
> <PUBCHEM_TOTAL_CHARGE>
0
> <PUBCHEM_HEAVY_ATOM_COUNT>
34
> <PUBCHEM_ATOM_DEF_STEREO_COUNT>
0
> <PUBCHEM_ATOM_UDEF_STEREO_COUNT>
3
> <PUBCHEM_BOND_DEF_STEREO_COUNT>
0
> <PUBCHEM_BOND_UDEF_STEREO_COUNT>
0
> <PUBCHEM_ISOTOPIC_ATOM_COUNT>
0
> <PUBCHEM_COMPONENT_COUNT>
1
> <PUBCHEM_CACTVS_TAUTO_COUNT>
-1
> <PUBCHEM_COORDINATE_TYPE>
1
5
255
> <PUBCHEM_BONDANNOTATIONS>
9  1  3
17  24  3
22  25  8
22  26  8
23  27  8
23  28  8
25  30  8
26  31  8
27  32  8
28  33  8
29  30  8
29  31  8
16  3  3
32  34  8
33  34  8
$$$$
