500156
  -OEChem-10302200282D
 43 45  0     1  0  0  0  0  0999 V2000
    3.7272    0.1431    0.0000 O   0  0  0  0  0  0  0  0  0  0  0  0
    6.8713   -0.2519    0.0000 O   0  0  0  0  0  0  0  0  0  0  0  0
    7.6532   -0.0077    0.0000 O   0  0  0  0  0  0  0  0  0  0  0  0
    2.9757   -1.4175    0.0000 O   0  0  0  0  0  0  0  0  0  0  0  0
    4.6282   -0.2908    0.0000 C   0  0  3  0  0  0  0  0  0  0  0  0
    5.9704    0.1819    0.0000 C   0  0  3  0  0  0  0  0  0  0  0  0
    5.5366   -0.7283    0.0000 C   0  0  3  0  0  0  0  0  0  0  0  0
    5.0694    0.6158    0.0000 C   0  0  3  0  0  0  0  0  0  0  0  0
    3.7514   -0.8690    0.0000 C   0  0  0  0  0  0  0  0  0  0  0  0
    5.6312   -1.7743    0.0000 C   0  0  0  0  0  0  0  0  0  0  0  0
    6.8713    0.6158    0.0000 C   0  0  3  0  0  0  0  0  0  0  0  0
    4.8469    1.5908    0.0000 C   0  0  0  0  0  0  0  0  0  0  0  0
    3.8218   -1.9169    0.0000 C   0  0  0  0  0  0  0  0  0  0  0  0
    4.7680   -2.3726    0.0000 C   0  0  0  0  0  0  0  0  0  0  0  0
    7.0938    1.5908    0.0000 C   0  0  0  0  0  0  0  0  0  0  0  0
    5.4704    2.3726    0.0000 C   0  0  0  0  0  0  0  0  0  0  0  0
    6.4704    2.3726    0.0000 C   0  0  0  0  0  0  0  0  0  0  0  0
    2.9010   -0.4202    0.0000 C   0  0  0  0  0  0  0  0  0  0  0  0
    2.0000    0.0136    0.0000 C   0  0  0  0  0  0  0  0  0  0  0  0
    6.1469   -0.8376    0.0000 H   0  0  0  0  0  0  0  0  0  0  0  0
    4.4534    0.6865    0.0000 H   0  0  0  0  0  0  0  0  0  0  0  0
    3.5037   -0.3006    0.0000 H   0  0  0  0  0  0  0  0  0  0  0  0
    3.1490   -1.0158    0.0000 H   0  0  0  0  0  0  0  0  0  0  0  0
    5.8920   -2.3368    0.0000 H   0  0  0  0  0  0  0  0  0  0  0  0
    6.2300   -1.6136    0.0000 H   0  0  0  0  0  0  0  0  0  0  0  0
    7.4565    0.8206    0.0000 H   0  0  0  0  0  0  0  0  0  0  0  0
    4.4603    2.0755    0.0000 H   0  0  0  0  0  0  0  0  0  0  0  0
    4.2883    1.3218    0.0000 H   0  0  0  0  0  0  0  0  0  0  0  0
    3.2052   -1.8520    0.0000 H   0  0  0  0  0  0  0  0  0  0  0  0
    3.6523   -2.5133    0.0000 H   0  0  0  0  0  0  0  0  0  0  0  0
    4.4074   -2.8769    0.0000 H   0  0  0  0  0  0  0  0  0  0  0  0
    5.2032   -2.8142    0.0000 H   0  0  0  0  0  0  0  0  0  0  0  0
    7.6524    1.3218    0.0000 H   0  0  0  0  0  0  0  0  0  0  0  0
    7.4804    2.0755    0.0000 H   0  0  0  0  0  0  0  0  0  0  0  0
    5.6083    2.9770    0.0000 H   0  0  0  0  0  0  0  0  0  0  0  0
    4.9117    2.6416    0.0000 H   0  0  0  0  0  0  0  0  0  0  0  0
    6.9177   -0.8702    0.0000 H   0  0  0  0  0  0  0  0  0  0  0  0
    7.0290    2.6416    0.0000 H   0  0  0  0  0  0  0  0  0  0  0  0
    6.3324    2.9770    0.0000 H   0  0  0  0  0  0  0  0  0  0  0  0
    8.2303    0.2188    0.0000 H   0  0  0  0  0  0  0  0  0  0  0  0
    2.2690    0.5722    0.0000 H   0  0  0  0  0  0  0  0  0  0  0  0
    1.4414    0.2826    0.0000 H   0  0  0  0  0  0  0  0  0  0  0  0
    1.7310   -0.5450    0.0000 H   0  0  0  0  0  0  0  0  0  0  0  0
  1  5  1  0  0  0  0
  1 18  1  0  0  0  0
  2  6  1  0  0  0  0
  2 37  1  0  0  0  0
  3 11  1  0  0  0  0
  3 40  1  0  0  0  0
  4 18  2  0  0  0  0
  5  7  1  0  0  0  0
  5  8  1  0  0  0  0
  5  9  1  0  0  0  0
  6  7  1  0  0  0  0
  6  8  1  0  0  0  0
  6 11  1  0  0  0  0
  7 10  1  0  0  0  0
  7 20  1  0  0  0  0
  8 12  1  0  0  0  0
  8 21  1  0  0  0  0
  9 13  1  0  0  0  0
  9 22  1  0  0  0  0
  9 23  1  0  0  0  0
 10 14  1  0  0  0  0
 10 24  1  0  0  0  0
 10 25  1  0  0  0  0
 11 15  1  0  0  0  0
 11 26  1  0  0  0  0
 12 16  1  0  0  0  0
 12 27  1  0  0  0  0
 12 28  1  0  0  0  0
 13 14  1  0  0  0  0
 13 29  1  0  0  0  0
 13 30  1  0  0  0  0
 14 31  1  0  0  0  0
 14 32  1  0  0  0  0
 15 17  1  0  0  0  0
 15 33  1  0  0  0  0
 15 34  1  0  0  0  0
 16 17  1  0  0  0  0
 16 35  1  0  0  0  0
 16 36  1  0  0  0  0
 17 38  1  0  0  0  0
 17 39  1  0  0  0  0
 18 19  1  0  0  0  0
 19 41  1  0  0  0  0
 19 42  1  0  0  0  0
 19 43  1  0  0  0  0
M  END
> <PUBCHEM_COMPOUND_CID>
500156
> <PUBCHEM_COMPOUND_CANONICALIZED>
1
> <PUBCHEM_CACTVS_COMPLEXITY>
382
> <PUBCHEM_CACTVS_HBOND_ACCEPTOR>
4
> <PUBCHEM_CACTVS_HBOND_DONOR>
2
> <PUBCHEM_CACTVS_ROTATABLE_BOND>
2
> <PUBCHEM_CACTVS_SUBSKEYS>
AAADceBwOAAAAAAAAAAAAAAAAABgAAAAAAAwAAAABgAYAGAAAAAAGgAACAAADVSggAICCAAABgAIAACQCAAAAAAAAAAAAAAAAAABEAIAAAACQAAFAAABAAHAwOAOgAAAAAAAAAAAAAAAADAAAAAAAAAAAA==
> <PUBCHEM_IUPAC_OPENEYE_NAME>
(8,9-dihydroxy-2-tricyclo[6.5.0.02,7]tridecanyl) acetate
> <PUBCHEM_IUPAC_CAS_NAME>
acetic acid (8,9-dihydroxy-2-tricyclo[6.5.0.02,7]tridecanyl) ester
> <PUBCHEM_IUPAC_NAME_MARKUP>
(8,9-dihydroxy-2-tricyclo[6.5.0.0<SUP>2,7</SUP>]tridecanyl) acetate
> <PUBCHEM_IUPAC_NAME>
(8,9-dihydroxy-2-tricyclo[6.5.0.02,7]tridecanyl) acetate
> <PUBCHEM_IUPAC_SYSTEMATIC_NAME>
[8,9-bis(oxidanyl)-2-tricyclo[6.5.0.02,7]tridecanyl] ethanoate
> <PUBCHEM_IUPAC_TRADITIONAL_NAME>
acetic acid (8,9-dihydroxy-2-tricyclo[6.5.0.02,7]tridecanyl) ester
> <PUBCHEM_IUPAC_INCHI>
InChI=1S/C15H24O4/c1-10(16)19-14-9-5-4-7-12(14)15(18)11(14)6-2-3-8-13(15)17/h11-13,17-18H,2-9H2,1H3
> <PUBCHEM_IUPAC_INCHIKEY>
CUOHVBLGAPDKIE-UHFFFAOYSA-N
> <PUBCHEM_XLOGP3_AA>
1.6
> <PUBCHEM_EXACT_MASS>
268.16745924
> <PUBCHEM_MOLECULAR_FORMULA>
C15H24O4
> <PUBCHEM_MOLECULAR_WEIGHT>
268.35
> <PUBCHEM_OPENEYE_CAN_SMILES>
CC(=O)OC12CCCCC1C3(C2CCCCC3O)O
> <PUBCHEM_OPENEYE_ISO_SMILES>
CC(=O)OC12CCCCC1C3(C2CCCCC3O)O
> <PUBCHEM_CACTVS_TPSA>
66.8
> <PUBCHEM_MONOISOTOPIC_WEIGHT>
268.16745924
> <PUBCHEM_TOTAL_CHARGE>
0
> <PUBCHEM_HEAVY_ATOM_COUNT>
19
> <PUBCHEM_ATOM_DEF_STEREO_COUNT>
0
> <PUBCHEM_ATOM_UDEF_STEREO_COUNT>
5
> <PUBCHEM_BOND_DEF_STEREO_COUNT>
0
> <PUBCHEM_BOND_UDEF_STEREO_COUNT>
0
> <PUBCHEM_ISOTOPIC_ATOM_COUNT>
0
> <PUBCHEM_COMPONENT_COUNT>
1
> <PUBCHEM_CACTVS_TAUTO_COUNT>
-1
> <PUBCHEM_COORDINATE_TYPE>
1
5
255
> <PUBCHEM_BONDANNOTATIONS>
5  1  3
6  2  3
11  3  3
7  10  3
8  12  3
$$$$
