500155
  -OEChem-10302200282D
 66 70  0     1  0  0  0  0  0999 V2000
   10.1373    0.2493    0.0000 S   0  0  0  0  0  0  0  0  0  0  0  0
    2.5357   -4.3656    0.0000 O   0  0  0  0  0  0  0  0  0  0  0  0
   10.9491    1.8357    0.0000 O   0  0  0  0  0  0  0  0  0  0  0  0
    8.5993    0.7520    0.0000 N   0  0  0  0  0  0  0  0  0  0  0  0
    7.9288   -1.3133    0.0000 C   0  0  3  0  0  0  0  0  0  0  0  0
    7.9288   -2.3133    0.0000 C   0  0  3  0  0  0  0  0  0  0  0  0
    7.0628   -2.8133    0.0000 C   0  0  3  0  0  0  0  0  0  0  0  0
    6.1968   -2.3133    0.0000 C   0  0  3  0  0  0  0  0  0  0  0  0
    5.2868   -2.8202    0.0000 C   0  0  3  0  0  0  0  0  0  0  0  0
    8.8750   -1.0086    0.0000 C   0  0  3  0  0  0  0  0  0  0  0  0
    7.0628   -0.8133    0.0000 C   0  0  0  0  0  0  0  0  0  0  0  0
    6.1968   -1.3133    0.0000 C   0  0  0  0  0  0  0  0  0  0  0  0
    8.8750   -2.6180    0.0000 C   0  0  0  0  0  0  0  0  0  0  0  0
    9.4586   -1.8133    0.0000 C   0  0  0  0  0  0  0  0  0  0  0  0
    7.0789   -3.8548    0.0000 C   0  0  0  0  0  0  0  0  0  0  0  0
    5.2787   -3.8618    0.0000 C   0  0  0  0  0  0  0  0  0  0  0  0
    7.9288   -0.3133    0.0000 C   0  0  0  0  0  0  0  0  0  0  0  0
    4.3599   -2.2561    0.0000 C   0  0  0  0  0  0  0  0  0  0  0  0
    6.1808   -4.3826    0.0000 C   0  0  0  0  0  0  0  0  0  0  0  0
    5.2945   -1.8202    0.0000 C   0  0  0  0  0  0  0  0  0  0  0  0
    4.3433   -4.4115    0.0000 C   0  0  0  0  0  0  0  0  0  0  0  0
    9.1857   -0.0581    0.0000 C   0  0  0  0  0  0  0  0  0  0  0  0
    3.4120   -2.7840    0.0000 C   0  0  0  0  0  0  0  0  0  0  0  0
    3.4037   -3.8690    0.0000 C   0  0  3  0  0  0  0  0  0  0  0  0
   10.1390    1.2493    0.0000 C   0  0  0  0  0  0  0  0  0  0  0  0
    9.1885    1.5600    0.0000 C   0  0  0  0  0  0  0  0  0  0  0  0
   10.8462    2.8304    0.0000 C   0  0  0  0  0  0  0  0  0  0  0  0
   11.6563    3.4168    0.0000 C   0  0  0  0  0  0  0  0  0  0  0  0
   11.5535    4.4115    0.0000 C   0  0  0  0  0  0  0  0  0  0  0  0
    7.9944   -2.9298    0.0000 H   0  0  0  0  0  0  0  0  0  0  0  0
    7.6021   -3.1192    0.0000 H   0  0  0  0  0  0  0  0  0  0  0  0
    6.7337   -2.0033    0.0000 H   0  0  0  0  0  0  0  0  0  0  0  0
    9.4875   -0.9124    0.0000 H   0  0  0  0  0  0  0  0  0  0  0  0
    7.4613   -0.3384    0.0000 H   0  0  0  0  0  0  0  0  0  0  0  0
    6.6643   -0.3384    0.0000 H   0  0  0  0  0  0  0  0  0  0  0  0
    5.9847   -0.7307    0.0000 H   0  0  0  0  0  0  0  0  0  0  0  0
    5.5862   -1.4210    0.0000 H   0  0  0  0  0  0  0  0  0  0  0  0
    8.6240   -3.1850    0.0000 H   0  0  0  0  0  0  0  0  0  0  0  0
    9.4124   -2.9273    0.0000 H   0  0  0  0  0  0  0  0  0  0  0  0
    9.9195   -2.2280    0.0000 H   0  0  0  0  0  0  0  0  0  0  0  0
    9.9195   -1.3986    0.0000 H   0  0  0  0  0  0  0  0  0  0  0  0
    7.2969   -4.4352    0.0000 H   0  0  0  0  0  0  0  0  0  0  0  0
    7.6880   -3.7393    0.0000 H   0  0  0  0  0  0  0  0  0  0  0  0
    8.5488   -0.3133    0.0000 H   0  0  0  0  0  0  0  0  0  0  0  0
    7.9288    0.3067    0.0000 H   0  0  0  0  0  0  0  0  0  0  0  0
    7.3088   -0.3133    0.0000 H   0  0  0  0  0  0  0  0  0  0  0  0
    4.7681   -1.7894    0.0000 H   0  0  0  0  0  0  0  0  0  0  0  0
    3.9700   -1.7740    0.0000 H   0  0  0  0  0  0  0  0  0  0  0  0
    6.1832   -5.0026    0.0000 H   0  0  0  0  0  0  0  0  0  0  0  0
    5.9145   -1.8250    0.0000 H   0  0  0  0  0  0  0  0  0  0  0  0
    5.2993   -1.2002    0.0000 H   0  0  0  0  0  0  0  0  0  0  0  0
    4.6745   -1.8154    0.0000 H   0  0  0  0  0  0  0  0  0  0  0  0
    3.9460   -4.8874    0.0000 H   0  0  0  0  0  0  0  0  0  0  0  0
    4.7443   -4.8844    0.0000 H   0  0  0  0  0  0  0  0  0  0  0  0
    3.2075   -2.1987    0.0000 H   0  0  0  0  0  0  0  0  0  0  0  0
    2.8004   -2.8854    0.0000 H   0  0  0  0  0  0  0  0  0  0  0  0
    3.4025   -4.4890    0.0000 H   0  0  0  0  0  0  0  0  0  0  0  0
    2.0000   -4.0536    0.0000 H   0  0  0  0  0  0  0  0  0  0  0  0
    8.9979    2.1500    0.0000 H   0  0  0  0  0  0  0  0  0  0  0  0
   10.5754    3.3881    0.0000 H   0  0  0  0  0  0  0  0  0  0  0  0
   10.2500    2.6605    0.0000 H   0  0  0  0  0  0  0  0  0  0  0  0
   11.9271    2.8591    0.0000 H   0  0  0  0  0  0  0  0  0  0  0  0
   12.2526    3.5866    0.0000 H   0  0  0  0  0  0  0  0  0  0  0  0
   12.1702    4.4752    0.0000 H   0  0  0  0  0  0  0  0  0  0  0  0
   11.4897    5.0282    0.0000 H   0  0  0  0  0  0  0  0  0  0  0  0
   10.9368    4.3477    0.0000 H   0  0  0  0  0  0  0  0  0  0  0  0
  1 22  1  0  0  0  0
  1 25  1  0  0  0  0
  2 24  1  0  0  0  0
  2 58  1  0  0  0  0
  3 25  1  0  0  0  0
  3 27  1  0  0  0  0
  4 22  2  0  0  0  0
  4 26  1  0  0  0  0
  5  6  1  0  0  0  0
  5 10  1  0  0  0  0
  5 11  1  0  0  0  0
  5 17  1  0  0  0  0
  6  7  1  0  0  0  0
  6 13  1  0  0  0  0
  6 30  1  0  0  0  0
  7  8  1  0  0  0  0
  7 15  1  0  0  0  0
  7 31  1  0  0  0  0
  8  9  1  0  0  0  0
  8 12  1  0  0  0  0
  8 32  1  0  0  0  0
  9 16  1  0  0  0  0
  9 18  1  0  0  0  0
  9 20  1  0  0  0  0
 10 14  1  0  0  0  0
 10 22  1  0  0  0  0
 10 33  1  0  0  0  0
 11 12  1  0  0  0  0
 11 34  1  0  0  0  0
 11 35  1  0  0  0  0
 12 36  1  0  0  0  0
 12 37  1  0  0  0  0
 13 14  1  0  0  0  0
 13 38  1  0  0  0  0
 13 39  1  0  0  0  0
 14 40  1  0  0  0  0
 14 41  1  0  0  0  0
 15 19  1  0  0  0  0
 15 42  1  0  0  0  0
 15 43  1  0  0  0  0
 16 19  2  0  0  0  0
 16 21  1  0  0  0  0
 17 44  1  0  0  0  0
 17 45  1  0  0  0  0
 17 46  1  0  0  0  0
 18 23  1  0  0  0  0
 18 47  1  0  0  0  0
 18 48  1  0  0  0  0
 19 49  1  0  0  0  0
 20 50  1  0  0  0  0
 20 51  1  0  0  0  0
 20 52  1  0  0  0  0
 21 24  1  0  0  0  0
 21 53  1  0  0  0  0
 21 54  1  0  0  0  0
 23 24  1  0  0  0  0
 23 55  1  0  0  0  0
 23 56  1  0  0  0  0
 24 57  1  0  0  0  0
 25 26  2  0  0  0  0
 26 59  1  0  0  0  0
 27 28  1  0  0  0  0
 27 60  1  0  0  0  0
 27 61  1  0  0  0  0
 28 29  1  0  0  0  0
 28 62  1  0  0  0  0
 28 63  1  0  0  0  0
 29 64  1  0  0  0  0
 29 65  1  0  0  0  0
 29 66  1  0  0  0  0
M  END
> <PUBCHEM_COMPOUND_CID>
500155
> <PUBCHEM_COMPOUND_CANONICALIZED>
1
> <PUBCHEM_CACTVS_COMPLEXITY>
653
> <PUBCHEM_CACTVS_HBOND_ACCEPTOR>
4
> <PUBCHEM_CACTVS_HBOND_DONOR>
1
> <PUBCHEM_CACTVS_ROTATABLE_BOND>
4
> <PUBCHEM_CACTVS_SUBSKEYS>
AAADcfB6MABAAAAAAAAAAAAAAAAAAeIAAAAwYIAAAAAAAGCBgAAAHgQACAAADxThwgYuhRIIFgikAjBnRAQA+KBxSDhASAw7AAgGEAIggQAHSACEwAC4AAOQwPAPgAAAAAAAAADAAAQAACAAAQAACAAAAA==
> <PUBCHEM_IUPAC_OPENEYE_NAME>
10,13-dimethyl-17-(5-propoxythiazol-2-yl)-2,3,4,7,8,9,11,12,14,15,16,17-dodecahydro-1H-cyclopenta[a]phenanthren-3-ol
> <PUBCHEM_IUPAC_CAS_NAME>
10,13-dimethyl-17-(5-propoxy-2-thiazolyl)-2,3,4,7,8,9,11,12,14,15,16,17-dodecahydro-1H-cyclopenta[a]phenanthren-3-ol
> <PUBCHEM_IUPAC_NAME_MARKUP>
10,13-dimethyl-17-(5-propoxy-1,3-thiazol-2-yl)-2,3,4,7,8,9,11,12,14,15,16,17-dodecahydro-1<I>H</I>-cyclopenta[a]phenanthren-3-ol
> <PUBCHEM_IUPAC_NAME>
10,13-dimethyl-17-(5-propoxy-1,3-thiazol-2-yl)-2,3,4,7,8,9,11,12,14,15,16,17-dodecahydro-1H-cyclopenta[a]phenanthren-3-ol
> <PUBCHEM_IUPAC_SYSTEMATIC_NAME>
10,13-dimethyl-17-(5-propoxy-1,3-thiazol-2-yl)-2,3,4,7,8,9,11,12,14,15,16,17-dodecahydro-1H-cyclopenta[a]phenanthren-3-ol
> <PUBCHEM_IUPAC_TRADITIONAL_NAME>
10,13-dimethyl-17-(5-propoxythiazol-2-yl)-2,3,4,7,8,9,11,12,14,15,16,17-dodecahydro-1H-cyclopenta[a]phenanthren-3-ol
> <PUBCHEM_IUPAC_INCHI>
InChI=1S/C25H37NO2S/c1-4-13-28-22-15-26-23(29-22)21-8-7-19-18-6-5-16-14-17(27)9-11-24(16,2)20(18)10-12-25(19,21)3/h5,15,17-21,27H,4,6-14H2,1-3H3
> <PUBCHEM_IUPAC_INCHIKEY>
VYIYRSMBVSIUIJ-UHFFFAOYSA-N
> <PUBCHEM_XLOGP3_AA>
6.4
> <PUBCHEM_EXACT_MASS>
415.25450060
> <PUBCHEM_MOLECULAR_FORMULA>
C25H37NO2S
> <PUBCHEM_MOLECULAR_WEIGHT>
415.6
> <PUBCHEM_OPENEYE_CAN_SMILES>
CCCOC1=CN=C(S1)C2CCC3C2(CCC4C3CC=C5C4(CCC(C5)O)C)C
> <PUBCHEM_OPENEYE_ISO_SMILES>
CCCOC1=CN=C(S1)C2CCC3C2(CCC4C3CC=C5C4(CCC(C5)O)C)C
> <PUBCHEM_CACTVS_TPSA>
70.6
> <PUBCHEM_MONOISOTOPIC_WEIGHT>
415.25450060
> <PUBCHEM_TOTAL_CHARGE>
0
> <PUBCHEM_HEAVY_ATOM_COUNT>
29
> <PUBCHEM_ATOM_DEF_STEREO_COUNT>
0
> <PUBCHEM_ATOM_UDEF_STEREO_COUNT>
7
> <PUBCHEM_BOND_DEF_STEREO_COUNT>
0
> <PUBCHEM_BOND_UDEF_STEREO_COUNT>
0
> <PUBCHEM_ISOTOPIC_ATOM_COUNT>
0
> <PUBCHEM_COMPONENT_COUNT>
1
> <PUBCHEM_CACTVS_TAUTO_COUNT>
-1
> <PUBCHEM_COORDINATE_TYPE>
1
5
255
> <PUBCHEM_BONDANNOTATIONS>
1  22  8
1  25  8
10  22  3
24  2  3
25  26  8
4  22  8
4  26  8
5  17  3
6  13  3
7  15  3
8  12  3
9  20  3
$$$$
