500162
  -OEChem-10302200282D
 67 69  0     1  0  0  0  0  0999 V2000
    8.9225   -2.6649    0.0000 Si  0  0  0  0  0  0  0  0  0  0  0  0
    7.0614   -0.2003    0.0000 O   0  0  0  0  0  0  0  0  0  0  0  0
    8.3347   -1.8559    0.0000 O   0  0  0  0  0  0  0  0  0  0  0  0
    5.5714   -2.8739    0.0000 O   0  0  0  0  0  0  0  0  0  0  0  0
    7.9844    1.3874    0.0000 O   0  0  0  0  0  0  0  0  0  0  0  0
    6.2524    4.3874    0.0000 O   0  0  0  0  0  0  0  0  0  0  0  0
    5.1646   -1.9604    0.0000 N   0  0  3  0  0  0  0  0  0  0  0  0
    6.2524    1.3874    0.0000 N   0  0  0  0  0  0  0  0  0  0  0  0
    7.1184    2.8874    0.0000 N   0  0  0  0  0  0  0  0  0  0  0  0
    5.7524   -1.1514    0.0000 C   0  0  1  0  0  0  0  0  0  0  0  0
    6.7524   -1.1514    0.0000 C   0  0  1  0  0  0  0  0  0  0  0  0
    5.4434   -0.2003    0.0000 C   0  0  0  0  0  0  0  0  0  0  0  0
    6.2524    0.3875    0.0000 C   0  0  1  0  0  0  0  0  0  0  0  0
    9.5103   -3.4739    0.0000 C   0  0  0  0  0  0  0  0  0  0  0  0
    7.3402   -1.9604    0.0000 C   0  0  0  0  0  0  0  0  0  0  0  0
    9.7315   -2.0771    0.0000 C   0  0  0  0  0  0  0  0  0  0  0  0
    8.1135   -3.2527    0.0000 C   0  0  0  0  0  0  0  0  0  0  0  0
   10.0981   -4.2829    0.0000 C   0  0  0  0  0  0  0  0  0  0  0  0
   10.3193   -2.8861    0.0000 C   0  0  0  0  0  0  0  0  0  0  0  0
    8.7013   -4.0617    0.0000 C   0  0  0  0  0  0  0  0  0  0  0  0
    4.1701   -1.8559    0.0000 C   0  0  0  0  0  0  0  0  0  0  0  0
    5.3864    1.8874    0.0000 C   0  0  0  0  0  0  0  0  0  0  0  0
    7.1184    1.8874    0.0000 C   0  0  0  0  0  0  0  0  0  0  0  0
    3.5823   -2.6649    0.0000 C   0  0  0  0  0  0  0  0  0  0  0  0
    5.3864    2.8874    0.0000 C   0  0  0  0  0  0  0  0  0  0  0  0
    6.2524    3.3874    0.0000 C   0  0  0  0  0  0  0  0  0  0  0  0
    3.9890   -3.5784    0.0000 C   0  0  0  0  0  0  0  0  0  0  0  0
    2.5878   -2.5604    0.0000 C   0  0  0  0  0  0  0  0  0  0  0  0
    4.5204    3.3874    0.0000 C   0  0  0  0  0  0  0  0  0  0  0  0
    3.4013   -4.3874    0.0000 C   0  0  0  0  0  0  0  0  0  0  0  0
    2.0000   -3.3694    0.0000 C   0  0  0  0  0  0  0  0  0  0  0  0
    2.4067   -4.2829    0.0000 C   0  0  0  0  0  0  0  0  0  0  0  0
    5.1400   -1.0544    0.0000 H   0  0  0  0  0  0  0  0  0  0  0  0
    7.3648   -1.0544    0.0000 H   0  0  0  0  0  0  0  0  0  0  0  0
    5.1334    0.3366    0.0000 H   0  0  0  0  0  0  0  0  0  0  0  0
    4.8770   -0.4525    0.0000 H   0  0  0  0  0  0  0  0  0  0  0  0
    5.7000    0.6689    0.0000 H   0  0  0  0  0  0  0  0  0  0  0  0
    6.7829   -2.2322    0.0000 H   0  0  0  0  0  0  0  0  0  0  0  0
    7.5111   -2.5564    0.0000 H   0  0  0  0  0  0  0  0  0  0  0  0
   10.0959   -2.5787    0.0000 H   0  0  0  0  0  0  0  0  0  0  0  0
   10.2331   -1.7127    0.0000 H   0  0  0  0  0  0  0  0  0  0  0  0
    9.3671   -1.5755    0.0000 H   0  0  0  0  0  0  0  0  0  0  0  0
    7.7490   -2.7511    0.0000 H   0  0  0  0  0  0  0  0  0  0  0  0
    7.6119   -3.6171    0.0000 H   0  0  0  0  0  0  0  0  0  0  0  0
    8.4779   -3.7543    0.0000 H   0  0  0  0  0  0  0  0  0  0  0  0
    9.5965   -4.6474    0.0000 H   0  0  0  0  0  0  0  0  0  0  0  0
   10.4625   -4.7845    0.0000 H   0  0  0  0  0  0  0  0  0  0  0  0
   10.5997   -3.9185    0.0000 H   0  0  0  0  0  0  0  0  0  0  0  0
   10.6837   -3.3877    0.0000 H   0  0  0  0  0  0  0  0  0  0  0  0
   10.8209   -2.5217    0.0000 H   0  0  0  0  0  0  0  0  0  0  0  0
    9.9549   -2.3845    0.0000 H   0  0  0  0  0  0  0  0  0  0  0  0
    8.3368   -3.5601    0.0000 H   0  0  0  0  0  0  0  0  0  0  0  0
    8.1997   -4.4261    0.0000 H   0  0  0  0  0  0  0  0  0  0  0  0
    9.0657   -4.5633    0.0000 H   0  0  0  0  0  0  0  0  0  0  0  0
    4.3410   -1.2599    0.0000 H   0  0  0  0  0  0  0  0  0  0  0  0
    3.6128   -1.5841    0.0000 H   0  0  0  0  0  0  0  0  0  0  0  0
    4.8494    1.5774    0.0000 H   0  0  0  0  0  0  0  0  0  0  0  0
    6.1880   -2.9388    0.0000 H   0  0  0  0  0  0  0  0  0  0  0  0
    7.6554    3.1974    0.0000 H   0  0  0  0  0  0  0  0  0  0  0  0
    4.6056   -3.6432    0.0000 H   0  0  0  0  0  0  0  0  0  0  0  0
    2.3356   -1.9940    0.0000 H   0  0  0  0  0  0  0  0  0  0  0  0
    4.8304    3.9244    0.0000 H   0  0  0  0  0  0  0  0  0  0  0  0
    3.9834    3.6974    0.0000 H   0  0  0  0  0  0  0  0  0  0  0  0
    4.2104    2.8505    0.0000 H   0  0  0  0  0  0  0  0  0  0  0  0
    3.6534   -4.9538    0.0000 H   0  0  0  0  0  0  0  0  0  0  0  0
    1.3834   -3.3046    0.0000 H   0  0  0  0  0  0  0  0  0  0  0  0
    2.0423   -4.7845    0.0000 H   0  0  0  0  0  0  0  0  0  0  0  0
  1  3  1  0  0  0  0
  1 14  1  0  0  0  0
  1 16  1  0  0  0  0
  1 17  1  0  0  0  0
  2 11  1  0  0  0  0
  2 13  1  0  0  0  0
  3 15  1  0  0  0  0
  4  7  1  0  0  0  0
  4 58  1  0  0  0  0
  5 23  2  0  0  0  0
  6 26  2  0  0  0  0
 10  7  1  6  0  0  0
  7 21  1  0  0  0  0
 13  8  1  6  0  0  0
  8 22  1  0  0  0  0
  8 23  1  0  0  0  0
  9 23  1  0  0  0  0
  9 26  1  0  0  0  0
  9 59  1  0  0  0  0
 10 11  1  0  0  0  0
 10 12  1  0  0  0  0
 10 33  1  0  0  0  0
 11 15  1  6  0  0  0
 11 34  1  0  0  0  0
 12 13  1  0  0  0  0
 12 35  1  0  0  0  0
 12 36  1  0  0  0  0
 13 37  1  0  0  0  0
 14 18  1  0  0  0  0
 14 19  1  0  0  0  0
 14 20  1  0  0  0  0
 15 38  1  0  0  0  0
 15 39  1  0  0  0  0
 16 40  1  0  0  0  0
 16 41  1  0  0  0  0
 16 42  1  0  0  0  0
 17 43  1  0  0  0  0
 17 44  1  0  0  0  0
 17 45  1  0  0  0  0
 18 46  1  0  0  0  0
 18 47  1  0  0  0  0
 18 48  1  0  0  0  0
 19 49  1  0  0  0  0
 19 50  1  0  0  0  0
 19 51  1  0  0  0  0
 20 52  1  0  0  0  0
 20 53  1  0  0  0  0
 20 54  1  0  0  0  0
 21 24  1  0  0  0  0
 21 55  1  0  0  0  0
 21 56  1  0  0  0  0
 22 25  2  0  0  0  0
 22 57  1  0  0  0  0
 24 27  2  0  0  0  0
 24 28  1  0  0  0  0
 25 26  1  0  0  0  0
 25 29  1  0  0  0  0
 27 30  1  0  0  0  0
 27 60  1  0  0  0  0
 28 31  2  0  0  0  0
 28 61  1  0  0  0  0
 29 62  1  0  0  0  0
 29 63  1  0  0  0  0
 29 64  1  0  0  0  0
 30 32  2  0  0  0  0
 30 65  1  0  0  0  0
 31 32  1  0  0  0  0
 31 66  1  0  0  0  0
 32 67  1  0  0  0  0
M  END
> <PUBCHEM_COMPOUND_CID>
500162
> <PUBCHEM_COMPOUND_CANONICALIZED>
1
> <PUBCHEM_CACTVS_COMPLEXITY>
730
> <PUBCHEM_CACTVS_HBOND_ACCEPTOR>
6
> <PUBCHEM_CACTVS_HBOND_DONOR>
2
> <PUBCHEM_CACTVS_ROTATABLE_BOND>
8
> <PUBCHEM_CACTVS_SUBSKEYS>
AAADcfB7OAgAAAAAAAAAAAAAAAAAASAAAAAwQAAAAAAAAAABAAAAHhAUCEAADDzhuAZzAIPQBAGIAiFWUACCAAAgAAAoiAEIBMiLICKA0RGPIAhuhyKaiMewsAIOAAAAAAAAAAAAAAAAAAAAAAAAAAAAAA==
> <PUBCHEM_IUPAC_OPENEYE_NAME>
1-[(2R,4R,5S)-4-[benzyl(hydroxy)amino]-5-[[tert-butyl(dimethyl)silyl]oxymethyl]tetrahydrofuran-2-yl]-5-methyl-pyrimidine-2,4-dione
> <PUBCHEM_IUPAC_CAS_NAME>
1-[(2R,4R,5S)-5-[[tert-butyl(dimethyl)silyl]oxymethyl]-4-[hydroxy-(phenylmethyl)amino]-2-oxolanyl]-5-methylpyrimidine-2,4-dione
> <PUBCHEM_IUPAC_NAME_MARKUP>
1-[(2<I>R</I>,4<I>R</I>,5<I>S</I>)-4-[benzyl(hydroxy)amino]-5-[[<I>tert</I>-butyl(dimethyl)silyl]oxymethyl]oxolan-2-yl]-5-methylpyrimidine-2,4-dione
> <PUBCHEM_IUPAC_NAME>
1-[(2R,4R,5S)-4-[benzyl(hydroxy)amino]-5-[[tert-butyl(dimethyl)silyl]oxymethyl]oxolan-2-yl]-5-methylpyrimidine-2,4-dione
> <PUBCHEM_IUPAC_SYSTEMATIC_NAME>
1-[(2R,4R,5S)-5-[[tert-butyl(dimethyl)silyl]oxymethyl]-4-[oxidanyl-(phenylmethyl)amino]oxolan-2-yl]-5-methyl-pyrimidine-2,4-dione
> <PUBCHEM_IUPAC_TRADITIONAL_NAME>
1-[(2R,4R,5S)-4-[benzyl(hydroxy)amino]-5-[[tert-butyl(dimethyl)silyl]oxymethyl]tetrahydrofuran-2-yl]-5-methyl-pyrimidine-2,4-quinone
> <PUBCHEM_IUPAC_INCHI>
InChI=1S/C23H35N3O5Si/c1-16-13-25(22(28)24-21(16)27)20-12-18(26(29)14-17-10-8-7-9-11-17)19(31-20)15-30-32(5,6)23(2,3)4/h7-11,13,18-20,29H,12,14-15H2,1-6H3,(H,24,27,28)/t18-,19-,20-/m1/s1
> <PUBCHEM_IUPAC_INCHIKEY>
BMEUEPIPSAKFEZ-VAMGGRTRSA-N
> <PUBCHEM_EXACT_MASS>
461.23459776
> <PUBCHEM_MOLECULAR_FORMULA>
C23H35N3O5Si
> <PUBCHEM_MOLECULAR_WEIGHT>
461.6
> <PUBCHEM_OPENEYE_CAN_SMILES>
CC1=CN(C(=O)NC1=O)C2CC(C(O2)CO[Si](C)(C)C(C)(C)C)N(CC3=CC=CC=C3)O
> <PUBCHEM_OPENEYE_ISO_SMILES>
CC1=CN(C(=O)NC1=O)[C@H]2C[C@H]([C@H](O2)CO[Si](C)(C)C(C)(C)C)N(CC3=CC=CC=C3)O
> <PUBCHEM_CACTVS_TPSA>
91.3
> <PUBCHEM_MONOISOTOPIC_WEIGHT>
461.23459776
> <PUBCHEM_TOTAL_CHARGE>
0
> <PUBCHEM_HEAVY_ATOM_COUNT>
32
> <PUBCHEM_ATOM_DEF_STEREO_COUNT>
3
> <PUBCHEM_ATOM_UDEF_STEREO_COUNT>
0
> <PUBCHEM_BOND_DEF_STEREO_COUNT>
0
> <PUBCHEM_BOND_UDEF_STEREO_COUNT>
0
> <PUBCHEM_ISOTOPIC_ATOM_COUNT>
0
> <PUBCHEM_COMPONENT_COUNT>
1
> <PUBCHEM_CACTVS_TAUTO_COUNT>
-1
> <PUBCHEM_COORDINATE_TYPE>
1
5
255
> <PUBCHEM_BONDANNOTATIONS>
11  15  6
22  25  8
24  27  8
24  28  8
25  26  8
27  30  8
28  31  8
30  32  8
31  32  8
10  7  6
13  8  6
8  22  8
8  23  8
9  23  8
9  26  8
$$$$
