500136
  -OEChem-10302200282D
 71 76  0     1  0  0  0  0  0999 V2000
   11.3336    0.2477    0.0000 S   0  0  0  0  0  0  0  0  0  0  0  0
    3.7320   -4.3673    0.0000 O   0  0  0  0  0  0  0  0  0  0  0  0
    2.8718   -2.8640    0.0000 O   0  0  0  0  0  0  0  0  0  0  0  0
    9.7956    0.7503    0.0000 N   0  0  0  0  0  0  0  0  0  0  0  0
    9.1251   -1.3149    0.0000 C   0  0  3  0  0  0  0  0  0  0  0  0
    9.1251   -2.3149    0.0000 C   0  0  3  0  0  0  0  0  0  0  0  0
    8.2591   -2.8149    0.0000 C   0  0  3  0  0  0  0  0  0  0  0  0
    7.3931   -2.3149    0.0000 C   0  0  3  0  0  0  0  0  0  0  0  0
    6.4831   -2.8218    0.0000 C   0  0  3  0  0  0  0  0  0  0  0  0
   10.0713   -1.0102    0.0000 C   0  0  3  0  0  0  0  0  0  0  0  0
    8.2591   -0.8149    0.0000 C   0  0  0  0  0  0  0  0  0  0  0  0
    7.3931   -1.3149    0.0000 C   0  0  0  0  0  0  0  0  0  0  0  0
   10.0713   -2.6197    0.0000 C   0  0  0  0  0  0  0  0  0  0  0  0
   10.6550   -1.8149    0.0000 C   0  0  0  0  0  0  0  0  0  0  0  0
    8.2752   -3.8564    0.0000 C   0  0  0  0  0  0  0  0  0  0  0  0
    6.4750   -3.8634    0.0000 C   0  0  0  0  0  0  0  0  0  0  0  0
    9.1251   -0.3149    0.0000 C   0  0  0  0  0  0  0  0  0  0  0  0
    5.5562   -2.2577    0.0000 C   0  0  0  0  0  0  0  0  0  0  0  0
    7.3771   -4.3842    0.0000 C   0  0  0  0  0  0  0  0  0  0  0  0
    6.4908   -1.8218    0.0000 C   0  0  0  0  0  0  0  0  0  0  0  0
    5.5396   -4.4131    0.0000 C   0  0  0  0  0  0  0  0  0  0  0  0
   10.3820   -0.0597    0.0000 C   0  0  0  0  0  0  0  0  0  0  0  0
    4.6084   -2.7856    0.0000 C   0  0  0  0  0  0  0  0  0  0  0  0
    4.6000   -3.8706    0.0000 C   0  0  3  0  0  0  0  0  0  0  0  0
   10.3848    1.5583    0.0000 C   0  0  0  0  0  0  0  0  0  0  0  0
   11.3353    1.2477    0.0000 C   0  0  0  0  0  0  0  0  0  0  0  0
    2.8680   -3.8639    0.0000 C   0  0  0  0  0  0  0  0  0  0  0  0
   10.0774    2.5099    0.0000 C   0  0  0  0  0  0  0  0  0  0  0  0
    2.0000   -4.3606    0.0000 C   0  0  0  0  0  0  0  0  0  0  0  0
    9.0996    2.7195    0.0000 C   0  0  0  0  0  0  0  0  0  0  0  0
   10.7478    3.2519    0.0000 C   0  0  0  0  0  0  0  0  0  0  0  0
    8.7923    3.6711    0.0000 C   0  0  0  0  0  0  0  0  0  0  0  0
   10.4405    4.2035    0.0000 C   0  0  0  0  0  0  0  0  0  0  0  0
    9.4627    4.4131    0.0000 C   0  0  0  0  0  0  0  0  0  0  0  0
    9.1907   -2.9315    0.0000 H   0  0  0  0  0  0  0  0  0  0  0  0
    8.7984   -3.1208    0.0000 H   0  0  0  0  0  0  0  0  0  0  0  0
    7.9300   -2.0049    0.0000 H   0  0  0  0  0  0  0  0  0  0  0  0
   10.6838   -0.9140    0.0000 H   0  0  0  0  0  0  0  0  0  0  0  0
    8.6576   -0.3400    0.0000 H   0  0  0  0  0  0  0  0  0  0  0  0
    7.8606   -0.3400    0.0000 H   0  0  0  0  0  0  0  0  0  0  0  0
    7.1810   -0.7323    0.0000 H   0  0  0  0  0  0  0  0  0  0  0  0
    6.7825   -1.4226    0.0000 H   0  0  0  0  0  0  0  0  0  0  0  0
    9.8203   -3.1866    0.0000 H   0  0  0  0  0  0  0  0  0  0  0  0
   10.6087   -2.9289    0.0000 H   0  0  0  0  0  0  0  0  0  0  0  0
   11.1158   -2.2297    0.0000 H   0  0  0  0  0  0  0  0  0  0  0  0
   11.1158   -1.4002    0.0000 H   0  0  0  0  0  0  0  0  0  0  0  0
    8.4932   -4.4368    0.0000 H   0  0  0  0  0  0  0  0  0  0  0  0
    8.8843   -3.7410    0.0000 H   0  0  0  0  0  0  0  0  0  0  0  0
    9.7451   -0.3149    0.0000 H   0  0  0  0  0  0  0  0  0  0  0  0
    9.1251    0.3051    0.0000 H   0  0  0  0  0  0  0  0  0  0  0  0
    8.5051   -0.3149    0.0000 H   0  0  0  0  0  0  0  0  0  0  0  0
    5.9644   -1.7910    0.0000 H   0  0  0  0  0  0  0  0  0  0  0  0
    5.1663   -1.7757    0.0000 H   0  0  0  0  0  0  0  0  0  0  0  0
    7.3795   -5.0042    0.0000 H   0  0  0  0  0  0  0  0  0  0  0  0
    7.1108   -1.8266    0.0000 H   0  0  0  0  0  0  0  0  0  0  0  0
    6.4956   -1.2018    0.0000 H   0  0  0  0  0  0  0  0  0  0  0  0
    5.8708   -1.8170    0.0000 H   0  0  0  0  0  0  0  0  0  0  0  0
    5.1423   -4.8891    0.0000 H   0  0  0  0  0  0  0  0  0  0  0  0
    5.9406   -4.8860    0.0000 H   0  0  0  0  0  0  0  0  0  0  0  0
    4.4038   -2.2004    0.0000 H   0  0  0  0  0  0  0  0  0  0  0  0
    3.9967   -2.8870    0.0000 H   0  0  0  0  0  0  0  0  0  0  0  0
    4.0648   -3.5575    0.0000 H   0  0  0  0  0  0  0  0  0  0  0  0
   11.8375    1.6112    0.0000 H   0  0  0  0  0  0  0  0  0  0  0  0
    1.6921   -3.8225    0.0000 H   0  0  0  0  0  0  0  0  0  0  0  0
    1.4619   -4.6685    0.0000 H   0  0  0  0  0  0  0  0  0  0  0  0
    2.3079   -4.8987    0.0000 H   0  0  0  0  0  0  0  0  0  0  0  0
    8.6840    2.2595    0.0000 H   0  0  0  0  0  0  0  0  0  0  0  0
   11.3541    3.1220    0.0000 H   0  0  0  0  0  0  0  0  0  0  0  0
    8.1860    3.8011    0.0000 H   0  0  0  0  0  0  0  0  0  0  0  0
   10.8561    4.6635    0.0000 H   0  0  0  0  0  0  0  0  0  0  0  0
    9.2721    5.0031    0.0000 H   0  0  0  0  0  0  0  0  0  0  0  0
  1 22  1  0  0  0  0
  1 26  1  0  0  0  0
  2 24  1  0  0  0  0
  2 27  1  0  0  0  0
  3 27  2  0  0  0  0
  4 22  2  0  0  0  0
  4 25  1  0  0  0  0
  5  6  1  0  0  0  0
  5 10  1  0  0  0  0
  5 11  1  0  0  0  0
  5 17  1  0  0  0  0
  6  7  1  0  0  0  0
  6 13  1  0  0  0  0
  6 35  1  0  0  0  0
  7  8  1  0  0  0  0
  7 15  1  0  0  0  0
  7 36  1  0  0  0  0
  8  9  1  0  0  0  0
  8 12  1  0  0  0  0
  8 37  1  0  0  0  0
  9 16  1  0  0  0  0
  9 18  1  0  0  0  0
  9 20  1  0  0  0  0
 10 14  1  0  0  0  0
 10 22  1  0  0  0  0
 10 38  1  0  0  0  0
 11 12  1  0  0  0  0
 11 39  1  0  0  0  0
 11 40  1  0  0  0  0
 12 41  1  0  0  0  0
 12 42  1  0  0  0  0
 13 14  1  0  0  0  0
 13 43  1  0  0  0  0
 13 44  1  0  0  0  0
 14 45  1  0  0  0  0
 14 46  1  0  0  0  0
 15 19  1  0  0  0  0
 15 47  1  0  0  0  0
 15 48  1  0  0  0  0
 16 19  2  0  0  0  0
 16 21  1  0  0  0  0
 17 49  1  0  0  0  0
 17 50  1  0  0  0  0
 17 51  1  0  0  0  0
 18 23  1  0  0  0  0
 18 52  1  0  0  0  0
 18 53  1  0  0  0  0
 19 54  1  0  0  0  0
 20 55  1  0  0  0  0
 20 56  1  0  0  0  0
 20 57  1  0  0  0  0
 21 24  1  0  0  0  0
 21 58  1  0  0  0  0
 21 59  1  0  0  0  0
 23 24  1  0  0  0  0
 23 60  1  0  0  0  0
 23 61  1  0  0  0  0
 24 62  1  0  0  0  0
 25 26  2  0  0  0  0
 25 28  1  0  0  0  0
 26 63  1  0  0  0  0
 27 29  1  0  0  0  0
 28 30  2  0  0  0  0
 28 31  1  0  0  0  0
 29 64  1  0  0  0  0
 29 65  1  0  0  0  0
 29 66  1  0  0  0  0
 30 32  1  0  0  0  0
 30 67  1  0  0  0  0
 31 33  2  0  0  0  0
 31 68  1  0  0  0  0
 32 34  2  0  0  0  0
 32 69  1  0  0  0  0
 33 34  1  0  0  0  0
 33 70  1  0  0  0  0
 34 71  1  0  0  0  0
M  END
> <PUBCHEM_COMPOUND_CID>
500136
> <PUBCHEM_COMPOUND_CANONICALIZED>
1
> <PUBCHEM_CACTVS_COMPLEXITY>
821
> <PUBCHEM_CACTVS_HBOND_ACCEPTOR>
4
> <PUBCHEM_CACTVS_HBOND_DONOR>
0
> <PUBCHEM_CACTVS_ROTATABLE_BOND>
4
> <PUBCHEM_CACTVS_SUBSKEYS>
AAADcfB6MABAAAAAAAAAAAAAAAAAAeIAAAAwYMEAAAAAAGCBwAAAHgQAAAAADxyl3gKyiZIIFAisAyTyTACC8KBhCjgIiDQwJJgIIKKgkRGGIAhkwACoiAeQwPAPgAAAAAAAAADAAAQAACAAAQAACAAAAA==
> <PUBCHEM_IUPAC_OPENEYE_NAME>
[10,13-dimethyl-17-(4-phenylthiazol-2-yl)-2,3,4,7,8,9,11,12,14,15,16,17-dodecahydro-1H-cyclopenta[a]phenanthren-3-yl] acetate
> <PUBCHEM_IUPAC_CAS_NAME>
acetic acid [10,13-dimethyl-17-(4-phenyl-2-thiazolyl)-2,3,4,7,8,9,11,12,14,15,16,17-dodecahydro-1H-cyclopenta[a]phenanthren-3-yl] ester
> <PUBCHEM_IUPAC_NAME_MARKUP>
[10,13-dimethyl-17-(4-phenyl-1,3-thiazol-2-yl)-2,3,4,7,8,9,11,12,14,15,16,17-dodecahydro-1<I>H</I>-cyclopenta[a]phenanthren-3-yl] acetate
> <PUBCHEM_IUPAC_NAME>
[10,13-dimethyl-17-(4-phenyl-1,3-thiazol-2-yl)-2,3,4,7,8,9,11,12,14,15,16,17-dodecahydro-1H-cyclopenta[a]phenanthren-3-yl] acetate
> <PUBCHEM_IUPAC_SYSTEMATIC_NAME>
[10,13-dimethyl-17-(4-phenyl-1,3-thiazol-2-yl)-2,3,4,7,8,9,11,12,14,15,16,17-dodecahydro-1H-cyclopenta[a]phenanthren-3-yl] ethanoate
> <PUBCHEM_IUPAC_TRADITIONAL_NAME>
acetic acid [10,13-dimethyl-17-(4-phenylthiazol-2-yl)-2,3,4,7,8,9,11,12,14,15,16,17-dodecahydro-1H-cyclopenta[a]phenanthren-3-yl] ester
> <PUBCHEM_IUPAC_INCHI>
InChI=1S/C30H37NO2S/c1-19(32)33-22-13-15-29(2)21(17-22)9-10-23-24-11-12-26(30(24,3)16-14-25(23)29)28-31-27(18-34-28)20-7-5-4-6-8-20/h4-9,18,22-26H,10-17H2,1-3H3
> <PUBCHEM_IUPAC_INCHIKEY>
HUXBTPWQYLJEKJ-UHFFFAOYSA-N
> <PUBCHEM_XLOGP3_AA>
7.4
> <PUBCHEM_EXACT_MASS>
475.25450060
> <PUBCHEM_MOLECULAR_FORMULA>
C30H37NO2S
> <PUBCHEM_MOLECULAR_WEIGHT>
475.7
> <PUBCHEM_OPENEYE_CAN_SMILES>
CC(=O)OC1CCC2(C3CCC4(C(C3CC=C2C1)CCC4C5=NC(=CS5)C6=CC=CC=C6)C)C
> <PUBCHEM_OPENEYE_ISO_SMILES>
CC(=O)OC1CCC2(C3CCC4(C(C3CC=C2C1)CCC4C5=NC(=CS5)C6=CC=CC=C6)C)C
> <PUBCHEM_CACTVS_TPSA>
67.4
> <PUBCHEM_MONOISOTOPIC_WEIGHT>
475.25450060
> <PUBCHEM_TOTAL_CHARGE>
0
> <PUBCHEM_HEAVY_ATOM_COUNT>
34
> <PUBCHEM_ATOM_DEF_STEREO_COUNT>
0
> <PUBCHEM_ATOM_UDEF_STEREO_COUNT>
7
> <PUBCHEM_BOND_DEF_STEREO_COUNT>
0
> <PUBCHEM_BOND_UDEF_STEREO_COUNT>
0
> <PUBCHEM_ISOTOPIC_ATOM_COUNT>
0
> <PUBCHEM_COMPONENT_COUNT>
1
> <PUBCHEM_CACTVS_TAUTO_COUNT>
-1
> <PUBCHEM_COORDINATE_TYPE>
1
5
255
> <PUBCHEM_BONDANNOTATIONS>
1  22  8
1  26  8
10  22  3
24  2  3
25  26  8
28  30  8
28  31  8
30  32  8
31  33  8
32  34  8
33  34  8
4  22  8
4  25  8
5  17  3
6  13  3
7  15  3
8  12  3
9  20  3
$$$$
