500165
  -OEChem-10302200282D
 67 70  0     1  0  0  0  0  0999 V2000
    2.5357   -3.3515    0.0000 O   0  0  0  0  0  0  0  0  0  0  0  0
   11.7640    3.2695    0.0000 O   0  0  0  0  0  0  0  0  0  0  0  0
   12.1212    1.5747    0.0000 O   0  0  0  0  0  0  0  0  0  0  0  0
    7.9288   -0.2992    0.0000 C   0  0  3  0  0  0  0  0  0  0  0  0
    7.9288   -1.2992    0.0000 C   0  0  3  0  0  0  0  0  0  0  0  0
    7.0628   -1.7992    0.0000 C   0  0  3  0  0  0  0  0  0  0  0  0
    6.1968   -1.2992    0.0000 C   0  0  3  0  0  0  0  0  0  0  0  0
    5.2868   -1.8060    0.0000 C   0  0  3  0  0  0  0  0  0  0  0  0
    8.8750    0.0055    0.0000 C   0  0  3  0  0  0  0  0  0  0  0  0
    7.0628    0.2008    0.0000 C   0  0  0  0  0  0  0  0  0  0  0  0
    5.2787   -2.8476    0.0000 C   0  0  3  0  0  0  0  0  0  0  0  0
    6.1968   -0.2992    0.0000 C   0  0  0  0  0  0  0  0  0  0  0  0
    8.8750   -1.6039    0.0000 C   0  0  0  0  0  0  0  0  0  0  0  0
    7.0789   -2.8407    0.0000 C   0  0  0  0  0  0  0  0  0  0  0  0
    9.4586   -0.7992    0.0000 C   0  0  0  0  0  0  0  0  0  0  0  0
    6.1808   -3.3685    0.0000 C   0  0  0  0  0  0  0  0  0  0  0  0
    4.3599   -1.2420    0.0000 C   0  0  0  0  0  0  0  0  0  0  0  0
    7.9288    0.7008    0.0000 C   0  0  0  0  0  0  0  0  0  0  0  0
    9.1857    0.9560    0.0000 C   0  0  3  0  0  0  0  0  0  0  0  0
    4.3433   -3.3974    0.0000 C   0  0  0  0  0  0  0  0  0  0  0  0
    5.2945   -0.8061    0.0000 C   0  0  0  0  0  0  0  0  0  0  0  0
    3.4120   -1.7699    0.0000 C   0  0  0  0  0  0  0  0  0  0  0  0
    3.4037   -2.8549    0.0000 C   0  0  3  0  0  0  0  0  0  0  0  0
   10.1642    1.1623    0.0000 C   0  0  0  0  0  0  0  0  0  0  0  0
    8.5179    1.7004    0.0000 C   0  0  0  0  0  0  0  0  0  0  0  0
   10.4749    2.1128    0.0000 C   0  0  0  0  0  0  0  0  0  0  0  0
   11.4534    2.3190    0.0000 C   0  0  0  0  0  0  0  0  0  0  0  0
    7.9944   -1.9157    0.0000 H   0  0  0  0  0  0  0  0  0  0  0  0
    7.6021   -2.1051    0.0000 H   0  0  0  0  0  0  0  0  0  0  0  0
    6.7337   -0.9892    0.0000 H   0  0  0  0  0  0  0  0  0  0  0  0
    9.4875    0.1017    0.0000 H   0  0  0  0  0  0  0  0  0  0  0  0
    7.4613    0.6757    0.0000 H   0  0  0  0  0  0  0  0  0  0  0  0
    6.6643    0.6757    0.0000 H   0  0  0  0  0  0  0  0  0  0  0  0
    5.2811   -3.4676    0.0000 H   0  0  0  0  0  0  0  0  0  0  0  0
    5.9847    0.2834    0.0000 H   0  0  0  0  0  0  0  0  0  0  0  0
    5.5862   -0.4069    0.0000 H   0  0  0  0  0  0  0  0  0  0  0  0
    8.6240   -2.1708    0.0000 H   0  0  0  0  0  0  0  0  0  0  0  0
    9.4124   -1.9132    0.0000 H   0  0  0  0  0  0  0  0  0  0  0  0
    7.2969   -3.4211    0.0000 H   0  0  0  0  0  0  0  0  0  0  0  0
    7.6880   -2.7252    0.0000 H   0  0  0  0  0  0  0  0  0  0  0  0
    9.9195   -1.2139    0.0000 H   0  0  0  0  0  0  0  0  0  0  0  0
    9.9195   -0.3845    0.0000 H   0  0  0  0  0  0  0  0  0  0  0  0
    5.7835   -3.8444    0.0000 H   0  0  0  0  0  0  0  0  0  0  0  0
    6.5818   -3.8414    0.0000 H   0  0  0  0  0  0  0  0  0  0  0  0
    4.7681   -0.7753    0.0000 H   0  0  0  0  0  0  0  0  0  0  0  0
    3.9700   -0.7599    0.0000 H   0  0  0  0  0  0  0  0  0  0  0  0
    8.5488    0.7008    0.0000 H   0  0  0  0  0  0  0  0  0  0  0  0
    7.9288    1.3208    0.0000 H   0  0  0  0  0  0  0  0  0  0  0  0
    7.3088    0.7008    0.0000 H   0  0  0  0  0  0  0  0  0  0  0  0
    9.4498    1.7640    0.0000 H   0  0  0  0  0  0  0  0  0  0  0  0
    3.9460   -3.8734    0.0000 H   0  0  0  0  0  0  0  0  0  0  0  0
    4.7443   -3.8703    0.0000 H   0  0  0  0  0  0  0  0  0  0  0  0
    5.9145   -0.8109    0.0000 H   0  0  0  0  0  0  0  0  0  0  0  0
    5.2993   -0.1861    0.0000 H   0  0  0  0  0  0  0  0  0  0  0  0
    4.6745   -0.8013    0.0000 H   0  0  0  0  0  0  0  0  0  0  0  0
    3.2075   -1.1846    0.0000 H   0  0  0  0  0  0  0  0  0  0  0  0
    2.8004   -1.8713    0.0000 H   0  0  0  0  0  0  0  0  0  0  0  0
    3.4025   -3.4749    0.0000 H   0  0  0  0  0  0  0  0  0  0  0  0
   10.1848    0.5426    0.0000 H   0  0  0  0  0  0  0  0  0  0  0  0
   10.7780    1.0749    0.0000 H   0  0  0  0  0  0  0  0  0  0  0  0
    8.9793    2.1144    0.0000 H   0  0  0  0  0  0  0  0  0  0  0  0
    8.1038    2.1618    0.0000 H   0  0  0  0  0  0  0  0  0  0  0  0
    8.0564    1.2863    0.0000 H   0  0  0  0  0  0  0  0  0  0  0  0
    2.0000   -3.0395    0.0000 H   0  0  0  0  0  0  0  0  0  0  0  0
   10.4543    2.7324    0.0000 H   0  0  0  0  0  0  0  0  0  0  0  0
    9.8611    2.2001    0.0000 H   0  0  0  0  0  0  0  0  0  0  0  0
   12.3707    3.3974    0.0000 H   0  0  0  0  0  0  0  0  0  0  0  0
  1 23  1  0  0  0  0
  1 64  1  0  0  0  0
  2 27  1  0  0  0  0
  2 67  1  0  0  0  0
  3 27  2  0  0  0  0
  4  5  1  0  0  0  0
  4  9  1  0  0  0  0
  4 10  1  0  0  0  0
  4 18  1  0  0  0  0
  5  6  1  0  0  0  0
  5 13  1  0  0  0  0
  5 28  1  0  0  0  0
  6  7  1  0  0  0  0
  6 14  1  0  0  0  0
  6 29  1  0  0  0  0
  7  8  1  0  0  0  0
  7 12  1  0  0  0  0
  7 30  1  0  0  0  0
  8 11  1  0  0  0  0
  8 17  1  0  0  0  0
  8 21  1  0  0  0  0
  9 15  1  0  0  0  0
  9 19  1  0  0  0  0
  9 31  1  0  0  0  0
 10 12  1  0  0  0  0
 10 32  1  0  0  0  0
 10 33  1  0  0  0  0
 11 16  1  0  0  0  0
 11 20  1  0  0  0  0
 11 34  1  0  0  0  0
 12 35  1  0  0  0  0
 12 36  1  0  0  0  0
 13 15  1  0  0  0  0
 13 37  1  0  0  0  0
 13 38  1  0  0  0  0
 14 16  1  0  0  0  0
 14 39  1  0  0  0  0
 14 40  1  0  0  0  0
 15 41  1  0  0  0  0
 15 42  1  0  0  0  0
 16 43  1  0  0  0  0
 16 44  1  0  0  0  0
 17 22  1  0  0  0  0
 17 45  1  0  0  0  0
 17 46  1  0  0  0  0
 18 47  1  0  0  0  0
 18 48  1  0  0  0  0
 18 49  1  0  0  0  0
 19 24  1  0  0  0  0
 19 25  1  0  0  0  0
 19 50  1  0  0  0  0
 20 23  1  0  0  0  0
 20 51  1  0  0  0  0
 20 52  1  0  0  0  0
 21 53  1  0  0  0  0
 21 54  1  0  0  0  0
 21 55  1  0  0  0  0
 22 23  1  0  0  0  0
 22 56  1  0  0  0  0
 22 57  1  0  0  0  0
 23 58  1  0  0  0  0
 24 26  1  0  0  0  0
 24 59  1  0  0  0  0
 24 60  1  0  0  0  0
 25 61  1  0  0  0  0
 25 62  1  0  0  0  0
 25 63  1  0  0  0  0
 26 27  1  0  0  0  0
 26 65  1  0  0  0  0
 26 66  1  0  0  0  0
M  END
> <PUBCHEM_COMPOUND_CID>
500165
> <PUBCHEM_COMPOUND_CANONICALIZED>
1
> <PUBCHEM_CACTVS_COMPLEXITY>
574
> <PUBCHEM_CACTVS_HBOND_ACCEPTOR>
3
> <PUBCHEM_CACTVS_HBOND_DONOR>
2
> <PUBCHEM_CACTVS_ROTATABLE_BOND>
4
> <PUBCHEM_CACTVS_SUBSKEYS>
AAADcfB4MAAAAAAAAAAAAAAAAAAAAYAAAAAwYMAAAAAAAGDAAAAAGgAACAAADxSggAICCAAAAgAIAACQCAAAAAAAAAAAAAEAAAAAEBIAAAAAQAAEAAAAAAGIyPCPgAAAAAAAAADAAAYAACAAAQAACAAAAA==
> <PUBCHEM_IUPAC_OPENEYE_NAME>
4-(3-hydroxy-10,13-dimethyl-2,3,4,5,6,7,8,9,11,12,14,15,16,17-tetradecahydro-1H-cyclopenta[a]phenanthren-17-yl)pentanoic acid
> <PUBCHEM_IUPAC_CAS_NAME>
4-(3-hydroxy-10,13-dimethyl-2,3,4,5,6,7,8,9,11,12,14,15,16,17-tetradecahydro-1H-cyclopenta[a]phenanthren-17-yl)pentanoic acid
> <PUBCHEM_IUPAC_NAME_MARKUP>
4-(3-hydroxy-10,13-dimethyl-2,3,4,5,6,7,8,9,11,12,14,15,16,17-tetradecahydro-1<I>H</I>-cyclopenta[a]phenanthren-17-yl)pentanoic acid
> <PUBCHEM_IUPAC_NAME>
4-(3-hydroxy-10,13-dimethyl-2,3,4,5,6,7,8,9,11,12,14,15,16,17-tetradecahydro-1H-cyclopenta[a]phenanthren-17-yl)pentanoic acid
> <PUBCHEM_IUPAC_SYSTEMATIC_NAME>
4-(10,13-dimethyl-3-oxidanyl-2,3,4,5,6,7,8,9,11,12,14,15,16,17-tetradecahydro-1H-cyclopenta[a]phenanthren-17-yl)pentanoic acid
> <PUBCHEM_IUPAC_TRADITIONAL_NAME>
4-(3-hydroxy-10,13-dimethyl-2,3,4,5,6,7,8,9,11,12,14,15,16,17-tetradecahydro-1H-cyclopenta[a]phenanthren-17-yl)valeric acid
> <PUBCHEM_IUPAC_INCHI>
InChI=1S/C24H40O3/c1-15(4-9-22(26)27)19-7-8-20-18-6-5-16-14-17(25)10-12-23(16,2)21(18)11-13-24(19,20)3/h15-21,25H,4-14H2,1-3H3,(H,26,27)
> <PUBCHEM_IUPAC_INCHIKEY>
SMEROWZSTRWXGI-UHFFFAOYSA-N
> <PUBCHEM_XLOGP3_AA>
6.3
> <PUBCHEM_EXACT_MASS>
376.29774513
> <PUBCHEM_MOLECULAR_FORMULA>
C24H40O3
> <PUBCHEM_MOLECULAR_WEIGHT>
376.6
> <PUBCHEM_OPENEYE_CAN_SMILES>
CC(CCC(=O)O)C1CCC2C1(CCC3C2CCC4C3(CCC(C4)O)C)C
> <PUBCHEM_OPENEYE_ISO_SMILES>
CC(CCC(=O)O)C1CCC2C1(CCC3C2CCC4C3(CCC(C4)O)C)C
> <PUBCHEM_CACTVS_TPSA>
57.5
> <PUBCHEM_MONOISOTOPIC_WEIGHT>
376.29774513
> <PUBCHEM_TOTAL_CHARGE>
0
> <PUBCHEM_HEAVY_ATOM_COUNT>
27
> <PUBCHEM_ATOM_DEF_STEREO_COUNT>
0
> <PUBCHEM_ATOM_UDEF_STEREO_COUNT>
9
> <PUBCHEM_BOND_DEF_STEREO_COUNT>
0
> <PUBCHEM_BOND_UDEF_STEREO_COUNT>
0
> <PUBCHEM_ISOTOPIC_ATOM_COUNT>
0
> <PUBCHEM_COMPONENT_COUNT>
1
> <PUBCHEM_CACTVS_TAUTO_COUNT>
-1
> <PUBCHEM_COORDINATE_TYPE>
1
5
255
> <PUBCHEM_BONDANNOTATIONS>
23  1  3
11  16  3
19  50  3
4  18  3
5  13  3
6  14  3
7  12  3
8  21  3
9  15  3
$$$$
