500194
  -OEChem-10302200282D
 68 69  0     1  0  0  0  0  0999 V2000
   17.6052   -5.6396    0.0000 I   0  0  0  0  0  0  0  0  0  0  0  0
    6.2503    1.0518    0.0000 O   0  0  0  0  0  0  0  0  0  0  0  0
    7.5236   -0.6037    0.0000 O   0  0  0  0  0  0  0  0  0  0  0  0
    7.1733    2.6396    0.0000 O   0  0  0  0  0  0  0  0  0  0  0  0
    7.7046   -2.3262    0.0000 O   0  0  0  0  0  0  0  0  0  0  0  0
    5.4413    5.6396    0.0000 O   0  0  0  0  0  0  0  0  0  0  0  0
    5.4413    2.6396    0.0000 N   0  0  0  0  0  0  0  0  0  0  0  0
    4.3535   -0.7082    0.0000 N   0  0  0  0  0  0  0  0  0  0  0  0
    6.3073    4.1396    0.0000 N   0  0  0  0  0  0  0  0  0  0  0  0
    3.3590   -0.6037    0.0000 N   0  3  0  0  0  0  0  0  0  0  0  0
    2.3644   -0.4992    0.0000 N   0  0  0  0  0  0  0  0  0  0  0  0
    4.9413    0.1008    0.0000 C   0  0  2  0  0  0  0  0  0  0  0  0
    5.9413    0.1008    0.0000 C   0  0  1  0  0  0  0  0  0  0  0  0
    4.6322    1.0518    0.0000 C   0  0  0  0  0  0  0  0  0  0  0  0
    5.4413    1.6396    0.0000 C   0  0  1  0  0  0  0  0  0  0  0  0
    6.5290   -0.7082    0.0000 C   0  0  0  0  0  0  0  0  0  0  0  0
    4.5752    3.1396    0.0000 C   0  0  0  0  0  0  0  0  0  0  0  0
    6.3073    3.1396    0.0000 C   0  0  0  0  0  0  0  0  0  0  0  0
   12.2705   -2.7172    0.0000 C   0  0  0  0  0  0  0  0  0  0  0  0
   11.2760   -2.8217    0.0000 C   0  0  0  0  0  0  0  0  0  0  0  0
   12.8583   -3.5262    0.0000 C   0  0  0  0  0  0  0  0  0  0  0  0
   10.6882   -2.0127    0.0000 C   0  0  0  0  0  0  0  0  0  0  0  0
    9.6937   -2.1172    0.0000 C   0  0  0  0  0  0  0  0  0  0  0  0
   13.8528   -3.4216    0.0000 C   0  0  0  0  0  0  0  0  0  0  0  0
    9.1059   -1.3082    0.0000 C   0  0  0  0  0  0  0  0  0  0  0  0
    4.5752    4.1396    0.0000 C   0  0  0  0  0  0  0  0  0  0  0  0
   14.4406   -4.2307    0.0000 C   0  0  0  0  0  0  0  0  0  0  0  0
    8.1114   -1.4127    0.0000 C   0  0  0  0  0  0  0  0  0  0  0  0
   15.4351   -4.1261    0.0000 C   0  0  0  0  0  0  0  0  0  0  0  0
    5.4413    4.6396    0.0000 C   0  0  0  0  0  0  0  0  0  0  0  0
   16.0229   -4.9352    0.0000 C   0  0  0  0  0  0  0  0  0  0  0  0
    3.7092    4.6396    0.0000 C   0  0  0  0  0  0  0  0  0  0  0  0
   17.0174   -4.8306    0.0000 C   0  0  0  0  0  0  0  0  0  0  0  0
    5.2227   -0.4516    0.0000 H   0  0  0  0  0  0  0  0  0  0  0  0
    6.5536    0.1978    0.0000 H   0  0  0  0  0  0  0  0  0  0  0  0
    4.3222    1.5888    0.0000 H   0  0  0  0  0  0  0  0  0  0  0  0
    4.0658    0.7997    0.0000 H   0  0  0  0  0  0  0  0  0  0  0  0
    5.9937    1.9211    0.0000 H   0  0  0  0  0  0  0  0  0  0  0  0
    5.9718   -0.9800    0.0000 H   0  0  0  0  0  0  0  0  0  0  0  0
    6.6999   -1.3042    0.0000 H   0  0  0  0  0  0  0  0  0  0  0  0
    4.0383    2.8296    0.0000 H   0  0  0  0  0  0  0  0  0  0  0  0
   12.8277   -2.4454    0.0000 H   0  0  0  0  0  0  0  0  0  0  0  0
   12.0996   -2.1212    0.0000 H   0  0  0  0  0  0  0  0  0  0  0  0
   10.7187   -3.0935    0.0000 H   0  0  0  0  0  0  0  0  0  0  0  0
   11.4469   -3.4177    0.0000 H   0  0  0  0  0  0  0  0  0  0  0  0
   12.3010   -3.7980    0.0000 H   0  0  0  0  0  0  0  0  0  0  0  0
   13.0292   -4.1222    0.0000 H   0  0  0  0  0  0  0  0  0  0  0  0
   11.2454   -1.7409    0.0000 H   0  0  0  0  0  0  0  0  0  0  0  0
   10.5173   -1.4167    0.0000 H   0  0  0  0  0  0  0  0  0  0  0  0
    9.1364   -2.3890    0.0000 H   0  0  0  0  0  0  0  0  0  0  0  0
    9.8646   -2.7132    0.0000 H   0  0  0  0  0  0  0  0  0  0  0  0
   14.4100   -3.1499    0.0000 H   0  0  0  0  0  0  0  0  0  0  0  0
   13.6819   -2.8257    0.0000 H   0  0  0  0  0  0  0  0  0  0  0  0
    9.6631   -1.0364    0.0000 H   0  0  0  0  0  0  0  0  0  0  0  0
    8.9350   -0.7122    0.0000 H   0  0  0  0  0  0  0  0  0  0  0  0
   13.8833   -4.5024    0.0000 H   0  0  0  0  0  0  0  0  0  0  0  0
   14.6115   -4.8266    0.0000 H   0  0  0  0  0  0  0  0  0  0  0  0
    6.8442    4.4496    0.0000 H   0  0  0  0  0  0  0  0  0  0  0  0
   15.9924   -3.8543    0.0000 H   0  0  0  0  0  0  0  0  0  0  0  0
   15.2642   -3.5302    0.0000 H   0  0  0  0  0  0  0  0  0  0  0  0
   15.4656   -5.2069    0.0000 H   0  0  0  0  0  0  0  0  0  0  0  0
   16.1938   -5.5311    0.0000 H   0  0  0  0  0  0  0  0  0  0  0  0
    4.0192    5.1766    0.0000 H   0  0  0  0  0  0  0  0  0  0  0  0
    3.1723    4.9496    0.0000 H   0  0  0  0  0  0  0  0  0  0  0  0
    3.3992    4.1027    0.0000 H   0  0  0  0  0  0  0  0  0  0  0  0
   17.5747   -4.5588    0.0000 H   0  0  0  0  0  0  0  0  0  0  0  0
   16.8465   -4.2346    0.0000 H   0  0  0  0  0  0  0  0  0  0  0  0
    2.0000   -1.0008    0.0000 H   0  0  0  0  0  0  0  0  0  0  0  0
  1 33  1  0  0  0  0
  2 13  1  0  0  0  0
  2 15  1  0  0  0  0
  3 16  1  0  0  0  0
  3 28  1  0  0  0  0
  4 18  2  0  0  0  0
  5 28  2  0  0  0  0
  6 30  2  0  0  0  0
 15  7  1  6  0  0  0
  7 17  1  0  0  0  0
  7 18  1  0  0  0  0
  8 10  2  0  0  0  0
 12  8  1  1  0  0  0
  9 18  1  0  0  0  0
  9 30  1  0  0  0  0
  9 58  1  0  0  0  0
 10 11  2  0  0  0  0
 11 68  1  0  0  0  0
 12 13  1  0  0  0  0
 12 14  1  0  0  0  0
 12 34  1  0  0  0  0
 13 16  1  6  0  0  0
 13 35  1  0  0  0  0
 14 15  1  0  0  0  0
 14 36  1  0  0  0  0
 14 37  1  0  0  0  0
 15 38  1  0  0  0  0
 16 39  1  0  0  0  0
 16 40  1  0  0  0  0
 17 26  2  0  0  0  0
 17 41  1  0  0  0  0
 19 20  1  0  0  0  0
 19 21  1  0  0  0  0
 19 42  1  0  0  0  0
 19 43  1  0  0  0  0
 20 22  1  0  0  0  0
 20 44  1  0  0  0  0
 20 45  1  0  0  0  0
 21 24  1  0  0  0  0
 21 46  1  0  0  0  0
 21 47  1  0  0  0  0
 22 23  1  0  0  0  0
 22 48  1  0  0  0  0
 22 49  1  0  0  0  0
 23 25  1  0  0  0  0
 23 50  1  0  0  0  0
 23 51  1  0  0  0  0
 24 27  1  0  0  0  0
 24 52  1  0  0  0  0
 24 53  1  0  0  0  0
 25 28  1  0  0  0  0
 25 54  1  0  0  0  0
 25 55  1  0  0  0  0
 26 30  1  0  0  0  0
 26 32  1  0  0  0  0
 27 29  1  0  0  0  0
 27 56  1  0  0  0  0
 27 57  1  0  0  0  0
 29 31  1  0  0  0  0
 29 59  1  0  0  0  0
 29 60  1  0  0  0  0
 31 33  1  0  0  0  0
 31 61  1  0  0  0  0
 31 62  1  0  0  0  0
 32 63  1  0  0  0  0
 32 64  1  0  0  0  0
 32 65  1  0  0  0  0
 33 66  1  0  0  0  0
 33 67  1  0  0  0  0
M  CHG  1  10   1
M  END
> <PUBCHEM_COMPOUND_CID>
500194
> <PUBCHEM_COMPOUND_CANONICALIZED>
1
> <PUBCHEM_CACTVS_COMPLEXITY>
756
> <PUBCHEM_CACTVS_HBOND_ACCEPTOR>
7
> <PUBCHEM_CACTVS_HBOND_DONOR>
2
> <PUBCHEM_CACTVS_ROTATABLE_BOND>
16
> <PUBCHEM_CACTVS_SUBSKEYS>
AAADcfB7uAAAAgAAAAAAAAAAAAAAASAAAAAgAAAAAAAAAAAAAAAAHgA4AAAADDzjgAYDCAPCBACKAgHWWACAAAAAAAAAAAEIAECDABIAwQAPAAAOByICAMG4+KqAAAAAAAAAAAAAAAAAAAAAAAAAAAAAAA==
> <PUBCHEM_IUPAC_OPENEYE_NAME>
imino-[(2S,3S,5R)-2-(12-iodododecanoyloxymethyl)-5-(5-methyl-2,4-dioxo-pyrimidin-1-yl)tetrahydrofuran-3-yl]imino-ammonium
> <PUBCHEM_IUPAC_CAS_NAME>
imino-[[(2S,3S,5R)-2-[(12-iodo-1-oxododecoxy)methyl]-5-(5-methyl-2,4-dioxo-1-pyrimidinyl)-3-oxolanyl]imino]ammonium
> <PUBCHEM_IUPAC_NAME_MARKUP>
imino-[(2<I>S</I>,3<I>S</I>,5<I>R</I>)-2-(12-iodododecanoyloxymethyl)-5-(5-methyl-2,4-dioxopyrimidin-1-yl)oxolan-3-yl]iminoazanium
> <PUBCHEM_IUPAC_NAME>
imino-[(2S,3S,5R)-2-(12-iodododecanoyloxymethyl)-5-(5-methyl-2,4-dioxopyrimidin-1-yl)oxolan-3-yl]iminoazanium
> <PUBCHEM_IUPAC_SYSTEMATIC_NAME>
azanylidene-[(2S,3S,5R)-2-(12-iodanyldodecanoyloxymethyl)-5-[5-methyl-2,4-bis(oxidanylidene)pyrimidin-1-yl]oxolan-3-yl]imino-azanium
> <PUBCHEM_IUPAC_TRADITIONAL_NAME>
[(2S,3S,5R)-5-(2,4-diketo-5-methyl-pyrimidin-1-yl)-2-(12-iodododecanoyloxymethyl)tetrahydrofuran-3-yl]imino-imino-ammonium
> <PUBCHEM_IUPAC_INCHI>
InChI=1S/C22H34IN5O5/c1-16-14-28(22(31)25-21(16)30)19-13-17(26-27-24)18(33-19)15-32-20(29)11-9-7-5-3-2-4-6-8-10-12-23/h14,17-19,24H,2-13,15H2,1H3/p+1/t17-,18+,19+/m0/s1
> <PUBCHEM_IUPAC_INCHIKEY>
QRKQIADABRZJTK-IPMKNSEASA-O
> <PUBCHEM_EXACT_MASS>
576.16829
> <PUBCHEM_MOLECULAR_FORMULA>
C22H35IN5O5+
> <PUBCHEM_MOLECULAR_WEIGHT>
576.4
> <PUBCHEM_OPENEYE_CAN_SMILES>
CC1=CN(C(=O)NC1=O)C2CC(C(O2)COC(=O)CCCCCCCCCCCI)N=[N+]=N
> <PUBCHEM_OPENEYE_ISO_SMILES>
CC1=CN(C(=O)NC1=O)[C@H]2C[C@@H]([C@H](O2)COC(=O)CCCCCCCCCCCI)N=[N+]=N
> <PUBCHEM_CACTVS_TPSA>
122
> <PUBCHEM_MONOISOTOPIC_WEIGHT>
576.16829
> <PUBCHEM_TOTAL_CHARGE>
1
> <PUBCHEM_HEAVY_ATOM_COUNT>
33
> <PUBCHEM_ATOM_DEF_STEREO_COUNT>
3
> <PUBCHEM_ATOM_UDEF_STEREO_COUNT>
0
> <PUBCHEM_BOND_DEF_STEREO_COUNT>
0
> <PUBCHEM_BOND_UDEF_STEREO_COUNT>
0
> <PUBCHEM_ISOTOPIC_ATOM_COUNT>
0
> <PUBCHEM_COMPONENT_COUNT>
1
> <PUBCHEM_CACTVS_TAUTO_COUNT>
-1
> <PUBCHEM_COORDINATE_TYPE>
1
5
255
> <PUBCHEM_BONDANNOTATIONS>
13  16  6
17  26  8
26  30  8
15  7  6
7  17  8
7  18  8
12  8  5
9  18  8
9  30  8
$$$$
