500158
  -OEChem-10302200282D
 37 39  0     1  0  0  0  0  0999 V2000
    4.2988   -1.3790    0.0000 O   0  0  0  0  0  0  0  0  0  0  0  0
    2.8846    1.4494    0.0000 O   0  0  0  0  0  0  0  0  0  0  0  0
    3.1305    2.4514    0.0000 O   0  0  0  0  0  0  0  0  0  0  0  0
    3.0740   -2.6038    0.0000 O   0  0  0  0  0  0  0  0  0  0  0  0
    3.5917   -0.6719    0.0000 C   0  0  3  0  0  0  0  0  0  0  0  0
    2.8846    0.0352    0.0000 C   0  0  3  0  0  0  0  0  0  0  0  0
    3.5917    0.7423    0.0000 C   0  0  3  0  0  0  0  0  0  0  0  0
    4.2988    0.0352    0.0000 C   0  0  3  0  0  0  0  0  0  0  0  0
    3.1381   -1.5565    0.0000 C   0  0  0  0  0  0  0  0  0  0  0  0
    2.0000   -0.4184    0.0000 C   0  0  0  0  0  0  0  0  0  0  0  0
    3.8457    1.7525    0.0000 C   0  0  3  0  0  0  0  0  0  0  0  0
    5.3090    0.2892    0.0000 C   0  0  0  0  0  0  0  0  0  0  0  0
    2.1564   -1.4001    0.0000 C   0  0  0  0  0  0  0  0  0  0  0  0
    4.8497    2.0298    0.0000 C   0  0  0  0  0  0  0  0  0  0  0  0
    5.5863    1.2933    0.0000 C   0  0  0  0  0  0  0  0  0  0  0  0
    4.0400   -2.3449    0.0000 C   0  0  0  0  0  0  0  0  0  0  0  0
    4.7471   -3.0520    0.0000 C   0  0  0  0  0  0  0  0  0  0  0  0
    2.5195    0.5363    0.0000 H   0  0  0  0  0  0  0  0  0  0  0  0
    4.6046   -0.5041    0.0000 H   0  0  0  0  0  0  0  0  0  0  0  0
    2.9767   -2.1551    0.0000 H   0  0  0  0  0  0  0  0  0  0  0  0
    3.7164   -1.7798    0.0000 H   0  0  0  0  0  0  0  0  0  0  0  0
    1.7766    0.1600    0.0000 H   0  0  0  0  0  0  0  0  0  0  0  0
    1.4014   -0.5797    0.0000 H   0  0  0  0  0  0  0  0  0  0  0  0
    4.0004    2.3529    0.0000 H   0  0  0  0  0  0  0  0  0  0  0  0
    5.3550   -0.3290    0.0000 H   0  0  0  0  0  0  0  0  0  0  0  0
    5.9260    0.2289    0.0000 H   0  0  0  0  0  0  0  0  0  0  0  0
    1.5372   -1.4327    0.0000 H   0  0  0  0  0  0  0  0  0  0  0  0
    2.1237   -2.0192    0.0000 H   0  0  0  0  0  0  0  0  0  0  0  0
    5.3567    2.3867    0.0000 H   0  0  0  0  0  0  0  0  0  0  0  0
    4.5848    2.5904    0.0000 H   0  0  0  0  0  0  0  0  0  0  0  0
    6.1468    1.0284    0.0000 H   0  0  0  0  0  0  0  0  0  0  0  0
    5.9432    1.8002    0.0000 H   0  0  0  0  0  0  0  0  0  0  0  0
    2.2857    1.2889    0.0000 H   0  0  0  0  0  0  0  0  0  0  0  0
    3.2840    3.0520    0.0000 H   0  0  0  0  0  0  0  0  0  0  0  0
    4.3086   -3.4905    0.0000 H   0  0  0  0  0  0  0  0  0  0  0  0
    5.1855   -3.4905    0.0000 H   0  0  0  0  0  0  0  0  0  0  0  0
    5.1855   -2.6136    0.0000 H   0  0  0  0  0  0  0  0  0  0  0  0
  1  5  1  0  0  0  0
  1 16  1  0  0  0  0
  2  7  1  0  0  0  0
  2 33  1  0  0  0  0
  3 11  1  0  0  0  0
  3 34  1  0  0  0  0
  4 16  2  0  0  0  0
  5  6  1  0  0  0  0
  5  8  1  0  0  0  0
  5  9  1  0  0  0  0
  6  7  1  0  0  0  0
  6 10  1  0  0  0  0
  6 18  1  0  0  0  0
  7  8  1  0  0  0  0
  7 11  1  0  0  0  0
  8 12  1  0  0  0  0
  8 19  1  0  0  0  0
  9 13  1  0  0  0  0
  9 20  1  0  0  0  0
  9 21  1  0  0  0  0
 10 13  1  0  0  0  0
 10 22  1  0  0  0  0
 10 23  1  0  0  0  0
 11 14  1  0  0  0  0
 11 24  1  0  0  0  0
 12 15  1  0  0  0  0
 12 25  1  0  0  0  0
 12 26  1  0  0  0  0
 13 27  1  0  0  0  0
 13 28  1  0  0  0  0
 14 15  1  0  0  0  0
 14 29  1  0  0  0  0
 14 30  1  0  0  0  0
 15 31  1  0  0  0  0
 15 32  1  0  0  0  0
 16 17  1  0  0  0  0
 17 35  1  0  0  0  0
 17 36  1  0  0  0  0
 17 37  1  0  0  0  0
M  END
> <PUBCHEM_COMPOUND_CID>
500158
> <PUBCHEM_COMPOUND_CANONICALIZED>
1
> <PUBCHEM_CACTVS_COMPLEXITY>
355
> <PUBCHEM_CACTVS_HBOND_ACCEPTOR>
4
> <PUBCHEM_CACTVS_HBOND_DONOR>
2
> <PUBCHEM_CACTVS_ROTATABLE_BOND>
2
> <PUBCHEM_CACTVS_SUBSKEYS>
AAADceBwOAAAAAAAAAAAAAAAAABgAYAAAAAwAAAABgAYAAAAAAAAGgAACAAADVSggAICCAAABgAIAACQCAAAAAAAAAAAAAAAAAABEAIAAAACQAAFAAABAAHAwPAOgAAAAAAAAAAAAAIAADCAAAAADAAAAA==
> <PUBCHEM_IUPAC_OPENEYE_NAME>
(7,8-dihydroxy-2-tricyclo[5.4.0.02,6]undecanyl) acetate
> <PUBCHEM_IUPAC_CAS_NAME>
acetic acid (7,8-dihydroxy-2-tricyclo[5.4.0.02,6]undecanyl) ester
> <PUBCHEM_IUPAC_NAME_MARKUP>
(7,8-dihydroxy-2-tricyclo[5.4.0.0<SUP>2,6</SUP>]undecanyl) acetate
> <PUBCHEM_IUPAC_NAME>
(7,8-dihydroxy-2-tricyclo[5.4.0.02,6]undecanyl) acetate
> <PUBCHEM_IUPAC_SYSTEMATIC_NAME>
[7,8-bis(oxidanyl)-2-tricyclo[5.4.0.02,6]undecanyl] ethanoate
> <PUBCHEM_IUPAC_TRADITIONAL_NAME>
acetic acid (7,8-dihydroxy-2-tricyclo[5.4.0.02,6]undecanyl) ester
> <PUBCHEM_IUPAC_INCHI>
InChI=1S/C13H20O4/c1-8(14)17-12-7-3-5-10(12)13(16)9(12)4-2-6-11(13)15/h9-11,15-16H,2-7H2,1H3
> <PUBCHEM_IUPAC_INCHIKEY>
GKYOQJWWFQBXEP-UHFFFAOYSA-N
> <PUBCHEM_XLOGP3_AA>
0.6
> <PUBCHEM_EXACT_MASS>
240.13615911
> <PUBCHEM_MOLECULAR_FORMULA>
C13H20O4
> <PUBCHEM_MOLECULAR_WEIGHT>
240.29
> <PUBCHEM_OPENEYE_CAN_SMILES>
CC(=O)OC12CCCC1C3(C2CCCC3O)O
> <PUBCHEM_OPENEYE_ISO_SMILES>
CC(=O)OC12CCCC1C3(C2CCCC3O)O
> <PUBCHEM_CACTVS_TPSA>
66.8
> <PUBCHEM_MONOISOTOPIC_WEIGHT>
240.13615911
> <PUBCHEM_TOTAL_CHARGE>
0
> <PUBCHEM_HEAVY_ATOM_COUNT>
17
> <PUBCHEM_ATOM_DEF_STEREO_COUNT>
0
> <PUBCHEM_ATOM_UDEF_STEREO_COUNT>
5
> <PUBCHEM_BOND_DEF_STEREO_COUNT>
0
> <PUBCHEM_BOND_UDEF_STEREO_COUNT>
0
> <PUBCHEM_ISOTOPIC_ATOM_COUNT>
0
> <PUBCHEM_COMPONENT_COUNT>
1
> <PUBCHEM_CACTVS_TAUTO_COUNT>
-1
> <PUBCHEM_COORDINATE_TYPE>
1
5
255
> <PUBCHEM_BONDANNOTATIONS>
5  1  3
7  2  3
11  3  3
6  10  3
8  12  3
$$$$
