500120
  -OEChem-10302200282D
 45 47  0     1  0  0  0  0  0999 V2000
    8.8616    0.8692    0.0000 O   0  0  0  0  0  0  0  0  0  0  0  0
    3.5704    0.8692    0.0000 O   0  0  0  0  0  0  0  0  0  0  0  0
    8.0526   -0.5320    0.0000 N   0  0  0  0  0  0  0  0  0  0  0  0
    4.3794   -0.5320    0.0000 N   0  0  0  0  0  0  0  0  0  0  0  0
    6.2160    0.4625    0.0000 N   0  0  0  0  0  0  0  0  0  0  0  0
    9.0307   -0.7399    0.0000 C   0  0  3  0  0  0  0  0  0  0  0  0
    3.4013   -0.7399    0.0000 C   0  0  3  0  0  0  0  0  0  0  0  0
    9.4374   -1.6535    0.0000 C   0  0  0  0  0  0  0  0  0  0  0  0
    2.9945   -1.6535    0.0000 C   0  0  0  0  0  0  0  0  0  0  0  0
    9.5307    0.1261    0.0000 C   0  0  0  0  0  0  0  0  0  0  0  0
    2.9013    0.1261    0.0000 C   0  0  0  0  0  0  0  0  0  0  0  0
   10.4320   -1.7580    0.0000 C   0  0  0  0  0  0  0  0  0  0  0  0
    8.8497   -2.4625    0.0000 C   0  0  0  0  0  0  0  0  0  0  0  0
    2.0000   -1.7580    0.0000 C   0  0  0  0  0  0  0  0  0  0  0  0
    3.5823   -2.4625    0.0000 C   0  0  0  0  0  0  0  0  0  0  0  0
    7.9480    0.4625    0.0000 C   0  0  0  0  0  0  0  0  0  0  0  0
    4.4839    0.4625    0.0000 C   0  0  0  0  0  0  0  0  0  0  0  0
    7.0820    0.9625    0.0000 C   0  0  0  0  0  0  0  0  0  0  0  0
    5.3500    0.9625    0.0000 C   0  0  0  0  0  0  0  0  0  0  0  0
    7.0820    1.9625    0.0000 C   0  0  0  0  0  0  0  0  0  0  0  0
    5.3500    1.9625    0.0000 C   0  0  0  0  0  0  0  0  0  0  0  0
    6.2160    2.4625    0.0000 C   0  0  0  0  0  0  0  0  0  0  0  0
    9.6499   -0.7724    0.0000 H   0  0  0  0  0  0  0  0  0  0  0  0
    3.7914   -1.2218    0.0000 H   0  0  0  0  0  0  0  0  0  0  0  0
    8.8208   -1.5887    0.0000 H   0  0  0  0  0  0  0  0  0  0  0  0
    2.7424   -2.2199    0.0000 H   0  0  0  0  0  0  0  0  0  0  0  0
   10.0323   -0.2383    0.0000 H   0  0  0  0  0  0  0  0  0  0  0  0
    9.9456    0.5868    0.0000 H   0  0  0  0  0  0  0  0  0  0  0  0
    2.4864    0.5868    0.0000 H   0  0  0  0  0  0  0  0  0  0  0  0
    2.3997   -0.2383    0.0000 H   0  0  0  0  0  0  0  0  0  0  0  0
   10.3672   -2.3746    0.0000 H   0  0  0  0  0  0  0  0  0  0  0  0
   11.0486   -1.8228    0.0000 H   0  0  0  0  0  0  0  0  0  0  0  0
   10.4968   -1.1414    0.0000 H   0  0  0  0  0  0  0  0  0  0  0  0
    8.3481   -2.0981    0.0000 H   0  0  0  0  0  0  0  0  0  0  0  0
    8.4852   -2.9641    0.0000 H   0  0  0  0  0  0  0  0  0  0  0  0
    9.3512   -2.8269    0.0000 H   0  0  0  0  0  0  0  0  0  0  0  0
    1.9352   -1.1414    0.0000 H   0  0  0  0  0  0  0  0  0  0  0  0
    1.3834   -1.8228    0.0000 H   0  0  0  0  0  0  0  0  0  0  0  0
    2.0648   -2.3746    0.0000 H   0  0  0  0  0  0  0  0  0  0  0  0
    3.0807   -2.8269    0.0000 H   0  0  0  0  0  0  0  0  0  0  0  0
    3.9467   -2.9641    0.0000 H   0  0  0  0  0  0  0  0  0  0  0  0
    4.0839   -2.0981    0.0000 H   0  0  0  0  0  0  0  0  0  0  0  0
    7.6190    2.2725    0.0000 H   0  0  0  0  0  0  0  0  0  0  0  0
    4.8130    2.2725    0.0000 H   0  0  0  0  0  0  0  0  0  0  0  0
    6.2160    3.0825    0.0000 H   0  0  0  0  0  0  0  0  0  0  0  0
  1 10  1  0  0  0  0
  1 16  1  0  0  0  0
  2 11  1  0  0  0  0
  2 17  1  0  0  0  0
  3  6  1  0  0  0  0
  3 16  2  0  0  0  0
  4  7  1  0  0  0  0
  4 17  2  0  0  0  0
  5 18  2  0  0  0  0
  5 19  1  0  0  0  0
  6  8  1  0  0  0  0
  6 10  1  0  0  0  0
  6 23  1  0  0  0  0
  7  9  1  0  0  0  0
  7 11  1  0  0  0  0
  7 24  1  0  0  0  0
  8 12  1  0  0  0  0
  8 13  1  0  0  0  0
  8 25  1  0  0  0  0
  9 14  1  0  0  0  0
  9 15  1  0  0  0  0
  9 26  1  0  0  0  0
 10 27  1  0  0  0  0
 10 28  1  0  0  0  0
 11 29  1  0  0  0  0
 11 30  1  0  0  0  0
 12 31  1  0  0  0  0
 12 32  1  0  0  0  0
 12 33  1  0  0  0  0
 13 34  1  0  0  0  0
 13 35  1  0  0  0  0
 13 36  1  0  0  0  0
 14 37  1  0  0  0  0
 14 38  1  0  0  0  0
 14 39  1  0  0  0  0
 15 40  1  0  0  0  0
 15 41  1  0  0  0  0
 15 42  1  0  0  0  0
 16 18  1  0  0  0  0
 17 19  1  0  0  0  0
 18 20  1  0  0  0  0
 19 21  2  0  0  0  0
 20 22  2  0  0  0  0
 20 43  1  0  0  0  0
 21 22  1  0  0  0  0
 21 44  1  0  0  0  0
 22 45  1  0  0  0  0
M  END
> <PUBCHEM_COMPOUND_CID>
500120
> <PUBCHEM_COMPOUND_CANONICALIZED>
1
> <PUBCHEM_CACTVS_COMPLEXITY>
419
> <PUBCHEM_CACTVS_HBOND_ACCEPTOR>
5
> <PUBCHEM_CACTVS_HBOND_DONOR>
0
> <PUBCHEM_CACTVS_ROTATABLE_BOND>
4
> <PUBCHEM_CACTVS_SUBSKEYS>
AAADceB7MAAAAAAAAAAAAAAAAAAAAQIAAAAsAAAAAAAAAAABgAAAHgAAAAAADSjhlgYygJIIFACgASRiRASCgCAhAiAImCAwbJgKJuLAsZmHMAhkwAHY6AeQwCAIAAAAAAAAAAAAAAAAAAAAAAAAAAAAAA==
> <PUBCHEM_IUPAC_OPENEYE_NAME>
4-isopropyl-2-[6-(4-isopropyl-4,5-dihydrooxazol-2-yl)-2-pyridyl]-4,5-dihydrooxazole
> <PUBCHEM_IUPAC_CAS_NAME>
4-propan-2-yl-2-[6-(4-propan-2-yl-4,5-dihydrooxazol-2-yl)-2-pyridinyl]-4,5-dihydrooxazole
> <PUBCHEM_IUPAC_NAME_MARKUP>
4-propan-2-yl-2-[6-(4-propan-2-yl-4,5-dihydro-1,3-oxazol-2-yl)pyridin-2-yl]-4,5-dihydro-1,3-oxazole
> <PUBCHEM_IUPAC_NAME>
4-propan-2-yl-2-[6-(4-propan-2-yl-4,5-dihydro-1,3-oxazol-2-yl)pyridin-2-yl]-4,5-dihydro-1,3-oxazole
> <PUBCHEM_IUPAC_SYSTEMATIC_NAME>
4-propan-2-yl-2-[6-(4-propan-2-yl-4,5-dihydro-1,3-oxazol-2-yl)pyridin-2-yl]-4,5-dihydro-1,3-oxazole
> <PUBCHEM_IUPAC_TRADITIONAL_NAME>
4-isopropyl-2-[6-(4-isopropyl-2-oxazolin-2-yl)-2-pyridyl]-2-oxazoline
> <PUBCHEM_IUPAC_INCHI>
InChI=1S/C17H23N3O2/c1-10(2)14-8-21-16(19-14)12-6-5-7-13(18-12)17-20-15(9-22-17)11(3)4/h5-7,10-11,14-15H,8-9H2,1-4H3
> <PUBCHEM_IUPAC_INCHIKEY>
CSGQGLBCAHGJDR-UHFFFAOYSA-N
> <PUBCHEM_XLOGP3_AA>
3.3
> <PUBCHEM_EXACT_MASS>
301.17902698
> <PUBCHEM_MOLECULAR_FORMULA>
C17H23N3O2
> <PUBCHEM_MOLECULAR_WEIGHT>
301.4
> <PUBCHEM_OPENEYE_CAN_SMILES>
CC(C)C1COC(=N1)C2=NC(=CC=C2)C3=NC(CO3)C(C)C
> <PUBCHEM_OPENEYE_ISO_SMILES>
CC(C)C1COC(=N1)C2=NC(=CC=C2)C3=NC(CO3)C(C)C
> <PUBCHEM_CACTVS_TPSA>
56.1
> <PUBCHEM_MONOISOTOPIC_WEIGHT>
301.17902698
> <PUBCHEM_TOTAL_CHARGE>
0
> <PUBCHEM_HEAVY_ATOM_COUNT>
22
> <PUBCHEM_ATOM_DEF_STEREO_COUNT>
0
> <PUBCHEM_ATOM_UDEF_STEREO_COUNT>
2
> <PUBCHEM_BOND_DEF_STEREO_COUNT>
0
> <PUBCHEM_BOND_UDEF_STEREO_COUNT>
0
> <PUBCHEM_ISOTOPIC_ATOM_COUNT>
0
> <PUBCHEM_COMPONENT_COUNT>
1
> <PUBCHEM_CACTVS_TAUTO_COUNT>
-1
> <PUBCHEM_COORDINATE_TYPE>
1
5
255
> <PUBCHEM_BONDANNOTATIONS>
18  20  8
19  21  8
20  22  8
21  22  8
5  18  8
5  19  8
6  8  3
7  9  3
$$$$
