500107
  -OEChem-10302200282D
 57 60  0     1  0  0  0  0  0999 V2000
    5.2597    1.3752    0.0000 O   0  0  0  0  0  0  0  0  0  0  0  0
    5.2597    2.3752    0.0000 O   0  0  0  0  0  0  0  0  0  0  0  0
    3.4966   -3.5111    0.0000 O   0  0  0  0  0  0  0  0  0  0  0  0
    2.0000   -2.6393    0.0000 O   0  0  0  0  0  0  0  0  0  0  0  0
    4.4097   -0.1663    0.0000 C   0  0  3  0  0  0  0  0  0  0  0  0
    4.3937    0.8752    0.0000 C   0  0  3  0  0  0  0  0  0  0  0  0
    3.5117   -0.6941    0.0000 C   0  0  3  0  0  0  0  0  0  0  0  0
    3.5033   -1.7790    0.0000 C   0  0  3  0  0  0  0  0  0  0  0  0
    5.3617   -0.6870    0.0000 C   0  0  0  0  0  0  0  0  0  0  0  0
    3.5276    1.3752    0.0000 C   0  0  0  0  0  0  0  0  0  0  0  0
    2.6096   -0.1733    0.0000 C   0  0  0  0  0  0  0  0  0  0  0  0
    3.9937    1.4752    0.0000 C   0  0  0  0  0  0  0  0  0  0  0  0
    2.6176    0.8683    0.0000 C   0  0  0  0  0  0  0  0  0  0  0  0
    4.3937    2.8752    0.0000 C   0  0  3  0  0  0  0  0  0  0  0  0
    4.4430   -2.3215    0.0000 C   0  0  0  0  0  0  0  0  0  0  0  0
    5.3784   -1.7718    0.0000 C   0  0  0  0  0  0  0  0  0  0  0  0
    5.2719    0.3403    0.0000 C   0  0  0  0  0  0  0  0  0  0  0  0
    3.9937    2.2752    0.0000 C   0  0  0  0  0  0  0  0  0  0  0  0
    3.5276    2.3752    0.0000 C   0  0  0  0  0  0  0  0  0  0  0  0
    2.5033   -1.7752    0.0000 C   0  0  0  0  0  0  0  0  0  0  0  0
    4.3937    3.8752    0.0000 C   0  0  0  0  0  0  0  0  0  0  0  0
    3.0000   -2.6431    0.0000 C   0  0  0  0  0  0  0  0  0  0  0  0
    5.2597    4.3752    0.0000 C   0  0  0  0  0  0  0  0  0  0  0  0
    3.5276    4.3752    0.0000 C   0  0  0  0  0  0  0  0  0  0  0  0
    2.9933   -4.3752    0.0000 C   0  0  0  0  0  0  0  0  0  0  0  0
    2.9736   -1.0020    0.0000 H   0  0  0  0  0  0  0  0  0  0  0  0
    5.9741   -0.7836    0.0000 H   0  0  0  0  0  0  0  0  0  0  0  0
    5.5617   -0.1001    0.0000 H   0  0  0  0  0  0  0  0  0  0  0  0
    1.9996   -0.0625    0.0000 H   0  0  0  0  0  0  0  0  0  0  0  0
    2.3961   -0.7553    0.0000 H   0  0  0  0  0  0  0  0  0  0  0  0
    3.4066    1.6747    0.0000 H   0  0  0  0  0  0  0  0  0  0  0  0
    4.5871    1.6548    0.0000 H   0  0  0  0  0  0  0  0  0  0  0  0
    2.4131    1.4536    0.0000 H   0  0  0  0  0  0  0  0  0  0  0  0
    2.0060    0.7670    0.0000 H   0  0  0  0  0  0  0  0  0  0  0  0
    4.0456   -2.7975    0.0000 H   0  0  0  0  0  0  0  0  0  0  0  0
    4.8439   -2.7944    0.0000 H   0  0  0  0  0  0  0  0  0  0  0  0
    5.5964   -2.3522    0.0000 H   0  0  0  0  0  0  0  0  0  0  0  0
    5.9875   -1.6563    0.0000 H   0  0  0  0  0  0  0  0  0  0  0  0
    5.5860   -0.1942    0.0000 H   0  0  0  0  0  0  0  0  0  0  0  0
    5.8064    0.6545    0.0000 H   0  0  0  0  0  0  0  0  0  0  0  0
    4.9577    0.8749    0.0000 H   0  0  0  0  0  0  0  0  0  0  0  0
    3.6159    2.7668    0.0000 H   0  0  0  0  0  0  0  0  0  0  0  0
    4.5871    2.0955    0.0000 H   0  0  0  0  0  0  0  0  0  0  0  0
    2.9907    2.6852    0.0000 H   0  0  0  0  0  0  0  0  0  0  0  0
    2.5057   -1.1552    0.0000 H   0  0  0  0  0  0  0  0  0  0  0  0
    1.8833   -1.7728    0.0000 H   0  0  0  0  0  0  0  0  0  0  0  0
    2.5009   -2.3952    0.0000 H   0  0  0  0  0  0  0  0  0  0  0  0
    4.3937    4.4952    0.0000 H   0  0  0  0  0  0  0  0  0  0  0  0
    5.5697    3.8382    0.0000 H   0  0  0  0  0  0  0  0  0  0  0  0
    5.7966    4.6852    0.0000 H   0  0  0  0  0  0  0  0  0  0  0  0
    4.9497    4.9121    0.0000 H   0  0  0  0  0  0  0  0  0  0  0  0
    3.8376    4.9121    0.0000 H   0  0  0  0  0  0  0  0  0  0  0  0
    2.9907    4.6852    0.0000 H   0  0  0  0  0  0  0  0  0  0  0  0
    3.2176    3.8382    0.0000 H   0  0  0  0  0  0  0  0  0  0  0  0
    2.4576   -4.0631    0.0000 H   0  0  0  0  0  0  0  0  0  0  0  0
    2.6812   -4.9109    0.0000 H   0  0  0  0  0  0  0  0  0  0  0  0
    3.5290   -4.6872    0.0000 H   0  0  0  0  0  0  0  0  0  0  0  0
  1  2  1  0  0  0  0
  1  6  1  0  0  0  0
  2 14  1  0  0  0  0
  3 22  1  0  0  0  0
  3 25  1  0  0  0  0
  4 22  2  0  0  0  0
  5  6  1  0  0  0  0
  5  7  1  0  0  0  0
  5  9  1  0  0  0  0
  5 17  1  0  0  0  0
  6 10  1  0  0  0  0
  6 12  1  0  0  0  0
  7  8  1  0  0  0  0
  7 11  1  0  0  0  0
  7 26  1  0  0  0  0
  8 15  1  0  0  0  0
  8 20  1  0  0  0  0
  8 22  1  0  0  0  0
  9 16  1  0  0  0  0
  9 27  1  0  0  0  0
  9 28  1  0  0  0  0
 10 13  1  0  0  0  0
 10 19  2  0  0  0  0
 11 13  1  0  0  0  0
 11 29  1  0  0  0  0
 11 30  1  0  0  0  0
 12 18  1  0  0  0  0
 12 31  1  0  0  0  0
 12 32  1  0  0  0  0
 13 33  1  0  0  0  0
 13 34  1  0  0  0  0
 14 18  1  0  0  0  0
 14 19  1  0  0  0  0
 14 21  1  0  0  0  0
 15 16  1  0  0  0  0
 15 35  1  0  0  0  0
 15 36  1  0  0  0  0
 16 37  1  0  0  0  0
 16 38  1  0  0  0  0
 17 39  1  0  0  0  0
 17 40  1  0  0  0  0
 17 41  1  0  0  0  0
 18 42  1  0  0  0  0
 18 43  1  0  0  0  0
 19 44  1  0  0  0  0
 20 45  1  0  0  0  0
 20 46  1  0  0  0  0
 20 47  1  0  0  0  0
 21 23  1  0  0  0  0
 21 24  1  0  0  0  0
 21 48  1  0  0  0  0
 23 49  1  0  0  0  0
 23 50  1  0  0  0  0
 23 51  1  0  0  0  0
 24 52  1  0  0  0  0
 24 53  1  0  0  0  0
 24 54  1  0  0  0  0
 25 55  1  0  0  0  0
 25 56  1  0  0  0  0
 25 57  1  0  0  0  0
M  END
> <PUBCHEM_COMPOUND_CID>
500107
> <PUBCHEM_COMPOUND_CANONICALIZED>
1
> <PUBCHEM_CACTVS_COMPLEXITY>
625
> <PUBCHEM_CACTVS_HBOND_ACCEPTOR>
4
> <PUBCHEM_CACTVS_HBOND_DONOR>
0
> <PUBCHEM_CACTVS_ROTATABLE_BOND>
3
> <PUBCHEM_CACTVS_SUBSKEYS>
AAADcfB4OAAAAAAAAAAAAAAAAAAAAAAAAAA0YIECAAAAAADAAAAAGgAABAAAD0SAgAICCAAABACIAiDSCAAAAAAgAAAACAEAAAgABBIAAQAAEAAEgAAIAAPI7PzPgAAAAAAAAAAAAAYAADAAAAAAAAAAAA==
> <PUBCHEM_IUPAC_OPENEYE_NAME>
methyl 12-isopropyl-2,6-dimethyl-13,14-dioxatetracyclo[10.2.2.01,10.02,7]hexadec-10-ene-6-carboxylate
> <PUBCHEM_IUPAC_CAS_NAME>
2,6-dimethyl-12-propan-2-yl-13,14-dioxatetracyclo[10.2.2.01,10.02,7]hexadec-10-ene-6-carboxylic acid methyl ester
> <PUBCHEM_IUPAC_NAME_MARKUP>
methyl 2,6-dimethyl-12-propan-2-yl-13,14-dioxatetracyclo[10.2.2.0<SUP>1,10</SUP>.0<SUP>2,7</SUP>]hexadec-10-ene-6-carboxylate
> <PUBCHEM_IUPAC_NAME>
methyl 2,6-dimethyl-12-propan-2-yl-13,14-dioxatetracyclo[10.2.2.01,10.02,7]hexadec-10-ene-6-carboxylate
> <PUBCHEM_IUPAC_SYSTEMATIC_NAME>
methyl 2,6-dimethyl-12-propan-2-yl-13,14-dioxatetracyclo[10.2.2.01,10.02,7]hexadec-10-ene-6-carboxylate
> <PUBCHEM_IUPAC_TRADITIONAL_NAME>
12-isopropyl-2,6-dimethyl-13,14-dioxatetracyclo[10.2.2.01,10.02,7]hexadec-10-ene-6-carboxylic acid methyl ester
> <PUBCHEM_IUPAC_INCHI>
InChI=1S/C21H32O4/c1-14(2)20-11-12-21(25-24-20)15(13-20)7-8-16-18(3,17(22)23-5)9-6-10-19(16,21)4/h13-14,16H,6-12H2,1-5H3
> <PUBCHEM_IUPAC_INCHIKEY>
DGDPHTZXZIFFEV-UHFFFAOYSA-N
> <PUBCHEM_XLOGP3_AA>
4.2
> <PUBCHEM_EXACT_MASS>
348.23005950
> <PUBCHEM_MOLECULAR_FORMULA>
C21H32O4
> <PUBCHEM_MOLECULAR_WEIGHT>
348.5
> <PUBCHEM_OPENEYE_CAN_SMILES>
CC(C)C12CCC3(C(=C1)CCC4C3(CCCC4(C)C(=O)OC)C)OO2
> <PUBCHEM_OPENEYE_ISO_SMILES>
CC(C)C12CCC3(C(=C1)CCC4C3(CCCC4(C)C(=O)OC)C)OO2
> <PUBCHEM_CACTVS_TPSA>
44.8
> <PUBCHEM_MONOISOTOPIC_WEIGHT>
348.23005950
> <PUBCHEM_TOTAL_CHARGE>
0
> <PUBCHEM_HEAVY_ATOM_COUNT>
25
> <PUBCHEM_ATOM_DEF_STEREO_COUNT>
0
> <PUBCHEM_ATOM_UDEF_STEREO_COUNT>
5
> <PUBCHEM_BOND_DEF_STEREO_COUNT>
0
> <PUBCHEM_BOND_UDEF_STEREO_COUNT>
0
> <PUBCHEM_ISOTOPIC_ATOM_COUNT>
0
> <PUBCHEM_COMPONENT_COUNT>
1
> <PUBCHEM_CACTVS_TAUTO_COUNT>
-1
> <PUBCHEM_COORDINATE_TYPE>
1
5
255
> <PUBCHEM_BONDANNOTATIONS>
14  18  3
5  17  3
6  12  3
7  11  3
8  20  3
$$$$
