500192
  -OEChem-10302200282D
 93 98  0     1  0  0  0  0  0999 V2000
    4.7742    4.9593    0.0000 O   0  0  0  0  0  0  0  0  0  0  0  0
    5.1742    6.5593    0.0000 O   0  0  0  0  0  0  0  0  0  0  0  0
    3.9118   -3.4556    0.0000 O   0  0  0  0  0  0  0  0  0  0  0  0
    2.5345   -1.3534    0.0000 O   0  0  0  0  0  0  0  0  0  0  0  0
    2.7675   -2.6177    0.0000 O   0  0  0  0  0  0  0  0  0  0  0  0
    5.5372   -4.0542    0.0000 O   0  0  0  0  0  0  0  0  0  0  0  0
    5.1742    3.5593    0.0000 C   0  0  3  0  0  0  0  0  0  0  0  0
    4.2922    1.9901    0.0000 C   0  0  3  0  0  0  0  0  0  0  0  0
    5.1902    2.5178    0.0000 C   0  0  3  0  0  0  0  0  0  0  0  0
    4.3082    4.0593    0.0000 C   0  0  3  0  0  0  0  0  0  0  0  0
    4.2838    0.9051    0.0000 C   0  0  3  0  0  0  0  0  0  0  0  0
    4.3082    5.0593    0.0000 C   0  0  0  0  0  0  0  0  0  0  0  0
    3.3901    2.5109    0.0000 C   0  0  0  0  0  0  0  0  0  0  0  0
    3.3982    3.5525    0.0000 C   0  0  0  0  0  0  0  0  0  0  0  0
    6.0402    4.0593    0.0000 C   0  0  0  0  0  0  0  0  0  0  0  0
    5.1742    5.5593    0.0000 C   0  0  3  0  0  0  0  0  0  0  0  0
    4.7742    4.1593    0.0000 C   0  0  0  0  0  0  0  0  0  0  0  0
    5.2235    0.3626    0.0000 C   0  0  0  0  0  0  0  0  0  0  0  0
    6.1422    1.9972    0.0000 C   0  0  0  0  0  0  0  0  0  0  0  0
    6.0402    5.0593    0.0000 C   0  0  0  0  0  0  0  0  0  0  0  0
    5.2409   -0.7674    0.0000 C   0  0  3  0  0  0  0  0  0  0  0  0
    3.2965    0.3552    0.0000 C   0  0  0  0  0  0  0  0  0  0  0  0
    4.2665   -1.3400    0.0000 C   0  0  3  0  0  0  0  0  0  0  0  0
    3.3088    1.8089    0.0000 C   0  0  0  0  0  0  0  0  0  0  0  0
    6.1589    0.9123    0.0000 C   0  0  0  0  0  0  0  0  0  0  0  0
    3.2878   -0.7749    0.0000 C   0  0  0  0  0  0  0  0  0  0  0  0
    3.2990    1.0788    0.0000 C   0  0  0  0  0  0  0  0  0  0  0  0
    3.8082    5.9254    0.0000 C   0  0  0  0  0  0  0  0  0  0  0  0
    3.3082    5.0593    0.0000 C   0  0  0  0  0  0  0  0  0  0  0  0
    6.2737   -1.3323    0.0000 C   0  0  0  0  0  0  0  0  0  0  0  0
    4.2575   -2.5172    0.0000 C   0  0  3  0  0  0  0  0  0  0  0  0
    6.2919   -2.5094    0.0000 C   0  0  0  0  0  0  0  0  0  0  0  0
    5.2770   -3.1058    0.0000 C   0  0  0  0  0  0  0  0  0  0  0  0
    3.4044   -1.8467    0.0000 C   0  0  0  0  0  0  0  0  0  0  0  0
    6.8019   -3.3696    0.0000 C   0  0  0  0  0  0  0  0  0  0  0  0
    7.2918   -2.4978    0.0000 C   0  0  0  0  0  0  0  0  0  0  0  0
    4.5517   -4.2241    0.0000 C   0  0  0  0  0  0  0  0  0  0  0  0
    4.2060   -5.1624    0.0000 C   0  0  0  0  0  0  0  0  0  0  0  0
    3.2205   -5.3323    0.0000 C   0  0  0  0  0  0  0  0  0  0  0  0
    4.8459   -5.9310    0.0000 C   0  0  0  0  0  0  0  0  0  0  0  0
    4.5002   -6.8693    0.0000 C   0  0  0  0  0  0  0  0  0  0  0  0
    5.7211    2.8381    0.0000 H   0  0  0  0  0  0  0  0  0  0  0  0
    3.7736    4.3735    0.0000 H   0  0  0  0  0  0  0  0  0  0  0  0
    2.7801    2.6217    0.0000 H   0  0  0  0  0  0  0  0  0  0  0  0
    3.1766    1.9288    0.0000 H   0  0  0  0  0  0  0  0  0  0  0  0
    3.1936    4.1378    0.0000 H   0  0  0  0  0  0  0  0  0  0  0  0
    2.7865    3.4511    0.0000 H   0  0  0  0  0  0  0  0  0  0  0  0
    6.2523    3.4767    0.0000 H   0  0  0  0  0  0  0  0  0  0  0  0
    6.6508    4.1670    0.0000 H   0  0  0  0  0  0  0  0  0  0  0  0
    4.1872    4.3588    0.0000 H   0  0  0  0  0  0  0  0  0  0  0  0
    5.3676    4.3390    0.0000 H   0  0  0  0  0  0  0  0  0  0  0  0
    6.7546    1.9005    0.0000 H   0  0  0  0  0  0  0  0  0  0  0  0
    6.3422    2.5840    0.0000 H   0  0  0  0  0  0  0  0  0  0  0  0
    6.6508    4.9517    0.0000 H   0  0  0  0  0  0  0  0  0  0  0  0
    6.2523    5.6419    0.0000 H   0  0  0  0  0  0  0  0  0  0  0  0
    5.7718   -0.4471    0.0000 H   0  0  0  0  0  0  0  0  0  0  0  0
    3.0919    0.9405    0.0000 H   0  0  0  0  0  0  0  0  0  0  0  0
    2.6848    0.2538    0.0000 H   0  0  0  0  0  0  0  0  0  0  0  0
    3.1964    2.4186    0.0000 H   0  0  0  0  0  0  0  0  0  0  0  0
    2.6990    1.6965    0.0000 H   0  0  0  0  0  0  0  0  0  0  0  0
    3.4211    1.1991    0.0000 H   0  0  0  0  0  0  0  0  0  0  0  0
    6.6994    0.6086    0.0000 H   0  0  0  0  0  0  0  0  0  0  0  0
    2.6778   -0.6641    0.0000 H   0  0  0  0  0  0  0  0  0  0  0  0
    3.0742   -1.3570    0.0000 H   0  0  0  0  0  0  0  0  0  0  0  0
    3.4067    1.6893    0.0000 H   0  0  0  0  0  0  0  0  0  0  0  0
    2.6884    1.1864    0.0000 H   0  0  0  0  0  0  0  0  0  0  0  0
    3.1914    0.4682    0.0000 H   0  0  0  0  0  0  0  0  0  0  0  0
    4.3451    6.2354    0.0000 H   0  0  0  0  0  0  0  0  0  0  0  0
    3.4982    6.4623    0.0000 H   0  0  0  0  0  0  0  0  0  0  0  0
    3.2712    5.6154    0.0000 H   0  0  0  0  0  0  0  0  0  0  0  0
    3.3082    5.6793    0.0000 H   0  0  0  0  0  0  0  0  0  0  0  0
    2.6881    5.0593    0.0000 H   0  0  0  0  0  0  0  0  0  0  0  0
    3.3082    4.4393    0.0000 H   0  0  0  0  0  0  0  0  0  0  0  0
    6.8862   -1.4290    0.0000 H   0  0  0  0  0  0  0  0  0  0  0  0
    6.4738   -0.7454    0.0000 H   0  0  0  0  0  0  0  0  0  0  0  0
    3.6475   -2.4060    0.0000 H   0  0  0  0  0  0  0  0  0  0  0  0
    4.8796   -3.5818    0.0000 H   0  0  0  0  0  0  0  0  0  0  0  0
    5.6779   -3.5787    0.0000 H   0  0  0  0  0  0  0  0  0  0  0  0
    5.7111    6.8693    0.0000 H   0  0  0  0  0  0  0  0  0  0  0  0
    6.2686   -3.6857    0.0000 H   0  0  0  0  0  0  0  0  0  0  0  0
    7.1180   -3.9029    0.0000 H   0  0  0  0  0  0  0  0  0  0  0  0
    7.3352   -3.0534    0.0000 H   0  0  0  0  0  0  0  0  0  0  0  0
    7.2990   -3.1178    0.0000 H   0  0  0  0  0  0  0  0  0  0  0  0
    7.9118   -2.4906    0.0000 H   0  0  0  0  0  0  0  0  0  0  0  0
    7.2846   -1.8778    0.0000 H   0  0  0  0  0  0  0  0  0  0  0  0
    2.0000   -1.6675    0.0000 H   0  0  0  0  0  0  0  0  0  0  0  0
    3.1152   -4.7213    0.0000 H   0  0  0  0  0  0  0  0  0  0  0  0
    2.6095   -5.4376    0.0000 H   0  0  0  0  0  0  0  0  0  0  0  0
    3.3258   -5.9433    0.0000 H   0  0  0  0  0  0  0  0  0  0  0  0
    5.4569   -5.8257    0.0000 H   0  0  0  0  0  0  0  0  0  0  0  0
    3.9184   -6.6550    0.0000 H   0  0  0  0  0  0  0  0  0  0  0  0
    4.2859   -7.4511    0.0000 H   0  0  0  0  0  0  0  0  0  0  0  0
    5.0820   -7.0836    0.0000 H   0  0  0  0  0  0  0  0  0  0  0  0
  1 16  1  0  0  0  0
  1 17  1  0  0  0  0
  2 16  1  0  0  0  0
  2 79  1  0  0  0  0
  3 31  1  0  0  0  0
  3 37  1  0  0  0  0
  4 34  1  0  0  0  0
  4 86  1  0  0  0  0
  5 34  2  0  0  0  0
  6 37  2  0  0  0  0
  7  9  1  0  0  0  0
  7 10  1  0  0  0  0
  7 15  1  0  0  0  0
  7 17  1  0  0  0  0
  8  9  1  0  0  0  0
  8 11  1  0  0  0  0
  8 13  1  0  0  0  0
  8 24  1  0  0  0  0
  9 19  1  0  0  0  0
  9 42  1  0  0  0  0
 10 12  1  0  0  0  0
 10 14  1  0  0  0  0
 10 43  1  0  0  0  0
 11 18  1  0  0  0  0
 11 22  1  0  0  0  0
 11 27  1  0  0  0  0
 12 16  1  0  0  0  0
 12 28  1  0  0  0  0
 12 29  1  0  0  0  0
 13 14  1  0  0  0  0
 13 44  1  0  0  0  0
 13 45  1  0  0  0  0
 14 46  1  0  0  0  0
 14 47  1  0  0  0  0
 15 20  1  0  0  0  0
 15 48  1  0  0  0  0
 15 49  1  0  0  0  0
 16 20  1  0  0  0  0
 17 50  1  0  0  0  0
 17 51  1  0  0  0  0
 18 21  1  0  0  0  0
 18 25  2  0  0  0  0
 19 25  1  0  0  0  0
 19 52  1  0  0  0  0
 19 53  1  0  0  0  0
 20 54  1  0  0  0  0
 20 55  1  0  0  0  0
 21 23  1  0  0  0  0
 21 30  1  0  0  0  0
 21 56  1  0  0  0  0
 22 26  1  0  0  0  0
 22 57  1  0  0  0  0
 22 58  1  0  0  0  0
 23 26  1  0  0  0  0
 23 31  1  0  0  0  0
 23 34  1  0  0  0  0
 24 59  1  0  0  0  0
 24 60  1  0  0  0  0
 24 61  1  0  0  0  0
 25 62  1  0  0  0  0
 26 63  1  0  0  0  0
 26 64  1  0  0  0  0
 27 65  1  0  0  0  0
 27 66  1  0  0  0  0
 27 67  1  0  0  0  0
 28 68  1  0  0  0  0
 28 69  1  0  0  0  0
 28 70  1  0  0  0  0
 29 71  1  0  0  0  0
 29 72  1  0  0  0  0
 29 73  1  0  0  0  0
 30 32  1  0  0  0  0
 30 74  1  0  0  0  0
 30 75  1  0  0  0  0
 31 33  1  0  0  0  0
 31 76  1  0  0  0  0
 32 33  1  0  0  0  0
 32 35  1  0  0  0  0
 32 36  1  0  0  0  0
 33 77  1  0  0  0  0
 33 78  1  0  0  0  0
 35 80  1  0  0  0  0
 35 81  1  0  0  0  0
 35 82  1  0  0  0  0
 36 83  1  0  0  0  0
 36 84  1  0  0  0  0
 36 85  1  0  0  0  0
 37 38  1  0  0  0  0
 38 39  1  0  0  0  0
 38 40  2  3  0  0  0
 39 87  1  0  0  0  0
 39 88  1  0  0  0  0
 39 89  1  0  0  0  0
 40 41  1  0  0  0  0
 40 90  1  0  0  0  0
 41 91  1  0  0  0  0
 41 92  1  0  0  0  0
 41 93  1  0  0  0  0
M  END
> <PUBCHEM_COMPOUND_CID>
500192
> <PUBCHEM_COMPOUND_CANONICALIZED>
1
> <PUBCHEM_CACTVS_COMPLEXITY>
1230
> <PUBCHEM_CACTVS_HBOND_ACCEPTOR>
6
> <PUBCHEM_CACTVS_HBOND_DONOR>
2
> <PUBCHEM_CACTVS_ROTATABLE_BOND>
4
> <PUBCHEM_CACTVS_SUBSKEYS>
AAADcfB8OAAAAAAAAAAAAAAAAAAAAAAAAAA0aMGCAAAAAADQAAAAGgAACAAADxSggAICCAAABgCIAiDSCAAAAAAgAAAACAEAAEgQBBYAIQACUAAFoAAMIYOI6PSPgAAAAAAAAADAAAYAADAAAAAAAAAAAA==
> <PUBCHEM_IUPAC_OPENEYE_NAME>
20-hydroxy-8,8,14,15,19,19-hexamethyl-10-(2-methylbut-2-enoyloxy)-21-oxahexacyclo[18.2.2.01,18.02,15.05,14.06,11]tetracos-4-ene-11-carboxylic acid
> <PUBCHEM_IUPAC_CAS_NAME>
20-hydroxy-8,8,14,15,19,19-hexamethyl-10-(2-methyl-1-oxobut-2-enoxy)-21-oxahexacyclo[18.2.2.01,18.02,15.05,14.06,11]tetracos-4-ene-11-carboxylic acid
> <PUBCHEM_IUPAC_NAME_MARKUP>
20-hydroxy-8,8,14,15,19,19-hexamethyl-10-(2-methylbut-2-enoyloxy)-21-oxahexacyclo[18.2.2.0<SUP>1,18</SUP>.0<SUP>2,15</SUP>.0<SUP>5,14</SUP>.0<SUP>6,11</SUP>]tetracos-4-ene-11-carboxylic acid
> <PUBCHEM_IUPAC_NAME>
20-hydroxy-8,8,14,15,19,19-hexamethyl-10-(2-methylbut-2-enoyloxy)-21-oxahexacyclo[18.2.2.01,18.02,15.05,14.06,11]tetracos-4-ene-11-carboxylic acid
> <PUBCHEM_IUPAC_SYSTEMATIC_NAME>
8,8,14,15,19,19-hexamethyl-10-(2-methylbut-2-enoyloxy)-20-oxidanyl-21-oxahexacyclo[18.2.2.01,18.02,15.05,14.06,11]tetracos-4-ene-11-carboxylic acid
> <PUBCHEM_IUPAC_TRADITIONAL_NAME>
20-hydroxy-8,8,14,15,19,19-hexamethyl-10-(2-methylbut-2-enoyloxy)-21-oxahexacyclo[18.2.2.01,18.02,15.05,14.06,11]tetracos-4-ene-11-carboxylic acid
> <PUBCHEM_IUPAC_INCHI>
InChI=1S/C35H52O6/c1-9-21(2)27(36)41-26-19-29(3,4)18-23-22-10-11-25-32(8,31(22,7)14-16-34(23,26)28(37)38)13-12-24-30(5,6)35(39)17-15-33(24,25)20-40-35/h9-10,23-26,39H,11-20H2,1-8H3,(H,37,38)
> <PUBCHEM_IUPAC_INCHIKEY>
RSKOPEQHBSFOLQ-UHFFFAOYSA-N
> <PUBCHEM_XLOGP3_AA>
7.1
> <PUBCHEM_EXACT_MASS>
568.37638937
> <PUBCHEM_MOLECULAR_FORMULA>
C35H52O6
> <PUBCHEM_MOLECULAR_WEIGHT>
568.8
> <PUBCHEM_OPENEYE_CAN_SMILES>
CC=C(C)C(=O)OC1CC(CC2C1(CCC3(C2=CCC4C3(CCC5C46CCC(C5(C)C)(OC6)O)C)C)C(=O)O)(C)C
> <PUBCHEM_OPENEYE_ISO_SMILES>
CC=C(C)C(=O)OC1CC(CC2C1(CCC3(C2=CCC4C3(CCC5C46CCC(C5(C)C)(OC6)O)C)C)C(=O)O)(C)C
> <PUBCHEM_CACTVS_TPSA>
93.1
> <PUBCHEM_MONOISOTOPIC_WEIGHT>
568.37638937
> <PUBCHEM_TOTAL_CHARGE>
0
> <PUBCHEM_HEAVY_ATOM_COUNT>
41
> <PUBCHEM_ATOM_DEF_STEREO_COUNT>
0
> <PUBCHEM_ATOM_UDEF_STEREO_COUNT>
9
> <PUBCHEM_BOND_DEF_STEREO_COUNT>
0
> <PUBCHEM_BOND_UDEF_STEREO_COUNT>
1
> <PUBCHEM_ISOTOPIC_ATOM_COUNT>
0
> <PUBCHEM_COMPONENT_COUNT>
1
> <PUBCHEM_CACTVS_TAUTO_COUNT>
-1
> <PUBCHEM_COORDINATE_TYPE>
1
5
255
> <PUBCHEM_BONDANNOTATIONS>
10  14  3
11  27  3
16  2  3
21  30  3
23  34  3
31  3  3
38  40  1
7  15  3
8  24  3
9  19  3
$$$$
