500109
  -OEChem-10302200282D
 36 37  0     1  0  0  0  0  0999 V2000
    3.2320    3.2475    0.0000 I   0  0  0  0  0  0  0  0  0  0  0  0
    5.6859   -2.4664    0.0000 F   0  0  0  0  0  0  0  0  0  0  0  0
    3.7891   -0.7063    0.0000 O   0  0  0  0  0  0  0  0  0  0  0  0
    2.8660    0.8815    0.0000 O   0  0  0  0  0  0  0  0  0  0  0  0
    3.9170   -3.3799    0.0000 O   0  0  0  0  0  0  0  0  0  0  0  0
    6.3301    0.8815    0.0000 O   0  0  0  0  0  0  0  0  0  0  0  0
    4.5981    3.8815    0.0000 O   0  0  0  0  0  0  0  0  0  0  0  0
    4.5981    0.8815    0.0000 N   0  0  0  0  0  0  0  0  0  0  0  0
    5.4641    2.3815    0.0000 N   0  0  0  0  0  0  0  0  0  0  0  0
    4.5981   -0.1185    0.0000 C   0  0  2  0  0  0  0  0  0  0  0  0
    5.4071   -0.7063    0.0000 C   0  0  0  0  0  0  0  0  0  0  0  0
    5.0981   -1.6573    0.0000 C   0  0  2  0  0  0  0  0  0  0  0  0
    4.0981   -1.6573    0.0000 C   0  0  2  0  0  0  0  0  0  0  0  0
    3.7320    1.3815    0.0000 C   0  0  3  0  0  0  0  0  0  0  0  0
    3.7320    2.3815    0.0000 C   0  0  3  0  0  0  0  0  0  0  0  0
    5.4641    1.3815    0.0000 C   0  0  0  0  0  0  0  0  0  0  0  0
    3.5103   -2.4664    0.0000 C   0  0  0  0  0  0  0  0  0  0  0  0
    4.5981    2.8815    0.0000 C   0  0  0  0  0  0  0  0  0  0  0  0
    2.7320    2.3815    0.0000 C   0  0  0  0  0  0  0  0  0  0  0  0
    2.0000    1.3815    0.0000 C   0  0  0  0  0  0  0  0  0  0  0  0
    5.1505    0.1630    0.0000 H   0  0  0  0  0  0  0  0  0  0  0  0
    5.9735   -0.9585    0.0000 H   0  0  0  0  0  0  0  0  0  0  0  0
    5.7171   -0.1694    0.0000 H   0  0  0  0  0  0  0  0  0  0  0  0
    5.7104   -1.5603    0.0000 H   0  0  0  0  0  0  0  0  0  0  0  0
    3.4857   -1.5603    0.0000 H   0  0  0  0  0  0  0  0  0  0  0  0
    3.7320    0.7615    0.0000 H   0  0  0  0  0  0  0  0  0  0  0  0
    3.0796   -2.0204    0.0000 H   0  0  0  0  0  0  0  0  0  0  0  0
    2.9963   -2.8131    0.0000 H   0  0  0  0  0  0  0  0  0  0  0  0
    2.7320    3.0015    0.0000 H   0  0  0  0  0  0  0  0  0  0  0  0
    2.1120    2.3815    0.0000 H   0  0  0  0  0  0  0  0  0  0  0  0
    2.7320    1.7615    0.0000 H   0  0  0  0  0  0  0  0  0  0  0  0
    6.0010    2.6915    0.0000 H   0  0  0  0  0  0  0  0  0  0  0  0
    2.3100    1.9184    0.0000 H   0  0  0  0  0  0  0  0  0  0  0  0
    1.4631    1.6915    0.0000 H   0  0  0  0  0  0  0  0  0  0  0  0
    1.6900    0.8446    0.0000 H   0  0  0  0  0  0  0  0  0  0  0  0
    3.5526   -3.8815    0.0000 H   0  0  0  0  0  0  0  0  0  0  0  0
  1 15  1  0  0  0  0
 12  2  1  1  0  0  0
  3 10  1  0  0  0  0
  3 13  1  0  0  0  0
  4 14  1  0  0  0  0
  4 20  1  0  0  0  0
  5 17  1  0  0  0  0
  5 36  1  0  0  0  0
  6 16  2  0  0  0  0
  7 18  2  0  0  0  0
 10  8  1  6  0  0  0
  8 14  1  0  0  0  0
  8 16  1  0  0  0  0
  9 16  1  0  0  0  0
  9 18  1  0  0  0  0
  9 32  1  0  0  0  0
 10 11  1  0  0  0  0
 10 21  1  0  0  0  0
 11 12  1  0  0  0  0
 11 22  1  0  0  0  0
 11 23  1  0  0  0  0
 12 13  1  0  0  0  0
 12 24  1  0  0  0  0
 13 17  1  6  0  0  0
 13 25  1  0  0  0  0
 14 15  1  0  0  0  0
 14 26  1  0  0  0  0
 15 18  1  0  0  0  0
 15 19  1  0  0  0  0
 17 27  1  0  0  0  0
 17 28  1  0  0  0  0
 19 29  1  0  0  0  0
 19 30  1  0  0  0  0
 19 31  1  0  0  0  0
 20 33  1  0  0  0  0
 20 34  1  0  0  0  0
 20 35  1  0  0  0  0
M  END
> <PUBCHEM_COMPOUND_CID>
500109
> <PUBCHEM_COMPOUND_CANONICALIZED>
1
> <PUBCHEM_CACTVS_COMPLEXITY>
426
> <PUBCHEM_CACTVS_HBOND_ACCEPTOR>
6
> <PUBCHEM_CACTVS_HBOND_DONOR>
2
> <PUBCHEM_CACTVS_ROTATABLE_BOND>
3
> <PUBCHEM_CACTVS_SUBSKEYS>
AAADceBzOQAAAgAAAAAAAAAAAAAAASAAAAAsAAAAAAAAAAAAAAAAHwAwCAAADBTjgAYDAAPABgAIAAEQEAAAAAAAAAAAAAEIAACBEA4AwAAOQAAOJyKDAACwMAIAAAAAAAAAAAAAAAAAAAAAAAAAAAAAAA==
> <PUBCHEM_IUPAC_OPENEYE_NAME>
1-[(2S,4R,5S)-4-fluoro-5-(hydroxymethyl)tetrahydrofuran-2-yl]-5-iodo-6-methoxy-5-methyl-hexahydropyrimidine-2,4-dione
> <PUBCHEM_IUPAC_CAS_NAME>
1-[(2S,4R,5S)-4-fluoro-5-(hydroxymethyl)-2-oxolanyl]-5-iodo-6-methoxy-5-methyl-1,3-diazinane-2,4-dione
> <PUBCHEM_IUPAC_NAME_MARKUP>
1-[(2<I>S</I>,4<I>R</I>,5<I>S</I>)-4-fluoro-5-(hydroxymethyl)oxolan-2-yl]-5-iodo-6-methoxy-5-methyl-1,3-diazinane-2,4-dione
> <PUBCHEM_IUPAC_NAME>
1-[(2S,4R,5S)-4-fluoro-5-(hydroxymethyl)oxolan-2-yl]-5-iodo-6-methoxy-5-methyl-1,3-diazinane-2,4-dione
> <PUBCHEM_IUPAC_SYSTEMATIC_NAME>
1-[(2S,4R,5S)-4-fluoranyl-5-(hydroxymethyl)oxolan-2-yl]-5-iodanyl-6-methoxy-5-methyl-1,3-diazinane-2,4-dione
> <PUBCHEM_IUPAC_TRADITIONAL_NAME>
1-[(2S,4R,5S)-4-fluoro-5-methylol-tetrahydrofuran-2-yl]-5-iodo-6-methoxy-5-methyl-5,6-dihydrouracil
> <PUBCHEM_IUPAC_INCHI>
InChI=1S/C11H16FIN2O5/c1-11(13)8(17)14-10(18)15(9(11)19-2)7-3-5(12)6(4-16)20-7/h5-7,9,16H,3-4H2,1-2H3,(H,14,17,18)/t5-,6+,7+,9?,11?/m1/s1
> <PUBCHEM_IUPAC_INCHIKEY>
ZTVDGQHBVYOWTI-JSLMXZSLSA-N
> <PUBCHEM_XLOGP3_AA>
0.1
> <PUBCHEM_EXACT_MASS>
402.00880
> <PUBCHEM_MOLECULAR_FORMULA>
C11H16FIN2O5
> <PUBCHEM_MOLECULAR_WEIGHT>
402.16
> <PUBCHEM_OPENEYE_CAN_SMILES>
CC1(C(N(C(=O)NC1=O)C2CC(C(O2)CO)F)OC)I
> <PUBCHEM_OPENEYE_ISO_SMILES>
CC1(C(N(C(=O)NC1=O)[C@@H]2C[C@H]([C@@H](O2)CO)F)OC)I
> <PUBCHEM_CACTVS_TPSA>
88.1
> <PUBCHEM_MONOISOTOPIC_WEIGHT>
402.00880
> <PUBCHEM_TOTAL_CHARGE>
0
> <PUBCHEM_HEAVY_ATOM_COUNT>
20
> <PUBCHEM_ATOM_DEF_STEREO_COUNT>
3
> <PUBCHEM_ATOM_UDEF_STEREO_COUNT>
2
> <PUBCHEM_BOND_DEF_STEREO_COUNT>
0
> <PUBCHEM_BOND_UDEF_STEREO_COUNT>
0
> <PUBCHEM_ISOTOPIC_ATOM_COUNT>
0
> <PUBCHEM_COMPONENT_COUNT>
1
> <PUBCHEM_CACTVS_TAUTO_COUNT>
-1
> <PUBCHEM_COORDINATE_TYPE>
1
5
255
> <PUBCHEM_BONDANNOTATIONS>
15  1  3
13  17  6
12  2  5
14  4  3
10  8  6
$$$$
