500131
  -OEChem-10302200282D
 29 30  0     1  0  0  0  0  0999 V2000
    4.6316   -2.0061    0.0000 O   0  0  0  0  0  0  0  0  0  0  0  0
    3.8226   -0.6048    0.0000 O   0  0  0  0  0  0  0  0  0  0  0  0
    2.2522   -3.2320    0.0000 O   0  0  0  0  0  0  0  0  0  0  0  0
    7.3342    0.4885    0.0000 O   0  0  0  0  0  0  0  0  0  0  0  0
    5.6021    0.4885    0.0000 N   0  0  0  0  0  0  0  0  0  0  0  0
    6.4682    1.9884    0.0000 N   0  0  0  0  0  0  0  0  0  0  0  0
    5.6021    3.4884    0.0000 N   0  0  0  0  0  0  0  0  0  0  0  0
    3.6534   -2.2140    0.0000 C   0  0  1  0  0  0  0  0  0  0  0  0
    4.7361   -1.0116    0.0000 C   0  0  2  0  0  0  0  0  0  0  0  0
    3.1534   -1.3480    0.0000 C   0  0  0  0  0  0  0  0  0  0  0  0
    5.6021   -0.5115    0.0000 C   0  0  0  0  0  0  0  0  0  0  0  0
    3.2467   -3.1275    0.0000 C   0  0  0  0  0  0  0  0  0  0  0  0
    4.7361    0.9885    0.0000 C   0  0  0  0  0  0  0  0  0  0  0  0
    6.4682    0.9885    0.0000 C   0  0  0  0  0  0  0  0  0  0  0  0
    4.7361    1.9884    0.0000 C   0  0  0  0  0  0  0  0  0  0  0  0
    5.6021    2.4884    0.0000 C   0  0  0  0  0  0  0  0  0  0  0  0
    5.2561   -1.3492    0.0000 H   0  0  0  0  0  0  0  0  0  0  0  0
    4.0436   -2.6958    0.0000 H   0  0  0  0  0  0  0  0  0  0  0  0
    2.7386   -0.8872    0.0000 H   0  0  0  0  0  0  0  0  0  0  0  0
    2.6518   -1.7124    0.0000 H   0  0  0  0  0  0  0  0  0  0  0  0
    5.8142   -1.0942    0.0000 H   0  0  0  0  0  0  0  0  0  0  0  0
    6.2127   -0.4039    0.0000 H   0  0  0  0  0  0  0  0  0  0  0  0
    3.2034   -3.7460    0.0000 H   0  0  0  0  0  0  0  0  0  0  0  0
    3.8483   -3.2775    0.0000 H   0  0  0  0  0  0  0  0  0  0  0  0
    4.1992    0.6785    0.0000 H   0  0  0  0  0  0  0  0  0  0  0  0
    2.0000   -3.7984    0.0000 H   0  0  0  0  0  0  0  0  0  0  0  0
    4.1992    2.2984    0.0000 H   0  0  0  0  0  0  0  0  0  0  0  0
    6.1391    3.7984    0.0000 H   0  0  0  0  0  0  0  0  0  0  0  0
    5.0652    3.7984    0.0000 H   0  0  0  0  0  0  0  0  0  0  0  0
  1  8  1  0  0  0  0
  1  9  1  0  0  0  0
  2  9  1  0  0  0  0
  2 10  1  0  0  0  0
  3 12  1  0  0  0  0
  3 26  1  0  0  0  0
  4 14  2  0  0  0  0
  5 11  1  0  0  0  0
  5 13  1  0  0  0  0
  5 14  1  0  0  0  0
  6 14  1  0  0  0  0
  6 16  2  0  0  0  0
  7 16  1  0  0  0  0
  7 28  1  0  0  0  0
  7 29  1  0  0  0  0
  8 10  1  0  0  0  0
  8 12  1  6  0  0  0
  8 18  1  0  0  0  0
  9 11  1  6  0  0  0
  9 17  1  0  0  0  0
 10 19  1  0  0  0  0
 10 20  1  0  0  0  0
 11 21  1  0  0  0  0
 11 22  1  0  0  0  0
 12 23  1  0  0  0  0
 12 24  1  0  0  0  0
 13 15  2  0  0  0  0
 13 25  1  0  0  0  0
 15 16  1  0  0  0  0
 15 27  1  0  0  0  0
M  END
> <PUBCHEM_COMPOUND_CID>
500131
> <PUBCHEM_COMPOUND_CANONICALIZED>
1
> <PUBCHEM_CACTVS_COMPLEXITY>
342
> <PUBCHEM_CACTVS_HBOND_ACCEPTOR>
4
> <PUBCHEM_CACTVS_HBOND_DONOR>
2
> <PUBCHEM_CACTVS_ROTATABLE_BOND>
3
> <PUBCHEM_CACTVS_SUBSKEYS>
AAADccBzOAAAAAAAAAAAAAAAAAAAASAAAAAgAAAAAAAAAAAAAAAAHgAQCAAACBTxgAcBCANABgCoACJmdACAAAEAAgAIAAAYABCTEAAAAAAjQAABFgIXAAAAAAAAAAAAAAAAAAAAAAAAAAAAAAAAAAAAAA==
> <PUBCHEM_IUPAC_OPENEYE_NAME>
4-amino-1-[[(2S,4R)-4-(hydroxymethyl)-1,3-dioxolan-2-yl]methyl]pyrimidin-2-one
> <PUBCHEM_IUPAC_CAS_NAME>
4-amino-1-[[(2S,4R)-4-(hydroxymethyl)-1,3-dioxolan-2-yl]methyl]-2-pyrimidinone
> <PUBCHEM_IUPAC_NAME_MARKUP>
4-amino-1-[[(2<I>S</I>,4<I>R</I>)-4-(hydroxymethyl)-1,3-dioxolan-2-yl]methyl]pyrimidin-2-one
> <PUBCHEM_IUPAC_NAME>
4-amino-1-[[(2S,4R)-4-(hydroxymethyl)-1,3-dioxolan-2-yl]methyl]pyrimidin-2-one
> <PUBCHEM_IUPAC_SYSTEMATIC_NAME>
4-azanyl-1-[[(2S,4R)-4-(hydroxymethyl)-1,3-dioxolan-2-yl]methyl]pyrimidin-2-one
> <PUBCHEM_IUPAC_TRADITIONAL_NAME>
4-amino-1-[[(2S,4R)-4-methylol-1,3-dioxolan-2-yl]methyl]pyrimidin-2-one
> <PUBCHEM_IUPAC_INCHI>
InChI=1S/C9H13N3O4/c10-7-1-2-12(9(14)11-7)3-8-15-5-6(4-13)16-8/h1-2,6,8,13H,3-5H2,(H2,10,11,14)/t6-,8+/m1/s1
> <PUBCHEM_IUPAC_INCHIKEY>
XVFDHRXYFGNGHN-SVRRBLITSA-N
> <PUBCHEM_XLOGP3_AA>
-2.1
> <PUBCHEM_EXACT_MASS>
227.09060590
> <PUBCHEM_MOLECULAR_FORMULA>
C9H13N3O4
> <PUBCHEM_MOLECULAR_WEIGHT>
227.22
> <PUBCHEM_OPENEYE_CAN_SMILES>
C1C(OC(O1)CN2C=CC(=NC2=O)N)CO
> <PUBCHEM_OPENEYE_ISO_SMILES>
C1[C@H](O[C@H](O1)CN2C=CC(=NC2=O)N)CO
> <PUBCHEM_CACTVS_TPSA>
97.4
> <PUBCHEM_MONOISOTOPIC_WEIGHT>
227.09060590
> <PUBCHEM_TOTAL_CHARGE>
0
> <PUBCHEM_HEAVY_ATOM_COUNT>
16
> <PUBCHEM_ATOM_DEF_STEREO_COUNT>
2
> <PUBCHEM_ATOM_UDEF_STEREO_COUNT>
0
> <PUBCHEM_BOND_DEF_STEREO_COUNT>
0
> <PUBCHEM_BOND_UDEF_STEREO_COUNT>
0
> <PUBCHEM_ISOTOPIC_ATOM_COUNT>
0
> <PUBCHEM_COMPONENT_COUNT>
1
> <PUBCHEM_CACTVS_TAUTO_COUNT>
-1
> <PUBCHEM_COORDINATE_TYPE>
1
5
255
> <PUBCHEM_BONDANNOTATIONS>
13  15  8
15  16  8
5  13  8
5  14  8
6  14  8
6  16  8
8  12  6
9  11  6
$$$$
