500174
  -OEChem-10302200282D
 42 45  0     1  0  0  0  0  0999 V2000
    5.9719   -2.0661    0.0000 O   0  0  0  0  0  0  0  0  0  0  0  0
    4.4774   -1.0956    0.0000 O   0  0  0  0  0  0  0  0  0  0  0  0
   11.4649   -0.5590    0.0000 O   0  0  0  0  0  0  0  0  0  0  0  0
   11.4649   -2.1684    0.0000 O   0  0  0  0  0  0  0  0  0  0  0  0
    2.1289    1.7572    0.0000 O   0  0  0  0  0  0  0  0  0  0  0  0
    7.0546   -0.8637    0.0000 C   0  0  3  0  0  0  0  0  0  0  0  0
    6.1410   -0.4570    0.0000 C   0  0  3  0  0  0  0  0  0  0  0  0
    7.9206   -0.3637    0.0000 C   0  0  0  0  0  0  0  0  0  0  0  0
    6.9501   -1.8582    0.0000 C   0  0  0  0  0  0  0  0  0  0  0  0
    5.9331    0.5212    0.0000 C   0  0  0  0  0  0  0  0  0  0  0  0
    5.4719   -1.2001    0.0000 C   0  0  0  0  0  0  0  0  0  0  0  0
    8.7866   -0.8637    0.0000 C   0  0  0  0  0  0  0  0  0  0  0  0
    4.9821    0.8302    0.0000 C   0  0  0  0  0  0  0  0  0  0  0  0
    9.6527   -0.3637    0.0000 C   0  0  0  0  0  0  0  0  0  0  0  0
    8.7866   -1.8637    0.0000 C   0  0  0  0  0  0  0  0  0  0  0  0
    4.7742    1.8084    0.0000 C   0  0  0  0  0  0  0  0  0  0  0  0
    4.2389    0.1611    0.0000 C   0  0  0  0  0  0  0  0  0  0  0  0
   10.5187   -0.8637    0.0000 C   0  0  0  0  0  0  0  0  0  0  0  0
    9.6527   -2.3637    0.0000 C   0  0  0  0  0  0  0  0  0  0  0  0
   10.5187   -1.8637    0.0000 C   0  0  0  0  0  0  0  0  0  0  0  0
    3.8231    2.1174    0.0000 C   0  0  0  0  0  0  0  0  0  0  0  0
    3.2879    0.4701    0.0000 C   0  0  0  0  0  0  0  0  0  0  0  0
    3.0800    1.4482    0.0000 C   0  0  0  0  0  0  0  0  0  0  0  0
   12.0485   -1.3637    0.0000 C   0  0  0  0  0  0  0  0  0  0  0  0
    7.5746   -1.2014    0.0000 H   0  0  0  0  0  0  0  0  0  0  0  0
    6.6229   -0.0668    0.0000 H   0  0  0  0  0  0  0  0  0  0  0  0
    8.3191    0.1112    0.0000 H   0  0  0  0  0  0  0  0  0  0  0  0
    7.5221    0.1112    0.0000 H   0  0  0  0  0  0  0  0  0  0  0  0
    7.0149   -2.4748    0.0000 H   0  0  0  0  0  0  0  0  0  0  0  0
    7.5701   -1.8582    0.0000 H   0  0  0  0  0  0  0  0  0  0  0  0
    6.5527    0.5428    0.0000 H   0  0  0  0  0  0  0  0  0  0  0  0
    6.0194    1.1352    0.0000 H   0  0  0  0  0  0  0  0  0  0  0  0
    9.6527    0.2563    0.0000 H   0  0  0  0  0  0  0  0  0  0  0  0
    8.2497   -2.1737    0.0000 H   0  0  0  0  0  0  0  0  0  0  0  0
    5.2349    2.2232    0.0000 H   0  0  0  0  0  0  0  0  0  0  0  0
    4.3678   -0.4454    0.0000 H   0  0  0  0  0  0  0  0  0  0  0  0
    9.6527   -2.9837    0.0000 H   0  0  0  0  0  0  0  0  0  0  0  0
    3.6942    2.7238    0.0000 H   0  0  0  0  0  0  0  0  0  0  0  0
    2.8271    0.0552    0.0000 H   0  0  0  0  0  0  0  0  0  0  0  0
   12.5094   -1.7784    0.0000 H   0  0  0  0  0  0  0  0  0  0  0  0
   12.5094   -0.9490    0.0000 H   0  0  0  0  0  0  0  0  0  0  0  0
    2.0000    2.3637    0.0000 H   0  0  0  0  0  0  0  0  0  0  0  0
  1  9  1  0  0  0  0
  1 11  1  0  0  0  0
  2 11  2  0  0  0  0
  3 18  1  0  0  0  0
  3 24  1  0  0  0  0
  4 20  1  0  0  0  0
  4 24  1  0  0  0  0
  5 23  1  0  0  0  0
  5 42  1  0  0  0  0
  6  7  1  0  0  0  0
  6  8  1  0  0  0  0
  6  9  1  0  0  0  0
  6 25  1  0  0  0  0
  7 10  1  0  0  0  0
  7 11  1  0  0  0  0
  7 26  1  0  0  0  0
  8 12  1  0  0  0  0
  8 27  1  0  0  0  0
  8 28  1  0  0  0  0
  9 29  1  0  0  0  0
  9 30  1  0  0  0  0
 10 13  1  0  0  0  0
 10 31  1  0  0  0  0
 10 32  1  0  0  0  0
 12 14  2  0  0  0  0
 12 15  1  0  0  0  0
 13 16  2  0  0  0  0
 13 17  1  0  0  0  0
 14 18  1  0  0  0  0
 14 33  1  0  0  0  0
 15 19  2  0  0  0  0
 15 34  1  0  0  0  0
 16 21  1  0  0  0  0
 16 35  1  0  0  0  0
 17 22  2  0  0  0  0
 17 36  1  0  0  0  0
 18 20  2  0  0  0  0
 19 20  1  0  0  0  0
 19 37  1  0  0  0  0
 21 23  2  0  0  0  0
 21 38  1  0  0  0  0
 22 23  1  0  0  0  0
 22 39  1  0  0  0  0
 24 40  1  0  0  0  0
 24 41  1  0  0  0  0
M  END
> <PUBCHEM_COMPOUND_CID>
500174
> <PUBCHEM_COMPOUND_CANONICALIZED>
1
> <PUBCHEM_CACTVS_COMPLEXITY>
445
> <PUBCHEM_CACTVS_HBOND_ACCEPTOR>
5
> <PUBCHEM_CACTVS_HBOND_DONOR>
1
> <PUBCHEM_CACTVS_ROTATABLE_BOND>
4
> <PUBCHEM_CACTVS_SUBSKEYS>
AAADceB4OAAAAAAAAAAAAAAAAAAAASJAAAAwYAAAAAAAAEgBQAAAGgAACAAADQSgmAMwDoAABgCIAiDSCAACCAAgIAAIiAEGiIgdJjKGMRqicCIkwBEOuAeKyPCOoAABAAAAQABAAAIAAACAAAAAAAAAAA==
> <PUBCHEM_IUPAC_OPENEYE_NAME>
4-(1,3-benzodioxol-5-ylmethyl)-3-[(4-hydroxyphenyl)methyl]tetrahydrofuran-2-one
> <PUBCHEM_IUPAC_CAS_NAME>
4-(1,3-benzodioxol-5-ylmethyl)-3-[(4-hydroxyphenyl)methyl]-2-oxolanone
> <PUBCHEM_IUPAC_NAME_MARKUP>
4-(1,3-benzodioxol-5-ylmethyl)-3-[(4-hydroxyphenyl)methyl]oxolan-2-one
> <PUBCHEM_IUPAC_NAME>
4-(1,3-benzodioxol-5-ylmethyl)-3-[(4-hydroxyphenyl)methyl]oxolan-2-one
> <PUBCHEM_IUPAC_SYSTEMATIC_NAME>
4-(1,3-benzodioxol-5-ylmethyl)-3-[(4-hydroxyphenyl)methyl]oxolan-2-one
> <PUBCHEM_IUPAC_TRADITIONAL_NAME>
3-(4-hydroxybenzyl)-4-piperonyl-tetrahydrofuran-2-one
> <PUBCHEM_IUPAC_INCHI>
InChI=1S/C19H18O5/c20-15-4-1-12(2-5-15)8-16-14(10-22-19(16)21)7-13-3-6-17-18(9-13)24-11-23-17/h1-6,9,14,16,20H,7-8,10-11H2
> <PUBCHEM_IUPAC_INCHIKEY>
LDARJFDKYQCUEP-UHFFFAOYSA-N
> <PUBCHEM_XLOGP3_AA>
3.5
> <PUBCHEM_EXACT_MASS>
326.11542367
> <PUBCHEM_MOLECULAR_FORMULA>
C19H18O5
> <PUBCHEM_MOLECULAR_WEIGHT>
326.3
> <PUBCHEM_OPENEYE_CAN_SMILES>
C1C(C(C(=O)O1)CC2=CC=C(C=C2)O)CC3=CC4=C(C=C3)OCO4
> <PUBCHEM_OPENEYE_ISO_SMILES>
C1C(C(C(=O)O1)CC2=CC=C(C=C2)O)CC3=CC4=C(C=C3)OCO4
> <PUBCHEM_CACTVS_TPSA>
65
> <PUBCHEM_MONOISOTOPIC_WEIGHT>
326.11542367
> <PUBCHEM_TOTAL_CHARGE>
0
> <PUBCHEM_HEAVY_ATOM_COUNT>
24
> <PUBCHEM_ATOM_DEF_STEREO_COUNT>
0
> <PUBCHEM_ATOM_UDEF_STEREO_COUNT>
2
> <PUBCHEM_BOND_DEF_STEREO_COUNT>
0
> <PUBCHEM_BOND_UDEF_STEREO_COUNT>
0
> <PUBCHEM_ISOTOPIC_ATOM_COUNT>
0
> <PUBCHEM_COMPONENT_COUNT>
1
> <PUBCHEM_CACTVS_TAUTO_COUNT>
-1
> <PUBCHEM_COORDINATE_TYPE>
1
5
255
> <PUBCHEM_BONDANNOTATIONS>
12  14  8
12  15  8
13  16  8
13  17  8
14  18  8
15  19  8
16  21  8
17  22  8
18  20  8
19  20  8
21  23  8
22  23  8
6  8  3
7  10  3
$$$$
