500142
  -OEChem-10302200282D
 59 63  0     1  0  0  0  0  0999 V2000
   10.1373    1.1993    0.0000 S   0  0  0  0  0  0  0  0  0  0  0  0
    2.5357   -3.4157    0.0000 O   0  0  0  0  0  0  0  0  0  0  0  0
    8.5993    1.7019    0.0000 N   0  0  0  0  0  0  0  0  0  0  0  0
    7.9288   -0.3634    0.0000 C   0  0  3  0  0  0  0  0  0  0  0  0
    7.9288   -1.3634    0.0000 C   0  0  3  0  0  0  0  0  0  0  0  0
    7.0628   -1.8634    0.0000 C   0  0  3  0  0  0  0  0  0  0  0  0
    6.1968   -1.3634    0.0000 C   0  0  3  0  0  0  0  0  0  0  0  0
    5.2868   -1.8702    0.0000 C   0  0  3  0  0  0  0  0  0  0  0  0
    8.8750   -0.0586    0.0000 C   0  0  3  0  0  0  0  0  0  0  0  0
    7.0628    0.1366    0.0000 C   0  0  0  0  0  0  0  0  0  0  0  0
    6.1968   -0.3634    0.0000 C   0  0  0  0  0  0  0  0  0  0  0  0
    8.8750   -1.6681    0.0000 C   0  0  0  0  0  0  0  0  0  0  0  0
    9.4586   -0.8634    0.0000 C   0  0  0  0  0  0  0  0  0  0  0  0
    7.0789   -2.9049    0.0000 C   0  0  0  0  0  0  0  0  0  0  0  0
    5.2787   -2.9118    0.0000 C   0  0  0  0  0  0  0  0  0  0  0  0
    7.9288    0.6366    0.0000 C   0  0  0  0  0  0  0  0  0  0  0  0
    4.3599   -1.3061    0.0000 C   0  0  0  0  0  0  0  0  0  0  0  0
    6.1808   -3.4326    0.0000 C   0  0  0  0  0  0  0  0  0  0  0  0
    5.2945   -0.8702    0.0000 C   0  0  0  0  0  0  0  0  0  0  0  0
    4.3433   -3.4615    0.0000 C   0  0  0  0  0  0  0  0  0  0  0  0
    9.1857    0.8919    0.0000 C   0  0  0  0  0  0  0  0  0  0  0  0
    3.4120   -1.8341    0.0000 C   0  0  0  0  0  0  0  0  0  0  0  0
    3.4037   -2.9190    0.0000 C   0  0  3  0  0  0  0  0  0  0  0  0
    9.1885    2.5099    0.0000 C   0  0  0  0  0  0  0  0  0  0  0  0
   10.1390    2.1993    0.0000 C   0  0  0  0  0  0  0  0  0  0  0  0
    8.8811    3.4615    0.0000 C   0  0  0  0  0  0  0  0  0  0  0  0
    7.9944   -1.9799    0.0000 H   0  0  0  0  0  0  0  0  0  0  0  0
    7.6021   -2.1692    0.0000 H   0  0  0  0  0  0  0  0  0  0  0  0
    6.7337   -1.0534    0.0000 H   0  0  0  0  0  0  0  0  0  0  0  0
    9.4875    0.0376    0.0000 H   0  0  0  0  0  0  0  0  0  0  0  0
    7.4613    0.6116    0.0000 H   0  0  0  0  0  0  0  0  0  0  0  0
    6.6643    0.6116    0.0000 H   0  0  0  0  0  0  0  0  0  0  0  0
    5.9847    0.2193    0.0000 H   0  0  0  0  0  0  0  0  0  0  0  0
    5.5862   -0.4710    0.0000 H   0  0  0  0  0  0  0  0  0  0  0  0
    8.6240   -2.2350    0.0000 H   0  0  0  0  0  0  0  0  0  0  0  0
    9.4124   -1.9773    0.0000 H   0  0  0  0  0  0  0  0  0  0  0  0
    9.9195   -1.2781    0.0000 H   0  0  0  0  0  0  0  0  0  0  0  0
    9.9195   -0.4486    0.0000 H   0  0  0  0  0  0  0  0  0  0  0  0
    7.2969   -3.4853    0.0000 H   0  0  0  0  0  0  0  0  0  0  0  0
    7.6880   -2.7894    0.0000 H   0  0  0  0  0  0  0  0  0  0  0  0
    8.5488    0.6366    0.0000 H   0  0  0  0  0  0  0  0  0  0  0  0
    7.9288    1.2566    0.0000 H   0  0  0  0  0  0  0  0  0  0  0  0
    7.3088    0.6366    0.0000 H   0  0  0  0  0  0  0  0  0  0  0  0
    4.7681   -0.8395    0.0000 H   0  0  0  0  0  0  0  0  0  0  0  0
    3.9700   -0.8241    0.0000 H   0  0  0  0  0  0  0  0  0  0  0  0
    6.1832   -4.0526    0.0000 H   0  0  0  0  0  0  0  0  0  0  0  0
    5.9145   -0.8750    0.0000 H   0  0  0  0  0  0  0  0  0  0  0  0
    5.2993   -0.2502    0.0000 H   0  0  0  0  0  0  0  0  0  0  0  0
    4.6745   -0.8654    0.0000 H   0  0  0  0  0  0  0  0  0  0  0  0
    3.9460   -3.9375    0.0000 H   0  0  0  0  0  0  0  0  0  0  0  0
    4.7443   -3.9344    0.0000 H   0  0  0  0  0  0  0  0  0  0  0  0
    3.2075   -1.2488    0.0000 H   0  0  0  0  0  0  0  0  0  0  0  0
    2.8004   -1.9354    0.0000 H   0  0  0  0  0  0  0  0  0  0  0  0
    3.4025   -3.5390    0.0000 H   0  0  0  0  0  0  0  0  0  0  0  0
    2.0000   -3.1036    0.0000 H   0  0  0  0  0  0  0  0  0  0  0  0
   10.6412    2.5628    0.0000 H   0  0  0  0  0  0  0  0  0  0  0  0
    9.4711    3.6521    0.0000 H   0  0  0  0  0  0  0  0  0  0  0  0
    8.6906    4.0515    0.0000 H   0  0  0  0  0  0  0  0  0  0  0  0
    8.2912    3.2710    0.0000 H   0  0  0  0  0  0  0  0  0  0  0  0
  1 21  1  0  0  0  0
  1 25  1  0  0  0  0
  2 23  1  0  0  0  0
  2 55  1  0  0  0  0
  3 21  2  0  0  0  0
  3 24  1  0  0  0  0
  4  5  1  0  0  0  0
  4  9  1  0  0  0  0
  4 10  1  0  0  0  0
  4 16  1  0  0  0  0
  5  6  1  0  0  0  0
  5 12  1  0  0  0  0
  5 27  1  0  0  0  0
  6  7  1  0  0  0  0
  6 14  1  0  0  0  0
  6 28  1  0  0  0  0
  7  8  1  0  0  0  0
  7 11  1  0  0  0  0
  7 29  1  0  0  0  0
  8 15  1  0  0  0  0
  8 17  1  0  0  0  0
  8 19  1  0  0  0  0
  9 13  1  0  0  0  0
  9 21  1  0  0  0  0
  9 30  1  0  0  0  0
 10 11  1  0  0  0  0
 10 31  1  0  0  0  0
 10 32  1  0  0  0  0
 11 33  1  0  0  0  0
 11 34  1  0  0  0  0
 12 13  1  0  0  0  0
 12 35  1  0  0  0  0
 12 36  1  0  0  0  0
 13 37  1  0  0  0  0
 13 38  1  0  0  0  0
 14 18  1  0  0  0  0
 14 39  1  0  0  0  0
 14 40  1  0  0  0  0
 15 18  2  0  0  0  0
 15 20  1  0  0  0  0
 16 41  1  0  0  0  0
 16 42  1  0  0  0  0
 16 43  1  0  0  0  0
 17 22  1  0  0  0  0
 17 44  1  0  0  0  0
 17 45  1  0  0  0  0
 18 46  1  0  0  0  0
 19 47  1  0  0  0  0
 19 48  1  0  0  0  0
 19 49  1  0  0  0  0
 20 23  1  0  0  0  0
 20 50  1  0  0  0  0
 20 51  1  0  0  0  0
 22 23  1  0  0  0  0
 22 52  1  0  0  0  0
 22 53  1  0  0  0  0
 23 54  1  0  0  0  0
 24 25  2  0  0  0  0
 24 26  1  0  0  0  0
 25 56  1  0  0  0  0
 26 57  1  0  0  0  0
 26 58  1  0  0  0  0
 26 59  1  0  0  0  0
M  END
> <PUBCHEM_COMPOUND_CID>
500142
> <PUBCHEM_COMPOUND_CANONICALIZED>
1
> <PUBCHEM_CACTVS_COMPLEXITY>
605
> <PUBCHEM_CACTVS_HBOND_ACCEPTOR>
3
> <PUBCHEM_CACTVS_HBOND_DONOR>
1
> <PUBCHEM_CACTVS_ROTATABLE_BOND>
1
> <PUBCHEM_CACTVS_SUBSKEYS>
AAADcfB6IABAAAAAAAAAAAAAAAAAAeIAAAAwYIAAAAAAAGCBgAAAHgQACAAADxyl1gKigRIIEgikAyRiRAAA8KBhCjgACBQwIAgAEAIggQAEQAAEwACoAAOQwPAPgAAAAAAAAADAAAQAACAAAQAACAAAAA==
> <PUBCHEM_IUPAC_OPENEYE_NAME>
10,13-dimethyl-17-(4-methylthiazol-2-yl)-2,3,4,7,8,9,11,12,14,15,16,17-dodecahydro-1H-cyclopenta[a]phenanthren-3-ol
> <PUBCHEM_IUPAC_CAS_NAME>
10,13-dimethyl-17-(4-methyl-2-thiazolyl)-2,3,4,7,8,9,11,12,14,15,16,17-dodecahydro-1H-cyclopenta[a]phenanthren-3-ol
> <PUBCHEM_IUPAC_NAME_MARKUP>
10,13-dimethyl-17-(4-methyl-1,3-thiazol-2-yl)-2,3,4,7,8,9,11,12,14,15,16,17-dodecahydro-1<I>H</I>-cyclopenta[a]phenanthren-3-ol
> <PUBCHEM_IUPAC_NAME>
10,13-dimethyl-17-(4-methyl-1,3-thiazol-2-yl)-2,3,4,7,8,9,11,12,14,15,16,17-dodecahydro-1H-cyclopenta[a]phenanthren-3-ol
> <PUBCHEM_IUPAC_SYSTEMATIC_NAME>
10,13-dimethyl-17-(4-methyl-1,3-thiazol-2-yl)-2,3,4,7,8,9,11,12,14,15,16,17-dodecahydro-1H-cyclopenta[a]phenanthren-3-ol
> <PUBCHEM_IUPAC_TRADITIONAL_NAME>
10,13-dimethyl-17-(4-methylthiazol-2-yl)-2,3,4,7,8,9,11,12,14,15,16,17-dodecahydro-1H-cyclopenta[a]phenanthren-3-ol
> <PUBCHEM_IUPAC_INCHI>
InChI=1S/C23H33NOS/c1-14-13-26-21(24-14)20-7-6-18-17-5-4-15-12-16(25)8-10-22(15,2)19(17)9-11-23(18,20)3/h4,13,16-20,25H,5-12H2,1-3H3
> <PUBCHEM_IUPAC_INCHIKEY>
GBDRNKOEOWKQRM-UHFFFAOYSA-N
> <PUBCHEM_XLOGP3_AA>
5.6
> <PUBCHEM_EXACT_MASS>
371.22828585
> <PUBCHEM_MOLECULAR_FORMULA>
C23H33NOS
> <PUBCHEM_MOLECULAR_WEIGHT>
371.6
> <PUBCHEM_OPENEYE_CAN_SMILES>
CC1=CSC(=N1)C2CCC3C2(CCC4C3CC=C5C4(CCC(C5)O)C)C
> <PUBCHEM_OPENEYE_ISO_SMILES>
CC1=CSC(=N1)C2CCC3C2(CCC4C3CC=C5C4(CCC(C5)O)C)C
> <PUBCHEM_CACTVS_TPSA>
61.4
> <PUBCHEM_MONOISOTOPIC_WEIGHT>
371.22828585
> <PUBCHEM_TOTAL_CHARGE>
0
> <PUBCHEM_HEAVY_ATOM_COUNT>
26
> <PUBCHEM_ATOM_DEF_STEREO_COUNT>
0
> <PUBCHEM_ATOM_UDEF_STEREO_COUNT>
7
> <PUBCHEM_BOND_DEF_STEREO_COUNT>
0
> <PUBCHEM_BOND_UDEF_STEREO_COUNT>
0
> <PUBCHEM_ISOTOPIC_ATOM_COUNT>
0
> <PUBCHEM_COMPONENT_COUNT>
1
> <PUBCHEM_CACTVS_TAUTO_COUNT>
-1
> <PUBCHEM_COORDINATE_TYPE>
1
5
255
> <PUBCHEM_BONDANNOTATIONS>
1  21  8
1  25  8
23  2  3
24  25  8
3  21  8
3  24  8
4  16  3
5  12  3
6  14  3
7  11  3
8  19  3
9  21  3
$$$$
