500148
  -OEChem-10302200282D
 65 69  0     1  0  0  0  0  0999 V2000
   11.3336    1.0398    0.0000 S   0  0  0  0  0  0  0  0  0  0  0  0
    3.7320   -3.5751    0.0000 O   0  0  0  0  0  0  0  0  0  0  0  0
   12.1454    2.6262    0.0000 O   0  0  0  0  0  0  0  0  0  0  0  0
    2.8718   -2.0718    0.0000 O   0  0  0  0  0  0  0  0  0  0  0  0
    9.7956    1.5425    0.0000 N   0  0  0  0  0  0  0  0  0  0  0  0
    9.1251   -0.5228    0.0000 C   0  0  3  0  0  0  0  0  0  0  0  0
    9.1251   -1.5228    0.0000 C   0  0  3  0  0  0  0  0  0  0  0  0
    8.2591   -2.0228    0.0000 C   0  0  3  0  0  0  0  0  0  0  0  0
    7.3931   -1.5228    0.0000 C   0  0  3  0  0  0  0  0  0  0  0  0
    6.4831   -2.0296    0.0000 C   0  0  3  0  0  0  0  0  0  0  0  0
   10.0713   -0.2180    0.0000 C   0  0  3  0  0  0  0  0  0  0  0  0
    8.2591   -0.0228    0.0000 C   0  0  0  0  0  0  0  0  0  0  0  0
    7.3931   -0.5228    0.0000 C   0  0  0  0  0  0  0  0  0  0  0  0
   10.0713   -1.8275    0.0000 C   0  0  0  0  0  0  0  0  0  0  0  0
   10.6550   -1.0228    0.0000 C   0  0  0  0  0  0  0  0  0  0  0  0
    8.2752   -3.0643    0.0000 C   0  0  0  0  0  0  0  0  0  0  0  0
    6.4750   -3.0712    0.0000 C   0  0  0  0  0  0  0  0  0  0  0  0
    9.1251    0.4772    0.0000 C   0  0  0  0  0  0  0  0  0  0  0  0
    5.5562   -1.4655    0.0000 C   0  0  0  0  0  0  0  0  0  0  0  0
    7.3771   -3.5920    0.0000 C   0  0  0  0  0  0  0  0  0  0  0  0
    6.4908   -1.0296    0.0000 C   0  0  0  0  0  0  0  0  0  0  0  0
    5.5396   -3.6209    0.0000 C   0  0  0  0  0  0  0  0  0  0  0  0
    4.6084   -1.9935    0.0000 C   0  0  0  0  0  0  0  0  0  0  0  0
   10.3820    0.7325    0.0000 C   0  0  0  0  0  0  0  0  0  0  0  0
    4.6000   -3.0784    0.0000 C   0  0  3  0  0  0  0  0  0  0  0  0
   11.3353    2.0398    0.0000 C   0  0  0  0  0  0  0  0  0  0  0  0
   10.3848    2.3505    0.0000 C   0  0  0  0  0  0  0  0  0  0  0  0
    2.8680   -3.0718    0.0000 C   0  0  0  0  0  0  0  0  0  0  0  0
    2.0000   -3.5684    0.0000 C   0  0  0  0  0  0  0  0  0  0  0  0
   12.0426    3.6209    0.0000 C   0  0  0  0  0  0  0  0  0  0  0  0
    9.1907   -2.1393    0.0000 H   0  0  0  0  0  0  0  0  0  0  0  0
    8.7984   -2.3286    0.0000 H   0  0  0  0  0  0  0  0  0  0  0  0
    7.9300   -1.2128    0.0000 H   0  0  0  0  0  0  0  0  0  0  0  0
   10.6838   -0.1218    0.0000 H   0  0  0  0  0  0  0  0  0  0  0  0
    8.6576    0.4522    0.0000 H   0  0  0  0  0  0  0  0  0  0  0  0
    7.8606    0.4522    0.0000 H   0  0  0  0  0  0  0  0  0  0  0  0
    7.1810    0.0598    0.0000 H   0  0  0  0  0  0  0  0  0  0  0  0
    6.7825   -0.6304    0.0000 H   0  0  0  0  0  0  0  0  0  0  0  0
    9.8203   -2.3944    0.0000 H   0  0  0  0  0  0  0  0  0  0  0  0
   10.6087   -2.1367    0.0000 H   0  0  0  0  0  0  0  0  0  0  0  0
   11.1158   -1.4375    0.0000 H   0  0  0  0  0  0  0  0  0  0  0  0
   11.1158   -0.6080    0.0000 H   0  0  0  0  0  0  0  0  0  0  0  0
    8.4932   -3.6447    0.0000 H   0  0  0  0  0  0  0  0  0  0  0  0
    8.8843   -2.9488    0.0000 H   0  0  0  0  0  0  0  0  0  0  0  0
    9.7451    0.4772    0.0000 H   0  0  0  0  0  0  0  0  0  0  0  0
    9.1251    1.0972    0.0000 H   0  0  0  0  0  0  0  0  0  0  0  0
    8.5051    0.4772    0.0000 H   0  0  0  0  0  0  0  0  0  0  0  0
    5.9644   -0.9989    0.0000 H   0  0  0  0  0  0  0  0  0  0  0  0
    5.1663   -0.9835    0.0000 H   0  0  0  0  0  0  0  0  0  0  0  0
    7.3795   -4.2120    0.0000 H   0  0  0  0  0  0  0  0  0  0  0  0
    7.1108   -1.0344    0.0000 H   0  0  0  0  0  0  0  0  0  0  0  0
    6.4956   -0.4097    0.0000 H   0  0  0  0  0  0  0  0  0  0  0  0
    5.8708   -1.0249    0.0000 H   0  0  0  0  0  0  0  0  0  0  0  0
    5.1423   -4.0969    0.0000 H   0  0  0  0  0  0  0  0  0  0  0  0
    5.9406   -4.0938    0.0000 H   0  0  0  0  0  0  0  0  0  0  0  0
    4.4038   -1.4082    0.0000 H   0  0  0  0  0  0  0  0  0  0  0  0
    3.9967   -2.0949    0.0000 H   0  0  0  0  0  0  0  0  0  0  0  0
    4.0648   -2.7653    0.0000 H   0  0  0  0  0  0  0  0  0  0  0  0
   10.1942    2.9405    0.0000 H   0  0  0  0  0  0  0  0  0  0  0  0
    1.6921   -3.0303    0.0000 H   0  0  0  0  0  0  0  0  0  0  0  0
    1.4619   -3.8764    0.0000 H   0  0  0  0  0  0  0  0  0  0  0  0
    2.3079   -4.1066    0.0000 H   0  0  0  0  0  0  0  0  0  0  0  0
   12.6593    3.6847    0.0000 H   0  0  0  0  0  0  0  0  0  0  0  0
   11.9788    4.2376    0.0000 H   0  0  0  0  0  0  0  0  0  0  0  0
   11.4258    3.5572    0.0000 H   0  0  0  0  0  0  0  0  0  0  0  0
  1 24  1  0  0  0  0
  1 26  1  0  0  0  0
  2 25  1  0  0  0  0
  2 28  1  0  0  0  0
  3 26  1  0  0  0  0
  3 30  1  0  0  0  0
  4 28  2  0  0  0  0
  5 24  2  0  0  0  0
  5 27  1  0  0  0  0
  6  7  1  0  0  0  0
  6 11  1  0  0  0  0
  6 12  1  0  0  0  0
  6 18  1  0  0  0  0
  7  8  1  0  0  0  0
  7 14  1  0  0  0  0
  7 31  1  0  0  0  0
  8  9  1  0  0  0  0
  8 16  1  0  0  0  0
  8 32  1  0  0  0  0
  9 10  1  0  0  0  0
  9 13  1  0  0  0  0
  9 33  1  0  0  0  0
 10 17  1  0  0  0  0
 10 19  1  0  0  0  0
 10 21  1  0  0  0  0
 11 15  1  0  0  0  0
 11 24  1  0  0  0  0
 11 34  1  0  0  0  0
 12 13  1  0  0  0  0
 12 35  1  0  0  0  0
 12 36  1  0  0  0  0
 13 37  1  0  0  0  0
 13 38  1  0  0  0  0
 14 15  1  0  0  0  0
 14 39  1  0  0  0  0
 14 40  1  0  0  0  0
 15 41  1  0  0  0  0
 15 42  1  0  0  0  0
 16 20  1  0  0  0  0
 16 43  1  0  0  0  0
 16 44  1  0  0  0  0
 17 20  2  0  0  0  0
 17 22  1  0  0  0  0
 18 45  1  0  0  0  0
 18 46  1  0  0  0  0
 18 47  1  0  0  0  0
 19 23  1  0  0  0  0
 19 48  1  0  0  0  0
 19 49  1  0  0  0  0
 20 50  1  0  0  0  0
 21 51  1  0  0  0  0
 21 52  1  0  0  0  0
 21 53  1  0  0  0  0
 22 25  1  0  0  0  0
 22 54  1  0  0  0  0
 22 55  1  0  0  0  0
 23 25  1  0  0  0  0
 23 56  1  0  0  0  0
 23 57  1  0  0  0  0
 25 58  1  0  0  0  0
 26 27  2  0  0  0  0
 27 59  1  0  0  0  0
 28 29  1  0  0  0  0
 29 60  1  0  0  0  0
 29 61  1  0  0  0  0
 29 62  1  0  0  0  0
 30 63  1  0  0  0  0
 30 64  1  0  0  0  0
 30 65  1  0  0  0  0
M  END
> <PUBCHEM_COMPOUND_CID>
500148
> <PUBCHEM_COMPOUND_CANONICALIZED>
1
> <PUBCHEM_CACTVS_COMPLEXITY>
725
> <PUBCHEM_CACTVS_HBOND_ACCEPTOR>
5
> <PUBCHEM_CACTVS_HBOND_DONOR>
0
> <PUBCHEM_CACTVS_ROTATABLE_BOND>
4
> <PUBCHEM_CACTVS_SUBSKEYS>
AAADcfB6MABAAAAAAAAAAAAAAAAAAeIAAAAwYIAAAAAAAGCBgAAAHgQAAAAADxThwgYujRIIFAisAjD3TAQA+KBxSDhASAw7AAgGAAIggQAHAAAEwAC4AAOQwPAPgAAAAAAAAADAAAQAACAAAQAACAAAAA==
> <PUBCHEM_IUPAC_OPENEYE_NAME>
[17-(5-methoxythiazol-2-yl)-10,13-dimethyl-2,3,4,7,8,9,11,12,14,15,16,17-dodecahydro-1H-cyclopenta[a]phenanthren-3-yl] acetate
> <PUBCHEM_IUPAC_CAS_NAME>
acetic acid [17-(5-methoxy-2-thiazolyl)-10,13-dimethyl-2,3,4,7,8,9,11,12,14,15,16,17-dodecahydro-1H-cyclopenta[a]phenanthren-3-yl] ester
> <PUBCHEM_IUPAC_NAME_MARKUP>
[17-(5-methoxy-1,3-thiazol-2-yl)-10,13-dimethyl-2,3,4,7,8,9,11,12,14,15,16,17-dodecahydro-1<I>H</I>-cyclopenta[a]phenanthren-3-yl] acetate
> <PUBCHEM_IUPAC_NAME>
[17-(5-methoxy-1,3-thiazol-2-yl)-10,13-dimethyl-2,3,4,7,8,9,11,12,14,15,16,17-dodecahydro-1H-cyclopenta[a]phenanthren-3-yl] acetate
> <PUBCHEM_IUPAC_SYSTEMATIC_NAME>
[17-(5-methoxy-1,3-thiazol-2-yl)-10,13-dimethyl-2,3,4,7,8,9,11,12,14,15,16,17-dodecahydro-1H-cyclopenta[a]phenanthren-3-yl] ethanoate
> <PUBCHEM_IUPAC_TRADITIONAL_NAME>
acetic acid [17-(5-methoxythiazol-2-yl)-10,13-dimethyl-2,3,4,7,8,9,11,12,14,15,16,17-dodecahydro-1H-cyclopenta[a]phenanthren-3-yl] ester
> <PUBCHEM_IUPAC_INCHI>
InChI=1S/C25H35NO3S/c1-15(27)29-17-9-11-24(2)16(13-17)5-6-18-19-7-8-21(23-26-14-22(28-4)30-23)25(19,3)12-10-20(18)24/h5,14,17-21H,6-13H2,1-4H3
> <PUBCHEM_IUPAC_INCHIKEY>
NMFMBSIXLUKQJB-UHFFFAOYSA-N
> <PUBCHEM_XLOGP3_AA>
6
> <PUBCHEM_EXACT_MASS>
429.23376515
> <PUBCHEM_MOLECULAR_FORMULA>
C25H35NO3S
> <PUBCHEM_MOLECULAR_WEIGHT>
429.6
> <PUBCHEM_OPENEYE_CAN_SMILES>
CC(=O)OC1CCC2(C3CCC4(C(C3CC=C2C1)CCC4C5=NC=C(S5)OC)C)C
> <PUBCHEM_OPENEYE_ISO_SMILES>
CC(=O)OC1CCC2(C3CCC4(C(C3CC=C2C1)CCC4C5=NC=C(S5)OC)C)C
> <PUBCHEM_CACTVS_TPSA>
76.7
> <PUBCHEM_MONOISOTOPIC_WEIGHT>
429.23376515
> <PUBCHEM_TOTAL_CHARGE>
0
> <PUBCHEM_HEAVY_ATOM_COUNT>
30
> <PUBCHEM_ATOM_DEF_STEREO_COUNT>
0
> <PUBCHEM_ATOM_UDEF_STEREO_COUNT>
7
> <PUBCHEM_BOND_DEF_STEREO_COUNT>
0
> <PUBCHEM_BOND_UDEF_STEREO_COUNT>
0
> <PUBCHEM_ISOTOPIC_ATOM_COUNT>
0
> <PUBCHEM_COMPONENT_COUNT>
1
> <PUBCHEM_CACTVS_TAUTO_COUNT>
-1
> <PUBCHEM_COORDINATE_TYPE>
1
5
255
> <PUBCHEM_BONDANNOTATIONS>
1  24  8
1  26  8
10  21  3
11  24  3
25  2  3
26  27  8
5  24  8
5  27  8
6  18  3
7  14  3
8  16  3
9  13  3
$$$$
