500133
  -OEChem-10302200282D
 57 60  0     1  0  0  0  0  0999 V2000
    6.6847   -0.1690    0.0000 O   0  0  0  0  0  0  0  0  0  0  0  0
    6.3981    1.5346    0.0000 O   0  0  0  0  0  0  0  0  0  0  0  0
    5.7110   -1.6809    0.0000 O   0  0  0  0  0  0  0  0  0  0  0  0
    4.6497   -2.5000    0.0000 O   0  0  0  0  0  0  0  0  0  0  0  0
    2.8680   -1.4895    0.0000 O   0  0  0  0  0  0  0  0  0  0  0  0
    7.2641   -0.9654    0.0000 C   0  0  3  0  0  0  0  0  0  0  0  0
    6.3981   -1.4654    0.0000 C   0  0  3  0  0  0  0  0  0  0  0  0
    8.1741   -1.4722    0.0000 C   0  0  0  0  0  0  0  0  0  0  0  0
    7.2641    0.0346    0.0000 C   0  0  3  0  0  0  0  0  0  0  0  0
    6.3820   -2.5069    0.0000 C   0  0  0  0  0  0  0  0  0  0  0  0
    8.1821   -2.5138    0.0000 C   0  0  0  0  0  0  0  0  0  0  0  0
    5.5320   -0.9654    0.0000 C   0  0  0  0  0  0  0  0  0  0  0  0
    6.3981    0.5346    0.0000 C   0  0  3  0  0  0  0  0  0  0  0  0
    7.2800   -3.0346    0.0000 C   0  0  0  0  0  0  0  0  0  0  0  0
    6.2847   -0.8618    0.0000 C   0  0  0  0  0  0  0  0  0  0  0  0
    5.5320    0.0346    0.0000 C   0  0  0  0  0  0  0  0  0  0  0  0
    9.1740   -1.4606    0.0000 C   0  0  0  0  0  0  0  0  0  0  0  0
    8.6640   -0.6005    0.0000 C   0  0  0  0  0  0  0  0  0  0  0  0
    4.6381   -1.5000    0.0000 C   0  0  0  0  0  0  0  0  0  0  0  0
    4.6381    0.5693    0.0000 C   0  0  0  0  0  0  0  0  0  0  0  0
    3.7320    0.0554    0.0000 C   0  0  0  0  0  0  0  0  0  0  0  0
    3.7320   -0.9862    0.0000 C   0  0  0  0  0  0  0  0  0  0  0  0
    7.2641    2.0346    0.0000 C   0  0  0  0  0  0  0  0  0  0  0  0
    2.8680    0.5588    0.0000 C   0  0  0  0  0  0  0  0  0  0  0  0
    7.2641    3.0346    0.0000 C   0  0  0  0  0  0  0  0  0  0  0  0
    2.8718    1.5588    0.0000 C   0  0  0  0  0  0  0  0  0  0  0  0
    2.0000    0.0621    0.0000 C   0  0  0  0  0  0  0  0  0  0  0  0
    7.7986   -0.6512    0.0000 H   0  0  0  0  0  0  0  0  0  0  0  0
    7.8010    0.3446    0.0000 H   0  0  0  0  0  0  0  0  0  0  0  0
    5.7729   -2.3914    0.0000 H   0  0  0  0  0  0  0  0  0  0  0  0
    6.1640   -3.0873    0.0000 H   0  0  0  0  0  0  0  0  0  0  0  0
    8.3957   -3.0959    0.0000 H   0  0  0  0  0  0  0  0  0  0  0  0
    8.7922   -2.4030    0.0000 H   0  0  0  0  0  0  0  0  0  0  0  0
    6.9350    0.8446    0.0000 H   0  0  0  0  0  0  0  0  0  0  0  0
    6.8791   -3.5075    0.0000 H   0  0  0  0  0  0  0  0  0  0  0  0
    7.6774   -3.5106    0.0000 H   0  0  0  0  0  0  0  0  0  0  0  0
    9.1812   -2.0806    0.0000 H   0  0  0  0  0  0  0  0  0  0  0  0
    9.7940   -1.4535    0.0000 H   0  0  0  0  0  0  0  0  0  0  0  0
    9.1669   -0.8407    0.0000 H   0  0  0  0  0  0  0  0  0  0  0  0
    9.2045   -0.9042    0.0000 H   0  0  0  0  0  0  0  0  0  0  0  0
    8.9678   -0.0600    0.0000 H   0  0  0  0  0  0  0  0  0  0  0  0
    8.1236   -0.2967    0.0000 H   0  0  0  0  0  0  0  0  0  0  0  0
    4.6453    1.1892    0.0000 H   0  0  0  0  0  0  0  0  0  0  0  0
    7.4762    1.4520    0.0000 H   0  0  0  0  0  0  0  0  0  0  0  0
    7.8747    2.1423    0.0000 H   0  0  0  0  0  0  0  0  0  0  0  0
    2.3322    0.8708    0.0000 H   0  0  0  0  0  0  0  0  0  0  0  0
    4.1164   -2.8162    0.0000 H   0  0  0  0  0  0  0  0  0  0  0  0
    2.8703   -2.1095    0.0000 H   0  0  0  0  0  0  0  0  0  0  0  0
    7.8841    3.0346    0.0000 H   0  0  0  0  0  0  0  0  0  0  0  0
    7.2641    3.6546    0.0000 H   0  0  0  0  0  0  0  0  0  0  0  0
    6.6441    3.0346    0.0000 H   0  0  0  0  0  0  0  0  0  0  0  0
    3.4918    1.5564    0.0000 H   0  0  0  0  0  0  0  0  0  0  0  0
    2.8742    2.1788    0.0000 H   0  0  0  0  0  0  0  0  0  0  0  0
    2.2518    1.5612    0.0000 H   0  0  0  0  0  0  0  0  0  0  0  0
    1.6921    0.6002    0.0000 H   0  0  0  0  0  0  0  0  0  0  0  0
    1.4619   -0.2458    0.0000 H   0  0  0  0  0  0  0  0  0  0  0  0
    2.3079   -0.4760    0.0000 H   0  0  0  0  0  0  0  0  0  0  0  0
  1  9  1  0  0  0  0
  1 15  1  0  0  0  0
  2 13  1  0  0  0  0
  2 23  1  0  0  0  0
  3 15  2  0  0  0  0
  4 19  1  0  0  0  0
  4 47  1  0  0  0  0
  5 22  1  0  0  0  0
  5 48  1  0  0  0  0
  6  7  1  0  0  0  0
  6  8  1  0  0  0  0
  6  9  1  0  0  0  0
  6 28  1  0  0  0  0
  7 10  1  0  0  0  0
  7 12  1  0  0  0  0
  7 15  1  0  0  0  0
  8 11  1  0  0  0  0
  8 17  1  0  0  0  0
  8 18  1  0  0  0  0
  9 13  1  0  0  0  0
  9 29  1  0  0  0  0
 10 14  1  0  0  0  0
 10 30  1  0  0  0  0
 10 31  1  0  0  0  0
 11 14  1  0  0  0  0
 11 32  1  0  0  0  0
 11 33  1  0  0  0  0
 12 16  1  0  0  0  0
 12 19  2  0  0  0  0
 13 16  1  0  0  0  0
 13 34  1  0  0  0  0
 14 35  1  0  0  0  0
 14 36  1  0  0  0  0
 16 20  2  0  0  0  0
 17 37  1  0  0  0  0
 17 38  1  0  0  0  0
 17 39  1  0  0  0  0
 18 40  1  0  0  0  0
 18 41  1  0  0  0  0
 18 42  1  0  0  0  0
 19 22  1  0  0  0  0
 20 21  1  0  0  0  0
 20 43  1  0  0  0  0
 21 22  2  0  0  0  0
 21 24  1  0  0  0  0
 23 25  1  0  0  0  0
 23 44  1  0  0  0  0
 23 45  1  0  0  0  0
 24 26  1  0  0  0  0
 24 27  1  0  0  0  0
 24 46  1  0  0  0  0
 25 49  1  0  0  0  0
 25 50  1  0  0  0  0
 25 51  1  0  0  0  0
 26 52  1  0  0  0  0
 26 53  1  0  0  0  0
 26 54  1  0  0  0  0
 27 55  1  0  0  0  0
 27 56  1  0  0  0  0
 27 57  1  0  0  0  0
M  END
> <PUBCHEM_COMPOUND_CID>
500133
> <PUBCHEM_COMPOUND_CANONICALIZED>
1
> <PUBCHEM_CACTVS_COMPLEXITY>
602
> <PUBCHEM_CACTVS_HBOND_ACCEPTOR>
5
> <PUBCHEM_CACTVS_HBOND_DONOR>
2
> <PUBCHEM_CACTVS_ROTATABLE_BOND>
3
> <PUBCHEM_CACTVS_SUBSKEYS>
AAADceB4OAAAAAAAAAAAAAAAAAAAASAAAAAwYMAABIAAAEjBAAAAGgAACAAADxSgmAIyDoAABgCIAiDSCAACAAAgIAAAiAEEiIgJJjKCNRqCcAEkwBELuAfK7PzP4AADAAAYQADAAAYAADCAAAAAAAAAAA==
> <PUBCHEM_IUPAC_OPENEYE_NAME>
8-ethoxy-3,4-dihydroxy-5-isopropyl-11,11-dimethyl-16-oxatetracyclo[7.5.2.01,10.02,7]hexadeca-2,4,6-trien-15-one
> <PUBCHEM_IUPAC_CAS_NAME>
8-ethoxy-3,4-dihydroxy-11,11-dimethyl-5-propan-2-yl-16-oxatetracyclo[7.5.2.01,10.02,7]hexadeca-2,4,6-trien-15-one
> <PUBCHEM_IUPAC_NAME_MARKUP>
8-ethoxy-3,4-dihydroxy-11,11-dimethyl-5-propan-2-yl-16-oxatetracyclo[7.5.2.0<SUP>1,10</SUP>.0<SUP>2,7</SUP>]hexadeca-2,4,6-trien-15-one
> <PUBCHEM_IUPAC_NAME>
8-ethoxy-3,4-dihydroxy-11,11-dimethyl-5-propan-2-yl-16-oxatetracyclo[7.5.2.01,10.02,7]hexadeca-2,4,6-trien-15-one
> <PUBCHEM_IUPAC_SYSTEMATIC_NAME>
8-ethoxy-11,11-dimethyl-3,4-bis(oxidanyl)-5-propan-2-yl-16-oxatetracyclo[7.5.2.01,10.02,7]hexadeca-2,4,6-trien-15-one
> <PUBCHEM_IUPAC_TRADITIONAL_NAME>
8-ethoxy-3,4-dihydroxy-5-isopropyl-11,11-dimethyl-16-oxatetracyclo[7.5.2.01,10.02,7]hexadeca-2,4,6-trien-15-one
> <PUBCHEM_IUPAC_INCHI>
InChI=1S/C22H30O5/c1-6-26-17-13-10-12(11(2)3)15(23)16(24)14(13)22-9-7-8-21(4,5)19(22)18(17)27-20(22)25/h10-11,17-19,23-24H,6-9H2,1-5H3
> <PUBCHEM_IUPAC_INCHIKEY>
HEUIVINVBVPWCU-UHFFFAOYSA-N
> <PUBCHEM_XLOGP3_AA>
4.3
> <PUBCHEM_EXACT_MASS>
374.20932405
> <PUBCHEM_MOLECULAR_FORMULA>
C22H30O5
> <PUBCHEM_MOLECULAR_WEIGHT>
374.5
> <PUBCHEM_OPENEYE_CAN_SMILES>
CCOC1C2C3C(CCCC3(C4=C(C(=C(C=C14)C(C)C)O)O)C(=O)O2)(C)C
> <PUBCHEM_OPENEYE_ISO_SMILES>
CCOC1C2C3C(CCCC3(C4=C(C(=C(C=C14)C(C)C)O)O)C(=O)O2)(C)C
> <PUBCHEM_CACTVS_TPSA>
76
> <PUBCHEM_MONOISOTOPIC_WEIGHT>
374.20932405
> <PUBCHEM_TOTAL_CHARGE>
0
> <PUBCHEM_HEAVY_ATOM_COUNT>
27
> <PUBCHEM_ATOM_DEF_STEREO_COUNT>
0
> <PUBCHEM_ATOM_UDEF_STEREO_COUNT>
4
> <PUBCHEM_BOND_DEF_STEREO_COUNT>
0
> <PUBCHEM_BOND_UDEF_STEREO_COUNT>
0
> <PUBCHEM_ISOTOPIC_ATOM_COUNT>
0
> <PUBCHEM_COMPONENT_COUNT>
1
> <PUBCHEM_CACTVS_TAUTO_COUNT>
-1
> <PUBCHEM_COORDINATE_TYPE>
1
5
255
> <PUBCHEM_BONDANNOTATIONS>
9  1  3
12  16  8
12  19  8
16  20  8
19  22  8
13  2  3
20  21  8
21  22  8
6  8  3
7  10  3
$$$$
