500139
  -OEChem-10302200282D
 68 72  0     1  0  0  0  0  0999 V2000
   11.3336    0.3525    0.0000 S   0  0  0  0  0  0  0  0  0  0  0  0
    3.7320   -4.2625    0.0000 O   0  0  0  0  0  0  0  0  0  0  0  0
   10.0774    2.6147    0.0000 O   0  0  0  0  0  0  0  0  0  0  0  0
    2.8718   -2.7591    0.0000 O   0  0  0  0  0  0  0  0  0  0  0  0
    9.7956    0.8551    0.0000 N   0  0  0  0  0  0  0  0  0  0  0  0
    9.1251   -1.2101    0.0000 C   0  0  3  0  0  0  0  0  0  0  0  0
    9.1251   -2.2101    0.0000 C   0  0  3  0  0  0  0  0  0  0  0  0
    8.2591   -2.7101    0.0000 C   0  0  3  0  0  0  0  0  0  0  0  0
    7.3931   -2.2101    0.0000 C   0  0  3  0  0  0  0  0  0  0  0  0
    6.4831   -2.7170    0.0000 C   0  0  3  0  0  0  0  0  0  0  0  0
   10.0713   -0.9054    0.0000 C   0  0  3  0  0  0  0  0  0  0  0  0
    8.2591   -0.7101    0.0000 C   0  0  0  0  0  0  0  0  0  0  0  0
    7.3931   -1.2101    0.0000 C   0  0  0  0  0  0  0  0  0  0  0  0
   10.0713   -2.5149    0.0000 C   0  0  0  0  0  0  0  0  0  0  0  0
   10.6550   -1.7101    0.0000 C   0  0  0  0  0  0  0  0  0  0  0  0
    8.2752   -3.7516    0.0000 C   0  0  0  0  0  0  0  0  0  0  0  0
    6.4750   -3.7586    0.0000 C   0  0  0  0  0  0  0  0  0  0  0  0
    9.1251   -0.2101    0.0000 C   0  0  0  0  0  0  0  0  0  0  0  0
    5.5562   -2.1529    0.0000 C   0  0  0  0  0  0  0  0  0  0  0  0
    7.3771   -4.2794    0.0000 C   0  0  0  0  0  0  0  0  0  0  0  0
    6.4908   -1.7170    0.0000 C   0  0  0  0  0  0  0  0  0  0  0  0
    5.5396   -4.3083    0.0000 C   0  0  0  0  0  0  0  0  0  0  0  0
   10.3820    0.0451    0.0000 C   0  0  0  0  0  0  0  0  0  0  0  0
    4.6084   -2.6808    0.0000 C   0  0  0  0  0  0  0  0  0  0  0  0
    4.6000   -3.7658    0.0000 C   0  0  3  0  0  0  0  0  0  0  0  0
   10.3848    1.6631    0.0000 C   0  0  0  0  0  0  0  0  0  0  0  0
   11.3353    1.3525    0.0000 C   0  0  0  0  0  0  0  0  0  0  0  0
    2.8680   -3.7591    0.0000 C   0  0  0  0  0  0  0  0  0  0  0  0
    2.0000   -4.2558    0.0000 C   0  0  0  0  0  0  0  0  0  0  0  0
   10.7478    3.3567    0.0000 C   0  0  0  0  0  0  0  0  0  0  0  0
   10.4405    4.3083    0.0000 C   0  0  0  0  0  0  0  0  0  0  0  0
    9.1907   -2.8267    0.0000 H   0  0  0  0  0  0  0  0  0  0  0  0
    8.7984   -3.0160    0.0000 H   0  0  0  0  0  0  0  0  0  0  0  0
    7.9300   -1.9001    0.0000 H   0  0  0  0  0  0  0  0  0  0  0  0
   10.6838   -0.8092    0.0000 H   0  0  0  0  0  0  0  0  0  0  0  0
    8.6576   -0.2352    0.0000 H   0  0  0  0  0  0  0  0  0  0  0  0
    7.8606   -0.2352    0.0000 H   0  0  0  0  0  0  0  0  0  0  0  0
    7.1810   -0.6275    0.0000 H   0  0  0  0  0  0  0  0  0  0  0  0
    6.7825   -1.3178    0.0000 H   0  0  0  0  0  0  0  0  0  0  0  0
    9.8203   -3.0818    0.0000 H   0  0  0  0  0  0  0  0  0  0  0  0
   10.6087   -2.8241    0.0000 H   0  0  0  0  0  0  0  0  0  0  0  0
   11.1158   -2.1249    0.0000 H   0  0  0  0  0  0  0  0  0  0  0  0
   11.1158   -1.2954    0.0000 H   0  0  0  0  0  0  0  0  0  0  0  0
    8.4932   -4.3320    0.0000 H   0  0  0  0  0  0  0  0  0  0  0  0
    8.8843   -3.6362    0.0000 H   0  0  0  0  0  0  0  0  0  0  0  0
    9.7451   -0.2101    0.0000 H   0  0  0  0  0  0  0  0  0  0  0  0
    9.1251    0.4099    0.0000 H   0  0  0  0  0  0  0  0  0  0  0  0
    8.5051   -0.2101    0.0000 H   0  0  0  0  0  0  0  0  0  0  0  0
    5.9644   -1.6862    0.0000 H   0  0  0  0  0  0  0  0  0  0  0  0
    5.1663   -1.6709    0.0000 H   0  0  0  0  0  0  0  0  0  0  0  0
    7.3795   -4.8994    0.0000 H   0  0  0  0  0  0  0  0  0  0  0  0
    7.1108   -1.7218    0.0000 H   0  0  0  0  0  0  0  0  0  0  0  0
    6.4956   -1.0970    0.0000 H   0  0  0  0  0  0  0  0  0  0  0  0
    5.8708   -1.7122    0.0000 H   0  0  0  0  0  0  0  0  0  0  0  0
    5.1423   -4.7843    0.0000 H   0  0  0  0  0  0  0  0  0  0  0  0
    5.9406   -4.7812    0.0000 H   0  0  0  0  0  0  0  0  0  0  0  0
    4.4038   -2.0956    0.0000 H   0  0  0  0  0  0  0  0  0  0  0  0
    3.9967   -2.7822    0.0000 H   0  0  0  0  0  0  0  0  0  0  0  0
    4.0648   -3.4527    0.0000 H   0  0  0  0  0  0  0  0  0  0  0  0
   11.8375    1.7160    0.0000 H   0  0  0  0  0  0  0  0  0  0  0  0
    1.6921   -3.7177    0.0000 H   0  0  0  0  0  0  0  0  0  0  0  0
    1.4619   -4.5637    0.0000 H   0  0  0  0  0  0  0  0  0  0  0  0
    2.3079   -4.7939    0.0000 H   0  0  0  0  0  0  0  0  0  0  0  0
   11.1287    2.8675    0.0000 H   0  0  0  0  0  0  0  0  0  0  0  0
   11.2958    3.6468    0.0000 H   0  0  0  0  0  0  0  0  0  0  0  0
   11.0305    4.4989    0.0000 H   0  0  0  0  0  0  0  0  0  0  0  0
   10.2499    4.8983    0.0000 H   0  0  0  0  0  0  0  0  0  0  0  0
    9.8505    4.1177    0.0000 H   0  0  0  0  0  0  0  0  0  0  0  0
  1 23  1  0  0  0  0
  1 27  1  0  0  0  0
  2 25  1  0  0  0  0
  2 28  1  0  0  0  0
  3 26  1  0  0  0  0
  3 30  1  0  0  0  0
  4 28  2  0  0  0  0
  5 23  2  0  0  0  0
  5 26  1  0  0  0  0
  6  7  1  0  0  0  0
  6 11  1  0  0  0  0
  6 12  1  0  0  0  0
  6 18  1  0  0  0  0
  7  8  1  0  0  0  0
  7 14  1  0  0  0  0
  7 32  1  0  0  0  0
  8  9  1  0  0  0  0
  8 16  1  0  0  0  0
  8 33  1  0  0  0  0
  9 10  1  0  0  0  0
  9 13  1  0  0  0  0
  9 34  1  0  0  0  0
 10 17  1  0  0  0  0
 10 19  1  0  0  0  0
 10 21  1  0  0  0  0
 11 15  1  0  0  0  0
 11 23  1  0  0  0  0
 11 35  1  0  0  0  0
 12 13  1  0  0  0  0
 12 36  1  0  0  0  0
 12 37  1  0  0  0  0
 13 38  1  0  0  0  0
 13 39  1  0  0  0  0
 14 15  1  0  0  0  0
 14 40  1  0  0  0  0
 14 41  1  0  0  0  0
 15 42  1  0  0  0  0
 15 43  1  0  0  0  0
 16 20  1  0  0  0  0
 16 44  1  0  0  0  0
 16 45  1  0  0  0  0
 17 20  2  0  0  0  0
 17 22  1  0  0  0  0
 18 46  1  0  0  0  0
 18 47  1  0  0  0  0
 18 48  1  0  0  0  0
 19 24  1  0  0  0  0
 19 49  1  0  0  0  0
 19 50  1  0  0  0  0
 20 51  1  0  0  0  0
 21 52  1  0  0  0  0
 21 53  1  0  0  0  0
 21 54  1  0  0  0  0
 22 25  1  0  0  0  0
 22 55  1  0  0  0  0
 22 56  1  0  0  0  0
 24 25  1  0  0  0  0
 24 57  1  0  0  0  0
 24 58  1  0  0  0  0
 25 59  1  0  0  0  0
 26 27  2  0  0  0  0
 27 60  1  0  0  0  0
 28 29  1  0  0  0  0
 29 61  1  0  0  0  0
 29 62  1  0  0  0  0
 29 63  1  0  0  0  0
 30 31  1  0  0  0  0
 30 64  1  0  0  0  0
 30 65  1  0  0  0  0
 31 66  1  0  0  0  0
 31 67  1  0  0  0  0
 31 68  1  0  0  0  0
M  END
> <PUBCHEM_COMPOUND_CID>
500139
> <PUBCHEM_COMPOUND_CANONICALIZED>
1
> <PUBCHEM_CACTVS_COMPLEXITY>
740
> <PUBCHEM_CACTVS_HBOND_ACCEPTOR>
5
> <PUBCHEM_CACTVS_HBOND_DONOR>
0
> <PUBCHEM_CACTVS_ROTATABLE_BOND>
5
> <PUBCHEM_CACTVS_SUBSKEYS>
AAADcfB6MABAAAAAAAAAAAAAAAAAAeIAAAAwYIAAAAAAAGCBgAAAHgQAAAAADxSlwgKijRIIFAisAiDyTAAA+KBhCjgACAYyIAgEAAIggQAOCACEwACoAAOQwPAPgAAAAAAAAADAAAQAACAAAQAACAAAAA==
> <PUBCHEM_IUPAC_OPENEYE_NAME>
[17-(4-ethoxythiazol-2-yl)-10,13-dimethyl-2,3,4,7,8,9,11,12,14,15,16,17-dodecahydro-1H-cyclopenta[a]phenanthren-3-yl] acetate
> <PUBCHEM_IUPAC_CAS_NAME>
acetic acid [17-(4-ethoxy-2-thiazolyl)-10,13-dimethyl-2,3,4,7,8,9,11,12,14,15,16,17-dodecahydro-1H-cyclopenta[a]phenanthren-3-yl] ester
> <PUBCHEM_IUPAC_NAME_MARKUP>
[17-(4-ethoxy-1,3-thiazol-2-yl)-10,13-dimethyl-2,3,4,7,8,9,11,12,14,15,16,17-dodecahydro-1<I>H</I>-cyclopenta[a]phenanthren-3-yl] acetate
> <PUBCHEM_IUPAC_NAME>
[17-(4-ethoxy-1,3-thiazol-2-yl)-10,13-dimethyl-2,3,4,7,8,9,11,12,14,15,16,17-dodecahydro-1H-cyclopenta[a]phenanthren-3-yl] acetate
> <PUBCHEM_IUPAC_SYSTEMATIC_NAME>
[17-(4-ethoxy-1,3-thiazol-2-yl)-10,13-dimethyl-2,3,4,7,8,9,11,12,14,15,16,17-dodecahydro-1H-cyclopenta[a]phenanthren-3-yl] ethanoate
> <PUBCHEM_IUPAC_TRADITIONAL_NAME>
acetic acid [17-(4-ethoxythiazol-2-yl)-10,13-dimethyl-2,3,4,7,8,9,11,12,14,15,16,17-dodecahydro-1H-cyclopenta[a]phenanthren-3-yl] ester
> <PUBCHEM_IUPAC_INCHI>
InChI=1S/C26H37NO3S/c1-5-29-23-15-31-24(27-23)22-9-8-20-19-7-6-17-14-18(30-16(2)28)10-12-25(17,3)21(19)11-13-26(20,22)4/h6,15,18-22H,5,7-14H2,1-4H3
> <PUBCHEM_IUPAC_INCHIKEY>
CCTAGMXCDIRGHT-UHFFFAOYSA-N
> <PUBCHEM_XLOGP3_AA>
6.4
> <PUBCHEM_EXACT_MASS>
443.24941522
> <PUBCHEM_MOLECULAR_FORMULA>
C26H37NO3S
> <PUBCHEM_MOLECULAR_WEIGHT>
443.6
> <PUBCHEM_OPENEYE_CAN_SMILES>
CCOC1=CSC(=N1)C2CCC3C2(CCC4C3CC=C5C4(CCC(C5)OC(=O)C)C)C
> <PUBCHEM_OPENEYE_ISO_SMILES>
CCOC1=CSC(=N1)C2CCC3C2(CCC4C3CC=C5C4(CCC(C5)OC(=O)C)C)C
> <PUBCHEM_CACTVS_TPSA>
76.7
> <PUBCHEM_MONOISOTOPIC_WEIGHT>
443.24941522
> <PUBCHEM_TOTAL_CHARGE>
0
> <PUBCHEM_HEAVY_ATOM_COUNT>
31
> <PUBCHEM_ATOM_DEF_STEREO_COUNT>
0
> <PUBCHEM_ATOM_UDEF_STEREO_COUNT>
7
> <PUBCHEM_BOND_DEF_STEREO_COUNT>
0
> <PUBCHEM_BOND_UDEF_STEREO_COUNT>
0
> <PUBCHEM_ISOTOPIC_ATOM_COUNT>
0
> <PUBCHEM_COMPONENT_COUNT>
1
> <PUBCHEM_CACTVS_TAUTO_COUNT>
-1
> <PUBCHEM_COORDINATE_TYPE>
1
5
255
> <PUBCHEM_BONDANNOTATIONS>
1  23  8
1  27  8
10  21  3
11  23  3
25  2  3
26  27  8
5  23  8
5  26  8
6  18  3
7  14  3
8  16  3
9  13  3
$$$$
