500196
  -OEChem-10302200282D
120125  0     1  0  0  0  0  0999 V2000
    8.0910   -0.9959    0.0000 P   0  0  3  0  0  0  0  0  0  0  0  0
    8.9551   -1.4993    0.0000 O   0  0  0  0  0  0  0  0  0  0  0  0
    7.2270   -0.4926    0.0000 O   0  0  0  0  0  0  0  0  0  0  0  0
    7.5877   -1.8600    0.0000 O   0  0  0  0  0  0  0  0  0  0  0  0
    8.5944   -0.1318    0.0000 O   0  0  0  0  0  0  0  0  0  0  0  0
    5.3942    0.5090    0.0000 O   0  0  0  0  0  0  0  0  0  0  0  0
    2.4287    0.9374    0.0000 O   0  0  0  0  0  0  0  0  0  0  0  0
    2.8040    4.3811    0.0000 O   0  0  0  0  0  0  0  0  0  0  0  0
    8.0777   -4.4600    0.0000 N   0  3  0  0  0  0  0  0  0  0  0  0
    4.3681   -1.8665    0.0000 N   0  0  0  0  0  0  0  0  0  0  0  0
    4.0137    1.6358    0.0000 N   0  0  0  0  0  0  0  0  0  0  0  0
    3.4159   -2.1718    0.0000 N   0  3  0  0  0  0  0  0  0  0  0  0
    2.6164    2.6592    0.0000 N   0  0  0  0  0  0  0  0  0  0  0  0
    2.4636   -2.4772    0.0000 N   0  5  0  0  0  0  0  0  0  0  0  0
   14.3482    1.5531    0.0000 C   0  0  3  0  0  0  0  0  0  0  0  0
   14.3482    0.5531    0.0000 C   0  0  3  0  0  0  0  0  0  0  0  0
   13.4822    0.0531    0.0000 C   0  0  3  0  0  0  0  0  0  0  0  0
   12.6162    0.5531    0.0000 C   0  0  3  0  0  0  0  0  0  0  0  0
   15.2944    1.8578    0.0000 C   0  0  3  0  0  0  0  0  0  0  0  0
   13.4822    2.0531    0.0000 C   0  0  0  0  0  0  0  0  0  0  0  0
   11.7062    0.0462    0.0000 C   0  0  3  0  0  0  0  0  0  0  0  0
   15.2944    0.2483    0.0000 C   0  0  0  0  0  0  0  0  0  0  0  0
   12.6162    1.5531    0.0000 C   0  0  0  0  0  0  0  0  0  0  0  0
   15.8781    1.0531    0.0000 C   0  0  0  0  0  0  0  0  0  0  0  0
   13.4983   -0.9884    0.0000 C   0  0  0  0  0  0  0  0  0  0  0  0
   14.3482    2.5531    0.0000 C   0  0  0  0  0  0  0  0  0  0  0  0
   11.6981   -0.9954    0.0000 C   0  0  0  0  0  0  0  0  0  0  0  0
   15.6051    2.8083    0.0000 C   0  0  3  0  0  0  0  0  0  0  0  0
   10.7793    0.6103    0.0000 C   0  0  0  0  0  0  0  0  0  0  0  0
   12.6002   -1.5162    0.0000 C   0  0  0  0  0  0  0  0  0  0  0  0
   11.7139    1.0462    0.0000 C   0  0  0  0  0  0  0  0  0  0  0  0
   10.7627   -1.5451    0.0000 C   0  0  0  0  0  0  0  0  0  0  0  0
    9.8314    0.0823    0.0000 C   0  0  0  0  0  0  0  0  0  0  0  0
    9.8231   -1.0026    0.0000 C   0  0  3  0  0  0  0  0  0  0  0  0
   14.9373    3.5526    0.0000 C   0  0  0  0  0  0  0  0  0  0  0  0
   16.5836    3.0145    0.0000 C   0  0  0  0  0  0  0  0  0  0  0  0
   16.8943    3.9650    0.0000 C   0  0  0  0  0  0  0  0  0  0  0  0
   17.8728    4.1713    0.0000 C   0  0  3  0  0  0  0  0  0  0  0  0
   18.1834    5.1218    0.0000 C   0  0  0  0  0  0  0  0  0  0  0  0
   18.5406    3.4270    0.0000 C   0  0  0  0  0  0  0  0  0  0  0  0
   19.1619    5.3280    0.0000 C   0  0  0  0  0  0  0  0  0  0  0  0
   17.5156    5.8661    0.0000 C   0  0  0  0  0  0  0  0  0  0  0  0
   19.5191    3.6332    0.0000 C   0  0  0  0  0  0  0  0  0  0  0  0
    6.3590   -0.9893    0.0000 C   0  0  0  0  0  0  0  0  0  0  0  0
    8.0844   -2.7280    0.0000 C   0  0  0  0  0  0  0  0  0  0  0  0
    5.4949   -0.4859    0.0000 C   0  0  3  0  0  0  0  0  0  0  0  0
    7.5810   -3.5921    0.0000 C   0  0  0  0  0  0  0  0  0  0  0  0
    4.5798   -0.8891    0.0000 C   0  0  3  0  0  0  0  0  0  0  0  0
    3.9136   -0.1434    0.0000 C   0  0  0  0  0  0  0  0  0  0  0  0
    4.4169    0.7207    0.0000 C   0  0  3  0  0  0  0  0  0  0  0  0
    4.6046    2.4425    0.0000 C   0  0  0  0  0  0  0  0  0  0  0  0
    3.0196    1.7441    0.0000 C   0  0  0  0  0  0  0  0  0  0  0  0
    8.5744   -5.3280    0.0000 C   0  0  0  0  0  0  0  0  0  0  0  0
    4.2014    3.3576    0.0000 C   0  0  0  0  0  0  0  0  0  0  0  0
    3.2072    3.4660    0.0000 C   0  0  0  0  0  0  0  0  0  0  0  0
    4.7923    4.1644    0.0000 C   0  0  0  0  0  0  0  0  0  0  0  0
   14.4138   -0.0635    0.0000 H   0  0  0  0  0  0  0  0  0  0  0  0
   14.0215   -0.2528    0.0000 H   0  0  0  0  0  0  0  0  0  0  0  0
   13.1531    0.8631    0.0000 H   0  0  0  0  0  0  0  0  0  0  0  0
   15.9069    1.9540    0.0000 H   0  0  0  0  0  0  0  0  0  0  0  0
   13.8807    2.5280    0.0000 H   0  0  0  0  0  0  0  0  0  0  0  0
   13.0837    2.5280    0.0000 H   0  0  0  0  0  0  0  0  0  0  0  0
   15.0434   -0.3186    0.0000 H   0  0  0  0  0  0  0  0  0  0  0  0
   15.8318   -0.0609    0.0000 H   0  0  0  0  0  0  0  0  0  0  0  0
   12.4041    2.1357    0.0000 H   0  0  0  0  0  0  0  0  0  0  0  0
   12.0056    1.4454    0.0000 H   0  0  0  0  0  0  0  0  0  0  0  0
   16.3389    0.6383    0.0000 H   0  0  0  0  0  0  0  0  0  0  0  0
   16.3389    1.4678    0.0000 H   0  0  0  0  0  0  0  0  0  0  0  0
   13.7163   -1.5688    0.0000 H   0  0  0  0  0  0  0  0  0  0  0  0
   14.1074   -0.8730    0.0000 H   0  0  0  0  0  0  0  0  0  0  0  0
   14.9682    2.5531    0.0000 H   0  0  0  0  0  0  0  0  0  0  0  0
   14.3482    3.1731    0.0000 H   0  0  0  0  0  0  0  0  0  0  0  0
   13.7282    2.5531    0.0000 H   0  0  0  0  0  0  0  0  0  0  0  0
   15.7977    3.3976    0.0000 H   0  0  0  0  0  0  0  0  0  0  0  0
   11.1875    1.0770    0.0000 H   0  0  0  0  0  0  0  0  0  0  0  0
   10.3894    1.0923    0.0000 H   0  0  0  0  0  0  0  0  0  0  0  0
   12.6026   -2.1362    0.0000 H   0  0  0  0  0  0  0  0  0  0  0  0
   12.3339    1.0414    0.0000 H   0  0  0  0  0  0  0  0  0  0  0  0
   11.7187    1.6662    0.0000 H   0  0  0  0  0  0  0  0  0  0  0  0
   11.0939    1.0510    0.0000 H   0  0  0  0  0  0  0  0  0  0  0  0
   10.3654   -2.0211    0.0000 H   0  0  0  0  0  0  0  0  0  0  0  0
   11.1637   -2.0180    0.0000 H   0  0  0  0  0  0  0  0  0  0  0  0
    9.6269    0.6676    0.0000 H   0  0  0  0  0  0  0  0  0  0  0  0
    9.2198   -0.0190    0.0000 H   0  0  0  0  0  0  0  0  0  0  0  0
    9.8219   -1.6226    0.0000 H   0  0  0  0  0  0  0  0  0  0  0  0
   15.3987    3.9667    0.0000 H   0  0  0  0  0  0  0  0  0  0  0  0
   14.5232    4.0141    0.0000 H   0  0  0  0  0  0  0  0  0  0  0  0
   14.4758    3.1386    0.0000 H   0  0  0  0  0  0  0  0  0  0  0  0
   16.9977    2.5531    0.0000 H   0  0  0  0  0  0  0  0  0  0  0  0
   16.4802    4.4265    0.0000 H   0  0  0  0  0  0  0  0  0  0  0  0
   17.6802    3.5819    0.0000 H   0  0  0  0  0  0  0  0  0  0  0  0
   18.5975    4.6603    0.0000 H   0  0  0  0  0  0  0  0  0  0  0  0
   18.0143    3.0993    0.0000 H   0  0  0  0  0  0  0  0  0  0  0  0
   18.7719    2.8517    0.0000 H   0  0  0  0  0  0  0  0  0  0  0  0
   19.2898    4.7213    0.0000 H   0  0  0  0  0  0  0  0  0  0  0  0
   19.7686    5.4559    0.0000 H   0  0  0  0  0  0  0  0  0  0  0  0
   19.0341    5.9347    0.0000 H   0  0  0  0  0  0  0  0  0  0  0  0
   17.9771    6.2802    0.0000 H   0  0  0  0  0  0  0  0  0  0  0  0
   17.1015    6.3276    0.0000 H   0  0  0  0  0  0  0  0  0  0  0  0
   17.0541    5.4520    0.0000 H   0  0  0  0  0  0  0  0  0  0  0  0
   19.6470    3.0265    0.0000 H   0  0  0  0  0  0  0  0  0  0  0  0
   20.1258    3.7610    0.0000 H   0  0  0  0  0  0  0  0  0  0  0  0
   19.3913    4.2399    0.0000 H   0  0  0  0  0  0  0  0  0  0  0  0
    5.9586   -1.4627    0.0000 H   0  0  0  0  0  0  0  0  0  0  0  0
    6.7557   -1.4657    0.0000 H   0  0  0  0  0  0  0  0  0  0  0  0
    8.5578   -3.1283    0.0000 H   0  0  0  0  0  0  0  0  0  0  0  0
    8.5608   -2.3313    0.0000 H   0  0  0  0  0  0  0  0  0  0  0  0
    6.0162   -0.1503    0.0000 H   0  0  0  0  0  0  0  0  0  0  0  0
    7.1076   -3.1917    0.0000 H   0  0  0  0  0  0  0  0  0  0  0  0
    7.1046   -3.9888    0.0000 H   0  0  0  0  0  0  0  0  0  0  0  0
    5.0601   -1.2812    0.0000 H   0  0  0  0  0  0  0  0  0  0  0  0
    3.4134    0.2229    0.0000 H   0  0  0  0  0  0  0  0  0  0  0  0
    3.4969   -0.6026    0.0000 H   0  0  0  0  0  0  0  0  0  0  0  0
    3.7979    0.7555    0.0000 H   0  0  0  0  0  0  0  0  0  0  0  0
    5.2209    2.3753    0.0000 H   0  0  0  0  0  0  0  0  0  0  0  0
    8.8823   -5.8661    0.0000 H   0  0  0  0  0  0  0  0  0  0  0  0
    2.0000    2.7264    0.0000 H   0  0  0  0  0  0  0  0  0  0  0  0
    5.2924    3.7980    0.0000 H   0  0  0  0  0  0  0  0  0  0  0  0
    5.1586    4.6646    0.0000 H   0  0  0  0  0  0  0  0  0  0  0  0
    4.2921    4.5307    0.0000 H   0  0  0  0  0  0  0  0  0  0  0  0
  1  2  1  0  0  0  0
  1  3  1  0  0  0  0
  1  4  1  0  0  0  0
  1  5  2  0  0  0  0
  2 34  1  0  0  0  0
  3 44  1  0  0  0  0
  4 45  1  0  0  0  0
  6 46  1  0  0  0  0
  6 50  1  0  0  0  0
  7 52  2  0  0  0  0
  8 55  2  0  0  0  0
  9 47  1  0  0  0  0
  9 53  3  0  0  0  0
 10 12  2  0  0  0  0
 10 48  1  0  0  0  0
 11 50  1  0  0  0  0
 11 51  1  0  0  0  0
 11 52  1  0  0  0  0
 12 14  2  0  0  0  0
 13 52  1  0  0  0  0
 13 55  1  0  0  0  0
 13117  1  0  0  0  0
 15 16  1  0  0  0  0
 15 19  1  0  0  0  0
 15 20  1  0  0  0  0
 15 26  1  0  0  0  0
 16 17  1  0  0  0  0
 16 22  1  0  0  0  0
 16 57  1  0  0  0  0
 17 18  1  0  0  0  0
 17 25  1  0  0  0  0
 17 58  1  0  0  0  0
 18 21  1  0  0  0  0
 18 23  1  0  0  0  0
 18 59  1  0  0  0  0
 19 24  1  0  0  0  0
 19 28  1  0  0  0  0
 19 60  1  0  0  0  0
 20 23  1  0  0  0  0
 20 61  1  0  0  0  0
 20 62  1  0  0  0  0
 21 27  1  0  0  0  0
 21 29  1  0  0  0  0
 21 31  1  0  0  0  0
 22 24  1  0  0  0  0
 22 63  1  0  0  0  0
 22 64  1  0  0  0  0
 23 65  1  0  0  0  0
 23 66  1  0  0  0  0
 24 67  1  0  0  0  0
 24 68  1  0  0  0  0
 25 30  1  0  0  0  0
 25 69  1  0  0  0  0
 25 70  1  0  0  0  0
 26 71  1  0  0  0  0
 26 72  1  0  0  0  0
 26 73  1  0  0  0  0
 27 30  2  0  0  0  0
 27 32  1  0  0  0  0
 28 35  1  0  0  0  0
 28 36  1  0  0  0  0
 28 74  1  0  0  0  0
 29 33  1  0  0  0  0
 29 75  1  0  0  0  0
 29 76  1  0  0  0  0
 30 77  1  0  0  0  0
 31 78  1  0  0  0  0
 31 79  1  0  0  0  0
 31 80  1  0  0  0  0
 32 34  1  0  0  0  0
 32 81  1  0  0  0  0
 32 82  1  0  0  0  0
 33 34  1  0  0  0  0
 33 83  1  0  0  0  0
 33 84  1  0  0  0  0
 34 85  1  0  0  0  0
 35 86  1  0  0  0  0
 35 87  1  0  0  0  0
 35 88  1  0  0  0  0
 36 37  2  3  0  0  0
 36 89  1  0  0  0  0
 37 38  1  0  0  0  0
 37 90  1  0  0  0  0
 38 39  1  0  0  0  0
 38 40  1  0  0  0  0
 38 91  1  0  0  0  0
 39 41  1  0  0  0  0
 39 42  1  0  0  0  0
 39 92  1  0  0  0  0
 40 43  1  0  0  0  0
 40 93  1  0  0  0  0
 40 94  1  0  0  0  0
 41 95  1  0  0  0  0
 41 96  1  0  0  0  0
 41 97  1  0  0  0  0
 42 98  1  0  0  0  0
 42 99  1  0  0  0  0
 42100  1  0  0  0  0
 43101  1  0  0  0  0
 43102  1  0  0  0  0
 43103  1  0  0  0  0
 44 46  1  0  0  0  0
 44104  1  0  0  0  0
 44105  1  0  0  0  0
 45 47  1  0  0  0  0
 45106  1  0  0  0  0
 45107  1  0  0  0  0
 46 48  1  0  0  0  0
 46108  1  0  0  0  0
 47109  1  0  0  0  0
 47110  1  0  0  0  0
 48 49  1  0  0  0  0
 48111  1  0  0  0  0
 49 50  1  0  0  0  0
 49112  1  0  0  0  0
 49113  1  0  0  0  0
 50114  1  0  0  0  0
 51 54  2  0  0  0  0
 51115  1  0  0  0  0
 53116  1  0  0  0  0
 54 55  1  0  0  0  0
 54 56  1  0  0  0  0
 56118  1  0  0  0  0
 56119  1  0  0  0  0
 56120  1  0  0  0  0
M  CHG  3   9   1  12   1  14  -1
M  END
> <PUBCHEM_COMPOUND_CID>
500196
> <PUBCHEM_COMPOUND_CANONICALIZED>
1
> <PUBCHEM_CACTVS_COMPLEXITY>
1730
> <PUBCHEM_CACTVS_HBOND_ACCEPTOR>
9
> <PUBCHEM_CACTVS_HBOND_DONOR>
1
> <PUBCHEM_CACTVS_ROTATABLE_BOND>
15
> <PUBCHEM_CACTVS_SUBSKEYS>
AAADcfB/uAIAAAAAAAAAAAAAAAAAAaIAAAAwYIEAAAAAAGCAAAAAHgAYACAADzzhgAYDAAPABRCaQiFWUICAAAAgAAAICAEIAEiDAAIAwQAPAAAOxyIKAMOw8PIPgAAAAAAAAADAAAQAACAAAQAACAAAAA==
> <PUBCHEM_IUPAC_OPENEYE_NAME>
2-[[3-azido-5-(5-methyl-2,4-dioxo-pyrimidin-1-yl)tetrahydrofuran-2-yl]methoxy-[[17-(4-ethyl-1,5-dimethyl-hex-2-enyl)-10,13-dimethyl-2,3,4,7,8,9,11,12,14,15,16,17-dodecahydro-1H-cyclopenta[a]phenanthren-3-yl]oxy]phosphoryl]oxyethyl-methylidyne-ammonium
> <PUBCHEM_IUPAC_CAS_NAME>
2-[[3-azido-5-(5-methyl-2,4-dioxo-1-pyrimidinyl)-2-oxolanyl]methoxy-[[17-(5-ethyl-6-methylhept-3-en-2-yl)-10,13-dimethyl-2,3,4,7,8,9,11,12,14,15,16,17-dodecahydro-1H-cyclopenta[a]phenanthren-3-yl]oxy]phosphoryl]oxyethyl-methylidyneammonium
> <PUBCHEM_IUPAC_NAME_MARKUP>
2-[[3-azido-5-(5-methyl-2,4-dioxopyrimidin-1-yl)oxolan-2-yl]methoxy-[[17-(5-ethyl-6-methylhept-3-en-2-yl)-10,13-dimethyl-2,3,4,7,8,9,11,12,14,15,16,17-dodecahydro-1<I>H</I>-cyclopenta[a]phenanthren-3-yl]oxy]phosphoryl]oxyethyl-methylidyneazanium
> <PUBCHEM_IUPAC_NAME>
2-[[3-azido-5-(5-methyl-2,4-dioxopyrimidin-1-yl)oxolan-2-yl]methoxy-[[17-(5-ethyl-6-methylhept-3-en-2-yl)-10,13-dimethyl-2,3,4,7,8,9,11,12,14,15,16,17-dodecahydro-1H-cyclopenta[a]phenanthren-3-yl]oxy]phosphoryl]oxyethyl-methylidyneazanium
> <PUBCHEM_IUPAC_SYSTEMATIC_NAME>
2-[[3-azido-5-[5-methyl-2,4-bis(oxidanylidene)pyrimidin-1-yl]oxolan-2-yl]methoxy-[[17-(5-ethyl-6-methyl-hept-3-en-2-yl)-10,13-dimethyl-2,3,4,7,8,9,11,12,14,15,16,17-dodecahydro-1H-cyclopenta[a]phenanthren-3-yl]oxy]phosphoryl]oxyethyl-methylidyne-azanium
> <PUBCHEM_IUPAC_TRADITIONAL_NAME>
2-[[3-azido-5-(2,4-diketo-5-methyl-pyrimidin-1-yl)tetrahydrofuran-2-yl]methoxy-[[17-(4-ethyl-1,5-dimethyl-hex-2-enyl)-10,13-dimethyl-2,3,4,7,8,9,11,12,14,15,16,17-dodecahydro-1H-cyclopenta[a]phenanthren-3-yl]oxy]phosphoryl]oxyethyl-methylidyne-ammonium
> <PUBCHEM_IUPAC_INCHI>
InChI=1S/C42H63N6O7P/c1-9-29(26(2)3)11-10-27(4)33-14-15-34-32-13-12-30-22-31(16-18-41(30,6)35(32)17-19-42(33,34)7)55-56(51,52-21-20-44-8)53-25-37-36(46-47-43)23-38(54-37)48-24-28(5)39(49)45-40(48)50/h8,10-12,24,26-27,29,31-38H,9,13-23,25H2,1-7H3/p+1
> <PUBCHEM_IUPAC_INCHIKEY>
FAJMRYHSJIXSGB-UHFFFAOYSA-O
> <PUBCHEM_XLOGP3_AA>
8.7
> <PUBCHEM_EXACT_MASS>
795.45741040
> <PUBCHEM_MOLECULAR_FORMULA>
C42H64N6O7P+
> <PUBCHEM_MOLECULAR_WEIGHT>
796.0
> <PUBCHEM_OPENEYE_CAN_SMILES>
CCC(C=CC(C)C1CCC2C1(CCC3C2CC=C4C3(CCC(C4)OP(=O)(OCC[N+]#C)OCC5C(CC(O5)N6C=C(C(=O)NC6=O)C)N=[N+]=[N-])C)C)C(C)C
> <PUBCHEM_OPENEYE_ISO_SMILES>
CCC(C=CC(C)C1CCC2C1(CCC3C2CC=C4C3(CCC(C4)OP(=O)(OCC[N+]#C)OCC5C(CC(O5)N6C=C(C(=O)NC6=O)C)N=[N+]=[N-])C)C)C(C)C
> <PUBCHEM_CACTVS_TPSA>
122
> <PUBCHEM_MONOISOTOPIC_WEIGHT>
795.45741040
> <PUBCHEM_TOTAL_CHARGE>
1
> <PUBCHEM_HEAVY_ATOM_COUNT>
56
> <PUBCHEM_ATOM_DEF_STEREO_COUNT>
0
> <PUBCHEM_ATOM_UDEF_STEREO_COUNT>
13
> <PUBCHEM_BOND_DEF_STEREO_COUNT>
0
> <PUBCHEM_BOND_UDEF_STEREO_COUNT>
1
> <PUBCHEM_ISOTOPIC_ATOM_COUNT>
0
> <PUBCHEM_COMPONENT_COUNT>
1
> <PUBCHEM_CACTVS_TAUTO_COUNT>
-1
> <PUBCHEM_COORDINATE_TYPE>
1
5
255
> <PUBCHEM_BONDANNOTATIONS>
1  4  3
48  10  3
50  11  3
11  51  8
11  52  8
13  52  8
13  55  8
15  26  3
16  22  3
17  25  3
18  23  3
19  24  3
34  2  3
21  31  3
28  35  3
36  37  1
38  40  3
46  44  3
51  54  8
54  55  8
$$$$
