500126
  -OEChem-10302200282D
120124  0     1  0  0  0  0  0999 V2000
    6.0010   -4.5366    0.0000 S   0  0  0  0  0  0  0  0  0  0  0  0
    9.4651    2.4634    0.0000 O   0  0  0  0  0  0  0  0  0  0  0  0
    8.5991   -2.0366    0.0000 O   0  0  0  0  0  0  0  0  0  0  0  0
    4.2690   -4.5366    0.0000 O   0  0  0  0  0  0  0  0  0  0  0  0
    6.0010   -6.5366    0.0000 O   0  0  0  0  0  0  0  0  0  0  0  0
    4.2690   -7.5366    0.0000 O   0  0  0  0  0  0  0  0  0  0  0  0
    2.5369   -6.5366    0.0000 O   0  0  0  0  0  0  0  0  0  0  0  0
    2.5369   -3.5366    0.0000 O   0  0  0  0  0  0  0  0  0  0  0  0
    7.7331   -1.5366    0.0000 N   0  0  3  0  0  0  0  0  0  0  0  0
   14.8172    5.5872    0.0000 C   0  0  3  0  0  0  0  0  0  0  0  0
   13.9531    6.0905    0.0000 C   0  0  3  0  0  0  0  0  0  0  0  0
   13.0851    5.5938    0.0000 C   0  0  3  0  0  0  0  0  0  0  0  0
   13.0813    4.5938    0.0000 C   0  0  3  0  0  0  0  0  0  0  0  0
   15.5567    6.2514    0.0000 C   0  0  3  0  0  0  0  0  0  0  0  0
   14.8133    4.5872    0.0000 C   0  0  0  0  0  0  0  0  0  0  0  0
   12.1853    4.0626    0.0000 C   0  0  3  0  0  0  0  0  0  0  0  0
   14.1660    7.0615    0.0000 C   0  0  0  0  0  0  0  0  0  0  0  0
   13.9454    4.0905    0.0000 C   0  0  0  0  0  0  0  0  0  0  0  0
   15.1551    7.1608    0.0000 C   0  0  0  0  0  0  0  0  0  0  0  0
   12.1932    6.1320    0.0000 C   0  0  0  0  0  0  0  0  0  0  0  0
   16.5344    6.0414    0.0000 C   0  0  3  0  0  0  0  0  0  0  0  0
   15.6812    5.0838    0.0000 C   0  0  0  0  0  0  0  0  0  0  0  0
   11.2812    4.5800    0.0000 C   0  0  0  0  0  0  0  0  0  0  0  0
   12.2062    2.9778    0.0000 C   0  0  0  0  0  0  0  0  0  0  0  0
   11.2852    5.6216    0.0000 C   0  0  0  0  0  0  0  0  0  0  0  0
   13.0532    3.5660    0.0000 C   0  0  0  0  0  0  0  0  0  0  0  0
   10.3353    4.0484    0.0000 C   0  0  0  0  0  0  0  0  0  0  0  0
   11.2729    2.4245    0.0000 C   0  0  0  0  0  0  0  0  0  0  0  0
   17.2052    6.7831    0.0000 C   0  0  0  0  0  0  0  0  0  0  0  0
   10.3312    2.9634    0.0000 C   0  0  3  0  0  0  0  0  0  0  0  0
   16.8414    5.0897    0.0000 C   0  0  0  0  0  0  0  0  0  0  0  0
   18.1829    6.5732    0.0000 C   0  0  0  0  0  0  0  0  0  0  0  0
   18.8536    7.3149    0.0000 C   0  0  0  0  0  0  0  0  0  0  0  0
    9.4651    1.4634    0.0000 C   0  0  0  0  0  0  0  0  0  0  0  0
   19.8313    7.1049    0.0000 C   0  0  0  0  0  0  0  0  0  0  0  0
    8.5991    0.9634    0.0000 C   0  0  0  0  0  0  0  0  0  0  0  0
   20.5020    7.8466    0.0000 C   0  0  0  0  0  0  0  0  0  0  0  0
   20.1383    6.1532    0.0000 C   0  0  0  0  0  0  0  0  0  0  0  0
    8.5991   -0.0366    0.0000 C   0  0  0  0  0  0  0  0  0  0  0  0
    7.7331   -0.5366    0.0000 C   0  0  0  0  0  0  0  0  0  0  0  0
    6.8671   -2.0366    0.0000 C   0  0  0  0  0  0  0  0  0  0  0  0
    6.8671   -3.0366    0.0000 C   0  0  0  0  0  0  0  0  0  0  0  0
    6.0010   -3.5366    0.0000 C   0  0  0  0  0  0  0  0  0  0  0  0
    5.1350   -5.0366    0.0000 C   0  0  3  0  0  0  0  0  0  0  0  0
    5.1350   -6.0366    0.0000 C   0  0  3  0  0  0  0  0  0  0  0  0
    4.2690   -6.5366    0.0000 C   0  0  3  0  0  0  0  0  0  0  0  0
    3.4030   -6.0366    0.0000 C   0  0  3  0  0  0  0  0  0  0  0  0
    3.4030   -5.0366    0.0000 C   0  0  3  0  0  0  0  0  0  0  0  0
    2.5369   -4.5366    0.0000 C   0  0  0  0  0  0  0  0  0  0  0  0
   13.4534    6.4575    0.0000 H   0  0  0  0  0  0  0  0  0  0  0  0
   13.0923    6.2138    0.0000 H   0  0  0  0  0  0  0  0  0  0  0  0
   13.6194    4.9018    0.0000 H   0  0  0  0  0  0  0  0  0  0  0  0
   15.9481    6.7322    0.0000 H   0  0  0  0  0  0  0  0  0  0  0  0
   15.0231    4.0038    0.0000 H   0  0  0  0  0  0  0  0  0  0  0  0
   15.4243    4.6925    0.0000 H   0  0  0  0  0  0  0  0  0  0  0  0
   14.1693    7.6815    0.0000 H   0  0  0  0  0  0  0  0  0  0  0  0
   13.5498    7.1299    0.0000 H   0  0  0  0  0  0  0  0  0  0  0  0
   13.5450    3.6171    0.0000 H   0  0  0  0  0  0  0  0  0  0  0  0
   14.3421    3.6140    0.0000 H   0  0  0  0  0  0  0  0  0  0  0  0
   15.7455    7.3502    0.0000 H   0  0  0  0  0  0  0  0  0  0  0  0
   15.0287    7.7677    0.0000 H   0  0  0  0  0  0  0  0  0  0  0  0
   12.5997    6.6002    0.0000 H   0  0  0  0  0  0  0  0  0  0  0  0
   11.8015    6.6125    0.0000 H   0  0  0  0  0  0  0  0  0  0  0  0
   16.1186    5.5816    0.0000 H   0  0  0  0  0  0  0  0  0  0  0  0
   15.3692    4.5481    0.0000 H   0  0  0  0  0  0  0  0  0  0  0  0
   16.2170    4.7718    0.0000 H   0  0  0  0  0  0  0  0  0  0  0  0
   15.9933    5.6196    0.0000 H   0  0  0  0  0  0  0  0  0  0  0  0
   12.4264    2.3983    0.0000 H   0  0  0  0  0  0  0  0  0  0  0  0
   12.8149    3.0957    0.0000 H   0  0  0  0  0  0  0  0  0  0  0  0
   10.7507    5.9357    0.0000 H   0  0  0  0  0  0  0  0  0  0  0  0
   12.7453    3.0279    0.0000 H   0  0  0  0  0  0  0  0  0  0  0  0
   13.5913    3.2581    0.0000 H   0  0  0  0  0  0  0  0  0  0  0  0
   13.3611    4.1041    0.0000 H   0  0  0  0  0  0  0  0  0  0  0  0
   10.1285    4.6329    0.0000 H   0  0  0  0  0  0  0  0  0  0  0  0
    9.7241    3.9446    0.0000 H   0  0  0  0  0  0  0  0  0  0  0  0
   10.8774    1.9470    0.0000 H   0  0  0  0  0  0  0  0  0  0  0  0
   11.6757    1.9532    0.0000 H   0  0  0  0  0  0  0  0  0  0  0  0
   17.4386    7.3575    0.0000 H   0  0  0  0  0  0  0  0  0  0  0  0
   16.6801    7.1128    0.0000 H   0  0  0  0  0  0  0  0  0  0  0  0
    9.7948    3.2744    0.0000 H   0  0  0  0  0  0  0  0  0  0  0  0
   16.2514    4.8994    0.0000 H   0  0  0  0  0  0  0  0  0  0  0  0
   17.0318    4.4996    0.0000 H   0  0  0  0  0  0  0  0  0  0  0  0
   17.4315    5.2800    0.0000 H   0  0  0  0  0  0  0  0  0  0  0  0
   17.9494    5.9988    0.0000 H   0  0  0  0  0  0  0  0  0  0  0  0
   18.7079    6.2435    0.0000 H   0  0  0  0  0  0  0  0  0  0  0  0
   19.0870    7.8892    0.0000 H   0  0  0  0  0  0  0  0  0  0  0  0
   18.3285    7.6445    0.0000 H   0  0  0  0  0  0  0  0  0  0  0  0
    9.6772    0.8808    0.0000 H   0  0  0  0  0  0  0  0  0  0  0  0
   10.0757    1.5710    0.0000 H   0  0  0  0  0  0  0  0  0  0  0  0
   19.6409    7.6950    0.0000 H   0  0  0  0  0  0  0  0  0  0  0  0
    8.3871    1.5460    0.0000 H   0  0  0  0  0  0  0  0  0  0  0  0
    7.9885    0.8557    0.0000 H   0  0  0  0  0  0  0  0  0  0  0  0
   20.9618    7.4308    0.0000 H   0  0  0  0  0  0  0  0  0  0  0  0
   20.9178    8.3065    0.0000 H   0  0  0  0  0  0  0  0  0  0  0  0
   20.0421    8.2624    0.0000 H   0  0  0  0  0  0  0  0  0  0  0  0
   19.5482    5.9628    0.0000 H   0  0  0  0  0  0  0  0  0  0  0  0
   20.3286    5.5631    0.0000 H   0  0  0  0  0  0  0  0  0  0  0  0
   20.7283    6.3435    0.0000 H   0  0  0  0  0  0  0  0  0  0  0  0
    8.8112   -0.6192    0.0000 H   0  0  0  0  0  0  0  0  0  0  0  0
    9.2097    0.0711    0.0000 H   0  0  0  0  0  0  0  0  0  0  0  0
    7.5210    0.0460    0.0000 H   0  0  0  0  0  0  0  0  0  0  0  0
    7.1225   -0.6443    0.0000 H   0  0  0  0  0  0  0  0  0  0  0  0
    6.6550   -1.4540    0.0000 H   0  0  0  0  0  0  0  0  0  0  0  0
    6.2565   -2.1443    0.0000 H   0  0  0  0  0  0  0  0  0  0  0  0
    9.1360   -1.7266    0.0000 H   0  0  0  0  0  0  0  0  0  0  0  0
    7.0791   -3.6192    0.0000 H   0  0  0  0  0  0  0  0  0  0  0  0
    7.4776   -2.9290    0.0000 H   0  0  0  0  0  0  0  0  0  0  0  0
    5.7890   -2.9540    0.0000 H   0  0  0  0  0  0  0  0  0  0  0  0
    5.3905   -3.6443    0.0000 H   0  0  0  0  0  0  0  0  0  0  0  0
    5.1350   -4.4166    0.0000 H   0  0  0  0  0  0  0  0  0  0  0  0
    5.1350   -6.6566    0.0000 H   0  0  0  0  0  0  0  0  0  0  0  0
    3.7320   -6.8466    0.0000 H   0  0  0  0  0  0  0  0  0  0  0  0
    3.4030   -6.6566    0.0000 H   0  0  0  0  0  0  0  0  0  0  0  0
    3.4030   -4.4166    0.0000 H   0  0  0  0  0  0  0  0  0  0  0  0
    1.9264   -4.4290    0.0000 H   0  0  0  0  0  0  0  0  0  0  0  0
    2.3249   -5.1192    0.0000 H   0  0  0  0  0  0  0  0  0  0  0  0
    6.5380   -6.2266    0.0000 H   0  0  0  0  0  0  0  0  0  0  0  0
    3.7320   -7.8466    0.0000 H   0  0  0  0  0  0  0  0  0  0  0  0
    2.0000   -6.2266    0.0000 H   0  0  0  0  0  0  0  0  0  0  0  0
    2.0000   -3.2266    0.0000 H   0  0  0  0  0  0  0  0  0  0  0  0
  1 43  1  0  0  0  0
  1 44  1  0  0  0  0
  2 30  1  0  0  0  0
  2 34  1  0  0  0  0
  3  9  1  0  0  0  0
  3105  1  0  0  0  0
  4 44  1  0  0  0  0
  4 48  1  0  0  0  0
  5 45  1  0  0  0  0
  5117  1  0  0  0  0
  6 46  1  0  0  0  0
  6118  1  0  0  0  0
  7 47  1  0  0  0  0
  7119  1  0  0  0  0
  8 49  1  0  0  0  0
  8120  1  0  0  0  0
  9 40  1  0  0  0  0
  9 41  1  0  0  0  0
 10 11  1  0  0  0  0
 10 14  1  0  0  0  0
 10 15  1  0  0  0  0
 10 22  1  0  0  0  0
 11 12  1  0  0  0  0
 11 17  1  0  0  0  0
 11 50  1  0  0  0  0
 12 13  1  0  0  0  0
 12 20  1  0  0  0  0
 12 51  1  0  0  0  0
 13 16  1  0  0  0  0
 13 18  1  0  0  0  0
 13 52  1  0  0  0  0
 14 19  1  0  0  0  0
 14 21  1  0  0  0  0
 14 53  1  0  0  0  0
 15 18  1  0  0  0  0
 15 54  1  0  0  0  0
 15 55  1  0  0  0  0
 16 23  1  0  0  0  0
 16 24  1  0  0  0  0
 16 26  1  0  0  0  0
 17 19  1  0  0  0  0
 17 56  1  0  0  0  0
 17 57  1  0  0  0  0
 18 58  1  0  0  0  0
 18 59  1  0  0  0  0
 19 60  1  0  0  0  0
 19 61  1  0  0  0  0
 20 25  1  0  0  0  0
 20 62  1  0  0  0  0
 20 63  1  0  0  0  0
 21 29  1  0  0  0  0
 21 31  1  0  0  0  0
 21 64  1  0  0  0  0
 22 65  1  0  0  0  0
 22 66  1  0  0  0  0
 22 67  1  0  0  0  0
 23 25  2  0  0  0  0
 23 27  1  0  0  0  0
 24 28  1  0  0  0  0
 24 68  1  0  0  0  0
 24 69  1  0  0  0  0
 25 70  1  0  0  0  0
 26 71  1  0  0  0  0
 26 72  1  0  0  0  0
 26 73  1  0  0  0  0
 27 30  1  0  0  0  0
 27 74  1  0  0  0  0
 27 75  1  0  0  0  0
 28 30  1  0  0  0  0
 28 76  1  0  0  0  0
 28 77  1  0  0  0  0
 29 32  1  0  0  0  0
 29 78  1  0  0  0  0
 29 79  1  0  0  0  0
 30 80  1  0  0  0  0
 31 81  1  0  0  0  0
 31 82  1  0  0  0  0
 31 83  1  0  0  0  0
 32 33  1  0  0  0  0
 32 84  1  0  0  0  0
 32 85  1  0  0  0  0
 33 35  1  0  0  0  0
 33 86  1  0  0  0  0
 33 87  1  0  0  0  0
 34 36  1  0  0  0  0
 34 88  1  0  0  0  0
 34 89  1  0  0  0  0
 35 37  1  0  0  0  0
 35 38  1  0  0  0  0
 35 90  1  0  0  0  0
 36 39  1  0  0  0  0
 36 91  1  0  0  0  0
 36 92  1  0  0  0  0
 37 93  1  0  0  0  0
 37 94  1  0  0  0  0
 37 95  1  0  0  0  0
 38 96  1  0  0  0  0
 38 97  1  0  0  0  0
 38 98  1  0  0  0  0
 39 40  1  0  0  0  0
 39 99  1  0  0  0  0
 39100  1  0  0  0  0
 40101  1  0  0  0  0
 40102  1  0  0  0  0
 41 42  1  0  0  0  0
 41103  1  0  0  0  0
 41104  1  0  0  0  0
 42 43  1  0  0  0  0
 42106  1  0  0  0  0
 42107  1  0  0  0  0
 43108  1  0  0  0  0
 43109  1  0  0  0  0
 44 45  1  0  0  0  0
 44110  1  0  0  0  0
 45 46  1  0  0  0  0
 45111  1  0  0  0  0
 46 47  1  0  0  0  0
 46112  1  0  0  0  0
 47 48  1  0  0  0  0
 47113  1  0  0  0  0
 48 49  1  0  0  0  0
 48114  1  0  0  0  0
 49115  1  0  0  0  0
 49116  1  0  0  0  0
M  END
> <PUBCHEM_COMPOUND_CID>
500126
> <PUBCHEM_COMPOUND_CANONICALIZED>
1
> <PUBCHEM_CACTVS_COMPLEXITY>
1060
> <PUBCHEM_CACTVS_HBOND_ACCEPTOR>
9
> <PUBCHEM_CACTVS_HBOND_DONOR>
5
> <PUBCHEM_CACTVS_ROTATABLE_BOND>
17
> <PUBCHEM_CACTVS_SUBSKEYS>
AAADcfB+OABAAAAAAAAAAAAAAAAAAYAAAAA0YIEAAAAAAGCAAAAAHgQECAAADxTlwAaCAAIQBgiAAiBCAAAAAAAgABAgCAAIAAgBEAIggQAGQAAFwACrAAPg4PQPgAAAAAAAAADAAAQAACAAAQAACAAAAA==
> <PUBCHEM_IUPAC_OPENEYE_NAME>
2-[3-[4-[[17-(1,5-dimethylhexyl)-10,13-dimethyl-2,3,4,7,8,9,11,12,14,15,16,17-dodecahydro-1H-cyclopenta[a]phenanthren-3-yl]oxy]butyl-hydroxy-amino]propylsulfanyl]-6-(hydroxymethyl)tetrahydropyran-3,4,5-triol
> <PUBCHEM_IUPAC_CAS_NAME>
2-[3-[4-[[10,13-dimethyl-17-(6-methylheptan-2-yl)-2,3,4,7,8,9,11,12,14,15,16,17-dodecahydro-1H-cyclopenta[a]phenanthren-3-yl]oxy]butyl-hydroxyamino]propylthio]-6-(hydroxymethyl)oxane-3,4,5-triol
> <PUBCHEM_IUPAC_NAME_MARKUP>
2-[3-[4-[[10,13-dimethyl-17-(6-methylheptan-2-yl)-2,3,4,7,8,9,11,12,14,15,16,17-dodecahydro-1<I>H</I>-cyclopenta[a]phenanthren-3-yl]oxy]butyl-hydroxyamino]propylsulfanyl]-6-(hydroxymethyl)oxane-3,4,5-triol
> <PUBCHEM_IUPAC_NAME>
2-[3-[4-[[10,13-dimethyl-17-(6-methylheptan-2-yl)-2,3,4,7,8,9,11,12,14,15,16,17-dodecahydro-1H-cyclopenta[a]phenanthren-3-yl]oxy]butyl-hydroxyamino]propylsulfanyl]-6-(hydroxymethyl)oxane-3,4,5-triol
> <PUBCHEM_IUPAC_SYSTEMATIC_NAME>
2-[3-[4-[[10,13-dimethyl-17-(6-methylheptan-2-yl)-2,3,4,7,8,9,11,12,14,15,16,17-dodecahydro-1H-cyclopenta[a]phenanthren-3-yl]oxy]butyl-oxidanyl-amino]propylsulfanyl]-6-(hydroxymethyl)oxane-3,4,5-triol
> <PUBCHEM_IUPAC_TRADITIONAL_NAME>
2-[3-[4-[[17-(1,5-dimethylhexyl)-10,13-dimethyl-2,3,4,7,8,9,11,12,14,15,16,17-dodecahydro-1H-cyclopenta[a]phenanthren-3-yl]oxy]butyl-hydroxy-amino]propylthio]-6-methylol-tetrahydropyran-3,4,5-triol
> <PUBCHEM_IUPAC_INCHI>
InChI=1S/C40H71NO7S/c1-26(2)10-8-11-27(3)31-14-15-32-30-13-12-28-24-29(16-18-39(28,4)33(30)17-19-40(31,32)5)47-22-7-6-20-41(46)21-9-23-49-38-37(45)36(44)35(43)34(25-42)48-38/h12,26-27,29-38,42-46H,6-11,13-25H2,1-5H3
> <PUBCHEM_IUPAC_INCHIKEY>
DPGMQUFANJGANG-UHFFFAOYSA-N
> <PUBCHEM_XLOGP3_AA>
8.2
> <PUBCHEM_EXACT_MASS>
709.49512478
> <PUBCHEM_MOLECULAR_FORMULA>
C40H71NO7S
> <PUBCHEM_MOLECULAR_WEIGHT>
710.1
> <PUBCHEM_OPENEYE_CAN_SMILES>
CC(C)CCCC(C)C1CCC2C1(CCC3C2CC=C4C3(CCC(C4)OCCCCN(CCCSC5C(C(C(C(O5)CO)O)O)O)O)C)C
> <PUBCHEM_OPENEYE_ISO_SMILES>
CC(C)CCCC(C)C1CCC2C1(CCC3C2CC=C4C3(CCC(C4)OCCCCN(CCCSC5C(C(C(C(O5)CO)O)O)O)O)C)C
> <PUBCHEM_CACTVS_TPSA>
148
> <PUBCHEM_MONOISOTOPIC_WEIGHT>
709.49512478
> <PUBCHEM_TOTAL_CHARGE>
0
> <PUBCHEM_HEAVY_ATOM_COUNT>
49
> <PUBCHEM_ATOM_DEF_STEREO_COUNT>
0
> <PUBCHEM_ATOM_UDEF_STEREO_COUNT>
13
> <PUBCHEM_BOND_DEF_STEREO_COUNT>
0
> <PUBCHEM_BOND_UDEF_STEREO_COUNT>
0
> <PUBCHEM_ISOTOPIC_ATOM_COUNT>
0
> <PUBCHEM_COMPONENT_COUNT>
1
> <PUBCHEM_CACTVS_TAUTO_COUNT>
-1
> <PUBCHEM_COORDINATE_TYPE>
1
5
255
> <PUBCHEM_BONDANNOTATIONS>
44  1  3
10  22  3
11  17  3
12  20  3
13  18  3
14  19  3
16  26  3
30  2  3
21  31  3
48  49  3
45  5  3
46  6  3
47  7  3
$$$$
