500198
  -OEChem-10302200282D
 24 21  0     1  0  0  0  0  0999 V2000
    4.0010    0.0000    0.0000 Ag  0  3  0  0  0  0  0  0  0  0  0  0
    4.0010    1.0000    0.0000 S   0  5  0  0  0  0  0  0  0  0  0  0
    4.8671    2.5000    0.0000 O   0  0  0  0  0  0  0  0  0  0  0  0
    4.0010    4.0000    0.0000 O   0  0  0  0  0  0  0  0  0  0  0  0
    1.4030    1.5000    0.0000 O   0  0  0  0  0  0  0  0  0  0  0  0
    3.2996    7.5000    0.0000 O   0  0  0  0  0  0  0  0  0  0  0  0
    1.5675    7.5000    0.0000 O   0  5  0  0  0  0  0  0  0  0  0  0
    2.4335    6.0000    0.0000 O   0  0  0  0  0  0  0  0  0  0  0  0
    2.2690    3.0000    0.0000 N   0  0  0  0  0  0  0  0  0  0  0  0
    2.4335    7.0000    0.0000 N   0  3  0  0  0  0  0  0  0  0  0  0
    3.1350    2.5000    0.0000 C   0  0  3  0  0  0  0  0  0  0  0  0
    3.1350    1.5000    0.0000 C   0  0  0  0  0  0  0  0  0  0  0  0
    4.0010    3.0000    0.0000 C   0  0  0  0  0  0  0  0  0  0  0  0
    1.4030    2.5000    0.0000 C   0  0  0  0  0  0  0  0  0  0  0  0
    0.5369    3.0000    0.0000 C   0  0  0  0  0  0  0  0  0  0  0  0
    3.1350    3.1200    0.0000 H   0  0  0  0  0  0  0  0  0  0  0  0
    2.5244    1.6077    0.0000 H   0  0  0  0  0  0  0  0  0  0  0  0
    2.9230    0.9174    0.0000 H   0  0  0  0  0  0  0  0  0  0  0  0
    2.2690    3.6200    0.0000 H   0  0  0  0  0  0  0  0  0  0  0  0
    0.8469    3.5369    0.0000 H   0  0  0  0  0  0  0  0  0  0  0  0
    0.0000    3.3100    0.0000 H   0  0  0  0  0  0  0  0  0  0  0  0
    0.2269    2.4631    0.0000 H   0  0  0  0  0  0  0  0  0  0  0  0
    5.4040    2.8100    0.0000 H   0  0  0  0  0  0  0  0  0  0  0  0
    3.8365    7.1900    0.0000 H   0  0  0  0  0  0  0  0  0  0  0  0
  2 12  1  0  0  0  0
  3 13  1  0  0  0  0
  3 23  1  0  0  0  0
  4 13  2  0  0  0  0
  5 14  2  0  0  0  0
  6 10  1  0  0  0  0
  6 24  1  0  0  0  0
  7 10  1  0  0  0  0
  8 10  2  0  0  0  0
  9 11  1  0  0  0  0
  9 14  1  0  0  0  0
  9 19  1  0  0  0  0
 11 12  1  0  0  0  0
 11 13  1  0  0  0  0
 11 16  1  0  0  0  0
 12 17  1  0  0  0  0
 12 18  1  0  0  0  0
 14 15  1  0  0  0  0
 15 20  1  0  0  0  0
 15 21  1  0  0  0  0
 15 22  1  0  0  0  0
M  CHG  4   1   1   2  -1   7  -1  10   1
M  END
> <PUBCHEM_COMPOUND_CID>
500198
> <PUBCHEM_COMPOUND_CANONICALIZED>
1
> <PUBCHEM_CACTVS_COMPLEXITY>
177
> <PUBCHEM_CACTVS_HBOND_ACCEPTOR>
7
> <PUBCHEM_CACTVS_HBOND_DONOR>
3
> <PUBCHEM_CACTVS_ROTATABLE_BOND>
3
> <PUBCHEM_CACTVS_SUBSKEYS>
AAADccBjOABAAAAAAAQAAAAAAAAAAAAAAAAAAAAAAAAAAAAAAAAAHgQUCAAACCjFwASCCALAQgAJAAGQGQAAAAAAAAAAAIGIAAACAAAAACAAQAAAFgCQAAAAAAAAAAAAAAAAAAAAAAAAAAAAAAAAAAAAAA==
> <PUBCHEM_IUPAC_OPENEYE_NAME>
silver;2-acetamido-3-hydroxy-3-oxo-propane-1-thiolate;nitric acid
> <PUBCHEM_IUPAC_CAS_NAME>
silver;2-acetamido-3-hydroxy-3-oxo-1-propanethiolate;nitric acid
> <PUBCHEM_IUPAC_NAME_MARKUP>
silver;2-acetamido-3-hydroxy-3-oxopropane-1-thiolate;nitric acid
> <PUBCHEM_IUPAC_NAME>
silver;2-acetamido-3-hydroxy-3-oxopropane-1-thiolate;nitric acid
> <PUBCHEM_IUPAC_SYSTEMATIC_NAME>
silver;2-acetamido-3-oxidanyl-3-oxidanylidene-propane-1-thiolate;nitric acid
> <PUBCHEM_IUPAC_TRADITIONAL_NAME>
silver;2-acetamido-3-hydroxy-3-keto-propane-1-thiolate;nitric acid
> <PUBCHEM_IUPAC_INCHI>
InChI=1S/C5H9NO3S.Ag.HNO3/c1-3(7)6-4(2-10)5(8)9;;2-1(3)4/h4,10H,2H2,1H3,(H,6,7)(H,8,9);;(H,2,3,4)/q;+1;/p-1
> <PUBCHEM_IUPAC_INCHIKEY>
HAVVAPOOQNVMMO-UHFFFAOYSA-M
> <PUBCHEM_EXACT_MASS>
331.92322
> <PUBCHEM_MOLECULAR_FORMULA>
C5H9AgN2O6S
> <PUBCHEM_MOLECULAR_WEIGHT>
333.07
> <PUBCHEM_OPENEYE_CAN_SMILES>
CC(=O)NC(C[S-])C(=O)O.[N+](=O)(O)[O-].[Ag+]
> <PUBCHEM_OPENEYE_ISO_SMILES>
CC(=O)NC(C[S-])C(=O)O.[N+](=O)(O)[O-].[Ag+]
> <PUBCHEM_CACTVS_TPSA>
133
> <PUBCHEM_MONOISOTOPIC_WEIGHT>
331.92322
> <PUBCHEM_TOTAL_CHARGE>
0
> <PUBCHEM_HEAVY_ATOM_COUNT>
15
> <PUBCHEM_ATOM_DEF_STEREO_COUNT>
0
> <PUBCHEM_ATOM_UDEF_STEREO_COUNT>
1
> <PUBCHEM_BOND_DEF_STEREO_COUNT>
0
> <PUBCHEM_BOND_UDEF_STEREO_COUNT>
0
> <PUBCHEM_ISOTOPIC_ATOM_COUNT>
0
> <PUBCHEM_COMPONENT_COUNT>
3
> <PUBCHEM_CACTVS_TAUTO_COUNT>
-1
> <PUBCHEM_NONSTANDARDBOND>
1  2  6
> <PUBCHEM_COORDINATE_TYPE>
1
5
255
> <PUBCHEM_BONDANNOTATIONS>
11  12  3
$$$$
