500138
  -OEChem-10302200282D
 65 69  0     1  0  0  0  0  0999 V2000
   11.3336    0.8283    0.0000 S   0  0  0  0  0  0  0  0  0  0  0  0
    3.7320   -3.7867    0.0000 O   0  0  0  0  0  0  0  0  0  0  0  0
   10.0774    3.0905    0.0000 O   0  0  0  0  0  0  0  0  0  0  0  0
    2.8718   -2.2834    0.0000 O   0  0  0  0  0  0  0  0  0  0  0  0
    9.7956    1.3309    0.0000 N   0  0  0  0  0  0  0  0  0  0  0  0
    9.1251   -0.7343    0.0000 C   0  0  3  0  0  0  0  0  0  0  0  0
    9.1251   -1.7343    0.0000 C   0  0  3  0  0  0  0  0  0  0  0  0
    8.2591   -2.2343    0.0000 C   0  0  3  0  0  0  0  0  0  0  0  0
    7.3931   -1.7343    0.0000 C   0  0  3  0  0  0  0  0  0  0  0  0
    6.4831   -2.2412    0.0000 C   0  0  3  0  0  0  0  0  0  0  0  0
   10.0713   -0.4296    0.0000 C   0  0  3  0  0  0  0  0  0  0  0  0
    8.2591   -0.2343    0.0000 C   0  0  0  0  0  0  0  0  0  0  0  0
    7.3931   -0.7343    0.0000 C   0  0  0  0  0  0  0  0  0  0  0  0
   10.0713   -2.0391    0.0000 C   0  0  0  0  0  0  0  0  0  0  0  0
   10.6550   -1.2343    0.0000 C   0  0  0  0  0  0  0  0  0  0  0  0
    8.2752   -3.2758    0.0000 C   0  0  0  0  0  0  0  0  0  0  0  0
    6.4750   -3.2828    0.0000 C   0  0  0  0  0  0  0  0  0  0  0  0
    9.1251    0.2657    0.0000 C   0  0  0  0  0  0  0  0  0  0  0  0
    5.5562   -1.6771    0.0000 C   0  0  0  0  0  0  0  0  0  0  0  0
    7.3771   -3.8036    0.0000 C   0  0  0  0  0  0  0  0  0  0  0  0
    6.4908   -1.2412    0.0000 C   0  0  0  0  0  0  0  0  0  0  0  0
    5.5396   -3.8325    0.0000 C   0  0  0  0  0  0  0  0  0  0  0  0
    4.6084   -2.2051    0.0000 C   0  0  0  0  0  0  0  0  0  0  0  0
   10.3820    0.5209    0.0000 C   0  0  0  0  0  0  0  0  0  0  0  0
    4.6000   -3.2900    0.0000 C   0  0  3  0  0  0  0  0  0  0  0  0
   10.3848    2.1389    0.0000 C   0  0  0  0  0  0  0  0  0  0  0  0
   11.3353    1.8283    0.0000 C   0  0  0  0  0  0  0  0  0  0  0  0
    2.8680   -3.2833    0.0000 C   0  0  0  0  0  0  0  0  0  0  0  0
    2.0000   -3.7800    0.0000 C   0  0  0  0  0  0  0  0  0  0  0  0
   10.7478    3.8325    0.0000 C   0  0  0  0  0  0  0  0  0  0  0  0
    9.1907   -2.3509    0.0000 H   0  0  0  0  0  0  0  0  0  0  0  0
    8.7984   -2.5402    0.0000 H   0  0  0  0  0  0  0  0  0  0  0  0
    7.9300   -1.4243    0.0000 H   0  0  0  0  0  0  0  0  0  0  0  0
   10.6838   -0.3334    0.0000 H   0  0  0  0  0  0  0  0  0  0  0  0
    8.6576    0.2406    0.0000 H   0  0  0  0  0  0  0  0  0  0  0  0
    7.8606    0.2406    0.0000 H   0  0  0  0  0  0  0  0  0  0  0  0
    7.1810   -0.1517    0.0000 H   0  0  0  0  0  0  0  0  0  0  0  0
    6.7825   -0.8420    0.0000 H   0  0  0  0  0  0  0  0  0  0  0  0
    9.8203   -2.6060    0.0000 H   0  0  0  0  0  0  0  0  0  0  0  0
   10.6087   -2.3483    0.0000 H   0  0  0  0  0  0  0  0  0  0  0  0
   11.1158   -1.6491    0.0000 H   0  0  0  0  0  0  0  0  0  0  0  0
   11.1158   -0.8196    0.0000 H   0  0  0  0  0  0  0  0  0  0  0  0
    8.4932   -3.8562    0.0000 H   0  0  0  0  0  0  0  0  0  0  0  0
    8.8843   -3.1604    0.0000 H   0  0  0  0  0  0  0  0  0  0  0  0
    9.7451    0.2657    0.0000 H   0  0  0  0  0  0  0  0  0  0  0  0
    9.1251    0.8857    0.0000 H   0  0  0  0  0  0  0  0  0  0  0  0
    8.5051    0.2657    0.0000 H   0  0  0  0  0  0  0  0  0  0  0  0
    5.9644   -1.2104    0.0000 H   0  0  0  0  0  0  0  0  0  0  0  0
    5.1663   -1.1951    0.0000 H   0  0  0  0  0  0  0  0  0  0  0  0
    7.3795   -4.4236    0.0000 H   0  0  0  0  0  0  0  0  0  0  0  0
    7.1108   -1.2460    0.0000 H   0  0  0  0  0  0  0  0  0  0  0  0
    6.4956   -0.6212    0.0000 H   0  0  0  0  0  0  0  0  0  0  0  0
    5.8708   -1.2364    0.0000 H   0  0  0  0  0  0  0  0  0  0  0  0
    5.1423   -4.3085    0.0000 H   0  0  0  0  0  0  0  0  0  0  0  0
    5.9406   -4.3054    0.0000 H   0  0  0  0  0  0  0  0  0  0  0  0
    4.4038   -1.6198    0.0000 H   0  0  0  0  0  0  0  0  0  0  0  0
    3.9967   -2.3064    0.0000 H   0  0  0  0  0  0  0  0  0  0  0  0
    4.0648   -2.9769    0.0000 H   0  0  0  0  0  0  0  0  0  0  0  0
   11.8375    2.1918    0.0000 H   0  0  0  0  0  0  0  0  0  0  0  0
    1.6921   -3.2419    0.0000 H   0  0  0  0  0  0  0  0  0  0  0  0
    1.4619   -4.0879    0.0000 H   0  0  0  0  0  0  0  0  0  0  0  0
    2.3079   -4.3181    0.0000 H   0  0  0  0  0  0  0  0  0  0  0  0
   11.2079    3.4169    0.0000 H   0  0  0  0  0  0  0  0  0  0  0  0
   11.1635    4.2926    0.0000 H   0  0  0  0  0  0  0  0  0  0  0  0
   10.2878    4.2482    0.0000 H   0  0  0  0  0  0  0  0  0  0  0  0
  1 24  1  0  0  0  0
  1 27  1  0  0  0  0
  2 25  1  0  0  0  0
  2 28  1  0  0  0  0
  3 26  1  0  0  0  0
  3 30  1  0  0  0  0
  4 28  2  0  0  0  0
  5 24  2  0  0  0  0
  5 26  1  0  0  0  0
  6  7  1  0  0  0  0
  6 11  1  0  0  0  0
  6 12  1  0  0  0  0
  6 18  1  0  0  0  0
  7  8  1  0  0  0  0
  7 14  1  0  0  0  0
  7 31  1  0  0  0  0
  8  9  1  0  0  0  0
  8 16  1  0  0  0  0
  8 32  1  0  0  0  0
  9 10  1  0  0  0  0
  9 13  1  0  0  0  0
  9 33  1  0  0  0  0
 10 17  1  0  0  0  0
 10 19  1  0  0  0  0
 10 21  1  0  0  0  0
 11 15  1  0  0  0  0
 11 24  1  0  0  0  0
 11 34  1  0  0  0  0
 12 13  1  0  0  0  0
 12 35  1  0  0  0  0
 12 36  1  0  0  0  0
 13 37  1  0  0  0  0
 13 38  1  0  0  0  0
 14 15  1  0  0  0  0
 14 39  1  0  0  0  0
 14 40  1  0  0  0  0
 15 41  1  0  0  0  0
 15 42  1  0  0  0  0
 16 20  1  0  0  0  0
 16 43  1  0  0  0  0
 16 44  1  0  0  0  0
 17 20  2  0  0  0  0
 17 22  1  0  0  0  0
 18 45  1  0  0  0  0
 18 46  1  0  0  0  0
 18 47  1  0  0  0  0
 19 23  1  0  0  0  0
 19 48  1  0  0  0  0
 19 49  1  0  0  0  0
 20 50  1  0  0  0  0
 21 51  1  0  0  0  0
 21 52  1  0  0  0  0
 21 53  1  0  0  0  0
 22 25  1  0  0  0  0
 22 54  1  0  0  0  0
 22 55  1  0  0  0  0
 23 25  1  0  0  0  0
 23 56  1  0  0  0  0
 23 57  1  0  0  0  0
 25 58  1  0  0  0  0
 26 27  2  0  0  0  0
 27 59  1  0  0  0  0
 28 29  1  0  0  0  0
 29 60  1  0  0  0  0
 29 61  1  0  0  0  0
 29 62  1  0  0  0  0
 30 63  1  0  0  0  0
 30 64  1  0  0  0  0
 30 65  1  0  0  0  0
M  END
> <PUBCHEM_COMPOUND_CID>
500138
> <PUBCHEM_COMPOUND_CANONICALIZED>
1
> <PUBCHEM_CACTVS_COMPLEXITY>
725
> <PUBCHEM_CACTVS_HBOND_ACCEPTOR>
5
> <PUBCHEM_CACTVS_HBOND_DONOR>
0
> <PUBCHEM_CACTVS_ROTATABLE_BOND>
4
> <PUBCHEM_CACTVS_SUBSKEYS>
AAADcfB6MABAAAAAAAAAAAAAAAAAAeIAAAAwYIAAAAAAAGCBgAAAHgQAAAAADxSlwgKijRIIFAisAiDyTAAA+KBhCjgACAYyIAgEAAIggQAGAAAEwACoAAOQwPAPgAAAAAAAAADAAAQAACAAAQAACAAAAA==
> <PUBCHEM_IUPAC_OPENEYE_NAME>
[17-(4-methoxythiazol-2-yl)-10,13-dimethyl-2,3,4,7,8,9,11,12,14,15,16,17-dodecahydro-1H-cyclopenta[a]phenanthren-3-yl] acetate
> <PUBCHEM_IUPAC_CAS_NAME>
acetic acid [17-(4-methoxy-2-thiazolyl)-10,13-dimethyl-2,3,4,7,8,9,11,12,14,15,16,17-dodecahydro-1H-cyclopenta[a]phenanthren-3-yl] ester
> <PUBCHEM_IUPAC_NAME_MARKUP>
[17-(4-methoxy-1,3-thiazol-2-yl)-10,13-dimethyl-2,3,4,7,8,9,11,12,14,15,16,17-dodecahydro-1<I>H</I>-cyclopenta[a]phenanthren-3-yl] acetate
> <PUBCHEM_IUPAC_NAME>
[17-(4-methoxy-1,3-thiazol-2-yl)-10,13-dimethyl-2,3,4,7,8,9,11,12,14,15,16,17-dodecahydro-1H-cyclopenta[a]phenanthren-3-yl] acetate
> <PUBCHEM_IUPAC_SYSTEMATIC_NAME>
[17-(4-methoxy-1,3-thiazol-2-yl)-10,13-dimethyl-2,3,4,7,8,9,11,12,14,15,16,17-dodecahydro-1H-cyclopenta[a]phenanthren-3-yl] ethanoate
> <PUBCHEM_IUPAC_TRADITIONAL_NAME>
acetic acid [17-(4-methoxythiazol-2-yl)-10,13-dimethyl-2,3,4,7,8,9,11,12,14,15,16,17-dodecahydro-1H-cyclopenta[a]phenanthren-3-yl] ester
> <PUBCHEM_IUPAC_INCHI>
InChI=1S/C25H35NO3S/c1-15(27)29-17-9-11-24(2)16(13-17)5-6-18-19-7-8-21(23-26-22(28-4)14-30-23)25(19,3)12-10-20(18)24/h5,14,17-21H,6-13H2,1-4H3
> <PUBCHEM_IUPAC_INCHIKEY>
FSEMZRRKCYLQDY-UHFFFAOYSA-N
> <PUBCHEM_XLOGP3_AA>
6
> <PUBCHEM_EXACT_MASS>
429.23376515
> <PUBCHEM_MOLECULAR_FORMULA>
C25H35NO3S
> <PUBCHEM_MOLECULAR_WEIGHT>
429.6
> <PUBCHEM_OPENEYE_CAN_SMILES>
CC(=O)OC1CCC2(C3CCC4(C(C3CC=C2C1)CCC4C5=NC(=CS5)OC)C)C
> <PUBCHEM_OPENEYE_ISO_SMILES>
CC(=O)OC1CCC2(C3CCC4(C(C3CC=C2C1)CCC4C5=NC(=CS5)OC)C)C
> <PUBCHEM_CACTVS_TPSA>
76.7
> <PUBCHEM_MONOISOTOPIC_WEIGHT>
429.23376515
> <PUBCHEM_TOTAL_CHARGE>
0
> <PUBCHEM_HEAVY_ATOM_COUNT>
30
> <PUBCHEM_ATOM_DEF_STEREO_COUNT>
0
> <PUBCHEM_ATOM_UDEF_STEREO_COUNT>
7
> <PUBCHEM_BOND_DEF_STEREO_COUNT>
0
> <PUBCHEM_BOND_UDEF_STEREO_COUNT>
0
> <PUBCHEM_ISOTOPIC_ATOM_COUNT>
0
> <PUBCHEM_COMPONENT_COUNT>
1
> <PUBCHEM_CACTVS_TAUTO_COUNT>
-1
> <PUBCHEM_COORDINATE_TYPE>
1
5
255
> <PUBCHEM_BONDANNOTATIONS>
1  24  8
1  27  8
10  21  3
11  24  3
25  2  3
26  27  8
5  24  8
5  26  8
6  18  3
7  14  3
8  16  3
9  13  3
$$$$
