500119
  -OEChem-10302200282D
 33 34  0     1  0  0  0  0  0999 V2000
    4.4777   -0.7063    0.0000 O   0  0  0  0  0  0  0  0  0  0  0  0
    4.6056   -3.3799    0.0000 O   0  0  0  0  0  0  0  0  0  0  0  0
    2.6166   -3.1708    0.0000 O   0  0  0  0  0  0  0  0  0  0  0  0
    7.0188    0.8815    0.0000 O   0  0  0  0  0  0  0  0  0  0  0  0
    5.2867    3.8815    0.0000 O   0  0  0  0  0  0  0  0  0  0  0  0
    5.2867    0.8815    0.0000 N   0  0  0  0  0  0  0  0  0  0  0  0
    6.3745   -2.4664    0.0000 N   0  0  0  0  0  0  0  0  0  0  0  0
    6.1527    2.3815    0.0000 N   0  0  0  0  0  0  0  0  0  0  0  0
    5.7867   -1.6573    0.0000 C   0  0  1  0  0  0  0  0  0  0  0  0
    4.7867   -1.6573    0.0000 C   0  0  2  0  0  0  0  0  0  0  0  0
    6.0957   -0.7063    0.0000 C   0  0  0  0  0  0  0  0  0  0  0  0
    5.2867   -0.1185    0.0000 C   0  0  2  0  0  0  0  0  0  0  0  0
    4.1989   -2.4664    0.0000 C   0  0  3  0  0  0  0  0  0  0  0  0
    3.2044   -2.3618    0.0000 C   0  0  0  0  0  0  0  0  0  0  0  0
    6.1527    1.3815    0.0000 C   0  0  0  0  0  0  0  0  0  0  0  0
    4.4207    1.3815    0.0000 C   0  0  0  0  0  0  0  0  0  0  0  0
    4.4207    2.3815    0.0000 C   0  0  0  0  0  0  0  0  0  0  0  0
    5.2867    2.8815    0.0000 C   0  0  0  0  0  0  0  0  0  0  0  0
    5.5052   -2.2098    0.0000 H   0  0  0  0  0  0  0  0  0  0  0  0
    4.1743   -1.5604    0.0000 H   0  0  0  0  0  0  0  0  0  0  0  0
    6.6621   -0.9585    0.0000 H   0  0  0  0  0  0  0  0  0  0  0  0
    6.4057   -0.1694    0.0000 H   0  0  0  0  0  0  0  0  0  0  0  0
    5.8391    0.1630    0.0000 H   0  0  0  0  0  0  0  0  0  0  0  0
    3.8345   -2.9680    0.0000 H   0  0  0  0  0  0  0  0  0  0  0  0
    6.9911   -2.4016    0.0000 H   0  0  0  0  0  0  0  0  0  0  0  0
    6.1223   -3.0328    0.0000 H   0  0  0  0  0  0  0  0  0  0  0  0
    3.3753   -1.7658    0.0000 H   0  0  0  0  0  0  0  0  0  0  0  0
    2.6471   -2.0900    0.0000 H   0  0  0  0  0  0  0  0  0  0  0  0
    3.8837    1.0715    0.0000 H   0  0  0  0  0  0  0  0  0  0  0  0
    4.2412   -3.8815    0.0000 H   0  0  0  0  0  0  0  0  0  0  0  0
    6.6897    2.6915    0.0000 H   0  0  0  0  0  0  0  0  0  0  0  0
    3.8837    2.6915    0.0000 H   0  0  0  0  0  0  0  0  0  0  0  0
    2.0000   -3.1060    0.0000 H   0  0  0  0  0  0  0  0  0  0  0  0
  1 10  1  0  0  0  0
  1 12  1  0  0  0  0
  2 13  1  0  0  0  0
  2 30  1  0  0  0  0
  3 14  1  0  0  0  0
  3 33  1  0  0  0  0
  4 15  2  0  0  0  0
  5 18  2  0  0  0  0
 12  6  1  6  0  0  0
  6 15  1  0  0  0  0
  6 16  1  0  0  0  0
  9  7  1  1  0  0  0
  7 25  1  0  0  0  0
  7 26  1  0  0  0  0
  8 15  1  0  0  0  0
  8 18  1  0  0  0  0
  8 31  1  0  0  0  0
  9 10  1  0  0  0  0
  9 11  1  0  0  0  0
  9 19  1  0  0  0  0
 10 13  1  6  0  0  0
 10 20  1  0  0  0  0
 11 12  1  0  0  0  0
 11 21  1  0  0  0  0
 11 22  1  0  0  0  0
 12 23  1  0  0  0  0
 13 14  1  0  0  0  0
 13 24  1  0  0  0  0
 14 27  1  0  0  0  0
 14 28  1  0  0  0  0
 16 17  2  0  0  0  0
 16 29  1  0  0  0  0
 17 18  1  0  0  0  0
 17 32  1  0  0  0  0
M  END
> <PUBCHEM_COMPOUND_CID>
500119
> <PUBCHEM_COMPOUND_CANONICALIZED>
1
> <PUBCHEM_CACTVS_COMPLEXITY>
386
> <PUBCHEM_CACTVS_HBOND_ACCEPTOR>
6
> <PUBCHEM_CACTVS_HBOND_DONOR>
4
> <PUBCHEM_CACTVS_ROTATABLE_BOND>
3
> <PUBCHEM_CACTVS_SUBSKEYS>
AAADccBzOAAAAAAAAAAAAAAAAAAAASAAAAAgAAAAAAAAAAAAAAAAHgAQCAAACDzhgAYBAAPABgCIACFWUACAAAAAAgAIAIAIAECDEAIAwAAPQAAPFyIDAMGwcAYAAAAAAAAAAAAAAAAAAAAAAAAAAAAAAA==
> <PUBCHEM_IUPAC_OPENEYE_NAME>
1-[(2S,4R,5R)-4-amino-5-(1,2-dihydroxyethyl)tetrahydrofuran-2-yl]pyrimidine-2,4-dione
> <PUBCHEM_IUPAC_CAS_NAME>
1-[(2S,4R,5R)-4-amino-5-(1,2-dihydroxyethyl)-2-oxolanyl]pyrimidine-2,4-dione
> <PUBCHEM_IUPAC_NAME_MARKUP>
1-[(2<I>S</I>,4<I>R</I>,5<I>R</I>)-4-amino-5-(1,2-dihydroxyethyl)oxolan-2-yl]pyrimidine-2,4-dione
> <PUBCHEM_IUPAC_NAME>
1-[(2S,4R,5R)-4-amino-5-(1,2-dihydroxyethyl)oxolan-2-yl]pyrimidine-2,4-dione
> <PUBCHEM_IUPAC_SYSTEMATIC_NAME>
1-[(2S,4R,5R)-4-azanyl-5-[1,2-bis(oxidanyl)ethyl]oxolan-2-yl]pyrimidine-2,4-dione
> <PUBCHEM_IUPAC_TRADITIONAL_NAME>
1-[(2S,4R,5R)-4-amino-5-(1,2-dihydroxyethyl)tetrahydrofuran-2-yl]pyrimidine-2,4-quinone
> <PUBCHEM_IUPAC_INCHI>
InChI=1S/C10H15N3O5/c11-5-3-8(18-9(5)6(15)4-14)13-2-1-7(16)12-10(13)17/h1-2,5-6,8-9,14-15H,3-4,11H2,(H,12,16,17)/t5-,6?,8+,9-/m1/s1
> <PUBCHEM_IUPAC_INCHIKEY>
HDLCWWILKKWNET-IVFBWPPCSA-N
> <PUBCHEM_XLOGP3>
-1.8
> <PUBCHEM_EXACT_MASS>
257.10117059
> <PUBCHEM_MOLECULAR_FORMULA>
C10H15N3O5
> <PUBCHEM_MOLECULAR_WEIGHT>
257.24
> <PUBCHEM_OPENEYE_CAN_SMILES>
C1C(C(OC1N2C=CC(=O)NC2=O)C(CO)O)N
> <PUBCHEM_OPENEYE_ISO_SMILES>
C1[C@H]([C@@H](O[C@@H]1N2C=CC(=O)NC2=O)C(CO)O)N
> <PUBCHEM_CACTVS_TPSA>
125
> <PUBCHEM_MONOISOTOPIC_WEIGHT>
257.10117059
> <PUBCHEM_TOTAL_CHARGE>
0
> <PUBCHEM_HEAVY_ATOM_COUNT>
18
> <PUBCHEM_ATOM_DEF_STEREO_COUNT>
3
> <PUBCHEM_ATOM_UDEF_STEREO_COUNT>
1
> <PUBCHEM_BOND_DEF_STEREO_COUNT>
0
> <PUBCHEM_BOND_UDEF_STEREO_COUNT>
0
> <PUBCHEM_ISOTOPIC_ATOM_COUNT>
0
> <PUBCHEM_COMPONENT_COUNT>
1
> <PUBCHEM_CACTVS_TAUTO_COUNT>
-1
> <PUBCHEM_COORDINATE_TYPE>
1
5
255
> <PUBCHEM_BONDANNOTATIONS>
10  13  6
16  17  8
17  18  8
13  2  3
12  6  6
6  15  8
6  16  8
9  7  5
8  15  8
8  18  8
$$$$
