500207
  -OEChem-10302200282D
 54 57  0     1  0  0  0  0  0999 V2000
    3.7320   -0.7126    0.0000 O   0  0  0  0  0  0  0  0  0  0  0  0
    3.7320   -1.7126    0.0000 O   0  0  0  0  0  0  0  0  0  0  0  0
    7.1962   -0.7126    0.0000 O   0  0  0  0  0  0  0  0  0  0  0  0
    2.0000   -0.7126    0.0000 O   0  0  0  0  0  0  0  0  0  0  0  0
    7.1962    0.2874    0.0000 O   0  0  0  0  0  0  0  0  0  0  0  0
    3.7320   -2.7126    0.0000 N   0  0  0  0  0  0  0  0  0  0  0  0
    6.3301   -2.2126    0.0000 N   0  0  0  0  0  0  0  0  0  0  0  0
    5.4641    0.2874    0.0000 N   0  0  0  0  0  0  0  0  0  0  0  0
    5.4641   -2.7126    0.0000 C   0  0  3  0  0  0  0  0  0  0  0  0
    5.6733   -3.6844    0.0000 C   0  0  0  0  0  0  0  0  0  0  0  0
    2.8660   -2.2126    0.0000 C   0  0  3  0  0  0  0  0  0  0  0  0
    6.6620   -3.7874    0.0000 C   0  0  0  0  0  0  0  0  0  0  0  0
    7.0671   -2.8796    0.0000 C   0  0  0  0  0  0  0  0  0  0  0  0
    2.1290   -2.8796    0.0000 C   0  0  0  0  0  0  0  0  0  0  0  0
    4.5981   -2.2126    0.0000 C   0  0  0  0  0  0  0  0  0  0  0  0
    3.5228   -3.6844    0.0000 C   0  0  0  0  0  0  0  0  0  0  0  0
    2.5341   -3.7874    0.0000 C   0  0  0  0  0  0  0  0  0  0  0  0
    6.3301   -1.2126    0.0000 C   0  0  0  0  0  0  0  0  0  0  0  0
    5.4641   -0.7126    0.0000 C   0  0  3  0  0  0  0  0  0  0  0  0
    2.8660   -1.2126    0.0000 C   0  0  0  0  0  0  0  0  0  0  0  0
    4.5981   -1.2126    0.0000 C   0  0  0  0  0  0  0  0  0  0  0  0
    6.3301    0.7874    0.0000 C   0  0  0  0  0  0  0  0  0  0  0  0
    6.3301    1.7874    0.0000 C   0  0  0  0  0  0  0  0  0  0  0  0
    7.1962    2.2874    0.0000 C   0  0  0  0  0  0  0  0  0  0  0  0
    7.1962    3.2874    0.0000 C   0  0  0  0  0  0  0  0  0  0  0  0
    8.0622    1.7874    0.0000 C   0  0  0  0  0  0  0  0  0  0  0  0
    8.0622    3.7874    0.0000 C   0  0  0  0  0  0  0  0  0  0  0  0
    8.9282    2.2874    0.0000 C   0  0  0  0  0  0  0  0  0  0  0  0
    8.9282    3.2874    0.0000 C   0  0  0  0  0  0  0  0  0  0  0  0
    4.9630   -3.0776    0.0000 H   0  0  0  0  0  0  0  0  0  0  0  0
    5.0568   -3.7504    0.0000 H   0  0  0  0  0  0  0  0  0  0  0  0
    5.6742   -4.3044    0.0000 H   0  0  0  0  0  0  0  0  0  0  0  0
    2.2993   -1.9611    0.0000 H   0  0  0  0  0  0  0  0  0  0  0  0
    6.5333   -4.3939    0.0000 H   0  0  0  0  0  0  0  0  0  0  0  0
    7.2516   -3.9792    0.0000 H   0  0  0  0  0  0  0  0  0  0  0  0
    7.6036   -3.1904    0.0000 H   0  0  0  0  0  0  0  0  0  0  0  0
    7.4326   -2.3788    0.0000 H   0  0  0  0  0  0  0  0  0  0  0  0
    1.7636   -2.3788    0.0000 H   0  0  0  0  0  0  0  0  0  0  0  0
    1.5925   -3.1904    0.0000 H   0  0  0  0  0  0  0  0  0  0  0  0
    3.5220   -4.3044    0.0000 H   0  0  0  0  0  0  0  0  0  0  0  0
    4.1393   -3.7504    0.0000 H   0  0  0  0  0  0  0  0  0  0  0  0
    1.9445   -3.9792    0.0000 H   0  0  0  0  0  0  0  0  0  0  0  0
    2.6628   -4.3939    0.0000 H   0  0  0  0  0  0  0  0  0  0  0  0
    6.0010   -0.4026    0.0000 H   0  0  0  0  0  0  0  0  0  0  0  0
    4.1996   -1.6875    0.0000 H   0  0  0  0  0  0  0  0  0  0  0  0
    4.9966   -1.6875    0.0000 H   0  0  0  0  0  0  0  0  0  0  0  0
    4.9272    0.5974    0.0000 H   0  0  0  0  0  0  0  0  0  0  0  0
    6.1181    2.3700    0.0000 H   0  0  0  0  0  0  0  0  0  0  0  0
    5.7196    1.6798    0.0000 H   0  0  0  0  0  0  0  0  0  0  0  0
    6.6592    3.5974    0.0000 H   0  0  0  0  0  0  0  0  0  0  0  0
    8.0622    1.1674    0.0000 H   0  0  0  0  0  0  0  0  0  0  0  0
    8.0622    4.4074    0.0000 H   0  0  0  0  0  0  0  0  0  0  0  0
    9.4651    1.9774    0.0000 H   0  0  0  0  0  0  0  0  0  0  0  0
    9.4651    3.5974    0.0000 H   0  0  0  0  0  0  0  0  0  0  0  0
  1 20  1  0  0  0  0
  1 21  1  0  0  0  0
  2 15  2  0  0  0  0
  3 18  2  0  0  0  0
  4 20  2  0  0  0  0
  5 22  2  0  0  0  0
  6 11  1  0  0  0  0
  6 15  1  0  0  0  0
  6 16  1  0  0  0  0
  7  9  1  0  0  0  0
  7 13  1  0  0  0  0
  7 18  1  0  0  0  0
  8 19  1  0  0  0  0
  8 22  1  0  0  0  0
  8 47  1  0  0  0  0
  9 10  1  0  0  0  0
  9 15  1  0  0  0  0
  9 30  1  0  0  0  0
 10 12  1  0  0  0  0
 10 31  1  0  0  0  0
 10 32  1  0  0  0  0
 11 14  1  0  0  0  0
 11 20  1  0  0  0  0
 11 33  1  0  0  0  0
 12 13  1  0  0  0  0
 12 34  1  0  0  0  0
 12 35  1  0  0  0  0
 13 36  1  0  0  0  0
 13 37  1  0  0  0  0
 14 17  1  0  0  0  0
 14 38  1  0  0  0  0
 14 39  1  0  0  0  0
 16 17  1  0  0  0  0
 16 40  1  0  0  0  0
 16 41  1  0  0  0  0
 17 42  1  0  0  0  0
 17 43  1  0  0  0  0
 18 19  1  0  0  0  0
 19 21  1  0  0  0  0
 19 44  1  0  0  0  0
 21 45  1  0  0  0  0
 21 46  1  0  0  0  0
 22 23  1  0  0  0  0
 23 24  1  0  0  0  0
 23 48  1  0  0  0  0
 23 49  1  0  0  0  0
 24 25  2  0  0  0  0
 24 26  1  0  0  0  0
 25 27  1  0  0  0  0
 25 50  1  0  0  0  0
 26 28  2  0  0  0  0
 26 51  1  0  0  0  0
 27 29  2  0  0  0  0
 27 52  1  0  0  0  0
 28 29  1  0  0  0  0
 28 53  1  0  0  0  0
 29 54  1  0  0  0  0
M  END
> <PUBCHEM_COMPOUND_CID>
500207
> <PUBCHEM_COMPOUND_CANONICALIZED>
1
> <PUBCHEM_CACTVS_COMPLEXITY>
675
> <PUBCHEM_CACTVS_HBOND_ACCEPTOR>
5
> <PUBCHEM_CACTVS_HBOND_DONOR>
1
> <PUBCHEM_CACTVS_ROTATABLE_BOND>
3
> <PUBCHEM_CACTVS_SUBSKEYS>
AAADceB7OAAAAAAAAAAAAAAAAAAAAWLAAAAwAAAAAAAAAACxAAAAHgAQAAAADCjhmAYwCIPABACIAiHSGAACAAAgAAAIiIGIAIgKYDaAlTGXIAAmtgCYiAeYmYKOAAAAAAAAAAAAAAAAAAAAAAAAAAAAAA==
> <PUBCHEM_IUPAC_OPENEYE_NAME>
2-phenyl-N-(2,8,12-trioxo-11-oxa-1,7-diazatricyclo[11.3.0.03,7]hexadecan-9-yl)acetamide
> <PUBCHEM_IUPAC_CAS_NAME>
2-phenyl-N-(2,8,12-trioxo-11-oxa-1,7-diazatricyclo[11.3.0.03,7]hexadecan-9-yl)acetamide
> <PUBCHEM_IUPAC_NAME_MARKUP>
2-phenyl-<I>N</I>-(2,8,12-trioxo-11-oxa-1,7-diazatricyclo[11.3.0.0<SUP>3,7</SUP>]hexadecan-9-yl)acetamide
> <PUBCHEM_IUPAC_NAME>
2-phenyl-N-(2,8,12-trioxo-11-oxa-1,7-diazatricyclo[11.3.0.03,7]hexadecan-9-yl)acetamide
> <PUBCHEM_IUPAC_SYSTEMATIC_NAME>
2-phenyl-N-[2,8,12-tris(oxidanylidene)-11-oxa-1,7-diazatricyclo[11.3.0.03,7]hexadecan-9-yl]ethanamide
> <PUBCHEM_IUPAC_TRADITIONAL_NAME>
2-phenyl-N-(2,8,12-triketo-11-oxa-1,7-diazatricyclo[11.3.0.03,7]hexadecan-9-yl)acetamide
> <PUBCHEM_IUPAC_INCHI>
InChI=1S/C21H25N3O5/c25-18(12-14-6-2-1-3-7-14)22-15-13-29-21(28)17-9-5-11-24(17)20(27)16-8-4-10-23(16)19(15)26/h1-3,6-7,15-17H,4-5,8-13H2,(H,22,25)
> <PUBCHEM_IUPAC_INCHIKEY>
SNASQQZXAQOOIZ-UHFFFAOYSA-N
> <PUBCHEM_XLOGP3_AA>
1
> <PUBCHEM_EXACT_MASS>
399.17942091
> <PUBCHEM_MOLECULAR_FORMULA>
C21H25N3O5
> <PUBCHEM_MOLECULAR_WEIGHT>
399.4
> <PUBCHEM_OPENEYE_CAN_SMILES>
C1CC2C(=O)OCC(C(=O)N3CCCC3C(=O)N2C1)NC(=O)CC4=CC=CC=C4
> <PUBCHEM_OPENEYE_ISO_SMILES>
C1CC2C(=O)OCC(C(=O)N3CCCC3C(=O)N2C1)NC(=O)CC4=CC=CC=C4
> <PUBCHEM_CACTVS_TPSA>
96
> <PUBCHEM_MONOISOTOPIC_WEIGHT>
399.17942091
> <PUBCHEM_TOTAL_CHARGE>
0
> <PUBCHEM_HEAVY_ATOM_COUNT>
29
> <PUBCHEM_ATOM_DEF_STEREO_COUNT>
0
> <PUBCHEM_ATOM_UDEF_STEREO_COUNT>
3
> <PUBCHEM_BOND_DEF_STEREO_COUNT>
0
> <PUBCHEM_BOND_UDEF_STEREO_COUNT>
0
> <PUBCHEM_ISOTOPIC_ATOM_COUNT>
0
> <PUBCHEM_COMPONENT_COUNT>
1
> <PUBCHEM_CACTVS_TAUTO_COUNT>
-1
> <PUBCHEM_COORDINATE_TYPE>
1
5
255
> <PUBCHEM_BONDANNOTATIONS>
11  14  3
24  25  8
24  26  8
25  27  8
26  28  8
27  29  8
28  29  8
19  8  3
9  10  3
$$$$
