500219
  -OEChem-10302200282D
 40 43  0     1  0  0  0  0  0999 V2000
    6.2621   -1.6278    0.0000 O   0  0  0  0  0  0  0  0  0  0  0  0
    7.9942    1.3730    0.0000 O   0  0  0  0  0  0  0  0  0  0  0  0
    3.5836   -0.9321    0.0000 O   0  0  0  0  0  0  0  0  0  0  0  0
    5.6192   -0.3935    0.0000 O   0  0  0  0  0  0  0  0  0  0  0  0
    2.0000   -0.1274    0.0000 O   0  0  0  0  0  0  0  0  0  0  0  0
    6.2619   -0.6274    0.0000 C   0  0  3  0  0  0  0  0  0  0  0  0
    5.3958   -1.1274    0.0000 C   0  0  3  0  0  0  0  0  0  0  0  0
    7.1279    0.8726    0.0000 C   0  0  3  0  0  0  0  0  0  0  0  0
    7.9939    0.3726    0.0000 C   0  0  3  0  0  0  0  0  0  0  0  0
    4.5298   -0.6274    0.0000 C   0  0  3  0  0  0  0  0  0  0  0  0
    7.1279   -1.1274    0.0000 C   0  0  0  0  0  0  0  0  0  0  0  0
    7.9939   -0.6274    0.0000 C   0  0  0  0  0  0  0  0  0  0  0  0
    4.5298    0.3726    0.0000 C   0  0  3  0  0  0  0  0  0  0  0  0
    6.2619    0.3726    0.0000 C   0  0  3  0  0  0  0  0  0  0  0  0
    5.3958    0.8726    0.0000 C   0  0  0  0  0  0  0  0  0  0  0  0
    7.1279   -0.1274    0.0000 C   0  0  0  0  0  0  0  0  0  0  0  0
    6.2619    1.3726    0.0000 C   0  0  0  0  0  0  0  0  0  0  0  0
    3.5836    0.6773    0.0000 C   0  0  0  0  0  0  0  0  0  0  0  0
    3.0000   -0.1274    0.0000 C   0  0  0  0  0  0  0  0  0  0  0  0
    3.2729    1.6278    0.0000 C   0  0  0  0  0  0  0  0  0  0  0  0
    5.0858   -1.6643    0.0000 H   0  0  0  0  0  0  0  0  0  0  0  0
    8.6139    0.3725    0.0000 H   0  0  0  0  0  0  0  0  0  0  0  0
    4.4642   -1.2439    0.0000 H   0  0  0  0  0  0  0  0  0  0  0  0
    6.7294   -1.6024    0.0000 H   0  0  0  0  0  0  0  0  0  0  0  0
    7.5264   -1.6024    0.0000 H   0  0  0  0  0  0  0  0  0  0  0  0
    8.2060   -1.2100    0.0000 H   0  0  0  0  0  0  0  0  0  0  0  0
    8.6045   -0.5197    0.0000 H   0  0  0  0  0  0  0  0  0  0  0  0
    4.4642    0.9891    0.0000 H   0  0  0  0  0  0  0  0  0  0  0  0
    6.6604   -0.1023    0.0000 H   0  0  0  0  0  0  0  0  0  0  0  0
    5.7944    1.3475    0.0000 H   0  0  0  0  0  0  0  0  0  0  0  0
    4.9973    1.3475    0.0000 H   0  0  0  0  0  0  0  0  0  0  0  0
    7.4379   -0.6643    0.0000 H   0  0  0  0  0  0  0  0  0  0  0  0
    7.6648    0.1826    0.0000 H   0  0  0  0  0  0  0  0  0  0  0  0
    6.8179    0.4095    0.0000 H   0  0  0  0  0  0  0  0  0  0  0  0
    6.5719    1.9095    0.0000 H   0  0  0  0  0  0  0  0  0  0  0  0
    5.7249    1.6826    0.0000 H   0  0  0  0  0  0  0  0  0  0  0  0
    5.9519    0.8357    0.0000 H   0  0  0  0  0  0  0  0  0  0  0  0
    5.1442    0.0051    0.0000 H   0  0  0  0  0  0  0  0  0  0  0  0
    3.6870    2.0893    0.0000 H   0  0  0  0  0  0  0  0  0  0  0  0
    2.6663    1.7557    0.0000 H   0  0  0  0  0  0  0  0  0  0  0  0
  1  6  1  0  0  0  0
  1  7  1  0  0  0  0
  2  8  1  0  0  0  0
  2  9  1  0  0  0  0
  3 10  1  0  0  0  0
  3 19  1  0  0  0  0
  4 14  1  0  0  0  0
  4 38  1  0  0  0  0
  5 19  2  0  0  0  0
  6  7  1  0  0  0  0
  6 11  1  0  0  0  0
  6 16  1  0  0  0  0
  7 10  1  0  0  0  0
  7 21  1  0  0  0  0
  8  9  1  0  0  0  0
  8 14  1  0  0  0  0
  8 17  1  0  0  0  0
  9 12  1  0  0  0  0
  9 22  1  0  0  0  0
 10 13  1  0  0  0  0
 10 23  1  0  0  0  0
 11 12  1  0  0  0  0
 11 24  1  0  0  0  0
 11 25  1  0  0  0  0
 12 26  1  0  0  0  0
 12 27  1  0  0  0  0
 13 15  1  0  0  0  0
 13 18  1  0  0  0  0
 13 28  1  0  0  0  0
 14 15  1  0  0  0  0
 14 29  1  0  0  0  0
 15 30  1  0  0  0  0
 15 31  1  0  0  0  0
 16 32  1  0  0  0  0
 16 33  1  0  0  0  0
 16 34  1  0  0  0  0
 17 35  1  0  0  0  0
 17 36  1  0  0  0  0
 17 37  1  0  0  0  0
 18 19  1  0  0  0  0
 18 20  2  0  0  0  0
 20 39  1  0  0  0  0
 20 40  1  0  0  0  0
M  END
> <PUBCHEM_COMPOUND_CID>
500219
> <PUBCHEM_COMPOUND_CANONICALIZED>
1
> <PUBCHEM_CACTVS_COMPLEXITY>
503
> <PUBCHEM_CACTVS_HBOND_ACCEPTOR>
5
> <PUBCHEM_CACTVS_HBOND_DONOR>
1
> <PUBCHEM_CACTVS_ROTATABLE_BOND>
0
> <PUBCHEM_CACTVS_SUBSKEYS>
AAADceBwOAAAAAAAAAAAAAAAEiQAASAAAAAAAAAAAAAAAADAAAAAGgAACAAADVSggAICCAAABgCIAgDSCAAAAAAgAAAAAAEAAEgBFBIAIQACQAAFwAADIIHK7PzOAAAAAAAAAAAAAAAAAAAAAAAAAAAAAA==
> <PUBCHEM_IUPAC_OPENEYE_NAME>
10-hydroxy-4,9-dimethyl-13-methylene-3,8,15-trioxatetracyclo[10.3.0.02,4.07,9]pentadecan-14-one
> <PUBCHEM_IUPAC_CAS_NAME>
10-hydroxy-4,9-dimethyl-13-methylene-3,8,15-trioxatetracyclo[10.3.0.02,4.07,9]pentadecan-14-one
> <PUBCHEM_IUPAC_NAME_MARKUP>
10-hydroxy-4,9-dimethyl-13-methylidene-3,8,15-trioxatetracyclo[10.3.0.0<SUP>2,4</SUP>.0<SUP>7,9</SUP>]pentadecan-14-one
> <PUBCHEM_IUPAC_NAME>
10-hydroxy-4,9-dimethyl-13-methylidene-3,8,15-trioxatetracyclo[10.3.0.02,4.07,9]pentadecan-14-one
> <PUBCHEM_IUPAC_SYSTEMATIC_NAME>
4,9-dimethyl-13-methylidene-10-oxidanyl-3,8,15-trioxatetracyclo[10.3.0.02,4.07,9]pentadecan-14-one
> <PUBCHEM_IUPAC_TRADITIONAL_NAME>
10-hydroxy-4,9-dimethyl-13-methylene-3,8,15-trioxatetracyclo[10.3.0.02,4.07,9]pentadecan-14-one
> <PUBCHEM_IUPAC_INCHI>
InChI=1S/C15H20O5/c1-7-8-6-9(16)15(3)10(19-15)4-5-14(2)12(20-14)11(8)18-13(7)17/h8-12,16H,1,4-6H2,2-3H3
> <PUBCHEM_IUPAC_INCHIKEY>
LWONQONPHFIJAL-UHFFFAOYSA-N
> <PUBCHEM_XLOGP3_AA>
0.7
> <PUBCHEM_EXACT_MASS>
280.13107373
> <PUBCHEM_MOLECULAR_FORMULA>
C15H20O5
> <PUBCHEM_MOLECULAR_WEIGHT>
280.32
> <PUBCHEM_OPENEYE_CAN_SMILES>
CC12CCC3C(O3)(C(CC4C(C1O2)OC(=O)C4=C)O)C
> <PUBCHEM_OPENEYE_ISO_SMILES>
CC12CCC3C(O3)(C(CC4C(C1O2)OC(=O)C4=C)O)C
> <PUBCHEM_CACTVS_TPSA>
71.6
> <PUBCHEM_MONOISOTOPIC_WEIGHT>
280.13107373
> <PUBCHEM_TOTAL_CHARGE>
0
> <PUBCHEM_HEAVY_ATOM_COUNT>
20
> <PUBCHEM_ATOM_DEF_STEREO_COUNT>
0
> <PUBCHEM_ATOM_UDEF_STEREO_COUNT>
7
> <PUBCHEM_BOND_DEF_STEREO_COUNT>
0
> <PUBCHEM_BOND_UDEF_STEREO_COUNT>
0
> <PUBCHEM_ISOTOPIC_ATOM_COUNT>
0
> <PUBCHEM_COMPONENT_COUNT>
1
> <PUBCHEM_CACTVS_TAUTO_COUNT>
-1
> <PUBCHEM_COORDINATE_TYPE>
1
5
255
> <PUBCHEM_BONDANNOTATIONS>
7  1  3
13  15  3
10  3  3
14  4  3
6  16  3
8  17  3
9  12  3
$$$$
