500241
  -OEChem-10302200282D
 92100  0     1  0  0  0  0  0999 V2000
    5.8256    6.4897    0.0000 O   0  0  0  0  0  0  0  0  0  0  0  0
    5.3369   -4.9026    0.0000 O   0  0  0  0  0  0  0  0  0  0  0  0
    4.3187    0.9226    0.0000 N   0  0  0  0  0  0  0  0  0  0  0  0
    7.7889   -2.9449    0.0000 N   0  0  0  0  0  0  0  0  0  0  0  0
    7.2371    2.7713    0.0000 N   0  0  0  0  0  0  0  0  0  0  0  0
    8.8812   -6.7074    0.0000 N   0  0  0  0  0  0  0  0  0  0  0  0
    3.3609    3.4811    0.0000 C   0  0  3  0  0  0  0  0  0  0  0  0
   10.4835   -3.3947    0.0000 C   0  0  3  0  0  0  0  0  0  0  0  0
    2.4331    3.1081    0.0000 C   0  0  3  0  0  0  0  0  0  0  0  0
   10.6244   -2.4047    0.0000 C   0  0  3  0  0  0  0  0  0  0  0  0
    4.6586    2.7388    0.0000 C   0  0  3  0  0  0  0  0  0  0  0  0
    9.1919   -4.1474    0.0000 C   0  0  3  0  0  0  0  0  0  0  0  0
    4.1125    1.9011    0.0000 C   0  0  3  0  0  0  0  0  0  0  0  0
    8.7394   -3.2556    0.0000 C   0  0  3  0  0  0  0  0  0  0  0  0
    2.0896    1.9290    0.0000 C   0  0  0  0  0  0  0  0  0  0  0  0
    9.7750   -1.5177    0.0000 C   0  0  0  0  0  0  0  0  0  0  0  0
    2.9278    4.9053    0.0000 C   0  0  0  0  0  0  0  0  0  0  0  0
   11.9334   -3.7318    0.0000 C   0  0  0  0  0  0  0  0  0  0  0  0
    2.0000    4.5323    0.0000 C   0  0  0  0  0  0  0  0  0  0  0  0
   12.0743   -2.7417    0.0000 C   0  0  0  0  0  0  0  0  0  0  0  0
    5.6370    2.9450    0.0000 C   0  0  0  0  0  0  0  0  0  0  0  0
    8.8812   -5.0979    0.0000 C   0  0  0  0  0  0  0  0  0  0  0  0
    6.0422    3.8528    0.0000 C   0  0  0  0  0  0  0  0  0  0  0  0
    7.9350   -5.4026    0.0000 C   0  0  0  0  0  0  0  0  0  0  0  0
    5.2692    0.6119    0.0000 C   0  0  0  0  0  0  0  0  0  0  0  0
    7.5827   -1.9664    0.0000 C   0  0  0  0  0  0  0  0  0  0  0  0
    6.3741    2.2780    0.0000 C   0  0  0  0  0  0  0  0  0  0  0  0
    9.4648   -5.9026    0.0000 C   0  0  0  0  0  0  0  0  0  0  0  0
    7.0363    3.7449    0.0000 C   0  0  0  0  0  0  0  0  0  0  0  0
    7.9350   -6.4026    0.0000 C   0  0  0  0  0  0  0  0  0  0  0  0
    5.4754   -0.3666    0.0000 C   0  0  0  0  0  0  0  0  0  0  0  0
    6.6322   -1.6558    0.0000 C   0  0  0  0  0  0  0  0  0  0  0  0
    5.6386    4.7678    0.0000 C   0  0  0  0  0  0  0  0  0  0  0  0
    7.0690   -4.9026    0.0000 C   0  0  0  0  0  0  0  0  0  0  0  0
    6.4259   -0.6772    0.0000 C   0  0  0  0  0  0  0  0  0  0  0  0
    7.6269    4.5518    0.0000 C   0  0  0  0  0  0  0  0  0  0  0  0
    7.0690   -6.9026    0.0000 C   0  0  0  0  0  0  0  0  0  0  0  0
    4.7311   -1.0344    0.0000 C   0  0  0  0  0  0  0  0  0  0  0  0
    5.8878   -2.3236    0.0000 C   0  0  0  0  0  0  0  0  0  0  0  0
    6.2292    5.5748    0.0000 C   0  0  0  0  0  0  0  0  0  0  0  0
    6.2029   -5.4026    0.0000 C   0  0  0  0  0  0  0  0  0  0  0  0
    4.9373   -2.0129    0.0000 C   0  0  0  0  0  0  0  0  0  0  0  0
    7.2233    5.4668    0.0000 C   0  0  0  0  0  0  0  0  0  0  0  0
    6.2029   -6.4026    0.0000 C   0  0  0  0  0  0  0  0  0  0  0  0
    6.4162    7.2967    0.0000 C   0  0  0  0  0  0  0  0  0  0  0  0
    4.4709   -5.4026    0.0000 C   0  0  0  0  0  0  0  0  0  0  0  0
    3.8456    3.8676    0.0000 H   0  0  0  0  0  0  0  0  0  0  0  0
   10.5759   -4.0078    0.0000 H   0  0  0  0  0  0  0  0  0  0  0  0
    2.9372    3.4690    0.0000 H   0  0  0  0  0  0  0  0  0  0  0  0
   10.6849   -3.0217    0.0000 H   0  0  0  0  0  0  0  0  0  0  0  0
    4.7548    3.3513    0.0000 H   0  0  0  0  0  0  0  0  0  0  0  0
    9.6741   -4.5370    0.0000 H   0  0  0  0  0  0  0  0  0  0  0  0
    3.5931    1.5625    0.0000 H   0  0  0  0  0  0  0  0  0  0  0  0
    8.7059   -2.6365    0.0000 H   0  0  0  0  0  0  0  0  0  0  0  0
    1.4731    1.8635    0.0000 H   0  0  0  0  0  0  0  0  0  0  0  0
    2.3842    1.3835    0.0000 H   0  0  0  0  0  0  0  0  0  0  0  0
   10.0266   -0.9510    0.0000 H   0  0  0  0  0  0  0  0  0  0  0  0
    9.1553   -1.5001    0.0000 H   0  0  0  0  0  0  0  0  0  0  0  0
    3.5155    5.1028    0.0000 H   0  0  0  0  0  0  0  0  0  0  0  0
    2.7134    5.4870    0.0000 H   0  0  0  0  0  0  0  0  0  0  0  0
   11.8106   -4.3395    0.0000 H   0  0  0  0  0  0  0  0  0  0  0  0
   12.5445   -3.8369    0.0000 H   0  0  0  0  0  0  0  0  0  0  0  0
    1.7855    5.1140    0.0000 H   0  0  0  0  0  0  0  0  0  0  0  0
    1.4123    4.3348    0.0000 H   0  0  0  0  0  0  0  0  0  0  0  0
   12.6853   -2.8468    0.0000 H   0  0  0  0  0  0  0  0  0  0  0  0
   12.1971   -2.1340    0.0000 H   0  0  0  0  0  0  0  0  0  0  0  0
    3.8572    0.5085    0.0000 H   0  0  0  0  0  0  0  0  0  0  0  0
    7.3274   -3.3590    0.0000 H   0  0  0  0  0  0  0  0  0  0  0  0
    5.8889    0.6325    0.0000 H   0  0  0  0  0  0  0  0  0  0  0  0
    5.3566    1.2257    0.0000 H   0  0  0  0  0  0  0  0  0  0  0  0
    8.2023   -1.9458    0.0000 H   0  0  0  0  0  0  0  0  0  0  0  0
    7.6700   -1.3526    0.0000 H   0  0  0  0  0  0  0  0  0  0  0  0
    6.3071    1.6616    0.0000 H   0  0  0  0  0  0  0  0  0  0  0  0
   10.0848   -5.9026    0.0000 H   0  0  0  0  0  0  0  0  0  0  0  0
    7.8022    2.5162    0.0000 H   0  0  0  0  0  0  0  0  0  0  0  0
    9.0738   -7.2967    0.0000 H   0  0  0  0  0  0  0  0  0  0  0  0
    5.0222    4.8347    0.0000 H   0  0  0  0  0  0  0  0  0  0  0  0
    7.0690   -4.2826    0.0000 H   0  0  0  0  0  0  0  0  0  0  0  0
    6.8874   -0.2632    0.0000 H   0  0  0  0  0  0  0  0  0  0  0  0
    8.2433    4.4849    0.0000 H   0  0  0  0  0  0  0  0  0  0  0  0
    7.0690   -7.5226    0.0000 H   0  0  0  0  0  0  0  0  0  0  0  0
    4.1418   -0.8418    0.0000 H   0  0  0  0  0  0  0  0  0  0  0  0
    6.0157   -2.9303    0.0000 H   0  0  0  0  0  0  0  0  0  0  0  0
    4.4759   -2.4270    0.0000 H   0  0  0  0  0  0  0  0  0  0  0  0
    7.5895    5.9671    0.0000 H   0  0  0  0  0  0  0  0  0  0  0  0
    5.6660   -6.7126    0.0000 H   0  0  0  0  0  0  0  0  0  0  0  0
    6.9165    6.9305    0.0000 H   0  0  0  0  0  0  0  0  0  0  0  0
    6.7824    7.7970    0.0000 H   0  0  0  0  0  0  0  0  0  0  0  0
    5.9159    7.6628    0.0000 H   0  0  0  0  0  0  0  0  0  0  0  0
    4.1609   -4.8657    0.0000 H   0  0  0  0  0  0  0  0  0  0  0  0
    3.9339   -5.7126    0.0000 H   0  0  0  0  0  0  0  0  0  0  0  0
    4.7809   -5.9396    0.0000 H   0  0  0  0  0  0  0  0  0  0  0  0
  1 40  1  0  0  0  0
  1 45  1  0  0  0  0
  2 41  1  0  0  0  0
  2 46  1  0  0  0  0
  3 13  1  0  0  0  0
  3 25  1  0  0  0  0
  3 67  1  0  0  0  0
  4 14  1  0  0  0  0
  4 26  1  0  0  0  0
  4 68  1  0  0  0  0
  5 27  1  0  0  0  0
  5 29  1  0  0  0  0
  5 75  1  0  0  0  0
  6 28  1  0  0  0  0
  6 30  1  0  0  0  0
  6 76  1  0  0  0  0
  7 11  1  0  0  0  0
  7 15  1  0  0  0  0
  7 17  1  0  0  0  0
  7 47  1  0  0  0  0
  8 12  1  0  0  0  0
  8 16  1  0  0  0  0
  8 18  1  0  0  0  0
  8 48  1  0  0  0  0
  9 13  1  0  0  0  0
  9 15  1  0  0  0  0
  9 19  1  0  0  0  0
  9 49  1  0  0  0  0
 10 14  1  0  0  0  0
 10 16  1  0  0  0  0
 10 20  1  0  0  0  0
 10 50  1  0  0  0  0
 11 13  1  0  0  0  0
 11 21  1  0  0  0  0
 11 51  1  0  0  0  0
 12 14  1  0  0  0  0
 12 22  1  0  0  0  0
 12 52  1  0  0  0  0
 13 53  1  0  0  0  0
 14 54  1  0  0  0  0
 15 55  1  0  0  0  0
 15 56  1  0  0  0  0
 16 57  1  0  0  0  0
 16 58  1  0  0  0  0
 17 19  1  0  0  0  0
 17 59  1  0  0  0  0
 17 60  1  0  0  0  0
 18 20  1  0  0  0  0
 18 61  1  0  0  0  0
 18 62  1  0  0  0  0
 19 63  1  0  0  0  0
 19 64  1  0  0  0  0
 20 65  1  0  0  0  0
 20 66  1  0  0  0  0
 21 23  1  0  0  0  0
 21 27  2  0  0  0  0
 22 24  1  0  0  0  0
 22 28  2  0  0  0  0
 23 29  2  0  0  0  0
 23 33  1  0  0  0  0
 24 30  2  0  0  0  0
 24 34  1  0  0  0  0
 25 31  1  0  0  0  0
 25 69  1  0  0  0  0
 25 70  1  0  0  0  0
 26 32  1  0  0  0  0
 26 71  1  0  0  0  0
 26 72  1  0  0  0  0
 27 73  1  0  0  0  0
 28 74  1  0  0  0  0
 29 36  1  0  0  0  0
 30 37  1  0  0  0  0
 31 35  2  0  0  0  0
 31 38  1  0  0  0  0
 32 35  1  0  0  0  0
 32 39  2  0  0  0  0
 33 40  2  0  0  0  0
 33 77  1  0  0  0  0
 34 41  2  0  0  0  0
 34 78  1  0  0  0  0
 35 79  1  0  0  0  0
 36 43  2  0  0  0  0
 36 80  1  0  0  0  0
 37 44  2  0  0  0  0
 37 81  1  0  0  0  0
 38 42  2  0  0  0  0
 38 82  1  0  0  0  0
 39 42  1  0  0  0  0
 39 83  1  0  0  0  0
 40 43  1  0  0  0  0
 41 44  1  0  0  0  0
 42 84  1  0  0  0  0
 43 85  1  0  0  0  0
 44 86  1  0  0  0  0
 45 87  1  0  0  0  0
 45 88  1  0  0  0  0
 45 89  1  0  0  0  0
 46 90  1  0  0  0  0
 46 91  1  0  0  0  0
 46 92  1  0  0  0  0
M  END
> <PUBCHEM_COMPOUND_CID>
500241
> <PUBCHEM_COMPOUND_CANONICALIZED>
1
> <PUBCHEM_CACTVS_COMPLEXITY>
965
> <PUBCHEM_CACTVS_HBOND_ACCEPTOR>
4
> <PUBCHEM_CACTVS_HBOND_DONOR>
4
> <PUBCHEM_CACTVS_ROTATABLE_BOND>
10
> <PUBCHEM_CACTVS_SUBSKEYS>
AAADcfB/sAAAAAAAAAAAAAAAAAAAAePGDBAwYMGDAAAAAFgB/gAAHgAQAAAADSzBngY+xvLJlACgAzRnRACCiCAxIiAI2aA+bJgMJuLEsZuEMChk0BHI6Aew0PIOgEADAAACAAAAgAaAACQAASAACQAAAA==
> <PUBCHEM_IUPAC_OPENEYE_NAME>
3-(5-methoxy-1H-indol-3-yl)-N-[[3-[[[3-(5-methoxy-1H-indol-3-yl)norbornan-2-yl]amino]methyl]phenyl]methyl]norbornan-2-amine
> <PUBCHEM_IUPAC_CAS_NAME>
3-(5-methoxy-1H-indol-3-yl)-N-[[3-[[[3-(5-methoxy-1H-indol-3-yl)-2-bicyclo[2.2.1]heptanyl]amino]methyl]phenyl]methyl]-2-bicyclo[2.2.1]heptanamine
> <PUBCHEM_IUPAC_NAME_MARKUP>
3-(5-methoxy-1<I>H</I>-indol-3-yl)-<I>N</I>-[[3-[[[3-(5-methoxy-1<I>H</I>-indol-3-yl)-2-bicyclo[2.2.1]heptanyl]amino]methyl]phenyl]methyl]bicyclo[2.2.1]heptan-2-amine
> <PUBCHEM_IUPAC_NAME>
3-(5-methoxy-1H-indol-3-yl)-N-[[3-[[[3-(5-methoxy-1H-indol-3-yl)-2-bicyclo[2.2.1]heptanyl]amino]methyl]phenyl]methyl]bicyclo[2.2.1]heptan-2-amine
> <PUBCHEM_IUPAC_SYSTEMATIC_NAME>
3-(5-methoxy-1H-indol-3-yl)-N-[[3-[[[3-(5-methoxy-1H-indol-3-yl)-2-bicyclo[2.2.1]heptanyl]amino]methyl]phenyl]methyl]bicyclo[2.2.1]heptan-2-amine
> <PUBCHEM_IUPAC_TRADITIONAL_NAME>
[3-(5-methoxy-1H-indol-3-yl)norbornan-2-yl]-[3-[[[3-(5-methoxy-1H-indol-3-yl)norbornan-2-yl]amino]methyl]benzyl]amine
> <PUBCHEM_IUPAC_INCHI>
InChI=1S/C40H46N4O2/c1-45-29-10-12-35-31(17-29)33(21-41-35)37-25-6-8-27(15-25)39(37)43-19-23-4-3-5-24(14-23)20-44-40-28-9-7-26(16-28)38(40)34-22-42-36-13-11-30(46-2)18-32(34)36/h3-5,10-14,17-18,21-22,25-28,37-44H,6-9,15-16,19-20H2,1-2H3
> <PUBCHEM_IUPAC_INCHIKEY>
URXXLRJJRZBNJE-UHFFFAOYSA-N
> <PUBCHEM_XLOGP3_AA>
7.1
> <PUBCHEM_EXACT_MASS>
614.36207672
> <PUBCHEM_MOLECULAR_FORMULA>
C40H46N4O2
> <PUBCHEM_MOLECULAR_WEIGHT>
614.8
> <PUBCHEM_OPENEYE_CAN_SMILES>
COC1=CC2=C(C=C1)NC=C2C3C4CCC(C4)C3NCC5=CC(=CC=C5)CNC6C7CCC(C7)C6C8=CNC9=C8C=C(C=C9)OC
> <PUBCHEM_OPENEYE_ISO_SMILES>
COC1=CC2=C(C=C1)NC=C2C3C4CCC(C4)C3NCC5=CC(=CC=C5)CNC6C7CCC(C7)C6C8=CNC9=C8C=C(C=C9)OC
> <PUBCHEM_CACTVS_TPSA>
74.1
> <PUBCHEM_MONOISOTOPIC_WEIGHT>
614.36207672
> <PUBCHEM_TOTAL_CHARGE>
0
> <PUBCHEM_HEAVY_ATOM_COUNT>
46
> <PUBCHEM_ATOM_DEF_STEREO_COUNT>
0
> <PUBCHEM_ATOM_UDEF_STEREO_COUNT>
8
> <PUBCHEM_BOND_DEF_STEREO_COUNT>
0
> <PUBCHEM_BOND_UDEF_STEREO_COUNT>
0
> <PUBCHEM_ISOTOPIC_ATOM_COUNT>
0
> <PUBCHEM_COMPONENT_COUNT>
1
> <PUBCHEM_CACTVS_TAUTO_COUNT>
-1
> <PUBCHEM_COORDINATE_TYPE>
1
5
255
> <PUBCHEM_BONDANNOTATIONS>
10  20  3
11  21  3
12  22  3
21  23  8
21  27  8
22  24  8
22  28  8
23  29  8
23  33  8
24  30  8
24  34  8
29  36  8
13  3  3
30  37  8
31  35  8
31  38  8
32  35  8
32  39  8
33  40  8
34  41  8
36  43  8
37  44  8
38  42  8
39  42  8
14  4  3
40  43  8
41  44  8
5  27  8
5  29  8
6  28  8
6  30  8
7  17  3
8  18  3
9  19  3
$$$$
