500280
  -OEChem-10302200282D
 71 74  0     1  0  0  0  0  0999 V2000
    7.2566   -0.3414    0.0000 P   0  0  3  0  0  0  0  0  0  0  0  0
    9.9326    1.9344    0.0000 O   0  0  0  0  0  0  0  0  0  0  0  0
    8.2351   -0.1352    0.0000 O   0  0  0  0  0  0  0  0  0  0  0  0
    7.0504    0.6371    0.0000 O   0  0  0  0  0  0  0  0  0  0  0  0
   10.3122    3.7313    0.0000 O   0  0  0  0  0  0  0  0  0  0  0  0
    7.4628   -1.3199    0.0000 O   0  0  0  0  0  0  0  0  0  0  0  0
   13.6086    4.7961    0.0000 O   0  0  0  0  0  0  0  0  0  0  0  0
    7.6138   -2.0362    0.0000 O   0  0  0  0  0  0  0  0  0  0  0  0
    6.3246   -3.1930    0.0000 O   0  0  0  0  0  0  0  0  0  0  0  0
   11.5974    2.5701    0.0000 N   0  0  0  0  0  0  0  0  0  0  0  0
   10.1600   -0.6432    0.0000 N   0  0  0  0  0  0  0  0  0  0  0  0
    6.2781   -0.5476    0.0000 N   0  0  0  0  0  0  0  0  0  0  0  0
   11.9604    4.2637    0.0000 N   0  0  0  0  0  0  0  0  0  0  0  0
   10.9680   -1.2324    0.0000 N   0  3  0  0  0  0  0  0  0  0  0  0
    4.6783   -4.2644    0.0000 N   0  0  0  0  0  0  0  0  0  0  0  0
   11.7760   -1.8216    0.0000 N   0  5  0  0  0  0  0  0  0  0  0  0
    3.9926    2.5476    0.0000 N   0  0  0  0  0  0  0  0  0  0  0  0
   10.2663    0.3511    0.0000 C   0  0  1  0  0  0  0  0  0  0  0  0
    9.5243    1.0215    0.0000 C   0  0  2  0  0  0  0  0  0  0  0  0
   11.1332    0.8496    0.0000 C   0  0  0  0  0  0  0  0  0  0  0  0
   10.9269    1.8281    0.0000 C   0  0  2  0  0  0  0  0  0  0  0  0
    8.5458    0.8153    0.0000 C   0  0  0  0  0  0  0  0  0  0  0  0
   12.5751    2.3605    0.0000 C   0  0  0  0  0  0  0  0  0  0  0  0
   11.2900    3.5217    0.0000 C   0  0  0  0  0  0  0  0  0  0  0  0
    5.9674   -1.4982    0.0000 C   0  0  3  0  0  0  0  0  0  0  0  0
   13.2456    3.1025    0.0000 C   0  0  0  0  0  0  0  0  0  0  0  0
    4.9889   -1.7044    0.0000 C   0  0  0  0  0  0  0  0  0  0  0  0
   12.9382    4.0541    0.0000 C   0  0  0  0  0  0  0  0  0  0  0  0
    4.6783   -2.6549    0.0000 C   0  0  0  0  0  0  0  0  0  0  0  0
    3.7320   -2.9596    0.0000 C   0  0  0  0  0  0  0  0  0  0  0  0
   14.2233    2.8929    0.0000 C   0  0  0  0  0  0  0  0  0  0  0  0
    6.6353   -2.2425    0.0000 C   0  0  0  0  0  0  0  0  0  0  0  0
    3.7320   -3.9596    0.0000 C   0  0  0  0  0  0  0  0  0  0  0  0
    5.2619   -3.4596    0.0000 C   0  0  0  0  0  0  0  0  0  0  0  0
    6.0999    0.9478    0.0000 C   0  0  0  0  0  0  0  0  0  0  0  0
    2.8660   -2.4596    0.0000 C   0  0  0  0  0  0  0  0  0  0  0  0
    2.8660   -4.4596    0.0000 C   0  0  0  0  0  0  0  0  0  0  0  0
    5.8936    1.9263    0.0000 C   0  0  0  0  0  0  0  0  0  0  0  0
    2.0000   -2.9596    0.0000 C   0  0  0  0  0  0  0  0  0  0  0  0
    2.0000   -3.9596    0.0000 C   0  0  0  0  0  0  0  0  0  0  0  0
    8.2816   -2.7805    0.0000 C   0  0  0  0  0  0  0  0  0  0  0  0
    4.9431    2.2369    0.0000 C   0  0  0  0  0  0  0  0  0  0  0  0
    9.6871    0.1299    0.0000 H   0  0  0  0  0  0  0  0  0  0  0  0
    9.1349    1.5041    0.0000 H   0  0  0  0  0  0  0  0  0  0  0  0
   11.3844    0.2828    0.0000 H   0  0  0  0  0  0  0  0  0  0  0  0
   11.7231    1.0402    0.0000 H   0  0  0  0  0  0  0  0  0  0  0  0
   11.5255    1.6666    0.0000 H   0  0  0  0  0  0  0  0  0  0  0  0
    8.5252    1.4350    0.0000 H   0  0  0  0  0  0  0  0  0  0  0  0
    7.9320    0.9027    0.0000 H   0  0  0  0  0  0  0  0  0  0  0  0
   12.7657    1.7705    0.0000 H   0  0  0  0  0  0  0  0  0  0  0  0
    5.5534   -1.0367    0.0000 H   0  0  0  0  0  0  0  0  0  0  0  0
    5.8640   -0.0862    0.0000 H   0  0  0  0  0  0  0  0  0  0  0  0
    4.9684   -1.0847    0.0000 H   0  0  0  0  0  0  0  0  0  0  0  0
    4.3751   -1.6170    0.0000 H   0  0  0  0  0  0  0  0  0  0  0  0
   11.7698    4.8537    0.0000 H   0  0  0  0  0  0  0  0  0  0  0  0
   14.0934    2.2867    0.0000 H   0  0  0  0  0  0  0  0  0  0  0  0
   14.8296    2.7629    0.0000 H   0  0  0  0  0  0  0  0  0  0  0  0
   14.3533    3.4991    0.0000 H   0  0  0  0  0  0  0  0  0  0  0  0
    5.8819   -3.4596    0.0000 H   0  0  0  0  0  0  0  0  0  0  0  0
    5.4802    0.9272    0.0000 H   0  0  0  0  0  0  0  0  0  0  0  0
    6.0125    0.3339    0.0000 H   0  0  0  0  0  0  0  0  0  0  0  0
    4.8709   -4.8537    0.0000 H   0  0  0  0  0  0  0  0  0  0  0  0
    2.8660   -1.8396    0.0000 H   0  0  0  0  0  0  0  0  0  0  0  0
    2.8660   -5.0796    0.0000 H   0  0  0  0  0  0  0  0  0  0  0  0
    6.5133    1.9468    0.0000 H   0  0  0  0  0  0  0  0  0  0  0  0
    5.9810    2.5401    0.0000 H   0  0  0  0  0  0  0  0  0  0  0  0
    1.4631   -2.6496    0.0000 H   0  0  0  0  0  0  0  0  0  0  0  0
    1.4631   -4.2696    0.0000 H   0  0  0  0  0  0  0  0  0  0  0  0
    7.8202   -3.1946    0.0000 H   0  0  0  0  0  0  0  0  0  0  0  0
    8.6957   -3.2420    0.0000 H   0  0  0  0  0  0  0  0  0  0  0  0
    8.7431   -2.3665    0.0000 H   0  0  0  0  0  0  0  0  0  0  0  0
  1  3  1  0  0  0  0
  1  4  1  0  0  0  0
  1  6  2  0  0  0  0
  1 12  1  0  0  0  0
  2 19  1  0  0  0  0
  2 21  1  0  0  0  0
  3 22  1  0  0  0  0
  4 35  1  0  0  0  0
  5 24  2  0  0  0  0
  7 28  2  0  0  0  0
  8 32  1  0  0  0  0
  8 41  1  0  0  0  0
  9 32  2  0  0  0  0
 21 10  1  6  0  0  0
 10 23  1  0  0  0  0
 10 24  1  0  0  0  0
 11 14  2  0  0  0  0
 18 11  1  1  0  0  0
 12 25  1  0  0  0  0
 12 52  1  0  0  0  0
 13 24  1  0  0  0  0
 13 28  1  0  0  0  0
 13 55  1  0  0  0  0
 14 16  2  0  0  0  0
 15 33  1  0  0  0  0
 15 34  1  0  0  0  0
 15 62  1  0  0  0  0
 17 42  3  0  0  0  0
 18 19  1  0  0  0  0
 18 20  1  0  0  0  0
 18 43  1  0  0  0  0
 19 22  1  6  0  0  0
 19 44  1  0  0  0  0
 20 21  1  0  0  0  0
 20 45  1  0  0  0  0
 20 46  1  0  0  0  0
 21 47  1  0  0  0  0
 22 48  1  0  0  0  0
 22 49  1  0  0  0  0
 23 26  2  0  0  0  0
 23 50  1  0  0  0  0
 25 27  1  0  0  0  0
 25 32  1  0  0  0  0
 25 51  1  0  0  0  0
 26 28  1  0  0  0  0
 26 31  1  0  0  0  0
 27 29  1  0  0  0  0
 27 53  1  0  0  0  0
 27 54  1  0  0  0  0
 29 30  1  0  0  0  0
 29 34  2  0  0  0  0
 30 33  1  0  0  0  0
 30 36  2  0  0  0  0
 31 56  1  0  0  0  0
 31 57  1  0  0  0  0
 31 58  1  0  0  0  0
 33 37  2  0  0  0  0
 34 59  1  0  0  0  0
 35 38  1  0  0  0  0
 35 60  1  0  0  0  0
 35 61  1  0  0  0  0
 36 39  1  0  0  0  0
 36 63  1  0  0  0  0
 37 40  1  0  0  0  0
 37 64  1  0  0  0  0
 38 42  1  0  0  0  0
 38 65  1  0  0  0  0
 38 66  1  0  0  0  0
 39 40  2  0  0  0  0
 39 67  1  0  0  0  0
 40 68  1  0  0  0  0
 41 69  1  0  0  0  0
 41 70  1  0  0  0  0
 41 71  1  0  0  0  0
M  CHG  2  14   1  16  -1
M  END
> <PUBCHEM_COMPOUND_CID>
500280
> <PUBCHEM_COMPOUND_CANONICALIZED>
1
> <PUBCHEM_CACTVS_COMPLEXITY>
1220
> <PUBCHEM_CACTVS_HBOND_ACCEPTOR>
12
> <PUBCHEM_CACTVS_HBOND_DONOR>
3
> <PUBCHEM_CACTVS_ROTATABLE_BOND>
14
> <PUBCHEM_CACTVS_SUBSKEYS>
AAADceB7/AIAAAAAAAAAAAAAAAAAAWJAAAAwQAAAAAAAAFgB8AAAHgAYgCAADDzhngY/yPPJlRC6RzX3XICCgCAxAiAI2aG4ZNiLoPLA0ZGPIAhulyLKyMe4+fKOgAAAAAACAAAAAAAAAAQAAAAAAAAAAA==
> <PUBCHEM_IUPAC_OPENEYE_NAME>
methyl 2-[[[(2R,3R,5S)-3-azido-5-(5-methyl-2,4-dioxo-pyrimidin-1-yl)tetrahydrofuran-2-yl]methoxy-(2-cyanoethoxy)phosphoryl]amino]-3-(1H-indol-3-yl)propanoate
> <PUBCHEM_IUPAC_CAS_NAME>
2-[[[(2R,3R,5S)-3-azido-5-(5-methyl-2,4-dioxo-1-pyrimidinyl)-2-oxolanyl]methoxy-(2-cyanoethoxy)phosphoryl]amino]-3-(1H-indol-3-yl)propanoic acid methyl ester
> <PUBCHEM_IUPAC_NAME_MARKUP>
methyl 2-[[[(2<I>R</I>,3<I>R</I>,5<I>S</I>)-3-azido-5-(5-methyl-2,4-dioxopyrimidin-1-yl)oxolan-2-yl]methoxy-(2-cyanoethoxy)phosphoryl]amino]-3-(1<I>H</I>-indol-3-yl)propanoate
> <PUBCHEM_IUPAC_NAME>
methyl 2-[[[(2R,3R,5S)-3-azido-5-(5-methyl-2,4-dioxopyrimidin-1-yl)oxolan-2-yl]methoxy-(2-cyanoethoxy)phosphoryl]amino]-3-(1H-indol-3-yl)propanoate
> <PUBCHEM_IUPAC_SYSTEMATIC_NAME>
methyl 2-[[[(2R,3R,5S)-3-azido-5-[5-methyl-2,4-bis(oxidanylidene)pyrimidin-1-yl]oxolan-2-yl]methoxy-(2-cyanoethoxy)phosphoryl]amino]-3-(1H-indol-3-yl)propanoate
> <PUBCHEM_IUPAC_TRADITIONAL_NAME>
2-[[[(2R,3R,5S)-3-azido-5-(2,4-diketo-5-methyl-pyrimidin-1-yl)tetrahydrofuran-2-yl]methoxy-(2-cyanoethoxy)phosphoryl]amino]-3-(1H-indol-3-yl)propionic acid methyl ester
> <PUBCHEM_IUPAC_INCHI>
InChI=1S/C25H29N8O8P/c1-15-13-33(25(36)29-23(15)34)22-11-19(30-32-27)21(41-22)14-40-42(37,39-9-5-8-26)31-20(24(35)38-2)10-16-12-28-18-7-4-3-6-17(16)18/h3-4,6-7,12-13,19-22,28H,5,9-11,14H2,1-2H3,(H,31,37)(H,29,34,36)/t19-,20?,21+,22+,42?/m1/s1
> <PUBCHEM_IUPAC_INCHIKEY>
LAUPZWJCAHDSFU-LLXNFSAJSA-N
> <PUBCHEM_XLOGP3_AA>
1.5
> <PUBCHEM_EXACT_MASS>
600.18459691
> <PUBCHEM_MOLECULAR_FORMULA>
C25H29N8O8P
> <PUBCHEM_MOLECULAR_WEIGHT>
600.5
> <PUBCHEM_OPENEYE_CAN_SMILES>
CC1=CN(C(=O)NC1=O)C2CC(C(O2)COP(=O)(NC(CC3=CNC4=CC=CC=C43)C(=O)OC)OCCC#N)N=[N+]=[N-]
> <PUBCHEM_OPENEYE_ISO_SMILES>
CC1=CN(C(=O)NC1=O)[C@@H]2C[C@H]([C@@H](O2)COP(=O)(NC(CC3=CNC4=CC=CC=C43)C(=O)OC)OCCC#N)N=[N+]=[N-]
> <PUBCHEM_CACTVS_TPSA>
186
> <PUBCHEM_MONOISOTOPIC_WEIGHT>
600.18459691
> <PUBCHEM_TOTAL_CHARGE>
0
> <PUBCHEM_HEAVY_ATOM_COUNT>
42
> <PUBCHEM_ATOM_DEF_STEREO_COUNT>
3
> <PUBCHEM_ATOM_UDEF_STEREO_COUNT>
2
> <PUBCHEM_BOND_DEF_STEREO_COUNT>
0
> <PUBCHEM_BOND_UDEF_STEREO_COUNT>
0
> <PUBCHEM_ISOTOPIC_ATOM_COUNT>
0
> <PUBCHEM_COMPONENT_COUNT>
1
> <PUBCHEM_CACTVS_TAUTO_COUNT>
-1
> <PUBCHEM_COORDINATE_TYPE>
1
5
255
> <PUBCHEM_BONDANNOTATIONS>
1  12  3
21  10  6
10  23  8
10  24  8
18  11  5
13  24  8
13  28  8
15  33  8
15  34  8
19  22  6
23  26  8
25  27  3
26  28  8
29  30  8
29  34  8
30  33  8
30  36  8
33  37  8
36  39  8
37  40  8
39  40  8
$$$$
