500235
  -OEChem-10302200282D
 99101  0     1  0  0  0  0  0999 V2000
   11.8181    3.4400    0.0000 Cl  0  0  0  0  0  0  0  0  0  0  0  0
    8.4752    2.0892    0.0000 P   0  0  3  0  0  0  0  0  0  0  0  0
   10.1980    2.2672    0.0000 P   0  0  3  0  0  0  0  0  0  0  0  0
    5.9405    0.3247    0.0000 O   0  0  0  0  0  0  0  0  0  0  0  0
    3.4026    0.8291    0.0000 O   0  0  0  0  0  0  0  0  0  0  0  0
    4.6844    2.5870    0.0000 O   0  0  0  0  0  0  0  0  0  0  0  0
    7.6651    1.5028    0.0000 O   0  0  0  0  0  0  0  0  0  0  0  0
    9.2852    2.6756    0.0000 O   0  0  0  0  0  0  0  0  0  0  0  0
    9.0615    1.2791    0.0000 O   0  0  0  0  0  0  0  0  0  0  0  0
    7.8888    2.8992    0.0000 O   0  0  0  0  0  0  0  0  0  0  0  0
   13.6438    2.6234    0.0000 O   0  0  0  0  0  0  0  0  0  0  0  0
   10.6063    3.1801    0.0000 O   0  0  0  0  0  0  0  0  0  0  0  0
    9.7897    1.3544    0.0000 O   0  0  0  0  0  0  0  0  0  0  0  0
    4.6783   -0.9332    0.0000 N   0  0  0  0  0  0  0  0  0  0  0  0
    4.6783   -2.5426    0.0000 N   0  0  0  0  0  0  0  0  0  0  0  0
    2.8660   -0.7379    0.0000 N   0  0  0  0  0  0  0  0  0  0  0  0
    2.0000   -2.2379    0.0000 N   0  0  0  0  0  0  0  0  0  0  0  0
    2.8660   -3.7379    0.0000 N   0  0  0  0  0  0  0  0  0  0  0  0
    4.4026    0.8274    0.0000 C   0  0  2  0  0  0  0  0  0  0  0  0
    4.9917    1.6354    0.0000 C   0  0  1  0  0  0  0  0  0  0  0  0
    4.9889    0.0173    0.0000 C   0  0  1  0  0  0  0  0  0  0  0  0
    5.9422    1.3247    0.0000 C   0  0  1  0  0  0  0  0  0  0  0  0
    6.7523    1.9111    0.0000 C   0  0  0  0  0  0  0  0  0  0  0  0
    3.7320   -1.2379    0.0000 C   0  0  0  0  0  0  0  0  0  0  0  0
    5.2619   -1.7379    0.0000 C   0  0  0  0  0  0  0  0  0  0  0  0
    3.7320   -2.2379    0.0000 C   0  0  0  0  0  0  0  0  0  0  0  0
   20.5353    3.3356    0.0000 C   0  0  0  0  0  0  0  0  0  0  0  0
   19.7252    2.7492    0.0000 C   0  0  0  0  0  0  0  0  0  0  0  0
   21.4481    2.9273    0.0000 C   0  0  0  0  0  0  0  0  0  0  0  0
   18.8124    3.1576    0.0000 C   0  0  0  0  0  0  0  0  0  0  0  0
   22.2581    3.5137    0.0000 C   0  0  0  0  0  0  0  0  0  0  0  0
   18.0024    2.5712    0.0000 C   0  0  0  0  0  0  0  0  0  0  0  0
   23.1710    3.1054    0.0000 C   0  0  0  0  0  0  0  0  0  0  0  0
   17.0895    2.9795    0.0000 C   0  0  0  0  0  0  0  0  0  0  0  0
    2.8660   -2.7379    0.0000 C   0  0  0  0  0  0  0  0  0  0  0  0
   23.9810    3.6918    0.0000 C   0  0  0  0  0  0  0  0  0  0  0  0
   16.2795    2.3931    0.0000 C   0  0  0  0  0  0  0  0  0  0  0  0
   24.8939    3.2835    0.0000 C   0  0  0  0  0  0  0  0  0  0  0  0
   15.3667    2.8014    0.0000 C   0  0  0  0  0  0  0  0  0  0  0  0
    2.0000   -1.2379    0.0000 C   0  0  0  0  0  0  0  0  0  0  0  0
   25.7039    3.8698    0.0000 C   0  0  0  0  0  0  0  0  0  0  0  0
   11.1109    1.8589    0.0000 C   0  0  0  0  0  0  0  0  0  0  0  0
   14.5566    2.2151    0.0000 C   0  0  0  0  0  0  0  0  0  0  0  0
   11.9209    2.4453    0.0000 C   0  0  3  0  0  0  0  0  0  0  0  0
   26.6167    3.4615    0.0000 C   0  0  0  0  0  0  0  0  0  0  0  0
   12.8337    2.0370    0.0000 C   0  0  0  0  0  0  0  0  0  0  0  0
   27.4268    4.0479    0.0000 C   0  0  0  0  0  0  0  0  0  0  0  0
    4.1201    0.2754    0.0000 H   0  0  0  0  0  0  0  0  0  0  0  0
    5.4309    2.0730    0.0000 H   0  0  0  0  0  0  0  0  0  0  0  0
    5.4266   -0.4218    0.0000 H   0  0  0  0  0  0  0  0  0  0  0  0
    6.4942    1.0423    0.0000 H   0  0  0  0  0  0  0  0  0  0  0  0
    7.0999    2.4245    0.0000 H   0  0  0  0  0  0  0  0  0  0  0  0
    6.3070    2.3426    0.0000 H   0  0  0  0  0  0  0  0  0  0  0  0
    3.0935    1.3666    0.0000 H   0  0  0  0  0  0  0  0  0  0  0  0
    5.1000    3.0470    0.0000 H   0  0  0  0  0  0  0  0  0  0  0  0
    5.8819   -1.7379    0.0000 H   0  0  0  0  0  0  0  0  0  0  0  0
   20.8829    3.8490    0.0000 H   0  0  0  0  0  0  0  0  0  0  0  0
   20.0900    3.7671    0.0000 H   0  0  0  0  0  0  0  0  0  0  0  0
   19.3777    2.2358    0.0000 H   0  0  0  0  0  0  0  0  0  0  0  0
   20.1705    2.3178    0.0000 H   0  0  0  0  0  0  0  0  0  0  0  0
   21.1005    2.4139    0.0000 H   0  0  0  0  0  0  0  0  0  0  0  0
   21.8934    2.4959    0.0000 H   0  0  0  0  0  0  0  0  0  0  0  0
   19.1600    3.6710    0.0000 H   0  0  0  0  0  0  0  0  0  0  0  0
   18.3672    3.5890    0.0000 H   0  0  0  0  0  0  0  0  0  0  0  0
   22.6057    4.0271    0.0000 H   0  0  0  0  0  0  0  0  0  0  0  0
   21.8129    3.9452    0.0000 H   0  0  0  0  0  0  0  0  0  0  0  0
   17.6548    2.0578    0.0000 H   0  0  0  0  0  0  0  0  0  0  0  0
   18.4476    2.1397    0.0000 H   0  0  0  0  0  0  0  0  0  0  0  0
   22.8234    2.5920    0.0000 H   0  0  0  0  0  0  0  0  0  0  0  0
   23.6162    2.6739    0.0000 H   0  0  0  0  0  0  0  0  0  0  0  0
   17.4371    3.4929    0.0000 H   0  0  0  0  0  0  0  0  0  0  0  0
   16.6443    3.4110    0.0000 H   0  0  0  0  0  0  0  0  0  0  0  0
   24.3286    4.2052    0.0000 H   0  0  0  0  0  0  0  0  0  0  0  0
   23.5358    4.1232    0.0000 H   0  0  0  0  0  0  0  0  0  0  0  0
   15.9319    1.8797    0.0000 H   0  0  0  0  0  0  0  0  0  0  0  0
   16.7247    1.9617    0.0000 H   0  0  0  0  0  0  0  0  0  0  0  0
   24.5463    2.7700    0.0000 H   0  0  0  0  0  0  0  0  0  0  0  0
   25.3391    2.8520    0.0000 H   0  0  0  0  0  0  0  0  0  0  0  0
   15.7142    3.3148    0.0000 H   0  0  0  0  0  0  0  0  0  0  0  0
   14.9214    3.2329    0.0000 H   0  0  0  0  0  0  0  0  0  0  0  0
    1.4631   -0.9279    0.0000 H   0  0  0  0  0  0  0  0  0  0  0  0
   26.0515    4.3832    0.0000 H   0  0  0  0  0  0  0  0  0  0  0  0
   25.2586    4.3013    0.0000 H   0  0  0  0  0  0  0  0  0  0  0  0
   10.7633    1.3455    0.0000 H   0  0  0  0  0  0  0  0  0  0  0  0
   11.5561    1.4275    0.0000 H   0  0  0  0  0  0  0  0  0  0  0  0
   14.2090    1.7016    0.0000 H   0  0  0  0  0  0  0  0  0  0  0  0
   15.0019    1.7836    0.0000 H   0  0  0  0  0  0  0  0  0  0  0  0
   12.4231    2.8089    0.0000 H   0  0  0  0  0  0  0  0  0  0  0  0
   26.2691    2.9481    0.0000 H   0  0  0  0  0  0  0  0  0  0  0  0
   27.0620    3.0301    0.0000 H   0  0  0  0  0  0  0  0  0  0  0  0
    8.8084    0.7132    0.0000 H   0  0  0  0  0  0  0  0  0  0  0  0
    2.3291   -4.0479    0.0000 H   0  0  0  0  0  0  0  0  0  0  0  0
    3.4030   -4.0479    0.0000 H   0  0  0  0  0  0  0  0  0  0  0  0
   12.4862    1.5236    0.0000 H   0  0  0  0  0  0  0  0  0  0  0  0
   13.2790    1.6055    0.0000 H   0  0  0  0  0  0  0  0  0  0  0  0
   27.7903    3.5457    0.0000 H   0  0  0  0  0  0  0  0  0  0  0  0
   27.9290    4.4115    0.0000 H   0  0  0  0  0  0  0  0  0  0  0  0
   27.0632    4.5501    0.0000 H   0  0  0  0  0  0  0  0  0  0  0  0
   10.2428    3.6823    0.0000 H   0  0  0  0  0  0  0  0  0  0  0  0
  1 44  1  0  0  0  0
  2  7  1  0  0  0  0
  2  8  1  0  0  0  0
  2  9  1  0  0  0  0
  2 10  2  0  0  0  0
  3  8  1  0  0  0  0
  3 12  1  0  0  0  0
  3 13  2  0  0  0  0
  3 42  1  0  0  0  0
  4 21  1  0  0  0  0
  4 22  1  0  0  0  0
 19  5  1  6  0  0  0
  5 54  1  0  0  0  0
 20  6  1  6  0  0  0
  6 55  1  0  0  0  0
  7 23  1  0  0  0  0
  9 91  1  0  0  0  0
 11 43  1  0  0  0  0
 11 46  1  0  0  0  0
 12 99  1  0  0  0  0
 21 14  1  1  0  0  0
 14 24  1  0  0  0  0
 14 25  1  0  0  0  0
 15 25  2  0  0  0  0
 15 26  1  0  0  0  0
 16 24  2  0  0  0  0
 16 40  1  0  0  0  0
 17 35  1  0  0  0  0
 17 40  2  0  0  0  0
 18 35  1  0  0  0  0
 18 92  1  0  0  0  0
 18 93  1  0  0  0  0
 19 20  1  0  0  0  0
 19 21  1  0  0  0  0
 19 48  1  0  0  0  0
 20 22  1  0  0  0  0
 20 49  1  0  0  0  0
 21 50  1  0  0  0  0
 22 23  1  1  0  0  0
 22 51  1  0  0  0  0
 23 52  1  0  0  0  0
 23 53  1  0  0  0  0
 24 26  1  0  0  0  0
 25 56  1  0  0  0  0
 26 35  2  0  0  0  0
 27 28  1  0  0  0  0
 27 29  1  0  0  0  0
 27 57  1  0  0  0  0
 27 58  1  0  0  0  0
 28 30  1  0  0  0  0
 28 59  1  0  0  0  0
 28 60  1  0  0  0  0
 29 31  1  0  0  0  0
 29 61  1  0  0  0  0
 29 62  1  0  0  0  0
 30 32  1  0  0  0  0
 30 63  1  0  0  0  0
 30 64  1  0  0  0  0
 31 33  1  0  0  0  0
 31 65  1  0  0  0  0
 31 66  1  0  0  0  0
 32 34  1  0  0  0  0
 32 67  1  0  0  0  0
 32 68  1  0  0  0  0
 33 36  1  0  0  0  0
 33 69  1  0  0  0  0
 33 70  1  0  0  0  0
 34 37  1  0  0  0  0
 34 71  1  0  0  0  0
 34 72  1  0  0  0  0
 36 38  1  0  0  0  0
 36 73  1  0  0  0  0
 36 74  1  0  0  0  0
 37 39  1  0  0  0  0
 37 75  1  0  0  0  0
 37 76  1  0  0  0  0
 38 41  1  0  0  0  0
 38 77  1  0  0  0  0
 38 78  1  0  0  0  0
 39 43  1  0  0  0  0
 39 79  1  0  0  0  0
 39 80  1  0  0  0  0
 40 81  1  0  0  0  0
 41 45  1  0  0  0  0
 41 82  1  0  0  0  0
 41 83  1  0  0  0  0
 42 44  1  0  0  0  0
 42 84  1  0  0  0  0
 42 85  1  0  0  0  0
 43 86  1  0  0  0  0
 43 87  1  0  0  0  0
 44 46  1  0  0  0  0
 44 88  1  0  0  0  0
 45 47  1  0  0  0  0
 45 89  1  0  0  0  0
 45 90  1  0  0  0  0
 46 94  1  0  0  0  0
 46 95  1  0  0  0  0
 47 96  1  0  0  0  0
 47 97  1  0  0  0  0
 47 98  1  0  0  0  0
M  END
> <PUBCHEM_COMPOUND_CID>
500235
> <PUBCHEM_COMPOUND_CANONICALIZED>
1
> <PUBCHEM_CACTVS_COMPLEXITY>
980
> <PUBCHEM_CACTVS_HBOND_ACCEPTOR>
14
> <PUBCHEM_CACTVS_HBOND_DONOR>
5
> <PUBCHEM_CACTVS_ROTATABLE_BOND>
25
> <PUBCHEM_CACTVS_SUBSKEYS>
AAADcfB7vAMEAAAAAAAAAAAAAAAAAWJAAAAsAAAAAAAAAFgB+AAAHgoQCCAACB/pl0YH8L9MFxCgQQZhZICAgC0REKABUCAoVRCDWAJAyEAeRAgPAALTACHw8KIAAAAAAAAAAAAAAAAAAAAAAAAAAAAAAA==
> <PUBCHEM_IUPAC_OPENEYE_NAME>
[[(2R,3S,4R,5R)-5-(6-aminopurin-9-yl)-3,4-dihydroxy-tetrahydrofuran-2-yl]methoxy-hydroxy-phosphoryl]oxy-(2-chloro-3-hexadecoxy-propyl)phosphinic acid
> <PUBCHEM_IUPAC_CAS_NAME>
[[(2R,3S,4R,5R)-5-(6-aminopurin-9-yl)-3,4-dihydroxy-2-oxolanyl]methoxy-hydroxyphosphoryl]oxy-(2-chloro-3-hexadecoxypropyl)phosphinic acid
> <PUBCHEM_IUPAC_NAME_MARKUP>
[[(2<I>R</I>,3<I>S</I>,4<I>R</I>,5<I>R</I>)-5-(6-aminopurin-9-yl)-3,4-dihydroxyoxolan-2-yl]methoxy-hydroxyphosphoryl]oxy-(2-chloro-3-hexadecoxypropyl)phosphinic acid
> <PUBCHEM_IUPAC_NAME>
[[(2R,3S,4R,5R)-5-(6-aminopurin-9-yl)-3,4-dihydroxyoxolan-2-yl]methoxy-hydroxyphosphoryl]oxy-(2-chloro-3-hexadecoxypropyl)phosphinic acid
> <PUBCHEM_IUPAC_SYSTEMATIC_NAME>
[[(2R,3S,4R,5R)-5-(6-aminopurin-9-yl)-3,4-bis(oxidanyl)oxolan-2-yl]methoxy-oxidanyl-phosphoryl]oxy-(2-chloranyl-3-hexadecoxy-propyl)phosphinic acid
> <PUBCHEM_IUPAC_TRADITIONAL_NAME>
[[(2R,3S,4R,5R)-5-adenin-9-yl-3,4-dihydroxy-tetrahydrofuran-2-yl]methoxy-hydroxy-phosphoryl]oxy-(3-cetyloxy-2-chloro-propyl)phosphinic acid
> <PUBCHEM_IUPAC_INCHI>
InChI=1S/C29H52ClN5O10P2/c1-2-3-4-5-6-7-8-9-10-11-12-13-14-15-16-42-17-22(30)19-46(38,39)45-47(40,41)43-18-23-25(36)26(37)29(44-23)35-21-34-24-27(31)32-20-33-28(24)35/h20-23,25-26,29,36-37H,2-19H2,1H3,(H,38,39)(H,40,41)(H2,31,32,33)/t22?,23-,25-,26-,29-/m1/s1
> <PUBCHEM_IUPAC_INCHIKEY>
MUQIOBLJHGULKS-VKXYRRCWSA-N
> <PUBCHEM_XLOGP3>
4.1
> <PUBCHEM_EXACT_MASS>
727.2877946
> <PUBCHEM_MOLECULAR_FORMULA>
C29H52ClN5O10P2
> <PUBCHEM_MOLECULAR_WEIGHT>
728.1
> <PUBCHEM_OPENEYE_CAN_SMILES>
CCCCCCCCCCCCCCCCOCC(CP(=O)(O)OP(=O)(O)OCC1C(C(C(O1)N2C=NC3=C(N=CN=C32)N)O)O)Cl
> <PUBCHEM_OPENEYE_ISO_SMILES>
CCCCCCCCCCCCCCCCOCC(CP(=O)(O)OP(=O)(O)OC[C@@H]1[C@H]([C@H]([C@@H](O1)N2C=NC3=C(N=CN=C32)N)O)O)Cl
> <PUBCHEM_CACTVS_TPSA>
222
> <PUBCHEM_MONOISOTOPIC_WEIGHT>
727.2877946
> <PUBCHEM_TOTAL_CHARGE>
0
> <PUBCHEM_HEAVY_ATOM_COUNT>
47
> <PUBCHEM_ATOM_DEF_STEREO_COUNT>
4
> <PUBCHEM_ATOM_UDEF_STEREO_COUNT>
1
> <PUBCHEM_BOND_DEF_STEREO_COUNT>
0
> <PUBCHEM_BOND_UDEF_STEREO_COUNT>
0
> <PUBCHEM_ISOTOPIC_ATOM_COUNT>
0
> <PUBCHEM_COMPONENT_COUNT>
1
> <PUBCHEM_CACTVS_TAUTO_COUNT>
-1
> <PUBCHEM_COORDINATE_TYPE>
1
5
255
> <PUBCHEM_BONDANNOTATIONS>
44  1  3
21  14  5
14  24  8
14  25  8
15  25  8
15  26  8
16  24  8
16  40  8
17  35  8
17  40  8
22  23  5
24  26  8
26  35  8
19  5  6
20  6  6
$$$$
