500238
  -OEChem-10302200282D
 45 48  0     1  0  0  0  0  0999 V2000
    8.5210    0.9306    0.0000 O   0  0  0  0  0  0  0  0  0  0  0  0
    6.3981   -2.8246    0.0000 O   0  0  0  0  0  0  0  0  0  0  0  0
    4.6497   -2.8592    0.0000 O   0  0  0  0  0  0  0  0  0  0  0  0
    2.8680    0.1995    0.0000 O   0  0  0  0  0  0  0  0  0  0  0  0
    2.8680   -1.8488    0.0000 O   0  0  0  0  0  0  0  0  0  0  0  0
    7.2641   -0.3246    0.0000 N   0  0  0  0  0  0  0  0  0  0  0  0
    7.2641   -1.3246    0.0000 C   0  0  3  0  0  0  0  0  0  0  0  0
    6.3981    0.1754    0.0000 C   0  0  3  0  0  0  0  0  0  0  0  0
    8.2103   -1.6293    0.0000 C   0  0  0  0  0  0  0  0  0  0  0  0
    8.7939   -0.8246    0.0000 C   0  0  0  0  0  0  0  0  0  0  0  0
    5.5320   -0.3246    0.0000 C   0  0  0  0  0  0  0  0  0  0  0  0
    8.2103   -0.0199    0.0000 C   0  0  0  0  0  0  0  0  0  0  0  0
    6.3981   -1.8246    0.0000 C   0  0  0  0  0  0  0  0  0  0  0  0
    5.5320   -1.3246    0.0000 C   0  0  0  0  0  0  0  0  0  0  0  0
    6.3981    1.1754    0.0000 C   0  0  0  0  0  0  0  0  0  0  0  0
    4.6381    0.2101    0.0000 C   0  0  0  0  0  0  0  0  0  0  0  0
    4.6381   -1.8593    0.0000 C   0  0  0  0  0  0  0  0  0  0  0  0
    3.7320   -0.3038    0.0000 C   0  0  0  0  0  0  0  0  0  0  0  0
    3.7320   -1.3454    0.0000 C   0  0  0  0  0  0  0  0  0  0  0  0
    5.5320    1.6754    0.0000 C   0  0  0  0  0  0  0  0  0  0  0  0
    7.2641    1.6754    0.0000 C   0  0  0  0  0  0  0  0  0  0  0  0
    5.5320    2.6754    0.0000 C   0  0  0  0  0  0  0  0  0  0  0  0
    7.2641    2.6754    0.0000 C   0  0  0  0  0  0  0  0  0  0  0  0
    6.3981    3.1754    0.0000 C   0  0  0  0  0  0  0  0  0  0  0  0
    2.8718    1.1995    0.0000 C   0  0  0  0  0  0  0  0  0  0  0  0
    2.0000   -1.3521    0.0000 C   0  0  0  0  0  0  0  0  0  0  0  0
    7.3297   -1.9411    0.0000 H   0  0  0  0  0  0  0  0  0  0  0  0
    6.9350    0.4854    0.0000 H   0  0  0  0  0  0  0  0  0  0  0  0
    7.9593   -2.1962    0.0000 H   0  0  0  0  0  0  0  0  0  0  0  0
    8.7477   -1.9386    0.0000 H   0  0  0  0  0  0  0  0  0  0  0  0
    9.2548   -1.2393    0.0000 H   0  0  0  0  0  0  0  0  0  0  0  0
    9.2548   -0.4099    0.0000 H   0  0  0  0  0  0  0  0  0  0  0  0
    4.6453    0.8300    0.0000 H   0  0  0  0  0  0  0  0  0  0  0  0
    4.9951    1.3654    0.0000 H   0  0  0  0  0  0  0  0  0  0  0  0
    7.8010    1.3654    0.0000 H   0  0  0  0  0  0  0  0  0  0  0  0
    4.9951    2.9854    0.0000 H   0  0  0  0  0  0  0  0  0  0  0  0
    7.8010    2.9854    0.0000 H   0  0  0  0  0  0  0  0  0  0  0  0
    4.1164   -3.1754    0.0000 H   0  0  0  0  0  0  0  0  0  0  0  0
    6.3981    3.7954    0.0000 H   0  0  0  0  0  0  0  0  0  0  0  0
    3.4918    1.1971    0.0000 H   0  0  0  0  0  0  0  0  0  0  0  0
    2.8742    1.8195    0.0000 H   0  0  0  0  0  0  0  0  0  0  0  0
    2.2518    1.2019    0.0000 H   0  0  0  0  0  0  0  0  0  0  0  0
    2.3079   -0.8140    0.0000 H   0  0  0  0  0  0  0  0  0  0  0  0
    1.4619   -1.0442    0.0000 H   0  0  0  0  0  0  0  0  0  0  0  0
    1.6921   -1.8902    0.0000 H   0  0  0  0  0  0  0  0  0  0  0  0
  1 12  2  0  0  0  0
  2 13  2  0  0  0  0
  3 17  1  0  0  0  0
  3 38  1  0  0  0  0
  4 18  1  0  0  0  0
  4 25  1  0  0  0  0
  5 19  1  0  0  0  0
  5 26  1  0  0  0  0
  6  7  1  0  0  0  0
  6  8  1  0  0  0  0
  6 12  1  0  0  0  0
  7  9  1  0  0  0  0
  7 13  1  0  0  0  0
  7 27  1  0  0  0  0
  8 11  1  0  0  0  0
  8 15  1  0  0  0  0
  8 28  1  0  0  0  0
  9 10  1  0  0  0  0
  9 29  1  0  0  0  0
  9 30  1  0  0  0  0
 10 12  1  0  0  0  0
 10 31  1  0  0  0  0
 10 32  1  0  0  0  0
 11 14  1  0  0  0  0
 11 16  2  0  0  0  0
 13 14  1  0  0  0  0
 14 17  2  0  0  0  0
 15 20  2  0  0  0  0
 15 21  1  0  0  0  0
 16 18  1  0  0  0  0
 16 33  1  0  0  0  0
 17 19  1  0  0  0  0
 18 19  2  0  0  0  0
 20 22  1  0  0  0  0
 20 34  1  0  0  0  0
 21 23  2  0  0  0  0
 21 35  1  0  0  0  0
 22 24  2  0  0  0  0
 22 36  1  0  0  0  0
 23 24  1  0  0  0  0
 23 37  1  0  0  0  0
 24 39  1  0  0  0  0
 25 40  1  0  0  0  0
 25 41  1  0  0  0  0
 25 42  1  0  0  0  0
 26 43  1  0  0  0  0
 26 44  1  0  0  0  0
 26 45  1  0  0  0  0
M  END
> <PUBCHEM_COMPOUND_CID>
500238
> <PUBCHEM_COMPOUND_CANONICALIZED>
1
> <PUBCHEM_CACTVS_COMPLEXITY>
560
> <PUBCHEM_CACTVS_HBOND_ACCEPTOR>
5
> <PUBCHEM_CACTVS_HBOND_DONOR>
1
> <PUBCHEM_CACTVS_ROTATABLE_BOND>
3
> <PUBCHEM_CACTVS_SUBSKEYS>
AAADceB6OAAAAAAAAAAAAAAAAAAAAWAAAAA8YIAAAAAAAFixQAAAHgAACAAADCzBmAYyBoMABgCIAqFSEACCCAAkIAAIiAGOjMgNJzaGtTuEcWtl5hWLuQe+///uoAABCAAYQABAAAIQADCAAAAAAAAAAA==
> <PUBCHEM_IUPAC_OPENEYE_NAME>
9-hydroxy-7,8-dimethoxy-5-phenyl-1,2,5,10a-tetrahydropyrrolo[1,2-b]isoquinoline-3,10-dione
> <PUBCHEM_IUPAC_CAS_NAME>
9-hydroxy-7,8-dimethoxy-5-phenyl-1,2,5,10a-tetrahydropyrrolo[1,2-b]isoquinoline-3,10-dione
> <PUBCHEM_IUPAC_NAME_MARKUP>
9-hydroxy-7,8-dimethoxy-5-phenyl-1,2,5,10<I>a</I>-tetrahydropyrrolo[1,2-b]isoquinoline-3,10-dione
> <PUBCHEM_IUPAC_NAME>
9-hydroxy-7,8-dimethoxy-5-phenyl-1,2,5,10a-tetrahydropyrrolo[1,2-b]isoquinoline-3,10-dione
> <PUBCHEM_IUPAC_SYSTEMATIC_NAME>
7,8-dimethoxy-9-oxidanyl-5-phenyl-1,2,5,10a-tetrahydropyrrolo[1,2-b]isoquinoline-3,10-dione
> <PUBCHEM_IUPAC_TRADITIONAL_NAME>
9-hydroxy-7,8-dimethoxy-5-phenyl-1,2,5,10a-tetrahydropyrrol[1,2-b]isoquinoline-3,10-quinone
> <PUBCHEM_IUPAC_INCHI>
InChI=1S/C20H19NO5/c1-25-14-10-12-16(19(24)20(14)26-2)18(23)13-8-9-15(22)21(13)17(12)11-6-4-3-5-7-11/h3-7,10,13,17,24H,8-9H2,1-2H3
> <PUBCHEM_IUPAC_INCHIKEY>
XQJJLJLOUMYMST-UHFFFAOYSA-N
> <PUBCHEM_XLOGP3_AA>
2.7
> <PUBCHEM_EXACT_MASS>
353.12632271
> <PUBCHEM_MOLECULAR_FORMULA>
C20H19NO5
> <PUBCHEM_MOLECULAR_WEIGHT>
353.4
> <PUBCHEM_OPENEYE_CAN_SMILES>
COC1=C(C(=C2C(=C1)C(N3C(C2=O)CCC3=O)C4=CC=CC=C4)O)OC
> <PUBCHEM_OPENEYE_ISO_SMILES>
COC1=C(C(=C2C(=C1)C(N3C(C2=O)CCC3=O)C4=CC=CC=C4)O)OC
> <PUBCHEM_CACTVS_TPSA>
76.1
> <PUBCHEM_MONOISOTOPIC_WEIGHT>
353.12632271
> <PUBCHEM_TOTAL_CHARGE>
0
> <PUBCHEM_HEAVY_ATOM_COUNT>
26
> <PUBCHEM_ATOM_DEF_STEREO_COUNT>
0
> <PUBCHEM_ATOM_UDEF_STEREO_COUNT>
2
> <PUBCHEM_BOND_DEF_STEREO_COUNT>
0
> <PUBCHEM_BOND_UDEF_STEREO_COUNT>
0
> <PUBCHEM_ISOTOPIC_ATOM_COUNT>
0
> <PUBCHEM_COMPONENT_COUNT>
1
> <PUBCHEM_CACTVS_TAUTO_COUNT>
-1
> <PUBCHEM_COORDINATE_TYPE>
1
5
255
> <PUBCHEM_BONDANNOTATIONS>
11  14  8
11  16  8
14  17  8
15  20  8
15  21  8
16  18  8
17  19  8
18  19  8
20  22  8
21  23  8
22  24  8
23  24  8
7  9  3
8  15  3
$$$$
