500289
  -OEChem-10302200282D
 68 72  0     1  0  0  0  0  0999 V2000
    3.8114   -3.4812    0.0000 O   0  0  0  0  0  0  0  0  0  0  0  0
    2.0000   -2.4353    0.0000 O   0  0  0  0  0  0  0  0  0  0  0  0
   11.0010    2.7614    0.0000 O   0  0  0  0  0  0  0  0  0  0  0  0
    9.1815    3.7932    0.0000 O   0  0  0  0  0  0  0  0  0  0  0  0
    5.6610   -0.3830    0.0000 C   0  0  3  0  0  0  0  0  0  0  0  0
    6.5271   -0.8830    0.0000 C   0  0  3  0  0  0  0  0  0  0  0  0
    4.7510   -0.8898    0.0000 C   0  0  3  0  0  0  0  0  0  0  0  0
    4.7430   -1.9314    0.0000 C   0  0  3  0  0  0  0  0  0  0  0  0
    6.5431   -1.9245    0.0000 C   0  0  0  0  0  0  0  0  0  0  0  0
    5.6610    0.6170    0.0000 C   0  0  0  0  0  0  0  0  0  0  0  0
    5.6451   -2.4523    0.0000 C   0  0  0  0  0  0  0  0  0  0  0  0
    7.3931   -0.3830    0.0000 C   0  0  0  0  0  0  0  0  0  0  0  0
    7.3931    0.6170    0.0000 C   0  0  3  0  0  0  0  0  0  0  0  0
    3.8242   -0.3258    0.0000 C   0  0  0  0  0  0  0  0  0  0  0  0
    6.5271    1.1170    0.0000 C   0  0  0  0  0  0  0  0  0  0  0  0
    3.8076   -2.4812    0.0000 C   0  0  3  0  0  0  0  0  0  0  0  0
    4.7950    0.1170    0.0000 C   0  0  0  0  0  0  0  0  0  0  0  0
    7.3931   -1.3830    0.0000 C   0  0  0  0  0  0  0  0  0  0  0  0
    2.8763   -0.8537    0.0000 C   0  0  3  0  0  0  0  0  0  0  0  0
    4.7353   -2.9314    0.0000 C   0  0  0  0  0  0  0  0  0  0  0  0
    2.8680   -1.9387    0.0000 C   0  0  0  0  0  0  0  0  0  0  0  0
    8.2870    1.1517    0.0000 C   0  0  0  0  0  0  0  0  0  0  0  0
    8.2870   -0.9177    0.0000 C   0  0  0  0  0  0  0  0  0  0  0  0
    7.3931    1.6170    0.0000 C   0  0  0  0  0  0  0  0  0  0  0  0
    2.0161   -0.3437    0.0000 C   0  0  0  0  0  0  0  0  0  0  0  0
    9.1931    0.6378    0.0000 C   0  0  0  0  0  0  0  0  0  0  0  0
    9.1931   -0.4038    0.0000 C   0  0  0  0  0  0  0  0  0  0  0  0
    8.2619    2.2364    0.0000 C   0  0  0  0  0  0  0  0  0  0  0  0
   10.1369    1.1731    0.0000 C   0  0  0  0  0  0  0  0  0  0  0  0
    9.1931    2.7933    0.0000 C   0  0  0  0  0  0  0  0  0  0  0  0
   10.1369    2.2580    0.0000 C   0  0  0  0  0  0  0  0  0  0  0  0
   11.0010    0.6697    0.0000 C   0  0  0  0  0  0  0  0  0  0  0  0
    5.2844   -1.2060    0.0000 H   0  0  0  0  0  0  0  0  0  0  0  0
    6.7612   -2.5049    0.0000 H   0  0  0  0  0  0  0  0  0  0  0  0
    7.1523   -1.8090    0.0000 H   0  0  0  0  0  0  0  0  0  0  0  0
    5.4490    1.1996    0.0000 H   0  0  0  0  0  0  0  0  0  0  0  0
    5.0504    0.5093    0.0000 H   0  0  0  0  0  0  0  0  0  0  0  0
    5.2478   -2.9282    0.0000 H   0  0  0  0  0  0  0  0  0  0  0  0
    6.0460   -2.9252    0.0000 H   0  0  0  0  0  0  0  0  0  0  0  0
    4.2324    0.1409    0.0000 H   0  0  0  0  0  0  0  0  0  0  0  0
    3.4343    0.1563    0.0000 H   0  0  0  0  0  0  0  0  0  0  0  0
    6.9256    1.5920    0.0000 H   0  0  0  0  0  0  0  0  0  0  0  0
    6.1285    1.5920    0.0000 H   0  0  0  0  0  0  0  0  0  0  0  0
    3.2712   -2.7922    0.0000 H   0  0  0  0  0  0  0  0  0  0  0  0
    5.1050    0.6539    0.0000 H   0  0  0  0  0  0  0  0  0  0  0  0
    4.2581    0.4270    0.0000 H   0  0  0  0  0  0  0  0  0  0  0  0
    4.4850   -0.4199    0.0000 H   0  0  0  0  0  0  0  0  0  0  0  0
    7.0831   -1.9199    0.0000 H   0  0  0  0  0  0  0  0  0  0  0  0
    7.9300   -1.6930    0.0000 H   0  0  0  0  0  0  0  0  0  0  0  0
    7.7031   -0.8461    0.0000 H   0  0  0  0  0  0  0  0  0  0  0  0
    2.3364   -1.1585    0.0000 H   0  0  0  0  0  0  0  0  0  0  0  0
    4.1153   -2.9266    0.0000 H   0  0  0  0  0  0  0  0  0  0  0  0
    4.7305   -3.5514    0.0000 H   0  0  0  0  0  0  0  0  0  0  0  0
    5.3553   -2.9362    0.0000 H   0  0  0  0  0  0  0  0  0  0  0  0
    8.2799   -1.5376    0.0000 H   0  0  0  0  0  0  0  0  0  0  0  0
    8.0131    1.6170    0.0000 H   0  0  0  0  0  0  0  0  0  0  0  0
    7.3931    2.2370    0.0000 H   0  0  0  0  0  0  0  0  0  0  0  0
    6.7731    1.6170    0.0000 H   0  0  0  0  0  0  0  0  0  0  0  0
    2.3323    0.1896    0.0000 H   0  0  0  0  0  0  0  0  0  0  0  0
    1.4828   -0.0275    0.0000 H   0  0  0  0  0  0  0  0  0  0  0  0
    1.6999   -0.8770    0.0000 H   0  0  0  0  0  0  0  0  0  0  0  0
    3.2757   -3.7932    0.0000 H   0  0  0  0  0  0  0  0  0  0  0  0
    9.7288   -0.7159    0.0000 H   0  0  0  0  0  0  0  0  0  0  0  0
    7.7191    2.5360    0.0000 H   0  0  0  0  0  0  0  0  0  0  0  0
   10.6889    0.1340    0.0000 H   0  0  0  0  0  0  0  0  0  0  0  0
   11.5367    0.3577    0.0000 H   0  0  0  0  0  0  0  0  0  0  0  0
   11.3130    1.2055    0.0000 H   0  0  0  0  0  0  0  0  0  0  0  0
   10.9986    3.3814    0.0000 H   0  0  0  0  0  0  0  0  0  0  0  0
  1 16  1  0  0  0  0
  1 62  1  0  0  0  0
  2 21  2  0  0  0  0
  3 31  1  0  0  0  0
  3 68  1  0  0  0  0
  4 30  2  0  0  0  0
  5  6  1  0  0  0  0
  5  7  1  0  0  0  0
  5 10  1  0  0  0  0
  5 17  1  0  0  0  0
  6  9  1  0  0  0  0
  6 12  1  0  0  0  0
  6 18  1  0  0  0  0
  7  8  1  0  0  0  0
  7 14  1  0  0  0  0
  7 33  1  0  0  0  0
  8 11  1  0  0  0  0
  8 16  1  0  0  0  0
  8 20  1  0  0  0  0
  9 11  1  0  0  0  0
  9 34  1  0  0  0  0
  9 35  1  0  0  0  0
 10 15  1  0  0  0  0
 10 36  1  0  0  0  0
 10 37  1  0  0  0  0
 11 38  1  0  0  0  0
 11 39  1  0  0  0  0
 12 13  1  0  0  0  0
 12 23  2  0  0  0  0
 13 15  1  0  0  0  0
 13 22  1  0  0  0  0
 13 24  1  0  0  0  0
 14 19  1  0  0  0  0
 14 40  1  0  0  0  0
 14 41  1  0  0  0  0
 15 42  1  0  0  0  0
 15 43  1  0  0  0  0
 16 21  1  0  0  0  0
 16 44  1  0  0  0  0
 17 45  1  0  0  0  0
 17 46  1  0  0  0  0
 17 47  1  0  0  0  0
 18 48  1  0  0  0  0
 18 49  1  0  0  0  0
 18 50  1  0  0  0  0
 19 21  1  0  0  0  0
 19 25  1  0  0  0  0
 19 51  1  0  0  0  0
 20 52  1  0  0  0  0
 20 53  1  0  0  0  0
 20 54  1  0  0  0  0
 22 26  1  0  0  0  0
 22 28  2  0  0  0  0
 23 27  1  0  0  0  0
 23 55  1  0  0  0  0
 24 56  1  0  0  0  0
 24 57  1  0  0  0  0
 24 58  1  0  0  0  0
 25 59  1  0  0  0  0
 25 60  1  0  0  0  0
 25 61  1  0  0  0  0
 26 27  2  0  0  0  0
 26 29  1  0  0  0  0
 27 63  1  0  0  0  0
 28 30  1  0  0  0  0
 28 64  1  0  0  0  0
 29 31  2  0  0  0  0
 29 32  1  0  0  0  0
 30 31  1  0  0  0  0
 32 65  1  0  0  0  0
 32 66  1  0  0  0  0
 32 67  1  0  0  0  0
M  END
> <PUBCHEM_COMPOUND_CID>
500289
> <PUBCHEM_COMPOUND_CANONICALIZED>
1
> <PUBCHEM_CACTVS_COMPLEXITY>
1070
> <PUBCHEM_CACTVS_HBOND_ACCEPTOR>
4
> <PUBCHEM_CACTVS_HBOND_DONOR>
2
> <PUBCHEM_CACTVS_ROTATABLE_BOND>
0
> <PUBCHEM_CACTVS_SUBSKEYS>
AAADcfB4OAAAAAAAAAAAAAAAAAAAAAAAAAAwYMECAAAAAADAAAAAGgAACAAADxSggAICAAAAAgCIAqBSAAIAAAAgIAAACAFAAEgIEBIAAAAAQAAEwAAIgQOIyPCPgAAAAAAAAACAAAYAADAAAAAAAAAAAA==
> <PUBCHEM_IUPAC_OPENEYE_NAME>
3,9-dihydroxy-4,6a,6b,8a,11,14a-hexamethyl-7,8,9,11,12,12a,13,14-octahydropicene-2,10-dione
> <PUBCHEM_IUPAC_CAS_NAME>
3,9-dihydroxy-4,6a,6b,8a,11,14a-hexamethyl-7,8,9,11,12,12a,13,14-octahydropicene-2,10-dione
> <PUBCHEM_IUPAC_NAME_MARKUP>
3,9-dihydroxy-4,6<I>a</I>,6<I>b</I>,8<I>a</I>,11,14<I>a</I>-hexamethyl-7,8,9,11,12,12<I>a</I>,13,14-octahydropicene-2,10-dione
> <PUBCHEM_IUPAC_NAME>
3,9-dihydroxy-4,6a,6b,8a,11,14a-hexamethyl-7,8,9,11,12,12a,13,14-octahydropicene-2,10-dione
> <PUBCHEM_IUPAC_SYSTEMATIC_NAME>
4,6a,6b,8a,11,14a-hexamethyl-3,9-bis(oxidanyl)-7,8,9,11,12,12a,13,14-octahydropicene-2,10-dione
> <PUBCHEM_IUPAC_TRADITIONAL_NAME>
3,9-dihydroxy-4,6a,6b,8a,11,14a-hexamethyl-7,8,9,11,12,12a,13,14-octahydropicene-2,10-quinone
> <PUBCHEM_IUPAC_INCHI>
InChI=1S/C28H36O4/c1-15-13-21-26(4,24(32)22(15)30)10-12-27(5)20-8-7-17-16(2)23(31)19(29)14-18(17)25(20,3)9-11-28(21,27)6/h7-8,14-15,21,24,31-32H,9-13H2,1-6H3
> <PUBCHEM_IUPAC_INCHIKEY>
QIRUFAFQGKOTKA-UHFFFAOYSA-N
> <PUBCHEM_XLOGP3_AA>
4.7
> <PUBCHEM_EXACT_MASS>
436.26135963
> <PUBCHEM_MOLECULAR_FORMULA>
C28H36O4
> <PUBCHEM_MOLECULAR_WEIGHT>
436.6
> <PUBCHEM_OPENEYE_CAN_SMILES>
CC1CC2C(CCC3(C2(CCC4(C3=CC=C5C4=CC(=O)C(=C5C)O)C)C)C)(C(C1=O)O)C
> <PUBCHEM_OPENEYE_ISO_SMILES>
CC1CC2C(CCC3(C2(CCC4(C3=CC=C5C4=CC(=O)C(=C5C)O)C)C)C)(C(C1=O)O)C
> <PUBCHEM_CACTVS_TPSA>
74.6
> <PUBCHEM_MONOISOTOPIC_WEIGHT>
436.26135963
> <PUBCHEM_TOTAL_CHARGE>
0
> <PUBCHEM_HEAVY_ATOM_COUNT>
32
> <PUBCHEM_ATOM_DEF_STEREO_COUNT>
0
> <PUBCHEM_ATOM_UDEF_STEREO_COUNT>
7
> <PUBCHEM_BOND_DEF_STEREO_COUNT>
0
> <PUBCHEM_BOND_UDEF_STEREO_COUNT>
0
> <PUBCHEM_ISOTOPIC_ATOM_COUNT>
0
> <PUBCHEM_COMPONENT_COUNT>
1
> <PUBCHEM_CACTVS_TAUTO_COUNT>
-1
> <PUBCHEM_COORDINATE_TYPE>
1
5
255
> <PUBCHEM_BONDANNOTATIONS>
16  1  3
13  24  3
19  25  3
5  17  3
6  18  3
7  14  3
8  20  3
$$$$
