500248
  -OEChem-10302200282D
 94 90  0     1  0  0  0  0  0999 V2000
    5.6928   -0.2939    0.0000 Rh  0  2  0  0  0  0  0  0  0  0  0  0
    4.8838    0.2939    0.0000 Rh  0  2  0  0  0  0  0  0  0  0  0  0
    6.5018    0.2939    0.0000 O   0  3  0  0  0  0  0  0  0  0  0  0
    7.0207    0.3990    0.0000 O   0  3  0  0  0  0  0  0  0  0  0  0
    3.5559   -0.3990    0.0000 O   0  3  0  0  0  0  0  0  0  0  0  0
    4.0811   -0.2925    0.0000 O   0  3  0  0  0  0  0  0  0  0  0  0
    5.5131   -4.8348    0.0000 O   0  0  0  0  0  0  0  0  0  0  0  0
    7.2251   -3.2320    0.0000 O   0  0  0  0  0  0  0  0  0  0  0  0
    3.3447    3.2408    0.0000 O   0  0  0  0  0  0  0  0  0  0  0  0
    5.0635    4.8348    0.0000 O   0  0  0  0  0  0  0  0  0  0  0  0
    7.1883   -4.3948    0.0000 O   0  0  0  0  0  0  0  0  0  0  0  0
    7.8218   -1.6060    0.0000 O   0  0  0  0  0  0  0  0  0  0  0  0
    2.7495    1.6142    0.0000 O   0  0  0  0  0  0  0  0  0  0  0  0
    3.3883    4.3949    0.0000 O   0  0  0  0  0  0  0  0  0  0  0  0
    5.4442   -1.7709    0.0000 N   0  0  0  0  0  0  0  0  0  0  0  0
    5.3832   -1.2385    0.0000 N   0  0  0  0  0  0  0  0  0  0  0  0
    5.1928    1.2450    0.0000 N   0  0  0  0  0  0  0  0  0  0  0  0
    5.1324    1.7709    0.0000 N   0  0  0  0  0  0  0  0  0  0  0  0
    6.6541   -0.5695    0.0000 N   0  0  0  0  0  0  0  0  0  0  0  0
    3.9225    0.5695    0.0000 N   0  0  0  0  0  0  0  0  0  0  0  0
    6.1928    1.2450    0.0000 C   0  0  0  0  0  0  0  0  0  0  0  0
    6.6284    1.8445    0.0000 C   0  0  0  0  0  0  0  0  0  0  0  0
    4.3891   -1.2377    0.0000 C   0  0  0  0  0  0  0  0  0  0  0  0
    3.9482   -1.8445    0.0000 C   0  0  0  0  0  0  0  0  0  0  0  0
    5.9697   -3.1640    0.0000 C   0  0  3  0  0  0  0  0  0  0  0  0
    6.1152   -1.9023    0.0000 C   0  0  3  0  0  0  0  0  0  0  0  0
    4.4558    1.9120    0.0000 C   0  0  3  0  0  0  0  0  0  0  0  0
    4.6069    3.1640    0.0000 C   0  0  3  0  0  0  0  0  0  0  0  0
    5.9836    2.2168    0.0000 C   0  0  0  0  0  0  0  0  0  0  0  0
    7.0147    3.2824    0.0000 C   0  0  0  0  0  0  0  0  0  0  0  0
    4.5962   -2.2039    0.0000 C   0  0  0  0  0  0  0  0  0  0  0  0
    3.5619   -3.2824    0.0000 C   0  0  0  0  0  0  0  0  0  0  0  0
    4.9279    2.5698    0.0000 C   0  0  0  0  0  0  0  0  0  0  0  0
    5.7678    4.0963    0.0000 C   0  0  0  0  0  0  0  0  0  0  0  0
    5.6454   -2.5558    0.0000 C   0  0  0  0  0  0  0  0  0  0  0  0
    4.8087   -4.0963    0.0000 C   0  0  0  0  0  0  0  0  0  0  0  0
    7.6153   -0.8452    0.0000 C   0  0  0  0  0  0  0  0  0  0  0  0
    2.9613    0.8452    0.0000 C   0  0  0  0  0  0  0  0  0  0  0  0
    6.2237   -4.1312    0.0000 C   0  0  0  0  0  0  0  0  0  0  0  0
    7.0540   -2.2467    0.0000 C   0  0  0  0  0  0  0  0  0  0  0  0
    3.5167    2.2557    0.0000 C   0  0  0  0  0  0  0  0  0  0  0  0
    4.3529    4.1312    0.0000 C   0  0  0  0  0  0  0  0  0  0  0  0
    8.5766   -1.1208    0.0000 C   0  0  0  0  0  0  0  0  0  0  0  0
    2.0000    1.1208    0.0000 C   0  0  0  0  0  0  0  0  0  0  0  0
    5.7671   -5.8020    0.0000 C   0  0  0  0  0  0  0  0  0  0  0  0
    8.1639   -3.5765    0.0000 C   0  0  0  0  0  0  0  0  0  0  0  0
    2.4056    3.5844    0.0000 C   0  0  0  0  0  0  0  0  0  0  0  0
    4.8094    5.8020    0.0000 C   0  0  0  0  0  0  0  0  0  0  0  0
    5.7802   -2.2920    0.0000 H   0  0  0  0  0  0  0  0  0  0  0  0
    6.0032   -1.2390    0.0000 H   0  0  0  0  0  0  0  0  0  0  0  0
    4.5728    1.2450    0.0000 H   0  0  0  0  0  0  0  0  0  0  0  0
    4.7965    2.2920    0.0000 H   0  0  0  0  0  0  0  0  0  0  0  0
    6.9167   -0.1669    0.0000 H   0  0  0  0  0  0  0  0  0  0  0  0
    7.5887    0.1505    0.0000 H   0  0  0  0  0  0  0  0  0  0  0  0
    2.9879   -0.1505    0.0000 H   0  0  0  0  0  0  0  0  0  0  0  0
    3.5918    0.0884    0.0000 H   0  0  0  0  0  0  0  0  0  0  0  0
    6.5604   -2.9756    0.0000 H   0  0  0  0  0  0  0  0  0  0  0  0
    6.4362   -1.3718    0.0000 H   0  0  0  0  0  0  0  0  0  0  0  0
    4.1353    1.3813    0.0000 H   0  0  0  0  0  0  0  0  0  0  0  0
    4.0162    2.9756    0.0000 H   0  0  0  0  0  0  0  0  0  0  0  0
    6.6032    2.2377    0.0000 H   0  0  0  0  0  0  0  0  0  0  0  0
    6.0729    2.8303    0.0000 H   0  0  0  0  0  0  0  0  0  0  0  0
    7.5932    3.0596    0.0000 H   0  0  0  0  0  0  0  0  0  0  0  0
    7.2971    3.8344    0.0000 H   0  0  0  0  0  0  0  0  0  0  0  0
    4.5064   -2.8174    0.0000 H   0  0  0  0  0  0  0  0  0  0  0  0
    3.9766   -2.2243    0.0000 H   0  0  0  0  0  0  0  0  0  0  0  0
    2.9834   -3.0596    0.0000 H   0  0  0  0  0  0  0  0  0  0  0  0
    3.2795   -3.8344    0.0000 H   0  0  0  0  0  0  0  0  0  0  0  0
    5.1822    3.1353    0.0000 H   0  0  0  0  0  0  0  0  0  0  0  0
    4.3906    2.8793    0.0000 H   0  0  0  0  0  0  0  0  0  0  0  0
    5.3310    4.5362    0.0000 H   0  0  0  0  0  0  0  0  0  0  0  0
    6.1594    4.5770    0.0000 H   0  0  0  0  0  0  0  0  0  0  0  0
    6.1823   -2.8657    0.0000 H   0  0  0  0  0  0  0  0  0  0  0  0
    5.3906   -3.1210    0.0000 H   0  0  0  0  0  0  0  0  0  0  0  0
    4.4172   -4.5770    0.0000 H   0  0  0  0  0  0  0  0  0  0  0  0
    5.2456   -4.5362    0.0000 H   0  0  0  0  0  0  0  0  0  0  0  0
    8.4057   -1.7168    0.0000 H   0  0  0  0  0  0  0  0  0  0  0  0
    9.1726   -1.2917    0.0000 H   0  0  0  0  0  0  0  0  0  0  0  0
    8.7475   -0.5248    0.0000 H   0  0  0  0  0  0  0  0  0  0  0  0
    2.1709    1.7168    0.0000 H   0  0  0  0  0  0  0  0  0  0  0  0
    1.4040    1.2917    0.0000 H   0  0  0  0  0  0  0  0  0  0  0  0
    1.8291    0.5248    0.0000 H   0  0  0  0  0  0  0  0  0  0  0  0
    5.1675   -5.9595    0.0000 H   0  0  0  0  0  0  0  0  0  0  0  0
    5.9246   -6.4017    0.0000 H   0  0  0  0  0  0  0  0  0  0  0  0
    6.3668   -5.6445    0.0000 H   0  0  0  0  0  0  0  0  0  0  0  0
    7.9504   -4.1585    0.0000 H   0  0  0  0  0  0  0  0  0  0  0  0
    8.7460   -3.7900    0.0000 H   0  0  0  0  0  0  0  0  0  0  0  0
    8.3775   -2.9944    0.0000 H   0  0  0  0  0  0  0  0  0  0  0  0
    2.6187    4.1667    0.0000 H   0  0  0  0  0  0  0  0  0  0  0  0
    1.8234    3.7975    0.0000 H   0  0  0  0  0  0  0  0  0  0  0  0
    2.1926    3.0022    0.0000 H   0  0  0  0  0  0  0  0  0  0  0  0
    5.4091    5.9595    0.0000 H   0  0  0  0  0  0  0  0  0  0  0  0
    4.6520    6.4017    0.0000 H   0  0  0  0  0  0  0  0  0  0  0  0
    4.2098    5.6445    0.0000 H   0  0  0  0  0  0  0  0  0  0  0  0
  3 21  2  0  0  0  0
  3 53  1  0  0  0  0
  4 22  2  0  0  0  0
  4 54  1  0  0  0  0
  5 24  2  0  0  0  0
  5 55  1  0  0  0  0
  6 23  2  0  0  0  0
  6 56  1  0  0  0  0
  7 39  1  0  0  0  0
  7 45  1  0  0  0  0
  8 40  1  0  0  0  0
  8 46  1  0  0  0  0
  9 41  1  0  0  0  0
  9 47  1  0  0  0  0
 10 42  1  0  0  0  0
 10 48  1  0  0  0  0
 11 39  2  0  0  0  0
 12 40  2  0  0  0  0
 13 41  2  0  0  0  0
 14 42  2  0  0  0  0
 15 24  1  0  0  0  0
 15 25  1  0  0  0  0
 15 49  1  0  0  0  0
 16 23  1  0  0  0  0
 16 26  1  0  0  0  0
 16 50  1  0  0  0  0
 17 21  1  0  0  0  0
 17 27  1  0  0  0  0
 17 51  1  0  0  0  0
 18 22  1  0  0  0  0
 18 28  1  0  0  0  0
 18 52  1  0  0  0  0
 19 37  3  0  0  0  0
 20 38  3  0  0  0  0
 21 29  1  0  0  0  0
 22 30  1  0  0  0  0
 23 31  1  0  0  0  0
 24 32  1  0  0  0  0
 25 36  1  0  0  0  0
 25 39  1  0  0  0  0
 25 57  1  0  0  0  0
 26 35  1  0  0  0  0
 26 40  1  0  0  0  0
 26 58  1  0  0  0  0
 27 33  1  0  0  0  0
 27 41  1  0  0  0  0
 27 59  1  0  0  0  0
 28 34  1  0  0  0  0
 28 42  1  0  0  0  0
 28 60  1  0  0  0  0
 29 33  1  0  0  0  0
 29 61  1  0  0  0  0
 29 62  1  0  0  0  0
 30 34  1  0  0  0  0
 30 63  1  0  0  0  0
 30 64  1  0  0  0  0
 31 35  1  0  0  0  0
 31 65  1  0  0  0  0
 31 66  1  0  0  0  0
 32 36  1  0  0  0  0
 32 67  1  0  0  0  0
 32 68  1  0  0  0  0
 33 69  1  0  0  0  0
 33 70  1  0  0  0  0
 34 71  1  0  0  0  0
 34 72  1  0  0  0  0
 35 73  1  0  0  0  0
 35 74  1  0  0  0  0
 36 75  1  0  0  0  0
 36 76  1  0  0  0  0
 37 43  1  0  0  0  0
 38 44  1  0  0  0  0
 43 77  1  0  0  0  0
 43 78  1  0  0  0  0
 43 79  1  0  0  0  0
 44 80  1  0  0  0  0
 44 81  1  0  0  0  0
 44 82  1  0  0  0  0
 45 83  1  0  0  0  0
 45 84  1  0  0  0  0
 45 85  1  0  0  0  0
 46 86  1  0  0  0  0
 46 87  1  0  0  0  0
 46 88  1  0  0  0  0
 47 89  1  0  0  0  0
 47 90  1  0  0  0  0
 47 91  1  0  0  0  0
 48 92  1  0  0  0  0
 48 93  1  0  0  0  0
 48 94  1  0  0  0  0
M  CHG  6   1   2   2   2   3   1   4   1   5   1   6   1
M  END
> <PUBCHEM_COMPOUND_CID>
500248
> <PUBCHEM_COMPOUND_CANONICALIZED>
1
> <PUBCHEM_CACTVS_COMPLEXITY>
1020
> <PUBCHEM_CACTVS_HBOND_ACCEPTOR>
10
> <PUBCHEM_CACTVS_HBOND_DONOR>
8
> <PUBCHEM_CACTVS_ROTATABLE_BOND>
8
> <PUBCHEM_CACTVS_SUBSKEYS>
AAADcfB7vAAAAAAAABAAAAAAAAAAAWLFixAAAAAAAAAQIAAAAAAAHgAQCAAACCjBgAYCCALABgAYBAGQGAAAAAAAAAAAAIGIAAACABIAgCAFAAAEFgCQAACcFwAAAAAAAAAAAAAAAAAAAAAAAAAAAAAAAA==
> <PUBCHEM_IUPAC_OPENEYE_NAME>
acetonitrile;(5-methoxycarbonylpyrrolidin-2-ylidene)oxonium;rhodium(2+)
> <PUBCHEM_IUPAC_CAS_NAME>
acetonitrile;(5-methoxycarbonyl-2-pyrrolidinylidene)oxonium;rhodium(2+)
> <PUBCHEM_IUPAC_NAME_MARKUP>
acetonitrile;(5-methoxycarbonylpyrrolidin-2-ylidene)oxidanium;rhodium(2+)
> <PUBCHEM_IUPAC_NAME>
acetonitrile;(5-methoxycarbonylpyrrolidin-2-ylidene)oxidanium;rhodium(2+)
> <PUBCHEM_IUPAC_SYSTEMATIC_NAME>
ethanenitrile;(5-methoxycarbonylpyrrolidin-2-ylidene)oxidanium;rhodium(2+)
> <PUBCHEM_IUPAC_TRADITIONAL_NAME>
acetonitrile;(5-carbomethoxypyrrolidin-2-ylidene)oxonium;rhodium(2+)
> <PUBCHEM_IUPAC_INCHI>
InChI=1S/4C6H9NO3.2C2H3N.2Rh/c4*1-10-6(9)4-2-3-5(8)7-4;2*1-2-3;;/h4*4H,2-3H2,1H3,(H,7,8);2*1H3;;/q;;;;;;2*+2/p+4
> <PUBCHEM_IUPAC_INCHIKEY>
DYRPMVYSFURGAF-UHFFFAOYSA-R
> <PUBCHEM_EXACT_MASS>
864.12836
> <PUBCHEM_MOLECULAR_FORMULA>
C28H46N6O12Rh2+8
> <PUBCHEM_MOLECULAR_WEIGHT>
864.5
> <PUBCHEM_OPENEYE_CAN_SMILES>
CC#N.CC#N.COC(=O)C1CCC(=[OH+])N1.COC(=O)C1CCC(=[OH+])N1.COC(=O)C1CCC(=[OH+])N1.COC(=O)C1CCC(=[OH+])N1.[Rh+2].[Rh+2]
> <PUBCHEM_OPENEYE_ISO_SMILES>
CC#N.CC#N.COC(=O)C1CCC(=[OH+])N1.COC(=O)C1CCC(=[OH+])N1.COC(=O)C1CCC(=[OH+])N1.COC(=O)C1CCC(=[OH+])N1.[Rh+2].[Rh+2]
> <PUBCHEM_CACTVS_TPSA>
205
> <PUBCHEM_MONOISOTOPIC_WEIGHT>
864.12836
> <PUBCHEM_TOTAL_CHARGE>
8
> <PUBCHEM_HEAVY_ATOM_COUNT>
48
> <PUBCHEM_ATOM_DEF_STEREO_COUNT>
0
> <PUBCHEM_ATOM_UDEF_STEREO_COUNT>
4
> <PUBCHEM_BOND_DEF_STEREO_COUNT>
0
> <PUBCHEM_BOND_UDEF_STEREO_COUNT>
0
> <PUBCHEM_ISOTOPIC_ATOM_COUNT>
0
> <PUBCHEM_COMPONENT_COUNT>
8
> <PUBCHEM_CACTVS_TAUTO_COUNT>
-1
> <PUBCHEM_NONSTANDARDBOND>
1  15  6
1  16  6
1  19  6
1  2  6
1  3  6
1  4  6
2  17  6
2  18  6
2  20  6
2  5  6
2  6  6
> <PUBCHEM_COORDINATE_TYPE>
1
5
255
> <PUBCHEM_BONDANNOTATIONS>
25  39  3
26  40  3
27  41  3
28  42  3
$$$$
