500252
  -OEChem-10302200282D
 37 38  0     1  0  0  0  0  0999 V2000
    7.9939    0.4367    0.0000 O   0  0  0  0  0  0  0  0  0  0  0  0
    4.5981    2.4367    0.0000 O   0  0  0  0  0  0  0  0  0  0  0  0
    6.7210    2.1920    0.0000 O   0  0  0  0  0  0  0  0  0  0  0  0
    2.8660   -0.5633    0.0000 O   0  0  0  0  0  0  0  0  0  0  0  0
    2.8660    1.4367    0.0000 O   0  0  0  0  0  0  0  0  0  0  0  0
    8.3673   -0.7804    0.0000 O   0  0  0  0  0  0  0  0  0  0  0  0
    6.7210   -1.3185    0.0000 N   0  0  0  0  0  0  0  0  0  0  0  0
    8.0102   -2.4753    0.0000 N   0  0  0  0  0  0  0  0  0  0  0  0
    6.4103   -0.3680    0.0000 C   0  0  3  0  0  0  0  0  0  0  0  0
    6.9939    0.4367    0.0000 C   0  0  3  0  0  0  0  0  0  0  0  0
    5.4641   -0.0633    0.0000 C   0  0  0  0  0  0  0  0  0  0  0  0
    5.4641    0.9367    0.0000 C   0  0  0  0  0  0  0  0  0  0  0  0
    6.4103    1.2415    0.0000 C   0  0  0  0  0  0  0  0  0  0  0  0
    4.5981   -0.5633    0.0000 C   0  0  0  0  0  0  0  0  0  0  0  0
    4.5981    1.4367    0.0000 C   0  0  0  0  0  0  0  0  0  0  0  0
    3.7320   -0.0633    0.0000 C   0  0  0  0  0  0  0  0  0  0  0  0
    3.7320    0.9367    0.0000 C   0  0  0  0  0  0  0  0  0  0  0  0
    7.6995   -1.5247    0.0000 C   0  0  0  0  0  0  0  0  0  0  0  0
    3.7320    2.9367    0.0000 C   0  0  0  0  0  0  0  0  0  0  0  0
    2.8660   -1.5633    0.0000 C   0  0  0  0  0  0  0  0  0  0  0  0
    2.0000    0.9367    0.0000 C   0  0  0  0  0  0  0  0  0  0  0  0
    5.9729   -0.8074    0.0000 H   0  0  0  0  0  0  0  0  0  0  0  0
    7.2756    0.9890    0.0000 H   0  0  0  0  0  0  0  0  0  0  0  0
    4.5981   -1.1833    0.0000 H   0  0  0  0  0  0  0  0  0  0  0  0
    6.3069   -1.7800    0.0000 H   0  0  0  0  0  0  0  0  0  0  0  0
    8.3039    0.9737    0.0000 H   0  0  0  0  0  0  0  0  0  0  0  0
    4.0420    3.4737    0.0000 H   0  0  0  0  0  0  0  0  0  0  0  0
    3.1951    3.2467    0.0000 H   0  0  0  0  0  0  0  0  0  0  0  0
    3.4220    2.3998    0.0000 H   0  0  0  0  0  0  0  0  0  0  0  0
    8.6168   -2.6031    0.0000 H   0  0  0  0  0  0  0  0  0  0  0  0
    7.5961   -2.9367    0.0000 H   0  0  0  0  0  0  0  0  0  0  0  0
    1.6900    1.4737    0.0000 H   0  0  0  0  0  0  0  0  0  0  0  0
    1.4631    0.6267    0.0000 H   0  0  0  0  0  0  0  0  0  0  0  0
    2.3100    0.3998    0.0000 H   0  0  0  0  0  0  0  0  0  0  0  0
    2.2460   -1.5633    0.0000 H   0  0  0  0  0  0  0  0  0  0  0  0
    2.8660   -2.1833    0.0000 H   0  0  0  0  0  0  0  0  0  0  0  0
    3.4860   -1.5633    0.0000 H   0  0  0  0  0  0  0  0  0  0  0  0
  1 10  1  0  0  0  0
  1 26  1  0  0  0  0
  2 15  1  0  0  0  0
  2 19  1  0  0  0  0
  3 13  2  0  0  0  0
  4 16  1  0  0  0  0
  4 20  1  0  0  0  0
  5 17  1  0  0  0  0
  5 21  1  0  0  0  0
  6 18  2  0  0  0  0
  7  9  1  0  0  0  0
  7 18  1  0  0  0  0
  7 25  1  0  0  0  0
  8 18  1  0  0  0  0
  8 30  1  0  0  0  0
  8 31  1  0  0  0  0
  9 10  1  0  0  0  0
  9 11  1  0  0  0  0
  9 22  1  0  0  0  0
 10 13  1  0  0  0  0
 10 23  1  0  0  0  0
 11 12  1  0  0  0  0
 11 14  2  0  0  0  0
 12 13  1  0  0  0  0
 12 15  2  0  0  0  0
 14 16  1  0  0  0  0
 14 24  1  0  0  0  0
 15 17  1  0  0  0  0
 16 17  2  0  0  0  0
 19 27  1  0  0  0  0
 19 28  1  0  0  0  0
 19 29  1  0  0  0  0
 20 35  1  0  0  0  0
 20 36  1  0  0  0  0
 20 37  1  0  0  0  0
 21 32  1  0  0  0  0
 21 33  1  0  0  0  0
 21 34  1  0  0  0  0
M  END
> <PUBCHEM_COMPOUND_CID>
500252
> <PUBCHEM_COMPOUND_CANONICALIZED>
1
> <PUBCHEM_CACTVS_COMPLEXITY>
418
> <PUBCHEM_CACTVS_HBOND_ACCEPTOR>
6
> <PUBCHEM_CACTVS_HBOND_DONOR>
3
> <PUBCHEM_CACTVS_ROTATABLE_BOND>
4
> <PUBCHEM_CACTVS_SUBSKEYS>
AAADceBzOAAAAAAAAAAAAAAAAAAAAYAAAAAwAAAAAAAAAGABAAAAHgAQCAAADDzhmAYzBoLABgCIAqBSEAKCCAAkIAAAiIFOjMiPNz6EtRuEcWpl9hcaqQf+/L/OoAABCAAYQABAAAIQADCAAKAACQgAAA==
> <PUBCHEM_IUPAC_OPENEYE_NAME>
(2-hydroxy-4,5,6-trimethoxy-3-oxo-indan-1-yl)urea
> <PUBCHEM_IUPAC_CAS_NAME>
(2-hydroxy-4,5,6-trimethoxy-3-oxo-1,2-dihydroinden-1-yl)urea
> <PUBCHEM_IUPAC_NAME_MARKUP>
(2-hydroxy-4,5,6-trimethoxy-3-oxo-1,2-dihydroinden-1-yl)urea
> <PUBCHEM_IUPAC_NAME>
(2-hydroxy-4,5,6-trimethoxy-3-oxo-1,2-dihydroinden-1-yl)urea
> <PUBCHEM_IUPAC_SYSTEMATIC_NAME>
1-(4,5,6-trimethoxy-2-oxidanyl-3-oxidanylidene-1,2-dihydroinden-1-yl)urea
> <PUBCHEM_IUPAC_TRADITIONAL_NAME>
(2-hydroxy-3-keto-4,5,6-trimethoxy-indan-1-yl)urea
> <PUBCHEM_IUPAC_INCHI>
InChI=1S/C13H16N2O6/c1-19-6-4-5-7(12(21-3)11(6)20-2)9(16)10(17)8(5)15-13(14)18/h4,8,10,17H,1-3H3,(H3,14,15,18)
> <PUBCHEM_IUPAC_INCHIKEY>
YQVXXCUXZYHSTI-UHFFFAOYSA-N
> <PUBCHEM_XLOGP3_AA>
-0.7
> <PUBCHEM_EXACT_MASS>
296.10083623
> <PUBCHEM_MOLECULAR_FORMULA>
C13H16N2O6
> <PUBCHEM_MOLECULAR_WEIGHT>
296.28
> <PUBCHEM_OPENEYE_CAN_SMILES>
COC1=C(C(=C2C(=C1)C(C(C2=O)O)NC(=O)N)OC)OC
> <PUBCHEM_OPENEYE_ISO_SMILES>
COC1=C(C(=C2C(=C1)C(C(C2=O)O)NC(=O)N)OC)OC
> <PUBCHEM_CACTVS_TPSA>
120
> <PUBCHEM_MONOISOTOPIC_WEIGHT>
296.10083623
> <PUBCHEM_TOTAL_CHARGE>
0
> <PUBCHEM_HEAVY_ATOM_COUNT>
21
> <PUBCHEM_ATOM_DEF_STEREO_COUNT>
0
> <PUBCHEM_ATOM_UDEF_STEREO_COUNT>
2
> <PUBCHEM_BOND_DEF_STEREO_COUNT>
0
> <PUBCHEM_BOND_UDEF_STEREO_COUNT>
0
> <PUBCHEM_ISOTOPIC_ATOM_COUNT>
0
> <PUBCHEM_COMPONENT_COUNT>
1
> <PUBCHEM_CACTVS_TAUTO_COUNT>
-1
> <PUBCHEM_COORDINATE_TYPE>
1
5
255
> <PUBCHEM_BONDANNOTATIONS>
10  1  3
11  12  8
11  14  8
12  15  8
14  16  8
15  17  8
16  17  8
9  7  3
$$$$
