500230
  -OEChem-10302200282D
 61 65  0     1  0  0  0  0  0999 V2000
    8.7255   -1.7650    0.0000 O   0  0  0  0  0  0  0  0  0  0  0  0
   10.8695    0.3035    0.0000 O   0  0  0  0  0  0  0  0  0  0  0  0
    5.2360   -0.8608    0.0000 O   0  0  0  0  0  0  0  0  0  0  0  0
   13.5091   -2.0407    0.0000 O   0  0  0  0  0  0  0  0  0  0  0  0
    7.8657    1.4929    0.0000 N   0  0  0  0  0  0  0  0  0  0  0  0
    9.2222   -0.2317    0.0000 C   0  0  3  0  0  0  0  0  0  0  0  0
    9.5312   -1.1828    0.0000 C   0  0  3  0  0  0  0  0  0  0  0  0
    8.2282   -0.2343    0.0000 C   0  0  0  0  0  0  0  0  0  0  0  0
    9.8913    0.5114    0.0000 C   0  0  0  0  0  0  0  0  0  0  0  0
   10.5094   -1.3907    0.0000 C   0  0  0  0  0  0  0  0  0  0  0  0
    7.9218   -1.1800    0.0000 C   0  0  0  0  0  0  0  0  0  0  0  0
    7.5466    0.5452    0.0000 C   0  0  0  0  0  0  0  0  0  0  0  0
   11.1785   -0.6476    0.0000 C   0  0  0  0  0  0  0  0  0  0  0  0
    6.9126   -1.4118    0.0000 C   0  0  0  0  0  0  0  0  0  0  0  0
    6.5323    0.3368    0.0000 C   0  0  0  0  0  0  0  0  0  0  0  0
   10.8160   -2.3862    0.0000 C   0  0  0  0  0  0  0  0  0  0  0  0
    6.2132   -0.6482    0.0000 C   0  0  0  0  0  0  0  0  0  0  0  0
   12.2006   -0.8484    0.0000 C   0  0  0  0  0  0  0  0  0  0  0  0
    7.2046    2.2431    0.0000 C   0  0  0  0  0  0  0  0  0  0  0  0
    8.8460    1.6903    0.0000 C   0  0  0  0  0  0  0  0  0  0  0  0
   11.8331   -2.6106    0.0000 C   0  0  0  0  0  0  0  0  0  0  0  0
   12.5301   -1.8365    0.0000 C   0  0  0  0  0  0  0  0  0  0  0  0
    7.5238    3.1908    0.0000 C   0  0  0  0  0  0  0  0  0  0  0  0
    9.1652    2.6380    0.0000 C   0  0  0  0  0  0  0  0  0  0  0  0
    4.9315   -1.8133    0.0000 C   0  0  0  0  0  0  0  0  0  0  0  0
    3.9543   -2.0258    0.0000 C   0  0  0  0  0  0  0  0  0  0  0  0
   13.8217   -2.9905    0.0000 C   0  0  0  0  0  0  0  0  0  0  0  0
    3.2817   -1.2858    0.0000 C   0  0  0  0  0  0  0  0  0  0  0  0
    3.6498   -2.9783    0.0000 C   0  0  0  0  0  0  0  0  0  0  0  0
    2.3045   -1.4983    0.0000 C   0  0  0  0  0  0  0  0  0  0  0  0
    2.6726   -3.1908    0.0000 C   0  0  0  0  0  0  0  0  0  0  0  0
    2.0000   -2.4508    0.0000 C   0  0  0  0  0  0  0  0  0  0  0  0
    8.9693    0.3343    0.0000 H   0  0  0  0  0  0  0  0  0  0  0  0
    9.6594   -1.7894    0.0000 H   0  0  0  0  0  0  0  0  0  0  0  0
   10.1236    1.0862    0.0000 H   0  0  0  0  0  0  0  0  0  0  0  0
    9.3656    0.8399    0.0000 H   0  0  0  0  0  0  0  0  0  0  0  0
    6.7283   -2.0038    0.0000 H   0  0  0  0  0  0  0  0  0  0  0  0
    6.1188    0.7988    0.0000 H   0  0  0  0  0  0  0  0  0  0  0  0
   10.3958   -2.8421    0.0000 H   0  0  0  0  0  0  0  0  0  0  0  0
   12.6101   -0.3829    0.0000 H   0  0  0  0  0  0  0  0  0  0  0  0
    6.6603    2.5400    0.0000 H   0  0  0  0  0  0  0  0  0  0  0  0
    6.8177    1.7587    0.0000 H   0  0  0  0  0  0  0  0  0  0  0  0
    8.8610    1.0705    0.0000 H   0  0  0  0  0  0  0  0  0  0  0  0
    9.4590    1.5974    0.0000 H   0  0  0  0  0  0  0  0  0  0  0  0
   12.0224   -3.2010    0.0000 H   0  0  0  0  0  0  0  0  0  0  0  0
    8.1113    2.9929    0.0000 H   0  0  0  0  0  0  0  0  0  0  0  0
    7.7216    3.7784    0.0000 H   0  0  0  0  0  0  0  0  0  0  0  0
    6.9362    3.3887    0.0000 H   0  0  0  0  0  0  0  0  0  0  0  0
    9.7528    2.4401    0.0000 H   0  0  0  0  0  0  0  0  0  0  0  0
    9.3631    3.2256    0.0000 H   0  0  0  0  0  0  0  0  0  0  0  0
    8.5776    2.8359    0.0000 H   0  0  0  0  0  0  0  0  0  0  0  0
    4.9560   -2.4328    0.0000 H   0  0  0  0  0  0  0  0  0  0  0  0
    5.5458   -1.8967    0.0000 H   0  0  0  0  0  0  0  0  0  0  0  0
   13.2328   -3.1844    0.0000 H   0  0  0  0  0  0  0  0  0  0  0  0
   14.0156   -3.5794    0.0000 H   0  0  0  0  0  0  0  0  0  0  0  0
   14.4106   -2.7967    0.0000 H   0  0  0  0  0  0  0  0  0  0  0  0
    3.4705   -0.6953    0.0000 H   0  0  0  0  0  0  0  0  0  0  0  0
    4.0668   -3.4371    0.0000 H   0  0  0  0  0  0  0  0  0  0  0  0
    1.8875   -1.0396    0.0000 H   0  0  0  0  0  0  0  0  0  0  0  0
    2.4838   -3.7814    0.0000 H   0  0  0  0  0  0  0  0  0  0  0  0
    1.3942   -2.5826    0.0000 H   0  0  0  0  0  0  0  0  0  0  0  0
  1  7  1  0  0  0  0
  1 11  1  0  0  0  0
  2  9  1  0  0  0  0
  2 13  1  0  0  0  0
  3 17  1  0  0  0  0
  3 25  1  0  0  0  0
  4 22  1  0  0  0  0
  4 27  1  0  0  0  0
  5 12  1  0  0  0  0
  5 19  1  0  0  0  0
  5 20  1  0  0  0  0
  6  7  1  0  0  0  0
  6  8  1  0  0  0  0
  6  9  1  0  0  0  0
  6 33  1  0  0  0  0
  7 10  1  0  0  0  0
  7 34  1  0  0  0  0
  8 11  1  0  0  0  0
  8 12  2  0  0  0  0
  9 35  1  0  0  0  0
  9 36  1  0  0  0  0
 10 13  2  0  0  0  0
 10 16  1  0  0  0  0
 11 14  2  0  0  0  0
 12 15  1  0  0  0  0
 13 18  1  0  0  0  0
 14 17  1  0  0  0  0
 14 37  1  0  0  0  0
 15 17  2  0  0  0  0
 15 38  1  0  0  0  0
 16 21  2  0  0  0  0
 16 39  1  0  0  0  0
 18 22  2  0  0  0  0
 18 40  1  0  0  0  0
 19 23  1  0  0  0  0
 19 41  1  0  0  0  0
 19 42  1  0  0  0  0
 20 24  1  0  0  0  0
 20 43  1  0  0  0  0
 20 44  1  0  0  0  0
 21 22  1  0  0  0  0
 21 45  1  0  0  0  0
 23 46  1  0  0  0  0
 23 47  1  0  0  0  0
 23 48  1  0  0  0  0
 24 49  1  0  0  0  0
 24 50  1  0  0  0  0
 24 51  1  0  0  0  0
 25 26  1  0  0  0  0
 25 52  1  0  0  0  0
 25 53  1  0  0  0  0
 26 28  2  0  0  0  0
 26 29  1  0  0  0  0
 27 54  1  0  0  0  0
 27 55  1  0  0  0  0
 27 56  1  0  0  0  0
 28 30  1  0  0  0  0
 28 57  1  0  0  0  0
 29 31  2  0  0  0  0
 29 58  1  0  0  0  0
 30 32  2  0  0  0  0
 30 59  1  0  0  0  0
 31 32  1  0  0  0  0
 31 60  1  0  0  0  0
 32 61  1  0  0  0  0
M  END
> <PUBCHEM_COMPOUND_CID>
500230
> <PUBCHEM_COMPOUND_CANONICALIZED>
1
> <PUBCHEM_CACTVS_COMPLEXITY>
592
> <PUBCHEM_CACTVS_HBOND_ACCEPTOR>
5
> <PUBCHEM_CACTVS_HBOND_DONOR>
0
> <PUBCHEM_CACTVS_ROTATABLE_BOND>
7
> <PUBCHEM_CACTVS_SUBSKEYS>
AAADceB6OAAAAAAAAAAAAAAAAAAAASAAAAA0YMEAAAAAAEiRUAAAHgAAAAAADRzhmAYyxoMABACAAiRCQACCCAAhIgAIiAAObIgMJyLEsZuGOCjnwB3I6Afw8P8OoAAACgAKAABAAAAUABQAAAAAAAAAAA==
> <PUBCHEM_IUPAC_OPENEYE_NAME>
9-benzyloxy-N,N-diethyl-3-methoxy-6a,11a-dihydro-6H-benzofuro[3,2-c]chromen-7-amine
> <PUBCHEM_IUPAC_CAS_NAME>
N,N-diethyl-3-methoxy-9-phenylmethoxy-6a,11a-dihydro-6H-benzofuro[3,2-c][1]benzopyran-7-amine
> <PUBCHEM_IUPAC_NAME_MARKUP>
<I>N</I>,<I>N</I>-diethyl-3-methoxy-9-phenylmethoxy-6<I>a</I>,11<I>a</I>-dihydro-6<I>H</I>-[1]benzofuro[3,2-c]chromen-7-amine
> <PUBCHEM_IUPAC_NAME>
N,N-diethyl-3-methoxy-9-phenylmethoxy-6a,11a-dihydro-6H-[1]benzofuro[3,2-c]chromen-7-amine
> <PUBCHEM_IUPAC_SYSTEMATIC_NAME>
N,N-diethyl-3-methoxy-9-phenylmethoxy-6a,11a-dihydro-6H-[1]benzofuro[3,2-c]chromen-7-amine
> <PUBCHEM_IUPAC_TRADITIONAL_NAME>
(9-benzoxy-3-methoxy-6a,11a-dihydro-6H-benzofuro[3,2-c]chromen-7-yl)-diethyl-amine
> <PUBCHEM_IUPAC_INCHI>
InChI=1S/C27H29NO4/c1-4-28(5-2)23-13-20(30-16-18-9-7-6-8-10-18)15-25-26(23)22-17-31-24-14-19(29-3)11-12-21(24)27(22)32-25/h6-15,22,27H,4-5,16-17H2,1-3H3
> <PUBCHEM_IUPAC_INCHIKEY>
SOWUFAOKGPBAOK-UHFFFAOYSA-N
> <PUBCHEM_XLOGP3_AA>
5.3
> <PUBCHEM_EXACT_MASS>
431.20965841
> <PUBCHEM_MOLECULAR_FORMULA>
C27H29NO4
> <PUBCHEM_MOLECULAR_WEIGHT>
431.5
> <PUBCHEM_OPENEYE_CAN_SMILES>
CCN(CC)C1=C2C3COC4=C(C3OC2=CC(=C1)OCC5=CC=CC=C5)C=CC(=C4)OC
> <PUBCHEM_OPENEYE_ISO_SMILES>
CCN(CC)C1=C2C3COC4=C(C3OC2=CC(=C1)OCC5=CC=CC=C5)C=CC(=C4)OC
> <PUBCHEM_CACTVS_TPSA>
40.2
> <PUBCHEM_MONOISOTOPIC_WEIGHT>
431.20965841
> <PUBCHEM_TOTAL_CHARGE>
0
> <PUBCHEM_HEAVY_ATOM_COUNT>
32
> <PUBCHEM_ATOM_DEF_STEREO_COUNT>
0
> <PUBCHEM_ATOM_UDEF_STEREO_COUNT>
2
> <PUBCHEM_BOND_DEF_STEREO_COUNT>
0
> <PUBCHEM_BOND_UDEF_STEREO_COUNT>
0
> <PUBCHEM_ISOTOPIC_ATOM_COUNT>
0
> <PUBCHEM_COMPONENT_COUNT>
1
> <PUBCHEM_CACTVS_TAUTO_COUNT>
-1
> <PUBCHEM_COORDINATE_TYPE>
1
5
255
> <PUBCHEM_BONDANNOTATIONS>
7  1  3
10  13  8
10  16  8
11  14  8
12  15  8
13  18  8
14  17  8
15  17  8
16  21  8
18  22  8
21  22  8
26  28  8
26  29  8
28  30  8
29  31  8
30  32  8
31  32  8
6  9  3
8  11  8
8  12  8
$$$$
