500224
  -OEChem-10302200282D
 43 45  0     1  0  0  0  0  0999 V2000
    3.7702    0.8284    0.0000 O   0  0  0  0  0  0  0  0  0  0  0  0
    3.7817   -2.2409    0.0000 O   0  0  0  0  0  0  0  0  0  0  0  0
    7.3062    0.8006    0.0000 O   0  0  0  0  0  0  0  0  0  0  0  0
    5.5301   -2.2063    0.0000 O   0  0  0  0  0  0  0  0  0  0  0  0
    2.8641   -0.7271    0.0000 C   0  0  3  0  0  0  0  0  0  0  0  0
    3.7702   -1.2409    0.0000 C   0  0  3  0  0  0  0  0  0  0  0  0
    2.8641    0.3145    0.0000 C   0  0  3  0  0  0  0  0  0  0  0  0
    4.6641   -0.7063    0.0000 C   0  0  0  0  0  0  0  0  0  0  0  0
    4.6641    0.2937    0.0000 C   0  0  0  0  0  0  0  0  0  0  0  0
    2.0000   -1.2304    0.0000 C   0  0  0  0  0  0  0  0  0  0  0  0
    5.5301    0.7937    0.0000 C   0  0  0  0  0  0  0  0  0  0  0  0
    5.5301   -1.2063    0.0000 C   0  0  0  0  0  0  0  0  0  0  0  0
    2.0000    0.8179    0.0000 C   0  0  0  0  0  0  0  0  0  0  0  0
    6.3961    0.2937    0.0000 C   0  0  0  0  0  0  0  0  0  0  0  0
    7.3142    1.8422    0.0000 C   0  0  0  0  0  0  0  0  0  0  0  0
    6.3961   -0.7063    0.0000 C   0  0  0  0  0  0  0  0  0  0  0  0
    5.5141    1.8352    0.0000 C   0  0  0  0  0  0  0  0  0  0  0  0
    6.4121    2.3630    0.0000 C   0  0  0  0  0  0  0  0  0  0  0  0
    7.8175    2.7063    0.0000 C   0  0  0  0  0  0  0  0  0  0  0  0
    8.3142    1.8383    0.0000 C   0  0  0  0  0  0  0  0  0  0  0  0
    6.3961   -2.7063    0.0000 C   0  0  0  0  0  0  0  0  0  0  0  0
    2.3266   -0.4181    0.0000 H   0  0  0  0  0  0  0  0  0  0  0  0
    3.2362   -1.5561    0.0000 H   0  0  0  0  0  0  0  0  0  0  0  0
    2.8677    0.9345    0.0000 H   0  0  0  0  0  0  0  0  0  0  0  0
    1.6879   -0.6947    0.0000 H   0  0  0  0  0  0  0  0  0  0  0  0
    1.4643   -1.5425    0.0000 H   0  0  0  0  0  0  0  0  0  0  0  0
    2.3121   -1.7662    0.0000 H   0  0  0  0  0  0  0  0  0  0  0  0
    2.3121    1.3536    0.0000 H   0  0  0  0  0  0  0  0  0  0  0  0
    1.4643    1.1300    0.0000 H   0  0  0  0  0  0  0  0  0  0  0  0
    1.6879    0.2821    0.0000 H   0  0  0  0  0  0  0  0  0  0  0  0
    6.9331   -1.0163    0.0000 H   0  0  0  0  0  0  0  0  0  0  0  0
    4.9736    2.1390    0.0000 H   0  0  0  0  0  0  0  0  0  0  0  0
    6.4097    2.9830    0.0000 H   0  0  0  0  0  0  0  0  0  0  0  0
    3.2484   -2.5570    0.0000 H   0  0  0  0  0  0  0  0  0  0  0  0
    8.3532    2.3942    0.0000 H   0  0  0  0  0  0  0  0  0  0  0  0
    8.1296    3.2420    0.0000 H   0  0  0  0  0  0  0  0  0  0  0  0
    7.2818    3.0183    0.0000 H   0  0  0  0  0  0  0  0  0  0  0  0
    8.3118    1.2183    0.0000 H   0  0  0  0  0  0  0  0  0  0  0  0
    8.9342    1.8359    0.0000 H   0  0  0  0  0  0  0  0  0  0  0  0
    8.3166    2.4583    0.0000 H   0  0  0  0  0  0  0  0  0  0  0  0
    6.0862   -3.2432    0.0000 H   0  0  0  0  0  0  0  0  0  0  0  0
    6.9331   -3.0163    0.0000 H   0  0  0  0  0  0  0  0  0  0  0  0
    6.7062   -2.1693    0.0000 H   0  0  0  0  0  0  0  0  0  0  0  0
  1  7  1  0  0  0  0
  1  9  1  0  0  0  0
  2  6  1  0  0  0  0
  2 34  1  0  0  0  0
  3 14  1  0  0  0  0
  3 15  1  0  0  0  0
  4 12  1  0  0  0  0
  4 21  1  0  0  0  0
  5  6  1  0  0  0  0
  5  7  1  0  0  0  0
  5 10  1  0  0  0  0
  5 22  1  0  0  0  0
  6  8  1  0  0  0  0
  6 23  1  0  0  0  0
  7 13  1  0  0  0  0
  7 24  1  0  0  0  0
  8  9  1  0  0  0  0
  8 12  2  0  0  0  0
  9 11  2  0  0  0  0
 10 25  1  0  0  0  0
 10 26  1  0  0  0  0
 10 27  1  0  0  0  0
 11 14  1  0  0  0  0
 11 17  1  0  0  0  0
 12 16  1  0  0  0  0
 13 28  1  0  0  0  0
 13 29  1  0  0  0  0
 13 30  1  0  0  0  0
 14 16  2  0  0  0  0
 15 18  1  0  0  0  0
 15 19  1  0  0  0  0
 15 20  1  0  0  0  0
 16 31  1  0  0  0  0
 17 18  2  0  0  0  0
 17 32  1  0  0  0  0
 18 33  1  0  0  0  0
 19 35  1  0  0  0  0
 19 36  1  0  0  0  0
 19 37  1  0  0  0  0
 20 38  1  0  0  0  0
 20 39  1  0  0  0  0
 20 40  1  0  0  0  0
 21 41  1  0  0  0  0
 21 42  1  0  0  0  0
 21 43  1  0  0  0  0
M  END
> <PUBCHEM_COMPOUND_CID>
500224
> <PUBCHEM_COMPOUND_CANONICALIZED>
1
> <PUBCHEM_CACTVS_COMPLEXITY>
419
> <PUBCHEM_CACTVS_HBOND_ACCEPTOR>
4
> <PUBCHEM_CACTVS_HBOND_DONOR>
1
> <PUBCHEM_CACTVS_ROTATABLE_BOND>
1
> <PUBCHEM_CACTVS_SUBSKEYS>
AAADceB4OAAAAAAAAAAAAAAAAAAAAAAAAAA0QIAAAAAAAACRAAAAGgAACAAADVSgmAIyBoAABgCAAiBCAAACCAAgIAAIiAAGCIgMNyKEMBqCeCClwBUIuAeA4OwOIAACCAAIAABAAAQQABAAAAAAAAAAAA==
> <PUBCHEM_IUPAC_OPENEYE_NAME>
5-methoxy-2,3,8,8-tetramethyl-3,4-dihydro-2H-pyrano[2,3-h]chromen-4-ol
> <PUBCHEM_IUPAC_CAS_NAME>
5-methoxy-2,3,8,8-tetramethyl-3,4-dihydro-2H-pyrano[2,3-h][1]benzopyran-4-ol
> <PUBCHEM_IUPAC_NAME_MARKUP>
5-methoxy-2,3,8,8-tetramethyl-3,4-dihydro-2<I>H</I>-pyrano[2,3-h]chromen-4-ol
> <PUBCHEM_IUPAC_NAME>
5-methoxy-2,3,8,8-tetramethyl-3,4-dihydro-2H-pyrano[2,3-h]chromen-4-ol
> <PUBCHEM_IUPAC_SYSTEMATIC_NAME>
5-methoxy-2,3,8,8-tetramethyl-3,4-dihydro-2H-pyrano[2,3-h]chromen-4-ol
> <PUBCHEM_IUPAC_TRADITIONAL_NAME>
5-methoxy-2,3,8,8-tetramethyl-3,4-dihydro-2H-pyrano[2,3-h]chromen-4-ol
> <PUBCHEM_IUPAC_INCHI>
InChI=1S/C17H22O4/c1-9-10(2)20-16-11-6-7-17(3,4)21-12(11)8-13(19-5)14(16)15(9)18/h6-10,15,18H,1-5H3
> <PUBCHEM_IUPAC_INCHIKEY>
QNNKCIXUURGTMJ-UHFFFAOYSA-N
> <PUBCHEM_XLOGP3_AA>
2.9
> <PUBCHEM_EXACT_MASS>
290.15180918
> <PUBCHEM_MOLECULAR_FORMULA>
C17H22O4
> <PUBCHEM_MOLECULAR_WEIGHT>
290.4
> <PUBCHEM_OPENEYE_CAN_SMILES>
CC1C(OC2=C3C=CC(OC3=CC(=C2C1O)OC)(C)C)C
> <PUBCHEM_OPENEYE_ISO_SMILES>
CC1C(OC2=C3C=CC(OC3=CC(=C2C1O)OC)(C)C)C
> <PUBCHEM_CACTVS_TPSA>
47.9
> <PUBCHEM_MONOISOTOPIC_WEIGHT>
290.15180918
> <PUBCHEM_TOTAL_CHARGE>
0
> <PUBCHEM_HEAVY_ATOM_COUNT>
21
> <PUBCHEM_ATOM_DEF_STEREO_COUNT>
0
> <PUBCHEM_ATOM_UDEF_STEREO_COUNT>
3
> <PUBCHEM_BOND_DEF_STEREO_COUNT>
0
> <PUBCHEM_BOND_UDEF_STEREO_COUNT>
0
> <PUBCHEM_ISOTOPIC_ATOM_COUNT>
0
> <PUBCHEM_COMPONENT_COUNT>
1
> <PUBCHEM_CACTVS_TAUTO_COUNT>
-1
> <PUBCHEM_COORDINATE_TYPE>
1
5
255
> <PUBCHEM_BONDANNOTATIONS>
11  14  8
12  16  8
14  16  8
6  2  3
5  10  3
7  13  3
8  12  8
8  9  8
9  11  8
$$$$
