500256
  -OEChem-10302200282D
 55 59  0     1  0  0  0  0  0999 V2000
    4.0843    0.9480    0.0000 O   0  0  0  0  0  0  0  0  0  0  0  0
    7.5566    0.9480    0.0000 O   0  0  0  0  0  0  0  0  0  0  0  0
    5.8204   -3.0144    0.0000 O   0  0  0  0  0  0  0  0  0  0  0  0
    5.8204   -0.0144    0.0000 C   0  0  0  0  0  0  0  0  0  0  0  0
    6.6865   -0.5144    0.0000 C   0  0  3  0  0  0  0  0  0  0  0  0
    4.9544   -0.5144    0.0000 C   0  0  3  0  0  0  0  0  0  0  0  0
    5.0114    0.5734    0.0000 C   0  0  3  0  0  0  0  0  0  0  0  0
    6.6295    0.5734    0.0000 C   0  0  3  0  0  0  0  0  0  0  0  0
    6.6865   -1.5144    0.0000 C   0  0  0  0  0  0  0  0  0  0  0  0
    4.9544   -1.5144    0.0000 C   0  0  0  0  0  0  0  0  0  0  0  0
    5.8204   -2.0144    0.0000 C   0  0  0  0  0  0  0  0  0  0  0  0
    5.3204    1.5244    0.0000 C   0  0  0  0  0  0  0  0  0  0  0  0
    6.3204    1.5244    0.0000 C   0  0  0  0  0  0  0  0  0  0  0  0
    7.6713   -0.6881    0.0000 C   0  0  0  0  0  0  0  0  0  0  0  0
    3.9696   -0.6881    0.0000 C   0  0  0  0  0  0  0  0  0  0  0  0
    4.7858    2.4184    0.0000 C   0  0  0  0  0  0  0  0  0  0  0  0
    6.8551    2.4184    0.0000 C   0  0  0  0  0  0  0  0  0  0  0  0
    8.3141    0.0780    0.0000 C   0  0  0  0  0  0  0  0  0  0  0  0
    3.6275   -1.6277    0.0000 C   0  0  0  0  0  0  0  0  0  0  0  0
    8.0133   -1.6278    0.0000 C   0  0  0  0  0  0  0  0  0  0  0  0
    3.3268    0.0780    0.0000 C   0  0  0  0  0  0  0  0  0  0  0  0
    5.2996    3.3244    0.0000 C   0  0  0  0  0  0  0  0  0  0  0  0
    6.3413    3.3244    0.0000 C   0  0  0  0  0  0  0  0  0  0  0  0
    9.2989   -0.0957    0.0000 C   0  0  0  0  0  0  0  0  0  0  0  0
    2.6428   -1.8014    0.0000 C   0  0  0  0  0  0  0  0  0  0  0  0
    8.9981   -1.8014    0.0000 C   0  0  0  0  0  0  0  0  0  0  0  0
    2.3420   -0.0957    0.0000 C   0  0  0  0  0  0  0  0  0  0  0  0
    9.6409   -1.0354    0.0000 C   0  0  0  0  0  0  0  0  0  0  0  0
    2.0000   -1.0354    0.0000 C   0  0  0  0  0  0  0  0  0  0  0  0
    7.0850   -0.9894    0.0000 H   0  0  0  0  0  0  0  0  0  0  0  0
    4.5559   -0.9894    0.0000 H   0  0  0  0  0  0  0  0  0  0  0  0
    4.7108    0.0311    0.0000 H   0  0  0  0  0  0  0  0  0  0  0  0
    6.9300    0.0311    0.0000 H   0  0  0  0  0  0  0  0  0  0  0  0
    6.8985   -2.0970    0.0000 H   0  0  0  0  0  0  0  0  0  0  0  0
    7.2970   -1.4068    0.0000 H   0  0  0  0  0  0  0  0  0  0  0  0
    4.3438   -1.4068    0.0000 H   0  0  0  0  0  0  0  0  0  0  0  0
    4.7424   -2.0970    0.0000 H   0  0  0  0  0  0  0  0  0  0  0  0
    6.3574   -2.3244    0.0000 H   0  0  0  0  0  0  0  0  0  0  0  0
    3.9980    1.5619    0.0000 H   0  0  0  0  0  0  0  0  0  0  0  0
    7.6429    1.5619    0.0000 H   0  0  0  0  0  0  0  0  0  0  0  0
    4.1658    2.4112    0.0000 H   0  0  0  0  0  0  0  0  0  0  0  0
    7.4751    2.4112    0.0000 H   0  0  0  0  0  0  0  0  0  0  0  0
    5.2835   -3.3244    0.0000 H   0  0  0  0  0  0  0  0  0  0  0  0
    8.1020    0.6606    0.0000 H   0  0  0  0  0  0  0  0  0  0  0  0
    4.0261   -2.1026    0.0000 H   0  0  0  0  0  0  0  0  0  0  0  0
    7.6148   -2.1027    0.0000 H   0  0  0  0  0  0  0  0  0  0  0  0
    3.5389    0.6606    0.0000 H   0  0  0  0  0  0  0  0  0  0  0  0
    4.9876    3.8602    0.0000 H   0  0  0  0  0  0  0  0  0  0  0  0
    6.6533    3.8602    0.0000 H   0  0  0  0  0  0  0  0  0  0  0  0
    9.6974    0.3793    0.0000 H   0  0  0  0  0  0  0  0  0  0  0  0
    2.4308   -2.3840    0.0000 H   0  0  0  0  0  0  0  0  0  0  0  0
    9.2102   -2.3840    0.0000 H   0  0  0  0  0  0  0  0  0  0  0  0
    1.9435    0.3793    0.0000 H   0  0  0  0  0  0  0  0  0  0  0  0
   10.2515   -1.1430    0.0000 H   0  0  0  0  0  0  0  0  0  0  0  0
    1.3894   -1.1430    0.0000 H   0  0  0  0  0  0  0  0  0  0  0  0
  1  7  1  0  0  0  0
  1 39  1  0  0  0  0
  2  8  1  0  0  0  0
  2 40  1  0  0  0  0
  3 11  1  0  0  0  0
  3 43  1  0  0  0  0
  4  5  1  0  0  0  0
  4  6  1  0  0  0  0
  4  7  1  0  0  0  0
  4  8  1  0  0  0  0
  5  9  1  0  0  0  0
  5 14  1  0  0  0  0
  5 30  1  0  0  0  0
  6 10  1  0  0  0  0
  6 15  1  0  0  0  0
  6 31  1  0  0  0  0
  7 12  1  0  0  0  0
  7 32  1  0  0  0  0
  8 13  1  0  0  0  0
  8 33  1  0  0  0  0
  9 11  1  0  0  0  0
  9 34  1  0  0  0  0
  9 35  1  0  0  0  0
 10 11  1  0  0  0  0
 10 36  1  0  0  0  0
 10 37  1  0  0  0  0
 11 38  1  0  0  0  0
 12 13  1  0  0  0  0
 12 16  2  0  0  0  0
 13 17  2  0  0  0  0
 14 18  2  0  0  0  0
 14 20  1  0  0  0  0
 15 19  2  0  0  0  0
 15 21  1  0  0  0  0
 16 22  1  0  0  0  0
 16 41  1  0  0  0  0
 17 23  1  0  0  0  0
 17 42  1  0  0  0  0
 18 24  1  0  0  0  0
 18 44  1  0  0  0  0
 19 25  1  0  0  0  0
 19 45  1  0  0  0  0
 20 26  2  0  0  0  0
 20 46  1  0  0  0  0
 21 27  2  0  0  0  0
 21 47  1  0  0  0  0
 22 23  2  0  0  0  0
 22 48  1  0  0  0  0
 23 49  1  0  0  0  0
 24 28  2  0  0  0  0
 24 50  1  0  0  0  0
 25 29  2  0  0  0  0
 25 51  1  0  0  0  0
 26 28  1  0  0  0  0
 26 52  1  0  0  0  0
 27 29  1  0  0  0  0
 27 53  1  0  0  0  0
 28 54  1  0  0  0  0
 29 55  1  0  0  0  0
M  END
> <PUBCHEM_COMPOUND_CID>
500256
> <PUBCHEM_COMPOUND_CANONICALIZED>
1
> <PUBCHEM_CACTVS_COMPLEXITY>
502
> <PUBCHEM_CACTVS_HBOND_ACCEPTOR>
3
> <PUBCHEM_CACTVS_HBOND_DONOR>
3
> <PUBCHEM_CACTVS_ROTATABLE_BOND>
2
> <PUBCHEM_CACTVS_SUBSKEYS>
AAADceB4MAAAAAAAAAAAAAAAAAAAAYAAAAAwYMGAAAAAAGABUAAAGgAACAAADxSgmAIwAIAAAgCAAiBCAAACAAAgAAAIiAAACIgINiKAERCAcAAlwAEImAfA4PQPgAAAAAAQAABAAAYAACAAAYQADAAAAA==
> <PUBCHEM_IUPAC_OPENEYE_NAME>
3,5-diphenylspiro[cyclohexane-4,2'-indane]-1,1',3'-triol
> <PUBCHEM_IUPAC_CAS_NAME>
3',5'-diphenylspiro[1,3-dihydroindene-2,4'-cyclohexane]-1,1',3-triol
> <PUBCHEM_IUPAC_NAME_MARKUP>
3&apos;,5&apos;-diphenylspiro[1,3-dihydroindene-2,4&apos;-cyclohexane]-1,1&apos;,3-triol
> <PUBCHEM_IUPAC_NAME>
3',5'-diphenylspiro[1,3-dihydroindene-2,4'-cyclohexane]-1,1',3-triol
> <PUBCHEM_IUPAC_SYSTEMATIC_NAME>
3',5'-diphenylspiro[1,3-dihydroindene-2,4'-cyclohexane]-1,1',3-triol
> <PUBCHEM_IUPAC_TRADITIONAL_NAME>
3,5-diphenylspiro[cyclohexane-4,2'-indane]-1,1',3'-triol
> <PUBCHEM_IUPAC_INCHI>
InChI=1S/C26H26O3/c27-19-15-22(17-9-3-1-4-10-17)26(23(16-19)18-11-5-2-6-12-18)24(28)20-13-7-8-14-21(20)25(26)29/h1-14,19,22-25,27-29H,15-16H2
> <PUBCHEM_IUPAC_INCHIKEY>
PBMDMYZUOMKWHI-UHFFFAOYSA-N
> <PUBCHEM_XLOGP3_AA>
3.5
> <PUBCHEM_EXACT_MASS>
386.18819469
> <PUBCHEM_MOLECULAR_FORMULA>
C26H26O3
> <PUBCHEM_MOLECULAR_WEIGHT>
386.5
> <PUBCHEM_OPENEYE_CAN_SMILES>
C1C(CC(C2(C1C3=CC=CC=C3)C(C4=CC=CC=C4C2O)O)C5=CC=CC=C5)O
> <PUBCHEM_OPENEYE_ISO_SMILES>
C1C(CC(C2(C1C3=CC=CC=C3)C(C4=CC=CC=C4C2O)O)C5=CC=CC=C5)O
> <PUBCHEM_CACTVS_TPSA>
60.7
> <PUBCHEM_MONOISOTOPIC_WEIGHT>
386.18819469
> <PUBCHEM_TOTAL_CHARGE>
0
> <PUBCHEM_HEAVY_ATOM_COUNT>
29
> <PUBCHEM_ATOM_DEF_STEREO_COUNT>
0
> <PUBCHEM_ATOM_UDEF_STEREO_COUNT>
4
> <PUBCHEM_BOND_DEF_STEREO_COUNT>
0
> <PUBCHEM_BOND_UDEF_STEREO_COUNT>
0
> <PUBCHEM_ISOTOPIC_ATOM_COUNT>
0
> <PUBCHEM_COMPONENT_COUNT>
1
> <PUBCHEM_CACTVS_TAUTO_COUNT>
-1
> <PUBCHEM_COORDINATE_TYPE>
1
5
255
> <PUBCHEM_BONDANNOTATIONS>
7  1  3
12  13  8
12  16  8
13  17  8
14  18  8
14  20  8
15  19  8
15  21  8
16  22  8
17  23  8
18  24  8
19  25  8
8  2  3
20  26  8
21  27  8
22  23  8
24  28  8
25  29  8
26  28  8
27  29  8
5  14  3
6  15  3
$$$$
