500265
  -OEChem-10302200282D
 37 38  0     1  0  0  0  0  0999 V2000
    3.7320   -0.1351    0.0000 O   0  0  0  0  0  0  0  0  0  0  0  0
    7.1753    1.5968    0.0000 O   0  0  0  0  0  0  0  0  0  0  0  0
    2.8660    1.3650    0.0000 O   0  0  0  0  0  0  0  0  0  0  0  0
    4.5981    1.3650    0.0000 N   0  0  0  0  0  0  0  0  0  0  0  0
    5.6808    2.5674    0.0000 N   0  0  0  0  0  0  0  0  0  0  0  0
    3.9595    3.0286    0.0000 N   0  0  0  0  0  0  0  0  0  0  0  0
    5.5116    0.9582    0.0000 C   0  0  3  0  0  0  0  0  0  0  0  0
    5.7195   -0.0199    0.0000 C   0  0  0  0  0  0  0  0  0  0  0  0
    6.6706   -0.3290    0.0000 C   0  0  0  0  0  0  0  0  0  0  0  0
    6.1808    1.7014    0.0000 C   0  0  0  0  0  0  0  0  0  0  0  0
    4.7026    2.3595    0.0000 C   0  0  0  0  0  0  0  0  0  0  0  0
    3.7320    0.8649    0.0000 C   0  0  0  0  0  0  0  0  0  0  0  0
    6.8785   -1.3071    0.0000 C   0  0  0  0  0  0  0  0  0  0  0  0
    2.8660   -0.6351    0.0000 C   0  0  0  0  0  0  0  0  0  0  0  0
    2.8660   -1.6350    0.0000 C   0  0  0  0  0  0  0  0  0  0  0  0
    3.7320   -2.1350    0.0000 C   0  0  0  0  0  0  0  0  0  0  0  0
    2.0000   -2.1350    0.0000 C   0  0  0  0  0  0  0  0  0  0  0  0
    3.7320   -3.1350    0.0000 C   0  0  0  0  0  0  0  0  0  0  0  0
    2.0000   -3.1350    0.0000 C   0  0  0  0  0  0  0  0  0  0  0  0
    2.8660   -3.6350    0.0000 C   0  0  0  0  0  0  0  0  0  0  0  0
    5.0298    0.5680    0.0000 H   0  0  0  0  0  0  0  0  0  0  0  0
    5.0999   -0.0416    0.0000 H   0  0  0  0  0  0  0  0  0  0  0  0
    5.6332   -0.6339    0.0000 H   0  0  0  0  0  0  0  0  0  0  0  0
    7.2902   -0.3073    0.0000 H   0  0  0  0  0  0  0  0  0  0  0  0
    6.7569    0.2850    0.0000 H   0  0  0  0  0  0  0  0  0  0  0  0
    6.2720   -1.4360    0.0000 H   0  0  0  0  0  0  0  0  0  0  0  0
    7.0074   -1.9136    0.0000 H   0  0  0  0  0  0  0  0  0  0  0  0
    7.4850   -1.1782    0.0000 H   0  0  0  0  0  0  0  0  0  0  0  0
    4.0884    3.6350    0.0000 H   0  0  0  0  0  0  0  0  0  0  0  0
    3.3698    2.8370    0.0000 H   0  0  0  0  0  0  0  0  0  0  0  0
    2.6540   -0.0524    0.0000 H   0  0  0  0  0  0  0  0  0  0  0  0
    2.2554   -0.7427    0.0000 H   0  0  0  0  0  0  0  0  0  0  0  0
    4.2690   -1.8250    0.0000 H   0  0  0  0  0  0  0  0  0  0  0  0
    1.4631   -1.8250    0.0000 H   0  0  0  0  0  0  0  0  0  0  0  0
    4.2690   -3.4450    0.0000 H   0  0  0  0  0  0  0  0  0  0  0  0
    1.4631   -3.4450    0.0000 H   0  0  0  0  0  0  0  0  0  0  0  0
    2.8660   -4.2550    0.0000 H   0  0  0  0  0  0  0  0  0  0  0  0
  1 12  1  0  0  0  0
  1 14  1  0  0  0  0
  2 10  2  0  0  0  0
  3 12  2  0  0  0  0
  4  7  1  0  0  0  0
  4 11  1  0  0  0  0
  4 12  1  0  0  0  0
  5 10  1  0  0  0  0
  5 11  2  0  0  0  0
  6 11  1  0  0  0  0
  6 29  1  0  0  0  0
  6 30  1  0  0  0  0
  7  8  1  0  0  0  0
  7 10  1  0  0  0  0
  7 21  1  0  0  0  0
  8  9  1  0  0  0  0
  8 22  1  0  0  0  0
  8 23  1  0  0  0  0
  9 13  1  0  0  0  0
  9 24  1  0  0  0  0
  9 25  1  0  0  0  0
 13 26  1  0  0  0  0
 13 27  1  0  0  0  0
 13 28  1  0  0  0  0
 14 15  1  0  0  0  0
 14 31  1  0  0  0  0
 14 32  1  0  0  0  0
 15 16  2  0  0  0  0
 15 17  1  0  0  0  0
 16 18  1  0  0  0  0
 16 33  1  0  0  0  0
 17 19  2  0  0  0  0
 17 34  1  0  0  0  0
 18 20  2  0  0  0  0
 18 35  1  0  0  0  0
 19 20  1  0  0  0  0
 19 36  1  0  0  0  0
 20 37  1  0  0  0  0
M  END
> <PUBCHEM_COMPOUND_CID>
500265
> <PUBCHEM_COMPOUND_CANONICALIZED>
1
> <PUBCHEM_CACTVS_COMPLEXITY>
403
> <PUBCHEM_CACTVS_HBOND_ACCEPTOR>
3
> <PUBCHEM_CACTVS_HBOND_DONOR>
1
> <PUBCHEM_CACTVS_ROTATABLE_BOND>
5
> <PUBCHEM_CACTVS_SUBSKEYS>
AAADceBzMAAAAAAAAAAAAAAAAAAAAQAAAAAwAAAAAAAAAAABAAAAHgAQAAAADCjhmAYzCINABACoAiFSPAACAAEgAAAJiAGICIiIZjKAuTicMAAkxwMIqAeYwCAOAAAAAAAAAAAAAAAAAAAAAAAAAAAAAA==
> <PUBCHEM_IUPAC_OPENEYE_NAME>
benzyl 2-amino-5-oxo-4-propyl-4H-imidazole-3-carboxylate
> <PUBCHEM_IUPAC_CAS_NAME>
2-amino-5-oxo-4-propyl-4H-imidazole-3-carboxylic acid (phenylmethyl) ester
> <PUBCHEM_IUPAC_NAME_MARKUP>
benzyl 2-amino-5-oxo-4-propyl-4<I>H</I>-imidazole-3-carboxylate
> <PUBCHEM_IUPAC_NAME>
benzyl 2-amino-5-oxo-4-propyl-4H-imidazole-3-carboxylate
> <PUBCHEM_IUPAC_SYSTEMATIC_NAME>
(phenylmethyl) 2-azanyl-5-oxidanylidene-4-propyl-4H-imidazole-3-carboxylate
> <PUBCHEM_IUPAC_TRADITIONAL_NAME>
2-amino-4-keto-5-propyl-2-imidazoline-1-carboxylic acid benzyl ester
> <PUBCHEM_IUPAC_INCHI>
InChI=1S/C14H17N3O3/c1-2-6-11-12(18)16-13(15)17(11)14(19)20-9-10-7-4-3-5-8-10/h3-5,7-8,11H,2,6,9H2,1H3,(H2,15,16,18)
> <PUBCHEM_IUPAC_INCHIKEY>
SGDLNVXRMQKCGB-UHFFFAOYSA-N
> <PUBCHEM_XLOGP3_AA>
2.3
> <PUBCHEM_EXACT_MASS>
275.12699141
> <PUBCHEM_MOLECULAR_FORMULA>
C14H17N3O3
> <PUBCHEM_MOLECULAR_WEIGHT>
275.30
> <PUBCHEM_OPENEYE_CAN_SMILES>
CCCC1C(=O)N=C(N1C(=O)OCC2=CC=CC=C2)N
> <PUBCHEM_OPENEYE_ISO_SMILES>
CCCC1C(=O)N=C(N1C(=O)OCC2=CC=CC=C2)N
> <PUBCHEM_CACTVS_TPSA>
85
> <PUBCHEM_MONOISOTOPIC_WEIGHT>
275.12699141
> <PUBCHEM_TOTAL_CHARGE>
0
> <PUBCHEM_HEAVY_ATOM_COUNT>
20
> <PUBCHEM_ATOM_DEF_STEREO_COUNT>
0
> <PUBCHEM_ATOM_UDEF_STEREO_COUNT>
1
> <PUBCHEM_BOND_DEF_STEREO_COUNT>
0
> <PUBCHEM_BOND_UDEF_STEREO_COUNT>
0
> <PUBCHEM_ISOTOPIC_ATOM_COUNT>
0
> <PUBCHEM_COMPONENT_COUNT>
1
> <PUBCHEM_CACTVS_TAUTO_COUNT>
-1
> <PUBCHEM_COORDINATE_TYPE>
1
5
255
> <PUBCHEM_BONDANNOTATIONS>
15  16  8
15  17  8
16  18  8
17  19  8
18  20  8
19  20  8
7  8  3
$$$$
