500264
  -OEChem-10302200282D
 83 86  0     1  0  0  0  0  0999 V2000
    9.4208    0.3004    0.0000 O   0  0  0  0  0  0  0  0  0  0  0  0
    8.9511   -1.9595    0.0000 O   0  0  0  0  0  0  0  0  0  0  0  0
   12.9509    3.3245    0.0000 O   0  0  0  0  0  0  0  0  0  0  0  0
    5.2048   -0.9201    0.0000 C   0  0  3  0  0  0  0  0  0  0  0  0
    4.3958   -1.5079    0.0000 C   0  0  3  0  0  0  0  0  0  0  0  0
    4.2912   -0.5134    0.0000 C   0  0  0  0  0  0  0  0  0  0  0  0
    6.1993   -0.8156    0.0000 C   0  0  3  0  0  0  0  0  0  0  0  0
    6.6061    0.0979    0.0000 C   0  0  3  0  0  0  0  0  0  0  0  0
    7.5842    0.3058    0.0000 C   0  0  3  0  0  0  0  0  0  0  0  0
    3.4013   -1.6125    0.0000 C   0  0  3  0  0  0  0  0  0  0  0  0
    7.6887    1.3004    0.0000 C   0  0  3  0  0  0  0  0  0  0  0  0
    6.1061    0.9640    0.0000 C   0  0  0  0  0  0  0  0  0  0  0  0
    6.7752    1.7071    0.0000 C   0  0  0  0  0  0  0  0  0  0  0  0
    4.9836   -2.3170    0.0000 C   0  0  0  0  0  0  0  0  0  0  0  0
    6.7871   -1.6246    0.0000 C   0  0  0  0  0  0  0  0  0  0  0  0
    8.5548    1.8004    0.0000 C   0  0  3  0  0  0  0  0  0  0  0  0
    7.7921   -0.6723    0.0000 C   0  0  0  0  0  0  0  0  0  0  0  0
    2.9945   -2.5260    0.0000 C   0  0  0  0  0  0  0  0  0  0  0  0
    8.5787    0.2013    0.0000 C   0  0  0  0  0  0  0  0  0  0  0  0
    2.8135   -0.8034    0.0000 C   0  0  0  0  0  0  0  0  0  0  0  0
    8.5548    2.8004    0.0000 C   0  0  0  0  0  0  0  0  0  0  0  0
    9.4208    1.3004    0.0000 C   0  0  0  0  0  0  0  0  0  0  0  0
   10.2868    1.8004    0.0000 C   0  0  3  0  0  0  0  0  0  0  0  0
    8.7432   -0.9813    0.0000 C   0  0  0  0  0  0  0  0  0  0  0  0
    2.0000   -2.6305    0.0000 C   0  0  0  0  0  0  0  0  0  0  0  0
    3.5823   -3.3350    0.0000 C   0  0  0  0  0  0  0  0  0  0  0  0
   10.2868    2.8004    0.0000 C   0  0  0  0  0  0  0  0  0  0  0  0
    9.4208    3.3004    0.0000 C   0  0  0  0  0  0  0  0  0  0  0  0
   11.1807    1.2657    0.0000 C   0  0  0  0  0  0  0  0  0  0  0  0
   10.2868    0.8004    0.0000 C   0  0  0  0  0  0  0  0  0  0  0  0
   11.1807    3.3350    0.0000 C   0  0  0  0  0  0  0  0  0  0  0  0
   12.0868    1.7796    0.0000 C   0  0  0  0  0  0  0  0  0  0  0  0
   12.0868    2.8212    0.0000 C   0  0  3  0  0  0  0  0  0  0  0  0
    5.3018   -0.3078    0.0000 H   0  0  0  0  0  0  0  0  0  0  0  0
    4.4412    0.0882    0.0000 H   0  0  0  0  0  0  0  0  0  0  0  0
    3.6728   -0.4702    0.0000 H   0  0  0  0  0  0  0  0  0  0  0  0
    6.8159   -0.7508    0.0000 H   0  0  0  0  0  0  0  0  0  0  0  0
    5.9869    0.0655    0.0000 H   0  0  0  0  0  0  0  0  0  0  0  0
    2.7846   -1.6773    0.0000 H   0  0  0  0  0  0  0  0  0  0  0  0
    7.6563    1.9195    0.0000 H   0  0  0  0  0  0  0  0  0  0  0  0
    5.6912    1.4247    0.0000 H   0  0  0  0  0  0  0  0  0  0  0  0
    5.6045    0.5995    0.0000 H   0  0  0  0  0  0  0  0  0  0  0  0
    7.0852    2.2440    0.0000 H   0  0  0  0  0  0  0  0  0  0  0  0
    6.2736    2.0715    0.0000 H   0  0  0  0  0  0  0  0  0  0  0  0
    4.4820   -2.6814    0.0000 H   0  0  0  0  0  0  0  0  0  0  0  0
    5.3480   -2.8185    0.0000 H   0  0  0  0  0  0  0  0  0  0  0  0
    5.4852   -1.9525    0.0000 H   0  0  0  0  0  0  0  0  0  0  0  0
    6.2855   -1.9891    0.0000 H   0  0  0  0  0  0  0  0  0  0  0  0
    7.1515   -2.1262    0.0000 H   0  0  0  0  0  0  0  0  0  0  0  0
    7.2887   -1.2602    0.0000 H   0  0  0  0  0  0  0  0  0  0  0  0
    8.5548    1.1804    0.0000 H   0  0  0  0  0  0  0  0  0  0  0  0
    7.1725   -0.6939    0.0000 H   0  0  0  0  0  0  0  0  0  0  0  0
    7.7058   -1.2863    0.0000 H   0  0  0  0  0  0  0  0  0  0  0  0
    2.7424   -3.0924    0.0000 H   0  0  0  0  0  0  0  0  0  0  0  0
    8.5139   -0.4153    0.0000 H   0  0  0  0  0  0  0  0  0  0  0  0
    9.1953    0.1365    0.0000 H   0  0  0  0  0  0  0  0  0  0  0  0
    8.6435    0.8179    0.0000 H   0  0  0  0  0  0  0  0  0  0  0  0
    3.3151   -0.4390    0.0000 H   0  0  0  0  0  0  0  0  0  0  0  0
    2.4490   -0.3019    0.0000 H   0  0  0  0  0  0  0  0  0  0  0  0
    2.3119   -1.1679    0.0000 H   0  0  0  0  0  0  0  0  0  0  0  0
    8.3427    3.3830    0.0000 H   0  0  0  0  0  0  0  0  0  0  0  0
    7.9442    2.6927    0.0000 H   0  0  0  0  0  0  0  0  0  0  0  0
    9.3628   -0.9597    0.0000 H   0  0  0  0  0  0  0  0  0  0  0  0
    8.8295   -0.3674    0.0000 H   0  0  0  0  0  0  0  0  0  0  0  0
    1.9352   -2.0139    0.0000 H   0  0  0  0  0  0  0  0  0  0  0  0
    1.3834   -2.6953    0.0000 H   0  0  0  0  0  0  0  0  0  0  0  0
    2.0648   -3.2471    0.0000 H   0  0  0  0  0  0  0  0  0  0  0  0
    3.0807   -3.6994    0.0000 H   0  0  0  0  0  0  0  0  0  0  0  0
    3.9467   -3.8366    0.0000 H   0  0  0  0  0  0  0  0  0  0  0  0
    4.0839   -2.9706    0.0000 H   0  0  0  0  0  0  0  0  0  0  0  0
    9.4208    3.9204    0.0000 H   0  0  0  0  0  0  0  0  0  0  0  0
   10.7762    0.7959    0.0000 H   0  0  0  0  0  0  0  0  0  0  0  0
   11.5744    0.7867    0.0000 H   0  0  0  0  0  0  0  0  0  0  0  0
   11.5744    3.8140    0.0000 H   0  0  0  0  0  0  0  0  0  0  0  0
   10.7762    3.8048    0.0000 H   0  0  0  0  0  0  0  0  0  0  0  0
    9.6668    0.8004    0.0000 H   0  0  0  0  0  0  0  0  0  0  0  0
   10.2868    0.1804    0.0000 H   0  0  0  0  0  0  0  0  0  0  0  0
   10.9068    0.8004    0.0000 H   0  0  0  0  0  0  0  0  0  0  0  0
   12.2959    1.1958    0.0000 H   0  0  0  0  0  0  0  0  0  0  0  0
   12.6977    1.8856    0.0000 H   0  0  0  0  0  0  0  0  0  0  0  0
   12.6243    2.5122    0.0000 H   0  0  0  0  0  0  0  0  0  0  0  0
    9.5407   -2.1511    0.0000 H   0  0  0  0  0  0  0  0  0  0  0  0
   13.4890    3.0166    0.0000 H   0  0  0  0  0  0  0  0  0  0  0  0
  1 22  2  0  0  0  0
  2 24  1  0  0  0  0
  2 82  1  0  0  0  0
  3 33  1  0  0  0  0
  3 83  1  0  0  0  0
  4  5  1  0  0  0  0
  4  6  1  0  0  0  0
  4  7  1  0  0  0  0
  4 34  1  0  0  0  0
  5  6  1  0  0  0  0
  5 10  1  0  0  0  0
  5 14  1  0  0  0  0
  6 35  1  0  0  0  0
  6 36  1  0  0  0  0
  7  8  1  0  0  0  0
  7 15  1  0  0  0  0
  7 37  1  0  0  0  0
  8  9  1  0  0  0  0
  8 12  1  0  0  0  0
  8 38  1  0  0  0  0
  9 11  1  0  0  0  0
  9 17  1  0  0  0  0
  9 19  1  0  0  0  0
 10 18  1  0  0  0  0
 10 20  1  0  0  0  0
 10 39  1  0  0  0  0
 11 13  1  0  0  0  0
 11 16  1  0  0  0  0
 11 40  1  0  0  0  0
 12 13  1  0  0  0  0
 12 41  1  0  0  0  0
 12 42  1  0  0  0  0
 13 43  1  0  0  0  0
 13 44  1  0  0  0  0
 14 45  1  0  0  0  0
 14 46  1  0  0  0  0
 14 47  1  0  0  0  0
 15 48  1  0  0  0  0
 15 49  1  0  0  0  0
 15 50  1  0  0  0  0
 16 21  1  0  0  0  0
 16 22  1  0  0  0  0
 16 51  1  0  0  0  0
 17 24  1  0  0  0  0
 17 52  1  0  0  0  0
 17 53  1  0  0  0  0
 18 25  1  0  0  0  0
 18 26  1  0  0  0  0
 18 54  1  0  0  0  0
 19 55  1  0  0  0  0
 19 56  1  0  0  0  0
 19 57  1  0  0  0  0
 20 58  1  0  0  0  0
 20 59  1  0  0  0  0
 20 60  1  0  0  0  0
 21 28  1  0  0  0  0
 21 61  1  0  0  0  0
 21 62  1  0  0  0  0
 22 23  1  0  0  0  0
 23 27  1  0  0  0  0
 23 29  1  0  0  0  0
 23 30  1  0  0  0  0
 24 63  1  0  0  0  0
 24 64  1  0  0  0  0
 25 65  1  0  0  0  0
 25 66  1  0  0  0  0
 25 67  1  0  0  0  0
 26 68  1  0  0  0  0
 26 69  1  0  0  0  0
 26 70  1  0  0  0  0
 27 28  2  0  0  0  0
 27 31  1  0  0  0  0
 28 71  1  0  0  0  0
 29 32  1  0  0  0  0
 29 72  1  0  0  0  0
 29 73  1  0  0  0  0
 30 76  1  0  0  0  0
 30 77  1  0  0  0  0
 30 78  1  0  0  0  0
 31 33  1  0  0  0  0
 31 74  1  0  0  0  0
 31 75  1  0  0  0  0
 32 33  1  0  0  0  0
 32 79  1  0  0  0  0
 32 80  1  0  0  0  0
 33 81  1  0  0  0  0
M  END
> <PUBCHEM_COMPOUND_CID>
500264
> <PUBCHEM_COMPOUND_CANONICALIZED>
1
> <PUBCHEM_CACTVS_COMPLEXITY>
785
> <PUBCHEM_CACTVS_HBOND_ACCEPTOR>
3
> <PUBCHEM_CACTVS_HBOND_DONOR>
2
> <PUBCHEM_CACTVS_ROTATABLE_BOND>
7
> <PUBCHEM_CACTVS_SUBSKEYS>
AAADcfB4MAAAAAAAAAAAAAAAGAAAAYAAAAAwQAAAAAAAAACAAAAAGgAACAAADxSggAICAAAAAgCIAqBSAAAAAAAgAAAACAEAAAgAEBIAAQAAQAAEwAAIAAOIzPDPgAAAAAAAAABAAAAAAAAAAQAACAAAAA==
> <PUBCHEM_IUPAC_OPENEYE_NAME>
2-[3-[1-[2-(1,2-dimethylpropyl)-2-methyl-cyclopropyl]ethyl]-2-(2-hydroxyethyl)-2-methyl-cyclopentyl]-6-hydroxy-8a-methyl-2,3,5,6,7,8-hexahydronaphthalen-1-one
> <PUBCHEM_IUPAC_CAS_NAME>
6-hydroxy-2-[2-(2-hydroxyethyl)-2-methyl-3-[1-[2-methyl-2-(3-methylbutan-2-yl)cyclopropyl]ethyl]cyclopentyl]-8a-methyl-2,3,5,6,7,8-hexahydronaphthalen-1-one
> <PUBCHEM_IUPAC_NAME_MARKUP>
6-hydroxy-2-[2-(2-hydroxyethyl)-2-methyl-3-[1-[2-methyl-2-(3-methylbutan-2-yl)cyclopropyl]ethyl]cyclopentyl]-8<I>a</I>-methyl-2,3,5,6,7,8-hexahydronaphthalen-1-one
> <PUBCHEM_IUPAC_NAME>
6-hydroxy-2-[2-(2-hydroxyethyl)-2-methyl-3-[1-[2-methyl-2-(3-methylbutan-2-yl)cyclopropyl]ethyl]cyclopentyl]-8a-methyl-2,3,5,6,7,8-hexahydronaphthalen-1-one
> <PUBCHEM_IUPAC_SYSTEMATIC_NAME>
2-[2-(2-hydroxyethyl)-2-methyl-3-[1-[2-methyl-2-(3-methylbutan-2-yl)cyclopropyl]ethyl]cyclopentyl]-8a-methyl-6-oxidanyl-2,3,5,6,7,8-hexahydronaphthalen-1-one
> <PUBCHEM_IUPAC_TRADITIONAL_NAME>
2-[3-[1-[2-(1,2-dimethylpropyl)-2-methyl-cyclopropyl]ethyl]-2-(2-hydroxyethyl)-2-methyl-cyclopentyl]-6-hydroxy-8a-methyl-2,3,5,6,7,8-hexahydronaphthalen-1-one
> <PUBCHEM_IUPAC_INCHI>
InChI=1S/C30H50O3/c1-18(2)20(4)30(7)17-26(30)19(3)24-10-11-25(29(24,6)14-15-31)23-9-8-21-16-22(32)12-13-28(21,5)27(23)33/h8,18-20,22-26,31-32H,9-17H2,1-7H3
> <PUBCHEM_IUPAC_INCHIKEY>
HEVOJXUNAUSRIF-UHFFFAOYSA-N
> <PUBCHEM_XLOGP3_AA>
6.7
> <PUBCHEM_EXACT_MASS>
458.37599545
> <PUBCHEM_MOLECULAR_FORMULA>
C30H50O3
> <PUBCHEM_MOLECULAR_WEIGHT>
458.7
> <PUBCHEM_OPENEYE_CAN_SMILES>
CC(C)C(C)C1(CC1C(C)C2CCC(C2(C)CCO)C3CC=C4CC(CCC4(C3=O)C)O)C
> <PUBCHEM_OPENEYE_ISO_SMILES>
CC(C)C(C)C1(CC1C(C)C2CCC(C2(C)CCO)C3CC=C4CC(CCC4(C3=O)C)O)C
> <PUBCHEM_CACTVS_TPSA>
57.5
> <PUBCHEM_MONOISOTOPIC_WEIGHT>
458.37599545
> <PUBCHEM_TOTAL_CHARGE>
0
> <PUBCHEM_HEAVY_ATOM_COUNT>
33
> <PUBCHEM_ATOM_DEF_STEREO_COUNT>
0
> <PUBCHEM_ATOM_UDEF_STEREO_COUNT>
10
> <PUBCHEM_BOND_DEF_STEREO_COUNT>
0
> <PUBCHEM_BOND_UDEF_STEREO_COUNT>
0
> <PUBCHEM_ISOTOPIC_ATOM_COUNT>
0
> <PUBCHEM_COMPONENT_COUNT>
1
> <PUBCHEM_CACTVS_TAUTO_COUNT>
-1
> <PUBCHEM_COORDINATE_TYPE>
1
5
255
> <PUBCHEM_BONDANNOTATIONS>
10  20  3
11  13  3
16  21  3
23  30  3
33  3  3
4  6  3
5  14  3
7  15  3
8  12  3
9  19  3
$$$$
