500225
  -OEChem-10302200282D
 78 81  0     1  0  0  0  0  0999 V2000
    7.1117   -2.4636    0.0000 O   0  0  0  0  0  0  0  0  0  0  0  0
    4.7189    2.0430    0.0000 O   0  0  0  0  0  0  0  0  0  0  0  0
    7.8556    1.8024    0.0000 O   0  0  0  0  0  0  0  0  0  0  0  0
    5.5419   -1.7316    0.0000 O   0  0  0  0  0  0  0  0  0  0  0  0
    6.4444    2.1939    0.0000 O   0  0  0  0  0  0  0  0  0  0  0  0
    7.2626   -4.1891    0.0000 C   0  0  3  0  0  0  0  0  0  0  0  0
    6.6890   -3.3699    0.0000 C   0  0  3  0  0  0  0  0  0  0  0  0
    3.7255    3.4618    0.0000 C   0  0  3  0  0  0  0  0  0  0  0  0
    6.8400   -5.0954    0.0000 C   0  0  0  0  0  0  0  0  0  0  0  0
    5.2702   -4.3634    0.0000 C   0  0  3  0  0  0  0  0  0  0  0  0
    5.6929   -3.4571    0.0000 C   0  0  0  0  0  0  0  0  0  0  0  0
    4.6318    3.0392    0.0000 C   0  0  3  0  0  0  0  0  0  0  0  0
    5.8438   -5.1825    0.0000 C   0  0  0  0  0  0  0  0  0  0  0  0
    3.6383    4.4580    0.0000 C   0  0  0  0  0  0  0  0  0  0  0  0
    5.3638    4.6090    0.0000 C   0  0  3  0  0  0  0  0  0  0  0  0
    8.2588   -4.1019    0.0000 C   0  0  0  0  0  0  0  0  0  0  0  0
    5.4509    3.6128    0.0000 C   0  0  0  0  0  0  0  0  0  0  0  0
    4.4575    5.0316    0.0000 C   0  0  0  0  0  0  0  0  0  0  0  0
    2.9063    2.8882    0.0000 C   0  0  0  0  0  0  0  0  0  0  0  0
    6.9607   -0.7381    0.0000 C   0  0  3  0  0  0  0  0  0  0  0  0
    4.2740   -4.4505    0.0000 C   0  0  0  0  0  0  0  0  0  0  0  0
    8.3334   -0.1461    0.0000 C   0  0  3  0  0  0  0  0  0  0  0  0
    6.6187    0.2016    0.0000 C   0  0  0  0  0  0  0  0  0  0  0  0
    8.5922    0.8198    0.0000 C   0  0  3  0  0  0  0  0  0  0  0  0
    6.1829    5.1825    0.0000 C   0  0  0  0  0  0  0  0  0  0  0  0
    8.8324   -4.9211    0.0000 C   0  0  0  0  0  0  0  0  0  0  0  0
    8.6814   -3.1956    0.0000 C   0  0  0  0  0  0  0  0  0  0  0  0
    6.5381   -1.6444    0.0000 C   0  0  0  0  0  0  0  0  0  0  0  0
    2.0000    3.3108    0.0000 C   0  0  0  0  0  0  0  0  0  0  0  0
    2.9935    1.8920    0.0000 C   0  0  0  0  0  0  0  0  0  0  0  0
    9.7324   -0.6549    0.0000 C   0  0  0  0  0  0  0  0  0  0  0  0
    9.9912    0.3110    0.0000 C   0  0  0  0  0  0  0  0  0  0  0  0
    5.7124    0.6242    0.0000 C   0  0  0  0  0  0  0  0  0  0  0  0
    5.6252    1.6204    0.0000 C   0  0  0  0  0  0  0  0  0  0  0  0
    7.6182   -4.6969    0.0000 H   0  0  0  0  0  0  0  0  0  0  0  0
    7.3067   -3.3159    0.0000 H   0  0  0  0  0  0  0  0  0  0  0  0
    3.1636    3.7238    0.0000 H   0  0  0  0  0  0  0  0  0  0  0  0
    6.7860   -5.7130    0.0000 H   0  0  0  0  0  0  0  0  0  0  0  0
    7.4389   -5.2558    0.0000 H   0  0  0  0  0  0  0  0  0  0  0  0
    5.0082   -4.9253    0.0000 H   0  0  0  0  0  0  0  0  0  0  0  0
    5.7469   -2.8394    0.0000 H   0  0  0  0  0  0  0  0  0  0  0  0
    5.0940   -3.2966    0.0000 H   0  0  0  0  0  0  0  0  0  0  0  0
    5.1937    2.7771    0.0000 H   0  0  0  0  0  0  0  0  0  0  0  0
    5.2819   -5.4445    0.0000 H   0  0  0  0  0  0  0  0  0  0  0  0
    6.0043   -5.7814    0.0000 H   0  0  0  0  0  0  0  0  0  0  0  0
    3.3763    5.0199    0.0000 H   0  0  0  0  0  0  0  0  0  0  0  0
    3.0394    4.2975    0.0000 H   0  0  0  0  0  0  0  0  0  0  0  0
    5.3097    5.2266    0.0000 H   0  0  0  0  0  0  0  0  0  0  0  0
    8.8765   -4.0479    0.0000 H   0  0  0  0  0  0  0  0  0  0  0  0
    5.7129    3.0508    0.0000 H   0  0  0  0  0  0  0  0  0  0  0  0
    6.0498    3.7732    0.0000 H   0  0  0  0  0  0  0  0  0  0  0  0
    4.8131    5.5394    0.0000 H   0  0  0  0  0  0  0  0  0  0  0  0
    4.0190    5.4700    0.0000 H   0  0  0  0  0  0  0  0  0  0  0  0
    2.3984    2.5326    0.0000 H   0  0  0  0  0  0  0  0  0  0  0  0
    7.3927   -1.1829    0.0000 H   0  0  0  0  0  0  0  0  0  0  0  0
    8.3515   -0.7659    0.0000 H   0  0  0  0  0  0  0  0  0  0  0  0
    4.2200   -3.8329    0.0000 H   0  0  0  0  0  0  0  0  0  0  0  0
    3.6564   -4.5046    0.0000 H   0  0  0  0  0  0  0  0  0  0  0  0
    4.3281   -5.0682    0.0000 H   0  0  0  0  0  0  0  0  0  0  0  0
    8.5782    0.2000    0.0000 H   0  0  0  0  0  0  0  0  0  0  0  0
    6.5385    4.6746    0.0000 H   0  0  0  0  0  0  0  0  0  0  0  0
    6.6908    5.5381    0.0000 H   0  0  0  0  0  0  0  0  0  0  0  0
    5.8273    5.6904    0.0000 H   0  0  0  0  0  0  0  0  0  0  0  0
    8.3245   -5.2767    0.0000 H   0  0  0  0  0  0  0  0  0  0  0  0
    9.1880   -5.4289    0.0000 H   0  0  0  0  0  0  0  0  0  0  0  0
    9.3403   -4.5654    0.0000 H   0  0  0  0  0  0  0  0  0  0  0  0
    9.2434   -3.4576    0.0000 H   0  0  0  0  0  0  0  0  0  0  0  0
    8.9435   -2.6337    0.0000 H   0  0  0  0  0  0  0  0  0  0  0  0
    8.1195   -2.9336    0.0000 H   0  0  0  0  0  0  0  0  0  0  0  0
    2.2620    3.8728    0.0000 H   0  0  0  0  0  0  0  0  0  0  0  0
    1.4381    3.5729    0.0000 H   0  0  0  0  0  0  0  0  0  0  0  0
    1.7380    2.7489    0.0000 H   0  0  0  0  0  0  0  0  0  0  0  0
    2.3758    1.8380    0.0000 H   0  0  0  0  0  0  0  0  0  0  0  0
    3.0475    1.2744    0.0000 H   0  0  0  0  0  0  0  0  0  0  0  0
    3.6111    1.9461    0.0000 H   0  0  0  0  0  0  0  0  0  0  0  0
   10.0187   -1.2049    0.0000 H   0  0  0  0  0  0  0  0  0  0  0  0
   10.5411    0.5973    0.0000 H   0  0  0  0  0  0  0  0  0  0  0  0
    5.2045    0.2686    0.0000 H   0  0  0  0  0  0  0  0  0  0  0  0
  1  7  1  0  0  0  0
  1 28  1  0  0  0  0
  2 12  1  0  0  0  0
  2 34  1  0  0  0  0
  3 22  1  0  0  0  0
  3 24  1  0  0  0  0
  4 28  2  0  0  0  0
  5 34  2  0  0  0  0
  6  7  1  0  0  0  0
  6  9  1  0  0  0  0
  6 16  1  0  0  0  0
  6 35  1  0  0  0  0
  7 11  1  0  0  0  0
  7 36  1  0  0  0  0
  8 12  1  0  0  0  0
  8 14  1  0  0  0  0
  8 19  1  0  0  0  0
  8 37  1  0  0  0  0
  9 13  1  0  0  0  0
  9 38  1  0  0  0  0
  9 39  1  0  0  0  0
 10 11  1  0  0  0  0
 10 13  1  0  0  0  0
 10 21  1  0  0  0  0
 10 40  1  0  0  0  0
 11 41  1  0  0  0  0
 11 42  1  0  0  0  0
 12 17  1  0  0  0  0
 12 43  1  0  0  0  0
 13 44  1  0  0  0  0
 13 45  1  0  0  0  0
 14 18  1  0  0  0  0
 14 46  1  0  0  0  0
 14 47  1  0  0  0  0
 15 17  1  0  0  0  0
 15 18  1  0  0  0  0
 15 25  1  0  0  0  0
 15 48  1  0  0  0  0
 16 26  1  0  0  0  0
 16 27  1  0  0  0  0
 16 49  1  0  0  0  0
 17 50  1  0  0  0  0
 17 51  1  0  0  0  0
 18 52  1  0  0  0  0
 18 53  1  0  0  0  0
 19 29  1  0  0  0  0
 19 30  1  0  0  0  0
 19 54  1  0  0  0  0
 20 22  1  0  0  0  0
 20 23  1  0  0  0  0
 20 28  1  0  0  0  0
 20 55  1  0  0  0  0
 21 57  1  0  0  0  0
 21 58  1  0  0  0  0
 21 59  1  0  0  0  0
 22 31  1  0  0  0  0
 22 56  1  0  0  0  0
 23 24  1  0  0  0  0
 23 33  2  3  0  0  0
 24 32  1  0  0  0  0
 24 60  1  0  0  0  0
 25 61  1  0  0  0  0
 25 62  1  0  0  0  0
 25 63  1  0  0  0  0
 26 64  1  0  0  0  0
 26 65  1  0  0  0  0
 26 66  1  0  0  0  0
 27 67  1  0  0  0  0
 27 68  1  0  0  0  0
 27 69  1  0  0  0  0
 29 70  1  0  0  0  0
 29 71  1  0  0  0  0
 29 72  1  0  0  0  0
 30 73  1  0  0  0  0
 30 74  1  0  0  0  0
 30 75  1  0  0  0  0
 31 32  2  0  0  0  0
 31 76  1  0  0  0  0
 32 77  1  0  0  0  0
 33 34  1  0  0  0  0
 33 78  1  0  0  0  0
M  END
> <PUBCHEM_COMPOUND_CID>
500225
> <PUBCHEM_COMPOUND_CANONICALIZED>
1
> <PUBCHEM_CACTVS_COMPLEXITY>
811
> <PUBCHEM_CACTVS_HBOND_ACCEPTOR>
5
> <PUBCHEM_CACTVS_HBOND_DONOR>
0
> <PUBCHEM_CACTVS_ROTATABLE_BOND>
8
> <PUBCHEM_CACTVS_SUBSKEYS>
AAADcfB4OAAAAAAAAAAAAAAAAAAAASIAAAAwYIAAAAAAAAAAAAAAGgAAAAAADRSggAICCAAABACIAiDSCAAAAAAgAAAICAEAAEgABBYAIQACEAAF4AAIIQPKwPAOgAAAAAAAAACAAAIAABAAAAAAAAAAAA==
> <PUBCHEM_IUPAC_OPENEYE_NAME>
(2-isopropyl-5-methyl-cyclohexyl) 3-[2-(2-isopropyl-5-methyl-cyclohexoxy)-2-oxo-ethylidene]-7-oxabicyclo[2.2.1]hept-5-ene-2-carboxylate
> <PUBCHEM_IUPAC_CAS_NAME>
3-[2-(5-methyl-2-propan-2-ylcyclohexyl)oxy-2-oxoethylidene]-7-oxabicyclo[2.2.1]hept-5-ene-2-carboxylic acid (5-methyl-2-propan-2-ylcyclohexyl) ester
> <PUBCHEM_IUPAC_NAME_MARKUP>
(5-methyl-2-propan-2-ylcyclohexyl) 3-[2-(5-methyl-2-propan-2-ylcyclohexyl)oxy-2-oxoethylidene]-7-oxabicyclo[2.2.1]hept-5-ene-2-carboxylate
> <PUBCHEM_IUPAC_NAME>
(5-methyl-2-propan-2-ylcyclohexyl) 3-[2-(5-methyl-2-propan-2-ylcyclohexyl)oxy-2-oxoethylidene]-7-oxabicyclo[2.2.1]hept-5-ene-2-carboxylate
> <PUBCHEM_IUPAC_SYSTEMATIC_NAME>
(5-methyl-2-propan-2-yl-cyclohexyl) 3-[2-(5-methyl-2-propan-2-yl-cyclohexyl)oxy-2-oxidanylidene-ethylidene]-7-oxabicyclo[2.2.1]hept-5-ene-2-carboxylate
> <PUBCHEM_IUPAC_TRADITIONAL_NAME>
3-[2-(2-isopropyl-5-methyl-cyclohexoxy)-2-keto-ethylidene]-7-oxabicyclo[2.2.1]hept-5-ene-2-carboxylic acid (2-isopropyl-5-methyl-cyclohexyl) ester
> <PUBCHEM_IUPAC_INCHI>
InChI=1S/C29H44O5/c1-16(2)20-9-7-18(5)13-25(20)33-27(30)15-22-23-11-12-24(32-23)28(22)29(31)34-26-14-19(6)8-10-21(26)17(3)4/h11-12,15-21,23-26,28H,7-10,13-14H2,1-6H3
> <PUBCHEM_IUPAC_INCHIKEY>
LFRMIUNYOKFGNU-UHFFFAOYSA-N
> <PUBCHEM_XLOGP3_AA>
6.9
> <PUBCHEM_EXACT_MASS>
472.31887450
> <PUBCHEM_MOLECULAR_FORMULA>
C29H44O5
> <PUBCHEM_MOLECULAR_WEIGHT>
472.7
> <PUBCHEM_OPENEYE_CAN_SMILES>
CC1CCC(C(C1)OC(=O)C=C2C3C=CC(C2C(=O)OC4CC(CCC4C(C)C)C)O3)C(C)C
> <PUBCHEM_OPENEYE_ISO_SMILES>
CC1CCC(C(C1)OC(=O)C=C2C3C=CC(C2C(=O)OC4CC(CCC4C(C)C)C)O3)C(C)C
> <PUBCHEM_CACTVS_TPSA>
61.8
> <PUBCHEM_MONOISOTOPIC_WEIGHT>
472.31887450
> <PUBCHEM_TOTAL_CHARGE>
0
> <PUBCHEM_HEAVY_ATOM_COUNT>
34
> <PUBCHEM_ATOM_DEF_STEREO_COUNT>
0
> <PUBCHEM_ATOM_UDEF_STEREO_COUNT>
9
> <PUBCHEM_BOND_DEF_STEREO_COUNT>
0
> <PUBCHEM_BOND_UDEF_STEREO_COUNT>
1
> <PUBCHEM_ISOTOPIC_ATOM_COUNT>
0
> <PUBCHEM_COMPONENT_COUNT>
1
> <PUBCHEM_CACTVS_TAUTO_COUNT>
-1
> <PUBCHEM_COORDINATE_TYPE>
1
5
255
> <PUBCHEM_BONDANNOTATIONS>
7  1  3
10  21  3
15  25  3
12  2  3
20  28  3
22  31  3
23  33  1
24  32  3
6  16  3
8  19  3
$$$$
