500214
  -OEChem-10302200282D
 91 96  0     1  0  0  0  0  0999 V2000
   11.6802   -2.3240    0.0000 O   0  0  0  0  0  0  0  0  0  0  0  0
    8.6838   -0.5858    0.0000 O   0  0  0  0  0  0  0  0  0  0  0  0
   11.9745   -4.0429    0.0000 O   0  0  0  0  0  0  0  0  0  0  0  0
   10.0252    0.5285    0.0000 O   0  0  0  0  0  0  0  0  0  0  0  0
   15.9267   -0.8622    0.0000 O   0  0  0  0  0  0  0  0  0  0  0  0
    5.2946    2.3609    0.0000 O   0  0  0  0  0  0  0  0  0  0  0  0
   14.2794   -0.3270    0.0000 O   0  0  0  0  0  0  0  0  0  0  0  0
    5.6547    0.6667    0.0000 O   0  0  0  0  0  0  0  0  0  0  0  0
   13.6885   -3.3302    0.0000 N   0  0  0  0  0  0  0  0  0  0  0  0
    8.5510    1.6565    0.0000 N   0  0  0  0  0  0  0  0  0  0  0  0
   14.6395   -2.0212    0.0000 N   0  0  0  0  0  0  0  0  0  0  0  0
    6.9418    1.8256    0.0000 N   0  0  0  0  0  0  0  0  0  0  0  0
   13.6885   -2.3302    0.0000 C   0  0  3  0  0  0  0  0  0  0  0  0
    7.6850    1.1565    0.0000 C   0  0  3  0  0  0  0  0  0  0  0  0
   12.6802   -2.3261    0.0000 C   0  0  3  0  0  0  0  0  0  0  0  0
    8.1855    0.2812    0.0000 C   0  0  3  0  0  0  0  0  0  0  0  0
   14.6395   -3.6392    0.0000 C   0  0  0  0  0  0  0  0  0  0  0  0
    8.3431    2.6346    0.0000 C   0  0  0  0  0  0  0  0  0  0  0  0
   15.2273   -2.8302    0.0000 C   0  0  0  0  0  0  0  0  0  0  0  0
    7.3486    2.7392    0.0000 C   0  0  0  0  0  0  0  0  0  0  0  0
   12.6802   -3.3344    0.0000 C   0  0  0  0  0  0  0  0  0  0  0  0
    9.0587    0.7854    0.0000 C   0  0  0  0  0  0  0  0  0  0  0  0
   12.6822   -1.3261    0.0000 C   0  0  0  0  0  0  0  0  0  0  0  0
    7.3185   -0.2170    0.0000 C   0  0  0  0  0  0  0  0  0  0  0  0
   15.4485   -4.2270    0.0000 C   0  0  0  0  0  0  0  0  0  0  0  0
   14.3305   -4.5903    0.0000 C   0  0  0  0  0  0  0  0  0  0  0  0
    8.4476    3.6292    0.0000 C   0  0  0  0  0  0  0  0  0  0  0  0
    9.3212    2.8426    0.0000 C   0  0  0  0  0  0  0  0  0  0  0  0
   14.9485   -1.0702    0.0000 C   0  0  0  0  0  0  0  0  0  0  0  0
    5.9637    1.6177    0.0000 C   0  0  0  0  0  0  0  0  0  0  0  0
   11.1820   -1.4570    0.0000 C   0  0  0  0  0  0  0  0  0  0  0  0
    9.6838   -0.5879    0.0000 C   0  0  0  0  0  0  0  0  0  0  0  0
   10.1820   -1.4549    0.0000 C   0  0  0  0  0  0  0  0  0  0  0  0
   16.2357    0.0888    0.0000 C   0  0  0  0  0  0  0  0  0  0  0  0
    4.3164    2.1530    0.0000 C   0  0  0  0  0  0  0  0  0  0  0  0
   17.2138    0.2967    0.0000 C   0  0  0  0  0  0  0  0  0  0  0  0
    3.6473    2.8961    0.0000 C   0  0  0  0  0  0  0  0  0  0  0  0
   17.8830   -0.4464    0.0000 C   0  0  0  0  0  0  0  0  0  0  0  0
    3.9563    3.8472    0.0000 C   0  0  0  0  0  0  0  0  0  0  0  0
   17.5229    1.2478    0.0000 C   0  0  0  0  0  0  0  0  0  0  0  0
    2.6691    2.6882    0.0000 C   0  0  0  0  0  0  0  0  0  0  0  0
   18.8611   -0.2385    0.0000 C   0  0  0  0  0  0  0  0  0  0  0  0
    3.2872    4.5903    0.0000 C   0  0  0  0  0  0  0  0  0  0  0  0
   18.5010    1.4557    0.0000 C   0  0  0  0  0  0  0  0  0  0  0  0
    2.0000    3.4313    0.0000 C   0  0  0  0  0  0  0  0  0  0  0  0
   19.1701    0.7125    0.0000 C   0  0  0  0  0  0  0  0  0  0  0  0
    2.3090    4.3824    0.0000 C   0  0  0  0  0  0  0  0  0  0  0  0
   13.5927   -1.7177    0.0000 H   0  0  0  0  0  0  0  0  0  0  0  0
    7.2024    0.7673    0.0000 H   0  0  0  0  0  0  0  0  0  0  0  0
   15.6881   -3.2451    0.0000 H   0  0  0  0  0  0  0  0  0  0  0  0
   15.6881   -2.4154    0.0000 H   0  0  0  0  0  0  0  0  0  0  0  0
    7.4775    3.3456    0.0000 H   0  0  0  0  0  0  0  0  0  0  0  0
    6.7589    2.9308    0.0000 H   0  0  0  0  0  0  0  0  0  0  0  0
   13.3022   -1.3274    0.0000 H   0  0  0  0  0  0  0  0  0  0  0  0
   12.6835   -0.7061    0.0000 H   0  0  0  0  0  0  0  0  0  0  0  0
   12.0622   -1.3248    0.0000 H   0  0  0  0  0  0  0  0  0  0  0  0
    7.0096    0.3206    0.0000 H   0  0  0  0  0  0  0  0  0  0  0  0
    6.7809   -0.5259    0.0000 H   0  0  0  0  0  0  0  0  0  0  0  0
    7.6274   -0.7546    0.0000 H   0  0  0  0  0  0  0  0  0  0  0  0
   15.0841   -4.7286    0.0000 H   0  0  0  0  0  0  0  0  0  0  0  0
   15.9501   -4.5915    0.0000 H   0  0  0  0  0  0  0  0  0  0  0  0
   15.8130   -3.7254    0.0000 H   0  0  0  0  0  0  0  0  0  0  0  0
   13.7408   -4.3987    0.0000 H   0  0  0  0  0  0  0  0  0  0  0  0
   14.1389   -5.1800    0.0000 H   0  0  0  0  0  0  0  0  0  0  0  0
   14.9202   -4.7819    0.0000 H   0  0  0  0  0  0  0  0  0  0  0  0
    9.0642    3.5644    0.0000 H   0  0  0  0  0  0  0  0  0  0  0  0
    8.5124    4.2458    0.0000 H   0  0  0  0  0  0  0  0  0  0  0  0
    7.8310    3.6940    0.0000 H   0  0  0  0  0  0  0  0  0  0  0  0
    9.4502    2.2361    0.0000 H   0  0  0  0  0  0  0  0  0  0  0  0
    9.9277    2.9715    0.0000 H   0  0  0  0  0  0  0  0  0  0  0  0
    9.1923    3.4490    0.0000 H   0  0  0  0  0  0  0  0  0  0  0  0
   11.7650   -1.2461    0.0000 H   0  0  0  0  0  0  0  0  0  0  0  0
   11.0756   -0.8462    0.0000 H   0  0  0  0  0  0  0  0  0  0  0  0
   10.2668   -0.3770    0.0000 H   0  0  0  0  0  0  0  0  0  0  0  0
    9.5773    0.0229    0.0000 H   0  0  0  0  0  0  0  0  0  0  0  0
    9.5989   -1.6658    0.0000 H   0  0  0  0  0  0  0  0  0  0  0  0
   10.2884   -2.0657    0.0000 H   0  0  0  0  0  0  0  0  0  0  0  0
   16.2141    0.7084    0.0000 H   0  0  0  0  0  0  0  0  0  0  0  0
   15.6217    0.1751    0.0000 H   0  0  0  0  0  0  0  0  0  0  0  0
    3.7906    1.8244    0.0000 H   0  0  0  0  0  0  0  0  0  0  0  0
    4.5487    1.5781    0.0000 H   0  0  0  0  0  0  0  0  0  0  0  0
   17.6914   -1.0361    0.0000 H   0  0  0  0  0  0  0  0  0  0  0  0
    4.5628    3.9761    0.0000 H   0  0  0  0  0  0  0  0  0  0  0  0
   17.1080    1.7085    0.0000 H   0  0  0  0  0  0  0  0  0  0  0  0
    2.4775    2.0985    0.0000 H   0  0  0  0  0  0  0  0  0  0  0  0
   19.2760   -0.6993    0.0000 H   0  0  0  0  0  0  0  0  0  0  0  0
    3.4788    5.1800    0.0000 H   0  0  0  0  0  0  0  0  0  0  0  0
   18.6926    2.0454    0.0000 H   0  0  0  0  0  0  0  0  0  0  0  0
    1.3936    3.3024    0.0000 H   0  0  0  0  0  0  0  0  0  0  0  0
   19.7766    0.8415    0.0000 H   0  0  0  0  0  0  0  0  0  0  0  0
    1.8942    4.8431    0.0000 H   0  0  0  0  0  0  0  0  0  0  0  0
  1 15  1  0  0  0  0
  1 31  1  0  0  0  0
  2 16  1  0  0  0  0
  2 32  1  0  0  0  0
  3 21  2  0  0  0  0
  4 22  2  0  0  0  0
  5 29  1  0  0  0  0
  5 34  1  0  0  0  0
  6 30  1  0  0  0  0
  6 35  1  0  0  0  0
  7 29  2  0  0  0  0
  8 30  2  0  0  0  0
  9 13  1  0  0  0  0
  9 17  1  0  0  0  0
  9 21  1  0  0  0  0
 10 14  1  0  0  0  0
 10 18  1  0  0  0  0
 10 22  1  0  0  0  0
 11 13  1  0  0  0  0
 11 19  1  0  0  0  0
 11 29  1  0  0  0  0
 12 14  1  0  0  0  0
 12 20  1  0  0  0  0
 12 30  1  0  0  0  0
 13 15  1  0  0  0  0
 13 48  1  0  0  0  0
 14 16  1  0  0  0  0
 14 49  1  0  0  0  0
 15 21  1  0  0  0  0
 15 23  1  0  0  0  0
 16 22  1  0  0  0  0
 16 24  1  0  0  0  0
 17 19  1  0  0  0  0
 17 25  1  0  0  0  0
 17 26  1  0  0  0  0
 18 20  1  0  0  0  0
 18 27  1  0  0  0  0
 18 28  1  0  0  0  0
 19 50  1  0  0  0  0
 19 51  1  0  0  0  0
 20 52  1  0  0  0  0
 20 53  1  0  0  0  0
 23 54  1  0  0  0  0
 23 55  1  0  0  0  0
 23 56  1  0  0  0  0
 24 57  1  0  0  0  0
 24 58  1  0  0  0  0
 24 59  1  0  0  0  0
 25 60  1  0  0  0  0
 25 61  1  0  0  0  0
 25 62  1  0  0  0  0
 26 63  1  0  0  0  0
 26 64  1  0  0  0  0
 26 65  1  0  0  0  0
 27 66  1  0  0  0  0
 27 67  1  0  0  0  0
 27 68  1  0  0  0  0
 28 69  1  0  0  0  0
 28 70  1  0  0  0  0
 28 71  1  0  0  0  0
 31 33  1  0  0  0  0
 31 72  1  0  0  0  0
 31 73  1  0  0  0  0
 32 33  1  0  0  0  0
 32 74  1  0  0  0  0
 32 75  1  0  0  0  0
 33 76  1  0  0  0  0
 33 77  1  0  0  0  0
 34 36  1  0  0  0  0
 34 78  1  0  0  0  0
 34 79  1  0  0  0  0
 35 37  1  0  0  0  0
 35 80  1  0  0  0  0
 35 81  1  0  0  0  0
 36 38  2  0  0  0  0
 36 40  1  0  0  0  0
 37 39  2  0  0  0  0
 37 41  1  0  0  0  0
 38 42  1  0  0  0  0
 38 82  1  0  0  0  0
 39 43  1  0  0  0  0
 39 83  1  0  0  0  0
 40 44  2  0  0  0  0
 40 84  1  0  0  0  0
 41 45  2  0  0  0  0
 41 85  1  0  0  0  0
 42 46  2  0  0  0  0
 42 86  1  0  0  0  0
 43 47  2  0  0  0  0
 43 87  1  0  0  0  0
 44 46  1  0  0  0  0
 44 88  1  0  0  0  0
 45 47  1  0  0  0  0
 45 89  1  0  0  0  0
 46 90  1  0  0  0  0
 47 91  1  0  0  0  0
M  END
> <PUBCHEM_COMPOUND_CID>
500214
> <PUBCHEM_COMPOUND_CANONICALIZED>
1
> <PUBCHEM_CACTVS_COMPLEXITY>
1140
> <PUBCHEM_CACTVS_HBOND_ACCEPTOR>
8
> <PUBCHEM_CACTVS_HBOND_DONOR>
0
> <PUBCHEM_CACTVS_ROTATABLE_BOND>
12
> <PUBCHEM_CACTVS_SUBSKEYS>
AAADcfB/vAAAAAAAAAAAAAAAAABYsWLAAAAwYAAABYsAAAABQAAAHgAAAAAADMzhmAYzCIMABACIAiFSGAICAAAgAAAIiAFICIiKZiqAcRyfMAAtxwOYqAeAwCAOAAAAAAAAAAAAAAAAAAAAAAAAAAAAAA==
> <PUBCHEM_IUPAC_OPENEYE_NAME>
benzyl 6-[3-[(4-benzyloxycarbonyl-2,2,6-trimethyl-7-oxo-1,4-diazabicyclo[3.2.0]heptan-6-yl)oxy]propoxy]-2,2,6-trimethyl-7-oxo-1,4-diazabicyclo[3.2.0]heptane-4-carboxylate
> <PUBCHEM_IUPAC_CAS_NAME>
2,2,6-trimethyl-7-oxo-6-[3-[(2,2,6-trimethyl-7-oxo-4-phenylmethoxycarbonyl-1,4-diazabicyclo[3.2.0]heptan-6-yl)oxy]propoxy]-1,4-diazabicyclo[3.2.0]heptane-4-carboxylic acid (phenylmethyl) ester
> <PUBCHEM_IUPAC_NAME_MARKUP>
benzyl 2,2,6-trimethyl-7-oxo-6-[3-[(2,2,6-trimethyl-7-oxo-4-phenylmethoxycarbonyl-1,4-diazabicyclo[3.2.0]heptan-6-yl)oxy]propoxy]-1,4-diazabicyclo[3.2.0]heptane-4-carboxylate
> <PUBCHEM_IUPAC_NAME>
benzyl 2,2,6-trimethyl-7-oxo-6-[3-[(2,2,6-trimethyl-7-oxo-4-phenylmethoxycarbonyl-1,4-diazabicyclo[3.2.0]heptan-6-yl)oxy]propoxy]-1,4-diazabicyclo[3.2.0]heptane-4-carboxylate
> <PUBCHEM_IUPAC_SYSTEMATIC_NAME>
(phenylmethyl) 2,2,6-trimethyl-7-oxidanylidene-6-[3-[(2,2,6-trimethyl-7-oxidanylidene-4-phenylmethoxycarbonyl-1,4-diazabicyclo[3.2.0]heptan-6-yl)oxy]propoxy]-1,4-diazabicyclo[3.2.0]heptane-4-carboxylate
> <PUBCHEM_IUPAC_TRADITIONAL_NAME>
6-[3-[(4-carbobenzoxy-7-keto-2,2,6-trimethyl-1,4-diazabicyclo[3.2.0]heptan-6-yl)oxy]propoxy]-7-keto-2,2,6-trimethyl-1,4-diazabicyclo[3.2.0]heptane-4-carboxylic acid benzyl ester
> <PUBCHEM_IUPAC_INCHI>
InChI=1S/C35H44N4O8/c1-32(2)22-36(30(42)44-20-24-14-9-7-10-15-24)26-34(5,28(40)38(26)32)46-18-13-19-47-35(6)27-37(23-33(3,4)39(27)29(35)41)31(43)45-21-25-16-11-8-12-17-25/h7-12,14-17,26-27H,13,18-23H2,1-6H3
> <PUBCHEM_IUPAC_INCHIKEY>
SQWVGUGVYZDKBN-UHFFFAOYSA-N
> <PUBCHEM_XLOGP3_AA>
3.2
> <PUBCHEM_EXACT_MASS>
648.31591437
> <PUBCHEM_MOLECULAR_FORMULA>
C35H44N4O8
> <PUBCHEM_MOLECULAR_WEIGHT>
648.7
> <PUBCHEM_OPENEYE_CAN_SMILES>
CC1(CN(C2N1C(=O)C2(C)OCCCOC3(C4N(CC(N4C3=O)(C)C)C(=O)OCC5=CC=CC=C5)C)C(=O)OCC6=CC=CC=C6)C
> <PUBCHEM_OPENEYE_ISO_SMILES>
CC1(CN(C2N1C(=O)C2(C)OCCCOC3(C4N(CC(N4C3=O)(C)C)C(=O)OCC5=CC=CC=C5)C)C(=O)OCC6=CC=CC=C6)C
> <PUBCHEM_CACTVS_TPSA>
118
> <PUBCHEM_MONOISOTOPIC_WEIGHT>
648.31591437
> <PUBCHEM_TOTAL_CHARGE>
0
> <PUBCHEM_HEAVY_ATOM_COUNT>
47
> <PUBCHEM_ATOM_DEF_STEREO_COUNT>
0
> <PUBCHEM_ATOM_UDEF_STEREO_COUNT>
4
> <PUBCHEM_BOND_DEF_STEREO_COUNT>
0
> <PUBCHEM_BOND_UDEF_STEREO_COUNT>
0
> <PUBCHEM_ISOTOPIC_ATOM_COUNT>
0
> <PUBCHEM_COMPONENT_COUNT>
1
> <PUBCHEM_CACTVS_TAUTO_COUNT>
-1
> <PUBCHEM_COORDINATE_TYPE>
1
5
255
> <PUBCHEM_BONDANNOTATIONS>
13  11  3
14  12  3
15  23  3
16  24  3
36  38  8
36  40  8
37  39  8
37  41  8
38  42  8
39  43  8
40  44  8
41  45  8
42  46  8
43  47  8
44  46  8
45  47  8
$$$$
