500204
  -OEChem-10302200282D
 49 53  0     1  0  0  0  0  0999 V2000
    4.1379    1.7180    0.0000 O   0  0  0  0  0  0  0  0  0  0  0  0
    5.3355   -0.3142    0.0000 O   0  0  0  0  0  0  0  0  0  0  0  0
    4.3447    3.3699    0.0000 O   0  0  0  0  0  0  0  0  0  0  0  0
    5.4738    1.1656    0.0000 O   0  0  0  0  0  0  0  0  0  0  0  0
    5.0958   -3.6953    0.0000 O   0  0  0  0  0  0  0  0  0  0  0  0
    3.8839    1.2054    0.0000 C   0  0  3  0  0  0  0  0  0  0  0  0
    3.0749    1.7932    0.0000 C   0  0  3  0  0  0  0  0  0  0  0  0
    3.3839    2.7443    0.0000 C   0  0  3  0  0  0  0  0  0  0  0  0
    3.7910    0.1679    0.0000 C   0  0  3  0  0  0  0  0  0  0  0  0
    4.6929    1.7932    0.0000 C   0  0  0  0  0  0  0  0  0  0  0  0
    4.3839    2.7443    0.0000 C   0  0  0  0  0  0  0  0  0  0  0  0
    2.1169    1.3843    0.0000 C   0  0  0  0  0  0  0  0  0  0  0  0
    2.8427   -0.2630    0.0000 C   0  0  3  0  0  0  0  0  0  0  0  0
    2.0000    0.3492    0.0000 C   0  0  0  0  0  0  0  0  0  0  0  0
    3.8907    2.4789    0.0000 C   0  0  0  0  0  0  0  0  0  0  0  0
    3.8025   -0.8320    0.0000 C   0  0  0  0  0  0  0  0  0  0  0  0
    2.2658    2.3810    0.0000 C   0  0  0  0  0  0  0  0  0  0  0  0
    3.0749    3.6953    0.0000 C   0  0  0  0  0  0  0  0  0  0  0  0
    4.7384    0.4879    0.0000 C   0  0  0  0  0  0  0  0  0  0  0  0
    4.7571   -1.1300    0.0000 C   0  0  3  0  0  0  0  0  0  0  0  0
    2.7420   -1.2580    0.0000 C   0  0  0  0  0  0  0  0  0  0  0  0
    5.0771   -2.0774    0.0000 C   0  0  0  0  0  0  0  0  0  0  0  0
    6.0317   -2.3754    0.0000 C   0  0  0  0  0  0  0  0  0  0  0  0
    4.4987   -2.8932    0.0000 C   0  0  0  0  0  0  0  0  0  0  0  0
    6.0432   -3.3753    0.0000 C   0  0  0  0  0  0  0  0  0  0  0  0
    5.0029    1.2563    0.0000 H   0  0  0  0  0  0  0  0  0  0  0  0
    5.2593    2.0454    0.0000 H   0  0  0  0  0  0  0  0  0  0  0  0
    4.9903    2.8732    0.0000 H   0  0  0  0  0  0  0  0  0  0  0  0
    4.3191    3.3609    0.0000 H   0  0  0  0  0  0  0  0  0  0  0  0
    1.9746    1.9877    0.0000 H   0  0  0  0  0  0  0  0  0  0  0  0
    1.4980    1.3474    0.0000 H   0  0  0  0  0  0  0  0  0  0  0  0
    3.3464   -0.6246    0.0000 H   0  0  0  0  0  0  0  0  0  0  0  0
    1.4049    0.5232    0.0000 H   0  0  0  0  0  0  0  0  0  0  0  0
    1.7268   -0.2073    0.0000 H   0  0  0  0  0  0  0  0  0  0  0  0
    3.1852   -0.7743    0.0000 H   0  0  0  0  0  0  0  0  0  0  0  0
    3.6807   -1.4399    0.0000 H   0  0  0  0  0  0  0  0  0  0  0  0
    2.6303    2.8826    0.0000 H   0  0  0  0  0  0  0  0  0  0  0  0
    1.7642    2.7454    0.0000 H   0  0  0  0  0  0  0  0  0  0  0  0
    1.9014    1.8794    0.0000 H   0  0  0  0  0  0  0  0  0  0  0  0
    3.6645    3.8869    0.0000 H   0  0  0  0  0  0  0  0  0  0  0  0
    2.8833    4.2850    0.0000 H   0  0  0  0  0  0  0  0  0  0  0  0
    2.4852    3.5037    0.0000 H   0  0  0  0  0  0  0  0  0  0  0  0
    4.3238   -1.5734    0.0000 H   0  0  0  0  0  0  0  0  0  0  0  0
    2.1252   -1.1955    0.0000 H   0  0  0  0  0  0  0  0  0  0  0  0
    2.6796   -1.8748    0.0000 H   0  0  0  0  0  0  0  0  0  0  0  0
    3.3588   -1.3204    0.0000 H   0  0  0  0  0  0  0  0  0  0  0  0
    6.5290   -2.0052    0.0000 H   0  0  0  0  0  0  0  0  0  0  0  0
    3.8788   -2.9003    0.0000 H   0  0  0  0  0  0  0  0  0  0  0  0
    6.5490   -3.7339    0.0000 H   0  0  0  0  0  0  0  0  0  0  0  0
  1  6  1  0  0  0  0
  1 15  1  0  0  0  0
  2 19  1  0  0  0  0
  2 20  1  0  0  0  0
  3 15  2  0  0  0  0
  4 19  2  0  0  0  0
  5 24  1  0  0  0  0
  5 25  1  0  0  0  0
  6  7  1  0  0  0  0
  6  9  1  0  0  0  0
  6 10  1  0  0  0  0
  7  8  1  0  0  0  0
  7 12  1  0  0  0  0
  7 17  1  0  0  0  0
  8 11  1  0  0  0  0
  8 15  1  0  0  0  0
  8 18  1  0  0  0  0
  9 13  1  0  0  0  0
  9 16  1  0  0  0  0
  9 19  1  0  0  0  0
 10 11  1  0  0  0  0
 10 26  1  0  0  0  0
 10 27  1  0  0  0  0
 11 28  1  0  0  0  0
 11 29  1  0  0  0  0
 12 14  1  0  0  0  0
 12 30  1  0  0  0  0
 12 31  1  0  0  0  0
 13 14  1  0  0  0  0
 13 21  1  0  0  0  0
 13 32  1  0  0  0  0
 14 33  1  0  0  0  0
 14 34  1  0  0  0  0
 16 20  1  0  0  0  0
 16 35  1  0  0  0  0
 16 36  1  0  0  0  0
 17 37  1  0  0  0  0
 17 38  1  0  0  0  0
 17 39  1  0  0  0  0
 18 40  1  0  0  0  0
 18 41  1  0  0  0  0
 18 42  1  0  0  0  0
 20 22  1  0  0  0  0
 20 43  1  0  0  0  0
 21 44  1  0  0  0  0
 21 45  1  0  0  0  0
 21 46  1  0  0  0  0
 22 23  1  0  0  0  0
 22 24  2  0  0  0  0
 23 25  2  0  0  0  0
 23 47  1  0  0  0  0
 24 48  1  0  0  0  0
 25 49  1  0  0  0  0
M  END
> <PUBCHEM_COMPOUND_CID>
500204
> <PUBCHEM_COMPOUND_CANONICALIZED>
1
> <PUBCHEM_CACTVS_COMPLEXITY>
661
> <PUBCHEM_CACTVS_HBOND_ACCEPTOR>
5
> <PUBCHEM_CACTVS_HBOND_DONOR>
0
> <PUBCHEM_CACTVS_ROTATABLE_BOND>
1
> <PUBCHEM_CACTVS_SUBSKEYS>
AAADceB4OAAAAAAAAAAAAAAAAAAAAaJEiAA0QAAAAAAAAGgBgAAAGgAAAAAAD1SgmAIyDIAABECIAijSiAACCAAkIAAIiAEGCMgMJxYENQqCGSCl4BEIKYPKzPDPgAAAAAAAAACAAAYAADAAAYAADAAAAA==
> <PUBCHEM_IUPAC_OPENEYE_NAME>
5'-(3-furyl)-3,6,7-trimethyl-spiro[9-oxatricyclo[5.2.2.01,6]undecane-2,3'-tetrahydrofuran]-2',8-dione
> <PUBCHEM_IUPAC_CAS_NAME>
5'-(3-furanyl)-3,6,7-trimethylspiro[9-oxatricyclo[5.2.2.01,6]undecane-2,3'-oxolane]-2',8-dione
> <PUBCHEM_IUPAC_NAME_MARKUP>
5&apos;-(furan-3-yl)-3,6,7-trimethylspiro[9-oxatricyclo[5.2.2.0<SUP>1,6</SUP>]undecane-2,3&apos;-oxolane]-2&apos;,8-dione
> <PUBCHEM_IUPAC_NAME>
5'-(furan-3-yl)-3,6,7-trimethylspiro[9-oxatricyclo[5.2.2.01,6]undecane-2,3'-oxolane]-2',8-dione
> <PUBCHEM_IUPAC_SYSTEMATIC_NAME>
5'-(furan-3-yl)-3,6,7-trimethyl-spiro[9-oxatricyclo[5.2.2.01,6]undecane-2,3'-oxolane]-2',8-dione
> <PUBCHEM_IUPAC_TRADITIONAL_NAME>
5'-(3-furyl)-3,6,7-trimethyl-spiro[9-oxatricyclo[5.2.2.01,6]undecane-2,3'-tetrahydrofuran]-2',8-quinone
> <PUBCHEM_IUPAC_INCHI>
InChI=1S/C20H24O5/c1-12-4-6-18(3)17(2)7-8-20(18,25-15(17)21)19(12)10-14(24-16(19)22)13-5-9-23-11-13/h5,9,11-12,14H,4,6-8,10H2,1-3H3
> <PUBCHEM_IUPAC_INCHIKEY>
LJUJJGHPDOTAAY-UHFFFAOYSA-N
> <PUBCHEM_XLOGP3_AA>
3.1
> <PUBCHEM_EXACT_MASS>
344.16237386
> <PUBCHEM_MOLECULAR_FORMULA>
C20H24O5
> <PUBCHEM_MOLECULAR_WEIGHT>
344.4
> <PUBCHEM_OPENEYE_CAN_SMILES>
CC1CCC2(C3(CCC2(C14CC(OC4=O)C5=COC=C5)OC3=O)C)C
> <PUBCHEM_OPENEYE_ISO_SMILES>
CC1CCC2(C3(CCC2(C14CC(OC4=O)C5=COC=C5)OC3=O)C)C
> <PUBCHEM_CACTVS_TPSA>
65.7
> <PUBCHEM_MONOISOTOPIC_WEIGHT>
344.16237386
> <PUBCHEM_TOTAL_CHARGE>
0
> <PUBCHEM_HEAVY_ATOM_COUNT>
25
> <PUBCHEM_ATOM_DEF_STEREO_COUNT>
0
> <PUBCHEM_ATOM_UDEF_STEREO_COUNT>
6
> <PUBCHEM_BOND_DEF_STEREO_COUNT>
0
> <PUBCHEM_BOND_UDEF_STEREO_COUNT>
0
> <PUBCHEM_ISOTOPIC_ATOM_COUNT>
0
> <PUBCHEM_COMPONENT_COUNT>
1
> <PUBCHEM_CACTVS_TAUTO_COUNT>
-1
> <PUBCHEM_COORDINATE_TYPE>
1
5
255
> <PUBCHEM_BONDANNOTATIONS>
13  21  3
20  22  3
22  23  8
22  24  8
23  25  8
5  24  8
5  25  8
6  10  3
7  17  3
8  18  3
9  16  3
$$$$
