500284
  -OEChem-10302200282D
 62 65  0     1  0  0  0  0  0999 V2000
    9.8080    1.3824    0.0000 O   0  0  0  0  0  0  0  0  0  0  0  0
    7.5673   -0.0817    0.0000 O   0  0  0  0  0  0  0  0  0  0  0  0
   11.6354    1.5657    0.0000 O   0  0  0  0  0  0  0  0  0  0  0  0
   13.0499    4.7279    0.0000 O   0  0  0  0  0  0  0  0  0  0  0  0
    7.9244   -1.7766    0.0000 O   0  0  0  0  0  0  0  0  0  0  0  0
    7.6138   -2.7271    0.0000 O   0  0  0  0  0  0  0  0  0  0  0  0
    6.3246   -3.8838    0.0000 O   0  0  0  0  0  0  0  0  0  0  0  0
   10.6198    2.9688    0.0000 N   0  0  0  0  0  0  0  0  0  0  0  0
    7.2700    1.8868    0.0000 N   0  0  0  0  0  0  0  0  0  0  0  0
   12.3427    3.1468    0.0000 N   0  0  0  0  0  0  0  0  0  0  0  0
    6.2781   -1.2385    0.0000 N   0  0  0  0  0  0  0  0  0  0  0  0
    6.7716    2.7536    0.0000 N   0  3  0  0  0  0  0  0  0  0  0  0
    4.6783   -4.9552    0.0000 N   0  0  0  0  0  0  0  0  0  0  0  0
    6.2730    3.6205    0.0000 N   0  5  0  0  0  0  0  0  0  0  0  0
    8.2700    1.8850    0.0000 C   0  0  3  0  0  0  0  0  0  0  0  0
    8.8564    1.0750    0.0000 C   0  0  3  0  0  0  0  0  0  0  0  0
    8.8592    2.6930    0.0000 C   0  0  0  0  0  0  0  0  0  0  0  0
    9.8098    2.3824    0.0000 C   0  0  3  0  0  0  0  0  0  0  0  0
    8.5458    0.1245    0.0000 C   0  0  0  0  0  0  0  0  0  0  0  0
   10.5170    3.9634    0.0000 C   0  0  0  0  0  0  0  0  0  0  0  0
   11.5326    2.5604    0.0000 C   0  0  0  0  0  0  0  0  0  0  0  0
   11.3270    4.5498    0.0000 C   0  0  0  0  0  0  0  0  0  0  0  0
    5.9674   -2.1890    0.0000 C   0  0  3  0  0  0  0  0  0  0  0  0
   12.2399    4.1415    0.0000 C   0  0  0  0  0  0  0  0  0  0  0  0
    4.9889   -2.3952    0.0000 C   0  0  0  0  0  0  0  0  0  0  0  0
    7.2566   -1.0323    0.0000 C   0  0  0  0  0  0  0  0  0  0  0  0
    4.6783   -3.3458    0.0000 C   0  0  0  0  0  0  0  0  0  0  0  0
   11.2242    5.5445    0.0000 C   0  0  0  0  0  0  0  0  0  0  0  0
    3.7320   -3.6505    0.0000 C   0  0  0  0  0  0  0  0  0  0  0  0
    3.7320   -4.6505    0.0000 C   0  0  0  0  0  0  0  0  0  0  0  0
    5.2619   -4.1505    0.0000 C   0  0  0  0  0  0  0  0  0  0  0  0
    6.6353   -2.9333    0.0000 C   0  0  0  0  0  0  0  0  0  0  0  0
    2.8660   -3.1505    0.0000 C   0  0  0  0  0  0  0  0  0  0  0  0
    2.8660   -5.1505    0.0000 C   0  0  0  0  0  0  0  0  0  0  0  0
    2.0000   -3.6505    0.0000 C   0  0  0  0  0  0  0  0  0  0  0  0
    2.0000   -4.6505    0.0000 C   0  0  0  0  0  0  0  0  0  0  0  0
    8.2816   -3.4714    0.0000 C   0  0  0  0  0  0  0  0  0  0  0  0
    7.9895    2.4379    0.0000 H   0  0  0  0  0  0  0  0  0  0  0  0
    9.2941    0.6358    0.0000 H   0  0  0  0  0  0  0  0  0  0  0  0
    9.1124    3.2590    0.0000 H   0  0  0  0  0  0  0  0  0  0  0  0
    8.3228    3.0040    0.0000 H   0  0  0  0  0  0  0  0  0  0  0  0
   10.3617    2.0999    0.0000 H   0  0  0  0  0  0  0  0  0  0  0  0
    8.5663   -0.4952    0.0000 H   0  0  0  0  0  0  0  0  0  0  0  0
    9.1596    0.0371    0.0000 H   0  0  0  0  0  0  0  0  0  0  0  0
    9.9510    4.2166    0.0000 H   0  0  0  0  0  0  0  0  0  0  0  0
   12.9086    2.8937    0.0000 H   0  0  0  0  0  0  0  0  0  0  0  0
    5.5534   -1.7275    0.0000 H   0  0  0  0  0  0  0  0  0  0  0  0
    4.9684   -1.7756    0.0000 H   0  0  0  0  0  0  0  0  0  0  0  0
    4.3751   -2.3079    0.0000 H   0  0  0  0  0  0  0  0  0  0  0  0
    5.8640   -0.7770    0.0000 H   0  0  0  0  0  0  0  0  0  0  0  0
   11.8409    5.6083    0.0000 H   0  0  0  0  0  0  0  0  0  0  0  0
   11.1605    6.1612    0.0000 H   0  0  0  0  0  0  0  0  0  0  0  0
   10.6075    5.4808    0.0000 H   0  0  0  0  0  0  0  0  0  0  0  0
    5.8819   -4.1505    0.0000 H   0  0  0  0  0  0  0  0  0  0  0  0
    4.8709   -5.5445    0.0000 H   0  0  0  0  0  0  0  0  0  0  0  0
    2.8660   -2.5305    0.0000 H   0  0  0  0  0  0  0  0  0  0  0  0
    2.8660   -5.7705    0.0000 H   0  0  0  0  0  0  0  0  0  0  0  0
    1.4631   -3.3405    0.0000 H   0  0  0  0  0  0  0  0  0  0  0  0
    1.4631   -4.9605    0.0000 H   0  0  0  0  0  0  0  0  0  0  0  0
    7.8202   -3.8854    0.0000 H   0  0  0  0  0  0  0  0  0  0  0  0
    8.6957   -3.9329    0.0000 H   0  0  0  0  0  0  0  0  0  0  0  0
    8.7431   -3.0573    0.0000 H   0  0  0  0  0  0  0  0  0  0  0  0
  1 16  1  0  0  0  0
  1 18  1  0  0  0  0
  2 19  1  0  0  0  0
  2 26  1  0  0  0  0
  3 21  2  0  0  0  0
  4 24  2  0  0  0  0
  5 26  2  0  0  0  0
  6 32  1  0  0  0  0
  6 37  1  0  0  0  0
  7 32  2  0  0  0  0
  8 18  1  0  0  0  0
  8 20  1  0  0  0  0
  8 21  1  0  0  0  0
  9 12  2  0  0  0  0
  9 15  1  0  0  0  0
 10 21  1  0  0  0  0
 10 24  1  0  0  0  0
 10 46  1  0  0  0  0
 11 23  1  0  0  0  0
 11 26  1  0  0  0  0
 11 50  1  0  0  0  0
 12 14  2  0  0  0  0
 13 30  1  0  0  0  0
 13 31  1  0  0  0  0
 13 55  1  0  0  0  0
 15 16  1  0  0  0  0
 15 17  1  0  0  0  0
 15 38  1  0  0  0  0
 16 19  1  0  0  0  0
 16 39  1  0  0  0  0
 17 18  1  0  0  0  0
 17 40  1  0  0  0  0
 17 41  1  0  0  0  0
 18 42  1  0  0  0  0
 19 43  1  0  0  0  0
 19 44  1  0  0  0  0
 20 22  2  0  0  0  0
 20 45  1  0  0  0  0
 22 24  1  0  0  0  0
 22 28  1  0  0  0  0
 23 25  1  0  0  0  0
 23 32  1  0  0  0  0
 23 47  1  0  0  0  0
 25 27  1  0  0  0  0
 25 48  1  0  0  0  0
 25 49  1  0  0  0  0
 27 29  1  0  0  0  0
 27 31  2  0  0  0  0
 28 51  1  0  0  0  0
 28 52  1  0  0  0  0
 28 53  1  0  0  0  0
 29 30  1  0  0  0  0
 29 33  2  0  0  0  0
 30 34  2  0  0  0  0
 31 54  1  0  0  0  0
 33 35  1  0  0  0  0
 33 56  1  0  0  0  0
 34 36  1  0  0  0  0
 34 57  1  0  0  0  0
 35 36  2  0  0  0  0
 35 58  1  0  0  0  0
 36 59  1  0  0  0  0
 37 60  1  0  0  0  0
 37 61  1  0  0  0  0
 37 62  1  0  0  0  0
M  CHG  2  12   1  14  -1
M  END
> <PUBCHEM_COMPOUND_CID>
500284
> <PUBCHEM_COMPOUND_CANONICALIZED>
1
> <PUBCHEM_CACTVS_COMPLEXITY>
998
> <PUBCHEM_CACTVS_HBOND_ACCEPTOR>
9
> <PUBCHEM_CACTVS_HBOND_DONOR>
3
> <PUBCHEM_CACTVS_ROTATABLE_BOND>
10
> <PUBCHEM_CACTVS_SUBSKEYS>
AAADceB7uAAAAAAAAAAAAAAAAAAAAWJAAAAwQAAAAAAAAFgB8AAAHgAYAAAADDzhngY/yPPJlACqAzX3XACCgCAxAiAI2aG4ZNmLIPLA0bGPIAhulyLayMe4+fqOgAAAAAACAAAAAAAAAAQAAAAAAAAAAA==
> <PUBCHEM_IUPAC_OPENEYE_NAME>
methyl 2-[[3-azido-5-(5-methyl-2,4-dioxo-pyrimidin-1-yl)tetrahydrofuran-2-yl]methoxycarbonylamino]-3-(1H-indol-3-yl)propanoate
> <PUBCHEM_IUPAC_CAS_NAME>
2-[[[3-azido-5-(5-methyl-2,4-dioxo-1-pyrimidinyl)-2-oxolanyl]methoxy-oxomethyl]amino]-3-(1H-indol-3-yl)propanoic acid methyl ester
> <PUBCHEM_IUPAC_NAME_MARKUP>
methyl 2-[[3-azido-5-(5-methyl-2,4-dioxopyrimidin-1-yl)oxolan-2-yl]methoxycarbonylamino]-3-(1<I>H</I>-indol-3-yl)propanoate
> <PUBCHEM_IUPAC_NAME>
methyl 2-[[3-azido-5-(5-methyl-2,4-dioxopyrimidin-1-yl)oxolan-2-yl]methoxycarbonylamino]-3-(1H-indol-3-yl)propanoate
> <PUBCHEM_IUPAC_SYSTEMATIC_NAME>
methyl 2-[[3-azido-5-[5-methyl-2,4-bis(oxidanylidene)pyrimidin-1-yl]oxolan-2-yl]methoxycarbonylamino]-3-(1H-indol-3-yl)propanoate
> <PUBCHEM_IUPAC_TRADITIONAL_NAME>
2-[[3-azido-5-(2,4-diketo-5-methyl-pyrimidin-1-yl)tetrahydrofuran-2-yl]methoxycarbonylamino]-3-(1H-indol-3-yl)propionic acid methyl ester
> <PUBCHEM_IUPAC_INCHI>
InChI=1S/C23H25N7O7/c1-12-10-30(22(33)27-20(12)31)19-8-16(28-29-24)18(37-19)11-36-23(34)26-17(21(32)35-2)7-13-9-25-15-6-4-3-5-14(13)15/h3-6,9-10,16-19,25H,7-8,11H2,1-2H3,(H,26,34)(H,27,31,33)
> <PUBCHEM_IUPAC_INCHIKEY>
YXWIOQXTHBGCGS-UHFFFAOYSA-N
> <PUBCHEM_XLOGP3_AA>
2.5
> <PUBCHEM_EXACT_MASS>
511.18154616
> <PUBCHEM_MOLECULAR_FORMULA>
C23H25N7O7
> <PUBCHEM_MOLECULAR_WEIGHT>
511.5
> <PUBCHEM_OPENEYE_CAN_SMILES>
CC1=CN(C(=O)NC1=O)C2CC(C(O2)COC(=O)NC(CC3=CNC4=CC=CC=C43)C(=O)OC)N=[N+]=[N-]
> <PUBCHEM_OPENEYE_ISO_SMILES>
CC1=CN(C(=O)NC1=O)C2CC(C(O2)COC(=O)NC(CC3=CNC4=CC=CC=C43)C(=O)OC)N=[N+]=[N-]
> <PUBCHEM_CACTVS_TPSA>
153
> <PUBCHEM_MONOISOTOPIC_WEIGHT>
511.18154616
> <PUBCHEM_TOTAL_CHARGE>
0
> <PUBCHEM_HEAVY_ATOM_COUNT>
37
> <PUBCHEM_ATOM_DEF_STEREO_COUNT>
0
> <PUBCHEM_ATOM_UDEF_STEREO_COUNT>
4
> <PUBCHEM_BOND_DEF_STEREO_COUNT>
0
> <PUBCHEM_BOND_UDEF_STEREO_COUNT>
0
> <PUBCHEM_ISOTOPIC_ATOM_COUNT>
0
> <PUBCHEM_COMPONENT_COUNT>
1
> <PUBCHEM_CACTVS_TAUTO_COUNT>
-1
> <PUBCHEM_COORDINATE_TYPE>
1
5
255
> <PUBCHEM_BONDANNOTATIONS>
10  21  8
10  24  8
13  30  8
13  31  8
16  19  3
20  22  8
22  24  8
23  25  3
27  29  8
27  31  8
29  30  8
29  33  8
30  34  8
33  35  8
34  36  8
35  36  8
18  8  3
8  20  8
8  21  8
15  9  3
$$$$
