500245
  -OEChem-10302200282D
 30 32  0     1  0  0  0  0  0999 V2000
    5.5443   -0.9947    0.0000 O   0  0  0  0  0  0  0  0  0  0  0  0
    3.7320    1.8100    0.0000 O   0  0  0  0  0  0  0  0  0  0  0  0
    2.0000   -1.1900    0.0000 O   0  0  0  0  0  0  0  0  0  0  0  0
    3.7320   -1.1900    0.0000 N   0  0  0  0  0  0  0  0  0  0  0  0
    2.8660    0.3100    0.0000 N   0  0  0  0  0  0  0  0  0  0  0  0
    5.5443    0.6147    0.0000 C   0  0  3  0  0  0  0  0  0  0  0  0
    6.1279   -0.1900    0.0000 C   0  0  3  0  0  0  0  0  0  0  0  0
    4.5981    0.3100    0.0000 C   0  0  0  0  0  0  0  0  0  0  0  0
    4.5981   -0.6900    0.0000 C   0  0  0  0  0  0  0  0  0  0  0  0
    5.8550    1.5652    0.0000 C   0  0  0  0  0  0  0  0  0  0  0  0
    7.1279   -0.1900    0.0000 C   0  0  0  0  0  0  0  0  0  0  0  0
    3.7320    0.8100    0.0000 C   0  0  0  0  0  0  0  0  0  0  0  0
    7.6279    0.6760    0.0000 C   0  0  0  0  0  0  0  0  0  0  0  0
    7.6279   -1.0560    0.0000 C   0  0  0  0  0  0  0  0  0  0  0  0
    2.8660   -0.6900    0.0000 C   0  0  0  0  0  0  0  0  0  0  0  0
    8.6279    0.6760    0.0000 C   0  0  0  0  0  0  0  0  0  0  0  0
    8.6279   -1.0560    0.0000 C   0  0  0  0  0  0  0  0  0  0  0  0
    9.1279   -0.1900    0.0000 C   0  0  0  0  0  0  0  0  0  0  0  0
    5.1068    1.0541    0.0000 H   0  0  0  0  0  0  0  0  0  0  0  0
    6.4096   -0.7423    0.0000 H   0  0  0  0  0  0  0  0  0  0  0  0
    6.4443    1.3726    0.0000 H   0  0  0  0  0  0  0  0  0  0  0  0
    6.0476    2.1546    0.0000 H   0  0  0  0  0  0  0  0  0  0  0  0
    5.2656    1.7579    0.0000 H   0  0  0  0  0  0  0  0  0  0  0  0
    3.7320   -1.8100    0.0000 H   0  0  0  0  0  0  0  0  0  0  0  0
    7.3179    1.2130    0.0000 H   0  0  0  0  0  0  0  0  0  0  0  0
    7.3179   -1.5930    0.0000 H   0  0  0  0  0  0  0  0  0  0  0  0
    2.3291    0.6200    0.0000 H   0  0  0  0  0  0  0  0  0  0  0  0
    8.9379    1.2130    0.0000 H   0  0  0  0  0  0  0  0  0  0  0  0
    8.9379   -1.5930    0.0000 H   0  0  0  0  0  0  0  0  0  0  0  0
    9.7479   -0.1900    0.0000 H   0  0  0  0  0  0  0  0  0  0  0  0
  1  7  1  0  0  0  0
  1  9  1  0  0  0  0
  2 12  2  0  0  0  0
  3 15  2  0  0  0  0
  4  9  1  0  0  0  0
  4 15  1  0  0  0  0
  4 24  1  0  0  0  0
  5 12  1  0  0  0  0
  5 15  1  0  0  0  0
  5 27  1  0  0  0  0
  6  7  1  0  0  0  0
  6  8  1  0  0  0  0
  6 10  1  0  0  0  0
  6 19  1  0  0  0  0
  7 11  1  0  0  0  0
  7 20  1  0  0  0  0
  8  9  2  0  0  0  0
  8 12  1  0  0  0  0
 10 21  1  0  0  0  0
 10 22  1  0  0  0  0
 10 23  1  0  0  0  0
 11 13  2  0  0  0  0
 11 14  1  0  0  0  0
 13 16  1  0  0  0  0
 13 25  1  0  0  0  0
 14 17  2  0  0  0  0
 14 26  1  0  0  0  0
 16 18  2  0  0  0  0
 16 28  1  0  0  0  0
 17 18  1  0  0  0  0
 17 29  1  0  0  0  0
 18 30  1  0  0  0  0
M  END
> <PUBCHEM_COMPOUND_CID>
500245
> <PUBCHEM_COMPOUND_CANONICALIZED>
1
> <PUBCHEM_CACTVS_COMPLEXITY>
424
> <PUBCHEM_CACTVS_HBOND_ACCEPTOR>
3
> <PUBCHEM_CACTVS_HBOND_DONOR>
2
> <PUBCHEM_CACTVS_ROTATABLE_BOND>
1
> <PUBCHEM_CACTVS_SUBSKEYS>
AAADccBzMAAAAAAAAAAAAAAAAAAAAQAAAAAwQAAAAAAAAFgBAAAAHgAQAAAADRShmAIzAILABACIAiFSUACCCAAgIAAIiAEACMmIJjKAsRiMMAAsxSMIqEe6yOCOAAAAAAAAAAAAAAAAAAAAAAAAAAAAAA==
> <PUBCHEM_IUPAC_OPENEYE_NAME>
5-methyl-6-phenyl-5,6-dihydro-1H-furo[2,3-d]pyrimidine-2,4-dione
> <PUBCHEM_IUPAC_CAS_NAME>
5-methyl-6-phenyl-5,6-dihydro-1H-furo[2,3-d]pyrimidine-2,4-dione
> <PUBCHEM_IUPAC_NAME_MARKUP>
5-methyl-6-phenyl-5,6-dihydro-1<I>H</I>-furo[2,3-d]pyrimidine-2,4-dione
> <PUBCHEM_IUPAC_NAME>
5-methyl-6-phenyl-5,6-dihydro-1H-furo[2,3-d]pyrimidine-2,4-dione
> <PUBCHEM_IUPAC_SYSTEMATIC_NAME>
5-methyl-6-phenyl-5,6-dihydro-1H-furo[2,3-d]pyrimidine-2,4-dione
> <PUBCHEM_IUPAC_TRADITIONAL_NAME>
5-methyl-6-phenyl-5,6-dihydro-1H-furo[2,3-d]pyrimidine-2,4-quinone
> <PUBCHEM_IUPAC_INCHI>
InChI=1S/C13H12N2O3/c1-7-9-11(16)14-13(17)15-12(9)18-10(7)8-5-3-2-4-6-8/h2-7,10H,1H3,(H2,14,15,16,17)
> <PUBCHEM_IUPAC_INCHIKEY>
ARKUUWRLICJLMS-UHFFFAOYSA-N
> <PUBCHEM_XLOGP3_AA>
1.1
> <PUBCHEM_EXACT_MASS>
244.08479225
> <PUBCHEM_MOLECULAR_FORMULA>
C13H12N2O3
> <PUBCHEM_MOLECULAR_WEIGHT>
244.25
> <PUBCHEM_OPENEYE_CAN_SMILES>
CC1C(OC2=C1C(=O)NC(=O)N2)C3=CC=CC=C3
> <PUBCHEM_OPENEYE_ISO_SMILES>
CC1C(OC2=C1C(=O)NC(=O)N2)C3=CC=CC=C3
> <PUBCHEM_CACTVS_TPSA>
67.4
> <PUBCHEM_MONOISOTOPIC_WEIGHT>
244.08479225
> <PUBCHEM_TOTAL_CHARGE>
0
> <PUBCHEM_HEAVY_ATOM_COUNT>
18
> <PUBCHEM_ATOM_DEF_STEREO_COUNT>
0
> <PUBCHEM_ATOM_UDEF_STEREO_COUNT>
2
> <PUBCHEM_BOND_DEF_STEREO_COUNT>
0
> <PUBCHEM_BOND_UDEF_STEREO_COUNT>
0
> <PUBCHEM_ISOTOPIC_ATOM_COUNT>
0
> <PUBCHEM_COMPONENT_COUNT>
1
> <PUBCHEM_CACTVS_TAUTO_COUNT>
-1
> <PUBCHEM_COORDINATE_TYPE>
1
5
255
> <PUBCHEM_BONDANNOTATIONS>
11  13  8
11  14  8
13  16  8
14  17  8
16  18  8
17  18  8
4  15  8
4  9  8
5  12  8
5  15  8
6  10  3
7  11  3
8  12  8
8  9  8
$$$$
