500253
  -OEChem-10302200282D
 55 59  0     1  0  0  0  0  0999 V2000
    5.0691    0.7930    0.0000 O   0  0  0  0  0  0  0  0  0  0  0  0
    8.5415    0.7930    0.0000 O   0  0  0  0  0  0  0  0  0  0  0  0
    6.8053   -3.1694    0.0000 O   0  0  0  0  0  0  0  0  0  0  0  0
    6.8053   -0.1694    0.0000 C   0  0  0  0  0  0  0  0  0  0  0  0
    7.6713   -0.6694    0.0000 C   0  0  3  0  0  0  0  0  0  0  0  0
    5.9392   -0.6694    0.0000 C   0  0  3  0  0  0  0  0  0  0  0  0
    7.6713   -1.6694    0.0000 C   0  0  0  0  0  0  0  0  0  0  0  0
    5.9392   -1.6694    0.0000 C   0  0  0  0  0  0  0  0  0  0  0  0
    5.9962    0.4184    0.0000 C   0  0  0  0  0  0  0  0  0  0  0  0
    7.6143    0.4184    0.0000 C   0  0  0  0  0  0  0  0  0  0  0  0
    6.8053   -2.1694    0.0000 C   0  0  0  0  0  0  0  0  0  0  0  0
    8.6561   -0.8431    0.0000 C   0  0  0  0  0  0  0  0  0  0  0  0
    4.9544   -0.8431    0.0000 C   0  0  0  0  0  0  0  0  0  0  0  0
    6.3053    1.3694    0.0000 C   0  0  0  0  0  0  0  0  0  0  0  0
    7.3053    1.3694    0.0000 C   0  0  0  0  0  0  0  0  0  0  0  0
    9.2989   -0.0770    0.0000 C   0  0  0  0  0  0  0  0  0  0  0  0
    4.3116   -0.0770    0.0000 C   0  0  0  0  0  0  0  0  0  0  0  0
    8.9981   -1.7828    0.0000 C   0  0  0  0  0  0  0  0  0  0  0  0
    4.6123   -1.7827    0.0000 C   0  0  0  0  0  0  0  0  0  0  0  0
    5.7706    2.2634    0.0000 C   0  0  0  0  0  0  0  0  0  0  0  0
    7.8399    2.2634    0.0000 C   0  0  0  0  0  0  0  0  0  0  0  0
    6.2844    3.1694    0.0000 C   0  0  0  0  0  0  0  0  0  0  0  0
    7.3261    3.1694    0.0000 C   0  0  0  0  0  0  0  0  0  0  0  0
   10.2837   -0.2507    0.0000 C   0  0  0  0  0  0  0  0  0  0  0  0
    3.3268   -0.2507    0.0000 C   0  0  0  0  0  0  0  0  0  0  0  0
    9.9829   -1.9564    0.0000 C   0  0  0  0  0  0  0  0  0  0  0  0
    3.6276   -1.9564    0.0000 C   0  0  0  0  0  0  0  0  0  0  0  0
   10.6257   -1.1904    0.0000 C   0  0  0  0  0  0  0  0  0  0  0  0
    2.9848   -1.1904    0.0000 C   0  0  0  0  0  0  0  0  0  0  0  0
   11.6105   -1.3640    0.0000 C   0  0  0  0  0  0  0  0  0  0  0  0
    2.0000   -1.3640    0.0000 C   0  0  0  0  0  0  0  0  0  0  0  0
    8.0698   -1.1444    0.0000 H   0  0  0  0  0  0  0  0  0  0  0  0
    5.5407   -1.1444    0.0000 H   0  0  0  0  0  0  0  0  0  0  0  0
    7.8833   -2.2520    0.0000 H   0  0  0  0  0  0  0  0  0  0  0  0
    8.2819   -1.5618    0.0000 H   0  0  0  0  0  0  0  0  0  0  0  0
    5.3286   -1.5618    0.0000 H   0  0  0  0  0  0  0  0  0  0  0  0
    5.7272   -2.2520    0.0000 H   0  0  0  0  0  0  0  0  0  0  0  0
    9.0868    0.5056    0.0000 H   0  0  0  0  0  0  0  0  0  0  0  0
    4.5237    0.5056    0.0000 H   0  0  0  0  0  0  0  0  0  0  0  0
    8.5996   -2.2577    0.0000 H   0  0  0  0  0  0  0  0  0  0  0  0
    5.0109   -2.2576    0.0000 H   0  0  0  0  0  0  0  0  0  0  0  0
    5.1506    2.2562    0.0000 H   0  0  0  0  0  0  0  0  0  0  0  0
    8.4599    2.2562    0.0000 H   0  0  0  0  0  0  0  0  0  0  0  0
    5.9724    3.7052    0.0000 H   0  0  0  0  0  0  0  0  0  0  0  0
    7.6381    3.7052    0.0000 H   0  0  0  0  0  0  0  0  0  0  0  0
   10.6822    0.2243    0.0000 H   0  0  0  0  0  0  0  0  0  0  0  0
    2.9283    0.2243    0.0000 H   0  0  0  0  0  0  0  0  0  0  0  0
   10.1950   -2.5390    0.0000 H   0  0  0  0  0  0  0  0  0  0  0  0
    3.4156   -2.5390    0.0000 H   0  0  0  0  0  0  0  0  0  0  0  0
   11.5029   -1.9746    0.0000 H   0  0  0  0  0  0  0  0  0  0  0  0
   12.2211   -1.4717    0.0000 H   0  0  0  0  0  0  0  0  0  0  0  0
   11.7182   -0.7534    0.0000 H   0  0  0  0  0  0  0  0  0  0  0  0
    1.8923   -0.7534    0.0000 H   0  0  0  0  0  0  0  0  0  0  0  0
    1.3894   -1.4717    0.0000 H   0  0  0  0  0  0  0  0  0  0  0  0
    2.1077   -1.9746    0.0000 H   0  0  0  0  0  0  0  0  0  0  0  0
  1  9  2  0  0  0  0
  2 10  2  0  0  0  0
  3 11  2  0  0  0  0
  4  5  1  0  0  0  0
  4  6  1  0  0  0  0
  4  9  1  0  0  0  0
  4 10  1  0  0  0  0
  5  7  1  0  0  0  0
  5 12  1  0  0  0  0
  5 32  1  0  0  0  0
  6  8  1  0  0  0  0
  6 13  1  0  0  0  0
  6 33  1  0  0  0  0
  7 11  1  0  0  0  0
  7 34  1  0  0  0  0
  7 35  1  0  0  0  0
  8 11  1  0  0  0  0
  8 36  1  0  0  0  0
  8 37  1  0  0  0  0
  9 14  1  0  0  0  0
 10 15  1  0  0  0  0
 12 16  2  0  0  0  0
 12 18  1  0  0  0  0
 13 17  2  0  0  0  0
 13 19  1  0  0  0  0
 14 15  1  0  0  0  0
 14 20  2  0  0  0  0
 15 21  2  0  0  0  0
 16 24  1  0  0  0  0
 16 38  1  0  0  0  0
 17 25  1  0  0  0  0
 17 39  1  0  0  0  0
 18 26  2  0  0  0  0
 18 40  1  0  0  0  0
 19 27  2  0  0  0  0
 19 41  1  0  0  0  0
 20 22  1  0  0  0  0
 20 42  1  0  0  0  0
 21 23  1  0  0  0  0
 21 43  1  0  0  0  0
 22 23  2  0  0  0  0
 22 44  1  0  0  0  0
 23 45  1  0  0  0  0
 24 28  2  0  0  0  0
 24 46  1  0  0  0  0
 25 29  2  0  0  0  0
 25 47  1  0  0  0  0
 26 28  1  0  0  0  0
 26 48  1  0  0  0  0
 27 29  1  0  0  0  0
 27 49  1  0  0  0  0
 28 30  1  0  0  0  0
 29 31  1  0  0  0  0
 30 50  1  0  0  0  0
 30 51  1  0  0  0  0
 30 52  1  0  0  0  0
 31 53  1  0  0  0  0
 31 54  1  0  0  0  0
 31 55  1  0  0  0  0
M  END
> <PUBCHEM_COMPOUND_CID>
500253
> <PUBCHEM_COMPOUND_CANONICALIZED>
1
> <PUBCHEM_CACTVS_COMPLEXITY>
663
> <PUBCHEM_CACTVS_HBOND_ACCEPTOR>
3
> <PUBCHEM_CACTVS_HBOND_DONOR>
0
> <PUBCHEM_CACTVS_ROTATABLE_BOND>
2
> <PUBCHEM_CACTVS_SUBSKEYS>
AAADceB4MAAAAAAAAAAAAAAAAAAAAYAAAAAwYMGAAAAAAGABUAAAGgAAAAAADwSAmAAyAIAAAACIAqBSAAACAAAkAAAIiAEAAMgIIDKIFRCAIQAggAAIiYcJisCvwAAAAAAQAACAAAQAACAAAQAACAAAAA==
> <PUBCHEM_IUPAC_OPENEYE_NAME>
3,5-bis(p-tolyl)spiro[cyclohexane-4,2'-indane]-1,1',3'-trione
> <PUBCHEM_IUPAC_CAS_NAME>
3,5-bis(4-methylphenyl)spiro[cyclohexane-4,2'-indene]-1,1',3'-trione
> <PUBCHEM_IUPAC_NAME_MARKUP>
3,5-bis(4-methylphenyl)spiro[cyclohexane-4,2&apos;-indene]-1,1&apos;,3&apos;-trione
> <PUBCHEM_IUPAC_NAME>
3,5-bis(4-methylphenyl)spiro[cyclohexane-4,2'-indene]-1,1',3'-trione
> <PUBCHEM_IUPAC_SYSTEMATIC_NAME>
3,5-bis(4-methylphenyl)spiro[cyclohexane-4,2'-indene]-1,1',3'-trione
> <PUBCHEM_IUPAC_TRADITIONAL_NAME>
3,5-bis(p-tolyl)spiro[cyclohexane-4,2'-indane]-1,1',3'-trione
> <PUBCHEM_IUPAC_INCHI>
InChI=1S/C28H24O3/c1-17-7-11-19(12-8-17)24-15-21(29)16-25(20-13-9-18(2)10-14-20)28(24)26(30)22-5-3-4-6-23(22)27(28)31/h3-14,24-25H,15-16H2,1-2H3
> <PUBCHEM_IUPAC_INCHIKEY>
QKTLYJCNTAJCQI-UHFFFAOYSA-N
> <PUBCHEM_XLOGP3_AA>
4.9
> <PUBCHEM_EXACT_MASS>
408.17254462
> <PUBCHEM_MOLECULAR_FORMULA>
C28H24O3
> <PUBCHEM_MOLECULAR_WEIGHT>
408.5
> <PUBCHEM_OPENEYE_CAN_SMILES>
CC1=CC=C(C=C1)C2CC(=O)CC(C23C(=O)C4=CC=CC=C4C3=O)C5=CC=C(C=C5)C
> <PUBCHEM_OPENEYE_ISO_SMILES>
CC1=CC=C(C=C1)C2CC(=O)CC(C23C(=O)C4=CC=CC=C4C3=O)C5=CC=C(C=C5)C
> <PUBCHEM_CACTVS_TPSA>
51.2
> <PUBCHEM_MONOISOTOPIC_WEIGHT>
408.17254462
> <PUBCHEM_TOTAL_CHARGE>
0
> <PUBCHEM_HEAVY_ATOM_COUNT>
31
> <PUBCHEM_ATOM_DEF_STEREO_COUNT>
0
> <PUBCHEM_ATOM_UDEF_STEREO_COUNT>
2
> <PUBCHEM_BOND_DEF_STEREO_COUNT>
0
> <PUBCHEM_BOND_UDEF_STEREO_COUNT>
0
> <PUBCHEM_ISOTOPIC_ATOM_COUNT>
0
> <PUBCHEM_COMPONENT_COUNT>
1
> <PUBCHEM_CACTVS_TAUTO_COUNT>
-1
> <PUBCHEM_COORDINATE_TYPE>
1
5
255
> <PUBCHEM_BONDANNOTATIONS>
12  16  8
12  18  8
13  17  8
13  19  8
14  15  8
14  20  8
15  21  8
16  24  8
17  25  8
18  26  8
19  27  8
20  22  8
21  23  8
22  23  8
24  28  8
25  29  8
26  28  8
27  29  8
5  12  3
6  13  3
$$$$
