500288
  -OEChem-10302200282D
 33 36  0     1  0  0  0  0  0999 V2000
    5.6536   -2.1933    0.0000 Cl  0  0  0  0  0  0  0  0  0  0  0  0
    5.8311   -0.3668    0.0000 S   0  0  0  0  0  0  0  0  0  0  0  0
    2.8476   -0.1620    0.0000 F   0  0  0  0  0  0  0  0  0  0  0  0
    4.5274    0.5770    0.0000 N   0  0  0  0  0  0  0  0  0  0  0  0
    5.0274    2.1158    0.0000 N   0  0  0  0  0  0  0  0  0  0  0  0
    4.8370   -0.3676    0.0000 C   0  0  3  0  0  0  0  0  0  0  0  0
    6.1391    0.5784    0.0000 C   0  0  3  0  0  0  0  0  0  0  0  0
    5.3364    1.1648    0.0000 C   0  0  0  0  0  0  0  0  0  0  0  0
    3.7183    1.1648    0.0000 C   0  0  0  0  0  0  0  0  0  0  0  0
    4.2506   -1.1777    0.0000 C   0  0  0  0  0  0  0  0  0  0  0  0
    4.0274    2.1158    0.0000 C   0  0  0  0  0  0  0  0  0  0  0  0
    7.0907    0.8857    0.0000 C   0  0  0  0  0  0  0  0  0  0  0  0
    2.7029    0.9325    0.0000 C   0  0  0  0  0  0  0  0  0  0  0  0
    3.3424    2.9006    0.0000 C   0  0  0  0  0  0  0  0  0  0  0  0
    4.6589   -2.0905    0.0000 C   0  0  0  0  0  0  0  0  0  0  0  0
    3.2559   -1.0749    0.0000 C   0  0  0  0  0  0  0  0  0  0  0  0
    2.0000    1.7012    0.0000 C   0  0  0  0  0  0  0  0  0  0  0  0
    2.3219    2.6918    0.0000 C   0  0  0  0  0  0  0  0  0  0  0  0
    4.0726   -2.9006    0.0000 C   0  0  0  0  0  0  0  0  0  0  0  0
    2.6695   -1.8849    0.0000 C   0  0  0  0  0  0  0  0  0  0  0  0
    3.0779   -2.7978    0.0000 C   0  0  0  0  0  0  0  0  0  0  0  0
    5.1192   -0.9197    0.0000 H   0  0  0  0  0  0  0  0  0  0  0  0
    6.5769    0.1394    0.0000 H   0  0  0  0  0  0  0  0  0  0  0  0
    7.2812    0.2958    0.0000 H   0  0  0  0  0  0  0  0  0  0  0  0
    7.6807    1.0763    0.0000 H   0  0  0  0  0  0  0  0  0  0  0  0
    6.9001    1.4757    0.0000 H   0  0  0  0  0  0  0  0  0  0  0  0
    2.5182    0.3407    0.0000 H   0  0  0  0  0  0  0  0  0  0  0  0
    3.5408    3.4880    0.0000 H   0  0  0  0  0  0  0  0  0  0  0  0
    1.3940    1.5700    0.0000 H   0  0  0  0  0  0  0  0  0  0  0  0
    1.9088    3.1542    0.0000 H   0  0  0  0  0  0  0  0  0  0  0  0
    4.3257   -3.4665    0.0000 H   0  0  0  0  0  0  0  0  0  0  0  0
    2.0528   -1.8212    0.0000 H   0  0  0  0  0  0  0  0  0  0  0  0
    2.7143   -3.3000    0.0000 H   0  0  0  0  0  0  0  0  0  0  0  0
  1 15  1  0  0  0  0
  2  6  1  0  0  0  0
  2  7  1  0  0  0  0
  3 16  1  0  0  0  0
  4  6  1  0  0  0  0
  4  8  1  0  0  0  0
  4  9  1  0  0  0  0
  5  8  2  0  0  0  0
  5 11  1  0  0  0  0
  6 10  1  0  0  0  0
  6 22  1  0  0  0  0
  7  8  1  0  0  0  0
  7 12  1  0  0  0  0
  7 23  1  0  0  0  0
  9 11  1  0  0  0  0
  9 13  2  0  0  0  0
 10 15  1  0  0  0  0
 10 16  2  0  0  0  0
 11 14  2  0  0  0  0
 12 24  1  0  0  0  0
 12 25  1  0  0  0  0
 12 26  1  0  0  0  0
 13 17  1  0  0  0  0
 13 27  1  0  0  0  0
 14 18  1  0  0  0  0
 14 28  1  0  0  0  0
 15 19  2  0  0  0  0
 16 20  1  0  0  0  0
 17 18  2  0  0  0  0
 17 29  1  0  0  0  0
 18 30  1  0  0  0  0
 19 21  1  0  0  0  0
 19 31  1  0  0  0  0
 20 21  2  0  0  0  0
 20 32  1  0  0  0  0
 21 33  1  0  0  0  0
M  END
> <PUBCHEM_COMPOUND_CID>
500288
> <PUBCHEM_COMPOUND_CANONICALIZED>
1
> <PUBCHEM_CACTVS_COMPLEXITY>
399
> <PUBCHEM_CACTVS_HBOND_ACCEPTOR>
3
> <PUBCHEM_CACTVS_HBOND_DONOR>
0
> <PUBCHEM_CACTVS_ROTATABLE_BOND>
1
> <PUBCHEM_CACTVS_SUBSKEYS>
AAADccB7AQBEAAAAAAAAAAAAAAAAAWLAAAAwYAAAAAAWAFgB9AAAHQYAAAAADArFXyyz0LcMEAigAyZiZACCgC1hF7AJ2CA4dpiIaKLhm5GUIAhogALoyCcQgAAOAAAAAAABACAAAAAAAAIAQAAAAAAAAA==
> <PUBCHEM_IUPAC_OPENEYE_NAME>
1-(2-chloro-6-fluoro-phenyl)-3-methyl-1,3-dihydrothiazolo[3,4-a]benzimidazole
> <PUBCHEM_IUPAC_CAS_NAME>
1-(2-chloro-6-fluorophenyl)-3-methyl-1,3-dihydrothiazolo[3,4-a]benzimidazole
> <PUBCHEM_IUPAC_NAME_MARKUP>
1-(2-chloro-6-fluorophenyl)-3-methyl-1,3-dihydro-[1,3]thiazolo[3,4-a]benzimidazole
> <PUBCHEM_IUPAC_NAME>
1-(2-chloro-6-fluorophenyl)-3-methyl-1,3-dihydro-[1,3]thiazolo[3,4-a]benzimidazole
> <PUBCHEM_IUPAC_SYSTEMATIC_NAME>
1-(2-chloranyl-6-fluoranyl-phenyl)-3-methyl-1,3-dihydro-[1,3]thiazolo[3,4-a]benzimidazole
> <PUBCHEM_IUPAC_TRADITIONAL_NAME>
1-(2-chloro-6-fluoro-phenyl)-3-methyl-1,3-dihydrothiazolo[3,4-a]benzimidazole
> <PUBCHEM_IUPAC_INCHI>
InChI=1S/C16H12ClFN2S/c1-9-15-19-12-7-2-3-8-13(12)20(15)16(21-9)14-10(17)5-4-6-11(14)18/h2-9,16H,1H3
> <PUBCHEM_IUPAC_INCHIKEY>
ANWLALHSVVQOAU-UHFFFAOYSA-N
> <PUBCHEM_XLOGP3_AA>
4.6
> <PUBCHEM_EXACT_MASS>
318.0393754
> <PUBCHEM_MOLECULAR_FORMULA>
C16H12ClFN2S
> <PUBCHEM_MOLECULAR_WEIGHT>
318.8
> <PUBCHEM_OPENEYE_CAN_SMILES>
CC1C2=NC3=CC=CC=C3N2C(S1)C4=C(C=CC=C4Cl)F
> <PUBCHEM_OPENEYE_ISO_SMILES>
CC1C2=NC3=CC=CC=C3N2C(S1)C4=C(C=CC=C4Cl)F
> <PUBCHEM_CACTVS_TPSA>
43.1
> <PUBCHEM_MONOISOTOPIC_WEIGHT>
318.0393754
> <PUBCHEM_TOTAL_CHARGE>
0
> <PUBCHEM_HEAVY_ATOM_COUNT>
21
> <PUBCHEM_ATOM_DEF_STEREO_COUNT>
0
> <PUBCHEM_ATOM_UDEF_STEREO_COUNT>
2
> <PUBCHEM_BOND_DEF_STEREO_COUNT>
0
> <PUBCHEM_BOND_UDEF_STEREO_COUNT>
0
> <PUBCHEM_ISOTOPIC_ATOM_COUNT>
0
> <PUBCHEM_COMPONENT_COUNT>
1
> <PUBCHEM_CACTVS_TAUTO_COUNT>
-1
> <PUBCHEM_COORDINATE_TYPE>
1
5
255
> <PUBCHEM_BONDANNOTATIONS>
10  15  8
10  16  8
11  14  8
13  17  8
14  18  8
15  19  8
16  20  8
17  18  8
19  21  8
20  21  8
4  8  8
4  9  8
5  11  8
5  8  8
6  10  3
7  12  3
9  11  8
9  13  8
$$$$
