500294
  -OEChem-10302200282D
 39 40  0     1  0  0  0  0  0999 V2000
    6.3301    1.3450    0.0000 O   0  0  0  0  0  0  0  0  0  0  0  0
    8.4530    1.1002    0.0000 O   0  0  0  0  0  0  0  0  0  0  0  0
    9.7260   -0.6550    0.0000 O   0  0  0  0  0  0  0  0  0  0  0  0
    7.1962   -1.1550    0.0000 N   0  0  3  0  0  0  0  0  0  0  0  0
    7.1962   -0.1550    0.0000 C   0  0  3  0  0  0  0  0  0  0  0  0
    6.3301    0.3450    0.0000 C   0  0  3  0  0  0  0  0  0  0  0  0
    5.4641   -0.1550    0.0000 C   0  0  3  0  0  0  0  0  0  0  0  0
    8.1424    0.1497    0.0000 C   0  0  3  0  0  0  0  0  0  0  0  0
    5.4641   -1.1550    0.0000 C   0  0  0  0  0  0  0  0  0  0  0  0
    6.3301   -1.6550    0.0000 C   0  0  0  0  0  0  0  0  0  0  0  0
    8.1424   -1.4597    0.0000 C   0  0  0  0  0  0  0  0  0  0  0  0
    8.7260   -0.6550    0.0000 C   0  0  3  0  0  0  0  0  0  0  0  0
    4.5981    0.3450    0.0000 C   0  0  0  0  0  0  0  0  0  0  0  0
    3.7320   -0.1550    0.0000 C   0  0  0  0  0  0  0  0  0  0  0  0
    2.8660    0.3450    0.0000 C   0  0  0  0  0  0  0  0  0  0  0  0
    2.0000   -0.1550    0.0000 C   0  0  0  0  0  0  0  0  0  0  0  0
    7.2618    0.4615    0.0000 H   0  0  0  0  0  0  0  0  0  0  0  0
    6.8671    0.6550    0.0000 H   0  0  0  0  0  0  0  0  0  0  0  0
    5.4641    0.4650    0.0000 H   0  0  0  0  0  0  0  0  0  0  0  0
    7.7049    0.5891    0.0000 H   0  0  0  0  0  0  0  0  0  0  0  0
    4.8535   -1.0473    0.0000 H   0  0  0  0  0  0  0  0  0  0  0  0
    5.2520   -1.7376    0.0000 H   0  0  0  0  0  0  0  0  0  0  0  0
    5.9316   -2.1300    0.0000 H   0  0  0  0  0  0  0  0  0  0  0  0
    6.7287   -2.1300    0.0000 H   0  0  0  0  0  0  0  0  0  0  0  0
    7.8913   -2.0266    0.0000 H   0  0  0  0  0  0  0  0  0  0  0  0
    8.6798   -1.7690    0.0000 H   0  0  0  0  0  0  0  0  0  0  0  0
    9.0077   -0.1027    0.0000 H   0  0  0  0  0  0  0  0  0  0  0  0
    4.9966    0.8199    0.0000 H   0  0  0  0  0  0  0  0  0  0  0  0
    4.1996    0.8199    0.0000 H   0  0  0  0  0  0  0  0  0  0  0  0
    3.3335   -0.6299    0.0000 H   0  0  0  0  0  0  0  0  0  0  0  0
    4.1306   -0.6299    0.0000 H   0  0  0  0  0  0  0  0  0  0  0  0
    5.7932    1.6550    0.0000 H   0  0  0  0  0  0  0  0  0  0  0  0
    9.0597    1.2281    0.0000 H   0  0  0  0  0  0  0  0  0  0  0  0
   10.0360   -1.1919    0.0000 H   0  0  0  0  0  0  0  0  0  0  0  0
    3.2646    0.8199    0.0000 H   0  0  0  0  0  0  0  0  0  0  0  0
    2.4675    0.8199    0.0000 H   0  0  0  0  0  0  0  0  0  0  0  0
    1.6900    0.3819    0.0000 H   0  0  0  0  0  0  0  0  0  0  0  0
    1.4631   -0.4650    0.0000 H   0  0  0  0  0  0  0  0  0  0  0  0
    2.3100   -0.6919    0.0000 H   0  0  0  0  0  0  0  0  0  0  0  0
  1  6  1  0  0  0  0
  1 32  1  0  0  0  0
  2  8  1  0  0  0  0
  2 33  1  0  0  0  0
  3 12  1  0  0  0  0
  3 34  1  0  0  0  0
  4  5  1  0  0  0  0
  4 10  1  0  0  0  0
  4 11  1  0  0  0  0
  5  6  1  0  0  0  0
  5  8  1  0  0  0  0
  5 17  1  0  0  0  0
  6  7  1  0  0  0  0
  6 18  1  0  0  0  0
  7  9  1  0  0  0  0
  7 13  1  0  0  0  0
  7 19  1  0  0  0  0
  8 12  1  0  0  0  0
  8 20  1  0  0  0  0
  9 10  1  0  0  0  0
  9 21  1  0  0  0  0
  9 22  1  0  0  0  0
 10 23  1  0  0  0  0
 10 24  1  0  0  0  0
 11 12  1  0  0  0  0
 11 25  1  0  0  0  0
 11 26  1  0  0  0  0
 12 27  1  0  0  0  0
 13 14  1  0  0  0  0
 13 28  1  0  0  0  0
 13 29  1  0  0  0  0
 14 15  1  0  0  0  0
 14 30  1  0  0  0  0
 14 31  1  0  0  0  0
 15 16  1  0  0  0  0
 15 35  1  0  0  0  0
 15 36  1  0  0  0  0
 16 37  1  0  0  0  0
 16 38  1  0  0  0  0
 16 39  1  0  0  0  0
M  END
> <PUBCHEM_COMPOUND_CID>
500294
> <PUBCHEM_COMPOUND_CANONICALIZED>
1
> <PUBCHEM_CACTVS_COMPLEXITY>
236
> <PUBCHEM_CACTVS_HBOND_ACCEPTOR>
4
> <PUBCHEM_CACTVS_HBOND_DONOR>
3
> <PUBCHEM_CACTVS_ROTATABLE_BOND>
3
> <PUBCHEM_CACTVS_SUBSKEYS>
AAADceByMAAAAAAAAAAAAAAAAAAAAWAAAAAsAAAAAAAAAFgAAAAAHgAACAAADTzhgAYCAAMAAgAAAAAAAAAAAAAAAAAAAAAIAAADEAIAgAAEQAAHAACRAAHw0PIOAAAAAAAAAAAAAAAAAAAAAAAAAAAAAA==
> <PUBCHEM_IUPAC_OPENEYE_NAME>
7-butyl-1,2,3,5,6,7,8,8a-octahydroindolizine-1,2,8-triol
> <PUBCHEM_IUPAC_CAS_NAME>
7-butyl-1,2,3,5,6,7,8,8a-octahydroindolizine-1,2,8-triol
> <PUBCHEM_IUPAC_NAME_MARKUP>
7-butyl-1,2,3,5,6,7,8,8<I>a</I>-octahydroindolizine-1,2,8-triol
> <PUBCHEM_IUPAC_NAME>
7-butyl-1,2,3,5,6,7,8,8a-octahydroindolizine-1,2,8-triol
> <PUBCHEM_IUPAC_SYSTEMATIC_NAME>
7-butyl-1,2,3,5,6,7,8,8a-octahydroindolizine-1,2,8-triol
> <PUBCHEM_IUPAC_TRADITIONAL_NAME>
7-butylindolizidine-1,2,8-triol
> <PUBCHEM_IUPAC_INCHI>
InChI=1S/C12H23NO3/c1-2-3-4-8-5-6-13-7-9(14)12(16)10(13)11(8)15/h8-12,14-16H,2-7H2,1H3
> <PUBCHEM_IUPAC_INCHIKEY>
XVUPRKGVSFXXQZ-UHFFFAOYSA-N
> <PUBCHEM_XLOGP3_AA>
0.6
> <PUBCHEM_EXACT_MASS>
229.16779360
> <PUBCHEM_MOLECULAR_FORMULA>
C12H23NO3
> <PUBCHEM_MOLECULAR_WEIGHT>
229.32
> <PUBCHEM_OPENEYE_CAN_SMILES>
CCCCC1CCN2CC(C(C2C1O)O)O
> <PUBCHEM_OPENEYE_ISO_SMILES>
CCCCC1CCN2CC(C(C2C1O)O)O
> <PUBCHEM_CACTVS_TPSA>
63.9
> <PUBCHEM_MONOISOTOPIC_WEIGHT>
229.16779360
> <PUBCHEM_TOTAL_CHARGE>
0
> <PUBCHEM_HEAVY_ATOM_COUNT>
16
> <PUBCHEM_ATOM_DEF_STEREO_COUNT>
0
> <PUBCHEM_ATOM_UDEF_STEREO_COUNT>
5
> <PUBCHEM_BOND_DEF_STEREO_COUNT>
0
> <PUBCHEM_BOND_UDEF_STEREO_COUNT>
0
> <PUBCHEM_ISOTOPIC_ATOM_COUNT>
0
> <PUBCHEM_COMPONENT_COUNT>
1
> <PUBCHEM_CACTVS_TAUTO_COUNT>
-1
> <PUBCHEM_COORDINATE_TYPE>
1
5
255
> <PUBCHEM_BONDANNOTATIONS>
6  1  3
8  2  3
12  3  3
5  4  3
7  13  3
$$$$
