500283
  -OEChem-10302200282D
 58 60  0     1  0  0  0  0  0999 V2000
    5.8858    0.5042    0.0000 O   0  0  0  0  0  0  0  0  0  0  0  0
    7.1591   -1.1514    0.0000 O   0  0  0  0  0  0  0  0  0  0  0  0
    6.8089    2.0919    0.0000 O   0  0  0  0  0  0  0  0  0  0  0  0
    5.0768    5.0919    0.0000 O   0  0  0  0  0  0  0  0  0  0  0  0
    7.3402   -2.8739    0.0000 O   0  0  0  0  0  0  0  0  0  0  0  0
    7.9280   -3.6830    0.0000 O   0  0  0  0  0  0  0  0  0  0  0  0
    9.5103   -4.3874    0.0000 O   0  0  0  0  0  0  0  0  0  0  0  0
    5.0768    2.0919    0.0000 N   0  0  0  0  0  0  0  0  0  0  0  0
    3.9890   -1.2559    0.0000 N   0  0  0  0  0  0  0  0  0  0  0  0
    5.9428    3.5919    0.0000 N   0  0  0  0  0  0  0  0  0  0  0  0
    2.9945   -1.1514    0.0000 N   0  3  0  0  0  0  0  0  0  0  0  0
    8.7414   -1.8559    0.0000 N   0  0  0  0  0  0  0  0  0  0  0  0
    2.0000   -1.0469    0.0000 N   0  5  0  0  0  0  0  0  0  0  0  0
    4.5768   -0.4469    0.0000 C   0  0  1  0  0  0  0  0  0  0  0  0
    5.5768   -0.4469    0.0000 C   0  0  2  0  0  0  0  0  0  0  0  0
    4.2678    0.5042    0.0000 C   0  0  0  0  0  0  0  0  0  0  0  0
    5.0768    1.0919    0.0000 C   0  0  2  0  0  0  0  0  0  0  0  0
    6.1646   -1.2559    0.0000 C   0  0  0  0  0  0  0  0  0  0  0  0
    4.2108    2.5919    0.0000 C   0  0  0  0  0  0  0  0  0  0  0  0
    5.9428    2.5919    0.0000 C   0  0  0  0  0  0  0  0  0  0  0  0
    4.2108    3.5919    0.0000 C   0  0  0  0  0  0  0  0  0  0  0  0
    5.0768    4.0919    0.0000 C   0  0  0  0  0  0  0  0  0  0  0  0
    7.7469   -1.9604    0.0000 C   0  0  0  0  0  0  0  0  0  0  0  0
    3.3448    4.0919    0.0000 C   0  0  0  0  0  0  0  0  0  0  0  0
    9.3292   -2.6649    0.0000 C   0  0  3  0  0  0  0  0  0  0  0  0
   10.3238   -2.5604    0.0000 C   0  0  0  0  0  0  0  0  0  0  0  0
   10.9115   -3.3694    0.0000 C   0  0  0  0  0  0  0  0  0  0  0  0
    8.9225   -3.5784    0.0000 C   0  0  0  0  0  0  0  0  0  0  0  0
   11.9061   -3.2648    0.0000 C   0  0  0  0  0  0  0  0  0  0  0  0
   10.5048   -4.2829    0.0000 C   0  0  0  0  0  0  0  0  0  0  0  0
   12.4938   -4.0739    0.0000 C   0  0  0  0  0  0  0  0  0  0  0  0
   11.0926   -5.0919    0.0000 C   0  0  0  0  0  0  0  0  0  0  0  0
   12.0871   -4.9874    0.0000 C   0  0  0  0  0  0  0  0  0  0  0  0
    7.5212   -4.5965    0.0000 C   0  0  0  0  0  0  0  0  0  0  0  0
    3.9645   -0.3499    0.0000 H   0  0  0  0  0  0  0  0  0  0  0  0
    6.1892   -0.3499    0.0000 H   0  0  0  0  0  0  0  0  0  0  0  0
    3.9578    1.0411    0.0000 H   0  0  0  0  0  0  0  0  0  0  0  0
    3.7014    0.2520    0.0000 H   0  0  0  0  0  0  0  0  0  0  0  0
    4.5244    1.3734    0.0000 H   0  0  0  0  0  0  0  0  0  0  0  0
    5.6074   -1.5277    0.0000 H   0  0  0  0  0  0  0  0  0  0  0  0
    6.3355   -1.8519    0.0000 H   0  0  0  0  0  0  0  0  0  0  0  0
    3.6739    2.2819    0.0000 H   0  0  0  0  0  0  0  0  0  0  0  0
    6.4798    3.9019    0.0000 H   0  0  0  0  0  0  0  0  0  0  0  0
    8.7126   -2.7297    0.0000 H   0  0  0  0  0  0  0  0  0  0  0  0
    3.6548    4.6289    0.0000 H   0  0  0  0  0  0  0  0  0  0  0  0
    2.8078    4.4019    0.0000 H   0  0  0  0  0  0  0  0  0  0  0  0
    3.0348    3.5550    0.0000 H   0  0  0  0  0  0  0  0  0  0  0  0
    8.9936   -1.2895    0.0000 H   0  0  0  0  0  0  0  0  0  0  0  0
   10.8810   -2.2886    0.0000 H   0  0  0  0  0  0  0  0  0  0  0  0
   10.1529   -1.9644    0.0000 H   0  0  0  0  0  0  0  0  0  0  0  0
   12.1582   -2.6984    0.0000 H   0  0  0  0  0  0  0  0  0  0  0  0
    9.8882   -4.3477    0.0000 H   0  0  0  0  0  0  0  0  0  0  0  0
   13.1104   -4.0091    0.0000 H   0  0  0  0  0  0  0  0  0  0  0  0
   10.8404   -5.6583    0.0000 H   0  0  0  0  0  0  0  0  0  0  0  0
   12.4515   -5.4890    0.0000 H   0  0  0  0  0  0  0  0  0  0  0  0
    6.9548   -4.3443    0.0000 H   0  0  0  0  0  0  0  0  0  0  0  0
    7.2691   -5.1629    0.0000 H   0  0  0  0  0  0  0  0  0  0  0  0
    8.0876   -4.8487    0.0000 H   0  0  0  0  0  0  0  0  0  0  0  0
  1 15  1  0  0  0  0
  1 17  1  0  0  0  0
  2 18  1  0  0  0  0
  2 23  1  0  0  0  0
  3 20  2  0  0  0  0
  4 22  2  0  0  0  0
  5 23  2  0  0  0  0
  6 28  1  0  0  0  0
  6 34  1  0  0  0  0
  7 28  2  0  0  0  0
 17  8  1  1  0  0  0
  8 19  1  0  0  0  0
  8 20  1  0  0  0  0
  9 11  2  0  0  0  0
 14  9  1  6  0  0  0
 10 20  1  0  0  0  0
 10 22  1  0  0  0  0
 10 43  1  0  0  0  0
 11 13  2  0  0  0  0
 12 23  1  0  0  0  0
 12 25  1  0  0  0  0
 12 48  1  0  0  0  0
 14 15  1  0  0  0  0
 14 16  1  0  0  0  0
 14 35  1  0  0  0  0
 15 18  1  1  0  0  0
 15 36  1  0  0  0  0
 16 17  1  0  0  0  0
 16 37  1  0  0  0  0
 16 38  1  0  0  0  0
 17 39  1  0  0  0  0
 18 40  1  0  0  0  0
 18 41  1  0  0  0  0
 19 21  2  0  0  0  0
 19 42  1  0  0  0  0
 21 22  1  0  0  0  0
 21 24  1  0  0  0  0
 24 45  1  0  0  0  0
 24 46  1  0  0  0  0
 24 47  1  0  0  0  0
 25 26  1  0  0  0  0
 25 28  1  0  0  0  0
 25 44  1  0  0  0  0
 26 27  1  0  0  0  0
 26 49  1  0  0  0  0
 26 50  1  0  0  0  0
 27 29  2  0  0  0  0
 27 30  1  0  0  0  0
 29 31  1  0  0  0  0
 29 51  1  0  0  0  0
 30 32  2  0  0  0  0
 30 52  1  0  0  0  0
 31 33  2  0  0  0  0
 31 53  1  0  0  0  0
 32 33  1  0  0  0  0
 32 54  1  0  0  0  0
 33 55  1  0  0  0  0
 34 56  1  0  0  0  0
 34 57  1  0  0  0  0
 34 58  1  0  0  0  0
M  CHG  2  11   1  13  -1
M  END
> <PUBCHEM_COMPOUND_CID>
500283
> <PUBCHEM_COMPOUND_CANONICALIZED>
1
> <PUBCHEM_CACTVS_COMPLEXITY>
881
> <PUBCHEM_CACTVS_HBOND_ACCEPTOR>
9
> <PUBCHEM_CACTVS_HBOND_DONOR>
2
> <PUBCHEM_CACTVS_ROTATABLE_BOND>
10
> <PUBCHEM_CACTVS_SUBSKEYS>
AAADceB7uAAAAAAAAAAAAAAAAAAAASAAAAAwQAAAAAAAAAABAAAAHgAYAAAADDzhmAYzCIPABACKAiHWWACCAAAgAAAIiIGIAMmLIDKA0TGPIAAulyIaiMe4+KqOAAAAAAAAAAAAAAAAAAAAAAAAAAAAAA==
> <PUBCHEM_IUPAC_OPENEYE_NAME>
methyl 2-[[(2R,3R,5S)-3-azido-5-(5-methyl-2,4-dioxo-pyrimidin-1-yl)tetrahydrofuran-2-yl]methoxycarbonylamino]-3-phenyl-propanoate
> <PUBCHEM_IUPAC_CAS_NAME>
2-[[[(2R,3R,5S)-3-azido-5-(5-methyl-2,4-dioxo-1-pyrimidinyl)-2-oxolanyl]methoxy-oxomethyl]amino]-3-phenylpropanoic acid methyl ester
> <PUBCHEM_IUPAC_NAME_MARKUP>
methyl 2-[[(2<I>R</I>,3<I>R</I>,5<I>S</I>)-3-azido-5-(5-methyl-2,4-dioxopyrimidin-1-yl)oxolan-2-yl]methoxycarbonylamino]-3-phenylpropanoate
> <PUBCHEM_IUPAC_NAME>
methyl 2-[[(2R,3R,5S)-3-azido-5-(5-methyl-2,4-dioxopyrimidin-1-yl)oxolan-2-yl]methoxycarbonylamino]-3-phenylpropanoate
> <PUBCHEM_IUPAC_SYSTEMATIC_NAME>
methyl 2-[[(2R,3R,5S)-3-azido-5-[5-methyl-2,4-bis(oxidanylidene)pyrimidin-1-yl]oxolan-2-yl]methoxycarbonylamino]-3-phenyl-propanoate
> <PUBCHEM_IUPAC_TRADITIONAL_NAME>
2-[[(2R,3R,5S)-3-azido-5-(2,4-diketo-5-methyl-pyrimidin-1-yl)tetrahydrofuran-2-yl]methoxycarbonylamino]-3-phenyl-propionic acid methyl ester
> <PUBCHEM_IUPAC_INCHI>
InChI=1S/C21H24N6O7/c1-12-10-27(20(30)24-18(12)28)17-9-14(25-26-22)16(34-17)11-33-21(31)23-15(19(29)32-2)8-13-6-4-3-5-7-13/h3-7,10,14-17H,8-9,11H2,1-2H3,(H,23,31)(H,24,28,30)/t14-,15?,16+,17+/m1/s1
> <PUBCHEM_IUPAC_INCHIKEY>
HTPPGALRIFVVCQ-XOJKTNQZSA-N
> <PUBCHEM_XLOGP3>
2.4
> <PUBCHEM_EXACT_MASS>
472.17064713
> <PUBCHEM_MOLECULAR_FORMULA>
C21H24N6O7
> <PUBCHEM_MOLECULAR_WEIGHT>
472.5
> <PUBCHEM_OPENEYE_CAN_SMILES>
CC1=CN(C(=O)NC1=O)C2CC(C(O2)COC(=O)NC(CC3=CC=CC=C3)C(=O)OC)N=[N+]=[N-]
> <PUBCHEM_OPENEYE_ISO_SMILES>
CC1=CN(C(=O)NC1=O)[C@@H]2C[C@H]([C@@H](O2)COC(=O)NC(CC3=CC=CC=C3)C(=O)OC)N=[N+]=[N-]
> <PUBCHEM_CACTVS_TPSA>
138
> <PUBCHEM_MONOISOTOPIC_WEIGHT>
472.17064713
> <PUBCHEM_TOTAL_CHARGE>
0
> <PUBCHEM_HEAVY_ATOM_COUNT>
34
> <PUBCHEM_ATOM_DEF_STEREO_COUNT>
3
> <PUBCHEM_ATOM_UDEF_STEREO_COUNT>
1
> <PUBCHEM_BOND_DEF_STEREO_COUNT>
0
> <PUBCHEM_BOND_UDEF_STEREO_COUNT>
0
> <PUBCHEM_ISOTOPIC_ATOM_COUNT>
0
> <PUBCHEM_COMPONENT_COUNT>
1
> <PUBCHEM_CACTVS_TAUTO_COUNT>
-1
> <PUBCHEM_COORDINATE_TYPE>
1
5
255
> <PUBCHEM_BONDANNOTATIONS>
10  20  8
10  22  8
15  18  5
19  21  8
21  22  8
25  26  3
27  29  8
27  30  8
29  31  8
30  32  8
31  33  8
32  33  8
17  8  5
8  19  8
8  20  8
14  9  6
$$$$
