500267
  -OEChem-10302200282D
 96100  0     1  0  0  0  0  0999 V2000
   11.2957    4.6679    0.0000 O   0  0  0  0  0  0  0  0  0  0  0  0
   12.3739    3.6539    0.0000 O   0  0  0  0  0  0  0  0  0  0  0  0
    9.5407   -0.2530    0.0000 O   0  0  0  0  0  0  0  0  0  0  0  0
   13.4321    1.5062    0.0000 O   0  0  0  0  0  0  0  0  0  0  0  0
    6.8671   -1.8984    0.0000 O   0  0  0  0  0  0  0  0  0  0  0  0
    5.0597   -0.8456    0.0000 O   0  0  0  0  0  0  0  0  0  0  0  0
    5.1350   -1.8984    0.0000 O   0  0  0  0  0  0  0  0  0  0  0  0
    6.8671   -3.8984    0.0000 O   0  0  0  0  0  0  0  0  0  0  0  0
    5.1350   -4.8984    0.0000 O   0  0  0  0  0  0  0  0  0  0  0  0
    3.4030   -3.8984    0.0000 O   0  0  0  0  0  0  0  0  0  0  0  0
    2.5369   -2.3984    0.0000 O   0  0  0  0  0  0  0  0  0  0  0  0
    9.5754    2.7468    0.0000 C   0  0  3  0  0  0  0  0  0  0  0  0
   10.4356    2.2368    0.0000 C   0  0  3  0  0  0  0  0  0  0  0  0
    8.7037    2.2568    0.0000 C   0  0  3  0  0  0  0  0  0  0  0  0
   11.1803    2.8953    0.0000 C   0  0  3  0  0  0  0  0  0  0  0  0
    9.7959    3.7161    0.0000 C   0  0  0  0  0  0  0  0  0  0  0  0
    8.6921    1.2569    0.0000 C   0  0  3  0  0  0  0  0  0  0  0  0
   10.7857    3.8077    0.0000 C   0  0  3  0  0  0  0  0  0  0  0  0
   10.4241    1.2369    0.0000 C   0  0  0  0  0  0  0  0  0  0  0  0
   12.1564    2.6778    0.0000 C   0  0  3  0  0  0  0  0  0  0  0  0
    8.7152    3.2568    0.0000 C   0  0  0  0  0  0  0  0  0  0  0  0
    7.8160    2.8018    0.0000 C   0  0  0  0  0  0  0  0  0  0  0  0
    9.5523    0.7469    0.0000 C   0  0  0  0  0  0  0  0  0  0  0  0
   11.2958    1.7268    0.0000 C   0  0  0  0  0  0  0  0  0  0  0  0
    7.7920    0.7326    0.0000 C   0  0  0  0  0  0  0  0  0  0  0  0
    6.9040    2.2985    0.0000 C   0  0  0  0  0  0  0  0  0  0  0  0
    8.6806    0.2570    0.0000 C   0  0  0  0  0  0  0  0  0  0  0  0
    6.8920    1.2569    0.0000 C   0  0  0  0  0  0  0  0  0  0  0  0
   13.1324    2.4603    0.0000 C   0  0  3  0  0  0  0  0  0  0  0  0
   11.9388    1.7018    0.0000 C   0  0  0  0  0  0  0  0  0  0  0  0
    7.8046   -0.3523    0.0000 C   0  0  0  0  0  0  0  0  0  0  0  0
    5.9421    0.7326    0.0000 C   0  0  0  0  0  0  0  0  0  0  0  0
   13.8088    3.1968    0.0000 C   0  0  0  0  0  0  0  0  0  0  0  0
    6.8671   -0.8984    0.0000 C   0  0  0  0  0  0  0  0  0  0  0  0
    5.9295   -0.3523    0.0000 C   0  0  0  0  0  0  0  0  0  0  0  0
    5.0839    1.2459    0.0000 C   0  0  0  0  0  0  0  0  0  0  0  0
   14.7849    2.9793    0.0000 C   0  0  0  0  0  0  0  0  0  0  0  0
    6.0010   -2.3984    0.0000 C   0  0  3  0  0  0  0  0  0  0  0  0
   15.4613    3.7158    0.0000 C   0  0  0  0  0  0  0  0  0  0  0  0
    6.0010   -3.3984    0.0000 C   0  0  3  0  0  0  0  0  0  0  0  0
    5.1350   -3.8984    0.0000 C   0  0  3  0  0  0  0  0  0  0  0  0
   16.4373    3.4983    0.0000 C   0  0  0  0  0  0  0  0  0  0  0  0
    4.2690   -2.3984    0.0000 C   0  0  3  0  0  0  0  0  0  0  0  0
   15.1616    4.6699    0.0000 C   0  0  0  0  0  0  0  0  0  0  0  0
    4.2690   -3.3984    0.0000 C   0  0  3  0  0  0  0  0  0  0  0  0
    3.4030   -1.8984    0.0000 C   0  0  0  0  0  0  0  0  0  0  0  0
    9.2370    1.9407    0.0000 H   0  0  0  0  0  0  0  0  0  0  0  0
   11.5754    3.3731    0.0000 H   0  0  0  0  0  0  0  0  0  0  0  0
    9.8039    4.3361    0.0000 H   0  0  0  0  0  0  0  0  0  0  0  0
    9.1802    3.7893    0.0000 H   0  0  0  0  0  0  0  0  0  0  0  0
   10.4543    4.3317    0.0000 H   0  0  0  0  0  0  0  0  0  0  0  0
   10.6294    0.6519    0.0000 H   0  0  0  0  0  0  0  0  0  0  0  0
   11.0358    1.3375    0.0000 H   0  0  0  0  0  0  0  0  0  0  0  0
    9.0314    3.7901    0.0000 H   0  0  0  0  0  0  0  0  0  0  0  0
    8.1819    3.5730    0.0000 H   0  0  0  0  0  0  0  0  0  0  0  0
    8.3991    2.7235    0.0000 H   0  0  0  0  0  0  0  0  0  0  0  0
    8.2260    3.2669    0.0000 H   0  0  0  0  0  0  0  0  0  0  0  0
    7.4279    3.2854    0.0000 H   0  0  0  0  0  0  0  0  0  0  0  0
   10.9796    1.1935    0.0000 H   0  0  0  0  0  0  0  0  0  0  0  0
   11.8291    1.4106    0.0000 H   0  0  0  0  0  0  0  0  0  0  0  0
   11.6120    2.2602    0.0000 H   0  0  0  0  0  0  0  0  0  0  0  0
    6.7017    2.8845    0.0000 H   0  0  0  0  0  0  0  0  0  0  0  0
    6.2920    2.1994    0.0000 H   0  0  0  0  0  0  0  0  0  0  0  0
    8.0606    0.2641    0.0000 H   0  0  0  0  0  0  0  0  0  0  0  0
    8.6734   -0.3630    0.0000 H   0  0  0  0  0  0  0  0  0  0  0  0
    9.3005    0.2498    0.0000 H   0  0  0  0  0  0  0  0  0  0  0  0
   12.7130    2.0036    0.0000 H   0  0  0  0  0  0  0  0  0  0  0  0
   11.3337    1.8366    0.0000 H   0  0  0  0  0  0  0  0  0  0  0  0
   11.8040    1.0966    0.0000 H   0  0  0  0  0  0  0  0  0  0  0  0
   12.5440    1.5669    0.0000 H   0  0  0  0  0  0  0  0  0  0  0  0
   10.9919    5.2084    0.0000 H   0  0  0  0  0  0  0  0  0  0  0  0
   12.9654    3.8396    0.0000 H   0  0  0  0  0  0  0  0  0  0  0  0
    8.3439   -0.6582    0.0000 H   0  0  0  0  0  0  0  0  0  0  0  0
   13.6230    3.7883    0.0000 H   0  0  0  0  0  0  0  0  0  0  0  0
   14.0372    1.3714    0.0000 H   0  0  0  0  0  0  0  0  0  0  0  0
    5.4021    1.7780    0.0000 H   0  0  0  0  0  0  0  0  0  0  0  0
    4.5518    1.5642    0.0000 H   0  0  0  0  0  0  0  0  0  0  0  0
    4.7656    0.7138    0.0000 H   0  0  0  0  0  0  0  0  0  0  0  0
   14.9707    2.3878    0.0000 H   0  0  0  0  0  0  0  0  0  0  0  0
    4.5251   -0.5315    0.0000 H   0  0  0  0  0  0  0  0  0  0  0  0
    6.0010   -1.7784    0.0000 H   0  0  0  0  0  0  0  0  0  0  0  0
    6.0010   -4.0184    0.0000 H   0  0  0  0  0  0  0  0  0  0  0  0
    4.5981   -4.2084    0.0000 H   0  0  0  0  0  0  0  0  0  0  0  0
   16.3025    2.8932    0.0000 H   0  0  0  0  0  0  0  0  0  0  0  0
   17.0425    3.3634    0.0000 H   0  0  0  0  0  0  0  0  0  0  0  0
   16.5722    4.1035    0.0000 H   0  0  0  0  0  0  0  0  0  0  0  0
    4.2690   -1.7784    0.0000 H   0  0  0  0  0  0  0  0  0  0  0  0
    4.2690   -4.0184    0.0000 H   0  0  0  0  0  0  0  0  0  0  0  0
   15.5810    5.1265    0.0000 H   0  0  0  0  0  0  0  0  0  0  0  0
   14.5565    4.8047    0.0000 H   0  0  0  0  0  0  0  0  0  0  0  0
    6.8671   -4.5184    0.0000 H   0  0  0  0  0  0  0  0  0  0  0  0
    3.8015   -1.4235    0.0000 H   0  0  0  0  0  0  0  0  0  0  0  0
    3.0044   -1.4235    0.0000 H   0  0  0  0  0  0  0  0  0  0  0  0
    4.5981   -5.2084    0.0000 H   0  0  0  0  0  0  0  0  0  0  0  0
    3.4030   -4.5184    0.0000 H   0  0  0  0  0  0  0  0  0  0  0  0
    2.0000   -2.0884    0.0000 H   0  0  0  0  0  0  0  0  0  0  0  0
  1 18  1  0  0  0  0
  1 71  1  0  0  0  0
  2 20  1  0  0  0  0
  2 72  1  0  0  0  0
  3 23  2  0  0  0  0
  4 29  1  0  0  0  0
  4 75  1  0  0  0  0
  5 34  1  0  0  0  0
  5 38  1  0  0  0  0
  6 35  1  0  0  0  0
  6 80  1  0  0  0  0
  7 38  1  0  0  0  0
  7 43  1  0  0  0  0
  8 40  1  0  0  0  0
  8 91  1  0  0  0  0
  9 41  1  0  0  0  0
  9 94  1  0  0  0  0
 10 45  1  0  0  0  0
 10 95  1  0  0  0  0
 11 46  1  0  0  0  0
 11 96  1  0  0  0  0
 12 13  1  0  0  0  0
 12 14  1  0  0  0  0
 12 16  1  0  0  0  0
 12 21  1  0  0  0  0
 13 15  1  0  0  0  0
 13 19  1  0  0  0  0
 13 24  1  0  0  0  0
 14 17  1  0  0  0  0
 14 22  1  0  0  0  0
 14 47  1  0  0  0  0
 15 18  1  0  0  0  0
 15 20  1  0  0  0  0
 15 48  1  0  0  0  0
 16 18  1  0  0  0  0
 16 49  1  0  0  0  0
 16 50  1  0  0  0  0
 17 23  1  0  0  0  0
 17 25  1  0  0  0  0
 17 27  1  0  0  0  0
 18 51  1  0  0  0  0
 19 23  1  0  0  0  0
 19 52  1  0  0  0  0
 19 53  1  0  0  0  0
 20 29  1  0  0  0  0
 20 30  1  0  0  0  0
 21 54  1  0  0  0  0
 21 55  1  0  0  0  0
 21 56  1  0  0  0  0
 22 26  1  0  0  0  0
 22 57  1  0  0  0  0
 22 58  1  0  0  0  0
 24 59  1  0  0  0  0
 24 60  1  0  0  0  0
 24 61  1  0  0  0  0
 25 28  1  0  0  0  0
 25 31  2  0  0  0  0
 26 28  1  0  0  0  0
 26 62  1  0  0  0  0
 26 63  1  0  0  0  0
 27 64  1  0  0  0  0
 27 65  1  0  0  0  0
 27 66  1  0  0  0  0
 28 32  2  0  0  0  0
 29 33  1  0  0  0  0
 29 67  1  0  0  0  0
 30 68  1  0  0  0  0
 30 69  1  0  0  0  0
 30 70  1  0  0  0  0
 31 34  1  0  0  0  0
 31 73  1  0  0  0  0
 32 35  1  0  0  0  0
 32 36  1  0  0  0  0
 33 37  2  3  0  0  0
 33 74  1  0  0  0  0
 34 35  2  0  0  0  0
 36 76  1  0  0  0  0
 36 77  1  0  0  0  0
 36 78  1  0  0  0  0
 37 39  1  0  0  0  0
 37 79  1  0  0  0  0
 38 40  1  0  0  0  0
 38 81  1  0  0  0  0
 39 42  1  0  0  0  0
 39 44  2  0  0  0  0
 40 41  1  0  0  0  0
 40 82  1  0  0  0  0
 41 45  1  0  0  0  0
 41 83  1  0  0  0  0
 42 84  1  0  0  0  0
 42 85  1  0  0  0  0
 42 86  1  0  0  0  0
 43 45  1  0  0  0  0
 43 46  1  0  0  0  0
 43 87  1  0  0  0  0
 44 89  1  0  0  0  0
 44 90  1  0  0  0  0
 45 88  1  0  0  0  0
 46 92  1  0  0  0  0
 46 93  1  0  0  0  0
M  END
> <PUBCHEM_COMPOUND_CID>
500267
> <PUBCHEM_COMPOUND_CANONICALIZED>
1
> <PUBCHEM_CACTVS_COMPLEXITY>
1210
> <PUBCHEM_CACTVS_HBOND_ACCEPTOR>
11
> <PUBCHEM_CACTVS_HBOND_DONOR>
8
> <PUBCHEM_CACTVS_ROTATABLE_BOND>
7
> <PUBCHEM_CACTVS_SUBSKEYS>
AAADcfB8PAAAAAAAAAAAAAAAAAAAAYAAAAA0YMEAAAAAAGDBAAAAGgAACAAAD1SwmAMyDoAABgCIAqBSAAACCAAgIAAIiAEGiIgdNjKGNRqieCOlwBEPuAfI7PzPoAADAAAYQADAAAYAADCAAYAADAAAAA==
> <PUBCHEM_IUPAC_OPENEYE_NAME>
17-(1,2-dihydroxy-1,5-dimethyl-hexa-3,5-dienyl)-3,16-dihydroxy-4,9,13,14-tetramethyl-2-[3,4,5-trihydroxy-6-(hydroxymethyl)tetrahydropyran-2-yl]oxy-7,8,12,15,16,17-hexahydro-6H-cyclopenta[a]phenanthren-11-one
> <PUBCHEM_IUPAC_CAS_NAME>
17-(2,3-dihydroxy-6-methylhepta-4,6-dien-2-yl)-3,16-dihydroxy-4,9,13,14-tetramethyl-2-[[3,4,5-trihydroxy-6-(hydroxymethyl)-2-oxanyl]oxy]-7,8,12,15,16,17-hexahydro-6H-cyclopenta[a]phenanthren-11-one
> <PUBCHEM_IUPAC_NAME_MARKUP>
17-(2,3-dihydroxy-6-methylhepta-4,6-dien-2-yl)-3,16-dihydroxy-4,9,13,14-tetramethyl-2-[3,4,5-trihydroxy-6-(hydroxymethyl)oxan-2-yl]oxy-7,8,12,15,16,17-hexahydro-6<I>H</I>-cyclopenta[a]phenanthren-11-one
> <PUBCHEM_IUPAC_NAME>
17-(2,3-dihydroxy-6-methylhepta-4,6-dien-2-yl)-3,16-dihydroxy-4,9,13,14-tetramethyl-2-[3,4,5-trihydroxy-6-(hydroxymethyl)oxan-2-yl]oxy-7,8,12,15,16,17-hexahydro-6H-cyclopenta[a]phenanthren-11-one
> <PUBCHEM_IUPAC_SYSTEMATIC_NAME>
2-[6-(hydroxymethyl)-3,4,5-tris(oxidanyl)oxan-2-yl]oxy-4,9,13,14-tetramethyl-17-[6-methyl-2,3-bis(oxidanyl)hepta-4,6-dien-2-yl]-3,16-bis(oxidanyl)-7,8,12,15,16,17-hexahydro-6H-cyclopenta[a]phenanthren-11-one
> <PUBCHEM_IUPAC_TRADITIONAL_NAME>
17-(1,2-dihydroxy-1,5-dimethyl-hexa-3,5-dienyl)-3,16-dihydroxy-4,9,13,14-tetramethyl-2-(3,4,5-trihydroxy-6-methylol-tetrahydropyran-2-yl)oxy-7,8,12,15,16,17-hexahydro-6H-cyclopenta[a]phenanthren-11-one
> <PUBCHEM_IUPAC_INCHI>
InChI=1S/C35H50O11/c1-16(2)8-11-24(38)35(7,44)30-20(37)13-32(4)23-10-9-18-17(3)26(40)21(12-19(18)34(23,6)25(39)14-33(30,32)5)45-31-29(43)28(42)27(41)22(15-36)46-31/h8,11-12,20,22-24,27-31,36-38,40-44H,1,9-10,13-15H2,2-7H3
> <PUBCHEM_IUPAC_INCHIKEY>
LGFDUXHZEFIFMU-UHFFFAOYSA-N
> <PUBCHEM_XLOGP3_AA>
2.9
> <PUBCHEM_EXACT_MASS>
646.33531241
> <PUBCHEM_MOLECULAR_FORMULA>
C35H50O11
> <PUBCHEM_MOLECULAR_WEIGHT>
646.8
> <PUBCHEM_OPENEYE_CAN_SMILES>
CC1=C2CCC3C4(CC(C(C4(CC(=O)C3(C2=CC(=C1O)OC5C(C(C(C(O5)CO)O)O)O)C)C)C(C)(C(C=CC(=C)C)O)O)O)C
> <PUBCHEM_OPENEYE_ISO_SMILES>
CC1=C2CCC3C4(CC(C(C4(CC(=O)C3(C2=CC(=C1O)OC5C(C(C(C(O5)CO)O)O)O)C)C)C(C)(C(C=CC(=C)C)O)O)O)C
> <PUBCHEM_CACTVS_TPSA>
197
> <PUBCHEM_MONOISOTOPIC_WEIGHT>
646.33531241
> <PUBCHEM_TOTAL_CHARGE>
0
> <PUBCHEM_HEAVY_ATOM_COUNT>
46
> <PUBCHEM_ATOM_DEF_STEREO_COUNT>
0
> <PUBCHEM_ATOM_UDEF_STEREO_COUNT>
13
> <PUBCHEM_BOND_DEF_STEREO_COUNT>
0
> <PUBCHEM_BOND_UDEF_STEREO_COUNT>
1
> <PUBCHEM_ISOTOPIC_ATOM_COUNT>
0
> <PUBCHEM_COMPONENT_COUNT>
1
> <PUBCHEM_CACTVS_TAUTO_COUNT>
-1
> <PUBCHEM_COORDINATE_TYPE>
1
5
255
> <PUBCHEM_BONDANNOTATIONS>
18  1  3
45  10  3
12  21  3
13  24  3
14  22  3
15  20  3
17  27  3
20  2  3
25  28  8
25  31  8
28  32  8
31  34  8
32  35  8
33  37  1
34  35  8
29  4  3
43  46  3
38  5  3
40  8  3
41  9  3
$$$$
