500212
  -OEChem-10302200282D
 51 54  0     1  0  0  0  0  0999 V2000
    5.2361    0.7762    0.0000 S   0  0  0  0  0  0  0  0  0  0  0  0
    8.2833   -0.1040    0.0000 O   0  0  0  0  0  0  0  0  0  0  0  0
    6.6360   -0.6392    0.0000 O   0  0  0  0  0  0  0  0  0  0  0  0
    4.6483    1.5853    0.0000 O   0  0  0  0  0  0  0  0  0  0  0  0
    5.8238   -0.0328    0.0000 O   0  0  0  0  0  0  0  0  0  0  0  0
    6.0451    1.3640    0.0000 N   0  0  3  0  0  0  0  0  0  0  0  0
    9.5434   -2.3640    0.0000 C   0  0  3  0  0  0  0  0  0  0  0  0
    9.5434   -1.3640    0.0000 C   0  0  3  0  0  0  0  0  0  0  0  0
    8.5923   -1.0550    0.0000 C   0  0  3  0  0  0  0  0  0  0  0  0
    8.5923   -2.6730    0.0000 C   0  0  0  0  0  0  0  0  0  0  0  0
    8.0045   -1.8640    0.0000 C   0  0  0  0  0  0  0  0  0  0  0  0
   10.4896   -2.6688    0.0000 C   0  0  0  0  0  0  0  0  0  0  0  0
   10.4896   -1.0593    0.0000 C   0  0  0  0  0  0  0  0  0  0  0  0
   11.0732   -1.8640    0.0000 C   0  0  0  0  0  0  0  0  0  0  0  0
    6.9961    1.0550    0.0000 C   0  0  3  0  0  0  0  0  0  0  0  0
    7.5839    1.8640    0.0000 C   0  0  0  0  0  0  0  0  0  0  0  0
    7.3052    0.1040    0.0000 C   0  0  0  0  0  0  0  0  0  0  0  0
    6.9961    2.6730    0.0000 C   0  0  0  0  0  0  0  0  0  0  0  0
    6.0451    2.3640    0.0000 C   0  0  0  0  0  0  0  0  0  0  0  0
    4.4271    0.1885    0.0000 C   0  0  0  0  0  0  0  0  0  0  0  0
    3.5135    0.5952    0.0000 C   0  0  0  0  0  0  0  0  0  0  0  0
    4.5316   -0.8061    0.0000 C   0  0  0  0  0  0  0  0  0  0  0  0
    2.7045    0.0074    0.0000 C   0  0  0  0  0  0  0  0  0  0  0  0
    3.7226   -1.3938    0.0000 C   0  0  0  0  0  0  0  0  0  0  0  0
    2.8090   -0.9871    0.0000 C   0  0  0  0  0  0  0  0  0  0  0  0
    2.0000   -1.5749    0.0000 C   0  0  0  0  0  0  0  0  0  0  0  0
    9.5442   -2.9840    0.0000 H   0  0  0  0  0  0  0  0  0  0  0  0
    9.5442   -0.7440    0.0000 H   0  0  0  0  0  0  0  0  0  0  0  0
    9.0307   -0.6166    0.0000 H   0  0  0  0  0  0  0  0  0  0  0  0
    8.0554   -2.9830    0.0000 H   0  0  0  0  0  0  0  0  0  0  0  0
    8.8445   -3.2394    0.0000 H   0  0  0  0  0  0  0  0  0  0  0  0
    7.5438   -1.4492    0.0000 H   0  0  0  0  0  0  0  0  0  0  0  0
    7.5438   -2.2789    0.0000 H   0  0  0  0  0  0  0  0  0  0  0  0
   10.2386   -3.2357    0.0000 H   0  0  0  0  0  0  0  0  0  0  0  0
   11.0270   -2.9780    0.0000 H   0  0  0  0  0  0  0  0  0  0  0  0
   10.6822   -0.4700    0.0000 H   0  0  0  0  0  0  0  0  0  0  0  0
   11.6932   -1.8640    0.0000 H   0  0  0  0  0  0  0  0  0  0  0  0
    6.5577    0.6166    0.0000 H   0  0  0  0  0  0  0  0  0  0  0  0
    8.0447    1.4492    0.0000 H   0  0  0  0  0  0  0  0  0  0  0  0
    8.0447    2.2789    0.0000 H   0  0  0  0  0  0  0  0  0  0  0  0
    7.5331    2.9830    0.0000 H   0  0  0  0  0  0  0  0  0  0  0  0
    6.7440    3.2394    0.0000 H   0  0  0  0  0  0  0  0  0  0  0  0
    5.9162    2.9705    0.0000 H   0  0  0  0  0  0  0  0  0  0  0  0
    5.4285    2.2992    0.0000 H   0  0  0  0  0  0  0  0  0  0  0  0
    3.4487    1.2118    0.0000 H   0  0  0  0  0  0  0  0  0  0  0  0
    5.0980   -1.0582    0.0000 H   0  0  0  0  0  0  0  0  0  0  0  0
    2.1381    0.2596    0.0000 H   0  0  0  0  0  0  0  0  0  0  0  0
    3.7874   -2.0104    0.0000 H   0  0  0  0  0  0  0  0  0  0  0  0
    1.6356   -1.0733    0.0000 H   0  0  0  0  0  0  0  0  0  0  0  0
    1.4984   -1.9393    0.0000 H   0  0  0  0  0  0  0  0  0  0  0  0
    2.3644   -2.0765    0.0000 H   0  0  0  0  0  0  0  0  0  0  0  0
  1  4  2  0  0  0  0
  1  5  2  0  0  0  0
  1  6  1  0  0  0  0
  1 20  1  0  0  0  0
  2  9  1  0  0  0  0
  2 17  1  0  0  0  0
  3 17  2  0  0  0  0
  6 15  1  0  0  0  0
  6 19  1  0  0  0  0
  7  8  1  0  0  0  0
  7 10  1  0  0  0  0
  7 12  1  0  0  0  0
  7 27  1  0  0  0  0
  8  9  1  0  0  0  0
  8 13  1  0  0  0  0
  8 28  1  0  0  0  0
  9 11  1  0  0  0  0
  9 29  1  0  0  0  0
 10 11  1  0  0  0  0
 10 30  1  0  0  0  0
 10 31  1  0  0  0  0
 11 32  1  0  0  0  0
 11 33  1  0  0  0  0
 12 14  1  0  0  0  0
 12 34  1  0  0  0  0
 12 35  1  0  0  0  0
 13 14  2  0  0  0  0
 13 36  1  0  0  0  0
 14 37  1  0  0  0  0
 15 16  1  0  0  0  0
 15 17  1  0  0  0  0
 15 38  1  0  0  0  0
 16 18  1  0  0  0  0
 16 39  1  0  0  0  0
 16 40  1  0  0  0  0
 18 19  1  0  0  0  0
 18 41  1  0  0  0  0
 18 42  1  0  0  0  0
 19 43  1  0  0  0  0
 19 44  1  0  0  0  0
 20 21  2  0  0  0  0
 20 22  1  0  0  0  0
 21 23  1  0  0  0  0
 21 45  1  0  0  0  0
 22 24  2  0  0  0  0
 22 46  1  0  0  0  0
 23 25  2  0  0  0  0
 23 47  1  0  0  0  0
 24 25  1  0  0  0  0
 24 48  1  0  0  0  0
 25 26  1  0  0  0  0
 26 49  1  0  0  0  0
 26 50  1  0  0  0  0
 26 51  1  0  0  0  0
M  END
> <PUBCHEM_COMPOUND_CID>
500212
> <PUBCHEM_COMPOUND_CANONICALIZED>
1
> <PUBCHEM_CACTVS_COMPLEXITY>
660
> <PUBCHEM_CACTVS_HBOND_ACCEPTOR>
5
> <PUBCHEM_CACTVS_HBOND_DONOR>
0
> <PUBCHEM_CACTVS_ROTATABLE_BOND>
5
> <PUBCHEM_CACTVS_SUBSKEYS>
AAADceB6OABAAAAAAAAAAAAAAAAAAeIEAAAwAAAAAAAQAAABAAAAHgQAQAAADTzh2AYyCYIABAKIAiDSCHBCABAgAAAIiBmIAIgKIDKAkTCHIAAkwACYiAeY0YAOkAAAAAAAAAAgAAAAAAAAAIAADAAAAA==
> <PUBCHEM_IUPAC_OPENEYE_NAME>
1,2,3,3a,4,6a-hexahydropentalen-1-yl 1-(p-tolylsulfonyl)pyrrolidine-2-carboxylate
> <PUBCHEM_IUPAC_CAS_NAME>
1-(4-methylphenyl)sulfonyl-2-pyrrolidinecarboxylic acid 1,2,3,3a,4,6a-hexahydropentalen-1-yl ester
> <PUBCHEM_IUPAC_NAME_MARKUP>
1,2,3,3<I>a</I>,4,6<I>a</I>-hexahydropentalen-1-yl 1-(4-methylphenyl)sulfonylpyrrolidine-2-carboxylate
> <PUBCHEM_IUPAC_NAME>
1,2,3,3a,4,6a-hexahydropentalen-1-yl 1-(4-methylphenyl)sulfonylpyrrolidine-2-carboxylate
> <PUBCHEM_IUPAC_SYSTEMATIC_NAME>
1,2,3,3a,4,6a-hexahydropentalen-1-yl 1-(4-methylphenyl)sulfonylpyrrolidine-2-carboxylate
> <PUBCHEM_IUPAC_TRADITIONAL_NAME>
1-tosylpyrrolidine-2-carboxylic acid 1,2,3,3a,4,6a-hexahydropentalen-1-yl ester
> <PUBCHEM_IUPAC_INCHI>
InChI=1S/C20H25NO4S/c1-14-7-10-16(11-8-14)26(23,24)21-13-3-6-18(21)20(22)25-19-12-9-15-4-2-5-17(15)19/h2,5,7-8,10-11,15,17-19H,3-4,6,9,12-13H2,1H3
> <PUBCHEM_IUPAC_INCHIKEY>
VWXKZFFUVFUIOE-UHFFFAOYSA-N
> <PUBCHEM_XLOGP3_AA>
3.6
> <PUBCHEM_EXACT_MASS>
375.15042945
> <PUBCHEM_MOLECULAR_FORMULA>
C20H25NO4S
> <PUBCHEM_MOLECULAR_WEIGHT>
375.5
> <PUBCHEM_OPENEYE_CAN_SMILES>
CC1=CC=C(C=C1)S(=O)(=O)N2CCCC2C(=O)OC3CCC4C3C=CC4
> <PUBCHEM_OPENEYE_ISO_SMILES>
CC1=CC=C(C=C1)S(=O)(=O)N2CCCC2C(=O)OC3CCC4C3C=CC4
> <PUBCHEM_CACTVS_TPSA>
72.1
> <PUBCHEM_MONOISOTOPIC_WEIGHT>
375.15042945
> <PUBCHEM_TOTAL_CHARGE>
0
> <PUBCHEM_HEAVY_ATOM_COUNT>
26
> <PUBCHEM_ATOM_DEF_STEREO_COUNT>
0
> <PUBCHEM_ATOM_UDEF_STEREO_COUNT>
4
> <PUBCHEM_BOND_DEF_STEREO_COUNT>
0
> <PUBCHEM_BOND_UDEF_STEREO_COUNT>
0
> <PUBCHEM_ISOTOPIC_ATOM_COUNT>
0
> <PUBCHEM_COMPONENT_COUNT>
1
> <PUBCHEM_CACTVS_TAUTO_COUNT>
-1
> <PUBCHEM_COORDINATE_TYPE>
1
5
255
> <PUBCHEM_BONDANNOTATIONS>
15  17  3
9  2  3
20  21  8
20  22  8
21  23  8
22  24  8
23  25  8
24  25  8
7  10  3
8  13  3
$$$$
