500363
  -OEChem-10302200282D
 81 83  0     1  0  0  0  0  0999 V2000
    5.1065   -1.0937    0.0000 S   0  0  0  0  0  0  0  0  0  0  0  0
    3.4123    0.4419    0.0000 Si  0  0  0  0  0  0  0  0  0  0  0  0
    9.3698    0.1329    0.0000 Si  0  0  0  0  0  0  0  0  0  0  0  0
    6.4155    1.0329    0.0000 O   0  0  0  0  0  0  0  0  0  0  0  0
    4.1554   -0.2272    0.0000 O   0  0  0  0  0  0  0  0  0  0  0  0
    8.4187    0.4419    0.0000 O   0  0  0  0  0  0  0  0  0  0  0  0
    7.9978   -2.7493    0.0000 O   0  0  0  0  0  0  0  0  0  0  0  0
    6.2290    2.8600    0.0000 O   0  0  0  0  0  0  0  0  0  0  0  0
    3.0644    4.2690    0.0000 O   0  0  0  0  0  0  0  0  0  0  0  0
    6.7245   -1.0937    0.0000 N   0  0  0  0  0  0  0  0  0  0  0  0
    4.8277    1.8419    0.0000 N   0  0  0  0  0  0  0  0  0  0  0  0
    6.5965   -3.7674    0.0000 N   0  0  0  0  0  0  0  0  0  0  0  0
    4.6467    3.5645    0.0000 N   0  0  0  0  0  0  0  0  0  0  0  0
    5.9155   -0.5060    0.0000 C   0  0  2  0  0  0  0  0  0  0  0  0
    5.1065    0.0818    0.0000 C   0  0  2  0  0  0  0  0  0  0  0  0
    6.7245    0.0818    0.0000 C   0  0  1  0  0  0  0  0  0  0  0  0
    5.4155    1.0329    0.0000 C   0  0  1  0  0  0  0  0  0  0  0  0
    6.4155   -2.0448    0.0000 C   0  0  1  0  0  0  0  0  0  0  0  0
    7.6756   -0.2272    0.0000 C   0  0  0  0  0  0  0  0  0  0  0  0
    5.4155   -2.0448    0.0000 C   0  0  0  0  0  0  0  0  0  0  0  0
    2.7431   -0.3012    0.0000 C   0  0  0  0  0  0  0  0  0  0  0  0
    2.6691    1.1111    0.0000 C   0  0  0  0  0  0  0  0  0  0  0  0
    4.0814    1.1851    0.0000 C   0  0  0  0  0  0  0  0  0  0  0  0
   10.3208   -0.1761    0.0000 C   0  0  0  0  0  0  0  0  0  0  0  0
    7.0033   -2.8538    0.0000 C   0  0  0  0  0  0  0  0  0  0  0  0
    2.0740   -1.0443    0.0000 C   0  0  0  0  0  0  0  0  0  0  0  0
    2.0000    0.3679    0.0000 C   0  0  0  0  0  0  0  0  0  0  0  0
    3.4863   -0.9703    0.0000 C   0  0  0  0  0  0  0  0  0  0  0  0
    5.2344    2.7554    0.0000 C   0  0  0  0  0  0  0  0  0  0  0  0
    3.8332    1.7374    0.0000 C   0  0  0  0  0  0  0  0  0  0  0  0
    9.6788    1.0840    0.0000 C   0  0  0  0  0  0  0  0  0  0  0  0
    9.0608   -0.8181    0.0000 C   0  0  0  0  0  0  0  0  0  0  0  0
   11.2719   -0.4851    0.0000 C   0  0  0  0  0  0  0  0  0  0  0  0
   10.6298    0.7750    0.0000 C   0  0  0  0  0  0  0  0  0  0  0  0
   10.0118   -1.1272    0.0000 C   0  0  0  0  0  0  0  0  0  0  0  0
    3.2454    2.5464    0.0000 C   0  0  0  0  0  0  0  0  0  0  0  0
    3.6521    3.4599    0.0000 C   0  0  0  0  0  0  0  0  0  0  0  0
    4.6681    0.5202    0.0000 H   0  0  0  0  0  0  0  0  0  0  0  0
    7.1629    0.5202    0.0000 H   0  0  0  0  0  0  0  0  0  0  0  0
    5.6970    1.5853    0.0000 H   0  0  0  0  0  0  0  0  0  0  0  0
    7.3142   -0.9022    0.0000 H   0  0  0  0  0  0  0  0  0  0  0  0
    7.0279   -1.9478    0.0000 H   0  0  0  0  0  0  0  0  0  0  0  0
    7.3845   -0.7746    0.0000 H   0  0  0  0  0  0  0  0  0  0  0  0
    8.1641   -0.6089    0.0000 H   0  0  0  0  0  0  0  0  0  0  0  0
    4.8090   -2.1737    0.0000 H   0  0  0  0  0  0  0  0  0  0  0  0
    5.4803   -2.6614    0.0000 H   0  0  0  0  0  0  0  0  0  0  0  0
    3.0840    1.5718    0.0000 H   0  0  0  0  0  0  0  0  0  0  0  0
    2.2084    1.5259    0.0000 H   0  0  0  0  0  0  0  0  0  0  0  0
    2.2543    0.6503    0.0000 H   0  0  0  0  0  0  0  0  0  0  0  0
    4.5422    0.7702    0.0000 H   0  0  0  0  0  0  0  0  0  0  0  0
    4.4963    1.6458    0.0000 H   0  0  0  0  0  0  0  0  0  0  0  0
    3.6207    1.6000    0.0000 H   0  0  0  0  0  0  0  0  0  0  0  0
    1.6133   -0.6295    0.0000 H   0  0  0  0  0  0  0  0  0  0  0  0
    1.6592   -1.5051    0.0000 H   0  0  0  0  0  0  0  0  0  0  0  0
    2.5348   -1.4592    0.0000 H   0  0  0  0  0  0  0  0  0  0  0  0
    2.4149    0.8287    0.0000 H   0  0  0  0  0  0  0  0  0  0  0  0
    1.5392    0.7828    0.0000 H   0  0  0  0  0  0  0  0  0  0  0  0
    1.5851   -0.0928    0.0000 H   0  0  0  0  0  0  0  0  0  0  0  0
    3.0714   -1.4311    0.0000 H   0  0  0  0  0  0  0  0  0  0  0  0
    3.9470   -1.3852    0.0000 H   0  0  0  0  0  0  0  0  0  0  0  0
    3.9012   -0.5096    0.0000 H   0  0  0  0  0  0  0  0  0  0  0  0
    3.5810    1.1710    0.0000 H   0  0  0  0  0  0  0  0  0  0  0  0
   10.2684    0.8924    0.0000 H   0  0  0  0  0  0  0  0  0  0  0  0
    9.8704    1.6736    0.0000 H   0  0  0  0  0  0  0  0  0  0  0  0
    9.0891    1.2756    0.0000 H   0  0  0  0  0  0  0  0  0  0  0  0
    8.4711   -0.6265    0.0000 H   0  0  0  0  0  0  0  0  0  0  0  0
    8.8692   -1.4078    0.0000 H   0  0  0  0  0  0  0  0  0  0  0  0
    9.6504   -1.0097    0.0000 H   0  0  0  0  0  0  0  0  0  0  0  0
   11.0803   -1.0748    0.0000 H   0  0  0  0  0  0  0  0  0  0  0  0
   11.8615   -0.6767    0.0000 H   0  0  0  0  0  0  0  0  0  0  0  0
   11.4635    0.1045    0.0000 H   0  0  0  0  0  0  0  0  0  0  0  0
   11.2195    0.5834    0.0000 H   0  0  0  0  0  0  0  0  0  0  0  0
   10.8214    1.3646    0.0000 H   0  0  0  0  0  0  0  0  0  0  0  0
   10.0402    0.9666    0.0000 H   0  0  0  0  0  0  0  0  0  0  0  0
    9.4222   -0.9356    0.0000 H   0  0  0  0  0  0  0  0  0  0  0  0
    9.8202   -1.7168    0.0000 H   0  0  0  0  0  0  0  0  0  0  0  0
   10.6015   -1.3187    0.0000 H   0  0  0  0  0  0  0  0  0  0  0  0
    6.9610   -4.2690    0.0000 H   0  0  0  0  0  0  0  0  0  0  0  0
    5.9799   -3.8322    0.0000 H   0  0  0  0  0  0  0  0  0  0  0  0
    4.8988    4.1309    0.0000 H   0  0  0  0  0  0  0  0  0  0  0  0
    2.6288    2.4816    0.0000 H   0  0  0  0  0  0  0  0  0  0  0  0
  1 14  1  0  0  0  0
  1 20  1  0  0  0  0
  2  5  1  0  0  0  0
  2 21  1  0  0  0  0
  2 22  1  0  0  0  0
  2 23  1  0  0  0  0
  3  6  1  0  0  0  0
  3 24  1  0  0  0  0
  3 31  1  0  0  0  0
  3 32  1  0  0  0  0
  4 16  1  0  0  0  0
  4 17  1  0  0  0  0
 15  5  1  1  0  0  0
  6 19  1  0  0  0  0
  7 25  2  0  0  0  0
  8 29  2  0  0  0  0
  9 37  2  0  0  0  0
 14 10  1  1  0  0  0
 10 18  1  0  0  0  0
 10 41  1  0  0  0  0
 17 11  1  6  0  0  0
 11 29  1  0  0  0  0
 11 30  1  0  0  0  0
 12 25  1  0  0  0  0
 12 78  1  0  0  0  0
 12 79  1  0  0  0  0
 13 29  1  0  0  0  0
 13 37  1  0  0  0  0
 13 80  1  0  0  0  0
 14 15  1  0  0  0  0
 14 16  1  0  0  0  0
 15 17  1  0  0  0  0
 15 38  1  0  0  0  0
 16 19  1  6  0  0  0
 16 39  1  0  0  0  0
 17 40  1  0  0  0  0
 18 20  1  0  0  0  0
 18 25  1  6  0  0  0
 18 42  1  0  0  0  0
 19 43  1  0  0  0  0
 19 44  1  0  0  0  0
 20 45  1  0  0  0  0
 20 46  1  0  0  0  0
 21 26  1  0  0  0  0
 21 27  1  0  0  0  0
 21 28  1  0  0  0  0
 22 47  1  0  0  0  0
 22 48  1  0  0  0  0
 22 49  1  0  0  0  0
 23 50  1  0  0  0  0
 23 51  1  0  0  0  0
 23 52  1  0  0  0  0
 24 33  1  0  0  0  0
 24 34  1  0  0  0  0
 24 35  1  0  0  0  0
 26 53  1  0  0  0  0
 26 54  1  0  0  0  0
 26 55  1  0  0  0  0
 27 56  1  0  0  0  0
 27 57  1  0  0  0  0
 27 58  1  0  0  0  0
 28 59  1  0  0  0  0
 28 60  1  0  0  0  0
 28 61  1  0  0  0  0
 30 36  2  0  0  0  0
 30 62  1  0  0  0  0
 31 63  1  0  0  0  0
 31 64  1  0  0  0  0
 31 65  1  0  0  0  0
 32 66  1  0  0  0  0
 32 67  1  0  0  0  0
 32 68  1  0  0  0  0
 33 69  1  0  0  0  0
 33 70  1  0  0  0  0
 33 71  1  0  0  0  0
 34 72  1  0  0  0  0
 34 73  1  0  0  0  0
 34 74  1  0  0  0  0
 35 75  1  0  0  0  0
 35 76  1  0  0  0  0
 35 77  1  0  0  0  0
 36 37  1  0  0  0  0
 36 81  1  0  0  0  0
M  END
> <PUBCHEM_COMPOUND_CID>
500363
> <PUBCHEM_COMPOUND_CANONICALIZED>
1
> <PUBCHEM_CACTVS_COMPLEXITY>
964
> <PUBCHEM_CACTVS_HBOND_ACCEPTOR>
8
> <PUBCHEM_CACTVS_HBOND_DONOR>
3
> <PUBCHEM_CACTVS_ROTATABLE_BOND>
9
> <PUBCHEM_CACTVS_SUBSKEYS>
AAADcfB7uAxAAAAAAAAAAAAAAAAAAWJAAAAgAAAAAAAAAAAAAAAAHhQQAEAADDzl4AbDAAPABAmIACFWUACAAABAAhAIAIGIAECDQAIgwCAfAAAPFyKyAMDwMAIAAAAAAAAAAAAAAAAAAAAAAAAAAAAAAA==
> <PUBCHEM_IUPAC_OPENEYE_NAME>
(3R,5S,6R,8R,9S)-9-[tert-butyl(dimethyl)silyl]oxy-6-[[tert-butyl(dimethyl)silyl]oxymethyl]-8-(2,4-dioxopyrimidin-1-yl)-7-oxa-1-thia-4-azaspiro[4.4]nonane-3-carboxamide
> <PUBCHEM_IUPAC_CAS_NAME>
(3R,5S,6R,8R,9S)-9-[tert-butyl(dimethyl)silyl]oxy-6-[[tert-butyl(dimethyl)silyl]oxymethyl]-8-(2,4-dioxo-1-pyrimidinyl)-7-oxa-1-thia-4-azaspiro[4.4]nonane-3-carboxamide
> <PUBCHEM_IUPAC_NAME_MARKUP>
(3<I>R</I>,5<I>S</I>,6<I>R</I>,8<I>R</I>,9<I>S</I>)-9-[<I>tert</I>-butyl(dimethyl)silyl]oxy-6-[[<I>tert</I>-butyl(dimethyl)silyl]oxymethyl]-8-(2,4-dioxopyrimidin-1-yl)-7-oxa-1-thia-4-azaspiro[4.4]nonane-3-carboxamide
> <PUBCHEM_IUPAC_NAME>
(3R,5S,6R,8R,9S)-9-[tert-butyl(dimethyl)silyl]oxy-6-[[tert-butyl(dimethyl)silyl]oxymethyl]-8-(2,4-dioxopyrimidin-1-yl)-7-oxa-1-thia-4-azaspiro[4.4]nonane-3-carboxamide
> <PUBCHEM_IUPAC_SYSTEMATIC_NAME>
(3R,5S,6R,8R,9S)-8-[2,4-bis(oxidanylidene)pyrimidin-1-yl]-9-[tert-butyl(dimethyl)silyl]oxy-6-[[tert-butyl(dimethyl)silyl]oxymethyl]-7-oxa-1-thia-4-azaspiro[4.4]nonane-3-carboxamide
> <PUBCHEM_IUPAC_TRADITIONAL_NAME>
(3R,5S,6R,8R,9S)-9-[tert-butyl(dimethyl)silyl]oxy-6-[[tert-butyl(dimethyl)silyl]oxymethyl]-8-(2,4-diketopyrimidin-1-yl)-7-oxa-1-thia-4-azaspiro[4.4]nonane-3-carboxamide
> <PUBCHEM_IUPAC_INCHI>
InChI=1S/C24H44N4O6SSi2/c1-22(2,3)36(7,8)32-13-16-24(27-15(14-35-24)19(25)30)18(34-37(9,10)23(4,5)6)20(33-16)28-12-11-17(29)26-21(28)31/h11-12,15-16,18,20,27H,13-14H2,1-10H3,(H2,25,30)(H,26,29,31)/t15-,16+,18-,20+,24-/m0/s1
> <PUBCHEM_IUPAC_INCHIKEY>
WCFPEMXOHGWFJH-SKARRKBJSA-N
> <PUBCHEM_EXACT_MASS>
572.25200938
> <PUBCHEM_MOLECULAR_FORMULA>
C24H44N4O6SSi2
> <PUBCHEM_MOLECULAR_WEIGHT>
572.9
> <PUBCHEM_OPENEYE_CAN_SMILES>
CC(C)(C)[Si](C)(C)OCC1C2(C(C(O1)N3C=CC(=O)NC3=O)O[Si](C)(C)C(C)(C)C)NC(CS2)C(=O)N
> <PUBCHEM_OPENEYE_ISO_SMILES>
CC(C)(C)[Si](C)(C)OC[C@@H]1[C@]2([C@H]([C@@H](O1)N3C=CC(=O)NC3=O)O[Si](C)(C)C(C)(C)C)N[C@@H](CS2)C(=O)N
> <PUBCHEM_CACTVS_TPSA>
158
> <PUBCHEM_MONOISOTOPIC_WEIGHT>
572.25200938
> <PUBCHEM_TOTAL_CHARGE>
0
> <PUBCHEM_HEAVY_ATOM_COUNT>
37
> <PUBCHEM_ATOM_DEF_STEREO_COUNT>
5
> <PUBCHEM_ATOM_UDEF_STEREO_COUNT>
0
> <PUBCHEM_BOND_DEF_STEREO_COUNT>
0
> <PUBCHEM_BOND_UDEF_STEREO_COUNT>
0
> <PUBCHEM_ISOTOPIC_ATOM_COUNT>
0
> <PUBCHEM_COMPONENT_COUNT>
1
> <PUBCHEM_CACTVS_TAUTO_COUNT>
-1
> <PUBCHEM_COORDINATE_TYPE>
1
5
255
> <PUBCHEM_BONDANNOTATIONS>
14  10  5
17  11  6
11  29  8
11  30  8
13  29  8
13  37  8
16  19  6
18  25  6
30  36  8
36  37  8
15  5  5
$$$$
