500376
  -OEChem-10302200282D
160168  0     1  0  0  0  0  0999 V2000
   10.8882    3.0909    0.0000 O   0  0  0  0  0  0  0  0  0  0  0  0
    9.3592    4.3229    0.0000 O   0  0  0  0  0  0  0  0  0  0  0  0
    9.4651   -5.1532    0.0000 O   0  0  0  0  0  0  0  0  0  0  0  0
    7.7331   -5.1532    0.0000 O   0  0  0  0  0  0  0  0  0  0  0  0
   13.5227    6.1903    0.0000 O   0  0  0  0  0  0  0  0  0  0  0  0
    9.4651   -7.1532    0.0000 O   0  0  0  0  0  0  0  0  0  0  0  0
    7.7331   -8.1532    0.0000 O   0  0  0  0  0  0  0  0  0  0  0  0
    6.0010   -7.1532    0.0000 O   0  0  0  0  0  0  0  0  0  0  0  0
   15.0253    5.3287    0.0000 O   0  0  0  0  0  0  0  0  0  0  0  0
   10.3312   -5.6532    0.0000 O   0  0  0  0  0  0  0  0  0  0  0  0
    6.0010   -4.1532    0.0000 O   0  0  0  0  0  0  0  0  0  0  0  0
   14.5176    7.9253    0.0000 O   0  0  0  0  0  0  0  0  0  0  0  0
    5.1350   -5.6532    0.0000 O   0  0  0  0  0  0  0  0  0  0  0  0
   11.1972   -8.1532    0.0000 O   0  0  0  0  0  0  0  0  0  0  0  0
   16.5176    7.9313    0.0000 O   0  0  0  0  0  0  0  0  0  0  0  0
   17.5227    6.2022    0.0000 O   0  0  0  0  0  0  0  0  0  0  0  0
   12.9292   -7.1532    0.0000 O   0  0  0  0  0  0  0  0  0  0  0  0
    4.2690   -8.1532    0.0000 O   0  0  0  0  0  0  0  0  0  0  0  0
   12.9292   -5.1532    0.0000 O   0  0  0  0  0  0  0  0  0  0  0  0
   17.5279    4.4702    0.0000 O   0  0  0  0  0  0  0  0  0  0  0  0
    2.5369   -7.1532    0.0000 O   0  0  0  0  0  0  0  0  0  0  0  0
    2.5369   -5.1532    0.0000 O   0  0  0  0  0  0  0  0  0  0  0  0
    9.4944    1.0437    0.0000 C   0  0  3  0  0  0  0  0  0  0  0  0
   10.3623    0.5471    0.0000 C   0  0  3  0  0  0  0  0  0  0  0  0
    9.6999    2.0163    0.0000 C   0  0  3  0  0  0  0  0  0  0  0  0
   10.3662   -0.4529    0.0000 C   0  0  3  0  0  0  0  0  0  0  0  0
   10.6882    2.1232    0.0000 C   0  0  3  0  0  0  0  0  0  0  0  0
    9.5021   -0.9563    0.0000 C   0  0  3  0  0  0  0  0  0  0  0  0
   11.0968    1.2170    0.0000 C   0  0  0  0  0  0  0  0  0  0  0  0
    8.6303    0.5404    0.0000 C   0  0  0  0  0  0  0  0  0  0  0  0
    9.2976    2.9189    0.0000 C   0  0  3  0  0  0  0  0  0  0  0  0
    8.6342   -0.4596    0.0000 C   0  0  0  0  0  0  0  0  0  0  0  0
    9.4901   -1.9978    0.0000 C   0  0  3  0  0  0  0  0  0  0  0  0
   10.0305    3.5817    0.0000 C   0  0  3  0  0  0  0  0  0  0  0  0
    8.6264    1.5404    0.0000 C   0  0  0  0  0  0  0  0  0  0  0  0
   11.2781   -0.9563    0.0000 C   0  0  0  0  0  0  0  0  0  0  0  0
   10.3901   -2.5221    0.0000 C   0  0  0  0  0  0  0  0  0  0  0  0
    8.5402   -2.5221    0.0000 C   0  0  0  0  0  0  0  0  0  0  0  0
   11.2902   -1.9978    0.0000 C   0  0  0  0  0  0  0  0  0  0  0  0
    8.3192    3.1256    0.0000 C   0  0  0  0  0  0  0  0  0  0  0  0
    8.6260   -1.4945    0.0000 C   0  0  0  0  0  0  0  0  0  0  0  0
   10.5279    4.4492    0.0000 C   0  0  0  0  0  0  0  0  0  0  0  0
   10.4027   -3.6070    0.0000 C   0  0  0  0  0  0  0  0  0  0  0  0
    8.5276   -3.6070    0.0000 C   0  0  0  0  0  0  0  0  0  0  0  0
    9.4651   -4.1532    0.0000 C   0  0  3  0  0  0  0  0  0  0  0  0
   11.5279    4.4522    0.0000 C   0  0  0  0  0  0  0  0  0  0  0  0
    9.6654    5.2748    0.0000 C   0  0  0  0  0  0  0  0  0  0  0  0
   12.0253    5.3198    0.0000 C   0  0  3  0  0  0  0  0  0  0  0  0
    8.5991   -5.6532    0.0000 C   0  0  3  0  0  0  0  0  0  0  0  0
   13.0253    5.3227    0.0000 C   0  0  0  0  0  0  0  0  0  0  0  0
   11.5228    6.1843    0.0000 C   0  0  0  0  0  0  0  0  0  0  0  0
    8.5991   -6.6532    0.0000 C   0  0  3  0  0  0  0  0  0  0  0  0
    7.7331   -7.1532    0.0000 C   0  0  3  0  0  0  0  0  0  0  0  0
    6.8671   -5.6532    0.0000 C   0  0  3  0  0  0  0  0  0  0  0  0
    6.8671   -6.6532    0.0000 C   0  0  3  0  0  0  0  0  0  0  0  0
   14.5227    6.1932    0.0000 C   0  0  3  0  0  0  0  0  0  0  0  0
    6.0010   -5.1532    0.0000 C   0  0  0  0  0  0  0  0  0  0  0  0
   10.3312   -6.6532    0.0000 C   0  0  3  0  0  0  0  0  0  0  0  0
   15.0202    7.0608    0.0000 C   0  0  3  0  0  0  0  0  0  0  0  0
   11.1972   -7.1532    0.0000 C   0  0  3  0  0  0  0  0  0  0  0  0
   16.0201    7.0638    0.0000 C   0  0  3  0  0  0  0  0  0  0  0  0
    5.1350   -6.6532    0.0000 C   0  0  3  0  0  0  0  0  0  0  0  0
   16.0253    5.3317    0.0000 C   0  0  3  0  0  0  0  0  0  0  0  0
   16.5227    6.1992    0.0000 C   0  0  3  0  0  0  0  0  0  0  0  0
   12.0632   -6.6532    0.0000 C   0  0  3  0  0  0  0  0  0  0  0  0
   11.1972   -5.1532    0.0000 C   0  0  3  0  0  0  0  0  0  0  0  0
    4.2690   -7.1532    0.0000 C   0  0  3  0  0  0  0  0  0  0  0  0
   12.0632   -5.6532    0.0000 C   0  0  3  0  0  0  0  0  0  0  0  0
   16.5279    4.4672    0.0000 C   0  0  0  0  0  0  0  0  0  0  0  0
    3.4030   -6.6532    0.0000 C   0  0  3  0  0  0  0  0  0  0  0  0
    4.2690   -5.1532    0.0000 C   0  0  3  0  0  0  0  0  0  0  0  0
    3.4030   -5.6532    0.0000 C   0  0  3  0  0  0  0  0  0  0  0  0
   11.1972   -4.1532    0.0000 C   0  0  0  0  0  0  0  0  0  0  0  0
    4.2690   -4.1532    0.0000 C   0  0  0  0  0  0  0  0  0  0  0  0
   11.1406    0.2053    0.0000 H   0  0  0  0  0  0  0  0  0  0  0  0
    8.8546    1.9268    0.0000 H   0  0  0  0  0  0  0  0  0  0  0  0
   11.0974   -0.0194    0.0000 H   0  0  0  0  0  0  0  0  0  0  0  0
   11.5330    2.2164    0.0000 H   0  0  0  0  0  0  0  0  0  0  0  0
   10.2366   -1.3841    0.0000 H   0  0  0  0  0  0  0  0  0  0  0  0
   11.4642    0.7175    0.0000 H   0  0  0  0  0  0  0  0  0  0  0  0
   11.6321    1.5298    0.0000 H   0  0  0  0  0  0  0  0  0  0  0  0
    8.4160    1.1222    0.0000 H   0  0  0  0  0  0  0  0  0  0  0  0
    8.0201    0.4304    0.0000 H   0  0  0  0  0  0  0  0  0  0  0  0
    8.7632    2.2579    0.0000 H   0  0  0  0  0  0  0  0  0  0  0  0
    8.0232   -0.3543    0.0000 H   0  0  0  0  0  0  0  0  0  0  0  0
    8.4244   -1.0430    0.0000 H   0  0  0  0  0  0  0  0  0  0  0  0
    8.9344    2.0785    0.0000 H   0  0  0  0  0  0  0  0  0  0  0  0
    8.0883    1.8483    0.0000 H   0  0  0  0  0  0  0  0  0  0  0  0
    8.3185    1.0022    0.0000 H   0  0  0  0  0  0  0  0  0  0  0  0
   11.8902   -1.0553    0.0000 H   0  0  0  0  0  0  0  0  0  0  0  0
   11.4804   -0.3702    0.0000 H   0  0  0  0  0  0  0  0  0  0  0  0
    8.3379   -1.9360    0.0000 H   0  0  0  0  0  0  0  0  0  0  0  0
    7.9281   -2.6211    0.0000 H   0  0  0  0  0  0  0  0  0  0  0  0
   11.8295   -2.3037    0.0000 H   0  0  0  0  0  0  0  0  0  0  0  0
    8.4473    3.7322    0.0000 H   0  0  0  0  0  0  0  0  0  0  0  0
    7.7125    3.2538    0.0000 H   0  0  0  0  0  0  0  0  0  0  0  0
    8.1910    2.5190    0.0000 H   0  0  0  0  0  0  0  0  0  0  0  0
    8.9380   -0.9588    0.0000 H   0  0  0  0  0  0  0  0  0  0  0  0
    8.0902   -1.1824    0.0000 H   0  0  0  0  0  0  0  0  0  0  0  0
    8.3139   -2.0302    0.0000 H   0  0  0  0  0  0  0  0  0  0  0  0
   10.6338    5.0602    0.0000 H   0  0  0  0  0  0  0  0  0  0  0  0
    9.9447    4.6596    0.0000 H   0  0  0  0  0  0  0  0  0  0  0  0
   10.6185   -4.1883    0.0000 H   0  0  0  0  0  0  0  0  0  0  0  0
   11.0123   -3.4939    0.0000 H   0  0  0  0  0  0  0  0  0  0  0  0
    7.9180   -3.4939    0.0000 H   0  0  0  0  0  0  0  0  0  0  0  0
    8.3118   -4.1883    0.0000 H   0  0  0  0  0  0  0  0  0  0  0  0
   10.2021   -4.5767    0.0000 H   0  0  0  0  0  0  0  0  0  0  0  0
   11.4221    3.8413    0.0000 H   0  0  0  0  0  0  0  0  0  0  0  0
   12.1112    4.2419    0.0000 H   0  0  0  0  0  0  0  0  0  0  0  0
   10.2556    5.0850    0.0000 H   0  0  0  0  0  0  0  0  0  0  0  0
    9.8552    5.8651    0.0000 H   0  0  0  0  0  0  0  0  0  0  0  0
    9.0751    5.4647    0.0000 H   0  0  0  0  0  0  0  0  0  0  0  0
   11.1753    5.3172    0.0000 H   0  0  0  0  0  0  0  0  0  0  0  0
    8.5991   -4.8031    0.0000 H   0  0  0  0  0  0  0  0  0  0  0  0
   12.9195    4.7118    0.0000 H   0  0  0  0  0  0  0  0  0  0  0  0
   13.6086    5.1124    0.0000 H   0  0  0  0  0  0  0  0  0  0  0  0
   12.0588    6.4959    0.0000 H   0  0  0  0  0  0  0  0  0  0  0  0
   11.2112    6.7203    0.0000 H   0  0  0  0  0  0  0  0  0  0  0  0
   10.9868    5.8727    0.0000 H   0  0  0  0  0  0  0  0  0  0  0  0
    8.5991   -7.5032    0.0000 H   0  0  0  0  0  0  0  0  0  0  0  0
    6.9970   -7.5782    0.0000 H   0  0  0  0  0  0  0  0  0  0  0  0
    6.8671   -4.8031    0.0000 H   0  0  0  0  0  0  0  0  0  0  0  0
    6.1309   -6.2282    0.0000 H   0  0  0  0  0  0  0  0  0  0  0  0
   14.0999    5.4559    0.0000 H   0  0  0  0  0  0  0  0  0  0  0  0
    5.3905   -5.0455    0.0000 H   0  0  0  0  0  0  0  0  0  0  0  0
    5.7890   -5.7358    0.0000 H   0  0  0  0  0  0  0  0  0  0  0  0
    9.5950   -6.2282    0.0000 H   0  0  0  0  0  0  0  0  0  0  0  0
    7.1962   -8.4632    0.0000 H   0  0  0  0  0  0  0  0  0  0  0  0
   14.1702    7.0582    0.0000 H   0  0  0  0  0  0  0  0  0  0  0  0
   11.9333   -7.5782    0.0000 H   0  0  0  0  0  0  0  0  0  0  0  0
   16.8701    7.0663    0.0000 H   0  0  0  0  0  0  0  0  0  0  0  0
    5.1350   -7.5032    0.0000 H   0  0  0  0  0  0  0  0  0  0  0  0
   15.6025    4.5943    0.0000 H   0  0  0  0  0  0  0  0  0  0  0  0
   16.9499    5.4644    0.0000 H   0  0  0  0  0  0  0  0  0  0  0  0
    5.4641   -3.8432    0.0000 H   0  0  0  0  0  0  0  0  0  0  0  0
   12.7993   -6.2282    0.0000 H   0  0  0  0  0  0  0  0  0  0  0  0
   10.4611   -4.7282    0.0000 H   0  0  0  0  0  0  0  0  0  0  0  0
    3.5329   -7.5782    0.0000 H   0  0  0  0  0  0  0  0  0  0  0  0
   12.0632   -4.8031    0.0000 H   0  0  0  0  0  0  0  0  0  0  0  0
   14.8260    8.4632    0.0000 H   0  0  0  0  0  0  0  0  0  0  0  0
   15.9459    4.2534    0.0000 H   0  0  0  0  0  0  0  0  0  0  0  0
   16.6374    3.8569    0.0000 H   0  0  0  0  0  0  0  0  0  0  0  0
    2.6668   -6.2282    0.0000 H   0  0  0  0  0  0  0  0  0  0  0  0
   11.7341   -8.4632    0.0000 H   0  0  0  0  0  0  0  0  0  0  0  0
   17.1376    7.9331    0.0000 H   0  0  0  0  0  0  0  0  0  0  0  0
    5.0051   -4.7282    0.0000 H   0  0  0  0  0  0  0  0  0  0  0  0
    3.4030   -4.8031    0.0000 H   0  0  0  0  0  0  0  0  0  0  0  0
   11.8172   -4.1532    0.0000 H   0  0  0  0  0  0  0  0  0  0  0  0
   11.1972   -3.5332    0.0000 H   0  0  0  0  0  0  0  0  0  0  0  0
   10.5772   -4.1532    0.0000 H   0  0  0  0  0  0  0  0  0  0  0  0
   17.8311    6.7401    0.0000 H   0  0  0  0  0  0  0  0  0  0  0  0
   13.4662   -6.8432    0.0000 H   0  0  0  0  0  0  0  0  0  0  0  0
    3.7320   -8.4632    0.0000 H   0  0  0  0  0  0  0  0  0  0  0  0
   13.4662   -5.4632    0.0000 H   0  0  0  0  0  0  0  0  0  0  0  0
    4.8890   -4.1532    0.0000 H   0  0  0  0  0  0  0  0  0  0  0  0
    4.2690   -3.5332    0.0000 H   0  0  0  0  0  0  0  0  0  0  0  0
    3.6490   -4.1532    0.0000 H   0  0  0  0  0  0  0  0  0  0  0  0
   17.8395    3.9342    0.0000 H   0  0  0  0  0  0  0  0  0  0  0  0
    2.0000   -6.8432    0.0000 H   0  0  0  0  0  0  0  0  0  0  0  0
    2.5369   -4.5332    0.0000 H   0  0  0  0  0  0  0  0  0  0  0  0
  1 27  1  0  0  0  0
  1 34  1  0  0  0  0
  2 34  1  0  0  0  0
  2 47  1  0  0  0  0
  3 45  1  0  0  0  0
  3 49  1  0  0  0  0
  4 49  1  0  0  0  0
  4 54  1  0  0  0  0
  5 50  1  0  0  0  0
  5 56  1  0  0  0  0
  6 52  1  0  0  0  0
  6 58  1  0  0  0  0
  7 53  1  0  0  0  0
  7128  1  0  0  0  0
  8 55  1  0  0  0  0
  8 62  1  0  0  0  0
  9 56  1  0  0  0  0
  9 63  1  0  0  0  0
 10 58  1  0  0  0  0
 10 66  1  0  0  0  0
 11 57  1  0  0  0  0
 11135  1  0  0  0  0
 12 59  1  0  0  0  0
 12140  1  0  0  0  0
 13 62  1  0  0  0  0
 13 71  1  0  0  0  0
 14 60  1  0  0  0  0
 14144  1  0  0  0  0
 15 61  1  0  0  0  0
 15145  1  0  0  0  0
 16 64  1  0  0  0  0
 16151  1  0  0  0  0
 17 65  1  0  0  0  0
 17152  1  0  0  0  0
 18 67  1  0  0  0  0
 18153  1  0  0  0  0
 19 68  1  0  0  0  0
 19154  1  0  0  0  0
 20 69  1  0  0  0  0
 20158  1  0  0  0  0
 21 70  1  0  0  0  0
 21159  1  0  0  0  0
 22 72  1  0  0  0  0
 22160  1  0  0  0  0
 23 24  1  0  0  0  0
 23 25  1  0  0  0  0
 23 30  1  0  0  0  0
 23 35  1  0  0  0  0
 24 26  1  0  0  0  0
 24 29  1  0  0  0  0
 24 75  1  0  0  0  0
 25 27  1  0  0  0  0
 25 31  1  0  0  0  0
 25 76  1  0  0  0  0
 26 28  1  0  0  0  0
 26 36  1  0  0  0  0
 26 77  1  0  0  0  0
 27 29  1  0  0  0  0
 27 78  1  0  0  0  0
 28 32  1  0  0  0  0
 28 33  1  0  0  0  0
 28 79  1  0  0  0  0
 29 80  1  0  0  0  0
 29 81  1  0  0  0  0
 30 32  1  0  0  0  0
 30 82  1  0  0  0  0
 30 83  1  0  0  0  0
 31 34  1  0  0  0  0
 31 40  1  0  0  0  0
 31 84  1  0  0  0  0
 32 85  1  0  0  0  0
 32 86  1  0  0  0  0
 33 37  1  0  0  0  0
 33 38  1  0  0  0  0
 33 41  1  0  0  0  0
 34 42  1  0  0  0  0
 35 87  1  0  0  0  0
 35 88  1  0  0  0  0
 35 89  1  0  0  0  0
 36 39  1  0  0  0  0
 36 90  1  0  0  0  0
 36 91  1  0  0  0  0
 37 39  2  0  0  0  0
 37 43  1  0  0  0  0
 38 44  1  0  0  0  0
 38 92  1  0  0  0  0
 38 93  1  0  0  0  0
 39 94  1  0  0  0  0
 40 95  1  0  0  0  0
 40 96  1  0  0  0  0
 40 97  1  0  0  0  0
 41 98  1  0  0  0  0
 41 99  1  0  0  0  0
 41100  1  0  0  0  0
 42 46  1  0  0  0  0
 42101  1  0  0  0  0
 42102  1  0  0  0  0
 43 45  1  0  0  0  0
 43103  1  0  0  0  0
 43104  1  0  0  0  0
 44 45  1  0  0  0  0
 44105  1  0  0  0  0
 44106  1  0  0  0  0
 45107  1  0  0  0  0
 46 48  1  0  0  0  0
 46108  1  0  0  0  0
 46109  1  0  0  0  0
 47110  1  0  0  0  0
 47111  1  0  0  0  0
 47112  1  0  0  0  0
 48 50  1  0  0  0  0
 48 51  1  0  0  0  0
 48113  1  0  0  0  0
 49 52  1  0  0  0  0
 49114  1  0  0  0  0
 50115  1  0  0  0  0
 50116  1  0  0  0  0
 51117  1  0  0  0  0
 51118  1  0  0  0  0
 51119  1  0  0  0  0
 52 53  1  0  0  0  0
 52120  1  0  0  0  0
 53 55  1  0  0  0  0
 53121  1  0  0  0  0
 54 55  1  0  0  0  0
 54 57  1  0  0  0  0
 54122  1  0  0  0  0
 55123  1  0  0  0  0
 56 59  1  0  0  0  0
 56124  1  0  0  0  0
 57125  1  0  0  0  0
 57126  1  0  0  0  0
 58 60  1  0  0  0  0
 58127  1  0  0  0  0
 59 61  1  0  0  0  0
 59129  1  0  0  0  0
 60 65  1  0  0  0  0
 60130  1  0  0  0  0
 61 64  1  0  0  0  0
 61131  1  0  0  0  0
 62 67  1  0  0  0  0
 62132  1  0  0  0  0
 63 64  1  0  0  0  0
 63 69  1  0  0  0  0
 63133  1  0  0  0  0
 64134  1  0  0  0  0
 65 68  1  0  0  0  0
 65136  1  0  0  0  0
 66 68  1  0  0  0  0
 66 73  1  0  0  0  0
 66137  1  0  0  0  0
 67 70  1  0  0  0  0
 67138  1  0  0  0  0
 68139  1  0  0  0  0
 69141  1  0  0  0  0
 69142  1  0  0  0  0
 70 72  1  0  0  0  0
 70143  1  0  0  0  0
 71 72  1  0  0  0  0
 71 74  1  0  0  0  0
 71146  1  0  0  0  0
 72147  1  0  0  0  0
 73148  1  0  0  0  0
 73149  1  0  0  0  0
 73150  1  0  0  0  0
 74155  1  0  0  0  0
 74156  1  0  0  0  0
 74157  1  0  0  0  0
M  END
> <PUBCHEM_COMPOUND_CID>
500376
> <PUBCHEM_COMPOUND_CANONICALIZED>
1
> <PUBCHEM_CACTVS_COMPLEXITY>
1920
> <PUBCHEM_CACTVS_HBOND_ACCEPTOR>
22
> <PUBCHEM_CACTVS_HBOND_DONOR>
12
> <PUBCHEM_CACTVS_ROTATABLE_BOND>
15
> <PUBCHEM_CACTVS_SUBSKEYS>
AAADcfB8PgAAAAAAAAAAAAAAAAAAAaIAAAA0aJEiAAASAGCAAAAAGgAACAAADxSwgAMCCAAABgCAAiBCAAAAAAAgAAAACAAAAAgREAIAAQAiQAAFwAAPAAPA4PwPgAAAAAAAAADAAAQAACAAAYAADAAAAA==
> <PUBCHEM_IUPAC_OPENEYE_NAME>
2-[4-hydroxy-2-(hydroxymethyl)-6-[[6-methoxy-7,9,13-trimethyl-6-[3-methyl-4-[3,4,5-trihydroxy-6-(hydroxymethyl)tetrahydropyran-2-yl]oxy-butyl]-5-oxapentacyclo[10.8.0.02,9.04,8.013,18]icos-18-en-16-yl]oxy]-5-(3,4,5-trihydroxy-6-methyl-tetrahydropyran-2-yl)oxy-tetrahydropyran-3-yl]oxy-6-methyl-tetrahydropyran-3,4,5-triol
> <PUBCHEM_IUPAC_CAS_NAME>
2-[[4-hydroxy-2-(hydroxymethyl)-6-[[6-methoxy-7,9,13-trimethyl-6-[3-methyl-4-[[3,4,5-trihydroxy-6-(hydroxymethyl)-2-oxanyl]oxy]butyl]-5-oxapentacyclo[10.8.0.02,9.04,8.013,18]eicos-18-en-16-yl]oxy]-5-[(3,4,5-trihydroxy-6-methyl-2-oxanyl)oxy]-3-oxanyl]oxy]-6-methyloxane-3,4,5-triol
> <PUBCHEM_IUPAC_NAME_MARKUP>
2-[4-hydroxy-2-(hydroxymethyl)-6-[[6-methoxy-7,9,13-trimethyl-6-[3-methyl-4-[3,4,5-trihydroxy-6-(hydroxymethyl)oxan-2-yl]oxybutyl]-5-oxapentacyclo[10.8.0.0<SUP>2,9</SUP>.0<SUP>4,8</SUP>.0<SUP>13,18</SUP>]icos-18-en-16-yl]oxy]-5-(3,4,5-trihydroxy-6-methyloxan-2-yl)oxyoxan-3-yl]oxy-6-methyloxane-3,4,5-triol
> <PUBCHEM_IUPAC_NAME>
2-[4-hydroxy-2-(hydroxymethyl)-6-[[6-methoxy-7,9,13-trimethyl-6-[3-methyl-4-[3,4,5-trihydroxy-6-(hydroxymethyl)oxan-2-yl]oxybutyl]-5-oxapentacyclo[10.8.0.02,9.04,8.013,18]icos-18-en-16-yl]oxy]-5-(3,4,5-trihydroxy-6-methyloxan-2-yl)oxyoxan-3-yl]oxy-6-methyloxane-3,4,5-triol
> <PUBCHEM_IUPAC_SYSTEMATIC_NAME>
2-[2-(hydroxymethyl)-6-[[6-[4-[6-(hydroxymethyl)-3,4,5-tris(oxidanyl)oxan-2-yl]oxy-3-methyl-butyl]-6-methoxy-7,9,13-trimethyl-5-oxapentacyclo[10.8.0.02,9.04,8.013,18]icos-18-en-16-yl]oxy]-5-[6-methyl-3,4,5-tris(oxidanyl)oxan-2-yl]oxy-4-oxidanyl-oxan-3-yl]oxy-6-methyl-oxane-3,4,5-triol
> <PUBCHEM_IUPAC_TRADITIONAL_NAME>
2-[4-hydroxy-6-[[6-methoxy-7,9,13-trimethyl-6-[3-methyl-4-(3,4,5-trihydroxy-6-methylol-tetrahydropyran-2-yl)oxy-butyl]-5-oxapentacyclo[10.8.0.02,9.04,8.013,18]eicos-18-en-16-yl]oxy]-2-methylol-5-(3,4,5-trihydroxy-6-methyl-tetrahydropyran-2-yl)oxy-tetrahydropyran-3-yl]oxy-6-methyl-tetrahydropyran-3,4,5-triol
> <PUBCHEM_IUPAC_INCHI>
InChI=1S/C52H86O22/c1-21(20-66-46-40(61)39(60)36(57)31(18-53)70-46)10-15-52(65-7)22(2)33-30(74-52)17-29-27-9-8-25-16-26(11-13-50(25,5)28(27)12-14-51(29,33)6)69-49-45(73-48-42(63)38(59)35(56)24(4)68-48)43(64)44(32(19-54)71-49)72-47-41(62)37(58)34(55)23(3)67-47/h8,21-24,26-49,53-64H,9-20H2,1-7H3
> <PUBCHEM_IUPAC_INCHIKEY>
HSSJYSJXBOCKQM-UHFFFAOYSA-N
> <PUBCHEM_XLOGP3_AA>
-0.7
> <PUBCHEM_EXACT_MASS>
1062.56107437
> <PUBCHEM_MOLECULAR_FORMULA>
C52H86O22
> <PUBCHEM_MOLECULAR_WEIGHT>
1063.2
> <PUBCHEM_OPENEYE_CAN_SMILES>
CC1C2C(CC3C2(CCC4C3CC=C5C4(CCC(C5)OC6C(C(C(C(O6)CO)OC7C(C(C(C(O7)C)O)O)O)O)OC8C(C(C(C(O8)C)O)O)O)C)C)OC1(CCC(C)COC9C(C(C(C(O9)CO)O)O)O)OC
> <PUBCHEM_OPENEYE_ISO_SMILES>
CC1C2C(CC3C2(CCC4C3CC=C5C4(CCC(C5)OC6C(C(C(C(O6)CO)OC7C(C(C(C(O7)C)O)O)O)O)OC8C(C(C(C(O8)C)O)O)O)C)C)OC1(CCC(C)COC9C(C(C(C(O9)CO)O)O)O)OC
> <PUBCHEM_CACTVS_TPSA>
335
> <PUBCHEM_MONOISOTOPIC_WEIGHT>
1062.56107437
> <PUBCHEM_TOTAL_CHARGE>
0
> <PUBCHEM_HEAVY_ATOM_COUNT>
74
> <PUBCHEM_ATOM_DEF_STEREO_COUNT>
0
> <PUBCHEM_ATOM_UDEF_STEREO_COUNT>
31
> <PUBCHEM_BOND_DEF_STEREO_COUNT>
0
> <PUBCHEM_BOND_UDEF_STEREO_COUNT>
0
> <PUBCHEM_ISOTOPIC_ATOM_COUNT>
0
> <PUBCHEM_COMPONENT_COUNT>
1
> <PUBCHEM_CACTVS_TAUTO_COUNT>
1
> <PUBCHEM_COORDINATE_TYPE>
1
5
255
> <PUBCHEM_BONDANNOTATIONS>
23  35  3
24  75  3
25  76  3
26  77  3
27  78  3
28  79  3
31  84  3
33  41  3
34  42  3
45  107  3
48  113  3
49  114  3
52  120  3
53  121  3
54  122  3
55  123  3
56  124  3
58  127  3
59  129  3
60  130  3
61  131  3
62  132  3
63  133  3
64  134  3
65  136  3
66  137  3
67  138  3
68  139  3
70  143  3
71  146  3
72  147  3
$$$$
