500393
  -OEChem-10302200282D
 86 92  0     1  0  0  0  0  0999 V2000
    5.7961   -0.2102    0.0000 O   0  0  0  0  0  0  0  0  0  0  0  0
    9.0843    0.9406    0.0000 O   0  0  0  0  0  0  0  0  0  0  0  0
    6.6699   -1.4332    0.0000 O   0  0  0  0  0  0  0  0  0  0  0  0
    8.4516   -0.4228    0.0000 O   0  0  0  0  0  0  0  0  0  0  0  0
    4.6769    1.2600    0.0000 O   0  0  0  0  0  0  0  0  0  0  0  0
    9.8111    2.6394    0.0000 O   0  0  0  0  0  0  0  0  0  0  0  0
    5.7981   -2.9299    0.0000 O   0  0  0  0  0  0  0  0  0  0  0  0
    6.7196   -0.4027    0.0000 O   0  0  0  0  0  0  0  0  0  0  0  0
    8.4400   -3.4920    0.0000 O   0  0  0  0  0  0  0  0  0  0  0  0
   10.1839   -0.4158    0.0000 O   0  0  0  0  0  0  0  0  0  0  0  0
   11.0781    1.1119    0.0000 O   0  0  0  0  0  0  0  0  0  0  0  0
    2.9322   -1.3760    0.0000 C   0  0  0  0  0  0  0  0  0  0  0  0
    6.6575    2.8567    0.0000 C   0  0  0  0  0  0  0  0  0  0  0  0
    4.0737   -0.9232    0.0000 C   0  0  3  0  0  0  0  0  0  0  0  0
    7.6145    2.0871    0.0000 C   0  0  3  0  0  0  0  0  0  0  0  0
    4.9378   -1.4265    0.0000 C   0  0  3  0  0  0  0  0  0  0  0  0
    7.6030    1.0872    0.0000 C   0  0  3  0  0  0  0  0  0  0  0  0
    4.1522   -2.9898    0.0000 C   0  0  0  0  0  0  0  0  0  0  0  0
    5.8555    0.9994    0.0000 C   0  0  0  0  0  0  0  0  0  0  0  0
    5.1487   -2.9065    0.0000 C   0  0  0  0  0  0  0  0  0  0  0  0
    6.4196    0.1736    0.0000 C   0  0  0  0  0  0  0  0  0  0  0  0
    4.9320    0.2931    0.0000 C   0  0  0  0  0  0  0  0  0  0  0  0
    9.0959    1.9405    0.0000 C   0  0  0  0  0  0  0  0  0  0  0  0
    2.0000   -1.0140    0.0000 C   0  0  0  0  0  0  0  0  0  0  0  0
    2.2999   -2.1507    0.0000 C   0  0  0  0  0  0  0  0  0  0  0  0
    6.5125    3.8461    0.0000 C   0  0  0  0  0  0  0  0  0  0  0  0
    5.6717    3.0245    0.0000 C   0  0  0  0  0  0  0  0  0  0  0  0
    3.2096   -0.4199    0.0000 C   0  0  0  0  0  0  0  0  0  0  0  0
    7.6261    3.0870    0.0000 C   0  0  0  0  0  0  0  0  0  0  0  0
    5.8019   -1.9299    0.0000 C   0  0  0  0  0  0  0  0  0  0  0  0
    7.5914    0.0872    0.0000 C   0  0  0  0  0  0  0  0  0  0  0  0
    7.5340   -1.9365    0.0000 C   0  0  3  0  0  0  0  0  0  0  0  0
    8.4400   -1.4227    0.0000 C   0  0  3  0  0  0  0  0  0  0  0  0
    7.5340   -2.9782    0.0000 C   0  0  0  0  0  0  0  0  0  0  0  0
    9.3340   -1.9574    0.0000 C   0  0  0  0  0  0  0  0  0  0  0  0
    9.3340   -2.9574    0.0000 C   0  0  0  0  0  0  0  0  0  0  0  0
    7.0373   -3.8461    0.0000 C   0  0  0  0  0  0  0  0  0  0  0  0
    6.5340   -2.9820    0.0000 C   0  0  0  0  0  0  0  0  0  0  0  0
   10.2000   -1.4574    0.0000 C   0  0  0  0  0  0  0  0  0  0  0  0
   10.2000   -3.4574    0.0000 C   0  0  0  0  0  0  0  0  0  0  0  0
   11.0660   -1.9574    0.0000 C   0  0  0  0  0  0  0  0  0  0  0  0
   11.0660   -2.9574    0.0000 C   0  0  0  0  0  0  0  0  0  0  0  0
   11.9760   -1.4505    0.0000 C   0  0  0  0  0  0  0  0  0  0  0  0
   11.0820    0.1119    0.0000 C   0  0  0  0  0  0  0  0  0  0  0  0
   11.9840   -0.4089    0.0000 C   0  0  0  0  0  0  0  0  0  0  0  0
   12.8520    0.0877    0.0000 C   0  0  0  0  0  0  0  0  0  0  0  0
    3.5330   -3.0227    0.0000 H   0  0  0  0  0  0  0  0  0  0  0  0
    4.1944   -3.6084    0.0000 H   0  0  0  0  0  0  0  0  0  0  0  0
    5.5215    1.5217    0.0000 H   0  0  0  0  0  0  0  0  0  0  0  0
    5.3384    0.6575    0.0000 H   0  0  0  0  0  0  0  0  0  0  0  0
    5.2123   -3.5232    0.0000 H   0  0  0  0  0  0  0  0  0  0  0  0
    5.7641   -2.8310    0.0000 H   0  0  0  0  0  0  0  0  0  0  0  0
    5.9145   -0.1859    0.0000 H   0  0  0  0  0  0  0  0  0  0  0  0
    6.7889   -0.3244    0.0000 H   0  0  0  0  0  0  0  0  0  0  0  0
    2.2244   -0.4361    0.0000 H   0  0  0  0  0  0  0  0  0  0  0  0
    1.4220   -0.7896    0.0000 H   0  0  0  0  0  0  0  0  0  0  0  0
    1.7756   -1.5920    0.0000 H   0  0  0  0  0  0  0  0  0  0  0  0
    1.8196   -1.7587    0.0000 H   0  0  0  0  0  0  0  0  0  0  0  0
    1.9078   -2.6310    0.0000 H   0  0  0  0  0  0  0  0  0  0  0  0
    2.7802   -2.5427    0.0000 H   0  0  0  0  0  0  0  0  0  0  0  0
    7.1260    3.9360    0.0000 H   0  0  0  0  0  0  0  0  0  0  0  0
    6.4226    4.4596    0.0000 H   0  0  0  0  0  0  0  0  0  0  0  0
    5.8991    3.7562    0.0000 H   0  0  0  0  0  0  0  0  0  0  0  0
    5.7758    3.6357    0.0000 H   0  0  0  0  0  0  0  0  0  0  0  0
    5.0605    3.1286    0.0000 H   0  0  0  0  0  0  0  0  0  0  0  0
    5.5676    2.4133    0.0000 H   0  0  0  0  0  0  0  0  0  0  0  0
    3.5217    0.1159    0.0000 H   0  0  0  0  0  0  0  0  0  0  0  0
    2.6739   -0.1078    0.0000 H   0  0  0  0  0  0  0  0  0  0  0  0
    2.8976   -0.9556    0.0000 H   0  0  0  0  0  0  0  0  0  0  0  0
    8.2460    3.0798    0.0000 H   0  0  0  0  0  0  0  0  0  0  0  0
    7.6332    3.7070    0.0000 H   0  0  0  0  0  0  0  0  0  0  0  0
    7.0061    3.0942    0.0000 H   0  0  0  0  0  0  0  0  0  0  0  0
    6.9964   -2.2455    0.0000 H   0  0  0  0  0  0  0  0  0  0  0  0
    8.9811   -1.1200    0.0000 H   0  0  0  0  0  0  0  0  0  0  0  0
    6.4992   -3.5382    0.0000 H   0  0  0  0  0  0  0  0  0  0  0  0
    6.7294   -4.3842    0.0000 H   0  0  0  0  0  0  0  0  0  0  0  0
    7.5754   -4.1540    0.0000 H   0  0  0  0  0  0  0  0  0  0  0  0
    6.5316   -2.3620    0.0000 H   0  0  0  0  0  0  0  0  0  0  0  0
    5.9140   -2.9844    0.0000 H   0  0  0  0  0  0  0  0  0  0  0  0
    6.5364   -3.6020    0.0000 H   0  0  0  0  0  0  0  0  0  0  0  0
   10.2000   -4.0774    0.0000 H   0  0  0  0  0  0  0  0  0  0  0  0
   11.6029   -3.2674    0.0000 H   0  0  0  0  0  0  0  0  0  0  0  0
   12.5093   -1.7667    0.0000 H   0  0  0  0  0  0  0  0  0  0  0  0
   13.1599   -0.4504    0.0000 H   0  0  0  0  0  0  0  0  0  0  0  0
   13.3901    0.3957    0.0000 H   0  0  0  0  0  0  0  0  0  0  0  0
   12.5441    0.6259    0.0000 H   0  0  0  0  0  0  0  0  0  0  0  0
  1 16  1  0  0  0  0
  1 22  1  0  0  0  0
  2 17  1  0  0  0  0
  2 23  1  0  0  0  0
  3 30  1  0  0  0  0
  3 32  1  0  0  0  0
  4 31  1  0  0  0  0
  4 33  1  0  0  0  0
  5 22  2  0  0  0  0
  6 23  2  0  0  0  0
  7 30  2  0  0  0  0
  8 31  2  0  0  0  0
  9 34  1  0  0  0  0
  9 36  1  0  0  0  0
 10 39  1  0  0  0  0
 10 44  1  0  0  0  0
 11 44  2  0  0  0  0
 12 14  1  0  0  0  0
 12 16  1  0  0  0  0
 12 24  1  0  0  0  0
 12 25  1  0  0  0  0
 13 15  1  0  0  0  0
 13 17  1  0  0  0  0
 13 26  1  0  0  0  0
 13 27  1  0  0  0  0
 14 18  1  0  0  0  0
 14 22  1  0  0  0  0
 14 28  1  0  0  0  0
 15 19  1  0  0  0  0
 15 23  1  0  0  0  0
 15 29  1  0  0  0  0
 16 20  1  0  0  0  0
 16 30  1  0  0  0  0
 17 21  1  0  0  0  0
 17 31  1  0  0  0  0
 18 20  1  0  0  0  0
 18 47  1  0  0  0  0
 18 48  1  0  0  0  0
 19 21  1  0  0  0  0
 19 49  1  0  0  0  0
 19 50  1  0  0  0  0
 20 51  1  0  0  0  0
 20 52  1  0  0  0  0
 21 53  1  0  0  0  0
 21 54  1  0  0  0  0
 24 55  1  0  0  0  0
 24 56  1  0  0  0  0
 24 57  1  0  0  0  0
 25 58  1  0  0  0  0
 25 59  1  0  0  0  0
 25 60  1  0  0  0  0
 26 61  1  0  0  0  0
 26 62  1  0  0  0  0
 26 63  1  0  0  0  0
 27 64  1  0  0  0  0
 27 65  1  0  0  0  0
 27 66  1  0  0  0  0
 28 67  1  0  0  0  0
 28 68  1  0  0  0  0
 28 69  1  0  0  0  0
 29 70  1  0  0  0  0
 29 71  1  0  0  0  0
 29 72  1  0  0  0  0
 32 33  1  0  0  0  0
 32 34  1  0  0  0  0
 32 73  1  0  0  0  0
 33 35  1  0  0  0  0
 33 74  1  0  0  0  0
 34 37  1  0  0  0  0
 34 38  1  0  0  0  0
 35 36  2  0  0  0  0
 35 39  1  0  0  0  0
 36 40  1  0  0  0  0
 37 75  1  0  0  0  0
 37 76  1  0  0  0  0
 37 77  1  0  0  0  0
 38 78  1  0  0  0  0
 38 79  1  0  0  0  0
 38 80  1  0  0  0  0
 39 41  2  0  0  0  0
 40 42  2  0  0  0  0
 40 81  1  0  0  0  0
 41 42  1  0  0  0  0
 41 43  1  0  0  0  0
 42 82  1  0  0  0  0
 43 45  2  0  0  0  0
 43 83  1  0  0  0  0
 44 45  1  0  0  0  0
 45 46  1  0  0  0  0
 46 84  1  0  0  0  0
 46 85  1  0  0  0  0
 46 86  1  0  0  0  0
M  END
> <PUBCHEM_COMPOUND_CID>
500393
> <PUBCHEM_COMPOUND_CANONICALIZED>
1
> <PUBCHEM_CACTVS_COMPLEXITY>
1490
> <PUBCHEM_CACTVS_HBOND_ACCEPTOR>
11
> <PUBCHEM_CACTVS_HBOND_DONOR>
0
> <PUBCHEM_CACTVS_ROTATABLE_BOND>
6
> <PUBCHEM_CACTVS_SUBSKEYS>
AAADcfB8PAAAAAAAAAAAAAAAAAAAAaNECAA0SJECAAAAAACRAAAAGgAAAAAADlSgmAIyDoAABACIAiDSCAICCAAgIAAIiAFGCMgNJzKEMR6COiClwBUKqYfK7vzPoAACCAAIAABAAAQQABAAAYAADAAAAA==
> <PUBCHEM_IUPAC_OPENEYE_NAME>
[3,8,8-trimethyl-2-oxo-9-(4,7,7-trimethyl-3-oxo-2-oxabicyclo[2.2.1]heptane-1-carbonyl)oxy-9,10-dihydropyrano[2,3-f]chromen-10-yl] 4,7,7-trimethyl-3-oxo-2-oxabicyclo[2.2.1]heptane-1-carboxylate
> <PUBCHEM_IUPAC_CAS_NAME>
4,7,7-trimethyl-3-oxo-2-oxabicyclo[2.2.1]heptane-1-carboxylic acid [3,8,8-trimethyl-2-oxo-9-[oxo-(4,7,7-trimethyl-3-oxo-2-oxabicyclo[2.2.1]heptan-1-yl)methoxy]-9,10-dihydropyrano[2,3-f][1]benzopyran-10-yl] ester
> <PUBCHEM_IUPAC_NAME_MARKUP>
[3,8,8-trimethyl-2-oxo-9-(4,7,7-trimethyl-3-oxo-2-oxabicyclo[2.2.1]heptane-1-carbonyl)oxy-9,10-dihydropyrano[2,3-f]chromen-10-yl] 4,7,7-trimethyl-3-oxo-2-oxabicyclo[2.2.1]heptane-1-carboxylate
> <PUBCHEM_IUPAC_NAME>
[3,8,8-trimethyl-2-oxo-9-(4,7,7-trimethyl-3-oxo-2-oxabicyclo[2.2.1]heptane-1-carbonyl)oxy-9,10-dihydropyrano[2,3-f]chromen-10-yl] 4,7,7-trimethyl-3-oxo-2-oxabicyclo[2.2.1]heptane-1-carboxylate
> <PUBCHEM_IUPAC_SYSTEMATIC_NAME>
[3,8,8-trimethyl-2-oxidanylidene-9-[(4,7,7-trimethyl-3-oxidanylidene-2-oxabicyclo[2.2.1]heptan-1-yl)carbonyloxy]-9,10-dihydropyrano[2,3-f]chromen-10-yl] 4,7,7-trimethyl-3-oxidanylidene-2-oxabicyclo[2.2.1]heptane-1-carboxylate
> <PUBCHEM_IUPAC_TRADITIONAL_NAME>
3-keto-4,7,7-trimethyl-2-oxabicyclo[2.2.1]heptane-1-carboxylic acid [2-keto-9-(3-keto-4,7,7-trimethyl-2-oxabicyclo[2.2.1]heptane-1-carbonyl)oxy-3,8,8-trimethyl-9,10-dihydropyrano[2,3-f]chromen-10-yl] ester
> <PUBCHEM_IUPAC_INCHI>
InChI=1S/C35H40O11/c1-17-16-18-10-11-19-20(21(18)41-24(17)36)22(42-27(39)34-14-12-32(8,25(37)45-34)30(34,4)5)23(29(2,3)44-19)43-28(40)35-15-13-33(9,26(38)46-35)31(35,6)7/h10-11,16,22-23H,12-15H2,1-9H3
> <PUBCHEM_IUPAC_INCHIKEY>
XFDXYIVZZMRHDH-UHFFFAOYSA-N
> <PUBCHEM_XLOGP3_AA>
5.4
> <PUBCHEM_EXACT_MASS>
636.25706209
> <PUBCHEM_MOLECULAR_FORMULA>
C35H40O11
> <PUBCHEM_MOLECULAR_WEIGHT>
636.7
> <PUBCHEM_OPENEYE_CAN_SMILES>
CC1=CC2=C(C3=C(C=C2)OC(C(C3OC(=O)C45CCC(C4(C)C)(C(=O)O5)C)OC(=O)C67CCC(C6(C)C)(C(=O)O7)C)(C)C)OC1=O
> <PUBCHEM_OPENEYE_ISO_SMILES>
CC1=CC2=C(C3=C(C=C2)OC(C(C3OC(=O)C45CCC(C4(C)C)(C(=O)O5)C)OC(=O)C67CCC(C6(C)C)(C(=O)O7)C)(C)C)OC1=O
> <PUBCHEM_CACTVS_TPSA>
141
> <PUBCHEM_MONOISOTOPIC_WEIGHT>
636.25706209
> <PUBCHEM_TOTAL_CHARGE>
0
> <PUBCHEM_HEAVY_ATOM_COUNT>
46
> <PUBCHEM_ATOM_DEF_STEREO_COUNT>
0
> <PUBCHEM_ATOM_UDEF_STEREO_COUNT>
6
> <PUBCHEM_BOND_DEF_STEREO_COUNT>
0
> <PUBCHEM_BOND_UDEF_STEREO_COUNT>
0
> <PUBCHEM_ISOTOPIC_ATOM_COUNT>
0
> <PUBCHEM_COMPONENT_COUNT>
1
> <PUBCHEM_CACTVS_TAUTO_COUNT>
-1
> <PUBCHEM_COORDINATE_TYPE>
1
5
255
> <PUBCHEM_BONDANNOTATIONS>
10  39  8
10  44  8
14  28  3
15  29  3
16  30  3
17  31  3
32  3  3
35  36  8
35  39  8
36  40  8
39  41  8
33  4  3
40  42  8
41  42  8
41  43  8
43  45  8
44  45  8
$$$$
