500390
  -OEChem-10302200282D
 64 69  0     1  0  0  0  0  0999 V2000
    5.4588    1.0152    0.0000 O   0  0  0  0  0  0  0  0  0  0  0  0
    7.0619   -2.1519    0.0000 O   0  0  0  0  0  0  0  0  0  0  0  0
    4.5928   -0.4848    0.0000 O   0  0  0  0  0  0  0  0  0  0  0  0
    4.0884   -2.3577    0.0000 O   0  0  0  0  0  0  0  0  0  0  0  0
    7.1568   -3.9257    0.0000 O   0  0  0  0  0  0  0  0  0  0  0  0
    3.3416   -4.2673    0.0000 O   0  0  0  0  0  0  0  0  0  0  0  0
    4.9611   -4.8814    0.0000 O   0  0  0  0  0  0  0  0  0  0  0  0
    4.5928   -1.4848    0.0000 N   0  0  3  0  0  0  0  0  0  0  0  0
    5.4588   -1.9848    0.0000 C   0  0  3  0  0  0  0  0  0  0  0  0
    4.4883    2.5097    0.0000 C   0  0  0  0  0  0  0  0  0  0  0  0
    4.5928    1.5152    0.0000 C   0  0  3  0  0  0  0  0  0  0  0  0
    6.3249   -1.4848    0.0000 C   0  0  3  0  0  0  0  0  0  0  0  0
    5.6681   -2.9566    0.0000 C   0  0  3  0  0  0  0  0  0  0  0  0
    3.5102    2.7176    0.0000 C   0  0  0  0  0  0  0  0  0  0  0  0
    6.3249   -0.4848    0.0000 C   0  0  0  0  0  0  0  0  0  0  0  0
    3.6793    1.1084    0.0000 C   0  0  0  0  0  0  0  0  0  0  0  0
    5.4588    0.0152    0.0000 C   0  0  3  0  0  0  0  0  0  0  0  0
    3.0102    1.8516    0.0000 C   0  0  0  0  0  0  0  0  0  0  0  0
    4.6831   -3.1718    0.0000 C   0  0  3  0  0  0  0  0  0  0  0  0
    6.6568   -3.0597    0.0000 C   0  0  0  0  0  0  0  0  0  0  0  0
    4.1793    3.4607    0.0000 C   0  0  0  0  0  0  0  0  0  0  0  0
    5.4828    2.6142    0.0000 C   0  0  0  0  0  0  0  0  0  0  0  0
    4.3286   -4.1068    0.0000 C   0  0  0  0  0  0  0  0  0  0  0  0
    4.8484    4.2039    0.0000 C   0  0  0  0  0  0  0  0  0  0  0  0
    5.8896    3.5278    0.0000 C   0  0  0  0  0  0  0  0  0  0  0  0
    3.2011    3.6686    0.0000 C   0  0  0  0  0  0  0  0  0  0  0  0
    6.0706    1.8052    0.0000 C   0  0  0  0  0  0  0  0  0  0  0  0
    4.5394    5.1549    0.0000 C   0  0  0  0  0  0  0  0  0  0  0  0
    6.8841    3.6323    0.0000 C   0  0  0  0  0  0  0  0  0  0  0  0
    2.8921    4.6197    0.0000 C   0  0  0  0  0  0  0  0  0  0  0  0
    7.0651    1.9097    0.0000 C   0  0  0  0  0  0  0  0  0  0  0  0
    3.5612    5.3629    0.0000 C   0  0  0  0  0  0  0  0  0  0  0  0
    7.4719    2.8233    0.0000 C   0  0  0  0  0  0  0  0  0  0  0  0
    2.9870   -5.2024    0.0000 C   0  0  0  0  0  0  0  0  0  0  0  0
    2.0000   -5.3629    0.0000 C   0  0  0  0  0  0  0  0  0  0  0  0
    4.9577   -2.3499    0.0000 H   0  0  0  0  0  0  0  0  0  0  0  0
    5.1128    1.8528    0.0000 H   0  0  0  0  0  0  0  0  0  0  0  0
    6.8916   -1.2334    0.0000 H   0  0  0  0  0  0  0  0  0  0  0  0
    5.7025   -3.5757    0.0000 H   0  0  0  0  0  0  0  0  0  0  0  0
    3.7017    3.3072    0.0000 H   0  0  0  0  0  0  0  0  0  0  0  0
    2.9438    2.9698    0.0000 H   0  0  0  0  0  0  0  0  0  0  0  0
    6.9355   -0.5925    0.0000 H   0  0  0  0  0  0  0  0  0  0  0  0
    6.5369    0.0978    0.0000 H   0  0  0  0  0  0  0  0  0  0  0  0
    3.1777    0.7440    0.0000 H   0  0  0  0  0  0  0  0  0  0  0  0
    3.9893    0.5715    0.0000 H   0  0  0  0  0  0  0  0  0  0  0  0
    4.9219    0.3252    0.0000 H   0  0  0  0  0  0  0  0  0  0  0  0
    2.5086    2.2160    0.0000 H   0  0  0  0  0  0  0  0  0  0  0  0
    2.5953    1.3908    0.0000 H   0  0  0  0  0  0  0  0  0  0  0  0
    4.0687   -3.2548    0.0000 H   0  0  0  0  0  0  0  0  0  0  0  0
    5.4549    4.0750    0.0000 H   0  0  0  0  0  0  0  0  0  0  0  0
    5.5251    4.0294    0.0000 H   0  0  0  0  0  0  0  0  0  0  0  0
    2.7863    3.2079    0.0000 H   0  0  0  0  0  0  0  0  0  0  0  0
    5.8184    1.2388    0.0000 H   0  0  0  0  0  0  0  0  0  0  0  0
    4.9543    5.6157    0.0000 H   0  0  0  0  0  0  0  0  0  0  0  0
    7.1362    4.1987    0.0000 H   0  0  0  0  0  0  0  0  0  0  0  0
    2.2857    4.7486    0.0000 H   0  0  0  0  0  0  0  0  0  0  0  0
    7.4296    1.4081    0.0000 H   0  0  0  0  0  0  0  0  0  0  0  0
    3.3697    5.9525    0.0000 H   0  0  0  0  0  0  0  0  0  0  0  0
    8.0885    2.8881    0.0000 H   0  0  0  0  0  0  0  0  0  0  0  0
    2.9788   -5.8223    0.0000 H   0  0  0  0  0  0  0  0  0  0  0  0
    3.5961   -5.3182    0.0000 H   0  0  0  0  0  0  0  0  0  0  0  0
    1.9005   -4.7509    0.0000 H   0  0  0  0  0  0  0  0  0  0  0  0
    1.3880   -5.4624    0.0000 H   0  0  0  0  0  0  0  0  0  0  0  0
    2.0995   -5.9748    0.0000 H   0  0  0  0  0  0  0  0  0  0  0  0
  1 11  1  0  0  0  0
  1 17  1  0  0  0  0
  2 12  1  0  0  0  0
  2 20  1  0  0  0  0
  3  8  1  0  0  0  0
  3 17  1  0  0  0  0
  4  8  1  0  0  0  0
  4 19  1  0  0  0  0
  5 20  2  0  0  0  0
  6 23  1  0  0  0  0
  6 34  1  0  0  0  0
  7 23  2  0  0  0  0
  8  9  1  0  0  0  0
  9 12  1  0  0  0  0
  9 13  1  0  0  0  0
  9 36  1  0  0  0  0
 10 11  1  0  0  0  0
 10 14  1  0  0  0  0
 10 21  1  0  0  0  0
 10 22  1  0  0  0  0
 11 16  1  0  0  0  0
 11 37  1  0  0  0  0
 12 15  1  0  0  0  0
 12 38  1  0  0  0  0
 13 19  1  0  0  0  0
 13 20  1  0  0  0  0
 13 39  1  0  0  0  0
 14 18  1  0  0  0  0
 14 40  1  0  0  0  0
 14 41  1  0  0  0  0
 15 17  1  0  0  0  0
 15 42  1  0  0  0  0
 15 43  1  0  0  0  0
 16 18  1  0  0  0  0
 16 44  1  0  0  0  0
 16 45  1  0  0  0  0
 17 46  1  0  0  0  0
 18 47  1  0  0  0  0
 18 48  1  0  0  0  0
 19 23  1  0  0  0  0
 19 49  1  0  0  0  0
 21 24  2  0  0  0  0
 21 26  1  0  0  0  0
 22 25  2  0  0  0  0
 22 27  1  0  0  0  0
 24 28  1  0  0  0  0
 24 50  1  0  0  0  0
 25 29  1  0  0  0  0
 25 51  1  0  0  0  0
 26 30  2  0  0  0  0
 26 52  1  0  0  0  0
 27 31  2  0  0  0  0
 27 53  1  0  0  0  0
 28 32  2  0  0  0  0
 28 54  1  0  0  0  0
 29 33  2  0  0  0  0
 29 55  1  0  0  0  0
 30 32  1  0  0  0  0
 30 56  1  0  0  0  0
 31 33  1  0  0  0  0
 31 57  1  0  0  0  0
 32 58  1  0  0  0  0
 33 59  1  0  0  0  0
 34 35  1  0  0  0  0
 34 60  1  0  0  0  0
 34 61  1  0  0  0  0
 35 62  1  0  0  0  0
 35 63  1  0  0  0  0
 35 64  1  0  0  0  0
M  END
> <PUBCHEM_COMPOUND_CID>
500390
> <PUBCHEM_COMPOUND_CANONICALIZED>
1
> <PUBCHEM_CACTVS_COMPLEXITY>
774
> <PUBCHEM_CACTVS_HBOND_ACCEPTOR>
8
> <PUBCHEM_CACTVS_HBOND_DONOR>
0
> <PUBCHEM_CACTVS_ROTATABLE_BOND>
7
> <PUBCHEM_CACTVS_SUBSKEYS>
AAADceB6OAAAAAAAAAAAAAAAAAAAAeJEAAA8YIAAAAAWAFgBQAAAHgAEAAAADzzxmAcyCIAQRACIAiDSCAICAAAgAAAoiAFAAIgbID6AkRCDIAAn4AEOiAfv7PzPgAAAAAAAAAAAAAAAAAAAAAAABAAAAA==
> <PUBCHEM_IUPAC_OPENEYE_NAME>
ethyl 9-(2,2-diphenylcyclopentoxy)-5-oxo-2,6,10-trioxa-1-azatricyclo[5.3.1.04,11]undecane-3-carboxylate
> <PUBCHEM_IUPAC_CAS_NAME>
9-(2,2-diphenylcyclopentyl)oxy-5-oxo-2,6,10-trioxa-1-azatricyclo[5.3.1.04,11]undecane-3-carboxylic acid ethyl ester
> <PUBCHEM_IUPAC_NAME_MARKUP>
ethyl 9-(2,2-diphenylcyclopentyl)oxy-5-oxo-2,6,10-trioxa-1-azatricyclo[5.3.1.0<SUP>4,11</SUP>]undecane-3-carboxylate
> <PUBCHEM_IUPAC_NAME>
ethyl 9-(2,2-diphenylcyclopentyl)oxy-5-oxo-2,6,10-trioxa-1-azatricyclo[5.3.1.04,11]undecane-3-carboxylate
> <PUBCHEM_IUPAC_SYSTEMATIC_NAME>
ethyl 9-(2,2-diphenylcyclopentyl)oxy-5-oxidanylidene-2,6,10-trioxa-1-azatricyclo[5.3.1.04,11]undecane-3-carboxylate
> <PUBCHEM_IUPAC_TRADITIONAL_NAME>
9-(2,2-diphenylcyclopentoxy)-5-keto-2,6,10-trioxa-1-azatricyclo[5.3.1.04,11]undecane-3-carboxylic acid ethyl ester
> <PUBCHEM_IUPAC_INCHI>
InChI=1S/C27H29NO7/c1-2-31-26(30)24-22-23-19(32-25(22)29)16-21(34-28(23)35-24)33-20-14-9-15-27(20,17-10-5-3-6-11-17)18-12-7-4-8-13-18/h3-8,10-13,19-24H,2,9,14-16H2,1H3
> <PUBCHEM_IUPAC_INCHIKEY>
HLZJVFBGLRFUNF-UHFFFAOYSA-N
> <PUBCHEM_XLOGP3_AA>
4.7
> <PUBCHEM_EXACT_MASS>
479.19440226
> <PUBCHEM_MOLECULAR_FORMULA>
C27H29NO7
> <PUBCHEM_MOLECULAR_WEIGHT>
479.5
> <PUBCHEM_OPENEYE_CAN_SMILES>
CCOC(=O)C1C2C3C(CC(ON3O1)OC4CCCC4(C5=CC=CC=C5)C6=CC=CC=C6)OC2=O
> <PUBCHEM_OPENEYE_ISO_SMILES>
CCOC(=O)C1C2C3C(CC(ON3O1)OC4CCCC4(C5=CC=CC=C5)C6=CC=CC=C6)OC2=O
> <PUBCHEM_CACTVS_TPSA>
83.5
> <PUBCHEM_MONOISOTOPIC_WEIGHT>
479.19440226
> <PUBCHEM_TOTAL_CHARGE>
0
> <PUBCHEM_HEAVY_ATOM_COUNT>
35
> <PUBCHEM_ATOM_DEF_STEREO_COUNT>
0
> <PUBCHEM_ATOM_UDEF_STEREO_COUNT>
6
> <PUBCHEM_BOND_DEF_STEREO_COUNT>
0
> <PUBCHEM_BOND_UDEF_STEREO_COUNT>
0
> <PUBCHEM_ISOTOPIC_ATOM_COUNT>
0
> <PUBCHEM_COMPONENT_COUNT>
1
> <PUBCHEM_CACTVS_TAUTO_COUNT>
-1
> <PUBCHEM_COORDINATE_TYPE>
1
5
255
> <PUBCHEM_BONDANNOTATIONS>
11  1  3
17  1  3
12  15  3
13  20  3
19  23  3
21  24  8
21  26  8
22  25  8
22  27  8
24  28  8
25  29  8
26  30  8
27  31  8
28  32  8
29  33  8
30  32  8
31  33  8
9  8  3
$$$$
