500352
  -OEChem-10302200282D
 62 65  0     1  0  0  0  0  0999 V2000
    7.7469   -1.3157    0.0000 P   0  0  3  0  0  0  0  0  0  0  0  0
    5.8858    1.1488    0.0000 O   0  0  0  0  0  0  0  0  0  0  0  0
   10.9170   -2.8292    0.0000 O   0  0  0  0  0  0  0  0  0  0  0  0
    7.1591   -0.5067    0.0000 O   0  0  0  0  0  0  0  0  0  0  0  0
    8.3347   -2.1248    0.0000 O   0  0  0  0  0  0  0  0  0  0  0  0
    8.5559   -0.7280    0.0000 O   0  0  0  0  0  0  0  0  0  0  0  0
    6.9379   -1.9035    0.0000 O   0  0  0  0  0  0  0  0  0  0  0  0
    6.8089    2.7366    0.0000 O   0  0  0  0  0  0  0  0  0  0  0  0
   11.6419   -5.7366    0.0000 O   0  0  0  0  0  0  0  0  0  0  0  0
    5.0768    5.7366    0.0000 O   0  0  0  0  0  0  0  0  0  0  0  0
    5.0768    2.7366    0.0000 N   0  0  0  0  0  0  0  0  0  0  0  0
   12.1771   -4.0893    0.0000 N   0  0  0  0  0  0  0  0  0  0  0  0
    3.9890   -0.6113    0.0000 N   0  0  0  0  0  0  0  0  0  0  0  0
    5.9428    4.2366    0.0000 N   0  0  0  0  0  0  0  0  0  0  0  0
    2.9945   -0.5067    0.0000 N   0  3  0  0  0  0  0  0  0  0  0  0
   13.3361   -5.3765    0.0000 N   0  0  0  0  0  0  0  0  0  0  0  0
   15.0303   -5.0164    0.0000 N   0  0  0  0  0  0  0  0  0  0  0  0
    2.0000   -0.4022    0.0000 N   0  5  0  0  0  0  0  0  0  0  0  0
    4.5768    0.1978    0.0000 C   0  0  3  0  0  0  0  0  0  0  0  0
    5.5768    0.1978    0.0000 C   0  0  3  0  0  0  0  0  0  0  0  0
    4.2678    1.1488    0.0000 C   0  0  0  0  0  0  0  0  0  0  0  0
    5.0768    1.7366    0.0000 C   0  0  3  0  0  0  0  0  0  0  0  0
    9.9170   -2.8292    0.0000 C   0  0  2  0  0  0  0  0  0  0  0  0
    9.6080   -3.7803    0.0000 C   0  0  0  0  0  0  0  0  0  0  0  0
   10.4170   -4.3681    0.0000 C   0  0  0  0  0  0  0  0  0  0  0  0
   11.2260   -3.7803    0.0000 C   0  0  2  0  0  0  0  0  0  0  0  0
    6.1646   -0.6113    0.0000 C   0  0  0  0  0  0  0  0  0  0  0  0
    9.3292   -2.0202    0.0000 C   0  0  0  0  0  0  0  0  0  0  0  0
    4.2108    3.2366    0.0000 C   0  0  0  0  0  0  0  0  0  0  0  0
    5.9428    3.2366    0.0000 C   0  0  0  0  0  0  0  0  0  0  0  0
    4.2108    4.2366    0.0000 C   0  0  0  0  0  0  0  0  0  0  0  0
   12.9202   -3.4202    0.0000 C   0  0  0  0  0  0  0  0  0  0  0  0
   12.3850   -5.0675    0.0000 C   0  0  0  0  0  0  0  0  0  0  0  0
    5.0768    4.7366    0.0000 C   0  0  0  0  0  0  0  0  0  0  0  0
   13.8713   -3.7292    0.0000 C   0  0  0  0  0  0  0  0  0  0  0  0
    3.3448    4.7366    0.0000 C   0  0  0  0  0  0  0  0  0  0  0  0
   14.0792   -4.7074    0.0000 C   0  0  0  0  0  0  0  0  0  0  0  0
    3.9645    0.2948    0.0000 H   0  0  0  0  0  0  0  0  0  0  0  0
    6.1892    0.2948    0.0000 H   0  0  0  0  0  0  0  0  0  0  0  0
    3.9578    1.6858    0.0000 H   0  0  0  0  0  0  0  0  0  0  0  0
    3.7014    0.8966    0.0000 H   0  0  0  0  0  0  0  0  0  0  0  0
    4.5244    2.0181    0.0000 H   0  0  0  0  0  0  0  0  0  0  0  0
   10.1985   -2.2768    0.0000 H   0  0  0  0  0  0  0  0  0  0  0  0
    9.0416   -3.5281    0.0000 H   0  0  0  0  0  0  0  0  0  0  0  0
    9.2980   -4.3172    0.0000 H   0  0  0  0  0  0  0  0  0  0  0  0
   10.0022   -4.8288    0.0000 H   0  0  0  0  0  0  0  0  0  0  0  0
   10.8319   -4.8288    0.0000 H   0  0  0  0  0  0  0  0  0  0  0  0
   11.6644   -3.3419    0.0000 H   0  0  0  0  0  0  0  0  0  0  0  0
    5.6074   -0.8830    0.0000 H   0  0  0  0  0  0  0  0  0  0  0  0
    6.3355   -1.2072    0.0000 H   0  0  0  0  0  0  0  0  0  0  0  0
    9.8865   -1.7484    0.0000 H   0  0  0  0  0  0  0  0  0  0  0  0
    9.1583   -1.4242    0.0000 H   0  0  0  0  0  0  0  0  0  0  0  0
    3.6739    2.9266    0.0000 H   0  0  0  0  0  0  0  0  0  0  0  0
   12.7913   -2.8137    0.0000 H   0  0  0  0  0  0  0  0  0  0  0  0
    6.4798    4.5466    0.0000 H   0  0  0  0  0  0  0  0  0  0  0  0
   14.3320   -3.3144    0.0000 H   0  0  0  0  0  0  0  0  0  0  0  0
    3.6548    5.2735    0.0000 H   0  0  0  0  0  0  0  0  0  0  0  0
    2.8078    5.0466    0.0000 H   0  0  0  0  0  0  0  0  0  0  0  0
    3.0348    4.1997    0.0000 H   0  0  0  0  0  0  0  0  0  0  0  0
    8.4911   -0.1114    0.0000 H   0  0  0  0  0  0  0  0  0  0  0  0
   15.4910   -4.6015    0.0000 H   0  0  0  0  0  0  0  0  0  0  0  0
   15.1592   -5.6228    0.0000 H   0  0  0  0  0  0  0  0  0  0  0  0
  1  4  1  0  0  0  0
  1  5  1  0  0  0  0
  1  6  1  0  0  0  0
  1  7  2  0  0  0  0
  2 20  1  0  0  0  0
  2 22  1  0  0  0  0
  3 23  1  0  0  0  0
  3 26  1  0  0  0  0
  4 27  1  0  0  0  0
  5 28  1  0  0  0  0
  6 60  1  0  0  0  0
  8 30  2  0  0  0  0
  9 33  2  0  0  0  0
 10 34  2  0  0  0  0
 11 22  1  0  0  0  0
 11 29  1  0  0  0  0
 11 30  1  0  0  0  0
 26 12  1  6  0  0  0
 12 32  1  0  0  0  0
 12 33  1  0  0  0  0
 13 15  2  0  0  0  0
 13 19  1  0  0  0  0
 14 30  1  0  0  0  0
 14 34  1  0  0  0  0
 14 55  1  0  0  0  0
 15 18  2  0  0  0  0
 16 33  1  0  0  0  0
 16 37  2  0  0  0  0
 17 37  1  0  0  0  0
 17 61  1  0  0  0  0
 17 62  1  0  0  0  0
 19 20  1  0  0  0  0
 19 21  1  0  0  0  0
 19 38  1  0  0  0  0
 20 27  1  0  0  0  0
 20 39  1  0  0  0  0
 21 22  1  0  0  0  0
 21 40  1  0  0  0  0
 21 41  1  0  0  0  0
 22 42  1  0  0  0  0
 23 24  1  0  0  0  0
 23 28  1  6  0  0  0
 23 43  1  0  0  0  0
 24 25  1  0  0  0  0
 24 44  1  0  0  0  0
 24 45  1  0  0  0  0
 25 26  1  0  0  0  0
 25 46  1  0  0  0  0
 25 47  1  0  0  0  0
 26 48  1  0  0  0  0
 27 49  1  0  0  0  0
 27 50  1  0  0  0  0
 28 51  1  0  0  0  0
 28 52  1  0  0  0  0
 29 31  2  0  0  0  0
 29 53  1  0  0  0  0
 31 34  1  0  0  0  0
 31 36  1  0  0  0  0
 32 35  2  0  0  0  0
 32 54  1  0  0  0  0
 35 37  1  0  0  0  0
 35 56  1  0  0  0  0
 36 57  1  0  0  0  0
 36 58  1  0  0  0  0
 36 59  1  0  0  0  0
M  CHG  2  15   1  18  -1
M  END
> <PUBCHEM_COMPOUND_CID>
500352
> <PUBCHEM_COMPOUND_CANONICALIZED>
1
> <PUBCHEM_CACTVS_COMPLEXITY>
1150
> <PUBCHEM_CACTVS_HBOND_ACCEPTOR>
11
> <PUBCHEM_CACTVS_HBOND_DONOR>
3
> <PUBCHEM_CACTVS_ROTATABLE_BOND>
9
> <PUBCHEM_CACTVS_SUBSKEYS>
AAADceB7/AIAAAAAAAAAAAAAAAAAASJAAAAgQAAAAAAAAAAAAAAAHgAYCCAADDzhgAYDAAPABRCqQiN2dICAAAEAAgAIAAEYAFCDAAIAwQAPAAAOFyICAMCwMAIAAAAAAAAAAAAAAAAAAAAAAAAAAAAAAA==
> <PUBCHEM_IUPAC_OPENEYE_NAME>
[(2R,5S)-5-(4-amino-2-oxo-pyrimidin-1-yl)tetrahydrofuran-2-yl]methyl [3-azido-5-(5-methyl-2,4-dioxo-pyrimidin-1-yl)tetrahydrofuran-2-yl]methyl hydrogen phosphate
> <PUBCHEM_IUPAC_CAS_NAME>
[(2R,5S)-5-(4-amino-2-oxo-1-pyrimidinyl)-2-oxolanyl]methyl [3-azido-5-(5-methyl-2,4-dioxo-1-pyrimidinyl)-2-oxolanyl]methyl hydrogen phosphate
> <PUBCHEM_IUPAC_NAME_MARKUP>
[(2<I>R</I>,5<I>S</I>)-5-(4-amino-2-oxopyrimidin-1-yl)oxolan-2-yl]methyl [3-azido-5-(5-methyl-2,4-dioxopyrimidin-1-yl)oxolan-2-yl]methyl hydrogen phosphate
> <PUBCHEM_IUPAC_NAME>
[(2R,5S)-5-(4-amino-2-oxopyrimidin-1-yl)oxolan-2-yl]methyl [3-azido-5-(5-methyl-2,4-dioxopyrimidin-1-yl)oxolan-2-yl]methyl hydrogen phosphate
> <PUBCHEM_IUPAC_SYSTEMATIC_NAME>
[(2R,5S)-5-(4-azanyl-2-oxidanylidene-pyrimidin-1-yl)oxolan-2-yl]methyl [3-azido-5-[5-methyl-2,4-bis(oxidanylidene)pyrimidin-1-yl]oxolan-2-yl]methyl hydrogen phosphate
> <PUBCHEM_IUPAC_TRADITIONAL_NAME>
[(2R,5S)-5-(4-amino-2-keto-pyrimidin-1-yl)tetrahydrofuran-2-yl]methyl [3-azido-5-(2,4-diketo-5-methyl-pyrimidin-1-yl)tetrahydrofuran-2-yl]methyl hydrogen phosphate
> <PUBCHEM_IUPAC_INCHI>
InChI=1S/C19H25N8O9P/c1-10-7-27(19(30)23-17(10)28)16-6-12(24-25-21)13(36-16)9-34-37(31,32)33-8-11-2-3-15(35-11)26-5-4-14(20)22-18(26)29/h4-5,7,11-13,15-16H,2-3,6,8-9H2,1H3,(H,31,32)(H2,20,22,29)(H,23,28,30)/t11-,12?,13?,15+,16?/m1/s1
> <PUBCHEM_IUPAC_INCHIKEY>
JZBVBZBPDXKIJJ-JVZDMSCQSA-N
> <PUBCHEM_XLOGP3>
-1.3
> <PUBCHEM_EXACT_MASS>
540.14821140
> <PUBCHEM_MOLECULAR_FORMULA>
C19H25N8O9P
> <PUBCHEM_MOLECULAR_WEIGHT>
540.4
> <PUBCHEM_OPENEYE_CAN_SMILES>
CC1=CN(C(=O)NC1=O)C2CC(C(O2)COP(=O)(O)OCC3CCC(O3)N4C=CC(=NC4=O)N)N=[N+]=[N-]
> <PUBCHEM_OPENEYE_ISO_SMILES>
CC1=CN(C(=O)NC1=O)C2CC(C(O2)COP(=O)(O)OC[C@H]3CC[C@H](O3)N4C=CC(=NC4=O)N)N=[N+]=[N-]
> <PUBCHEM_CACTVS_TPSA>
197
> <PUBCHEM_MONOISOTOPIC_WEIGHT>
540.14821140
> <PUBCHEM_TOTAL_CHARGE>
0
> <PUBCHEM_HEAVY_ATOM_COUNT>
37
> <PUBCHEM_ATOM_DEF_STEREO_COUNT>
2
> <PUBCHEM_ATOM_UDEF_STEREO_COUNT>
3
> <PUBCHEM_BOND_DEF_STEREO_COUNT>
0
> <PUBCHEM_BOND_UDEF_STEREO_COUNT>
0
> <PUBCHEM_ISOTOPIC_ATOM_COUNT>
0
> <PUBCHEM_COMPONENT_COUNT>
1
> <PUBCHEM_CACTVS_TAUTO_COUNT>
-1
> <PUBCHEM_COORDINATE_TYPE>
1
5
255
> <PUBCHEM_BONDANNOTATIONS>
22  11  3
11  29  8
11  30  8
26  12  6
12  32  8
12  33  8
19  13  3
14  30  8
14  34  8
16  33  8
16  37  8
20  27  3
23  28  6
29  31  8
31  34  8
32  35  8
35  37  8
$$$$
