500369
  -OEChem-10302200282D
 46 48  0     1  0  0  0  0  0999 V2000
    6.5993    0.8047    0.0000 S   0  0  0  0  0  0  0  0  0  0  0  0
    3.0990    0.6318    0.0000 O   0  0  0  0  0  0  0  0  0  0  0  0
    3.0990   -2.5328    0.0000 O   0  0  0  0  0  0  0  0  0  0  0  0
    7.5498    0.4941    0.0000 O   0  0  0  0  0  0  0  0  0  0  0  0
    5.6487    1.1154    0.0000 O   0  0  0  0  0  0  0  0  0  0  0  0
    2.0000   -0.2582    0.0000 O   0  0  0  0  0  0  0  0  0  0  0  0
    2.0000   -1.6428    0.0000 O   0  0  0  0  0  0  0  0  0  0  0  0
    6.9099   -3.6563    0.0000 N   0  0  0  0  0  0  0  0  0  0  0  0
    5.3424   -1.4505    0.0000 C   0  0  3  0  0  0  0  0  0  0  0  0
    3.8035   -0.9505    0.0000 C   0  0  0  0  0  0  0  0  0  0  0  0
    5.3424   -0.4505    0.0000 C   0  0  0  0  0  0  0  0  0  0  0  0
    4.3913   -1.7595    0.0000 C   0  0  0  0  0  0  0  0  0  0  0  0
    4.3913   -0.1415    0.0000 C   0  0  0  0  0  0  0  0  0  0  0  0
    6.2886   -1.7552    0.0000 C   0  0  3  0  0  0  0  0  0  0  0  0
    6.2886   -0.1458    0.0000 C   0  0  0  0  0  0  0  0  0  0  0  0
    6.8722   -0.9505    0.0000 C   0  0  0  0  0  0  0  0  0  0  0  0
    2.9945   -0.3627    0.0000 C   0  0  0  0  0  0  0  0  0  0  0  0
    2.9945   -1.5383    0.0000 C   0  0  0  0  0  0  0  0  0  0  0  0
    6.5993   -2.7058    0.0000 C   0  0  0  0  0  0  0  0  0  0  0  0
    6.9099    1.7552    0.0000 C   0  0  0  0  0  0  0  0  0  0  0  0
    6.2421    2.4996    0.0000 C   0  0  0  0  0  0  0  0  0  0  0  0
    7.8884    1.9615    0.0000 C   0  0  0  0  0  0  0  0  0  0  0  0
    2.2900    1.2196    0.0000 C   0  0  0  0  0  0  0  0  0  0  0  0
    2.2900   -3.1206    0.0000 C   0  0  0  0  0  0  0  0  0  0  0  0
    6.5527    3.4501    0.0000 C   0  0  0  0  0  0  0  0  0  0  0  0
    8.1991    2.9120    0.0000 C   0  0  0  0  0  0  0  0  0  0  0  0
    7.5312    3.6563    0.0000 C   0  0  0  0  0  0  0  0  0  0  0  0
    5.3432   -2.0705    0.0000 H   0  0  0  0  0  0  0  0  0  0  0  0
    3.8544   -2.0695    0.0000 H   0  0  0  0  0  0  0  0  0  0  0  0
    4.6435   -2.3259    0.0000 H   0  0  0  0  0  0  0  0  0  0  0  0
    4.6435    0.4249    0.0000 H   0  0  0  0  0  0  0  0  0  0  0  0
    3.8544    0.1685    0.0000 H   0  0  0  0  0  0  0  0  0  0  0  0
    6.9011   -1.8514    0.0000 H   0  0  0  0  0  0  0  0  0  0  0  0
    7.3331   -1.3652    0.0000 H   0  0  0  0  0  0  0  0  0  0  0  0
    7.3331   -0.5358    0.0000 H   0  0  0  0  0  0  0  0  0  0  0  0
    5.6354    2.3717    0.0000 H   0  0  0  0  0  0  0  0  0  0  0  0
    8.3025    1.5000    0.0000 H   0  0  0  0  0  0  0  0  0  0  0  0
    2.6545    1.7212    0.0000 H   0  0  0  0  0  0  0  0  0  0  0  0
    1.7884    1.5840    0.0000 H   0  0  0  0  0  0  0  0  0  0  0  0
    1.9256    0.7180    0.0000 H   0  0  0  0  0  0  0  0  0  0  0  0
    1.9256   -2.6190    0.0000 H   0  0  0  0  0  0  0  0  0  0  0  0
    1.7884   -3.4850    0.0000 H   0  0  0  0  0  0  0  0  0  0  0  0
    2.6545   -3.6222    0.0000 H   0  0  0  0  0  0  0  0  0  0  0  0
    6.1387    3.9115    0.0000 H   0  0  0  0  0  0  0  0  0  0  0  0
    8.8058    3.0398    0.0000 H   0  0  0  0  0  0  0  0  0  0  0  0
    7.7239    4.2456    0.0000 H   0  0  0  0  0  0  0  0  0  0  0  0
  1  4  2  0  0  0  0
  1  5  2  0  0  0  0
  1 15  1  0  0  0  0
  1 20  1  0  0  0  0
  2 17  1  0  0  0  0
  2 23  1  0  0  0  0
  3 18  1  0  0  0  0
  3 24  1  0  0  0  0
  6 17  2  0  0  0  0
  7 18  2  0  0  0  0
  8 19  3  0  0  0  0
  9 11  1  0  0  0  0
  9 12  1  0  0  0  0
  9 14  1  0  0  0  0
  9 28  1  0  0  0  0
 10 12  1  0  0  0  0
 10 13  1  0  0  0  0
 10 17  1  0  0  0  0
 10 18  1  0  0  0  0
 11 13  1  0  0  0  0
 11 15  2  0  0  0  0
 12 29  1  0  0  0  0
 12 30  1  0  0  0  0
 13 31  1  0  0  0  0
 13 32  1  0  0  0  0
 14 16  1  0  0  0  0
 14 19  1  0  0  0  0
 14 33  1  0  0  0  0
 15 16  1  0  0  0  0
 16 34  1  0  0  0  0
 16 35  1  0  0  0  0
 20 21  2  0  0  0  0
 20 22  1  0  0  0  0
 21 25  1  0  0  0  0
 21 36  1  0  0  0  0
 22 26  2  0  0  0  0
 22 37  1  0  0  0  0
 23 38  1  0  0  0  0
 23 39  1  0  0  0  0
 23 40  1  0  0  0  0
 24 41  1  0  0  0  0
 24 42  1  0  0  0  0
 24 43  1  0  0  0  0
 25 27  2  0  0  0  0
 25 44  1  0  0  0  0
 26 27  1  0  0  0  0
 26 45  1  0  0  0  0
 27 46  1  0  0  0  0
M  END
> <PUBCHEM_COMPOUND_CID>
500369
> <PUBCHEM_COMPOUND_CANONICALIZED>
1
> <PUBCHEM_CACTVS_COMPLEXITY>
806
> <PUBCHEM_CACTVS_HBOND_ACCEPTOR>
7
> <PUBCHEM_CACTVS_HBOND_DONOR>
0
> <PUBCHEM_CACTVS_ROTATABLE_BOND>
6
> <PUBCHEM_CACTVS_SUBSKEYS>
AAADceB6OABAAAAAAAAAAAAAAAAAAYIAAAAwAAAAAAAQAAABAAAAHgQAAAAADwCB0AIyCYAABAqYBiDSCHBCAAAgCBAIiBkAAIgIoDaoERCAIAAloAAoiA+IyPCPgAAAAAAAAAAAAAAAAAAAAQAAAAAAAA==
> <PUBCHEM_IUPAC_OPENEYE_NAME>
dimethyl 6-(benzenesulfonyl)-4-cyano-3,3a,4,5-tetrahydro-1H-pentalene-2,2-dicarboxylate
> <PUBCHEM_IUPAC_CAS_NAME>
6-(benzenesulfonyl)-4-cyano-3,3a,4,5-tetrahydro-1H-pentalene-2,2-dicarboxylic acid dimethyl ester
> <PUBCHEM_IUPAC_NAME_MARKUP>
dimethyl 6-(benzenesulfonyl)-4-cyano-3,3<I>a</I>,4,5-tetrahydro-1<I>H</I>-pentalene-2,2-dicarboxylate
> <PUBCHEM_IUPAC_NAME>
dimethyl 6-(benzenesulfonyl)-4-cyano-3,3a,4,5-tetrahydro-1H-pentalene-2,2-dicarboxylate
> <PUBCHEM_IUPAC_SYSTEMATIC_NAME>
dimethyl 4-cyano-6-(phenylsulfonyl)-3,3a,4,5-tetrahydro-1H-pentalene-2,2-dicarboxylate
> <PUBCHEM_IUPAC_TRADITIONAL_NAME>
6-besyl-4-cyano-3,3a,4,5-tetrahydro-1H-pentalene-2,2-dicarboxylic acid dimethyl ester
> <PUBCHEM_IUPAC_INCHI>
InChI=1S/C19H19NO6S/c1-25-17(21)19(18(22)26-2)9-14-12(11-20)8-16(15(14)10-19)27(23,24)13-6-4-3-5-7-13/h3-7,12,14H,8-10H2,1-2H3
> <PUBCHEM_IUPAC_INCHIKEY>
RLFSSQDBNXBGCU-UHFFFAOYSA-N
> <PUBCHEM_XLOGP3_AA>
1.1
> <PUBCHEM_EXACT_MASS>
389.09330850
> <PUBCHEM_MOLECULAR_FORMULA>
C19H19NO6S
> <PUBCHEM_MOLECULAR_WEIGHT>
389.4
> <PUBCHEM_OPENEYE_CAN_SMILES>
COC(=O)C1(CC2C(CC(=C2C1)S(=O)(=O)C3=CC=CC=C3)C#N)C(=O)OC
> <PUBCHEM_OPENEYE_ISO_SMILES>
COC(=O)C1(CC2C(CC(=C2C1)S(=O)(=O)C3=CC=CC=C3)C#N)C(=O)OC
> <PUBCHEM_CACTVS_TPSA>
119
> <PUBCHEM_MONOISOTOPIC_WEIGHT>
389.09330850
> <PUBCHEM_TOTAL_CHARGE>
0
> <PUBCHEM_HEAVY_ATOM_COUNT>
27
> <PUBCHEM_ATOM_DEF_STEREO_COUNT>
0
> <PUBCHEM_ATOM_UDEF_STEREO_COUNT>
2
> <PUBCHEM_BOND_DEF_STEREO_COUNT>
0
> <PUBCHEM_BOND_UDEF_STEREO_COUNT>
0
> <PUBCHEM_ISOTOPIC_ATOM_COUNT>
0
> <PUBCHEM_COMPONENT_COUNT>
1
> <PUBCHEM_CACTVS_TAUTO_COUNT>
-1
> <PUBCHEM_COORDINATE_TYPE>
1
5
255
> <PUBCHEM_BONDANNOTATIONS>
14  19  3
20  21  8
20  22  8
21  25  8
22  26  8
25  27  8
26  27  8
9  12  3
$$$$
