500357
  -OEChem-10302200282D
 37 38  0     1  0  0  0  0  0999 V2000
    6.8381   -0.7784    0.0000 O   0  0  0  0  0  0  0  0  0  0  0  0
    8.1114   -2.4340    0.0000 O   0  0  0  0  0  0  0  0  0  0  0  0
    7.7611    0.8094    0.0000 O   0  0  0  0  0  0  0  0  0  0  0  0
    3.5400   -1.5204    0.0000 O   0  0  0  0  0  0  0  0  0  0  0  0
    6.0290    3.8094    0.0000 O   0  0  0  0  0  0  0  0  0  0  0  0
    2.3644   -3.1385    0.0000 O   0  0  0  0  0  0  0  0  0  0  0  0
    6.0290    0.8094    0.0000 N   0  0  0  0  0  0  0  0  0  0  0  0
    4.9413   -2.5385    0.0000 N   0  0  0  0  0  0  0  0  0  0  0  0
    6.8951    2.3094    0.0000 N   0  0  0  0  0  0  0  0  0  0  0  0
    3.3590   -3.2430    0.0000 N   0  0  0  0  0  0  0  0  0  0  0  0
    5.5290   -1.7295    0.0000 C   0  0  2  0  0  0  0  0  0  0  0  0
    5.2200   -0.7784    0.0000 C   0  0  0  0  0  0  0  0  0  0  0  0
    6.5290   -1.7295    0.0000 C   0  0  2  0  0  0  0  0  0  0  0  0
    6.0290   -0.1906    0.0000 C   0  0  2  0  0  0  0  0  0  0  0  0
    7.1168   -2.5385    0.0000 C   0  0  0  0  0  0  0  0  0  0  0  0
    5.1630    1.3094    0.0000 C   0  0  0  0  0  0  0  0  0  0  0  0
    6.8951    1.3094    0.0000 C   0  0  0  0  0  0  0  0  0  0  0  0
    3.9467   -2.4340    0.0000 C   0  0  0  0  0  0  0  0  0  0  0  0
    5.1630    2.3094    0.0000 C   0  0  0  0  0  0  0  0  0  0  0  0
    6.0290    2.8094    0.0000 C   0  0  0  0  0  0  0  0  0  0  0  0
    4.2970    2.8094    0.0000 C   0  0  0  0  0  0  0  0  0  0  0  0
    5.8105   -2.2819    0.0000 H   0  0  0  0  0  0  0  0  0  0  0  0
    4.9100   -0.2415    0.0000 H   0  0  0  0  0  0  0  0  0  0  0  0
    4.6536   -1.0306    0.0000 H   0  0  0  0  0  0  0  0  0  0  0  0
    7.1414   -1.6325    0.0000 H   0  0  0  0  0  0  0  0  0  0  0  0
    6.5815    0.0908    0.0000 H   0  0  0  0  0  0  0  0  0  0  0  0
    6.5596   -2.8103    0.0000 H   0  0  0  0  0  0  0  0  0  0  0  0
    7.2877   -3.1345    0.0000 H   0  0  0  0  0  0  0  0  0  0  0  0
    5.1934   -3.1049    0.0000 H   0  0  0  0  0  0  0  0  0  0  0  0
    4.6261    0.9994    0.0000 H   0  0  0  0  0  0  0  0  0  0  0  0
    8.4758   -2.9356    0.0000 H   0  0  0  0  0  0  0  0  0  0  0  0
    7.4320    2.6194    0.0000 H   0  0  0  0  0  0  0  0  0  0  0  0
    4.6070    3.3463    0.0000 H   0  0  0  0  0  0  0  0  0  0  0  0
    3.7600    3.1194    0.0000 H   0  0  0  0  0  0  0  0  0  0  0  0
    3.9870    2.2724    0.0000 H   0  0  0  0  0  0  0  0  0  0  0  0
    3.6111   -3.8094    0.0000 H   0  0  0  0  0  0  0  0  0  0  0  0
    2.0000   -3.6400    0.0000 H   0  0  0  0  0  0  0  0  0  0  0  0
  1 13  1  0  0  0  0
  1 14  1  0  0  0  0
  2 15  1  0  0  0  0
  2 31  1  0  0  0  0
  3 17  2  0  0  0  0
  4 18  2  0  0  0  0
  5 20  2  0  0  0  0
  6 10  1  0  0  0  0
  6 37  1  0  0  0  0
 14  7  1  1  0  0  0
  7 16  1  0  0  0  0
  7 17  1  0  0  0  0
 11  8  1  6  0  0  0
  8 18  1  0  0  0  0
  8 29  1  0  0  0  0
  9 17  1  0  0  0  0
  9 20  1  0  0  0  0
  9 32  1  0  0  0  0
 10 18  1  0  0  0  0
 10 36  1  0  0  0  0
 11 12  1  0  0  0  0
 11 13  1  0  0  0  0
 11 22  1  0  0  0  0
 12 14  1  0  0  0  0
 12 23  1  0  0  0  0
 12 24  1  0  0  0  0
 13 15  1  1  0  0  0
 13 25  1  0  0  0  0
 14 26  1  0  0  0  0
 15 27  1  0  0  0  0
 15 28  1  0  0  0  0
 16 19  2  0  0  0  0
 16 30  1  0  0  0  0
 19 20  1  0  0  0  0
 19 21  1  0  0  0  0
 21 33  1  0  0  0  0
 21 34  1  0  0  0  0
 21 35  1  0  0  0  0
M  END
> <PUBCHEM_COMPOUND_CID>
500357
> <PUBCHEM_COMPOUND_CANONICALIZED>
1
> <PUBCHEM_CACTVS_COMPLEXITY>
493
> <PUBCHEM_CACTVS_HBOND_ACCEPTOR>
6
> <PUBCHEM_CACTVS_HBOND_DONOR>
5
> <PUBCHEM_CACTVS_ROTATABLE_BOND>
3
> <PUBCHEM_CACTVS_SUBSKEYS>
AAADceBzuAAAAAAAAAAAAAAAAAAAASAAAAAgAAAAAAAAAAAAAAAAHgAUCAAADDzhgAYDAAPQBgCIAgFWUACAAAAAAAAAAIEIAECDEAIAwQAPQAAOFyITAMCwMAIAAAAAAAAAAAAAAAAAAAAAAAAAAAAAAA==
> <PUBCHEM_IUPAC_OPENEYE_NAME>
1-hydroxy-3-[(2R,3R,5S)-2-(hydroxymethyl)-5-(5-methyl-2,4-dioxo-pyrimidin-1-yl)tetrahydrofuran-3-yl]urea
> <PUBCHEM_IUPAC_CAS_NAME>
1-hydroxy-3-[(2R,3R,5S)-2-(hydroxymethyl)-5-(5-methyl-2,4-dioxo-1-pyrimidinyl)-3-oxolanyl]urea
> <PUBCHEM_IUPAC_NAME_MARKUP>
1-hydroxy-3-[(2<I>R</I>,3<I>R</I>,5<I>S</I>)-2-(hydroxymethyl)-5-(5-methyl-2,4-dioxopyrimidin-1-yl)oxolan-3-yl]urea
> <PUBCHEM_IUPAC_NAME>
1-hydroxy-3-[(2R,3R,5S)-2-(hydroxymethyl)-5-(5-methyl-2,4-dioxopyrimidin-1-yl)oxolan-3-yl]urea
> <PUBCHEM_IUPAC_SYSTEMATIC_NAME>
1-[(2R,3R,5S)-2-(hydroxymethyl)-5-[5-methyl-2,4-bis(oxidanylidene)pyrimidin-1-yl]oxolan-3-yl]-3-oxidanyl-urea
> <PUBCHEM_IUPAC_TRADITIONAL_NAME>
1-[(2R,3R,5S)-5-(2,4-diketo-5-methyl-pyrimidin-1-yl)-2-methylol-tetrahydrofuran-3-yl]-3-hydroxy-urea
> <PUBCHEM_IUPAC_INCHI>
InChI=1S/C11H16N4O6/c1-5-3-15(11(19)13-9(5)17)8-2-6(7(4-16)21-8)12-10(18)14-20/h3,6-8,16,20H,2,4H2,1H3,(H2,12,14,18)(H,13,17,19)/t6-,7+,8+/m1/s1
> <PUBCHEM_IUPAC_INCHIKEY>
NGMZXDGEFXQHMZ-CSMHCCOUSA-N
> <PUBCHEM_XLOGP3>
-1.4
> <PUBCHEM_EXACT_MASS>
300.10698424
> <PUBCHEM_MOLECULAR_FORMULA>
C11H16N4O6
> <PUBCHEM_MOLECULAR_WEIGHT>
300.27
> <PUBCHEM_OPENEYE_CAN_SMILES>
CC1=CN(C(=O)NC1=O)C2CC(C(O2)CO)NC(=O)NO
> <PUBCHEM_OPENEYE_ISO_SMILES>
CC1=CN(C(=O)NC1=O)[C@@H]2C[C@H]([C@@H](O2)CO)NC(=O)NO
> <PUBCHEM_CACTVS_TPSA>
140
> <PUBCHEM_MONOISOTOPIC_WEIGHT>
300.10698424
> <PUBCHEM_TOTAL_CHARGE>
0
> <PUBCHEM_HEAVY_ATOM_COUNT>
21
> <PUBCHEM_ATOM_DEF_STEREO_COUNT>
3
> <PUBCHEM_ATOM_UDEF_STEREO_COUNT>
0
> <PUBCHEM_BOND_DEF_STEREO_COUNT>
0
> <PUBCHEM_BOND_UDEF_STEREO_COUNT>
0
> <PUBCHEM_ISOTOPIC_ATOM_COUNT>
0
> <PUBCHEM_COMPONENT_COUNT>
1
> <PUBCHEM_CACTVS_TAUTO_COUNT>
-1
> <PUBCHEM_COORDINATE_TYPE>
1
5
255
> <PUBCHEM_BONDANNOTATIONS>
13  15  5
16  19  8
19  20  8
14  7  5
7  16  8
7  17  8
11  8  6
9  17  8
9  20  8
$$$$
