500345
  -OEChem-10302200282D
 44 47  0     1  0  0  0  0  0999 V2000
    4.9889    2.0492    0.0000 O   0  0  0  0  0  0  0  0  0  0  0  0
    6.3438   -2.0492    0.0000 O   0  0  0  0  0  0  0  0  0  0  0  0
    4.6783   -0.5108    0.0000 N   0  0  0  0  0  0  0  0  0  0  0  0
    6.6545    0.5108    0.0000 N   0  0  0  0  0  0  0  0  0  0  0  0
    5.2619    0.2939    0.0000 C   0  0  3  0  0  0  0  0  0  0  0  0
    6.0709   -0.2939    0.0000 C   0  0  3  0  0  0  0  0  0  0  0  0
    4.6783    1.0986    0.0000 C   0  0  0  0  0  0  0  0  0  0  0  0
    6.6545   -1.0986    0.0000 C   0  0  0  0  0  0  0  0  0  0  0  0
    5.6686    1.2074    0.0000 C   0  0  0  0  0  0  0  0  0  0  0  0
    5.6641   -1.2074    0.0000 C   0  0  0  0  0  0  0  0  0  0  0  0
    3.7320    0.7939    0.0000 C   0  0  0  0  0  0  0  0  0  0  0  0
    7.6007   -0.7939    0.0000 C   0  0  0  0  0  0  0  0  0  0  0  0
    3.7320   -0.2061    0.0000 C   0  0  0  0  0  0  0  0  0  0  0  0
    7.6007    0.2061    0.0000 C   0  0  0  0  0  0  0  0  0  0  0  0
    2.8660    1.2939    0.0000 C   0  0  0  0  0  0  0  0  0  0  0  0
    8.4668   -1.2939    0.0000 C   0  0  0  0  0  0  0  0  0  0  0  0
    2.8660   -0.7061    0.0000 C   0  0  0  0  0  0  0  0  0  0  0  0
    8.4668    0.7061    0.0000 C   0  0  0  0  0  0  0  0  0  0  0  0
    2.0000    0.7939    0.0000 C   0  0  0  0  0  0  0  0  0  0  0  0
    9.3328   -0.7939    0.0000 C   0  0  0  0  0  0  0  0  0  0  0  0
    2.0000   -0.2061    0.0000 C   0  0  0  0  0  0  0  0  0  0  0  0
    9.3328    0.2061    0.0000 C   0  0  0  0  0  0  0  0  0  0  0  0
    2.8660    2.2939    0.0000 C   0  0  0  0  0  0  0  0  0  0  0  0
    8.4668   -2.2939    0.0000 C   0  0  0  0  0  0  0  0  0  0  0  0
    4.5504   -1.1175    0.0000 H   0  0  0  0  0  0  0  0  0  0  0  0
    6.7824    1.1175    0.0000 H   0  0  0  0  0  0  0  0  0  0  0  0
    6.2350    0.9553    0.0000 H   0  0  0  0  0  0  0  0  0  0  0  0
    5.9208    1.7738    0.0000 H   0  0  0  0  0  0  0  0  0  0  0  0
    5.1022    1.4596    0.0000 H   0  0  0  0  0  0  0  0  0  0  0  0
    5.0977   -0.9552    0.0000 H   0  0  0  0  0  0  0  0  0  0  0  0
    5.4120   -1.7738    0.0000 H   0  0  0  0  0  0  0  0  0  0  0  0
    6.2305   -1.4596    0.0000 H   0  0  0  0  0  0  0  0  0  0  0  0
    2.8660   -1.3261    0.0000 H   0  0  0  0  0  0  0  0  0  0  0  0
    8.4668    1.3261    0.0000 H   0  0  0  0  0  0  0  0  0  0  0  0
    1.4631    1.1039    0.0000 H   0  0  0  0  0  0  0  0  0  0  0  0
    9.8697   -1.1039    0.0000 H   0  0  0  0  0  0  0  0  0  0  0  0
    1.4631   -0.5161    0.0000 H   0  0  0  0  0  0  0  0  0  0  0  0
    9.8697    0.5161    0.0000 H   0  0  0  0  0  0  0  0  0  0  0  0
    3.4860    2.2939    0.0000 H   0  0  0  0  0  0  0  0  0  0  0  0
    2.8660    2.9139    0.0000 H   0  0  0  0  0  0  0  0  0  0  0  0
    2.2460    2.2939    0.0000 H   0  0  0  0  0  0  0  0  0  0  0  0
    7.8468   -2.2939    0.0000 H   0  0  0  0  0  0  0  0  0  0  0  0
    8.4668   -2.9139    0.0000 H   0  0  0  0  0  0  0  0  0  0  0  0
    9.0868   -2.2939    0.0000 H   0  0  0  0  0  0  0  0  0  0  0  0
  1  7  2  0  0  0  0
  2  8  2  0  0  0  0
  3  5  1  0  0  0  0
  3 13  1  0  0  0  0
  3 25  1  0  0  0  0
  4  6  1  0  0  0  0
  4 14  1  0  0  0  0
  4 26  1  0  0  0  0
  5  6  1  0  0  0  0
  5  7  1  0  0  0  0
  5  9  1  0  0  0  0
  6  8  1  0  0  0  0
  6 10  1  0  0  0  0
  7 11  1  0  0  0  0
  8 12  1  0  0  0  0
  9 27  1  0  0  0  0
  9 28  1  0  0  0  0
  9 29  1  0  0  0  0
 10 30  1  0  0  0  0
 10 31  1  0  0  0  0
 10 32  1  0  0  0  0
 11 13  1  0  0  0  0
 11 15  2  0  0  0  0
 12 14  1  0  0  0  0
 12 16  2  0  0  0  0
 13 17  2  0  0  0  0
 14 18  2  0  0  0  0
 15 19  1  0  0  0  0
 15 23  1  0  0  0  0
 16 20  1  0  0  0  0
 16 24  1  0  0  0  0
 17 21  1  0  0  0  0
 17 33  1  0  0  0  0
 18 22  1  0  0  0  0
 18 34  1  0  0  0  0
 19 21  2  0  0  0  0
 19 35  1  0  0  0  0
 20 22  2  0  0  0  0
 20 36  1  0  0  0  0
 21 37  1  0  0  0  0
 22 38  1  0  0  0  0
 23 39  1  0  0  0  0
 23 40  1  0  0  0  0
 23 41  1  0  0  0  0
 24 42  1  0  0  0  0
 24 43  1  0  0  0  0
 24 44  1  0  0  0  0
M  END
> <PUBCHEM_COMPOUND_CID>
500345
> <PUBCHEM_COMPOUND_CANONICALIZED>
1
> <PUBCHEM_CACTVS_COMPLEXITY>
526
> <PUBCHEM_CACTVS_HBOND_ACCEPTOR>
4
> <PUBCHEM_CACTVS_HBOND_DONOR>
2
> <PUBCHEM_CACTVS_ROTATABLE_BOND>
1
> <PUBCHEM_CACTVS_SUBSKEYS>
AAADceB7MAAAAAAAAAAAAAAAAAAAAWLAAAAwYAAAAAAAAFgBQAAAHgAQAAAADIyBmAAywILAAACIAqRSQACCAAAlAgAIiAGAZMgIYDrAlbGUIYhgkADIyUcZiMCOgAAAQAASAAAAAACAACQAAAAAAAAAAA==
> <PUBCHEM_IUPAC_OPENEYE_NAME>
2-(2,4-dimethyl-3-oxo-indolin-2-yl)-2,4-dimethyl-indolin-3-one
> <PUBCHEM_IUPAC_CAS_NAME>
2-(2,4-dimethyl-3-oxo-1H-indol-2-yl)-2,4-dimethyl-1H-indol-3-one
> <PUBCHEM_IUPAC_NAME_MARKUP>
2-(2,4-dimethyl-3-oxo-1<I>H</I>-indol-2-yl)-2,4-dimethyl-1<I>H</I>-indol-3-one
> <PUBCHEM_IUPAC_NAME>
2-(2,4-dimethyl-3-oxo-1H-indol-2-yl)-2,4-dimethyl-1H-indol-3-one
> <PUBCHEM_IUPAC_SYSTEMATIC_NAME>
2-(2,4-dimethyl-3-oxidanylidene-1H-indol-2-yl)-2,4-dimethyl-1H-indol-3-one
> <PUBCHEM_IUPAC_TRADITIONAL_NAME>
2-(3-keto-2,4-dimethyl-indolin-2-yl)-2,4-dimethyl-pseudoindoxyl
> <PUBCHEM_IUPAC_INCHI>
InChI=1S/C20H20N2O2/c1-11-7-5-9-13-15(11)17(23)19(3,21-13)20(4)18(24)16-12(2)8-6-10-14(16)22-20/h5-10,21-22H,1-4H3
> <PUBCHEM_IUPAC_INCHIKEY>
ATIDZGUTRAUUEB-UHFFFAOYSA-N
> <PUBCHEM_XLOGP3_AA>
3.9
> <PUBCHEM_EXACT_MASS>
320.152477885
> <PUBCHEM_MOLECULAR_FORMULA>
C20H20N2O2
> <PUBCHEM_MOLECULAR_WEIGHT>
320.4
> <PUBCHEM_OPENEYE_CAN_SMILES>
CC1=C2C(=CC=C1)NC(C2=O)(C)C3(C(=O)C4=C(C=CC=C4N3)C)C
> <PUBCHEM_OPENEYE_ISO_SMILES>
CC1=C2C(=CC=C1)NC(C2=O)(C)C3(C(=O)C4=C(C=CC=C4N3)C)C
> <PUBCHEM_CACTVS_TPSA>
58.2
> <PUBCHEM_MONOISOTOPIC_WEIGHT>
320.152477885
> <PUBCHEM_TOTAL_CHARGE>
0
> <PUBCHEM_HEAVY_ATOM_COUNT>
24
> <PUBCHEM_ATOM_DEF_STEREO_COUNT>
0
> <PUBCHEM_ATOM_UDEF_STEREO_COUNT>
2
> <PUBCHEM_BOND_DEF_STEREO_COUNT>
0
> <PUBCHEM_BOND_UDEF_STEREO_COUNT>
0
> <PUBCHEM_ISOTOPIC_ATOM_COUNT>
0
> <PUBCHEM_COMPONENT_COUNT>
1
> <PUBCHEM_CACTVS_TAUTO_COUNT>
-1
> <PUBCHEM_COORDINATE_TYPE>
1
5
255
> <PUBCHEM_BONDANNOTATIONS>
11  13  8
11  15  8
12  14  8
12  16  8
13  17  8
14  18  8
15  19  8
16  20  8
17  21  8
18  22  8
19  21  8
20  22  8
5  9  3
6  10  3
$$$$
