500370
  -OEChem-10302200282D
 44 44  0     1  0  0  0  0  0999 V2000
    5.8301    0.5670    0.0000 O   0  0  0  0  0  0  0  0  0  0  0  0
    2.8660   -0.2990    0.0000 O   0  0  0  0  0  0  0  0  0  0  0  0
    3.7320   -1.7990    0.0000 O   0  0  0  0  0  0  0  0  0  0  0  0
    9.3301    1.4330    0.0000 O   0  0  0  0  0  0  0  0  0  0  0  0
    5.4641   -0.7990    0.0000 C   0  0  3  0  0  0  0  0  0  0  0  0
    6.3301   -0.2990    0.0000 C   0  0  3  0  0  0  0  0  0  0  0  0
    5.4641   -1.7990    0.0000 C   0  0  0  0  0  0  0  0  0  0  0  0
    7.1962   -0.7990    0.0000 C   0  0  0  0  0  0  0  0  0  0  0  0
    6.3301   -2.2990    0.0000 C   0  0  0  0  0  0  0  0  0  0  0  0
    7.1962   -1.7990    0.0000 C   0  0  0  0  0  0  0  0  0  0  0  0
    4.5981   -0.2990    0.0000 C   0  0  0  0  0  0  0  0  0  0  0  0
    6.8301    0.5670    0.0000 C   0  0  0  0  0  0  0  0  0  0  0  0
    3.7320   -0.7990    0.0000 C   0  0  0  0  0  0  0  0  0  0  0  0
    7.8301    0.5670    0.0000 C   0  0  0  0  0  0  0  0  0  0  0  0
    8.3301    1.4330    0.0000 C   0  0  0  0  0  0  0  0  0  0  0  0
    2.0000   -0.7990    0.0000 C   0  0  0  0  0  0  0  0  0  0  0  0
    2.8660   -2.2990    0.0000 C   0  0  0  0  0  0  0  0  0  0  0  0
    9.8301    2.2990    0.0000 C   0  0  0  0  0  0  0  0  0  0  0  0
    5.4641   -0.1790    0.0000 H   0  0  0  0  0  0  0  0  0  0  0  0
    4.8535   -1.6914    0.0000 H   0  0  0  0  0  0  0  0  0  0  0  0
    5.2520   -2.3816    0.0000 H   0  0  0  0  0  0  0  0  0  0  0  0
    7.8067   -0.9067    0.0000 H   0  0  0  0  0  0  0  0  0  0  0  0
    7.4082   -0.2164    0.0000 H   0  0  0  0  0  0  0  0  0  0  0  0
    5.9316   -2.7740    0.0000 H   0  0  0  0  0  0  0  0  0  0  0  0
    6.7287   -2.7740    0.0000 H   0  0  0  0  0  0  0  0  0  0  0  0
    7.4082   -2.3816    0.0000 H   0  0  0  0  0  0  0  0  0  0  0  0
    7.8067   -1.6914    0.0000 H   0  0  0  0  0  0  0  0  0  0  0  0
    4.9966    0.1759    0.0000 H   0  0  0  0  0  0  0  0  0  0  0  0
    4.1996    0.1759    0.0000 H   0  0  0  0  0  0  0  0  0  0  0  0
    6.5201    1.1039    0.0000 H   0  0  0  0  0  0  0  0  0  0  0  0
    3.7320   -0.1790    0.0000 H   0  0  0  0  0  0  0  0  0  0  0  0
    6.1401    1.1039    0.0000 H   0  0  0  0  0  0  0  0  0  0  0  0
    8.1401    0.0301    0.0000 H   0  0  0  0  0  0  0  0  0  0  0  0
    8.4378    2.0436    0.0000 H   0  0  0  0  0  0  0  0  0  0  0  0
    7.7475    1.6451    0.0000 H   0  0  0  0  0  0  0  0  0  0  0  0
    1.6900   -0.2621    0.0000 H   0  0  0  0  0  0  0  0  0  0  0  0
    1.4631   -1.1090    0.0000 H   0  0  0  0  0  0  0  0  0  0  0  0
    2.3100   -1.3360    0.0000 H   0  0  0  0  0  0  0  0  0  0  0  0
    2.5560   -1.7621    0.0000 H   0  0  0  0  0  0  0  0  0  0  0  0
    2.3291   -2.6090    0.0000 H   0  0  0  0  0  0  0  0  0  0  0  0
    3.1760   -2.8360    0.0000 H   0  0  0  0  0  0  0  0  0  0  0  0
   10.3671    1.9890    0.0000 H   0  0  0  0  0  0  0  0  0  0  0  0
   10.1401    2.8360    0.0000 H   0  0  0  0  0  0  0  0  0  0  0  0
    9.2932    2.6090    0.0000 H   0  0  0  0  0  0  0  0  0  0  0  0
  1  6  1  0  0  0  0
  1 32  1  0  0  0  0
  2 13  1  0  0  0  0
  2 16  1  0  0  0  0
  3 13  1  0  0  0  0
  3 17  1  0  0  0  0
  4 15  1  0  0  0  0
  4 18  1  0  0  0  0
  5  6  1  0  0  0  0
  5  7  1  0  0  0  0
  5 11  1  0  0  0  0
  5 19  1  0  0  0  0
  6  8  1  0  0  0  0
  6 12  1  0  0  0  0
  7  9  1  0  0  0  0
  7 20  1  0  0  0  0
  7 21  1  0  0  0  0
  8 10  1  0  0  0  0
  8 22  1  0  0  0  0
  8 23  1  0  0  0  0
  9 10  1  0  0  0  0
  9 24  1  0  0  0  0
  9 25  1  0  0  0  0
 10 26  1  0  0  0  0
 10 27  1  0  0  0  0
 11 13  1  0  0  0  0
 11 28  1  0  0  0  0
 11 29  1  0  0  0  0
 12 14  2  3  0  0  0
 12 30  1  0  0  0  0
 13 31  1  0  0  0  0
 14 15  1  0  0  0  0
 14 33  1  0  0  0  0
 15 34  1  0  0  0  0
 15 35  1  0  0  0  0
 16 36  1  0  0  0  0
 16 37  1  0  0  0  0
 16 38  1  0  0  0  0
 17 39  1  0  0  0  0
 17 40  1  0  0  0  0
 17 41  1  0  0  0  0
 18 42  1  0  0  0  0
 18 43  1  0  0  0  0
 18 44  1  0  0  0  0
M  END
> <PUBCHEM_COMPOUND_CID>
500370
> <PUBCHEM_COMPOUND_CANONICALIZED>
1
> <PUBCHEM_CACTVS_COMPLEXITY>
250
> <PUBCHEM_CACTVS_HBOND_ACCEPTOR>
4
> <PUBCHEM_CACTVS_HBOND_DONOR>
1
> <PUBCHEM_CACTVS_ROTATABLE_BOND>
7
> <PUBCHEM_CACTVS_SUBSKEYS>
AAADceBwOAAAAAAAAAAAAAAAAAAAAAAAAAAwAAAAAAAAAAAAAAAAGgAACAAADUSwgAMCCAAABgCAACBCAAAAAAAgAAAICAAAAAgQBAIAIQAgUAAEgAAIMAPAwKAOgAAAAAAAAAAAAAAAADAAAAAAAAAAAA==
> <PUBCHEM_IUPAC_OPENEYE_NAME>
2-(2,2-dimethoxyethyl)-1-(3-methoxyprop-1-enyl)cyclohexanol
> <PUBCHEM_IUPAC_CAS_NAME>
2-(2,2-dimethoxyethyl)-1-(3-methoxyprop-1-enyl)-1-cyclohexanol
> <PUBCHEM_IUPAC_NAME_MARKUP>
2-(2,2-dimethoxyethyl)-1-(3-methoxyprop-1-enyl)cyclohexan-1-ol
> <PUBCHEM_IUPAC_NAME>
2-(2,2-dimethoxyethyl)-1-(3-methoxyprop-1-enyl)cyclohexan-1-ol
> <PUBCHEM_IUPAC_SYSTEMATIC_NAME>
2-(2,2-dimethoxyethyl)-1-(3-methoxyprop-1-enyl)cyclohexan-1-ol
> <PUBCHEM_IUPAC_TRADITIONAL_NAME>
2-(2,2-dimethoxyethyl)-1-(3-methoxyprop-1-enyl)cyclohexanol
> <PUBCHEM_IUPAC_INCHI>
InChI=1S/C14H26O4/c1-16-10-6-9-14(15)8-5-4-7-12(14)11-13(17-2)18-3/h6,9,12-13,15H,4-5,7-8,10-11H2,1-3H3
> <PUBCHEM_IUPAC_INCHIKEY>
YKDKHHAHSCIGIF-UHFFFAOYSA-N
> <PUBCHEM_XLOGP3_AA>
1.4
> <PUBCHEM_EXACT_MASS>
258.18310931
> <PUBCHEM_MOLECULAR_FORMULA>
C14H26O4
> <PUBCHEM_MOLECULAR_WEIGHT>
258.35
> <PUBCHEM_OPENEYE_CAN_SMILES>
COCC=CC1(CCCCC1CC(OC)OC)O
> <PUBCHEM_OPENEYE_ISO_SMILES>
COCC=CC1(CCCCC1CC(OC)OC)O
> <PUBCHEM_CACTVS_TPSA>
47.9
> <PUBCHEM_MONOISOTOPIC_WEIGHT>
258.18310931
> <PUBCHEM_TOTAL_CHARGE>
0
> <PUBCHEM_HEAVY_ATOM_COUNT>
18
> <PUBCHEM_ATOM_DEF_STEREO_COUNT>
0
> <PUBCHEM_ATOM_UDEF_STEREO_COUNT>
2
> <PUBCHEM_BOND_DEF_STEREO_COUNT>
0
> <PUBCHEM_BOND_UDEF_STEREO_COUNT>
1
> <PUBCHEM_ISOTOPIC_ATOM_COUNT>
0
> <PUBCHEM_COMPONENT_COUNT>
1
> <PUBCHEM_CACTVS_TAUTO_COUNT>
-1
> <PUBCHEM_COORDINATE_TYPE>
1
5
255
> <PUBCHEM_BONDANNOTATIONS>
6  1  3
12  14  1
5  11  3
$$$$
