500391
  -OEChem-10302200282D
173180  0     1  0  0  0  0  0999 V2000
    7.1846   -3.9833    0.0000 O   0  0  0  0  0  0  0  0  0  0  0  0
   10.6718    2.0033    0.0000 O   0  0  0  0  0  0  0  0  0  0  0  0
    9.7768   -5.4933    0.0000 O   0  0  0  0  0  0  0  0  0  0  0  0
    8.9397    2.0100    0.0000 O   0  0  0  0  0  0  0  0  0  0  0  0
    8.0448   -5.4866    0.0000 O   0  0  0  0  0  0  0  0  0  0  0  0
    8.0679    0.5133    0.0000 O   0  0  0  0  0  0  0  0  0  0  0  0
    6.3205   -3.4800    0.0000 O   0  0  0  0  0  0  0  0  0  0  0  0
   11.5397    2.5000    0.0000 O   0  0  0  0  0  0  0  0  0  0  0  0
    2.8680   -0.4666    0.0000 O   0  0  0  0  0  0  0  0  0  0  0  0
   15.8756    3.9833    0.0000 O   0  0  0  0  0  0  0  0  0  0  0  0
    3.7398    1.0300    0.0000 O   0  0  0  0  0  0  0  0  0  0  0  0
   13.2833    5.4933    0.0000 O   0  0  0  0  0  0  0  0  0  0  0  0
    5.4718    1.0234    0.0000 O   0  0  0  0  0  0  0  0  0  0  0  0
   15.0153    5.4866    0.0000 O   0  0  0  0  0  0  0  0  0  0  0  0
    7.1923   -1.9833    0.0000 N   0  0  0  0  0  0  0  0  0  0  0  0
   12.3999    0.9967    0.0000 N   0  0  0  0  0  0  0  0  0  0  0  0
   18.6455   -0.4543    0.0000 C   0  0  3  0  0  0  0  0  0  0  0  0
   18.6455    0.5457    0.0000 C   0  0  3  0  0  0  0  0  0  0  0  0
   17.7795   -0.9543    0.0000 C   0  0  3  0  0  0  0  0  0  0  0  0
   16.9135   -0.4543    0.0000 C   0  0  3  0  0  0  0  0  0  0  0  0
   16.0035   -0.9612    0.0000 C   0  0  3  0  0  0  0  0  0  0  0  0
   19.5918    0.8504    0.0000 C   0  0  3  0  0  0  0  0  0  0  0  0
   15.9955   -2.0028    0.0000 C   0  0  3  0  0  0  0  0  0  0  0  0
   17.7795    1.0457    0.0000 C   0  0  0  0  0  0  0  0  0  0  0  0
   16.9135    0.5457    0.0000 C   0  0  0  0  0  0  0  0  0  0  0  0
   19.5918   -0.7591    0.0000 C   0  0  0  0  0  0  0  0  0  0  0  0
   17.7956   -1.9958    0.0000 C   0  0  0  0  0  0  0  0  0  0  0  0
   20.1754    0.0457    0.0000 C   0  0  0  0  0  0  0  0  0  0  0  0
   16.8975   -2.5236    0.0000 C   0  0  0  0  0  0  0  0  0  0  0  0
   15.0767   -0.3971    0.0000 C   0  0  0  0  0  0  0  0  0  0  0  0
   15.0600   -2.5525    0.0000 C   0  0  0  0  0  0  0  0  0  0  0  0
   18.6455    1.5457    0.0000 C   0  0  0  0  0  0  0  0  0  0  0  0
   19.9024    1.8009    0.0000 C   0  0  3  0  0  0  0  0  0  0  0  0
   16.0112    0.0388    0.0000 C   0  0  0  0  0  0  0  0  0  0  0  0
   14.1204   -2.0100    0.0000 C   0  0  3  0  0  0  0  0  0  0  0  0
   14.1288   -0.9250    0.0000 C   0  0  0  0  0  0  0  0  0  0  0  0
   20.8809    2.0072    0.0000 C   0  0  0  0  0  0  0  0  0  0  0  0
   13.2525   -2.5067    0.0000 C   0  0  0  0  0  0  0  0  0  0  0  0
   19.2346    2.5452    0.0000 C   0  0  0  0  0  0  0  0  0  0  0  0
   21.1916    2.9577    0.0000 C   0  0  0  0  0  0  0  0  0  0  0  0
   12.3884   -2.0033    0.0000 C   0  0  0  0  0  0  0  0  0  0  0  0
   22.1701    3.1639    0.0000 C   0  0  0  0  0  0  0  0  0  0  0  0
   11.5204   -2.5000    0.0000 C   0  0  0  0  0  0  0  0  0  0  0  0
   22.4808    4.1144    0.0000 C   0  0  0  0  0  0  0  0  0  0  0  0
   10.6563   -1.9966    0.0000 C   0  0  0  0  0  0  0  0  0  0  0  0
   23.4593    4.3206    0.0000 C   0  0  0  0  0  0  0  0  0  0  0  0
   21.8129    4.8587    0.0000 C   0  0  0  0  0  0  0  0  0  0  0  0
    9.7884   -2.4933    0.0000 C   0  0  0  0  0  0  0  0  0  0  0  0
   10.6602   -0.9967    0.0000 C   0  0  0  0  0  0  0  0  0  0  0  0
    8.9243   -1.9900    0.0000 C   0  0  0  0  0  0  0  0  0  0  0  0
   11.5281   -0.5000    0.0000 C   0  0  0  0  0  0  0  0  0  0  0  0
    9.7845   -3.4933    0.0000 C   0  0  0  0  0  0  0  0  0  0  0  0
    9.7961   -0.4933    0.0000 C   0  0  0  0  0  0  0  0  0  0  0  0
    8.0564   -2.4866    0.0000 C   0  0  0  0  0  0  0  0  0  0  0  0
   11.5320    0.5000    0.0000 C   0  0  0  0  0  0  0  0  0  0  0  0
    8.9166   -3.9900    0.0000 C   0  0  0  0  0  0  0  0  0  0  0  0
    9.8000    0.5067    0.0000 C   0  0  0  0  0  0  0  0  0  0  0  0
    8.0525   -3.4866    0.0000 C   0  0  0  0  0  0  0  0  0  0  0  0
   10.6679    1.0033    0.0000 C   0  0  0  0  0  0  0  0  0  0  0  0
    8.9127   -4.9900    0.0000 C   0  0  0  0  0  0  0  0  0  0  0  0
    8.9359    1.0100    0.0000 C   0  0  0  0  0  0  0  0  0  0  0  0
    6.3243   -2.4800    0.0000 C   0  0  0  0  0  0  0  0  0  0  0  0
   12.4038    1.9966    0.0000 C   0  0  0  0  0  0  0  0  0  0  0  0
    7.1807   -4.9833    0.0000 C   0  0  0  0  0  0  0  0  0  0  0  0
    9.8077    2.5067    0.0000 C   0  0  0  0  0  0  0  0  0  0  0  0
    5.4602   -1.9766    0.0000 C   0  0  0  0  0  0  0  0  0  0  0  0
   13.2717    2.4933    0.0000 C   0  0  0  0  0  0  0  0  0  0  0  0
    9.7730   -6.4933    0.0000 C   0  0  0  0  0  0  0  0  0  0  0  0
    8.0756    2.5133    0.0000 C   0  0  0  0  0  0  0  0  0  0  0  0
    5.4641   -0.9766    0.0000 C   0  0  0  0  0  0  0  0  0  0  0  0
   13.2756    3.4933    0.0000 C   0  0  0  0  0  0  0  0  0  0  0  0
    4.5923   -2.4733    0.0000 C   0  0  0  0  0  0  0  0  0  0  0  0
   14.1358    1.9900    0.0000 C   0  0  0  0  0  0  0  0  0  0  0  0
    4.6000   -0.4733    0.0000 C   0  0  0  0  0  0  0  0  0  0  0  0
   14.1435    3.9900    0.0000 C   0  0  0  0  0  0  0  0  0  0  0  0
    3.7282   -1.9699    0.0000 C   0  0  0  0  0  0  0  0  0  0  0  0
   15.0038    2.4866    0.0000 C   0  0  0  0  0  0  0  0  0  0  0  0
    3.7320   -0.9700    0.0000 C   0  0  0  0  0  0  0  0  0  0  0  0
   15.0076    3.4866    0.0000 C   0  0  0  0  0  0  0  0  0  0  0  0
    4.6038    0.5267    0.0000 C   0  0  0  0  0  0  0  0  0  0  0  0
   14.1474    4.9900    0.0000 C   0  0  0  0  0  0  0  0  0  0  0  0
    2.0000   -0.9633    0.0000 C   0  0  0  0  0  0  0  0  0  0  0  0
   16.7397    3.4800    0.0000 C   0  0  0  0  0  0  0  0  0  0  0  0
    3.7436    2.0300    0.0000 C   0  0  0  0  0  0  0  0  0  0  0  0
   13.2872    6.4933    0.0000 C   0  0  0  0  0  0  0  0  0  0  0  0
   18.7112   -1.0708    0.0000 H   0  0  0  0  0  0  0  0  0  0  0  0
   18.3188   -1.2602    0.0000 H   0  0  0  0  0  0  0  0  0  0  0  0
   17.4504   -0.1443    0.0000 H   0  0  0  0  0  0  0  0  0  0  0  0
   20.2043    0.9466    0.0000 H   0  0  0  0  0  0  0  0  0  0  0  0
   15.9979   -2.6228    0.0000 H   0  0  0  0  0  0  0  0  0  0  0  0
   18.1781    1.5206    0.0000 H   0  0  0  0  0  0  0  0  0  0  0  0
   17.3810    1.5206    0.0000 H   0  0  0  0  0  0  0  0  0  0  0  0
   16.7014    1.1283    0.0000 H   0  0  0  0  0  0  0  0  0  0  0  0
   16.3029    0.4380    0.0000 H   0  0  0  0  0  0  0  0  0  0  0  0
   19.3407   -1.3260    0.0000 H   0  0  0  0  0  0  0  0  0  0  0  0
   20.1292   -1.0683    0.0000 H   0  0  0  0  0  0  0  0  0  0  0  0
   18.0136   -2.5762    0.0000 H   0  0  0  0  0  0  0  0  0  0  0  0
   18.4047   -1.8803    0.0000 H   0  0  0  0  0  0  0  0  0  0  0  0
   20.6362   -0.3691    0.0000 H   0  0  0  0  0  0  0  0  0  0  0  0
   20.6362    0.4604    0.0000 H   0  0  0  0  0  0  0  0  0  0  0  0
   16.5002   -2.9996    0.0000 H   0  0  0  0  0  0  0  0  0  0  0  0
   17.2985   -2.9965    0.0000 H   0  0  0  0  0  0  0  0  0  0  0  0
   15.4849    0.0696    0.0000 H   0  0  0  0  0  0  0  0  0  0  0  0
   14.6867    0.0849    0.0000 H   0  0  0  0  0  0  0  0  0  0  0  0
   14.6627   -3.0285    0.0000 H   0  0  0  0  0  0  0  0  0  0  0  0
   15.4610   -3.0254    0.0000 H   0  0  0  0  0  0  0  0  0  0  0  0
   19.2656    1.5457    0.0000 H   0  0  0  0  0  0  0  0  0  0  0  0
   18.6455    2.1657    0.0000 H   0  0  0  0  0  0  0  0  0  0  0  0
   18.0255    1.5457    0.0000 H   0  0  0  0  0  0  0  0  0  0  0  0
   20.0950    2.3902    0.0000 H   0  0  0  0  0  0  0  0  0  0  0  0
   16.6312    0.0340    0.0000 H   0  0  0  0  0  0  0  0  0  0  0  0
   16.0160    0.6588    0.0000 H   0  0  0  0  0  0  0  0  0  0  0  0
   15.3912    0.0436    0.0000 H   0  0  0  0  0  0  0  0  0  0  0  0
   13.5853   -1.6969    0.0000 H   0  0  0  0  0  0  0  0  0  0  0  0
   13.9242   -0.3398    0.0000 H   0  0  0  0  0  0  0  0  0  0  0  0
   13.5171   -1.0264    0.0000 H   0  0  0  0  0  0  0  0  0  0  0  0
   20.9015    1.3875    0.0000 H   0  0  0  0  0  0  0  0  0  0  0  0
   21.4948    1.9198    0.0000 H   0  0  0  0  0  0  0  0  0  0  0  0
   12.8521   -2.9801    0.0000 H   0  0  0  0  0  0  0  0  0  0  0  0
   13.6492   -2.9831    0.0000 H   0  0  0  0  0  0  0  0  0  0  0  0
   19.6961    2.9593    0.0000 H   0  0  0  0  0  0  0  0  0  0  0  0
   18.8205    3.0067    0.0000 H   0  0  0  0  0  0  0  0  0  0  0  0
   18.7731    2.1312    0.0000 H   0  0  0  0  0  0  0  0  0  0  0  0
   21.1710    3.5773    0.0000 H   0  0  0  0  0  0  0  0  0  0  0  0
   20.5778    3.0450    0.0000 H   0  0  0  0  0  0  0  0  0  0  0  0
   12.7887   -1.5299    0.0000 H   0  0  0  0  0  0  0  0  0  0  0  0
   11.9917   -1.5268    0.0000 H   0  0  0  0  0  0  0  0  0  0  0  0
   22.1907    2.5442    0.0000 H   0  0  0  0  0  0  0  0  0  0  0  0
   22.7839    3.0765    0.0000 H   0  0  0  0  0  0  0  0  0  0  0  0
   11.5180   -3.1200    0.0000 H   0  0  0  0  0  0  0  0  0  0  0  0
   22.6734    4.7037    0.0000 H   0  0  0  0  0  0  0  0  0  0  0  0
   23.5871    3.7140    0.0000 H   0  0  0  0  0  0  0  0  0  0  0  0
   24.0659    4.4485    0.0000 H   0  0  0  0  0  0  0  0  0  0  0  0
   23.3314    4.9273    0.0000 H   0  0  0  0  0  0  0  0  0  0  0  0
   22.2744    5.2728    0.0000 H   0  0  0  0  0  0  0  0  0  0  0  0
   21.3989    5.3202    0.0000 H   0  0  0  0  0  0  0  0  0  0  0  0
   21.3515    4.4446    0.0000 H   0  0  0  0  0  0  0  0  0  0  0  0
    8.9267   -1.3700    0.0000 H   0  0  0  0  0  0  0  0  0  0  0  0
   12.0639   -0.8121    0.0000 H   0  0  0  0  0  0  0  0  0  0  0  0
   10.3203   -3.8054    0.0000 H   0  0  0  0  0  0  0  0  0  0  0  0
    9.2580   -0.8012    0.0000 H   0  0  0  0  0  0  0  0  0  0  0  0
    7.1946   -1.3633    0.0000 H   0  0  0  0  0  0  0  0  0  0  0  0
   12.9357    0.6846    0.0000 H   0  0  0  0  0  0  0  0  0  0  0  0
    6.5607   -4.9809    0.0000 H   0  0  0  0  0  0  0  0  0  0  0  0
    7.1783   -5.6033    0.0000 H   0  0  0  0  0  0  0  0  0  0  0  0
    7.8007   -4.9857    0.0000 H   0  0  0  0  0  0  0  0  0  0  0  0
   10.1197    3.0424    0.0000 H   0  0  0  0  0  0  0  0  0  0  0  0
    9.2719    2.8187    0.0000 H   0  0  0  0  0  0  0  0  0  0  0  0
    9.4956    1.9709    0.0000 H   0  0  0  0  0  0  0  0  0  0  0  0
    9.1530   -6.4909    0.0000 H   0  0  0  0  0  0  0  0  0  0  0  0
    9.7706   -7.1133    0.0000 H   0  0  0  0  0  0  0  0  0  0  0  0
   10.3930   -6.4957    0.0000 H   0  0  0  0  0  0  0  0  0  0  0  0
    8.3877    3.0491    0.0000 H   0  0  0  0  0  0  0  0  0  0  0  0
    7.5399    2.8254    0.0000 H   0  0  0  0  0  0  0  0  0  0  0  0
    7.7636    1.9776    0.0000 H   0  0  0  0  0  0  0  0  0  0  0  0
    6.0022   -0.6687    0.0000 H   0  0  0  0  0  0  0  0  0  0  0  0
   12.7399    3.8054    0.0000 H   0  0  0  0  0  0  0  0  0  0  0  0
    4.5899   -3.0933    0.0000 H   0  0  0  0  0  0  0  0  0  0  0  0
   14.1334    1.3700    0.0000 H   0  0  0  0  0  0  0  0  0  0  0  0
    3.1901   -2.2779    0.0000 H   0  0  0  0  0  0  0  0  0  0  0  0
   15.5395    2.1746    0.0000 H   0  0  0  0  0  0  0  0  0  0  0  0
    1.6921   -0.4251    0.0000 H   0  0  0  0  0  0  0  0  0  0  0  0
    1.4619   -1.2712    0.0000 H   0  0  0  0  0  0  0  0  0  0  0  0
    2.3079   -1.5014    0.0000 H   0  0  0  0  0  0  0  0  0  0  0  0
   16.4276    2.9442    0.0000 H   0  0  0  0  0  0  0  0  0  0  0  0
   17.2754    3.1679    0.0000 H   0  0  0  0  0  0  0  0  0  0  0  0
   17.0517    4.0157    0.0000 H   0  0  0  0  0  0  0  0  0  0  0  0
    4.3636    2.0276    0.0000 H   0  0  0  0  0  0  0  0  0  0  0  0
    3.7460    2.6500    0.0000 H   0  0  0  0  0  0  0  0  0  0  0  0
    3.1236    2.0324    0.0000 H   0  0  0  0  0  0  0  0  0  0  0  0
   13.9072    6.4909    0.0000 H   0  0  0  0  0  0  0  0  0  0  0  0
   13.2895    7.1133    0.0000 H   0  0  0  0  0  0  0  0  0  0  0  0
   12.6672    6.4957    0.0000 H   0  0  0  0  0  0  0  0  0  0  0  0
  1 58  1  0  0  0  0
  1 64  1  0  0  0  0
  2 59  1  0  0  0  0
  2 65  1  0  0  0  0
  3 60  1  0  0  0  0
  3 68  1  0  0  0  0
  4 61  1  0  0  0  0
  4 69  1  0  0  0  0
  5 60  2  0  0  0  0
  6 61  2  0  0  0  0
  7 62  2  0  0  0  0
  8 63  2  0  0  0  0
  9 78  1  0  0  0  0
  9 82  1  0  0  0  0
 10 79  1  0  0  0  0
 10 83  1  0  0  0  0
 11 80  1  0  0  0  0
 11 84  1  0  0  0  0
 12 81  1  0  0  0  0
 12 85  1  0  0  0  0
 13 80  2  0  0  0  0
 14 81  2  0  0  0  0
 15 54  1  0  0  0  0
 15 62  1  0  0  0  0
 15142  1  0  0  0  0
 16 55  1  0  0  0  0
 16 63  1  0  0  0  0
 16143  1  0  0  0  0
 17 18  1  0  0  0  0
 17 19  1  0  0  0  0
 17 26  1  0  0  0  0
 17 86  1  0  0  0  0
 18 22  1  0  0  0  0
 18 24  1  0  0  0  0
 18 32  1  0  0  0  0
 19 20  1  0  0  0  0
 19 27  1  0  0  0  0
 19 87  1  0  0  0  0
 20 21  1  0  0  0  0
 20 25  1  0  0  0  0
 20 88  1  0  0  0  0
 21 23  1  0  0  0  0
 21 30  1  0  0  0  0
 21 34  1  0  0  0  0
 22 28  1  0  0  0  0
 22 33  1  0  0  0  0
 22 89  1  0  0  0  0
 23 29  1  0  0  0  0
 23 31  1  0  0  0  0
 23 90  1  0  0  0  0
 24 25  1  0  0  0  0
 24 91  1  0  0  0  0
 24 92  1  0  0  0  0
 25 93  1  0  0  0  0
 25 94  1  0  0  0  0
 26 28  1  0  0  0  0
 26 95  1  0  0  0  0
 26 96  1  0  0  0  0
 27 29  1  0  0  0  0
 27 97  1  0  0  0  0
 27 98  1  0  0  0  0
 28 99  1  0  0  0  0
 28100  1  0  0  0  0
 29101  1  0  0  0  0
 29102  1  0  0  0  0
 30 36  1  0  0  0  0
 30103  1  0  0  0  0
 30104  1  0  0  0  0
 31 35  1  0  0  0  0
 31105  1  0  0  0  0
 31106  1  0  0  0  0
 32107  1  0  0  0  0
 32108  1  0  0  0  0
 32109  1  0  0  0  0
 33 37  1  0  0  0  0
 33 39  1  0  0  0  0
 33110  1  0  0  0  0
 34111  1  0  0  0  0
 34112  1  0  0  0  0
 34113  1  0  0  0  0
 35 36  1  0  0  0  0
 35 38  1  0  0  0  0
 35114  1  0  0  0  0
 36115  1  0  0  0  0
 36116  1  0  0  0  0
 37 40  1  0  0  0  0
 37117  1  0  0  0  0
 37118  1  0  0  0  0
 38 41  1  0  0  0  0
 38119  1  0  0  0  0
 38120  1  0  0  0  0
 39121  1  0  0  0  0
 39122  1  0  0  0  0
 39123  1  0  0  0  0
 40 42  1  0  0  0  0
 40124  1  0  0  0  0
 40125  1  0  0  0  0
 41 43  1  0  0  0  0
 41126  1  0  0  0  0
 41127  1  0  0  0  0
 42 44  1  0  0  0  0
 42128  1  0  0  0  0
 42129  1  0  0  0  0
 43 45  2  0  0  0  0
 43130  1  0  0  0  0
 44 46  1  0  0  0  0
 44 47  1  0  0  0  0
 44131  1  0  0  0  0
 45 48  1  0  0  0  0
 45 49  1  0  0  0  0
 46132  1  0  0  0  0
 46133  1  0  0  0  0
 46134  1  0  0  0  0
 47135  1  0  0  0  0
 47136  1  0  0  0  0
 47137  1  0  0  0  0
 48 50  1  0  0  0  0
 48 52  2  0  0  0  0
 49 51  1  0  0  0  0
 49 53  2  0  0  0  0
 50 54  2  0  0  0  0
 50138  1  0  0  0  0
 51 55  2  0  0  0  0
 51139  1  0  0  0  0
 52 56  1  0  0  0  0
 52140  1  0  0  0  0
 53 57  1  0  0  0  0
 53141  1  0  0  0  0
 54 58  1  0  0  0  0
 55 59  1  0  0  0  0
 56 58  2  0  0  0  0
 56 60  1  0  0  0  0
 57 59  2  0  0  0  0
 57 61  1  0  0  0  0
 62 66  1  0  0  0  0
 63 67  1  0  0  0  0
 64144  1  0  0  0  0
 64145  1  0  0  0  0
 64146  1  0  0  0  0
 65147  1  0  0  0  0
 65148  1  0  0  0  0
 65149  1  0  0  0  0
 66 70  2  0  0  0  0
 66 72  1  0  0  0  0
 67 71  2  0  0  0  0
 67 73  1  0  0  0  0
 68150  1  0  0  0  0
 68151  1  0  0  0  0
 68152  1  0  0  0  0
 69153  1  0  0  0  0
 69154  1  0  0  0  0
 69155  1  0  0  0  0
 70 74  1  0  0  0  0
 70156  1  0  0  0  0
 71 75  1  0  0  0  0
 71157  1  0  0  0  0
 72 76  2  0  0  0  0
 72158  1  0  0  0  0
 73 77  2  0  0  0  0
 73159  1  0  0  0  0
 74 78  2  0  0  0  0
 74 80  1  0  0  0  0
 75 79  2  0  0  0  0
 75 81  1  0  0  0  0
 76 78  1  0  0  0  0
 76160  1  0  0  0  0
 77 79  1  0  0  0  0
 77161  1  0  0  0  0
 82162  1  0  0  0  0
 82163  1  0  0  0  0
 82164  1  0  0  0  0
 83165  1  0  0  0  0
 83166  1  0  0  0  0
 83167  1  0  0  0  0
 84168  1  0  0  0  0
 84169  1  0  0  0  0
 84170  1  0  0  0  0
 85171  1  0  0  0  0
 85172  1  0  0  0  0
 85173  1  0  0  0  0
M  END
> <PUBCHEM_COMPOUND_CID>
500391
> <PUBCHEM_COMPOUND_CANONICALIZED>
1
> <PUBCHEM_CACTVS_COMPLEXITY>
2210
> <PUBCHEM_CACTVS_HBOND_ACCEPTOR>
14
> <PUBCHEM_CACTVS_HBOND_DONOR>
2
> <PUBCHEM_CACTVS_ROTATABLE_BOND>
26
> <PUBCHEM_CACTVS_SUBSKEYS>
AAADcfB/PAAAAAAAAAAAAAAAAAAAAYAAAAAwYMGDAAAAAGDBVAAAHgAQAAAADwyBmAIyzoLABACIAiXSWACCCAAlIgAIiAEHbMgOJzbEtZuFMWhl9BHY6Ye83+LPoAACQAAIEADAAASAADAgAQAACAAAAA==
> <PUBCHEM_IUPAC_OPENEYE_NAME>
methyl 5-[4-[17-(1,5-dimethylhexyl)-10,13-dimethyl-2,3,4,5,6,7,8,9,11,12,14,15,16,17-tetradecahydro-1H-cyclopenta[a]phenanthren-3-yl]-1-[4-methoxy-3-methoxycarbonyl-5-[(4-methoxy-3-methoxycarbonyl-benzoyl)amino]phenyl]but-1-enyl]-2-methoxy-3-[(4-methoxy-3-methoxycarbonyl-benzoyl)amino]benzoate
> <PUBCHEM_IUPAC_CAS_NAME>
5-[4-[10,13-dimethyl-17-(6-methylheptan-2-yl)-2,3,4,5,6,7,8,9,11,12,14,15,16,17-tetradecahydro-1H-cyclopenta[a]phenanthren-3-yl]-1-[4-methoxy-3-methoxycarbonyl-5-[[(4-methoxy-3-methoxycarbonylphenyl)-oxomethyl]amino]phenyl]but-1-enyl]-2-methoxy-3-[[(4-methoxy-3-methoxycarbonylphenyl)-oxomethyl]amino]benzoic acid methyl ester
> <PUBCHEM_IUPAC_NAME_MARKUP>
methyl 5-[4-[10,13-dimethyl-17-(6-methylheptan-2-yl)-2,3,4,5,6,7,8,9,11,12,14,15,16,17-tetradecahydro-1<I>H</I>-cyclopenta[a]phenanthren-3-yl]-1-[4-methoxy-3-methoxycarbonyl-5-[(4-methoxy-3-methoxycarbonylbenzoyl)amino]phenyl]but-1-enyl]-2-methoxy-3-[(4-methoxy-3-methoxycarbonylbenzoyl)amino]benzoate
> <PUBCHEM_IUPAC_NAME>
methyl 5-[4-[10,13-dimethyl-17-(6-methylheptan-2-yl)-2,3,4,5,6,7,8,9,11,12,14,15,16,17-tetradecahydro-1H-cyclopenta[a]phenanthren-3-yl]-1-[4-methoxy-3-methoxycarbonyl-5-[(4-methoxy-3-methoxycarbonylbenzoyl)amino]phenyl]but-1-enyl]-2-methoxy-3-[(4-methoxy-3-methoxycarbonylbenzoyl)amino]benzoate
> <PUBCHEM_IUPAC_SYSTEMATIC_NAME>
methyl 5-[4-[10,13-dimethyl-17-(6-methylheptan-2-yl)-2,3,4,5,6,7,8,9,11,12,14,15,16,17-tetradecahydro-1H-cyclopenta[a]phenanthren-3-yl]-1-[4-methoxy-3-methoxycarbonyl-5-[(4-methoxy-3-methoxycarbonyl-phenyl)carbonylamino]phenyl]but-1-enyl]-2-methoxy-3-[(4-methoxy-3-methoxycarbonyl-phenyl)carbonylamino]benzoate
> <PUBCHEM_IUPAC_TRADITIONAL_NAME>
5-[1-[3-carbomethoxy-5-[(3-carbomethoxy-4-methoxy-benzoyl)amino]-4-methoxy-phenyl]-4-[17-(1,5-dimethylhexyl)-10,13-dimethyl-2,3,4,5,6,7,8,9,11,12,14,15,16,17-tetradecahydro-1H-cyclopenta[a]phenanthren-3-yl]but-1-enyl]-3-[(3-carbomethoxy-4-methoxy-benzoyl)amino]-2-methoxy-benzoic acid methyl ester
> <PUBCHEM_IUPAC_INCHI>
InChI=1S/C69H88N2O14/c1-39(2)16-14-17-40(3)53-24-25-54-48-23-22-46-32-41(28-30-68(46,4)55(48)29-31-69(53,54)5)18-15-19-47(44-35-51(66(76)84-12)60(80-8)56(37-44)70-62(72)42-20-26-58(78-6)49(33-42)64(74)82-10)45-36-52(67(77)85-13)61(81-9)57(38-45)71-63(73)43-21-27-59(79-7)50(34-43)65(75)83-11/h19-21,26-27,33-41,46,48,53-55H,14-18,22-25,28-32H2,1-13H3,(H,70,72)(H,71,73)
> <PUBCHEM_IUPAC_INCHIKEY>
UQCXXIYRFPRRSE-UHFFFAOYSA-N
> <PUBCHEM_XLOGP3_AA>
16.8
> <PUBCHEM_EXACT_MASS>
1168.62355549
> <PUBCHEM_MOLECULAR_FORMULA>
C69H88N2O14
> <PUBCHEM_MOLECULAR_WEIGHT>
1169.4
> <PUBCHEM_OPENEYE_CAN_SMILES>
CC(C)CCCC(C)C1CCC2C1(CCC3C2CCC4C3(CCC(C4)CCC=C(C5=CC(=C(C(=C5)NC(=O)C6=CC(=C(C=C6)OC)C(=O)OC)OC)C(=O)OC)C7=CC(=C(C(=C7)NC(=O)C8=CC(=C(C=C8)OC)C(=O)OC)OC)C(=O)OC)C)C
> <PUBCHEM_OPENEYE_ISO_SMILES>
CC(C)CCCC(C)C1CCC2C1(CCC3C2CCC4C3(CCC(C4)CCC=C(C5=CC(=C(C(=C5)NC(=O)C6=CC(=C(C=C6)OC)C(=O)OC)OC)C(=O)OC)C7=CC(=C(C(=C7)NC(=O)C8=CC(=C(C=C8)OC)C(=O)OC)OC)C(=O)OC)C)C
> <PUBCHEM_CACTVS_TPSA>
200
> <PUBCHEM_MONOISOTOPIC_WEIGHT>
1168.62355549
> <PUBCHEM_TOTAL_CHARGE>
0
> <PUBCHEM_HEAVY_ATOM_COUNT>
85
> <PUBCHEM_ATOM_DEF_STEREO_COUNT>
0
> <PUBCHEM_ATOM_UDEF_STEREO_COUNT>
9
> <PUBCHEM_BOND_DEF_STEREO_COUNT>
0
> <PUBCHEM_BOND_UDEF_STEREO_COUNT>
0
> <PUBCHEM_ISOTOPIC_ATOM_COUNT>
0
> <PUBCHEM_COMPONENT_COUNT>
1
> <PUBCHEM_CACTVS_TAUTO_COUNT>
-1
> <PUBCHEM_COORDINATE_TYPE>
1
5
255
> <PUBCHEM_BONDANNOTATIONS>
17  26  3
18  32  3
19  27  3
20  25  3
21  34  3
22  28  3
23  29  3
33  39  3
35  38  3
48  50  8
48  52  8
49  51  8
49  53  8
50  54  8
51  55  8
52  56  8
53  57  8
54  58  8
55  59  8
56  58  8
57  59  8
66  70  8
66  72  8
67  71  8
67  73  8
70  74  8
71  75  8
72  76  8
73  77  8
74  78  8
75  79  8
76  78  8
77  79  8
$$$$
