500305
  -OEChem-10302200282D
 37 38  0     1  0  0  0  0  0999 V2000
    6.0957   -0.7063    0.0000 O   0  0  0  0  0  0  0  0  0  0  0  0
    7.3690   -2.3618    0.0000 O   0  0  0  0  0  0  0  0  0  0  0  0
    4.6056   -3.3799    0.0000 O   0  0  0  0  0  0  0  0  0  0  0  0
    7.0188    0.8815    0.0000 O   0  0  0  0  0  0  0  0  0  0  0  0
    2.7976   -1.4483    0.0000 O   0  0  0  0  0  0  0  0  0  0  0  0
    5.2867    3.8815    0.0000 O   0  0  0  0  0  0  0  0  0  0  0  0
    5.2867    0.8815    0.0000 N   0  0  0  0  0  0  0  0  0  0  0  0
    4.1989   -2.4664    0.0000 N   0  0  0  0  0  0  0  0  0  0  0  0
    6.1527    2.3815    0.0000 N   0  0  0  0  0  0  0  0  0  0  0  0
    2.6166   -3.1708    0.0000 N   0  0  0  0  0  0  0  0  0  0  0  0
    4.7867   -1.6573    0.0000 C   0  0  2  0  0  0  0  0  0  0  0  0
    4.4777   -0.7063    0.0000 C   0  0  0  0  0  0  0  0  0  0  0  0
    5.7867   -1.6573    0.0000 C   0  0  1  0  0  0  0  0  0  0  0  0
    5.2867   -0.1185    0.0000 C   0  0  1  0  0  0  0  0  0  0  0  0
    6.3745   -2.4664    0.0000 C   0  0  0  0  0  0  0  0  0  0  0  0
    4.4207    1.3815    0.0000 C   0  0  0  0  0  0  0  0  0  0  0  0
    6.1527    1.3815    0.0000 C   0  0  0  0  0  0  0  0  0  0  0  0
    3.2044   -2.3618    0.0000 C   0  0  0  0  0  0  0  0  0  0  0  0
    4.4207    2.3815    0.0000 C   0  0  0  0  0  0  0  0  0  0  0  0
    5.2867    2.8815    0.0000 C   0  0  0  0  0  0  0  0  0  0  0  0
    3.5546    2.8815    0.0000 C   0  0  0  0  0  0  0  0  0  0  0  0
    5.0682   -2.2098    0.0000 H   0  0  0  0  0  0  0  0  0  0  0  0
    4.1677   -0.1694    0.0000 H   0  0  0  0  0  0  0  0  0  0  0  0
    3.9113   -0.9585    0.0000 H   0  0  0  0  0  0  0  0  0  0  0  0
    6.3991   -1.5604    0.0000 H   0  0  0  0  0  0  0  0  0  0  0  0
    5.8391    0.1630    0.0000 H   0  0  0  0  0  0  0  0  0  0  0  0
    5.8172   -2.7382    0.0000 H   0  0  0  0  0  0  0  0  0  0  0  0
    6.5454   -3.0623    0.0000 H   0  0  0  0  0  0  0  0  0  0  0  0
    3.8837    1.0715    0.0000 H   0  0  0  0  0  0  0  0  0  0  0  0
    7.7334   -2.8634    0.0000 H   0  0  0  0  0  0  0  0  0  0  0  0
    4.2412   -3.8815    0.0000 H   0  0  0  0  0  0  0  0  0  0  0  0
    6.6897    2.6915    0.0000 H   0  0  0  0  0  0  0  0  0  0  0  0
    3.8646    3.4184    0.0000 H   0  0  0  0  0  0  0  0  0  0  0  0
    3.0177    3.1915    0.0000 H   0  0  0  0  0  0  0  0  0  0  0  0
    3.2446    2.3446    0.0000 H   0  0  0  0  0  0  0  0  0  0  0  0
    2.0000   -3.1060    0.0000 H   0  0  0  0  0  0  0  0  0  0  0  0
    2.8688   -3.7372    0.0000 H   0  0  0  0  0  0  0  0  0  0  0  0
  1 13  1  0  0  0  0
  1 14  1  0  0  0  0
  2 15  1  0  0  0  0
  2 30  1  0  0  0  0
  3  8  1  0  0  0  0
  3 31  1  0  0  0  0
  4 17  2  0  0  0  0
  5 18  2  0  0  0  0
  6 20  2  0  0  0  0
 14  7  1  6  0  0  0
  7 16  1  0  0  0  0
  7 17  1  0  0  0  0
 11  8  1  6  0  0  0
  8 18  1  0  0  0  0
  9 17  1  0  0  0  0
  9 20  1  0  0  0  0
  9 32  1  0  0  0  0
 10 18  1  0  0  0  0
 10 36  1  0  0  0  0
 10 37  1  0  0  0  0
 11 12  1  0  0  0  0
 11 13  1  0  0  0  0
 11 22  1  0  0  0  0
 12 14  1  0  0  0  0
 12 23  1  0  0  0  0
 12 24  1  0  0  0  0
 13 15  1  6  0  0  0
 13 25  1  0  0  0  0
 14 26  1  0  0  0  0
 15 27  1  0  0  0  0
 15 28  1  0  0  0  0
 16 19  2  0  0  0  0
 16 29  1  0  0  0  0
 19 20  1  0  0  0  0
 19 21  1  0  0  0  0
 21 33  1  0  0  0  0
 21 34  1  0  0  0  0
 21 35  1  0  0  0  0
M  END
> <PUBCHEM_COMPOUND_CID>
500305
> <PUBCHEM_COMPOUND_CANONICALIZED>
1
> <PUBCHEM_CACTVS_COMPLEXITY>
507
> <PUBCHEM_CACTVS_HBOND_ACCEPTOR>
6
> <PUBCHEM_CACTVS_HBOND_DONOR>
4
> <PUBCHEM_CACTVS_ROTATABLE_BOND>
3
> <PUBCHEM_CACTVS_SUBSKEYS>
AAADceBzuAAAAAAAAAAAAAAAAAAAASAAAAAgAAAAAAAAAAAAAAAAHgAUCAAADDzhgAYDAAPQBgCIAgFWUACAAAAAAAAgAAEIAECDEAIAwQAPQAAOByITAMCwMAIAAAAAAAAAAAAAAAAAAAAAAAAAAAAAAA==
> <PUBCHEM_IUPAC_OPENEYE_NAME>
1-hydroxy-1-[(2S,3R,5R)-2-(hydroxymethyl)-5-(5-methyl-2,4-dioxo-pyrimidin-1-yl)tetrahydrofuran-3-yl]urea
> <PUBCHEM_IUPAC_CAS_NAME>
1-hydroxy-1-[(2S,3R,5R)-2-(hydroxymethyl)-5-(5-methyl-2,4-dioxo-1-pyrimidinyl)-3-oxolanyl]urea
> <PUBCHEM_IUPAC_NAME_MARKUP>
1-hydroxy-1-[(2<I>S</I>,3<I>R</I>,5<I>R</I>)-2-(hydroxymethyl)-5-(5-methyl-2,4-dioxopyrimidin-1-yl)oxolan-3-yl]urea
> <PUBCHEM_IUPAC_NAME>
1-hydroxy-1-[(2S,3R,5R)-2-(hydroxymethyl)-5-(5-methyl-2,4-dioxopyrimidin-1-yl)oxolan-3-yl]urea
> <PUBCHEM_IUPAC_SYSTEMATIC_NAME>
1-[(2S,3R,5R)-2-(hydroxymethyl)-5-[5-methyl-2,4-bis(oxidanylidene)pyrimidin-1-yl]oxolan-3-yl]-1-oxidanyl-urea
> <PUBCHEM_IUPAC_TRADITIONAL_NAME>
1-[(2S,3R,5R)-5-(2,4-diketo-5-methyl-pyrimidin-1-yl)-2-methylol-tetrahydrofuran-3-yl]-1-hydroxy-urea
> <PUBCHEM_IUPAC_INCHI>
InChI=1S/C11H16N4O6/c1-5-3-14(11(19)13-9(5)17)8-2-6(7(4-16)21-8)15(20)10(12)18/h3,6-8,16,20H,2,4H2,1H3,(H2,12,18)(H,13,17,19)/t6-,7-,8-/m1/s1
> <PUBCHEM_IUPAC_INCHIKEY>
GQUKYSQQRZCVEM-BWZBUEFSSA-N
> <PUBCHEM_XLOGP3>
-2.2
> <PUBCHEM_EXACT_MASS>
300.10698424
> <PUBCHEM_MOLECULAR_FORMULA>
C11H16N4O6
> <PUBCHEM_MOLECULAR_WEIGHT>
300.27
> <PUBCHEM_OPENEYE_CAN_SMILES>
CC1=CN(C(=O)NC1=O)C2CC(C(O2)CO)N(C(=O)N)O
> <PUBCHEM_OPENEYE_ISO_SMILES>
CC1=CN(C(=O)NC1=O)[C@H]2C[C@H]([C@H](O2)CO)N(C(=O)N)O
> <PUBCHEM_CACTVS_TPSA>
145
> <PUBCHEM_MONOISOTOPIC_WEIGHT>
300.10698424
> <PUBCHEM_TOTAL_CHARGE>
0
> <PUBCHEM_HEAVY_ATOM_COUNT>
21
> <PUBCHEM_ATOM_DEF_STEREO_COUNT>
3
> <PUBCHEM_ATOM_UDEF_STEREO_COUNT>
0
> <PUBCHEM_BOND_DEF_STEREO_COUNT>
0
> <PUBCHEM_BOND_UDEF_STEREO_COUNT>
0
> <PUBCHEM_ISOTOPIC_ATOM_COUNT>
0
> <PUBCHEM_COMPONENT_COUNT>
1
> <PUBCHEM_CACTVS_TAUTO_COUNT>
-1
> <PUBCHEM_COORDINATE_TYPE>
1
5
255
> <PUBCHEM_BONDANNOTATIONS>
13  15  6
16  19  8
19  20  8
14  7  6
7  16  8
7  17  8
11  8  6
9  17  8
9  20  8
$$$$
