500306
  -OEChem-10302200282D
 36 37  0     1  0  0  0  0  0999 V2000
    5.1350   -0.5173    0.0000 O   0  0  0  0  0  0  0  0  0  0  0  0
   12.1292    1.5068    0.0000 O   0  0  0  0  0  0  0  0  0  0  0  0
    6.0010    0.9827    0.0000 O   0  0  0  0  0  0  0  0  0  0  0  0
    6.8671   -0.5173    0.0000 C   0  0  3  0  0  0  0  0  0  0  0  0
    7.7331   -0.0173    0.0000 C   0  0  0  0  0  0  0  0  0  0  0  0
    9.4651   -0.0173    0.0000 C   0  0  0  0  0  0  0  0  0  0  0  0
    9.4651    0.9827    0.0000 C   0  0  0  0  0  0  0  0  0  0  0  0
    8.5991   -0.5173    0.0000 C   0  0  0  0  0  0  0  0  0  0  0  0
    7.7331    0.9827    0.0000 C   0  0  0  0  0  0  0  0  0  0  0  0
    8.5991    1.4827    0.0000 C   0  0  0  0  0  0  0  0  0  0  0  0
    6.8671   -1.5173    0.0000 C   0  0  0  0  0  0  0  0  0  0  0  0
   10.3591   -0.5520    0.0000 C   0  0  0  0  0  0  0  0  0  0  0  0
   10.3591    1.5173    0.0000 C   0  0  0  0  0  0  0  0  0  0  0  0
    6.0010   -0.0173    0.0000 C   0  0  0  0  0  0  0  0  0  0  0  0
   11.2651    1.0035    0.0000 C   0  0  0  0  0  0  0  0  0  0  0  0
   11.2651   -0.0381    0.0000 C   0  0  0  0  0  0  0  0  0  0  0  0
    4.2690   -0.0173    0.0000 C   0  0  0  0  0  0  0  0  0  0  0  0
   12.9972    1.0102    0.0000 C   0  0  0  0  0  0  0  0  0  0  0  0
    3.4030   -0.5173    0.0000 C   0  0  0  0  0  0  0  0  0  0  0  0
    2.5369   -1.0173    0.0000 C   0  0  0  0  0  0  0  0  0  0  0  0
    6.3301   -0.8273    0.0000 H   0  0  0  0  0  0  0  0  0  0  0  0
    8.5991   -1.1373    0.0000 H   0  0  0  0  0  0  0  0  0  0  0  0
    7.1962    1.2927    0.0000 H   0  0  0  0  0  0  0  0  0  0  0  0
    8.5991    2.1027    0.0000 H   0  0  0  0  0  0  0  0  0  0  0  0
    6.2471   -1.5173    0.0000 H   0  0  0  0  0  0  0  0  0  0  0  0
    6.8671   -2.1373    0.0000 H   0  0  0  0  0  0  0  0  0  0  0  0
    7.4871   -1.5173    0.0000 H   0  0  0  0  0  0  0  0  0  0  0  0
   10.3519   -1.1720    0.0000 H   0  0  0  0  0  0  0  0  0  0  0  0
   10.3519    2.1373    0.0000 H   0  0  0  0  0  0  0  0  0  0  0  0
   11.8009   -0.3502    0.0000 H   0  0  0  0  0  0  0  0  0  0  0  0
    4.6675    0.4576    0.0000 H   0  0  0  0  0  0  0  0  0  0  0  0
    3.8705    0.4576    0.0000 H   0  0  0  0  0  0  0  0  0  0  0  0
   12.6893    0.4720    0.0000 H   0  0  0  0  0  0  0  0  0  0  0  0
   13.5353    0.7022    0.0000 H   0  0  0  0  0  0  0  0  0  0  0  0
   13.3051    1.5483    0.0000 H   0  0  0  0  0  0  0  0  0  0  0  0
    2.0000   -1.3273    0.0000 H   0  0  0  0  0  0  0  0  0  0  0  0
  1 14  1  0  0  0  0
  1 17  1  0  0  0  0
  2 15  1  0  0  0  0
  2 18  1  0  0  0  0
  3 14  2  0  0  0  0
  4  5  1  0  0  0  0
  4 11  1  0  0  0  0
  4 14  1  0  0  0  0
  4 21  1  0  0  0  0
  5  8  2  0  0  0  0
  5  9  1  0  0  0  0
  6  7  2  0  0  0  0
  6  8  1  0  0  0  0
  6 12  1  0  0  0  0
  7 10  1  0  0  0  0
  7 13  1  0  0  0  0
  8 22  1  0  0  0  0
  9 10  2  0  0  0  0
  9 23  1  0  0  0  0
 10 24  1  0  0  0  0
 11 25  1  0  0  0  0
 11 26  1  0  0  0  0
 11 27  1  0  0  0  0
 12 16  2  0  0  0  0
 12 28  1  0  0  0  0
 13 15  2  0  0  0  0
 13 29  1  0  0  0  0
 15 16  1  0  0  0  0
 16 30  1  0  0  0  0
 17 19  1  0  0  0  0
 17 31  1  0  0  0  0
 17 32  1  0  0  0  0
 18 33  1  0  0  0  0
 18 34  1  0  0  0  0
 18 35  1  0  0  0  0
 19 20  3  0  0  0  0
 20 36  1  0  0  0  0
M  END
> <PUBCHEM_COMPOUND_CID>
500306
> <PUBCHEM_COMPOUND_CANONICALIZED>
1
> <PUBCHEM_CACTVS_COMPLEXITY>
381
> <PUBCHEM_CACTVS_HBOND_ACCEPTOR>
3
> <PUBCHEM_CACTVS_HBOND_DONOR>
0
> <PUBCHEM_CACTVS_ROTATABLE_BOND>
5
> <PUBCHEM_CACTVS_SUBSKEYS>
AAADceB4MAAAAAAAAAAAAAAAAAAAAAAAAAAwYAAAAAAAAADBUAAAGgAAAAAADQSgmAIyDsAABADIGiDSCAACCAAgIAAIiAEGCIgMJjKENRqCMCAkwBEIqAeIyPCO4AADAAAQAADAAAYAACAAAAAAAAAAAA==
> <PUBCHEM_IUPAC_OPENEYE_NAME>
prop-2-ynyl 2-(6-methoxy-2-naphthyl)propanoate
> <PUBCHEM_IUPAC_CAS_NAME>
2-(6-methoxy-2-naphthalenyl)propanoic acid prop-2-ynyl ester
> <PUBCHEM_IUPAC_NAME_MARKUP>
prop-2-ynyl 2-(6-methoxynaphthalen-2-yl)propanoate
> <PUBCHEM_IUPAC_NAME>
prop-2-ynyl 2-(6-methoxynaphthalen-2-yl)propanoate
> <PUBCHEM_IUPAC_SYSTEMATIC_NAME>
prop-2-ynyl 2-(6-methoxynaphthalen-2-yl)propanoate
> <PUBCHEM_IUPAC_TRADITIONAL_NAME>
2-(6-methoxy-2-naphthyl)propionic acid propargyl ester
> <PUBCHEM_IUPAC_INCHI>
InChI=1S/C17H16O3/c1-4-9-20-17(18)12(2)13-5-6-15-11-16(19-3)8-7-14(15)10-13/h1,5-8,10-12H,9H2,2-3H3
> <PUBCHEM_IUPAC_INCHIKEY>
RPLLXWJHCSDOLS-UHFFFAOYSA-N
> <PUBCHEM_XLOGP3>
3.2
> <PUBCHEM_EXACT_MASS>
268.109944368
> <PUBCHEM_MOLECULAR_FORMULA>
C17H16O3
> <PUBCHEM_MOLECULAR_WEIGHT>
268.31
> <PUBCHEM_OPENEYE_CAN_SMILES>
CC(C1=CC2=C(C=C1)C=C(C=C2)OC)C(=O)OCC#C
> <PUBCHEM_OPENEYE_ISO_SMILES>
CC(C1=CC2=C(C=C1)C=C(C=C2)OC)C(=O)OCC#C
> <PUBCHEM_CACTVS_TPSA>
35.5
> <PUBCHEM_MONOISOTOPIC_WEIGHT>
268.109944368
> <PUBCHEM_TOTAL_CHARGE>
0
> <PUBCHEM_HEAVY_ATOM_COUNT>
20
> <PUBCHEM_ATOM_DEF_STEREO_COUNT>
0
> <PUBCHEM_ATOM_UDEF_STEREO_COUNT>
1
> <PUBCHEM_BOND_DEF_STEREO_COUNT>
0
> <PUBCHEM_BOND_UDEF_STEREO_COUNT>
0
> <PUBCHEM_ISOTOPIC_ATOM_COUNT>
0
> <PUBCHEM_COMPONENT_COUNT>
1
> <PUBCHEM_CACTVS_TAUTO_COUNT>
-1
> <PUBCHEM_COORDINATE_TYPE>
1
5
255
> <PUBCHEM_BONDANNOTATIONS>
12  16  8
13  15  8
15  16  8
4  11  3
5  8  8
5  9  8
6  12  8
6  7  8
6  8  8
7  10  8
7  13  8
9  10  8
$$$$
