500378
  -OEChem-10302200282D
 62 67  0     1  0  0  0  0  0999 V2000
    7.4440    0.1917    0.0000 O   0  0  0  0  0  0  0  0  0  0  0  0
   10.1121    0.6953    0.0000 O   0  0  0  0  0  0  0  0  0  0  0  0
    5.6478   -2.6546    0.0000 O   0  0  0  0  0  0  0  0  0  0  0  0
    9.1922   -2.8498    0.0000 O   0  0  0  0  0  0  0  0  0  0  0  0
    6.0050    0.6497    0.0000 O   0  0  0  0  0  0  0  0  0  0  0  0
    8.3267    4.7194    0.0000 O   0  0  0  0  0  0  0  0  0  0  0  0
    3.3571   -0.3763    0.0000 O   0  0  0  0  0  0  0  0  0  0  0  0
    6.0832    1.7611    0.0000 O   0  0  0  0  0  0  0  0  0  0  0  0
    2.0000   -4.4209    0.0000 O   0  0  0  0  0  0  0  0  0  0  0  0
    2.8691    3.0532    0.0000 O   0  0  0  0  0  0  0  0  0  0  0  0
    9.2442    0.1986    0.0000 C   0  0  3  0  0  0  0  0  0  0  0  0
    8.3421    0.7194    0.0000 C   0  0  3  0  0  0  0  0  0  0  0  0
    9.2361   -0.8430    0.0000 C   0  0  0  0  0  0  0  0  0  0  0  0
    8.3261   -1.3498    0.0000 C   0  0  0  0  0  0  0  0  0  0  0  0
    7.4601   -0.8498    0.0000 C   0  0  0  0  0  0  0  0  0  0  0  0
    6.5941   -1.3498    0.0000 C   0  0  0  0  0  0  0  0  0  0  0  0
    8.3382    1.7194    0.0000 C   0  0  0  0  0  0  0  0  0  0  0  0
    6.5941   -2.3498    0.0000 C   0  0  0  0  0  0  0  0  0  0  0  0
    8.3261   -2.3498    0.0000 C   0  0  0  0  0  0  0  0  0  0  0  0
    5.6478   -1.0451    0.0000 C   0  0  0  0  0  0  0  0  0  0  0  0
    7.4601   -2.8498    0.0000 C   0  0  0  0  0  0  0  0  0  0  0  0
    5.0642   -1.8498    0.0000 C   0  0  0  0  0  0  0  0  0  0  0  0
    9.2023    2.2228    0.0000 C   0  0  0  0  0  0  0  0  0  0  0  0
    7.4703    2.2161    0.0000 C   0  0  0  0  0  0  0  0  0  0  0  0
    5.3372   -0.0946    0.0000 C   0  0  0  0  0  0  0  0  0  0  0  0
    4.2981   -2.4925    0.0000 C   0  0  0  0  0  0  0  0  0  0  0  0
    9.1985    3.2228    0.0000 C   0  0  0  0  0  0  0  0  0  0  0  0
    7.4664    3.2161    0.0000 C   0  0  0  0  0  0  0  0  0  0  0  0
    4.7202    0.6924    0.0000 C   0  0  0  0  0  0  0  0  0  0  0  0
    8.3305    3.7194    0.0000 C   0  0  0  0  0  0  0  0  0  0  0  0
    4.4718   -3.4774    0.0000 C   0  0  0  0  0  0  0  0  0  0  0  0
    3.3585   -2.1506    0.0000 C   0  0  0  0  0  0  0  0  0  0  0  0
    3.7302    0.5516    0.0000 C   0  0  0  0  0  0  0  0  0  0  0  0
    5.0932    1.6202    0.0000 C   0  0  0  0  0  0  0  0  0  0  0  0
    3.7058   -4.1202    0.0000 C   0  0  0  0  0  0  0  0  0  0  0  0
    2.5925   -2.7934    0.0000 C   0  0  0  0  0  0  0  0  0  0  0  0
    2.7660   -3.7781    0.0000 C   0  0  0  0  0  0  0  0  0  0  0  0
    3.1132    1.3385    0.0000 C   0  0  0  0  0  0  0  0  0  0  0  0
    4.4761    2.4072    0.0000 C   0  0  0  0  0  0  0  0  0  0  0  0
    3.4861    2.2663    0.0000 C   0  0  0  0  0  0  0  0  0  0  0  0
    9.7793   -0.1145    0.0000 H   0  0  0  0  0  0  0  0  0  0  0  0
    8.8784    1.0305    0.0000 H   0  0  0  0  0  0  0  0  0  0  0  0
    9.4407   -1.4282    0.0000 H   0  0  0  0  0  0  0  0  0  0  0  0
    9.8478   -0.7416    0.0000 H   0  0  0  0  0  0  0  0  0  0  0  0
    7.4601   -3.4698    0.0000 H   0  0  0  0  0  0  0  0  0  0  0  0
   10.6478    0.3832    0.0000 H   0  0  0  0  0  0  0  0  0  0  0  0
    9.7404    1.9148    0.0000 H   0  0  0  0  0  0  0  0  0  0  0  0
    6.9345    1.9040    0.0000 H   0  0  0  0  0  0  0  0  0  0  0  0
    9.1922   -3.4698    0.0000 H   0  0  0  0  0  0  0  0  0  0  0  0
    9.7342    3.5348    0.0000 H   0  0  0  0  0  0  0  0  0  0  0  0
    6.9283    3.5240    0.0000 H   0  0  0  0  0  0  0  0  0  0  0  0
    5.0544   -3.6894    0.0000 H   0  0  0  0  0  0  0  0  0  0  0  0
    3.2508   -1.5400    0.0000 H   0  0  0  0  0  0  0  0  0  0  0  0
    3.8134   -4.7307    0.0000 H   0  0  0  0  0  0  0  0  0  0  0  0
    2.0099   -2.5813    0.0000 H   0  0  0  0  0  0  0  0  0  0  0  0
    2.4994    1.2512    0.0000 H   0  0  0  0  0  0  0  0  0  0  0  0
    4.7074    2.9824    0.0000 H   0  0  0  0  0  0  0  0  0  0  0  0
    8.8624    5.0315    0.0000 H   0  0  0  0  0  0  0  0  0  0  0  0
    2.7433   -0.4637    0.0000 H   0  0  0  0  0  0  0  0  0  0  0  0
    6.3144    2.3364    0.0000 H   0  0  0  0  0  0  0  0  0  0  0  0
    2.1077   -5.0315    0.0000 H   0  0  0  0  0  0  0  0  0  0  0  0
    3.1004    3.6285    0.0000 H   0  0  0  0  0  0  0  0  0  0  0  0
  1 12  1  0  0  0  0
  1 15  1  0  0  0  0
  2 11  1  0  0  0  0
  2 46  1  0  0  0  0
  3 18  1  0  0  0  0
  3 22  1  0  0  0  0
  4 19  1  0  0  0  0
  4 49  1  0  0  0  0
  5 25  2  0  0  0  0
  6 30  1  0  0  0  0
  6 58  1  0  0  0  0
  7 33  1  0  0  0  0
  7 59  1  0  0  0  0
  8 34  1  0  0  0  0
  8 60  1  0  0  0  0
  9 37  1  0  0  0  0
  9 61  1  0  0  0  0
 10 40  1  0  0  0  0
 10 62  1  0  0  0  0
 11 12  1  0  0  0  0
 11 13  1  0  0  0  0
 11 41  1  0  0  0  0
 12 17  1  0  0  0  0
 12 42  1  0  0  0  0
 13 14  1  0  0  0  0
 13 43  1  0  0  0  0
 13 44  1  0  0  0  0
 14 15  2  0  0  0  0
 14 19  1  0  0  0  0
 15 16  1  0  0  0  0
 16 18  2  0  0  0  0
 16 20  1  0  0  0  0
 17 23  2  0  0  0  0
 17 24  1  0  0  0  0
 18 21  1  0  0  0  0
 19 21  2  0  0  0  0
 20 22  2  0  0  0  0
 20 25  1  0  0  0  0
 21 45  1  0  0  0  0
 22 26  1  0  0  0  0
 23 27  1  0  0  0  0
 23 47  1  0  0  0  0
 24 28  2  0  0  0  0
 24 48  1  0  0  0  0
 25 29  1  0  0  0  0
 26 31  2  0  0  0  0
 26 32  1  0  0  0  0
 27 30  2  0  0  0  0
 27 50  1  0  0  0  0
 28 30  1  0  0  0  0
 28 51  1  0  0  0  0
 29 33  2  0  0  0  0
 29 34  1  0  0  0  0
 31 35  1  0  0  0  0
 31 52  1  0  0  0  0
 32 36  2  0  0  0  0
 32 53  1  0  0  0  0
 33 38  1  0  0  0  0
 34 39  2  0  0  0  0
 35 37  2  0  0  0  0
 35 54  1  0  0  0  0
 36 37  1  0  0  0  0
 36 55  1  0  0  0  0
 38 40  2  0  0  0  0
 38 56  1  0  0  0  0
 39 40  1  0  0  0  0
 39 57  1  0  0  0  0
M  END
> <PUBCHEM_COMPOUND_CID>
500378
> <PUBCHEM_COMPOUND_CANONICALIZED>
1
> <PUBCHEM_CACTVS_COMPLEXITY>
874
> <PUBCHEM_CACTVS_HBOND_ACCEPTOR>
10
> <PUBCHEM_CACTVS_HBOND_DONOR>
7
> <PUBCHEM_CACTVS_ROTATABLE_BOND>
4
> <PUBCHEM_CACTVS_SUBSKEYS>
AAADceB4PAAAAAAAAAAAAAAAAAAAASAAAAA0YMGCAAAAAEiR9AAAGgAACAAADBSgmAIwBsAABkCIAqBSAAACCAAkIAAIiAEGCMgNNzaONRqCeWCl4BULuYfL7PzOoAACCAAIAABAAAQQABAAAAAAAAAAAA==
> <PUBCHEM_IUPAC_OPENEYE_NAME>
[3,5-dihydroxy-2,8-bis(4-hydroxyphenyl)-3,4-dihydro-2H-furo[2,3-h]chromen-9-yl]-(2,4,6-trihydroxyphenyl)methanone
> <PUBCHEM_IUPAC_CAS_NAME>
[3,5-dihydroxy-2,8-bis(4-hydroxyphenyl)-3,4-dihydro-2H-furo[2,3-h][1]benzopyran-9-yl]-(2,4,6-trihydroxyphenyl)methanone
> <PUBCHEM_IUPAC_NAME_MARKUP>
[3,5-dihydroxy-2,8-bis(4-hydroxyphenyl)-3,4-dihydro-2<I>H</I>-furo[2,3-h]chromen-9-yl]-(2,4,6-trihydroxyphenyl)methanone
> <PUBCHEM_IUPAC_NAME>
[3,5-dihydroxy-2,8-bis(4-hydroxyphenyl)-3,4-dihydro-2H-furo[2,3-h]chromen-9-yl]-(2,4,6-trihydroxyphenyl)methanone
> <PUBCHEM_IUPAC_SYSTEMATIC_NAME>
[2,8-bis(4-hydroxyphenyl)-3,5-bis(oxidanyl)-3,4-dihydro-2H-furo[2,3-h]chromen-9-yl]-[2,4,6-tris(oxidanyl)phenyl]methanone
> <PUBCHEM_IUPAC_TRADITIONAL_NAME>
[3,5-dihydroxy-2,8-bis(4-hydroxyphenyl)-3,4-dihydro-2H-furo[2,3-h]chromen-9-yl]-(2,4,6-trihydroxyphenyl)methanone
> <PUBCHEM_IUPAC_INCHI>
InChI=1S/C30H22O10/c31-15-5-1-13(2-6-15)28-22(37)11-18-19(34)12-23-25(30(18)40-28)26(29(39-23)14-3-7-16(32)8-4-14)27(38)24-20(35)9-17(33)10-21(24)36/h1-10,12,22,28,31-37H,11H2
> <PUBCHEM_IUPAC_INCHIKEY>
JBNFGJOTOPTIDE-UHFFFAOYSA-N
> <PUBCHEM_XLOGP3_AA>
4.7
> <PUBCHEM_EXACT_MASS>
542.12129689
> <PUBCHEM_MOLECULAR_FORMULA>
C30H22O10
> <PUBCHEM_MOLECULAR_WEIGHT>
542.5
> <PUBCHEM_OPENEYE_CAN_SMILES>
C1C(C(OC2=C1C(=CC3=C2C(=C(O3)C4=CC=C(C=C4)O)C(=O)C5=C(C=C(C=C5O)O)O)O)C6=CC=C(C=C6)O)O
> <PUBCHEM_OPENEYE_ISO_SMILES>
C1C(C(OC2=C1C(=CC3=C2C(=C(O3)C4=CC=C(C=C4)O)C(=O)C5=C(C=C(C=C5O)O)O)O)C6=CC=C(C=C6)O)O
> <PUBCHEM_CACTVS_TPSA>
181
> <PUBCHEM_MONOISOTOPIC_WEIGHT>
542.12129689
> <PUBCHEM_TOTAL_CHARGE>
0
> <PUBCHEM_HEAVY_ATOM_COUNT>
40
> <PUBCHEM_ATOM_DEF_STEREO_COUNT>
0
> <PUBCHEM_ATOM_UDEF_STEREO_COUNT>
2
> <PUBCHEM_BOND_DEF_STEREO_COUNT>
0
> <PUBCHEM_BOND_UDEF_STEREO_COUNT>
0
> <PUBCHEM_ISOTOPIC_ATOM_COUNT>
0
> <PUBCHEM_COMPONENT_COUNT>
1
> <PUBCHEM_CACTVS_TAUTO_COUNT>
-1
> <PUBCHEM_COORDINATE_TYPE>
1
5
255
> <PUBCHEM_BONDANNOTATIONS>
12  17  3
14  15  8
14  19  8
15  16  8
16  18  8
16  20  8
17  23  8
17  24  8
18  21  8
19  21  8
11  2  3
20  22  8
23  27  8
24  28  8
26  31  8
26  32  8
27  30  8
28  30  8
29  33  8
29  34  8
3  18  8
3  22  8
31  35  8
32  36  8
33  38  8
34  39  8
35  37  8
36  37  8
38  40  8
39  40  8
$$$$
