500385
  -OEChem-10302200282D
 37 39  0     1  0  0  0  0  0999 V2000
    8.0687    0.9621    0.0000 O   0  0  0  0  0  0  0  0  0  0  0  0
    5.2788   -0.7980    0.0000 O   0  0  0  0  0  0  0  0  0  0  0  0
    3.5000    1.8282    0.0000 O   0  0  0  0  0  0  0  0  0  0  0  0
    3.5000    0.0961    0.0000 O   0  0  0  0  0  0  0  0  0  0  0  0
    6.5388    0.4621    0.0000 N   0  0  0  0  0  0  0  0  0  0  0  0
    6.5388    1.4621    0.0000 C   0  0  3  0  0  0  0  0  0  0  0  0
    5.5878    1.7711    0.0000 C   0  0  0  0  0  0  0  0  0  0  0  0
    5.0000    0.9621    0.0000 C   0  0  3  0  0  0  0  0  0  0  0  0
    7.4851    0.1574    0.0000 C   0  0  3  0  0  0  0  0  0  0  0  0
    7.4851    1.7668    0.0000 C   0  0  0  0  0  0  0  0  0  0  0  0
    5.5878    0.1531    0.0000 C   0  0  0  0  0  0  0  0  0  0  0  0
    7.7957   -0.7931    0.0000 C   0  0  0  0  0  0  0  0  0  0  0  0
    4.0000    0.9621    0.0000 C   0  0  0  0  0  0  0  0  0  0  0  0
    8.7742   -0.9994    0.0000 C   0  0  0  0  0  0  0  0  0  0  0  0
    7.1279   -1.5374    0.0000 C   0  0  0  0  0  0  0  0  0  0  0  0
    9.0849   -1.9499    0.0000 C   0  0  0  0  0  0  0  0  0  0  0  0
    7.4385   -2.4880    0.0000 C   0  0  0  0  0  0  0  0  0  0  0  0
    2.5000    1.8282    0.0000 C   0  0  0  0  0  0  0  0  0  0  0  0
    8.4170   -2.6942    0.0000 C   0  0  0  0  0  0  0  0  0  0  0  0
    2.0000    2.6942    0.0000 C   0  0  0  0  0  0  0  0  0  0  0  0
    6.5396    2.0821    0.0000 H   0  0  0  0  0  0  0  0  0  0  0  0
    5.8400    2.3375    0.0000 H   0  0  0  0  0  0  0  0  0  0  0  0
    5.0508    2.0811    0.0000 H   0  0  0  0  0  0  0  0  0  0  0  0
    4.7185    0.4097    0.0000 H   0  0  0  0  0  0  0  0  0  0  0  0
    8.0976    0.0612    0.0000 H   0  0  0  0  0  0  0  0  0  0  0  0
    8.0224    2.0761    0.0000 H   0  0  0  0  0  0  0  0  0  0  0  0
    7.2340    2.3338    0.0000 H   0  0  0  0  0  0  0  0  0  0  0  0
    9.1883   -0.5379    0.0000 H   0  0  0  0  0  0  0  0  0  0  0  0
    6.5212   -1.4096    0.0000 H   0  0  0  0  0  0  0  0  0  0  0  0
    9.6916   -2.0777    0.0000 H   0  0  0  0  0  0  0  0  0  0  0  0
    7.0245   -2.9494    0.0000 H   0  0  0  0  0  0  0  0  0  0  0  0
    1.9174    1.6161    0.0000 H   0  0  0  0  0  0  0  0  0  0  0  0
    2.6077    1.2176    0.0000 H   0  0  0  0  0  0  0  0  0  0  0  0
    8.6097   -3.2835    0.0000 H   0  0  0  0  0  0  0  0  0  0  0  0
    2.5369    3.0042    0.0000 H   0  0  0  0  0  0  0  0  0  0  0  0
    1.6900    3.2311    0.0000 H   0  0  0  0  0  0  0  0  0  0  0  0
    1.4631    2.3842    0.0000 H   0  0  0  0  0  0  0  0  0  0  0  0
  1  9  1  0  0  0  0
  1 10  1  0  0  0  0
  2 11  2  0  0  0  0
  3 13  1  0  0  0  0
  3 18  1  0  0  0  0
  4 13  2  0  0  0  0
  5  6  1  0  0  0  0
  5  9  1  0  0  0  0
  5 11  1  0  0  0  0
  6  7  1  0  0  0  0
  6 10  1  0  0  0  0
  6 21  1  0  0  0  0
  7  8  1  0  0  0  0
  7 22  1  0  0  0  0
  7 23  1  0  0  0  0
  8 11  1  0  0  0  0
  8 13  1  0  0  0  0
  8 24  1  0  0  0  0
  9 12  1  0  0  0  0
  9 25  1  0  0  0  0
 10 26  1  0  0  0  0
 10 27  1  0  0  0  0
 12 14  2  0  0  0  0
 12 15  1  0  0  0  0
 14 16  1  0  0  0  0
 14 28  1  0  0  0  0
 15 17  2  0  0  0  0
 15 29  1  0  0  0  0
 16 19  2  0  0  0  0
 16 30  1  0  0  0  0
 17 19  1  0  0  0  0
 17 31  1  0  0  0  0
 18 20  1  0  0  0  0
 18 32  1  0  0  0  0
 18 33  1  0  0  0  0
 19 34  1  0  0  0  0
 20 35  1  0  0  0  0
 20 36  1  0  0  0  0
 20 37  1  0  0  0  0
M  END
> <PUBCHEM_COMPOUND_CID>
500385
> <PUBCHEM_COMPOUND_CANONICALIZED>
1
> <PUBCHEM_CACTVS_COMPLEXITY>
391
> <PUBCHEM_CACTVS_HBOND_ACCEPTOR>
4
> <PUBCHEM_CACTVS_HBOND_DONOR>
0
> <PUBCHEM_CACTVS_ROTATABLE_BOND>
4
> <PUBCHEM_CACTVS_SUBSKEYS>
AAADceByOAAAAAAAAAAAAAAAAAAAAWLAAAAwAAAAAAAWAAABAAAAHgAAAAAADSjhmAYyCIMABACIAiHSGACCAAAgAAAIiAEIDIgKJj6IsRmPMAhm5gGYqAe89CoOAAAAAAAAAAAAAAAAAAAAAAAAAAAAAA==
> <PUBCHEM_IUPAC_OPENEYE_NAME>
ethyl 5-oxo-3-phenyl-3,6,7,7a-tetrahydro-1H-pyrrolo[1,2-c]oxazole-6-carboxylate
> <PUBCHEM_IUPAC_CAS_NAME>
5-oxo-3-phenyl-3,6,7,7a-tetrahydro-1H-pyrrolo[1,2-c]oxazole-6-carboxylic acid ethyl ester
> <PUBCHEM_IUPAC_NAME_MARKUP>
ethyl 5-oxo-3-phenyl-3,6,7,7<I>a</I>-tetrahydro-1<I>H</I>-pyrrolo[1,2-c][1,3]oxazole-6-carboxylate
> <PUBCHEM_IUPAC_NAME>
ethyl 5-oxo-3-phenyl-3,6,7,7a-tetrahydro-1H-pyrrolo[1,2-c][1,3]oxazole-6-carboxylate
> <PUBCHEM_IUPAC_SYSTEMATIC_NAME>
ethyl 5-oxidanylidene-3-phenyl-3,6,7,7a-tetrahydro-1H-pyrrolo[1,2-c][1,3]oxazole-6-carboxylate
> <PUBCHEM_IUPAC_TRADITIONAL_NAME>
5-keto-3-phenyl-3,6,7,7a-tetrahydro-1H-pyrrolo[1,2-c]oxazole-6-carboxylic acid ethyl ester
> <PUBCHEM_IUPAC_INCHI>
InChI=1S/C15H17NO4/c1-2-19-15(18)12-8-11-9-20-14(16(11)13(12)17)10-6-4-3-5-7-10/h3-7,11-12,14H,2,8-9H2,1H3
> <PUBCHEM_IUPAC_INCHIKEY>
VOCWBPFZTXBBAT-UHFFFAOYSA-N
> <PUBCHEM_XLOGP3_AA>
1.6
> <PUBCHEM_EXACT_MASS>
275.11575802
> <PUBCHEM_MOLECULAR_FORMULA>
C15H17NO4
> <PUBCHEM_MOLECULAR_WEIGHT>
275.30
> <PUBCHEM_OPENEYE_CAN_SMILES>
CCOC(=O)C1CC2COC(N2C1=O)C3=CC=CC=C3
> <PUBCHEM_OPENEYE_ISO_SMILES>
CCOC(=O)C1CC2COC(N2C1=O)C3=CC=CC=C3
> <PUBCHEM_CACTVS_TPSA>
55.8
> <PUBCHEM_MONOISOTOPIC_WEIGHT>
275.11575802
> <PUBCHEM_TOTAL_CHARGE>
0
> <PUBCHEM_HEAVY_ATOM_COUNT>
20
> <PUBCHEM_ATOM_DEF_STEREO_COUNT>
0
> <PUBCHEM_ATOM_UDEF_STEREO_COUNT>
3
> <PUBCHEM_BOND_DEF_STEREO_COUNT>
0
> <PUBCHEM_BOND_UDEF_STEREO_COUNT>
0
> <PUBCHEM_ISOTOPIC_ATOM_COUNT>
0
> <PUBCHEM_COMPONENT_COUNT>
1
> <PUBCHEM_CACTVS_TAUTO_COUNT>
-1
> <PUBCHEM_COORDINATE_TYPE>
1
5
255
> <PUBCHEM_BONDANNOTATIONS>
12  14  8
12  15  8
14  16  8
15  17  8
16  19  8
17  19  8
6  7  3
8  13  3
9  12  3
$$$$
