500300
  -OEChem-10302200282D
 33 34  0     1  0  0  0  0  0999 V2000
    5.8858   -1.3703    0.0000 O   0  0  0  0  0  0  0  0  0  0  0  0
    7.1591   -3.0259    0.0000 O   0  0  0  0  0  0  0  0  0  0  0  0
    6.8089    0.2175    0.0000 O   0  0  0  0  0  0  0  0  0  0  0  0
    5.0768    0.2175    0.0000 N   0  0  0  0  0  0  0  0  0  0  0  0
    3.9890   -3.1304    0.0000 N   0  0  0  0  0  0  0  0  0  0  0  0
    5.9428    1.7175    0.0000 N   0  0  0  0  0  0  0  0  0  0  0  0
    2.9945   -3.0259    0.0000 N   0  3  0  0  0  0  0  0  0  0  0  0
    5.0768    3.2175    0.0000 N   0  0  0  0  0  0  0  0  0  0  0  0
    2.0000   -2.9213    0.0000 N   0  5  0  0  0  0  0  0  0  0  0  0
    4.5768   -2.3214    0.0000 C   0  0  2  0  0  0  0  0  0  0  0  0
    4.2678   -1.3703    0.0000 C   0  0  0  0  0  0  0  0  0  0  0  0
    5.0768   -0.7825    0.0000 C   0  0  2  0  0  0  0  0  0  0  0  0
    5.5768   -2.3214    0.0000 C   0  0  2  0  0  0  0  0  0  0  0  0
    6.1646   -3.1304    0.0000 C   0  0  0  0  0  0  0  0  0  0  0  0
    4.2108    0.7175    0.0000 C   0  0  0  0  0  0  0  0  0  0  0  0
    5.9428    0.7175    0.0000 C   0  0  0  0  0  0  0  0  0  0  0  0
    4.2108    1.7175    0.0000 C   0  0  0  0  0  0  0  0  0  0  0  0
    5.0768    2.2175    0.0000 C   0  0  0  0  0  0  0  0  0  0  0  0
    3.3448    2.2175    0.0000 C   0  0  0  0  0  0  0  0  0  0  0  0
    3.9645   -2.2244    0.0000 H   0  0  0  0  0  0  0  0  0  0  0  0
    3.9578   -0.8334    0.0000 H   0  0  0  0  0  0  0  0  0  0  0  0
    3.7014   -1.6225    0.0000 H   0  0  0  0  0  0  0  0  0  0  0  0
    4.5244   -0.5011    0.0000 H   0  0  0  0  0  0  0  0  0  0  0  0
    6.1892   -2.2244    0.0000 H   0  0  0  0  0  0  0  0  0  0  0  0
    5.6074   -3.4022    0.0000 H   0  0  0  0  0  0  0  0  0  0  0  0
    6.3355   -3.7264    0.0000 H   0  0  0  0  0  0  0  0  0  0  0  0
    3.6739    0.4075    0.0000 H   0  0  0  0  0  0  0  0  0  0  0  0
    7.5236   -3.5275    0.0000 H   0  0  0  0  0  0  0  0  0  0  0  0
    3.6548    2.7544    0.0000 H   0  0  0  0  0  0  0  0  0  0  0  0
    2.8078    2.5275    0.0000 H   0  0  0  0  0  0  0  0  0  0  0  0
    3.0348    1.6805    0.0000 H   0  0  0  0  0  0  0  0  0  0  0  0
    5.6138    3.5275    0.0000 H   0  0  0  0  0  0  0  0  0  0  0  0
    4.5399    3.5275    0.0000 H   0  0  0  0  0  0  0  0  0  0  0  0
  1 12  1  0  0  0  0
  1 13  1  0  0  0  0
  2 14  1  0  0  0  0
  2 28  1  0  0  0  0
  3 16  2  0  0  0  0
 12  4  1  1  0  0  0
  4 15  1  0  0  0  0
  4 16  1  0  0  0  0
  5  7  2  0  0  0  0
 10  5  1  6  0  0  0
  6 16  1  0  0  0  0
  6 18  2  0  0  0  0
  7  9  2  0  0  0  0
  8 18  1  0  0  0  0
  8 32  1  0  0  0  0
  8 33  1  0  0  0  0
 10 11  1  0  0  0  0
 10 13  1  0  0  0  0
 10 20  1  0  0  0  0
 11 12  1  0  0  0  0
 11 21  1  0  0  0  0
 11 22  1  0  0  0  0
 12 23  1  0  0  0  0
 13 14  1  1  0  0  0
 13 24  1  0  0  0  0
 14 25  1  0  0  0  0
 14 26  1  0  0  0  0
 15 17  2  0  0  0  0
 15 27  1  0  0  0  0
 17 18  1  0  0  0  0
 17 19  1  0  0  0  0
 19 29  1  0  0  0  0
 19 30  1  0  0  0  0
 19 31  1  0  0  0  0
M  CHG  2   7   1   9  -1
M  END
> <PUBCHEM_COMPOUND_CID>
500300
> <PUBCHEM_COMPOUND_CANONICALIZED>
1
> <PUBCHEM_CACTVS_COMPLEXITY>
496
> <PUBCHEM_CACTVS_HBOND_ACCEPTOR>
5
> <PUBCHEM_CACTVS_HBOND_DONOR>
2
> <PUBCHEM_CACTVS_ROTATABLE_BOND>
3
> <PUBCHEM_CACTVS_SUBSKEYS>
AAADccBzsAAAAAAAAAAAAAAAAAAAASAAAAAgAAAAAAAAAAAAAAAAHgAYCAAADDzhgAYDAANABgCqAgJmdACAAAEAAAAAAAAoABCDEAIAwQAPQAAGBgIDAACwMAIAAAAAAAAAAAAAAAAAAAAAAAAAAAAAAA==
> <PUBCHEM_IUPAC_OPENEYE_NAME>
4-amino-1-[(2S,4R,5R)-4-azido-5-(hydroxymethyl)tetrahydrofuran-2-yl]-5-methyl-pyrimidin-2-one
> <PUBCHEM_IUPAC_CAS_NAME>
4-amino-1-[(2S,4R,5R)-4-azido-5-(hydroxymethyl)-2-oxolanyl]-5-methyl-2-pyrimidinone
> <PUBCHEM_IUPAC_NAME_MARKUP>
4-amino-1-[(2<I>S</I>,4<I>R</I>,5<I>R</I>)-4-azido-5-(hydroxymethyl)oxolan-2-yl]-5-methylpyrimidin-2-one
> <PUBCHEM_IUPAC_NAME>
4-amino-1-[(2S,4R,5R)-4-azido-5-(hydroxymethyl)oxolan-2-yl]-5-methylpyrimidin-2-one
> <PUBCHEM_IUPAC_SYSTEMATIC_NAME>
4-azanyl-1-[(2S,4R,5R)-4-azido-5-(hydroxymethyl)oxolan-2-yl]-5-methyl-pyrimidin-2-one
> <PUBCHEM_IUPAC_TRADITIONAL_NAME>
4-amino-1-[(2S,4R,5R)-4-azido-5-methylol-tetrahydrofuran-2-yl]-5-methyl-pyrimidin-2-one
> <PUBCHEM_IUPAC_INCHI>
InChI=1S/C10H14N6O3/c1-5-3-16(10(18)13-9(5)11)8-2-6(14-15-12)7(4-17)19-8/h3,6-8,17H,2,4H2,1H3,(H2,11,13,18)/t6-,7+,8+/m1/s1
> <PUBCHEM_IUPAC_INCHIKEY>
GZSDAHQGNUAEBC-CSMHCCOUSA-N
> <PUBCHEM_XLOGP3>
-0.3
> <PUBCHEM_EXACT_MASS>
266.11273833
> <PUBCHEM_MOLECULAR_FORMULA>
C10H14N6O3
> <PUBCHEM_MOLECULAR_WEIGHT>
266.26
> <PUBCHEM_OPENEYE_CAN_SMILES>
CC1=CN(C(=O)N=C1N)C2CC(C(O2)CO)N=[N+]=[N-]
> <PUBCHEM_OPENEYE_ISO_SMILES>
CC1=CN(C(=O)N=C1N)[C@@H]2C[C@H]([C@@H](O2)CO)N=[N+]=[N-]
> <PUBCHEM_CACTVS_TPSA>
103
> <PUBCHEM_MONOISOTOPIC_WEIGHT>
266.11273833
> <PUBCHEM_TOTAL_CHARGE>
0
> <PUBCHEM_HEAVY_ATOM_COUNT>
19
> <PUBCHEM_ATOM_DEF_STEREO_COUNT>
3
> <PUBCHEM_ATOM_UDEF_STEREO_COUNT>
0
> <PUBCHEM_BOND_DEF_STEREO_COUNT>
0
> <PUBCHEM_BOND_UDEF_STEREO_COUNT>
0
> <PUBCHEM_ISOTOPIC_ATOM_COUNT>
0
> <PUBCHEM_COMPONENT_COUNT>
1
> <PUBCHEM_CACTVS_TAUTO_COUNT>
-1
> <PUBCHEM_COORDINATE_TYPE>
1
5
255
> <PUBCHEM_BONDANNOTATIONS>
13  14  5
15  17  8
17  18  8
12  4  5
4  15  8
4  16  8
10  5  6
6  16  8
6  18  8
$$$$
