500351
  -OEChem-10302200282D
 76 78  0     1  0  0  0  0  0999 V2000
    3.4123   -1.5139    0.0000 Si  0  0  0  0  0  0  0  0  0  0  0  0
    9.2958   -0.4106    0.0000 Si  0  0  0  0  0  0  0  0  0  0  0  0
    5.3415   -1.9155    0.0000 O   0  0  0  0  0  0  0  0  0  0  0  0
    6.3415    0.4894    0.0000 O   0  0  0  0  0  0  0  0  0  0  0  0
    4.0814   -0.7707    0.0000 O   0  0  0  0  0  0  0  0  0  0  0  0
    8.3447   -0.1015    0.0000 O   0  0  0  0  0  0  0  0  0  0  0  0
    7.2075   -3.4155    0.0000 O   0  0  0  0  0  0  0  0  0  0  0  0
    6.1550    2.3165    0.0000 O   0  0  0  0  0  0  0  0  0  0  0  0
    2.9903    3.7255    0.0000 O   0  0  0  0  0  0  0  0  0  0  0  0
    4.7537    1.2984    0.0000 N   0  0  0  0  0  0  0  0  0  0  0  0
    4.5726    3.0210    0.0000 N   0  0  0  0  0  0  0  0  0  0  0  0
    5.8415   -1.0494    0.0000 C   0  0  3  0  0  0  0  0  0  0  0  0
    6.3415   -1.9155    0.0000 C   0  0  3  0  0  0  0  0  0  0  0  0
    5.0325   -0.4617    0.0000 C   0  0  3  0  0  0  0  0  0  0  0  0
    6.6505   -0.4617    0.0000 C   0  0  3  0  0  0  0  0  0  0  0  0
    5.3415    0.4894    0.0000 C   0  0  3  0  0  0  0  0  0  0  0  0
    7.2075   -2.4155    0.0000 C   0  0  0  0  0  0  0  0  0  0  0  0
    7.6016   -0.7707    0.0000 C   0  0  0  0  0  0  0  0  0  0  0  0
    2.7432   -2.2570    0.0000 C   0  0  0  0  0  0  0  0  0  0  0  0
    2.6691   -0.8447    0.0000 C   0  0  0  0  0  0  0  0  0  0  0  0
    4.1554   -2.1830    0.0000 C   0  0  0  0  0  0  0  0  0  0  0  0
   10.2468   -0.7196    0.0000 C   0  0  0  0  0  0  0  0  0  0  0  0
    5.1604    2.2120    0.0000 C   0  0  0  0  0  0  0  0  0  0  0  0
    3.7592    1.1939    0.0000 C   0  0  0  0  0  0  0  0  0  0  0  0
    2.0741   -3.0002    0.0000 C   0  0  0  0  0  0  0  0  0  0  0  0
    2.0000   -1.5878    0.0000 C   0  0  0  0  0  0  0  0  0  0  0  0
    3.4863   -2.9261    0.0000 C   0  0  0  0  0  0  0  0  0  0  0  0
    9.6048    0.5405    0.0000 C   0  0  0  0  0  0  0  0  0  0  0  0
    8.9867   -1.3616    0.0000 C   0  0  0  0  0  0  0  0  0  0  0  0
   11.1979   -1.0286    0.0000 C   0  0  0  0  0  0  0  0  0  0  0  0
   10.5558    0.2315    0.0000 C   0  0  0  0  0  0  0  0  0  0  0  0
    9.9378   -1.6706    0.0000 C   0  0  0  0  0  0  0  0  0  0  0  0
    3.1714    2.0029    0.0000 C   0  0  0  0  0  0  0  0  0  0  0  0
    3.5781    2.9165    0.0000 C   0  0  0  0  0  0  0  0  0  0  0  0
    6.1810   -2.5143    0.0000 H   0  0  0  0  0  0  0  0  0  0  0  0
    4.9355   -1.0740    0.0000 H   0  0  0  0  0  0  0  0  0  0  0  0
    7.0889   -0.0233    0.0000 H   0  0  0  0  0  0  0  0  0  0  0  0
    4.7291    0.3924    0.0000 H   0  0  0  0  0  0  0  0  0  0  0  0
    7.8181   -2.5231    0.0000 H   0  0  0  0  0  0  0  0  0  0  0  0
    7.4196   -1.8329    0.0000 H   0  0  0  0  0  0  0  0  0  0  0  0
    7.3105   -1.3181    0.0000 H   0  0  0  0  0  0  0  0  0  0  0  0
    8.0901   -1.1524    0.0000 H   0  0  0  0  0  0  0  0  0  0  0  0
    3.0840   -0.3839    0.0000 H   0  0  0  0  0  0  0  0  0  0  0  0
    2.2084   -0.4298    0.0000 H   0  0  0  0  0  0  0  0  0  0  0  0
    2.2542   -1.3054    0.0000 H   0  0  0  0  0  0  0  0  0  0  0  0
    3.7406   -2.6437    0.0000 H   0  0  0  0  0  0  0  0  0  0  0  0
    4.6162   -2.5978    0.0000 H   0  0  0  0  0  0  0  0  0  0  0  0
    4.5703   -1.7222    0.0000 H   0  0  0  0  0  0  0  0  0  0  0  0
    7.7444   -3.7255    0.0000 H   0  0  0  0  0  0  0  0  0  0  0  0
    3.5070    0.6275    0.0000 H   0  0  0  0  0  0  0  0  0  0  0  0
    1.6133   -2.5853    0.0000 H   0  0  0  0  0  0  0  0  0  0  0  0
    1.6592   -3.4609    0.0000 H   0  0  0  0  0  0  0  0  0  0  0  0
    2.5348   -3.4150    0.0000 H   0  0  0  0  0  0  0  0  0  0  0  0
    2.4149   -1.1271    0.0000 H   0  0  0  0  0  0  0  0  0  0  0  0
    1.5392   -1.1730    0.0000 H   0  0  0  0  0  0  0  0  0  0  0  0
    1.5851   -2.0486    0.0000 H   0  0  0  0  0  0  0  0  0  0  0  0
    3.0714   -3.3868    0.0000 H   0  0  0  0  0  0  0  0  0  0  0  0
    3.9470   -3.3410    0.0000 H   0  0  0  0  0  0  0  0  0  0  0  0
    3.9011   -2.4653    0.0000 H   0  0  0  0  0  0  0  0  0  0  0  0
   10.1944    0.3489    0.0000 H   0  0  0  0  0  0  0  0  0  0  0  0
    9.7964    1.1302    0.0000 H   0  0  0  0  0  0  0  0  0  0  0  0
    9.0151    0.7321    0.0000 H   0  0  0  0  0  0  0  0  0  0  0  0
    8.3971   -1.1700    0.0000 H   0  0  0  0  0  0  0  0  0  0  0  0
    8.7951   -1.9513    0.0000 H   0  0  0  0  0  0  0  0  0  0  0  0
    9.5764   -1.5532    0.0000 H   0  0  0  0  0  0  0  0  0  0  0  0
   11.0063   -1.6182    0.0000 H   0  0  0  0  0  0  0  0  0  0  0  0
   11.7875   -1.2202    0.0000 H   0  0  0  0  0  0  0  0  0  0  0  0
   11.3895   -0.4389    0.0000 H   0  0  0  0  0  0  0  0  0  0  0  0
   11.1455    0.0399    0.0000 H   0  0  0  0  0  0  0  0  0  0  0  0
   10.7474    0.8211    0.0000 H   0  0  0  0  0  0  0  0  0  0  0  0
    9.9662    0.4231    0.0000 H   0  0  0  0  0  0  0  0  0  0  0  0
    9.3481   -1.4790    0.0000 H   0  0  0  0  0  0  0  0  0  0  0  0
    9.7462   -2.2603    0.0000 H   0  0  0  0  0  0  0  0  0  0  0  0
   10.5274   -1.8622    0.0000 H   0  0  0  0  0  0  0  0  0  0  0  0
    4.8248    3.5874    0.0000 H   0  0  0  0  0  0  0  0  0  0  0  0
    2.5548    1.9381    0.0000 H   0  0  0  0  0  0  0  0  0  0  0  0
  1  5  1  0  0  0  0
  1 19  1  0  0  0  0
  1 20  1  0  0  0  0
  1 21  1  0  0  0  0
  2  6  1  0  0  0  0
  2 22  1  0  0  0  0
  2 28  1  0  0  0  0
  2 29  1  0  0  0  0
  3 12  1  0  0  0  0
  3 13  1  0  0  0  0
  4 15  1  0  0  0  0
  4 16  1  0  0  0  0
  5 14  1  0  0  0  0
  6 18  1  0  0  0  0
  7 17  1  0  0  0  0
  7 49  1  0  0  0  0
  8 23  2  0  0  0  0
  9 34  2  0  0  0  0
 10 16  1  0  0  0  0
 10 23  1  0  0  0  0
 10 24  1  0  0  0  0
 11 23  1  0  0  0  0
 11 34  1  0  0  0  0
 11 75  1  0  0  0  0
 12 13  1  0  0  0  0
 12 14  1  0  0  0  0
 12 15  1  0  0  0  0
 13 17  1  0  0  0  0
 13 35  1  0  0  0  0
 14 16  1  0  0  0  0
 14 36  1  0  0  0  0
 15 18  1  0  0  0  0
 15 37  1  0  0  0  0
 16 38  1  0  0  0  0
 17 39  1  0  0  0  0
 17 40  1  0  0  0  0
 18 41  1  0  0  0  0
 18 42  1  0  0  0  0
 19 25  1  0  0  0  0
 19 26  1  0  0  0  0
 19 27  1  0  0  0  0
 20 43  1  0  0  0  0
 20 44  1  0  0  0  0
 20 45  1  0  0  0  0
 21 46  1  0  0  0  0
 21 47  1  0  0  0  0
 21 48  1  0  0  0  0
 22 30  1  0  0  0  0
 22 31  1  0  0  0  0
 22 32  1  0  0  0  0
 24 33  2  0  0  0  0
 24 50  1  0  0  0  0
 25 51  1  0  0  0  0
 25 52  1  0  0  0  0
 25 53  1  0  0  0  0
 26 54  1  0  0  0  0
 26 55  1  0  0  0  0
 26 56  1  0  0  0  0
 27 57  1  0  0  0  0
 27 58  1  0  0  0  0
 27 59  1  0  0  0  0
 28 60  1  0  0  0  0
 28 61  1  0  0  0  0
 28 62  1  0  0  0  0
 29 63  1  0  0  0  0
 29 64  1  0  0  0  0
 29 65  1  0  0  0  0
 30 66  1  0  0  0  0
 30 67  1  0  0  0  0
 30 68  1  0  0  0  0
 31 69  1  0  0  0  0
 31 70  1  0  0  0  0
 31 71  1  0  0  0  0
 32 72  1  0  0  0  0
 32 73  1  0  0  0  0
 32 74  1  0  0  0  0
 33 34  1  0  0  0  0
 33 76  1  0  0  0  0
M  END
> <PUBCHEM_COMPOUND_CID>
500351
> <PUBCHEM_COMPOUND_CANONICALIZED>
1
> <PUBCHEM_CACTVS_COMPLEXITY>
849
> <PUBCHEM_CACTVS_HBOND_ACCEPTOR>
7
> <PUBCHEM_CACTVS_HBOND_DONOR>
2
> <PUBCHEM_CACTVS_ROTATABLE_BOND>
9
> <PUBCHEM_CACTVS_SUBSKEYS>
AAADcfB7OAwAAAAAAAAAAAAAEgAAASAAAAAgAAAAAAAAAAAAAAAAHhAQCEAADFThoAZDAAPABgGIACFWUACAAAAAAgAIAAAIAECDEAIAgAAOQAAPFyITAMDwMAoKAAAAAAAAAAAAAAAAAAAAAAAAAAAAAA==
> <PUBCHEM_IUPAC_OPENEYE_NAME>
1-[4-[tert-butyl(dimethyl)silyl]oxy-7-[[tert-butyl(dimethyl)silyl]oxymethyl]-2-(hydroxymethyl)-1,6-dioxaspiro[2.4]heptan-5-yl]pyrimidine-2,4-dione
> <PUBCHEM_IUPAC_CAS_NAME>
1-[4-[tert-butyl(dimethyl)silyl]oxy-7-[[tert-butyl(dimethyl)silyl]oxymethyl]-2-(hydroxymethyl)-1,6-dioxaspiro[2.4]heptan-5-yl]pyrimidine-2,4-dione
> <PUBCHEM_IUPAC_NAME_MARKUP>
1-[4-[<I>tert</I>-butyl(dimethyl)silyl]oxy-7-[[<I>tert</I>-butyl(dimethyl)silyl]oxymethyl]-2-(hydroxymethyl)-1,6-dioxaspiro[2.4]heptan-5-yl]pyrimidine-2,4-dione
> <PUBCHEM_IUPAC_NAME>
1-[4-[tert-butyl(dimethyl)silyl]oxy-7-[[tert-butyl(dimethyl)silyl]oxymethyl]-2-(hydroxymethyl)-1,6-dioxaspiro[2.4]heptan-5-yl]pyrimidine-2,4-dione
> <PUBCHEM_IUPAC_SYSTEMATIC_NAME>
1-[4-[tert-butyl(dimethyl)silyl]oxy-7-[[tert-butyl(dimethyl)silyl]oxymethyl]-2-(hydroxymethyl)-1,6-dioxaspiro[2.4]heptan-5-yl]pyrimidine-2,4-dione
> <PUBCHEM_IUPAC_TRADITIONAL_NAME>
1-[4-[tert-butyl(dimethyl)silyl]oxy-7-[[tert-butyl(dimethyl)silyl]oxymethyl]-2-methylol-1,6-dioxaspiro[2.4]heptan-5-yl]pyrimidine-2,4-quinone
> <PUBCHEM_IUPAC_INCHI>
InChI=1S/C23H42N2O7Si2/c1-21(2,3)33(7,8)29-14-16-23(15(13-26)31-23)18(32-34(9,10)22(4,5)6)19(30-16)25-12-11-17(27)24-20(25)28/h11-12,15-16,18-19,26H,13-14H2,1-10H3,(H,24,27,28)
> <PUBCHEM_IUPAC_INCHIKEY>
RKINMRQIHQOKAQ-UHFFFAOYSA-N
> <PUBCHEM_EXACT_MASS>
514.25305475
> <PUBCHEM_MOLECULAR_FORMULA>
C23H42N2O7Si2
> <PUBCHEM_MOLECULAR_WEIGHT>
514.8
> <PUBCHEM_OPENEYE_CAN_SMILES>
CC(C)(C)[Si](C)(C)OCC1C2(C(O2)CO)C(C(O1)N3C=CC(=O)NC3=O)O[Si](C)(C)C(C)(C)C
> <PUBCHEM_OPENEYE_ISO_SMILES>
CC(C)(C)[Si](C)(C)OCC1C2(C(O2)CO)C(C(O1)N3C=CC(=O)NC3=O)O[Si](C)(C)C(C)(C)C
> <PUBCHEM_CACTVS_TPSA>
110
> <PUBCHEM_MONOISOTOPIC_WEIGHT>
514.25305475
> <PUBCHEM_TOTAL_CHARGE>
0
> <PUBCHEM_HEAVY_ATOM_COUNT>
34
> <PUBCHEM_ATOM_DEF_STEREO_COUNT>
0
> <PUBCHEM_ATOM_UDEF_STEREO_COUNT>
5
> <PUBCHEM_BOND_DEF_STEREO_COUNT>
0
> <PUBCHEM_BOND_UDEF_STEREO_COUNT>
0
> <PUBCHEM_ISOTOPIC_ATOM_COUNT>
0
> <PUBCHEM_COMPONENT_COUNT>
1
> <PUBCHEM_CACTVS_TAUTO_COUNT>
-1
> <PUBCHEM_COORDINATE_TYPE>
1
5
255
> <PUBCHEM_BONDANNOTATIONS>
16  10  3
10  23  8
10  24  8
11  23  8
11  34  8
12  13  3
13  17  3
15  18  3
24  33  8
33  34  8
14  5  3
$$$$
