500375
  -OEChem-10302200282D
157165  0     1  0  0  0  0  0999 V2000
   10.8882    3.0909    0.0000 O   0  0  0  0  0  0  0  0  0  0  0  0
    9.3592    4.3229    0.0000 O   0  0  0  0  0  0  0  0  0  0  0  0
    9.4651   -5.1532    0.0000 O   0  0  0  0  0  0  0  0  0  0  0  0
    7.7331   -5.1532    0.0000 O   0  0  0  0  0  0  0  0  0  0  0  0
   13.5227    6.1903    0.0000 O   0  0  0  0  0  0  0  0  0  0  0  0
    9.4651   -7.1532    0.0000 O   0  0  0  0  0  0  0  0  0  0  0  0
    7.7331   -8.1532    0.0000 O   0  0  0  0  0  0  0  0  0  0  0  0
    6.0010   -7.1532    0.0000 O   0  0  0  0  0  0  0  0  0  0  0  0
   15.0253    5.3287    0.0000 O   0  0  0  0  0  0  0  0  0  0  0  0
   10.3312   -5.6532    0.0000 O   0  0  0  0  0  0  0  0  0  0  0  0
    6.0010   -4.1532    0.0000 O   0  0  0  0  0  0  0  0  0  0  0  0
   14.5176    7.9253    0.0000 O   0  0  0  0  0  0  0  0  0  0  0  0
    5.1350   -5.6532    0.0000 O   0  0  0  0  0  0  0  0  0  0  0  0
   11.1972   -8.1532    0.0000 O   0  0  0  0  0  0  0  0  0  0  0  0
   16.5176    7.9313    0.0000 O   0  0  0  0  0  0  0  0  0  0  0  0
   17.5227    6.2022    0.0000 O   0  0  0  0  0  0  0  0  0  0  0  0
   12.9292   -7.1532    0.0000 O   0  0  0  0  0  0  0  0  0  0  0  0
    4.2690   -8.1532    0.0000 O   0  0  0  0  0  0  0  0  0  0  0  0
   12.9292   -5.1532    0.0000 O   0  0  0  0  0  0  0  0  0  0  0  0
   17.5279    4.4702    0.0000 O   0  0  0  0  0  0  0  0  0  0  0  0
    2.5369   -7.1532    0.0000 O   0  0  0  0  0  0  0  0  0  0  0  0
    2.5369   -5.1532    0.0000 O   0  0  0  0  0  0  0  0  0  0  0  0
    9.4944    1.0437    0.0000 C   0  0  3  0  0  0  0  0  0  0  0  0
   10.3623    0.5471    0.0000 C   0  0  3  0  0  0  0  0  0  0  0  0
    9.6999    2.0163    0.0000 C   0  0  3  0  0  0  0  0  0  0  0  0
   10.3662   -0.4529    0.0000 C   0  0  3  0  0  0  0  0  0  0  0  0
   10.6882    2.1232    0.0000 C   0  0  3  0  0  0  0  0  0  0  0  0
    9.5021   -0.9563    0.0000 C   0  0  3  0  0  0  0  0  0  0  0  0
   11.0968    1.2170    0.0000 C   0  0  0  0  0  0  0  0  0  0  0  0
    8.6303    0.5404    0.0000 C   0  0  0  0  0  0  0  0  0  0  0  0
    9.2976    2.9189    0.0000 C   0  0  3  0  0  0  0  0  0  0  0  0
    8.6342   -0.4596    0.0000 C   0  0  0  0  0  0  0  0  0  0  0  0
    9.4901   -1.9978    0.0000 C   0  0  3  0  0  0  0  0  0  0  0  0
   10.0305    3.5817    0.0000 C   0  0  3  0  0  0  0  0  0  0  0  0
    8.6264    1.5404    0.0000 C   0  0  0  0  0  0  0  0  0  0  0  0
   11.2781   -0.9563    0.0000 C   0  0  0  0  0  0  0  0  0  0  0  0
   10.3901   -2.5221    0.0000 C   0  0  0  0  0  0  0  0  0  0  0  0
    8.5402   -2.5221    0.0000 C   0  0  0  0  0  0  0  0  0  0  0  0
   11.2902   -1.9978    0.0000 C   0  0  0  0  0  0  0  0  0  0  0  0
    8.3192    3.1256    0.0000 C   0  0  0  0  0  0  0  0  0  0  0  0
    8.6260   -1.4945    0.0000 C   0  0  0  0  0  0  0  0  0  0  0  0
   10.5279    4.4492    0.0000 C   0  0  0  0  0  0  0  0  0  0  0  0
   10.4027   -3.6070    0.0000 C   0  0  0  0  0  0  0  0  0  0  0  0
    8.5276   -3.6070    0.0000 C   0  0  0  0  0  0  0  0  0  0  0  0
    9.4651   -4.1532    0.0000 C   0  0  3  0  0  0  0  0  0  0  0  0
   11.5279    4.4522    0.0000 C   0  0  0  0  0  0  0  0  0  0  0  0
   12.0253    5.3198    0.0000 C   0  0  3  0  0  0  0  0  0  0  0  0
    8.5991   -5.6532    0.0000 C   0  0  3  0  0  0  0  0  0  0  0  0
   13.0253    5.3227    0.0000 C   0  0  0  0  0  0  0  0  0  0  0  0
   11.5228    6.1843    0.0000 C   0  0  0  0  0  0  0  0  0  0  0  0
    8.5991   -6.6532    0.0000 C   0  0  3  0  0  0  0  0  0  0  0  0
    7.7331   -7.1532    0.0000 C   0  0  3  0  0  0  0  0  0  0  0  0
    6.8671   -5.6532    0.0000 C   0  0  3  0  0  0  0  0  0  0  0  0
    6.8671   -6.6532    0.0000 C   0  0  3  0  0  0  0  0  0  0  0  0
   14.5227    6.1932    0.0000 C   0  0  3  0  0  0  0  0  0  0  0  0
    6.0010   -5.1532    0.0000 C   0  0  0  0  0  0  0  0  0  0  0  0
   10.3312   -6.6532    0.0000 C   0  0  3  0  0  0  0  0  0  0  0  0
   15.0202    7.0608    0.0000 C   0  0  3  0  0  0  0  0  0  0  0  0
   11.1972   -7.1532    0.0000 C   0  0  3  0  0  0  0  0  0  0  0  0
    5.1350   -6.6532    0.0000 C   0  0  3  0  0  0  0  0  0  0  0  0
   16.0201    7.0638    0.0000 C   0  0  3  0  0  0  0  0  0  0  0  0
   16.0253    5.3317    0.0000 C   0  0  3  0  0  0  0  0  0  0  0  0
   16.5227    6.1992    0.0000 C   0  0  3  0  0  0  0  0  0  0  0  0
   12.0632   -6.6532    0.0000 C   0  0  3  0  0  0  0  0  0  0  0  0
   11.1972   -5.1532    0.0000 C   0  0  3  0  0  0  0  0  0  0  0  0
    4.2690   -7.1532    0.0000 C   0  0  3  0  0  0  0  0  0  0  0  0
   12.0632   -5.6532    0.0000 C   0  0  3  0  0  0  0  0  0  0  0  0
   16.5279    4.4672    0.0000 C   0  0  0  0  0  0  0  0  0  0  0  0
    3.4030   -6.6532    0.0000 C   0  0  3  0  0  0  0  0  0  0  0  0
    4.2690   -5.1532    0.0000 C   0  0  3  0  0  0  0  0  0  0  0  0
    3.4030   -5.6532    0.0000 C   0  0  3  0  0  0  0  0  0  0  0  0
   11.1972   -4.1532    0.0000 C   0  0  0  0  0  0  0  0  0  0  0  0
    4.2690   -4.1532    0.0000 C   0  0  0  0  0  0  0  0  0  0  0  0
   10.9300    0.2978    0.0000 H   0  0  0  0  0  0  0  0  0  0  0  0
    9.0833    1.9510    0.0000 H   0  0  0  0  0  0  0  0  0  0  0  0
   10.8995   -0.1367    0.0000 H   0  0  0  0  0  0  0  0  0  0  0  0
   11.3044    2.1912    0.0000 H   0  0  0  0  0  0  0  0  0  0  0  0
   10.0378   -1.2683    0.0000 H   0  0  0  0  0  0  0  0  0  0  0  0
   11.4642    0.7175    0.0000 H   0  0  0  0  0  0  0  0  0  0  0  0
   11.6321    1.5298    0.0000 H   0  0  0  0  0  0  0  0  0  0  0  0
    8.4160    1.1222    0.0000 H   0  0  0  0  0  0  0  0  0  0  0  0
    8.0201    0.4304    0.0000 H   0  0  0  0  0  0  0  0  0  0  0  0
    8.9078    2.4368    0.0000 H   0  0  0  0  0  0  0  0  0  0  0  0
    8.0232   -0.3543    0.0000 H   0  0  0  0  0  0  0  0  0  0  0  0
    8.4244   -1.0430    0.0000 H   0  0  0  0  0  0  0  0  0  0  0  0
    8.9344    2.0785    0.0000 H   0  0  0  0  0  0  0  0  0  0  0  0
    8.0883    1.8483    0.0000 H   0  0  0  0  0  0  0  0  0  0  0  0
    8.3185    1.0022    0.0000 H   0  0  0  0  0  0  0  0  0  0  0  0
   11.8902   -1.0553    0.0000 H   0  0  0  0  0  0  0  0  0  0  0  0
   11.4804   -0.3702    0.0000 H   0  0  0  0  0  0  0  0  0  0  0  0
    8.3379   -1.9360    0.0000 H   0  0  0  0  0  0  0  0  0  0  0  0
    7.9281   -2.6211    0.0000 H   0  0  0  0  0  0  0  0  0  0  0  0
   11.8295   -2.3037    0.0000 H   0  0  0  0  0  0  0  0  0  0  0  0
    8.4473    3.7322    0.0000 H   0  0  0  0  0  0  0  0  0  0  0  0
    7.7125    3.2538    0.0000 H   0  0  0  0  0  0  0  0  0  0  0  0
    8.1910    2.5190    0.0000 H   0  0  0  0  0  0  0  0  0  0  0  0
    8.9380   -0.9588    0.0000 H   0  0  0  0  0  0  0  0  0  0  0  0
    8.0902   -1.1824    0.0000 H   0  0  0  0  0  0  0  0  0  0  0  0
    8.3139   -2.0302    0.0000 H   0  0  0  0  0  0  0  0  0  0  0  0
   10.6338    5.0602    0.0000 H   0  0  0  0  0  0  0  0  0  0  0  0
    9.9447    4.6596    0.0000 H   0  0  0  0  0  0  0  0  0  0  0  0
   10.6185   -4.1883    0.0000 H   0  0  0  0  0  0  0  0  0  0  0  0
   11.0123   -3.4939    0.0000 H   0  0  0  0  0  0  0  0  0  0  0  0
    7.9180   -3.4939    0.0000 H   0  0  0  0  0  0  0  0  0  0  0  0
    8.3118   -4.1883    0.0000 H   0  0  0  0  0  0  0  0  0  0  0  0
   10.0027   -4.4621    0.0000 H   0  0  0  0  0  0  0  0  0  0  0  0
    9.5490    4.9131    0.0000 H   0  0  0  0  0  0  0  0  0  0  0  0
   11.4221    3.8413    0.0000 H   0  0  0  0  0  0  0  0  0  0  0  0
   12.1112    4.2419    0.0000 H   0  0  0  0  0  0  0  0  0  0  0  0
   11.4053    5.3179    0.0000 H   0  0  0  0  0  0  0  0  0  0  0  0
    8.5991   -5.0332    0.0000 H   0  0  0  0  0  0  0  0  0  0  0  0
   12.9195    4.7118    0.0000 H   0  0  0  0  0  0  0  0  0  0  0  0
   13.6086    5.1124    0.0000 H   0  0  0  0  0  0  0  0  0  0  0  0
   12.0588    6.4959    0.0000 H   0  0  0  0  0  0  0  0  0  0  0  0
   11.2112    6.7203    0.0000 H   0  0  0  0  0  0  0  0  0  0  0  0
   10.9868    5.8727    0.0000 H   0  0  0  0  0  0  0  0  0  0  0  0
    8.5991   -7.2732    0.0000 H   0  0  0  0  0  0  0  0  0  0  0  0
    7.1962   -7.4632    0.0000 H   0  0  0  0  0  0  0  0  0  0  0  0
    6.8671   -5.0332    0.0000 H   0  0  0  0  0  0  0  0  0  0  0  0
    6.3301   -6.3431    0.0000 H   0  0  0  0  0  0  0  0  0  0  0  0
   14.2144    5.6554    0.0000 H   0  0  0  0  0  0  0  0  0  0  0  0
    5.3905   -5.0455    0.0000 H   0  0  0  0  0  0  0  0  0  0  0  0
    5.7890   -5.7358    0.0000 H   0  0  0  0  0  0  0  0  0  0  0  0
    9.7942   -6.3431    0.0000 H   0  0  0  0  0  0  0  0  0  0  0  0
    7.1962   -8.4632    0.0000 H   0  0  0  0  0  0  0  0  0  0  0  0
   14.4002    7.0589    0.0000 H   0  0  0  0  0  0  0  0  0  0  0  0
   11.7341   -7.4632    0.0000 H   0  0  0  0  0  0  0  0  0  0  0  0
    5.1350   -7.2732    0.0000 H   0  0  0  0  0  0  0  0  0  0  0  0
   16.6401    7.0656    0.0000 H   0  0  0  0  0  0  0  0  0  0  0  0
   15.7169    4.7938    0.0000 H   0  0  0  0  0  0  0  0  0  0  0  0
   16.8343    5.6632    0.0000 H   0  0  0  0  0  0  0  0  0  0  0  0
    5.4641   -3.8432    0.0000 H   0  0  0  0  0  0  0  0  0  0  0  0
   12.6002   -6.3431    0.0000 H   0  0  0  0  0  0  0  0  0  0  0  0
   10.6603   -4.8431    0.0000 H   0  0  0  0  0  0  0  0  0  0  0  0
    3.7320   -7.4632    0.0000 H   0  0  0  0  0  0  0  0  0  0  0  0
   12.0632   -5.0332    0.0000 H   0  0  0  0  0  0  0  0  0  0  0  0
   14.8260    8.4632    0.0000 H   0  0  0  0  0  0  0  0  0  0  0  0
   15.9459    4.2534    0.0000 H   0  0  0  0  0  0  0  0  0  0  0  0
   16.6374    3.8569    0.0000 H   0  0  0  0  0  0  0  0  0  0  0  0
    2.8660   -6.3431    0.0000 H   0  0  0  0  0  0  0  0  0  0  0  0
   11.7341   -8.4632    0.0000 H   0  0  0  0  0  0  0  0  0  0  0  0
    4.8059   -4.8431    0.0000 H   0  0  0  0  0  0  0  0  0  0  0  0
   17.1376    7.9331    0.0000 H   0  0  0  0  0  0  0  0  0  0  0  0
    3.4030   -5.0332    0.0000 H   0  0  0  0  0  0  0  0  0  0  0  0
   11.8172   -4.1532    0.0000 H   0  0  0  0  0  0  0  0  0  0  0  0
   11.1972   -3.5332    0.0000 H   0  0  0  0  0  0  0  0  0  0  0  0
   10.5772   -4.1532    0.0000 H   0  0  0  0  0  0  0  0  0  0  0  0
   17.8311    6.7401    0.0000 H   0  0  0  0  0  0  0  0  0  0  0  0
   13.4662   -6.8432    0.0000 H   0  0  0  0  0  0  0  0  0  0  0  0
    3.7320   -8.4632    0.0000 H   0  0  0  0  0  0  0  0  0  0  0  0
   13.4662   -5.4632    0.0000 H   0  0  0  0  0  0  0  0  0  0  0  0
    4.8890   -4.1532    0.0000 H   0  0  0  0  0  0  0  0  0  0  0  0
    4.2690   -3.5332    0.0000 H   0  0  0  0  0  0  0  0  0  0  0  0
    3.6490   -4.1532    0.0000 H   0  0  0  0  0  0  0  0  0  0  0  0
   17.8395    3.9342    0.0000 H   0  0  0  0  0  0  0  0  0  0  0  0
    2.0000   -6.8432    0.0000 H   0  0  0  0  0  0  0  0  0  0  0  0
    2.5369   -4.5332    0.0000 H   0  0  0  0  0  0  0  0  0  0  0  0
  1 27  1  0  0  0  0
  1 34  1  0  0  0  0
  2 34  1  0  0  0  0
  2107  1  0  0  0  0
  3 45  1  0  0  0  0
  3 48  1  0  0  0  0
  4 48  1  0  0  0  0
  4 53  1  0  0  0  0
  5 49  1  0  0  0  0
  5 55  1  0  0  0  0
  6 51  1  0  0  0  0
  6 57  1  0  0  0  0
  7 52  1  0  0  0  0
  7125  1  0  0  0  0
  8 54  1  0  0  0  0
  8 60  1  0  0  0  0
  9 55  1  0  0  0  0
  9 62  1  0  0  0  0
 10 57  1  0  0  0  0
 10 65  1  0  0  0  0
 11 56  1  0  0  0  0
 11132  1  0  0  0  0
 12 58  1  0  0  0  0
 12137  1  0  0  0  0
 13 60  1  0  0  0  0
 13 70  1  0  0  0  0
 14 59  1  0  0  0  0
 14141  1  0  0  0  0
 15 61  1  0  0  0  0
 15143  1  0  0  0  0
 16 63  1  0  0  0  0
 16148  1  0  0  0  0
 17 64  1  0  0  0  0
 17149  1  0  0  0  0
 18 66  1  0  0  0  0
 18150  1  0  0  0  0
 19 67  1  0  0  0  0
 19151  1  0  0  0  0
 20 68  1  0  0  0  0
 20155  1  0  0  0  0
 21 69  1  0  0  0  0
 21156  1  0  0  0  0
 22 71  1  0  0  0  0
 22157  1  0  0  0  0
 23 24  1  0  0  0  0
 23 25  1  0  0  0  0
 23 30  1  0  0  0  0
 23 35  1  0  0  0  0
 24 26  1  0  0  0  0
 24 29  1  0  0  0  0
 24 74  1  0  0  0  0
 25 27  1  0  0  0  0
 25 31  1  0  0  0  0
 25 75  1  0  0  0  0
 26 28  1  0  0  0  0
 26 36  1  0  0  0  0
 26 76  1  0  0  0  0
 27 29  1  0  0  0  0
 27 77  1  0  0  0  0
 28 32  1  0  0  0  0
 28 33  1  0  0  0  0
 28 78  1  0  0  0  0
 29 79  1  0  0  0  0
 29 80  1  0  0  0  0
 30 32  1  0  0  0  0
 30 81  1  0  0  0  0
 30 82  1  0  0  0  0
 31 34  1  0  0  0  0
 31 40  1  0  0  0  0
 31 83  1  0  0  0  0
 32 84  1  0  0  0  0
 32 85  1  0  0  0  0
 33 37  1  0  0  0  0
 33 38  1  0  0  0  0
 33 41  1  0  0  0  0
 34 42  1  0  0  0  0
 35 86  1  0  0  0  0
 35 87  1  0  0  0  0
 35 88  1  0  0  0  0
 36 39  1  0  0  0  0
 36 89  1  0  0  0  0
 36 90  1  0  0  0  0
 37 39  2  0  0  0  0
 37 43  1  0  0  0  0
 38 44  1  0  0  0  0
 38 91  1  0  0  0  0
 38 92  1  0  0  0  0
 39 93  1  0  0  0  0
 40 94  1  0  0  0  0
 40 95  1  0  0  0  0
 40 96  1  0  0  0  0
 41 97  1  0  0  0  0
 41 98  1  0  0  0  0
 41 99  1  0  0  0  0
 42 46  1  0  0  0  0
 42100  1  0  0  0  0
 42101  1  0  0  0  0
 43 45  1  0  0  0  0
 43102  1  0  0  0  0
 43103  1  0  0  0  0
 44 45  1  0  0  0  0
 44104  1  0  0  0  0
 44105  1  0  0  0  0
 45106  1  0  0  0  0
 46 47  1  0  0  0  0
 46108  1  0  0  0  0
 46109  1  0  0  0  0
 47 49  1  0  0  0  0
 47 50  1  0  0  0  0
 47110  1  0  0  0  0
 48 51  1  0  0  0  0
 48111  1  0  0  0  0
 49112  1  0  0  0  0
 49113  1  0  0  0  0
 50114  1  0  0  0  0
 50115  1  0  0  0  0
 50116  1  0  0  0  0
 51 52  1  0  0  0  0
 51117  1  0  0  0  0
 52 54  1  0  0  0  0
 52118  1  0  0  0  0
 53 54  1  0  0  0  0
 53 56  1  0  0  0  0
 53119  1  0  0  0  0
 54120  1  0  0  0  0
 55 58  1  0  0  0  0
 55121  1  0  0  0  0
 56122  1  0  0  0  0
 56123  1  0  0  0  0
 57 59  1  0  0  0  0
 57124  1  0  0  0  0
 58 61  1  0  0  0  0
 58126  1  0  0  0  0
 59 64  1  0  0  0  0
 59127  1  0  0  0  0
 60 66  1  0  0  0  0
 60128  1  0  0  0  0
 61 63  1  0  0  0  0
 61129  1  0  0  0  0
 62 63  1  0  0  0  0
 62 68  1  0  0  0  0
 62130  1  0  0  0  0
 63131  1  0  0  0  0
 64 67  1  0  0  0  0
 64133  1  0  0  0  0
 65 67  1  0  0  0  0
 65 72  1  0  0  0  0
 65134  1  0  0  0  0
 66 69  1  0  0  0  0
 66135  1  0  0  0  0
 67136  1  0  0  0  0
 68138  1  0  0  0  0
 68139  1  0  0  0  0
 69 71  1  0  0  0  0
 69140  1  0  0  0  0
 70 71  1  0  0  0  0
 70 73  1  0  0  0  0
 70142  1  0  0  0  0
 71144  1  0  0  0  0
 72145  1  0  0  0  0
 72146  1  0  0  0  0
 72147  1  0  0  0  0
 73152  1  0  0  0  0
 73153  1  0  0  0  0
 73154  1  0  0  0  0
M  END
> <PUBCHEM_COMPOUND_CID>
500375
> <PUBCHEM_COMPOUND_CANONICALIZED>
1
> <PUBCHEM_CACTVS_COMPLEXITY>
1900
> <PUBCHEM_CACTVS_HBOND_ACCEPTOR>
22
> <PUBCHEM_CACTVS_HBOND_DONOR>
13
> <PUBCHEM_CACTVS_ROTATABLE_BOND>
14
> <PUBCHEM_CACTVS_SUBSKEYS>
AAADcfB8PgAAAAAAAAAAAAAAAAAAAaIAAAA0aJEiAAASAGCAAAAAGgAACAAADxSwgAMCCAAABgCAAiBCAAAAAAAgAAAACAAAAAgREAIAAQAiQAAFwAAPAAPA4PwPgAAAAAAAAADAAAQAACAAAYAADAAAAA==
> <PUBCHEM_IUPAC_OPENEYE_NAME>
2-[4-hydroxy-2-(hydroxymethyl)-6-[[6-hydroxy-7,9,13-trimethyl-6-[3-methyl-4-[3,4,5-trihydroxy-6-(hydroxymethyl)tetrahydropyran-2-yl]oxy-butyl]-5-oxapentacyclo[10.8.0.02,9.04,8.013,18]icos-18-en-16-yl]oxy]-5-(3,4,5-trihydroxy-6-methyl-tetrahydropyran-2-yl)oxy-tetrahydropyran-3-yl]oxy-6-methyl-tetrahydropyran-3,4,5-triol
> <PUBCHEM_IUPAC_CAS_NAME>
2-[[4-hydroxy-2-(hydroxymethyl)-6-[[6-hydroxy-7,9,13-trimethyl-6-[3-methyl-4-[[3,4,5-trihydroxy-6-(hydroxymethyl)-2-oxanyl]oxy]butyl]-5-oxapentacyclo[10.8.0.02,9.04,8.013,18]eicos-18-en-16-yl]oxy]-5-[(3,4,5-trihydroxy-6-methyl-2-oxanyl)oxy]-3-oxanyl]oxy]-6-methyloxane-3,4,5-triol
> <PUBCHEM_IUPAC_NAME_MARKUP>
2-[4-hydroxy-2-(hydroxymethyl)-6-[[6-hydroxy-7,9,13-trimethyl-6-[3-methyl-4-[3,4,5-trihydroxy-6-(hydroxymethyl)oxan-2-yl]oxybutyl]-5-oxapentacyclo[10.8.0.0<SUP>2,9</SUP>.0<SUP>4,8</SUP>.0<SUP>13,18</SUP>]icos-18-en-16-yl]oxy]-5-(3,4,5-trihydroxy-6-methyloxan-2-yl)oxyoxan-3-yl]oxy-6-methyloxane-3,4,5-triol
> <PUBCHEM_IUPAC_NAME>
2-[4-hydroxy-2-(hydroxymethyl)-6-[[6-hydroxy-7,9,13-trimethyl-6-[3-methyl-4-[3,4,5-trihydroxy-6-(hydroxymethyl)oxan-2-yl]oxybutyl]-5-oxapentacyclo[10.8.0.02,9.04,8.013,18]icos-18-en-16-yl]oxy]-5-(3,4,5-trihydroxy-6-methyloxan-2-yl)oxyoxan-3-yl]oxy-6-methyloxane-3,4,5-triol
> <PUBCHEM_IUPAC_SYSTEMATIC_NAME>
2-[2-(hydroxymethyl)-6-[[6-[4-[6-(hydroxymethyl)-3,4,5-tris(oxidanyl)oxan-2-yl]oxy-3-methyl-butyl]-7,9,13-trimethyl-6-oxidanyl-5-oxapentacyclo[10.8.0.02,9.04,8.013,18]icos-18-en-16-yl]oxy]-5-[6-methyl-3,4,5-tris(oxidanyl)oxan-2-yl]oxy-4-oxidanyl-oxan-3-yl]oxy-6-methyl-oxane-3,4,5-triol
> <PUBCHEM_IUPAC_TRADITIONAL_NAME>
2-[4-hydroxy-6-[[6-hydroxy-7,9,13-trimethyl-6-[3-methyl-4-(3,4,5-trihydroxy-6-methylol-tetrahydropyran-2-yl)oxy-butyl]-5-oxapentacyclo[10.8.0.02,9.04,8.013,18]eicos-18-en-16-yl]oxy]-2-methylol-5-(3,4,5-trihydroxy-6-methyl-tetrahydropyran-2-yl)oxy-tetrahydropyran-3-yl]oxy-6-methyl-tetrahydropyran-3,4,5-triol
> <PUBCHEM_IUPAC_INCHI>
InChI=1S/C51H84O22/c1-20(19-65-45-39(60)38(59)35(56)30(17-52)69-45)9-14-51(64)21(2)32-29(73-51)16-28-26-8-7-24-15-25(10-12-49(24,5)27(26)11-13-50(28,32)6)68-48-44(72-47-41(62)37(58)34(55)23(4)67-47)42(63)43(31(18-53)70-48)71-46-40(61)36(57)33(54)22(3)66-46/h7,20-23,25-48,52-64H,8-19H2,1-6H3
> <PUBCHEM_IUPAC_INCHIKEY>
LVTJOONKWUXEFR-UHFFFAOYSA-N
> <PUBCHEM_XLOGP3_AA>
-1.3
> <PUBCHEM_EXACT_MASS>
1048.54542430
> <PUBCHEM_MOLECULAR_FORMULA>
C51H84O22
> <PUBCHEM_MOLECULAR_WEIGHT>
1049.2
> <PUBCHEM_OPENEYE_CAN_SMILES>
CC1C2C(CC3C2(CCC4C3CC=C5C4(CCC(C5)OC6C(C(C(C(O6)CO)OC7C(C(C(C(O7)C)O)O)O)O)OC8C(C(C(C(O8)C)O)O)O)C)C)OC1(CCC(C)COC9C(C(C(C(O9)CO)O)O)O)O
> <PUBCHEM_OPENEYE_ISO_SMILES>
CC1C2C(CC3C2(CCC4C3CC=C5C4(CCC(C5)OC6C(C(C(C(O6)CO)OC7C(C(C(C(O7)C)O)O)O)O)OC8C(C(C(C(O8)C)O)O)O)C)C)OC1(CCC(C)COC9C(C(C(C(O9)CO)O)O)O)O
> <PUBCHEM_CACTVS_TPSA>
346
> <PUBCHEM_MONOISOTOPIC_WEIGHT>
1048.54542430
> <PUBCHEM_TOTAL_CHARGE>
0
> <PUBCHEM_HEAVY_ATOM_COUNT>
73
> <PUBCHEM_ATOM_DEF_STEREO_COUNT>
0
> <PUBCHEM_ATOM_UDEF_STEREO_COUNT>
31
> <PUBCHEM_BOND_DEF_STEREO_COUNT>
0
> <PUBCHEM_BOND_UDEF_STEREO_COUNT>
0
> <PUBCHEM_ISOTOPIC_ATOM_COUNT>
0
> <PUBCHEM_COMPONENT_COUNT>
1
> <PUBCHEM_CACTVS_TAUTO_COUNT>
-1
> <PUBCHEM_COORDINATE_TYPE>
1
5
255
> <PUBCHEM_BONDANNOTATIONS>
58  12  3
59  14  3
61  15  3
63  16  3
64  17  3
66  18  3
67  19  3
34  2  3
69  21  3
71  22  3
23  35  3
24  29  3
25  31  3
26  36  3
27  29  3
28  32  3
45  3  3
48  3  3
31  40  3
33  41  3
47  50  3
55  5  3
53  56  3
51  6  3
57  6  3
62  68  3
65  72  3
52  7  3
70  73  3
54  8  3
60  8  3
$$$$
