500328
  -OEChem-10302200282D
 22 21  0     1  0  0  0  0  0999 V2000
    3.7320    0.3100    0.0000 S   0  0  0  0  0  0  0  0  0  0  0  0
    3.7320   -0.6900    0.0000 S   0  0  0  0  0  0  0  0  0  0  0  0
    6.3301    1.8100    0.0000 O   0  0  0  0  0  0  0  0  0  0  0  0
    5.4641    3.3100    0.0000 O   0  0  0  0  0  0  0  0  0  0  0  0
    2.0000   -2.6900    0.0000 O   0  0  0  0  0  0  0  0  0  0  0  0
    3.7320    2.3100    0.0000 N   0  0  0  0  0  0  0  0  0  0  0  0
    4.5981    1.8100    0.0000 C   0  0  3  0  0  0  0  0  0  0  0  0
    4.5981    0.8100    0.0000 C   0  0  0  0  0  0  0  0  0  0  0  0
    5.4641    2.3100    0.0000 C   0  0  0  0  0  0  0  0  0  0  0  0
    2.8660   -1.1900    0.0000 C   0  0  0  0  0  0  0  0  0  0  0  0
    2.8660   -2.1900    0.0000 C   0  0  0  0  0  0  0  0  0  0  0  0
    4.5981    2.4300    0.0000 H   0  0  0  0  0  0  0  0  0  0  0  0
    4.8101    0.2274    0.0000 H   0  0  0  0  0  0  0  0  0  0  0  0
    5.2087    0.9177    0.0000 H   0  0  0  0  0  0  0  0  0  0  0  0
    3.1951    2.0000    0.0000 H   0  0  0  0  0  0  0  0  0  0  0  0
    3.7320    2.9300    0.0000 H   0  0  0  0  0  0  0  0  0  0  0  0
    2.6540   -0.6074    0.0000 H   0  0  0  0  0  0  0  0  0  0  0  0
    2.2554   -1.2977    0.0000 H   0  0  0  0  0  0  0  0  0  0  0  0
    3.0781   -2.7726    0.0000 H   0  0  0  0  0  0  0  0  0  0  0  0
    3.4766   -2.0823    0.0000 H   0  0  0  0  0  0  0  0  0  0  0  0
    6.8671    2.1200    0.0000 H   0  0  0  0  0  0  0  0  0  0  0  0
    2.0000   -3.3100    0.0000 H   0  0  0  0  0  0  0  0  0  0  0  0
  1  2  1  0  0  0  0
  1  8  1  0  0  0  0
  2 10  1  0  0  0  0
  3  9  1  0  0  0  0
  3 21  1  0  0  0  0
  4  9  2  0  0  0  0
  5 11  1  0  0  0  0
  5 22  1  0  0  0  0
  6  7  1  0  0  0  0
  6 15  1  0  0  0  0
  6 16  1  0  0  0  0
  7  8  1  0  0  0  0
  7  9  1  0  0  0  0
  7 12  1  0  0  0  0
  8 13  1  0  0  0  0
  8 14  1  0  0  0  0
 10 11  1  0  0  0  0
 10 17  1  0  0  0  0
 10 18  1  0  0  0  0
 11 19  1  0  0  0  0
 11 20  1  0  0  0  0
M  END
> <PUBCHEM_COMPOUND_CID>
500328
> <PUBCHEM_COMPOUND_CANONICALIZED>
1
> <PUBCHEM_CACTVS_COMPLEXITY>
122
> <PUBCHEM_CACTVS_HBOND_ACCEPTOR>
6
> <PUBCHEM_CACTVS_HBOND_DONOR>
3
> <PUBCHEM_CACTVS_ROTATABLE_BOND>
6
> <PUBCHEM_CACTVS_SUBSKEYS>
AAADccBiMABgAAAAAAAAAAAAAAAAAAAAAAAAAAAAAAAAAAAAAAAAHgQQCAAACCjlwAaACABAAgAIAACQCAAAAAAAAAAAAIGAAAACEAAAAAAAQAAAEAAAAAAAAAAAAAAAAAAAAAAAAAAAAAAAAAAAAAAAAA==
> <PUBCHEM_IUPAC_OPENEYE_NAME>
2-amino-3-(2-hydroxyethyldisulfanyl)propanoic acid
> <PUBCHEM_IUPAC_CAS_NAME>
2-amino-3-(2-hydroxyethyldisulfanyl)propanoic acid
> <PUBCHEM_IUPAC_NAME_MARKUP>
2-amino-3-(2-hydroxyethyldisulfanyl)propanoic acid
> <PUBCHEM_IUPAC_NAME>
2-amino-3-(2-hydroxyethyldisulfanyl)propanoic acid
> <PUBCHEM_IUPAC_SYSTEMATIC_NAME>
2-azanyl-3-(2-hydroxyethyldisulfanyl)propanoic acid
> <PUBCHEM_IUPAC_TRADITIONAL_NAME>
2-amino-3-(2-hydroxyethyldisulfanyl)propionic acid
> <PUBCHEM_IUPAC_INCHI>
InChI=1S/C5H11NO3S2/c6-4(5(8)9)3-11-10-2-1-7/h4,7H,1-3,6H2,(H,8,9)
> <PUBCHEM_IUPAC_INCHIKEY>
YPUBRSXDQSFQBA-UHFFFAOYSA-N
> <PUBCHEM_XLOGP3_AA>
-3.4
> <PUBCHEM_EXACT_MASS>
197.01803556
> <PUBCHEM_MOLECULAR_FORMULA>
C5H11NO3S2
> <PUBCHEM_MOLECULAR_WEIGHT>
197.3
> <PUBCHEM_OPENEYE_CAN_SMILES>
C(CSSCC(C(=O)O)N)O
> <PUBCHEM_OPENEYE_ISO_SMILES>
C(CSSCC(C(=O)O)N)O
> <PUBCHEM_CACTVS_TPSA>
134
> <PUBCHEM_MONOISOTOPIC_WEIGHT>
197.01803556
> <PUBCHEM_TOTAL_CHARGE>
0
> <PUBCHEM_HEAVY_ATOM_COUNT>
11
> <PUBCHEM_ATOM_DEF_STEREO_COUNT>
0
> <PUBCHEM_ATOM_UDEF_STEREO_COUNT>
1
> <PUBCHEM_BOND_DEF_STEREO_COUNT>
0
> <PUBCHEM_BOND_UDEF_STEREO_COUNT>
0
> <PUBCHEM_ISOTOPIC_ATOM_COUNT>
0
> <PUBCHEM_COMPONENT_COUNT>
1
> <PUBCHEM_CACTVS_TAUTO_COUNT>
-1
> <PUBCHEM_COORDINATE_TYPE>
1
5
255
> <PUBCHEM_BONDANNOTATIONS>
7  6  3
$$$$
