500315
  -OEChem-10302200282D
 59 53  0     1  0  0  0  0  0999 V2000
    3.6951    2.2320    0.0000 Co  0  0  0  0  0  0  0  0  0  0  0  0
    2.8291    1.7320    0.0000 Co  0  0  0  0  0  0  0  0  0  0  0  0
    0.0000    8.5841    0.0000 Cl  0  0  0  0  0  0  0  0  0  0  0  0
    0.7321    9.5841    0.0000 O   0  0  0  0  0  0  0  0  0  0  0  0
    3.8291    0.0000    0.0000 O   0  3  0  0  0  0  0  0  0  0  0  0
    5.4271    3.2320    0.0000 O   0  3  0  0  0  0  0  0  0  0  0  0
    1.0970    0.7321    0.0000 O   0  3  0  0  0  0  0  0  0  0  0  0
    4.6951    0.5000    0.0000 O   0  3  0  0  0  0  0  0  0  0  0  0
    2.6951    3.9641    0.0000 O   0  3  0  0  0  0  0  0  0  0  0  0
    1.8291    3.4641    0.0000 O   0  3  0  0  0  0  0  0  0  0  0  0
    4.7320   11.3162    0.0000 N   0  0  0  0  0  0  0  0  0  0  0  0
    5.7266   11.4207    0.0000 C   0  0  0  0  0  0  0  0  0  0  0  0
    4.3253   12.2297    0.0000 C   0  0  0  0  0  0  0  0  0  0  0  0
    5.9345   12.3988    0.0000 C   0  0  0  0  0  0  0  0  0  0  0  0
    5.0685   12.8988    0.0000 C   0  0  0  0  0  0  0  0  0  0  0  0
    4.2320   10.4501    0.0000 C   0  0  0  0  0  0  0  0  0  0  0  0
    3.2320   10.4501    0.0000 C   0  4  0  0  0  0  0  0  0  0  0  0
    1.7320    9.5841    0.0000 C   0  0  3  0  0  0  0  0  0  0  0  0
    2.7320    9.5841    0.0000 C   0  4  0  0  0  0  0  0  0  0  0  0
    1.7320    8.5841    0.0000 C   0  0  0  0  0  0  0  0  0  0  0  0
    1.7320   10.5841    0.0000 C   0  0  0  0  0  0  0  0  0  0  0  0
    0.8660    8.0841    0.0000 C   0  0  0  0  0  0  0  0  0  0  0  0
    2.5981    8.0841    0.0000 C   0  0  0  0  0  0  0  0  0  0  0  0
    2.5981   11.0841    0.0000 C   0  0  0  0  0  0  0  0  0  0  0  0
    0.8660   11.0841    0.0000 C   0  0  0  0  0  0  0  0  0  0  0  0
    0.8660    7.0841    0.0000 C   0  0  0  0  0  0  0  0  0  0  0  0
    2.5981    7.0841    0.0000 C   0  0  0  0  0  0  0  0  0  0  0  0
    2.5981   12.0841    0.0000 C   0  0  0  0  0  0  0  0  0  0  0  0
    0.8660   12.0841    0.0000 C   0  0  0  0  0  0  0  0  0  0  0  0
    1.7320    6.5841    0.0000 C   0  0  0  0  0  0  0  0  0  0  0  0
    1.7320   12.5841    0.0000 C   0  0  0  0  0  0  0  0  0  0  0  0
    3.3291    0.8660    0.0000 C   0  5  0  0  0  0  0  0  0  0  0  0
    4.5611    2.7320    0.0000 C   0  5  0  0  0  0  0  0  0  0  0  0
    1.9630    1.2320    0.0000 C   0  5  0  0  0  0  0  0  0  0  0  0
    4.1951    1.3660    0.0000 C   0  5  0  0  0  0  0  0  0  0  0  0
    3.1951    3.0981    0.0000 C   0  5  0  0  0  0  0  0  0  0  0  0
    2.3291    2.5981    0.0000 C   0  5  0  0  0  0  0  0  0  0  0  0
    5.7266   10.8007    0.0000 H   0  0  0  0  0  0  0  0  0  0  0  0
    6.3432   11.3559    0.0000 H   0  0  0  0  0  0  0  0  0  0  0  0
    3.9609   12.7313    0.0000 H   0  0  0  0  0  0  0  0  0  0  0  0
    3.7884   11.9197    0.0000 H   0  0  0  0  0  0  0  0  0  0  0  0
    6.5241   12.2072    0.0000 H   0  0  0  0  0  0  0  0  0  0  0  0
    6.1867   12.9652    0.0000 H   0  0  0  0  0  0  0  0  0  0  0  0
    5.4329   13.4004    0.0000 H   0  0  0  0  0  0  0  0  0  0  0  0
    4.6077   13.3137    0.0000 H   0  0  0  0  0  0  0  0  0  0  0  0
    4.1244    9.8395    0.0000 H   0  0  0  0  0  0  0  0  0  0  0  0
    4.8147   10.2381    0.0000 H   0  0  0  0  0  0  0  0  0  0  0  0
    2.9220   10.9871    0.0000 H   0  0  0  0  0  0  0  0  0  0  0  0
    3.0420    9.0472    0.0000 H   0  0  0  0  0  0  0  0  0  0  0  0
    0.4221   10.1210    0.0000 H   0  0  0  0  0  0  0  0  0  0  0  0
    3.1350    8.3941    0.0000 H   0  0  0  0  0  0  0  0  0  0  0  0
    3.1350   10.7741    0.0000 H   0  0  0  0  0  0  0  0  0  0  0  0
    0.3291   10.7741    0.0000 H   0  0  0  0  0  0  0  0  0  0  0  0
    0.3291    6.7741    0.0000 H   0  0  0  0  0  0  0  0  0  0  0  0
    3.1350    6.7741    0.0000 H   0  0  0  0  0  0  0  0  0  0  0  0
    3.1350   12.3941    0.0000 H   0  0  0  0  0  0  0  0  0  0  0  0
    0.3291   12.3941    0.0000 H   0  0  0  0  0  0  0  0  0  0  0  0
    1.7320    5.9641    0.0000 H   0  0  0  0  0  0  0  0  0  0  0  0
    1.7320   13.2041    0.0000 H   0  0  0  0  0  0  0  0  0  0  0  0
  3 22  1  0  0  0  0
  4 18  1  0  0  0  0
  4 50  1  0  0  0  0
  5 32  3  0  0  0  0
  6 33  3  0  0  0  0
  7 34  3  0  0  0  0
  8 35  3  0  0  0  0
  9 36  3  0  0  0  0
 10 37  3  0  0  0  0
 11 12  1  0  0  0  0
 11 13  1  0  0  0  0
 11 16  1  0  0  0  0
 12 14  1  0  0  0  0
 12 38  1  0  0  0  0
 12 39  1  0  0  0  0
 13 15  1  0  0  0  0
 13 40  1  0  0  0  0
 13 41  1  0  0  0  0
 14 15  1  0  0  0  0
 14 42  1  0  0  0  0
 14 43  1  0  0  0  0
 15 44  1  0  0  0  0
 15 45  1  0  0  0  0
 16 17  1  0  0  0  0
 16 46  1  0  0  0  0
 16 47  1  0  0  0  0
 17 19  1  0  0  0  0
 17 48  1  0  0  0  0
 18 19  1  0  0  0  0
 18 20  1  0  0  0  0
 18 21  1  0  0  0  0
 19 49  1  0  0  0  0
 20 22  1  0  0  0  0
 20 23  2  0  0  0  0
 21 24  2  0  0  0  0
 21 25  1  0  0  0  0
 22 26  2  0  0  0  0
 23 27  1  0  0  0  0
 23 51  1  0  0  0  0
 24 28  1  0  0  0  0
 24 52  1  0  0  0  0
 25 29  2  0  0  0  0
 25 53  1  0  0  0  0
 26 30  1  0  0  0  0
 26 54  1  0  0  0  0
 27 30  2  0  0  0  0
 27 55  1  0  0  0  0
 28 31  2  0  0  0  0
 28 56  1  0  0  0  0
 29 31  1  0  0  0  0
 29 57  1  0  0  0  0
 30 58  1  0  0  0  0
 31 59  1  0  0  0  0
M  CHG  8   5   1   6   1   7   1   8   1   9   1  10   1  32  -1  33  -1
M  CHG  4  34  -1  35  -1  36  -1  37  -1
M  RAD  2  17   2  19   2
M  END
> <PUBCHEM_COMPOUND_CID>
500315
> <PUBCHEM_COMPOUND_CANONICALIZED>
1
> <PUBCHEM_CACTVS_COMPLEXITY>
362
> <PUBCHEM_CACTVS_HBOND_ACCEPTOR>
8
> <PUBCHEM_CACTVS_HBOND_DONOR>
1
> <PUBCHEM_CACTVS_ROTATABLE_BOND>
6
> <PUBCHEM_CACTVS_SUBSKEYS>
AAADceB6OAAEAAAQAAAAAAAAAAAAAWAAAAAwYAAAAAAAAAABQAAAHgIACAAADEbBmCQwAIMAAgCAAiBCAAACAAAgBQAIiAAICogIJiKBkxCEcAAkwAGImAewwOAOgAAAAAABAAAAAAAAAAIAAAAAAAAAAA==
> <PUBCHEM_IUPAC_INCHI>
InChI=1S/C20H22ClNO.6CO.2Co/c21-19-12-5-4-11-18(19)20(23,17-9-2-1-3-10-17)13-8-16-22-14-6-7-15-22;6*1-2;;/h1-5,8-13,23H,6-7,14-16H2;;;;;;;;
> <PUBCHEM_IUPAC_INCHIKEY>
YQSNPKQYNXFSGW-UHFFFAOYSA-N
> <PUBCHEM_EXACT_MASS>
612.974867
> <PUBCHEM_MOLECULAR_FORMULA>
C26H22ClCo2NO7
> <PUBCHEM_MOLECULAR_WEIGHT>
613.8
> <PUBCHEM_OPENEYE_CAN_SMILES>
[C-]#[O+].[C-]#[O+].[C-]#[O+].[C-]#[O+].[C-]#[O+].[C-]#[O+].C1CCN(C1)C[CH][CH]C(C2=CC=CC=C2)(C3=CC=CC=C3Cl)O.[Co].[Co]
> <PUBCHEM_OPENEYE_ISO_SMILES>
[C-]#[O+].[C-]#[O+].[C-]#[O+].[C-]#[O+].[C-]#[O+].[C-]#[O+].C1CCN(C1)C[CH][CH]C(C2=CC=CC=C2)(C3=CC=CC=C3Cl)O.[Co].[Co]
> <PUBCHEM_CACTVS_TPSA>
29.5
> <PUBCHEM_MONOISOTOPIC_WEIGHT>
612.974867
> <PUBCHEM_TOTAL_CHARGE>
0
> <PUBCHEM_HEAVY_ATOM_COUNT>
37
> <PUBCHEM_ATOM_DEF_STEREO_COUNT>
0
> <PUBCHEM_ATOM_UDEF_STEREO_COUNT>
1
> <PUBCHEM_BOND_DEF_STEREO_COUNT>
0
> <PUBCHEM_BOND_UDEF_STEREO_COUNT>
0
> <PUBCHEM_ISOTOPIC_ATOM_COUNT>
0
> <PUBCHEM_COMPONENT_COUNT>
9
> <PUBCHEM_CACTVS_TAUTO_COUNT>
-1
> <PUBCHEM_NONSTANDARDBOND>
1  2  6
> <PUBCHEM_COORDINATE_TYPE>
1
5
255
> <PUBCHEM_BONDANNOTATIONS>
20  22  8
20  23  8
21  24  8
21  25  8
22  26  8
23  27  8
24  28  8
25  29  8
26  30  8
27  30  8
28  31  8
29  31  8
18  4  3
$$$$
