500368
  -OEChem-10302200282D
 35 36  0     1  0  0  0  0  0999 V2000
    2.9230   -0.7584    0.0000 O   0  0  0  0  0  0  0  0  0  0  0  0
    5.0981   -3.2094    0.0000 O   0  0  0  0  0  0  0  0  0  0  0  0
    5.4641    0.8294    0.0000 O   0  0  0  0  0  0  0  0  0  0  0  0
    3.7320    3.8294    0.0000 O   0  0  0  0  0  0  0  0  0  0  0  0
    3.2320   -1.7094    0.0000 N   0  0  3  0  0  0  0  0  0  0  0  0
    3.7320    0.8294    0.0000 N   0  0  0  0  0  0  0  0  0  0  0  0
    4.5981    2.3294    0.0000 N   0  0  0  0  0  0  0  0  0  0  0  0
    4.2320   -1.7094    0.0000 C   0  0  3  0  0  0  0  0  0  0  0  0
    4.5411   -0.7584    0.0000 C   0  0  0  0  0  0  0  0  0  0  0  0
    3.7320   -0.1706    0.0000 C   0  0  3  0  0  0  0  0  0  0  0  0
    4.2320   -2.7094    0.0000 C   0  0  0  0  0  0  0  0  0  0  0  0
    5.1831   -2.0184    0.0000 C   0  0  0  0  0  0  0  0  0  0  0  0
    2.6443   -2.5184    0.0000 C   0  0  0  0  0  0  0  0  0  0  0  0
    2.8660    1.3294    0.0000 C   0  0  0  0  0  0  0  0  0  0  0  0
    4.5981    1.3294    0.0000 C   0  0  0  0  0  0  0  0  0  0  0  0
    2.8660    2.3294    0.0000 C   0  0  0  0  0  0  0  0  0  0  0  0
    3.7320    2.8294    0.0000 C   0  0  0  0  0  0  0  0  0  0  0  0
    2.0000    2.8294    0.0000 C   0  0  0  0  0  0  0  0  0  0  0  0
    5.1075   -1.0105    0.0000 H   0  0  0  0  0  0  0  0  0  0  0  0
    4.8511   -0.2214    0.0000 H   0  0  0  0  0  0  0  0  0  0  0  0
    4.2845    0.1109    0.0000 H   0  0  0  0  0  0  0  0  0  0  0  0
    3.6215   -2.6018    0.0000 H   0  0  0  0  0  0  0  0  0  0  0  0
    4.0200   -3.2920    0.0000 H   0  0  0  0  0  0  0  0  0  0  0  0
    4.9915   -2.6081    0.0000 H   0  0  0  0  0  0  0  0  0  0  0  0
    5.7728   -2.2100    0.0000 H   0  0  0  0  0  0  0  0  0  0  0  0
    5.3747   -1.4288    0.0000 H   0  0  0  0  0  0  0  0  0  0  0  0
    2.1427   -2.1540    0.0000 H   0  0  0  0  0  0  0  0  0  0  0  0
    2.2798   -3.0200    0.0000 H   0  0  0  0  0  0  0  0  0  0  0  0
    3.1459   -2.8829    0.0000 H   0  0  0  0  0  0  0  0  0  0  0  0
    2.3291    1.0194    0.0000 H   0  0  0  0  0  0  0  0  0  0  0  0
    5.0981   -3.8294    0.0000 H   0  0  0  0  0  0  0  0  0  0  0  0
    5.1350    2.6394    0.0000 H   0  0  0  0  0  0  0  0  0  0  0  0
    2.3100    3.3664    0.0000 H   0  0  0  0  0  0  0  0  0  0  0  0
    1.4631    3.1394    0.0000 H   0  0  0  0  0  0  0  0  0  0  0  0
    1.6900    2.2925    0.0000 H   0  0  0  0  0  0  0  0  0  0  0  0
  1  5  1  0  0  0  0
  1 10  1  0  0  0  0
  2 11  1  0  0  0  0
  2 31  1  0  0  0  0
  3 15  2  0  0  0  0
  4 17  2  0  0  0  0
  5  8  1  0  0  0  0
  5 13  1  0  0  0  0
  6 10  1  0  0  0  0
  6 14  1  0  0  0  0
  6 15  1  0  0  0  0
  7 15  1  0  0  0  0
  7 17  1  0  0  0  0
  7 32  1  0  0  0  0
  8  9  1  0  0  0  0
  8 11  1  0  0  0  0
  8 12  1  0  0  0  0
  9 10  1  0  0  0  0
  9 19  1  0  0  0  0
  9 20  1  0  0  0  0
 10 21  1  0  0  0  0
 11 22  1  0  0  0  0
 11 23  1  0  0  0  0
 12 24  1  0  0  0  0
 12 25  1  0  0  0  0
 12 26  1  0  0  0  0
 13 27  1  0  0  0  0
 13 28  1  0  0  0  0
 13 29  1  0  0  0  0
 14 16  2  0  0  0  0
 14 30  1  0  0  0  0
 16 17  1  0  0  0  0
 16 18  1  0  0  0  0
 18 33  1  0  0  0  0
 18 34  1  0  0  0  0
 18 35  1  0  0  0  0
M  END
> <PUBCHEM_COMPOUND_CID>
500368
> <PUBCHEM_COMPOUND_CANONICALIZED>
1
> <PUBCHEM_CACTVS_COMPLEXITY>
423
> <PUBCHEM_CACTVS_HBOND_ACCEPTOR>
5
> <PUBCHEM_CACTVS_HBOND_DONOR>
2
> <PUBCHEM_CACTVS_ROTATABLE_BOND>
2
> <PUBCHEM_CACTVS_SUBSKEYS>
AAADceBzOAAAAAAAAAAAAAAAAAAAAWAAAAAgAAAAAAAAAAAAAAAAHgAUCAAADIjhgAYDAAPQAgCIAgFWUACAAAAAAAAgAAEIAECCEAAAwQAEQAAOByIQAMBgAAAIAAAAAAAAAAAAAAAAAAAAAAAAAAAAAA==
> <PUBCHEM_IUPAC_OPENEYE_NAME>
1-[3-(hydroxymethyl)-2,3-dimethyl-isoxazolidin-5-yl]-5-methyl-pyrimidine-2,4-dione
> <PUBCHEM_IUPAC_CAS_NAME>
1-[3-(hydroxymethyl)-2,3-dimethyl-5-isoxazolidinyl]-5-methylpyrimidine-2,4-dione
> <PUBCHEM_IUPAC_NAME_MARKUP>
1-[3-(hydroxymethyl)-2,3-dimethyl-1,2-oxazolidin-5-yl]-5-methylpyrimidine-2,4-dione
> <PUBCHEM_IUPAC_NAME>
1-[3-(hydroxymethyl)-2,3-dimethyl-1,2-oxazolidin-5-yl]-5-methylpyrimidine-2,4-dione
> <PUBCHEM_IUPAC_SYSTEMATIC_NAME>
1-[3-(hydroxymethyl)-2,3-dimethyl-1,2-oxazolidin-5-yl]-5-methyl-pyrimidine-2,4-dione
> <PUBCHEM_IUPAC_TRADITIONAL_NAME>
1-(2,3-dimethyl-3-methylol-isoxazolidin-5-yl)-5-methyl-pyrimidine-2,4-quinone
> <PUBCHEM_IUPAC_INCHI>
InChI=1S/C11H17N3O4/c1-7-5-14(10(17)12-9(7)16)8-4-11(2,6-15)13(3)18-8/h5,8,15H,4,6H2,1-3H3,(H,12,16,17)
> <PUBCHEM_IUPAC_INCHIKEY>
BFNPPVRRUGXFBD-UHFFFAOYSA-N
> <PUBCHEM_XLOGP3_AA>
-0.5
> <PUBCHEM_EXACT_MASS>
255.12190603
> <PUBCHEM_MOLECULAR_FORMULA>
C11H17N3O4
> <PUBCHEM_MOLECULAR_WEIGHT>
255.27
> <PUBCHEM_OPENEYE_CAN_SMILES>
CC1=CN(C(=O)NC1=O)C2CC(N(O2)C)(C)CO
> <PUBCHEM_OPENEYE_ISO_SMILES>
CC1=CN(C(=O)NC1=O)C2CC(N(O2)C)(C)CO
> <PUBCHEM_CACTVS_TPSA>
82.1
> <PUBCHEM_MONOISOTOPIC_WEIGHT>
255.12190603
> <PUBCHEM_TOTAL_CHARGE>
0
> <PUBCHEM_HEAVY_ATOM_COUNT>
18
> <PUBCHEM_ATOM_DEF_STEREO_COUNT>
0
> <PUBCHEM_ATOM_UDEF_STEREO_COUNT>
2
> <PUBCHEM_BOND_DEF_STEREO_COUNT>
0
> <PUBCHEM_BOND_UDEF_STEREO_COUNT>
0
> <PUBCHEM_ISOTOPIC_ATOM_COUNT>
0
> <PUBCHEM_COMPONENT_COUNT>
1
> <PUBCHEM_CACTVS_TAUTO_COUNT>
-1
> <PUBCHEM_COORDINATE_TYPE>
1
5
255
> <PUBCHEM_BONDANNOTATIONS>
14  16  8
16  17  8
10  6  3
6  14  8
6  15  8
7  15  8
7  17  8
8  12  3
$$$$
