500316
  -OEChem-10302200282D
 45 47  0     1  0  0  0  0  0999 V2000
    2.0000   -1.1574    0.0000 Cl  0  0  0  0  0  0  0  0  0  0  0  0
    2.7320   -0.1574    0.0000 O   0  0  0  0  0  0  0  0  0  0  0  0
    6.7320    1.5747    0.0000 N   0  0  0  0  0  0  0  0  0  0  0  0
    7.7266    1.6792    0.0000 C   0  0  0  0  0  0  0  0  0  0  0  0
    6.3253    2.4882    0.0000 C   0  0  0  0  0  0  0  0  0  0  0  0
    7.9345    2.6574    0.0000 C   0  0  0  0  0  0  0  0  0  0  0  0
    7.0685    3.1574    0.0000 C   0  0  0  0  0  0  0  0  0  0  0  0
    6.2320    0.7087    0.0000 C   0  0  0  0  0  0  0  0  0  0  0  0
    3.7320   -0.1574    0.0000 C   0  0  3  0  0  0  0  0  0  0  0  0
    5.2320    0.7087    0.0000 C   0  4  0  0  0  0  0  0  0  0  0  0
    4.7320   -0.1574    0.0000 C   0  4  0  0  0  0  0  0  0  0  0  0
    3.7320   -1.1574    0.0000 C   0  0  0  0  0  0  0  0  0  0  0  0
    3.7320    0.8426    0.0000 C   0  0  0  0  0  0  0  0  0  0  0  0
    2.8660   -1.6574    0.0000 C   0  0  0  0  0  0  0  0  0  0  0  0
    4.5981   -1.6574    0.0000 C   0  0  0  0  0  0  0  0  0  0  0  0
    4.5981    1.3426    0.0000 C   0  0  0  0  0  0  0  0  0  0  0  0
    2.8660    1.3426    0.0000 C   0  0  0  0  0  0  0  0  0  0  0  0
    2.8660   -2.6574    0.0000 C   0  0  0  0  0  0  0  0  0  0  0  0
    4.5981   -2.6574    0.0000 C   0  0  0  0  0  0  0  0  0  0  0  0
    4.5981    2.3426    0.0000 C   0  0  0  0  0  0  0  0  0  0  0  0
    2.8660    2.3426    0.0000 C   0  0  0  0  0  0  0  0  0  0  0  0
    3.7320   -3.1574    0.0000 C   0  0  0  0  0  0  0  0  0  0  0  0
    3.7320    2.8426    0.0000 C   0  0  0  0  0  0  0  0  0  0  0  0
    7.7266    1.0592    0.0000 H   0  0  0  0  0  0  0  0  0  0  0  0
    8.3432    1.6144    0.0000 H   0  0  0  0  0  0  0  0  0  0  0  0
    5.9609    2.9898    0.0000 H   0  0  0  0  0  0  0  0  0  0  0  0
    5.7884    2.1782    0.0000 H   0  0  0  0  0  0  0  0  0  0  0  0
    8.5241    2.4658    0.0000 H   0  0  0  0  0  0  0  0  0  0  0  0
    8.1867    3.2238    0.0000 H   0  0  0  0  0  0  0  0  0  0  0  0
    7.4329    3.6590    0.0000 H   0  0  0  0  0  0  0  0  0  0  0  0
    6.6077    3.5722    0.0000 H   0  0  0  0  0  0  0  0  0  0  0  0
    6.1244    0.0981    0.0000 H   0  0  0  0  0  0  0  0  0  0  0  0
    6.8147    0.4966    0.0000 H   0  0  0  0  0  0  0  0  0  0  0  0
    4.9220    1.2456    0.0000 H   0  0  0  0  0  0  0  0  0  0  0  0
    5.0420   -0.6943    0.0000 H   0  0  0  0  0  0  0  0  0  0  0  0
    5.1350   -1.3474    0.0000 H   0  0  0  0  0  0  0  0  0  0  0  0
    5.1350    1.0326    0.0000 H   0  0  0  0  0  0  0  0  0  0  0  0
    2.3291    1.0326    0.0000 H   0  0  0  0  0  0  0  0  0  0  0  0
    2.4220    0.3796    0.0000 H   0  0  0  0  0  0  0  0  0  0  0  0
    2.3291   -2.9674    0.0000 H   0  0  0  0  0  0  0  0  0  0  0  0
    5.1350   -2.9674    0.0000 H   0  0  0  0  0  0  0  0  0  0  0  0
    5.1350    2.6526    0.0000 H   0  0  0  0  0  0  0  0  0  0  0  0
    2.3291    2.6526    0.0000 H   0  0  0  0  0  0  0  0  0  0  0  0
    3.7320   -3.7774    0.0000 H   0  0  0  0  0  0  0  0  0  0  0  0
    3.7320    3.4626    0.0000 H   0  0  0  0  0  0  0  0  0  0  0  0
  1 14  1  0  0  0  0
  2  9  1  0  0  0  0
  2 39  1  0  0  0  0
  3  4  1  0  0  0  0
  3  5  1  0  0  0  0
  3  8  1  0  0  0  0
  4  6  1  0  0  0  0
  4 24  1  0  0  0  0
  4 25  1  0  0  0  0
  5  7  1  0  0  0  0
  5 26  1  0  0  0  0
  5 27  1  0  0  0  0
  6  7  1  0  0  0  0
  6 28  1  0  0  0  0
  6 29  1  0  0  0  0
  7 30  1  0  0  0  0
  7 31  1  0  0  0  0
  8 10  1  0  0  0  0
  8 32  1  0  0  0  0
  8 33  1  0  0  0  0
  9 11  1  0  0  0  0
  9 12  1  0  0  0  0
  9 13  1  0  0  0  0
 10 11  1  0  0  0  0
 10 34  1  0  0  0  0
 11 35  1  0  0  0  0
 12 14  1  0  0  0  0
 12 15  2  0  0  0  0
 13 16  2  0  0  0  0
 13 17  1  0  0  0  0
 14 18  2  0  0  0  0
 15 19  1  0  0  0  0
 15 36  1  0  0  0  0
 16 20  1  0  0  0  0
 16 37  1  0  0  0  0
 17 21  2  0  0  0  0
 17 38  1  0  0  0  0
 18 22  1  0  0  0  0
 18 40  1  0  0  0  0
 19 22  2  0  0  0  0
 19 41  1  0  0  0  0
 20 23  2  0  0  0  0
 20 42  1  0  0  0  0
 21 23  1  0  0  0  0
 21 43  1  0  0  0  0
 22 44  1  0  0  0  0
 23 45  1  0  0  0  0
M  RAD  2  10   2  11   2
M  END
> <PUBCHEM_COMPOUND_CID>
500316
> <PUBCHEM_COMPOUND_CANONICALIZED>
1
> <PUBCHEM_CACTVS_COMPLEXITY>
352
> <PUBCHEM_CACTVS_HBOND_ACCEPTOR>
2
> <PUBCHEM_CACTVS_HBOND_DONOR>
1
> <PUBCHEM_CACTVS_ROTATABLE_BOND>
6
> <PUBCHEM_CACTVS_SUBSKEYS>
AAADceB6IAAEAAAAAAAAAAAAAAAAAWAAAAAwYAAAAAAAAAABQAAAHgIACAAADEbBmCQwAIMAAgCAAiBCAAACAAAgBQAIiAAICogIJiKBkxCEcAAkwAGImAewwOAOgAAAAAABAAAAAAAAAAIAAAAAAAAAAA==
> <PUBCHEM_IUPAC_INCHI>
InChI=1S/C20H22ClNO/c21-19-12-5-4-11-18(19)20(23,17-9-2-1-3-10-17)13-8-16-22-14-6-7-15-22/h1-5,8-13,23H,6-7,14-16H2
> <PUBCHEM_IUPAC_INCHIKEY>
OWQOHZKXYIFCES-UHFFFAOYSA-N
> <PUBCHEM_XLOGP3_AA>
4.4
> <PUBCHEM_EXACT_MASS>
327.1389920
> <PUBCHEM_MOLECULAR_FORMULA>
C20H22ClNO
> <PUBCHEM_MOLECULAR_WEIGHT>
327.8
> <PUBCHEM_OPENEYE_CAN_SMILES>
C1CCN(C1)C[CH][CH]C(C2=CC=CC=C2)(C3=CC=CC=C3Cl)O
> <PUBCHEM_OPENEYE_ISO_SMILES>
C1CCN(C1)C[CH][CH]C(C2=CC=CC=C2)(C3=CC=CC=C3Cl)O
> <PUBCHEM_CACTVS_TPSA>
23.5
> <PUBCHEM_MONOISOTOPIC_WEIGHT>
327.1389920
> <PUBCHEM_TOTAL_CHARGE>
0
> <PUBCHEM_HEAVY_ATOM_COUNT>
23
> <PUBCHEM_ATOM_DEF_STEREO_COUNT>
0
> <PUBCHEM_ATOM_UDEF_STEREO_COUNT>
1
> <PUBCHEM_BOND_DEF_STEREO_COUNT>
0
> <PUBCHEM_BOND_UDEF_STEREO_COUNT>
0
> <PUBCHEM_ISOTOPIC_ATOM_COUNT>
0
> <PUBCHEM_COMPONENT_COUNT>
1
> <PUBCHEM_CACTVS_TAUTO_COUNT>
-1
> <PUBCHEM_COORDINATE_TYPE>
1
5
255
> <PUBCHEM_BONDANNOTATIONS>
12  14  8
12  15  8
13  16  8
13  17  8
14  18  8
15  19  8
16  20  8
17  21  8
18  22  8
19  22  8
9  2  3
20  23  8
21  23  8
$$$$
