500450
  -OEChem-10302200282D
114117  0     1  0  0  0  0  0999 V2000
   17.6658   -2.2949    0.0000 O   0  0  0  0  0  0  0  0  0  0  0  0
   16.7208   -1.8334    0.0000 O   0  0  0  0  0  0  0  0  0  0  0  0
   17.4480    0.7733    0.0000 O   0  0  0  0  0  0  0  0  0  0  0  0
   19.3735    2.8780    0.0000 O   0  0  0  0  0  0  0  0  0  0  0  0
   18.5499    3.8612    0.0000 O   0  0  0  0  0  0  0  0  0  0  0  0
   18.6526   -3.7185    0.0000 O   0  0  0  0  0  0  0  0  0  0  0  0
   22.0286    0.8038    0.0000 O   0  0  0  0  0  0  0  0  0  0  0  0
   15.7507   -0.3986    0.0000 O   0  0  0  0  0  0  0  0  0  0  0  0
   23.2982    1.9819    0.0000 O   0  0  0  0  0  0  0  0  0  0  0  0
   19.3438   -1.1319    0.0000 C   0  0  1  0  0  0  0  0  0  0  0  0
   18.4877   -1.7253    0.0000 C   0  0  1  0  0  0  0  0  0  0  0  0
   19.4300   -2.1704    0.0000 C   0  0  0  0  0  0  0  0  0  0  0  0
   19.2500   -0.0945    0.0000 C   0  0  1  0  0  0  0  0  0  0  0  0
   17.5492   -1.2733    0.0000 C   0  0  1  0  0  0  0  0  0  0  0  0
   18.3490    0.3394    0.0000 C   0  0  1  0  0  0  0  0  0  0  0  0
   17.4794   -0.2340    0.0000 C   0  0  2  0  0  0  0  0  0  0  0  0
   20.4266   -2.0880    0.0000 C   0  0  0  0  0  0  0  0  0  0  0  0
   19.0030   -3.0747    0.0000 C   0  0  0  0  0  0  0  0  0  0  0  0
   18.1265    1.3143    0.0000 C   0  0  1  0  0  0  0  0  0  0  0  0
   20.1509    0.3394    0.0000 C   0  0  0  0  0  0  0  0  0  0  0  0
   18.7500    2.0962    0.0000 C   0  0  2  0  0  0  0  0  0  0  0  0
   16.4814   -0.2972    0.0000 C   0  0  0  0  0  0  0  0  0  0  0  0
   20.3735    1.3143    0.0000 C   0  0  0  0  0  0  0  0  0  0  0  0
   19.7500    2.0962    0.0000 C   0  0  0  0  0  0  0  0  0  0  0  0
   17.1967    1.6660    0.0000 C   0  0  0  0  0  0  0  0  0  0  0  0
   18.2002    2.9244    0.0000 C   0  0  0  0  0  0  0  0  0  0  0  0
   17.7483   -3.2915    0.0000 C   0  0  0  0  0  0  0  0  0  0  0  0
   17.2421    2.6591    0.0000 C   0  0  0  0  0  0  0  0  0  0  0  0
   15.8215   -1.3961    0.0000 C   0  0  0  0  0  0  0  0  0  0  0  0
   21.3484    1.5368    0.0000 C   0  0  0  0  0  0  0  0  0  0  0  0
   16.9264   -3.8612    0.0000 C   0  0  0  0  0  0  0  0  0  0  0  0
   16.4603    3.2826    0.0000 C   0  0  0  0  0  0  0  0  0  0  0  0
   14.9931   -1.9562    0.0000 C   0  0  0  0  0  0  0  0  0  0  0  0
   14.0939   -1.5189    0.0000 C   0  0  0  0  0  0  0  0  0  0  0  0
   23.0035    1.0263    0.0000 C   0  0  0  0  0  0  0  0  0  0  0  0
   13.2655   -2.0790    0.0000 C   0  0  0  0  0  0  0  0  0  0  0  0
   12.3662   -1.6416    0.0000 C   0  0  0  0  0  0  0  0  0  0  0  0
   23.6837    0.2933    0.0000 C   0  0  0  0  0  0  0  0  0  0  0  0
   11.5378   -2.2018    0.0000 C   0  0  0  0  0  0  0  0  0  0  0  0
   10.6385   -1.7644    0.0000 C   0  0  0  0  0  0  0  0  0  0  0  0
    9.8101   -2.3246    0.0000 C   0  0  0  0  0  0  0  0  0  0  0  0
    8.9108   -1.8872    0.0000 C   0  0  0  0  0  0  0  0  0  0  0  0
    8.0824   -2.4473    0.0000 C   0  0  0  0  0  0  0  0  0  0  0  0
    7.1831   -2.0100    0.0000 C   0  0  0  0  0  0  0  0  0  0  0  0
    6.3547   -2.5701    0.0000 C   0  0  0  0  0  0  0  0  0  0  0  0
    5.4554   -2.1328    0.0000 C   0  0  0  0  0  0  0  0  0  0  0  0
    4.6270   -2.6929    0.0000 C   0  0  0  0  0  0  0  0  0  0  0  0
    3.7277   -2.2555    0.0000 C   0  0  0  0  0  0  0  0  0  0  0  0
    2.8993   -2.8157    0.0000 C   0  0  0  0  0  0  0  0  0  0  0  0
    2.0000   -2.3783    0.0000 C   0  0  0  0  0  0  0  0  0  0  0  0
   20.1906   -1.0584    0.0000 H   0  0  0  0  0  0  0  0  0  0  0  0
   19.9893   -0.5138    0.0000 H   0  0  0  0  0  0  0  0  0  0  0  0
   16.9922   -1.0011    0.0000 H   0  0  0  0  0  0  0  0  0  0  0  0
   17.2826    0.3539    0.0000 H   0  0  0  0  0  0  0  0  0  0  0  0
   20.4777   -2.7059    0.0000 H   0  0  0  0  0  0  0  0  0  0  0  0
   21.0444   -2.0369    0.0000 H   0  0  0  0  0  0  0  0  0  0  0  0
   20.3755   -1.4701    0.0000 H   0  0  0  0  0  0  0  0  0  0  0  0
   18.4424   -2.8100    0.0000 H   0  0  0  0  0  0  0  0  0  0  0  0
   18.7383   -3.6354    0.0000 H   0  0  0  0  0  0  0  0  0  0  0  0
   19.5637   -3.3394    0.0000 H   0  0  0  0  0  0  0  0  0  0  0  0
   18.9552    1.1252    0.0000 H   0  0  0  0  0  0  0  0  0  0  0  0
   20.6357   -0.0472    0.0000 H   0  0  0  0  0  0  0  0  0  0  0  0
   16.4422    0.3215    0.0000 H   0  0  0  0  0  0  0  0  0  0  0  0
   15.8626   -0.3364    0.0000 H   0  0  0  0  0  0  0  0  0  0  0  0
   16.5206   -0.9160    0.0000 H   0  0  0  0  0  0  0  0  0  0  0  0
   16.8298    0.7270    0.0000 H   0  0  0  0  0  0  0  0  0  0  0  0
   20.3086    2.3652    0.0000 H   0  0  0  0  0  0  0  0  0  0  0  0
   19.6120    2.7006    0.0000 H   0  0  0  0  0  0  0  0  0  0  0  0
   16.6787    1.3254    0.0000 H   0  0  0  0  0  0  0  0  0  0  0  0
   19.9865    2.7856    0.0000 H   0  0  0  0  0  0  0  0  0  0  0  0
   21.8692    1.8732    0.0000 H   0  0  0  0  0  0  0  0  0  0  0  0
   21.1075    2.1082    0.0000 H   0  0  0  0  0  0  0  0  0  0  0  0
   16.5732   -3.3516    0.0000 H   0  0  0  0  0  0  0  0  0  0  0  0
   16.4168   -4.2144    0.0000 H   0  0  0  0  0  0  0  0  0  0  0  0
   17.2796   -4.3708    0.0000 H   0  0  0  0  0  0  0  0  0  0  0  0
   16.8469    3.7673    0.0000 H   0  0  0  0  0  0  0  0  0  0  0  0
   15.9756    3.6691    0.0000 H   0  0  0  0  0  0  0  0  0  0  0  0
   16.0738    2.7978    0.0000 H   0  0  0  0  0  0  0  0  0  0  0  0
   14.6293   -2.4582    0.0000 H   0  0  0  0  0  0  0  0  0  0  0  0
   15.4243   -2.4017    0.0000 H   0  0  0  0  0  0  0  0  0  0  0  0
   14.4577   -1.0169    0.0000 H   0  0  0  0  0  0  0  0  0  0  0  0
   13.6627   -1.0734    0.0000 H   0  0  0  0  0  0  0  0  0  0  0  0
   12.9016   -2.5810    0.0000 H   0  0  0  0  0  0  0  0  0  0  0  0
   13.6966   -2.5245    0.0000 H   0  0  0  0  0  0  0  0  0  0  0  0
   12.7300   -1.1396    0.0000 H   0  0  0  0  0  0  0  0  0  0  0  0
   11.9350   -1.1962    0.0000 H   0  0  0  0  0  0  0  0  0  0  0  0
   23.2292   -0.1284    0.0000 H   0  0  0  0  0  0  0  0  0  0  0  0
   24.1054   -0.1612    0.0000 H   0  0  0  0  0  0  0  0  0  0  0  0
   24.1381    0.7150    0.0000 H   0  0  0  0  0  0  0  0  0  0  0  0
   11.1739   -2.7038    0.0000 H   0  0  0  0  0  0  0  0  0  0  0  0
   11.9690   -2.6473    0.0000 H   0  0  0  0  0  0  0  0  0  0  0  0
   11.0023   -1.2624    0.0000 H   0  0  0  0  0  0  0  0  0  0  0  0
   10.2073   -1.3189    0.0000 H   0  0  0  0  0  0  0  0  0  0  0  0
    9.4462   -2.8266    0.0000 H   0  0  0  0  0  0  0  0  0  0  0  0
   10.2413   -2.7701    0.0000 H   0  0  0  0  0  0  0  0  0  0  0  0
    9.2746   -1.3852    0.0000 H   0  0  0  0  0  0  0  0  0  0  0  0
    8.4796   -1.4417    0.0000 H   0  0  0  0  0  0  0  0  0  0  0  0
    7.7185   -2.9493    0.0000 H   0  0  0  0  0  0  0  0  0  0  0  0
    8.5136   -2.8928    0.0000 H   0  0  0  0  0  0  0  0  0  0  0  0
    7.5469   -1.5080    0.0000 H   0  0  0  0  0  0  0  0  0  0  0  0
    6.7519   -1.5645    0.0000 H   0  0  0  0  0  0  0  0  0  0  0  0
    5.9908   -3.0721    0.0000 H   0  0  0  0  0  0  0  0  0  0  0  0
    6.7859   -3.0156    0.0000 H   0  0  0  0  0  0  0  0  0  0  0  0
    5.8192   -1.6308    0.0000 H   0  0  0  0  0  0  0  0  0  0  0  0
    5.0242   -1.6873    0.0000 H   0  0  0  0  0  0  0  0  0  0  0  0
    4.2631   -3.1949    0.0000 H   0  0  0  0  0  0  0  0  0  0  0  0
    5.0582   -3.1384    0.0000 H   0  0  0  0  0  0  0  0  0  0  0  0
    4.0916   -1.7535    0.0000 H   0  0  0  0  0  0  0  0  0  0  0  0
    3.2965   -1.8100    0.0000 H   0  0  0  0  0  0  0  0  0  0  0  0
    2.5354   -3.3177    0.0000 H   0  0  0  0  0  0  0  0  0  0  0  0
    3.3305   -3.2612    0.0000 H   0  0  0  0  0  0  0  0  0  0  0  0
    2.2712   -1.8208    0.0000 H   0  0  0  0  0  0  0  0  0  0  0  0
    1.4424   -2.1072    0.0000 H   0  0  0  0  0  0  0  0  0  0  0  0
    1.7288   -2.9359    0.0000 H   0  0  0  0  0  0  0  0  0  0  0  0
 11  1  1  1  0  0  0
  1 27  1  0  0  0  0
 14  2  1  6  0  0  0
  2 29  1  0  0  0  0
 15  3  1  1  0  0  0
  3 66  1  0  0  0  0
 21  4  1  1  0  0  0
  4 70  1  0  0  0  0
  5 26  2  0  0  0  0
  6 27  2  0  0  0  0
  7 30  1  0  0  0  0
  7 35  1  0  0  0  0
  8 29  2  0  0  0  0
  9 35  2  0  0  0  0
 10 11  1  0  0  0  0
 10 12  1  0  0  0  0
 10 13  1  0  0  0  0
 10 51  1  1  0  0  0
 11 12  1  0  0  0  0
 11 14  1  0  0  0  0
 12 17  1  0  0  0  0
 12 18  1  0  0  0  0
 13 15  1  0  0  0  0
 13 20  1  0  0  0  0
 13 52  1  6  0  0  0
 14 16  1  0  0  0  0
 14 53  1  0  0  0  0
 15 16  1  0  0  0  0
 15 19  1  0  0  0  0
 16 22  1  1  0  0  0
 16 54  1  0  0  0  0
 17 55  1  0  0  0  0
 17 56  1  0  0  0  0
 17 57  1  0  0  0  0
 18 58  1  0  0  0  0
 18 59  1  0  0  0  0
 18 60  1  0  0  0  0
 19 21  1  0  0  0  0
 19 25  1  0  0  0  0
 19 61  1  1  0  0  0
 20 23  2  0  0  0  0
 20 62  1  0  0  0  0
 21 24  1  0  0  0  0
 21 26  1  0  0  0  0
 22 63  1  0  0  0  0
 22 64  1  0  0  0  0
 22 65  1  0  0  0  0
 23 24  1  0  0  0  0
 23 30  1  0  0  0  0
 24 67  1  0  0  0  0
 24 68  1  0  0  0  0
 25 28  2  0  0  0  0
 25 69  1  0  0  0  0
 26 28  1  0  0  0  0
 27 31  1  0  0  0  0
 28 32  1  0  0  0  0
 29 33  1  0  0  0  0
 30 71  1  0  0  0  0
 30 72  1  0  0  0  0
 31 73  1  0  0  0  0
 31 74  1  0  0  0  0
 31 75  1  0  0  0  0
 32 76  1  0  0  0  0
 32 77  1  0  0  0  0
 32 78  1  0  0  0  0
 33 34  1  0  0  0  0
 33 79  1  0  0  0  0
 33 80  1  0  0  0  0
 34 36  1  0  0  0  0
 34 81  1  0  0  0  0
 34 82  1  0  0  0  0
 35 38  1  0  0  0  0
 36 37  1  0  0  0  0
 36 83  1  0  0  0  0
 36 84  1  0  0  0  0
 37 39  1  0  0  0  0
 37 85  1  0  0  0  0
 37 86  1  0  0  0  0
 38 87  1  0  0  0  0
 38 88  1  0  0  0  0
 38 89  1  0  0  0  0
 39 40  1  0  0  0  0
 39 90  1  0  0  0  0
 39 91  1  0  0  0  0
 40 41  1  0  0  0  0
 40 92  1  0  0  0  0
 40 93  1  0  0  0  0
 41 42  1  0  0  0  0
 41 94  1  0  0  0  0
 41 95  1  0  0  0  0
 42 43  1  0  0  0  0
 42 96  1  0  0  0  0
 42 97  1  0  0  0  0
 43 44  1  0  0  0  0
 43 98  1  0  0  0  0
 43 99  1  0  0  0  0
 44 45  1  0  0  0  0
 44100  1  0  0  0  0
 44101  1  0  0  0  0
 45 46  1  0  0  0  0
 45102  1  0  0  0  0
 45103  1  0  0  0  0
 46 47  1  0  0  0  0
 46104  1  0  0  0  0
 46105  1  0  0  0  0
 47 48  1  0  0  0  0
 47106  1  0  0  0  0
 47107  1  0  0  0  0
 48 49  1  0  0  0  0
 48108  1  0  0  0  0
 48109  1  0  0  0  0
 49 50  1  0  0  0  0
 49110  1  0  0  0  0
 49111  1  0  0  0  0
 50112  1  0  0  0  0
 50113  1  0  0  0  0
 50114  1  0  0  0  0
M  END
> <PUBCHEM_COMPOUND_CID>
500450
> <PUBCHEM_COMPOUND_CANONICALIZED>
1
> <PUBCHEM_CACTVS_COMPLEXITY>
1310
> <PUBCHEM_CACTVS_HBOND_ACCEPTOR>
9
> <PUBCHEM_CACTVS_HBOND_DONOR>
2
> <PUBCHEM_CACTVS_ROTATABLE_BOND>
22
> <PUBCHEM_CACTVS_SUBSKEYS>
AAADcfB8PAAAAAAAAAAAAAAAGAAAAQAAAAAwAAAABggAAACAAAAAGgAACAAAD1SggAICCAAABgCIAqDSCAIAAAAgAAAACAFAAEgBBBIAIQACUAAFwAAKIYPK7PyPgAAAAAAAAADCAAYQADCAAAAAAAAAAA==
> <PUBCHEM_IUPAC_OPENEYE_NAME>
[(1S,2S,6S,10S,11R,13S,14R,15R)-13-acetoxy-8-(acetoxymethyl)-1,6-dihydroxy-4,12,12,15-tetramethyl-5-oxo-14-tetracyclo[8.5.0.02,6.011,13]pentadeca-3,8-dienyl] heptadecanoate
> <PUBCHEM_IUPAC_CAS_NAME>
heptadecanoic acid [(1S,2S,6S,10S,11R,13S,14R,15R)-13-acetyloxy-8-(acetyloxymethyl)-1,6-dihydroxy-4,12,12,15-tetramethyl-5-oxo-14-tetracyclo[8.5.0.02,6.011,13]pentadeca-3,8-dienyl] ester
> <PUBCHEM_IUPAC_NAME_MARKUP>
[(1<I>S</I>,2<I>S</I>,6<I>S</I>,10<I>S</I>,11<I>R</I>,13<I>S</I>,14<I>R</I>,15<I>R</I>)-13-acetyloxy-8-(acetyloxymethyl)-1,6-dihydroxy-4,12,12,15-tetramethyl-5-oxo-14-tetracyclo[8.5.0.0<SUP>2,6</SUP>.0<SUP>11,13</SUP>]pentadeca-3,8-dienyl] heptadecanoate
> <PUBCHEM_IUPAC_NAME>
[(1S,2S,6S,10S,11R,13S,14R,15R)-13-acetyloxy-8-(acetyloxymethyl)-1,6-dihydroxy-4,12,12,15-tetramethyl-5-oxo-14-tetracyclo[8.5.0.02,6.011,13]pentadeca-3,8-dienyl] heptadecanoate
> <PUBCHEM_IUPAC_SYSTEMATIC_NAME>
[(1S,2S,6S,10S,11R,13S,14R,15R)-13-acetyloxy-8-(acetyloxymethyl)-4,12,12,15-tetramethyl-1,6-bis(oxidanyl)-5-oxidanylidene-14-tetracyclo[8.5.0.02,6.011,13]pentadeca-3,8-dienyl] heptadecanoate
> <PUBCHEM_IUPAC_TRADITIONAL_NAME>
heptadecanoic acid [(1S,2S,6S,10S,11R,13S,14R,15R)-13-acetoxy-8-(acetoxymethyl)-1,6-dihydroxy-5-keto-4,12,12,15-tetramethyl-14-tetracyclo[8.5.0.02,6.011,13]pentadeca-3,8-dienyl] ester
> <PUBCHEM_IUPAC_INCHI>
InChI=1S/C41H64O9/c1-8-9-10-11-12-13-14-15-16-17-18-19-20-21-22-34(44)49-37-28(3)40(47)32(35-38(6,7)41(35,37)50-30(5)43)24-31(26-48-29(4)42)25-39(46)33(40)23-27(2)36(39)45/h23-24,28,32-33,35,37,46-47H,8-22,25-26H2,1-7H3/t28-,32+,33-,35-,37-,39+,40-,41-/m1/s1
> <PUBCHEM_IUPAC_INCHIKEY>
IRYDYNAXDAPVPC-ULYFLDFASA-N
> <PUBCHEM_XLOGP3_AA>
8.7
> <PUBCHEM_EXACT_MASS>
700.45503361
> <PUBCHEM_MOLECULAR_FORMULA>
C41H64O9
> <PUBCHEM_MOLECULAR_WEIGHT>
700.9
> <PUBCHEM_OPENEYE_CAN_SMILES>
CCCCCCCCCCCCCCCCC(=O)OC1C(C2(C(C=C(CC3(C2C=C(C3=O)C)O)COC(=O)C)C4C1(C4(C)C)OC(=O)C)O)C
> <PUBCHEM_OPENEYE_ISO_SMILES>
CCCCCCCCCCCCCCCCC(=O)O[C@@H]1[C@H]([C@]2([C@@H](C=C(C[C@@]3([C@H]2C=C(C3=O)C)O)COC(=O)C)[C@H]4[C@@]1(C4(C)C)OC(=O)C)O)C
> <PUBCHEM_CACTVS_TPSA>
136
> <PUBCHEM_MONOISOTOPIC_WEIGHT>
700.45503361
> <PUBCHEM_TOTAL_CHARGE>
0
> <PUBCHEM_HEAVY_ATOM_COUNT>
50
> <PUBCHEM_ATOM_DEF_STEREO_COUNT>
8
> <PUBCHEM_ATOM_UDEF_STEREO_COUNT>
0
> <PUBCHEM_BOND_DEF_STEREO_COUNT>
0
> <PUBCHEM_BOND_UDEF_STEREO_COUNT>
0
> <PUBCHEM_ISOTOPIC_ATOM_COUNT>
0
> <PUBCHEM_COMPONENT_COUNT>
1
> <PUBCHEM_CACTVS_TAUTO_COUNT>
-1
> <PUBCHEM_COORDINATE_TYPE>
1
5
255
> <PUBCHEM_BONDANNOTATIONS>
11  1  5
10  51  5
13  52  6
16  22  5
19  61  5
14  2  6
15  3  5
21  4  5
$$$$
