500422
  -OEChem-10302200282D
155162  0     1  0  0  0  0  0999 V2000
    6.5621   -4.7318    0.0000 O   0  0  0  0  0  0  0  0  0  0  0  0
   15.4872   -1.6453    0.0000 O   0  0  0  0  0  0  0  0  0  0  0  0
   12.0155    2.3002    0.0000 O   0  0  0  0  0  0  0  0  0  0  0  0
    5.7019   -3.2285    0.0000 O   0  0  0  0  0  0  0  0  0  0  0  0
   16.3648   -3.1386    0.0000 O   0  0  0  0  0  0  0  0  0  0  0  0
   13.2957    3.4669    0.0000 O   0  0  0  0  0  0  0  0  0  0  0  0
    2.5904   -6.4819    0.0000 O   0  0  0  0  0  0  0  0  0  0  0  0
   19.4384    0.1505    0.0000 O   0  0  0  0  0  0  0  0  0  0  0  0
    2.0615   -4.8325    0.0000 O   0  0  0  0  0  0  0  0  0  0  0  0
   19.9864   -1.4926    0.0000 O   0  0  0  0  0  0  0  0  0  0  0  0
    9.4434    5.7962    0.0000 O   0  0  0  0  0  0  0  0  0  0  0  0
   10.9382    6.6712    0.0000 O   0  0  0  0  0  0  0  0  0  0  0  0
   11.9552   -2.6795    0.0000 C   0  0  3  0  0  0  0  0  0  0  0  0
   11.0892   -3.1795    0.0000 C   0  0  3  0  0  0  0  0  0  0  0  0
   10.2232   -2.6795    0.0000 C   0  0  3  0  0  0  0  0  0  0  0  0
   11.9552   -1.6795    0.0000 C   0  0  3  0  0  0  0  0  0  0  0  0
    9.3132   -3.1864    0.0000 C   0  0  3  0  0  0  0  0  0  0  0  0
   12.8491   -1.1448    0.0000 C   0  0  3  0  0  0  0  0  0  0  0  0
   13.7552   -1.6587    0.0000 C   0  0  3  0  0  0  0  0  0  0  0  0
    9.3051   -4.2280    0.0000 C   0  0  3  0  0  0  0  0  0  0  0  0
   12.8491   -3.2142    0.0000 C   0  0  0  0  0  0  0  0  0  0  0  0
   11.1052   -4.2210    0.0000 C   0  0  0  0  0  0  0  0  0  0  0  0
   10.2232   -1.6795    0.0000 C   0  0  0  0  0  0  0  0  0  0  0  0
   11.0892   -1.1795    0.0000 C   0  0  0  0  0  0  0  0  0  0  0  0
   13.7552   -2.7003    0.0000 C   0  0  0  0  0  0  0  0  0  0  0  0
   10.2072   -4.7488    0.0000 C   0  0  0  0  0  0  0  0  0  0  0  0
   13.0592   -0.1309    0.0000 C   0  0  3  0  0  0  0  0  0  0  0  0
    8.3697   -4.7777    0.0000 C   0  0  0  0  0  0  0  0  0  0  0  0
    8.3863   -2.6223    0.0000 C   0  0  0  0  0  0  0  0  0  0  0  0
   14.5175   -0.9579    0.0000 C   0  0  0  0  0  0  0  0  0  0  0  0
   12.2973   -3.6192    0.0000 C   0  0  0  0  0  0  0  0  0  0  0  0
   11.7320   -3.9456    0.0000 C   0  0  0  0  0  0  0  0  0  0  0  0
   14.0883   -0.0156    0.0000 C   0  0  0  0  0  0  0  0  0  0  0  0
    9.3209   -2.1864    0.0000 C   0  0  0  0  0  0  0  0  0  0  0  0
    7.4301   -4.2352    0.0000 C   0  0  3  0  0  0  0  0  0  0  0  0
   14.6251   -2.1520    0.0000 C   0  0  0  0  0  0  0  0  0  0  0  0
    7.4384   -3.1502    0.0000 C   0  0  0  0  0  0  0  0  0  0  0  0
   12.3857    0.6082    0.0000 C   0  0  0  0  0  0  0  0  0  0  0  0
    7.8730   -5.6456    0.0000 C   0  0  0  0  0  0  0  0  0  0  0  0
    8.8730   -5.6418    0.0000 C   0  0  0  0  0  0  0  0  0  0  0  0
   12.6890    1.5611    0.0000 C   0  0  0  0  0  0  0  0  0  0  0  0
   11.4088    0.3945    0.0000 C   0  0  0  0  0  0  0  0  0  0  0  0
    5.6980   -4.2285    0.0000 C   0  0  0  0  0  0  0  0  0  0  0  0
   16.3571   -2.1386    0.0000 C   0  0  0  0  0  0  0  0  0  0  0  0
    4.8301   -4.7252    0.0000 C   0  0  0  0  0  0  0  0  0  0  0  0
   17.2192   -1.6320    0.0000 C   0  0  0  0  0  0  0  0  0  0  0  0
    3.9660   -4.2218    0.0000 C   0  0  0  0  0  0  0  0  0  0  0  0
   18.0891   -2.1253    0.0000 C   0  0  0  0  0  0  0  0  0  0  0  0
   12.3188    3.2531    0.0000 C   0  0  0  0  0  0  0  0  0  0  0  0
    4.4693   -3.3577    0.0000 C   0  0  0  0  0  0  0  0  0  0  0  0
    2.9886   -4.0102    0.0000 C   0  0  0  0  0  0  0  0  0  0  0  0
   17.5958   -2.9952    0.0000 C   0  0  0  0  0  0  0  0  0  0  0  0
   19.0688   -2.3257    0.0000 C   0  0  0  0  0  0  0  0  0  0  0  0
    3.7543   -5.1992    0.0000 C   0  0  0  0  0  0  0  0  0  0  0  0
   18.2894   -1.1456    0.0000 C   0  0  0  0  0  0  0  0  0  0  0  0
   11.6452    3.9922    0.0000 C   0  0  0  0  0  0  0  0  0  0  0  0
    3.8031   -2.6120    0.0000 C   0  0  0  0  0  0  0  0  0  0  0  0
    2.8880   -3.0152    0.0000 C   0  0  0  0  0  0  0  0  0  0  0  0
   18.2706   -3.7331    0.0000 C   0  0  0  0  0  0  0  0  0  0  0  0
   19.1810   -3.3194    0.0000 C   0  0  0  0  0  0  0  0  0  0  0  0
   11.9485    4.9451    0.0000 C   0  0  0  0  0  0  0  0  0  0  0  0
    2.8021   -5.5045    0.0000 C   0  0  0  0  0  0  0  0  0  0  0  0
   19.2381   -0.8292    0.0000 C   0  0  0  0  0  0  0  0  0  0  0  0
   12.9014    4.6418    0.0000 C   0  0  0  0  0  0  0  0  0  0  0  0
   11.9426    5.9451    0.0000 C   0  0  0  0  0  0  0  0  0  0  0  0
   10.9486    4.9392    0.0000 C   0  0  0  0  0  0  0  0  0  0  0  0
   13.4844    5.4543    0.0000 C   0  0  0  0  0  0  0  0  0  0  0  0
   12.8918    6.2598    0.0000 C   0  0  0  0  0  0  0  0  0  0  0  0
   10.4434    5.8022    0.0000 C   0  0  0  0  0  0  0  0  0  0  0  0
   10.7601   -2.3695    0.0000 H   0  0  0  0  0  0  0  0  0  0  0  0
   11.9504   -1.0595    0.0000 H   0  0  0  0  0  0  0  0  0  0  0  0
   12.3438   -0.7856    0.0000 H   0  0  0  0  0  0  0  0  0  0  0  0
    9.3075   -4.8480    0.0000 H   0  0  0  0  0  0  0  0  0  0  0  0
   12.4445   -3.6840    0.0000 H   0  0  0  0  0  0  0  0  0  0  0  0
   13.2428   -3.6932    0.0000 H   0  0  0  0  0  0  0  0  0  0  0  0
   11.3233   -4.8014    0.0000 H   0  0  0  0  0  0  0  0  0  0  0  0
   11.7144   -4.1055    0.0000 H   0  0  0  0  0  0  0  0  0  0  0  0
   10.0111   -1.0969    0.0000 H   0  0  0  0  0  0  0  0  0  0  0  0
    9.6126   -1.7872    0.0000 H   0  0  0  0  0  0  0  0  0  0  0  0
   11.4877   -0.7046    0.0000 H   0  0  0  0  0  0  0  0  0  0  0  0
   10.6907   -0.7046    0.0000 H   0  0  0  0  0  0  0  0  0  0  0  0
   13.9643   -3.2840    0.0000 H   0  0  0  0  0  0  0  0  0  0  0  0
   14.3661   -2.5942    0.0000 H   0  0  0  0  0  0  0  0  0  0  0  0
    9.8099   -5.2247    0.0000 H   0  0  0  0  0  0  0  0  0  0  0  0
   10.6082   -5.2217    0.0000 H   0  0  0  0  0  0  0  0  0  0  0  0
   13.2777    0.4493    0.0000 H   0  0  0  0  0  0  0  0  0  0  0  0
    8.7945   -2.1556    0.0000 H   0  0  0  0  0  0  0  0  0  0  0  0
    7.9964   -2.1402    0.0000 H   0  0  0  0  0  0  0  0  0  0  0  0
   14.8868   -1.4560    0.0000 H   0  0  0  0  0  0  0  0  0  0  0  0
   15.0516   -0.6430    0.0000 H   0  0  0  0  0  0  0  0  0  0  0  0
   11.7147   -3.8313    0.0000 H   0  0  0  0  0  0  0  0  0  0  0  0
   12.5094   -4.2018    0.0000 H   0  0  0  0  0  0  0  0  0  0  0  0
   12.8799   -3.4071    0.0000 H   0  0  0  0  0  0  0  0  0  0  0  0
   11.2570   -4.3441    0.0000 H   0  0  0  0  0  0  0  0  0  0  0  0
   12.1305   -4.4205    0.0000 H   0  0  0  0  0  0  0  0  0  0  0  0
   12.2069   -3.5470    0.0000 H   0  0  0  0  0  0  0  0  0  0  0  0
   14.6764    0.1807    0.0000 H   0  0  0  0  0  0  0  0  0  0  0  0
   13.9549    0.5898    0.0000 H   0  0  0  0  0  0  0  0  0  0  0  0
    9.9408   -2.1912    0.0000 H   0  0  0  0  0  0  0  0  0  0  0  0
    9.3256   -1.5664    0.0000 H   0  0  0  0  0  0  0  0  0  0  0  0
    8.7009   -2.1816    0.0000 H   0  0  0  0  0  0  0  0  0  0  0  0
    7.4289   -4.8552    0.0000 H   0  0  0  0  0  0  0  0  0  0  0  0
   14.2302   -2.6300    0.0000 H   0  0  0  0  0  0  0  0  0  0  0  0
   15.0272   -2.6239    0.0000 H   0  0  0  0  0  0  0  0  0  0  0  0
    7.2339   -2.5649    0.0000 H   0  0  0  0  0  0  0  0  0  0  0  0
    6.8268   -3.2516    0.0000 H   0  0  0  0  0  0  0  0  0  0  0  0
    7.3349   -5.3377    0.0000 H   0  0  0  0  0  0  0  0  0  0  0  0
    7.5651   -6.1838    0.0000 H   0  0  0  0  0  0  0  0  0  0  0  0
    8.4112   -5.9536    0.0000 H   0  0  0  0  0  0  0  0  0  0  0  0
    8.3373   -5.9538    0.0000 H   0  0  0  0  0  0  0  0  0  0  0  0
    9.1851   -6.1775    0.0000 H   0  0  0  0  0  0  0  0  0  0  0  0
    9.4088   -5.3297    0.0000 H   0  0  0  0  0  0  0  0  0  0  0  0
   13.2382    1.2733    0.0000 H   0  0  0  0  0  0  0  0  0  0  0  0
   13.0678    2.0519    0.0000 H   0  0  0  0  0  0  0  0  0  0  0  0
   10.9912    0.8527    0.0000 H   0  0  0  0  0  0  0  0  0  0  0  0
   11.2207   -0.1963    0.0000 H   0  0  0  0  0  0  0  0  0  0  0  0
    4.4297   -5.1986    0.0000 H   0  0  0  0  0  0  0  0  0  0  0  0
    5.2268   -5.2016    0.0000 H   0  0  0  0  0  0  0  0  0  0  0  0
   17.6141   -1.1540    0.0000 H   0  0  0  0  0  0  0  0  0  0  0  0
   16.8170   -1.1601    0.0000 H   0  0  0  0  0  0  0  0  0  0  0  0
    4.9695   -3.7241    0.0000 H   0  0  0  0  0  0  0  0  0  0  0  0
    4.8860   -2.8986    0.0000 H   0  0  0  0  0  0  0  0  0  0  0  0
    2.3687   -4.0078    0.0000 H   0  0  0  0  0  0  0  0  0  0  0  0
    2.9215   -4.6265    0.0000 H   0  0  0  0  0  0  0  0  0  0  0  0
   17.0914   -2.6346    0.0000 H   0  0  0  0  0  0  0  0  0  0  0  0
   17.1845   -3.4591    0.0000 H   0  0  0  0  0  0  0  0  0  0  0  0
   19.6888   -2.3209    0.0000 H   0  0  0  0  0  0  0  0  0  0  0  0
   19.1288   -1.7086    0.0000 H   0  0  0  0  0  0  0  0  0  0  0  0
    3.8382   -5.8135    0.0000 H   0  0  0  0  0  0  0  0  0  0  0  0
    4.3738   -5.2232    0.0000 H   0  0  0  0  0  0  0  0  0  0  0  0
   18.1984   -0.5323    0.0000 H   0  0  0  0  0  0  0  0  0  0  0  0
   17.6697   -1.1287    0.0000 H   0  0  0  0  0  0  0  0  0  0  0  0
   11.0961    4.2800    0.0000 H   0  0  0  0  0  0  0  0  0  0  0  0
   11.2664    3.5014    0.0000 H   0  0  0  0  0  0  0  0  0  0  0  0
    4.3061   -2.2495    0.0000 H   0  0  0  0  0  0  0  0  0  0  0  0
    3.4951   -2.0739    0.0000 H   0  0  0  0  0  0  0  0  0  0  0  0
    2.6986   -2.4248    0.0000 H   0  0  0  0  0  0  0  0  0  0  0  0
    2.2810   -3.1418    0.0000 H   0  0  0  0  0  0  0  0  0  0  0  0
   17.7718   -4.1014    0.0000 H   0  0  0  0  0  0  0  0  0  0  0  0
   18.5847   -4.2676    0.0000 H   0  0  0  0  0  0  0  0  0  0  0  0
   19.3771   -3.9075    0.0000 H   0  0  0  0  0  0  0  0  0  0  0  0
   19.7864   -3.1858    0.0000 H   0  0  0  0  0  0  0  0  0  0  0  0
   12.6526    4.0739    0.0000 H   0  0  0  0  0  0  0  0  0  0  0  0
   13.4402    4.3350    0.0000 H   0  0  0  0  0  0  0  0  0  0  0  0
   11.8100    6.5508    0.0000 H   0  0  0  0  0  0  0  0  0  0  0  0
   11.3264    5.8766    0.0000 H   0  0  0  0  0  0  0  0  0  0  0  0
   10.3672    4.7236    0.0000 H   0  0  0  0  0  0  0  0  0  0  0  0
   11.0599    4.3292    0.0000 H   0  0  0  0  0  0  0  0  0  0  0  0
   13.9476    5.0422    0.0000 H   0  0  0  0  0  0  0  0  0  0  0  0
   13.9426    5.8719    0.0000 H   0  0  0  0  0  0  0  0  0  0  0  0
   13.4268    6.5730    0.0000 H   0  0  0  0  0  0  0  0  0  0  0  0
   12.6362    6.8247    0.0000 H   0  0  0  0  0  0  0  0  0  0  0  0
    2.0000   -6.6712    0.0000 H   0  0  0  0  0  0  0  0  0  0  0  0
   20.0266    0.3466    0.0000 H   0  0  0  0  0  0  0  0  0  0  0  0
    9.1302    6.3313    0.0000 H   0  0  0  0  0  0  0  0  0  0  0  0
  1 35  1  0  0  0  0
  1 43  1  0  0  0  0
  2 36  1  0  0  0  0
  2 44  1  0  0  0  0
  3 41  1  0  0  0  0
  3 49  1  0  0  0  0
  4 43  2  0  0  0  0
  5 44  2  0  0  0  0
  6 49  2  0  0  0  0
  7 62  1  0  0  0  0
  7153  1  0  0  0  0
  8 63  1  0  0  0  0
  8154  1  0  0  0  0
  9 62  2  0  0  0  0
 10 63  2  0  0  0  0
 11 69  1  0  0  0  0
 11155  1  0  0  0  0
 12 69  2  0  0  0  0
 13 14  1  0  0  0  0
 13 16  1  0  0  0  0
 13 21  1  0  0  0  0
 13 31  1  0  0  0  0
 14 15  1  0  0  0  0
 14 22  1  0  0  0  0
 14 32  1  0  0  0  0
 15 17  1  0  0  0  0
 15 23  1  0  0  0  0
 15 70  1  0  0  0  0
 16 18  1  0  0  0  0
 16 24  1  0  0  0  0
 16 71  1  0  0  0  0
 17 20  1  0  0  0  0
 17 29  1  0  0  0  0
 17 34  1  0  0  0  0
 18 19  1  0  0  0  0
 18 27  1  0  0  0  0
 18 72  1  0  0  0  0
 19 25  1  0  0  0  0
 19 30  1  0  0  0  0
 19 36  1  0  0  0  0
 20 26  1  0  0  0  0
 20 28  1  0  0  0  0
 20 73  1  0  0  0  0
 21 25  1  0  0  0  0
 21 74  1  0  0  0  0
 21 75  1  0  0  0  0
 22 26  1  0  0  0  0
 22 76  1  0  0  0  0
 22 77  1  0  0  0  0
 23 24  1  0  0  0  0
 23 78  1  0  0  0  0
 23 79  1  0  0  0  0
 24 80  1  0  0  0  0
 24 81  1  0  0  0  0
 25 82  1  0  0  0  0
 25 83  1  0  0  0  0
 26 84  1  0  0  0  0
 26 85  1  0  0  0  0
 27 33  1  0  0  0  0
 27 38  1  0  0  0  0
 27 86  1  0  0  0  0
 28 35  1  0  0  0  0
 28 39  1  0  0  0  0
 28 40  1  0  0  0  0
 29 37  1  0  0  0  0
 29 87  1  0  0  0  0
 29 88  1  0  0  0  0
 30 33  1  0  0  0  0
 30 89  1  0  0  0  0
 30 90  1  0  0  0  0
 31 91  1  0  0  0  0
 31 92  1  0  0  0  0
 31 93  1  0  0  0  0
 32 94  1  0  0  0  0
 32 95  1  0  0  0  0
 32 96  1  0  0  0  0
 33 97  1  0  0  0  0
 33 98  1  0  0  0  0
 34 99  1  0  0  0  0
 34100  1  0  0  0  0
 34101  1  0  0  0  0
 35 37  1  0  0  0  0
 35102  1  0  0  0  0
 36103  1  0  0  0  0
 36104  1  0  0  0  0
 37105  1  0  0  0  0
 37106  1  0  0  0  0
 38 41  1  0  0  0  0
 38 42  2  0  0  0  0
 39107  1  0  0  0  0
 39108  1  0  0  0  0
 39109  1  0  0  0  0
 40110  1  0  0  0  0
 40111  1  0  0  0  0
 40112  1  0  0  0  0
 41113  1  0  0  0  0
 41114  1  0  0  0  0
 42115  1  0  0  0  0
 42116  1  0  0  0  0
 43 45  1  0  0  0  0
 44 46  1  0  0  0  0
 45 47  1  0  0  0  0
 45117  1  0  0  0  0
 45118  1  0  0  0  0
 46 48  1  0  0  0  0
 46119  1  0  0  0  0
 46120  1  0  0  0  0
 47 50  1  0  0  0  0
 47 51  1  0  0  0  0
 47 54  1  0  0  0  0
 48 52  1  0  0  0  0
 48 53  1  0  0  0  0
 48 55  1  0  0  0  0
 49 56  1  0  0  0  0
 50 57  1  0  0  0  0
 50121  1  0  0  0  0
 50122  1  0  0  0  0
 51 58  1  0  0  0  0
 51123  1  0  0  0  0
 51124  1  0  0  0  0
 52 59  1  0  0  0  0
 52125  1  0  0  0  0
 52126  1  0  0  0  0
 53 60  1  0  0  0  0
 53127  1  0  0  0  0
 53128  1  0  0  0  0
 54 62  1  0  0  0  0
 54129  1  0  0  0  0
 54130  1  0  0  0  0
 55 63  1  0  0  0  0
 55131  1  0  0  0  0
 55132  1  0  0  0  0
 56 61  1  0  0  0  0
 56133  1  0  0  0  0
 56134  1  0  0  0  0
 57 58  1  0  0  0  0
 57135  1  0  0  0  0
 57136  1  0  0  0  0
 58137  1  0  0  0  0
 58138  1  0  0  0  0
 59 60  1  0  0  0  0
 59139  1  0  0  0  0
 59140  1  0  0  0  0
 60141  1  0  0  0  0
 60142  1  0  0  0  0
 61 64  1  0  0  0  0
 61 65  1  0  0  0  0
 61 66  1  0  0  0  0
 64 67  1  0  0  0  0
 64143  1  0  0  0  0
 64144  1  0  0  0  0
 65 68  1  0  0  0  0
 65145  1  0  0  0  0
 65146  1  0  0  0  0
 66 69  1  0  0  0  0
 66147  1  0  0  0  0
 66148  1  0  0  0  0
 67 68  1  0  0  0  0
 67149  1  0  0  0  0
 67150  1  0  0  0  0
 68151  1  0  0  0  0
 68152  1  0  0  0  0
M  END
> <PUBCHEM_COMPOUND_CID>
500422
> <PUBCHEM_COMPOUND_CANONICALIZED>
1
> <PUBCHEM_CACTVS_COMPLEXITY>
2000
> <PUBCHEM_CACTVS_HBOND_ACCEPTOR>
12
> <PUBCHEM_CACTVS_HBOND_DONOR>
3
> <PUBCHEM_CACTVS_ROTATABLE_BOND>
21
> <PUBCHEM_CACTVS_SUBSKEYS>
AAADcfB8PAAAAAAAAAAAAAAAAAAAAYMGDAAwYMGAAAAAAGDAAAAAGgAACAAADxSggAICCAAABgCIAgDSCAAAAAAgAAAAAAEAAAgABBIAIQACQAAEgAAAIAGI7viPgAAAAAAAAADAAAYAADAAAQAACAAAAA==
> <PUBCHEM_IUPAC_OPENEYE_NAME>
2-[1-[2-[2-[9-[2-[1-(carboxymethyl)cyclopentyl]acetyl]oxy-3a-[[2-[1-(carboxymethyl)cyclopentyl]acetyl]oxymethyl]-5a,5b,8,8,11a-pentamethyl-1,2,3,4,5,6,7,7a,9,10,11,11b,12,13,13a,13b-hexadecahydrocyclopenta[a]chrysen-1-yl]allyloxy]-2-oxo-ethyl]cyclopentyl]acetic acid
> <PUBCHEM_IUPAC_CAS_NAME>
2-[1-[2-[2-[9-[2-[1-(carboxymethyl)cyclopentyl]-1-oxoethoxy]-3a-[[2-[1-(carboxymethyl)cyclopentyl]-1-oxoethoxy]methyl]-5a,5b,8,8,11a-pentamethyl-1,2,3,4,5,6,7,7a,9,10,11,11b,12,13,13a,13b-hexadecahydrocyclopenta[a]chrysen-1-yl]prop-2-enoxy]-2-oxoethyl]cyclopentyl]acetic acid
> <PUBCHEM_IUPAC_NAME_MARKUP>
2-[1-[2-[2-[9-[2-[1-(carboxymethyl)cyclopentyl]acetyl]oxy-3<I>a</I>-[[2-[1-(carboxymethyl)cyclopentyl]acetyl]oxymethyl]-5<I>a</I>,5<I>b</I>,8,8,11<I>a</I>-pentamethyl-1,2,3,4,5,6,7,7<I>a</I>,9,10,11,11<I>b</I>,12,13,13<I>a</I>,13<I>b</I>-hexadecahydrocyclopenta[a]chrysen-1-yl]prop-2-enoxy]-2-oxoethyl]cyclopentyl]acetic acid
> <PUBCHEM_IUPAC_NAME>
2-[1-[2-[2-[9-[2-[1-(carboxymethyl)cyclopentyl]acetyl]oxy-3a-[[2-[1-(carboxymethyl)cyclopentyl]acetyl]oxymethyl]-5a,5b,8,8,11a-pentamethyl-1,2,3,4,5,6,7,7a,9,10,11,11b,12,13,13a,13b-hexadecahydrocyclopenta[a]chrysen-1-yl]prop-2-enoxy]-2-oxoethyl]cyclopentyl]acetic acid
> <PUBCHEM_IUPAC_SYSTEMATIC_NAME>
2-[1-[2-[2-[9-[2-[1-(2-hydroxy-2-oxoethyl)cyclopentyl]ethanoyloxy]-3a-[2-[1-(2-hydroxy-2-oxoethyl)cyclopentyl]ethanoyloxymethyl]-5a,5b,8,8,11a-pentamethyl-1,2,3,4,5,6,7,7a,9,10,11,11b,12,13,13a,13b-hexadecahydrocyclopenta[a]chrysen-1-yl]prop-2-enoxy]-2-oxidanylidene-ethyl]cyclopentyl]ethanoic acid
> <PUBCHEM_IUPAC_TRADITIONAL_NAME>
2-[1-[2-[2-[9-[2-[1-(carboxymethyl)cyclopentyl]acetyl]oxy-3a-[[2-[1-(carboxymethyl)cyclopentyl]acetyl]oxymethyl]-5a,5b,8,8,11a-pentamethyl-1,2,3,4,5,6,7,7a,9,10,11,11b,12,13,13a,13b-hexadecahydrocyclopenta[a]chrysen-1-yl]allyloxy]-2-keto-ethyl]cyclopentyl]acetic acid
> <PUBCHEM_IUPAC_INCHI>
InChI=1S/C57H86O12/c1-37(35-67-46(64)32-54(29-43(58)59)18-7-8-19-54)38-15-26-57(36-68-47(65)33-55(30-44(60)61)20-9-10-21-55)28-27-52(5)39(49(38)57)13-14-41-51(4)24-17-42(50(2,3)40(51)16-25-53(41,52)6)69-48(66)34-56(31-45(62)63)22-11-12-23-56/h38-42,49H,1,7-36H2,2-6H3,(H,58,59)(H,60,61)(H,62,63)
> <PUBCHEM_IUPAC_INCHIKEY>
ANHLKURSPHFUIL-UHFFFAOYSA-N
> <PUBCHEM_XLOGP3_AA>
13.2
> <PUBCHEM_EXACT_MASS>
962.61192817
> <PUBCHEM_MOLECULAR_FORMULA>
C57H86O12
> <PUBCHEM_MOLECULAR_WEIGHT>
963.3
> <PUBCHEM_OPENEYE_CAN_SMILES>
CC1(C2CCC3(C(C2(CCC1OC(=O)CC4(CCCC4)CC(=O)O)C)CCC5C3(CCC6(C5C(CC6)C(=C)COC(=O)CC7(CCCC7)CC(=O)O)COC(=O)CC8(CCCC8)CC(=O)O)C)C)C
> <PUBCHEM_OPENEYE_ISO_SMILES>
CC1(C2CCC3(C(C2(CCC1OC(=O)CC4(CCCC4)CC(=O)O)C)CCC5C3(CCC6(C5C(CC6)C(=C)COC(=O)CC7(CCCC7)CC(=O)O)COC(=O)CC8(CCCC8)CC(=O)O)C)C)C
> <PUBCHEM_CACTVS_TPSA>
191
> <PUBCHEM_MONOISOTOPIC_WEIGHT>
962.61192817
> <PUBCHEM_TOTAL_CHARGE>
0
> <PUBCHEM_HEAVY_ATOM_COUNT>
69
> <PUBCHEM_ATOM_DEF_STEREO_COUNT>
0
> <PUBCHEM_ATOM_UDEF_STEREO_COUNT>
10
> <PUBCHEM_BOND_DEF_STEREO_COUNT>
0
> <PUBCHEM_BOND_UDEF_STEREO_COUNT>
0
> <PUBCHEM_ISOTOPIC_ATOM_COUNT>
0
> <PUBCHEM_COMPONENT_COUNT>
1
> <PUBCHEM_CACTVS_TAUTO_COUNT>
-1
> <PUBCHEM_COORDINATE_TYPE>
1
5
255
> <PUBCHEM_BONDANNOTATIONS>
35  1  3
13  31  3
14  32  3
15  23  3
16  24  3
17  34  3
18  27  3
19  36  3
20  26  3
27  38  3
$$$$
