500409
  -OEChem-10302200282D
 45 47  0     1  0  0  0  0  0999 V2000
    7.1979   -2.6286    0.0000 O   0  0  0  0  0  0  0  0  0  0  0  0
    8.0518    1.9407    0.0000 O   0  0  0  0  0  0  0  0  0  0  0  0
    6.3198    2.9407    0.0000 O   0  0  0  0  0  0  0  0  0  0  0  0
    5.4266   -1.5636    0.0000 C   0  0  3  0  0  0  0  0  0  0  0  0
    4.5943   -0.0541    0.0000 C   0  0  3  0  0  0  0  0  0  0  0  0
    4.5809   -1.0457    0.0000 C   0  0  0  0  0  0  0  0  0  0  0  0
    5.4538    0.4407    0.0000 C   0  0  0  0  0  0  0  0  0  0  0  0
    6.3037   -1.1009    0.0000 C   0  0  0  0  0  0  0  0  0  0  0  0
    6.3198   -0.0593    0.0000 C   0  0  0  0  0  0  0  0  0  0  0  0
    7.1858    0.4407    0.0000 C   0  0  0  0  0  0  0  0  0  0  0  0
    5.4538    1.4407    0.0000 C   0  0  0  0  0  0  0  0  0  0  0  0
    5.3946   -2.5631    0.0000 C   0  0  0  0  0  0  0  0  0  0  0  0
    3.7320    0.4523    0.0000 C   0  0  0  0  0  0  0  0  0  0  0  0
    7.2018   -1.6286    0.0000 C   0  0  0  0  0  0  0  0  0  0  0  0
    8.0958   -0.0662    0.0000 C   0  0  0  0  0  0  0  0  0  0  0  0
    7.1858    1.4407    0.0000 C   0  0  0  0  0  0  0  0  0  0  0  0
    6.3198    1.9407    0.0000 C   0  0  0  0  0  0  0  0  0  0  0  0
    8.1038   -1.1078    0.0000 C   0  0  0  0  0  0  0  0  0  0  0  0
    4.5877    1.9407    0.0000 C   0  0  0  0  0  0  0  0  0  0  0  0
    2.8623   -0.0413    0.0000 C   0  0  0  0  0  0  0  0  0  0  0  0
    8.9560    0.4438    0.0000 C   0  0  0  0  0  0  0  0  0  0  0  0
    2.0000    0.4651    0.0000 C   0  0  0  0  0  0  0  0  0  0  0  0
    2.8549   -1.0413    0.0000 C   0  0  0  0  0  0  0  0  0  0  0  0
    4.8809   -1.8580    0.0000 H   0  0  0  0  0  0  0  0  0  0  0  0
    4.0542   -0.3585    0.0000 H   0  0  0  0  0  0  0  0  0  0  0  0
    3.9723   -0.9273    0.0000 H   0  0  0  0  0  0  0  0  0  0  0  0
    4.3562   -1.6236    0.0000 H   0  0  0  0  0  0  0  0  0  0  0  0
    4.7750   -2.5433    0.0000 H   0  0  0  0  0  0  0  0  0  0  0  0
    5.3748   -3.1828    0.0000 H   0  0  0  0  0  0  0  0  0  0  0  0
    6.0143   -2.5829    0.0000 H   0  0  0  0  0  0  0  0  0  0  0  0
    3.7366    1.0723    0.0000 H   0  0  0  0  0  0  0  0  0  0  0  0
    8.6420   -1.4157    0.0000 H   0  0  0  0  0  0  0  0  0  0  0  0
    4.8977    2.4776    0.0000 H   0  0  0  0  0  0  0  0  0  0  0  0
    4.0508    2.2507    0.0000 H   0  0  0  0  0  0  0  0  0  0  0  0
    4.2777    1.4037    0.0000 H   0  0  0  0  0  0  0  0  0  0  0  0
    9.2722   -0.0895    0.0000 H   0  0  0  0  0  0  0  0  0  0  0  0
    9.4893    0.7600    0.0000 H   0  0  0  0  0  0  0  0  0  0  0  0
    8.6398    0.9771    0.0000 H   0  0  0  0  0  0  0  0  0  0  0  0
    7.7336   -2.9407    0.0000 H   0  0  0  0  0  0  0  0  0  0  0  0
    2.3140    0.9997    0.0000 H   0  0  0  0  0  0  0  0  0  0  0  0
    1.4654    0.7791    0.0000 H   0  0  0  0  0  0  0  0  0  0  0  0
    1.6860   -0.0695    0.0000 H   0  0  0  0  0  0  0  0  0  0  0  0
    2.2349   -1.0367    0.0000 H   0  0  0  0  0  0  0  0  0  0  0  0
    2.8503   -1.6612    0.0000 H   0  0  0  0  0  0  0  0  0  0  0  0
    3.4749   -1.0459    0.0000 H   0  0  0  0  0  0  0  0  0  0  0  0
  1 14  1  0  0  0  0
  1 39  1  0  0  0  0
  2 16  2  0  0  0  0
  3 17  2  0  0  0  0
  4  6  1  0  0  0  0
  4  8  1  0  0  0  0
  4 12  1  0  0  0  0
  4 24  1  0  0  0  0
  5  6  1  0  0  0  0
  5  7  1  0  0  0  0
  5 13  1  0  0  0  0
  5 25  1  0  0  0  0
  6 26  1  0  0  0  0
  6 27  1  0  0  0  0
  7  9  1  0  0  0  0
  7 11  2  0  0  0  0
  8  9  1  0  0  0  0
  8 14  2  0  0  0  0
  9 10  2  0  0  0  0
 10 15  1  0  0  0  0
 10 16  1  0  0  0  0
 11 17  1  0  0  0  0
 11 19  1  0  0  0  0
 12 28  1  0  0  0  0
 12 29  1  0  0  0  0
 12 30  1  0  0  0  0
 13 20  2  0  0  0  0
 13 31  1  0  0  0  0
 14 18  1  0  0  0  0
 15 18  2  0  0  0  0
 15 21  1  0  0  0  0
 16 17  1  0  0  0  0
 18 32  1  0  0  0  0
 19 33  1  0  0  0  0
 19 34  1  0  0  0  0
 19 35  1  0  0  0  0
 20 22  1  0  0  0  0
 20 23  1  0  0  0  0
 21 36  1  0  0  0  0
 21 37  1  0  0  0  0
 21 38  1  0  0  0  0
 22 40  1  0  0  0  0
 22 41  1  0  0  0  0
 22 42  1  0  0  0  0
 23 43  1  0  0  0  0
 23 44  1  0  0  0  0
 23 45  1  0  0  0  0
M  END
> <PUBCHEM_COMPOUND_CID>
500409
> <PUBCHEM_COMPOUND_CANONICALIZED>
1
> <PUBCHEM_CACTVS_COMPLEXITY>
608
> <PUBCHEM_CACTVS_HBOND_ACCEPTOR>
3
> <PUBCHEM_CACTVS_HBOND_DONOR>
1
> <PUBCHEM_CACTVS_ROTATABLE_BOND>
1
> <PUBCHEM_CACTVS_SUBSKEYS>
AAADceB4MAAAAAAAAAAAAAAAAAAAAAAAAAAwYIAAAAAAAADBAAAAGgAACAAADQSAmAAyBoAAAgCIAqBSAAACAAAkIAAAiAEGCMgIJjKCFRKAcQAkwBEImQeIzPDO4AADAAAYAADAAAYAADAAAAAAAAAAAA==
> <PUBCHEM_IUPAC_OPENEYE_NAME>
7-hydroxy-3,6,9-trimethyl-4-(2-methylprop-1-enyl)-5,6-dihydro-4H-phenalene-1,2-dione
> <PUBCHEM_IUPAC_CAS_NAME>
7-hydroxy-3,6,9-trimethyl-4-(2-methylprop-1-enyl)-5,6-dihydro-4H-phenalene-1,2-dione
> <PUBCHEM_IUPAC_NAME_MARKUP>
7-hydroxy-3,6,9-trimethyl-4-(2-methylprop-1-enyl)-5,6-dihydro-4<I>H</I>-phenalene-1,2-dione
> <PUBCHEM_IUPAC_NAME>
7-hydroxy-3,6,9-trimethyl-4-(2-methylprop-1-enyl)-5,6-dihydro-4H-phenalene-1,2-dione
> <PUBCHEM_IUPAC_SYSTEMATIC_NAME>
3,6,9-trimethyl-4-(2-methylprop-1-enyl)-7-oxidanyl-5,6-dihydro-4H-phenalene-1,2-dione
> <PUBCHEM_IUPAC_TRADITIONAL_NAME>
7-hydroxy-3,6,9-trimethyl-4-(2-methylprop-1-enyl)-5,6-dihydro-4H-phenalene-1,2-quinone
> <PUBCHEM_IUPAC_INCHI>
InChI=1S/C20H22O3/c1-9(2)6-13-7-10(3)15-14(21)8-11(4)16-18(15)17(13)12(5)19(22)20(16)23/h6,8,10,13,21H,7H2,1-5H3
> <PUBCHEM_IUPAC_INCHIKEY>
JVQJPMIBFYBOEO-UHFFFAOYSA-N
> <PUBCHEM_XLOGP3_AA>
4
> <PUBCHEM_EXACT_MASS>
310.15689456
> <PUBCHEM_MOLECULAR_FORMULA>
C20H22O3
> <PUBCHEM_MOLECULAR_WEIGHT>
310.4
> <PUBCHEM_OPENEYE_CAN_SMILES>
CC1CC(C2=C(C(=O)C(=O)C3=C2C1=C(C=C3C)O)C)C=C(C)C
> <PUBCHEM_OPENEYE_ISO_SMILES>
CC1CC(C2=C(C(=O)C(=O)C3=C2C1=C(C=C3C)O)C)C=C(C)C
> <PUBCHEM_CACTVS_TPSA>
54.4
> <PUBCHEM_MONOISOTOPIC_WEIGHT>
310.15689456
> <PUBCHEM_TOTAL_CHARGE>
0
> <PUBCHEM_HEAVY_ATOM_COUNT>
23
> <PUBCHEM_ATOM_DEF_STEREO_COUNT>
0
> <PUBCHEM_ATOM_UDEF_STEREO_COUNT>
2
> <PUBCHEM_BOND_DEF_STEREO_COUNT>
0
> <PUBCHEM_BOND_UDEF_STEREO_COUNT>
0
> <PUBCHEM_ISOTOPIC_ATOM_COUNT>
0
> <PUBCHEM_COMPONENT_COUNT>
1
> <PUBCHEM_CACTVS_TAUTO_COUNT>
-1
> <PUBCHEM_COORDINATE_TYPE>
1
5
255
> <PUBCHEM_BONDANNOTATIONS>
10  15  8
14  18  8
15  18  8
4  12  3
5  13  3
8  14  8
8  9  8
9  10  8
$$$$
