500414
  -OEChem-10302200282D
118122  0     1  0  0  0  0  0999 V2000
   16.6569    0.3969    0.0000 O   0  0  0  0  0  0  0  0  0  0  0  0
    7.7318   -2.6896    0.0000 O   0  0  0  0  0  0  0  0  0  0  0  0
   17.5345   -1.0964    0.0000 O   0  0  0  0  0  0  0  0  0  0  0  0
    6.8716   -1.1862    0.0000 O   0  0  0  0  0  0  0  0  0  0  0  0
   21.8529    0.4370    0.0000 O   0  0  0  0  0  0  0  0  0  0  0  0
    2.5357   -2.6696    0.0000 O   0  0  0  0  0  0  0  0  0  0  0  0
   20.9985   -1.0696    0.0000 O   0  0  0  0  0  0  0  0  0  0  0  0
    3.4075   -1.1729    0.0000 O   0  0  0  0  0  0  0  0  0  0  0  0
   13.1249   -0.6372    0.0000 C   0  0  3  0  0  0  0  0  0  0  0  0
   12.2589   -1.1372    0.0000 C   0  0  3  0  0  0  0  0  0  0  0  0
   13.1249    0.3628    0.0000 C   0  0  3  0  0  0  0  0  0  0  0  0
   11.3929   -0.6372    0.0000 C   0  0  3  0  0  0  0  0  0  0  0  0
   14.0189    0.8974    0.0000 C   0  0  3  0  0  0  0  0  0  0  0  0
   10.4829   -1.1441    0.0000 C   0  0  3  0  0  0  0  0  0  0  0  0
   14.9249    0.3836    0.0000 C   0  0  3  0  0  0  0  0  0  0  0  0
   10.4749   -2.1857    0.0000 C   0  0  3  0  0  0  0  0  0  0  0  0
   14.0189   -1.1719    0.0000 C   0  0  0  0  0  0  0  0  0  0  0  0
   12.2589    0.8628    0.0000 C   0  0  0  0  0  0  0  0  0  0  0  0
   11.3929    0.3628    0.0000 C   0  0  0  0  0  0  0  0  0  0  0  0
   12.2750   -2.1788    0.0000 C   0  0  0  0  0  0  0  0  0  0  0  0
   14.2290    1.9113    0.0000 C   0  0  3  0  0  0  0  0  0  0  0  0
   14.9249   -0.6581    0.0000 C   0  0  0  0  0  0  0  0  0  0  0  0
   11.3769   -2.7065    0.0000 C   0  0  0  0  0  0  0  0  0  0  0  0
   15.6873    1.0843    0.0000 C   0  0  0  0  0  0  0  0  0  0  0  0
    9.5394   -2.7354    0.0000 C   0  0  0  0  0  0  0  0  0  0  0  0
   13.4670   -1.5769    0.0000 C   0  0  0  0  0  0  0  0  0  0  0  0
    9.5561   -0.5800    0.0000 C   0  0  0  0  0  0  0  0  0  0  0  0
   12.9017   -1.9033    0.0000 C   0  0  0  0  0  0  0  0  0  0  0  0
   15.2580    2.0266    0.0000 C   0  0  0  0  0  0  0  0  0  0  0  0
   10.4906   -0.1441    0.0000 C   0  0  0  0  0  0  0  0  0  0  0  0
   15.7948   -0.1097    0.0000 C   0  0  0  0  0  0  0  0  0  0  0  0
    8.5998   -2.1929    0.0000 C   0  0  3  0  0  0  0  0  0  0  0  0
    8.6082   -1.1080    0.0000 C   0  0  0  0  0  0  0  0  0  0  0  0
   13.5554    2.6505    0.0000 C   0  0  0  0  0  0  0  0  0  0  0  0
    9.0428   -3.6034    0.0000 C   0  0  0  0  0  0  0  0  0  0  0  0
   10.0428   -3.5995    0.0000 C   0  0  0  0  0  0  0  0  0  0  0  0
   13.8587    3.6034    0.0000 C   0  0  0  0  0  0  0  0  0  0  0  0
   12.5785    2.4367    0.0000 C   0  0  0  0  0  0  0  0  0  0  0  0
   17.5268   -0.0964    0.0000 C   0  0  0  0  0  0  0  0  0  0  0  0
    6.8678   -2.1862    0.0000 C   0  0  0  0  0  0  0  0  0  0  0  0
   18.3889    0.4103    0.0000 C   0  0  0  0  0  0  0  0  0  0  0  0
    5.9998   -2.6829    0.0000 C   0  0  0  0  0  0  0  0  0  0  0  0
   19.2588   -0.0830    0.0000 C   0  0  3  0  0  0  0  0  0  0  0  0
    5.1357   -2.1796    0.0000 C   0  0  3  0  0  0  0  0  0  0  0  0
   20.1209    0.4236    0.0000 C   0  0  0  0  0  0  0  0  0  0  0  0
    4.2678   -2.6762    0.0000 C   0  0  0  0  0  0  0  0  0  0  0  0
   19.2665   -1.0830    0.0000 C   0  0  0  0  0  0  0  0  0  0  0  0
    5.1396   -1.1796    0.0000 C   0  0  0  0  0  0  0  0  0  0  0  0
   20.9908   -0.0697    0.0000 C   0  0  0  0  0  0  0  0  0  0  0  0
    3.4037   -2.1729    0.0000 C   0  0  0  0  0  0  0  0  0  0  0  0
   13.1202    0.9827    0.0000 H   0  0  0  0  0  0  0  0  0  0  0  0
   11.9298   -0.3272    0.0000 H   0  0  0  0  0  0  0  0  0  0  0  0
   13.5136    1.2567    0.0000 H   0  0  0  0  0  0  0  0  0  0  0  0
   10.4772   -2.8057    0.0000 H   0  0  0  0  0  0  0  0  0  0  0  0
   13.6143   -1.6417    0.0000 H   0  0  0  0  0  0  0  0  0  0  0  0
   14.4125   -1.6509    0.0000 H   0  0  0  0  0  0  0  0  0  0  0  0
   12.6574    1.3377    0.0000 H   0  0  0  0  0  0  0  0  0  0  0  0
   11.8604    1.3377    0.0000 H   0  0  0  0  0  0  0  0  0  0  0  0
   11.1808    0.9454    0.0000 H   0  0  0  0  0  0  0  0  0  0  0  0
   10.7823    0.2551    0.0000 H   0  0  0  0  0  0  0  0  0  0  0  0
   12.4930   -2.7592    0.0000 H   0  0  0  0  0  0  0  0  0  0  0  0
   12.8841   -2.0632    0.0000 H   0  0  0  0  0  0  0  0  0  0  0  0
   14.6466    1.4531    0.0000 H   0  0  0  0  0  0  0  0  0  0  0  0
   15.1340   -1.2418    0.0000 H   0  0  0  0  0  0  0  0  0  0  0  0
   15.5358   -0.5520    0.0000 H   0  0  0  0  0  0  0  0  0  0  0  0
   10.9796   -3.1825    0.0000 H   0  0  0  0  0  0  0  0  0  0  0  0
   11.7779   -3.1794    0.0000 H   0  0  0  0  0  0  0  0  0  0  0  0
   16.0566    0.5863    0.0000 H   0  0  0  0  0  0  0  0  0  0  0  0
   16.2213    1.3992    0.0000 H   0  0  0  0  0  0  0  0  0  0  0  0
   12.8845   -1.7890    0.0000 H   0  0  0  0  0  0  0  0  0  0  0  0
   13.6792   -2.1595    0.0000 H   0  0  0  0  0  0  0  0  0  0  0  0
   14.0496   -1.3648    0.0000 H   0  0  0  0  0  0  0  0  0  0  0  0
    9.9642   -0.1134    0.0000 H   0  0  0  0  0  0  0  0  0  0  0  0
    9.1661   -0.0980    0.0000 H   0  0  0  0  0  0  0  0  0  0  0  0
   12.4268   -2.3018    0.0000 H   0  0  0  0  0  0  0  0  0  0  0  0
   13.3002   -2.3782    0.0000 H   0  0  0  0  0  0  0  0  0  0  0  0
   13.3766   -1.5048    0.0000 H   0  0  0  0  0  0  0  0  0  0  0  0
   15.8461    2.2229    0.0000 H   0  0  0  0  0  0  0  0  0  0  0  0
   15.1246    2.6321    0.0000 H   0  0  0  0  0  0  0  0  0  0  0  0
   11.1106   -0.1489    0.0000 H   0  0  0  0  0  0  0  0  0  0  0  0
   10.4954    0.4759    0.0000 H   0  0  0  0  0  0  0  0  0  0  0  0
    9.8706   -0.1393    0.0000 H   0  0  0  0  0  0  0  0  0  0  0  0
   15.3999   -0.5877    0.0000 H   0  0  0  0  0  0  0  0  0  0  0  0
   16.1970   -0.5816    0.0000 H   0  0  0  0  0  0  0  0  0  0  0  0
    8.5986   -2.8129    0.0000 H   0  0  0  0  0  0  0  0  0  0  0  0
    8.4036   -0.5227    0.0000 H   0  0  0  0  0  0  0  0  0  0  0  0
    7.9965   -1.2093    0.0000 H   0  0  0  0  0  0  0  0  0  0  0  0
   14.1611    2.7830    0.0000 H   0  0  0  0  0  0  0  0  0  0  0  0
    8.5046   -3.2954    0.0000 H   0  0  0  0  0  0  0  0  0  0  0  0
    8.7348   -4.1415    0.0000 H   0  0  0  0  0  0  0  0  0  0  0  0
    9.5809   -3.9113    0.0000 H   0  0  0  0  0  0  0  0  0  0  0  0
    9.5070   -3.9116    0.0000 H   0  0  0  0  0  0  0  0  0  0  0  0
   10.3548   -4.1352    0.0000 H   0  0  0  0  0  0  0  0  0  0  0  0
   10.5785   -3.2874    0.0000 H   0  0  0  0  0  0  0  0  0  0  0  0
   14.4495    3.4153    0.0000 H   0  0  0  0  0  0  0  0  0  0  0  0
   14.0468    4.1941    0.0000 H   0  0  0  0  0  0  0  0  0  0  0  0
   13.2680    3.7914    0.0000 H   0  0  0  0  0  0  0  0  0  0  0  0
   12.4460    3.0424    0.0000 H   0  0  0  0  0  0  0  0  0  0  0  0
   11.9729    2.3042    0.0000 H   0  0  0  0  0  0  0  0  0  0  0  0
   12.7111    1.8310    0.0000 H   0  0  0  0  0  0  0  0  0  0  0  0
   18.7838    0.8883    0.0000 H   0  0  0  0  0  0  0  0  0  0  0  0
   17.9868    0.8821    0.0000 H   0  0  0  0  0  0  0  0  0  0  0  0
    5.5995   -3.1563    0.0000 H   0  0  0  0  0  0  0  0  0  0  0  0
    6.3965   -3.1594    0.0000 H   0  0  0  0  0  0  0  0  0  0  0  0
   18.7243   -0.3972    0.0000 H   0  0  0  0  0  0  0  0  0  0  0  0
    5.6738   -1.8716    0.0000 H   0  0  0  0  0  0  0  0  0  0  0  0
   20.5158    0.9016    0.0000 H   0  0  0  0  0  0  0  0  0  0  0  0
   19.7188    0.8955    0.0000 H   0  0  0  0  0  0  0  0  0  0  0  0
    3.8674   -3.1496    0.0000 H   0  0  0  0  0  0  0  0  0  0  0  0
    4.6645   -3.1527    0.0000 H   0  0  0  0  0  0  0  0  0  0  0  0
   18.6465   -1.0878    0.0000 H   0  0  0  0  0  0  0  0  0  0  0  0
   19.2713   -1.7030    0.0000 H   0  0  0  0  0  0  0  0  0  0  0  0
   19.8865   -1.0782    0.0000 H   0  0  0  0  0  0  0  0  0  0  0  0
    5.7596   -1.1820    0.0000 H   0  0  0  0  0  0  0  0  0  0  0  0
    5.1420   -0.5596    0.0000 H   0  0  0  0  0  0  0  0  0  0  0  0
    4.5196   -1.1772    0.0000 H   0  0  0  0  0  0  0  0  0  0  0  0
   22.3923    0.1311    0.0000 H   0  0  0  0  0  0  0  0  0  0  0  0
    2.0000   -2.3575    0.0000 H   0  0  0  0  0  0  0  0  0  0  0  0
  1 31  1  0  0  0  0
  1 39  1  0  0  0  0
  2 32  1  0  0  0  0
  2 40  1  0  0  0  0
  3 39  2  0  0  0  0
  4 40  2  0  0  0  0
  5 49  1  0  0  0  0
  5117  1  0  0  0  0
  6 50  1  0  0  0  0
  6118  1  0  0  0  0
  7 49  2  0  0  0  0
  8 50  2  0  0  0  0
  9 10  1  0  0  0  0
  9 11  1  0  0  0  0
  9 17  1  0  0  0  0
  9 26  1  0  0  0  0
 10 12  1  0  0  0  0
 10 20  1  0  0  0  0
 10 28  1  0  0  0  0
 11 13  1  0  0  0  0
 11 18  1  0  0  0  0
 11 51  1  0  0  0  0
 12 14  1  0  0  0  0
 12 19  1  0  0  0  0
 12 52  1  0  0  0  0
 13 15  1  0  0  0  0
 13 21  1  0  0  0  0
 13 53  1  0  0  0  0
 14 16  1  0  0  0  0
 14 27  1  0  0  0  0
 14 30  1  0  0  0  0
 15 22  1  0  0  0  0
 15 24  1  0  0  0  0
 15 31  1  0  0  0  0
 16 23  1  0  0  0  0
 16 25  1  0  0  0  0
 16 54  1  0  0  0  0
 17 22  1  0  0  0  0
 17 55  1  0  0  0  0
 17 56  1  0  0  0  0
 18 19  1  0  0  0  0
 18 57  1  0  0  0  0
 18 58  1  0  0  0  0
 19 59  1  0  0  0  0
 19 60  1  0  0  0  0
 20 23  1  0  0  0  0
 20 61  1  0  0  0  0
 20 62  1  0  0  0  0
 21 29  1  0  0  0  0
 21 34  1  0  0  0  0
 21 63  1  0  0  0  0
 22 64  1  0  0  0  0
 22 65  1  0  0  0  0
 23 66  1  0  0  0  0
 23 67  1  0  0  0  0
 24 29  1  0  0  0  0
 24 68  1  0  0  0  0
 24 69  1  0  0  0  0
 25 32  1  0  0  0  0
 25 35  1  0  0  0  0
 25 36  1  0  0  0  0
 26 70  1  0  0  0  0
 26 71  1  0  0  0  0
 26 72  1  0  0  0  0
 27 33  1  0  0  0  0
 27 73  1  0  0  0  0
 27 74  1  0  0  0  0
 28 75  1  0  0  0  0
 28 76  1  0  0  0  0
 28 77  1  0  0  0  0
 29 78  1  0  0  0  0
 29 79  1  0  0  0  0
 30 80  1  0  0  0  0
 30 81  1  0  0  0  0
 30 82  1  0  0  0  0
 31 83  1  0  0  0  0
 31 84  1  0  0  0  0
 32 33  1  0  0  0  0
 32 85  1  0  0  0  0
 33 86  1  0  0  0  0
 33 87  1  0  0  0  0
 34 37  1  0  0  0  0
 34 38  1  0  0  0  0
 34 88  1  0  0  0  0
 35 89  1  0  0  0  0
 35 90  1  0  0  0  0
 35 91  1  0  0  0  0
 36 92  1  0  0  0  0
 36 93  1  0  0  0  0
 36 94  1  0  0  0  0
 37 95  1  0  0  0  0
 37 96  1  0  0  0  0
 37 97  1  0  0  0  0
 38 98  1  0  0  0  0
 38 99  1  0  0  0  0
 38100  1  0  0  0  0
 39 41  1  0  0  0  0
 40 42  1  0  0  0  0
 41 43  1  0  0  0  0
 41101  1  0  0  0  0
 41102  1  0  0  0  0
 42 44  1  0  0  0  0
 42103  1  0  0  0  0
 42104  1  0  0  0  0
 43 45  1  0  0  0  0
 43 47  1  0  0  0  0
 43105  1  0  0  0  0
 44 46  1  0  0  0  0
 44 48  1  0  0  0  0
 44106  1  0  0  0  0
 45 49  1  0  0  0  0
 45107  1  0  0  0  0
 45108  1  0  0  0  0
 46 50  1  0  0  0  0
 46109  1  0  0  0  0
 46110  1  0  0  0  0
 47111  1  0  0  0  0
 47112  1  0  0  0  0
 47113  1  0  0  0  0
 48114  1  0  0  0  0
 48115  1  0  0  0  0
 48116  1  0  0  0  0
M  END
> <PUBCHEM_COMPOUND_CID>
500414
> <PUBCHEM_COMPOUND_CANONICALIZED>
1
> <PUBCHEM_CACTVS_COMPLEXITY>
1310
> <PUBCHEM_CACTVS_HBOND_ACCEPTOR>
8
> <PUBCHEM_CACTVS_HBOND_DONOR>
2
> <PUBCHEM_CACTVS_ROTATABLE_BOND>
14
> <PUBCHEM_CACTVS_SUBSKEYS>
AAADcfB8PAAAAAAAAAAAAAAAAAAAAYAAAAAwYMGAAAAAAGDAAAAAGgAACAAADxSggAICCAAABgAIAACQCAAAAAAAAAAAAAEAAAAAABIAAAACQAAEAAAAAAGI5vgPgAAAAAAAAADAAAYAADAAAQAACAAAAA==
> <PUBCHEM_IUPAC_OPENEYE_NAME>
5-[[9-(4-carboxy-3-methyl-butanoyl)oxy-1-isopropyl-5a,5b,8,8,11a-pentamethyl-1,2,3,4,5,6,7,7a,9,10,11,11b,12,13,13a,13b-hexadecahydrocyclopenta[a]chrysen-3a-yl]methoxy]-3-methyl-5-oxo-pentanoic acid
> <PUBCHEM_IUPAC_CAS_NAME>
5-[[9-(4-carboxy-3-methyl-1-oxobutoxy)-5a,5b,8,8,11a-pentamethyl-1-propan-2-yl-1,2,3,4,5,6,7,7a,9,10,11,11b,12,13,13a,13b-hexadecahydrocyclopenta[a]chrysen-3a-yl]methoxy]-3-methyl-5-oxopentanoic acid
> <PUBCHEM_IUPAC_NAME_MARKUP>
5-[[9-(4-carboxy-3-methylbutanoyl)oxy-5<I>a</I>,5<I>b</I>,8,8,11<I>a</I>-pentamethyl-1-propan-2-yl-1,2,3,4,5,6,7,7<I>a</I>,9,10,11,11<I>b</I>,12,13,13<I>a</I>,13<I>b</I>-hexadecahydrocyclopenta[a]chrysen-3<I>a</I>-yl]methoxy]-3-methyl-5-oxopentanoic acid
> <PUBCHEM_IUPAC_NAME>
5-[[9-(4-carboxy-3-methylbutanoyl)oxy-5a,5b,8,8,11a-pentamethyl-1-propan-2-yl-1,2,3,4,5,6,7,7a,9,10,11,11b,12,13,13a,13b-hexadecahydrocyclopenta[a]chrysen-3a-yl]methoxy]-3-methyl-5-oxopentanoic acid
> <PUBCHEM_IUPAC_SYSTEMATIC_NAME>
5-[[5a,5b,8,8,11a-pentamethyl-9-(3-methyl-5-oxidanyl-5-oxidanylidene-pentanoyl)oxy-1-propan-2-yl-1,2,3,4,5,6,7,7a,9,10,11,11b,12,13,13a,13b-hexadecahydrocyclopenta[a]chrysen-3a-yl]methoxy]-3-methyl-5-oxidanylidene-pentanoic acid
> <PUBCHEM_IUPAC_TRADITIONAL_NAME>
5-[[9-(4-carboxy-3-methyl-butanoyl)oxy-1-isopropyl-5a,5b,8,8,11a-pentamethyl-1,2,3,4,5,6,7,7a,9,10,11,11b,12,13,13a,13b-hexadecahydrocyclopenta[a]chrysen-3a-yl]methoxy]-5-keto-3-methyl-valeric acid
> <PUBCHEM_IUPAC_INCHI>
InChI=1S/C42H68O8/c1-25(2)28-12-17-42(24-49-35(47)22-26(3)20-33(43)44)19-18-40(8)29(37(28)42)10-11-31-39(7)15-14-32(50-36(48)23-27(4)21-34(45)46)38(5,6)30(39)13-16-41(31,40)9/h25-32,37H,10-24H2,1-9H3,(H,43,44)(H,45,46)
> <PUBCHEM_IUPAC_INCHIKEY>
AJYDBRDDRQXPJX-UHFFFAOYSA-N
> <PUBCHEM_XLOGP3_AA>
9.9
> <PUBCHEM_EXACT_MASS>
700.49141912
> <PUBCHEM_MOLECULAR_FORMULA>
C42H68O8
> <PUBCHEM_MOLECULAR_WEIGHT>
701.0
> <PUBCHEM_OPENEYE_CAN_SMILES>
CC(C)C1CCC2(C1C3CCC4C5(CCC(C(C5CCC4(C3(CC2)C)C)(C)C)OC(=O)CC(C)CC(=O)O)C)COC(=O)CC(C)CC(=O)O
> <PUBCHEM_OPENEYE_ISO_SMILES>
CC(C)C1CCC2(C1C3CCC4C5(CCC(C(C5CCC4(C3(CC2)C)C)(C)C)OC(=O)CC(C)CC(=O)O)C)COC(=O)CC(C)CC(=O)O
> <PUBCHEM_CACTVS_TPSA>
127
> <PUBCHEM_MONOISOTOPIC_WEIGHT>
700.49141912
> <PUBCHEM_TOTAL_CHARGE>
0
> <PUBCHEM_HEAVY_ATOM_COUNT>
50
> <PUBCHEM_ATOM_DEF_STEREO_COUNT>
0
> <PUBCHEM_ATOM_UDEF_STEREO_COUNT>
12
> <PUBCHEM_BOND_DEF_STEREO_COUNT>
0
> <PUBCHEM_BOND_UDEF_STEREO_COUNT>
0
> <PUBCHEM_ISOTOPIC_ATOM_COUNT>
0
> <PUBCHEM_COMPONENT_COUNT>
1
> <PUBCHEM_CACTVS_TAUTO_COUNT>
-1
> <PUBCHEM_COORDINATE_TYPE>
1
5
255
> <PUBCHEM_BONDANNOTATIONS>
10  28  3
11  18  3
12  19  3
13  21  3
14  30  3
15  31  3
16  23  3
32  2  3
21  34  3
43  47  3
44  48  3
9  26  3
$$$$
