500426
  -OEChem-10302200282D
 81 83  0     1  0  0  0  0  0999 V2000
    3.4123   -1.1089    0.0000 Si  0  0  0  0  0  0  0  0  0  0  0  0
    9.2958   -0.0056    0.0000 Si  0  0  0  0  0  0  0  0  0  0  0  0
    5.3415   -1.5105    0.0000 O   0  0  0  0  0  0  0  0  0  0  0  0
    6.3415    0.8944    0.0000 O   0  0  0  0  0  0  0  0  0  0  0  0
    4.0814   -0.3657    0.0000 O   0  0  0  0  0  0  0  0  0  0  0  0
    8.3447    0.3035    0.0000 O   0  0  0  0  0  0  0  0  0  0  0  0
    8.0735   -1.5105    0.0000 O   0  0  0  0  0  0  0  0  0  0  0  0
    6.1550    2.7215    0.0000 O   0  0  0  0  0  0  0  0  0  0  0  0
    2.9903    4.1305    0.0000 O   0  0  0  0  0  0  0  0  0  0  0  0
    4.7537    1.7034    0.0000 N   0  0  0  0  0  0  0  0  0  0  0  0
    7.2075   -3.0105    0.0000 N   0  0  0  0  0  0  0  0  0  0  0  0
    4.5726    3.4260    0.0000 N   0  0  0  0  0  0  0  0  0  0  0  0
    8.0735   -3.5105    0.0000 N   0  0  0  0  0  0  0  0  0  0  0  0
    5.8415   -0.6444    0.0000 C   0  0  3  0  0  0  0  0  0  0  0  0
    5.0325   -0.0567    0.0000 C   0  0  3  0  0  0  0  0  0  0  0  0
    6.3415   -1.5105    0.0000 C   0  0  3  0  0  0  0  0  0  0  0  0
    6.6505   -0.0567    0.0000 C   0  0  3  0  0  0  0  0  0  0  0  0
    5.3415    0.8944    0.0000 C   0  0  3  0  0  0  0  0  0  0  0  0
    7.6016   -0.3657    0.0000 C   0  0  0  0  0  0  0  0  0  0  0  0
    7.2075   -2.0105    0.0000 C   0  0  0  0  0  0  0  0  0  0  0  0
    2.7432   -1.8520    0.0000 C   0  0  0  0  0  0  0  0  0  0  0  0
    2.6691   -0.4397    0.0000 C   0  0  0  0  0  0  0  0  0  0  0  0
    4.1554   -1.7780    0.0000 C   0  0  0  0  0  0  0  0  0  0  0  0
   10.2468   -0.3146    0.0000 C   0  0  0  0  0  0  0  0  0  0  0  0
    3.7592    1.5989    0.0000 C   0  0  0  0  0  0  0  0  0  0  0  0
    5.1604    2.6170    0.0000 C   0  0  0  0  0  0  0  0  0  0  0  0
    2.0741   -2.5952    0.0000 C   0  0  0  0  0  0  0  0  0  0  0  0
    2.0000   -1.1828    0.0000 C   0  0  0  0  0  0  0  0  0  0  0  0
    3.4863   -2.5211    0.0000 C   0  0  0  0  0  0  0  0  0  0  0  0
    9.6048    0.9455    0.0000 C   0  0  0  0  0  0  0  0  0  0  0  0
    8.9867   -0.9566    0.0000 C   0  0  0  0  0  0  0  0  0  0  0  0
    3.1714    2.4079    0.0000 C   0  0  0  0  0  0  0  0  0  0  0  0
   11.1979   -0.6236    0.0000 C   0  0  0  0  0  0  0  0  0  0  0  0
   10.5558    0.6365    0.0000 C   0  0  0  0  0  0  0  0  0  0  0  0
    9.9378   -1.2656    0.0000 C   0  0  0  0  0  0  0  0  0  0  0  0
    3.5781    3.3214    0.0000 C   0  0  0  0  0  0  0  0  0  0  0  0
    2.1769    2.3034    0.0000 C   0  0  0  0  0  0  0  0  0  0  0  0
    4.9355   -0.6690    0.0000 H   0  0  0  0  0  0  0  0  0  0  0  0
    6.1810   -2.1093    0.0000 H   0  0  0  0  0  0  0  0  0  0  0  0
    7.0889    0.3817    0.0000 H   0  0  0  0  0  0  0  0  0  0  0  0
    4.7291    0.7974    0.0000 H   0  0  0  0  0  0  0  0  0  0  0  0
    7.3105   -0.9131    0.0000 H   0  0  0  0  0  0  0  0  0  0  0  0
    8.0901   -0.7474    0.0000 H   0  0  0  0  0  0  0  0  0  0  0  0
    3.0840    0.0211    0.0000 H   0  0  0  0  0  0  0  0  0  0  0  0
    2.2084   -0.0248    0.0000 H   0  0  0  0  0  0  0  0  0  0  0  0
    2.2542   -0.9004    0.0000 H   0  0  0  0  0  0  0  0  0  0  0  0
    3.7406   -2.2387    0.0000 H   0  0  0  0  0  0  0  0  0  0  0  0
    4.6162   -2.1928    0.0000 H   0  0  0  0  0  0  0  0  0  0  0  0
    4.5703   -1.3172    0.0000 H   0  0  0  0  0  0  0  0  0  0  0  0
    6.6706   -3.3205    0.0000 H   0  0  0  0  0  0  0  0  0  0  0  0
    3.5070    1.0325    0.0000 H   0  0  0  0  0  0  0  0  0  0  0  0
    1.6133   -2.1803    0.0000 H   0  0  0  0  0  0  0  0  0  0  0  0
    1.6592   -3.0559    0.0000 H   0  0  0  0  0  0  0  0  0  0  0  0
    2.5348   -3.0100    0.0000 H   0  0  0  0  0  0  0  0  0  0  0  0
    2.4149   -0.7221    0.0000 H   0  0  0  0  0  0  0  0  0  0  0  0
    1.5392   -0.7680    0.0000 H   0  0  0  0  0  0  0  0  0  0  0  0
    1.5851   -1.6436    0.0000 H   0  0  0  0  0  0  0  0  0  0  0  0
    3.0714   -2.9818    0.0000 H   0  0  0  0  0  0  0  0  0  0  0  0
    3.9470   -2.9360    0.0000 H   0  0  0  0  0  0  0  0  0  0  0  0
    3.9011   -2.0603    0.0000 H   0  0  0  0  0  0  0  0  0  0  0  0
   10.1944    0.7539    0.0000 H   0  0  0  0  0  0  0  0  0  0  0  0
    9.7964    1.5352    0.0000 H   0  0  0  0  0  0  0  0  0  0  0  0
    9.0151    1.1371    0.0000 H   0  0  0  0  0  0  0  0  0  0  0  0
    8.3971   -0.7650    0.0000 H   0  0  0  0  0  0  0  0  0  0  0  0
    8.7951   -1.5463    0.0000 H   0  0  0  0  0  0  0  0  0  0  0  0
    9.5764   -1.1482    0.0000 H   0  0  0  0  0  0  0  0  0  0  0  0
    4.8248    3.9924    0.0000 H   0  0  0  0  0  0  0  0  0  0  0  0
   11.0063   -1.2132    0.0000 H   0  0  0  0  0  0  0  0  0  0  0  0
   11.7875   -0.8152    0.0000 H   0  0  0  0  0  0  0  0  0  0  0  0
   11.3895   -0.0339    0.0000 H   0  0  0  0  0  0  0  0  0  0  0  0
   11.1455    0.4449    0.0000 H   0  0  0  0  0  0  0  0  0  0  0  0
   10.7474    1.2261    0.0000 H   0  0  0  0  0  0  0  0  0  0  0  0
    9.9662    0.8281    0.0000 H   0  0  0  0  0  0  0  0  0  0  0  0
    9.3481   -1.0740    0.0000 H   0  0  0  0  0  0  0  0  0  0  0  0
    9.7462   -1.8553    0.0000 H   0  0  0  0  0  0  0  0  0  0  0  0
   10.5274   -1.4572    0.0000 H   0  0  0  0  0  0  0  0  0  0  0  0
    8.0735   -4.1305    0.0000 H   0  0  0  0  0  0  0  0  0  0  0  0
    8.6105   -3.2005    0.0000 H   0  0  0  0  0  0  0  0  0  0  0  0
    2.1120    2.9200    0.0000 H   0  0  0  0  0  0  0  0  0  0  0  0
    1.5603    2.2386    0.0000 H   0  0  0  0  0  0  0  0  0  0  0  0
    2.2417    1.6868    0.0000 H   0  0  0  0  0  0  0  0  0  0  0  0
  1  5  1  0  0  0  0
  1 21  1  0  0  0  0
  1 22  1  0  0  0  0
  1 23  1  0  0  0  0
  2  6  1  0  0  0  0
  2 24  1  0  0  0  0
  2 30  1  0  0  0  0
  2 31  1  0  0  0  0
  3 14  1  0  0  0  0
  3 16  1  0  0  0  0
  4 17  1  0  0  0  0
  4 18  1  0  0  0  0
  5 15  1  0  0  0  0
  6 19  1  0  0  0  0
  7 20  2  0  0  0  0
  8 26  2  0  0  0  0
  9 36  2  0  0  0  0
 10 18  1  0  0  0  0
 10 25  1  0  0  0  0
 10 26  1  0  0  0  0
 11 13  1  0  0  0  0
 11 20  1  0  0  0  0
 11 50  1  0  0  0  0
 12 26  1  0  0  0  0
 12 36  1  0  0  0  0
 12 67  1  0  0  0  0
 13 77  1  0  0  0  0
 13 78  1  0  0  0  0
 14 15  1  0  0  0  0
 14 16  1  0  0  0  0
 14 17  1  0  0  0  0
 15 18  1  0  0  0  0
 15 38  1  0  0  0  0
 16 20  1  0  0  0  0
 16 39  1  0  0  0  0
 17 19  1  0  0  0  0
 17 40  1  0  0  0  0
 18 41  1  0  0  0  0
 19 42  1  0  0  0  0
 19 43  1  0  0  0  0
 21 27  1  0  0  0  0
 21 28  1  0  0  0  0
 21 29  1  0  0  0  0
 22 44  1  0  0  0  0
 22 45  1  0  0  0  0
 22 46  1  0  0  0  0
 23 47  1  0  0  0  0
 23 48  1  0  0  0  0
 23 49  1  0  0  0  0
 24 33  1  0  0  0  0
 24 34  1  0  0  0  0
 24 35  1  0  0  0  0
 25 32  2  0  0  0  0
 25 51  1  0  0  0  0
 27 52  1  0  0  0  0
 27 53  1  0  0  0  0
 27 54  1  0  0  0  0
 28 55  1  0  0  0  0
 28 56  1  0  0  0  0
 28 57  1  0  0  0  0
 29 58  1  0  0  0  0
 29 59  1  0  0  0  0
 29 60  1  0  0  0  0
 30 61  1  0  0  0  0
 30 62  1  0  0  0  0
 30 63  1  0  0  0  0
 31 64  1  0  0  0  0
 31 65  1  0  0  0  0
 31 66  1  0  0  0  0
 32 36  1  0  0  0  0
 32 37  1  0  0  0  0
 33 68  1  0  0  0  0
 33 69  1  0  0  0  0
 33 70  1  0  0  0  0
 34 71  1  0  0  0  0
 34 72  1  0  0  0  0
 34 73  1  0  0  0  0
 35 74  1  0  0  0  0
 35 75  1  0  0  0  0
 35 76  1  0  0  0  0
 37 79  1  0  0  0  0
 37 80  1  0  0  0  0
 37 81  1  0  0  0  0
M  END
> <PUBCHEM_COMPOUND_CID>
500426
> <PUBCHEM_COMPOUND_CANONICALIZED>
1
> <PUBCHEM_CACTVS_COMPLEXITY>
989
> <PUBCHEM_CACTVS_HBOND_ACCEPTOR>
8
> <PUBCHEM_CACTVS_HBOND_DONOR>
3
> <PUBCHEM_CACTVS_ROTATABLE_BOND>
9
> <PUBCHEM_CACTVS_SUBSKEYS>
AAADcfB7uAwAAAAAAAAAAAAAEgAAASAAAAAgAAAAAAAAAAAAAAAAHhAYAEAADFThoAZDAAPiBAGIAgFWUAKAAAAAAAISIAFIAECDABYAgQQPAAAPNyISAMD6NQIKAAAAAAAAAAAAAAAAAAAAAAAAAAAAAA==
> <PUBCHEM_IUPAC_OPENEYE_NAME>
4-[tert-butyl(dimethyl)silyl]oxy-7-[[tert-butyl(dimethyl)silyl]oxymethyl]-5-(5-methyl-2,4-dioxo-pyrimidin-1-yl)-1,6-dioxaspiro[2.4]heptane-2-carbohydrazide
> <PUBCHEM_IUPAC_CAS_NAME>
4-[tert-butyl(dimethyl)silyl]oxy-7-[[tert-butyl(dimethyl)silyl]oxymethyl]-5-(5-methyl-2,4-dioxo-1-pyrimidinyl)-1,6-dioxaspiro[2.4]heptane-2-carbohydrazide
> <PUBCHEM_IUPAC_NAME_MARKUP>
4-[<I>tert</I>-butyl(dimethyl)silyl]oxy-7-[[<I>tert</I>-butyl(dimethyl)silyl]oxymethyl]-5-(5-methyl-2,4-dioxopyrimidin-1-yl)-1,6-dioxaspiro[2.4]heptane-2-carbohydrazide
> <PUBCHEM_IUPAC_NAME>
4-[tert-butyl(dimethyl)silyl]oxy-7-[[tert-butyl(dimethyl)silyl]oxymethyl]-5-(5-methyl-2,4-dioxopyrimidin-1-yl)-1,6-dioxaspiro[2.4]heptane-2-carbohydrazide
> <PUBCHEM_IUPAC_SYSTEMATIC_NAME>
4-[tert-butyl(dimethyl)silyl]oxy-7-[[tert-butyl(dimethyl)silyl]oxymethyl]-5-[5-methyl-2,4-bis(oxidanylidene)pyrimidin-1-yl]-1,6-dioxaspiro[2.4]heptane-2-carbohydrazide
> <PUBCHEM_IUPAC_TRADITIONAL_NAME>
4-[tert-butyl(dimethyl)silyl]oxy-7-[[tert-butyl(dimethyl)silyl]oxymethyl]-5-(2,4-diketo-5-methyl-pyrimidin-1-yl)-1,6-dioxaspiro[2.4]heptane-2-carbohydrazide
> <PUBCHEM_IUPAC_INCHI>
InChI=1S/C24H44N4O7Si2/c1-14-12-28(21(31)26-18(14)29)20-17(35-37(10,11)23(5,6)7)24(16(34-24)19(30)27-25)15(33-20)13-32-36(8,9)22(2,3)4/h12,15-17,20H,13,25H2,1-11H3,(H,27,30)(H,26,29,31)
> <PUBCHEM_IUPAC_INCHIKEY>
VCJKQDMIZKSJHQ-UHFFFAOYSA-N
> <PUBCHEM_EXACT_MASS>
556.27485282
> <PUBCHEM_MOLECULAR_FORMULA>
C24H44N4O7Si2
> <PUBCHEM_MOLECULAR_WEIGHT>
556.8
> <PUBCHEM_OPENEYE_CAN_SMILES>
CC1=CN(C(=O)NC1=O)C2C(C3(C(O2)CO[Si](C)(C)C(C)(C)C)C(O3)C(=O)NN)O[Si](C)(C)C(C)(C)C
> <PUBCHEM_OPENEYE_ISO_SMILES>
CC1=CN(C(=O)NC1=O)C2C(C3(C(O2)CO[Si](C)(C)C(C)(C)C)C(O3)C(=O)NN)O[Si](C)(C)C(C)(C)C
> <PUBCHEM_CACTVS_TPSA>
145
> <PUBCHEM_MONOISOTOPIC_WEIGHT>
556.27485282
> <PUBCHEM_TOTAL_CHARGE>
0
> <PUBCHEM_HEAVY_ATOM_COUNT>
37
> <PUBCHEM_ATOM_DEF_STEREO_COUNT>
0
> <PUBCHEM_ATOM_UDEF_STEREO_COUNT>
5
> <PUBCHEM_BOND_DEF_STEREO_COUNT>
0
> <PUBCHEM_BOND_UDEF_STEREO_COUNT>
0
> <PUBCHEM_ISOTOPIC_ATOM_COUNT>
0
> <PUBCHEM_COMPONENT_COUNT>
1
> <PUBCHEM_CACTVS_TAUTO_COUNT>
-1
> <PUBCHEM_COORDINATE_TYPE>
1
5
255
> <PUBCHEM_BONDANNOTATIONS>
18  10  3
10  25  8
10  26  8
12  26  8
12  36  8
14  17  3
16  20  3
17  19  3
25  32  8
32  36  8
15  5  3
$$$$
