500419
  -OEChem-10302200282D
130136  0     1  0  0  0  0  0999 V2000
    6.5621   -2.1768    0.0000 O   0  0  0  0  0  0  0  0  0  0  0  0
   15.4872    0.9097    0.0000 O   0  0  0  0  0  0  0  0  0  0  0  0
    5.7019   -0.6735    0.0000 O   0  0  0  0  0  0  0  0  0  0  0  0
   16.3648   -0.5836    0.0000 O   0  0  0  0  0  0  0  0  0  0  0  0
    2.5904   -3.9268    0.0000 O   0  0  0  0  0  0  0  0  0  0  0  0
   19.4384    2.7055    0.0000 O   0  0  0  0  0  0  0  0  0  0  0  0
    2.0615   -2.2775    0.0000 O   0  0  0  0  0  0  0  0  0  0  0  0
   19.9864    1.0624    0.0000 O   0  0  0  0  0  0  0  0  0  0  0  0
   11.0892   -0.6245    0.0000 C   0  0  3  0  0  0  0  0  0  0  0  0
   11.9552   -0.1245    0.0000 C   0  0  3  0  0  0  0  0  0  0  0  0
   10.2232   -0.1245    0.0000 C   0  0  3  0  0  0  0  0  0  0  0  0
   11.9552    0.8755    0.0000 C   0  0  3  0  0  0  0  0  0  0  0  0
    9.3132   -0.6313    0.0000 C   0  0  3  0  0  0  0  0  0  0  0  0
   12.8491    1.4102    0.0000 C   0  0  3  0  0  0  0  0  0  0  0  0
   13.7552    0.8963    0.0000 C   0  0  3  0  0  0  0  0  0  0  0  0
    9.3051   -1.6729    0.0000 C   0  0  3  0  0  0  0  0  0  0  0  0
   12.8491   -0.6591    0.0000 C   0  0  0  0  0  0  0  0  0  0  0  0
   11.1052   -1.6660    0.0000 C   0  0  0  0  0  0  0  0  0  0  0  0
   10.2232    0.8755    0.0000 C   0  0  0  0  0  0  0  0  0  0  0  0
   11.0892    1.3755    0.0000 C   0  0  0  0  0  0  0  0  0  0  0  0
   13.7552   -0.1453    0.0000 C   0  0  0  0  0  0  0  0  0  0  0  0
   10.2072   -2.1937    0.0000 C   0  0  0  0  0  0  0  0  0  0  0  0
   13.0592    2.4241    0.0000 C   0  0  3  0  0  0  0  0  0  0  0  0
    8.3697   -2.2226    0.0000 C   0  0  0  0  0  0  0  0  0  0  0  0
    8.3863   -0.0672    0.0000 C   0  0  0  0  0  0  0  0  0  0  0  0
   14.5175    1.5971    0.0000 C   0  0  0  0  0  0  0  0  0  0  0  0
   11.7320   -1.3905    0.0000 C   0  0  0  0  0  0  0  0  0  0  0  0
   12.2973   -1.0641    0.0000 C   0  0  0  0  0  0  0  0  0  0  0  0
   14.0883    2.5394    0.0000 C   0  0  0  0  0  0  0  0  0  0  0  0
    9.3209    0.3687    0.0000 C   0  0  0  0  0  0  0  0  0  0  0  0
    7.4301   -1.6801    0.0000 C   0  0  3  0  0  0  0  0  0  0  0  0
   14.6251    0.4030    0.0000 C   0  0  0  0  0  0  0  0  0  0  0  0
    7.4384   -0.5952    0.0000 C   0  0  0  0  0  0  0  0  0  0  0  0
   12.3857    3.1632    0.0000 C   0  0  0  0  0  0  0  0  0  0  0  0
    7.8730   -3.0906    0.0000 C   0  0  0  0  0  0  0  0  0  0  0  0
    8.8730   -3.0867    0.0000 C   0  0  0  0  0  0  0  0  0  0  0  0
   12.6890    4.1161    0.0000 C   0  0  0  0  0  0  0  0  0  0  0  0
   11.4088    2.9495    0.0000 C   0  0  0  0  0  0  0  0  0  0  0  0
    5.6980   -1.6735    0.0000 C   0  0  0  0  0  0  0  0  0  0  0  0
   16.3571    0.4164    0.0000 C   0  0  0  0  0  0  0  0  0  0  0  0
    4.8301   -2.1701    0.0000 C   0  0  0  0  0  0  0  0  0  0  0  0
   17.2192    0.9230    0.0000 C   0  0  0  0  0  0  0  0  0  0  0  0
    3.9660   -1.6668    0.0000 C   0  0  0  0  0  0  0  0  0  0  0  0
   18.0891    0.4297    0.0000 C   0  0  0  0  0  0  0  0  0  0  0  0
    4.4693   -0.8027    0.0000 C   0  0  0  0  0  0  0  0  0  0  0  0
    2.9886   -1.4551    0.0000 C   0  0  0  0  0  0  0  0  0  0  0  0
   17.5958   -0.4401    0.0000 C   0  0  0  0  0  0  0  0  0  0  0  0
   19.0688    0.2294    0.0000 C   0  0  0  0  0  0  0  0  0  0  0  0
    3.7543   -2.6441    0.0000 C   0  0  0  0  0  0  0  0  0  0  0  0
   18.2894    1.4095    0.0000 C   0  0  0  0  0  0  0  0  0  0  0  0
    3.8031   -0.0570    0.0000 C   0  0  0  0  0  0  0  0  0  0  0  0
    2.8880   -0.4602    0.0000 C   0  0  0  0  0  0  0  0  0  0  0  0
   18.2706   -1.1781    0.0000 C   0  0  0  0  0  0  0  0  0  0  0  0
   19.1810   -0.7643    0.0000 C   0  0  0  0  0  0  0  0  0  0  0  0
    2.8021   -2.9495    0.0000 C   0  0  0  0  0  0  0  0  0  0  0  0
   19.2381    1.7258    0.0000 C   0  0  0  0  0  0  0  0  0  0  0  0
   10.7601    0.1855    0.0000 H   0  0  0  0  0  0  0  0  0  0  0  0
   11.9504    1.4955    0.0000 H   0  0  0  0  0  0  0  0  0  0  0  0
   12.3438    1.7694    0.0000 H   0  0  0  0  0  0  0  0  0  0  0  0
    9.3075   -2.2929    0.0000 H   0  0  0  0  0  0  0  0  0  0  0  0
   12.4445   -1.1289    0.0000 H   0  0  0  0  0  0  0  0  0  0  0  0
   13.2428   -1.1382    0.0000 H   0  0  0  0  0  0  0  0  0  0  0  0
   11.3233   -2.2464    0.0000 H   0  0  0  0  0  0  0  0  0  0  0  0
   11.7144   -1.5505    0.0000 H   0  0  0  0  0  0  0  0  0  0  0  0
   10.0111    1.4581    0.0000 H   0  0  0  0  0  0  0  0  0  0  0  0
    9.6126    0.7679    0.0000 H   0  0  0  0  0  0  0  0  0  0  0  0
   11.4877    1.8505    0.0000 H   0  0  0  0  0  0  0  0  0  0  0  0
   10.6907    1.8505    0.0000 H   0  0  0  0  0  0  0  0  0  0  0  0
   13.9643   -0.7290    0.0000 H   0  0  0  0  0  0  0  0  0  0  0  0
   14.3661   -0.0392    0.0000 H   0  0  0  0  0  0  0  0  0  0  0  0
    9.8099   -2.6697    0.0000 H   0  0  0  0  0  0  0  0  0  0  0  0
   10.6082   -2.6666    0.0000 H   0  0  0  0  0  0  0  0  0  0  0  0
   13.2777    3.0044    0.0000 H   0  0  0  0  0  0  0  0  0  0  0  0
    8.7945    0.3994    0.0000 H   0  0  0  0  0  0  0  0  0  0  0  0
    7.9964    0.4148    0.0000 H   0  0  0  0  0  0  0  0  0  0  0  0
   14.8868    1.0991    0.0000 H   0  0  0  0  0  0  0  0  0  0  0  0
   15.0516    1.9120    0.0000 H   0  0  0  0  0  0  0  0  0  0  0  0
   11.2570   -1.7890    0.0000 H   0  0  0  0  0  0  0  0  0  0  0  0
   12.1305   -1.8655    0.0000 H   0  0  0  0  0  0  0  0  0  0  0  0
   12.2069   -0.9920    0.0000 H   0  0  0  0  0  0  0  0  0  0  0  0
   11.7147   -1.2762    0.0000 H   0  0  0  0  0  0  0  0  0  0  0  0
   12.5094   -1.6467    0.0000 H   0  0  0  0  0  0  0  0  0  0  0  0
   12.8799   -0.8520    0.0000 H   0  0  0  0  0  0  0  0  0  0  0  0
   14.6764    2.7357    0.0000 H   0  0  0  0  0  0  0  0  0  0  0  0
   13.9549    3.1449    0.0000 H   0  0  0  0  0  0  0  0  0  0  0  0
    9.9408    0.3639    0.0000 H   0  0  0  0  0  0  0  0  0  0  0  0
    9.3256    0.9886    0.0000 H   0  0  0  0  0  0  0  0  0  0  0  0
    8.7009    0.3734    0.0000 H   0  0  0  0  0  0  0  0  0  0  0  0
    6.8949   -1.3670    0.0000 H   0  0  0  0  0  0  0  0  0  0  0  0
   14.2302   -0.0750    0.0000 H   0  0  0  0  0  0  0  0  0  0  0  0
   15.0272   -0.0688    0.0000 H   0  0  0  0  0  0  0  0  0  0  0  0
    7.2339   -0.0099    0.0000 H   0  0  0  0  0  0  0  0  0  0  0  0
    6.8268   -0.6966    0.0000 H   0  0  0  0  0  0  0  0  0  0  0  0
    7.3349   -2.7827    0.0000 H   0  0  0  0  0  0  0  0  0  0  0  0
    7.5651   -3.6287    0.0000 H   0  0  0  0  0  0  0  0  0  0  0  0
    8.4112   -3.3985    0.0000 H   0  0  0  0  0  0  0  0  0  0  0  0
    8.3373   -3.3988    0.0000 H   0  0  0  0  0  0  0  0  0  0  0  0
    9.1851   -3.6225    0.0000 H   0  0  0  0  0  0  0  0  0  0  0  0
    9.4088   -2.7747    0.0000 H   0  0  0  0  0  0  0  0  0  0  0  0
   13.2798    3.9281    0.0000 H   0  0  0  0  0  0  0  0  0  0  0  0
   12.8771    4.7069    0.0000 H   0  0  0  0  0  0  0  0  0  0  0  0
   12.0982    4.3042    0.0000 H   0  0  0  0  0  0  0  0  0  0  0  0
   10.9912    3.4078    0.0000 H   0  0  0  0  0  0  0  0  0  0  0  0
   11.2207    2.3587    0.0000 H   0  0  0  0  0  0  0  0  0  0  0  0
    4.4297   -2.6435    0.0000 H   0  0  0  0  0  0  0  0  0  0  0  0
    5.2268   -2.6466    0.0000 H   0  0  0  0  0  0  0  0  0  0  0  0
   17.6141    1.4011    0.0000 H   0  0  0  0  0  0  0  0  0  0  0  0
   16.8170    1.3949    0.0000 H   0  0  0  0  0  0  0  0  0  0  0  0
    4.9695   -1.1691    0.0000 H   0  0  0  0  0  0  0  0  0  0  0  0
    4.8860   -0.3436    0.0000 H   0  0  0  0  0  0  0  0  0  0  0  0
    2.3687   -1.4527    0.0000 H   0  0  0  0  0  0  0  0  0  0  0  0
    2.9215   -2.0715    0.0000 H   0  0  0  0  0  0  0  0  0  0  0  0
   17.0914   -0.0796    0.0000 H   0  0  0  0  0  0  0  0  0  0  0  0
   17.1845   -0.9040    0.0000 H   0  0  0  0  0  0  0  0  0  0  0  0
   19.6888    0.2342    0.0000 H   0  0  0  0  0  0  0  0  0  0  0  0
   19.1288    0.8465    0.0000 H   0  0  0  0  0  0  0  0  0  0  0  0
    3.8382   -3.2584    0.0000 H   0  0  0  0  0  0  0  0  0  0  0  0
    4.3738   -2.6682    0.0000 H   0  0  0  0  0  0  0  0  0  0  0  0
   18.1984    2.0228    0.0000 H   0  0  0  0  0  0  0  0  0  0  0  0
   17.6697    1.4263    0.0000 H   0  0  0  0  0  0  0  0  0  0  0  0
    4.3061    0.3055    0.0000 H   0  0  0  0  0  0  0  0  0  0  0  0
    3.4951    0.4811    0.0000 H   0  0  0  0  0  0  0  0  0  0  0  0
    2.6986    0.1302    0.0000 H   0  0  0  0  0  0  0  0  0  0  0  0
    2.2810   -0.5868    0.0000 H   0  0  0  0  0  0  0  0  0  0  0  0
   17.7718   -1.5464    0.0000 H   0  0  0  0  0  0  0  0  0  0  0  0
   18.5847   -1.7126    0.0000 H   0  0  0  0  0  0  0  0  0  0  0  0
   19.3771   -1.3525    0.0000 H   0  0  0  0  0  0  0  0  0  0  0  0
   19.7864   -0.6307    0.0000 H   0  0  0  0  0  0  0  0  0  0  0  0
    2.0000   -4.1161    0.0000 H   0  0  0  0  0  0  0  0  0  0  0  0
   20.0266    2.9016    0.0000 H   0  0  0  0  0  0  0  0  0  0  0  0
  1 31  1  0  0  0  0
  1 39  1  0  0  0  0
  2 32  1  0  0  0  0
  2 40  1  0  0  0  0
  3 39  2  0  0  0  0
  4 40  2  0  0  0  0
  5 55  1  0  0  0  0
  5129  1  0  0  0  0
  6 56  1  0  0  0  0
  6130  1  0  0  0  0
  7 55  2  0  0  0  0
  8 56  2  0  0  0  0
  9 10  1  0  0  0  0
  9 11  1  0  0  0  0
  9 18  1  0  0  0  0
  9 27  1  0  0  0  0
 10 12  1  0  0  0  0
 10 17  1  0  0  0  0
 10 28  1  0  0  0  0
 11 13  1  0  0  0  0
 11 19  1  0  0  0  0
 11 57  1  0  0  0  0
 12 14  1  0  0  0  0
 12 20  1  0  0  0  0
 12 58  1  0  0  0  0
 13 16  1  0  0  0  0
 13 25  1  0  0  0  0
 13 30  1  0  0  0  0
 14 15  1  0  0  0  0
 14 23  1  0  0  0  0
 14 59  1  0  0  0  0
 15 21  1  0  0  0  0
 15 26  1  0  0  0  0
 15 32  1  0  0  0  0
 16 22  1  0  0  0  0
 16 24  1  0  0  0  0
 16 60  1  0  0  0  0
 17 21  1  0  0  0  0
 17 61  1  0  0  0  0
 17 62  1  0  0  0  0
 18 22  1  0  0  0  0
 18 63  1  0  0  0  0
 18 64  1  0  0  0  0
 19 20  1  0  0  0  0
 19 65  1  0  0  0  0
 19 66  1  0  0  0  0
 20 67  1  0  0  0  0
 20 68  1  0  0  0  0
 21 69  1  0  0  0  0
 21 70  1  0  0  0  0
 22 71  1  0  0  0  0
 22 72  1  0  0  0  0
 23 29  1  0  0  0  0
 23 34  1  0  0  0  0
 23 73  1  0  0  0  0
 24 31  1  0  0  0  0
 24 35  1  0  0  0  0
 24 36  1  0  0  0  0
 25 33  1  0  0  0  0
 25 74  1  0  0  0  0
 25 75  1  0  0  0  0
 26 29  1  0  0  0  0
 26 76  1  0  0  0  0
 26 77  1  0  0  0  0
 27 78  1  0  0  0  0
 27 79  1  0  0  0  0
 27 80  1  0  0  0  0
 28 81  1  0  0  0  0
 28 82  1  0  0  0  0
 28 83  1  0  0  0  0
 29 84  1  0  0  0  0
 29 85  1  0  0  0  0
 30 86  1  0  0  0  0
 30 87  1  0  0  0  0
 30 88  1  0  0  0  0
 31 33  1  0  0  0  0
 31 89  1  0  0  0  0
 32 90  1  0  0  0  0
 32 91  1  0  0  0  0
 33 92  1  0  0  0  0
 33 93  1  0  0  0  0
 34 37  1  0  0  0  0
 34 38  2  0  0  0  0
 35 94  1  0  0  0  0
 35 95  1  0  0  0  0
 35 96  1  0  0  0  0
 36 97  1  0  0  0  0
 36 98  1  0  0  0  0
 36 99  1  0  0  0  0
 37100  1  0  0  0  0
 37101  1  0  0  0  0
 37102  1  0  0  0  0
 38103  1  0  0  0  0
 38104  1  0  0  0  0
 39 41  1  0  0  0  0
 40 42  1  0  0  0  0
 41 43  1  0  0  0  0
 41105  1  0  0  0  0
 41106  1  0  0  0  0
 42 44  1  0  0  0  0
 42107  1  0  0  0  0
 42108  1  0  0  0  0
 43 45  1  0  0  0  0
 43 46  1  0  0  0  0
 43 49  1  0  0  0  0
 44 47  1  0  0  0  0
 44 48  1  0  0  0  0
 44 50  1  0  0  0  0
 45 51  1  0  0  0  0
 45109  1  0  0  0  0
 45110  1  0  0  0  0
 46 52  1  0  0  0  0
 46111  1  0  0  0  0
 46112  1  0  0  0  0
 47 53  1  0  0  0  0
 47113  1  0  0  0  0
 47114  1  0  0  0  0
 48 54  1  0  0  0  0
 48115  1  0  0  0  0
 48116  1  0  0  0  0
 49 55  1  0  0  0  0
 49117  1  0  0  0  0
 49118  1  0  0  0  0
 50 56  1  0  0  0  0
 50119  1  0  0  0  0
 50120  1  0  0  0  0
 51 52  1  0  0  0  0
 51121  1  0  0  0  0
 51122  1  0  0  0  0
 52123  1  0  0  0  0
 52124  1  0  0  0  0
 53 54  1  0  0  0  0
 53125  1  0  0  0  0
 53126  1  0  0  0  0
 54127  1  0  0  0  0
 54128  1  0  0  0  0
M  END
> <PUBCHEM_COMPOUND_CID>
500419
> <PUBCHEM_COMPOUND_CANONICALIZED>
1
> <PUBCHEM_CACTVS_COMPLEXITY>
1570
> <PUBCHEM_CACTVS_HBOND_ACCEPTOR>
8
> <PUBCHEM_CACTVS_HBOND_DONOR>
2
> <PUBCHEM_CACTVS_ROTATABLE_BOND>
14
> <PUBCHEM_CACTVS_SUBSKEYS>
AAADcfB8PAAAAAAAAAAAAAAAAAAAAYMGAAAwYMGAAAAAAGDAAAAAGgAACAAADxSggAICCAAABgCIAgDSCAAAAAAgAAAAAAEAAAgAABIAAQACQAAEgAAAAAGI7viPgAAAAAAAAADAAAYAADAAAQAACAAAAA==
> <PUBCHEM_IUPAC_OPENEYE_NAME>
2-[1-[2-[[9-[2-[1-(carboxymethyl)cyclopentyl]acetyl]oxy-1-isopropenyl-5a,5b,8,8,11a-pentamethyl-1,2,3,4,5,6,7,7a,9,10,11,11b,12,13,13a,13b-hexadecahydrocyclopenta[a]chrysen-3a-yl]methoxy]-2-oxo-ethyl]cyclopentyl]acetic acid
> <PUBCHEM_IUPAC_CAS_NAME>
2-[1-[2-[[9-[2-[1-(carboxymethyl)cyclopentyl]-1-oxoethoxy]-5a,5b,8,8,11a-pentamethyl-1-(1-methylethenyl)-1,2,3,4,5,6,7,7a,9,10,11,11b,12,13,13a,13b-hexadecahydrocyclopenta[a]chrysen-3a-yl]methoxy]-2-oxoethyl]cyclopentyl]acetic acid
> <PUBCHEM_IUPAC_NAME_MARKUP>
2-[1-[2-[[9-[2-[1-(carboxymethyl)cyclopentyl]acetyl]oxy-5<I>a</I>,5<I>b</I>,8,8,11<I>a</I>-pentamethyl-1-prop-1-en-2-yl-1,2,3,4,5,6,7,7<I>a</I>,9,10,11,11<I>b</I>,12,13,13<I>a</I>,13<I>b</I>-hexadecahydrocyclopenta[a]chrysen-3<I>a</I>-yl]methoxy]-2-oxoethyl]cyclopentyl]acetic acid
> <PUBCHEM_IUPAC_NAME>
2-[1-[2-[[9-[2-[1-(carboxymethyl)cyclopentyl]acetyl]oxy-5a,5b,8,8,11a-pentamethyl-1-prop-1-en-2-yl-1,2,3,4,5,6,7,7a,9,10,11,11b,12,13,13a,13b-hexadecahydrocyclopenta[a]chrysen-3a-yl]methoxy]-2-oxoethyl]cyclopentyl]acetic acid
> <PUBCHEM_IUPAC_SYSTEMATIC_NAME>
2-[1-[2-[[9-[2-[1-(2-hydroxy-2-oxoethyl)cyclopentyl]ethanoyloxy]-5a,5b,8,8,11a-pentamethyl-1-prop-1-en-2-yl-1,2,3,4,5,6,7,7a,9,10,11,11b,12,13,13a,13b-hexadecahydrocyclopenta[a]chrysen-3a-yl]methoxy]-2-oxidanylidene-ethyl]cyclopentyl]ethanoic acid
> <PUBCHEM_IUPAC_TRADITIONAL_NAME>
2-[1-[2-[[9-[2-[1-(carboxymethyl)cyclopentyl]acetyl]oxy-1-isopropenyl-5a,5b,8,8,11a-pentamethyl-1,2,3,4,5,6,7,7a,9,10,11,11b,12,13,13a,13b-hexadecahydrocyclopenta[a]chrysen-3a-yl]methoxy]-2-keto-ethyl]cyclopentyl]acetic acid
> <PUBCHEM_IUPAC_INCHI>
InChI=1S/C48H74O8/c1-31(2)32-14-23-48(30-55-39(53)28-46(26-37(49)50)17-8-9-18-46)25-24-44(6)33(41(32)48)12-13-35-43(5)21-16-36(42(3,4)34(43)15-22-45(35,44)7)56-40(54)29-47(27-38(51)52)19-10-11-20-47/h32-36,41H,1,8-30H2,2-7H3,(H,49,50)(H,51,52)
> <PUBCHEM_IUPAC_INCHIKEY>
NNJQHVYZKJZWNI-UHFFFAOYSA-N
> <PUBCHEM_XLOGP3_AA>
12.4
> <PUBCHEM_EXACT_MASS>
778.53836931
> <PUBCHEM_MOLECULAR_FORMULA>
C48H74O8
> <PUBCHEM_MOLECULAR_WEIGHT>
779.1
> <PUBCHEM_OPENEYE_CAN_SMILES>
CC(=C)C1CCC2(C1C3CCC4C5(CCC(C(C5CCC4(C3(CC2)C)C)(C)C)OC(=O)CC6(CCCC6)CC(=O)O)C)COC(=O)CC7(CCCC7)CC(=O)O
> <PUBCHEM_OPENEYE_ISO_SMILES>
CC(=C)C1CCC2(C1C3CCC4C5(CCC(C(C5CCC4(C3(CC2)C)C)(C)C)OC(=O)CC6(CCCC6)CC(=O)O)C)COC(=O)CC7(CCCC7)CC(=O)O
> <PUBCHEM_CACTVS_TPSA>
127
> <PUBCHEM_MONOISOTOPIC_WEIGHT>
778.53836931
> <PUBCHEM_TOTAL_CHARGE>
0
> <PUBCHEM_HEAVY_ATOM_COUNT>
56
> <PUBCHEM_ATOM_DEF_STEREO_COUNT>
0
> <PUBCHEM_ATOM_UDEF_STEREO_COUNT>
10
> <PUBCHEM_BOND_DEF_STEREO_COUNT>
0
> <PUBCHEM_BOND_UDEF_STEREO_COUNT>
0
> <PUBCHEM_ISOTOPIC_ATOM_COUNT>
0
> <PUBCHEM_COMPONENT_COUNT>
1
> <PUBCHEM_CACTVS_TAUTO_COUNT>
-1
> <PUBCHEM_COORDINATE_TYPE>
1
5
255
> <PUBCHEM_BONDANNOTATIONS>
31  1  3
10  28  3
11  19  3
12  20  3
13  30  3
14  23  3
15  32  3
16  22  3
23  34  3
9  27  3
$$$$
