500569
  -OEChem-10302200282D
121121  0     1  0  0  0  0  0999 V2000
    4.5981    0.4050    0.0000 O   0  0  0  0  0  0  0  0  0  0  0  0
    8.0622   -0.5950    0.0000 O   0  0  0  0  0  0  0  0  0  0  0  0
    3.7320    3.9050    0.0000 O   0  0  0  0  0  0  0  0  0  0  0  0
    8.9282   -1.0950    0.0000 O   0  0  0  0  0  0  0  0  0  0  0  0
    6.3301    6.4050    0.0000 O   0  0  0  0  0  0  0  0  0  0  0  0
    7.1962    4.9050    0.0000 O   0  0  0  0  0  0  0  0  0  0  0  0
   11.5263   -3.5950    0.0000 O   0  0  0  0  0  0  0  0  0  0  0  0
   11.5263   -5.5950    0.0000 O   0  0  0  0  0  0  0  0  0  0  0  0
    9.7942   -5.5950    0.0000 O   0  0  0  0  0  0  0  0  0  0  0  0
   13.2583    0.4050    0.0000 O   0  0  0  0  0  0  0  0  0  0  0  0
   12.3923   -4.0950    0.0000 O   0  0  0  0  0  0  0  0  0  0  0  0
   14.1244   -1.0950    0.0000 O   0  0  0  0  0  0  0  0  0  0  0  0
   14.9904   -6.5950    0.0000 O   0  0  0  0  0  0  0  0  0  0  0  0
   15.8564   -5.0950    0.0000 O   0  0  0  0  0  0  0  0  0  0  0  0
    6.3301   -0.5950    0.0000 N   0  0  0  0  0  0  0  0  0  0  0  0
    5.4641    1.9050    0.0000 N   0  0  0  0  0  0  0  0  0  0  0  0
    8.0622   -2.5950    0.0000 N   0  0  0  0  0  0  0  0  0  0  0  0
    5.4641    3.9050    0.0000 N   0  0  0  0  0  0  0  0  0  0  0  0
   10.6603   -2.0950    0.0000 N   0  0  0  0  0  0  0  0  0  0  0  0
   13.2583   -2.5950    0.0000 N   0  0  0  0  0  0  0  0  0  0  0  0
    7.1962    0.9050    0.0000 C   0  0  0  0  0  0  0  0  0  0  0  0
    6.3301    0.4050    0.0000 C   0  0  1  0  0  0  0  0  0  0  0  0
    8.0622    1.4050    0.0000 C   0  0  0  0  0  0  0  0  0  0  0  0
    6.6962    1.7710    0.0000 C   0  0  0  0  0  0  0  0  0  0  0  0
    7.6962    0.0390    0.0000 C   0  0  0  0  0  0  0  0  0  0  0  0
    5.4641    0.9050    0.0000 C   0  0  0  0  0  0  0  0  0  0  0  0
    4.5981    2.4050    0.0000 C   0  0  1  0  0  0  0  0  0  0  0  0
    3.7320    1.9050    0.0000 C   0  0  0  0  0  0  0  0  0  0  0  0
    2.8660    2.4050    0.0000 C   0  0  0  0  0  0  0  0  0  0  0  0
    7.1962   -2.0950    0.0000 C   0  0  2  0  0  0  0  0  0  0  0  0
    7.1962   -1.0950    0.0000 C   0  0  0  0  0  0  0  0  0  0  0  0
    4.5981    3.4050    0.0000 C   0  0  0  0  0  0  0  0  0  0  0  0
    6.3301   -2.5950    0.0000 C   0  0  0  0  0  0  0  0  0  0  0  0
    2.0000    1.9050    0.0000 C   0  0  0  0  0  0  0  0  0  0  0  0
    2.8660    3.4050    0.0000 C   0  0  0  0  0  0  0  0  0  0  0  0
    5.4641    4.9050    0.0000 C   0  0  3  0  0  0  0  0  0  0  0  0
    6.3301   -3.5950    0.0000 C   0  0  0  0  0  0  0  0  0  0  0  0
    9.7942   -2.5950    0.0000 C   0  0  2  0  0  0  0  0  0  0  0  0
    8.9282   -2.0950    0.0000 C   0  0  0  0  0  0  0  0  0  0  0  0
    4.5981    5.4050    0.0000 C   0  0  0  0  0  0  0  0  0  0  0  0
    9.7942   -3.5950    0.0000 C   0  0  0  0  0  0  0  0  0  0  0  0
    5.4641   -4.0950    0.0000 C   0  0  0  0  0  0  0  0  0  0  0  0
    7.1962   -4.0950    0.0000 C   0  0  0  0  0  0  0  0  0  0  0  0
    4.5981    6.4050    0.0000 C   0  0  0  0  0  0  0  0  0  0  0  0
   10.6603   -4.0950    0.0000 C   0  0  0  0  0  0  0  0  0  0  0  0
    5.4641   -5.0950    0.0000 C   0  0  0  0  0  0  0  0  0  0  0  0
    4.5981   -3.5950    0.0000 C   0  0  0  0  0  0  0  0  0  0  0  0
   11.5263   -2.5950    0.0000 C   0  0  0  0  0  0  0  0  0  0  0  0
    7.1962   -5.0950    0.0000 C   0  0  0  0  0  0  0  0  0  0  0  0
   12.3923   -2.0950    0.0000 C   0  0  2  0  0  0  0  0  0  0  0  0
    3.7320    6.9050    0.0000 C   0  0  0  0  0  0  0  0  0  0  0  0
    6.3301   -5.5950    0.0000 C   0  0  0  0  0  0  0  0  0  0  0  0
   12.3923   -1.0950    0.0000 C   0  0  0  0  0  0  0  0  0  0  0  0
   10.6603   -5.0950    0.0000 C   0  0  0  0  0  0  0  0  0  0  0  0
   13.2583   -3.5950    0.0000 C   0  0  0  0  0  0  0  0  0  0  0  0
   13.2583   -0.5950    0.0000 C   0  0  0  0  0  0  0  0  0  0  0  0
   14.1244   -4.0950    0.0000 C   0  0  0  0  0  0  0  0  0  0  0  0
   14.1244   -5.0950    0.0000 C   0  0  0  0  0  0  0  0  0  0  0  0
   14.9904   -5.5950    0.0000 C   0  0  0  0  0  0  0  0  0  0  0  0
    6.3301    5.4050    0.0000 B   0  0  0  0  0  0  0  0  0  0  0  0
    6.8671    0.0950    0.0000 H   0  0  0  0  0  0  0  0  0  0  0  0
    8.3722    0.8681    0.0000 H   0  0  0  0  0  0  0  0  0  0  0  0
    8.5991    1.7150    0.0000 H   0  0  0  0  0  0  0  0  0  0  0  0
    7.7522    1.9419    0.0000 H   0  0  0  0  0  0  0  0  0  0  0  0
    7.2331    2.0810    0.0000 H   0  0  0  0  0  0  0  0  0  0  0  0
    6.3862    2.3080    0.0000 H   0  0  0  0  0  0  0  0  0  0  0  0
    6.1592    1.4610    0.0000 H   0  0  0  0  0  0  0  0  0  0  0  0
    7.1592   -0.2710    0.0000 H   0  0  0  0  0  0  0  0  0  0  0  0
    8.0062   -0.4980    0.0000 H   0  0  0  0  0  0  0  0  0  0  0  0
    8.2331    0.3490    0.0000 H   0  0  0  0  0  0  0  0  0  0  0  0
    5.7932   -0.9050    0.0000 H   0  0  0  0  0  0  0  0  0  0  0  0
    4.5981    1.7850    0.0000 H   0  0  0  0  0  0  0  0  0  0  0  0
    3.3335    1.4300    0.0000 H   0  0  0  0  0  0  0  0  0  0  0  0
    4.1306    1.4300    0.0000 H   0  0  0  0  0  0  0  0  0  0  0  0
    6.0010    2.2150    0.0000 H   0  0  0  0  0  0  0  0  0  0  0  0
    2.8660    1.7850    0.0000 H   0  0  0  0  0  0  0  0  0  0  0  0
    7.7331   -1.7850    0.0000 H   0  0  0  0  0  0  0  0  0  0  0  0
    6.1181   -2.0124    0.0000 H   0  0  0  0  0  0  0  0  0  0  0  0
    5.7196   -2.7027    0.0000 H   0  0  0  0  0  0  0  0  0  0  0  0
    8.0622   -3.2150    0.0000 H   0  0  0  0  0  0  0  0  0  0  0  0
    1.6900    2.4419    0.0000 H   0  0  0  0  0  0  0  0  0  0  0  0
    1.4631    1.5950    0.0000 H   0  0  0  0  0  0  0  0  0  0  0  0
    2.3100    1.3681    0.0000 H   0  0  0  0  0  0  0  0  0  0  0  0
    3.4860    3.4050    0.0000 H   0  0  0  0  0  0  0  0  0  0  0  0
    2.8660    4.0250    0.0000 H   0  0  0  0  0  0  0  0  0  0  0  0
    2.2460    3.4050    0.0000 H   0  0  0  0  0  0  0  0  0  0  0  0
    6.0010    3.5950    0.0000 H   0  0  0  0  0  0  0  0  0  0  0  0
    4.9272    4.5950    0.0000 H   0  0  0  0  0  0  0  0  0  0  0  0
    9.7942   -1.9750    0.0000 H   0  0  0  0  0  0  0  0  0  0  0  0
    3.9875    5.5127    0.0000 H   0  0  0  0  0  0  0  0  0  0  0  0
    4.3860    4.8224    0.0000 H   0  0  0  0  0  0  0  0  0  0  0  0
    9.1836   -3.4873    0.0000 H   0  0  0  0  0  0  0  0  0  0  0  0
    9.5822   -4.1776    0.0000 H   0  0  0  0  0  0  0  0  0  0  0  0
    7.7331   -3.7850    0.0000 H   0  0  0  0  0  0  0  0  0  0  0  0
    5.2087    6.2973    0.0000 H   0  0  0  0  0  0  0  0  0  0  0  0
    4.8101    6.9876    0.0000 H   0  0  0  0  0  0  0  0  0  0  0  0
   10.6603   -1.4750    0.0000 H   0  0  0  0  0  0  0  0  0  0  0  0
   11.2708   -4.2027    0.0000 H   0  0  0  0  0  0  0  0  0  0  0  0
   10.8723   -3.5124    0.0000 H   0  0  0  0  0  0  0  0  0  0  0  0
    4.9272   -5.4050    0.0000 H   0  0  0  0  0  0  0  0  0  0  0  0
    4.9081   -3.0581    0.0000 H   0  0  0  0  0  0  0  0  0  0  0  0
    4.0611   -3.2850    0.0000 H   0  0  0  0  0  0  0  0  0  0  0  0
    4.2881   -4.1319    0.0000 H   0  0  0  0  0  0  0  0  0  0  0  0
    7.7331   -5.4050    0.0000 H   0  0  0  0  0  0  0  0  0  0  0  0
   12.3923   -2.7150    0.0000 H   0  0  0  0  0  0  0  0  0  0  0  0
    4.0420    7.4419    0.0000 H   0  0  0  0  0  0  0  0  0  0  0  0
    3.1951    7.2150    0.0000 H   0  0  0  0  0  0  0  0  0  0  0  0
    3.4220    6.3681    0.0000 H   0  0  0  0  0  0  0  0  0  0  0  0
    6.3301   -6.2150    0.0000 H   0  0  0  0  0  0  0  0  0  0  0  0
   12.1803   -0.5124    0.0000 H   0  0  0  0  0  0  0  0  0  0  0  0
   11.7817   -1.2027    0.0000 H   0  0  0  0  0  0  0  0  0  0  0  0
   13.7953   -2.2850    0.0000 H   0  0  0  0  0  0  0  0  0  0  0  0
    6.8671    6.7150    0.0000 H   0  0  0  0  0  0  0  0  0  0  0  0
    7.7331    5.2150    0.0000 H   0  0  0  0  0  0  0  0  0  0  0  0
   14.7349   -4.2027    0.0000 H   0  0  0  0  0  0  0  0  0  0  0  0
   14.3364   -3.5124    0.0000 H   0  0  0  0  0  0  0  0  0  0  0  0
   11.5263   -6.2150    0.0000 H   0  0  0  0  0  0  0  0  0  0  0  0
   13.5138   -4.9873    0.0000 H   0  0  0  0  0  0  0  0  0  0  0  0
   13.9123   -5.6776    0.0000 H   0  0  0  0  0  0  0  0  0  0  0  0
   13.7953    0.7150    0.0000 H   0  0  0  0  0  0  0  0  0  0  0  0
   15.5273   -6.9050    0.0000 H   0  0  0  0  0  0  0  0  0  0  0  0
  1 26  2  0  0  0  0
  2 31  2  0  0  0  0
  3 32  2  0  0  0  0
  4 39  2  0  0  0  0
  5 60  1  0  0  0  0
  5113  1  0  0  0  0
  6 60  1  0  0  0  0
  6114  1  0  0  0  0
  7 48  2  0  0  0  0
  8 54  1  0  0  0  0
  8117  1  0  0  0  0
  9 54  2  0  0  0  0
 10 56  1  0  0  0  0
 10120  1  0  0  0  0
 11 55  2  0  0  0  0
 12 56  2  0  0  0  0
 13 59  1  0  0  0  0
 13121  1  0  0  0  0
 14 59  2  0  0  0  0
 22 15  1  6  0  0  0
 15 31  1  0  0  0  0
 15 71  1  0  0  0  0
 16 26  1  0  0  0  0
 27 16  1  1  0  0  0
 16 75  1  0  0  0  0
 30 17  1  1  0  0  0
 17 39  1  0  0  0  0
 17 80  1  0  0  0  0
 18 32  1  0  0  0  0
 18 36  1  0  0  0  0
 18 87  1  0  0  0  0
 38 19  1  1  0  0  0
 19 48  1  0  0  0  0
 19 97  1  0  0  0  0
 50 20  1  6  0  0  0
 20 55  1  0  0  0  0
 20112  1  0  0  0  0
 21 22  1  0  0  0  0
 21 23  1  0  0  0  0
 21 24  1  0  0  0  0
 21 25  1  0  0  0  0
 22 26  1  0  0  0  0
 22 61  1  0  0  0  0
 23 62  1  0  0  0  0
 23 63  1  0  0  0  0
 23 64  1  0  0  0  0
 24 65  1  0  0  0  0
 24 66  1  0  0  0  0
 24 67  1  0  0  0  0
 25 68  1  0  0  0  0
 25 69  1  0  0  0  0
 25 70  1  0  0  0  0
 27 28  1  0  0  0  0
 27 32  1  0  0  0  0
 27 72  1  0  0  0  0
 28 29  1  0  0  0  0
 28 73  1  0  0  0  0
 28 74  1  0  0  0  0
 29 34  1  0  0  0  0
 29 35  1  0  0  0  0
 29 76  1  0  0  0  0
 30 31  1  0  0  0  0
 30 33  1  0  0  0  0
 30 77  1  0  0  0  0
 33 37  1  0  0  0  0
 33 78  1  0  0  0  0
 33 79  1  0  0  0  0
 34 81  1  0  0  0  0
 34 82  1  0  0  0  0
 34 83  1  0  0  0  0
 35 84  1  0  0  0  0
 35 85  1  0  0  0  0
 35 86  1  0  0  0  0
 36 40  1  0  0  0  0
 36 60  1  0  0  0  0
 36 88  1  0  0  0  0
 37 42  1  0  0  0  0
 37 43  2  0  0  0  0
 38 39  1  0  0  0  0
 38 41  1  0  0  0  0
 38 89  1  0  0  0  0
 40 44  1  0  0  0  0
 40 90  1  0  0  0  0
 40 91  1  0  0  0  0
 41 45  1  0  0  0  0
 41 92  1  0  0  0  0
 41 93  1  0  0  0  0
 42 46  2  0  0  0  0
 42 47  1  0  0  0  0
 43 49  1  0  0  0  0
 43 94  1  0  0  0  0
 44 51  1  0  0  0  0
 44 95  1  0  0  0  0
 44 96  1  0  0  0  0
 45 54  1  0  0  0  0
 45 98  1  0  0  0  0
 45 99  1  0  0  0  0
 46 52  1  0  0  0  0
 46100  1  0  0  0  0
 47101  1  0  0  0  0
 47102  1  0  0  0  0
 47103  1  0  0  0  0
 48 50  1  0  0  0  0
 49 52  2  0  0  0  0
 49104  1  0  0  0  0
 50 53  1  0  0  0  0
 50105  1  0  0  0  0
 51106  1  0  0  0  0
 51107  1  0  0  0  0
 51108  1  0  0  0  0
 52109  1  0  0  0  0
 53 56  1  0  0  0  0
 53110  1  0  0  0  0
 53111  1  0  0  0  0
 55 57  1  0  0  0  0
 57 58  1  0  0  0  0
 57115  1  0  0  0  0
 57116  1  0  0  0  0
 58 59  1  0  0  0  0
 58118  1  0  0  0  0
 58119  1  0  0  0  0
M  END
> <PUBCHEM_COMPOUND_CID>
500569
> <PUBCHEM_COMPOUND_CANONICALIZED>
1
> <PUBCHEM_CACTVS_COMPLEXITY>
1510
> <PUBCHEM_CACTVS_HBOND_ACCEPTOR>
14
> <PUBCHEM_CACTVS_HBOND_DONOR>
11
> <PUBCHEM_CACTVS_ROTATABLE_BOND>
27
> <PUBCHEM_CACTVS_SUBSKEYS>
AAADcfJ/vAAAAAAAAAAAAAAAAAAAAAAAAAAwAAAAAAAAAAABAAAoHgAQCAAADyjBmAQyCILAAgCIAiHSGAACAAAgAAAIiIGIAIgIYDqAkTGUYAAmlgCIiAe/n4KPgAAAAAAQAAAAAAAAACAAAAAAAAAAAA==
> <PUBCHEM_IUPAC_OPENEYE_NAME>
(4S)-5-[[(1S)-2-[[(1S)-1-[[(1S)-1-(1-boronobutylcarbamoyl)-3-methyl-butyl]carbamoyl]-2,2-dimethyl-propyl]amino]-1-(o-tolylmethyl)-2-oxo-ethyl]amino]-4-[[(2S)-3-carboxy-2-(3-carboxypropanoylamino)propanoyl]amino]-5-oxo-pentanoic acid
> <PUBCHEM_IUPAC_CAS_NAME>
(4S)-5-[[(2S)-1-[[(2S)-1-[[(2S)-1-(1-boronobutylamino)-4-methyl-1-oxopentan-2-yl]amino]-3,3-dimethyl-1-oxobutan-2-yl]amino]-3-(2-methylphenyl)-1-oxopropan-2-yl]amino]-4-[[(2S)-3-carboxy-2-[(3-carboxy-1-oxopropyl)amino]-1-oxopropyl]amino]-5-oxopentanoic acid
> <PUBCHEM_IUPAC_NAME_MARKUP>
(4<I>S</I>)-5-[[(2<I>S</I>)-1-[[(2<I>S</I>)-1-[[(2<I>S</I>)-1-(1-boronobutylamino)-4-methyl-1-oxopentan-2-yl]amino]-3,3-dimethyl-1-oxobutan-2-yl]amino]-3-(2-methylphenyl)-1-oxopropan-2-yl]amino]-4-[[(2<I>S</I>)-3-carboxy-2-(3-carboxypropanoylamino)propanoyl]amino]-5-oxopentanoic acid
> <PUBCHEM_IUPAC_NAME>
(4S)-5-[[(2S)-1-[[(2S)-1-[[(2S)-1-(1-boronobutylamino)-4-methyl-1-oxopentan-2-yl]amino]-3,3-dimethyl-1-oxobutan-2-yl]amino]-3-(2-methylphenyl)-1-oxopropan-2-yl]amino]-4-[[(2S)-3-carboxy-2-(3-carboxypropanoylamino)propanoyl]amino]-5-oxopentanoic acid
> <PUBCHEM_IUPAC_SYSTEMATIC_NAME>
(4S)-5-[[(2S)-1-[[(2S)-1-[[(2S)-1-[1-(dihydroxyboranyl)butylamino]-4-methyl-1-oxidanylidene-pentan-2-yl]amino]-3,3-dimethyl-1-oxidanylidene-butan-2-yl]amino]-3-(2-methylphenyl)-1-oxidanylidene-propan-2-yl]amino]-5-oxidanylidene-4-[[(2S)-4-oxidanyl-4-oxidanylidene-2-[(4-oxidanyl-4-oxidanylidene-butanoyl)amino]butanoyl]amino]pentanoic acid
> <PUBCHEM_IUPAC_TRADITIONAL_NAME>
(4S)-5-[[(1S)-2-[[(1S)-1-[[(1S)-1-(1-boronobutylcarbamoyl)-3-methyl-butyl]carbamoyl]-2,2-dimethyl-propyl]amino]-2-keto-1-(2-methylbenzyl)ethyl]amino]-4-[[(2S)-3-carboxy-2-(3-carboxypropanoylamino)propanoyl]amino]-5-keto-valeric acid
> <PUBCHEM_IUPAC_INCHI>
InChI=1S/C39H61BN6O14/c1-8-11-28(40(59)60)45-36(56)25(18-21(2)3)44-38(58)33(39(5,6)7)46-37(57)26(19-23-13-10-9-12-22(23)4)43-34(54)24(14-16-30(48)49)42-35(55)27(20-32(52)53)41-29(47)15-17-31(50)51/h9-10,12-13,21,24-28,33,59-60H,8,11,14-20H2,1-7H3,(H,41,47)(H,42,55)(H,43,54)(H,44,58)(H,45,56)(H,46,57)(H,48,49)(H,50,51)(H,52,53)/t24-,25-,26-,27-,28?,33+/m0/s1
> <PUBCHEM_IUPAC_INCHIKEY>
GCMYRRGEGLTUJD-JCRUYACPSA-N
> <PUBCHEM_EXACT_MASS>
848.4338808
> <PUBCHEM_MOLECULAR_FORMULA>
C39H61BN6O14
> <PUBCHEM_MOLECULAR_WEIGHT>
848.7
> <PUBCHEM_OPENEYE_CAN_SMILES>
B(C(CCC)NC(=O)C(CC(C)C)NC(=O)C(C(C)(C)C)NC(=O)C(CC1=CC=CC=C1C)NC(=O)C(CCC(=O)O)NC(=O)C(CC(=O)O)NC(=O)CCC(=O)O)(O)O
> <PUBCHEM_OPENEYE_ISO_SMILES>
B(C(CCC)NC(=O)[C@H](CC(C)C)NC(=O)[C@H](C(C)(C)C)NC(=O)[C@H](CC1=CC=CC=C1C)NC(=O)[C@H](CCC(=O)O)NC(=O)[C@H](CC(=O)O)NC(=O)CCC(=O)O)(O)O
> <PUBCHEM_CACTVS_TPSA>
327
> <PUBCHEM_MONOISOTOPIC_WEIGHT>
848.4338808
> <PUBCHEM_TOTAL_CHARGE>
0
> <PUBCHEM_HEAVY_ATOM_COUNT>
60
> <PUBCHEM_ATOM_DEF_STEREO_COUNT>
5
> <PUBCHEM_ATOM_UDEF_STEREO_COUNT>
1
> <PUBCHEM_BOND_DEF_STEREO_COUNT>
0
> <PUBCHEM_BOND_UDEF_STEREO_COUNT>
0
> <PUBCHEM_ISOTOPIC_ATOM_COUNT>
0
> <PUBCHEM_COMPONENT_COUNT>
1
> <PUBCHEM_CACTVS_TAUTO_COUNT>
-1
> <PUBCHEM_COORDINATE_TYPE>
1
5
255
> <PUBCHEM_BONDANNOTATIONS>
22  15  6
27  16  5
30  17  5
38  19  5
50  20  6
36  40  3
37  42  8
37  43  8
42  46  8
43  49  8
46  52  8
49  52  8
$$$$
