500575
  -OEChem-10302200282D
115116  0     1  0  0  0  0  0999 V2000
    2.0000    0.9151    0.0000 F   0  0  0  0  0  0  0  0  0  0  0  0
    2.2212    2.3119    0.0000 F   0  0  0  0  0  0  0  0  0  0  0  0
    3.6180    2.0906    0.0000 F   0  0  0  0  0  0  0  0  0  0  0  0
    7.0614   -3.2540    0.0000 O   0  0  0  0  0  0  0  0  0  0  0  0
    7.7425    1.0074    0.0000 O   0  0  0  0  0  0  0  0  0  0  0  0
    6.3804    1.0074    0.0000 O   0  0  0  0  0  0  0  0  0  0  0  0
   11.1328   -0.2197    0.0000 O   0  0  0  0  0  0  0  0  0  0  0  0
    2.9901   -0.2197    0.0000 O   0  0  0  0  0  0  0  0  0  0  0  0
   12.4894    3.1209    0.0000 O   0  0  0  0  0  0  0  0  0  0  0  0
   15.8797    1.8937    0.0000 O   0  0  0  0  0  0  0  0  0  0  0  0
   16.6932    0.0666    0.0000 O   0  0  0  0  0  0  0  0  0  0  0  0
   15.1109   -0.6378    0.0000 O   0  0  0  0  0  0  0  0  0  0  0  0
   15.8350    6.2524    0.0000 O   0  0  0  0  0  0  0  0  0  0  0  0
   17.2363    5.2343    0.0000 O   0  0  0  0  0  0  0  0  0  0  0  0
   16.8742    1.7892    0.0000 O   0  0  0  0  0  0  0  0  0  0  0  0
    7.5614   -0.7152    0.0000 N   0  0  0  0  0  0  0  0  0  0  0  0
    9.7315    0.7983    0.0000 N   0  0  0  0  0  0  0  0  0  0  0  0
    4.9791   -0.0107    0.0000 N   0  0  0  0  0  0  0  0  0  0  0  0
   12.3083    1.3983    0.0000 N   0  0  0  0  0  0  0  0  0  0  0  0
   14.4784    2.9118    0.0000 N   0  0  0  0  0  0  0  0  0  0  0  0
   17.0553    3.5118    0.0000 N   0  0  0  0  0  0  0  0  0  0  0  0
    6.5614   -0.7152    0.0000 C   0  0  1  0  0  0  0  0  0  0  0  0
    7.0614   -2.2540    0.0000 C   0  0  2  0  0  0  0  0  0  0  0  0
    6.2524   -1.6662    0.0000 C   0  0  0  0  0  0  0  0  0  0  0  0
    7.8704   -1.6662    0.0000 C   0  0  0  0  0  0  0  0  0  0  0  0
    8.1492    0.0939    0.0000 C   0  0  0  0  0  0  0  0  0  0  0  0
    9.1437   -0.0107    0.0000 C   0  0  2  0  0  0  0  0  0  0  0  0
    5.9736    0.0939    0.0000 C   0  0  0  0  0  0  0  0  0  0  0  0
    9.5505   -0.9242    0.0000 C   0  0  0  0  0  0  0  0  0  0  0  0
   11.3138    1.5028    0.0000 C   0  0  2  0  0  0  0  0  0  0  0  0
    6.1954   -3.7540    0.0000 C   0  0  0  0  0  0  0  0  0  0  0  0
   10.5450   -1.0287    0.0000 C   0  0  0  0  0  0  0  0  0  0  0  0
    8.9627   -1.7332    0.0000 C   0  0  0  0  0  0  0  0  0  0  0  0
    4.3913    0.7983    0.0000 C   0  0  3  0  0  0  0  0  0  0  0  0
   10.7260    0.6938    0.0000 C   0  0  0  0  0  0  0  0  0  0  0  0
   10.9071    2.4164    0.0000 C   0  0  2  0  0  0  0  0  0  0  0  0
    4.7981    1.7119    0.0000 C   0  0  0  0  0  0  0  0  0  0  0  0
   11.4949    3.2254    0.0000 C   0  0  0  0  0  0  0  0  0  0  0  0
    6.1954   -4.7540    0.0000 C   0  0  0  0  0  0  0  0  0  0  0  0
    9.9126    2.5209    0.0000 C   0  0  0  0  0  0  0  0  0  0  0  0
    3.3968    0.6938    0.0000 C   0  0  0  0  0  0  0  0  0  0  0  0
   12.8961    2.2073    0.0000 C   0  0  0  0  0  0  0  0  0  0  0  0
    4.2103    2.5209    0.0000 C   0  0  0  0  0  0  0  0  0  0  0  0
   11.0881    4.1389    0.0000 C   0  0  0  0  0  0  0  0  0  0  0  0
   13.8906    2.1028    0.0000 C   0  0  1  0  0  0  0  0  0  0  0  0
    7.0614   -5.2540    0.0000 C   0  0  0  0  0  0  0  0  0  0  0  0
    5.3294   -5.2540    0.0000 C   0  0  0  0  0  0  0  0  0  0  0  0
    2.8090    1.5028    0.0000 C   0  0  0  0  0  0  0  0  0  0  0  0
   14.2974    1.1892    0.0000 C   0  0  0  0  0  0  0  0  0  0  0  0
    7.0614   -6.2540    0.0000 C   0  0  0  0  0  0  0  0  0  0  0  0
    5.3294   -6.2540    0.0000 C   0  0  0  0  0  0  0  0  0  0  0  0
   15.2919    1.0847    0.0000 C   0  0  0  0  0  0  0  0  0  0  0  0
    6.1954   -6.7540    0.0000 C   0  0  0  0  0  0  0  0  0  0  0  0
   15.4730    2.8073    0.0000 C   0  0  0  0  0  0  0  0  0  0  0  0
   16.0607    3.6163    0.0000 C   0  0  2  0  0  0  0  0  0  0  0  0
   15.6986    0.1712    0.0000 C   0  0  0  0  0  0  0  0  0  0  0  0
   15.6540    4.5298    0.0000 C   0  0  0  0  0  0  0  0  0  0  0  0
   16.2418    5.3389    0.0000 C   0  0  0  0  0  0  0  0  0  0  0  0
   17.4620    2.5982    0.0000 C   0  0  0  0  0  0  0  0  0  0  0  0
   18.4565    2.4937    0.0000 C   0  0  0  0  0  0  0  0  0  0  0  0
    6.8429   -0.1627    0.0000 H   0  0  0  0  0  0  0  0  0  0  0  0
    7.6138   -2.5355    0.0000 H   0  0  0  0  0  0  0  0  0  0  0  0
    5.6860   -1.4140    0.0000 H   0  0  0  0  0  0  0  0  0  0  0  0
    5.9424   -2.2032    0.0000 H   0  0  0  0  0  0  0  0  0  0  0  0
    8.1804   -2.2032    0.0000 H   0  0  0  0  0  0  0  0  0  0  0  0
    8.4368   -1.4140    0.0000 H   0  0  0  0  0  0  0  0  0  0  0  0
    8.8916    0.5557    0.0000 H   0  0  0  0  0  0  0  0  0  0  0  0
    8.9339   -0.8594    0.0000 H   0  0  0  0  0  0  0  0  0  0  0  0
    9.4793    1.3647    0.0000 H   0  0  0  0  0  0  0  0  0  0  0  0
    4.7269   -0.5771    0.0000 H   0  0  0  0  0  0  0  0  0  0  0  0
   11.5660    0.9364    0.0000 H   0  0  0  0  0  0  0  0  0  0  0  0
    5.9833   -3.1714    0.0000 H   0  0  0  0  0  0  0  0  0  0  0  0
    5.5848   -3.8617    0.0000 H   0  0  0  0  0  0  0  0  0  0  0  0
   10.4802   -1.6454    0.0000 H   0  0  0  0  0  0  0  0  0  0  0  0
   11.1616   -1.0936    0.0000 H   0  0  0  0  0  0  0  0  0  0  0  0
   10.6098   -0.4121    0.0000 H   0  0  0  0  0  0  0  0  0  0  0  0
    8.4611   -1.3688    0.0000 H   0  0  0  0  0  0  0  0  0  0  0  0
    8.5982   -2.2348    0.0000 H   0  0  0  0  0  0  0  0  0  0  0  0
    9.4643   -2.0977    0.0000 H   0  0  0  0  0  0  0  0  0  0  0  0
    4.1392    0.2319    0.0000 H   0  0  0  0  0  0  0  0  0  0  0  0
   10.6549    2.9828    0.0000 H   0  0  0  0  0  0  0  0  0  0  0  0
    5.3121    1.3652    0.0000 H   0  0  0  0  0  0  0  0  0  0  0  0
    5.2288    2.1579    0.0000 H   0  0  0  0  0  0  0  0  0  0  0  0
   11.9256    2.7794    0.0000 H   0  0  0  0  0  0  0  0  0  0  0  0
   12.0089    3.5721    0.0000 H   0  0  0  0  0  0  0  0  0  0  0  0
   12.5605    0.8319    0.0000 H   0  0  0  0  0  0  0  0  0  0  0  0
    9.9774    3.1375    0.0000 H   0  0  0  0  0  0  0  0  0  0  0  0
    9.2960    2.5857    0.0000 H   0  0  0  0  0  0  0  0  0  0  0  0
    9.8478    1.9043    0.0000 H   0  0  0  0  0  0  0  0  0  0  0  0
   11.6545    4.3911    0.0000 H   0  0  0  0  0  0  0  0  0  0  0  0
   10.8360    4.7053    0.0000 H   0  0  0  0  0  0  0  0  0  0  0  0
   10.5217    3.8868    0.0000 H   0  0  0  0  0  0  0  0  0  0  0  0
   13.6385    2.6692    0.0000 H   0  0  0  0  0  0  0  0  0  0  0  0
    4.7119    2.8853    0.0000 H   0  0  0  0  0  0  0  0  0  0  0  0
    3.8458    3.0225    0.0000 H   0  0  0  0  0  0  0  0  0  0  0  0
    3.7087    2.1565    0.0000 H   0  0  0  0  0  0  0  0  0  0  0  0
    7.5984   -4.9440    0.0000 H   0  0  0  0  0  0  0  0  0  0  0  0
    4.7924   -4.9440    0.0000 H   0  0  0  0  0  0  0  0  0  0  0  0
   13.6958    1.0393    0.0000 H   0  0  0  0  0  0  0  0  0  0  0  0
   14.3406    0.5708    0.0000 H   0  0  0  0  0  0  0  0  0  0  0  0
   14.2263    3.4782    0.0000 H   0  0  0  0  0  0  0  0  0  0  0  0
    7.5984   -6.5640    0.0000 H   0  0  0  0  0  0  0  0  0  0  0  0
    4.7924   -6.5640    0.0000 H   0  0  0  0  0  0  0  0  0  0  0  0
   15.8935    1.2347    0.0000 H   0  0  0  0  0  0  0  0  0  0  0  0
   15.2487    1.7032    0.0000 H   0  0  0  0  0  0  0  0  0  0  0  0
    6.1954   -7.3740    0.0000 H   0  0  0  0  0  0  0  0  0  0  0  0
   16.3129    3.0499    0.0000 H   0  0  0  0  0  0  0  0  0  0  0  0
   15.2233    4.9758    0.0000 H   0  0  0  0  0  0  0  0  0  0  0  0
   15.1400    4.1832    0.0000 H   0  0  0  0  0  0  0  0  0  0  0  0
   17.4197    4.0134    0.0000 H   0  0  0  0  0  0  0  0  0  0  0  0
   16.9453   -0.4998    0.0000 H   0  0  0  0  0  0  0  0  0  0  0  0
   18.3917    1.8771    0.0000 H   0  0  0  0  0  0  0  0  0  0  0  0
   19.0731    2.4289    0.0000 H   0  0  0  0  0  0  0  0  0  0  0  0
   18.5213    3.1103    0.0000 H   0  0  0  0  0  0  0  0  0  0  0  0
   16.1995    6.7540    0.0000 H   0  0  0  0  0  0  0  0  0  0  0  0
  1 48  1  0  0  0  0
  2 48  1  0  0  0  0
  3 48  1  0  0  0  0
 23  4  1  6  0  0  0
  4 31  1  0  0  0  0
  5 26  2  0  0  0  0
  6 28  2  0  0  0  0
  7 35  2  0  0  0  0
  8 41  2  0  0  0  0
  9 42  2  0  0  0  0
 10 54  2  0  0  0  0
 11 56  1  0  0  0  0
 11111  1  0  0  0  0
 12 56  2  0  0  0  0
 13 58  1  0  0  0  0
 13115  1  0  0  0  0
 14 58  2  0  0  0  0
 15 59  2  0  0  0  0
 16 22  1  0  0  0  0
 16 25  1  0  0  0  0
 16 26  1  0  0  0  0
 27 17  1  1  0  0  0
 17 35  1  0  0  0  0
 17 69  1  0  0  0  0
 18 28  1  0  0  0  0
 18 34  1  0  0  0  0
 18 70  1  0  0  0  0
 30 19  1  6  0  0  0
 19 42  1  0  0  0  0
 19 86  1  0  0  0  0
 45 20  1  6  0  0  0
 20 54  1  0  0  0  0
 20101  1  0  0  0  0
 55 21  1  6  0  0  0
 21 59  1  0  0  0  0
 21110  1  0  0  0  0
 22 24  1  0  0  0  0
 22 28  1  1  0  0  0
 22 61  1  0  0  0  0
 23 24  1  0  0  0  0
 23 25  1  0  0  0  0
 23 62  1  0  0  0  0
 24 63  1  0  0  0  0
 24 64  1  0  0  0  0
 25 65  1  0  0  0  0
 25 66  1  0  0  0  0
 26 27  1  0  0  0  0
 27 29  1  0  0  0  0
 27 67  1  0  0  0  0
 29 32  1  0  0  0  0
 29 33  1  0  0  0  0
 29 68  1  0  0  0  0
 30 35  1  0  0  0  0
 30 36  1  0  0  0  0
 30 71  1  0  0  0  0
 31 39  1  0  0  0  0
 31 72  1  0  0  0  0
 31 73  1  0  0  0  0
 32 74  1  0  0  0  0
 32 75  1  0  0  0  0
 32 76  1  0  0  0  0
 33 77  1  0  0  0  0
 33 78  1  0  0  0  0
 33 79  1  0  0  0  0
 34 37  1  0  0  0  0
 34 41  1  0  0  0  0
 34 80  1  0  0  0  0
 36 38  1  0  0  0  0
 36 40  1  1  0  0  0
 36 81  1  0  0  0  0
 37 43  1  0  0  0  0
 37 82  1  0  0  0  0
 37 83  1  0  0  0  0
 38 44  1  0  0  0  0
 38 84  1  0  0  0  0
 38 85  1  0  0  0  0
 39 46  2  0  0  0  0
 39 47  1  0  0  0  0
 40 87  1  0  0  0  0
 40 88  1  0  0  0  0
 40 89  1  0  0  0  0
 41 48  1  0  0  0  0
 42 45  1  0  0  0  0
 43 94  1  0  0  0  0
 43 95  1  0  0  0  0
 43 96  1  0  0  0  0
 44 90  1  0  0  0  0
 44 91  1  0  0  0  0
 44 92  1  0  0  0  0
 45 49  1  0  0  0  0
 45 93  1  0  0  0  0
 46 50  1  0  0  0  0
 46 97  1  0  0  0  0
 47 51  2  0  0  0  0
 47 98  1  0  0  0  0
 49 52  1  0  0  0  0
 49 99  1  0  0  0  0
 49100  1  0  0  0  0
 50 53  2  0  0  0  0
 50102  1  0  0  0  0
 51 53  1  0  0  0  0
 51103  1  0  0  0  0
 52 56  1  0  0  0  0
 52104  1  0  0  0  0
 52105  1  0  0  0  0
 53106  1  0  0  0  0
 54 55  1  0  0  0  0
 55 57  1  0  0  0  0
 55107  1  0  0  0  0
 57 58  1  0  0  0  0
 57108  1  0  0  0  0
 57109  1  0  0  0  0
 59 60  1  0  0  0  0
 60112  1  0  0  0  0
 60113  1  0  0  0  0
 60114  1  0  0  0  0
M  END
> <PUBCHEM_COMPOUND_CID>
500575
> <PUBCHEM_COMPOUND_CANONICALIZED>
1
> <PUBCHEM_CACTVS_COMPLEXITY>
1560
> <PUBCHEM_CACTVS_HBOND_ACCEPTOR>
15
> <PUBCHEM_CACTVS_HBOND_DONOR>
7
> <PUBCHEM_CACTVS_ROTATABLE_BOND>
23
> <PUBCHEM_CACTVS_SUBSKEYS>
AAADcfB/vYAAAAAAAAAAAAAAAAAAAWAAAAAwAAAAAAAAAAABAAAAHwAQCAAADTzhmBYyCIPABgCIAqHSGAACAAAgAAAIiIGICIgKZjqAsTiXcAAm1gGYqAe/1yIOAAAAAAAAAAAAAAAAAAAAAAAAAAAAAA==
> <PUBCHEM_IUPAC_OPENEYE_NAME>
(4R)-4-[[(2S)-2-acetamido-3-carboxy-propanoyl]amino]-5-[[(1S,2S)-1-[[(1S)-1-[(2S,4R)-4-benzyloxy-2-[(1-ethyl-3,3,3-trifluoro-2-oxo-propyl)carbamoyl]pyrrolidine-1-carbonyl]-2-methyl-propyl]carbamoyl]-2-methyl-butyl]amino]-5-oxo-pentanoic acid
> <PUBCHEM_IUPAC_CAS_NAME>
(4R)-4-[[(2S)-2-acetamido-3-carboxy-1-oxopropyl]amino]-5-[[(2S,3S)-3-methyl-1-[[(2S)-3-methyl-1-oxo-1-[(2S,4R)-2-[oxo-[(1,1,1-trifluoro-2-oxopentan-3-yl)amino]methyl]-4-phenylmethoxy-1-pyrrolidinyl]butan-2-yl]amino]-1-oxopentan-2-yl]amino]-5-oxopentanoic acid
> <PUBCHEM_IUPAC_NAME_MARKUP>
(4<I>R</I>)-4-[[(2<I>S</I>)-2-acetamido-3-carboxypropanoyl]amino]-5-[[(2<I>S</I>,3<I>S</I>)-3-methyl-1-[[(2<I>S</I>)-3-methyl-1-oxo-1-[(2<I>S</I>,4<I>R</I>)-4-phenylmethoxy-2-[(1,1,1-trifluoro-2-oxopentan-3-yl)carbamoyl]pyrrolidin-1-yl]butan-2-yl]amino]-1-oxopentan-2-yl]amino]-5-oxopentanoic acid
> <PUBCHEM_IUPAC_NAME>
(4R)-4-[[(2S)-2-acetamido-3-carboxypropanoyl]amino]-5-[[(2S,3S)-3-methyl-1-[[(2S)-3-methyl-1-oxo-1-[(2S,4R)-4-phenylmethoxy-2-[(1,1,1-trifluoro-2-oxopentan-3-yl)carbamoyl]pyrrolidin-1-yl]butan-2-yl]amino]-1-oxopentan-2-yl]amino]-5-oxopentanoic acid
> <PUBCHEM_IUPAC_SYSTEMATIC_NAME>
(4R)-4-[[(2S)-2-acetamido-4-oxidanyl-4-oxidanylidene-butanoyl]amino]-5-[[(2S,3S)-3-methyl-1-[[(2S)-3-methyl-1-oxidanylidene-1-[(2S,4R)-4-phenylmethoxy-2-[[1,1,1-tris(fluoranyl)-2-oxidanylidene-pentan-3-yl]carbamoyl]pyrrolidin-1-yl]butan-2-yl]amino]-1-oxidanylidene-pentan-2-yl]amino]-5-oxidanylidene-pentanoic acid
> <PUBCHEM_IUPAC_TRADITIONAL_NAME>
(4R)-4-[[(2S)-2-acetamido-3-carboxy-propanoyl]amino]-5-[[(1S,2S)-1-[[(1S)-1-[(2S,4R)-4-benzoxy-2-[(1-ethyl-3,3,3-trifluoro-2-keto-propyl)carbamoyl]pyrrolidine-1-carbonyl]-2-methyl-propyl]carbamoyl]-2-methyl-butyl]amino]-5-keto-valeric acid
> <PUBCHEM_IUPAC_INCHI>
InChI=1S/C39H55F3N6O12/c1-7-21(5)32(47-34(55)26(14-15-29(50)51)45-35(56)27(17-30(52)53)43-22(6)49)37(58)46-31(20(3)4)38(59)48-18-24(60-19-23-12-10-9-11-13-23)16-28(48)36(57)44-25(8-2)33(54)39(40,41)42/h9-13,20-21,24-28,31-32H,7-8,14-19H2,1-6H3,(H,43,49)(H,44,57)(H,45,56)(H,46,58)(H,47,55)(H,50,51)(H,52,53)/t21-,24+,25?,26+,27-,28-,31-,32-/m0/s1
> <PUBCHEM_IUPAC_INCHIKEY>
KTFYMCAWNQWJTC-IFQVZHAKSA-N
> <PUBCHEM_XLOGP3_AA>
2.3
> <PUBCHEM_EXACT_MASS>
856.38300570
> <PUBCHEM_MOLECULAR_FORMULA>
C39H55F3N6O12
> <PUBCHEM_MOLECULAR_WEIGHT>
856.9
> <PUBCHEM_OPENEYE_CAN_SMILES>
CCC(C)C(C(=O)NC(C(C)C)C(=O)N1CC(CC1C(=O)NC(CC)C(=O)C(F)(F)F)OCC2=CC=CC=C2)NC(=O)C(CCC(=O)O)NC(=O)C(CC(=O)O)NC(=O)C
> <PUBCHEM_OPENEYE_ISO_SMILES>
CC[C@H](C)[C@@H](C(=O)N[C@@H](C(C)C)C(=O)N1C[C@@H](C[C@H]1C(=O)NC(CC)C(=O)C(F)(F)F)OCC2=CC=CC=C2)NC(=O)[C@@H](CCC(=O)O)NC(=O)[C@H](CC(=O)O)NC(=O)C
> <PUBCHEM_CACTVS_TPSA>
267
> <PUBCHEM_MONOISOTOPIC_WEIGHT>
856.38300570
> <PUBCHEM_TOTAL_CHARGE>
0
> <PUBCHEM_HEAVY_ATOM_COUNT>
60
> <PUBCHEM_ATOM_DEF_STEREO_COUNT>
7
> <PUBCHEM_ATOM_UDEF_STEREO_COUNT>
1
> <PUBCHEM_BOND_DEF_STEREO_COUNT>
0
> <PUBCHEM_BOND_UDEF_STEREO_COUNT>
0
> <PUBCHEM_ISOTOPIC_ATOM_COUNT>
0
> <PUBCHEM_COMPONENT_COUNT>
1
> <PUBCHEM_CACTVS_TAUTO_COUNT>
-1
> <PUBCHEM_COORDINATE_TYPE>
1
5
255
> <PUBCHEM_BONDANNOTATIONS>
27  17  5
30  19  6
45  20  6
55  21  6
22  28  5
34  37  3
36  40  5
39  46  8
39  47  8
23  4  6
46  50  8
47  51  8
50  53  8
51  53  8
$$$$
