500557
  -OEChem-10302200282D
187190  0     1  0  0  0  0  0999 V2000
   11.4424   -2.8930    0.0000 S   0  0  0  0  0  0  0  0  0  0  0  0
   18.1072    8.6070    0.0000 S   0  0  0  0  0  0  0  0  0  0  0  0
   10.1981   -1.4471    0.0000 O   0  0  0  0  0  0  0  0  0  0  0  0
   12.3085    0.6070    0.0000 O   0  0  0  0  0  0  0  0  0  0  0  0
    6.6018   -1.7050    0.0000 O   0  0  0  0  0  0  0  0  0  0  0  0
   13.1745    0.1070    0.0000 O   0  0  0  0  0  0  0  0  0  0  0  0
    6.7212   -5.3086    0.0000 O   0  0  0  0  0  0  0  0  0  0  0  0
   15.9065    0.6070    0.0000 O   0  0  0  0  0  0  0  0  0  0  0  0
   15.9065   -2.3930    0.0000 O   0  0  0  0  0  0  0  0  0  0  0  0
    2.5896   -3.9192    0.0000 O   0  0  0  0  0  0  0  0  0  0  0  0
    6.5133   -6.2867    0.0000 O   0  0  0  0  0  0  0  0  0  0  0  0
    3.1249   -5.5665    0.0000 O   0  0  0  0  0  0  0  0  0  0  0  0
   16.3751    4.6070    0.0000 O   0  0  0  0  0  0  0  0  0  0  0  0
    6.6327   -9.8903    0.0000 O   0  0  0  0  0  0  0  0  0  0  0  0
   15.3751    4.1070    0.0000 O   0  0  0  0  0  0  0  0  0  0  0  0
    8.1790    4.1070    0.0000 O   0  0  0  0  0  0  0  0  0  0  0  0
   13.6431    7.1070    0.0000 O   0  0  0  0  0  0  0  0  0  0  0  0
    4.9385   -9.5302    0.0000 O   0  0  0  0  0  0  0  0  0  0  0  0
   10.9110    4.6070    0.0000 O   0  0  0  0  0  0  0  0  0  0  0  0
    8.1790    7.1070    0.0000 O   0  0  0  0  0  0  0  0  0  0  0  0
    4.5809    6.1070    0.0000 O   0  0  0  0  0  0  0  0  0  0  0  0
    5.4469    4.6070    0.0000 O   0  0  0  0  0  0  0  0  0  0  0  0
    8.3130    9.1070    0.0000 O   0  0  0  0  0  0  0  0  0  0  0  0
    9.6629    0.2002    0.0000 N   0  0  0  0  0  0  0  0  0  0  0  0
    8.2960   -2.0651    0.0000 N   0  0  0  0  0  0  0  0  0  0  0  0
   11.4424   -0.8930    0.0000 N   0  0  0  0  0  0  0  0  0  0  0  0
    6.1860   -3.6613    0.0000 N   0  0  0  0  0  0  0  0  0  0  0  0
   14.1745   -1.3930    0.0000 N   0  0  0  0  0  0  0  0  0  0  0  0
    4.8191   -5.9266    0.0000 N   0  0  0  0  0  0  0  0  0  0  0  0
   18.1072    5.6070    0.0000 N   0  0  0  0  0  0  0  0  0  0  0  0
    4.4033   -7.8829    0.0000 N   0  0  0  0  0  0  0  0  0  0  0  0
   15.3751    6.1070    0.0000 N   0  0  0  0  0  0  0  0  0  0  0  0
   12.6431    5.6070    0.0000 N   0  0  0  0  0  0  0  0  0  0  0  0
    9.9110    6.1070    0.0000 N   0  0  0  0  0  0  0  0  0  0  0  0
    7.1790    5.6070    0.0000 N   0  0  0  0  0  0  0  0  0  0  0  0
    3.8721    7.9389    0.0000 N   0  0  0  0  0  0  0  0  0  0  0  0
   10.5764    0.6070    0.0000 C   0  0  1  0  0  0  0  0  0  0  0  0
   10.4719    1.6015    0.0000 C   0  0  0  0  0  0  0  0  0  0  0  0
    8.9937    0.9434    0.0000 C   0  0  0  0  0  0  0  0  0  0  0  0
    9.4937    1.8094    0.0000 C   0  0  0  0  0  0  0  0  0  0  0  0
    8.5039   -1.0869    0.0000 C   0  0  2  0  0  0  0  0  0  0  0  0
    9.4550   -0.7779    0.0000 C   0  0  0  0  0  0  0  0  0  0  0  0
   11.4424    0.1070    0.0000 C   0  0  0  0  0  0  0  0  0  0  0  0
    7.7608   -0.4178    0.0000 C   0  0  0  0  0  0  0  0  0  0  0  0
    6.8097   -0.7268    0.0000 C   0  0  0  0  0  0  0  0  0  0  0  0
    7.9687    0.5603    0.0000 C   0  0  0  0  0  0  0  0  0  0  0  0
    7.1370   -3.3523    0.0000 C   0  0  2  0  0  0  0  0  0  0  0  0
    7.3449   -2.3741    0.0000 C   0  0  0  0  0  0  0  0  0  0  0  0
    7.8802   -4.0214    0.0000 C   0  0  2  0  0  0  0  0  0  0  0  0
   12.3085   -1.3930    0.0000 C   0  0  1  0  0  0  0  0  0  0  0  0
    7.6723   -4.9995    0.0000 C   0  0  0  0  0  0  0  0  0  0  0  0
    8.8312   -3.7124    0.0000 C   0  0  0  0  0  0  0  0  0  0  0  0
   12.3085   -2.3930    0.0000 C   0  0  0  0  0  0  0  0  0  0  0  0
   13.1745   -0.8930    0.0000 C   0  0  0  0  0  0  0  0  0  0  0  0
    8.4154   -5.6687    0.0000 C   0  0  0  0  0  0  0  0  0  0  0  0
    5.9781   -4.6394    0.0000 C   0  0  0  0  0  0  0  0  0  0  0  0
    5.0270   -4.9484    0.0000 C   0  0  2  0  0  0  0  0  0  0  0  0
   15.0405   -0.8930    0.0000 C   0  0  1  0  0  0  0  0  0  0  0  0
    4.2839   -4.2793    0.0000 C   0  0  0  0  0  0  0  0  0  0  0  0
   15.0405    0.1070    0.0000 C   0  0  0  0  0  0  0  0  0  0  0  0
   15.9065   -1.3930    0.0000 C   0  0  0  0  0  0  0  0  0  0  0  0
    5.5622   -6.5957    0.0000 C   0  0  0  0  0  0  0  0  0  0  0  0
    3.3328   -4.5883    0.0000 C   0  0  0  0  0  0  0  0  0  0  0  0
   17.2412    6.1070    0.0000 C   0  0  1  0  0  0  0  0  0  0  0  0
    5.3543   -7.5739    0.0000 C   0  0  2  0  0  0  0  0  0  0  0  0
   17.2412    7.1070    0.0000 C   0  0  0  0  0  0  0  0  0  0  0  0
   16.3751    5.6070    0.0000 C   0  0  0  0  0  0  0  0  0  0  0  0
    6.0975   -8.2430    0.0000 C   0  0  0  0  0  0  0  0  0  0  0  0
   18.1072    7.6070    0.0000 C   0  0  0  0  0  0  0  0  0  0  0  0
   14.5091    5.6070    0.0000 C   0  0  2  0  0  0  0  0  0  0  0  0
   11.7771    6.1070    0.0000 C   0  0  1  0  0  0  0  0  0  0  0  0
    9.0450    5.6070    0.0000 C   0  0  1  0  0  0  0  0  0  0  0  0
   13.6431    6.1070    0.0000 C   0  0  0  0  0  0  0  0  0  0  0  0
    5.8896   -9.2211    0.0000 C   0  0  0  0  0  0  0  0  0  0  0  0
   11.7771    7.1070    0.0000 C   0  0  0  0  0  0  0  0  0  0  0  0
   14.5091    4.6070    0.0000 C   0  0  0  0  0  0  0  0  0  0  0  0
    6.3130    6.1070    0.0000 C   0  0  1  0  0  0  0  0  0  0  0  0
    9.0450    4.6070    0.0000 C   0  0  1  0  0  0  0  0  0  0  0  0
   10.9110    5.6070    0.0000 C   0  0  0  0  0  0  0  0  0  0  0  0
    6.3130    7.1070    0.0000 C   0  0  0  0  0  0  0  0  0  0  0  0
    8.1790    6.1070    0.0000 C   0  0  0  0  0  0  0  0  0  0  0  0
    5.4469    7.6070    0.0000 C   0  0  0  0  0  0  0  0  0  0  0  0
   10.9110    7.6070    0.0000 C   0  0  0  0  0  0  0  0  0  0  0  0
    5.3439    8.5957    0.0000 C   0  0  0  0  0  0  0  0  0  0  0  0
    9.9110    4.1070    0.0000 C   0  0  0  0  0  0  0  0  0  0  0  0
    4.3654    8.8019    0.0000 C   0  0  0  0  0  0  0  0  0  0  0  0
    4.5392    7.2018    0.0000 C   0  0  0  0  0  0  0  0  0  0  0  0
    5.4469    5.6070    0.0000 C   0  0  0  0  0  0  0  0  0  0  0  0
   18.9732    9.1070    0.0000 C   0  0  0  0  0  0  0  0  0  0  0  0
    6.0117    9.3400    0.0000 C   0  0  0  0  0  0  0  0  0  0  0  0
   10.0450    7.1070    0.0000 C   0  0  0  0  0  0  0  0  0  0  0  0
   10.9110    8.6070    0.0000 C   0  0  0  0  0  0  0  0  0  0  0  0
    4.0547    9.7524    0.0000 C   0  0  0  0  0  0  0  0  0  0  0  0
    5.7011   10.2905    0.0000 C   0  0  0  0  0  0  0  0  0  0  0  0
    4.7226   10.4967    0.0000 C   0  0  0  0  0  0  0  0  0  0  0  0
    9.1790    7.6070    0.0000 C   0  0  0  0  0  0  0  0  0  0  0  0
   10.0450    9.1070    0.0000 C   0  0  0  0  0  0  0  0  0  0  0  0
    9.1790    8.6070    0.0000 C   0  0  0  0  0  0  0  0  0  0  0  0
   10.5440   -0.0122    0.0000 H   0  0  0  0  0  0  0  0  0  0  0  0
   11.0919    1.6015    0.0000 H   0  0  0  0  0  0  0  0  0  0  0  0
   10.5367    2.2181    0.0000 H   0  0  0  0  0  0  0  0  0  0  0  0
    8.4922    1.3078    0.0000 H   0  0  0  0  0  0  0  0  0  0  0  0
    8.5789    0.4826    0.0000 H   0  0  0  0  0  0  0  0  0  0  0  0
    9.6853    2.3990    0.0000 H   0  0  0  0  0  0  0  0  0  0  0  0
    8.9273    2.0616    0.0000 H   0  0  0  0  0  0  0  0  0  0  0  0
    8.9647   -1.5018    0.0000 H   0  0  0  0  0  0  0  0  0  0  0  0
    7.6319   -1.0243    0.0000 H   0  0  0  0  0  0  0  0  0  0  0  0
    8.7567   -2.4800    0.0000 H   0  0  0  0  0  0  0  0  0  0  0  0
   11.9794   -1.2030    0.0000 H   0  0  0  0  0  0  0  0  0  0  0  0
    6.6181   -0.1372    0.0000 H   0  0  0  0  0  0  0  0  0  0  0  0
    6.2200   -0.9184    0.0000 H   0  0  0  0  0  0  0  0  0  0  0  0
    7.0013   -1.3165    0.0000 H   0  0  0  0  0  0  0  0  0  0  0  0
    8.5751    0.4314    0.0000 H   0  0  0  0  0  0  0  0  0  0  0  0
    8.0976    1.1668    0.0000 H   0  0  0  0  0  0  0  0  0  0  0  0
    7.3622    0.6892    0.0000 H   0  0  0  0  0  0  0  0  0  0  0  0
    6.6763   -2.9374    0.0000 H   0  0  0  0  0  0  0  0  0  0  0  0
    8.3409   -4.4362    0.0000 H   0  0  0  0  0  0  0  0  0  0  0  0
   11.7715   -1.7030    0.0000 H   0  0  0  0  0  0  0  0  0  0  0  0
    7.0974   -4.7673    0.0000 H   0  0  0  0  0  0  0  0  0  0  0  0
    7.3437   -5.5253    0.0000 H   0  0  0  0  0  0  0  0  0  0  0  0
    5.7252   -3.2464    0.0000 H   0  0  0  0  0  0  0  0  0  0  0  0
    9.0228   -4.3020    0.0000 H   0  0  0  0  0  0  0  0  0  0  0  0
    9.4209   -3.5208    0.0000 H   0  0  0  0  0  0  0  0  0  0  0  0
    8.6396   -3.1227    0.0000 H   0  0  0  0  0  0  0  0  0  0  0  0
   12.5205   -2.9756    0.0000 H   0  0  0  0  0  0  0  0  0  0  0  0
   12.9191   -2.2854    0.0000 H   0  0  0  0  0  0  0  0  0  0  0  0
    8.0005   -6.1294    0.0000 H   0  0  0  0  0  0  0  0  0  0  0  0
    8.8762   -6.0835    0.0000 H   0  0  0  0  0  0  0  0  0  0  0  0
    8.8303   -5.2079    0.0000 H   0  0  0  0  0  0  0  0  0  0  0  0
   14.7114   -1.7030    0.0000 H   0  0  0  0  0  0  0  0  0  0  0  0
    5.4878   -5.3633    0.0000 H   0  0  0  0  0  0  0  0  0  0  0  0
   14.5036   -0.5830    0.0000 H   0  0  0  0  0  0  0  0  0  0  0  0
   11.4424   -3.5130    0.0000 H   0  0  0  0  0  0  0  0  0  0  0  0
    4.7724   -3.8976    0.0000 H   0  0  0  0  0  0  0  0  0  0  0  0
    3.9928   -3.7319    0.0000 H   0  0  0  0  0  0  0  0  0  0  0  0
    4.2294   -6.1182    0.0000 H   0  0  0  0  0  0  0  0  0  0  0  0
   14.8285    0.6896    0.0000 H   0  0  0  0  0  0  0  0  0  0  0  0
   14.4299   -0.0007    0.0000 H   0  0  0  0  0  0  0  0  0  0  0  0
   18.6441    5.2970    0.0000 H   0  0  0  0  0  0  0  0  0  0  0  0
   17.7781    6.4170    0.0000 H   0  0  0  0  0  0  0  0  0  0  0  0
    4.8936   -7.1590    0.0000 H   0  0  0  0  0  0  0  0  0  0  0  0
   17.0291    7.6896    0.0000 H   0  0  0  0  0  0  0  0  0  0  0  0
   16.6306    6.9993    0.0000 H   0  0  0  0  0  0  0  0  0  0  0  0
   16.4435    0.2970    0.0000 H   0  0  0  0  0  0  0  0  0  0  0  0
    6.6723   -8.4753    0.0000 H   0  0  0  0  0  0  0  0  0  0  0  0
    6.4260   -7.7172    0.0000 H   0  0  0  0  0  0  0  0  0  0  0  0
   18.3192    7.0244    0.0000 H   0  0  0  0  0  0  0  0  0  0  0  0
   18.7178    7.7146    0.0000 H   0  0  0  0  0  0  0  0  0  0  0  0
   15.9121    6.4170    0.0000 H   0  0  0  0  0  0  0  0  0  0  0  0
    4.2744   -8.4893    0.0000 H   0  0  0  0  0  0  0  0  0  0  0  0
    3.9425   -7.4680    0.0000 H   0  0  0  0  0  0  0  0  0  0  0  0
   15.0460    5.2970    0.0000 H   0  0  0  0  0  0  0  0  0  0  0  0
    2.0000   -4.1108    0.0000 H   0  0  0  0  0  0  0  0  0  0  0  0
   12.3140    6.4170    0.0000 H   0  0  0  0  0  0  0  0  0  0  0  0
    9.5820    5.2970    0.0000 H   0  0  0  0  0  0  0  0  0  0  0  0
   12.3876    6.9993    0.0000 H   0  0  0  0  0  0  0  0  0  0  0  0
   11.9891    7.6896    0.0000 H   0  0  0  0  0  0  0  0  0  0  0  0
   13.1800    5.2970    0.0000 H   0  0  0  0  0  0  0  0  0  0  0  0
   13.8985    4.7146    0.0000 H   0  0  0  0  0  0  0  0  0  0  0  0
   14.2971    4.0244    0.0000 H   0  0  0  0  0  0  0  0  0  0  0  0
    6.8499    6.4170    0.0000 H   0  0  0  0  0  0  0  0  0  0  0  0
    8.5081    4.9170    0.0000 H   0  0  0  0  0  0  0  0  0  0  0  0
    6.9235    6.9993    0.0000 H   0  0  0  0  0  0  0  0  0  0  0  0
    6.5250    7.6896    0.0000 H   0  0  0  0  0  0  0  0  0  0  0  0
   10.4480    6.4170    0.0000 H   0  0  0  0  0  0  0  0  0  0  0  0
    7.7159    5.2970    0.0000 H   0  0  0  0  0  0  0  0  0  0  0  0
    9.6010    3.5700    0.0000 H   0  0  0  0  0  0  0  0  0  0  0  0
   10.4480    3.7970    0.0000 H   0  0  0  0  0  0  0  0  0  0  0  0
   10.2210    4.6439    0.0000 H   0  0  0  0  0  0  0  0  0  0  0  0
    4.4113    6.5952    0.0000 H   0  0  0  0  0  0  0  0  0  0  0  0
    3.2557    7.8719    0.0000 H   0  0  0  0  0  0  0  0  0  0  0  0
   19.2832    8.5700    0.0000 H   0  0  0  0  0  0  0  0  0  0  0  0
   19.5101    9.4170    0.0000 H   0  0  0  0  0  0  0  0  0  0  0  0
   18.6632    9.6439    0.0000 H   0  0  0  0  0  0  0  0  0  0  0  0
    6.6184    9.2121    0.0000 H   0  0  0  0  0  0  0  0  0  0  0  0
   10.0450    6.4870    0.0000 H   0  0  0  0  0  0  0  0  0  0  0  0
   11.4480    8.9170    0.0000 H   0  0  0  0  0  0  0  0  0  0  0  0
    6.5038  -10.4967    0.0000 H   0  0  0  0  0  0  0  0  0  0  0  0
    8.1790    3.4870    0.0000 H   0  0  0  0  0  0  0  0  0  0  0  0
   15.3751    3.4870    0.0000 H   0  0  0  0  0  0  0  0  0  0  0  0
    3.4480    9.8803    0.0000 H   0  0  0  0  0  0  0  0  0  0  0  0
    6.1151   10.7520    0.0000 H   0  0  0  0  0  0  0  0  0  0  0  0
    4.5300   11.0860    0.0000 H   0  0  0  0  0  0  0  0  0  0  0  0
    8.6420    7.2970    0.0000 H   0  0  0  0  0  0  0  0  0  0  0  0
   10.0450    9.7270    0.0000 H   0  0  0  0  0  0  0  0  0  0  0  0
    4.0440    5.7970    0.0000 H   0  0  0  0  0  0  0  0  0  0  0  0
    8.3130    9.7270    0.0000 H   0  0  0  0  0  0  0  0  0  0  0  0
  1 53  1  0  0  0  0
  1133  1  0  0  0  0
  2 69  1  0  0  0  0
  2 89  1  0  0  0  0
  3 42  2  0  0  0  0
  4 43  2  0  0  0  0
  5 48  2  0  0  0  0
  6 54  2  0  0  0  0
  7 56  2  0  0  0  0
  8 60  1  0  0  0  0
  8144  1  0  0  0  0
  9 61  2  0  0  0  0
 10 63  1  0  0  0  0
 10153  1  0  0  0  0
 11 62  2  0  0  0  0
 12 63  2  0  0  0  0
 13 67  2  0  0  0  0
 14 74  1  0  0  0  0
 14178  1  0  0  0  0
 15 76  1  0  0  0  0
 15180  1  0  0  0  0
 78 16  1  1  0  0  0
 16179  1  0  0  0  0
 17 73  2  0  0  0  0
 18 74  2  0  0  0  0
 19 79  2  0  0  0  0
 20 81  2  0  0  0  0
 21 88  1  0  0  0  0
 21186  1  0  0  0  0
 22 88  2  0  0  0  0
 23 98  1  0  0  0  0
 23187  1  0  0  0  0
 24 37  1  0  0  0  0
 24 39  1  0  0  0  0
 24 42  1  0  0  0  0
 41 25  1  1  0  0  0
 25 48  1  0  0  0  0
 25108  1  0  0  0  0
 26 43  1  0  0  0  0
 50 26  1  6  0  0  0
 26109  1  0  0  0  0
 47 27  1  6  0  0  0
 27 56  1  0  0  0  0
 27121  1  0  0  0  0
 28 54  1  0  0  0  0
 58 28  1  1  0  0  0
 28130  1  0  0  0  0
 57 29  1  1  0  0  0
 29 62  1  0  0  0  0
 29136  1  0  0  0  0
 30 61  1  0  0  0  0
 64 30  1  6  0  0  0
 30139  1  0  0  0  0
 65 31  1  6  0  0  0
 31150  1  0  0  0  0
 31151  1  0  0  0  0
 32 67  1  0  0  0  0
 70 32  1  1  0  0  0
 32149  1  0  0  0  0
 71 33  1  6  0  0  0
 33 73  1  0  0  0  0
 33158  1  0  0  0  0
 72 34  1  1  0  0  0
 34 79  1  0  0  0  0
 34165  1  0  0  0  0
 77 35  1  6  0  0  0
 35 81  1  0  0  0  0
 35166  1  0  0  0  0
 36 86  1  0  0  0  0
 36 87  1  0  0  0  0
 36171  1  0  0  0  0
 37 38  1  0  0  0  0
 37 43  1  1  0  0  0
 37 99  1  0  0  0  0
 38 40  1  0  0  0  0
 38100  1  0  0  0  0
 38101  1  0  0  0  0
 39 40  1  0  0  0  0
 39102  1  0  0  0  0
 39103  1  0  0  0  0
 40104  1  0  0  0  0
 40105  1  0  0  0  0
 41 42  1  0  0  0  0
 41 44  1  0  0  0  0
 41106  1  0  0  0  0
 44 45  1  0  0  0  0
 44 46  1  0  0  0  0
 44107  1  0  0  0  0
 45110  1  0  0  0  0
 45111  1  0  0  0  0
 45112  1  0  0  0  0
 46113  1  0  0  0  0
 46114  1  0  0  0  0
 46115  1  0  0  0  0
 47 48  1  0  0  0  0
 47 49  1  0  0  0  0
 47116  1  0  0  0  0
 49 51  1  0  0  0  0
 49 52  1  1  0  0  0
 49117  1  0  0  0  0
 50 53  1  0  0  0  0
 50 54  1  0  0  0  0
 50118  1  0  0  0  0
 51 55  1  0  0  0  0
 51119  1  0  0  0  0
 51120  1  0  0  0  0
 52122  1  0  0  0  0
 52123  1  0  0  0  0
 52124  1  0  0  0  0
 53125  1  0  0  0  0
 53126  1  0  0  0  0
 55127  1  0  0  0  0
 55128  1  0  0  0  0
 55129  1  0  0  0  0
 56 57  1  0  0  0  0
 57 59  1  0  0  0  0
 57131  1  0  0  0  0
 58 60  1  0  0  0  0
 58 61  1  0  0  0  0
 58132  1  0  0  0  0
 59 63  1  0  0  0  0
 59134  1  0  0  0  0
 59135  1  0  0  0  0
 60137  1  0  0  0  0
 60138  1  0  0  0  0
 62 65  1  0  0  0  0
 64 66  1  0  0  0  0
 64 67  1  0  0  0  0
 64140  1  0  0  0  0
 65 68  1  0  0  0  0
 65141  1  0  0  0  0
 66 69  1  0  0  0  0
 66142  1  0  0  0  0
 66143  1  0  0  0  0
 68 74  1  0  0  0  0
 68145  1  0  0  0  0
 68146  1  0  0  0  0
 69147  1  0  0  0  0
 69148  1  0  0  0  0
 70 73  1  0  0  0  0
 70 76  1  0  0  0  0
 70152  1  0  0  0  0
 71 75  1  0  0  0  0
 71 79  1  0  0  0  0
 71154  1  0  0  0  0
 72 78  1  0  0  0  0
 72 81  1  0  0  0  0
 72155  1  0  0  0  0
 75 83  1  0  0  0  0
 75156  1  0  0  0  0
 75157  1  0  0  0  0
 76159  1  0  0  0  0
 76160  1  0  0  0  0
 77 80  1  0  0  0  0
 77 88  1  0  0  0  0
 77161  1  0  0  0  0
 78 85  1  0  0  0  0
 78162  1  0  0  0  0
 80 82  1  0  0  0  0
 80163  1  0  0  0  0
 80164  1  0  0  0  0
 82 84  1  0  0  0  0
 82 87  2  0  0  0  0
 83 91  2  0  0  0  0
 83 92  1  0  0  0  0
 84 86  1  0  0  0  0
 84 90  2  0  0  0  0
 85167  1  0  0  0  0
 85168  1  0  0  0  0
 85169  1  0  0  0  0
 86 93  2  0  0  0  0
 87170  1  0  0  0  0
 89172  1  0  0  0  0
 89173  1  0  0  0  0
 89174  1  0  0  0  0
 90 94  1  0  0  0  0
 90175  1  0  0  0  0
 91 96  1  0  0  0  0
 91176  1  0  0  0  0
 92 97  2  0  0  0  0
 92177  1  0  0  0  0
 93 95  1  0  0  0  0
 93181  1  0  0  0  0
 94 95  2  0  0  0  0
 94182  1  0  0  0  0
 95183  1  0  0  0  0
 96 98  2  0  0  0  0
 96184  1  0  0  0  0
 97 98  1  0  0  0  0
 97185  1  0  0  0  0
M  END
> <PUBCHEM_COMPOUND_CID>
500557
> <PUBCHEM_COMPOUND_CANONICALIZED>
1
> <PUBCHEM_CACTVS_COMPLEXITY>
2790
> <PUBCHEM_CACTVS_HBOND_ACCEPTOR>
24
> <PUBCHEM_CACTVS_HBOND_DONOR>
20
> <PUBCHEM_CACTVS_ROTATABLE_BOND>
40
> <PUBCHEM_CACTVS_SUBSKEYS>
AAADcfB//gBgAAAAAAAAAAAAAAAAAWLAAAAwYAAAAAAAAFgB9AAAHgQQCAAADTzl3ga+zvPJkgyoAzX3XACCgCAxIjAI2aG+bJgKdv7ikbOUcAhm9hHY2Ae/2fKOoAAAAAACAABAAAAAAAQAAAAAAAAAAA==
> <PUBCHEM_IUPAC_OPENEYE_NAME>
(3S)-3-amino-4-[[(1S)-2-[[(1S,2S)-1-[[(1S)-1-[(2S)-2-[[(1R)-2-[[(1S)-2-[[(1S)-1-[[(1S)-2-[[(1S)-2-[[(1S,2R)-1-[[(1S)-1-carboxy-2-(1H-indol-3-yl)ethyl]carbamoyl]-2-hydroxy-propyl]amino]-1-[(4-hydroxyphenyl)methyl]-2-oxo-ethyl]amino]-1-(hydroxymethyl)-2-oxo-ethyl]carbamoyl]-3-methylsulfanyl-propyl]amino]-1-(hydroxymethyl)-2-oxo-ethyl]amino]-2-oxo-1-(sulfanylmethyl)ethyl]carbamoyl]pyrrolidine-1-carbonyl]-2-methyl-propyl]carbamoyl]-2-methyl-butyl]amino]-1-(carboxymethyl)-2-oxo-ethyl]amino]-4-oxo-butanoic acid
> <PUBCHEM_IUPAC_CAS_NAME>
(3S)-3-amino-4-[[(2S)-3-carboxy-1-[[(2S,3S)-1-[[(2S)-1-[(2S)-2-[[[(2R)-1-[[(2S)-1-[[(2S)-1-[[(2S)-1-[[(2S)-1-[[(2S,3R)-1-[[(1S)-1-carboxy-2-(1H-indol-3-yl)ethyl]amino]-3-hydroxy-1-oxobutan-2-yl]amino]-3-(4-hydroxyphenyl)-1-oxopropan-2-yl]amino]-3-hydroxy-1-oxopropan-2-yl]amino]-4-(methylthio)-1-oxobutan-2-yl]amino]-3-hydroxy-1-oxopropan-2-yl]amino]-3-mercapto-1-oxopropan-2-yl]amino]-oxomethyl]-1-pyrrolidinyl]-3-methyl-1-oxobutan-2-yl]amino]-3-methyl-1-oxopentan-2-yl]amino]-1-oxopropan-2-yl]amino]-4-oxobutanoic acid
> <PUBCHEM_IUPAC_NAME_MARKUP>
(3<I>S</I>)-3-amino-4-[[(2<I>S</I>)-3-carboxy-1-[[(2<I>S</I>,3<I>S</I>)-1-[[(2<I>S</I>)-1-[(2<I>S</I>)-2-[[(2<I>R</I>)-1-[[(2<I>S</I>)-1-[[(2<I>S</I>)-1-[[(2<I>S</I>)-1-[[(2<I>S</I>)-1-[[(2<I>S</I>,3<I>R</I>)-1-[[(1<I>S</I>)-1-carboxy-2-(1<I>H</I>-indol-3-yl)ethyl]amino]-3-hydroxy-1-oxobutan-2-yl]amino]-3-(4-hydroxyphenyl)-1-oxopropan-2-yl]amino]-3-hydroxy-1-oxopropan-2-yl]amino]-4-methylsulfanyl-1-oxobutan-2-yl]amino]-3-hydroxy-1-oxopropan-2-yl]amino]-1-oxo-3-sulfanylpropan-2-yl]carbamoyl]pyrrolidin-1-yl]-3-methyl-1-oxobutan-2-yl]amino]-3-methyl-1-oxopentan-2-yl]amino]-1-oxopropan-2-yl]amino]-4-oxobutanoic acid
> <PUBCHEM_IUPAC_NAME>
(3S)-3-amino-4-[[(2S)-3-carboxy-1-[[(2S,3S)-1-[[(2S)-1-[(2S)-2-[[(2R)-1-[[(2S)-1-[[(2S)-1-[[(2S)-1-[[(2S)-1-[[(2S,3R)-1-[[(1S)-1-carboxy-2-(1H-indol-3-yl)ethyl]amino]-3-hydroxy-1-oxobutan-2-yl]amino]-3-(4-hydroxyphenyl)-1-oxopropan-2-yl]amino]-3-hydroxy-1-oxopropan-2-yl]amino]-4-methylsulfanyl-1-oxobutan-2-yl]amino]-3-hydroxy-1-oxopropan-2-yl]amino]-1-oxo-3-sulfanylpropan-2-yl]carbamoyl]pyrrolidin-1-yl]-3-methyl-1-oxobutan-2-yl]amino]-3-methyl-1-oxopentan-2-yl]amino]-1-oxopropan-2-yl]amino]-4-oxobutanoic acid
> <PUBCHEM_IUPAC_SYSTEMATIC_NAME>
(3S)-3-azanyl-4-[[(2S)-1-[[(2S,3S)-1-[[(2S)-1-[(2S)-2-[[(2R)-1-[[(2S)-1-[[(2S)-1-[[(2S)-1-[[(2S)-3-(4-hydroxyphenyl)-1-[[(2S,3R)-1-[[(2S)-3-(1H-indol-3-yl)-1-oxidanyl-1-oxidanylidene-propan-2-yl]amino]-3-oxidanyl-1-oxidanylidene-butan-2-yl]amino]-1-oxidanylidene-propan-2-yl]amino]-3-oxidanyl-1-oxidanylidene-propan-2-yl]amino]-4-methylsulfanyl-1-oxidanylidene-butan-2-yl]amino]-3-oxidanyl-1-oxidanylidene-propan-2-yl]amino]-1-oxidanylidene-3-sulfanyl-propan-2-yl]carbamoyl]pyrrolidin-1-yl]-3-methyl-1-oxidanylidene-butan-2-yl]amino]-3-methyl-1-oxidanylidene-pentan-2-yl]amino]-4-oxidanyl-1,4-bis(oxidanylidene)butan-2-yl]amino]-4-oxidanylidene-butanoic acid
> <PUBCHEM_IUPAC_TRADITIONAL_NAME>
(3S)-3-amino-4-[[(1S)-2-[[(1S,2S)-1-[[(1S)-1-[(2S)-2-[[(1R)-2-[[(1S)-2-[[(1S)-1-[[(1S)-2-[[(1S)-2-[[(1S,2R)-1-[[(1S)-1-carboxy-2-(1H-indol-3-yl)ethyl]carbamoyl]-2-hydroxy-propyl]amino]-1-(4-hydroxybenzyl)-2-keto-ethyl]amino]-2-keto-1-methylol-ethyl]carbamoyl]-3-(methylthio)propyl]amino]-2-keto-1-methylol-ethyl]amino]-2-keto-1-(mercaptomethyl)ethyl]carbamoyl]pyrrolidine-1-carbonyl]-2-methyl-propyl]carbamoyl]-2-methyl-butyl]amino]-1-(carboxymethyl)-2-keto-ethyl]amino]-4-keto-butyric acid
> <PUBCHEM_IUPAC_INCHI>
InChI=1S/C62H89N13O21S2/c1-7-30(4)49(73-54(87)40(24-47(82)83)66-51(84)36(63)23-46(80)81)59(92)72-48(29(2)3)61(94)75-19-10-13-45(75)58(91)71-44(28-97)57(90)70-42(26-76)55(88)65-38(18-20-98-6)52(85)69-43(27-77)56(89)67-39(21-32-14-16-34(79)17-15-32)53(86)74-50(31(5)78)60(93)68-41(62(95)96)22-33-25-64-37-12-9-8-11-35(33)37/h8-9,11-12,14-17,25,29-31,36,38-45,48-50,64,76-79,97H,7,10,13,18-24,26-28,63H2,1-6H3,(H,65,88)(H,66,84)(H,67,89)(H,68,93)(H,69,85)(H,70,90)(H,71,91)(H,72,92)(H,73,87)(H,74,86)(H,80,81)(H,82,83)(H,95,96)/t30-,31+,36-,38-,39-,40-,41-,42-,43-,44-,45-,48-,49-,50-/m0/s1
> <PUBCHEM_IUPAC_INCHIKEY>
WTSPDMPYSLIYND-AELFNERCSA-N
> <PUBCHEM_XLOGP3_AA>
-4.1
> <PUBCHEM_EXACT_MASS>
1415.57373925
> <PUBCHEM_MOLECULAR_FORMULA>
C62H89N13O21S2
> <PUBCHEM_MOLECULAR_WEIGHT>
1416.6
> <PUBCHEM_OPENEYE_CAN_SMILES>
CCC(C)C(C(=O)NC(C(C)C)C(=O)N1CCCC1C(=O)NC(CS)C(=O)NC(CO)C(=O)NC(CCSC)C(=O)NC(CO)C(=O)NC(CC2=CC=C(C=C2)O)C(=O)NC(C(C)O)C(=O)NC(CC3=CNC4=CC=CC=C43)C(=O)O)NC(=O)C(CC(=O)O)NC(=O)C(CC(=O)O)N
> <PUBCHEM_OPENEYE_ISO_SMILES>
CC[C@H](C)[C@@H](C(=O)N[C@@H](C(C)C)C(=O)N1CCC[C@H]1C(=O)N[C@@H](CS)C(=O)N[C@@H](CO)C(=O)N[C@@H](CCSC)C(=O)N[C@@H](CO)C(=O)N[C@@H](CC2=CC=C(C=C2)O)C(=O)N[C@@H]([C@@H](C)O)C(=O)N[C@@H](CC3=CNC4=CC=CC=C43)C(=O)O)NC(=O)[C@H](CC(=O)O)NC(=O)[C@H](CC(=O)O)N
> <PUBCHEM_CACTVS_TPSA>
572
> <PUBCHEM_MONOISOTOPIC_WEIGHT>
1415.57373925
> <PUBCHEM_TOTAL_CHARGE>
0
> <PUBCHEM_HEAVY_ATOM_COUNT>
98
> <PUBCHEM_ATOM_DEF_STEREO_COUNT>
14
> <PUBCHEM_ATOM_UDEF_STEREO_COUNT>
0
> <PUBCHEM_BOND_DEF_STEREO_COUNT>
0
> <PUBCHEM_BOND_UDEF_STEREO_COUNT>
0
> <PUBCHEM_ISOTOPIC_ATOM_COUNT>
0
> <PUBCHEM_COMPONENT_COUNT>
1
> <PUBCHEM_CACTVS_TAUTO_COUNT>
-1
> <PUBCHEM_COORDINATE_TYPE>
1
5
255
> <PUBCHEM_BONDANNOTATIONS>
78  16  5
41  25  5
50  26  6
47  27  6
58  28  5
57  29  5
64  30  6
65  31  6
70  32  5
71  33  6
72  34  5
77  35  6
36  86  8
36  87  8
37  43  5
49  52  5
82  84  8
82  87  8
83  91  8
83  92  8
84  86  8
84  90  8
86  93  8
90  94  8
91  96  8
92  97  8
93  95  8
94  95  8
96  98  8
97  98  8
$$$$
