500544
  -OEChem-10302200282D
129133  0     1  0  0  0  0  0999 V2000
   15.4325   -4.1740    0.0000 F   0  0  0  0  0  0  0  0  0  0  0  0
   16.8207   -3.9041    0.0000 F   0  0  0  0  0  0  0  0  0  0  0  0
   15.1626   -2.7857    0.0000 F   0  0  0  0  0  0  0  0  0  0  0  0
   17.9068    2.7014    0.0000 O   0  0  0  0  0  0  0  0  0  0  0  0
   16.5725    3.6014    0.0000 O   0  0  0  0  0  0  0  0  0  0  0  0
   15.2357    0.1805    0.0000 O   0  0  0  0  0  0  0  0  0  0  0  0
   14.3602   -0.8629    0.0000 O   0  0  0  0  0  0  0  0  0  0  0  0
   11.2409   -2.6713    0.0000 O   0  0  0  0  0  0  0  0  0  0  0  0
    8.1152   -0.8741    0.0000 O   0  0  0  0  0  0  0  0  0  0  0  0
    6.1991   -3.9283    0.0000 O   0  0  0  0  0  0  0  0  0  0  0  0
    6.6830   -5.8689    0.0000 O   0  0  0  0  0  0  0  0  0  0  0  0
    8.3636   -5.4499    0.0000 O   0  0  0  0  0  0  0  0  0  0  0  0
    2.5960   -3.7961    0.0000 O   0  0  0  0  0  0  0  0  0  0  0  0
    3.0734   -2.1311    0.0000 O   0  0  0  0  0  0  0  0  0  0  0  0
   15.3566    1.9083    0.0000 N   0  0  0  0  0  0  0  0  0  0  0  0
   13.1570    0.3830    0.0000 N   0  0  0  0  0  0  0  0  0  0  0  0
   11.7183   -1.0063    0.0000 N   0  0  0  0  0  0  0  0  0  0  0  0
    9.3184   -2.1200    0.0000 N   0  0  0  0  0  0  0  0  0  0  0  0
    6.6765   -2.2634    0.0000 N   0  0  0  0  0  0  0  0  0  0  0  0
    4.7540   -1.7121    0.0000 N   0  0  0  0  0  0  0  0  0  0  0  0
   19.4043    4.5220    0.0000 C   0  0  2  0  0  0  0  0  0  0  0  0
   20.8033    4.5308    0.0000 C   0  0  0  0  0  0  0  0  0  0  0  0
   19.6631    5.4879    0.0000 C   0  0  1  0  0  0  0  0  0  0  0  0
   18.1833    3.6563    0.0000 C   0  0  1  0  0  0  0  0  0  0  0  0
   18.9265    6.4705    0.0000 C   0  0  0  0  0  0  0  0  0  0  0  0
   17.6299    5.1768    0.0000 C   0  0  0  0  0  0  0  0  0  0  0  0
   17.3543    4.2155    0.0000 C   0  0  1  0  0  0  0  0  0  0  0  0
   21.6693    5.0308    0.0000 C   0  0  0  0  0  0  0  0  0  0  0  0
   21.3033    3.6648    0.0000 C   0  0  0  0  0  0  0  0  0  0  0  0
   19.0123    3.0971    0.0000 C   0  0  0  0  0  0  0  0  0  0  0  0
   16.3541    1.8386    0.0000 C   0  0  1  0  0  0  0  0  0  0  0  0
   16.7925    0.9398    0.0000 C   0  0  0  0  0  0  0  0  0  0  0  0
   16.2333    0.1107    0.0000 C   0  0  0  0  0  0  0  0  0  0  0  0
   14.7974    1.0793    0.0000 C   0  0  0  0  0  0  0  0  0  0  0  0
   13.7998    1.1490    0.0000 C   0  0  2  0  0  0  0  0  0  0  0  0
   16.6717   -0.7881    0.0000 C   0  0  0  0  0  0  0  0  0  0  0  0
   13.2699    1.9971    0.0000 C   0  0  0  0  0  0  0  0  0  0  0  0
   12.2996    1.7552    0.0000 C   0  0  0  0  0  0  0  0  0  0  0  0
   12.2298    0.7576    0.0000 C   0  0  0  0  0  0  0  0  0  0  0  0
   16.1125   -1.6171    0.0000 C   0  0  0  0  0  0  0  0  0  0  0  0
   17.6692   -0.8578    0.0000 C   0  0  0  0  0  0  0  0  0  0  0  0
   13.3989   -0.5873    0.0000 C   0  0  0  0  0  0  0  0  0  0  0  0
   16.5508   -2.5159    0.0000 C   0  0  0  0  0  0  0  0  0  0  0  0
   18.1076   -1.7566    0.0000 C   0  0  0  0  0  0  0  0  0  0  0  0
   12.6796   -1.2820    0.0000 C   0  0  2  0  0  0  0  0  0  0  0  0
   17.5484   -2.5856    0.0000 C   0  0  0  0  0  0  0  0  0  0  0  0
   15.9917   -3.3449    0.0000 C   0  0  0  0  0  0  0  0  0  0  0  0
   12.9215   -2.2522    0.0000 C   0  0  0  0  0  0  0  0  0  0  0  0
   12.2022   -2.9469    0.0000 C   0  0  0  0  0  0  0  0  0  0  0  0
   13.8828   -2.5279    0.0000 C   0  0  0  0  0  0  0  0  0  0  0  0
   10.9990   -1.7010    0.0000 C   0  0  0  0  0  0  0  0  0  0  0  0
   10.0377   -1.4253    0.0000 C   0  0  2  0  0  0  0  0  0  0  0  0
    9.7958   -0.4550    0.0000 C   0  0  0  0  0  0  0  0  0  0  0  0
    8.8345   -0.1794    0.0000 C   0  0  0  0  0  0  0  0  0  0  0  0
   10.5151    0.2396    0.0000 C   0  0  0  0  0  0  0  0  0  0  0  0
    8.3571   -1.8444    0.0000 C   0  0  0  0  0  0  0  0  0  0  0  0
    7.6378   -2.5390    0.0000 C   0  0  2  0  0  0  0  0  0  0  0  0
    7.8797   -3.5093    0.0000 C   0  0  0  0  0  0  0  0  0  0  0  0
    7.1604   -4.2040    0.0000 C   0  0  0  0  0  0  0  0  0  0  0  0
    5.9572   -2.9580    0.0000 C   0  0  0  0  0  0  0  0  0  0  0  0
    4.9959   -2.6824    0.0000 C   0  0  2  0  0  0  0  0  0  0  0  0
    7.4023   -5.1743    0.0000 C   0  0  0  0  0  0  0  0  0  0  0  0
    4.2766   -3.3770    0.0000 C   0  0  0  0  0  0  0  0  0  0  0  0
    3.3153   -3.1014    0.0000 C   0  0  0  0  0  0  0  0  0  0  0  0
   16.9133    2.6676    0.0000 B   0  0  0  0  0  0  0  0  0  0  0  0
   19.1843    3.7009    0.0000 H   0  0  0  0  0  0  0  0  0  0  0  0
   19.8831    6.3089    0.0000 H   0  0  0  0  0  0  0  0  0  0  0  0
   19.2443    7.0029    0.0000 H   0  0  0  0  0  0  0  0  0  0  0  0
   18.3134    6.5625    0.0000 H   0  0  0  0  0  0  0  0  0  0  0  0
   17.6248    5.7967    0.0000 H   0  0  0  0  0  0  0  0  0  0  0  0
   17.0156    5.2605    0.0000 H   0  0  0  0  0  0  0  0  0  0  0  0
   16.6496    4.6908    0.0000 H   0  0  0  0  0  0  0  0  0  0  0  0
   21.9793    4.4938    0.0000 H   0  0  0  0  0  0  0  0  0  0  0  0
   22.2062    5.3408    0.0000 H   0  0  0  0  0  0  0  0  0  0  0  0
   21.3593    5.5677    0.0000 H   0  0  0  0  0  0  0  0  0  0  0  0
   20.7663    3.3548    0.0000 H   0  0  0  0  0  0  0  0  0  0  0  0
   21.6133    3.1278    0.0000 H   0  0  0  0  0  0  0  0  0  0  0  0
   21.8402    3.9748    0.0000 H   0  0  0  0  0  0  0  0  0  0  0  0
   18.6656    2.5831    0.0000 H   0  0  0  0  0  0  0  0  0  0  0  0
   19.5263    2.7504    0.0000 H   0  0  0  0  0  0  0  0  0  0  0  0
   19.3590    3.6111    0.0000 H   0  0  0  0  0  0  0  0  0  0  0  0
   16.0823    2.3958    0.0000 H   0  0  0  0  0  0  0  0  0  0  0  0
   17.2385    0.5091    0.0000 H   0  0  0  0  0  0  0  0  0  0  0  0
   17.2941    1.3042    0.0000 H   0  0  0  0  0  0  0  0  0  0  0  0
   15.0848    2.4656    0.0000 H   0  0  0  0  0  0  0  0  0  0  0  0
   15.7873    0.5414    0.0000 H   0  0  0  0  0  0  0  0  0  0  0  0
   15.7317   -0.2537    0.0000 H   0  0  0  0  0  0  0  0  0  0  0  0
   14.0421    0.5783    0.0000 H   0  0  0  0  0  0  0  0  0  0  0  0
   13.8271    2.2689    0.0000 H   0  0  0  0  0  0  0  0  0  0  0  0
   13.0578    2.5797    0.0000 H   0  0  0  0  0  0  0  0  0  0  0  0
   12.2133    2.3691    0.0000 H   0  0  0  0  0  0  0  0  0  0  0  0
   11.6800    1.7335    0.0000 H   0  0  0  0  0  0  0  0  0  0  0  0
   11.6192    0.8653    0.0000 H   0  0  0  0  0  0  0  0  0  0  0  0
   12.0589    0.1616    0.0000 H   0  0  0  0  0  0  0  0  0  0  0  0
   15.4940   -1.5738    0.0000 H   0  0  0  0  0  0  0  0  0  0  0  0
   18.0159   -0.3438    0.0000 H   0  0  0  0  0  0  0  0  0  0  0  0
   18.7261   -1.7998    0.0000 H   0  0  0  0  0  0  0  0  0  0  0  0
   12.2336   -1.7126    0.0000 H   0  0  0  0  0  0  0  0  0  0  0  0
   17.8202   -3.1429    0.0000 H   0  0  0  0  0  0  0  0  0  0  0  0
   13.3675   -1.8216    0.0000 H   0  0  0  0  0  0  0  0  0  0  0  0
   11.5683   -0.4047    0.0000 H   0  0  0  0  0  0  0  0  0  0  0  0
   11.7715   -2.5009    0.0000 H   0  0  0  0  0  0  0  0  0  0  0  0
   11.7562   -3.3776    0.0000 H   0  0  0  0  0  0  0  0  0  0  0  0
   12.6329   -3.3929    0.0000 H   0  0  0  0  0  0  0  0  0  0  0  0
   13.7119   -3.1239    0.0000 H   0  0  0  0  0  0  0  0  0  0  0  0
   14.4788   -2.6988    0.0000 H   0  0  0  0  0  0  0  0  0  0  0  0
   14.0537   -1.9319    0.0000 H   0  0  0  0  0  0  0  0  0  0  0  0
   10.1877   -2.0269    0.0000 H   0  0  0  0  0  0  0  0  0  0  0  0
    9.6458    0.1465    0.0000 H   0  0  0  0  0  0  0  0  0  0  0  0
    9.4684   -2.7216    0.0000 H   0  0  0  0  0  0  0  0  0  0  0  0
    9.0054    0.4166    0.0000 H   0  0  0  0  0  0  0  0  0  0  0  0
    8.2386   -0.0085    0.0000 H   0  0  0  0  0  0  0  0  0  0  0  0
    8.6636   -0.7754    0.0000 H   0  0  0  0  0  0  0  0  0  0  0  0
   10.9458   -0.2064    0.0000 H   0  0  0  0  0  0  0  0  0  0  0  0
   10.9611    0.6703    0.0000 H   0  0  0  0  0  0  0  0  0  0  0  0
   10.0845    0.6856    0.0000 H   0  0  0  0  0  0  0  0  0  0  0  0
    7.1918   -2.9697    0.0000 H   0  0  0  0  0  0  0  0  0  0  0  0
    8.2264   -4.0233    0.0000 H   0  0  0  0  0  0  0  0  0  0  0  0
    8.4461   -3.2571    0.0000 H   0  0  0  0  0  0  0  0  0  0  0  0
    6.5265   -1.6618    0.0000 H   0  0  0  0  0  0  0  0  0  0  0  0
    6.8137   -3.6900    0.0000 H   0  0  0  0  0  0  0  0  0  0  0  0
    6.5940   -4.4561    0.0000 H   0  0  0  0  0  0  0  0  0  0  0  0
    4.3999   -2.5115    0.0000 H   0  0  0  0  0  0  0  0  0  0  0  0
    4.0048   -3.9343    0.0000 H   0  0  0  0  0  0  0  0  0  0  0  0
    4.7782   -3.7415    0.0000 H   0  0  0  0  0  0  0  0  0  0  0  0
    4.1580   -1.5412    0.0000 H   0  0  0  0  0  0  0  0  0  0  0  0
    5.2000   -1.2814    0.0000 H   0  0  0  0  0  0  0  0  0  0  0  0
    6.8329   -6.4705    0.0000 H   0  0  0  0  0  0  0  0  0  0  0  0
    2.0000   -3.6252    0.0000 H   0  0  0  0  0  0  0  0  0  0  0  0
  1 47  1  0  0  0  0
  2 47  1  0  0  0  0
  3 47  1  0  0  0  0
  4 24  1  0  0  0  0
  4 65  1  0  0  0  0
  5 27  1  0  0  0  0
  5 65  1  0  0  0  0
  6 34  2  0  0  0  0
  7 42  2  0  0  0  0
  8 51  2  0  0  0  0
  9 56  2  0  0  0  0
 10 60  2  0  0  0  0
 11 62  1  0  0  0  0
 11128  1  0  0  0  0
 12 62  2  0  0  0  0
 13 64  1  0  0  0  0
 13129  1  0  0  0  0
 14 64  2  0  0  0  0
 31 15  1  6  0  0  0
 15 34  1  0  0  0  0
 15 85  1  0  0  0  0
 16 35  1  0  0  0  0
 16 39  1  0  0  0  0
 16 42  1  0  0  0  0
 45 17  1  6  0  0  0
 17 51  1  0  0  0  0
 17101  1  0  0  0  0
 52 18  1  1  0  0  0
 18 56  1  0  0  0  0
 18110  1  0  0  0  0
 57 19  1  6  0  0  0
 19 60  1  0  0  0  0
 19120  1  0  0  0  0
 61 20  1  6  0  0  0
 20126  1  0  0  0  0
 20127  1  0  0  0  0
 21 22  1  0  0  0  0
 21 24  1  0  0  0  0
 21 25  1  0  0  0  0
 21 66  1  1  0  0  0
 22 23  1  0  0  0  0
 22 28  1  0  0  0  0
 22 29  1  0  0  0  0
 23 25  1  0  0  0  0
 23 26  1  0  0  0  0
 23 67  1  1  0  0  0
 24 27  1  0  0  0  0
 24 30  1  1  0  0  0
 25 68  1  0  0  0  0
 25 69  1  0  0  0  0
 26 27  1  0  0  0  0
 26 70  1  0  0  0  0
 26 71  1  0  0  0  0
 27 72  1  1  0  0  0
 28 73  1  0  0  0  0
 28 74  1  0  0  0  0
 28 75  1  0  0  0  0
 29 76  1  0  0  0  0
 29 77  1  0  0  0  0
 29 78  1  0  0  0  0
 30 79  1  0  0  0  0
 30 80  1  0  0  0  0
 30 81  1  0  0  0  0
 31 32  1  0  0  0  0
 31 65  1  0  0  0  0
 31 82  1  0  0  0  0
 32 33  1  0  0  0  0
 32 83  1  0  0  0  0
 32 84  1  0  0  0  0
 33 36  1  0  0  0  0
 33 86  1  0  0  0  0
 33 87  1  0  0  0  0
 35 34  1  1  0  0  0
 35 37  1  0  0  0  0
 35 88  1  0  0  0  0
 36 40  2  0  0  0  0
 36 41  1  0  0  0  0
 37 38  1  0  0  0  0
 37 89  1  0  0  0  0
 37 90  1  0  0  0  0
 38 39  1  0  0  0  0
 38 91  1  0  0  0  0
 38 92  1  0  0  0  0
 39 93  1  0  0  0  0
 39 94  1  0  0  0  0
 40 43  1  0  0  0  0
 40 95  1  0  0  0  0
 41 44  2  0  0  0  0
 41 96  1  0  0  0  0
 42 45  1  0  0  0  0
 43 46  2  0  0  0  0
 43 47  1  0  0  0  0
 44 46  1  0  0  0  0
 44 97  1  0  0  0  0
 45 48  1  0  0  0  0
 45 98  1  0  0  0  0
 46 99  1  0  0  0  0
 48 49  1  0  0  0  0
 48 50  1  0  0  0  0
 48100  1  0  0  0  0
 49102  1  0  0  0  0
 49103  1  0  0  0  0
 49104  1  0  0  0  0
 50105  1  0  0  0  0
 50106  1  0  0  0  0
 50107  1  0  0  0  0
 51 52  1  0  0  0  0
 52 53  1  0  0  0  0
 52108  1  0  0  0  0
 53 54  1  0  0  0  0
 53 55  1  0  0  0  0
 53109  1  0  0  0  0
 54111  1  0  0  0  0
 54112  1  0  0  0  0
 54113  1  0  0  0  0
 55114  1  0  0  0  0
 55115  1  0  0  0  0
 55116  1  0  0  0  0
 56 57  1  0  0  0  0
 57 58  1  0  0  0  0
 57117  1  0  0  0  0
 58 59  1  0  0  0  0
 58118  1  0  0  0  0
 58119  1  0  0  0  0
 59 62  1  0  0  0  0
 59121  1  0  0  0  0
 59122  1  0  0  0  0
 60 61  1  0  0  0  0
 61 63  1  0  0  0  0
 61123  1  0  0  0  0
 63 64  1  0  0  0  0
 63124  1  0  0  0  0
 63125  1  0  0  0  0
M  END
> <PUBCHEM_COMPOUND_CID>
500544
> <PUBCHEM_COMPOUND_CANONICALIZED>
1
> <PUBCHEM_CACTVS_COMPLEXITY>
1790
> <PUBCHEM_CACTVS_HBOND_ACCEPTOR>
15
> <PUBCHEM_CACTVS_HBOND_DONOR>
7
> <PUBCHEM_CACTVS_ROTATABLE_BOND>
20
> <PUBCHEM_CACTVS_SUBSKEYS>
AAADcfJ/vYAAAAAAAAAAAAAAAABgAWJAAAAwYMAAAAAAAEgBAAAoHwAQCAAAD3zhmBYyCIPAAgCIAiHSGAACAAAgAAAIiIGIAIgJYDqAkTCUYAAmlgCIiAe/1/IPgAACAAAAAADAAAYAADCAAAAAAAAAAA==
> <PUBCHEM_IUPAC_OPENEYE_NAME>
(4S)-4-[[(2S)-2-amino-3-carboxy-propanoyl]amino]-5-[[(1S)-2-methyl-1-[[(1S)-2-methyl-1-[(2S)-2-[[(1R)-3-[3-(trifluoromethyl)phenyl]-1-[(1R,2S,6R,8S)-2,9,9-trimethyl-3,5-dioxa-4-boratricyclo[6.1.1.02,6]decan-4-yl]propyl]carbamoyl]pyrrolidine-1-carbonyl]propyl]carbamoyl]propyl]amino]-5-oxo-pentanoic acid
> <PUBCHEM_IUPAC_CAS_NAME>
(4S)-4-[[(2S)-2-amino-3-carboxy-1-oxopropyl]amino]-5-[[(2S)-3-methyl-1-[[(2S)-3-methyl-1-oxo-1-[(2S)-2-[oxo-[[(1R)-3-[3-(trifluoromethyl)phenyl]-1-[(1R,2S,6R,8S)-2,9,9-trimethyl-3,5-dioxa-4-boratricyclo[6.1.1.02,6]decan-4-yl]propyl]amino]methyl]-1-pyrrolidinyl]butan-2-yl]amino]-1-oxobutan-2-yl]amino]-5-oxopentanoic acid
> <PUBCHEM_IUPAC_NAME_MARKUP>
(4<I>S</I>)-4-[[(2<I>S</I>)-2-amino-3-carboxypropanoyl]amino]-5-[[(2<I>S</I>)-3-methyl-1-[[(2<I>S</I>)-3-methyl-1-oxo-1-[(2<I>S</I>)-2-[[(1<I>R</I>)-3-[3-(trifluoromethyl)phenyl]-1-[(1<I>R</I>,2<I>S</I>,6<I>R</I>,8<I>S</I>)-2,9,9-trimethyl-3,5-dioxa-4-boratricyclo[6.1.1.0<SUP>2,6</SUP>]decan-4-yl]propyl]carbamoyl]pyrrolidin-1-yl]butan-2-yl]amino]-1-oxobutan-2-yl]amino]-5-oxopentanoic acid
> <PUBCHEM_IUPAC_NAME>
(4S)-4-[[(2S)-2-amino-3-carboxypropanoyl]amino]-5-[[(2S)-3-methyl-1-[[(2S)-3-methyl-1-oxo-1-[(2S)-2-[[(1R)-3-[3-(trifluoromethyl)phenyl]-1-[(1R,2S,6R,8S)-2,9,9-trimethyl-3,5-dioxa-4-boratricyclo[6.1.1.02,6]decan-4-yl]propyl]carbamoyl]pyrrolidin-1-yl]butan-2-yl]amino]-1-oxobutan-2-yl]amino]-5-oxopentanoic acid
> <PUBCHEM_IUPAC_SYSTEMATIC_NAME>
(4S)-4-[[(2S)-2-azanyl-4-oxidanyl-4-oxidanylidene-butanoyl]amino]-5-[[(2S)-3-methyl-1-[[(2S)-3-methyl-1-oxidanylidene-1-[(2S)-2-[[(1R)-3-[3-(trifluoromethyl)phenyl]-1-[(1R,2S,6R,8S)-2,9,9-trimethyl-3,5-dioxa-4-boratricyclo[6.1.1.02,6]decan-4-yl]propyl]carbamoyl]pyrrolidin-1-yl]butan-2-yl]amino]-1-oxidanylidene-butan-2-yl]amino]-5-oxidanylidene-pentanoic acid
> <PUBCHEM_IUPAC_TRADITIONAL_NAME>
(4S)-4-[[(2S)-2-amino-3-carboxy-propanoyl]amino]-5-keto-5-[[(1S)-2-methyl-1-[[(1S)-2-methyl-1-[(2S)-2-[[(1R)-3-[3-(trifluoromethyl)phenyl]-1-[(1R,2S,6R,8S)-2,9,9-trimethyl-3,5-dioxa-4-boratricyclo[6.1.1.02,6]decan-4-yl]propyl]carbamoyl]pyrrolidine-1-carbonyl]propyl]carbamoyl]propyl]amino]valeric acid
> <PUBCHEM_IUPAC_INCHI>
InChI=1S/C44H64BF3N6O11/c1-22(2)35(52-38(60)28(14-16-33(55)56)50-37(59)27(49)21-34(57)58)40(62)53-36(23(3)4)41(63)54-17-9-12-29(54)39(61)51-32(15-13-24-10-8-11-25(18-24)44(46,47)48)45-64-31-20-26-19-30(42(26,5)6)43(31,7)65-45/h8,10-11,18,22-23,26-32,35-36H,9,12-17,19-21,49H2,1-7H3,(H,50,59)(H,51,61)(H,52,60)(H,53,62)(H,55,56)(H,57,58)/t26-,27-,28-,29-,30+,31+,32-,35-,36-,43-/m0/s1
> <PUBCHEM_IUPAC_INCHIKEY>
XBWZMYKCOLYKBC-MDNHZYCNSA-N
> <PUBCHEM_EXACT_MASS>
920.4678215
> <PUBCHEM_MOLECULAR_FORMULA>
C44H64BF3N6O11
> <PUBCHEM_MOLECULAR_WEIGHT>
920.8
> <PUBCHEM_OPENEYE_CAN_SMILES>
B1(OC2CC3CC(C3(C)C)C2(O1)C)C(CCC4=CC(=CC=C4)C(F)(F)F)NC(=O)C5CCCN5C(=O)C(C(C)C)NC(=O)C(C(C)C)NC(=O)C(CCC(=O)O)NC(=O)C(CC(=O)O)N
> <PUBCHEM_OPENEYE_ISO_SMILES>
B1(O[C@@H]2C[C@@H]3C[C@@H]([C@@]2(O1)C)C3(C)C)[C@H](CCC4=CC(=CC=C4)C(F)(F)F)NC(=O)[C@@H]5CCCN5C(=O)[C@H](C(C)C)NC(=O)[C@H](C(C)C)NC(=O)[C@H](CCC(=O)O)NC(=O)[C@H](CC(=O)O)N
> <PUBCHEM_CACTVS_TPSA>
256
> <PUBCHEM_MONOISOTOPIC_WEIGHT>
920.4678215
> <PUBCHEM_TOTAL_CHARGE>
0
> <PUBCHEM_HEAVY_ATOM_COUNT>
65
> <PUBCHEM_ATOM_DEF_STEREO_COUNT>
10
> <PUBCHEM_ATOM_UDEF_STEREO_COUNT>
0
> <PUBCHEM_BOND_DEF_STEREO_COUNT>
0
> <PUBCHEM_BOND_UDEF_STEREO_COUNT>
0
> <PUBCHEM_ISOTOPIC_ATOM_COUNT>
0
> <PUBCHEM_COMPONENT_COUNT>
1
> <PUBCHEM_CACTVS_TAUTO_COUNT>
-1
> <PUBCHEM_COORDINATE_TYPE>
1
5
255
> <PUBCHEM_BONDANNOTATIONS>
31  15  6
45  17  6
52  18  5
57  19  6
61  20  6
21  66  5
23  67  5
24  30  5
27  72  5
35  34  5
36  40  8
36  41  8
40  43  8
41  44  8
43  46  8
44  46  8
$$$$
