500584
  -OEChem-10302200282D
137140  0     1  0  0  0  0  0999 V2000
   10.9980    2.6958    0.0000 O   0  0  0  0  0  0  0  0  0  0  0  0
    6.8311    1.5730    0.0000 O   0  0  0  0  0  0  0  0  0  0  0  0
    6.6887    2.9277    0.0000 O   0  0  0  0  0  0  0  0  0  0  0  0
    7.5548    6.4277    0.0000 O   0  0  0  0  0  0  0  0  0  0  0  0
    8.4059   -1.6704    0.0000 O   0  0  0  0  0  0  0  0  0  0  0  0
    6.6887    8.9277    0.0000 O   0  0  0  0  0  0  0  0  0  0  0  0
    7.5548    7.4277    0.0000 O   0  0  0  0  0  0  0  0  0  0  0  0
    5.2254   -3.3688    0.0000 O   0  0  0  0  0  0  0  0  0  0  0  0
    6.8002   -6.6122    0.0000 O   0  0  0  0  0  0  0  0  0  0  0  0
    8.7023   -7.2303    0.0000 O   0  0  0  0  0  0  0  0  0  0  0  0
    9.2376   -5.5830    0.0000 O   0  0  0  0  0  0  0  0  0  0  0  0
    2.4608   -7.0235    0.0000 O   0  0  0  0  0  0  0  0  0  0  0  0
    3.6197   -8.3106    0.0000 O   0  0  0  0  0  0  0  0  0  0  0  0
    7.0081   -7.5904    0.0000 O   0  0  0  0  0  0  0  0  0  0  0  0
    8.5253    1.9332    0.0000 N   0  0  0  0  0  0  0  0  0  0  0  0
    7.5548    4.4277    0.0000 N   0  0  0  0  0  0  0  0  0  0  0  0
    7.2469   -0.3833    0.0000 N   0  0  0  0  0  0  0  0  0  0  0  0
    5.8227    6.4277    0.0000 N   0  0  0  0  0  0  0  0  0  0  0  0
    6.9196   -3.0087    0.0000 N   0  0  0  0  0  0  0  0  0  0  0  0
    5.6412   -5.3251    0.0000 N   0  0  0  0  0  0  0  0  0  0  0  0
    5.3139   -7.9505    0.0000 N   0  0  0  0  0  0  0  0  0  0  0  0
    8.4208    2.9277    0.0000 C   0  0  1  0  0  0  0  0  0  0  0  0
   10.0035    2.5913    0.0000 C   0  0  2  0  0  0  0  0  0  0  0  0
    9.3343    3.3344    0.0000 C   0  0  0  0  0  0  0  0  0  0  0  0
    9.5035    1.7252    0.0000 C   0  0  0  0  0  0  0  0  0  0  0  0
    7.7822    1.2640    0.0000 C   0  0  0  0  0  0  0  0  0  0  0  0
    7.9901    0.2859    0.0000 C   0  0  2  0  0  0  0  0  0  0  0  0
    7.5548    3.4277    0.0000 C   0  0  0  0  0  0  0  0  0  0  0  0
    8.9411   -0.0231    0.0000 C   0  0  0  0  0  0  0  0  0  0  0  0
    6.6887    4.9277    0.0000 C   0  0  3  0  0  0  0  0  0  0  0  0
   11.5858    1.8868    0.0000 C   0  0  0  0  0  0  0  0  0  0  0  0
    5.8227    4.4277    0.0000 C   0  0  0  0  0  0  0  0  0  0  0  0
    6.6887    5.9277    0.0000 C   0  0  0  0  0  0  0  0  0  0  0  0
    9.1491   -1.0013    0.0000 C   0  0  0  0  0  0  0  0  0  0  0  0
    9.6843    0.6460    0.0000 C   0  0  0  0  0  0  0  0  0  0  0  0
    6.7117   -2.0305    0.0000 C   0  0  2  0  0  0  0  0  0  0  0  0
    5.8227    7.4277    0.0000 C   0  0  1  0  0  0  0  0  0  0  0  0
    7.4548   -1.3614    0.0000 C   0  0  0  0  0  0  0  0  0  0  0  0
    5.7606   -1.7215    0.0000 C   0  0  2  0  0  0  0  0  0  0  0  0
    4.9567    5.9277    0.0000 C   0  0  0  0  0  0  0  0  0  0  0  0
    4.9567    7.9277    0.0000 C   0  0  0  0  0  0  0  0  0  0  0  0
    5.8227    3.4277    0.0000 C   0  0  0  0  0  0  0  0  0  0  0  0
    4.0907    6.4277    0.0000 C   0  0  0  0  0  0  0  0  0  0  0  0
    4.0907    7.4277    0.0000 C   0  0  0  0  0  0  0  0  0  0  0  0
   12.5803    1.9913    0.0000 C   0  0  0  0  0  0  0  0  0  0  0  0
    5.0175   -2.3906    0.0000 C   0  0  0  0  0  0  0  0  0  0  0  0
    5.5527   -0.7434    0.0000 C   0  0  0  0  0  0  0  0  0  0  0  0
    6.6887    7.9277    0.0000 C   0  0  0  0  0  0  0  0  0  0  0  0
    4.9567    2.9277    0.0000 C   0  0  0  0  0  0  0  0  0  0  0  0
    3.1967    5.8930    0.0000 C   0  0  0  0  0  0  0  0  0  0  0  0
    3.1967    7.9623    0.0000 C   0  0  0  0  0  0  0  0  0  0  0  0
    6.1765   -3.6778    0.0000 C   0  0  0  0  0  0  0  0  0  0  0  0
   12.9870    2.9049    0.0000 C   0  0  0  0  0  0  0  0  0  0  0  0
   13.1681    1.1823    0.0000 C   0  0  0  0  0  0  0  0  0  0  0  0
    4.0664   -2.0816    0.0000 C   0  0  0  0  0  0  0  0  0  0  0  0
    6.3844   -4.6560    0.0000 C   0  0  1  0  0  0  0  0  0  0  0  0
    2.2906    6.4069    0.0000 C   0  0  0  0  0  0  0  0  0  0  0  0
    2.2906    7.4485    0.0000 C   0  0  0  0  0  0  0  0  0  0  0  0
    7.3354   -4.9650    0.0000 C   0  0  0  0  0  0  0  0  0  0  0  0
   13.9816    3.0094    0.0000 C   0  0  0  0  0  0  0  0  0  0  0  0
   14.1626    1.2868    0.0000 C   0  0  0  0  0  0  0  0  0  0  0  0
   14.5693    2.2004    0.0000 C   0  0  0  0  0  0  0  0  0  0  0  0
    7.5434   -5.9431    0.0000 C   0  0  0  0  0  0  0  0  0  0  0  0
    5.8492   -6.3032    0.0000 C   0  0  0  0  0  0  0  0  0  0  0  0
    5.1060   -6.9724    0.0000 C   0  0  2  0  0  0  0  0  0  0  0  0
    8.4944   -6.2521    0.0000 C   0  0  0  0  0  0  0  0  0  0  0  0
    4.1550   -6.6634    0.0000 C   0  0  0  0  0  0  0  0  0  0  0  0
    3.4118   -7.3325    0.0000 C   0  0  0  0  0  0  0  0  0  0  0  0
    6.2650   -8.2595    0.0000 C   0  0  0  0  0  0  0  0  0  0  0  0
    6.4729   -9.2377    0.0000 C   0  0  0  0  0  0  0  0  0  0  0  0
    7.9008    2.5900    0.0000 H   0  0  0  0  0  0  0  0  0  0  0  0
   10.3411    2.0713    0.0000 H   0  0  0  0  0  0  0  0  0  0  0  0
    9.8359    3.6988    0.0000 H   0  0  0  0  0  0  0  0  0  0  0  0
    9.0243    3.8714    0.0000 H   0  0  0  0  0  0  0  0  0  0  0  0
    9.3119    1.1356    0.0000 H   0  0  0  0  0  0  0  0  0  0  0  0
   10.0699    1.4731    0.0000 H   0  0  0  0  0  0  0  0  0  0  0  0
    7.4004    0.4775    0.0000 H   0  0  0  0  0  0  0  0  0  0  0  0
    8.4804   -0.4380    0.0000 H   0  0  0  0  0  0  0  0  0  0  0  0
    6.6887    4.3077    0.0000 H   0  0  0  0  0  0  0  0  0  0  0  0
    8.0917    4.7377    0.0000 H   0  0  0  0  0  0  0  0  0  0  0  0
    6.6573   -0.1917    0.0000 H   0  0  0  0  0  0  0  0  0  0  0  0
   11.0285    1.6150    0.0000 H   0  0  0  0  0  0  0  0  0  0  0  0
   11.7567    1.2908    0.0000 H   0  0  0  0  0  0  0  0  0  0  0  0
    5.6107    5.0103    0.0000 H   0  0  0  0  0  0  0  0  0  0  0  0
    5.2121    4.3200    0.0000 H   0  0  0  0  0  0  0  0  0  0  0  0
    8.5426   -1.1302    0.0000 H   0  0  0  0  0  0  0  0  0  0  0  0
    9.2780   -1.6077    0.0000 H   0  0  0  0  0  0  0  0  0  0  0  0
    9.7555   -0.8724    0.0000 H   0  0  0  0  0  0  0  0  0  0  0  0
   10.0991    0.1852    0.0000 H   0  0  0  0  0  0  0  0  0  0  0  0
   10.1450    1.0608    0.0000 H   0  0  0  0  0  0  0  0  0  0  0  0
    9.2694    1.1067    0.0000 H   0  0  0  0  0  0  0  0  0  0  0  0
    7.3014   -2.2221    0.0000 H   0  0  0  0  0  0  0  0  0  0  0  0
    6.3596    7.1177    0.0000 H   0  0  0  0  0  0  0  0  0  0  0  0
    6.2214   -1.3066    0.0000 H   0  0  0  0  0  0  0  0  0  0  0  0
    4.5582    5.4527    0.0000 H   0  0  0  0  0  0  0  0  0  0  0  0
    5.3552    5.4527    0.0000 H   0  0  0  0  0  0  0  0  0  0  0  0
    5.3552    8.4026    0.0000 H   0  0  0  0  0  0  0  0  0  0  0  0
    4.5582    8.4026    0.0000 H   0  0  0  0  0  0  0  0  0  0  0  0
    6.0348    2.8451    0.0000 H   0  0  0  0  0  0  0  0  0  0  0  0
    6.4333    3.5353    0.0000 H   0  0  0  0  0  0  0  0  0  0  0  0
    4.7264   -2.9381    0.0000 H   0  0  0  0  0  0  0  0  0  0  0  0
    5.5061   -2.7724    0.0000 H   0  0  0  0  0  0  0  0  0  0  0  0
    7.5093   -3.2003    0.0000 H   0  0  0  0  0  0  0  0  0  0  0  0
    6.1592   -0.6145    0.0000 H   0  0  0  0  0  0  0  0  0  0  0  0
    5.4238   -0.1369    0.0000 H   0  0  0  0  0  0  0  0  0  0  0  0
    4.9463   -0.8723    0.0000 H   0  0  0  0  0  0  0  0  0  0  0  0
    4.6467    3.4646    0.0000 H   0  0  0  0  0  0  0  0  0  0  0  0
    4.4197    2.6177    0.0000 H   0  0  0  0  0  0  0  0  0  0  0  0
    5.2667    2.3907    0.0000 H   0  0  0  0  0  0  0  0  0  0  0  0
    3.2039    5.2731    0.0000 H   0  0  0  0  0  0  0  0  0  0  0  0
    3.2039    8.5823    0.0000 H   0  0  0  0  0  0  0  0  0  0  0  0
   12.6226    3.4064    0.0000 H   0  0  0  0  0  0  0  0  0  0  0  0
   12.9159    0.6159    0.0000 H   0  0  0  0  0  0  0  0  0  0  0  0
    4.2580   -1.4920    0.0000 H   0  0  0  0  0  0  0  0  0  0  0  0
    3.4768   -1.8900    0.0000 H   0  0  0  0  0  0  0  0  0  0  0  0
    3.8749   -2.6713    0.0000 H   0  0  0  0  0  0  0  0  0  0  0  0
    5.7947   -4.4644    0.0000 H   0  0  0  0  0  0  0  0  0  0  0  0
    1.7549    6.0948    0.0000 H   0  0  0  0  0  0  0  0  0  0  0  0
    1.7549    7.7606    0.0000 H   0  0  0  0  0  0  0  0  0  0  0  0
    7.9551   -4.9433    0.0000 H   0  0  0  0  0  0  0  0  0  0  0  0
    7.4217   -4.3510    0.0000 H   0  0  0  0  0  0  0  0  0  0  0  0
   14.2337    3.5758    0.0000 H   0  0  0  0  0  0  0  0  0  0  0  0
   14.5270    0.7852    0.0000 H   0  0  0  0  0  0  0  0  0  0  0  0
    7.2257    9.2377    0.0000 H   0  0  0  0  0  0  0  0  0  0  0  0
    5.0516   -5.1335    0.0000 H   0  0  0  0  0  0  0  0  0  0  0  0
   15.1859    2.2652    0.0000 H   0  0  0  0  0  0  0  0  0  0  0  0
    6.9237   -5.9648    0.0000 H   0  0  0  0  0  0  0  0  0  0  0  0
    7.4571   -6.5571    0.0000 H   0  0  0  0  0  0  0  0  0  0  0  0
    4.6453   -7.3872    0.0000 H   0  0  0  0  0  0  0  0  0  0  0  0
    4.4460   -6.1159    0.0000 H   0  0  0  0  0  0  0  0  0  0  0  0
    3.6664   -6.2816    0.0000 H   0  0  0  0  0  0  0  0  0  0  0  0
    4.8532   -8.3654    0.0000 H   0  0  0  0  0  0  0  0  0  0  0  0
    9.2920   -7.4219    0.0000 H   0  0  0  0  0  0  0  0  0  0  0  0
    5.8664   -9.3666    0.0000 H   0  0  0  0  0  0  0  0  0  0  0  0
    6.6018   -9.8441    0.0000 H   0  0  0  0  0  0  0  0  0  0  0  0
    7.0793   -9.1088    0.0000 H   0  0  0  0  0  0  0  0  0  0  0  0
    2.0000   -7.4383    0.0000 H   0  0  0  0  0  0  0  0  0  0  0  0
 23  1  1  1  0  0  0
  1 31  1  0  0  0  0
  2 26  2  0  0  0  0
  3 28  2  0  0  0  0
  4 33  2  0  0  0  0
  5 38  2  0  0  0  0
  6 48  1  0  0  0  0
  6124  1  0  0  0  0
  7 48  2  0  0  0  0
  8 52  2  0  0  0  0
  9 64  2  0  0  0  0
 10 66  1  0  0  0  0
 10133  1  0  0  0  0
 11 66  2  0  0  0  0
 12 68  1  0  0  0  0
 12137  1  0  0  0  0
 13 68  2  0  0  0  0
 14 69  2  0  0  0  0
 15 22  1  0  0  0  0
 15 25  1  0  0  0  0
 15 26  1  0  0  0  0
 16 28  1  0  0  0  0
 16 30  1  0  0  0  0
 16 80  1  0  0  0  0
 27 17  1  6  0  0  0
 17 38  1  0  0  0  0
 17 81  1  0  0  0  0
 18 33  1  0  0  0  0
 18 37  1  0  0  0  0
 18 40  1  0  0  0  0
 36 19  1  1  0  0  0
 19 52  1  0  0  0  0
 19103  1  0  0  0  0
 56 20  1  1  0  0  0
 20 64  1  0  0  0  0
 20125  1  0  0  0  0
 65 21  1  1  0  0  0
 21 69  1  0  0  0  0
 21132  1  0  0  0  0
 22 24  1  0  0  0  0
 22 28  1  6  0  0  0
 22 71  1  0  0  0  0
 23 24  1  0  0  0  0
 23 25  1  0  0  0  0
 23 72  1  0  0  0  0
 24 73  1  0  0  0  0
 24 74  1  0  0  0  0
 25 75  1  0  0  0  0
 25 76  1  0  0  0  0
 26 27  1  0  0  0  0
 27 29  1  0  0  0  0
 27 77  1  0  0  0  0
 29 34  1  0  0  0  0
 29 35  1  0  0  0  0
 29 78  1  0  0  0  0
 30 32  1  0  0  0  0
 30 33  1  0  0  0  0
 30 79  1  0  0  0  0
 31 45  1  0  0  0  0
 31 82  1  0  0  0  0
 31 83  1  0  0  0  0
 32 42  1  0  0  0  0
 32 84  1  0  0  0  0
 32 85  1  0  0  0  0
 34 86  1  0  0  0  0
 34 87  1  0  0  0  0
 34 88  1  0  0  0  0
 35 89  1  0  0  0  0
 35 90  1  0  0  0  0
 35 91  1  0  0  0  0
 36 38  1  0  0  0  0
 36 39  1  0  0  0  0
 36 92  1  0  0  0  0
 37 41  1  0  0  0  0
 37 48  1  1  0  0  0
 37 93  1  0  0  0  0
 39 46  1  0  0  0  0
 39 47  1  6  0  0  0
 39 94  1  0  0  0  0
 40 43  1  0  0  0  0
 40 95  1  0  0  0  0
 40 96  1  0  0  0  0
 41 44  1  0  0  0  0
 41 97  1  0  0  0  0
 41 98  1  0  0  0  0
 42 49  1  0  0  0  0
 42 99  1  0  0  0  0
 42100  1  0  0  0  0
 43 44  1  0  0  0  0
 43 50  2  0  0  0  0
 44 51  2  0  0  0  0
 45 53  2  0  0  0  0
 45 54  1  0  0  0  0
 46 55  1  0  0  0  0
 46101  1  0  0  0  0
 46102  1  0  0  0  0
 47104  1  0  0  0  0
 47105  1  0  0  0  0
 47106  1  0  0  0  0
 49107  1  0  0  0  0
 49108  1  0  0  0  0
 49109  1  0  0  0  0
 50 57  1  0  0  0  0
 50110  1  0  0  0  0
 51 58  1  0  0  0  0
 51111  1  0  0  0  0
 52 56  1  0  0  0  0
 53 60  1  0  0  0  0
 53112  1  0  0  0  0
 54 61  2  0  0  0  0
 54113  1  0  0  0  0
 55114  1  0  0  0  0
 55115  1  0  0  0  0
 55116  1  0  0  0  0
 56 59  1  0  0  0  0
 56117  1  0  0  0  0
 57 58  2  0  0  0  0
 57118  1  0  0  0  0
 58119  1  0  0  0  0
 59 63  1  0  0  0  0
 59120  1  0  0  0  0
 59121  1  0  0  0  0
 60 62  2  0  0  0  0
 60122  1  0  0  0  0
 61 62  1  0  0  0  0
 61123  1  0  0  0  0
 62126  1  0  0  0  0
 63 66  1  0  0  0  0
 63127  1  0  0  0  0
 63128  1  0  0  0  0
 64 65  1  0  0  0  0
 65 67  1  0  0  0  0
 65129  1  0  0  0  0
 67 68  1  0  0  0  0
 67130  1  0  0  0  0
 67131  1  0  0  0  0
 69 70  1  0  0  0  0
 70134  1  0  0  0  0
 70135  1  0  0  0  0
 70136  1  0  0  0  0
M  END
> <PUBCHEM_COMPOUND_CID>
500584
> <PUBCHEM_COMPOUND_CANONICALIZED>
1
> <PUBCHEM_CACTVS_COMPLEXITY>
1880
> <PUBCHEM_CACTVS_HBOND_ACCEPTOR>
14
> <PUBCHEM_CACTVS_HBOND_DONOR>
8
> <PUBCHEM_CACTVS_ROTATABLE_BOND>
25
> <PUBCHEM_CACTVS_SUBSKEYS>
AAADcfB/vAAAAAAAAAAAAAAAAAAAAWAAAAA8YIAAAAAAAACxQAAAHgAQCAAADTzhmAYyCIPABgCIAiHSGACCAAAgAAAIiIGIDIgKZjqAsTmXcAhm1gGYqAe/37KOgAAAAAAQAAAAAAAAACAAAAAAAAAAAA==
> <PUBCHEM_IUPAC_OPENEYE_NAME>
(3S)-2-[2-[[(2S,4R)-1-[(2S)-2-[[(2S,3S)-2-[[(2R)-2-[[(2S)-2-acetamido-3-carboxy-propanoyl]amino]-4-carboxy-butanoyl]amino]-3-methyl-pentanoyl]amino]-3-methyl-butanoyl]-4-benzyloxy-pyrrolidine-2-carbonyl]amino]pentanoyl]-3,4-dihydro-1H-isoquinoline-3-carboxylic acid
> <PUBCHEM_IUPAC_CAS_NAME>
(3S)-2-[2-[[[(2S,4R)-1-[(2S)-2-[[(2S,3S)-2-[[(2R)-2-[[(2S)-2-acetamido-3-carboxy-1-oxopropyl]amino]-4-carboxy-1-oxobutyl]amino]-3-methyl-1-oxopentyl]amino]-3-methyl-1-oxobutyl]-4-phenylmethoxy-2-pyrrolidinyl]-oxomethyl]amino]-1-oxopentyl]-3,4-dihydro-1H-isoquinoline-3-carboxylic acid
> <PUBCHEM_IUPAC_NAME_MARKUP>
(3<I>S</I>)-2-[2-[[(2<I>S</I>,4<I>R</I>)-1-[(2<I>S</I>)-2-[[(2<I>S</I>,3<I>S</I>)-2-[[(2<I>R</I>)-2-[[(2<I>S</I>)-2-acetamido-3-carboxypropanoyl]amino]-4-carboxybutanoyl]amino]-3-methylpentanoyl]amino]-3-methylbutanoyl]-4-phenylmethoxypyrrolidine-2-carbonyl]amino]pentanoyl]-3,4-dihydro-1<I>H</I>-isoquinoline-3-carboxylic acid
> <PUBCHEM_IUPAC_NAME>
(3S)-2-[2-[[(2S,4R)-1-[(2S)-2-[[(2S,3S)-2-[[(2R)-2-[[(2S)-2-acetamido-3-carboxypropanoyl]amino]-4-carboxybutanoyl]amino]-3-methylpentanoyl]amino]-3-methylbutanoyl]-4-phenylmethoxypyrrolidine-2-carbonyl]amino]pentanoyl]-3,4-dihydro-1H-isoquinoline-3-carboxylic acid
> <PUBCHEM_IUPAC_SYSTEMATIC_NAME>
(3S)-2-[2-[[(2S,4R)-1-[(2S)-2-[[(2S,3S)-2-[[(2R)-2-[[(2S)-2-acetamido-4-oxidanyl-4-oxidanylidene-butanoyl]amino]-5-oxidanyl-5-oxidanylidene-pentanoyl]amino]-3-methyl-pentanoyl]amino]-3-methyl-butanoyl]-4-phenylmethoxy-pyrrolidin-2-yl]carbonylamino]pentanoyl]-3,4-dihydro-1H-isoquinoline-3-carboxylic acid
> <PUBCHEM_IUPAC_TRADITIONAL_NAME>
(3S)-2-[2-[[(2S,4R)-1-[(2S)-2-[[(2S,3S)-2-[[(2R)-2-[[(2S)-2-acetamido-3-carboxy-propanoyl]amino]-4-carboxy-butanoyl]amino]-3-methyl-pentanoyl]amino]-3-methyl-butanoyl]-4-benzoxy-prolyl]amino]pentanoyl]-3,4-dihydro-1H-isoquinoline-3-carboxylic acid
> <PUBCHEM_IUPAC_INCHI>
InChI=1S/C49H67N7O14/c1-7-14-35(47(66)55-24-32-18-13-12-17-31(32)21-38(55)49(68)69)52-45(64)37-22-33(70-26-30-15-10-9-11-16-30)25-56(37)48(67)41(27(3)4)53-46(65)42(28(5)8-2)54-43(62)34(19-20-39(58)59)51-44(63)36(23-40(60)61)50-29(6)57/h9-13,15-18,27-28,33-38,41-42H,7-8,14,19-26H2,1-6H3,(H,50,57)(H,51,63)(H,52,64)(H,53,65)(H,54,62)(H,58,59)(H,60,61)(H,68,69)/t28-,33+,34+,35?,36-,37-,38-,41-,42-/m0/s1
> <PUBCHEM_IUPAC_INCHIKEY>
ZWDHKWVIWNZBHS-GOGGOSPXSA-N
> <PUBCHEM_XLOGP3_AA>
2.5
> <PUBCHEM_EXACT_MASS>
977.47459984
> <PUBCHEM_MOLECULAR_FORMULA>
C49H67N7O14
> <PUBCHEM_MOLECULAR_WEIGHT>
978.1
> <PUBCHEM_OPENEYE_CAN_SMILES>
CCCC(C(=O)N1CC2=CC=CC=C2CC1C(=O)O)NC(=O)C3CC(CN3C(=O)C(C(C)C)NC(=O)C(C(C)CC)NC(=O)C(CCC(=O)O)NC(=O)C(CC(=O)O)NC(=O)C)OCC4=CC=CC=C4
> <PUBCHEM_OPENEYE_ISO_SMILES>
CCCC(C(=O)N1CC2=CC=CC=C2C[C@H]1C(=O)O)NC(=O)[C@@H]3C[C@H](CN3C(=O)[C@H](C(C)C)NC(=O)[C@H]([C@@H](C)CC)NC(=O)[C@@H](CCC(=O)O)NC(=O)[C@H](CC(=O)O)NC(=O)C)OCC4=CC=CC=C4
> <PUBCHEM_CACTVS_TPSA>
307
> <PUBCHEM_MONOISOTOPIC_WEIGHT>
977.47459984
> <PUBCHEM_TOTAL_CHARGE>
0
> <PUBCHEM_HEAVY_ATOM_COUNT>
70
> <PUBCHEM_ATOM_DEF_STEREO_COUNT>
8
> <PUBCHEM_ATOM_UDEF_STEREO_COUNT>
1
> <PUBCHEM_BOND_DEF_STEREO_COUNT>
0
> <PUBCHEM_BOND_UDEF_STEREO_COUNT>
0
> <PUBCHEM_ISOTOPIC_ATOM_COUNT>
0
> <PUBCHEM_COMPONENT_COUNT>
1
> <PUBCHEM_CACTVS_TAUTO_COUNT>
-1
> <PUBCHEM_COORDINATE_TYPE>
1
5
255
> <PUBCHEM_BONDANNOTATIONS>
23  1  5
27  17  6
36  19  5
56  20  5
65  21  5
22  28  6
30  32  3
37  48  5
39  47  6
43  44  8
43  50  8
44  51  8
45  53  8
45  54  8
50  57  8
51  58  8
53  60  8
54  61  8
57  58  8
60  62  8
61  62  8
$$$$
