500564
  -OEChem-10302200282D
 99 98  0     1  0  0  0  0  0999 V2000
   11.1972    1.8450    0.0000 O   0  0  0  0  0  0  0  0  0  0  0  0
   13.7953   -0.6550    0.0000 O   0  0  0  0  0  0  0  0  0  0  0  0
    8.5991   -0.6550    0.0000 O   0  0  0  0  0  0  0  0  0  0  0  0
   16.3933    1.8450    0.0000 O   0  0  0  0  0  0  0  0  0  0  0  0
    7.7331   -1.1550    0.0000 O   0  0  0  0  0  0  0  0  0  0  0  0
    6.8671    3.3450    0.0000 O   0  0  0  0  0  0  0  0  0  0  0  0
    6.0010    1.8450    0.0000 O   0  0  0  0  0  0  0  0  0  0  0  0
   19.8574    0.8450    0.0000 O   0  0  0  0  0  0  0  0  0  0  0  0
    2.5369   -1.1550    0.0000 O   0  0  0  0  0  0  0  0  0  0  0  0
    3.4030    0.3450    0.0000 O   0  0  0  0  0  0  0  0  0  0  0  0
   12.0632    0.3450    0.0000 N   0  0  0  0  0  0  0  0  0  0  0  0
    9.4651    0.8450    0.0000 N   0  0  0  0  0  0  0  0  0  0  0  0
   14.6613    0.8450    0.0000 N   0  0  0  0  0  0  0  0  0  0  0  0
    6.8671    0.3450    0.0000 N   0  0  0  0  0  0  0  0  0  0  0  0
   17.2594    0.3450    0.0000 N   0  0  0  0  0  0  0  0  0  0  0  0
    6.0010   -2.1550    0.0000 N   0  0  0  0  0  0  0  0  0  0  0  0
   12.9292    0.8450    0.0000 C   0  0  1  0  0  0  0  0  0  0  0  0
   10.3312    0.3450    0.0000 C   0  0  1  0  0  0  0  0  0  0  0  0
   12.9292    1.8450    0.0000 C   0  0  0  0  0  0  0  0  0  0  0  0
   10.3312   -0.6550    0.0000 C   0  0  0  0  0  0  0  0  0  0  0  0
   11.1972    0.8450    0.0000 C   0  0  0  0  0  0  0  0  0  0  0  0
   13.7953    0.3450    0.0000 C   0  0  0  0  0  0  0  0  0  0  0  0
   13.7953    2.3450    0.0000 C   0  0  0  0  0  0  0  0  0  0  0  0
   12.0632    2.3450    0.0000 C   0  0  0  0  0  0  0  0  0  0  0  0
   15.5273    0.3450    0.0000 C   0  0  1  0  0  0  0  0  0  0  0  0
    9.4651   -1.1550    0.0000 C   0  0  0  0  0  0  0  0  0  0  0  0
   11.1972   -1.1550    0.0000 C   0  0  0  0  0  0  0  0  0  0  0  0
    7.7331    0.8450    0.0000 C   0  0  2  0  0  0  0  0  0  0  0  0
    8.5991    0.3450    0.0000 C   0  0  0  0  0  0  0  0  0  0  0  0
   15.5273   -0.6550    0.0000 C   0  0  0  0  0  0  0  0  0  0  0  0
   16.3933    0.8450    0.0000 C   0  0  0  0  0  0  0  0  0  0  0  0
    7.7331    1.8450    0.0000 C   0  0  0  0  0  0  0  0  0  0  0  0
    6.0010   -1.1550    0.0000 C   0  0  2  0  0  0  0  0  0  0  0  0
   18.1254    0.8450    0.0000 C   0  0  1  0  0  0  0  0  0  0  0  0
    6.8671   -0.6550    0.0000 C   0  0  0  0  0  0  0  0  0  0  0  0
    5.1350   -0.6550    0.0000 C   0  0  0  0  0  0  0  0  0  0  0  0
   16.3933   -1.1550    0.0000 C   0  0  0  0  0  0  0  0  0  0  0  0
   18.1254    1.8450    0.0000 C   0  0  0  0  0  0  0  0  0  0  0  0
   18.9914    2.3450    0.0000 C   0  0  0  0  0  0  0  0  0  0  0  0
    4.2690   -1.1550    0.0000 C   0  0  0  0  0  0  0  0  0  0  0  0
    6.8671    2.3450    0.0000 C   0  0  0  0  0  0  0  0  0  0  0  0
   18.9914    0.3450    0.0000 C   0  0  0  0  0  0  0  0  0  0  0  0
    5.1350   -2.6550    0.0000 C   0  0  0  0  0  0  0  0  0  0  0  0
   18.9914    3.3450    0.0000 C   0  0  0  0  0  0  0  0  0  0  0  0
    3.4030   -0.6550    0.0000 C   0  0  0  0  0  0  0  0  0  0  0  0
    5.1350   -3.6550    0.0000 C   0  0  0  0  0  0  0  0  0  0  0  0
    4.2690   -2.1550    0.0000 C   0  0  0  0  0  0  0  0  0  0  0  0
   12.9292    0.2250    0.0000 H   0  0  0  0  0  0  0  0  0  0  0  0
    9.7942    0.0350    0.0000 H   0  0  0  0  0  0  0  0  0  0  0  0
   12.3923    1.5350    0.0000 H   0  0  0  0  0  0  0  0  0  0  0  0
   10.8681   -0.3450    0.0000 H   0  0  0  0  0  0  0  0  0  0  0  0
   12.0632   -0.2750    0.0000 H   0  0  0  0  0  0  0  0  0  0  0  0
    9.4651    1.4650    0.0000 H   0  0  0  0  0  0  0  0  0  0  0  0
   14.1053    1.8081    0.0000 H   0  0  0  0  0  0  0  0  0  0  0  0
   14.3322    2.6550    0.0000 H   0  0  0  0  0  0  0  0  0  0  0  0
   13.4853    2.8819    0.0000 H   0  0  0  0  0  0  0  0  0  0  0  0
   12.3732    2.8819    0.0000 H   0  0  0  0  0  0  0  0  0  0  0  0
   11.5263    2.6550    0.0000 H   0  0  0  0  0  0  0  0  0  0  0  0
   11.7532    1.8081    0.0000 H   0  0  0  0  0  0  0  0  0  0  0  0
   15.5273    0.9650    0.0000 H   0  0  0  0  0  0  0  0  0  0  0  0
    9.1551   -0.6181    0.0000 H   0  0  0  0  0  0  0  0  0  0  0  0
    8.9282   -1.4650    0.0000 H   0  0  0  0  0  0  0  0  0  0  0  0
    9.7751   -1.6919    0.0000 H   0  0  0  0  0  0  0  0  0  0  0  0
   10.8872   -1.6919    0.0000 H   0  0  0  0  0  0  0  0  0  0  0  0
   11.7341   -1.4650    0.0000 H   0  0  0  0  0  0  0  0  0  0  0  0
   11.5072   -0.6181    0.0000 H   0  0  0  0  0  0  0  0  0  0  0  0
    7.7331    0.2250    0.0000 H   0  0  0  0  0  0  0  0  0  0  0  0
   14.6613    1.4650    0.0000 H   0  0  0  0  0  0  0  0  0  0  0  0
   14.9167   -0.5473    0.0000 H   0  0  0  0  0  0  0  0  0  0  0  0
   15.3153   -1.2376    0.0000 H   0  0  0  0  0  0  0  0  0  0  0  0
    8.3437    1.7373    0.0000 H   0  0  0  0  0  0  0  0  0  0  0  0
    7.9451    2.4276    0.0000 H   0  0  0  0  0  0  0  0  0  0  0  0
    6.3301    0.6550    0.0000 H   0  0  0  0  0  0  0  0  0  0  0  0
    6.5380   -1.4650    0.0000 H   0  0  0  0  0  0  0  0  0  0  0  0
   18.1254    0.2250    0.0000 H   0  0  0  0  0  0  0  0  0  0  0  0
   17.2594   -0.2750    0.0000 H   0  0  0  0  0  0  0  0  0  0  0  0
    5.5335   -0.1801    0.0000 H   0  0  0  0  0  0  0  0  0  0  0  0
    4.7365   -0.1801    0.0000 H   0  0  0  0  0  0  0  0  0  0  0  0
   16.0833   -1.6919    0.0000 H   0  0  0  0  0  0  0  0  0  0  0  0
   16.9303   -1.4650    0.0000 H   0  0  0  0  0  0  0  0  0  0  0  0
   16.7033   -0.6181    0.0000 H   0  0  0  0  0  0  0  0  0  0  0  0
   17.9133    2.4276    0.0000 H   0  0  0  0  0  0  0  0  0  0  0  0
   17.5148    1.7373    0.0000 H   0  0  0  0  0  0  0  0  0  0  0  0
    6.5380   -2.4650    0.0000 H   0  0  0  0  0  0  0  0  0  0  0  0
   19.2035    1.7624    0.0000 H   0  0  0  0  0  0  0  0  0  0  0  0
   19.6020    2.4527    0.0000 H   0  0  0  0  0  0  0  0  0  0  0  0
    3.8705   -1.6300    0.0000 H   0  0  0  0  0  0  0  0  0  0  0  0
    4.6675   -1.6300    0.0000 H   0  0  0  0  0  0  0  0  0  0  0  0
   18.9914   -0.2750    0.0000 H   0  0  0  0  0  0  0  0  0  0  0  0
   19.6114    3.3450    0.0000 H   0  0  0  0  0  0  0  0  0  0  0  0
   18.9914    3.9650    0.0000 H   0  0  0  0  0  0  0  0  0  0  0  0
   18.3714    3.3450    0.0000 H   0  0  0  0  0  0  0  0  0  0  0  0
    4.5150   -3.6550    0.0000 H   0  0  0  0  0  0  0  0  0  0  0  0
    5.1350   -4.2750    0.0000 H   0  0  0  0  0  0  0  0  0  0  0  0
    5.7550   -3.6550    0.0000 H   0  0  0  0  0  0  0  0  0  0  0  0
    6.3301    3.6550    0.0000 H   0  0  0  0  0  0  0  0  0  0  0  0
    4.2690   -1.5350    0.0000 H   0  0  0  0  0  0  0  0  0  0  0  0
    3.7320   -2.4650    0.0000 H   0  0  0  0  0  0  0  0  0  0  0  0
    2.0000   -0.8450    0.0000 H   0  0  0  0  0  0  0  0  0  0  0  0
  1 21  2  0  0  0  0
  2 22  2  0  0  0  0
  3 29  2  0  0  0  0
  4 31  2  0  0  0  0
  5 35  2  0  0  0  0
  6 41  1  0  0  0  0
  6 96  1  0  0  0  0
  7 41  2  0  0  0  0
  8 42  2  0  0  0  0
  9 45  1  0  0  0  0
  9 99  1  0  0  0  0
 10 45  2  0  0  0  0
 17 11  1  1  0  0  0
 11 21  1  0  0  0  0
 11 52  1  0  0  0  0
 18 12  1  6  0  0  0
 12 29  1  0  0  0  0
 12 53  1  0  0  0  0
 13 22  1  0  0  0  0
 25 13  1  6  0  0  0
 13 68  1  0  0  0  0
 28 14  1  1  0  0  0
 14 35  1  0  0  0  0
 14 73  1  0  0  0  0
 15 31  1  0  0  0  0
 34 15  1  1  0  0  0
 15 76  1  0  0  0  0
 33 16  1  1  0  0  0
 16 43  1  0  0  0  0
 16 84  1  0  0  0  0
 17 19  1  0  0  0  0
 17 22  1  0  0  0  0
 17 48  1  0  0  0  0
 18 20  1  0  0  0  0
 18 21  1  0  0  0  0
 18 49  1  0  0  0  0
 19 23  1  0  0  0  0
 19 24  1  0  0  0  0
 19 50  1  0  0  0  0
 20 26  1  0  0  0  0
 20 27  1  0  0  0  0
 20 51  1  0  0  0  0
 23 54  1  0  0  0  0
 23 55  1  0  0  0  0
 23 56  1  0  0  0  0
 24 57  1  0  0  0  0
 24 58  1  0  0  0  0
 24 59  1  0  0  0  0
 25 30  1  0  0  0  0
 25 31  1  0  0  0  0
 25 60  1  0  0  0  0
 26 61  1  0  0  0  0
 26 62  1  0  0  0  0
 26 63  1  0  0  0  0
 27 64  1  0  0  0  0
 27 65  1  0  0  0  0
 27 66  1  0  0  0  0
 28 29  1  0  0  0  0
 28 32  1  0  0  0  0
 28 67  1  0  0  0  0
 30 37  1  0  0  0  0
 30 69  1  0  0  0  0
 30 70  1  0  0  0  0
 32 41  1  0  0  0  0
 32 71  1  0  0  0  0
 32 72  1  0  0  0  0
 33 35  1  0  0  0  0
 33 36  1  0  0  0  0
 33 74  1  0  0  0  0
 34 38  1  0  0  0  0
 34 42  1  0  0  0  0
 34 75  1  0  0  0  0
 36 40  1  0  0  0  0
 36 77  1  0  0  0  0
 36 78  1  0  0  0  0
 37 79  1  0  0  0  0
 37 80  1  0  0  0  0
 37 81  1  0  0  0  0
 38 39  1  0  0  0  0
 38 82  1  0  0  0  0
 38 83  1  0  0  0  0
 39 44  1  0  0  0  0
 39 85  1  0  0  0  0
 39 86  1  0  0  0  0
 40 45  1  0  0  0  0
 40 87  1  0  0  0  0
 40 88  1  0  0  0  0
 42 89  1  0  0  0  0
 43 46  1  0  0  0  0
 43 47  2  0  0  0  0
 44 90  1  0  0  0  0
 44 91  1  0  0  0  0
 44 92  1  0  0  0  0
 46 93  1  0  0  0  0
 46 94  1  0  0  0  0
 46 95  1  0  0  0  0
 47 97  1  0  0  0  0
 47 98  1  0  0  0  0
M  END
> <PUBCHEM_COMPOUND_CID>
500564
> <PUBCHEM_COMPOUND_CANONICALIZED>
1
> <PUBCHEM_CACTVS_COMPLEXITY>
1140
> <PUBCHEM_CACTVS_HBOND_ACCEPTOR>
11
> <PUBCHEM_CACTVS_HBOND_DONOR>
8
> <PUBCHEM_CACTVS_ROTATABLE_BOND>
23
> <PUBCHEM_CACTVS_SUBSKEYS>
AAADcfB7vAAAAAAAAAAAAAAAAAAAAAAAAAAAAAAAAAAAAAAAAAAAHgAQCAAADSjhgAYCCALAAgCIAA3S2AAAAAAAAgAAAIGIAAAAQBoAgSAUQAAGFgCAAAC/FwIIAAAAAAAAAAAAAAAAAAAAAAAAAAAAAA==
> <PUBCHEM_IUPAC_OPENEYE_NAME>
(4S)-5-[[(1S)-1-(carboxymethyl)-2-[[(1S)-1-[[(1S)-1-[[(1S)-1-[[(1S)-1-formylbutyl]carbamoyl]propyl]carbamoyl]-2-methyl-propyl]carbamoyl]-2-methyl-propyl]amino]-2-oxo-ethyl]amino]-4-(isopropenylamino)-5-oxo-pentanoic acid
> <PUBCHEM_IUPAC_CAS_NAME>
(4S)-5-[[(2S)-3-carboxy-1-[[(2S)-3-methyl-1-[[(2S)-3-methyl-1-oxo-1-[[(2S)-1-oxo-1-[[(2S)-1-oxopentan-2-yl]amino]butan-2-yl]amino]butan-2-yl]amino]-1-oxobutan-2-yl]amino]-1-oxopropan-2-yl]amino]-4-(1-methylethenylamino)-5-oxopentanoic acid
> <PUBCHEM_IUPAC_NAME_MARKUP>
(4<I>S</I>)-5-[[(2<I>S</I>)-3-carboxy-1-[[(2<I>S</I>)-3-methyl-1-[[(2<I>S</I>)-3-methyl-1-oxo-1-[[(2<I>S</I>)-1-oxo-1-[[(2<I>S</I>)-1-oxopentan-2-yl]amino]butan-2-yl]amino]butan-2-yl]amino]-1-oxobutan-2-yl]amino]-1-oxopropan-2-yl]amino]-5-oxo-4-(prop-1-en-2-ylamino)pentanoic acid
> <PUBCHEM_IUPAC_NAME>
(4S)-5-[[(2S)-3-carboxy-1-[[(2S)-3-methyl-1-[[(2S)-3-methyl-1-oxo-1-[[(2S)-1-oxo-1-[[(2S)-1-oxopentan-2-yl]amino]butan-2-yl]amino]butan-2-yl]amino]-1-oxobutan-2-yl]amino]-1-oxopropan-2-yl]amino]-5-oxo-4-(prop-1-en-2-ylamino)pentanoic acid
> <PUBCHEM_IUPAC_SYSTEMATIC_NAME>
(4S)-5-[[(2S)-1-[[(2S)-3-methyl-1-[[(2S)-3-methyl-1-oxidanylidene-1-[[(2S)-1-oxidanylidene-1-[[(2S)-1-oxidanylidenepentan-2-yl]amino]butan-2-yl]amino]butan-2-yl]amino]-1-oxidanylidene-butan-2-yl]amino]-4-oxidanyl-1,4-bis(oxidanylidene)butan-2-yl]amino]-5-oxidanylidene-4-(prop-1-en-2-ylamino)pentanoic acid
> <PUBCHEM_IUPAC_TRADITIONAL_NAME>
(4S)-5-[[(1S)-1-(carboxymethyl)-2-[[(1S)-1-[[(1S)-1-[[(1S)-1-[[(1S)-1-formylbutyl]carbamoyl]propyl]carbamoyl]-2-methyl-propyl]carbamoyl]-2-methyl-propyl]amino]-2-keto-ethyl]amino]-4-(isopropenylamino)-5-keto-valeric acid
> <PUBCHEM_IUPAC_INCHI>
InChI=1S/C31H52N6O10/c1-9-11-19(15-38)33-27(43)20(10-2)34-30(46)25(16(3)4)37-31(47)26(17(5)6)36-29(45)22(14-24(41)42)35-28(44)21(32-18(7)8)12-13-23(39)40/h15-17,19-22,25-26,32H,7,9-14H2,1-6,8H3,(H,33,43)(H,34,46)(H,35,44)(H,36,45)(H,37,47)(H,39,40)(H,41,42)/t19-,20-,21-,22-,25-,26-/m0/s1
> <PUBCHEM_IUPAC_INCHIKEY>
ABVNFHAKKLZTSN-BNCSLUSBSA-N
> <PUBCHEM_XLOGP3_AA>
1.8
> <PUBCHEM_EXACT_MASS>
668.37449188
> <PUBCHEM_MOLECULAR_FORMULA>
C31H52N6O10
> <PUBCHEM_MOLECULAR_WEIGHT>
668.8
> <PUBCHEM_OPENEYE_CAN_SMILES>
CCCC(C=O)NC(=O)C(CC)NC(=O)C(C(C)C)NC(=O)C(C(C)C)NC(=O)C(CC(=O)O)NC(=O)C(CCC(=O)O)NC(=C)C
> <PUBCHEM_OPENEYE_ISO_SMILES>
CCC[C@@H](C=O)NC(=O)[C@H](CC)NC(=O)[C@H](C(C)C)NC(=O)[C@H](C(C)C)NC(=O)[C@H](CC(=O)O)NC(=O)[C@H](CCC(=O)O)NC(=C)C
> <PUBCHEM_CACTVS_TPSA>
249
> <PUBCHEM_MONOISOTOPIC_WEIGHT>
668.37449188
> <PUBCHEM_TOTAL_CHARGE>
0
> <PUBCHEM_HEAVY_ATOM_COUNT>
47
> <PUBCHEM_ATOM_DEF_STEREO_COUNT>
6
> <PUBCHEM_ATOM_UDEF_STEREO_COUNT>
0
> <PUBCHEM_BOND_DEF_STEREO_COUNT>
0
> <PUBCHEM_BOND_UDEF_STEREO_COUNT>
0
> <PUBCHEM_ISOTOPIC_ATOM_COUNT>
0
> <PUBCHEM_COMPONENT_COUNT>
1
> <PUBCHEM_CACTVS_TAUTO_COUNT>
-1
> <PUBCHEM_COORDINATE_TYPE>
1
5
255
> <PUBCHEM_BONDANNOTATIONS>
17  11  5
18  12  6
25  13  6
28  14  5
34  15  5
33  16  5
$$$$
