500547
  -OEChem-10302200282D
126130  0     1  0  0  0  0  0999 V2000
   17.2075   -6.5742    0.0000 Br  0  0  0  0  0  0  0  0  0  0  0  0
   17.1275   -0.3884    0.0000 O   0  0  0  0  0  0  0  0  0  0  0  0
   15.7932    0.5116    0.0000 O   0  0  0  0  0  0  0  0  0  0  0  0
   14.4565   -2.9093    0.0000 O   0  0  0  0  0  0  0  0  0  0  0  0
   13.8555   -0.0264    0.0000 O   0  0  0  0  0  0  0  0  0  0  0  0
   11.0182    2.1985    0.0000 O   0  0  0  0  0  0  0  0  0  0  0  0
    7.6728    0.8538    0.0000 O   0  0  0  0  0  0  0  0  0  0  0  0
    6.2004    4.1450    0.0000 O   0  0  0  0  0  0  0  0  0  0  0  0
    6.9496    5.9994    0.0000 O   0  0  0  0  0  0  0  0  0  0  0  0
    8.5556    5.3506    0.0000 O   0  0  0  0  0  0  0  0  0  0  0  0
    2.6140    4.5155    0.0000 O   0  0  0  0  0  0  0  0  0  0  0  0
    2.8550    2.8003    0.0000 O   0  0  0  0  0  0  0  0  0  0  0  0
   14.5773   -1.1815    0.0000 N   0  0  0  0  0  0  0  0  0  0  0  0
   12.4906   -1.0927    0.0000 N   0  0  0  0  0  0  0  0  0  0  0  0
   11.2593    0.4833    0.0000 N   0  0  0  0  0  0  0  0  0  0  0  0
    9.0377    1.9202    0.0000 N   0  0  0  0  0  0  0  0  0  0  0  0
    6.4415    2.4298    0.0000 N   0  0  0  0  0  0  0  0  0  0  0  0
    4.4610    2.1515    0.0000 N   0  0  0  0  0  0  0  0  0  0  0  0
   18.6250    1.4322    0.0000 C   0  0  2  0  0  0  0  0  0  0  0  0
   20.0240    1.4410    0.0000 C   0  0  0  0  0  0  0  0  0  0  0  0
   18.8839    2.3981    0.0000 C   0  0  1  0  0  0  0  0  0  0  0  0
   17.4040    0.5665    0.0000 C   0  0  1  0  0  0  0  0  0  0  0  0
   18.1472    3.3807    0.0000 C   0  0  0  0  0  0  0  0  0  0  0  0
   16.8506    2.0870    0.0000 C   0  0  0  0  0  0  0  0  0  0  0  0
   16.5750    1.1257    0.0000 C   0  0  1  0  0  0  0  0  0  0  0  0
   20.8900    1.9410    0.0000 C   0  0  0  0  0  0  0  0  0  0  0  0
   20.5240    0.5749    0.0000 C   0  0  0  0  0  0  0  0  0  0  0  0
   18.2331    0.0073    0.0000 C   0  0  0  0  0  0  0  0  0  0  0  0
   15.5748   -1.2512    0.0000 C   0  0  1  0  0  0  0  0  0  0  0  0
   16.0132   -2.1500    0.0000 C   0  0  0  0  0  0  0  0  0  0  0  0
   15.4540   -2.9791    0.0000 C   0  0  0  0  0  0  0  0  0  0  0  0
   14.0181   -2.0105    0.0000 C   0  0  0  0  0  0  0  0  0  0  0  0
   13.0205   -1.9408    0.0000 C   0  0  2  0  0  0  0  0  0  0  0  0
   15.8924   -3.8779    0.0000 C   0  0  0  0  0  0  0  0  0  0  0  0
   12.3777   -2.7068    0.0000 C   0  0  0  0  0  0  0  0  0  0  0  0
   11.4505   -2.3322    0.0000 C   0  0  0  0  0  0  0  0  0  0  0  0
   11.5203   -1.3346    0.0000 C   0  0  0  0  0  0  0  0  0  0  0  0
   15.3332   -4.7069    0.0000 C   0  0  0  0  0  0  0  0  0  0  0  0
   16.8900   -3.9476    0.0000 C   0  0  0  0  0  0  0  0  0  0  0  0
   12.8652   -0.1655    0.0000 C   0  0  0  0  0  0  0  0  0  0  0  0
   15.7716   -5.6057    0.0000 C   0  0  0  0  0  0  0  0  0  0  0  0
   17.3283   -4.8464    0.0000 C   0  0  0  0  0  0  0  0  0  0  0  0
   12.2495    0.6225    0.0000 C   0  0  2  0  0  0  0  0  0  0  0  0
   16.7691   -5.6754    0.0000 C   0  0  0  0  0  0  0  0  0  0  0  0
   12.6242    1.5497    0.0000 C   0  0  0  0  0  0  0  0  0  0  0  0
   12.0085    2.3377    0.0000 C   0  0  0  0  0  0  0  0  0  0  0  0
   13.6144    1.6888    0.0000 C   0  0  0  0  0  0  0  0  0  0  0  0
   10.6436    1.2713    0.0000 C   0  0  0  0  0  0  0  0  0  0  0  0
    9.6534    1.1322    0.0000 C   0  0  2  0  0  0  0  0  0  0  0  0
    9.2787    0.2050    0.0000 C   0  0  0  0  0  0  0  0  0  0  0  0
    8.2885    0.0658    0.0000 C   0  0  0  0  0  0  0  0  0  0  0  0
    9.8944   -0.5830    0.0000 C   0  0  0  0  0  0  0  0  0  0  0  0
    8.0474    1.7810    0.0000 C   0  0  0  0  0  0  0  0  0  0  0  0
    7.4318    2.5690    0.0000 C   0  0  2  0  0  0  0  0  0  0  0  0
    7.8064    3.4962    0.0000 C   0  0  0  0  0  0  0  0  0  0  0  0
    7.1907    4.2842    0.0000 C   0  0  0  0  0  0  0  0  0  0  0  0
    5.8258    3.2178    0.0000 C   0  0  0  0  0  0  0  0  0  0  0  0
    4.8356    3.0787    0.0000 C   0  0  2  0  0  0  0  0  0  0  0  0
    7.5653    5.2114    0.0000 C   0  0  0  0  0  0  0  0  0  0  0  0
    4.2199    3.8667    0.0000 C   0  0  0  0  0  0  0  0  0  0  0  0
    3.2296    3.7275    0.0000 C   0  0  0  0  0  0  0  0  0  0  0  0
   16.1340   -0.4222    0.0000 B   0  0  0  0  0  0  0  0  0  0  0  0
   18.4050    0.6111    0.0000 H   0  0  0  0  0  0  0  0  0  0  0  0
   19.1039    3.2191    0.0000 H   0  0  0  0  0  0  0  0  0  0  0  0
   18.4650    3.9130    0.0000 H   0  0  0  0  0  0  0  0  0  0  0  0
   17.5341    3.4726    0.0000 H   0  0  0  0  0  0  0  0  0  0  0  0
   16.8456    2.7069    0.0000 H   0  0  0  0  0  0  0  0  0  0  0  0
   16.2363    2.1707    0.0000 H   0  0  0  0  0  0  0  0  0  0  0  0
   15.8703    1.6010    0.0000 H   0  0  0  0  0  0  0  0  0  0  0  0
   21.2000    1.4040    0.0000 H   0  0  0  0  0  0  0  0  0  0  0  0
   21.4269    2.2510    0.0000 H   0  0  0  0  0  0  0  0  0  0  0  0
   20.5800    2.4779    0.0000 H   0  0  0  0  0  0  0  0  0  0  0  0
   19.9870    0.2649    0.0000 H   0  0  0  0  0  0  0  0  0  0  0  0
   20.8340    0.0380    0.0000 H   0  0  0  0  0  0  0  0  0  0  0  0
   21.0609    0.8849    0.0000 H   0  0  0  0  0  0  0  0  0  0  0  0
   17.8864   -0.5067    0.0000 H   0  0  0  0  0  0  0  0  0  0  0  0
   18.7471   -0.3394    0.0000 H   0  0  0  0  0  0  0  0  0  0  0  0
   18.5798    0.5213    0.0000 H   0  0  0  0  0  0  0  0  0  0  0  0
   15.2281   -1.7652    0.0000 H   0  0  0  0  0  0  0  0  0  0  0  0
   16.4592   -2.5807    0.0000 H   0  0  0  0  0  0  0  0  0  0  0  0
   16.5148   -1.7856    0.0000 H   0  0  0  0  0  0  0  0  0  0  0  0
   14.3055   -0.6242    0.0000 H   0  0  0  0  0  0  0  0  0  0  0  0
   15.0080   -2.5484    0.0000 H   0  0  0  0  0  0  0  0  0  0  0  0
   14.9524   -3.3435    0.0000 H   0  0  0  0  0  0  0  0  0  0  0  0
   13.3398   -1.4093    0.0000 H   0  0  0  0  0  0  0  0  0  0  0  0
   12.0867   -3.2542    0.0000 H   0  0  0  0  0  0  0  0  0  0  0  0
   12.8917   -3.0535    0.0000 H   0  0  0  0  0  0  0  0  0  0  0  0
   10.8400   -2.2245    0.0000 H   0  0  0  0  0  0  0  0  0  0  0  0
   11.2797   -2.9282    0.0000 H   0  0  0  0  0  0  0  0  0  0  0  0
   11.4340   -0.7207    0.0000 H   0  0  0  0  0  0  0  0  0  0  0  0
   10.9007   -1.3563    0.0000 H   0  0  0  0  0  0  0  0  0  0  0  0
   14.7147   -4.6636    0.0000 H   0  0  0  0  0  0  0  0  0  0  0  0
   17.2367   -3.4336    0.0000 H   0  0  0  0  0  0  0  0  0  0  0  0
   15.4249   -6.1197    0.0000 H   0  0  0  0  0  0  0  0  0  0  0  0
   17.9468   -4.8897    0.0000 H   0  0  0  0  0  0  0  0  0  0  0  0
   11.8678    1.1111    0.0000 H   0  0  0  0  0  0  0  0  0  0  0  0
   13.0059    1.0611    0.0000 H   0  0  0  0  0  0  0  0  0  0  0  0
   11.0270   -0.0915    0.0000 H   0  0  0  0  0  0  0  0  0  0  0  0
   12.4971    2.7194    0.0000 H   0  0  0  0  0  0  0  0  0  0  0  0
   11.6268    2.8262    0.0000 H   0  0  0  0  0  0  0  0  0  0  0  0
   11.5199    1.9560    0.0000 H   0  0  0  0  0  0  0  0  0  0  0  0
   13.7007    1.0749    0.0000 H   0  0  0  0  0  0  0  0  0  0  0  0
   14.2284    1.7751    0.0000 H   0  0  0  0  0  0  0  0  0  0  0  0
   13.5281    2.3028    0.0000 H   0  0  0  0  0  0  0  0  0  0  0  0
    9.8856    1.7070    0.0000 H   0  0  0  0  0  0  0  0  0  0  0  0
    8.8970    0.6935    0.0000 H   0  0  0  0  0  0  0  0  0  0  0  0
    9.2699    2.4950    0.0000 H   0  0  0  0  0  0  0  0  0  0  0  0
    8.2022    0.6798    0.0000 H   0  0  0  0  0  0  0  0  0  0  0  0
    7.6745   -0.0205    0.0000 H   0  0  0  0  0  0  0  0  0  0  0  0
    8.3748   -0.5482    0.0000 H   0  0  0  0  0  0  0  0  0  0  0  0
    9.4058   -0.9648    0.0000 H   0  0  0  0  0  0  0  0  0  0  0  0
   10.2761   -1.0716    0.0000 H   0  0  0  0  0  0  0  0  0  0  0  0
   10.3830   -0.2013    0.0000 H   0  0  0  0  0  0  0  0  0  0  0  0
    7.1995    1.9941    0.0000 H   0  0  0  0  0  0  0  0  0  0  0  0
    8.3322    3.1676    0.0000 H   0  0  0  0  0  0  0  0  0  0  0  0
    8.2212    3.9569    0.0000 H   0  0  0  0  0  0  0  0  0  0  0  0
    6.2092    1.8550    0.0000 H   0  0  0  0  0  0  0  0  0  0  0  0
    6.6649    4.6127    0.0000 H   0  0  0  0  0  0  0  0  0  0  0  0
    6.7758    3.8234    0.0000 H   0  0  0  0  0  0  0  0  0  0  0  0
    4.2216    2.9924    0.0000 H   0  0  0  0  0  0  0  0  0  0  0  0
    4.7673    4.1578    0.0000 H   0  0  0  0  0  0  0  0  0  0  0  0
    4.0283    4.4563    0.0000 H   0  0  0  0  0  0  0  0  0  0  0  0
    3.8470    2.0652    0.0000 H   0  0  0  0  0  0  0  0  0  0  0  0
    4.8427    1.6629    0.0000 H   0  0  0  0  0  0  0  0  0  0  0  0
    7.1819    6.5742    0.0000 H   0  0  0  0  0  0  0  0  0  0  0  0
    2.0000    4.4292    0.0000 H   0  0  0  0  0  0  0  0  0  0  0  0
  1 44  1  0  0  0  0
  2 22  1  0  0  0  0
  2 62  1  0  0  0  0
  3 25  1  0  0  0  0
  3 62  1  0  0  0  0
  4 32  2  0  0  0  0
  5 40  2  0  0  0  0
  6 48  2  0  0  0  0
  7 53  2  0  0  0  0
  8 57  2  0  0  0  0
  9 59  1  0  0  0  0
  9125  1  0  0  0  0
 10 59  2  0  0  0  0
 11 61  1  0  0  0  0
 11126  1  0  0  0  0
 12 61  2  0  0  0  0
 29 13  1  6  0  0  0
 13 32  1  0  0  0  0
 13 82  1  0  0  0  0
 14 33  1  0  0  0  0
 14 37  1  0  0  0  0
 14 40  1  0  0  0  0
 43 15  1  1  0  0  0
 15 48  1  0  0  0  0
 15 98  1  0  0  0  0
 49 16  1  6  0  0  0
 16 53  1  0  0  0  0
 16107  1  0  0  0  0
 54 17  1  1  0  0  0
 17 57  1  0  0  0  0
 17117  1  0  0  0  0
 58 18  1  1  0  0  0
 18123  1  0  0  0  0
 18124  1  0  0  0  0
 19 20  1  0  0  0  0
 19 22  1  0  0  0  0
 19 23  1  0  0  0  0
 19 63  1  1  0  0  0
 20 21  1  0  0  0  0
 20 26  1  0  0  0  0
 20 27  1  0  0  0  0
 21 23  1  0  0  0  0
 21 24  1  0  0  0  0
 21 64  1  1  0  0  0
 22 25  1  0  0  0  0
 22 28  1  1  0  0  0
 23 65  1  0  0  0  0
 23 66  1  0  0  0  0
 24 25  1  0  0  0  0
 24 67  1  0  0  0  0
 24 68  1  0  0  0  0
 25 69  1  1  0  0  0
 26 70  1  0  0  0  0
 26 71  1  0  0  0  0
 26 72  1  0  0  0  0
 27 73  1  0  0  0  0
 27 74  1  0  0  0  0
 27 75  1  0  0  0  0
 28 76  1  0  0  0  0
 28 77  1  0  0  0  0
 28 78  1  0  0  0  0
 29 30  1  0  0  0  0
 29 62  1  0  0  0  0
 29 79  1  0  0  0  0
 30 31  1  0  0  0  0
 30 80  1  0  0  0  0
 30 81  1  0  0  0  0
 31 34  1  0  0  0  0
 31 83  1  0  0  0  0
 31 84  1  0  0  0  0
 33 32  1  6  0  0  0
 33 35  1  0  0  0  0
 33 85  1  0  0  0  0
 34 38  2  0  0  0  0
 34 39  1  0  0  0  0
 35 36  1  0  0  0  0
 35 86  1  0  0  0  0
 35 87  1  0  0  0  0
 36 37  1  0  0  0  0
 36 88  1  0  0  0  0
 36 89  1  0  0  0  0
 37 90  1  0  0  0  0
 37 91  1  0  0  0  0
 38 41  1  0  0  0  0
 38 92  1  0  0  0  0
 39 42  2  0  0  0  0
 39 93  1  0  0  0  0
 40 43  1  0  0  0  0
 41 44  2  0  0  0  0
 41 94  1  0  0  0  0
 42 44  1  0  0  0  0
 42 95  1  0  0  0  0
 43 45  1  0  0  0  0
 43 96  1  0  0  0  0
 45 46  1  0  0  0  0
 45 47  1  0  0  0  0
 45 97  1  0  0  0  0
 46 99  1  0  0  0  0
 46100  1  0  0  0  0
 46101  1  0  0  0  0
 47102  1  0  0  0  0
 47103  1  0  0  0  0
 47104  1  0  0  0  0
 48 49  1  0  0  0  0
 49 50  1  0  0  0  0
 49105  1  0  0  0  0
 50 51  1  0  0  0  0
 50 52  1  0  0  0  0
 50106  1  0  0  0  0
 51108  1  0  0  0  0
 51109  1  0  0  0  0
 51110  1  0  0  0  0
 52111  1  0  0  0  0
 52112  1  0  0  0  0
 52113  1  0  0  0  0
 53 54  1  0  0  0  0
 54 55  1  0  0  0  0
 54114  1  0  0  0  0
 55 56  1  0  0  0  0
 55115  1  0  0  0  0
 55116  1  0  0  0  0
 56 59  1  0  0  0  0
 56118  1  0  0  0  0
 56119  1  0  0  0  0
 57 58  1  0  0  0  0
 58 60  1  0  0  0  0
 58120  1  0  0  0  0
 60 61  1  0  0  0  0
 60121  1  0  0  0  0
 60122  1  0  0  0  0
M  END
> <PUBCHEM_COMPOUND_CID>
500547
> <PUBCHEM_COMPOUND_CANONICALIZED>
1
> <PUBCHEM_CACTVS_COMPLEXITY>
1680
> <PUBCHEM_CACTVS_HBOND_ACCEPTOR>
12
> <PUBCHEM_CACTVS_HBOND_DONOR>
7
> <PUBCHEM_CACTVS_ROTATABLE_BOND>
20
> <PUBCHEM_CACTVS_SUBSKEYS>
AAADcfJ/vAAAEAAAAAAAAAAAAABgAWJAAAAwYMAAAAAAAEgBAAAoHgBQCAABr3zhmAYyCIPAAgCIAiHSGAACAAAgAAQIiIGIAKgJYDqAkTCUYAAmlgCIihe/1/IPggAAAAAAAADEAAYAADCAAAAAAAAAAA==
> <PUBCHEM_IUPAC_OPENEYE_NAME>
(4S)-4-[[(2S)-2-amino-3-carboxy-propanoyl]amino]-5-[[(1S)-1-[[(1S)-1-[(2S)-2-[[(1R)-3-(4-bromophenyl)-1-[(1R,2S,6R,8S)-2,9,9-trimethyl-3,5-dioxa-4-boratricyclo[6.1.1.02,6]decan-4-yl]propyl]carbamoyl]pyrrolidine-1-carbonyl]-2-methyl-propyl]carbamoyl]-2-methyl-propyl]amino]-5-oxo-pentanoic acid
> <PUBCHEM_IUPAC_CAS_NAME>
(4S)-4-[[(2S)-2-amino-3-carboxy-1-oxopropyl]amino]-5-[[(2S)-1-[[(2S)-1-[(2S)-2-[[[(1R)-3-(4-bromophenyl)-1-[(1R,2S,6R,8S)-2,9,9-trimethyl-3,5-dioxa-4-boratricyclo[6.1.1.02,6]decan-4-yl]propyl]amino]-oxomethyl]-1-pyrrolidinyl]-3-methyl-1-oxobutan-2-yl]amino]-3-methyl-1-oxobutan-2-yl]amino]-5-oxopentanoic acid
> <PUBCHEM_IUPAC_NAME_MARKUP>
(4<I>S</I>)-4-[[(2<I>S</I>)-2-amino-3-carboxypropanoyl]amino]-5-[[(2<I>S</I>)-1-[[(2<I>S</I>)-1-[(2<I>S</I>)-2-[[(1<I>R</I>)-3-(4-bromophenyl)-1-[(1<I>R</I>,2<I>S</I>,6<I>R</I>,8<I>S</I>)-2,9,9-trimethyl-3,5-dioxa-4-boratricyclo[6.1.1.0<SUP>2,6</SUP>]decan-4-yl]propyl]carbamoyl]pyrrolidin-1-yl]-3-methyl-1-oxobutan-2-yl]amino]-3-methyl-1-oxobutan-2-yl]amino]-5-oxopentanoic acid
> <PUBCHEM_IUPAC_NAME>
(4S)-4-[[(2S)-2-amino-3-carboxypropanoyl]amino]-5-[[(2S)-1-[[(2S)-1-[(2S)-2-[[(1R)-3-(4-bromophenyl)-1-[(1R,2S,6R,8S)-2,9,9-trimethyl-3,5-dioxa-4-boratricyclo[6.1.1.02,6]decan-4-yl]propyl]carbamoyl]pyrrolidin-1-yl]-3-methyl-1-oxobutan-2-yl]amino]-3-methyl-1-oxobutan-2-yl]amino]-5-oxopentanoic acid
> <PUBCHEM_IUPAC_SYSTEMATIC_NAME>
(4S)-4-[[(2S)-2-azanyl-4-oxidanyl-4-oxidanylidene-butanoyl]amino]-5-[[(2S)-1-[[(2S)-1-[(2S)-2-[[(1R)-3-(4-bromophenyl)-1-[(1R,2S,6R,8S)-2,9,9-trimethyl-3,5-dioxa-4-boratricyclo[6.1.1.02,6]decan-4-yl]propyl]carbamoyl]pyrrolidin-1-yl]-3-methyl-1-oxidanylidene-butan-2-yl]amino]-3-methyl-1-oxidanylidene-butan-2-yl]amino]-5-oxidanylidene-pentanoic acid
> <PUBCHEM_IUPAC_TRADITIONAL_NAME>
(4S)-4-[[(2S)-2-amino-3-carboxy-propanoyl]amino]-5-[[(1S)-1-[[(1S)-1-[(2S)-2-[[(1R)-3-(4-bromophenyl)-1-[(1R,2S,6R,8S)-2,9,9-trimethyl-3,5-dioxa-4-boratricyclo[6.1.1.02,6]decan-4-yl]propyl]carbamoyl]pyrrolidine-1-carbonyl]-2-methyl-propyl]carbamoyl]-2-methyl-propyl]amino]-5-keto-valeric acid
> <PUBCHEM_IUPAC_INCHI>
InChI=1S/C43H64BBrN6O11/c1-22(2)35(49-38(57)28(15-17-33(52)53)47-37(56)27(46)21-34(54)55)40(59)50-36(23(3)4)41(60)51-18-8-9-29(51)39(58)48-32(16-12-24-10-13-26(45)14-11-24)44-61-31-20-25-19-30(42(25,5)6)43(31,7)62-44/h10-11,13-14,22-23,25,27-32,35-36H,8-9,12,15-21,46H2,1-7H3,(H,47,56)(H,48,58)(H,49,57)(H,50,59)(H,52,53)(H,54,55)/t25-,27-,28-,29-,30+,31+,32-,35-,36-,43-/m0/s1
> <PUBCHEM_IUPAC_INCHIKEY>
GSKXBACYXGUSPY-LHWUUHGHSA-N
> <PUBCHEM_EXACT_MASS>
930.39095
> <PUBCHEM_MOLECULAR_FORMULA>
C43H64BBrN6O11
> <PUBCHEM_MOLECULAR_WEIGHT>
931.7
> <PUBCHEM_OPENEYE_CAN_SMILES>
B1(OC2CC3CC(C3(C)C)C2(O1)C)C(CCC4=CC=C(C=C4)Br)NC(=O)C5CCCN5C(=O)C(C(C)C)NC(=O)C(C(C)C)NC(=O)C(CCC(=O)O)NC(=O)C(CC(=O)O)N
> <PUBCHEM_OPENEYE_ISO_SMILES>
B1(O[C@@H]2C[C@@H]3C[C@@H]([C@@]2(O1)C)C3(C)C)[C@H](CCC4=CC=C(C=C4)Br)NC(=O)[C@@H]5CCCN5C(=O)[C@H](C(C)C)NC(=O)[C@H](C(C)C)NC(=O)[C@H](CCC(=O)O)NC(=O)[C@H](CC(=O)O)N
> <PUBCHEM_CACTVS_TPSA>
256
> <PUBCHEM_MONOISOTOPIC_WEIGHT>
930.39095
> <PUBCHEM_TOTAL_CHARGE>
0
> <PUBCHEM_HEAVY_ATOM_COUNT>
62
> <PUBCHEM_ATOM_DEF_STEREO_COUNT>
10
> <PUBCHEM_ATOM_UDEF_STEREO_COUNT>
0
> <PUBCHEM_BOND_DEF_STEREO_COUNT>
0
> <PUBCHEM_BOND_UDEF_STEREO_COUNT>
0
> <PUBCHEM_ISOTOPIC_ATOM_COUNT>
0
> <PUBCHEM_COMPONENT_COUNT>
1
> <PUBCHEM_CACTVS_TAUTO_COUNT>
-1
> <PUBCHEM_COORDINATE_TYPE>
1
5
255
> <PUBCHEM_BONDANNOTATIONS>
29  13  6
43  15  5
49  16  6
54  17  5
58  18  5
19  63  5
21  64  5
22  28  5
25  69  5
33  32  6
34  38  8
34  39  8
38  41  8
39  42  8
41  44  8
42  44  8
$$$$
