500571
  -OEChem-10302200282D
102102  0     1  0  0  0  0  0999 V2000
   10.3312    2.9169    0.0000 O   0  0  0  0  0  0  0  0  0  0  0  0
   11.4331    3.7175    0.0000 O   0  0  0  0  0  0  0  0  0  0  0  0
    6.8671    1.9169    0.0000 O   0  0  0  0  0  0  0  0  0  0  0  0
   13.4546    6.7031    0.0000 O   0  0  0  0  0  0  0  0  0  0  0  0
    7.7331   -1.5831    0.0000 O   0  0  0  0  0  0  0  0  0  0  0  0
   14.8215    4.4378    0.0000 O   0  0  0  0  0  0  0  0  0  0  0  0
    4.2690   -2.5831    0.0000 O   0  0  0  0  0  0  0  0  0  0  0  0
    2.5369   -1.5831    0.0000 O   0  0  0  0  0  0  0  0  0  0  0  0
    3.4030   -0.0831    0.0000 O   0  0  0  0  0  0  0  0  0  0  0  0
    3.4030   -6.0831    0.0000 O   0  0  0  0  0  0  0  0  0  0  0  0
    5.1350   -6.0831    0.0000 O   0  0  0  0  0  0  0  0  0  0  0  0
    9.4651    4.4169    0.0000 N   0  0  0  0  0  0  0  0  0  0  0  0
    8.5991    1.9169    0.0000 N   0  0  0  0  0  0  0  0  0  0  0  0
   11.9684    5.3648    0.0000 N   0  0  0  0  0  0  0  0  0  0  0  0
    6.8671   -0.0831    0.0000 N   0  0  0  0  0  0  0  0  0  0  0  0
    6.0010   -2.5831    0.0000 N   0  0  0  0  0  0  0  0  0  0  0  0
   15.3568    6.0850    0.0000 N   0  0  0  0  0  0  0  0  0  0  0  0
    6.0010   -4.5831    0.0000 N   0  0  0  0  0  0  0  0  0  0  0  0
   10.2742    5.0047    0.0000 C   0  0  1  0  0  0  0  0  0  0  0  0
    9.9651    5.9558    0.0000 C   0  0  0  0  0  0  0  0  0  0  0  0
    8.6561    5.0047    0.0000 C   0  0  0  0  0  0  0  0  0  0  0  0
    8.9651    5.9558    0.0000 C   0  0  0  0  0  0  0  0  0  0  0  0
    8.5991    2.9169    0.0000 C   0  0  2  0  0  0  0  0  0  0  0  0
    9.4651    3.4169    0.0000 C   0  0  0  0  0  0  0  0  0  0  0  0
    7.7331    3.4169    0.0000 C   0  0  0  0  0  0  0  0  0  0  0  0
   11.2252    4.6957    0.0000 C   0  0  0  0  0  0  0  0  0  0  0  0
    6.8671    2.9169    0.0000 C   0  0  0  0  0  0  0  0  0  0  0  0
    7.7331    4.4169    0.0000 C   0  0  0  0  0  0  0  0  0  0  0  0
    7.7331    0.4169    0.0000 C   0  0  2  0  0  0  0  0  0  0  0  0
    7.7331    1.4169    0.0000 C   0  0  0  0  0  0  0  0  0  0  0  0
   12.9194    5.0558    0.0000 C   0  0  3  0  0  0  0  0  0  0  0  0
    8.5991   -0.0831    0.0000 C   0  0  0  0  0  0  0  0  0  0  0  0
   13.1273    4.0776    0.0000 C   0  0  0  0  0  0  0  0  0  0  0  0
    8.5991   -1.0831    0.0000 C   0  0  0  0  0  0  0  0  0  0  0  0
    9.4651    0.4169    0.0000 C   0  0  0  0  0  0  0  0  0  0  0  0
   13.6626    5.7249    0.0000 C   0  0  0  0  0  0  0  0  0  0  0  0
    6.8671   -1.0831    0.0000 C   0  0  0  0  0  0  0  0  0  0  0  0
    6.0010   -1.5831    0.0000 C   0  0  2  0  0  0  0  0  0  0  0  0
    5.1350   -1.0831    0.0000 C   0  0  0  0  0  0  0  0  0  0  0  0
   14.0784    3.7686    0.0000 C   0  0  0  0  0  0  0  0  0  0  0  0
   14.6136    5.4159    0.0000 C   0  0  0  0  0  0  0  0  0  0  0  0
    4.2690   -1.5831    0.0000 C   0  0  0  0  0  0  0  0  0  0  0  0
    5.1350   -3.0831    0.0000 C   0  0  0  0  0  0  0  0  0  0  0  0
    5.1350   -4.0831    0.0000 C   0  0  2  0  0  0  0  0  0  0  0  0
   14.2863    2.7905    0.0000 C   0  0  0  0  0  0  0  0  0  0  0  0
    3.4030   -1.0831    0.0000 C   0  0  0  0  0  0  0  0  0  0  0  0
    4.2690   -4.5831    0.0000 C   0  0  0  0  0  0  0  0  0  0  0  0
   16.3078    5.7760    0.0000 C   0  0  0  0  0  0  0  0  0  0  0  0
    4.2690   -5.5831    0.0000 C   0  0  0  0  0  0  0  0  0  0  0  0
   17.0510    6.4452    0.0000 C   0  0  0  0  0  0  0  0  0  0  0  0
   18.0020    6.1361    0.0000 C   0  0  0  0  0  0  0  0  0  0  0  0
   10.3711    4.3923    0.0000 H   0  0  0  0  0  0  0  0  0  0  0  0
   10.5716    6.0847    0.0000 H   0  0  0  0  0  0  0  0  0  0  0  0
    9.9003    6.5724    0.0000 H   0  0  0  0  0  0  0  0  0  0  0  0
    8.0897    5.2569    0.0000 H   0  0  0  0  0  0  0  0  0  0  0  0
    8.3461    4.4678    0.0000 H   0  0  0  0  0  0  0  0  0  0  0  0
    9.0300    6.5724    0.0000 H   0  0  0  0  0  0  0  0  0  0  0  0
    8.3587    6.0847    0.0000 H   0  0  0  0  0  0  0  0  0  0  0  0
    9.1360    2.6069    0.0000 H   0  0  0  0  0  0  0  0  0  0  0  0
    7.7331    2.7969    0.0000 H   0  0  0  0  0  0  0  0  0  0  0  0
    9.1360    1.6069    0.0000 H   0  0  0  0  0  0  0  0  0  0  0  0
   11.8395    5.9713    0.0000 H   0  0  0  0  0  0  0  0  0  0  0  0
    7.7331   -0.2031    0.0000 H   0  0  0  0  0  0  0  0  0  0  0  0
    6.5571    3.4539    0.0000 H   0  0  0  0  0  0  0  0  0  0  0  0
    6.3301    2.6069    0.0000 H   0  0  0  0  0  0  0  0  0  0  0  0
    7.1771    2.3800    0.0000 H   0  0  0  0  0  0  0  0  0  0  0  0
    8.3531    4.4169    0.0000 H   0  0  0  0  0  0  0  0  0  0  0  0
    7.7331    5.0369    0.0000 H   0  0  0  0  0  0  0  0  0  0  0  0
    7.1131    4.4169    0.0000 H   0  0  0  0  0  0  0  0  0  0  0  0
   12.4587    4.6409    0.0000 H   0  0  0  0  0  0  0  0  0  0  0  0
    8.5991    0.5369    0.0000 H   0  0  0  0  0  0  0  0  0  0  0  0
    6.3301    0.2269    0.0000 H   0  0  0  0  0  0  0  0  0  0  0  0
   12.5077    4.0560    0.0000 H   0  0  0  0  0  0  0  0  0  0  0  0
   13.0410    3.4637    0.0000 H   0  0  0  0  0  0  0  0  0  0  0  0
    7.9791   -1.0831    0.0000 H   0  0  0  0  0  0  0  0  0  0  0  0
    8.5991   -1.7031    0.0000 H   0  0  0  0  0  0  0  0  0  0  0  0
    9.2191   -1.0831    0.0000 H   0  0  0  0  0  0  0  0  0  0  0  0
    9.7751   -0.1200    0.0000 H   0  0  0  0  0  0  0  0  0  0  0  0
   10.0021    0.7269    0.0000 H   0  0  0  0  0  0  0  0  0  0  0  0
    9.1551    0.9539    0.0000 H   0  0  0  0  0  0  0  0  0  0  0  0
    6.5380   -1.8931    0.0000 H   0  0  0  0  0  0  0  0  0  0  0  0
    5.5335   -0.6081    0.0000 H   0  0  0  0  0  0  0  0  0  0  0  0
    4.7365   -0.6081    0.0000 H   0  0  0  0  0  0  0  0  0  0  0  0
   14.5391    4.1835    0.0000 H   0  0  0  0  0  0  0  0  0  0  0  0
    6.5380   -2.8931    0.0000 H   0  0  0  0  0  0  0  0  0  0  0  0
    3.8705   -2.0580    0.0000 H   0  0  0  0  0  0  0  0  0  0  0  0
    4.6675   -2.0580    0.0000 H   0  0  0  0  0  0  0  0  0  0  0  0
    5.1350   -4.7031    0.0000 H   0  0  0  0  0  0  0  0  0  0  0  0
   15.2279    6.6915    0.0000 H   0  0  0  0  0  0  0  0  0  0  0  0
   13.8255    2.3756    0.0000 H   0  0  0  0  0  0  0  0  0  0  0  0
   14.8759    2.5989    0.0000 H   0  0  0  0  0  0  0  0  0  0  0  0
    4.0569   -4.0005    0.0000 H   0  0  0  0  0  0  0  0  0  0  0  0
    3.6584   -4.6907    0.0000 H   0  0  0  0  0  0  0  0  0  0  0  0
   16.0167    5.2286    0.0000 H   0  0  0  0  0  0  0  0  0  0  0  0
   16.7964    5.3943    0.0000 H   0  0  0  0  0  0  0  0  0  0  0  0
    6.0010   -5.2031    0.0000 H   0  0  0  0  0  0  0  0  0  0  0  0
    6.5380   -4.2731    0.0000 H   0  0  0  0  0  0  0  0  0  0  0  0
   16.9221    7.0516    0.0000 H   0  0  0  0  0  0  0  0  0  0  0  0
    2.0000   -1.2731    0.0000 H   0  0  0  0  0  0  0  0  0  0  0  0
   18.1309    5.5297    0.0000 H   0  0  0  0  0  0  0  0  0  0  0  0
   18.4628    6.5510    0.0000 H   0  0  0  0  0  0  0  0  0  0  0  0
    3.4030   -6.7031    0.0000 H   0  0  0  0  0  0  0  0  0  0  0  0
  1 24  2  0  0  0  0
  2 26  2  0  0  0  0
  3 30  2  0  0  0  0
  4 36  2  0  0  0  0
  5 37  2  0  0  0  0
  6 41  2  0  0  0  0
  7 43  2  0  0  0  0
  8 46  1  0  0  0  0
  8 99  1  0  0  0  0
  9 46  2  0  0  0  0
 10 49  1  0  0  0  0
 10102  1  0  0  0  0
 11 49  2  0  0  0  0
 12 19  1  0  0  0  0
 12 21  1  0  0  0  0
 12 24  1  0  0  0  0
 23 13  1  1  0  0  0
 13 30  1  0  0  0  0
 13 61  1  0  0  0  0
 14 26  1  0  0  0  0
 14 31  1  0  0  0  0
 14 62  1  0  0  0  0
 29 15  1  6  0  0  0
 15 37  1  0  0  0  0
 15 72  1  0  0  0  0
 38 16  1  1  0  0  0
 16 43  1  0  0  0  0
 16 85  1  0  0  0  0
 17 41  1  0  0  0  0
 17 48  1  0  0  0  0
 17 89  1  0  0  0  0
 44 18  1  1  0  0  0
 18 96  1  0  0  0  0
 18 97  1  0  0  0  0
 19 20  1  0  0  0  0
 19 26  1  1  0  0  0
 19 52  1  0  0  0  0
 20 22  1  0  0  0  0
 20 53  1  0  0  0  0
 20 54  1  0  0  0  0
 21 22  1  0  0  0  0
 21 55  1  0  0  0  0
 21 56  1  0  0  0  0
 22 57  1  0  0  0  0
 22 58  1  0  0  0  0
 23 24  1  0  0  0  0
 23 25  1  0  0  0  0
 23 59  1  0  0  0  0
 25 27  1  0  0  0  0
 25 28  1  0  0  0  0
 25 60  1  0  0  0  0
 27 64  1  0  0  0  0
 27 65  1  0  0  0  0
 27 66  1  0  0  0  0
 28 67  1  0  0  0  0
 28 68  1  0  0  0  0
 28 69  1  0  0  0  0
 29 30  1  0  0  0  0
 29 32  1  0  0  0  0
 29 63  1  0  0  0  0
 31 33  1  0  0  0  0
 31 36  1  0  0  0  0
 31 70  1  0  0  0  0
 32 34  1  0  0  0  0
 32 35  1  0  0  0  0
 32 71  1  0  0  0  0
 33 40  1  0  0  0  0
 33 73  1  0  0  0  0
 33 74  1  0  0  0  0
 34 75  1  0  0  0  0
 34 76  1  0  0  0  0
 34 77  1  0  0  0  0
 35 78  1  0  0  0  0
 35 79  1  0  0  0  0
 35 80  1  0  0  0  0
 36 41  1  0  0  0  0
 37 38  1  0  0  0  0
 38 39  1  0  0  0  0
 38 81  1  0  0  0  0
 39 42  1  0  0  0  0
 39 82  1  0  0  0  0
 39 83  1  0  0  0  0
 40 45  2  0  0  0  0
 40 84  1  0  0  0  0
 42 46  1  0  0  0  0
 42 86  1  0  0  0  0
 42 87  1  0  0  0  0
 43 44  1  0  0  0  0
 44 47  1  0  0  0  0
 44 88  1  0  0  0  0
 45 90  1  0  0  0  0
 45 91  1  0  0  0  0
 47 49  1  0  0  0  0
 47 92  1  0  0  0  0
 47 93  1  0  0  0  0
 48 50  1  0  0  0  0
 48 94  1  0  0  0  0
 48 95  1  0  0  0  0
 50 51  2  0  0  0  0
 50 98  1  0  0  0  0
 51100  1  0  0  0  0
 51101  1  0  0  0  0
M  END
> <PUBCHEM_COMPOUND_CID>
500571
> <PUBCHEM_COMPOUND_CANONICALIZED>
1
> <PUBCHEM_CACTVS_COMPLEXITY>
1350
> <PUBCHEM_CACTVS_HBOND_ACCEPTOR>
12
> <PUBCHEM_CACTVS_HBOND_DONOR>
8
> <PUBCHEM_CACTVS_ROTATABLE_BOND>
22
> <PUBCHEM_CACTVS_SUBSKEYS>
AAADcfB/vAAAAAAAAAAAAAAAAAAAAWAAAAAAAAAAAAAAAAAAAAAAHgAQCAAADSzBgAQCCAPAAgCIAKHSGACAAAAgAAAIAIGIAAgAQBoAwSAUQAAGlgCAAAC/FwIIAAAAAAAAAAAAAAAAAAAAAAAAAAAAAA==
> <PUBCHEM_IUPAC_OPENEYE_NAME>
(4S)-5-[[(1S)-1-[[(1S)-1-[(2S)-2-[1-[2-(allylamino)-2-oxo-acetyl]but-3-enylcarbamoyl]pyrrolidine-1-carbonyl]-2-methyl-propyl]carbamoyl]-2-methyl-propyl]amino]-4-[[(2S)-2-amino-3-carboxy-propanoyl]amino]-5-oxo-pentanoic acid
> <PUBCHEM_IUPAC_CAS_NAME>
(4S)-4-[[(2S)-2-amino-3-carboxy-1-oxopropyl]amino]-5-[[(2S)-1-[[(2S)-1-[(2S)-2-[[[1,2-dioxo-1-(prop-2-enylamino)hex-5-en-3-yl]amino]-oxomethyl]-1-pyrrolidinyl]-3-methyl-1-oxobutan-2-yl]amino]-3-methyl-1-oxobutan-2-yl]amino]-5-oxopentanoic acid
> <PUBCHEM_IUPAC_NAME_MARKUP>
(4<I>S</I>)-4-[[(2<I>S</I>)-2-amino-3-carboxypropanoyl]amino]-5-[[(2<I>S</I>)-1-[[(2<I>S</I>)-1-[(2<I>S</I>)-2-[[1,2-dioxo-1-(prop-2-enylamino)hex-5-en-3-yl]carbamoyl]pyrrolidin-1-yl]-3-methyl-1-oxobutan-2-yl]amino]-3-methyl-1-oxobutan-2-yl]amino]-5-oxopentanoic acid
> <PUBCHEM_IUPAC_NAME>
(4S)-4-[[(2S)-2-amino-3-carboxypropanoyl]amino]-5-[[(2S)-1-[[(2S)-1-[(2S)-2-[[1,2-dioxo-1-(prop-2-enylamino)hex-5-en-3-yl]carbamoyl]pyrrolidin-1-yl]-3-methyl-1-oxobutan-2-yl]amino]-3-methyl-1-oxobutan-2-yl]amino]-5-oxopentanoic acid
> <PUBCHEM_IUPAC_SYSTEMATIC_NAME>
(4S)-4-[[(2S)-2-azanyl-4-oxidanyl-4-oxidanylidene-butanoyl]amino]-5-[[(2S)-1-[[(2S)-1-[(2S)-2-[[1,2-bis(oxidanylidene)-1-(prop-2-enylamino)hex-5-en-3-yl]carbamoyl]pyrrolidin-1-yl]-3-methyl-1-oxidanylidene-butan-2-yl]amino]-3-methyl-1-oxidanylidene-butan-2-yl]amino]-5-oxidanylidene-pentanoic acid
> <PUBCHEM_IUPAC_TRADITIONAL_NAME>
(4S)-5-[[(1S)-1-[[(1S)-1-[(2S)-2-[1-[2-(allylamino)-2-keto-acetyl]but-3-enylcarbamoyl]pyrrolidine-1-carbonyl]-2-methyl-propyl]carbamoyl]-2-methyl-propyl]amino]-4-[[(2S)-2-amino-3-carboxy-propanoyl]amino]-5-keto-valeric acid
> <PUBCHEM_IUPAC_INCHI>
InChI=1S/C33H51N7O11/c1-7-10-20(27(45)32(50)35-14-8-2)36-30(48)22-11-9-15-40(22)33(51)26(18(5)6)39-31(49)25(17(3)4)38-29(47)21(12-13-23(41)42)37-28(46)19(34)16-24(43)44/h7-8,17-22,25-26H,1-2,9-16,34H2,3-6H3,(H,35,50)(H,36,48)(H,37,46)(H,38,47)(H,39,49)(H,41,42)(H,43,44)/t19-,20?,21-,22-,25-,26-/m0/s1
> <PUBCHEM_IUPAC_INCHIKEY>
ZFMPOBGEFFLINV-IYSJTKAESA-N
> <PUBCHEM_XLOGP3_AA>
-2.4
> <PUBCHEM_EXACT_MASS>
721.36465547
> <PUBCHEM_MOLECULAR_FORMULA>
C33H51N7O11
> <PUBCHEM_MOLECULAR_WEIGHT>
721.8
> <PUBCHEM_OPENEYE_CAN_SMILES>
CC(C)C(C(=O)NC(C(C)C)C(=O)N1CCCC1C(=O)NC(CC=C)C(=O)C(=O)NCC=C)NC(=O)C(CCC(=O)O)NC(=O)C(CC(=O)O)N
> <PUBCHEM_OPENEYE_ISO_SMILES>
CC(C)[C@@H](C(=O)N[C@@H](C(C)C)C(=O)N1CCC[C@H]1C(=O)NC(CC=C)C(=O)C(=O)NCC=C)NC(=O)[C@H](CCC(=O)O)NC(=O)[C@H](CC(=O)O)N
> <PUBCHEM_CACTVS_TPSA>
284
> <PUBCHEM_MONOISOTOPIC_WEIGHT>
721.36465547
> <PUBCHEM_TOTAL_CHARGE>
0
> <PUBCHEM_HEAVY_ATOM_COUNT>
51
> <PUBCHEM_ATOM_DEF_STEREO_COUNT>
5
> <PUBCHEM_ATOM_UDEF_STEREO_COUNT>
1
> <PUBCHEM_BOND_DEF_STEREO_COUNT>
0
> <PUBCHEM_BOND_UDEF_STEREO_COUNT>
0
> <PUBCHEM_ISOTOPIC_ATOM_COUNT>
0
> <PUBCHEM_COMPONENT_COUNT>
1
> <PUBCHEM_CACTVS_TAUTO_COUNT>
-1
> <PUBCHEM_COORDINATE_TYPE>
1
5
255
> <PUBCHEM_BONDANNOTATIONS>
23  13  5
29  15  6
38  16  5
44  18  5
19  26  5
31  33  3
$$$$
