500586
  -OEChem-10302200282D
118119  0     1  0  0  0  0  0999 V2000
    6.8311   -0.7280    0.0000 O   0  0  0  0  0  0  0  0  0  0  0  0
    6.6887   -2.0827    0.0000 O   0  0  0  0  0  0  0  0  0  0  0  0
    8.4059    2.5154    0.0000 O   0  0  0  0  0  0  0  0  0  0  0  0
    7.5548   -5.5827    0.0000 O   0  0  0  0  0  0  0  0  0  0  0  0
    5.2254    4.2138    0.0000 O   0  0  0  0  0  0  0  0  0  0  0  0
    4.9567   -5.0827    0.0000 O   0  0  0  0  0  0  0  0  0  0  0  0
    6.8002    7.4572    0.0000 O   0  0  0  0  0  0  0  0  0  0  0  0
    8.7023    8.0753    0.0000 O   0  0  0  0  0  0  0  0  0  0  0  0
    9.2376    6.4280    0.0000 O   0  0  0  0  0  0  0  0  0  0  0  0
    2.4608    7.8685    0.0000 O   0  0  0  0  0  0  0  0  0  0  0  0
    3.6197    9.1556    0.0000 O   0  0  0  0  0  0  0  0  0  0  0  0
    7.0081    8.4354    0.0000 O   0  0  0  0  0  0  0  0  0  0  0  0
    8.5253   -1.0882    0.0000 N   0  0  0  0  0  0  0  0  0  0  0  0
    7.2469    1.2282    0.0000 N   0  0  0  0  0  0  0  0  0  0  0  0
    7.5548   -3.5827    0.0000 N   0  0  0  0  0  0  0  0  0  0  0  0
    6.9196    3.8537    0.0000 N   0  0  0  0  0  0  0  0  0  0  0  0
    5.6412    6.1701    0.0000 N   0  0  0  0  0  0  0  0  0  0  0  0
    5.8227   -6.5827    0.0000 N   0  0  0  0  0  0  0  0  0  0  0  0
    5.3139    8.7955    0.0000 N   0  0  0  0  0  0  0  0  0  0  0  0
    8.4208   -2.0827    0.0000 C   0  0  1  0  0  0  0  0  0  0  0  0
    9.3343   -2.4894    0.0000 C   0  0  0  0  0  0  0  0  0  0  0  0
    9.5035   -0.8802    0.0000 C   0  0  0  0  0  0  0  0  0  0  0  0
   10.0035   -1.7463    0.0000 C   0  0  0  0  0  0  0  0  0  0  0  0
    7.9901    0.5591    0.0000 C   0  0  2  0  0  0  0  0  0  0  0  0
    7.7822   -0.4190    0.0000 C   0  0  0  0  0  0  0  0  0  0  0  0
    8.9411    0.8681    0.0000 C   0  0  0  0  0  0  0  0  0  0  0  0
    7.5548   -2.5827    0.0000 C   0  0  0  0  0  0  0  0  0  0  0  0
    6.7117    2.8755    0.0000 C   0  0  1  0  0  0  0  0  0  0  0  0
    5.7606    2.5665    0.0000 C   0  0  2  0  0  0  0  0  0  0  0  0
    7.4548    2.2064    0.0000 C   0  0  0  0  0  0  0  0  0  0  0  0
    9.1491    1.8463    0.0000 C   0  0  0  0  0  0  0  0  0  0  0  0
    9.6843    0.1990    0.0000 C   0  0  0  0  0  0  0  0  0  0  0  0
    6.6887   -4.0827    0.0000 C   0  0  3  0  0  0  0  0  0  0  0  0
    5.0175    3.2356    0.0000 C   0  0  0  0  0  0  0  0  0  0  0  0
    5.8227   -3.5827    0.0000 C   0  0  0  0  0  0  0  0  0  0  0  0
    5.5527    1.5884    0.0000 C   0  0  0  0  0  0  0  0  0  0  0  0
    6.6887   -5.0827    0.0000 C   0  0  0  0  0  0  0  0  0  0  0  0
    5.8227   -2.5827    0.0000 C   0  0  0  0  0  0  0  0  0  0  0  0
    6.1765    4.5228    0.0000 C   0  0  0  0  0  0  0  0  0  0  0  0
    6.3844    5.5010    0.0000 C   0  0  1  0  0  0  0  0  0  0  0  0
    4.0664    2.9266    0.0000 C   0  0  0  0  0  0  0  0  0  0  0  0
    7.3354    5.8100    0.0000 C   0  0  0  0  0  0  0  0  0  0  0  0
    4.9567   -2.0827    0.0000 C   0  0  0  0  0  0  0  0  0  0  0  0
    5.8227   -5.5827    0.0000 C   0  0  0  0  0  0  0  0  0  0  0  0
    7.5434    6.7881    0.0000 C   0  0  0  0  0  0  0  0  0  0  0  0
    5.8492    7.1482    0.0000 C   0  0  0  0  0  0  0  0  0  0  0  0
    5.1060    7.8174    0.0000 C   0  0  2  0  0  0  0  0  0  0  0  0
    4.9567   -7.0827    0.0000 C   0  0  0  0  0  0  0  0  0  0  0  0
    8.4944    7.0971    0.0000 C   0  0  0  0  0  0  0  0  0  0  0  0
    4.1550    7.5084    0.0000 C   0  0  0  0  0  0  0  0  0  0  0  0
    4.9567   -8.0827    0.0000 C   0  0  0  0  0  0  0  0  0  0  0  0
    3.4118    8.1775    0.0000 C   0  0  0  0  0  0  0  0  0  0  0  0
    6.2650    9.1045    0.0000 C   0  0  0  0  0  0  0  0  0  0  0  0
    4.0907   -8.5827    0.0000 C   0  0  0  0  0  0  0  0  0  0  0  0
    5.8227   -8.5827    0.0000 C   0  0  0  0  0  0  0  0  0  0  0  0
    6.4729   10.0827    0.0000 C   0  0  0  0  0  0  0  0  0  0  0  0
    4.0907   -9.5827    0.0000 C   0  0  0  0  0  0  0  0  0  0  0  0
    5.8227   -9.5827    0.0000 C   0  0  0  0  0  0  0  0  0  0  0  0
    4.9567  -10.0827    0.0000 C   0  0  0  0  0  0  0  0  0  0  0  0
    7.9008   -1.7450    0.0000 H   0  0  0  0  0  0  0  0  0  0  0  0
    9.0243   -3.0264    0.0000 H   0  0  0  0  0  0  0  0  0  0  0  0
    9.8359   -2.8538    0.0000 H   0  0  0  0  0  0  0  0  0  0  0  0
   10.0699   -0.6281    0.0000 H   0  0  0  0  0  0  0  0  0  0  0  0
    9.3119   -0.2906    0.0000 H   0  0  0  0  0  0  0  0  0  0  0  0
   10.4183   -2.2070    0.0000 H   0  0  0  0  0  0  0  0  0  0  0  0
   10.5051   -1.3818    0.0000 H   0  0  0  0  0  0  0  0  0  0  0  0
    8.1190    1.1656    0.0000 H   0  0  0  0  0  0  0  0  0  0  0  0
    8.4804    1.2830    0.0000 H   0  0  0  0  0  0  0  0  0  0  0  0
    6.6573    1.0367    0.0000 H   0  0  0  0  0  0  0  0  0  0  0  0
    7.3014    3.0671    0.0000 H   0  0  0  0  0  0  0  0  0  0  0  0
    8.0917   -3.8927    0.0000 H   0  0  0  0  0  0  0  0  0  0  0  0
    6.2214    2.1516    0.0000 H   0  0  0  0  0  0  0  0  0  0  0  0
    9.7555    1.7174    0.0000 H   0  0  0  0  0  0  0  0  0  0  0  0
    9.2780    2.4527    0.0000 H   0  0  0  0  0  0  0  0  0  0  0  0
    8.5426    1.9752    0.0000 H   0  0  0  0  0  0  0  0  0  0  0  0
    9.2694   -0.2617    0.0000 H   0  0  0  0  0  0  0  0  0  0  0  0
   10.1450   -0.2159    0.0000 H   0  0  0  0  0  0  0  0  0  0  0  0
   10.0991    0.6598    0.0000 H   0  0  0  0  0  0  0  0  0  0  0  0
    6.6887   -3.4627    0.0000 H   0  0  0  0  0  0  0  0  0  0  0  0
    5.5061    3.6174    0.0000 H   0  0  0  0  0  0  0  0  0  0  0  0
    4.7264    3.7831    0.0000 H   0  0  0  0  0  0  0  0  0  0  0  0
    5.2121   -3.4750    0.0000 H   0  0  0  0  0  0  0  0  0  0  0  0
    5.6107   -4.1653    0.0000 H   0  0  0  0  0  0  0  0  0  0  0  0
    7.5093    4.0453    0.0000 H   0  0  0  0  0  0  0  0  0  0  0  0
    4.9463    1.7173    0.0000 H   0  0  0  0  0  0  0  0  0  0  0  0
    5.4238    0.9819    0.0000 H   0  0  0  0  0  0  0  0  0  0  0  0
    6.1592    1.4595    0.0000 H   0  0  0  0  0  0  0  0  0  0  0  0
    6.4333   -2.6903    0.0000 H   0  0  0  0  0  0  0  0  0  0  0  0
    6.0348   -2.0001    0.0000 H   0  0  0  0  0  0  0  0  0  0  0  0
    6.5133    6.1074    0.0000 H   0  0  0  0  0  0  0  0  0  0  0  0
    3.8749    3.5163    0.0000 H   0  0  0  0  0  0  0  0  0  0  0  0
    3.4768    2.7350    0.0000 H   0  0  0  0  0  0  0  0  0  0  0  0
    4.2580    2.3370    0.0000 H   0  0  0  0  0  0  0  0  0  0  0  0
    7.4217    5.1960    0.0000 H   0  0  0  0  0  0  0  0  0  0  0  0
    7.9551    5.7883    0.0000 H   0  0  0  0  0  0  0  0  0  0  0  0
    5.2667   -1.5457    0.0000 H   0  0  0  0  0  0  0  0  0  0  0  0
    4.4197   -1.7727    0.0000 H   0  0  0  0  0  0  0  0  0  0  0  0
    4.6467   -2.6196    0.0000 H   0  0  0  0  0  0  0  0  0  0  0  0
    5.0516    5.9785    0.0000 H   0  0  0  0  0  0  0  0  0  0  0  0
    7.4571    7.4021    0.0000 H   0  0  0  0  0  0  0  0  0  0  0  0
    6.9237    6.8098    0.0000 H   0  0  0  0  0  0  0  0  0  0  0  0
    6.3596   -6.8927    0.0000 H   0  0  0  0  0  0  0  0  0  0  0  0
    4.6453    8.2322    0.0000 H   0  0  0  0  0  0  0  0  0  0  0  0
    4.7446   -6.5001    0.0000 H   0  0  0  0  0  0  0  0  0  0  0  0
    4.3461   -7.1903    0.0000 H   0  0  0  0  0  0  0  0  0  0  0  0
    3.6664    7.1266    0.0000 H   0  0  0  0  0  0  0  0  0  0  0  0
    4.4460    6.9609    0.0000 H   0  0  0  0  0  0  0  0  0  0  0  0
    4.8532    9.2104    0.0000 H   0  0  0  0  0  0  0  0  0  0  0  0
    9.2920    8.2669    0.0000 H   0  0  0  0  0  0  0  0  0  0  0  0
    3.5537   -8.2727    0.0000 H   0  0  0  0  0  0  0  0  0  0  0  0
    6.3596   -8.2727    0.0000 H   0  0  0  0  0  0  0  0  0  0  0  0
    7.0793    9.9538    0.0000 H   0  0  0  0  0  0  0  0  0  0  0  0
    6.6018   10.6891    0.0000 H   0  0  0  0  0  0  0  0  0  0  0  0
    5.8664   10.2116    0.0000 H   0  0  0  0  0  0  0  0  0  0  0  0
    3.5537   -9.8927    0.0000 H   0  0  0  0  0  0  0  0  0  0  0  0
    6.3596   -9.8927    0.0000 H   0  0  0  0  0  0  0  0  0  0  0  0
    2.0000    8.2833    0.0000 H   0  0  0  0  0  0  0  0  0  0  0  0
    4.9567  -10.7027    0.0000 H   0  0  0  0  0  0  0  0  0  0  0  0
  1 25  2  0  0  0  0
  2 27  2  0  0  0  0
  3 30  2  0  0  0  0
  4 37  2  0  0  0  0
  5 39  2  0  0  0  0
  6 44  2  0  0  0  0
  7 46  2  0  0  0  0
  8 49  1  0  0  0  0
  8109  1  0  0  0  0
  9 49  2  0  0  0  0
 10 52  1  0  0  0  0
 10117  1  0  0  0  0
 11 52  2  0  0  0  0
 12 53  2  0  0  0  0
 13 20  1  0  0  0  0
 13 22  1  0  0  0  0
 13 25  1  0  0  0  0
 24 14  1  1  0  0  0
 14 30  1  0  0  0  0
 14 69  1  0  0  0  0
 15 27  1  0  0  0  0
 15 33  1  0  0  0  0
 15 71  1  0  0  0  0
 28 16  1  6  0  0  0
 16 39  1  0  0  0  0
 16 84  1  0  0  0  0
 40 17  1  6  0  0  0
 17 46  1  0  0  0  0
 17 99  1  0  0  0  0
 18 44  1  0  0  0  0
 18 48  1  0  0  0  0
 18102  1  0  0  0  0
 47 19  1  6  0  0  0
 19 53  1  0  0  0  0
 19108  1  0  0  0  0
 20 21  1  0  0  0  0
 20 27  1  1  0  0  0
 20 60  1  0  0  0  0
 21 23  1  0  0  0  0
 21 61  1  0  0  0  0
 21 62  1  0  0  0  0
 22 23  1  0  0  0  0
 22 63  1  0  0  0  0
 22 64  1  0  0  0  0
 23 65  1  0  0  0  0
 23 66  1  0  0  0  0
 24 25  1  0  0  0  0
 24 26  1  0  0  0  0
 24 67  1  0  0  0  0
 26 31  1  0  0  0  0
 26 32  1  0  0  0  0
 26 68  1  0  0  0  0
 28 29  1  0  0  0  0
 28 30  1  0  0  0  0
 28 70  1  0  0  0  0
 29 34  1  0  0  0  0
 29 36  1  1  0  0  0
 29 72  1  0  0  0  0
 31 73  1  0  0  0  0
 31 74  1  0  0  0  0
 31 75  1  0  0  0  0
 32 76  1  0  0  0  0
 32 77  1  0  0  0  0
 32 78  1  0  0  0  0
 33 35  1  0  0  0  0
 33 37  1  0  0  0  0
 33 79  1  0  0  0  0
 34 41  1  0  0  0  0
 34 80  1  0  0  0  0
 34 81  1  0  0  0  0
 35 38  1  0  0  0  0
 35 82  1  0  0  0  0
 35 83  1  0  0  0  0
 36 85  1  0  0  0  0
 36 86  1  0  0  0  0
 36 87  1  0  0  0  0
 37 44  1  0  0  0  0
 38 43  1  0  0  0  0
 38 88  1  0  0  0  0
 38 89  1  0  0  0  0
 39 40  1  0  0  0  0
 40 42  1  0  0  0  0
 40 90  1  0  0  0  0
 41 91  1  0  0  0  0
 41 92  1  0  0  0  0
 41 93  1  0  0  0  0
 42 45  1  0  0  0  0
 42 94  1  0  0  0  0
 42 95  1  0  0  0  0
 43 96  1  0  0  0  0
 43 97  1  0  0  0  0
 43 98  1  0  0  0  0
 45 49  1  0  0  0  0
 45100  1  0  0  0  0
 45101  1  0  0  0  0
 46 47  1  0  0  0  0
 47 50  1  0  0  0  0
 47103  1  0  0  0  0
 48 51  1  0  0  0  0
 48104  1  0  0  0  0
 48105  1  0  0  0  0
 50 52  1  0  0  0  0
 50106  1  0  0  0  0
 50107  1  0  0  0  0
 51 54  2  0  0  0  0
 51 55  1  0  0  0  0
 53 56  1  0  0  0  0
 54 57  1  0  0  0  0
 54110  1  0  0  0  0
 55 58  2  0  0  0  0
 55111  1  0  0  0  0
 56112  1  0  0  0  0
 56113  1  0  0  0  0
 56114  1  0  0  0  0
 57 59  2  0  0  0  0
 57115  1  0  0  0  0
 58 59  1  0  0  0  0
 58116  1  0  0  0  0
 59118  1  0  0  0  0
M  END
> <PUBCHEM_COMPOUND_CID>
500586
> <PUBCHEM_COMPOUND_CANONICALIZED>
1
> <PUBCHEM_CACTVS_COMPLEXITY>
1530
> <PUBCHEM_CACTVS_HBOND_ACCEPTOR>
12
> <PUBCHEM_CACTVS_HBOND_DONOR>
8
> <PUBCHEM_CACTVS_ROTATABLE_BOND>
24
> <PUBCHEM_CACTVS_SUBSKEYS>
AAADcfB/vAAAAAAAAAAAAAAAAAAAAWAAAAAwAAAAAAAAAAABAAAAHgAQCAAADSzBmAQyCIPAAgCIAqHSGACCAAAgAAAIiIGIBIgIYDqA0TGUYAhmlgCIiAe/nwIOAAAAAAAAAAAAAAAAAAAAAAAAAAAAAA==
> <PUBCHEM_IUPAC_OPENEYE_NAME>
(4R)-4-[[(2S)-2-acetamido-3-carboxy-propanoyl]amino]-5-[[(1S,2S)-1-[[(1S)-1-[(2S)-2-[1-[2-(benzylamino)-2-oxo-acetyl]butylcarbamoyl]pyrrolidine-1-carbonyl]-2-methyl-propyl]carbamoyl]-2-methyl-butyl]amino]-5-oxo-pentanoic acid
> <PUBCHEM_IUPAC_CAS_NAME>
(4R)-4-[[(2S)-2-acetamido-3-carboxy-1-oxopropyl]amino]-5-[[(2S,3S)-1-[[(2S)-1-[(2S)-2-[[[1,2-dioxo-1-[(phenylmethyl)amino]hexan-3-yl]amino]-oxomethyl]-1-pyrrolidinyl]-3-methyl-1-oxobutan-2-yl]amino]-3-methyl-1-oxopentan-2-yl]amino]-5-oxopentanoic acid
> <PUBCHEM_IUPAC_NAME_MARKUP>
(4<I>R</I>)-4-[[(2<I>S</I>)-2-acetamido-3-carboxypropanoyl]amino]-5-[[(2<I>S</I>,3<I>S</I>)-1-[[(2<I>S</I>)-1-[(2<I>S</I>)-2-[[1-(benzylamino)-1,2-dioxohexan-3-yl]carbamoyl]pyrrolidin-1-yl]-3-methyl-1-oxobutan-2-yl]amino]-3-methyl-1-oxopentan-2-yl]amino]-5-oxopentanoic acid
> <PUBCHEM_IUPAC_NAME>
(4R)-4-[[(2S)-2-acetamido-3-carboxypropanoyl]amino]-5-[[(2S,3S)-1-[[(2S)-1-[(2S)-2-[[1-(benzylamino)-1,2-dioxohexan-3-yl]carbamoyl]pyrrolidin-1-yl]-3-methyl-1-oxobutan-2-yl]amino]-3-methyl-1-oxopentan-2-yl]amino]-5-oxopentanoic acid
> <PUBCHEM_IUPAC_SYSTEMATIC_NAME>
(4R)-4-[[(2S)-2-acetamido-4-oxidanyl-4-oxidanylidene-butanoyl]amino]-5-[[(2S,3S)-1-[[(2S)-1-[(2S)-2-[[1,2-bis(oxidanylidene)-1-[(phenylmethyl)amino]hexan-3-yl]carbamoyl]pyrrolidin-1-yl]-3-methyl-1-oxidanylidene-butan-2-yl]amino]-3-methyl-1-oxidanylidene-pentan-2-yl]amino]-5-oxidanylidene-pentanoic acid
> <PUBCHEM_IUPAC_TRADITIONAL_NAME>
(4R)-4-[[(2S)-2-acetamido-3-carboxy-propanoyl]amino]-5-[[(1S,2S)-1-[[(1S)-1-[(2S)-2-[1-[2-(benzylamino)-2-keto-acetyl]butylcarbamoyl]pyrrolidine-1-carbonyl]-2-methyl-propyl]carbamoyl]-2-methyl-butyl]amino]-5-keto-valeric acid
> <PUBCHEM_IUPAC_INCHI>
InChI=1S/C40H59N7O12/c1-7-13-26(34(53)39(58)41-21-25-14-10-9-11-15-25)43-37(56)29-16-12-19-47(29)40(59)32(22(3)4)45-38(57)33(23(5)8-2)46-35(54)27(17-18-30(49)50)44-36(55)28(20-31(51)52)42-24(6)48/h9-11,14-15,22-23,26-29,32-33H,7-8,12-13,16-21H2,1-6H3,(H,41,58)(H,42,48)(H,43,56)(H,44,55)(H,45,57)(H,46,54)(H,49,50)(H,51,52)/t23-,26?,27+,28-,29-,32-,33-/m0/s1
> <PUBCHEM_IUPAC_INCHIKEY>
RUUPPPDRBPSCHB-NXBKOGRWSA-N
> <PUBCHEM_XLOGP3_AA>
1.5
> <PUBCHEM_EXACT_MASS>
829.42217034
> <PUBCHEM_MOLECULAR_FORMULA>
C40H59N7O12
> <PUBCHEM_MOLECULAR_WEIGHT>
829.9
> <PUBCHEM_OPENEYE_CAN_SMILES>
CCCC(C(=O)C(=O)NCC1=CC=CC=C1)NC(=O)C2CCCN2C(=O)C(C(C)C)NC(=O)C(C(C)CC)NC(=O)C(CCC(=O)O)NC(=O)C(CC(=O)O)NC(=O)C
> <PUBCHEM_OPENEYE_ISO_SMILES>
CCCC(C(=O)C(=O)NCC1=CC=CC=C1)NC(=O)[C@@H]2CCCN2C(=O)[C@H](C(C)C)NC(=O)[C@H]([C@@H](C)CC)NC(=O)[C@@H](CCC(=O)O)NC(=O)[C@H](CC(=O)O)NC(=O)C
> <PUBCHEM_CACTVS_TPSA>
287
> <PUBCHEM_MONOISOTOPIC_WEIGHT>
829.42217034
> <PUBCHEM_TOTAL_CHARGE>
0
> <PUBCHEM_HEAVY_ATOM_COUNT>
59
> <PUBCHEM_ATOM_DEF_STEREO_COUNT>
6
> <PUBCHEM_ATOM_UDEF_STEREO_COUNT>
1
> <PUBCHEM_BOND_DEF_STEREO_COUNT>
0
> <PUBCHEM_BOND_UDEF_STEREO_COUNT>
0
> <PUBCHEM_ISOTOPIC_ATOM_COUNT>
0
> <PUBCHEM_COMPONENT_COUNT>
1
> <PUBCHEM_CACTVS_TAUTO_COUNT>
-1
> <PUBCHEM_COORDINATE_TYPE>
1
5
255
> <PUBCHEM_BONDANNOTATIONS>
24  14  5
28  16  6
40  17  6
47  19  6
20  27  5
29  36  5
33  35  3
51  54  8
51  55  8
54  57  8
55  58  8
57  59  8
58  59  8
$$$$
