500525
  -OEChem-10302200282D
125128  0     1  0  0  0  0  0999 V2000
   12.6167    5.4028    0.0000 O   0  0  0  0  0  0  0  0  0  0  0  0
   11.2824    6.3028    0.0000 O   0  0  0  0  0  0  0  0  0  0  0  0
    9.9456    2.8819    0.0000 O   0  0  0  0  0  0  0  0  0  0  0  0
    9.0700    1.8384    0.0000 O   0  0  0  0  0  0  0  0  0  0  0  0
    5.9508    0.0301    0.0000 O   0  0  0  0  0  0  0  0  0  0  0  0
    7.6378   -3.1564    0.0000 O   0  0  0  0  0  0  0  0  0  0  0  0
    4.5185   -4.9648    0.0000 O   0  0  0  0  0  0  0  0  0  0  0  0
    2.5960   -4.4135    0.0000 O   0  0  0  0  0  0  0  0  0  0  0  0
    3.0734   -2.7485    0.0000 O   0  0  0  0  0  0  0  0  0  0  0  0
    4.5249   -8.5703    0.0000 O   0  0  0  0  0  0  0  0  0  0  0  0
    6.2055   -8.1513    0.0000 O   0  0  0  0  0  0  0  0  0  0  0  0
   10.0664    4.6097    0.0000 N   0  0  0  0  0  0  0  0  0  0  0  0
    7.8669    3.0844    0.0000 N   0  0  0  0  0  0  0  0  0  0  0  0
    7.6314    0.4491    0.0000 N   0  0  0  0  0  0  0  0  0  0  0  0
    6.4346   -1.9105    0.0000 N   0  0  0  0  0  0  0  0  0  0  0  0
    6.1991   -4.5457    0.0000 N   0  0  0  0  0  0  0  0  0  0  0  0
    6.6830   -6.4863    0.0000 N   0  0  0  0  0  0  0  0  0  0  0  0
   14.1142    7.2233    0.0000 C   0  0  2  0  0  0  0  0  0  0  0  0
   15.5131    7.2322    0.0000 C   0  0  0  0  0  0  0  0  0  0  0  0
   14.3730    8.1893    0.0000 C   0  0  1  0  0  0  0  0  0  0  0  0
   12.8931    6.3577    0.0000 C   0  0  1  0  0  0  0  0  0  0  0  0
   13.6364    9.1719    0.0000 C   0  0  0  0  0  0  0  0  0  0  0  0
   12.3397    7.8781    0.0000 C   0  0  0  0  0  0  0  0  0  0  0  0
   12.0641    6.9169    0.0000 C   0  0  1  0  0  0  0  0  0  0  0  0
   16.3791    7.7322    0.0000 C   0  0  0  0  0  0  0  0  0  0  0  0
   16.0131    6.3661    0.0000 C   0  0  0  0  0  0  0  0  0  0  0  0
   13.7222    5.7985    0.0000 C   0  0  0  0  0  0  0  0  0  0  0  0
   11.0640    4.5400    0.0000 C   0  0  1  0  0  0  0  0  0  0  0  0
   11.5023    3.6412    0.0000 C   0  0  0  0  0  0  0  0  0  0  0  0
   10.9431    2.8121    0.0000 C   0  0  0  0  0  0  0  0  0  0  0  0
    9.5072    3.7807    0.0000 C   0  0  0  0  0  0  0  0  0  0  0  0
   11.3815    1.9133    0.0000 C   0  0  0  0  0  0  0  0  0  0  0  0
    8.5096    3.8504    0.0000 C   0  0  2  0  0  0  0  0  0  0  0  0
    7.9797    4.6985    0.0000 C   0  0  0  0  0  0  0  0  0  0  0  0
   10.8223    1.0843    0.0000 C   0  0  0  0  0  0  0  0  0  0  0  0
    7.0094    4.4566    0.0000 C   0  0  0  0  0  0  0  0  0  0  0  0
    6.9397    3.4590    0.0000 C   0  0  0  0  0  0  0  0  0  0  0  0
   11.2607    0.1855    0.0000 C   0  0  0  0  0  0  0  0  0  0  0  0
    8.1088    2.1141    0.0000 C   0  0  0  0  0  0  0  0  0  0  0  0
    7.3894    1.4194    0.0000 C   0  0  2  0  0  0  0  0  0  0  0  0
    6.4282    1.6951    0.0000 C   0  0  0  0  0  0  0  0  0  0  0  0
    5.7088    1.0004    0.0000 C   0  0  0  0  0  0  0  0  0  0  0  0
    6.1863    2.6654    0.0000 C   0  0  0  0  0  0  0  0  0  0  0  0
    6.9120   -0.2455    0.0000 C   0  0  0  0  0  0  0  0  0  0  0  0
    7.1539   -1.2158    0.0000 C   0  0  2  0  0  0  0  0  0  0  0  0
    8.1152   -1.4915    0.0000 C   0  0  0  0  0  0  0  0  0  0  0  0
    8.3571   -2.4618    0.0000 C   0  0  0  0  0  0  0  0  0  0  0  0
    8.8345   -0.7968    0.0000 C   0  0  0  0  0  0  0  0  0  0  0  0
    6.6765   -2.8808    0.0000 C   0  0  0  0  0  0  0  0  0  0  0  0
    5.9572   -3.5754    0.0000 C   0  0  2  0  0  0  0  0  0  0  0  0
    4.9959   -3.2998    0.0000 C   0  0  0  0  0  0  0  0  0  0  0  0
    4.2766   -3.9945    0.0000 C   0  0  0  0  0  0  0  0  0  0  0  0
    5.4798   -5.2404    0.0000 C   0  0  0  0  0  0  0  0  0  0  0  0
    5.7217   -6.2107    0.0000 C   0  0  2  0  0  0  0  0  0  0  0  0
    3.3153   -3.7188    0.0000 C   0  0  0  0  0  0  0  0  0  0  0  0
    5.0024   -6.9053    0.0000 C   0  0  0  0  0  0  0  0  0  0  0  0
    5.2443   -7.8756    0.0000 C   0  0  0  0  0  0  0  0  0  0  0  0
   11.6232    5.3690    0.0000 B   0  0  0  0  0  0  0  0  0  0  0  0
   13.8942    6.4023    0.0000 H   0  0  0  0  0  0  0  0  0  0  0  0
   14.5930    9.0103    0.0000 H   0  0  0  0  0  0  0  0  0  0  0  0
   13.9542    9.7042    0.0000 H   0  0  0  0  0  0  0  0  0  0  0  0
   13.0232    9.2638    0.0000 H   0  0  0  0  0  0  0  0  0  0  0  0
   12.3347    8.4981    0.0000 H   0  0  0  0  0  0  0  0  0  0  0  0
   11.7254    7.9619    0.0000 H   0  0  0  0  0  0  0  0  0  0  0  0
   11.3594    7.3922    0.0000 H   0  0  0  0  0  0  0  0  0  0  0  0
   16.6891    7.1952    0.0000 H   0  0  0  0  0  0  0  0  0  0  0  0
   16.9161    8.0422    0.0000 H   0  0  0  0  0  0  0  0  0  0  0  0
   16.0691    8.2691    0.0000 H   0  0  0  0  0  0  0  0  0  0  0  0
   15.4762    6.0561    0.0000 H   0  0  0  0  0  0  0  0  0  0  0  0
   16.3231    5.8292    0.0000 H   0  0  0  0  0  0  0  0  0  0  0  0
   16.5500    6.6761    0.0000 H   0  0  0  0  0  0  0  0  0  0  0  0
   13.3755    5.2845    0.0000 H   0  0  0  0  0  0  0  0  0  0  0  0
   14.2362    5.4518    0.0000 H   0  0  0  0  0  0  0  0  0  0  0  0
   14.0689    6.3125    0.0000 H   0  0  0  0  0  0  0  0  0  0  0  0
   10.7922    5.0972    0.0000 H   0  0  0  0  0  0  0  0  0  0  0  0
   11.9483    3.2105    0.0000 H   0  0  0  0  0  0  0  0  0  0  0  0
   12.0039    4.0056    0.0000 H   0  0  0  0  0  0  0  0  0  0  0  0
    9.7946    5.1670    0.0000 H   0  0  0  0  0  0  0  0  0  0  0  0
   10.4972    3.2428    0.0000 H   0  0  0  0  0  0  0  0  0  0  0  0
   10.4416    2.4477    0.0000 H   0  0  0  0  0  0  0  0  0  0  0  0
   11.8275    1.4826    0.0000 H   0  0  0  0  0  0  0  0  0  0  0  0
   11.8831    2.2778    0.0000 H   0  0  0  0  0  0  0  0  0  0  0  0
    8.7519    3.2797    0.0000 H   0  0  0  0  0  0  0  0  0  0  0  0
    8.5370    4.9703    0.0000 H   0  0  0  0  0  0  0  0  0  0  0  0
    7.7677    5.2811    0.0000 H   0  0  0  0  0  0  0  0  0  0  0  0
   10.3763    1.5150    0.0000 H   0  0  0  0  0  0  0  0  0  0  0  0
   10.3207    0.7199    0.0000 H   0  0  0  0  0  0  0  0  0  0  0  0
    6.9231    5.0705    0.0000 H   0  0  0  0  0  0  0  0  0  0  0  0
    6.3898    4.4349    0.0000 H   0  0  0  0  0  0  0  0  0  0  0  0
    6.3291    3.5666    0.0000 H   0  0  0  0  0  0  0  0  0  0  0  0
    6.7688    2.8630    0.0000 H   0  0  0  0  0  0  0  0  0  0  0  0
   10.7034   -0.0863    0.0000 H   0  0  0  0  0  0  0  0  0  0  0  0
   11.5325   -0.3718    0.0000 H   0  0  0  0  0  0  0  0  0  0  0  0
   11.8179    0.4573    0.0000 H   0  0  0  0  0  0  0  0  0  0  0  0
    6.9434    0.9887    0.0000 H   0  0  0  0  0  0  0  0  0  0  0  0
    6.8742    2.1258    0.0000 H   0  0  0  0  0  0  0  0  0  0  0  0
    8.2273    0.2782    0.0000 H   0  0  0  0  0  0  0  0  0  0  0  0
    5.2782    1.4464    0.0000 H   0  0  0  0  0  0  0  0  0  0  0  0
    5.2628    0.5697    0.0000 H   0  0  0  0  0  0  0  0  0  0  0  0
    6.1395    0.5544    0.0000 H   0  0  0  0  0  0  0  0  0  0  0  0
    6.7878    2.8154    0.0000 H   0  0  0  0  0  0  0  0  0  0  0  0
    6.0363    3.2669    0.0000 H   0  0  0  0  0  0  0  0  0  0  0  0
    5.5847    2.5154    0.0000 H   0  0  0  0  0  0  0  0  0  0  0  0
    7.3039   -1.8174    0.0000 H   0  0  0  0  0  0  0  0  0  0  0  0
    8.7112   -1.6624    0.0000 H   0  0  0  0  0  0  0  0  0  0  0  0
    5.8386   -1.7396    0.0000 H   0  0  0  0  0  0  0  0  0  0  0  0
    7.7555   -2.6117    0.0000 H   0  0  0  0  0  0  0  0  0  0  0  0
    8.5071   -3.0633    0.0000 H   0  0  0  0  0  0  0  0  0  0  0  0
    8.9587   -2.3118    0.0000 H   0  0  0  0  0  0  0  0  0  0  0  0
    9.2652   -1.2428    0.0000 H   0  0  0  0  0  0  0  0  0  0  0  0
    9.2805   -0.3661    0.0000 H   0  0  0  0  0  0  0  0  0  0  0  0
    8.4039   -0.3508    0.0000 H   0  0  0  0  0  0  0  0  0  0  0  0
    5.5112   -4.0061    0.0000 H   0  0  0  0  0  0  0  0  0  0  0  0
    5.2677   -2.7425    0.0000 H   0  0  0  0  0  0  0  0  0  0  0  0
    4.4943   -2.9354    0.0000 H   0  0  0  0  0  0  0  0  0  0  0  0
    6.7951   -4.7166    0.0000 H   0  0  0  0  0  0  0  0  0  0  0  0
    4.0048   -4.5517    0.0000 H   0  0  0  0  0  0  0  0  0  0  0  0
    4.7782   -4.3589    0.0000 H   0  0  0  0  0  0  0  0  0  0  0  0
    5.8717   -6.8123    0.0000 H   0  0  0  0  0  0  0  0  0  0  0  0
    4.6556   -6.3913    0.0000 H   0  0  0  0  0  0  0  0  0  0  0  0
    4.4360   -7.1575    0.0000 H   0  0  0  0  0  0  0  0  0  0  0  0
    6.8329   -7.0879    0.0000 H   0  0  0  0  0  0  0  0  0  0  0  0
    7.1289   -6.0556    0.0000 H   0  0  0  0  0  0  0  0  0  0  0  0
    2.0000   -4.2426    0.0000 H   0  0  0  0  0  0  0  0  0  0  0  0
    4.6749   -9.1719    0.0000 H   0  0  0  0  0  0  0  0  0  0  0  0
  1 21  1  0  0  0  0
  1 58  1  0  0  0  0
  2 24  1  0  0  0  0
  2 58  1  0  0  0  0
  3 31  2  0  0  0  0
  4 39  2  0  0  0  0
  5 44  2  0  0  0  0
  6 49  2  0  0  0  0
  7 53  2  0  0  0  0
  8 55  1  0  0  0  0
  8124  1  0  0  0  0
  9 55  2  0  0  0  0
 10 57  1  0  0  0  0
 10125  1  0  0  0  0
 11 57  2  0  0  0  0
 28 12  1  6  0  0  0
 12 31  1  0  0  0  0
 12 78  1  0  0  0  0
 13 33  1  0  0  0  0
 13 37  1  0  0  0  0
 13 39  1  0  0  0  0
 40 14  1  1  0  0  0
 14 44  1  0  0  0  0
 14 97  1  0  0  0  0
 45 15  1  6  0  0  0
 15 49  1  0  0  0  0
 15106  1  0  0  0  0
 50 16  1  1  0  0  0
 16 53  1  0  0  0  0
 16116  1  0  0  0  0
 54 17  1  1  0  0  0
 17122  1  0  0  0  0
 17123  1  0  0  0  0
 18 19  1  0  0  0  0
 18 21  1  0  0  0  0
 18 22  1  0  0  0  0
 18 59  1  1  0  0  0
 19 20  1  0  0  0  0
 19 25  1  0  0  0  0
 19 26  1  0  0  0  0
 20 22  1  0  0  0  0
 20 23  1  0  0  0  0
 20 60  1  1  0  0  0
 21 24  1  0  0  0  0
 21 27  1  1  0  0  0
 22 61  1  0  0  0  0
 22 62  1  0  0  0  0
 23 24  1  0  0  0  0
 23 63  1  0  0  0  0
 23 64  1  0  0  0  0
 24 65  1  1  0  0  0
 25 66  1  0  0  0  0
 25 67  1  0  0  0  0
 25 68  1  0  0  0  0
 26 69  1  0  0  0  0
 26 70  1  0  0  0  0
 26 71  1  0  0  0  0
 27 72  1  0  0  0  0
 27 73  1  0  0  0  0
 27 74  1  0  0  0  0
 28 29  1  0  0  0  0
 28 58  1  0  0  0  0
 28 75  1  0  0  0  0
 29 30  1  0  0  0  0
 29 76  1  0  0  0  0
 29 77  1  0  0  0  0
 30 32  1  0  0  0  0
 30 79  1  0  0  0  0
 30 80  1  0  0  0  0
 33 31  1  1  0  0  0
 32 35  1  0  0  0  0
 32 81  1  0  0  0  0
 32 82  1  0  0  0  0
 33 34  1  0  0  0  0
 33 83  1  0  0  0  0
 34 36  1  0  0  0  0
 34 84  1  0  0  0  0
 34 85  1  0  0  0  0
 35 38  1  0  0  0  0
 35 86  1  0  0  0  0
 35 87  1  0  0  0  0
 36 37  1  0  0  0  0
 36 88  1  0  0  0  0
 36 89  1  0  0  0  0
 37 90  1  0  0  0  0
 37 91  1  0  0  0  0
 38 92  1  0  0  0  0
 38 93  1  0  0  0  0
 38 94  1  0  0  0  0
 39 40  1  0  0  0  0
 40 41  1  0  0  0  0
 40 95  1  0  0  0  0
 41 42  1  0  0  0  0
 41 43  1  0  0  0  0
 41 96  1  0  0  0  0
 42 98  1  0  0  0  0
 42 99  1  0  0  0  0
 42100  1  0  0  0  0
 43101  1  0  0  0  0
 43102  1  0  0  0  0
 43103  1  0  0  0  0
 44 45  1  0  0  0  0
 45 46  1  0  0  0  0
 45104  1  0  0  0  0
 46 47  1  0  0  0  0
 46 48  1  0  0  0  0
 46105  1  0  0  0  0
 47107  1  0  0  0  0
 47108  1  0  0  0  0
 47109  1  0  0  0  0
 48110  1  0  0  0  0
 48111  1  0  0  0  0
 48112  1  0  0  0  0
 49 50  1  0  0  0  0
 50 51  1  0  0  0  0
 50113  1  0  0  0  0
 51 52  1  0  0  0  0
 51114  1  0  0  0  0
 51115  1  0  0  0  0
 52 55  1  0  0  0  0
 52117  1  0  0  0  0
 52118  1  0  0  0  0
 53 54  1  0  0  0  0
 54 56  1  0  0  0  0
 54119  1  0  0  0  0
 56 57  1  0  0  0  0
 56120  1  0  0  0  0
 56121  1  0  0  0  0
M  END
> <PUBCHEM_COMPOUND_CID>
500525
> <PUBCHEM_COMPOUND_CANONICALIZED>
1
> <PUBCHEM_CACTVS_COMPLEXITY>
1550
> <PUBCHEM_CACTVS_HBOND_ACCEPTOR>
12
> <PUBCHEM_CACTVS_HBOND_DONOR>
7
> <PUBCHEM_CACTVS_ROTATABLE_BOND>
21
> <PUBCHEM_CACTVS_SUBSKEYS>
AAADcfJ/vAAAAAAAAAAAAAAAAABgAWJAAAAwYAAAAAAAAEgAAAAoHgAQCAAAD3zhgAYCCAPAAgAIAAGQGAAAAAAAAAAAAIGIAAABQBoAgCAUQAAGFgCAAAG/1/IPgAAAAAAAAADAAAYAADCAAAAAAAAAAA==
> <PUBCHEM_IUPAC_OPENEYE_NAME>
(4S)-4-[[(2S)-2-amino-3-carboxy-propanoyl]amino]-5-[[(1S)-2-methyl-1-[[(1S)-2-methyl-1-[(2S)-2-[[(1R)-1-[(1R,2S,6R,8S)-2,9,9-trimethyl-3,5-dioxa-4-boratricyclo[6.1.1.02,6]decan-4-yl]hexyl]carbamoyl]pyrrolidine-1-carbonyl]propyl]carbamoyl]propyl]amino]-5-oxo-pentanoic acid
> <PUBCHEM_IUPAC_CAS_NAME>
(4S)-4-[[(2S)-2-amino-3-carboxy-1-oxopropyl]amino]-5-[[(2S)-3-methyl-1-[[(2S)-3-methyl-1-oxo-1-[(2S)-2-[oxo-[[(1R)-1-[(1R,2S,6R,8S)-2,9,9-trimethyl-3,5-dioxa-4-boratricyclo[6.1.1.02,6]decan-4-yl]hexyl]amino]methyl]-1-pyrrolidinyl]butan-2-yl]amino]-1-oxobutan-2-yl]amino]-5-oxopentanoic acid
> <PUBCHEM_IUPAC_NAME_MARKUP>
(4<I>S</I>)-4-[[(2<I>S</I>)-2-amino-3-carboxypropanoyl]amino]-5-[[(2<I>S</I>)-3-methyl-1-[[(2<I>S</I>)-3-methyl-1-oxo-1-[(2<I>S</I>)-2-[[(1<I>R</I>)-1-[(1<I>R</I>,2<I>S</I>,6<I>R</I>,8<I>S</I>)-2,9,9-trimethyl-3,5-dioxa-4-boratricyclo[6.1.1.0<SUP>2,6</SUP>]decan-4-yl]hexyl]carbamoyl]pyrrolidin-1-yl]butan-2-yl]amino]-1-oxobutan-2-yl]amino]-5-oxopentanoic acid
> <PUBCHEM_IUPAC_NAME>
(4S)-4-[[(2S)-2-amino-3-carboxypropanoyl]amino]-5-[[(2S)-3-methyl-1-[[(2S)-3-methyl-1-oxo-1-[(2S)-2-[[(1R)-1-[(1R,2S,6R,8S)-2,9,9-trimethyl-3,5-dioxa-4-boratricyclo[6.1.1.02,6]decan-4-yl]hexyl]carbamoyl]pyrrolidin-1-yl]butan-2-yl]amino]-1-oxobutan-2-yl]amino]-5-oxopentanoic acid
> <PUBCHEM_IUPAC_SYSTEMATIC_NAME>
(4S)-4-[[(2S)-2-azanyl-4-oxidanyl-4-oxidanylidene-butanoyl]amino]-5-[[(2S)-3-methyl-1-[[(2S)-3-methyl-1-oxidanylidene-1-[(2S)-2-[[(1R)-1-[(1R,2S,6R,8S)-2,9,9-trimethyl-3,5-dioxa-4-boratricyclo[6.1.1.02,6]decan-4-yl]hexyl]carbamoyl]pyrrolidin-1-yl]butan-2-yl]amino]-1-oxidanylidene-butan-2-yl]amino]-5-oxidanylidene-pentanoic acid
> <PUBCHEM_IUPAC_TRADITIONAL_NAME>
(4S)-4-[[(2S)-2-amino-3-carboxy-propanoyl]amino]-5-keto-5-[[(1S)-2-methyl-1-[[(1S)-2-methyl-1-[(2S)-2-[[(1R)-1-[(1R,2S,6R,8S)-2,9,9-trimethyl-3,5-dioxa-4-boratricyclo[6.1.1.02,6]decan-4-yl]hexyl]carbamoyl]pyrrolidine-1-carbonyl]propyl]carbamoyl]propyl]amino]valeric acid
> <PUBCHEM_IUPAC_INCHI>
InChI=1S/C40H67BN6O11/c1-9-10-11-14-29(41-57-28-19-23-18-27(39(23,6)7)40(28,8)58-41)44-36(54)26-13-12-17-47(26)38(56)33(22(4)5)46-37(55)32(21(2)3)45-35(53)25(15-16-30(48)49)43-34(52)24(42)20-31(50)51/h21-29,32-33H,9-20,42H2,1-8H3,(H,43,52)(H,44,54)(H,45,53)(H,46,55)(H,48,49)(H,50,51)/t23-,24-,25-,26-,27+,28+,29-,32-,33-,40-/m0/s1
> <PUBCHEM_IUPAC_INCHIKEY>
DXVPYCVUSYGMPF-PMKLTJRCSA-N
> <PUBCHEM_EXACT_MASS>
818.4960871
> <PUBCHEM_MOLECULAR_FORMULA>
C40H67BN6O11
> <PUBCHEM_MOLECULAR_WEIGHT>
818.8
> <PUBCHEM_OPENEYE_CAN_SMILES>
B1(OC2CC3CC(C3(C)C)C2(O1)C)C(CCCCC)NC(=O)C4CCCN4C(=O)C(C(C)C)NC(=O)C(C(C)C)NC(=O)C(CCC(=O)O)NC(=O)C(CC(=O)O)N
> <PUBCHEM_OPENEYE_ISO_SMILES>
B1(O[C@@H]2C[C@@H]3C[C@@H]([C@@]2(O1)C)C3(C)C)[C@H](CCCCC)NC(=O)[C@@H]4CCCN4C(=O)[C@H](C(C)C)NC(=O)[C@H](C(C)C)NC(=O)[C@H](CCC(=O)O)NC(=O)[C@H](CC(=O)O)N
> <PUBCHEM_CACTVS_TPSA>
256
> <PUBCHEM_MONOISOTOPIC_WEIGHT>
818.4960871
> <PUBCHEM_TOTAL_CHARGE>
0
> <PUBCHEM_HEAVY_ATOM_COUNT>
58
> <PUBCHEM_ATOM_DEF_STEREO_COUNT>
10
> <PUBCHEM_ATOM_UDEF_STEREO_COUNT>
0
> <PUBCHEM_BOND_DEF_STEREO_COUNT>
0
> <PUBCHEM_BOND_UDEF_STEREO_COUNT>
0
> <PUBCHEM_ISOTOPIC_ATOM_COUNT>
0
> <PUBCHEM_COMPONENT_COUNT>
1
> <PUBCHEM_CACTVS_TAUTO_COUNT>
-1
> <PUBCHEM_COORDINATE_TYPE>
1
5
255
> <PUBCHEM_BONDANNOTATIONS>
28  12  6
40  14  5
45  15  6
50  16  5
54  17  5
18  59  5
20  60  5
21  27  5
24  65  5
33  31  5
$$$$
