500595
  -OEChem-10302200282D
129131  0     1  0  0  0  0  0999 V2000
    9.4170   -3.2540    0.0000 O   0  0  0  0  0  0  0  0  0  0  0  0
   10.0981    1.0074    0.0000 O   0  0  0  0  0  0  0  0  0  0  0  0
    8.7360    1.0074    0.0000 O   0  0  0  0  0  0  0  0  0  0  0  0
   13.4884   -0.2197    0.0000 O   0  0  0  0  0  0  0  0  0  0  0  0
   15.0707    0.4848    0.0000 O   0  0  0  0  0  0  0  0  0  0  0  0
    5.1646    1.5028    0.0000 O   0  0  0  0  0  0  0  0  0  0  0  0
   14.8450    3.1209    0.0000 O   0  0  0  0  0  0  0  0  0  0  0  0
    5.3457   -0.2197    0.0000 O   0  0  0  0  0  0  0  0  0  0  0  0
   18.2353    1.8937    0.0000 O   0  0  0  0  0  0  0  0  0  0  0  0
   19.0488    0.0666    0.0000 O   0  0  0  0  0  0  0  0  0  0  0  0
   17.4665   -0.6378    0.0000 O   0  0  0  0  0  0  0  0  0  0  0  0
   18.1906    6.2524    0.0000 O   0  0  0  0  0  0  0  0  0  0  0  0
   19.5919    5.2343    0.0000 O   0  0  0  0  0  0  0  0  0  0  0  0
   19.2298    1.7892    0.0000 O   0  0  0  0  0  0  0  0  0  0  0  0
    9.9170   -0.7152    0.0000 N   0  0  0  0  0  0  0  0  0  0  0  0
   12.0871    0.7983    0.0000 N   0  0  0  0  0  0  0  0  0  0  0  0
    7.3347   -0.0107    0.0000 N   0  0  0  0  0  0  0  0  0  0  0  0
   14.6639    1.3983    0.0000 N   0  0  0  0  0  0  0  0  0  0  0  0
    6.7469    0.7983    0.0000 N   0  0  0  0  0  0  0  0  0  0  0  0
   16.8340    2.9118    0.0000 N   0  0  0  0  0  0  0  0  0  0  0  0
   19.4109    3.5118    0.0000 N   0  0  0  0  0  0  0  0  0  0  0  0
    8.9170   -0.7152    0.0000 C   0  0  1  0  0  0  0  0  0  0  0  0
    9.4170   -2.2540    0.0000 C   0  0  2  0  0  0  0  0  0  0  0  0
    8.6080   -1.6662    0.0000 C   0  0  0  0  0  0  0  0  0  0  0  0
   10.2260   -1.6662    0.0000 C   0  0  0  0  0  0  0  0  0  0  0  0
   10.5048    0.0939    0.0000 C   0  0  0  0  0  0  0  0  0  0  0  0
   11.4993   -0.0107    0.0000 C   0  0  2  0  0  0  0  0  0  0  0  0
    8.3292    0.0939    0.0000 C   0  0  0  0  0  0  0  0  0  0  0  0
   11.9061   -0.9242    0.0000 C   0  0  0  0  0  0  0  0  0  0  0  0
   13.6694    1.5028    0.0000 C   0  0  2  0  0  0  0  0  0  0  0  0
    8.5510   -3.7540    0.0000 C   0  0  0  0  0  0  0  0  0  0  0  0
   12.9006   -1.0287    0.0000 C   0  0  0  0  0  0  0  0  0  0  0  0
   11.3183   -1.7332    0.0000 C   0  0  0  0  0  0  0  0  0  0  0  0
   13.0816    0.6938    0.0000 C   0  0  0  0  0  0  0  0  0  0  0  0
   13.2627    2.4164    0.0000 C   0  0  2  0  0  0  0  0  0  0  0  0
   13.8505    3.2254    0.0000 C   0  0  0  0  0  0  0  0  0  0  0  0
    8.5510   -4.7540    0.0000 C   0  0  0  0  0  0  0  0  0  0  0  0
   12.2682    2.5209    0.0000 C   0  0  0  0  0  0  0  0  0  0  0  0
    7.1537    1.7119    0.0000 C   0  0  0  0  0  0  0  0  0  0  0  0
   15.2517    2.2073    0.0000 C   0  0  0  0  0  0  0  0  0  0  0  0
   13.4437    4.1389    0.0000 C   0  0  0  0  0  0  0  0  0  0  0  0
   16.2462    2.1028    0.0000 C   0  0  1  0  0  0  0  0  0  0  0  0
    9.4170   -5.2540    0.0000 C   0  0  0  0  0  0  0  0  0  0  0  0
    7.6850   -5.2540    0.0000 C   0  0  0  0  0  0  0  0  0  0  0  0
    5.7524    0.6938    0.0000 C   0  0  0  0  0  0  0  0  0  0  0  0
    6.5659    2.5209    0.0000 C   0  0  0  0  0  0  0  0  0  0  0  0
   16.6530    1.1892    0.0000 C   0  0  0  0  0  0  0  0  0  0  0  0
    9.4170   -6.2540    0.0000 C   0  0  0  0  0  0  0  0  0  0  0  0
    7.6850   -6.2540    0.0000 C   0  0  0  0  0  0  0  0  0  0  0  0
   17.6475    1.0847    0.0000 C   0  0  0  0  0  0  0  0  0  0  0  0
    6.9726    3.4345    0.0000 C   0  0  0  0  0  0  0  0  0  0  0  0
    8.5510   -6.7540    0.0000 C   0  0  0  0  0  0  0  0  0  0  0  0
   17.8286    2.8073    0.0000 C   0  0  0  0  0  0  0  0  0  0  0  0
   18.4163    3.6163    0.0000 C   0  0  2  0  0  0  0  0  0  0  0  0
    4.1701    1.3983    0.0000 C   0  0  0  0  0  0  0  0  0  0  0  0
   18.0542    0.1712    0.0000 C   0  0  0  0  0  0  0  0  0  0  0  0
   18.0096    4.5298    0.0000 C   0  0  0  0  0  0  0  0  0  0  0  0
    3.5823    2.2073    0.0000 C   0  0  0  0  0  0  0  0  0  0  0  0
   18.5974    5.3389    0.0000 C   0  0  0  0  0  0  0  0  0  0  0  0
   19.8176    2.5982    0.0000 C   0  0  0  0  0  0  0  0  0  0  0  0
    3.9890    3.1209    0.0000 C   0  0  0  0  0  0  0  0  0  0  0  0
    2.5878    2.1028    0.0000 C   0  0  0  0  0  0  0  0  0  0  0  0
   20.8121    2.4937    0.0000 C   0  0  0  0  0  0  0  0  0  0  0  0
    3.4013    3.9299    0.0000 C   0  0  0  0  0  0  0  0  0  0  0  0
    2.0000    2.9118    0.0000 C   0  0  0  0  0  0  0  0  0  0  0  0
    2.4067    3.8254    0.0000 C   0  0  0  0  0  0  0  0  0  0  0  0
    9.1985   -0.1627    0.0000 H   0  0  0  0  0  0  0  0  0  0  0  0
    9.9694   -2.5355    0.0000 H   0  0  0  0  0  0  0  0  0  0  0  0
    8.0416   -1.4140    0.0000 H   0  0  0  0  0  0  0  0  0  0  0  0
    8.2980   -2.2032    0.0000 H   0  0  0  0  0  0  0  0  0  0  0  0
   10.5360   -2.2032    0.0000 H   0  0  0  0  0  0  0  0  0  0  0  0
   10.7924   -1.4140    0.0000 H   0  0  0  0  0  0  0  0  0  0  0  0
   11.2471    0.5557    0.0000 H   0  0  0  0  0  0  0  0  0  0  0  0
   11.2895   -0.8594    0.0000 H   0  0  0  0  0  0  0  0  0  0  0  0
   11.8349    1.3647    0.0000 H   0  0  0  0  0  0  0  0  0  0  0  0
   13.9216    0.9364    0.0000 H   0  0  0  0  0  0  0  0  0  0  0  0
    8.3389   -3.1714    0.0000 H   0  0  0  0  0  0  0  0  0  0  0  0
    7.9404   -3.8617    0.0000 H   0  0  0  0  0  0  0  0  0  0  0  0
   12.8358   -1.6454    0.0000 H   0  0  0  0  0  0  0  0  0  0  0  0
   13.5172   -1.0936    0.0000 H   0  0  0  0  0  0  0  0  0  0  0  0
   12.9654   -0.4121    0.0000 H   0  0  0  0  0  0  0  0  0  0  0  0
   10.8167   -1.3688    0.0000 H   0  0  0  0  0  0  0  0  0  0  0  0
   10.9538   -2.2348    0.0000 H   0  0  0  0  0  0  0  0  0  0  0  0
   11.8199   -2.0977    0.0000 H   0  0  0  0  0  0  0  0  0  0  0  0
    7.0825   -0.5771    0.0000 H   0  0  0  0  0  0  0  0  0  0  0  0
   13.0105    2.9828    0.0000 H   0  0  0  0  0  0  0  0  0  0  0  0
   14.2811    2.7794    0.0000 H   0  0  0  0  0  0  0  0  0  0  0  0
   14.3645    3.5721    0.0000 H   0  0  0  0  0  0  0  0  0  0  0  0
   12.3330    3.1375    0.0000 H   0  0  0  0  0  0  0  0  0  0  0  0
   11.6516    2.5857    0.0000 H   0  0  0  0  0  0  0  0  0  0  0  0
   12.2033    1.9043    0.0000 H   0  0  0  0  0  0  0  0  0  0  0  0
    7.6677    1.3652    0.0000 H   0  0  0  0  0  0  0  0  0  0  0  0
    7.5844    2.1579    0.0000 H   0  0  0  0  0  0  0  0  0  0  0  0
   15.9941    2.6692    0.0000 H   0  0  0  0  0  0  0  0  0  0  0  0
   14.0101    4.3911    0.0000 H   0  0  0  0  0  0  0  0  0  0  0  0
   13.1915    4.7053    0.0000 H   0  0  0  0  0  0  0  0  0  0  0  0
   12.8773    3.8868    0.0000 H   0  0  0  0  0  0  0  0  0  0  0  0
    9.9540   -4.9440    0.0000 H   0  0  0  0  0  0  0  0  0  0  0  0
    7.1480   -4.9440    0.0000 H   0  0  0  0  0  0  0  0  0  0  0  0
    6.0519    2.8676    0.0000 H   0  0  0  0  0  0  0  0  0  0  0  0
    6.1352    2.0749    0.0000 H   0  0  0  0  0  0  0  0  0  0  0  0
   16.0514    1.0393    0.0000 H   0  0  0  0  0  0  0  0  0  0  0  0
   16.6962    0.5708    0.0000 H   0  0  0  0  0  0  0  0  0  0  0  0
   15.6873    0.4200    0.0000 H   0  0  0  0  0  0  0  0  0  0  0  0
   16.5819    3.4782    0.0000 H   0  0  0  0  0  0  0  0  0  0  0  0
    9.9540   -6.5640    0.0000 H   0  0  0  0  0  0  0  0  0  0  0  0
    7.1480   -6.5640    0.0000 H   0  0  0  0  0  0  0  0  0  0  0  0
   18.2491    1.2347    0.0000 H   0  0  0  0  0  0  0  0  0  0  0  0
   17.6043    1.7032    0.0000 H   0  0  0  0  0  0  0  0  0  0  0  0
    7.5390    3.1823    0.0000 H   0  0  0  0  0  0  0  0  0  0  0  0
    7.2248    4.0008    0.0000 H   0  0  0  0  0  0  0  0  0  0  0  0
    6.4062    3.6866    0.0000 H   0  0  0  0  0  0  0  0  0  0  0  0
    8.5510   -7.3740    0.0000 H   0  0  0  0  0  0  0  0  0  0  0  0
   18.7808    4.1179    0.0000 H   0  0  0  0  0  0  0  0  0  0  0  0
    3.6128    1.1265    0.0000 H   0  0  0  0  0  0  0  0  0  0  0  0
    4.3410    0.8023    0.0000 H   0  0  0  0  0  0  0  0  0  0  0  0
   17.5789    4.9758    0.0000 H   0  0  0  0  0  0  0  0  0  0  0  0
   17.4956    4.1832    0.0000 H   0  0  0  0  0  0  0  0  0  0  0  0
   19.7753    4.0134    0.0000 H   0  0  0  0  0  0  0  0  0  0  0  0
   19.3009   -0.4998    0.0000 H   0  0  0  0  0  0  0  0  0  0  0  0
    4.6056    3.1857    0.0000 H   0  0  0  0  0  0  0  0  0  0  0  0
    2.3356    1.5364    0.0000 H   0  0  0  0  0  0  0  0  0  0  0  0
   20.7473    1.8771    0.0000 H   0  0  0  0  0  0  0  0  0  0  0  0
   21.4287    2.4289    0.0000 H   0  0  0  0  0  0  0  0  0  0  0  0
   20.8769    3.1103    0.0000 H   0  0  0  0  0  0  0  0  0  0  0  0
    3.6534    4.4963    0.0000 H   0  0  0  0  0  0  0  0  0  0  0  0
    1.3834    2.8470    0.0000 H   0  0  0  0  0  0  0  0  0  0  0  0
    2.0423    4.3270    0.0000 H   0  0  0  0  0  0  0  0  0  0  0  0
   18.5551    6.7540    0.0000 H   0  0  0  0  0  0  0  0  0  0  0  0
 23  1  1  6  0  0  0
  1 31  1  0  0  0  0
  2 26  2  0  0  0  0
  3 28  2  0  0  0  0
  4 34  2  0  0  0  0
  5 18  1  0  0  0  0
  5104  1  0  0  0  0
  6 45  1  0  0  0  0
  6 55  1  0  0  0  0
  7 40  2  0  0  0  0
  8 45  2  0  0  0  0
  9 53  2  0  0  0  0
 10 56  1  0  0  0  0
 10120  1  0  0  0  0
 11 56  2  0  0  0  0
 12 59  1  0  0  0  0
 12129  1  0  0  0  0
 13 59  2  0  0  0  0
 14 60  2  0  0  0  0
 15 22  1  0  0  0  0
 15 25  1  0  0  0  0
 15 26  1  0  0  0  0
 27 16  1  1  0  0  0
 16 34  1  0  0  0  0
 16 75  1  0  0  0  0
 17 19  1  0  0  0  0
 17 28  1  0  0  0  0
 17 85  1  0  0  0  0
 30 18  1  6  0  0  0
 18 40  1  0  0  0  0
 19 39  1  0  0  0  0
 19 45  1  0  0  0  0
 42 20  1  6  0  0  0
 20 53  1  0  0  0  0
 20105  1  0  0  0  0
 54 21  1  6  0  0  0
 21 60  1  0  0  0  0
 21119  1  0  0  0  0
 22 24  1  0  0  0  0
 22 28  1  1  0  0  0
 22 67  1  0  0  0  0
 23 24  1  0  0  0  0
 23 25  1  0  0  0  0
 23 68  1  0  0  0  0
 24 69  1  0  0  0  0
 24 70  1  0  0  0  0
 25 71  1  0  0  0  0
 25 72  1  0  0  0  0
 26 27  1  0  0  0  0
 27 29  1  0  0  0  0
 27 73  1  0  0  0  0
 29 32  1  0  0  0  0
 29 33  1  0  0  0  0
 29 74  1  0  0  0  0
 30 34  1  0  0  0  0
 30 35  1  0  0  0  0
 30 76  1  0  0  0  0
 31 37  1  0  0  0  0
 31 77  1  0  0  0  0
 31 78  1  0  0  0  0
 32 79  1  0  0  0  0
 32 80  1  0  0  0  0
 32 81  1  0  0  0  0
 33 82  1  0  0  0  0
 33 83  1  0  0  0  0
 33 84  1  0  0  0  0
 35 36  1  0  0  0  0
 35 38  1  1  0  0  0
 35 86  1  0  0  0  0
 36 41  1  0  0  0  0
 36 87  1  0  0  0  0
 36 88  1  0  0  0  0
 37 43  2  0  0  0  0
 37 44  1  0  0  0  0
 38 89  1  0  0  0  0
 38 90  1  0  0  0  0
 38 91  1  0  0  0  0
 39 46  1  0  0  0  0
 39 92  1  0  0  0  0
 39 93  1  0  0  0  0
 40 42  1  0  0  0  0
 41 95  1  0  0  0  0
 41 96  1  0  0  0  0
 41 97  1  0  0  0  0
 42 47  1  0  0  0  0
 42 94  1  0  0  0  0
 43 48  1  0  0  0  0
 43 98  1  0  0  0  0
 44 49  2  0  0  0  0
 44 99  1  0  0  0  0
 46 51  1  0  0  0  0
 46100  1  0  0  0  0
 46101  1  0  0  0  0
 47 50  1  0  0  0  0
 47102  1  0  0  0  0
 47103  1  0  0  0  0
 48 52  2  0  0  0  0
 48106  1  0  0  0  0
 49 52  1  0  0  0  0
 49107  1  0  0  0  0
 50 56  1  0  0  0  0
 50108  1  0  0  0  0
 50109  1  0  0  0  0
 51110  1  0  0  0  0
 51111  1  0  0  0  0
 51112  1  0  0  0  0
 52113  1  0  0  0  0
 53 54  1  0  0  0  0
 54 57  1  0  0  0  0
 54114  1  0  0  0  0
 55 58  1  0  0  0  0
 55115  1  0  0  0  0
 55116  1  0  0  0  0
 57 59  1  0  0  0  0
 57117  1  0  0  0  0
 57118  1  0  0  0  0
 58 61  2  0  0  0  0
 58 62  1  0  0  0  0
 60 63  1  0  0  0  0
 61 64  1  0  0  0  0
 61121  1  0  0  0  0
 62 65  2  0  0  0  0
 62122  1  0  0  0  0
 63123  1  0  0  0  0
 63124  1  0  0  0  0
 63125  1  0  0  0  0
 64 66  2  0  0  0  0
 64126  1  0  0  0  0
 65 66  1  0  0  0  0
 65127  1  0  0  0  0
 66128  1  0  0  0  0
M  END
> <PUBCHEM_COMPOUND_CID>
500595
> <PUBCHEM_COMPOUND_CANONICALIZED>
1
> <PUBCHEM_CACTVS_COMPLEXITY>
1670
> <PUBCHEM_CACTVS_HBOND_ACCEPTOR>
14
> <PUBCHEM_CACTVS_HBOND_DONOR>
7
> <PUBCHEM_CACTVS_ROTATABLE_BOND>
25
> <PUBCHEM_CACTVS_SUBSKEYS>
AAADcfB/vAAAAAAAAAAAAAAAAAAAAWAAAAAwYAAAAAAAAAABQAAAHgAcCAAADTzhmAYyCIPyBgCIAiHSGAACAAAgAAA6qIGICIgKZjqAsTifcAAm1gGYqAe/1yIOAAAAAAAAAAAAAAAAAAAAAAAAAAAAAA==
> <PUBCHEM_IUPAC_OPENEYE_NAME>
(4R)-4-[[(2S)-2-acetamido-3-carboxy-propanoyl]amino]-5-[[(1S,2S)-1-[[(1S)-1-[(2S,4R)-4-benzyloxy-2-[[benzyloxycarbonyl(propyl)amino]carbamoyl]pyrrolidine-1-carbonyl]-2-methyl-propyl]carbamoyl]-2-methyl-butyl]-hydroxy-amino]-5-oxo-pentanoic acid
> <PUBCHEM_IUPAC_CAS_NAME>
(4R)-4-[[(2S)-2-acetamido-3-carboxy-1-oxopropyl]amino]-5-[hydroxy-[(2S,3S)-3-methyl-1-[[(2S)-3-methyl-1-oxo-1-[(2S,4R)-2-[oxo-(2-phenylmethoxycarbonyl-2-propylhydrazinyl)methyl]-4-phenylmethoxy-1-pyrrolidinyl]butan-2-yl]amino]-1-oxopentan-2-yl]amino]-5-oxopentanoic acid
> <PUBCHEM_IUPAC_NAME_MARKUP>
(4<I>R</I>)-4-[[(2<I>S</I>)-2-acetamido-3-carboxypropanoyl]amino]-5-[hydroxy-[(2<I>S</I>,3<I>S</I>)-3-methyl-1-[[(2<I>S</I>)-3-methyl-1-oxo-1-[(2<I>S</I>,4<I>R</I>)-4-phenylmethoxy-2-[[phenylmethoxycarbonyl(propyl)amino]carbamoyl]pyrrolidin-1-yl]butan-2-yl]amino]-1-oxopentan-2-yl]amino]-5-oxopentanoic acid
> <PUBCHEM_IUPAC_NAME>
(4R)-4-[[(2S)-2-acetamido-3-carboxypropanoyl]amino]-5-[hydroxy-[(2S,3S)-3-methyl-1-[[(2S)-3-methyl-1-oxo-1-[(2S,4R)-4-phenylmethoxy-2-[[phenylmethoxycarbonyl(propyl)amino]carbamoyl]pyrrolidin-1-yl]butan-2-yl]amino]-1-oxopentan-2-yl]amino]-5-oxopentanoic acid
> <PUBCHEM_IUPAC_SYSTEMATIC_NAME>
(4R)-4-[[(2S)-2-acetamido-4-oxidanyl-4-oxidanylidene-butanoyl]amino]-5-[[(2S,3S)-3-methyl-1-[[(2S)-3-methyl-1-oxidanylidene-1-[(2S,4R)-4-phenylmethoxy-2-[[phenylmethoxycarbonyl(propyl)amino]carbamoyl]pyrrolidin-1-yl]butan-2-yl]amino]-1-oxidanylidene-pentan-2-yl]-oxidanyl-amino]-5-oxidanylidene-pentanoic acid
> <PUBCHEM_IUPAC_TRADITIONAL_NAME>
(4R)-4-[[(2S)-2-acetamido-3-carboxy-propanoyl]amino]-5-[[(1S,2S)-1-[[(1S)-1-[(2S,4R)-4-benzoxy-2-[[carbobenzoxy(propyl)amino]carbamoyl]pyrrolidine-1-carbonyl]-2-methyl-propyl]carbamoyl]-2-methyl-butyl]-hydroxy-amino]-5-keto-valeric acid
> <PUBCHEM_IUPAC_INCHI>
InChI=1S/C45H63N7O14/c1-7-21-51(45(63)66-26-31-17-13-10-14-18-31)49-41(59)35-22-32(65-25-30-15-11-9-12-16-30)24-50(35)44(62)38(27(3)4)48-42(60)39(28(5)8-2)52(64)43(61)33(19-20-36(54)55)47-40(58)34(23-37(56)57)46-29(6)53/h9-18,27-28,32-35,38-39,64H,7-8,19-26H2,1-6H3,(H,46,53)(H,47,58)(H,48,60)(H,49,59)(H,54,55)(H,56,57)/t28-,32+,33+,34-,35-,38-,39-/m0/s1
> <PUBCHEM_IUPAC_INCHIKEY>
OKMVNOTXVATHKP-YEFARLPMSA-N
> <PUBCHEM_XLOGP3_AA>
2.7
> <PUBCHEM_EXACT_MASS>
925.44329971
> <PUBCHEM_MOLECULAR_FORMULA>
C45H63N7O14
> <PUBCHEM_MOLECULAR_WEIGHT>
926.0
> <PUBCHEM_OPENEYE_CAN_SMILES>
CCCN(C(=O)OCC1=CC=CC=C1)NC(=O)C2CC(CN2C(=O)C(C(C)C)NC(=O)C(C(C)CC)N(C(=O)C(CCC(=O)O)NC(=O)C(CC(=O)O)NC(=O)C)O)OCC3=CC=CC=C3
> <PUBCHEM_OPENEYE_ISO_SMILES>
CCCN(C(=O)OCC1=CC=CC=C1)NC(=O)[C@@H]2C[C@H](CN2C(=O)[C@H](C(C)C)NC(=O)[C@H]([C@@H](C)CC)N(C(=O)[C@@H](CCC(=O)O)NC(=O)[C@H](CC(=O)O)NC(=O)C)O)OCC3=CC=CC=C3
> <PUBCHEM_CACTVS_TPSA>
291
> <PUBCHEM_MONOISOTOPIC_WEIGHT>
925.44329971
> <PUBCHEM_TOTAL_CHARGE>
0
> <PUBCHEM_HEAVY_ATOM_COUNT>
66
> <PUBCHEM_ATOM_DEF_STEREO_COUNT>
7
> <PUBCHEM_ATOM_UDEF_STEREO_COUNT>
0
> <PUBCHEM_BOND_DEF_STEREO_COUNT>
0
> <PUBCHEM_BOND_UDEF_STEREO_COUNT>
0
> <PUBCHEM_ISOTOPIC_ATOM_COUNT>
0
> <PUBCHEM_COMPONENT_COUNT>
1
> <PUBCHEM_CACTVS_TAUTO_COUNT>
-1
> <PUBCHEM_COORDINATE_TYPE>
1
5
255
> <PUBCHEM_BONDANNOTATIONS>
23  1  6
27  16  5
30  18  6
42  20  6
54  21  6
22  28  5
35  38  5
37  43  8
37  44  8
43  48  8
44  49  8
48  52  8
49  52  8
58  61  8
58  62  8
61  64  8
62  65  8
64  66  8
65  66  8
$$$$
