500553
  -OEChem-10302200282D
130134  0     1  0  0  0  0  0999 V2000
   17.1275    0.0262    0.0000 O   0  0  0  0  0  0  0  0  0  0  0  0
   15.7932    0.9262    0.0000 O   0  0  0  0  0  0  0  0  0  0  0  0
   14.4565   -2.4948    0.0000 O   0  0  0  0  0  0  0  0  0  0  0  0
   13.8555    0.3882    0.0000 O   0  0  0  0  0  0  0  0  0  0  0  0
   17.2075   -6.1597    0.0000 O   0  0  0  0  0  0  0  0  0  0  0  0
   11.0182    2.6130    0.0000 O   0  0  0  0  0  0  0  0  0  0  0  0
    7.6728    1.2683    0.0000 O   0  0  0  0  0  0  0  0  0  0  0  0
    6.2004    4.5595    0.0000 O   0  0  0  0  0  0  0  0  0  0  0  0
    6.9496    6.4139    0.0000 O   0  0  0  0  0  0  0  0  0  0  0  0
    8.5556    5.7651    0.0000 O   0  0  0  0  0  0  0  0  0  0  0  0
    2.6140    4.9300    0.0000 O   0  0  0  0  0  0  0  0  0  0  0  0
    2.8550    3.2148    0.0000 O   0  0  0  0  0  0  0  0  0  0  0  0
   14.5773   -0.7670    0.0000 N   0  0  0  0  0  0  0  0  0  0  0  0
   12.4906   -0.6782    0.0000 N   0  0  0  0  0  0  0  0  0  0  0  0
   11.2593    0.8978    0.0000 N   0  0  0  0  0  0  0  0  0  0  0  0
    9.0377    2.3347    0.0000 N   0  0  0  0  0  0  0  0  0  0  0  0
    6.4415    2.8443    0.0000 N   0  0  0  0  0  0  0  0  0  0  0  0
    4.4610    2.5660    0.0000 N   0  0  0  0  0  0  0  0  0  0  0  0
   18.6250    1.8467    0.0000 C   0  0  2  0  0  0  0  0  0  0  0  0
   20.0240    1.8555    0.0000 C   0  0  0  0  0  0  0  0  0  0  0  0
   18.8839    2.8126    0.0000 C   0  0  1  0  0  0  0  0  0  0  0  0
   17.4040    0.9810    0.0000 C   0  0  1  0  0  0  0  0  0  0  0  0
   18.1472    3.7952    0.0000 C   0  0  0  0  0  0  0  0  0  0  0  0
   16.8506    2.5015    0.0000 C   0  0  0  0  0  0  0  0  0  0  0  0
   16.5750    1.5402    0.0000 C   0  0  1  0  0  0  0  0  0  0  0  0
   20.8900    2.3555    0.0000 C   0  0  0  0  0  0  0  0  0  0  0  0
   20.5240    0.9895    0.0000 C   0  0  0  0  0  0  0  0  0  0  0  0
   18.2331    0.4218    0.0000 C   0  0  0  0  0  0  0  0  0  0  0  0
   15.5748   -0.8367    0.0000 C   0  0  1  0  0  0  0  0  0  0  0  0
   16.0132   -1.7355    0.0000 C   0  0  0  0  0  0  0  0  0  0  0  0
   15.4540   -2.5646    0.0000 C   0  0  0  0  0  0  0  0  0  0  0  0
   14.0181   -1.5960    0.0000 C   0  0  0  0  0  0  0  0  0  0  0  0
   13.0205   -1.5262    0.0000 C   0  0  2  0  0  0  0  0  0  0  0  0
   15.8924   -3.4633    0.0000 C   0  0  0  0  0  0  0  0  0  0  0  0
   12.3777   -2.2923    0.0000 C   0  0  0  0  0  0  0  0  0  0  0  0
   11.4505   -1.9177    0.0000 C   0  0  0  0  0  0  0  0  0  0  0  0
   11.5203   -0.9201    0.0000 C   0  0  0  0  0  0  0  0  0  0  0  0
   15.3332   -4.2924    0.0000 C   0  0  0  0  0  0  0  0  0  0  0  0
   16.8900   -3.5331    0.0000 C   0  0  0  0  0  0  0  0  0  0  0  0
   12.8652    0.2490    0.0000 C   0  0  0  0  0  0  0  0  0  0  0  0
   15.7716   -5.1912    0.0000 C   0  0  0  0  0  0  0  0  0  0  0  0
   17.3283   -4.4319    0.0000 C   0  0  0  0  0  0  0  0  0  0  0  0
   12.2495    1.0370    0.0000 C   0  0  2  0  0  0  0  0  0  0  0  0
   16.7691   -5.2609    0.0000 C   0  0  0  0  0  0  0  0  0  0  0  0
   12.6242    1.9642    0.0000 C   0  0  0  0  0  0  0  0  0  0  0  0
   12.0085    2.7522    0.0000 C   0  0  0  0  0  0  0  0  0  0  0  0
   13.6144    2.1034    0.0000 C   0  0  0  0  0  0  0  0  0  0  0  0
   10.6436    1.6858    0.0000 C   0  0  0  0  0  0  0  0  0  0  0  0
   16.6483   -6.9888    0.0000 C   0  0  0  0  0  0  0  0  0  0  0  0
    9.6534    1.5467    0.0000 C   0  0  2  0  0  0  0  0  0  0  0  0
    9.2787    0.6195    0.0000 C   0  0  0  0  0  0  0  0  0  0  0  0
    8.2885    0.4803    0.0000 C   0  0  0  0  0  0  0  0  0  0  0  0
    9.8944   -0.1685    0.0000 C   0  0  0  0  0  0  0  0  0  0  0  0
    8.0474    2.1955    0.0000 C   0  0  0  0  0  0  0  0  0  0  0  0
    7.4318    2.9835    0.0000 C   0  0  2  0  0  0  0  0  0  0  0  0
    7.8064    3.9107    0.0000 C   0  0  0  0  0  0  0  0  0  0  0  0
    7.1907    4.6987    0.0000 C   0  0  0  0  0  0  0  0  0  0  0  0
    5.8258    3.6324    0.0000 C   0  0  0  0  0  0  0  0  0  0  0  0
    4.8356    3.4932    0.0000 C   0  0  2  0  0  0  0  0  0  0  0  0
    7.5653    5.6259    0.0000 C   0  0  0  0  0  0  0  0  0  0  0  0
    4.2199    4.2812    0.0000 C   0  0  0  0  0  0  0  0  0  0  0  0
    3.2296    4.1420    0.0000 C   0  0  0  0  0  0  0  0  0  0  0  0
   16.1340   -0.0077    0.0000 B   0  0  0  0  0  0  0  0  0  0  0  0
   18.4050    1.0256    0.0000 H   0  0  0  0  0  0  0  0  0  0  0  0
   19.1039    3.6336    0.0000 H   0  0  0  0  0  0  0  0  0  0  0  0
   18.4650    4.3276    0.0000 H   0  0  0  0  0  0  0  0  0  0  0  0
   17.5341    3.8872    0.0000 H   0  0  0  0  0  0  0  0  0  0  0  0
   16.8456    3.1214    0.0000 H   0  0  0  0  0  0  0  0  0  0  0  0
   16.2363    2.5852    0.0000 H   0  0  0  0  0  0  0  0  0  0  0  0
   15.8703    2.0155    0.0000 H   0  0  0  0  0  0  0  0  0  0  0  0
   21.2000    1.8186    0.0000 H   0  0  0  0  0  0  0  0  0  0  0  0
   21.4269    2.6655    0.0000 H   0  0  0  0  0  0  0  0  0  0  0  0
   20.5800    2.8924    0.0000 H   0  0  0  0  0  0  0  0  0  0  0  0
   19.9870    0.6795    0.0000 H   0  0  0  0  0  0  0  0  0  0  0  0
   20.8340    0.4525    0.0000 H   0  0  0  0  0  0  0  0  0  0  0  0
   21.0609    1.2995    0.0000 H   0  0  0  0  0  0  0  0  0  0  0  0
   17.8864   -0.0922    0.0000 H   0  0  0  0  0  0  0  0  0  0  0  0
   18.7471    0.0751    0.0000 H   0  0  0  0  0  0  0  0  0  0  0  0
   18.5798    0.9358    0.0000 H   0  0  0  0  0  0  0  0  0  0  0  0
   15.2281   -1.3507    0.0000 H   0  0  0  0  0  0  0  0  0  0  0  0
   16.4592   -2.1662    0.0000 H   0  0  0  0  0  0  0  0  0  0  0  0
   16.5148   -1.3711    0.0000 H   0  0  0  0  0  0  0  0  0  0  0  0
   14.3055   -0.2097    0.0000 H   0  0  0  0  0  0  0  0  0  0  0  0
   15.0080   -2.1339    0.0000 H   0  0  0  0  0  0  0  0  0  0  0  0
   14.9524   -2.9290    0.0000 H   0  0  0  0  0  0  0  0  0  0  0  0
   13.3398   -0.9948    0.0000 H   0  0  0  0  0  0  0  0  0  0  0  0
   12.0867   -2.8397    0.0000 H   0  0  0  0  0  0  0  0  0  0  0  0
   12.8917   -2.6390    0.0000 H   0  0  0  0  0  0  0  0  0  0  0  0
   10.8400   -1.8100    0.0000 H   0  0  0  0  0  0  0  0  0  0  0  0
   11.2797   -2.5137    0.0000 H   0  0  0  0  0  0  0  0  0  0  0  0
   11.4340   -0.3061    0.0000 H   0  0  0  0  0  0  0  0  0  0  0  0
   10.9007   -0.9418    0.0000 H   0  0  0  0  0  0  0  0  0  0  0  0
   14.7147   -4.2491    0.0000 H   0  0  0  0  0  0  0  0  0  0  0  0
   17.2367   -3.0191    0.0000 H   0  0  0  0  0  0  0  0  0  0  0  0
   15.4249   -5.7052    0.0000 H   0  0  0  0  0  0  0  0  0  0  0  0
   17.9468   -4.4751    0.0000 H   0  0  0  0  0  0  0  0  0  0  0  0
   11.8678    1.5256    0.0000 H   0  0  0  0  0  0  0  0  0  0  0  0
   13.0059    1.4756    0.0000 H   0  0  0  0  0  0  0  0  0  0  0  0
   11.0270    0.3230    0.0000 H   0  0  0  0  0  0  0  0  0  0  0  0
   12.4971    3.1339    0.0000 H   0  0  0  0  0  0  0  0  0  0  0  0
   11.6268    3.2408    0.0000 H   0  0  0  0  0  0  0  0  0  0  0  0
   11.5199    2.3705    0.0000 H   0  0  0  0  0  0  0  0  0  0  0  0
   13.7007    1.4894    0.0000 H   0  0  0  0  0  0  0  0  0  0  0  0
   14.2284    2.1896    0.0000 H   0  0  0  0  0  0  0  0  0  0  0  0
   13.5281    2.7173    0.0000 H   0  0  0  0  0  0  0  0  0  0  0  0
   16.1343   -6.6421    0.0000 H   0  0  0  0  0  0  0  0  0  0  0  0
   16.3016   -7.5028    0.0000 H   0  0  0  0  0  0  0  0  0  0  0  0
   17.1623   -7.3355    0.0000 H   0  0  0  0  0  0  0  0  0  0  0  0
    9.8856    2.1215    0.0000 H   0  0  0  0  0  0  0  0  0  0  0  0
    8.8970    1.1080    0.0000 H   0  0  0  0  0  0  0  0  0  0  0  0
    9.2699    2.9095    0.0000 H   0  0  0  0  0  0  0  0  0  0  0  0
    8.2022    1.0943    0.0000 H   0  0  0  0  0  0  0  0  0  0  0  0
    7.6745    0.3940    0.0000 H   0  0  0  0  0  0  0  0  0  0  0  0
    8.3748   -0.1337    0.0000 H   0  0  0  0  0  0  0  0  0  0  0  0
    9.4058   -0.5502    0.0000 H   0  0  0  0  0  0  0  0  0  0  0  0
   10.2761   -0.6571    0.0000 H   0  0  0  0  0  0  0  0  0  0  0  0
   10.3830    0.2132    0.0000 H   0  0  0  0  0  0  0  0  0  0  0  0
    7.1995    2.4087    0.0000 H   0  0  0  0  0  0  0  0  0  0  0  0
    8.3322    3.5822    0.0000 H   0  0  0  0  0  0  0  0  0  0  0  0
    8.2212    4.3714    0.0000 H   0  0  0  0  0  0  0  0  0  0  0  0
    6.2092    2.2695    0.0000 H   0  0  0  0  0  0  0  0  0  0  0  0
    6.6649    5.0273    0.0000 H   0  0  0  0  0  0  0  0  0  0  0  0
    6.7758    4.2380    0.0000 H   0  0  0  0  0  0  0  0  0  0  0  0
    4.2216    3.4069    0.0000 H   0  0  0  0  0  0  0  0  0  0  0  0
    4.7673    4.5723    0.0000 H   0  0  0  0  0  0  0  0  0  0  0  0
    4.0283    4.8708    0.0000 H   0  0  0  0  0  0  0  0  0  0  0  0
    3.8470    2.4797    0.0000 H   0  0  0  0  0  0  0  0  0  0  0  0
    4.8427    2.0774    0.0000 H   0  0  0  0  0  0  0  0  0  0  0  0
    7.1819    6.9888    0.0000 H   0  0  0  0  0  0  0  0  0  0  0  0
    2.0000    4.8437    0.0000 H   0  0  0  0  0  0  0  0  0  0  0  0
  1 22  1  0  0  0  0
  1 63  1  0  0  0  0
  2 25  1  0  0  0  0
  2 63  1  0  0  0  0
  3 32  2  0  0  0  0
  4 40  2  0  0  0  0
  5 44  1  0  0  0  0
  5 49  1  0  0  0  0
  6 48  2  0  0  0  0
  7 54  2  0  0  0  0
  8 58  2  0  0  0  0
  9 60  1  0  0  0  0
  9129  1  0  0  0  0
 10 60  2  0  0  0  0
 11 62  1  0  0  0  0
 11130  1  0  0  0  0
 12 62  2  0  0  0  0
 29 13  1  6  0  0  0
 13 32  1  0  0  0  0
 13 83  1  0  0  0  0
 14 33  1  0  0  0  0
 14 37  1  0  0  0  0
 14 40  1  0  0  0  0
 43 15  1  1  0  0  0
 15 48  1  0  0  0  0
 15 99  1  0  0  0  0
 50 16  1  6  0  0  0
 16 54  1  0  0  0  0
 16111  1  0  0  0  0
 55 17  1  1  0  0  0
 17 58  1  0  0  0  0
 17121  1  0  0  0  0
 59 18  1  1  0  0  0
 18127  1  0  0  0  0
 18128  1  0  0  0  0
 19 20  1  0  0  0  0
 19 22  1  0  0  0  0
 19 23  1  0  0  0  0
 19 64  1  1  0  0  0
 20 21  1  0  0  0  0
 20 26  1  0  0  0  0
 20 27  1  0  0  0  0
 21 23  1  0  0  0  0
 21 24  1  0  0  0  0
 21 65  1  1  0  0  0
 22 25  1  0  0  0  0
 22 28  1  1  0  0  0
 23 66  1  0  0  0  0
 23 67  1  0  0  0  0
 24 25  1  0  0  0  0
 24 68  1  0  0  0  0
 24 69  1  0  0  0  0
 25 70  1  1  0  0  0
 26 71  1  0  0  0  0
 26 72  1  0  0  0  0
 26 73  1  0  0  0  0
 27 74  1  0  0  0  0
 27 75  1  0  0  0  0
 27 76  1  0  0  0  0
 28 77  1  0  0  0  0
 28 78  1  0  0  0  0
 28 79  1  0  0  0  0
 29 30  1  0  0  0  0
 29 63  1  0  0  0  0
 29 80  1  0  0  0  0
 30 31  1  0  0  0  0
 30 81  1  0  0  0  0
 30 82  1  0  0  0  0
 31 34  1  0  0  0  0
 31 84  1  0  0  0  0
 31 85  1  0  0  0  0
 33 32  1  6  0  0  0
 33 35  1  0  0  0  0
 33 86  1  0  0  0  0
 34 38  2  0  0  0  0
 34 39  1  0  0  0  0
 35 36  1  0  0  0  0
 35 87  1  0  0  0  0
 35 88  1  0  0  0  0
 36 37  1  0  0  0  0
 36 89  1  0  0  0  0
 36 90  1  0  0  0  0
 37 91  1  0  0  0  0
 37 92  1  0  0  0  0
 38 41  1  0  0  0  0
 38 93  1  0  0  0  0
 39 42  2  0  0  0  0
 39 94  1  0  0  0  0
 40 43  1  0  0  0  0
 41 44  2  0  0  0  0
 41 95  1  0  0  0  0
 42 44  1  0  0  0  0
 42 96  1  0  0  0  0
 43 45  1  0  0  0  0
 43 97  1  0  0  0  0
 45 46  1  0  0  0  0
 45 47  1  0  0  0  0
 45 98  1  0  0  0  0
 46100  1  0  0  0  0
 46101  1  0  0  0  0
 46102  1  0  0  0  0
 47103  1  0  0  0  0
 47104  1  0  0  0  0
 47105  1  0  0  0  0
 48 50  1  0  0  0  0
 49106  1  0  0  0  0
 49107  1  0  0  0  0
 49108  1  0  0  0  0
 50 51  1  0  0  0  0
 50109  1  0  0  0  0
 51 52  1  0  0  0  0
 51 53  1  0  0  0  0
 51110  1  0  0  0  0
 52112  1  0  0  0  0
 52113  1  0  0  0  0
 52114  1  0  0  0  0
 53115  1  0  0  0  0
 53116  1  0  0  0  0
 53117  1  0  0  0  0
 54 55  1  0  0  0  0
 55 56  1  0  0  0  0
 55118  1  0  0  0  0
 56 57  1  0  0  0  0
 56119  1  0  0  0  0
 56120  1  0  0  0  0
 57 60  1  0  0  0  0
 57122  1  0  0  0  0
 57123  1  0  0  0  0
 58 59  1  0  0  0  0
 59 61  1  0  0  0  0
 59124  1  0  0  0  0
 61 62  1  0  0  0  0
 61125  1  0  0  0  0
 61126  1  0  0  0  0
M  END
> <PUBCHEM_COMPOUND_CID>
500553
> <PUBCHEM_COMPOUND_CANONICALIZED>
1
> <PUBCHEM_CACTVS_COMPLEXITY>
1690
> <PUBCHEM_CACTVS_HBOND_ACCEPTOR>
13
> <PUBCHEM_CACTVS_HBOND_DONOR>
7
> <PUBCHEM_CACTVS_ROTATABLE_BOND>
21
> <PUBCHEM_CACTVS_SUBSKEYS>
AAADcfJ/vAAAAAAAAAAAAAAAAABgAWJAAAAwYMAAAAAAAEgBAAAoHgAQCAAAD3zhmAYyDoPABgCIAiHSGAACCAAgIAAIiIGOCIgNZjqEsTqUcCAm1hGIqAe/1/IPoAAAAAAAAADAAAYAADCAAAAAAAAAAA==
> <PUBCHEM_IUPAC_OPENEYE_NAME>
(4S)-4-[[(2S)-2-amino-3-carboxy-propanoyl]amino]-5-[[(1S)-1-[[(1S)-1-[(2S)-2-[[(1R)-3-(4-methoxyphenyl)-1-[(1R,2S,6R,8S)-2,9,9-trimethyl-3,5-dioxa-4-boratricyclo[6.1.1.02,6]decan-4-yl]propyl]carbamoyl]pyrrolidine-1-carbonyl]-2-methyl-propyl]carbamoyl]-2-methyl-propyl]amino]-5-oxo-pentanoic acid
> <PUBCHEM_IUPAC_CAS_NAME>
(4S)-4-[[(2S)-2-amino-3-carboxy-1-oxopropyl]amino]-5-[[(2S)-1-[[(2S)-1-[(2S)-2-[[[(1R)-3-(4-methoxyphenyl)-1-[(1R,2S,6R,8S)-2,9,9-trimethyl-3,5-dioxa-4-boratricyclo[6.1.1.02,6]decan-4-yl]propyl]amino]-oxomethyl]-1-pyrrolidinyl]-3-methyl-1-oxobutan-2-yl]amino]-3-methyl-1-oxobutan-2-yl]amino]-5-oxopentanoic acid
> <PUBCHEM_IUPAC_NAME_MARKUP>
(4<I>S</I>)-4-[[(2<I>S</I>)-2-amino-3-carboxypropanoyl]amino]-5-[[(2<I>S</I>)-1-[[(2<I>S</I>)-1-[(2<I>S</I>)-2-[[(1<I>R</I>)-3-(4-methoxyphenyl)-1-[(1<I>R</I>,2<I>S</I>,6<I>R</I>,8<I>S</I>)-2,9,9-trimethyl-3,5-dioxa-4-boratricyclo[6.1.1.0<SUP>2,6</SUP>]decan-4-yl]propyl]carbamoyl]pyrrolidin-1-yl]-3-methyl-1-oxobutan-2-yl]amino]-3-methyl-1-oxobutan-2-yl]amino]-5-oxopentanoic acid
> <PUBCHEM_IUPAC_NAME>
(4S)-4-[[(2S)-2-amino-3-carboxypropanoyl]amino]-5-[[(2S)-1-[[(2S)-1-[(2S)-2-[[(1R)-3-(4-methoxyphenyl)-1-[(1R,2S,6R,8S)-2,9,9-trimethyl-3,5-dioxa-4-boratricyclo[6.1.1.02,6]decan-4-yl]propyl]carbamoyl]pyrrolidin-1-yl]-3-methyl-1-oxobutan-2-yl]amino]-3-methyl-1-oxobutan-2-yl]amino]-5-oxopentanoic acid
> <PUBCHEM_IUPAC_SYSTEMATIC_NAME>
(4S)-4-[[(2S)-2-azanyl-4-oxidanyl-4-oxidanylidene-butanoyl]amino]-5-[[(2S)-1-[[(2S)-1-[(2S)-2-[[(1R)-3-(4-methoxyphenyl)-1-[(1R,2S,6R,8S)-2,9,9-trimethyl-3,5-dioxa-4-boratricyclo[6.1.1.02,6]decan-4-yl]propyl]carbamoyl]pyrrolidin-1-yl]-3-methyl-1-oxidanylidene-butan-2-yl]amino]-3-methyl-1-oxidanylidene-butan-2-yl]amino]-5-oxidanylidene-pentanoic acid
> <PUBCHEM_IUPAC_TRADITIONAL_NAME>
(4S)-4-[[(2S)-2-amino-3-carboxy-propanoyl]amino]-5-keto-5-[[(1S)-1-[[(1S)-1-[(2S)-2-[[(1R)-3-(4-methoxyphenyl)-1-[(1R,2S,6R,8S)-2,9,9-trimethyl-3,5-dioxa-4-boratricyclo[6.1.1.02,6]decan-4-yl]propyl]carbamoyl]pyrrolidine-1-carbonyl]-2-methyl-propyl]carbamoyl]-2-methyl-propyl]amino]valeric acid
> <PUBCHEM_IUPAC_INCHI>
InChI=1S/C44H67BN6O12/c1-23(2)36(49-39(57)29(16-18-34(52)53)47-38(56)28(46)22-35(54)55)41(59)50-37(24(3)4)42(60)51-19-9-10-30(51)40(58)48-33(17-13-25-11-14-27(61-8)15-12-25)45-62-32-21-26-20-31(43(26,5)6)44(32,7)63-45/h11-12,14-15,23-24,26,28-33,36-37H,9-10,13,16-22,46H2,1-8H3,(H,47,56)(H,48,58)(H,49,57)(H,50,59)(H,52,53)(H,54,55)/t26-,28-,29-,30-,31+,32+,33-,36-,37-,44-/m0/s1
> <PUBCHEM_IUPAC_INCHIKEY>
RMVRFXPWQGESLH-OQQIEQQHSA-N
> <PUBCHEM_EXACT_MASS>
882.4910018
> <PUBCHEM_MOLECULAR_FORMULA>
C44H67BN6O12
> <PUBCHEM_MOLECULAR_WEIGHT>
882.8
> <PUBCHEM_OPENEYE_CAN_SMILES>
B1(OC2CC3CC(C3(C)C)C2(O1)C)C(CCC4=CC=C(C=C4)OC)NC(=O)C5CCCN5C(=O)C(C(C)C)NC(=O)C(C(C)C)NC(=O)C(CCC(=O)O)NC(=O)C(CC(=O)O)N
> <PUBCHEM_OPENEYE_ISO_SMILES>
B1(O[C@@H]2C[C@@H]3C[C@@H]([C@@]2(O1)C)C3(C)C)[C@H](CCC4=CC=C(C=C4)OC)NC(=O)[C@@H]5CCCN5C(=O)[C@H](C(C)C)NC(=O)[C@H](C(C)C)NC(=O)[C@H](CCC(=O)O)NC(=O)[C@H](CC(=O)O)N
> <PUBCHEM_CACTVS_TPSA>
265
> <PUBCHEM_MONOISOTOPIC_WEIGHT>
882.4910018
> <PUBCHEM_TOTAL_CHARGE>
0
> <PUBCHEM_HEAVY_ATOM_COUNT>
63
> <PUBCHEM_ATOM_DEF_STEREO_COUNT>
10
> <PUBCHEM_ATOM_UDEF_STEREO_COUNT>
0
> <PUBCHEM_BOND_DEF_STEREO_COUNT>
0
> <PUBCHEM_BOND_UDEF_STEREO_COUNT>
0
> <PUBCHEM_ISOTOPIC_ATOM_COUNT>
0
> <PUBCHEM_COMPONENT_COUNT>
1
> <PUBCHEM_CACTVS_TAUTO_COUNT>
-1
> <PUBCHEM_COORDINATE_TYPE>
1
5
255
> <PUBCHEM_BONDANNOTATIONS>
29  13  6
43  15  5
50  16  6
55  17  5
59  18  5
19  64  5
21  65  5
22  28  5
25  70  5
33  32  6
34  38  8
34  39  8
38  41  8
39  42  8
41  44  8
42  44  8
$$$$
