500536
  -OEChem-10302200282D
129133  0     1  0  0  0  0  0999 V2000
   17.1275   -0.4581    0.0000 O   0  0  0  0  0  0  0  0  0  0  0  0
   15.7932    0.4419    0.0000 O   0  0  0  0  0  0  0  0  0  0  0  0
   14.4565   -2.9791    0.0000 O   0  0  0  0  0  0  0  0  0  0  0  0
   13.8555   -0.0961    0.0000 O   0  0  0  0  0  0  0  0  0  0  0  0
   11.0182    2.1288    0.0000 O   0  0  0  0  0  0  0  0  0  0  0  0
    7.6728    0.7840    0.0000 O   0  0  0  0  0  0  0  0  0  0  0  0
    6.2004    4.0753    0.0000 O   0  0  0  0  0  0  0  0  0  0  0  0
    6.9496    5.9296    0.0000 O   0  0  0  0  0  0  0  0  0  0  0  0
    8.5556    5.2808    0.0000 O   0  0  0  0  0  0  0  0  0  0  0  0
    2.6140    4.4458    0.0000 O   0  0  0  0  0  0  0  0  0  0  0  0
    2.8550    2.7306    0.0000 O   0  0  0  0  0  0  0  0  0  0  0  0
   14.5773   -1.2512    0.0000 N   0  0  0  0  0  0  0  0  0  0  0  0
   12.4906   -1.1625    0.0000 N   0  0  0  0  0  0  0  0  0  0  0  0
   11.2593    0.4136    0.0000 N   0  0  0  0  0  0  0  0  0  0  0  0
    9.0377    1.8504    0.0000 N   0  0  0  0  0  0  0  0  0  0  0  0
    6.4415    2.3601    0.0000 N   0  0  0  0  0  0  0  0  0  0  0  0
    4.4610    2.0817    0.0000 N   0  0  0  0  0  0  0  0  0  0  0  0
   18.6250    1.3624    0.0000 C   0  0  2  0  0  0  0  0  0  0  0  0
   20.0240    1.3712    0.0000 C   0  0  0  0  0  0  0  0  0  0  0  0
   18.8839    2.3283    0.0000 C   0  0  1  0  0  0  0  0  0  0  0  0
   17.4040    0.4967    0.0000 C   0  0  1  0  0  0  0  0  0  0  0  0
   18.1472    3.3109    0.0000 C   0  0  0  0  0  0  0  0  0  0  0  0
   16.8506    2.0172    0.0000 C   0  0  0  0  0  0  0  0  0  0  0  0
   16.5750    1.0559    0.0000 C   0  0  1  0  0  0  0  0  0  0  0  0
   20.8900    1.8712    0.0000 C   0  0  0  0  0  0  0  0  0  0  0  0
   20.5240    0.5052    0.0000 C   0  0  0  0  0  0  0  0  0  0  0  0
   18.2331   -0.0625    0.0000 C   0  0  0  0  0  0  0  0  0  0  0  0
   15.5748   -1.3210    0.0000 C   0  0  1  0  0  0  0  0  0  0  0  0
   16.0132   -2.2198    0.0000 C   0  0  0  0  0  0  0  0  0  0  0  0
   15.4540   -3.0488    0.0000 C   0  0  0  0  0  0  0  0  0  0  0  0
   14.0181   -2.0803    0.0000 C   0  0  0  0  0  0  0  0  0  0  0  0
   13.0205   -2.0105    0.0000 C   0  0  2  0  0  0  0  0  0  0  0  0
   15.8924   -3.9476    0.0000 C   0  0  0  0  0  0  0  0  0  0  0  0
   12.3777   -2.7766    0.0000 C   0  0  0  0  0  0  0  0  0  0  0  0
   11.4505   -2.4019    0.0000 C   0  0  0  0  0  0  0  0  0  0  0  0
   11.5203   -1.4044    0.0000 C   0  0  0  0  0  0  0  0  0  0  0  0
   15.3332   -4.7766    0.0000 C   0  0  0  0  0  0  0  0  0  0  0  0
   16.8900   -4.0174    0.0000 C   0  0  0  0  0  0  0  0  0  0  0  0
   12.8652   -0.2353    0.0000 C   0  0  0  0  0  0  0  0  0  0  0  0
   15.7716   -5.6754    0.0000 C   0  0  0  0  0  0  0  0  0  0  0  0
   17.3283   -4.9162    0.0000 C   0  0  0  0  0  0  0  0  0  0  0  0
   12.2495    0.5527    0.0000 C   0  0  2  0  0  0  0  0  0  0  0  0
   16.7691   -5.7452    0.0000 C   0  0  0  0  0  0  0  0  0  0  0  0
   15.2124   -6.5045    0.0000 C   0  0  0  0  0  0  0  0  0  0  0  0
   12.6242    1.4799    0.0000 C   0  0  0  0  0  0  0  0  0  0  0  0
   12.0085    2.2679    0.0000 C   0  0  0  0  0  0  0  0  0  0  0  0
   13.6144    1.6191    0.0000 C   0  0  0  0  0  0  0  0  0  0  0  0
   10.6436    1.2016    0.0000 C   0  0  0  0  0  0  0  0  0  0  0  0
    9.6534    1.0624    0.0000 C   0  0  2  0  0  0  0  0  0  0  0  0
    9.2787    0.1352    0.0000 C   0  0  0  0  0  0  0  0  0  0  0  0
    8.2885   -0.0040    0.0000 C   0  0  0  0  0  0  0  0  0  0  0  0
    9.8944   -0.6528    0.0000 C   0  0  0  0  0  0  0  0  0  0  0  0
    8.0474    1.7112    0.0000 C   0  0  0  0  0  0  0  0  0  0  0  0
    7.4318    2.4992    0.0000 C   0  0  2  0  0  0  0  0  0  0  0  0
    7.8064    3.4264    0.0000 C   0  0  0  0  0  0  0  0  0  0  0  0
    7.1907    4.2144    0.0000 C   0  0  0  0  0  0  0  0  0  0  0  0
    5.8258    3.1481    0.0000 C   0  0  0  0  0  0  0  0  0  0  0  0
    4.8356    3.0089    0.0000 C   0  0  2  0  0  0  0  0  0  0  0  0
    7.5653    5.1416    0.0000 C   0  0  0  0  0  0  0  0  0  0  0  0
    4.2199    3.7969    0.0000 C   0  0  0  0  0  0  0  0  0  0  0  0
    3.2296    3.6577    0.0000 C   0  0  0  0  0  0  0  0  0  0  0  0
   16.1340   -0.4920    0.0000 B   0  0  0  0  0  0  0  0  0  0  0  0
   18.4050    0.5414    0.0000 H   0  0  0  0  0  0  0  0  0  0  0  0
   19.1039    3.1494    0.0000 H   0  0  0  0  0  0  0  0  0  0  0  0
   18.4650    3.8433    0.0000 H   0  0  0  0  0  0  0  0  0  0  0  0
   17.5341    3.4029    0.0000 H   0  0  0  0  0  0  0  0  0  0  0  0
   16.8456    2.6372    0.0000 H   0  0  0  0  0  0  0  0  0  0  0  0
   16.2363    2.1010    0.0000 H   0  0  0  0  0  0  0  0  0  0  0  0
   15.8703    1.5312    0.0000 H   0  0  0  0  0  0  0  0  0  0  0  0
   21.2000    1.3343    0.0000 H   0  0  0  0  0  0  0  0  0  0  0  0
   21.4269    2.1812    0.0000 H   0  0  0  0  0  0  0  0  0  0  0  0
   20.5800    2.4082    0.0000 H   0  0  0  0  0  0  0  0  0  0  0  0
   19.9870    0.1952    0.0000 H   0  0  0  0  0  0  0  0  0  0  0  0
   20.8340   -0.0317    0.0000 H   0  0  0  0  0  0  0  0  0  0  0  0
   21.0609    0.8152    0.0000 H   0  0  0  0  0  0  0  0  0  0  0  0
   17.8864   -0.5765    0.0000 H   0  0  0  0  0  0  0  0  0  0  0  0
   18.7471   -0.4092    0.0000 H   0  0  0  0  0  0  0  0  0  0  0  0
   18.5798    0.4515    0.0000 H   0  0  0  0  0  0  0  0  0  0  0  0
   15.2281   -1.8350    0.0000 H   0  0  0  0  0  0  0  0  0  0  0  0
   16.4592   -2.6505    0.0000 H   0  0  0  0  0  0  0  0  0  0  0  0
   16.5148   -1.8554    0.0000 H   0  0  0  0  0  0  0  0  0  0  0  0
   14.3055   -0.6940    0.0000 H   0  0  0  0  0  0  0  0  0  0  0  0
   15.0080   -2.6181    0.0000 H   0  0  0  0  0  0  0  0  0  0  0  0
   14.9524   -3.4132    0.0000 H   0  0  0  0  0  0  0  0  0  0  0  0
   13.3398   -1.4791    0.0000 H   0  0  0  0  0  0  0  0  0  0  0  0
   12.0867   -3.3240    0.0000 H   0  0  0  0  0  0  0  0  0  0  0  0
   12.8917   -3.1233    0.0000 H   0  0  0  0  0  0  0  0  0  0  0  0
   10.8400   -2.2943    0.0000 H   0  0  0  0  0  0  0  0  0  0  0  0
   11.2797   -2.9979    0.0000 H   0  0  0  0  0  0  0  0  0  0  0  0
   11.4340   -0.7904    0.0000 H   0  0  0  0  0  0  0  0  0  0  0  0
   10.9007   -1.4260    0.0000 H   0  0  0  0  0  0  0  0  0  0  0  0
   14.7147   -4.7334    0.0000 H   0  0  0  0  0  0  0  0  0  0  0  0
   17.2367   -3.5034    0.0000 H   0  0  0  0  0  0  0  0  0  0  0  0
   17.9468   -4.9594    0.0000 H   0  0  0  0  0  0  0  0  0  0  0  0
   11.8678    1.0413    0.0000 H   0  0  0  0  0  0  0  0  0  0  0  0
   17.0409   -6.3025    0.0000 H   0  0  0  0  0  0  0  0  0  0  0  0
   14.6984   -6.1578    0.0000 H   0  0  0  0  0  0  0  0  0  0  0  0
   14.8657   -7.0185    0.0000 H   0  0  0  0  0  0  0  0  0  0  0  0
   15.7264   -6.8512    0.0000 H   0  0  0  0  0  0  0  0  0  0  0  0
   13.0059    0.9913    0.0000 H   0  0  0  0  0  0  0  0  0  0  0  0
   11.0270   -0.1613    0.0000 H   0  0  0  0  0  0  0  0  0  0  0  0
   12.4971    2.6496    0.0000 H   0  0  0  0  0  0  0  0  0  0  0  0
   11.6268    2.7565    0.0000 H   0  0  0  0  0  0  0  0  0  0  0  0
   11.5199    1.8862    0.0000 H   0  0  0  0  0  0  0  0  0  0  0  0
   13.7007    1.0051    0.0000 H   0  0  0  0  0  0  0  0  0  0  0  0
   14.2284    1.7054    0.0000 H   0  0  0  0  0  0  0  0  0  0  0  0
   13.5281    2.2330    0.0000 H   0  0  0  0  0  0  0  0  0  0  0  0
    9.8856    1.6373    0.0000 H   0  0  0  0  0  0  0  0  0  0  0  0
    8.8970    0.6238    0.0000 H   0  0  0  0  0  0  0  0  0  0  0  0
    9.2699    2.4253    0.0000 H   0  0  0  0  0  0  0  0  0  0  0  0
    8.2022    0.6100    0.0000 H   0  0  0  0  0  0  0  0  0  0  0  0
    7.6745   -0.0903    0.0000 H   0  0  0  0  0  0  0  0  0  0  0  0
    8.3748   -0.6179    0.0000 H   0  0  0  0  0  0  0  0  0  0  0  0
    9.4058   -1.0345    0.0000 H   0  0  0  0  0  0  0  0  0  0  0  0
   10.2761   -1.1414    0.0000 H   0  0  0  0  0  0  0  0  0  0  0  0
   10.3830   -0.2711    0.0000 H   0  0  0  0  0  0  0  0  0  0  0  0
    7.1995    1.9244    0.0000 H   0  0  0  0  0  0  0  0  0  0  0  0
    8.3322    3.0979    0.0000 H   0  0  0  0  0  0  0  0  0  0  0  0
    8.2212    3.8872    0.0000 H   0  0  0  0  0  0  0  0  0  0  0  0
    6.2092    1.7852    0.0000 H   0  0  0  0  0  0  0  0  0  0  0  0
    6.6649    4.5430    0.0000 H   0  0  0  0  0  0  0  0  0  0  0  0
    6.7758    3.7537    0.0000 H   0  0  0  0  0  0  0  0  0  0  0  0
    4.2216    2.9226    0.0000 H   0  0  0  0  0  0  0  0  0  0  0  0
    4.7673    4.0880    0.0000 H   0  0  0  0  0  0  0  0  0  0  0  0
    4.0283    4.3866    0.0000 H   0  0  0  0  0  0  0  0  0  0  0  0
    3.8470    1.9954    0.0000 H   0  0  0  0  0  0  0  0  0  0  0  0
    4.8427    1.5932    0.0000 H   0  0  0  0  0  0  0  0  0  0  0  0
    7.1819    6.5045    0.0000 H   0  0  0  0  0  0  0  0  0  0  0  0
    2.0000    4.3595    0.0000 H   0  0  0  0  0  0  0  0  0  0  0  0
  1 21  1  0  0  0  0
  1 62  1  0  0  0  0
  2 24  1  0  0  0  0
  2 62  1  0  0  0  0
  3 31  2  0  0  0  0
  4 39  2  0  0  0  0
  5 48  2  0  0  0  0
  6 53  2  0  0  0  0
  7 57  2  0  0  0  0
  8 59  1  0  0  0  0
  8128  1  0  0  0  0
  9 59  2  0  0  0  0
 10 61  1  0  0  0  0
 10129  1  0  0  0  0
 11 61  2  0  0  0  0
 28 12  1  6  0  0  0
 12 31  1  0  0  0  0
 12 82  1  0  0  0  0
 13 32  1  0  0  0  0
 13 36  1  0  0  0  0
 13 39  1  0  0  0  0
 42 14  1  1  0  0  0
 14 48  1  0  0  0  0
 14101  1  0  0  0  0
 49 15  1  6  0  0  0
 15 53  1  0  0  0  0
 15110  1  0  0  0  0
 54 16  1  1  0  0  0
 16 57  1  0  0  0  0
 16120  1  0  0  0  0
 58 17  1  1  0  0  0
 17126  1  0  0  0  0
 17127  1  0  0  0  0
 18 19  1  0  0  0  0
 18 21  1  0  0  0  0
 18 22  1  0  0  0  0
 18 63  1  1  0  0  0
 19 20  1  0  0  0  0
 19 25  1  0  0  0  0
 19 26  1  0  0  0  0
 20 22  1  0  0  0  0
 20 23  1  0  0  0  0
 20 64  1  1  0  0  0
 21 24  1  0  0  0  0
 21 27  1  1  0  0  0
 22 65  1  0  0  0  0
 22 66  1  0  0  0  0
 23 24  1  0  0  0  0
 23 67  1  0  0  0  0
 23 68  1  0  0  0  0
 24 69  1  1  0  0  0
 25 70  1  0  0  0  0
 25 71  1  0  0  0  0
 25 72  1  0  0  0  0
 26 73  1  0  0  0  0
 26 74  1  0  0  0  0
 26 75  1  0  0  0  0
 27 76  1  0  0  0  0
 27 77  1  0  0  0  0
 27 78  1  0  0  0  0
 28 29  1  0  0  0  0
 28 62  1  0  0  0  0
 28 79  1  0  0  0  0
 29 30  1  0  0  0  0
 29 80  1  0  0  0  0
 29 81  1  0  0  0  0
 30 33  1  0  0  0  0
 30 83  1  0  0  0  0
 30 84  1  0  0  0  0
 32 31  1  6  0  0  0
 32 34  1  0  0  0  0
 32 85  1  0  0  0  0
 33 37  1  0  0  0  0
 33 38  2  0  0  0  0
 34 35  1  0  0  0  0
 34 86  1  0  0  0  0
 34 87  1  0  0  0  0
 35 36  1  0  0  0  0
 35 88  1  0  0  0  0
 35 89  1  0  0  0  0
 36 90  1  0  0  0  0
 36 91  1  0  0  0  0
 37 40  2  0  0  0  0
 37 92  1  0  0  0  0
 38 41  1  0  0  0  0
 38 93  1  0  0  0  0
 39 42  1  0  0  0  0
 40 43  1  0  0  0  0
 40 44  1  0  0  0  0
 41 43  2  0  0  0  0
 41 94  1  0  0  0  0
 42 45  1  0  0  0  0
 42 95  1  0  0  0  0
 43 96  1  0  0  0  0
 44 97  1  0  0  0  0
 44 98  1  0  0  0  0
 44 99  1  0  0  0  0
 45 46  1  0  0  0  0
 45 47  1  0  0  0  0
 45100  1  0  0  0  0
 46102  1  0  0  0  0
 46103  1  0  0  0  0
 46104  1  0  0  0  0
 47105  1  0  0  0  0
 47106  1  0  0  0  0
 47107  1  0  0  0  0
 48 49  1  0  0  0  0
 49 50  1  0  0  0  0
 49108  1  0  0  0  0
 50 51  1  0  0  0  0
 50 52  1  0  0  0  0
 50109  1  0  0  0  0
 51111  1  0  0  0  0
 51112  1  0  0  0  0
 51113  1  0  0  0  0
 52114  1  0  0  0  0
 52115  1  0  0  0  0
 52116  1  0  0  0  0
 53 54  1  0  0  0  0
 54 55  1  0  0  0  0
 54117  1  0  0  0  0
 55 56  1  0  0  0  0
 55118  1  0  0  0  0
 55119  1  0  0  0  0
 56 59  1  0  0  0  0
 56121  1  0  0  0  0
 56122  1  0  0  0  0
 57 58  1  0  0  0  0
 58 60  1  0  0  0  0
 58123  1  0  0  0  0
 60 61  1  0  0  0  0
 60124  1  0  0  0  0
 60125  1  0  0  0  0
M  END
> <PUBCHEM_COMPOUND_CID>
500536
> <PUBCHEM_COMPOUND_CANONICALIZED>
1
> <PUBCHEM_CACTVS_COMPLEXITY>
1680
> <PUBCHEM_CACTVS_HBOND_ACCEPTOR>
12
> <PUBCHEM_CACTVS_HBOND_DONOR>
7
> <PUBCHEM_CACTVS_ROTATABLE_BOND>
20
> <PUBCHEM_CACTVS_SUBSKEYS>
AAADcfJ/vAAAAAAAAAAAAAAAAABgAWJAAAAwYMAAAAAAAEgBAAAoHgAQCAAAD3zhmAYyCIPAAgCIAiHSGAACAAAgAAAIiIGIAIgJYDqAkTCUYAAmlgCIiAe/1/IPgAACAAAAAADAAAYAADCAAAAAAAAAAA==
> <PUBCHEM_IUPAC_OPENEYE_NAME>
(4S)-4-[[(2S)-2-amino-3-carboxy-propanoyl]amino]-5-[[(1S)-2-methyl-1-[[(1S)-2-methyl-1-[(2S)-2-[[(1R)-3-(m-tolyl)-1-[(1R,2S,6R,8S)-2,9,9-trimethyl-3,5-dioxa-4-boratricyclo[6.1.1.02,6]decan-4-yl]propyl]carbamoyl]pyrrolidine-1-carbonyl]propyl]carbamoyl]propyl]amino]-5-oxo-pentanoic acid
> <PUBCHEM_IUPAC_CAS_NAME>
(4S)-4-[[(2S)-2-amino-3-carboxy-1-oxopropyl]amino]-5-[[(2S)-3-methyl-1-[[(2S)-3-methyl-1-[(2S)-2-[[[(1R)-3-(3-methylphenyl)-1-[(1R,2S,6R,8S)-2,9,9-trimethyl-3,5-dioxa-4-boratricyclo[6.1.1.02,6]decan-4-yl]propyl]amino]-oxomethyl]-1-pyrrolidinyl]-1-oxobutan-2-yl]amino]-1-oxobutan-2-yl]amino]-5-oxopentanoic acid
> <PUBCHEM_IUPAC_NAME_MARKUP>
(4<I>S</I>)-4-[[(2<I>S</I>)-2-amino-3-carboxypropanoyl]amino]-5-[[(2<I>S</I>)-3-methyl-1-[[(2<I>S</I>)-3-methyl-1-[(2<I>S</I>)-2-[[(1<I>R</I>)-3-(3-methylphenyl)-1-[(1<I>R</I>,2<I>S</I>,6<I>R</I>,8<I>S</I>)-2,9,9-trimethyl-3,5-dioxa-4-boratricyclo[6.1.1.0<SUP>2,6</SUP>]decan-4-yl]propyl]carbamoyl]pyrrolidin-1-yl]-1-oxobutan-2-yl]amino]-1-oxobutan-2-yl]amino]-5-oxopentanoic acid
> <PUBCHEM_IUPAC_NAME>
(4S)-4-[[(2S)-2-amino-3-carboxypropanoyl]amino]-5-[[(2S)-3-methyl-1-[[(2S)-3-methyl-1-[(2S)-2-[[(1R)-3-(3-methylphenyl)-1-[(1R,2S,6R,8S)-2,9,9-trimethyl-3,5-dioxa-4-boratricyclo[6.1.1.02,6]decan-4-yl]propyl]carbamoyl]pyrrolidin-1-yl]-1-oxobutan-2-yl]amino]-1-oxobutan-2-yl]amino]-5-oxopentanoic acid
> <PUBCHEM_IUPAC_SYSTEMATIC_NAME>
(4S)-4-[[(2S)-2-azanyl-4-oxidanyl-4-oxidanylidene-butanoyl]amino]-5-[[(2S)-3-methyl-1-[[(2S)-3-methyl-1-[(2S)-2-[[(1R)-3-(3-methylphenyl)-1-[(1R,2S,6R,8S)-2,9,9-trimethyl-3,5-dioxa-4-boratricyclo[6.1.1.02,6]decan-4-yl]propyl]carbamoyl]pyrrolidin-1-yl]-1-oxidanylidene-butan-2-yl]amino]-1-oxidanylidene-butan-2-yl]amino]-5-oxidanylidene-pentanoic acid
> <PUBCHEM_IUPAC_TRADITIONAL_NAME>
(4S)-4-[[(2S)-2-amino-3-carboxy-propanoyl]amino]-5-keto-5-[[(1S)-2-methyl-1-[[(1S)-2-methyl-1-[(2S)-2-[[(1R)-3-(m-tolyl)-1-[(1R,2S,6R,8S)-2,9,9-trimethyl-3,5-dioxa-4-boratricyclo[6.1.1.02,6]decan-4-yl]propyl]carbamoyl]pyrrolidine-1-carbonyl]propyl]carbamoyl]propyl]amino]valeric acid
> <PUBCHEM_IUPAC_INCHI>
InChI=1S/C44H67BN6O11/c1-23(2)36(49-39(57)29(15-17-34(52)53)47-38(56)28(46)22-35(54)55)41(59)50-37(24(3)4)42(60)51-18-10-13-30(51)40(58)48-33(16-14-26-12-9-11-25(5)19-26)45-61-32-21-27-20-31(43(27,6)7)44(32,8)62-45/h9,11-12,19,23-24,27-33,36-37H,10,13-18,20-22,46H2,1-8H3,(H,47,56)(H,48,58)(H,49,57)(H,50,59)(H,52,53)(H,54,55)/t27-,28-,29-,30-,31+,32+,33-,36-,37-,44-/m0/s1
> <PUBCHEM_IUPAC_INCHIKEY>
MKPARQUSNGRQFS-RUCUBMSCSA-N
> <PUBCHEM_EXACT_MASS>
866.4960871
> <PUBCHEM_MOLECULAR_FORMULA>
C44H67BN6O11
> <PUBCHEM_MOLECULAR_WEIGHT>
866.8
> <PUBCHEM_OPENEYE_CAN_SMILES>
B1(OC2CC3CC(C3(C)C)C2(O1)C)C(CCC4=CC=CC(=C4)C)NC(=O)C5CCCN5C(=O)C(C(C)C)NC(=O)C(C(C)C)NC(=O)C(CCC(=O)O)NC(=O)C(CC(=O)O)N
> <PUBCHEM_OPENEYE_ISO_SMILES>
B1(O[C@@H]2C[C@@H]3C[C@@H]([C@@]2(O1)C)C3(C)C)[C@H](CCC4=CC=CC(=C4)C)NC(=O)[C@@H]5CCCN5C(=O)[C@H](C(C)C)NC(=O)[C@H](C(C)C)NC(=O)[C@H](CCC(=O)O)NC(=O)[C@H](CC(=O)O)N
> <PUBCHEM_CACTVS_TPSA>
256
> <PUBCHEM_MONOISOTOPIC_WEIGHT>
866.4960871
> <PUBCHEM_TOTAL_CHARGE>
0
> <PUBCHEM_HEAVY_ATOM_COUNT>
62
> <PUBCHEM_ATOM_DEF_STEREO_COUNT>
10
> <PUBCHEM_ATOM_UDEF_STEREO_COUNT>
0
> <PUBCHEM_BOND_DEF_STEREO_COUNT>
0
> <PUBCHEM_BOND_UDEF_STEREO_COUNT>
0
> <PUBCHEM_ISOTOPIC_ATOM_COUNT>
0
> <PUBCHEM_COMPONENT_COUNT>
1
> <PUBCHEM_CACTVS_TAUTO_COUNT>
-1
> <PUBCHEM_COORDINATE_TYPE>
1
5
255
> <PUBCHEM_BONDANNOTATIONS>
28  12  6
42  14  5
49  15  6
54  16  5
58  17  5
18  63  5
20  64  5
21  27  5
24  69  5
32  31  6
33  37  8
33  38  8
37  40  8
38  41  8
40  43  8
41  43  8
$$$$
