500588
  -OEChem-10302200282D
104104  0     1  0  0  0  0  0999 V2000
   14.3046    4.4649    0.0000 F   0  0  0  0  0  0  0  0  0  0  0  0
   15.5647    5.1069    0.0000 F   0  0  0  0  0  0  0  0  0  0  0  0
   14.9226    6.3670    0.0000 F   0  0  0  0  0  0  0  0  0  0  0  0
   10.3312    2.9169    0.0000 O   0  0  0  0  0  0  0  0  0  0  0  0
   11.4331    3.7175    0.0000 O   0  0  0  0  0  0  0  0  0  0  0  0
    6.8671    1.9169    0.0000 O   0  0  0  0  0  0  0  0  0  0  0  0
   13.4546    6.7031    0.0000 O   0  0  0  0  0  0  0  0  0  0  0  0
    7.7331   -1.5831    0.0000 O   0  0  0  0  0  0  0  0  0  0  0  0
    4.2690   -2.5831    0.0000 O   0  0  0  0  0  0  0  0  0  0  0  0
    2.5369   -1.5831    0.0000 O   0  0  0  0  0  0  0  0  0  0  0  0
    3.4030   -0.0831    0.0000 O   0  0  0  0  0  0  0  0  0  0  0  0
    6.8671   -6.0831    0.0000 O   0  0  0  0  0  0  0  0  0  0  0  0
    5.1350   -6.0831    0.0000 O   0  0  0  0  0  0  0  0  0  0  0  0
    3.4030   -3.0831    0.0000 O   0  0  0  0  0  0  0  0  0  0  0  0
    9.4651    4.4169    0.0000 N   0  0  0  0  0  0  0  0  0  0  0  0
    8.5991    1.9169    0.0000 N   0  0  0  0  0  0  0  0  0  0  0  0
   11.9684    5.3648    0.0000 N   0  0  0  0  0  0  0  0  0  0  0  0
    6.8671   -0.0831    0.0000 N   0  0  0  0  0  0  0  0  0  0  0  0
    6.0010   -2.5831    0.0000 N   0  0  0  0  0  0  0  0  0  0  0  0
    4.2690   -4.5831    0.0000 N   0  0  0  0  0  0  0  0  0  0  0  0
   10.2742    5.0047    0.0000 C   0  0  1  0  0  0  0  0  0  0  0  0
    9.9651    5.9558    0.0000 C   0  0  0  0  0  0  0  0  0  0  0  0
    8.6561    5.0047    0.0000 C   0  0  0  0  0  0  0  0  0  0  0  0
    8.9651    5.9558    0.0000 C   0  0  0  0  0  0  0  0  0  0  0  0
    8.5991    2.9169    0.0000 C   0  0  2  0  0  0  0  0  0  0  0  0
    9.4651    3.4169    0.0000 C   0  0  0  0  0  0  0  0  0  0  0  0
    7.7331    3.4169    0.0000 C   0  0  0  0  0  0  0  0  0  0  0  0
   11.2252    4.6957    0.0000 C   0  0  0  0  0  0  0  0  0  0  0  0
    7.7331    0.4169    0.0000 C   0  0  1  0  0  0  0  0  0  0  0  0
    8.5991   -0.0831    0.0000 C   0  0  2  0  0  0  0  0  0  0  0  0
    7.7331    1.4169    0.0000 C   0  0  0  0  0  0  0  0  0  0  0  0
    6.8671    2.9169    0.0000 C   0  0  0  0  0  0  0  0  0  0  0  0
    7.7331    4.4169    0.0000 C   0  0  0  0  0  0  0  0  0  0  0  0
   12.9194    5.0558    0.0000 C   0  0  3  0  0  0  0  0  0  0  0  0
    8.5991   -1.0831    0.0000 C   0  0  0  0  0  0  0  0  0  0  0  0
   13.1273    4.0776    0.0000 C   0  0  0  0  0  0  0  0  0  0  0  0
    9.4651    0.4169    0.0000 C   0  0  0  0  0  0  0  0  0  0  0  0
   13.6626    5.7249    0.0000 C   0  0  0  0  0  0  0  0  0  0  0  0
    6.8671   -1.0831    0.0000 C   0  0  0  0  0  0  0  0  0  0  0  0
   14.0784    3.7686    0.0000 C   0  0  0  0  0  0  0  0  0  0  0  0
    6.0010   -1.5831    0.0000 C   0  0  1  0  0  0  0  0  0  0  0  0
    9.4651   -1.5831    0.0000 C   0  0  0  0  0  0  0  0  0  0  0  0
    5.1350   -1.0831    0.0000 C   0  0  0  0  0  0  0  0  0  0  0  0
   14.6136    5.4159    0.0000 C   0  0  0  0  0  0  0  0  0  0  0  0
   14.2863    2.7905    0.0000 C   0  0  0  0  0  0  0  0  0  0  0  0
    4.2690   -1.5831    0.0000 C   0  0  0  0  0  0  0  0  0  0  0  0
    5.1350   -3.0831    0.0000 C   0  0  0  0  0  0  0  0  0  0  0  0
    5.1350   -4.0831    0.0000 C   0  0  2  0  0  0  0  0  0  0  0  0
    3.4030   -1.0831    0.0000 C   0  0  0  0  0  0  0  0  0  0  0  0
    6.0010   -4.5831    0.0000 C   0  0  0  0  0  0  0  0  0  0  0  0
    6.0010   -5.5831    0.0000 C   0  0  0  0  0  0  0  0  0  0  0  0
    3.4030   -4.0831    0.0000 C   0  0  0  0  0  0  0  0  0  0  0  0
    2.5369   -4.5831    0.0000 C   0  0  0  0  0  0  0  0  0  0  0  0
   10.3711    4.3923    0.0000 H   0  0  0  0  0  0  0  0  0  0  0  0
   10.5716    6.0847    0.0000 H   0  0  0  0  0  0  0  0  0  0  0  0
    9.9003    6.5724    0.0000 H   0  0  0  0  0  0  0  0  0  0  0  0
    8.0897    5.2569    0.0000 H   0  0  0  0  0  0  0  0  0  0  0  0
    8.3461    4.4678    0.0000 H   0  0  0  0  0  0  0  0  0  0  0  0
    9.0300    6.5724    0.0000 H   0  0  0  0  0  0  0  0  0  0  0  0
    8.3587    6.0847    0.0000 H   0  0  0  0  0  0  0  0  0  0  0  0
    9.1360    2.6069    0.0000 H   0  0  0  0  0  0  0  0  0  0  0  0
    7.7331    2.7969    0.0000 H   0  0  0  0  0  0  0  0  0  0  0  0
    9.1360    1.6069    0.0000 H   0  0  0  0  0  0  0  0  0  0  0  0
    7.7331   -0.2031    0.0000 H   0  0  0  0  0  0  0  0  0  0  0  0
    8.5991    0.5369    0.0000 H   0  0  0  0  0  0  0  0  0  0  0  0
   11.8395    5.9713    0.0000 H   0  0  0  0  0  0  0  0  0  0  0  0
    6.5571    3.4539    0.0000 H   0  0  0  0  0  0  0  0  0  0  0  0
    6.3301    2.6069    0.0000 H   0  0  0  0  0  0  0  0  0  0  0  0
    7.1771    2.3800    0.0000 H   0  0  0  0  0  0  0  0  0  0  0  0
    8.3531    4.4169    0.0000 H   0  0  0  0  0  0  0  0  0  0  0  0
    7.7331    5.0369    0.0000 H   0  0  0  0  0  0  0  0  0  0  0  0
    7.1131    4.4169    0.0000 H   0  0  0  0  0  0  0  0  0  0  0  0
   12.4587    4.6409    0.0000 H   0  0  0  0  0  0  0  0  0  0  0  0
    7.9885   -0.9754    0.0000 H   0  0  0  0  0  0  0  0  0  0  0  0
    8.3871   -1.6657    0.0000 H   0  0  0  0  0  0  0  0  0  0  0  0
   12.5077    4.0560    0.0000 H   0  0  0  0  0  0  0  0  0  0  0  0
   13.0410    3.4637    0.0000 H   0  0  0  0  0  0  0  0  0  0  0  0
    6.3301    0.2269    0.0000 H   0  0  0  0  0  0  0  0  0  0  0  0
    9.7751   -0.1200    0.0000 H   0  0  0  0  0  0  0  0  0  0  0  0
   10.0021    0.7269    0.0000 H   0  0  0  0  0  0  0  0  0  0  0  0
    9.1551    0.9539    0.0000 H   0  0  0  0  0  0  0  0  0  0  0  0
   14.6980    3.7903    0.0000 H   0  0  0  0  0  0  0  0  0  0  0  0
   14.1647    4.3826    0.0000 H   0  0  0  0  0  0  0  0  0  0  0  0
    6.5380   -1.8931    0.0000 H   0  0  0  0  0  0  0  0  0  0  0  0
    9.1551   -2.1200    0.0000 H   0  0  0  0  0  0  0  0  0  0  0  0
   10.0021   -1.8931    0.0000 H   0  0  0  0  0  0  0  0  0  0  0  0
    9.7751   -1.0461    0.0000 H   0  0  0  0  0  0  0  0  0  0  0  0
    5.5335   -0.6081    0.0000 H   0  0  0  0  0  0  0  0  0  0  0  0
    4.7365   -0.6081    0.0000 H   0  0  0  0  0  0  0  0  0  0  0  0
   13.6798    2.6616    0.0000 H   0  0  0  0  0  0  0  0  0  0  0  0
   14.4152    2.1840    0.0000 H   0  0  0  0  0  0  0  0  0  0  0  0
   14.8927    2.9194    0.0000 H   0  0  0  0  0  0  0  0  0  0  0  0
    6.5380   -2.8931    0.0000 H   0  0  0  0  0  0  0  0  0  0  0  0
    3.8705   -2.0580    0.0000 H   0  0  0  0  0  0  0  0  0  0  0  0
    4.6675   -2.0580    0.0000 H   0  0  0  0  0  0  0  0  0  0  0  0
    5.1350   -4.7031    0.0000 H   0  0  0  0  0  0  0  0  0  0  0  0
    6.6116   -4.6907    0.0000 H   0  0  0  0  0  0  0  0  0  0  0  0
    6.2131   -4.0005    0.0000 H   0  0  0  0  0  0  0  0  0  0  0  0
    4.2690   -5.2031    0.0000 H   0  0  0  0  0  0  0  0  0  0  0  0
    2.0000   -1.2731    0.0000 H   0  0  0  0  0  0  0  0  0  0  0  0
    2.2269   -4.0461    0.0000 H   0  0  0  0  0  0  0  0  0  0  0  0
    2.0000   -4.8931    0.0000 H   0  0  0  0  0  0  0  0  0  0  0  0
    2.8469   -5.1200    0.0000 H   0  0  0  0  0  0  0  0  0  0  0  0
    6.8671   -6.7031    0.0000 H   0  0  0  0  0  0  0  0  0  0  0  0
  1 44  1  0  0  0  0
  2 44  1  0  0  0  0
  3 44  1  0  0  0  0
  4 26  2  0  0  0  0
  5 28  2  0  0  0  0
  6 31  2  0  0  0  0
  7 38  2  0  0  0  0
  8 39  2  0  0  0  0
  9 47  2  0  0  0  0
 10 49  1  0  0  0  0
 10100  1  0  0  0  0
 11 49  2  0  0  0  0
 12 51  1  0  0  0  0
 12104  1  0  0  0  0
 13 51  2  0  0  0  0
 14 52  2  0  0  0  0
 15 21  1  0  0  0  0
 15 23  1  0  0  0  0
 15 26  1  0  0  0  0
 25 16  1  1  0  0  0
 16 31  1  0  0  0  0
 16 63  1  0  0  0  0
 17 28  1  0  0  0  0
 17 34  1  0  0  0  0
 17 66  1  0  0  0  0
 29 18  1  6  0  0  0
 18 39  1  0  0  0  0
 18 78  1  0  0  0  0
 41 19  1  6  0  0  0
 19 47  1  0  0  0  0
 19 93  1  0  0  0  0
 48 20  1  6  0  0  0
 20 52  1  0  0  0  0
 20 99  1  0  0  0  0
 21 22  1  0  0  0  0
 21 28  1  1  0  0  0
 21 54  1  0  0  0  0
 22 24  1  0  0  0  0
 22 55  1  0  0  0  0
 22 56  1  0  0  0  0
 23 24  1  0  0  0  0
 23 57  1  0  0  0  0
 23 58  1  0  0  0  0
 24 59  1  0  0  0  0
 24 60  1  0  0  0  0
 25 26  1  0  0  0  0
 25 27  1  0  0  0  0
 25 61  1  0  0  0  0
 27 32  1  0  0  0  0
 27 33  1  0  0  0  0
 27 62  1  0  0  0  0
 29 30  1  0  0  0  0
 29 31  1  0  0  0  0
 29 64  1  0  0  0  0
 30 35  1  0  0  0  0
 30 37  1  1  0  0  0
 30 65  1  0  0  0  0
 32 67  1  0  0  0  0
 32 68  1  0  0  0  0
 32 69  1  0  0  0  0
 33 70  1  0  0  0  0
 33 71  1  0  0  0  0
 33 72  1  0  0  0  0
 34 36  1  0  0  0  0
 34 38  1  0  0  0  0
 34 73  1  0  0  0  0
 35 42  1  0  0  0  0
 35 74  1  0  0  0  0
 35 75  1  0  0  0  0
 36 40  1  0  0  0  0
 36 76  1  0  0  0  0
 36 77  1  0  0  0  0
 37 79  1  0  0  0  0
 37 80  1  0  0  0  0
 37 81  1  0  0  0  0
 38 44  1  0  0  0  0
 39 41  1  0  0  0  0
 40 45  1  0  0  0  0
 40 82  1  0  0  0  0
 40 83  1  0  0  0  0
 41 43  1  0  0  0  0
 41 84  1  0  0  0  0
 42 85  1  0  0  0  0
 42 86  1  0  0  0  0
 42 87  1  0  0  0  0
 43 46  1  0  0  0  0
 43 88  1  0  0  0  0
 43 89  1  0  0  0  0
 45 90  1  0  0  0  0
 45 91  1  0  0  0  0
 45 92  1  0  0  0  0
 46 49  1  0  0  0  0
 46 94  1  0  0  0  0
 46 95  1  0  0  0  0
 47 48  1  0  0  0  0
 48 50  1  0  0  0  0
 48 96  1  0  0  0  0
 50 51  1  0  0  0  0
 50 97  1  0  0  0  0
 50 98  1  0  0  0  0
 52 53  1  0  0  0  0
 53101  1  0  0  0  0
 53102  1  0  0  0  0
 53103  1  0  0  0  0
M  END
> <PUBCHEM_COMPOUND_CID>
500588
> <PUBCHEM_COMPOUND_CANONICALIZED>
1
> <PUBCHEM_CACTVS_COMPLEXITY>
1380
> <PUBCHEM_CACTVS_HBOND_ACCEPTOR>
14
> <PUBCHEM_CACTVS_HBOND_DONOR>
7
> <PUBCHEM_CACTVS_ROTATABLE_BOND>
21
> <PUBCHEM_CACTVS_SUBSKEYS>
AAADcfB/vYAAAAAAAAAAAAAAAAAAAWAAAAAAAAAAAAAAAAAAAAAAHwAQCAAADSzBgBQCCAPAAgAIAIGQGAAAAAAAAAAAAIGIAAAAQBoAgCAUQAAGFgCAAAG/FwIKAAAAAAAAAAAAAAAAAAAAAAAAAAAAAA==
> <PUBCHEM_IUPAC_OPENEYE_NAME>
(4R)-4-[[(2S)-2-acetamido-3-carboxy-propanoyl]amino]-5-[[(1S,2S)-2-methyl-1-[[(1S)-2-methyl-1-[(2S)-2-[1-(2,2,2-trifluoroacetyl)butylcarbamoyl]pyrrolidine-1-carbonyl]propyl]carbamoyl]butyl]amino]-5-oxo-pentanoic acid
> <PUBCHEM_IUPAC_CAS_NAME>
(4R)-4-[[(2S)-2-acetamido-3-carboxy-1-oxopropyl]amino]-5-[[(2S,3S)-3-methyl-1-[[(2S)-3-methyl-1-oxo-1-[(2S)-2-[oxo-[(1,1,1-trifluoro-2-oxohexan-3-yl)amino]methyl]-1-pyrrolidinyl]butan-2-yl]amino]-1-oxopentan-2-yl]amino]-5-oxopentanoic acid
> <PUBCHEM_IUPAC_NAME_MARKUP>
(4<I>R</I>)-4-[[(2<I>S</I>)-2-acetamido-3-carboxypropanoyl]amino]-5-[[(2<I>S</I>,3<I>S</I>)-3-methyl-1-[[(2<I>S</I>)-3-methyl-1-oxo-1-[(2<I>S</I>)-2-[(1,1,1-trifluoro-2-oxohexan-3-yl)carbamoyl]pyrrolidin-1-yl]butan-2-yl]amino]-1-oxopentan-2-yl]amino]-5-oxopentanoic acid
> <PUBCHEM_IUPAC_NAME>
(4R)-4-[[(2S)-2-acetamido-3-carboxypropanoyl]amino]-5-[[(2S,3S)-3-methyl-1-[[(2S)-3-methyl-1-oxo-1-[(2S)-2-[(1,1,1-trifluoro-2-oxohexan-3-yl)carbamoyl]pyrrolidin-1-yl]butan-2-yl]amino]-1-oxopentan-2-yl]amino]-5-oxopentanoic acid
> <PUBCHEM_IUPAC_SYSTEMATIC_NAME>
(4R)-4-[[(2S)-2-acetamido-4-oxidanyl-4-oxidanylidene-butanoyl]amino]-5-[[(2S,3S)-3-methyl-1-[[(2S)-3-methyl-1-oxidanylidene-1-[(2S)-2-[[1,1,1-tris(fluoranyl)-2-oxidanylidene-hexan-3-yl]carbamoyl]pyrrolidin-1-yl]butan-2-yl]amino]-1-oxidanylidene-pentan-2-yl]amino]-5-oxidanylidene-pentanoic acid
> <PUBCHEM_IUPAC_TRADITIONAL_NAME>
(4R)-4-[[(2S)-2-acetamido-3-carboxy-propanoyl]amino]-5-keto-5-[[(1S,2S)-2-methyl-1-[[(1S)-2-methyl-1-[(2S)-2-[1-(2,2,2-trifluoroacetyl)butylcarbamoyl]pyrrolidine-1-carbonyl]propyl]carbamoyl]butyl]amino]valeric acid
> <PUBCHEM_IUPAC_INCHI>
InChI=1S/C33H51F3N6O11/c1-7-10-19(27(48)33(34,35)36)38-30(51)22-11-9-14-42(22)32(53)25(16(3)4)40-31(52)26(17(5)8-2)41-28(49)20(12-13-23(44)45)39-29(50)21(15-24(46)47)37-18(6)43/h16-17,19-22,25-26H,7-15H2,1-6H3,(H,37,43)(H,38,51)(H,39,50)(H,40,52)(H,41,49)(H,44,45)(H,46,47)/t17-,19?,20+,21-,22-,25-,26-/m0/s1
> <PUBCHEM_IUPAC_INCHIKEY>
CJIJBSHMRKHSGE-QRFRIBBJSA-N
> <PUBCHEM_XLOGP3_AA>
1.6
> <PUBCHEM_EXACT_MASS>
764.35679095
> <PUBCHEM_MOLECULAR_FORMULA>
C33H51F3N6O11
> <PUBCHEM_MOLECULAR_WEIGHT>
764.8
> <PUBCHEM_OPENEYE_CAN_SMILES>
CCCC(C(=O)C(F)(F)F)NC(=O)C1CCCN1C(=O)C(C(C)C)NC(=O)C(C(C)CC)NC(=O)C(CCC(=O)O)NC(=O)C(CC(=O)O)NC(=O)C
> <PUBCHEM_OPENEYE_ISO_SMILES>
CCCC(C(=O)C(F)(F)F)NC(=O)[C@@H]1CCCN1C(=O)[C@H](C(C)C)NC(=O)[C@H]([C@@H](C)CC)NC(=O)[C@@H](CCC(=O)O)NC(=O)[C@H](CC(=O)O)NC(=O)C
> <PUBCHEM_CACTVS_TPSA>
258
> <PUBCHEM_MONOISOTOPIC_WEIGHT>
764.35679095
> <PUBCHEM_TOTAL_CHARGE>
0
> <PUBCHEM_HEAVY_ATOM_COUNT>
53
> <PUBCHEM_ATOM_DEF_STEREO_COUNT>
6
> <PUBCHEM_ATOM_UDEF_STEREO_COUNT>
1
> <PUBCHEM_BOND_DEF_STEREO_COUNT>
0
> <PUBCHEM_BOND_UDEF_STEREO_COUNT>
0
> <PUBCHEM_ISOTOPIC_ATOM_COUNT>
0
> <PUBCHEM_COMPONENT_COUNT>
1
> <PUBCHEM_CACTVS_TAUTO_COUNT>
-1
> <PUBCHEM_COORDINATE_TYPE>
1
5
255
> <PUBCHEM_BONDANNOTATIONS>
25  16  5
29  18  6
41  19  6
48  20  6
21  28  5
30  37  5
34  36  3
$$$$
