500590
  -OEChem-10302200282D
129130  0     1  0  0  0  0  0999 V2000
   10.4115   -3.2540    0.0000 O   0  0  0  0  0  0  0  0  0  0  0  0
   11.0926    1.0074    0.0000 O   0  0  0  0  0  0  0  0  0  0  0  0
    9.7305    1.0074    0.0000 O   0  0  0  0  0  0  0  0  0  0  0  0
   14.4829   -0.2197    0.0000 O   0  0  0  0  0  0  0  0  0  0  0  0
   16.0652    0.4848    0.0000 O   0  0  0  0  0  0  0  0  0  0  0  0
   15.8395    3.1209    0.0000 O   0  0  0  0  0  0  0  0  0  0  0  0
    6.3402   -0.2197    0.0000 O   0  0  0  0  0  0  0  0  0  0  0  0
   19.2298    1.8937    0.0000 O   0  0  0  0  0  0  0  0  0  0  0  0
   20.0433    0.0666    0.0000 O   0  0  0  0  0  0  0  0  0  0  0  0
   18.4610   -0.6378    0.0000 O   0  0  0  0  0  0  0  0  0  0  0  0
    3.5823    2.1028    0.0000 O   0  0  0  0  0  0  0  0  0  0  0  0
    4.9836    3.1209    0.0000 O   0  0  0  0  0  0  0  0  0  0  0  0
   19.1852    6.2524    0.0000 O   0  0  0  0  0  0  0  0  0  0  0  0
   20.5864    5.2343    0.0000 O   0  0  0  0  0  0  0  0  0  0  0  0
   20.2243    1.7892    0.0000 O   0  0  0  0  0  0  0  0  0  0  0  0
   10.9115   -0.7152    0.0000 N   0  0  0  0  0  0  0  0  0  0  0  0
   13.0816    0.7983    0.0000 N   0  0  0  0  0  0  0  0  0  0  0  0
    8.3292   -0.0107    0.0000 N   0  0  0  0  0  0  0  0  0  0  0  0
    7.7414    0.7983    0.0000 N   0  0  0  0  0  0  0  0  0  0  0  0
   15.6585    1.3983    0.0000 N   0  0  0  0  0  0  0  0  0  0  0  0
   17.8286    2.9118    0.0000 N   0  0  0  0  0  0  0  0  0  0  0  0
    6.1591    1.5028    0.0000 N   0  0  0  0  0  0  0  0  0  0  0  0
   20.4054    3.5118    0.0000 N   0  0  0  0  0  0  0  0  0  0  0  0
    9.9115   -0.7152    0.0000 C   0  0  1  0  0  0  0  0  0  0  0  0
   10.4115   -2.2540    0.0000 C   0  0  2  0  0  0  0  0  0  0  0  0
    9.6025   -1.6662    0.0000 C   0  0  0  0  0  0  0  0  0  0  0  0
   11.2206   -1.6662    0.0000 C   0  0  0  0  0  0  0  0  0  0  0  0
   11.4993    0.0939    0.0000 C   0  0  0  0  0  0  0  0  0  0  0  0
   12.4938   -0.0107    0.0000 C   0  0  2  0  0  0  0  0  0  0  0  0
    9.3238    0.0939    0.0000 C   0  0  0  0  0  0  0  0  0  0  0  0
   12.9006   -0.9242    0.0000 C   0  0  0  0  0  0  0  0  0  0  0  0
   14.6639    1.5028    0.0000 C   0  0  2  0  0  0  0  0  0  0  0  0
    9.5455   -3.7540    0.0000 C   0  0  0  0  0  0  0  0  0  0  0  0
   13.8951   -1.0287    0.0000 C   0  0  0  0  0  0  0  0  0  0  0  0
   12.3128   -1.7332    0.0000 C   0  0  0  0  0  0  0  0  0  0  0  0
   14.0761    0.6938    0.0000 C   0  0  0  0  0  0  0  0  0  0  0  0
   14.2572    2.4164    0.0000 C   0  0  2  0  0  0  0  0  0  0  0  0
   14.8450    3.2254    0.0000 C   0  0  0  0  0  0  0  0  0  0  0  0
    9.5455   -4.7540    0.0000 C   0  0  0  0  0  0  0  0  0  0  0  0
   13.2627    2.5209    0.0000 C   0  0  0  0  0  0  0  0  0  0  0  0
    8.1482    1.7119    0.0000 C   0  0  0  0  0  0  0  0  0  0  0  0
   16.2462    2.2073    0.0000 C   0  0  0  0  0  0  0  0  0  0  0  0
   14.4382    4.1389    0.0000 C   0  0  0  0  0  0  0  0  0  0  0  0
   17.2408    2.1028    0.0000 C   0  0  1  0  0  0  0  0  0  0  0  0
    6.7469    0.6938    0.0000 C   0  0  0  0  0  0  0  0  0  0  0  0
   10.4115   -5.2540    0.0000 C   0  0  0  0  0  0  0  0  0  0  0  0
    8.6795   -5.2540    0.0000 C   0  0  0  0  0  0  0  0  0  0  0  0
    7.5604    2.5209    0.0000 C   0  0  0  0  0  0  0  0  0  0  0  0
   17.6475    1.1892    0.0000 C   0  0  0  0  0  0  0  0  0  0  0  0
   10.4115   -6.2540    0.0000 C   0  0  0  0  0  0  0  0  0  0  0  0
    8.6795   -6.2540    0.0000 C   0  0  0  0  0  0  0  0  0  0  0  0
    7.9671    3.4345    0.0000 C   0  0  0  0  0  0  0  0  0  0  0  0
   18.6420    1.0847    0.0000 C   0  0  0  0  0  0  0  0  0  0  0  0
    9.5455   -6.7540    0.0000 C   0  0  0  0  0  0  0  0  0  0  0  0
   18.8231    2.8073    0.0000 C   0  0  0  0  0  0  0  0  0  0  0  0
    5.1646    1.3983    0.0000 C   0  0  0  0  0  0  0  0  0  0  0  0
   19.4109    3.6163    0.0000 C   0  0  2  0  0  0  0  0  0  0  0  0
   19.0488    0.1712    0.0000 C   0  0  0  0  0  0  0  0  0  0  0  0
   19.0041    4.5298    0.0000 C   0  0  0  0  0  0  0  0  0  0  0  0
    4.5768    2.2073    0.0000 C   0  0  0  0  0  0  0  0  0  0  0  0
   19.5919    5.3389    0.0000 C   0  0  0  0  0  0  0  0  0  0  0  0
   20.8121    2.5982    0.0000 C   0  0  0  0  0  0  0  0  0  0  0  0
   21.8066    2.4937    0.0000 C   0  0  0  0  0  0  0  0  0  0  0  0
    2.9945    2.9118    0.0000 C   0  0  0  0  0  0  0  0  0  0  0  0
    2.0000    2.8073    0.0000 C   0  0  0  0  0  0  0  0  0  0  0  0
   10.1930   -0.1627    0.0000 H   0  0  0  0  0  0  0  0  0  0  0  0
    9.8591   -2.5355    0.0000 H   0  0  0  0  0  0  0  0  0  0  0  0
    9.0361   -1.4140    0.0000 H   0  0  0  0  0  0  0  0  0  0  0  0
    9.2925   -2.2032    0.0000 H   0  0  0  0  0  0  0  0  0  0  0  0
   11.5306   -2.2032    0.0000 H   0  0  0  0  0  0  0  0  0  0  0  0
   11.7870   -1.4140    0.0000 H   0  0  0  0  0  0  0  0  0  0  0  0
   13.1104   -0.0755    0.0000 H   0  0  0  0  0  0  0  0  0  0  0  0
   12.2840   -0.8594    0.0000 H   0  0  0  0  0  0  0  0  0  0  0  0
   12.8295    1.3647    0.0000 H   0  0  0  0  0  0  0  0  0  0  0  0
   15.0284    2.0044    0.0000 H   0  0  0  0  0  0  0  0  0  0  0  0
    9.3335   -3.1714    0.0000 H   0  0  0  0  0  0  0  0  0  0  0  0
    8.9349   -3.8617    0.0000 H   0  0  0  0  0  0  0  0  0  0  0  0
   13.8303   -1.6454    0.0000 H   0  0  0  0  0  0  0  0  0  0  0  0
   14.5117   -1.0936    0.0000 H   0  0  0  0  0  0  0  0  0  0  0  0
   13.9599   -0.4121    0.0000 H   0  0  0  0  0  0  0  0  0  0  0  0
   11.8112   -1.3688    0.0000 H   0  0  0  0  0  0  0  0  0  0  0  0
   11.9484   -2.2348    0.0000 H   0  0  0  0  0  0  0  0  0  0  0  0
   12.8144   -2.0977    0.0000 H   0  0  0  0  0  0  0  0  0  0  0  0
    8.0770   -0.5771    0.0000 H   0  0  0  0  0  0  0  0  0  0  0  0
   13.8928    1.9148    0.0000 H   0  0  0  0  0  0  0  0  0  0  0  0
   15.2757    2.7794    0.0000 H   0  0  0  0  0  0  0  0  0  0  0  0
   15.3590    3.5721    0.0000 H   0  0  0  0  0  0  0  0  0  0  0  0
   13.3275    3.1375    0.0000 H   0  0  0  0  0  0  0  0  0  0  0  0
   12.6461    2.5857    0.0000 H   0  0  0  0  0  0  0  0  0  0  0  0
   13.1979    1.9043    0.0000 H   0  0  0  0  0  0  0  0  0  0  0  0
    8.6622    1.3652    0.0000 H   0  0  0  0  0  0  0  0  0  0  0  0
    8.5789    2.1579    0.0000 H   0  0  0  0  0  0  0  0  0  0  0  0
   16.9886    2.6692    0.0000 H   0  0  0  0  0  0  0  0  0  0  0  0
   15.0046    4.3911    0.0000 H   0  0  0  0  0  0  0  0  0  0  0  0
   14.1861    4.7053    0.0000 H   0  0  0  0  0  0  0  0  0  0  0  0
   13.8718    3.8868    0.0000 H   0  0  0  0  0  0  0  0  0  0  0  0
   10.9485   -4.9440    0.0000 H   0  0  0  0  0  0  0  0  0  0  0  0
    8.1426   -4.9440    0.0000 H   0  0  0  0  0  0  0  0  0  0  0  0
    7.0464    2.8676    0.0000 H   0  0  0  0  0  0  0  0  0  0  0  0
    7.1297    2.0749    0.0000 H   0  0  0  0  0  0  0  0  0  0  0  0
   17.0459    1.0393    0.0000 H   0  0  0  0  0  0  0  0  0  0  0  0
   17.6908    0.5708    0.0000 H   0  0  0  0  0  0  0  0  0  0  0  0
   16.6818    0.4200    0.0000 H   0  0  0  0  0  0  0  0  0  0  0  0
   17.5764    3.4782    0.0000 H   0  0  0  0  0  0  0  0  0  0  0  0
   10.9485   -6.5640    0.0000 H   0  0  0  0  0  0  0  0  0  0  0  0
    8.1426   -6.5640    0.0000 H   0  0  0  0  0  0  0  0  0  0  0  0
    6.4113    2.0692    0.0000 H   0  0  0  0  0  0  0  0  0  0  0  0
   19.2436    1.2347    0.0000 H   0  0  0  0  0  0  0  0  0  0  0  0
   18.5988    1.7032    0.0000 H   0  0  0  0  0  0  0  0  0  0  0  0
    8.5335    3.1823    0.0000 H   0  0  0  0  0  0  0  0  0  0  0  0
    8.2193    4.0008    0.0000 H   0  0  0  0  0  0  0  0  0  0  0  0
    7.4007    3.6866    0.0000 H   0  0  0  0  0  0  0  0  0  0  0  0
    9.5455   -7.3740    0.0000 H   0  0  0  0  0  0  0  0  0  0  0  0
    4.6074    1.1265    0.0000 H   0  0  0  0  0  0  0  0  0  0  0  0
    5.3355    0.8023    0.0000 H   0  0  0  0  0  0  0  0  0  0  0  0
   19.6630    3.0499    0.0000 H   0  0  0  0  0  0  0  0  0  0  0  0
   18.5734    4.9758    0.0000 H   0  0  0  0  0  0  0  0  0  0  0  0
   18.4901    4.1832    0.0000 H   0  0  0  0  0  0  0  0  0  0  0  0
   20.7698    4.0134    0.0000 H   0  0  0  0  0  0  0  0  0  0  0  0
   20.2955   -0.4998    0.0000 H   0  0  0  0  0  0  0  0  0  0  0  0
   21.7418    1.8771    0.0000 H   0  0  0  0  0  0  0  0  0  0  0  0
   22.4232    2.4289    0.0000 H   0  0  0  0  0  0  0  0  0  0  0  0
   21.8714    3.1103    0.0000 H   0  0  0  0  0  0  0  0  0  0  0  0
    3.5518    3.1836    0.0000 H   0  0  0  0  0  0  0  0  0  0  0  0
    2.8236    3.5078    0.0000 H   0  0  0  0  0  0  0  0  0  0  0  0
   19.5496    6.7540    0.0000 H   0  0  0  0  0  0  0  0  0  0  0  0
    1.9352    3.4239    0.0000 H   0  0  0  0  0  0  0  0  0  0  0  0
    1.3834    2.7425    0.0000 H   0  0  0  0  0  0  0  0  0  0  0  0
    2.0648    2.1907    0.0000 H   0  0  0  0  0  0  0  0  0  0  0  0
 25  1  1  6  0  0  0
  1 33  1  0  0  0  0
  2 28  2  0  0  0  0
  3 30  2  0  0  0  0
  4 36  2  0  0  0  0
  5 20  1  0  0  0  0
  5103  1  0  0  0  0
  6 42  2  0  0  0  0
  7 45  2  0  0  0  0
  8 55  2  0  0  0  0
  9 58  1  0  0  0  0
  9120  1  0  0  0  0
 10 58  2  0  0  0  0
 11 60  1  0  0  0  0
 11 64  1  0  0  0  0
 12 60  2  0  0  0  0
 13 61  1  0  0  0  0
 13126  1  0  0  0  0
 14 61  2  0  0  0  0
 15 62  2  0  0  0  0
 16 24  1  0  0  0  0
 16 27  1  0  0  0  0
 16 28  1  0  0  0  0
 29 17  1  1  0  0  0
 17 36  1  0  0  0  0
 17 74  1  0  0  0  0
 18 19  1  0  0  0  0
 18 30  1  0  0  0  0
 18 84  1  0  0  0  0
 19 41  1  0  0  0  0
 19 45  1  0  0  0  0
 32 20  1  6  0  0  0
 20 42  1  0  0  0  0
 44 21  1  6  0  0  0
 21 55  1  0  0  0  0
 21104  1  0  0  0  0
 22 45  1  0  0  0  0
 22 56  1  0  0  0  0
 22107  1  0  0  0  0
 57 23  1  6  0  0  0
 23 62  1  0  0  0  0
 23119  1  0  0  0  0
 24 26  1  0  0  0  0
 24 30  1  1  0  0  0
 24 66  1  0  0  0  0
 25 26  1  0  0  0  0
 25 27  1  0  0  0  0
 25 67  1  0  0  0  0
 26 68  1  0  0  0  0
 26 69  1  0  0  0  0
 27 70  1  0  0  0  0
 27 71  1  0  0  0  0
 28 29  1  0  0  0  0
 29 31  1  0  0  0  0
 29 72  1  0  0  0  0
 31 34  1  0  0  0  0
 31 35  1  0  0  0  0
 31 73  1  0  0  0  0
 32 36  1  0  0  0  0
 32 37  1  0  0  0  0
 32 75  1  0  0  0  0
 33 39  1  0  0  0  0
 33 76  1  0  0  0  0
 33 77  1  0  0  0  0
 34 78  1  0  0  0  0
 34 79  1  0  0  0  0
 34 80  1  0  0  0  0
 35 81  1  0  0  0  0
 35 82  1  0  0  0  0
 35 83  1  0  0  0  0
 37 38  1  0  0  0  0
 37 40  1  1  0  0  0
 37 85  1  0  0  0  0
 38 43  1  0  0  0  0
 38 86  1  0  0  0  0
 38 87  1  0  0  0  0
 39 46  2  0  0  0  0
 39 47  1  0  0  0  0
 40 88  1  0  0  0  0
 40 89  1  0  0  0  0
 40 90  1  0  0  0  0
 41 48  1  0  0  0  0
 41 91  1  0  0  0  0
 41 92  1  0  0  0  0
 42 44  1  0  0  0  0
 43 94  1  0  0  0  0
 43 95  1  0  0  0  0
 43 96  1  0  0  0  0
 44 49  1  0  0  0  0
 44 93  1  0  0  0  0
 46 50  1  0  0  0  0
 46 97  1  0  0  0  0
 47 51  2  0  0  0  0
 47 98  1  0  0  0  0
 48 52  1  0  0  0  0
 48 99  1  0  0  0  0
 48100  1  0  0  0  0
 49 53  1  0  0  0  0
 49101  1  0  0  0  0
 49102  1  0  0  0  0
 50 54  2  0  0  0  0
 50105  1  0  0  0  0
 51 54  1  0  0  0  0
 51106  1  0  0  0  0
 52110  1  0  0  0  0
 52111  1  0  0  0  0
 52112  1  0  0  0  0
 53 58  1  0  0  0  0
 53108  1  0  0  0  0
 53109  1  0  0  0  0
 54113  1  0  0  0  0
 55 57  1  0  0  0  0
 56 60  1  0  0  0  0
 56114  1  0  0  0  0
 56115  1  0  0  0  0
 57 59  1  0  0  0  0
 57116  1  0  0  0  0
 59 61  1  0  0  0  0
 59117  1  0  0  0  0
 59118  1  0  0  0  0
 62 63  1  0  0  0  0
 63121  1  0  0  0  0
 63122  1  0  0  0  0
 63123  1  0  0  0  0
 64 65  1  0  0  0  0
 64124  1  0  0  0  0
 64125  1  0  0  0  0
 65127  1  0  0  0  0
 65128  1  0  0  0  0
 65129  1  0  0  0  0
M  END
> <PUBCHEM_COMPOUND_CID>
500590
> <PUBCHEM_COMPOUND_CANONICALIZED>
1
> <PUBCHEM_CACTVS_COMPLEXITY>
1680
> <PUBCHEM_CACTVS_HBOND_ACCEPTOR>
15
> <PUBCHEM_CACTVS_HBOND_DONOR>
8
> <PUBCHEM_CACTVS_ROTATABLE_BOND>
26
> <PUBCHEM_CACTVS_SUBSKEYS>
AAADcfB//AAAAAAAAAAAAAAAAAAAAWAAAAAwAAAAAAAAAAABAAAAHgAcCAAADTzhmAYzCIPyBgCIAiHSGAACAAAgAAA+qIGICIiKZjqAsTiXcAA+1gOYqAe/1yIOAAAAAAAAAAAAAAAAAAAAAAAAAAAAAA==
> <PUBCHEM_IUPAC_OPENEYE_NAME>
(4R)-4-[[(2S)-2-acetamido-3-carboxy-propanoyl]amino]-5-[[(1S,2S)-1-[[(1S)-1-[(2S,4R)-4-benzyloxy-2-[[(2-ethoxy-2-oxo-ethyl)carbamoyl-propyl-amino]carbamoyl]pyrrolidine-1-carbonyl]-2-methyl-propyl]carbamoyl]-2-methyl-butyl]-hydroxy-amino]-5-oxo-pentanoic acid
> <PUBCHEM_IUPAC_CAS_NAME>
(4R)-4-[[(2S)-2-acetamido-3-carboxy-1-oxopropyl]amino]-5-[[(2S,3S)-1-[[(2S)-1-[(2S,4R)-2-[[2-[[(2-ethoxy-2-oxoethyl)amino]-oxomethyl]-2-propylhydrazinyl]-oxomethyl]-4-phenylmethoxy-1-pyrrolidinyl]-3-methyl-1-oxobutan-2-yl]amino]-3-methyl-1-oxopentan-2-yl]-hydroxyamino]-5-oxopentanoic acid
> <PUBCHEM_IUPAC_NAME_MARKUP>
(4<I>R</I>)-4-[[(2<I>S</I>)-2-acetamido-3-carboxypropanoyl]amino]-5-[[(2<I>S</I>,3<I>S</I>)-1-[[(2<I>S</I>)-1-[(2<I>S</I>,4<I>R</I>)-2-[[(2-ethoxy-2-oxoethyl)carbamoyl-propylamino]carbamoyl]-4-phenylmethoxypyrrolidin-1-yl]-3-methyl-1-oxobutan-2-yl]amino]-3-methyl-1-oxopentan-2-yl]-hydroxyamino]-5-oxopentanoic acid
> <PUBCHEM_IUPAC_NAME>
(4R)-4-[[(2S)-2-acetamido-3-carboxypropanoyl]amino]-5-[[(2S,3S)-1-[[(2S)-1-[(2S,4R)-2-[[(2-ethoxy-2-oxoethyl)carbamoyl-propylamino]carbamoyl]-4-phenylmethoxypyrrolidin-1-yl]-3-methyl-1-oxobutan-2-yl]amino]-3-methyl-1-oxopentan-2-yl]-hydroxyamino]-5-oxopentanoic acid
> <PUBCHEM_IUPAC_SYSTEMATIC_NAME>
(4R)-4-[[(2S)-2-acetamido-4-oxidanyl-4-oxidanylidene-butanoyl]amino]-5-[[(2S,3S)-1-[[(2S)-1-[(2S,4R)-2-[[(2-ethoxy-2-oxidanylidene-ethyl)carbamoyl-propyl-amino]carbamoyl]-4-phenylmethoxy-pyrrolidin-1-yl]-3-methyl-1-oxidanylidene-butan-2-yl]amino]-3-methyl-1-oxidanylidene-pentan-2-yl]-oxidanyl-amino]-5-oxidanylidene-pentanoic acid
> <PUBCHEM_IUPAC_TRADITIONAL_NAME>
(4R)-4-[[(2S)-2-acetamido-3-carboxy-propanoyl]amino]-5-[[(1S,2S)-1-[[(1S)-1-[(2S,4R)-4-benzoxy-2-[[(2-ethoxy-2-keto-ethyl)carbamoyl-propyl-amino]carbamoyl]pyrrolidine-1-carbonyl]-2-methyl-propyl]carbamoyl]-2-methyl-butyl]-hydroxy-amino]-5-keto-valeric acid
> <PUBCHEM_IUPAC_INCHI>
InChI=1S/C42H64N8O15/c1-8-18-49(42(62)43-21-34(56)64-10-3)47-38(58)31-19-28(65-23-27-14-12-11-13-15-27)22-48(31)41(61)35(24(4)5)46-39(59)36(25(6)9-2)50(63)40(60)29(16-17-32(52)53)45-37(57)30(20-33(54)55)44-26(7)51/h11-15,24-25,28-31,35-36,63H,8-10,16-23H2,1-7H3,(H,43,62)(H,44,51)(H,45,57)(H,46,59)(H,47,58)(H,52,53)(H,54,55)/t25-,28+,29+,30-,31-,35-,36-/m0/s1
> <PUBCHEM_IUPAC_INCHIKEY>
FCWMKESEDWZNRH-XNIFPMTCSA-N
> <PUBCHEM_XLOGP3_AA>
0.9
> <PUBCHEM_EXACT_MASS>
920.44911336
> <PUBCHEM_MOLECULAR_FORMULA>
C42H64N8O15
> <PUBCHEM_MOLECULAR_WEIGHT>
921.0
> <PUBCHEM_OPENEYE_CAN_SMILES>
CCCN(C(=O)NCC(=O)OCC)NC(=O)C1CC(CN1C(=O)C(C(C)C)NC(=O)C(C(C)CC)N(C(=O)C(CCC(=O)O)NC(=O)C(CC(=O)O)NC(=O)C)O)OCC2=CC=CC=C2
> <PUBCHEM_OPENEYE_ISO_SMILES>
CCCN(C(=O)NCC(=O)OCC)NC(=O)[C@@H]1C[C@H](CN1C(=O)[C@H](C(C)C)NC(=O)[C@H]([C@@H](C)CC)N(C(=O)[C@@H](CCC(=O)O)NC(=O)[C@H](CC(=O)O)NC(=O)C)O)OCC2=CC=CC=C2
> <PUBCHEM_CACTVS_TPSA>
320
> <PUBCHEM_MONOISOTOPIC_WEIGHT>
920.44911336
> <PUBCHEM_TOTAL_CHARGE>
0
> <PUBCHEM_HEAVY_ATOM_COUNT>
65
> <PUBCHEM_ATOM_DEF_STEREO_COUNT>
7
> <PUBCHEM_ATOM_UDEF_STEREO_COUNT>
0
> <PUBCHEM_BOND_DEF_STEREO_COUNT>
0
> <PUBCHEM_BOND_UDEF_STEREO_COUNT>
0
> <PUBCHEM_ISOTOPIC_ATOM_COUNT>
0
> <PUBCHEM_COMPONENT_COUNT>
1
> <PUBCHEM_CACTVS_TAUTO_COUNT>
-1
> <PUBCHEM_COORDINATE_TYPE>
1
5
255
> <PUBCHEM_BONDANNOTATIONS>
25  1  6
29  17  5
32  20  6
44  21  6
57  23  6
24  30  5
37  40  5
39  46  8
39  47  8
46  50  8
47  51  8
50  54  8
51  54  8
$$$$
