500578
  -OEChem-10302200282D
115116  0     1  0  0  0  0  0999 V2000
    6.2524   -3.2540    0.0000 O   0  0  0  0  0  0  0  0  0  0  0  0
    6.9334    1.0074    0.0000 O   0  0  0  0  0  0  0  0  0  0  0  0
    5.5714    1.0074    0.0000 O   0  0  0  0  0  0  0  0  0  0  0  0
   10.3238   -0.2197    0.0000 O   0  0  0  0  0  0  0  0  0  0  0  0
    2.0000    1.5028    0.0000 O   0  0  0  0  0  0  0  0  0  0  0  0
   11.6804    3.1209    0.0000 O   0  0  0  0  0  0  0  0  0  0  0  0
   15.0707    1.8937    0.0000 O   0  0  0  0  0  0  0  0  0  0  0  0
   15.8841    0.0666    0.0000 O   0  0  0  0  0  0  0  0  0  0  0  0
   14.3018   -0.6378    0.0000 O   0  0  0  0  0  0  0  0  0  0  0  0
   15.0260    6.2524    0.0000 O   0  0  0  0  0  0  0  0  0  0  0  0
   16.4273    5.2343    0.0000 O   0  0  0  0  0  0  0  0  0  0  0  0
   16.0652    1.7892    0.0000 O   0  0  0  0  0  0  0  0  0  0  0  0
    6.7524   -0.7152    0.0000 N   0  0  0  0  0  0  0  0  0  0  0  0
    8.9225    0.7983    0.0000 N   0  0  0  0  0  0  0  0  0  0  0  0
    4.1701   -0.0107    0.0000 N   0  0  0  0  0  0  0  0  0  0  0  0
   11.4993    1.3983    0.0000 N   0  0  0  0  0  0  0  0  0  0  0  0
   13.6694    2.9118    0.0000 N   0  0  0  0  0  0  0  0  0  0  0  0
   16.2462    3.5118    0.0000 N   0  0  0  0  0  0  0  0  0  0  0  0
    5.7524   -0.7152    0.0000 C   0  0  1  0  0  0  0  0  0  0  0  0
    6.2524   -2.2540    0.0000 C   0  0  2  0  0  0  0  0  0  0  0  0
    5.4434   -1.6662    0.0000 C   0  0  0  0  0  0  0  0  0  0  0  0
    7.0614   -1.6662    0.0000 C   0  0  0  0  0  0  0  0  0  0  0  0
    7.3402    0.0939    0.0000 C   0  0  0  0  0  0  0  0  0  0  0  0
    8.3347   -0.0107    0.0000 C   0  0  2  0  0  0  0  0  0  0  0  0
    5.1646    0.0939    0.0000 C   0  0  0  0  0  0  0  0  0  0  0  0
    8.7414   -0.9242    0.0000 C   0  0  0  0  0  0  0  0  0  0  0  0
   10.5048    1.5028    0.0000 C   0  0  2  0  0  0  0  0  0  0  0  0
    5.3864   -3.7540    0.0000 C   0  0  0  0  0  0  0  0  0  0  0  0
    9.7360   -1.0287    0.0000 C   0  0  0  0  0  0  0  0  0  0  0  0
    8.1537   -1.7332    0.0000 C   0  0  0  0  0  0  0  0  0  0  0  0
    9.9170    0.6938    0.0000 C   0  0  0  0  0  0  0  0  0  0  0  0
    3.5823    0.7983    0.0000 C   0  0  3  0  0  0  0  0  0  0  0  0
   10.0981    2.4164    0.0000 C   0  0  2  0  0  0  0  0  0  0  0  0
    3.9890    1.7119    0.0000 C   0  0  0  0  0  0  0  0  0  0  0  0
   10.6858    3.2254    0.0000 C   0  0  0  0  0  0  0  0  0  0  0  0
    5.3864   -4.7540    0.0000 C   0  0  0  0  0  0  0  0  0  0  0  0
    9.1035    2.5209    0.0000 C   0  0  0  0  0  0  0  0  0  0  0  0
    3.4013    2.5209    0.0000 C   0  0  0  0  0  0  0  0  0  0  0  0
    2.5878    0.6938    0.0000 C   0  0  0  0  0  0  0  0  0  0  0  0
   12.0871    2.2073    0.0000 C   0  0  0  0  0  0  0  0  0  0  0  0
   10.2791    4.1389    0.0000 C   0  0  0  0  0  0  0  0  0  0  0  0
   13.0816    2.1028    0.0000 C   0  0  1  0  0  0  0  0  0  0  0  0
    6.2524   -5.2540    0.0000 C   0  0  0  0  0  0  0  0  0  0  0  0
    4.5204   -5.2540    0.0000 C   0  0  0  0  0  0  0  0  0  0  0  0
   13.4884    1.1892    0.0000 C   0  0  0  0  0  0  0  0  0  0  0  0
    3.8080    3.4345    0.0000 C   0  0  0  0  0  0  0  0  0  0  0  0
    6.2524   -6.2540    0.0000 C   0  0  0  0  0  0  0  0  0  0  0  0
    4.5204   -6.2540    0.0000 C   0  0  0  0  0  0  0  0  0  0  0  0
   14.4829    1.0847    0.0000 C   0  0  0  0  0  0  0  0  0  0  0  0
    5.3864   -6.7540    0.0000 C   0  0  0  0  0  0  0  0  0  0  0  0
   14.6639    2.8073    0.0000 C   0  0  0  0  0  0  0  0  0  0  0  0
   15.2517    3.6163    0.0000 C   0  0  2  0  0  0  0  0  0  0  0  0
   14.8896    0.1712    0.0000 C   0  0  0  0  0  0  0  0  0  0  0  0
   14.8450    4.5298    0.0000 C   0  0  0  0  0  0  0  0  0  0  0  0
   15.4328    5.3389    0.0000 C   0  0  0  0  0  0  0  0  0  0  0  0
   16.6530    2.5982    0.0000 C   0  0  0  0  0  0  0  0  0  0  0  0
   17.6475    2.4937    0.0000 C   0  0  0  0  0  0  0  0  0  0  0  0
    6.0339   -0.1627    0.0000 H   0  0  0  0  0  0  0  0  0  0  0  0
    5.7000   -2.5355    0.0000 H   0  0  0  0  0  0  0  0  0  0  0  0
    4.8770   -1.4140    0.0000 H   0  0  0  0  0  0  0  0  0  0  0  0
    5.1334   -2.2032    0.0000 H   0  0  0  0  0  0  0  0  0  0  0  0
    7.3714   -2.2032    0.0000 H   0  0  0  0  0  0  0  0  0  0  0  0
    7.6278   -1.4140    0.0000 H   0  0  0  0  0  0  0  0  0  0  0  0
    8.0825    0.5557    0.0000 H   0  0  0  0  0  0  0  0  0  0  0  0
    9.1059   -0.4226    0.0000 H   0  0  0  0  0  0  0  0  0  0  0  0
    8.6703    1.3647    0.0000 H   0  0  0  0  0  0  0  0  0  0  0  0
    3.9179   -0.5771    0.0000 H   0  0  0  0  0  0  0  0  0  0  0  0
   10.7570    0.9364    0.0000 H   0  0  0  0  0  0  0  0  0  0  0  0
    5.1743   -3.1714    0.0000 H   0  0  0  0  0  0  0  0  0  0  0  0
    4.7758   -3.8617    0.0000 H   0  0  0  0  0  0  0  0  0  0  0  0
    9.6712   -1.6454    0.0000 H   0  0  0  0  0  0  0  0  0  0  0  0
   10.3526   -1.0936    0.0000 H   0  0  0  0  0  0  0  0  0  0  0  0
    9.8008   -0.4121    0.0000 H   0  0  0  0  0  0  0  0  0  0  0  0
    7.6521   -1.3688    0.0000 H   0  0  0  0  0  0  0  0  0  0  0  0
    7.7892   -2.2348    0.0000 H   0  0  0  0  0  0  0  0  0  0  0  0
    8.6552   -2.0977    0.0000 H   0  0  0  0  0  0  0  0  0  0  0  0
    3.3301    0.2319    0.0000 H   0  0  0  0  0  0  0  0  0  0  0  0
    9.8459    2.9828    0.0000 H   0  0  0  0  0  0  0  0  0  0  0  0
    4.5030    1.3652    0.0000 H   0  0  0  0  0  0  0  0  0  0  0  0
    4.4197    2.1579    0.0000 H   0  0  0  0  0  0  0  0  0  0  0  0
   11.1165    2.7794    0.0000 H   0  0  0  0  0  0  0  0  0  0  0  0
   11.1999    3.5721    0.0000 H   0  0  0  0  0  0  0  0  0  0  0  0
   11.7515    0.8319    0.0000 H   0  0  0  0  0  0  0  0  0  0  0  0
    9.1684    3.1375    0.0000 H   0  0  0  0  0  0  0  0  0  0  0  0
    8.4869    2.5857    0.0000 H   0  0  0  0  0  0  0  0  0  0  0  0
    9.0387    1.9043    0.0000 H   0  0  0  0  0  0  0  0  0  0  0  0
    2.8873    2.8676    0.0000 H   0  0  0  0  0  0  0  0  0  0  0  0
    2.9706    2.0749    0.0000 H   0  0  0  0  0  0  0  0  0  0  0  0
    2.3356    0.1274    0.0000 H   0  0  0  0  0  0  0  0  0  0  0  0
   10.8455    4.3911    0.0000 H   0  0  0  0  0  0  0  0  0  0  0  0
   10.0269    4.7053    0.0000 H   0  0  0  0  0  0  0  0  0  0  0  0
    9.7127    3.8868    0.0000 H   0  0  0  0  0  0  0  0  0  0  0  0
   12.8295    2.6692    0.0000 H   0  0  0  0  0  0  0  0  0  0  0  0
    6.7893   -4.9440    0.0000 H   0  0  0  0  0  0  0  0  0  0  0  0
    3.9834   -4.9440    0.0000 H   0  0  0  0  0  0  0  0  0  0  0  0
   12.8868    1.0393    0.0000 H   0  0  0  0  0  0  0  0  0  0  0  0
   13.5316    0.5708    0.0000 H   0  0  0  0  0  0  0  0  0  0  0  0
    4.3744    3.1823    0.0000 H   0  0  0  0  0  0  0  0  0  0  0  0
    4.0602    4.0008    0.0000 H   0  0  0  0  0  0  0  0  0  0  0  0
    3.2416    3.6866    0.0000 H   0  0  0  0  0  0  0  0  0  0  0  0
   13.4172    3.4782    0.0000 H   0  0  0  0  0  0  0  0  0  0  0  0
    6.7893   -6.5640    0.0000 H   0  0  0  0  0  0  0  0  0  0  0  0
    3.9834   -6.5640    0.0000 H   0  0  0  0  0  0  0  0  0  0  0  0
   15.0845    1.2347    0.0000 H   0  0  0  0  0  0  0  0  0  0  0  0
   14.4396    1.7032    0.0000 H   0  0  0  0  0  0  0  0  0  0  0  0
    5.3864   -7.3740    0.0000 H   0  0  0  0  0  0  0  0  0  0  0  0
   15.5039    3.0499    0.0000 H   0  0  0  0  0  0  0  0  0  0  0  0
   14.4143    4.9758    0.0000 H   0  0  0  0  0  0  0  0  0  0  0  0
   14.3310    4.1832    0.0000 H   0  0  0  0  0  0  0  0  0  0  0  0
   16.6107    4.0134    0.0000 H   0  0  0  0  0  0  0  0  0  0  0  0
   16.1363   -0.4998    0.0000 H   0  0  0  0  0  0  0  0  0  0  0  0
   17.5827    1.8771    0.0000 H   0  0  0  0  0  0  0  0  0  0  0  0
   18.2641    2.4289    0.0000 H   0  0  0  0  0  0  0  0  0  0  0  0
   17.7123    3.1103    0.0000 H   0  0  0  0  0  0  0  0  0  0  0  0
   15.3905    6.7540    0.0000 H   0  0  0  0  0  0  0  0  0  0  0  0
 20  1  1  6  0  0  0
  1 28  1  0  0  0  0
  2 23  2  0  0  0  0
  3 25  2  0  0  0  0
  4 31  2  0  0  0  0
  5 39  2  0  0  0  0
  6 40  2  0  0  0  0
  7 51  2  0  0  0  0
  8 53  1  0  0  0  0
  8111  1  0  0  0  0
  9 53  2  0  0  0  0
 10 55  1  0  0  0  0
 10115  1  0  0  0  0
 11 55  2  0  0  0  0
 12 56  2  0  0  0  0
 13 19  1  0  0  0  0
 13 22  1  0  0  0  0
 13 23  1  0  0  0  0
 24 14  1  1  0  0  0
 14 31  1  0  0  0  0
 14 66  1  0  0  0  0
 15 25  1  0  0  0  0
 15 32  1  0  0  0  0
 15 67  1  0  0  0  0
 27 16  1  6  0  0  0
 16 40  1  0  0  0  0
 16 83  1  0  0  0  0
 42 17  1  6  0  0  0
 17 51  1  0  0  0  0
 17101  1  0  0  0  0
 52 18  1  6  0  0  0
 18 56  1  0  0  0  0
 18110  1  0  0  0  0
 19 21  1  0  0  0  0
 19 25  1  1  0  0  0
 19 58  1  0  0  0  0
 20 21  1  0  0  0  0
 20 22  1  0  0  0  0
 20 59  1  0  0  0  0
 21 60  1  0  0  0  0
 21 61  1  0  0  0  0
 22 62  1  0  0  0  0
 22 63  1  0  0  0  0
 23 24  1  0  0  0  0
 24 26  1  0  0  0  0
 24 64  1  0  0  0  0
 26 29  1  0  0  0  0
 26 30  1  0  0  0  0
 26 65  1  0  0  0  0
 27 31  1  0  0  0  0
 27 33  1  0  0  0  0
 27 68  1  0  0  0  0
 28 36  1  0  0  0  0
 28 69  1  0  0  0  0
 28 70  1  0  0  0  0
 29 71  1  0  0  0  0
 29 72  1  0  0  0  0
 29 73  1  0  0  0  0
 30 74  1  0  0  0  0
 30 75  1  0  0  0  0
 30 76  1  0  0  0  0
 32 34  1  0  0  0  0
 32 39  1  0  0  0  0
 32 77  1  0  0  0  0
 33 35  1  0  0  0  0
 33 37  1  1  0  0  0
 33 78  1  0  0  0  0
 34 38  1  0  0  0  0
 34 79  1  0  0  0  0
 34 80  1  0  0  0  0
 35 41  1  0  0  0  0
 35 81  1  0  0  0  0
 35 82  1  0  0  0  0
 36 43  2  0  0  0  0
 36 44  1  0  0  0  0
 37 84  1  0  0  0  0
 37 85  1  0  0  0  0
 37 86  1  0  0  0  0
 38 46  1  0  0  0  0
 38 87  1  0  0  0  0
 38 88  1  0  0  0  0
 39 89  1  0  0  0  0
 40 42  1  0  0  0  0
 41 90  1  0  0  0  0
 41 91  1  0  0  0  0
 41 92  1  0  0  0  0
 42 45  1  0  0  0  0
 42 93  1  0  0  0  0
 43 47  1  0  0  0  0
 43 94  1  0  0  0  0
 44 48  2  0  0  0  0
 44 95  1  0  0  0  0
 45 49  1  0  0  0  0
 45 96  1  0  0  0  0
 45 97  1  0  0  0  0
 46 98  1  0  0  0  0
 46 99  1  0  0  0  0
 46100  1  0  0  0  0
 47 50  2  0  0  0  0
 47102  1  0  0  0  0
 48 50  1  0  0  0  0
 48103  1  0  0  0  0
 49 53  1  0  0  0  0
 49104  1  0  0  0  0
 49105  1  0  0  0  0
 50106  1  0  0  0  0
 51 52  1  0  0  0  0
 52 54  1  0  0  0  0
 52107  1  0  0  0  0
 54 55  1  0  0  0  0
 54108  1  0  0  0  0
 54109  1  0  0  0  0
 56 57  1  0  0  0  0
 57112  1  0  0  0  0
 57113  1  0  0  0  0
 57114  1  0  0  0  0
M  END
> <PUBCHEM_COMPOUND_CID>
500578
> <PUBCHEM_COMPOUND_CANONICALIZED>
1
> <PUBCHEM_CACTVS_COMPLEXITY>
1420
> <PUBCHEM_CACTVS_HBOND_ACCEPTOR>
12
> <PUBCHEM_CACTVS_HBOND_DONOR>
7
> <PUBCHEM_CACTVS_ROTATABLE_BOND>
24
> <PUBCHEM_CACTVS_SUBSKEYS>
AAADcfB/vAAAAAAAAAAAAAAAAAAAAWAAAAAwAAAAAAAAAAABAAAAHgAQCAAADTzhmAYyCIPABgCIAinSmAACAAAgAAAIiIGICIgKZjqAsTiXcAAm1gGYqAe/1yIOAAAAAAAAAAAAAAAAAAAAAAAAAAAAAA==
> <PUBCHEM_IUPAC_OPENEYE_NAME>
(4R)-4-[[(2S)-2-acetamido-3-carboxy-propanoyl]amino]-5-[[(1S,2S)-1-[[(1S)-1-[(2S,4R)-4-benzyloxy-2-(1-formylbutylcarbamoyl)pyrrolidine-1-carbonyl]-2-methyl-propyl]carbamoyl]-2-methyl-butyl]amino]-5-oxo-pentanoic acid
> <PUBCHEM_IUPAC_CAS_NAME>
(4R)-4-[[(2S)-2-acetamido-3-carboxy-1-oxopropyl]amino]-5-[[(2S,3S)-3-methyl-1-[[(2S)-3-methyl-1-oxo-1-[(2S,4R)-2-[oxo-(1-oxopentan-2-ylamino)methyl]-4-phenylmethoxy-1-pyrrolidinyl]butan-2-yl]amino]-1-oxopentan-2-yl]amino]-5-oxopentanoic acid
> <PUBCHEM_IUPAC_NAME_MARKUP>
(4<I>R</I>)-4-[[(2<I>S</I>)-2-acetamido-3-carboxypropanoyl]amino]-5-[[(2<I>S</I>,3<I>S</I>)-3-methyl-1-[[(2<I>S</I>)-3-methyl-1-oxo-1-[(2<I>S</I>,4<I>R</I>)-2-(1-oxopentan-2-ylcarbamoyl)-4-phenylmethoxypyrrolidin-1-yl]butan-2-yl]amino]-1-oxopentan-2-yl]amino]-5-oxopentanoic acid
> <PUBCHEM_IUPAC_NAME>
(4R)-4-[[(2S)-2-acetamido-3-carboxypropanoyl]amino]-5-[[(2S,3S)-3-methyl-1-[[(2S)-3-methyl-1-oxo-1-[(2S,4R)-2-(1-oxopentan-2-ylcarbamoyl)-4-phenylmethoxypyrrolidin-1-yl]butan-2-yl]amino]-1-oxopentan-2-yl]amino]-5-oxopentanoic acid
> <PUBCHEM_IUPAC_SYSTEMATIC_NAME>
(4R)-4-[[(2S)-2-acetamido-4-oxidanyl-4-oxidanylidene-butanoyl]amino]-5-[[(2S,3S)-3-methyl-1-[[(2S)-3-methyl-1-oxidanylidene-1-[(2S,4R)-2-(1-oxidanylidenepentan-2-ylcarbamoyl)-4-phenylmethoxy-pyrrolidin-1-yl]butan-2-yl]amino]-1-oxidanylidene-pentan-2-yl]amino]-5-oxidanylidene-pentanoic acid
> <PUBCHEM_IUPAC_TRADITIONAL_NAME>
(4R)-4-[[(2S)-2-acetamido-3-carboxy-propanoyl]amino]-5-[[(1S,2S)-1-[[(1S)-1-[(2S,4R)-4-benzoxy-2-(1-formylbutylcarbamoyl)pyrrolidine-1-carbonyl]-2-methyl-propyl]carbamoyl]-2-methyl-butyl]amino]-5-keto-valeric acid
> <PUBCHEM_IUPAC_INCHI>
InChI=1S/C39H58N6O12/c1-7-12-26(20-46)41-37(54)30-17-27(57-21-25-13-10-9-11-14-25)19-45(30)39(56)33(22(3)4)43-38(55)34(23(5)8-2)44-35(52)28(15-16-31(48)49)42-36(53)29(18-32(50)51)40-24(6)47/h9-11,13-14,20,22-23,26-30,33-34H,7-8,12,15-19,21H2,1-6H3,(H,40,47)(H,41,54)(H,42,53)(H,43,55)(H,44,52)(H,48,49)(H,50,51)/t23-,26?,27+,28+,29-,30-,33-,34-/m0/s1
> <PUBCHEM_IUPAC_INCHIKEY>
MIKSGEMXEUDUGC-WQXMZFTISA-N
> <PUBCHEM_XLOGP3_AA>
1.4
> <PUBCHEM_EXACT_MASS>
802.41127131
> <PUBCHEM_MOLECULAR_FORMULA>
C39H58N6O12
> <PUBCHEM_MOLECULAR_WEIGHT>
802.9
> <PUBCHEM_OPENEYE_CAN_SMILES>
CCCC(C=O)NC(=O)C1CC(CN1C(=O)C(C(C)C)NC(=O)C(C(C)CC)NC(=O)C(CCC(=O)O)NC(=O)C(CC(=O)O)NC(=O)C)OCC2=CC=CC=C2
> <PUBCHEM_OPENEYE_ISO_SMILES>
CCCC(C=O)NC(=O)[C@@H]1C[C@H](CN1C(=O)[C@H](C(C)C)NC(=O)[C@H]([C@@H](C)CC)NC(=O)[C@@H](CCC(=O)O)NC(=O)[C@H](CC(=O)O)NC(=O)C)OCC2=CC=CC=C2
> <PUBCHEM_CACTVS_TPSA>
267
> <PUBCHEM_MONOISOTOPIC_WEIGHT>
802.41127131
> <PUBCHEM_TOTAL_CHARGE>
0
> <PUBCHEM_HEAVY_ATOM_COUNT>
57
> <PUBCHEM_ATOM_DEF_STEREO_COUNT>
7
> <PUBCHEM_ATOM_UDEF_STEREO_COUNT>
1
> <PUBCHEM_BOND_DEF_STEREO_COUNT>
0
> <PUBCHEM_BOND_UDEF_STEREO_COUNT>
0
> <PUBCHEM_ISOTOPIC_ATOM_COUNT>
0
> <PUBCHEM_COMPONENT_COUNT>
1
> <PUBCHEM_CACTVS_TAUTO_COUNT>
-1
> <PUBCHEM_COORDINATE_TYPE>
1
5
255
> <PUBCHEM_BONDANNOTATIONS>
20  1  6
24  14  5
27  16  6
42  17  6
52  18  6
19  25  5
32  34  3
33  37  5
36  43  8
36  44  8
43  47  8
44  48  8
47  50  8
48  50  8
$$$$
