500562
  -OEChem-10302200282D
 90 91  0     1  0  0  0  0  0999 V2000
   13.4546    6.4957    0.0000 O   0  0  0  0  0  0  0  0  0  0  0  0
   14.6136    5.2085    0.0000 O   0  0  0  0  0  0  0  0  0  0  0  0
   11.4331    3.5101    0.0000 O   0  0  0  0  0  0  0  0  0  0  0  0
   10.3312    2.7095    0.0000 O   0  0  0  0  0  0  0  0  0  0  0  0
    6.8671    1.7095    0.0000 O   0  0  0  0  0  0  0  0  0  0  0  0
    7.7331   -1.7905    0.0000 O   0  0  0  0  0  0  0  0  0  0  0  0
    4.2690   -2.7905    0.0000 O   0  0  0  0  0  0  0  0  0  0  0  0
    2.5369   -1.7905    0.0000 O   0  0  0  0  0  0  0  0  0  0  0  0
    3.4030   -0.2905    0.0000 O   0  0  0  0  0  0  0  0  0  0  0  0
    3.4030   -6.2905    0.0000 O   0  0  0  0  0  0  0  0  0  0  0  0
    5.1350   -6.2905    0.0000 O   0  0  0  0  0  0  0  0  0  0  0  0
   11.9684    5.1574    0.0000 N   0  0  0  0  0  0  0  0  0  0  0  0
    9.4651    4.2095    0.0000 N   0  0  0  0  0  0  0  0  0  0  0  0
    8.5991    1.7095    0.0000 N   0  0  0  0  0  0  0  0  0  0  0  0
    6.8671   -0.2905    0.0000 N   0  0  0  0  0  0  0  0  0  0  0  0
    6.0010   -2.7905    0.0000 N   0  0  0  0  0  0  0  0  0  0  0  0
    6.0010   -4.7905    0.0000 N   0  0  0  0  0  0  0  0  0  0  0  0
   12.9194    4.8484    0.0000 C   0  0  0  0  0  0  0  0  0  0  0  0
   12.6104    3.8973    0.0000 C   0  0  0  0  0  0  0  0  0  0  0  0
   13.5885    4.1052    0.0000 C   0  0  0  0  0  0  0  0  0  0  0  0
   10.2742    4.7973    0.0000 C   0  0  2  0  0  0  0  0  0  0  0  0
   11.2252    4.4883    0.0000 C   0  0  0  0  0  0  0  0  0  0  0  0
    9.9651    5.7483    0.0000 C   0  0  0  0  0  0  0  0  0  0  0  0
    8.9651    5.7483    0.0000 C   0  0  0  0  0  0  0  0  0  0  0  0
    8.6561    4.7973    0.0000 C   0  0  0  0  0  0  0  0  0  0  0  0
    9.4651    3.2095    0.0000 C   0  0  0  0  0  0  0  0  0  0  0  0
    8.5991    2.7095    0.0000 C   0  0  2  0  0  0  0  0  0  0  0  0
    7.7331    3.2095    0.0000 C   0  0  0  0  0  0  0  0  0  0  0  0
    6.8671    2.7095    0.0000 C   0  0  0  0  0  0  0  0  0  0  0  0
    7.7331    4.2095    0.0000 C   0  0  0  0  0  0  0  0  0  0  0  0
    7.7331    1.2095    0.0000 C   0  0  0  0  0  0  0  0  0  0  0  0
    7.7331    0.2095    0.0000 C   0  0  2  0  0  0  0  0  0  0  0  0
    8.5991   -0.2905    0.0000 C   0  0  0  0  0  0  0  0  0  0  0  0
    8.5991   -1.2905    0.0000 C   0  0  0  0  0  0  0  0  0  0  0  0
    9.4651    0.2095    0.0000 C   0  0  0  0  0  0  0  0  0  0  0  0
    6.8671   -1.2905    0.0000 C   0  0  0  0  0  0  0  0  0  0  0  0
    6.0010   -1.7905    0.0000 C   0  0  2  0  0  0  0  0  0  0  0  0
    5.1350   -1.2905    0.0000 C   0  0  0  0  0  0  0  0  0  0  0  0
    4.2690   -1.7905    0.0000 C   0  0  0  0  0  0  0  0  0  0  0  0
    5.1350   -3.2905    0.0000 C   0  0  0  0  0  0  0  0  0  0  0  0
    5.1350   -4.2905    0.0000 C   0  0  2  0  0  0  0  0  0  0  0  0
    3.4030   -1.2905    0.0000 C   0  0  0  0  0  0  0  0  0  0  0  0
    4.2690   -4.7905    0.0000 C   0  0  0  0  0  0  0  0  0  0  0  0
    4.2690   -5.7905    0.0000 C   0  0  0  0  0  0  0  0  0  0  0  0
   13.6626    5.5175    0.0000 B   0  0  0  0  0  0  0  0  0  0  0  0
   11.9964    3.9836    0.0000 H   0  0  0  0  0  0  0  0  0  0  0  0
   12.6320    3.2777    0.0000 H   0  0  0  0  0  0  0  0  0  0  0  0
   13.8208    3.5304    0.0000 H   0  0  0  0  0  0  0  0  0  0  0  0
   14.1143    4.4338    0.0000 H   0  0  0  0  0  0  0  0  0  0  0  0
   11.8395    5.7638    0.0000 H   0  0  0  0  0  0  0  0  0  0  0  0
   10.3711    4.1849    0.0000 H   0  0  0  0  0  0  0  0  0  0  0  0
   10.5716    5.8772    0.0000 H   0  0  0  0  0  0  0  0  0  0  0  0
    9.9003    6.3649    0.0000 H   0  0  0  0  0  0  0  0  0  0  0  0
    9.0300    6.3649    0.0000 H   0  0  0  0  0  0  0  0  0  0  0  0
    8.3587    5.8772    0.0000 H   0  0  0  0  0  0  0  0  0  0  0  0
    8.0897    5.0494    0.0000 H   0  0  0  0  0  0  0  0  0  0  0  0
    8.3461    4.2603    0.0000 H   0  0  0  0  0  0  0  0  0  0  0  0
    9.1360    2.3995    0.0000 H   0  0  0  0  0  0  0  0  0  0  0  0
   13.9154    6.9105    0.0000 H   0  0  0  0  0  0  0  0  0  0  0  0
   15.0744    5.6234    0.0000 H   0  0  0  0  0  0  0  0  0  0  0  0
    7.7331    2.5895    0.0000 H   0  0  0  0  0  0  0  0  0  0  0  0
    9.1360    1.3995    0.0000 H   0  0  0  0  0  0  0  0  0  0  0  0
    6.5571    3.2464    0.0000 H   0  0  0  0  0  0  0  0  0  0  0  0
    6.3301    2.3995    0.0000 H   0  0  0  0  0  0  0  0  0  0  0  0
    7.1771    2.1726    0.0000 H   0  0  0  0  0  0  0  0  0  0  0  0
    8.3531    4.2095    0.0000 H   0  0  0  0  0  0  0  0  0  0  0  0
    7.7331    4.8295    0.0000 H   0  0  0  0  0  0  0  0  0  0  0  0
    7.1131    4.2095    0.0000 H   0  0  0  0  0  0  0  0  0  0  0  0
    7.7331   -0.4105    0.0000 H   0  0  0  0  0  0  0  0  0  0  0  0
    8.5991    0.3295    0.0000 H   0  0  0  0  0  0  0  0  0  0  0  0
    6.3301    0.0195    0.0000 H   0  0  0  0  0  0  0  0  0  0  0  0
    7.9791   -1.2905    0.0000 H   0  0  0  0  0  0  0  0  0  0  0  0
    8.5991   -1.9105    0.0000 H   0  0  0  0  0  0  0  0  0  0  0  0
    9.2191   -1.2905    0.0000 H   0  0  0  0  0  0  0  0  0  0  0  0
    9.7751   -0.3274    0.0000 H   0  0  0  0  0  0  0  0  0  0  0  0
   10.0021    0.5195    0.0000 H   0  0  0  0  0  0  0  0  0  0  0  0
    9.1551    0.7464    0.0000 H   0  0  0  0  0  0  0  0  0  0  0  0
    6.5380   -2.1005    0.0000 H   0  0  0  0  0  0  0  0  0  0  0  0
    5.5335   -0.8156    0.0000 H   0  0  0  0  0  0  0  0  0  0  0  0
    4.7365   -0.8156    0.0000 H   0  0  0  0  0  0  0  0  0  0  0  0
    6.5380   -3.1005    0.0000 H   0  0  0  0  0  0  0  0  0  0  0  0
    3.8705   -2.2655    0.0000 H   0  0  0  0  0  0  0  0  0  0  0  0
    4.6675   -2.2655    0.0000 H   0  0  0  0  0  0  0  0  0  0  0  0
    5.1350   -4.9105    0.0000 H   0  0  0  0  0  0  0  0  0  0  0  0
    4.0569   -4.2079    0.0000 H   0  0  0  0  0  0  0  0  0  0  0  0
    3.6584   -4.8982    0.0000 H   0  0  0  0  0  0  0  0  0  0  0  0
    6.0010   -5.4105    0.0000 H   0  0  0  0  0  0  0  0  0  0  0  0
    6.5380   -4.4805    0.0000 H   0  0  0  0  0  0  0  0  0  0  0  0
    2.0000   -1.4805    0.0000 H   0  0  0  0  0  0  0  0  0  0  0  0
    3.4030   -6.9105    0.0000 H   0  0  0  0  0  0  0  0  0  0  0  0
  1 45  1  0  0  0  0
  1 59  1  0  0  0  0
  2 45  1  0  0  0  0
  2 60  1  0  0  0  0
  3 22  2  0  0  0  0
  4 26  2  0  0  0  0
  5 31  2  0  0  0  0
  6 36  2  0  0  0  0
  7 40  2  0  0  0  0
  8 42  1  0  0  0  0
  8 89  1  0  0  0  0
  9 42  2  0  0  0  0
 10 44  1  0  0  0  0
 10 90  1  0  0  0  0
 11 44  2  0  0  0  0
 12 18  1  0  0  0  0
 12 22  1  0  0  0  0
 12 50  1  0  0  0  0
 13 21  1  0  0  0  0
 13 25  1  0  0  0  0
 13 26  1  0  0  0  0
 27 14  1  1  0  0  0
 14 31  1  0  0  0  0
 14 62  1  0  0  0  0
 32 15  1  6  0  0  0
 15 36  1  0  0  0  0
 15 71  1  0  0  0  0
 37 16  1  1  0  0  0
 16 40  1  0  0  0  0
 16 81  1  0  0  0  0
 41 17  1  1  0  0  0
 17 87  1  0  0  0  0
 17 88  1  0  0  0  0
 18 19  1  0  0  0  0
 18 20  1  0  0  0  0
 18 45  1  0  0  0  0
 19 20  1  0  0  0  0
 19 46  1  0  0  0  0
 19 47  1  0  0  0  0
 20 48  1  0  0  0  0
 20 49  1  0  0  0  0
 21 22  1  1  0  0  0
 21 23  1  0  0  0  0
 21 51  1  0  0  0  0
 23 24  1  0  0  0  0
 23 52  1  0  0  0  0
 23 53  1  0  0  0  0
 24 25  1  0  0  0  0
 24 54  1  0  0  0  0
 24 55  1  0  0  0  0
 25 56  1  0  0  0  0
 25 57  1  0  0  0  0
 26 27  1  0  0  0  0
 27 28  1  0  0  0  0
 27 58  1  0  0  0  0
 28 29  1  0  0  0  0
 28 30  1  0  0  0  0
 28 61  1  0  0  0  0
 29 63  1  0  0  0  0
 29 64  1  0  0  0  0
 29 65  1  0  0  0  0
 30 66  1  0  0  0  0
 30 67  1  0  0  0  0
 30 68  1  0  0  0  0
 31 32  1  0  0  0  0
 32 33  1  0  0  0  0
 32 69  1  0  0  0  0
 33 34  1  0  0  0  0
 33 35  1  0  0  0  0
 33 70  1  0  0  0  0
 34 72  1  0  0  0  0
 34 73  1  0  0  0  0
 34 74  1  0  0  0  0
 35 75  1  0  0  0  0
 35 76  1  0  0  0  0
 35 77  1  0  0  0  0
 36 37  1  0  0  0  0
 37 38  1  0  0  0  0
 37 78  1  0  0  0  0
 38 39  1  0  0  0  0
 38 79  1  0  0  0  0
 38 80  1  0  0  0  0
 39 42  1  0  0  0  0
 39 82  1  0  0  0  0
 39 83  1  0  0  0  0
 40 41  1  0  0  0  0
 41 43  1  0  0  0  0
 41 84  1  0  0  0  0
 43 44  1  0  0  0  0
 43 85  1  0  0  0  0
 43 86  1  0  0  0  0
M  END
> <PUBCHEM_COMPOUND_CID>
500562
> <PUBCHEM_COMPOUND_CANONICALIZED>
1
> <PUBCHEM_CACTVS_COMPLEXITY>
1150
> <PUBCHEM_CACTVS_HBOND_ACCEPTOR>
12
> <PUBCHEM_CACTVS_HBOND_DONOR>
9
> <PUBCHEM_CACTVS_ROTATABLE_BOND>
17
> <PUBCHEM_CACTVS_SUBSKEYS>
AAADcfJ7vAAAAAAAAAAAAAAAGAAAAWAAAAAAAAAAAAAAAAAAAAAoHgAQCAAADSjBgAQCCAPAAgAIAAGQGAAAAAAAAAAAAIGIAAAAQBoAgCAUQAAGFgCAAAC/FwIIAAAAAAAAAAAAAAAAAAAAAAAAAAAAAA==
> <PUBCHEM_IUPAC_OPENEYE_NAME>
(4S)-4-[[(2S)-2-amino-3-carboxy-propanoyl]amino]-5-[[(1S)-1-[[(1S)-1-[(2S)-2-[(1-boronocyclopropyl)carbamoyl]pyrrolidine-1-carbonyl]-2-methyl-propyl]carbamoyl]-2-methyl-propyl]amino]-5-oxo-pentanoic acid
> <PUBCHEM_IUPAC_CAS_NAME>
(4S)-4-[[(2S)-2-amino-3-carboxy-1-oxopropyl]amino]-5-[[(2S)-1-[[(2S)-1-[(2S)-2-[[(1-boronocyclopropyl)amino]-oxomethyl]-1-pyrrolidinyl]-3-methyl-1-oxobutan-2-yl]amino]-3-methyl-1-oxobutan-2-yl]amino]-5-oxopentanoic acid
> <PUBCHEM_IUPAC_NAME_MARKUP>
(4<I>S</I>)-4-[[(2<I>S</I>)-2-amino-3-carboxypropanoyl]amino]-5-[[(2<I>S</I>)-1-[[(2<I>S</I>)-1-[(2<I>S</I>)-2-[(1-boronocyclopropyl)carbamoyl]pyrrolidin-1-yl]-3-methyl-1-oxobutan-2-yl]amino]-3-methyl-1-oxobutan-2-yl]amino]-5-oxopentanoic acid
> <PUBCHEM_IUPAC_NAME>
(4S)-4-[[(2S)-2-amino-3-carboxypropanoyl]amino]-5-[[(2S)-1-[[(2S)-1-[(2S)-2-[(1-boronocyclopropyl)carbamoyl]pyrrolidin-1-yl]-3-methyl-1-oxobutan-2-yl]amino]-3-methyl-1-oxobutan-2-yl]amino]-5-oxopentanoic acid
> <PUBCHEM_IUPAC_SYSTEMATIC_NAME>
(4S)-4-[[(2S)-2-azanyl-4-oxidanyl-4-oxidanylidene-butanoyl]amino]-5-[[(2S)-1-[[(2S)-1-[(2S)-2-[[1-(dihydroxyboranyl)cyclopropyl]carbamoyl]pyrrolidin-1-yl]-3-methyl-1-oxidanylidene-butan-2-yl]amino]-3-methyl-1-oxidanylidene-butan-2-yl]amino]-5-oxidanylidene-pentanoic acid
> <PUBCHEM_IUPAC_TRADITIONAL_NAME>
(4S)-4-[[(2S)-2-amino-3-carboxy-propanoyl]amino]-5-[[(1S)-1-[[(1S)-1-[(2S)-2-[(1-boronocyclopropyl)carbamoyl]pyrrolidine-1-carbonyl]-2-methyl-propyl]carbamoyl]-2-methyl-propyl]amino]-5-keto-valeric acid
> <PUBCHEM_IUPAC_INCHI>
InChI=1S/C27H45BN6O11/c1-13(2)20(31-23(40)16(7-8-18(35)36)30-22(39)15(29)12-19(37)38)25(42)32-21(14(3)4)26(43)34-11-5-6-17(34)24(41)33-27(9-10-27)28(44)45/h13-17,20-21,44-45H,5-12,29H2,1-4H3,(H,30,39)(H,31,40)(H,32,42)(H,33,41)(H,35,36)(H,37,38)/t15-,16-,17-,20-,21-/m0/s1
> <PUBCHEM_IUPAC_INCHIKEY>
RHEDSODULJMVIX-RNEDXHKXSA-N
> <PUBCHEM_EXACT_MASS>
640.3239364
> <PUBCHEM_MOLECULAR_FORMULA>
C27H45BN6O11
> <PUBCHEM_MOLECULAR_WEIGHT>
640.5
> <PUBCHEM_OPENEYE_CAN_SMILES>
B(C1(CC1)NC(=O)C2CCCN2C(=O)C(C(C)C)NC(=O)C(C(C)C)NC(=O)C(CCC(=O)O)NC(=O)C(CC(=O)O)N)(O)O
> <PUBCHEM_OPENEYE_ISO_SMILES>
B(C1(CC1)NC(=O)[C@@H]2CCCN2C(=O)[C@H](C(C)C)NC(=O)[C@H](C(C)C)NC(=O)[C@H](CCC(=O)O)NC(=O)[C@H](CC(=O)O)N)(O)O
> <PUBCHEM_CACTVS_TPSA>
278
> <PUBCHEM_MONOISOTOPIC_WEIGHT>
640.3239364
> <PUBCHEM_TOTAL_CHARGE>
0
> <PUBCHEM_HEAVY_ATOM_COUNT>
45
> <PUBCHEM_ATOM_DEF_STEREO_COUNT>
5
> <PUBCHEM_ATOM_UDEF_STEREO_COUNT>
0
> <PUBCHEM_BOND_DEF_STEREO_COUNT>
0
> <PUBCHEM_BOND_UDEF_STEREO_COUNT>
0
> <PUBCHEM_ISOTOPIC_ATOM_COUNT>
0
> <PUBCHEM_COMPONENT_COUNT>
1
> <PUBCHEM_CACTVS_TAUTO_COUNT>
-1
> <PUBCHEM_COORDINATE_TYPE>
1
5
255
> <PUBCHEM_BONDANNOTATIONS>
27  14  5
32  15  6
37  16  5
41  17  5
21  22  5
$$$$
