500660
  -OEChem-10302200282D
112117  0     1  0  0  0  0  0999 V2000
   11.9569    2.3848    0.0000 O   0  0  0  0  0  0  0  0  0  0  0  0
   10.5557    1.3667    0.0000 O   0  0  0  0  0  0  0  0  0  0  0  0
    9.5611    1.2622    0.0000 O   0  0  0  0  0  0  0  0  0  0  0  0
    5.5301    2.8031    0.0000 O   0  0  0  0  0  0  0  0  0  0  0  0
    8.8801    0.0826    0.0000 O   0  0  0  0  0  0  0  0  0  0  0  0
    2.0000    3.7789    0.0000 O   0  0  0  0  0  0  0  0  0  0  0  0
    8.9942    6.8031    0.0000 O   0  0  0  0  0  0  0  0  0  0  0  0
    2.0000    5.8272    0.0000 O   0  0  0  0  0  0  0  0  0  0  0  0
    5.7601   -5.6851    0.0000 O   0  0  0  0  0  0  0  0  0  0  0  0
    4.3588   -4.6670    0.0000 O   0  0  0  0  0  0  0  0  0  0  0  0
    9.3801    2.9848    0.0000 N   0  0  0  0  0  0  0  0  0  0  0  0
    7.4788    1.1007    0.0000 N   0  0  0  0  0  0  0  0  0  0  0  0
    7.7045   -1.5354    0.0000 N   0  0  0  0  0  0  0  0  0  0  0  0
    6.3961    4.3031    0.0000 N   0  0  0  0  0  0  0  0  0  0  0  0
    5.5301    5.8031    0.0000 N   0  0  0  0  0  0  0  0  0  0  0  0
    7.2622    5.8031    0.0000 N   0  0  0  0  0  0  0  0  0  0  0  0
   10.3746    3.0893    0.0000 C   0  0  3  0  0  0  0  0  0  0  0  0
   10.2701    4.0838    0.0000 C   0  0  2  0  0  0  0  0  0  0  0  0
   11.1836    3.6771    0.0000 C   0  0  0  0  0  0  0  0  0  0  0  0
   10.9624    2.2803    0.0000 C   0  0  0  0  0  0  0  0  0  0  0  0
    9.6823    4.8928    0.0000 C   0  0  0  0  0  0  0  0  0  0  0  0
    7.9788    1.9667    0.0000 C   0  0  2  0  0  0  0  0  0  0  0  0
    8.9734    2.0712    0.0000 C   0  0  0  0  0  0  0  0  0  0  0  0
    7.3097    2.7098    0.0000 C   0  0  0  0  0  0  0  0  0  0  0  0
    6.3961    2.3031    0.0000 C   0  0  2  0  0  0  0  0  0  0  0  0
    6.5007    1.3086    0.0000 C   0  0  0  0  0  0  0  0  0  0  0  0
   10.0890    5.8064    0.0000 C   0  0  0  0  0  0  0  0  0  0  0  0
    7.8856    0.1871    0.0000 C   0  0  0  0  0  0  0  0  0  0  0  0
    7.2978   -0.6219    0.0000 C   0  0  2  0  0  0  0  0  0  0  0  0
    6.3033   -0.5174    0.0000 C   0  0  0  0  0  0  0  0  0  0  0  0
    5.3087   -0.4128    0.0000 C   0  0  0  0  0  0  0  0  0  0  0  0
    6.1987   -1.5119    0.0000 C   0  0  0  0  0  0  0  0  0  0  0  0
    6.4078    0.4771    0.0000 C   0  0  0  0  0  0  0  0  0  0  0  0
    5.5301    3.8031    0.0000 C   0  0  0  0  0  0  0  0  0  0  0  0
    7.1167   -2.3445    0.0000 C   0  0  0  0  0  0  0  0  0  0  0  0
    4.6641    4.3031    0.0000 C   0  0  0  0  0  0  0  0  0  0  0  0
    6.1222   -2.2399    0.0000 C   0  0  0  0  0  0  0  0  0  0  0  0
    7.5235   -3.2580    0.0000 C   0  0  0  0  0  0  0  0  0  0  0  0
    4.6641    5.3031    0.0000 C   0  0  0  0  0  0  0  0  0  0  0  0
    6.3961    5.3031    0.0000 C   0  0  0  0  0  0  0  0  0  0  0  0
    3.7702    3.7684    0.0000 C   0  0  0  0  0  0  0  0  0  0  0  0
    5.5344   -3.0490    0.0000 C   0  0  0  0  0  0  0  0  0  0  0  0
    6.9357   -4.0670    0.0000 C   0  0  0  0  0  0  0  0  0  0  0  0
    3.7702    5.8378    0.0000 C   0  0  0  0  0  0  0  0  0  0  0  0
    2.8641    4.2823    0.0000 C   0  0  0  0  0  0  0  0  0  0  0  0
    5.9412   -3.9625    0.0000 C   0  0  0  0  0  0  0  0  0  0  0  0
    2.8641    5.3239    0.0000 C   0  0  0  0  0  0  0  0  0  0  0  0
    7.2622    6.8031    0.0000 C   0  0  0  0  0  0  0  0  0  0  0  0
    8.1282    5.3031    0.0000 C   0  0  0  0  0  0  0  0  0  0  0  0
    8.1282    7.3031    0.0000 C   0  0  0  0  0  0  0  0  0  0  0  0
    8.9942    5.8031    0.0000 C   0  0  0  0  0  0  0  0  0  0  0  0
    5.3534   -4.7715    0.0000 C   0  0  0  0  0  0  0  0  0  0  0  0
    5.1723   -6.4941    0.0000 C   0  0  0  0  0  0  0  0  0  0  0  0
    2.0038    2.7790    0.0000 C   0  0  0  0  0  0  0  0  0  0  0  0
    2.0038    6.8272    0.0000 C   0  0  0  0  0  0  0  0  0  0  0  0
    4.5845   -7.3031    0.0000 C   0  0  0  0  0  0  0  0  0  0  0  0
    5.9813   -7.0819    0.0000 C   0  0  0  0  0  0  0  0  0  0  0  0
    4.3633   -5.9063    0.0000 C   0  0  0  0  0  0  0  0  0  0  0  0
   10.6603    4.5656    0.0000 H   0  0  0  0  0  0  0  0  0  0  0  0
   11.6296    3.2464    0.0000 H   0  0  0  0  0  0  0  0  0  0  0  0
   11.5303    4.1911    0.0000 H   0  0  0  0  0  0  0  0  0  0  0  0
    9.0157    3.4864    0.0000 H   0  0  0  0  0  0  0  0  0  0  0  0
    9.0657    4.8280    0.0000 H   0  0  0  0  0  0  0  0  0  0  0  0
    8.3165    1.4467    0.0000 H   0  0  0  0  0  0  0  0  0  0  0  0
    7.8113    3.0743    0.0000 H   0  0  0  0  0  0  0  0  0  0  0  0
    6.9997    3.2468    0.0000 H   0  0  0  0  0  0  0  0  0  0  0  0
    5.8762    1.9654    0.0000 H   0  0  0  0  0  0  0  0  0  0  0  0
    5.8807    1.3086    0.0000 H   0  0  0  0  0  0  0  0  0  0  0  0
    6.4359    0.6920    0.0000 H   0  0  0  0  0  0  0  0  0  0  0  0
   10.7056    5.8712    0.0000 H   0  0  0  0  0  0  0  0  0  0  0  0
    9.7246    6.3080    0.0000 H   0  0  0  0  0  0  0  0  0  0  0  0
   12.3213    1.8832    0.0000 H   0  0  0  0  0  0  0  0  0  0  0  0
    6.9334   -1.1235    0.0000 H   0  0  0  0  0  0  0  0  0  0  0  0
    8.3211   -1.6002    0.0000 H   0  0  0  0  0  0  0  0  0  0  0  0
    5.3735    0.2038    0.0000 H   0  0  0  0  0  0  0  0  0  0  0  0
    4.6921   -0.3480    0.0000 H   0  0  0  0  0  0  0  0  0  0  0  0
    5.2439   -1.0294    0.0000 H   0  0  0  0  0  0  0  0  0  0  0  0
    5.5821   -1.4471    0.0000 H   0  0  0  0  0  0  0  0  0  0  0  0
    6.1339   -2.1285    0.0000 H   0  0  0  0  0  0  0  0  0  0  0  0
    6.8153   -1.5767    0.0000 H   0  0  0  0  0  0  0  0  0  0  0  0
    7.0244    0.4123    0.0000 H   0  0  0  0  0  0  0  0  0  0  0  0
    6.4726    1.0938    0.0000 H   0  0  0  0  0  0  0  0  0  0  0  0
    5.7912    0.5420    0.0000 H   0  0  0  0  0  0  0  0  0  0  0  0
    5.8700   -1.6735    0.0000 H   0  0  0  0  0  0  0  0  0  0  0  0
    8.1401   -3.3228    0.0000 H   0  0  0  0  0  0  0  0  0  0  0  0
    3.7773    3.1485    0.0000 H   0  0  0  0  0  0  0  0  0  0  0  0
    4.9178   -2.9841    0.0000 H   0  0  0  0  0  0  0  0  0  0  0  0
    7.1879   -4.6334    0.0000 H   0  0  0  0  0  0  0  0  0  0  0  0
    3.7773    6.4577    0.0000 H   0  0  0  0  0  0  0  0  0  0  0  0
    7.0501    7.3857    0.0000 H   0  0  0  0  0  0  0  0  0  0  0  0
    6.6516    6.6954    0.0000 H   0  0  0  0  0  0  0  0  0  0  0  0
    7.7297    4.8282    0.0000 H   0  0  0  0  0  0  0  0  0  0  0  0
    8.5267    4.8282    0.0000 H   0  0  0  0  0  0  0  0  0  0  0  0
    8.5267    7.7780    0.0000 H   0  0  0  0  0  0  0  0  0  0  0  0
    7.7297    7.7780    0.0000 H   0  0  0  0  0  0  0  0  0  0  0  0
    9.2063    5.2205    0.0000 H   0  0  0  0  0  0  0  0  0  0  0  0
    9.6048    5.9108    0.0000 H   0  0  0  0  0  0  0  0  0  0  0  0
    1.3839    2.7766    0.0000 H   0  0  0  0  0  0  0  0  0  0  0  0
    2.0062    2.1590    0.0000 H   0  0  0  0  0  0  0  0  0  0  0  0
    2.6238    2.7813    0.0000 H   0  0  0  0  0  0  0  0  0  0  0  0
    2.6238    6.8248    0.0000 H   0  0  0  0  0  0  0  0  0  0  0  0
    2.0062    7.4472    0.0000 H   0  0  0  0  0  0  0  0  0  0  0  0
    1.3839    6.8296    0.0000 H   0  0  0  0  0  0  0  0  0  0  0  0
    4.0830   -6.9387    0.0000 H   0  0  0  0  0  0  0  0  0  0  0  0
    4.2201   -7.8047    0.0000 H   0  0  0  0  0  0  0  0  0  0  0  0
    5.0861   -7.6675    0.0000 H   0  0  0  0  0  0  0  0  0  0  0  0
    5.6169   -7.5834    0.0000 H   0  0  0  0  0  0  0  0  0  0  0  0
    6.4829   -7.4463    0.0000 H   0  0  0  0  0  0  0  0  0  0  0  0
    6.3458   -6.5803    0.0000 H   0  0  0  0  0  0  0  0  0  0  0  0
    4.7277   -5.4047    0.0000 H   0  0  0  0  0  0  0  0  0  0  0  0
    3.8617   -5.5419    0.0000 H   0  0  0  0  0  0  0  0  0  0  0  0
    3.9989   -6.4079    0.0000 H   0  0  0  0  0  0  0  0  0  0  0  0
  1 20  1  0  0  0  0
  1 72  1  0  0  0  0
  2 20  2  0  0  0  0
  3 23  2  0  0  0  0
 25  4  1  6  0  0  0
  4 34  1  0  0  0  0
  5 28  2  0  0  0  0
  6 45  1  0  0  0  0
  6 54  1  0  0  0  0
  7 50  1  0  0  0  0
  7 51  1  0  0  0  0
  8 47  1  0  0  0  0
  8 55  1  0  0  0  0
  9 52  1  0  0  0  0
  9 53  1  0  0  0  0
 10 52  2  0  0  0  0
 11 17  1  0  0  0  0
 11 23  1  0  0  0  0
 11 62  1  0  0  0  0
 12 22  1  0  0  0  0
 12 26  1  0  0  0  0
 12 28  1  0  0  0  0
 29 13  1  1  0  0  0
 13 35  1  0  0  0  0
 13 74  1  0  0  0  0
 14 34  2  0  0  0  0
 14 40  1  0  0  0  0
 15 39  1  0  0  0  0
 15 40  2  0  0  0  0
 16 40  1  0  0  0  0
 16 48  1  0  0  0  0
 16 49  1  0  0  0  0
 17 18  1  0  0  0  0
 17 19  1  0  0  0  0
 17 20  1  0  0  0  0
 18 19  1  0  0  0  0
 18 21  1  1  0  0  0
 18 59  1  0  0  0  0
 19 60  1  0  0  0  0
 19 61  1  0  0  0  0
 21 27  2  0  0  0  0
 21 63  1  0  0  0  0
 22 23  1  1  0  0  0
 22 24  1  0  0  0  0
 22 64  1  0  0  0  0
 24 25  1  0  0  0  0
 24 65  1  0  0  0  0
 24 66  1  0  0  0  0
 25 26  1  0  0  0  0
 25 67  1  0  0  0  0
 26 68  1  0  0  0  0
 26 69  1  0  0  0  0
 27 70  1  0  0  0  0
 27 71  1  0  0  0  0
 28 29  1  0  0  0  0
 29 30  1  0  0  0  0
 29 73  1  0  0  0  0
 30 31  1  0  0  0  0
 30 32  1  0  0  0  0
 30 33  1  0  0  0  0
 31 75  1  0  0  0  0
 31 76  1  0  0  0  0
 31 77  1  0  0  0  0
 32 78  1  0  0  0  0
 32 79  1  0  0  0  0
 32 80  1  0  0  0  0
 33 81  1  0  0  0  0
 33 82  1  0  0  0  0
 33 83  1  0  0  0  0
 34 36  1  0  0  0  0
 35 37  2  0  0  0  0
 35 38  1  0  0  0  0
 36 39  1  0  0  0  0
 36 41  2  0  0  0  0
 37 42  1  0  0  0  0
 37 84  1  0  0  0  0
 38 43  2  0  0  0  0
 38 85  1  0  0  0  0
 39 44  2  0  0  0  0
 41 45  1  0  0  0  0
 41 86  1  0  0  0  0
 42 46  2  0  0  0  0
 42 87  1  0  0  0  0
 43 46  1  0  0  0  0
 43 88  1  0  0  0  0
 44 47  1  0  0  0  0
 44 89  1  0  0  0  0
 45 47  2  0  0  0  0
 46 52  1  0  0  0  0
 48 50  1  0  0  0  0
 48 90  1  0  0  0  0
 48 91  1  0  0  0  0
 49 51  1  0  0  0  0
 49 92  1  0  0  0  0
 49 93  1  0  0  0  0
 50 94  1  0  0  0  0
 50 95  1  0  0  0  0
 51 96  1  0  0  0  0
 51 97  1  0  0  0  0
 53 56  1  0  0  0  0
 53 57  1  0  0  0  0
 53 58  1  0  0  0  0
 54 98  1  0  0  0  0
 54 99  1  0  0  0  0
 54100  1  0  0  0  0
 55101  1  0  0  0  0
 55102  1  0  0  0  0
 55103  1  0  0  0  0
 56104  1  0  0  0  0
 56105  1  0  0  0  0
 56106  1  0  0  0  0
 57107  1  0  0  0  0
 57108  1  0  0  0  0
 57109  1  0  0  0  0
 58110  1  0  0  0  0
 58111  1  0  0  0  0
 58112  1  0  0  0  0
M  END
> <PUBCHEM_COMPOUND_CID>
500660
> <PUBCHEM_COMPOUND_CANONICALIZED>
1
> <PUBCHEM_CACTVS_COMPLEXITY>
1490
> <PUBCHEM_CACTVS_HBOND_ACCEPTOR>
14
> <PUBCHEM_CACTVS_HBOND_DONOR>
3
> <PUBCHEM_CACTVS_ROTATABLE_BOND>
16
> <PUBCHEM_CACTVS_SUBSKEYS>
AAADcfB/vAAAAAAAAAAAAAAAGAAAAWAAAAA8eIEAAAAAAACx9AAAHgAQCAAAD/zhngYz3vfIFgCoAyXyfACCiCklIqAJmKG+7NiPbrLE/fuffSru1hva6af6+T+fKEABAgACQABQgAIEAASAAAAAAAAAAA==
> <PUBCHEM_IUPAC_OPENEYE_NAME>
(2R)-1-[[(2S,4R)-1-[(2S)-2-(4-tert-butoxycarbonylanilino)-3,3-dimethyl-butanoyl]-4-(6,7-dimethoxy-2-morpholino-quinazolin-4-yl)oxy-pyrrolidine-2-carbonyl]amino]-2-vinyl-cyclopropanecarboxylic acid
> <PUBCHEM_IUPAC_CAS_NAME>
(2R)-1-[[[(2S,4R)-4-[[6,7-dimethoxy-2-(4-morpholinyl)-4-quinazolinyl]oxy]-1-[(2S)-3,3-dimethyl-2-[4-[(2-methylpropan-2-yl)oxy-oxomethyl]anilino]-1-oxobutyl]-2-pyrrolidinyl]-oxomethyl]amino]-2-ethenyl-1-cyclopropanecarboxylic acid
> <PUBCHEM_IUPAC_NAME_MARKUP>
(2<I>R</I>)-1-[[(2<I>S</I>,4<I>R</I>)-4-(6,7-dimethoxy-2-morpholin-4-ylquinazolin-4-yl)oxy-1-[(2<I>S</I>)-3,3-dimethyl-2-[4-[(2-methylpropan-2-yl)oxycarbonyl]anilino]butanoyl]pyrrolidine-2-carbonyl]amino]-2-ethenylcyclopropane-1-carboxylic acid
> <PUBCHEM_IUPAC_NAME>
(2R)-1-[[(2S,4R)-4-(6,7-dimethoxy-2-morpholin-4-ylquinazolin-4-yl)oxy-1-[(2S)-3,3-dimethyl-2-[4-[(2-methylpropan-2-yl)oxycarbonyl]anilino]butanoyl]pyrrolidine-2-carbonyl]amino]-2-ethenylcyclopropane-1-carboxylic acid
> <PUBCHEM_IUPAC_SYSTEMATIC_NAME>
(2R)-1-[[(2S,4R)-4-(6,7-dimethoxy-2-morpholin-4-yl-quinazolin-4-yl)oxy-1-[(2S)-3,3-dimethyl-2-[[4-[(2-methylpropan-2-yl)oxycarbonyl]phenyl]amino]butanoyl]pyrrolidin-2-yl]carbonylamino]-2-ethenyl-cyclopropane-1-carboxylic acid
> <PUBCHEM_IUPAC_TRADITIONAL_NAME>
(2R)-1-[[(2S,4R)-1-[(2S)-2-(4-tert-butoxycarbonylanilino)-3,3-dimethyl-butanoyl]-4-(6,7-dimethoxy-2-morpholino-quinazolin-4-yl)oxy-prolyl]amino]-2-vinyl-cyclopropanecarboxylic acid
> <PUBCHEM_IUPAC_INCHI>
InChI=1S/C42H54N6O10/c1-10-25-22-42(25,38(52)53)46-34(49)30-19-27(57-35-28-20-31(54-8)32(55-9)21-29(28)44-39(45-35)47-15-17-56-18-16-47)23-48(30)36(50)33(40(2,3)4)43-26-13-11-24(12-14-26)37(51)58-41(5,6)7/h10-14,20-21,25,27,30,33,43H,1,15-19,22-23H2,2-9H3,(H,46,49)(H,52,53)/t25-,27+,30-,33+,42?/m0/s1
> <PUBCHEM_IUPAC_INCHIKEY>
XFTKIRGJVJOJON-YJKXIRILSA-N
> <PUBCHEM_XLOGP3_AA>
5.7
> <PUBCHEM_EXACT_MASS>
802.39014194
> <PUBCHEM_MOLECULAR_FORMULA>
C42H54N6O10
> <PUBCHEM_MOLECULAR_WEIGHT>
802.9
> <PUBCHEM_OPENEYE_CAN_SMILES>
CC(C)(C)C(C(=O)N1CC(CC1C(=O)NC2(CC2C=C)C(=O)O)OC3=NC(=NC4=CC(=C(C=C43)OC)OC)N5CCOCC5)NC6=CC=C(C=C6)C(=O)OC(C)(C)C
> <PUBCHEM_OPENEYE_ISO_SMILES>
CC(C)(C)[C@@H](C(=O)N1C[C@@H](C[C@H]1C(=O)NC2(C[C@@H]2C=C)C(=O)O)OC3=NC(=NC4=CC(=C(C=C43)OC)OC)N5CCOCC5)NC6=CC=C(C=C6)C(=O)OC(C)(C)C
> <PUBCHEM_CACTVS_TPSA>
191
> <PUBCHEM_MONOISOTOPIC_WEIGHT>
802.39014194
> <PUBCHEM_TOTAL_CHARGE>
0
> <PUBCHEM_HEAVY_ATOM_COUNT>
58
> <PUBCHEM_ATOM_DEF_STEREO_COUNT>
4
> <PUBCHEM_ATOM_UDEF_STEREO_COUNT>
1
> <PUBCHEM_BOND_DEF_STEREO_COUNT>
0
> <PUBCHEM_BOND_UDEF_STEREO_COUNT>
0
> <PUBCHEM_ISOTOPIC_ATOM_COUNT>
0
> <PUBCHEM_COMPONENT_COUNT>
1
> <PUBCHEM_CACTVS_TAUTO_COUNT>
-1
> <PUBCHEM_COORDINATE_TYPE>
1
5
255
> <PUBCHEM_BONDANNOTATIONS>
29  13  5
14  34  8
14  40  8
15  39  8
15  40  8
17  20  3
18  21  5
22  23  5
34  36  8
35  37  8
35  38  8
36  39  8
36  41  8
37  42  8
38  43  8
39  44  8
25  4  6
41  45  8
42  46  8
43  46  8
44  47  8
45  47  8
$$$$
