500671
  -OEChem-10302200282D
 78 81  0     1  0  0  0  0  0999 V2000
    2.0000   -4.4545    0.0000 Cl  0  0  0  0  0  0  0  0  0  0  0  0
    5.5301   -1.4303    0.0000 O   0  0  0  0  0  0  0  0  0  0  0  0
    8.8801    1.2902    0.0000 O   0  0  0  0  0  0  0  0  0  0  0  0
    6.6864    4.3095    0.0000 O   0  0  0  0  0  0  0  0  0  0  0  0
    5.9820    2.7272    0.0000 O   0  0  0  0  0  0  0  0  0  0  0  0
    9.5611    0.1106    0.0000 O   0  0  0  0  0  0  0  0  0  0  0  0
   11.7759   -2.7346    0.0000 O   0  0  0  0  0  0  0  0  0  0  0  0
   10.1936   -3.4391    0.0000 O   0  0  0  0  0  0  0  0  0  0  0  0
    7.2978    1.9947    0.0000 N   0  0  0  0  0  0  0  0  0  0  0  0
    7.9788   -0.5939    0.0000 N   0  0  0  0  0  0  0  0  0  0  0  0
   10.3746   -1.7165    0.0000 N   0  0  0  0  0  0  0  0  0  0  0  0
    5.5301   -4.4303    0.0000 N   0  0  0  0  0  0  0  0  0  0  0  0
    7.7045    2.9082    0.0000 C   0  0  0  0  0  0  0  0  0  0  0  0
    8.6181    2.5015    0.0000 C   0  0  0  0  0  0  0  0  0  0  0  0
    8.1112    3.8218    0.0000 C   0  0  0  0  0  0  0  0  0  0  0  0
    9.0248    3.4150    0.0000 C   0  0  0  0  0  0  0  0  0  0  0  0
    7.4788    0.2721    0.0000 C   0  0  1  0  0  0  0  0  0  0  0  0
    6.5007    0.0642    0.0000 C   0  0  0  0  0  0  0  0  0  0  0  0
    6.3961   -0.9303    0.0000 C   0  0  2  0  0  0  0  0  0  0  0  0
    7.3097   -1.3370    0.0000 C   0  0  0  0  0  0  0  0  0  0  0  0
    7.8856    1.1857    0.0000 C   0  0  0  0  0  0  0  0  0  0  0  0
    6.7910    3.3150    0.0000 C   0  0  0  0  0  0  0  0  0  0  0  0
    8.9734   -0.6984    0.0000 C   0  0  0  0  0  0  0  0  0  0  0  0
    9.3801   -1.6120    0.0000 C   0  0  2  0  0  0  0  0  0  0  0  0
    8.7923   -2.4210    0.0000 C   0  0  0  0  0  0  0  0  0  0  0  0
    5.5301   -2.4303    0.0000 C   0  0  0  0  0  0  0  0  0  0  0  0
    9.1990   -3.3345    0.0000 C   0  0  0  0  0  0  0  0  0  0  0  0
    7.7978   -2.3165    0.0000 C   0  0  0  0  0  0  0  0  0  0  0  0
    4.6641   -2.9303    0.0000 C   0  0  0  0  0  0  0  0  0  0  0  0
   10.7813   -2.6301    0.0000 C   0  0  0  0  0  0  0  0  0  0  0  0
    6.3961   -2.9303    0.0000 C   0  0  0  0  0  0  0  0  0  0  0  0
    4.6641   -3.9303    0.0000 C   0  0  0  0  0  0  0  0  0  0  0  0
    3.7702   -2.3956    0.0000 C   0  0  0  0  0  0  0  0  0  0  0  0
   12.1826   -3.6481    0.0000 C   0  0  0  0  0  0  0  0  0  0  0  0
    6.3961   -3.9303    0.0000 C   0  0  0  0  0  0  0  0  0  0  0  0
    3.7702   -4.4650    0.0000 C   0  0  0  0  0  0  0  0  0  0  0  0
    2.8641   -2.9095    0.0000 C   0  0  0  0  0  0  0  0  0  0  0  0
   12.5893   -4.5617    0.0000 C   0  0  0  0  0  0  0  0  0  0  0  0
   13.0961   -3.2414    0.0000 C   0  0  0  0  0  0  0  0  0  0  0  0
   11.2691   -4.0549    0.0000 C   0  0  0  0  0  0  0  0  0  0  0  0
    2.8641   -3.9511    0.0000 C   0  0  0  0  0  0  0  0  0  0  0  0
    8.3659    1.9351    0.0000 H   0  0  0  0  0  0  0  0  0  0  0  0
    9.1845    2.2493    0.0000 H   0  0  0  0  0  0  0  0  0  0  0  0
    8.3634    4.3882    0.0000 H   0  0  0  0  0  0  0  0  0  0  0  0
    7.5448    4.0740    0.0000 H   0  0  0  0  0  0  0  0  0  0  0  0
    9.5912    3.1629    0.0000 H   0  0  0  0  0  0  0  0  0  0  0  0
    9.2770    3.9814    0.0000 H   0  0  0  0  0  0  0  0  0  0  0  0
    8.0980    0.3046    0.0000 H   0  0  0  0  0  0  0  0  0  0  0  0
    6.4359    0.6808    0.0000 H   0  0  0  0  0  0  0  0  0  0  0  0
    5.8807    0.0642    0.0000 H   0  0  0  0  0  0  0  0  0  0  0  0
    6.6812    1.9299    0.0000 H   0  0  0  0  0  0  0  0  0  0  0  0
    6.4286   -1.5495    0.0000 H   0  0  0  0  0  0  0  0  0  0  0  0
    6.9997   -1.8740    0.0000 H   0  0  0  0  0  0  0  0  0  0  0  0
    7.8113   -1.7015    0.0000 H   0  0  0  0  0  0  0  0  0  0  0  0
    9.6323   -2.1784    0.0000 H   0  0  0  0  0  0  0  0  0  0  0  0
    8.4279   -2.9226    0.0000 H   0  0  0  0  0  0  0  0  0  0  0  0
    6.1200    4.5617    0.0000 H   0  0  0  0  0  0  0  0  0  0  0  0
   10.7390   -1.2149    0.0000 H   0  0  0  0  0  0  0  0  0  0  0  0
    8.6326   -3.5867    0.0000 H   0  0  0  0  0  0  0  0  0  0  0  0
    9.4512   -3.9009    0.0000 H   0  0  0  0  0  0  0  0  0  0  0  0
    9.7654   -3.0824    0.0000 H   0  0  0  0  0  0  0  0  0  0  0  0
    7.8626   -1.6999    0.0000 H   0  0  0  0  0  0  0  0  0  0  0  0
    7.1812   -2.2517    0.0000 H   0  0  0  0  0  0  0  0  0  0  0  0
    7.7330   -2.9331    0.0000 H   0  0  0  0  0  0  0  0  0  0  0  0
    6.9331   -2.6203    0.0000 H   0  0  0  0  0  0  0  0  0  0  0  0
    3.7773   -1.7757    0.0000 H   0  0  0  0  0  0  0  0  0  0  0  0
    6.9331   -4.2403    0.0000 H   0  0  0  0  0  0  0  0  0  0  0  0
    3.7773   -5.0849    0.0000 H   0  0  0  0  0  0  0  0  0  0  0  0
    2.3284   -2.5974    0.0000 H   0  0  0  0  0  0  0  0  0  0  0  0
   12.0229   -4.8138    0.0000 H   0  0  0  0  0  0  0  0  0  0  0  0
   12.8415   -5.1281    0.0000 H   0  0  0  0  0  0  0  0  0  0  0  0
   13.1557   -4.3095    0.0000 H   0  0  0  0  0  0  0  0  0  0  0  0
   13.3483   -3.8078    0.0000 H   0  0  0  0  0  0  0  0  0  0  0  0
   13.6625   -2.9892    0.0000 H   0  0  0  0  0  0  0  0  0  0  0  0
   12.8440   -2.6750    0.0000 H   0  0  0  0  0  0  0  0  0  0  0  0
   11.0169   -3.4885    0.0000 H   0  0  0  0  0  0  0  0  0  0  0  0
   10.7027   -4.3070    0.0000 H   0  0  0  0  0  0  0  0  0  0  0  0
   11.5212   -4.6213    0.0000 H   0  0  0  0  0  0  0  0  0  0  0  0
  1 41  1  0  0  0  0
 19  2  1  6  0  0  0
  2 26  1  0  0  0  0
  3 21  2  0  0  0  0
  4 22  1  0  0  0  0
  4 57  1  0  0  0  0
  5 22  2  0  0  0  0
  6 23  2  0  0  0  0
  7 30  1  0  0  0  0
  7 34  1  0  0  0  0
  8 30  2  0  0  0  0
  9 13  1  0  0  0  0
  9 21  1  0  0  0  0
  9 51  1  0  0  0  0
 10 17  1  0  0  0  0
 10 20  1  0  0  0  0
 10 23  1  0  0  0  0
 24 11  1  1  0  0  0
 11 30  1  0  0  0  0
 11 58  1  0  0  0  0
 12 32  2  0  0  0  0
 12 35  1  0  0  0  0
 13 14  1  0  0  0  0
 13 15  1  0  0  0  0
 13 22  1  0  0  0  0
 14 16  1  0  0  0  0
 14 42  1  0  0  0  0
 14 43  1  0  0  0  0
 15 16  1  0  0  0  0
 15 44  1  0  0  0  0
 15 45  1  0  0  0  0
 16 46  1  0  0  0  0
 16 47  1  0  0  0  0
 17 18  1  0  0  0  0
 17 21  1  1  0  0  0
 17 48  1  0  0  0  0
 18 19  1  0  0  0  0
 18 49  1  0  0  0  0
 18 50  1  0  0  0  0
 19 20  1  0  0  0  0
 19 52  1  0  0  0  0
 20 53  1  0  0  0  0
 20 54  1  0  0  0  0
 23 24  1  0  0  0  0
 24 25  1  0  0  0  0
 24 55  1  0  0  0  0
 25 27  1  0  0  0  0
 25 28  1  0  0  0  0
 25 56  1  0  0  0  0
 26 29  2  0  0  0  0
 26 31  1  0  0  0  0
 27 59  1  0  0  0  0
 27 60  1  0  0  0  0
 27 61  1  0  0  0  0
 28 62  1  0  0  0  0
 28 63  1  0  0  0  0
 28 64  1  0  0  0  0
 29 32  1  0  0  0  0
 29 33  1  0  0  0  0
 31 35  2  0  0  0  0
 31 65  1  0  0  0  0
 32 36  1  0  0  0  0
 33 37  2  0  0  0  0
 33 66  1  0  0  0  0
 34 38  1  0  0  0  0
 34 39  1  0  0  0  0
 34 40  1  0  0  0  0
 35 67  1  0  0  0  0
 36 41  2  0  0  0  0
 36 68  1  0  0  0  0
 37 41  1  0  0  0  0
 37 69  1  0  0  0  0
 38 70  1  0  0  0  0
 38 71  1  0  0  0  0
 38 72  1  0  0  0  0
 39 73  1  0  0  0  0
 39 74  1  0  0  0  0
 39 75  1  0  0  0  0
 40 76  1  0  0  0  0
 40 77  1  0  0  0  0
 40 78  1  0  0  0  0
M  END
> <PUBCHEM_COMPOUND_CID>
500671
> <PUBCHEM_COMPOUND_CANONICALIZED>
1
> <PUBCHEM_CACTVS_COMPLEXITY>
998
> <PUBCHEM_CACTVS_HBOND_ACCEPTOR>
8
> <PUBCHEM_CACTVS_HBOND_DONOR>
3
> <PUBCHEM_CACTVS_ROTATABLE_BOND>
10
> <PUBCHEM_CACTVS_SUBSKEYS>
AAADcfB7uAAEAAAAAAAAAAAAAABgAWAAAAA8QAAAAAAAAACx8AAAHgIQCAAADf7hniY+zvPIFgCoAzX3XACCiCAxJyAI2KG+bpkOZvLFs7ufeCjm1hnY6Ae6waAOBAAAAAICAAAIAAAABAQAAAAAAAAAAA==
> <PUBCHEM_IUPAC_OPENEYE_NAME>
1-[[(2S,4R)-1-[(2S)-2-(tert-butoxycarbonylamino)-3-methyl-butanoyl]-4-[(7-chloro-4-quinolyl)oxy]pyrrolidine-2-carbonyl]amino]cyclobutanecarboxylic acid
> <PUBCHEM_IUPAC_CAS_NAME>
1-[[[(2S,4R)-4-[(7-chloro-4-quinolinyl)oxy]-1-[(2S)-3-methyl-2-[[(2-methylpropan-2-yl)oxy-oxomethyl]amino]-1-oxobutyl]-2-pyrrolidinyl]-oxomethyl]amino]-1-cyclobutanecarboxylic acid
> <PUBCHEM_IUPAC_NAME_MARKUP>
1-[[(2<I>S</I>,4<I>R</I>)-4-(7-chloroquinolin-4-yl)oxy-1-[(2<I>S</I>)-3-methyl-2-[(2-methylpropan-2-yl)oxycarbonylamino]butanoyl]pyrrolidine-2-carbonyl]amino]cyclobutane-1-carboxylic acid
> <PUBCHEM_IUPAC_NAME>
1-[[(2S,4R)-4-(7-chloroquinolin-4-yl)oxy-1-[(2S)-3-methyl-2-[(2-methylpropan-2-yl)oxycarbonylamino]butanoyl]pyrrolidine-2-carbonyl]amino]cyclobutane-1-carboxylic acid
> <PUBCHEM_IUPAC_SYSTEMATIC_NAME>
1-[[(2S,4R)-4-(7-chloranylquinolin-4-yl)oxy-1-[(2S)-3-methyl-2-[(2-methylpropan-2-yl)oxycarbonylamino]butanoyl]pyrrolidin-2-yl]carbonylamino]cyclobutane-1-carboxylic acid
> <PUBCHEM_IUPAC_TRADITIONAL_NAME>
1-[[(2S,4R)-1-[(2S)-2-(tert-butoxycarbonylamino)-3-methyl-butanoyl]-4-[(7-chloro-4-quinolyl)oxy]prolyl]amino]cyclobutanecarboxylic acid
> <PUBCHEM_IUPAC_INCHI>
InChI=1S/C29H37ClN4O7/c1-16(2)23(32-27(39)41-28(3,4)5)25(36)34-15-18(14-21(34)24(35)33-29(26(37)38)10-6-11-29)40-22-9-12-31-20-13-17(30)7-8-19(20)22/h7-9,12-13,16,18,21,23H,6,10-11,14-15H2,1-5H3,(H,32,39)(H,33,35)(H,37,38)/t18-,21+,23+/m1/s1
> <PUBCHEM_IUPAC_INCHIKEY>
CNVVXALTMDRHGK-JZWVFAODSA-N
> <PUBCHEM_XLOGP3_AA>
4.3
> <PUBCHEM_EXACT_MASS>
588.2350772
> <PUBCHEM_MOLECULAR_FORMULA>
C29H37ClN4O7
> <PUBCHEM_MOLECULAR_WEIGHT>
589.1
> <PUBCHEM_OPENEYE_CAN_SMILES>
CC(C)C(C(=O)N1CC(CC1C(=O)NC2(CCC2)C(=O)O)OC3=C4C=CC(=CC4=NC=C3)Cl)NC(=O)OC(C)(C)C
> <PUBCHEM_OPENEYE_ISO_SMILES>
CC(C)[C@@H](C(=O)N1C[C@@H](C[C@H]1C(=O)NC2(CCC2)C(=O)O)OC3=C4C=CC(=CC4=NC=C3)Cl)NC(=O)OC(C)(C)C
> <PUBCHEM_CACTVS_TPSA>
147
> <PUBCHEM_MONOISOTOPIC_WEIGHT>
588.2350772
> <PUBCHEM_TOTAL_CHARGE>
0
> <PUBCHEM_HEAVY_ATOM_COUNT>
41
> <PUBCHEM_ATOM_DEF_STEREO_COUNT>
3
> <PUBCHEM_ATOM_UDEF_STEREO_COUNT>
0
> <PUBCHEM_BOND_DEF_STEREO_COUNT>
0
> <PUBCHEM_BOND_UDEF_STEREO_COUNT>
0
> <PUBCHEM_ISOTOPIC_ATOM_COUNT>
0
> <PUBCHEM_COMPONENT_COUNT>
1
> <PUBCHEM_CACTVS_TAUTO_COUNT>
-1
> <PUBCHEM_COORDINATE_TYPE>
1
5
255
> <PUBCHEM_BONDANNOTATIONS>
24  11  5
12  32  8
12  35  8
17  21  5
19  2  6
26  29  8
26  31  8
29  32  8
29  33  8
31  35  8
32  36  8
33  37  8
36  41  8
37  41  8
$$$$
