500641
  -OEChem-10302200282D
 90 94  0     1  0  0  0  0  0999 V2000
   10.7305   -4.3716    0.0000 O   0  0  0  0  0  0  0  0  0  0  0  0
    7.8794    1.4033    0.0000 O   0  0  0  0  0  0  0  0  0  0  0  0
    9.1482   -3.6671    0.0000 O   0  0  0  0  0  0  0  0  0  0  0  0
    8.5604   -2.8581    0.0000 O   0  0  0  0  0  0  0  0  0  0  0  0
    7.1983   -2.8581    0.0000 O   0  0  0  0  0  0  0  0  0  0  0  0
    3.9890    0.0916    0.0000 O   0  0  0  0  0  0  0  0  0  0  0  0
    3.8080   -1.6309    0.0000 O   0  0  0  0  0  0  0  0  0  0  0  0
    9.9616   -1.8400    0.0000 N   0  0  0  0  0  0  0  0  0  0  0  0
    7.3794   -1.1355    0.0000 N   0  0  0  0  0  0  0  0  0  0  0  0
    5.3903   -0.9265    0.0000 N   0  0  0  0  0  0  0  0  0  0  0  0
   10.5494   -2.6490    0.0000 C   0  0  3  0  0  0  0  0  0  0  0  0
   11.3585   -2.0612    0.0000 C   0  0  2  0  0  0  0  0  0  0  0  0
   11.4630   -3.0558    0.0000 C   0  0  0  0  0  0  0  0  0  0  0  0
    8.3794   -1.1355    0.0000 C   0  0  2  0  0  0  0  0  0  0  0  0
   10.1427   -3.5626    0.0000 C   0  0  0  0  0  0  0  0  0  0  0  0
   11.7652   -1.1477    0.0000 C   0  0  0  0  0  0  0  0  0  0  0  0
    8.9671   -1.9445    0.0000 C   0  0  0  0  0  0  0  0  0  0  0  0
    8.6884   -0.1845    0.0000 C   0  0  0  0  0  0  0  0  0  0  0  0
    7.8794    0.4033    0.0000 C   0  0  2  0  0  0  0  0  0  0  0  0
    7.0703   -0.1845    0.0000 C   0  0  0  0  0  0  0  0  0  0  0  0
    5.2092   -2.6490    0.0000 C   0  0  0  0  0  0  0  0  0  0  0  0
    5.7970   -1.8400    0.0000 C   0  0  1  0  0  0  0  0  0  0  0  0
    6.7916   -1.9445    0.0000 C   0  0  0  0  0  0  0  0  0  0  0  0
    4.2147   -2.5445    0.0000 C   0  0  0  0  0  0  0  0  0  0  0  0
    5.6160   -3.5626    0.0000 C   0  0  0  0  0  0  0  0  0  0  0  0
    3.6270   -3.3535    0.0000 C   0  0  0  0  0  0  0  0  0  0  0  0
    5.0282   -4.3716    0.0000 C   0  0  0  0  0  0  0  0  0  0  0  0
    4.0337   -4.2671    0.0000 C   0  0  0  0  0  0  0  0  0  0  0  0
   12.7597   -1.0432    0.0000 C   0  0  0  0  0  0  0  0  0  0  0  0
    8.7454    1.9033    0.0000 C   0  0  0  0  0  0  0  0  0  0  0  0
    4.3958   -0.8219    0.0000 C   0  0  0  0  0  0  0  0  0  0  0  0
    8.7454    2.9033    0.0000 C   0  0  0  0  0  0  0  0  0  0  0  0
    9.6114    3.4033    0.0000 C   0  0  0  0  0  0  0  0  0  0  0  0
    2.9945    0.1961    0.0000 C   0  0  0  0  0  0  0  0  0  0  0  0
    7.8794    3.4033    0.0000 C   0  0  0  0  0  0  0  0  0  0  0  0
    9.6114    4.4033    0.0000 C   0  0  0  0  0  0  0  0  0  0  0  0
    2.0000    0.3007    0.0000 C   0  0  0  0  0  0  0  0  0  0  0  0
    3.0990    1.1907    0.0000 C   0  0  0  0  0  0  0  0  0  0  0  0
    2.8900   -0.7984    0.0000 C   0  0  0  0  0  0  0  0  0  0  0  0
    7.8794    4.4033    0.0000 C   0  0  0  0  0  0  0  0  0  0  0  0
   10.5053    2.8687    0.0000 C   0  0  0  0  0  0  0  0  0  0  0  0
    8.7454    4.9033    0.0000 C   0  0  0  0  0  0  0  0  0  0  0  0
   10.5053    4.9380    0.0000 C   0  0  0  0  0  0  0  0  0  0  0  0
   11.4114    3.3825    0.0000 C   0  0  0  0  0  0  0  0  0  0  0  0
   11.4114    4.4241    0.0000 C   0  0  0  0  0  0  0  0  0  0  0  0
   11.9708   -2.1582    0.0000 H   0  0  0  0  0  0  0  0  0  0  0  0
   11.3130   -3.6573    0.0000 H   0  0  0  0  0  0  0  0  0  0  0  0
   12.0815   -3.0990    0.0000 H   0  0  0  0  0  0  0  0  0  0  0  0
   10.2138   -1.2736    0.0000 H   0  0  0  0  0  0  0  0  0  0  0  0
    8.0979   -1.6879    0.0000 H   0  0  0  0  0  0  0  0  0  0  0  0
   11.4008   -0.6461    0.0000 H   0  0  0  0  0  0  0  0  0  0  0  0
    9.2548   -0.4366    0.0000 H   0  0  0  0  0  0  0  0  0  0  0  0
    8.9984    0.3525    0.0000 H   0  0  0  0  0  0  0  0  0  0  0  0
    7.3269    0.6848    0.0000 H   0  0  0  0  0  0  0  0  0  0  0  0
    6.7603    0.3525    0.0000 H   0  0  0  0  0  0  0  0  0  0  0  0
    6.5039   -0.4366    0.0000 H   0  0  0  0  0  0  0  0  0  0  0  0
    5.8259   -2.7138    0.0000 H   0  0  0  0  0  0  0  0  0  0  0  0
    6.1615   -1.3384    0.0000 H   0  0  0  0  0  0  0  0  0  0  0  0
    4.3856   -1.9485    0.0000 H   0  0  0  0  0  0  0  0  0  0  0  0
    3.6575   -2.2727    0.0000 H   0  0  0  0  0  0  0  0  0  0  0  0
    6.0467   -4.0086    0.0000 H   0  0  0  0  0  0  0  0  0  0  0  0
    6.1300   -3.2159    0.0000 H   0  0  0  0  0  0  0  0  0  0  0  0
    3.1963   -2.9075    0.0000 H   0  0  0  0  0  0  0  0  0  0  0  0
    3.1129   -3.7002    0.0000 H   0  0  0  0  0  0  0  0  0  0  0  0
    4.8573   -4.9676    0.0000 H   0  0  0  0  0  0  0  0  0  0  0  0
    5.5855   -4.6434    0.0000 H   0  0  0  0  0  0  0  0  0  0  0  0
    3.4321   -4.4170    0.0000 H   0  0  0  0  0  0  0  0  0  0  0  0
    4.0769   -4.8856    0.0000 H   0  0  0  0  0  0  0  0  0  0  0  0
   13.1241   -1.5448    0.0000 H   0  0  0  0  0  0  0  0  0  0  0  0
   13.0119   -0.4768    0.0000 H   0  0  0  0  0  0  0  0  0  0  0  0
   10.4783   -4.9380    0.0000 H   0  0  0  0  0  0  0  0  0  0  0  0
    5.7547   -0.4249    0.0000 H   0  0  0  0  0  0  0  0  0  0  0  0
    8.9574    1.3207    0.0000 H   0  0  0  0  0  0  0  0  0  0  0  0
    9.3560    2.0110    0.0000 H   0  0  0  0  0  0  0  0  0  0  0  0
    7.3424    3.0933    0.0000 H   0  0  0  0  0  0  0  0  0  0  0  0
    2.0648    0.9173    0.0000 H   0  0  0  0  0  0  0  0  0  0  0  0
    1.3834    0.3655    0.0000 H   0  0  0  0  0  0  0  0  0  0  0  0
    1.9352   -0.3159    0.0000 H   0  0  0  0  0  0  0  0  0  0  0  0
    3.7156    1.1259    0.0000 H   0  0  0  0  0  0  0  0  0  0  0  0
    3.1639    1.8073    0.0000 H   0  0  0  0  0  0  0  0  0  0  0  0
    2.4824    1.2555    0.0000 H   0  0  0  0  0  0  0  0  0  0  0  0
    2.2734   -0.7336    0.0000 H   0  0  0  0  0  0  0  0  0  0  0  0
    2.8252   -1.4150    0.0000 H   0  0  0  0  0  0  0  0  0  0  0  0
    3.5066   -0.8632    0.0000 H   0  0  0  0  0  0  0  0  0  0  0  0
    7.3424    4.7133    0.0000 H   0  0  0  0  0  0  0  0  0  0  0  0
   10.4982    2.2487    0.0000 H   0  0  0  0  0  0  0  0  0  0  0  0
    8.7454    5.5233    0.0000 H   0  0  0  0  0  0  0  0  0  0  0  0
   10.4982    5.5579    0.0000 H   0  0  0  0  0  0  0  0  0  0  0  0
   11.9471    3.0704    0.0000 H   0  0  0  0  0  0  0  0  0  0  0  0
   11.9471    4.7362    0.0000 H   0  0  0  0  0  0  0  0  0  0  0  0
  1 15  1  0  0  0  0
  1 71  1  0  0  0  0
 19  2  1  6  0  0  0
  2 30  1  0  0  0  0
  3 15  2  0  0  0  0
  4 17  2  0  0  0  0
  5 23  2  0  0  0  0
  6 31  1  0  0  0  0
  6 34  1  0  0  0  0
  7 31  2  0  0  0  0
  8 11  1  0  0  0  0
  8 17  1  0  0  0  0
  8 49  1  0  0  0  0
  9 14  1  0  0  0  0
  9 20  1  0  0  0  0
  9 23  1  0  0  0  0
 22 10  1  6  0  0  0
 10 31  1  0  0  0  0
 10 72  1  0  0  0  0
 11 12  1  0  0  0  0
 11 13  1  0  0  0  0
 11 15  1  0  0  0  0
 12 13  1  0  0  0  0
 12 16  1  1  0  0  0
 12 46  1  0  0  0  0
 13 47  1  0  0  0  0
 13 48  1  0  0  0  0
 14 17  1  1  0  0  0
 14 18  1  0  0  0  0
 14 50  1  0  0  0  0
 16 29  2  0  0  0  0
 16 51  1  0  0  0  0
 18 19  1  0  0  0  0
 18 52  1  0  0  0  0
 18 53  1  0  0  0  0
 19 20  1  0  0  0  0
 19 54  1  0  0  0  0
 20 55  1  0  0  0  0
 20 56  1  0  0  0  0
 21 22  1  0  0  0  0
 21 24  1  0  0  0  0
 21 25  1  0  0  0  0
 21 57  1  0  0  0  0
 22 23  1  0  0  0  0
 22 58  1  0  0  0  0
 24 26  1  0  0  0  0
 24 59  1  0  0  0  0
 24 60  1  0  0  0  0
 25 27  1  0  0  0  0
 25 61  1  0  0  0  0
 25 62  1  0  0  0  0
 26 28  1  0  0  0  0
 26 63  1  0  0  0  0
 26 64  1  0  0  0  0
 27 28  1  0  0  0  0
 27 65  1  0  0  0  0
 27 66  1  0  0  0  0
 28 67  1  0  0  0  0
 28 68  1  0  0  0  0
 29 69  1  0  0  0  0
 29 70  1  0  0  0  0
 30 32  1  0  0  0  0
 30 73  1  0  0  0  0
 30 74  1  0  0  0  0
 32 33  1  0  0  0  0
 32 35  2  0  0  0  0
 33 36  1  0  0  0  0
 33 41  2  0  0  0  0
 34 37  1  0  0  0  0
 34 38  1  0  0  0  0
 34 39  1  0  0  0  0
 35 40  1  0  0  0  0
 35 75  1  0  0  0  0
 36 42  1  0  0  0  0
 36 43  2  0  0  0  0
 37 76  1  0  0  0  0
 37 77  1  0  0  0  0
 37 78  1  0  0  0  0
 38 79  1  0  0  0  0
 38 80  1  0  0  0  0
 38 81  1  0  0  0  0
 39 82  1  0  0  0  0
 39 83  1  0  0  0  0
 39 84  1  0  0  0  0
 40 42  2  0  0  0  0
 40 85  1  0  0  0  0
 41 44  1  0  0  0  0
 41 86  1  0  0  0  0
 42 87  1  0  0  0  0
 43 45  1  0  0  0  0
 43 88  1  0  0  0  0
 44 45  2  0  0  0  0
 44 89  1  0  0  0  0
 45 90  1  0  0  0  0
M  END
> <PUBCHEM_COMPOUND_CID>
500641
> <PUBCHEM_COMPOUND_CANONICALIZED>
1
> <PUBCHEM_CACTVS_COMPLEXITY>
1120
> <PUBCHEM_CACTVS_HBOND_ACCEPTOR>
7
> <PUBCHEM_CACTVS_HBOND_DONOR>
3
> <PUBCHEM_CACTVS_ROTATABLE_BOND>
12
> <PUBCHEM_CACTVS_SUBSKEYS>
AAADcfB/OAAAAAAAAAAAAAAAGAAAAWAAAAAwYMAAAAAAAADBUAAAHgAQCAAADfzhmAYyCMPABgCIAiHSGAACAAAgAAAIiIGICIkKZjKAsTifcAAm1gGYqAe6yeCOgAACAAAQAAAAAAQAACAAAAAAAAAAAA==
> <PUBCHEM_IUPAC_OPENEYE_NAME>
(2R)-1-[[(2S,4R)-1-[(2S)-2-(tert-butoxycarbonylamino)-2-cyclohexyl-acetyl]-4-(1-naphthylmethoxy)pyrrolidine-2-carbonyl]amino]-2-vinyl-cyclopropanecarboxylic acid
> <PUBCHEM_IUPAC_CAS_NAME>
(2R)-1-[[[(2S,4R)-1-[(2S)-2-cyclohexyl-2-[[(2-methylpropan-2-yl)oxy-oxomethyl]amino]-1-oxoethyl]-4-(1-naphthalenylmethoxy)-2-pyrrolidinyl]-oxomethyl]amino]-2-ethenyl-1-cyclopropanecarboxylic acid
> <PUBCHEM_IUPAC_NAME_MARKUP>
(2<I>R</I>)-1-[[(2<I>S</I>,4<I>R</I>)-1-[(2<I>S</I>)-2-cyclohexyl-2-[(2-methylpropan-2-yl)oxycarbonylamino]acetyl]-4-(naphthalen-1-ylmethoxy)pyrrolidine-2-carbonyl]amino]-2-ethenylcyclopropane-1-carboxylic acid
> <PUBCHEM_IUPAC_NAME>
(2R)-1-[[(2S,4R)-1-[(2S)-2-cyclohexyl-2-[(2-methylpropan-2-yl)oxycarbonylamino]acetyl]-4-(naphthalen-1-ylmethoxy)pyrrolidine-2-carbonyl]amino]-2-ethenylcyclopropane-1-carboxylic acid
> <PUBCHEM_IUPAC_SYSTEMATIC_NAME>
(2R)-1-[[(2S,4R)-1-[(2S)-2-cyclohexyl-2-[(2-methylpropan-2-yl)oxycarbonylamino]ethanoyl]-4-(naphthalen-1-ylmethoxy)pyrrolidin-2-yl]carbonylamino]-2-ethenyl-cyclopropane-1-carboxylic acid
> <PUBCHEM_IUPAC_TRADITIONAL_NAME>
(2R)-1-[[(2S,4R)-1-[(2S)-2-(tert-butoxycarbonylamino)-2-cyclohexyl-acetyl]-4-(1-naphthylmethoxy)prolyl]amino]-2-vinyl-cyclopropanecarboxylic acid
> <PUBCHEM_IUPAC_INCHI>
InChI=1S/C35H45N3O7/c1-5-25-19-35(25,32(41)42)37-30(39)28-18-26(44-21-24-16-11-15-22-12-9-10-17-27(22)24)20-38(28)31(40)29(23-13-7-6-8-14-23)36-33(43)45-34(2,3)4/h5,9-12,15-17,23,25-26,28-29H,1,6-8,13-14,18-21H2,2-4H3,(H,36,43)(H,37,39)(H,41,42)/t25-,26+,28-,29-,35?/m0/s1
> <PUBCHEM_IUPAC_INCHIKEY>
RWWQZRHLTYGYDH-QPZJFWSTSA-N
> <PUBCHEM_XLOGP3_AA>
5.5
> <PUBCHEM_EXACT_MASS>
619.32575078
> <PUBCHEM_MOLECULAR_FORMULA>
C35H45N3O7
> <PUBCHEM_MOLECULAR_WEIGHT>
619.7
> <PUBCHEM_OPENEYE_CAN_SMILES>
CC(C)(C)OC(=O)NC(C1CCCCC1)C(=O)N2CC(CC2C(=O)NC3(CC3C=C)C(=O)O)OCC4=CC=CC5=CC=CC=C54
> <PUBCHEM_OPENEYE_ISO_SMILES>
CC(C)(C)OC(=O)N[C@@H](C1CCCCC1)C(=O)N2C[C@@H](C[C@H]2C(=O)NC3(C[C@@H]3C=C)C(=O)O)OCC4=CC=CC5=CC=CC=C54
> <PUBCHEM_CACTVS_TPSA>
134
> <PUBCHEM_MONOISOTOPIC_WEIGHT>
619.32575078
> <PUBCHEM_TOTAL_CHARGE>
0
> <PUBCHEM_HEAVY_ATOM_COUNT>
45
> <PUBCHEM_ATOM_DEF_STEREO_COUNT>
4
> <PUBCHEM_ATOM_UDEF_STEREO_COUNT>
1
> <PUBCHEM_BOND_DEF_STEREO_COUNT>
0
> <PUBCHEM_BOND_UDEF_STEREO_COUNT>
0
> <PUBCHEM_ISOTOPIC_ATOM_COUNT>
0
> <PUBCHEM_COMPONENT_COUNT>
1
> <PUBCHEM_CACTVS_TAUTO_COUNT>
-1
> <PUBCHEM_COORDINATE_TYPE>
1
5
255
> <PUBCHEM_BONDANNOTATIONS>
22  10  6
11  15  3
12  16  5
14  17  5
19  2  6
32  33  8
32  35  8
33  36  8
33  41  8
35  40  8
36  42  8
36  43  8
40  42  8
41  44  8
43  45  8
44  45  8
$$$$
