500632
  -OEChem-10302200282D
 84 89  0     1  0  0  0  0  0999 V2000
    6.3981   -0.8328    0.0000 O   0  0  0  0  0  0  0  0  0  0  0  0
   12.6438   -2.1371    0.0000 O   0  0  0  0  0  0  0  0  0  0  0  0
   10.4291    0.7081    0.0000 O   0  0  0  0  0  0  0  0  0  0  0  0
   11.0615   -2.8416    0.0000 O   0  0  0  0  0  0  0  0  0  0  0  0
    9.7480    1.8877    0.0000 O   0  0  0  0  0  0  0  0  0  0  0  0
    5.5889    3.1921    0.0000 O   0  0  0  0  0  0  0  0  0  0  0  0
    2.0000   -2.3053    0.0000 O   0  5  0  0  0  0  0  0  0  0  0  0
    2.8718   -0.8087    0.0000 O   0  0  0  0  0  0  0  0  0  0  0  0
   10.2480   -1.0145    0.0000 N   0  0  0  0  0  0  0  0  0  0  0  0
    8.3468    0.8696    0.0000 N   0  0  0  0  0  0  0  0  0  0  0  0
    7.1712    2.4876    0.0000 N   0  0  0  0  0  0  0  0  0  0  0  0
    6.3981   -3.8328    0.0000 N   0  0  0  0  0  0  0  0  0  0  0  0
    2.8680   -1.8087    0.0000 N   0  3  0  0  0  0  0  0  0  0  0  0
   11.2426   -1.1190    0.0000 C   0  0  0  0  0  0  0  0  0  0  0  0
   11.3471   -0.1245    0.0000 C   0  0  0  0  0  0  0  0  0  0  0  0
   12.1561   -0.7123    0.0000 C   0  0  0  0  0  0  0  0  0  0  0  0
    8.8468    0.0036    0.0000 C   0  0  1  0  0  0  0  0  0  0  0  0
    8.5725    3.5057    0.0000 C   0  0  0  0  0  0  0  0  0  0  0  0
    8.1776   -0.7396    0.0000 C   0  0  0  0  0  0  0  0  0  0  0  0
    7.2641   -0.3328    0.0000 C   0  0  2  0  0  0  0  0  0  0  0  0
    8.1657    2.5922    0.0000 C   0  0  1  0  0  0  0  0  0  0  0  0
    7.3686    0.6617    0.0000 C   0  0  0  0  0  0  0  0  0  0  0  0
    9.8413   -0.1009    0.0000 C   0  0  0  0  0  0  0  0  0  0  0  0
    9.5670    3.6102    0.0000 C   0  0  0  0  0  0  0  0  0  0  0  0
    7.9847    4.3147    0.0000 C   0  0  0  0  0  0  0  0  0  0  0  0
   11.6493   -2.0326    0.0000 C   0  0  0  0  0  0  0  0  0  0  0  0
    8.7535    1.7832    0.0000 C   0  0  0  0  0  0  0  0  0  0  0  0
    9.9737    4.5238    0.0000 C   0  0  0  0  0  0  0  0  0  0  0  0
    8.3914    5.2283    0.0000 C   0  0  0  0  0  0  0  0  0  0  0  0
    9.3859    5.3328    0.0000 C   0  0  0  0  0  0  0  0  0  0  0  0
    6.3981   -1.8328    0.0000 C   0  0  0  0  0  0  0  0  0  0  0  0
    6.5834    3.2967    0.0000 C   0  0  0  0  0  0  0  0  0  0  0  0
    5.5320   -2.3328    0.0000 C   0  0  0  0  0  0  0  0  0  0  0  0
    6.9902    4.2102    0.0000 C   0  0  0  0  0  0  0  0  0  0  0  0
    7.2641   -2.3328    0.0000 C   0  0  0  0  0  0  0  0  0  0  0  0
    5.5320   -3.3328    0.0000 C   0  0  0  0  0  0  0  0  0  0  0  0
    7.2641   -3.3328    0.0000 C   0  0  0  0  0  0  0  0  0  0  0  0
    4.6381   -1.7982    0.0000 C   0  0  0  0  0  0  0  0  0  0  0  0
    4.6381   -3.8675    0.0000 C   0  0  0  0  0  0  0  0  0  0  0  0
    3.7320   -2.3120    0.0000 C   0  0  0  0  0  0  0  0  0  0  0  0
    8.1301   -3.8328    0.0000 C   0  0  0  0  0  0  0  0  0  0  0  0
    3.7320   -3.3536    0.0000 C   0  0  0  0  0  0  0  0  0  0  0  0
    8.9962   -3.3328    0.0000 C   0  0  0  0  0  0  0  0  0  0  0  0
    8.1301   -4.8328    0.0000 C   0  0  0  0  0  0  0  0  0  0  0  0
    9.8622   -3.8328    0.0000 C   0  0  0  0  0  0  0  0  0  0  0  0
    8.9962   -5.3328    0.0000 C   0  0  0  0  0  0  0  0  0  0  0  0
    9.8622   -4.8328    0.0000 C   0  0  0  0  0  0  0  0  0  0  0  0
   11.6189    0.4328    0.0000 H   0  0  0  0  0  0  0  0  0  0  0  0
   10.7511    0.0464    0.0000 H   0  0  0  0  0  0  0  0  0  0  0  0
   12.5028   -1.2263    0.0000 H   0  0  0  0  0  0  0  0  0  0  0  0
   12.6021   -0.2816    0.0000 H   0  0  0  0  0  0  0  0  0  0  0  0
    9.1844    0.5236    0.0000 H   0  0  0  0  0  0  0  0  0  0  0  0
    9.8836   -1.5161    0.0000 H   0  0  0  0  0  0  0  0  0  0  0  0
    8.9369    3.0041    0.0000 H   0  0  0  0  0  0  0  0  0  0  0  0
    7.8676   -1.2765    0.0000 H   0  0  0  0  0  0  0  0  0  0  0  0
    8.6792   -1.1040    0.0000 H   0  0  0  0  0  0  0  0  0  0  0  0
    6.7441    0.0049    0.0000 H   0  0  0  0  0  0  0  0  0  0  0  0
    7.8013    3.0938    0.0000 H   0  0  0  0  0  0  0  0  0  0  0  0
    7.3038    1.2783    0.0000 H   0  0  0  0  0  0  0  0  0  0  0  0
    6.7486    0.6617    0.0000 H   0  0  0  0  0  0  0  0  0  0  0  0
    9.5237    2.9918    0.0000 H   0  0  0  0  0  0  0  0  0  0  0  0
   10.1686    3.4603    0.0000 H   0  0  0  0  0  0  0  0  0  0  0  0
    7.4707    4.6614    0.0000 H   0  0  0  0  0  0  0  0  0  0  0  0
    7.5540    3.8688    0.0000 H   0  0  0  0  0  0  0  0  0  0  0  0
   10.4877    4.1771    0.0000 H   0  0  0  0  0  0  0  0  0  0  0  0
   10.4044    4.9698    0.0000 H   0  0  0  0  0  0  0  0  0  0  0  0
    8.4347    5.8468    0.0000 H   0  0  0  0  0  0  0  0  0  0  0  0
    7.7898    5.3783    0.0000 H   0  0  0  0  0  0  0  0  0  0  0  0
    9.9432    5.6046    0.0000 H   0  0  0  0  0  0  0  0  0  0  0  0
    9.2150    5.9288    0.0000 H   0  0  0  0  0  0  0  0  0  0  0  0
    6.9190    1.9212    0.0000 H   0  0  0  0  0  0  0  0  0  0  0  0
   12.8960   -2.7035    0.0000 H   0  0  0  0  0  0  0  0  0  0  0  0
    7.5566    3.9580    0.0000 H   0  0  0  0  0  0  0  0  0  0  0  0
    7.2423    4.7766    0.0000 H   0  0  0  0  0  0  0  0  0  0  0  0
    6.4238    4.4624    0.0000 H   0  0  0  0  0  0  0  0  0  0  0  0
    7.8010   -2.0228    0.0000 H   0  0  0  0  0  0  0  0  0  0  0  0
    4.6453   -1.1782    0.0000 H   0  0  0  0  0  0  0  0  0  0  0  0
    4.6453   -4.4874    0.0000 H   0  0  0  0  0  0  0  0  0  0  0  0
    3.1963   -3.6657    0.0000 H   0  0  0  0  0  0  0  0  0  0  0  0
    8.9962   -2.7128    0.0000 H   0  0  0  0  0  0  0  0  0  0  0  0
    7.5932   -5.1428    0.0000 H   0  0  0  0  0  0  0  0  0  0  0  0
   10.3991   -3.5228    0.0000 H   0  0  0  0  0  0  0  0  0  0  0  0
    8.9962   -5.9528    0.0000 H   0  0  0  0  0  0  0  0  0  0  0  0
   10.3991   -5.1428    0.0000 H   0  0  0  0  0  0  0  0  0  0  0  0
 20  1  1  1  0  0  0
  1 31  1  0  0  0  0
  2 26  1  0  0  0  0
  2 72  1  0  0  0  0
  3 23  2  0  0  0  0
  4 26  2  0  0  0  0
  5 27  2  0  0  0  0
  6 32  2  0  0  0  0
  7 13  1  0  0  0  0
  8 13  2  0  0  0  0
  9 14  1  0  0  0  0
  9 23  1  0  0  0  0
  9 53  1  0  0  0  0
 10 17  1  0  0  0  0
 10 22  1  0  0  0  0
 10 27  1  0  0  0  0
 21 11  1  1  0  0  0
 11 32  1  0  0  0  0
 11 71  1  0  0  0  0
 12 36  1  0  0  0  0
 12 37  2  0  0  0  0
 13 40  1  0  0  0  0
 14 15  1  0  0  0  0
 14 16  1  0  0  0  0
 14 26  1  0  0  0  0
 15 16  1  0  0  0  0
 15 48  1  0  0  0  0
 15 49  1  0  0  0  0
 16 50  1  0  0  0  0
 16 51  1  0  0  0  0
 17 19  1  0  0  0  0
 17 23  1  6  0  0  0
 17 52  1  0  0  0  0
 18 21  1  0  0  0  0
 18 24  1  0  0  0  0
 18 25  1  0  0  0  0
 18 54  1  0  0  0  0
 19 20  1  0  0  0  0
 19 55  1  0  0  0  0
 19 56  1  0  0  0  0
 20 22  1  0  0  0  0
 20 57  1  0  0  0  0
 21 27  1  0  0  0  0
 21 58  1  0  0  0  0
 22 59  1  0  0  0  0
 22 60  1  0  0  0  0
 24 28  1  0  0  0  0
 24 61  1  0  0  0  0
 24 62  1  0  0  0  0
 25 29  1  0  0  0  0
 25 63  1  0  0  0  0
 25 64  1  0  0  0  0
 28 30  1  0  0  0  0
 28 65  1  0  0  0  0
 28 66  1  0  0  0  0
 29 30  1  0  0  0  0
 29 67  1  0  0  0  0
 29 68  1  0  0  0  0
 30 69  1  0  0  0  0
 30 70  1  0  0  0  0
 31 33  1  0  0  0  0
 31 35  2  0  0  0  0
 32 34  1  0  0  0  0
 33 36  2  0  0  0  0
 33 38  1  0  0  0  0
 34 73  1  0  0  0  0
 34 74  1  0  0  0  0
 34 75  1  0  0  0  0
 35 37  1  0  0  0  0
 35 76  1  0  0  0  0
 36 39  1  0  0  0  0
 37 41  1  0  0  0  0
 38 40  2  0  0  0  0
 38 77  1  0  0  0  0
 39 42  2  0  0  0  0
 39 78  1  0  0  0  0
 40 42  1  0  0  0  0
 41 43  2  0  0  0  0
 41 44  1  0  0  0  0
 42 79  1  0  0  0  0
 43 45  1  0  0  0  0
 43 80  1  0  0  0  0
 44 46  2  0  0  0  0
 44 81  1  0  0  0  0
 45 47  2  0  0  0  0
 45 82  1  0  0  0  0
 46 47  1  0  0  0  0
 46 83  1  0  0  0  0
 47 84  1  0  0  0  0
M  CHG  2   7  -1  13   1
M  END
> <PUBCHEM_COMPOUND_CID>
500632
> <PUBCHEM_COMPOUND_CANONICALIZED>
1
> <PUBCHEM_CACTVS_COMPLEXITY>
1190
> <PUBCHEM_CACTVS_HBOND_ACCEPTOR>
9
> <PUBCHEM_CACTVS_HBOND_DONOR>
3
> <PUBCHEM_CACTVS_ROTATABLE_BOND>
9
> <PUBCHEM_CACTVS_SUBSKEYS>
AAADcfB/vAAAAAAAAAAAAAAAGAAAAWAAAAA8YMEAAAAAAACx9AAAHgAUCAAADbzhngYyzvPYVgCpAyXyXwCCiCAhIiAomKG+bJoOZvLEsbuXeCjm1hnY6Ae6yeCOAACAQAACAAAAAQCAAAQAAAAAAAAAAA==
> <PUBCHEM_IUPAC_OPENEYE_NAME>
1-[[(2S,4R)-1-[(2S)-2-acetamido-2-cyclohexyl-acetyl]-4-[(6-nitro-2-phenyl-4-quinolyl)oxy]pyrrolidine-2-carbonyl]amino]cyclopropanecarboxylic acid
> <PUBCHEM_IUPAC_CAS_NAME>
1-[[[(2S,4R)-1-[(2S)-2-acetamido-2-cyclohexyl-1-oxoethyl]-4-[(6-nitro-2-phenyl-4-quinolinyl)oxy]-2-pyrrolidinyl]-oxomethyl]amino]-1-cyclopropanecarboxylic acid
> <PUBCHEM_IUPAC_NAME_MARKUP>
1-[[(2<I>S</I>,4<I>R</I>)-1-[(2<I>S</I>)-2-acetamido-2-cyclohexylacetyl]-4-(6-nitro-2-phenylquinolin-4-yl)oxypyrrolidine-2-carbonyl]amino]cyclopropane-1-carboxylic acid
> <PUBCHEM_IUPAC_NAME>
1-[[(2S,4R)-1-[(2S)-2-acetamido-2-cyclohexylacetyl]-4-(6-nitro-2-phenylquinolin-4-yl)oxypyrrolidine-2-carbonyl]amino]cyclopropane-1-carboxylic acid
> <PUBCHEM_IUPAC_SYSTEMATIC_NAME>
1-[[(2S,4R)-1-[(2S)-2-acetamido-2-cyclohexyl-ethanoyl]-4-(6-nitro-2-phenyl-quinolin-4-yl)oxy-pyrrolidin-2-yl]carbonylamino]cyclopropane-1-carboxylic acid
> <PUBCHEM_IUPAC_TRADITIONAL_NAME>
1-[[(2S,4R)-1-[(2S)-2-acetamido-2-cyclohexyl-acetyl]-4-[(6-nitro-2-phenyl-4-quinolyl)oxy]prolyl]amino]cyclopropanecarboxylic acid
> <PUBCHEM_IUPAC_INCHI>
InChI=1S/C34H37N5O8/c1-20(40)35-30(22-10-6-3-7-11-22)32(42)38-19-24(17-28(38)31(41)37-34(14-15-34)33(43)44)47-29-18-27(21-8-4-2-5-9-21)36-26-13-12-23(39(45)46)16-25(26)29/h2,4-5,8-9,12-13,16,18,22,24,28,30H,3,6-7,10-11,14-15,17,19H2,1H3,(H,35,40)(H,37,41)(H,43,44)/t24-,28+,30+/m1/s1
> <PUBCHEM_IUPAC_INCHIKEY>
FCRSITIZUMHMFK-HZXVKSMZSA-N
> <PUBCHEM_XLOGP3_AA>
4.4
> <PUBCHEM_EXACT_MASS>
643.26421316
> <PUBCHEM_MOLECULAR_FORMULA>
C34H37N5O8
> <PUBCHEM_MOLECULAR_WEIGHT>
643.7
> <PUBCHEM_OPENEYE_CAN_SMILES>
CC(=O)NC(C1CCCCC1)C(=O)N2CC(CC2C(=O)NC3(CC3)C(=O)O)OC4=CC(=NC5=C4C=C(C=C5)[N+](=O)[O-])C6=CC=CC=C6
> <PUBCHEM_OPENEYE_ISO_SMILES>
CC(=O)N[C@@H](C1CCCCC1)C(=O)N2C[C@@H](C[C@H]2C(=O)NC3(CC3)C(=O)O)OC4=CC(=NC5=C4C=C(C=C5)[N+](=O)[O-])C6=CC=CC=C6
> <PUBCHEM_CACTVS_TPSA>
184
> <PUBCHEM_MONOISOTOPIC_WEIGHT>
643.26421316
> <PUBCHEM_TOTAL_CHARGE>
0
> <PUBCHEM_HEAVY_ATOM_COUNT>
47
> <PUBCHEM_ATOM_DEF_STEREO_COUNT>
3
> <PUBCHEM_ATOM_UDEF_STEREO_COUNT>
0
> <PUBCHEM_BOND_DEF_STEREO_COUNT>
0
> <PUBCHEM_BOND_UDEF_STEREO_COUNT>
0
> <PUBCHEM_ISOTOPIC_ATOM_COUNT>
0
> <PUBCHEM_COMPONENT_COUNT>
1
> <PUBCHEM_CACTVS_TAUTO_COUNT>
-1
> <PUBCHEM_COORDINATE_TYPE>
1
5
255
> <PUBCHEM_BONDANNOTATIONS>
20  1  5
21  11  5
12  36  8
12  37  8
17  23  6
31  33  8
31  35  8
33  36  8
33  38  8
35  37  8
36  39  8
38  40  8
39  42  8
40  42  8
41  43  8
41  44  8
43  45  8
44  46  8
45  47  8
46  47  8
$$$$
