500656
  -OEChem-10302200282D
 93 99  0     1  0  0  0  0  0999 V2000
   11.3637    1.0668    0.0000 O   0  0  0  0  0  0  0  0  0  0  0  0
    9.9625    0.0487    0.0000 O   0  0  0  0  0  0  0  0  0  0  0  0
    4.9370    1.4850    0.0000 O   0  0  0  0  0  0  0  0  0  0  0  0
    8.9680   -0.0559    0.0000 O   0  0  0  0  0  0  0  0  0  0  0  0
    8.2869   -1.2355    0.0000 O   0  0  0  0  0  0  0  0  0  0  0  0
    2.3644   -4.9670    0.0000 O   0  0  0  0  0  0  0  0  0  0  0  0
    3.7657   -5.9850    0.0000 O   0  0  0  0  0  0  0  0  0  0  0  0
    8.7869    1.6667    0.0000 N   0  0  0  0  0  0  0  0  0  0  0  0
    6.8857   -0.2174    0.0000 N   0  0  0  0  0  0  0  0  0  0  0  0
    5.7101   -1.8354    0.0000 N   0  0  0  0  0  0  0  0  0  0  0  0
    5.8030    2.9850    0.0000 N   0  0  0  0  0  0  0  0  0  0  0  0
    4.9370    4.4850    0.0000 N   0  0  0  0  0  0  0  0  0  0  0  0
    9.7814    1.7712    0.0000 C   0  0  3  0  0  0  0  0  0  0  0  0
    9.6769    2.7658    0.0000 C   0  0  2  0  0  0  0  0  0  0  0  0
   10.5905    2.3590    0.0000 C   0  0  0  0  0  0  0  0  0  0  0  0
    7.3857    0.6486    0.0000 C   0  0  2  0  0  0  0  0  0  0  0  0
   10.3692    0.9622    0.0000 C   0  0  0  0  0  0  0  0  0  0  0  0
    9.0891    3.5748    0.0000 C   0  0  0  0  0  0  0  0  0  0  0  0
    8.3802    0.7532    0.0000 C   0  0  0  0  0  0  0  0  0  0  0  0
    6.7165    1.3918    0.0000 C   0  0  0  0  0  0  0  0  0  0  0  0
    5.8030    0.9850    0.0000 C   0  0  2  0  0  0  0  0  0  0  0  0
    7.1114   -2.8535    0.0000 C   0  0  0  0  0  0  0  0  0  0  0  0
    5.9075   -0.0095    0.0000 C   0  0  0  0  0  0  0  0  0  0  0  0
    6.7046   -1.9400    0.0000 C   0  0  1  0  0  0  0  0  0  0  0  0
    7.2924   -1.1309    0.0000 C   0  0  0  0  0  0  0  0  0  0  0  0
    6.5236   -3.6625    0.0000 C   0  0  0  0  0  0  0  0  0  0  0  0
    8.1059   -2.9580    0.0000 C   0  0  0  0  0  0  0  0  0  0  0  0
    6.9303   -4.5761    0.0000 C   0  0  0  0  0  0  0  0  0  0  0  0
    8.5126   -3.8716    0.0000 C   0  0  0  0  0  0  0  0  0  0  0  0
    7.9248   -4.6806    0.0000 C   0  0  0  0  0  0  0  0  0  0  0  0
    9.4959    4.4883    0.0000 C   0  0  0  0  0  0  0  0  0  0  0  0
    5.1223   -2.6444    0.0000 C   0  0  0  0  0  0  0  0  0  0  0  0
    4.9370    2.4850    0.0000 C   0  0  0  0  0  0  0  0  0  0  0  0
    4.1278   -2.5399    0.0000 C   0  0  0  0  0  0  0  0  0  0  0  0
    5.5290   -3.5580    0.0000 C   0  0  0  0  0  0  0  0  0  0  0  0
    4.0709    2.9850    0.0000 C   0  0  0  0  0  0  0  0  0  0  0  0
    4.0709    3.9850    0.0000 C   0  0  0  0  0  0  0  0  0  0  0  0
    3.5400   -3.3489    0.0000 C   0  0  0  0  0  0  0  0  0  0  0  0
    4.9413   -4.3670    0.0000 C   0  0  0  0  0  0  0  0  0  0  0  0
    3.1770    2.4504    0.0000 C   0  0  0  0  0  0  0  0  0  0  0  0
    3.9467   -4.2625    0.0000 C   0  0  0  0  0  0  0  0  0  0  0  0
    5.8030    3.9850    0.0000 C   0  0  0  0  0  0  0  0  0  0  0  0
    3.1770    4.5197    0.0000 C   0  0  0  0  0  0  0  0  0  0  0  0
    2.2709    2.9642    0.0000 C   0  0  0  0  0  0  0  0  0  0  0  0
    6.6690    4.4850    0.0000 C   0  0  0  0  0  0  0  0  0  0  0  0
    2.2709    4.0059    0.0000 C   0  0  0  0  0  0  0  0  0  0  0  0
    3.3590   -5.0715    0.0000 C   0  0  0  0  0  0  0  0  0  0  0  0
    6.6690    5.4850    0.0000 C   0  0  0  0  0  0  0  0  0  0  0  0
    7.5350    3.9850    0.0000 C   0  0  0  0  0  0  0  0  0  0  0  0
    7.5350    5.9850    0.0000 C   0  0  0  0  0  0  0  0  0  0  0  0
    8.4011    4.4850    0.0000 C   0  0  0  0  0  0  0  0  0  0  0  0
    8.4011    5.4850    0.0000 C   0  0  0  0  0  0  0  0  0  0  0  0
   10.0671    3.2476    0.0000 H   0  0  0  0  0  0  0  0  0  0  0  0
   11.0364    1.9283    0.0000 H   0  0  0  0  0  0  0  0  0  0  0  0
   10.9372    2.8730    0.0000 H   0  0  0  0  0  0  0  0  0  0  0  0
    8.4225    2.1683    0.0000 H   0  0  0  0  0  0  0  0  0  0  0  0
    7.7233    0.1287    0.0000 H   0  0  0  0  0  0  0  0  0  0  0  0
    8.4725    3.5100    0.0000 H   0  0  0  0  0  0  0  0  0  0  0  0
    7.2181    1.7562    0.0000 H   0  0  0  0  0  0  0  0  0  0  0  0
    6.4065    1.9287    0.0000 H   0  0  0  0  0  0  0  0  0  0  0  0
    5.8354    1.6042    0.0000 H   0  0  0  0  0  0  0  0  0  0  0  0
    6.4947   -2.7887    0.0000 H   0  0  0  0  0  0  0  0  0  0  0  0
    5.2875   -0.0095    0.0000 H   0  0  0  0  0  0  0  0  0  0  0  0
    5.8427   -0.6261    0.0000 H   0  0  0  0  0  0  0  0  0  0  0  0
    6.4524   -1.3736    0.0000 H   0  0  0  0  0  0  0  0  0  0  0  0
    6.0929   -3.2165    0.0000 H   0  0  0  0  0  0  0  0  0  0  0  0
    6.0096   -4.0092    0.0000 H   0  0  0  0  0  0  0  0  0  0  0  0
    8.7074   -2.8080    0.0000 H   0  0  0  0  0  0  0  0  0  0  0  0
    8.0626   -2.3395    0.0000 H   0  0  0  0  0  0  0  0  0  0  0  0
    6.3287   -4.7261    0.0000 H   0  0  0  0  0  0  0  0  0  0  0  0
    6.9736   -5.1945    0.0000 H   0  0  0  0  0  0  0  0  0  0  0  0
    8.9433   -4.3176    0.0000 H   0  0  0  0  0  0  0  0  0  0  0  0
    9.0266   -3.5249    0.0000 H   0  0  0  0  0  0  0  0  0  0  0  0
    7.7539   -5.2766    0.0000 H   0  0  0  0  0  0  0  0  0  0  0  0
    8.4821   -4.9524    0.0000 H   0  0  0  0  0  0  0  0  0  0  0  0
   10.1125    4.5531    0.0000 H   0  0  0  0  0  0  0  0  0  0  0  0
    9.1314    4.9899    0.0000 H   0  0  0  0  0  0  0  0  0  0  0  0
   11.7282    0.5652    0.0000 H   0  0  0  0  0  0  0  0  0  0  0  0
    5.4579   -1.2690    0.0000 H   0  0  0  0  0  0  0  0  0  0  0  0
    3.8756   -1.9735    0.0000 H   0  0  0  0  0  0  0  0  0  0  0  0
    6.1456   -3.6228    0.0000 H   0  0  0  0  0  0  0  0  0  0  0  0
    2.9234   -3.2841    0.0000 H   0  0  0  0  0  0  0  0  0  0  0  0
    5.1934   -4.9334    0.0000 H   0  0  0  0  0  0  0  0  0  0  0  0
    3.1842    1.8304    0.0000 H   0  0  0  0  0  0  0  0  0  0  0  0
    3.1842    5.1397    0.0000 H   0  0  0  0  0  0  0  0  0  0  0  0
    1.7352    2.6522    0.0000 H   0  0  0  0  0  0  0  0  0  0  0  0
    1.7352    4.3179    0.0000 H   0  0  0  0  0  0  0  0  0  0  0  0
    6.1321    5.7950    0.0000 H   0  0  0  0  0  0  0  0  0  0  0  0
    7.5350    3.3650    0.0000 H   0  0  0  0  0  0  0  0  0  0  0  0
    2.0000   -5.4686    0.0000 H   0  0  0  0  0  0  0  0  0  0  0  0
    7.5350    6.6050    0.0000 H   0  0  0  0  0  0  0  0  0  0  0  0
    8.9380    4.1750    0.0000 H   0  0  0  0  0  0  0  0  0  0  0  0
    8.9380    5.7950    0.0000 H   0  0  0  0  0  0  0  0  0  0  0  0
  1 17  1  0  0  0  0
  1 78  1  0  0  0  0
  2 17  2  0  0  0  0
 21  3  1  6  0  0  0
  3 33  1  0  0  0  0
  4 19  2  0  0  0  0
  5 25  2  0  0  0  0
  6 47  1  0  0  0  0
  6 90  1  0  0  0  0
  7 47  2  0  0  0  0
  8 13  1  0  0  0  0
  8 19  1  0  0  0  0
  8 56  1  0  0  0  0
  9 16  1  0  0  0  0
  9 23  1  0  0  0  0
  9 25  1  0  0  0  0
 24 10  1  6  0  0  0
 10 32  1  0  0  0  0
 10 79  1  0  0  0  0
 11 33  2  0  0  0  0
 11 42  1  0  0  0  0
 12 37  1  0  0  0  0
 12 42  2  0  0  0  0
 13 14  1  0  0  0  0
 13 15  1  0  0  0  0
 13 17  1  0  0  0  0
 14 15  1  0  0  0  0
 14 18  1  1  0  0  0
 14 53  1  0  0  0  0
 15 54  1  0  0  0  0
 15 55  1  0  0  0  0
 16 19  1  1  0  0  0
 16 20  1  0  0  0  0
 16 57  1  0  0  0  0
 18 31  2  0  0  0  0
 18 58  1  0  0  0  0
 20 21  1  0  0  0  0
 20 59  1  0  0  0  0
 20 60  1  0  0  0  0
 21 23  1  0  0  0  0
 21 61  1  0  0  0  0
 22 24  1  0  0  0  0
 22 26  1  0  0  0  0
 22 27  1  0  0  0  0
 22 62  1  0  0  0  0
 23 63  1  0  0  0  0
 23 64  1  0  0  0  0
 24 25  1  0  0  0  0
 24 65  1  0  0  0  0
 26 28  1  0  0  0  0
 26 66  1  0  0  0  0
 26 67  1  0  0  0  0
 27 29  1  0  0  0  0
 27 68  1  0  0  0  0
 27 69  1  0  0  0  0
 28 30  1  0  0  0  0
 28 70  1  0  0  0  0
 28 71  1  0  0  0  0
 29 30  1  0  0  0  0
 29 72  1  0  0  0  0
 29 73  1  0  0  0  0
 30 74  1  0  0  0  0
 30 75  1  0  0  0  0
 31 76  1  0  0  0  0
 31 77  1  0  0  0  0
 32 34  2  0  0  0  0
 32 35  1  0  0  0  0
 33 36  1  0  0  0  0
 34 38  1  0  0  0  0
 34 80  1  0  0  0  0
 35 39  2  0  0  0  0
 35 81  1  0  0  0  0
 36 37  1  0  0  0  0
 36 40  2  0  0  0  0
 37 43  2  0  0  0  0
 38 41  2  0  0  0  0
 38 82  1  0  0  0  0
 39 41  1  0  0  0  0
 39 83  1  0  0  0  0
 40 44  1  0  0  0  0
 40 84  1  0  0  0  0
 41 47  1  0  0  0  0
 42 45  1  0  0  0  0
 43 46  1  0  0  0  0
 43 85  1  0  0  0  0
 44 46  2  0  0  0  0
 44 86  1  0  0  0  0
 45 48  2  0  0  0  0
 45 49  1  0  0  0  0
 46 87  1  0  0  0  0
 48 50  1  0  0  0  0
 48 88  1  0  0  0  0
 49 51  2  0  0  0  0
 49 89  1  0  0  0  0
 50 52  2  0  0  0  0
 50 91  1  0  0  0  0
 51 52  1  0  0  0  0
 51 92  1  0  0  0  0
 52 93  1  0  0  0  0
M  END
> <PUBCHEM_COMPOUND_CID>
500656
> <PUBCHEM_COMPOUND_CANONICALIZED>
1
> <PUBCHEM_CACTVS_COMPLEXITY>
1310
> <PUBCHEM_CACTVS_HBOND_ACCEPTOR>
10
> <PUBCHEM_CACTVS_HBOND_DONOR>
4
> <PUBCHEM_CACTVS_ROTATABLE_BOND>
12
> <PUBCHEM_CACTVS_SUBSKEYS>
AAADcfB/uAAAAAAAAAAAAAAAGAAAAWAAAAA8YMGCAAAAAACx9AAAHgAQCAAADbzhnwYx3PfIFgCoAyfyfACCiCklIqAJmKG8bNiObrLE/fuffSju1hvY+ae62aOeCAAAAAACAAAQAAAAAAQAAAAAAAAAAA==
> <PUBCHEM_IUPAC_OPENEYE_NAME>
4-[[(1S)-2-[(2S,4R)-2-[[(2R)-1-carboxy-2-vinyl-cyclopropyl]carbamoyl]-4-(2-phenylquinazolin-4-yl)oxy-pyrrolidin-1-yl]-1-cyclohexyl-2-oxo-ethyl]amino]benzoic acid
> <PUBCHEM_IUPAC_CAS_NAME>
4-[[(1S)-2-[(2S,4R)-2-[[[(2R)-1-carboxy-2-ethenylcyclopropyl]amino]-oxomethyl]-4-[(2-phenyl-4-quinazolinyl)oxy]-1-pyrrolidinyl]-1-cyclohexyl-2-oxoethyl]amino]benzoic acid
> <PUBCHEM_IUPAC_NAME_MARKUP>
4-[[(1<I>S</I>)-2-[(2<I>S</I>,4<I>R</I>)-2-[[(2<I>R</I>)-1-carboxy-2-ethenylcyclopropyl]carbamoyl]-4-(2-phenylquinazolin-4-yl)oxypyrrolidin-1-yl]-1-cyclohexyl-2-oxoethyl]amino]benzoic acid
> <PUBCHEM_IUPAC_NAME>
4-[[(1S)-2-[(2S,4R)-2-[[(2R)-1-carboxy-2-ethenylcyclopropyl]carbamoyl]-4-(2-phenylquinazolin-4-yl)oxypyrrolidin-1-yl]-1-cyclohexyl-2-oxoethyl]amino]benzoic acid
> <PUBCHEM_IUPAC_SYSTEMATIC_NAME>
4-[[(1S)-2-[(2S,4R)-2-[[(2R)-1-carboxy-2-ethenyl-cyclopropyl]carbamoyl]-4-(2-phenylquinazolin-4-yl)oxy-pyrrolidin-1-yl]-1-cyclohexyl-2-oxidanylidene-ethyl]amino]benzoic acid
> <PUBCHEM_IUPAC_TRADITIONAL_NAME>
4-[[(1S)-2-[(2S,4R)-2-[[(2R)-1-carboxy-2-vinyl-cyclopropyl]carbamoyl]-4-(2-phenylquinazolin-4-yl)oxy-pyrrolidino]-1-cyclohexyl-2-keto-ethyl]amino]benzoic acid
> <PUBCHEM_IUPAC_INCHI>
InChI=1S/C40H41N5O7/c1-2-27-22-40(27,39(50)51)44-35(46)32-21-29(52-36-30-15-9-10-16-31(30)42-34(43-36)25-13-7-4-8-14-25)23-45(32)37(47)33(24-11-5-3-6-12-24)41-28-19-17-26(18-20-28)38(48)49/h2,4,7-10,13-20,24,27,29,32-33,41H,1,3,5-6,11-12,21-23H2,(H,44,46)(H,48,49)(H,50,51)/t27-,29+,32-,33-,40?/m0/s1
> <PUBCHEM_IUPAC_INCHIKEY>
IWSKWBHILMVZCS-QYKMDHGVSA-N
> <PUBCHEM_XLOGP3_AA>
6.7
> <PUBCHEM_EXACT_MASS>
703.30059866
> <PUBCHEM_MOLECULAR_FORMULA>
C40H41N5O7
> <PUBCHEM_MOLECULAR_WEIGHT>
703.8
> <PUBCHEM_OPENEYE_CAN_SMILES>
C=CC1CC1(C(=O)O)NC(=O)C2CC(CN2C(=O)C(C3CCCCC3)NC4=CC=C(C=C4)C(=O)O)OC5=NC(=NC6=CC=CC=C65)C7=CC=CC=C7
> <PUBCHEM_OPENEYE_ISO_SMILES>
C=C[C@H]1CC1(C(=O)O)NC(=O)[C@@H]2C[C@H](CN2C(=O)[C@H](C3CCCCC3)NC4=CC=C(C=C4)C(=O)O)OC5=NC(=NC6=CC=CC=C65)C7=CC=CC=C7
> <PUBCHEM_CACTVS_TPSA>
171
> <PUBCHEM_MONOISOTOPIC_WEIGHT>
703.30059866
> <PUBCHEM_TOTAL_CHARGE>
0
> <PUBCHEM_HEAVY_ATOM_COUNT>
52
> <PUBCHEM_ATOM_DEF_STEREO_COUNT>
4
> <PUBCHEM_ATOM_UDEF_STEREO_COUNT>
1
> <PUBCHEM_BOND_DEF_STEREO_COUNT>
0
> <PUBCHEM_BOND_UDEF_STEREO_COUNT>
0
> <PUBCHEM_ISOTOPIC_ATOM_COUNT>
0
> <PUBCHEM_COMPONENT_COUNT>
1
> <PUBCHEM_CACTVS_TAUTO_COUNT>
-1
> <PUBCHEM_COORDINATE_TYPE>
1
5
255
> <PUBCHEM_BONDANNOTATIONS>
24  10  6
11  33  8
11  42  8
12  37  8
12  42  8
13  17  3
14  18  5
16  19  5
21  3  6
32  34  8
32  35  8
33  36  8
34  38  8
35  39  8
36  37  8
36  40  8
37  43  8
38  41  8
39  41  8
40  44  8
43  46  8
44  46  8
45  48  8
45  49  8
48  50  8
49  51  8
50  52  8
51  52  8
$$$$
