500651
  -OEChem-10302200282D
 98103  0     1  0  0  0  0  0999 V2000
   12.4950   -0.6622    0.0000 O   0  0  0  0  0  0  0  0  0  0  0  0
   11.0938    0.3558    0.0000 O   0  0  0  0  0  0  0  0  0  0  0  0
    6.0682   -1.0805    0.0000 O   0  0  0  0  0  0  0  0  0  0  0  0
   10.0993    0.4604    0.0000 O   0  0  0  0  0  0  0  0  0  0  0  0
    9.4182    1.6400    0.0000 O   0  0  0  0  0  0  0  0  0  0  0  0
    6.6603    3.9625    0.0000 O   0  0  0  0  0  0  0  0  0  0  0  0
    5.2591    2.9444    0.0000 O   0  0  0  0  0  0  0  0  0  0  0  0
    9.9182   -1.2622    0.0000 N   0  0  0  0  0  0  0  0  0  0  0  0
    8.0170    0.6219    0.0000 N   0  0  0  0  0  0  0  0  0  0  0  0
    6.8414    2.2399    0.0000 N   0  0  0  0  0  0  0  0  0  0  0  0
    6.0682   -4.0805    0.0000 N   0  0  0  0  0  0  0  0  0  0  0  0
    2.5381   -2.0564    0.0000 N   0  0  0  0  0  0  0  0  0  0  0  0
   10.9127   -1.3667    0.0000 C   0  0  3  0  0  0  0  0  0  0  0  0
   10.8082   -2.3612    0.0000 C   0  0  2  0  0  0  0  0  0  0  0  0
   11.7218   -1.9545    0.0000 C   0  0  0  0  0  0  0  0  0  0  0  0
    8.5170   -0.2441    0.0000 C   0  0  2  0  0  0  0  0  0  0  0  0
   11.5005   -0.5577    0.0000 C   0  0  0  0  0  0  0  0  0  0  0  0
   10.2204   -3.1703    0.0000 C   0  0  0  0  0  0  0  0  0  0  0  0
    9.5115   -0.3487    0.0000 C   0  0  0  0  0  0  0  0  0  0  0  0
    7.8478   -0.9873    0.0000 C   0  0  0  0  0  0  0  0  0  0  0  0
    6.9343   -0.5805    0.0000 C   0  0  2  0  0  0  0  0  0  0  0  0
    7.0388    0.4140    0.0000 C   0  0  0  0  0  0  0  0  0  0  0  0
    8.2426    3.2580    0.0000 C   0  0  0  0  0  0  0  0  0  0  0  0
    7.8359    2.3445    0.0000 C   0  0  1  0  0  0  0  0  0  0  0  0
    8.4237    1.5354    0.0000 C   0  0  0  0  0  0  0  0  0  0  0  0
    7.6549    4.0670    0.0000 C   0  0  0  0  0  0  0  0  0  0  0  0
    9.2372    3.3625    0.0000 C   0  0  0  0  0  0  0  0  0  0  0  0
    8.0616    4.9806    0.0000 C   0  0  0  0  0  0  0  0  0  0  0  0
    9.6439    4.2761    0.0000 C   0  0  0  0  0  0  0  0  0  0  0  0
    9.0561    5.0851    0.0000 C   0  0  0  0  0  0  0  0  0  0  0  0
   10.6272   -4.0838    0.0000 C   0  0  0  0  0  0  0  0  0  0  0  0
    6.0682   -2.0805    0.0000 C   0  0  0  0  0  0  0  0  0  0  0  0
    6.2536    3.0490    0.0000 C   0  0  0  0  0  0  0  0  0  0  0  0
    5.2022   -2.5805    0.0000 C   0  0  0  0  0  0  0  0  0  0  0  0
    6.9343   -2.5805    0.0000 C   0  0  0  0  0  0  0  0  0  0  0  0
    6.0726    4.7715    0.0000 C   0  0  0  0  0  0  0  0  0  0  0  0
    5.2022   -3.5805    0.0000 C   0  0  0  0  0  0  0  0  0  0  0  0
    6.9343   -3.5805    0.0000 C   0  0  0  0  0  0  0  0  0  0  0  0
    4.3083   -2.0459    0.0000 C   0  0  0  0  0  0  0  0  0  0  0  0
    4.3083   -4.1152    0.0000 C   0  0  0  0  0  0  0  0  0  0  0  0
    5.4848    5.5805    0.0000 C   0  0  0  0  0  0  0  0  0  0  0  0
    6.8816    5.3593    0.0000 C   0  0  0  0  0  0  0  0  0  0  0  0
    5.2635    4.1837    0.0000 C   0  0  0  0  0  0  0  0  0  0  0  0
    3.4022   -2.5597    0.0000 C   0  0  0  0  0  0  0  0  0  0  0  0
    7.8003   -4.0805    0.0000 C   0  0  0  0  0  0  0  0  0  0  0  0
    3.4022   -3.6014    0.0000 C   0  0  0  0  0  0  0  0  0  0  0  0
    7.8003   -5.0805    0.0000 C   0  0  0  0  0  0  0  0  0  0  0  0
    8.6663   -3.5805    0.0000 C   0  0  0  0  0  0  0  0  0  0  0  0
    8.6663   -5.5805    0.0000 C   0  0  0  0  0  0  0  0  0  0  0  0
    9.5323   -4.0805    0.0000 C   0  0  0  0  0  0  0  0  0  0  0  0
    9.5323   -5.0805    0.0000 C   0  0  0  0  0  0  0  0  0  0  0  0
   10.2294   -2.1391    0.0000 H   0  0  0  0  0  0  0  0  0  0  0  0
   12.0685   -2.4685    0.0000 H   0  0  0  0  0  0  0  0  0  0  0  0
   12.1677   -1.5238    0.0000 H   0  0  0  0  0  0  0  0  0  0  0  0
    9.5538   -1.7638    0.0000 H   0  0  0  0  0  0  0  0  0  0  0  0
    8.8546    0.2759    0.0000 H   0  0  0  0  0  0  0  0  0  0  0  0
    9.6038   -3.1055    0.0000 H   0  0  0  0  0  0  0  0  0  0  0  0
    7.5378   -1.5242    0.0000 H   0  0  0  0  0  0  0  0  0  0  0  0
    8.3494   -1.3517    0.0000 H   0  0  0  0  0  0  0  0  0  0  0  0
    6.9667   -1.1997    0.0000 H   0  0  0  0  0  0  0  0  0  0  0  0
    6.9740    1.0306    0.0000 H   0  0  0  0  0  0  0  0  0  0  0  0
    6.4188    0.4140    0.0000 H   0  0  0  0  0  0  0  0  0  0  0  0
    8.6071    2.7564    0.0000 H   0  0  0  0  0  0  0  0  0  0  0  0
    7.4715    2.8460    0.0000 H   0  0  0  0  0  0  0  0  0  0  0  0
    7.1408    4.4137    0.0000 H   0  0  0  0  0  0  0  0  0  0  0  0
    7.2242    3.6210    0.0000 H   0  0  0  0  0  0  0  0  0  0  0  0
    9.1939    2.7440    0.0000 H   0  0  0  0  0  0  0  0  0  0  0  0
    9.8387    3.2125    0.0000 H   0  0  0  0  0  0  0  0  0  0  0  0
    8.1048    5.5991    0.0000 H   0  0  0  0  0  0  0  0  0  0  0  0
    7.4600    5.1306    0.0000 H   0  0  0  0  0  0  0  0  0  0  0  0
   10.1579    3.9294    0.0000 H   0  0  0  0  0  0  0  0  0  0  0  0
   10.0746    4.7221    0.0000 H   0  0  0  0  0  0  0  0  0  0  0  0
    9.6134    5.3569    0.0000 H   0  0  0  0  0  0  0  0  0  0  0  0
    8.8852    5.6811    0.0000 H   0  0  0  0  0  0  0  0  0  0  0  0
   10.2627   -4.5854    0.0000 H   0  0  0  0  0  0  0  0  0  0  0  0
   11.2438   -4.1486    0.0000 H   0  0  0  0  0  0  0  0  0  0  0  0
   12.8595   -0.1606    0.0000 H   0  0  0  0  0  0  0  0  0  0  0  0
    6.5892    1.6735    0.0000 H   0  0  0  0  0  0  0  0  0  0  0  0
    7.4712   -2.2705    0.0000 H   0  0  0  0  0  0  0  0  0  0  0  0
    4.3154   -1.4259    0.0000 H   0  0  0  0  0  0  0  0  0  0  0  0
    5.9864    5.9450    0.0000 H   0  0  0  0  0  0  0  0  0  0  0  0
    5.1203    6.0821    0.0000 H   0  0  0  0  0  0  0  0  0  0  0  0
    4.9832    5.2161    0.0000 H   0  0  0  0  0  0  0  0  0  0  0  0
    7.2460    4.8577    0.0000 H   0  0  0  0  0  0  0  0  0  0  0  0
    7.3832    5.7237    0.0000 H   0  0  0  0  0  0  0  0  0  0  0  0
    6.5171    5.8609    0.0000 H   0  0  0  0  0  0  0  0  0  0  0  0
    4.8991    4.6853    0.0000 H   0  0  0  0  0  0  0  0  0  0  0  0
    4.7619    3.8193    0.0000 H   0  0  0  0  0  0  0  0  0  0  0  0
    5.6280    3.6821    0.0000 H   0  0  0  0  0  0  0  0  0  0  0  0
    4.3154   -4.7352    0.0000 H   0  0  0  0  0  0  0  0  0  0  0  0
    2.8665   -3.9134    0.0000 H   0  0  0  0  0  0  0  0  0  0  0  0
    7.2634   -5.3905    0.0000 H   0  0  0  0  0  0  0  0  0  0  0  0
    8.6663   -2.9605    0.0000 H   0  0  0  0  0  0  0  0  0  0  0  0
    2.0000   -2.3643    0.0000 H   0  0  0  0  0  0  0  0  0  0  0  0
    2.5405   -1.4364    0.0000 H   0  0  0  0  0  0  0  0  0  0  0  0
    8.6663   -6.2005    0.0000 H   0  0  0  0  0  0  0  0  0  0  0  0
   10.0693   -3.7705    0.0000 H   0  0  0  0  0  0  0  0  0  0  0  0
   10.0693   -5.3905    0.0000 H   0  0  0  0  0  0  0  0  0  0  0  0
  1 17  1  0  0  0  0
  1 77  1  0  0  0  0
  2 17  2  0  0  0  0
 21  3  1  1  0  0  0
  3 32  1  0  0  0  0
  4 19  2  0  0  0  0
  5 25  2  0  0  0  0
  6 33  1  0  0  0  0
  6 36  1  0  0  0  0
  7 33  2  0  0  0  0
  8 13  1  0  0  0  0
  8 19  1  0  0  0  0
  8 55  1  0  0  0  0
  9 16  1  0  0  0  0
  9 22  1  0  0  0  0
  9 25  1  0  0  0  0
 24 10  1  1  0  0  0
 10 33  1  0  0  0  0
 10 78  1  0  0  0  0
 11 37  1  0  0  0  0
 11 38  2  0  0  0  0
 12 44  1  0  0  0  0
 12 94  1  0  0  0  0
 12 95  1  0  0  0  0
 13 14  1  0  0  0  0
 13 15  1  0  0  0  0
 13 17  1  0  0  0  0
 14 15  1  0  0  0  0
 14 18  1  6  0  0  0
 14 52  1  0  0  0  0
 15 53  1  0  0  0  0
 15 54  1  0  0  0  0
 16 19  1  6  0  0  0
 16 20  1  0  0  0  0
 16 56  1  0  0  0  0
 18 31  2  0  0  0  0
 18 57  1  0  0  0  0
 20 21  1  0  0  0  0
 20 58  1  0  0  0  0
 20 59  1  0  0  0  0
 21 22  1  0  0  0  0
 21 60  1  0  0  0  0
 22 61  1  0  0  0  0
 22 62  1  0  0  0  0
 23 24  1  0  0  0  0
 23 26  1  0  0  0  0
 23 27  1  0  0  0  0
 23 63  1  0  0  0  0
 24 25  1  0  0  0  0
 24 64  1  0  0  0  0
 26 28  1  0  0  0  0
 26 65  1  0  0  0  0
 26 66  1  0  0  0  0
 27 29  1  0  0  0  0
 27 67  1  0  0  0  0
 27 68  1  0  0  0  0
 28 30  1  0  0  0  0
 28 69  1  0  0  0  0
 28 70  1  0  0  0  0
 29 30  1  0  0  0  0
 29 71  1  0  0  0  0
 29 72  1  0  0  0  0
 30 73  1  0  0  0  0
 30 74  1  0  0  0  0
 31 75  1  0  0  0  0
 31 76  1  0  0  0  0
 32 34  1  0  0  0  0
 32 35  2  0  0  0  0
 34 37  2  0  0  0  0
 34 39  1  0  0  0  0
 35 38  1  0  0  0  0
 35 79  1  0  0  0  0
 36 41  1  0  0  0  0
 36 42  1  0  0  0  0
 36 43  1  0  0  0  0
 37 40  1  0  0  0  0
 38 45  1  0  0  0  0
 39 44  2  0  0  0  0
 39 80  1  0  0  0  0
 40 46  2  0  0  0  0
 40 90  1  0  0  0  0
 41 81  1  0  0  0  0
 41 82  1  0  0  0  0
 41 83  1  0  0  0  0
 42 84  1  0  0  0  0
 42 85  1  0  0  0  0
 42 86  1  0  0  0  0
 43 87  1  0  0  0  0
 43 88  1  0  0  0  0
 43 89  1  0  0  0  0
 44 46  1  0  0  0  0
 45 47  2  0  0  0  0
 45 48  1  0  0  0  0
 46 91  1  0  0  0  0
 47 49  1  0  0  0  0
 47 92  1  0  0  0  0
 48 50  2  0  0  0  0
 48 93  1  0  0  0  0
 49 51  2  0  0  0  0
 49 96  1  0  0  0  0
 50 51  1  0  0  0  0
 50 97  1  0  0  0  0
 51 98  1  0  0  0  0
M  END
> <PUBCHEM_COMPOUND_CID>
500651
> <PUBCHEM_COMPOUND_CANONICALIZED>
1
> <PUBCHEM_CACTVS_COMPLEXITY>
1290
> <PUBCHEM_CACTVS_HBOND_ACCEPTOR>
9
> <PUBCHEM_CACTVS_HBOND_DONOR>
4
> <PUBCHEM_CACTVS_ROTATABLE_BOND>
12
> <PUBCHEM_CACTVS_SUBSKEYS>
AAADcfB/uAAAAAAAAAAAAAAAGAAAAWAAAAA8YMEAAAAAAACx9AAAHgAQCAAADfzhngYyzvPIFgCoAyXyXACCiCAhIiAImKG+bJkOZvLEsbufeCjm1hnY6Ae6yeCOAACAQAACAAAAAQCAAAQAAAAAAAAAAA==
> <PUBCHEM_IUPAC_OPENEYE_NAME>
(2R)-1-[[(2S,4R)-4-[(6-amino-2-phenyl-4-quinolyl)oxy]-1-[(2S)-2-(tert-butoxycarbonylamino)-2-cyclohexyl-acetyl]pyrrolidine-2-carbonyl]amino]-2-vinyl-cyclopropanecarboxylic acid
> <PUBCHEM_IUPAC_CAS_NAME>
(2R)-1-[[[(2S,4R)-4-[(6-amino-2-phenyl-4-quinolinyl)oxy]-1-[(2S)-2-cyclohexyl-2-[[(2-methylpropan-2-yl)oxy-oxomethyl]amino]-1-oxoethyl]-2-pyrrolidinyl]-oxomethyl]amino]-2-ethenyl-1-cyclopropanecarboxylic acid
> <PUBCHEM_IUPAC_NAME_MARKUP>
(2<I>R</I>)-1-[[(2<I>S</I>,4<I>R</I>)-4-(6-amino-2-phenylquinolin-4-yl)oxy-1-[(2<I>S</I>)-2-cyclohexyl-2-[(2-methylpropan-2-yl)oxycarbonylamino]acetyl]pyrrolidine-2-carbonyl]amino]-2-ethenylcyclopropane-1-carboxylic acid
> <PUBCHEM_IUPAC_NAME>
(2R)-1-[[(2S,4R)-4-(6-amino-2-phenylquinolin-4-yl)oxy-1-[(2S)-2-cyclohexyl-2-[(2-methylpropan-2-yl)oxycarbonylamino]acetyl]pyrrolidine-2-carbonyl]amino]-2-ethenylcyclopropane-1-carboxylic acid
> <PUBCHEM_IUPAC_SYSTEMATIC_NAME>
(2R)-1-[[(2S,4R)-4-(6-azanyl-2-phenyl-quinolin-4-yl)oxy-1-[(2S)-2-cyclohexyl-2-[(2-methylpropan-2-yl)oxycarbonylamino]ethanoyl]pyrrolidin-2-yl]carbonylamino]-2-ethenyl-cyclopropane-1-carboxylic acid
> <PUBCHEM_IUPAC_TRADITIONAL_NAME>
(2R)-1-[[(2S,4R)-4-[(6-amino-2-phenyl-4-quinolyl)oxy]-1-[(2S)-2-(tert-butoxycarbonylamino)-2-cyclohexyl-acetyl]prolyl]amino]-2-vinyl-cyclopropanecarboxylic acid
> <PUBCHEM_IUPAC_INCHI>
InChI=1S/C39H47N5O7/c1-5-25-21-39(25,36(47)48)43-34(45)31-19-27(22-44(31)35(46)33(24-14-10-7-11-15-24)42-37(49)51-38(2,3)4)50-32-20-30(23-12-8-6-9-13-23)41-29-17-16-26(40)18-28(29)32/h5-6,8-9,12-13,16-18,20,24-25,27,31,33H,1,7,10-11,14-15,19,21-22,40H2,2-4H3,(H,42,49)(H,43,45)(H,47,48)/t25-,27+,31-,33-,39?/m0/s1
> <PUBCHEM_IUPAC_INCHIKEY>
ZBGKDGQLGFPTSC-LIZWNXJFSA-N
> <PUBCHEM_XLOGP3_AA>
5.8
> <PUBCHEM_EXACT_MASS>
697.34754886
> <PUBCHEM_MOLECULAR_FORMULA>
C39H47N5O7
> <PUBCHEM_MOLECULAR_WEIGHT>
697.8
> <PUBCHEM_OPENEYE_CAN_SMILES>
CC(C)(C)OC(=O)NC(C1CCCCC1)C(=O)N2CC(CC2C(=O)NC3(CC3C=C)C(=O)O)OC4=CC(=NC5=C4C=C(C=C5)N)C6=CC=CC=C6
> <PUBCHEM_OPENEYE_ISO_SMILES>
CC(C)(C)OC(=O)N[C@@H](C1CCCCC1)C(=O)N2C[C@@H](C[C@H]2C(=O)NC3(C[C@@H]3C=C)C(=O)O)OC4=CC(=NC5=C4C=C(C=C5)N)C6=CC=CC=C6
> <PUBCHEM_CACTVS_TPSA>
173
> <PUBCHEM_MONOISOTOPIC_WEIGHT>
697.34754886
> <PUBCHEM_TOTAL_CHARGE>
0
> <PUBCHEM_HEAVY_ATOM_COUNT>
51
> <PUBCHEM_ATOM_DEF_STEREO_COUNT>
4
> <PUBCHEM_ATOM_UDEF_STEREO_COUNT>
1
> <PUBCHEM_BOND_DEF_STEREO_COUNT>
0
> <PUBCHEM_BOND_UDEF_STEREO_COUNT>
0
> <PUBCHEM_ISOTOPIC_ATOM_COUNT>
0
> <PUBCHEM_COMPONENT_COUNT>
1
> <PUBCHEM_CACTVS_TAUTO_COUNT>
-1
> <PUBCHEM_COORDINATE_TYPE>
1
5
255
> <PUBCHEM_BONDANNOTATIONS>
24  10  5
11  37  8
11  38  8
13  17  3
14  18  6
16  19  6
21  3  5
32  34  8
32  35  8
34  37  8
34  39  8
35  38  8
37  40  8
39  44  8
40  46  8
44  46  8
45  47  8
45  48  8
47  49  8
48  50  8
49  51  8
50  51  8
$$$$
