500682
  -OEChem-10302200282D
 90 94  0     1  0  0  0  0  0999 V2000
    8.2417    5.3587    0.0000 O   0  0  0  0  0  0  0  0  0  0  0  0
    8.4227    3.6361    0.0000 O   0  0  0  0  0  0  0  0  0  0  0  0
    4.6660    0.0021    0.0000 O   0  0  0  0  0  0  0  0  0  0  0  0
    8.0160    2.7226    0.0000 O   0  0  0  0  0  0  0  0  0  0  0  0
    8.6970    1.5430    0.0000 O   0  0  0  0  0  0  0  0  0  0  0  0
    8.3349   -1.9022    0.0000 O   0  0  0  0  0  0  0  0  0  0  0  0
   10.9118   -1.3022    0.0000 O   0  0  0  0  0  0  0  0  0  0  0  0
    9.3295   -2.0067    0.0000 O   0  0  0  0  0  0  0  0  0  0  0  0
    6.4337    3.4270    0.0000 N   0  0  0  0  0  0  0  0  0  0  0  0
    7.1147    0.8385    0.0000 N   0  0  0  0  0  0  0  0  0  0  0  0
    9.5105   -0.2841    0.0000 N   0  0  0  0  0  0  0  0  0  0  0  0
    4.6660   -2.9979    0.0000 N   0  0  0  0  0  0  0  0  0  0  0  0
    6.8404    4.3406    0.0000 C   0  0  3  0  0  0  0  0  0  0  0  0
    5.9269    4.7473    0.0000 C   0  0  2  0  0  0  0  0  0  0  0  0
    6.7359    5.3351    0.0000 C   0  0  0  0  0  0  0  0  0  0  0  0
    7.8350    4.4451    0.0000 C   0  0  0  0  0  0  0  0  0  0  0  0
    4.9324    4.6428    0.0000 C   0  0  0  0  0  0  0  0  0  0  0  0
    6.6147    1.7045    0.0000 C   0  0  2  0  0  0  0  0  0  0  0  0
    7.0215    2.6180    0.0000 C   0  0  0  0  0  0  0  0  0  0  0  0
    5.6366    1.4966    0.0000 C   0  0  0  0  0  0  0  0  0  0  0  0
    5.5321    0.5021    0.0000 C   0  0  2  0  0  0  0  0  0  0  0  0
    6.4456    0.0953    0.0000 C   0  0  0  0  0  0  0  0  0  0  0  0
    4.3446    5.4518    0.0000 C   0  0  0  0  0  0  0  0  0  0  0  0
    8.1093    0.7339    0.0000 C   0  0  0  0  0  0  0  0  0  0  0  0
    8.5160   -0.1796    0.0000 C   0  0  2  0  0  0  0  0  0  0  0  0
    7.9282   -0.9886    0.0000 C   0  0  3  0  0  0  0  0  0  0  0  0
    4.6660   -0.9979    0.0000 C   0  0  0  0  0  0  0  0  0  0  0  0
    6.9337   -0.8841    0.0000 C   0  0  0  0  0  0  0  0  0  0  0  0
    3.8000   -1.4979    0.0000 C   0  0  0  0  0  0  0  0  0  0  0  0
    5.5321   -1.4979    0.0000 C   0  0  0  0  0  0  0  0  0  0  0  0
    9.9172   -1.1977    0.0000 C   0  0  0  0  0  0  0  0  0  0  0  0
    3.8000   -2.4979    0.0000 C   0  0  0  0  0  0  0  0  0  0  0  0
    7.7472   -2.7112    0.0000 C   0  0  0  0  0  0  0  0  0  0  0  0
    2.9061   -0.9633    0.0000 C   0  0  0  0  0  0  0  0  0  0  0  0
    5.5321   -2.4979    0.0000 C   0  0  0  0  0  0  0  0  0  0  0  0
   11.3185   -2.2158    0.0000 C   0  0  0  0  0  0  0  0  0  0  0  0
    2.9061   -3.0326    0.0000 C   0  0  0  0  0  0  0  0  0  0  0  0
    8.1539   -3.6247    0.0000 C   0  0  0  0  0  0  0  0  0  0  0  0
    2.0000   -1.4771    0.0000 C   0  0  0  0  0  0  0  0  0  0  0  0
    2.0000   -2.5188    0.0000 C   0  0  0  0  0  0  0  0  0  0  0  0
   11.7252   -3.1293    0.0000 C   0  0  0  0  0  0  0  0  0  0  0  0
   12.2321   -1.8090    0.0000 C   0  0  0  0  0  0  0  0  0  0  0  0
   10.4050   -2.6225    0.0000 C   0  0  0  0  0  0  0  0  0  0  0  0
    7.5661   -4.4338    0.0000 C   0  0  0  0  0  0  0  0  0  0  0  0
    9.1484   -3.7293    0.0000 C   0  0  0  0  0  0  0  0  0  0  0  0
    7.9728   -5.3473    0.0000 C   0  0  0  0  0  0  0  0  0  0  0  0
    9.5552   -4.6428    0.0000 C   0  0  0  0  0  0  0  0  0  0  0  0
    8.9674   -5.4518    0.0000 C   0  0  0  0  0  0  0  0  0  0  0  0
    5.8299    4.1350    0.0000 H   0  0  0  0  0  0  0  0  0  0  0  0
    7.3319    5.5060    0.0000 H   0  0  0  0  0  0  0  0  0  0  0  0
    6.4641    5.8924    0.0000 H   0  0  0  0  0  0  0  0  0  0  0  0
    5.8171    3.3622    0.0000 H   0  0  0  0  0  0  0  0  0  0  0  0
    4.6802    4.0764    0.0000 H   0  0  0  0  0  0  0  0  0  0  0  0
    7.2339    1.7369    0.0000 H   0  0  0  0  0  0  0  0  0  0  0  0
    5.5718    2.1132    0.0000 H   0  0  0  0  0  0  0  0  0  0  0  0
    5.0166    1.4966    0.0000 H   0  0  0  0  0  0  0  0  0  0  0  0
    5.5645   -0.1171    0.0000 H   0  0  0  0  0  0  0  0  0  0  0  0
    6.1356   -0.4416    0.0000 H   0  0  0  0  0  0  0  0  0  0  0  0
    6.9472   -0.2691    0.0000 H   0  0  0  0  0  0  0  0  0  0  0  0
    4.5968    6.0182    0.0000 H   0  0  0  0  0  0  0  0  0  0  0  0
    3.7280    5.3870    0.0000 H   0  0  0  0  0  0  0  0  0  0  0  0
    8.8583    5.4235    0.0000 H   0  0  0  0  0  0  0  0  0  0  0  0
    8.7682   -0.7460    0.0000 H   0  0  0  0  0  0  0  0  0  0  0  0
    7.5638   -1.4902    0.0000 H   0  0  0  0  0  0  0  0  0  0  0  0
    9.8749    0.2175    0.0000 H   0  0  0  0  0  0  0  0  0  0  0  0
    6.9985   -0.2675    0.0000 H   0  0  0  0  0  0  0  0  0  0  0  0
    6.3171   -0.8193    0.0000 H   0  0  0  0  0  0  0  0  0  0  0  0
    6.8689   -1.5007    0.0000 H   0  0  0  0  0  0  0  0  0  0  0  0
    6.0690   -1.1879    0.0000 H   0  0  0  0  0  0  0  0  0  0  0  0
    7.3165   -2.2652    0.0000 H   0  0  0  0  0  0  0  0  0  0  0  0
    7.2332   -3.0579    0.0000 H   0  0  0  0  0  0  0  0  0  0  0  0
    2.9132   -0.3433    0.0000 H   0  0  0  0  0  0  0  0  0  0  0  0
    6.0690   -2.8079    0.0000 H   0  0  0  0  0  0  0  0  0  0  0  0
    2.9132   -3.6526    0.0000 H   0  0  0  0  0  0  0  0  0  0  0  0
    1.4643   -1.1651    0.0000 H   0  0  0  0  0  0  0  0  0  0  0  0
    1.4643   -2.8308    0.0000 H   0  0  0  0  0  0  0  0  0  0  0  0
   11.1589   -3.3815    0.0000 H   0  0  0  0  0  0  0  0  0  0  0  0
   11.9774   -3.6957    0.0000 H   0  0  0  0  0  0  0  0  0  0  0  0
   12.2916   -2.8771    0.0000 H   0  0  0  0  0  0  0  0  0  0  0  0
   12.4842   -2.3754    0.0000 H   0  0  0  0  0  0  0  0  0  0  0  0
   12.7985   -1.5568    0.0000 H   0  0  0  0  0  0  0  0  0  0  0  0
   11.9799   -1.2426    0.0000 H   0  0  0  0  0  0  0  0  0  0  0  0
   10.1528   -2.0561    0.0000 H   0  0  0  0  0  0  0  0  0  0  0  0
    9.8386   -2.8747    0.0000 H   0  0  0  0  0  0  0  0  0  0  0  0
   10.6571   -3.1889    0.0000 H   0  0  0  0  0  0  0  0  0  0  0  0
    6.9495   -4.3689    0.0000 H   0  0  0  0  0  0  0  0  0  0  0  0
    9.5128   -3.2277    0.0000 H   0  0  0  0  0  0  0  0  0  0  0  0
    7.6084   -5.8489    0.0000 H   0  0  0  0  0  0  0  0  0  0  0  0
   10.1718   -4.7076    0.0000 H   0  0  0  0  0  0  0  0  0  0  0  0
    9.2196   -6.0182    0.0000 H   0  0  0  0  0  0  0  0  0  0  0  0
  1 16  1  0  0  0  0
  1 62  1  0  0  0  0
  2 16  2  0  0  0  0
 21  3  1  6  0  0  0
  3 27  1  0  0  0  0
  4 19  2  0  0  0  0
  5 24  2  0  0  0  0
  6 26  1  0  0  0  0
  6 33  1  0  0  0  0
  7 31  1  0  0  0  0
  7 36  1  0  0  0  0
  8 31  2  0  0  0  0
  9 13  1  0  0  0  0
  9 19  1  0  0  0  0
  9 52  1  0  0  0  0
 10 18  1  0  0  0  0
 10 22  1  0  0  0  0
 10 24  1  0  0  0  0
 25 11  1  1  0  0  0
 11 31  1  0  0  0  0
 11 65  1  0  0  0  0
 12 32  1  0  0  0  0
 12 35  2  0  0  0  0
 13 14  1  0  0  0  0
 13 15  1  0  0  0  0
 13 16  1  0  0  0  0
 14 15  1  0  0  0  0
 14 17  1  1  0  0  0
 14 49  1  0  0  0  0
 15 50  1  0  0  0  0
 15 51  1  0  0  0  0
 17 23  2  0  0  0  0
 17 53  1  0  0  0  0
 18 19  1  1  0  0  0
 18 20  1  0  0  0  0
 18 54  1  0  0  0  0
 20 21  1  0  0  0  0
 20 55  1  0  0  0  0
 20 56  1  0  0  0  0
 21 22  1  0  0  0  0
 21 57  1  0  0  0  0
 22 58  1  0  0  0  0
 22 59  1  0  0  0  0
 23 60  1  0  0  0  0
 23 61  1  0  0  0  0
 24 25  1  0  0  0  0
 25 26  1  0  0  0  0
 25 63  1  0  0  0  0
 26 28  1  0  0  0  0
 26 64  1  0  0  0  0
 27 29  1  0  0  0  0
 27 30  2  0  0  0  0
 28 66  1  0  0  0  0
 28 67  1  0  0  0  0
 28 68  1  0  0  0  0
 29 32  1  0  0  0  0
 29 34  2  0  0  0  0
 30 35  1  0  0  0  0
 30 69  1  0  0  0  0
 32 37  2  0  0  0  0
 33 38  1  0  0  0  0
 33 70  1  0  0  0  0
 33 71  1  0  0  0  0
 34 39  1  0  0  0  0
 34 72  1  0  0  0  0
 35 73  1  0  0  0  0
 36 41  1  0  0  0  0
 36 42  1  0  0  0  0
 36 43  1  0  0  0  0
 37 40  1  0  0  0  0
 37 74  1  0  0  0  0
 38 44  2  0  0  0  0
 38 45  1  0  0  0  0
 39 40  2  0  0  0  0
 39 75  1  0  0  0  0
 40 76  1  0  0  0  0
 41 77  1  0  0  0  0
 41 78  1  0  0  0  0
 41 79  1  0  0  0  0
 42 80  1  0  0  0  0
 42 81  1  0  0  0  0
 42 82  1  0  0  0  0
 43 83  1  0  0  0  0
 43 84  1  0  0  0  0
 43 85  1  0  0  0  0
 44 46  1  0  0  0  0
 44 86  1  0  0  0  0
 45 47  2  0  0  0  0
 45 87  1  0  0  0  0
 46 48  2  0  0  0  0
 46 88  1  0  0  0  0
 47 48  1  0  0  0  0
 47 89  1  0  0  0  0
 48 90  1  0  0  0  0
M  END
> <PUBCHEM_COMPOUND_CID>
500682
> <PUBCHEM_COMPOUND_CANONICALIZED>
1
> <PUBCHEM_CACTVS_COMPLEXITY>
1190
> <PUBCHEM_CACTVS_HBOND_ACCEPTOR>
9
> <PUBCHEM_CACTVS_HBOND_DONOR>
3
> <PUBCHEM_CACTVS_ROTATABLE_BOND>
14
> <PUBCHEM_CACTVS_SUBSKEYS>
AAADcfB/vAAAAAAAAAAAAAAAGAAAAWAAAAA8YIAAAAAAAACx9AAAHgAQCAAADfzhngY+zvPIFgCoAzX3XACCiCAxIiAI2KG+bJkOZvbEsbufeCjm9hnY6Ae6waAOAAAAAAACAAAAAAAAAAQAAAAAAAAAAA==
> <PUBCHEM_IUPAC_OPENEYE_NAME>
(2R)-1-[[(2S,4R)-1-[(2S)-3-benzyloxy-2-(tert-butoxycarbonylamino)butanoyl]-4-(4-quinolyloxy)pyrrolidine-2-carbonyl]amino]-2-vinyl-cyclopropanecarboxylic acid
> <PUBCHEM_IUPAC_CAS_NAME>
(2R)-2-ethenyl-1-[[[(2S,4R)-1-[(2S)-2-[[(2-methylpropan-2-yl)oxy-oxomethyl]amino]-1-oxo-3-phenylmethoxybutyl]-4-(4-quinolinyloxy)-2-pyrrolidinyl]-oxomethyl]amino]-1-cyclopropanecarboxylic acid
> <PUBCHEM_IUPAC_NAME_MARKUP>
(2<I>R</I>)-2-ethenyl-1-[[(2<I>S</I>,4<I>R</I>)-1-[(2<I>S</I>)-2-[(2-methylpropan-2-yl)oxycarbonylamino]-3-phenylmethoxybutanoyl]-4-quinolin-4-yloxypyrrolidine-2-carbonyl]amino]cyclopropane-1-carboxylic acid
> <PUBCHEM_IUPAC_NAME>
(2R)-2-ethenyl-1-[[(2S,4R)-1-[(2S)-2-[(2-methylpropan-2-yl)oxycarbonylamino]-3-phenylmethoxybutanoyl]-4-quinolin-4-yloxypyrrolidine-2-carbonyl]amino]cyclopropane-1-carboxylic acid
> <PUBCHEM_IUPAC_SYSTEMATIC_NAME>
(2R)-2-ethenyl-1-[[(2S,4R)-1-[(2S)-2-[(2-methylpropan-2-yl)oxycarbonylamino]-3-phenylmethoxy-butanoyl]-4-quinolin-4-yloxy-pyrrolidin-2-yl]carbonylamino]cyclopropane-1-carboxylic acid
> <PUBCHEM_IUPAC_TRADITIONAL_NAME>
(2R)-1-[[(2S,4R)-1-[(2S)-3-benzoxy-2-(tert-butoxycarbonylamino)butanoyl]-4-(4-quinolyloxy)prolyl]amino]-2-vinyl-cyclopropanecarboxylic acid
> <PUBCHEM_IUPAC_INCHI>
InChI=1S/C36H42N4O8/c1-6-24-19-36(24,33(43)44)39-31(41)28-18-25(47-29-16-17-37-27-15-11-10-14-26(27)29)20-40(28)32(42)30(38-34(45)48-35(3,4)5)22(2)46-21-23-12-8-7-9-13-23/h6-17,22,24-25,28,30H,1,18-21H2,2-5H3,(H,38,45)(H,39,41)(H,43,44)/t22?,24-,25+,28-,30-,36?/m0/s1
> <PUBCHEM_IUPAC_INCHIKEY>
YSQAPOQIDDNUIC-SDSIGUQDSA-N
> <PUBCHEM_XLOGP3_AA>
4.3
> <PUBCHEM_EXACT_MASS>
658.30026431
> <PUBCHEM_MOLECULAR_FORMULA>
C36H42N4O8
> <PUBCHEM_MOLECULAR_WEIGHT>
658.7
> <PUBCHEM_OPENEYE_CAN_SMILES>
CC(C(C(=O)N1CC(CC1C(=O)NC2(CC2C=C)C(=O)O)OC3=CC=NC4=CC=CC=C43)NC(=O)OC(C)(C)C)OCC5=CC=CC=C5
> <PUBCHEM_OPENEYE_ISO_SMILES>
CC([C@@H](C(=O)N1C[C@@H](C[C@H]1C(=O)NC2(C[C@@H]2C=C)C(=O)O)OC3=CC=NC4=CC=CC=C43)NC(=O)OC(C)(C)C)OCC5=CC=CC=C5
> <PUBCHEM_CACTVS_TPSA>
156
> <PUBCHEM_MONOISOTOPIC_WEIGHT>
658.30026431
> <PUBCHEM_TOTAL_CHARGE>
0
> <PUBCHEM_HEAVY_ATOM_COUNT>
48
> <PUBCHEM_ATOM_DEF_STEREO_COUNT>
4
> <PUBCHEM_ATOM_UDEF_STEREO_COUNT>
2
> <PUBCHEM_BOND_DEF_STEREO_COUNT>
0
> <PUBCHEM_BOND_UDEF_STEREO_COUNT>
0
> <PUBCHEM_ISOTOPIC_ATOM_COUNT>
0
> <PUBCHEM_COMPONENT_COUNT>
1
> <PUBCHEM_CACTVS_TAUTO_COUNT>
-1
> <PUBCHEM_COORDINATE_TYPE>
1
5
255
> <PUBCHEM_BONDANNOTATIONS>
25  11  5
12  32  8
12  35  8
13  16  3
14  17  5
18  19  5
26  28  3
27  29  8
27  30  8
29  32  8
29  34  8
21  3  6
30  35  8
32  37  8
34  39  8
37  40  8
38  44  8
38  45  8
39  40  8
44  46  8
45  47  8
46  48  8
47  48  8
$$$$
