500649
  -OEChem-10302200282D
 89 93  0     1  0  0  0  0  0999 V2000
   11.0928   -1.1472    0.0000 O   0  0  0  0  0  0  0  0  0  0  0  0
    4.6660   -1.5655    0.0000 O   0  0  0  0  0  0  0  0  0  0  0  0
    9.5105   -1.8517    0.0000 O   0  0  0  0  0  0  0  0  0  0  0  0
    8.5160   -1.7472    0.0000 O   0  0  0  0  0  0  0  0  0  0  0  0
    8.0160    1.1550    0.0000 O   0  0  0  0  0  0  0  0  0  0  0  0
    3.8569    2.4595    0.0000 O   0  0  0  0  0  0  0  0  0  0  0  0
    5.2581    3.4775    0.0000 O   0  0  0  0  0  0  0  0  0  0  0  0
    8.6970   -0.0246    0.0000 N   0  0  0  0  0  0  0  0  0  0  0  0
    6.6147    0.1369    0.0000 N   0  0  0  0  0  0  0  0  0  0  0  0
    5.4392    1.7550    0.0000 N   0  0  0  0  0  0  0  0  0  0  0  0
    4.6660   -4.5655    0.0000 N   0  0  0  0  0  0  0  0  0  0  0  0
    9.6916   -0.1291    0.0000 C   0  0  3  0  0  0  0  0  0  0  0  0
    9.7961    0.8654    0.0000 C   0  0  2  0  0  0  0  0  0  0  0  0
   10.6051    0.2776    0.0000 C   0  0  0  0  0  0  0  0  0  0  0  0
    7.1147   -0.7291    0.0000 C   0  0  2  0  0  0  0  0  0  0  0  0
   10.0983   -1.0427    0.0000 C   0  0  0  0  0  0  0  0  0  0  0  0
    9.3894    1.7790    0.0000 C   0  0  0  0  0  0  0  0  0  0  0  0
    8.1093   -0.8336    0.0000 C   0  0  0  0  0  0  0  0  0  0  0  0
    6.4456   -1.4722    0.0000 C   0  0  0  0  0  0  0  0  0  0  0  0
    5.5321   -1.0655    0.0000 C   0  0  2  0  0  0  0  0  0  0  0  0
    6.8404    2.7731    0.0000 C   0  0  0  0  0  0  0  0  0  0  0  0
    5.6366   -0.0710    0.0000 C   0  0  0  0  0  0  0  0  0  0  0  0
    6.4337    1.8595    0.0000 C   0  0  1  0  0  0  0  0  0  0  0  0
    7.0215    1.0505    0.0000 C   0  0  0  0  0  0  0  0  0  0  0  0
    7.8350    2.8776    0.0000 C   0  0  0  0  0  0  0  0  0  0  0  0
    6.2526    3.5821    0.0000 C   0  0  0  0  0  0  0  0  0  0  0  0
    8.2417    3.7911    0.0000 C   0  0  0  0  0  0  0  0  0  0  0  0
    6.6594    4.4956    0.0000 C   0  0  0  0  0  0  0  0  0  0  0  0
    7.6539    4.6002    0.0000 C   0  0  0  0  0  0  0  0  0  0  0  0
    9.9771    2.5880    0.0000 C   0  0  0  0  0  0  0  0  0  0  0  0
    4.6660   -2.5655    0.0000 C   0  0  0  0  0  0  0  0  0  0  0  0
    4.8514    2.5640    0.0000 C   0  0  0  0  0  0  0  0  0  0  0  0
    3.8000   -3.0655    0.0000 C   0  0  0  0  0  0  0  0  0  0  0  0
    5.5321   -3.0655    0.0000 C   0  0  0  0  0  0  0  0  0  0  0  0
    3.2691    3.2685    0.0000 C   0  0  0  0  0  0  0  0  0  0  0  0
    3.8000   -4.0655    0.0000 C   0  0  0  0  0  0  0  0  0  0  0  0
    5.5321   -4.0655    0.0000 C   0  0  0  0  0  0  0  0  0  0  0  0
    2.9061   -2.5308    0.0000 C   0  0  0  0  0  0  0  0  0  0  0  0
    2.6813    4.0775    0.0000 C   0  0  0  0  0  0  0  0  0  0  0  0
    2.4601    2.6807    0.0000 C   0  0  0  0  0  0  0  0  0  0  0  0
    4.0781    3.8563    0.0000 C   0  0  0  0  0  0  0  0  0  0  0  0
    2.9061   -4.6002    0.0000 C   0  0  0  0  0  0  0  0  0  0  0  0
    6.3981   -4.5655    0.0000 C   0  0  0  0  0  0  0  0  0  0  0  0
    2.0000   -3.0447    0.0000 C   0  0  0  0  0  0  0  0  0  0  0  0
    2.0000   -4.0863    0.0000 C   0  0  0  0  0  0  0  0  0  0  0  0
    9.1837    0.7684    0.0000 H   0  0  0  0  0  0  0  0  0  0  0  0
   10.9518   -0.2364    0.0000 H   0  0  0  0  0  0  0  0  0  0  0  0
   11.0511    0.7083    0.0000 H   0  0  0  0  0  0  0  0  0  0  0  0
    8.4449    0.5418    0.0000 H   0  0  0  0  0  0  0  0  0  0  0  0
    7.4524   -0.2091    0.0000 H   0  0  0  0  0  0  0  0  0  0  0  0
    8.7728    1.8438    0.0000 H   0  0  0  0  0  0  0  0  0  0  0  0
    6.1356   -2.0092    0.0000 H   0  0  0  0  0  0  0  0  0  0  0  0
    6.9472   -1.8366    0.0000 H   0  0  0  0  0  0  0  0  0  0  0  0
    5.5645   -1.6846    0.0000 H   0  0  0  0  0  0  0  0  0  0  0  0
    6.2238    2.7082    0.0000 H   0  0  0  0  0  0  0  0  0  0  0  0
    5.5718    0.5456    0.0000 H   0  0  0  0  0  0  0  0  0  0  0  0
    5.0166   -0.0710    0.0000 H   0  0  0  0  0  0  0  0  0  0  0  0
    6.1815    1.2931    0.0000 H   0  0  0  0  0  0  0  0  0  0  0  0
    7.7917    2.2591    0.0000 H   0  0  0  0  0  0  0  0  0  0  0  0
    8.4365    2.7276    0.0000 H   0  0  0  0  0  0  0  0  0  0  0  0
    5.7386    3.9288    0.0000 H   0  0  0  0  0  0  0  0  0  0  0  0
    5.8220    3.1361    0.0000 H   0  0  0  0  0  0  0  0  0  0  0  0
    8.7557    3.4444    0.0000 H   0  0  0  0  0  0  0  0  0  0  0  0
    8.6724    4.2371    0.0000 H   0  0  0  0  0  0  0  0  0  0  0  0
    6.7026    5.1141    0.0000 H   0  0  0  0  0  0  0  0  0  0  0  0
    6.0578    4.6456    0.0000 H   0  0  0  0  0  0  0  0  0  0  0  0
    8.2112    4.8719    0.0000 H   0  0  0  0  0  0  0  0  0  0  0  0
    7.4830    5.1961    0.0000 H   0  0  0  0  0  0  0  0  0  0  0  0
   10.5937    2.5232    0.0000 H   0  0  0  0  0  0  0  0  0  0  0  0
    9.7250    3.1544    0.0000 H   0  0  0  0  0  0  0  0  0  0  0  0
   11.3450   -1.7136    0.0000 H   0  0  0  0  0  0  0  0  0  0  0  0
    5.1870    1.1886    0.0000 H   0  0  0  0  0  0  0  0  0  0  0  0
    6.0690   -2.7555    0.0000 H   0  0  0  0  0  0  0  0  0  0  0  0
    2.9132   -1.9109    0.0000 H   0  0  0  0  0  0  0  0  0  0  0  0
    3.1829    4.4419    0.0000 H   0  0  0  0  0  0  0  0  0  0  0  0
    2.3169    4.5791    0.0000 H   0  0  0  0  0  0  0  0  0  0  0  0
    2.1797    3.7131    0.0000 H   0  0  0  0  0  0  0  0  0  0  0  0
    2.0956    3.1823    0.0000 H   0  0  0  0  0  0  0  0  0  0  0  0
    1.9585    2.3163    0.0000 H   0  0  0  0  0  0  0  0  0  0  0  0
    2.8245    2.1791    0.0000 H   0  0  0  0  0  0  0  0  0  0  0  0
    4.4425    3.3547    0.0000 H   0  0  0  0  0  0  0  0  0  0  0  0
    4.5797    4.2207    0.0000 H   0  0  0  0  0  0  0  0  0  0  0  0
    3.7137    4.3579    0.0000 H   0  0  0  0  0  0  0  0  0  0  0  0
    2.9132   -5.2201    0.0000 H   0  0  0  0  0  0  0  0  0  0  0  0
    6.0881   -5.1024    0.0000 H   0  0  0  0  0  0  0  0  0  0  0  0
    6.9350   -4.8755    0.0000 H   0  0  0  0  0  0  0  0  0  0  0  0
    6.7081   -4.0286    0.0000 H   0  0  0  0  0  0  0  0  0  0  0  0
    1.4643   -2.7326    0.0000 H   0  0  0  0  0  0  0  0  0  0  0  0
    1.4643   -4.3984    0.0000 H   0  0  0  0  0  0  0  0  0  0  0  0
  1 16  1  0  0  0  0
  1 71  1  0  0  0  0
 20  2  1  1  0  0  0
  2 31  1  0  0  0  0
  3 16  2  0  0  0  0
  4 18  2  0  0  0  0
  5 24  2  0  0  0  0
  6 32  1  0  0  0  0
  6 35  1  0  0  0  0
  7 32  2  0  0  0  0
  8 12  1  0  0  0  0
  8 18  1  0  0  0  0
  8 49  1  0  0  0  0
  9 15  1  0  0  0  0
  9 22  1  0  0  0  0
  9 24  1  0  0  0  0
 23 10  1  1  0  0  0
 10 32  1  0  0  0  0
 10 72  1  0  0  0  0
 11 36  1  0  0  0  0
 11 37  2  0  0  0  0
 12 13  1  0  0  0  0
 12 14  1  0  0  0  0
 12 16  1  0  0  0  0
 13 14  1  0  0  0  0
 13 17  1  1  0  0  0
 13 46  1  0  0  0  0
 14 47  1  0  0  0  0
 14 48  1  0  0  0  0
 15 18  1  6  0  0  0
 15 19  1  0  0  0  0
 15 50  1  0  0  0  0
 17 30  2  0  0  0  0
 17 51  1  0  0  0  0
 19 20  1  0  0  0  0
 19 52  1  0  0  0  0
 19 53  1  0  0  0  0
 20 22  1  0  0  0  0
 20 54  1  0  0  0  0
 21 23  1  0  0  0  0
 21 25  1  0  0  0  0
 21 26  1  0  0  0  0
 21 55  1  0  0  0  0
 22 56  1  0  0  0  0
 22 57  1  0  0  0  0
 23 24  1  0  0  0  0
 23 58  1  0  0  0  0
 25 27  1  0  0  0  0
 25 59  1  0  0  0  0
 25 60  1  0  0  0  0
 26 28  1  0  0  0  0
 26 61  1  0  0  0  0
 26 62  1  0  0  0  0
 27 29  1  0  0  0  0
 27 63  1  0  0  0  0
 27 64  1  0  0  0  0
 28 29  1  0  0  0  0
 28 65  1  0  0  0  0
 28 66  1  0  0  0  0
 29 67  1  0  0  0  0
 29 68  1  0  0  0  0
 30 69  1  0  0  0  0
 30 70  1  0  0  0  0
 31 33  1  0  0  0  0
 31 34  2  0  0  0  0
 33 36  1  0  0  0  0
 33 38  2  0  0  0  0
 34 37  1  0  0  0  0
 34 73  1  0  0  0  0
 35 39  1  0  0  0  0
 35 40  1  0  0  0  0
 35 41  1  0  0  0  0
 36 42  2  0  0  0  0
 37 43  1  0  0  0  0
 38 44  1  0  0  0  0
 38 74  1  0  0  0  0
 39 75  1  0  0  0  0
 39 76  1  0  0  0  0
 39 77  1  0  0  0  0
 40 78  1  0  0  0  0
 40 79  1  0  0  0  0
 40 80  1  0  0  0  0
 41 81  1  0  0  0  0
 41 82  1  0  0  0  0
 41 83  1  0  0  0  0
 42 45  1  0  0  0  0
 42 84  1  0  0  0  0
 43 85  1  0  0  0  0
 43 86  1  0  0  0  0
 43 87  1  0  0  0  0
 44 45  2  0  0  0  0
 44 88  1  0  0  0  0
 45 89  1  0  0  0  0
M  END
> <PUBCHEM_COMPOUND_CID>
500649
> <PUBCHEM_COMPOUND_CANONICALIZED>
1
> <PUBCHEM_CACTVS_COMPLEXITY>
1130
> <PUBCHEM_CACTVS_HBOND_ACCEPTOR>
8
> <PUBCHEM_CACTVS_HBOND_DONOR>
3
> <PUBCHEM_CACTVS_ROTATABLE_BOND>
11
> <PUBCHEM_CACTVS_SUBSKEYS>
AAADcfB/uAAAAAAAAAAAAAAAGAAAAWAAAAA8YIAAAAAAAACx8AAAHgAQCAAADfzhngYyzvPIFgCoAyXyXACCiCAhIiAImKG+bJkOZvLEsbufeCjm1hnY6Ae6yaCOAAAAAAACAAAAAAAAAAQAAAAAAAAAAA==
> <PUBCHEM_IUPAC_OPENEYE_NAME>
(2R)-1-[[(2S,4R)-1-[(2S)-2-(tert-butoxycarbonylamino)-2-cyclohexyl-acetyl]-4-[(2-methyl-4-quinolyl)oxy]pyrrolidine-2-carbonyl]amino]-2-vinyl-cyclopropanecarboxylic acid
> <PUBCHEM_IUPAC_CAS_NAME>
(2R)-1-[[[(2S,4R)-1-[(2S)-2-cyclohexyl-2-[[(2-methylpropan-2-yl)oxy-oxomethyl]amino]-1-oxoethyl]-4-[(2-methyl-4-quinolinyl)oxy]-2-pyrrolidinyl]-oxomethyl]amino]-2-ethenyl-1-cyclopropanecarboxylic acid
> <PUBCHEM_IUPAC_NAME_MARKUP>
(2<I>R</I>)-1-[[(2<I>S</I>,4<I>R</I>)-1-[(2<I>S</I>)-2-cyclohexyl-2-[(2-methylpropan-2-yl)oxycarbonylamino]acetyl]-4-(2-methylquinolin-4-yl)oxypyrrolidine-2-carbonyl]amino]-2-ethenylcyclopropane-1-carboxylic acid
> <PUBCHEM_IUPAC_NAME>
(2R)-1-[[(2S,4R)-1-[(2S)-2-cyclohexyl-2-[(2-methylpropan-2-yl)oxycarbonylamino]acetyl]-4-(2-methylquinolin-4-yl)oxypyrrolidine-2-carbonyl]amino]-2-ethenylcyclopropane-1-carboxylic acid
> <PUBCHEM_IUPAC_SYSTEMATIC_NAME>
(2R)-1-[[(2S,4R)-1-[(2S)-2-cyclohexyl-2-[(2-methylpropan-2-yl)oxycarbonylamino]ethanoyl]-4-(2-methylquinolin-4-yl)oxy-pyrrolidin-2-yl]carbonylamino]-2-ethenyl-cyclopropane-1-carboxylic acid
> <PUBCHEM_IUPAC_TRADITIONAL_NAME>
(2R)-1-[[(2S,4R)-1-[(2S)-2-(tert-butoxycarbonylamino)-2-cyclohexyl-acetyl]-4-[(2-methyl-4-quinolyl)oxy]prolyl]amino]-2-vinyl-cyclopropanecarboxylic acid
> <PUBCHEM_IUPAC_INCHI>
InChI=1S/C34H44N4O7/c1-6-22-18-34(22,31(41)42)37-29(39)26-17-23(44-27-16-20(2)35-25-15-11-10-14-24(25)27)19-38(26)30(40)28(21-12-8-7-9-13-21)36-32(43)45-33(3,4)5/h6,10-11,14-16,21-23,26,28H,1,7-9,12-13,17-19H2,2-5H3,(H,36,43)(H,37,39)(H,41,42)/t22-,23+,26-,28-,34?/m0/s1
> <PUBCHEM_IUPAC_INCHIKEY>
ZCXLHAJPULDBNO-HEIMZQNDSA-N
> <PUBCHEM_XLOGP3_AA>
5.3
> <PUBCHEM_EXACT_MASS>
620.32099976
> <PUBCHEM_MOLECULAR_FORMULA>
C34H44N4O7
> <PUBCHEM_MOLECULAR_WEIGHT>
620.7
> <PUBCHEM_OPENEYE_CAN_SMILES>
CC1=NC2=CC=CC=C2C(=C1)OC3CC(N(C3)C(=O)C(C4CCCCC4)NC(=O)OC(C)(C)C)C(=O)NC5(CC5C=C)C(=O)O
> <PUBCHEM_OPENEYE_ISO_SMILES>
CC1=NC2=CC=CC=C2C(=C1)O[C@@H]3C[C@H](N(C3)C(=O)[C@H](C4CCCCC4)NC(=O)OC(C)(C)C)C(=O)NC5(C[C@@H]5C=C)C(=O)O
> <PUBCHEM_CACTVS_TPSA>
147
> <PUBCHEM_MONOISOTOPIC_WEIGHT>
620.32099976
> <PUBCHEM_TOTAL_CHARGE>
0
> <PUBCHEM_HEAVY_ATOM_COUNT>
45
> <PUBCHEM_ATOM_DEF_STEREO_COUNT>
4
> <PUBCHEM_ATOM_UDEF_STEREO_COUNT>
1
> <PUBCHEM_BOND_DEF_STEREO_COUNT>
0
> <PUBCHEM_BOND_UDEF_STEREO_COUNT>
0
> <PUBCHEM_ISOTOPIC_ATOM_COUNT>
0
> <PUBCHEM_COMPONENT_COUNT>
1
> <PUBCHEM_CACTVS_TAUTO_COUNT>
-1
> <PUBCHEM_COORDINATE_TYPE>
1
5
255
> <PUBCHEM_BONDANNOTATIONS>
23  10  5
11  36  8
11  37  8
12  16  3
13  17  5
15  18  6
20  2  5
31  33  8
31  34  8
33  36  8
33  38  8
34  37  8
36  42  8
38  44  8
42  45  8
44  45  8
$$$$
