500639
  -OEChem-10302200282D
 92 96  0     1  0  0  0  0  0999 V2000
   12.3574   -1.4169    0.0000 O   0  0  0  0  0  0  0  0  0  0  0  0
   12.5385   -3.1394    0.0000 O   0  0  0  0  0  0  0  0  0  0  0  0
    8.9671   -2.6440    0.0000 O   0  0  0  0  0  0  0  0  0  0  0  0
    8.2861    1.6174    0.0000 O   0  0  0  0  0  0  0  0  0  0  0  0
    7.6050   -2.6440    0.0000 O   0  0  0  0  0  0  0  0  0  0  0  0
    4.3958    0.3057    0.0000 O   0  0  0  0  0  0  0  0  0  0  0  0
    4.2147   -1.4169    0.0000 O   0  0  0  0  0  0  0  0  0  0  0  0
   10.3684   -1.6260    0.0000 N   0  0  0  0  0  0  0  0  0  0  0  0
    7.7861   -0.9215    0.0000 N   0  0  0  0  0  0  0  0  0  0  0  0
    5.7970   -0.7124    0.0000 N   0  0  0  0  0  0  0  0  0  0  0  0
   10.9562   -2.4350    0.0000 C   0  0  3  0  0  0  0  0  0  0  0  0
   11.0607   -3.4295    0.0000 C   0  0  2  0  0  0  0  0  0  0  0  0
   10.1472   -3.0228    0.0000 C   0  0  0  0  0  0  0  0  0  0  0  0
   11.6485   -4.2385    0.0000 C   0  0  0  0  0  0  0  0  0  0  0  0
   11.9507   -2.3304    0.0000 C   0  0  0  0  0  0  0  0  0  0  0  0
    8.7861   -0.9215    0.0000 C   0  0  2  0  0  0  0  0  0  0  0  0
    9.3739   -1.7305    0.0000 C   0  0  0  0  0  0  0  0  0  0  0  0
   11.2418   -5.1520    0.0000 C   0  0  0  0  0  0  0  0  0  0  0  0
    9.0951    0.0296    0.0000 C   0  0  0  0  0  0  0  0  0  0  0  0
    8.2861    0.6174    0.0000 C   0  0  2  0  0  0  0  0  0  0  0  0
    7.4771    0.0296    0.0000 C   0  0  0  0  0  0  0  0  0  0  0  0
    5.6160   -2.4350    0.0000 C   0  0  0  0  0  0  0  0  0  0  0  0
    6.2038   -1.6260    0.0000 C   0  0  1  0  0  0  0  0  0  0  0  0
    7.1983   -1.7305    0.0000 C   0  0  0  0  0  0  0  0  0  0  0  0
    4.6215   -2.3304    0.0000 C   0  0  0  0  0  0  0  0  0  0  0  0
    6.0227   -3.3485    0.0000 C   0  0  0  0  0  0  0  0  0  0  0  0
    4.0337   -3.1394    0.0000 C   0  0  0  0  0  0  0  0  0  0  0  0
    5.4349   -4.1575    0.0000 C   0  0  0  0  0  0  0  0  0  0  0  0
    4.4404   -4.0530    0.0000 C   0  0  0  0  0  0  0  0  0  0  0  0
    9.1521    2.1174    0.0000 C   0  0  0  0  0  0  0  0  0  0  0  0
    4.8025   -0.6079    0.0000 C   0  0  0  0  0  0  0  0  0  0  0  0
    9.1521    3.1174    0.0000 C   0  0  0  0  0  0  0  0  0  0  0  0
   10.0181    3.6174    0.0000 C   0  0  0  0  0  0  0  0  0  0  0  0
    8.2861    3.6174    0.0000 C   0  0  0  0  0  0  0  0  0  0  0  0
    3.4013    0.4102    0.0000 C   0  0  0  0  0  0  0  0  0  0  0  0
   10.0181    4.6174    0.0000 C   0  0  0  0  0  0  0  0  0  0  0  0
    8.2861    4.6174    0.0000 C   0  0  0  0  0  0  0  0  0  0  0  0
   10.9121    3.0827    0.0000 C   0  0  0  0  0  0  0  0  0  0  0  0
    2.9945    1.3238    0.0000 C   0  0  0  0  0  0  0  0  0  0  0  0
    9.1521    5.1174    0.0000 C   0  0  0  0  0  0  0  0  0  0  0  0
   10.9121    5.1520    0.0000 C   0  0  0  0  0  0  0  0  0  0  0  0
   11.8181    3.5966    0.0000 C   0  0  0  0  0  0  0  0  0  0  0  0
    2.0000    1.4283    0.0000 C   0  0  0  0  0  0  0  0  0  0  0  0
    3.5823    2.1328    0.0000 C   0  0  0  0  0  0  0  0  0  0  0  0
   11.8181    4.6382    0.0000 C   0  0  0  0  0  0  0  0  0  0  0  0
   10.6705   -3.9113    0.0000 H   0  0  0  0  0  0  0  0  0  0  0  0
    9.7012   -2.5921    0.0000 H   0  0  0  0  0  0  0  0  0  0  0  0
    9.8005   -3.5368    0.0000 H   0  0  0  0  0  0  0  0  0  0  0  0
   12.1625   -4.5852    0.0000 H   0  0  0  0  0  0  0  0  0  0  0  0
   12.0792   -3.7925    0.0000 H   0  0  0  0  0  0  0  0  0  0  0  0
   10.6206   -1.0596    0.0000 H   0  0  0  0  0  0  0  0  0  0  0  0
    8.5046   -1.4739    0.0000 H   0  0  0  0  0  0  0  0  0  0  0  0
   10.6754   -4.8999    0.0000 H   0  0  0  0  0  0  0  0  0  0  0  0
   10.9896   -5.7184    0.0000 H   0  0  0  0  0  0  0  0  0  0  0  0
   11.8082   -5.4042    0.0000 H   0  0  0  0  0  0  0  0  0  0  0  0
    9.6615   -0.2226    0.0000 H   0  0  0  0  0  0  0  0  0  0  0  0
    9.4051    0.5665    0.0000 H   0  0  0  0  0  0  0  0  0  0  0  0
    8.8385    0.8989    0.0000 H   0  0  0  0  0  0  0  0  0  0  0  0
    7.1671    0.5665    0.0000 H   0  0  0  0  0  0  0  0  0  0  0  0
    6.9107   -0.2226    0.0000 H   0  0  0  0  0  0  0  0  0  0  0  0
    6.2326   -2.4998    0.0000 H   0  0  0  0  0  0  0  0  0  0  0  0
    5.5872   -1.5611    0.0000 H   0  0  0  0  0  0  0  0  0  0  0  0
   12.9740   -1.3521    0.0000 H   0  0  0  0  0  0  0  0  0  0  0  0
    4.7924   -1.7344    0.0000 H   0  0  0  0  0  0  0  0  0  0  0  0
    4.0642   -2.0586    0.0000 H   0  0  0  0  0  0  0  0  0  0  0  0
    6.4534   -3.7945    0.0000 H   0  0  0  0  0  0  0  0  0  0  0  0
    6.5367   -3.0018    0.0000 H   0  0  0  0  0  0  0  0  0  0  0  0
    3.6030   -2.6935    0.0000 H   0  0  0  0  0  0  0  0  0  0  0  0
    3.5197   -3.4862    0.0000 H   0  0  0  0  0  0  0  0  0  0  0  0
    5.2640   -4.7535    0.0000 H   0  0  0  0  0  0  0  0  0  0  0  0
    5.9922   -4.4293    0.0000 H   0  0  0  0  0  0  0  0  0  0  0  0
    3.8388   -4.2030    0.0000 H   0  0  0  0  0  0  0  0  0  0  0  0
    4.4837   -4.6715    0.0000 H   0  0  0  0  0  0  0  0  0  0  0  0
    6.1615   -0.2108    0.0000 H   0  0  0  0  0  0  0  0  0  0  0  0
    9.3642    1.5348    0.0000 H   0  0  0  0  0  0  0  0  0  0  0  0
    9.7627    2.2250    0.0000 H   0  0  0  0  0  0  0  0  0  0  0  0
    7.7492    3.3074    0.0000 H   0  0  0  0  0  0  0  0  0  0  0  0
    2.7997    0.2602    0.0000 H   0  0  0  0  0  0  0  0  0  0  0  0
    3.4445   -0.2083    0.0000 H   0  0  0  0  0  0  0  0  0  0  0  0
    7.7492    4.9274    0.0000 H   0  0  0  0  0  0  0  0  0  0  0  0
   10.9049    2.4628    0.0000 H   0  0  0  0  0  0  0  0  0  0  0  0
    3.6111    1.2589    0.0000 H   0  0  0  0  0  0  0  0  0  0  0  0
    9.1521    5.7374    0.0000 H   0  0  0  0  0  0  0  0  0  0  0  0
   10.9049    5.7720    0.0000 H   0  0  0  0  0  0  0  0  0  0  0  0
   12.3539    3.2845    0.0000 H   0  0  0  0  0  0  0  0  0  0  0  0
    2.0648    2.0449    0.0000 H   0  0  0  0  0  0  0  0  0  0  0  0
    1.3834    1.4931    0.0000 H   0  0  0  0  0  0  0  0  0  0  0  0
    1.9352    0.8117    0.0000 H   0  0  0  0  0  0  0  0  0  0  0  0
    4.0839    1.7683    0.0000 H   0  0  0  0  0  0  0  0  0  0  0  0
    3.9467    2.6344    0.0000 H   0  0  0  0  0  0  0  0  0  0  0  0
    3.0807    2.4972    0.0000 H   0  0  0  0  0  0  0  0  0  0  0  0
   12.3539    4.9503    0.0000 H   0  0  0  0  0  0  0  0  0  0  0  0
  1 15  1  0  0  0  0
  1 63  1  0  0  0  0
  2 15  2  0  0  0  0
  3 17  2  0  0  0  0
 20  4  1  6  0  0  0
  4 30  1  0  0  0  0
  5 24  2  0  0  0  0
  6 31  1  0  0  0  0
  6 35  1  0  0  0  0
  7 31  2  0  0  0  0
  8 11  1  0  0  0  0
  8 17  1  0  0  0  0
  8 51  1  0  0  0  0
  9 16  1  0  0  0  0
  9 21  1  0  0  0  0
  9 24  1  0  0  0  0
 23 10  1  6  0  0  0
 10 31  1  0  0  0  0
 10 74  1  0  0  0  0
 11 12  1  0  0  0  0
 11 13  1  0  0  0  0
 11 15  1  0  0  0  0
 12 13  1  0  0  0  0
 12 14  1  1  0  0  0
 12 46  1  0  0  0  0
 13 47  1  0  0  0  0
 13 48  1  0  0  0  0
 14 18  1  0  0  0  0
 14 49  1  0  0  0  0
 14 50  1  0  0  0  0
 16 17  1  1  0  0  0
 16 19  1  0  0  0  0
 16 52  1  0  0  0  0
 18 53  1  0  0  0  0
 18 54  1  0  0  0  0
 18 55  1  0  0  0  0
 19 20  1  0  0  0  0
 19 56  1  0  0  0  0
 19 57  1  0  0  0  0
 20 21  1  0  0  0  0
 20 58  1  0  0  0  0
 21 59  1  0  0  0  0
 21 60  1  0  0  0  0
 22 23  1  0  0  0  0
 22 25  1  0  0  0  0
 22 26  1  0  0  0  0
 22 61  1  0  0  0  0
 23 24  1  0  0  0  0
 23 62  1  0  0  0  0
 25 27  1  0  0  0  0
 25 64  1  0  0  0  0
 25 65  1  0  0  0  0
 26 28  1  0  0  0  0
 26 66  1  0  0  0  0
 26 67  1  0  0  0  0
 27 29  1  0  0  0  0
 27 68  1  0  0  0  0
 27 69  1  0  0  0  0
 28 29  1  0  0  0  0
 28 70  1  0  0  0  0
 28 71  1  0  0  0  0
 29 72  1  0  0  0  0
 29 73  1  0  0  0  0
 30 32  1  0  0  0  0
 30 75  1  0  0  0  0
 30 76  1  0  0  0  0
 32 33  1  0  0  0  0
 32 34  2  0  0  0  0
 33 36  1  0  0  0  0
 33 38  2  0  0  0  0
 34 37  1  0  0  0  0
 34 77  1  0  0  0  0
 35 39  1  0  0  0  0
 35 78  1  0  0  0  0
 35 79  1  0  0  0  0
 36 40  1  0  0  0  0
 36 41  2  0  0  0  0
 37 40  2  0  0  0  0
 37 80  1  0  0  0  0
 38 42  1  0  0  0  0
 38 81  1  0  0  0  0
 39 43  1  0  0  0  0
 39 44  1  0  0  0  0
 39 82  1  0  0  0  0
 40 83  1  0  0  0  0
 41 45  1  0  0  0  0
 41 84  1  0  0  0  0
 42 45  2  0  0  0  0
 42 85  1  0  0  0  0
 43 86  1  0  0  0  0
 43 87  1  0  0  0  0
 43 88  1  0  0  0  0
 44 89  1  0  0  0  0
 44 90  1  0  0  0  0
 44 91  1  0  0  0  0
 45 92  1  0  0  0  0
M  END
> <PUBCHEM_COMPOUND_CID>
500639
> <PUBCHEM_COMPOUND_CANONICALIZED>
1
> <PUBCHEM_CACTVS_COMPLEXITY>
1060
> <PUBCHEM_CACTVS_HBOND_ACCEPTOR>
7
> <PUBCHEM_CACTVS_HBOND_DONOR>
3
> <PUBCHEM_CACTVS_ROTATABLE_BOND>
13
> <PUBCHEM_CACTVS_SUBSKEYS>
AAADcfB/OAAAAAAAAAAAAAAAGAAAAWAAAAAwYMAAAAAAAADBUAAAHgAQCAAADbzhmAYyCMPABgCIAiHSGAACAAAgAAAIiIGICIkKZjKAsTifcAAm1gGYqAe6yeCOgAACAAAQAAAAAAQAACAAAAAAAAAAAA==
> <PUBCHEM_IUPAC_OPENEYE_NAME>
(2S)-1-[[(2S,4R)-1-[(2S)-2-cyclohexyl-2-(isobutoxycarbonylamino)acetyl]-4-(1-naphthylmethoxy)pyrrolidine-2-carbonyl]amino]-2-ethyl-cyclopropanecarboxylic acid
> <PUBCHEM_IUPAC_CAS_NAME>
(2S)-1-[[[(2S,4R)-1-[(2S)-2-cyclohexyl-2-[[2-methylpropoxy(oxo)methyl]amino]-1-oxoethyl]-4-(1-naphthalenylmethoxy)-2-pyrrolidinyl]-oxomethyl]amino]-2-ethyl-1-cyclopropanecarboxylic acid
> <PUBCHEM_IUPAC_NAME_MARKUP>
(2<I>S</I>)-1-[[(2<I>S</I>,4<I>R</I>)-1-[(2<I>S</I>)-2-cyclohexyl-2-(2-methylpropoxycarbonylamino)acetyl]-4-(naphthalen-1-ylmethoxy)pyrrolidine-2-carbonyl]amino]-2-ethylcyclopropane-1-carboxylic acid
> <PUBCHEM_IUPAC_NAME>
(2S)-1-[[(2S,4R)-1-[(2S)-2-cyclohexyl-2-(2-methylpropoxycarbonylamino)acetyl]-4-(naphthalen-1-ylmethoxy)pyrrolidine-2-carbonyl]amino]-2-ethylcyclopropane-1-carboxylic acid
> <PUBCHEM_IUPAC_SYSTEMATIC_NAME>
(2S)-1-[[(2S,4R)-1-[(2S)-2-cyclohexyl-2-(2-methylpropoxycarbonylamino)ethanoyl]-4-(naphthalen-1-ylmethoxy)pyrrolidin-2-yl]carbonylamino]-2-ethyl-cyclopropane-1-carboxylic acid
> <PUBCHEM_IUPAC_TRADITIONAL_NAME>
(2S)-1-[[(2S,4R)-1-[(2S)-2-cyclohexyl-2-(isobutoxycarbonylamino)acetyl]-4-(1-naphthylmethoxy)prolyl]amino]-2-ethyl-cyclopropanecarboxylic acid
> <PUBCHEM_IUPAC_INCHI>
InChI=1S/C35H47N3O7/c1-4-26-18-35(26,33(41)42)37-31(39)29-17-27(44-21-25-15-10-14-23-11-8-9-16-28(23)25)19-38(29)32(40)30(24-12-6-5-7-13-24)36-34(43)45-20-22(2)3/h8-11,14-16,22,24,26-27,29-30H,4-7,12-13,17-21H2,1-3H3,(H,36,43)(H,37,39)(H,41,42)/t26-,27+,29-,30-,35?/m0/s1
> <PUBCHEM_IUPAC_INCHIKEY>
UINIUABSGNQPKG-JXRUBBMYSA-N
> <PUBCHEM_XLOGP3_AA>
6.1
> <PUBCHEM_EXACT_MASS>
621.34140085
> <PUBCHEM_MOLECULAR_FORMULA>
C35H47N3O7
> <PUBCHEM_MOLECULAR_WEIGHT>
621.8
> <PUBCHEM_OPENEYE_CAN_SMILES>
CCC1CC1(C(=O)O)NC(=O)C2CC(CN2C(=O)C(C3CCCCC3)NC(=O)OCC(C)C)OCC4=CC=CC5=CC=CC=C54
> <PUBCHEM_OPENEYE_ISO_SMILES>
CC[C@H]1CC1(C(=O)O)NC(=O)[C@@H]2C[C@H](CN2C(=O)[C@H](C3CCCCC3)NC(=O)OCC(C)C)OCC4=CC=CC5=CC=CC=C54
> <PUBCHEM_CACTVS_TPSA>
134
> <PUBCHEM_MONOISOTOPIC_WEIGHT>
621.34140085
> <PUBCHEM_TOTAL_CHARGE>
0
> <PUBCHEM_HEAVY_ATOM_COUNT>
45
> <PUBCHEM_ATOM_DEF_STEREO_COUNT>
4
> <PUBCHEM_ATOM_UDEF_STEREO_COUNT>
1
> <PUBCHEM_BOND_DEF_STEREO_COUNT>
0
> <PUBCHEM_BOND_UDEF_STEREO_COUNT>
0
> <PUBCHEM_ISOTOPIC_ATOM_COUNT>
0
> <PUBCHEM_COMPONENT_COUNT>
1
> <PUBCHEM_CACTVS_TAUTO_COUNT>
-1
> <PUBCHEM_COORDINATE_TYPE>
1
5
255
> <PUBCHEM_BONDANNOTATIONS>
23  10  6
11  15  3
12  14  5
16  17  5
32  33  8
32  34  8
33  36  8
33  38  8
34  37  8
36  40  8
36  41  8
37  40  8
38  42  8
20  4  6
41  45  8
42  45  8
$$$$
