500661
  -OEChem-10302200282D
109115  0     1  0  0  0  0  0999 V2000
    9.9737    4.8959    0.0000 O   0  0  0  0  0  0  0  0  0  0  0  0
   10.1548    3.1733    0.0000 O   0  0  0  0  0  0  0  0  0  0  0  0
    9.7480    2.2598    0.0000 O   0  0  0  0  0  0  0  0  0  0  0  0
    6.3981   -0.4607    0.0000 O   0  0  0  0  0  0  0  0  0  0  0  0
   10.4291    1.0802    0.0000 O   0  0  0  0  0  0  0  0  0  0  0  0
    2.8680   -3.4849    0.0000 O   0  0  0  0  0  0  0  0  0  0  0  0
   14.5882    2.3846    0.0000 O   0  0  0  0  0  0  0  0  0  0  0  0
   13.1870    3.4027    0.0000 O   0  0  0  0  0  0  0  0  0  0  0  0
    8.1657    2.9643    0.0000 N   0  0  0  0  0  0  0  0  0  0  0  0
    8.8468    0.3757    0.0000 N   0  0  0  0  0  0  0  0  0  0  0  0
   11.2426   -0.7469    0.0000 N   0  0  0  0  0  0  0  0  0  0  0  0
    6.3981   -3.4607    0.0000 N   0  0  0  0  0  0  0  0  0  0  0  0
    7.6589    4.2846    0.0000 C   0  0  2  0  0  0  0  0  0  0  0  0
    6.6644    4.1800    0.0000 C   0  0  0  0  0  0  0  0  0  0  0  0
    8.5725    3.8778    0.0000 C   0  0  3  0  0  0  0  0  0  0  0  0
    8.4679    4.8724    0.0000 C   0  0  0  0  0  0  0  0  0  0  0  0
    5.8554    3.5922    0.0000 C   0  0  0  0  0  0  0  0  0  0  0  0
    5.7508    4.5868    0.0000 C   0  0  0  0  0  0  0  0  0  0  0  0
    9.5670    3.9824    0.0000 C   0  0  0  0  0  0  0  0  0  0  0  0
    8.7535    2.1553    0.0000 C   0  0  0  0  0  0  0  0  0  0  0  0
    8.3468    1.2417    0.0000 C   0  0  2  0  0  0  0  0  0  0  0  0
    7.3686    1.0338    0.0000 C   0  0  0  0  0  0  0  0  0  0  0  0
    7.2641    0.0393    0.0000 C   0  0  2  0  0  0  0  0  0  0  0  0
    8.1776   -0.3674    0.0000 C   0  0  0  0  0  0  0  0  0  0  0  0
    9.8413    0.2712    0.0000 C   0  0  0  0  0  0  0  0  0  0  0  0
   10.2480   -0.6424    0.0000 C   0  0  2  0  0  0  0  0  0  0  0  0
    9.6602   -1.4514    0.0000 C   0  0  0  0  0  0  0  0  0  0  0  0
    6.3981   -1.4607    0.0000 C   0  0  0  0  0  0  0  0  0  0  0  0
    8.8512   -0.8636    0.0000 C   0  0  0  0  0  0  0  0  0  0  0  0
    9.0725   -2.2604    0.0000 C   0  0  0  0  0  0  0  0  0  0  0  0
   10.4693   -2.0392    0.0000 C   0  0  0  0  0  0  0  0  0  0  0  0
    5.5320   -1.9607    0.0000 C   0  0  0  0  0  0  0  0  0  0  0  0
   11.8303    0.0621    0.0000 C   0  0  0  0  0  0  0  0  0  0  0  0
    7.2641   -1.9607    0.0000 C   0  0  0  0  0  0  0  0  0  0  0  0
    5.5320   -2.9607    0.0000 C   0  0  0  0  0  0  0  0  0  0  0  0
    7.2641   -2.9607    0.0000 C   0  0  0  0  0  0  0  0  0  0  0  0
    4.6381   -1.4260    0.0000 C   0  0  0  0  0  0  0  0  0  0  0  0
   11.4236    0.9757    0.0000 C   0  0  0  0  0  0  0  0  0  0  0  0
   12.8249   -0.0424    0.0000 C   0  0  0  0  0  0  0  0  0  0  0  0
    4.6381   -3.4954    0.0000 C   0  0  0  0  0  0  0  0  0  0  0  0
    3.7320   -1.9399    0.0000 C   0  0  0  0  0  0  0  0  0  0  0  0
    8.1301   -3.4607    0.0000 C   0  0  0  0  0  0  0  0  0  0  0  0
   12.0114    1.7847    0.0000 C   0  0  0  0  0  0  0  0  0  0  0  0
   13.4126    0.7666    0.0000 C   0  0  0  0  0  0  0  0  0  0  0  0
    3.7320   -2.9815    0.0000 C   0  0  0  0  0  0  0  0  0  0  0  0
   13.0059    1.6802    0.0000 C   0  0  0  0  0  0  0  0  0  0  0  0
    8.9962   -2.9607    0.0000 C   0  0  0  0  0  0  0  0  0  0  0  0
    8.1301   -4.4607    0.0000 C   0  0  0  0  0  0  0  0  0  0  0  0
   13.5937    2.4892    0.0000 C   0  0  0  0  0  0  0  0  0  0  0  0
    9.8622   -3.4607    0.0000 C   0  0  0  0  0  0  0  0  0  0  0  0
    8.9962   -4.9607    0.0000 C   0  0  0  0  0  0  0  0  0  0  0  0
    9.8622   -4.4607    0.0000 C   0  0  0  0  0  0  0  0  0  0  0  0
    2.0000   -2.9882    0.0000 C   0  0  0  0  0  0  0  0  0  0  0  0
   15.1760    3.1936    0.0000 C   0  0  0  0  0  0  0  0  0  0  0  0
   15.7638    4.0027    0.0000 C   0  0  0  0  0  0  0  0  0  0  0  0
   15.9850    2.6059    0.0000 C   0  0  0  0  0  0  0  0  0  0  0  0
   14.3670    3.7814    0.0000 C   0  0  0  0  0  0  0  0  0  0  0  0
    7.5260    3.4450    0.0000 H   0  0  0  0  0  0  0  0  0  0  0  0
    6.8866    3.6012    0.0000 H   0  0  0  0  0  0  0  0  0  0  0  0
    9.0639    5.0432    0.0000 H   0  0  0  0  0  0  0  0  0  0  0  0
    8.1961    5.4296    0.0000 H   0  0  0  0  0  0  0  0  0  0  0  0
    5.2594    3.4214    0.0000 H   0  0  0  0  0  0  0  0  0  0  0  0
    6.1272    3.0350    0.0000 H   0  0  0  0  0  0  0  0  0  0  0  0
    5.9008    5.1884    0.0000 H   0  0  0  0  0  0  0  0  0  0  0  0
    5.1324    4.6300    0.0000 H   0  0  0  0  0  0  0  0  0  0  0  0
    7.5491    2.8995    0.0000 H   0  0  0  0  0  0  0  0  0  0  0  0
    8.9659    1.2742    0.0000 H   0  0  0  0  0  0  0  0  0  0  0  0
   10.5903    4.9607    0.0000 H   0  0  0  0  0  0  0  0  0  0  0  0
    7.3038    1.6504    0.0000 H   0  0  0  0  0  0  0  0  0  0  0  0
    6.7486    1.0338    0.0000 H   0  0  0  0  0  0  0  0  0  0  0  0
    6.7441    0.3770    0.0000 H   0  0  0  0  0  0  0  0  0  0  0  0
    7.8676   -0.9044    0.0000 H   0  0  0  0  0  0  0  0  0  0  0  0
    8.6792   -0.7319    0.0000 H   0  0  0  0  0  0  0  0  0  0  0  0
   10.6125   -0.1408    0.0000 H   0  0  0  0  0  0  0  0  0  0  0  0
   11.4947   -1.3133    0.0000 H   0  0  0  0  0  0  0  0  0  0  0  0
    9.2157   -0.3620    0.0000 H   0  0  0  0  0  0  0  0  0  0  0  0
    8.3496   -0.4992    0.0000 H   0  0  0  0  0  0  0  0  0  0  0  0
    8.4868   -1.3652    0.0000 H   0  0  0  0  0  0  0  0  0  0  0  0
    8.5709   -1.8960    0.0000 H   0  0  0  0  0  0  0  0  0  0  0  0
    8.7080   -2.7620    0.0000 H   0  0  0  0  0  0  0  0  0  0  0  0
    9.5740   -2.6248    0.0000 H   0  0  0  0  0  0  0  0  0  0  0  0
   10.1048   -2.5408    0.0000 H   0  0  0  0  0  0  0  0  0  0  0  0
   10.9709   -2.4036    0.0000 H   0  0  0  0  0  0  0  0  0  0  0  0
   10.8337   -1.5376    0.0000 H   0  0  0  0  0  0  0  0  0  0  0  0
    7.8010   -1.6507    0.0000 H   0  0  0  0  0  0  0  0  0  0  0  0
    4.6453   -0.8061    0.0000 H   0  0  0  0  0  0  0  0  0  0  0  0
   10.8070    1.0405    0.0000 H   0  0  0  0  0  0  0  0  0  0  0  0
   13.0770   -0.6088    0.0000 H   0  0  0  0  0  0  0  0  0  0  0  0
    4.6453   -4.1153    0.0000 H   0  0  0  0  0  0  0  0  0  0  0  0
    3.1963   -1.6278    0.0000 H   0  0  0  0  0  0  0  0  0  0  0  0
   11.7592    2.3511    0.0000 H   0  0  0  0  0  0  0  0  0  0  0  0
   14.0293    0.7018    0.0000 H   0  0  0  0  0  0  0  0  0  0  0  0
    8.9962   -2.3407    0.0000 H   0  0  0  0  0  0  0  0  0  0  0  0
    7.5932   -4.7707    0.0000 H   0  0  0  0  0  0  0  0  0  0  0  0
   10.3991   -3.1507    0.0000 H   0  0  0  0  0  0  0  0  0  0  0  0
    8.9962   -5.5807    0.0000 H   0  0  0  0  0  0  0  0  0  0  0  0
   10.3991   -4.7707    0.0000 H   0  0  0  0  0  0  0  0  0  0  0  0
    2.3079   -2.4501    0.0000 H   0  0  0  0  0  0  0  0  0  0  0  0
    1.4619   -2.6803    0.0000 H   0  0  0  0  0  0  0  0  0  0  0  0
    1.6921   -3.5263    0.0000 H   0  0  0  0  0  0  0  0  0  0  0  0
   16.2654    3.6382    0.0000 H   0  0  0  0  0  0  0  0  0  0  0  0
   16.1282    4.5043    0.0000 H   0  0  0  0  0  0  0  0  0  0  0  0
   15.2622    4.3671    0.0000 H   0  0  0  0  0  0  0  0  0  0  0  0
   15.6206    2.1043    0.0000 H   0  0  0  0  0  0  0  0  0  0  0  0
   16.4866    2.2414    0.0000 H   0  0  0  0  0  0  0  0  0  0  0  0
   16.3494    3.1075    0.0000 H   0  0  0  0  0  0  0  0  0  0  0  0
   14.7314    4.2830    0.0000 H   0  0  0  0  0  0  0  0  0  0  0  0
   13.8654    4.1459    0.0000 H   0  0  0  0  0  0  0  0  0  0  0  0
   14.0026    3.2798    0.0000 H   0  0  0  0  0  0  0  0  0  0  0  0
  1 19  1  0  0  0  0
  1 68  1  0  0  0  0
  2 19  2  0  0  0  0
  3 20  2  0  0  0  0
 23  4  1  6  0  0  0
  4 28  1  0  0  0  0
  5 25  2  0  0  0  0
  6 45  1  0  0  0  0
  6 53  1  0  0  0  0
  7 49  1  0  0  0  0
  7 54  1  0  0  0  0
  8 49  2  0  0  0  0
  9 15  1  0  0  0  0
  9 20  1  0  0  0  0
  9 66  1  0  0  0  0
 10 21  1  0  0  0  0
 10 24  1  0  0  0  0
 10 25  1  0  0  0  0
 26 11  1  1  0  0  0
 11 33  1  0  0  0  0
 11 75  1  0  0  0  0
 12 35  1  0  0  0  0
 12 36  2  0  0  0  0
 13 14  1  0  0  0  0
 13 15  1  0  0  0  0
 13 16  1  0  0  0  0
 13 58  1  6  0  0  0
 14 17  1  0  0  0  0
 14 18  1  0  0  0  0
 14 59  1  0  0  0  0
 15 16  1  0  0  0  0
 15 19  1  0  0  0  0
 16 60  1  0  0  0  0
 16 61  1  0  0  0  0
 17 18  1  0  0  0  0
 17 62  1  0  0  0  0
 17 63  1  0  0  0  0
 18 64  1  0  0  0  0
 18 65  1  0  0  0  0
 21 20  1  1  0  0  0
 21 22  1  0  0  0  0
 21 67  1  0  0  0  0
 22 23  1  0  0  0  0
 22 69  1  0  0  0  0
 22 70  1  0  0  0  0
 23 24  1  0  0  0  0
 23 71  1  0  0  0  0
 24 72  1  0  0  0  0
 24 73  1  0  0  0  0
 25 26  1  0  0  0  0
 26 27  1  0  0  0  0
 26 74  1  0  0  0  0
 27 29  1  0  0  0  0
 27 30  1  0  0  0  0
 27 31  1  0  0  0  0
 28 32  1  0  0  0  0
 28 34  2  0  0  0  0
 29 76  1  0  0  0  0
 29 77  1  0  0  0  0
 29 78  1  0  0  0  0
 30 79  1  0  0  0  0
 30 80  1  0  0  0  0
 30 81  1  0  0  0  0
 31 82  1  0  0  0  0
 31 83  1  0  0  0  0
 31 84  1  0  0  0  0
 32 35  2  0  0  0  0
 32 37  1  0  0  0  0
 33 38  2  0  0  0  0
 33 39  1  0  0  0  0
 34 36  1  0  0  0  0
 34 85  1  0  0  0  0
 35 40  1  0  0  0  0
 36 42  1  0  0  0  0
 37 41  2  0  0  0  0
 37 86  1  0  0  0  0
 38 43  1  0  0  0  0
 38 87  1  0  0  0  0
 39 44  2  0  0  0  0
 39 88  1  0  0  0  0
 40 45  2  0  0  0  0
 40 89  1  0  0  0  0
 41 45  1  0  0  0  0
 41 90  1  0  0  0  0
 42 47  2  0  0  0  0
 42 48  1  0  0  0  0
 43 46  2  0  0  0  0
 43 91  1  0  0  0  0
 44 46  1  0  0  0  0
 44 92  1  0  0  0  0
 46 49  1  0  0  0  0
 47 50  1  0  0  0  0
 47 93  1  0  0  0  0
 48 51  2  0  0  0  0
 48 94  1  0  0  0  0
 50 52  2  0  0  0  0
 50 95  1  0  0  0  0
 51 52  1  0  0  0  0
 51 96  1  0  0  0  0
 52 97  1  0  0  0  0
 53 98  1  0  0  0  0
 53 99  1  0  0  0  0
 53100  1  0  0  0  0
 54 55  1  0  0  0  0
 54 56  1  0  0  0  0
 54 57  1  0  0  0  0
 55101  1  0  0  0  0
 55102  1  0  0  0  0
 55103  1  0  0  0  0
 56104  1  0  0  0  0
 56105  1  0  0  0  0
 56106  1  0  0  0  0
 57107  1  0  0  0  0
 57108  1  0  0  0  0
 57109  1  0  0  0  0
M  END
> <PUBCHEM_COMPOUND_CID>
500661
> <PUBCHEM_COMPOUND_CANONICALIZED>
1
> <PUBCHEM_CACTVS_COMPLEXITY>
1460
> <PUBCHEM_CACTVS_HBOND_ACCEPTOR>
10
> <PUBCHEM_CACTVS_HBOND_DONOR>
3
> <PUBCHEM_CACTVS_ROTATABLE_BOND>
15
> <PUBCHEM_CACTVS_SUBSKEYS>
AAADcfB/vAAAAAAAAAAAAAAAGDAAAWAAAAA8YMEAAAAAAACx9AAAHgAQCAAAD/zhngYyzvPIFgCoAyXyXACCiCAlIiAImKG+bNgOZvLEtbuXeSjm1hnY6Ye6+f+fqAAAAgACAABQAAAEAAQAAAAAAAAAAA==
> <PUBCHEM_IUPAC_OPENEYE_NAME>
(2R)-1-[[(2S,4R)-1-[(2S)-2-(4-tert-butoxycarbonylanilino)-3,3-dimethyl-butanoyl]-4-[(7-methoxy-2-phenyl-4-quinolyl)oxy]pyrrolidine-2-carbonyl]amino]-2-cyclopropyl-cyclopropanecarboxylic acid
> <PUBCHEM_IUPAC_CAS_NAME>
(2R)-2-cyclopropyl-1-[[[(2S,4R)-1-[(2S)-3,3-dimethyl-2-[4-[(2-methylpropan-2-yl)oxy-oxomethyl]anilino]-1-oxobutyl]-4-[(7-methoxy-2-phenyl-4-quinolinyl)oxy]-2-pyrrolidinyl]-oxomethyl]amino]-1-cyclopropanecarboxylic acid
> <PUBCHEM_IUPAC_NAME_MARKUP>
(2<I>R</I>)-2-cyclopropyl-1-[[(2<I>S</I>,4<I>R</I>)-1-[(2<I>S</I>)-3,3-dimethyl-2-[4-[(2-methylpropan-2-yl)oxycarbonyl]anilino]butanoyl]-4-(7-methoxy-2-phenylquinolin-4-yl)oxypyrrolidine-2-carbonyl]amino]cyclopropane-1-carboxylic acid
> <PUBCHEM_IUPAC_NAME>
(2R)-2-cyclopropyl-1-[[(2S,4R)-1-[(2S)-3,3-dimethyl-2-[4-[(2-methylpropan-2-yl)oxycarbonyl]anilino]butanoyl]-4-(7-methoxy-2-phenylquinolin-4-yl)oxypyrrolidine-2-carbonyl]amino]cyclopropane-1-carboxylic acid
> <PUBCHEM_IUPAC_SYSTEMATIC_NAME>
(2R)-2-cyclopropyl-1-[[(2S,4R)-1-[(2S)-3,3-dimethyl-2-[[4-[(2-methylpropan-2-yl)oxycarbonyl]phenyl]amino]butanoyl]-4-(7-methoxy-2-phenyl-quinolin-4-yl)oxy-pyrrolidin-2-yl]carbonylamino]cyclopropane-1-carboxylic acid
> <PUBCHEM_IUPAC_TRADITIONAL_NAME>
(2R)-1-[[(2S,4R)-1-[(2S)-2-(4-tert-butoxycarbonylanilino)-3,3-dimethyl-butanoyl]-4-[(7-methoxy-2-phenyl-4-quinolyl)oxy]prolyl]amino]-2-cyclopropyl-cyclopropanecarboxylic acid
> <PUBCHEM_IUPAC_INCHI>
InChI=1S/C45H52N4O8/c1-43(2,3)38(46-29-17-15-28(16-18-29)41(52)57-44(4,5)6)40(51)49-25-31(22-36(49)39(50)48-45(42(53)54)24-33(45)26-13-14-26)56-37-23-34(27-11-9-8-10-12-27)47-35-21-30(55-7)19-20-32(35)37/h8-12,15-21,23,26,31,33,36,38,46H,13-14,22,24-25H2,1-7H3,(H,48,50)(H,53,54)/t31-,33-,36+,38-,45?/m1/s1
> <PUBCHEM_IUPAC_INCHIKEY>
LVAJYBQARUNWPS-NYJAKBMASA-N
> <PUBCHEM_XLOGP3_AA>
8.1
> <PUBCHEM_EXACT_MASS>
776.37851463
> <PUBCHEM_MOLECULAR_FORMULA>
C45H52N4O8
> <PUBCHEM_MOLECULAR_WEIGHT>
776.9
> <PUBCHEM_OPENEYE_CAN_SMILES>
CC(C)(C)C(C(=O)N1CC(CC1C(=O)NC2(CC2C3CC3)C(=O)O)OC4=CC(=NC5=C4C=CC(=C5)OC)C6=CC=CC=C6)NC7=CC=C(C=C7)C(=O)OC(C)(C)C
> <PUBCHEM_OPENEYE_ISO_SMILES>
CC(C)(C)[C@@H](C(=O)N1C[C@@H](C[C@H]1C(=O)NC2(C[C@@H]2C3CC3)C(=O)O)OC4=CC(=NC5=C4C=CC(=C5)OC)C6=CC=CC=C6)NC7=CC=C(C=C7)C(=O)OC(C)(C)C
> <PUBCHEM_CACTVS_TPSA>
156
> <PUBCHEM_MONOISOTOPIC_WEIGHT>
776.37851463
> <PUBCHEM_TOTAL_CHARGE>
0
> <PUBCHEM_HEAVY_ATOM_COUNT>
57
> <PUBCHEM_ATOM_DEF_STEREO_COUNT>
4
> <PUBCHEM_ATOM_UDEF_STEREO_COUNT>
1
> <PUBCHEM_BOND_DEF_STEREO_COUNT>
0
> <PUBCHEM_BOND_UDEF_STEREO_COUNT>
0
> <PUBCHEM_ISOTOPIC_ATOM_COUNT>
0
> <PUBCHEM_COMPONENT_COUNT>
1
> <PUBCHEM_CACTVS_TAUTO_COUNT>
-1
> <PUBCHEM_COORDINATE_TYPE>
1
5
255
> <PUBCHEM_BONDANNOTATIONS>
26  11  5
12  35  8
12  36  8
13  58  6
15  19  3
21  20  5
28  32  8
28  34  8
32  35  8
32  37  8
33  38  8
33  39  8
34  36  8
35  40  8
37  41  8
38  43  8
39  44  8
23  4  6
40  45  8
41  45  8
42  47  8
42  48  8
43  46  8
44  46  8
47  50  8
48  51  8
50  52  8
51  52  8
$$$$
