500666
  -OEChem-10302200282D
101105  0     1  0  0  0  0  0999 V2000
    2.3586   -2.5374    0.0000 O   0  0  0  0  0  0  0  0  0  0  0  0
    3.7715   -1.5356    0.0000 O   0  0  0  0  0  0  0  0  0  0  0  0
    8.7801   -3.0300    0.0000 O   0  0  0  0  0  0  0  0  0  0  0  0
    4.7672   -1.4426    0.0000 O   0  0  0  0  0  0  0  0  0  0  0  0
    5.4618   -0.2709    0.0000 O   0  0  0  0  0  0  0  0  0  0  0  0
   12.2606   -7.0646    0.0000 O   0  0  0  0  0  0  0  0  0  0  0  0
    8.6483    5.4602    0.0000 O   0  0  0  0  0  0  0  0  0  0  0  0
   10.0377    4.4260    0.0000 O   0  0  0  0  0  0  0  0  0  0  0  0
    4.9283   -3.1671    0.0000 N   0  0  0  0  0  0  0  0  0  0  0  0
    6.8512   -1.3051    0.0000 N   0  0  0  0  0  0  0  0  0  0  0  0
    6.6560    1.3334    0.0000 N   0  0  0  0  0  0  0  0  0  0  0  0
   11.3946   -5.5646    0.0000 N   0  0  0  0  0  0  0  0  0  0  0  0
    3.9327   -3.2602    0.0000 C   0  0  3  0  0  0  0  0  0  0  0  0
    4.0257   -4.2558    0.0000 C   0  0  2  0  0  0  0  0  0  0  0  0
    3.1169   -3.8385    0.0000 C   0  0  0  0  0  0  0  0  0  0  0  0
    3.3543   -2.4444    0.0000 C   0  0  0  0  0  0  0  0  0  0  0  0
    4.6041   -5.0716    0.0000 C   0  0  0  0  0  0  0  0  0  0  0  0
    6.3413   -2.1653    0.0000 C   0  0  2  0  0  0  0  0  0  0  0  0
    5.3456   -2.2584    0.0000 C   0  0  0  0  0  0  0  0  0  0  0  0
    7.0018   -2.9162    0.0000 C   0  0  0  0  0  0  0  0  0  0  0  0
    7.9199   -2.5200    0.0000 C   0  0  2  0  0  0  0  0  0  0  0  0
    7.8269   -1.5244    0.0000 C   0  0  0  0  0  0  0  0  0  0  0  0
    6.4551   -0.3870    0.0000 C   0  0  0  0  0  0  0  0  0  0  0  0
    4.1868   -5.9803    0.0000 C   0  0  0  0  0  0  0  0  0  0  0  0
    7.0522    0.4152    0.0000 C   0  0  2  0  0  0  0  0  0  0  0  0
    8.0454    0.2992    0.0000 C   0  0  0  0  0  0  0  0  0  0  0  0
    8.7686   -4.0299    0.0000 C   0  0  0  0  0  0  0  0  0  0  0  0
    9.0387    0.1832    0.0000 C   0  0  0  0  0  0  0  0  0  0  0  0
    8.1615    1.2924    0.0000 C   0  0  0  0  0  0  0  0  0  0  0  0
    7.9294   -0.6941    0.0000 C   0  0  0  0  0  0  0  0  0  0  0  0
    9.6625   -4.5646    0.0000 C   0  0  0  0  0  0  0  0  0  0  0  0
    7.2532    2.1356    0.0000 C   0  0  0  0  0  0  0  0  0  0  0  0
   10.5285   -4.0646    0.0000 C   0  0  0  0  0  0  0  0  0  0  0  0
    9.6625   -5.5646    0.0000 C   0  0  0  0  0  0  0  0  0  0  0  0
    7.8625   -4.5438    0.0000 C   0  0  0  0  0  0  0  0  0  0  0  0
   11.3946   -4.5646    0.0000 C   0  0  0  0  0  0  0  0  0  0  0  0
   10.5285   -6.0646    0.0000 C   0  0  0  0  0  0  0  0  0  0  0  0
    8.7686   -6.0992    0.0000 C   0  0  0  0  0  0  0  0  0  0  0  0
    7.8625   -5.5854    0.0000 C   0  0  0  0  0  0  0  0  0  0  0  0
    6.8570    3.0538    0.0000 C   0  0  0  0  0  0  0  0  0  0  0  0
    8.2464    2.0196    0.0000 C   0  0  0  0  0  0  0  0  0  0  0  0
   12.2606   -6.0646    0.0000 C   0  0  0  0  0  0  0  0  0  0  0  0
    7.4541    3.8559    0.0000 C   0  0  0  0  0  0  0  0  0  0  0  0
    8.8435    2.8217    0.0000 C   0  0  0  0  0  0  0  0  0  0  0  0
    8.4474    3.7399    0.0000 C   0  0  0  0  0  0  0  0  0  0  0  0
   13.1266   -5.5646    0.0000 C   0  0  0  0  0  0  0  0  0  0  0  0
    9.0444    4.5421    0.0000 C   0  0  0  0  0  0  0  0  0  0  0  0
    9.2454    6.2624    0.0000 C   0  0  0  0  0  0  0  0  0  0  0  0
    9.8425    7.0646    0.0000 C   0  0  0  0  0  0  0  0  0  0  0  0
    8.4432    6.8595    0.0000 C   0  0  0  0  0  0  0  0  0  0  0  0
   10.0476    5.6653    0.0000 C   0  0  0  0  0  0  0  0  0  0  0  0
    3.6300   -4.7331    0.0000 H   0  0  0  0  0  0  0  0  0  0  0  0
    2.6759   -3.4027    0.0000 H   0  0  0  0  0  0  0  0  0  0  0  0
    2.7643   -4.3485    0.0000 H   0  0  0  0  0  0  0  0  0  0  0  0
    5.2869   -3.6729    0.0000 H   0  0  0  0  0  0  0  0  0  0  0  0
    5.2214   -5.0139    0.0000 H   0  0  0  0  0  0  0  0  0  0  0  0
    6.0096   -1.6415    0.0000 H   0  0  0  0  0  0  0  0  0  0  0  0
    6.4960   -3.2748    0.0000 H   0  0  0  0  0  0  0  0  0  0  0  0
    7.3055   -3.4566    0.0000 H   0  0  0  0  0  0  0  0  0  0  0  0
    8.4438   -2.1884    0.0000 H   0  0  0  0  0  0  0  0  0  0  0  0
    8.4469   -1.5315    0.0000 H   0  0  0  0  0  0  0  0  0  0  0  0
    7.8988   -0.9085    0.0000 H   0  0  0  0  0  0  0  0  0  0  0  0
    3.5695   -6.0380    0.0000 H   0  0  0  0  0  0  0  0  0  0  0  0
    4.5454   -6.4861    0.0000 H   0  0  0  0  0  0  0  0  0  0  0  0
    6.4364    0.4871    0.0000 H   0  0  0  0  0  0  0  0  0  0  0  0
    2.0000   -2.0316    0.0000 H   0  0  0  0  0  0  0  0  0  0  0  0
    6.0402    1.4053    0.0000 H   0  0  0  0  0  0  0  0  0  0  0  0
    8.9668   -0.4326    0.0000 H   0  0  0  0  0  0  0  0  0  0  0  0
    9.6545    0.1112    0.0000 H   0  0  0  0  0  0  0  0  0  0  0  0
    9.1106    0.7990    0.0000 H   0  0  0  0  0  0  0  0  0  0  0  0
    8.7773    1.2205    0.0000 H   0  0  0  0  0  0  0  0  0  0  0  0
    8.2334    1.9082    0.0000 H   0  0  0  0  0  0  0  0  0  0  0  0
    7.5456    1.3644    0.0000 H   0  0  0  0  0  0  0  0  0  0  0  0
    7.3136   -0.6221    0.0000 H   0  0  0  0  0  0  0  0  0  0  0  0
    7.8575   -1.3099    0.0000 H   0  0  0  0  0  0  0  0  0  0  0  0
    8.5452   -0.7660    0.0000 H   0  0  0  0  0  0  0  0  0  0  0  0
   10.9271   -3.5896    0.0000 H   0  0  0  0  0  0  0  0  0  0  0  0
   10.1300   -3.5896    0.0000 H   0  0  0  0  0  0  0  0  0  0  0  0
    7.3268   -4.2317    0.0000 H   0  0  0  0  0  0  0  0  0  0  0  0
   12.0051   -4.6722    0.0000 H   0  0  0  0  0  0  0  0  0  0  0  0
   11.6066   -3.9820    0.0000 H   0  0  0  0  0  0  0  0  0  0  0  0
   10.1300   -6.5395    0.0000 H   0  0  0  0  0  0  0  0  0  0  0  0
   10.9271   -6.5395    0.0000 H   0  0  0  0  0  0  0  0  0  0  0  0
    8.7757   -6.7192    0.0000 H   0  0  0  0  0  0  0  0  0  0  0  0
    7.3268   -5.8975    0.0000 H   0  0  0  0  0  0  0  0  0  0  0  0
    6.2412    3.1257    0.0000 H   0  0  0  0  0  0  0  0  0  0  0  0
    8.4920    1.4503    0.0000 H   0  0  0  0  0  0  0  0  0  0  0  0
    7.2085    4.4252    0.0000 H   0  0  0  0  0  0  0  0  0  0  0  0
    9.4593    2.7498    0.0000 H   0  0  0  0  0  0  0  0  0  0  0  0
   13.4366   -6.1015    0.0000 H   0  0  0  0  0  0  0  0  0  0  0  0
   13.6635   -5.2546    0.0000 H   0  0  0  0  0  0  0  0  0  0  0  0
   12.8166   -5.0277    0.0000 H   0  0  0  0  0  0  0  0  0  0  0  0
   10.3399    6.6944    0.0000 H   0  0  0  0  0  0  0  0  0  0  0  0
   10.2127    7.5619    0.0000 H   0  0  0  0  0  0  0  0  0  0  0  0
    9.3452    7.4348    0.0000 H   0  0  0  0  0  0  0  0  0  0  0  0
    8.8134    7.3569    0.0000 H   0  0  0  0  0  0  0  0  0  0  0  0
    7.9459    7.2297    0.0000 H   0  0  0  0  0  0  0  0  0  0  0  0
    8.0730    6.3622    0.0000 H   0  0  0  0  0  0  0  0  0  0  0  0
    9.6774    5.1680    0.0000 H   0  0  0  0  0  0  0  0  0  0  0  0
   10.5449    5.2951    0.0000 H   0  0  0  0  0  0  0  0  0  0  0  0
   10.4178    6.1627    0.0000 H   0  0  0  0  0  0  0  0  0  0  0  0
  1 16  1  0  0  0  0
  1 66  1  0  0  0  0
  2 16  2  0  0  0  0
 21  3  1  6  0  0  0
  3 27  1  0  0  0  0
  4 19  2  0  0  0  0
  5 23  2  0  0  0  0
  6 42  2  0  0  0  0
  7 47  1  0  0  0  0
  7 48  1  0  0  0  0
  8 47  2  0  0  0  0
  9 13  1  0  0  0  0
  9 19  1  0  0  0  0
  9 55  1  0  0  0  0
 10 18  1  0  0  0  0
 10 22  1  0  0  0  0
 10 23  1  0  0  0  0
 25 11  1  1  0  0  0
 11 32  1  0  0  0  0
 11 67  1  0  0  0  0
 12 36  1  0  0  0  0
 12 37  1  0  0  0  0
 12 42  1  0  0  0  0
 13 14  1  0  0  0  0
 13 15  1  0  0  0  0
 13 16  1  0  0  0  0
 14 15  1  0  0  0  0
 14 17  1  1  0  0  0
 14 52  1  0  0  0  0
 15 53  1  0  0  0  0
 15 54  1  0  0  0  0
 17 24  2  0  0  0  0
 17 56  1  0  0  0  0
 18 19  1  1  0  0  0
 18 20  1  0  0  0  0
 18 57  1  0  0  0  0
 20 21  1  0  0  0  0
 20 58  1  0  0  0  0
 20 59  1  0  0  0  0
 21 22  1  0  0  0  0
 21 60  1  0  0  0  0
 22 61  1  0  0  0  0
 22 62  1  0  0  0  0
 23 25  1  0  0  0  0
 24 63  1  0  0  0  0
 24 64  1  0  0  0  0
 25 26  1  0  0  0  0
 25 65  1  0  0  0  0
 26 28  1  0  0  0  0
 26 29  1  0  0  0  0
 26 30  1  0  0  0  0
 27 31  1  0  0  0  0
 27 35  2  0  0  0  0
 28 68  1  0  0  0  0
 28 69  1  0  0  0  0
 28 70  1  0  0  0  0
 29 71  1  0  0  0  0
 29 72  1  0  0  0  0
 29 73  1  0  0  0  0
 30 74  1  0  0  0  0
 30 75  1  0  0  0  0
 30 76  1  0  0  0  0
 31 33  1  0  0  0  0
 31 34  2  0  0  0  0
 32 40  2  0  0  0  0
 32 41  1  0  0  0  0
 33 36  1  0  0  0  0
 33 77  1  0  0  0  0
 33 78  1  0  0  0  0
 34 37  1  0  0  0  0
 34 38  1  0  0  0  0
 35 39  1  0  0  0  0
 35 79  1  0  0  0  0
 36 80  1  0  0  0  0
 36 81  1  0  0  0  0
 37 82  1  0  0  0  0
 37 83  1  0  0  0  0
 38 39  2  0  0  0  0
 38 84  1  0  0  0  0
 39 85  1  0  0  0  0
 40 43  1  0  0  0  0
 40 86  1  0  0  0  0
 41 44  2  0  0  0  0
 41 87  1  0  0  0  0
 42 46  1  0  0  0  0
 43 45  2  0  0  0  0
 43 88  1  0  0  0  0
 44 45  1  0  0  0  0
 44 89  1  0  0  0  0
 45 47  1  0  0  0  0
 46 90  1  0  0  0  0
 46 91  1  0  0  0  0
 46 92  1  0  0  0  0
 48 49  1  0  0  0  0
 48 50  1  0  0  0  0
 48 51  1  0  0  0  0
 49 93  1  0  0  0  0
 49 94  1  0  0  0  0
 49 95  1  0  0  0  0
 50 96  1  0  0  0  0
 50 97  1  0  0  0  0
 50 98  1  0  0  0  0
 51 99  1  0  0  0  0
 51100  1  0  0  0  0
 51101  1  0  0  0  0
M  END
> <PUBCHEM_COMPOUND_CID>
500666
> <PUBCHEM_COMPOUND_CANONICALIZED>
1
> <PUBCHEM_CACTVS_COMPLEXITY>
1350
> <PUBCHEM_CACTVS_HBOND_ACCEPTOR>
9
> <PUBCHEM_CACTVS_HBOND_DONOR>
3
> <PUBCHEM_CACTVS_ROTATABLE_BOND>
13
> <PUBCHEM_CACTVS_SUBSKEYS>
AAADcfB/vAAAAAAAAAAAAAAAGAAAAWAAAAA8YIAAAAAAAACxQAAAHgAQCAAAD/zhmAYyzoPABgCIAiXSWACCCAAlIgAIiIGObMgOZjLEtbuXeSjm1hHY6Ye62bOfiAABAAAYAAAQAAIAADAAAAAAAAAAAA==
> <PUBCHEM_IUPAC_OPENEYE_NAME>
(2R)-1-[[(2S,4R)-4-[(2-acetyl-3,4-dihydro-1H-isoquinolin-5-yl)oxy]-1-[(2S)-2-(4-tert-butoxycarbonylanilino)-3,3-dimethyl-butanoyl]pyrrolidine-2-carbonyl]amino]-2-vinyl-cyclopropanecarboxylic acid
> <PUBCHEM_IUPAC_CAS_NAME>
(2R)-1-[[[(2S,4R)-4-[(2-acetyl-3,4-dihydro-1H-isoquinolin-5-yl)oxy]-1-[(2S)-3,3-dimethyl-2-[4-[(2-methylpropan-2-yl)oxy-oxomethyl]anilino]-1-oxobutyl]-2-pyrrolidinyl]-oxomethyl]amino]-2-ethenyl-1-cyclopropanecarboxylic acid
> <PUBCHEM_IUPAC_NAME_MARKUP>
(2<I>R</I>)-1-[[(2<I>S</I>,4<I>R</I>)-4-[(2-acetyl-3,4-dihydro-1<I>H</I>-isoquinolin-5-yl)oxy]-1-[(2<I>S</I>)-3,3-dimethyl-2-[4-[(2-methylpropan-2-yl)oxycarbonyl]anilino]butanoyl]pyrrolidine-2-carbonyl]amino]-2-ethenylcyclopropane-1-carboxylic acid
> <PUBCHEM_IUPAC_NAME>
(2R)-1-[[(2S,4R)-4-[(2-acetyl-3,4-dihydro-1H-isoquinolin-5-yl)oxy]-1-[(2S)-3,3-dimethyl-2-[4-[(2-methylpropan-2-yl)oxycarbonyl]anilino]butanoyl]pyrrolidine-2-carbonyl]amino]-2-ethenylcyclopropane-1-carboxylic acid
> <PUBCHEM_IUPAC_SYSTEMATIC_NAME>
(2R)-1-[[(2S,4R)-1-[(2S)-3,3-dimethyl-2-[[4-[(2-methylpropan-2-yl)oxycarbonyl]phenyl]amino]butanoyl]-4-[(2-ethanoyl-3,4-dihydro-1H-isoquinolin-5-yl)oxy]pyrrolidin-2-yl]carbonylamino]-2-ethenyl-cyclopropane-1-carboxylic acid
> <PUBCHEM_IUPAC_TRADITIONAL_NAME>
(2R)-1-[[(2S,4R)-4-[(2-acetyl-3,4-dihydro-1H-isoquinolin-5-yl)oxy]-1-[(2S)-2-(4-tert-butoxycarbonylanilino)-3,3-dimethyl-butanoyl]prolyl]amino]-2-vinyl-cyclopropanecarboxylic acid
> <PUBCHEM_IUPAC_INCHI>
InChI=1S/C39H50N4O8/c1-9-26-20-39(26,36(48)49)41-33(45)30-19-28(50-31-12-10-11-25-21-42(23(2)44)18-17-29(25)31)22-43(30)34(46)32(37(3,4)5)40-27-15-13-24(14-16-27)35(47)51-38(6,7)8/h9-16,26,28,30,32,40H,1,17-22H2,2-8H3,(H,41,45)(H,48,49)/t26-,28+,30-,32+,39?/m0/s1
> <PUBCHEM_IUPAC_INCHIKEY>
ZDOGLWNXECRNPW-UUQVGSEVSA-N
> <PUBCHEM_XLOGP3_AA>
5.1
> <PUBCHEM_EXACT_MASS>
702.36286457
> <PUBCHEM_MOLECULAR_FORMULA>
C39H50N4O8
> <PUBCHEM_MOLECULAR_WEIGHT>
702.8
> <PUBCHEM_OPENEYE_CAN_SMILES>
CC(=O)N1CCC2=C(C1)C=CC=C2OC3CC(N(C3)C(=O)C(C(C)(C)C)NC4=CC=C(C=C4)C(=O)OC(C)(C)C)C(=O)NC5(CC5C=C)C(=O)O
> <PUBCHEM_OPENEYE_ISO_SMILES>
CC(=O)N1CCC2=C(C1)C=CC=C2O[C@@H]3C[C@H](N(C3)C(=O)[C@H](C(C)(C)C)NC4=CC=C(C=C4)C(=O)OC(C)(C)C)C(=O)NC5(C[C@@H]5C=C)C(=O)O
> <PUBCHEM_CACTVS_TPSA>
155
> <PUBCHEM_MONOISOTOPIC_WEIGHT>
702.36286457
> <PUBCHEM_TOTAL_CHARGE>
0
> <PUBCHEM_HEAVY_ATOM_COUNT>
51
> <PUBCHEM_ATOM_DEF_STEREO_COUNT>
4
> <PUBCHEM_ATOM_UDEF_STEREO_COUNT>
1
> <PUBCHEM_BOND_DEF_STEREO_COUNT>
0
> <PUBCHEM_BOND_UDEF_STEREO_COUNT>
0
> <PUBCHEM_ISOTOPIC_ATOM_COUNT>
0
> <PUBCHEM_COMPONENT_COUNT>
1
> <PUBCHEM_CACTVS_TAUTO_COUNT>
-1
> <PUBCHEM_COORDINATE_TYPE>
1
5
255
> <PUBCHEM_BONDANNOTATIONS>
25  11  5
13  16  3
14  17  5
18  19  5
27  31  8
27  35  8
21  3  6
31  34  8
32  40  8
32  41  8
34  38  8
35  39  8
38  39  8
40  43  8
41  44  8
43  45  8
44  45  8
$$$$
