500655
  -OEChem-10302200282D
 96102  0     1  0  0  0  0  0999 V2000
   11.5871    1.0668    0.0000 O   0  0  0  0  0  0  0  0  0  0  0  0
   10.1858    0.0487    0.0000 O   0  0  0  0  0  0  0  0  0  0  0  0
    5.1603    1.4850    0.0000 O   0  0  0  0  0  0  0  0  0  0  0  0
    9.1913   -0.0559    0.0000 O   0  0  0  0  0  0  0  0  0  0  0  0
    8.5103   -1.2355    0.0000 O   0  0  0  0  0  0  0  0  0  0  0  0
    2.5878   -4.9670    0.0000 O   0  0  0  0  0  0  0  0  0  0  0  0
    3.9890   -5.9850    0.0000 O   0  0  0  0  0  0  0  0  0  0  0  0
    9.0103    1.6667    0.0000 N   0  0  0  0  0  0  0  0  0  0  0  0
    7.1090   -0.2174    0.0000 N   0  0  0  0  0  0  0  0  0  0  0  0
    5.9334   -1.8354    0.0000 N   0  0  0  0  0  0  0  0  0  0  0  0
    6.0263    2.9850    0.0000 N   0  0  0  0  0  0  0  0  0  0  0  0
    5.1603    4.4850    0.0000 N   0  0  0  0  0  0  0  0  0  0  0  0
   10.0048    1.7712    0.0000 C   0  0  3  0  0  0  0  0  0  0  0  0
    9.9003    2.7658    0.0000 C   0  0  2  0  0  0  0  0  0  0  0  0
   10.8138    2.3590    0.0000 C   0  0  0  0  0  0  0  0  0  0  0  0
    7.6090    0.6486    0.0000 C   0  0  2  0  0  0  0  0  0  0  0  0
   10.5926    0.9622    0.0000 C   0  0  0  0  0  0  0  0  0  0  0  0
    9.3125    3.5748    0.0000 C   0  0  0  0  0  0  0  0  0  0  0  0
    8.6035    0.7532    0.0000 C   0  0  0  0  0  0  0  0  0  0  0  0
    6.9399    1.3918    0.0000 C   0  0  0  0  0  0  0  0  0  0  0  0
    6.0263    0.9850    0.0000 C   0  0  2  0  0  0  0  0  0  0  0  0
    7.3347   -2.8535    0.0000 C   0  0  0  0  0  0  0  0  0  0  0  0
    6.1309   -0.0095    0.0000 C   0  0  0  0  0  0  0  0  0  0  0  0
    6.9280   -1.9400    0.0000 C   0  0  1  0  0  0  0  0  0  0  0  0
    7.5158   -1.1309    0.0000 C   0  0  0  0  0  0  0  0  0  0  0  0
    6.7469   -3.6625    0.0000 C   0  0  0  0  0  0  0  0  0  0  0  0
    8.3292   -2.9580    0.0000 C   0  0  0  0  0  0  0  0  0  0  0  0
    7.1537   -4.5761    0.0000 C   0  0  0  0  0  0  0  0  0  0  0  0
    8.7360   -3.8716    0.0000 C   0  0  0  0  0  0  0  0  0  0  0  0
    8.1482   -4.6806    0.0000 C   0  0  0  0  0  0  0  0  0  0  0  0
    9.7192    4.4883    0.0000 C   0  0  0  0  0  0  0  0  0  0  0  0
    5.3457   -2.6444    0.0000 C   0  0  0  0  0  0  0  0  0  0  0  0
    5.1603    2.4850    0.0000 C   0  0  0  0  0  0  0  0  0  0  0  0
    4.2943    2.9850    0.0000 C   0  0  0  0  0  0  0  0  0  0  0  0
    4.3511   -2.5399    0.0000 C   0  0  0  0  0  0  0  0  0  0  0  0
    5.7524   -3.5580    0.0000 C   0  0  0  0  0  0  0  0  0  0  0  0
    4.2943    3.9850    0.0000 C   0  0  0  0  0  0  0  0  0  0  0  0
    3.7634   -3.3489    0.0000 C   0  0  0  0  0  0  0  0  0  0  0  0
    5.1646   -4.3670    0.0000 C   0  0  0  0  0  0  0  0  0  0  0  0
    3.4004    2.4504    0.0000 C   0  0  0  0  0  0  0  0  0  0  0  0
    4.1701   -4.2625    0.0000 C   0  0  0  0  0  0  0  0  0  0  0  0
    6.0263    3.9850    0.0000 C   0  0  0  0  0  0  0  0  0  0  0  0
    3.4004    4.5197    0.0000 C   0  0  0  0  0  0  0  0  0  0  0  0
    2.4943    2.9642    0.0000 C   0  0  0  0  0  0  0  0  0  0  0  0
    6.8924    4.4850    0.0000 C   0  0  0  0  0  0  0  0  0  0  0  0
    2.4943    4.0059    0.0000 C   0  0  0  0  0  0  0  0  0  0  0  0
    3.5823   -5.0715    0.0000 C   0  0  0  0  0  0  0  0  0  0  0  0
    6.8924    5.4850    0.0000 C   0  0  0  0  0  0  0  0  0  0  0  0
    7.7584    3.9850    0.0000 C   0  0  0  0  0  0  0  0  0  0  0  0
    7.7584    5.9850    0.0000 C   0  0  0  0  0  0  0  0  0  0  0  0
    8.6244    4.4850    0.0000 C   0  0  0  0  0  0  0  0  0  0  0  0
    8.6244    5.4850    0.0000 C   0  0  0  0  0  0  0  0  0  0  0  0
    2.0000   -5.7760    0.0000 C   0  0  0  0  0  0  0  0  0  0  0  0
    9.3214    2.5436    0.0000 H   0  0  0  0  0  0  0  0  0  0  0  0
   11.2598    1.9283    0.0000 H   0  0  0  0  0  0  0  0  0  0  0  0
   11.1605    2.8730    0.0000 H   0  0  0  0  0  0  0  0  0  0  0  0
    8.6458    2.1683    0.0000 H   0  0  0  0  0  0  0  0  0  0  0  0
    7.9467    0.1287    0.0000 H   0  0  0  0  0  0  0  0  0  0  0  0
    8.6959    3.5100    0.0000 H   0  0  0  0  0  0  0  0  0  0  0  0
    7.4415    1.7562    0.0000 H   0  0  0  0  0  0  0  0  0  0  0  0
    6.6299    1.9287    0.0000 H   0  0  0  0  0  0  0  0  0  0  0  0
    5.5064    0.6474    0.0000 H   0  0  0  0  0  0  0  0  0  0  0  0
    7.6991   -2.3519    0.0000 H   0  0  0  0  0  0  0  0  0  0  0  0
    5.5109   -0.0095    0.0000 H   0  0  0  0  0  0  0  0  0  0  0  0
    6.0661   -0.6261    0.0000 H   0  0  0  0  0  0  0  0  0  0  0  0
    6.5635   -2.4416    0.0000 H   0  0  0  0  0  0  0  0  0  0  0  0
    6.3162   -3.2165    0.0000 H   0  0  0  0  0  0  0  0  0  0  0  0
    6.2329   -4.0092    0.0000 H   0  0  0  0  0  0  0  0  0  0  0  0
    8.9308   -2.8080    0.0000 H   0  0  0  0  0  0  0  0  0  0  0  0
    8.2860   -2.3395    0.0000 H   0  0  0  0  0  0  0  0  0  0  0  0
    6.5521   -4.7261    0.0000 H   0  0  0  0  0  0  0  0  0  0  0  0
    7.1969   -5.1945    0.0000 H   0  0  0  0  0  0  0  0  0  0  0  0
    9.1666   -4.3176    0.0000 H   0  0  0  0  0  0  0  0  0  0  0  0
    9.2500   -3.5249    0.0000 H   0  0  0  0  0  0  0  0  0  0  0  0
    7.9773   -5.2766    0.0000 H   0  0  0  0  0  0  0  0  0  0  0  0
    8.7054   -4.9524    0.0000 H   0  0  0  0  0  0  0  0  0  0  0  0
   10.3358    4.5531    0.0000 H   0  0  0  0  0  0  0  0  0  0  0  0
    9.3548    4.9899    0.0000 H   0  0  0  0  0  0  0  0  0  0  0  0
   11.9515    0.5652    0.0000 H   0  0  0  0  0  0  0  0  0  0  0  0
    5.6813   -1.2690    0.0000 H   0  0  0  0  0  0  0  0  0  0  0  0
    4.0990   -1.9735    0.0000 H   0  0  0  0  0  0  0  0  0  0  0  0
    6.3690   -3.6228    0.0000 H   0  0  0  0  0  0  0  0  0  0  0  0
    3.1468   -3.2841    0.0000 H   0  0  0  0  0  0  0  0  0  0  0  0
    5.4168   -4.9334    0.0000 H   0  0  0  0  0  0  0  0  0  0  0  0
    3.4075    1.8304    0.0000 H   0  0  0  0  0  0  0  0  0  0  0  0
    3.4075    5.1397    0.0000 H   0  0  0  0  0  0  0  0  0  0  0  0
    1.9586    2.6522    0.0000 H   0  0  0  0  0  0  0  0  0  0  0  0
    1.9586    4.3179    0.0000 H   0  0  0  0  0  0  0  0  0  0  0  0
    6.3554    5.7950    0.0000 H   0  0  0  0  0  0  0  0  0  0  0  0
    7.7584    3.3650    0.0000 H   0  0  0  0  0  0  0  0  0  0  0  0
    7.7584    6.6050    0.0000 H   0  0  0  0  0  0  0  0  0  0  0  0
    9.1614    4.1750    0.0000 H   0  0  0  0  0  0  0  0  0  0  0  0
    9.1614    5.7950    0.0000 H   0  0  0  0  0  0  0  0  0  0  0  0
    1.4984   -5.4116    0.0000 H   0  0  0  0  0  0  0  0  0  0  0  0
    1.6356   -6.2776    0.0000 H   0  0  0  0  0  0  0  0  0  0  0  0
    2.5016   -6.1404    0.0000 H   0  0  0  0  0  0  0  0  0  0  0  0
  1 17  1  0  0  0  0
  1 79  1  0  0  0  0
  2 17  2  0  0  0  0
 21  3  1  6  0  0  0
  3 33  1  0  0  0  0
  4 19  2  0  0  0  0
  5 25  2  0  0  0  0
  6 47  1  0  0  0  0
  6 53  1  0  0  0  0
  7 47  2  0  0  0  0
  8 13  1  0  0  0  0
  8 19  1  0  0  0  0
  8 57  1  0  0  0  0
  9 16  1  0  0  0  0
  9 23  1  0  0  0  0
  9 25  1  0  0  0  0
 24 10  1  6  0  0  0
 10 32  1  0  0  0  0
 10 80  1  0  0  0  0
 11 33  2  0  0  0  0
 11 42  1  0  0  0  0
 12 37  1  0  0  0  0
 12 42  2  0  0  0  0
 13 14  1  0  0  0  0
 13 15  1  0  0  0  0
 13 17  1  0  0  0  0
 14 15  1  0  0  0  0
 14 18  1  1  0  0  0
 14 54  1  0  0  0  0
 15 55  1  0  0  0  0
 15 56  1  0  0  0  0
 16 19  1  1  0  0  0
 16 20  1  0  0  0  0
 16 58  1  0  0  0  0
 18 31  2  0  0  0  0
 18 59  1  0  0  0  0
 20 21  1  0  0  0  0
 20 60  1  0  0  0  0
 20 61  1  0  0  0  0
 21 23  1  0  0  0  0
 21 62  1  0  0  0  0
 22 24  1  0  0  0  0
 22 26  1  0  0  0  0
 22 27  1  0  0  0  0
 22 63  1  0  0  0  0
 23 64  1  0  0  0  0
 23 65  1  0  0  0  0
 24 25  1  0  0  0  0
 24 66  1  0  0  0  0
 26 28  1  0  0  0  0
 26 67  1  0  0  0  0
 26 68  1  0  0  0  0
 27 29  1  0  0  0  0
 27 69  1  0  0  0  0
 27 70  1  0  0  0  0
 28 30  1  0  0  0  0
 28 71  1  0  0  0  0
 28 72  1  0  0  0  0
 29 30  1  0  0  0  0
 29 73  1  0  0  0  0
 29 74  1  0  0  0  0
 30 75  1  0  0  0  0
 30 76  1  0  0  0  0
 31 77  1  0  0  0  0
 31 78  1  0  0  0  0
 32 35  2  0  0  0  0
 32 36  1  0  0  0  0
 33 34  1  0  0  0  0
 34 37  1  0  0  0  0
 34 40  2  0  0  0  0
 35 38  1  0  0  0  0
 35 81  1  0  0  0  0
 36 39  2  0  0  0  0
 36 82  1  0  0  0  0
 37 43  2  0  0  0  0
 38 41  2  0  0  0  0
 38 83  1  0  0  0  0
 39 41  1  0  0  0  0
 39 84  1  0  0  0  0
 40 44  1  0  0  0  0
 40 85  1  0  0  0  0
 41 47  1  0  0  0  0
 42 45  1  0  0  0  0
 43 46  1  0  0  0  0
 43 86  1  0  0  0  0
 44 46  2  0  0  0  0
 44 87  1  0  0  0  0
 45 48  2  0  0  0  0
 45 49  1  0  0  0  0
 46 88  1  0  0  0  0
 48 50  1  0  0  0  0
 48 89  1  0  0  0  0
 49 51  2  0  0  0  0
 49 90  1  0  0  0  0
 50 52  2  0  0  0  0
 50 91  1  0  0  0  0
 51 52  1  0  0  0  0
 51 92  1  0  0  0  0
 52 93  1  0  0  0  0
 53 94  1  0  0  0  0
 53 95  1  0  0  0  0
 53 96  1  0  0  0  0
M  END
> <PUBCHEM_COMPOUND_CID>
500655
> <PUBCHEM_COMPOUND_CANONICALIZED>
1
> <PUBCHEM_CACTVS_COMPLEXITY>
1330
> <PUBCHEM_CACTVS_HBOND_ACCEPTOR>
10
> <PUBCHEM_CACTVS_HBOND_DONOR>
3
> <PUBCHEM_CACTVS_ROTATABLE_BOND>
13
> <PUBCHEM_CACTVS_SUBSKEYS>
AAADcfB/uAAAAAAAAAAAAAAAGAAAAWAAAAA8YMGCAAAAAACx9AAAHgAQCAAADbzhnwYz3PfIFgCoAyfyfACCiCklIqAJmKG8bNiObrLE/fuffSju1hvY6ae62aOeCAAAAAACAAAQAAAAAAQAAAAAAAAAAA==
> <PUBCHEM_IUPAC_OPENEYE_NAME>
(2R)-1-[[(2S,4R)-1-[(2S)-2-cyclohexyl-2-(4-methoxycarbonylanilino)acetyl]-4-(2-phenylquinazolin-4-yl)oxy-pyrrolidine-2-carbonyl]amino]-2-vinyl-cyclopropanecarboxylic acid
> <PUBCHEM_IUPAC_CAS_NAME>
(2R)-1-[[[(2S,4R)-1-[(2S)-2-cyclohexyl-2-(4-methoxycarbonylanilino)-1-oxoethyl]-4-[(2-phenyl-4-quinazolinyl)oxy]-2-pyrrolidinyl]-oxomethyl]amino]-2-ethenyl-1-cyclopropanecarboxylic acid
> <PUBCHEM_IUPAC_NAME_MARKUP>
(2<I>R</I>)-1-[[(2<I>S</I>,4<I>R</I>)-1-[(2<I>S</I>)-2-cyclohexyl-2-(4-methoxycarbonylanilino)acetyl]-4-(2-phenylquinazolin-4-yl)oxypyrrolidine-2-carbonyl]amino]-2-ethenylcyclopropane-1-carboxylic acid
> <PUBCHEM_IUPAC_NAME>
(2R)-1-[[(2S,4R)-1-[(2S)-2-cyclohexyl-2-(4-methoxycarbonylanilino)acetyl]-4-(2-phenylquinazolin-4-yl)oxypyrrolidine-2-carbonyl]amino]-2-ethenylcyclopropane-1-carboxylic acid
> <PUBCHEM_IUPAC_SYSTEMATIC_NAME>
(2R)-1-[[(2S,4R)-1-[(2S)-2-cyclohexyl-2-[(4-methoxycarbonylphenyl)amino]ethanoyl]-4-(2-phenylquinazolin-4-yl)oxy-pyrrolidin-2-yl]carbonylamino]-2-ethenyl-cyclopropane-1-carboxylic acid
> <PUBCHEM_IUPAC_TRADITIONAL_NAME>
(2R)-1-[[(2S,4R)-1-[(2S)-2-(4-carbomethoxyanilino)-2-cyclohexyl-acetyl]-4-(2-phenylquinazolin-4-yl)oxy-prolyl]amino]-2-vinyl-cyclopropanecarboxylic acid
> <PUBCHEM_IUPAC_INCHI>
InChI=1S/C41H43N5O7/c1-3-28-23-41(28,40(50)51)45-36(47)33-22-30(53-37-31-16-10-11-17-32(31)43-35(44-37)26-14-8-5-9-15-26)24-46(33)38(48)34(25-12-6-4-7-13-25)42-29-20-18-27(19-21-29)39(49)52-2/h3,5,8-11,14-21,25,28,30,33-34,42H,1,4,6-7,12-13,22-24H2,2H3,(H,45,47)(H,50,51)/t28-,30+,33-,34-,41?/m0/s1
> <PUBCHEM_IUPAC_INCHIKEY>
VZNXYQJJSBMSKY-GKLHEENLSA-N
> <PUBCHEM_XLOGP3_AA>
7
> <PUBCHEM_EXACT_MASS>
717.31624873
> <PUBCHEM_MOLECULAR_FORMULA>
C41H43N5O7
> <PUBCHEM_MOLECULAR_WEIGHT>
717.8
> <PUBCHEM_OPENEYE_CAN_SMILES>
COC(=O)C1=CC=C(C=C1)NC(C2CCCCC2)C(=O)N3CC(CC3C(=O)NC4(CC4C=C)C(=O)O)OC5=NC(=NC6=CC=CC=C65)C7=CC=CC=C7
> <PUBCHEM_OPENEYE_ISO_SMILES>
COC(=O)C1=CC=C(C=C1)N[C@@H](C2CCCCC2)C(=O)N3C[C@@H](C[C@H]3C(=O)NC4(C[C@@H]4C=C)C(=O)O)OC5=NC(=NC6=CC=CC=C65)C7=CC=CC=C7
> <PUBCHEM_CACTVS_TPSA>
160
> <PUBCHEM_MONOISOTOPIC_WEIGHT>
717.31624873
> <PUBCHEM_TOTAL_CHARGE>
0
> <PUBCHEM_HEAVY_ATOM_COUNT>
53
> <PUBCHEM_ATOM_DEF_STEREO_COUNT>
4
> <PUBCHEM_ATOM_UDEF_STEREO_COUNT>
1
> <PUBCHEM_BOND_DEF_STEREO_COUNT>
0
> <PUBCHEM_BOND_UDEF_STEREO_COUNT>
0
> <PUBCHEM_ISOTOPIC_ATOM_COUNT>
0
> <PUBCHEM_COMPONENT_COUNT>
1
> <PUBCHEM_CACTVS_TAUTO_COUNT>
-1
> <PUBCHEM_COORDINATE_TYPE>
1
5
255
> <PUBCHEM_BONDANNOTATIONS>
24  10  6
11  33  8
11  42  8
12  37  8
12  42  8
13  17  3
14  18  5
16  19  5
21  3  6
32  35  8
32  36  8
33  34  8
34  37  8
34  40  8
35  38  8
36  39  8
37  43  8
38  41  8
39  41  8
40  44  8
43  46  8
44  46  8
45  48  8
45  49  8
48  50  8
49  51  8
50  52  8
51  52  8
$$$$
