500662
  -OEChem-10302200282D
106111  0     1  0  0  0  0  0999 V2000
   11.9569    2.5336    0.0000 O   0  0  0  0  0  0  0  0  0  0  0  0
   10.5557    1.5155    0.0000 O   0  0  0  0  0  0  0  0  0  0  0  0
    9.5611    1.4110    0.0000 O   0  0  0  0  0  0  0  0  0  0  0  0
    5.5301    2.9519    0.0000 O   0  0  0  0  0  0  0  0  0  0  0  0
    8.8801    0.2314    0.0000 O   0  0  0  0  0  0  0  0  0  0  0  0
    2.0000    3.9277    0.0000 O   0  0  0  0  0  0  0  0  0  0  0  0
    2.0000    5.9760    0.0000 O   0  0  0  0  0  0  0  0  0  0  0  0
    5.7601   -5.5363    0.0000 O   0  0  0  0  0  0  0  0  0  0  0  0
    4.3588   -4.5182    0.0000 O   0  0  0  0  0  0  0  0  0  0  0  0
    9.3801    3.1335    0.0000 N   0  0  0  0  0  0  0  0  0  0  0  0
    7.4788    1.2494    0.0000 N   0  0  0  0  0  0  0  0  0  0  0  0
    7.7045   -1.3867    0.0000 N   0  0  0  0  0  0  0  0  0  0  0  0
    6.3961    4.4519    0.0000 N   0  0  0  0  0  0  0  0  0  0  0  0
    5.5301    5.9519    0.0000 N   0  0  0  0  0  0  0  0  0  0  0  0
    7.2622    5.9519    0.0000 N   0  0  0  0  0  0  0  0  0  0  0  0
    8.8448    6.2883    0.0000 N   0  0  0  0  0  0  0  0  0  0  0  0
   10.3746    3.2381    0.0000 C   0  0  3  0  0  0  0  0  0  0  0  0
   10.2701    4.2326    0.0000 C   0  0  2  0  0  0  0  0  0  0  0  0
   11.1836    3.8259    0.0000 C   0  0  0  0  0  0  0  0  0  0  0  0
   10.9624    2.4290    0.0000 C   0  0  0  0  0  0  0  0  0  0  0  0
    9.6823    5.0416    0.0000 C   0  0  0  0  0  0  0  0  0  0  0  0
    7.9788    2.1155    0.0000 C   0  0  2  0  0  0  0  0  0  0  0  0
    8.9734    2.2200    0.0000 C   0  0  0  0  0  0  0  0  0  0  0  0
    7.3097    2.8586    0.0000 C   0  0  0  0  0  0  0  0  0  0  0  0
    6.3961    2.4519    0.0000 C   0  0  2  0  0  0  0  0  0  0  0  0
    6.5007    1.4574    0.0000 C   0  0  0  0  0  0  0  0  0  0  0  0
   10.0890    5.9552    0.0000 C   0  0  0  0  0  0  0  0  0  0  0  0
    7.8856    0.3359    0.0000 C   0  0  0  0  0  0  0  0  0  0  0  0
    7.2978   -0.4731    0.0000 C   0  0  2  0  0  0  0  0  0  0  0  0
    6.3033   -0.3686    0.0000 C   0  0  0  0  0  0  0  0  0  0  0  0
    5.3087   -0.2641    0.0000 C   0  0  0  0  0  0  0  0  0  0  0  0
    6.1987   -1.3631    0.0000 C   0  0  0  0  0  0  0  0  0  0  0  0
    6.4078    0.6259    0.0000 C   0  0  0  0  0  0  0  0  0  0  0  0
    5.5301    3.9519    0.0000 C   0  0  0  0  0  0  0  0  0  0  0  0
    7.1167   -2.1957    0.0000 C   0  0  0  0  0  0  0  0  0  0  0  0
    4.6641    4.4519    0.0000 C   0  0  0  0  0  0  0  0  0  0  0  0
    6.1222   -2.0912    0.0000 C   0  0  0  0  0  0  0  0  0  0  0  0
    7.5235   -3.1092    0.0000 C   0  0  0  0  0  0  0  0  0  0  0  0
    4.6641    5.4519    0.0000 C   0  0  0  0  0  0  0  0  0  0  0  0
    3.7702    3.9172    0.0000 C   0  0  0  0  0  0  0  0  0  0  0  0
    6.3961    5.4519    0.0000 C   0  0  0  0  0  0  0  0  0  0  0  0
    5.5344   -2.9002    0.0000 C   0  0  0  0  0  0  0  0  0  0  0  0
    6.9357   -3.9182    0.0000 C   0  0  0  0  0  0  0  0  0  0  0  0
    3.7702    5.9865    0.0000 C   0  0  0  0  0  0  0  0  0  0  0  0
    5.9412   -3.8137    0.0000 C   0  0  0  0  0  0  0  0  0  0  0  0
    2.8641    4.4311    0.0000 C   0  0  0  0  0  0  0  0  0  0  0  0
    2.8641    5.4727    0.0000 C   0  0  0  0  0  0  0  0  0  0  0  0
    5.3534   -4.6227    0.0000 C   0  0  0  0  0  0  0  0  0  0  0  0
    7.3667    6.9464    0.0000 C   0  0  0  0  0  0  0  0  0  0  0  0
    8.1757    5.5451    0.0000 C   0  0  0  0  0  0  0  0  0  0  0  0
    5.1723   -6.3453    0.0000 C   0  0  0  0  0  0  0  0  0  0  0  0
    8.3448    7.1543    0.0000 C   0  0  0  0  0  0  0  0  0  0  0  0
    2.0038    2.9277    0.0000 C   0  0  0  0  0  0  0  0  0  0  0  0
    2.0038    6.9760    0.0000 C   0  0  0  0  0  0  0  0  0  0  0  0
    4.5845   -7.1543    0.0000 C   0  0  0  0  0  0  0  0  0  0  0  0
    5.9813   -6.9331    0.0000 C   0  0  0  0  0  0  0  0  0  0  0  0
    4.3633   -5.7575    0.0000 C   0  0  0  0  0  0  0  0  0  0  0  0
   10.6603    4.7144    0.0000 H   0  0  0  0  0  0  0  0  0  0  0  0
   11.6296    3.3952    0.0000 H   0  0  0  0  0  0  0  0  0  0  0  0
   11.5303    4.3399    0.0000 H   0  0  0  0  0  0  0  0  0  0  0  0
    9.0157    3.6351    0.0000 H   0  0  0  0  0  0  0  0  0  0  0  0
    9.0657    4.9768    0.0000 H   0  0  0  0  0  0  0  0  0  0  0  0
    8.3165    1.5955    0.0000 H   0  0  0  0  0  0  0  0  0  0  0  0
    7.8113    3.2230    0.0000 H   0  0  0  0  0  0  0  0  0  0  0  0
    6.9997    3.3956    0.0000 H   0  0  0  0  0  0  0  0  0  0  0  0
    5.8762    2.1142    0.0000 H   0  0  0  0  0  0  0  0  0  0  0  0
    5.8807    1.4574    0.0000 H   0  0  0  0  0  0  0  0  0  0  0  0
    6.4359    0.8408    0.0000 H   0  0  0  0  0  0  0  0  0  0  0  0
   10.7056    6.0200    0.0000 H   0  0  0  0  0  0  0  0  0  0  0  0
    9.7246    6.4568    0.0000 H   0  0  0  0  0  0  0  0  0  0  0  0
    6.9334   -0.9747    0.0000 H   0  0  0  0  0  0  0  0  0  0  0  0
   12.3213    2.0320    0.0000 H   0  0  0  0  0  0  0  0  0  0  0  0
    8.3211   -1.4515    0.0000 H   0  0  0  0  0  0  0  0  0  0  0  0
    5.3735    0.3525    0.0000 H   0  0  0  0  0  0  0  0  0  0  0  0
    4.6921   -0.1993    0.0000 H   0  0  0  0  0  0  0  0  0  0  0  0
    5.2439   -0.8807    0.0000 H   0  0  0  0  0  0  0  0  0  0  0  0
    5.5821   -1.2983    0.0000 H   0  0  0  0  0  0  0  0  0  0  0  0
    6.1339   -1.9797    0.0000 H   0  0  0  0  0  0  0  0  0  0  0  0
    6.8153   -1.4279    0.0000 H   0  0  0  0  0  0  0  0  0  0  0  0
    7.0244    0.5611    0.0000 H   0  0  0  0  0  0  0  0  0  0  0  0
    6.4726    1.2425    0.0000 H   0  0  0  0  0  0  0  0  0  0  0  0
    5.7912    0.6907    0.0000 H   0  0  0  0  0  0  0  0  0  0  0  0
    5.8700   -1.5248    0.0000 H   0  0  0  0  0  0  0  0  0  0  0  0
    8.1401   -3.1740    0.0000 H   0  0  0  0  0  0  0  0  0  0  0  0
    3.7773    3.2973    0.0000 H   0  0  0  0  0  0  0  0  0  0  0  0
    4.9178   -2.8354    0.0000 H   0  0  0  0  0  0  0  0  0  0  0  0
    7.1879   -4.4846    0.0000 H   0  0  0  0  0  0  0  0  0  0  0  0
    3.7773    6.6065    0.0000 H   0  0  0  0  0  0  0  0  0  0  0  0
    6.9060    7.3613    0.0000 H   0  0  0  0  0  0  0  0  0  0  0  0
    8.3046    4.9387    0.0000 H   0  0  0  0  0  0  0  0  0  0  0  0
    8.5970    7.7207    0.0000 H   0  0  0  0  0  0  0  0  0  0  0  0
    1.3839    2.9254    0.0000 H   0  0  0  0  0  0  0  0  0  0  0  0
    2.0062    2.3077    0.0000 H   0  0  0  0  0  0  0  0  0  0  0  0
    2.6238    2.9301    0.0000 H   0  0  0  0  0  0  0  0  0  0  0  0
    2.6238    6.9736    0.0000 H   0  0  0  0  0  0  0  0  0  0  0  0
    2.0062    7.5960    0.0000 H   0  0  0  0  0  0  0  0  0  0  0  0
    1.3839    6.9784    0.0000 H   0  0  0  0  0  0  0  0  0  0  0  0
    4.0830   -6.7899    0.0000 H   0  0  0  0  0  0  0  0  0  0  0  0
    4.2201   -7.6559    0.0000 H   0  0  0  0  0  0  0  0  0  0  0  0
    5.0861   -7.5187    0.0000 H   0  0  0  0  0  0  0  0  0  0  0  0
    5.6169   -7.4347    0.0000 H   0  0  0  0  0  0  0  0  0  0  0  0
    6.4829   -7.2975    0.0000 H   0  0  0  0  0  0  0  0  0  0  0  0
    6.3458   -6.4315    0.0000 H   0  0  0  0  0  0  0  0  0  0  0  0
    4.7277   -5.2559    0.0000 H   0  0  0  0  0  0  0  0  0  0  0  0
    3.8617   -5.3931    0.0000 H   0  0  0  0  0  0  0  0  0  0  0  0
    3.9989   -6.2591    0.0000 H   0  0  0  0  0  0  0  0  0  0  0  0
  1 20  1  0  0  0  0
  1 72  1  0  0  0  0
  2 20  2  0  0  0  0
  3 23  2  0  0  0  0
 25  4  1  6  0  0  0
  4 34  1  0  0  0  0
  5 28  2  0  0  0  0
  6 46  1  0  0  0  0
  6 53  1  0  0  0  0
  7 47  1  0  0  0  0
  7 54  1  0  0  0  0
  8 48  1  0  0  0  0
  8 51  1  0  0  0  0
  9 48  2  0  0  0  0
 10 17  1  0  0  0  0
 10 23  1  0  0  0  0
 10 61  1  0  0  0  0
 11 22  1  0  0  0  0
 11 26  1  0  0  0  0
 11 28  1  0  0  0  0
 29 12  1  1  0  0  0
 12 35  1  0  0  0  0
 12 73  1  0  0  0  0
 13 34  2  0  0  0  0
 13 41  1  0  0  0  0
 14 39  1  0  0  0  0
 14 41  2  0  0  0  0
 15 41  1  0  0  0  0
 15 49  1  0  0  0  0
 15 50  1  0  0  0  0
 16 50  2  0  0  0  0
 16 52  1  0  0  0  0
 17 18  1  0  0  0  0
 17 19  1  0  0  0  0
 17 20  1  0  0  0  0
 18 19  1  0  0  0  0
 18 21  1  1  0  0  0
 18 58  1  0  0  0  0
 19 59  1  0  0  0  0
 19 60  1  0  0  0  0
 21 27  2  0  0  0  0
 21 62  1  0  0  0  0
 22 23  1  1  0  0  0
 22 24  1  0  0  0  0
 22 63  1  0  0  0  0
 24 25  1  0  0  0  0
 24 64  1  0  0  0  0
 24 65  1  0  0  0  0
 25 26  1  0  0  0  0
 25 66  1  0  0  0  0
 26 67  1  0  0  0  0
 26 68  1  0  0  0  0
 27 69  1  0  0  0  0
 27 70  1  0  0  0  0
 28 29  1  0  0  0  0
 29 30  1  0  0  0  0
 29 71  1  0  0  0  0
 30 31  1  0  0  0  0
 30 32  1  0  0  0  0
 30 33  1  0  0  0  0
 31 74  1  0  0  0  0
 31 75  1  0  0  0  0
 31 76  1  0  0  0  0
 32 77  1  0  0  0  0
 32 78  1  0  0  0  0
 32 79  1  0  0  0  0
 33 80  1  0  0  0  0
 33 81  1  0  0  0  0
 33 82  1  0  0  0  0
 34 36  1  0  0  0  0
 35 37  2  0  0  0  0
 35 38  1  0  0  0  0
 36 39  1  0  0  0  0
 36 40  2  0  0  0  0
 37 42  1  0  0  0  0
 37 83  1  0  0  0  0
 38 43  2  0  0  0  0
 38 84  1  0  0  0  0
 39 44  2  0  0  0  0
 40 46  1  0  0  0  0
 40 85  1  0  0  0  0
 42 45  2  0  0  0  0
 42 86  1  0  0  0  0
 43 45  1  0  0  0  0
 43 87  1  0  0  0  0
 44 47  1  0  0  0  0
 44 88  1  0  0  0  0
 45 48  1  0  0  0  0
 46 47  2  0  0  0  0
 49 52  2  0  0  0  0
 49 89  1  0  0  0  0
 50 90  1  0  0  0  0
 51 55  1  0  0  0  0
 51 56  1  0  0  0  0
 51 57  1  0  0  0  0
 52 91  1  0  0  0  0
 53 92  1  0  0  0  0
 53 93  1  0  0  0  0
 53 94  1  0  0  0  0
 54 95  1  0  0  0  0
 54 96  1  0  0  0  0
 54 97  1  0  0  0  0
 55 98  1  0  0  0  0
 55 99  1  0  0  0  0
 55100  1  0  0  0  0
 56101  1  0  0  0  0
 56102  1  0  0  0  0
 56103  1  0  0  0  0
 57104  1  0  0  0  0
 57105  1  0  0  0  0
 57106  1  0  0  0  0
M  END
> <PUBCHEM_COMPOUND_CID>
500662
> <PUBCHEM_COMPOUND_CANONICALIZED>
1
> <PUBCHEM_CACTVS_COMPLEXITY>
1480
> <PUBCHEM_CACTVS_HBOND_ACCEPTOR>
13
> <PUBCHEM_CACTVS_HBOND_DONOR>
3
> <PUBCHEM_CACTVS_ROTATABLE_BOND>
16
> <PUBCHEM_CACTVS_SUBSKEYS>
AAADcfB/vAAAAAAAAAAAAAAAGAAAAWLAAAA8YIAAAAAAAACx/AAAHgAQCAAAD/zhngY/3vfMFgCoAzX3fACCiC01MqAJ2KG+/NiPbrLE/fuffSru1hva6af6+T+fKEABAgACQABQgAIEAASAAAAAAAAAAA==
> <PUBCHEM_IUPAC_OPENEYE_NAME>
(2R)-1-[[(2S,4R)-1-[(2S)-2-(4-tert-butoxycarbonylanilino)-3,3-dimethyl-butanoyl]-4-(2-imidazol-1-yl-6,7-dimethoxy-quinazolin-4-yl)oxy-pyrrolidine-2-carbonyl]amino]-2-vinyl-cyclopropanecarboxylic acid
> <PUBCHEM_IUPAC_CAS_NAME>
(2R)-1-[[[(2S,4R)-1-[(2S)-3,3-dimethyl-2-[4-[(2-methylpropan-2-yl)oxy-oxomethyl]anilino]-1-oxobutyl]-4-[[2-(1-imidazolyl)-6,7-dimethoxy-4-quinazolinyl]oxy]-2-pyrrolidinyl]-oxomethyl]amino]-2-ethenyl-1-cyclopropanecarboxylic acid
> <PUBCHEM_IUPAC_NAME_MARKUP>
(2<I>R</I>)-1-[[(2<I>S</I>,4<I>R</I>)-1-[(2<I>S</I>)-3,3-dimethyl-2-[4-[(2-methylpropan-2-yl)oxycarbonyl]anilino]butanoyl]-4-(2-imidazol-1-yl-6,7-dimethoxyquinazolin-4-yl)oxypyrrolidine-2-carbonyl]amino]-2-ethenylcyclopropane-1-carboxylic acid
> <PUBCHEM_IUPAC_NAME>
(2R)-1-[[(2S,4R)-1-[(2S)-3,3-dimethyl-2-[4-[(2-methylpropan-2-yl)oxycarbonyl]anilino]butanoyl]-4-(2-imidazol-1-yl-6,7-dimethoxyquinazolin-4-yl)oxypyrrolidine-2-carbonyl]amino]-2-ethenylcyclopropane-1-carboxylic acid
> <PUBCHEM_IUPAC_SYSTEMATIC_NAME>
(2R)-1-[[(2S,4R)-1-[(2S)-3,3-dimethyl-2-[[4-[(2-methylpropan-2-yl)oxycarbonyl]phenyl]amino]butanoyl]-4-(2-imidazol-1-yl-6,7-dimethoxy-quinazolin-4-yl)oxy-pyrrolidin-2-yl]carbonylamino]-2-ethenyl-cyclopropane-1-carboxylic acid
> <PUBCHEM_IUPAC_TRADITIONAL_NAME>
(2R)-1-[[(2S,4R)-1-[(2S)-2-(4-tert-butoxycarbonylanilino)-3,3-dimethyl-butanoyl]-4-(2-imidazol-1-yl-6,7-dimethoxy-quinazolin-4-yl)oxy-prolyl]amino]-2-vinyl-cyclopropanecarboxylic acid
> <PUBCHEM_IUPAC_INCHI>
InChI=1S/C41H49N7O9/c1-10-24-20-41(24,37(52)53)46-33(49)29-17-26(56-34-27-18-30(54-8)31(55-9)19-28(27)44-38(45-34)47-16-15-42-22-47)21-48(29)35(50)32(39(2,3)4)43-25-13-11-23(12-14-25)36(51)57-40(5,6)7/h10-16,18-19,22,24,26,29,32,43H,1,17,20-21H2,2-9H3,(H,46,49)(H,52,53)/t24-,26+,29-,32+,41?/m0/s1
> <PUBCHEM_IUPAC_INCHIKEY>
JEDFKJXWOQSTSI-OYOXMCJISA-N
> <PUBCHEM_XLOGP3_AA>
5.7
> <PUBCHEM_EXACT_MASS>
783.35917617
> <PUBCHEM_MOLECULAR_FORMULA>
C41H49N7O9
> <PUBCHEM_MOLECULAR_WEIGHT>
783.9
> <PUBCHEM_OPENEYE_CAN_SMILES>
CC(C)(C)C(C(=O)N1CC(CC1C(=O)NC2(CC2C=C)C(=O)O)OC3=NC(=NC4=CC(=C(C=C43)OC)OC)N5C=CN=C5)NC6=CC=C(C=C6)C(=O)OC(C)(C)C
> <PUBCHEM_OPENEYE_ISO_SMILES>
CC(C)(C)[C@@H](C(=O)N1C[C@@H](C[C@H]1C(=O)NC2(C[C@@H]2C=C)C(=O)O)OC3=NC(=NC4=CC(=C(C=C43)OC)OC)N5C=CN=C5)NC6=CC=C(C=C6)C(=O)OC(C)(C)C
> <PUBCHEM_CACTVS_TPSA>
196
> <PUBCHEM_MONOISOTOPIC_WEIGHT>
783.35917617
> <PUBCHEM_TOTAL_CHARGE>
0
> <PUBCHEM_HEAVY_ATOM_COUNT>
57
> <PUBCHEM_ATOM_DEF_STEREO_COUNT>
4
> <PUBCHEM_ATOM_UDEF_STEREO_COUNT>
1
> <PUBCHEM_BOND_DEF_STEREO_COUNT>
0
> <PUBCHEM_BOND_UDEF_STEREO_COUNT>
0
> <PUBCHEM_ISOTOPIC_ATOM_COUNT>
0
> <PUBCHEM_COMPONENT_COUNT>
1
> <PUBCHEM_CACTVS_TAUTO_COUNT>
-1
> <PUBCHEM_COORDINATE_TYPE>
1
5
255
> <PUBCHEM_BONDANNOTATIONS>
29  12  5
13  34  8
13  41  8
14  39  8
14  41  8
15  49  8
15  50  8
16  50  8
16  52  8
17  20  3
18  21  5
22  23  5
34  36  8
35  37  8
35  38  8
36  39  8
36  40  8
37  42  8
38  43  8
39  44  8
25  4  6
40  46  8
42  45  8
43  45  8
44  47  8
46  47  8
49  52  8
$$$$
