500638
  -OEChem-10302200282D
 85 88  0     1  0  0  0  0  0999 V2000
   11.6804   -4.3548    0.0000 O   0  0  0  0  0  0  0  0  0  0  0  0
   10.0981   -3.6503    0.0000 O   0  0  0  0  0  0  0  0  0  0  0  0
    9.5103   -2.8413    0.0000 O   0  0  0  0  0  0  0  0  0  0  0  0
    8.8292    1.4201    0.0000 O   0  0  0  0  0  0  0  0  0  0  0  0
    8.1482   -2.8413    0.0000 O   0  0  0  0  0  0  0  0  0  0  0  0
    4.5768   -3.3367    0.0000 O   0  0  0  0  0  0  0  0  0  0  0  0
    4.7579   -1.6142    0.0000 O   0  0  0  0  0  0  0  0  0  0  0  0
   10.9115   -1.8232    0.0000 N   0  0  0  0  0  0  0  0  0  0  0  0
    8.3292   -1.1187    0.0000 N   0  0  0  0  0  0  0  0  0  0  0  0
    6.1591   -2.6322    0.0000 N   0  0  0  0  0  0  0  0  0  0  0  0
   11.4993   -2.6322    0.0000 C   0  0  3  0  0  0  0  0  0  0  0  0
   12.3083   -2.0445    0.0000 C   0  0  2  0  0  0  0  0  0  0  0  0
   12.4129   -3.0390    0.0000 C   0  0  0  0  0  0  0  0  0  0  0  0
   12.7151   -1.1309    0.0000 C   0  0  0  0  0  0  0  0  0  0  0  0
   11.0926   -3.5458    0.0000 C   0  0  0  0  0  0  0  0  0  0  0  0
    9.9170   -1.9278    0.0000 C   0  0  0  0  0  0  0  0  0  0  0  0
    9.3292   -1.1187    0.0000 C   0  0  2  0  0  0  0  0  0  0  0  0
   13.7096   -1.0264    0.0000 C   0  0  0  0  0  0  0  0  0  0  0  0
    9.6382   -0.1677    0.0000 C   0  0  0  0  0  0  0  0  0  0  0  0
    8.8292    0.4201    0.0000 C   0  0  2  0  0  0  0  0  0  0  0  0
    8.0202   -0.1677    0.0000 C   0  0  0  0  0  0  0  0  0  0  0  0
    7.7414   -1.9278    0.0000 C   0  0  0  0  0  0  0  0  0  0  0  0
    6.7469   -1.8232    0.0000 C   0  0  2  0  0  0  0  0  0  0  0  0
    6.3402   -0.9097    0.0000 C   0  0  0  0  0  0  0  0  0  0  0  0
    9.6952    1.9201    0.0000 C   0  0  0  0  0  0  0  0  0  0  0  0
    5.3457   -0.8052    0.0000 C   0  0  0  0  0  0  0  0  0  0  0  0
    6.9280   -0.1007    0.0000 C   0  0  0  0  0  0  0  0  0  0  0  0
    9.6952    2.9201    0.0000 C   0  0  0  0  0  0  0  0  0  0  0  0
    5.1646   -2.5277    0.0000 C   0  0  0  0  0  0  0  0  0  0  0  0
   10.5613    3.4201    0.0000 C   0  0  0  0  0  0  0  0  0  0  0  0
    8.8292    3.4201    0.0000 C   0  0  0  0  0  0  0  0  0  0  0  0
   10.5613    4.4201    0.0000 C   0  0  0  0  0  0  0  0  0  0  0  0
    8.8292    4.4201    0.0000 C   0  0  0  0  0  0  0  0  0  0  0  0
   11.4552    2.8854    0.0000 C   0  0  0  0  0  0  0  0  0  0  0  0
    9.6952    4.9201    0.0000 C   0  0  0  0  0  0  0  0  0  0  0  0
    3.5823   -3.2322    0.0000 C   0  0  0  0  0  0  0  0  0  0  0  0
   11.4552    4.9548    0.0000 C   0  0  0  0  0  0  0  0  0  0  0  0
   12.3613    3.3993    0.0000 C   0  0  0  0  0  0  0  0  0  0  0  0
    2.9945   -4.0412    0.0000 C   0  0  0  0  0  0  0  0  0  0  0  0
   12.3613    4.4409    0.0000 C   0  0  0  0  0  0  0  0  0  0  0  0
    2.0000   -3.9367    0.0000 C   0  0  0  0  0  0  0  0  0  0  0  0
    3.4013   -4.9548    0.0000 C   0  0  0  0  0  0  0  0  0  0  0  0
   12.9207   -2.1414    0.0000 H   0  0  0  0  0  0  0  0  0  0  0  0
   12.2629   -3.6406    0.0000 H   0  0  0  0  0  0  0  0  0  0  0  0
   13.0314   -3.0822    0.0000 H   0  0  0  0  0  0  0  0  0  0  0  0
   12.7583   -0.5124    0.0000 H   0  0  0  0  0  0  0  0  0  0  0  0
   12.1135   -0.9809    0.0000 H   0  0  0  0  0  0  0  0  0  0  0  0
   11.1637   -1.2568    0.0000 H   0  0  0  0  0  0  0  0  0  0  0  0
    9.0478   -1.6712    0.0000 H   0  0  0  0  0  0  0  0  0  0  0  0
   13.7744   -1.6430    0.0000 H   0  0  0  0  0  0  0  0  0  0  0  0
   14.3262   -0.9616    0.0000 H   0  0  0  0  0  0  0  0  0  0  0  0
   13.6448   -0.4098    0.0000 H   0  0  0  0  0  0  0  0  0  0  0  0
   10.2046   -0.4199    0.0000 H   0  0  0  0  0  0  0  0  0  0  0  0
    9.9482    0.3693    0.0000 H   0  0  0  0  0  0  0  0  0  0  0  0
    9.3816    0.7016    0.0000 H   0  0  0  0  0  0  0  0  0  0  0  0
    7.7102    0.3693    0.0000 H   0  0  0  0  0  0  0  0  0  0  0  0
    7.4538   -0.4199    0.0000 H   0  0  0  0  0  0  0  0  0  0  0  0
   11.4282   -4.9212    0.0000 H   0  0  0  0  0  0  0  0  0  0  0  0
    6.9991   -2.3896    0.0000 H   0  0  0  0  0  0  0  0  0  0  0  0
    5.9758   -1.4113    0.0000 H   0  0  0  0  0  0  0  0  0  0  0  0
    9.9073    1.3375    0.0000 H   0  0  0  0  0  0  0  0  0  0  0  0
   10.3058    2.0278    0.0000 H   0  0  0  0  0  0  0  0  0  0  0  0
    6.4113   -3.1986    0.0000 H   0  0  0  0  0  0  0  0  0  0  0  0
    5.4105   -0.1885    0.0000 H   0  0  0  0  0  0  0  0  0  0  0  0
    4.7291   -0.7403    0.0000 H   0  0  0  0  0  0  0  0  0  0  0  0
    5.2809   -1.4218    0.0000 H   0  0  0  0  0  0  0  0  0  0  0  0
    7.4296   -0.4651    0.0000 H   0  0  0  0  0  0  0  0  0  0  0  0
    7.2924    0.4009    0.0000 H   0  0  0  0  0  0  0  0  0  0  0  0
    6.4264    0.2638    0.0000 H   0  0  0  0  0  0  0  0  0  0  0  0
    8.2923    3.1101    0.0000 H   0  0  0  0  0  0  0  0  0  0  0  0
    8.2923    4.7301    0.0000 H   0  0  0  0  0  0  0  0  0  0  0  0
   11.4481    2.2655    0.0000 H   0  0  0  0  0  0  0  0  0  0  0  0
    9.6952    5.5401    0.0000 H   0  0  0  0  0  0  0  0  0  0  0  0
    3.7532   -2.6362    0.0000 H   0  0  0  0  0  0  0  0  0  0  0  0
    3.0250   -2.9604    0.0000 H   0  0  0  0  0  0  0  0  0  0  0  0
   11.4481    5.5747    0.0000 H   0  0  0  0  0  0  0  0  0  0  0  0
   12.8970    3.0872    0.0000 H   0  0  0  0  0  0  0  0  0  0  0  0
    2.6301   -4.5428    0.0000 H   0  0  0  0  0  0  0  0  0  0  0  0
   12.8970    4.7530    0.0000 H   0  0  0  0  0  0  0  0  0  0  0  0
    2.0648   -3.3201    0.0000 H   0  0  0  0  0  0  0  0  0  0  0  0
    1.3834   -3.8719    0.0000 H   0  0  0  0  0  0  0  0  0  0  0  0
    1.9352   -4.5533    0.0000 H   0  0  0  0  0  0  0  0  0  0  0  0
    2.8349   -5.2069    0.0000 H   0  0  0  0  0  0  0  0  0  0  0  0
    3.6534   -5.5212    0.0000 H   0  0  0  0  0  0  0  0  0  0  0  0
    3.9677   -4.7026    0.0000 H   0  0  0  0  0  0  0  0  0  0  0  0
  1 15  1  0  0  0  0
  1 58  1  0  0  0  0
  2 15  2  0  0  0  0
  3 16  2  0  0  0  0
 20  4  1  6  0  0  0
  4 25  1  0  0  0  0
  5 22  2  0  0  0  0
  6 29  1  0  0  0  0
  6 36  1  0  0  0  0
  7 29  2  0  0  0  0
  8 11  1  0  0  0  0
  8 16  1  0  0  0  0
  8 48  1  0  0  0  0
  9 17  1  0  0  0  0
  9 21  1  0  0  0  0
  9 22  1  0  0  0  0
 23 10  1  1  0  0  0
 10 29  1  0  0  0  0
 10 63  1  0  0  0  0
 11 12  1  0  0  0  0
 11 13  1  0  0  0  0
 11 15  1  0  0  0  0
 12 13  1  0  0  0  0
 12 14  1  1  0  0  0
 12 43  1  0  0  0  0
 13 44  1  0  0  0  0
 13 45  1  0  0  0  0
 14 18  1  0  0  0  0
 14 46  1  0  0  0  0
 14 47  1  0  0  0  0
 17 16  1  1  0  0  0
 17 19  1  0  0  0  0
 17 49  1  0  0  0  0
 18 50  1  0  0  0  0
 18 51  1  0  0  0  0
 18 52  1  0  0  0  0
 19 20  1  0  0  0  0
 19 53  1  0  0  0  0
 19 54  1  0  0  0  0
 20 21  1  0  0  0  0
 20 55  1  0  0  0  0
 21 56  1  0  0  0  0
 21 57  1  0  0  0  0
 22 23  1  0  0  0  0
 23 24  1  0  0  0  0
 23 59  1  0  0  0  0
 24 26  1  0  0  0  0
 24 27  1  0  0  0  0
 24 60  1  0  0  0  0
 25 28  1  0  0  0  0
 25 61  1  0  0  0  0
 25 62  1  0  0  0  0
 26 64  1  0  0  0  0
 26 65  1  0  0  0  0
 26 66  1  0  0  0  0
 27 67  1  0  0  0  0
 27 68  1  0  0  0  0
 27 69  1  0  0  0  0
 28 30  1  0  0  0  0
 28 31  2  0  0  0  0
 30 32  1  0  0  0  0
 30 34  2  0  0  0  0
 31 33  1  0  0  0  0
 31 70  1  0  0  0  0
 32 35  1  0  0  0  0
 32 37  2  0  0  0  0
 33 35  2  0  0  0  0
 33 71  1  0  0  0  0
 34 38  1  0  0  0  0
 34 72  1  0  0  0  0
 35 73  1  0  0  0  0
 36 39  1  0  0  0  0
 36 74  1  0  0  0  0
 36 75  1  0  0  0  0
 37 40  1  0  0  0  0
 37 76  1  0  0  0  0
 38 40  2  0  0  0  0
 38 77  1  0  0  0  0
 39 41  1  0  0  0  0
 39 42  1  0  0  0  0
 39 78  1  0  0  0  0
 40 79  1  0  0  0  0
 41 80  1  0  0  0  0
 41 81  1  0  0  0  0
 41 82  1  0  0  0  0
 42 83  1  0  0  0  0
 42 84  1  0  0  0  0
 42 85  1  0  0  0  0
M  END
> <PUBCHEM_COMPOUND_CID>
500638
> <PUBCHEM_COMPOUND_CANONICALIZED>
1
> <PUBCHEM_CACTVS_COMPLEXITY>
987
> <PUBCHEM_CACTVS_HBOND_ACCEPTOR>
7
> <PUBCHEM_CACTVS_HBOND_DONOR>
3
> <PUBCHEM_CACTVS_ROTATABLE_BOND>
13
> <PUBCHEM_CACTVS_SUBSKEYS>
AAADcfB/OAAAAAAAAAAAAAAAGAAAAWAAAAAwYAAAAAAAAADBUAAAHgAQCAAADbzhmAYyCMPABgCIAiHSGAACAAAgAAAIiIGICIkKZjKAsTifcAAm1gGYqAe6yeAOgAACAAAQAAAAAAQAACAAAAAAAAAAAA==
> <PUBCHEM_IUPAC_OPENEYE_NAME>
(2S)-2-ethyl-1-[[(2S,4R)-1-[(2S)-2-(isobutoxycarbonylamino)-3-methyl-butanoyl]-4-(1-naphthylmethoxy)pyrrolidine-2-carbonyl]amino]cyclopropanecarboxylic acid
> <PUBCHEM_IUPAC_CAS_NAME>
(2S)-2-ethyl-1-[[[(2S,4R)-1-[(2S)-3-methyl-2-[[2-methylpropoxy(oxo)methyl]amino]-1-oxobutyl]-4-(1-naphthalenylmethoxy)-2-pyrrolidinyl]-oxomethyl]amino]-1-cyclopropanecarboxylic acid
> <PUBCHEM_IUPAC_NAME_MARKUP>
(2<I>S</I>)-2-ethyl-1-[[(2<I>S</I>,4<I>R</I>)-1-[(2<I>S</I>)-3-methyl-2-(2-methylpropoxycarbonylamino)butanoyl]-4-(naphthalen-1-ylmethoxy)pyrrolidine-2-carbonyl]amino]cyclopropane-1-carboxylic acid
> <PUBCHEM_IUPAC_NAME>
(2S)-2-ethyl-1-[[(2S,4R)-1-[(2S)-3-methyl-2-(2-methylpropoxycarbonylamino)butanoyl]-4-(naphthalen-1-ylmethoxy)pyrrolidine-2-carbonyl]amino]cyclopropane-1-carboxylic acid
> <PUBCHEM_IUPAC_SYSTEMATIC_NAME>
(2S)-2-ethyl-1-[[(2S,4R)-1-[(2S)-3-methyl-2-(2-methylpropoxycarbonylamino)butanoyl]-4-(naphthalen-1-ylmethoxy)pyrrolidin-2-yl]carbonylamino]cyclopropane-1-carboxylic acid
> <PUBCHEM_IUPAC_TRADITIONAL_NAME>
(2S)-2-ethyl-1-[[(2S,4R)-1-[(2S)-2-(isobutoxycarbonylamino)-3-methyl-butanoyl]-4-(1-naphthylmethoxy)prolyl]amino]cyclopropanecarboxylic acid
> <PUBCHEM_IUPAC_INCHI>
InChI=1S/C32H43N3O7/c1-6-23-15-32(23,30(38)39)34-28(36)26-14-24(41-18-22-12-9-11-21-10-7-8-13-25(21)22)16-35(26)29(37)27(20(4)5)33-31(40)42-17-19(2)3/h7-13,19-20,23-24,26-27H,6,14-18H2,1-5H3,(H,33,40)(H,34,36)(H,38,39)/t23-,24+,26-,27-,32?/m0/s1
> <PUBCHEM_IUPAC_INCHIKEY>
LMGBSTARLBUYON-CTYOGZAHSA-N
> <PUBCHEM_XLOGP3_AA>
5.1
> <PUBCHEM_EXACT_MASS>
581.31010072
> <PUBCHEM_MOLECULAR_FORMULA>
C32H43N3O7
> <PUBCHEM_MOLECULAR_WEIGHT>
581.7
> <PUBCHEM_OPENEYE_CAN_SMILES>
CCC1CC1(C(=O)O)NC(=O)C2CC(CN2C(=O)C(C(C)C)NC(=O)OCC(C)C)OCC3=CC=CC4=CC=CC=C43
> <PUBCHEM_OPENEYE_ISO_SMILES>
CC[C@H]1CC1(C(=O)O)NC(=O)[C@@H]2C[C@H](CN2C(=O)[C@H](C(C)C)NC(=O)OCC(C)C)OCC3=CC=CC4=CC=CC=C43
> <PUBCHEM_CACTVS_TPSA>
134
> <PUBCHEM_MONOISOTOPIC_WEIGHT>
581.31010072
> <PUBCHEM_TOTAL_CHARGE>
0
> <PUBCHEM_HEAVY_ATOM_COUNT>
42
> <PUBCHEM_ATOM_DEF_STEREO_COUNT>
4
> <PUBCHEM_ATOM_UDEF_STEREO_COUNT>
1
> <PUBCHEM_BOND_DEF_STEREO_COUNT>
0
> <PUBCHEM_BOND_UDEF_STEREO_COUNT>
0
> <PUBCHEM_ISOTOPIC_ATOM_COUNT>
0
> <PUBCHEM_COMPONENT_COUNT>
1
> <PUBCHEM_CACTVS_TAUTO_COUNT>
-1
> <PUBCHEM_COORDINATE_TYPE>
1
5
255
> <PUBCHEM_BONDANNOTATIONS>
23  10  5
11  15  3
12  14  5
17  16  5
28  30  8
28  31  8
30  32  8
30  34  8
31  33  8
32  35  8
32  37  8
33  35  8
34  38  8
37  40  8
38  40  8
20  4  6
$$$$
