500623
  -OEChem-10302200282D
139142  0     1  0  0  0  0  0999 V2000
    5.5000   -2.8912    0.0000 P   0  0  0  0  0  0  0  0  0  0  0  0
   10.4535   -5.0072    0.0000 O   0  0  0  0  0  0  0  0  0  0  0  0
    9.3424   -0.8372    0.0000 O   0  0  0  0  0  0  0  0  0  0  0  0
    8.0981   -1.3912    0.0000 O   0  0  0  0  0  0  0  0  0  0  0  0
    4.6340   -3.3912    0.0000 O   0  0  0  0  0  0  0  0  0  0  0  0
    5.0000   -2.0252    0.0000 O   0  0  0  0  0  0  0  0  0  0  0  0
   12.9387   -0.5793    0.0000 O   0  0  0  0  0  0  0  0  0  0  0  0
    6.0000   -3.7572    0.0000 O   0  0  0  0  0  0  0  0  0  0  0  0
   14.0977    0.7079    0.0000 O   0  0  0  0  0  0  0  0  0  0  0  0
   12.8193    3.0243    0.0000 O   0  0  0  0  0  0  0  0  0  0  0  0
   16.4156    3.2822    0.0000 O   0  0  0  0  0  0  0  0  0  0  0  0
   17.9019    1.9440    0.0000 O   0  0  0  0  0  0  0  0  0  0  0  0
   16.7430    0.6568    0.0000 O   0  0  0  0  0  0  0  0  0  0  0  0
   14.6020    7.2459    0.0000 O   0  0  0  0  0  0  0  0  0  0  0  0
   16.2962    6.8858    0.0000 O   0  0  0  0  0  0  0  0  0  0  0  0
   17.3667    3.5912    0.0000 O   0  0  0  0  0  0  0  0  0  0  0  0
    9.8776   -2.4845    0.0000 N   0  0  0  0  0  0  0  0  0  0  0  0
    7.2320   -2.8912    0.0000 N   0  0  0  0  0  0  0  0  0  0  0  0
   11.2445   -0.2192    0.0000 N   0  0  0  0  0  0  0  0  0  0  0  0
   13.3546    1.3770    0.0000 N   0  0  0  0  0  0  0  0  0  0  0  0
   14.7214    3.6423    0.0000 N   0  0  0  0  0  0  0  0  0  0  0  0
   16.8315    5.2385    0.0000 N   0  0  0  0  0  0  0  0  0  0  0  0
    8.9641   -2.8912    0.0000 C   0  0  1  0  0  0  0  0  0  0  0  0
   10.0468   -4.0936    0.0000 C   0  0  2  0  0  0  0  0  0  0  0  0
    9.0686   -3.8857    0.0000 C   0  0  0  0  0  0  0  0  0  0  0  0
   10.5468   -3.2276    0.0000 C   0  0  0  0  0  0  0  0  0  0  0  0
   10.0856   -1.5063    0.0000 C   0  0  0  0  0  0  0  0  0  0  0  0
   11.0366   -1.1973    0.0000 C   0  0  2  0  0  0  0  0  0  0  0  0
    8.0981   -2.3912    0.0000 C   0  0  0  0  0  0  0  0  0  0  0  0
   11.7798   -1.8664    0.0000 C   0  0  0  0  0  0  0  0  0  0  0  0
    6.3660   -2.3912    0.0000 C   0  0  3  0  0  0  0  0  0  0  0  0
   11.4480   -5.1117    0.0000 C   0  0  0  0  0  0  0  0  0  0  0  0
   12.7308   -1.5574    0.0000 C   0  0  0  0  0  0  0  0  0  0  0  0
   11.5718   -2.8446    0.0000 C   0  0  0  0  0  0  0  0  0  0  0  0
   12.4035    1.0680    0.0000 C   0  0  2  0  0  0  0  0  0  0  0  0
    6.3660   -1.3912    0.0000 C   0  0  0  0  0  0  0  0  0  0  0  0
   12.1956    0.0899    0.0000 C   0  0  0  0  0  0  0  0  0  0  0  0
   11.6604    1.7371    0.0000 C   0  0  2  0  0  0  0  0  0  0  0  0
    7.2320   -0.8912    0.0000 C   0  0  0  0  0  0  0  0  0  0  0  0
   11.8548   -6.0253    0.0000 C   0  0  0  0  0  0  0  0  0  0  0  0
   11.8683    2.7153    0.0000 C   0  0  0  0  0  0  0  0  0  0  0  0
   10.7093    1.4281    0.0000 C   0  0  0  0  0  0  0  0  0  0  0  0
   13.5625    2.3552    0.0000 C   0  0  0  0  0  0  0  0  0  0  0  0
    7.2320    0.1088    0.0000 C   0  0  0  0  0  0  0  0  0  0  0  0
   11.1251    3.3844    0.0000 C   0  0  0  0  0  0  0  0  0  0  0  0
   12.8493   -6.1298    0.0000 C   0  0  0  0  0  0  0  0  0  0  0  0
   11.2670   -6.8343    0.0000 C   0  0  0  0  0  0  0  0  0  0  0  0
   14.5135    2.6642    0.0000 C   0  0  1  0  0  0  0  0  0  0  0  0
   15.2567    1.9950    0.0000 C   0  0  0  0  0  0  0  0  0  0  0  0
    4.6340   -4.3912    0.0000 C   0  0  0  0  0  0  0  0  0  0  0  0
    4.0000   -2.0252    0.0000 C   0  0  0  0  0  0  0  0  0  0  0  0
   13.2560   -7.0433    0.0000 C   0  0  0  0  0  0  0  0  0  0  0  0
   11.6737   -7.7478    0.0000 C   0  0  0  0  0  0  0  0  0  0  0  0
   12.6682   -7.8524    0.0000 C   0  0  0  0  0  0  0  0  0  0  0  0
   16.2077    2.3041    0.0000 C   0  0  0  0  0  0  0  0  0  0  0  0
    3.7680   -4.8912    0.0000 C   0  0  0  0  0  0  0  0  0  0  0  0
    3.5000   -2.8912    0.0000 C   0  0  0  0  0  0  0  0  0  0  0  0
    5.5000   -4.8912    0.0000 C   0  0  0  0  0  0  0  0  0  0  0  0
    3.5000   -1.1592    0.0000 C   0  0  0  0  0  0  0  0  0  0  0  0
   15.6725    3.9514    0.0000 C   0  0  0  0  0  0  0  0  0  0  0  0
   15.8804    4.9295    0.0000 C   0  0  2  0  0  0  0  0  0  0  0  0
    3.7680   -5.8912    0.0000 C   0  0  0  0  0  0  0  0  0  0  0  0
    2.5000   -2.8912    0.0000 C   0  0  0  0  0  0  0  0  0  0  0  0
    5.5000   -5.8912    0.0000 C   0  0  0  0  0  0  0  0  0  0  0  0
    2.5000   -1.1592    0.0000 C   0  0  0  0  0  0  0  0  0  0  0  0
   16.9509    1.6349    0.0000 C   0  0  0  0  0  0  0  0  0  0  0  0
   15.1373    5.5986    0.0000 C   0  0  0  0  0  0  0  0  0  0  0  0
    4.6340   -6.3912    0.0000 C   0  0  0  0  0  0  0  0  0  0  0  0
    2.0000   -2.0252    0.0000 C   0  0  0  0  0  0  0  0  0  0  0  0
   15.3452    6.5768    0.0000 C   0  0  0  0  0  0  0  0  0  0  0  0
   17.5746    4.5694    0.0000 C   0  0  0  0  0  0  0  0  0  0  0  0
   18.5257    4.8784    0.0000 C   0  0  0  0  0  0  0  0  0  0  0  0
    8.9965   -2.2721    0.0000 H   0  0  0  0  0  0  0  0  0  0  0  0
   10.6659   -4.1261    0.0000 H   0  0  0  0  0  0  0  0  0  0  0  0
    8.4486   -3.8857    0.0000 H   0  0  0  0  0  0  0  0  0  0  0  0
    9.0038   -4.5023    0.0000 H   0  0  0  0  0  0  0  0  0  0  0  0
   11.0484   -3.5920    0.0000 H   0  0  0  0  0  0  0  0  0  0  0  0
   10.9616   -2.7669    0.0000 H   0  0  0  0  0  0  0  0  0  0  0  0
   11.6263   -1.0057    0.0000 H   0  0  0  0  0  0  0  0  0  0  0  0
   11.1901   -2.0580    0.0000 H   0  0  0  0  0  0  0  0  0  0  0  0
    7.2320   -3.5112    0.0000 H   0  0  0  0  0  0  0  0  0  0  0  0
    6.3660   -3.0112    0.0000 H   0  0  0  0  0  0  0  0  0  0  0  0
   10.7838    0.1957    0.0000 H   0  0  0  0  0  0  0  0  0  0  0  0
   12.0496   -4.9617    0.0000 H   0  0  0  0  0  0  0  0  0  0  0  0
   11.4048   -4.4932    0.0000 H   0  0  0  0  0  0  0  0  0  0  0  0
   12.9224   -2.1471    0.0000 H   0  0  0  0  0  0  0  0  0  0  0  0
   13.3205   -1.3658    0.0000 H   0  0  0  0  0  0  0  0  0  0  0  0
   12.5392   -0.9678    0.0000 H   0  0  0  0  0  0  0  0  0  0  0  0
   10.9654   -2.7157    0.0000 H   0  0  0  0  0  0  0  0  0  0  0  0
   11.4429   -3.4510    0.0000 H   0  0  0  0  0  0  0  0  0  0  0  0
   12.1783   -2.9735    0.0000 H   0  0  0  0  0  0  0  0  0  0  0  0
   12.8642    0.6531    0.0000 H   0  0  0  0  0  0  0  0  0  0  0  0
    6.1540   -0.8086    0.0000 H   0  0  0  0  0  0  0  0  0  0  0  0
    5.7554   -1.4989    0.0000 H   0  0  0  0  0  0  0  0  0  0  0  0
   11.5314    1.1307    0.0000 H   0  0  0  0  0  0  0  0  0  0  0  0
    7.4441   -1.4738    0.0000 H   0  0  0  0  0  0  0  0  0  0  0  0
    7.8426   -0.7836    0.0000 H   0  0  0  0  0  0  0  0  0  0  0  0
   12.4431    2.4830    0.0000 H   0  0  0  0  0  0  0  0  0  0  0  0
   12.1968    3.2411    0.0000 H   0  0  0  0  0  0  0  0  0  0  0  0
   10.5177    2.0178    0.0000 H   0  0  0  0  0  0  0  0  0  0  0  0
   10.1196    1.2365    0.0000 H   0  0  0  0  0  0  0  0  0  0  0  0
   10.9009    0.8385    0.0000 H   0  0  0  0  0  0  0  0  0  0  0  0
    7.8520    0.1088    0.0000 H   0  0  0  0  0  0  0  0  0  0  0  0
    7.2320    0.7288    0.0000 H   0  0  0  0  0  0  0  0  0  0  0  0
    6.6120    0.1088    0.0000 H   0  0  0  0  0  0  0  0  0  0  0  0
   11.5400    3.8452    0.0000 H   0  0  0  0  0  0  0  0  0  0  0  0
   10.6644    3.7993    0.0000 H   0  0  0  0  0  0  0  0  0  0  0  0
   10.7103    2.9237    0.0000 H   0  0  0  0  0  0  0  0  0  0  0  0
   13.2137   -5.6282    0.0000 H   0  0  0  0  0  0  0  0  0  0  0  0
   10.6504   -6.7695    0.0000 H   0  0  0  0  0  0  0  0  0  0  0  0
   15.1032    2.8558    0.0000 H   0  0  0  0  0  0  0  0  0  0  0  0
   14.7681    1.6133    0.0000 H   0  0  0  0  0  0  0  0  0  0  0  0
   15.5477    1.4476    0.0000 H   0  0  0  0  0  0  0  0  0  0  0  0
   14.6874    0.8995    0.0000 H   0  0  0  0  0  0  0  0  0  0  0  0
   13.8726   -7.1082    0.0000 H   0  0  0  0  0  0  0  0  0  0  0  0
   11.3093   -8.2494    0.0000 H   0  0  0  0  0  0  0  0  0  0  0  0
   14.2607    4.0572    0.0000 H   0  0  0  0  0  0  0  0  0  0  0  0
   12.9204   -8.4188    0.0000 H   0  0  0  0  0  0  0  0  0  0  0  0
   16.6963    2.6858    0.0000 H   0  0  0  0  0  0  0  0  0  0  0  0
   15.9166    2.8515    0.0000 H   0  0  0  0  0  0  0  0  0  0  0  0
    3.2310   -4.5812    0.0000 H   0  0  0  0  0  0  0  0  0  0  0  0
    3.8100   -3.4282    0.0000 H   0  0  0  0  0  0  0  0  0  0  0  0
    6.0369   -4.5812    0.0000 H   0  0  0  0  0  0  0  0  0  0  0  0
    3.8100   -0.6222    0.0000 H   0  0  0  0  0  0  0  0  0  0  0  0
   16.0093    5.5360    0.0000 H   0  0  0  0  0  0  0  0  0  0  0  0
    3.2310   -6.2012    0.0000 H   0  0  0  0  0  0  0  0  0  0  0  0
    2.1900   -3.4282    0.0000 H   0  0  0  0  0  0  0  0  0  0  0  0
    6.0369   -6.2012    0.0000 H   0  0  0  0  0  0  0  0  0  0  0  0
    2.1900   -0.6222    0.0000 H   0  0  0  0  0  0  0  0  0  0  0  0
   14.5624    5.8309    0.0000 H   0  0  0  0  0  0  0  0  0  0  0  0
   14.8087    5.0728    0.0000 H   0  0  0  0  0  0  0  0  0  0  0  0
    4.6340   -7.0112    0.0000 H   0  0  0  0  0  0  0  0  0  0  0  0
    1.3800   -2.0252    0.0000 H   0  0  0  0  0  0  0  0  0  0  0  0
   16.9604    5.8450    0.0000 H   0  0  0  0  0  0  0  0  0  0  0  0
   18.3627    1.5291    0.0000 H   0  0  0  0  0  0  0  0  0  0  0  0
   18.7172    4.2887    0.0000 H   0  0  0  0  0  0  0  0  0  0  0  0
   19.1153    5.0700    0.0000 H   0  0  0  0  0  0  0  0  0  0  0  0
   18.3341    5.4680    0.0000 H   0  0  0  0  0  0  0  0  0  0  0  0
   14.7309    7.8524    0.0000 H   0  0  0  0  0  0  0  0  0  0  0  0
  1  5  1  0  0  0  0
  1  6  1  0  0  0  0
  1  8  2  0  0  0  0
  1 31  1  0  0  0  0
 24  2  1  6  0  0  0
  2 32  1  0  0  0  0
  3 27  2  0  0  0  0
  4 29  2  0  0  0  0
  5 50  1  0  0  0  0
  6 51  1  0  0  0  0
  7 37  2  0  0  0  0
  9 20  1  0  0  0  0
  9114  1  0  0  0  0
 10 43  2  0  0  0  0
 11 60  2  0  0  0  0
 12 66  1  0  0  0  0
 12135  1  0  0  0  0
 13 66  2  0  0  0  0
 14 70  1  0  0  0  0
 14139  1  0  0  0  0
 15 70  2  0  0  0  0
 16 71  2  0  0  0  0
 17 23  1  0  0  0  0
 17 26  1  0  0  0  0
 17 27  1  0  0  0  0
 18 29  1  0  0  0  0
 18 31  1  0  0  0  0
 18 81  1  0  0  0  0
 28 19  1  1  0  0  0
 19 37  1  0  0  0  0
 19 83  1  0  0  0  0
 35 20  1  6  0  0  0
 20 43  1  0  0  0  0
 48 21  1  6  0  0  0
 21 60  1  0  0  0  0
 21117  1  0  0  0  0
 61 22  1  6  0  0  0
 22 71  1  0  0  0  0
 22134  1  0  0  0  0
 23 25  1  0  0  0  0
 23 29  1  1  0  0  0
 23 73  1  0  0  0  0
 24 25  1  0  0  0  0
 24 26  1  0  0  0  0
 24 74  1  0  0  0  0
 25 75  1  0  0  0  0
 25 76  1  0  0  0  0
 26 77  1  0  0  0  0
 26 78  1  0  0  0  0
 27 28  1  0  0  0  0
 28 30  1  0  0  0  0
 28 79  1  0  0  0  0
 30 33  1  0  0  0  0
 30 34  1  0  0  0  0
 30 80  1  0  0  0  0
 31 36  1  0  0  0  0
 31 82  1  0  0  0  0
 32 40  1  0  0  0  0
 32 84  1  0  0  0  0
 32 85  1  0  0  0  0
 33 86  1  0  0  0  0
 33 87  1  0  0  0  0
 33 88  1  0  0  0  0
 34 89  1  0  0  0  0
 34 90  1  0  0  0  0
 34 91  1  0  0  0  0
 35 37  1  0  0  0  0
 35 38  1  0  0  0  0
 35 92  1  0  0  0  0
 36 39  1  0  0  0  0
 36 93  1  0  0  0  0
 36 94  1  0  0  0  0
 38 41  1  0  0  0  0
 38 42  1  1  0  0  0
 38 95  1  0  0  0  0
 39 44  1  0  0  0  0
 39 96  1  0  0  0  0
 39 97  1  0  0  0  0
 40 46  2  0  0  0  0
 40 47  1  0  0  0  0
 41 45  1  0  0  0  0
 41 98  1  0  0  0  0
 41 99  1  0  0  0  0
 42100  1  0  0  0  0
 42101  1  0  0  0  0
 42102  1  0  0  0  0
 43 48  1  0  0  0  0
 44103  1  0  0  0  0
 44104  1  0  0  0  0
 44105  1  0  0  0  0
 45106  1  0  0  0  0
 45107  1  0  0  0  0
 45108  1  0  0  0  0
 46 52  1  0  0  0  0
 46109  1  0  0  0  0
 47 53  2  0  0  0  0
 47110  1  0  0  0  0
 48 49  1  0  0  0  0
 48111  1  0  0  0  0
 49 55  1  0  0  0  0
 49112  1  0  0  0  0
 49113  1  0  0  0  0
 50 56  2  0  0  0  0
 50 58  1  0  0  0  0
 51 57  2  0  0  0  0
 51 59  1  0  0  0  0
 52 54  2  0  0  0  0
 52115  1  0  0  0  0
 53 54  1  0  0  0  0
 53116  1  0  0  0  0
 54118  1  0  0  0  0
 55 66  1  0  0  0  0
 55119  1  0  0  0  0
 55120  1  0  0  0  0
 56 62  1  0  0  0  0
 56121  1  0  0  0  0
 57 63  1  0  0  0  0
 57122  1  0  0  0  0
 58 64  2  0  0  0  0
 58123  1  0  0  0  0
 59 65  2  0  0  0  0
 59124  1  0  0  0  0
 60 61  1  0  0  0  0
 61 67  1  0  0  0  0
 61125  1  0  0  0  0
 62 68  2  0  0  0  0
 62126  1  0  0  0  0
 63 69  2  0  0  0  0
 63127  1  0  0  0  0
 64 68  1  0  0  0  0
 64128  1  0  0  0  0
 65 69  1  0  0  0  0
 65129  1  0  0  0  0
 67 70  1  0  0  0  0
 67130  1  0  0  0  0
 67131  1  0  0  0  0
 68132  1  0  0  0  0
 69133  1  0  0  0  0
 71 72  1  0  0  0  0
 72136  1  0  0  0  0
 72137  1  0  0  0  0
 72138  1  0  0  0  0
M  END
> <PUBCHEM_COMPOUND_CID>
500623
> <PUBCHEM_COMPOUND_CANONICALIZED>
1
> <PUBCHEM_CACTVS_COMPLEXITY>
1850
> <PUBCHEM_CACTVS_HBOND_ACCEPTOR>
15
> <PUBCHEM_CACTVS_HBOND_DONOR>
7
> <PUBCHEM_CACTVS_ROTATABLE_BOND>
28
> <PUBCHEM_CACTVS_SUBSKEYS>
AAADcfB/vAIAAAAAAAAAAAAAAAAAAWAAAAAwYMAAAAAAAAABUAAAHggUCCAADTzpmAYyDoPQBxCIQiHSGIACAAAgIAAoiIGOCIgKZjqAsTqXcAAm1hGYqAe/1yIOAAAAAAAAAAAAAAAAAAAAAAAAAAAAAA==
> <PUBCHEM_IUPAC_OPENEYE_NAME>
(4R)-4-[[(2S)-2-acetamido-3-carboxy-propanoyl]amino]-5-[[(1S,2S)-1-[[(1S)-1-[(2S,4R)-4-benzyloxy-2-(1-diphenoxyphosphorylbutylcarbamoyl)pyrrolidine-1-carbonyl]-2-methyl-propyl]carbamoyl]-2-methyl-butyl]-hydroxy-amino]-5-oxo-pentanoic acid
> <PUBCHEM_IUPAC_CAS_NAME>
(4R)-4-[[(2S)-2-acetamido-3-carboxy-1-oxopropyl]amino]-5-[[(2S,3S)-1-[[(2S)-1-[(2S,4R)-2-[(1-diphenoxyphosphorylbutylamino)-oxomethyl]-4-phenylmethoxy-1-pyrrolidinyl]-3-methyl-1-oxobutan-2-yl]amino]-3-methyl-1-oxopentan-2-yl]-hydroxyamino]-5-oxopentanoic acid
> <PUBCHEM_IUPAC_NAME_MARKUP>
(4<I>R</I>)-4-[[(2<I>S</I>)-2-acetamido-3-carboxypropanoyl]amino]-5-[[(2<I>S</I>,3<I>S</I>)-1-[[(2<I>S</I>)-1-[(2<I>S</I>,4<I>R</I>)-2-(1-diphenoxyphosphorylbutylcarbamoyl)-4-phenylmethoxypyrrolidin-1-yl]-3-methyl-1-oxobutan-2-yl]amino]-3-methyl-1-oxopentan-2-yl]-hydroxyamino]-5-oxopentanoic acid
> <PUBCHEM_IUPAC_NAME>
(4R)-4-[[(2S)-2-acetamido-3-carboxypropanoyl]amino]-5-[[(2S,3S)-1-[[(2S)-1-[(2S,4R)-2-(1-diphenoxyphosphorylbutylcarbamoyl)-4-phenylmethoxypyrrolidin-1-yl]-3-methyl-1-oxobutan-2-yl]amino]-3-methyl-1-oxopentan-2-yl]-hydroxyamino]-5-oxopentanoic acid
> <PUBCHEM_IUPAC_SYSTEMATIC_NAME>
(4R)-4-[[(2S)-2-acetamido-4-oxidanyl-4-oxidanylidene-butanoyl]amino]-5-[[(2S,3S)-1-[[(2S)-1-[(2S,4R)-2-(1-diphenoxyphosphorylbutylcarbamoyl)-4-phenylmethoxy-pyrrolidin-1-yl]-3-methyl-1-oxidanylidene-butan-2-yl]amino]-3-methyl-1-oxidanylidene-pentan-2-yl]-oxidanyl-amino]-5-oxidanylidene-pentanoic acid
> <PUBCHEM_IUPAC_TRADITIONAL_NAME>
(4R)-4-[[(2S)-2-acetamido-3-carboxy-propanoyl]amino]-5-[[(1S,2S)-1-[[(1S)-1-[(2S,4R)-4-benzoxy-2-(1-diphenoxyphosphorylbutylcarbamoyl)pyrrolidine-1-carbonyl]-2-methyl-propyl]carbamoyl]-2-methyl-butyl]-hydroxy-amino]-5-keto-valeric acid
> <PUBCHEM_IUPAC_INCHI>
InChI=1S/C50H67N6O15P/c1-7-18-41(72(68,70-35-21-14-10-15-22-35)71-36-23-16-11-17-24-36)53-47(63)40-27-37(69-30-34-19-12-9-13-20-34)29-55(40)50(66)44(31(3)4)54-48(64)45(32(5)8-2)56(67)49(65)38(25-26-42(58)59)52-46(62)39(28-43(60)61)51-33(6)57/h9-17,19-24,31-32,37-41,44-45,67H,7-8,18,25-30H2,1-6H3,(H,51,57)(H,52,62)(H,53,63)(H,54,64)(H,58,59)(H,60,61)/t32-,37+,38+,39-,40-,41?,44-,45-/m0/s1
> <PUBCHEM_IUPAC_INCHIKEY>
ZOWKXVUTBGORAW-LDFBJOGKSA-N
> <PUBCHEM_XLOGP3_AA>
4.5
> <PUBCHEM_EXACT_MASS>
1022.44020245
> <PUBCHEM_MOLECULAR_FORMULA>
C50H67N6O15P
> <PUBCHEM_MOLECULAR_WEIGHT>
1023.1
> <PUBCHEM_OPENEYE_CAN_SMILES>
CCCC(NC(=O)C1CC(CN1C(=O)C(C(C)C)NC(=O)C(C(C)CC)N(C(=O)C(CCC(=O)O)NC(=O)C(CC(=O)O)NC(=O)C)O)OCC2=CC=CC=C2)P(=O)(OC3=CC=CC=C3)OC4=CC=CC=C4
> <PUBCHEM_OPENEYE_ISO_SMILES>
CCCC(NC(=O)[C@@H]1C[C@H](CN1C(=O)[C@H](C(C)C)NC(=O)[C@H]([C@@H](C)CC)N(C(=O)[C@@H](CCC(=O)O)NC(=O)[C@H](CC(=O)O)NC(=O)C)O)OCC2=CC=CC=C2)P(=O)(OC3=CC=CC=C3)OC4=CC=CC=C4
> <PUBCHEM_CACTVS_TPSA>
297
> <PUBCHEM_MONOISOTOPIC_WEIGHT>
1022.44020245
> <PUBCHEM_TOTAL_CHARGE>
0
> <PUBCHEM_HEAVY_ATOM_COUNT>
72
> <PUBCHEM_ATOM_DEF_STEREO_COUNT>
7
> <PUBCHEM_ATOM_UDEF_STEREO_COUNT>
1
> <PUBCHEM_BOND_DEF_STEREO_COUNT>
0
> <PUBCHEM_BOND_UDEF_STEREO_COUNT>
0
> <PUBCHEM_ISOTOPIC_ATOM_COUNT>
0
> <PUBCHEM_COMPONENT_COUNT>
1
> <PUBCHEM_CACTVS_TAUTO_COUNT>
-1
> <PUBCHEM_COORDINATE_TYPE>
1
5
255
> <PUBCHEM_BONDANNOTATIONS>
28  19  5
24  2  6
35  20  6
48  21  6
61  22  6
23  29  5
31  36  3
38  42  5
40  46  8
40  47  8
46  52  8
47  53  8
50  56  8
50  58  8
51  57  8
51  59  8
52  54  8
53  54  8
56  62  8
57  63  8
58  64  8
59  65  8
62  68  8
63  69  8
64  68  8
65  69  8
$$$$
