500600
  -OEChem-10302200282D
120121  0     1  0  0  0  0  0999 V2000
    6.8690   -3.2540    0.0000 O   0  0  0  0  0  0  0  0  0  0  0  0
    7.5500    1.0074    0.0000 O   0  0  0  0  0  0  0  0  0  0  0  0
    6.1880    1.0074    0.0000 O   0  0  0  0  0  0  0  0  0  0  0  0
   10.9404   -0.2197    0.0000 O   0  0  0  0  0  0  0  0  0  0  0  0
   12.5227    0.4848    0.0000 O   0  0  0  0  0  0  0  0  0  0  0  0
   12.2970    3.1209    0.0000 O   0  0  0  0  0  0  0  0  0  0  0  0
    2.7976   -0.2197    0.0000 O   0  0  0  0  0  0  0  0  0  0  0  0
   15.6873    1.8937    0.0000 O   0  0  0  0  0  0  0  0  0  0  0  0
   16.5007    0.0666    0.0000 O   0  0  0  0  0  0  0  0  0  0  0  0
   14.9184   -0.6378    0.0000 O   0  0  0  0  0  0  0  0  0  0  0  0
   15.6426    6.2524    0.0000 O   0  0  0  0  0  0  0  0  0  0  0  0
   17.0439    5.2343    0.0000 O   0  0  0  0  0  0  0  0  0  0  0  0
   16.6818    1.7892    0.0000 O   0  0  0  0  0  0  0  0  0  0  0  0
    7.3690   -0.7152    0.0000 N   0  0  0  0  0  0  0  0  0  0  0  0
    9.5391    0.7983    0.0000 N   0  0  0  0  0  0  0  0  0  0  0  0
    4.7867   -0.0107    0.0000 N   0  0  0  0  0  0  0  0  0  0  0  0
   12.1159    1.3983    0.0000 N   0  0  0  0  0  0  0  0  0  0  0  0
    4.1989    0.7983    0.0000 N   0  0  0  0  0  0  0  0  0  0  0  0
   14.2860    2.9118    0.0000 N   0  0  0  0  0  0  0  0  0  0  0  0
    2.6166    1.5028    0.0000 N   0  0  0  0  0  0  0  0  0  0  0  0
   16.8628    3.5118    0.0000 N   0  0  0  0  0  0  0  0  0  0  0  0
    6.3690   -0.7152    0.0000 C   0  0  1  0  0  0  0  0  0  0  0  0
    6.8690   -2.2540    0.0000 C   0  0  2  0  0  0  0  0  0  0  0  0
    6.0600   -1.6662    0.0000 C   0  0  0  0  0  0  0  0  0  0  0  0
    7.6780   -1.6662    0.0000 C   0  0  0  0  0  0  0  0  0  0  0  0
    8.9513   -0.0107    0.0000 C   0  0  2  0  0  0  0  0  0  0  0  0
    7.9568    0.0939    0.0000 C   0  0  0  0  0  0  0  0  0  0  0  0
    5.7812    0.0939    0.0000 C   0  0  0  0  0  0  0  0  0  0  0  0
    9.3580   -0.9242    0.0000 C   0  0  0  0  0  0  0  0  0  0  0  0
   11.1214    1.5028    0.0000 C   0  0  1  0  0  0  0  0  0  0  0  0
    6.0030   -3.7540    0.0000 C   0  0  0  0  0  0  0  0  0  0  0  0
   10.3526   -1.0287    0.0000 C   0  0  0  0  0  0  0  0  0  0  0  0
    8.7703   -1.7332    0.0000 C   0  0  0  0  0  0  0  0  0  0  0  0
   10.7147    2.4164    0.0000 C   0  0  2  0  0  0  0  0  0  0  0  0
   10.5336    0.6938    0.0000 C   0  0  0  0  0  0  0  0  0  0  0  0
   11.3025    3.2254    0.0000 C   0  0  0  0  0  0  0  0  0  0  0  0
    6.0030   -4.7540    0.0000 C   0  0  0  0  0  0  0  0  0  0  0  0
    9.7201    2.5209    0.0000 C   0  0  0  0  0  0  0  0  0  0  0  0
    4.6056    1.7119    0.0000 C   0  0  0  0  0  0  0  0  0  0  0  0
   12.7037    2.2073    0.0000 C   0  0  0  0  0  0  0  0  0  0  0  0
   13.6982    2.1028    0.0000 C   0  0  1  0  0  0  0  0  0  0  0  0
   10.8957    4.1389    0.0000 C   0  0  0  0  0  0  0  0  0  0  0  0
    4.0179    2.5209    0.0000 C   0  0  0  0  0  0  0  0  0  0  0  0
    6.8690   -5.2540    0.0000 C   0  0  0  0  0  0  0  0  0  0  0  0
    5.1370   -5.2540    0.0000 C   0  0  0  0  0  0  0  0  0  0  0  0
    3.2044    0.6938    0.0000 C   0  0  0  0  0  0  0  0  0  0  0  0
   14.1050    1.1892    0.0000 C   0  0  0  0  0  0  0  0  0  0  0  0
    4.4246    3.4345    0.0000 C   0  0  0  0  0  0  0  0  0  0  0  0
    6.8690   -6.2540    0.0000 C   0  0  0  0  0  0  0  0  0  0  0  0
    5.1370   -6.2540    0.0000 C   0  0  0  0  0  0  0  0  0  0  0  0
   15.0995    1.0847    0.0000 C   0  0  0  0  0  0  0  0  0  0  0  0
    6.0030   -6.7540    0.0000 C   0  0  0  0  0  0  0  0  0  0  0  0
   15.2805    2.8073    0.0000 C   0  0  0  0  0  0  0  0  0  0  0  0
    3.8368    4.2435    0.0000 C   0  0  0  0  0  0  0  0  0  0  0  0
   15.8683    3.6163    0.0000 C   0  0  2  0  0  0  0  0  0  0  0  0
   15.5062    0.1712    0.0000 C   0  0  0  0  0  0  0  0  0  0  0  0
   15.4616    4.5298    0.0000 C   0  0  0  0  0  0  0  0  0  0  0  0
   16.0494    5.3389    0.0000 C   0  0  0  0  0  0  0  0  0  0  0  0
   17.2696    2.5982    0.0000 C   0  0  0  0  0  0  0  0  0  0  0  0
   18.2641    2.4937    0.0000 C   0  0  0  0  0  0  0  0  0  0  0  0
    6.6505   -0.1627    0.0000 H   0  0  0  0  0  0  0  0  0  0  0  0
    7.4214   -2.5355    0.0000 H   0  0  0  0  0  0  0  0  0  0  0  0
    5.4936   -1.4140    0.0000 H   0  0  0  0  0  0  0  0  0  0  0  0
    5.7500   -2.2032    0.0000 H   0  0  0  0  0  0  0  0  0  0  0  0
    7.9880   -2.2032    0.0000 H   0  0  0  0  0  0  0  0  0  0  0  0
    8.2444   -1.4140    0.0000 H   0  0  0  0  0  0  0  0  0  0  0  0
    8.6991    0.5557    0.0000 H   0  0  0  0  0  0  0  0  0  0  0  0
    8.7414   -0.8594    0.0000 H   0  0  0  0  0  0  0  0  0  0  0  0
    9.2869    1.3647    0.0000 H   0  0  0  0  0  0  0  0  0  0  0  0
   11.3736    0.9364    0.0000 H   0  0  0  0  0  0  0  0  0  0  0  0
    5.7909   -3.1714    0.0000 H   0  0  0  0  0  0  0  0  0  0  0  0
    5.3924   -3.8617    0.0000 H   0  0  0  0  0  0  0  0  0  0  0  0
   10.2878   -1.6454    0.0000 H   0  0  0  0  0  0  0  0  0  0  0  0
   10.9692   -1.0936    0.0000 H   0  0  0  0  0  0  0  0  0  0  0  0
   10.4174   -0.4121    0.0000 H   0  0  0  0  0  0  0  0  0  0  0  0
    8.2687   -1.3688    0.0000 H   0  0  0  0  0  0  0  0  0  0  0  0
    8.4058   -2.2348    0.0000 H   0  0  0  0  0  0  0  0  0  0  0  0
    9.2718   -2.0977    0.0000 H   0  0  0  0  0  0  0  0  0  0  0  0
   10.4625    2.9828    0.0000 H   0  0  0  0  0  0  0  0  0  0  0  0
    4.5345   -0.5771    0.0000 H   0  0  0  0  0  0  0  0  0  0  0  0
   11.7331    2.7794    0.0000 H   0  0  0  0  0  0  0  0  0  0  0  0
   11.8165    3.5721    0.0000 H   0  0  0  0  0  0  0  0  0  0  0  0
    9.7850    3.1375    0.0000 H   0  0  0  0  0  0  0  0  0  0  0  0
    9.1035    2.5857    0.0000 H   0  0  0  0  0  0  0  0  0  0  0  0
    9.6553    1.9043    0.0000 H   0  0  0  0  0  0  0  0  0  0  0  0
    5.1196    1.3652    0.0000 H   0  0  0  0  0  0  0  0  0  0  0  0
    5.0363    2.1579    0.0000 H   0  0  0  0  0  0  0  0  0  0  0  0
   13.4461    2.6692    0.0000 H   0  0  0  0  0  0  0  0  0  0  0  0
   11.4621    4.3911    0.0000 H   0  0  0  0  0  0  0  0  0  0  0  0
   10.6435    4.7053    0.0000 H   0  0  0  0  0  0  0  0  0  0  0  0
   10.3293    3.8868    0.0000 H   0  0  0  0  0  0  0  0  0  0  0  0
    3.5039    2.8676    0.0000 H   0  0  0  0  0  0  0  0  0  0  0  0
    3.5872    2.0749    0.0000 H   0  0  0  0  0  0  0  0  0  0  0  0
    7.4059   -4.9440    0.0000 H   0  0  0  0  0  0  0  0  0  0  0  0
    4.6000   -4.9440    0.0000 H   0  0  0  0  0  0  0  0  0  0  0  0
   13.5034    1.0393    0.0000 H   0  0  0  0  0  0  0  0  0  0  0  0
   14.1482    0.5708    0.0000 H   0  0  0  0  0  0  0  0  0  0  0  0
   13.1393    0.4200    0.0000 H   0  0  0  0  0  0  0  0  0  0  0  0
   14.0338    3.4782    0.0000 H   0  0  0  0  0  0  0  0  0  0  0  0
    4.9386    3.0878    0.0000 H   0  0  0  0  0  0  0  0  0  0  0  0
    4.8553    3.8804    0.0000 H   0  0  0  0  0  0  0  0  0  0  0  0
    7.4059   -6.5640    0.0000 H   0  0  0  0  0  0  0  0  0  0  0  0
    4.6000   -6.5640    0.0000 H   0  0  0  0  0  0  0  0  0  0  0  0
   15.7011    1.2347    0.0000 H   0  0  0  0  0  0  0  0  0  0  0  0
   15.0562    1.7032    0.0000 H   0  0  0  0  0  0  0  0  0  0  0  0
    6.0030   -7.3740    0.0000 H   0  0  0  0  0  0  0  0  0  0  0  0
    2.0000    1.4380    0.0000 H   0  0  0  0  0  0  0  0  0  0  0  0
    2.8688    2.0692    0.0000 H   0  0  0  0  0  0  0  0  0  0  0  0
    4.3384    4.6079    0.0000 H   0  0  0  0  0  0  0  0  0  0  0  0
    3.4724    4.7451    0.0000 H   0  0  0  0  0  0  0  0  0  0  0  0
    3.3352    3.8790    0.0000 H   0  0  0  0  0  0  0  0  0  0  0  0
   16.1205    3.0499    0.0000 H   0  0  0  0  0  0  0  0  0  0  0  0
   15.0309    4.9758    0.0000 H   0  0  0  0  0  0  0  0  0  0  0  0
   14.9476    4.1832    0.0000 H   0  0  0  0  0  0  0  0  0  0  0  0
   17.2273    4.0134    0.0000 H   0  0  0  0  0  0  0  0  0  0  0  0
   16.7529   -0.4998    0.0000 H   0  0  0  0  0  0  0  0  0  0  0  0
   18.1993    1.8771    0.0000 H   0  0  0  0  0  0  0  0  0  0  0  0
   18.8807    2.4289    0.0000 H   0  0  0  0  0  0  0  0  0  0  0  0
   18.3289    3.1103    0.0000 H   0  0  0  0  0  0  0  0  0  0  0  0
   16.0071    6.7540    0.0000 H   0  0  0  0  0  0  0  0  0  0  0  0
 23  1  1  6  0  0  0
  1 31  1  0  0  0  0
  2 27  2  0  0  0  0
  3 28  2  0  0  0  0
  4 35  2  0  0  0  0
  5 17  1  0  0  0  0
  5 98  1  0  0  0  0
  6 40  2  0  0  0  0
  7 46  2  0  0  0  0
  8 53  2  0  0  0  0
  9 56  1  0  0  0  0
  9116  1  0  0  0  0
 10 56  2  0  0  0  0
 11 58  1  0  0  0  0
 11120  1  0  0  0  0
 12 58  2  0  0  0  0
 13 59  2  0  0  0  0
 14 22  1  0  0  0  0
 14 25  1  0  0  0  0
 14 27  1  0  0  0  0
 26 15  1  1  0  0  0
 15 35  1  0  0  0  0
 15 69  1  0  0  0  0
 16 18  1  0  0  0  0
 16 28  1  0  0  0  0
 16 80  1  0  0  0  0
 30 17  1  6  0  0  0
 17 40  1  0  0  0  0
 18 39  1  0  0  0  0
 18 46  1  0  0  0  0
 41 19  1  6  0  0  0
 19 53  1  0  0  0  0
 19 99  1  0  0  0  0
 20 46  1  0  0  0  0
 20107  1  0  0  0  0
 20108  1  0  0  0  0
 55 21  1  6  0  0  0
 21 59  1  0  0  0  0
 21115  1  0  0  0  0
 22 24  1  0  0  0  0
 22 28  1  1  0  0  0
 22 61  1  0  0  0  0
 23 24  1  0  0  0  0
 23 25  1  0  0  0  0
 23 62  1  0  0  0  0
 24 63  1  0  0  0  0
 24 64  1  0  0  0  0
 25 65  1  0  0  0  0
 25 66  1  0  0  0  0
 26 27  1  0  0  0  0
 26 29  1  0  0  0  0
 26 67  1  0  0  0  0
 29 32  1  0  0  0  0
 29 33  1  0  0  0  0
 29 68  1  0  0  0  0
 30 34  1  0  0  0  0
 30 35  1  0  0  0  0
 30 70  1  0  0  0  0
 31 37  1  0  0  0  0
 31 71  1  0  0  0  0
 31 72  1  0  0  0  0
 32 73  1  0  0  0  0
 32 74  1  0  0  0  0
 32 75  1  0  0  0  0
 33 76  1  0  0  0  0
 33 77  1  0  0  0  0
 33 78  1  0  0  0  0
 34 36  1  0  0  0  0
 34 38  1  1  0  0  0
 34 79  1  0  0  0  0
 36 42  1  0  0  0  0
 36 81  1  0  0  0  0
 36 82  1  0  0  0  0
 37 44  2  0  0  0  0
 37 45  1  0  0  0  0
 38 83  1  0  0  0  0
 38 84  1  0  0  0  0
 38 85  1  0  0  0  0
 39 43  1  0  0  0  0
 39 86  1  0  0  0  0
 39 87  1  0  0  0  0
 40 41  1  0  0  0  0
 41 47  1  0  0  0  0
 41 88  1  0  0  0  0
 42 89  1  0  0  0  0
 42 90  1  0  0  0  0
 42 91  1  0  0  0  0
 43 48  1  0  0  0  0
 43 92  1  0  0  0  0
 43 93  1  0  0  0  0
 44 49  1  0  0  0  0
 44 94  1  0  0  0  0
 45 50  2  0  0  0  0
 45 95  1  0  0  0  0
 47 51  1  0  0  0  0
 47 96  1  0  0  0  0
 47 97  1  0  0  0  0
 48 54  1  0  0  0  0
 48100  1  0  0  0  0
 48101  1  0  0  0  0
 49 52  2  0  0  0  0
 49102  1  0  0  0  0
 50 52  1  0  0  0  0
 50103  1  0  0  0  0
 51 56  1  0  0  0  0
 51104  1  0  0  0  0
 51105  1  0  0  0  0
 52106  1  0  0  0  0
 53 55  1  0  0  0  0
 54109  1  0  0  0  0
 54110  1  0  0  0  0
 54111  1  0  0  0  0
 55 57  1  0  0  0  0
 55112  1  0  0  0  0
 57 58  1  0  0  0  0
 57113  1  0  0  0  0
 57114  1  0  0  0  0
 59 60  1  0  0  0  0
 60117  1  0  0  0  0
 60118  1  0  0  0  0
 60119  1  0  0  0  0
M  END
> <PUBCHEM_COMPOUND_CID>
500600
> <PUBCHEM_COMPOUND_CANONICALIZED>
1
> <PUBCHEM_CACTVS_COMPLEXITY>
1520
> <PUBCHEM_CACTVS_HBOND_ACCEPTOR>
13
> <PUBCHEM_CACTVS_HBOND_DONOR>
8
> <PUBCHEM_CACTVS_ROTATABLE_BOND>
23
> <PUBCHEM_CACTVS_SUBSKEYS>
AAADcfB//AAAAAAAAAAAAAAAAAAAAWAAAAAwAAAAAAAAAAABAAAAHgAcCAAADTzhmAYzCIPyBgCIAiHSGAACAAAgAAA+qIGICIiKZjqAsTiXcAA21gOYqAe/1yIOAAAAAAAAAAAAAAAAAAAAAAAAAAAAAA==
> <PUBCHEM_IUPAC_OPENEYE_NAME>
(4R)-4-[[(2S)-2-acetamido-3-carboxy-propanoyl]amino]-5-[[(1S,2S)-1-[[(1S)-1-[(2S,4R)-4-benzyloxy-2-[[butyl(carbamoyl)amino]carbamoyl]pyrrolidine-1-carbonyl]-2-methyl-propyl]carbamoyl]-2-methyl-butyl]-hydroxy-amino]-5-oxo-pentanoic acid
> <PUBCHEM_IUPAC_CAS_NAME>
(4R)-4-[[(2S)-2-acetamido-3-carboxy-1-oxopropyl]amino]-5-[[(2S,3S)-1-[[(2S)-1-[(2S,4R)-2-[(2-butyl-2-carbamoylhydrazinyl)-oxomethyl]-4-phenylmethoxy-1-pyrrolidinyl]-3-methyl-1-oxobutan-2-yl]amino]-3-methyl-1-oxopentan-2-yl]-hydroxyamino]-5-oxopentanoic acid
> <PUBCHEM_IUPAC_NAME_MARKUP>
(4<I>R</I>)-4-[[(2<I>S</I>)-2-acetamido-3-carboxypropanoyl]amino]-5-[[(2<I>S</I>,3<I>S</I>)-1-[[(2<I>S</I>)-1-[(2<I>S</I>,4<I>R</I>)-2-[[butyl(carbamoyl)amino]carbamoyl]-4-phenylmethoxypyrrolidin-1-yl]-3-methyl-1-oxobutan-2-yl]amino]-3-methyl-1-oxopentan-2-yl]-hydroxyamino]-5-oxopentanoic acid
> <PUBCHEM_IUPAC_NAME>
(4R)-4-[[(2S)-2-acetamido-3-carboxypropanoyl]amino]-5-[[(2S,3S)-1-[[(2S)-1-[(2S,4R)-2-[[butyl(carbamoyl)amino]carbamoyl]-4-phenylmethoxypyrrolidin-1-yl]-3-methyl-1-oxobutan-2-yl]amino]-3-methyl-1-oxopentan-2-yl]-hydroxyamino]-5-oxopentanoic acid
> <PUBCHEM_IUPAC_SYSTEMATIC_NAME>
(4R)-4-[[(2S)-2-acetamido-4-oxidanyl-4-oxidanylidene-butanoyl]amino]-5-[[(2S,3S)-1-[[(2S)-1-[(2S,4R)-2-[[aminocarbonyl(butyl)amino]carbamoyl]-4-phenylmethoxy-pyrrolidin-1-yl]-3-methyl-1-oxidanylidene-butan-2-yl]amino]-3-methyl-1-oxidanylidene-pentan-2-yl]-oxidanyl-amino]-5-oxidanylidene-pentanoic acid
> <PUBCHEM_IUPAC_TRADITIONAL_NAME>
(4R)-4-[[(2S)-2-acetamido-3-carboxy-propanoyl]amino]-5-[[(1S,2S)-1-[[(1S)-1-[(2S,4R)-4-benzoxy-2-[[butyl(carbamoyl)amino]carbamoyl]pyrrolidine-1-carbonyl]-2-methyl-propyl]carbamoyl]-2-methyl-butyl]-hydroxy-amino]-5-keto-valeric acid
> <PUBCHEM_IUPAC_INCHI>
InChI=1S/C39H60N8O13/c1-7-9-17-46(39(40)58)44-35(54)29-18-26(60-21-25-13-11-10-12-14-25)20-45(29)38(57)32(22(3)4)43-36(55)33(23(5)8-2)47(59)37(56)27(15-16-30(49)50)42-34(53)28(19-31(51)52)41-24(6)48/h10-14,22-23,26-29,32-33,59H,7-9,15-21H2,1-6H3,(H2,40,58)(H,41,48)(H,42,53)(H,43,55)(H,44,54)(H,49,50)(H,51,52)/t23-,26+,27+,28-,29-,32-,33-/m0/s1
> <PUBCHEM_IUPAC_INCHIKEY>
RXBZOQQMCFRFAN-HMPFFZOISA-N
> <PUBCHEM_XLOGP3_AA>
0.6
> <PUBCHEM_EXACT_MASS>
848.42798400
> <PUBCHEM_MOLECULAR_FORMULA>
C39H60N8O13
> <PUBCHEM_MOLECULAR_WEIGHT>
848.9
> <PUBCHEM_OPENEYE_CAN_SMILES>
CCCCN(C(=O)N)NC(=O)C1CC(CN1C(=O)C(C(C)C)NC(=O)C(C(C)CC)N(C(=O)C(CCC(=O)O)NC(=O)C(CC(=O)O)NC(=O)C)O)OCC2=CC=CC=C2
> <PUBCHEM_OPENEYE_ISO_SMILES>
CCCCN(C(=O)N)NC(=O)[C@@H]1C[C@H](CN1C(=O)[C@H](C(C)C)NC(=O)[C@H]([C@@H](C)CC)N(C(=O)[C@@H](CCC(=O)O)NC(=O)[C@H](CC(=O)O)NC(=O)C)O)OCC2=CC=CC=C2
> <PUBCHEM_CACTVS_TPSA>
307
> <PUBCHEM_MONOISOTOPIC_WEIGHT>
848.42798400
> <PUBCHEM_TOTAL_CHARGE>
0
> <PUBCHEM_HEAVY_ATOM_COUNT>
60
> <PUBCHEM_ATOM_DEF_STEREO_COUNT>
7
> <PUBCHEM_ATOM_UDEF_STEREO_COUNT>
0
> <PUBCHEM_BOND_DEF_STEREO_COUNT>
0
> <PUBCHEM_BOND_UDEF_STEREO_COUNT>
0
> <PUBCHEM_ISOTOPIC_ATOM_COUNT>
0
> <PUBCHEM_COMPONENT_COUNT>
1
> <PUBCHEM_CACTVS_TAUTO_COUNT>
-1
> <PUBCHEM_COORDINATE_TYPE>
1
5
255
> <PUBCHEM_BONDANNOTATIONS>
23  1  6
26  15  5
30  17  6
41  19  6
55  21  6
22  28  5
34  38  5
37  44  8
37  45  8
44  49  8
45  50  8
49  52  8
50  52  8
$$$$
