500617
  -OEChem-10302200282D
136139  0     1  0  0  0  0  0999 V2000
    8.5519    2.5992    0.0000 O   0  0  0  0  0  0  0  0  0  0  0  0
   10.5098   -1.2466    0.0000 O   0  0  0  0  0  0  0  0  0  0  0  0
    9.2136   -1.6653    0.0000 O   0  0  0  0  0  0  0  0  0  0  0  0
   13.3588    0.9632    0.0000 O   0  0  0  0  0  0  0  0  0  0  0  0
   15.0810    0.7792    0.0000 O   0  0  0  0  0  0  0  0  0  0  0  0
    5.6103   -1.5396    0.0000 O   0  0  0  0  0  0  0  0  0  0  0  0
   15.6765   -1.7987    0.0000 O   0  0  0  0  0  0  0  0  0  0  0  0
    6.6353   -3.9788    0.0000 O   0  0  0  0  0  0  0  0  0  0  0  0
   18.5255    0.4111    0.0000 O   0  0  0  0  0  0  0  0  0  0  0  0
   18.7380    2.3998    0.0000 O   0  0  0  0  0  0  0  0  0  0  0  0
   17.0158    2.5838    0.0000 O   0  0  0  0  0  0  0  0  0  0  0  0
   19.8228   -3.7503    0.0000 O   0  0  0  0  0  0  0  0  0  0  0  0
   20.8433   -2.3508    0.0000 O   0  0  0  0  0  0  0  0  0  0  0  0
   19.4398    0.8163    0.0000 O   0  0  0  0  0  0  0  0  0  0  0  0
    9.8080    0.3369    0.0000 N   0  0  0  0  0  0  0  0  0  0  0  0
   12.3383   -0.4363    0.0000 N   0  0  0  0  0  0  0  0  0  0  0  0
    7.5673   -1.1272    0.0000 N   0  0  0  0  0  0  0  0  0  0  0  0
    7.2566   -2.0777    0.0000 N   0  0  0  0  0  0  0  0  0  0  0  0
   14.9748   -0.2152    0.0000 N   0  0  0  0  0  0  0  0  0  0  0  0
    4.9889   -3.4407    0.0000 N   0  0  0  0  0  0  0  0  0  0  0  0
   17.5050   -0.9884    0.0000 N   0  0  0  0  0  0  0  0  0  0  0  0
   20.1415   -0.7673    0.0000 N   0  0  0  0  0  0  0  0  0  0  0  0
    8.8564    0.0295    0.0000 C   0  0  1  0  0  0  0  0  0  0  0  0
    8.8592    1.6476    0.0000 C   0  0  2  0  0  0  0  0  0  0  0  0
    8.2700    0.8396    0.0000 C   0  0  0  0  0  0  0  0  0  0  0  0
    9.8098    1.3369    0.0000 C   0  0  0  0  0  0  0  0  0  0  0  0
   10.6160   -0.2523    0.0000 C   0  0  0  0  0  0  0  0  0  0  0  0
   11.5303    0.1529    0.0000 C   0  0  2  0  0  0  0  0  0  0  0  0
    8.5458   -0.9210    0.0000 C   0  0  0  0  0  0  0  0  0  0  0  0
   11.6365    1.1472    0.0000 C   0  0  0  0  0  0  0  0  0  0  0  0
   14.0605   -0.6203    0.0000 C   0  0  2  0  0  0  0  0  0  0  0  0
    9.2223    3.3412    0.0000 C   0  0  0  0  0  0  0  0  0  0  0  0
   12.5508    1.5524    0.0000 C   0  0  0  0  0  0  0  0  0  0  0  0
   10.8285    1.7364    0.0000 C   0  0  0  0  0  0  0  0  0  0  0  0
   13.2525   -0.0311    0.0000 C   0  0  0  0  0  0  0  0  0  0  0  0
   13.9543   -1.6147    0.0000 C   0  0  2  0  0  0  0  0  0  0  0  0
   14.7623   -2.2038    0.0000 C   0  0  0  0  0  0  0  0  0  0  0  0
    8.9149    4.2927    0.0000 C   0  0  0  0  0  0  0  0  0  0  0  0
    4.6783   -4.3912    0.0000 C   0  0  1  0  0  0  0  0  0  0  0  0
   13.0400   -2.0198    0.0000 C   0  0  0  0  0  0  0  0  0  0  0  0
    5.2619   -5.1959    0.0000 C   0  0  0  0  0  0  0  0  0  0  0  0
    7.9244   -2.8220    0.0000 C   0  0  0  0  0  0  0  0  0  0  0  0
    4.6783   -6.0007    0.0000 C   0  0  0  0  0  0  0  0  0  0  0  0
    3.7320   -4.6959    0.0000 C   0  0  0  0  0  0  0  0  0  0  0  0
    3.7320   -5.6959    0.0000 C   0  0  0  0  0  0  0  0  0  0  0  0
    6.2781   -2.2839    0.0000 C   0  0  0  0  0  0  0  0  0  0  0  0
   15.7828   -0.8044    0.0000 C   0  0  0  0  0  0  0  0  0  0  0  0
   14.6560   -3.1982    0.0000 C   0  0  0  0  0  0  0  0  0  0  0  0
   16.6970   -0.3992    0.0000 C   0  0  1  0  0  0  0  0  0  0  0  0
    8.9030   -2.6158    0.0000 C   0  0  0  0  0  0  0  0  0  0  0  0
    5.9674   -3.2344    0.0000 C   0  0  0  0  0  0  0  0  0  0  0  0
    7.9371    4.5024    0.0000 C   0  0  0  0  0  0  0  0  0  0  0  0
    9.5853    5.0347    0.0000 C   0  0  0  0  0  0  0  0  0  0  0  0
    2.8660   -4.1959    0.0000 C   0  0  0  0  0  0  0  0  0  0  0  0
    2.8660   -6.1959    0.0000 C   0  0  0  0  0  0  0  0  0  0  0  0
   16.8033    0.5951    0.0000 C   0  0  0  0  0  0  0  0  0  0  0  0
    7.6298    5.4539    0.0000 C   0  0  0  0  0  0  0  0  0  0  0  0
    9.2780    5.9863    0.0000 C   0  0  0  0  0  0  0  0  0  0  0  0
    2.0000   -4.6959    0.0000 C   0  0  0  0  0  0  0  0  0  0  0  0
    9.5708   -3.3601    0.0000 C   0  0  0  0  0  0  0  0  0  0  0  0
    2.0000   -5.6959    0.0000 C   0  0  0  0  0  0  0  0  0  0  0  0
   17.7175    1.0003    0.0000 C   0  0  0  0  0  0  0  0  0  0  0  0
    8.3002    6.1959    0.0000 C   0  0  0  0  0  0  0  0  0  0  0  0
   18.4193   -0.5832    0.0000 C   0  0  0  0  0  0  0  0  0  0  0  0
   19.2273   -1.1724    0.0000 C   0  0  2  0  0  0  0  0  0  0  0  0
   17.8238    1.9946    0.0000 C   0  0  0  0  0  0  0  0  0  0  0  0
   19.1210   -2.1668    0.0000 C   0  0  0  0  0  0  0  0  0  0  0  0
   19.9290   -2.7559    0.0000 C   0  0  0  0  0  0  0  0  0  0  0  0
   20.2478    0.2271    0.0000 C   0  0  0  0  0  0  0  0  0  0  0  0
   21.1620    0.6322    0.0000 C   0  0  0  0  0  0  0  0  0  0  0  0
    9.2941   -0.4096    0.0000 H   0  0  0  0  0  0  0  0  0  0  0  0
    9.2984    2.0852    0.0000 H   0  0  0  0  0  0  0  0  0  0  0  0
    7.8100    1.2552    0.0000 H   0  0  0  0  0  0  0  0  0  0  0  0
    7.8086    0.4255    0.0000 H   0  0  0  0  0  0  0  0  0  0  0  0
   10.4262    1.2710    0.0000 H   0  0  0  0  0  0  0  0  0  0  0  0
    9.9397    1.9431    0.0000 H   0  0  0  0  0  0  0  0  0  0  0  0
   12.0971    0.4041    0.0000 H   0  0  0  0  0  0  0  0  0  0  0  0
   11.0697    0.8960    0.0000 H   0  0  0  0  0  0  0  0  0  0  0  0
   12.2724   -1.0528    0.0000 H   0  0  0  0  0  0  0  0  0  0  0  0
   14.1264   -0.0038    0.0000 H   0  0  0  0  0  0  0  0  0  0  0  0
    7.1532   -0.6657    0.0000 H   0  0  0  0  0  0  0  0  0  0  0  0
    9.6032    2.8519    0.0000 H   0  0  0  0  0  0  0  0  0  0  0  0
    9.7702    3.6313    0.0000 H   0  0  0  0  0  0  0  0  0  0  0  0
   12.8020    0.9855    0.0000 H   0  0  0  0  0  0  0  0  0  0  0  0
   13.1176    1.8036    0.0000 H   0  0  0  0  0  0  0  0  0  0  0  0
   12.2996    2.1192    0.0000 H   0  0  0  0  0  0  0  0  0  0  0  0
   11.1938    2.2374    0.0000 H   0  0  0  0  0  0  0  0  0  0  0  0
   10.3276    2.1017    0.0000 H   0  0  0  0  0  0  0  0  0  0  0  0
   10.4632    1.2354    0.0000 H   0  0  0  0  0  0  0  0  0  0  0  0
   13.8884   -2.2312    0.0000 H   0  0  0  0  0  0  0  0  0  0  0  0
   15.3580   -2.3758    0.0000 H   0  0  0  0  0  0  0  0  0  0  0  0
   15.0350   -1.6471    0.0000 H   0  0  0  0  0  0  0  0  0  0  0  0
    5.2908   -4.2950    0.0000 H   0  0  0  0  0  0  0  0  0  0  0  0
    5.7227   -5.6106    0.0000 H   0  0  0  0  0  0  0  0  0  0  0  0
    5.7227   -4.7812    0.0000 H   0  0  0  0  0  0  0  0  0  0  0  0
   12.7888   -1.4530    0.0000 H   0  0  0  0  0  0  0  0  0  0  0  0
   12.4732   -2.2710    0.0000 H   0  0  0  0  0  0  0  0  0  0  0  0
   13.2912   -2.5866    0.0000 H   0  0  0  0  0  0  0  0  0  0  0  0
    7.3981   -3.1496    0.0000 H   0  0  0  0  0  0  0  0  0  0  0  0
    8.1557   -3.3973    0.0000 H   0  0  0  0  0  0  0  0  0  0  0  0
    4.4272   -6.5676    0.0000 H   0  0  0  0  0  0  0  0  0  0  0  0
    5.2156   -6.3099    0.0000 H   0  0  0  0  0  0  0  0  0  0  0  0
    4.5749   -2.9792    0.0000 H   0  0  0  0  0  0  0  0  0  0  0  0
   14.0395   -3.1323    0.0000 H   0  0  0  0  0  0  0  0  0  0  0  0
   14.5901   -3.8147    0.0000 H   0  0  0  0  0  0  0  0  0  0  0  0
   15.2725   -3.2641    0.0000 H   0  0  0  0  0  0  0  0  0  0  0  0
   17.2638   -0.1480    0.0000 H   0  0  0  0  0  0  0  0  0  0  0  0
    9.4293   -2.2882    0.0000 H   0  0  0  0  0  0  0  0  0  0  0  0
    8.6717   -2.0405    0.0000 H   0  0  0  0  0  0  0  0  0  0  0  0
    7.5215    4.0423    0.0000 H   0  0  0  0  0  0  0  0  0  0  0  0
   10.1916    4.9048    0.0000 H   0  0  0  0  0  0  0  0  0  0  0  0
    2.8660   -3.5759    0.0000 H   0  0  0  0  0  0  0  0  0  0  0  0
    2.8660   -6.8159    0.0000 H   0  0  0  0  0  0  0  0  0  0  0  0
   16.6543    1.1970    0.0000 H   0  0  0  0  0  0  0  0  0  0  0  0
   16.1847    0.5530    0.0000 H   0  0  0  0  0  0  0  0  0  0  0  0
   15.6479    1.0304    0.0000 H   0  0  0  0  0  0  0  0  0  0  0  0
   17.4391   -1.6049    0.0000 H   0  0  0  0  0  0  0  0  0  0  0  0
    7.0235    5.5839    0.0000 H   0  0  0  0  0  0  0  0  0  0  0  0
    9.6936    6.4464    0.0000 H   0  0  0  0  0  0  0  0  0  0  0  0
    1.4631   -4.3859    0.0000 H   0  0  0  0  0  0  0  0  0  0  0  0
    9.1093   -3.7742    0.0000 H   0  0  0  0  0  0  0  0  0  0  0  0
    9.9849   -3.8216    0.0000 H   0  0  0  0  0  0  0  0  0  0  0  0
   10.0323   -2.9460    0.0000 H   0  0  0  0  0  0  0  0  0  0  0  0
    1.4631   -6.0059    0.0000 H   0  0  0  0  0  0  0  0  0  0  0  0
   17.8665    0.3985    0.0000 H   0  0  0  0  0  0  0  0  0  0  0  0
   18.3361    1.0425    0.0000 H   0  0  0  0  0  0  0  0  0  0  0  0
    8.1096    6.7859    0.0000 H   0  0  0  0  0  0  0  0  0  0  0  0
   19.2931   -0.5559    0.0000 H   0  0  0  0  0  0  0  0  0  0  0  0
   18.5253   -1.9948    0.0000 H   0  0  0  0  0  0  0  0  0  0  0  0
   18.8483   -2.7235    0.0000 H   0  0  0  0  0  0  0  0  0  0  0  0
   20.6425   -1.1326    0.0000 H   0  0  0  0  0  0  0  0  0  0  0  0
   18.8039    3.0163    0.0000 H   0  0  0  0  0  0  0  0  0  0  0  0
   21.4132    0.0654    0.0000 H   0  0  0  0  0  0  0  0  0  0  0  0
   21.7288    0.8834    0.0000 H   0  0  0  0  0  0  0  0  0  0  0  0
   20.9108    1.1991    0.0000 H   0  0  0  0  0  0  0  0  0  0  0  0
   20.3237   -4.1156    0.0000 H   0  0  0  0  0  0  0  0  0  0  0  0
 24  1  1  1  0  0  0
  1 32  1  0  0  0  0
  2 27  2  0  0  0  0
  3 29  2  0  0  0  0
  4 35  2  0  0  0  0
  5 19  1  0  0  0  0
  5116  1  0  0  0  0
  6 46  2  0  0  0  0
  7 47  2  0  0  0  0
  8 51  2  0  0  0  0
  9 64  2  0  0  0  0
 10 66  1  0  0  0  0
 10132  1  0  0  0  0
 11 66  2  0  0  0  0
 12 68  1  0  0  0  0
 12136  1  0  0  0  0
 13 68  2  0  0  0  0
 14 69  2  0  0  0  0
 15 23  1  0  0  0  0
 15 26  1  0  0  0  0
 15 27  1  0  0  0  0
 28 16  1  6  0  0  0
 16 35  1  0  0  0  0
 16 79  1  0  0  0  0
 17 18  1  0  0  0  0
 17 29  1  0  0  0  0
 17 81  1  0  0  0  0
 18 42  1  0  0  0  0
 18 46  1  0  0  0  0
 31 19  1  1  0  0  0
 19 47  1  0  0  0  0
 39 20  1  1  0  0  0
 20 51  1  0  0  0  0
 20103  1  0  0  0  0
 49 21  1  1  0  0  0
 21 64  1  0  0  0  0
 21117  1  0  0  0  0
 65 22  1  1  0  0  0
 22 69  1  0  0  0  0
 22131  1  0  0  0  0
 23 25  1  0  0  0  0
 23 29  1  6  0  0  0
 23 71  1  0  0  0  0
 24 25  1  0  0  0  0
 24 26  1  0  0  0  0
 24 72  1  0  0  0  0
 25 73  1  0  0  0  0
 25 74  1  0  0  0  0
 26 75  1  0  0  0  0
 26 76  1  0  0  0  0
 27 28  1  0  0  0  0
 28 30  1  0  0  0  0
 28 77  1  0  0  0  0
 30 33  1  0  0  0  0
 30 34  1  0  0  0  0
 30 78  1  0  0  0  0
 31 35  1  0  0  0  0
 31 36  1  0  0  0  0
 31 80  1  0  0  0  0
 32 38  1  0  0  0  0
 32 82  1  0  0  0  0
 32 83  1  0  0  0  0
 33 84  1  0  0  0  0
 33 85  1  0  0  0  0
 33 86  1  0  0  0  0
 34 87  1  0  0  0  0
 34 88  1  0  0  0  0
 34 89  1  0  0  0  0
 36 37  1  0  0  0  0
 36 40  1  6  0  0  0
 36 90  1  0  0  0  0
 37 48  1  0  0  0  0
 37 91  1  0  0  0  0
 37 92  1  0  0  0  0
 38 52  2  0  0  0  0
 38 53  1  0  0  0  0
 39 41  1  0  0  0  0
 39 44  1  0  0  0  0
 39 93  1  0  0  0  0
 40 96  1  0  0  0  0
 40 97  1  0  0  0  0
 40 98  1  0  0  0  0
 41 43  1  0  0  0  0
 41 94  1  0  0  0  0
 41 95  1  0  0  0  0
 42 50  1  0  0  0  0
 42 99  1  0  0  0  0
 42100  1  0  0  0  0
 43 45  1  0  0  0  0
 43101  1  0  0  0  0
 43102  1  0  0  0  0
 44 45  1  0  0  0  0
 44 54  2  0  0  0  0
 45 55  2  0  0  0  0
 46 51  1  0  0  0  0
 47 49  1  0  0  0  0
 48104  1  0  0  0  0
 48105  1  0  0  0  0
 48106  1  0  0  0  0
 49 56  1  0  0  0  0
 49107  1  0  0  0  0
 50 60  1  0  0  0  0
 50108  1  0  0  0  0
 50109  1  0  0  0  0
 52 57  1  0  0  0  0
 52110  1  0  0  0  0
 53 58  2  0  0  0  0
 53111  1  0  0  0  0
 54 59  1  0  0  0  0
 54112  1  0  0  0  0
 55 61  1  0  0  0  0
 55113  1  0  0  0  0
 56 62  1  0  0  0  0
 56114  1  0  0  0  0
 56115  1  0  0  0  0
 57 63  2  0  0  0  0
 57118  1  0  0  0  0
 58 63  1  0  0  0  0
 58119  1  0  0  0  0
 59 61  2  0  0  0  0
 59120  1  0  0  0  0
 60121  1  0  0  0  0
 60122  1  0  0  0  0
 60123  1  0  0  0  0
 61124  1  0  0  0  0
 62 66  1  0  0  0  0
 62125  1  0  0  0  0
 62126  1  0  0  0  0
 63127  1  0  0  0  0
 64 65  1  0  0  0  0
 65 67  1  0  0  0  0
 65128  1  0  0  0  0
 67 68  1  0  0  0  0
 67129  1  0  0  0  0
 67130  1  0  0  0  0
 69 70  1  0  0  0  0
 70133  1  0  0  0  0
 70134  1  0  0  0  0
 70135  1  0  0  0  0
M  END
> <PUBCHEM_COMPOUND_CID>
500617
> <PUBCHEM_COMPOUND_CANONICALIZED>
1
> <PUBCHEM_CACTVS_COMPLEXITY>
1880
> <PUBCHEM_CACTVS_HBOND_ACCEPTOR>
14
> <PUBCHEM_CACTVS_HBOND_DONOR>
8
> <PUBCHEM_CACTVS_ROTATABLE_BOND>
23
> <PUBCHEM_CACTVS_SUBSKEYS>
AAADcfB//AAAAAAAAAAAAAAAAAAAAeIAAAAwYAAAAAAAAGABQAAAHgAcCAAADTzhmAYyCIPyBgCIAiHSGACCAAAgAAA6qIGIDIgKZjqAsTmXcAhm1gGYqAe/16IOgAAAAAAQAAAAAAAAACAAACAACQAAAA==
> <PUBCHEM_IUPAC_OPENEYE_NAME>
(4R)-4-[[(2S)-2-acetamido-3-carboxy-propanoyl]amino]-5-[[(1S,2S)-1-[[(1S)-1-[(2S,4R)-4-benzyloxy-2-[[[2-[[(1S)-indan-1-yl]amino]-2-oxo-acetyl]-propyl-amino]carbamoyl]pyrrolidine-1-carbonyl]-2-methyl-propyl]carbamoyl]-2-methyl-butyl]-hydroxy-amino]-5-oxo-pentanoic acid
> <PUBCHEM_IUPAC_CAS_NAME>
(4R)-4-[[(2S)-2-acetamido-3-carboxy-1-oxopropyl]amino]-5-[[(2S,3S)-1-[[(2S)-1-[(2S,4R)-2-[[2-[2-[[(1S)-2,3-dihydro-1H-inden-1-yl]amino]-1,2-dioxoethyl]-2-propylhydrazinyl]-oxomethyl]-4-phenylmethoxy-1-pyrrolidinyl]-3-methyl-1-oxobutan-2-yl]amino]-3-methyl-1-oxopentan-2-yl]-hydroxyamino]-5-oxopentanoic acid
> <PUBCHEM_IUPAC_NAME_MARKUP>
(4<I>R</I>)-4-[[(2<I>S</I>)-2-acetamido-3-carboxypropanoyl]amino]-5-[[(2<I>S</I>,3<I>S</I>)-1-[[(2<I>S</I>)-1-[(2<I>S</I>,4<I>R</I>)-2-[[[2-[[(1<I>S</I>)-2,3-dihydro-1<I>H</I>-inden-1-yl]amino]-2-oxoacetyl]-propylamino]carbamoyl]-4-phenylmethoxypyrrolidin-1-yl]-3-methyl-1-oxobutan-2-yl]amino]-3-methyl-1-oxopentan-2-yl]-hydroxyamino]-5-oxopentanoic acid
> <PUBCHEM_IUPAC_NAME>
(4R)-4-[[(2S)-2-acetamido-3-carboxypropanoyl]amino]-5-[[(2S,3S)-1-[[(2S)-1-[(2S,4R)-2-[[[2-[[(1S)-2,3-dihydro-1H-inden-1-yl]amino]-2-oxoacetyl]-propylamino]carbamoyl]-4-phenylmethoxypyrrolidin-1-yl]-3-methyl-1-oxobutan-2-yl]amino]-3-methyl-1-oxopentan-2-yl]-hydroxyamino]-5-oxopentanoic acid
> <PUBCHEM_IUPAC_SYSTEMATIC_NAME>
(4R)-4-[[(2S)-2-acetamido-4-oxidanyl-4-oxidanylidene-butanoyl]amino]-5-[[(2S,3S)-1-[[(2S)-1-[(2S,4R)-2-[[[2-[[(1S)-2,3-dihydro-1H-inden-1-yl]amino]-2-oxidanylidene-ethanoyl]-propyl-amino]carbamoyl]-4-phenylmethoxy-pyrrolidin-1-yl]-3-methyl-1-oxidanylidene-butan-2-yl]amino]-3-methyl-1-oxidanylidene-pentan-2-yl]-oxidanyl-amino]-5-oxidanylidene-pentanoic acid
> <PUBCHEM_IUPAC_TRADITIONAL_NAME>
(4R)-4-[[(2S)-2-acetamido-3-carboxy-propanoyl]amino]-5-[[(1S,2S)-1-[[(1S)-1-[(2S,4R)-4-benzoxy-2-[[[2-[[(1S)-indan-1-yl]amino]-2-keto-acetyl]-propyl-amino]carbamoyl]pyrrolidine-1-carbonyl]-2-methyl-propyl]carbamoyl]-2-methyl-butyl]-hydroxy-amino]-5-keto-valeric acid
> <PUBCHEM_IUPAC_INCHI>
InChI=1S/C48H66N8O14/c1-7-22-55(48(68)45(65)50-34-19-18-31-16-12-13-17-33(31)34)53-43(63)37-23-32(70-26-30-14-10-9-11-15-30)25-54(37)47(67)40(27(3)4)52-44(64)41(28(5)8-2)56(69)46(66)35(20-21-38(58)59)51-42(62)36(24-39(60)61)49-29(6)57/h9-17,27-28,32,34-37,40-41,69H,7-8,18-26H2,1-6H3,(H,49,57)(H,50,65)(H,51,62)(H,52,64)(H,53,63)(H,58,59)(H,60,61)/t28-,32+,34-,35+,36-,37-,40-,41-/m0/s1
> <PUBCHEM_IUPAC_INCHIKEY>
ZMWFVBSAOJSJPM-BMRXTTTRSA-N
> <PUBCHEM_XLOGP3_AA>
3
> <PUBCHEM_EXACT_MASS>
978.46984881
> <PUBCHEM_MOLECULAR_FORMULA>
C48H66N8O14
> <PUBCHEM_MOLECULAR_WEIGHT>
979.1
> <PUBCHEM_OPENEYE_CAN_SMILES>
CCCN(C(=O)C(=O)NC1CCC2=CC=CC=C12)NC(=O)C3CC(CN3C(=O)C(C(C)C)NC(=O)C(C(C)CC)N(C(=O)C(CCC(=O)O)NC(=O)C(CC(=O)O)NC(=O)C)O)OCC4=CC=CC=C4
> <PUBCHEM_OPENEYE_ISO_SMILES>
CCCN(C(=O)C(=O)N[C@H]1CCC2=CC=CC=C12)NC(=O)[C@@H]3C[C@H](CN3C(=O)[C@H](C(C)C)NC(=O)[C@H]([C@@H](C)CC)N(C(=O)[C@@H](CCC(=O)O)NC(=O)[C@H](CC(=O)O)NC(=O)C)O)OCC4=CC=CC=C4
> <PUBCHEM_CACTVS_TPSA>
311
> <PUBCHEM_MONOISOTOPIC_WEIGHT>
978.46984881
> <PUBCHEM_TOTAL_CHARGE>
0
> <PUBCHEM_HEAVY_ATOM_COUNT>
70
> <PUBCHEM_ATOM_DEF_STEREO_COUNT>
8
> <PUBCHEM_ATOM_UDEF_STEREO_COUNT>
0
> <PUBCHEM_BOND_DEF_STEREO_COUNT>
0
> <PUBCHEM_BOND_UDEF_STEREO_COUNT>
0
> <PUBCHEM_ISOTOPIC_ATOM_COUNT>
0
> <PUBCHEM_COMPONENT_COUNT>
1
> <PUBCHEM_CACTVS_TAUTO_COUNT>
-1
> <PUBCHEM_COORDINATE_TYPE>
1
5
255
> <PUBCHEM_BONDANNOTATIONS>
24  1  5
28  16  6
31  19  5
39  20  5
49  21  5
65  22  5
23  29  6
36  40  6
38  52  8
38  53  8
44  45  8
44  54  8
45  55  8
52  57  8
53  58  8
54  59  8
55  61  8
57  63  8
58  63  8
59  61  8
$$$$
