500647
  -OEChem-10302200282D
 86 90  0     1  0  0  0  0  0999 V2000
    2.0000   -3.4789    0.0000 Cl  0  0  0  0  0  0  0  0  0  0  0  0
    9.1058    4.9019    0.0000 O   0  0  0  0  0  0  0  0  0  0  0  0
    5.5301   -0.4547    0.0000 O   0  0  0  0  0  0  0  0  0  0  0  0
    9.2868    3.1793    0.0000 O   0  0  0  0  0  0  0  0  0  0  0  0
    8.8801    2.2658    0.0000 O   0  0  0  0  0  0  0  0  0  0  0  0
    9.5611    1.0862    0.0000 O   0  0  0  0  0  0  0  0  0  0  0  0
    8.6112   -3.1680    0.0000 O   0  0  0  0  0  0  0  0  0  0  0  0
   10.1936   -2.4635    0.0000 O   0  0  0  0  0  0  0  0  0  0  0  0
    7.2978    2.9703    0.0000 N   0  0  0  0  0  0  0  0  0  0  0  0
    7.9788    0.3817    0.0000 N   0  0  0  0  0  0  0  0  0  0  0  0
    8.7923   -1.4454    0.0000 N   0  0  0  0  0  0  0  0  0  0  0  0
    5.5301   -3.4547    0.0000 N   0  0  0  0  0  0  0  0  0  0  0  0
    7.7045    3.8838    0.0000 C   0  0  3  0  0  0  0  0  0  0  0  0
    6.7910    4.2906    0.0000 C   0  0  2  0  0  0  0  0  0  0  0  0
    7.6000    4.8784    0.0000 C   0  0  0  0  0  0  0  0  0  0  0  0
    7.4788    1.2477    0.0000 C   0  0  2  0  0  0  0  0  0  0  0  0
    8.6990    3.9884    0.0000 C   0  0  0  0  0  0  0  0  0  0  0  0
    5.7964    4.1860    0.0000 C   0  0  0  0  0  0  0  0  0  0  0  0
    7.8856    2.1613    0.0000 C   0  0  0  0  0  0  0  0  0  0  0  0
    6.5007    1.0398    0.0000 C   0  0  0  0  0  0  0  0  0  0  0  0
    6.3961    0.0453    0.0000 C   0  0  2  0  0  0  0  0  0  0  0  0
   10.3746   -0.7409    0.0000 C   0  0  0  0  0  0  0  0  0  0  0  0
    7.3097   -0.3615    0.0000 C   0  0  0  0  0  0  0  0  0  0  0  0
    9.3801   -0.6364    0.0000 C   0  0  1  0  0  0  0  0  0  0  0  0
    8.9734    0.2772    0.0000 C   0  0  0  0  0  0  0  0  0  0  0  0
   10.7813   -1.6544    0.0000 C   0  0  0  0  0  0  0  0  0  0  0  0
   10.9624    0.0681    0.0000 C   0  0  0  0  0  0  0  0  0  0  0  0
   11.7759   -1.7590    0.0000 C   0  0  0  0  0  0  0  0  0  0  0  0
   11.9569   -0.0364    0.0000 C   0  0  0  0  0  0  0  0  0  0  0  0
   12.3637   -0.9500    0.0000 C   0  0  0  0  0  0  0  0  0  0  0  0
    5.2087    4.9950    0.0000 C   0  0  0  0  0  0  0  0  0  0  0  0
    5.5301   -1.4547    0.0000 C   0  0  0  0  0  0  0  0  0  0  0  0
    9.1990   -2.3589    0.0000 C   0  0  0  0  0  0  0  0  0  0  0  0
    4.6641   -1.9547    0.0000 C   0  0  0  0  0  0  0  0  0  0  0  0
    6.3961   -1.9547    0.0000 C   0  0  0  0  0  0  0  0  0  0  0  0
    9.0180   -4.0815    0.0000 C   0  0  0  0  0  0  0  0  0  0  0  0
    4.6641   -2.9547    0.0000 C   0  0  0  0  0  0  0  0  0  0  0  0
    3.7702   -1.4200    0.0000 C   0  0  0  0  0  0  0  0  0  0  0  0
    6.3961   -2.9547    0.0000 C   0  0  0  0  0  0  0  0  0  0  0  0
    9.4247   -4.9950    0.0000 C   0  0  0  0  0  0  0  0  0  0  0  0
    8.1044   -4.4882    0.0000 C   0  0  0  0  0  0  0  0  0  0  0  0
    9.9315   -3.6748    0.0000 C   0  0  0  0  0  0  0  0  0  0  0  0
    3.7702   -3.4894    0.0000 C   0  0  0  0  0  0  0  0  0  0  0  0
    2.8641   -1.9339    0.0000 C   0  0  0  0  0  0  0  0  0  0  0  0
    2.8641   -2.9755    0.0000 C   0  0  0  0  0  0  0  0  0  0  0  0
    6.6940    3.6782    0.0000 H   0  0  0  0  0  0  0  0  0  0  0  0
    8.1960    5.0492    0.0000 H   0  0  0  0  0  0  0  0  0  0  0  0
    7.3282    5.4356    0.0000 H   0  0  0  0  0  0  0  0  0  0  0  0
    6.6812    2.9055    0.0000 H   0  0  0  0  0  0  0  0  0  0  0  0
    8.0980    1.2802    0.0000 H   0  0  0  0  0  0  0  0  0  0  0  0
    5.5443    3.6196    0.0000 H   0  0  0  0  0  0  0  0  0  0  0  0
    6.4359    1.6564    0.0000 H   0  0  0  0  0  0  0  0  0  0  0  0
    5.8807    1.0398    0.0000 H   0  0  0  0  0  0  0  0  0  0  0  0
    5.8762    0.3830    0.0000 H   0  0  0  0  0  0  0  0  0  0  0  0
   10.1224   -0.1745    0.0000 H   0  0  0  0  0  0  0  0  0  0  0  0
    6.9997   -0.8984    0.0000 H   0  0  0  0  0  0  0  0  0  0  0  0
    7.8113   -0.7259    0.0000 H   0  0  0  0  0  0  0  0  0  0  0  0
    9.6323   -1.2028    0.0000 H   0  0  0  0  0  0  0  0  0  0  0  0
   10.1798   -1.8044    0.0000 H   0  0  0  0  0  0  0  0  0  0  0  0
   10.8246   -2.2729    0.0000 H   0  0  0  0  0  0  0  0  0  0  0  0
   11.1333    0.6641    0.0000 H   0  0  0  0  0  0  0  0  0  0  0  0
   10.4051    0.3399    0.0000 H   0  0  0  0  0  0  0  0  0  0  0  0
   11.6050   -2.3550    0.0000 H   0  0  0  0  0  0  0  0  0  0  0  0
   12.3331   -2.0308    0.0000 H   0  0  0  0  0  0  0  0  0  0  0  0
   12.5585    0.1136    0.0000 H   0  0  0  0  0  0  0  0  0  0  0  0
   11.9137    0.5821    0.0000 H   0  0  0  0  0  0  0  0  0  0  0  0
   12.7943   -1.3960    0.0000 H   0  0  0  0  0  0  0  0  0  0  0  0
   12.8777   -0.6033    0.0000 H   0  0  0  0  0  0  0  0  0  0  0  0
    5.4608    5.5614    0.0000 H   0  0  0  0  0  0  0  0  0  0  0  0
    4.5921    4.9302    0.0000 H   0  0  0  0  0  0  0  0  0  0  0  0
    9.7224    4.9667    0.0000 H   0  0  0  0  0  0  0  0  0  0  0  0
    8.1757   -1.3806    0.0000 H   0  0  0  0  0  0  0  0  0  0  0  0
    6.9331   -1.6447    0.0000 H   0  0  0  0  0  0  0  0  0  0  0  0
    3.7773   -0.8001    0.0000 H   0  0  0  0  0  0  0  0  0  0  0  0
    6.9331   -3.2647    0.0000 H   0  0  0  0  0  0  0  0  0  0  0  0
    8.8583   -5.2472    0.0000 H   0  0  0  0  0  0  0  0  0  0  0  0
    9.6769   -5.5614    0.0000 H   0  0  0  0  0  0  0  0  0  0  0  0
    9.9911   -4.7429    0.0000 H   0  0  0  0  0  0  0  0  0  0  0  0
    7.8523   -3.9218    0.0000 H   0  0  0  0  0  0  0  0  0  0  0  0
    7.5380   -4.7404    0.0000 H   0  0  0  0  0  0  0  0  0  0  0  0
    8.3566   -5.0546    0.0000 H   0  0  0  0  0  0  0  0  0  0  0  0
   10.1837   -4.2412    0.0000 H   0  0  0  0  0  0  0  0  0  0  0  0
   10.4979   -3.4226    0.0000 H   0  0  0  0  0  0  0  0  0  0  0  0
    9.6794   -3.1084    0.0000 H   0  0  0  0  0  0  0  0  0  0  0  0
    3.7773   -4.1093    0.0000 H   0  0  0  0  0  0  0  0  0  0  0  0
    2.3284   -1.6218    0.0000 H   0  0  0  0  0  0  0  0  0  0  0  0
  1 45  1  0  0  0  0
  2 17  1  0  0  0  0
  2 71  1  0  0  0  0
 21  3  1  6  0  0  0
  3 32  1  0  0  0  0
  4 17  2  0  0  0  0
  5 19  2  0  0  0  0
  6 25  2  0  0  0  0
  7 33  1  0  0  0  0
  7 36  1  0  0  0  0
  8 33  2  0  0  0  0
  9 13  1  0  0  0  0
  9 19  1  0  0  0  0
  9 49  1  0  0  0  0
 10 16  1  0  0  0  0
 10 23  1  0  0  0  0
 10 25  1  0  0  0  0
 24 11  1  6  0  0  0
 11 33  1  0  0  0  0
 11 72  1  0  0  0  0
 12 37  2  0  0  0  0
 12 39  1  0  0  0  0
 13 14  1  0  0  0  0
 13 15  1  0  0  0  0
 13 17  1  0  0  0  0
 14 15  1  0  0  0  0
 14 18  1  1  0  0  0
 14 46  1  0  0  0  0
 15 47  1  0  0  0  0
 15 48  1  0  0  0  0
 16 19  1  1  0  0  0
 16 20  1  0  0  0  0
 16 50  1  0  0  0  0
 18 31  2  0  0  0  0
 18 51  1  0  0  0  0
 20 21  1  0  0  0  0
 20 52  1  0  0  0  0
 20 53  1  0  0  0  0
 21 23  1  0  0  0  0
 21 54  1  0  0  0  0
 22 24  1  0  0  0  0
 22 26  1  0  0  0  0
 22 27  1  0  0  0  0
 22 55  1  0  0  0  0
 23 56  1  0  0  0  0
 23 57  1  0  0  0  0
 24 25  1  0  0  0  0
 24 58  1  0  0  0  0
 26 28  1  0  0  0  0
 26 59  1  0  0  0  0
 26 60  1  0  0  0  0
 27 29  1  0  0  0  0
 27 61  1  0  0  0  0
 27 62  1  0  0  0  0
 28 30  1  0  0  0  0
 28 63  1  0  0  0  0
 28 64  1  0  0  0  0
 29 30  1  0  0  0  0
 29 65  1  0  0  0  0
 29 66  1  0  0  0  0
 30 67  1  0  0  0  0
 30 68  1  0  0  0  0
 31 69  1  0  0  0  0
 31 70  1  0  0  0  0
 32 34  2  0  0  0  0
 32 35  1  0  0  0  0
 34 37  1  0  0  0  0
 34 38  1  0  0  0  0
 35 39  2  0  0  0  0
 35 73  1  0  0  0  0
 36 40  1  0  0  0  0
 36 41  1  0  0  0  0
 36 42  1  0  0  0  0
 37 43  1  0  0  0  0
 38 44  2  0  0  0  0
 38 74  1  0  0  0  0
 39 75  1  0  0  0  0
 40 76  1  0  0  0  0
 40 77  1  0  0  0  0
 40 78  1  0  0  0  0
 41 79  1  0  0  0  0
 41 80  1  0  0  0  0
 41 81  1  0  0  0  0
 42 82  1  0  0  0  0
 42 83  1  0  0  0  0
 42 84  1  0  0  0  0
 43 45  2  0  0  0  0
 43 85  1  0  0  0  0
 44 45  1  0  0  0  0
 44 86  1  0  0  0  0
M  END
> <PUBCHEM_COMPOUND_CID>
500647
> <PUBCHEM_COMPOUND_CANONICALIZED>
1
> <PUBCHEM_CACTVS_COMPLEXITY>
1140
> <PUBCHEM_CACTVS_HBOND_ACCEPTOR>
8
> <PUBCHEM_CACTVS_HBOND_DONOR>
3
> <PUBCHEM_CACTVS_ROTATABLE_BOND>
11
> <PUBCHEM_CACTVS_SUBSKEYS>
AAADcfB/uAAEAAAAAAAAAAAAGAAAAWAAAAA8YIAAAAAAAACx8AAAHgIQCAAADf7hniY+zvPIFgCoAzX3XACCiCAxJyAI2KG+bpkOZvLFs7ufeCjm1hnY6Ae6yaCOBAAAAAICAAAIAAAABAQAAAAAAAAAAA==
> <PUBCHEM_IUPAC_OPENEYE_NAME>
(2R)-1-[[(2S,4R)-1-[(2S)-2-(tert-butoxycarbonylamino)-2-cyclohexyl-acetyl]-4-[(7-chloro-4-quinolyl)oxy]pyrrolidine-2-carbonyl]amino]-2-vinyl-cyclopropanecarboxylic acid
> <PUBCHEM_IUPAC_CAS_NAME>
(2R)-1-[[[(2S,4R)-4-[(7-chloro-4-quinolinyl)oxy]-1-[(2S)-2-cyclohexyl-2-[[(2-methylpropan-2-yl)oxy-oxomethyl]amino]-1-oxoethyl]-2-pyrrolidinyl]-oxomethyl]amino]-2-ethenyl-1-cyclopropanecarboxylic acid
> <PUBCHEM_IUPAC_NAME_MARKUP>
(2<I>R</I>)-1-[[(2<I>S</I>,4<I>R</I>)-4-(7-chloroquinolin-4-yl)oxy-1-[(2<I>S</I>)-2-cyclohexyl-2-[(2-methylpropan-2-yl)oxycarbonylamino]acetyl]pyrrolidine-2-carbonyl]amino]-2-ethenylcyclopropane-1-carboxylic acid
> <PUBCHEM_IUPAC_NAME>
(2R)-1-[[(2S,4R)-4-(7-chloroquinolin-4-yl)oxy-1-[(2S)-2-cyclohexyl-2-[(2-methylpropan-2-yl)oxycarbonylamino]acetyl]pyrrolidine-2-carbonyl]amino]-2-ethenylcyclopropane-1-carboxylic acid
> <PUBCHEM_IUPAC_SYSTEMATIC_NAME>
(2R)-1-[[(2S,4R)-4-(7-chloranylquinolin-4-yl)oxy-1-[(2S)-2-cyclohexyl-2-[(2-methylpropan-2-yl)oxycarbonylamino]ethanoyl]pyrrolidin-2-yl]carbonylamino]-2-ethenyl-cyclopropane-1-carboxylic acid
> <PUBCHEM_IUPAC_TRADITIONAL_NAME>
(2R)-1-[[(2S,4R)-1-[(2S)-2-(tert-butoxycarbonylamino)-2-cyclohexyl-acetyl]-4-[(7-chloro-4-quinolyl)oxy]prolyl]amino]-2-vinyl-cyclopropanecarboxylic acid
> <PUBCHEM_IUPAC_INCHI>
InChI=1S/C33H41ClN4O7/c1-5-20-17-33(20,30(41)42)37-28(39)25-16-22(44-26-13-14-35-24-15-21(34)11-12-23(24)26)18-38(25)29(40)27(19-9-7-6-8-10-19)36-31(43)45-32(2,3)4/h5,11-15,19-20,22,25,27H,1,6-10,16-18H2,2-4H3,(H,36,43)(H,37,39)(H,41,42)/t20-,22+,25-,27-,33?/m0/s1
> <PUBCHEM_IUPAC_INCHIKEY>
UZQBWUXRBOSIFQ-BOQHTLBDSA-N
> <PUBCHEM_XLOGP3_AA>
5.5
> <PUBCHEM_EXACT_MASS>
640.2663774
> <PUBCHEM_MOLECULAR_FORMULA>
C33H41ClN4O7
> <PUBCHEM_MOLECULAR_WEIGHT>
641.2
> <PUBCHEM_OPENEYE_CAN_SMILES>
CC(C)(C)OC(=O)NC(C1CCCCC1)C(=O)N2CC(CC2C(=O)NC3(CC3C=C)C(=O)O)OC4=C5C=CC(=CC5=NC=C4)Cl
> <PUBCHEM_OPENEYE_ISO_SMILES>
CC(C)(C)OC(=O)N[C@@H](C1CCCCC1)C(=O)N2C[C@@H](C[C@H]2C(=O)NC3(C[C@@H]3C=C)C(=O)O)OC4=C5C=CC(=CC5=NC=C4)Cl
> <PUBCHEM_CACTVS_TPSA>
147
> <PUBCHEM_MONOISOTOPIC_WEIGHT>
640.2663774
> <PUBCHEM_TOTAL_CHARGE>
0
> <PUBCHEM_HEAVY_ATOM_COUNT>
45
> <PUBCHEM_ATOM_DEF_STEREO_COUNT>
4
> <PUBCHEM_ATOM_UDEF_STEREO_COUNT>
1
> <PUBCHEM_BOND_DEF_STEREO_COUNT>
0
> <PUBCHEM_BOND_UDEF_STEREO_COUNT>
0
> <PUBCHEM_ISOTOPIC_ATOM_COUNT>
0
> <PUBCHEM_COMPONENT_COUNT>
1
> <PUBCHEM_CACTVS_TAUTO_COUNT>
-1
> <PUBCHEM_COORDINATE_TYPE>
1
5
255
> <PUBCHEM_BONDANNOTATIONS>
24  11  6
12  37  8
12  39  8
13  17  3
14  18  5
16  19  5
21  3  6
32  34  8
32  35  8
34  37  8
34  38  8
35  39  8
37  43  8
38  44  8
43  45  8
44  45  8
$$$$
