500659
  -OEChem-10302200282D
104110  0     1  0  0  0  0  0999 V2000
   10.9118    4.1074    0.0000 O   0  0  0  0  0  0  0  0  0  0  0  0
    9.3295    4.8118    0.0000 O   0  0  0  0  0  0  0  0  0  0  0  0
    8.6970    1.2622    0.0000 O   0  0  0  0  0  0  0  0  0  0  0  0
    4.6660    2.8031    0.0000 O   0  0  0  0  0  0  0  0  0  0  0  0
    8.0160    0.0826    0.0000 O   0  0  0  0  0  0  0  0  0  0  0  0
    4.8960   -5.6851    0.0000 O   0  0  0  0  0  0  0  0  0  0  0  0
    3.4948   -4.6670    0.0000 O   0  0  0  0  0  0  0  0  0  0  0  0
    8.5160    2.9848    0.0000 N   0  0  0  0  0  0  0  0  0  0  0  0
    6.6147    1.1007    0.0000 N   0  0  0  0  0  0  0  0  0  0  0  0
    6.8404   -1.5354    0.0000 N   0  0  0  0  0  0  0  0  0  0  0  0
    5.5321    4.3031    0.0000 N   0  0  0  0  0  0  0  0  0  0  0  0
    4.6660    5.8031    0.0000 N   0  0  0  0  0  0  0  0  0  0  0  0
    9.6150    2.0948    0.0000 C   0  0  2  0  0  0  0  0  0  0  0  0
    9.7196    1.1002    0.0000 C   0  0  0  0  0  0  0  0  0  0  0  0
    9.5105    3.0893    0.0000 C   0  0  3  0  0  0  0  0  0  0  0  0
   10.4241    2.6826    0.0000 C   0  0  0  0  0  0  0  0  0  0  0  0
    9.3128    0.1867    0.0000 C   0  0  0  0  0  0  0  0  0  0  0  0
   10.3074    0.2913    0.0000 C   0  0  0  0  0  0  0  0  0  0  0  0
    9.9172    4.0028    0.0000 C   0  0  0  0  0  0  0  0  0  0  0  0
    8.1093    2.0712    0.0000 C   0  0  0  0  0  0  0  0  0  0  0  0
    7.1147    1.9667    0.0000 C   0  0  2  0  0  0  0  0  0  0  0  0
    6.4456    2.7098    0.0000 C   0  0  0  0  0  0  0  0  0  0  0  0
    5.5321    2.3031    0.0000 C   0  0  2  0  0  0  0  0  0  0  0  0
    5.6366    1.3086    0.0000 C   0  0  0  0  0  0  0  0  0  0  0  0
    7.0215    0.1871    0.0000 C   0  0  0  0  0  0  0  0  0  0  0  0
    6.4337   -0.6219    0.0000 C   0  0  2  0  0  0  0  0  0  0  0  0
    5.4392   -0.5174    0.0000 C   0  0  0  0  0  0  0  0  0  0  0  0
    4.6660    3.8031    0.0000 C   0  0  0  0  0  0  0  0  0  0  0  0
    4.4446   -0.4128    0.0000 C   0  0  0  0  0  0  0  0  0  0  0  0
    5.3346   -1.5119    0.0000 C   0  0  0  0  0  0  0  0  0  0  0  0
    5.5437    0.4771    0.0000 C   0  0  0  0  0  0  0  0  0  0  0  0
    6.2526   -2.3445    0.0000 C   0  0  0  0  0  0  0  0  0  0  0  0
    3.8000    4.3031    0.0000 C   0  0  0  0  0  0  0  0  0  0  0  0
    3.8000    5.3031    0.0000 C   0  0  0  0  0  0  0  0  0  0  0  0
    6.6594   -3.2580    0.0000 C   0  0  0  0  0  0  0  0  0  0  0  0
    5.2581   -2.2399    0.0000 C   0  0  0  0  0  0  0  0  0  0  0  0
    2.9061    3.7684    0.0000 C   0  0  0  0  0  0  0  0  0  0  0  0
    5.5321    5.3031    0.0000 C   0  0  0  0  0  0  0  0  0  0  0  0
    2.9061    5.8378    0.0000 C   0  0  0  0  0  0  0  0  0  0  0  0
    6.0716   -4.0670    0.0000 C   0  0  0  0  0  0  0  0  0  0  0  0
    4.6703   -3.0490    0.0000 C   0  0  0  0  0  0  0  0  0  0  0  0
    2.0000    4.2823    0.0000 C   0  0  0  0  0  0  0  0  0  0  0  0
    6.3981    5.8031    0.0000 C   0  0  0  0  0  0  0  0  0  0  0  0
    5.0771   -3.9625    0.0000 C   0  0  0  0  0  0  0  0  0  0  0  0
    2.0000    5.3239    0.0000 C   0  0  0  0  0  0  0  0  0  0  0  0
    6.3981    6.8031    0.0000 C   0  0  0  0  0  0  0  0  0  0  0  0
    7.2641    5.3031    0.0000 C   0  0  0  0  0  0  0  0  0  0  0  0
    4.4893   -4.7715    0.0000 C   0  0  0  0  0  0  0  0  0  0  0  0
    7.2641    7.3031    0.0000 C   0  0  0  0  0  0  0  0  0  0  0  0
    8.1301    5.8031    0.0000 C   0  0  0  0  0  0  0  0  0  0  0  0
    8.1301    6.8031    0.0000 C   0  0  0  0  0  0  0  0  0  0  0  0
    4.3082   -6.4941    0.0000 C   0  0  0  0  0  0  0  0  0  0  0  0
    3.7204   -7.3031    0.0000 C   0  0  0  0  0  0  0  0  0  0  0  0
    5.1172   -7.0819    0.0000 C   0  0  0  0  0  0  0  0  0  0  0  0
    3.4992   -5.9063    0.0000 C   0  0  0  0  0  0  0  0  0  0  0  0
    8.7697    2.0059    0.0000 H   0  0  0  0  0  0  0  0  0  0  0  0
   10.2984    1.3225    0.0000 H   0  0  0  0  0  0  0  0  0  0  0  0
   10.8701    2.2519    0.0000 H   0  0  0  0  0  0  0  0  0  0  0  0
   10.7708    3.1966    0.0000 H   0  0  0  0  0  0  0  0  0  0  0  0
    8.7113    0.3367    0.0000 H   0  0  0  0  0  0  0  0  0  0  0  0
    9.2696   -0.4318    0.0000 H   0  0  0  0  0  0  0  0  0  0  0  0
   10.4783   -0.3047    0.0000 H   0  0  0  0  0  0  0  0  0  0  0  0
   10.8647    0.5631    0.0000 H   0  0  0  0  0  0  0  0  0  0  0  0
    8.1516    3.4864    0.0000 H   0  0  0  0  0  0  0  0  0  0  0  0
    7.4524    1.4467    0.0000 H   0  0  0  0  0  0  0  0  0  0  0  0
   11.1640    4.6738    0.0000 H   0  0  0  0  0  0  0  0  0  0  0  0
    6.9472    3.0743    0.0000 H   0  0  0  0  0  0  0  0  0  0  0  0
    6.1356    3.2468    0.0000 H   0  0  0  0  0  0  0  0  0  0  0  0
    5.5645    2.9222    0.0000 H   0  0  0  0  0  0  0  0  0  0  0  0
    5.0166    1.3086    0.0000 H   0  0  0  0  0  0  0  0  0  0  0  0
    5.5718    0.6920    0.0000 H   0  0  0  0  0  0  0  0  0  0  0  0
    7.0503   -0.6867    0.0000 H   0  0  0  0  0  0  0  0  0  0  0  0
    7.4570   -1.6002    0.0000 H   0  0  0  0  0  0  0  0  0  0  0  0
    4.5094    0.2038    0.0000 H   0  0  0  0  0  0  0  0  0  0  0  0
    3.8280   -0.3480    0.0000 H   0  0  0  0  0  0  0  0  0  0  0  0
    4.3798   -1.0294    0.0000 H   0  0  0  0  0  0  0  0  0  0  0  0
    4.7180   -1.4471    0.0000 H   0  0  0  0  0  0  0  0  0  0  0  0
    5.2698   -2.1285    0.0000 H   0  0  0  0  0  0  0  0  0  0  0  0
    5.9512   -1.5767    0.0000 H   0  0  0  0  0  0  0  0  0  0  0  0
    6.1603    0.4123    0.0000 H   0  0  0  0  0  0  0  0  0  0  0  0
    5.6085    1.0938    0.0000 H   0  0  0  0  0  0  0  0  0  0  0  0
    4.9271    0.5420    0.0000 H   0  0  0  0  0  0  0  0  0  0  0  0
    7.2760   -3.3228    0.0000 H   0  0  0  0  0  0  0  0  0  0  0  0
    5.0059   -1.6735    0.0000 H   0  0  0  0  0  0  0  0  0  0  0  0
    2.9132    3.1485    0.0000 H   0  0  0  0  0  0  0  0  0  0  0  0
    2.9132    6.4577    0.0000 H   0  0  0  0  0  0  0  0  0  0  0  0
    6.3238   -4.6334    0.0000 H   0  0  0  0  0  0  0  0  0  0  0  0
    4.0537   -2.9841    0.0000 H   0  0  0  0  0  0  0  0  0  0  0  0
    1.4643    3.9702    0.0000 H   0  0  0  0  0  0  0  0  0  0  0  0
    1.4643    5.6360    0.0000 H   0  0  0  0  0  0  0  0  0  0  0  0
    5.8612    7.1131    0.0000 H   0  0  0  0  0  0  0  0  0  0  0  0
    7.2641    4.6831    0.0000 H   0  0  0  0  0  0  0  0  0  0  0  0
    7.2641    7.9231    0.0000 H   0  0  0  0  0  0  0  0  0  0  0  0
    8.6671    5.4931    0.0000 H   0  0  0  0  0  0  0  0  0  0  0  0
    8.6671    7.1131    0.0000 H   0  0  0  0  0  0  0  0  0  0  0  0
    3.2189   -6.9387    0.0000 H   0  0  0  0  0  0  0  0  0  0  0  0
    3.3560   -7.8047    0.0000 H   0  0  0  0  0  0  0  0  0  0  0  0
    4.2220   -7.6675    0.0000 H   0  0  0  0  0  0  0  0  0  0  0  0
    4.7528   -7.5834    0.0000 H   0  0  0  0  0  0  0  0  0  0  0  0
    5.6188   -7.4463    0.0000 H   0  0  0  0  0  0  0  0  0  0  0  0
    5.4817   -6.5803    0.0000 H   0  0  0  0  0  0  0  0  0  0  0  0
    3.8636   -5.4047    0.0000 H   0  0  0  0  0  0  0  0  0  0  0  0
    2.9976   -5.5419    0.0000 H   0  0  0  0  0  0  0  0  0  0  0  0
    3.1348   -6.4079    0.0000 H   0  0  0  0  0  0  0  0  0  0  0  0
  1 19  1  0  0  0  0
  1 66  1  0  0  0  0
  2 19  2  0  0  0  0
  3 20  2  0  0  0  0
 23  4  1  6  0  0  0
  4 28  1  0  0  0  0
  5 25  2  0  0  0  0
  6 48  1  0  0  0  0
  6 52  1  0  0  0  0
  7 48  2  0  0  0  0
  8 15  1  0  0  0  0
  8 20  1  0  0  0  0
  8 64  1  0  0  0  0
  9 21  1  0  0  0  0
  9 24  1  0  0  0  0
  9 25  1  0  0  0  0
 26 10  1  1  0  0  0
 10 32  1  0  0  0  0
 10 73  1  0  0  0  0
 11 28  2  0  0  0  0
 11 38  1  0  0  0  0
 12 34  1  0  0  0  0
 12 38  2  0  0  0  0
 13 14  1  0  0  0  0
 13 15  1  0  0  0  0
 13 16  1  0  0  0  0
 13 56  1  1  0  0  0
 14 17  1  0  0  0  0
 14 18  1  0  0  0  0
 14 57  1  0  0  0  0
 15 16  1  0  0  0  0
 15 19  1  0  0  0  0
 16 58  1  0  0  0  0
 16 59  1  0  0  0  0
 17 18  1  0  0  0  0
 17 60  1  0  0  0  0
 17 61  1  0  0  0  0
 18 62  1  0  0  0  0
 18 63  1  0  0  0  0
 21 20  1  1  0  0  0
 21 22  1  0  0  0  0
 21 65  1  0  0  0  0
 22 23  1  0  0  0  0
 22 67  1  0  0  0  0
 22 68  1  0  0  0  0
 23 24  1  0  0  0  0
 23 69  1  0  0  0  0
 24 70  1  0  0  0  0
 24 71  1  0  0  0  0
 25 26  1  0  0  0  0
 26 27  1  0  0  0  0
 26 72  1  0  0  0  0
 27 29  1  0  0  0  0
 27 30  1  0  0  0  0
 27 31  1  0  0  0  0
 28 33  1  0  0  0  0
 29 74  1  0  0  0  0
 29 75  1  0  0  0  0
 29 76  1  0  0  0  0
 30 77  1  0  0  0  0
 30 78  1  0  0  0  0
 30 79  1  0  0  0  0
 31 80  1  0  0  0  0
 31 81  1  0  0  0  0
 31 82  1  0  0  0  0
 32 35  2  0  0  0  0
 32 36  1  0  0  0  0
 33 34  1  0  0  0  0
 33 37  2  0  0  0  0
 34 39  2  0  0  0  0
 35 40  1  0  0  0  0
 35 83  1  0  0  0  0
 36 41  2  0  0  0  0
 36 84  1  0  0  0  0
 37 42  1  0  0  0  0
 37 85  1  0  0  0  0
 38 43  1  0  0  0  0
 39 45  1  0  0  0  0
 39 86  1  0  0  0  0
 40 44  2  0  0  0  0
 40 87  1  0  0  0  0
 41 44  1  0  0  0  0
 41 88  1  0  0  0  0
 42 45  2  0  0  0  0
 42 89  1  0  0  0  0
 43 46  2  0  0  0  0
 43 47  1  0  0  0  0
 44 48  1  0  0  0  0
 45 90  1  0  0  0  0
 46 49  1  0  0  0  0
 46 91  1  0  0  0  0
 47 50  2  0  0  0  0
 47 92  1  0  0  0  0
 49 51  2  0  0  0  0
 49 93  1  0  0  0  0
 50 51  1  0  0  0  0
 50 94  1  0  0  0  0
 51 95  1  0  0  0  0
 52 53  1  0  0  0  0
 52 54  1  0  0  0  0
 52 55  1  0  0  0  0
 53 96  1  0  0  0  0
 53 97  1  0  0  0  0
 53 98  1  0  0  0  0
 54 99  1  0  0  0  0
 54100  1  0  0  0  0
 54101  1  0  0  0  0
 55102  1  0  0  0  0
 55103  1  0  0  0  0
 55104  1  0  0  0  0
M  END
> <PUBCHEM_COMPOUND_CID>
500659
> <PUBCHEM_COMPOUND_CANONICALIZED>
1
> <PUBCHEM_CACTVS_COMPLEXITY>
1410
> <PUBCHEM_CACTVS_HBOND_ACCEPTOR>
10
> <PUBCHEM_CACTVS_HBOND_DONOR>
3
> <PUBCHEM_CACTVS_ROTATABLE_BOND>
14
> <PUBCHEM_CACTVS_SUBSKEYS>
AAADcfB/uAAAAAAAAAAAAAAAGDAAAWAAAAA8YMEAAAAAAACx9AAAHgAQCAAAD/zhnwYz3PfIFgCoAyfyfACCiCklIqAJmKG8bNiObrLE/fuffSju1hvY6ae62TOfiAAAAAACAAAQAAAAAAQAAAAAAAAAAA==
> <PUBCHEM_IUPAC_OPENEYE_NAME>
(2R)-1-[[(2S,4R)-1-[(2S)-2-(4-tert-butoxycarbonylanilino)-3,3-dimethyl-butanoyl]-4-(2-phenylquinazolin-4-yl)oxy-pyrrolidine-2-carbonyl]amino]-2-cyclopropyl-cyclopropanecarboxylic acid
> <PUBCHEM_IUPAC_CAS_NAME>
(2R)-2-cyclopropyl-1-[[[(2S,4R)-1-[(2S)-3,3-dimethyl-2-[4-[(2-methylpropan-2-yl)oxy-oxomethyl]anilino]-1-oxobutyl]-4-[(2-phenyl-4-quinazolinyl)oxy]-2-pyrrolidinyl]-oxomethyl]amino]-1-cyclopropanecarboxylic acid
> <PUBCHEM_IUPAC_NAME_MARKUP>
(2<I>R</I>)-2-cyclopropyl-1-[[(2<I>S</I>,4<I>R</I>)-1-[(2<I>S</I>)-3,3-dimethyl-2-[4-[(2-methylpropan-2-yl)oxycarbonyl]anilino]butanoyl]-4-(2-phenylquinazolin-4-yl)oxypyrrolidine-2-carbonyl]amino]cyclopropane-1-carboxylic acid
> <PUBCHEM_IUPAC_NAME>
(2R)-2-cyclopropyl-1-[[(2S,4R)-1-[(2S)-3,3-dimethyl-2-[4-[(2-methylpropan-2-yl)oxycarbonyl]anilino]butanoyl]-4-(2-phenylquinazolin-4-yl)oxypyrrolidine-2-carbonyl]amino]cyclopropane-1-carboxylic acid
> <PUBCHEM_IUPAC_SYSTEMATIC_NAME>
(2R)-2-cyclopropyl-1-[[(2S,4R)-1-[(2S)-3,3-dimethyl-2-[[4-[(2-methylpropan-2-yl)oxycarbonyl]phenyl]amino]butanoyl]-4-(2-phenylquinazolin-4-yl)oxy-pyrrolidin-2-yl]carbonylamino]cyclopropane-1-carboxylic acid
> <PUBCHEM_IUPAC_TRADITIONAL_NAME>
(2R)-1-[[(2S,4R)-1-[(2S)-2-(4-tert-butoxycarbonylanilino)-3,3-dimethyl-butanoyl]-4-(2-phenylquinazolin-4-yl)oxy-prolyl]amino]-2-cyclopropyl-cyclopropanecarboxylic acid
> <PUBCHEM_IUPAC_INCHI>
InChI=1S/C43H49N5O7/c1-41(2,3)34(44-28-20-18-27(19-21-28)39(51)55-42(4,5)6)38(50)48-24-29(22-33(48)36(49)47-43(40(52)53)23-31(43)25-16-17-25)54-37-30-14-10-11-15-32(30)45-35(46-37)26-12-8-7-9-13-26/h7-15,18-21,25,29,31,33-34,44H,16-17,22-24H2,1-6H3,(H,47,49)(H,52,53)/t29-,31-,33+,34-,43?/m1/s1
> <PUBCHEM_IUPAC_INCHIKEY>
GYLKNSRGEILAKM-JYHIGZTLSA-N
> <PUBCHEM_XLOGP3_AA>
7.8
> <PUBCHEM_EXACT_MASS>
747.36319892
> <PUBCHEM_MOLECULAR_FORMULA>
C43H49N5O7
> <PUBCHEM_MOLECULAR_WEIGHT>
747.9
> <PUBCHEM_OPENEYE_CAN_SMILES>
CC(C)(C)C(C(=O)N1CC(CC1C(=O)NC2(CC2C3CC3)C(=O)O)OC4=NC(=NC5=CC=CC=C54)C6=CC=CC=C6)NC7=CC=C(C=C7)C(=O)OC(C)(C)C
> <PUBCHEM_OPENEYE_ISO_SMILES>
CC(C)(C)[C@@H](C(=O)N1C[C@@H](C[C@H]1C(=O)NC2(C[C@@H]2C3CC3)C(=O)O)OC4=NC(=NC5=CC=CC=C54)C6=CC=CC=C6)NC7=CC=C(C=C7)C(=O)OC(C)(C)C
> <PUBCHEM_CACTVS_TPSA>
160
> <PUBCHEM_MONOISOTOPIC_WEIGHT>
747.36319892
> <PUBCHEM_TOTAL_CHARGE>
0
> <PUBCHEM_HEAVY_ATOM_COUNT>
55
> <PUBCHEM_ATOM_DEF_STEREO_COUNT>
4
> <PUBCHEM_ATOM_UDEF_STEREO_COUNT>
1
> <PUBCHEM_BOND_DEF_STEREO_COUNT>
0
> <PUBCHEM_BOND_UDEF_STEREO_COUNT>
0
> <PUBCHEM_ISOTOPIC_ATOM_COUNT>
0
> <PUBCHEM_COMPONENT_COUNT>
1
> <PUBCHEM_CACTVS_TAUTO_COUNT>
-1
> <PUBCHEM_COORDINATE_TYPE>
1
5
255
> <PUBCHEM_BONDANNOTATIONS>
26  10  5
11  28  8
11  38  8
12  34  8
12  38  8
13  56  5
15  19  3
21  20  5
28  33  8
32  35  8
32  36  8
33  34  8
33  37  8
34  39  8
35  40  8
36  41  8
37  42  8
39  45  8
23  4  6
40  44  8
41  44  8
42  45  8
43  46  8
43  47  8
46  49  8
47  50  8
49  51  8
50  51  8
$$$$
