500650
  -OEChem-10302200282D
 96101  0     1  0  0  0  0  0999 V2000
   11.0928   -0.6622    0.0000 O   0  0  0  0  0  0  0  0  0  0  0  0
    9.6916    0.3558    0.0000 O   0  0  0  0  0  0  0  0  0  0  0  0
    4.6660   -1.0805    0.0000 O   0  0  0  0  0  0  0  0  0  0  0  0
    8.6970    0.4604    0.0000 O   0  0  0  0  0  0  0  0  0  0  0  0
    8.0160    1.6400    0.0000 O   0  0  0  0  0  0  0  0  0  0  0  0
    5.2581    3.9625    0.0000 O   0  0  0  0  0  0  0  0  0  0  0  0
    3.8569    2.9444    0.0000 O   0  0  0  0  0  0  0  0  0  0  0  0
    8.5160   -1.2622    0.0000 N   0  0  0  0  0  0  0  0  0  0  0  0
    6.6147    0.6219    0.0000 N   0  0  0  0  0  0  0  0  0  0  0  0
    5.4392    2.2399    0.0000 N   0  0  0  0  0  0  0  0  0  0  0  0
    4.6660   -4.0805    0.0000 N   0  0  0  0  0  0  0  0  0  0  0  0
    9.5105   -1.3667    0.0000 C   0  0  3  0  0  0  0  0  0  0  0  0
    9.4060   -2.3612    0.0000 C   0  0  2  0  0  0  0  0  0  0  0  0
   10.3195   -1.9545    0.0000 C   0  0  0  0  0  0  0  0  0  0  0  0
    7.1147   -0.2441    0.0000 C   0  0  2  0  0  0  0  0  0  0  0  0
   10.0983   -0.5577    0.0000 C   0  0  0  0  0  0  0  0  0  0  0  0
    8.8182   -3.1703    0.0000 C   0  0  0  0  0  0  0  0  0  0  0  0
    8.1093   -0.3487    0.0000 C   0  0  0  0  0  0  0  0  0  0  0  0
    6.4456   -0.9873    0.0000 C   0  0  0  0  0  0  0  0  0  0  0  0
    5.5321   -0.5805    0.0000 C   0  0  2  0  0  0  0  0  0  0  0  0
    5.6366    0.4140    0.0000 C   0  0  0  0  0  0  0  0  0  0  0  0
    6.8404    3.2580    0.0000 C   0  0  0  0  0  0  0  0  0  0  0  0
    6.4337    2.3445    0.0000 C   0  0  1  0  0  0  0  0  0  0  0  0
    7.0215    1.5354    0.0000 C   0  0  0  0  0  0  0  0  0  0  0  0
    6.2526    4.0670    0.0000 C   0  0  0  0  0  0  0  0  0  0  0  0
    7.8350    3.3625    0.0000 C   0  0  0  0  0  0  0  0  0  0  0  0
    6.6594    4.9806    0.0000 C   0  0  0  0  0  0  0  0  0  0  0  0
    8.2417    4.2761    0.0000 C   0  0  0  0  0  0  0  0  0  0  0  0
    7.6539    5.0851    0.0000 C   0  0  0  0  0  0  0  0  0  0  0  0
    9.2249   -4.0838    0.0000 C   0  0  0  0  0  0  0  0  0  0  0  0
    4.6660   -2.0805    0.0000 C   0  0  0  0  0  0  0  0  0  0  0  0
    4.8514    3.0490    0.0000 C   0  0  0  0  0  0  0  0  0  0  0  0
    3.8000   -2.5805    0.0000 C   0  0  0  0  0  0  0  0  0  0  0  0
    5.5321   -2.5805    0.0000 C   0  0  0  0  0  0  0  0  0  0  0  0
    4.6703    4.7715    0.0000 C   0  0  0  0  0  0  0  0  0  0  0  0
    3.8000   -3.5805    0.0000 C   0  0  0  0  0  0  0  0  0  0  0  0
    5.5321   -3.5805    0.0000 C   0  0  0  0  0  0  0  0  0  0  0  0
    2.9061   -2.0459    0.0000 C   0  0  0  0  0  0  0  0  0  0  0  0
    4.0826    5.5805    0.0000 C   0  0  0  0  0  0  0  0  0  0  0  0
    5.4794    5.3593    0.0000 C   0  0  0  0  0  0  0  0  0  0  0  0
    3.8613    4.1837    0.0000 C   0  0  0  0  0  0  0  0  0  0  0  0
    2.9061   -4.1152    0.0000 C   0  0  0  0  0  0  0  0  0  0  0  0
    6.3981   -4.0805    0.0000 C   0  0  0  0  0  0  0  0  0  0  0  0
    2.0000   -2.5597    0.0000 C   0  0  0  0  0  0  0  0  0  0  0  0
    2.0000   -3.6014    0.0000 C   0  0  0  0  0  0  0  0  0  0  0  0
    7.2641   -3.5805    0.0000 C   0  0  0  0  0  0  0  0  0  0  0  0
    6.3981   -5.0805    0.0000 C   0  0  0  0  0  0  0  0  0  0  0  0
    8.1301   -4.0805    0.0000 C   0  0  0  0  0  0  0  0  0  0  0  0
    7.2641   -5.5805    0.0000 C   0  0  0  0  0  0  0  0  0  0  0  0
    8.1301   -5.0805    0.0000 C   0  0  0  0  0  0  0  0  0  0  0  0
    9.7962   -2.8431    0.0000 H   0  0  0  0  0  0  0  0  0  0  0  0
   10.6662   -2.4685    0.0000 H   0  0  0  0  0  0  0  0  0  0  0  0
   10.7655   -1.5238    0.0000 H   0  0  0  0  0  0  0  0  0  0  0  0
    8.1516   -1.7638    0.0000 H   0  0  0  0  0  0  0  0  0  0  0  0
    7.4524    0.2759    0.0000 H   0  0  0  0  0  0  0  0  0  0  0  0
    8.2016   -3.1055    0.0000 H   0  0  0  0  0  0  0  0  0  0  0  0
    6.1356   -1.5242    0.0000 H   0  0  0  0  0  0  0  0  0  0  0  0
    6.9472   -1.3517    0.0000 H   0  0  0  0  0  0  0  0  0  0  0  0
    5.5645   -1.1997    0.0000 H   0  0  0  0  0  0  0  0  0  0  0  0
    5.5718    1.0306    0.0000 H   0  0  0  0  0  0  0  0  0  0  0  0
    5.0166    0.4140    0.0000 H   0  0  0  0  0  0  0  0  0  0  0  0
    6.2238    3.1932    0.0000 H   0  0  0  0  0  0  0  0  0  0  0  0
    6.1815    1.7781    0.0000 H   0  0  0  0  0  0  0  0  0  0  0  0
    5.7386    4.4137    0.0000 H   0  0  0  0  0  0  0  0  0  0  0  0
    5.8220    3.6210    0.0000 H   0  0  0  0  0  0  0  0  0  0  0  0
    7.7917    2.7440    0.0000 H   0  0  0  0  0  0  0  0  0  0  0  0
    8.4365    3.2125    0.0000 H   0  0  0  0  0  0  0  0  0  0  0  0
    6.7026    5.5991    0.0000 H   0  0  0  0  0  0  0  0  0  0  0  0
    6.0578    5.1306    0.0000 H   0  0  0  0  0  0  0  0  0  0  0  0
    8.7557    3.9294    0.0000 H   0  0  0  0  0  0  0  0  0  0  0  0
    8.6724    4.7221    0.0000 H   0  0  0  0  0  0  0  0  0  0  0  0
    8.2112    5.3569    0.0000 H   0  0  0  0  0  0  0  0  0  0  0  0
    7.4830    5.6811    0.0000 H   0  0  0  0  0  0  0  0  0  0  0  0
    8.8605   -4.5854    0.0000 H   0  0  0  0  0  0  0  0  0  0  0  0
    9.8415   -4.1486    0.0000 H   0  0  0  0  0  0  0  0  0  0  0  0
   11.4573   -0.1606    0.0000 H   0  0  0  0  0  0  0  0  0  0  0  0
    5.1870    1.6735    0.0000 H   0  0  0  0  0  0  0  0  0  0  0  0
    6.0690   -2.2705    0.0000 H   0  0  0  0  0  0  0  0  0  0  0  0
    2.9132   -1.4259    0.0000 H   0  0  0  0  0  0  0  0  0  0  0  0
    4.5841    5.9450    0.0000 H   0  0  0  0  0  0  0  0  0  0  0  0
    3.7181    6.0821    0.0000 H   0  0  0  0  0  0  0  0  0  0  0  0
    3.5810    5.2161    0.0000 H   0  0  0  0  0  0  0  0  0  0  0  0
    5.8438    4.8577    0.0000 H   0  0  0  0  0  0  0  0  0  0  0  0
    5.9809    5.7237    0.0000 H   0  0  0  0  0  0  0  0  0  0  0  0
    5.1149    5.8609    0.0000 H   0  0  0  0  0  0  0  0  0  0  0  0
    3.4969    4.6853    0.0000 H   0  0  0  0  0  0  0  0  0  0  0  0
    3.3597    3.8193    0.0000 H   0  0  0  0  0  0  0  0  0  0  0  0
    4.2257    3.6821    0.0000 H   0  0  0  0  0  0  0  0  0  0  0  0
    2.9132   -4.7352    0.0000 H   0  0  0  0  0  0  0  0  0  0  0  0
    1.4643   -2.2476    0.0000 H   0  0  0  0  0  0  0  0  0  0  0  0
    1.4643   -3.9134    0.0000 H   0  0  0  0  0  0  0  0  0  0  0  0
    7.2641   -2.9605    0.0000 H   0  0  0  0  0  0  0  0  0  0  0  0
    5.8612   -5.3905    0.0000 H   0  0  0  0  0  0  0  0  0  0  0  0
    8.6671   -3.7705    0.0000 H   0  0  0  0  0  0  0  0  0  0  0  0
    7.2641   -6.2005    0.0000 H   0  0  0  0  0  0  0  0  0  0  0  0
    8.6671   -5.3905    0.0000 H   0  0  0  0  0  0  0  0  0  0  0  0
  1 16  1  0  0  0  0
  1 76  1  0  0  0  0
  2 16  2  0  0  0  0
 20  3  1  1  0  0  0
  3 31  1  0  0  0  0
  4 18  2  0  0  0  0
  5 24  2  0  0  0  0
  6 32  1  0  0  0  0
  6 35  1  0  0  0  0
  7 32  2  0  0  0  0
  8 12  1  0  0  0  0
  8 18  1  0  0  0  0
  8 54  1  0  0  0  0
  9 15  1  0  0  0  0
  9 21  1  0  0  0  0
  9 24  1  0  0  0  0
 23 10  1  1  0  0  0
 10 32  1  0  0  0  0
 10 77  1  0  0  0  0
 11 36  1  0  0  0  0
 11 37  2  0  0  0  0
 12 13  1  0  0  0  0
 12 14  1  0  0  0  0
 12 16  1  0  0  0  0
 13 14  1  0  0  0  0
 13 17  1  6  0  0  0
 13 51  1  0  0  0  0
 14 52  1  0  0  0  0
 14 53  1  0  0  0  0
 15 18  1  6  0  0  0
 15 19  1  0  0  0  0
 15 55  1  0  0  0  0
 17 30  2  0  0  0  0
 17 56  1  0  0  0  0
 19 20  1  0  0  0  0
 19 57  1  0  0  0  0
 19 58  1  0  0  0  0
 20 21  1  0  0  0  0
 20 59  1  0  0  0  0
 21 60  1  0  0  0  0
 21 61  1  0  0  0  0
 22 23  1  0  0  0  0
 22 25  1  0  0  0  0
 22 26  1  0  0  0  0
 22 62  1  0  0  0  0
 23 24  1  0  0  0  0
 23 63  1  0  0  0  0
 25 27  1  0  0  0  0
 25 64  1  0  0  0  0
 25 65  1  0  0  0  0
 26 28  1  0  0  0  0
 26 66  1  0  0  0  0
 26 67  1  0  0  0  0
 27 29  1  0  0  0  0
 27 68  1  0  0  0  0
 27 69  1  0  0  0  0
 28 29  1  0  0  0  0
 28 70  1  0  0  0  0
 28 71  1  0  0  0  0
 29 72  1  0  0  0  0
 29 73  1  0  0  0  0
 30 74  1  0  0  0  0
 30 75  1  0  0  0  0
 31 33  1  0  0  0  0
 31 34  2  0  0  0  0
 33 36  1  0  0  0  0
 33 38  2  0  0  0  0
 34 37  1  0  0  0  0
 34 78  1  0  0  0  0
 35 39  1  0  0  0  0
 35 40  1  0  0  0  0
 35 41  1  0  0  0  0
 36 42  2  0  0  0  0
 37 43  1  0  0  0  0
 38 44  1  0  0  0  0
 38 79  1  0  0  0  0
 39 80  1  0  0  0  0
 39 81  1  0  0  0  0
 39 82  1  0  0  0  0
 40 83  1  0  0  0  0
 40 84  1  0  0  0  0
 40 85  1  0  0  0  0
 41 86  1  0  0  0  0
 41 87  1  0  0  0  0
 41 88  1  0  0  0  0
 42 45  1  0  0  0  0
 42 89  1  0  0  0  0
 43 46  2  0  0  0  0
 43 47  1  0  0  0  0
 44 45  2  0  0  0  0
 44 90  1  0  0  0  0
 45 91  1  0  0  0  0
 46 48  1  0  0  0  0
 46 92  1  0  0  0  0
 47 49  2  0  0  0  0
 47 93  1  0  0  0  0
 48 50  2  0  0  0  0
 48 94  1  0  0  0  0
 49 50  1  0  0  0  0
 49 95  1  0  0  0  0
 50 96  1  0  0  0  0
M  END
> <PUBCHEM_COMPOUND_CID>
500650
> <PUBCHEM_COMPOUND_CANONICALIZED>
1
> <PUBCHEM_CACTVS_COMPLEXITY>
1260
> <PUBCHEM_CACTVS_HBOND_ACCEPTOR>
8
> <PUBCHEM_CACTVS_HBOND_DONOR>
3
> <PUBCHEM_CACTVS_ROTATABLE_BOND>
12
> <PUBCHEM_CACTVS_SUBSKEYS>
AAADcfB/uAAAAAAAAAAAAAAAGAAAAWAAAAA8YMEAAAAAAACx9AAAHgAQCAAADfzhngYyzvPIFgCoAyXyXACCiCAhIiAImKG+bJkOZvLEsbufeCjm1hnY6Ae6yeCOAAAAAAACAAAAAAAAAAQAAAAAAAAAAA==
> <PUBCHEM_IUPAC_OPENEYE_NAME>
(2R)-1-[[(2S,4R)-1-[(2S)-2-(tert-butoxycarbonylamino)-2-cyclohexyl-acetyl]-4-[(2-phenyl-4-quinolyl)oxy]pyrrolidine-2-carbonyl]amino]-2-vinyl-cyclopropanecarboxylic acid
> <PUBCHEM_IUPAC_CAS_NAME>
(2R)-1-[[[(2S,4R)-1-[(2S)-2-cyclohexyl-2-[[(2-methylpropan-2-yl)oxy-oxomethyl]amino]-1-oxoethyl]-4-[(2-phenyl-4-quinolinyl)oxy]-2-pyrrolidinyl]-oxomethyl]amino]-2-ethenyl-1-cyclopropanecarboxylic acid
> <PUBCHEM_IUPAC_NAME_MARKUP>
(2<I>R</I>)-1-[[(2<I>S</I>,4<I>R</I>)-1-[(2<I>S</I>)-2-cyclohexyl-2-[(2-methylpropan-2-yl)oxycarbonylamino]acetyl]-4-(2-phenylquinolin-4-yl)oxypyrrolidine-2-carbonyl]amino]-2-ethenylcyclopropane-1-carboxylic acid
> <PUBCHEM_IUPAC_NAME>
(2R)-1-[[(2S,4R)-1-[(2S)-2-cyclohexyl-2-[(2-methylpropan-2-yl)oxycarbonylamino]acetyl]-4-(2-phenylquinolin-4-yl)oxypyrrolidine-2-carbonyl]amino]-2-ethenylcyclopropane-1-carboxylic acid
> <PUBCHEM_IUPAC_SYSTEMATIC_NAME>
(2R)-1-[[(2S,4R)-1-[(2S)-2-cyclohexyl-2-[(2-methylpropan-2-yl)oxycarbonylamino]ethanoyl]-4-(2-phenylquinolin-4-yl)oxy-pyrrolidin-2-yl]carbonylamino]-2-ethenyl-cyclopropane-1-carboxylic acid
> <PUBCHEM_IUPAC_TRADITIONAL_NAME>
(2R)-1-[[(2S,4R)-1-[(2S)-2-(tert-butoxycarbonylamino)-2-cyclohexyl-acetyl]-4-[(2-phenyl-4-quinolyl)oxy]prolyl]amino]-2-vinyl-cyclopropanecarboxylic acid
> <PUBCHEM_IUPAC_INCHI>
InChI=1S/C39H46N4O7/c1-5-26-22-39(26,36(46)47)42-34(44)31-20-27(49-32-21-30(24-14-8-6-9-15-24)40-29-19-13-12-18-28(29)32)23-43(31)35(45)33(25-16-10-7-11-17-25)41-37(48)50-38(2,3)4/h5-6,8-9,12-15,18-19,21,25-27,31,33H,1,7,10-11,16-17,20,22-23H2,2-4H3,(H,41,48)(H,42,44)(H,46,47)/t26-,27+,31-,33-,39?/m0/s1
> <PUBCHEM_IUPAC_INCHIKEY>
LNVHRAPHRVVODD-KQIHZTOOSA-N
> <PUBCHEM_XLOGP3_AA>
6.5
> <PUBCHEM_EXACT_MASS>
682.33664982
> <PUBCHEM_MOLECULAR_FORMULA>
C39H46N4O7
> <PUBCHEM_MOLECULAR_WEIGHT>
682.8
> <PUBCHEM_OPENEYE_CAN_SMILES>
CC(C)(C)OC(=O)NC(C1CCCCC1)C(=O)N2CC(CC2C(=O)NC3(CC3C=C)C(=O)O)OC4=CC(=NC5=CC=CC=C54)C6=CC=CC=C6
> <PUBCHEM_OPENEYE_ISO_SMILES>
CC(C)(C)OC(=O)N[C@@H](C1CCCCC1)C(=O)N2C[C@@H](C[C@H]2C(=O)NC3(C[C@@H]3C=C)C(=O)O)OC4=CC(=NC5=CC=CC=C54)C6=CC=CC=C6
> <PUBCHEM_CACTVS_TPSA>
147
> <PUBCHEM_MONOISOTOPIC_WEIGHT>
682.33664982
> <PUBCHEM_TOTAL_CHARGE>
0
> <PUBCHEM_HEAVY_ATOM_COUNT>
50
> <PUBCHEM_ATOM_DEF_STEREO_COUNT>
4
> <PUBCHEM_ATOM_UDEF_STEREO_COUNT>
1
> <PUBCHEM_BOND_DEF_STEREO_COUNT>
0
> <PUBCHEM_BOND_UDEF_STEREO_COUNT>
0
> <PUBCHEM_ISOTOPIC_ATOM_COUNT>
0
> <PUBCHEM_COMPONENT_COUNT>
1
> <PUBCHEM_CACTVS_TAUTO_COUNT>
-1
> <PUBCHEM_COORDINATE_TYPE>
1
5
255
> <PUBCHEM_BONDANNOTATIONS>
23  10  5
11  36  8
11  37  8
12  16  3
13  17  6
15  18  6
20  3  5
31  33  8
31  34  8
33  36  8
33  38  8
34  37  8
36  42  8
38  44  8
42  45  8
43  46  8
43  47  8
44  45  8
46  48  8
47  49  8
48  50  8
49  50  8
$$$$
