500718
  -OEChem-10302200282D
 96100  0     1  0  0  0  0  0999 V2000
   12.6438   -1.5678    0.0000 O   0  0  0  0  0  0  0  0  0  0  0  0
   11.0615   -2.2723    0.0000 O   0  0  0  0  0  0  0  0  0  0  0  0
    6.3981   -0.2635    0.0000 O   0  0  0  0  0  0  0  0  0  0  0  0
   10.4291    1.2774    0.0000 O   0  0  0  0  0  0  0  0  0  0  0  0
    9.7480    2.4570    0.0000 O   0  0  0  0  0  0  0  0  0  0  0  0
    5.5889    3.7614    0.0000 O   0  0  0  0  0  0  0  0  0  0  0  0
    6.9902    4.7795    0.0000 O   0  0  0  0  0  0  0  0  0  0  0  0
    2.8680   -3.2877    0.0000 O   0  0  0  0  0  0  0  0  0  0  0  0
   10.2480   -0.4452    0.0000 N   0  0  0  0  0  0  0  0  0  0  0  0
    8.3468    1.4389    0.0000 N   0  0  0  0  0  0  0  0  0  0  0  0
    7.1712    3.0570    0.0000 N   0  0  0  0  0  0  0  0  0  0  0  0
    6.3981   -3.2635    0.0000 N   0  0  0  0  0  0  0  0  0  0  0  0
    9.2128   -4.4659    0.0000 N   0  0  0  0  0  0  0  0  0  0  0  0
    9.7128   -3.5999    0.0000 N   0  0  0  0  0  0  0  0  0  0  0  0
   11.2426   -0.5497    0.0000 C   0  0  3  0  0  0  0  0  0  0  0  0
   12.1561   -0.1430    0.0000 C   0  0  2  0  0  0  0  0  0  0  0  0
   11.3471    0.4448    0.0000 C   0  0  0  0  0  0  0  0  0  0  0  0
   11.6493   -1.4632    0.0000 C   0  0  0  0  0  0  0  0  0  0  0  0
   13.1506   -0.2475    0.0000 C   0  0  0  0  0  0  0  0  0  0  0  0
    8.8468    0.5729    0.0000 C   0  0  2  0  0  0  0  0  0  0  0  0
    9.8413    0.4684    0.0000 C   0  0  0  0  0  0  0  0  0  0  0  0
    8.1776   -0.1702    0.0000 C   0  0  0  0  0  0  0  0  0  0  0  0
    7.2641    0.2365    0.0000 C   0  0  2  0  0  0  0  0  0  0  0  0
    7.3686    1.2310    0.0000 C   0  0  0  0  0  0  0  0  0  0  0  0
    8.7535    2.3525    0.0000 C   0  0  0  0  0  0  0  0  0  0  0  0
   13.7384    0.5615    0.0000 C   0  0  0  0  0  0  0  0  0  0  0  0
    8.1657    3.1615    0.0000 C   0  0  2  0  0  0  0  0  0  0  0  0
    8.5725    4.0750    0.0000 C   0  0  0  0  0  0  0  0  0  0  0  0
    8.9792    4.9886    0.0000 C   0  0  0  0  0  0  0  0  0  0  0  0
    7.6589    4.4818    0.0000 C   0  0  0  0  0  0  0  0  0  0  0  0
    9.4860    3.6683    0.0000 C   0  0  0  0  0  0  0  0  0  0  0  0
    6.3981   -1.2635    0.0000 C   0  0  0  0  0  0  0  0  0  0  0  0
    6.5834    3.8660    0.0000 C   0  0  0  0  0  0  0  0  0  0  0  0
    5.5320   -1.7635    0.0000 C   0  0  0  0  0  0  0  0  0  0  0  0
    7.2641   -1.7635    0.0000 C   0  0  0  0  0  0  0  0  0  0  0  0
    5.5320   -2.7635    0.0000 C   0  0  0  0  0  0  0  0  0  0  0  0
    7.2641   -2.7635    0.0000 C   0  0  0  0  0  0  0  0  0  0  0  0
    4.6381   -1.2288    0.0000 C   0  0  0  0  0  0  0  0  0  0  0  0
    5.0011    4.5705    0.0000 C   0  0  0  0  0  0  0  0  0  0  0  0
    4.6381   -3.2982    0.0000 C   0  0  0  0  0  0  0  0  0  0  0  0
    8.1301   -3.2635    0.0000 C   0  0  0  0  0  0  0  0  0  0  0  0
    3.7320   -1.7427    0.0000 C   0  0  0  0  0  0  0  0  0  0  0  0
    3.7320   -2.7843    0.0000 C   0  0  0  0  0  0  0  0  0  0  0  0
    4.4133    5.3795    0.0000 C   0  0  0  0  0  0  0  0  0  0  0  0
    4.1921    3.9827    0.0000 C   0  0  0  0  0  0  0  0  0  0  0  0
    5.8101    5.1582    0.0000 C   0  0  0  0  0  0  0  0  0  0  0  0
    8.2346   -4.2580    0.0000 C   0  0  0  0  0  0  0  0  0  0  0  0
    9.0437   -2.8568    0.0000 C   0  0  0  0  0  0  0  0  0  0  0  0
    9.6195   -5.3795    0.0000 C   0  0  0  0  0  0  0  0  0  0  0  0
    2.0000   -2.7910    0.0000 C   0  0  0  0  0  0  0  0  0  0  0  0
   12.3783    0.4359    0.0000 H   0  0  0  0  0  0  0  0  0  0  0  0
   11.6189    1.0021    0.0000 H   0  0  0  0  0  0  0  0  0  0  0  0
   10.7511    0.6157    0.0000 H   0  0  0  0  0  0  0  0  0  0  0  0
    9.8836   -0.9468    0.0000 H   0  0  0  0  0  0  0  0  0  0  0  0
   13.4028   -0.8139    0.0000 H   0  0  0  0  0  0  0  0  0  0  0  0
    9.1844    1.0929    0.0000 H   0  0  0  0  0  0  0  0  0  0  0  0
    7.8676   -0.7072    0.0000 H   0  0  0  0  0  0  0  0  0  0  0  0
    8.6792   -0.5347    0.0000 H   0  0  0  0  0  0  0  0  0  0  0  0
    6.7441    0.5742    0.0000 H   0  0  0  0  0  0  0  0  0  0  0  0
    7.3038    1.8476    0.0000 H   0  0  0  0  0  0  0  0  0  0  0  0
    6.7486    1.2310    0.0000 H   0  0  0  0  0  0  0  0  0  0  0  0
   14.3550    0.4967    0.0000 H   0  0  0  0  0  0  0  0  0  0  0  0
   13.4862    1.1279    0.0000 H   0  0  0  0  0  0  0  0  0  0  0  0
    7.8013    3.6631    0.0000 H   0  0  0  0  0  0  0  0  0  0  0  0
   12.8960   -2.1342    0.0000 H   0  0  0  0  0  0  0  0  0  0  0  0
    6.9190    2.4906    0.0000 H   0  0  0  0  0  0  0  0  0  0  0  0
    9.5456    4.7364    0.0000 H   0  0  0  0  0  0  0  0  0  0  0  0
    9.2314    5.5550    0.0000 H   0  0  0  0  0  0  0  0  0  0  0  0
    8.4128    5.2408    0.0000 H   0  0  0  0  0  0  0  0  0  0  0  0
    7.9111    5.0482    0.0000 H   0  0  0  0  0  0  0  0  0  0  0  0
    7.0925    4.7340    0.0000 H   0  0  0  0  0  0  0  0  0  0  0  0
    7.4067    3.9154    0.0000 H   0  0  0  0  0  0  0  0  0  0  0  0
    9.2338    3.1019    0.0000 H   0  0  0  0  0  0  0  0  0  0  0  0
   10.0524    3.4161    0.0000 H   0  0  0  0  0  0  0  0  0  0  0  0
    9.7382    4.2347    0.0000 H   0  0  0  0  0  0  0  0  0  0  0  0
    7.8010   -1.4535    0.0000 H   0  0  0  0  0  0  0  0  0  0  0  0
    4.6453   -0.6089    0.0000 H   0  0  0  0  0  0  0  0  0  0  0  0
    4.6453   -3.9181    0.0000 H   0  0  0  0  0  0  0  0  0  0  0  0
    3.1963   -1.4306    0.0000 H   0  0  0  0  0  0  0  0  0  0  0  0
    4.9149    5.7439    0.0000 H   0  0  0  0  0  0  0  0  0  0  0  0
    4.0489    5.8811    0.0000 H   0  0  0  0  0  0  0  0  0  0  0  0
    3.9117    5.0151    0.0000 H   0  0  0  0  0  0  0  0  0  0  0  0
    3.8277    4.4843    0.0000 H   0  0  0  0  0  0  0  0  0  0  0  0
    3.6905    3.6183    0.0000 H   0  0  0  0  0  0  0  0  0  0  0  0
    4.5565    3.4811    0.0000 H   0  0  0  0  0  0  0  0  0  0  0  0
    6.1746    4.6567    0.0000 H   0  0  0  0  0  0  0  0  0  0  0  0
    6.3117    5.5227    0.0000 H   0  0  0  0  0  0  0  0  0  0  0  0
    5.4457    5.6598    0.0000 H   0  0  0  0  0  0  0  0  0  0  0  0
    7.7739   -4.6729    0.0000 H   0  0  0  0  0  0  0  0  0  0  0  0
    9.1726   -2.2503    0.0000 H   0  0  0  0  0  0  0  0  0  0  0  0
    9.0531   -5.6317    0.0000 H   0  0  0  0  0  0  0  0  0  0  0  0
    9.8717   -5.9459    0.0000 H   0  0  0  0  0  0  0  0  0  0  0  0
   10.1859   -5.1273    0.0000 H   0  0  0  0  0  0  0  0  0  0  0  0
    2.3079   -2.2529    0.0000 H   0  0  0  0  0  0  0  0  0  0  0  0
    1.4619   -2.4831    0.0000 H   0  0  0  0  0  0  0  0  0  0  0  0
    1.6921   -3.3291    0.0000 H   0  0  0  0  0  0  0  0  0  0  0  0
  1 18  1  0  0  0  0
  1 65  1  0  0  0  0
  2 18  2  0  0  0  0
 23  3  1  1  0  0  0
  3 32  1  0  0  0  0
  4 21  2  0  0  0  0
  5 25  2  0  0  0  0
  6 33  1  0  0  0  0
  6 39  1  0  0  0  0
  7 33  2  0  0  0  0
  8 43  1  0  0  0  0
  8 50  1  0  0  0  0
  9 15  1  0  0  0  0
  9 21  1  0  0  0  0
  9 54  1  0  0  0  0
 10 20  1  0  0  0  0
 10 24  1  0  0  0  0
 10 25  1  0  0  0  0
 27 11  1  1  0  0  0
 11 33  1  0  0  0  0
 11 66  1  0  0  0  0
 12 36  1  0  0  0  0
 12 37  2  0  0  0  0
 13 14  1  0  0  0  0
 13 47  1  0  0  0  0
 13 49  1  0  0  0  0
 14 48  2  0  0  0  0
 15 16  1  0  0  0  0
 15 17  1  0  0  0  0
 15 18  1  0  0  0  0
 16 17  1  0  0  0  0
 16 19  1  6  0  0  0
 16 51  1  0  0  0  0
 17 52  1  0  0  0  0
 17 53  1  0  0  0  0
 19 26  2  0  0  0  0
 19 55  1  0  0  0  0
 20 21  1  6  0  0  0
 20 22  1  0  0  0  0
 20 56  1  0  0  0  0
 22 23  1  0  0  0  0
 22 57  1  0  0  0  0
 22 58  1  0  0  0  0
 23 24  1  0  0  0  0
 23 59  1  0  0  0  0
 24 60  1  0  0  0  0
 24 61  1  0  0  0  0
 25 27  1  0  0  0  0
 26 62  1  0  0  0  0
 26 63  1  0  0  0  0
 27 28  1  0  0  0  0
 27 64  1  0  0  0  0
 28 29  1  0  0  0  0
 28 30  1  0  0  0  0
 28 31  1  0  0  0  0
 29 67  1  0  0  0  0
 29 68  1  0  0  0  0
 29 69  1  0  0  0  0
 30 70  1  0  0  0  0
 30 71  1  0  0  0  0
 30 72  1  0  0  0  0
 31 73  1  0  0  0  0
 31 74  1  0  0  0  0
 31 75  1  0  0  0  0
 32 34  1  0  0  0  0
 32 35  2  0  0  0  0
 34 36  2  0  0  0  0
 34 38  1  0  0  0  0
 35 37  1  0  0  0  0
 35 76  1  0  0  0  0
 36 40  1  0  0  0  0
 37 41  1  0  0  0  0
 38 42  2  0  0  0  0
 38 77  1  0  0  0  0
 39 44  1  0  0  0  0
 39 45  1  0  0  0  0
 39 46  1  0  0  0  0
 40 43  2  0  0  0  0
 40 78  1  0  0  0  0
 41 47  2  0  0  0  0
 41 48  1  0  0  0  0
 42 43  1  0  0  0  0
 42 79  1  0  0  0  0
 44 80  1  0  0  0  0
 44 81  1  0  0  0  0
 44 82  1  0  0  0  0
 45 83  1  0  0  0  0
 45 84  1  0  0  0  0
 45 85  1  0  0  0  0
 46 86  1  0  0  0  0
 46 87  1  0  0  0  0
 46 88  1  0  0  0  0
 47 89  1  0  0  0  0
 48 90  1  0  0  0  0
 49 91  1  0  0  0  0
 49 92  1  0  0  0  0
 49 93  1  0  0  0  0
 50 94  1  0  0  0  0
 50 95  1  0  0  0  0
 50 96  1  0  0  0  0
M  END
> <PUBCHEM_COMPOUND_CID>
500718
> <PUBCHEM_COMPOUND_CANONICALIZED>
1
> <PUBCHEM_CACTVS_COMPLEXITY>
1300
> <PUBCHEM_CACTVS_HBOND_ACCEPTOR>
10
> <PUBCHEM_CACTVS_HBOND_DONOR>
3
> <PUBCHEM_CACTVS_ROTATABLE_BOND>
13
> <PUBCHEM_CACTVS_SUBSKEYS>
AAADcfB/vAAAAAAAAAAAAAAAGAAAAWLAAAA8QAAAAAAAAACx/AAAHgAYCAAAD/zhngY+zvPIFgCqAzX3XACSjCAxoiAY2KG+bJkOZvLE8fuf/Cjm3hnY6Ae68e8PIAAAAgACAABAAAAEAAQAAAAAAAAAAA==
> <PUBCHEM_IUPAC_OPENEYE_NAME>
(2R)-1-[[(2S,4R)-1-[(2S)-2-(tert-butoxycarbonylamino)-3,3-dimethyl-butanoyl]-4-[[7-methoxy-2-(1-methylpyrazol-4-yl)-4-quinolyl]oxy]pyrrolidine-2-carbonyl]amino]-2-vinyl-cyclopropanecarboxylic acid
> <PUBCHEM_IUPAC_CAS_NAME>
(2R)-1-[[[(2S,4R)-1-[(2S)-3,3-dimethyl-2-[[(2-methylpropan-2-yl)oxy-oxomethyl]amino]-1-oxobutyl]-4-[[7-methoxy-2-(1-methyl-4-pyrazolyl)-4-quinolinyl]oxy]-2-pyrrolidinyl]-oxomethyl]amino]-2-ethenyl-1-cyclopropanecarboxylic acid
> <PUBCHEM_IUPAC_NAME_MARKUP>
(2<I>R</I>)-1-[[(2<I>S</I>,4<I>R</I>)-1-[(2<I>S</I>)-3,3-dimethyl-2-[(2-methylpropan-2-yl)oxycarbonylamino]butanoyl]-4-[7-methoxy-2-(1-methylpyrazol-4-yl)quinolin-4-yl]oxypyrrolidine-2-carbonyl]amino]-2-ethenylcyclopropane-1-carboxylic acid
> <PUBCHEM_IUPAC_NAME>
(2R)-1-[[(2S,4R)-1-[(2S)-3,3-dimethyl-2-[(2-methylpropan-2-yl)oxycarbonylamino]butanoyl]-4-[7-methoxy-2-(1-methylpyrazol-4-yl)quinolin-4-yl]oxypyrrolidine-2-carbonyl]amino]-2-ethenylcyclopropane-1-carboxylic acid
> <PUBCHEM_IUPAC_SYSTEMATIC_NAME>
(2R)-1-[[(2S,4R)-1-[(2S)-3,3-dimethyl-2-[(2-methylpropan-2-yl)oxycarbonylamino]butanoyl]-4-[7-methoxy-2-(1-methylpyrazol-4-yl)quinolin-4-yl]oxy-pyrrolidin-2-yl]carbonylamino]-2-ethenyl-cyclopropane-1-carboxylic acid
> <PUBCHEM_IUPAC_TRADITIONAL_NAME>
(2R)-1-[[(2S,4R)-1-[(2S)-2-(tert-butoxycarbonylamino)-3,3-dimethyl-butanoyl]-4-[[7-methoxy-2-(1-methylpyrazol-4-yl)-4-quinolyl]oxy]prolyl]amino]-2-vinyl-cyclopropanecarboxylic acid
> <PUBCHEM_IUPAC_INCHI>
InChI=1S/C36H46N6O8/c1-10-21-16-36(21,32(45)46)40-30(43)27-14-23(19-42(27)31(44)29(34(2,3)4)39-33(47)50-35(5,6)7)49-28-15-25(20-17-37-41(8)18-20)38-26-13-22(48-9)11-12-24(26)28/h10-13,15,17-18,21,23,27,29H,1,14,16,19H2,2-9H3,(H,39,47)(H,40,43)(H,45,46)/t21-,23+,27-,29+,36?/m0/s1
> <PUBCHEM_IUPAC_INCHIKEY>
WLCKBZLATQQCBK-STIHSOKBSA-N
> <PUBCHEM_XLOGP3_AA>
4.2
> <PUBCHEM_EXACT_MASS>
690.33771245
> <PUBCHEM_MOLECULAR_FORMULA>
C36H46N6O8
> <PUBCHEM_MOLECULAR_WEIGHT>
690.8
> <PUBCHEM_OPENEYE_CAN_SMILES>
CC(C)(C)C(C(=O)N1CC(CC1C(=O)NC2(CC2C=C)C(=O)O)OC3=CC(=NC4=C3C=CC(=C4)OC)C5=CN(N=C5)C)NC(=O)OC(C)(C)C
> <PUBCHEM_OPENEYE_ISO_SMILES>
CC(C)(C)[C@@H](C(=O)N1C[C@@H](C[C@H]1C(=O)NC2(C[C@@H]2C=C)C(=O)O)OC3=CC(=NC4=C3C=CC(=C4)OC)C5=CN(N=C5)C)NC(=O)OC(C)(C)C
> <PUBCHEM_CACTVS_TPSA>
174
> <PUBCHEM_MONOISOTOPIC_WEIGHT>
690.33771245
> <PUBCHEM_TOTAL_CHARGE>
0
> <PUBCHEM_HEAVY_ATOM_COUNT>
50
> <PUBCHEM_ATOM_DEF_STEREO_COUNT>
4
> <PUBCHEM_ATOM_UDEF_STEREO_COUNT>
1
> <PUBCHEM_BOND_DEF_STEREO_COUNT>
0
> <PUBCHEM_BOND_UDEF_STEREO_COUNT>
0
> <PUBCHEM_ISOTOPIC_ATOM_COUNT>
0
> <PUBCHEM_COMPONENT_COUNT>
1
> <PUBCHEM_CACTVS_TAUTO_COUNT>
-1
> <PUBCHEM_COORDINATE_TYPE>
1
5
255
> <PUBCHEM_BONDANNOTATIONS>
27  11  5
12  36  8
12  37  8
13  14  8
13  47  8
14  48  8
15  18  3
16  19  6
20  21  6
23  3  5
32  34  8
32  35  8
34  36  8
34  38  8
35  37  8
36  40  8
38  42  8
40  43  8
41  47  8
41  48  8
42  43  8
$$$$
