500700
  -OEChem-10302200282D
 94 98  0     1  0  0  0  0  0999 V2000
   10.9118   -2.0246    0.0000 O   0  0  0  0  0  0  0  0  0  0  0  0
    9.3295   -2.7290    0.0000 O   0  0  0  0  0  0  0  0  0  0  0  0
    4.6660   -0.7203    0.0000 O   0  0  0  0  0  0  0  0  0  0  0  0
    8.6970    0.8206    0.0000 O   0  0  0  0  0  0  0  0  0  0  0  0
    8.0160    2.0002    0.0000 O   0  0  0  0  0  0  0  0  0  0  0  0
    3.8569    3.3047    0.0000 O   0  0  0  0  0  0  0  0  0  0  0  0
    5.2581    4.3228    0.0000 O   0  0  0  0  0  0  0  0  0  0  0  0
    8.5160   -0.9019    0.0000 N   0  0  0  0  0  0  0  0  0  0  0  0
    6.6147    0.9822    0.0000 N   0  0  0  0  0  0  0  0  0  0  0  0
    5.4392    2.6002    0.0000 N   0  0  0  0  0  0  0  0  0  0  0  0
    6.3981   -3.7203    0.0000 N   0  0  0  0  0  0  0  0  0  0  0  0
    4.6660   -3.7203    0.0000 N   0  0  0  0  0  0  0  0  0  0  0  0
    9.5105   -1.0065    0.0000 C   0  0  3  0  0  0  0  0  0  0  0  0
   10.4241   -0.5997    0.0000 C   0  0  2  0  0  0  0  0  0  0  0  0
    9.6150   -0.0120    0.0000 C   0  0  0  0  0  0  0  0  0  0  0  0
    9.9172   -1.9200    0.0000 C   0  0  0  0  0  0  0  0  0  0  0  0
   11.4186   -0.7043    0.0000 C   0  0  0  0  0  0  0  0  0  0  0  0
    7.1147    0.1161    0.0000 C   0  0  2  0  0  0  0  0  0  0  0  0
    8.1093    0.0116    0.0000 C   0  0  0  0  0  0  0  0  0  0  0  0
    6.4456   -0.6270    0.0000 C   0  0  0  0  0  0  0  0  0  0  0  0
    5.5321   -0.2203    0.0000 C   0  0  2  0  0  0  0  0  0  0  0  0
    5.6366    0.7742    0.0000 C   0  0  0  0  0  0  0  0  0  0  0  0
    7.0215    1.8957    0.0000 C   0  0  0  0  0  0  0  0  0  0  0  0
   12.0064    0.1048    0.0000 C   0  0  0  0  0  0  0  0  0  0  0  0
    6.4337    2.7047    0.0000 C   0  0  2  0  0  0  0  0  0  0  0  0
    6.8404    3.6183    0.0000 C   0  0  0  0  0  0  0  0  0  0  0  0
    7.2472    4.5318    0.0000 C   0  0  0  0  0  0  0  0  0  0  0  0
    5.9269    4.0250    0.0000 C   0  0  0  0  0  0  0  0  0  0  0  0
    7.7540    3.2115    0.0000 C   0  0  0  0  0  0  0  0  0  0  0  0
    4.6660   -1.7203    0.0000 C   0  0  0  0  0  0  0  0  0  0  0  0
    3.8000   -2.2203    0.0000 C   0  0  0  0  0  0  0  0  0  0  0  0
    5.5321   -2.2203    0.0000 C   0  0  0  0  0  0  0  0  0  0  0  0
    4.8514    3.4092    0.0000 C   0  0  0  0  0  0  0  0  0  0  0  0
    5.5321   -3.2203    0.0000 C   0  0  0  0  0  0  0  0  0  0  0  0
    7.3116   -3.3135    0.0000 C   0  0  0  0  0  0  0  0  0  0  0  0
    6.5026   -4.7148    0.0000 C   0  0  0  0  0  0  0  0  0  0  0  0
    7.9808   -4.0567    0.0000 C   0  0  0  0  0  0  0  0  0  0  0  0
    7.4808   -4.9227    0.0000 C   0  0  0  0  0  0  0  0  0  0  0  0
    3.8000   -3.2203    0.0000 C   0  0  0  0  0  0  0  0  0  0  0  0
    2.9061   -1.6856    0.0000 C   0  0  0  0  0  0  0  0  0  0  0  0
    3.2691    4.1137    0.0000 C   0  0  0  0  0  0  0  0  0  0  0  0
    2.9061   -3.7549    0.0000 C   0  0  0  0  0  0  0  0  0  0  0  0
    2.0000   -2.1995    0.0000 C   0  0  0  0  0  0  0  0  0  0  0  0
    2.0000   -3.2411    0.0000 C   0  0  0  0  0  0  0  0  0  0  0  0
    2.6813    4.9227    0.0000 C   0  0  0  0  0  0  0  0  0  0  0  0
    2.4601    3.5259    0.0000 C   0  0  0  0  0  0  0  0  0  0  0  0
    4.0781    4.7015    0.0000 C   0  0  0  0  0  0  0  0  0  0  0  0
   10.6462   -0.0209    0.0000 H   0  0  0  0  0  0  0  0  0  0  0  0
    9.8868    0.5453    0.0000 H   0  0  0  0  0  0  0  0  0  0  0  0
    9.0191    0.1589    0.0000 H   0  0  0  0  0  0  0  0  0  0  0  0
    8.1516   -1.4035    0.0000 H   0  0  0  0  0  0  0  0  0  0  0  0
   11.6708   -1.2707    0.0000 H   0  0  0  0  0  0  0  0  0  0  0  0
    7.4524    0.6361    0.0000 H   0  0  0  0  0  0  0  0  0  0  0  0
    6.1356   -1.1640    0.0000 H   0  0  0  0  0  0  0  0  0  0  0  0
    6.9472   -0.9914    0.0000 H   0  0  0  0  0  0  0  0  0  0  0  0
    5.5645   -0.8394    0.0000 H   0  0  0  0  0  0  0  0  0  0  0  0
    5.5718    1.3908    0.0000 H   0  0  0  0  0  0  0  0  0  0  0  0
    5.0166    0.7742    0.0000 H   0  0  0  0  0  0  0  0  0  0  0  0
   12.6230    0.0399    0.0000 H   0  0  0  0  0  0  0  0  0  0  0  0
   11.7542    0.6712    0.0000 H   0  0  0  0  0  0  0  0  0  0  0  0
    6.0693    3.2063    0.0000 H   0  0  0  0  0  0  0  0  0  0  0  0
   11.1640   -2.5909    0.0000 H   0  0  0  0  0  0  0  0  0  0  0  0
    5.1870    2.0338    0.0000 H   0  0  0  0  0  0  0  0  0  0  0  0
    7.8136    4.2796    0.0000 H   0  0  0  0  0  0  0  0  0  0  0  0
    7.4993    5.0982    0.0000 H   0  0  0  0  0  0  0  0  0  0  0  0
    6.6808    4.7840    0.0000 H   0  0  0  0  0  0  0  0  0  0  0  0
    6.1791    4.5914    0.0000 H   0  0  0  0  0  0  0  0  0  0  0  0
    5.3605    4.2772    0.0000 H   0  0  0  0  0  0  0  0  0  0  0  0
    5.6747    3.4586    0.0000 H   0  0  0  0  0  0  0  0  0  0  0  0
    7.5018    2.6451    0.0000 H   0  0  0  0  0  0  0  0  0  0  0  0
    8.3204    2.9594    0.0000 H   0  0  0  0  0  0  0  0  0  0  0  0
    8.0062    3.7779    0.0000 H   0  0  0  0  0  0  0  0  0  0  0  0
    6.0690   -1.9103    0.0000 H   0  0  0  0  0  0  0  0  0  0  0  0
    7.8132   -2.9491    0.0000 H   0  0  0  0  0  0  0  0  0  0  0  0
    7.0016   -2.7766    0.0000 H   0  0  0  0  0  0  0  0  0  0  0  0
    5.8826   -4.7148    0.0000 H   0  0  0  0  0  0  0  0  0  0  0  0
    6.4378   -5.3314    0.0000 H   0  0  0  0  0  0  0  0  0  0  0  0
    8.4824   -4.4211    0.0000 H   0  0  0  0  0  0  0  0  0  0  0  0
    8.3956   -3.5959    0.0000 H   0  0  0  0  0  0  0  0  0  0  0  0
    7.2892   -5.5124    0.0000 H   0  0  0  0  0  0  0  0  0  0  0  0
    8.0472   -5.1749    0.0000 H   0  0  0  0  0  0  0  0  0  0  0  0
    2.9132   -1.0657    0.0000 H   0  0  0  0  0  0  0  0  0  0  0  0
    2.9132   -4.3749    0.0000 H   0  0  0  0  0  0  0  0  0  0  0  0
    1.4643   -1.8874    0.0000 H   0  0  0  0  0  0  0  0  0  0  0  0
    1.4643   -3.5532    0.0000 H   0  0  0  0  0  0  0  0  0  0  0  0
    3.1829    5.2871    0.0000 H   0  0  0  0  0  0  0  0  0  0  0  0
    2.3169    5.4243    0.0000 H   0  0  0  0  0  0  0  0  0  0  0  0
    2.1797    4.5583    0.0000 H   0  0  0  0  0  0  0  0  0  0  0  0
    2.0956    4.0275    0.0000 H   0  0  0  0  0  0  0  0  0  0  0  0
    1.9585    3.1615    0.0000 H   0  0  0  0  0  0  0  0  0  0  0  0
    2.8245    3.0243    0.0000 H   0  0  0  0  0  0  0  0  0  0  0  0
    4.4425    4.1999    0.0000 H   0  0  0  0  0  0  0  0  0  0  0  0
    4.5797    5.0659    0.0000 H   0  0  0  0  0  0  0  0  0  0  0  0
    3.7137    5.2031    0.0000 H   0  0  0  0  0  0  0  0  0  0  0  0
  1 16  1  0  0  0  0
  1 62  1  0  0  0  0
  2 16  2  0  0  0  0
 21  3  1  1  0  0  0
  3 30  1  0  0  0  0
  4 19  2  0  0  0  0
  5 23  2  0  0  0  0
  6 33  1  0  0  0  0
  6 41  1  0  0  0  0
  7 33  2  0  0  0  0
  8 13  1  0  0  0  0
  8 19  1  0  0  0  0
  8 51  1  0  0  0  0
  9 18  1  0  0  0  0
  9 22  1  0  0  0  0
  9 23  1  0  0  0  0
 25 10  1  1  0  0  0
 10 33  1  0  0  0  0
 10 63  1  0  0  0  0
 11 34  1  0  0  0  0
 11 35  1  0  0  0  0
 11 36  1  0  0  0  0
 12 34  2  0  0  0  0
 12 39  1  0  0  0  0
 13 14  1  0  0  0  0
 13 15  1  0  0  0  0
 13 16  1  0  0  0  0
 14 15  1  0  0  0  0
 14 17  1  6  0  0  0
 14 48  1  0  0  0  0
 15 49  1  0  0  0  0
 15 50  1  0  0  0  0
 17 24  2  0  0  0  0
 17 52  1  0  0  0  0
 18 19  1  6  0  0  0
 18 20  1  0  0  0  0
 18 53  1  0  0  0  0
 20 21  1  0  0  0  0
 20 54  1  0  0  0  0
 20 55  1  0  0  0  0
 21 22  1  0  0  0  0
 21 56  1  0  0  0  0
 22 57  1  0  0  0  0
 22 58  1  0  0  0  0
 23 25  1  0  0  0  0
 24 59  1  0  0  0  0
 24 60  1  0  0  0  0
 25 26  1  0  0  0  0
 25 61  1  0  0  0  0
 26 27  1  0  0  0  0
 26 28  1  0  0  0  0
 26 29  1  0  0  0  0
 27 64  1  0  0  0  0
 27 65  1  0  0  0  0
 27 66  1  0  0  0  0
 28 67  1  0  0  0  0
 28 68  1  0  0  0  0
 28 69  1  0  0  0  0
 29 70  1  0  0  0  0
 29 71  1  0  0  0  0
 29 72  1  0  0  0  0
 30 31  1  0  0  0  0
 30 32  2  0  0  0  0
 31 39  1  0  0  0  0
 31 40  2  0  0  0  0
 32 34  1  0  0  0  0
 32 73  1  0  0  0  0
 35 37  1  0  0  0  0
 35 74  1  0  0  0  0
 35 75  1  0  0  0  0
 36 38  1  0  0  0  0
 36 76  1  0  0  0  0
 36 77  1  0  0  0  0
 37 38  1  0  0  0  0
 37 78  1  0  0  0  0
 37 79  1  0  0  0  0
 38 80  1  0  0  0  0
 38 81  1  0  0  0  0
 39 42  2  0  0  0  0
 40 43  1  0  0  0  0
 40 82  1  0  0  0  0
 41 45  1  0  0  0  0
 41 46  1  0  0  0  0
 41 47  1  0  0  0  0
 42 44  1  0  0  0  0
 42 83  1  0  0  0  0
 43 44  2  0  0  0  0
 43 84  1  0  0  0  0
 44 85  1  0  0  0  0
 45 86  1  0  0  0  0
 45 87  1  0  0  0  0
 45 88  1  0  0  0  0
 46 89  1  0  0  0  0
 46 90  1  0  0  0  0
 46 91  1  0  0  0  0
 47 92  1  0  0  0  0
 47 93  1  0  0  0  0
 47 94  1  0  0  0  0
M  END
> <PUBCHEM_COMPOUND_CID>
500700
> <PUBCHEM_COMPOUND_CANONICALIZED>
1
> <PUBCHEM_CACTVS_COMPLEXITY>
1210
> <PUBCHEM_CACTVS_HBOND_ACCEPTOR>
9
> <PUBCHEM_CACTVS_HBOND_DONOR>
3
> <PUBCHEM_CACTVS_ROTATABLE_BOND>
12
> <PUBCHEM_CACTVS_SUBSKEYS>
AAADcfB/uAAAAAAAAAAAAAAAGAAAAWLAAAA8QAAAAAAAAACx8AAAHgAQCAAAD/zhngYz/vPIFgCoAyfyfACCiCkhIiAJmKG+bJmOZvLEubufeCju1hvY6Ce6waAPAAAAAAACAAAAAAAAAAQAAAAAAAAAAA==
> <PUBCHEM_IUPAC_OPENEYE_NAME>
(2R)-1-[[(2S,4R)-1-[(2S)-2-(tert-butoxycarbonylamino)-3,3-dimethyl-butanoyl]-4-[(2-pyrrolidin-1-yl-4-quinolyl)oxy]pyrrolidine-2-carbonyl]amino]-2-vinyl-cyclopropanecarboxylic acid
> <PUBCHEM_IUPAC_CAS_NAME>
(2R)-1-[[[(2S,4R)-1-[(2S)-3,3-dimethyl-2-[[(2-methylpropan-2-yl)oxy-oxomethyl]amino]-1-oxobutyl]-4-[[2-(1-pyrrolidinyl)-4-quinolinyl]oxy]-2-pyrrolidinyl]-oxomethyl]amino]-2-ethenyl-1-cyclopropanecarboxylic acid
> <PUBCHEM_IUPAC_NAME_MARKUP>
(2<I>R</I>)-1-[[(2<I>S</I>,4<I>R</I>)-1-[(2<I>S</I>)-3,3-dimethyl-2-[(2-methylpropan-2-yl)oxycarbonylamino]butanoyl]-4-(2-pyrrolidin-1-ylquinolin-4-yl)oxypyrrolidine-2-carbonyl]amino]-2-ethenylcyclopropane-1-carboxylic acid
> <PUBCHEM_IUPAC_NAME>
(2R)-1-[[(2S,4R)-1-[(2S)-3,3-dimethyl-2-[(2-methylpropan-2-yl)oxycarbonylamino]butanoyl]-4-(2-pyrrolidin-1-ylquinolin-4-yl)oxypyrrolidine-2-carbonyl]amino]-2-ethenylcyclopropane-1-carboxylic acid
> <PUBCHEM_IUPAC_SYSTEMATIC_NAME>
(2R)-1-[[(2S,4R)-1-[(2S)-3,3-dimethyl-2-[(2-methylpropan-2-yl)oxycarbonylamino]butanoyl]-4-(2-pyrrolidin-1-ylquinolin-4-yl)oxy-pyrrolidin-2-yl]carbonylamino]-2-ethenyl-cyclopropane-1-carboxylic acid
> <PUBCHEM_IUPAC_TRADITIONAL_NAME>
(2R)-1-[[(2S,4R)-1-[(2S)-2-(tert-butoxycarbonylamino)-3,3-dimethyl-butanoyl]-4-[(2-pyrrolidino-4-quinolyl)oxy]prolyl]amino]-2-vinyl-cyclopropanecarboxylic acid
> <PUBCHEM_IUPAC_INCHI>
InChI=1S/C35H47N5O7/c1-8-21-19-35(21,31(43)44)38-29(41)25-17-22(20-40(25)30(42)28(33(2,3)4)37-32(45)47-34(5,6)7)46-26-18-27(39-15-11-12-16-39)36-24-14-10-9-13-23(24)26/h8-10,13-14,18,21-22,25,28H,1,11-12,15-17,19-20H2,2-7H3,(H,37,45)(H,38,41)(H,43,44)/t21-,22+,25-,28+,35?/m0/s1
> <PUBCHEM_IUPAC_INCHIKEY>
SAPKYOCBKQWVDO-NMARXOEHSA-N
> <PUBCHEM_XLOGP3_AA>
5.2
> <PUBCHEM_EXACT_MASS>
649.34754886
> <PUBCHEM_MOLECULAR_FORMULA>
C35H47N5O7
> <PUBCHEM_MOLECULAR_WEIGHT>
649.8
> <PUBCHEM_OPENEYE_CAN_SMILES>
CC(C)(C)C(C(=O)N1CC(CC1C(=O)NC2(CC2C=C)C(=O)O)OC3=CC(=NC4=CC=CC=C43)N5CCCC5)NC(=O)OC(C)(C)C
> <PUBCHEM_OPENEYE_ISO_SMILES>
CC(C)(C)[C@@H](C(=O)N1C[C@@H](C[C@H]1C(=O)NC2(C[C@@H]2C=C)C(=O)O)OC3=CC(=NC4=CC=CC=C43)N5CCCC5)NC(=O)OC(C)(C)C
> <PUBCHEM_CACTVS_TPSA>
150
> <PUBCHEM_MONOISOTOPIC_WEIGHT>
649.34754886
> <PUBCHEM_TOTAL_CHARGE>
0
> <PUBCHEM_HEAVY_ATOM_COUNT>
47
> <PUBCHEM_ATOM_DEF_STEREO_COUNT>
4
> <PUBCHEM_ATOM_UDEF_STEREO_COUNT>
1
> <PUBCHEM_BOND_DEF_STEREO_COUNT>
0
> <PUBCHEM_BOND_UDEF_STEREO_COUNT>
0
> <PUBCHEM_ISOTOPIC_ATOM_COUNT>
0
> <PUBCHEM_COMPONENT_COUNT>
1
> <PUBCHEM_CACTVS_TAUTO_COUNT>
-1
> <PUBCHEM_COORDINATE_TYPE>
1
5
255
> <PUBCHEM_BONDANNOTATIONS>
25  10  5
12  34  8
12  39  8
13  16  3
14  17  6
18  19  6
21  3  5
30  31  8
30  32  8
31  39  8
31  40  8
32  34  8
39  42  8
40  43  8
42  44  8
43  44  8
$$$$
