500735
  -OEChem-10302200282D
 88 91  0     1  0  0  0  0  0999 V2000
    9.9737    4.5497    0.0000 O   0  0  0  0  0  0  0  0  0  0  0  0
   10.1548    2.8271    0.0000 O   0  0  0  0  0  0  0  0  0  0  0  0
    6.3981   -0.8070    0.0000 O   0  0  0  0  0  0  0  0  0  0  0  0
    9.7480    1.9136    0.0000 O   0  0  0  0  0  0  0  0  0  0  0  0
   10.4291    0.7339    0.0000 O   0  0  0  0  0  0  0  0  0  0  0  0
   11.0615   -2.8157    0.0000 O   0  0  0  0  0  0  0  0  0  0  0  0
    9.4792   -3.5202    0.0000 O   0  0  0  0  0  0  0  0  0  0  0  0
    2.8680   -3.8311    0.0000 O   0  0  0  0  0  0  0  0  0  0  0  0
    8.1657    2.6180    0.0000 N   0  0  0  0  0  0  0  0  0  0  0  0
    8.8468    0.0294    0.0000 N   0  0  0  0  0  0  0  0  0  0  0  0
    9.6602   -1.7976    0.0000 N   0  0  0  0  0  0  0  0  0  0  0  0
    6.3981   -3.8070    0.0000 N   0  0  0  0  0  0  0  0  0  0  0  0
    8.1301   -3.8070    0.0000 N   0  0  0  0  0  0  0  0  0  0  0  0
    8.5725    3.5316    0.0000 C   0  0  3  0  0  0  0  0  0  0  0  0
    7.6589    3.9383    0.0000 C   0  0  2  0  0  0  0  0  0  0  0  0
    8.4679    4.5261    0.0000 C   0  0  0  0  0  0  0  0  0  0  0  0
    9.5670    3.6361    0.0000 C   0  0  0  0  0  0  0  0  0  0  0  0
    6.6644    3.8338    0.0000 C   0  0  0  0  0  0  0  0  0  0  0  0
    8.3468    0.8955    0.0000 C   0  0  2  0  0  0  0  0  0  0  0  0
    8.7535    1.8090    0.0000 C   0  0  0  0  0  0  0  0  0  0  0  0
    7.3686    0.6876    0.0000 C   0  0  0  0  0  0  0  0  0  0  0  0
    7.2641   -0.3070    0.0000 C   0  0  2  0  0  0  0  0  0  0  0  0
    8.1776   -0.7137    0.0000 C   0  0  0  0  0  0  0  0  0  0  0  0
    9.8413   -0.0751    0.0000 C   0  0  0  0  0  0  0  0  0  0  0  0
   10.2480   -0.9886    0.0000 C   0  0  2  0  0  0  0  0  0  0  0  0
    6.0766    4.6428    0.0000 C   0  0  0  0  0  0  0  0  0  0  0  0
   11.2426   -1.0932    0.0000 C   0  0  0  0  0  0  0  0  0  0  0  0
   12.2371   -1.1977    0.0000 C   0  0  0  0  0  0  0  0  0  0  0  0
   11.3471   -0.0986    0.0000 C   0  0  0  0  0  0  0  0  0  0  0  0
   11.1380   -2.0877    0.0000 C   0  0  0  0  0  0  0  0  0  0  0  0
    6.3981   -1.8070    0.0000 C   0  0  0  0  0  0  0  0  0  0  0  0
   10.0670   -2.7112    0.0000 C   0  0  0  0  0  0  0  0  0  0  0  0
    5.5320   -2.3070    0.0000 C   0  0  0  0  0  0  0  0  0  0  0  0
    7.2641   -2.3070    0.0000 C   0  0  0  0  0  0  0  0  0  0  0  0
    5.5320   -3.3070    0.0000 C   0  0  0  0  0  0  0  0  0  0  0  0
    7.2641   -3.3070    0.0000 C   0  0  0  0  0  0  0  0  0  0  0  0
    4.6381   -1.7723    0.0000 C   0  0  0  0  0  0  0  0  0  0  0  0
   11.4682   -3.7293    0.0000 C   0  0  0  0  0  0  0  0  0  0  0  0
    4.6381   -3.8416    0.0000 C   0  0  0  0  0  0  0  0  0  0  0  0
    3.7320   -2.2861    0.0000 C   0  0  0  0  0  0  0  0  0  0  0  0
    3.7320   -3.3278    0.0000 C   0  0  0  0  0  0  0  0  0  0  0  0
   11.8750   -4.6428    0.0000 C   0  0  0  0  0  0  0  0  0  0  0  0
   12.3818   -3.3225    0.0000 C   0  0  0  0  0  0  0  0  0  0  0  0
   10.5547   -4.1360    0.0000 C   0  0  0  0  0  0  0  0  0  0  0  0
    2.0000   -3.3344    0.0000 C   0  0  0  0  0  0  0  0  0  0  0  0
    7.5619    3.3260    0.0000 H   0  0  0  0  0  0  0  0  0  0  0  0
    9.0639    4.6970    0.0000 H   0  0  0  0  0  0  0  0  0  0  0  0
    8.1961    5.0834    0.0000 H   0  0  0  0  0  0  0  0  0  0  0  0
    7.5491    2.5532    0.0000 H   0  0  0  0  0  0  0  0  0  0  0  0
    6.4122    3.2674    0.0000 H   0  0  0  0  0  0  0  0  0  0  0  0
    8.9659    0.9279    0.0000 H   0  0  0  0  0  0  0  0  0  0  0  0
    7.3038    1.3042    0.0000 H   0  0  0  0  0  0  0  0  0  0  0  0
    6.7486    0.6876    0.0000 H   0  0  0  0  0  0  0  0  0  0  0  0
    6.7441    0.0307    0.0000 H   0  0  0  0  0  0  0  0  0  0  0  0
    7.8676   -1.2506    0.0000 H   0  0  0  0  0  0  0  0  0  0  0  0
    8.6792   -1.0781    0.0000 H   0  0  0  0  0  0  0  0  0  0  0  0
   10.5002   -1.5550    0.0000 H   0  0  0  0  0  0  0  0  0  0  0  0
    6.3288    5.2092    0.0000 H   0  0  0  0  0  0  0  0  0  0  0  0
    5.4600    4.5780    0.0000 H   0  0  0  0  0  0  0  0  0  0  0  0
   10.5903    4.6145    0.0000 H   0  0  0  0  0  0  0  0  0  0  0  0
    9.0436   -1.7328    0.0000 H   0  0  0  0  0  0  0  0  0  0  0  0
   12.1723   -1.8143    0.0000 H   0  0  0  0  0  0  0  0  0  0  0  0
   12.8537   -1.2625    0.0000 H   0  0  0  0  0  0  0  0  0  0  0  0
   12.3019   -0.5811    0.0000 H   0  0  0  0  0  0  0  0  0  0  0  0
   11.9637   -0.1634    0.0000 H   0  0  0  0  0  0  0  0  0  0  0  0
   11.4119    0.5180    0.0000 H   0  0  0  0  0  0  0  0  0  0  0  0
   10.7305   -0.0338    0.0000 H   0  0  0  0  0  0  0  0  0  0  0  0
   10.5214   -2.0229    0.0000 H   0  0  0  0  0  0  0  0  0  0  0  0
   11.0732   -2.7043    0.0000 H   0  0  0  0  0  0  0  0  0  0  0  0
   11.7546   -2.1525    0.0000 H   0  0  0  0  0  0  0  0  0  0  0  0
    7.8010   -1.9970    0.0000 H   0  0  0  0  0  0  0  0  0  0  0  0
    4.6453   -1.1523    0.0000 H   0  0  0  0  0  0  0  0  0  0  0  0
    4.6453   -4.4616    0.0000 H   0  0  0  0  0  0  0  0  0  0  0  0
    3.1963   -1.9741    0.0000 H   0  0  0  0  0  0  0  0  0  0  0  0
   11.3086   -4.8950    0.0000 H   0  0  0  0  0  0  0  0  0  0  0  0
   12.1272   -5.2092    0.0000 H   0  0  0  0  0  0  0  0  0  0  0  0
   12.4414   -4.3906    0.0000 H   0  0  0  0  0  0  0  0  0  0  0  0
   12.6340   -3.8889    0.0000 H   0  0  0  0  0  0  0  0  0  0  0  0
   12.9482   -3.0704    0.0000 H   0  0  0  0  0  0  0  0  0  0  0  0
   12.1296   -2.7561    0.0000 H   0  0  0  0  0  0  0  0  0  0  0  0
   10.3025   -3.5696    0.0000 H   0  0  0  0  0  0  0  0  0  0  0  0
    9.9883   -4.3882    0.0000 H   0  0  0  0  0  0  0  0  0  0  0  0
   10.8069   -4.7024    0.0000 H   0  0  0  0  0  0  0  0  0  0  0  0
    8.1301   -4.4270    0.0000 H   0  0  0  0  0  0  0  0  0  0  0  0
    8.6671   -3.4970    0.0000 H   0  0  0  0  0  0  0  0  0  0  0  0
    2.3079   -2.7963    0.0000 H   0  0  0  0  0  0  0  0  0  0  0  0
    1.4619   -3.0265    0.0000 H   0  0  0  0  0  0  0  0  0  0  0  0
    1.6921   -3.8726    0.0000 H   0  0  0  0  0  0  0  0  0  0  0  0
  1 17  1  0  0  0  0
  1 60  1  0  0  0  0
  2 17  2  0  0  0  0
 22  3  1  6  0  0  0
  3 31  1  0  0  0  0
  4 20  2  0  0  0  0
  5 24  2  0  0  0  0
  6 32  1  0  0  0  0
  6 38  1  0  0  0  0
  7 32  2  0  0  0  0
  8 41  1  0  0  0  0
  8 45  1  0  0  0  0
  9 14  1  0  0  0  0
  9 20  1  0  0  0  0
  9 49  1  0  0  0  0
 10 19  1  0  0  0  0
 10 23  1  0  0  0  0
 10 24  1  0  0  0  0
 25 11  1  6  0  0  0
 11 32  1  0  0  0  0
 11 61  1  0  0  0  0
 12 35  1  0  0  0  0
 12 36  2  0  0  0  0
 13 36  1  0  0  0  0
 13 84  1  0  0  0  0
 13 85  1  0  0  0  0
 14 15  1  0  0  0  0
 14 16  1  0  0  0  0
 14 17  1  0  0  0  0
 15 16  1  0  0  0  0
 15 18  1  1  0  0  0
 15 46  1  0  0  0  0
 16 47  1  0  0  0  0
 16 48  1  0  0  0  0
 18 26  2  0  0  0  0
 18 50  1  0  0  0  0
 19 20  1  1  0  0  0
 19 21  1  0  0  0  0
 19 51  1  0  0  0  0
 21 22  1  0  0  0  0
 21 52  1  0  0  0  0
 21 53  1  0  0  0  0
 22 23  1  0  0  0  0
 22 54  1  0  0  0  0
 23 55  1  0  0  0  0
 23 56  1  0  0  0  0
 24 25  1  0  0  0  0
 25 27  1  0  0  0  0
 25 57  1  0  0  0  0
 26 58  1  0  0  0  0
 26 59  1  0  0  0  0
 27 28  1  0  0  0  0
 27 29  1  0  0  0  0
 27 30  1  0  0  0  0
 28 62  1  0  0  0  0
 28 63  1  0  0  0  0
 28 64  1  0  0  0  0
 29 65  1  0  0  0  0
 29 66  1  0  0  0  0
 29 67  1  0  0  0  0
 30 68  1  0  0  0  0
 30 69  1  0  0  0  0
 30 70  1  0  0  0  0
 31 33  1  0  0  0  0
 31 34  2  0  0  0  0
 33 35  2  0  0  0  0
 33 37  1  0  0  0  0
 34 36  1  0  0  0  0
 34 71  1  0  0  0  0
 35 39  1  0  0  0  0
 37 40  2  0  0  0  0
 37 72  1  0  0  0  0
 38 42  1  0  0  0  0
 38 43  1  0  0  0  0
 38 44  1  0  0  0  0
 39 41  2  0  0  0  0
 39 73  1  0  0  0  0
 40 41  1  0  0  0  0
 40 74  1  0  0  0  0
 42 75  1  0  0  0  0
 42 76  1  0  0  0  0
 42 77  1  0  0  0  0
 43 78  1  0  0  0  0
 43 79  1  0  0  0  0
 43 80  1  0  0  0  0
 44 81  1  0  0  0  0
 44 82  1  0  0  0  0
 44 83  1  0  0  0  0
 45 86  1  0  0  0  0
 45 87  1  0  0  0  0
 45 88  1  0  0  0  0
M  END
> <PUBCHEM_COMPOUND_CID>
500735
> <PUBCHEM_COMPOUND_CANONICALIZED>
1
> <PUBCHEM_CACTVS_COMPLEXITY>
1150
> <PUBCHEM_CACTVS_HBOND_ACCEPTOR>
10
> <PUBCHEM_CACTVS_HBOND_DONOR>
4
> <PUBCHEM_CACTVS_ROTATABLE_BOND>
12
> <PUBCHEM_CACTVS_SUBSKEYS>
AAADcfB/vAAAAAAAAAAAAAAAGAAAAWAAAAA8QAAAAAAAAACx8AAAHgAQCAAAD/zhngYz/vPIFgCoAyfyfACCiCkhIiAImKG+bJmOZvLEsbufeCjm1hvY6Ce68a8PIAAAAgACAABAAAAEAAQAAAAAAAAAAA==
> <PUBCHEM_IUPAC_OPENEYE_NAME>
(2R)-1-[[(2S,4R)-4-[(2-amino-7-methoxy-4-quinolyl)oxy]-1-[(2S)-2-(tert-butoxycarbonylamino)-3,3-dimethyl-butanoyl]pyrrolidine-2-carbonyl]amino]-2-vinyl-cyclopropanecarboxylic acid
> <PUBCHEM_IUPAC_CAS_NAME>
(2R)-1-[[[(2S,4R)-4-[(2-amino-7-methoxy-4-quinolinyl)oxy]-1-[(2S)-3,3-dimethyl-2-[[(2-methylpropan-2-yl)oxy-oxomethyl]amino]-1-oxobutyl]-2-pyrrolidinyl]-oxomethyl]amino]-2-ethenyl-1-cyclopropanecarboxylic acid
> <PUBCHEM_IUPAC_NAME_MARKUP>
(2<I>R</I>)-1-[[(2<I>S</I>,4<I>R</I>)-4-(2-amino-7-methoxyquinolin-4-yl)oxy-1-[(2<I>S</I>)-3,3-dimethyl-2-[(2-methylpropan-2-yl)oxycarbonylamino]butanoyl]pyrrolidine-2-carbonyl]amino]-2-ethenylcyclopropane-1-carboxylic acid
> <PUBCHEM_IUPAC_NAME>
(2R)-1-[[(2S,4R)-4-(2-amino-7-methoxyquinolin-4-yl)oxy-1-[(2S)-3,3-dimethyl-2-[(2-methylpropan-2-yl)oxycarbonylamino]butanoyl]pyrrolidine-2-carbonyl]amino]-2-ethenylcyclopropane-1-carboxylic acid
> <PUBCHEM_IUPAC_SYSTEMATIC_NAME>
(2R)-1-[[(2S,4R)-4-(2-azanyl-7-methoxy-quinolin-4-yl)oxy-1-[(2S)-3,3-dimethyl-2-[(2-methylpropan-2-yl)oxycarbonylamino]butanoyl]pyrrolidin-2-yl]carbonylamino]-2-ethenyl-cyclopropane-1-carboxylic acid
> <PUBCHEM_IUPAC_TRADITIONAL_NAME>
(2R)-1-[[(2S,4R)-4-[(2-amino-7-methoxy-4-quinolyl)oxy]-1-[(2S)-2-(tert-butoxycarbonylamino)-3,3-dimethyl-butanoyl]prolyl]amino]-2-vinyl-cyclopropanecarboxylic acid
> <PUBCHEM_IUPAC_INCHI>
InChI=1S/C32H43N5O8/c1-9-17-15-32(17,28(40)41)36-26(38)22-13-19(44-23-14-24(33)34-21-12-18(43-8)10-11-20(21)23)16-37(22)27(39)25(30(2,3)4)35-29(42)45-31(5,6)7/h9-12,14,17,19,22,25H,1,13,15-16H2,2-8H3,(H2,33,34)(H,35,42)(H,36,38)(H,40,41)/t17-,19+,22-,25+,32?/m0/s1
> <PUBCHEM_IUPAC_INCHIKEY>
UDDXDGVZTBYRRE-OECSTJDDSA-N
> <PUBCHEM_XLOGP3_AA>
3.8
> <PUBCHEM_EXACT_MASS>
625.31116335
> <PUBCHEM_MOLECULAR_FORMULA>
C32H43N5O8
> <PUBCHEM_MOLECULAR_WEIGHT>
625.7
> <PUBCHEM_OPENEYE_CAN_SMILES>
CC(C)(C)C(C(=O)N1CC(CC1C(=O)NC2(CC2C=C)C(=O)O)OC3=CC(=NC4=C3C=CC(=C4)OC)N)NC(=O)OC(C)(C)C
> <PUBCHEM_OPENEYE_ISO_SMILES>
CC(C)(C)[C@@H](C(=O)N1C[C@@H](C[C@H]1C(=O)NC2(C[C@@H]2C=C)C(=O)O)OC3=CC(=NC4=C3C=CC(=C4)OC)N)NC(=O)OC(C)(C)C
> <PUBCHEM_CACTVS_TPSA>
182
> <PUBCHEM_MONOISOTOPIC_WEIGHT>
625.31116335
> <PUBCHEM_TOTAL_CHARGE>
0
> <PUBCHEM_HEAVY_ATOM_COUNT>
45
> <PUBCHEM_ATOM_DEF_STEREO_COUNT>
4
> <PUBCHEM_ATOM_UDEF_STEREO_COUNT>
1
> <PUBCHEM_BOND_DEF_STEREO_COUNT>
0
> <PUBCHEM_BOND_UDEF_STEREO_COUNT>
0
> <PUBCHEM_ISOTOPIC_ATOM_COUNT>
0
> <PUBCHEM_COMPONENT_COUNT>
1
> <PUBCHEM_CACTVS_TAUTO_COUNT>
-1
> <PUBCHEM_COORDINATE_TYPE>
1
5
255
> <PUBCHEM_BONDANNOTATIONS>
25  11  6
12  35  8
12  36  8
14  17  3
15  18  5
19  20  5
22  3  6
31  33  8
31  34  8
33  35  8
33  37  8
34  36  8
35  39  8
37  40  8
39  41  8
40  41  8
$$$$
