500703
  -OEChem-10302200282D
 90 94  0     1  0  0  0  0  0999 V2000
    7.4808   -5.1237    0.0000 S   0  0  0  0  0  0  0  0  0  0  0  0
    6.1966    4.7593    0.0000 O   0  0  0  0  0  0  0  0  0  0  0  0
    7.2147    3.3580    0.0000 O   0  0  0  0  0  0  0  0  0  0  0  0
    4.6660   -0.9213    0.0000 O   0  0  0  0  0  0  0  0  0  0  0  0
    7.3192    2.3635    0.0000 O   0  0  0  0  0  0  0  0  0  0  0  0
    8.5160   -1.1029    0.0000 O   0  0  0  0  0  0  0  0  0  0  0  0
   10.8499    1.0308    0.0000 O   0  0  0  0  0  0  0  0  0  0  0  0
   11.5544   -0.5515    0.0000 O   0  0  0  0  0  0  0  0  0  0  0  0
    5.5967    2.1824    0.0000 N   0  0  0  0  0  0  0  0  0  0  0  0
    7.1147   -0.0848    0.0000 N   0  0  0  0  0  0  0  0  0  0  0  0
    9.8318   -0.3704    0.0000 N   0  0  0  0  0  0  0  0  0  0  0  0
    4.6660   -3.9213    0.0000 N   0  0  0  0  0  0  0  0  0  0  0  0
    7.3116   -3.5145    0.0000 N   0  0  0  0  0  0  0  0  0  0  0  0
    8.9753   -4.1531    0.0000 N   0  0  0  0  0  0  0  0  0  0  0  0
    5.4921    3.1770    0.0000 C   0  0  3  0  0  0  0  0  0  0  0  0
    4.4976    3.0724    0.0000 C   0  0  2  0  0  0  0  0  0  0  0  0
    4.9044    3.9860    0.0000 C   0  0  0  0  0  0  0  0  0  0  0  0
    6.3012    3.7647    0.0000 C   0  0  0  0  0  0  0  0  0  0  0  0
    3.6886    2.4846    0.0000 C   0  0  0  0  0  0  0  0  0  0  0  0
    6.6147    0.7812    0.0000 C   0  0  2  0  0  0  0  0  0  0  0  0
    6.5102    1.7757    0.0000 C   0  0  0  0  0  0  0  0  0  0  0  0
    5.6366    0.5733    0.0000 C   0  0  0  0  0  0  0  0  0  0  0  0
    5.5321   -0.4213    0.0000 C   0  0  2  0  0  0  0  0  0  0  0  0
    6.4456   -0.8280    0.0000 C   0  0  0  0  0  0  0  0  0  0  0  0
    8.1093   -0.1894    0.0000 C   0  0  0  0  0  0  0  0  0  0  0  0
    2.7750    2.8914    0.0000 C   0  0  0  0  0  0  0  0  0  0  0  0
    9.0228    0.2174    0.0000 C   0  0  2  0  0  0  0  0  0  0  0  0
    9.1273    1.2119    0.0000 C   0  0  0  0  0  0  0  0  0  0  0  0
    9.2319    2.2064    0.0000 C   0  0  0  0  0  0  0  0  0  0  0  0
   10.1219    1.1074    0.0000 C   0  0  0  0  0  0  0  0  0  0  0  0
    8.1328    1.3164    0.0000 C   0  0  0  0  0  0  0  0  0  0  0  0
    4.6660   -1.9213    0.0000 C   0  0  0  0  0  0  0  0  0  0  0  0
   10.7454    0.0363    0.0000 C   0  0  0  0  0  0  0  0  0  0  0  0
    3.8000   -2.4213    0.0000 C   0  0  0  0  0  0  0  0  0  0  0  0
    5.5321   -2.4213    0.0000 C   0  0  0  0  0  0  0  0  0  0  0  0
    3.8000   -3.4213    0.0000 C   0  0  0  0  0  0  0  0  0  0  0  0
    5.5321   -3.4213    0.0000 C   0  0  0  0  0  0  0  0  0  0  0  0
    2.9061   -1.8866    0.0000 C   0  0  0  0  0  0  0  0  0  0  0  0
   11.7634    1.4376    0.0000 C   0  0  0  0  0  0  0  0  0  0  0  0
    2.9061   -3.9559    0.0000 C   0  0  0  0  0  0  0  0  0  0  0  0
    2.0000   -2.4004    0.0000 C   0  0  0  0  0  0  0  0  0  0  0  0
    6.3981   -3.9213    0.0000 C   0  0  0  0  0  0  0  0  0  0  0  0
   12.6770    1.8443    0.0000 C   0  0  0  0  0  0  0  0  0  0  0  0
   11.3567    2.3511    0.0000 C   0  0  0  0  0  0  0  0  0  0  0  0
   12.1702    0.5240    0.0000 C   0  0  0  0  0  0  0  0  0  0  0  0
    2.0000   -3.4421    0.0000 C   0  0  0  0  0  0  0  0  0  0  0  0
    6.5026   -4.9158    0.0000 C   0  0  0  0  0  0  0  0  0  0  0  0
    7.9808   -4.2577    0.0000 C   0  0  0  0  0  0  0  0  0  0  0  0
    4.7198    2.4936    0.0000 H   0  0  0  0  0  0  0  0  0  0  0  0
    5.3350    4.4320    0.0000 H   0  0  0  0  0  0  0  0  0  0  0  0
    4.3903    4.3327    0.0000 H   0  0  0  0  0  0  0  0  0  0  0  0
    5.0951    1.8180    0.0000 H   0  0  0  0  0  0  0  0  0  0  0  0
    3.7534    1.8680    0.0000 H   0  0  0  0  0  0  0  0  0  0  0  0
    7.2044    0.9728    0.0000 H   0  0  0  0  0  0  0  0  0  0  0  0
    5.5718    1.1899    0.0000 H   0  0  0  0  0  0  0  0  0  0  0  0
    5.0166    0.5733    0.0000 H   0  0  0  0  0  0  0  0  0  0  0  0
    5.5645   -1.0404    0.0000 H   0  0  0  0  0  0  0  0  0  0  0  0
    6.1356   -1.3649    0.0000 H   0  0  0  0  0  0  0  0  0  0  0  0
    6.9472   -1.1924    0.0000 H   0  0  0  0  0  0  0  0  0  0  0  0
    8.9580   -0.3992    0.0000 H   0  0  0  0  0  0  0  0  0  0  0  0
    2.7102    3.5080    0.0000 H   0  0  0  0  0  0  0  0  0  0  0  0
    2.2735    2.5269    0.0000 H   0  0  0  0  0  0  0  0  0  0  0  0
    6.6982    5.1237    0.0000 H   0  0  0  0  0  0  0  0  0  0  0  0
    9.7670   -0.9870    0.0000 H   0  0  0  0  0  0  0  0  0  0  0  0
    9.8485    2.1416    0.0000 H   0  0  0  0  0  0  0  0  0  0  0  0
    9.2967    2.8230    0.0000 H   0  0  0  0  0  0  0  0  0  0  0  0
    8.6153    2.2712    0.0000 H   0  0  0  0  0  0  0  0  0  0  0  0
   10.0570    0.4907    0.0000 H   0  0  0  0  0  0  0  0  0  0  0  0
   10.7385    1.0425    0.0000 H   0  0  0  0  0  0  0  0  0  0  0  0
   10.1867    1.7240    0.0000 H   0  0  0  0  0  0  0  0  0  0  0  0
    8.1976    1.9330    0.0000 H   0  0  0  0  0  0  0  0  0  0  0  0
    7.5162    1.3812    0.0000 H   0  0  0  0  0  0  0  0  0  0  0  0
    8.0680    0.6998    0.0000 H   0  0  0  0  0  0  0  0  0  0  0  0
    6.0690   -2.1113    0.0000 H   0  0  0  0  0  0  0  0  0  0  0  0
    2.9132   -1.2666    0.0000 H   0  0  0  0  0  0  0  0  0  0  0  0
    2.9132   -4.5759    0.0000 H   0  0  0  0  0  0  0  0  0  0  0  0
    1.4643   -2.0884    0.0000 H   0  0  0  0  0  0  0  0  0  0  0  0
   12.9292    1.2779    0.0000 H   0  0  0  0  0  0  0  0  0  0  0  0
   13.2434    2.0965    0.0000 H   0  0  0  0  0  0  0  0  0  0  0  0
   12.4248    2.4107    0.0000 H   0  0  0  0  0  0  0  0  0  0  0  0
   11.9231    2.6033    0.0000 H   0  0  0  0  0  0  0  0  0  0  0  0
   11.1045    2.9175    0.0000 H   0  0  0  0  0  0  0  0  0  0  0  0
   10.7903    2.0989    0.0000 H   0  0  0  0  0  0  0  0  0  0  0  0
   11.6038    0.2718    0.0000 H   0  0  0  0  0  0  0  0  0  0  0  0
   12.4224   -0.0424    0.0000 H   0  0  0  0  0  0  0  0  0  0  0  0
   12.7366    0.7762    0.0000 H   0  0  0  0  0  0  0  0  0  0  0  0
    1.4643   -3.7541    0.0000 H   0  0  0  0  0  0  0  0  0  0  0  0
    6.0419   -5.3306    0.0000 H   0  0  0  0  0  0  0  0  0  0  0  0
    9.3397   -4.6547    0.0000 H   0  0  0  0  0  0  0  0  0  0  0  0
    9.2275   -3.5867    0.0000 H   0  0  0  0  0  0  0  0  0  0  0  0
  1 47  1  0  0  0  0
  1 48  1  0  0  0  0
  2 18  1  0  0  0  0
  2 63  1  0  0  0  0
  3 18  2  0  0  0  0
 23  4  1  6  0  0  0
  4 32  1  0  0  0  0
  5 21  2  0  0  0  0
  6 25  2  0  0  0  0
  7 33  1  0  0  0  0
  7 39  1  0  0  0  0
  8 33  2  0  0  0  0
  9 15  1  0  0  0  0
  9 21  1  0  0  0  0
  9 52  1  0  0  0  0
 10 20  1  0  0  0  0
 10 24  1  0  0  0  0
 10 25  1  0  0  0  0
 27 11  1  6  0  0  0
 11 33  1  0  0  0  0
 11 64  1  0  0  0  0
 12 36  1  0  0  0  0
 12 37  2  0  0  0  0
 13 42  1  0  0  0  0
 13 48  2  0  0  0  0
 14 48  1  0  0  0  0
 14 89  1  0  0  0  0
 14 90  1  0  0  0  0
 15 16  1  0  0  0  0
 15 17  1  0  0  0  0
 15 18  1  0  0  0  0
 16 17  1  0  0  0  0
 16 19  1  1  0  0  0
 16 49  1  0  0  0  0
 17 50  1  0  0  0  0
 17 51  1  0  0  0  0
 19 26  2  0  0  0  0
 19 53  1  0  0  0  0
 20 21  1  1  0  0  0
 20 22  1  0  0  0  0
 20 54  1  0  0  0  0
 22 23  1  0  0  0  0
 22 55  1  0  0  0  0
 22 56  1  0  0  0  0
 23 24  1  0  0  0  0
 23 57  1  0  0  0  0
 24 58  1  0  0  0  0
 24 59  1  0  0  0  0
 25 27  1  0  0  0  0
 26 61  1  0  0  0  0
 26 62  1  0  0  0  0
 27 28  1  0  0  0  0
 27 60  1  0  0  0  0
 28 29  1  0  0  0  0
 28 30  1  0  0  0  0
 28 31  1  0  0  0  0
 29 65  1  0  0  0  0
 29 66  1  0  0  0  0
 29 67  1  0  0  0  0
 30 68  1  0  0  0  0
 30 69  1  0  0  0  0
 30 70  1  0  0  0  0
 31 71  1  0  0  0  0
 31 72  1  0  0  0  0
 31 73  1  0  0  0  0
 32 34  1  0  0  0  0
 32 35  2  0  0  0  0
 34 36  1  0  0  0  0
 34 38  2  0  0  0  0
 35 37  1  0  0  0  0
 35 74  1  0  0  0  0
 36 40  2  0  0  0  0
 37 42  1  0  0  0  0
 38 41  1  0  0  0  0
 38 75  1  0  0  0  0
 39 43  1  0  0  0  0
 39 44  1  0  0  0  0
 39 45  1  0  0  0  0
 40 46  1  0  0  0  0
 40 76  1  0  0  0  0
 41 46  2  0  0  0  0
 41 77  1  0  0  0  0
 42 47  2  0  0  0  0
 43 78  1  0  0  0  0
 43 79  1  0  0  0  0
 43 80  1  0  0  0  0
 44 81  1  0  0  0  0
 44 82  1  0  0  0  0
 44 83  1  0  0  0  0
 45 84  1  0  0  0  0
 45 85  1  0  0  0  0
 45 86  1  0  0  0  0
 46 87  1  0  0  0  0
 47 88  1  0  0  0  0
M  END
> <PUBCHEM_COMPOUND_CID>
500703
> <PUBCHEM_COMPOUND_CANONICALIZED>
1
> <PUBCHEM_CACTVS_COMPLEXITY>
1260
> <PUBCHEM_CACTVS_HBOND_ACCEPTOR>
11
> <PUBCHEM_CACTVS_HBOND_DONOR>
4
> <PUBCHEM_CACTVS_ROTATABLE_BOND>
12
> <PUBCHEM_CACTVS_SUBSKEYS>
AAADcfB/uABAAAAAAAAAAAAAGAAAAWLAAAA8QAAAAAAAAACx/AAAHgQQCAAAD/zl3gaz3/PIFgisAyXyfACC+KlhKjkImLW+bJmOZvLksbufeCjm1hvY6Ce6weAPAAAAAAACAAAAAAAAAAQAAAAAAAAAAA==
> <PUBCHEM_IUPAC_OPENEYE_NAME>
(2R)-1-[[(2S,4R)-4-[[2-(2-aminothiazol-4-yl)-4-quinolyl]oxy]-1-[(2S)-2-(tert-butoxycarbonylamino)-3,3-dimethyl-butanoyl]pyrrolidine-2-carbonyl]amino]-2-vinyl-cyclopropanecarboxylic acid
> <PUBCHEM_IUPAC_CAS_NAME>
(2R)-1-[[[(2S,4R)-4-[[2-(2-amino-4-thiazolyl)-4-quinolinyl]oxy]-1-[(2S)-3,3-dimethyl-2-[[(2-methylpropan-2-yl)oxy-oxomethyl]amino]-1-oxobutyl]-2-pyrrolidinyl]-oxomethyl]amino]-2-ethenyl-1-cyclopropanecarboxylic acid
> <PUBCHEM_IUPAC_NAME_MARKUP>
(2<I>R</I>)-1-[[(2<I>S</I>,4<I>R</I>)-4-[2-(2-amino-1,3-thiazol-4-yl)quinolin-4-yl]oxy-1-[(2<I>S</I>)-3,3-dimethyl-2-[(2-methylpropan-2-yl)oxycarbonylamino]butanoyl]pyrrolidine-2-carbonyl]amino]-2-ethenylcyclopropane-1-carboxylic acid
> <PUBCHEM_IUPAC_NAME>
(2R)-1-[[(2S,4R)-4-[2-(2-amino-1,3-thiazol-4-yl)quinolin-4-yl]oxy-1-[(2S)-3,3-dimethyl-2-[(2-methylpropan-2-yl)oxycarbonylamino]butanoyl]pyrrolidine-2-carbonyl]amino]-2-ethenylcyclopropane-1-carboxylic acid
> <PUBCHEM_IUPAC_SYSTEMATIC_NAME>
(2R)-1-[[(2S,4R)-4-[2-(2-azanyl-1,3-thiazol-4-yl)quinolin-4-yl]oxy-1-[(2S)-3,3-dimethyl-2-[(2-methylpropan-2-yl)oxycarbonylamino]butanoyl]pyrrolidin-2-yl]carbonylamino]-2-ethenyl-cyclopropane-1-carboxylic acid
> <PUBCHEM_IUPAC_TRADITIONAL_NAME>
(2R)-1-[[(2S,4R)-4-[[2-(2-aminothiazol-4-yl)-4-quinolyl]oxy]-1-[(2S)-2-(tert-butoxycarbonylamino)-3,3-dimethyl-butanoyl]prolyl]amino]-2-vinyl-cyclopropanecarboxylic acid
> <PUBCHEM_IUPAC_INCHI>
InChI=1S/C34H42N6O7S/c1-8-18-15-34(18,29(43)44)39-27(41)24-13-19(16-40(24)28(42)26(32(2,3)4)38-31(45)47-33(5,6)7)46-25-14-22(23-17-48-30(35)37-23)36-21-12-10-9-11-20(21)25/h8-12,14,17-19,24,26H,1,13,15-16H2,2-7H3,(H2,35,37)(H,38,45)(H,39,41)(H,43,44)/t18-,19+,24-,26+,34?/m0/s1
> <PUBCHEM_IUPAC_INCHIKEY>
DGGBXIXMBCYXCQ-WSYMTKFNSA-N
> <PUBCHEM_XLOGP3_AA>
4.6
> <PUBCHEM_EXACT_MASS>
678.28356887
> <PUBCHEM_MOLECULAR_FORMULA>
C34H42N6O7S
> <PUBCHEM_MOLECULAR_WEIGHT>
678.8
> <PUBCHEM_OPENEYE_CAN_SMILES>
CC(C)(C)C(C(=O)N1CC(CC1C(=O)NC2(CC2C=C)C(=O)O)OC3=CC(=NC4=CC=CC=C43)C5=CSC(=N5)N)NC(=O)OC(C)(C)C
> <PUBCHEM_OPENEYE_ISO_SMILES>
CC(C)(C)[C@@H](C(=O)N1C[C@@H](C[C@H]1C(=O)NC2(C[C@@H]2C=C)C(=O)O)OC3=CC(=NC4=CC=CC=C43)C5=CSC(=N5)N)NC(=O)OC(C)(C)C
> <PUBCHEM_CACTVS_TPSA>
214
> <PUBCHEM_MONOISOTOPIC_WEIGHT>
678.28356887
> <PUBCHEM_TOTAL_CHARGE>
0
> <PUBCHEM_HEAVY_ATOM_COUNT>
48
> <PUBCHEM_ATOM_DEF_STEREO_COUNT>
4
> <PUBCHEM_ATOM_UDEF_STEREO_COUNT>
1
> <PUBCHEM_BOND_DEF_STEREO_COUNT>
0
> <PUBCHEM_BOND_UDEF_STEREO_COUNT>
0
> <PUBCHEM_ISOTOPIC_ATOM_COUNT>
0
> <PUBCHEM_COMPONENT_COUNT>
1
> <PUBCHEM_CACTVS_TAUTO_COUNT>
-1
> <PUBCHEM_COORDINATE_TYPE>
1
5
255
> <PUBCHEM_BONDANNOTATIONS>
1  47  8
1  48  8
27  11  6
12  36  8
12  37  8
13  42  8
13  48  8
15  18  3
16  19  5
20  21  5
32  34  8
32  35  8
34  36  8
34  38  8
35  37  8
36  40  8
38  41  8
23  4  6
40  46  8
41  46  8
42  47  8
$$$$
