500731
  -OEChem-10302200282D
 98102  0     1  0  0  0  0  0999 V2000
    9.2128   -4.9227    0.0000 S   0  0  0  0  0  0  0  0  0  0  0  0
   12.6438   -2.0246    0.0000 O   0  0  0  0  0  0  0  0  0  0  0  0
   11.0615   -2.7290    0.0000 O   0  0  0  0  0  0  0  0  0  0  0  0
    6.3981   -0.7203    0.0000 O   0  0  0  0  0  0  0  0  0  0  0  0
   10.4291    0.8206    0.0000 O   0  0  0  0  0  0  0  0  0  0  0  0
    9.7480    2.0002    0.0000 O   0  0  0  0  0  0  0  0  0  0  0  0
    5.5889    3.3047    0.0000 O   0  0  0  0  0  0  0  0  0  0  0  0
    6.9902    4.3228    0.0000 O   0  0  0  0  0  0  0  0  0  0  0  0
    2.8680   -3.7444    0.0000 O   0  0  0  0  0  0  0  0  0  0  0  0
   10.2480   -0.9019    0.0000 N   0  0  0  0  0  0  0  0  0  0  0  0
    8.3468    0.9822    0.0000 N   0  0  0  0  0  0  0  0  0  0  0  0
    7.1712    2.6002    0.0000 N   0  0  0  0  0  0  0  0  0  0  0  0
    6.3981   -3.7203    0.0000 N   0  0  0  0  0  0  0  0  0  0  0  0
    9.0437   -3.3135    0.0000 N   0  0  0  0  0  0  0  0  0  0  0  0
   11.2426   -1.0065    0.0000 C   0  0  3  0  0  0  0  0  0  0  0  0
   12.1561   -0.5997    0.0000 C   0  0  2  0  0  0  0  0  0  0  0  0
   11.3471   -0.0120    0.0000 C   0  0  0  0  0  0  0  0  0  0  0  0
   11.6493   -1.9200    0.0000 C   0  0  0  0  0  0  0  0  0  0  0  0
   13.1506   -0.7043    0.0000 C   0  0  0  0  0  0  0  0  0  0  0  0
    8.8468    0.1161    0.0000 C   0  0  2  0  0  0  0  0  0  0  0  0
    9.8413    0.0116    0.0000 C   0  0  0  0  0  0  0  0  0  0  0  0
    8.1776   -0.6270    0.0000 C   0  0  0  0  0  0  0  0  0  0  0  0
    7.2641   -0.2203    0.0000 C   0  0  2  0  0  0  0  0  0  0  0  0
    7.3686    0.7742    0.0000 C   0  0  0  0  0  0  0  0  0  0  0  0
    8.7535    1.8957    0.0000 C   0  0  0  0  0  0  0  0  0  0  0  0
   13.7384    0.1048    0.0000 C   0  0  0  0  0  0  0  0  0  0  0  0
    8.1657    2.7047    0.0000 C   0  0  2  0  0  0  0  0  0  0  0  0
    8.5725    3.6183    0.0000 C   0  0  0  0  0  0  0  0  0  0  0  0
    8.9792    4.5318    0.0000 C   0  0  0  0  0  0  0  0  0  0  0  0
    7.6589    4.0250    0.0000 C   0  0  0  0  0  0  0  0  0  0  0  0
    9.4860    3.2115    0.0000 C   0  0  0  0  0  0  0  0  0  0  0  0
    6.3981   -1.7203    0.0000 C   0  0  0  0  0  0  0  0  0  0  0  0
    6.5834    3.4092    0.0000 C   0  0  0  0  0  0  0  0  0  0  0  0
    5.5320   -2.2203    0.0000 C   0  0  0  0  0  0  0  0  0  0  0  0
    7.2641   -2.2203    0.0000 C   0  0  0  0  0  0  0  0  0  0  0  0
    5.5320   -3.2203    0.0000 C   0  0  0  0  0  0  0  0  0  0  0  0
    7.2641   -3.2203    0.0000 C   0  0  0  0  0  0  0  0  0  0  0  0
    4.6381   -1.6856    0.0000 C   0  0  0  0  0  0  0  0  0  0  0  0
    5.0011    4.1137    0.0000 C   0  0  0  0  0  0  0  0  0  0  0  0
    4.6381   -3.7549    0.0000 C   0  0  0  0  0  0  0  0  0  0  0  0
    3.7320   -2.1995    0.0000 C   0  0  0  0  0  0  0  0  0  0  0  0
    8.1301   -3.7203    0.0000 C   0  0  0  0  0  0  0  0  0  0  0  0
    3.7320   -3.2411    0.0000 C   0  0  0  0  0  0  0  0  0  0  0  0
    4.4133    4.9227    0.0000 C   0  0  0  0  0  0  0  0  0  0  0  0
    4.1921    3.5259    0.0000 C   0  0  0  0  0  0  0  0  0  0  0  0
    5.8101    4.7015    0.0000 C   0  0  0  0  0  0  0  0  0  0  0  0
    8.2346   -4.7148    0.0000 C   0  0  0  0  0  0  0  0  0  0  0  0
    9.7128   -4.0567    0.0000 C   0  0  0  0  0  0  0  0  0  0  0  0
   10.7073   -3.9522    0.0000 C   0  0  0  0  0  0  0  0  0  0  0  0
    2.0000   -3.2478    0.0000 C   0  0  0  0  0  0  0  0  0  0  0  0
   11.2951   -4.7612    0.0000 C   0  0  0  0  0  0  0  0  0  0  0  0
   12.3783   -0.0209    0.0000 H   0  0  0  0  0  0  0  0  0  0  0  0
   11.6189    0.5453    0.0000 H   0  0  0  0  0  0  0  0  0  0  0  0
   10.7511    0.1589    0.0000 H   0  0  0  0  0  0  0  0  0  0  0  0
    9.8836   -1.4035    0.0000 H   0  0  0  0  0  0  0  0  0  0  0  0
   13.4028   -1.2707    0.0000 H   0  0  0  0  0  0  0  0  0  0  0  0
    9.1844    0.6361    0.0000 H   0  0  0  0  0  0  0  0  0  0  0  0
    7.8676   -1.1640    0.0000 H   0  0  0  0  0  0  0  0  0  0  0  0
    8.6792   -0.9914    0.0000 H   0  0  0  0  0  0  0  0  0  0  0  0
    6.7441    0.1174    0.0000 H   0  0  0  0  0  0  0  0  0  0  0  0
    7.3038    1.3908    0.0000 H   0  0  0  0  0  0  0  0  0  0  0  0
    6.7486    0.7742    0.0000 H   0  0  0  0  0  0  0  0  0  0  0  0
   14.3550    0.0399    0.0000 H   0  0  0  0  0  0  0  0  0  0  0  0
   13.4862    0.6712    0.0000 H   0  0  0  0  0  0  0  0  0  0  0  0
    7.8013    3.2063    0.0000 H   0  0  0  0  0  0  0  0  0  0  0  0
   12.8960   -2.5909    0.0000 H   0  0  0  0  0  0  0  0  0  0  0  0
    6.9190    2.0338    0.0000 H   0  0  0  0  0  0  0  0  0  0  0  0
    9.5456    4.2796    0.0000 H   0  0  0  0  0  0  0  0  0  0  0  0
    9.2314    5.0982    0.0000 H   0  0  0  0  0  0  0  0  0  0  0  0
    8.4128    4.7840    0.0000 H   0  0  0  0  0  0  0  0  0  0  0  0
    7.9111    4.5914    0.0000 H   0  0  0  0  0  0  0  0  0  0  0  0
    7.0925    4.2772    0.0000 H   0  0  0  0  0  0  0  0  0  0  0  0
    7.4067    3.4586    0.0000 H   0  0  0  0  0  0  0  0  0  0  0  0
    9.2338    2.6451    0.0000 H   0  0  0  0  0  0  0  0  0  0  0  0
   10.0524    2.9594    0.0000 H   0  0  0  0  0  0  0  0  0  0  0  0
    9.7382    3.7779    0.0000 H   0  0  0  0  0  0  0  0  0  0  0  0
    7.8010   -1.9103    0.0000 H   0  0  0  0  0  0  0  0  0  0  0  0
    4.6453   -1.0657    0.0000 H   0  0  0  0  0  0  0  0  0  0  0  0
    4.6453   -4.3749    0.0000 H   0  0  0  0  0  0  0  0  0  0  0  0
    3.1963   -1.8874    0.0000 H   0  0  0  0  0  0  0  0  0  0  0  0
    4.9149    5.2871    0.0000 H   0  0  0  0  0  0  0  0  0  0  0  0
    4.0489    5.4243    0.0000 H   0  0  0  0  0  0  0  0  0  0  0  0
    3.9117    4.5583    0.0000 H   0  0  0  0  0  0  0  0  0  0  0  0
    3.8277    4.0275    0.0000 H   0  0  0  0  0  0  0  0  0  0  0  0
    3.6905    3.1615    0.0000 H   0  0  0  0  0  0  0  0  0  0  0  0
    4.5565    3.0243    0.0000 H   0  0  0  0  0  0  0  0  0  0  0  0
    6.1746    4.1999    0.0000 H   0  0  0  0  0  0  0  0  0  0  0  0
    6.3117    5.0659    0.0000 H   0  0  0  0  0  0  0  0  0  0  0  0
    5.4457    5.2031    0.0000 H   0  0  0  0  0  0  0  0  0  0  0  0
    7.7739   -5.1297    0.0000 H   0  0  0  0  0  0  0  0  0  0  0  0
   11.2646   -3.6804    0.0000 H   0  0  0  0  0  0  0  0  0  0  0  0
   10.5364   -3.3562    0.0000 H   0  0  0  0  0  0  0  0  0  0  0  0
    2.3079   -2.7096    0.0000 H   0  0  0  0  0  0  0  0  0  0  0  0
    1.4619   -2.9398    0.0000 H   0  0  0  0  0  0  0  0  0  0  0  0
    1.6921   -3.7859    0.0000 H   0  0  0  0  0  0  0  0  0  0  0  0
   10.7935   -5.1256    0.0000 H   0  0  0  0  0  0  0  0  0  0  0  0
   11.6595   -5.2628    0.0000 H   0  0  0  0  0  0  0  0  0  0  0  0
   11.7967   -4.3968    0.0000 H   0  0  0  0  0  0  0  0  0  0  0  0
  1 47  1  0  0  0  0
  1 48  1  0  0  0  0
  2 18  1  0  0  0  0
  2 66  1  0  0  0  0
  3 18  2  0  0  0  0
 23  4  1  1  0  0  0
  4 32  1  0  0  0  0
  5 21  2  0  0  0  0
  6 25  2  0  0  0  0
  7 33  1  0  0  0  0
  7 39  1  0  0  0  0
  8 33  2  0  0  0  0
  9 43  1  0  0  0  0
  9 50  1  0  0  0  0
 10 15  1  0  0  0  0
 10 21  1  0  0  0  0
 10 55  1  0  0  0  0
 11 20  1  0  0  0  0
 11 24  1  0  0  0  0
 11 25  1  0  0  0  0
 27 12  1  1  0  0  0
 12 33  1  0  0  0  0
 12 67  1  0  0  0  0
 13 36  1  0  0  0  0
 13 37  2  0  0  0  0
 14 42  1  0  0  0  0
 14 48  2  0  0  0  0
 15 16  1  0  0  0  0
 15 17  1  0  0  0  0
 15 18  1  0  0  0  0
 16 17  1  0  0  0  0
 16 19  1  6  0  0  0
 16 52  1  0  0  0  0
 17 53  1  0  0  0  0
 17 54  1  0  0  0  0
 19 26  2  0  0  0  0
 19 56  1  0  0  0  0
 20 21  1  6  0  0  0
 20 22  1  0  0  0  0
 20 57  1  0  0  0  0
 22 23  1  0  0  0  0
 22 58  1  0  0  0  0
 22 59  1  0  0  0  0
 23 24  1  0  0  0  0
 23 60  1  0  0  0  0
 24 61  1  0  0  0  0
 24 62  1  0  0  0  0
 25 27  1  0  0  0  0
 26 63  1  0  0  0  0
 26 64  1  0  0  0  0
 27 28  1  0  0  0  0
 27 65  1  0  0  0  0
 28 29  1  0  0  0  0
 28 30  1  0  0  0  0
 28 31  1  0  0  0  0
 29 68  1  0  0  0  0
 29 69  1  0  0  0  0
 29 70  1  0  0  0  0
 30 71  1  0  0  0  0
 30 72  1  0  0  0  0
 30 73  1  0  0  0  0
 31 74  1  0  0  0  0
 31 75  1  0  0  0  0
 31 76  1  0  0  0  0
 32 34  1  0  0  0  0
 32 35  2  0  0  0  0
 34 36  2  0  0  0  0
 34 38  1  0  0  0  0
 35 37  1  0  0  0  0
 35 77  1  0  0  0  0
 36 40  1  0  0  0  0
 37 42  1  0  0  0  0
 38 41  2  0  0  0  0
 38 78  1  0  0  0  0
 39 44  1  0  0  0  0
 39 45  1  0  0  0  0
 39 46  1  0  0  0  0
 40 43  2  0  0  0  0
 40 79  1  0  0  0  0
 41 43  1  0  0  0  0
 41 80  1  0  0  0  0
 42 47  2  0  0  0  0
 44 81  1  0  0  0  0
 44 82  1  0  0  0  0
 44 83  1  0  0  0  0
 45 84  1  0  0  0  0
 45 85  1  0  0  0  0
 45 86  1  0  0  0  0
 46 87  1  0  0  0  0
 46 88  1  0  0  0  0
 46 89  1  0  0  0  0
 47 90  1  0  0  0  0
 48 49  1  0  0  0  0
 49 51  1  0  0  0  0
 49 91  1  0  0  0  0
 49 92  1  0  0  0  0
 50 93  1  0  0  0  0
 50 94  1  0  0  0  0
 50 95  1  0  0  0  0
 51 96  1  0  0  0  0
 51 97  1  0  0  0  0
 51 98  1  0  0  0  0
M  END
> <PUBCHEM_COMPOUND_CID>
500731
> <PUBCHEM_COMPOUND_CANONICALIZED>
1
> <PUBCHEM_CACTVS_COMPLEXITY>
1320
> <PUBCHEM_CACTVS_HBOND_ACCEPTOR>
11
> <PUBCHEM_CACTVS_HBOND_DONOR>
3
> <PUBCHEM_CACTVS_ROTATABLE_BOND>
14
> <PUBCHEM_CACTVS_SUBSKEYS>
AAADcfB/vABAAAAAAAAAAAAAGAAAAWLAAAA8QAAAAAAAAACx/AAAHgQQCAAAD/zl3gayz/PIFgisAyXyXACC+KBhKjgImLW+bJkOZvLksbufeCjm1hn46Ae68e8PIAAAAgACAABAAAAEAAQAAAAAAAAAAA==
> <PUBCHEM_IUPAC_OPENEYE_NAME>
(2R)-1-[[(2S,4R)-1-[(2S)-2-(tert-butoxycarbonylamino)-3,3-dimethyl-butanoyl]-4-[[2-(2-ethylthiazol-4-yl)-7-methoxy-4-quinolyl]oxy]pyrrolidine-2-carbonyl]amino]-2-vinyl-cyclopropanecarboxylic acid
> <PUBCHEM_IUPAC_CAS_NAME>
(2R)-1-[[[(2S,4R)-1-[(2S)-3,3-dimethyl-2-[[(2-methylpropan-2-yl)oxy-oxomethyl]amino]-1-oxobutyl]-4-[[2-(2-ethyl-4-thiazolyl)-7-methoxy-4-quinolinyl]oxy]-2-pyrrolidinyl]-oxomethyl]amino]-2-ethenyl-1-cyclopropanecarboxylic acid
> <PUBCHEM_IUPAC_NAME_MARKUP>
(2<I>R</I>)-1-[[(2<I>S</I>,4<I>R</I>)-1-[(2<I>S</I>)-3,3-dimethyl-2-[(2-methylpropan-2-yl)oxycarbonylamino]butanoyl]-4-[2-(2-ethyl-1,3-thiazol-4-yl)-7-methoxyquinolin-4-yl]oxypyrrolidine-2-carbonyl]amino]-2-ethenylcyclopropane-1-carboxylic acid
> <PUBCHEM_IUPAC_NAME>
(2R)-1-[[(2S,4R)-1-[(2S)-3,3-dimethyl-2-[(2-methylpropan-2-yl)oxycarbonylamino]butanoyl]-4-[2-(2-ethyl-1,3-thiazol-4-yl)-7-methoxyquinolin-4-yl]oxypyrrolidine-2-carbonyl]amino]-2-ethenylcyclopropane-1-carboxylic acid
> <PUBCHEM_IUPAC_SYSTEMATIC_NAME>
(2R)-1-[[(2S,4R)-1-[(2S)-3,3-dimethyl-2-[(2-methylpropan-2-yl)oxycarbonylamino]butanoyl]-4-[2-(2-ethyl-1,3-thiazol-4-yl)-7-methoxy-quinolin-4-yl]oxy-pyrrolidin-2-yl]carbonylamino]-2-ethenyl-cyclopropane-1-carboxylic acid
> <PUBCHEM_IUPAC_TRADITIONAL_NAME>
(2R)-1-[[(2S,4R)-1-[(2S)-2-(tert-butoxycarbonylamino)-3,3-dimethyl-butanoyl]-4-[[2-(2-ethylthiazol-4-yl)-7-methoxy-4-quinolyl]oxy]prolyl]amino]-2-vinyl-cyclopropanecarboxylic acid
> <PUBCHEM_IUPAC_INCHI>
InChI=1S/C37H47N5O8S/c1-10-20-17-37(20,33(45)46)41-31(43)27-15-22(18-42(27)32(44)30(35(3,4)5)40-34(47)50-36(6,7)8)49-28-16-25(26-19-51-29(11-2)39-26)38-24-14-21(48-9)12-13-23(24)28/h10,12-14,16,19-20,22,27,30H,1,11,15,17-18H2,2-9H3,(H,40,47)(H,41,43)(H,45,46)/t20-,22+,27-,30+,37?/m0/s1
> <PUBCHEM_IUPAC_INCHIKEY>
GBJXSGPGPVNMBG-SFMGRPKQSA-N
> <PUBCHEM_XLOGP3_AA>
5.7
> <PUBCHEM_EXACT_MASS>
721.31453465
> <PUBCHEM_MOLECULAR_FORMULA>
C37H47N5O8S
> <PUBCHEM_MOLECULAR_WEIGHT>
721.9
> <PUBCHEM_OPENEYE_CAN_SMILES>
CCC1=NC(=CS1)C2=NC3=C(C=CC(=C3)OC)C(=C2)OC4CC(N(C4)C(=O)C(C(C)(C)C)NC(=O)OC(C)(C)C)C(=O)NC5(CC5C=C)C(=O)O
> <PUBCHEM_OPENEYE_ISO_SMILES>
CCC1=NC(=CS1)C2=NC3=C(C=CC(=C3)OC)C(=C2)O[C@@H]4C[C@H](N(C4)C(=O)[C@H](C(C)(C)C)NC(=O)OC(C)(C)C)C(=O)NC5(C[C@@H]5C=C)C(=O)O
> <PUBCHEM_CACTVS_TPSA>
198
> <PUBCHEM_MONOISOTOPIC_WEIGHT>
721.31453465
> <PUBCHEM_TOTAL_CHARGE>
0
> <PUBCHEM_HEAVY_ATOM_COUNT>
51
> <PUBCHEM_ATOM_DEF_STEREO_COUNT>
4
> <PUBCHEM_ATOM_UDEF_STEREO_COUNT>
1
> <PUBCHEM_BOND_DEF_STEREO_COUNT>
0
> <PUBCHEM_BOND_UDEF_STEREO_COUNT>
0
> <PUBCHEM_ISOTOPIC_ATOM_COUNT>
0
> <PUBCHEM_COMPONENT_COUNT>
1
> <PUBCHEM_CACTVS_TAUTO_COUNT>
-1
> <PUBCHEM_COORDINATE_TYPE>
1
5
255
> <PUBCHEM_BONDANNOTATIONS>
1  47  8
1  48  8
27  12  5
13  36  8
13  37  8
14  42  8
14  48  8
15  18  3
16  19  6
20  21  6
32  34  8
32  35  8
34  36  8
34  38  8
35  37  8
36  40  8
38  41  8
23  4  5
40  43  8
41  43  8
42  47  8
$$$$
