500748
  -OEChem-10302200282D
101106  0     1  0  0  0  0  0999 V2000
    9.2128   -4.9227    0.0000 S   0  0  0  0  0  0  0  0  0  0  0  0
   12.2900   -4.2886    0.0000 S   0  0  0  0  0  0  0  0  0  0  0  0
   12.8249   -0.3020    0.0000 O   0  0  0  0  0  0  0  0  0  0  0  0
   11.2426   -1.0065    0.0000 O   0  0  0  0  0  0  0  0  0  0  0  0
    6.3981   -0.7203    0.0000 O   0  0  0  0  0  0  0  0  0  0  0  0
   10.2480   -0.9019    0.0000 O   0  0  0  0  0  0  0  0  0  0  0  0
    9.7480    2.0002    0.0000 O   0  0  0  0  0  0  0  0  0  0  0  0
    5.5889    3.3047    0.0000 O   0  0  0  0  0  0  0  0  0  0  0  0
    6.9902    4.3228    0.0000 O   0  0  0  0  0  0  0  0  0  0  0  0
    2.8680   -3.7444    0.0000 O   0  0  0  0  0  0  0  0  0  0  0  0
   10.4291    0.8206    0.0000 N   0  0  0  0  0  0  0  0  0  0  0  0
    8.3468    0.9822    0.0000 N   0  0  0  0  0  0  0  0  0  0  0  0
    7.1712    2.6002    0.0000 N   0  0  0  0  0  0  0  0  0  0  0  0
    6.3981   -3.7203    0.0000 N   0  0  0  0  0  0  0  0  0  0  0  0
    9.0437   -3.3135    0.0000 N   0  0  0  0  0  0  0  0  0  0  0  0
   11.2073   -3.0861    0.0000 N   0  0  0  0  0  0  0  0  0  0  0  0
   11.4236    0.7161    0.0000 C   0  0  3  0  0  0  0  0  0  0  0  0
   11.5281    1.7106    0.0000 C   0  0  2  0  0  0  0  0  0  0  0  0
   12.3371    1.1228    0.0000 C   0  0  0  0  0  0  0  0  0  0  0  0
   11.8303   -0.1975    0.0000 C   0  0  0  0  0  0  0  0  0  0  0  0
   11.1214    2.6242    0.0000 C   0  0  0  0  0  0  0  0  0  0  0  0
    8.8468    0.1161    0.0000 C   0  0  2  0  0  0  0  0  0  0  0  0
    9.8413    0.0116    0.0000 C   0  0  0  0  0  0  0  0  0  0  0  0
    8.1776   -0.6270    0.0000 C   0  0  0  0  0  0  0  0  0  0  0  0
    7.2641   -0.2203    0.0000 C   0  0  2  0  0  0  0  0  0  0  0  0
    7.3686    0.7742    0.0000 C   0  0  0  0  0  0  0  0  0  0  0  0
    8.7535    1.8957    0.0000 C   0  0  0  0  0  0  0  0  0  0  0  0
   11.7092    3.4332    0.0000 C   0  0  0  0  0  0  0  0  0  0  0  0
    8.1657    2.7047    0.0000 C   0  0  2  0  0  0  0  0  0  0  0  0
    8.5725    3.6183    0.0000 C   0  0  0  0  0  0  0  0  0  0  0  0
    8.9792    4.5318    0.0000 C   0  0  0  0  0  0  0  0  0  0  0  0
    7.6589    4.0250    0.0000 C   0  0  0  0  0  0  0  0  0  0  0  0
    9.4860    3.2115    0.0000 C   0  0  0  0  0  0  0  0  0  0  0  0
    6.3981   -1.7203    0.0000 C   0  0  0  0  0  0  0  0  0  0  0  0
    5.5320   -2.2203    0.0000 C   0  0  0  0  0  0  0  0  0  0  0  0
    6.5834    3.4092    0.0000 C   0  0  0  0  0  0  0  0  0  0  0  0
    7.2641   -2.2203    0.0000 C   0  0  0  0  0  0  0  0  0  0  0  0
    5.5320   -3.2203    0.0000 C   0  0  0  0  0  0  0  0  0  0  0  0
    7.2641   -3.2203    0.0000 C   0  0  0  0  0  0  0  0  0  0  0  0
    4.6381   -1.6856    0.0000 C   0  0  0  0  0  0  0  0  0  0  0  0
    5.0011    4.1137    0.0000 C   0  0  0  0  0  0  0  0  0  0  0  0
    4.6381   -3.7549    0.0000 C   0  0  0  0  0  0  0  0  0  0  0  0
    3.7320   -2.1995    0.0000 C   0  0  0  0  0  0  0  0  0  0  0  0
    8.1301   -3.7203    0.0000 C   0  0  0  0  0  0  0  0  0  0  0  0
    3.7320   -3.2411    0.0000 C   0  0  0  0  0  0  0  0  0  0  0  0
    4.4133    4.9227    0.0000 C   0  0  0  0  0  0  0  0  0  0  0  0
    4.1921    3.5259    0.0000 C   0  0  0  0  0  0  0  0  0  0  0  0
    5.8101    4.7015    0.0000 C   0  0  0  0  0  0  0  0  0  0  0  0
    8.2346   -4.7148    0.0000 C   0  0  0  0  0  0  0  0  0  0  0  0
    9.7128   -4.0567    0.0000 C   0  0  0  0  0  0  0  0  0  0  0  0
    2.0000   -3.2478    0.0000 C   0  0  0  0  0  0  0  0  0  0  0  0
   10.7073   -3.9522    0.0000 C   0  0  0  0  0  0  0  0  0  0  0  0
   11.3765   -4.6953    0.0000 C   0  0  0  0  0  0  0  0  0  0  0  0
   12.1855   -3.2940    0.0000 C   0  0  0  0  0  0  0  0  0  0  0  0
   12.9286   -2.6249    0.0000 C   0  0  0  0  0  0  0  0  0  0  0  0
   12.0100    2.1008    0.0000 H   0  0  0  0  0  0  0  0  0  0  0  0
   12.6838    0.6088    0.0000 H   0  0  0  0  0  0  0  0  0  0  0  0
   12.7831    1.5535    0.0000 H   0  0  0  0  0  0  0  0  0  0  0  0
   10.1769    1.3870    0.0000 H   0  0  0  0  0  0  0  0  0  0  0  0
   10.5048    2.6890    0.0000 H   0  0  0  0  0  0  0  0  0  0  0  0
    9.1844    0.6361    0.0000 H   0  0  0  0  0  0  0  0  0  0  0  0
    7.8676   -1.1640    0.0000 H   0  0  0  0  0  0  0  0  0  0  0  0
    8.6792   -0.9914    0.0000 H   0  0  0  0  0  0  0  0  0  0  0  0
    6.7441    0.1174    0.0000 H   0  0  0  0  0  0  0  0  0  0  0  0
    7.3038    1.3908    0.0000 H   0  0  0  0  0  0  0  0  0  0  0  0
    6.7486    0.7742    0.0000 H   0  0  0  0  0  0  0  0  0  0  0  0
   12.3258    3.3684    0.0000 H   0  0  0  0  0  0  0  0  0  0  0  0
   11.4570    3.9996    0.0000 H   0  0  0  0  0  0  0  0  0  0  0  0
    7.8013    3.2063    0.0000 H   0  0  0  0  0  0  0  0  0  0  0  0
   13.0770   -0.8684    0.0000 H   0  0  0  0  0  0  0  0  0  0  0  0
    6.9190    2.0338    0.0000 H   0  0  0  0  0  0  0  0  0  0  0  0
    9.5456    4.2796    0.0000 H   0  0  0  0  0  0  0  0  0  0  0  0
    9.2314    5.0982    0.0000 H   0  0  0  0  0  0  0  0  0  0  0  0
    8.4128    4.7840    0.0000 H   0  0  0  0  0  0  0  0  0  0  0  0
    7.9111    4.5914    0.0000 H   0  0  0  0  0  0  0  0  0  0  0  0
    7.0925    4.2772    0.0000 H   0  0  0  0  0  0  0  0  0  0  0  0
    7.4067    3.4586    0.0000 H   0  0  0  0  0  0  0  0  0  0  0  0
    9.2338    2.6451    0.0000 H   0  0  0  0  0  0  0  0  0  0  0  0
   10.0524    2.9594    0.0000 H   0  0  0  0  0  0  0  0  0  0  0  0
    9.7382    3.7779    0.0000 H   0  0  0  0  0  0  0  0  0  0  0  0
    7.8010   -1.9103    0.0000 H   0  0  0  0  0  0  0  0  0  0  0  0
    4.6453   -1.0657    0.0000 H   0  0  0  0  0  0  0  0  0  0  0  0
    4.6453   -4.3749    0.0000 H   0  0  0  0  0  0  0  0  0  0  0  0
    3.1963   -1.8874    0.0000 H   0  0  0  0  0  0  0  0  0  0  0  0
    4.9149    5.2871    0.0000 H   0  0  0  0  0  0  0  0  0  0  0  0
    4.0489    5.4243    0.0000 H   0  0  0  0  0  0  0  0  0  0  0  0
    3.9117    4.5583    0.0000 H   0  0  0  0  0  0  0  0  0  0  0  0
    3.8277    4.0275    0.0000 H   0  0  0  0  0  0  0  0  0  0  0  0
    3.6905    3.1615    0.0000 H   0  0  0  0  0  0  0  0  0  0  0  0
    4.5565    3.0243    0.0000 H   0  0  0  0  0  0  0  0  0  0  0  0
    6.1746    4.1999    0.0000 H   0  0  0  0  0  0  0  0  0  0  0  0
    6.3117    5.0659    0.0000 H   0  0  0  0  0  0  0  0  0  0  0  0
    5.4457    5.2031    0.0000 H   0  0  0  0  0  0  0  0  0  0  0  0
    7.7739   -5.1297    0.0000 H   0  0  0  0  0  0  0  0  0  0  0  0
    2.3079   -2.7096    0.0000 H   0  0  0  0  0  0  0  0  0  0  0  0
    1.4619   -2.9398    0.0000 H   0  0  0  0  0  0  0  0  0  0  0  0
    1.6921   -3.7859    0.0000 H   0  0  0  0  0  0  0  0  0  0  0  0
   11.2475   -5.3018    0.0000 H   0  0  0  0  0  0  0  0  0  0  0  0
   13.3435   -3.0857    0.0000 H   0  0  0  0  0  0  0  0  0  0  0  0
   13.3894   -2.2100    0.0000 H   0  0  0  0  0  0  0  0  0  0  0  0
   12.5138   -2.1642    0.0000 H   0  0  0  0  0  0  0  0  0  0  0  0
  1 49  1  0  0  0  0
  1 50  1  0  0  0  0
  2 53  1  0  0  0  0
  2 54  1  0  0  0  0
  3 20  1  0  0  0  0
  3 70  1  0  0  0  0
  4 20  2  0  0  0  0
 25  5  1  1  0  0  0
  5 34  1  0  0  0  0
  6 23  2  0  0  0  0
  7 27  2  0  0  0  0
  8 36  1  0  0  0  0
  8 41  1  0  0  0  0
  9 36  2  0  0  0  0
 10 45  1  0  0  0  0
 10 51  1  0  0  0  0
 11 17  1  0  0  0  0
 11 23  1  0  0  0  0
 11 59  1  0  0  0  0
 12 22  1  0  0  0  0
 12 26  1  0  0  0  0
 12 27  1  0  0  0  0
 29 13  1  1  0  0  0
 13 36  1  0  0  0  0
 13 71  1  0  0  0  0
 14 38  1  0  0  0  0
 14 39  2  0  0  0  0
 15 44  1  0  0  0  0
 15 50  2  0  0  0  0
 16 52  1  0  0  0  0
 16 54  2  0  0  0  0
 17 18  1  0  0  0  0
 17 19  1  0  0  0  0
 17 20  1  0  0  0  0
 18 19  1  0  0  0  0
 18 21  1  1  0  0  0
 18 56  1  0  0  0  0
 19 57  1  0  0  0  0
 19 58  1  0  0  0  0
 21 28  2  0  0  0  0
 21 60  1  0  0  0  0
 22 23  1  6  0  0  0
 22 24  1  0  0  0  0
 22 61  1  0  0  0  0
 24 25  1  0  0  0  0
 24 62  1  0  0  0  0
 24 63  1  0  0  0  0
 25 26  1  0  0  0  0
 25 64  1  0  0  0  0
 26 65  1  0  0  0  0
 26 66  1  0  0  0  0
 27 29  1  0  0  0  0
 28 67  1  0  0  0  0
 28 68  1  0  0  0  0
 29 30  1  0  0  0  0
 29 69  1  0  0  0  0
 30 31  1  0  0  0  0
 30 32  1  0  0  0  0
 30 33  1  0  0  0  0
 31 72  1  0  0  0  0
 31 73  1  0  0  0  0
 31 74  1  0  0  0  0
 32 75  1  0  0  0  0
 32 76  1  0  0  0  0
 32 77  1  0  0  0  0
 33 78  1  0  0  0  0
 33 79  1  0  0  0  0
 33 80  1  0  0  0  0
 34 35  1  0  0  0  0
 34 37  2  0  0  0  0
 35 38  2  0  0  0  0
 35 40  1  0  0  0  0
 37 39  1  0  0  0  0
 37 81  1  0  0  0  0
 38 42  1  0  0  0  0
 39 44  1  0  0  0  0
 40 43  2  0  0  0  0
 40 82  1  0  0  0  0
 41 46  1  0  0  0  0
 41 47  1  0  0  0  0
 41 48  1  0  0  0  0
 42 45  2  0  0  0  0
 42 83  1  0  0  0  0
 43 45  1  0  0  0  0
 43 84  1  0  0  0  0
 44 49  2  0  0  0  0
 46 85  1  0  0  0  0
 46 86  1  0  0  0  0
 46 87  1  0  0  0  0
 47 88  1  0  0  0  0
 47 89  1  0  0  0  0
 47 90  1  0  0  0  0
 48 91  1  0  0  0  0
 48 92  1  0  0  0  0
 48 93  1  0  0  0  0
 49 94  1  0  0  0  0
 50 52  1  0  0  0  0
 51 95  1  0  0  0  0
 51 96  1  0  0  0  0
 51 97  1  0  0  0  0
 52 53  2  0  0  0  0
 53 98  1  0  0  0  0
 54 55  1  0  0  0  0
 55 99  1  0  0  0  0
 55100  1  0  0  0  0
 55101  1  0  0  0  0
M  END
> <PUBCHEM_COMPOUND_CID>
500748
> <PUBCHEM_COMPOUND_CANONICALIZED>
1
> <PUBCHEM_CACTVS_COMPLEXITY>
1460
> <PUBCHEM_CACTVS_HBOND_ACCEPTOR>
13
> <PUBCHEM_CACTVS_HBOND_DONOR>
3
> <PUBCHEM_CACTVS_ROTATABLE_BOND>
14
> <PUBCHEM_CACTVS_SUBSKEYS>
AAADcfB/vABgAAAAAAAAAAAAGAAAAWLFgAA8QAAAAAAAAACx/gAAHgQQCAAAD/zl3gayz/PIFgisAyXyXACC+KBhKjgImLW+bJkOZvLksbufeCjm1hn46Ae68e8PIAAAAgACAABAAAAEAAQAAAAAAAAAAA==
> <PUBCHEM_IUPAC_OPENEYE_NAME>
(2R)-1-[[(2S,4R)-1-[(2S)-2-(tert-butoxycarbonylamino)-3,3-dimethyl-butanoyl]-4-[[7-methoxy-2-[2-(2-methylthiazol-4-yl)thiazol-4-yl]-4-quinolyl]oxy]pyrrolidine-2-carbonyl]amino]-2-vinyl-cyclopropanecarboxylic acid
> <PUBCHEM_IUPAC_CAS_NAME>
(2R)-1-[[[(2S,4R)-1-[(2S)-3,3-dimethyl-2-[[(2-methylpropan-2-yl)oxy-oxomethyl]amino]-1-oxobutyl]-4-[[7-methoxy-2-[2-(2-methyl-4-thiazolyl)-4-thiazolyl]-4-quinolinyl]oxy]-2-pyrrolidinyl]-oxomethyl]amino]-2-ethenyl-1-cyclopropanecarboxylic acid
> <PUBCHEM_IUPAC_NAME_MARKUP>
(2<I>R</I>)-1-[[(2<I>S</I>,4<I>R</I>)-1-[(2<I>S</I>)-3,3-dimethyl-2-[(2-methylpropan-2-yl)oxycarbonylamino]butanoyl]-4-[7-methoxy-2-[2-(2-methyl-1,3-thiazol-4-yl)-1,3-thiazol-4-yl]quinolin-4-yl]oxypyrrolidine-2-carbonyl]amino]-2-ethenylcyclopropane-1-carboxylic acid
> <PUBCHEM_IUPAC_NAME>
(2R)-1-[[(2S,4R)-1-[(2S)-3,3-dimethyl-2-[(2-methylpropan-2-yl)oxycarbonylamino]butanoyl]-4-[7-methoxy-2-[2-(2-methyl-1,3-thiazol-4-yl)-1,3-thiazol-4-yl]quinolin-4-yl]oxypyrrolidine-2-carbonyl]amino]-2-ethenylcyclopropane-1-carboxylic acid
> <PUBCHEM_IUPAC_SYSTEMATIC_NAME>
(2R)-1-[[(2S,4R)-1-[(2S)-3,3-dimethyl-2-[(2-methylpropan-2-yl)oxycarbonylamino]butanoyl]-4-[7-methoxy-2-[2-(2-methyl-1,3-thiazol-4-yl)-1,3-thiazol-4-yl]quinolin-4-yl]oxy-pyrrolidin-2-yl]carbonylamino]-2-ethenyl-cyclopropane-1-carboxylic acid
> <PUBCHEM_IUPAC_TRADITIONAL_NAME>
(2R)-1-[[(2S,4R)-1-[(2S)-2-(tert-butoxycarbonylamino)-3,3-dimethyl-butanoyl]-4-[[7-methoxy-2-[2-(2-methylthiazol-4-yl)thiazol-4-yl]-4-quinolyl]oxy]prolyl]amino]-2-vinyl-cyclopropanecarboxylic acid
> <PUBCHEM_IUPAC_INCHI>
InChI=1S/C39H46N6O8S2/c1-10-21-16-39(21,35(48)49)44-32(46)29-14-23(17-45(29)34(47)31(37(3,4)5)43-36(50)53-38(6,7)8)52-30-15-26(41-25-13-22(51-9)11-12-24(25)30)27-18-55-33(42-27)28-19-54-20(2)40-28/h10-13,15,18-19,21,23,29,31H,1,14,16-17H2,2-9H3,(H,43,50)(H,44,46)(H,48,49)/t21-,23+,29-,31+,39?/m0/s1
> <PUBCHEM_IUPAC_INCHIKEY>
WQODNWYHXZILOL-UYXQJSPGSA-N
> <PUBCHEM_XLOGP3_AA>
6
> <PUBCHEM_EXACT_MASS>
790.28185479
> <PUBCHEM_MOLECULAR_FORMULA>
C39H46N6O8S2
> <PUBCHEM_MOLECULAR_WEIGHT>
791.0
> <PUBCHEM_OPENEYE_CAN_SMILES>
CC1=NC(=CS1)C2=NC(=CS2)C3=NC4=C(C=CC(=C4)OC)C(=C3)OC5CC(N(C5)C(=O)C(C(C)(C)C)NC(=O)OC(C)(C)C)C(=O)NC6(CC6C=C)C(=O)O
> <PUBCHEM_OPENEYE_ISO_SMILES>
CC1=NC(=CS1)C2=NC(=CS2)C3=NC4=C(C=CC(=C4)OC)C(=C3)O[C@@H]5C[C@H](N(C5)C(=O)[C@H](C(C)(C)C)NC(=O)OC(C)(C)C)C(=O)NC6(C[C@@H]6C=C)C(=O)O
> <PUBCHEM_CACTVS_TPSA>
239
> <PUBCHEM_MONOISOTOPIC_WEIGHT>
790.28185479
> <PUBCHEM_TOTAL_CHARGE>
0
> <PUBCHEM_HEAVY_ATOM_COUNT>
55
> <PUBCHEM_ATOM_DEF_STEREO_COUNT>
4
> <PUBCHEM_ATOM_UDEF_STEREO_COUNT>
1
> <PUBCHEM_BOND_DEF_STEREO_COUNT>
0
> <PUBCHEM_BOND_UDEF_STEREO_COUNT>
0
> <PUBCHEM_ISOTOPIC_ATOM_COUNT>
0
> <PUBCHEM_COMPONENT_COUNT>
1
> <PUBCHEM_CACTVS_TAUTO_COUNT>
-1
> <PUBCHEM_COORDINATE_TYPE>
1
5
255
> <PUBCHEM_BONDANNOTATIONS>
1  49  8
1  50  8
29  13  5
14  38  8
14  39  8
15  44  8
15  50  8
16  52  8
16  54  8
17  20  3
18  21  5
2  53  8
2  54  8
22  23  6
34  35  8
34  37  8
35  38  8
35  40  8
37  39  8
38  42  8
40  43  8
42  45  8
43  45  8
44  49  8
25  5  5
52  53  8
$$$$
