500711
  -OEChem-10302200282D
 90 93  0     1  0  0  0  0  0999 V2000
   10.9118   -2.1258    0.0000 O   0  0  0  0  0  0  0  0  0  0  0  0
    9.3295   -2.8302    0.0000 O   0  0  0  0  0  0  0  0  0  0  0  0
    4.6660   -0.8215    0.0000 O   0  0  0  0  0  0  0  0  0  0  0  0
    8.6970    0.7194    0.0000 O   0  0  0  0  0  0  0  0  0  0  0  0
    8.0160    1.8990    0.0000 O   0  0  0  0  0  0  0  0  0  0  0  0
    3.8569    3.2035    0.0000 O   0  0  0  0  0  0  0  0  0  0  0  0
    5.2581    4.2215    0.0000 O   0  0  0  0  0  0  0  0  0  0  0  0
    8.5160   -1.0032    0.0000 N   0  0  0  0  0  0  0  0  0  0  0  0
    6.6147    0.8809    0.0000 N   0  0  0  0  0  0  0  0  0  0  0  0
    5.4392    2.4990    0.0000 N   0  0  0  0  0  0  0  0  0  0  0  0
    4.6660   -3.8215    0.0000 N   0  0  0  0  0  0  0  0  0  0  0  0
    6.3981   -3.8215    0.0000 N   0  0  0  0  0  0  0  0  0  0  0  0
    9.5105   -1.1077    0.0000 C   0  0  3  0  0  0  0  0  0  0  0  0
   10.4241   -0.7010    0.0000 C   0  0  2  0  0  0  0  0  0  0  0  0
    9.6150   -0.1132    0.0000 C   0  0  0  0  0  0  0  0  0  0  0  0
    9.9172   -2.0212    0.0000 C   0  0  0  0  0  0  0  0  0  0  0  0
   11.4186   -0.8055    0.0000 C   0  0  0  0  0  0  0  0  0  0  0  0
    7.1147    0.0149    0.0000 C   0  0  2  0  0  0  0  0  0  0  0  0
    8.1093   -0.0896    0.0000 C   0  0  0  0  0  0  0  0  0  0  0  0
    6.4456   -0.7282    0.0000 C   0  0  0  0  0  0  0  0  0  0  0  0
    5.5321   -0.3215    0.0000 C   0  0  2  0  0  0  0  0  0  0  0  0
    5.6366    0.6730    0.0000 C   0  0  0  0  0  0  0  0  0  0  0  0
    7.0215    1.7945    0.0000 C   0  0  0  0  0  0  0  0  0  0  0  0
   12.0064    0.0035    0.0000 C   0  0  0  0  0  0  0  0  0  0  0  0
    6.4337    2.6035    0.0000 C   0  0  2  0  0  0  0  0  0  0  0  0
    6.8404    3.5170    0.0000 C   0  0  0  0  0  0  0  0  0  0  0  0
    7.2472    4.4306    0.0000 C   0  0  0  0  0  0  0  0  0  0  0  0
    5.9269    3.9238    0.0000 C   0  0  0  0  0  0  0  0  0  0  0  0
    7.7540    3.1103    0.0000 C   0  0  0  0  0  0  0  0  0  0  0  0
    4.6660   -1.8215    0.0000 C   0  0  0  0  0  0  0  0  0  0  0  0
    4.8514    3.3080    0.0000 C   0  0  0  0  0  0  0  0  0  0  0  0
    3.8000   -2.3215    0.0000 C   0  0  0  0  0  0  0  0  0  0  0  0
    5.5321   -2.3215    0.0000 C   0  0  0  0  0  0  0  0  0  0  0  0
    3.8000   -3.3215    0.0000 C   0  0  0  0  0  0  0  0  0  0  0  0
    5.5321   -3.3215    0.0000 C   0  0  0  0  0  0  0  0  0  0  0  0
    2.9061   -1.7868    0.0000 C   0  0  0  0  0  0  0  0  0  0  0  0
    3.2691    4.0125    0.0000 C   0  0  0  0  0  0  0  0  0  0  0  0
    2.9061   -3.8562    0.0000 C   0  0  0  0  0  0  0  0  0  0  0  0
    2.0000   -2.3007    0.0000 C   0  0  0  0  0  0  0  0  0  0  0  0
    2.6813    4.8215    0.0000 C   0  0  0  0  0  0  0  0  0  0  0  0
    2.4601    3.4247    0.0000 C   0  0  0  0  0  0  0  0  0  0  0  0
    4.0781    4.6003    0.0000 C   0  0  0  0  0  0  0  0  0  0  0  0
    2.0000   -3.3423    0.0000 C   0  0  0  0  0  0  0  0  0  0  0  0
    6.3981   -4.8215    0.0000 C   0  0  0  0  0  0  0  0  0  0  0  0
    7.2641   -3.3215    0.0000 C   0  0  0  0  0  0  0  0  0  0  0  0
   10.6462   -0.1221    0.0000 H   0  0  0  0  0  0  0  0  0  0  0  0
    9.8868    0.4441    0.0000 H   0  0  0  0  0  0  0  0  0  0  0  0
    9.0191    0.0577    0.0000 H   0  0  0  0  0  0  0  0  0  0  0  0
    8.1516   -1.5048    0.0000 H   0  0  0  0  0  0  0  0  0  0  0  0
   11.6708   -1.3719    0.0000 H   0  0  0  0  0  0  0  0  0  0  0  0
    7.4524    0.5349    0.0000 H   0  0  0  0  0  0  0  0  0  0  0  0
    6.1356   -1.2652    0.0000 H   0  0  0  0  0  0  0  0  0  0  0  0
    6.9472   -1.0927    0.0000 H   0  0  0  0  0  0  0  0  0  0  0  0
    5.5645   -0.9406    0.0000 H   0  0  0  0  0  0  0  0  0  0  0  0
    5.5718    1.2896    0.0000 H   0  0  0  0  0  0  0  0  0  0  0  0
    5.0166    0.6730    0.0000 H   0  0  0  0  0  0  0  0  0  0  0  0
    6.0693    3.1051    0.0000 H   0  0  0  0  0  0  0  0  0  0  0  0
   12.6230   -0.0613    0.0000 H   0  0  0  0  0  0  0  0  0  0  0  0
   11.7542    0.5699    0.0000 H   0  0  0  0  0  0  0  0  0  0  0  0
   11.1640   -2.6922    0.0000 H   0  0  0  0  0  0  0  0  0  0  0  0
    5.1870    1.9326    0.0000 H   0  0  0  0  0  0  0  0  0  0  0  0
    7.8136    4.1784    0.0000 H   0  0  0  0  0  0  0  0  0  0  0  0
    7.4993    4.9970    0.0000 H   0  0  0  0  0  0  0  0  0  0  0  0
    6.6808    4.6828    0.0000 H   0  0  0  0  0  0  0  0  0  0  0  0
    6.1791    4.4902    0.0000 H   0  0  0  0  0  0  0  0  0  0  0  0
    5.3605    4.1760    0.0000 H   0  0  0  0  0  0  0  0  0  0  0  0
    5.6747    3.3574    0.0000 H   0  0  0  0  0  0  0  0  0  0  0  0
    7.5018    2.5439    0.0000 H   0  0  0  0  0  0  0  0  0  0  0  0
    8.3204    2.8581    0.0000 H   0  0  0  0  0  0  0  0  0  0  0  0
    8.0062    3.6767    0.0000 H   0  0  0  0  0  0  0  0  0  0  0  0
    6.0690   -2.0115    0.0000 H   0  0  0  0  0  0  0  0  0  0  0  0
    2.9132   -1.1669    0.0000 H   0  0  0  0  0  0  0  0  0  0  0  0
    2.9132   -4.4761    0.0000 H   0  0  0  0  0  0  0  0  0  0  0  0
    1.4643   -1.9886    0.0000 H   0  0  0  0  0  0  0  0  0  0  0  0
    3.1829    5.1859    0.0000 H   0  0  0  0  0  0  0  0  0  0  0  0
    2.3169    5.3231    0.0000 H   0  0  0  0  0  0  0  0  0  0  0  0
    2.1797    4.4571    0.0000 H   0  0  0  0  0  0  0  0  0  0  0  0
    2.0956    3.9263    0.0000 H   0  0  0  0  0  0  0  0  0  0  0  0
    1.9585    3.0603    0.0000 H   0  0  0  0  0  0  0  0  0  0  0  0
    2.8245    2.9231    0.0000 H   0  0  0  0  0  0  0  0  0  0  0  0
    4.4425    4.0987    0.0000 H   0  0  0  0  0  0  0  0  0  0  0  0
    4.5797    4.9647    0.0000 H   0  0  0  0  0  0  0  0  0  0  0  0
    3.7137    5.1018    0.0000 H   0  0  0  0  0  0  0  0  0  0  0  0
    1.4643   -3.6544    0.0000 H   0  0  0  0  0  0  0  0  0  0  0  0
    5.7781   -4.8215    0.0000 H   0  0  0  0  0  0  0  0  0  0  0  0
    6.3981   -5.4415    0.0000 H   0  0  0  0  0  0  0  0  0  0  0  0
    7.0181   -4.8215    0.0000 H   0  0  0  0  0  0  0  0  0  0  0  0
    7.5741   -3.8584    0.0000 H   0  0  0  0  0  0  0  0  0  0  0  0
    7.8010   -3.0115    0.0000 H   0  0  0  0  0  0  0  0  0  0  0  0
    6.9541   -2.7846    0.0000 H   0  0  0  0  0  0  0  0  0  0  0  0
  1 16  1  0  0  0  0
  1 60  1  0  0  0  0
  2 16  2  0  0  0  0
 21  3  1  1  0  0  0
  3 30  1  0  0  0  0
  4 19  2  0  0  0  0
  5 23  2  0  0  0  0
  6 31  1  0  0  0  0
  6 37  1  0  0  0  0
  7 31  2  0  0  0  0
  8 13  1  0  0  0  0
  8 19  1  0  0  0  0
  8 49  1  0  0  0  0
  9 18  1  0  0  0  0
  9 22  1  0  0  0  0
  9 23  1  0  0  0  0
 25 10  1  1  0  0  0
 10 31  1  0  0  0  0
 10 61  1  0  0  0  0
 11 34  1  0  0  0  0
 11 35  2  0  0  0  0
 12 35  1  0  0  0  0
 12 44  1  0  0  0  0
 12 45  1  0  0  0  0
 13 14  1  0  0  0  0
 13 15  1  0  0  0  0
 13 16  1  0  0  0  0
 14 15  1  0  0  0  0
 14 17  1  6  0  0  0
 14 46  1  0  0  0  0
 15 47  1  0  0  0  0
 15 48  1  0  0  0  0
 17 24  2  0  0  0  0
 17 50  1  0  0  0  0
 18 19  1  6  0  0  0
 18 20  1  0  0  0  0
 18 51  1  0  0  0  0
 20 21  1  0  0  0  0
 20 52  1  0  0  0  0
 20 53  1  0  0  0  0
 21 22  1  0  0  0  0
 21 54  1  0  0  0  0
 22 55  1  0  0  0  0
 22 56  1  0  0  0  0
 23 25  1  0  0  0  0
 24 58  1  0  0  0  0
 24 59  1  0  0  0  0
 25 26  1  0  0  0  0
 25 57  1  0  0  0  0
 26 27  1  0  0  0  0
 26 28  1  0  0  0  0
 26 29  1  0  0  0  0
 27 62  1  0  0  0  0
 27 63  1  0  0  0  0
 27 64  1  0  0  0  0
 28 65  1  0  0  0  0
 28 66  1  0  0  0  0
 28 67  1  0  0  0  0
 29 68  1  0  0  0  0
 29 69  1  0  0  0  0
 29 70  1  0  0  0  0
 30 32  1  0  0  0  0
 30 33  2  0  0  0  0
 32 34  1  0  0  0  0
 32 36  2  0  0  0  0
 33 35  1  0  0  0  0
 33 71  1  0  0  0  0
 34 38  2  0  0  0  0
 36 39  1  0  0  0  0
 36 72  1  0  0  0  0
 37 40  1  0  0  0  0
 37 41  1  0  0  0  0
 37 42  1  0  0  0  0
 38 43  1  0  0  0  0
 38 73  1  0  0  0  0
 39 43  2  0  0  0  0
 39 74  1  0  0  0  0
 40 75  1  0  0  0  0
 40 76  1  0  0  0  0
 40 77  1  0  0  0  0
 41 78  1  0  0  0  0
 41 79  1  0  0  0  0
 41 80  1  0  0  0  0
 42 81  1  0  0  0  0
 42 82  1  0  0  0  0
 42 83  1  0  0  0  0
 43 84  1  0  0  0  0
 44 85  1  0  0  0  0
 44 86  1  0  0  0  0
 44 87  1  0  0  0  0
 45 88  1  0  0  0  0
 45 89  1  0  0  0  0
 45 90  1  0  0  0  0
M  END
> <PUBCHEM_COMPOUND_CID>
500711
> <PUBCHEM_COMPOUND_CANONICALIZED>
1
> <PUBCHEM_CACTVS_COMPLEXITY>
1150
> <PUBCHEM_CACTVS_HBOND_ACCEPTOR>
9
> <PUBCHEM_CACTVS_HBOND_DONOR>
3
> <PUBCHEM_CACTVS_ROTATABLE_BOND>
12
> <PUBCHEM_CACTVS_SUBSKEYS>
AAADcfB/uAAAAAAAAAAAAAAAGAAAAWAAAAA8QAAAAAAAAACx8AAAHgAQCAAAD/zhngYz/vPIFgCoAyfyfACCiCkhIiAJmKG+bJmOZvLEsbufeCju1hvY6Ce6waAPAAAAAAACAAAAAAAAAAQAAAAAAAAAAA==
> <PUBCHEM_IUPAC_OPENEYE_NAME>
(2R)-1-[[(2S,4R)-1-[(2S)-2-(tert-butoxycarbonylamino)-3,3-dimethyl-butanoyl]-4-[[2-(dimethylamino)-4-quinolyl]oxy]pyrrolidine-2-carbonyl]amino]-2-vinyl-cyclopropanecarboxylic acid
> <PUBCHEM_IUPAC_CAS_NAME>
(2R)-1-[[[(2S,4R)-4-[[2-(dimethylamino)-4-quinolinyl]oxy]-1-[(2S)-3,3-dimethyl-2-[[(2-methylpropan-2-yl)oxy-oxomethyl]amino]-1-oxobutyl]-2-pyrrolidinyl]-oxomethyl]amino]-2-ethenyl-1-cyclopropanecarboxylic acid
> <PUBCHEM_IUPAC_NAME_MARKUP>
(2<I>R</I>)-1-[[(2<I>S</I>,4<I>R</I>)-4-[2-(dimethylamino)quinolin-4-yl]oxy-1-[(2<I>S</I>)-3,3-dimethyl-2-[(2-methylpropan-2-yl)oxycarbonylamino]butanoyl]pyrrolidine-2-carbonyl]amino]-2-ethenylcyclopropane-1-carboxylic acid
> <PUBCHEM_IUPAC_NAME>
(2R)-1-[[(2S,4R)-4-[2-(dimethylamino)quinolin-4-yl]oxy-1-[(2S)-3,3-dimethyl-2-[(2-methylpropan-2-yl)oxycarbonylamino]butanoyl]pyrrolidine-2-carbonyl]amino]-2-ethenylcyclopropane-1-carboxylic acid
> <PUBCHEM_IUPAC_SYSTEMATIC_NAME>
(2R)-1-[[(2S,4R)-4-[2-(dimethylamino)quinolin-4-yl]oxy-1-[(2S)-3,3-dimethyl-2-[(2-methylpropan-2-yl)oxycarbonylamino]butanoyl]pyrrolidin-2-yl]carbonylamino]-2-ethenyl-cyclopropane-1-carboxylic acid
> <PUBCHEM_IUPAC_TRADITIONAL_NAME>
(2R)-1-[[(2S,4R)-1-[(2S)-2-(tert-butoxycarbonylamino)-3,3-dimethyl-butanoyl]-4-[[2-(dimethylamino)-4-quinolyl]oxy]prolyl]amino]-2-vinyl-cyclopropanecarboxylic acid
> <PUBCHEM_IUPAC_INCHI>
InChI=1S/C33H45N5O7/c1-10-19-17-33(19,29(41)42)36-27(39)23-15-20(44-24-16-25(37(8)9)34-22-14-12-11-13-21(22)24)18-38(23)28(40)26(31(2,3)4)35-30(43)45-32(5,6)7/h10-14,16,19-20,23,26H,1,15,17-18H2,2-9H3,(H,35,43)(H,36,39)(H,41,42)/t19-,20+,23-,26+,33?/m0/s1
> <PUBCHEM_IUPAC_INCHIKEY>
ZJXBWJHUIAINBP-HUUOEHCUSA-N
> <PUBCHEM_XLOGP3_AA>
4.7
> <PUBCHEM_EXACT_MASS>
623.33189879
> <PUBCHEM_MOLECULAR_FORMULA>
C33H45N5O7
> <PUBCHEM_MOLECULAR_WEIGHT>
623.7
> <PUBCHEM_OPENEYE_CAN_SMILES>
CC(C)(C)C(C(=O)N1CC(CC1C(=O)NC2(CC2C=C)C(=O)O)OC3=CC(=NC4=CC=CC=C43)N(C)C)NC(=O)OC(C)(C)C
> <PUBCHEM_OPENEYE_ISO_SMILES>
CC(C)(C)[C@@H](C(=O)N1C[C@@H](C[C@H]1C(=O)NC2(C[C@@H]2C=C)C(=O)O)OC3=CC(=NC4=CC=CC=C43)N(C)C)NC(=O)OC(C)(C)C
> <PUBCHEM_CACTVS_TPSA>
150
> <PUBCHEM_MONOISOTOPIC_WEIGHT>
623.33189879
> <PUBCHEM_TOTAL_CHARGE>
0
> <PUBCHEM_HEAVY_ATOM_COUNT>
45
> <PUBCHEM_ATOM_DEF_STEREO_COUNT>
4
> <PUBCHEM_ATOM_UDEF_STEREO_COUNT>
1
> <PUBCHEM_BOND_DEF_STEREO_COUNT>
0
> <PUBCHEM_BOND_UDEF_STEREO_COUNT>
0
> <PUBCHEM_ISOTOPIC_ATOM_COUNT>
0
> <PUBCHEM_COMPONENT_COUNT>
1
> <PUBCHEM_CACTVS_TAUTO_COUNT>
-1
> <PUBCHEM_COORDINATE_TYPE>
1
5
255
> <PUBCHEM_BONDANNOTATIONS>
25  10  5
11  34  8
11  35  8
13  16  3
14  17  6
18  19  6
21  3  5
30  32  8
30  33  8
32  34  8
32  36  8
33  35  8
34  38  8
36  39  8
38  43  8
39  43  8
$$$$
