500737
  -OEChem-10302200282D
105109  0     1  0  0  0  0  0999 V2000
   12.8249   -0.2900    0.0000 O   0  0  0  0  0  0  0  0  0  0  0  0
   11.2426   -0.9945    0.0000 O   0  0  0  0  0  0  0  0  0  0  0  0
    6.3981   -0.7083    0.0000 O   0  0  0  0  0  0  0  0  0  0  0  0
   10.2480   -0.8900    0.0000 O   0  0  0  0  0  0  0  0  0  0  0  0
    9.7480    2.0122    0.0000 O   0  0  0  0  0  0  0  0  0  0  0  0
    5.5889    3.3167    0.0000 O   0  0  0  0  0  0  0  0  0  0  0  0
    6.9902    4.3347    0.0000 O   0  0  0  0  0  0  0  0  0  0  0  0
    2.8680   -3.7324    0.0000 O   0  0  0  0  0  0  0  0  0  0  0  0
   10.4291    0.8326    0.0000 N   0  0  0  0  0  0  0  0  0  0  0  0
    8.3468    0.9941    0.0000 N   0  0  0  0  0  0  0  0  0  0  0  0
    7.1712    2.6122    0.0000 N   0  0  0  0  0  0  0  0  0  0  0  0
    6.3981   -3.7083    0.0000 N   0  0  0  0  0  0  0  0  0  0  0  0
    9.7128   -4.0447    0.0000 N   0  0  0  0  0  0  0  0  0  0  0  0
    9.2128   -4.9107    0.0000 N   0  0  0  0  0  0  0  0  0  0  0  0
   11.4236    0.7281    0.0000 C   0  0  3  0  0  0  0  0  0  0  0  0
   11.5281    1.7226    0.0000 C   0  0  2  0  0  0  0  0  0  0  0  0
   12.3371    1.1348    0.0000 C   0  0  0  0  0  0  0  0  0  0  0  0
   11.8303   -0.1855    0.0000 C   0  0  0  0  0  0  0  0  0  0  0  0
   11.1214    2.6361    0.0000 C   0  0  0  0  0  0  0  0  0  0  0  0
    8.8468    0.1281    0.0000 C   0  0  2  0  0  0  0  0  0  0  0  0
    9.8413    0.0236    0.0000 C   0  0  0  0  0  0  0  0  0  0  0  0
    8.1776   -0.6150    0.0000 C   0  0  0  0  0  0  0  0  0  0  0  0
    7.2641   -0.2083    0.0000 C   0  0  2  0  0  0  0  0  0  0  0  0
    7.3686    0.7862    0.0000 C   0  0  0  0  0  0  0  0  0  0  0  0
   11.7092    3.4452    0.0000 C   0  0  0  0  0  0  0  0  0  0  0  0
    8.7535    1.9077    0.0000 C   0  0  0  0  0  0  0  0  0  0  0  0
    8.1657    2.7167    0.0000 C   0  0  2  0  0  0  0  0  0  0  0  0
    8.5725    3.6302    0.0000 C   0  0  0  0  0  0  0  0  0  0  0  0
    8.9792    4.5438    0.0000 C   0  0  0  0  0  0  0  0  0  0  0  0
    7.6589    4.0370    0.0000 C   0  0  0  0  0  0  0  0  0  0  0  0
    9.4860    3.2235    0.0000 C   0  0  0  0  0  0  0  0  0  0  0  0
    6.3981   -1.7083    0.0000 C   0  0  0  0  0  0  0  0  0  0  0  0
    5.5320   -2.2083    0.0000 C   0  0  0  0  0  0  0  0  0  0  0  0
    6.5834    3.4212    0.0000 C   0  0  0  0  0  0  0  0  0  0  0  0
    7.2641   -2.2083    0.0000 C   0  0  0  0  0  0  0  0  0  0  0  0
    5.5320   -3.2083    0.0000 C   0  0  0  0  0  0  0  0  0  0  0  0
    7.2641   -3.2083    0.0000 C   0  0  0  0  0  0  0  0  0  0  0  0
    4.6381   -1.6736    0.0000 C   0  0  0  0  0  0  0  0  0  0  0  0
    5.0011    4.1257    0.0000 C   0  0  0  0  0  0  0  0  0  0  0  0
    8.1301   -3.7083    0.0000 C   0  0  0  0  0  0  0  0  0  0  0  0
    4.6381   -3.7430    0.0000 C   0  0  0  0  0  0  0  0  0  0  0  0
    3.7320   -2.1875    0.0000 C   0  0  0  0  0  0  0  0  0  0  0  0
    3.7320   -3.2291    0.0000 C   0  0  0  0  0  0  0  0  0  0  0  0
    4.4133    4.9347    0.0000 C   0  0  0  0  0  0  0  0  0  0  0  0
    4.1921    3.5379    0.0000 C   0  0  0  0  0  0  0  0  0  0  0  0
    5.8101    4.7135    0.0000 C   0  0  0  0  0  0  0  0  0  0  0  0
    9.0437   -3.3016    0.0000 C   0  0  0  0  0  0  0  0  0  0  0  0
   10.7073   -3.9402    0.0000 C   0  0  0  0  0  0  0  0  0  0  0  0
    8.2346   -4.7028    0.0000 C   0  0  0  0  0  0  0  0  0  0  0  0
   11.7018   -3.8356    0.0000 C   0  0  0  0  0  0  0  0  0  0  0  0
   10.8118   -4.9347    0.0000 C   0  0  0  0  0  0  0  0  0  0  0  0
   10.6028   -2.9456    0.0000 C   0  0  0  0  0  0  0  0  0  0  0  0
    2.0000   -3.2358    0.0000 C   0  0  0  0  0  0  0  0  0  0  0  0
   12.0100    2.1128    0.0000 H   0  0  0  0  0  0  0  0  0  0  0  0
   12.6838    0.6208    0.0000 H   0  0  0  0  0  0  0  0  0  0  0  0
   12.7831    1.5655    0.0000 H   0  0  0  0  0  0  0  0  0  0  0  0
   10.1769    1.3990    0.0000 H   0  0  0  0  0  0  0  0  0  0  0  0
   10.5048    2.7010    0.0000 H   0  0  0  0  0  0  0  0  0  0  0  0
    9.1844    0.6481    0.0000 H   0  0  0  0  0  0  0  0  0  0  0  0
    7.8676   -1.1520    0.0000 H   0  0  0  0  0  0  0  0  0  0  0  0
    8.6792   -0.9795    0.0000 H   0  0  0  0  0  0  0  0  0  0  0  0
    6.7441    0.1294    0.0000 H   0  0  0  0  0  0  0  0  0  0  0  0
    7.3038    1.4028    0.0000 H   0  0  0  0  0  0  0  0  0  0  0  0
    6.7486    0.7862    0.0000 H   0  0  0  0  0  0  0  0  0  0  0  0
   12.3258    3.3804    0.0000 H   0  0  0  0  0  0  0  0  0  0  0  0
   11.4570    4.0116    0.0000 H   0  0  0  0  0  0  0  0  0  0  0  0
    7.8013    3.2183    0.0000 H   0  0  0  0  0  0  0  0  0  0  0  0
   13.0770   -0.8564    0.0000 H   0  0  0  0  0  0  0  0  0  0  0  0
    6.9190    2.0458    0.0000 H   0  0  0  0  0  0  0  0  0  0  0  0
    9.5456    4.2916    0.0000 H   0  0  0  0  0  0  0  0  0  0  0  0
    9.2314    5.1102    0.0000 H   0  0  0  0  0  0  0  0  0  0  0  0
    8.4128    4.7960    0.0000 H   0  0  0  0  0  0  0  0  0  0  0  0
    7.9111    4.6034    0.0000 H   0  0  0  0  0  0  0  0  0  0  0  0
    7.0925    4.2892    0.0000 H   0  0  0  0  0  0  0  0  0  0  0  0
    7.4067    3.4706    0.0000 H   0  0  0  0  0  0  0  0  0  0  0  0
    9.2338    2.6571    0.0000 H   0  0  0  0  0  0  0  0  0  0  0  0
   10.0524    2.9713    0.0000 H   0  0  0  0  0  0  0  0  0  0  0  0
    9.7382    3.7899    0.0000 H   0  0  0  0  0  0  0  0  0  0  0  0
    7.8010   -1.8983    0.0000 H   0  0  0  0  0  0  0  0  0  0  0  0
    4.6453   -1.0537    0.0000 H   0  0  0  0  0  0  0  0  0  0  0  0
    4.6453   -4.3629    0.0000 H   0  0  0  0  0  0  0  0  0  0  0  0
    3.1963   -1.8754    0.0000 H   0  0  0  0  0  0  0  0  0  0  0  0
    9.1726   -2.6951    0.0000 H   0  0  0  0  0  0  0  0  0  0  0  0
    4.9149    5.2991    0.0000 H   0  0  0  0  0  0  0  0  0  0  0  0
    4.0489    5.4363    0.0000 H   0  0  0  0  0  0  0  0  0  0  0  0
    3.9117    4.5703    0.0000 H   0  0  0  0  0  0  0  0  0  0  0  0
    3.8277    4.0395    0.0000 H   0  0  0  0  0  0  0  0  0  0  0  0
    3.6905    3.1735    0.0000 H   0  0  0  0  0  0  0  0  0  0  0  0
    4.5565    3.0363    0.0000 H   0  0  0  0  0  0  0  0  0  0  0  0
    6.1746    4.2119    0.0000 H   0  0  0  0  0  0  0  0  0  0  0  0
    6.3117    5.0779    0.0000 H   0  0  0  0  0  0  0  0  0  0  0  0
    5.4457    5.2150    0.0000 H   0  0  0  0  0  0  0  0  0  0  0  0
    7.7739   -5.1177    0.0000 H   0  0  0  0  0  0  0  0  0  0  0  0
   11.7667   -4.4522    0.0000 H   0  0  0  0  0  0  0  0  0  0  0  0
   12.3184   -3.7708    0.0000 H   0  0  0  0  0  0  0  0  0  0  0  0
   11.6370   -3.2190    0.0000 H   0  0  0  0  0  0  0  0  0  0  0  0
   10.1952   -4.9995    0.0000 H   0  0  0  0  0  0  0  0  0  0  0  0
   10.8767   -5.5513    0.0000 H   0  0  0  0  0  0  0  0  0  0  0  0
   11.4285   -4.8699    0.0000 H   0  0  0  0  0  0  0  0  0  0  0  0
   11.2194   -2.8808    0.0000 H   0  0  0  0  0  0  0  0  0  0  0  0
   10.5380   -2.3290    0.0000 H   0  0  0  0  0  0  0  0  0  0  0  0
    9.9862   -3.0105    0.0000 H   0  0  0  0  0  0  0  0  0  0  0  0
    2.3079   -2.6977    0.0000 H   0  0  0  0  0  0  0  0  0  0  0  0
    1.4619   -2.9279    0.0000 H   0  0  0  0  0  0  0  0  0  0  0  0
    1.6921   -3.7739    0.0000 H   0  0  0  0  0  0  0  0  0  0  0  0
  1 18  1  0  0  0  0
  1 68  1  0  0  0  0
  2 18  2  0  0  0  0
 23  3  1  1  0  0  0
  3 32  1  0  0  0  0
  4 21  2  0  0  0  0
  5 26  2  0  0  0  0
  6 34  1  0  0  0  0
  6 39  1  0  0  0  0
  7 34  2  0  0  0  0
  8 43  1  0  0  0  0
  8 53  1  0  0  0  0
  9 15  1  0  0  0  0
  9 21  1  0  0  0  0
  9 57  1  0  0  0  0
 10 20  1  0  0  0  0
 10 24  1  0  0  0  0
 10 26  1  0  0  0  0
 27 11  1  1  0  0  0
 11 34  1  0  0  0  0
 11 69  1  0  0  0  0
 12 36  1  0  0  0  0
 12 37  2  0  0  0  0
 13 14  1  0  0  0  0
 13 47  1  0  0  0  0
 13 48  1  0  0  0  0
 14 49  2  0  0  0  0
 15 16  1  0  0  0  0
 15 17  1  0  0  0  0
 15 18  1  0  0  0  0
 16 17  1  0  0  0  0
 16 19  1  1  0  0  0
 16 54  1  0  0  0  0
 17 55  1  0  0  0  0
 17 56  1  0  0  0  0
 19 25  2  0  0  0  0
 19 58  1  0  0  0  0
 20 21  1  6  0  0  0
 20 22  1  0  0  0  0
 20 59  1  0  0  0  0
 22 23  1  0  0  0  0
 22 60  1  0  0  0  0
 22 61  1  0  0  0  0
 23 24  1  0  0  0  0
 23 62  1  0  0  0  0
 24 63  1  0  0  0  0
 24 64  1  0  0  0  0
 25 65  1  0  0  0  0
 25 66  1  0  0  0  0
 26 27  1  0  0  0  0
 27 28  1  0  0  0  0
 27 67  1  0  0  0  0
 28 29  1  0  0  0  0
 28 30  1  0  0  0  0
 28 31  1  0  0  0  0
 29 70  1  0  0  0  0
 29 71  1  0  0  0  0
 29 72  1  0  0  0  0
 30 73  1  0  0  0  0
 30 74  1  0  0  0  0
 30 75  1  0  0  0  0
 31 76  1  0  0  0  0
 31 77  1  0  0  0  0
 31 78  1  0  0  0  0
 32 33  1  0  0  0  0
 32 35  2  0  0  0  0
 33 36  2  0  0  0  0
 33 38  1  0  0  0  0
 35 37  1  0  0  0  0
 35 79  1  0  0  0  0
 36 41  1  0  0  0  0
 37 40  1  0  0  0  0
 38 42  2  0  0  0  0
 38 80  1  0  0  0  0
 39 44  1  0  0  0  0
 39 45  1  0  0  0  0
 39 46  1  0  0  0  0
 40 47  2  0  0  0  0
 40 49  1  0  0  0  0
 41 43  2  0  0  0  0
 41 81  1  0  0  0  0
 42 43  1  0  0  0  0
 42 82  1  0  0  0  0
 44 84  1  0  0  0  0
 44 85  1  0  0  0  0
 44 86  1  0  0  0  0
 45 87  1  0  0  0  0
 45 88  1  0  0  0  0
 45 89  1  0  0  0  0
 46 90  1  0  0  0  0
 46 91  1  0  0  0  0
 46 92  1  0  0  0  0
 47 83  1  0  0  0  0
 48 50  1  0  0  0  0
 48 51  1  0  0  0  0
 48 52  1  0  0  0  0
 49 93  1  0  0  0  0
 50 94  1  0  0  0  0
 50 95  1  0  0  0  0
 50 96  1  0  0  0  0
 51 97  1  0  0  0  0
 51 98  1  0  0  0  0
 51 99  1  0  0  0  0
 52100  1  0  0  0  0
 52101  1  0  0  0  0
 52102  1  0  0  0  0
 53103  1  0  0  0  0
 53104  1  0  0  0  0
 53105  1  0  0  0  0
M  END
> <PUBCHEM_COMPOUND_CID>
500737
> <PUBCHEM_COMPOUND_CANONICALIZED>
1
> <PUBCHEM_CACTVS_COMPLEXITY>
1390
> <PUBCHEM_CACTVS_HBOND_ACCEPTOR>
10
> <PUBCHEM_CACTVS_HBOND_DONOR>
3
> <PUBCHEM_CACTVS_ROTATABLE_BOND>
14
> <PUBCHEM_CACTVS_SUBSKEYS>
AAADcfB/vAAAAAAAAAAAAAAAGAAAAWLAAAA8QAAAAAAAAACx/AAAHgAYCAAAD/zhngY+zvPIFgCqAzX3XACSjCAxoiAYmKG+bJkOZvLE8fuf/Cjm3hnY6Ae68e8PIAAAAgACAABAAAAEAAQAAAAAAAAAAA==
> <PUBCHEM_IUPAC_OPENEYE_NAME>
(2R)-1-[[(2S,4R)-1-[(2S)-2-(tert-butoxycarbonylamino)-3,3-dimethyl-butanoyl]-4-[[2-(1-tert-butylpyrazol-4-yl)-7-methoxy-4-quinolyl]oxy]pyrrolidine-2-carbonyl]amino]-2-vinyl-cyclopropanecarboxylic acid
> <PUBCHEM_IUPAC_CAS_NAME>
(2R)-1-[[[(2S,4R)-4-[[2-(1-tert-butyl-4-pyrazolyl)-7-methoxy-4-quinolinyl]oxy]-1-[(2S)-3,3-dimethyl-2-[[(2-methylpropan-2-yl)oxy-oxomethyl]amino]-1-oxobutyl]-2-pyrrolidinyl]-oxomethyl]amino]-2-ethenyl-1-cyclopropanecarboxylic acid
> <PUBCHEM_IUPAC_NAME_MARKUP>
(2<I>R</I>)-1-[[(2<I>S</I>,4<I>R</I>)-4-[2-(1-<I>tert</I>-butylpyrazol-4-yl)-7-methoxyquinolin-4-yl]oxy-1-[(2<I>S</I>)-3,3-dimethyl-2-[(2-methylpropan-2-yl)oxycarbonylamino]butanoyl]pyrrolidine-2-carbonyl]amino]-2-ethenylcyclopropane-1-carboxylic acid
> <PUBCHEM_IUPAC_NAME>
(2R)-1-[[(2S,4R)-4-[2-(1-tert-butylpyrazol-4-yl)-7-methoxyquinolin-4-yl]oxy-1-[(2S)-3,3-dimethyl-2-[(2-methylpropan-2-yl)oxycarbonylamino]butanoyl]pyrrolidine-2-carbonyl]amino]-2-ethenylcyclopropane-1-carboxylic acid
> <PUBCHEM_IUPAC_SYSTEMATIC_NAME>
(2R)-1-[[(2S,4R)-4-[2-(1-tert-butylpyrazol-4-yl)-7-methoxy-quinolin-4-yl]oxy-1-[(2S)-3,3-dimethyl-2-[(2-methylpropan-2-yl)oxycarbonylamino]butanoyl]pyrrolidin-2-yl]carbonylamino]-2-ethenyl-cyclopropane-1-carboxylic acid
> <PUBCHEM_IUPAC_TRADITIONAL_NAME>
(2R)-1-[[(2S,4R)-1-[(2S)-2-(tert-butoxycarbonylamino)-3,3-dimethyl-butanoyl]-4-[[2-(1-tert-butylpyrazol-4-yl)-7-methoxy-4-quinolyl]oxy]prolyl]amino]-2-vinyl-cyclopropanecarboxylic acid
> <PUBCHEM_IUPAC_INCHI>
InChI=1S/C39H52N6O8/c1-12-23-18-39(23,34(48)49)43-32(46)29-16-25(21-44(29)33(47)31(36(2,3)4)42-35(50)53-38(8,9)10)52-30-17-27(22-19-40-45(20-22)37(5,6)7)41-28-15-24(51-11)13-14-26(28)30/h12-15,17,19-20,23,25,29,31H,1,16,18,21H2,2-11H3,(H,42,50)(H,43,46)(H,48,49)/t23-,25+,29-,31+,39?/m0/s1
> <PUBCHEM_IUPAC_INCHIKEY>
BSJRVPJHQPQWAC-TZVIWKQCSA-N
> <PUBCHEM_XLOGP3_AA>
5
> <PUBCHEM_EXACT_MASS>
732.38466264
> <PUBCHEM_MOLECULAR_FORMULA>
C39H52N6O8
> <PUBCHEM_MOLECULAR_WEIGHT>
732.9
> <PUBCHEM_OPENEYE_CAN_SMILES>
CC(C)(C)C(C(=O)N1CC(CC1C(=O)NC2(CC2C=C)C(=O)O)OC3=CC(=NC4=C3C=CC(=C4)OC)C5=CN(N=C5)C(C)(C)C)NC(=O)OC(C)(C)C
> <PUBCHEM_OPENEYE_ISO_SMILES>
CC(C)(C)[C@@H](C(=O)N1C[C@@H](C[C@H]1C(=O)NC2(C[C@@H]2C=C)C(=O)O)OC3=CC(=NC4=C3C=CC(=C4)OC)C5=CN(N=C5)C(C)(C)C)NC(=O)OC(C)(C)C
> <PUBCHEM_CACTVS_TPSA>
174
> <PUBCHEM_MONOISOTOPIC_WEIGHT>
732.38466264
> <PUBCHEM_TOTAL_CHARGE>
0
> <PUBCHEM_HEAVY_ATOM_COUNT>
53
> <PUBCHEM_ATOM_DEF_STEREO_COUNT>
4
> <PUBCHEM_ATOM_UDEF_STEREO_COUNT>
1
> <PUBCHEM_BOND_DEF_STEREO_COUNT>
0
> <PUBCHEM_BOND_UDEF_STEREO_COUNT>
0
> <PUBCHEM_ISOTOPIC_ATOM_COUNT>
0
> <PUBCHEM_COMPONENT_COUNT>
1
> <PUBCHEM_CACTVS_TAUTO_COUNT>
-1
> <PUBCHEM_COORDINATE_TYPE>
1
5
255
> <PUBCHEM_BONDANNOTATIONS>
27  11  5
12  36  8
12  37  8
13  14  8
13  47  8
14  49  8
15  18  3
16  19  5
20  21  6
23  3  5
32  33  8
32  35  8
33  36  8
33  38  8
35  37  8
36  41  8
38  42  8
40  47  8
40  49  8
41  43  8
42  43  8
$$$$
