500725
  -OEChem-10302200282D
101105  0     1  0  0  0  0  0999 V2000
    7.9287    4.6580    0.0000 O   0  0  0  0  0  0  0  0  0  0  0  0
    8.9467    3.2568    0.0000 O   0  0  0  0  0  0  0  0  0  0  0  0
    6.3981   -1.0225    0.0000 O   0  0  0  0  0  0  0  0  0  0  0  0
    9.0513    2.2623    0.0000 O   0  0  0  0  0  0  0  0  0  0  0  0
   10.2480   -1.2041    0.0000 O   0  0  0  0  0  0  0  0  0  0  0  0
   12.5819    0.9296    0.0000 O   0  0  0  0  0  0  0  0  0  0  0  0
   13.2864   -0.6527    0.0000 O   0  0  0  0  0  0  0  0  0  0  0  0
    2.8680   -4.0466    0.0000 O   0  0  0  0  0  0  0  0  0  0  0  0
    7.3287    2.0812    0.0000 N   0  0  0  0  0  0  0  0  0  0  0  0
    8.8468   -0.1861    0.0000 N   0  0  0  0  0  0  0  0  0  0  0  0
   11.5639   -0.4716    0.0000 N   0  0  0  0  0  0  0  0  0  0  0  0
    6.3981   -4.0225    0.0000 N   0  0  0  0  0  0  0  0  0  0  0  0
    8.1301   -4.0225    0.0000 N   0  0  0  0  0  0  0  0  0  0  0  0
    7.2242    3.0757    0.0000 C   0  0  3  0  0  0  0  0  0  0  0  0
    6.2296    2.9712    0.0000 C   0  0  2  0  0  0  0  0  0  0  0  0
    6.6364    3.8848    0.0000 C   0  0  0  0  0  0  0  0  0  0  0  0
    8.0332    3.6635    0.0000 C   0  0  0  0  0  0  0  0  0  0  0  0
    5.4206    2.3834    0.0000 C   0  0  0  0  0  0  0  0  0  0  0  0
    8.3468    0.6800    0.0000 C   0  0  2  0  0  0  0  0  0  0  0  0
    8.2422    1.6745    0.0000 C   0  0  0  0  0  0  0  0  0  0  0  0
    7.3686    0.4720    0.0000 C   0  0  0  0  0  0  0  0  0  0  0  0
    7.2641   -0.5225    0.0000 C   0  0  2  0  0  0  0  0  0  0  0  0
    8.1776   -0.9292    0.0000 C   0  0  0  0  0  0  0  0  0  0  0  0
    9.8413   -0.2906    0.0000 C   0  0  0  0  0  0  0  0  0  0  0  0
    4.5071    2.7902    0.0000 C   0  0  0  0  0  0  0  0  0  0  0  0
   10.7548    0.1161    0.0000 C   0  0  2  0  0  0  0  0  0  0  0  0
   10.8594    1.1107    0.0000 C   0  0  0  0  0  0  0  0  0  0  0  0
   10.9639    2.1052    0.0000 C   0  0  0  0  0  0  0  0  0  0  0  0
   11.8539    1.0061    0.0000 C   0  0  0  0  0  0  0  0  0  0  0  0
    9.8648    1.2152    0.0000 C   0  0  0  0  0  0  0  0  0  0  0  0
    6.3981   -2.0225    0.0000 C   0  0  0  0  0  0  0  0  0  0  0  0
    5.5320   -2.5225    0.0000 C   0  0  0  0  0  0  0  0  0  0  0  0
   12.4774   -0.0649    0.0000 C   0  0  0  0  0  0  0  0  0  0  0  0
    7.2641   -2.5225    0.0000 C   0  0  0  0  0  0  0  0  0  0  0  0
    5.5320   -3.5225    0.0000 C   0  0  0  0  0  0  0  0  0  0  0  0
    7.2641   -3.5225    0.0000 C   0  0  0  0  0  0  0  0  0  0  0  0
    4.6381   -1.9878    0.0000 C   0  0  0  0  0  0  0  0  0  0  0  0
   13.4955    1.3364    0.0000 C   0  0  0  0  0  0  0  0  0  0  0  0
    4.6381   -4.0571    0.0000 C   0  0  0  0  0  0  0  0  0  0  0  0
    3.7320   -2.5017    0.0000 C   0  0  0  0  0  0  0  0  0  0  0  0
    3.7320   -3.5433    0.0000 C   0  0  0  0  0  0  0  0  0  0  0  0
   14.4090    1.7431    0.0000 C   0  0  0  0  0  0  0  0  0  0  0  0
   13.0887    2.2499    0.0000 C   0  0  0  0  0  0  0  0  0  0  0  0
   13.9022    0.4228    0.0000 C   0  0  0  0  0  0  0  0  0  0  0  0
    8.9962   -3.5225    0.0000 C   0  0  0  0  0  0  0  0  0  0  0  0
    8.1301   -5.0225    0.0000 C   0  0  0  0  0  0  0  0  0  0  0  0
    8.9962   -2.5225    0.0000 C   0  0  0  0  0  0  0  0  0  0  0  0
    9.8622   -4.0225    0.0000 C   0  0  0  0  0  0  0  0  0  0  0  0
    2.0000   -3.5500    0.0000 C   0  0  0  0  0  0  0  0  0  0  0  0
    9.8622   -2.0225    0.0000 C   0  0  0  0  0  0  0  0  0  0  0  0
   10.7282   -3.5225    0.0000 C   0  0  0  0  0  0  0  0  0  0  0  0
   10.7282   -2.5225    0.0000 C   0  0  0  0  0  0  0  0  0  0  0  0
    6.4518    2.3924    0.0000 H   0  0  0  0  0  0  0  0  0  0  0  0
    7.0671    4.3308    0.0000 H   0  0  0  0  0  0  0  0  0  0  0  0
    6.1224    4.2315    0.0000 H   0  0  0  0  0  0  0  0  0  0  0  0
    6.8271    1.7168    0.0000 H   0  0  0  0  0  0  0  0  0  0  0  0
    5.4854    1.7668    0.0000 H   0  0  0  0  0  0  0  0  0  0  0  0
    8.9364    0.8716    0.0000 H   0  0  0  0  0  0  0  0  0  0  0  0
    7.3038    1.0886    0.0000 H   0  0  0  0  0  0  0  0  0  0  0  0
    6.7486    0.4720    0.0000 H   0  0  0  0  0  0  0  0  0  0  0  0
    6.7441   -0.1848    0.0000 H   0  0  0  0  0  0  0  0  0  0  0  0
    7.8676   -1.4662    0.0000 H   0  0  0  0  0  0  0  0  0  0  0  0
    8.6792   -1.2936    0.0000 H   0  0  0  0  0  0  0  0  0  0  0  0
    4.4423    3.4068    0.0000 H   0  0  0  0  0  0  0  0  0  0  0  0
    4.0055    2.4257    0.0000 H   0  0  0  0  0  0  0  0  0  0  0  0
   10.6900   -0.5005    0.0000 H   0  0  0  0  0  0  0  0  0  0  0  0
    8.4302    5.0225    0.0000 H   0  0  0  0  0  0  0  0  0  0  0  0
   11.4991   -1.0882    0.0000 H   0  0  0  0  0  0  0  0  0  0  0  0
   11.5805    2.0404    0.0000 H   0  0  0  0  0  0  0  0  0  0  0  0
   11.0287    2.7218    0.0000 H   0  0  0  0  0  0  0  0  0  0  0  0
   10.3473    2.1700    0.0000 H   0  0  0  0  0  0  0  0  0  0  0  0
   11.7891    0.3895    0.0000 H   0  0  0  0  0  0  0  0  0  0  0  0
   12.4705    0.9413    0.0000 H   0  0  0  0  0  0  0  0  0  0  0  0
   11.9187    1.6227    0.0000 H   0  0  0  0  0  0  0  0  0  0  0  0
    9.9297    1.8318    0.0000 H   0  0  0  0  0  0  0  0  0  0  0  0
    9.2482    1.2800    0.0000 H   0  0  0  0  0  0  0  0  0  0  0  0
    9.8000    0.5986    0.0000 H   0  0  0  0  0  0  0  0  0  0  0  0
    7.8010   -2.2125    0.0000 H   0  0  0  0  0  0  0  0  0  0  0  0
    4.6453   -1.3678    0.0000 H   0  0  0  0  0  0  0  0  0  0  0  0
    4.6453   -4.6771    0.0000 H   0  0  0  0  0  0  0  0  0  0  0  0
    3.1963   -2.1896    0.0000 H   0  0  0  0  0  0  0  0  0  0  0  0
   14.6612    1.1767    0.0000 H   0  0  0  0  0  0  0  0  0  0  0  0
   14.9754    1.9953    0.0000 H   0  0  0  0  0  0  0  0  0  0  0  0
   14.1568    2.3095    0.0000 H   0  0  0  0  0  0  0  0  0  0  0  0
   13.6551    2.5021    0.0000 H   0  0  0  0  0  0  0  0  0  0  0  0
   12.8366    2.8163    0.0000 H   0  0  0  0  0  0  0  0  0  0  0  0
   12.5223    1.9977    0.0000 H   0  0  0  0  0  0  0  0  0  0  0  0
   13.3358    0.1706    0.0000 H   0  0  0  0  0  0  0  0  0  0  0  0
   14.1544   -0.1436    0.0000 H   0  0  0  0  0  0  0  0  0  0  0  0
   14.4686    0.6750    0.0000 H   0  0  0  0  0  0  0  0  0  0  0  0
    7.5101   -5.0225    0.0000 H   0  0  0  0  0  0  0  0  0  0  0  0
    8.1301   -5.6425    0.0000 H   0  0  0  0  0  0  0  0  0  0  0  0
    8.7501   -5.0225    0.0000 H   0  0  0  0  0  0  0  0  0  0  0  0
    8.4592   -2.2125    0.0000 H   0  0  0  0  0  0  0  0  0  0  0  0
    9.8622   -4.6425    0.0000 H   0  0  0  0  0  0  0  0  0  0  0  0
    2.3079   -3.0118    0.0000 H   0  0  0  0  0  0  0  0  0  0  0  0
    1.4619   -3.2420    0.0000 H   0  0  0  0  0  0  0  0  0  0  0  0
    1.6921   -4.0881    0.0000 H   0  0  0  0  0  0  0  0  0  0  0  0
    9.8622   -1.4025    0.0000 H   0  0  0  0  0  0  0  0  0  0  0  0
   11.2651   -3.8325    0.0000 H   0  0  0  0  0  0  0  0  0  0  0  0
   11.2651   -2.2125    0.0000 H   0  0  0  0  0  0  0  0  0  0  0  0
  1 17  1  0  0  0  0
  1 67  1  0  0  0  0
  2 17  2  0  0  0  0
 22  3  1  6  0  0  0
  3 31  1  0  0  0  0
  4 20  2  0  0  0  0
  5 24  2  0  0  0  0
  6 33  1  0  0  0  0
  6 38  1  0  0  0  0
  7 33  2  0  0  0  0
  8 41  1  0  0  0  0
  8 49  1  0  0  0  0
  9 14  1  0  0  0  0
  9 20  1  0  0  0  0
  9 56  1  0  0  0  0
 10 19  1  0  0  0  0
 10 23  1  0  0  0  0
 10 24  1  0  0  0  0
 26 11  1  6  0  0  0
 11 33  1  0  0  0  0
 11 68  1  0  0  0  0
 12 35  1  0  0  0  0
 12 36  2  0  0  0  0
 13 36  1  0  0  0  0
 13 45  1  0  0  0  0
 13 46  1  0  0  0  0
 14 15  1  0  0  0  0
 14 16  1  0  0  0  0
 14 17  1  0  0  0  0
 15 16  1  0  0  0  0
 15 18  1  1  0  0  0
 15 53  1  0  0  0  0
 16 54  1  0  0  0  0
 16 55  1  0  0  0  0
 18 25  2  0  0  0  0
 18 57  1  0  0  0  0
 19 20  1  1  0  0  0
 19 21  1  0  0  0  0
 19 58  1  0  0  0  0
 21 22  1  0  0  0  0
 21 59  1  0  0  0  0
 21 60  1  0  0  0  0
 22 23  1  0  0  0  0
 22 61  1  0  0  0  0
 23 62  1  0  0  0  0
 23 63  1  0  0  0  0
 24 26  1  0  0  0  0
 25 64  1  0  0  0  0
 25 65  1  0  0  0  0
 26 27  1  0  0  0  0
 26 66  1  0  0  0  0
 27 28  1  0  0  0  0
 27 29  1  0  0  0  0
 27 30  1  0  0  0  0
 28 69  1  0  0  0  0
 28 70  1  0  0  0  0
 28 71  1  0  0  0  0
 29 72  1  0  0  0  0
 29 73  1  0  0  0  0
 29 74  1  0  0  0  0
 30 75  1  0  0  0  0
 30 76  1  0  0  0  0
 30 77  1  0  0  0  0
 31 32  1  0  0  0  0
 31 34  2  0  0  0  0
 32 35  2  0  0  0  0
 32 37  1  0  0  0  0
 34 36  1  0  0  0  0
 34 78  1  0  0  0  0
 35 39  1  0  0  0  0
 37 40  2  0  0  0  0
 37 79  1  0  0  0  0
 38 42  1  0  0  0  0
 38 43  1  0  0  0  0
 38 44  1  0  0  0  0
 39 41  2  0  0  0  0
 39 80  1  0  0  0  0
 40 41  1  0  0  0  0
 40 81  1  0  0  0  0
 42 82  1  0  0  0  0
 42 83  1  0  0  0  0
 42 84  1  0  0  0  0
 43 85  1  0  0  0  0
 43 86  1  0  0  0  0
 43 87  1  0  0  0  0
 44 88  1  0  0  0  0
 44 89  1  0  0  0  0
 44 90  1  0  0  0  0
 45 47  2  0  0  0  0
 45 48  1  0  0  0  0
 46 91  1  0  0  0  0
 46 92  1  0  0  0  0
 46 93  1  0  0  0  0
 47 50  1  0  0  0  0
 47 94  1  0  0  0  0
 48 51  2  0  0  0  0
 48 95  1  0  0  0  0
 49 96  1  0  0  0  0
 49 97  1  0  0  0  0
 49 98  1  0  0  0  0
 50 52  2  0  0  0  0
 50 99  1  0  0  0  0
 51 52  1  0  0  0  0
 51100  1  0  0  0  0
 52101  1  0  0  0  0
M  END
> <PUBCHEM_COMPOUND_CID>
500725
> <PUBCHEM_COMPOUND_CANONICALIZED>
1
> <PUBCHEM_CACTVS_COMPLEXITY>
1320
> <PUBCHEM_CACTVS_HBOND_ACCEPTOR>
10
> <PUBCHEM_CACTVS_HBOND_DONOR>
3
> <PUBCHEM_CACTVS_ROTATABLE_BOND>
14
> <PUBCHEM_CACTVS_SUBSKEYS>
AAADcfB/vAAAAAAAAAAAAAAAGAAAAWAAAAA8YIAAAAAAAACx9AAAHgAQCAAAD/zhngYz/vPIFgCoAyfyfACCiCkhIiAJmKG+bJmOZvLEubufeCju1hvY6Ce68a8PIAAAAgACAABAAAAEAAQAAAAAAAAAAA==
> <PUBCHEM_IUPAC_OPENEYE_NAME>
(2R)-1-[[(2S,4R)-1-[(2S)-2-(tert-butoxycarbonylamino)-3,3-dimethyl-butanoyl]-4-[[7-methoxy-2-(N-methylanilino)-4-quinolyl]oxy]pyrrolidine-2-carbonyl]amino]-2-vinyl-cyclopropanecarboxylic acid
> <PUBCHEM_IUPAC_CAS_NAME>
(2R)-1-[[[(2S,4R)-1-[(2S)-3,3-dimethyl-2-[[(2-methylpropan-2-yl)oxy-oxomethyl]amino]-1-oxobutyl]-4-[[7-methoxy-2-(N-methylanilino)-4-quinolinyl]oxy]-2-pyrrolidinyl]-oxomethyl]amino]-2-ethenyl-1-cyclopropanecarboxylic acid
> <PUBCHEM_IUPAC_NAME_MARKUP>
(2<I>R</I>)-1-[[(2<I>S</I>,4<I>R</I>)-1-[(2<I>S</I>)-3,3-dimethyl-2-[(2-methylpropan-2-yl)oxycarbonylamino]butanoyl]-4-[7-methoxy-2-(<I>N</I>-methylanilino)quinolin-4-yl]oxypyrrolidine-2-carbonyl]amino]-2-ethenylcyclopropane-1-carboxylic acid
> <PUBCHEM_IUPAC_NAME>
(2R)-1-[[(2S,4R)-1-[(2S)-3,3-dimethyl-2-[(2-methylpropan-2-yl)oxycarbonylamino]butanoyl]-4-[7-methoxy-2-(N-methylanilino)quinolin-4-yl]oxypyrrolidine-2-carbonyl]amino]-2-ethenylcyclopropane-1-carboxylic acid
> <PUBCHEM_IUPAC_SYSTEMATIC_NAME>
(2R)-1-[[(2S,4R)-1-[(2S)-3,3-dimethyl-2-[(2-methylpropan-2-yl)oxycarbonylamino]butanoyl]-4-[7-methoxy-2-[methyl(phenyl)amino]quinolin-4-yl]oxy-pyrrolidin-2-yl]carbonylamino]-2-ethenyl-cyclopropane-1-carboxylic acid
> <PUBCHEM_IUPAC_TRADITIONAL_NAME>
(2R)-1-[[(2S,4R)-1-[(2S)-2-(tert-butoxycarbonylamino)-3,3-dimethyl-butanoyl]-4-[[7-methoxy-2-(N-methylanilino)-4-quinolyl]oxy]prolyl]amino]-2-vinyl-cyclopropanecarboxylic acid
> <PUBCHEM_IUPAC_INCHI>
InChI=1S/C39H49N5O8/c1-10-23-21-39(23,35(47)48)42-33(45)29-19-26(22-44(29)34(46)32(37(2,3)4)41-36(49)52-38(5,6)7)51-30-20-31(43(8)24-14-12-11-13-15-24)40-28-18-25(50-9)16-17-27(28)30/h10-18,20,23,26,29,32H,1,19,21-22H2,2-9H3,(H,41,49)(H,42,45)(H,47,48)/t23-,26+,29-,32+,39?/m0/s1
> <PUBCHEM_IUPAC_INCHIKEY>
VNCNIBPAOZSXAN-PHYRYAQVSA-N
> <PUBCHEM_XLOGP3_AA>
6.2
> <PUBCHEM_EXACT_MASS>
715.35811354
> <PUBCHEM_MOLECULAR_FORMULA>
C39H49N5O8
> <PUBCHEM_MOLECULAR_WEIGHT>
715.8
> <PUBCHEM_OPENEYE_CAN_SMILES>
CC(C)(C)C(C(=O)N1CC(CC1C(=O)NC2(CC2C=C)C(=O)O)OC3=CC(=NC4=C3C=CC(=C4)OC)N(C)C5=CC=CC=C5)NC(=O)OC(C)(C)C
> <PUBCHEM_OPENEYE_ISO_SMILES>
CC(C)(C)[C@@H](C(=O)N1C[C@@H](C[C@H]1C(=O)NC2(C[C@@H]2C=C)C(=O)O)OC3=CC(=NC4=C3C=CC(=C4)OC)N(C)C5=CC=CC=C5)NC(=O)OC(C)(C)C
> <PUBCHEM_CACTVS_TPSA>
160
> <PUBCHEM_MONOISOTOPIC_WEIGHT>
715.35811354
> <PUBCHEM_TOTAL_CHARGE>
0
> <PUBCHEM_HEAVY_ATOM_COUNT>
52
> <PUBCHEM_ATOM_DEF_STEREO_COUNT>
4
> <PUBCHEM_ATOM_UDEF_STEREO_COUNT>
1
> <PUBCHEM_BOND_DEF_STEREO_COUNT>
0
> <PUBCHEM_BOND_UDEF_STEREO_COUNT>
0
> <PUBCHEM_ISOTOPIC_ATOM_COUNT>
0
> <PUBCHEM_COMPONENT_COUNT>
1
> <PUBCHEM_CACTVS_TAUTO_COUNT>
-1
> <PUBCHEM_COORDINATE_TYPE>
1
5
255
> <PUBCHEM_BONDANNOTATIONS>
26  11  6
12  35  8
12  36  8
14  17  3
15  18  5
19  20  5
22  3  6
31  32  8
31  34  8
32  35  8
32  37  8
34  36  8
35  39  8
37  40  8
39  41  8
40  41  8
45  47  8
45  48  8
47  50  8
48  51  8
50  52  8
51  52  8
$$$$
