500780
  -OEChem-10302200282D
 93 98  0     1  0  0  0  0  0999 V2000
   12.8249   -0.7668    0.0000 O   0  0  0  0  0  0  0  0  0  0  0  0
   11.4236    0.2513    0.0000 O   0  0  0  0  0  0  0  0  0  0  0  0
    6.3981   -1.1851    0.0000 O   0  0  0  0  0  0  0  0  0  0  0  0
   10.4291    0.3558    0.0000 O   0  0  0  0  0  0  0  0  0  0  0  0
    9.7480    1.5354    0.0000 O   0  0  0  0  0  0  0  0  0  0  0  0
    2.8680   -4.2092    0.0000 O   0  0  0  0  0  0  0  0  0  0  0  0
    5.0011    3.6489    0.0000 O   0  0  0  0  0  0  0  0  0  0  0  0
   10.2480   -1.3667    0.0000 N   0  0  0  0  0  0  0  0  0  0  0  0
    8.3468    0.5174    0.0000 N   0  0  0  0  0  0  0  0  0  0  0  0
    8.5725    3.1535    0.0000 N   0  0  0  0  0  0  0  0  0  0  0  0
    6.3981   -4.1851    0.0000 N   0  0  0  0  0  0  0  0  0  0  0  0
   11.2426   -1.4712    0.0000 C   0  0  3  0  0  0  0  0  0  0  0  0
   11.1380   -2.4658    0.0000 C   0  0  2  0  0  0  0  0  0  0  0  0
   12.0516   -2.0590    0.0000 C   0  0  0  0  0  0  0  0  0  0  0  0
   11.8303   -0.6622    0.0000 C   0  0  0  0  0  0  0  0  0  0  0  0
   10.5502   -3.2748    0.0000 C   0  0  0  0  0  0  0  0  0  0  0  0
    8.8468   -0.3487    0.0000 C   0  0  2  0  0  0  0  0  0  0  0  0
    9.8413   -0.4532    0.0000 C   0  0  0  0  0  0  0  0  0  0  0  0
    8.1776   -1.0918    0.0000 C   0  0  0  0  0  0  0  0  0  0  0  0
    7.2641   -0.6851    0.0000 C   0  0  2  0  0  0  0  0  0  0  0  0
    7.3686    0.3095    0.0000 C   0  0  0  0  0  0  0  0  0  0  0  0
   10.9570   -4.1883    0.0000 C   0  0  0  0  0  0  0  0  0  0  0  0
    8.7535    1.4309    0.0000 C   0  0  0  0  0  0  0  0  0  0  0  0
    8.1657    2.2399    0.0000 C   0  0  2  0  0  0  0  0  0  0  0  0
    7.1712    2.1354    0.0000 C   0  0  0  0  0  0  0  0  0  0  0  0
    6.3981   -2.1851    0.0000 C   0  0  0  0  0  0  0  0  0  0  0  0
    6.7645    1.2219    0.0000 C   0  0  0  0  0  0  0  0  0  0  0  0
    6.5834    2.9444    0.0000 C   0  0  0  0  0  0  0  0  0  0  0  0
    5.5320   -2.6851    0.0000 C   0  0  0  0  0  0  0  0  0  0  0  0
    7.9847    3.9625    0.0000 C   0  0  0  0  0  0  0  0  0  0  0  0
    7.2641   -2.6851    0.0000 C   0  0  0  0  0  0  0  0  0  0  0  0
    5.5320   -3.6851    0.0000 C   0  0  0  0  0  0  0  0  0  0  0  0
    7.2641   -3.6851    0.0000 C   0  0  0  0  0  0  0  0  0  0  0  0
    4.6381   -2.1504    0.0000 C   0  0  0  0  0  0  0  0  0  0  0  0
    6.9902    3.8580    0.0000 C   0  0  0  0  0  0  0  0  0  0  0  0
    8.3914    4.8760    0.0000 C   0  0  0  0  0  0  0  0  0  0  0  0
    4.6381   -4.2197    0.0000 C   0  0  0  0  0  0  0  0  0  0  0  0
    6.4024    4.6670    0.0000 C   0  0  0  0  0  0  0  0  0  0  0  0
    3.7320   -2.6642    0.0000 C   0  0  0  0  0  0  0  0  0  0  0  0
    8.1301   -4.1851    0.0000 C   0  0  0  0  0  0  0  0  0  0  0  0
    7.8036    5.6851    0.0000 C   0  0  0  0  0  0  0  0  0  0  0  0
    3.7320   -3.7059    0.0000 C   0  0  0  0  0  0  0  0  0  0  0  0
    6.8091    5.5805    0.0000 C   0  0  0  0  0  0  0  0  0  0  0  0
    5.4078    4.5625    0.0000 C   0  0  0  0  0  0  0  0  0  0  0  0
    8.9962   -3.6851    0.0000 C   0  0  0  0  0  0  0  0  0  0  0  0
    8.1301   -5.1851    0.0000 C   0  0  0  0  0  0  0  0  0  0  0  0
    9.8622   -4.1851    0.0000 C   0  0  0  0  0  0  0  0  0  0  0  0
    8.9962   -5.6851    0.0000 C   0  0  0  0  0  0  0  0  0  0  0  0
    4.8201    5.3715    0.0000 C   0  0  0  0  0  0  0  0  0  0  0  0
    9.8622   -5.1851    0.0000 C   0  0  0  0  0  0  0  0  0  0  0  0
    2.0000   -3.7126    0.0000 C   0  0  0  0  0  0  0  0  0  0  0  0
   10.5592   -2.2436    0.0000 H   0  0  0  0  0  0  0  0  0  0  0  0
   12.3983   -2.5730    0.0000 H   0  0  0  0  0  0  0  0  0  0  0  0
   12.4976   -1.6284    0.0000 H   0  0  0  0  0  0  0  0  0  0  0  0
    9.8836   -1.8683    0.0000 H   0  0  0  0  0  0  0  0  0  0  0  0
    9.9336   -3.2100    0.0000 H   0  0  0  0  0  0  0  0  0  0  0  0
    9.1844    0.1713    0.0000 H   0  0  0  0  0  0  0  0  0  0  0  0
    7.8676   -1.6287    0.0000 H   0  0  0  0  0  0  0  0  0  0  0  0
    8.6792   -1.4562    0.0000 H   0  0  0  0  0  0  0  0  0  0  0  0
    6.7441   -0.3474    0.0000 H   0  0  0  0  0  0  0  0  0  0  0  0
    7.3038    0.9261    0.0000 H   0  0  0  0  0  0  0  0  0  0  0  0
    6.7486    0.3095    0.0000 H   0  0  0  0  0  0  0  0  0  0  0  0
   10.5926   -4.6899    0.0000 H   0  0  0  0  0  0  0  0  0  0  0  0
   11.5736   -4.2532    0.0000 H   0  0  0  0  0  0  0  0  0  0  0  0
   13.1893   -0.2652    0.0000 H   0  0  0  0  0  0  0  0  0  0  0  0
    7.8013    2.7415    0.0000 H   0  0  0  0  0  0  0  0  0  0  0  0
    7.5356    1.6338    0.0000 H   0  0  0  0  0  0  0  0  0  0  0  0
    9.1891    3.2183    0.0000 H   0  0  0  0  0  0  0  0  0  0  0  0
    6.1981    1.4740    0.0000 H   0  0  0  0  0  0  0  0  0  0  0  0
    6.5123    0.6555    0.0000 H   0  0  0  0  0  0  0  0  0  0  0  0
    7.3309    0.9697    0.0000 H   0  0  0  0  0  0  0  0  0  0  0  0
    7.0850    3.3088    0.0000 H   0  0  0  0  0  0  0  0  0  0  0  0
    6.2190    3.4460    0.0000 H   0  0  0  0  0  0  0  0  0  0  0  0
    6.0818    2.5800    0.0000 H   0  0  0  0  0  0  0  0  0  0  0  0
    7.8010   -2.3751    0.0000 H   0  0  0  0  0  0  0  0  0  0  0  0
    4.6453   -1.5304    0.0000 H   0  0  0  0  0  0  0  0  0  0  0  0
    6.7380    3.2916    0.0000 H   0  0  0  0  0  0  0  0  0  0  0  0
    9.0080    4.9408    0.0000 H   0  0  0  0  0  0  0  0  0  0  0  0
    4.6453   -4.8397    0.0000 H   0  0  0  0  0  0  0  0  0  0  0  0
    3.1963   -2.3522    0.0000 H   0  0  0  0  0  0  0  0  0  0  0  0
    8.0558    6.2515    0.0000 H   0  0  0  0  0  0  0  0  0  0  0  0
    6.4447    6.0821    0.0000 H   0  0  0  0  0  0  0  0  0  0  0  0
    8.9962   -3.0651    0.0000 H   0  0  0  0  0  0  0  0  0  0  0  0
    7.5932   -5.4951    0.0000 H   0  0  0  0  0  0  0  0  0  0  0  0
   10.3991   -3.8751    0.0000 H   0  0  0  0  0  0  0  0  0  0  0  0
    8.9962   -6.3051    0.0000 H   0  0  0  0  0  0  0  0  0  0  0  0
    5.3216    5.7359    0.0000 H   0  0  0  0  0  0  0  0  0  0  0  0
    4.4556    5.8731    0.0000 H   0  0  0  0  0  0  0  0  0  0  0  0
    4.3185    5.0070    0.0000 H   0  0  0  0  0  0  0  0  0  0  0  0
   10.3991   -5.4951    0.0000 H   0  0  0  0  0  0  0  0  0  0  0  0
    2.3079   -3.1744    0.0000 H   0  0  0  0  0  0  0  0  0  0  0  0
    1.4619   -3.4046    0.0000 H   0  0  0  0  0  0  0  0  0  0  0  0
    1.6921   -4.2507    0.0000 H   0  0  0  0  0  0  0  0  0  0  0  0
  1 15  1  0  0  0  0
  1 65  1  0  0  0  0
  2 15  2  0  0  0  0
 20  3  1  1  0  0  0
  3 26  1  0  0  0  0
  4 18  2  0  0  0  0
  5 23  2  0  0  0  0
  6 42  1  0  0  0  0
  6 51  1  0  0  0  0
  7 44  2  0  0  0  0
  8 12  1  0  0  0  0
  8 18  1  0  0  0  0
  8 55  1  0  0  0  0
  9 17  1  0  0  0  0
  9 21  1  0  0  0  0
  9 23  1  0  0  0  0
 24 10  1  6  0  0  0
 10 30  1  0  0  0  0
 10 68  1  0  0  0  0
 11 32  1  0  0  0  0
 11 33  2  0  0  0  0
 12 13  1  0  0  0  0
 12 14  1  0  0  0  0
 12 15  1  0  0  0  0
 13 14  1  0  0  0  0
 13 16  1  6  0  0  0
 13 52  1  0  0  0  0
 14 53  1  0  0  0  0
 14 54  1  0  0  0  0
 16 22  2  0  0  0  0
 16 56  1  0  0  0  0
 17 18  1  6  0  0  0
 17 19  1  0  0  0  0
 17 57  1  0  0  0  0
 19 20  1  0  0  0  0
 19 58  1  0  0  0  0
 19 59  1  0  0  0  0
 20 21  1  0  0  0  0
 20 60  1  0  0  0  0
 21 61  1  0  0  0  0
 21 62  1  0  0  0  0
 22 63  1  0  0  0  0
 22 64  1  0  0  0  0
 23 24  1  0  0  0  0
 24 25  1  0  0  0  0
 24 66  1  0  0  0  0
 25 27  1  0  0  0  0
 25 28  1  0  0  0  0
 25 67  1  0  0  0  0
 26 29  1  0  0  0  0
 26 31  2  0  0  0  0
 27 69  1  0  0  0  0
 27 70  1  0  0  0  0
 27 71  1  0  0  0  0
 28 72  1  0  0  0  0
 28 73  1  0  0  0  0
 28 74  1  0  0  0  0
 29 32  2  0  0  0  0
 29 34  1  0  0  0  0
 30 35  1  0  0  0  0
 30 36  2  0  0  0  0
 31 33  1  0  0  0  0
 31 75  1  0  0  0  0
 32 37  1  0  0  0  0
 33 40  1  0  0  0  0
 34 39  2  0  0  0  0
 34 76  1  0  0  0  0
 35 38  2  0  0  0  0
 35 77  1  0  0  0  0
 36 41  1  0  0  0  0
 36 78  1  0  0  0  0
 37 42  2  0  0  0  0
 37 79  1  0  0  0  0
 38 43  1  0  0  0  0
 38 44  1  0  0  0  0
 39 42  1  0  0  0  0
 39 80  1  0  0  0  0
 40 45  2  0  0  0  0
 40 46  1  0  0  0  0
 41 43  2  0  0  0  0
 41 81  1  0  0  0  0
 43 82  1  0  0  0  0
 44 49  1  0  0  0  0
 45 47  1  0  0  0  0
 45 83  1  0  0  0  0
 46 48  2  0  0  0  0
 46 84  1  0  0  0  0
 47 50  2  0  0  0  0
 47 85  1  0  0  0  0
 48 50  1  0  0  0  0
 48 86  1  0  0  0  0
 49 87  1  0  0  0  0
 49 88  1  0  0  0  0
 49 89  1  0  0  0  0
 50 90  1  0  0  0  0
 51 91  1  0  0  0  0
 51 92  1  0  0  0  0
 51 93  1  0  0  0  0
M  END
> <PUBCHEM_COMPOUND_CID>
500780
> <PUBCHEM_COMPOUND_CANONICALIZED>
1
> <PUBCHEM_CACTVS_COMPLEXITY>
1290
> <PUBCHEM_CACTVS_HBOND_ACCEPTOR>
9
> <PUBCHEM_CACTVS_HBOND_DONOR>
3
> <PUBCHEM_CACTVS_ROTATABLE_BOND>
13
> <PUBCHEM_CACTVS_SUBSKEYS>
AAADcfB/uAAAAAAAAAAAAAAAGAAAAWAAAAA8YMEAAAAAAACx9AAAHgAQCAAADbzhngYyzvPIFgCoA6XyXACCiCAlIiAImKG+bNgOZvLEtbuXeSjm1hnY6Ye++e+OIAAAQgACAABAAACEAAQAAAAAAAAAAA==
> <PUBCHEM_IUPAC_OPENEYE_NAME>
(2R)-1-[[(2S,4R)-1-[(2S)-2-(3-acetylanilino)-3-methyl-butanoyl]-4-[(7-methoxy-2-phenyl-4-quinolyl)oxy]pyrrolidine-2-carbonyl]amino]-2-vinyl-cyclopropanecarboxylic acid
> <PUBCHEM_IUPAC_CAS_NAME>
(2R)-1-[[[(2S,4R)-1-[(2S)-2-(3-acetylanilino)-3-methyl-1-oxobutyl]-4-[(7-methoxy-2-phenyl-4-quinolinyl)oxy]-2-pyrrolidinyl]-oxomethyl]amino]-2-ethenyl-1-cyclopropanecarboxylic acid
> <PUBCHEM_IUPAC_NAME_MARKUP>
(2<I>R</I>)-1-[[(2<I>S</I>,4<I>R</I>)-1-[(2<I>S</I>)-2-(3-acetylanilino)-3-methylbutanoyl]-4-(7-methoxy-2-phenylquinolin-4-yl)oxypyrrolidine-2-carbonyl]amino]-2-ethenylcyclopropane-1-carboxylic acid
> <PUBCHEM_IUPAC_NAME>
(2R)-1-[[(2S,4R)-1-[(2S)-2-(3-acetylanilino)-3-methylbutanoyl]-4-(7-methoxy-2-phenylquinolin-4-yl)oxypyrrolidine-2-carbonyl]amino]-2-ethenylcyclopropane-1-carboxylic acid
> <PUBCHEM_IUPAC_SYSTEMATIC_NAME>
(2R)-1-[[(2S,4R)-1-[(2S)-2-[(3-ethanoylphenyl)amino]-3-methyl-butanoyl]-4-(7-methoxy-2-phenyl-quinolin-4-yl)oxy-pyrrolidin-2-yl]carbonylamino]-2-ethenyl-cyclopropane-1-carboxylic acid
> <PUBCHEM_IUPAC_TRADITIONAL_NAME>
(2R)-1-[[(2S,4R)-1-[(2S)-2-(3-acetylanilino)-3-methyl-butanoyl]-4-[(7-methoxy-2-phenyl-4-quinolyl)oxy]prolyl]amino]-2-vinyl-cyclopropanecarboxylic acid
> <PUBCHEM_IUPAC_INCHI>
InChI=1S/C40H42N4O7/c1-6-27-21-40(27,39(48)49)43-37(46)34-19-30(22-44(34)38(47)36(23(2)3)41-28-14-10-13-26(17-28)24(4)45)51-35-20-32(25-11-8-7-9-12-25)42-33-18-29(50-5)15-16-31(33)35/h6-18,20,23,27,30,34,36,41H,1,19,21-22H2,2-5H3,(H,43,46)(H,48,49)/t27-,30+,34-,36-,40?/m0/s1
> <PUBCHEM_IUPAC_INCHIKEY>
MNDNORHQRKSJFQ-IKDLUINMSA-N
> <PUBCHEM_XLOGP3_AA>
6.1
> <PUBCHEM_EXACT_MASS>
690.30534969
> <PUBCHEM_MOLECULAR_FORMULA>
C40H42N4O7
> <PUBCHEM_MOLECULAR_WEIGHT>
690.8
> <PUBCHEM_OPENEYE_CAN_SMILES>
CC(C)C(C(=O)N1CC(CC1C(=O)NC2(CC2C=C)C(=O)O)OC3=CC(=NC4=C3C=CC(=C4)OC)C5=CC=CC=C5)NC6=CC=CC(=C6)C(=O)C
> <PUBCHEM_OPENEYE_ISO_SMILES>
CC(C)[C@@H](C(=O)N1C[C@@H](C[C@H]1C(=O)NC2(C[C@@H]2C=C)C(=O)O)OC3=CC(=NC4=C3C=CC(=C4)OC)C5=CC=CC=C5)NC6=CC=CC(=C6)C(=O)C
> <PUBCHEM_CACTVS_TPSA>
147
> <PUBCHEM_MONOISOTOPIC_WEIGHT>
690.30534969
> <PUBCHEM_TOTAL_CHARGE>
0
> <PUBCHEM_HEAVY_ATOM_COUNT>
51
> <PUBCHEM_ATOM_DEF_STEREO_COUNT>
4
> <PUBCHEM_ATOM_UDEF_STEREO_COUNT>
1
> <PUBCHEM_BOND_DEF_STEREO_COUNT>
0
> <PUBCHEM_BOND_UDEF_STEREO_COUNT>
0
> <PUBCHEM_ISOTOPIC_ATOM_COUNT>
0
> <PUBCHEM_COMPONENT_COUNT>
1
> <PUBCHEM_CACTVS_TAUTO_COUNT>
-1
> <PUBCHEM_COORDINATE_TYPE>
1
5
255
> <PUBCHEM_BONDANNOTATIONS>
24  10  6
11  32  8
11  33  8
12  15  3
13  16  6
17  18  6
26  29  8
26  31  8
29  32  8
29  34  8
20  3  5
30  35  8
30  36  8
31  33  8
32  37  8
34  39  8
35  38  8
36  41  8
37  42  8
38  43  8
39  42  8
40  45  8
40  46  8
41  43  8
45  47  8
46  48  8
47  50  8
48  50  8
$$$$
