500702
  -OEChem-10302200282D
 90 93  0     1  0  0  0  0  0999 V2000
   11.0328   -2.7472    0.0000 O   0  0  0  0  0  0  0  0  0  0  0  0
   12.6069   -2.0245    0.0000 O   0  0  0  0  0  0  0  0  0  0  0  0
    6.3465   -0.7925    0.0000 O   0  0  0  0  0  0  0  0  0  0  0  0
   10.3594    0.7949    0.0000 O   0  0  0  0  0  0  0  0  0  0  0  0
    9.6648    1.9665    0.0000 O   0  0  0  0  0  0  0  0  0  0  0  0
    5.4908    3.2228    0.0000 O   0  0  0  0  0  0  0  0  0  0  0  0
    6.8802    4.2570    0.0000 O   0  0  0  0  0  0  0  0  0  0  0  0
   10.1983   -0.9297    0.0000 N   0  0  0  0  0  0  0  0  0  0  0  0
    8.2754    0.9323    0.0000 N   0  0  0  0  0  0  0  0  0  0  0  0
    7.0812    2.5366    0.0000 N   0  0  0  0  0  0  0  0  0  0  0  0
    6.3580   -3.8618    0.0000 N   0  0  0  0  0  0  0  0  0  0  0  0
    2.8660   -3.8271    0.0000 N   0  0  0  0  0  0  0  0  0  0  0  0
   11.1939   -1.0227    0.0000 C   0  0  3  0  0  0  0  0  0  0  0  0
   12.1027   -0.6054    0.0000 C   0  0  2  0  0  0  0  0  0  0  0  0
   11.2870   -0.0270    0.0000 C   0  0  0  0  0  0  0  0  0  0  0  0
   11.6112   -1.9315    0.0000 C   0  0  0  0  0  0  0  0  0  0  0  0
   13.0984   -0.6984    0.0000 C   0  0  0  0  0  0  0  0  0  0  0  0
    8.7854    0.0721    0.0000 C   0  0  2  0  0  0  0  0  0  0  0  0
    9.7810   -0.0209    0.0000 C   0  0  0  0  0  0  0  0  0  0  0  0
    8.1248   -0.6787    0.0000 C   0  0  0  0  0  0  0  0  0  0  0  0
    7.2067   -0.2826    0.0000 C   0  0  2  0  0  0  0  0  0  0  0  0
    7.2997    0.7131    0.0000 C   0  0  0  0  0  0  0  0  0  0  0  0
    8.6715    1.8505    0.0000 C   0  0  0  0  0  0  0  0  0  0  0  0
   13.6768    0.1173    0.0000 C   0  0  0  0  0  0  0  0  0  0  0  0
    8.0744    2.6527    0.0000 C   0  0  2  0  0  0  0  0  0  0  0  0
    8.4706    3.5709    0.0000 C   0  0  0  0  0  0  0  0  0  0  0  0
    8.8667    4.4890    0.0000 C   0  0  0  0  0  0  0  0  0  0  0  0
    7.5524    3.9670    0.0000 C   0  0  0  0  0  0  0  0  0  0  0  0
    9.3887    3.1747    0.0000 C   0  0  0  0  0  0  0  0  0  0  0  0
    6.3580   -1.7925    0.0000 C   0  0  0  0  0  0  0  0  0  0  0  0
    6.4841    3.3388    0.0000 C   0  0  0  0  0  0  0  0  0  0  0  0
    5.4641   -2.3271    0.0000 C   0  0  0  0  0  0  0  0  0  0  0  0
    7.2641   -2.3063    0.0000 C   0  0  0  0  0  0  0  0  0  0  0  0
    5.4641   -3.3271    0.0000 C   0  0  0  0  0  0  0  0  0  0  0  0
    4.5981   -1.8271    0.0000 C   0  0  0  0  0  0  0  0  0  0  0  0
    7.2641   -3.3479    0.0000 C   0  0  0  0  0  0  0  0  0  0  0  0
    4.8937    4.0250    0.0000 C   0  0  0  0  0  0  0  0  0  0  0  0
    4.5981   -3.8271    0.0000 C   0  0  0  0  0  0  0  0  0  0  0  0
    3.7320   -2.3271    0.0000 C   0  0  0  0  0  0  0  0  0  0  0  0
    3.7320   -3.3271    0.0000 C   0  0  0  0  0  0  0  0  0  0  0  0
    4.2966    4.8271    0.0000 C   0  0  0  0  0  0  0  0  0  0  0  0
    4.0916    3.4279    0.0000 C   0  0  0  0  0  0  0  0  0  0  0  0
    5.6959    4.6221    0.0000 C   0  0  0  0  0  0  0  0  0  0  0  0
    2.0000   -3.3271    0.0000 C   0  0  0  0  0  0  0  0  0  0  0  0
    2.8660   -4.8271    0.0000 C   0  0  0  0  0  0  0  0  0  0  0  0
   12.3182   -0.0241    0.0000 H   0  0  0  0  0  0  0  0  0  0  0  0
   11.5523    0.5333    0.0000 H   0  0  0  0  0  0  0  0  0  0  0  0
   10.6891    0.1370    0.0000 H   0  0  0  0  0  0  0  0  0  0  0  0
    9.8397   -1.4354    0.0000 H   0  0  0  0  0  0  0  0  0  0  0  0
   13.3571   -1.2619    0.0000 H   0  0  0  0  0  0  0  0  0  0  0  0
    9.1170    0.5960    0.0000 H   0  0  0  0  0  0  0  0  0  0  0  0
    7.8211   -1.2192    0.0000 H   0  0  0  0  0  0  0  0  0  0  0  0
    8.6306   -1.0373    0.0000 H   0  0  0  0  0  0  0  0  0  0  0  0
    7.2463   -0.9013    0.0000 H   0  0  0  0  0  0  0  0  0  0  0  0
    7.2278    1.3289    0.0000 H   0  0  0  0  0  0  0  0  0  0  0  0
    6.6797    0.7059    0.0000 H   0  0  0  0  0  0  0  0  0  0  0  0
    7.8288    2.0834    0.0000 H   0  0  0  0  0  0  0  0  0  0  0  0
   14.2941    0.0596    0.0000 H   0  0  0  0  0  0  0  0  0  0  0  0
   13.4181    0.6808    0.0000 H   0  0  0  0  0  0  0  0  0  0  0  0
   11.2915   -3.3107    0.0000 H   0  0  0  0  0  0  0  0  0  0  0  0
    6.8356    1.9674    0.0000 H   0  0  0  0  0  0  0  0  0  0  0  0
    9.4360    4.2434    0.0000 H   0  0  0  0  0  0  0  0  0  0  0  0
    9.1123    5.0583    0.0000 H   0  0  0  0  0  0  0  0  0  0  0  0
    8.2974    4.7347    0.0000 H   0  0  0  0  0  0  0  0  0  0  0  0
    7.7980    4.5363    0.0000 H   0  0  0  0  0  0  0  0  0  0  0  0
    6.9831    4.2126    0.0000 H   0  0  0  0  0  0  0  0  0  0  0  0
    7.3068    3.3977    0.0000 H   0  0  0  0  0  0  0  0  0  0  0  0
    9.1431    2.6054    0.0000 H   0  0  0  0  0  0  0  0  0  0  0  0
    9.9580    2.9291    0.0000 H   0  0  0  0  0  0  0  0  0  0  0  0
    9.6344    3.7440    0.0000 H   0  0  0  0  0  0  0  0  0  0  0  0
    7.7998   -1.9942    0.0000 H   0  0  0  0  0  0  0  0  0  0  0  0
    4.5981   -1.2071    0.0000 H   0  0  0  0  0  0  0  0  0  0  0  0
    7.7998   -3.6600    0.0000 H   0  0  0  0  0  0  0  0  0  0  0  0
    4.5981   -4.4471    0.0000 H   0  0  0  0  0  0  0  0  0  0  0  0
    3.1951   -2.0171    0.0000 H   0  0  0  0  0  0  0  0  0  0  0  0
    4.7940    5.1973    0.0000 H   0  0  0  0  0  0  0  0  0  0  0  0
    3.9264    5.3245    0.0000 H   0  0  0  0  0  0  0  0  0  0  0  0
    3.7993    4.4569    0.0000 H   0  0  0  0  0  0  0  0  0  0  0  0
    3.7214    3.9252    0.0000 H   0  0  0  0  0  0  0  0  0  0  0  0
    3.5942    3.0577    0.0000 H   0  0  0  0  0  0  0  0  0  0  0  0
    4.4618    2.9305    0.0000 H   0  0  0  0  0  0  0  0  0  0  0  0
    6.0661    4.1247    0.0000 H   0  0  0  0  0  0  0  0  0  0  0  0
    6.1932    4.9923    0.0000 H   0  0  0  0  0  0  0  0  0  0  0  0
    5.3257    5.1194    0.0000 H   0  0  0  0  0  0  0  0  0  0  0  0
    2.3100   -2.7902    0.0000 H   0  0  0  0  0  0  0  0  0  0  0  0
    1.4631   -3.0171    0.0000 H   0  0  0  0  0  0  0  0  0  0  0  0
    1.6900   -3.8641    0.0000 H   0  0  0  0  0  0  0  0  0  0  0  0
    2.2460   -4.8271    0.0000 H   0  0  0  0  0  0  0  0  0  0  0  0
    2.8660   -5.4471    0.0000 H   0  0  0  0  0  0  0  0  0  0  0  0
    3.4860   -4.8271    0.0000 H   0  0  0  0  0  0  0  0  0  0  0  0
  1 16  1  0  0  0  0
  1 60  1  0  0  0  0
  2 16  2  0  0  0  0
 21  3  1  1  0  0  0
  3 30  1  0  0  0  0
  4 19  2  0  0  0  0
  5 23  2  0  0  0  0
  6 31  1  0  0  0  0
  6 37  1  0  0  0  0
  7 31  2  0  0  0  0
  8 13  1  0  0  0  0
  8 19  1  0  0  0  0
  8 49  1  0  0  0  0
  9 18  1  0  0  0  0
  9 22  1  0  0  0  0
  9 23  1  0  0  0  0
 25 10  1  1  0  0  0
 10 31  1  0  0  0  0
 10 61  1  0  0  0  0
 11 34  2  0  0  0  0
 11 36  1  0  0  0  0
 12 40  1  0  0  0  0
 12 44  1  0  0  0  0
 12 45  1  0  0  0  0
 13 14  1  0  0  0  0
 13 15  1  0  0  0  0
 13 16  1  0  0  0  0
 14 15  1  0  0  0  0
 14 17  1  6  0  0  0
 14 46  1  0  0  0  0
 15 47  1  0  0  0  0
 15 48  1  0  0  0  0
 17 24  2  0  0  0  0
 17 50  1  0  0  0  0
 18 19  1  6  0  0  0
 18 20  1  0  0  0  0
 18 51  1  0  0  0  0
 20 21  1  0  0  0  0
 20 52  1  0  0  0  0
 20 53  1  0  0  0  0
 21 22  1  0  0  0  0
 21 54  1  0  0  0  0
 22 55  1  0  0  0  0
 22 56  1  0  0  0  0
 23 25  1  0  0  0  0
 24 58  1  0  0  0  0
 24 59  1  0  0  0  0
 25 26  1  0  0  0  0
 25 57  1  0  0  0  0
 26 27  1  0  0  0  0
 26 28  1  0  0  0  0
 26 29  1  0  0  0  0
 27 62  1  0  0  0  0
 27 63  1  0  0  0  0
 27 64  1  0  0  0  0
 28 65  1  0  0  0  0
 28 66  1  0  0  0  0
 28 67  1  0  0  0  0
 29 68  1  0  0  0  0
 29 69  1  0  0  0  0
 29 70  1  0  0  0  0
 30 32  2  0  0  0  0
 30 33  1  0  0  0  0
 32 34  1  0  0  0  0
 32 35  1  0  0  0  0
 33 36  2  0  0  0  0
 33 71  1  0  0  0  0
 34 38  1  0  0  0  0
 35 39  2  0  0  0  0
 35 72  1  0  0  0  0
 36 73  1  0  0  0  0
 37 41  1  0  0  0  0
 37 42  1  0  0  0  0
 37 43  1  0  0  0  0
 38 40  2  0  0  0  0
 38 74  1  0  0  0  0
 39 40  1  0  0  0  0
 39 75  1  0  0  0  0
 41 76  1  0  0  0  0
 41 77  1  0  0  0  0
 41 78  1  0  0  0  0
 42 79  1  0  0  0  0
 42 80  1  0  0  0  0
 42 81  1  0  0  0  0
 43 82  1  0  0  0  0
 43 83  1  0  0  0  0
 43 84  1  0  0  0  0
 44 85  1  0  0  0  0
 44 86  1  0  0  0  0
 44 87  1  0  0  0  0
 45 88  1  0  0  0  0
 45 89  1  0  0  0  0
 45 90  1  0  0  0  0
M  END
> <PUBCHEM_COMPOUND_CID>
500702
> <PUBCHEM_COMPOUND_CANONICALIZED>
1
> <PUBCHEM_CACTVS_COMPLEXITY>
1150
> <PUBCHEM_CACTVS_HBOND_ACCEPTOR>
9
> <PUBCHEM_CACTVS_HBOND_DONOR>
3
> <PUBCHEM_CACTVS_ROTATABLE_BOND>
12
> <PUBCHEM_CACTVS_SUBSKEYS>
AAADcfB/uAAAAAAAAAAAAAAAGAAAAWAAAAA8QAAAAAAAAACx8AAAHgAQCAAAD/zhngY+zvPIFgCoAzX3XACCiCAxIiAI2KG+bJkOZvLE8fuffCjm1hnY6Ae60aMPCAAAAAQCAAAQAAAACAQAAAAAAAAAAA==
> <PUBCHEM_IUPAC_OPENEYE_NAME>
(2R)-1-[[(2S,4R)-1-[(2S)-2-(tert-butoxycarbonylamino)-3,3-dimethyl-butanoyl]-4-[[7-(dimethylamino)-4-quinolyl]oxy]pyrrolidine-2-carbonyl]amino]-2-vinyl-cyclopropanecarboxylic acid
> <PUBCHEM_IUPAC_CAS_NAME>
(2R)-1-[[[(2S,4R)-4-[[7-(dimethylamino)-4-quinolinyl]oxy]-1-[(2S)-3,3-dimethyl-2-[[(2-methylpropan-2-yl)oxy-oxomethyl]amino]-1-oxobutyl]-2-pyrrolidinyl]-oxomethyl]amino]-2-ethenyl-1-cyclopropanecarboxylic acid
> <PUBCHEM_IUPAC_NAME_MARKUP>
(2<I>R</I>)-1-[[(2<I>S</I>,4<I>R</I>)-4-[7-(dimethylamino)quinolin-4-yl]oxy-1-[(2<I>S</I>)-3,3-dimethyl-2-[(2-methylpropan-2-yl)oxycarbonylamino]butanoyl]pyrrolidine-2-carbonyl]amino]-2-ethenylcyclopropane-1-carboxylic acid
> <PUBCHEM_IUPAC_NAME>
(2R)-1-[[(2S,4R)-4-[7-(dimethylamino)quinolin-4-yl]oxy-1-[(2S)-3,3-dimethyl-2-[(2-methylpropan-2-yl)oxycarbonylamino]butanoyl]pyrrolidine-2-carbonyl]amino]-2-ethenylcyclopropane-1-carboxylic acid
> <PUBCHEM_IUPAC_SYSTEMATIC_NAME>
(2R)-1-[[(2S,4R)-4-[7-(dimethylamino)quinolin-4-yl]oxy-1-[(2S)-3,3-dimethyl-2-[(2-methylpropan-2-yl)oxycarbonylamino]butanoyl]pyrrolidin-2-yl]carbonylamino]-2-ethenyl-cyclopropane-1-carboxylic acid
> <PUBCHEM_IUPAC_TRADITIONAL_NAME>
(2R)-1-[[(2S,4R)-1-[(2S)-2-(tert-butoxycarbonylamino)-3,3-dimethyl-butanoyl]-4-[[7-(dimethylamino)-4-quinolyl]oxy]prolyl]amino]-2-vinyl-cyclopropanecarboxylic acid
> <PUBCHEM_IUPAC_INCHI>
InChI=1S/C33H45N5O7/c1-10-19-17-33(19,29(41)42)36-27(39)24-16-21(44-25-13-14-34-23-15-20(37(8)9)11-12-22(23)25)18-38(24)28(40)26(31(2,3)4)35-30(43)45-32(5,6)7/h10-15,19,21,24,26H,1,16-18H2,2-9H3,(H,35,43)(H,36,39)(H,41,42)/t19-,21+,24-,26+,33?/m0/s1
> <PUBCHEM_IUPAC_INCHIKEY>
WQAWCYKAZBMFOY-VCTPAIFTSA-N
> <PUBCHEM_XLOGP3_AA>
4.3
> <PUBCHEM_EXACT_MASS>
623.33189879
> <PUBCHEM_MOLECULAR_FORMULA>
C33H45N5O7
> <PUBCHEM_MOLECULAR_WEIGHT>
623.7
> <PUBCHEM_OPENEYE_CAN_SMILES>
CC(C)(C)C(C(=O)N1CC(CC1C(=O)NC2(CC2C=C)C(=O)O)OC3=C4C=CC(=CC4=NC=C3)N(C)C)NC(=O)OC(C)(C)C
> <PUBCHEM_OPENEYE_ISO_SMILES>
CC(C)(C)[C@@H](C(=O)N1C[C@@H](C[C@H]1C(=O)NC2(C[C@@H]2C=C)C(=O)O)OC3=C4C=CC(=CC4=NC=C3)N(C)C)NC(=O)OC(C)(C)C
> <PUBCHEM_CACTVS_TPSA>
150
> <PUBCHEM_MONOISOTOPIC_WEIGHT>
623.33189879
> <PUBCHEM_TOTAL_CHARGE>
0
> <PUBCHEM_HEAVY_ATOM_COUNT>
45
> <PUBCHEM_ATOM_DEF_STEREO_COUNT>
4
> <PUBCHEM_ATOM_UDEF_STEREO_COUNT>
1
> <PUBCHEM_BOND_DEF_STEREO_COUNT>
0
> <PUBCHEM_BOND_UDEF_STEREO_COUNT>
0
> <PUBCHEM_ISOTOPIC_ATOM_COUNT>
0
> <PUBCHEM_COMPONENT_COUNT>
1
> <PUBCHEM_CACTVS_TAUTO_COUNT>
-1
> <PUBCHEM_COORDINATE_TYPE>
1
5
255
> <PUBCHEM_BONDANNOTATIONS>
25  10  5
11  34  8
11  36  8
13  16  3
14  17  6
18  19  6
21  3  5
30  32  8
30  33  8
32  34  8
32  35  8
33  36  8
34  38  8
35  39  8
38  40  8
39  40  8
$$$$
