500714
  -OEChem-10302200282D
 92 96  0     1  0  0  0  0  0999 V2000
    2.0000   -4.1047    0.0000 F   0  0  0  0  0  0  0  0  0  0  0  0
   11.9569   -0.6622    0.0000 O   0  0  0  0  0  0  0  0  0  0  0  0
   10.5557    0.3558    0.0000 O   0  0  0  0  0  0  0  0  0  0  0  0
    5.5301   -1.0805    0.0000 O   0  0  0  0  0  0  0  0  0  0  0  0
    9.5611    0.4604    0.0000 O   0  0  0  0  0  0  0  0  0  0  0  0
    8.8801    1.6400    0.0000 O   0  0  0  0  0  0  0  0  0  0  0  0
    6.1222    3.9625    0.0000 O   0  0  0  0  0  0  0  0  0  0  0  0
    4.7210    2.9444    0.0000 O   0  0  0  0  0  0  0  0  0  0  0  0
    9.3801   -1.2622    0.0000 N   0  0  0  0  0  0  0  0  0  0  0  0
    7.4788    0.6219    0.0000 N   0  0  0  0  0  0  0  0  0  0  0  0
    6.3033    2.2399    0.0000 N   0  0  0  0  0  0  0  0  0  0  0  0
    5.5301   -4.0805    0.0000 N   0  0  0  0  0  0  0  0  0  0  0  0
   10.3746   -1.3667    0.0000 C   0  0  3  0  0  0  0  0  0  0  0  0
   10.2701   -2.3612    0.0000 C   0  0  2  0  0  0  0  0  0  0  0  0
   11.1836   -1.9545    0.0000 C   0  0  0  0  0  0  0  0  0  0  0  0
   10.9624   -0.5577    0.0000 C   0  0  0  0  0  0  0  0  0  0  0  0
    9.6823   -3.1703    0.0000 C   0  0  0  0  0  0  0  0  0  0  0  0
    7.9788   -0.2441    0.0000 C   0  0  2  0  0  0  0  0  0  0  0  0
    8.9734   -0.3487    0.0000 C   0  0  0  0  0  0  0  0  0  0  0  0
    7.3097   -0.9873    0.0000 C   0  0  0  0  0  0  0  0  0  0  0  0
    6.3961   -0.5805    0.0000 C   0  0  2  0  0  0  0  0  0  0  0  0
    6.5007    0.4140    0.0000 C   0  0  0  0  0  0  0  0  0  0  0  0
    7.8856    1.5354    0.0000 C   0  0  0  0  0  0  0  0  0  0  0  0
   10.0890   -4.0838    0.0000 C   0  0  0  0  0  0  0  0  0  0  0  0
    7.2978    2.3445    0.0000 C   0  0  2  0  0  0  0  0  0  0  0  0
    7.7045    3.2580    0.0000 C   0  0  0  0  0  0  0  0  0  0  0  0
    8.1112    4.1716    0.0000 C   0  0  0  0  0  0  0  0  0  0  0  0
    6.7910    3.6648    0.0000 C   0  0  0  0  0  0  0  0  0  0  0  0
    8.6181    2.8513    0.0000 C   0  0  0  0  0  0  0  0  0  0  0  0
    5.5301   -2.0805    0.0000 C   0  0  0  0  0  0  0  0  0  0  0  0
    5.7155    3.0490    0.0000 C   0  0  0  0  0  0  0  0  0  0  0  0
    4.6641   -2.5805    0.0000 C   0  0  0  0  0  0  0  0  0  0  0  0
    6.3961   -2.5805    0.0000 C   0  0  0  0  0  0  0  0  0  0  0  0
    4.6641   -3.5805    0.0000 C   0  0  0  0  0  0  0  0  0  0  0  0
    6.3961   -3.5805    0.0000 C   0  0  0  0  0  0  0  0  0  0  0  0
    3.7702   -2.0459    0.0000 C   0  0  0  0  0  0  0  0  0  0  0  0
    5.5344    4.7715    0.0000 C   0  0  0  0  0  0  0  0  0  0  0  0
    3.7702   -4.1152    0.0000 C   0  0  0  0  0  0  0  0  0  0  0  0
    7.2622   -4.0805    0.0000 C   0  0  0  0  0  0  0  0  0  0  0  0
    2.8641   -2.5597    0.0000 C   0  0  0  0  0  0  0  0  0  0  0  0
    4.9466    5.5805    0.0000 C   0  0  0  0  0  0  0  0  0  0  0  0
    6.3434    5.3593    0.0000 C   0  0  0  0  0  0  0  0  0  0  0  0
    4.7254    4.1837    0.0000 C   0  0  0  0  0  0  0  0  0  0  0  0
    2.8641   -3.6014    0.0000 C   0  0  0  0  0  0  0  0  0  0  0  0
    8.1282   -3.5805    0.0000 C   0  0  0  0  0  0  0  0  0  0  0  0
    7.2622   -5.0805    0.0000 C   0  0  0  0  0  0  0  0  0  0  0  0
    8.9942   -4.0805    0.0000 C   0  0  0  0  0  0  0  0  0  0  0  0
    8.1282   -5.5805    0.0000 C   0  0  0  0  0  0  0  0  0  0  0  0
    8.9942   -5.0805    0.0000 C   0  0  0  0  0  0  0  0  0  0  0  0
   10.6603   -2.8431    0.0000 H   0  0  0  0  0  0  0  0  0  0  0  0
   11.5303   -2.4685    0.0000 H   0  0  0  0  0  0  0  0  0  0  0  0
   11.6296   -1.5238    0.0000 H   0  0  0  0  0  0  0  0  0  0  0  0
    9.0157   -1.7638    0.0000 H   0  0  0  0  0  0  0  0  0  0  0  0
    9.0657   -3.1055    0.0000 H   0  0  0  0  0  0  0  0  0  0  0  0
    8.3165    0.2759    0.0000 H   0  0  0  0  0  0  0  0  0  0  0  0
    6.9997   -1.5242    0.0000 H   0  0  0  0  0  0  0  0  0  0  0  0
    7.8113   -1.3517    0.0000 H   0  0  0  0  0  0  0  0  0  0  0  0
    6.4286   -1.1997    0.0000 H   0  0  0  0  0  0  0  0  0  0  0  0
    6.4359    1.0306    0.0000 H   0  0  0  0  0  0  0  0  0  0  0  0
    5.8807    0.4140    0.0000 H   0  0  0  0  0  0  0  0  0  0  0  0
    9.7246   -4.5854    0.0000 H   0  0  0  0  0  0  0  0  0  0  0  0
   10.7056   -4.1486    0.0000 H   0  0  0  0  0  0  0  0  0  0  0  0
    6.9334    2.8460    0.0000 H   0  0  0  0  0  0  0  0  0  0  0  0
   12.3213   -0.1606    0.0000 H   0  0  0  0  0  0  0  0  0  0  0  0
    6.0511    1.6735    0.0000 H   0  0  0  0  0  0  0  0  0  0  0  0
    8.6776    3.9194    0.0000 H   0  0  0  0  0  0  0  0  0  0  0  0
    8.3634    4.7380    0.0000 H   0  0  0  0  0  0  0  0  0  0  0  0
    7.5448    4.4237    0.0000 H   0  0  0  0  0  0  0  0  0  0  0  0
    7.0432    4.2311    0.0000 H   0  0  0  0  0  0  0  0  0  0  0  0
    6.2246    3.9169    0.0000 H   0  0  0  0  0  0  0  0  0  0  0  0
    6.5388    3.0984    0.0000 H   0  0  0  0  0  0  0  0  0  0  0  0
    8.3659    2.2849    0.0000 H   0  0  0  0  0  0  0  0  0  0  0  0
    9.1845    2.5991    0.0000 H   0  0  0  0  0  0  0  0  0  0  0  0
    8.8702    3.4177    0.0000 H   0  0  0  0  0  0  0  0  0  0  0  0
    6.9331   -2.2705    0.0000 H   0  0  0  0  0  0  0  0  0  0  0  0
    3.7773   -1.4259    0.0000 H   0  0  0  0  0  0  0  0  0  0  0  0
    3.7773   -4.7352    0.0000 H   0  0  0  0  0  0  0  0  0  0  0  0
    2.3284   -2.2476    0.0000 H   0  0  0  0  0  0  0  0  0  0  0  0
    5.4482    5.9450    0.0000 H   0  0  0  0  0  0  0  0  0  0  0  0
    4.5822    6.0821    0.0000 H   0  0  0  0  0  0  0  0  0  0  0  0
    4.4450    5.2161    0.0000 H   0  0  0  0  0  0  0  0  0  0  0  0
    6.7079    4.8577    0.0000 H   0  0  0  0  0  0  0  0  0  0  0  0
    6.8450    5.7237    0.0000 H   0  0  0  0  0  0  0  0  0  0  0  0
    5.9790    5.8609    0.0000 H   0  0  0  0  0  0  0  0  0  0  0  0
    4.3610    4.6853    0.0000 H   0  0  0  0  0  0  0  0  0  0  0  0
    4.2238    3.8193    0.0000 H   0  0  0  0  0  0  0  0  0  0  0  0
    5.0898    3.6821    0.0000 H   0  0  0  0  0  0  0  0  0  0  0  0
    8.1282   -2.9605    0.0000 H   0  0  0  0  0  0  0  0  0  0  0  0
    6.7252   -5.3905    0.0000 H   0  0  0  0  0  0  0  0  0  0  0  0
    9.5312   -3.7705    0.0000 H   0  0  0  0  0  0  0  0  0  0  0  0
    8.1282   -6.2005    0.0000 H   0  0  0  0  0  0  0  0  0  0  0  0
    9.5312   -5.3905    0.0000 H   0  0  0  0  0  0  0  0  0  0  0  0
  1 44  1  0  0  0  0
  2 16  1  0  0  0  0
  2 64  1  0  0  0  0
  3 16  2  0  0  0  0
 21  4  1  1  0  0  0
  4 30  1  0  0  0  0
  5 19  2  0  0  0  0
  6 23  2  0  0  0  0
  7 31  1  0  0  0  0
  7 37  1  0  0  0  0
  8 31  2  0  0  0  0
  9 13  1  0  0  0  0
  9 19  1  0  0  0  0
  9 53  1  0  0  0  0
 10 18  1  0  0  0  0
 10 22  1  0  0  0  0
 10 23  1  0  0  0  0
 25 11  1  1  0  0  0
 11 31  1  0  0  0  0
 11 65  1  0  0  0  0
 12 34  1  0  0  0  0
 12 35  2  0  0  0  0
 13 14  1  0  0  0  0
 13 15  1  0  0  0  0
 13 16  1  0  0  0  0
 14 15  1  0  0  0  0
 14 17  1  6  0  0  0
 14 50  1  0  0  0  0
 15 51  1  0  0  0  0
 15 52  1  0  0  0  0
 17 24  2  0  0  0  0
 17 54  1  0  0  0  0
 18 19  1  6  0  0  0
 18 20  1  0  0  0  0
 18 55  1  0  0  0  0
 20 21  1  0  0  0  0
 20 56  1  0  0  0  0
 20 57  1  0  0  0  0
 21 22  1  0  0  0  0
 21 58  1  0  0  0  0
 22 59  1  0  0  0  0
 22 60  1  0  0  0  0
 23 25  1  0  0  0  0
 24 61  1  0  0  0  0
 24 62  1  0  0  0  0
 25 26  1  0  0  0  0
 25 63  1  0  0  0  0
 26 27  1  0  0  0  0
 26 28  1  0  0  0  0
 26 29  1  0  0  0  0
 27 66  1  0  0  0  0
 27 67  1  0  0  0  0
 27 68  1  0  0  0  0
 28 69  1  0  0  0  0
 28 70  1  0  0  0  0
 28 71  1  0  0  0  0
 29 72  1  0  0  0  0
 29 73  1  0  0  0  0
 29 74  1  0  0  0  0
 30 32  1  0  0  0  0
 30 33  2  0  0  0  0
 32 34  2  0  0  0  0
 32 36  1  0  0  0  0
 33 35  1  0  0  0  0
 33 75  1  0  0  0  0
 34 38  1  0  0  0  0
 35 39  1  0  0  0  0
 36 40  2  0  0  0  0
 36 76  1  0  0  0  0
 37 41  1  0  0  0  0
 37 42  1  0  0  0  0
 37 43  1  0  0  0  0
 38 44  2  0  0  0  0
 38 77  1  0  0  0  0
 39 45  2  0  0  0  0
 39 46  1  0  0  0  0
 40 44  1  0  0  0  0
 40 78  1  0  0  0  0
 41 79  1  0  0  0  0
 41 80  1  0  0  0  0
 41 81  1  0  0  0  0
 42 82  1  0  0  0  0
 42 83  1  0  0  0  0
 42 84  1  0  0  0  0
 43 85  1  0  0  0  0
 43 86  1  0  0  0  0
 43 87  1  0  0  0  0
 45 47  1  0  0  0  0
 45 88  1  0  0  0  0
 46 48  2  0  0  0  0
 46 89  1  0  0  0  0
 47 49  2  0  0  0  0
 47 90  1  0  0  0  0
 48 49  1  0  0  0  0
 48 91  1  0  0  0  0
 49 92  1  0  0  0  0
M  END
> <PUBCHEM_COMPOUND_CID>
500714
> <PUBCHEM_COMPOUND_CANONICALIZED>
1
> <PUBCHEM_CACTVS_COMPLEXITY>
1260
> <PUBCHEM_CACTVS_HBOND_ACCEPTOR>
9
> <PUBCHEM_CACTVS_HBOND_DONOR>
3
> <PUBCHEM_CACTVS_ROTATABLE_BOND>
12
> <PUBCHEM_CACTVS_SUBSKEYS>
AAADcfB/uQAAAAAAAAAAAAAAGAAAAWAAAAA8YIAAAAAAAACx9AAAHwAQCAAAD/zhng4yzvPIFgCoAyXyXACCiCAhIiAImKG+bJkOZvLEsbufeCjm1hnY6Ae6weAPAAAAAAACAAAAAAAAAAQAAAAAAAAAAA==
> <PUBCHEM_IUPAC_OPENEYE_NAME>
(2R)-1-[[(2S,4R)-1-[(2S)-2-(tert-butoxycarbonylamino)-3,3-dimethyl-butanoyl]-4-[(7-fluoro-2-phenyl-4-quinolyl)oxy]pyrrolidine-2-carbonyl]amino]-2-vinyl-cyclopropanecarboxylic acid
> <PUBCHEM_IUPAC_CAS_NAME>
(2R)-1-[[[(2S,4R)-1-[(2S)-3,3-dimethyl-2-[[(2-methylpropan-2-yl)oxy-oxomethyl]amino]-1-oxobutyl]-4-[(7-fluoro-2-phenyl-4-quinolinyl)oxy]-2-pyrrolidinyl]-oxomethyl]amino]-2-ethenyl-1-cyclopropanecarboxylic acid
> <PUBCHEM_IUPAC_NAME_MARKUP>
(2<I>R</I>)-1-[[(2<I>S</I>,4<I>R</I>)-1-[(2<I>S</I>)-3,3-dimethyl-2-[(2-methylpropan-2-yl)oxycarbonylamino]butanoyl]-4-(7-fluoro-2-phenylquinolin-4-yl)oxypyrrolidine-2-carbonyl]amino]-2-ethenylcyclopropane-1-carboxylic acid
> <PUBCHEM_IUPAC_NAME>
(2R)-1-[[(2S,4R)-1-[(2S)-3,3-dimethyl-2-[(2-methylpropan-2-yl)oxycarbonylamino]butanoyl]-4-(7-fluoro-2-phenylquinolin-4-yl)oxypyrrolidine-2-carbonyl]amino]-2-ethenylcyclopropane-1-carboxylic acid
> <PUBCHEM_IUPAC_SYSTEMATIC_NAME>
(2R)-1-[[(2S,4R)-1-[(2S)-3,3-dimethyl-2-[(2-methylpropan-2-yl)oxycarbonylamino]butanoyl]-4-(7-fluoranyl-2-phenyl-quinolin-4-yl)oxy-pyrrolidin-2-yl]carbonylamino]-2-ethenyl-cyclopropane-1-carboxylic acid
> <PUBCHEM_IUPAC_TRADITIONAL_NAME>
(2R)-1-[[(2S,4R)-1-[(2S)-2-(tert-butoxycarbonylamino)-3,3-dimethyl-butanoyl]-4-[(7-fluoro-2-phenyl-4-quinolyl)oxy]prolyl]amino]-2-vinyl-cyclopropanecarboxylic acid
> <PUBCHEM_IUPAC_INCHI>
InChI=1S/C37H43FN4O7/c1-8-22-19-37(22,33(45)46)41-31(43)28-17-24(20-42(28)32(44)30(35(2,3)4)40-34(47)49-36(5,6)7)48-29-18-26(21-12-10-9-11-13-21)39-27-16-23(38)14-15-25(27)29/h8-16,18,22,24,28,30H,1,17,19-20H2,2-7H3,(H,40,47)(H,41,43)(H,45,46)/t22-,24+,28-,30+,37?/m0/s1
> <PUBCHEM_IUPAC_INCHIKEY>
MANLSVWGTJXIIU-GCMNKBHVSA-N
> <PUBCHEM_XLOGP3_AA>
6
> <PUBCHEM_EXACT_MASS>
674.31157789
> <PUBCHEM_MOLECULAR_FORMULA>
C37H43FN4O7
> <PUBCHEM_MOLECULAR_WEIGHT>
674.8
> <PUBCHEM_OPENEYE_CAN_SMILES>
CC(C)(C)C(C(=O)N1CC(CC1C(=O)NC2(CC2C=C)C(=O)O)OC3=CC(=NC4=C3C=CC(=C4)F)C5=CC=CC=C5)NC(=O)OC(C)(C)C
> <PUBCHEM_OPENEYE_ISO_SMILES>
CC(C)(C)[C@@H](C(=O)N1C[C@@H](C[C@H]1C(=O)NC2(C[C@@H]2C=C)C(=O)O)OC3=CC(=NC4=C3C=CC(=C4)F)C5=CC=CC=C5)NC(=O)OC(C)(C)C
> <PUBCHEM_CACTVS_TPSA>
147
> <PUBCHEM_MONOISOTOPIC_WEIGHT>
674.31157789
> <PUBCHEM_TOTAL_CHARGE>
0
> <PUBCHEM_HEAVY_ATOM_COUNT>
49
> <PUBCHEM_ATOM_DEF_STEREO_COUNT>
4
> <PUBCHEM_ATOM_UDEF_STEREO_COUNT>
1
> <PUBCHEM_BOND_DEF_STEREO_COUNT>
0
> <PUBCHEM_BOND_UDEF_STEREO_COUNT>
0
> <PUBCHEM_ISOTOPIC_ATOM_COUNT>
0
> <PUBCHEM_COMPONENT_COUNT>
1
> <PUBCHEM_CACTVS_TAUTO_COUNT>
-1
> <PUBCHEM_COORDINATE_TYPE>
1
5
255
> <PUBCHEM_BONDANNOTATIONS>
25  11  5
12  34  8
12  35  8
13  16  3
14  17  6
18  19  6
30  32  8
30  33  8
32  34  8
32  36  8
33  35  8
34  38  8
36  40  8
38  44  8
39  45  8
39  46  8
21  4  5
40  44  8
45  47  8
46  48  8
47  49  8
48  49  8
$$$$
