500853
  -OEChem-10302200282D
142149  0     1  0  0  0  0  0999 V2000
    7.7522    0.2395    0.0000 O   0  0  0  0  0  0  0  0  0  0  0  0
    9.4842    3.2395    0.0000 O   0  0  0  0  0  0  0  0  0  0  0  0
    5.5202   -5.2993    0.0000 O   0  0  0  0  0  0  0  0  0  0  0  0
    7.8232   -4.3508    0.0000 O   0  0  0  0  0  0  0  0  0  0  0  0
    7.3259   -5.8815    0.0000 O   0  0  0  0  0  0  0  0  0  0  0  0
    6.0202   -2.7605    0.0000 O   0  0  0  0  0  0  0  0  0  0  0  0
    3.9511   -3.0882    0.0000 O   0  0  0  0  0  0  0  0  0  0  0  0
    2.6420   -4.0392    0.0000 O   0  0  0  0  0  0  0  0  0  0  0  0
    8.6182   -1.2605    0.0000 O   0  0  0  0  0  0  0  0  0  0  0  0
    9.4842    2.2395    0.0000 O   0  0  0  0  0  0  0  0  0  0  0  0
    7.7522   -2.7605    0.0000 O   0  0  0  0  0  0  0  0  0  0  0  0
   12.9483    3.2395    0.0000 O   0  0  0  0  0  0  0  0  0  0  0  0
   12.0824    0.0075    0.0000 O   0  0  0  0  0  0  0  0  0  0  0  0
    7.7522    2.2395    0.0000 N   0  0  3  0  0  0  0  0  0  0  0  0
    8.6182    4.7395    0.0000 N   0  0  0  0  0  0  0  0  0  0  0  0
   10.3503    0.7395    0.0000 N   0  0  0  0  0  0  0  0  0  0  0  0
   12.0823    1.7395    0.0000 N   0  0  0  0  0  0  0  0  0  0  0  0
   12.0823    4.7395    0.0000 N   0  0  0  0  0  0  0  0  0  0  0  0
   14.0823    0.0075    0.0000 N   0  0  0  0  0  0  0  0  0  0  0  0
    6.0202    3.2395    0.0000 C   0  0  3  0  0  0  0  0  0  0  0  0
    6.0202    2.2395    0.0000 C   0  0  3  0  0  0  0  0  0  0  0  0
    6.8862    3.7395    0.0000 C   0  0  0  0  0  0  0  0  0  0  0  0
    6.8862    1.7395    0.0000 C   0  0  0  0  0  0  0  0  0  0  0  0
    5.1262    3.7742    0.0000 C   0  0  0  0  0  0  0  0  0  0  0  0
    5.1262    1.7049    0.0000 C   0  0  0  0  0  0  0  0  0  0  0  0
    7.7522    3.2395    0.0000 C   0  0  1  0  0  0  0  0  0  0  0  0
    4.2201    3.2603    0.0000 C   0  0  0  0  0  0  0  0  0  0  0  0
    4.2201    2.2187    0.0000 C   0  0  0  0  0  0  0  0  0  0  0  0
    8.6182    1.7395    0.0000 C   0  0  0  0  0  0  0  0  0  0  0  0
    8.6182    3.7395    0.0000 C   0  0  0  0  0  0  0  0  0  0  0  0
    8.6182    0.7395    0.0000 C   0  0  2  0  0  0  0  0  0  0  0  0
    9.4842    0.2395    0.0000 C   0  0  2  0  0  0  0  0  0  0  0  0
    6.8292   -4.3483    0.0000 C   0  0  1  0  0  0  0  0  0  0  0  0
    5.2111   -4.3483    0.0000 C   0  0  1  0  0  0  0  0  0  0  0  0
    6.0202   -3.7605    0.0000 C   0  0  2  0  0  0  0  0  0  0  0  0
    9.4842    5.2395    0.0000 C   0  0  0  0  0  0  0  0  0  0  0  0
    6.5202   -5.2993    0.0000 C   0  0  3  0  0  0  0  0  0  0  0  0
    9.4842   -0.7605    0.0000 C   0  0  0  0  0  0  0  0  0  0  0  0
    4.2601   -4.0392    0.0000 C   0  0  3  0  0  0  0  0  0  0  0  0
    8.1296   -5.2965    0.0000 C   0  0  0  0  0  0  0  0  0  0  0  0
    3.4511   -4.6270    0.0000 C   0  0  0  0  0  0  0  0  0  0  0  0
   10.3503    5.7395    0.0000 C   0  0  0  0  0  0  0  0  0  0  0  0
    8.9842    6.1056    0.0000 C   0  0  0  0  0  0  0  0  0  0  0  0
    9.9842    4.3735    0.0000 C   0  0  0  0  0  0  0  0  0  0  0  0
    2.9511   -3.0882    0.0000 C   0  0  0  0  0  0  0  0  0  0  0  0
    7.7522   -0.7605    0.0000 C   0  0  0  0  0  0  0  0  0  0  0  0
   10.3503   -1.2605    0.0000 C   0  0  0  0  0  0  0  0  0  0  0  0
    6.8862   -1.2605    0.0000 C   0  0  0  0  0  0  0  0  0  0  0  0
    8.7174   -6.1056    0.0000 C   0  0  0  0  0  0  0  0  0  0  0  0
    9.0807   -4.9875    0.0000 C   0  0  0  0  0  0  0  0  0  0  0  0
   10.3503    1.7395    0.0000 C   0  0  0  0  0  0  0  0  0  0  0  0
    6.8862   -2.2605    0.0000 C   0  0  0  0  0  0  0  0  0  0  0  0
    2.9511   -2.0882    0.0000 C   0  0  0  0  0  0  0  0  0  0  0  0
    2.0000   -2.7792    0.0000 C   0  0  0  0  0  0  0  0  0  0  0  0
   11.2163    2.2395    0.0000 C   0  0  2  0  0  0  0  0  0  0  0  0
   11.2163   -0.7605    0.0000 C   0  0  0  0  0  0  0  0  0  0  0  0
   10.3503   -2.2605    0.0000 C   0  0  0  0  0  0  0  0  0  0  0  0
   11.2163    3.2395    0.0000 C   0  0  0  0  0  0  0  0  0  0  0  0
   12.0823   -1.2605    0.0000 C   0  0  0  0  0  0  0  0  0  0  0  0
   11.2163   -2.7605    0.0000 C   0  0  0  0  0  0  0  0  0  0  0  0
   12.0823   -2.2605    0.0000 C   0  0  0  0  0  0  0  0  0  0  0  0
   12.0823    3.7395    0.0000 C   0  0  0  0  0  0  0  0  0  0  0  0
   12.5824    0.8735    0.0000 C   0  0  0  0  0  0  0  0  0  0  0  0
   13.5823    0.8735    0.0000 C   0  0  0  0  0  0  0  0  0  0  0  0
   14.0823    1.7395    0.0000 C   0  0  0  0  0  0  0  0  0  0  0  0
   15.0823    1.7395    0.0000 C   0  0  0  0  0  0  0  0  0  0  0  0
   15.0823    0.0075    0.0000 C   0  0  0  0  0  0  0  0  0  0  0  0
   15.5823    0.8735    0.0000 C   0  0  0  0  0  0  0  0  0  0  0  0
   15.5892   -0.9025    0.0000 C   0  0  0  0  0  0  0  0  0  0  0  0
   16.6238    0.8896    0.0000 C   0  0  0  0  0  0  0  0  0  0  0  0
   16.6308   -0.9106    0.0000 C   0  0  0  0  0  0  0  0  0  0  0  0
   17.1516   -0.0085    0.0000 C   0  0  0  0  0  0  0  0  0  0  0  0
    6.0249    3.8595    0.0000 H   0  0  0  0  0  0  0  0  0  0  0  0
    6.0249    1.6195    0.0000 H   0  0  0  0  0  0  0  0  0  0  0  0
    7.2847    4.2145    0.0000 H   0  0  0  0  0  0  0  0  0  0  0  0
    6.4876    4.2145    0.0000 H   0  0  0  0  0  0  0  0  0  0  0  0
    6.4876    1.2646    0.0000 H   0  0  0  0  0  0  0  0  0  0  0  0
    7.2847    1.2646    0.0000 H   0  0  0  0  0  0  0  0  0  0  0  0
    5.5308    4.2440    0.0000 H   0  0  0  0  0  0  0  0  0  0  0  0
    4.7326    4.2532    0.0000 H   0  0  0  0  0  0  0  0  0  0  0  0
    4.7326    1.2258    0.0000 H   0  0  0  0  0  0  0  0  0  0  0  0
    5.5308    1.2351    0.0000 H   0  0  0  0  0  0  0  0  0  0  0  0
    8.2891    2.9295    0.0000 H   0  0  0  0  0  0  0  0  0  0  0  0
    4.0111    3.8440    0.0000 H   0  0  0  0  0  0  0  0  0  0  0  0
    3.6093    3.1543    0.0000 H   0  0  0  0  0  0  0  0  0  0  0  0
    3.6093    2.3248    0.0000 H   0  0  0  0  0  0  0  0  0  0  0  0
    4.0111    1.6350    0.0000 H   0  0  0  0  0  0  0  0  0  0  0  0
    9.2288    1.6319    0.0000 H   0  0  0  0  0  0  0  0  0  0  0  0
    8.8303    2.3221    0.0000 H   0  0  0  0  0  0  0  0  0  0  0  0
    8.0813    1.0495    0.0000 H   0  0  0  0  0  0  0  0  0  0  0  0
    9.4842    0.8595    0.0000 H   0  0  0  0  0  0  0  0  0  0  0  0
    8.0813    5.0495    0.0000 H   0  0  0  0  0  0  0  0  0  0  0  0
    7.0929   -3.5402    0.0000 H   0  0  0  0  0  0  0  0  0  0  0  0
    4.6101   -4.9493    0.0000 H   0  0  0  0  0  0  0  0  0  0  0  0
    5.4677   -3.4790    0.0000 H   0  0  0  0  0  0  0  0  0  0  0  0
    6.3293   -5.8892    0.0000 H   0  0  0  0  0  0  0  0  0  0  0  0
    4.6985   -3.6008    0.0000 H   0  0  0  0  0  0  0  0  0  0  0  0
    8.8737   -0.6528    0.0000 H   0  0  0  0  0  0  0  0  0  0  0  0
    9.2722   -1.3431    0.0000 H   0  0  0  0  0  0  0  0  0  0  0  0
   10.8872    0.4295    0.0000 H   0  0  0  0  0  0  0  0  0  0  0  0
    3.0362   -5.0878    0.0000 H   0  0  0  0  0  0  0  0  0  0  0  0
    3.8659   -5.0878    0.0000 H   0  0  0  0  0  0  0  0  0  0  0  0
   10.6603    5.2026    0.0000 H   0  0  0  0  0  0  0  0  0  0  0  0
   10.8872    6.0495    0.0000 H   0  0  0  0  0  0  0  0  0  0  0  0
   10.0403    6.2765    0.0000 H   0  0  0  0  0  0  0  0  0  0  0  0
    9.5212    6.4156    0.0000 H   0  0  0  0  0  0  0  0  0  0  0  0
    8.6742    6.6425    0.0000 H   0  0  0  0  0  0  0  0  0  0  0  0
    8.4473    5.7956    0.0000 H   0  0  0  0  0  0  0  0  0  0  0  0
    9.4473    4.0635    0.0000 H   0  0  0  0  0  0  0  0  0  0  0  0
   10.2942    3.8366    0.0000 H   0  0  0  0  0  0  0  0  0  0  0  0
   10.5212    4.6835    0.0000 H   0  0  0  0  0  0  0  0  0  0  0  0
    8.2158   -6.4700    0.0000 H   0  0  0  0  0  0  0  0  0  0  0  0
    9.0818   -6.6071    0.0000 H   0  0  0  0  0  0  0  0  0  0  0  0
    9.2190   -5.7411    0.0000 H   0  0  0  0  0  0  0  0  0  0  0  0
    9.2723   -5.5772    0.0000 H   0  0  0  0  0  0  0  0  0  0  0  0
    9.6703   -4.7959    0.0000 H   0  0  0  0  0  0  0  0  0  0  0  0
    8.8891   -4.3979    0.0000 H   0  0  0  0  0  0  0  0  0  0  0  0
    6.6741   -0.6779    0.0000 H   0  0  0  0  0  0  0  0  0  0  0  0
    6.2756   -1.3681    0.0000 H   0  0  0  0  0  0  0  0  0  0  0  0
    3.5711   -2.0882    0.0000 H   0  0  0  0  0  0  0  0  0  0  0  0
    2.9511   -1.4682    0.0000 H   0  0  0  0  0  0  0  0  0  0  0  0
    2.3311   -2.0882    0.0000 H   0  0  0  0  0  0  0  0  0  0  0  0
    2.1916   -2.1895    0.0000 H   0  0  0  0  0  0  0  0  0  0  0  0
    1.4103   -2.5876    0.0000 H   0  0  0  0  0  0  0  0  0  0  0  0
    1.8084   -3.3688    0.0000 H   0  0  0  0  0  0  0  0  0  0  0  0
   11.2163    1.6195    0.0000 H   0  0  0  0  0  0  0  0  0  0  0  0
   11.2163   -0.1405    0.0000 H   0  0  0  0  0  0  0  0  0  0  0  0
    9.8133   -2.5705    0.0000 H   0  0  0  0  0  0  0  0  0  0  0  0
   11.0042    3.8221    0.0000 H   0  0  0  0  0  0  0  0  0  0  0  0
   10.6057    3.1319    0.0000 H   0  0  0  0  0  0  0  0  0  0  0  0
   12.6193   -0.9505    0.0000 H   0  0  0  0  0  0  0  0  0  0  0  0
   11.2163   -3.3805    0.0000 H   0  0  0  0  0  0  0  0  0  0  0  0
   12.6193    2.0495    0.0000 H   0  0  0  0  0  0  0  0  0  0  0  0
   12.6193   -2.5705    0.0000 H   0  0  0  0  0  0  0  0  0  0  0  0
   12.6193    5.0495    0.0000 H   0  0  0  0  0  0  0  0  0  0  0  0
   11.5454    5.0495    0.0000 H   0  0  0  0  0  0  0  0  0  0  0  0
   13.7723    2.2765    0.0000 H   0  0  0  0  0  0  0  0  0  0  0  0
   15.3923    2.2765    0.0000 H   0  0  0  0  0  0  0  0  0  0  0  0
   15.2730   -1.4358    0.0000 H   0  0  0  0  0  0  0  0  0  0  0  0
   16.9276    1.4300    0.0000 H   0  0  0  0  0  0  0  0  0  0  0  0
   16.9387   -1.4487    0.0000 H   0  0  0  0  0  0  0  0  0  0  0  0
   17.7716   -0.0061    0.0000 H   0  0  0  0  0  0  0  0  0  0  0  0
 31  1  1  6  0  0  0
  1 46  1  0  0  0  0
  2 30  2  0  0  0  0
  3 34  1  0  0  0  0
  3 37  1  0  0  0  0
  4 33  1  0  0  0  0
  4 40  1  0  0  0  0
  5 37  1  0  0  0  0
  5 40  1  0  0  0  0
 35  6  1  6  0  0  0
  6 52  1  0  0  0  0
  7 39  1  0  0  0  0
  7 45  1  0  0  0  0
  8 41  1  0  0  0  0
  8 45  1  0  0  0  0
  9 46  2  0  0  0  0
 10 51  2  0  0  0  0
 11 52  2  0  0  0  0
 12 62  2  0  0  0  0
 13 63  2  0  0  0  0
 14 23  1  0  0  0  0
 14 26  1  0  0  0  0
 14 29  1  0  0  0  0
 15 30  1  0  0  0  0
 15 36  1  0  0  0  0
 15 92  1  0  0  0  0
 32 16  1  1  0  0  0
 16 51  1  0  0  0  0
 16100  1  0  0  0  0
 55 17  1  6  0  0  0
 17 63  1  0  0  0  0
 17133  1  0  0  0  0
 18 62  1  0  0  0  0
 18135  1  0  0  0  0
 18136  1  0  0  0  0
 19 64  2  0  0  0  0
 19 67  1  0  0  0  0
 20 21  1  0  0  0  0
 20 22  1  0  0  0  0
 20 24  1  0  0  0  0
 20 73  1  0  0  0  0
 21 23  1  0  0  0  0
 21 25  1  0  0  0  0
 21 74  1  0  0  0  0
 22 26  1  0  0  0  0
 22 75  1  0  0  0  0
 22 76  1  0  0  0  0
 23 77  1  0  0  0  0
 23 78  1  0  0  0  0
 24 27  1  0  0  0  0
 24 79  1  0  0  0  0
 24 80  1  0  0  0  0
 25 28  1  0  0  0  0
 25 81  1  0  0  0  0
 25 82  1  0  0  0  0
 26 30  1  1  0  0  0
 26 83  1  0  0  0  0
 27 28  1  0  0  0  0
 27 84  1  0  0  0  0
 27 85  1  0  0  0  0
 28 86  1  0  0  0  0
 28 87  1  0  0  0  0
 29 31  1  0  0  0  0
 29 88  1  0  0  0  0
 29 89  1  0  0  0  0
 31 32  1  0  0  0  0
 31 90  1  0  0  0  0
 32 38  1  0  0  0  0
 32 91  1  0  0  0  0
 33 35  1  0  0  0  0
 33 37  1  0  0  0  0
 33 93  1  1  0  0  0
 34 35  1  0  0  0  0
 34 39  1  0  0  0  0
 34 94  1  1  0  0  0
 35 95  1  0  0  0  0
 36 42  1  0  0  0  0
 36 43  1  0  0  0  0
 36 44  1  0  0  0  0
 37 96  1  0  0  0  0
 38 47  1  0  0  0  0
 38 98  1  0  0  0  0
 38 99  1  0  0  0  0
 39 41  1  0  0  0  0
 39 97  1  0  0  0  0
 40 49  1  0  0  0  0
 40 50  1  0  0  0  0
 41101  1  0  0  0  0
 41102  1  0  0  0  0
 42103  1  0  0  0  0
 42104  1  0  0  0  0
 42105  1  0  0  0  0
 43106  1  0  0  0  0
 43107  1  0  0  0  0
 43108  1  0  0  0  0
 44109  1  0  0  0  0
 44110  1  0  0  0  0
 44111  1  0  0  0  0
 45 53  1  0  0  0  0
 45 54  1  0  0  0  0
 46 48  1  0  0  0  0
 47 56  2  0  0  0  0
 47 57  1  0  0  0  0
 48 52  1  0  0  0  0
 48118  1  0  0  0  0
 48119  1  0  0  0  0
 49112  1  0  0  0  0
 49113  1  0  0  0  0
 49114  1  0  0  0  0
 50115  1  0  0  0  0
 50116  1  0  0  0  0
 50117  1  0  0  0  0
 51 55  1  0  0  0  0
 53120  1  0  0  0  0
 53121  1  0  0  0  0
 53122  1  0  0  0  0
 54123  1  0  0  0  0
 54124  1  0  0  0  0
 54125  1  0  0  0  0
 55 58  1  0  0  0  0
 55126  1  0  0  0  0
 56 59  1  0  0  0  0
 56127  1  0  0  0  0
 57 60  2  0  0  0  0
 57128  1  0  0  0  0
 58 62  1  0  0  0  0
 58129  1  0  0  0  0
 58130  1  0  0  0  0
 59 61  2  0  0  0  0
 59131  1  0  0  0  0
 60 61  1  0  0  0  0
 60132  1  0  0  0  0
 61134  1  0  0  0  0
 63 64  1  0  0  0  0
 64 65  1  0  0  0  0
 65 66  2  0  0  0  0
 65137  1  0  0  0  0
 66 68  1  0  0  0  0
 66138  1  0  0  0  0
 67 68  1  0  0  0  0
 67 69  2  0  0  0  0
 68 70  2  0  0  0  0
 69 71  1  0  0  0  0
 69139  1  0  0  0  0
 70 72  1  0  0  0  0
 70140  1  0  0  0  0
 71 72  2  0  0  0  0
 71141  1  0  0  0  0
 72142  1  0  0  0  0
M  END
> <PUBCHEM_COMPOUND_CID>
500853
> <PUBCHEM_COMPOUND_CANONICALIZED>
1
> <PUBCHEM_CACTVS_COMPLEXITY>
1940
> <PUBCHEM_CACTVS_HBOND_ACCEPTOR>
15
> <PUBCHEM_CACTVS_HBOND_DONOR>
4
> <PUBCHEM_CACTVS_ROTATABLE_BOND>
20
> <PUBCHEM_CACTVS_SUBSKEYS>
AAADcfB/vAAAAAAAAAAAAAAAAAAAASJEgAA8eMECAAASAACx9AAAHgAQAAAADbzxngcyyPPIFACoAyXyXACCgCAnAiAImKG4ZNgbYP7I1bG3IQhltgDeyYfd6KyOgAAAAAACAAAAAAAAACQAAAAAAAAAAA==
> <PUBCHEM_IUPAC_OPENEYE_NAME>
O1-[(5R,6S,6aS)-5-(2,2-dimethyl-1,3-dioxolan-4-yl)-2,2-dimethyl-3a,5,6,6a-tetrahydrofuro[2,3-d][1,3]dioxol-6-yl] O3-[(1R,2S)-2-[[(2S)-4-amino-4-oxo-2-(quinoline-2-carbonylamino)butanoyl]amino]-1-[[(3S)-3-(tert-butylcarbamoyl)-3,4,4a,5,6,7,8,8a-octahydro-1H-isoquinolin-2-yl]methyl]-3-phenyl-propyl] propanedioate
> <PUBCHEM_IUPAC_CAS_NAME>
propanedioic acid O1-[(5R,6S,6aS)-5-(2,2-dimethyl-1,3-dioxolan-4-yl)-2,2-dimethyl-3a,5,6,6a-tetrahydrofuro[2,3-d][1,3]dioxol-6-yl] ester O3-[(2R,3S)-3-[[(2S)-4-amino-1,4-dioxo-2-[[oxo(2-quinolinyl)methyl]amino]butyl]amino]-1-[(3S)-3-[(tert-butylamino)-oxomethyl]-3,4,4a,5,6,7,8,8a-octahydro-1H-isoquinolin-2-yl]-4-phenylbutan-2-yl] ester
> <PUBCHEM_IUPAC_NAME_MARKUP>
1-<I>O</I>-[(5<I>R</I>,6<I>S</I>,6<I>a</I><I>S</I>)-5-(2,2-dimethyl-1,3-dioxolan-4-yl)-2,2-dimethyl-3<I>a</I>,5,6,6<I>a</I>-tetrahydrofuro[2,3-d][1,3]dioxol-6-yl] 3-<I>O</I>-[(2<I>R</I>,3<I>S</I>)-3-[[(2<I>S</I>)-4-amino-4-oxo-2-(quinoline-2-carbonylamino)butanoyl]amino]-1-[(3<I>S</I>)-3-(<I>tert</I>-butylcarbamoyl)-3,4,4<I>a</I>,5,6,7,8,8<I>a</I>-octahydro-1<I>H</I>-isoquinolin-2-yl]-4-phenylbutan-2-yl] propanedioate
> <PUBCHEM_IUPAC_NAME>
1-O-[(5R,6S,6aS)-5-(2,2-dimethyl-1,3-dioxolan-4-yl)-2,2-dimethyl-3a,5,6,6a-tetrahydrofuro[2,3-d][1,3]dioxol-6-yl] 3-O-[(2R,3S)-3-[[(2S)-4-amino-4-oxo-2-(quinoline-2-carbonylamino)butanoyl]amino]-1-[(3S)-3-(tert-butylcarbamoyl)-3,4,4a,5,6,7,8,8a-octahydro-1H-isoquinolin-2-yl]-4-phenylbutan-2-yl] propanedioate
> <PUBCHEM_IUPAC_SYSTEMATIC_NAME>
O1-[(5R,6S,6aS)-5-(2,2-dimethyl-1,3-dioxolan-4-yl)-2,2-dimethyl-3a,5,6,6a-tetrahydrofuro[2,3-d][1,3]dioxol-6-yl] O3-[(2R,3S)-3-[[(2S)-4-azanyl-4-oxidanylidene-2-(quinolin-2-ylcarbonylamino)butanoyl]amino]-1-[(3S)-3-(tert-butylcarbamoyl)-3,4,4a,5,6,7,8,8a-octahydro-1H-isoquinolin-2-yl]-4-phenyl-butan-2-yl] propanedioate
> <PUBCHEM_IUPAC_TRADITIONAL_NAME>
malonic acid O1-[(5R,6S,6aS)-5-(2,2-dimethyl-1,3-dioxolan-4-yl)-2,2-dimethyl-3a,5,6,6a-tetrahydrofuro[2,3-d][1,3]dioxol-6-yl] ester O3-[(1R,2S)-2-[[(2S)-4-amino-4-keto-2-(quinaldoylamino)butanoyl]amino]-1-[[(3S)-3-(tert-butylcarbamoyl)-3,4,4a,5,6,7,8,8a-octahydro-1H-isoquinolin-2-yl]methyl]-3-phenyl-propyl] ester
> <PUBCHEM_IUPAC_INCHI>
InChI=1S/C53H70N6O13/c1-51(2,3)58-49(65)38-24-32-18-11-12-19-33(32)27-59(38)28-39(67-42(61)26-43(62)68-45-44(40-29-66-52(4,5)70-40)69-50-46(45)71-53(6,7)72-50)36(23-30-15-9-8-10-16-30)56-48(64)37(25-41(54)60)57-47(63)35-22-21-31-17-13-14-20-34(31)55-35/h8-10,13-17,20-22,32-33,36-40,44-46,50H,11-12,18-19,23-29H2,1-7H3,(H2,54,60)(H,56,64)(H,57,63)(H,58,65)/t32?,33?,36-,37-,38-,39+,40?,44+,45-,46-,50?/m0/s1
> <PUBCHEM_IUPAC_INCHIKEY>
GDFRONZODXLUKS-CVVCGTSISA-N
> <PUBCHEM_XLOGP3_AA>
5.3
> <PUBCHEM_EXACT_MASS>
998.50008631
> <PUBCHEM_MOLECULAR_FORMULA>
C53H70N6O13
> <PUBCHEM_MOLECULAR_WEIGHT>
999.2
> <PUBCHEM_OPENEYE_CAN_SMILES>
CC1(OCC(O1)C2C(C3C(O2)OC(O3)(C)C)OC(=O)CC(=O)OC(CN4CC5CCCCC5CC4C(=O)NC(C)(C)C)C(CC6=CC=CC=C6)NC(=O)C(CC(=O)N)NC(=O)C7=NC8=CC=CC=C8C=C7)C
> <PUBCHEM_OPENEYE_ISO_SMILES>
CC1(OCC(O1)[C@@H]2[C@@H]([C@H]3C(O2)OC(O3)(C)C)OC(=O)CC(=O)O[C@H](CN4CC5CCCCC5C[C@H]4C(=O)NC(C)(C)C)[C@H](CC6=CC=CC=C6)NC(=O)[C@H](CC(=O)N)NC(=O)C7=NC8=CC=CC=C8C=C7)C
> <PUBCHEM_CACTVS_TPSA>
245
> <PUBCHEM_MONOISOTOPIC_WEIGHT>
998.50008631
> <PUBCHEM_TOTAL_CHARGE>
0
> <PUBCHEM_HEAVY_ATOM_COUNT>
72
> <PUBCHEM_ATOM_DEF_STEREO_COUNT>
7
> <PUBCHEM_ATOM_UDEF_STEREO_COUNT>
4
> <PUBCHEM_BOND_DEF_STEREO_COUNT>
0
> <PUBCHEM_BOND_UDEF_STEREO_COUNT>
0
> <PUBCHEM_ISOTOPIC_ATOM_COUNT>
0
> <PUBCHEM_COMPONENT_COUNT>
1
> <PUBCHEM_CACTVS_TAUTO_COUNT>
-1
> <PUBCHEM_COORDINATE_TYPE>
1
5
255
> <PUBCHEM_BONDANNOTATIONS>
31  1  6
32  16  5
55  17  6
19  64  8
19  67  8
20  24  3
21  25  3
26  30  5
33  93  5
34  94  5
39  41  3
47  56  8
47  57  8
37  5  3
56  59  8
57  60  8
59  61  8
35  6  6
60  61  8
64  65  8
65  66  8
66  68  8
67  68  8
67  69  8
68  70  8
69  71  8
70  72  8
71  72  8
$$$$
