500877
  -OEChem-10302200282D
 68 72  0     1  0  0  0  0  0999 V2000
    6.6671    0.8528    0.0000 S   0  0  0  0  0  0  0  0  0  0  0  0
    9.3069   -0.5523    0.0000 O   0  0  0  0  0  0  0  0  0  0  0  0
    3.0000    0.1158    0.0000 O   0  0  0  0  0  0  0  0  0  0  0  0
   13.6370    0.9477    0.0000 N   0  0  0  0  0  0  0  0  0  0  0  0
    8.4409    0.9477    0.0000 N   0  0  0  0  0  0  0  0  0  0  0  0
    7.4718   -0.5411    0.0000 N   0  0  0  0  0  0  0  0  0  0  0  0
    3.0000   -1.6163    0.0000 N   0  0  0  0  0  0  0  0  0  0  0  0
   11.0390    0.4477    0.0000 C   0  0  3  0  0  0  0  0  0  0  0  0
   12.7710    0.4477    0.0000 C   0  0  1  0  0  0  0  0  0  0  0  0
   11.9050    0.9477    0.0000 C   0  0  0  0  0  0  0  0  0  0  0  0
   11.0390   -0.5523    0.0000 C   0  0  0  0  0  0  0  0  0  0  0  0
   12.7710   -0.5523    0.0000 C   0  0  0  0  0  0  0  0  0  0  0  0
   11.9050   -1.0523    0.0000 C   0  0  0  0  0  0  0  0  0  0  0  0
   10.1729    0.9477    0.0000 C   0  0  0  0  0  0  0  0  0  0  0  0
   14.5031    0.4477    0.0000 C   0  0  0  0  0  0  0  0  0  0  0  0
    9.3069    0.4477    0.0000 C   0  0  0  0  0  0  0  0  0  0  0  0
   15.3691    0.9477    0.0000 C   0  0  0  0  0  0  0  0  0  0  0  0
   16.2351    0.4477    0.0000 C   0  0  0  0  0  0  0  0  0  0  0  0
   15.3691    1.9477    0.0000 C   0  0  0  0  0  0  0  0  0  0  0  0
    7.5749    0.4477    0.0000 C   0  0  0  0  0  0  0  0  0  0  0  0
   17.1012    0.9477    0.0000 C   0  0  0  0  0  0  0  0  0  0  0  0
   16.2351    2.4477    0.0000 C   0  0  0  0  0  0  0  0  0  0  0  0
   17.1012    1.9477    0.0000 C   0  0  0  0  0  0  0  0  0  0  0  0
   17.9951    0.4130    0.0000 C   0  0  0  0  0  0  0  0  0  0  0  0
   17.9951    2.4823    0.0000 C   0  0  0  0  0  0  0  0  0  0  0  0
    6.0000    0.1158    0.0000 C   0  0  0  0  0  0  0  0  0  0  0  0
    6.5000   -0.7503    0.0000 C   0  0  0  0  0  0  0  0  0  0  0  0
   18.9012    0.9268    0.0000 C   0  0  0  0  0  0  0  0  0  0  0  0
   18.9012    1.9685    0.0000 C   0  0  0  0  0  0  0  0  0  0  0  0
    5.0000    0.1158    0.0000 C   0  0  0  0  0  0  0  0  0  0  0  0
    6.0000   -1.6163    0.0000 C   0  0  0  0  0  0  0  0  0  0  0  0
    4.5000   -0.7503    0.0000 C   0  0  0  0  0  0  0  0  0  0  0  0
    5.0000   -1.6163    0.0000 C   0  0  0  0  0  0  0  0  0  0  0  0
    3.5000   -0.7503    0.0000 C   0  0  0  0  0  0  0  0  0  0  0  0
    2.0000   -1.6163    0.0000 C   0  0  0  0  0  0  0  0  0  0  0  0
    3.5000   -2.4823    0.0000 C   0  0  0  0  0  0  0  0  0  0  0  0
   10.5020    0.1377    0.0000 H   0  0  0  0  0  0  0  0  0  0  0  0
   12.7710    1.0677    0.0000 H   0  0  0  0  0  0  0  0  0  0  0  0
   12.3035    1.4226    0.0000 H   0  0  0  0  0  0  0  0  0  0  0  0
   11.5065    1.4226    0.0000 H   0  0  0  0  0  0  0  0  0  0  0  0
   10.4284   -0.4447    0.0000 H   0  0  0  0  0  0  0  0  0  0  0  0
   10.8269   -1.1349    0.0000 H   0  0  0  0  0  0  0  0  0  0  0  0
   12.9831   -1.1349    0.0000 H   0  0  0  0  0  0  0  0  0  0  0  0
   13.3816   -0.4447    0.0000 H   0  0  0  0  0  0  0  0  0  0  0  0
   11.5065   -1.5273    0.0000 H   0  0  0  0  0  0  0  0  0  0  0  0
   12.3035   -1.5273    0.0000 H   0  0  0  0  0  0  0  0  0  0  0  0
   10.5715    1.4226    0.0000 H   0  0  0  0  0  0  0  0  0  0  0  0
    9.7744    1.4226    0.0000 H   0  0  0  0  0  0  0  0  0  0  0  0
   13.6370    1.5677    0.0000 H   0  0  0  0  0  0  0  0  0  0  0  0
   14.1045   -0.0273    0.0000 H   0  0  0  0  0  0  0  0  0  0  0  0
   14.9016   -0.0273    0.0000 H   0  0  0  0  0  0  0  0  0  0  0  0
    8.4409    1.5677    0.0000 H   0  0  0  0  0  0  0  0  0  0  0  0
   16.2351   -0.1723    0.0000 H   0  0  0  0  0  0  0  0  0  0  0  0
   14.8322    2.2577    0.0000 H   0  0  0  0  0  0  0  0  0  0  0  0
   16.2351    3.0677    0.0000 H   0  0  0  0  0  0  0  0  0  0  0  0
   17.9879   -0.2070    0.0000 H   0  0  0  0  0  0  0  0  0  0  0  0
   17.9879    3.1023    0.0000 H   0  0  0  0  0  0  0  0  0  0  0  0
   19.4369    0.6148    0.0000 H   0  0  0  0  0  0  0  0  0  0  0  0
   19.4369    2.2805    0.0000 H   0  0  0  0  0  0  0  0  0  0  0  0
    4.6900    0.6527    0.0000 H   0  0  0  0  0  0  0  0  0  0  0  0
    6.3100   -2.1532    0.0000 H   0  0  0  0  0  0  0  0  0  0  0  0
    4.6900   -2.1532    0.0000 H   0  0  0  0  0  0  0  0  0  0  0  0
    2.0000   -0.9963    0.0000 H   0  0  0  0  0  0  0  0  0  0  0  0
    1.3800   -1.6163    0.0000 H   0  0  0  0  0  0  0  0  0  0  0  0
    2.0000   -2.2363    0.0000 H   0  0  0  0  0  0  0  0  0  0  0  0
    2.9631   -2.7923    0.0000 H   0  0  0  0  0  0  0  0  0  0  0  0
    3.8100   -3.0193    0.0000 H   0  0  0  0  0  0  0  0  0  0  0  0
    4.0369   -2.1723    0.0000 H   0  0  0  0  0  0  0  0  0  0  0  0
  1 20  1  0  0  0  0
  1 26  1  0  0  0  0
  2 16  2  0  0  0  0
  3 34  2  0  0  0  0
  9  4  1  6  0  0  0
  4 15  1  0  0  0  0
  4 49  1  0  0  0  0
  5 16  1  0  0  0  0
  5 20  1  0  0  0  0
  5 52  1  0  0  0  0
  6 20  2  0  0  0  0
  6 27  1  0  0  0  0
  7 34  1  0  0  0  0
  7 35  1  0  0  0  0
  7 36  1  0  0  0  0
  8 10  1  0  0  0  0
  8 11  1  0  0  0  0
  8 14  1  0  0  0  0
  8 37  1  0  0  0  0
  9 10  1  0  0  0  0
  9 12  1  0  0  0  0
  9 38  1  0  0  0  0
 10 39  1  0  0  0  0
 10 40  1  0  0  0  0
 11 13  1  0  0  0  0
 11 41  1  0  0  0  0
 11 42  1  0  0  0  0
 12 13  1  0  0  0  0
 12 43  1  0  0  0  0
 12 44  1  0  0  0  0
 13 45  1  0  0  0  0
 13 46  1  0  0  0  0
 14 16  1  0  0  0  0
 14 47  1  0  0  0  0
 14 48  1  0  0  0  0
 15 17  1  0  0  0  0
 15 50  1  0  0  0  0
 15 51  1  0  0  0  0
 17 18  2  0  0  0  0
 17 19  1  0  0  0  0
 18 21  1  0  0  0  0
 18 53  1  0  0  0  0
 19 22  2  0  0  0  0
 19 54  1  0  0  0  0
 21 23  1  0  0  0  0
 21 24  2  0  0  0  0
 22 23  1  0  0  0  0
 22 55  1  0  0  0  0
 23 25  2  0  0  0  0
 24 28  1  0  0  0  0
 24 56  1  0  0  0  0
 25 29  1  0  0  0  0
 25 57  1  0  0  0  0
 26 27  2  0  0  0  0
 26 30  1  0  0  0  0
 27 31  1  0  0  0  0
 28 29  2  0  0  0  0
 28 58  1  0  0  0  0
 29 59  1  0  0  0  0
 30 32  2  0  0  0  0
 30 60  1  0  0  0  0
 31 33  2  0  0  0  0
 31 61  1  0  0  0  0
 32 33  1  0  0  0  0
 32 34  1  0  0  0  0
 33 62  1  0  0  0  0
 35 63  1  0  0  0  0
 35 64  1  0  0  0  0
 35 65  1  0  0  0  0
 36 66  1  0  0  0  0
 36 67  1  0  0  0  0
 36 68  1  0  0  0  0
M  END
> <PUBCHEM_COMPOUND_CID>
500877
> <PUBCHEM_COMPOUND_CANONICALIZED>
1
> <PUBCHEM_CACTVS_COMPLEXITY>
764
> <PUBCHEM_CACTVS_HBOND_ACCEPTOR>
5
> <PUBCHEM_CACTVS_HBOND_DONOR>
2
> <PUBCHEM_CACTVS_ROTATABLE_BOND>
7
> <PUBCHEM_CACTVS_SUBSKEYS>
AAADcfB7sABAAAAAAAAAAAAAAAAAAWAAAAAwYMGAAAAAAFjB9AAAHgQQAAAADSjB3gQz0fPIEAisAyVydACD8KllCjlJmL04ZNiIILLgnZGEIQhokwLIyacYicCeyAACgAAQAQCQAAWAACACAAAAAAAAAA==
> <PUBCHEM_IUPAC_OPENEYE_NAME>
N,N-dimethyl-2-[[2-[(3R)-3-(2-naphthylmethylamino)cyclohexyl]acetyl]amino]-1,3-benzothiazole-6-carboxamide
> <PUBCHEM_IUPAC_CAS_NAME>
N,N-dimethyl-2-[[2-[(3R)-3-(2-naphthalenylmethylamino)cyclohexyl]-1-oxoethyl]amino]-1,3-benzothiazole-6-carboxamide
> <PUBCHEM_IUPAC_NAME_MARKUP>
<I>N</I>,<I>N</I>-dimethyl-2-[[2-[(3<I>R</I>)-3-(naphthalen-2-ylmethylamino)cyclohexyl]acetyl]amino]-1,3-benzothiazole-6-carboxamide
> <PUBCHEM_IUPAC_NAME>
N,N-dimethyl-2-[[2-[(3R)-3-(naphthalen-2-ylmethylamino)cyclohexyl]acetyl]amino]-1,3-benzothiazole-6-carboxamide
> <PUBCHEM_IUPAC_SYSTEMATIC_NAME>
N,N-dimethyl-2-[2-[(3R)-3-(naphthalen-2-ylmethylamino)cyclohexyl]ethanoylamino]-1,3-benzothiazole-6-carboxamide
> <PUBCHEM_IUPAC_TRADITIONAL_NAME>
N,N-dimethyl-2-[[2-[(3R)-3-(2-naphthylmethylamino)cyclohexyl]acetyl]amino]-1,3-benzothiazole-6-carboxamide
> <PUBCHEM_IUPAC_INCHI>
InChI=1S/C29H32N4O2S/c1-33(2)28(35)23-12-13-25-26(17-23)36-29(31-25)32-27(34)16-19-6-5-9-24(15-19)30-18-20-10-11-21-7-3-4-8-22(21)14-20/h3-4,7-8,10-14,17,19,24,30H,5-6,9,15-16,18H2,1-2H3,(H,31,32,34)/t19?,24-/m1/s1
> <PUBCHEM_IUPAC_INCHIKEY>
IQFVFGDPTVTVPI-JKSFWZLDSA-N
> <PUBCHEM_XLOGP3_AA>
5.3
> <PUBCHEM_EXACT_MASS>
500.22459745
> <PUBCHEM_MOLECULAR_FORMULA>
C29H32N4O2S
> <PUBCHEM_MOLECULAR_WEIGHT>
500.7
> <PUBCHEM_OPENEYE_CAN_SMILES>
CN(C)C(=O)C1=CC2=C(C=C1)N=C(S2)NC(=O)CC3CCCC(C3)NCC4=CC5=CC=CC=C5C=C4
> <PUBCHEM_OPENEYE_ISO_SMILES>
CN(C)C(=O)C1=CC2=C(C=C1)N=C(S2)NC(=O)CC3CCC[C@H](C3)NCC4=CC5=CC=CC=C5C=C4
> <PUBCHEM_CACTVS_TPSA>
103
> <PUBCHEM_MONOISOTOPIC_WEIGHT>
500.22459745
> <PUBCHEM_TOTAL_CHARGE>
0
> <PUBCHEM_HEAVY_ATOM_COUNT>
36
> <PUBCHEM_ATOM_DEF_STEREO_COUNT>
1
> <PUBCHEM_ATOM_UDEF_STEREO_COUNT>
1
> <PUBCHEM_BOND_DEF_STEREO_COUNT>
0
> <PUBCHEM_BOND_UDEF_STEREO_COUNT>
0
> <PUBCHEM_ISOTOPIC_ATOM_COUNT>
0
> <PUBCHEM_COMPONENT_COUNT>
1
> <PUBCHEM_CACTVS_TAUTO_COUNT>
-1
> <PUBCHEM_COORDINATE_TYPE>
1
5
255
> <PUBCHEM_BONDANNOTATIONS>
1  20  8
1  26  8
17  18  8
17  19  8
18  21  8
19  22  8
21  23  8
21  24  8
22  23  8
23  25  8
24  28  8
25  29  8
26  27  8
26  30  8
27  31  8
28  29  8
30  32  8
31  33  8
32  33  8
9  4  6
6  20  8
6  27  8
8  14  3
$$$$
