500835
  -OEChem-10302200282D
102106  0     1  0  0  0  0  0999 V2000
   12.8249   -1.1713    0.0000 O   0  0  0  0  0  0  0  0  0  0  0  0
   11.4236   -0.1532    0.0000 O   0  0  0  0  0  0  0  0  0  0  0  0
    6.3981   -1.5896    0.0000 O   0  0  0  0  0  0  0  0  0  0  0  0
   10.4291   -0.0487    0.0000 O   0  0  0  0  0  0  0  0  0  0  0  0
    9.7480    1.1309    0.0000 O   0  0  0  0  0  0  0  0  0  0  0  0
    6.9902    3.4535    0.0000 O   0  0  0  0  0  0  0  0  0  0  0  0
    5.5889    2.4354    0.0000 O   0  0  0  0  0  0  0  0  0  0  0  0
    2.8680   -4.6137    0.0000 O   0  0  0  0  0  0  0  0  0  0  0  0
   10.2480   -1.7712    0.0000 N   0  0  0  0  0  0  0  0  0  0  0  0
    8.3468    0.1129    0.0000 N   0  0  0  0  0  0  0  0  0  0  0  0
    7.1712    1.7309    0.0000 N   0  0  0  0  0  0  0  0  0  0  0  0
    6.3981   -4.5896    0.0000 N   0  0  0  0  0  0  0  0  0  0  0  0
   11.2426   -1.8758    0.0000 C   0  0  3  0  0  0  0  0  0  0  0  0
   11.1380   -2.8703    0.0000 C   0  0  2  0  0  0  0  0  0  0  0  0
   12.0516   -2.4636    0.0000 C   0  0  0  0  0  0  0  0  0  0  0  0
   11.8303   -1.0668    0.0000 C   0  0  0  0  0  0  0  0  0  0  0  0
   10.5502   -3.6793    0.0000 C   0  0  0  0  0  0  0  0  0  0  0  0
    8.8468   -0.7532    0.0000 C   0  0  2  0  0  0  0  0  0  0  0  0
    9.8413   -0.8577    0.0000 C   0  0  0  0  0  0  0  0  0  0  0  0
    8.1776   -1.4963    0.0000 C   0  0  0  0  0  0  0  0  0  0  0  0
    7.2641   -1.0896    0.0000 C   0  0  2  0  0  0  0  0  0  0  0  0
    7.3686   -0.0950    0.0000 C   0  0  0  0  0  0  0  0  0  0  0  0
    8.7535    1.0264    0.0000 C   0  0  0  0  0  0  0  0  0  0  0  0
   10.9570   -4.5928    0.0000 C   0  0  0  0  0  0  0  0  0  0  0  0
    8.1657    1.8354    0.0000 C   0  0  2  0  0  0  0  0  0  0  0  0
    8.5725    2.7490    0.0000 C   0  0  0  0  0  0  0  0  0  0  0  0
    8.9792    3.6625    0.0000 C   0  0  0  0  0  0  0  0  0  0  0  0
    7.6589    3.1557    0.0000 C   0  0  0  0  0  0  0  0  0  0  0  0
    9.4860    2.3422    0.0000 C   0  0  0  0  0  0  0  0  0  0  0  0
    6.3981   -2.5896    0.0000 C   0  0  0  0  0  0  0  0  0  0  0  0
    6.5834    2.5399    0.0000 C   0  0  0  0  0  0  0  0  0  0  0  0
    5.5320   -3.0896    0.0000 C   0  0  0  0  0  0  0  0  0  0  0  0
    7.2641   -3.0896    0.0000 C   0  0  0  0  0  0  0  0  0  0  0  0
    6.4024    4.2625    0.0000 C   0  0  3  0  0  0  0  0  0  0  0  0
    6.8091    5.1760    0.0000 C   0  0  0  0  0  0  0  0  0  0  0  0
    5.5320   -4.0896    0.0000 C   0  0  0  0  0  0  0  0  0  0  0  0
    7.2641   -4.0896    0.0000 C   0  0  0  0  0  0  0  0  0  0  0  0
    4.6381   -2.5549    0.0000 C   0  0  0  0  0  0  0  0  0  0  0  0
    5.4078    4.1579    0.0000 C   0  0  0  0  0  0  0  0  0  0  0  0
    7.2158    6.0896    0.0000 C   0  0  0  0  0  0  0  0  0  0  0  0
    5.8956    5.5828    0.0000 C   0  0  0  0  0  0  0  0  0  0  0  0
    7.7226    4.7693    0.0000 C   0  0  0  0  0  0  0  0  0  0  0  0
    4.6381   -4.6242    0.0000 C   0  0  0  0  0  0  0  0  0  0  0  0
    3.7320   -3.0688    0.0000 C   0  0  0  0  0  0  0  0  0  0  0  0
    8.1301   -4.5896    0.0000 C   0  0  0  0  0  0  0  0  0  0  0  0
    3.7320   -4.1104    0.0000 C   0  0  0  0  0  0  0  0  0  0  0  0
    8.1301   -5.5896    0.0000 C   0  0  0  0  0  0  0  0  0  0  0  0
    8.9962   -4.0896    0.0000 C   0  0  0  0  0  0  0  0  0  0  0  0
    8.9962   -6.0896    0.0000 C   0  0  0  0  0  0  0  0  0  0  0  0
    9.8622   -4.5896    0.0000 C   0  0  0  0  0  0  0  0  0  0  0  0
    9.8622   -5.5896    0.0000 C   0  0  0  0  0  0  0  0  0  0  0  0
    2.0000   -4.1171    0.0000 C   0  0  0  0  0  0  0  0  0  0  0  0
   10.5592   -2.6481    0.0000 H   0  0  0  0  0  0  0  0  0  0  0  0
   12.3983   -2.9776    0.0000 H   0  0  0  0  0  0  0  0  0  0  0  0
   12.4976   -2.0329    0.0000 H   0  0  0  0  0  0  0  0  0  0  0  0
    9.8836   -2.2728    0.0000 H   0  0  0  0  0  0  0  0  0  0  0  0
    9.9336   -3.6145    0.0000 H   0  0  0  0  0  0  0  0  0  0  0  0
    9.1844   -0.2332    0.0000 H   0  0  0  0  0  0  0  0  0  0  0  0
    7.8676   -2.0332    0.0000 H   0  0  0  0  0  0  0  0  0  0  0  0
    8.6792   -1.8607    0.0000 H   0  0  0  0  0  0  0  0  0  0  0  0
    6.7441   -0.7519    0.0000 H   0  0  0  0  0  0  0  0  0  0  0  0
    7.3038    0.5216    0.0000 H   0  0  0  0  0  0  0  0  0  0  0  0
    6.7486   -0.0950    0.0000 H   0  0  0  0  0  0  0  0  0  0  0  0
   10.5926   -5.0944    0.0000 H   0  0  0  0  0  0  0  0  0  0  0  0
   11.5736   -4.6577    0.0000 H   0  0  0  0  0  0  0  0  0  0  0  0
    7.8013    2.3370    0.0000 H   0  0  0  0  0  0  0  0  0  0  0  0
   13.1893   -0.6697    0.0000 H   0  0  0  0  0  0  0  0  0  0  0  0
    6.9190    1.1645    0.0000 H   0  0  0  0  0  0  0  0  0  0  0  0
    9.5456    3.4103    0.0000 H   0  0  0  0  0  0  0  0  0  0  0  0
    9.2314    4.2289    0.0000 H   0  0  0  0  0  0  0  0  0  0  0  0
    8.4128    3.9147    0.0000 H   0  0  0  0  0  0  0  0  0  0  0  0
    7.9111    3.7221    0.0000 H   0  0  0  0  0  0  0  0  0  0  0  0
    7.0925    3.4079    0.0000 H   0  0  0  0  0  0  0  0  0  0  0  0
    7.4067    2.5893    0.0000 H   0  0  0  0  0  0  0  0  0  0  0  0
    9.2338    1.7758    0.0000 H   0  0  0  0  0  0  0  0  0  0  0  0
   10.0524    2.0901    0.0000 H   0  0  0  0  0  0  0  0  0  0  0  0
    9.7382    2.9086    0.0000 H   0  0  0  0  0  0  0  0  0  0  0  0
    7.8010   -2.7796    0.0000 H   0  0  0  0  0  0  0  0  0  0  0  0
    6.1502    3.6961    0.0000 H   0  0  0  0  0  0  0  0  0  0  0  0
    4.6453   -1.9350    0.0000 H   0  0  0  0  0  0  0  0  0  0  0  0
    5.3430    4.7745    0.0000 H   0  0  0  0  0  0  0  0  0  0  0  0
    4.7912    4.0931    0.0000 H   0  0  0  0  0  0  0  0  0  0  0  0
    5.4726    3.5414    0.0000 H   0  0  0  0  0  0  0  0  0  0  0  0
    7.7822    5.8374    0.0000 H   0  0  0  0  0  0  0  0  0  0  0  0
    7.4680    6.6560    0.0000 H   0  0  0  0  0  0  0  0  0  0  0  0
    6.6494    6.3418    0.0000 H   0  0  0  0  0  0  0  0  0  0  0  0
    6.1477    6.1492    0.0000 H   0  0  0  0  0  0  0  0  0  0  0  0
    5.3292    5.8349    0.0000 H   0  0  0  0  0  0  0  0  0  0  0  0
    5.6434    5.0164    0.0000 H   0  0  0  0  0  0  0  0  0  0  0  0
    7.4705    4.2029    0.0000 H   0  0  0  0  0  0  0  0  0  0  0  0
    8.2890    4.5171    0.0000 H   0  0  0  0  0  0  0  0  0  0  0  0
    7.9748    5.3357    0.0000 H   0  0  0  0  0  0  0  0  0  0  0  0
    4.6453   -5.2442    0.0000 H   0  0  0  0  0  0  0  0  0  0  0  0
    3.1963   -2.7567    0.0000 H   0  0  0  0  0  0  0  0  0  0  0  0
    7.5932   -5.8996    0.0000 H   0  0  0  0  0  0  0  0  0  0  0  0
    8.9962   -3.4696    0.0000 H   0  0  0  0  0  0  0  0  0  0  0  0
    8.9962   -6.7096    0.0000 H   0  0  0  0  0  0  0  0  0  0  0  0
   10.3991   -4.2796    0.0000 H   0  0  0  0  0  0  0  0  0  0  0  0
   10.3991   -5.8996    0.0000 H   0  0  0  0  0  0  0  0  0  0  0  0
    2.3079   -3.5789    0.0000 H   0  0  0  0  0  0  0  0  0  0  0  0
    1.4619   -3.8091    0.0000 H   0  0  0  0  0  0  0  0  0  0  0  0
    1.6921   -4.6552    0.0000 H   0  0  0  0  0  0  0  0  0  0  0  0
  1 16  1  0  0  0  0
  1 67  1  0  0  0  0
  2 16  2  0  0  0  0
 21  3  1  1  0  0  0
  3 30  1  0  0  0  0
  4 19  2  0  0  0  0
  5 23  2  0  0  0  0
  6 31  1  0  0  0  0
  6 34  1  0  0  0  0
  7 31  2  0  0  0  0
  8 46  1  0  0  0  0
  8 52  1  0  0  0  0
  9 13  1  0  0  0  0
  9 19  1  0  0  0  0
  9 56  1  0  0  0  0
 10 18  1  0  0  0  0
 10 22  1  0  0  0  0
 10 23  1  0  0  0  0
 25 11  1  1  0  0  0
 11 31  1  0  0  0  0
 11 68  1  0  0  0  0
 12 36  1  0  0  0  0
 12 37  2  0  0  0  0
 13 14  1  0  0  0  0
 13 15  1  0  0  0  0
 13 16  1  0  0  0  0
 14 15  1  0  0  0  0
 14 17  1  6  0  0  0
 14 53  1  0  0  0  0
 15 54  1  0  0  0  0
 15 55  1  0  0  0  0
 17 24  2  0  0  0  0
 17 57  1  0  0  0  0
 18 19  1  6  0  0  0
 18 20  1  0  0  0  0
 18 58  1  0  0  0  0
 20 21  1  0  0  0  0
 20 59  1  0  0  0  0
 20 60  1  0  0  0  0
 21 22  1  0  0  0  0
 21 61  1  0  0  0  0
 22 62  1  0  0  0  0
 22 63  1  0  0  0  0
 23 25  1  0  0  0  0
 24 64  1  0  0  0  0
 24 65  1  0  0  0  0
 25 26  1  0  0  0  0
 25 66  1  0  0  0  0
 26 27  1  0  0  0  0
 26 28  1  0  0  0  0
 26 29  1  0  0  0  0
 27 69  1  0  0  0  0
 27 70  1  0  0  0  0
 27 71  1  0  0  0  0
 28 72  1  0  0  0  0
 28 73  1  0  0  0  0
 28 74  1  0  0  0  0
 29 75  1  0  0  0  0
 29 76  1  0  0  0  0
 29 77  1  0  0  0  0
 30 32  1  0  0  0  0
 30 33  2  0  0  0  0
 32 36  2  0  0  0  0
 32 38  1  0  0  0  0
 33 37  1  0  0  0  0
 33 78  1  0  0  0  0
 34 35  1  0  0  0  0
 34 39  1  0  0  0  0
 34 79  1  0  0  0  0
 35 40  1  0  0  0  0
 35 41  1  0  0  0  0
 35 42  1  0  0  0  0
 36 43  1  0  0  0  0
 37 45  1  0  0  0  0
 38 44  2  0  0  0  0
 38 80  1  0  0  0  0
 39 81  1  0  0  0  0
 39 82  1  0  0  0  0
 39 83  1  0  0  0  0
 40 84  1  0  0  0  0
 40 85  1  0  0  0  0
 40 86  1  0  0  0  0
 41 87  1  0  0  0  0
 41 88  1  0  0  0  0
 41 89  1  0  0  0  0
 42 90  1  0  0  0  0
 42 91  1  0  0  0  0
 42 92  1  0  0  0  0
 43 46  2  0  0  0  0
 43 93  1  0  0  0  0
 44 46  1  0  0  0  0
 44 94  1  0  0  0  0
 45 47  2  0  0  0  0
 45 48  1  0  0  0  0
 47 49  1  0  0  0  0
 47 95  1  0  0  0  0
 48 50  2  0  0  0  0
 48 96  1  0  0  0  0
 49 51  2  0  0  0  0
 49 97  1  0  0  0  0
 50 51  1  0  0  0  0
 50 98  1  0  0  0  0
 51 99  1  0  0  0  0
 52100  1  0  0  0  0
 52101  1  0  0  0  0
 52102  1  0  0  0  0
M  END
> <PUBCHEM_COMPOUND_CID>
500835
> <PUBCHEM_COMPOUND_CANONICALIZED>
1
> <PUBCHEM_CACTVS_COMPLEXITY>
1320
> <PUBCHEM_CACTVS_HBOND_ACCEPTOR>
9
> <PUBCHEM_CACTVS_HBOND_DONOR>
3
> <PUBCHEM_CACTVS_ROTATABLE_BOND>
14
> <PUBCHEM_CACTVS_SUBSKEYS>
AAADcfB/vAAAAAAAAAAAAAAAGAAAAWAAAAA8YIAAAAAAAACx9AAAHgAQCAAAD7zhngYyzvPIFgCoAyXyXACCiCAhIiAImKG+bJkOZvLEsbufeCjm1hnY6Ae68e8PIAAAAgACAABAAAAEAAQAAAAAAAAAAA==
> <PUBCHEM_IUPAC_OPENEYE_NAME>
(2R)-1-[[(2S,4R)-1-[(2S)-3,3-dimethyl-2-(1,2,2-trimethylpropoxycarbonylamino)butanoyl]-4-[(7-methoxy-2-phenyl-4-quinolyl)oxy]pyrrolidine-2-carbonyl]amino]-2-vinyl-cyclopropanecarboxylic acid
> <PUBCHEM_IUPAC_CAS_NAME>
(2R)-1-[[[(2S,4R)-1-[(2S)-2-[[3,3-dimethylbutan-2-yloxy(oxo)methyl]amino]-3,3-dimethyl-1-oxobutyl]-4-[(7-methoxy-2-phenyl-4-quinolinyl)oxy]-2-pyrrolidinyl]-oxomethyl]amino]-2-ethenyl-1-cyclopropanecarboxylic acid
> <PUBCHEM_IUPAC_NAME_MARKUP>
(2<I>R</I>)-1-[[(2<I>S</I>,4<I>R</I>)-1-[(2<I>S</I>)-2-(3,3-dimethylbutan-2-yloxycarbonylamino)-3,3-dimethylbutanoyl]-4-(7-methoxy-2-phenylquinolin-4-yl)oxypyrrolidine-2-carbonyl]amino]-2-ethenylcyclopropane-1-carboxylic acid
> <PUBCHEM_IUPAC_NAME>
(2R)-1-[[(2S,4R)-1-[(2S)-2-(3,3-dimethylbutan-2-yloxycarbonylamino)-3,3-dimethylbutanoyl]-4-(7-methoxy-2-phenylquinolin-4-yl)oxypyrrolidine-2-carbonyl]amino]-2-ethenylcyclopropane-1-carboxylic acid
> <PUBCHEM_IUPAC_SYSTEMATIC_NAME>
(2R)-1-[[(2S,4R)-1-[(2S)-2-(3,3-dimethylbutan-2-yloxycarbonylamino)-3,3-dimethyl-butanoyl]-4-(7-methoxy-2-phenyl-quinolin-4-yl)oxy-pyrrolidin-2-yl]carbonylamino]-2-ethenyl-cyclopropane-1-carboxylic acid
> <PUBCHEM_IUPAC_TRADITIONAL_NAME>
(2R)-1-[[(2S,4R)-1-[(2S)-3,3-dimethyl-2-(1,2,2-trimethylpropoxycarbonylamino)butanoyl]-4-[(7-methoxy-2-phenyl-4-quinolyl)oxy]prolyl]amino]-2-vinyl-cyclopropanecarboxylic acid
> <PUBCHEM_IUPAC_INCHI>
InChI=1S/C40H50N4O8/c1-10-25-21-40(25,36(47)48)43-34(45)31-19-27(22-44(31)35(46)33(39(6,7)8)42-37(49)51-23(2)38(3,4)5)52-32-20-29(24-14-12-11-13-15-24)41-30-18-26(50-9)16-17-28(30)32/h10-18,20,23,25,27,31,33H,1,19,21-22H2,2-9H3,(H,42,49)(H,43,45)(H,47,48)/t23?,25-,27+,31-,33+,40?/m0/s1
> <PUBCHEM_IUPAC_INCHIKEY>
TVPDGSIMXKYFTO-IVFDQFJLSA-N
> <PUBCHEM_XLOGP3_AA>
7
> <PUBCHEM_EXACT_MASS>
714.36286457
> <PUBCHEM_MOLECULAR_FORMULA>
C40H50N4O8
> <PUBCHEM_MOLECULAR_WEIGHT>
714.8
> <PUBCHEM_OPENEYE_CAN_SMILES>
CC(C(C)(C)C)OC(=O)NC(C(=O)N1CC(CC1C(=O)NC2(CC2C=C)C(=O)O)OC3=CC(=NC4=C3C=CC(=C4)OC)C5=CC=CC=C5)C(C)(C)C
> <PUBCHEM_OPENEYE_ISO_SMILES>
CC(C(C)(C)C)OC(=O)N[C@H](C(=O)N1C[C@@H](C[C@H]1C(=O)NC2(C[C@@H]2C=C)C(=O)O)OC3=CC(=NC4=C3C=CC(=C4)OC)C5=CC=CC=C5)C(C)(C)C
> <PUBCHEM_CACTVS_TPSA>
156
> <PUBCHEM_MONOISOTOPIC_WEIGHT>
714.36286457
> <PUBCHEM_TOTAL_CHARGE>
0
> <PUBCHEM_HEAVY_ATOM_COUNT>
52
> <PUBCHEM_ATOM_DEF_STEREO_COUNT>
4
> <PUBCHEM_ATOM_UDEF_STEREO_COUNT>
2
> <PUBCHEM_BOND_DEF_STEREO_COUNT>
0
> <PUBCHEM_BOND_UDEF_STEREO_COUNT>
0
> <PUBCHEM_ISOTOPIC_ATOM_COUNT>
0
> <PUBCHEM_COMPONENT_COUNT>
1
> <PUBCHEM_CACTVS_TAUTO_COUNT>
-1
> <PUBCHEM_COORDINATE_TYPE>
1
5
255
> <PUBCHEM_BONDANNOTATIONS>
25  11  5
12  36  8
12  37  8
13  16  3
14  17  6
18  19  6
21  3  5
30  32  8
30  33  8
32  36  8
32  38  8
33  37  8
34  39  3
36  43  8
38  44  8
43  46  8
44  46  8
45  47  8
45  48  8
47  49  8
48  50  8
49  51  8
50  51  8
$$$$
