500856
  -OEChem-10302200282D
185188  0     1  0  0  0  0  0999 V2000
   13.3864    4.7394    0.0000 F   0  0  0  0  0  0  0  0  0  0  0  0
   13.7525    6.1054    0.0000 F   0  0  0  0  0  0  0  0  0  0  0  0
   14.7525    4.3734    0.0000 F   0  0  0  0  0  0  0  0  0  0  0  0
   13.3864    0.3660    0.0000 F   0  0  0  0  0  0  0  0  0  0  0  0
   13.7525    1.7320    0.0000 F   0  0  0  0  0  0  0  0  0  0  0  0
   14.7525    0.0000    0.0000 F   0  0  0  0  0  0  0  0  0  0  0  0
    1.3660   12.0139    0.0000 F   0  0  0  0  0  0  0  0  0  0  0  0
    0.0000   12.3799    0.0000 F   0  0  0  0  0  0  0  0  0  0  0  0
    0.3660   13.7459    0.0000 F   0  0  0  0  0  0  0  0  0  0  0  0
   13.7525   10.4788    0.0000 F   0  0  0  0  0  0  0  0  0  0  0  0
   13.3864    9.1128    0.0000 F   0  0  0  0  0  0  0  0  0  0  0  0
   14.7525    8.7467    0.0000 F   0  0  0  0  0  0  0  0  0  0  0  0
   14.7461   19.9908    0.0000 O   0  0  0  0  0  0  0  0  0  0  0  0
   16.4782   22.9908    0.0000 O   0  0  0  0  0  0  0  0  0  0  0  0
    7.1013   17.8272    0.0000 O   0  0  0  0  0  0  0  0  0  0  0  0
    9.0742   19.3475    0.0000 O   0  0  0  0  0  0  0  0  0  0  0  0
    7.4999   19.6822    0.0000 O   0  0  0  0  0  0  0  0  0  0  0  0
    6.6490   15.6992    0.0000 O   0  0  0  0  0  0  0  0  0  0  0  0
    9.5500   16.9908    0.0000 O   0  0  0  0  0  0  0  0  0  0  0  0
    7.7316   14.4968    0.0000 O   0  0  0  0  0  0  0  0  0  0  0  0
   15.6122   18.4908    0.0000 O   0  0  0  0  0  0  0  0  0  0  0  0
   16.4782   21.9908    0.0000 O   0  0  0  0  0  0  0  0  0  0  0  0
   10.4160   18.4908    0.0000 O   0  0  0  0  0  0  0  0  0  0  0  0
   19.9423   22.9908    0.0000 O   0  0  0  0  0  0  0  0  0  0  0  0
   19.0763   19.7588    0.0000 O   0  0  0  0  0  0  0  0  0  0  0  0
   15.9845    5.2394    0.0000 O   0  0  0  0  0  0  0  0  0  0  0  0
   15.9845    0.8660    0.0000 O   0  0  0  0  0  0  0  0  0  0  0  0
    2.5981   12.8799    0.0000 O   0  0  0  0  0  0  0  0  0  0  0  0
   15.9845    9.6128    0.0000 O   0  0  0  0  0  0  0  0  0  0  0  0
   15.1185    6.7394    0.0000 O   0  0  0  0  0  0  0  0  0  0  0  0
   15.1185    2.3660    0.0000 O   0  0  0  0  0  0  0  0  0  0  0  0
    1.7320   14.3799    0.0000 O   0  0  0  0  0  0  0  0  0  0  0  0
   15.1185   11.1128    0.0000 O   0  0  0  0  0  0  0  0  0  0  0  0
   14.7461   21.9908    0.0000 N   0  0  3  0  0  0  0  0  0  0  0  0
   15.6122   24.4908    0.0000 N   0  0  0  0  0  0  0  0  0  0  0  0
   17.3442   20.4908    0.0000 N   0  0  0  0  0  0  0  0  0  0  0  0
   19.0763   21.4908    0.0000 N   0  0  0  0  0  0  0  0  0  0  0  0
   11.2820   16.9908    0.0000 N   0  0  0  0  0  0  0  0  0  0  0  0
   19.0763   24.4908    0.0000 N   0  0  0  0  0  0  0  0  0  0  0  0
   21.0763   19.7588    0.0000 N   0  0  0  0  0  0  0  0  0  0  0  0
   13.0141   22.9908    0.0000 C   0  0  3  0  0  0  0  0  0  0  0  0
   13.0141   21.9908    0.0000 C   0  0  3  0  0  0  0  0  0  0  0  0
   13.8801   23.4908    0.0000 C   0  0  0  0  0  0  0  0  0  0  0  0
   13.8801   21.4908    0.0000 C   0  0  0  0  0  0  0  0  0  0  0  0
   12.1201   23.5255    0.0000 C   0  0  0  0  0  0  0  0  0  0  0  0
   12.1201   21.4562    0.0000 C   0  0  0  0  0  0  0  0  0  0  0  0
   14.7461   22.9908    0.0000 C   0  0  1  0  0  0  0  0  0  0  0  0
   11.2141   23.0116    0.0000 C   0  0  0  0  0  0  0  0  0  0  0  0
   11.2141   21.9700    0.0000 C   0  0  0  0  0  0  0  0  0  0  0  0
   15.6122   21.4908    0.0000 C   0  0  0  0  0  0  0  0  0  0  0  0
   15.6122   23.4908    0.0000 C   0  0  0  0  0  0  0  0  0  0  0  0
   15.6122   20.4908    0.0000 C   0  0  2  0  0  0  0  0  0  0  0  0
   16.4782   19.9908    0.0000 C   0  0  2  0  0  0  0  0  0  0  0  0
   16.4782   24.9908    0.0000 C   0  0  0  0  0  0  0  0  0  0  0  0
   16.4782   18.9908    0.0000 C   0  0  0  0  0  0  0  0  0  0  0  0
    8.5794   18.4854    0.0000 C   0  0  1  0  0  0  0  0  0  0  0  0
    7.7704   17.0841    0.0000 C   0  0  1  0  0  0  0  0  0  0  0  0
   17.3442   25.4908    0.0000 C   0  0  0  0  0  0  0  0  0  0  0  0
   15.9782   25.8569    0.0000 C   0  0  0  0  0  0  0  0  0  0  0  0
   16.9782   24.1248    0.0000 C   0  0  0  0  0  0  0  0  0  0  0  0
    8.6840   17.4908    0.0000 C   0  0  2  0  0  0  0  0  0  0  0  0
    7.6013   18.6933    0.0000 C   0  0  3  0  0  0  0  0  0  0  0  0
    7.5625   16.1059    0.0000 C   0  0  3  0  0  0  0  0  0  0  0  0
   17.3442   18.4908    0.0000 C   0  0  0  0  0  0  0  0  0  0  0  0
   14.7461   18.9908    0.0000 C   0  0  0  0  0  0  0  0  0  0  0  0
    8.4084   20.0857    0.0000 C   0  0  0  0  0  0  0  0  0  0  0  0
   17.3442   21.4908    0.0000 C   0  0  0  0  0  0  0  0  0  0  0  0
    8.2316   15.3628    0.0000 C   0  0  0  0  0  0  0  0  0  0  0  0
   13.8801   18.4908    0.0000 C   0  0  0  0  0  0  0  0  0  0  0  0
    6.7535   14.7047    0.0000 C   0  0  0  0  0  0  0  0  0  0  0  0
   18.2102   21.9908    0.0000 C   0  0  2  0  0  0  0  0  0  0  0  0
   17.3442   17.4908    0.0000 C   0  0  0  0  0  0  0  0  0  0  0  0
   18.2102   18.9908    0.0000 C   0  0  0  0  0  0  0  0  0  0  0  0
    8.0017   20.9993    0.0000 C   0  0  0  0  0  0  0  0  0  0  0  0
    9.1516   20.7548    0.0000 C   0  0  0  0  0  0  0  0  0  0  0  0
   13.8801   17.4908    0.0000 C   0  0  0  0  0  0  0  0  0  0  0  0
    5.7590   14.6002    0.0000 C   0  0  0  0  0  0  0  0  0  0  0  0
    6.5456   13.7265    0.0000 C   0  0  0  0  0  0  0  0  0  0  0  0
   18.2102   22.9908    0.0000 C   0  0  0  0  0  0  0  0  0  0  0  0
   13.0141   16.9908    0.0000 C   0  0  0  0  0  0  0  0  0  0  0  0
   10.4160   17.4908    0.0000 C   0  0  0  0  0  0  0  0  0  0  0  0
   18.2102   16.9908    0.0000 C   0  0  0  0  0  0  0  0  0  0  0  0
   19.0763   18.4908    0.0000 C   0  0  0  0  0  0  0  0  0  0  0  0
   12.1481   17.4908    0.0000 C   0  0  0  0  0  0  0  0  0  0  0  0
   19.0763   17.4908    0.0000 C   0  0  0  0  0  0  0  0  0  0  0  0
   19.0763   23.4908    0.0000 C   0  0  0  0  0  0  0  0  0  0  0  0
   19.5763   20.6249    0.0000 C   0  0  0  0  0  0  0  0  0  0  0  0
   20.5763   20.6248    0.0000 C   0  0  0  0  0  0  0  0  0  0  0  0
   21.0763   21.4908    0.0000 C   0  0  0  0  0  0  0  0  0  0  0  0
   22.0763   21.4908    0.0000 C   0  0  0  0  0  0  0  0  0  0  0  0
   22.0763   19.7588    0.0000 C   0  0  0  0  0  0  0  0  0  0  0  0
   22.5763   20.6248    0.0000 C   0  0  0  0  0  0  0  0  0  0  0  0
   22.5831   18.8488    0.0000 C   0  0  0  0  0  0  0  0  0  0  0  0
   23.6178   20.6409    0.0000 C   0  0  0  0  0  0  0  0  0  0  0  0
   23.6247   18.8408    0.0000 C   0  0  0  0  0  0  0  0  0  0  0  0
   24.1455   19.7428    0.0000 C   0  0  0  0  0  0  0  0  0  0  0  0
   14.2525    5.2394    0.0000 C   0  0  0  0  0  0  0  0  0  0  0  0
   14.2525    0.8660    0.0000 C   0  0  0  0  0  0  0  0  0  0  0  0
    0.8660   12.8799    0.0000 C   0  0  0  0  0  0  0  0  0  0  0  0
   14.2525    9.6128    0.0000 C   0  0  0  0  0  0  0  0  0  0  0  0
   15.1185    5.7394    0.0000 C   0  0  0  0  0  0  0  0  0  0  0  0
   15.1185    1.3660    0.0000 C   0  0  0  0  0  0  0  0  0  0  0  0
    1.7320   13.3799    0.0000 C   0  0  0  0  0  0  0  0  0  0  0  0
   15.1185   10.1128    0.0000 C   0  0  0  0  0  0  0  0  0  0  0  0
   13.0189   23.6108    0.0000 H   0  0  0  0  0  0  0  0  0  0  0  0
   13.0189   21.3709    0.0000 H   0  0  0  0  0  0  0  0  0  0  0  0
   14.2786   23.9658    0.0000 H   0  0  0  0  0  0  0  0  0  0  0  0
   13.4816   23.9658    0.0000 H   0  0  0  0  0  0  0  0  0  0  0  0
   13.4816   21.0159    0.0000 H   0  0  0  0  0  0  0  0  0  0  0  0
   14.2786   21.0159    0.0000 H   0  0  0  0  0  0  0  0  0  0  0  0
   12.5247   23.9953    0.0000 H   0  0  0  0  0  0  0  0  0  0  0  0
   11.7265   24.0045    0.0000 H   0  0  0  0  0  0  0  0  0  0  0  0
   11.7265   20.9772    0.0000 H   0  0  0  0  0  0  0  0  0  0  0  0
   12.5247   20.9864    0.0000 H   0  0  0  0  0  0  0  0  0  0  0  0
   15.2831   22.6808    0.0000 H   0  0  0  0  0  0  0  0  0  0  0  0
   11.0050   23.5953    0.0000 H   0  0  0  0  0  0  0  0  0  0  0  0
   10.6032   22.9056    0.0000 H   0  0  0  0  0  0  0  0  0  0  0  0
   10.6032   22.0761    0.0000 H   0  0  0  0  0  0  0  0  0  0  0  0
   11.0050   21.3863    0.0000 H   0  0  0  0  0  0  0  0  0  0  0  0
   16.2227   21.3832    0.0000 H   0  0  0  0  0  0  0  0  0  0  0  0
   15.8242   22.0734    0.0000 H   0  0  0  0  0  0  0  0  0  0  0  0
   15.0752   20.8008    0.0000 H   0  0  0  0  0  0  0  0  0  0  0  0
   17.0151   19.6808    0.0000 H   0  0  0  0  0  0  0  0  0  0  0  0
   15.0752   24.8008    0.0000 H   0  0  0  0  0  0  0  0  0  0  0  0
   15.8676   19.0985    0.0000 H   0  0  0  0  0  0  0  0  0  0  0  0
   16.2661   18.4082    0.0000 H   0  0  0  0  0  0  0  0  0  0  0  0
   17.8811   20.1808    0.0000 H   0  0  0  0  0  0  0  0  0  0  0  0
    9.4111   18.3097    0.0000 H   0  0  0  0  0  0  0  0  0  0  0  0
    6.9494   16.8641    0.0000 H   0  0  0  0  0  0  0  0  0  0  0  0
    8.6515   16.8717    0.0000 H   0  0  0  0  0  0  0  0  0  0  0  0
   17.6542   24.9539    0.0000 H   0  0  0  0  0  0  0  0  0  0  0  0
   17.8811   25.8008    0.0000 H   0  0  0  0  0  0  0  0  0  0  0  0
   17.0342   26.0278    0.0000 H   0  0  0  0  0  0  0  0  0  0  0  0
   16.5151   26.1669    0.0000 H   0  0  0  0  0  0  0  0  0  0  0  0
   15.6682   26.3938    0.0000 H   0  0  0  0  0  0  0  0  0  0  0  0
   15.4412   25.5469    0.0000 H   0  0  0  0  0  0  0  0  0  0  0  0
   16.4412   23.8148    0.0000 H   0  0  0  0  0  0  0  0  0  0  0  0
   17.2882   23.5879    0.0000 H   0  0  0  0  0  0  0  0  0  0  0  0
   17.5151   24.4348    0.0000 H   0  0  0  0  0  0  0  0  0  0  0  0
    6.9950   18.8230    0.0000 H   0  0  0  0  0  0  0  0  0  0  0  0
    7.0807   16.4961    0.0000 H   0  0  0  0  0  0  0  0  0  0  0  0
    8.7332   14.9984    0.0000 H   0  0  0  0  0  0  0  0  0  0  0  0
    8.6465   15.8236    0.0000 H   0  0  0  0  0  0  0  0  0  0  0  0
   13.6680   19.0734    0.0000 H   0  0  0  0  0  0  0  0  0  0  0  0
   13.2695   18.3832    0.0000 H   0  0  0  0  0  0  0  0  0  0  0  0
   18.2102   21.3708    0.0000 H   0  0  0  0  0  0  0  0  0  0  0  0
   16.8073   17.1808    0.0000 H   0  0  0  0  0  0  0  0  0  0  0  0
   18.2102   19.6108    0.0000 H   0  0  0  0  0  0  0  0  0  0  0  0
    8.5681   21.2514    0.0000 H   0  0  0  0  0  0  0  0  0  0  0  0
    7.7495   21.5657    0.0000 H   0  0  0  0  0  0  0  0  0  0  0  0
    7.4353   20.7471    0.0000 H   0  0  0  0  0  0  0  0  0  0  0  0
    9.5664   20.2941    0.0000 H   0  0  0  0  0  0  0  0  0  0  0  0
    9.6123   21.1697    0.0000 H   0  0  0  0  0  0  0  0  0  0  0  0
    8.7367   21.2156    0.0000 H   0  0  0  0  0  0  0  0  0  0  0  0
   14.0922   16.9082    0.0000 H   0  0  0  0  0  0  0  0  0  0  0  0
   14.4907   17.5985    0.0000 H   0  0  0  0  0  0  0  0  0  0  0  0
    5.6941   15.2168    0.0000 H   0  0  0  0  0  0  0  0  0  0  0  0
    5.1424   14.5354    0.0000 H   0  0  0  0  0  0  0  0  0  0  0  0
    5.8238   13.9836    0.0000 H   0  0  0  0  0  0  0  0  0  0  0  0
    5.9391   13.8554    0.0000 H   0  0  0  0  0  0  0  0  0  0  0  0
    6.4167   13.1201    0.0000 H   0  0  0  0  0  0  0  0  0  0  0  0
    7.1520   13.5976    0.0000 H   0  0  0  0  0  0  0  0  0  0  0  0
   17.9982   23.5734    0.0000 H   0  0  0  0  0  0  0  0  0  0  0  0
   17.5996   22.8832    0.0000 H   0  0  0  0  0  0  0  0  0  0  0  0
   12.6155   16.5159    0.0000 H   0  0  0  0  0  0  0  0  0  0  0  0
   13.4126   16.5159    0.0000 H   0  0  0  0  0  0  0  0  0  0  0  0
   18.2102   16.3708    0.0000 H   0  0  0  0  0  0  0  0  0  0  0  0
   19.6132   18.8008    0.0000 H   0  0  0  0  0  0  0  0  0  0  0  0
   19.6132   21.8008    0.0000 H   0  0  0  0  0  0  0  0  0  0  0  0
   12.5466   17.9658    0.0000 H   0  0  0  0  0  0  0  0  0  0  0  0
   11.7495   17.9658    0.0000 H   0  0  0  0  0  0  0  0  0  0  0  0
   19.6132   17.1808    0.0000 H   0  0  0  0  0  0  0  0  0  0  0  0
   11.2820   16.3708    0.0000 H   0  0  0  0  0  0  0  0  0  0  0  0
   19.6132   24.8008    0.0000 H   0  0  0  0  0  0  0  0  0  0  0  0
   18.5393   24.8008    0.0000 H   0  0  0  0  0  0  0  0  0  0  0  0
   20.7663   22.0278    0.0000 H   0  0  0  0  0  0  0  0  0  0  0  0
   22.3863   22.0278    0.0000 H   0  0  0  0  0  0  0  0  0  0  0  0
   22.2669   18.3155    0.0000 H   0  0  0  0  0  0  0  0  0  0  0  0
   23.9215   21.1814    0.0000 H   0  0  0  0  0  0  0  0  0  0  0  0
   23.9326   18.3026    0.0000 H   0  0  0  0  0  0  0  0  0  0  0  0
   24.7655   19.7452    0.0000 H   0  0  0  0  0  0  0  0  0  0  0  0
   16.5214    5.5494    0.0000 H   0  0  0  0  0  0  0  0  0  0  0  0
   16.5214    1.1760    0.0000 H   0  0  0  0  0  0  0  0  0  0  0  0
    3.1350   13.1899    0.0000 H   0  0  0  0  0  0  0  0  0  0  0  0
   16.5214    9.9228    0.0000 H   0  0  0  0  0  0  0  0  0  0  0  0
  1 97  1  0  0  0  0
  2 97  1  0  0  0  0
  3 97  1  0  0  0  0
  4 98  1  0  0  0  0
  5 98  1  0  0  0  0
  6 98  1  0  0  0  0
  7 99  1  0  0  0  0
  8 99  1  0  0  0  0
  9 99  1  0  0  0  0
 10100  1  0  0  0  0
 11100  1  0  0  0  0
 12100  1  0  0  0  0
 52 13  1  6  0  0  0
 13 65  1  0  0  0  0
 14 51  2  0  0  0  0
 15 57  1  0  0  0  0
 15 62  1  0  0  0  0
 16 56  1  0  0  0  0
 16 66  1  0  0  0  0
 17 62  1  0  0  0  0
 17 66  1  0  0  0  0
 18 63  1  0  0  0  0
 18 70  1  0  0  0  0
 61 19  1  1  0  0  0
 19 81  1  0  0  0  0
 20 68  1  0  0  0  0
 20 70  1  0  0  0  0
 21 65  2  0  0  0  0
 22 67  2  0  0  0  0
 23 81  2  0  0  0  0
 24 86  2  0  0  0  0
 25 87  2  0  0  0  0
 26101  1  0  0  0  0
 26182  1  0  0  0  0
 27102  1  0  0  0  0
 27183  1  0  0  0  0
 28103  1  0  0  0  0
 28184  1  0  0  0  0
 29104  1  0  0  0  0
 29185  1  0  0  0  0
 30101  2  0  0  0  0
 31102  2  0  0  0  0
 32103  2  0  0  0  0
 33104  2  0  0  0  0
 34 44  1  0  0  0  0
 34 47  1  0  0  0  0
 34 50  1  0  0  0  0
 35 51  1  0  0  0  0
 35 54  1  0  0  0  0
 35124  1  0  0  0  0
 53 36  1  1  0  0  0
 36 67  1  0  0  0  0
 36127  1  0  0  0  0
 71 37  1  6  0  0  0
 37 87  1  0  0  0  0
 37169  1  0  0  0  0
 38 81  1  0  0  0  0
 38 84  1  0  0  0  0
 38173  1  0  0  0  0
 39 86  1  0  0  0  0
 39174  1  0  0  0  0
 39175  1  0  0  0  0
 40 88  2  0  0  0  0
 40 91  1  0  0  0  0
 41 42  1  0  0  0  0
 41 43  1  0  0  0  0
 41 45  1  0  0  0  0
 41105  1  0  0  0  0
 42 44  1  0  0  0  0
 42 46  1  0  0  0  0
 42106  1  0  0  0  0
 43 47  1  0  0  0  0
 43107  1  0  0  0  0
 43108  1  0  0  0  0
 44109  1  0  0  0  0
 44110  1  0  0  0  0
 45 48  1  0  0  0  0
 45111  1  0  0  0  0
 45112  1  0  0  0  0
 46 49  1  0  0  0  0
 46113  1  0  0  0  0
 46114  1  0  0  0  0
 47 51  1  1  0  0  0
 47115  1  0  0  0  0
 48 49  1  0  0  0  0
 48116  1  0  0  0  0
 48117  1  0  0  0  0
 49118  1  0  0  0  0
 49119  1  0  0  0  0
 50 52  1  0  0  0  0
 50120  1  0  0  0  0
 50121  1  0  0  0  0
 52 53  1  0  0  0  0
 52122  1  0  0  0  0
 53 55  1  0  0  0  0
 53123  1  0  0  0  0
 54 58  1  0  0  0  0
 54 59  1  0  0  0  0
 54 60  1  0  0  0  0
 55 64  1  0  0  0  0
 55125  1  0  0  0  0
 55126  1  0  0  0  0
 56 61  1  0  0  0  0
 56 62  1  0  0  0  0
 56128  1  6  0  0  0
 57 61  1  0  0  0  0
 57 63  1  0  0  0  0
 57129  1  6  0  0  0
 58131  1  0  0  0  0
 58132  1  0  0  0  0
 58133  1  0  0  0  0
 59134  1  0  0  0  0
 59135  1  0  0  0  0
 59136  1  0  0  0  0
 60137  1  0  0  0  0
 60138  1  0  0  0  0
 60139  1  0  0  0  0
 61130  1  0  0  0  0
 62140  1  0  0  0  0
 63 68  1  0  0  0  0
 63141  1  0  0  0  0
 64 72  2  0  0  0  0
 64 73  1  0  0  0  0
 65 69  1  0  0  0  0
 66 74  1  0  0  0  0
 66 75  1  0  0  0  0
 67 71  1  0  0  0  0
 68142  1  0  0  0  0
 68143  1  0  0  0  0
 69 76  1  0  0  0  0
 69144  1  0  0  0  0
 69145  1  0  0  0  0
 70 77  1  0  0  0  0
 70 78  1  0  0  0  0
 71 79  1  0  0  0  0
 71146  1  0  0  0  0
 72 82  1  0  0  0  0
 72147  1  0  0  0  0
 73 83  2  0  0  0  0
 73148  1  0  0  0  0
 74149  1  0  0  0  0
 74150  1  0  0  0  0
 74151  1  0  0  0  0
 75152  1  0  0  0  0
 75153  1  0  0  0  0
 75154  1  0  0  0  0
 76 80  1  0  0  0  0
 76155  1  0  0  0  0
 76156  1  0  0  0  0
 77157  1  0  0  0  0
 77158  1  0  0  0  0
 77159  1  0  0  0  0
 78160  1  0  0  0  0
 78161  1  0  0  0  0
 78162  1  0  0  0  0
 79 86  1  0  0  0  0
 79163  1  0  0  0  0
 79164  1  0  0  0  0
 80 84  1  0  0  0  0
 80165  1  0  0  0  0
 80166  1  0  0  0  0
 82 85  2  0  0  0  0
 82167  1  0  0  0  0
 83 85  1  0  0  0  0
 83168  1  0  0  0  0
 84170  1  0  0  0  0
 84171  1  0  0  0  0
 85172  1  0  0  0  0
 87 88  1  0  0  0  0
 88 89  1  0  0  0  0
 89 90  2  0  0  0  0
 89176  1  0  0  0  0
 90 92  1  0  0  0  0
 90177  1  0  0  0  0
 91 92  1  0  0  0  0
 91 93  2  0  0  0  0
 92 94  2  0  0  0  0
 93 95  1  0  0  0  0
 93178  1  0  0  0  0
 94 96  1  0  0  0  0
 94179  1  0  0  0  0
 95 96  2  0  0  0  0
 95180  1  0  0  0  0
 96181  1  0  0  0  0
 97101  1  0  0  0  0
 98102  1  0  0  0  0
 99103  1  0  0  0  0
100104  1  0  0  0  0
M  END
> <PUBCHEM_COMPOUND_CID>
500856
> <PUBCHEM_COMPOUND_CANONICALIZED>
1
> <PUBCHEM_CACTVS_COMPLEXITY>
2100
> <PUBCHEM_CACTVS_HBOND_ACCEPTOR>
35
> <PUBCHEM_CACTVS_HBOND_DONOR>
9
> <PUBCHEM_CACTVS_ROTATABLE_BOND>
23
> <PUBCHEM_CACTVS_SUBSKEYS>
AAADcfB/v8AAAAAAAAAAAAAAAAAAASJEgAA8eMECAAASAACx9AAAHwAQCAAADbzxnhcyyPPIFgCoAyXyXACCgCAnAiAImKG4ZNkbYPrA1bG/IQhllgDeyYfd+a6OgAAAAAACAAAAAAAAACQAAAAAAAAAAA==
> <PUBCHEM_IUPAC_OPENEYE_NAME>
[(1R,2S)-2-[[(2S)-4-amino-4-oxo-2-(quinoline-2-carbonylamino)butanoyl]amino]-1-[[(3S)-3-(tert-butylcarbamoyl)-3,4,4a,5,6,7,8,8a-octahydro-1H-isoquinolin-2-yl]methyl]-3-phenyl-propyl] 5-[[(5R,6S,6aS)-5-(2,2-dimethyl-1,3-dioxolan-4-yl)-2,2-dimethyl-3a,5,6,6a-tetrahydrofuro[2,3-d][1,3]dioxol-6-yl]oxycarbonylamino]pentanoate;2,2,2-trifluoroacetic acid
> <PUBCHEM_IUPAC_CAS_NAME>
5-[[[(5R,6S,6aS)-5-(2,2-dimethyl-1,3-dioxolan-4-yl)-2,2-dimethyl-3a,5,6,6a-tetrahydrofuro[2,3-d][1,3]dioxol-6-yl]oxy-oxomethyl]amino]pentanoic acid [(2R,3S)-3-[[(2S)-4-amino-1,4-dioxo-2-[[oxo(2-quinolinyl)methyl]amino]butyl]amino]-1-[(3S)-3-[(tert-butylamino)-oxomethyl]-3,4,4a,5,6,7,8,8a-octahydro-1H-isoquinolin-2-yl]-4-phenylbutan-2-yl] ester;2,2,2-trifluoroacetic acid
> <PUBCHEM_IUPAC_NAME_MARKUP>
[(2<I>R</I>,3<I>S</I>)-3-[[(2<I>S</I>)-4-amino-4-oxo-2-(quinoline-2-carbonylamino)butanoyl]amino]-1-[(3<I>S</I>)-3-(<I>tert</I>-butylcarbamoyl)-3,4,4<I>a</I>,5,6,7,8,8<I>a</I>-octahydro-1<I>H</I>-isoquinolin-2-yl]-4-phenylbutan-2-yl] 5-[[(5<I>R</I>,6<I>S</I>,6<I>a</I><I>S</I>)-5-(2,2-dimethyl-1,3-dioxolan-4-yl)-2,2-dimethyl-3<I>a</I>,5,6,6<I>a</I>-tetrahydrofuro[2,3-d][1,3]dioxol-6-yl]oxycarbonylamino]pentanoate;2,2,2-trifluoroacetic acid
> <PUBCHEM_IUPAC_NAME>
[(2R,3S)-3-[[(2S)-4-amino-4-oxo-2-(quinoline-2-carbonylamino)butanoyl]amino]-1-[(3S)-3-(tert-butylcarbamoyl)-3,4,4a,5,6,7,8,8a-octahydro-1H-isoquinolin-2-yl]-4-phenylbutan-2-yl] 5-[[(5R,6S,6aS)-5-(2,2-dimethyl-1,3-dioxolan-4-yl)-2,2-dimethyl-3a,5,6,6a-tetrahydrofuro[2,3-d][1,3]dioxol-6-yl]oxycarbonylamino]pentanoate;2,2,2-trifluoroacetic acid
> <PUBCHEM_IUPAC_SYSTEMATIC_NAME>
[(2R,3S)-3-[[(2S)-4-azanyl-4-oxidanylidene-2-(quinolin-2-ylcarbonylamino)butanoyl]amino]-1-[(3S)-3-(tert-butylcarbamoyl)-3,4,4a,5,6,7,8,8a-octahydro-1H-isoquinolin-2-yl]-4-phenyl-butan-2-yl] 5-[[(5R,6S,6aS)-5-(2,2-dimethyl-1,3-dioxolan-4-yl)-2,2-dimethyl-3a,5,6,6a-tetrahydrofuro[2,3-d][1,3]dioxol-6-yl]oxycarbonylamino]pentanoate;2,2,2-tris(fluoranyl)ethanoic acid
> <PUBCHEM_IUPAC_TRADITIONAL_NAME>
5-[[(5R,6S,6aS)-5-(2,2-dimethyl-1,3-dioxolan-4-yl)-2,2-dimethyl-3a,5,6,6a-tetrahydrofuro[2,3-d][1,3]dioxol-6-yl]oxycarbonylamino]valeric acid [(1R,2S)-2-[[(2S)-4-amino-4-keto-2-(quinaldoylamino)butanoyl]amino]-1-[[(3S)-3-(tert-butylcarbamoyl)-3,4,4a,5,6,7,8,8a-octahydro-1H-isoquinolin-2-yl]methyl]-3-phenyl-propyl] ester;2,2,2-trifluoroacetic acid
> <PUBCHEM_IUPAC_INCHI>
InChI=1S/C56H77N7O13.4C2HF3O2/c1-54(2,3)62-51(68)41-28-35-20-11-12-21-36(35)30-63(41)31-42(71-45(65)23-15-16-26-58-53(69)73-47-46(43-32-70-55(4,5)74-43)72-52-48(47)75-56(6,7)76-52)39(27-33-17-9-8-10-18-33)60-50(67)40(29-44(57)64)61-49(66)38-25-24-34-19-13-14-22-37(34)59-38;4*3-2(4,5)1(6)7/h8-10,13-14,17-19,22,24-25,35-36,39-43,46-48,52H,11-12,15-16,20-21,23,26-32H2,1-7H3,(H2,57,64)(H,58,69)(H,60,67)(H,61,66)(H,62,68);4*(H,6,7)/t35?,36?,39-,40-,41-,42+,43?,46+,47-,48-,52?;;;;/m0..../s1
> <PUBCHEM_IUPAC_INCHIKEY>
SOPCMPQULWJQBW-FQZLASDBSA-N
> <PUBCHEM_EXACT_MASS>
1511.5293906
> <PUBCHEM_MOLECULAR_FORMULA>
C64H81F12N7O21
> <PUBCHEM_MOLECULAR_WEIGHT>
1512.3
> <PUBCHEM_OPENEYE_CAN_SMILES>
CC1(OCC(O1)C2C(C3C(O2)OC(O3)(C)C)OC(=O)NCCCCC(=O)OC(CN4CC5CCCCC5CC4C(=O)NC(C)(C)C)C(CC6=CC=CC=C6)NC(=O)C(CC(=O)N)NC(=O)C7=NC8=CC=CC=C8C=C7)C.C(=O)(C(F)(F)F)O.C(=O)(C(F)(F)F)O.C(=O)(C(F)(F)F)O.C(=O)(C(F)(F)F)O
> <PUBCHEM_OPENEYE_ISO_SMILES>
CC1(OCC(O1)[C@@H]2[C@@H]([C@H]3C(O2)OC(O3)(C)C)OC(=O)NCCCCC(=O)O[C@H](CN4CC5CCCCC5C[C@H]4C(=O)NC(C)(C)C)[C@H](CC6=CC=CC=C6)NC(=O)[C@H](CC(=O)N)NC(=O)C7=NC8=CC=CC=C8C=C7)C.C(=O)(C(F)(F)F)O.C(=O)(C(F)(F)F)O.C(=O)(C(F)(F)F)O.C(=O)(C(F)(F)F)O
> <PUBCHEM_CACTVS_TPSA>
407
> <PUBCHEM_MONOISOTOPIC_WEIGHT>
1511.5293906
> <PUBCHEM_TOTAL_CHARGE>
0
> <PUBCHEM_HEAVY_ATOM_COUNT>
104
> <PUBCHEM_ATOM_DEF_STEREO_COUNT>
7
> <PUBCHEM_ATOM_UDEF_STEREO_COUNT>
4
> <PUBCHEM_BOND_DEF_STEREO_COUNT>
0
> <PUBCHEM_BOND_UDEF_STEREO_COUNT>
0
> <PUBCHEM_ISOTOPIC_ATOM_COUNT>
0
> <PUBCHEM_COMPONENT_COUNT>
5
> <PUBCHEM_CACTVS_TAUTO_COUNT>
-1
> <PUBCHEM_COORDINATE_TYPE>
1
5
255
> <PUBCHEM_BONDANNOTATIONS>
52  13  6
62  15  3
61  19  5
53  36  5
71  37  6
40  88  8
40  91  8
41  45  3
42  46  3
47  51  5
56  128  6
57  129  6
63  68  3
64  72  8
64  73  8
72  82  8
73  83  8
82  85  8
83  85  8
88  89  8
89  90  8
90  92  8
91  92  8
91  93  8
92  94  8
93  95  8
94  96  8
95  96  8
$$$$
