500867
  -OEChem-10302200282D
 81 84  0     1  0  0  0  0  0999 V2000
    5.4641    2.3100    0.0000 O   0  0  0  0  0  0  0  0  0  0  0  0
    6.3301   -0.1900    0.0000 O   0  0  0  0  0  0  0  0  0  0  0  0
    2.8660   -0.1900    0.0000 O   0  0  0  0  0  0  0  0  0  0  0  0
    8.9282   -1.6900    0.0000 O   0  0  0  0  0  0  0  0  0  0  0  0
    2.0000   -3.6900    0.0000 O   0  0  0  0  0  0  0  0  0  0  0  0
    7.1962   -0.6900    0.0000 O   0  0  0  0  0  0  0  0  0  0  0  0
    4.5981   -0.1900    0.0000 N   0  0  0  0  0  0  0  0  0  0  0  0
    7.1962    1.3100    0.0000 N   0  0  0  0  0  0  0  0  0  0  0  0
    8.0622    0.8100    0.0000 N   0  0  0  0  0  0  0  0  0  0  0  0
    4.5981    0.8100    0.0000 C   0  0  2  0  0  0  0  0  0  0  0  0
    5.4641    1.3100    0.0000 C   0  0  1  0  0  0  0  0  0  0  0  0
    3.7320    1.3100    0.0000 C   0  0  0  0  0  0  0  0  0  0  0  0
    6.3301    0.8100    0.0000 C   0  0  0  0  0  0  0  0  0  0  0  0
    3.7320    2.3100    0.0000 C   0  0  0  0  0  0  0  0  0  0  0  0
    3.7320   -0.6900    0.0000 C   0  0  0  0  0  0  0  0  0  0  0  0
    7.1962    2.3100    0.0000 C   0  0  0  0  0  0  0  0  0  0  0  0
    2.8660    2.8100    0.0000 C   0  0  0  0  0  0  0  0  0  0  0  0
    4.5981    2.8100    0.0000 C   0  0  0  0  0  0  0  0  0  0  0  0
    3.7320   -1.6900    0.0000 C   0  0  0  0  0  0  0  0  0  0  0  0
    8.0622    2.8100    0.0000 C   0  0  0  0  0  0  0  0  0  0  0  0
    2.8660    3.8100    0.0000 C   0  0  0  0  0  0  0  0  0  0  0  0
    4.5981    3.8100    0.0000 C   0  0  0  0  0  0  0  0  0  0  0  0
    2.8660   -2.1900    0.0000 C   0  0  0  0  0  0  0  0  0  0  0  0
    3.7320    4.3100    0.0000 C   0  0  0  0  0  0  0  0  0  0  0  0
    4.5981   -2.1900    0.0000 C   0  0  0  0  0  0  0  0  0  0  0  0
    8.0622   -0.1900    0.0000 C   0  0  0  0  0  0  0  0  0  0  0  0
    8.9282    2.3100    0.0000 C   0  0  0  0  0  0  0  0  0  0  0  0
    8.0622    3.8100    0.0000 C   0  0  0  0  0  0  0  0  0  0  0  0
    2.8660   -3.1900    0.0000 C   0  0  0  0  0  0  0  0  0  0  0  0
    2.0000   -1.6900    0.0000 C   0  0  0  0  0  0  0  0  0  0  0  0
    8.9282   -0.6900    0.0000 C   0  0  0  0  0  0  0  0  0  0  0  0
    4.5981   -3.1900    0.0000 C   0  0  0  0  0  0  0  0  0  0  0  0
    3.7320   -3.6900    0.0000 C   0  0  0  0  0  0  0  0  0  0  0  0
    9.7942    2.8100    0.0000 C   0  0  0  0  0  0  0  0  0  0  0  0
    8.9282    4.3100    0.0000 C   0  0  0  0  0  0  0  0  0  0  0  0
    9.7942    3.8100    0.0000 C   0  0  0  0  0  0  0  0  0  0  0  0
    9.7942   -2.1900    0.0000 C   0  0  0  0  0  0  0  0  0  0  0  0
    9.7942   -3.1900    0.0000 C   0  0  0  0  0  0  0  0  0  0  0  0
   10.6603   -1.6900    0.0000 C   0  0  0  0  0  0  0  0  0  0  0  0
   10.6603   -3.6900    0.0000 C   0  0  0  0  0  0  0  0  0  0  0  0
   11.5263   -2.1900    0.0000 C   0  0  0  0  0  0  0  0  0  0  0  0
    8.9282   -3.6900    0.0000 C   0  0  0  0  0  0  0  0  0  0  0  0
   10.6603   -0.6900    0.0000 C   0  0  0  0  0  0  0  0  0  0  0  0
   11.5263   -3.1900    0.0000 C   0  0  0  0  0  0  0  0  0  0  0  0
    5.1350    0.5000    0.0000 H   0  0  0  0  0  0  0  0  0  0  0  0
    6.0010    1.6200    0.0000 H   0  0  0  0  0  0  0  0  0  0  0  0
    3.1215    1.4177    0.0000 H   0  0  0  0  0  0  0  0  0  0  0  0
    3.5200    0.7274    0.0000 H   0  0  0  0  0  0  0  0  0  0  0  0
    5.1350   -0.5000    0.0000 H   0  0  0  0  0  0  0  0  0  0  0  0
    6.9841    2.8926    0.0000 H   0  0  0  0  0  0  0  0  0  0  0  0
    6.5856    2.2023    0.0000 H   0  0  0  0  0  0  0  0  0  0  0  0
    6.0010    2.6200    0.0000 H   0  0  0  0  0  0  0  0  0  0  0  0
    2.3291    2.5000    0.0000 H   0  0  0  0  0  0  0  0  0  0  0  0
    5.1350    2.5000    0.0000 H   0  0  0  0  0  0  0  0  0  0  0  0
    8.5991    1.1200    0.0000 H   0  0  0  0  0  0  0  0  0  0  0  0
    2.3291    4.1200    0.0000 H   0  0  0  0  0  0  0  0  0  0  0  0
    5.1350    4.1200    0.0000 H   0  0  0  0  0  0  0  0  0  0  0  0
    3.7320    4.9300    0.0000 H   0  0  0  0  0  0  0  0  0  0  0  0
    5.1350   -1.8800    0.0000 H   0  0  0  0  0  0  0  0  0  0  0  0
    8.9282    1.6900    0.0000 H   0  0  0  0  0  0  0  0  0  0  0  0
    7.5252    4.1200    0.0000 H   0  0  0  0  0  0  0  0  0  0  0  0
    2.3100   -1.1531    0.0000 H   0  0  0  0  0  0  0  0  0  0  0  0
    1.4631   -1.3800    0.0000 H   0  0  0  0  0  0  0  0  0  0  0  0
    1.6900   -2.2269    0.0000 H   0  0  0  0  0  0  0  0  0  0  0  0
    9.5388   -0.7977    0.0000 H   0  0  0  0  0  0  0  0  0  0  0  0
    9.1403   -0.1074    0.0000 H   0  0  0  0  0  0  0  0  0  0  0  0
    5.1350   -3.5000    0.0000 H   0  0  0  0  0  0  0  0  0  0  0  0
    3.7320   -4.3100    0.0000 H   0  0  0  0  0  0  0  0  0  0  0  0
   10.3312    2.5000    0.0000 H   0  0  0  0  0  0  0  0  0  0  0  0
    8.9282    4.9300    0.0000 H   0  0  0  0  0  0  0  0  0  0  0  0
   10.3312    4.1200    0.0000 H   0  0  0  0  0  0  0  0  0  0  0  0
    2.0000   -4.3100    0.0000 H   0  0  0  0  0  0  0  0  0  0  0  0
   10.6603   -4.3100    0.0000 H   0  0  0  0  0  0  0  0  0  0  0  0
   12.0632   -1.8800    0.0000 H   0  0  0  0  0  0  0  0  0  0  0  0
    8.6182   -3.1531    0.0000 H   0  0  0  0  0  0  0  0  0  0  0  0
    8.3913   -4.0000    0.0000 H   0  0  0  0  0  0  0  0  0  0  0  0
    9.2382   -4.2269    0.0000 H   0  0  0  0  0  0  0  0  0  0  0  0
   11.2803   -0.6900    0.0000 H   0  0  0  0  0  0  0  0  0  0  0  0
   10.6603   -0.0700    0.0000 H   0  0  0  0  0  0  0  0  0  0  0  0
   10.0403   -0.6900    0.0000 H   0  0  0  0  0  0  0  0  0  0  0  0
   12.0632   -3.5000    0.0000 H   0  0  0  0  0  0  0  0  0  0  0  0
 11  1  1  6  0  0  0
  1 52  1  0  0  0  0
  2 13  2  0  0  0  0
  3 15  2  0  0  0  0
  4 31  1  0  0  0  0
  4 37  1  0  0  0  0
  5 29  1  0  0  0  0
  5 72  1  0  0  0  0
  6 26  2  0  0  0  0
 10  7  1  1  0  0  0
  7 15  1  0  0  0  0
  7 49  1  0  0  0  0
  8  9  1  0  0  0  0
  8 13  1  0  0  0  0
  8 16  1  0  0  0  0
  9 26  1  0  0  0  0
  9 55  1  0  0  0  0
 10 11  1  0  0  0  0
 10 12  1  0  0  0  0
 10 45  1  0  0  0  0
 11 13  1  0  0  0  0
 11 46  1  0  0  0  0
 12 14  1  0  0  0  0
 12 47  1  0  0  0  0
 12 48  1  0  0  0  0
 14 17  2  0  0  0  0
 14 18  1  0  0  0  0
 15 19  1  0  0  0  0
 16 20  1  0  0  0  0
 16 50  1  0  0  0  0
 16 51  1  0  0  0  0
 17 21  1  0  0  0  0
 17 53  1  0  0  0  0
 18 22  2  0  0  0  0
 18 54  1  0  0  0  0
 19 23  2  0  0  0  0
 19 25  1  0  0  0  0
 20 27  2  0  0  0  0
 20 28  1  0  0  0  0
 21 24  2  0  0  0  0
 21 56  1  0  0  0  0
 22 24  1  0  0  0  0
 22 57  1  0  0  0  0
 23 29  1  0  0  0  0
 23 30  1  0  0  0  0
 24 58  1  0  0  0  0
 25 32  2  0  0  0  0
 25 59  1  0  0  0  0
 26 31  1  0  0  0  0
 27 34  1  0  0  0  0
 27 60  1  0  0  0  0
 28 35  2  0  0  0  0
 28 61  1  0  0  0  0
 29 33  2  0  0  0  0
 30 62  1  0  0  0  0
 30 63  1  0  0  0  0
 30 64  1  0  0  0  0
 31 65  1  0  0  0  0
 31 66  1  0  0  0  0
 32 33  1  0  0  0  0
 32 67  1  0  0  0  0
 33 68  1  0  0  0  0
 34 36  2  0  0  0  0
 34 69  1  0  0  0  0
 35 36  1  0  0  0  0
 35 70  1  0  0  0  0
 36 71  1  0  0  0  0
 37 38  2  0  0  0  0
 37 39  1  0  0  0  0
 38 40  1  0  0  0  0
 38 42  1  0  0  0  0
 39 41  2  0  0  0  0
 39 43  1  0  0  0  0
 40 44  2  0  0  0  0
 40 73  1  0  0  0  0
 41 44  1  0  0  0  0
 41 74  1  0  0  0  0
 42 75  1  0  0  0  0
 42 76  1  0  0  0  0
 42 77  1  0  0  0  0
 43 78  1  0  0  0  0
 43 79  1  0  0  0  0
 43 80  1  0  0  0  0
 44 81  1  0  0  0  0
M  END
> <PUBCHEM_COMPOUND_CID>
500867
> <PUBCHEM_COMPOUND_CANONICALIZED>
1
> <PUBCHEM_CACTVS_COMPLEXITY>
910
> <PUBCHEM_CACTVS_HBOND_ACCEPTOR>
6
> <PUBCHEM_CACTVS_HBOND_DONOR>
4
> <PUBCHEM_CACTVS_ROTATABLE_BOND>
11
> <PUBCHEM_CACTVS_SUBSKEYS>
AAADcfB/OAAAAAAAAAAAAAAAAAAAAAAAAAAwYMGAAAAAAAABVAAAHgAYCAAADDzhmAYyBoLiBgCIAiFSEAKCCAAkIAAaqIFODMgONjqG9R+HeSjk1hGYuYe6yPCOgAADAAAYAAAAAAYAADAAAAAAAAAAAA==
> <PUBCHEM_IUPAC_OPENEYE_NAME>
N-[(1S,2S)-1-benzyl-3-[benzyl-[[2-(2,6-dimethylphenoxy)acetyl]amino]amino]-2-hydroxy-3-oxo-propyl]-3-hydroxy-2-methyl-benzamide
> <PUBCHEM_IUPAC_CAS_NAME>
N-[(2S,3S)-4-[[[2-(2,6-dimethylphenoxy)-1-oxoethyl]amino]-(phenylmethyl)amino]-3-hydroxy-4-oxo-1-phenylbutan-2-yl]-3-hydroxy-2-methylbenzamide
> <PUBCHEM_IUPAC_NAME_MARKUP>
<I>N</I>-[(2<I>S</I>,3<I>S</I>)-4-[benzyl-[[2-(2,6-dimethylphenoxy)acetyl]amino]amino]-3-hydroxy-4-oxo-1-phenylbutan-2-yl]-3-hydroxy-2-methylbenzamide
> <PUBCHEM_IUPAC_NAME>
N-[(2S,3S)-4-[benzyl-[[2-(2,6-dimethylphenoxy)acetyl]amino]amino]-3-hydroxy-4-oxo-1-phenylbutan-2-yl]-3-hydroxy-2-methylbenzamide
> <PUBCHEM_IUPAC_SYSTEMATIC_NAME>
N-[(2S,3S)-4-[[2-(2,6-dimethylphenoxy)ethanoylamino]-(phenylmethyl)amino]-3-oxidanyl-4-oxidanylidene-1-phenyl-butan-2-yl]-2-methyl-3-oxidanyl-benzamide
> <PUBCHEM_IUPAC_TRADITIONAL_NAME>
N-[(1S,2S)-1-benzyl-3-[benzyl-[[2-(2,6-dimethylphenoxy)acetyl]amino]amino]-2-hydroxy-3-keto-propyl]-3-hydroxy-2-methyl-benzamide
> <PUBCHEM_IUPAC_INCHI>
InChI=1S/C35H37N3O6/c1-23-12-10-13-24(2)33(23)44-22-31(40)37-38(21-27-16-8-5-9-17-27)35(43)32(41)29(20-26-14-6-4-7-15-26)36-34(42)28-18-11-19-30(39)25(28)3/h4-19,29,32,39,41H,20-22H2,1-3H3,(H,36,42)(H,37,40)/t29-,32-/m0/s1
> <PUBCHEM_IUPAC_INCHIKEY>
ZLGGLFCORSRTDX-NYDCQLBNSA-N
> <PUBCHEM_XLOGP3_AA>
5.5
> <PUBCHEM_EXACT_MASS>
595.26823591
> <PUBCHEM_MOLECULAR_FORMULA>
C35H37N3O6
> <PUBCHEM_MOLECULAR_WEIGHT>
595.7
> <PUBCHEM_OPENEYE_CAN_SMILES>
CC1=C(C(=CC=C1)C)OCC(=O)NN(CC2=CC=CC=C2)C(=O)C(C(CC3=CC=CC=C3)NC(=O)C4=C(C(=CC=C4)O)C)O
> <PUBCHEM_OPENEYE_ISO_SMILES>
CC1=C(C(=CC=C1)C)OCC(=O)NN(CC2=CC=CC=C2)C(=O)[C@H]([C@H](CC3=CC=CC=C3)NC(=O)C4=C(C(=CC=C4)O)C)O
> <PUBCHEM_CACTVS_TPSA>
128
> <PUBCHEM_MONOISOTOPIC_WEIGHT>
595.26823591
> <PUBCHEM_TOTAL_CHARGE>
0
> <PUBCHEM_HEAVY_ATOM_COUNT>
44
> <PUBCHEM_ATOM_DEF_STEREO_COUNT>
2
> <PUBCHEM_ATOM_UDEF_STEREO_COUNT>
0
> <PUBCHEM_BOND_DEF_STEREO_COUNT>
0
> <PUBCHEM_BOND_UDEF_STEREO_COUNT>
0
> <PUBCHEM_ISOTOPIC_ATOM_COUNT>
0
> <PUBCHEM_COMPONENT_COUNT>
1
> <PUBCHEM_CACTVS_TAUTO_COUNT>
-1
> <PUBCHEM_COORDINATE_TYPE>
1
5
255
> <PUBCHEM_BONDANNOTATIONS>
11  1  6
14  17  8
14  18  8
17  21  8
18  22  8
19  23  8
19  25  8
20  27  8
20  28  8
21  24  8
22  24  8
23  29  8
25  32  8
27  34  8
28  35  8
29  33  8
32  33  8
34  36  8
35  36  8
37  38  8
37  39  8
38  40  8
39  41  8
40  44  8
41  44  8
10  7  5
$$$$
