500800
  -OEChem-10302200282D
 96100  0     1  0  0  0  0  0999 V2000
   12.8249   -0.5595    0.0000 O   0  0  0  0  0  0  0  0  0  0  0  0
   11.4236    0.4585    0.0000 O   0  0  0  0  0  0  0  0  0  0  0  0
    6.3981   -0.9778    0.0000 O   0  0  0  0  0  0  0  0  0  0  0  0
   10.4291    0.5631    0.0000 O   0  0  0  0  0  0  0  0  0  0  0  0
    9.7480    1.7427    0.0000 O   0  0  0  0  0  0  0  0  0  0  0  0
    9.9737    4.3788    0.0000 O   0  0  0  0  0  0  0  0  0  0  0  0
   10.1548    2.6562    0.0000 O   0  0  0  0  0  0  0  0  0  0  0  0
    2.8680   -4.0020    0.0000 O   0  0  0  0  0  0  0  0  0  0  0  0
   10.2480   -1.1595    0.0000 N   0  0  0  0  0  0  0  0  0  0  0  0
    8.3468    0.7246    0.0000 N   0  0  0  0  0  0  0  0  0  0  0  0
    8.5725    3.3607    0.0000 N   0  0  0  0  0  0  0  0  0  0  0  0
    6.3981   -3.9778    0.0000 N   0  0  0  0  0  0  0  0  0  0  0  0
   11.2426   -1.2640    0.0000 C   0  0  3  0  0  0  0  0  0  0  0  0
   11.1380   -2.2586    0.0000 C   0  0  2  0  0  0  0  0  0  0  0  0
   12.0516   -1.8518    0.0000 C   0  0  0  0  0  0  0  0  0  0  0  0
   11.8303   -0.4550    0.0000 C   0  0  0  0  0  0  0  0  0  0  0  0
   10.5502   -3.0676    0.0000 C   0  0  0  0  0  0  0  0  0  0  0  0
    8.8468   -0.1414    0.0000 C   0  0  2  0  0  0  0  0  0  0  0  0
    9.8413   -0.2460    0.0000 C   0  0  0  0  0  0  0  0  0  0  0  0
    8.1776   -0.8846    0.0000 C   0  0  0  0  0  0  0  0  0  0  0  0
    7.2641   -0.4778    0.0000 C   0  0  2  0  0  0  0  0  0  0  0  0
    7.3686    0.5167    0.0000 C   0  0  0  0  0  0  0  0  0  0  0  0
   10.9570   -3.9811    0.0000 C   0  0  0  0  0  0  0  0  0  0  0  0
    8.7535    1.6382    0.0000 C   0  0  0  0  0  0  0  0  0  0  0  0
    8.1657    2.4472    0.0000 C   0  0  2  0  0  0  0  0  0  0  0  0
    7.1712    2.3426    0.0000 C   0  0  0  0  0  0  0  0  0  0  0  0
    6.5834    3.1516    0.0000 C   0  0  0  0  0  0  0  0  0  0  0  0
    6.3981   -1.9778    0.0000 C   0  0  0  0  0  0  0  0  0  0  0  0
    5.5320   -2.4778    0.0000 C   0  0  0  0  0  0  0  0  0  0  0  0
    5.5889    3.0471    0.0000 C   0  0  0  0  0  0  0  0  0  0  0  0
    6.9902    4.0652    0.0000 C   0  0  0  0  0  0  0  0  0  0  0  0
    7.2641   -2.4778    0.0000 C   0  0  0  0  0  0  0  0  0  0  0  0
    9.5670    3.4652    0.0000 C   0  0  0  0  0  0  0  0  0  0  0  0
    5.5320   -3.4778    0.0000 C   0  0  0  0  0  0  0  0  0  0  0  0
    7.2641   -3.4778    0.0000 C   0  0  0  0  0  0  0  0  0  0  0  0
    4.6381   -1.9432    0.0000 C   0  0  0  0  0  0  0  0  0  0  0  0
   10.9682    4.4833    0.0000 C   0  0  0  0  0  0  0  0  0  0  0  0
    4.6381   -4.0125    0.0000 C   0  0  0  0  0  0  0  0  0  0  0  0
    3.7320   -2.4570    0.0000 C   0  0  0  0  0  0  0  0  0  0  0  0
    8.1301   -3.9778    0.0000 C   0  0  0  0  0  0  0  0  0  0  0  0
    3.7320   -3.4986    0.0000 C   0  0  0  0  0  0  0  0  0  0  0  0
   11.9628    4.5878    0.0000 C   0  0  0  0  0  0  0  0  0  0  0  0
   10.8637    5.4778    0.0000 C   0  0  0  0  0  0  0  0  0  0  0  0
   11.0728    3.4888    0.0000 C   0  0  0  0  0  0  0  0  0  0  0  0
    8.9962   -3.4778    0.0000 C   0  0  0  0  0  0  0  0  0  0  0  0
    8.1301   -4.9778    0.0000 C   0  0  0  0  0  0  0  0  0  0  0  0
    9.8622   -3.9778    0.0000 C   0  0  0  0  0  0  0  0  0  0  0  0
    8.9962   -5.4778    0.0000 C   0  0  0  0  0  0  0  0  0  0  0  0
    9.8622   -4.9778    0.0000 C   0  0  0  0  0  0  0  0  0  0  0  0
    2.0000   -3.5053    0.0000 C   0  0  0  0  0  0  0  0  0  0  0  0
   10.5592   -2.0364    0.0000 H   0  0  0  0  0  0  0  0  0  0  0  0
   12.3983   -2.3658    0.0000 H   0  0  0  0  0  0  0  0  0  0  0  0
   12.4976   -1.4211    0.0000 H   0  0  0  0  0  0  0  0  0  0  0  0
    9.8836   -1.6611    0.0000 H   0  0  0  0  0  0  0  0  0  0  0  0
    9.9336   -3.0028    0.0000 H   0  0  0  0  0  0  0  0  0  0  0  0
    9.1844    0.3786    0.0000 H   0  0  0  0  0  0  0  0  0  0  0  0
    7.8676   -1.4215    0.0000 H   0  0  0  0  0  0  0  0  0  0  0  0
    8.6792   -1.2490    0.0000 H   0  0  0  0  0  0  0  0  0  0  0  0
    6.7441   -0.1402    0.0000 H   0  0  0  0  0  0  0  0  0  0  0  0
    7.3038    1.1333    0.0000 H   0  0  0  0  0  0  0  0  0  0  0  0
    6.7486    0.5167    0.0000 H   0  0  0  0  0  0  0  0  0  0  0  0
   10.5926   -4.4827    0.0000 H   0  0  0  0  0  0  0  0  0  0  0  0
   11.5736   -4.0459    0.0000 H   0  0  0  0  0  0  0  0  0  0  0  0
   13.1893   -0.0579    0.0000 H   0  0  0  0  0  0  0  0  0  0  0  0
    7.8013    2.9488    0.0000 H   0  0  0  0  0  0  0  0  0  0  0  0
    6.6140    2.0708    0.0000 H   0  0  0  0  0  0  0  0  0  0  0  0
    7.3421    1.7466    0.0000 H   0  0  0  0  0  0  0  0  0  0  0  0
    6.2190    3.6532    0.0000 H   0  0  0  0  0  0  0  0  0  0  0  0
    8.2080    3.8623    0.0000 H   0  0  0  0  0  0  0  0  0  0  0  0
    5.5241    3.6637    0.0000 H   0  0  0  0  0  0  0  0  0  0  0  0
    4.9723    2.9823    0.0000 H   0  0  0  0  0  0  0  0  0  0  0  0
    5.6537    2.4305    0.0000 H   0  0  0  0  0  0  0  0  0  0  0  0
    7.5566    3.8130    0.0000 H   0  0  0  0  0  0  0  0  0  0  0  0
    7.2423    4.6316    0.0000 H   0  0  0  0  0  0  0  0  0  0  0  0
    6.4238    4.3174    0.0000 H   0  0  0  0  0  0  0  0  0  0  0  0
    7.8010   -2.1678    0.0000 H   0  0  0  0  0  0  0  0  0  0  0  0
    4.6453   -1.3232    0.0000 H   0  0  0  0  0  0  0  0  0  0  0  0
    4.6453   -4.6325    0.0000 H   0  0  0  0  0  0  0  0  0  0  0  0
    3.1963   -2.1450    0.0000 H   0  0  0  0  0  0  0  0  0  0  0  0
   12.0276    3.9712    0.0000 H   0  0  0  0  0  0  0  0  0  0  0  0
   12.5794    4.6527    0.0000 H   0  0  0  0  0  0  0  0  0  0  0  0
   11.8980    5.2044    0.0000 H   0  0  0  0  0  0  0  0  0  0  0  0
   11.4803    5.5426    0.0000 H   0  0  0  0  0  0  0  0  0  0  0  0
   10.7989    6.0944    0.0000 H   0  0  0  0  0  0  0  0  0  0  0  0
   10.2471    5.4130    0.0000 H   0  0  0  0  0  0  0  0  0  0  0  0
   10.4562    3.4240    0.0000 H   0  0  0  0  0  0  0  0  0  0  0  0
   11.1376    2.8722    0.0000 H   0  0  0  0  0  0  0  0  0  0  0  0
   11.6894    3.5536    0.0000 H   0  0  0  0  0  0  0  0  0  0  0  0
    8.9962   -2.8578    0.0000 H   0  0  0  0  0  0  0  0  0  0  0  0
    7.5932   -5.2878    0.0000 H   0  0  0  0  0  0  0  0  0  0  0  0
   10.3991   -3.6678    0.0000 H   0  0  0  0  0  0  0  0  0  0  0  0
    8.9962   -6.0978    0.0000 H   0  0  0  0  0  0  0  0  0  0  0  0
   10.3991   -5.2878    0.0000 H   0  0  0  0  0  0  0  0  0  0  0  0
    2.3079   -2.9672    0.0000 H   0  0  0  0  0  0  0  0  0  0  0  0
    1.4619   -3.1974    0.0000 H   0  0  0  0  0  0  0  0  0  0  0  0
    1.6921   -4.0434    0.0000 H   0  0  0  0  0  0  0  0  0  0  0  0
  1 16  1  0  0  0  0
  1 64  1  0  0  0  0
  2 16  2  0  0  0  0
 21  3  1  1  0  0  0
  3 28  1  0  0  0  0
  4 19  2  0  0  0  0
  5 24  2  0  0  0  0
  6 33  1  0  0  0  0
  6 37  1  0  0  0  0
  7 33  2  0  0  0  0
  8 41  1  0  0  0  0
  8 50  1  0  0  0  0
  9 13  1  0  0  0  0
  9 19  1  0  0  0  0
  9 54  1  0  0  0  0
 10 18  1  0  0  0  0
 10 22  1  0  0  0  0
 10 24  1  0  0  0  0
 25 11  1  6  0  0  0
 11 33  1  0  0  0  0
 11 69  1  0  0  0  0
 12 34  1  0  0  0  0
 12 35  2  0  0  0  0
 13 14  1  0  0  0  0
 13 15  1  0  0  0  0
 13 16  1  0  0  0  0
 14 15  1  0  0  0  0
 14 17  1  6  0  0  0
 14 51  1  0  0  0  0
 15 52  1  0  0  0  0
 15 53  1  0  0  0  0
 17 23  2  0  0  0  0
 17 55  1  0  0  0  0
 18 19  1  6  0  0  0
 18 20  1  0  0  0  0
 18 56  1  0  0  0  0
 20 21  1  0  0  0  0
 20 57  1  0  0  0  0
 20 58  1  0  0  0  0
 21 22  1  0  0  0  0
 21 59  1  0  0  0  0
 22 60  1  0  0  0  0
 22 61  1  0  0  0  0
 23 62  1  0  0  0  0
 23 63  1  0  0  0  0
 24 25  1  0  0  0  0
 25 26  1  0  0  0  0
 25 65  1  0  0  0  0
 26 27  1  0  0  0  0
 26 66  1  0  0  0  0
 26 67  1  0  0  0  0
 27 30  1  0  0  0  0
 27 31  1  0  0  0  0
 27 68  1  0  0  0  0
 28 29  1  0  0  0  0
 28 32  2  0  0  0  0
 29 34  2  0  0  0  0
 29 36  1  0  0  0  0
 30 70  1  0  0  0  0
 30 71  1  0  0  0  0
 30 72  1  0  0  0  0
 31 73  1  0  0  0  0
 31 74  1  0  0  0  0
 31 75  1  0  0  0  0
 32 35  1  0  0  0  0
 32 76  1  0  0  0  0
 34 38  1  0  0  0  0
 35 40  1  0  0  0  0
 36 39  2  0  0  0  0
 36 77  1  0  0  0  0
 37 42  1  0  0  0  0
 37 43  1  0  0  0  0
 37 44  1  0  0  0  0
 38 41  2  0  0  0  0
 38 78  1  0  0  0  0
 39 41  1  0  0  0  0
 39 79  1  0  0  0  0
 40 45  2  0  0  0  0
 40 46  1  0  0  0  0
 42 80  1  0  0  0  0
 42 81  1  0  0  0  0
 42 82  1  0  0  0  0
 43 83  1  0  0  0  0
 43 84  1  0  0  0  0
 43 85  1  0  0  0  0
 44 86  1  0  0  0  0
 44 87  1  0  0  0  0
 44 88  1  0  0  0  0
 45 47  1  0  0  0  0
 45 89  1  0  0  0  0
 46 48  2  0  0  0  0
 46 90  1  0  0  0  0
 47 49  2  0  0  0  0
 47 91  1  0  0  0  0
 48 49  1  0  0  0  0
 48 92  1  0  0  0  0
 49 93  1  0  0  0  0
 50 94  1  0  0  0  0
 50 95  1  0  0  0  0
 50 96  1  0  0  0  0
M  END
> <PUBCHEM_COMPOUND_CID>
500800
> <PUBCHEM_COMPOUND_CANONICALIZED>
1
> <PUBCHEM_CACTVS_COMPLEXITY>
1250
> <PUBCHEM_CACTVS_HBOND_ACCEPTOR>
9
> <PUBCHEM_CACTVS_HBOND_DONOR>
3
> <PUBCHEM_CACTVS_ROTATABLE_BOND>
14
> <PUBCHEM_CACTVS_SUBSKEYS>
AAADcfB/vAAAAAAAAAAAAAAAGAAAAWAAAAA8YIAAAAAAAACx9AAAHgAQCAAADfzhngYyzvPIFgCoAyXyXACCiCAhIiAImKG+bJkOZvLEsbufeCjm1hnY6Ae68e8OIAAAAgACAABAAAAEAAQAAAAAAAAAAA==
> <PUBCHEM_IUPAC_OPENEYE_NAME>
(2R)-1-[[(2S,4R)-1-[(2S)-2-(tert-butoxycarbonylamino)-4-methyl-pentanoyl]-4-[(7-methoxy-2-phenyl-4-quinolyl)oxy]pyrrolidine-2-carbonyl]amino]-2-vinyl-cyclopropanecarboxylic acid
> <PUBCHEM_IUPAC_CAS_NAME>
(2R)-2-ethenyl-1-[[[(2S,4R)-4-[(7-methoxy-2-phenyl-4-quinolinyl)oxy]-1-[(2S)-4-methyl-2-[[(2-methylpropan-2-yl)oxy-oxomethyl]amino]-1-oxopentyl]-2-pyrrolidinyl]-oxomethyl]amino]-1-cyclopropanecarboxylic acid
> <PUBCHEM_IUPAC_NAME_MARKUP>
(2<I>R</I>)-2-ethenyl-1-[[(2<I>S</I>,4<I>R</I>)-4-(7-methoxy-2-phenylquinolin-4-yl)oxy-1-[(2<I>S</I>)-4-methyl-2-[(2-methylpropan-2-yl)oxycarbonylamino]pentanoyl]pyrrolidine-2-carbonyl]amino]cyclopropane-1-carboxylic acid
> <PUBCHEM_IUPAC_NAME>
(2R)-2-ethenyl-1-[[(2S,4R)-4-(7-methoxy-2-phenylquinolin-4-yl)oxy-1-[(2S)-4-methyl-2-[(2-methylpropan-2-yl)oxycarbonylamino]pentanoyl]pyrrolidine-2-carbonyl]amino]cyclopropane-1-carboxylic acid
> <PUBCHEM_IUPAC_SYSTEMATIC_NAME>
(2R)-2-ethenyl-1-[[(2S,4R)-4-(7-methoxy-2-phenyl-quinolin-4-yl)oxy-1-[(2S)-4-methyl-2-[(2-methylpropan-2-yl)oxycarbonylamino]pentanoyl]pyrrolidin-2-yl]carbonylamino]cyclopropane-1-carboxylic acid
> <PUBCHEM_IUPAC_TRADITIONAL_NAME>
(2R)-1-[[(2S,4R)-1-[(2S)-2-(tert-butoxycarbonylamino)-4-methyl-pentanoyl]-4-[(7-methoxy-2-phenyl-4-quinolyl)oxy]prolyl]amino]-2-vinyl-cyclopropanecarboxylic acid
> <PUBCHEM_IUPAC_INCHI>
InChI=1S/C38H46N4O8/c1-8-24-20-38(24,35(45)46)41-33(43)31-18-26(21-42(31)34(44)30(16-22(2)3)40-36(47)50-37(4,5)6)49-32-19-28(23-12-10-9-11-13-23)39-29-17-25(48-7)14-15-27(29)32/h8-15,17,19,22,24,26,30-31H,1,16,18,20-21H2,2-7H3,(H,40,47)(H,41,43)(H,45,46)/t24-,26+,30-,31-,38?/m0/s1
> <PUBCHEM_IUPAC_INCHIKEY>
MVNWDWVCMAXVCR-VKHXRASNSA-N
> <PUBCHEM_XLOGP3_AA>
5.8
> <PUBCHEM_EXACT_MASS>
686.33156444
> <PUBCHEM_MOLECULAR_FORMULA>
C38H46N4O8
> <PUBCHEM_MOLECULAR_WEIGHT>
686.8
> <PUBCHEM_OPENEYE_CAN_SMILES>
CC(C)CC(C(=O)N1CC(CC1C(=O)NC2(CC2C=C)C(=O)O)OC3=CC(=NC4=C3C=CC(=C4)OC)C5=CC=CC=C5)NC(=O)OC(C)(C)C
> <PUBCHEM_OPENEYE_ISO_SMILES>
CC(C)C[C@@H](C(=O)N1C[C@@H](C[C@H]1C(=O)NC2(C[C@@H]2C=C)C(=O)O)OC3=CC(=NC4=C3C=CC(=C4)OC)C5=CC=CC=C5)NC(=O)OC(C)(C)C
> <PUBCHEM_CACTVS_TPSA>
156
> <PUBCHEM_MONOISOTOPIC_WEIGHT>
686.33156444
> <PUBCHEM_TOTAL_CHARGE>
0
> <PUBCHEM_HEAVY_ATOM_COUNT>
50
> <PUBCHEM_ATOM_DEF_STEREO_COUNT>
4
> <PUBCHEM_ATOM_UDEF_STEREO_COUNT>
1
> <PUBCHEM_BOND_DEF_STEREO_COUNT>
0
> <PUBCHEM_BOND_UDEF_STEREO_COUNT>
0
> <PUBCHEM_ISOTOPIC_ATOM_COUNT>
0
> <PUBCHEM_COMPONENT_COUNT>
1
> <PUBCHEM_CACTVS_TAUTO_COUNT>
-1
> <PUBCHEM_COORDINATE_TYPE>
1
5
255
> <PUBCHEM_BONDANNOTATIONS>
25  11  6
12  34  8
12  35  8
13  16  3
14  17  6
18  19  6
28  29  8
28  32  8
29  34  8
29  36  8
21  3  5
32  35  8
34  38  8
36  39  8
38  41  8
39  41  8
40  45  8
40  46  8
45  47  8
46  48  8
47  49  8
48  49  8
$$$$
