500807
  -OEChem-10302200282D
 95100  0     1  0  0  0  0  0999 V2000
    9.9737    5.2896    0.0000 O   0  0  0  0  0  0  0  0  0  0  0  0
   10.1548    3.5671    0.0000 O   0  0  0  0  0  0  0  0  0  0  0  0
    6.3981   -0.0670    0.0000 O   0  0  0  0  0  0  0  0  0  0  0  0
    9.7480    2.6535    0.0000 O   0  0  0  0  0  0  0  0  0  0  0  0
   10.4291    1.4739    0.0000 O   0  0  0  0  0  0  0  0  0  0  0  0
    2.8680   -3.0911    0.0000 O   0  0  0  0  0  0  0  0  0  0  0  0
   12.2817   -4.8164    0.0000 O   0  0  0  0  0  0  0  0  0  0  0  0
    8.1657    3.3580    0.0000 N   0  0  0  0  0  0  0  0  0  0  0  0
    8.8468    0.7694    0.0000 N   0  0  0  0  0  0  0  0  0  0  0  0
   11.2426   -0.3532    0.0000 N   0  0  0  0  0  0  0  0  0  0  0  0
    6.3981   -3.0670    0.0000 N   0  0  0  0  0  0  0  0  0  0  0  0
    8.5725    4.2716    0.0000 C   0  0  3  0  0  0  0  0  0  0  0  0
    7.6589    4.6783    0.0000 C   0  0  2  0  0  0  0  0  0  0  0  0
    8.4679    5.2661    0.0000 C   0  0  0  0  0  0  0  0  0  0  0  0
    9.5670    4.3761    0.0000 C   0  0  0  0  0  0  0  0  0  0  0  0
    6.6644    4.5738    0.0000 C   0  0  0  0  0  0  0  0  0  0  0  0
    8.3468    1.6354    0.0000 C   0  0  2  0  0  0  0  0  0  0  0  0
    8.7535    2.5490    0.0000 C   0  0  0  0  0  0  0  0  0  0  0  0
    7.3686    1.4275    0.0000 C   0  0  0  0  0  0  0  0  0  0  0  0
    7.2641    0.4330    0.0000 C   0  0  2  0  0  0  0  0  0  0  0  0
    8.1776    0.0263    0.0000 C   0  0  0  0  0  0  0  0  0  0  0  0
    6.0766    5.3828    0.0000 C   0  0  0  0  0  0  0  0  0  0  0  0
    9.8413    0.6649    0.0000 C   0  0  0  0  0  0  0  0  0  0  0  0
   10.2480   -0.2487    0.0000 C   0  0  2  0  0  0  0  0  0  0  0  0
    9.6602   -1.0577    0.0000 C   0  0  0  0  0  0  0  0  0  0  0  0
    6.3981   -1.0670    0.0000 C   0  0  0  0  0  0  0  0  0  0  0  0
    8.6657   -0.9531    0.0000 C   0  0  0  0  0  0  0  0  0  0  0  0
   10.0670   -1.9712    0.0000 C   0  0  0  0  0  0  0  0  0  0  0  0
    5.5320   -1.5670    0.0000 C   0  0  0  0  0  0  0  0  0  0  0  0
   11.6493   -1.2667    0.0000 C   0  0  0  0  0  0  0  0  0  0  0  0
    7.2641   -1.5670    0.0000 C   0  0  0  0  0  0  0  0  0  0  0  0
    5.5320   -2.5670    0.0000 C   0  0  0  0  0  0  0  0  0  0  0  0
    7.2641   -2.5670    0.0000 C   0  0  0  0  0  0  0  0  0  0  0  0
   11.0615   -2.0757    0.0000 C   0  0  0  0  0  0  0  0  0  0  0  0
    4.6381   -1.0323    0.0000 C   0  0  0  0  0  0  0  0  0  0  0  0
   12.6438   -1.3713    0.0000 C   0  0  0  0  0  0  0  0  0  0  0  0
   11.4682   -2.9893    0.0000 C   0  0  0  0  0  0  0  0  0  0  0  0
    4.6381   -3.1016    0.0000 C   0  0  0  0  0  0  0  0  0  0  0  0
    3.7320   -1.5462    0.0000 C   0  0  0  0  0  0  0  0  0  0  0  0
    8.1301   -3.0670    0.0000 C   0  0  0  0  0  0  0  0  0  0  0  0
   13.0505   -2.2848    0.0000 C   0  0  0  0  0  0  0  0  0  0  0  0
    3.7320   -2.5878    0.0000 C   0  0  0  0  0  0  0  0  0  0  0  0
   12.4628   -3.0938    0.0000 C   0  0  0  0  0  0  0  0  0  0  0  0
   10.8805   -3.7983    0.0000 C   0  0  0  0  0  0  0  0  0  0  0  0
    8.9962   -2.5670    0.0000 C   0  0  0  0  0  0  0  0  0  0  0  0
    8.1301   -4.0670    0.0000 C   0  0  0  0  0  0  0  0  0  0  0  0
   11.2872   -4.7118    0.0000 C   0  0  0  0  0  0  0  0  0  0  0  0
    9.8622   -3.0670    0.0000 C   0  0  0  0  0  0  0  0  0  0  0  0
    8.9962   -4.5670    0.0000 C   0  0  0  0  0  0  0  0  0  0  0  0
    9.8622   -4.0670    0.0000 C   0  0  0  0  0  0  0  0  0  0  0  0
    2.0000   -2.5945    0.0000 C   0  0  0  0  0  0  0  0  0  0  0  0
    7.5619    4.0659    0.0000 H   0  0  0  0  0  0  0  0  0  0  0  0
    9.0639    5.4370    0.0000 H   0  0  0  0  0  0  0  0  0  0  0  0
    8.1961    5.8233    0.0000 H   0  0  0  0  0  0  0  0  0  0  0  0
    7.5491    3.2932    0.0000 H   0  0  0  0  0  0  0  0  0  0  0  0
    6.4122    4.0074    0.0000 H   0  0  0  0  0  0  0  0  0  0  0  0
    8.9659    1.6679    0.0000 H   0  0  0  0  0  0  0  0  0  0  0  0
    7.3038    2.0441    0.0000 H   0  0  0  0  0  0  0  0  0  0  0  0
    6.7486    1.4275    0.0000 H   0  0  0  0  0  0  0  0  0  0  0  0
    6.7441    0.7707    0.0000 H   0  0  0  0  0  0  0  0  0  0  0  0
    7.8676   -0.5107    0.0000 H   0  0  0  0  0  0  0  0  0  0  0  0
    8.6792   -0.3382    0.0000 H   0  0  0  0  0  0  0  0  0  0  0  0
    6.3288    5.9492    0.0000 H   0  0  0  0  0  0  0  0  0  0  0  0
    5.4600    5.3180    0.0000 H   0  0  0  0  0  0  0  0  0  0  0  0
   10.5903    5.3544    0.0000 H   0  0  0  0  0  0  0  0  0  0  0  0
   10.6125    0.2529    0.0000 H   0  0  0  0  0  0  0  0  0  0  0  0
    9.4081   -0.4913    0.0000 H   0  0  0  0  0  0  0  0  0  0  0  0
   11.6070    0.1484    0.0000 H   0  0  0  0  0  0  0  0  0  0  0  0
    8.7305   -0.3365    0.0000 H   0  0  0  0  0  0  0  0  0  0  0  0
    8.0491   -0.8883    0.0000 H   0  0  0  0  0  0  0  0  0  0  0  0
    8.6009   -1.5698    0.0000 H   0  0  0  0  0  0  0  0  0  0  0  0
    9.5006   -2.2234    0.0000 H   0  0  0  0  0  0  0  0  0  0  0  0
   10.3192   -2.5376    0.0000 H   0  0  0  0  0  0  0  0  0  0  0  0
   10.6334   -1.7190    0.0000 H   0  0  0  0  0  0  0  0  0  0  0  0
    7.8010   -1.2570    0.0000 H   0  0  0  0  0  0  0  0  0  0  0  0
   10.4449   -2.0109    0.0000 H   0  0  0  0  0  0  0  0  0  0  0  0
    4.6453   -0.4124    0.0000 H   0  0  0  0  0  0  0  0  0  0  0  0
   13.0082   -0.8697    0.0000 H   0  0  0  0  0  0  0  0  0  0  0  0
    4.6453   -3.7216    0.0000 H   0  0  0  0  0  0  0  0  0  0  0  0
    3.1963   -1.2341    0.0000 H   0  0  0  0  0  0  0  0  0  0  0  0
   13.6672   -2.3496    0.0000 H   0  0  0  0  0  0  0  0  0  0  0  0
   12.7149   -3.6602    0.0000 H   0  0  0  0  0  0  0  0  0  0  0  0
   10.4498   -3.3523    0.0000 H   0  0  0  0  0  0  0  0  0  0  0  0
   10.3665   -4.1450    0.0000 H   0  0  0  0  0  0  0  0  0  0  0  0
    8.9962   -1.9470    0.0000 H   0  0  0  0  0  0  0  0  0  0  0  0
    7.5932   -4.3770    0.0000 H   0  0  0  0  0  0  0  0  0  0  0  0
   10.6856   -4.8618    0.0000 H   0  0  0  0  0  0  0  0  0  0  0  0
   11.3304   -5.3303    0.0000 H   0  0  0  0  0  0  0  0  0  0  0  0
   10.3991   -2.7570    0.0000 H   0  0  0  0  0  0  0  0  0  0  0  0
    8.9962   -5.1870    0.0000 H   0  0  0  0  0  0  0  0  0  0  0  0
   10.3991   -4.3770    0.0000 H   0  0  0  0  0  0  0  0  0  0  0  0
    2.3079   -2.0564    0.0000 H   0  0  0  0  0  0  0  0  0  0  0  0
    1.4619   -2.2866    0.0000 H   0  0  0  0  0  0  0  0  0  0  0  0
    1.6921   -3.1326    0.0000 H   0  0  0  0  0  0  0  0  0  0  0  0
   12.5339   -5.3828    0.0000 H   0  0  0  0  0  0  0  0  0  0  0  0
  1 15  1  0  0  0  0
  1 65  1  0  0  0  0
  2 15  2  0  0  0  0
 20  3  1  6  0  0  0
  3 26  1  0  0  0  0
  4 18  2  0  0  0  0
  5 23  2  0  0  0  0
  6 42  1  0  0  0  0
  6 51  1  0  0  0  0
  7 47  1  0  0  0  0
  7 95  1  0  0  0  0
  8 12  1  0  0  0  0
  8 18  1  0  0  0  0
  8 55  1  0  0  0  0
  9 17  1  0  0  0  0
  9 21  1  0  0  0  0
  9 23  1  0  0  0  0
 24 10  1  1  0  0  0
 10 30  1  0  0  0  0
 10 68  1  0  0  0  0
 11 32  1  0  0  0  0
 11 33  2  0  0  0  0
 12 13  1  0  0  0  0
 12 14  1  0  0  0  0
 12 15  1  0  0  0  0
 13 14  1  0  0  0  0
 13 16  1  1  0  0  0
 13 52  1  0  0  0  0
 14 53  1  0  0  0  0
 14 54  1  0  0  0  0
 16 22  2  0  0  0  0
 16 56  1  0  0  0  0
 17 18  1  1  0  0  0
 17 19  1  0  0  0  0
 17 57  1  0  0  0  0
 19 20  1  0  0  0  0
 19 58  1  0  0  0  0
 19 59  1  0  0  0  0
 20 21  1  0  0  0  0
 20 60  1  0  0  0  0
 21 61  1  0  0  0  0
 21 62  1  0  0  0  0
 22 63  1  0  0  0  0
 22 64  1  0  0  0  0
 23 24  1  0  0  0  0
 24 25  1  0  0  0  0
 24 66  1  0  0  0  0
 25 27  1  0  0  0  0
 25 28  1  0  0  0  0
 25 67  1  0  0  0  0
 26 29  1  0  0  0  0
 26 31  2  0  0  0  0
 27 69  1  0  0  0  0
 27 70  1  0  0  0  0
 27 71  1  0  0  0  0
 28 72  1  0  0  0  0
 28 73  1  0  0  0  0
 28 74  1  0  0  0  0
 29 32  2  0  0  0  0
 29 35  1  0  0  0  0
 30 34  1  0  0  0  0
 30 36  2  0  0  0  0
 31 33  1  0  0  0  0
 31 75  1  0  0  0  0
 32 38  1  0  0  0  0
 33 40  1  0  0  0  0
 34 37  2  0  0  0  0
 34 76  1  0  0  0  0
 35 39  2  0  0  0  0
 35 77  1  0  0  0  0
 36 41  1  0  0  0  0
 36 78  1  0  0  0  0
 37 43  1  0  0  0  0
 37 44  1  0  0  0  0
 38 42  2  0  0  0  0
 38 79  1  0  0  0  0
 39 42  1  0  0  0  0
 39 80  1  0  0  0  0
 40 45  2  0  0  0  0
 40 46  1  0  0  0  0
 41 43  2  0  0  0  0
 41 81  1  0  0  0  0
 43 82  1  0  0  0  0
 44 47  1  0  0  0  0
 44 83  1  0  0  0  0
 44 84  1  0  0  0  0
 45 48  1  0  0  0  0
 45 85  1  0  0  0  0
 46 49  2  0  0  0  0
 46 86  1  0  0  0  0
 47 87  1  0  0  0  0
 47 88  1  0  0  0  0
 48 50  2  0  0  0  0
 48 89  1  0  0  0  0
 49 50  1  0  0  0  0
 49 90  1  0  0  0  0
 50 91  1  0  0  0  0
 51 92  1  0  0  0  0
 51 93  1  0  0  0  0
 51 94  1  0  0  0  0
M  END
> <PUBCHEM_COMPOUND_CID>
500807
> <PUBCHEM_COMPOUND_CANONICALIZED>
1
> <PUBCHEM_CACTVS_COMPLEXITY>
1230
> <PUBCHEM_CACTVS_HBOND_ACCEPTOR>
9
> <PUBCHEM_CACTVS_HBOND_DONOR>
4
> <PUBCHEM_CACTVS_ROTATABLE_BOND>
14
> <PUBCHEM_CACTVS_SUBSKEYS>
AAADcfB/uAAAAAAAAAAAAAAAGAAAAWAAAAA8YMEAAAAAAACx9AAAHgAQCAAADbzhngYyzvPIFgCoAyXyXACCiCAhIiAImKG+bJgOdvLEsbuXeCjm1hnY6Ae68e8OIAAAQgACAABAAACEAAQAAAAAAAAAAA==
> <PUBCHEM_IUPAC_OPENEYE_NAME>
(2R)-1-[[(2S,4R)-1-[(2S)-2-[3-(2-hydroxyethyl)anilino]-3-methyl-butanoyl]-4-[(7-methoxy-2-phenyl-4-quinolyl)oxy]pyrrolidine-2-carbonyl]amino]-2-vinyl-cyclopropanecarboxylic acid
> <PUBCHEM_IUPAC_CAS_NAME>
(2R)-2-ethenyl-1-[[[(2S,4R)-1-[(2S)-2-[3-(2-hydroxyethyl)anilino]-3-methyl-1-oxobutyl]-4-[(7-methoxy-2-phenyl-4-quinolinyl)oxy]-2-pyrrolidinyl]-oxomethyl]amino]-1-cyclopropanecarboxylic acid
> <PUBCHEM_IUPAC_NAME_MARKUP>
(2<I>R</I>)-2-ethenyl-1-[[(2<I>S</I>,4<I>R</I>)-1-[(2<I>S</I>)-2-[3-(2-hydroxyethyl)anilino]-3-methylbutanoyl]-4-(7-methoxy-2-phenylquinolin-4-yl)oxypyrrolidine-2-carbonyl]amino]cyclopropane-1-carboxylic acid
> <PUBCHEM_IUPAC_NAME>
(2R)-2-ethenyl-1-[[(2S,4R)-1-[(2S)-2-[3-(2-hydroxyethyl)anilino]-3-methylbutanoyl]-4-(7-methoxy-2-phenylquinolin-4-yl)oxypyrrolidine-2-carbonyl]amino]cyclopropane-1-carboxylic acid
> <PUBCHEM_IUPAC_SYSTEMATIC_NAME>
(2R)-2-ethenyl-1-[[(2S,4R)-1-[(2S)-2-[[3-(2-hydroxyethyl)phenyl]amino]-3-methyl-butanoyl]-4-(7-methoxy-2-phenyl-quinolin-4-yl)oxy-pyrrolidin-2-yl]carbonylamino]cyclopropane-1-carboxylic acid
> <PUBCHEM_IUPAC_TRADITIONAL_NAME>
(2R)-1-[[(2S,4R)-1-[(2S)-2-[3-(2-hydroxyethyl)anilino]-3-methyl-butanoyl]-4-[(7-methoxy-2-phenyl-4-quinolyl)oxy]prolyl]amino]-2-vinyl-cyclopropanecarboxylic acid
> <PUBCHEM_IUPAC_INCHI>
InChI=1S/C40H44N4O7/c1-5-27-22-40(27,39(48)49)43-37(46)34-20-30(23-44(34)38(47)36(24(2)3)41-28-13-9-10-25(18-28)16-17-45)51-35-21-32(26-11-7-6-8-12-26)42-33-19-29(50-4)14-15-31(33)35/h5-15,18-19,21,24,27,30,34,36,41,45H,1,16-17,20,22-23H2,2-4H3,(H,43,46)(H,48,49)/t27-,30+,34-,36-,40?/m0/s1
> <PUBCHEM_IUPAC_INCHIKEY>
JZTKFTWGVMBCLE-IKDLUINMSA-N
> <PUBCHEM_XLOGP3_AA>
6
> <PUBCHEM_EXACT_MASS>
692.32099976
> <PUBCHEM_MOLECULAR_FORMULA>
C40H44N4O7
> <PUBCHEM_MOLECULAR_WEIGHT>
692.8
> <PUBCHEM_OPENEYE_CAN_SMILES>
CC(C)C(C(=O)N1CC(CC1C(=O)NC2(CC2C=C)C(=O)O)OC3=CC(=NC4=C3C=CC(=C4)OC)C5=CC=CC=C5)NC6=CC=CC(=C6)CCO
> <PUBCHEM_OPENEYE_ISO_SMILES>
CC(C)[C@@H](C(=O)N1C[C@@H](C[C@H]1C(=O)NC2(C[C@@H]2C=C)C(=O)O)OC3=CC(=NC4=C3C=CC(=C4)OC)C5=CC=CC=C5)NC6=CC=CC(=C6)CCO
> <PUBCHEM_CACTVS_TPSA>
150
> <PUBCHEM_MONOISOTOPIC_WEIGHT>
692.32099976
> <PUBCHEM_TOTAL_CHARGE>
0
> <PUBCHEM_HEAVY_ATOM_COUNT>
51
> <PUBCHEM_ATOM_DEF_STEREO_COUNT>
4
> <PUBCHEM_ATOM_UDEF_STEREO_COUNT>
1
> <PUBCHEM_BOND_DEF_STEREO_COUNT>
0
> <PUBCHEM_BOND_UDEF_STEREO_COUNT>
0
> <PUBCHEM_ISOTOPIC_ATOM_COUNT>
0
> <PUBCHEM_COMPONENT_COUNT>
1
> <PUBCHEM_CACTVS_TAUTO_COUNT>
-1
> <PUBCHEM_COORDINATE_TYPE>
1
5
255
> <PUBCHEM_BONDANNOTATIONS>
24  10  5
11  32  8
11  33  8
12  15  3
13  16  5
17  18  5
26  29  8
26  31  8
29  32  8
29  35  8
20  3  6
30  34  8
30  36  8
31  33  8
32  38  8
34  37  8
35  39  8
36  41  8
37  43  8
38  42  8
39  42  8
40  45  8
40  46  8
41  43  8
45  48  8
46  49  8
48  50  8
49  50  8
$$$$
