500857
  -OEChem-10302200282D
153160  0     1  0  0  0  0  0999 V2000
   10.9872    0.1991    0.0000 O   0  0  0  0  0  0  0  0  0  0  0  0
   12.7192    3.1991    0.0000 O   0  0  0  0  0  0  0  0  0  0  0  0
    3.3423   -1.9645    0.0000 O   0  0  0  0  0  0  0  0  0  0  0  0
    5.3153   -0.4442    0.0000 O   0  0  0  0  0  0  0  0  0  0  0  0
    3.7410   -0.1095    0.0000 O   0  0  0  0  0  0  0  0  0  0  0  0
    2.8900   -4.0925    0.0000 O   0  0  0  0  0  0  0  0  0  0  0  0
    5.7910   -2.8009    0.0000 O   0  0  0  0  0  0  0  0  0  0  0  0
    3.9727   -5.2949    0.0000 O   0  0  0  0  0  0  0  0  0  0  0  0
   11.8532   -1.3009    0.0000 O   0  0  0  0  0  0  0  0  0  0  0  0
   12.7192    2.1991    0.0000 O   0  0  0  0  0  0  0  0  0  0  0  0
    6.6570   -1.3009    0.0000 O   0  0  0  0  0  0  0  0  0  0  0  0
   16.1833    3.1991    0.0000 O   0  0  0  0  0  0  0  0  0  0  0  0
   15.3173   -0.0329    0.0000 O   0  0  0  0  0  0  0  0  0  0  0  0
   10.9872    2.1991    0.0000 N   0  0  3  0  0  0  0  0  0  0  0  0
   11.8532    4.6991    0.0000 N   0  0  0  0  0  0  0  0  0  0  0  0
   13.5852    0.6991    0.0000 N   0  0  0  0  0  0  0  0  0  0  0  0
    7.5231   -2.8009    0.0000 N   0  0  0  0  0  0  0  0  0  0  0  0
   15.3173    1.6991    0.0000 N   0  0  0  0  0  0  0  0  0  0  0  0
   15.3173    4.6991    0.0000 N   0  0  0  0  0  0  0  0  0  0  0  0
   17.3173   -0.0329    0.0000 N   0  0  0  0  0  0  0  0  0  0  0  0
    9.2551    3.1991    0.0000 C   0  0  3  0  0  0  0  0  0  0  0  0
    9.2551    2.1991    0.0000 C   0  0  3  0  0  0  0  0  0  0  0  0
   10.1211    3.6991    0.0000 C   0  0  0  0  0  0  0  0  0  0  0  0
   10.1211    1.6991    0.0000 C   0  0  0  0  0  0  0  0  0  0  0  0
    8.3612    3.7338    0.0000 C   0  0  0  0  0  0  0  0  0  0  0  0
    8.3612    1.6645    0.0000 C   0  0  0  0  0  0  0  0  0  0  0  0
   10.9872    3.1991    0.0000 C   0  0  1  0  0  0  0  0  0  0  0  0
    7.4551    3.2200    0.0000 C   0  0  0  0  0  0  0  0  0  0  0  0
    7.4551    2.1783    0.0000 C   0  0  0  0  0  0  0  0  0  0  0  0
   11.8532    1.6991    0.0000 C   0  0  0  0  0  0  0  0  0  0  0  0
   11.8532    3.6991    0.0000 C   0  0  0  0  0  0  0  0  0  0  0  0
   11.8532    0.6991    0.0000 C   0  0  2  0  0  0  0  0  0  0  0  0
   12.7192    0.1991    0.0000 C   0  0  2  0  0  0  0  0  0  0  0  0
   12.7192    5.1991    0.0000 C   0  0  0  0  0  0  0  0  0  0  0  0
   12.7192   -0.8009    0.0000 C   0  0  0  0  0  0  0  0  0  0  0  0
    4.8205   -1.3063    0.0000 C   0  0  1  0  0  0  0  0  0  0  0  0
    4.0114   -2.7076    0.0000 C   0  0  1  0  0  0  0  0  0  0  0  0
    4.9250   -2.3009    0.0000 C   0  0  2  0  0  0  0  0  0  0  0  0
    3.8423   -1.0984    0.0000 C   0  0  3  0  0  0  0  0  0  0  0  0
    3.8035   -3.6858    0.0000 C   0  0  3  0  0  0  0  0  0  0  0  0
    4.6495    0.2940    0.0000 C   0  0  0  0  0  0  0  0  0  0  0  0
   13.5852    5.6991    0.0000 C   0  0  0  0  0  0  0  0  0  0  0  0
   12.2192    6.0652    0.0000 C   0  0  0  0  0  0  0  0  0  0  0  0
   13.2192    4.3331    0.0000 C   0  0  0  0  0  0  0  0  0  0  0  0
    4.4727   -4.4289    0.0000 C   0  0  0  0  0  0  0  0  0  0  0  0
   13.5852   -1.3009    0.0000 C   0  0  0  0  0  0  0  0  0  0  0  0
   10.9872   -0.8009    0.0000 C   0  0  0  0  0  0  0  0  0  0  0  0
    2.9945   -5.0870    0.0000 C   0  0  0  0  0  0  0  0  0  0  0  0
   13.5852    1.6991    0.0000 C   0  0  0  0  0  0  0  0  0  0  0  0
    4.2427    1.2075    0.0000 C   0  0  0  0  0  0  0  0  0  0  0  0
    5.3926    0.9631    0.0000 C   0  0  0  0  0  0  0  0  0  0  0  0
   10.1211   -1.3009    0.0000 C   0  0  0  0  0  0  0  0  0  0  0  0
   14.4513    2.1991    0.0000 C   0  0  2  0  0  0  0  0  0  0  0  0
   13.5852   -2.3009    0.0000 C   0  0  0  0  0  0  0  0  0  0  0  0
   14.4513   -0.8009    0.0000 C   0  0  0  0  0  0  0  0  0  0  0  0
    2.0000   -5.1915    0.0000 C   0  0  0  0  0  0  0  0  0  0  0  0
    2.7866   -6.0652    0.0000 C   0  0  0  0  0  0  0  0  0  0  0  0
   10.1211   -2.3009    0.0000 C   0  0  0  0  0  0  0  0  0  0  0  0
    6.6570   -2.3009    0.0000 C   0  0  0  0  0  0  0  0  0  0  0  0
    9.2551   -2.8009    0.0000 C   0  0  0  0  0  0  0  0  0  0  0  0
   14.4513    3.1991    0.0000 C   0  0  0  0  0  0  0  0  0  0  0  0
    8.3891   -2.3009    0.0000 C   0  0  0  0  0  0  0  0  0  0  0  0
   14.4513   -2.8009    0.0000 C   0  0  0  0  0  0  0  0  0  0  0  0
   15.3173   -1.3009    0.0000 C   0  0  0  0  0  0  0  0  0  0  0  0
   15.3173   -2.3009    0.0000 C   0  0  0  0  0  0  0  0  0  0  0  0
   15.3173    3.6991    0.0000 C   0  0  0  0  0  0  0  0  0  0  0  0
   15.8174    0.8332    0.0000 C   0  0  0  0  0  0  0  0  0  0  0  0
   16.8173    0.8331    0.0000 C   0  0  0  0  0  0  0  0  0  0  0  0
   17.3173    1.6991    0.0000 C   0  0  0  0  0  0  0  0  0  0  0  0
   18.3173    1.6991    0.0000 C   0  0  0  0  0  0  0  0  0  0  0  0
   18.3173   -0.0329    0.0000 C   0  0  0  0  0  0  0  0  0  0  0  0
   18.8173    0.8331    0.0000 C   0  0  0  0  0  0  0  0  0  0  0  0
   18.8241   -0.9429    0.0000 C   0  0  0  0  0  0  0  0  0  0  0  0
   19.8588    0.8492    0.0000 C   0  0  0  0  0  0  0  0  0  0  0  0
   19.8657   -0.9509    0.0000 C   0  0  0  0  0  0  0  0  0  0  0  0
   20.3866   -0.0489    0.0000 C   0  0  0  0  0  0  0  0  0  0  0  0
    9.2599    3.8191    0.0000 H   0  0  0  0  0  0  0  0  0  0  0  0
    9.2599    1.5792    0.0000 H   0  0  0  0  0  0  0  0  0  0  0  0
   10.5197    4.1741    0.0000 H   0  0  0  0  0  0  0  0  0  0  0  0
    9.7226    4.1741    0.0000 H   0  0  0  0  0  0  0  0  0  0  0  0
    9.7226    1.2242    0.0000 H   0  0  0  0  0  0  0  0  0  0  0  0
   10.5197    1.2242    0.0000 H   0  0  0  0  0  0  0  0  0  0  0  0
    8.7658    4.2036    0.0000 H   0  0  0  0  0  0  0  0  0  0  0  0
    7.9676    4.2128    0.0000 H   0  0  0  0  0  0  0  0  0  0  0  0
    7.9676    1.1854    0.0000 H   0  0  0  0  0  0  0  0  0  0  0  0
    8.7658    1.1947    0.0000 H   0  0  0  0  0  0  0  0  0  0  0  0
   11.5241    2.8891    0.0000 H   0  0  0  0  0  0  0  0  0  0  0  0
    7.2461    3.8036    0.0000 H   0  0  0  0  0  0  0  0  0  0  0  0
    6.8443    3.1139    0.0000 H   0  0  0  0  0  0  0  0  0  0  0  0
    6.8443    2.2844    0.0000 H   0  0  0  0  0  0  0  0  0  0  0  0
    7.2461    1.5946    0.0000 H   0  0  0  0  0  0  0  0  0  0  0  0
   12.4638    1.5915    0.0000 H   0  0  0  0  0  0  0  0  0  0  0  0
   12.0653    2.2817    0.0000 H   0  0  0  0  0  0  0  0  0  0  0  0
   11.3163    1.0091    0.0000 H   0  0  0  0  0  0  0  0  0  0  0  0
   13.2562   -0.1109    0.0000 H   0  0  0  0  0  0  0  0  0  0  0  0
   11.3163    5.0091    0.0000 H   0  0  0  0  0  0  0  0  0  0  0  0
    5.6521   -1.4820    0.0000 H   0  0  0  0  0  0  0  0  0  0  0  0
    3.1904   -2.9276    0.0000 H   0  0  0  0  0  0  0  0  0  0  0  0
   12.1086   -0.6932    0.0000 H   0  0  0  0  0  0  0  0  0  0  0  0
   12.5072   -1.3835    0.0000 H   0  0  0  0  0  0  0  0  0  0  0  0
    5.4450   -1.9632    0.0000 H   0  0  0  0  0  0  0  0  0  0  0  0
    3.2360   -0.9687    0.0000 H   0  0  0  0  0  0  0  0  0  0  0  0
   14.1222    0.3891    0.0000 H   0  0  0  0  0  0  0  0  0  0  0  0
    3.3217   -3.2956    0.0000 H   0  0  0  0  0  0  0  0  0  0  0  0
   13.8953    5.1622    0.0000 H   0  0  0  0  0  0  0  0  0  0  0  0
   14.1222    6.0091    0.0000 H   0  0  0  0  0  0  0  0  0  0  0  0
   13.2752    6.2361    0.0000 H   0  0  0  0  0  0  0  0  0  0  0  0
   12.7562    6.3752    0.0000 H   0  0  0  0  0  0  0  0  0  0  0  0
   11.9092    6.6021    0.0000 H   0  0  0  0  0  0  0  0  0  0  0  0
   11.6823    5.7552    0.0000 H   0  0  0  0  0  0  0  0  0  0  0  0
   12.6823    4.0231    0.0000 H   0  0  0  0  0  0  0  0  0  0  0  0
   13.5292    3.7962    0.0000 H   0  0  0  0  0  0  0  0  0  0  0  0
   13.7562    4.6431    0.0000 H   0  0  0  0  0  0  0  0  0  0  0  0
    4.9743   -4.7933    0.0000 H   0  0  0  0  0  0  0  0  0  0  0  0
    4.8875   -3.9682    0.0000 H   0  0  0  0  0  0  0  0  0  0  0  0
    4.8091    1.4597    0.0000 H   0  0  0  0  0  0  0  0  0  0  0  0
    3.9906    1.7740    0.0000 H   0  0  0  0  0  0  0  0  0  0  0  0
    3.6763    0.9554    0.0000 H   0  0  0  0  0  0  0  0  0  0  0  0
    5.8075    0.5024    0.0000 H   0  0  0  0  0  0  0  0  0  0  0  0
    5.8534    1.3780    0.0000 H   0  0  0  0  0  0  0  0  0  0  0  0
    4.9778    1.4239    0.0000 H   0  0  0  0  0  0  0  0  0  0  0  0
    9.9091   -0.7183    0.0000 H   0  0  0  0  0  0  0  0  0  0  0  0
    9.5106   -1.4085    0.0000 H   0  0  0  0  0  0  0  0  0  0  0  0
   14.9882    2.5091    0.0000 H   0  0  0  0  0  0  0  0  0  0  0  0
    1.9352   -4.5749    0.0000 H   0  0  0  0  0  0  0  0  0  0  0  0
    1.3834   -5.2564    0.0000 H   0  0  0  0  0  0  0  0  0  0  0  0
    2.0648   -5.8081    0.0000 H   0  0  0  0  0  0  0  0  0  0  0  0
    2.1802   -5.9362    0.0000 H   0  0  0  0  0  0  0  0  0  0  0  0
    2.6577   -6.6716    0.0000 H   0  0  0  0  0  0  0  0  0  0  0  0
    3.3931   -6.1941    0.0000 H   0  0  0  0  0  0  0  0  0  0  0  0
   13.0483   -2.6109    0.0000 H   0  0  0  0  0  0  0  0  0  0  0  0
   14.4513   -0.1809    0.0000 H   0  0  0  0  0  0  0  0  0  0  0  0
   10.3332   -2.8835    0.0000 H   0  0  0  0  0  0  0  0  0  0  0  0
   10.7317   -2.1932    0.0000 H   0  0  0  0  0  0  0  0  0  0  0  0
    8.8566   -3.2758    0.0000 H   0  0  0  0  0  0  0  0  0  0  0  0
    9.6537   -3.2758    0.0000 H   0  0  0  0  0  0  0  0  0  0  0  0
   14.2392    3.7817    0.0000 H   0  0  0  0  0  0  0  0  0  0  0  0
   13.8407    3.0915    0.0000 H   0  0  0  0  0  0  0  0  0  0  0  0
    8.7876   -1.8259    0.0000 H   0  0  0  0  0  0  0  0  0  0  0  0
    7.9906   -1.8259    0.0000 H   0  0  0  0  0  0  0  0  0  0  0  0
    7.5231   -3.4209    0.0000 H   0  0  0  0  0  0  0  0  0  0  0  0
   14.4513   -3.4209    0.0000 H   0  0  0  0  0  0  0  0  0  0  0  0
   15.8542   -0.9909    0.0000 H   0  0  0  0  0  0  0  0  0  0  0  0
   15.8542    2.0091    0.0000 H   0  0  0  0  0  0  0  0  0  0  0  0
   15.8542   -2.6109    0.0000 H   0  0  0  0  0  0  0  0  0  0  0  0
   15.8542    5.0091    0.0000 H   0  0  0  0  0  0  0  0  0  0  0  0
   14.7804    5.0091    0.0000 H   0  0  0  0  0  0  0  0  0  0  0  0
   17.0073    2.2361    0.0000 H   0  0  0  0  0  0  0  0  0  0  0  0
   18.6273    2.2361    0.0000 H   0  0  0  0  0  0  0  0  0  0  0  0
   18.5080   -1.4762    0.0000 H   0  0  0  0  0  0  0  0  0  0  0  0
   20.1626    1.3896    0.0000 H   0  0  0  0  0  0  0  0  0  0  0  0
   20.1737   -1.4891    0.0000 H   0  0  0  0  0  0  0  0  0  0  0  0
   21.0066   -0.0465    0.0000 H   0  0  0  0  0  0  0  0  0  0  0  0
 32  1  1  6  0  0  0
  1 47  1  0  0  0  0
  2 31  2  0  0  0  0
  3 37  1  0  0  0  0
  3 39  1  0  0  0  0
  4 36  1  0  0  0  0
  4 41  1  0  0  0  0
  5 39  1  0  0  0  0
  5 41  1  0  0  0  0
  6 40  1  0  0  0  0
  6 48  1  0  0  0  0
 38  7  1  1  0  0  0
  7 59  1  0  0  0  0
  8 45  1  0  0  0  0
  8 48  1  0  0  0  0
  9 47  2  0  0  0  0
 10 49  2  0  0  0  0
 11 59  2  0  0  0  0
 12 66  2  0  0  0  0
 13 67  2  0  0  0  0
 14 24  1  0  0  0  0
 14 27  1  0  0  0  0
 14 30  1  0  0  0  0
 15 31  1  0  0  0  0
 15 34  1  0  0  0  0
 15 96  1  0  0  0  0
 33 16  1  1  0  0  0
 16 49  1  0  0  0  0
 16103  1  0  0  0  0
 17 59  1  0  0  0  0
 17 62  1  0  0  0  0
 17141  1  0  0  0  0
 53 18  1  6  0  0  0
 18 67  1  0  0  0  0
 18144  1  0  0  0  0
 19 66  1  0  0  0  0
 19146  1  0  0  0  0
 19147  1  0  0  0  0
 20 68  2  0  0  0  0
 20 71  1  0  0  0  0
 21 22  1  0  0  0  0
 21 23  1  0  0  0  0
 21 25  1  0  0  0  0
 21 77  1  0  0  0  0
 22 24  1  0  0  0  0
 22 26  1  0  0  0  0
 22 78  1  0  0  0  0
 23 27  1  0  0  0  0
 23 79  1  0  0  0  0
 23 80  1  0  0  0  0
 24 81  1  0  0  0  0
 24 82  1  0  0  0  0
 25 28  1  0  0  0  0
 25 83  1  0  0  0  0
 25 84  1  0  0  0  0
 26 29  1  0  0  0  0
 26 85  1  0  0  0  0
 26 86  1  0  0  0  0
 27 31  1  1  0  0  0
 27 87  1  0  0  0  0
 28 29  1  0  0  0  0
 28 88  1  0  0  0  0
 28 89  1  0  0  0  0
 29 90  1  0  0  0  0
 29 91  1  0  0  0  0
 30 32  1  0  0  0  0
 30 92  1  0  0  0  0
 30 93  1  0  0  0  0
 32 33  1  0  0  0  0
 32 94  1  0  0  0  0
 33 35  1  0  0  0  0
 33 95  1  0  0  0  0
 34 42  1  0  0  0  0
 34 43  1  0  0  0  0
 34 44  1  0  0  0  0
 35 46  1  0  0  0  0
 35 99  1  0  0  0  0
 35100  1  0  0  0  0
 36 38  1  0  0  0  0
 36 39  1  0  0  0  0
 36 97  1  6  0  0  0
 37 38  1  0  0  0  0
 37 40  1  0  0  0  0
 37 98  1  6  0  0  0
 38101  1  0  0  0  0
 39102  1  0  0  0  0
 40 45  1  0  0  0  0
 40104  1  0  0  0  0
 41 50  1  0  0  0  0
 41 51  1  0  0  0  0
 42105  1  0  0  0  0
 42106  1  0  0  0  0
 42107  1  0  0  0  0
 43108  1  0  0  0  0
 43109  1  0  0  0  0
 43110  1  0  0  0  0
 44111  1  0  0  0  0
 44112  1  0  0  0  0
 44113  1  0  0  0  0
 45114  1  0  0  0  0
 45115  1  0  0  0  0
 46 54  2  0  0  0  0
 46 55  1  0  0  0  0
 47 52  1  0  0  0  0
 48 56  1  0  0  0  0
 48 57  1  0  0  0  0
 49 53  1  0  0  0  0
 50116  1  0  0  0  0
 50117  1  0  0  0  0
 50118  1  0  0  0  0
 51119  1  0  0  0  0
 51120  1  0  0  0  0
 51121  1  0  0  0  0
 52 58  1  0  0  0  0
 52122  1  0  0  0  0
 52123  1  0  0  0  0
 53 61  1  0  0  0  0
 53124  1  0  0  0  0
 54 63  1  0  0  0  0
 54131  1  0  0  0  0
 55 64  2  0  0  0  0
 55132  1  0  0  0  0
 56125  1  0  0  0  0
 56126  1  0  0  0  0
 56127  1  0  0  0  0
 57128  1  0  0  0  0
 57129  1  0  0  0  0
 57130  1  0  0  0  0
 58 60  1  0  0  0  0
 58133  1  0  0  0  0
 58134  1  0  0  0  0
 60 62  1  0  0  0  0
 60135  1  0  0  0  0
 60136  1  0  0  0  0
 61 66  1  0  0  0  0
 61137  1  0  0  0  0
 61138  1  0  0  0  0
 62139  1  0  0  0  0
 62140  1  0  0  0  0
 63 65  2  0  0  0  0
 63142  1  0  0  0  0
 64 65  1  0  0  0  0
 64143  1  0  0  0  0
 65145  1  0  0  0  0
 67 68  1  0  0  0  0
 68 69  1  0  0  0  0
 69 70  2  0  0  0  0
 69148  1  0  0  0  0
 70 72  1  0  0  0  0
 70149  1  0  0  0  0
 71 72  1  0  0  0  0
 71 73  2  0  0  0  0
 72 74  2  0  0  0  0
 73 75  1  0  0  0  0
 73150  1  0  0  0  0
 74 76  1  0  0  0  0
 74151  1  0  0  0  0
 75 76  2  0  0  0  0
 75152  1  0  0  0  0
 76153  1  0  0  0  0
M  END
> <PUBCHEM_COMPOUND_CID>
500857
> <PUBCHEM_COMPOUND_CANONICALIZED>
1
> <PUBCHEM_CACTVS_COMPLEXITY>
2010
> <PUBCHEM_CACTVS_HBOND_ACCEPTOR>
15
> <PUBCHEM_CACTVS_HBOND_DONOR>
5
> <PUBCHEM_CACTVS_ROTATABLE_BOND>
23
> <PUBCHEM_CACTVS_SUBSKEYS>
AAADcfB/vAAAAAAAAAAAAAAAAAAAASJEgAA8eMECAAASAACx9AAAHgAQAAAADbzxngcyyPPIFACoAyXyXACCgCAnAiAImKG4ZNkbYPrA1bG/IQhllgDeyYfd+a6OgAAAAAACAAAAAAAAACQAAAAAAAAAAA==
> <PUBCHEM_IUPAC_OPENEYE_NAME>
[(1R,2S)-2-[[(2S)-4-amino-4-oxo-2-(quinoline-2-carbonylamino)butanoyl]amino]-1-[[(3S)-3-(tert-butylcarbamoyl)-3,4,4a,5,6,7,8,8a-octahydro-1H-isoquinolin-2-yl]methyl]-3-phenyl-propyl] 5-[[(5R,6S,6aS)-5-(2,2-dimethyl-1,3-dioxolan-4-yl)-2,2-dimethyl-3a,5,6,6a-tetrahydrofuro[2,3-d][1,3]dioxol-6-yl]oxycarbonylamino]pentanoate
> <PUBCHEM_IUPAC_CAS_NAME>
5-[[[(5R,6S,6aS)-5-(2,2-dimethyl-1,3-dioxolan-4-yl)-2,2-dimethyl-3a,5,6,6a-tetrahydrofuro[2,3-d][1,3]dioxol-6-yl]oxy-oxomethyl]amino]pentanoic acid [(2R,3S)-3-[[(2S)-4-amino-1,4-dioxo-2-[[oxo(2-quinolinyl)methyl]amino]butyl]amino]-1-[(3S)-3-[(tert-butylamino)-oxomethyl]-3,4,4a,5,6,7,8,8a-octahydro-1H-isoquinolin-2-yl]-4-phenylbutan-2-yl] ester
> <PUBCHEM_IUPAC_NAME_MARKUP>
[(2<I>R</I>,3<I>S</I>)-3-[[(2<I>S</I>)-4-amino-4-oxo-2-(quinoline-2-carbonylamino)butanoyl]amino]-1-[(3<I>S</I>)-3-(<I>tert</I>-butylcarbamoyl)-3,4,4<I>a</I>,5,6,7,8,8<I>a</I>-octahydro-1<I>H</I>-isoquinolin-2-yl]-4-phenylbutan-2-yl] 5-[[(5<I>R</I>,6<I>S</I>,6<I>a</I><I>S</I>)-5-(2,2-dimethyl-1,3-dioxolan-4-yl)-2,2-dimethyl-3<I>a</I>,5,6,6<I>a</I>-tetrahydrofuro[2,3-d][1,3]dioxol-6-yl]oxycarbonylamino]pentanoate
> <PUBCHEM_IUPAC_NAME>
[(2R,3S)-3-[[(2S)-4-amino-4-oxo-2-(quinoline-2-carbonylamino)butanoyl]amino]-1-[(3S)-3-(tert-butylcarbamoyl)-3,4,4a,5,6,7,8,8a-octahydro-1H-isoquinolin-2-yl]-4-phenylbutan-2-yl] 5-[[(5R,6S,6aS)-5-(2,2-dimethyl-1,3-dioxolan-4-yl)-2,2-dimethyl-3a,5,6,6a-tetrahydrofuro[2,3-d][1,3]dioxol-6-yl]oxycarbonylamino]pentanoate
> <PUBCHEM_IUPAC_SYSTEMATIC_NAME>
[(2R,3S)-3-[[(2S)-4-azanyl-4-oxidanylidene-2-(quinolin-2-ylcarbonylamino)butanoyl]amino]-1-[(3S)-3-(tert-butylcarbamoyl)-3,4,4a,5,6,7,8,8a-octahydro-1H-isoquinolin-2-yl]-4-phenyl-butan-2-yl] 5-[[(5R,6S,6aS)-5-(2,2-dimethyl-1,3-dioxolan-4-yl)-2,2-dimethyl-3a,5,6,6a-tetrahydrofuro[2,3-d][1,3]dioxol-6-yl]oxycarbonylamino]pentanoate
> <PUBCHEM_IUPAC_TRADITIONAL_NAME>
5-[[(5R,6S,6aS)-5-(2,2-dimethyl-1,3-dioxolan-4-yl)-2,2-dimethyl-3a,5,6,6a-tetrahydrofuro[2,3-d][1,3]dioxol-6-yl]oxycarbonylamino]valeric acid [(1R,2S)-2-[[(2S)-4-amino-4-keto-2-(quinaldoylamino)butanoyl]amino]-1-[[(3S)-3-(tert-butylcarbamoyl)-3,4,4a,5,6,7,8,8a-octahydro-1H-isoquinolin-2-yl]methyl]-3-phenyl-propyl] ester
> <PUBCHEM_IUPAC_INCHI>
InChI=1S/C56H77N7O13/c1-54(2,3)62-51(68)41-28-35-20-11-12-21-36(35)30-63(41)31-42(71-45(65)23-15-16-26-58-53(69)73-47-46(43-32-70-55(4,5)74-43)72-52-48(47)75-56(6,7)76-52)39(27-33-17-9-8-10-18-33)60-50(67)40(29-44(57)64)61-49(66)38-25-24-34-19-13-14-22-37(34)59-38/h8-10,13-14,17-19,22,24-25,35-36,39-43,46-48,52H,11-12,15-16,20-21,23,26-32H2,1-7H3,(H2,57,64)(H,58,69)(H,60,67)(H,61,66)(H,62,68)/t35?,36?,39-,40-,41-,42+,43?,46+,47-,48-,52?/m0/s1
> <PUBCHEM_IUPAC_INCHIKEY>
GPAPUOBZTAVWNJ-HAEDDVJHSA-N
> <PUBCHEM_XLOGP3_AA>
5.6
> <PUBCHEM_EXACT_MASS>
1055.55793554
> <PUBCHEM_MOLECULAR_FORMULA>
C56H77N7O13
> <PUBCHEM_MOLECULAR_WEIGHT>
1056.2
> <PUBCHEM_OPENEYE_CAN_SMILES>
CC1(OCC(O1)C2C(C3C(O2)OC(O3)(C)C)OC(=O)NCCCCC(=O)OC(CN4CC5CCCCC5CC4C(=O)NC(C)(C)C)C(CC6=CC=CC=C6)NC(=O)C(CC(=O)N)NC(=O)C7=NC8=CC=CC=C8C=C7)C
> <PUBCHEM_OPENEYE_ISO_SMILES>
CC1(OCC(O1)[C@@H]2[C@@H]([C@H]3C(O2)OC(O3)(C)C)OC(=O)NCCCCC(=O)O[C@H](CN4CC5CCCCC5C[C@H]4C(=O)NC(C)(C)C)[C@H](CC6=CC=CC=C6)NC(=O)[C@H](CC(=O)N)NC(=O)C7=NC8=CC=CC=C8C=C7)C
> <PUBCHEM_CACTVS_TPSA>
257
> <PUBCHEM_MONOISOTOPIC_WEIGHT>
1055.55793554
> <PUBCHEM_TOTAL_CHARGE>
0
> <PUBCHEM_HEAVY_ATOM_COUNT>
76
> <PUBCHEM_ATOM_DEF_STEREO_COUNT>
7
> <PUBCHEM_ATOM_UDEF_STEREO_COUNT>
4
> <PUBCHEM_BOND_DEF_STEREO_COUNT>
0
> <PUBCHEM_BOND_UDEF_STEREO_COUNT>
0
> <PUBCHEM_ISOTOPIC_ATOM_COUNT>
0
> <PUBCHEM_COMPONENT_COUNT>
1
> <PUBCHEM_CACTVS_TAUTO_COUNT>
-1
> <PUBCHEM_COORDINATE_TYPE>
1
5
255
> <PUBCHEM_BONDANNOTATIONS>
32  1  6
33  16  5
53  18  6
20  68  8
20  71  8
21  25  3
22  26  3
27  31  5
39  3  3
36  97  6
37  98  6
40  45  3
46  54  8
46  55  8
54  63  8
55  64  8
63  65  8
64  65  8
68  69  8
69  70  8
38  7  5
70  72  8
71  72  8
71  73  8
72  74  8
73  75  8
74  76  8
75  76  8
$$$$
