500882
  -OEChem-10302200282D
 46 47  0     1  0  0  0  0  0999 V2000
    2.5000    2.5272    0.0000 O   0  0  0  0  0  0  0  0  0  0  0  0
    7.5301   -0.3629    0.0000 O   0  0  0  0  0  0  0  0  0  0  0  0
    4.0000    3.3933    0.0000 O   0  0  0  0  0  0  0  0  0  0  0  0
    6.5970   -2.8833    0.0000 O   0  0  0  0  0  0  0  0  0  0  0  0
    7.4803   -1.3934    0.0000 O   0  0  0  0  0  0  0  0  0  0  0  0
    4.8660    0.1612    0.0000 C   0  0  2  0  0  0  0  0  0  0  0  0
    4.8660    1.1612    0.0000 C   0  0  2  0  0  0  0  0  0  0  0  0
    4.0000    1.6612    0.0000 C   0  0  1  0  0  0  0  0  0  0  0  0
    4.0000   -0.3388    0.0000 C   0  0  0  0  0  0  0  0  0  0  0  0
    5.7600   -0.3734    0.0000 C   0  0  2  0  0  0  0  0  0  0  0  0
    3.1340    1.1612    0.0000 C   0  0  0  0  0  0  0  0  0  0  0  0
    3.1340    0.1612    0.0000 C   0  0  0  0  0  0  0  0  0  0  0  0
    4.8660   -0.8388    0.0000 C   0  0  0  0  0  0  0  0  0  0  0  0
    5.7600    1.6959    0.0000 C   0  0  0  0  0  0  0  0  0  0  0  0
    4.5000    2.5272    0.0000 C   0  0  0  0  0  0  0  0  0  0  0  0
    6.6660    0.1404    0.0000 C   0  0  0  0  0  0  0  0  0  0  0  0
    5.7484   -1.3734    0.0000 C   0  0  0  0  0  0  0  0  0  0  0  0
    3.5000    2.5272    0.0000 C   0  0  0  0  0  0  0  0  0  0  0  0
    6.6660    1.1820    0.0000 C   0  0  0  0  0  0  0  0  0  0  0  0
    6.6086   -1.8834    0.0000 C   0  0  0  0  0  0  0  0  0  0  0  0
    2.0000    3.3933    0.0000 C   0  0  0  0  0  0  0  0  0  0  0  0
    7.4572   -3.3933    0.0000 C   0  0  0  0  0  0  0  0  0  0  0  0
    4.8595    2.0112    0.0000 H   0  0  0  0  0  0  0  0  0  0  0  0
    3.6015   -0.8137    0.0000 H   0  0  0  0  0  0  0  0  0  0  0  0
    4.3985   -0.8137    0.0000 H   0  0  0  0  0  0  0  0  0  0  0  0
    6.2939   -0.6886    0.0000 H   0  0  0  0  0  0  0  0  0  0  0  0
    2.9219    1.7438    0.0000 H   0  0  0  0  0  0  0  0  0  0  0  0
    2.5234    1.0536    0.0000 H   0  0  0  0  0  0  0  0  0  0  0  0
    2.5234    0.2689    0.0000 H   0  0  0  0  0  0  0  0  0  0  0  0
    2.9219   -0.4214    0.0000 H   0  0  0  0  0  0  0  0  0  0  0  0
    4.2460   -0.8388    0.0000 H   0  0  0  0  0  0  0  0  0  0  0  0
    4.8660   -1.4588    0.0000 H   0  0  0  0  0  0  0  0  0  0  0  0
    5.4860   -0.8388    0.0000 H   0  0  0  0  0  0  0  0  0  0  0  0
    5.7528    2.3158    0.0000 H   0  0  0  0  0  0  0  0  0  0  0  0
    5.0369    2.2172    0.0000 H   0  0  0  0  0  0  0  0  0  0  0  0
    4.8100    3.0642    0.0000 H   0  0  0  0  0  0  0  0  0  0  0  0
    3.9631    2.8372    0.0000 H   0  0  0  0  0  0  0  0  0  0  0  0
    5.1391   -1.2587    0.0000 H   0  0  0  0  0  0  0  0  0  0  0  0
    5.5296   -1.9535    0.0000 H   0  0  0  0  0  0  0  0  0  0  0  0
    7.2018    1.4941    0.0000 H   0  0  0  0  0  0  0  0  0  0  0  0
    2.5369    3.7033    0.0000 H   0  0  0  0  0  0  0  0  0  0  0  0
    1.6900    3.9302    0.0000 H   0  0  0  0  0  0  0  0  0  0  0  0
    1.4631    3.0833    0.0000 H   0  0  0  0  0  0  0  0  0  0  0  0
    7.1410   -3.9266    0.0000 H   0  0  0  0  0  0  0  0  0  0  0  0
    7.9905   -3.7095    0.0000 H   0  0  0  0  0  0  0  0  0  0  0  0
    7.7734   -2.8600    0.0000 H   0  0  0  0  0  0  0  0  0  0  0  0
  1 18  1  0  0  0  0
  1 21  1  0  0  0  0
  2 16  2  0  0  0  0
  3 18  2  0  0  0  0
  4 20  1  0  0  0  0
  4 22  1  0  0  0  0
  5 20  2  0  0  0  0
  6  7  1  0  0  0  0
  6  9  1  0  0  0  0
  6 10  1  0  0  0  0
  6 13  1  6  0  0  0
  7  8  1  0  0  0  0
  7 14  1  0  0  0  0
  7 23  1  1  0  0  0
  8 11  1  0  0  0  0
  8 15  1  1  0  0  0
  8 18  1  0  0  0  0
  9 12  1  0  0  0  0
  9 24  1  0  0  0  0
  9 25  1  0  0  0  0
 10 16  1  0  0  0  0
 10 17  1  6  0  0  0
 10 26  1  0  0  0  0
 11 12  1  0  0  0  0
 11 27  1  0  0  0  0
 11 28  1  0  0  0  0
 12 29  1  0  0  0  0
 12 30  1  0  0  0  0
 13 31  1  0  0  0  0
 13 32  1  0  0  0  0
 13 33  1  0  0  0  0
 14 19  2  0  0  0  0
 14 34  1  0  0  0  0
 15 35  1  0  0  0  0
 15 36  1  0  0  0  0
 15 37  1  0  0  0  0
 16 19  1  0  0  0  0
 17 20  1  0  0  0  0
 17 38  1  0  0  0  0
 17 39  1  0  0  0  0
 19 40  1  0  0  0  0
 21 41  1  0  0  0  0
 21 42  1  0  0  0  0
 21 43  1  0  0  0  0
 22 44  1  0  0  0  0
 22 45  1  0  0  0  0
 22 46  1  0  0  0  0
M  END
> <PUBCHEM_COMPOUND_CID>
500882
> <PUBCHEM_COMPOUND_CANONICALIZED>
1
> <PUBCHEM_CACTVS_COMPLEXITY>
523
> <PUBCHEM_CACTVS_HBOND_ACCEPTOR>
5
> <PUBCHEM_CACTVS_HBOND_DONOR>
0
> <PUBCHEM_CACTVS_ROTATABLE_BOND>
5
> <PUBCHEM_CACTVS_SUBSKEYS>
AAADceB4OAAAAAAAAAAAAAAAAAAAAAAAAAAwQAAAAAAAAACAAAAAGgAAAAAADwSAgAICCAAABACIAKDSCAAAAAAgAAAICAEAAEgAABIAAQAAAAAEgAAIAYOLyPCPgAAAAAAAAAAAAAQAACAAAAAAAAAAAA==
> <PUBCHEM_IUPAC_OPENEYE_NAME>
methyl (1S,4aS,5R,8aR)-5-(2-methoxy-2-oxo-ethyl)-1,4a-dimethyl-6-oxo-3,4,5,8a-tetrahydro-2H-naphthalene-1-carboxylate
> <PUBCHEM_IUPAC_CAS_NAME>
(1S,4aS,5R,8aR)-5-(2-methoxy-2-oxoethyl)-1,4a-dimethyl-6-oxo-3,4,5,8a-tetrahydro-2H-naphthalene-1-carboxylic acid methyl ester
> <PUBCHEM_IUPAC_NAME_MARKUP>
methyl (1<I>S</I>,4<I>a</I><I>S</I>,5<I>R</I>,8<I>a</I><I>R</I>)-5-(2-methoxy-2-oxoethyl)-1,4<I>a</I>-dimethyl-6-oxo-3,4,5,8<I>a</I>-tetrahydro-2<I>H</I>-naphthalene-1-carboxylate
> <PUBCHEM_IUPAC_NAME>
methyl (1S,4aS,5R,8aR)-5-(2-methoxy-2-oxoethyl)-1,4a-dimethyl-6-oxo-3,4,5,8a-tetrahydro-2H-naphthalene-1-carboxylate
> <PUBCHEM_IUPAC_SYSTEMATIC_NAME>
methyl (1S,4aS,5R,8aR)-5-(2-methoxy-2-oxidanylidene-ethyl)-1,4a-dimethyl-6-oxidanylidene-3,4,5,8a-tetrahydro-2H-naphthalene-1-carboxylate
> <PUBCHEM_IUPAC_TRADITIONAL_NAME>
(1S,4aS,5R,8aR)-6-keto-5-(2-keto-2-methoxy-ethyl)-1,4a-dimethyl-3,4,5,8a-tetrahydro-2H-naphthalene-1-carboxylic acid methyl ester
> <PUBCHEM_IUPAC_INCHI>
InChI=1S/C17H24O5/c1-16-8-5-9-17(2,15(20)22-4)13(16)7-6-12(18)11(16)10-14(19)21-3/h6-7,11,13H,5,8-10H2,1-4H3/t11-,13+,16+,17-/m0/s1
> <PUBCHEM_IUPAC_INCHIKEY>
MCDOLXWSXGKCKB-AADNMHCOSA-N
> <PUBCHEM_XLOGP3_AA>
2.3
> <PUBCHEM_EXACT_MASS>
308.16237386
> <PUBCHEM_MOLECULAR_FORMULA>
C17H24O5
> <PUBCHEM_MOLECULAR_WEIGHT>
308.4
> <PUBCHEM_OPENEYE_CAN_SMILES>
CC12CCCC(C1C=CC(=O)C2CC(=O)OC)(C)C(=O)OC
> <PUBCHEM_OPENEYE_ISO_SMILES>
C[C@]12CCC[C@]([C@@H]1C=CC(=O)[C@@H]2CC(=O)OC)(C)C(=O)OC
> <PUBCHEM_CACTVS_TPSA>
69.7
> <PUBCHEM_MONOISOTOPIC_WEIGHT>
308.16237386
> <PUBCHEM_TOTAL_CHARGE>
0
> <PUBCHEM_HEAVY_ATOM_COUNT>
22
> <PUBCHEM_ATOM_DEF_STEREO_COUNT>
4
> <PUBCHEM_ATOM_UDEF_STEREO_COUNT>
0
> <PUBCHEM_BOND_DEF_STEREO_COUNT>
0
> <PUBCHEM_BOND_UDEF_STEREO_COUNT>
0
> <PUBCHEM_ISOTOPIC_ATOM_COUNT>
0
> <PUBCHEM_COMPONENT_COUNT>
1
> <PUBCHEM_CACTVS_TAUTO_COUNT>
-1
> <PUBCHEM_COORDINATE_TYPE>
1
5
255
> <PUBCHEM_BONDANNOTATIONS>
10  17  6
6  13  6
7  23  5
8  15  5
$$$$
