500861
  -OEChem-10302200282D
162167  0     1  0  0  0  0  0999 V2000
   14.7922    7.6214    0.0000 F   0  0  0  0  0  0  0  0  0  0  0  0
   14.4262    6.2553    0.0000 F   0  0  0  0  0  0  0  0  0  0  0  0
   15.7922    5.8893    0.0000 F   0  0  0  0  0  0  0  0  0  0  0  0
   14.7922   11.9864    0.0000 F   0  0  0  0  0  0  0  0  0  0  0  0
   14.4262   10.6203    0.0000 F   0  0  0  0  0  0  0  0  0  0  0  0
   15.7922   10.2543    0.0000 F   0  0  0  0  0  0  0  0  0  0  0  0
    8.9029    2.5957    0.0000 O   0  0  0  0  0  0  0  0  0  0  0  0
    9.9836    4.8397    0.0000 O   0  0  0  0  0  0  0  0  0  0  0  0
   10.6357    3.3683    0.0000 O   0  0  0  0  0  0  0  0  0  0  0  0
    6.9138    1.7142    0.0000 O   0  0  0  0  0  0  0  0  0  0  0  0
    7.5794    4.8192    0.0000 O   0  0  0  0  0  0  0  0  0  0  0  0
    5.5140    2.5257    0.0000 O   0  0  0  0  0  0  0  0  0  0  0  0
    8.8686    5.9760    0.0000 O   0  0  0  0  0  0  0  0  0  0  0  0
    6.1507   11.5985    0.0000 O   0  0  0  0  0  0  0  0  0  0  0  0
    9.0862   12.2172    0.0000 O   0  0  0  0  0  0  0  0  0  0  0  0
    4.7988   10.1752    0.0000 O   0  0  0  0  0  0  0  0  0  0  0  0
    5.1722   11.3923    0.0000 O   0  0  0  0  0  0  0  0  0  0  0  0
    7.7971   11.0605    0.0000 O   0  0  0  0  0  0  0  0  0  0  0  0
   17.0243    6.7553    0.0000 O   0  0  0  0  0  0  0  0  0  0  0  0
   17.0243   11.1203    0.0000 O   0  0  0  0  0  0  0  0  0  0  0  0
   16.1582    8.2553    0.0000 O   0  0  0  0  0  0  0  0  0  0  0  0
   16.1582   12.6203    0.0000 O   0  0  0  0  0  0  0  0  0  0  0  0
    7.7506   13.7058    0.0000 N   0  0  3  0  0  0  0  0  0  0  0  0
    7.2223    6.5141    0.0000 N   0  0  0  0  0  0  0  0  0  0  0  0
    8.3719   15.6068    0.0000 N   0  0  3  0  0  0  0  0  0  0  0  0
    3.5259   11.9304    0.0000 N   0  0  0  0  0  0  0  0  0  0  0  0
   10.3754   13.3739    0.0000 N   0  0  0  0  0  0  0  0  0  0  0  0
   11.3074   16.2255    0.0000 N   0  0  0  0  0  0  0  0  0  0  0  0
    9.2420    4.1778    0.0000 C   0  0  1  0  0  0  0  0  0  0  0  0
    8.0377    3.0972    0.0000 C   0  0  1  0  0  0  0  0  0  0  0  0
    8.2473    4.0750    0.0000 C   0  0  2  0  0  0  0  0  0  0  0  0
    9.6472    3.2635    0.0000 C   0  0  3  0  0  0  0  0  0  0  0  0
    7.1234    2.6920    0.0000 C   0  0  3  0  0  0  0  0  0  0  0  0
   10.8432    4.3404    0.0000 C   0  0  0  0  0  0  0  0  0  0  0  0
    6.2583    3.1935    0.0000 C   0  0  0  0  0  0  0  0  0  0  0  0
    5.9191    1.6114    0.0000 C   0  0  0  0  0  0  0  0  0  0  0  0
   11.8210    4.1308    0.0000 C   0  0  0  0  0  0  0  0  0  0  0  0
   11.3447    5.2056    0.0000 C   0  0  0  0  0  0  0  0  0  0  0  0
    6.0219    0.6167    0.0000 C   0  0  0  0  0  0  0  0  0  0  0  0
    5.0049    1.2063    0.0000 C   0  0  0  0  0  0  0  0  0  0  0  0
    7.8901    5.7698    0.0000 C   0  0  0  0  0  0  0  0  0  0  0  0
    8.7291   13.9120    0.0000 C   0  0  1  0  0  0  0  0  0  0  0  0
    7.4399   12.7553    0.0000 C   0  0  0  0  0  0  0  0  0  0  0  0
    9.0397   14.8625    0.0000 C   0  0  0  0  0  0  0  0  0  0  0  0
    7.0827   14.4501    0.0000 C   0  0  0  0  0  0  0  0  0  0  0  0
    6.4614   12.5491    0.0000 C   0  0  2  0  0  0  0  0  0  0  0  0
    7.3934   15.4006    0.0000 C   0  0  0  0  0  0  0  0  0  0  0  0
    5.7935   13.2934    0.0000 C   0  0  0  0  0  0  0  0  0  0  0  0
    4.8150   13.0871    0.0000 C   0  0  2  0  0  0  0  0  0  0  0  0
    7.5329    7.4646    0.0000 C   0  0  0  0  0  0  0  0  0  0  0  0
    9.3969   13.1677    0.0000 C   0  0  0  0  0  0  0  0  0  0  0  0
    8.6825   16.5574    0.0000 C   0  0  0  0  0  0  0  0  0  0  0  0
    3.2152   10.9799    0.0000 C   0  0  2  0  0  0  0  0  0  0  0  0
    6.8651    8.2089    0.0000 C   0  0  0  0  0  0  0  0  0  0  0  0
    3.7988   10.1752    0.0000 C   0  0  1  0  0  0  0  0  0  0  0  0
    4.1472   13.8314    0.0000 C   0  0  0  0  0  0  0  0  0  0  0  0
    4.5044   12.1366    0.0000 C   0  0  0  0  0  0  0  0  0  0  0  0
    2.2690   10.6752    0.0000 C   0  0  0  0  0  0  0  0  0  0  0  0
    3.2152    9.3704    0.0000 C   0  0  0  0  0  0  0  0  0  0  0  0
   11.0433   12.6296    0.0000 C   0  0  0  0  0  0  0  0  0  0  0  0
    7.1758    9.1594    0.0000 C   0  0  0  0  0  0  0  0  0  0  0  0
    2.2690    9.6752    0.0000 C   0  0  0  0  0  0  0  0  0  0  0  0
    6.5079    9.9037    0.0000 C   0  0  0  0  0  0  0  0  0  0  0  0
    9.6610   16.7636    0.0000 C   0  0  0  0  0  0  0  0  0  0  0  0
    6.8186   10.8542    0.0000 C   0  0  0  0  0  0  0  0  0  0  0  0
    4.4579   14.7820    0.0000 C   0  0  0  0  0  0  0  0  0  0  0  0
    1.4030   11.1752    0.0000 C   0  0  0  0  0  0  0  0  0  0  0  0
   11.7111   11.8853    0.0000 C   0  0  0  0  0  0  0  0  0  0  0  0
   11.7876   13.2975    0.0000 C   0  0  0  0  0  0  0  0  0  0  0  0
   10.2990   11.9618    0.0000 C   0  0  0  0  0  0  0  0  0  0  0  0
    1.4030    9.1752    0.0000 C   0  0  0  0  0  0  0  0  0  0  0  0
    9.9717   17.7141    0.0000 C   0  0  0  0  0  0  0  0  0  0  0  0
   10.3289   16.0193    0.0000 C   0  0  0  0  0  0  0  0  0  0  0  0
    0.5369   10.6752    0.0000 C   0  0  0  0  0  0  0  0  0  0  0  0
    0.5369    9.6752    0.0000 C   0  0  0  0  0  0  0  0  0  0  0  0
    3.7900   15.5263    0.0000 C   0  0  0  0  0  0  0  0  0  0  0  0
    5.4364   14.9882    0.0000 C   0  0  0  0  0  0  0  0  0  0  0  0
   10.9502   17.9203    0.0000 C   0  0  0  0  0  0  0  0  0  0  0  0
    4.1007   16.4768    0.0000 C   0  0  0  0  0  0  0  0  0  0  0  0
    5.7470   15.9387    0.0000 C   0  0  0  0  0  0  0  0  0  0  0  0
   11.6181   17.1760    0.0000 C   0  0  0  0  0  0  0  0  0  0  0  0
    5.0792   16.6830    0.0000 C   0  0  0  0  0  0  0  0  0  0  0  0
   15.2922    6.7553    0.0000 C   0  0  0  0  0  0  0  0  0  0  0  0
   15.2922   11.1203    0.0000 C   0  0  0  0  0  0  0  0  0  0  0  0
   16.1582    7.2553    0.0000 C   0  0  0  0  0  0  0  0  0  0  0  0
   16.1582   11.6203    0.0000 C   0  0  0  0  0  0  0  0  0  0  0  0
    8.8986    4.9553    0.0000 H   0  0  0  0  0  0  0  0  0  0  0  0
    7.9917    2.2484    0.0000 H   0  0  0  0  0  0  0  0  0  0  0  0
    7.6481    3.9155    0.0000 H   0  0  0  0  0  0  0  0  0  0  0  0
    9.8991    2.6970    0.0000 H   0  0  0  0  0  0  0  0  0  0  0  0
    7.6046    2.3010    0.0000 H   0  0  0  0  0  0  0  0  0  0  0  0
    6.6236    3.6945    0.0000 H   0  0  0  0  0  0  0  0  0  0  0  0
    5.7982    3.6092    0.0000 H   0  0  0  0  0  0  0  0  0  0  0  0
   11.6910    3.5246    0.0000 H   0  0  0  0  0  0  0  0  0  0  0  0
   12.4272    4.0009    0.0000 H   0  0  0  0  0  0  0  0  0  0  0  0
   11.9510    4.7371    0.0000 H   0  0  0  0  0  0  0  0  0  0  0  0
   11.8811    4.8947    0.0000 H   0  0  0  0  0  0  0  0  0  0  0  0
   11.6556    5.7420    0.0000 H   0  0  0  0  0  0  0  0  0  0  0  0
   10.8083    5.5165    0.0000 H   0  0  0  0  0  0  0  0  0  0  0  0
    5.4052    0.5530    0.0000 H   0  0  0  0  0  0  0  0  0  0  0  0
    6.0857    0.0000    0.0000 H   0  0  0  0  0  0  0  0  0  0  0  0
    6.6387    0.6805    0.0000 H   0  0  0  0  0  0  0  0  0  0  0  0
    4.7537    1.7731    0.0000 H   0  0  0  0  0  0  0  0  0  0  0  0
    4.4380    0.9551    0.0000 H   0  0  0  0  0  0  0  0  0  0  0  0
    5.2561    0.6394    0.0000 H   0  0  0  0  0  0  0  0  0  0  0  0
    8.5364   13.3227    0.0000 H   0  0  0  0  0  0  0  0  0  0  0  0
    7.4605   12.1356    0.0000 H   0  0  0  0  0  0  0  0  0  0  0  0
    8.0537   12.6679    0.0000 H   0  0  0  0  0  0  0  0  0  0  0  0
    9.5866   14.5705    0.0000 H   0  0  0  0  0  0  0  0  0  0  0  0
    9.4223   15.3504    0.0000 H   0  0  0  0  0  0  0  0  0  0  0  0
    6.5358   14.7421    0.0000 H   0  0  0  0  0  0  0  0  0  0  0  0
    6.7002   13.9622    0.0000 H   0  0  0  0  0  0  0  0  0  0  0  0
    6.6156    6.3862    0.0000 H   0  0  0  0  0  0  0  0  0  0  0  0
    6.8754   12.0876    0.0000 H   0  0  0  0  0  0  0  0  0  0  0  0
    7.3728   16.0203    0.0000 H   0  0  0  0  0  0  0  0  0  0  0  0
    6.7796   15.4880    0.0000 H   0  0  0  0  0  0  0  0  0  0  0  0
    6.3199   13.6210    0.0000 H   0  0  0  0  0  0  0  0  0  0  0  0
    5.5623   13.8686    0.0000 H   0  0  0  0  0  0  0  0  0  0  0  0
    5.0076   13.6765    0.0000 H   0  0  0  0  0  0  0  0  0  0  0  0
    8.0798    7.1726    0.0000 H   0  0  0  0  0  0  0  0  0  0  0  0
    7.9155    7.9525    0.0000 H   0  0  0  0  0  0  0  0  0  0  0  0
    8.6620   17.1770    0.0000 H   0  0  0  0  0  0  0  0  0  0  0  0
    8.0687   16.6447    0.0000 H   0  0  0  0  0  0  0  0  0  0  0  0
    3.8277   11.0761    0.0000 H   0  0  0  0  0  0  0  0  0  0  0  0
    6.3182    8.5009    0.0000 H   0  0  0  0  0  0  0  0  0  0  0  0
    6.4825    7.7210    0.0000 H   0  0  0  0  0  0  0  0  0  0  0  0
    4.0805    9.6228    0.0000 H   0  0  0  0  0  0  0  0  0  0  0  0
    3.6003   14.1235    0.0000 H   0  0  0  0  0  0  0  0  0  0  0  0
    3.7646   13.3435    0.0000 H   0  0  0  0  0  0  0  0  0  0  0  0
    2.9642    8.8035    0.0000 H   0  0  0  0  0  0  0  0  0  0  0  0
    3.7526    9.0612    0.0000 H   0  0  0  0  0  0  0  0  0  0  0  0
    3.1118   12.3919    0.0000 H   0  0  0  0  0  0  0  0  0  0  0  0
   10.5680   13.9633    0.0000 H   0  0  0  0  0  0  0  0  0  0  0  0
    7.7227    8.8674    0.0000 H   0  0  0  0  0  0  0  0  0  0  0  0
    7.5583    9.6473    0.0000 H   0  0  0  0  0  0  0  0  0  0  0  0
    5.9610   10.1957    0.0000 H   0  0  0  0  0  0  0  0  0  0  0  0
    6.1254    9.4158    0.0000 H   0  0  0  0  0  0  0  0  0  0  0  0
    1.4030   11.7952    0.0000 H   0  0  0  0  0  0  0  0  0  0  0  0
   11.2496   11.4713    0.0000 H   0  0  0  0  0  0  0  0  0  0  0  0
   12.1252   11.4239    0.0000 H   0  0  0  0  0  0  0  0  0  0  0  0
   12.1726   12.2994    0.0000 H   0  0  0  0  0  0  0  0  0  0  0  0
   12.2016   12.8360    0.0000 H   0  0  0  0  0  0  0  0  0  0  0  0
   12.2490   13.7115    0.0000 H   0  0  0  0  0  0  0  0  0  0  0  0
   11.3735   13.7589    0.0000 H   0  0  0  0  0  0  0  0  0  0  0  0
    9.8849   12.4233    0.0000 H   0  0  0  0  0  0  0  0  0  0  0  0
    9.8375   11.5477    0.0000 H   0  0  0  0  0  0  0  0  0  0  0  0
   10.7130   11.5003    0.0000 H   0  0  0  0  0  0  0  0  0  0  0  0
    1.4030    8.5552    0.0000 H   0  0  0  0  0  0  0  0  0  0  0  0
    5.1088    9.6382    0.0000 H   0  0  0  0  0  0  0  0  0  0  0  0
    9.5576   18.1756    0.0000 H   0  0  0  0  0  0  0  0  0  0  0  0
   10.1363   15.4300    0.0000 H   0  0  0  0  0  0  0  0  0  0  0  0
    0.0000   10.9852    0.0000 H   0  0  0  0  0  0  0  0  0  0  0  0
    0.0000    9.3652    0.0000 H   0  0  0  0  0  0  0  0  0  0  0  0
    3.1833   15.3984    0.0000 H   0  0  0  0  0  0  0  0  0  0  0  0
    5.8504   14.5267    0.0000 H   0  0  0  0  0  0  0  0  0  0  0  0
   11.1428   18.5096    0.0000 H   0  0  0  0  0  0  0  0  0  0  0  0
    3.6866   16.9383    0.0000 H   0  0  0  0  0  0  0  0  0  0  0  0
    6.3537   16.0666    0.0000 H   0  0  0  0  0  0  0  0  0  0  0  0
   12.2247   17.3039    0.0000 H   0  0  0  0  0  0  0  0  0  0  0  0
    5.2718   17.2723    0.0000 H   0  0  0  0  0  0  0  0  0  0  0  0
   17.5612    7.0653    0.0000 H   0  0  0  0  0  0  0  0  0  0  0  0
   17.5612   11.4303    0.0000 H   0  0  0  0  0  0  0  0  0  0  0  0
  1 83  1  0  0  0  0
  2 83  1  0  0  0  0
  3 83  1  0  0  0  0
  4 84  1  0  0  0  0
  5 84  1  0  0  0  0
  6 84  1  0  0  0  0
  7 30  1  0  0  0  0
  7 32  1  0  0  0  0
  8 29  1  0  0  0  0
  8 34  1  0  0  0  0
  9 32  1  0  0  0  0
  9 34  1  0  0  0  0
 10 33  1  0  0  0  0
 10 36  1  0  0  0  0
 31 11  1  6  0  0  0
 11 41  1  0  0  0  0
 12 35  1  0  0  0  0
 12 36  1  0  0  0  0
 13 41  2  0  0  0  0
 46 14  1  1  0  0  0
 14 65  1  0  0  0  0
 15 51  2  0  0  0  0
 55 16  1  6  0  0  0
 16149  1  0  0  0  0
 17 57  2  0  0  0  0
 18 65  2  0  0  0  0
 19 85  1  0  0  0  0
 19161  1  0  0  0  0
 20 86  1  0  0  0  0
 20162  1  0  0  0  0
 21 85  2  0  0  0  0
 22 86  2  0  0  0  0
 23 42  1  0  0  0  0
 23 43  1  0  0  0  0
 23 45  1  0  0  0  0
 24 41  1  0  0  0  0
 24 50  1  0  0  0  0
 24113  1  0  0  0  0
 25 44  1  0  0  0  0
 25 47  1  0  0  0  0
 25 52  1  0  0  0  0
 53 26  1  6  0  0  0
 26 57  1  0  0  0  0
 26132  1  0  0  0  0
 27 51  1  0  0  0  0
 27 60  1  0  0  0  0
 27133  1  0  0  0  0
 28 73  1  0  0  0  0
 28 81  2  0  0  0  0
 29 31  1  0  0  0  0
 29 32  1  0  0  0  0
 29 87  1  1  0  0  0
 30 31  1  0  0  0  0
 30 33  1  0  0  0  0
 30 88  1  1  0  0  0
 31 89  1  0  0  0  0
 32 90  1  0  0  0  0
 33 35  1  0  0  0  0
 33 91  1  0  0  0  0
 34 37  1  0  0  0  0
 34 38  1  0  0  0  0
 35 92  1  0  0  0  0
 35 93  1  0  0  0  0
 36 39  1  0  0  0  0
 36 40  1  0  0  0  0
 37 94  1  0  0  0  0
 37 95  1  0  0  0  0
 37 96  1  0  0  0  0
 38 97  1  0  0  0  0
 38 98  1  0  0  0  0
 38 99  1  0  0  0  0
 39100  1  0  0  0  0
 39101  1  0  0  0  0
 39102  1  0  0  0  0
 40103  1  0  0  0  0
 40104  1  0  0  0  0
 40105  1  0  0  0  0
 42 44  1  0  0  0  0
 42 51  1  1  0  0  0
 42106  1  0  0  0  0
 43 46  1  0  0  0  0
 43107  1  0  0  0  0
 43108  1  0  0  0  0
 44109  1  0  0  0  0
 44110  1  0  0  0  0
 45 47  1  0  0  0  0
 45111  1  0  0  0  0
 45112  1  0  0  0  0
 46 48  1  0  0  0  0
 46114  1  0  0  0  0
 47115  1  0  0  0  0
 47116  1  0  0  0  0
 49 48  1  1  0  0  0
 48117  1  0  0  0  0
 48118  1  0  0  0  0
 49 56  1  0  0  0  0
 49 57  1  0  0  0  0
 49119  1  0  0  0  0
 50 54  1  0  0  0  0
 50120  1  0  0  0  0
 50121  1  0  0  0  0
 52 64  1  0  0  0  0
 52122  1  0  0  0  0
 52123  1  0  0  0  0
 53 55  1  0  0  0  0
 53 58  1  0  0  0  0
 53124  1  0  0  0  0
 54 61  1  0  0  0  0
 54125  1  0  0  0  0
 54126  1  0  0  0  0
 55 59  1  0  0  0  0
 55127  1  0  0  0  0
 56 66  1  0  0  0  0
 56128  1  0  0  0  0
 56129  1  0  0  0  0
 58 62  1  0  0  0  0
 58 67  2  0  0  0  0
 59 62  1  0  0  0  0
 59130  1  0  0  0  0
 59131  1  0  0  0  0
 60 68  1  0  0  0  0
 60 69  1  0  0  0  0
 60 70  1  0  0  0  0
 61 63  1  0  0  0  0
 61134  1  0  0  0  0
 61135  1  0  0  0  0
 62 71  2  0  0  0  0
 63 65  1  0  0  0  0
 63136  1  0  0  0  0
 63137  1  0  0  0  0
 64 72  1  0  0  0  0
 64 73  2  0  0  0  0
 66 76  2  0  0  0  0
 66 77  1  0  0  0  0
 67 74  1  0  0  0  0
 67138  1  0  0  0  0
 68139  1  0  0  0  0
 68140  1  0  0  0  0
 68141  1  0  0  0  0
 69142  1  0  0  0  0
 69143  1  0  0  0  0
 69144  1  0  0  0  0
 70145  1  0  0  0  0
 70146  1  0  0  0  0
 70147  1  0  0  0  0
 71 75  1  0  0  0  0
 71148  1  0  0  0  0
 72 78  2  0  0  0  0
 72150  1  0  0  0  0
 73151  1  0  0  0  0
 74 75  2  0  0  0  0
 74152  1  0  0  0  0
 75153  1  0  0  0  0
 76 79  1  0  0  0  0
 76154  1  0  0  0  0
 77 80  2  0  0  0  0
 77155  1  0  0  0  0
 78 81  1  0  0  0  0
 78156  1  0  0  0  0
 79 82  2  0  0  0  0
 79157  1  0  0  0  0
 80 82  1  0  0  0  0
 80158  1  0  0  0  0
 81159  1  0  0  0  0
 82160  1  0  0  0  0
 83 85  1  0  0  0  0
 84 86  1  0  0  0  0
M  END
> <PUBCHEM_COMPOUND_CID>
500861
> <PUBCHEM_COMPOUND_CANONICALIZED>
1
> <PUBCHEM_CACTVS_COMPLEXITY>
1890
> <PUBCHEM_CACTVS_HBOND_ACCEPTOR>
25
> <PUBCHEM_CACTVS_HBOND_DONOR>
6
> <PUBCHEM_CACTVS_ROTATABLE_BOND>
22
> <PUBCHEM_CACTVS_SUBSKEYS>
AAADcfB/v8AAAAAAAAAAAAAAAAAAAaJEiAA8eIEAAAASAGAB0AAAHwAQCAAADbzxmhc+iJPIFgCoAjH3XACCgCAxAiAI2KG4ZJkbcPrA0bG/YAhl1gHeyAf6+f6OgAAAAAAQAAAAAAAAACAAAKAACQgAAA==
> <PUBCHEM_IUPAC_OPENEYE_NAME>
[(1S,3S)-3-benzyl-1-[[(2S)-2-(tert-butylcarbamoyl)-4-(3-pyridylmethyl)piperazin-1-yl]methyl]-4-[[(1S,2R)-2-hydroxyindan-1-yl]amino]-4-oxo-butyl] 5-[[(5R,6S,6aS)-5-(2,2-dimethyl-1,3-dioxolan-4-yl)-2,2-dimethyl-3a,5,6,6a-tetrahydrofuro[2,3-d][1,3]dioxol-6-yl]oxycarbonylamino]pentanoate;2,2,2-trifluoroacetic acid
> <PUBCHEM_IUPAC_CAS_NAME>
5-[[[(5R,6S,6aS)-5-(2,2-dimethyl-1,3-dioxolan-4-yl)-2,2-dimethyl-3a,5,6,6a-tetrahydrofuro[2,3-d][1,3]dioxol-6-yl]oxy-oxomethyl]amino]pentanoic acid [(2S,4S)-1-[(2S)-2-[(tert-butylamino)-oxomethyl]-4-(3-pyridinylmethyl)-1-piperazinyl]-5-[[(1S,2R)-2-hydroxy-2,3-dihydro-1H-inden-1-yl]amino]-5-oxo-4-(phenylmethyl)pentan-2-yl] ester;2,2,2-trifluoroacetic acid
> <PUBCHEM_IUPAC_NAME_MARKUP>
[(2<I>S</I>,4<I>S</I>)-4-benzyl-1-[(2<I>S</I>)-2-(<I>tert</I>-butylcarbamoyl)-4-(pyridin-3-ylmethyl)piperazin-1-yl]-5-[[(1<I>S</I>,2<I>R</I>)-2-hydroxy-2,3-dihydro-1<I>H</I>-inden-1-yl]amino]-5-oxopentan-2-yl] 5-[[(5<I>R</I>,6<I>S</I>,6<I>a</I><I>S</I>)-5-(2,2-dimethyl-1,3-dioxolan-4-yl)-2,2-dimethyl-3<I>a</I>,5,6,6<I>a</I>-tetrahydrofuro[2,3-d][1,3]dioxol-6-yl]oxycarbonylamino]pentanoate;2,2,2-trifluoroacetic acid
> <PUBCHEM_IUPAC_NAME>
[(2S,4S)-4-benzyl-1-[(2S)-2-(tert-butylcarbamoyl)-4-(pyridin-3-ylmethyl)piperazin-1-yl]-5-[[(1S,2R)-2-hydroxy-2,3-dihydro-1H-inden-1-yl]amino]-5-oxopentan-2-yl] 5-[[(5R,6S,6aS)-5-(2,2-dimethyl-1,3-dioxolan-4-yl)-2,2-dimethyl-3a,5,6,6a-tetrahydrofuro[2,3-d][1,3]dioxol-6-yl]oxycarbonylamino]pentanoate;2,2,2-trifluoroacetic acid
> <PUBCHEM_IUPAC_SYSTEMATIC_NAME>
[(2S,4S)-1-[(2S)-2-(tert-butylcarbamoyl)-4-(pyridin-3-ylmethyl)piperazin-1-yl]-5-[[(1S,2R)-2-oxidanyl-2,3-dihydro-1H-inden-1-yl]amino]-5-oxidanylidene-4-(phenylmethyl)pentan-2-yl] 5-[[(5R,6S,6aS)-5-(2,2-dimethyl-1,3-dioxolan-4-yl)-2,2-dimethyl-3a,5,6,6a-tetrahydrofuro[2,3-d][1,3]dioxol-6-yl]oxycarbonylamino]pentanoate;2,2,2-tris(fluoranyl)ethanoic acid
> <PUBCHEM_IUPAC_TRADITIONAL_NAME>
5-[[(5R,6S,6aS)-5-(2,2-dimethyl-1,3-dioxolan-4-yl)-2,2-dimethyl-3a,5,6,6a-tetrahydrofuro[2,3-d][1,3]dioxol-6-yl]oxycarbonylamino]valeric acid [(1S,3S)-3-benzyl-1-[[(2S)-2-(tert-butylcarbamoyl)-4-(3-pyridylmethyl)piperazino]methyl]-4-[[(1S,2R)-2-hydroxyindan-1-yl]amino]-4-keto-butyl] ester;2,2,2-trifluoroacetic acid
> <PUBCHEM_IUPAC_INCHI>
InChI=1S/C54H74N6O12.2C2HF3O2/c1-52(2,3)58-49(64)40-32-59(30-35-18-15-22-55-29-35)24-25-60(40)31-38(27-37(26-34-16-9-8-10-17-34)48(63)57-44-39-20-12-11-19-36(39)28-41(44)61)67-43(62)21-13-14-23-56-51(65)69-46-45(42-33-66-53(4,5)70-42)68-50-47(46)71-54(6,7)72-50;2*3-2(4,5)1(6)7/h8-12,15-20,22,29,37-38,40-42,44-47,50,61H,13-14,21,23-28,30-33H2,1-7H3,(H,56,65)(H,57,63)(H,58,64);2*(H,6,7)/t37-,38-,40-,41+,42?,44-,45+,46-,47-,50?;;/m0../s1
> <PUBCHEM_IUPAC_INCHIKEY>
HEVDYXZZYIZMEJ-NPSFIUKZSA-N
> <PUBCHEM_EXACT_MASS>
1226.52219933
> <PUBCHEM_MOLECULAR_FORMULA>
C58H76F6N6O16
> <PUBCHEM_MOLECULAR_WEIGHT>
1227.2
> <PUBCHEM_OPENEYE_CAN_SMILES>
CC1(OCC(O1)C2C(C3C(O2)OC(O3)(C)C)OC(=O)NCCCCC(=O)OC(CC(CC4=CC=CC=C4)C(=O)NC5C(CC6=CC=CC=C56)O)CN7CCN(CC7C(=O)NC(C)(C)C)CC8=CN=CC=C8)C.C(=O)(C(F)(F)F)O.C(=O)(C(F)(F)F)O
> <PUBCHEM_OPENEYE_ISO_SMILES>
CC1(OCC(O1)[C@@H]2[C@@H]([C@H]3C(O2)OC(O3)(C)C)OC(=O)NCCCCC(=O)O[C@@H](C[C@H](CC4=CC=CC=C4)C(=O)N[C@@H]5[C@@H](CC6=CC=CC=C56)O)CN7CCN(C[C@H]7C(=O)NC(C)(C)C)CC8=CN=CC=C8)C.C(=O)(C(F)(F)F)O.C(=O)(C(F)(F)F)O
> <PUBCHEM_CACTVS_TPSA>
283
> <PUBCHEM_MONOISOTOPIC_WEIGHT>
1226.52219933
> <PUBCHEM_TOTAL_CHARGE>
0
> <PUBCHEM_HEAVY_ATOM_COUNT>
86
> <PUBCHEM_ATOM_DEF_STEREO_COUNT>
8
> <PUBCHEM_ATOM_UDEF_STEREO_COUNT>
2
> <PUBCHEM_BOND_DEF_STEREO_COUNT>
0
> <PUBCHEM_BOND_UDEF_STEREO_COUNT>
0
> <PUBCHEM_ISOTOPIC_ATOM_COUNT>
0
> <PUBCHEM_COMPONENT_COUNT>
3
> <PUBCHEM_CACTVS_TAUTO_COUNT>
-1
> <PUBCHEM_COORDINATE_TYPE>
1
5
255
> <PUBCHEM_BONDANNOTATIONS>
31  11  6
46  14  5
55  16  6
53  26  6
28  73  8
28  81  8
29  87  5
30  88  5
33  35  3
42  51  5
49  48  5
58  62  8
58  67  8
62  71  8
64  72  8
64  73  8
66  76  8
66  77  8
67  74  8
71  75  8
72  78  8
74  75  8
76  79  8
77  80  8
78  81  8
79  82  8
80  82  8
32  9  3
$$$$
