500880
  -OEChem-10302200282D
 42 45  0     1  0  0  0  0  0999 V2000
    6.1360   -1.5261    0.0000 O   0  0  0  0  0  0  0  0  0  0  0  0
    6.1174   -3.2836    0.0000 O   0  0  0  0  0  0  0  0  0  0  0  0
    3.7700    2.3215    0.0000 O   0  0  0  0  0  0  0  0  0  0  0  0
    5.5398    2.2837    0.0000 O   0  0  0  0  0  0  0  0  0  0  0  0
    2.0000    2.2974    0.0000 O   0  0  0  0  0  0  0  0  0  0  0  0
    4.6520   -1.2477    0.0000 C   0  0  2  0  0  0  0  0  0  0  0  0
    3.7860   -0.7477    0.0000 C   0  0  2  0  0  0  0  0  0  0  0  0
    4.6681   -2.2892    0.0000 C   0  0  2  0  0  0  0  0  0  0  0  0
    5.5180   -0.7477    0.0000 C   0  0  3  0  0  0  0  0  0  0  0  0
    2.8760   -1.2546    0.0000 C   0  0  0  0  0  0  0  0  0  0  0  0
    3.7700   -2.8170    0.0000 C   0  0  0  0  0  0  0  0  0  0  0  0
    2.8680   -2.2962    0.0000 C   0  0  0  0  0  0  0  0  0  0  0  0
    3.7860    0.2523    0.0000 C   0  0  0  0  0  0  0  0  0  0  0  0
    5.6561   -2.3964    0.0000 C   0  0  0  0  0  0  0  0  0  0  0  0
    2.9200   -0.2477    0.0000 C   0  0  0  0  0  0  0  0  0  0  0  0
    5.1780   -3.1494    0.0000 C   0  0  0  0  0  0  0  0  0  0  0  0
    5.5180    0.2523    0.0000 C   0  0  0  0  0  0  0  0  0  0  0  0
    4.6520    0.7523    0.0000 C   0  0  0  0  0  0  0  0  0  0  0  0
    2.8760    0.7591    0.0000 C   0  0  0  0  0  0  0  0  0  0  0  0
    4.6681    1.7938    0.0000 C   0  0  2  0  0  0  0  0  0  0  0  0
    2.8680    1.8007    0.0000 C   0  0  0  0  0  0  0  0  0  0  0  0
    5.5514    3.2836    0.0000 C   0  0  0  0  0  0  0  0  0  0  0  0
    3.9159   -1.6727    0.0000 H   0  0  0  0  0  0  0  0  0  0  0  0
    6.1035   -0.5436    0.0000 H   0  0  0  0  0  0  0  0  0  0  0  0
    2.6714   -0.6693    0.0000 H   0  0  0  0  0  0  0  0  0  0  0  0
    2.2643   -1.3560    0.0000 H   0  0  0  0  0  0  0  0  0  0  0  0
    3.3727   -3.2930    0.0000 H   0  0  0  0  0  0  0  0  0  0  0  0
    4.1710   -3.2899    0.0000 H   0  0  0  0  0  0  0  0  0  0  0  0
    2.2579   -2.1854    0.0000 H   0  0  0  0  0  0  0  0  0  0  0  0
    2.6544   -2.8782    0.0000 H   0  0  0  0  0  0  0  0  0  0  0  0
    3.2300    0.2892    0.0000 H   0  0  0  0  0  0  0  0  0  0  0  0
    2.3830    0.0623    0.0000 H   0  0  0  0  0  0  0  0  0  0  0  0
    2.6100   -0.7847    0.0000 H   0  0  0  0  0  0  0  0  0  0  0  0
    4.6447   -3.4656    0.0000 H   0  0  0  0  0  0  0  0  0  0  0  0
    5.4942   -3.6828    0.0000 H   0  0  0  0  0  0  0  0  0  0  0  0
    5.7114   -2.8332    0.0000 H   0  0  0  0  0  0  0  0  0  0  0  0
    6.0550    0.5623    0.0000 H   0  0  0  0  0  0  0  0  0  0  0  0
    2.3427    0.4429    0.0000 H   0  0  0  0  0  0  0  0  0  0  0  0
    5.2008    1.4766    0.0000 H   0  0  0  0  0  0  0  0  0  0  0  0
    6.1713    3.2765    0.0000 H   0  0  0  0  0  0  0  0  0  0  0  0
    5.5585    3.9036    0.0000 H   0  0  0  0  0  0  0  0  0  0  0  0
    4.9314    3.2908    0.0000 H   0  0  0  0  0  0  0  0  0  0  0  0
  1  9  1  0  0  0  0
  1 14  1  0  0  0  0
  2 14  2  0  0  0  0
  3 20  1  0  0  0  0
  3 21  1  0  0  0  0
 20  4  1  6  0  0  0
  4 22  1  0  0  0  0
  5 21  2  0  0  0  0
  6  7  1  0  0  0  0
  6  8  1  0  0  0  0
  6  9  1  0  0  0  0
  6 23  1  6  0  0  0
  7 10  1  0  0  0  0
  7 13  1  0  0  0  0
  7 15  1  1  0  0  0
  8 11  1  0  0  0  0
  8 14  1  0  0  0  0
  8 16  1  6  0  0  0
  9 17  1  0  0  0  0
  9 24  1  0  0  0  0
 10 12  1  0  0  0  0
 10 25  1  0  0  0  0
 10 26  1  0  0  0  0
 11 12  1  0  0  0  0
 11 27  1  0  0  0  0
 11 28  1  0  0  0  0
 12 29  1  0  0  0  0
 12 30  1  0  0  0  0
 13 18  1  0  0  0  0
 13 19  2  0  0  0  0
 15 31  1  0  0  0  0
 15 32  1  0  0  0  0
 15 33  1  0  0  0  0
 16 34  1  0  0  0  0
 16 35  1  0  0  0  0
 16 36  1  0  0  0  0
 17 18  2  0  0  0  0
 17 37  1  0  0  0  0
 18 20  1  0  0  0  0
 19 21  1  0  0  0  0
 19 38  1  0  0  0  0
 20 39  1  0  0  0  0
 22 40  1  0  0  0  0
 22 41  1  0  0  0  0
 22 42  1  0  0  0  0
M  END
> <PUBCHEM_COMPOUND_CID>
500880
> <PUBCHEM_COMPOUND_CANONICALIZED>
1
> <PUBCHEM_CACTVS_COMPLEXITY>
633
> <PUBCHEM_CACTVS_HBOND_ACCEPTOR>
5
> <PUBCHEM_CACTVS_HBOND_DONOR>
0
> <PUBCHEM_CACTVS_ROTATABLE_BOND>
1
> <PUBCHEM_CACTVS_SUBSKEYS>
AAADceB4OAAAAAAAAAAAAAAAAAAAASAAAAAwQIAAAAAAAEiAAAAAGgAAAAAADxSwgAMCCAAABACIAiDSCAAAAAAgAAAACAEAAEgYBBIAIQAiEAAEwAAMoQOKyPCPgAAAAAAAAAAAAAQAACAAAAAAAAAAAA==
> <PUBCHEM_IUPAC_OPENEYE_NAME>
(1S,6S,12S,16R)-6-methoxy-1,12-dimethyl-5,10-dioxatetracyclo[7.6.1.02,7.012,16]hexadeca-2,7-diene-4,11-dione
> <PUBCHEM_IUPAC_CAS_NAME>
(1S,6S,12S,16R)-6-methoxy-1,12-dimethyl-5,10-dioxatetracyclo[7.6.1.02,7.012,16]hexadeca-2,7-diene-4,11-dione
> <PUBCHEM_IUPAC_NAME_MARKUP>
(1<I>S</I>,6<I>S</I>,12<I>S</I>,16<I>R</I>)-6-methoxy-1,12-dimethyl-5,10-dioxatetracyclo[7.6.1.0<SUP>2,7</SUP>.0<SUP>12,16</SUP>]hexadeca-2,7-diene-4,11-dione
> <PUBCHEM_IUPAC_NAME>
(1S,6S,12S,16R)-6-methoxy-1,12-dimethyl-5,10-dioxatetracyclo[7.6.1.02,7.012,16]hexadeca-2,7-diene-4,11-dione
> <PUBCHEM_IUPAC_SYSTEMATIC_NAME>
(1S,6S,12S,16R)-6-methoxy-1,12-dimethyl-5,10-dioxatetracyclo[7.6.1.02,7.012,16]hexadeca-2,7-diene-4,11-dione
> <PUBCHEM_IUPAC_TRADITIONAL_NAME>
(1S,6S,12S,16R)-6-methoxy-1,12-dimethyl-5,10-dioxatetracyclo[7.6.1.02,7.012,16]hexadeca-2,7-diene-4,11-quinone
> <PUBCHEM_IUPAC_INCHI>
InChI=1S/C17H20O5/c1-16-5-4-6-17(2)13(16)11(21-15(17)19)7-9-10(16)8-12(18)22-14(9)20-3/h7-8,11,13-14H,4-6H2,1-3H3/t11?,13-,14+,16-,17+/m1/s1
> <PUBCHEM_IUPAC_INCHIKEY>
XFWZBMTTXLUWKW-MIEAWGKCSA-N
> <PUBCHEM_XLOGP3_AA>
1.8
> <PUBCHEM_EXACT_MASS>
304.13107373
> <PUBCHEM_MOLECULAR_FORMULA>
C17H20O5
> <PUBCHEM_MOLECULAR_WEIGHT>
304.34
> <PUBCHEM_OPENEYE_CAN_SMILES>
CC12CCCC3(C1C(C=C4C2=CC(=O)OC4OC)OC3=O)C
> <PUBCHEM_OPENEYE_ISO_SMILES>
C[C@]12CCC[C@]3([C@@H]1C(C=C4C2=CC(=O)O[C@@H]4OC)OC3=O)C
> <PUBCHEM_CACTVS_TPSA>
61.8
> <PUBCHEM_MONOISOTOPIC_WEIGHT>
304.13107373
> <PUBCHEM_TOTAL_CHARGE>
0
> <PUBCHEM_HEAVY_ATOM_COUNT>
22
> <PUBCHEM_ATOM_DEF_STEREO_COUNT>
4
> <PUBCHEM_ATOM_UDEF_STEREO_COUNT>
1
> <PUBCHEM_BOND_DEF_STEREO_COUNT>
0
> <PUBCHEM_BOND_UDEF_STEREO_COUNT>
0
> <PUBCHEM_ISOTOPIC_ATOM_COUNT>
0
> <PUBCHEM_COMPONENT_COUNT>
1
> <PUBCHEM_CACTVS_TAUTO_COUNT>
-1
> <PUBCHEM_COORDINATE_TYPE>
1
5
255
> <PUBCHEM_BONDANNOTATIONS>
20  4  6
6  23  6
7  15  5
8  16  6
9  17  3
$$$$
