500870
  -OEChem-10302200282D
 94 98  0     1  0  0  0  0  0999 V2000
    8.0622    0.5173    0.0000 S   0  0  0  0  0  0  0  0  0  0  0  0
    4.5981    2.5173    0.0000 O   0  0  0  0  0  0  0  0  0  0  0  0
    7.1962    2.0173    0.0000 O   0  0  0  0  0  0  0  0  0  0  0  0
    5.4641   -0.9827    0.0000 O   0  0  0  0  0  0  0  0  0  0  0  0
    8.0622   -3.4827    0.0000 O   0  0  0  0  0  0  0  0  0  0  0  0
    8.0622    2.5173    0.0000 O   0  0  0  0  0  0  0  0  0  0  0  0
    8.9282   -1.9827    0.0000 O   0  0  0  0  0  0  0  0  0  0  0  0
    9.7942    6.5173    0.0000 O   0  0  0  0  0  0  0  0  0  0  0  0
    6.3301    0.5173    0.0000 N   0  0  0  0  0  0  0  0  0  0  0  0
    6.3301    3.5173    0.0000 N   0  0  0  0  0  0  0  0  0  0  0  0
    7.1962   -1.9827    0.0000 N   0  0  0  0  0  0  0  0  0  0  0  0
    7.1962    4.0173    0.0000 N   0  0  0  0  0  0  0  0  0  0  0  0
   11.5942   -6.5035    0.0000 N   0  0  0  0  0  0  0  0  0  0  0  0
    5.4641    1.0173    0.0000 C   0  0  2  0  0  0  0  0  0  0  0  0
    5.4641    2.0173    0.0000 C   0  0  1  0  0  0  0  0  0  0  0  0
    4.5981    0.5173    0.0000 C   0  0  0  0  0  0  0  0  0  0  0  0
    3.7320    1.0173    0.0000 C   0  0  0  0  0  0  0  0  0  0  0  0
    6.3301    2.5173    0.0000 C   0  0  0  0  0  0  0  0  0  0  0  0
    6.3301   -0.4827    0.0000 C   0  0  0  0  0  0  0  0  0  0  0  0
    7.1962   -0.9827    0.0000 C   0  0  2  0  0  0  0  0  0  0  0  0
    5.4641    4.0173    0.0000 C   0  0  0  0  0  0  0  0  0  0  0  0
    2.8660    0.5173    0.0000 C   0  0  0  0  0  0  0  0  0  0  0  0
    3.7320    2.0173    0.0000 C   0  0  0  0  0  0  0  0  0  0  0  0
    8.0622   -0.4827    0.0000 C   0  0  0  0  0  0  0  0  0  0  0  0
    5.4641    5.0173    0.0000 C   0  0  0  0  0  0  0  0  0  0  0  0
    2.0000    1.0173    0.0000 C   0  0  0  0  0  0  0  0  0  0  0  0
    2.8660    2.5173    0.0000 C   0  0  0  0  0  0  0  0  0  0  0  0
    2.0000    2.0173    0.0000 C   0  0  0  0  0  0  0  0  0  0  0  0
    8.0622    3.5173    0.0000 C   0  0  0  0  0  0  0  0  0  0  0  0
    8.0622   -2.4827    0.0000 C   0  0  0  0  0  0  0  0  0  0  0  0
    4.5981    5.5173    0.0000 C   0  0  0  0  0  0  0  0  0  0  0  0
    6.3301    5.5173    0.0000 C   0  0  0  0  0  0  0  0  0  0  0  0
    8.9282    4.0173    0.0000 C   0  0  0  0  0  0  0  0  0  0  0  0
    8.9282    5.0173    0.0000 C   0  0  0  0  0  0  0  0  0  0  0  0
    4.5981    6.5173    0.0000 C   0  0  0  0  0  0  0  0  0  0  0  0
    6.3301    6.5173    0.0000 C   0  0  0  0  0  0  0  0  0  0  0  0
    8.9282   -3.9827    0.0000 C   0  0  0  0  0  0  0  0  0  0  0  0
    8.9282    1.0173    0.0000 C   0  0  0  0  0  0  0  0  0  0  0  0
    8.9282   -4.9827    0.0000 C   0  0  0  0  0  0  0  0  0  0  0  0
    5.4641    7.0173    0.0000 C   0  0  0  0  0  0  0  0  0  0  0  0
    9.7942    3.5173    0.0000 C   0  0  0  0  0  0  0  0  0  0  0  0
    9.7942   -5.4827    0.0000 C   0  0  0  0  0  0  0  0  0  0  0  0
    9.7942    5.5173    0.0000 C   0  0  0  0  0  0  0  0  0  0  0  0
    9.7942   -6.4827    0.0000 C   0  0  0  0  0  0  0  0  0  0  0  0
    8.0622    5.5173    0.0000 C   0  0  0  0  0  0  0  0  0  0  0  0
    8.0622   -5.4827    0.0000 C   0  0  0  0  0  0  0  0  0  0  0  0
   10.6603    4.0173    0.0000 C   0  0  0  0  0  0  0  0  0  0  0  0
   10.6603    5.0173    0.0000 C   0  0  0  0  0  0  0  0  0  0  0  0
    8.9282   -6.9827    0.0000 C   0  0  0  0  0  0  0  0  0  0  0  0
   10.6882   -4.9480    0.0000 C   0  0  0  0  0  0  0  0  0  0  0  0
    8.0622   -6.4827    0.0000 C   0  0  0  0  0  0  0  0  0  0  0  0
   10.6882   -7.0173    0.0000 C   0  0  0  0  0  0  0  0  0  0  0  0
   11.5942   -5.4618    0.0000 C   0  0  0  0  0  0  0  0  0  0  0  0
    5.4641    0.3973    0.0000 H   0  0  0  0  0  0  0  0  0  0  0  0
    5.4641    2.6373    0.0000 H   0  0  0  0  0  0  0  0  0  0  0  0
    4.1996    0.0424    0.0000 H   0  0  0  0  0  0  0  0  0  0  0  0
    4.9966    0.0424    0.0000 H   0  0  0  0  0  0  0  0  0  0  0  0
    6.8671    0.8273    0.0000 H   0  0  0  0  0  0  0  0  0  0  0  0
    6.6592   -1.2927    0.0000 H   0  0  0  0  0  0  0  0  0  0  0  0
    4.8535    4.1250    0.0000 H   0  0  0  0  0  0  0  0  0  0  0  0
    5.2520    3.4347    0.0000 H   0  0  0  0  0  0  0  0  0  0  0  0
    4.5981    3.1373    0.0000 H   0  0  0  0  0  0  0  0  0  0  0  0
    2.8660   -0.1027    0.0000 H   0  0  0  0  0  0  0  0  0  0  0  0
    4.2690    2.3273    0.0000 H   0  0  0  0  0  0  0  0  0  0  0  0
    8.2742   -1.0653    0.0000 H   0  0  0  0  0  0  0  0  0  0  0  0
    8.6728   -0.3750    0.0000 H   0  0  0  0  0  0  0  0  0  0  0  0
    6.6592   -2.2927    0.0000 H   0  0  0  0  0  0  0  0  0  0  0  0
    7.1962    4.6373    0.0000 H   0  0  0  0  0  0  0  0  0  0  0  0
    1.4631    0.7073    0.0000 H   0  0  0  0  0  0  0  0  0  0  0  0
    2.8660    3.1373    0.0000 H   0  0  0  0  0  0  0  0  0  0  0  0
    1.4631    2.3273    0.0000 H   0  0  0  0  0  0  0  0  0  0  0  0
    4.0611    5.2073    0.0000 H   0  0  0  0  0  0  0  0  0  0  0  0
    6.8671    5.2073    0.0000 H   0  0  0  0  0  0  0  0  0  0  0  0
    4.0611    6.8273    0.0000 H   0  0  0  0  0  0  0  0  0  0  0  0
    6.8671    6.8273    0.0000 H   0  0  0  0  0  0  0  0  0  0  0  0
    9.5388   -4.0903    0.0000 H   0  0  0  0  0  0  0  0  0  0  0  0
    9.1403   -3.4001    0.0000 H   0  0  0  0  0  0  0  0  0  0  0  0
    9.2382    0.4804    0.0000 H   0  0  0  0  0  0  0  0  0  0  0  0
    9.4651    1.3273    0.0000 H   0  0  0  0  0  0  0  0  0  0  0  0
    8.6182    1.5543    0.0000 H   0  0  0  0  0  0  0  0  0  0  0  0
    5.4641    7.6373    0.0000 H   0  0  0  0  0  0  0  0  0  0  0  0
    9.7942    2.8973    0.0000 H   0  0  0  0  0  0  0  0  0  0  0  0
    8.3722    6.0543    0.0000 H   0  0  0  0  0  0  0  0  0  0  0  0
    7.5252    5.8273    0.0000 H   0  0  0  0  0  0  0  0  0  0  0  0
    7.7522    4.9804    0.0000 H   0  0  0  0  0  0  0  0  0  0  0  0
    7.5252   -5.1727    0.0000 H   0  0  0  0  0  0  0  0  0  0  0  0
   11.1972    3.7073    0.0000 H   0  0  0  0  0  0  0  0  0  0  0  0
   11.1972    5.3273    0.0000 H   0  0  0  0  0  0  0  0  0  0  0  0
    8.9282   -7.6027    0.0000 H   0  0  0  0  0  0  0  0  0  0  0  0
   10.6810   -4.3280    0.0000 H   0  0  0  0  0  0  0  0  0  0  0  0
    7.5252   -6.7927    0.0000 H   0  0  0  0  0  0  0  0  0  0  0  0
   10.6810   -7.6373    0.0000 H   0  0  0  0  0  0  0  0  0  0  0  0
   12.1300   -5.1498    0.0000 H   0  0  0  0  0  0  0  0  0  0  0  0
   10.3312    6.8273    0.0000 H   0  0  0  0  0  0  0  0  0  0  0  0
  1 24  1  0  0  0  0
  1 38  1  0  0  0  0
 15  2  1  6  0  0  0
  2 62  1  0  0  0  0
  3 18  2  0  0  0  0
  4 19  2  0  0  0  0
  5 30  1  0  0  0  0
  5 37  1  0  0  0  0
  6 29  2  0  0  0  0
  7 30  2  0  0  0  0
  8 43  1  0  0  0  0
  8 94  1  0  0  0  0
 14  9  1  1  0  0  0
  9 19  1  0  0  0  0
  9 58  1  0  0  0  0
 10 12  1  0  0  0  0
 10 18  1  0  0  0  0
 10 21  1  0  0  0  0
 20 11  1  6  0  0  0
 11 30  1  0  0  0  0
 11 67  1  0  0  0  0
 12 29  1  0  0  0  0
 12 68  1  0  0  0  0
 13 52  2  0  0  0  0
 13 53  1  0  0  0  0
 14 15  1  0  0  0  0
 14 16  1  0  0  0  0
 14 54  1  0  0  0  0
 15 18  1  0  0  0  0
 15 55  1  0  0  0  0
 16 17  1  0  0  0  0
 16 56  1  0  0  0  0
 16 57  1  0  0  0  0
 17 22  2  0  0  0  0
 17 23  1  0  0  0  0
 19 20  1  0  0  0  0
 20 24  1  0  0  0  0
 20 59  1  0  0  0  0
 21 25  1  0  0  0  0
 21 60  1  0  0  0  0
 21 61  1  0  0  0  0
 22 26  1  0  0  0  0
 22 63  1  0  0  0  0
 23 27  2  0  0  0  0
 23 64  1  0  0  0  0
 24 65  1  0  0  0  0
 24 66  1  0  0  0  0
 25 31  2  0  0  0  0
 25 32  1  0  0  0  0
 26 28  2  0  0  0  0
 26 69  1  0  0  0  0
 27 28  1  0  0  0  0
 27 70  1  0  0  0  0
 28 71  1  0  0  0  0
 29 33  1  0  0  0  0
 31 35  1  0  0  0  0
 31 72  1  0  0  0  0
 32 36  2  0  0  0  0
 32 73  1  0  0  0  0
 33 34  2  0  0  0  0
 33 41  1  0  0  0  0
 34 43  1  0  0  0  0
 34 45  1  0  0  0  0
 35 40  2  0  0  0  0
 35 74  1  0  0  0  0
 36 40  1  0  0  0  0
 36 75  1  0  0  0  0
 37 39  1  0  0  0  0
 37 76  1  0  0  0  0
 37 77  1  0  0  0  0
 38 78  1  0  0  0  0
 38 79  1  0  0  0  0
 38 80  1  0  0  0  0
 39 42  1  0  0  0  0
 39 46  2  0  0  0  0
 40 81  1  0  0  0  0
 41 47  2  0  0  0  0
 41 82  1  0  0  0  0
 42 44  2  0  0  0  0
 42 50  1  0  0  0  0
 43 48  2  0  0  0  0
 44 49  1  0  0  0  0
 44 52  1  0  0  0  0
 45 83  1  0  0  0  0
 45 84  1  0  0  0  0
 45 85  1  0  0  0  0
 46 51  1  0  0  0  0
 46 86  1  0  0  0  0
 47 48  1  0  0  0  0
 47 87  1  0  0  0  0
 48 88  1  0  0  0  0
 49 51  2  0  0  0  0
 49 89  1  0  0  0  0
 50 53  2  0  0  0  0
 50 90  1  0  0  0  0
 51 91  1  0  0  0  0
 52 92  1  0  0  0  0
 53 93  1  0  0  0  0
M  END
> <PUBCHEM_COMPOUND_CID>
500870
> <PUBCHEM_COMPOUND_CANONICALIZED>
1
> <PUBCHEM_CACTVS_COMPLEXITY>
1180
> <PUBCHEM_CACTVS_HBOND_ACCEPTOR>
9
> <PUBCHEM_CACTVS_HBOND_DONOR>
5
> <PUBCHEM_CACTVS_ROTATABLE_BOND>
15
> <PUBCHEM_CACTVS_SUBSKEYS>
AAADcfB/uABAAAAAAAAAAAAAAAAAAAAAAAA8YMGCAAAAAACx9AAAHgQYCAAADDzl2ga+jtLqFgioAjF3XAKCgCA1IjAa+KH+bNkKdvri9buccQhk1hHY+Ye62PKOgAADAAAYAAAAAAYAADAAAAAAAAAAAA==
> <PUBCHEM_IUPAC_OPENEYE_NAME>
5-isoquinolylmethyl N-[(1R)-2-[[(1S,2S)-1-benzyl-3-[benzyl-[(3-hydroxy-2-methyl-benzoyl)amino]amino]-2-hydroxy-3-oxo-propyl]amino]-1-(methylsulfanylmethyl)-2-oxo-ethyl]carbamate
> <PUBCHEM_IUPAC_CAS_NAME>
N-[(2R)-1-[[(2S,3S)-3-hydroxy-4-[[[(3-hydroxy-2-methylphenyl)-oxomethyl]amino]-(phenylmethyl)amino]-4-oxo-1-phenylbutan-2-yl]amino]-3-(methylthio)-1-oxopropan-2-yl]carbamic acid 5-isoquinolinylmethyl ester
> <PUBCHEM_IUPAC_NAME_MARKUP>
isoquinolin-5-ylmethyl <I>N</I>-[(2<I>R</I>)-1-[[(2<I>S</I>,3<I>S</I>)-4-[benzyl-[(3-hydroxy-2-methylbenzoyl)amino]amino]-3-hydroxy-4-oxo-1-phenylbutan-2-yl]amino]-3-methylsulfanyl-1-oxopropan-2-yl]carbamate
> <PUBCHEM_IUPAC_NAME>
isoquinolin-5-ylmethyl N-[(2R)-1-[[(2S,3S)-4-[benzyl-[(3-hydroxy-2-methylbenzoyl)amino]amino]-3-hydroxy-4-oxo-1-phenylbutan-2-yl]amino]-3-methylsulfanyl-1-oxopropan-2-yl]carbamate
> <PUBCHEM_IUPAC_SYSTEMATIC_NAME>
isoquinolin-5-ylmethyl N-[(2R)-1-[[(2S,3S)-4-[[(2-methyl-3-oxidanyl-phenyl)carbonylamino]-(phenylmethyl)amino]-3-oxidanyl-4-oxidanylidene-1-phenyl-butan-2-yl]amino]-3-methylsulfanyl-1-oxidanylidene-propan-2-yl]carbamate
> <PUBCHEM_IUPAC_TRADITIONAL_NAME>
N-[(1R)-2-[[(1S,2S)-1-benzyl-3-[benzyl-[(3-hydroxy-2-methyl-benzoyl)amino]amino]-2-hydroxy-3-keto-propyl]amino]-2-keto-1-[(methylthio)methyl]ethyl]carbamic acid 5-isoquinolylmethyl ester
> <PUBCHEM_IUPAC_INCHI>
InChI=1S/C40H41N5O7S/c1-26-31(17-10-18-35(26)46)37(48)44-45(23-28-13-7-4-8-14-28)39(50)36(47)33(21-27-11-5-3-6-12-27)42-38(49)34(25-53-2)43-40(51)52-24-30-16-9-15-29-22-41-20-19-32(29)30/h3-20,22,33-34,36,46-47H,21,23-25H2,1-2H3,(H,42,49)(H,43,51)(H,44,48)/t33-,34-,36-/m0/s1
> <PUBCHEM_IUPAC_INCHIKEY>
YEIHIAKNVFDXRE-IUKTVIPNSA-N
> <PUBCHEM_XLOGP3_AA>
5.2
> <PUBCHEM_EXACT_MASS>
735.27266984
> <PUBCHEM_MOLECULAR_FORMULA>
C40H41N5O7S
> <PUBCHEM_MOLECULAR_WEIGHT>
735.8
> <PUBCHEM_OPENEYE_CAN_SMILES>
CC1=C(C=CC=C1O)C(=O)NN(CC2=CC=CC=C2)C(=O)C(C(CC3=CC=CC=C3)NC(=O)C(CSC)NC(=O)OCC4=CC=CC5=C4C=CN=C5)O
> <PUBCHEM_OPENEYE_ISO_SMILES>
CC1=C(C=CC=C1O)C(=O)NN(CC2=CC=CC=C2)C(=O)[C@H]([C@H](CC3=CC=CC=C3)NC(=O)[C@H](CSC)NC(=O)OCC4=CC=CC5=C4C=CN=C5)O
> <PUBCHEM_CACTVS_TPSA>
196
> <PUBCHEM_MONOISOTOPIC_WEIGHT>
735.27266984
> <PUBCHEM_TOTAL_CHARGE>
0
> <PUBCHEM_HEAVY_ATOM_COUNT>
53
> <PUBCHEM_ATOM_DEF_STEREO_COUNT>
3
> <PUBCHEM_ATOM_UDEF_STEREO_COUNT>
0
> <PUBCHEM_BOND_DEF_STEREO_COUNT>
0
> <PUBCHEM_BOND_UDEF_STEREO_COUNT>
0
> <PUBCHEM_ISOTOPIC_ATOM_COUNT>
0
> <PUBCHEM_COMPONENT_COUNT>
1
> <PUBCHEM_CACTVS_TAUTO_COUNT>
-1
> <PUBCHEM_COORDINATE_TYPE>
1
5
255
> <PUBCHEM_BONDANNOTATIONS>
20  11  6
13  52  8
13  53  8
17  22  8
17  23  8
15  2  6
22  26  8
23  27  8
25  31  8
25  32  8
26  28  8
27  28  8
31  35  8
32  36  8
33  34  8
33  41  8
34  43  8
35  40  8
36  40  8
39  42  8
39  46  8
41  47  8
42  44  8
42  50  8
43  48  8
44  49  8
44  52  8
46  51  8
47  48  8
49  51  8
50  53  8
14  9  5
$$$$
