500968
  -OEChem-10302200282D
 52 55  0     1  0  0  0  0  0999 V2000
   12.2899   -3.9104    0.0000 P   0  0  0  0  0  0  0  0  0  0  0  0
    3.7320    5.0304    0.0000 F   0  0  0  0  0  0  0  0  0  0  0  0
    3.7320    1.0304    0.0000 F   0  0  0  0  0  0  0  0  0  0  0  0
    2.0000    4.0304    0.0000 F   0  0  0  0  0  0  0  0  0  0  0  0
   13.1560   -4.4104    0.0000 O   0  0  0  0  0  0  0  0  0  0  0  0
   11.7899   -4.7765    0.0000 O   0  0  0  0  0  0  0  0  0  0  0  0
   11.4239   -0.4104    0.0000 O   0  0  0  0  0  0  0  0  0  0  0  0
   12.7899   -3.0444    0.0000 O   0  0  0  0  0  0  0  0  0  0  0  0
   13.1560   -2.4104    0.0000 O   0  0  0  0  0  0  0  0  0  0  0  0
   12.2899   -0.9104    0.0000 O   0  0  0  0  0  0  0  0  0  0  0  0
    8.6166    2.0614    0.0000 N   0  0  0  0  0  0  0  0  0  0  0  0
    7.2228    1.2566    0.0000 N   0  0  0  0  0  0  0  0  0  0  0  0
   10.5579   -1.9104    0.0000 N   0  0  0  0  0  0  0  0  0  0  0  0
    5.5443    3.8352    0.0000 N   0  0  0  0  0  0  0  0  0  0  0  0
    5.5443    2.2257    0.0000 N   0  0  0  0  0  0  0  0  0  0  0  0
    8.8258    1.0896    0.0000 C   0  0  0  0  0  0  0  0  0  0  0  0
    7.6279    2.1644    0.0000 C   0  0  0  0  0  0  0  0  0  0  0  0
    7.1279    3.0304    0.0000 C   0  0  0  0  0  0  0  0  0  0  0  0
    7.9598    0.5896    0.0000 C   0  0  0  0  0  0  0  0  0  0  0  0
    6.1279    3.0304    0.0000 C   0  0  0  0  0  0  0  0  0  0  0  0
    9.6919    0.5896    0.0000 C   0  0  0  0  0  0  0  0  0  0  0  0
   11.4239   -2.4104    0.0000 C   0  0  3  0  0  0  0  0  0  0  0  0
    9.6919   -0.4104    0.0000 C   0  0  0  0  0  0  0  0  0  0  0  0
   11.4239   -3.4104    0.0000 C   0  0  0  0  0  0  0  0  0  0  0  0
    7.9598   -0.4104    0.0000 C   0  0  0  0  0  0  0  0  0  0  0  0
    9.2845    2.8057    0.0000 C   0  0  0  0  0  0  0  0  0  0  0  0
    8.8258   -0.9104    0.0000 C   0  0  0  0  0  0  0  0  0  0  0  0
   10.5579   -0.9104    0.0000 C   0  0  0  0  0  0  0  0  0  0  0  0
    4.5981    3.5304    0.0000 C   0  0  0  0  0  0  0  0  0  0  0  0
    4.5981    2.5304    0.0000 C   0  0  0  0  0  0  0  0  0  0  0  0
   12.2899   -1.9104    0.0000 C   0  0  0  0  0  0  0  0  0  0  0  0
    3.7320    4.0304    0.0000 C   0  0  0  0  0  0  0  0  0  0  0  0
    3.7320    2.0304    0.0000 C   0  0  0  0  0  0  0  0  0  0  0  0
    2.8660    3.5304    0.0000 C   0  0  0  0  0  0  0  0  0  0  0  0
    2.8660    2.5304    0.0000 C   0  0  0  0  0  0  0  0  0  0  0  0
    7.7105    3.2425    0.0000 H   0  0  0  0  0  0  0  0  0  0  0  0
    7.0202    3.6410    0.0000 H   0  0  0  0  0  0  0  0  0  0  0  0
   10.8870   -2.7204    0.0000 H   0  0  0  0  0  0  0  0  0  0  0  0
   10.2288    0.8996    0.0000 H   0  0  0  0  0  0  0  0  0  0  0  0
   10.8133   -3.3028    0.0000 H   0  0  0  0  0  0  0  0  0  0  0  0
   11.2119   -3.9931    0.0000 H   0  0  0  0  0  0  0  0  0  0  0  0
    7.4229   -0.7204    0.0000 H   0  0  0  0  0  0  0  0  0  0  0  0
    9.7459    2.3916    0.0000 H   0  0  0  0  0  0  0  0  0  0  0  0
    9.6985    3.2671    0.0000 H   0  0  0  0  0  0  0  0  0  0  0  0
    8.8230    3.2197    0.0000 H   0  0  0  0  0  0  0  0  0  0  0  0
    8.8258   -1.5304    0.0000 H   0  0  0  0  0  0  0  0  0  0  0  0
   10.0209   -2.2204    0.0000 H   0  0  0  0  0  0  0  0  0  0  0  0
    5.7369    4.4245    0.0000 H   0  0  0  0  0  0  0  0  0  0  0  0
    2.3291    2.2204    0.0000 H   0  0  0  0  0  0  0  0  0  0  0  0
   13.1560   -5.0304    0.0000 H   0  0  0  0  0  0  0  0  0  0  0  0
   11.1699   -4.7765    0.0000 H   0  0  0  0  0  0  0  0  0  0  0  0
   13.6929   -2.1004    0.0000 H   0  0  0  0  0  0  0  0  0  0  0  0
  1  5  1  0  0  0  0
  1  6  1  0  0  0  0
  1  8  2  0  0  0  0
  1 24  1  0  0  0  0
  2 32  1  0  0  0  0
  3 33  1  0  0  0  0
  4 34  1  0  0  0  0
  5 50  1  0  0  0  0
  6 51  1  0  0  0  0
  7 28  2  0  0  0  0
  9 31  1  0  0  0  0
  9 52  1  0  0  0  0
 10 31  2  0  0  0  0
 11 16  1  0  0  0  0
 11 17  1  0  0  0  0
 11 26  1  0  0  0  0
 12 17  2  0  0  0  0
 12 19  1  0  0  0  0
 13 22  1  0  0  0  0
 13 28  1  0  0  0  0
 13 47  1  0  0  0  0
 14 20  1  0  0  0  0
 14 29  1  0  0  0  0
 14 48  1  0  0  0  0
 15 20  2  0  0  0  0
 15 30  1  0  0  0  0
 16 19  2  0  0  0  0
 16 21  1  0  0  0  0
 17 18  1  0  0  0  0
 18 20  1  0  0  0  0
 18 36  1  0  0  0  0
 18 37  1  0  0  0  0
 19 25  1  0  0  0  0
 21 23  2  0  0  0  0
 21 39  1  0  0  0  0
 22 24  1  0  0  0  0
 22 31  1  0  0  0  0
 22 38  1  0  0  0  0
 23 27  1  0  0  0  0
 23 28  1  0  0  0  0
 24 40  1  0  0  0  0
 24 41  1  0  0  0  0
 25 27  2  0  0  0  0
 25 42  1  0  0  0  0
 26 43  1  0  0  0  0
 26 44  1  0  0  0  0
 26 45  1  0  0  0  0
 27 46  1  0  0  0  0
 29 30  2  0  0  0  0
 29 32  1  0  0  0  0
 30 33  1  0  0  0  0
 32 34  2  0  0  0  0
 33 35  2  0  0  0  0
 34 35  1  0  0  0  0
 35 49  1  0  0  0  0
M  END
> <PUBCHEM_COMPOUND_CID>
500968
> <PUBCHEM_COMPOUND_CANONICALIZED>
1
> <PUBCHEM_CACTVS_COMPLEXITY>
869
> <PUBCHEM_CACTVS_HBOND_ACCEPTOR>
11
> <PUBCHEM_CACTVS_HBOND_DONOR>
5
> <PUBCHEM_CACTVS_ROTATABLE_BOND>
7
> <PUBCHEM_CACTVS_SUBSKEYS>
AAADceB7uYIAAAAAAAAAAAAAAAAAAWLAAAAwYAAAAAAAAFgB/gAAHwgQCCAADCjJnwwz2LfNkhCoQyfyfICCgC2lEqAJ2aG4dNiKaLLA3bGUYQholgLYyacciQCeCAAAQAAAACAQAACAAAAAQAAAAAAAAA==
> <PUBCHEM_IUPAC_OPENEYE_NAME>
2-[[3-methyl-2-[(4,6,7-trifluoro-1H-benzimidazol-2-yl)methyl]benzimidazole-5-carbonyl]amino]-3-phosphono-propanoic acid
> <PUBCHEM_IUPAC_CAS_NAME>
2-[[[3-methyl-2-[(4,6,7-trifluoro-1H-benzimidazol-2-yl)methyl]-5-benzimidazolyl]-oxomethyl]amino]-3-phosphonopropanoic acid
> <PUBCHEM_IUPAC_NAME_MARKUP>
2-[[3-methyl-2-[(4,6,7-trifluoro-1<I>H</I>-benzimidazol-2-yl)methyl]benzimidazole-5-carbonyl]amino]-3-phosphonopropanoic acid
> <PUBCHEM_IUPAC_NAME>
2-[[3-methyl-2-[(4,6,7-trifluoro-1H-benzimidazol-2-yl)methyl]benzimidazole-5-carbonyl]amino]-3-phosphonopropanoic acid
> <PUBCHEM_IUPAC_SYSTEMATIC_NAME>
2-[[3-methyl-2-[[4,6,7-tris(fluoranyl)-1H-benzimidazol-2-yl]methyl]benzimidazol-5-yl]carbonylamino]-3-phosphono-propanoic acid
> <PUBCHEM_IUPAC_TRADITIONAL_NAME>
2-[[3-methyl-2-[(4,6,7-trifluoro-1H-benzimidazol-2-yl)methyl]benzimidazole-5-carbonyl]amino]-3-phosphono-propionic acid
> <PUBCHEM_IUPAC_INCHI>
InChI=1S/C20H17F3N5O6P/c1-28-13-4-8(19(29)25-12(20(30)31)7-35(32,33)34)2-3-11(13)24-15(28)6-14-26-17-10(22)5-9(21)16(23)18(17)27-14/h2-5,12H,6-7H2,1H3,(H,25,29)(H,26,27)(H,30,31)(H2,32,33,34)
> <PUBCHEM_IUPAC_INCHIKEY>
WNJGCPAHOSJXNM-UHFFFAOYSA-N
> <PUBCHEM_XLOGP3_AA>
0.4
> <PUBCHEM_EXACT_MASS>
511.08685476
> <PUBCHEM_MOLECULAR_FORMULA>
C20H17F3N5O6P
> <PUBCHEM_MOLECULAR_WEIGHT>
511.3
> <PUBCHEM_OPENEYE_CAN_SMILES>
CN1C2=C(C=CC(=C2)C(=O)NC(CP(=O)(O)O)C(=O)O)N=C1CC3=NC4=C(N3)C(=C(C=C4F)F)F
> <PUBCHEM_OPENEYE_ISO_SMILES>
CN1C2=C(C=CC(=C2)C(=O)NC(CP(=O)(O)O)C(=O)O)N=C1CC3=NC4=C(N3)C(=C(C=C4F)F)F
> <PUBCHEM_CACTVS_TPSA>
170
> <PUBCHEM_MONOISOTOPIC_WEIGHT>
511.08685476
> <PUBCHEM_TOTAL_CHARGE>
0
> <PUBCHEM_HEAVY_ATOM_COUNT>
35
> <PUBCHEM_ATOM_DEF_STEREO_COUNT>
0
> <PUBCHEM_ATOM_UDEF_STEREO_COUNT>
1
> <PUBCHEM_BOND_DEF_STEREO_COUNT>
0
> <PUBCHEM_BOND_UDEF_STEREO_COUNT>
0
> <PUBCHEM_ISOTOPIC_ATOM_COUNT>
0
> <PUBCHEM_COMPONENT_COUNT>
1
> <PUBCHEM_CACTVS_TAUTO_COUNT>
-1
> <PUBCHEM_COORDINATE_TYPE>
1
5
255
> <PUBCHEM_BONDANNOTATIONS>
11  16  8
11  17  8
12  17  8
12  19  8
14  20  8
14  29  8
15  20  8
15  30  8
16  19  8
16  21  8
19  25  8
21  23  8
22  24  3
23  27  8
25  27  8
29  30  8
29  32  8
30  33  8
32  34  8
33  35  8
34  35  8
$$$$
