500972
  -OEChem-10302200282D
 53 56  0     1  0  0  0  0  0999 V2000
    3.4030    1.7204    0.0000 P   0  0  0  0  0  0  0  0  0  0  0  0
    6.8671    2.7204    0.0000 O   0  0  0  0  0  0  0  0  0  0  0  0
    2.5369    2.2204    0.0000 O   0  0  0  0  0  0  0  0  0  0  0  0
    2.9030    0.8544    0.0000 O   0  0  0  0  0  0  0  0  0  0  0  0
    3.9030    2.5865    0.0000 O   0  0  0  0  0  0  0  0  0  0  0  0
    4.2690    3.2204    0.0000 O   0  0  0  0  0  0  0  0  0  0  0  0
    6.0010    3.2204    0.0000 O   0  0  0  0  0  0  0  0  0  0  0  0
   15.4249   -3.2204    0.0000 O   0  0  0  0  0  0  0  0  0  0  0  0
   10.4114    1.5252    0.0000 N   0  0  0  0  0  0  0  0  0  0  0  0
   10.4114   -0.0843    0.0000 N   0  0  0  0  0  0  0  0  0  0  0  0
    6.0010    1.2204    0.0000 N   0  0  0  0  0  0  0  0  0  0  0  0
   13.4837   -0.2486    0.0000 N   0  0  0  0  0  0  0  0  0  0  0  0
   12.0899   -1.0534    0.0000 N   0  0  0  0  0  0  0  0  0  0  0  0
    9.4651    1.2204    0.0000 C   0  0  0  0  0  0  0  0  0  0  0  0
   10.9950    0.7204    0.0000 C   0  0  0  0  0  0  0  0  0  0  0  0
   11.9950    0.7204    0.0000 C   0  0  0  0  0  0  0  0  0  0  0  0
    9.4651    0.2204    0.0000 C   0  0  0  0  0  0  0  0  0  0  0  0
    8.5991    1.7204    0.0000 C   0  0  0  0  0  0  0  0  0  0  0  0
    5.1350    1.7204    0.0000 C   0  0  3  0  0  0  0  0  0  0  0  0
   12.4950   -0.1456    0.0000 C   0  0  0  0  0  0  0  0  0  0  0  0
    7.7331    1.2204    0.0000 C   0  0  0  0  0  0  0  0  0  0  0  0
    4.2690    1.2204    0.0000 C   0  0  0  0  0  0  0  0  0  0  0  0
    8.5991   -0.2796    0.0000 C   0  0  0  0  0  0  0  0  0  0  0  0
   10.7220    2.4757    0.0000 C   0  0  0  0  0  0  0  0  0  0  0  0
    7.7331    0.2204    0.0000 C   0  0  0  0  0  0  0  0  0  0  0  0
    6.8671    1.7204    0.0000 C   0  0  0  0  0  0  0  0  0  0  0  0
   13.6929   -1.2204    0.0000 C   0  0  0  0  0  0  0  0  0  0  0  0
   12.8269   -1.7204    0.0000 C   0  0  0  0  0  0  0  0  0  0  0  0
    5.1350    2.7204    0.0000 C   0  0  0  0  0  0  0  0  0  0  0  0
   14.5589   -1.7204    0.0000 C   0  0  0  0  0  0  0  0  0  0  0  0
   12.8269   -2.7204    0.0000 C   0  0  0  0  0  0  0  0  0  0  0  0
   14.5589   -2.7204    0.0000 C   0  0  0  0  0  0  0  0  0  0  0  0
   13.6929   -3.2204    0.0000 C   0  0  0  0  0  0  0  0  0  0  0  0
   12.5776    0.9325    0.0000 H   0  0  0  0  0  0  0  0  0  0  0  0
   11.8873    1.3310    0.0000 H   0  0  0  0  0  0  0  0  0  0  0  0
    8.5991    2.3404    0.0000 H   0  0  0  0  0  0  0  0  0  0  0  0
    5.1350    1.1004    0.0000 H   0  0  0  0  0  0  0  0  0  0  0  0
    3.8705    0.7455    0.0000 H   0  0  0  0  0  0  0  0  0  0  0  0
    4.6675    0.7455    0.0000 H   0  0  0  0  0  0  0  0  0  0  0  0
    8.5991   -0.8996    0.0000 H   0  0  0  0  0  0  0  0  0  0  0  0
   11.3113    2.2831    0.0000 H   0  0  0  0  0  0  0  0  0  0  0  0
   10.9146    3.0650    0.0000 H   0  0  0  0  0  0  0  0  0  0  0  0
   10.1327    2.6683    0.0000 H   0  0  0  0  0  0  0  0  0  0  0  0
    7.1962   -0.0896    0.0000 H   0  0  0  0  0  0  0  0  0  0  0  0
    6.0010    0.6004    0.0000 H   0  0  0  0  0  0  0  0  0  0  0  0
   13.8978    0.2128    0.0000 H   0  0  0  0  0  0  0  0  0  0  0  0
   15.0959   -1.4104    0.0000 H   0  0  0  0  0  0  0  0  0  0  0  0
   12.2899   -3.0304    0.0000 H   0  0  0  0  0  0  0  0  0  0  0  0
   13.6929   -3.8404    0.0000 H   0  0  0  0  0  0  0  0  0  0  0  0
    2.0000    1.9104    0.0000 H   0  0  0  0  0  0  0  0  0  0  0  0
    3.2130    0.3175    0.0000 H   0  0  0  0  0  0  0  0  0  0  0  0
    4.2690    3.8404    0.0000 H   0  0  0  0  0  0  0  0  0  0  0  0
   15.4249   -3.8404    0.0000 H   0  0  0  0  0  0  0  0  0  0  0  0
  1  3  1  0  0  0  0
  1  4  1  0  0  0  0
  1  5  2  0  0  0  0
  1 22  1  0  0  0  0
  2 26  2  0  0  0  0
  3 50  1  0  0  0  0
  4 51  1  0  0  0  0
  6 29  1  0  0  0  0
  6 52  1  0  0  0  0
  7 29  2  0  0  0  0
  8 32  1  0  0  0  0
  8 53  1  0  0  0  0
  9 14  1  0  0  0  0
  9 15  1  0  0  0  0
  9 24  1  0  0  0  0
 10 15  2  0  0  0  0
 10 17  1  0  0  0  0
 11 19  1  0  0  0  0
 11 26  1  0  0  0  0
 11 45  1  0  0  0  0
 12 20  1  0  0  0  0
 12 27  1  0  0  0  0
 12 46  1  0  0  0  0
 13 20  2  0  0  0  0
 13 28  1  0  0  0  0
 14 17  2  0  0  0  0
 14 18  1  0  0  0  0
 15 16  1  0  0  0  0
 16 20  1  0  0  0  0
 16 34  1  0  0  0  0
 16 35  1  0  0  0  0
 17 23  1  0  0  0  0
 18 21  2  0  0  0  0
 18 36  1  0  0  0  0
 19 22  1  0  0  0  0
 19 29  1  0  0  0  0
 19 37  1  0  0  0  0
 21 25  1  0  0  0  0
 21 26  1  0  0  0  0
 22 38  1  0  0  0  0
 22 39  1  0  0  0  0
 23 25  2  0  0  0  0
 23 40  1  0  0  0  0
 24 41  1  0  0  0  0
 24 42  1  0  0  0  0
 24 43  1  0  0  0  0
 25 44  1  0  0  0  0
 27 28  2  0  0  0  0
 27 30  1  0  0  0  0
 28 31  1  0  0  0  0
 30 32  2  0  0  0  0
 30 47  1  0  0  0  0
 31 33  2  0  0  0  0
 31 48  1  0  0  0  0
 32 33  1  0  0  0  0
 33 49  1  0  0  0  0
M  END
> <PUBCHEM_COMPOUND_CID>
500972
> <PUBCHEM_COMPOUND_CANONICALIZED>
1
> <PUBCHEM_CACTVS_COMPLEXITY>
797
> <PUBCHEM_CACTVS_HBOND_ACCEPTOR>
9
> <PUBCHEM_CACTVS_HBOND_DONOR>
6
> <PUBCHEM_CACTVS_ROTATABLE_BOND>
7
> <PUBCHEM_CACTVS_SUBSKEYS>
AAADceB7uAIAAAAAAAAAAAAAAAAAAWLAAAAwYAAAAAAAAFgB/gAAHggQCCAADCzJnwQz3rfNkhCoQyfyfICCgC2lMqAJ2aG+fNiKbrLC3bOUcQhu1hvY2ae82QOeCEAAQgAAACAQgACEAAAAQAAAAAAAAA==
> <PUBCHEM_IUPAC_OPENEYE_NAME>
2-[[2-[(6-hydroxy-1H-benzimidazol-2-yl)methyl]-3-methyl-benzimidazole-5-carbonyl]amino]-3-phosphono-propanoic acid
> <PUBCHEM_IUPAC_CAS_NAME>
2-[[[2-[(6-hydroxy-1H-benzimidazol-2-yl)methyl]-3-methyl-5-benzimidazolyl]-oxomethyl]amino]-3-phosphonopropanoic acid
> <PUBCHEM_IUPAC_NAME_MARKUP>
2-[[2-[(6-hydroxy-1<I>H</I>-benzimidazol-2-yl)methyl]-3-methylbenzimidazole-5-carbonyl]amino]-3-phosphonopropanoic acid
> <PUBCHEM_IUPAC_NAME>
2-[[2-[(6-hydroxy-1H-benzimidazol-2-yl)methyl]-3-methylbenzimidazole-5-carbonyl]amino]-3-phosphonopropanoic acid
> <PUBCHEM_IUPAC_SYSTEMATIC_NAME>
2-[[3-methyl-2-[(6-oxidanyl-1H-benzimidazol-2-yl)methyl]benzimidazol-5-yl]carbonylamino]-3-phosphono-propanoic acid
> <PUBCHEM_IUPAC_TRADITIONAL_NAME>
2-[[2-[(6-hydroxy-1H-benzimidazol-2-yl)methyl]-3-methyl-benzimidazole-5-carbonyl]amino]-3-phosphono-propionic acid
> <PUBCHEM_IUPAC_INCHI>
InChI=1S/C20H20N5O7P/c1-25-16-6-10(19(27)24-15(20(28)29)9-33(30,31)32)2-4-13(16)23-18(25)8-17-21-12-5-3-11(26)7-14(12)22-17/h2-7,15,26H,8-9H2,1H3,(H,21,22)(H,24,27)(H,28,29)(H2,30,31,32)
> <PUBCHEM_IUPAC_INCHIKEY>
HGTFAIYZZVFMNW-UHFFFAOYSA-N
> <PUBCHEM_XLOGP3_AA>
-0.3
> <PUBCHEM_EXACT_MASS>
473.11003499
> <PUBCHEM_MOLECULAR_FORMULA>
C20H20N5O7P
> <PUBCHEM_MOLECULAR_WEIGHT>
473.4
> <PUBCHEM_OPENEYE_CAN_SMILES>
CN1C2=C(C=CC(=C2)C(=O)NC(CP(=O)(O)O)C(=O)O)N=C1CC3=NC4=C(N3)C=C(C=C4)O
> <PUBCHEM_OPENEYE_ISO_SMILES>
CN1C2=C(C=CC(=C2)C(=O)NC(CP(=O)(O)O)C(=O)O)N=C1CC3=NC4=C(N3)C=C(C=C4)O
> <PUBCHEM_CACTVS_TPSA>
191
> <PUBCHEM_MONOISOTOPIC_WEIGHT>
473.11003499
> <PUBCHEM_TOTAL_CHARGE>
0
> <PUBCHEM_HEAVY_ATOM_COUNT>
33
> <PUBCHEM_ATOM_DEF_STEREO_COUNT>
0
> <PUBCHEM_ATOM_UDEF_STEREO_COUNT>
1
> <PUBCHEM_BOND_DEF_STEREO_COUNT>
0
> <PUBCHEM_BOND_UDEF_STEREO_COUNT>
0
> <PUBCHEM_ISOTOPIC_ATOM_COUNT>
0
> <PUBCHEM_COMPONENT_COUNT>
1
> <PUBCHEM_CACTVS_TAUTO_COUNT>
-1
> <PUBCHEM_COORDINATE_TYPE>
1
5
255
> <PUBCHEM_BONDANNOTATIONS>
10  15  8
10  17  8
12  20  8
12  27  8
13  20  8
13  28  8
14  17  8
14  18  8
17  23  8
18  21  8
19  22  3
21  25  8
23  25  8
27  28  8
27  30  8
28  31  8
30  32  8
31  33  8
32  33  8
9  14  8
9  15  8
$$$$
