500996
  -OEChem-10302200282D
 55 58  0     1  0  0  0  0  0999 V2000
    3.3100    3.8154    0.0000 P   0  0  0  0  0  0  0  0  0  0  0  0
    5.9081    1.3154    0.0000 O   0  0  0  0  0  0  0  0  0  0  0  0
    3.3100    4.8154    0.0000 O   0  0  0  0  0  0  0  0  0  0  0  0
    2.3100    3.8154    0.0000 O   0  0  0  0  0  0  0  0  0  0  0  0
    5.0420    3.8154    0.0000 O   0  0  0  0  0  0  0  0  0  0  0  0
    4.3100    3.8154    0.0000 O   0  0  0  0  0  0  0  0  0  0  0  0
    5.9081    2.3154    0.0000 O   0  0  0  0  0  0  0  0  0  0  0  0
    6.8543   -0.3798    0.0000 N   0  0  0  0  0  0  0  0  0  0  0  0
    6.8543   -1.9893    0.0000 N   0  0  0  0  0  0  0  0  0  0  0  0
    9.9266   -2.1536    0.0000 N   0  0  0  0  0  0  0  0  0  0  0  0
    8.5328   -2.9584    0.0000 N   0  0  0  0  0  0  0  0  0  0  0  0
    4.1760    1.3154    0.0000 N   0  0  0  0  0  0  0  0  0  0  0  0
    8.4379   -1.1846    0.0000 C   0  0  3  0  0  0  0  0  0  0  0  0
    7.4379   -1.1846    0.0000 C   0  0  0  0  0  0  0  0  0  0  0  0
    5.9081   -0.6846    0.0000 C   0  0  0  0  0  0  0  0  0  0  0  0
    5.9081   -1.6846    0.0000 C   0  0  0  0  0  0  0  0  0  0  0  0
    8.9379   -2.0506    0.0000 C   0  0  0  0  0  0  0  0  0  0  0  0
    5.0420   -0.1846    0.0000 C   0  0  0  0  0  0  0  0  0  0  0  0
    8.9379   -0.3185    0.0000 C   0  0  0  0  0  0  0  0  0  0  0  0
    7.1650    0.5707    0.0000 C   0  0  0  0  0  0  0  0  0  0  0  0
    5.0420   -2.1846    0.0000 C   0  0  0  0  0  0  0  0  0  0  0  0
    4.1760    2.3154    0.0000 C   0  0  3  0  0  0  0  0  0  0  0  0
   10.1358   -3.1254    0.0000 C   0  0  0  0  0  0  0  0  0  0  0  0
    5.0420    0.8154    0.0000 C   0  0  0  0  0  0  0  0  0  0  0  0
    4.1760   -0.6846    0.0000 C   0  0  0  0  0  0  0  0  0  0  0  0
    9.2698   -3.6254    0.0000 C   0  0  0  0  0  0  0  0  0  0  0  0
    3.3100    2.8154    0.0000 C   0  0  0  0  0  0  0  0  0  0  0  0
    4.1760   -1.6846    0.0000 C   0  0  0  0  0  0  0  0  0  0  0  0
   11.0019   -3.6254    0.0000 C   0  0  0  0  0  0  0  0  0  0  0  0
    9.2698   -4.6254    0.0000 C   0  0  0  0  0  0  0  0  0  0  0  0
    5.0420    2.8154    0.0000 C   0  0  0  0  0  0  0  0  0  0  0  0
   11.0019   -4.6254    0.0000 C   0  0  0  0  0  0  0  0  0  0  0  0
   10.1358   -5.1254    0.0000 C   0  0  0  0  0  0  0  0  0  0  0  0
    9.0579   -1.1846    0.0000 H   0  0  0  0  0  0  0  0  0  0  0  0
    9.4748   -0.6285    0.0000 H   0  0  0  0  0  0  0  0  0  0  0  0
    9.2479    0.2184    0.0000 H   0  0  0  0  0  0  0  0  0  0  0  0
    8.4010   -0.0085    0.0000 H   0  0  0  0  0  0  0  0  0  0  0  0
    7.7543    0.3781    0.0000 H   0  0  0  0  0  0  0  0  0  0  0  0
    7.3576    1.1600    0.0000 H   0  0  0  0  0  0  0  0  0  0  0  0
    6.5756    0.7633    0.0000 H   0  0  0  0  0  0  0  0  0  0  0  0
   10.3407   -1.6922    0.0000 H   0  0  0  0  0  0  0  0  0  0  0  0
    4.7130    2.0054    0.0000 H   0  0  0  0  0  0  0  0  0  0  0  0
    5.0420   -2.8046    0.0000 H   0  0  0  0  0  0  0  0  0  0  0  0
    3.6391   -0.3746    0.0000 H   0  0  0  0  0  0  0  0  0  0  0  0
    2.6994    2.9231    0.0000 H   0  0  0  0  0  0  0  0  0  0  0  0
    3.0980    2.2328    0.0000 H   0  0  0  0  0  0  0  0  0  0  0  0
    3.6391    1.0054    0.0000 H   0  0  0  0  0  0  0  0  0  0  0  0
    3.6391   -1.9946    0.0000 H   0  0  0  0  0  0  0  0  0  0  0  0
   11.5388   -3.3154    0.0000 H   0  0  0  0  0  0  0  0  0  0  0  0
    8.7329   -4.9354    0.0000 H   0  0  0  0  0  0  0  0  0  0  0  0
   11.5388   -4.9354    0.0000 H   0  0  0  0  0  0  0  0  0  0  0  0
   10.1358   -5.7454    0.0000 H   0  0  0  0  0  0  0  0  0  0  0  0
    2.7731    5.1254    0.0000 H   0  0  0  0  0  0  0  0  0  0  0  0
    2.0000    3.2785    0.0000 H   0  0  0  0  0  0  0  0  0  0  0  0
    5.5790    4.1254    0.0000 H   0  0  0  0  0  0  0  0  0  0  0  0
  1  3  1  0  0  0  0
  1  4  1  0  0  0  0
  1  6  2  0  0  0  0
  1 27  1  0  0  0  0
  2 24  2  0  0  0  0
  3 53  1  0  0  0  0
  4 54  1  0  0  0  0
  5 31  1  0  0  0  0
  5 55  1  0  0  0  0
  7 31  2  0  0  0  0
  8 14  1  0  0  0  0
  8 15  1  0  0  0  0
  8 20  1  0  0  0  0
  9 14  2  0  0  0  0
  9 16  1  0  0  0  0
 10 17  1  0  0  0  0
 10 23  1  0  0  0  0
 10 41  1  0  0  0  0
 11 17  2  0  0  0  0
 11 26  1  0  0  0  0
 12 22  1  0  0  0  0
 12 24  1  0  0  0  0
 12 47  1  0  0  0  0
 13 14  1  0  0  0  0
 13 17  1  0  0  0  0
 13 19  1  0  0  0  0
 13 34  1  0  0  0  0
 15 16  1  0  0  0  0
 15 18  2  0  0  0  0
 16 21  2  0  0  0  0
 18 24  1  0  0  0  0
 18 25  1  0  0  0  0
 19 35  1  0  0  0  0
 19 36  1  0  0  0  0
 19 37  1  0  0  0  0
 20 38  1  0  0  0  0
 20 39  1  0  0  0  0
 20 40  1  0  0  0  0
 21 28  1  0  0  0  0
 21 43  1  0  0  0  0
 22 27  1  0  0  0  0
 22 31  1  0  0  0  0
 22 42  1  0  0  0  0
 23 26  1  0  0  0  0
 23 29  2  0  0  0  0
 25 28  2  0  0  0  0
 25 44  1  0  0  0  0
 26 30  2  0  0  0  0
 27 45  1  0  0  0  0
 27 46  1  0  0  0  0
 28 48  1  0  0  0  0
 29 32  1  0  0  0  0
 29 49  1  0  0  0  0
 30 33  1  0  0  0  0
 30 50  1  0  0  0  0
 32 33  2  0  0  0  0
 32 51  1  0  0  0  0
 33 52  1  0  0  0  0
M  END
> <PUBCHEM_COMPOUND_CID>
500996
> <PUBCHEM_COMPOUND_CANONICALIZED>
1
> <PUBCHEM_CACTVS_COMPLEXITY>
795
> <PUBCHEM_CACTVS_HBOND_ACCEPTOR>
8
> <PUBCHEM_CACTVS_HBOND_DONOR>
5
> <PUBCHEM_CACTVS_ROTATABLE_BOND>
7
> <PUBCHEM_CACTVS_SUBSKEYS>
AAADceB7uAIAAAAAAAAAAAAAAAAAAWLAAAAwYAAAAAAAAFgB/gAAHggQCCAADSjJnwQz2LfNkhCoQyfyfICCgC2lEqAJ2aG4dNiKaLrA3bGUYYholgLYyecciACOAAAAQAACACAAAACAAAQAQAAAAAAAAA==
> <PUBCHEM_IUPAC_OPENEYE_NAME>
2-[[2-[1-(1H-benzimidazol-2-yl)ethyl]-3-methyl-benzimidazole-4-carbonyl]amino]-3-phosphono-propanoic acid
> <PUBCHEM_IUPAC_CAS_NAME>
2-[[[2-[1-(1H-benzimidazol-2-yl)ethyl]-3-methyl-4-benzimidazolyl]-oxomethyl]amino]-3-phosphonopropanoic acid
> <PUBCHEM_IUPAC_NAME_MARKUP>
2-[[2-[1-(1<I>H</I>-benzimidazol-2-yl)ethyl]-3-methylbenzimidazole-4-carbonyl]amino]-3-phosphonopropanoic acid
> <PUBCHEM_IUPAC_NAME>
2-[[2-[1-(1H-benzimidazol-2-yl)ethyl]-3-methylbenzimidazole-4-carbonyl]amino]-3-phosphonopropanoic acid
> <PUBCHEM_IUPAC_SYSTEMATIC_NAME>
2-[[2-[1-(1H-benzimidazol-2-yl)ethyl]-3-methyl-benzimidazol-4-yl]carbonylamino]-3-phosphono-propanoic acid
> <PUBCHEM_IUPAC_TRADITIONAL_NAME>
2-[[2-[1-(1H-benzimidazol-2-yl)ethyl]-3-methyl-benzimidazole-4-carbonyl]amino]-3-phosphono-propionic acid
> <PUBCHEM_IUPAC_INCHI>
InChI=1S/C21H22N5O6P/c1-11(18-22-13-7-3-4-8-14(13)23-18)19-24-15-9-5-6-12(17(15)26(19)2)20(27)25-16(21(28)29)10-33(30,31)32/h3-9,11,16H,10H2,1-2H3,(H,22,23)(H,25,27)(H,28,29)(H2,30,31,32)
> <PUBCHEM_IUPAC_INCHIKEY>
FESQCMADYYULGP-UHFFFAOYSA-N
> <PUBCHEM_XLOGP3_AA>
0.4
> <PUBCHEM_EXACT_MASS>
471.13077044
> <PUBCHEM_MOLECULAR_FORMULA>
C21H22N5O6P
> <PUBCHEM_MOLECULAR_WEIGHT>
471.4
> <PUBCHEM_OPENEYE_CAN_SMILES>
CC(C1=NC2=CC=CC=C2N1)C3=NC4=CC=CC(=C4N3C)C(=O)NC(CP(=O)(O)O)C(=O)O
> <PUBCHEM_OPENEYE_ISO_SMILES>
CC(C1=NC2=CC=CC=C2N1)C3=NC4=CC=CC(=C4N3C)C(=O)NC(CP(=O)(O)O)C(=O)O
> <PUBCHEM_CACTVS_TPSA>
170
> <PUBCHEM_MONOISOTOPIC_WEIGHT>
471.13077044
> <PUBCHEM_TOTAL_CHARGE>
0
> <PUBCHEM_HEAVY_ATOM_COUNT>
33
> <PUBCHEM_ATOM_DEF_STEREO_COUNT>
0
> <PUBCHEM_ATOM_UDEF_STEREO_COUNT>
2
> <PUBCHEM_BOND_DEF_STEREO_COUNT>
0
> <PUBCHEM_BOND_UDEF_STEREO_COUNT>
0
> <PUBCHEM_ISOTOPIC_ATOM_COUNT>
0
> <PUBCHEM_COMPONENT_COUNT>
1
> <PUBCHEM_CACTVS_TAUTO_COUNT>
-1
> <PUBCHEM_COORDINATE_TYPE>
1
5
255
> <PUBCHEM_BONDANNOTATIONS>
10  17  8
10  23  8
11  17  8
11  26  8
13  19  3
15  16  8
15  18  8
16  21  8
18  25  8
21  28  8
22  27  3
23  26  8
23  29  8
25  28  8
26  30  8
29  32  8
30  33  8
32  33  8
8  14  8
8  15  8
9  14  8
9  16  8
$$$$
