500994
  -OEChem-10302200282D
 57 60  0     1  0  0  0  0  0999 V2000
    3.4030    1.2478    0.0000 P   0  0  0  0  0  0  0  0  0  0  0  0
    6.0010   -0.2522    0.0000 O   0  0  0  0  0  0  0  0  0  0  0  0
    2.5369    1.7478    0.0000 O   0  0  0  0  0  0  0  0  0  0  0  0
    2.9030    0.3818    0.0000 O   0  0  0  0  0  0  0  0  0  0  0  0
    4.2690    2.7478    0.0000 O   0  0  0  0  0  0  0  0  0  0  0  0
    3.9030    2.1138    0.0000 O   0  0  0  0  0  0  0  0  0  0  0  0
    6.0010    2.7478    0.0000 O   0  0  0  0  0  0  0  0  0  0  0  0
   15.4249   -1.6931    0.0000 O   0  0  0  0  0  0  0  0  0  0  0  0
    9.5453    2.5526    0.0000 N   0  0  0  0  0  0  0  0  0  0  0  0
    9.5453    0.9431    0.0000 N   0  0  0  0  0  0  0  0  0  0  0  0
   12.6177    0.7787    0.0000 N   0  0  0  0  0  0  0  0  0  0  0  0
   11.2238   -0.0260    0.0000 N   0  0  0  0  0  0  0  0  0  0  0  0
   14.5589   -3.1931    0.0000 N   0  0  0  0  0  0  0  0  0  0  0  0
   11.1289    1.7478    0.0000 C   0  0  3  0  0  0  0  0  0  0  0  0
   10.1289    1.7478    0.0000 C   0  0  0  0  0  0  0  0  0  0  0  0
    8.5991    2.2478    0.0000 C   0  0  0  0  0  0  0  0  0  0  0  0
   11.6289    0.8818    0.0000 C   0  0  0  0  0  0  0  0  0  0  0  0
    8.5991    1.2478    0.0000 C   0  0  0  0  0  0  0  0  0  0  0  0
   11.6289    2.6138    0.0000 C   0  0  0  0  0  0  0  0  0  0  0  0
    6.8671    1.2478    0.0000 C   0  0  0  0  0  0  0  0  0  0  0  0
    7.7331    0.7478    0.0000 C   0  0  0  0  0  0  0  0  0  0  0  0
    7.7331    2.7478    0.0000 C   0  0  0  0  0  0  0  0  0  0  0  0
    5.1350    1.2478    0.0000 C   0  0  3  0  0  0  0  0  0  0  0  0
    9.8560    3.5031    0.0000 C   0  0  0  0  0  0  0  0  0  0  0  0
   12.8269   -0.1931    0.0000 C   0  0  0  0  0  0  0  0  0  0  0  0
    6.0010    0.7478    0.0000 C   0  0  0  0  0  0  0  0  0  0  0  0
    6.8671    2.2478    0.0000 C   0  0  0  0  0  0  0  0  0  0  0  0
   11.9608   -0.6931    0.0000 C   0  0  0  0  0  0  0  0  0  0  0  0
    4.2690    0.7478    0.0000 C   0  0  0  0  0  0  0  0  0  0  0  0
   13.6929   -0.6931    0.0000 C   0  0  0  0  0  0  0  0  0  0  0  0
   11.9608   -1.6931    0.0000 C   0  0  0  0  0  0  0  0  0  0  0  0
    5.1350    2.2478    0.0000 C   0  0  0  0  0  0  0  0  0  0  0  0
   13.6929   -1.6931    0.0000 C   0  0  0  0  0  0  0  0  0  0  0  0
   12.8269   -2.1931    0.0000 C   0  0  0  0  0  0  0  0  0  0  0  0
   14.5589   -2.1931    0.0000 C   0  0  0  0  0  0  0  0  0  0  0  0
   10.8189    2.2848    0.0000 H   0  0  0  0  0  0  0  0  0  0  0  0
   12.1659    2.3038    0.0000 H   0  0  0  0  0  0  0  0  0  0  0  0
   11.9389    3.1508    0.0000 H   0  0  0  0  0  0  0  0  0  0  0  0
   11.0920    2.9238    0.0000 H   0  0  0  0  0  0  0  0  0  0  0  0
    7.7331    0.1278    0.0000 H   0  0  0  0  0  0  0  0  0  0  0  0
    5.1350    0.6278    0.0000 H   0  0  0  0  0  0  0  0  0  0  0  0
    7.7331    3.3678    0.0000 H   0  0  0  0  0  0  0  0  0  0  0  0
   13.0317    1.2402    0.0000 H   0  0  0  0  0  0  0  0  0  0  0  0
   10.4453    3.3105    0.0000 H   0  0  0  0  0  0  0  0  0  0  0  0
   10.0486    4.0924    0.0000 H   0  0  0  0  0  0  0  0  0  0  0  0
    9.2667    3.6957    0.0000 H   0  0  0  0  0  0  0  0  0  0  0  0
    6.3301    2.5578    0.0000 H   0  0  0  0  0  0  0  0  0  0  0  0
    3.8705    0.2729    0.0000 H   0  0  0  0  0  0  0  0  0  0  0  0
    4.6675    0.2729    0.0000 H   0  0  0  0  0  0  0  0  0  0  0  0
   14.2298   -0.3831    0.0000 H   0  0  0  0  0  0  0  0  0  0  0  0
   11.4239   -2.0031    0.0000 H   0  0  0  0  0  0  0  0  0  0  0  0
   12.8269   -2.8131    0.0000 H   0  0  0  0  0  0  0  0  0  0  0  0
    2.0000    1.4378    0.0000 H   0  0  0  0  0  0  0  0  0  0  0  0
    3.2130   -0.1551    0.0000 H   0  0  0  0  0  0  0  0  0  0  0  0
    4.2690    3.3678    0.0000 H   0  0  0  0  0  0  0  0  0  0  0  0
   15.0959   -3.5031    0.0000 H   0  0  0  0  0  0  0  0  0  0  0  0
   14.0220   -3.5031    0.0000 H   0  0  0  0  0  0  0  0  0  0  0  0
  1  3  1  0  0  0  0
  1  4  1  0  0  0  0
  1  6  2  0  0  0  0
  1 29  1  0  0  0  0
  2 26  2  0  0  0  0
  3 53  1  0  0  0  0
  4 54  1  0  0  0  0
  5 32  1  0  0  0  0
  5 55  1  0  0  0  0
  7 32  2  0  0  0  0
  8 35  2  0  0  0  0
  9 15  1  0  0  0  0
  9 16  1  0  0  0  0
  9 24  1  0  0  0  0
 10 15  2  0  0  0  0
 10 18  1  0  0  0  0
 11 17  1  0  0  0  0
 11 25  1  0  0  0  0
 11 43  1  0  0  0  0
 12 17  2  0  0  0  0
 12 28  1  0  0  0  0
 13 35  1  0  0  0  0
 13 56  1  0  0  0  0
 13 57  1  0  0  0  0
 14 15  1  0  0  0  0
 14 17  1  0  0  0  0
 14 19  1  0  0  0  0
 14 36  1  0  0  0  0
 16 18  2  0  0  0  0
 16 22  1  0  0  0  0
 18 21  1  0  0  0  0
 19 37  1  0  0  0  0
 19 38  1  0  0  0  0
 19 39  1  0  0  0  0
 20 21  2  0  0  0  0
 20 26  1  0  0  0  0
 20 27  1  0  0  0  0
 21 40  1  0  0  0  0
 22 27  2  0  0  0  0
 22 42  1  0  0  0  0
 23 26  1  0  0  0  0
 23 29  1  0  0  0  0
 23 32  1  0  0  0  0
 23 41  1  0  0  0  0
 24 44  1  0  0  0  0
 24 45  1  0  0  0  0
 24 46  1  0  0  0  0
 25 28  2  0  0  0  0
 25 30  1  0  0  0  0
 27 47  1  0  0  0  0
 28 31  1  0  0  0  0
 29 48  1  0  0  0  0
 29 49  1  0  0  0  0
 30 33  2  0  0  0  0
 30 50  1  0  0  0  0
 31 34  2  0  0  0  0
 31 51  1  0  0  0  0
 33 34  1  0  0  0  0
 33 35  1  0  0  0  0
 34 52  1  0  0  0  0
M  END
> <PUBCHEM_COMPOUND_CID>
500994
> <PUBCHEM_COMPOUND_CANONICALIZED>
1
> <PUBCHEM_CACTVS_COMPLEXITY>
899
> <PUBCHEM_CACTVS_HBOND_ACCEPTOR>
9
> <PUBCHEM_CACTVS_HBOND_DONOR>
5
> <PUBCHEM_CACTVS_ROTATABLE_BOND>
8
> <PUBCHEM_CACTVS_SUBSKEYS>
AAADceB7uAIAAAAAAAAAAAAAAAAAAWLAAAAwYAAAAAAAAFgB/gAAHggQCCAADQyJnwQz2LfNkhCoQ6fyfICCgC2lEqAJ2SE4dNiIaLbI3ZGUYQhssALIyaecyeCeCAAAQAAAACAQAACAAAAAQAAAAAAAAA==
> <PUBCHEM_IUPAC_OPENEYE_NAME>
3-[2-[1-(6-carbamoyl-1H-benzimidazol-2-yl)ethyl]-1-methyl-benzimidazol-5-yl]-3-oxo-2-(phosphonomethyl)propanoic acid
> <PUBCHEM_IUPAC_CAS_NAME>
3-[2-[1-(6-carbamoyl-1H-benzimidazol-2-yl)ethyl]-1-methyl-5-benzimidazolyl]-3-oxo-2-(phosphonomethyl)propanoic acid
> <PUBCHEM_IUPAC_NAME_MARKUP>
3-[2-[1-(6-carbamoyl-1<I>H</I>-benzimidazol-2-yl)ethyl]-1-methylbenzimidazol-5-yl]-3-oxo-2-(phosphonomethyl)propanoic acid
> <PUBCHEM_IUPAC_NAME>
3-[2-[1-(6-carbamoyl-1H-benzimidazol-2-yl)ethyl]-1-methylbenzimidazol-5-yl]-3-oxo-2-(phosphonomethyl)propanoic acid
> <PUBCHEM_IUPAC_SYSTEMATIC_NAME>
3-[2-[1-(6-aminocarbonyl-1H-benzimidazol-2-yl)ethyl]-1-methyl-benzimidazol-5-yl]-3-oxidanylidene-2-(phosphonomethyl)propanoic acid
> <PUBCHEM_IUPAC_TRADITIONAL_NAME>
3-[2-[1-(6-carbamoyl-1H-benzimidazol-2-yl)ethyl]-1-methyl-benzimidazol-5-yl]-3-keto-2-(phosphonomethyl)propionic acid
> <PUBCHEM_IUPAC_INCHI>
InChI=1S/C22H22N5O7P/c1-10(20-24-14-5-3-12(19(23)29)8-15(14)25-20)21-26-16-7-11(4-6-17(16)27(21)2)18(28)13(22(30)31)9-35(32,33)34/h3-8,10,13H,9H2,1-2H3,(H2,23,29)(H,24,25)(H,30,31)(H2,32,33,34)
> <PUBCHEM_IUPAC_INCHIKEY>
MXDHXCGIJTWSKJ-UHFFFAOYSA-N
> <PUBCHEM_XLOGP3_AA>
-0.2
> <PUBCHEM_EXACT_MASS>
499.12568506
> <PUBCHEM_MOLECULAR_FORMULA>
C22H22N5O7P
> <PUBCHEM_MOLECULAR_WEIGHT>
499.4
> <PUBCHEM_OPENEYE_CAN_SMILES>
CC(C1=NC2=C(N1)C=C(C=C2)C(=O)N)C3=NC4=C(N3C)C=CC(=C4)C(=O)C(CP(=O)(O)O)C(=O)O
> <PUBCHEM_OPENEYE_ISO_SMILES>
CC(C1=NC2=C(N1)C=C(C=C2)C(=O)N)C3=NC4=C(N3C)C=CC(=C4)C(=O)C(CP(=O)(O)O)C(=O)O
> <PUBCHEM_CACTVS_TPSA>
202
> <PUBCHEM_MONOISOTOPIC_WEIGHT>
499.12568506
> <PUBCHEM_TOTAL_CHARGE>
0
> <PUBCHEM_HEAVY_ATOM_COUNT>
35
> <PUBCHEM_ATOM_DEF_STEREO_COUNT>
0
> <PUBCHEM_ATOM_UDEF_STEREO_COUNT>
2
> <PUBCHEM_BOND_DEF_STEREO_COUNT>
0
> <PUBCHEM_BOND_UDEF_STEREO_COUNT>
0
> <PUBCHEM_ISOTOPIC_ATOM_COUNT>
0
> <PUBCHEM_COMPONENT_COUNT>
1
> <PUBCHEM_CACTVS_TAUTO_COUNT>
-1
> <PUBCHEM_COORDINATE_TYPE>
1
5
255
> <PUBCHEM_BONDANNOTATIONS>
10  15  8
10  18  8
11  17  8
11  25  8
12  17  8
12  28  8
14  19  3
16  18  8
16  22  8
18  21  8
20  21  8
20  27  8
22  27  8
23  29  3
25  28  8
25  30  8
28  31  8
30  33  8
31  34  8
33  34  8
9  15  8
9  16  8
$$$$
