500991
  -OEChem-10302200282D
 64 67  0     1  0  0  0  0  0999 V2000
    3.4030    1.1423    0.0000 P   0  0  0  0  0  0  0  0  0  0  0  0
    6.8671    2.1423    0.0000 O   0  0  0  0  0  0  0  0  0  0  0  0
    2.5369    1.6423    0.0000 O   0  0  0  0  0  0  0  0  0  0  0  0
    2.9030    0.2763    0.0000 O   0  0  0  0  0  0  0  0  0  0  0  0
    4.2690    2.6423    0.0000 O   0  0  0  0  0  0  0  0  0  0  0  0
    3.9030    2.0083    0.0000 O   0  0  0  0  0  0  0  0  0  0  0  0
    6.0010    2.6423    0.0000 O   0  0  0  0  0  0  0  0  0  0  0  0
   10.4114    0.9470    0.0000 N   0  0  0  0  0  0  0  0  0  0  0  0
   10.4114   -0.6624    0.0000 N   0  0  0  0  0  0  0  0  0  0  0  0
   13.4837   -0.8268    0.0000 N   0  0  0  0  0  0  0  0  0  0  0  0
    6.0010    0.6423    0.0000 N   0  0  0  0  0  0  0  0  0  0  0  0
   12.0899   -1.6315    0.0000 N   0  0  0  0  0  0  0  0  0  0  0  0
   10.7220    1.8976    0.0000 C   0  0  0  0  0  0  0  0  0  0  0  0
   11.7005    2.1038    0.0000 C   0  0  0  0  0  0  0  0  0  0  0  0
   12.0112    3.0543    0.0000 C   0  0  0  0  0  0  0  0  0  0  0  0
    9.4651    0.6423    0.0000 C   0  0  0  0  0  0  0  0  0  0  0  0
   10.9950    0.1423    0.0000 C   0  0  0  0  0  0  0  0  0  0  0  0
    9.4651   -0.3577    0.0000 C   0  0  0  0  0  0  0  0  0  0  0  0
   11.9950    0.1423    0.0000 C   0  0  0  0  0  0  0  0  0  0  0  0
    8.5991    1.1423    0.0000 C   0  0  0  0  0  0  0  0  0  0  0  0
   12.9897    3.2605    0.0000 C   0  0  0  0  0  0  0  0  0  0  0  0
   11.3433    3.7986    0.0000 C   0  0  0  0  0  0  0  0  0  0  0  0
    7.7331    0.6423    0.0000 C   0  0  0  0  0  0  0  0  0  0  0  0
   12.4950   -0.7237    0.0000 C   0  0  0  0  0  0  0  0  0  0  0  0
    8.5991   -0.8577    0.0000 C   0  0  0  0  0  0  0  0  0  0  0  0
    7.7331   -0.3577    0.0000 C   0  0  0  0  0  0  0  0  0  0  0  0
    6.8671    1.1423    0.0000 C   0  0  0  0  0  0  0  0  0  0  0  0
    5.1350    1.1423    0.0000 C   0  0  3  0  0  0  0  0  0  0  0  0
   13.6929   -1.7986    0.0000 C   0  0  0  0  0  0  0  0  0  0  0  0
   12.8269   -2.2986    0.0000 C   0  0  0  0  0  0  0  0  0  0  0  0
    4.2690    0.6423    0.0000 C   0  0  0  0  0  0  0  0  0  0  0  0
   14.5589   -2.2986    0.0000 C   0  0  0  0  0  0  0  0  0  0  0  0
   12.8269   -3.2986    0.0000 C   0  0  0  0  0  0  0  0  0  0  0  0
    5.1350    2.1423    0.0000 C   0  0  0  0  0  0  0  0  0  0  0  0
   14.5589   -3.2986    0.0000 C   0  0  0  0  0  0  0  0  0  0  0  0
   13.6929   -3.7986    0.0000 C   0  0  0  0  0  0  0  0  0  0  0  0
   10.7015    2.5172    0.0000 H   0  0  0  0  0  0  0  0  0  0  0  0
   10.1082    1.9849    0.0000 H   0  0  0  0  0  0  0  0  0  0  0  0
   11.7211    1.4841    0.0000 H   0  0  0  0  0  0  0  0  0  0  0  0
   12.3143    2.0164    0.0000 H   0  0  0  0  0  0  0  0  0  0  0  0
   12.2038    3.6436    0.0000 H   0  0  0  0  0  0  0  0  0  0  0  0
   12.5776    0.3544    0.0000 H   0  0  0  0  0  0  0  0  0  0  0  0
   11.8873    0.7529    0.0000 H   0  0  0  0  0  0  0  0  0  0  0  0
    8.5991    1.7623    0.0000 H   0  0  0  0  0  0  0  0  0  0  0  0
   13.1176    2.6538    0.0000 H   0  0  0  0  0  0  0  0  0  0  0  0
   13.5964    3.3884    0.0000 H   0  0  0  0  0  0  0  0  0  0  0  0
   12.8618    3.8672    0.0000 H   0  0  0  0  0  0  0  0  0  0  0  0
   11.8048    4.2127    0.0000 H   0  0  0  0  0  0  0  0  0  0  0  0
   10.9293    4.2601    0.0000 H   0  0  0  0  0  0  0  0  0  0  0  0
   10.8819    3.3845    0.0000 H   0  0  0  0  0  0  0  0  0  0  0  0
    8.5991   -1.4777    0.0000 H   0  0  0  0  0  0  0  0  0  0  0  0
    7.1962   -0.6677    0.0000 H   0  0  0  0  0  0  0  0  0  0  0  0
   13.8978   -0.3653    0.0000 H   0  0  0  0  0  0  0  0  0  0  0  0
    5.1350    0.5223    0.0000 H   0  0  0  0  0  0  0  0  0  0  0  0
    6.0010    0.0223    0.0000 H   0  0  0  0  0  0  0  0  0  0  0  0
    3.8705    0.1674    0.0000 H   0  0  0  0  0  0  0  0  0  0  0  0
    4.6675    0.1674    0.0000 H   0  0  0  0  0  0  0  0  0  0  0  0
   15.0959   -1.9886    0.0000 H   0  0  0  0  0  0  0  0  0  0  0  0
   12.2899   -3.6086    0.0000 H   0  0  0  0  0  0  0  0  0  0  0  0
   15.0959   -3.6086    0.0000 H   0  0  0  0  0  0  0  0  0  0  0  0
   13.6929   -4.4186    0.0000 H   0  0  0  0  0  0  0  0  0  0  0  0
    2.0000    1.3323    0.0000 H   0  0  0  0  0  0  0  0  0  0  0  0
    3.2130   -0.2607    0.0000 H   0  0  0  0  0  0  0  0  0  0  0  0
    4.2690    3.2623    0.0000 H   0  0  0  0  0  0  0  0  0  0  0  0
  1  3  1  0  0  0  0
  1  4  1  0  0  0  0
  1  6  2  0  0  0  0
  1 31  1  0  0  0  0
  2 27  2  0  0  0  0
  3 62  1  0  0  0  0
  4 63  1  0  0  0  0
  5 34  1  0  0  0  0
  5 64  1  0  0  0  0
  7 34  2  0  0  0  0
  8 13  1  0  0  0  0
  8 16  1  0  0  0  0
  8 17  1  0  0  0  0
  9 17  2  0  0  0  0
  9 18  1  0  0  0  0
 10 24  1  0  0  0  0
 10 29  1  0  0  0  0
 10 53  1  0  0  0  0
 11 27  1  0  0  0  0
 11 28  1  0  0  0  0
 11 55  1  0  0  0  0
 12 24  2  0  0  0  0
 12 30  1  0  0  0  0
 13 14  1  0  0  0  0
 13 37  1  0  0  0  0
 13 38  1  0  0  0  0
 14 15  1  0  0  0  0
 14 39  1  0  0  0  0
 14 40  1  0  0  0  0
 15 21  1  0  0  0  0
 15 22  1  0  0  0  0
 15 41  1  0  0  0  0
 16 18  2  0  0  0  0
 16 20  1  0  0  0  0
 17 19  1  0  0  0  0
 18 25  1  0  0  0  0
 19 24  1  0  0  0  0
 19 42  1  0  0  0  0
 19 43  1  0  0  0  0
 20 23  2  0  0  0  0
 20 44  1  0  0  0  0
 21 45  1  0  0  0  0
 21 46  1  0  0  0  0
 21 47  1  0  0  0  0
 22 48  1  0  0  0  0
 22 49  1  0  0  0  0
 22 50  1  0  0  0  0
 23 26  1  0  0  0  0
 23 27  1  0  0  0  0
 25 26  2  0  0  0  0
 25 51  1  0  0  0  0
 26 52  1  0  0  0  0
 28 31  1  0  0  0  0
 28 34  1  0  0  0  0
 28 54  1  0  0  0  0
 29 30  1  0  0  0  0
 29 32  2  0  0  0  0
 30 33  2  0  0  0  0
 31 56  1  0  0  0  0
 31 57  1  0  0  0  0
 32 35  1  0  0  0  0
 32 58  1  0  0  0  0
 33 36  1  0  0  0  0
 33 59  1  0  0  0  0
 35 36  2  0  0  0  0
 35 60  1  0  0  0  0
 36 61  1  0  0  0  0
M  END
> <PUBCHEM_COMPOUND_CID>
500991
> <PUBCHEM_COMPOUND_CANONICALIZED>
1
> <PUBCHEM_CACTVS_COMPLEXITY>
840
> <PUBCHEM_CACTVS_HBOND_ACCEPTOR>
8
> <PUBCHEM_CACTVS_HBOND_DONOR>
5
> <PUBCHEM_CACTVS_ROTATABLE_BOND>
10
> <PUBCHEM_CACTVS_SUBSKEYS>
AAADceB7uAIAAAAAAAAAAAAAAAAAAWLAAAAwYAAAAAAAAFgB/gAAHggQCCAADSjJnwQz2LfNkhCoQyfyfICCgC2lEqAJ2aG4dNiKaLLA3bGUYQholgLYyacciQCeCAAAQAAAACAQAACAAAAAQAAAAAAAAA==
> <PUBCHEM_IUPAC_OPENEYE_NAME>
2-[[2-(1H-benzimidazol-2-ylmethyl)-3-isopentyl-benzimidazole-5-carbonyl]amino]-3-phosphono-propanoic acid
> <PUBCHEM_IUPAC_CAS_NAME>
2-[[[2-(1H-benzimidazol-2-ylmethyl)-3-(3-methylbutyl)-5-benzimidazolyl]-oxomethyl]amino]-3-phosphonopropanoic acid
> <PUBCHEM_IUPAC_NAME_MARKUP>
2-[[2-(1<I>H</I>-benzimidazol-2-ylmethyl)-3-(3-methylbutyl)benzimidazole-5-carbonyl]amino]-3-phosphonopropanoic acid
> <PUBCHEM_IUPAC_NAME>
2-[[2-(1H-benzimidazol-2-ylmethyl)-3-(3-methylbutyl)benzimidazole-5-carbonyl]amino]-3-phosphonopropanoic acid
> <PUBCHEM_IUPAC_SYSTEMATIC_NAME>
2-[[2-(1H-benzimidazol-2-ylmethyl)-3-(3-methylbutyl)benzimidazol-5-yl]carbonylamino]-3-phosphono-propanoic acid
> <PUBCHEM_IUPAC_TRADITIONAL_NAME>
2-[[2-(1H-benzimidazol-2-ylmethyl)-3-isoamyl-benzimidazole-5-carbonyl]amino]-3-phosphono-propionic acid
> <PUBCHEM_IUPAC_INCHI>
InChI=1S/C24H28N5O6P/c1-14(2)9-10-29-20-11-15(23(30)28-19(24(31)32)13-36(33,34)35)7-8-18(20)27-22(29)12-21-25-16-5-3-4-6-17(16)26-21/h3-8,11,14,19H,9-10,12-13H2,1-2H3,(H,25,26)(H,28,30)(H,31,32)(H2,33,34,35)
> <PUBCHEM_IUPAC_INCHIKEY>
RDNPNVCQGXONSL-UHFFFAOYSA-N
> <PUBCHEM_XLOGP3_AA>
1.7
> <PUBCHEM_EXACT_MASS>
513.17772063
> <PUBCHEM_MOLECULAR_FORMULA>
C24H28N5O6P
> <PUBCHEM_MOLECULAR_WEIGHT>
513.5
> <PUBCHEM_OPENEYE_CAN_SMILES>
CC(C)CCN1C2=C(C=CC(=C2)C(=O)NC(CP(=O)(O)O)C(=O)O)N=C1CC3=NC4=CC=CC=C4N3
> <PUBCHEM_OPENEYE_ISO_SMILES>
CC(C)CCN1C2=C(C=CC(=C2)C(=O)NC(CP(=O)(O)O)C(=O)O)N=C1CC3=NC4=CC=CC=C4N3
> <PUBCHEM_CACTVS_TPSA>
170
> <PUBCHEM_MONOISOTOPIC_WEIGHT>
513.17772063
> <PUBCHEM_TOTAL_CHARGE>
0
> <PUBCHEM_HEAVY_ATOM_COUNT>
36
> <PUBCHEM_ATOM_DEF_STEREO_COUNT>
0
> <PUBCHEM_ATOM_UDEF_STEREO_COUNT>
1
> <PUBCHEM_BOND_DEF_STEREO_COUNT>
0
> <PUBCHEM_BOND_UDEF_STEREO_COUNT>
0
> <PUBCHEM_ISOTOPIC_ATOM_COUNT>
0
> <PUBCHEM_COMPONENT_COUNT>
1
> <PUBCHEM_CACTVS_TAUTO_COUNT>
-1
> <PUBCHEM_COORDINATE_TYPE>
1
5
255
> <PUBCHEM_BONDANNOTATIONS>
10  24  8
10  29  8
12  24  8
12  30  8
16  18  8
16  20  8
18  25  8
20  23  8
23  26  8
25  26  8
28  31  3
29  30  8
29  32  8
30  33  8
32  35  8
33  36  8
35  36  8
8  16  8
8  17  8
9  17  8
9  18  8
$$$$
