500903
  -OEChem-10302200282D
 32 33  0     1  0  0  0  0  0999 V2000
    3.6377   -1.1307    0.0000 O   0  0  0  0  0  0  0  0  0  0  0  0
    6.2068   -1.4397    0.0000 O   0  0  0  0  0  0  0  0  0  0  0  0
    5.5345   -2.8907    0.0000 O   0  0  0  0  0  0  0  0  0  0  0  0
    2.3644   -2.7862    0.0000 O   0  0  0  0  0  0  0  0  0  0  0  0
    6.1788    0.4571    0.0000 O   0  0  0  0  0  0  0  0  0  0  0  0
    4.4467    3.4571    0.0000 O   0  0  0  0  0  0  0  0  0  0  0  0
    4.4467    0.4571    0.0000 N   0  0  0  0  0  0  0  0  0  0  0  0
    5.3128    1.9571    0.0000 N   0  0  0  0  0  0  0  0  0  0  0  0
    5.2558   -1.1307    0.0000 C   0  0  2  0  0  0  0  0  0  0  0  0
    4.9467   -2.0817    0.0000 C   0  0  1  0  0  0  0  0  0  0  0  0
    4.4467   -0.5429    0.0000 C   0  0  1  0  0  0  0  0  0  0  0  0
    3.9467   -2.0817    0.0000 C   0  0  1  0  0  0  0  0  0  0  0  0
    5.8435   -0.3216    0.0000 C   0  0  0  0  0  0  0  0  0  0  0  0
    3.3590   -2.8907    0.0000 C   0  0  0  0  0  0  0  0  0  0  0  0
    5.3128    0.9571    0.0000 C   0  0  0  0  0  0  0  0  0  0  0  0
    3.5807    0.9571    0.0000 C   0  0  0  0  0  0  0  0  0  0  0  0
    3.5807    1.9571    0.0000 C   0  0  0  0  0  0  0  0  0  0  0  0
    4.4467    2.4571    0.0000 C   0  0  0  0  0  0  0  0  0  0  0  0
    5.5591   -1.9847    0.0000 H   0  0  0  0  0  0  0  0  0  0  0  0
    3.8943   -0.2614    0.0000 H   0  0  0  0  0  0  0  0  0  0  0  0
    3.3344   -1.9847    0.0000 H   0  0  0  0  0  0  0  0  0  0  0  0
    6.3451   -0.6861    0.0000 H   0  0  0  0  0  0  0  0  0  0  0  0
    6.2080    0.1800    0.0000 H   0  0  0  0  0  0  0  0  0  0  0  0
    5.3420    0.0428    0.0000 H   0  0  0  0  0  0  0  0  0  0  0  0
    3.1880   -3.4867    0.0000 H   0  0  0  0  0  0  0  0  0  0  0  0
    3.9162   -3.1625    0.0000 H   0  0  0  0  0  0  0  0  0  0  0  0
    6.6676   -1.0248    0.0000 H   0  0  0  0  0  0  0  0  0  0  0  0
    5.2823   -3.4571    0.0000 H   0  0  0  0  0  0  0  0  0  0  0  0
    3.0438    0.6471    0.0000 H   0  0  0  0  0  0  0  0  0  0  0  0
    2.0000   -3.2878    0.0000 H   0  0  0  0  0  0  0  0  0  0  0  0
    5.8497    2.2671    0.0000 H   0  0  0  0  0  0  0  0  0  0  0  0
    3.0438    2.2671    0.0000 H   0  0  0  0  0  0  0  0  0  0  0  0
  1 11  1  0  0  0  0
  1 12  1  0  0  0  0
  9  2  1  6  0  0  0
  2 27  1  0  0  0  0
 10  3  1  6  0  0  0
  3 28  1  0  0  0  0
  4 14  1  0  0  0  0
  4 30  1  0  0  0  0
  5 15  2  0  0  0  0
  6 18  2  0  0  0  0
 11  7  1  1  0  0  0
  7 15  1  0  0  0  0
  7 16  1  0  0  0  0
  8 15  1  0  0  0  0
  8 18  1  0  0  0  0
  8 31  1  0  0  0  0
  9 10  1  0  0  0  0
  9 11  1  0  0  0  0
  9 13  1  0  0  0  0
 10 12  1  0  0  0  0
 10 19  1  0  0  0  0
 11 20  1  0  0  0  0
 12 14  1  1  0  0  0
 12 21  1  0  0  0  0
 13 22  1  0  0  0  0
 13 23  1  0  0  0  0
 13 24  1  0  0  0  0
 14 25  1  0  0  0  0
 14 26  1  0  0  0  0
 16 17  2  0  0  0  0
 16 29  1  0  0  0  0
 17 18  1  0  0  0  0
 17 32  1  0  0  0  0
M  END
> <PUBCHEM_COMPOUND_CID>
500903
> <PUBCHEM_COMPOUND_CANONICALIZED>
1
> <PUBCHEM_CACTVS_COMPLEXITY>
411
> <PUBCHEM_CACTVS_HBOND_ACCEPTOR>
6
> <PUBCHEM_CACTVS_HBOND_DONOR>
4
> <PUBCHEM_CACTVS_ROTATABLE_BOND>
2
> <PUBCHEM_CACTVS_SUBSKEYS>
AAADccBzOAAAAAAAAAAAAAAAAAAAASAAAAAgAAAAAAAAAAAAAAAAHgAQCAAADFThgAYDAAPABgCIACFWUACAAAAAAgAIAAAIAECDEAIAgAAOQAAPFyITAMDwMAIMAAAAAAAAAAAAAAAAAAAAAAAAAAAAAA==
> <PUBCHEM_IUPAC_OPENEYE_NAME>
1-[(2R,3R,4R,5R)-3,4-dihydroxy-5-(hydroxymethyl)-3-methyl-tetrahydrofuran-2-yl]pyrimidine-2,4-dione
> <PUBCHEM_IUPAC_CAS_NAME>
1-[(2R,3R,4R,5R)-3,4-dihydroxy-5-(hydroxymethyl)-3-methyl-2-oxolanyl]pyrimidine-2,4-dione
> <PUBCHEM_IUPAC_NAME_MARKUP>
1-[(2<I>R</I>,3<I>R</I>,4<I>R</I>,5<I>R</I>)-3,4-dihydroxy-5-(hydroxymethyl)-3-methyloxolan-2-yl]pyrimidine-2,4-dione
> <PUBCHEM_IUPAC_NAME>
1-[(2R,3R,4R,5R)-3,4-dihydroxy-5-(hydroxymethyl)-3-methyloxolan-2-yl]pyrimidine-2,4-dione
> <PUBCHEM_IUPAC_SYSTEMATIC_NAME>
1-[(2R,3R,4R,5R)-5-(hydroxymethyl)-3-methyl-3,4-bis(oxidanyl)oxolan-2-yl]pyrimidine-2,4-dione
> <PUBCHEM_IUPAC_TRADITIONAL_NAME>
1-[(2R,3R,4R,5R)-3,4-dihydroxy-3-methyl-5-methylol-tetrahydrofuran-2-yl]pyrimidine-2,4-quinone
> <PUBCHEM_IUPAC_INCHI>
InChI=1S/C10H14N2O6/c1-10(17)7(15)5(4-13)18-8(10)12-3-2-6(14)11-9(12)16/h2-3,5,7-8,13,15,17H,4H2,1H3,(H,11,14,16)/t5-,7-,8-,10-/m1/s1
> <PUBCHEM_IUPAC_INCHIKEY>
NBKORJKMMVZAOZ-VPCXQMTMSA-N
> <PUBCHEM_XLOGP3_AA>
-2.1
> <PUBCHEM_EXACT_MASS>
258.08518617
> <PUBCHEM_MOLECULAR_FORMULA>
C10H14N2O6
> <PUBCHEM_MOLECULAR_WEIGHT>
258.23
> <PUBCHEM_OPENEYE_CAN_SMILES>
CC1(C(C(OC1N2C=CC(=O)NC2=O)CO)O)O
> <PUBCHEM_OPENEYE_ISO_SMILES>
C[C@]1([C@@H]([C@H](O[C@H]1N2C=CC(=O)NC2=O)CO)O)O
> <PUBCHEM_CACTVS_TPSA>
119
> <PUBCHEM_MONOISOTOPIC_WEIGHT>
258.08518617
> <PUBCHEM_TOTAL_CHARGE>
0
> <PUBCHEM_HEAVY_ATOM_COUNT>
18
> <PUBCHEM_ATOM_DEF_STEREO_COUNT>
4
> <PUBCHEM_ATOM_UDEF_STEREO_COUNT>
0
> <PUBCHEM_BOND_DEF_STEREO_COUNT>
0
> <PUBCHEM_BOND_UDEF_STEREO_COUNT>
0
> <PUBCHEM_ISOTOPIC_ATOM_COUNT>
0
> <PUBCHEM_COMPONENT_COUNT>
1
> <PUBCHEM_CACTVS_TAUTO_COUNT>
3
> <PUBCHEM_COORDINATE_TYPE>
1
5
255
> <PUBCHEM_BONDANNOTATIONS>
12  14  5
16  17  8
17  18  8
9  2  6
10  3  6
11  7  5
7  15  8
7  16  8
8  15  8
8  18  8
$$$$
