500966
  -OEChem-10302200282D
 52 55  0     1  0  0  0  0  0999 V2000
   12.2899    3.6075    0.0000 P   0  0  0  0  0  0  0  0  0  0  0  0
    3.7320   -1.3334    0.0000 F   0  0  0  0  0  0  0  0  0  0  0  0
    2.0000   -2.3334    0.0000 F   0  0  0  0  0  0  0  0  0  0  0  0
   13.1560    4.1075    0.0000 O   0  0  0  0  0  0  0  0  0  0  0  0
   11.7899    4.4735    0.0000 O   0  0  0  0  0  0  0  0  0  0  0  0
   11.4239    0.1075    0.0000 O   0  0  0  0  0  0  0  0  0  0  0  0
   12.7899    2.7414    0.0000 O   0  0  0  0  0  0  0  0  0  0  0  0
   13.1560    2.1075    0.0000 O   0  0  0  0  0  0  0  0  0  0  0  0
   12.2899    0.6075    0.0000 O   0  0  0  0  0  0  0  0  0  0  0  0
    8.6166   -2.3643    0.0000 N   0  0  0  0  0  0  0  0  0  0  0  0
    7.2228   -1.5596    0.0000 N   0  0  0  0  0  0  0  0  0  0  0  0
   10.5579    1.6075    0.0000 N   0  0  0  0  0  0  0  0  0  0  0  0
    5.5443   -4.1382    0.0000 N   0  0  0  0  0  0  0  0  0  0  0  0
    5.5443   -2.5287    0.0000 N   0  0  0  0  0  0  0  0  0  0  0  0
    8.8258   -1.3925    0.0000 C   0  0  0  0  0  0  0  0  0  0  0  0
    7.6279   -2.4674    0.0000 C   0  0  0  0  0  0  0  0  0  0  0  0
    7.1279   -3.3334    0.0000 C   0  0  0  0  0  0  0  0  0  0  0  0
    7.9598   -0.8925    0.0000 C   0  0  0  0  0  0  0  0  0  0  0  0
    9.6919   -0.8925    0.0000 C   0  0  0  0  0  0  0  0  0  0  0  0
   11.4239    2.1075    0.0000 C   0  0  3  0  0  0  0  0  0  0  0  0
    6.1279   -3.3334    0.0000 C   0  0  0  0  0  0  0  0  0  0  0  0
    9.6919    0.1075    0.0000 C   0  0  0  0  0  0  0  0  0  0  0  0
   11.4239    3.1075    0.0000 C   0  0  0  0  0  0  0  0  0  0  0  0
    7.9598    0.1075    0.0000 C   0  0  0  0  0  0  0  0  0  0  0  0
    9.2845   -3.1086    0.0000 C   0  0  0  0  0  0  0  0  0  0  0  0
    8.8258    0.6075    0.0000 C   0  0  0  0  0  0  0  0  0  0  0  0
   10.5579    0.6075    0.0000 C   0  0  0  0  0  0  0  0  0  0  0  0
    4.5981   -3.8334    0.0000 C   0  0  0  0  0  0  0  0  0  0  0  0
    4.5981   -2.8334    0.0000 C   0  0  0  0  0  0  0  0  0  0  0  0
   12.2899    1.6075    0.0000 C   0  0  0  0  0  0  0  0  0  0  0  0
    3.7320   -4.3334    0.0000 C   0  0  0  0  0  0  0  0  0  0  0  0
    3.7320   -2.3334    0.0000 C   0  0  0  0  0  0  0  0  0  0  0  0
    2.8660   -3.8334    0.0000 C   0  0  0  0  0  0  0  0  0  0  0  0
    2.8660   -2.8334    0.0000 C   0  0  0  0  0  0  0  0  0  0  0  0
    7.0202   -3.9440    0.0000 H   0  0  0  0  0  0  0  0  0  0  0  0
    7.7105   -3.5455    0.0000 H   0  0  0  0  0  0  0  0  0  0  0  0
   10.8870    2.4175    0.0000 H   0  0  0  0  0  0  0  0  0  0  0  0
   10.2288   -1.2025    0.0000 H   0  0  0  0  0  0  0  0  0  0  0  0
   11.2119    3.6901    0.0000 H   0  0  0  0  0  0  0  0  0  0  0  0
   10.8133    2.9998    0.0000 H   0  0  0  0  0  0  0  0  0  0  0  0
    7.4229    0.4175    0.0000 H   0  0  0  0  0  0  0  0  0  0  0  0
    8.8230   -3.5227    0.0000 H   0  0  0  0  0  0  0  0  0  0  0  0
    9.6985   -3.5701    0.0000 H   0  0  0  0  0  0  0  0  0  0  0  0
    9.7459   -2.6946    0.0000 H   0  0  0  0  0  0  0  0  0  0  0  0
    8.8258    1.2275    0.0000 H   0  0  0  0  0  0  0  0  0  0  0  0
   10.0209    1.9175    0.0000 H   0  0  0  0  0  0  0  0  0  0  0  0
    5.7369   -4.7275    0.0000 H   0  0  0  0  0  0  0  0  0  0  0  0
    3.7320   -4.9534    0.0000 H   0  0  0  0  0  0  0  0  0  0  0  0
    2.3291   -4.1434    0.0000 H   0  0  0  0  0  0  0  0  0  0  0  0
   13.1560    4.7275    0.0000 H   0  0  0  0  0  0  0  0  0  0  0  0
   11.1699    4.4735    0.0000 H   0  0  0  0  0  0  0  0  0  0  0  0
   13.6929    1.7975    0.0000 H   0  0  0  0  0  0  0  0  0  0  0  0
  1  4  1  0  0  0  0
  1  5  1  0  0  0  0
  1  7  2  0  0  0  0
  1 23  1  0  0  0  0
  2 32  1  0  0  0  0
  3 34  1  0  0  0  0
  4 50  1  0  0  0  0
  5 51  1  0  0  0  0
  6 27  2  0  0  0  0
  8 30  1  0  0  0  0
  8 52  1  0  0  0  0
  9 30  2  0  0  0  0
 10 15  1  0  0  0  0
 10 16  1  0  0  0  0
 10 25  1  0  0  0  0
 11 16  2  0  0  0  0
 11 18  1  0  0  0  0
 12 20  1  0  0  0  0
 12 27  1  0  0  0  0
 12 46  1  0  0  0  0
 13 21  1  0  0  0  0
 13 28  1  0  0  0  0
 13 47  1  0  0  0  0
 14 21  2  0  0  0  0
 14 29  1  0  0  0  0
 15 18  2  0  0  0  0
 15 19  1  0  0  0  0
 16 17  1  0  0  0  0
 17 21  1  0  0  0  0
 17 35  1  0  0  0  0
 17 36  1  0  0  0  0
 18 24  1  0  0  0  0
 19 22  2  0  0  0  0
 19 38  1  0  0  0  0
 20 23  1  0  0  0  0
 20 30  1  0  0  0  0
 20 37  1  0  0  0  0
 22 26  1  0  0  0  0
 22 27  1  0  0  0  0
 23 39  1  0  0  0  0
 23 40  1  0  0  0  0
 24 26  2  0  0  0  0
 24 41  1  0  0  0  0
 25 42  1  0  0  0  0
 25 43  1  0  0  0  0
 25 44  1  0  0  0  0
 26 45  1  0  0  0  0
 28 29  2  0  0  0  0
 28 31  1  0  0  0  0
 29 32  1  0  0  0  0
 31 33  2  0  0  0  0
 31 48  1  0  0  0  0
 32 34  2  0  0  0  0
 33 34  1  0  0  0  0
 33 49  1  0  0  0  0
M  END
> <PUBCHEM_COMPOUND_CID>
500966
> <PUBCHEM_COMPOUND_CANONICALIZED>
1
> <PUBCHEM_CACTVS_COMPLEXITY>
835
> <PUBCHEM_CACTVS_HBOND_ACCEPTOR>
10
> <PUBCHEM_CACTVS_HBOND_DONOR>
5
> <PUBCHEM_CACTVS_ROTATABLE_BOND>
7
> <PUBCHEM_CACTVS_SUBSKEYS>
AAADceB7uYIAAAAAAAAAAAAAAAAAAWLAAAAwYAAAAAAAAFgB/gAAHwgQCCAADCjJnwwz2LfNkhCoQyfyfICCgC2lEqAJ2aG4dNiKaLLA3bGUYQholgLYyacciQCeCAAAQAAAACAQAACAAAAAQAAAAAAAAA==
> <PUBCHEM_IUPAC_OPENEYE_NAME>
2-[[2-[(4,5-difluoro-1H-benzimidazol-2-yl)methyl]-3-methyl-benzimidazole-5-carbonyl]amino]-3-phosphono-propanoic acid
> <PUBCHEM_IUPAC_CAS_NAME>
2-[[[2-[(4,5-difluoro-1H-benzimidazol-2-yl)methyl]-3-methyl-5-benzimidazolyl]-oxomethyl]amino]-3-phosphonopropanoic acid
> <PUBCHEM_IUPAC_NAME_MARKUP>
2-[[2-[(4,5-difluoro-1<I>H</I>-benzimidazol-2-yl)methyl]-3-methylbenzimidazole-5-carbonyl]amino]-3-phosphonopropanoic acid
> <PUBCHEM_IUPAC_NAME>
2-[[2-[(4,5-difluoro-1H-benzimidazol-2-yl)methyl]-3-methylbenzimidazole-5-carbonyl]amino]-3-phosphonopropanoic acid
> <PUBCHEM_IUPAC_SYSTEMATIC_NAME>
2-[[2-[[4,5-bis(fluoranyl)-1H-benzimidazol-2-yl]methyl]-3-methyl-benzimidazol-5-yl]carbonylamino]-3-phosphono-propanoic acid
> <PUBCHEM_IUPAC_TRADITIONAL_NAME>
2-[[2-[(4,5-difluoro-1H-benzimidazol-2-yl)methyl]-3-methyl-benzimidazole-5-carbonyl]amino]-3-phosphono-propionic acid
> <PUBCHEM_IUPAC_INCHI>
InChI=1S/C20H18F2N5O6P/c1-27-14-6-9(19(28)25-13(20(29)30)8-34(31,32)33)2-4-11(14)24-16(27)7-15-23-12-5-3-10(21)17(22)18(12)26-15/h2-6,13H,7-8H2,1H3,(H,23,26)(H,25,28)(H,29,30)(H2,31,32,33)
> <PUBCHEM_IUPAC_INCHIKEY>
CONRXXQNDSIPIL-UHFFFAOYSA-N
> <PUBCHEM_XLOGP3_AA>
0.3
> <PUBCHEM_EXACT_MASS>
493.09627663
> <PUBCHEM_MOLECULAR_FORMULA>
C20H18F2N5O6P
> <PUBCHEM_MOLECULAR_WEIGHT>
493.4
> <PUBCHEM_OPENEYE_CAN_SMILES>
CN1C2=C(C=CC(=C2)C(=O)NC(CP(=O)(O)O)C(=O)O)N=C1CC3=NC4=C(N3)C=CC(=C4F)F
> <PUBCHEM_OPENEYE_ISO_SMILES>
CN1C2=C(C=CC(=C2)C(=O)NC(CP(=O)(O)O)C(=O)O)N=C1CC3=NC4=C(N3)C=CC(=C4F)F
> <PUBCHEM_CACTVS_TPSA>
170
> <PUBCHEM_MONOISOTOPIC_WEIGHT>
493.09627663
> <PUBCHEM_TOTAL_CHARGE>
0
> <PUBCHEM_HEAVY_ATOM_COUNT>
34
> <PUBCHEM_ATOM_DEF_STEREO_COUNT>
0
> <PUBCHEM_ATOM_UDEF_STEREO_COUNT>
1
> <PUBCHEM_BOND_DEF_STEREO_COUNT>
0
> <PUBCHEM_BOND_UDEF_STEREO_COUNT>
0
> <PUBCHEM_ISOTOPIC_ATOM_COUNT>
0
> <PUBCHEM_COMPONENT_COUNT>
1
> <PUBCHEM_CACTVS_TAUTO_COUNT>
-1
> <PUBCHEM_COORDINATE_TYPE>
1
5
255
> <PUBCHEM_BONDANNOTATIONS>
10  15  8
10  16  8
11  16  8
11  18  8
13  21  8
13  28  8
14  21  8
14  29  8
15  18  8
15  19  8
18  24  8
19  22  8
20  23  3
22  26  8
24  26  8
28  29  8
28  31  8
29  32  8
31  33  8
32  34  8
33  34  8
$$$$
