500995
  -OEChem-10302200282D
 53 56  0     1  0  0  0  0  0999 V2000
    3.4030    0.5928    0.0000 P   0  0  0  0  0  0  0  0  0  0  0  0
    6.0010   -0.9072    0.0000 O   0  0  0  0  0  0  0  0  0  0  0  0
    2.5369    1.0928    0.0000 O   0  0  0  0  0  0  0  0  0  0  0  0
    2.9030   -0.2732    0.0000 O   0  0  0  0  0  0  0  0  0  0  0  0
    4.2690    2.0928    0.0000 O   0  0  0  0  0  0  0  0  0  0  0  0
    3.9030    1.4588    0.0000 O   0  0  0  0  0  0  0  0  0  0  0  0
    6.0010    2.0928    0.0000 O   0  0  0  0  0  0  0  0  0  0  0  0
    9.5453    1.8976    0.0000 N   0  0  0  0  0  0  0  0  0  0  0  0
    9.5453    0.2881    0.0000 N   0  0  0  0  0  0  0  0  0  0  0  0
   12.6177    0.1237    0.0000 N   0  0  0  0  0  0  0  0  0  0  0  0
   11.2238   -0.6810    0.0000 N   0  0  0  0  0  0  0  0  0  0  0  0
   11.1289    1.0928    0.0000 C   0  0  3  0  0  0  0  0  0  0  0  0
   10.1289    1.0928    0.0000 C   0  0  0  0  0  0  0  0  0  0  0  0
    8.5991    1.5928    0.0000 C   0  0  0  0  0  0  0  0  0  0  0  0
    8.5991    0.5928    0.0000 C   0  0  0  0  0  0  0  0  0  0  0  0
   11.6289    0.2268    0.0000 C   0  0  0  0  0  0  0  0  0  0  0  0
   11.6289    1.9588    0.0000 C   0  0  0  0  0  0  0  0  0  0  0  0
    6.8671    0.5928    0.0000 C   0  0  0  0  0  0  0  0  0  0  0  0
    7.7331    0.0928    0.0000 C   0  0  0  0  0  0  0  0  0  0  0  0
    5.1350    0.5928    0.0000 C   0  0  3  0  0  0  0  0  0  0  0  0
    7.7331    2.0928    0.0000 C   0  0  0  0  0  0  0  0  0  0  0  0
    9.8560    2.8481    0.0000 C   0  0  0  0  0  0  0  0  0  0  0  0
    6.0010    0.0928    0.0000 C   0  0  0  0  0  0  0  0  0  0  0  0
    6.8671    1.5928    0.0000 C   0  0  0  0  0  0  0  0  0  0  0  0
    4.2690    0.0928    0.0000 C   0  0  0  0  0  0  0  0  0  0  0  0
   12.8269   -0.8481    0.0000 C   0  0  0  0  0  0  0  0  0  0  0  0
   11.9608   -1.3481    0.0000 C   0  0  0  0  0  0  0  0  0  0  0  0
    5.1350    1.5928    0.0000 C   0  0  0  0  0  0  0  0  0  0  0  0
   13.6929   -1.3481    0.0000 C   0  0  0  0  0  0  0  0  0  0  0  0
   11.9608   -2.3481    0.0000 C   0  0  0  0  0  0  0  0  0  0  0  0
   13.6929   -2.3481    0.0000 C   0  0  0  0  0  0  0  0  0  0  0  0
   12.8269   -2.8481    0.0000 C   0  0  0  0  0  0  0  0  0  0  0  0
   11.7489    1.0928    0.0000 H   0  0  0  0  0  0  0  0  0  0  0  0
   12.1659    1.6488    0.0000 H   0  0  0  0  0  0  0  0  0  0  0  0
   11.9389    2.4958    0.0000 H   0  0  0  0  0  0  0  0  0  0  0  0
   11.0920    2.2688    0.0000 H   0  0  0  0  0  0  0  0  0  0  0  0
    7.7331   -0.5272    0.0000 H   0  0  0  0  0  0  0  0  0  0  0  0
    5.1350   -0.0272    0.0000 H   0  0  0  0  0  0  0  0  0  0  0  0
    7.7331    2.7128    0.0000 H   0  0  0  0  0  0  0  0  0  0  0  0
   10.4453    2.6555    0.0000 H   0  0  0  0  0  0  0  0  0  0  0  0
   10.0486    3.4374    0.0000 H   0  0  0  0  0  0  0  0  0  0  0  0
    9.2667    3.0407    0.0000 H   0  0  0  0  0  0  0  0  0  0  0  0
   13.0317    0.5852    0.0000 H   0  0  0  0  0  0  0  0  0  0  0  0
    6.3301    1.9028    0.0000 H   0  0  0  0  0  0  0  0  0  0  0  0
    3.8705   -0.3821    0.0000 H   0  0  0  0  0  0  0  0  0  0  0  0
    4.6675   -0.3821    0.0000 H   0  0  0  0  0  0  0  0  0  0  0  0
   14.2298   -1.0381    0.0000 H   0  0  0  0  0  0  0  0  0  0  0  0
   11.4239   -2.6581    0.0000 H   0  0  0  0  0  0  0  0  0  0  0  0
   14.2298   -2.6581    0.0000 H   0  0  0  0  0  0  0  0  0  0  0  0
   12.8269   -3.4681    0.0000 H   0  0  0  0  0  0  0  0  0  0  0  0
    2.0000    0.7828    0.0000 H   0  0  0  0  0  0  0  0  0  0  0  0
    3.2130   -0.8101    0.0000 H   0  0  0  0  0  0  0  0  0  0  0  0
    4.2690    2.7128    0.0000 H   0  0  0  0  0  0  0  0  0  0  0  0
  1  3  1  0  0  0  0
  1  4  1  0  0  0  0
  1  6  2  0  0  0  0
  1 25  1  0  0  0  0
  2 23  2  0  0  0  0
  3 51  1  0  0  0  0
  4 52  1  0  0  0  0
  5 28  1  0  0  0  0
  5 53  1  0  0  0  0
  7 28  2  0  0  0  0
  8 13  1  0  0  0  0
  8 14  1  0  0  0  0
  8 22  1  0  0  0  0
  9 13  2  0  0  0  0
  9 15  1  0  0  0  0
 10 16  1  0  0  0  0
 10 26  1  0  0  0  0
 10 43  1  0  0  0  0
 11 16  2  0  0  0  0
 11 27  1  0  0  0  0
 12 13  1  0  0  0  0
 12 16  1  0  0  0  0
 12 17  1  0  0  0  0
 12 33  1  0  0  0  0
 14 15  2  0  0  0  0
 14 21  1  0  0  0  0
 15 19  1  0  0  0  0
 17 34  1  0  0  0  0
 17 35  1  0  0  0  0
 17 36  1  0  0  0  0
 18 19  2  0  0  0  0
 18 23  1  0  0  0  0
 18 24  1  0  0  0  0
 19 37  1  0  0  0  0
 20 23  1  0  0  0  0
 20 25  1  0  0  0  0
 20 28  1  0  0  0  0
 20 38  1  0  0  0  0
 21 24  2  0  0  0  0
 21 39  1  0  0  0  0
 22 40  1  0  0  0  0
 22 41  1  0  0  0  0
 22 42  1  0  0  0  0
 24 44  1  0  0  0  0
 25 45  1  0  0  0  0
 25 46  1  0  0  0  0
 26 27  1  0  0  0  0
 26 29  2  0  0  0  0
 27 30  2  0  0  0  0
 29 31  1  0  0  0  0
 29 47  1  0  0  0  0
 30 32  1  0  0  0  0
 30 48  1  0  0  0  0
 31 32  2  0  0  0  0
 31 49  1  0  0  0  0
 32 50  1  0  0  0  0
M  END
> <PUBCHEM_COMPOUND_CID>
500995
> <PUBCHEM_COMPOUND_CANONICALIZED>
1
> <PUBCHEM_CACTVS_COMPLEXITY>
777
> <PUBCHEM_CACTVS_HBOND_ACCEPTOR>
8
> <PUBCHEM_CACTVS_HBOND_DONOR>
4
> <PUBCHEM_CACTVS_ROTATABLE_BOND>
7
> <PUBCHEM_CACTVS_SUBSKEYS>
AAADceB7uAIAAAAAAAAAAAAAAAAAAWLAAAAwYAAAAAAAAFgB/gAAHggQCCAADQyJnwQz2LfNkhCoQ6bybICCgC2lEqAJ2SE4dNiIaLbI3ZGUYQhssALIyaecyeCeCAAAQAAAACAQAACAAAAAQAAAAAAAAA==
> <PUBCHEM_IUPAC_OPENEYE_NAME>
3-[2-[1-(1H-benzimidazol-2-yl)ethyl]-1-methyl-benzimidazol-5-yl]-3-oxo-2-(phosphonomethyl)propanoic acid
> <PUBCHEM_IUPAC_CAS_NAME>
3-[2-[1-(1H-benzimidazol-2-yl)ethyl]-1-methyl-5-benzimidazolyl]-3-oxo-2-(phosphonomethyl)propanoic acid
> <PUBCHEM_IUPAC_NAME_MARKUP>
3-[2-[1-(1<I>H</I>-benzimidazol-2-yl)ethyl]-1-methylbenzimidazol-5-yl]-3-oxo-2-(phosphonomethyl)propanoic acid
> <PUBCHEM_IUPAC_NAME>
3-[2-[1-(1H-benzimidazol-2-yl)ethyl]-1-methylbenzimidazol-5-yl]-3-oxo-2-(phosphonomethyl)propanoic acid
> <PUBCHEM_IUPAC_SYSTEMATIC_NAME>
3-[2-[1-(1H-benzimidazol-2-yl)ethyl]-1-methyl-benzimidazol-5-yl]-3-oxidanylidene-2-(phosphonomethyl)propanoic acid
> <PUBCHEM_IUPAC_TRADITIONAL_NAME>
3-[2-[1-(1H-benzimidazol-2-yl)ethyl]-1-methyl-benzimidazol-5-yl]-3-keto-2-(phosphonomethyl)propionic acid
> <PUBCHEM_IUPAC_INCHI>
InChI=1S/C21H21N4O6P/c1-11(19-22-14-5-3-4-6-15(14)23-19)20-24-16-9-12(7-8-17(16)25(20)2)18(26)13(21(27)28)10-32(29,30)31/h3-9,11,13H,10H2,1-2H3,(H,22,23)(H,27,28)(H2,29,30,31)
> <PUBCHEM_IUPAC_INCHIKEY>
HMTMOPFWVJSCKZ-UHFFFAOYSA-N
> <PUBCHEM_XLOGP3_AA>
0.9
> <PUBCHEM_EXACT_MASS>
456.11987140
> <PUBCHEM_MOLECULAR_FORMULA>
C21H21N4O6P
> <PUBCHEM_MOLECULAR_WEIGHT>
456.4
> <PUBCHEM_OPENEYE_CAN_SMILES>
CC(C1=NC2=CC=CC=C2N1)C3=NC4=C(N3C)C=CC(=C4)C(=O)C(CP(=O)(O)O)C(=O)O
> <PUBCHEM_OPENEYE_ISO_SMILES>
CC(C1=NC2=CC=CC=C2N1)C3=NC4=C(N3C)C=CC(=C4)C(=O)C(CP(=O)(O)O)C(=O)O
> <PUBCHEM_CACTVS_TPSA>
158
> <PUBCHEM_MONOISOTOPIC_WEIGHT>
456.11987140
> <PUBCHEM_TOTAL_CHARGE>
0
> <PUBCHEM_HEAVY_ATOM_COUNT>
32
> <PUBCHEM_ATOM_DEF_STEREO_COUNT>
0
> <PUBCHEM_ATOM_UDEF_STEREO_COUNT>
2
> <PUBCHEM_BOND_DEF_STEREO_COUNT>
0
> <PUBCHEM_BOND_UDEF_STEREO_COUNT>
0
> <PUBCHEM_ISOTOPIC_ATOM_COUNT>
0
> <PUBCHEM_COMPONENT_COUNT>
1
> <PUBCHEM_CACTVS_TAUTO_COUNT>
-1
> <PUBCHEM_COORDINATE_TYPE>
1
5
255
> <PUBCHEM_BONDANNOTATIONS>
10  16  8
10  26  8
11  16  8
11  27  8
12  17  3
14  15  8
14  21  8
15  19  8
18  19  8
18  24  8
20  25  3
21  24  8
26  27  8
26  29  8
27  30  8
29  31  8
30  32  8
31  32  8
8  13  8
8  14  8
9  13  8
9  15  8
$$$$
