500990
  -OEChem-10302200282D
 64 67  0     1  0  0  0  0  0999 V2000
    3.4030    1.3485    0.0000 P   0  0  0  0  0  0  0  0  0  0  0  0
    6.8671    2.3485    0.0000 O   0  0  0  0  0  0  0  0  0  0  0  0
    2.5369    1.8485    0.0000 O   0  0  0  0  0  0  0  0  0  0  0  0
    2.9030    0.4825    0.0000 O   0  0  0  0  0  0  0  0  0  0  0  0
    4.2690    2.8485    0.0000 O   0  0  0  0  0  0  0  0  0  0  0  0
    3.9030    2.2146    0.0000 O   0  0  0  0  0  0  0  0  0  0  0  0
    6.0010    2.8485    0.0000 O   0  0  0  0  0  0  0  0  0  0  0  0
   10.4114    1.1533    0.0000 N   0  0  0  0  0  0  0  0  0  0  0  0
   10.4114   -0.4562    0.0000 N   0  0  0  0  0  0  0  0  0  0  0  0
   13.4837   -0.6206    0.0000 N   0  0  0  0  0  0  0  0  0  0  0  0
   12.0899   -1.4253    0.0000 N   0  0  0  0  0  0  0  0  0  0  0  0
    6.0010    0.8485    0.0000 N   0  0  0  0  0  0  0  0  0  0  0  0
   10.0542    2.8481    0.0000 C   0  0  0  0  0  0  0  0  0  0  0  0
   10.7220    2.1038    0.0000 C   0  0  0  0  0  0  0  0  0  0  0  0
    9.4651    0.8485    0.0000 C   0  0  0  0  0  0  0  0  0  0  0  0
    9.3863    3.5924    0.0000 C   0  0  0  0  0  0  0  0  0  0  0  0
   10.7985    3.5159    0.0000 C   0  0  0  0  0  0  0  0  0  0  0  0
    9.3099    2.1802    0.0000 C   0  0  0  0  0  0  0  0  0  0  0  0
   10.9950    0.3485    0.0000 C   0  0  0  0  0  0  0  0  0  0  0  0
    9.4651   -0.1515    0.0000 C   0  0  0  0  0  0  0  0  0  0  0  0
   11.9950    0.3485    0.0000 C   0  0  0  0  0  0  0  0  0  0  0  0
    8.5991    1.3485    0.0000 C   0  0  0  0  0  0  0  0  0  0  0  0
    7.7331    0.8485    0.0000 C   0  0  0  0  0  0  0  0  0  0  0  0
    8.5991   -0.6515    0.0000 C   0  0  0  0  0  0  0  0  0  0  0  0
   12.4950   -0.5175    0.0000 C   0  0  0  0  0  0  0  0  0  0  0  0
    7.7331   -0.1515    0.0000 C   0  0  0  0  0  0  0  0  0  0  0  0
    6.8671    1.3485    0.0000 C   0  0  0  0  0  0  0  0  0  0  0  0
   13.6929   -1.5924    0.0000 C   0  0  0  0  0  0  0  0  0  0  0  0
    5.1350    1.3485    0.0000 C   0  0  3  0  0  0  0  0  0  0  0  0
   12.8269   -2.0924    0.0000 C   0  0  0  0  0  0  0  0  0  0  0  0
    4.2690    0.8485    0.0000 C   0  0  0  0  0  0  0  0  0  0  0  0
   14.5589   -2.0924    0.0000 C   0  0  0  0  0  0  0  0  0  0  0  0
   12.8269   -3.0924    0.0000 C   0  0  0  0  0  0  0  0  0  0  0  0
    5.1350    2.3485    0.0000 C   0  0  0  0  0  0  0  0  0  0  0  0
   14.5589   -3.0924    0.0000 C   0  0  0  0  0  0  0  0  0  0  0  0
   13.6929   -3.5924    0.0000 C   0  0  0  0  0  0  0  0  0  0  0  0
   11.2689    1.8118    0.0000 H   0  0  0  0  0  0  0  0  0  0  0  0
   11.1046    2.5917    0.0000 H   0  0  0  0  0  0  0  0  0  0  0  0
    9.8478    4.0064    0.0000 H   0  0  0  0  0  0  0  0  0  0  0  0
    8.9723    4.0538    0.0000 H   0  0  0  0  0  0  0  0  0  0  0  0
    8.9249    3.1783    0.0000 H   0  0  0  0  0  0  0  0  0  0  0  0
   11.2125    3.0544    0.0000 H   0  0  0  0  0  0  0  0  0  0  0  0
   11.2599    3.9300    0.0000 H   0  0  0  0  0  0  0  0  0  0  0  0
   10.3844    3.9774    0.0000 H   0  0  0  0  0  0  0  0  0  0  0  0
    8.8958    2.6417    0.0000 H   0  0  0  0  0  0  0  0  0  0  0  0
    8.8484    1.7662    0.0000 H   0  0  0  0  0  0  0  0  0  0  0  0
    9.7239    1.7188    0.0000 H   0  0  0  0  0  0  0  0  0  0  0  0
   12.5776    0.5606    0.0000 H   0  0  0  0  0  0  0  0  0  0  0  0
   11.8873    0.9591    0.0000 H   0  0  0  0  0  0  0  0  0  0  0  0
    8.5991    1.9685    0.0000 H   0  0  0  0  0  0  0  0  0  0  0  0
    8.5991   -1.2715    0.0000 H   0  0  0  0  0  0  0  0  0  0  0  0
    7.1962   -0.4615    0.0000 H   0  0  0  0  0  0  0  0  0  0  0  0
   13.8978   -0.1591    0.0000 H   0  0  0  0  0  0  0  0  0  0  0  0
    5.1350    0.7285    0.0000 H   0  0  0  0  0  0  0  0  0  0  0  0
    6.0010    0.2285    0.0000 H   0  0  0  0  0  0  0  0  0  0  0  0
    3.8705    0.3736    0.0000 H   0  0  0  0  0  0  0  0  0  0  0  0
    4.6675    0.3736    0.0000 H   0  0  0  0  0  0  0  0  0  0  0  0
   15.0959   -1.7824    0.0000 H   0  0  0  0  0  0  0  0  0  0  0  0
   12.2899   -3.4024    0.0000 H   0  0  0  0  0  0  0  0  0  0  0  0
   15.0959   -3.4024    0.0000 H   0  0  0  0  0  0  0  0  0  0  0  0
   13.6929   -4.2124    0.0000 H   0  0  0  0  0  0  0  0  0  0  0  0
    2.0000    1.5385    0.0000 H   0  0  0  0  0  0  0  0  0  0  0  0
    3.2130   -0.0544    0.0000 H   0  0  0  0  0  0  0  0  0  0  0  0
    4.2690    3.4685    0.0000 H   0  0  0  0  0  0  0  0  0  0  0  0
  1  3  1  0  0  0  0
  1  4  1  0  0  0  0
  1  6  2  0  0  0  0
  1 31  1  0  0  0  0
  2 27  2  0  0  0  0
  3 62  1  0  0  0  0
  4 63  1  0  0  0  0
  5 34  1  0  0  0  0
  5 64  1  0  0  0  0
  7 34  2  0  0  0  0
  8 14  1  0  0  0  0
  8 15  1  0  0  0  0
  8 19  1  0  0  0  0
  9 19  2  0  0  0  0
  9 20  1  0  0  0  0
 10 25  1  0  0  0  0
 10 28  1  0  0  0  0
 10 53  1  0  0  0  0
 11 25  2  0  0  0  0
 11 30  1  0  0  0  0
 12 27  1  0  0  0  0
 12 29  1  0  0  0  0
 12 55  1  0  0  0  0
 13 14  1  0  0  0  0
 13 16  1  0  0  0  0
 13 17  1  0  0  0  0
 13 18  1  0  0  0  0
 14 37  1  0  0  0  0
 14 38  1  0  0  0  0
 15 20  2  0  0  0  0
 15 22  1  0  0  0  0
 16 39  1  0  0  0  0
 16 40  1  0  0  0  0
 16 41  1  0  0  0  0
 17 42  1  0  0  0  0
 17 43  1  0  0  0  0
 17 44  1  0  0  0  0
 18 45  1  0  0  0  0
 18 46  1  0  0  0  0
 18 47  1  0  0  0  0
 19 21  1  0  0  0  0
 20 24  1  0  0  0  0
 21 25  1  0  0  0  0
 21 48  1  0  0  0  0
 21 49  1  0  0  0  0
 22 23  2  0  0  0  0
 22 50  1  0  0  0  0
 23 26  1  0  0  0  0
 23 27  1  0  0  0  0
 24 26  2  0  0  0  0
 24 51  1  0  0  0  0
 26 52  1  0  0  0  0
 28 30  1  0  0  0  0
 28 32  2  0  0  0  0
 29 31  1  0  0  0  0
 29 34  1  0  0  0  0
 29 54  1  0  0  0  0
 30 33  2  0  0  0  0
 31 56  1  0  0  0  0
 31 57  1  0  0  0  0
 32 35  1  0  0  0  0
 32 58  1  0  0  0  0
 33 36  1  0  0  0  0
 33 59  1  0  0  0  0
 35 36  2  0  0  0  0
 35 60  1  0  0  0  0
 36 61  1  0  0  0  0
M  END
> <PUBCHEM_COMPOUND_CID>
500990
> <PUBCHEM_COMPOUND_CANONICALIZED>
1
> <PUBCHEM_CACTVS_COMPLEXITY>
862
> <PUBCHEM_CACTVS_HBOND_ACCEPTOR>
8
> <PUBCHEM_CACTVS_HBOND_DONOR>
5
> <PUBCHEM_CACTVS_ROTATABLE_BOND>
9
> <PUBCHEM_CACTVS_SUBSKEYS>
AAADceB7uAIAAAAAAAAAAAAAAAAAAWLAAAAwYAAAAAAAAFgB/gAAHggQCCAADijJnwQz2LfNkhCoQyfyfICCgC2lEqAJ2aG4dNiKaLLA3bGUYQholgLYyacciQCeCAAAQAAAACAQAACAAAAAQAAAAAAAAA==
> <PUBCHEM_IUPAC_OPENEYE_NAME>
2-[[2-(1H-benzimidazol-2-ylmethyl)-3-(2,2-dimethylpropyl)benzimidazole-5-carbonyl]amino]-3-phosphono-propanoic acid
> <PUBCHEM_IUPAC_CAS_NAME>
2-[[[2-(1H-benzimidazol-2-ylmethyl)-3-(2,2-dimethylpropyl)-5-benzimidazolyl]-oxomethyl]amino]-3-phosphonopropanoic acid
> <PUBCHEM_IUPAC_NAME_MARKUP>
2-[[2-(1<I>H</I>-benzimidazol-2-ylmethyl)-3-(2,2-dimethylpropyl)benzimidazole-5-carbonyl]amino]-3-phosphonopropanoic acid
> <PUBCHEM_IUPAC_NAME>
2-[[2-(1H-benzimidazol-2-ylmethyl)-3-(2,2-dimethylpropyl)benzimidazole-5-carbonyl]amino]-3-phosphonopropanoic acid
> <PUBCHEM_IUPAC_SYSTEMATIC_NAME>
2-[[2-(1H-benzimidazol-2-ylmethyl)-3-(2,2-dimethylpropyl)benzimidazol-5-yl]carbonylamino]-3-phosphono-propanoic acid
> <PUBCHEM_IUPAC_TRADITIONAL_NAME>
2-[[2-(1H-benzimidazol-2-ylmethyl)-3-neopentyl-benzimidazole-5-carbonyl]amino]-3-phosphono-propionic acid
> <PUBCHEM_IUPAC_INCHI>
InChI=1S/C24H28N5O6P/c1-24(2,3)13-29-19-10-14(22(30)28-18(23(31)32)12-36(33,34)35)8-9-17(19)27-21(29)11-20-25-15-6-4-5-7-16(15)26-20/h4-10,18H,11-13H2,1-3H3,(H,25,26)(H,28,30)(H,31,32)(H2,33,34,35)
> <PUBCHEM_IUPAC_INCHIKEY>
NTTQHPYEMYJKMD-UHFFFAOYSA-N
> <PUBCHEM_XLOGP3_AA>
1.7
> <PUBCHEM_EXACT_MASS>
513.17772063
> <PUBCHEM_MOLECULAR_FORMULA>
C24H28N5O6P
> <PUBCHEM_MOLECULAR_WEIGHT>
513.5
> <PUBCHEM_OPENEYE_CAN_SMILES>
CC(C)(C)CN1C2=C(C=CC(=C2)C(=O)NC(CP(=O)(O)O)C(=O)O)N=C1CC3=NC4=CC=CC=C4N3
> <PUBCHEM_OPENEYE_ISO_SMILES>
CC(C)(C)CN1C2=C(C=CC(=C2)C(=O)NC(CP(=O)(O)O)C(=O)O)N=C1CC3=NC4=CC=CC=C4N3
> <PUBCHEM_CACTVS_TPSA>
170
> <PUBCHEM_MONOISOTOPIC_WEIGHT>
513.17772063
> <PUBCHEM_TOTAL_CHARGE>
0
> <PUBCHEM_HEAVY_ATOM_COUNT>
36
> <PUBCHEM_ATOM_DEF_STEREO_COUNT>
0
> <PUBCHEM_ATOM_UDEF_STEREO_COUNT>
1
> <PUBCHEM_BOND_DEF_STEREO_COUNT>
0
> <PUBCHEM_BOND_UDEF_STEREO_COUNT>
0
> <PUBCHEM_ISOTOPIC_ATOM_COUNT>
0
> <PUBCHEM_COMPONENT_COUNT>
1
> <PUBCHEM_CACTVS_TAUTO_COUNT>
-1
> <PUBCHEM_COORDINATE_TYPE>
1
5
255
> <PUBCHEM_BONDANNOTATIONS>
10  25  8
10  28  8
11  25  8
11  30  8
15  20  8
15  22  8
20  24  8
22  23  8
23  26  8
24  26  8
28  30  8
28  32  8
29  31  3
30  33  8
32  35  8
33  36  8
35  36  8
8  15  8
8  19  8
9  19  8
9  20  8
$$$$
