500986
  -OEChem-10302200282D
 52 55  0     1  0  0  0  0  0999 V2000
    3.4030    1.4104    0.0000 P   0  0  0  0  0  0  0  0  0  0  0  0
    6.8671    2.4104    0.0000 O   0  0  0  0  0  0  0  0  0  0  0  0
    2.5369    1.9104    0.0000 O   0  0  0  0  0  0  0  0  0  0  0  0
    2.9030    0.5444    0.0000 O   0  0  0  0  0  0  0  0  0  0  0  0
    3.9030    2.2765    0.0000 O   0  0  0  0  0  0  0  0  0  0  0  0
    4.2690    2.9104    0.0000 O   0  0  0  0  0  0  0  0  0  0  0  0
    6.0010    2.9104    0.0000 O   0  0  0  0  0  0  0  0  0  0  0  0
   10.4114    1.2152    0.0000 N   0  0  0  0  0  0  0  0  0  0  0  0
   10.4114   -0.3943    0.0000 N   0  0  0  0  0  0  0  0  0  0  0  0
    6.0010    0.9104    0.0000 N   0  0  0  0  0  0  0  0  0  0  0  0
   13.4837   -0.5586    0.0000 N   0  0  0  0  0  0  0  0  0  0  0  0
   12.0899   -1.3634    0.0000 N   0  0  0  0  0  0  0  0  0  0  0  0
    9.4651    0.9104    0.0000 C   0  0  0  0  0  0  0  0  0  0  0  0
   10.9950    0.4104    0.0000 C   0  0  0  0  0  0  0  0  0  0  0  0
   11.9950    0.4104    0.0000 C   0  0  0  0  0  0  0  0  0  0  0  0
    9.4651   -0.0896    0.0000 C   0  0  0  0  0  0  0  0  0  0  0  0
    8.5991    1.4104    0.0000 C   0  0  0  0  0  0  0  0  0  0  0  0
    5.1350    1.4104    0.0000 C   0  0  3  0  0  0  0  0  0  0  0  0
    7.7331    0.9104    0.0000 C   0  0  0  0  0  0  0  0  0  0  0  0
   12.4950   -0.4556    0.0000 C   0  0  0  0  0  0  0  0  0  0  0  0
    4.2690    0.9104    0.0000 C   0  0  0  0  0  0  0  0  0  0  0  0
    8.5991   -0.5896    0.0000 C   0  0  0  0  0  0  0  0  0  0  0  0
   10.7220    2.1657    0.0000 C   0  0  0  0  0  0  0  0  0  0  0  0
    7.7331   -0.0896    0.0000 C   0  0  0  0  0  0  0  0  0  0  0  0
    6.8671    1.4104    0.0000 C   0  0  0  0  0  0  0  0  0  0  0  0
   13.6929   -1.5304    0.0000 C   0  0  0  0  0  0  0  0  0  0  0  0
   12.8269   -2.0304    0.0000 C   0  0  0  0  0  0  0  0  0  0  0  0
    5.1350    2.4104    0.0000 C   0  0  0  0  0  0  0  0  0  0  0  0
   14.5589   -2.0304    0.0000 C   0  0  0  0  0  0  0  0  0  0  0  0
   12.8269   -3.0304    0.0000 C   0  0  0  0  0  0  0  0  0  0  0  0
   14.5589   -3.0304    0.0000 C   0  0  0  0  0  0  0  0  0  0  0  0
   13.6929   -3.5304    0.0000 C   0  0  0  0  0  0  0  0  0  0  0  0
   12.5776    0.6225    0.0000 H   0  0  0  0  0  0  0  0  0  0  0  0
   11.8873    1.0210    0.0000 H   0  0  0  0  0  0  0  0  0  0  0  0
    5.6720    1.7204    0.0000 H   0  0  0  0  0  0  0  0  0  0  0  0
    8.5991    2.0304    0.0000 H   0  0  0  0  0  0  0  0  0  0  0  0
    3.8705    0.4355    0.0000 H   0  0  0  0  0  0  0  0  0  0  0  0
    4.6675    0.4355    0.0000 H   0  0  0  0  0  0  0  0  0  0  0  0
    8.5991   -1.2095    0.0000 H   0  0  0  0  0  0  0  0  0  0  0  0
   11.3113    1.9731    0.0000 H   0  0  0  0  0  0  0  0  0  0  0  0
   10.9146    2.7550    0.0000 H   0  0  0  0  0  0  0  0  0  0  0  0
   10.1327    2.3583    0.0000 H   0  0  0  0  0  0  0  0  0  0  0  0
    7.1962   -0.3996    0.0000 H   0  0  0  0  0  0  0  0  0  0  0  0
    6.0010    0.2904    0.0000 H   0  0  0  0  0  0  0  0  0  0  0  0
   13.8978   -0.0972    0.0000 H   0  0  0  0  0  0  0  0  0  0  0  0
   15.0959   -1.7204    0.0000 H   0  0  0  0  0  0  0  0  0  0  0  0
   12.2899   -3.3404    0.0000 H   0  0  0  0  0  0  0  0  0  0  0  0
   15.0959   -3.3404    0.0000 H   0  0  0  0  0  0  0  0  0  0  0  0
   13.6929   -4.1504    0.0000 H   0  0  0  0  0  0  0  0  0  0  0  0
    2.0000    1.6004    0.0000 H   0  0  0  0  0  0  0  0  0  0  0  0
    3.2130    0.0075    0.0000 H   0  0  0  0  0  0  0  0  0  0  0  0
    4.2690    3.5304    0.0000 H   0  0  0  0  0  0  0  0  0  0  0  0
  1  3  1  0  0  0  0
  1  4  1  0  0  0  0
  1  5  2  0  0  0  0
  1 21  1  0  0  0  0
  2 25  2  0  0  0  0
  3 50  1  0  0  0  0
  4 51  1  0  0  0  0
  6 28  1  0  0  0  0
  6 52  1  0  0  0  0
  7 28  2  0  0  0  0
  8 13  1  0  0  0  0
  8 14  1  0  0  0  0
  8 23  1  0  0  0  0
  9 14  2  0  0  0  0
  9 16  1  0  0  0  0
 10 18  1  0  0  0  0
 10 25  1  0  0  0  0
 10 44  1  0  0  0  0
 11 20  1  0  0  0  0
 11 26  1  0  0  0  0
 11 45  1  0  0  0  0
 12 20  2  0  0  0  0
 12 27  1  0  0  0  0
 13 16  2  0  0  0  0
 13 17  1  0  0  0  0
 14 15  1  0  0  0  0
 15 20  1  0  0  0  0
 15 33  1  0  0  0  0
 15 34  1  0  0  0  0
 16 22  1  0  0  0  0
 17 19  2  0  0  0  0
 17 36  1  0  0  0  0
 18 21  1  0  0  0  0
 18 28  1  0  0  0  0
 18 35  1  0  0  0  0
 19 24  1  0  0  0  0
 19 25  1  0  0  0  0
 21 37  1  0  0  0  0
 21 38  1  0  0  0  0
 22 24  2  0  0  0  0
 22 39  1  0  0  0  0
 23 40  1  0  0  0  0
 23 41  1  0  0  0  0
 23 42  1  0  0  0  0
 24 43  1  0  0  0  0
 26 27  1  0  0  0  0
 26 29  2  0  0  0  0
 27 30  2  0  0  0  0
 29 31  1  0  0  0  0
 29 46  1  0  0  0  0
 30 32  1  0  0  0  0
 30 47  1  0  0  0  0
 31 32  2  0  0  0  0
 31 48  1  0  0  0  0
 32 49  1  0  0  0  0
M  END
> <PUBCHEM_COMPOUND_CID>
500986
> <PUBCHEM_COMPOUND_CANONICALIZED>
1
> <PUBCHEM_CACTVS_COMPLEXITY>
765
> <PUBCHEM_CACTVS_HBOND_ACCEPTOR>
8
> <PUBCHEM_CACTVS_HBOND_DONOR>
5
> <PUBCHEM_CACTVS_ROTATABLE_BOND>
7
> <PUBCHEM_CACTVS_SUBSKEYS>
AAADceB7uAIAAAAAAAAAAAAAAAAAAWLAAAAwYAAAAAAAAFgB/gAAHggQCCAADCjJnwQz2LfNkhCoQyfyfICCgC2lEqAJ2aG4dNiKaLLA3bGUYQholgLYyacciQCeCAAAQAAAACAQAACAAAAAQAAAAAAAAA==
> <PUBCHEM_IUPAC_OPENEYE_NAME>
2-[[2-(1H-benzimidazol-2-ylmethyl)-3-methyl-benzimidazole-5-carbonyl]amino]-3-phosphono-propanoic acid
> <PUBCHEM_IUPAC_CAS_NAME>
2-[[[2-(1H-benzimidazol-2-ylmethyl)-3-methyl-5-benzimidazolyl]-oxomethyl]amino]-3-phosphonopropanoic acid
> <PUBCHEM_IUPAC_NAME_MARKUP>
2-[[2-(1<I>H</I>-benzimidazol-2-ylmethyl)-3-methylbenzimidazole-5-carbonyl]amino]-3-phosphonopropanoic acid
> <PUBCHEM_IUPAC_NAME>
2-[[2-(1H-benzimidazol-2-ylmethyl)-3-methylbenzimidazole-5-carbonyl]amino]-3-phosphonopropanoic acid
> <PUBCHEM_IUPAC_SYSTEMATIC_NAME>
2-[[2-(1H-benzimidazol-2-ylmethyl)-3-methyl-benzimidazol-5-yl]carbonylamino]-3-phosphono-propanoic acid
> <PUBCHEM_IUPAC_TRADITIONAL_NAME>
2-[[2-(1H-benzimidazol-2-ylmethyl)-3-methyl-benzimidazole-5-carbonyl]amino]-3-phosphono-propionic acid
> <PUBCHEM_IUPAC_INCHI>
InChI=1S/C20H20N5O6P/c1-25-16-8-11(19(26)24-15(20(27)28)10-32(29,30)31)6-7-14(16)23-18(25)9-17-21-12-4-2-3-5-13(12)22-17/h2-8,15H,9-10H2,1H3,(H,21,22)(H,24,26)(H,27,28)(H2,29,30,31)
> <PUBCHEM_IUPAC_INCHIKEY>
UQQBDSFNEOSSDH-UHFFFAOYSA-N
> <PUBCHEM_XLOGP3_AA>
0.1
> <PUBCHEM_EXACT_MASS>
457.11512037
> <PUBCHEM_MOLECULAR_FORMULA>
C20H20N5O6P
> <PUBCHEM_MOLECULAR_WEIGHT>
457.4
> <PUBCHEM_OPENEYE_CAN_SMILES>
CN1C2=C(C=CC(=C2)C(=O)NC(CP(=O)(O)O)C(=O)O)N=C1CC3=NC4=CC=CC=C4N3
> <PUBCHEM_OPENEYE_ISO_SMILES>
CN1C2=C(C=CC(=C2)C(=O)NC(CP(=O)(O)O)C(=O)O)N=C1CC3=NC4=CC=CC=C4N3
> <PUBCHEM_CACTVS_TPSA>
170
> <PUBCHEM_MONOISOTOPIC_WEIGHT>
457.11512037
> <PUBCHEM_TOTAL_CHARGE>
0
> <PUBCHEM_HEAVY_ATOM_COUNT>
32
> <PUBCHEM_ATOM_DEF_STEREO_COUNT>
0
> <PUBCHEM_ATOM_UDEF_STEREO_COUNT>
1
> <PUBCHEM_BOND_DEF_STEREO_COUNT>
0
> <PUBCHEM_BOND_UDEF_STEREO_COUNT>
0
> <PUBCHEM_ISOTOPIC_ATOM_COUNT>
0
> <PUBCHEM_COMPONENT_COUNT>
1
> <PUBCHEM_CACTVS_TAUTO_COUNT>
-1
> <PUBCHEM_COORDINATE_TYPE>
1
5
255
> <PUBCHEM_BONDANNOTATIONS>
11  20  8
11  26  8
12  20  8
12  27  8
13  16  8
13  17  8
16  22  8
17  19  8
18  21  3
19  24  8
22  24  8
26  27  8
26  29  8
27  30  8
29  31  8
30  32  8
31  32  8
8  13  8
8  14  8
9  14  8
9  16  8
$$$$
