500992
  -OEChem-10302200282D
 59 62  0     1  0  0  0  0  0999 V2000
    3.7320    2.0654    0.0000 P   0  0  3  0  0  0  0  0  0  0  0  0
    2.8660    2.5654    0.0000 O   0  0  0  0  0  0  0  0  0  0  0  0
    3.2320    1.1994    0.0000 O   0  0  0  0  0  0  0  0  0  0  0  0
    7.1962    3.0654    0.0000 O   0  0  0  0  0  0  0  0  0  0  0  0
    4.2320    2.9315    0.0000 O   0  0  0  0  0  0  0  0  0  0  0  0
    4.5981    3.5654    0.0000 O   0  0  0  0  0  0  0  0  0  0  0  0
    6.3301    3.5654    0.0000 O   0  0  0  0  0  0  0  0  0  0  0  0
   16.6201   -2.3754    0.0000 O   0  0  0  0  0  0  0  0  0  0  0  0
   10.7404    1.8702    0.0000 N   0  0  0  0  0  0  0  0  0  0  0  0
   10.7404    0.2607    0.0000 N   0  0  0  0  0  0  0  0  0  0  0  0
    6.3301    1.5654    0.0000 N   0  0  0  0  0  0  0  0  0  0  0  0
   13.8128    0.0964    0.0000 N   0  0  0  0  0  0  0  0  0  0  0  0
   12.4189   -0.7084    0.0000 N   0  0  0  0  0  0  0  0  0  0  0  0
   15.7540   -3.8754    0.0000 N   0  0  0  0  0  0  0  0  0  0  0  0
    9.7942    1.5654    0.0000 C   0  0  0  0  0  0  0  0  0  0  0  0
   11.3241    1.0654    0.0000 C   0  0  0  0  0  0  0  0  0  0  0  0
   12.3241    1.0654    0.0000 C   0  0  0  0  0  0  0  0  0  0  0  0
    9.7942    0.5654    0.0000 C   0  0  0  0  0  0  0  0  0  0  0  0
    5.4641    2.0654    0.0000 C   0  0  3  0  0  0  0  0  0  0  0  0
   12.8241    0.1994    0.0000 C   0  0  0  0  0  0  0  0  0  0  0  0
    8.9282    2.0654    0.0000 C   0  0  0  0  0  0  0  0  0  0  0  0
    8.0622    1.5654    0.0000 C   0  0  0  0  0  0  0  0  0  0  0  0
    4.5981    1.5654    0.0000 C   0  0  0  0  0  0  0  0  0  0  0  0
    8.9282    0.0654    0.0000 C   0  0  0  0  0  0  0  0  0  0  0  0
   11.0511    2.8207    0.0000 C   0  0  0  0  0  0  0  0  0  0  0  0
    8.0622    0.5654    0.0000 C   0  0  0  0  0  0  0  0  0  0  0  0
   14.0220   -0.8754    0.0000 C   0  0  0  0  0  0  0  0  0  0  0  0
    7.1962    2.0654    0.0000 C   0  0  0  0  0  0  0  0  0  0  0  0
   13.1560   -1.3754    0.0000 C   0  0  0  0  0  0  0  0  0  0  0  0
   14.8880   -1.3754    0.0000 C   0  0  0  0  0  0  0  0  0  0  0  0
    5.4641    3.0654    0.0000 C   0  0  0  0  0  0  0  0  0  0  0  0
   13.1560   -2.3754    0.0000 C   0  0  0  0  0  0  0  0  0  0  0  0
   14.8880   -2.3754    0.0000 C   0  0  0  0  0  0  0  0  0  0  0  0
   14.0220   -2.8754    0.0000 C   0  0  0  0  0  0  0  0  0  0  0  0
   15.7540   -2.8754    0.0000 C   0  0  0  0  0  0  0  0  0  0  0  0
    2.0000    2.0654    0.0000 C   0  0  0  0  0  0  0  0  0  0  0  0
   12.9067    1.2775    0.0000 H   0  0  0  0  0  0  0  0  0  0  0  0
   12.2164    1.6760    0.0000 H   0  0  0  0  0  0  0  0  0  0  0  0
    5.4641    1.4454    0.0000 H   0  0  0  0  0  0  0  0  0  0  0  0
    8.9282    2.6854    0.0000 H   0  0  0  0  0  0  0  0  0  0  0  0
    4.1996    1.0905    0.0000 H   0  0  0  0  0  0  0  0  0  0  0  0
    4.9966    1.0905    0.0000 H   0  0  0  0  0  0  0  0  0  0  0  0
    8.9282   -0.5546    0.0000 H   0  0  0  0  0  0  0  0  0  0  0  0
   11.6404    2.6281    0.0000 H   0  0  0  0  0  0  0  0  0  0  0  0
   11.2437    3.4100    0.0000 H   0  0  0  0  0  0  0  0  0  0  0  0
   10.4618    3.0133    0.0000 H   0  0  0  0  0  0  0  0  0  0  0  0
    7.5252    0.2554    0.0000 H   0  0  0  0  0  0  0  0  0  0  0  0
    6.3301    0.9454    0.0000 H   0  0  0  0  0  0  0  0  0  0  0  0
   14.2268    0.5578    0.0000 H   0  0  0  0  0  0  0  0  0  0  0  0
   15.4249   -1.0654    0.0000 H   0  0  0  0  0  0  0  0  0  0  0  0
   12.6190   -2.6854    0.0000 H   0  0  0  0  0  0  0  0  0  0  0  0
   14.0220   -3.4954    0.0000 H   0  0  0  0  0  0  0  0  0  0  0  0
    3.5420    0.6625    0.0000 H   0  0  0  0  0  0  0  0  0  0  0  0
    1.6900    2.6024    0.0000 H   0  0  0  0  0  0  0  0  0  0  0  0
    1.4631    1.7554    0.0000 H   0  0  0  0  0  0  0  0  0  0  0  0
    2.3100    1.5285    0.0000 H   0  0  0  0  0  0  0  0  0  0  0  0
    4.5981    4.1854    0.0000 H   0  0  0  0  0  0  0  0  0  0  0  0
   16.2910   -4.1854    0.0000 H   0  0  0  0  0  0  0  0  0  0  0  0
   15.2171   -4.1854    0.0000 H   0  0  0  0  0  0  0  0  0  0  0  0
  1  2  1  0  0  0  0
  1  3  1  0  0  0  0
  1  5  2  0  0  0  0
  1 23  1  0  0  0  0
  2 36  1  0  0  0  0
  3 53  1  0  0  0  0
  4 28  2  0  0  0  0
  6 31  1  0  0  0  0
  6 57  1  0  0  0  0
  7 31  2  0  0  0  0
  8 35  2  0  0  0  0
  9 15  1  0  0  0  0
  9 16  1  0  0  0  0
  9 25  1  0  0  0  0
 10 16  2  0  0  0  0
 10 18  1  0  0  0  0
 11 19  1  0  0  0  0
 11 28  1  0  0  0  0
 11 48  1  0  0  0  0
 12 20  1  0  0  0  0
 12 27  1  0  0  0  0
 12 49  1  0  0  0  0
 13 20  2  0  0  0  0
 13 29  1  0  0  0  0
 14 35  1  0  0  0  0
 14 58  1  0  0  0  0
 14 59  1  0  0  0  0
 15 18  2  0  0  0  0
 15 21  1  0  0  0  0
 16 17  1  0  0  0  0
 17 20  1  0  0  0  0
 17 37  1  0  0  0  0
 17 38  1  0  0  0  0
 18 24  1  0  0  0  0
 19 23  1  0  0  0  0
 19 31  1  0  0  0  0
 19 39  1  0  0  0  0
 21 22  2  0  0  0  0
 21 40  1  0  0  0  0
 22 26  1  0  0  0  0
 22 28  1  0  0  0  0
 23 41  1  0  0  0  0
 23 42  1  0  0  0  0
 24 26  2  0  0  0  0
 24 43  1  0  0  0  0
 25 44  1  0  0  0  0
 25 45  1  0  0  0  0
 25 46  1  0  0  0  0
 26 47  1  0  0  0  0
 27 29  2  0  0  0  0
 27 30  1  0  0  0  0
 29 32  1  0  0  0  0
 30 33  2  0  0  0  0
 30 50  1  0  0  0  0
 32 34  2  0  0  0  0
 32 51  1  0  0  0  0
 33 34  1  0  0  0  0
 33 35  1  0  0  0  0
 34 52  1  0  0  0  0
 36 54  1  0  0  0  0
 36 55  1  0  0  0  0
 36 56  1  0  0  0  0
M  END
> <PUBCHEM_COMPOUND_CID>
500992
> <PUBCHEM_COMPOUND_CANONICALIZED>
1
> <PUBCHEM_CACTVS_COMPLEXITY>
908
> <PUBCHEM_CACTVS_HBOND_ACCEPTOR>
9
> <PUBCHEM_CACTVS_HBOND_DONOR>
5
> <PUBCHEM_CACTVS_ROTATABLE_BOND>
9
> <PUBCHEM_CACTVS_SUBSKEYS>
AAADceB7uAIAAAAAAAAAAAAAAAAAAWLAAAAwYAAAAAAAAFgB/gAAHggQCCAADCjJnwYz2LfNkxCoQyfyfICCgC2lEqAJ2aG4dNiKaLLA3bGUYQholgLYyacciQCeCAAAQAAAACAQAACAAAAAQAAAAAAAAA==
> <PUBCHEM_IUPAC_OPENEYE_NAME>
2-[[2-[(6-carbamoyl-1H-benzimidazol-2-yl)methyl]-3-methyl-benzimidazole-5-carbonyl]amino]-3-[hydroxy(methoxy)phosphoryl]propanoic acid
> <PUBCHEM_IUPAC_CAS_NAME>
2-[[[2-[(6-carbamoyl-1H-benzimidazol-2-yl)methyl]-3-methyl-5-benzimidazolyl]-oxomethyl]amino]-3-[hydroxy(methoxy)phosphoryl]propanoic acid
> <PUBCHEM_IUPAC_NAME_MARKUP>
2-[[2-[(6-carbamoyl-1<I>H</I>-benzimidazol-2-yl)methyl]-3-methylbenzimidazole-5-carbonyl]amino]-3-[hydroxy(methoxy)phosphoryl]propanoic acid
> <PUBCHEM_IUPAC_NAME>
2-[[2-[(6-carbamoyl-1H-benzimidazol-2-yl)methyl]-3-methylbenzimidazole-5-carbonyl]amino]-3-[hydroxy(methoxy)phosphoryl]propanoic acid
> <PUBCHEM_IUPAC_SYSTEMATIC_NAME>
2-[[2-[(6-aminocarbonyl-1H-benzimidazol-2-yl)methyl]-3-methyl-benzimidazol-5-yl]carbonylamino]-3-[methoxy(oxidanyl)phosphoryl]propanoic acid
> <PUBCHEM_IUPAC_TRADITIONAL_NAME>
2-[[2-[(6-carbamoyl-1H-benzimidazol-2-yl)methyl]-3-methyl-benzimidazole-5-carbonyl]amino]-3-[hydroxy(methoxy)phosphoryl]propionic acid
> <PUBCHEM_IUPAC_INCHI>
InChI=1S/C22H23N6O7P/c1-28-17-8-12(21(30)27-16(22(31)32)10-36(33,34)35-2)4-6-14(17)26-19(28)9-18-24-13-5-3-11(20(23)29)7-15(13)25-18/h3-8,16H,9-10H2,1-2H3,(H2,23,29)(H,24,25)(H,27,30)(H,31,32)(H,33,34)
> <PUBCHEM_IUPAC_INCHIKEY>
XQOHQQNCVBYDIT-UHFFFAOYSA-N
> <PUBCHEM_XLOGP3_AA>
-0.5
> <PUBCHEM_EXACT_MASS>
514.13658409
> <PUBCHEM_MOLECULAR_FORMULA>
C22H23N6O7P
> <PUBCHEM_MOLECULAR_WEIGHT>
514.4
> <PUBCHEM_OPENEYE_CAN_SMILES>
CN1C2=C(C=CC(=C2)C(=O)NC(CP(=O)(O)OC)C(=O)O)N=C1CC3=NC4=C(N3)C=C(C=C4)C(=O)N
> <PUBCHEM_OPENEYE_ISO_SMILES>
CN1C2=C(C=CC(=C2)C(=O)NC(CP(=O)(O)OC)C(=O)O)N=C1CC3=NC4=C(N3)C=C(C=C4)C(=O)N
> <PUBCHEM_CACTVS_TPSA>
203
> <PUBCHEM_MONOISOTOPIC_WEIGHT>
514.13658409
> <PUBCHEM_TOTAL_CHARGE>
0
> <PUBCHEM_HEAVY_ATOM_COUNT>
36
> <PUBCHEM_ATOM_DEF_STEREO_COUNT>
0
> <PUBCHEM_ATOM_UDEF_STEREO_COUNT>
1
> <PUBCHEM_BOND_DEF_STEREO_COUNT>
0
> <PUBCHEM_BOND_UDEF_STEREO_COUNT>
0
> <PUBCHEM_ISOTOPIC_ATOM_COUNT>
0
> <PUBCHEM_COMPONENT_COUNT>
1
> <PUBCHEM_CACTVS_TAUTO_COUNT>
-1
> <PUBCHEM_COORDINATE_TYPE>
1
5
255
> <PUBCHEM_BONDANNOTATIONS>
10  16  8
10  18  8
12  20  8
12  27  8
13  20  8
13  29  8
15  18  8
15  21  8
18  24  8
19  23  3
21  22  8
22  26  8
24  26  8
27  29  8
27  30  8
29  32  8
30  33  8
32  34  8
33  34  8
9  15  8
9  16  8
$$$$
