500999
  -OEChem-10302200282D
 46 47  0     1  0  0  0  0  0999 V2000
    3.4030    0.3060    0.0000 P   0  0  0  0  0  0  0  0  0  0  0  0
    2.5369    0.8060    0.0000 O   0  0  0  0  0  0  0  0  0  0  0  0
    2.9030   -0.5600    0.0000 O   0  0  0  0  0  0  0  0  0  0  0  0
    6.8671    1.3060    0.0000 O   0  0  0  0  0  0  0  0  0  0  0  0
    3.9030    1.1720    0.0000 O   0  0  0  0  0  0  0  0  0  0  0  0
    4.2690    1.8060    0.0000 O   0  0  0  0  0  0  0  0  0  0  0  0
    6.0010    1.8060    0.0000 O   0  0  0  0  0  0  0  0  0  0  0  0
   13.9950   -0.6940    0.0000 O   0  0  0  0  0  0  0  0  0  0  0  0
   10.4114    0.1108    0.0000 N   0  0  0  0  0  0  0  0  0  0  0  0
    6.0010   -0.1940    0.0000 N   0  0  0  0  0  0  0  0  0  0  0  0
   10.4114   -1.4987    0.0000 N   0  0  0  0  0  0  0  0  0  0  0  0
   12.4950   -1.5600    0.0000 N   0  0  0  0  0  0  0  0  0  0  0  0
    9.4651   -0.1940    0.0000 C   0  0  0  0  0  0  0  0  0  0  0  0
    5.1350    0.3060    0.0000 C   0  0  3  0  0  0  0  0  0  0  0  0
    9.4651   -1.1940    0.0000 C   0  0  0  0  0  0  0  0  0  0  0  0
   10.9950   -0.6940    0.0000 C   0  0  0  0  0  0  0  0  0  0  0  0
    4.2690   -0.1940    0.0000 C   0  0  0  0  0  0  0  0  0  0  0  0
    7.7331   -0.1940    0.0000 C   0  0  0  0  0  0  0  0  0  0  0  0
    8.5991    0.3060    0.0000 C   0  0  0  0  0  0  0  0  0  0  0  0
   11.9950   -0.6940    0.0000 C   0  0  0  0  0  0  0  0  0  0  0  0
    8.5991   -1.6940    0.0000 C   0  0  0  0  0  0  0  0  0  0  0  0
    6.8671    0.3060    0.0000 C   0  0  0  0  0  0  0  0  0  0  0  0
    7.7331   -1.1940    0.0000 C   0  0  0  0  0  0  0  0  0  0  0  0
   10.7220    1.0613    0.0000 C   0  0  0  0  0  0  0  0  0  0  0  0
    5.1350    1.3060    0.0000 C   0  0  0  0  0  0  0  0  0  0  0  0
   13.4950   -1.5600    0.0000 C   0  0  0  0  0  0  0  0  0  0  0  0
   13.9950   -2.4260    0.0000 C   0  0  0  0  0  0  0  0  0  0  0  0
    5.1350   -0.3140    0.0000 H   0  0  0  0  0  0  0  0  0  0  0  0
    3.8705   -0.6689    0.0000 H   0  0  0  0  0  0  0  0  0  0  0  0
    4.6675   -0.6689    0.0000 H   0  0  0  0  0  0  0  0  0  0  0  0
    8.5991    0.9260    0.0000 H   0  0  0  0  0  0  0  0  0  0  0  0
    6.0010   -0.8140    0.0000 H   0  0  0  0  0  0  0  0  0  0  0  0
   12.5776   -0.4819    0.0000 H   0  0  0  0  0  0  0  0  0  0  0  0
   11.8873   -0.0834    0.0000 H   0  0  0  0  0  0  0  0  0  0  0  0
    8.5991   -2.3140    0.0000 H   0  0  0  0  0  0  0  0  0  0  0  0
    7.1962   -1.5040    0.0000 H   0  0  0  0  0  0  0  0  0  0  0  0
   11.3113    0.8687    0.0000 H   0  0  0  0  0  0  0  0  0  0  0  0
   10.9146    1.6506    0.0000 H   0  0  0  0  0  0  0  0  0  0  0  0
   10.1327    1.2539    0.0000 H   0  0  0  0  0  0  0  0  0  0  0  0
   12.1850   -2.0969    0.0000 H   0  0  0  0  0  0  0  0  0  0  0  0
    2.0000    0.4960    0.0000 H   0  0  0  0  0  0  0  0  0  0  0  0
    3.2130   -1.0969    0.0000 H   0  0  0  0  0  0  0  0  0  0  0  0
    4.2690    2.4260    0.0000 H   0  0  0  0  0  0  0  0  0  0  0  0
   13.4580   -2.7360    0.0000 H   0  0  0  0  0  0  0  0  0  0  0  0
   14.3050   -2.9630    0.0000 H   0  0  0  0  0  0  0  0  0  0  0  0
   14.5319   -2.1160    0.0000 H   0  0  0  0  0  0  0  0  0  0  0  0
  1  2  1  0  0  0  0
  1  3  1  0  0  0  0
  1  5  2  0  0  0  0
  1 17  1  0  0  0  0
  2 41  1  0  0  0  0
  3 42  1  0  0  0  0
  4 22  2  0  0  0  0
  6 25  1  0  0  0  0
  6 43  1  0  0  0  0
  7 25  2  0  0  0  0
  8 26  2  0  0  0  0
  9 13  1  0  0  0  0
  9 16  1  0  0  0  0
  9 24  1  0  0  0  0
 10 14  1  0  0  0  0
 10 22  1  0  0  0  0
 10 32  1  0  0  0  0
 11 15  1  0  0  0  0
 11 16  2  0  0  0  0
 12 20  1  0  0  0  0
 12 26  1  0  0  0  0
 12 40  1  0  0  0  0
 13 15  2  0  0  0  0
 13 19  1  0  0  0  0
 14 17  1  0  0  0  0
 14 25  1  0  0  0  0
 14 28  1  0  0  0  0
 15 21  1  0  0  0  0
 16 20  1  0  0  0  0
 17 29  1  0  0  0  0
 17 30  1  0  0  0  0
 18 19  2  0  0  0  0
 18 22  1  0  0  0  0
 18 23  1  0  0  0  0
 19 31  1  0  0  0  0
 20 33  1  0  0  0  0
 20 34  1  0  0  0  0
 21 23  2  0  0  0  0
 21 35  1  0  0  0  0
 23 36  1  0  0  0  0
 24 37  1  0  0  0  0
 24 38  1  0  0  0  0
 24 39  1  0  0  0  0
 26 27  1  0  0  0  0
 27 44  1  0  0  0  0
 27 45  1  0  0  0  0
 27 46  1  0  0  0  0
M  END
> <PUBCHEM_COMPOUND_CID>
500999
> <PUBCHEM_COMPOUND_CANONICALIZED>
1
> <PUBCHEM_CACTVS_COMPLEXITY>
640
> <PUBCHEM_CACTVS_HBOND_ACCEPTOR>
8
> <PUBCHEM_CACTVS_HBOND_DONOR>
5
> <PUBCHEM_CACTVS_ROTATABLE_BOND>
7
> <PUBCHEM_CACTVS_SUBSKEYS>
AAADceBzuAIAAAAAAAAAAAAAAAAAAWAAAAAwAAAAAAAAAFgB8AAAHggQCCAADCjJnwQz2LfMEhCoQyfyfICCgC0lEqAJ2KG4dNiKaLLAnbGUYQholgLYyacciQCeCAAAQAAAACAQAACAAAAAQAAAAAAAAA==
> <PUBCHEM_IUPAC_OPENEYE_NAME>
2-[[2-(acetamidomethyl)-3-methyl-benzimidazole-5-carbonyl]amino]-3-phosphono-propanoic acid
> <PUBCHEM_IUPAC_CAS_NAME>
2-[[[2-(acetamidomethyl)-3-methyl-5-benzimidazolyl]-oxomethyl]amino]-3-phosphonopropanoic acid
> <PUBCHEM_IUPAC_NAME_MARKUP>
2-[[2-(acetamidomethyl)-3-methylbenzimidazole-5-carbonyl]amino]-3-phosphonopropanoic acid
> <PUBCHEM_IUPAC_NAME>
2-[[2-(acetamidomethyl)-3-methylbenzimidazole-5-carbonyl]amino]-3-phosphonopropanoic acid
> <PUBCHEM_IUPAC_SYSTEMATIC_NAME>
2-[[2-(acetamidomethyl)-3-methyl-benzimidazol-5-yl]carbonylamino]-3-phosphono-propanoic acid
> <PUBCHEM_IUPAC_TRADITIONAL_NAME>
2-[[2-(acetamidomethyl)-3-methyl-benzimidazole-5-carbonyl]amino]-3-phosphono-propionic acid
> <PUBCHEM_IUPAC_INCHI>
InChI=1S/C15H19N4O7P/c1-8(20)16-6-13-17-10-4-3-9(5-12(10)19(13)2)14(21)18-11(15(22)23)7-27(24,25)26/h3-5,11H,6-7H2,1-2H3,(H,16,20)(H,18,21)(H,22,23)(H2,24,25,26)
> <PUBCHEM_IUPAC_INCHIKEY>
LHFFAAQARRZPHB-UHFFFAOYSA-N
> <PUBCHEM_XLOGP3_AA>
-2.3
> <PUBCHEM_EXACT_MASS>
398.09913596
> <PUBCHEM_MOLECULAR_FORMULA>
C15H19N4O7P
> <PUBCHEM_MOLECULAR_WEIGHT>
398.31
> <PUBCHEM_OPENEYE_CAN_SMILES>
CC(=O)NCC1=NC2=C(N1C)C=C(C=C2)C(=O)NC(CP(=O)(O)O)C(=O)O
> <PUBCHEM_OPENEYE_ISO_SMILES>
CC(=O)NCC1=NC2=C(N1C)C=C(C=C2)C(=O)NC(CP(=O)(O)O)C(=O)O
> <PUBCHEM_CACTVS_TPSA>
171
> <PUBCHEM_MONOISOTOPIC_WEIGHT>
398.09913596
> <PUBCHEM_TOTAL_CHARGE>
0
> <PUBCHEM_HEAVY_ATOM_COUNT>
27
> <PUBCHEM_ATOM_DEF_STEREO_COUNT>
0
> <PUBCHEM_ATOM_UDEF_STEREO_COUNT>
1
> <PUBCHEM_BOND_DEF_STEREO_COUNT>
0
> <PUBCHEM_BOND_UDEF_STEREO_COUNT>
0
> <PUBCHEM_ISOTOPIC_ATOM_COUNT>
0
> <PUBCHEM_COMPONENT_COUNT>
1
> <PUBCHEM_CACTVS_TAUTO_COUNT>
-1
> <PUBCHEM_COORDINATE_TYPE>
1
5
255
> <PUBCHEM_BONDANNOTATIONS>
11  15  8
11  16  8
13  15  8
13  19  8
14  17  3
15  21  8
18  19  8
18  23  8
21  23  8
9  13  8
9  16  8
$$$$
