500980
  -OEChem-10302200282D
 52 55  0     1  0  0  0  0  0999 V2000
    3.4030   -0.0600    0.0000 P   0  0  0  0  0  0  0  0  0  0  0  0
   11.9950   -2.0600    0.0000 F   0  0  0  0  0  0  0  0  0  0  0  0
   11.9950   -0.0600    0.0000 F   0  0  0  0  0  0  0  0  0  0  0  0
   17.1229   -0.0600    0.0000 F   0  0  0  0  0  0  0  0  0  0  0  0
    6.8671    0.9400    0.0000 O   0  0  0  0  0  0  0  0  0  0  0  0
    2.5369    0.4400    0.0000 O   0  0  0  0  0  0  0  0  0  0  0  0
    2.9030   -0.9260    0.0000 O   0  0  0  0  0  0  0  0  0  0  0  0
    3.9030    0.8060    0.0000 O   0  0  0  0  0  0  0  0  0  0  0  0
    4.2690    1.4400    0.0000 O   0  0  0  0  0  0  0  0  0  0  0  0
    6.0010    1.4400    0.0000 O   0  0  0  0  0  0  0  0  0  0  0  0
   10.4114   -0.2553    0.0000 N   0  0  0  0  0  0  0  0  0  0  0  0
   10.4114   -1.8647    0.0000 N   0  0  0  0  0  0  0  0  0  0  0  0
    6.0010   -0.5600    0.0000 N   0  0  0  0  0  0  0  0  0  0  0  0
   13.5786   -0.2553    0.0000 N   0  0  0  0  0  0  0  0  0  0  0  0
   13.5786   -1.8647    0.0000 N   0  0  0  0  0  0  0  0  0  0  0  0
    9.4651   -0.5600    0.0000 C   0  0  0  0  0  0  0  0  0  0  0  0
   10.9950   -1.0600    0.0000 C   0  0  0  0  0  0  0  0  0  0  0  0
   11.9950   -1.0600    0.0000 C   0  0  0  0  0  0  0  0  0  0  0  0
    9.4651   -1.5600    0.0000 C   0  0  0  0  0  0  0  0  0  0  0  0
    8.5991   -0.0600    0.0000 C   0  0  0  0  0  0  0  0  0  0  0  0
   12.9950   -1.0600    0.0000 C   0  0  0  0  0  0  0  0  0  0  0  0
    7.7331   -0.5600    0.0000 C   0  0  0  0  0  0  0  0  0  0  0  0
    5.1350   -0.0600    0.0000 C   0  0  3  0  0  0  0  0  0  0  0  0
    4.2690   -0.5600    0.0000 C   0  0  0  0  0  0  0  0  0  0  0  0
    8.5991   -2.0600    0.0000 C   0  0  0  0  0  0  0  0  0  0  0  0
   10.7220    0.6953    0.0000 C   0  0  0  0  0  0  0  0  0  0  0  0
    7.7331   -1.5600    0.0000 C   0  0  0  0  0  0  0  0  0  0  0  0
    6.8671   -0.0600    0.0000 C   0  0  0  0  0  0  0  0  0  0  0  0
   14.5248   -0.5600    0.0000 C   0  0  0  0  0  0  0  0  0  0  0  0
   14.5248   -1.5600    0.0000 C   0  0  0  0  0  0  0  0  0  0  0  0
    5.1350    0.9400    0.0000 C   0  0  0  0  0  0  0  0  0  0  0  0
   15.3908   -0.0600    0.0000 C   0  0  0  0  0  0  0  0  0  0  0  0
   15.3908   -2.0600    0.0000 C   0  0  0  0  0  0  0  0  0  0  0  0
   16.2568   -0.5600    0.0000 C   0  0  0  0  0  0  0  0  0  0  0  0
   16.2568   -1.5600    0.0000 C   0  0  0  0  0  0  0  0  0  0  0  0
    8.5991    0.5600    0.0000 H   0  0  0  0  0  0  0  0  0  0  0  0
    5.1350   -0.6800    0.0000 H   0  0  0  0  0  0  0  0  0  0  0  0
    3.8705   -1.0350    0.0000 H   0  0  0  0  0  0  0  0  0  0  0  0
    4.6675   -1.0350    0.0000 H   0  0  0  0  0  0  0  0  0  0  0  0
    8.5991   -2.6800    0.0000 H   0  0  0  0  0  0  0  0  0  0  0  0
   11.3113    0.5026    0.0000 H   0  0  0  0  0  0  0  0  0  0  0  0
   10.9146    1.2846    0.0000 H   0  0  0  0  0  0  0  0  0  0  0  0
   10.1327    0.8879    0.0000 H   0  0  0  0  0  0  0  0  0  0  0  0
    7.1962   -1.8700    0.0000 H   0  0  0  0  0  0  0  0  0  0  0  0
    6.0010   -1.1800    0.0000 H   0  0  0  0  0  0  0  0  0  0  0  0
   13.3860    0.3341    0.0000 H   0  0  0  0  0  0  0  0  0  0  0  0
   15.3908    0.5600    0.0000 H   0  0  0  0  0  0  0  0  0  0  0  0
   15.3908   -2.6800    0.0000 H   0  0  0  0  0  0  0  0  0  0  0  0
   16.7938   -1.8700    0.0000 H   0  0  0  0  0  0  0  0  0  0  0  0
    2.0000    0.1300    0.0000 H   0  0  0  0  0  0  0  0  0  0  0  0
    3.2130   -1.4630    0.0000 H   0  0  0  0  0  0  0  0  0  0  0  0
    4.2690    2.0600    0.0000 H   0  0  0  0  0  0  0  0  0  0  0  0
  1  6  1  0  0  0  0
  1  7  1  0  0  0  0
  1  8  2  0  0  0  0
  1 24  1  0  0  0  0
  2 18  1  0  0  0  0
  3 18  1  0  0  0  0
  4 34  1  0  0  0  0
  5 28  2  0  0  0  0
  6 50  1  0  0  0  0
  7 51  1  0  0  0  0
  9 31  1  0  0  0  0
  9 52  1  0  0  0  0
 10 31  2  0  0  0  0
 11 16  1  0  0  0  0
 11 17  1  0  0  0  0
 11 26  1  0  0  0  0
 12 17  2  0  0  0  0
 12 19  1  0  0  0  0
 13 23  1  0  0  0  0
 13 28  1  0  0  0  0
 13 45  1  0  0  0  0
 14 21  1  0  0  0  0
 14 29  1  0  0  0  0
 14 46  1  0  0  0  0
 15 21  2  0  0  0  0
 15 30  1  0  0  0  0
 16 19  2  0  0  0  0
 16 20  1  0  0  0  0
 17 18  1  0  0  0  0
 18 21  1  0  0  0  0
 19 25  1  0  0  0  0
 20 22  2  0  0  0  0
 20 36  1  0  0  0  0
 22 27  1  0  0  0  0
 22 28  1  0  0  0  0
 23 24  1  0  0  0  0
 23 31  1  0  0  0  0
 23 37  1  0  0  0  0
 24 38  1  0  0  0  0
 24 39  1  0  0  0  0
 25 27  2  0  0  0  0
 25 40  1  0  0  0  0
 26 41  1  0  0  0  0
 26 42  1  0  0  0  0
 26 43  1  0  0  0  0
 27 44  1  0  0  0  0
 29 30  2  0  0  0  0
 29 32  1  0  0  0  0
 30 33  1  0  0  0  0
 32 34  2  0  0  0  0
 32 47  1  0  0  0  0
 33 35  2  0  0  0  0
 33 48  1  0  0  0  0
 34 35  1  0  0  0  0
 35 49  1  0  0  0  0
M  END
> <PUBCHEM_COMPOUND_CID>
500980
> <PUBCHEM_COMPOUND_CANONICALIZED>
1
> <PUBCHEM_CACTVS_COMPLEXITY>
880
> <PUBCHEM_CACTVS_HBOND_ACCEPTOR>
11
> <PUBCHEM_CACTVS_HBOND_DONOR>
5
> <PUBCHEM_CACTVS_ROTATABLE_BOND>
7
> <PUBCHEM_CACTVS_SUBSKEYS>
AAADceB7uYIAAAAAAAAAAAAAAAAAAWLAAAAwYAAAAAAAAFgB/gAAHwgQCCAADCjJnxwz2LfNkhCoQyfyfICCgC2lEqAJ2aG4dNiKaLLA3bGUYQholgLYyacciQCeCAAAQAAAACAQAACAAAAAQAAAAAAAAA==
> <PUBCHEM_IUPAC_OPENEYE_NAME>
2-[[2-[difluoro-(6-fluoro-1H-benzimidazol-2-yl)methyl]-3-methyl-benzimidazole-5-carbonyl]amino]-3-phosphono-propanoic acid
> <PUBCHEM_IUPAC_CAS_NAME>
2-[[[2-[difluoro-(6-fluoro-1H-benzimidazol-2-yl)methyl]-3-methyl-5-benzimidazolyl]-oxomethyl]amino]-3-phosphonopropanoic acid
> <PUBCHEM_IUPAC_NAME_MARKUP>
2-[[2-[difluoro-(6-fluoro-1<I>H</I>-benzimidazol-2-yl)methyl]-3-methylbenzimidazole-5-carbonyl]amino]-3-phosphonopropanoic acid
> <PUBCHEM_IUPAC_NAME>
2-[[2-[difluoro-(6-fluoro-1H-benzimidazol-2-yl)methyl]-3-methylbenzimidazole-5-carbonyl]amino]-3-phosphonopropanoic acid
> <PUBCHEM_IUPAC_SYSTEMATIC_NAME>
2-[[2-[bis(fluoranyl)-(6-fluoranyl-1H-benzimidazol-2-yl)methyl]-3-methyl-benzimidazol-5-yl]carbonylamino]-3-phosphono-propanoic acid
> <PUBCHEM_IUPAC_TRADITIONAL_NAME>
2-[[2-[difluoro-(6-fluoro-1H-benzimidazol-2-yl)methyl]-3-methyl-benzimidazole-5-carbonyl]amino]-3-phosphono-propionic acid
> <PUBCHEM_IUPAC_INCHI>
InChI=1S/C20H17F3N5O6P/c1-28-15-6-9(16(29)24-14(17(30)31)8-35(32,33)34)2-4-12(15)27-19(28)20(22,23)18-25-11-5-3-10(21)7-13(11)26-18/h2-7,14H,8H2,1H3,(H,24,29)(H,25,26)(H,30,31)(H2,32,33,34)
> <PUBCHEM_IUPAC_INCHIKEY>
LHHHQBUTWYAROZ-UHFFFAOYSA-N
> <PUBCHEM_XLOGP3_AA>
0.4
> <PUBCHEM_EXACT_MASS>
511.08685476
> <PUBCHEM_MOLECULAR_FORMULA>
C20H17F3N5O6P
> <PUBCHEM_MOLECULAR_WEIGHT>
511.3
> <PUBCHEM_OPENEYE_CAN_SMILES>
CN1C2=C(C=CC(=C2)C(=O)NC(CP(=O)(O)O)C(=O)O)N=C1C(C3=NC4=C(N3)C=C(C=C4)F)(F)F
> <PUBCHEM_OPENEYE_ISO_SMILES>
CN1C2=C(C=CC(=C2)C(=O)NC(CP(=O)(O)O)C(=O)O)N=C1C(C3=NC4=C(N3)C=C(C=C4)F)(F)F
> <PUBCHEM_CACTVS_TPSA>
170
> <PUBCHEM_MONOISOTOPIC_WEIGHT>
511.08685476
> <PUBCHEM_TOTAL_CHARGE>
0
> <PUBCHEM_HEAVY_ATOM_COUNT>
35
> <PUBCHEM_ATOM_DEF_STEREO_COUNT>
0
> <PUBCHEM_ATOM_UDEF_STEREO_COUNT>
1
> <PUBCHEM_BOND_DEF_STEREO_COUNT>
0
> <PUBCHEM_BOND_UDEF_STEREO_COUNT>
0
> <PUBCHEM_ISOTOPIC_ATOM_COUNT>
0
> <PUBCHEM_COMPONENT_COUNT>
1
> <PUBCHEM_CACTVS_TAUTO_COUNT>
-1
> <PUBCHEM_COORDINATE_TYPE>
1
5
255
> <PUBCHEM_BONDANNOTATIONS>
11  16  8
11  17  8
12  17  8
12  19  8
14  21  8
14  29  8
15  21  8
15  30  8
16  19  8
16  20  8
19  25  8
20  22  8
22  27  8
23  24  3
25  27  8
29  30  8
29  32  8
30  33  8
32  34  8
33  35  8
34  35  8
$$$$
