500978
  -OEChem-10302200282D
 52 55  0     1  0  0  0  0  0999 V2000
    3.4030   -0.0600    0.0000 P   0  0  0  0  0  0  0  0  0  0  0  0
   11.9950   -2.0600    0.0000 F   0  0  0  0  0  0  0  0  0  0  0  0
   11.9950   -0.0600    0.0000 F   0  0  0  0  0  0  0  0  0  0  0  0
    6.8671    0.9400    0.0000 O   0  0  0  0  0  0  0  0  0  0  0  0
    2.5369    0.4400    0.0000 O   0  0  0  0  0  0  0  0  0  0  0  0
    2.9030   -0.9260    0.0000 O   0  0  0  0  0  0  0  0  0  0  0  0
    3.9030    0.8060    0.0000 O   0  0  0  0  0  0  0  0  0  0  0  0
    4.2690    1.4400    0.0000 O   0  0  0  0  0  0  0  0  0  0  0  0
    6.0010    1.4400    0.0000 O   0  0  0  0  0  0  0  0  0  0  0  0
   10.4114   -0.2553    0.0000 N   0  0  0  0  0  0  0  0  0  0  0  0
   10.4114   -1.8647    0.0000 N   0  0  0  0  0  0  0  0  0  0  0  0
    6.0010   -0.5600    0.0000 N   0  0  0  0  0  0  0  0  0  0  0  0
   13.5786   -0.2553    0.0000 N   0  0  0  0  0  0  0  0  0  0  0  0
   13.5786   -1.8647    0.0000 N   0  0  0  0  0  0  0  0  0  0  0  0
    9.4651   -0.5600    0.0000 C   0  0  0  0  0  0  0  0  0  0  0  0
   10.9950   -1.0600    0.0000 C   0  0  0  0  0  0  0  0  0  0  0  0
   11.9950   -1.0600    0.0000 C   0  0  0  0  0  0  0  0  0  0  0  0
    9.4651   -1.5600    0.0000 C   0  0  0  0  0  0  0  0  0  0  0  0
    8.5991   -0.0600    0.0000 C   0  0  0  0  0  0  0  0  0  0  0  0
    7.7331   -0.5600    0.0000 C   0  0  0  0  0  0  0  0  0  0  0  0
    5.1350   -0.0600    0.0000 C   0  0  3  0  0  0  0  0  0  0  0  0
   12.9950   -1.0600    0.0000 C   0  0  0  0  0  0  0  0  0  0  0  0
    4.2690   -0.5600    0.0000 C   0  0  0  0  0  0  0  0  0  0  0  0
    8.5991   -2.0600    0.0000 C   0  0  0  0  0  0  0  0  0  0  0  0
   10.7220    0.6953    0.0000 C   0  0  0  0  0  0  0  0  0  0  0  0
    7.7331   -1.5600    0.0000 C   0  0  0  0  0  0  0  0  0  0  0  0
    6.8671   -0.0600    0.0000 C   0  0  0  0  0  0  0  0  0  0  0  0
   14.5248   -0.5600    0.0000 C   0  0  0  0  0  0  0  0  0  0  0  0
   14.5248   -1.5600    0.0000 C   0  0  0  0  0  0  0  0  0  0  0  0
    5.1350    0.9400    0.0000 C   0  0  0  0  0  0  0  0  0  0  0  0
   15.3908   -0.0600    0.0000 C   0  0  0  0  0  0  0  0  0  0  0  0
   15.3908   -2.0600    0.0000 C   0  0  0  0  0  0  0  0  0  0  0  0
   16.2568   -0.5600    0.0000 C   0  0  0  0  0  0  0  0  0  0  0  0
   16.2568   -1.5600    0.0000 C   0  0  0  0  0  0  0  0  0  0  0  0
    8.5991    0.5600    0.0000 H   0  0  0  0  0  0  0  0  0  0  0  0
    5.1350   -0.6800    0.0000 H   0  0  0  0  0  0  0  0  0  0  0  0
    3.8705   -1.0350    0.0000 H   0  0  0  0  0  0  0  0  0  0  0  0
    4.6675   -1.0350    0.0000 H   0  0  0  0  0  0  0  0  0  0  0  0
    8.5991   -2.6800    0.0000 H   0  0  0  0  0  0  0  0  0  0  0  0
   11.3113    0.5026    0.0000 H   0  0  0  0  0  0  0  0  0  0  0  0
   10.9146    1.2846    0.0000 H   0  0  0  0  0  0  0  0  0  0  0  0
   10.1327    0.8879    0.0000 H   0  0  0  0  0  0  0  0  0  0  0  0
    7.1962   -1.8700    0.0000 H   0  0  0  0  0  0  0  0  0  0  0  0
    6.0010   -1.1800    0.0000 H   0  0  0  0  0  0  0  0  0  0  0  0
   13.3860    0.3341    0.0000 H   0  0  0  0  0  0  0  0  0  0  0  0
   15.3908    0.5600    0.0000 H   0  0  0  0  0  0  0  0  0  0  0  0
   15.3908   -2.6800    0.0000 H   0  0  0  0  0  0  0  0  0  0  0  0
   16.7938   -0.2500    0.0000 H   0  0  0  0  0  0  0  0  0  0  0  0
   16.7938   -1.8700    0.0000 H   0  0  0  0  0  0  0  0  0  0  0  0
    2.0000    0.1300    0.0000 H   0  0  0  0  0  0  0  0  0  0  0  0
    3.2130   -1.4630    0.0000 H   0  0  0  0  0  0  0  0  0  0  0  0
    4.2690    2.0600    0.0000 H   0  0  0  0  0  0  0  0  0  0  0  0
  1  5  1  0  0  0  0
  1  6  1  0  0  0  0
  1  7  2  0  0  0  0
  1 23  1  0  0  0  0
  2 17  1  0  0  0  0
  3 17  1  0  0  0  0
  4 27  2  0  0  0  0
  5 50  1  0  0  0  0
  6 51  1  0  0  0  0
  8 30  1  0  0  0  0
  8 52  1  0  0  0  0
  9 30  2  0  0  0  0
 10 15  1  0  0  0  0
 10 16  1  0  0  0  0
 10 25  1  0  0  0  0
 11 16  2  0  0  0  0
 11 18  1  0  0  0  0
 12 21  1  0  0  0  0
 12 27  1  0  0  0  0
 12 44  1  0  0  0  0
 13 22  1  0  0  0  0
 13 28  1  0  0  0  0
 13 45  1  0  0  0  0
 14 22  2  0  0  0  0
 14 29  1  0  0  0  0
 15 18  2  0  0  0  0
 15 19  1  0  0  0  0
 16 17  1  0  0  0  0
 17 22  1  0  0  0  0
 18 24  1  0  0  0  0
 19 20  2  0  0  0  0
 19 35  1  0  0  0  0
 20 26  1  0  0  0  0
 20 27  1  0  0  0  0
 21 23  1  0  0  0  0
 21 30  1  0  0  0  0
 21 36  1  0  0  0  0
 23 37  1  0  0  0  0
 23 38  1  0  0  0  0
 24 26  2  0  0  0  0
 24 39  1  0  0  0  0
 25 40  1  0  0  0  0
 25 41  1  0  0  0  0
 25 42  1  0  0  0  0
 26 43  1  0  0  0  0
 28 29  1  0  0  0  0
 28 31  2  0  0  0  0
 29 32  2  0  0  0  0
 31 33  1  0  0  0  0
 31 46  1  0  0  0  0
 32 34  1  0  0  0  0
 32 47  1  0  0  0  0
 33 34  2  0  0  0  0
 33 48  1  0  0  0  0
 34 49  1  0  0  0  0
M  END
> <PUBCHEM_COMPOUND_CID>
500978
> <PUBCHEM_COMPOUND_CANONICALIZED>
1
> <PUBCHEM_CACTVS_COMPLEXITY>
846
> <PUBCHEM_CACTVS_HBOND_ACCEPTOR>
10
> <PUBCHEM_CACTVS_HBOND_DONOR>
5
> <PUBCHEM_CACTVS_ROTATABLE_BOND>
7
> <PUBCHEM_CACTVS_SUBSKEYS>
AAADceB7uYIAAAAAAAAAAAAAAAAAAWLAAAAwYAAAAAAAAFgB/gAAHwgQCCAADCjJnxQz2LfNkhCoQyfyfICCgC2lEqAJ2aG4dNiKaLLA3bGUYQholgLYyacciQCeCAAAQAAAACAQAACAAAAAQAAAAAAAAA==
> <PUBCHEM_IUPAC_OPENEYE_NAME>
2-[[2-[1H-benzimidazol-2-yl(difluoro)methyl]-3-methyl-benzimidazole-5-carbonyl]amino]-3-phosphono-propanoic acid
> <PUBCHEM_IUPAC_CAS_NAME>
2-[[[2-[1H-benzimidazol-2-yl(difluoro)methyl]-3-methyl-5-benzimidazolyl]-oxomethyl]amino]-3-phosphonopropanoic acid
> <PUBCHEM_IUPAC_NAME_MARKUP>
2-[[2-[1<I>H</I>-benzimidazol-2-yl(difluoro)methyl]-3-methylbenzimidazole-5-carbonyl]amino]-3-phosphonopropanoic acid
> <PUBCHEM_IUPAC_NAME>
2-[[2-[1H-benzimidazol-2-yl(difluoro)methyl]-3-methylbenzimidazole-5-carbonyl]amino]-3-phosphonopropanoic acid
> <PUBCHEM_IUPAC_SYSTEMATIC_NAME>
2-[[2-[1H-benzimidazol-2-yl-bis(fluoranyl)methyl]-3-methyl-benzimidazol-5-yl]carbonylamino]-3-phosphono-propanoic acid
> <PUBCHEM_IUPAC_TRADITIONAL_NAME>
2-[[2-[1H-benzimidazol-2-yl(difluoro)methyl]-3-methyl-benzimidazole-5-carbonyl]amino]-3-phosphono-propionic acid
> <PUBCHEM_IUPAC_INCHI>
InChI=1S/C20H18F2N5O6P/c1-27-15-8-10(16(28)23-14(17(29)30)9-34(31,32)33)6-7-13(15)26-19(27)20(21,22)18-24-11-4-2-3-5-12(11)25-18/h2-8,14H,9H2,1H3,(H,23,28)(H,24,25)(H,29,30)(H2,31,32,33)
> <PUBCHEM_IUPAC_INCHIKEY>
JLFYTDJGSBYOSU-UHFFFAOYSA-N
> <PUBCHEM_XLOGP3_AA>
0.3
> <PUBCHEM_EXACT_MASS>
493.09627663
> <PUBCHEM_MOLECULAR_FORMULA>
C20H18F2N5O6P
> <PUBCHEM_MOLECULAR_WEIGHT>
493.4
> <PUBCHEM_OPENEYE_CAN_SMILES>
CN1C2=C(C=CC(=C2)C(=O)NC(CP(=O)(O)O)C(=O)O)N=C1C(C3=NC4=CC=CC=C4N3)(F)F
> <PUBCHEM_OPENEYE_ISO_SMILES>
CN1C2=C(C=CC(=C2)C(=O)NC(CP(=O)(O)O)C(=O)O)N=C1C(C3=NC4=CC=CC=C4N3)(F)F
> <PUBCHEM_CACTVS_TPSA>
170
> <PUBCHEM_MONOISOTOPIC_WEIGHT>
493.09627663
> <PUBCHEM_TOTAL_CHARGE>
0
> <PUBCHEM_HEAVY_ATOM_COUNT>
34
> <PUBCHEM_ATOM_DEF_STEREO_COUNT>
0
> <PUBCHEM_ATOM_UDEF_STEREO_COUNT>
1
> <PUBCHEM_BOND_DEF_STEREO_COUNT>
0
> <PUBCHEM_BOND_UDEF_STEREO_COUNT>
0
> <PUBCHEM_ISOTOPIC_ATOM_COUNT>
0
> <PUBCHEM_COMPONENT_COUNT>
1
> <PUBCHEM_CACTVS_TAUTO_COUNT>
-1
> <PUBCHEM_COORDINATE_TYPE>
1
5
255
> <PUBCHEM_BONDANNOTATIONS>
10  15  8
10  16  8
11  16  8
11  18  8
13  22  8
13  28  8
14  22  8
14  29  8
15  18  8
15  19  8
18  24  8
19  20  8
20  26  8
21  23  3
24  26  8
28  29  8
28  31  8
29  32  8
31  33  8
32  34  8
33  34  8
$$$$
