501057
  -OEChem-10302200282D
 74 78  0     1  0  0  0  0  0999 V2000
    7.6133    5.4055    0.0000 F   0  0  0  0  0  0  0  0  0  0  0  0
    2.7688   -1.3083    0.0000 O   0  0  0  0  0  0  0  0  0  0  0  0
    4.3511   -0.6039    0.0000 O   0  0  0  0  0  0  0  0  0  0  0  0
    5.1646   -2.4309    0.0000 N   0  0  3  0  0  0  0  0  0  0  0  0
    7.6133   -0.5945    0.0000 N   0  0  0  0  0  0  0  0  0  0  0  0
    6.7473   -2.0945    0.0000 C   0  0  2  0  0  0  0  0  0  0  0  0
    6.6428   -3.0891    0.0000 C   0  0  2  0  0  0  0  0  0  0  0  0
    5.8338   -1.6878    0.0000 C   0  0  0  0  0  0  0  0  0  0  0  0
    5.6646   -3.2970    0.0000 C   0  0  0  0  0  0  0  0  0  0  0  0
    4.1701   -2.3264    0.0000 C   0  0  2  0  0  0  0  0  0  0  0  0
    3.5823   -3.1354    0.0000 C   0  0  0  0  0  0  0  0  0  0  0  0
    7.6133   -1.5945    0.0000 C   0  0  0  0  0  0  0  0  0  0  0  0
    2.5878   -3.0309    0.0000 C   0  0  0  0  0  0  0  0  0  0  0  0
    3.9890   -4.0490    0.0000 C   0  0  0  0  0  0  0  0  0  0  0  0
    7.3859   -3.7582    0.0000 C   0  0  0  0  0  0  0  0  0  0  0  0
    2.0000   -3.8399    0.0000 C   0  0  0  0  0  0  0  0  0  0  0  0
    3.4013   -4.8580    0.0000 C   0  0  0  0  0  0  0  0  0  0  0  0
    6.7473   -0.0945    0.0000 C   0  0  0  0  0  0  0  0  0  0  0  0
    8.4793   -0.0945    0.0000 C   0  0  0  0  0  0  0  0  0  0  0  0
    2.4067   -4.7535    0.0000 C   0  0  0  0  0  0  0  0  0  0  0  0
    7.6133    1.4055    0.0000 C   0  0  0  0  0  0  0  0  0  0  0  0
    6.7473    0.9055    0.0000 C   0  0  0  0  0  0  0  0  0  0  0  0
    8.4793    0.9055    0.0000 C   0  0  0  0  0  0  0  0  0  0  0  0
    3.7634   -1.4129    0.0000 C   0  0  0  0  0  0  0  0  0  0  0  0
    8.3370   -3.4492    0.0000 C   0  0  0  0  0  0  0  0  0  0  0  0
    7.1780   -4.7363    0.0000 C   0  0  0  0  0  0  0  0  0  0  0  0
    7.6133    2.4055    0.0000 C   0  0  0  0  0  0  0  0  0  0  0  0
    9.0801   -4.1183    0.0000 C   0  0  0  0  0  0  0  0  0  0  0  0
    7.9211   -5.4055    0.0000 C   0  0  0  0  0  0  0  0  0  0  0  0
    8.8722   -5.0964    0.0000 C   0  0  0  0  0  0  0  0  0  0  0  0
    6.7473    2.9055    0.0000 C   0  0  0  0  0  0  0  0  0  0  0  0
    8.4793    2.9055    0.0000 C   0  0  0  0  0  0  0  0  0  0  0  0
    6.7473    3.9055    0.0000 C   0  0  0  0  0  0  0  0  0  0  0  0
    8.4793    3.9055    0.0000 C   0  0  0  0  0  0  0  0  0  0  0  0
    7.6133    4.4055    0.0000 C   0  0  0  0  0  0  0  0  0  0  0  0
    7.2673   -2.4322    0.0000 H   0  0  0  0  0  0  0  0  0  0  0  0
    6.4823   -3.6879    0.0000 H   0  0  0  0  0  0  0  0  0  0  0  0
    6.1437   -1.1509    0.0000 H   0  0  0  0  0  0  0  0  0  0  0  0
    5.3322   -1.3234    0.0000 H   0  0  0  0  0  0  0  0  0  0  0  0
    5.0982   -3.5491    0.0000 H   0  0  0  0  0  0  0  0  0  0  0  0
    5.8562   -3.8866    0.0000 H   0  0  0  0  0  0  0  0  0  0  0  0
    4.5345   -1.8248    0.0000 H   0  0  0  0  0  0  0  0  0  0  0  0
    3.3301   -2.5690    0.0000 H   0  0  0  0  0  0  0  0  0  0  0  0
    7.8254   -2.1771    0.0000 H   0  0  0  0  0  0  0  0  0  0  0  0
    8.2239   -1.4869    0.0000 H   0  0  0  0  0  0  0  0  0  0  0  0
    2.7587   -2.4349    0.0000 H   0  0  0  0  0  0  0  0  0  0  0  0
    2.0305   -2.7591    0.0000 H   0  0  0  0  0  0  0  0  0  0  0  0
    4.4197   -4.4950    0.0000 H   0  0  0  0  0  0  0  0  0  0  0  0
    4.5030   -3.7023    0.0000 H   0  0  0  0  0  0  0  0  0  0  0  0
    1.5693   -3.3939    0.0000 H   0  0  0  0  0  0  0  0  0  0  0  0
    1.4860   -4.1866    0.0000 H   0  0  0  0  0  0  0  0  0  0  0  0
    3.2304   -5.4540    0.0000 H   0  0  0  0  0  0  0  0  0  0  0  0
    3.9585   -5.1298    0.0000 H   0  0  0  0  0  0  0  0  0  0  0  0
    6.1367    0.0131    0.0000 H   0  0  0  0  0  0  0  0  0  0  0  0
    6.5352   -0.6771    0.0000 H   0  0  0  0  0  0  0  0  0  0  0  0
    8.6914   -0.6771    0.0000 H   0  0  0  0  0  0  0  0  0  0  0  0
    9.0899    0.0131    0.0000 H   0  0  0  0  0  0  0  0  0  0  0  0
    1.8052   -4.9035    0.0000 H   0  0  0  0  0  0  0  0  0  0  0  0
    2.4500   -5.3720    0.0000 H   0  0  0  0  0  0  0  0  0  0  0  0
    7.0764    1.7155    0.0000 H   0  0  0  0  0  0  0  0  0  0  0  0
    6.5352    1.4881    0.0000 H   0  0  0  0  0  0  0  0  0  0  0  0
    6.1367    0.7978    0.0000 H   0  0  0  0  0  0  0  0  0  0  0  0
    9.0899    0.7978    0.0000 H   0  0  0  0  0  0  0  0  0  0  0  0
    8.6914    1.4881    0.0000 H   0  0  0  0  0  0  0  0  0  0  0  0
    8.4659   -2.8427    0.0000 H   0  0  0  0  0  0  0  0  0  0  0  0
    6.5883   -4.9279    0.0000 H   0  0  0  0  0  0  0  0  0  0  0  0
    9.6698   -3.9267    0.0000 H   0  0  0  0  0  0  0  0  0  0  0  0
    7.7922   -6.0119    0.0000 H   0  0  0  0  0  0  0  0  0  0  0  0
    2.5167   -0.7419    0.0000 H   0  0  0  0  0  0  0  0  0  0  0  0
    9.3330   -5.5113    0.0000 H   0  0  0  0  0  0  0  0  0  0  0  0
    6.2104    2.5955    0.0000 H   0  0  0  0  0  0  0  0  0  0  0  0
    9.0163    2.5955    0.0000 H   0  0  0  0  0  0  0  0  0  0  0  0
    6.2104    4.2155    0.0000 H   0  0  0  0  0  0  0  0  0  0  0  0
    9.0163    4.2155    0.0000 H   0  0  0  0  0  0  0  0  0  0  0  0
  1 35  1  0  0  0  0
  2 24  1  0  0  0  0
  2 69  1  0  0  0  0
  3 24  2  0  0  0  0
  4  8  1  0  0  0  0
  4  9  1  0  0  0  0
  4 10  1  0  0  0  0
  5 12  1  0  0  0  0
  5 18  1  0  0  0  0
  5 19  1  0  0  0  0
  6  7  1  0  0  0  0
  6  8  1  0  0  0  0
  6 12  1  6  0  0  0
  6 36  1  0  0  0  0
  7  9  1  0  0  0  0
  7 15  1  1  0  0  0
  7 37  1  0  0  0  0
  8 38  1  0  0  0  0
  8 39  1  0  0  0  0
  9 40  1  0  0  0  0
  9 41  1  0  0  0  0
 10 11  1  0  0  0  0
 10 24  1  6  0  0  0
 10 42  1  0  0  0  0
 11 13  1  0  0  0  0
 11 14  1  0  0  0  0
 11 43  1  0  0  0  0
 12 44  1  0  0  0  0
 12 45  1  0  0  0  0
 13 16  1  0  0  0  0
 13 46  1  0  0  0  0
 13 47  1  0  0  0  0
 14 17  1  0  0  0  0
 14 48  1  0  0  0  0
 14 49  1  0  0  0  0
 15 25  2  0  0  0  0
 15 26  1  0  0  0  0
 16 20  1  0  0  0  0
 16 50  1  0  0  0  0
 16 51  1  0  0  0  0
 17 20  1  0  0  0  0
 17 52  1  0  0  0  0
 17 53  1  0  0  0  0
 18 22  1  0  0  0  0
 18 54  1  0  0  0  0
 18 55  1  0  0  0  0
 19 23  1  0  0  0  0
 19 56  1  0  0  0  0
 19 57  1  0  0  0  0
 20 58  1  0  0  0  0
 20 59  1  0  0  0  0
 21 22  1  0  0  0  0
 21 23  1  0  0  0  0
 21 27  1  0  0  0  0
 21 60  1  0  0  0  0
 22 61  1  0  0  0  0
 22 62  1  0  0  0  0
 23 63  1  0  0  0  0
 23 64  1  0  0  0  0
 25 28  1  0  0  0  0
 25 65  1  0  0  0  0
 26 29  2  0  0  0  0
 26 66  1  0  0  0  0
 27 31  2  0  0  0  0
 27 32  1  0  0  0  0
 28 30  2  0  0  0  0
 28 67  1  0  0  0  0
 29 30  1  0  0  0  0
 29 68  1  0  0  0  0
 30 70  1  0  0  0  0
 31 33  1  0  0  0  0
 31 71  1  0  0  0  0
 32 34  2  0  0  0  0
 32 72  1  0  0  0  0
 33 35  2  0  0  0  0
 33 73  1  0  0  0  0
 34 35  1  0  0  0  0
 34 74  1  0  0  0  0
M  END
> <PUBCHEM_COMPOUND_CID>
501057
> <PUBCHEM_COMPOUND_CANONICALIZED>
1
> <PUBCHEM_CACTVS_COMPLEXITY>
661
> <PUBCHEM_CACTVS_HBOND_ACCEPTOR>
5
> <PUBCHEM_CACTVS_HBOND_DONOR>
1
> <PUBCHEM_CACTVS_ROTATABLE_BOND>
7
> <PUBCHEM_CACTVS_SUBSKEYS>
AAADcfB7MQAAAAAAAAAAAAAAAAAAAWAAAAA8YMEAAAAAAAABQAAAHwAACAAADSjBmAwwCIMAAgCIAiDSCAACAAAgAAAIiAGIAIgKIDKA0TGEYAAkgACYiAeYyOCOgAAAAAAAAAAAAAAAAAAAAAAAAAAAAA==
> <PUBCHEM_IUPAC_OPENEYE_NAME>
(2R)-2-cyclohexyl-2-[(3S,4S)-3-[[4-(4-fluorophenyl)-1-piperidyl]methyl]-4-phenyl-pyrrolidin-1-yl]acetic acid
> <PUBCHEM_IUPAC_CAS_NAME>
(2R)-2-cyclohexyl-2-[(3S,4S)-3-[[4-(4-fluorophenyl)-1-piperidinyl]methyl]-4-phenyl-1-pyrrolidinyl]acetic acid
> <PUBCHEM_IUPAC_NAME_MARKUP>
(2<I>R</I>)-2-cyclohexyl-2-[(3<I>S</I>,4<I>S</I>)-3-[[4-(4-fluorophenyl)piperidin-1-yl]methyl]-4-phenylpyrrolidin-1-yl]acetic acid
> <PUBCHEM_IUPAC_NAME>
(2R)-2-cyclohexyl-2-[(3S,4S)-3-[[4-(4-fluorophenyl)piperidin-1-yl]methyl]-4-phenylpyrrolidin-1-yl]acetic acid
> <PUBCHEM_IUPAC_SYSTEMATIC_NAME>
(2R)-2-cyclohexyl-2-[(3S,4S)-3-[[4-(4-fluorophenyl)piperidin-1-yl]methyl]-4-phenyl-pyrrolidin-1-yl]ethanoic acid
> <PUBCHEM_IUPAC_TRADITIONAL_NAME>
(2R)-2-cyclohexyl-2-[(3S,4S)-3-[[4-(4-fluorophenyl)piperidino]methyl]-4-phenyl-pyrrolidino]acetic acid
> <PUBCHEM_IUPAC_INCHI>
InChI=1S/C30H39FN2O2/c31-27-13-11-22(12-14-27)23-15-17-32(18-16-23)19-26-20-33(21-28(26)24-7-3-1-4-8-24)29(30(34)35)25-9-5-2-6-10-25/h1,3-4,7-8,11-14,23,25-26,28-29H,2,5-6,9-10,15-21H2,(H,34,35)/t26-,28+,29+/m0/s1
> <PUBCHEM_IUPAC_INCHIKEY>
VOLDNXUFIUKWPL-WIIGKZCBSA-N
> <PUBCHEM_XLOGP3_AA>
4.1
> <PUBCHEM_EXACT_MASS>
478.29955665
> <PUBCHEM_MOLECULAR_FORMULA>
C30H39FN2O2
> <PUBCHEM_MOLECULAR_WEIGHT>
478.6
> <PUBCHEM_OPENEYE_CAN_SMILES>
C1CCC(CC1)C(C(=O)O)N2CC(C(C2)C3=CC=CC=C3)CN4CCC(CC4)C5=CC=C(C=C5)F
> <PUBCHEM_OPENEYE_ISO_SMILES>
C1CCC(CC1)[C@H](C(=O)O)N2C[C@@H]([C@H](C2)C3=CC=CC=C3)CN4CCC(CC4)C5=CC=C(C=C5)F
> <PUBCHEM_CACTVS_TPSA>
43.8
> <PUBCHEM_MONOISOTOPIC_WEIGHT>
478.29955665
> <PUBCHEM_TOTAL_CHARGE>
0
> <PUBCHEM_HEAVY_ATOM_COUNT>
35
> <PUBCHEM_ATOM_DEF_STEREO_COUNT>
3
> <PUBCHEM_ATOM_UDEF_STEREO_COUNT>
0
> <PUBCHEM_BOND_DEF_STEREO_COUNT>
0
> <PUBCHEM_BOND_UDEF_STEREO_COUNT>
0
> <PUBCHEM_ISOTOPIC_ATOM_COUNT>
0
> <PUBCHEM_COMPONENT_COUNT>
1
> <PUBCHEM_CACTVS_TAUTO_COUNT>
-1
> <PUBCHEM_COORDINATE_TYPE>
1
5
255
> <PUBCHEM_BONDANNOTATIONS>
10  24  6
15  25  8
15  26  8
25  28  8
26  29  8
27  31  8
27  32  8
28  30  8
29  30  8
31  33  8
32  34  8
33  35  8
34  35  8
6  12  6
7  15  5
$$$$
