501011
  -OEChem-10302200282D
125135  0     1  0  0  0  0  0999 V2000
    9.0748   -3.3540    0.0000 P   0  0  3  0  0  0  0  0  0  0  0  0
   14.6459   -2.9608    0.0000 P   0  0  3  0  0  0  0  0  0  0  0  0
    7.7646    1.3643    0.0000 P   0  0  3  0  0  0  0  0  0  0  0  0
   12.1112   -4.7252    0.0000 O   0  0  0  0  0  0  0  0  0  0  0  0
    6.0834   -1.5122    0.0000 O   0  0  0  0  0  0  0  0  0  0  0  0
    9.5733   -4.2209    0.0000 O   0  0  0  0  0  0  0  0  0  0  0  0
   17.5693   -3.8675    0.0000 O   0  0  0  0  0  0  0  0  0  0  0  0
   15.4559   -2.3744    0.0000 O   0  0  0  0  0  0  0  0  0  0  0  0
   10.8551   -2.4630    0.0000 O   0  0  0  0  0  0  0  0  0  0  0  0
    6.8503    0.9591    0.0000 O   0  0  0  0  0  0  0  0  0  0  0  0
   13.8358   -3.5472    0.0000 O   0  0  0  0  0  0  0  0  0  0  0  0
    8.5763   -2.4871    0.0000 O   0  0  0  0  0  0  0  0  0  0  0  0
    8.4646   -0.4994    0.0000 O   0  0  0  0  0  0  0  0  0  0  0  0
   17.3419   -1.2899    0.0000 O   0  0  0  0  0  0  0  0  0  0  0  0
   19.6240   -3.4927    0.0000 O   0  0  0  0  0  0  0  0  0  0  0  0
    8.2079   -3.8525    0.0000 O   0  5  0  0  0  0  0  0  0  0  0  0
    9.9416   -2.8555    0.0000 O   0  0  0  0  0  0  0  0  0  0  0  0
   15.2323   -3.7708    0.0000 O   0  5  0  0  0  0  0  0  0  0  0  0
   14.0595   -2.1508    0.0000 O   0  0  0  0  0  0  0  0  0  0  0  0
    8.6788    1.7694    0.0000 O   0  0  0  0  0  0  0  0  0  0  0  0
    7.3594    2.2785    0.0000 O   0  5  0  0  0  0  0  0  0  0  0  0
    8.1698    0.4500    0.0000 O   0  0  0  0  0  0  0  0  0  0  0  0
    9.8056    4.1633    0.0000 O   0  0  0  0  0  0  0  0  0  0  0  0
   10.8490   -5.9831    0.0000 N   0  0  0  0  0  0  0  0  0  0  0  0
    4.9644   -0.1254    0.0000 N   0  0  0  0  0  0  0  0  0  0  0  0
   15.9045   -4.5032    0.0000 N   0  0  0  0  0  0  0  0  0  0  0  0
   10.8490   -7.5926    0.0000 N   0  0  0  0  0  0  0  0  0  0  0  0
    3.3637    0.0429    0.0000 N   0  0  0  0  0  0  0  0  0  0  0  0
    9.0367   -5.7879    0.0000 N   0  0  0  0  0  0  0  0  0  0  0  0
   14.5079   -5.3031    0.0000 N   0  0  0  0  0  0  0  0  0  0  0  0
    5.3480    1.6565    0.0000 N   0  0  0  0  0  0  0  0  0  0  0  0
   16.9747   -5.9788    0.0000 N   0  0  0  0  0  0  0  0  0  0  0  0
    8.1707   -7.2879    0.0000 N   0  0  0  0  0  0  0  0  0  0  0  0
    3.9467    2.6746    0.0000 N   0  0  0  0  0  0  0  0  0  0  0  0
   16.1035   -7.4757    0.0000 N   0  0  0  0  0  0  0  0  0  0  0  0
    9.0367   -8.7879    0.0000 N   0  0  0  0  0  0  0  0  0  0  0  0
    2.3644    1.9701    0.0000 N   0  0  0  0  0  0  0  0  0  0  0  0
   14.3714   -7.4698    0.0000 N   0  0  0  0  0  0  0  0  0  0  0  0
   10.8261    5.5628    0.0000 N   0  0  0  0  0  0  0  0  0  0  0  0
   10.4915    7.1371    0.0000 N   0  0  0  0  0  0  0  0  0  0  0  0
   12.6393    5.7486    0.0000 N   0  0  0  0  0  0  0  0  0  0  0  0
   13.1746    7.3958    0.0000 N   0  0  0  0  0  0  0  0  0  0  0  0
   12.0156    8.6830    0.0000 N   0  0  0  0  0  0  0  0  0  0  0  0
   10.5733   -4.2226    0.0000 C   0  0  2  0  0  0  0  0  0  0  0  0
   11.1624   -3.4146    0.0000 C   0  0  1  0  0  0  0  0  0  0  0  0
   12.1130   -3.7252    0.0000 C   0  0  1  0  0  0  0  0  0  0  0  0
   11.1596   -5.0326    0.0000 C   0  0  1  0  0  0  0  0  0  0  0  0
    6.7441   -0.0352    0.0000 C   0  0  2  0  0  0  0  0  0  0  0  0
    7.4861   -0.7056    0.0000 C   0  0  1  0  0  0  0  0  0  0  0  0
    7.0778   -1.6185    0.0000 C   0  0  1  0  0  0  0  0  0  0  0  0
    5.8772   -0.5337    0.0000 C   0  0  1  0  0  0  0  0  0  0  0  0
   16.3687   -2.7827    0.0000 C   0  0  2  0  0  0  0  0  0  0  0  0
   17.2356   -2.2842    0.0000 C   0  0  1  0  0  0  0  0  0  0  0  0
   16.5750   -3.7612    0.0000 C   0  0  1  0  0  0  0  0  0  0  0  0
   17.9776   -2.9546    0.0000 C   0  0  1  0  0  0  0  0  0  0  0  0
   12.9230   -3.1389    0.0000 C   0  0  0  0  0  0  0  0  0  0  0  0
    7.5763   -2.4853    0.0000 C   0  0  0  0  0  0  0  0  0  0  0  0
   18.9561   -2.7484    0.0000 C   0  0  0  0  0  0  0  0  0  0  0  0
    9.9028   -6.2879    0.0000 C   0  0  0  0  0  0  0  0  0  0  0  0
   11.4326   -6.7879    0.0000 C   0  0  0  0  0  0  0  0  0  0  0  0
    4.7602    0.8475    0.0000 C   0  0  0  0  0  0  0  0  0  0  0  0
   16.1104   -5.4758    0.0000 C   0  0  0  0  0  0  0  0  0  0  0  0
    4.1030   -0.6217    0.0000 C   0  0  0  0  0  0  0  0  0  0  0  0
    9.9028   -7.2879    0.0000 C   0  0  0  0  0  0  0  0  0  0  0  0
   14.9162   -4.3967    0.0000 C   0  0  0  0  0  0  0  0  0  0  0  0
    3.7657    0.9520    0.0000 C   0  0  0  0  0  0  0  0  0  0  0  0
   15.2426   -5.9727    0.0000 C   0  0  0  0  0  0  0  0  0  0  0  0
    9.0367   -7.7879    0.0000 C   0  0  0  0  0  0  0  0  0  0  0  0
    3.3590    1.8656    0.0000 C   0  0  0  0  0  0  0  0  0  0  0  0
   15.2392   -6.9728    0.0000 C   0  0  0  0  0  0  0  0  0  0  0  0
    8.1707   -6.2879    0.0000 C   0  0  0  0  0  0  0  0  0  0  0  0
    4.9413    2.5701    0.0000 C   0  0  0  0  0  0  0  0  0  0  0  0
   16.9712   -6.9787    0.0000 C   0  0  0  0  0  0  0  0  0  0  0  0
    8.7851    2.7638    0.0000 C   0  0  0  0  0  0  0  0  0  0  0  0
    9.6993    3.1690    0.0000 C   0  0  0  0  0  0  0  0  0  0  0  0
   10.7198    4.5684    0.0000 C   0  0  0  0  0  0  0  0  0  0  0  0
   11.6883    6.0576    0.0000 C   0  0  0  0  0  0  0  0  0  0  0  0
   10.0879    6.2286    0.0000 C   0  0  0  0  0  0  0  0  0  0  0  0
   11.4804    7.0357    0.0000 C   0  0  0  0  0  0  0  0  0  0  0  0
   12.2235    7.7049    0.0000 C   0  0  0  0  0  0  0  0  0  0  0  0
   13.3825    6.4177    0.0000 C   0  0  0  0  0  0  0  0  0  0  0  0
   10.2908   -4.7745    0.0000 H   0  0  0  0  0  0  0  0  0  0  0  0
   11.6016   -2.9769    0.0000 H   0  0  0  0  0  0  0  0  0  0  0  0
   12.6649   -4.0077    0.0000 H   0  0  0  0  0  0  0  0  0  0  0  0
   11.5973   -5.4718    0.0000 H   0  0  0  0  0  0  0  0  0  0  0  0
    6.2247    0.3034    0.0000 H   0  0  0  0  0  0  0  0  0  0  0  0
    7.8754   -1.1881    0.0000 H   0  0  0  0  0  0  0  0  0  0  0  0
    6.7392   -2.1378    0.0000 H   0  0  0  0  0  0  0  0  0  0  0  0
    5.3947   -0.9230    0.0000 H   0  0  0  0  0  0  0  0  0  0  0  0
   16.3374   -2.1635    0.0000 H   0  0  0  0  0  0  0  0  0  0  0  0
   17.8148   -2.0630    0.0000 H   0  0  0  0  0  0  0  0  0  0  0  0
   15.9764   -3.5997    0.0000 H   0  0  0  0  0  0  0  0  0  0  0  0
   18.3670   -3.4372    0.0000 H   0  0  0  0  0  0  0  0  0  0  0  0
   13.2706   -2.6255    0.0000 H   0  0  0  0  0  0  0  0  0  0  0  0
   12.4778   -2.7074    0.0000 H   0  0  0  0  0  0  0  0  0  0  0  0
    6.9933   -2.6964    0.0000 H   0  0  0  0  0  0  0  0  0  0  0  0
    7.6829   -3.0961    0.0000 H   0  0  0  0  0  0  0  0  0  0  0  0
   19.4825   -2.4208    0.0000 H   0  0  0  0  0  0  0  0  0  0  0  0
   18.7249   -2.1732    0.0000 H   0  0  0  0  0  0  0  0  0  0  0  0
   11.2707   -2.0030    0.0000 H   0  0  0  0  0  0  0  0  0  0  0  0
    8.6572    0.0899    0.0000 H   0  0  0  0  0  0  0  0  0  0  0  0
   12.0526   -6.7879    0.0000 H   0  0  0  0  0  0  0  0  0  0  0  0
   17.9087   -1.0387    0.0000 H   0  0  0  0  0  0  0  0  0  0  0  0
    4.0382   -1.2383    0.0000 H   0  0  0  0  0  0  0  0  0  0  0  0
   14.6080   -3.8587    0.0000 H   0  0  0  0  0  0  0  0  0  0  0  0
   20.2306   -3.3649    0.0000 H   0  0  0  0  0  0  0  0  0  0  0  0
    7.6338   -5.9779    0.0000 H   0  0  0  0  0  0  0  0  0  0  0  0
    5.3057    3.0717    0.0000 H   0  0  0  0  0  0  0  0  0  0  0  0
   17.5071   -7.2906    0.0000 H   0  0  0  0  0  0  0  0  0  0  0  0
    8.6361    3.3656    0.0000 H   0  0  0  0  0  0  0  0  0  0  0  0
    8.1665    2.7216    0.0000 H   0  0  0  0  0  0  0  0  0  0  0  0
    8.4998   -9.0979    0.0000 H   0  0  0  0  0  0  0  0  0  0  0  0
    9.5737   -9.0979    0.0000 H   0  0  0  0  0  0  0  0  0  0  0  0
    2.1122    2.5365    0.0000 H   0  0  0  0  0  0  0  0  0  0  0  0
    2.0000    1.4685    0.0000 H   0  0  0  0  0  0  0  0  0  0  0  0
   14.3693   -8.0897    0.0000 H   0  0  0  0  0  0  0  0  0  0  0  0
   13.8356   -7.1579    0.0000 H   0  0  0  0  0  0  0  0  0  0  0  0
    9.8483    2.5671    0.0000 H   0  0  0  0  0  0  0  0  0  0  0  0
   10.3179    3.2111    0.0000 H   0  0  0  0  0  0  0  0  0  0  0  0
   10.8688    3.9666    0.0000 H   0  0  0  0  0  0  0  0  0  0  0  0
   11.3384    4.6106    0.0000 H   0  0  0  0  0  0  0  0  0  0  0  0
    9.4815    6.0997    0.0000 H   0  0  0  0  0  0  0  0  0  0  0  0
   13.9721    6.2261    0.0000 H   0  0  0  0  0  0  0  0  0  0  0  0
   12.4763    9.0979    0.0000 H   0  0  0  0  0  0  0  0  0  0  0  0
   11.4259    8.8746    0.0000 H   0  0  0  0  0  0  0  0  0  0  0  0
  1  6  1  0  0  0  0
  1 12  1  0  0  0  0
  1 16  1  0  0  0  0
  1 17  2  0  0  0  0
  2  8  1  0  0  0  0
  2 11  1  0  0  0  0
  2 18  1  0  0  0  0
  2 19  2  0  0  0  0
  3 10  1  0  0  0  0
  3 20  1  0  0  0  0
  3 21  1  0  0  0  0
  3 22  2  0  0  0  0
  4 46  1  0  0  0  0
  4 47  1  0  0  0  0
  5 50  1  0  0  0  0
  5 51  1  0  0  0  0
 44  6  1  6  0  0  0
  7 54  1  0  0  0  0
  7 55  1  0  0  0  0
 52  8  1  6  0  0  0
 45  9  1  6  0  0  0
  9100  1  0  0  0  0
 48 10  1  6  0  0  0
 11 56  1  0  0  0  0
 12 57  1  0  0  0  0
 49 13  1  6  0  0  0
 13101  1  0  0  0  0
 53 14  1  6  0  0  0
 14103  1  0  0  0  0
 15 58  1  0  0  0  0
 15106  1  0  0  0  0
 20 74  1  0  0  0  0
 23 75  1  0  0  0  0
 23 76  1  0  0  0  0
 47 24  1  1  0  0  0
 24 59  1  0  0  0  0
 24 60  1  0  0  0  0
 51 25  1  1  0  0  0
 25 61  1  0  0  0  0
 25 63  1  0  0  0  0
 54 26  1  1  0  0  0
 26 62  1  0  0  0  0
 26 65  1  0  0  0  0
 27 60  2  0  0  0  0
 27 64  1  0  0  0  0
 28 63  2  0  0  0  0
 28 66  1  0  0  0  0
 29 59  2  0  0  0  0
 29 71  1  0  0  0  0
 30 65  2  0  0  0  0
 30 67  1  0  0  0  0
 31 61  2  0  0  0  0
 31 72  1  0  0  0  0
 32 62  2  0  0  0  0
 32 73  1  0  0  0  0
 33 68  1  0  0  0  0
 33 71  2  0  0  0  0
 34 69  1  0  0  0  0
 34 72  2  0  0  0  0
 35 70  1  0  0  0  0
 35 73  2  0  0  0  0
 36 68  1  0  0  0  0
 36112  1  0  0  0  0
 36113  1  0  0  0  0
 37 69  1  0  0  0  0
 37114  1  0  0  0  0
 37115  1  0  0  0  0
 38 70  1  0  0  0  0
 38116  1  0  0  0  0
 38117  1  0  0  0  0
 39 76  1  0  0  0  0
 39 77  1  0  0  0  0
 39 78  1  0  0  0  0
 40 78  2  0  0  0  0
 40 79  1  0  0  0  0
 41 77  2  0  0  0  0
 41 81  1  0  0  0  0
 42 80  1  0  0  0  0
 42 81  2  0  0  0  0
 43 80  1  0  0  0  0
 43124  1  0  0  0  0
 43125  1  0  0  0  0
 44 45  1  0  0  0  0
 44 47  1  0  0  0  0
 44 82  1  0  0  0  0
 45 46  1  0  0  0  0
 45 83  1  0  0  0  0
 46 56  1  1  0  0  0
 46 84  1  0  0  0  0
 47 85  1  0  0  0  0
 48 49  1  0  0  0  0
 48 51  1  0  0  0  0
 48 86  1  0  0  0  0
 49 50  1  0  0  0  0
 49 87  1  0  0  0  0
 50 57  1  1  0  0  0
 50 88  1  0  0  0  0
 51 89  1  0  0  0  0
 52 53  1  0  0  0  0
 52 54  1  0  0  0  0
 52 90  1  0  0  0  0
 53 55  1  0  0  0  0
 53 91  1  0  0  0  0
 54 92  1  0  0  0  0
 55 58  1  1  0  0  0
 55 93  1  0  0  0  0
 56 94  1  0  0  0  0
 56 95  1  0  0  0  0
 57 96  1  0  0  0  0
 57 97  1  0  0  0  0
 58 98  1  0  0  0  0
 58 99  1  0  0  0  0
 59 64  1  0  0  0  0
 60102  1  0  0  0  0
 61 66  1  0  0  0  0
 62 67  1  0  0  0  0
 63104  1  0  0  0  0
 64 68  2  0  0  0  0
 65105  1  0  0  0  0
 66 69  2  0  0  0  0
 67 70  2  0  0  0  0
 71107  1  0  0  0  0
 72108  1  0  0  0  0
 73109  1  0  0  0  0
 74 75  1  0  0  0  0
 74110  1  0  0  0  0
 74111  1  0  0  0  0
 75118  1  0  0  0  0
 75119  1  0  0  0  0
 76120  1  0  0  0  0
 76121  1  0  0  0  0
 77 79  1  0  0  0  0
 78122  1  0  0  0  0
 79 80  2  0  0  0  0
 81123  1  0  0  0  0
M  CHG  3  16  -1  18  -1  21  -1
M  END
> <PUBCHEM_COMPOUND_CID>
501011
> <PUBCHEM_COMPOUND_CANONICALIZED>
1
> <PUBCHEM_CACTVS_COMPLEXITY>
2260
> <PUBCHEM_CACTVS_HBOND_ACCEPTOR>
36
> <PUBCHEM_CACTVS_HBOND_DONOR>
8
> <PUBCHEM_CACTVS_ROTATABLE_BOND>
22
> <PUBCHEM_CACTVS_SUBSKEYS>
AAADcfB//gMAAAAAAAAAAAAAAAAAAWLFixIsWLFgAAAAAFgB/gAAHgAQCCAACBzhlwYF8L9MFxCgQQZhZICAgC0REKABUCAoVBCDWAJAyEAeRAgPAALTACDwMAIAAAAAAAAAAAAAAAAAAAAAAAAAAAAAAA==
> <PUBCHEM_IUPAC_OPENEYE_NAME>
[(2R,3R,4R,5R)-2-(6-aminopurin-9-yl)-5-[[[(2R,3R,4R,5R)-2-(6-aminopurin-9-yl)-5-[[[(2R,3R,4R,5R)-2-(6-aminopurin-9-yl)-4-hydroxy-5-(hydroxymethyl)tetrahydrofuran-3-yl]oxy-oxido-phosphoryl]oxymethyl]-4-hydroxy-tetrahydrofuran-3-yl]oxy-oxido-phosphoryl]oxymethyl]-4-hydroxy-tetrahydrofuran-3-yl] 2-[(6-aminopurin-9-yl)methoxy]ethyl phosphate
> <PUBCHEM_IUPAC_CAS_NAME>
[(2R,3R,4R,5R)-2-(6-aminopurin-9-yl)-5-[[[(2R,3R,4R,5R)-2-(6-aminopurin-9-yl)-5-[[[(2R,3R,4R,5R)-2-(6-aminopurin-9-yl)-4-hydroxy-5-(hydroxymethyl)-3-oxolanyl]oxy-oxidophosphoryl]oxymethyl]-4-hydroxy-3-oxolanyl]oxy-oxidophosphoryl]oxymethyl]-4-hydroxy-3-oxolanyl] 2-[(6-aminopurin-9-yl)methoxy]ethyl phosphate
> <PUBCHEM_IUPAC_NAME_MARKUP>
[(2<I>R</I>,3<I>R</I>,4<I>R</I>,5<I>R</I>)-2-(6-aminopurin-9-yl)-5-[[[(2<I>R</I>,3<I>R</I>,4<I>R</I>,5<I>R</I>)-2-(6-aminopurin-9-yl)-5-[[[(2<I>R</I>,3<I>R</I>,4<I>R</I>,5<I>R</I>)-2-(6-aminopurin-9-yl)-4-hydroxy-5-(hydroxymethyl)oxolan-3-yl]oxy-oxidophosphoryl]oxymethyl]-4-hydroxyoxolan-3-yl]oxy-oxidophosphoryl]oxymethyl]-4-hydroxyoxolan-3-yl] 2-[(6-aminopurin-9-yl)methoxy]ethyl phosphate
> <PUBCHEM_IUPAC_NAME>
[(2R,3R,4R,5R)-2-(6-aminopurin-9-yl)-5-[[[(2R,3R,4R,5R)-2-(6-aminopurin-9-yl)-5-[[[(2R,3R,4R,5R)-2-(6-aminopurin-9-yl)-4-hydroxy-5-(hydroxymethyl)oxolan-3-yl]oxy-oxidophosphoryl]oxymethyl]-4-hydroxyoxolan-3-yl]oxy-oxidophosphoryl]oxymethyl]-4-hydroxyoxolan-3-yl] 2-[(6-aminopurin-9-yl)methoxy]ethyl phosphate
> <PUBCHEM_IUPAC_SYSTEMATIC_NAME>
[(2R,3R,4R,5R)-2-(6-aminopurin-9-yl)-5-[[[(2R,3R,4R,5R)-2-(6-aminopurin-9-yl)-5-[[[(2R,3R,4R,5R)-2-(6-aminopurin-9-yl)-5-(hydroxymethyl)-4-oxidanyl-oxolan-3-yl]oxy-oxidanidyl-phosphoryl]oxymethyl]-4-oxidanyl-oxolan-3-yl]oxy-oxidanidyl-phosphoryl]oxymethyl]-4-oxidanyl-oxolan-3-yl] 2-[(6-aminopurin-9-yl)methoxy]ethyl phosphate
> <PUBCHEM_IUPAC_TRADITIONAL_NAME>
[(2R,3R,4R,5R)-2-adenin-9-yl-5-[[[(2R,3R,4R,5R)-2-adenin-9-yl-5-[[[(2R,3R,4R,5R)-2-adenin-9-yl-4-hydroxy-5-methylol-tetrahydrofuran-3-yl]oxy-oxido-phosphoryl]oxymethyl]-4-hydroxy-tetrahydrofuran-3-yl]oxy-oxido-phosphoryl]oxymethyl]-4-hydroxy-tetrahydrofuran-3-yl] 2-(adenin-9-ylmethoxy)ethyl phosphate
> <PUBCHEM_IUPAC_INCHI>
InChI=1S/C38H47N20O20P3/c39-28-18-32(47-6-43-28)55(10-51-18)14-69-1-2-70-79(63,64)76-26-23(61)16(74-37(26)57-12-53-20-30(41)45-8-49-34(20)57)4-72-81(67,68)78-27-24(62)17(75-38(27)58-13-54-21-31(42)46-9-50-35(21)58)5-71-80(65,66)77-25-22(60)15(3-59)73-36(25)56-11-52-19-29(40)44-7-48-33(19)56/h6-13,15-17,22-27,36-38,59-62H,1-5,14H2,(H,63,64)(H,65,66)(H,67,68)(H2,39,43,47)(H2,40,44,48)(H2,41,45,49)(H2,42,46,50)/p-3/t15-,16-,17-,22-,23-,24-,25-,26-,27-,36-,37-,38-/m1/s1
> <PUBCHEM_IUPAC_INCHIKEY>
RLWPPWVLRQDKTL-AEJOKPDCSA-K
> <PUBCHEM_XLOGP3_AA>
-8.5
> <PUBCHEM_EXACT_MASS>
1193.22535987
> <PUBCHEM_MOLECULAR_FORMULA>
C38H44N20O20P3-3
> <PUBCHEM_MOLECULAR_WEIGHT>
1193.8
> <PUBCHEM_OPENEYE_CAN_SMILES>
C1=NC(=C2C(=N1)N(C=N2)COCCOP(=O)([O-])OC3C(C(OC3N4C=NC5=C(N=CN=C54)N)COP(=O)([O-])OC6C(C(OC6N7C=NC8=C(N=CN=C87)N)COP(=O)([O-])OC9C(C(OC9N1C=NC2=C(N=CN=C21)N)CO)O)O)O)N
> <PUBCHEM_OPENEYE_ISO_SMILES>
C1=NC(=C2C(=N1)N(C=N2)COCCOP(=O)([O-])O[C@@H]3[C@@H]([C@H](O[C@H]3N4C=NC5=C(N=CN=C54)N)COP(=O)([O-])O[C@@H]6[C@@H]([C@H](O[C@H]6N7C=NC8=C(N=CN=C87)N)COP(=O)([O-])O[C@@H]9[C@@H]([C@H](O[C@H]9N1C=NC2=C(N=CN=C21)N)CO)O)O)O)N
> <PUBCHEM_CACTVS_TPSA>
572
> <PUBCHEM_MONOISOTOPIC_WEIGHT>
1193.22535987
> <PUBCHEM_TOTAL_CHARGE>
-3
> <PUBCHEM_HEAVY_ATOM_COUNT>
81
> <PUBCHEM_ATOM_DEF_STEREO_COUNT>
12
> <PUBCHEM_ATOM_UDEF_STEREO_COUNT>
0
> <PUBCHEM_BOND_DEF_STEREO_COUNT>
0
> <PUBCHEM_BOND_UDEF_STEREO_COUNT>
0
> <PUBCHEM_ISOTOPIC_ATOM_COUNT>
0
> <PUBCHEM_COMPONENT_COUNT>
1
> <PUBCHEM_CACTVS_TAUTO_COUNT>
-1
> <PUBCHEM_COORDINATE_TYPE>
1
5
255
> <PUBCHEM_BONDANNOTATIONS>
48  10  6
49  13  6
53  14  6
47  24  5
24  59  8
24  60  8
51  25  5
25  61  8
25  63  8
54  26  5
26  62  8
26  65  8
27  60  8
27  64  8
28  63  8
28  66  8
29  59  8
29  71  8
30  65  8
30  67  8
31  61  8
31  72  8
32  62  8
32  73  8
33  68  8
33  71  8
34  69  8
34  72  8
35  70  8
35  73  8
39  77  8
39  78  8
40  78  8
40  79  8
41  77  8
41  81  8
42  80  8
42  81  8
46  56  5
50  57  5
55  58  5
59  64  8
44  6  6
61  66  8
62  67  8
64  68  8
66  69  8
67  70  8
77  79  8
79  80  8
52  8  6
45  9  6
$$$$
