501015
  -OEChem-10302200282D
 98106  0     1  0  0  0  0  0999 V2000
    7.4795   -0.6881    0.0000 S   0  0  0  0  0  0  0  0  0  0  0  0
    6.6126   -1.1866    0.0000 P   0  0  3  0  0  0  0  0  0  0  0  0
   12.1837   -0.7934    0.0000 P   0  0  3  0  0  0  0  0  0  0  0  0
    9.6491   -2.5579    0.0000 O   0  0  0  0  0  0  0  0  0  0  0  0
   15.1072   -1.7001    0.0000 O   0  0  0  0  0  0  0  0  0  0  0  0
    7.1111   -2.0535    0.0000 O   0  0  0  0  0  0  0  0  0  0  0  0
    5.0239    1.4618    0.0000 O   0  0  0  0  0  0  0  0  0  0  0  0
   12.9938   -0.2070    0.0000 O   0  0  0  0  0  0  0  0  0  0  0  0
    8.3929   -0.2956    0.0000 O   0  0  0  0  0  0  0  0  0  0  0  0
   11.3737   -1.3798    0.0000 O   0  0  0  0  0  0  0  0  0  0  0  0
    6.1141   -0.3197    0.0000 O   0  0  0  0  0  0  0  0  0  0  0  0
   14.8797    0.8775    0.0000 O   0  0  0  0  0  0  0  0  0  0  0  0
    2.9509   -0.0868    0.0000 O   0  0  0  0  0  0  0  0  0  0  0  0
    2.5022    2.0420    0.0000 O   0  0  0  0  0  0  0  0  0  0  0  0
   17.1618   -1.3254    0.0000 O   0  0  0  0  0  0  0  0  0  0  0  0
    5.7457   -1.6851    0.0000 O   0  5  0  0  0  0  0  0  0  0  0  0
   12.7701   -1.6034    0.0000 O   0  5  0  0  0  0  0  0  0  0  0  0
   11.5973    0.0166    0.0000 O   0  0  0  0  0  0  0  0  0  0  0  0
    8.3868   -3.8158    0.0000 N   0  0  0  0  0  0  0  0  0  0  0  0
   13.4424   -2.3358    0.0000 N   0  0  0  0  0  0  0  0  0  0  0  0
    4.3882    3.1265    0.0000 N   0  0  0  0  0  0  0  0  0  0  0  0
    8.3868   -5.4252    0.0000 N   0  0  0  0  0  0  0  0  0  0  0  0
   12.0458   -3.1357    0.0000 N   0  0  0  0  0  0  0  0  0  0  0  0
    6.5746   -3.6205    0.0000 N   0  0  0  0  0  0  0  0  0  0  0  0
    5.0479    4.5946    0.0000 N   0  0  0  0  0  0  0  0  0  0  0  0
   14.5125   -3.8114    0.0000 N   0  0  0  0  0  0  0  0  0  0  0  0
    2.6552    3.6912    0.0000 N   0  0  0  0  0  0  0  0  0  0  0  0
    5.7086   -5.1205    0.0000 N   0  0  0  0  0  0  0  0  0  0  0  0
   13.6413   -5.3084    0.0000 N   0  0  0  0  0  0  0  0  0  0  0  0
    6.5746   -6.6205    0.0000 N   0  0  0  0  0  0  0  0  0  0  0  0
    2.4801    5.4144    0.0000 N   0  0  0  0  0  0  0  0  0  0  0  0
   11.9093   -5.3024    0.0000 N   0  0  0  0  0  0  0  0  0  0  0  0
    3.8848    6.4276    0.0000 N   0  0  0  0  0  0  0  0  0  0  0  0
    8.1111   -2.0552    0.0000 C   0  0  2  0  0  0  0  0  0  0  0  0
    8.7003   -1.2472    0.0000 C   0  0  1  0  0  0  0  0  0  0  0  0
    9.6508   -1.5579    0.0000 C   0  0  1  0  0  0  0  0  0  0  0  0
    8.6975   -2.8652    0.0000 C   0  0  1  0  0  0  0  0  0  0  0  0
   13.9066   -0.6153    0.0000 C   0  0  2  0  0  0  0  0  0  0  0  0
   14.7735   -0.1168    0.0000 C   0  0  1  0  0  0  0  0  0  0  0  0
   14.1128   -1.5938    0.0000 C   0  0  1  0  0  0  0  0  0  0  0  0
   15.5155   -0.7873    0.0000 C   0  0  1  0  0  0  0  0  0  0  0  0
    4.6156    0.5489    0.0000 C   0  0  1  0  0  0  0  0  0  0  0  0
    3.6213    0.6552    0.0000 C   0  0  2  0  0  0  0  0  0  0  0  0
    3.4151    1.6337    0.0000 C   0  0  2  0  0  0  0  0  0  0  0  0
    4.2820    2.1322    0.0000 C   0  0  1  0  0  0  0  0  0  0  0  0
   10.4609   -0.9715    0.0000 C   0  0  0  0  0  0  0  0  0  0  0  0
    5.1141   -0.3180    0.0000 C   0  0  0  0  0  0  0  0  0  0  0  0
   16.4940   -0.5810    0.0000 C   0  0  0  0  0  0  0  0  0  0  0  0
    7.4406   -4.1205    0.0000 C   0  0  0  0  0  0  0  0  0  0  0  0
    8.9704   -4.6205    0.0000 C   0  0  0  0  0  0  0  0  0  0  0  0
   13.6482   -3.3084    0.0000 C   0  0  0  0  0  0  0  0  0  0  0  0
   12.4540   -2.2294    0.0000 C   0  0  0  0  0  0  0  0  0  0  0  0
    7.4406   -5.1205    0.0000 C   0  0  0  0  0  0  0  0  0  0  0  0
    3.6500    3.7923    0.0000 C   0  0  0  0  0  0  0  0  0  0  0  0
    5.2504    3.6213    0.0000 C   0  0  0  0  0  0  0  0  0  0  0  0
   12.7805   -3.8054    0.0000 C   0  0  0  0  0  0  0  0  0  0  0  0
    4.0599    4.7045    0.0000 C   0  0  0  0  0  0  0  0  0  0  0  0
    6.5746   -5.6205    0.0000 C   0  0  0  0  0  0  0  0  0  0  0  0
   12.7770   -4.8054    0.0000 C   0  0  0  0  0  0  0  0  0  0  0  0
    3.4749    5.5155    0.0000 C   0  0  0  0  0  0  0  0  0  0  0  0
    5.7086   -4.1205    0.0000 C   0  0  0  0  0  0  0  0  0  0  0  0
   14.5091   -4.8114    0.0000 C   0  0  0  0  0  0  0  0  0  0  0  0
    2.0702    4.5023    0.0000 C   0  0  0  0  0  0  0  0  0  0  0  0
    7.8306   -1.5023    0.0000 H   0  0  0  0  0  0  0  0  0  0  0  0
    9.1395   -0.8096    0.0000 H   0  0  0  0  0  0  0  0  0  0  0  0
   10.2028   -1.8403    0.0000 H   0  0  0  0  0  0  0  0  0  0  0  0
    9.1352   -3.3044    0.0000 H   0  0  0  0  0  0  0  0  0  0  0  0
   13.8752    0.0039    0.0000 H   0  0  0  0  0  0  0  0  0  0  0  0
   14.2541    0.2217    0.0000 H   0  0  0  0  0  0  0  0  0  0  0  0
   14.3340   -2.1731    0.0000 H   0  0  0  0  0  0  0  0  0  0  0  0
   15.9048   -1.2698    0.0000 H   0  0  0  0  0  0  0  0  0  0  0  0
    5.2348    0.5803    0.0000 H   0  0  0  0  0  0  0  0  0  0  0  0
    3.0227    0.8167    0.0000 H   0  0  0  0  0  0  0  0  0  0  0  0
    3.3837    2.2529    0.0000 H   0  0  0  0  0  0  0  0  0  0  0  0
    3.7626    2.4708    0.0000 H   0  0  0  0  0  0  0  0  0  0  0  0
   10.8084   -0.4581    0.0000 H   0  0  0  0  0  0  0  0  0  0  0  0
   10.0156   -0.5400    0.0000 H   0  0  0  0  0  0  0  0  0  0  0  0
    4.5311   -0.5290    0.0000 H   0  0  0  0  0  0  0  0  0  0  0  0
    5.2207   -0.9287    0.0000 H   0  0  0  0  0  0  0  0  0  0  0  0
   17.0203   -0.2534    0.0000 H   0  0  0  0  0  0  0  0  0  0  0  0
   16.2627   -0.0058    0.0000 H   0  0  0  0  0  0  0  0  0  0  0  0
    8.8086    0.1644    0.0000 H   0  0  0  0  0  0  0  0  0  0  0  0
    9.5904   -4.6205    0.0000 H   0  0  0  0  0  0  0  0  0  0  0  0
   15.4466    1.1287    0.0000 H   0  0  0  0  0  0  0  0  0  0  0  0
    2.3446    0.0431    0.0000 H   0  0  0  0  0  0  0  0  0  0  0  0
   12.1459   -1.6914    0.0000 H   0  0  0  0  0  0  0  0  0  0  0  0
    2.0000    1.6784    0.0000 H   0  0  0  0  0  0  0  0  0  0  0  0
    5.8159    3.3672    0.0000 H   0  0  0  0  0  0  0  0  0  0  0  0
   17.7685   -1.1975    0.0000 H   0  0  0  0  0  0  0  0  0  0  0  0
    5.1716   -3.8105    0.0000 H   0  0  0  0  0  0  0  0  0  0  0  0
   15.0449   -5.1232    0.0000 H   0  0  0  0  0  0  0  0  0  0  0  0
    1.4534    4.4396    0.0000 H   0  0  0  0  0  0  0  0  0  0  0  0
    6.0377   -6.9305    0.0000 H   0  0  0  0  0  0  0  0  0  0  0  0
    7.1115   -6.9305    0.0000 H   0  0  0  0  0  0  0  0  0  0  0  0
   11.9071   -5.9224    0.0000 H   0  0  0  0  0  0  0  0  0  0  0  0
   11.3734   -4.9905    0.0000 H   0  0  0  0  0  0  0  0  0  0  0  0
    3.5222    6.9305    0.0000 H   0  0  0  0  0  0  0  0  0  0  0  0
    4.5017    6.4903    0.0000 H   0  0  0  0  0  0  0  0  0  0  0  0
  1  2  2  0  0  0  0
  2  6  1  0  0  0  0
  2 11  1  0  0  0  0
  2 16  1  0  0  0  0
  3  8  1  0  0  0  0
  3 10  1  0  0  0  0
  3 17  1  0  0  0  0
  3 18  2  0  0  0  0
  4 36  1  0  0  0  0
  4 37  1  0  0  0  0
  5 40  1  0  0  0  0
  5 41  1  0  0  0  0
 34  6  1  6  0  0  0
  7 42  1  0  0  0  0
  7 45  1  0  0  0  0
 38  8  1  6  0  0  0
 35  9  1  6  0  0  0
  9 82  1  0  0  0  0
 10 46  1  0  0  0  0
 11 47  1  0  0  0  0
 39 12  1  6  0  0  0
 12 84  1  0  0  0  0
 43 13  1  1  0  0  0
 13 85  1  0  0  0  0
 44 14  1  1  0  0  0
 14 87  1  0  0  0  0
 15 48  1  0  0  0  0
 15 89  1  0  0  0  0
 37 19  1  1  0  0  0
 19 49  1  0  0  0  0
 19 50  1  0  0  0  0
 40 20  1  1  0  0  0
 20 51  1  0  0  0  0
 20 52  1  0  0  0  0
 45 21  1  6  0  0  0
 21 54  1  0  0  0  0
 21 55  1  0  0  0  0
 22 50  2  0  0  0  0
 22 53  1  0  0  0  0
 23 52  2  0  0  0  0
 23 56  1  0  0  0  0
 24 49  2  0  0  0  0
 24 61  1  0  0  0  0
 25 55  2  0  0  0  0
 25 57  1  0  0  0  0
 26 51  2  0  0  0  0
 26 62  1  0  0  0  0
 27 54  2  0  0  0  0
 27 63  1  0  0  0  0
 28 58  1  0  0  0  0
 28 61  2  0  0  0  0
 29 59  1  0  0  0  0
 29 62  2  0  0  0  0
 30 58  1  0  0  0  0
 30 93  1  0  0  0  0
 30 94  1  0  0  0  0
 31 60  1  0  0  0  0
 31 63  2  0  0  0  0
 32 59  1  0  0  0  0
 32 95  1  0  0  0  0
 32 96  1  0  0  0  0
 33 60  1  0  0  0  0
 33 97  1  0  0  0  0
 33 98  1  0  0  0  0
 34 35  1  0  0  0  0
 34 37  1  0  0  0  0
 34 64  1  0  0  0  0
 35 36  1  0  0  0  0
 35 65  1  0  0  0  0
 36 46  1  1  0  0  0
 36 66  1  0  0  0  0
 37 67  1  0  0  0  0
 38 39  1  0  0  0  0
 38 40  1  0  0  0  0
 38 68  1  0  0  0  0
 39 41  1  0  0  0  0
 39 69  1  0  0  0  0
 40 70  1  0  0  0  0
 41 48  1  1  0  0  0
 41 71  1  0  0  0  0
 42 43  1  0  0  0  0
 42 47  1  6  0  0  0
 42 72  1  0  0  0  0
 43 44  1  0  0  0  0
 43 73  1  0  0  0  0
 44 45  1  0  0  0  0
 44 74  1  0  0  0  0
 45 75  1  0  0  0  0
 46 76  1  0  0  0  0
 46 77  1  0  0  0  0
 47 78  1  0  0  0  0
 47 79  1  0  0  0  0
 48 80  1  0  0  0  0
 48 81  1  0  0  0  0
 49 53  1  0  0  0  0
 50 83  1  0  0  0  0
 51 56  1  0  0  0  0
 52 86  1  0  0  0  0
 53 58  2  0  0  0  0
 54 57  1  0  0  0  0
 55 88  1  0  0  0  0
 56 59  2  0  0  0  0
 57 60  2  0  0  0  0
 61 90  1  0  0  0  0
 62 91  1  0  0  0  0
 63 92  1  0  0  0  0
M  CHG  2  16  -1  17  -1
M  END
> <PUBCHEM_COMPOUND_CID>
501015
> <PUBCHEM_COMPOUND_CANONICALIZED>
1
> <PUBCHEM_CACTVS_COMPLEXITY>
1700
> <PUBCHEM_CACTVS_HBOND_ACCEPTOR>
28
> <PUBCHEM_CACTVS_HBOND_DONOR>
8
> <PUBCHEM_CACTVS_ROTATABLE_BOND>
14
> <PUBCHEM_CACTVS_SUBSKEYS>
AAADcfB7/ANAAAAAAAAAAAAAAAAAAWLFiRIsWLAAAAAAAFgB/gAAHgAQCCAACBzhlwYF8L9MFxCgQQZhZICAgC0REKABUCAoVBCDWAJAyEAeRAgPAALTACDwMAIAAAAAAAAAAAAAAAAAAAAAAAAAAAAAAA==
> <PUBCHEM_IUPAC_OPENEYE_NAME>
[(2R,3R,4R,5R)-5-(6-aminopurin-9-yl)-4-[[(2R,3S,4R,5R)-5-(6-aminopurin-9-yl)-3,4-dihydroxy-tetrahydrofuran-2-yl]methoxy-oxido-phosphinothioyl]oxy-3-hydroxy-tetrahydrofuran-2-yl]methyl [(2R,3R,4R,5R)-2-(6-aminopurin-9-yl)-4-hydroxy-5-(hydroxymethyl)tetrahydrofuran-3-yl] phosphate
> <PUBCHEM_IUPAC_CAS_NAME>
[(2R,3R,4R,5R)-5-(6-aminopurin-9-yl)-4-[[(2R,3S,4R,5R)-5-(6-aminopurin-9-yl)-3,4-dihydroxy-2-oxolanyl]methoxy-oxidophosphinothioyl]oxy-3-hydroxy-2-oxolanyl]methyl [(2R,3R,4R,5R)-2-(6-aminopurin-9-yl)-4-hydroxy-5-(hydroxymethyl)-3-oxolanyl] phosphate
> <PUBCHEM_IUPAC_NAME_MARKUP>
[(2<I>R</I>,3<I>R</I>,4<I>R</I>,5<I>R</I>)-5-(6-aminopurin-9-yl)-4-[[(2<I>R</I>,3<I>S</I>,4<I>R</I>,5<I>R</I>)-5-(6-aminopurin-9-yl)-3,4-dihydroxyoxolan-2-yl]methoxy-oxidophosphinothioyl]oxy-3-hydroxyoxolan-2-yl]methyl [(2<I>R</I>,3<I>R</I>,4<I>R</I>,5<I>R</I>)-2-(6-aminopurin-9-yl)-4-hydroxy-5-(hydroxymethyl)oxolan-3-yl] phosphate
> <PUBCHEM_IUPAC_NAME>
[(2R,3R,4R,5R)-5-(6-aminopurin-9-yl)-4-[[(2R,3S,4R,5R)-5-(6-aminopurin-9-yl)-3,4-dihydroxyoxolan-2-yl]methoxy-oxidophosphinothioyl]oxy-3-hydroxyoxolan-2-yl]methyl [(2R,3R,4R,5R)-2-(6-aminopurin-9-yl)-4-hydroxy-5-(hydroxymethyl)oxolan-3-yl] phosphate
> <PUBCHEM_IUPAC_SYSTEMATIC_NAME>
[(2R,3R,4R,5R)-5-(6-aminopurin-9-yl)-4-[[(2R,3S,4R,5R)-5-(6-aminopurin-9-yl)-3,4-bis(oxidanyl)oxolan-2-yl]methoxy-oxidanidyl-phosphinothioyl]oxy-3-oxidanyl-oxolan-2-yl]methyl [(2R,3R,4R,5R)-2-(6-aminopurin-9-yl)-5-(hydroxymethyl)-4-oxidanyl-oxolan-3-yl] phosphate
> <PUBCHEM_IUPAC_TRADITIONAL_NAME>
[(2R,3R,4R,5R)-5-adenin-9-yl-4-[[(2R,3S,4R,5R)-5-adenin-9-yl-3,4-dihydroxy-tetrahydrofuran-2-yl]methoxy-oxido-thiophosphoryl]oxy-3-hydroxy-tetrahydrofuran-2-yl]methyl [(2R,3R,4R,5R)-2-adenin-9-yl-4-hydroxy-5-methylol-tetrahydrofuran-3-yl] phosphate
> <PUBCHEM_IUPAC_INCHI>
InChI=1S/C30H37N15O15P2S/c31-22-13-25(37-4-34-22)43(7-40-13)28-19(50)16(47)11(57-28)3-55-62(53,63)60-21-18(49)12(58-30(21)45-9-42-15-24(33)36-6-39-27(15)45)2-54-61(51,52)59-20-17(48)10(1-46)56-29(20)44-8-41-14-23(32)35-5-38-26(14)44/h4-12,16-21,28-30,46-50H,1-3H2,(H,51,52)(H,53,63)(H2,31,34,37)(H2,32,35,38)(H2,33,36,39)/p-2/t10-,11-,12-,16-,17-,18-,19-,20-,21-,28-,29-,30-,62?/m1/s1
> <PUBCHEM_IUPAC_INCHIKEY>
JENOTPFCRDUATP-JGQDSGOASA-L
> <PUBCHEM_XLOGP3_AA>
-5.5
> <PUBCHEM_EXACT_MASS>
939.16330064
> <PUBCHEM_MOLECULAR_FORMULA>
C30H35N15O15P2S-2
> <PUBCHEM_MOLECULAR_WEIGHT>
939.7
> <PUBCHEM_OPENEYE_CAN_SMILES>
C1=NC(=C2C(=N1)N(C=N2)C3C(C(C(O3)COP(=S)([O-])OC4C(C(OC4N5C=NC6=C(N=CN=C65)N)COP(=O)([O-])OC7C(C(OC7N8C=NC9=C(N=CN=C98)N)CO)O)O)O)O)N
> <PUBCHEM_OPENEYE_ISO_SMILES>
C1=NC(=C2C(=N1)N(C=N2)[C@H]3[C@@H]([C@@H]([C@H](O3)COP(=S)([O-])O[C@@H]4[C@@H]([C@H](O[C@H]4N5C=NC6=C(N=CN=C65)N)COP(=O)([O-])O[C@@H]7[C@@H]([C@H](O[C@H]7N8C=NC9=C(N=CN=C98)N)CO)O)O)O)O)N
> <PUBCHEM_CACTVS_TPSA>
470
> <PUBCHEM_MONOISOTOPIC_WEIGHT>
939.16330064
> <PUBCHEM_TOTAL_CHARGE>
-2
> <PUBCHEM_HEAVY_ATOM_COUNT>
63
> <PUBCHEM_ATOM_DEF_STEREO_COUNT>
12
> <PUBCHEM_ATOM_UDEF_STEREO_COUNT>
0
> <PUBCHEM_BOND_DEF_STEREO_COUNT>
0
> <PUBCHEM_BOND_UDEF_STEREO_COUNT>
0
> <PUBCHEM_ISOTOPIC_ATOM_COUNT>
0
> <PUBCHEM_COMPONENT_COUNT>
1
> <PUBCHEM_CACTVS_TAUTO_COUNT>
-1
> <PUBCHEM_COORDINATE_TYPE>
1
5
255
> <PUBCHEM_BONDANNOTATIONS>
39  12  6
43  13  5
44  14  5
37  19  5
19  49  8
19  50  8
40  20  5
20  51  8
20  52  8
45  21  6
21  54  8
21  55  8
22  50  8
22  53  8
23  52  8
23  56  8
24  49  8
24  61  8
25  55  8
25  57  8
26  51  8
26  62  8
27  54  8
27  63  8
28  58  8
28  61  8
29  59  8
29  62  8
31  60  8
31  63  8
36  46  5
41  48  5
42  47  6
49  53  8
51  56  8
53  58  8
54  57  8
56  59  8
57  60  8
34  6  6
38  8  6
35  9  6
$$$$
