501039
  -OEChem-10302200282D
 33 35  0     1  0  0  0  0  0999 V2000
    8.4536   -0.6739    0.0000 Cl  0  0  0  0  0  0  0  0  0  0  0  0
    4.8556   -1.1739    0.0000 Cl  0  0  0  0  0  0  0  0  0  0  0  0
    7.5306    0.9139    0.0000 S   0  0  0  0  0  0  0  0  0  0  0  0
    5.6338    2.6739    0.0000 O   0  0  0  0  0  0  0  0  0  0  0  0
    5.9126    0.9139    0.0000 N   0  0  0  0  0  0  0  0  0  0  0  0
    4.2653    0.3786    0.0000 N   0  0  0  0  0  0  0  0  0  0  0  0
    6.7216    0.3261    0.0000 C   0  0  3  0  0  0  0  0  0  0  0  0
    6.7216   -0.6739    0.0000 C   0  0  0  0  0  0  0  0  0  0  0  0
    7.2216    1.8649    0.0000 C   0  0  0  0  0  0  0  0  0  0  0  0
    6.2216    1.8649    0.0000 C   0  0  0  0  0  0  0  0  0  0  0  0
    4.9344    1.1218    0.0000 C   0  0  0  0  0  0  0  0  0  0  0  0
    7.5876   -1.1739    0.0000 C   0  0  0  0  0  0  0  0  0  0  0  0
    5.8556   -1.1739    0.0000 C   0  0  0  0  0  0  0  0  0  0  0  0
    4.6254    2.0728    0.0000 C   0  0  0  0  0  0  0  0  0  0  0  0
    7.5876   -2.1739    0.0000 C   0  0  0  0  0  0  0  0  0  0  0  0
    5.8556   -2.1739    0.0000 C   0  0  0  0  0  0  0  0  0  0  0  0
    3.6473    2.2807    0.0000 C   0  0  0  0  0  0  0  0  0  0  0  0
    2.9782    1.5376    0.0000 C   0  0  0  0  0  0  0  0  0  0  0  0
    6.7216   -2.6739    0.0000 C   0  0  0  0  0  0  0  0  0  0  0  0
    3.2872    0.5866    0.0000 C   0  0  0  0  0  0  0  0  0  0  0  0
    2.0000    1.7456    0.0000 C   0  0  0  0  0  0  0  0  0  0  0  0
    6.1692    0.0446    0.0000 H   0  0  0  0  0  0  0  0  0  0  0  0
    7.8280    1.9938    0.0000 H   0  0  0  0  0  0  0  0  0  0  0  0
    7.1568    2.4815    0.0000 H   0  0  0  0  0  0  0  0  0  0  0  0
    5.0403    2.5336    0.0000 H   0  0  0  0  0  0  0  0  0  0  0  0
    8.1246   -2.4839    0.0000 H   0  0  0  0  0  0  0  0  0  0  0  0
    5.3186   -2.4839    0.0000 H   0  0  0  0  0  0  0  0  0  0  0  0
    3.4557    2.8704    0.0000 H   0  0  0  0  0  0  0  0  0  0  0  0
    6.7216   -3.2939    0.0000 H   0  0  0  0  0  0  0  0  0  0  0  0
    2.8723    0.1258    0.0000 H   0  0  0  0  0  0  0  0  0  0  0  0
    2.1289    2.3520    0.0000 H   0  0  0  0  0  0  0  0  0  0  0  0
    1.3936    1.8745    0.0000 H   0  0  0  0  0  0  0  0  0  0  0  0
    1.8711    1.1391    0.0000 H   0  0  0  0  0  0  0  0  0  0  0  0
  1 12  1  0  0  0  0
  2 13  1  0  0  0  0
  3  7  1  0  0  0  0
  3  9  1  0  0  0  0
  4 10  2  0  0  0  0
  5  7  1  0  0  0  0
  5 10  1  0  0  0  0
  5 11  1  0  0  0  0
  6 11  2  0  0  0  0
  6 20  1  0  0  0  0
  7  8  1  0  0  0  0
  7 22  1  0  0  0  0
  8 12  2  0  0  0  0
  8 13  1  0  0  0  0
  9 10  1  0  0  0  0
  9 23  1  0  0  0  0
  9 24  1  0  0  0  0
 11 14  1  0  0  0  0
 12 15  1  0  0  0  0
 13 16  2  0  0  0  0
 14 17  2  0  0  0  0
 14 25  1  0  0  0  0
 15 19  2  0  0  0  0
 15 26  1  0  0  0  0
 16 19  1  0  0  0  0
 16 27  1  0  0  0  0
 17 18  1  0  0  0  0
 17 28  1  0  0  0  0
 18 20  2  0  0  0  0
 18 21  1  0  0  0  0
 19 29  1  0  0  0  0
 20 30  1  0  0  0  0
 21 31  1  0  0  0  0
 21 32  1  0  0  0  0
 21 33  1  0  0  0  0
M  END
> <PUBCHEM_COMPOUND_CID>
501039
> <PUBCHEM_COMPOUND_CANONICALIZED>
1
> <PUBCHEM_CACTVS_COMPLEXITY>
388
> <PUBCHEM_CACTVS_HBOND_ACCEPTOR>
3
> <PUBCHEM_CACTVS_HBOND_DONOR>
0
> <PUBCHEM_CACTVS_ROTATABLE_BOND>
2
> <PUBCHEM_CACTVS_SUBSKEYS>
AAADccBzIABGAAAAAAAAAAAAAAAAAWAAAAA8QAAAAAAAAAABwAAAHgYAAAAADALF2iS/sJMIEAioAjN3dACCgClxBzAJ2CA4ZpiIIOLhm5GEIAhohwLoyCcQgAAOAAAAAACBAAAAAAAAAQIAAAAAAAAAAA==
> <PUBCHEM_IUPAC_OPENEYE_NAME>
2-(2,6-dichlorophenyl)-3-(5-methyl-2-pyridyl)thiazolidin-4-one
> <PUBCHEM_IUPAC_CAS_NAME>
2-(2,6-dichlorophenyl)-3-(5-methyl-2-pyridinyl)-4-thiazolidinone
> <PUBCHEM_IUPAC_NAME_MARKUP>
2-(2,6-dichlorophenyl)-3-(5-methylpyridin-2-yl)-1,3-thiazolidin-4-one
> <PUBCHEM_IUPAC_NAME>
2-(2,6-dichlorophenyl)-3-(5-methylpyridin-2-yl)-1,3-thiazolidin-4-one
> <PUBCHEM_IUPAC_SYSTEMATIC_NAME>
2-[2,6-bis(chloranyl)phenyl]-3-(5-methylpyridin-2-yl)-1,3-thiazolidin-4-one
> <PUBCHEM_IUPAC_TRADITIONAL_NAME>
2-(2,6-dichlorophenyl)-3-(5-methyl-2-pyridyl)thiazolidin-4-one
> <PUBCHEM_IUPAC_INCHI>
InChI=1S/C15H12Cl2N2OS/c1-9-5-6-12(18-7-9)19-13(20)8-21-15(19)14-10(16)3-2-4-11(14)17/h2-7,15H,8H2,1H3
> <PUBCHEM_IUPAC_INCHIKEY>
LAXPDJAVTMZKAQ-UHFFFAOYSA-N
> <PUBCHEM_XLOGP3_AA>
4.2
> <PUBCHEM_EXACT_MASS>
338.0047396
> <PUBCHEM_MOLECULAR_FORMULA>
C15H12Cl2N2OS
> <PUBCHEM_MOLECULAR_WEIGHT>
339.2
> <PUBCHEM_OPENEYE_CAN_SMILES>
CC1=CN=C(C=C1)N2C(SCC2=O)C3=C(C=CC=C3Cl)Cl
> <PUBCHEM_OPENEYE_ISO_SMILES>
CC1=CN=C(C=C1)N2C(SCC2=O)C3=C(C=CC=C3Cl)Cl
> <PUBCHEM_CACTVS_TPSA>
58.5
> <PUBCHEM_MONOISOTOPIC_WEIGHT>
338.0047396
> <PUBCHEM_TOTAL_CHARGE>
0
> <PUBCHEM_HEAVY_ATOM_COUNT>
21
> <PUBCHEM_ATOM_DEF_STEREO_COUNT>
0
> <PUBCHEM_ATOM_UDEF_STEREO_COUNT>
1
> <PUBCHEM_BOND_DEF_STEREO_COUNT>
0
> <PUBCHEM_BOND_UDEF_STEREO_COUNT>
0
> <PUBCHEM_ISOTOPIC_ATOM_COUNT>
0
> <PUBCHEM_COMPONENT_COUNT>
1
> <PUBCHEM_CACTVS_TAUTO_COUNT>
-1
> <PUBCHEM_COORDINATE_TYPE>
1
5
255
> <PUBCHEM_BONDANNOTATIONS>
11  14  8
12  15  8
13  16  8
14  17  8
15  19  8
16  19  8
17  18  8
18  20  8
6  11  8
6  20  8
7  8  3
8  12  8
8  13  8
$$$$
