501023
  -OEChem-10302200282D
 92 99  0     1  0  0  0  0  0999 V2000
   15.7548    0.7357    0.0000 P   0  0  3  0  0  0  0  0  0  0  0  0
   10.1837    0.3425    0.0000 P   0  0  3  0  0  0  0  0  0  0  0  0
   13.2202   -1.0288    0.0000 O   0  0  0  0  0  0  0  0  0  0  0  0
   18.6783   -0.1710    0.0000 O   0  0  0  0  0  0  0  0  0  0  0  0
   16.5649    1.3221    0.0000 O   0  0  0  0  0  0  0  0  0  0  0  0
   10.6822   -0.5244    0.0000 O   0  0  0  0  0  0  0  0  0  0  0  0
   11.9640    1.2335    0.0000 O   0  0  0  0  0  0  0  0  0  0  0  0
   14.9448    0.1493    0.0000 O   0  0  0  0  0  0  0  0  0  0  0  0
   18.4508    2.4066    0.0000 O   0  0  0  0  0  0  0  0  0  0  0  0
   20.7329    0.2038    0.0000 O   0  0  0  0  0  0  0  0  0  0  0  0
   16.3412   -0.0744    0.0000 O   0  5  0  0  0  0  0  0  0  0  0  0
   15.1684    1.5457    0.0000 O   0  0  0  0  0  0  0  0  0  0  0  0
    9.6852    1.2094    0.0000 O   0  0  0  0  0  0  0  0  0  0  0  0
    9.3168   -0.1560    0.0000 O   0  5  0  0  0  0  0  0  0  0  0  0
   11.0506    0.8410    0.0000 O   0  0  0  0  0  0  0  0  0  0  0  0
    7.1867    2.0798    0.0000 O   0  0  0  0  0  0  0  0  0  0  0  0
   11.9579   -2.2867    0.0000 N   0  0  0  0  0  0  0  0  0  0  0  0
   17.0135   -0.8067    0.0000 N   0  0  0  0  0  0  0  0  0  0  0  0
   11.9579   -3.8961    0.0000 N   0  0  0  0  0  0  0  0  0  0  0  0
   15.6169   -1.6066    0.0000 N   0  0  0  0  0  0  0  0  0  0  0  0
   10.1457   -2.0914    0.0000 N   0  0  0  0  0  0  0  0  0  0  0  0
   18.0836   -2.2823    0.0000 N   0  0  0  0  0  0  0  0  0  0  0  0
    9.2797   -3.5914    0.0000 N   0  0  0  0  0  0  0  0  0  0  0  0
   17.2124   -3.7793    0.0000 N   0  0  0  0  0  0  0  0  0  0  0  0
   10.1457   -5.0914    0.0000 N   0  0  0  0  0  0  0  0  0  0  0  0
   15.4804   -3.7733    0.0000 N   0  0  0  0  0  0  0  0  0  0  0  0
    5.6882    2.9484    0.0000 N   0  0  0  0  0  0  0  0  0  0  0  0
    4.1575    2.4510    0.0000 N   0  0  0  0  0  0  0  0  0  0  0  0
    5.3139    4.7323    0.0000 N   0  0  0  0  0  0  0  0  0  0  0  0
    3.6197    5.0924    0.0000 N   0  0  0  0  0  0  0  0  0  0  0  0
    2.4608    3.8052    0.0000 N   0  0  0  0  0  0  0  0  0  0  0  0
   11.6822   -0.5261    0.0000 C   0  0  2  0  0  0  0  0  0  0  0  0
   12.2714    0.2819    0.0000 C   0  0  1  0  0  0  0  0  0  0  0  0
   13.2219   -0.0288    0.0000 C   0  0  1  0  0  0  0  0  0  0  0  0
   12.2686   -1.3361    0.0000 C   0  0  1  0  0  0  0  0  0  0  0  0
   17.4777    0.9137    0.0000 C   0  0  2  0  0  0  0  0  0  0  0  0
   18.3446    1.4122    0.0000 C   0  0  1  0  0  0  0  0  0  0  0  0
   17.6839   -0.0648    0.0000 C   0  0  1  0  0  0  0  0  0  0  0  0
   19.0866    0.7418    0.0000 C   0  0  1  0  0  0  0  0  0  0  0  0
   14.0320    0.5576    0.0000 C   0  0  0  0  0  0  0  0  0  0  0  0
   20.0651    0.9481    0.0000 C   0  0  0  0  0  0  0  0  0  0  0  0
   11.0117   -2.5914    0.0000 C   0  0  0  0  0  0  0  0  0  0  0  0
   17.2193   -1.7793    0.0000 C   0  0  0  0  0  0  0  0  0  0  0  0
   12.5416   -3.0914    0.0000 C   0  0  0  0  0  0  0  0  0  0  0  0
   16.0251   -0.7003    0.0000 C   0  0  0  0  0  0  0  0  0  0  0  0
   11.0117   -3.5914    0.0000 C   0  0  0  0  0  0  0  0  0  0  0  0
   16.3516   -2.2763    0.0000 C   0  0  0  0  0  0  0  0  0  0  0  0
   10.1457   -4.0914    0.0000 C   0  0  0  0  0  0  0  0  0  0  0  0
   16.3481   -3.2763    0.0000 C   0  0  0  0  0  0  0  0  0  0  0  0
    9.2797   -2.5914    0.0000 C   0  0  0  0  0  0  0  0  0  0  0  0
   18.0802   -3.2823    0.0000 C   0  0  0  0  0  0  0  0  0  0  0  0
    8.6852    1.2111    0.0000 C   0  0  0  0  0  0  0  0  0  0  0  0
    8.1867    2.0780    0.0000 C   0  0  0  0  0  0  0  0  0  0  0  0
    6.6882    2.9466    0.0000 C   0  0  0  0  0  0  0  0  0  0  0  0
    5.1060    3.7541    0.0000 C   0  0  0  0  0  0  0  0  0  0  0  0
    5.1032    2.1446    0.0000 C   0  0  0  0  0  0  0  0  0  0  0  0
    4.1550    3.4451    0.0000 C   0  0  0  0  0  0  0  0  0  0  0  0
    3.4118    4.1142    0.0000 C   0  0  0  0  0  0  0  0  0  0  0  0
    4.5708    5.4014    0.0000 C   0  0  0  0  0  0  0  0  0  0  0  0
   11.3998   -1.0780    0.0000 H   0  0  0  0  0  0  0  0  0  0  0  0
   12.7106    0.7195    0.0000 H   0  0  0  0  0  0  0  0  0  0  0  0
   13.7739   -0.3112    0.0000 H   0  0  0  0  0  0  0  0  0  0  0  0
   12.7063   -1.7753    0.0000 H   0  0  0  0  0  0  0  0  0  0  0  0
   17.4463    1.5330    0.0000 H   0  0  0  0  0  0  0  0  0  0  0  0
   18.9238    1.6334    0.0000 H   0  0  0  0  0  0  0  0  0  0  0  0
   17.9051   -0.6440    0.0000 H   0  0  0  0  0  0  0  0  0  0  0  0
   19.4759    0.2593    0.0000 H   0  0  0  0  0  0  0  0  0  0  0  0
   14.3795    1.0710    0.0000 H   0  0  0  0  0  0  0  0  0  0  0  0
   13.5867    0.9891    0.0000 H   0  0  0  0  0  0  0  0  0  0  0  0
   20.5914    1.2757    0.0000 H   0  0  0  0  0  0  0  0  0  0  0  0
   19.8338    1.5233    0.0000 H   0  0  0  0  0  0  0  0  0  0  0  0
   12.3797    1.6935    0.0000 H   0  0  0  0  0  0  0  0  0  0  0  0
   19.0177    2.6578    0.0000 H   0  0  0  0  0  0  0  0  0  0  0  0
   13.1616   -3.0914    0.0000 H   0  0  0  0  0  0  0  0  0  0  0  0
   15.7170   -0.1623    0.0000 H   0  0  0  0  0  0  0  0  0  0  0  0
   21.3396    0.3316    0.0000 H   0  0  0  0  0  0  0  0  0  0  0  0
    8.7427   -2.2814    0.0000 H   0  0  0  0  0  0  0  0  0  0  0  0
   18.6160   -3.5941    0.0000 H   0  0  0  0  0  0  0  0  0  0  0  0
    8.1022    1.0001    0.0000 H   0  0  0  0  0  0  0  0  0  0  0  0
    8.7918    0.6004    0.0000 H   0  0  0  0  0  0  0  0  0  0  0  0
    9.6088   -5.4014    0.0000 H   0  0  0  0  0  0  0  0  0  0  0  0
   10.6826   -5.4014    0.0000 H   0  0  0  0  0  0  0  0  0  0  0  0
   15.4782   -4.3933    0.0000 H   0  0  0  0  0  0  0  0  0  0  0  0
   14.9445   -3.4614    0.0000 H   0  0  0  0  0  0  0  0  0  0  0  0
    8.7697    2.2891    0.0000 H   0  0  0  0  0  0  0  0  0  0  0  0
    8.0801    2.6888    0.0000 H   0  0  0  0  0  0  0  0  0  0  0  0
    7.2712    3.1577    0.0000 H   0  0  0  0  0  0  0  0  0  0  0  0
    6.5816    3.5574    0.0000 H   0  0  0  0  0  0  0  0  0  0  0  0
    5.2948    1.5550    0.0000 H   0  0  0  0  0  0  0  0  0  0  0  0
    4.6997    6.0078    0.0000 H   0  0  0  0  0  0  0  0  0  0  0  0
    2.0000    4.2201    0.0000 H   0  0  0  0  0  0  0  0  0  0  0  0
    2.3318    3.1988    0.0000 H   0  0  0  0  0  0  0  0  0  0  0  0
  1  5  1  0  0  0  0
  1  8  1  0  0  0  0
  1 11  1  0  0  0  0
  1 12  2  0  0  0  0
  2  6  1  0  0  0  0
  2 13  1  0  0  0  0
  2 14  1  0  0  0  0
  2 15  2  0  0  0  0
  3 34  1  0  0  0  0
  3 35  1  0  0  0  0
  4 38  1  0  0  0  0
  4 39  1  0  0  0  0
 36  5  1  6  0  0  0
 32  6  1  6  0  0  0
 33  7  1  6  0  0  0
  7 72  1  0  0  0  0
  8 40  1  0  0  0  0
 37  9  1  6  0  0  0
  9 73  1  0  0  0  0
 10 41  1  0  0  0  0
 10 76  1  0  0  0  0
 13 52  1  0  0  0  0
 16 53  1  0  0  0  0
 16 54  1  0  0  0  0
 35 17  1  1  0  0  0
 17 42  1  0  0  0  0
 17 44  1  0  0  0  0
 38 18  1  1  0  0  0
 18 43  1  0  0  0  0
 18 45  1  0  0  0  0
 19 44  2  0  0  0  0
 19 46  1  0  0  0  0
 20 45  2  0  0  0  0
 20 47  1  0  0  0  0
 21 42  2  0  0  0  0
 21 50  1  0  0  0  0
 22 43  2  0  0  0  0
 22 51  1  0  0  0  0
 23 48  1  0  0  0  0
 23 50  2  0  0  0  0
 24 49  1  0  0  0  0
 24 51  2  0  0  0  0
 25 48  1  0  0  0  0
 25 81  1  0  0  0  0
 25 82  1  0  0  0  0
 26 49  1  0  0  0  0
 26 83  1  0  0  0  0
 26 84  1  0  0  0  0
 27 54  1  0  0  0  0
 27 55  1  0  0  0  0
 27 56  1  0  0  0  0
 28 56  2  0  0  0  0
 28 57  1  0  0  0  0
 29 55  2  0  0  0  0
 29 59  1  0  0  0  0
 30 58  1  0  0  0  0
 30 59  2  0  0  0  0
 31 58  1  0  0  0  0
 31 91  1  0  0  0  0
 31 92  1  0  0  0  0
 32 33  1  0  0  0  0
 32 35  1  0  0  0  0
 32 60  1  0  0  0  0
 33 34  1  0  0  0  0
 33 61  1  0  0  0  0
 34 40  1  1  0  0  0
 34 62  1  0  0  0  0
 35 63  1  0  0  0  0
 36 37  1  0  0  0  0
 36 38  1  0  0  0  0
 36 64  1  0  0  0  0
 37 39  1  0  0  0  0
 37 65  1  0  0  0  0
 38 66  1  0  0  0  0
 39 41  1  1  0  0  0
 39 67  1  0  0  0  0
 40 68  1  0  0  0  0
 40 69  1  0  0  0  0
 41 70  1  0  0  0  0
 41 71  1  0  0  0  0
 42 46  1  0  0  0  0
 43 47  1  0  0  0  0
 44 74  1  0  0  0  0
 45 75  1  0  0  0  0
 46 48  2  0  0  0  0
 47 49  2  0  0  0  0
 50 77  1  0  0  0  0
 51 78  1  0  0  0  0
 52 53  1  0  0  0  0
 52 79  1  0  0  0  0
 52 80  1  0  0  0  0
 53 85  1  0  0  0  0
 53 86  1  0  0  0  0
 54 87  1  0  0  0  0
 54 88  1  0  0  0  0
 55 57  1  0  0  0  0
 56 89  1  0  0  0  0
 57 58  2  0  0  0  0
 59 90  1  0  0  0  0
M  CHG  2  11  -1  14  -1
M  END
> <PUBCHEM_COMPOUND_CID>
501023
> <PUBCHEM_COMPOUND_CANONICALIZED>
1
> <PUBCHEM_CACTVS_COMPLEXITY>
1510
> <PUBCHEM_CACTVS_HBOND_ACCEPTOR>
26
> <PUBCHEM_CACTVS_HBOND_DONOR>
6
> <PUBCHEM_CACTVS_ROTATABLE_BOND>
16
> <PUBCHEM_CACTVS_SUBSKEYS>
AAADcfB7/AMAAAAAAAAAAAAAAAAAAWLFiRIsWLAAAAAAAFgB/gAAHgAQCCAACBzhlwYF8L9MFxCgQQZhZICAgC0REKABUCAoVBCDWAJAyEAeRAgPAALTACDwMAIAAAAAAAAAAAAAAAAAAAAAAAAAAAAAAA==
> <PUBCHEM_IUPAC_OPENEYE_NAME>
[(2R,3R,4R,5R)-2-(6-aminopurin-9-yl)-5-[[[(2R,3R,4R,5R)-2-(6-aminopurin-9-yl)-4-hydroxy-5-(hydroxymethyl)tetrahydrofuran-3-yl]oxy-oxido-phosphoryl]oxymethyl]-4-hydroxy-tetrahydrofuran-3-yl] 2-[(6-aminopurin-9-yl)methoxy]ethyl phosphate
> <PUBCHEM_IUPAC_CAS_NAME>
[(2R,3R,4R,5R)-2-(6-aminopurin-9-yl)-5-[[[(2R,3R,4R,5R)-2-(6-aminopurin-9-yl)-4-hydroxy-5-(hydroxymethyl)-3-oxolanyl]oxy-oxidophosphoryl]oxymethyl]-4-hydroxy-3-oxolanyl] 2-[(6-aminopurin-9-yl)methoxy]ethyl phosphate
> <PUBCHEM_IUPAC_NAME_MARKUP>
[(2<I>R</I>,3<I>R</I>,4<I>R</I>,5<I>R</I>)-2-(6-aminopurin-9-yl)-5-[[[(2<I>R</I>,3<I>R</I>,4<I>R</I>,5<I>R</I>)-2-(6-aminopurin-9-yl)-4-hydroxy-5-(hydroxymethyl)oxolan-3-yl]oxy-oxidophosphoryl]oxymethyl]-4-hydroxyoxolan-3-yl] 2-[(6-aminopurin-9-yl)methoxy]ethyl phosphate
> <PUBCHEM_IUPAC_NAME>
[(2R,3R,4R,5R)-2-(6-aminopurin-9-yl)-5-[[[(2R,3R,4R,5R)-2-(6-aminopurin-9-yl)-4-hydroxy-5-(hydroxymethyl)oxolan-3-yl]oxy-oxidophosphoryl]oxymethyl]-4-hydroxyoxolan-3-yl] 2-[(6-aminopurin-9-yl)methoxy]ethyl phosphate
> <PUBCHEM_IUPAC_SYSTEMATIC_NAME>
[(2R,3R,4R,5R)-2-(6-aminopurin-9-yl)-5-[[[(2R,3R,4R,5R)-2-(6-aminopurin-9-yl)-5-(hydroxymethyl)-4-oxidanyl-oxolan-3-yl]oxy-oxidanidyl-phosphoryl]oxymethyl]-4-oxidanyl-oxolan-3-yl] 2-[(6-aminopurin-9-yl)methoxy]ethyl phosphate
> <PUBCHEM_IUPAC_TRADITIONAL_NAME>
[(2R,3R,4R,5R)-2-adenin-9-yl-5-[[[(2R,3R,4R,5R)-2-adenin-9-yl-4-hydroxy-5-methylol-tetrahydrofuran-3-yl]oxy-oxido-phosphoryl]oxymethyl]-4-hydroxy-tetrahydrofuran-3-yl] 2-(adenin-9-ylmethoxy)ethyl phosphate
> <PUBCHEM_IUPAC_INCHI>
InChI=1S/C28H35N15O14P2/c29-21-14-24(35-5-32-21)41(8-38-14)11-51-1-2-52-58(47,48)56-20-18(46)13(55-28(20)43-10-40-16-23(31)34-7-37-26(16)43)4-53-59(49,50)57-19-17(45)12(3-44)54-27(19)42-9-39-15-22(30)33-6-36-25(15)42/h5-10,12-13,17-20,27-28,44-46H,1-4,11H2,(H,47,48)(H,49,50)(H2,29,32,35)(H2,30,33,36)(H2,31,34,37)/p-2/t12-,13-,17-,18-,19-,20-,27-,28-/m1/s1
> <PUBCHEM_IUPAC_INCHIKEY>
HDEIVXIXHYLYMI-YEASDWDASA-L
> <PUBCHEM_XLOGP3_AA>
-5.8
> <PUBCHEM_EXACT_MASS>
865.18066478
> <PUBCHEM_MOLECULAR_FORMULA>
C28H33N15O14P2-2
> <PUBCHEM_MOLECULAR_WEIGHT>
865.6
> <PUBCHEM_OPENEYE_CAN_SMILES>
C1=NC(=C2C(=N1)N(C=N2)COCCOP(=O)([O-])OC3C(C(OC3N4C=NC5=C(N=CN=C54)N)COP(=O)([O-])OC6C(C(OC6N7C=NC8=C(N=CN=C87)N)CO)O)O)N
> <PUBCHEM_OPENEYE_ISO_SMILES>
C1=NC(=C2C(=N1)N(C=N2)COCCOP(=O)([O-])O[C@@H]3[C@@H]([C@H](O[C@H]3N4C=NC5=C(N=CN=C54)N)COP(=O)([O-])O[C@@H]6[C@@H]([C@H](O[C@H]6N7C=NC8=C(N=CN=C87)N)CO)O)O)N
> <PUBCHEM_CACTVS_TPSA>
414
> <PUBCHEM_MONOISOTOPIC_WEIGHT>
865.18066478
> <PUBCHEM_TOTAL_CHARGE>
-2
> <PUBCHEM_HEAVY_ATOM_COUNT>
59
> <PUBCHEM_ATOM_DEF_STEREO_COUNT>
8
> <PUBCHEM_ATOM_UDEF_STEREO_COUNT>
0
> <PUBCHEM_BOND_DEF_STEREO_COUNT>
0
> <PUBCHEM_BOND_UDEF_STEREO_COUNT>
0
> <PUBCHEM_ISOTOPIC_ATOM_COUNT>
0
> <PUBCHEM_COMPONENT_COUNT>
1
> <PUBCHEM_CACTVS_TAUTO_COUNT>
-1
> <PUBCHEM_COORDINATE_TYPE>
1
5
255
> <PUBCHEM_BONDANNOTATIONS>
35  17  5
17  42  8
17  44  8
38  18  5
18  43  8
18  45  8
19  44  8
19  46  8
20  45  8
20  47  8
21  42  8
21  50  8
22  43  8
22  51  8
23  48  8
23  50  8
24  49  8
24  51  8
27  55  8
27  56  8
28  56  8
28  57  8
29  55  8
29  59  8
30  58  8
30  59  8
34  40  5
39  41  5
42  46  8
43  47  8
46  48  8
47  49  8
36  5  6
55  57  8
57  58  8
32  6  6
33  7  6
37  9  6
$$$$
