501063
  -OEChem-10302200282D
 80 84  0     1  0  0  0  0  0999 V2000
    2.3644   -3.2809    0.0000 O   0  0  0  0  0  0  0  0  0  0  0  0
    3.7657   -4.2990    0.0000 O   0  0  0  0  0  0  0  0  0  0  0  0
    4.9413   -2.6809    0.0000 N   0  0  3  0  0  0  0  0  0  0  0  0
    7.3900   -0.8445    0.0000 N   0  0  0  0  0  0  0  0  0  0  0  0
    6.5239   -2.3445    0.0000 C   0  0  2  0  0  0  0  0  0  0  0  0
    6.4194   -3.3391    0.0000 C   0  0  2  0  0  0  0  0  0  0  0  0
    5.6104   -1.9378    0.0000 C   0  0  0  0  0  0  0  0  0  0  0  0
    5.4413   -3.5470    0.0000 C   0  0  0  0  0  0  0  0  0  0  0  0
    3.9467   -2.5764    0.0000 C   0  0  2  0  0  0  0  0  0  0  0  0
    3.5400   -1.6629    0.0000 C   0  0  0  0  0  0  0  0  0  0  0  0
    7.3900   -1.8445    0.0000 C   0  0  0  0  0  0  0  0  0  0  0  0
    2.5619   -1.4550    0.0000 C   0  0  0  0  0  0  0  0  0  0  0  0
    4.0400   -0.7968    0.0000 C   0  0  0  0  0  0  0  0  0  0  0  0
    2.4573   -0.4604    0.0000 C   0  0  0  0  0  0  0  0  0  0  0  0
    3.3709   -0.0537    0.0000 C   0  0  0  0  0  0  0  0  0  0  0  0
    7.1626   -4.0082    0.0000 C   0  0  0  0  0  0  0  0  0  0  0  0
    7.3900    1.1555    0.0000 C   0  0  0  0  0  0  0  0  0  0  0  0
    6.5239   -0.3445    0.0000 C   0  0  0  0  0  0  0  0  0  0  0  0
    8.2560   -0.3445    0.0000 C   0  0  0  0  0  0  0  0  0  0  0  0
    6.5239    0.6555    0.0000 C   0  0  0  0  0  0  0  0  0  0  0  0
    8.2560    0.6555    0.0000 C   0  0  0  0  0  0  0  0  0  0  0  0
    3.3590   -3.3854    0.0000 C   0  0  0  0  0  0  0  0  0  0  0  0
    7.3900    2.1555    0.0000 C   0  0  0  0  0  0  0  0  0  0  0  0
    6.9546   -4.9863    0.0000 C   0  0  0  0  0  0  0  0  0  0  0  0
    8.1136   -3.6992    0.0000 C   0  0  0  0  0  0  0  0  0  0  0  0
    8.2560    2.6555    0.0000 C   0  0  0  0  0  0  0  0  0  0  0  0
    7.6978   -5.6555    0.0000 C   0  0  0  0  0  0  0  0  0  0  0  0
    8.8568   -4.3683    0.0000 C   0  0  0  0  0  0  0  0  0  0  0  0
    8.2560    3.6555    0.0000 C   0  0  0  0  0  0  0  0  0  0  0  0
    8.6488   -5.3464    0.0000 C   0  0  0  0  0  0  0  0  0  0  0  0
    9.1220    4.1555    0.0000 C   0  0  0  0  0  0  0  0  0  0  0  0
    9.9880    3.6555    0.0000 C   0  0  0  0  0  0  0  0  0  0  0  0
    9.1220    5.1555    0.0000 C   0  0  0  0  0  0  0  0  0  0  0  0
   10.8541    4.1555    0.0000 C   0  0  0  0  0  0  0  0  0  0  0  0
    9.9880    5.6555    0.0000 C   0  0  0  0  0  0  0  0  0  0  0  0
   10.8541    5.1555    0.0000 C   0  0  0  0  0  0  0  0  0  0  0  0
    6.4915   -1.7254    0.0000 H   0  0  0  0  0  0  0  0  0  0  0  0
    6.9982   -3.1169    0.0000 H   0  0  0  0  0  0  0  0  0  0  0  0
    5.9204   -1.4009    0.0000 H   0  0  0  0  0  0  0  0  0  0  0  0
    5.1088   -1.5734    0.0000 H   0  0  0  0  0  0  0  0  0  0  0  0
    4.8749   -3.7991    0.0000 H   0  0  0  0  0  0  0  0  0  0  0  0
    5.6328   -4.1366    0.0000 H   0  0  0  0  0  0  0  0  0  0  0  0
    4.1989   -3.1428    0.0000 H   0  0  0  0  0  0  0  0  0  0  0  0
    3.1498   -2.1447    0.0000 H   0  0  0  0  0  0  0  0  0  0  0  0
    7.6020   -2.4271    0.0000 H   0  0  0  0  0  0  0  0  0  0  0  0
    8.0005   -1.7369    0.0000 H   0  0  0  0  0  0  0  0  0  0  0  0
    1.9418   -1.4550    0.0000 H   0  0  0  0  0  0  0  0  0  0  0  0
    2.4970   -2.0716    0.0000 H   0  0  0  0  0  0  0  0  0  0  0  0
    4.5416   -1.1613    0.0000 H   0  0  0  0  0  0  0  0  0  0  0  0
    4.4549   -0.3361    0.0000 H   0  0  0  0  0  0  0  0  0  0  0  0
    2.2657    0.1292    0.0000 H   0  0  0  0  0  0  0  0  0  0  0  0
    1.8509   -0.5893    0.0000 H   0  0  0  0  0  0  0  0  0  0  0  0
    3.8725    0.3107    0.0000 H   0  0  0  0  0  0  0  0  0  0  0  0
    3.0609    0.4832    0.0000 H   0  0  0  0  0  0  0  0  0  0  0  0
    7.9269    1.4655    0.0000 H   0  0  0  0  0  0  0  0  0  0  0  0
    5.9134   -0.2369    0.0000 H   0  0  0  0  0  0  0  0  0  0  0  0
    6.3119   -0.9271    0.0000 H   0  0  0  0  0  0  0  0  0  0  0  0
    8.4680   -0.9271    0.0000 H   0  0  0  0  0  0  0  0  0  0  0  0
    8.8666   -0.2369    0.0000 H   0  0  0  0  0  0  0  0  0  0  0  0
    6.3119    1.2381    0.0000 H   0  0  0  0  0  0  0  0  0  0  0  0
    5.9134    0.5478    0.0000 H   0  0  0  0  0  0  0  0  0  0  0  0
    8.8666    0.5478    0.0000 H   0  0  0  0  0  0  0  0  0  0  0  0
    8.4680    1.2381    0.0000 H   0  0  0  0  0  0  0  0  0  0  0  0
    7.1779    2.7381    0.0000 H   0  0  0  0  0  0  0  0  0  0  0  0
    6.7794    2.0478    0.0000 H   0  0  0  0  0  0  0  0  0  0  0  0
    6.3650   -5.1779    0.0000 H   0  0  0  0  0  0  0  0  0  0  0  0
    8.2425   -3.0927    0.0000 H   0  0  0  0  0  0  0  0  0  0  0  0
    8.4680    2.0729    0.0000 H   0  0  0  0  0  0  0  0  0  0  0  0
    8.8666    2.7631    0.0000 H   0  0  0  0  0  0  0  0  0  0  0  0
    2.0000   -3.7825    0.0000 H   0  0  0  0  0  0  0  0  0  0  0  0
    7.5689   -6.2619    0.0000 H   0  0  0  0  0  0  0  0  0  0  0  0
    9.4464   -4.1767    0.0000 H   0  0  0  0  0  0  0  0  0  0  0  0
    8.0439    4.2381    0.0000 H   0  0  0  0  0  0  0  0  0  0  0  0
    7.6454    3.5478    0.0000 H   0  0  0  0  0  0  0  0  0  0  0  0
    9.1096   -5.7613    0.0000 H   0  0  0  0  0  0  0  0  0  0  0  0
    9.9880    3.0355    0.0000 H   0  0  0  0  0  0  0  0  0  0  0  0
    8.5851    5.4655    0.0000 H   0  0  0  0  0  0  0  0  0  0  0  0
   11.3910    3.8455    0.0000 H   0  0  0  0  0  0  0  0  0  0  0  0
    9.9880    6.2755    0.0000 H   0  0  0  0  0  0  0  0  0  0  0  0
   11.3910    5.4655    0.0000 H   0  0  0  0  0  0  0  0  0  0  0  0
  1 22  1  0  0  0  0
  1 70  1  0  0  0  0
  2 22  2  0  0  0  0
  3  7  1  0  0  0  0
  3  8  1  0  0  0  0
  3  9  1  0  0  0  0
  4 11  1  0  0  0  0
  4 18  1  0  0  0  0
  4 19  1  0  0  0  0
  5  6  1  0  0  0  0
  5  7  1  0  0  0  0
  5 11  1  6  0  0  0
  5 37  1  0  0  0  0
  6  8  1  0  0  0  0
  6 16  1  1  0  0  0
  6 38  1  0  0  0  0
  7 39  1  0  0  0  0
  7 40  1  0  0  0  0
  8 41  1  0  0  0  0
  8 42  1  0  0  0  0
  9 10  1  0  0  0  0
  9 22  1  1  0  0  0
  9 43  1  0  0  0  0
 10 12  1  0  0  0  0
 10 13  1  0  0  0  0
 10 44  1  0  0  0  0
 11 45  1  0  0  0  0
 11 46  1  0  0  0  0
 12 14  1  0  0  0  0
 12 47  1  0  0  0  0
 12 48  1  0  0  0  0
 13 15  1  0  0  0  0
 13 49  1  0  0  0  0
 13 50  1  0  0  0  0
 14 15  1  0  0  0  0
 14 51  1  0  0  0  0
 14 52  1  0  0  0  0
 15 53  1  0  0  0  0
 15 54  1  0  0  0  0
 16 24  2  0  0  0  0
 16 25  1  0  0  0  0
 17 20  1  0  0  0  0
 17 21  1  0  0  0  0
 17 23  1  0  0  0  0
 17 55  1  0  0  0  0
 18 20  1  0  0  0  0
 18 56  1  0  0  0  0
 18 57  1  0  0  0  0
 19 21  1  0  0  0  0
 19 58  1  0  0  0  0
 19 59  1  0  0  0  0
 20 60  1  0  0  0  0
 20 61  1  0  0  0  0
 21 62  1  0  0  0  0
 21 63  1  0  0  0  0
 23 26  1  0  0  0  0
 23 64  1  0  0  0  0
 23 65  1  0  0  0  0
 24 27  1  0  0  0  0
 24 66  1  0  0  0  0
 25 28  2  0  0  0  0
 25 67  1  0  0  0  0
 26 29  1  0  0  0  0
 26 68  1  0  0  0  0
 26 69  1  0  0  0  0
 27 30  2  0  0  0  0
 27 71  1  0  0  0  0
 28 30  1  0  0  0  0
 28 72  1  0  0  0  0
 29 31  1  0  0  0  0
 29 73  1  0  0  0  0
 29 74  1  0  0  0  0
 30 75  1  0  0  0  0
 31 32  2  0  0  0  0
 31 33  1  0  0  0  0
 32 34  1  0  0  0  0
 32 76  1  0  0  0  0
 33 35  2  0  0  0  0
 33 77  1  0  0  0  0
 34 36  2  0  0  0  0
 34 78  1  0  0  0  0
 35 36  1  0  0  0  0
 35 79  1  0  0  0  0
 36 80  1  0  0  0  0
M  END
> <PUBCHEM_COMPOUND_CID>
501063
> <PUBCHEM_COMPOUND_CANONICALIZED>
1
> <PUBCHEM_CACTVS_COMPLEXITY>
657
> <PUBCHEM_CACTVS_HBOND_ACCEPTOR>
4
> <PUBCHEM_CACTVS_HBOND_DONOR>
1
> <PUBCHEM_CACTVS_ROTATABLE_BOND>
10
> <PUBCHEM_CACTVS_SUBSKEYS>
AAADcfB/MAAAAAAAAAAAAAAAAAAAAeIAAAA8YIAAAAAAAAABQAAAHgAACAAADSjBmAQwCIMAAgCIAiDSCAACAAAgAAAIiAGIAIgKIDKA0TGEYAAkgACYiAeYyOCOgAAAAAAAAAAAAAAAAAAAAAAAAAAAAA==
> <PUBCHEM_IUPAC_OPENEYE_NAME>
(2R)-2-cyclopentyl-2-[(3S,4S)-3-phenyl-4-[[4-(3-phenylpropyl)-1-piperidyl]methyl]pyrrolidin-1-yl]acetic acid
> <PUBCHEM_IUPAC_CAS_NAME>
(2R)-2-cyclopentyl-2-[(3S,4S)-3-phenyl-4-[[4-(3-phenylpropyl)-1-piperidinyl]methyl]-1-pyrrolidinyl]acetic acid
> <PUBCHEM_IUPAC_NAME_MARKUP>
(2<I>R</I>)-2-cyclopentyl-2-[(3<I>S</I>,4<I>S</I>)-3-phenyl-4-[[4-(3-phenylpropyl)piperidin-1-yl]methyl]pyrrolidin-1-yl]acetic acid
> <PUBCHEM_IUPAC_NAME>
(2R)-2-cyclopentyl-2-[(3S,4S)-3-phenyl-4-[[4-(3-phenylpropyl)piperidin-1-yl]methyl]pyrrolidin-1-yl]acetic acid
> <PUBCHEM_IUPAC_SYSTEMATIC_NAME>
(2R)-2-cyclopentyl-2-[(3S,4S)-3-phenyl-4-[[4-(3-phenylpropyl)piperidin-1-yl]methyl]pyrrolidin-1-yl]ethanoic acid
> <PUBCHEM_IUPAC_TRADITIONAL_NAME>
(2R)-2-cyclopentyl-2-[(3S,4S)-3-phenyl-4-[[4-(3-phenylpropyl)piperidino]methyl]pyrrolidino]acetic acid
> <PUBCHEM_IUPAC_INCHI>
InChI=1S/C32H44N2O2/c35-32(36)31(28-16-7-8-17-28)34-23-29(30(24-34)27-14-5-2-6-15-27)22-33-20-18-26(19-21-33)13-9-12-25-10-3-1-4-11-25/h1-6,10-11,14-15,26,28-31H,7-9,12-13,16-24H2,(H,35,36)/t29-,30+,31+/m0/s1
> <PUBCHEM_IUPAC_INCHIKEY>
KQPOJCCWDXCAIU-OJDZSJEKSA-N
> <PUBCHEM_XLOGP3_AA>
5
> <PUBCHEM_EXACT_MASS>
488.34027865
> <PUBCHEM_MOLECULAR_FORMULA>
C32H44N2O2
> <PUBCHEM_MOLECULAR_WEIGHT>
488.7
> <PUBCHEM_OPENEYE_CAN_SMILES>
C1CCC(C1)C(C(=O)O)N2CC(C(C2)C3=CC=CC=C3)CN4CCC(CC4)CCCC5=CC=CC=C5
> <PUBCHEM_OPENEYE_ISO_SMILES>
C1CCC(C1)[C@H](C(=O)O)N2C[C@@H]([C@H](C2)C3=CC=CC=C3)CN4CCC(CC4)CCCC5=CC=CC=C5
> <PUBCHEM_CACTVS_TPSA>
43.8
> <PUBCHEM_MONOISOTOPIC_WEIGHT>
488.34027865
> <PUBCHEM_TOTAL_CHARGE>
0
> <PUBCHEM_HEAVY_ATOM_COUNT>
36
> <PUBCHEM_ATOM_DEF_STEREO_COUNT>
3
> <PUBCHEM_ATOM_UDEF_STEREO_COUNT>
0
> <PUBCHEM_BOND_DEF_STEREO_COUNT>
0
> <PUBCHEM_BOND_UDEF_STEREO_COUNT>
0
> <PUBCHEM_ISOTOPIC_ATOM_COUNT>
0
> <PUBCHEM_COMPONENT_COUNT>
1
> <PUBCHEM_CACTVS_TAUTO_COUNT>
-1
> <PUBCHEM_COORDINATE_TYPE>
1
5
255
> <PUBCHEM_BONDANNOTATIONS>
16  24  8
16  25  8
24  27  8
25  28  8
27  30  8
28  30  8
31  32  8
31  33  8
32  34  8
33  35  8
34  36  8
35  36  8
5  11  6
6  16  5
9  22  5
$$$$
