501046
  -OEChem-10302200282D
 84 88  0     1  0  0  0  0  0999 V2000
    7.1133    2.9724    0.0000 O   0  0  0  0  0  0  0  0  0  0  0  0
    2.7688   -0.6074    0.0000 O   0  0  0  0  0  0  0  0  0  0  0  0
    4.3511    0.0971    0.0000 O   0  0  0  0  0  0  0  0  0  0  0  0
    5.1646   -1.7300    0.0000 N   0  0  3  0  0  0  0  0  0  0  0  0
    7.6133    0.1064    0.0000 N   0  0  0  0  0  0  0  0  0  0  0  0
    6.7473   -1.3936    0.0000 C   0  0  2  0  0  0  0  0  0  0  0  0
    6.6428   -2.3881    0.0000 C   0  0  2  0  0  0  0  0  0  0  0  0
    5.8338   -0.9868    0.0000 C   0  0  0  0  0  0  0  0  0  0  0  0
    5.6646   -2.5960    0.0000 C   0  0  0  0  0  0  0  0  0  0  0  0
    4.1701   -1.6254    0.0000 C   0  0  2  0  0  0  0  0  0  0  0  0
    7.6133   -0.8936    0.0000 C   0  0  0  0  0  0  0  0  0  0  0  0
    3.5823   -2.4345    0.0000 C   0  0  0  0  0  0  0  0  0  0  0  0
    2.5878   -2.3299    0.0000 C   0  0  0  0  0  0  0  0  0  0  0  0
    3.9890   -3.3480    0.0000 C   0  0  0  0  0  0  0  0  0  0  0  0
    7.6133    2.1064    0.0000 C   0  0  0  0  0  0  0  0  0  0  0  0
    8.4793    0.6064    0.0000 C   0  0  0  0  0  0  0  0  0  0  0  0
    6.7473    0.6064    0.0000 C   0  0  0  0  0  0  0  0  0  0  0  0
    7.3859   -3.0572    0.0000 C   0  0  0  0  0  0  0  0  0  0  0  0
    8.4793    1.6064    0.0000 C   0  0  0  0  0  0  0  0  0  0  0  0
    6.7473    1.6064    0.0000 C   0  0  0  0  0  0  0  0  0  0  0  0
    2.0000   -3.1390    0.0000 C   0  0  0  0  0  0  0  0  0  0  0  0
    3.4013   -4.1570    0.0000 C   0  0  0  0  0  0  0  0  0  0  0  0
    2.4067   -4.0525    0.0000 C   0  0  0  0  0  0  0  0  0  0  0  0
    3.7634   -0.7119    0.0000 C   0  0  0  0  0  0  0  0  0  0  0  0
    8.1133    2.9724    0.0000 C   0  0  0  0  0  0  0  0  0  0  0  0
    8.3370   -2.7482    0.0000 C   0  0  0  0  0  0  0  0  0  0  0  0
    7.1780   -4.0354    0.0000 C   0  0  0  0  0  0  0  0  0  0  0  0
    9.1133    2.9724    0.0000 C   0  0  0  0  0  0  0  0  0  0  0  0
    9.0801   -3.4173    0.0000 C   0  0  0  0  0  0  0  0  0  0  0  0
    7.9211   -4.7045    0.0000 C   0  0  0  0  0  0  0  0  0  0  0  0
    9.6133    3.8385    0.0000 C   0  0  0  0  0  0  0  0  0  0  0  0
    8.8722   -4.3955    0.0000 C   0  0  0  0  0  0  0  0  0  0  0  0
   10.6133    3.8385    0.0000 C   0  0  0  0  0  0  0  0  0  0  0  0
   11.1133    4.7045    0.0000 C   0  0  0  0  0  0  0  0  0  0  0  0
   11.1133    2.9724    0.0000 C   0  0  0  0  0  0  0  0  0  0  0  0
   12.1133    4.7045    0.0000 C   0  0  0  0  0  0  0  0  0  0  0  0
   12.1133    2.9724    0.0000 C   0  0  0  0  0  0  0  0  0  0  0  0
   12.6133    3.8385    0.0000 C   0  0  0  0  0  0  0  0  0  0  0  0
    7.2673   -1.7312    0.0000 H   0  0  0  0  0  0  0  0  0  0  0  0
    6.4823   -2.9870    0.0000 H   0  0  0  0  0  0  0  0  0  0  0  0
    6.1437   -0.4499    0.0000 H   0  0  0  0  0  0  0  0  0  0  0  0
    5.3322   -0.6224    0.0000 H   0  0  0  0  0  0  0  0  0  0  0  0
    5.0982   -2.8482    0.0000 H   0  0  0  0  0  0  0  0  0  0  0  0
    5.8562   -3.1857    0.0000 H   0  0  0  0  0  0  0  0  0  0  0  0
    4.5345   -1.1239    0.0000 H   0  0  0  0  0  0  0  0  0  0  0  0
    7.8254   -1.4762    0.0000 H   0  0  0  0  0  0  0  0  0  0  0  0
    8.2239   -0.7859    0.0000 H   0  0  0  0  0  0  0  0  0  0  0  0
    3.3301   -1.8681    0.0000 H   0  0  0  0  0  0  0  0  0  0  0  0
    2.7587   -1.7340    0.0000 H   0  0  0  0  0  0  0  0  0  0  0  0
    2.0305   -2.0582    0.0000 H   0  0  0  0  0  0  0  0  0  0  0  0
    4.4197   -3.7940    0.0000 H   0  0  0  0  0  0  0  0  0  0  0  0
    4.5030   -3.0013    0.0000 H   0  0  0  0  0  0  0  0  0  0  0  0
    8.6914    0.0238    0.0000 H   0  0  0  0  0  0  0  0  0  0  0  0
    9.0899    0.7141    0.0000 H   0  0  0  0  0  0  0  0  0  0  0  0
    6.1367    0.7141    0.0000 H   0  0  0  0  0  0  0  0  0  0  0  0
    6.5352    0.0238    0.0000 H   0  0  0  0  0  0  0  0  0  0  0  0
    9.0899    1.4988    0.0000 H   0  0  0  0  0  0  0  0  0  0  0  0
    8.6914    2.1890    0.0000 H   0  0  0  0  0  0  0  0  0  0  0  0
    6.5352    2.1890    0.0000 H   0  0  0  0  0  0  0  0  0  0  0  0
    6.1367    1.4988    0.0000 H   0  0  0  0  0  0  0  0  0  0  0  0
    1.5693   -2.6930    0.0000 H   0  0  0  0  0  0  0  0  0  0  0  0
    1.4860   -3.4857    0.0000 H   0  0  0  0  0  0  0  0  0  0  0  0
    3.2304   -4.7530    0.0000 H   0  0  0  0  0  0  0  0  0  0  0  0
    3.9585   -4.4288    0.0000 H   0  0  0  0  0  0  0  0  0  0  0  0
    1.8052   -4.2025    0.0000 H   0  0  0  0  0  0  0  0  0  0  0  0
    2.4500   -4.6710    0.0000 H   0  0  0  0  0  0  0  0  0  0  0  0
    8.2210    3.5830    0.0000 H   0  0  0  0  0  0  0  0  0  0  0  0
    7.5307    3.1845    0.0000 H   0  0  0  0  0  0  0  0  0  0  0  0
    8.4659   -2.1418    0.0000 H   0  0  0  0  0  0  0  0  0  0  0  0
    6.5883   -4.2270    0.0000 H   0  0  0  0  0  0  0  0  0  0  0  0
    9.0056    2.3619    0.0000 H   0  0  0  0  0  0  0  0  0  0  0  0
    9.6959    2.7604    0.0000 H   0  0  0  0  0  0  0  0  0  0  0  0
    6.4933    2.9724    0.0000 H   0  0  0  0  0  0  0  0  0  0  0  0
    9.6698   -3.2258    0.0000 H   0  0  0  0  0  0  0  0  0  0  0  0
    7.7922   -5.3110    0.0000 H   0  0  0  0  0  0  0  0  0  0  0  0
    9.7210    4.4491    0.0000 H   0  0  0  0  0  0  0  0  0  0  0  0
    9.0307    4.0505    0.0000 H   0  0  0  0  0  0  0  0  0  0  0  0
    2.5167   -0.0410    0.0000 H   0  0  0  0  0  0  0  0  0  0  0  0
    9.3330   -4.8104    0.0000 H   0  0  0  0  0  0  0  0  0  0  0  0
   10.8033    5.2414    0.0000 H   0  0  0  0  0  0  0  0  0  0  0  0
   10.8033    2.4355    0.0000 H   0  0  0  0  0  0  0  0  0  0  0  0
   12.4233    5.2414    0.0000 H   0  0  0  0  0  0  0  0  0  0  0  0
   12.4233    2.4355    0.0000 H   0  0  0  0  0  0  0  0  0  0  0  0
   13.2333    3.8385    0.0000 H   0  0  0  0  0  0  0  0  0  0  0  0
  1 15  1  0  0  0  0
  1 73  1  0  0  0  0
  2 24  1  0  0  0  0
  2 78  1  0  0  0  0
  3 24  2  0  0  0  0
  4  8  1  0  0  0  0
  4  9  1  0  0  0  0
  4 10  1  0  0  0  0
  5 11  1  0  0  0  0
  5 16  1  0  0  0  0
  5 17  1  0  0  0  0
  6  7  1  0  0  0  0
  6  8  1  0  0  0  0
  6 11  1  6  0  0  0
  6 39  1  0  0  0  0
  7  9  1  0  0  0  0
  7 18  1  1  0  0  0
  7 40  1  0  0  0  0
  8 41  1  0  0  0  0
  8 42  1  0  0  0  0
  9 43  1  0  0  0  0
  9 44  1  0  0  0  0
 10 12  1  0  0  0  0
 10 24  1  6  0  0  0
 10 45  1  0  0  0  0
 11 46  1  0  0  0  0
 11 47  1  0  0  0  0
 12 13  1  0  0  0  0
 12 14  1  0  0  0  0
 12 48  1  0  0  0  0
 13 21  1  0  0  0  0
 13 49  1  0  0  0  0
 13 50  1  0  0  0  0
 14 22  1  0  0  0  0
 14 51  1  0  0  0  0
 14 52  1  0  0  0  0
 15 19  1  0  0  0  0
 15 20  1  0  0  0  0
 15 25  1  0  0  0  0
 16 19  1  0  0  0  0
 16 53  1  0  0  0  0
 16 54  1  0  0  0  0
 17 20  1  0  0  0  0
 17 55  1  0  0  0  0
 17 56  1  0  0  0  0
 18 26  2  0  0  0  0
 18 27  1  0  0  0  0
 19 57  1  0  0  0  0
 19 58  1  0  0  0  0
 20 59  1  0  0  0  0
 20 60  1  0  0  0  0
 21 23  1  0  0  0  0
 21 61  1  0  0  0  0
 21 62  1  0  0  0  0
 22 23  1  0  0  0  0
 22 63  1  0  0  0  0
 22 64  1  0  0  0  0
 23 65  1  0  0  0  0
 23 66  1  0  0  0  0
 25 28  1  0  0  0  0
 25 67  1  0  0  0  0
 25 68  1  0  0  0  0
 26 29  1  0  0  0  0
 26 69  1  0  0  0  0
 27 30  2  0  0  0  0
 27 70  1  0  0  0  0
 28 31  1  0  0  0  0
 28 71  1  0  0  0  0
 28 72  1  0  0  0  0
 29 32  2  0  0  0  0
 29 74  1  0  0  0  0
 30 32  1  0  0  0  0
 30 75  1  0  0  0  0
 31 33  1  0  0  0  0
 31 76  1  0  0  0  0
 31 77  1  0  0  0  0
 32 79  1  0  0  0  0
 33 34  2  0  0  0  0
 33 35  1  0  0  0  0
 34 36  1  0  0  0  0
 34 80  1  0  0  0  0
 35 37  2  0  0  0  0
 35 81  1  0  0  0  0
 36 38  2  0  0  0  0
 36 82  1  0  0  0  0
 37 38  1  0  0  0  0
 37 83  1  0  0  0  0
 38 84  1  0  0  0  0
M  END
> <PUBCHEM_COMPOUND_CID>
501046
> <PUBCHEM_COMPOUND_CANONICALIZED>
1
> <PUBCHEM_CACTVS_COMPLEXITY>
718
> <PUBCHEM_CACTVS_HBOND_ACCEPTOR>
5
> <PUBCHEM_CACTVS_HBOND_DONOR>
2
> <PUBCHEM_CACTVS_ROTATABLE_BOND>
10
> <PUBCHEM_CACTVS_SUBSKEYS>
AAADcfB/MAAAAAAAAAAAAAAAAAAAAWAAAAA8YMEAAAAAAAABQAAAHgAACAAADWzBmAQwCIMAAgCIAiDSCAACAAAgAAAIiAGIAIgKIDKA0TGEYAAmgACYiAeYyPCOgAAAAAAAAAAAAAAAAAAAAAAAAAAAAA==
> <PUBCHEM_IUPAC_OPENEYE_NAME>
(2R)-2-cyclohexyl-2-[(3S,4S)-3-[[4-hydroxy-4-(3-phenylpropyl)-1-piperidyl]methyl]-4-phenyl-pyrrolidin-1-yl]acetic acid
> <PUBCHEM_IUPAC_CAS_NAME>
(2R)-2-cyclohexyl-2-[(3S,4S)-3-[[4-hydroxy-4-(3-phenylpropyl)-1-piperidinyl]methyl]-4-phenyl-1-pyrrolidinyl]acetic acid
> <PUBCHEM_IUPAC_NAME_MARKUP>
(2<I>R</I>)-2-cyclohexyl-2-[(3<I>S</I>,4<I>S</I>)-3-[[4-hydroxy-4-(3-phenylpropyl)piperidin-1-yl]methyl]-4-phenylpyrrolidin-1-yl]acetic acid
> <PUBCHEM_IUPAC_NAME>
(2R)-2-cyclohexyl-2-[(3S,4S)-3-[[4-hydroxy-4-(3-phenylpropyl)piperidin-1-yl]methyl]-4-phenylpyrrolidin-1-yl]acetic acid
> <PUBCHEM_IUPAC_SYSTEMATIC_NAME>
(2R)-2-cyclohexyl-2-[(3S,4S)-3-[[4-oxidanyl-4-(3-phenylpropyl)piperidin-1-yl]methyl]-4-phenyl-pyrrolidin-1-yl]ethanoic acid
> <PUBCHEM_IUPAC_TRADITIONAL_NAME>
(2R)-2-cyclohexyl-2-[(3S,4S)-3-[[4-hydroxy-4-(3-phenylpropyl)piperidino]methyl]-4-phenyl-pyrrolidino]acetic acid
> <PUBCHEM_IUPAC_INCHI>
InChI=1S/C33H46N2O3/c36-32(37)31(28-16-8-3-9-17-28)35-24-29(30(25-35)27-14-6-2-7-15-27)23-34-21-19-33(38,20-22-34)18-10-13-26-11-4-1-5-12-26/h1-2,4-7,11-12,14-15,28-31,38H,3,8-10,13,16-25H2,(H,36,37)/t29-,30+,31+/m0/s1
> <PUBCHEM_IUPAC_INCHIKEY>
WUHUVZJYMLYIBB-OJDZSJEKSA-N
> <PUBCHEM_XLOGP3_AA>
4.2
> <PUBCHEM_EXACT_MASS>
518.35084333
> <PUBCHEM_MOLECULAR_FORMULA>
C33H46N2O3
> <PUBCHEM_MOLECULAR_WEIGHT>
518.7
> <PUBCHEM_OPENEYE_CAN_SMILES>
C1CCC(CC1)C(C(=O)O)N2CC(C(C2)C3=CC=CC=C3)CN4CCC(CC4)(CCCC5=CC=CC=C5)O
> <PUBCHEM_OPENEYE_ISO_SMILES>
C1CCC(CC1)[C@H](C(=O)O)N2C[C@@H]([C@H](C2)C3=CC=CC=C3)CN4CCC(CC4)(CCCC5=CC=CC=C5)O
> <PUBCHEM_CACTVS_TPSA>
64
> <PUBCHEM_MONOISOTOPIC_WEIGHT>
518.35084333
> <PUBCHEM_TOTAL_CHARGE>
0
> <PUBCHEM_HEAVY_ATOM_COUNT>
38
> <PUBCHEM_ATOM_DEF_STEREO_COUNT>
3
> <PUBCHEM_ATOM_UDEF_STEREO_COUNT>
0
> <PUBCHEM_BOND_DEF_STEREO_COUNT>
0
> <PUBCHEM_BOND_UDEF_STEREO_COUNT>
0
> <PUBCHEM_ISOTOPIC_ATOM_COUNT>
0
> <PUBCHEM_COMPONENT_COUNT>
1
> <PUBCHEM_CACTVS_TAUTO_COUNT>
-1
> <PUBCHEM_COORDINATE_TYPE>
1
5
255
> <PUBCHEM_BONDANNOTATIONS>
10  24  6
18  26  8
18  27  8
26  29  8
27  30  8
29  32  8
30  32  8
33  34  8
33  35  8
34  36  8
35  37  8
36  38  8
37  38  8
6  11  6
7  18  5
$$$$
