501056
  -OEChem-10302200282D
 76 79  0     1  0  0  0  0  0999 V2000
    2.3644   -3.2809    0.0000 O   0  0  0  0  0  0  0  0  0  0  0  0
    3.7657   -4.2990    0.0000 O   0  0  0  0  0  0  0  0  0  0  0  0
    4.9413   -2.6809    0.0000 N   0  0  3  0  0  0  0  0  0  0  0  0
    7.3900   -0.8445    0.0000 N   0  0  0  0  0  0  0  0  0  0  0  0
    6.5239   -2.3445    0.0000 C   0  0  2  0  0  0  0  0  0  0  0  0
    6.4194   -3.3391    0.0000 C   0  0  2  0  0  0  0  0  0  0  0  0
    5.6104   -1.9378    0.0000 C   0  0  0  0  0  0  0  0  0  0  0  0
    5.4413   -3.5470    0.0000 C   0  0  0  0  0  0  0  0  0  0  0  0
    7.3900   -1.8445    0.0000 C   0  0  0  0  0  0  0  0  0  0  0  0
    3.9467   -2.5764    0.0000 C   0  0  2  0  0  0  0  0  0  0  0  0
    7.3900    1.1555    0.0000 C   0  0  0  0  0  0  0  0  0  0  0  0
    6.5239   -0.3445    0.0000 C   0  0  0  0  0  0  0  0  0  0  0  0
    8.2560   -0.3445    0.0000 C   0  0  0  0  0  0  0  0  0  0  0  0
    6.5239    0.6555    0.0000 C   0  0  0  0  0  0  0  0  0  0  0  0
    8.2560    0.6555    0.0000 C   0  0  0  0  0  0  0  0  0  0  0  0
    7.1626   -4.0082    0.0000 C   0  0  0  0  0  0  0  0  0  0  0  0
    3.5400   -1.6629    0.0000 C   0  0  0  0  0  0  0  0  0  0  0  0
    7.3900    2.1555    0.0000 C   0  0  0  0  0  0  0  0  0  0  0  0
    3.3590   -3.3854    0.0000 C   0  0  0  0  0  0  0  0  0  0  0  0
    6.9546   -4.9863    0.0000 C   0  0  0  0  0  0  0  0  0  0  0  0
    8.1136   -3.6992    0.0000 C   0  0  0  0  0  0  0  0  0  0  0  0
    8.2560    2.6555    0.0000 C   0  0  0  0  0  0  0  0  0  0  0  0
    2.5455   -1.5583    0.0000 C   0  0  0  0  0  0  0  0  0  0  0  0
    4.1278   -0.8539    0.0000 C   0  0  0  0  0  0  0  0  0  0  0  0
    8.2560    3.6555    0.0000 C   0  0  0  0  0  0  0  0  0  0  0  0
    7.6978   -5.6555    0.0000 C   0  0  0  0  0  0  0  0  0  0  0  0
    8.8568   -4.3683    0.0000 C   0  0  0  0  0  0  0  0  0  0  0  0
    8.6488   -5.3464    0.0000 C   0  0  0  0  0  0  0  0  0  0  0  0
    9.1220    4.1555    0.0000 C   0  0  0  0  0  0  0  0  0  0  0  0
    9.9880    3.6555    0.0000 C   0  0  0  0  0  0  0  0  0  0  0  0
    9.1220    5.1555    0.0000 C   0  0  0  0  0  0  0  0  0  0  0  0
   10.8541    4.1555    0.0000 C   0  0  0  0  0  0  0  0  0  0  0  0
    9.9880    5.6555    0.0000 C   0  0  0  0  0  0  0  0  0  0  0  0
   10.8541    5.1555    0.0000 C   0  0  0  0  0  0  0  0  0  0  0  0
    6.4915   -1.7254    0.0000 H   0  0  0  0  0  0  0  0  0  0  0  0
    6.9982   -3.1169    0.0000 H   0  0  0  0  0  0  0  0  0  0  0  0
    5.9204   -1.4009    0.0000 H   0  0  0  0  0  0  0  0  0  0  0  0
    5.1088   -1.5734    0.0000 H   0  0  0  0  0  0  0  0  0  0  0  0
    4.8749   -3.7991    0.0000 H   0  0  0  0  0  0  0  0  0  0  0  0
    5.6328   -4.1366    0.0000 H   0  0  0  0  0  0  0  0  0  0  0  0
    7.6020   -2.4271    0.0000 H   0  0  0  0  0  0  0  0  0  0  0  0
    8.0005   -1.7369    0.0000 H   0  0  0  0  0  0  0  0  0  0  0  0
    4.1989   -3.1428    0.0000 H   0  0  0  0  0  0  0  0  0  0  0  0
    7.9269    1.4655    0.0000 H   0  0  0  0  0  0  0  0  0  0  0  0
    5.9134   -0.2369    0.0000 H   0  0  0  0  0  0  0  0  0  0  0  0
    6.3119   -0.9271    0.0000 H   0  0  0  0  0  0  0  0  0  0  0  0
    8.4680   -0.9271    0.0000 H   0  0  0  0  0  0  0  0  0  0  0  0
    8.8666   -0.2369    0.0000 H   0  0  0  0  0  0  0  0  0  0  0  0
    6.3119    1.2381    0.0000 H   0  0  0  0  0  0  0  0  0  0  0  0
    5.9134    0.5478    0.0000 H   0  0  0  0  0  0  0  0  0  0  0  0
    8.8666    0.5478    0.0000 H   0  0  0  0  0  0  0  0  0  0  0  0
    8.4680    1.2381    0.0000 H   0  0  0  0  0  0  0  0  0  0  0  0
    3.2878   -1.0965    0.0000 H   0  0  0  0  0  0  0  0  0  0  0  0
    7.1779    2.7381    0.0000 H   0  0  0  0  0  0  0  0  0  0  0  0
    6.7794    2.0478    0.0000 H   0  0  0  0  0  0  0  0  0  0  0  0
    6.3650   -5.1779    0.0000 H   0  0  0  0  0  0  0  0  0  0  0  0
    8.2425   -3.0927    0.0000 H   0  0  0  0  0  0  0  0  0  0  0  0
    8.4680    2.0729    0.0000 H   0  0  0  0  0  0  0  0  0  0  0  0
    8.8666    2.7631    0.0000 H   0  0  0  0  0  0  0  0  0  0  0  0
    2.6103   -0.9417    0.0000 H   0  0  0  0  0  0  0  0  0  0  0  0
    1.9289   -1.4935    0.0000 H   0  0  0  0  0  0  0  0  0  0  0  0
    2.4807   -2.1749    0.0000 H   0  0  0  0  0  0  0  0  0  0  0  0
    4.6294   -1.2183    0.0000 H   0  0  0  0  0  0  0  0  0  0  0  0
    4.4922   -0.3523    0.0000 H   0  0  0  0  0  0  0  0  0  0  0  0
    3.6262   -0.4894    0.0000 H   0  0  0  0  0  0  0  0  0  0  0  0
    8.0439    4.2381    0.0000 H   0  0  0  0  0  0  0  0  0  0  0  0
    7.6454    3.5478    0.0000 H   0  0  0  0  0  0  0  0  0  0  0  0
    7.5689   -6.2619    0.0000 H   0  0  0  0  0  0  0  0  0  0  0  0
    9.4464   -4.1767    0.0000 H   0  0  0  0  0  0  0  0  0  0  0  0
    9.1096   -5.7613    0.0000 H   0  0  0  0  0  0  0  0  0  0  0  0
    2.0000   -3.7825    0.0000 H   0  0  0  0  0  0  0  0  0  0  0  0
    9.9880    3.0355    0.0000 H   0  0  0  0  0  0  0  0  0  0  0  0
    8.5851    5.4655    0.0000 H   0  0  0  0  0  0  0  0  0  0  0  0
   11.3910    3.8455    0.0000 H   0  0  0  0  0  0  0  0  0  0  0  0
    9.9880    6.2755    0.0000 H   0  0  0  0  0  0  0  0  0  0  0  0
   11.3910    5.4655    0.0000 H   0  0  0  0  0  0  0  0  0  0  0  0
  1 19  1  0  0  0  0
  1 71  1  0  0  0  0
  2 19  2  0  0  0  0
  3  7  1  0  0  0  0
  3  8  1  0  0  0  0
  3 10  1  0  0  0  0
  4  9  1  0  0  0  0
  4 12  1  0  0  0  0
  4 13  1  0  0  0  0
  5  6  1  0  0  0  0
  5  7  1  0  0  0  0
  5  9  1  6  0  0  0
  5 35  1  0  0  0  0
  6  8  1  0  0  0  0
  6 16  1  1  0  0  0
  6 36  1  0  0  0  0
  7 37  1  0  0  0  0
  7 38  1  0  0  0  0
  8 39  1  0  0  0  0
  8 40  1  0  0  0  0
  9 41  1  0  0  0  0
  9 42  1  0  0  0  0
 10 17  1  0  0  0  0
 10 19  1  1  0  0  0
 10 43  1  0  0  0  0
 11 14  1  0  0  0  0
 11 15  1  0  0  0  0
 11 18  1  0  0  0  0
 11 44  1  0  0  0  0
 12 14  1  0  0  0  0
 12 45  1  0  0  0  0
 12 46  1  0  0  0  0
 13 15  1  0  0  0  0
 13 47  1  0  0  0  0
 13 48  1  0  0  0  0
 14 49  1  0  0  0  0
 14 50  1  0  0  0  0
 15 51  1  0  0  0  0
 15 52  1  0  0  0  0
 16 20  2  0  0  0  0
 16 21  1  0  0  0  0
 17 23  1  0  0  0  0
 17 24  1  0  0  0  0
 17 53  1  0  0  0  0
 18 22  1  0  0  0  0
 18 54  1  0  0  0  0
 18 55  1  0  0  0  0
 20 26  1  0  0  0  0
 20 56  1  0  0  0  0
 21 27  2  0  0  0  0
 21 57  1  0  0  0  0
 22 25  1  0  0  0  0
 22 58  1  0  0  0  0
 22 59  1  0  0  0  0
 23 60  1  0  0  0  0
 23 61  1  0  0  0  0
 23 62  1  0  0  0  0
 24 63  1  0  0  0  0
 24 64  1  0  0  0  0
 24 65  1  0  0  0  0
 25 29  1  0  0  0  0
 25 66  1  0  0  0  0
 25 67  1  0  0  0  0
 26 28  2  0  0  0  0
 26 68  1  0  0  0  0
 27 28  1  0  0  0  0
 27 69  1  0  0  0  0
 28 70  1  0  0  0  0
 29 30  2  0  0  0  0
 29 31  1  0  0  0  0
 30 32  1  0  0  0  0
 30 72  1  0  0  0  0
 31 33  2  0  0  0  0
 31 73  1  0  0  0  0
 32 34  2  0  0  0  0
 32 74  1  0  0  0  0
 33 34  1  0  0  0  0
 33 75  1  0  0  0  0
 34 76  1  0  0  0  0
M  END
> <PUBCHEM_COMPOUND_CID>
501056
> <PUBCHEM_COMPOUND_CANONICALIZED>
1
> <PUBCHEM_CACTVS_COMPLEXITY>
603
> <PUBCHEM_CACTVS_HBOND_ACCEPTOR>
4
> <PUBCHEM_CACTVS_HBOND_DONOR>
1
> <PUBCHEM_CACTVS_ROTATABLE_BOND>
10
> <PUBCHEM_CACTVS_SUBSKEYS>
AAADcfB7MAAAAAAAAAAAAAAAAAAAAWAAAAA8YIAAAAAAAAABQAAAHgAACAAADSjBmAQyCIMAAgCIAiDSCAACAAAgAAAIiAGIAIgKIDKA0TGEYAAkgACYiAcQgMAOgAAAAAAAAAAAAAAAAAAAAAAAAAAAAA==
> <PUBCHEM_IUPAC_OPENEYE_NAME>
(2R)-3-methyl-2-[(3S,4S)-3-phenyl-4-[[4-(3-phenylpropyl)-1-piperidyl]methyl]pyrrolidin-1-yl]butanoic acid
> <PUBCHEM_IUPAC_CAS_NAME>
(2R)-3-methyl-2-[(3S,4S)-3-phenyl-4-[[4-(3-phenylpropyl)-1-piperidinyl]methyl]-1-pyrrolidinyl]butanoic acid
> <PUBCHEM_IUPAC_NAME_MARKUP>
(2<I>R</I>)-3-methyl-2-[(3<I>S</I>,4<I>S</I>)-3-phenyl-4-[[4-(3-phenylpropyl)piperidin-1-yl]methyl]pyrrolidin-1-yl]butanoic acid
> <PUBCHEM_IUPAC_NAME>
(2R)-3-methyl-2-[(3S,4S)-3-phenyl-4-[[4-(3-phenylpropyl)piperidin-1-yl]methyl]pyrrolidin-1-yl]butanoic acid
> <PUBCHEM_IUPAC_SYSTEMATIC_NAME>
(2R)-3-methyl-2-[(3S,4S)-3-phenyl-4-[[4-(3-phenylpropyl)piperidin-1-yl]methyl]pyrrolidin-1-yl]butanoic acid
> <PUBCHEM_IUPAC_TRADITIONAL_NAME>
(2R)-3-methyl-2-[(3S,4S)-3-phenyl-4-[[4-(3-phenylpropyl)piperidino]methyl]pyrrolidino]butyric acid
> <PUBCHEM_IUPAC_INCHI>
InChI=1S/C30H42N2O2/c1-23(2)29(30(33)34)32-21-27(28(22-32)26-14-7-4-8-15-26)20-31-18-16-25(17-19-31)13-9-12-24-10-5-3-6-11-24/h3-8,10-11,14-15,23,25,27-29H,9,12-13,16-22H2,1-2H3,(H,33,34)/t27-,28+,29+/m0/s1
> <PUBCHEM_IUPAC_INCHIKEY>
LMPPVKFSFVAECO-ZGIBFIJWSA-N
> <PUBCHEM_XLOGP3_AA>
4.5
> <PUBCHEM_EXACT_MASS>
462.324628587
> <PUBCHEM_MOLECULAR_FORMULA>
C30H42N2O2
> <PUBCHEM_MOLECULAR_WEIGHT>
462.7
> <PUBCHEM_OPENEYE_CAN_SMILES>
CC(C)C(C(=O)O)N1CC(C(C1)C2=CC=CC=C2)CN3CCC(CC3)CCCC4=CC=CC=C4
> <PUBCHEM_OPENEYE_ISO_SMILES>
CC(C)[C@H](C(=O)O)N1C[C@@H]([C@H](C1)C2=CC=CC=C2)CN3CCC(CC3)CCCC4=CC=CC=C4
> <PUBCHEM_CACTVS_TPSA>
43.8
> <PUBCHEM_MONOISOTOPIC_WEIGHT>
462.324628587
> <PUBCHEM_TOTAL_CHARGE>
0
> <PUBCHEM_HEAVY_ATOM_COUNT>
34
> <PUBCHEM_ATOM_DEF_STEREO_COUNT>
3
> <PUBCHEM_ATOM_UDEF_STEREO_COUNT>
0
> <PUBCHEM_BOND_DEF_STEREO_COUNT>
0
> <PUBCHEM_BOND_UDEF_STEREO_COUNT>
0
> <PUBCHEM_ISOTOPIC_ATOM_COUNT>
0
> <PUBCHEM_COMPONENT_COUNT>
1
> <PUBCHEM_CACTVS_TAUTO_COUNT>
-1
> <PUBCHEM_COORDINATE_TYPE>
1
5
255
> <PUBCHEM_BONDANNOTATIONS>
10  19  5
16  20  8
16  21  8
20  26  8
21  27  8
26  28  8
27  28  8
29  30  8
29  31  8
30  32  8
31  33  8
32  34  8
33  34  8
5  9  6
6  16  5
$$$$
