501012
  -OEChem-10302200282D
128138  0     1  0  0  0  0  0999 V2000
   15.9745   -1.1866    0.0000 P   0  0  3  0  0  0  0  0  0  0  0  0
   21.5456   -0.7934    0.0000 P   0  0  3  0  0  0  0  0  0  0  0  0
   11.0540    1.4556    0.0000 P   0  0  3  0  0  0  0  0  0  0  0  0
   19.0109   -2.5579    0.0000 O   0  0  0  0  0  0  0  0  0  0  0  0
   14.3858    1.4618    0.0000 O   0  0  0  0  0  0  0  0  0  0  0  0
   16.4730   -2.0535    0.0000 O   0  0  0  0  0  0  0  0  0  0  0  0
   24.8773   -0.7873    0.0000 O   0  0  0  0  0  0  0  0  0  0  0  0
   22.3556   -0.2070    0.0000 O   0  0  0  0  0  0  0  0  0  0  0  0
   17.7548   -0.2956    0.0000 O   0  0  0  0  0  0  0  0  0  0  0  0
   11.8641    2.0420    0.0000 O   0  0  0  0  0  0  0  0  0  0  0  0
   20.7355   -1.3798    0.0000 O   0  0  0  0  0  0  0  0  0  0  0  0
   15.4760   -0.3197    0.0000 O   0  0  0  0  0  0  0  0  0  0  0  0
   12.3127   -0.0868    0.0000 O   0  0  0  0  0  0  0  0  0  0  0  0
   22.8042   -2.3358    0.0000 O   0  0  0  0  0  0  0  0  0  0  0  0
   15.1076   -1.6851    0.0000 O   0  0  0  0  0  0  0  0  0  0  0  0
   25.9675   -2.5687    0.0000 O   0  0  0  0  0  0  0  0  0  0  0  0
   22.1320   -1.6034    0.0000 O   0  0  0  0  0  0  0  0  0  0  0  0
   16.8414   -0.6881    0.0000 O   0  0  0  0  0  0  0  0  0  0  0  0
   20.9592    0.0166    0.0000 O   0  0  0  0  0  0  0  0  0  0  0  0
   10.2440    0.8692    0.0000 O   0  0  0  0  0  0  0  0  0  0  0  0
   10.4676    2.2656    0.0000 O   0  0  0  0  0  0  0  0  0  0  0  0
   11.6404    0.6456    0.0000 O   0  0  0  0  0  0  0  0  0  0  0  0
    7.6083    1.0995    0.0000 O   0  0  0  0  0  0  0  0  0  0  0  0
   17.7487   -3.8158    0.0000 N   0  0  0  0  0  0  0  0  0  0  0  0
   13.7500    3.1265    0.0000 N   0  0  0  0  0  0  0  0  0  0  0  0
   24.2416    0.8775    0.0000 N   0  0  0  0  0  0  0  0  0  0  0  0
   17.7487   -5.4252    0.0000 N   0  0  0  0  0  0  0  0  0  0  0  0
   14.4098    4.5946    0.0000 N   0  0  0  0  0  0  0  0  0  0  0  0
   15.9364   -3.6205    0.0000 N   0  0  0  0  0  0  0  0  0  0  0  0
   23.9070    2.4518    0.0000 N   0  0  0  0  0  0  0  0  0  0  0  0
   12.0170    3.6912    0.0000 N   0  0  0  0  0  0  0  0  0  0  0  0
   26.0548    1.0633    0.0000 N   0  0  0  0  0  0  0  0  0  0  0  0
   15.0704   -5.1205    0.0000 N   0  0  0  0  0  0  0  0  0  0  0  0
   11.8419    5.4144    0.0000 N   0  0  0  0  0  0  0  0  0  0  0  0
   15.9364   -6.6205    0.0000 N   0  0  0  0  0  0  0  0  0  0  0  0
   26.5901    2.7106    0.0000 N   0  0  0  0  0  0  0  0  0  0  0  0
   13.2467    6.4276    0.0000 N   0  0  0  0  0  0  0  0  0  0  0  0
   25.4311    3.9977    0.0000 N   0  0  0  0  0  0  0  0  0  0  0  0
    5.8854    0.9214    0.0000 N   0  0  0  0  0  0  0  0  0  0  0  0
    4.6931    2.0025    0.0000 N   0  0  0  0  0  0  0  0  0  0  0  0
    4.8128   -0.5523    0.0000 N   0  0  0  0  0  0  0  0  0  0  0  0
    3.1198   -0.1863    0.0000 N   0  0  0  0  0  0  0  0  0  0  0  0
    2.5903    1.4628    0.0000 N   0  0  0  0  0  0  0  0  0  0  0  0
   17.4730   -2.0552    0.0000 C   0  0  2  0  0  0  0  0  0  0  0  0
   18.0621   -1.2472    0.0000 C   0  0  1  0  0  0  0  0  0  0  0  0
   19.0127   -1.5579    0.0000 C   0  0  1  0  0  0  0  0  0  0  0  0
   18.0593   -2.8652    0.0000 C   0  0  1  0  0  0  0  0  0  0  0  0
   12.7769    1.6337    0.0000 C   0  0  2  0  0  0  0  0  0  0  0  0
   12.9831    0.6552    0.0000 C   0  0  1  0  0  0  0  0  0  0  0  0
   13.9775    0.5489    0.0000 C   0  0  1  0  0  0  0  0  0  0  0  0
   13.6438    2.1322    0.0000 C   0  0  1  0  0  0  0  0  0  0  0  0
   23.2684   -0.6153    0.0000 C   0  0  2  0  0  0  0  0  0  0  0  0
   23.4747   -1.5938    0.0000 C   0  0  1  0  0  0  0  0  0  0  0  0
   24.1353   -0.1168    0.0000 C   0  0  1  0  0  0  0  0  0  0  0  0
   24.4690   -1.7001    0.0000 C   0  0  1  0  0  0  0  0  0  0  0  0
   19.8227   -0.9715    0.0000 C   0  0  0  0  0  0  0  0  0  0  0  0
   14.4760   -0.3180    0.0000 C   0  0  0  0  0  0  0  0  0  0  0  0
   24.9675   -2.5670    0.0000 C   0  0  0  0  0  0  0  0  0  0  0  0
   16.8025   -4.1205    0.0000 C   0  0  0  0  0  0  0  0  0  0  0  0
   18.3323   -4.6205    0.0000 C   0  0  0  0  0  0  0  0  0  0  0  0
   13.0119    3.7923    0.0000 C   0  0  0  0  0  0  0  0  0  0  0  0
   25.1038    1.3723    0.0000 C   0  0  0  0  0  0  0  0  0  0  0  0
   14.6122    3.6213    0.0000 C   0  0  0  0  0  0  0  0  0  0  0  0
   16.8025   -5.1205    0.0000 C   0  0  0  0  0  0  0  0  0  0  0  0
   23.5034    1.5433    0.0000 C   0  0  0  0  0  0  0  0  0  0  0  0
   13.4218    4.7045    0.0000 C   0  0  0  0  0  0  0  0  0  0  0  0
   24.8959    2.3504    0.0000 C   0  0  0  0  0  0  0  0  0  0  0  0
   15.9364   -5.6205    0.0000 C   0  0  0  0  0  0  0  0  0  0  0  0
   12.8368    5.5155    0.0000 C   0  0  0  0  0  0  0  0  0  0  0  0
   25.6390    3.0196    0.0000 C   0  0  0  0  0  0  0  0  0  0  0  0
   15.0704   -4.1205    0.0000 C   0  0  0  0  0  0  0  0  0  0  0  0
   11.4320    4.5023    0.0000 C   0  0  0  0  0  0  0  0  0  0  0  0
    9.3312    1.2776    0.0000 C   0  0  0  0  0  0  0  0  0  0  0  0
   26.7980    1.7324    0.0000 C   0  0  0  0  0  0  0  0  0  0  0  0
    8.5211    0.6912    0.0000 C   0  0  0  0  0  0  0  0  0  0  0  0
    6.7982    0.5131    0.0000 C   0  0  0  0  0  0  0  0  0  0  0  0
    5.0241    0.4251    0.0000 C   0  0  0  0  0  0  0  0  0  0  0  0
    5.6813    1.8943    0.0000 C   0  0  0  0  0  0  0  0  0  0  0  0
    4.2833    1.0968    0.0000 C   0  0  0  0  0  0  0  0  0  0  0  0
    3.3311    0.7911    0.0000 C   0  0  0  0  0  0  0  0  0  0  0  0
    3.8607   -0.8580    0.0000 C   0  0  0  0  0  0  0  0  0  0  0  0
   17.1924   -1.5023    0.0000 H   0  0  0  0  0  0  0  0  0  0  0  0
   17.4499   -1.1492    0.0000 H   0  0  0  0  0  0  0  0  0  0  0  0
   19.5646   -1.8403    0.0000 H   0  0  0  0  0  0  0  0  0  0  0  0
   17.4468   -2.9612    0.0000 H   0  0  0  0  0  0  0  0  0  0  0  0
   12.7455    2.2529    0.0000 H   0  0  0  0  0  0  0  0  0  0  0  0
   12.3845    0.8167    0.0000 H   0  0  0  0  0  0  0  0  0  0  0  0
   14.5967    0.5803    0.0000 H   0  0  0  0  0  0  0  0  0  0  0  0
   14.2230    2.3534    0.0000 H   0  0  0  0  0  0  0  0  0  0  0  0
   22.7859   -1.0047    0.0000 H   0  0  0  0  0  0  0  0  0  0  0  0
   23.6959   -2.1731    0.0000 H   0  0  0  0  0  0  0  0  0  0  0  0
   23.6159    0.2217    0.0000 H   0  0  0  0  0  0  0  0  0  0  0  0
   25.0882   -1.6687    0.0000 H   0  0  0  0  0  0  0  0  0  0  0  0
   20.1703   -0.4581    0.0000 H   0  0  0  0  0  0  0  0  0  0  0  0
   19.3775   -0.5400    0.0000 H   0  0  0  0  0  0  0  0  0  0  0  0
   13.8930   -0.5290    0.0000 H   0  0  0  0  0  0  0  0  0  0  0  0
   14.5826   -0.9287    0.0000 H   0  0  0  0  0  0  0  0  0  0  0  0
   24.3845   -2.7780    0.0000 H   0  0  0  0  0  0  0  0  0  0  0  0
   25.0741   -3.1778    0.0000 H   0  0  0  0  0  0  0  0  0  0  0  0
   18.1704    0.1644    0.0000 H   0  0  0  0  0  0  0  0  0  0  0  0
   11.7065    0.0431    0.0000 H   0  0  0  0  0  0  0  0  0  0  0  0
   18.9523   -4.6205    0.0000 H   0  0  0  0  0  0  0  0  0  0  0  0
   22.9948   -2.9258    0.0000 H   0  0  0  0  0  0  0  0  0  0  0  0
   15.1778    3.3672    0.0000 H   0  0  0  0  0  0  0  0  0  0  0  0
   22.8970    1.4144    0.0000 H   0  0  0  0  0  0  0  0  0  0  0  0
   14.5712   -1.3742    0.0000 H   0  0  0  0  0  0  0  0  0  0  0  0
   26.2766   -3.1062    0.0000 H   0  0  0  0  0  0  0  0  0  0  0  0
   21.8788   -2.1694    0.0000 H   0  0  0  0  0  0  0  0  0  0  0  0
   14.5335   -3.8105    0.0000 H   0  0  0  0  0  0  0  0  0  0  0  0
    9.8509    2.2019    0.0000 H   0  0  0  0  0  0  0  0  0  0  0  0
   10.8152    4.4396    0.0000 H   0  0  0  0  0  0  0  0  0  0  0  0
    9.6788    1.7910    0.0000 H   0  0  0  0  0  0  0  0  0  0  0  0
    8.8859    1.7090    0.0000 H   0  0  0  0  0  0  0  0  0  0  0  0
   27.3876    1.5408    0.0000 H   0  0  0  0  0  0  0  0  0  0  0  0
   15.3995   -6.9305    0.0000 H   0  0  0  0  0  0  0  0  0  0  0  0
   16.4734   -6.9305    0.0000 H   0  0  0  0  0  0  0  0  0  0  0  0
   12.8840    6.9305    0.0000 H   0  0  0  0  0  0  0  0  0  0  0  0
   13.8635    6.4903    0.0000 H   0  0  0  0  0  0  0  0  0  0  0  0
   25.8918    4.4126    0.0000 H   0  0  0  0  0  0  0  0  0  0  0  0
   24.8414    4.1893    0.0000 H   0  0  0  0  0  0  0  0  0  0  0  0
    8.1735    0.1778    0.0000 H   0  0  0  0  0  0  0  0  0  0  0  0
    8.9664    0.2597    0.0000 H   0  0  0  0  0  0  0  0  0  0  0  0
    6.4507   -0.0003    0.0000 H   0  0  0  0  0  0  0  0  0  0  0  0
    7.2435    0.0816    0.0000 H   0  0  0  0  0  0  0  0  0  0  0  0
    6.0977    2.3536    0.0000 H   0  0  0  0  0  0  0  0  0  0  0  0
    3.7297   -1.4640    0.0000 H   0  0  0  0  0  0  0  0  0  0  0  0
    2.0000    1.2732    0.0000 H   0  0  0  0  0  0  0  0  0  0  0  0
    2.7213    2.0688    0.0000 H   0  0  0  0  0  0  0  0  0  0  0  0
  1  6  1  0  0  0  0
  1 12  1  0  0  0  0
  1 15  1  0  0  0  0
  1 18  2  0  0  0  0
  2  8  1  0  0  0  0
  2 11  1  0  0  0  0
  2 17  1  0  0  0  0
  2 19  2  0  0  0  0
  3 10  1  0  0  0  0
  3 20  1  0  0  0  0
  3 21  1  0  0  0  0
  3 22  2  0  0  0  0
  4 46  1  0  0  0  0
  4 47  1  0  0  0  0
  5 50  1  0  0  0  0
  5 51  1  0  0  0  0
 44  6  1  6  0  0  0
  7 54  1  0  0  0  0
  7 55  1  0  0  0  0
 52  8  1  1  0  0  0
 45  9  1  6  0  0  0
  9100  1  0  0  0  0
 48 10  1  1  0  0  0
 11 56  1  0  0  0  0
 12 57  1  0  0  0  0
 49 13  1  1  0  0  0
 13101  1  0  0  0  0
 53 14  1  1  0  0  0
 14103  1  0  0  0  0
 15106  1  0  0  0  0
 16 58  1  0  0  0  0
 16107  1  0  0  0  0
 17108  1  0  0  0  0
 20 73  1  0  0  0  0
 21110  1  0  0  0  0
 23 75  1  0  0  0  0
 23 76  1  0  0  0  0
 47 24  1  1  0  0  0
 24 59  1  0  0  0  0
 24 60  1  0  0  0  0
 51 25  1  6  0  0  0
 25 61  1  0  0  0  0
 25 63  1  0  0  0  0
 54 26  1  6  0  0  0
 26 62  1  0  0  0  0
 26 65  1  0  0  0  0
 27 60  2  0  0  0  0
 27 64  1  0  0  0  0
 28 63  2  0  0  0  0
 28 66  1  0  0  0  0
 29 59  2  0  0  0  0
 29 71  1  0  0  0  0
 30 65  2  0  0  0  0
 30 67  1  0  0  0  0
 31 61  2  0  0  0  0
 31 72  1  0  0  0  0
 32 62  2  0  0  0  0
 32 74  1  0  0  0  0
 33 68  1  0  0  0  0
 33 71  2  0  0  0  0
 34 69  1  0  0  0  0
 34 72  2  0  0  0  0
 35 68  1  0  0  0  0
 35115  1  0  0  0  0
 35116  1  0  0  0  0
 36 70  1  0  0  0  0
 36 74  2  0  0  0  0
 37 69  1  0  0  0  0
 37117  1  0  0  0  0
 37118  1  0  0  0  0
 38 70  1  0  0  0  0
 38119  1  0  0  0  0
 38120  1  0  0  0  0
 39 76  1  0  0  0  0
 39 77  1  0  0  0  0
 39 78  1  0  0  0  0
 40 78  2  0  0  0  0
 40 79  1  0  0  0  0
 41 77  2  0  0  0  0
 41 81  1  0  0  0  0
 42 80  1  0  0  0  0
 42 81  2  0  0  0  0
 43 80  1  0  0  0  0
 43127  1  0  0  0  0
 43128  1  0  0  0  0
 44 45  1  0  0  0  0
 44 47  1  0  0  0  0
 44 82  1  0  0  0  0
 45 46  1  0  0  0  0
 45 83  1  0  0  0  0
 46 56  1  1  0  0  0
 46 84  1  0  0  0  0
 47 85  1  0  0  0  0
 48 49  1  0  0  0  0
 48 51  1  0  0  0  0
 48 86  1  0  0  0  0
 49 50  1  0  0  0  0
 49 87  1  0  0  0  0
 50 57  1  6  0  0  0
 50 88  1  0  0  0  0
 51 89  1  0  0  0  0
 52 53  1  0  0  0  0
 52 54  1  0  0  0  0
 52 90  1  0  0  0  0
 53 55  1  0  0  0  0
 53 91  1  0  0  0  0
 54 92  1  0  0  0  0
 55 58  1  6  0  0  0
 55 93  1  0  0  0  0
 56 94  1  0  0  0  0
 56 95  1  0  0  0  0
 57 96  1  0  0  0  0
 57 97  1  0  0  0  0
 58 98  1  0  0  0  0
 58 99  1  0  0  0  0
 59 64  1  0  0  0  0
 60102  1  0  0  0  0
 61 66  1  0  0  0  0
 62 67  1  0  0  0  0
 63104  1  0  0  0  0
 64 68  2  0  0  0  0
 65105  1  0  0  0  0
 66 69  2  0  0  0  0
 67 70  2  0  0  0  0
 71109  1  0  0  0  0
 72111  1  0  0  0  0
 73 75  1  0  0  0  0
 73112  1  0  0  0  0
 73113  1  0  0  0  0
 74114  1  0  0  0  0
 75121  1  0  0  0  0
 75122  1  0  0  0  0
 76123  1  0  0  0  0
 76124  1  0  0  0  0
 77 79  1  0  0  0  0
 78125  1  0  0  0  0
 79 80  2  0  0  0  0
 81126  1  0  0  0  0
M  END
> <PUBCHEM_COMPOUND_CID>
501012
> <PUBCHEM_COMPOUND_CANONICALIZED>
1
> <PUBCHEM_CACTVS_COMPLEXITY>
2290
> <PUBCHEM_CACTVS_HBOND_ACCEPTOR>
36
> <PUBCHEM_CACTVS_HBOND_DONOR>
11
> <PUBCHEM_CACTVS_ROTATABLE_BOND>
22
> <PUBCHEM_CACTVS_SUBSKEYS>
AAADcfB//gMAAAAAAAAAAAAAAAAAAWLFixIsWLFgAAAAAFgB/gAAHgAQCCAACBzhlwYF8L9MFxCgQQZhZICAgC0REKABUCAoVBCDWAJAyEAeRAgPAALTACDwMAIAAAAAAAAAAAAAAAAAAAAAAAAAAAAAAA==
> <PUBCHEM_IUPAC_OPENEYE_NAME>
[(2R,3R,4R,5R)-2-(6-aminopurin-9-yl)-5-[[[(2R,3R,4R,5R)-2-(6-aminopurin-9-yl)-5-[[[(2R,3R,4R,5R)-2-(6-aminopurin-9-yl)-4-hydroxy-5-(hydroxymethyl)tetrahydrofuran-3-yl]oxy-hydroxy-phosphoryl]oxymethyl]-4-hydroxy-tetrahydrofuran-3-yl]oxy-hydroxy-phosphoryl]oxymethyl]-4-hydroxy-tetrahydrofuran-3-yl] 2-[(6-aminopurin-9-yl)methoxy]ethyl hydrogen phosphate
> <PUBCHEM_IUPAC_CAS_NAME>
[(2R,3R,4R,5R)-2-(6-aminopurin-9-yl)-5-[[[(2R,3R,4R,5R)-2-(6-aminopurin-9-yl)-5-[[[(2R,3R,4R,5R)-2-(6-aminopurin-9-yl)-4-hydroxy-5-(hydroxymethyl)-3-oxolanyl]oxy-hydroxyphosphoryl]oxymethyl]-4-hydroxy-3-oxolanyl]oxy-hydroxyphosphoryl]oxymethyl]-4-hydroxy-3-oxolanyl] 2-[(6-aminopurin-9-yl)methoxy]ethyl hydrogen phosphate
> <PUBCHEM_IUPAC_NAME_MARKUP>
[(2<I>R</I>,3<I>R</I>,4<I>R</I>,5<I>R</I>)-2-(6-aminopurin-9-yl)-5-[[[(2<I>R</I>,3<I>R</I>,4<I>R</I>,5<I>R</I>)-2-(6-aminopurin-9-yl)-5-[[[(2<I>R</I>,3<I>R</I>,4<I>R</I>,5<I>R</I>)-2-(6-aminopurin-9-yl)-4-hydroxy-5-(hydroxymethyl)oxolan-3-yl]oxy-hydroxyphosphoryl]oxymethyl]-4-hydroxyoxolan-3-yl]oxy-hydroxyphosphoryl]oxymethyl]-4-hydroxyoxolan-3-yl] 2-[(6-aminopurin-9-yl)methoxy]ethyl hydrogen phosphate
> <PUBCHEM_IUPAC_NAME>
[(2R,3R,4R,5R)-2-(6-aminopurin-9-yl)-5-[[[(2R,3R,4R,5R)-2-(6-aminopurin-9-yl)-5-[[[(2R,3R,4R,5R)-2-(6-aminopurin-9-yl)-4-hydroxy-5-(hydroxymethyl)oxolan-3-yl]oxy-hydroxyphosphoryl]oxymethyl]-4-hydroxyoxolan-3-yl]oxy-hydroxyphosphoryl]oxymethyl]-4-hydroxyoxolan-3-yl] 2-[(6-aminopurin-9-yl)methoxy]ethyl hydrogen phosphate
> <PUBCHEM_IUPAC_SYSTEMATIC_NAME>
[(2R,3R,4R,5R)-2-(6-aminopurin-9-yl)-5-[[[(2R,3R,4R,5R)-2-(6-aminopurin-9-yl)-5-[[[(2R,3R,4R,5R)-2-(6-aminopurin-9-yl)-5-(hydroxymethyl)-4-oxidanyl-oxolan-3-yl]oxy-oxidanyl-phosphoryl]oxymethyl]-4-oxidanyl-oxolan-3-yl]oxy-oxidanyl-phosphoryl]oxymethyl]-4-oxidanyl-oxolan-3-yl] 2-[(6-aminopurin-9-yl)methoxy]ethyl hydrogen phosphate
> <PUBCHEM_IUPAC_TRADITIONAL_NAME>
[(2R,3R,4R,5R)-2-adenin-9-yl-5-[[[(2R,3R,4R,5R)-2-adenin-9-yl-5-[[[(2R,3R,4R,5R)-2-adenin-9-yl-4-hydroxy-5-methylol-tetrahydrofuran-3-yl]oxy-hydroxy-phosphoryl]oxymethyl]-4-hydroxy-tetrahydrofuran-3-yl]oxy-hydroxy-phosphoryl]oxymethyl]-4-hydroxy-tetrahydrofuran-3-yl] 2-(adenin-9-ylmethoxy)ethyl hydrogen phosphate
> <PUBCHEM_IUPAC_INCHI>
InChI=1S/C38H47N20O20P3/c39-28-18-32(47-6-43-28)55(10-51-18)14-69-1-2-70-79(63,64)76-26-23(61)16(74-37(26)57-12-53-20-30(41)45-8-49-34(20)57)4-72-81(67,68)78-27-24(62)17(75-38(27)58-13-54-21-31(42)46-9-50-35(21)58)5-71-80(65,66)77-25-22(60)15(3-59)73-36(25)56-11-52-19-29(40)44-7-48-33(19)56/h6-13,15-17,22-27,36-38,59-62H,1-5,14H2,(H,63,64)(H,65,66)(H,67,68)(H2,39,43,47)(H2,40,44,48)(H2,41,45,49)(H2,42,46,50)/t15-,16-,17-,22-,23-,24-,25-,26-,27-,36-,37-,38-/m1/s1
> <PUBCHEM_IUPAC_INCHIKEY>
RLWPPWVLRQDKTL-AEJOKPDCSA-N
> <PUBCHEM_XLOGP3_AA>
-8.2
> <PUBCHEM_EXACT_MASS>
1196.24883496
> <PUBCHEM_MOLECULAR_FORMULA>
C38H47N20O20P3
> <PUBCHEM_MOLECULAR_WEIGHT>
1196.8
> <PUBCHEM_OPENEYE_CAN_SMILES>
C1=NC(=C2C(=N1)N(C=N2)COCCOP(=O)(O)OC3C(C(OC3N4C=NC5=C(N=CN=C54)N)COP(=O)(O)OC6C(C(OC6N7C=NC8=C(N=CN=C87)N)COP(=O)(O)OC9C(C(OC9N1C=NC2=C(N=CN=C21)N)CO)O)O)O)N
> <PUBCHEM_OPENEYE_ISO_SMILES>
C1=NC(=C2C(=N1)N(C=N2)COCCOP(=O)(O)O[C@@H]3[C@@H]([C@H](O[C@H]3N4C=NC5=C(N=CN=C54)N)COP(=O)(O)O[C@@H]6[C@@H]([C@H](O[C@H]6N7C=NC8=C(N=CN=C87)N)COP(=O)(O)O[C@@H]9[C@@H]([C@H](O[C@H]9N1C=NC2=C(N=CN=C21)N)CO)O)O)O)N
> <PUBCHEM_CACTVS_TPSA>
564
> <PUBCHEM_MONOISOTOPIC_WEIGHT>
1196.24883496
> <PUBCHEM_TOTAL_CHARGE>
0
> <PUBCHEM_HEAVY_ATOM_COUNT>
81
> <PUBCHEM_ATOM_DEF_STEREO_COUNT>
12
> <PUBCHEM_ATOM_UDEF_STEREO_COUNT>
0
> <PUBCHEM_BOND_DEF_STEREO_COUNT>
0
> <PUBCHEM_BOND_UDEF_STEREO_COUNT>
0
> <PUBCHEM_ISOTOPIC_ATOM_COUNT>
0
> <PUBCHEM_COMPONENT_COUNT>
1
> <PUBCHEM_CACTVS_TAUTO_COUNT>
-1
> <PUBCHEM_COORDINATE_TYPE>
1
5
255
> <PUBCHEM_BONDANNOTATIONS>
48  10  5
49  13  5
53  14  5
47  24  5
24  59  8
24  60  8
51  25  6
25  61  8
25  63  8
54  26  6
26  62  8
26  65  8
27  60  8
27  64  8
28  63  8
28  66  8
29  59  8
29  71  8
30  65  8
30  67  8
31  61  8
31  72  8
32  62  8
32  74  8
33  68  8
33  71  8
34  69  8
34  72  8
36  70  8
36  74  8
39  77  8
39  78  8
40  78  8
40  79  8
41  77  8
41  81  8
42  80  8
42  81  8
46  56  5
50  57  6
55  58  6
59  64  8
44  6  6
61  66  8
62  67  8
64  68  8
66  69  8
67  70  8
77  79  8
79  80  8
52  8  5
45  9  6
$$$$
