501164
  -OEChem-10302200282D
 28 29  0     1  0  0  0  0  0999 V2000
    6.3301   -0.5000    0.0000 S   0  0  3  0  0  0  0  0  0  0  0  0
    2.0000   -2.0000    0.0000 F   0  0  0  0  0  0  0  0  0  0  0  0
    6.3301   -1.5000    0.0000 O   0  0  0  0  0  0  0  0  0  0  0  0
    8.0622   -1.5000    0.0000 O   0  5  0  0  0  0  0  0  0  0  0  0
    8.0622   -0.5000    0.0000 N   0  3  0  0  0  0  0  0  0  0  0  0
    5.4641    2.0000    0.0000 N   0  0  0  0  0  0  0  0  0  0  0  0
    5.4641    0.0000    0.0000 C   0  0  3  0  0  0  0  0  0  0  0  0
    4.5981   -0.5000    0.0000 C   0  0  0  0  0  0  0  0  0  0  0  0
    7.1962    0.0000    0.0000 C   0  0  0  0  0  0  0  0  0  0  0  0
    3.7320   -0.0000    0.0000 C   0  0  0  0  0  0  0  0  0  0  0  0
    4.5981   -1.5000    0.0000 C   0  0  0  0  0  0  0  0  0  0  0  0
    7.1962    1.0000    0.0000 C   0  0  0  0  0  0  0  0  0  0  0  0
    2.8660   -0.5000    0.0000 C   0  0  0  0  0  0  0  0  0  0  0  0
    3.7320   -2.0000    0.0000 C   0  0  0  0  0  0  0  0  0  0  0  0
    2.8660   -1.5000    0.0000 C   0  0  0  0  0  0  0  0  0  0  0  0
    8.9282    0.0000    0.0000 C   0  0  0  0  0  0  0  0  0  0  0  0
    8.0622    1.5000    0.0000 C   0  0  0  0  0  0  0  0  0  0  0  0
    5.4641    1.0000    0.0000 C   0  0  0  0  0  0  0  0  0  0  0  0
    8.9282    1.0000    0.0000 C   0  0  0  0  0  0  0  0  0  0  0  0
    6.0010    0.3100    0.0000 H   0  0  0  0  0  0  0  0  0  0  0  0
    3.7320    0.6200    0.0000 H   0  0  0  0  0  0  0  0  0  0  0  0
    5.1350   -1.8100    0.0000 H   0  0  0  0  0  0  0  0  0  0  0  0
    6.6592    1.3100    0.0000 H   0  0  0  0  0  0  0  0  0  0  0  0
    2.3291   -0.1900    0.0000 H   0  0  0  0  0  0  0  0  0  0  0  0
    3.7320   -2.6200    0.0000 H   0  0  0  0  0  0  0  0  0  0  0  0
    9.4651   -0.3100    0.0000 H   0  0  0  0  0  0  0  0  0  0  0  0
    8.0622    2.1200    0.0000 H   0  0  0  0  0  0  0  0  0  0  0  0
    9.4651    1.3100    0.0000 H   0  0  0  0  0  0  0  0  0  0  0  0
  1  3  2  0  0  0  0
  1  7  1  0  0  0  0
  1  9  1  0  0  0  0
  2 15  1  0  0  0  0
  4  5  1  0  0  0  0
  5  9  1  0  0  0  0
  5 16  2  0  0  0  0
  6 18  3  0  0  0  0
  7  8  1  0  0  0  0
  7 18  1  0  0  0  0
  7 20  1  0  0  0  0
  8 10  2  0  0  0  0
  8 11  1  0  0  0  0
  9 12  2  0  0  0  0
 10 13  1  0  0  0  0
 10 21  1  0  0  0  0
 11 14  2  0  0  0  0
 11 22  1  0  0  0  0
 12 17  1  0  0  0  0
 12 23  1  0  0  0  0
 13 15  2  0  0  0  0
 13 24  1  0  0  0  0
 14 15  1  0  0  0  0
 14 25  1  0  0  0  0
 16 19  1  0  0  0  0
 16 26  1  0  0  0  0
 17 19  2  0  0  0  0
 17 27  1  0  0  0  0
 19 28  1  0  0  0  0
M  CHG  2   4  -1   5   1
M  END
> <PUBCHEM_COMPOUND_CID>
501164
> <PUBCHEM_COMPOUND_CANONICALIZED>
1
> <PUBCHEM_CACTVS_COMPLEXITY>
376
> <PUBCHEM_CACTVS_HBOND_ACCEPTOR>
5
> <PUBCHEM_CACTVS_HBOND_DONOR>
0
> <PUBCHEM_CACTVS_ROTATABLE_BOND>
3
> <PUBCHEM_CACTVS_SUBSKEYS>
AAADccBzMQBAAAAAAAAAAAAAAAAAAAAAAAA8QAAAAAAAAAABwAAAHQQEAAAADADFWgy8gZIYEAqwBjBnREDK0CBxCjAo2Dg4ZJoIoOLgkZGEIAhggADoyA8QgIAOAAAAAAAAAAAAAAAAAAAAAAAAAAAAAA==
> <PUBCHEM_IUPAC_OPENEYE_NAME>
2-(4-fluorophenyl)-2-(1-oxidopyridin-1-ium-2-yl)sulfinyl-acetonitrile
> <PUBCHEM_IUPAC_CAS_NAME>
2-(4-fluorophenyl)-2-[(1-oxido-2-pyridin-1-iumyl)sulfinyl]acetonitrile
> <PUBCHEM_IUPAC_NAME_MARKUP>
2-(4-fluorophenyl)-2-(1-oxidopyridin-1-ium-2-yl)sulfinylacetonitrile
> <PUBCHEM_IUPAC_NAME>
2-(4-fluorophenyl)-2-(1-oxidopyridin-1-ium-2-yl)sulfinylacetonitrile
> <PUBCHEM_IUPAC_SYSTEMATIC_NAME>
2-(4-fluorophenyl)-2-(1-oxidanidylpyridin-1-ium-2-yl)sulfinyl-ethanenitrile
> <PUBCHEM_IUPAC_TRADITIONAL_NAME>
2-(4-fluorophenyl)-2-(1-oxidopyridin-1-ium-2-yl)sulfinyl-acetonitrile
> <PUBCHEM_IUPAC_INCHI>
InChI=1S/C13H9FN2O2S/c14-11-6-4-10(5-7-11)12(9-15)19(18)13-3-1-2-8-16(13)17/h1-8,12H
> <PUBCHEM_IUPAC_INCHIKEY>
HFNYGTZCONSXPW-UHFFFAOYSA-N
> <PUBCHEM_XLOGP3_AA>
1
> <PUBCHEM_EXACT_MASS>
276.03687687
> <PUBCHEM_MOLECULAR_FORMULA>
C13H9FN2O2S
> <PUBCHEM_MOLECULAR_WEIGHT>
276.29
> <PUBCHEM_OPENEYE_CAN_SMILES>
C1=CC=[N+](C(=C1)S(=O)C(C#N)C2=CC=C(C=C2)F)[O-]
> <PUBCHEM_OPENEYE_ISO_SMILES>
C1=CC=[N+](C(=C1)S(=O)C(C#N)C2=CC=C(C=C2)F)[O-]
> <PUBCHEM_CACTVS_TPSA>
85.5
> <PUBCHEM_MONOISOTOPIC_WEIGHT>
276.03687687
> <PUBCHEM_TOTAL_CHARGE>
0
> <PUBCHEM_HEAVY_ATOM_COUNT>
19
> <PUBCHEM_ATOM_DEF_STEREO_COUNT>
0
> <PUBCHEM_ATOM_UDEF_STEREO_COUNT>
2
> <PUBCHEM_BOND_DEF_STEREO_COUNT>
0
> <PUBCHEM_BOND_UDEF_STEREO_COUNT>
0
> <PUBCHEM_ISOTOPIC_ATOM_COUNT>
0
> <PUBCHEM_COMPONENT_COUNT>
1
> <PUBCHEM_CACTVS_TAUTO_COUNT>
-1
> <PUBCHEM_COORDINATE_TYPE>
1
5
255
> <PUBCHEM_BONDANNOTATIONS>
1  9  3
10  13  8
11  14  8
12  17  8
13  15  8
14  15  8
16  19  8
17  19  8
5  16  8
5  9  8
7  18  3
8  10  8
8  11  8
9  12  8
$$$$
