501143
  -OEChem-10302200282D
 36 37  0     1  0  0  0  0  0999 V2000
    4.5981    1.0600    0.0000 S   0  0  0  0  0  0  0  0  0  0  0  0
    4.0981    1.9260    0.0000 O   0  0  0  0  0  0  0  0  0  0  0  0
    5.0981    0.1940    0.0000 O   0  0  0  0  0  0  0  0  0  0  0  0
    4.5981    3.0600    0.0000 O   0  5  0  0  0  0  0  0  0  0  0  0
    5.4641    2.5600    0.0000 N   0  3  0  0  0  0  0  0  0  0  0  0
    5.4641   -2.4400    0.0000 N   0  0  0  0  0  0  0  0  0  0  0  0
    3.7320    0.5600    0.0000 C   0  0  3  0  0  0  0  0  0  0  0  0
    3.7320   -0.4400    0.0000 C   0  0  0  0  0  0  0  0  0  0  0  0
    2.8660    1.0600    0.0000 C   0  0  0  0  0  0  0  0  0  0  0  0
    2.8660   -0.9400    0.0000 C   0  0  0  0  0  0  0  0  0  0  0  0
    5.4641    1.5600    0.0000 C   0  0  0  0  0  0  0  0  0  0  0  0
    4.5981   -0.9400    0.0000 C   0  0  0  0  0  0  0  0  0  0  0  0
    2.8660   -1.9400    0.0000 C   0  0  0  0  0  0  0  0  0  0  0  0
    4.5981   -1.9400    0.0000 C   0  0  0  0  0  0  0  0  0  0  0  0
    2.0000   -0.4400    0.0000 C   0  0  0  0  0  0  0  0  0  0  0  0
    6.3301    1.0600    0.0000 C   0  0  0  0  0  0  0  0  0  0  0  0
    3.7320   -2.4400    0.0000 C   0  0  0  0  0  0  0  0  0  0  0  0
    6.3301    3.0600    0.0000 C   0  0  0  0  0  0  0  0  0  0  0  0
    7.1962    1.5600    0.0000 C   0  0  0  0  0  0  0  0  0  0  0  0
    7.1962    2.5600    0.0000 C   0  0  0  0  0  0  0  0  0  0  0  0
    3.7320    1.1800    0.0000 H   0  0  0  0  0  0  0  0  0  0  0  0
    3.1760    1.5969    0.0000 H   0  0  0  0  0  0  0  0  0  0  0  0
    2.3291    1.3700    0.0000 H   0  0  0  0  0  0  0  0  0  0  0  0
    2.5560    0.5231    0.0000 H   0  0  0  0  0  0  0  0  0  0  0  0
    5.1350   -0.6300    0.0000 H   0  0  0  0  0  0  0  0  0  0  0  0
    2.3291   -2.2500    0.0000 H   0  0  0  0  0  0  0  0  0  0  0  0
    2.3100    0.0969    0.0000 H   0  0  0  0  0  0  0  0  0  0  0  0
    1.4631   -0.1300    0.0000 H   0  0  0  0  0  0  0  0  0  0  0  0
    1.6900   -0.9769    0.0000 H   0  0  0  0  0  0  0  0  0  0  0  0
    6.3301    0.4400    0.0000 H   0  0  0  0  0  0  0  0  0  0  0  0
    3.7320   -3.0600    0.0000 H   0  0  0  0  0  0  0  0  0  0  0  0
    6.3301    3.6800    0.0000 H   0  0  0  0  0  0  0  0  0  0  0  0
    7.7331    1.2500    0.0000 H   0  0  0  0  0  0  0  0  0  0  0  0
    7.7331    2.8700    0.0000 H   0  0  0  0  0  0  0  0  0  0  0  0
    5.4641   -3.0600    0.0000 H   0  0  0  0  0  0  0  0  0  0  0  0
    6.0010   -2.1300    0.0000 H   0  0  0  0  0  0  0  0  0  0  0  0
  1  2  2  0  0  0  0
  1  3  2  0  0  0  0
  1  7  1  0  0  0  0
  1 11  1  0  0  0  0
  4  5  1  0  0  0  0
  5 11  1  0  0  0  0
  5 18  2  0  0  0  0
  6 14  1  0  0  0  0
  6 35  1  0  0  0  0
  6 36  1  0  0  0  0
  7  8  1  0  0  0  0
  7  9  1  0  0  0  0
  7 21  1  0  0  0  0
  8 10  2  0  0  0  0
  8 12  1  0  0  0  0
  9 22  1  0  0  0  0
  9 23  1  0  0  0  0
  9 24  1  0  0  0  0
 10 13  1  0  0  0  0
 10 15  1  0  0  0  0
 11 16  2  0  0  0  0
 12 14  2  0  0  0  0
 12 25  1  0  0  0  0
 13 17  2  0  0  0  0
 13 26  1  0  0  0  0
 14 17  1  0  0  0  0
 15 27  1  0  0  0  0
 15 28  1  0  0  0  0
 15 29  1  0  0  0  0
 16 19  1  0  0  0  0
 16 30  1  0  0  0  0
 17 31  1  0  0  0  0
 18 20  1  0  0  0  0
 18 32  1  0  0  0  0
 19 20  2  0  0  0  0
 19 33  1  0  0  0  0
 20 34  1  0  0  0  0
M  CHG  2   4  -1   5   1
M  END
> <PUBCHEM_COMPOUND_CID>
501143
> <PUBCHEM_COMPOUND_CANONICALIZED>
1
> <PUBCHEM_CACTVS_COMPLEXITY>
421
> <PUBCHEM_CACTVS_HBOND_ACCEPTOR>
4
> <PUBCHEM_CACTVS_HBOND_DONOR>
1
> <PUBCHEM_CACTVS_ROTATABLE_BOND>
3
> <PUBCHEM_CACTVS_SUBSKEYS>
AAADceBzMABAAAAAAAAAAAAAAAAAAAAAAAA8QAAAAAAAAAABwAAAHAQUAAAADAjFWgS+wZJYEAqgAjRnRHDK0CBxCjAo2Dg4ZJoIIOLgkZGEIAhgkADoyAcQgIAOiAAAQAAQAAAQAACAACAAAAAAAAAAAA==
> <PUBCHEM_IUPAC_OPENEYE_NAME>
4-methyl-3-[1-(1-oxidopyridin-1-ium-2-yl)sulfonylethyl]aniline
> <PUBCHEM_IUPAC_CAS_NAME>
4-methyl-3-[1-[(1-oxido-2-pyridin-1-iumyl)sulfonyl]ethyl]aniline
> <PUBCHEM_IUPAC_NAME_MARKUP>
4-methyl-3-[1-(1-oxidopyridin-1-ium-2-yl)sulfonylethyl]aniline
> <PUBCHEM_IUPAC_NAME>
4-methyl-3-[1-(1-oxidopyridin-1-ium-2-yl)sulfonylethyl]aniline
> <PUBCHEM_IUPAC_SYSTEMATIC_NAME>
4-methyl-3-[1-(1-oxidanidylpyridin-1-ium-2-yl)sulfonylethyl]aniline
> <PUBCHEM_IUPAC_TRADITIONAL_NAME>
[4-methyl-3-[1-(1-oxidopyridin-1-ium-2-yl)sulfonylethyl]phenyl]amine
> <PUBCHEM_IUPAC_INCHI>
InChI=1S/C14H16N2O3S/c1-10-6-7-12(15)9-13(10)11(2)20(18,19)14-5-3-4-8-16(14)17/h3-9,11H,15H2,1-2H3
> <PUBCHEM_IUPAC_INCHIKEY>
BIIDPHYTZDPMPI-UHFFFAOYSA-N
> <PUBCHEM_XLOGP3_AA>
1
> <PUBCHEM_EXACT_MASS>
292.08816355
> <PUBCHEM_MOLECULAR_FORMULA>
C14H16N2O3S
> <PUBCHEM_MOLECULAR_WEIGHT>
292.36
> <PUBCHEM_OPENEYE_CAN_SMILES>
CC1=C(C=C(C=C1)N)C(C)S(=O)(=O)C2=CC=CC=[N+]2[O-]
> <PUBCHEM_OPENEYE_ISO_SMILES>
CC1=C(C=C(C=C1)N)C(C)S(=O)(=O)C2=CC=CC=[N+]2[O-]
> <PUBCHEM_CACTVS_TPSA>
94
> <PUBCHEM_MONOISOTOPIC_WEIGHT>
292.08816355
> <PUBCHEM_TOTAL_CHARGE>
0
> <PUBCHEM_HEAVY_ATOM_COUNT>
20
> <PUBCHEM_ATOM_DEF_STEREO_COUNT>
0
> <PUBCHEM_ATOM_UDEF_STEREO_COUNT>
1
> <PUBCHEM_BOND_DEF_STEREO_COUNT>
0
> <PUBCHEM_BOND_UDEF_STEREO_COUNT>
0
> <PUBCHEM_ISOTOPIC_ATOM_COUNT>
0
> <PUBCHEM_COMPONENT_COUNT>
1
> <PUBCHEM_CACTVS_TAUTO_COUNT>
-1
> <PUBCHEM_COORDINATE_TYPE>
1
5
255
> <PUBCHEM_BONDANNOTATIONS>
10  13  8
11  16  8
12  14  8
13  17  8
14  17  8
16  19  8
18  20  8
19  20  8
5  11  8
5  18  8
7  9  3
8  10  8
8  12  8
$$$$
