501254
  -OEChem-10302200282D
 40 41  0     1  0  0  0  0  0999 V2000
    2.5369    0.5000    0.0000 O   0  0  0  0  0  0  0  0  0  0  0  0
    8.5991    2.0000    0.0000 O   0  0  0  0  0  0  0  0  0  0  0  0
    6.8671   -1.0000    0.0000 O   0  0  0  0  0  0  0  0  0  0  0  0
    7.7331    0.5000    0.0000 N   0  0  0  0  0  0  0  0  0  0  0  0
    8.5991   -1.0000    0.0000 N   0  0  0  0  0  0  0  0  0  0  0  0
   10.4114    0.8047    0.0000 N   0  0  0  0  0  0  0  0  0  0  0  0
   10.4114   -0.8047    0.0000 N   0  0  0  0  0  0  0  0  0  0  0  0
    6.0010    0.5000    0.0000 C   0  0  0  0  0  0  0  0  0  0  0  0
    6.8671    1.0000    0.0000 C   0  0  0  0  0  0  0  0  0  0  0  0
    5.1350    1.0000    0.0000 C   0  0  0  0  0  0  0  0  0  0  0  0
    4.2690    0.5000    0.0000 C   0  0  0  0  0  0  0  0  0  0  0  0
    9.4651    0.5000    0.0000 C   0  0  0  0  0  0  0  0  0  0  0  0
    8.5991    1.0000    0.0000 C   0  0  0  0  0  0  0  0  0  0  0  0
    3.4030    1.0000    0.0000 C   0  0  1  0  0  0  0  0  0  0  0  0
    9.4651   -0.5000    0.0000 C   0  0  0  0  0  0  0  0  0  0  0  0
    7.7331   -0.5000    0.0000 C   0  0  0  0  0  0  0  0  0  0  0  0
    3.4030    2.0000    0.0000 C   0  0  0  0  0  0  0  0  0  0  0  0
   10.9950    0.0000    0.0000 C   0  0  0  0  0  0  0  0  0  0  0  0
    8.5991   -2.0000    0.0000 C   0  0  0  0  0  0  0  0  0  0  0  0
   10.7220    1.7552    0.0000 C   0  0  0  0  0  0  0  0  0  0  0  0
    5.6025    0.0251    0.0000 H   0  0  0  0  0  0  0  0  0  0  0  0
    6.3996    0.0251    0.0000 H   0  0  0  0  0  0  0  0  0  0  0  0
    7.2656    1.4750    0.0000 H   0  0  0  0  0  0  0  0  0  0  0  0
    6.4685    1.4750    0.0000 H   0  0  0  0  0  0  0  0  0  0  0  0
    5.5335    1.4750    0.0000 H   0  0  0  0  0  0  0  0  0  0  0  0
    4.7365    1.4750    0.0000 H   0  0  0  0  0  0  0  0  0  0  0  0
    3.8705    0.0251    0.0000 H   0  0  0  0  0  0  0  0  0  0  0  0
    4.6675    0.0251    0.0000 H   0  0  0  0  0  0  0  0  0  0  0  0
    3.4030    0.3800    0.0000 H   0  0  0  0  0  0  0  0  0  0  0  0
    4.0230    2.0000    0.0000 H   0  0  0  0  0  0  0  0  0  0  0  0
    3.4030    2.6200    0.0000 H   0  0  0  0  0  0  0  0  0  0  0  0
    2.7830    2.0000    0.0000 H   0  0  0  0  0  0  0  0  0  0  0  0
   11.6150   -0.0000    0.0000 H   0  0  0  0  0  0  0  0  0  0  0  0
    7.9791   -2.0000    0.0000 H   0  0  0  0  0  0  0  0  0  0  0  0
    8.5991   -2.6200    0.0000 H   0  0  0  0  0  0  0  0  0  0  0  0
    9.2191   -2.0000    0.0000 H   0  0  0  0  0  0  0  0  0  0  0  0
   11.3113    1.5626    0.0000 H   0  0  0  0  0  0  0  0  0  0  0  0
   10.9146    2.3446    0.0000 H   0  0  0  0  0  0  0  0  0  0  0  0
   10.1327    1.9479    0.0000 H   0  0  0  0  0  0  0  0  0  0  0  0
    2.0000    0.8100    0.0000 H   0  0  0  0  0  0  0  0  0  0  0  0
 14  1  1  6  0  0  0
  1 40  1  0  0  0  0
  2 13  2  0  0  0  0
  3 16  2  0  0  0  0
  4  9  1  0  0  0  0
  4 13  1  0  0  0  0
  4 16  1  0  0  0  0
  5 15  1  0  0  0  0
  5 16  1  0  0  0  0
  5 19  1  0  0  0  0
  6 12  1  0  0  0  0
  6 18  1  0  0  0  0
  6 20  1  0  0  0  0
  7 15  1  0  0  0  0
  7 18  2  0  0  0  0
  8  9  1  0  0  0  0
  8 10  1  0  0  0  0
  8 21  1  0  0  0  0
  8 22  1  0  0  0  0
  9 23  1  0  0  0  0
  9 24  1  0  0  0  0
 10 11  1  0  0  0  0
 10 25  1  0  0  0  0
 10 26  1  0  0  0  0
 11 14  1  0  0  0  0
 11 27  1  0  0  0  0
 11 28  1  0  0  0  0
 12 13  1  0  0  0  0
 12 15  2  0  0  0  0
 14 17  1  0  0  0  0
 14 29  1  0  0  0  0
 17 30  1  0  0  0  0
 17 31  1  0  0  0  0
 17 32  1  0  0  0  0
 18 33  1  0  0  0  0
 19 34  1  0  0  0  0
 19 35  1  0  0  0  0
 19 36  1  0  0  0  0
 20 37  1  0  0  0  0
 20 38  1  0  0  0  0
 20 39  1  0  0  0  0
M  END
> <PUBCHEM_COMPOUND_CID>
501254
> <PUBCHEM_COMPOUND_CANONICALIZED>
1
> <PUBCHEM_CACTVS_COMPLEXITY>
390
> <PUBCHEM_CACTVS_HBOND_ACCEPTOR>
4
> <PUBCHEM_CACTVS_HBOND_DONOR>
1
> <PUBCHEM_CACTVS_ROTATABLE_BOND>
5
> <PUBCHEM_CACTVS_SUBSKEYS>
AAADceBzsAAAAAAAAAAAAAAAAAAAAWAAAAAsAAAAAAAAAFgBgAAAHgAACAAACBzhlgYHsBcMEgCoAQdxdACAgC0XEKABUAGoVECAWApAyCAUQIgMByLAAGGQEAIAAAAAAAAAAAAAAAAAAAAAAAAAAAAAAA==
> <PUBCHEM_IUPAC_OPENEYE_NAME>
1-[(5R)-5-hydroxyhexyl]-3,7-dimethyl-purine-2,6-dione
> <PUBCHEM_IUPAC_CAS_NAME>
1-[(5R)-5-hydroxyhexyl]-3,7-dimethylpurine-2,6-dione
> <PUBCHEM_IUPAC_NAME_MARKUP>
1-[(5<I>R</I>)-5-hydroxyhexyl]-3,7-dimethylpurine-2,6-dione
> <PUBCHEM_IUPAC_NAME>
1-[(5R)-5-hydroxyhexyl]-3,7-dimethylpurine-2,6-dione
> <PUBCHEM_IUPAC_SYSTEMATIC_NAME>
3,7-dimethyl-1-[(5R)-5-oxidanylhexyl]purine-2,6-dione
> <PUBCHEM_IUPAC_TRADITIONAL_NAME>
1-[(5R)-5-hydroxyhexyl]-3,7-dimethyl-xanthine
> <PUBCHEM_IUPAC_INCHI>
InChI=1S/C13H20N4O3/c1-9(18)6-4-5-7-17-12(19)10-11(14-8-15(10)2)16(3)13(17)20/h8-9,18H,4-7H2,1-3H3/t9-/m1/s1
> <PUBCHEM_IUPAC_INCHIKEY>
NSMXQKNUPPXBRG-SECBINFHSA-N
> <PUBCHEM_XLOGP3>
0.7
> <PUBCHEM_EXACT_MASS>
280.15354051
> <PUBCHEM_MOLECULAR_FORMULA>
C13H20N4O3
> <PUBCHEM_MOLECULAR_WEIGHT>
280.32
> <PUBCHEM_OPENEYE_CAN_SMILES>
CC(CCCCN1C(=O)C2=C(N=CN2C)N(C1=O)C)O
> <PUBCHEM_OPENEYE_ISO_SMILES>
C[C@H](CCCCN1C(=O)C2=C(N=CN2C)N(C1=O)C)O
> <PUBCHEM_CACTVS_TPSA>
78.7
> <PUBCHEM_MONOISOTOPIC_WEIGHT>
280.15354051
> <PUBCHEM_TOTAL_CHARGE>
0
> <PUBCHEM_HEAVY_ATOM_COUNT>
20
> <PUBCHEM_ATOM_DEF_STEREO_COUNT>
1
> <PUBCHEM_ATOM_UDEF_STEREO_COUNT>
0
> <PUBCHEM_BOND_DEF_STEREO_COUNT>
0
> <PUBCHEM_BOND_UDEF_STEREO_COUNT>
0
> <PUBCHEM_ISOTOPIC_ATOM_COUNT>
0
> <PUBCHEM_COMPONENT_COUNT>
1
> <PUBCHEM_CACTVS_TAUTO_COUNT>
1
> <PUBCHEM_COORDINATE_TYPE>
1
5
255
> <PUBCHEM_BONDANNOTATIONS>
14  1  6
12  13  8
12  15  8
4  13  8
4  16  8
5  15  8
5  16  8
6  12  8
6  18  8
7  15  8
7  18  8
$$$$
