501228
  -OEChem-10302200282D
 37 38  0     1  0  0  0  0  0999 V2000
    2.8660    1.5000    0.0000 Cl  0  0  0  0  0  0  0  0  0  0  0  0
    4.5981    0.5000    0.0000 S   0  0  0  0  0  0  0  0  0  0  0  0
    3.5981    0.5000    0.0000 O   0  0  0  0  0  0  0  0  0  0  0  0
    5.5981    0.5000    0.0000 O   0  0  0  0  0  0  0  0  0  0  0  0
    6.3301    1.5000    0.0000 O   0  5  0  0  0  0  0  0  0  0  0  0
    5.4641    2.0000    0.0000 N   0  3  0  0  0  0  0  0  0  0  0  0
    4.5981   -0.5000    0.0000 C   0  0  3  0  0  0  0  0  0  0  0  0
    3.7320   -1.0000    0.0000 C   0  0  0  0  0  0  0  0  0  0  0  0
    5.4641   -1.0000    0.0000 C   0  0  0  0  0  0  0  0  0  0  0  0
    2.8660   -0.5000    0.0000 C   0  0  0  0  0  0  0  0  0  0  0  0
    4.5981    1.5000    0.0000 C   0  0  0  0  0  0  0  0  0  0  0  0
    3.7320   -2.0000    0.0000 C   0  0  0  0  0  0  0  0  0  0  0  0
    2.8660   -2.5000    0.0000 C   0  0  0  0  0  0  0  0  0  0  0  0
    2.0000   -1.0000    0.0000 C   0  0  0  0  0  0  0  0  0  0  0  0
    2.8660    0.5000    0.0000 C   0  0  0  0  0  0  0  0  0  0  0  0
    2.0000   -2.0000    0.0000 C   0  0  0  0  0  0  0  0  0  0  0  0
    3.7320    2.0000    0.0000 C   0  0  0  0  0  0  0  0  0  0  0  0
    2.8660   -3.5000    0.0000 C   0  0  0  0  0  0  0  0  0  0  0  0
    5.4641    3.0000    0.0000 C   0  0  0  0  0  0  0  0  0  0  0  0
    3.7320    3.0000    0.0000 C   0  0  0  0  0  0  0  0  0  0  0  0
    4.5981    3.5000    0.0000 C   0  0  0  0  0  0  0  0  0  0  0  0
    5.1350   -0.1900    0.0000 H   0  0  0  0  0  0  0  0  0  0  0  0
    5.1541   -1.5369    0.0000 H   0  0  0  0  0  0  0  0  0  0  0  0
    6.0010   -1.3100    0.0000 H   0  0  0  0  0  0  0  0  0  0  0  0
    5.7741   -0.4631    0.0000 H   0  0  0  0  0  0  0  0  0  0  0  0
    4.2690   -2.3100    0.0000 H   0  0  0  0  0  0  0  0  0  0  0  0
    1.4631   -0.6900    0.0000 H   0  0  0  0  0  0  0  0  0  0  0  0
    3.4860    0.5000    0.0000 H   0  0  0  0  0  0  0  0  0  0  0  0
    2.8660    1.1200    0.0000 H   0  0  0  0  0  0  0  0  0  0  0  0
    2.2460    0.5000    0.0000 H   0  0  0  0  0  0  0  0  0  0  0  0
    1.4631   -2.3100    0.0000 H   0  0  0  0  0  0  0  0  0  0  0  0
    2.2460   -3.5000    0.0000 H   0  0  0  0  0  0  0  0  0  0  0  0
    2.8660   -4.1200    0.0000 H   0  0  0  0  0  0  0  0  0  0  0  0
    3.4860   -3.5000    0.0000 H   0  0  0  0  0  0  0  0  0  0  0  0
    6.0010    3.3100    0.0000 H   0  0  0  0  0  0  0  0  0  0  0  0
    3.1951    3.3100    0.0000 H   0  0  0  0  0  0  0  0  0  0  0  0
    4.5981    4.1200    0.0000 H   0  0  0  0  0  0  0  0  0  0  0  0
  1 17  1  0  0  0  0
  2  3  2  0  0  0  0
  2  4  2  0  0  0  0
  2  7  1  0  0  0  0
  2 11  1  0  0  0  0
  5  6  1  0  0  0  0
  6 11  1  0  0  0  0
  6 19  2  0  0  0  0
  7  8  1  0  0  0  0
  7  9  1  0  0  0  0
  7 22  1  0  0  0  0
  8 10  2  0  0  0  0
  8 12  1  0  0  0  0
  9 23  1  0  0  0  0
  9 24  1  0  0  0  0
  9 25  1  0  0  0  0
 10 14  1  0  0  0  0
 10 15  1  0  0  0  0
 11 17  2  0  0  0  0
 12 13  2  0  0  0  0
 12 26  1  0  0  0  0
 13 16  1  0  0  0  0
 13 18  1  0  0  0  0
 14 16  2  0  0  0  0
 14 27  1  0  0  0  0
 15 28  1  0  0  0  0
 15 29  1  0  0  0  0
 15 30  1  0  0  0  0
 16 31  1  0  0  0  0
 17 20  1  0  0  0  0
 18 32  1  0  0  0  0
 18 33  1  0  0  0  0
 18 34  1  0  0  0  0
 19 21  1  0  0  0  0
 19 35  1  0  0  0  0
 20 21  2  0  0  0  0
 20 36  1  0  0  0  0
 21 37  1  0  0  0  0
M  CHG  2   5  -1   6   1
M  END
> <PUBCHEM_COMPOUND_CID>
501228
> <PUBCHEM_COMPOUND_CANONICALIZED>
1
> <PUBCHEM_CACTVS_COMPLEXITY>
450
> <PUBCHEM_CACTVS_HBOND_ACCEPTOR>
3
> <PUBCHEM_CACTVS_HBOND_DONOR>
0
> <PUBCHEM_CACTVS_ROTATABLE_BOND>
3
> <PUBCHEM_CACTVS_SUBSKEYS>
AAADceByMABEAAAAAAAAAAAAAAAAAAAAAAA8QAAAAAAAAAABwAAAHAYEAAAADALFWiS+gZIYEAqgAjBnRHDK0CBxDzAo2DA4ZpoIIOLhk5HEIAhggADoyAcQgMAOwAACAAAQAACAAAQAACAAAAAAAAAAAA==
> <PUBCHEM_IUPAC_OPENEYE_NAME>
3-chloro-2-[1-(2,5-dimethylphenyl)ethylsulfonyl]-1-oxido-pyridin-1-ium
> <PUBCHEM_IUPAC_CAS_NAME>
3-chloro-2-[1-(2,5-dimethylphenyl)ethylsulfonyl]-1-oxidopyridin-1-ium
> <PUBCHEM_IUPAC_NAME_MARKUP>
3-chloro-2-[1-(2,5-dimethylphenyl)ethylsulfonyl]-1-oxidopyridin-1-ium
> <PUBCHEM_IUPAC_NAME>
3-chloro-2-[1-(2,5-dimethylphenyl)ethylsulfonyl]-1-oxidopyridin-1-ium
> <PUBCHEM_IUPAC_SYSTEMATIC_NAME>
3-chloranyl-2-[1-(2,5-dimethylphenyl)ethylsulfonyl]-1-oxidanidyl-pyridin-1-ium
> <PUBCHEM_IUPAC_TRADITIONAL_NAME>
3-chloro-2-[1-(2,5-dimethylphenyl)ethylsulfonyl]-1-oxido-pyridin-1-ium
> <PUBCHEM_IUPAC_INCHI>
InChI=1S/C15H16ClNO3S/c1-10-6-7-11(2)13(9-10)12(3)21(19,20)15-14(16)5-4-8-17(15)18/h4-9,12H,1-3H3
> <PUBCHEM_IUPAC_INCHIKEY>
OXFLGHQKYVPPNI-UHFFFAOYSA-N
> <PUBCHEM_XLOGP3_AA>
2.7
> <PUBCHEM_EXACT_MASS>
325.0539422
> <PUBCHEM_MOLECULAR_FORMULA>
C15H16ClNO3S
> <PUBCHEM_MOLECULAR_WEIGHT>
325.8
> <PUBCHEM_OPENEYE_CAN_SMILES>
CC1=CC(=C(C=C1)C)C(C)S(=O)(=O)C2=C(C=CC=[N+]2[O-])Cl
> <PUBCHEM_OPENEYE_ISO_SMILES>
CC1=CC(=C(C=C1)C)C(C)S(=O)(=O)C2=C(C=CC=[N+]2[O-])Cl
> <PUBCHEM_CACTVS_TPSA>
68
> <PUBCHEM_MONOISOTOPIC_WEIGHT>
325.0539422
> <PUBCHEM_TOTAL_CHARGE>
0
> <PUBCHEM_HEAVY_ATOM_COUNT>
21
> <PUBCHEM_ATOM_DEF_STEREO_COUNT>
0
> <PUBCHEM_ATOM_UDEF_STEREO_COUNT>
1
> <PUBCHEM_BOND_DEF_STEREO_COUNT>
0
> <PUBCHEM_BOND_UDEF_STEREO_COUNT>
0
> <PUBCHEM_ISOTOPIC_ATOM_COUNT>
0
> <PUBCHEM_COMPONENT_COUNT>
1
> <PUBCHEM_CACTVS_TAUTO_COUNT>
-1
> <PUBCHEM_COORDINATE_TYPE>
1
5
255
> <PUBCHEM_BONDANNOTATIONS>
10  14  8
11  17  8
12  13  8
13  16  8
14  16  8
17  20  8
19  21  8
20  21  8
6  11  8
6  19  8
7  9  3
8  10  8
8  12  8
$$$$
