501258
  -OEChem-10302200282D
 92 91  0     1  0  0  0  0  0999 V2000
   24.1876   -1.6550    0.0000 O   0  0  0  0  0  0  0  0  0  0  0  0
    4.2690    0.8450    0.0000 O   0  0  0  0  0  0  0  0  0  0  0  0
   15.5273   -1.6550    0.0000 O   0  0  0  0  0  0  0  0  0  0  0  0
   25.9196    1.3450    0.0000 O   0  0  0  0  0  0  0  0  0  0  0  0
   25.9196   -0.6550    0.0000 N   0  0  0  0  0  0  0  0  0  0  0  0
    2.5369   -0.1550    0.0000 N   0  0  0  0  0  0  0  0  0  0  0  0
    8.5991   -0.6550    0.0000 C   0  0  0  0  0  0  0  0  0  0  0  0
    9.4651   -0.1550    0.0000 C   0  0  0  0  0  0  0  0  0  0  0  0
    7.7331   -0.1550    0.0000 C   0  0  0  0  0  0  0  0  0  0  0  0
   10.3312   -0.6550    0.0000 C   0  0  0  0  0  0  0  0  0  0  0  0
    6.8671   -0.6550    0.0000 C   0  0  0  0  0  0  0  0  0  0  0  0
   11.1972   -0.1550    0.0000 C   0  0  0  0  0  0  0  0  0  0  0  0
    6.0010   -0.1550    0.0000 C   0  0  0  0  0  0  0  0  0  0  0  0
   20.7235   -0.6550    0.0000 C   0  0  0  0  0  0  0  0  0  0  0  0
   21.5895   -0.1550    0.0000 C   0  0  0  0  0  0  0  0  0  0  0  0
   19.8574   -0.1550    0.0000 C   0  0  0  0  0  0  0  0  0  0  0  0
   22.4555   -0.6550    0.0000 C   0  0  0  0  0  0  0  0  0  0  0  0
   12.0632   -0.6550    0.0000 C   0  0  0  0  0  0  0  0  0  0  0  0
   18.9914   -0.6550    0.0000 C   0  0  0  0  0  0  0  0  0  0  0  0
    5.1350   -0.6550    0.0000 C   0  0  0  0  0  0  0  0  0  0  0  0
   23.3215   -0.1550    0.0000 C   0  0  0  0  0  0  0  0  0  0  0  0
   12.9292   -0.1550    0.0000 C   0  0  0  0  0  0  0  0  0  0  0  0
   18.1254   -0.1550    0.0000 C   0  0  0  0  0  0  0  0  0  0  0  0
   24.1876   -0.6550    0.0000 C   0  0  2  0  0  0  0  0  0  0  0  0
    4.2690   -0.1550    0.0000 C   0  0  2  0  0  0  0  0  0  0  0  0
   13.7953   -0.6550    0.0000 C   0  0  0  0  0  0  0  0  0  0  0  0
   17.2594   -0.6550    0.0000 C   0  0  0  0  0  0  0  0  0  0  0  0
   25.0536   -0.1550    0.0000 C   0  0  2  0  0  0  0  0  0  0  0  0
   14.6613   -0.1550    0.0000 C   0  0  0  0  0  0  0  0  0  0  0  0
   16.3933   -0.1550    0.0000 C   0  0  0  0  0  0  0  0  0  0  0  0
    3.4030   -0.6550    0.0000 C   0  0  1  0  0  0  0  0  0  0  0  0
   15.5273   -0.6550    0.0000 C   0  0  0  0  0  0  0  0  0  0  0  0
   25.0536    0.8450    0.0000 C   0  0  0  0  0  0  0  0  0  0  0  0
    3.4030   -1.6550    0.0000 C   0  0  0  0  0  0  0  0  0  0  0  0
    8.2006   -1.1300    0.0000 H   0  0  0  0  0  0  0  0  0  0  0  0
    8.9976   -1.1300    0.0000 H   0  0  0  0  0  0  0  0  0  0  0  0
    9.8637    0.3199    0.0000 H   0  0  0  0  0  0  0  0  0  0  0  0
    9.0666    0.3199    0.0000 H   0  0  0  0  0  0  0  0  0  0  0  0
    8.1316    0.3199    0.0000 H   0  0  0  0  0  0  0  0  0  0  0  0
    7.3346    0.3199    0.0000 H   0  0  0  0  0  0  0  0  0  0  0  0
    9.9326   -1.1300    0.0000 H   0  0  0  0  0  0  0  0  0  0  0  0
   10.7297   -1.1300    0.0000 H   0  0  0  0  0  0  0  0  0  0  0  0
    6.4685   -1.1300    0.0000 H   0  0  0  0  0  0  0  0  0  0  0  0
    7.2656   -1.1300    0.0000 H   0  0  0  0  0  0  0  0  0  0  0  0
   11.5957    0.3199    0.0000 H   0  0  0  0  0  0  0  0  0  0  0  0
   10.7987    0.3199    0.0000 H   0  0  0  0  0  0  0  0  0  0  0  0
    6.3996    0.3199    0.0000 H   0  0  0  0  0  0  0  0  0  0  0  0
    5.6025    0.3199    0.0000 H   0  0  0  0  0  0  0  0  0  0  0  0
   20.3249   -1.1300    0.0000 H   0  0  0  0  0  0  0  0  0  0  0  0
   21.1220   -1.1300    0.0000 H   0  0  0  0  0  0  0  0  0  0  0  0
   21.9880    0.3199    0.0000 H   0  0  0  0  0  0  0  0  0  0  0  0
   21.1910    0.3199    0.0000 H   0  0  0  0  0  0  0  0  0  0  0  0
   20.2560    0.3199    0.0000 H   0  0  0  0  0  0  0  0  0  0  0  0
   19.4589    0.3199    0.0000 H   0  0  0  0  0  0  0  0  0  0  0  0
   22.0570   -1.1300    0.0000 H   0  0  0  0  0  0  0  0  0  0  0  0
   22.8540   -1.1300    0.0000 H   0  0  0  0  0  0  0  0  0  0  0  0
   11.6647   -1.1300    0.0000 H   0  0  0  0  0  0  0  0  0  0  0  0
   12.4617   -1.1300    0.0000 H   0  0  0  0  0  0  0  0  0  0  0  0
   18.5929   -1.1300    0.0000 H   0  0  0  0  0  0  0  0  0  0  0  0
   19.3899   -1.1300    0.0000 H   0  0  0  0  0  0  0  0  0  0  0  0
    4.7365   -1.1300    0.0000 H   0  0  0  0  0  0  0  0  0  0  0  0
    5.5335   -1.1300    0.0000 H   0  0  0  0  0  0  0  0  0  0  0  0
   23.7201    0.3199    0.0000 H   0  0  0  0  0  0  0  0  0  0  0  0
   22.9230    0.3199    0.0000 H   0  0  0  0  0  0  0  0  0  0  0  0
   13.3278    0.3199    0.0000 H   0  0  0  0  0  0  0  0  0  0  0  0
   12.5307    0.3199    0.0000 H   0  0  0  0  0  0  0  0  0  0  0  0
   18.5239    0.3199    0.0000 H   0  0  0  0  0  0  0  0  0  0  0  0
   17.7269    0.3199    0.0000 H   0  0  0  0  0  0  0  0  0  0  0  0
   23.6506   -0.9650    0.0000 H   0  0  0  0  0  0  0  0  0  0  0  0
    4.8059    0.1550    0.0000 H   0  0  0  0  0  0  0  0  0  0  0  0
   13.3967   -1.1300    0.0000 H   0  0  0  0  0  0  0  0  0  0  0  0
   14.1938   -1.1300    0.0000 H   0  0  0  0  0  0  0  0  0  0  0  0
   16.8608   -1.1300    0.0000 H   0  0  0  0  0  0  0  0  0  0  0  0
   17.6579   -1.1300    0.0000 H   0  0  0  0  0  0  0  0  0  0  0  0
   25.0536   -0.7750    0.0000 H   0  0  0  0  0  0  0  0  0  0  0  0
   15.0598    0.3199    0.0000 H   0  0  0  0  0  0  0  0  0  0  0  0
   14.2628    0.3199    0.0000 H   0  0  0  0  0  0  0  0  0  0  0  0
   16.7919    0.3199    0.0000 H   0  0  0  0  0  0  0  0  0  0  0  0
   15.9948    0.3199    0.0000 H   0  0  0  0  0  0  0  0  0  0  0  0
    3.4030   -0.0350    0.0000 H   0  0  0  0  0  0  0  0  0  0  0  0
   24.8415    1.4276    0.0000 H   0  0  0  0  0  0  0  0  0  0  0  0
   24.4430    0.7373    0.0000 H   0  0  0  0  0  0  0  0  0  0  0  0
    2.7830   -1.6550    0.0000 H   0  0  0  0  0  0  0  0  0  0  0  0
    3.4030   -2.2750    0.0000 H   0  0  0  0  0  0  0  0  0  0  0  0
    4.0230   -1.6550    0.0000 H   0  0  0  0  0  0  0  0  0  0  0  0
   23.6506   -1.9650    0.0000 H   0  0  0  0  0  0  0  0  0  0  0  0
   26.4566   -0.3450    0.0000 H   0  0  0  0  0  0  0  0  0  0  0  0
   25.9196   -1.2750    0.0000 H   0  0  0  0  0  0  0  0  0  0  0  0
    3.7320    1.1550    0.0000 H   0  0  0  0  0  0  0  0  0  0  0  0
    2.0000   -0.4650    0.0000 H   0  0  0  0  0  0  0  0  0  0  0  0
    2.5369    0.4650    0.0000 H   0  0  0  0  0  0  0  0  0  0  0  0
   25.9196    1.9650    0.0000 H   0  0  0  0  0  0  0  0  0  0  0  0
 24  1  1  6  0  0  0
  1 86  1  0  0  0  0
 25  2  1  6  0  0  0
  2 89  1  0  0  0  0
  3 32  2  0  0  0  0
  4 33  1  0  0  0  0
  4 92  1  0  0  0  0
 28  5  1  6  0  0  0
  5 87  1  0  0  0  0
  5 88  1  0  0  0  0
 31  6  1  1  0  0  0
  6 90  1  0  0  0  0
  6 91  1  0  0  0  0
  7  8  1  0  0  0  0
  7  9  1  0  0  0  0
  7 35  1  0  0  0  0
  7 36  1  0  0  0  0
  8 10  1  0  0  0  0
  8 37  1  0  0  0  0
  8 38  1  0  0  0  0
  9 11  1  0  0  0  0
  9 39  1  0  0  0  0
  9 40  1  0  0  0  0
 10 12  1  0  0  0  0
 10 41  1  0  0  0  0
 10 42  1  0  0  0  0
 11 13  1  0  0  0  0
 11 43  1  0  0  0  0
 11 44  1  0  0  0  0
 12 18  1  0  0  0  0
 12 45  1  0  0  0  0
 12 46  1  0  0  0  0
 13 20  1  0  0  0  0
 13 47  1  0  0  0  0
 13 48  1  0  0  0  0
 14 15  1  0  0  0  0
 14 16  1  0  0  0  0
 14 49  1  0  0  0  0
 14 50  1  0  0  0  0
 15 17  1  0  0  0  0
 15 51  1  0  0  0  0
 15 52  1  0  0  0  0
 16 19  1  0  0  0  0
 16 53  1  0  0  0  0
 16 54  1  0  0  0  0
 17 21  1  0  0  0  0
 17 55  1  0  0  0  0
 17 56  1  0  0  0  0
 18 22  1  0  0  0  0
 18 57  1  0  0  0  0
 18 58  1  0  0  0  0
 19 23  1  0  0  0  0
 19 59  1  0  0  0  0
 19 60  1  0  0  0  0
 20 25  1  0  0  0  0
 20 61  1  0  0  0  0
 20 62  1  0  0  0  0
 21 24  1  0  0  0  0
 21 63  1  0  0  0  0
 21 64  1  0  0  0  0
 22 26  1  0  0  0  0
 22 65  1  0  0  0  0
 22 66  1  0  0  0  0
 23 27  1  0  0  0  0
 23 67  1  0  0  0  0
 23 68  1  0  0  0  0
 24 28  1  0  0  0  0
 24 69  1  0  0  0  0
 25 31  1  0  0  0  0
 25 70  1  0  0  0  0
 26 29  1  0  0  0  0
 26 71  1  0  0  0  0
 26 72  1  0  0  0  0
 27 30  1  0  0  0  0
 27 73  1  0  0  0  0
 27 74  1  0  0  0  0
 28 33  1  0  0  0  0
 28 75  1  0  0  0  0
 29 32  1  0  0  0  0
 29 76  1  0  0  0  0
 29 77  1  0  0  0  0
 30 32  1  0  0  0  0
 30 78  1  0  0  0  0
 30 79  1  0  0  0  0
 31 34  1  0  0  0  0
 31 80  1  0  0  0  0
 33 81  1  0  0  0  0
 33 82  1  0  0  0  0
 34 83  1  0  0  0  0
 34 84  1  0  0  0  0
 34 85  1  0  0  0  0
M  END
> <PUBCHEM_COMPOUND_CID>
501258
> <PUBCHEM_COMPOUND_CANONICALIZED>
1
> <PUBCHEM_CACTVS_COMPLEXITY>
450
> <PUBCHEM_CACTVS_HBOND_ACCEPTOR>
6
> <PUBCHEM_CACTVS_HBOND_DONOR>
5
> <PUBCHEM_CACTVS_ROTATABLE_BOND>
26
> <PUBCHEM_CACTVS_SUBSKEYS>
AAADcfB7OAAAAAAAAAAAAAAAAAAAAAAAAAAAAAAAAAAAAAAAAAAAHgAQCAAACDzhgAYCAABAAgAIAIAQAAAAAAAAAAAAAIEAAAACEBIAgAAAQAAFEAAAAAGYyKCAAAAAAAAAAAAAAAAAAAAAAAAAAAAAAA==
> <PUBCHEM_IUPAC_OPENEYE_NAME>
(2S,3R,26R,27R)-2,27-diamino-1,3,26-trihydroxy-octacosan-13-one
> <PUBCHEM_IUPAC_CAS_NAME>
(2S,3R,26R,27R)-2,27-diamino-1,3,26-trihydroxy-13-octacosanone
> <PUBCHEM_IUPAC_NAME_MARKUP>
(2<I>S</I>,3<I>R</I>,26<I>R</I>,27<I>R</I>)-2,27-diamino-1,3,26-trihydroxyoctacosan-13-one
> <PUBCHEM_IUPAC_NAME>
(2S,3R,26R,27R)-2,27-diamino-1,3,26-trihydroxyoctacosan-13-one
> <PUBCHEM_IUPAC_SYSTEMATIC_NAME>
(2S,3R,26R,27R)-2,27-bis(azanyl)-1,3,26-tris(oxidanyl)octacosan-13-one
> <PUBCHEM_IUPAC_TRADITIONAL_NAME>
(2S,3R,26R,27R)-2,27-diamino-1,3,26-trihydroxy-octacosan-13-one
> <PUBCHEM_IUPAC_INCHI>
InChI=1S/C28H58N2O4/c1-24(29)27(33)21-17-13-9-5-3-2-4-7-11-15-19-25(32)20-16-12-8-6-10-14-18-22-28(34)26(30)23-31/h24,26-28,31,33-34H,2-23,29-30H2,1H3/t24-,26+,27-,28-/m1/s1
> <PUBCHEM_IUPAC_INCHIKEY>
QWELUHHPUNACAY-KCPYNUOSSA-N
> <PUBCHEM_XLOGP3_AA>
5.7
> <PUBCHEM_EXACT_MASS>
486.43965834
> <PUBCHEM_MOLECULAR_FORMULA>
C28H58N2O4
> <PUBCHEM_MOLECULAR_WEIGHT>
486.8
> <PUBCHEM_OPENEYE_CAN_SMILES>
CC(C(CCCCCCCCCCCCC(=O)CCCCCCCCCC(C(CO)N)O)O)N
> <PUBCHEM_OPENEYE_ISO_SMILES>
C[C@H]([C@@H](CCCCCCCCCCCCC(=O)CCCCCCCCC[C@H]([C@H](CO)N)O)O)N
> <PUBCHEM_CACTVS_TPSA>
130
> <PUBCHEM_MONOISOTOPIC_WEIGHT>
486.43965834
> <PUBCHEM_TOTAL_CHARGE>
0
> <PUBCHEM_HEAVY_ATOM_COUNT>
34
> <PUBCHEM_ATOM_DEF_STEREO_COUNT>
4
> <PUBCHEM_ATOM_UDEF_STEREO_COUNT>
0
> <PUBCHEM_BOND_DEF_STEREO_COUNT>
0
> <PUBCHEM_BOND_UDEF_STEREO_COUNT>
0
> <PUBCHEM_ISOTOPIC_ATOM_COUNT>
0
> <PUBCHEM_COMPONENT_COUNT>
1
> <PUBCHEM_CACTVS_TAUTO_COUNT>
-1
> <PUBCHEM_COORDINATE_TYPE>
1
5
255
> <PUBCHEM_BONDANNOTATIONS>
24  1  6
25  2  6
28  5  6
31  6  5
$$$$
