501261
  -OEChem-10302200282D
 42 44  0     1  0  0  0  0  0999 V2000
    2.0116    0.8637    0.0000 O   0  0  0  0  0  0  0  0  0  0  0  0
    2.0038   -1.1362    0.0000 O   0  0  0  0  0  0  0  0  0  0  0  0
    7.2458   -1.2084    0.0000 N   0  0  0  0  0  0  0  0  0  0  0  0
    9.0058   -1.1738    0.0000 N   0  0  0  0  0  0  0  0  0  0  0  0
    9.8718    0.3262    0.0000 N   0  0  0  0  0  0  0  0  0  0  0  0
    9.0058    1.8262    0.0000 N   0  0  0  0  0  0  0  0  0  0  0  0
   10.7378   -1.1738    0.0000 N   0  0  0  0  0  0  0  0  0  0  0  0
    4.6077    0.3537    0.0000 C   0  0  3  0  0  0  0  0  0  0  0  0
    5.4756    0.8504    0.0000 C   0  0  0  0  0  0  0  0  0  0  0  0
    4.6038   -0.6463    0.0000 C   0  0  0  0  0  0  0  0  0  0  0  0
    3.7436    0.8571    0.0000 C   0  0  0  0  0  0  0  0  0  0  0  0
    6.3397    0.3471    0.0000 C   0  0  0  0  0  0  0  0  0  0  0  0
    3.7359   -1.1429    0.0000 C   0  0  0  0  0  0  0  0  0  0  0  0
    2.8757    0.3604    0.0000 C   0  0  0  0  0  0  0  0  0  0  0  0
    2.8718   -0.6396    0.0000 C   0  0  0  0  0  0  0  0  0  0  0  0
    7.2458    0.8609    0.0000 C   0  0  0  0  0  0  0  0  0  0  0  0
    6.3397   -0.6946    0.0000 C   0  0  0  0  0  0  0  0  0  0  0  0
    8.1397    0.3262    0.0000 C   0  0  0  0  0  0  0  0  0  0  0  0
    8.1397   -0.6738    0.0000 C   0  0  0  0  0  0  0  0  0  0  0  0
    9.0058    0.8262    0.0000 C   0  0  0  0  0  0  0  0  0  0  0  0
    2.0154    1.8637    0.0000 C   0  0  0  0  0  0  0  0  0  0  0  0
    2.0000   -2.1362    0.0000 C   0  0  0  0  0  0  0  0  0  0  0  0
    9.8718   -0.6738    0.0000 C   0  0  0  0  0  0  0  0  0  0  0  0
    5.1434    0.0417    0.0000 H   0  0  0  0  0  0  0  0  0  0  0  0
    5.8760    1.3238    0.0000 H   0  0  0  0  0  0  0  0  0  0  0  0
    5.0789    1.3269    0.0000 H   0  0  0  0  0  0  0  0  0  0  0  0
    4.8136   -1.2297    0.0000 H   0  0  0  0  0  0  0  0  0  0  0  0
    5.2148   -0.5410    0.0000 H   0  0  0  0  0  0  0  0  0  0  0  0
    3.7460    1.4771    0.0000 H   0  0  0  0  0  0  0  0  0  0  0  0
    3.7335   -1.7629    0.0000 H   0  0  0  0  0  0  0  0  0  0  0  0
    7.2530    1.4809    0.0000 H   0  0  0  0  0  0  0  0  0  0  0  0
    5.8040   -1.0066    0.0000 H   0  0  0  0  0  0  0  0  0  0  0  0
    2.6354    1.8613    0.0000 H   0  0  0  0  0  0  0  0  0  0  0  0
    2.0178    2.4837    0.0000 H   0  0  0  0  0  0  0  0  0  0  0  0
    1.3954    1.8661    0.0000 H   0  0  0  0  0  0  0  0  0  0  0  0
    1.3800   -2.1338    0.0000 H   0  0  0  0  0  0  0  0  0  0  0  0
    1.9976   -2.7562    0.0000 H   0  0  0  0  0  0  0  0  0  0  0  0
    2.6200   -2.1386    0.0000 H   0  0  0  0  0  0  0  0  0  0  0  0
    9.5427    2.1362    0.0000 H   0  0  0  0  0  0  0  0  0  0  0  0
    8.4688    2.1362    0.0000 H   0  0  0  0  0  0  0  0  0  0  0  0
   10.7378   -1.7938    0.0000 H   0  0  0  0  0  0  0  0  0  0  0  0
   11.2748   -0.8638    0.0000 H   0  0  0  0  0  0  0  0  0  0  0  0
  1 14  1  0  0  0  0
  1 21  1  0  0  0  0
  2 15  1  0  0  0  0
  2 22  1  0  0  0  0
  3 17  2  0  0  0  0
  3 19  1  0  0  0  0
  4 19  2  0  0  0  0
  4 23  1  0  0  0  0
  5 20  1  0  0  0  0
  5 23  2  0  0  0  0
  6 20  1  0  0  0  0
  6 39  1  0  0  0  0
  6 40  1  0  0  0  0
  7 23  1  0  0  0  0
  7 41  1  0  0  0  0
  7 42  1  0  0  0  0
  8  9  1  0  0  0  0
  8 10  1  0  0  0  0
  8 11  1  0  0  0  0
  8 24  1  0  0  0  0
  9 12  1  0  0  0  0
  9 25  1  0  0  0  0
  9 26  1  0  0  0  0
 10 13  1  0  0  0  0
 10 27  1  0  0  0  0
 10 28  1  0  0  0  0
 11 14  2  0  0  0  0
 11 29  1  0  0  0  0
 12 16  2  0  0  0  0
 12 17  1  0  0  0  0
 13 15  2  0  0  0  0
 13 30  1  0  0  0  0
 14 15  1  0  0  0  0
 16 18  1  0  0  0  0
 16 31  1  0  0  0  0
 17 32  1  0  0  0  0
 18 19  1  0  0  0  0
 18 20  2  0  0  0  0
 21 33  1  0  0  0  0
 21 34  1  0  0  0  0
 21 35  1  0  0  0  0
 22 36  1  0  0  0  0
 22 37  1  0  0  0  0
 22 38  1  0  0  0  0
M  END
> <PUBCHEM_COMPOUND_CID>
501261
> <PUBCHEM_COMPOUND_CANONICALIZED>
1
> <PUBCHEM_CACTVS_COMPLEXITY>
481
> <PUBCHEM_CACTVS_HBOND_ACCEPTOR>
7
> <PUBCHEM_CACTVS_HBOND_DONOR>
2
> <PUBCHEM_CACTVS_ROTATABLE_BOND>
4
> <PUBCHEM_CACTVS_SUBSKEYS>
AAADceB7sAAAAAAAAAAAAAAAAAAAAAAAAAAsWIAAAAAAAACx+AAAHgAQAAAADQTBmwY/sN5IFACgAjJnZACCiCkxIKAB2CAoRJiJLOLA+dGENAhogALK6CcQgMAOAAAAAAAAAAAAAAAAAAAAAAAAAAAAAA==
> <PUBCHEM_IUPAC_OPENEYE_NAME>
6-[(3,4-dimethoxycyclohexa-2,4-dien-1-yl)methyl]pyrido[2,3-d]pyrimidine-2,4-diamine
> <PUBCHEM_IUPAC_CAS_NAME>
6-[(3,4-dimethoxy-1-cyclohexa-2,4-dienyl)methyl]pyrido[2,3-d]pyrimidine-2,4-diamine
> <PUBCHEM_IUPAC_NAME_MARKUP>
6-[(3,4-dimethoxycyclohexa-2,4-dien-1-yl)methyl]pyrido[2,3-d]pyrimidine-2,4-diamine
> <PUBCHEM_IUPAC_NAME>
6-[(3,4-dimethoxycyclohexa-2,4-dien-1-yl)methyl]pyrido[2,3-d]pyrimidine-2,4-diamine
> <PUBCHEM_IUPAC_SYSTEMATIC_NAME>
6-[(3,4-dimethoxycyclohexa-2,4-dien-1-yl)methyl]pyrido[2,3-d]pyrimidine-2,4-diamine
> <PUBCHEM_IUPAC_TRADITIONAL_NAME>
[2-amino-6-[(3,4-dimethoxycyclohexa-2,4-dien-1-yl)methyl]pyrido[2,3-d]pyrimidin-4-yl]amine
> <PUBCHEM_IUPAC_INCHI>
InChI=1S/C16H19N5O2/c1-22-12-4-3-9(7-13(12)23-2)5-10-6-11-14(17)20-16(18)21-15(11)19-8-10/h4,6-9H,3,5H2,1-2H3,(H4,17,18,19,20,21)
> <PUBCHEM_IUPAC_INCHIKEY>
RWYCMGKTJIRVBQ-UHFFFAOYSA-N
> <PUBCHEM_XLOGP3_AA>
1.5
> <PUBCHEM_EXACT_MASS>
313.15387487
> <PUBCHEM_MOLECULAR_FORMULA>
C16H19N5O2
> <PUBCHEM_MOLECULAR_WEIGHT>
313.35
> <PUBCHEM_OPENEYE_CAN_SMILES>
COC1=CCC(C=C1OC)CC2=CC3=C(N=C(N=C3N=C2)N)N
> <PUBCHEM_OPENEYE_ISO_SMILES>
COC1=CCC(C=C1OC)CC2=CC3=C(N=C(N=C3N=C2)N)N
> <PUBCHEM_CACTVS_TPSA>
109
> <PUBCHEM_MONOISOTOPIC_WEIGHT>
313.15387487
> <PUBCHEM_TOTAL_CHARGE>
0
> <PUBCHEM_HEAVY_ATOM_COUNT>
23
> <PUBCHEM_ATOM_DEF_STEREO_COUNT>
0
> <PUBCHEM_ATOM_UDEF_STEREO_COUNT>
1
> <PUBCHEM_BOND_DEF_STEREO_COUNT>
0
> <PUBCHEM_BOND_UDEF_STEREO_COUNT>
0
> <PUBCHEM_ISOTOPIC_ATOM_COUNT>
0
> <PUBCHEM_COMPONENT_COUNT>
1
> <PUBCHEM_CACTVS_TAUTO_COUNT>
-1
> <PUBCHEM_COORDINATE_TYPE>
1
5
255
> <PUBCHEM_BONDANNOTATIONS>
12  16  8
12  17  8
16  18  8
18  19  8
18  20  8
3  17  8
3  19  8
4  19  8
4  23  8
5  20  8
5  23  8
8  9  3
$$$$
