501359
  -OEChem-10302200282D
 46 49  0     1  0  0  0  0  0999 V2000
    4.7654    1.9470    0.0000 F   0  0  0  0  0  0  0  0  0  0  0  0
    8.2295    1.9470    0.0000 F   0  0  0  0  0  0  0  0  0  0  0  0
    8.2295   -1.0530    0.0000 O   0  0  0  0  0  0  0  0  0  0  0  0
    4.8402   -1.0502    0.0000 N   0  0  0  0  0  0  0  0  0  0  0  0
    2.6183   -0.7153    0.0000 N   0  0  0  0  0  0  0  0  0  0  0  0
    9.0956    0.4470    0.0000 N   0  0  0  0  0  0  0  0  0  0  0  0
   12.6398   -1.3577    0.0000 N   0  0  0  0  0  0  0  0  0  0  0  0
   13.2235   -0.5530    0.0000 N   0  0  0  0  0  0  0  0  0  0  0  0
    4.7654   -0.0530    0.0000 C   0  0  3  0  0  0  0  0  0  0  0  0
    3.9392    0.5103    0.0000 C   0  0  0  0  0  0  0  0  0  0  0  0
    2.9836    0.2156    0.0000 C   0  0  0  0  0  0  0  0  0  0  0  0
    4.1071   -1.7304    0.0000 C   0  0  0  0  0  0  0  0  0  0  0  0
    5.6314    0.4470    0.0000 C   0  0  0  0  0  0  0  0  0  0  0  0
    3.1183   -1.5813    0.0000 C   0  0  0  0  0  0  0  0  0  0  0  0
    6.4975   -0.0530    0.0000 C   0  0  0  0  0  0  0  0  0  0  0  0
    5.6314    1.4470    0.0000 C   0  0  0  0  0  0  0  0  0  0  0  0
    7.3635    0.4470    0.0000 C   0  0  0  0  0  0  0  0  0  0  0  0
    6.4975    1.9470    0.0000 C   0  0  0  0  0  0  0  0  0  0  0  0
    7.3635    1.4470    0.0000 C   0  0  0  0  0  0  0  0  0  0  0  0
    8.2295   -0.0530    0.0000 C   0  0  0  0  0  0  0  0  0  0  0  0
    9.9616   -0.0530    0.0000 C   0  0  0  0  0  0  0  0  0  0  0  0
   11.6936   -0.0530    0.0000 C   0  0  0  0  0  0  0  0  0  0  0  0
   10.8276    0.4470    0.0000 C   0  0  0  0  0  0  0  0  0  0  0  0
   11.6936   -1.0530    0.0000 C   0  0  0  0  0  0  0  0  0  0  0  0
    9.9616   -1.0530    0.0000 C   0  0  0  0  0  0  0  0  0  0  0  0
   10.8276   -1.5530    0.0000 C   0  0  0  0  0  0  0  0  0  0  0  0
   12.6398    0.2518    0.0000 C   0  0  0  0  0  0  0  0  0  0  0  0
    5.3136   -0.3427    0.0000 H   0  0  0  0  0  0  0  0  0  0  0  0
    4.3937    0.9321    0.0000 H   0  0  0  0  0  0  0  0  0  0  0  0
    3.6292    1.0473    0.0000 H   0  0  0  0  0  0  0  0  0  0  0  0
    2.9373    0.8339    0.0000 H   0  0  0  0  0  0  0  0  0  0  0  0
    2.3705    0.3080    0.0000 H   0  0  0  0  0  0  0  0  0  0  0  0
    5.4173   -1.2767    0.0000 H   0  0  0  0  0  0  0  0  0  0  0  0
    3.8806   -2.3075    0.0000 H   0  0  0  0  0  0  0  0  0  0  0  0
    4.6194   -2.0796    0.0000 H   0  0  0  0  0  0  0  0  0  0  0  0
    2.5258   -1.7641    0.0000 H   0  0  0  0  0  0  0  0  0  0  0  0
    3.1646   -2.1996    0.0000 H   0  0  0  0  0  0  0  0  0  0  0  0
    2.0000   -0.7616    0.0000 H   0  0  0  0  0  0  0  0  0  0  0  0
    6.4975   -0.6730    0.0000 H   0  0  0  0  0  0  0  0  0  0  0  0
    6.4975    2.5670    0.0000 H   0  0  0  0  0  0  0  0  0  0  0  0
    9.0956    1.0670    0.0000 H   0  0  0  0  0  0  0  0  0  0  0  0
   10.8276    1.0670    0.0000 H   0  0  0  0  0  0  0  0  0  0  0  0
    9.4246   -1.3630    0.0000 H   0  0  0  0  0  0  0  0  0  0  0  0
   10.8276   -2.1730    0.0000 H   0  0  0  0  0  0  0  0  0  0  0  0
   12.8325    0.8411    0.0000 H   0  0  0  0  0  0  0  0  0  0  0  0
   12.8325   -1.9470    0.0000 H   0  0  0  0  0  0  0  0  0  0  0  0
  1 16  1  0  0  0  0
  2 19  1  0  0  0  0
  3 20  2  0  0  0  0
  4  9  1  0  0  0  0
  4 12  1  0  0  0  0
  4 33  1  0  0  0  0
  5 11  1  0  0  0  0
  5 14  1  0  0  0  0
  5 38  1  0  0  0  0
  6 20  1  0  0  0  0
  6 21  1  0  0  0  0
  6 41  1  0  0  0  0
  7  8  1  0  0  0  0
  7 24  1  0  0  0  0
  7 46  1  0  0  0  0
  8 27  2  0  0  0  0
  9 10  1  0  0  0  0
  9 13  1  0  0  0  0
  9 28  1  0  0  0  0
 10 11  1  0  0  0  0
 10 29  1  0  0  0  0
 10 30  1  0  0  0  0
 11 31  1  0  0  0  0
 11 32  1  0  0  0  0
 12 14  1  0  0  0  0
 12 34  1  0  0  0  0
 12 35  1  0  0  0  0
 13 15  2  0  0  0  0
 13 16  1  0  0  0  0
 14 36  1  0  0  0  0
 14 37  1  0  0  0  0
 15 17  1  0  0  0  0
 15 39  1  0  0  0  0
 16 18  2  0  0  0  0
 17 19  2  0  0  0  0
 17 20  1  0  0  0  0
 18 19  1  0  0  0  0
 18 40  1  0  0  0  0
 21 23  2  0  0  0  0
 21 25  1  0  0  0  0
 22 23  1  0  0  0  0
 22 24  2  0  0  0  0
 22 27  1  0  0  0  0
 23 42  1  0  0  0  0
 24 26  1  0  0  0  0
 25 26  2  0  0  0  0
 25 43  1  0  0  0  0
 26 44  1  0  0  0  0
 27 45  1  0  0  0  0
M  END
> <PUBCHEM_COMPOUND_CID>
501359
> <PUBCHEM_COMPOUND_CANONICALIZED>
1
> <PUBCHEM_CACTVS_COMPLEXITY>
524
> <PUBCHEM_CACTVS_HBOND_ACCEPTOR>
6
> <PUBCHEM_CACTVS_HBOND_DONOR>
4
> <PUBCHEM_CACTVS_ROTATABLE_BOND>
3
> <PUBCHEM_CACTVS_SUBSKEYS>
AAADceB7oYAAAAAAAAAAAAAAAAAAAWAAAAAwYAAABYAAAFgB9AAAHwAYAAAADCjBngw8wPLjAACqAzV3UACSBAAlggAYuaE4ZNgIYLLA1dGUpQhgnADIyYcYicCeAACCQAACAAAAAQSAAAQAAAAAAAAAAA==
> <PUBCHEM_IUPAC_OPENEYE_NAME>
5-(1,4-diazepan-5-yl)-2,4-difluoro-N-(1H-indazol-5-yl)benzamide
> <PUBCHEM_IUPAC_CAS_NAME>
5-(1,4-diazepan-5-yl)-2,4-difluoro-N-(1H-indazol-5-yl)benzamide
> <PUBCHEM_IUPAC_NAME_MARKUP>
5-(1,4-diazepan-5-yl)-2,4-difluoro-<I>N</I>-(1<I>H</I>-indazol-5-yl)benzamide
> <PUBCHEM_IUPAC_NAME>
5-(1,4-diazepan-5-yl)-2,4-difluoro-N-(1H-indazol-5-yl)benzamide
> <PUBCHEM_IUPAC_SYSTEMATIC_NAME>
5-(1,4-diazepan-5-yl)-2,4-bis(fluoranyl)-N-(1H-indazol-5-yl)benzamide
> <PUBCHEM_IUPAC_TRADITIONAL_NAME>
5-(1,4-diazepan-5-yl)-2,4-difluoro-N-(1H-indazol-5-yl)benzamide
> <PUBCHEM_IUPAC_INCHI>
InChI=1S/C19H19F2N5O/c20-15-9-16(21)14(8-13(15)18-3-4-22-5-6-23-18)19(27)25-12-1-2-17-11(7-12)10-24-26-17/h1-2,7-10,18,22-23H,3-6H2,(H,24,26)(H,25,27)
> <PUBCHEM_IUPAC_INCHIKEY>
RABOQBFHXVHADM-UHFFFAOYSA-N
> <PUBCHEM_XLOGP3_AA>
1.7
> <PUBCHEM_EXACT_MASS>
371.15576657
> <PUBCHEM_MOLECULAR_FORMULA>
C19H19F2N5O
> <PUBCHEM_MOLECULAR_WEIGHT>
371.4
> <PUBCHEM_OPENEYE_CAN_SMILES>
C1CNCCNC1C2=CC(=C(C=C2F)F)C(=O)NC3=CC4=C(C=C3)NN=C4
> <PUBCHEM_OPENEYE_ISO_SMILES>
C1CNCCNC1C2=CC(=C(C=C2F)F)C(=O)NC3=CC4=C(C=C3)NN=C4
> <PUBCHEM_CACTVS_TPSA>
81.8
> <PUBCHEM_MONOISOTOPIC_WEIGHT>
371.15576657
> <PUBCHEM_TOTAL_CHARGE>
0
> <PUBCHEM_HEAVY_ATOM_COUNT>
27
> <PUBCHEM_ATOM_DEF_STEREO_COUNT>
0
> <PUBCHEM_ATOM_UDEF_STEREO_COUNT>
1
> <PUBCHEM_BOND_DEF_STEREO_COUNT>
0
> <PUBCHEM_BOND_UDEF_STEREO_COUNT>
0
> <PUBCHEM_ISOTOPIC_ATOM_COUNT>
0
> <PUBCHEM_COMPONENT_COUNT>
1
> <PUBCHEM_CACTVS_TAUTO_COUNT>
-1
> <PUBCHEM_COORDINATE_TYPE>
1
5
255
> <PUBCHEM_BONDANNOTATIONS>
13  15  8
13  16  8
15  17  8
16  18  8
17  19  8
18  19  8
21  23  8
21  25  8
22  23  8
22  24  8
22  27  8
24  26  8
25  26  8
7  24  8
7  8  8
8  27  8
9  13  3
$$$$
