501393
  -OEChem-10302200282D
 48 48  0     1  0  0  0  0  0999 V2000
    7.1962    3.3450    0.0000 O   0  0  0  0  0  0  0  0  0  0  0  0
    5.4641    4.3450    0.0000 O   0  0  0  0  0  0  0  0  0  0  0  0
    3.7320    3.3450    0.0000 O   0  0  0  0  0  0  0  0  0  0  0  0
    8.0622    1.8450    0.0000 O   0  0  0  0  0  0  0  0  0  0  0  0
    5.4641    1.3450    0.0000 N   0  0  3  0  0  0  0  0  0  0  0  0
    6.3301    1.8450    0.0000 C   0  0  1  0  0  0  0  0  0  0  0  0
    6.3301    2.8450    0.0000 C   0  0  1  0  0  0  0  0  0  0  0  0
    5.4641    3.3450    0.0000 C   0  0  1  0  0  0  0  0  0  0  0  0
    4.5981    2.8450    0.0000 C   0  0  2  0  0  0  0  0  0  0  0  0
    4.5981    1.8450    0.0000 C   0  0  0  0  0  0  0  0  0  0  0  0
    5.4641    0.3450    0.0000 C   0  0  0  0  0  0  0  0  0  0  0  0
    7.1962    1.3450    0.0000 C   0  0  0  0  0  0  0  0  0  0  0  0
    4.5981   -0.1550    0.0000 C   0  0  0  0  0  0  0  0  0  0  0  0
    4.5981   -1.1550    0.0000 C   0  0  0  0  0  0  0  0  0  0  0  0
    3.7320   -1.6550    0.0000 C   0  0  0  0  0  0  0  0  0  0  0  0
    3.7320   -2.6550    0.0000 C   0  0  0  0  0  0  0  0  0  0  0  0
    2.8660   -3.1550    0.0000 C   0  0  0  0  0  0  0  0  0  0  0  0
    2.8660   -4.1550    0.0000 C   0  0  0  0  0  0  0  0  0  0  0  0
    2.0000   -4.6550    0.0000 C   0  0  0  0  0  0  0  0  0  0  0  0
    6.3301    1.2250    0.0000 H   0  0  0  0  0  0  0  0  0  0  0  0
    6.8671    2.5350    0.0000 H   0  0  0  0  0  0  0  0  0  0  0  0
    6.0010    3.6550    0.0000 H   0  0  0  0  0  0  0  0  0  0  0  0
    3.9875    1.9527    0.0000 H   0  0  0  0  0  0  0  0  0  0  0  0
    4.3860    1.2624    0.0000 H   0  0  0  0  0  0  0  0  0  0  0  0
    4.5981    3.4650    0.0000 H   0  0  0  0  0  0  0  0  0  0  0  0
    5.6762   -0.2376    0.0000 H   0  0  0  0  0  0  0  0  0  0  0  0
    6.0747    0.4527    0.0000 H   0  0  0  0  0  0  0  0  0  0  0  0
    6.7976    0.8701    0.0000 H   0  0  0  0  0  0  0  0  0  0  0  0
    7.5947    0.8701    0.0000 H   0  0  0  0  0  0  0  0  0  0  0  0
    4.3860    0.4276    0.0000 H   0  0  0  0  0  0  0  0  0  0  0  0
    3.9875   -0.2627    0.0000 H   0  0  0  0  0  0  0  0  0  0  0  0
    4.8101   -1.7376    0.0000 H   0  0  0  0  0  0  0  0  0  0  0  0
    5.2087   -1.0473    0.0000 H   0  0  0  0  0  0  0  0  0  0  0  0
    7.1962    3.9650    0.0000 H   0  0  0  0  0  0  0  0  0  0  0  0
    3.5200   -1.0724    0.0000 H   0  0  0  0  0  0  0  0  0  0  0  0
    3.1215   -1.7627    0.0000 H   0  0  0  0  0  0  0  0  0  0  0  0
    4.9272    4.6550    0.0000 H   0  0  0  0  0  0  0  0  0  0  0  0
    3.1951    3.0350    0.0000 H   0  0  0  0  0  0  0  0  0  0  0  0
    3.9441   -3.2376    0.0000 H   0  0  0  0  0  0  0  0  0  0  0  0
    4.3426   -2.5473    0.0000 H   0  0  0  0  0  0  0  0  0  0  0  0
    8.5991    1.5350    0.0000 H   0  0  0  0  0  0  0  0  0  0  0  0
    2.6540   -2.5724    0.0000 H   0  0  0  0  0  0  0  0  0  0  0  0
    2.2554   -3.2627    0.0000 H   0  0  0  0  0  0  0  0  0  0  0  0
    3.0781   -4.7376    0.0000 H   0  0  0  0  0  0  0  0  0  0  0  0
    3.4766   -4.0473    0.0000 H   0  0  0  0  0  0  0  0  0  0  0  0
    1.6900   -4.1181    0.0000 H   0  0  0  0  0  0  0  0  0  0  0  0
    1.4631   -4.9650    0.0000 H   0  0  0  0  0  0  0  0  0  0  0  0
    2.3100   -5.1919    0.0000 H   0  0  0  0  0  0  0  0  0  0  0  0
  7  1  1  1  0  0  0
  1 34  1  0  0  0  0
  8  2  1  1  0  0  0
  2 37  1  0  0  0  0
  9  3  1  6  0  0  0
  3 38  1  0  0  0  0
  4 12  1  0  0  0  0
  4 41  1  0  0  0  0
  5  6  1  0  0  0  0
  5 10  1  0  0  0  0
  5 11  1  0  0  0  0
  6  7  1  0  0  0  0
  6 12  1  1  0  0  0
  6 20  1  0  0  0  0
  7  8  1  0  0  0  0
  7 21  1  0  0  0  0
  8  9  1  0  0  0  0
  8 22  1  0  0  0  0
  9 10  1  0  0  0  0
  9 25  1  0  0  0  0
 10 23  1  0  0  0  0
 10 24  1  0  0  0  0
 11 13  1  0  0  0  0
 11 26  1  0  0  0  0
 11 27  1  0  0  0  0
 12 28  1  0  0  0  0
 12 29  1  0  0  0  0
 13 14  1  0  0  0  0
 13 30  1  0  0  0  0
 13 31  1  0  0  0  0
 14 15  1  0  0  0  0
 14 32  1  0  0  0  0
 14 33  1  0  0  0  0
 15 16  1  0  0  0  0
 15 35  1  0  0  0  0
 15 36  1  0  0  0  0
 16 17  1  0  0  0  0
 16 39  1  0  0  0  0
 16 40  1  0  0  0  0
 17 18  1  0  0  0  0
 17 42  1  0  0  0  0
 17 43  1  0  0  0  0
 18 19  1  0  0  0  0
 18 44  1  0  0  0  0
 18 45  1  0  0  0  0
 19 46  1  0  0  0  0
 19 47  1  0  0  0  0
 19 48  1  0  0  0  0
M  END
> <PUBCHEM_COMPOUND_CID>
501393
> <PUBCHEM_COMPOUND_CANONICALIZED>
1
> <PUBCHEM_CACTVS_COMPLEXITY>
240
> <PUBCHEM_CACTVS_HBOND_ACCEPTOR>
5
> <PUBCHEM_CACTVS_HBOND_DONOR>
4
> <PUBCHEM_CACTVS_ROTATABLE_BOND>
8
> <PUBCHEM_CACTVS_SUBSKEYS>
AAADceByOAAAAAAAAAAAAAAAAAAAAAAAAAAsAAAAAAAAAAAAAAAAHgAACAAACDzhgAYCAAMAAgAAAAAAAAAAAAAAAAAAAAAIAAADEAIAgAAEQAAHAACRAAHw4IQAAAAAAAAAAAAAAAAAAAAAAAAAAAAAAA==
> <PUBCHEM_IUPAC_OPENEYE_NAME>
(2R,3S,4R,5S)-2-(hydroxymethyl)-1-octyl-piperidine-3,4,5-triol
> <PUBCHEM_IUPAC_CAS_NAME>
(2R,3S,4R,5S)-2-(hydroxymethyl)-1-octylpiperidine-3,4,5-triol
> <PUBCHEM_IUPAC_NAME_MARKUP>
(2<I>R</I>,3<I>S</I>,4<I>R</I>,5<I>S</I>)-2-(hydroxymethyl)-1-octylpiperidine-3,4,5-triol
> <PUBCHEM_IUPAC_NAME>
(2R,3S,4R,5S)-2-(hydroxymethyl)-1-octylpiperidine-3,4,5-triol
> <PUBCHEM_IUPAC_SYSTEMATIC_NAME>
(2R,3S,4R,5S)-2-(hydroxymethyl)-1-octyl-piperidine-3,4,5-triol
> <PUBCHEM_IUPAC_TRADITIONAL_NAME>
(2R,3S,4R,5S)-2-methylol-1-octyl-piperidine-3,4,5-triol
> <PUBCHEM_IUPAC_INCHI>
InChI=1S/C14H29NO4/c1-2-3-4-5-6-7-8-15-9-12(17)14(19)13(18)11(15)10-16/h11-14,16-19H,2-10H2,1H3/t11-,12+,13+,14-/m1/s1
> <PUBCHEM_IUPAC_INCHIKEY>
VGSQNAQYXKTCLP-ZOBORPQBSA-N
> <PUBCHEM_XLOGP3_AA>
1.5
> <PUBCHEM_EXACT_MASS>
275.20965841
> <PUBCHEM_MOLECULAR_FORMULA>
C14H29NO4
> <PUBCHEM_MOLECULAR_WEIGHT>
275.38
> <PUBCHEM_OPENEYE_CAN_SMILES>
CCCCCCCCN1CC(C(C(C1CO)O)O)O
> <PUBCHEM_OPENEYE_ISO_SMILES>
CCCCCCCCN1C[C@@H]([C@H]([C@H]([C@H]1CO)O)O)O
> <PUBCHEM_CACTVS_TPSA>
84.2
> <PUBCHEM_MONOISOTOPIC_WEIGHT>
275.20965841
> <PUBCHEM_TOTAL_CHARGE>
0
> <PUBCHEM_HEAVY_ATOM_COUNT>
19
> <PUBCHEM_ATOM_DEF_STEREO_COUNT>
4
> <PUBCHEM_ATOM_UDEF_STEREO_COUNT>
0
> <PUBCHEM_BOND_DEF_STEREO_COUNT>
0
> <PUBCHEM_BOND_UDEF_STEREO_COUNT>
0
> <PUBCHEM_ISOTOPIC_ATOM_COUNT>
0
> <PUBCHEM_COMPONENT_COUNT>
1
> <PUBCHEM_CACTVS_TAUTO_COUNT>
-1
> <PUBCHEM_COORDINATE_TYPE>
1
5
255
> <PUBCHEM_BONDANNOTATIONS>
7  1  5
8  2  5
9  3  6
6  12  5
$$$$
