501435
  -OEChem-10302200282D
 78 79  0     1  0  0  0  0  0999 V2000
    3.7320    1.8840    0.0000 O   0  0  0  0  0  0  0  0  0  0  0  0
    5.4641    2.8840    0.0000 O   0  0  0  0  0  0  0  0  0  0  0  0
    5.4641   -1.1160    0.0000 O   0  0  0  0  0  0  0  0  0  0  0  0
    8.9282    2.8840    0.0000 O   0  0  0  0  0  0  0  0  0  0  0  0
    5.4641   -0.1160    0.0000 O   0  0  0  0  0  0  0  0  0  0  0  0
    6.3301    0.3840    0.0000 O   0  0  0  0  0  0  0  0  0  0  0  0
    4.5981   -2.6160    0.0000 O   0  0  0  0  0  0  0  0  0  0  0  0
    9.7942    1.3840    0.0000 O   0  0  0  0  0  0  0  0  0  0  0  0
    4.5981    3.3840    0.0000 O   0  0  0  0  0  0  0  0  0  0  0  0
    6.9641    3.7500    0.0000 O   0  0  0  0  0  0  0  0  0  0  0  0
    3.7320   -0.1160    0.0000 N   0  0  0  0  0  0  0  0  0  0  0  0
    7.1962    1.8840    0.0000 N   0  0  0  0  0  0  0  0  0  0  0  0
    4.5981    1.3840    0.0000 C   0  0  1  0  0  0  0  0  0  0  0  0
    5.4641    1.8840    0.0000 C   0  0  1  0  0  0  0  0  0  0  0  0
    3.7320   -1.1160    0.0000 C   0  0  1  0  0  0  0  0  0  0  0  0
    8.0622    1.3840    0.0000 C   0  0  1  0  0  0  0  0  0  0  0  0
    2.8660   -1.6160    0.0000 C   0  0  0  0  0  0  0  0  0  0  0  0
    8.0622    0.3840    0.0000 C   0  0  0  0  0  0  0  0  0  0  0  0
    4.5981    0.3840    0.0000 C   0  0  0  0  0  0  0  0  0  0  0  0
    6.3301    1.3840    0.0000 C   0  0  0  0  0  0  0  0  0  0  0  0
    2.8660   -2.6160    0.0000 C   0  0  0  0  0  0  0  0  0  0  0  0
    8.9282   -0.1160    0.0000 C   0  0  0  0  0  0  0  0  0  0  0  0
    4.5981   -1.6160    0.0000 C   0  0  0  0  0  0  0  0  0  0  0  0
    8.9282    1.8840    0.0000 C   0  0  0  0  0  0  0  0  0  0  0  0
    2.0000   -3.1160    0.0000 C   0  0  0  0  0  0  0  0  0  0  0  0
    3.7320   -3.1160    0.0000 C   0  0  0  0  0  0  0  0  0  0  0  0
    9.7942    0.3840    0.0000 C   0  0  0  0  0  0  0  0  0  0  0  0
    8.9282   -1.1160    0.0000 C   0  0  0  0  0  0  0  0  0  0  0  0
    3.7320    2.8840    0.0000 C   0  0  0  0  0  0  0  0  0  0  0  0
    5.9641    3.7500    0.0000 C   0  0  0  0  0  0  0  0  0  0  0  0
    2.0000   -4.1160    0.0000 C   0  0  0  0  0  0  0  0  0  0  0  0
    3.7320   -4.1160    0.0000 C   0  0  0  0  0  0  0  0  0  0  0  0
   10.6603   -0.1160    0.0000 C   0  0  0  0  0  0  0  0  0  0  0  0
    9.7942   -1.6160    0.0000 C   0  0  0  0  0  0  0  0  0  0  0  0
    2.8660   -4.6160    0.0000 C   0  0  0  0  0  0  0  0  0  0  0  0
   10.6603   -1.1160    0.0000 C   0  0  0  0  0  0  0  0  0  0  0  0
    6.3301   -1.6160    0.0000 C   0  0  0  0  0  0  0  0  0  0  0  0
    9.7942    3.3840    0.0000 C   0  0  0  0  0  0  0  0  0  0  0  0
    2.8660    3.3840    0.0000 C   0  0  0  0  0  0  0  0  0  0  0  0
    5.4641    4.6160    0.0000 C   0  0  0  0  0  0  0  0  0  0  0  0
    7.1962   -1.1160    0.0000 C   0  0  0  0  0  0  0  0  0  0  0  0
    9.7942    4.3840    0.0000 C   0  0  0  0  0  0  0  0  0  0  0  0
    4.5981    2.0040    0.0000 H   0  0  0  0  0  0  0  0  0  0  0  0
    6.0010    2.1940    0.0000 H   0  0  0  0  0  0  0  0  0  0  0  0
    4.2690   -0.8060    0.0000 H   0  0  0  0  0  0  0  0  0  0  0  0
    8.0622    2.0040    0.0000 H   0  0  0  0  0  0  0  0  0  0  0  0
    2.6540   -1.0334    0.0000 H   0  0  0  0  0  0  0  0  0  0  0  0
    2.2554   -1.7237    0.0000 H   0  0  0  0  0  0  0  0  0  0  0  0
    7.4516    0.4916    0.0000 H   0  0  0  0  0  0  0  0  0  0  0  0
    7.8501   -0.1986    0.0000 H   0  0  0  0  0  0  0  0  0  0  0  0
    3.1951    0.1940    0.0000 H   0  0  0  0  0  0  0  0  0  0  0  0
    7.1962    2.5040    0.0000 H   0  0  0  0  0  0  0  0  0  0  0  0
    1.4631   -2.8060    0.0000 H   0  0  0  0  0  0  0  0  0  0  0  0
    4.2690   -2.8060    0.0000 H   0  0  0  0  0  0  0  0  0  0  0  0
    9.7942    1.0040    0.0000 H   0  0  0  0  0  0  0  0  0  0  0  0
    8.3913   -1.4260    0.0000 H   0  0  0  0  0  0  0  0  0  0  0  0
    1.4631   -4.4260    0.0000 H   0  0  0  0  0  0  0  0  0  0  0  0
    4.2690   -4.4260    0.0000 H   0  0  0  0  0  0  0  0  0  0  0  0
   11.1972    0.1940    0.0000 H   0  0  0  0  0  0  0  0  0  0  0  0
    9.7942   -2.2360    0.0000 H   0  0  0  0  0  0  0  0  0  0  0  0
    2.8660   -5.2360    0.0000 H   0  0  0  0  0  0  0  0  0  0  0  0
   11.1972   -1.4260    0.0000 H   0  0  0  0  0  0  0  0  0  0  0  0
    5.9316   -2.0910    0.0000 H   0  0  0  0  0  0  0  0  0  0  0  0
    6.7287   -2.0910    0.0000 H   0  0  0  0  0  0  0  0  0  0  0  0
   10.0063    2.8014    0.0000 H   0  0  0  0  0  0  0  0  0  0  0  0
   10.4048    3.4916    0.0000 H   0  0  0  0  0  0  0  0  0  0  0  0
    3.1760    3.9209    0.0000 H   0  0  0  0  0  0  0  0  0  0  0  0
    2.3291    3.6940    0.0000 H   0  0  0  0  0  0  0  0  0  0  0  0
    2.5560    2.8470    0.0000 H   0  0  0  0  0  0  0  0  0  0  0  0
    6.0010    4.9260    0.0000 H   0  0  0  0  0  0  0  0  0  0  0  0
    5.1541    5.1530    0.0000 H   0  0  0  0  0  0  0  0  0  0  0  0
    4.9272    4.3060    0.0000 H   0  0  0  0  0  0  0  0  0  0  0  0
    7.5062   -1.6530    0.0000 H   0  0  0  0  0  0  0  0  0  0  0  0
    7.7331   -0.8060    0.0000 H   0  0  0  0  0  0  0  0  0  0  0  0
    6.8862   -0.5791    0.0000 H   0  0  0  0  0  0  0  0  0  0  0  0
   10.4142    4.3840    0.0000 H   0  0  0  0  0  0  0  0  0  0  0  0
    9.7942    5.0040    0.0000 H   0  0  0  0  0  0  0  0  0  0  0  0
    9.1742    4.3840    0.0000 H   0  0  0  0  0  0  0  0  0  0  0  0
 13  1  1  1  0  0  0
  1 29  1  0  0  0  0
 14  2  1  6  0  0  0
  2 30  1  0  0  0  0
  3 23  1  0  0  0  0
  3 37  1  0  0  0  0
  4 24  1  0  0  0  0
  4 38  1  0  0  0  0
  5 19  2  0  0  0  0
  6 20  2  0  0  0  0
  7 23  2  0  0  0  0
  8 24  2  0  0  0  0
  9 29  2  0  0  0  0
 10 30  2  0  0  0  0
 15 11  1  6  0  0  0
 11 19  1  0  0  0  0
 11 51  1  0  0  0  0
 16 12  1  6  0  0  0
 12 20  1  0  0  0  0
 12 52  1  0  0  0  0
 13 14  1  0  0  0  0
 13 19  1  0  0  0  0
 13 43  1  0  0  0  0
 14 20  1  0  0  0  0
 14 44  1  0  0  0  0
 15 17  1  0  0  0  0
 15 23  1  0  0  0  0
 15 45  1  0  0  0  0
 16 18  1  0  0  0  0
 16 24  1  0  0  0  0
 16 46  1  0  0  0  0
 17 21  1  0  0  0  0
 17 47  1  0  0  0  0
 17 48  1  0  0  0  0
 18 22  1  0  0  0  0
 18 49  1  0  0  0  0
 18 50  1  0  0  0  0
 21 25  2  0  0  0  0
 21 26  1  0  0  0  0
 22 27  2  0  0  0  0
 22 28  1  0  0  0  0
 25 31  1  0  0  0  0
 25 53  1  0  0  0  0
 26 32  2  0  0  0  0
 26 54  1  0  0  0  0
 27 33  1  0  0  0  0
 27 55  1  0  0  0  0
 28 34  2  0  0  0  0
 28 56  1  0  0  0  0
 29 39  1  0  0  0  0
 30 40  1  0  0  0  0
 31 35  2  0  0  0  0
 31 57  1  0  0  0  0
 32 35  1  0  0  0  0
 32 58  1  0  0  0  0
 33 36  2  0  0  0  0
 33 59  1  0  0  0  0
 34 36  1  0  0  0  0
 34 60  1  0  0  0  0
 35 61  1  0  0  0  0
 36 62  1  0  0  0  0
 37 41  1  0  0  0  0
 37 63  1  0  0  0  0
 37 64  1  0  0  0  0
 38 42  1  0  0  0  0
 38 65  1  0  0  0  0
 38 66  1  0  0  0  0
 39 67  1  0  0  0  0
 39 68  1  0  0  0  0
 39 69  1  0  0  0  0
 40 70  1  0  0  0  0
 40 71  1  0  0  0  0
 40 72  1  0  0  0  0
 41 73  1  0  0  0  0
 41 74  1  0  0  0  0
 41 75  1  0  0  0  0
 42 76  1  0  0  0  0
 42 77  1  0  0  0  0
 42 78  1  0  0  0  0
M  END
> <PUBCHEM_COMPOUND_CID>
501435
> <PUBCHEM_COMPOUND_CANONICALIZED>
1
> <PUBCHEM_CACTVS_COMPLEXITY>
853
> <PUBCHEM_CACTVS_HBOND_ACCEPTOR>
10
> <PUBCHEM_CACTVS_HBOND_DONOR>
2
> <PUBCHEM_CACTVS_ROTATABLE_BOND>
19
> <PUBCHEM_CACTVS_SUBSKEYS>
AAADcfB7PAAAAAAAAAAAAAAAAAAAAAAAAAAwYAAAAAAAAAABQAAAHgAQAAAADDzhmAYyCILABACIAiHSGAICAAAgAAAIiIHIAIgLIDaAkTWHIAAmtgCaiAedyKCOAAAAAAAAAAAAAAAAAAAAAAAAAAAAAA==
> <PUBCHEM_IUPAC_OPENEYE_NAME>
ethyl (2S)-2-[[(2S,3S)-2,3-diacetoxy-4-[[(1S)-1-benzyl-2-ethoxy-2-oxo-ethyl]amino]-4-oxo-butanoyl]amino]-3-phenyl-propanoate
> <PUBCHEM_IUPAC_CAS_NAME>
(2S)-2-[[(2S,3S)-2,3-diacetyloxy-4-[[(2S)-1-ethoxy-1-oxo-3-phenylpropan-2-yl]amino]-1,4-dioxobutyl]amino]-3-phenylpropanoic acid ethyl ester
> <PUBCHEM_IUPAC_NAME_MARKUP>
ethyl (2<I>S</I>)-2-[[(2<I>S</I>,3<I>S</I>)-2,3-diacetyloxy-4-[[(2<I>S</I>)-1-ethoxy-1-oxo-3-phenylpropan-2-yl]amino]-4-oxobutanoyl]amino]-3-phenylpropanoate
> <PUBCHEM_IUPAC_NAME>
ethyl (2S)-2-[[(2S,3S)-2,3-diacetyloxy-4-[[(2S)-1-ethoxy-1-oxo-3-phenylpropan-2-yl]amino]-4-oxobutanoyl]amino]-3-phenylpropanoate
> <PUBCHEM_IUPAC_SYSTEMATIC_NAME>
ethyl (2S)-2-[[(2S,3S)-2,3-diacetyloxy-4-[[(2S)-1-ethoxy-1-oxidanylidene-3-phenyl-propan-2-yl]amino]-4-oxidanylidene-butanoyl]amino]-3-phenyl-propanoate
> <PUBCHEM_IUPAC_TRADITIONAL_NAME>
(2S)-2-[[(2S,3S)-2,3-diacetoxy-4-[[(1S)-1-benzyl-2-ethoxy-2-keto-ethyl]amino]-4-keto-butanoyl]amino]-3-phenyl-propionic acid ethyl ester
> <PUBCHEM_IUPAC_INCHI>
InChI=1S/C30H36N2O10/c1-5-39-29(37)23(17-21-13-9-7-10-14-21)31-27(35)25(41-19(3)33)26(42-20(4)34)28(36)32-24(30(38)40-6-2)18-22-15-11-8-12-16-22/h7-16,23-26H,5-6,17-18H2,1-4H3,(H,31,35)(H,32,36)/t23-,24-,25-,26-/m0/s1
> <PUBCHEM_IUPAC_INCHIKEY>
QGRNJVXGADKLSR-CQJMVLFOSA-N
> <PUBCHEM_XLOGP3_AA>
3.3
> <PUBCHEM_EXACT_MASS>
584.23699535
> <PUBCHEM_MOLECULAR_FORMULA>
C30H36N2O10
> <PUBCHEM_MOLECULAR_WEIGHT>
584.6
> <PUBCHEM_OPENEYE_CAN_SMILES>
CCOC(=O)C(CC1=CC=CC=C1)NC(=O)C(C(C(=O)NC(CC2=CC=CC=C2)C(=O)OCC)OC(=O)C)OC(=O)C
> <PUBCHEM_OPENEYE_ISO_SMILES>
CCOC(=O)[C@H](CC1=CC=CC=C1)NC(=O)[C@H]([C@@H](C(=O)N[C@@H](CC2=CC=CC=C2)C(=O)OCC)OC(=O)C)OC(=O)C
> <PUBCHEM_CACTVS_TPSA>
163
> <PUBCHEM_MONOISOTOPIC_WEIGHT>
584.23699535
> <PUBCHEM_TOTAL_CHARGE>
0
> <PUBCHEM_HEAVY_ATOM_COUNT>
42
> <PUBCHEM_ATOM_DEF_STEREO_COUNT>
4
> <PUBCHEM_ATOM_UDEF_STEREO_COUNT>
0
> <PUBCHEM_BOND_DEF_STEREO_COUNT>
0
> <PUBCHEM_BOND_UDEF_STEREO_COUNT>
0
> <PUBCHEM_ISOTOPIC_ATOM_COUNT>
0
> <PUBCHEM_COMPONENT_COUNT>
1
> <PUBCHEM_CACTVS_TAUTO_COUNT>
-1
> <PUBCHEM_COORDINATE_TYPE>
1
5
255
> <PUBCHEM_BONDANNOTATIONS>
13  1  5
15  11  6
16  12  6
14  2  6
21  25  8
21  26  8
22  27  8
22  28  8
25  31  8
26  32  8
27  33  8
28  34  8
31  35  8
32  35  8
33  36  8
34  36  8
$$$$
