501493
  -OEChem-10302200282D
 38 41  0     1  0  0  0  0  0999 V2000
    6.3981   -1.7500    0.0000 O   0  0  0  0  0  0  0  0  0  0  0  0
    4.6660    1.2500    0.0000 O   0  0  0  0  0  0  0  0  0  0  0  0
    7.2641   -1.2500    0.0000 O   0  0  0  0  0  0  0  0  0  0  0  0
    4.6660   -2.7500    0.0000 O   0  0  0  0  0  0  0  0  0  0  0  0
    5.5321    1.7500    0.0000 O   0  0  0  0  0  0  0  0  0  0  0  0
    7.2641    2.7500    0.0000 O   0  0  0  0  0  0  0  0  0  0  0  0
    5.5321   -0.2500    0.0000 C   0  0  3  0  0  0  0  0  0  0  0  0
    5.5321   -1.2500    0.0000 C   0  0  3  0  0  0  0  0  0  0  0  0
    6.3981    0.2500    0.0000 C   0  0  0  0  0  0  0  0  0  0  0  0
    4.6660    0.2500    0.0000 C   0  0  0  0  0  0  0  0  0  0  0  0
    3.8000   -0.2500    0.0000 C   0  0  0  0  0  0  0  0  0  0  0  0
    4.6660   -1.7500    0.0000 C   0  0  0  0  0  0  0  0  0  0  0  0
    3.8000   -1.2500    0.0000 C   0  0  0  0  0  0  0  0  0  0  0  0
    7.2641   -0.2500    0.0000 C   0  0  0  0  0  0  0  0  0  0  0  0
    6.3981    1.2500    0.0000 C   0  0  0  0  0  0  0  0  0  0  0  0
    8.1301    0.2500    0.0000 C   0  0  0  0  0  0  0  0  0  0  0  0
    8.1301    1.2500    0.0000 C   0  0  0  0  0  0  0  0  0  0  0  0
    7.2641    1.7500    0.0000 C   0  0  0  0  0  0  0  0  0  0  0  0
    2.9061    0.2847    0.0000 C   0  0  0  0  0  0  0  0  0  0  0  0
    2.9061   -1.7847    0.0000 C   0  0  0  0  0  0  0  0  0  0  0  0
    9.0241   -0.2847    0.0000 C   0  0  0  0  0  0  0  0  0  0  0  0
    2.0000   -0.2292    0.0000 C   0  0  0  0  0  0  0  0  0  0  0  0
    2.0000   -1.2708    0.0000 C   0  0  0  0  0  0  0  0  0  0  0  0
    9.0241    1.7847    0.0000 C   0  0  0  0  0  0  0  0  0  0  0  0
    9.9301    0.2292    0.0000 C   0  0  0  0  0  0  0  0  0  0  0  0
    9.9301    1.2708    0.0000 C   0  0  0  0  0  0  0  0  0  0  0  0
    5.5321    0.3700    0.0000 H   0  0  0  0  0  0  0  0  0  0  0  0
    5.5321   -1.8700    0.0000 H   0  0  0  0  0  0  0  0  0  0  0  0
    2.9132    0.9046    0.0000 H   0  0  0  0  0  0  0  0  0  0  0  0
    2.9132   -2.4046    0.0000 H   0  0  0  0  0  0  0  0  0  0  0  0
    6.3981   -2.3700    0.0000 H   0  0  0  0  0  0  0  0  0  0  0  0
    9.0169   -0.9046    0.0000 H   0  0  0  0  0  0  0  0  0  0  0  0
    1.4643    0.0829    0.0000 H   0  0  0  0  0  0  0  0  0  0  0  0
    1.4643   -1.5829    0.0000 H   0  0  0  0  0  0  0  0  0  0  0  0
    9.0169    2.4046    0.0000 H   0  0  0  0  0  0  0  0  0  0  0  0
    7.8010   -1.5600    0.0000 H   0  0  0  0  0  0  0  0  0  0  0  0
   10.4659   -0.0829    0.0000 H   0  0  0  0  0  0  0  0  0  0  0  0
   10.4659    1.5829    0.0000 H   0  0  0  0  0  0  0  0  0  0  0  0
  1  8  1  0  0  0  0
  1 31  1  0  0  0  0
  2 10  2  0  0  0  0
  3 14  1  0  0  0  0
  3 36  1  0  0  0  0
  4 12  2  0  0  0  0
  5 15  2  0  0  0  0
  6 18  2  0  0  0  0
  7  8  1  0  0  0  0
  7  9  1  0  0  0  0
  7 10  1  0  0  0  0
  7 27  1  0  0  0  0
  8 12  1  0  0  0  0
  8 28  1  0  0  0  0
  9 14  2  0  0  0  0
  9 15  1  0  0  0  0
 10 11  1  0  0  0  0
 11 13  1  0  0  0  0
 11 19  2  0  0  0  0
 12 13  1  0  0  0  0
 13 20  2  0  0  0  0
 14 16  1  0  0  0  0
 15 18  1  0  0  0  0
 16 17  1  0  0  0  0
 16 21  2  0  0  0  0
 17 18  1  0  0  0  0
 17 24  2  0  0  0  0
 19 22  1  0  0  0  0
 19 29  1  0  0  0  0
 20 23  1  0  0  0  0
 20 30  1  0  0  0  0
 21 25  1  0  0  0  0
 21 32  1  0  0  0  0
 22 23  2  0  0  0  0
 22 33  1  0  0  0  0
 23 34  1  0  0  0  0
 24 26  1  0  0  0  0
 24 35  1  0  0  0  0
 25 26  2  0  0  0  0
 25 37  1  0  0  0  0
 26 38  1  0  0  0  0
M  END
> <PUBCHEM_COMPOUND_CID>
501493
> <PUBCHEM_COMPOUND_CANONICALIZED>
1
> <PUBCHEM_CACTVS_COMPLEXITY>
720
> <PUBCHEM_CACTVS_HBOND_ACCEPTOR>
6
> <PUBCHEM_CACTVS_HBOND_DONOR>
2
> <PUBCHEM_CACTVS_ROTATABLE_BOND>
1
> <PUBCHEM_CACTVS_SUBSKEYS>
AAADccB4OAAAAAAAAAAAAAAAAAAAAAAAAAAwYMEAAAAAAADBQAAAGgAACAAADRSgmAIwAIAAAgCIAqBSAAICAAAkIAAIiAFACMgINjaAFRCAcQAk4AEImYeLzvDugAAAAAAQAADAAAYAADAAAAAAAAAAAA==
> <PUBCHEM_IUPAC_OPENEYE_NAME>
4-hydroxy-3-(3-hydroxy-1,4-dioxo-tetralin-2-yl)naphthalene-1,2-dione
> <PUBCHEM_IUPAC_CAS_NAME>
4-hydroxy-3-(3-hydroxy-1,4-dioxo-2,3-dihydronaphthalen-2-yl)naphthalene-1,2-dione
> <PUBCHEM_IUPAC_NAME_MARKUP>
4-hydroxy-3-(3-hydroxy-1,4-dioxo-2,3-dihydronaphthalen-2-yl)naphthalene-1,2-dione
> <PUBCHEM_IUPAC_NAME>
4-hydroxy-3-(3-hydroxy-1,4-dioxo-2,3-dihydronaphthalen-2-yl)naphthalene-1,2-dione
> <PUBCHEM_IUPAC_SYSTEMATIC_NAME>
4-oxidanyl-3-[3-oxidanyl-1,4-bis(oxidanylidene)-2,3-dihydronaphthalen-2-yl]naphthalene-1,2-dione
> <PUBCHEM_IUPAC_TRADITIONAL_NAME>
4-hydroxy-3-(3-hydroxy-1,4-diketo-tetralin-2-yl)-1,2-naphthoquinone
> <PUBCHEM_IUPAC_INCHI>
InChI=1S/C20H12O6/c21-15-9-5-1-3-7-11(9)17(23)19(25)13(15)14-16(22)10-6-2-4-8-12(10)18(24)20(14)26/h1-8,13,19,22,25H
> <PUBCHEM_IUPAC_INCHIKEY>
GTSWLCDQVMDOAH-UHFFFAOYSA-N
> <PUBCHEM_XLOGP3_AA>
1.2
> <PUBCHEM_EXACT_MASS>
348.06338810
> <PUBCHEM_MOLECULAR_FORMULA>
C20H12O6
> <PUBCHEM_MOLECULAR_WEIGHT>
348.3
> <PUBCHEM_OPENEYE_CAN_SMILES>
C1=CC=C2C(=C1)C(=O)C(C(C2=O)O)C3=C(C4=CC=CC=C4C(=O)C3=O)O
> <PUBCHEM_OPENEYE_ISO_SMILES>
C1=CC=C2C(=C1)C(=O)C(C(C2=O)O)C3=C(C4=CC=CC=C4C(=O)C3=O)O
> <PUBCHEM_CACTVS_TPSA>
109
> <PUBCHEM_MONOISOTOPIC_WEIGHT>
348.06338810
> <PUBCHEM_TOTAL_CHARGE>
0
> <PUBCHEM_HEAVY_ATOM_COUNT>
26
> <PUBCHEM_ATOM_DEF_STEREO_COUNT>
0
> <PUBCHEM_ATOM_UDEF_STEREO_COUNT>
2
> <PUBCHEM_BOND_DEF_STEREO_COUNT>
0
> <PUBCHEM_BOND_UDEF_STEREO_COUNT>
0
> <PUBCHEM_ISOTOPIC_ATOM_COUNT>
0
> <PUBCHEM_COMPONENT_COUNT>
1
> <PUBCHEM_CACTVS_TAUTO_COUNT>
-1
> <PUBCHEM_COORDINATE_TYPE>
1
5
255
> <PUBCHEM_BONDANNOTATIONS>
8  1  3
11  13  8
11  19  8
13  20  8
16  17  8
16  21  8
17  24  8
19  22  8
20  23  8
21  25  8
22  23  8
24  26  8
25  26  8
7  9  3
$$$$
