501453
  -OEChem-10302200282D
 89 93  0     1  0  0  0  0  0999 V2000
    9.6037   -1.5433    0.0000 S   0  0  0  0  0  0  0  0  0  0  0  0
   10.5376    1.5483    0.0000 O   0  0  0  0  0  0  0  0  0  0  0  0
    8.6698    1.5483    0.0000 O   0  0  0  0  0  0  0  0  0  0  0  0
    9.1698   -2.4442    0.0000 O   0  0  0  0  0  0  0  0  0  0  0  0
   10.0376   -2.4442    0.0000 O   0  0  0  0  0  0  0  0  0  0  0  0
   11.9969    1.0436    0.0000 O   0  0  0  0  0  0  0  0  0  0  0  0
    7.2106    1.0436    0.0000 O   0  0  0  0  0  0  0  0  0  0  0  0
   16.7227   -0.5297    0.0000 O   0  0  0  0  0  0  0  0  0  0  0  0
    2.4847   -0.5297    0.0000 O   0  0  0  0  0  0  0  0  0  0  0  0
   10.5047   -1.1094    0.0000 N   0  0  3  0  0  0  0  0  0  0  0  0
    8.7028   -1.1094    0.0000 N   0  0  3  0  0  0  0  0  0  0  0  0
   10.7272   -0.1345    0.0000 C   0  0  1  0  0  0  0  0  0  0  0  0
    8.4802   -0.1345    0.0000 C   0  0  1  0  0  0  0  0  0  0  0  0
   10.1037    0.6474    0.0000 C   0  0  1  0  0  0  0  0  0  0  0  0
    9.1037    0.6474    0.0000 C   0  0  1  0  0  0  0  0  0  0  0  0
   11.7022    0.0881    0.0000 C   0  0  0  0  0  0  0  0  0  0  0  0
    7.5053    0.0881    0.0000 C   0  0  0  0  0  0  0  0  0  0  0  0
   11.2865   -1.7329    0.0000 C   0  0  0  0  0  0  0  0  0  0  0  0
    7.9209   -1.7329    0.0000 C   0  0  0  0  0  0  0  0  0  0  0  0
   12.2174   -1.3675    0.0000 C   0  0  0  0  0  0  0  0  0  0  0  0
    6.9901   -1.3675    0.0000 C   0  0  0  0  0  0  0  0  0  0  0  0
   12.9992   -1.9910    0.0000 C   0  0  0  0  0  0  0  0  0  0  0  0
   12.3665   -0.3787    0.0000 C   0  0  0  0  0  0  0  0  0  0  0  0
    6.2082   -1.9910    0.0000 C   0  0  0  0  0  0  0  0  0  0  0  0
    6.8410   -0.3787    0.0000 C   0  0  0  0  0  0  0  0  0  0  0  0
   12.9718    1.2662    0.0000 C   0  0  0  0  0  0  0  0  0  0  0  0
    6.2356    1.2662    0.0000 C   0  0  0  0  0  0  0  0  0  0  0  0
   13.9301   -1.6257    0.0000 C   0  0  0  0  0  0  0  0  0  0  0  0
   13.2973   -0.0134    0.0000 C   0  0  0  0  0  0  0  0  0  0  0  0
    5.2774   -1.6257    0.0000 C   0  0  0  0  0  0  0  0  0  0  0  0
    5.9102   -0.0134    0.0000 C   0  0  0  0  0  0  0  0  0  0  0  0
   14.0792   -0.6369    0.0000 C   0  0  0  0  0  0  0  0  0  0  0  0
    5.1283   -0.6369    0.0000 C   0  0  0  0  0  0  0  0  0  0  0  0
   13.6520    0.5331    0.0000 C   0  0  0  0  0  0  0  0  0  0  0  0
   13.2666    2.2217    0.0000 C   0  0  0  0  0  0  0  0  0  0  0  0
    5.9409    2.2217    0.0000 C   0  0  0  0  0  0  0  0  0  0  0  0
    5.5555    0.5331    0.0000 C   0  0  0  0  0  0  0  0  0  0  0  0
   15.0100   -0.2715    0.0000 C   0  0  0  0  0  0  0  0  0  0  0  0
    4.1974   -0.2715    0.0000 C   0  0  0  0  0  0  0  0  0  0  0  0
   14.6269    0.7556    0.0000 C   0  0  0  0  0  0  0  0  0  0  0  0
   14.2415    2.4442    0.0000 C   0  0  0  0  0  0  0  0  0  0  0  0
    4.9660    2.4442    0.0000 C   0  0  0  0  0  0  0  0  0  0  0  0
    4.5805    0.7556    0.0000 C   0  0  0  0  0  0  0  0  0  0  0  0
   15.7919   -0.8950    0.0000 C   0  0  0  0  0  0  0  0  0  0  0  0
    3.4156   -0.8950    0.0000 C   0  0  0  0  0  0  0  0  0  0  0  0
   14.9217    1.7112    0.0000 C   0  0  0  0  0  0  0  0  0  0  0  0
    4.2858    1.7112    0.0000 C   0  0  0  0  0  0  0  0  0  0  0  0
   11.1656   -0.5729    0.0000 H   0  0  0  0  0  0  0  0  0  0  0  0
    8.0418   -0.5729    0.0000 H   0  0  0  0  0  0  0  0  0  0  0  0
    9.7739    1.1723    0.0000 H   0  0  0  0  0  0  0  0  0  0  0  0
    8.4876    0.7168    0.0000 H   0  0  0  0  0  0  0  0  0  0  0  0
   11.7331   -0.5312    0.0000 H   0  0  0  0  0  0  0  0  0  0  0  0
   12.3173    0.0110    0.0000 H   0  0  0  0  0  0  0  0  0  0  0  0
    6.8901    0.0110    0.0000 H   0  0  0  0  0  0  0  0  0  0  0  0
    7.4744   -0.5312    0.0000 H   0  0  0  0  0  0  0  0  0  0  0  0
   10.8217   -2.1431    0.0000 H   0  0  0  0  0  0  0  0  0  0  0  0
   11.6098   -2.2619    0.0000 H   0  0  0  0  0  0  0  0  0  0  0  0
    7.5976   -2.2619    0.0000 H   0  0  0  0  0  0  0  0  0  0  0  0
    8.3858   -2.1431    0.0000 H   0  0  0  0  0  0  0  0  0  0  0  0
   10.1884    2.0606    0.0000 H   0  0  0  0  0  0  0  0  0  0  0  0
    9.0191    2.0606    0.0000 H   0  0  0  0  0  0  0  0  0  0  0  0
   12.9068   -2.6041    0.0000 H   0  0  0  0  0  0  0  0  0  0  0  0
   11.8817    0.0079    0.0000 H   0  0  0  0  0  0  0  0  0  0  0  0
    6.3006   -2.6041    0.0000 H   0  0  0  0  0  0  0  0  0  0  0  0
    7.3258    0.0079    0.0000 H   0  0  0  0  0  0  0  0  0  0  0  0
   14.4149   -2.0122    0.0000 H   0  0  0  0  0  0  0  0  0  0  0  0
   13.3897    0.5997    0.0000 H   0  0  0  0  0  0  0  0  0  0  0  0
    4.7926   -2.0122    0.0000 H   0  0  0  0  0  0  0  0  0  0  0  0
    5.8177    0.5997    0.0000 H   0  0  0  0  0  0  0  0  0  0  0  0
   13.4693   -0.0594    0.0000 H   0  0  0  0  0  0  0  0  0  0  0  0
   12.8449    2.6762    0.0000 H   0  0  0  0  0  0  0  0  0  0  0  0
    6.3626    2.6762    0.0000 H   0  0  0  0  0  0  0  0  0  0  0  0
    5.7382   -0.0594    0.0000 H   0  0  0  0  0  0  0  0  0  0  0  0
   15.4749    0.1387    0.0000 H   0  0  0  0  0  0  0  0  0  0  0  0
   14.6867    0.2575    0.0000 H   0  0  0  0  0  0  0  0  0  0  0  0
    4.5207    0.2575    0.0000 H   0  0  0  0  0  0  0  0  0  0  0  0
    3.7326    0.1387    0.0000 H   0  0  0  0  0  0  0  0  0  0  0  0
   15.0486    0.3011    0.0000 H   0  0  0  0  0  0  0  0  0  0  0  0
   14.4243    3.0367    0.0000 H   0  0  0  0  0  0  0  0  0  0  0  0
    4.7832    3.0367    0.0000 H   0  0  0  0  0  0  0  0  0  0  0  0
    4.1588    0.3011    0.0000 H   0  0  0  0  0  0  0  0  0  0  0  0
   15.3270   -1.3052    0.0000 H   0  0  0  0  0  0  0  0  0  0  0  0
   16.1152   -1.4240    0.0000 H   0  0  0  0  0  0  0  0  0  0  0  0
    3.0923   -1.4240    0.0000 H   0  0  0  0  0  0  0  0  0  0  0  0
    3.8805   -1.3052    0.0000 H   0  0  0  0  0  0  0  0  0  0  0  0
   15.5261    1.8492    0.0000 H   0  0  0  0  0  0  0  0  0  0  0  0
    3.6813    1.8492    0.0000 H   0  0  0  0  0  0  0  0  0  0  0  0
   17.2075   -0.9162    0.0000 H   0  0  0  0  0  0  0  0  0  0  0  0
    2.0000   -0.9162    0.0000 H   0  0  0  0  0  0  0  0  0  0  0  0
  1  4  2  0  0  0  0
  1  5  2  0  0  0  0
  1 10  1  0  0  0  0
  1 11  1  0  0  0  0
 14  2  1  1  0  0  0
  2 60  1  0  0  0  0
 15  3  1  6  0  0  0
  3 61  1  0  0  0  0
  6 16  1  0  0  0  0
  6 26  1  0  0  0  0
  7 17  1  0  0  0  0
  7 27  1  0  0  0  0
  8 44  1  0  0  0  0
  8 88  1  0  0  0  0
  9 45  1  0  0  0  0
  9 89  1  0  0  0  0
 10 12  1  0  0  0  0
 10 18  1  0  0  0  0
 11 13  1  0  0  0  0
 11 19  1  0  0  0  0
 12 14  1  0  0  0  0
 12 16  1  1  0  0  0
 12 48  1  0  0  0  0
 13 15  1  0  0  0  0
 13 17  1  6  0  0  0
 13 49  1  0  0  0  0
 14 15  1  0  0  0  0
 14 50  1  0  0  0  0
 15 51  1  0  0  0  0
 16 52  1  0  0  0  0
 16 53  1  0  0  0  0
 17 54  1  0  0  0  0
 17 55  1  0  0  0  0
 18 20  1  0  0  0  0
 18 56  1  0  0  0  0
 18 57  1  0  0  0  0
 19 21  1  0  0  0  0
 19 58  1  0  0  0  0
 19 59  1  0  0  0  0
 20 22  2  0  0  0  0
 20 23  1  0  0  0  0
 21 24  2  0  0  0  0
 21 25  1  0  0  0  0
 22 28  1  0  0  0  0
 22 62  1  0  0  0  0
 23 29  2  0  0  0  0
 23 63  1  0  0  0  0
 24 30  1  0  0  0  0
 24 64  1  0  0  0  0
 25 31  2  0  0  0  0
 25 65  1  0  0  0  0
 26 34  2  0  0  0  0
 26 35  1  0  0  0  0
 27 36  2  0  0  0  0
 27 37  1  0  0  0  0
 28 32  2  0  0  0  0
 28 66  1  0  0  0  0
 29 32  1  0  0  0  0
 29 67  1  0  0  0  0
 30 33  2  0  0  0  0
 30 68  1  0  0  0  0
 31 33  1  0  0  0  0
 31 69  1  0  0  0  0
 32 38  1  0  0  0  0
 33 39  1  0  0  0  0
 34 40  1  0  0  0  0
 34 70  1  0  0  0  0
 35 41  2  0  0  0  0
 35 71  1  0  0  0  0
 36 42  1  0  0  0  0
 36 72  1  0  0  0  0
 37 43  2  0  0  0  0
 37 73  1  0  0  0  0
 38 44  1  0  0  0  0
 38 74  1  0  0  0  0
 38 75  1  0  0  0  0
 39 45  1  0  0  0  0
 39 76  1  0  0  0  0
 39 77  1  0  0  0  0
 40 46  2  0  0  0  0
 40 78  1  0  0  0  0
 41 46  1  0  0  0  0
 41 79  1  0  0  0  0
 42 47  2  0  0  0  0
 42 80  1  0  0  0  0
 43 47  1  0  0  0  0
 43 81  1  0  0  0  0
 44 82  1  0  0  0  0
 44 83  1  0  0  0  0
 45 84  1  0  0  0  0
 45 85  1  0  0  0  0
 46 86  1  0  0  0  0
 47 87  1  0  0  0  0
M  END
> <PUBCHEM_COMPOUND_CID>
501453
> <PUBCHEM_COMPOUND_CANONICALIZED>
1
> <PUBCHEM_CACTVS_COMPLEXITY>
913
> <PUBCHEM_CACTVS_HBOND_ACCEPTOR>
10
> <PUBCHEM_CACTVS_HBOND_DONOR>
4
> <PUBCHEM_CACTVS_ROTATABLE_BOND>
14
> <PUBCHEM_CACTVS_SUBSKEYS>
AAADcfB/PABAAAAAAAAAAAAAAAAAAAAAAAAwYMGABYAAAAABVAAAHgAASAAADDzhmAYwBoIABgCAAiBCADCCCAAgIAAIiAAODIgPNiKEsRuHeCjnwBGZqAfQ0OMOQAAAAAAAAACAAAAAAAAAAAAAAAAAAA==
> <PUBCHEM_IUPAC_OPENEYE_NAME>
(3R,4S,5S,6R)-2,7-bis[[4-(2-hydroxyethyl)phenyl]methyl]-1,1-dioxo-3,6-bis(phenoxymethyl)-1,2,7-thiadiazepane-4,5-diol
> <PUBCHEM_IUPAC_CAS_NAME>
(3R,4S,5S,6R)-2,7-bis[[4-(2-hydroxyethyl)phenyl]methyl]-1,1-dioxo-3,6-bis(phenoxymethyl)-1,2,7-thiadiazepane-4,5-diol
> <PUBCHEM_IUPAC_NAME_MARKUP>
(3<I>R</I>,4<I>S</I>,5<I>S</I>,6<I>R</I>)-2,7-bis[[4-(2-hydroxyethyl)phenyl]methyl]-1,1-dioxo-3,6-bis(phenoxymethyl)-1,2,7-thiadiazepane-4,5-diol
> <PUBCHEM_IUPAC_NAME>
(3R,4S,5S,6R)-2,7-bis[[4-(2-hydroxyethyl)phenyl]methyl]-1,1-dioxo-3,6-bis(phenoxymethyl)-1,2,7-thiadiazepane-4,5-diol
> <PUBCHEM_IUPAC_SYSTEMATIC_NAME>
(3R,4S,5S,6R)-2,7-bis[[4-(2-hydroxyethyl)phenyl]methyl]-1,1-bis(oxidanylidene)-3,6-bis(phenoxymethyl)-1,2,7-thiadiazepane-4,5-diol
> <PUBCHEM_IUPAC_TRADITIONAL_NAME>
(3R,4S,5S,6R)-2,7-bis[4-(2-hydroxyethyl)benzyl]-1,1-diketo-3,6-bis(phenoxymethyl)-1,2,7-thiadiazepane-4,5-diol
> <PUBCHEM_IUPAC_INCHI>
InChI=1S/C36H42N2O8S/c39-21-19-27-11-15-29(16-12-27)23-37-33(25-45-31-7-3-1-4-8-31)35(41)36(42)34(26-46-32-9-5-2-6-10-32)38(47(37,43)44)24-30-17-13-28(14-18-30)20-22-40/h1-18,33-36,39-42H,19-26H2/t33-,34-,35+,36+/m1/s1
> <PUBCHEM_IUPAC_INCHIKEY>
FLWGCZLEWCVFTG-NWJWHWDBSA-N
> <PUBCHEM_XLOGP3_AA>
3.6
> <PUBCHEM_EXACT_MASS>
662.26618748
> <PUBCHEM_MOLECULAR_FORMULA>
C36H42N2O8S
> <PUBCHEM_MOLECULAR_WEIGHT>
662.8
> <PUBCHEM_OPENEYE_CAN_SMILES>
C1=CC=C(C=C1)OCC2C(C(C(N(S(=O)(=O)N2CC3=CC=C(C=C3)CCO)CC4=CC=C(C=C4)CCO)COC5=CC=CC=C5)O)O
> <PUBCHEM_OPENEYE_ISO_SMILES>
C1=CC=C(C=C1)OC[C@@H]2[C@@H]([C@H]([C@H](N(S(=O)(=O)N2CC3=CC=C(C=C3)CCO)CC4=CC=C(C=C4)CCO)COC5=CC=CC=C5)O)O
> <PUBCHEM_CACTVS_TPSA>
148
> <PUBCHEM_MONOISOTOPIC_WEIGHT>
662.26618748
> <PUBCHEM_TOTAL_CHARGE>
0
> <PUBCHEM_HEAVY_ATOM_COUNT>
47
> <PUBCHEM_ATOM_DEF_STEREO_COUNT>
4
> <PUBCHEM_ATOM_UDEF_STEREO_COUNT>
0
> <PUBCHEM_BOND_DEF_STEREO_COUNT>
0
> <PUBCHEM_BOND_UDEF_STEREO_COUNT>
0
> <PUBCHEM_ISOTOPIC_ATOM_COUNT>
0
> <PUBCHEM_COMPONENT_COUNT>
1
> <PUBCHEM_CACTVS_TAUTO_COUNT>
-1
> <PUBCHEM_COORDINATE_TYPE>
1
5
255
> <PUBCHEM_BONDANNOTATIONS>
12  16  5
13  17  6
14  2  5
20  22  8
20  23  8
21  24  8
21  25  8
22  28  8
23  29  8
24  30  8
25  31  8
26  34  8
26  35  8
27  36  8
27  37  8
28  32  8
29  32  8
15  3  6
30  33  8
31  33  8
34  40  8
35  41  8
36  42  8
37  43  8
40  46  8
41  46  8
42  47  8
43  47  8
$$$$
