501433
  -OEChem-10302200282D
 70 71  0     1  0  0  0  0  0999 V2000
    6.3301   -0.2500    0.0000 O   0  0  0  0  0  0  0  0  0  0  0  0
    3.7320    0.2500    0.0000 O   0  0  0  0  0  0  0  0  0  0  0  0
    8.0622    2.7500    0.0000 O   0  0  0  0  0  0  0  0  0  0  0  0
    5.4641   -2.7500    0.0000 O   0  0  0  0  0  0  0  0  0  0  0  0
    4.5981    1.7500    0.0000 O   0  0  0  0  0  0  0  0  0  0  0  0
    5.4641   -1.7500    0.0000 O   0  0  0  0  0  0  0  0  0  0  0  0
    7.1962    4.2500    0.0000 O   0  0  0  0  0  0  0  0  0  0  0  0
    4.5981   -4.2500    0.0000 O   0  0  0  0  0  0  0  0  0  0  0  0
    5.4641    7.2500    0.0000 O   0  0  0  0  0  0  0  0  0  0  0  0
    2.8660   -7.2500    0.0000 O   0  0  0  0  0  0  0  0  0  0  0  0
    6.3301    1.7500    0.0000 N   0  0  0  0  0  0  0  0  0  0  0  0
    3.7320   -1.7500    0.0000 N   0  0  0  0  0  0  0  0  0  0  0  0
    6.3301    2.7500    0.0000 C   0  0  1  0  0  0  0  0  0  0  0  0
    3.7320   -2.7500    0.0000 C   0  0  1  0  0  0  0  0  0  0  0  0
    5.4641    0.2500    0.0000 C   0  0  1  0  0  0  0  0  0  0  0  0
    4.5981   -0.2500    0.0000 C   0  0  1  0  0  0  0  0  0  0  0  0
    5.4641    3.2500    0.0000 C   0  0  0  0  0  0  0  0  0  0  0  0
    2.8660   -3.2500    0.0000 C   0  0  0  0  0  0  0  0  0  0  0  0
    5.4641    1.2500    0.0000 C   0  0  0  0  0  0  0  0  0  0  0  0
    4.5981   -1.2500    0.0000 C   0  0  0  0  0  0  0  0  0  0  0  0
    5.4641    4.2500    0.0000 C   0  0  0  0  0  0  0  0  0  0  0  0
    2.8660   -4.2500    0.0000 C   0  0  0  0  0  0  0  0  0  0  0  0
    7.1962    3.2500    0.0000 C   0  0  0  0  0  0  0  0  0  0  0  0
    4.5981   -3.2500    0.0000 C   0  0  0  0  0  0  0  0  0  0  0  0
    6.3301    4.7500    0.0000 C   0  0  0  0  0  0  0  0  0  0  0  0
    4.5981    4.7500    0.0000 C   0  0  0  0  0  0  0  0  0  0  0  0
    2.0000   -4.7500    0.0000 C   0  0  0  0  0  0  0  0  0  0  0  0
    3.7320   -4.7500    0.0000 C   0  0  0  0  0  0  0  0  0  0  0  0
    6.3301    5.7500    0.0000 C   0  0  0  0  0  0  0  0  0  0  0  0
    4.5981    5.7500    0.0000 C   0  0  0  0  0  0  0  0  0  0  0  0
    2.0000   -5.7500    0.0000 C   0  0  0  0  0  0  0  0  0  0  0  0
    3.7320   -5.7500    0.0000 C   0  0  0  0  0  0  0  0  0  0  0  0
    5.4641    6.2500    0.0000 C   0  0  0  0  0  0  0  0  0  0  0  0
    2.8660   -6.2500    0.0000 C   0  0  0  0  0  0  0  0  0  0  0  0
    8.9282    3.2500    0.0000 C   0  0  0  0  0  0  0  0  0  0  0  0
    6.3301   -3.2500    0.0000 C   0  0  0  0  0  0  0  0  0  0  0  0
    9.7942    2.7500    0.0000 C   0  0  0  0  0  0  0  0  0  0  0  0
    7.1962   -2.7500    0.0000 C   0  0  0  0  0  0  0  0  0  0  0  0
    6.8671    2.4400    0.0000 H   0  0  0  0  0  0  0  0  0  0  0  0
    4.2690   -2.4400    0.0000 H   0  0  0  0  0  0  0  0  0  0  0  0
    5.4641   -0.3700    0.0000 H   0  0  0  0  0  0  0  0  0  0  0  0
    4.5981    0.3700    0.0000 H   0  0  0  0  0  0  0  0  0  0  0  0
    4.8535    3.3577    0.0000 H   0  0  0  0  0  0  0  0  0  0  0  0
    5.2520    2.6674    0.0000 H   0  0  0  0  0  0  0  0  0  0  0  0
    2.6540   -2.6674    0.0000 H   0  0  0  0  0  0  0  0  0  0  0  0
    2.2554   -3.3577    0.0000 H   0  0  0  0  0  0  0  0  0  0  0  0
    6.8671    1.4400    0.0000 H   0  0  0  0  0  0  0  0  0  0  0  0
    3.1951   -1.4400    0.0000 H   0  0  0  0  0  0  0  0  0  0  0  0
    6.8671    4.4400    0.0000 H   0  0  0  0  0  0  0  0  0  0  0  0
    4.0611    4.4400    0.0000 H   0  0  0  0  0  0  0  0  0  0  0  0
    1.4631   -4.4400    0.0000 H   0  0  0  0  0  0  0  0  0  0  0  0
    4.2690   -4.4400    0.0000 H   0  0  0  0  0  0  0  0  0  0  0  0
    6.8671    0.0600    0.0000 H   0  0  0  0  0  0  0  0  0  0  0  0
    3.7320    0.8700    0.0000 H   0  0  0  0  0  0  0  0  0  0  0  0
    6.8671    6.0600    0.0000 H   0  0  0  0  0  0  0  0  0  0  0  0
    4.0611    6.0600    0.0000 H   0  0  0  0  0  0  0  0  0  0  0  0
    1.4631   -6.0600    0.0000 H   0  0  0  0  0  0  0  0  0  0  0  0
    4.2690   -6.0600    0.0000 H   0  0  0  0  0  0  0  0  0  0  0  0
    9.3267    3.7250    0.0000 H   0  0  0  0  0  0  0  0  0  0  0  0
    8.5297    3.7250    0.0000 H   0  0  0  0  0  0  0  0  0  0  0  0
    5.9316   -3.7250    0.0000 H   0  0  0  0  0  0  0  0  0  0  0  0
    6.7287   -3.7250    0.0000 H   0  0  0  0  0  0  0  0  0  0  0  0
    9.4842    2.2131    0.0000 H   0  0  0  0  0  0  0  0  0  0  0  0
   10.3312    2.4400    0.0000 H   0  0  0  0  0  0  0  0  0  0  0  0
   10.1042    3.2869    0.0000 H   0  0  0  0  0  0  0  0  0  0  0  0
    7.5062   -3.2869    0.0000 H   0  0  0  0  0  0  0  0  0  0  0  0
    7.7331   -2.4400    0.0000 H   0  0  0  0  0  0  0  0  0  0  0  0
    6.8862   -2.2131    0.0000 H   0  0  0  0  0  0  0  0  0  0  0  0
    4.9272    7.5600    0.0000 H   0  0  0  0  0  0  0  0  0  0  0  0
    2.3291   -7.5600    0.0000 H   0  0  0  0  0  0  0  0  0  0  0  0
 15  1  1  1  0  0  0
  1 53  1  0  0  0  0
 16  2  1  1  0  0  0
  2 54  1  0  0  0  0
  3 23  1  0  0  0  0
  3 35  1  0  0  0  0
  4 24  1  0  0  0  0
  4 36  1  0  0  0  0
  5 19  2  0  0  0  0
  6 20  2  0  0  0  0
  7 23  2  0  0  0  0
  8 24  2  0  0  0  0
  9 33  1  0  0  0  0
  9 69  1  0  0  0  0
 10 34  1  0  0  0  0
 10 70  1  0  0  0  0
 13 11  1  1  0  0  0
 11 19  1  0  0  0  0
 11 47  1  0  0  0  0
 14 12  1  6  0  0  0
 12 20  1  0  0  0  0
 12 48  1  0  0  0  0
 13 17  1  0  0  0  0
 13 23  1  0  0  0  0
 13 39  1  0  0  0  0
 14 18  1  0  0  0  0
 14 24  1  0  0  0  0
 14 40  1  0  0  0  0
 15 16  1  0  0  0  0
 15 19  1  0  0  0  0
 15 41  1  0  0  0  0
 16 20  1  0  0  0  0
 16 42  1  0  0  0  0
 17 21  1  0  0  0  0
 17 43  1  0  0  0  0
 17 44  1  0  0  0  0
 18 22  1  0  0  0  0
 18 45  1  0  0  0  0
 18 46  1  0  0  0  0
 21 25  2  0  0  0  0
 21 26  1  0  0  0  0
 22 27  2  0  0  0  0
 22 28  1  0  0  0  0
 25 29  1  0  0  0  0
 25 49  1  0  0  0  0
 26 30  2  0  0  0  0
 26 50  1  0  0  0  0
 27 31  1  0  0  0  0
 27 51  1  0  0  0  0
 28 32  2  0  0  0  0
 28 52  1  0  0  0  0
 29 33  2  0  0  0  0
 29 55  1  0  0  0  0
 30 33  1  0  0  0  0
 30 56  1  0  0  0  0
 31 34  2  0  0  0  0
 31 57  1  0  0  0  0
 32 34  1  0  0  0  0
 32 58  1  0  0  0  0
 35 37  1  0  0  0  0
 35 59  1  0  0  0  0
 35 60  1  0  0  0  0
 36 38  1  0  0  0  0
 36 61  1  0  0  0  0
 36 62  1  0  0  0  0
 37 63  1  0  0  0  0
 37 64  1  0  0  0  0
 37 65  1  0  0  0  0
 38 66  1  0  0  0  0
 38 67  1  0  0  0  0
 38 68  1  0  0  0  0
M  END
> <PUBCHEM_COMPOUND_CID>
501433
> <PUBCHEM_COMPOUND_CANONICALIZED>
1
> <PUBCHEM_CACTVS_COMPLEXITY>
714
> <PUBCHEM_CACTVS_HBOND_ACCEPTOR>
10
> <PUBCHEM_CACTVS_HBOND_DONOR>
6
> <PUBCHEM_CACTVS_ROTATABLE_BOND>
15
> <PUBCHEM_CACTVS_SUBSKEYS>
AAADcfB7PAAAAAAAAAAAAAAAAAAAAAAAAAAwYAAAAAAAAAABQAAAHgAQCAAADDzhmAYyDoLABgCIAiHSGAICAAAgIAAIiIHOCIgLNjaCkTOHcAAm9hGZmAedyKCOIAAAAAAAAABAAAAAAAAAAAAAAAAAAA==
> <PUBCHEM_IUPAC_OPENEYE_NAME>
ethyl (2S)-2-[[(2S,3S)-4-[[(1S)-2-ethoxy-1-[(4-hydroxyphenyl)methyl]-2-oxo-ethyl]amino]-2,3-dihydroxy-4-oxo-butanoyl]amino]-3-(4-hydroxyphenyl)propanoate
> <PUBCHEM_IUPAC_CAS_NAME>
(2S)-2-[[(2S,3S)-4-[[(2S)-1-ethoxy-3-(4-hydroxyphenyl)-1-oxopropan-2-yl]amino]-2,3-dihydroxy-1,4-dioxobutyl]amino]-3-(4-hydroxyphenyl)propanoic acid ethyl ester
> <PUBCHEM_IUPAC_NAME_MARKUP>
ethyl (2<I>S</I>)-2-[[(2<I>S</I>,3<I>S</I>)-4-[[(2<I>S</I>)-1-ethoxy-3-(4-hydroxyphenyl)-1-oxopropan-2-yl]amino]-2,3-dihydroxy-4-oxobutanoyl]amino]-3-(4-hydroxyphenyl)propanoate
> <PUBCHEM_IUPAC_NAME>
ethyl (2S)-2-[[(2S,3S)-4-[[(2S)-1-ethoxy-3-(4-hydroxyphenyl)-1-oxopropan-2-yl]amino]-2,3-dihydroxy-4-oxobutanoyl]amino]-3-(4-hydroxyphenyl)propanoate
> <PUBCHEM_IUPAC_SYSTEMATIC_NAME>
ethyl (2S)-2-[[(2S,3S)-4-[[(2S)-1-ethoxy-3-(4-hydroxyphenyl)-1-oxidanylidene-propan-2-yl]amino]-2,3-bis(oxidanyl)-4-oxidanylidene-butanoyl]amino]-3-(4-hydroxyphenyl)propanoate
> <PUBCHEM_IUPAC_TRADITIONAL_NAME>
(2S)-2-[[(2S,3S)-4-[[(1S)-2-ethoxy-1-(4-hydroxybenzyl)-2-keto-ethyl]amino]-2,3-dihydroxy-4-keto-butanoyl]amino]-3-(4-hydroxyphenyl)propionic acid ethyl ester
> <PUBCHEM_IUPAC_INCHI>
InChI=1S/C26H32N2O10/c1-3-37-25(35)19(13-15-5-9-17(29)10-6-15)27-23(33)21(31)22(32)24(34)28-20(26(36)38-4-2)14-16-7-11-18(30)12-8-16/h5-12,19-22,29-32H,3-4,13-14H2,1-2H3,(H,27,33)(H,28,34)/t19-,20-,21-,22-/m0/s1
> <PUBCHEM_IUPAC_INCHIKEY>
NKHKZPUWYXWASA-CMOCDZPBSA-N
> <PUBCHEM_XLOGP3_AA>
1.5
> <PUBCHEM_EXACT_MASS>
532.20569522
> <PUBCHEM_MOLECULAR_FORMULA>
C26H32N2O10
> <PUBCHEM_MOLECULAR_WEIGHT>
532.5
> <PUBCHEM_OPENEYE_CAN_SMILES>
CCOC(=O)C(CC1=CC=C(C=C1)O)NC(=O)C(C(C(=O)NC(CC2=CC=C(C=C2)O)C(=O)OCC)O)O
> <PUBCHEM_OPENEYE_ISO_SMILES>
CCOC(=O)[C@H](CC1=CC=C(C=C1)O)NC(=O)[C@H]([C@@H](C(=O)N[C@@H](CC2=CC=C(C=C2)O)C(=O)OCC)O)O
> <PUBCHEM_CACTVS_TPSA>
192
> <PUBCHEM_MONOISOTOPIC_WEIGHT>
532.20569522
> <PUBCHEM_TOTAL_CHARGE>
0
> <PUBCHEM_HEAVY_ATOM_COUNT>
38
> <PUBCHEM_ATOM_DEF_STEREO_COUNT>
4
> <PUBCHEM_ATOM_UDEF_STEREO_COUNT>
0
> <PUBCHEM_BOND_DEF_STEREO_COUNT>
0
> <PUBCHEM_BOND_UDEF_STEREO_COUNT>
0
> <PUBCHEM_ISOTOPIC_ATOM_COUNT>
0
> <PUBCHEM_COMPONENT_COUNT>
1
> <PUBCHEM_CACTVS_TAUTO_COUNT>
-1
> <PUBCHEM_COORDINATE_TYPE>
1
5
255
> <PUBCHEM_BONDANNOTATIONS>
15  1  5
13  11  5
14  12  6
16  2  5
21  25  8
21  26  8
22  27  8
22  28  8
25  29  8
26  30  8
27  31  8
28  32  8
29  33  8
30  33  8
31  34  8
32  34  8
$$$$
