501459
  -OEChem-10302200282D
 76 81  0     1  0  0  0  0  0999 V2000
    8.6231   -1.2209    0.0000 S   0  0  0  0  0  0  0  0  0  0  0  0
    3.5597   -2.9258    0.0000 S   0  0  0  0  0  0  0  0  0  0  0  0
    6.5246    0.4104    0.0000 O   0  0  0  0  0  0  0  0  0  0  0  0
   10.7215    0.4104    0.0000 O   0  0  0  0  0  0  0  0  0  0  0  0
    7.6892    1.8707    0.0000 O   0  0  0  0  0  0  0  0  0  0  0  0
    9.5570    1.8707    0.0000 O   0  0  0  0  0  0  0  0  0  0  0  0
    8.1892   -2.1219    0.0000 O   0  0  0  0  0  0  0  0  0  0  0  0
    9.0570   -2.1219    0.0000 O   0  0  0  0  0  0  0  0  0  0  0  0
    7.7221   -0.7870    0.0000 N   0  0  3  0  0  0  0  0  0  0  0  0
    9.5240   -0.7870    0.0000 N   0  0  3  0  0  0  0  0  0  0  0  0
    8.1231    0.9698    0.0000 C   0  0  2  0  0  0  0  0  0  0  0  0
    9.1231    0.9698    0.0000 C   0  0  2  0  0  0  0  0  0  0  0  0
    7.4996    0.1879    0.0000 C   0  0  1  0  0  0  0  0  0  0  0  0
    9.7466    0.1879    0.0000 C   0  0  1  0  0  0  0  0  0  0  0  0
    6.9403   -1.4105    0.0000 C   0  0  0  0  0  0  0  0  0  0  0  0
   10.3059   -1.4105    0.0000 C   0  0  0  0  0  0  0  0  0  0  0  0
    6.0094   -1.0452    0.0000 C   0  0  0  0  0  0  0  0  0  0  0  0
   11.2367   -1.0452    0.0000 C   0  0  0  0  0  0  0  0  0  0  0  0
    6.2299    1.3660    0.0000 C   0  0  0  0  0  0  0  0  0  0  0  0
   11.0162    1.3660    0.0000 C   0  0  0  0  0  0  0  0  0  0  0  0
    5.2276   -1.6686    0.0000 C   0  0  0  0  0  0  0  0  0  0  0  0
    5.8604   -0.0563    0.0000 C   0  0  0  0  0  0  0  0  0  0  0  0
   12.0186   -1.6686    0.0000 C   0  0  0  0  0  0  0  0  0  0  0  0
   11.3858   -0.0563    0.0000 C   0  0  0  0  0  0  0  0  0  0  0  0
    4.2967   -1.3033    0.0000 C   0  0  0  0  0  0  0  0  0  0  0  0
    5.2550    1.5885    0.0000 C   0  0  0  0  0  0  0  0  0  0  0  0
    6.9101    2.0991    0.0000 C   0  0  0  0  0  0  0  0  0  0  0  0
   10.3361    2.0991    0.0000 C   0  0  0  0  0  0  0  0  0  0  0  0
   11.9912    1.5885    0.0000 C   0  0  0  0  0  0  0  0  0  0  0  0
    4.9295    0.3090    0.0000 C   0  0  0  0  0  0  0  0  0  0  0  0
   12.9494   -1.3033    0.0000 C   0  0  0  0  0  0  0  0  0  0  0  0
   12.3167    0.3090    0.0000 C   0  0  0  0  0  0  0  0  0  0  0  0
    4.1476   -0.3145    0.0000 C   0  0  0  0  0  0  0  0  0  0  0  0
   13.0985   -0.3145    0.0000 C   0  0  0  0  0  0  0  0  0  0  0  0
    3.5149   -1.9268    0.0000 C   0  0  0  0  0  0  0  0  0  0  0  0
    4.9602    2.5441    0.0000 C   0  0  0  0  0  0  0  0  0  0  0  0
    6.6153    3.0546    0.0000 C   0  0  0  0  0  0  0  0  0  0  0  0
   10.6308    3.0546    0.0000 C   0  0  0  0  0  0  0  0  0  0  0  0
   12.2859    2.5441    0.0000 C   0  0  0  0  0  0  0  0  0  0  0  0
    5.6404    3.2772    0.0000 C   0  0  0  0  0  0  0  0  0  0  0  0
   11.6058    3.2772    0.0000 C   0  0  0  0  0  0  0  0  0  0  0  0
    2.5509   -1.6608    0.0000 C   0  0  0  0  0  0  0  0  0  0  0  0
    2.0000   -2.4953    0.0000 C   0  0  0  0  0  0  0  0  0  0  0  0
    2.6235   -3.2772    0.0000 C   0  0  0  0  0  0  0  0  0  0  0  0
    8.4529    1.4947    0.0000 H   0  0  0  0  0  0  0  0  0  0  0  0
    8.7932    1.4947    0.0000 H   0  0  0  0  0  0  0  0  0  0  0  0
    7.2948    0.7731    0.0000 H   0  0  0  0  0  0  0  0  0  0  0  0
    9.9513    0.7731    0.0000 H   0  0  0  0  0  0  0  0  0  0  0  0
    6.6170   -1.9395    0.0000 H   0  0  0  0  0  0  0  0  0  0  0  0
    7.4051   -1.8207    0.0000 H   0  0  0  0  0  0  0  0  0  0  0  0
    9.8410   -1.8207    0.0000 H   0  0  0  0  0  0  0  0  0  0  0  0
   10.6292   -1.9395    0.0000 H   0  0  0  0  0  0  0  0  0  0  0  0
    8.0384    2.3830    0.0000 H   0  0  0  0  0  0  0  0  0  0  0  0
    9.2077    2.3830    0.0000 H   0  0  0  0  0  0  0  0  0  0  0  0
    5.3200   -2.2817    0.0000 H   0  0  0  0  0  0  0  0  0  0  0  0
    6.3451    0.3302    0.0000 H   0  0  0  0  0  0  0  0  0  0  0  0
   11.9262   -2.2817    0.0000 H   0  0  0  0  0  0  0  0  0  0  0  0
   10.9011    0.3302    0.0000 H   0  0  0  0  0  0  0  0  0  0  0  0
    4.8333    1.1340    0.0000 H   0  0  0  0  0  0  0  0  0  0  0  0
    7.5145    1.9611    0.0000 H   0  0  0  0  0  0  0  0  0  0  0  0
    9.7316    1.9611    0.0000 H   0  0  0  0  0  0  0  0  0  0  0  0
   12.4129    1.1340    0.0000 H   0  0  0  0  0  0  0  0  0  0  0  0
    4.8371    0.9221    0.0000 H   0  0  0  0  0  0  0  0  0  0  0  0
   13.4342   -1.6899    0.0000 H   0  0  0  0  0  0  0  0  0  0  0  0
   12.4091    0.9221    0.0000 H   0  0  0  0  0  0  0  0  0  0  0  0
    3.5705   -0.0880    0.0000 H   0  0  0  0  0  0  0  0  0  0  0  0
   13.6756   -0.0880    0.0000 H   0  0  0  0  0  0  0  0  0  0  0  0
    4.3558    2.6821    0.0000 H   0  0  0  0  0  0  0  0  0  0  0  0
    7.0370    3.5091    0.0000 H   0  0  0  0  0  0  0  0  0  0  0  0
   10.2091    3.5091    0.0000 H   0  0  0  0  0  0  0  0  0  0  0  0
   12.8904    2.6821    0.0000 H   0  0  0  0  0  0  0  0  0  0  0  0
    5.4576    3.8696    0.0000 H   0  0  0  0  0  0  0  0  0  0  0  0
   11.7885    3.8696    0.0000 H   0  0  0  0  0  0  0  0  0  0  0  0
    2.3330   -1.0803    0.0000 H   0  0  0  0  0  0  0  0  0  0  0  0
    1.3806   -2.5231    0.0000 H   0  0  0  0  0  0  0  0  0  0  0  0
    2.4585   -3.8748    0.0000 H   0  0  0  0  0  0  0  0  0  0  0  0
  1  7  2  0  0  0  0
  1  8  2  0  0  0  0
  1  9  1  0  0  0  0
  1 10  1  0  0  0  0
  2 35  1  0  0  0  0
  2 44  1  0  0  0  0
 13  3  1  6  0  0  0
  3 19  1  0  0  0  0
 14  4  1  1  0  0  0
  4 20  1  0  0  0  0
 11  5  1  6  0  0  0
  5 53  1  0  0  0  0
 12  6  1  1  0  0  0
  6 54  1  0  0  0  0
  9 13  1  0  0  0  0
  9 15  1  0  0  0  0
 10 14  1  0  0  0  0
 10 16  1  0  0  0  0
 11 12  1  0  0  0  0
 11 13  1  0  0  0  0
 11 45  1  0  0  0  0
 12 14  1  0  0  0  0
 12 46  1  0  0  0  0
 13 47  1  0  0  0  0
 14 48  1  0  0  0  0
 15 17  1  0  0  0  0
 15 49  1  0  0  0  0
 15 50  1  0  0  0  0
 16 18  1  0  0  0  0
 16 51  1  0  0  0  0
 16 52  1  0  0  0  0
 17 21  2  0  0  0  0
 17 22  1  0  0  0  0
 18 23  2  0  0  0  0
 18 24  1  0  0  0  0
 19 26  2  0  0  0  0
 19 27  1  0  0  0  0
 20 28  2  0  0  0  0
 20 29  1  0  0  0  0
 21 25  1  0  0  0  0
 21 55  1  0  0  0  0
 22 30  2  0  0  0  0
 22 56  1  0  0  0  0
 23 31  1  0  0  0  0
 23 57  1  0  0  0  0
 24 32  2  0  0  0  0
 24 58  1  0  0  0  0
 25 33  2  0  0  0  0
 25 35  1  0  0  0  0
 26 36  1  0  0  0  0
 26 59  1  0  0  0  0
 27 37  2  0  0  0  0
 27 60  1  0  0  0  0
 28 38  1  0  0  0  0
 28 61  1  0  0  0  0
 29 39  2  0  0  0  0
 29 62  1  0  0  0  0
 30 33  1  0  0  0  0
 30 63  1  0  0  0  0
 31 34  2  0  0  0  0
 31 64  1  0  0  0  0
 32 34  1  0  0  0  0
 32 65  1  0  0  0  0
 33 66  1  0  0  0  0
 34 67  1  0  0  0  0
 35 42  2  0  0  0  0
 36 40  2  0  0  0  0
 36 68  1  0  0  0  0
 37 40  1  0  0  0  0
 37 69  1  0  0  0  0
 38 41  2  0  0  0  0
 38 70  1  0  0  0  0
 39 41  1  0  0  0  0
 39 71  1  0  0  0  0
 40 72  1  0  0  0  0
 41 73  1  0  0  0  0
 42 43  1  0  0  0  0
 42 74  1  0  0  0  0
 43 44  2  0  0  0  0
 43 75  1  0  0  0  0
 44 76  1  0  0  0  0
M  END
> <PUBCHEM_COMPOUND_CID>
501459
> <PUBCHEM_COMPOUND_CANONICALIZED>
1
> <PUBCHEM_CACTVS_COMPLEXITY>
979
> <PUBCHEM_CACTVS_HBOND_ACCEPTOR>
9
> <PUBCHEM_CACTVS_HBOND_DONOR>
2
> <PUBCHEM_CACTVS_ROTATABLE_BOND>
9
> <PUBCHEM_CACTVS_SUBSKEYS>
AAADcfB/OABgAAAAAAAAAAAAAAAAASAAAAAwYMGABYAAAAAB1AAAHgQASAAADBTl2AawB4IABgiEAiBCADCDCIAgKBBIiBgODIgPNiKksRuOeCjnwBG7qAfwwMAOAAACAAAAAAAAAAQAAAAAAAAAAAAAAA==
> <PUBCHEM_IUPAC_OPENEYE_NAME>
(3R,4R,5R,6R)-2-benzyl-1,1-dioxo-3,6-diphenoxy-7-[[3-(2-thienyl)phenyl]methyl]-1,2,7-thiadiazepane-4,5-diol
> <PUBCHEM_IUPAC_CAS_NAME>
(3R,4R,5R,6R)-1,1-dioxo-3,6-diphenoxy-2-(phenylmethyl)-7-[(3-thiophen-2-ylphenyl)methyl]-1,2,7-thiadiazepane-4,5-diol
> <PUBCHEM_IUPAC_NAME_MARKUP>
(3<I>R</I>,4<I>R</I>,5<I>R</I>,6<I>R</I>)-2-benzyl-1,1-dioxo-3,6-diphenoxy-7-[(3-thiophen-2-ylphenyl)methyl]-1,2,7-thiadiazepane-4,5-diol
> <PUBCHEM_IUPAC_NAME>
(3R,4R,5R,6R)-2-benzyl-1,1-dioxo-3,6-diphenoxy-7-[(3-thiophen-2-ylphenyl)methyl]-1,2,7-thiadiazepane-4,5-diol
> <PUBCHEM_IUPAC_SYSTEMATIC_NAME>
(3R,4R,5R,6R)-1,1-bis(oxidanylidene)-3,6-diphenoxy-2-(phenylmethyl)-7-[(3-thiophen-2-ylphenyl)methyl]-1,2,7-thiadiazepane-4,5-diol
> <PUBCHEM_IUPAC_TRADITIONAL_NAME>
(3R,4R,5R,6R)-2-benzyl-1,1-diketo-3,6-diphenoxy-7-[3-(2-thienyl)benzyl]-1,2,7-thiadiazepane-4,5-diol
> <PUBCHEM_IUPAC_INCHI>
InChI=1S/C34H32N2O6S2/c37-31-32(38)34(42-29-18-8-3-9-19-29)36(24-26-14-10-15-27(22-26)30-20-11-21-43-30)44(39,40)35(23-25-12-4-1-5-13-25)33(31)41-28-16-6-2-7-17-28/h1-22,31-34,37-38H,23-24H2/t31-,32-,33-,34-/m1/s1
> <PUBCHEM_IUPAC_INCHIKEY>
IECNFPXNVBPDNS-YFRBGRBWSA-N
> <PUBCHEM_XLOGP3_AA>
6
> <PUBCHEM_EXACT_MASS>
628.17017909
> <PUBCHEM_MOLECULAR_FORMULA>
C34H32N2O6S2
> <PUBCHEM_MOLECULAR_WEIGHT>
628.8
> <PUBCHEM_OPENEYE_CAN_SMILES>
C1=CC=C(C=C1)CN2C(C(C(C(N(S2(=O)=O)CC3=CC(=CC=C3)C4=CC=CS4)OC5=CC=CC=C5)O)O)OC6=CC=CC=C6
> <PUBCHEM_OPENEYE_ISO_SMILES>
C1=CC=C(C=C1)CN2[C@@H]([C@@H]([C@H]([C@H](N(S2(=O)=O)CC3=CC(=CC=C3)C4=CC=CS4)OC5=CC=CC=C5)O)O)OC6=CC=CC=C6
> <PUBCHEM_CACTVS_TPSA>
136
> <PUBCHEM_MONOISOTOPIC_WEIGHT>
628.17017909
> <PUBCHEM_TOTAL_CHARGE>
0
> <PUBCHEM_HEAVY_ATOM_COUNT>
44
> <PUBCHEM_ATOM_DEF_STEREO_COUNT>
4
> <PUBCHEM_ATOM_UDEF_STEREO_COUNT>
0
> <PUBCHEM_BOND_DEF_STEREO_COUNT>
0
> <PUBCHEM_BOND_UDEF_STEREO_COUNT>
0
> <PUBCHEM_ISOTOPIC_ATOM_COUNT>
0
> <PUBCHEM_COMPONENT_COUNT>
1
> <PUBCHEM_CACTVS_TAUTO_COUNT>
-1
> <PUBCHEM_COORDINATE_TYPE>
1
5
255
> <PUBCHEM_BONDANNOTATIONS>
17  21  8
17  22  8
18  23  8
18  24  8
19  26  8
19  27  8
2  35  8
2  44  8
20  28  8
20  29  8
21  25  8
22  30  8
23  31  8
24  32  8
25  33  8
26  36  8
27  37  8
28  38  8
29  39  8
13  3  6
30  33  8
31  34  8
32  34  8
35  42  8
36  40  8
37  40  8
38  41  8
39  41  8
14  4  5
42  43  8
43  44  8
11  5  6
12  6  5
$$$$
