501464
  -OEChem-10302200282D
 79 83  0     1  0  0  0  0  0999 V2000
    9.1190   -1.7985    0.0000 S   0  0  0  0  0  0  0  0  0  0  0  0
   11.2174   -0.1672    0.0000 O   0  0  0  0  0  0  0  0  0  0  0  0
    7.0206   -0.1672    0.0000 O   0  0  0  0  0  0  0  0  0  0  0  0
   10.0529    1.2931    0.0000 O   0  0  0  0  0  0  0  0  0  0  0  0
    8.1851    1.2931    0.0000 O   0  0  0  0  0  0  0  0  0  0  0  0
    8.6851   -2.6995    0.0000 O   0  0  0  0  0  0  0  0  0  0  0  0
    9.5529   -2.6995    0.0000 O   0  0  0  0  0  0  0  0  0  0  0  0
   15.3071   -1.1503    0.0000 O   0  0  0  0  0  0  0  0  0  0  0  0
    2.9309   -1.1503    0.0000 O   0  0  0  0  0  0  0  0  0  0  0  0
    3.5637    0.4620    0.0000 O   0  0  0  0  0  0  0  0  0  0  0  0
   10.0200   -1.3647    0.0000 N   0  0  3  0  0  0  0  0  0  0  0  0
    8.2180   -1.3647    0.0000 N   0  0  3  0  0  0  0  0  0  0  0  0
    9.6190    0.3921    0.0000 C   0  0  2  0  0  0  0  0  0  0  0  0
    8.6190    0.3921    0.0000 C   0  0  2  0  0  0  0  0  0  0  0  0
   10.2425   -0.3897    0.0000 C   0  0  1  0  0  0  0  0  0  0  0  0
    7.9955   -0.3897    0.0000 C   0  0  1  0  0  0  0  0  0  0  0  0
   10.8018   -1.9882    0.0000 C   0  0  0  0  0  0  0  0  0  0  0  0
    7.4362   -1.9882    0.0000 C   0  0  0  0  0  0  0  0  0  0  0  0
   11.7327   -1.6228    0.0000 C   0  0  0  0  0  0  0  0  0  0  0  0
    6.5053   -1.6228    0.0000 C   0  0  0  0  0  0  0  0  0  0  0  0
   11.5122    0.7884    0.0000 C   0  0  0  0  0  0  0  0  0  0  0  0
    6.7258    0.7884    0.0000 C   0  0  0  0  0  0  0  0  0  0  0  0
   12.5145   -2.2463    0.0000 C   0  0  0  0  0  0  0  0  0  0  0  0
   11.8817   -0.6340    0.0000 C   0  0  0  0  0  0  0  0  0  0  0  0
    5.7235   -2.2463    0.0000 C   0  0  0  0  0  0  0  0  0  0  0  0
    6.3563   -0.6340    0.0000 C   0  0  0  0  0  0  0  0  0  0  0  0
   13.4454   -1.8810    0.0000 C   0  0  0  0  0  0  0  0  0  0  0  0
   12.8126   -0.2686    0.0000 C   0  0  0  0  0  0  0  0  0  0  0  0
   10.8320    1.5214    0.0000 C   0  0  0  0  0  0  0  0  0  0  0  0
   12.4871    1.0109    0.0000 C   0  0  0  0  0  0  0  0  0  0  0  0
    5.7509    1.0109    0.0000 C   0  0  0  0  0  0  0  0  0  0  0  0
    7.4060    1.5214    0.0000 C   0  0  0  0  0  0  0  0  0  0  0  0
    4.7926   -1.8810    0.0000 C   0  0  0  0  0  0  0  0  0  0  0  0
    5.4254   -0.2686    0.0000 C   0  0  0  0  0  0  0  0  0  0  0  0
   13.5944   -0.8921    0.0000 C   0  0  0  0  0  0  0  0  0  0  0  0
    4.6436   -0.8921    0.0000 C   0  0  0  0  0  0  0  0  0  0  0  0
   11.1268    2.4770    0.0000 C   0  0  0  0  0  0  0  0  0  0  0  0
   12.7819    1.9665    0.0000 C   0  0  0  0  0  0  0  0  0  0  0  0
    5.4561    1.9665    0.0000 C   0  0  0  0  0  0  0  0  0  0  0  0
    7.1112    2.4770    0.0000 C   0  0  0  0  0  0  0  0  0  0  0  0
   14.5253   -0.5268    0.0000 C   0  0  0  0  0  0  0  0  0  0  0  0
   12.1017    2.6995    0.0000 C   0  0  0  0  0  0  0  0  0  0  0  0
    6.1363    2.6995    0.0000 C   0  0  0  0  0  0  0  0  0  0  0  0
    3.7127   -0.5268    0.0000 C   0  0  0  0  0  0  0  0  0  0  0  0
    2.0000   -0.7849    0.0000 C   0  0  0  0  0  0  0  0  0  0  0  0
    9.2891    0.9171    0.0000 H   0  0  0  0  0  0  0  0  0  0  0  0
    8.0029    0.4615    0.0000 H   0  0  0  0  0  0  0  0  0  0  0  0
   10.4473    0.1955    0.0000 H   0  0  0  0  0  0  0  0  0  0  0  0
    7.5571   -0.8281    0.0000 H   0  0  0  0  0  0  0  0  0  0  0  0
   10.3369   -2.3984    0.0000 H   0  0  0  0  0  0  0  0  0  0  0  0
   11.1251   -2.5172    0.0000 H   0  0  0  0  0  0  0  0  0  0  0  0
    7.1129   -2.5172    0.0000 H   0  0  0  0  0  0  0  0  0  0  0  0
    7.9011   -2.3984    0.0000 H   0  0  0  0  0  0  0  0  0  0  0  0
    9.7036    1.8053    0.0000 H   0  0  0  0  0  0  0  0  0  0  0  0
    8.5344    1.8053    0.0000 H   0  0  0  0  0  0  0  0  0  0  0  0
   12.4221   -2.8594    0.0000 H   0  0  0  0  0  0  0  0  0  0  0  0
   11.3970   -0.2474    0.0000 H   0  0  0  0  0  0  0  0  0  0  0  0
    5.8159   -2.8594    0.0000 H   0  0  0  0  0  0  0  0  0  0  0  0
    6.8410   -0.2474    0.0000 H   0  0  0  0  0  0  0  0  0  0  0  0
   13.9301   -2.2675    0.0000 H   0  0  0  0  0  0  0  0  0  0  0  0
   12.9050    0.3444    0.0000 H   0  0  0  0  0  0  0  0  0  0  0  0
   10.2275    1.3834    0.0000 H   0  0  0  0  0  0  0  0  0  0  0  0
   12.9088    0.5564    0.0000 H   0  0  0  0  0  0  0  0  0  0  0  0
    5.3292    0.5564    0.0000 H   0  0  0  0  0  0  0  0  0  0  0  0
    8.0105    1.3834    0.0000 H   0  0  0  0  0  0  0  0  0  0  0  0
    4.3079   -2.2675    0.0000 H   0  0  0  0  0  0  0  0  0  0  0  0
    5.3330    0.3444    0.0000 H   0  0  0  0  0  0  0  0  0  0  0  0
   10.7050    2.9315    0.0000 H   0  0  0  0  0  0  0  0  0  0  0  0
   13.3863    2.1044    0.0000 H   0  0  0  0  0  0  0  0  0  0  0  0
    4.8517    2.1044    0.0000 H   0  0  0  0  0  0  0  0  0  0  0  0
    7.5330    2.9315    0.0000 H   0  0  0  0  0  0  0  0  0  0  0  0
   14.9902   -0.1165    0.0000 H   0  0  0  0  0  0  0  0  0  0  0  0
   14.2020    0.0023    0.0000 H   0  0  0  0  0  0  0  0  0  0  0  0
   12.2844    3.2920    0.0000 H   0  0  0  0  0  0  0  0  0  0  0  0
    5.9536    3.2920    0.0000 H   0  0  0  0  0  0  0  0  0  0  0  0
   15.8843   -0.9238    0.0000 H   0  0  0  0  0  0  0  0  0  0  0  0
    2.2265   -0.2078    0.0000 H   0  0  0  0  0  0  0  0  0  0  0  0
    1.4229   -0.5584    0.0000 H   0  0  0  0  0  0  0  0  0  0  0  0
    1.7735   -1.3621    0.0000 H   0  0  0  0  0  0  0  0  0  0  0  0
  1  6  2  0  0  0  0
  1  7  2  0  0  0  0
  1 11  1  0  0  0  0
  1 12  1  0  0  0  0
 15  2  1  1  0  0  0
  2 21  1  0  0  0  0
 16  3  1  6  0  0  0
  3 22  1  0  0  0  0
 13  4  1  1  0  0  0
  4 54  1  0  0  0  0
 14  5  1  6  0  0  0
  5 55  1  0  0  0  0
  8 41  1  0  0  0  0
  8 76  1  0  0  0  0
  9 44  1  0  0  0  0
  9 45  1  0  0  0  0
 10 44  2  0  0  0  0
 11 15  1  0  0  0  0
 11 17  1  0  0  0  0
 12 16  1  0  0  0  0
 12 18  1  0  0  0  0
 13 14  1  0  0  0  0
 13 15  1  0  0  0  0
 13 46  1  0  0  0  0
 14 16  1  0  0  0  0
 14 47  1  0  0  0  0
 15 48  1  0  0  0  0
 16 49  1  0  0  0  0
 17 19  1  0  0  0  0
 17 50  1  0  0  0  0
 17 51  1  0  0  0  0
 18 20  1  0  0  0  0
 18 52  1  0  0  0  0
 18 53  1  0  0  0  0
 19 23  2  0  0  0  0
 19 24  1  0  0  0  0
 20 25  2  0  0  0  0
 20 26  1  0  0  0  0
 21 29  2  0  0  0  0
 21 30  1  0  0  0  0
 22 31  2  0  0  0  0
 22 32  1  0  0  0  0
 23 27  1  0  0  0  0
 23 56  1  0  0  0  0
 24 28  2  0  0  0  0
 24 57  1  0  0  0  0
 25 33  1  0  0  0  0
 25 58  1  0  0  0  0
 26 34  2  0  0  0  0
 26 59  1  0  0  0  0
 27 35  2  0  0  0  0
 27 60  1  0  0  0  0
 28 35  1  0  0  0  0
 28 61  1  0  0  0  0
 29 37  1  0  0  0  0
 29 62  1  0  0  0  0
 30 38  2  0  0  0  0
 30 63  1  0  0  0  0
 31 39  1  0  0  0  0
 31 64  1  0  0  0  0
 32 40  2  0  0  0  0
 32 65  1  0  0  0  0
 33 36  2  0  0  0  0
 33 66  1  0  0  0  0
 34 36  1  0  0  0  0
 34 67  1  0  0  0  0
 35 41  1  0  0  0  0
 36 44  1  0  0  0  0
 37 42  2  0  0  0  0
 37 68  1  0  0  0  0
 38 42  1  0  0  0  0
 38 69  1  0  0  0  0
 39 43  2  0  0  0  0
 39 70  1  0  0  0  0
 40 43  1  0  0  0  0
 40 71  1  0  0  0  0
 41 72  1  0  0  0  0
 41 73  1  0  0  0  0
 42 74  1  0  0  0  0
 43 75  1  0  0  0  0
 45 77  1  0  0  0  0
 45 78  1  0  0  0  0
 45 79  1  0  0  0  0
M  END
> <PUBCHEM_COMPOUND_CID>
501464
> <PUBCHEM_COMPOUND_CANONICALIZED>
1
> <PUBCHEM_CACTVS_COMPLEXITY>
1010
> <PUBCHEM_CACTVS_HBOND_ACCEPTOR>
11
> <PUBCHEM_CACTVS_HBOND_DONOR>
3
> <PUBCHEM_CACTVS_ROTATABLE_BOND>
11
> <PUBCHEM_CACTVS_SUBSKEYS>
AAADcfB/PABAAAAAAAAAAAAAAAAAAAAAAAAwYMGABYAAAAABVAAAHgAASAAADBThmAYyDoIABgCIAiDSCDCCCAAkIAAIiAEODMgPNjKEtRuOeSjnwBGbuYf4yDCOQAAAAAAAAACAAAAAAAAAAAAAAAAAAA==
> <PUBCHEM_IUPAC_OPENEYE_NAME>
methyl 4-[[(3R,4R,5R,6R)-4,5-dihydroxy-7-[[4-(hydroxymethyl)phenyl]methyl]-1,1-dioxo-3,6-diphenoxy-1,2,7-thiadiazepan-2-yl]methyl]benzoate
> <PUBCHEM_IUPAC_CAS_NAME>
4-[[(3R,4R,5R,6R)-4,5-dihydroxy-7-[[4-(hydroxymethyl)phenyl]methyl]-1,1-dioxo-3,6-diphenoxy-1,2,7-thiadiazepan-2-yl]methyl]benzoic acid methyl ester
> <PUBCHEM_IUPAC_NAME_MARKUP>
methyl 4-[[(3<I>R</I>,4<I>R</I>,5<I>R</I>,6<I>R</I>)-4,5-dihydroxy-7-[[4-(hydroxymethyl)phenyl]methyl]-1,1-dioxo-3,6-diphenoxy-1,2,7-thiadiazepan-2-yl]methyl]benzoate
> <PUBCHEM_IUPAC_NAME>
methyl 4-[[(3R,4R,5R,6R)-4,5-dihydroxy-7-[[4-(hydroxymethyl)phenyl]methyl]-1,1-dioxo-3,6-diphenoxy-1,2,7-thiadiazepan-2-yl]methyl]benzoate
> <PUBCHEM_IUPAC_SYSTEMATIC_NAME>
methyl 4-[[(3R,4R,5R,6R)-7-[[4-(hydroxymethyl)phenyl]methyl]-4,5-bis(oxidanyl)-1,1-bis(oxidanylidene)-3,6-diphenoxy-1,2,7-thiadiazepan-2-yl]methyl]benzoate
> <PUBCHEM_IUPAC_TRADITIONAL_NAME>
4-[[(3R,4R,5R,6R)-4,5-dihydroxy-1,1-diketo-7-(4-methylolbenzyl)-3,6-diphenoxy-1,2,7-thiadiazepan-2-yl]methyl]benzoic acid methyl ester
> <PUBCHEM_IUPAC_INCHI>
InChI=1S/C33H34N2O9S/c1-42-33(39)26-18-16-24(17-19-26)21-35-32(44-28-10-6-3-7-11-28)30(38)29(37)31(43-27-8-4-2-5-9-27)34(45(35,40)41)20-23-12-14-25(22-36)15-13-23/h2-19,29-32,36-38H,20-22H2,1H3/t29-,30-,31-,32-/m1/s1
> <PUBCHEM_IUPAC_INCHIKEY>
LOBUNSYETBFDCX-SEVDZJIVSA-N
> <PUBCHEM_XLOGP3_AA>
3.6
> <PUBCHEM_EXACT_MASS>
634.19850184
> <PUBCHEM_MOLECULAR_FORMULA>
C33H34N2O9S
> <PUBCHEM_MOLECULAR_WEIGHT>
634.7
> <PUBCHEM_OPENEYE_CAN_SMILES>
COC(=O)C1=CC=C(C=C1)CN2C(C(C(C(N(S2(=O)=O)CC3=CC=C(C=C3)CO)OC4=CC=CC=C4)O)O)OC5=CC=CC=C5
> <PUBCHEM_OPENEYE_ISO_SMILES>
COC(=O)C1=CC=C(C=C1)CN2[C@@H]([C@@H]([C@H]([C@H](N(S2(=O)=O)CC3=CC=C(C=C3)CO)OC4=CC=CC=C4)O)O)OC5=CC=CC=C5
> <PUBCHEM_CACTVS_TPSA>
154
> <PUBCHEM_MONOISOTOPIC_WEIGHT>
634.19850184
> <PUBCHEM_TOTAL_CHARGE>
0
> <PUBCHEM_HEAVY_ATOM_COUNT>
45
> <PUBCHEM_ATOM_DEF_STEREO_COUNT>
4
> <PUBCHEM_ATOM_UDEF_STEREO_COUNT>
0
> <PUBCHEM_BOND_DEF_STEREO_COUNT>
0
> <PUBCHEM_BOND_UDEF_STEREO_COUNT>
0
> <PUBCHEM_ISOTOPIC_ATOM_COUNT>
0
> <PUBCHEM_COMPONENT_COUNT>
1
> <PUBCHEM_CACTVS_TAUTO_COUNT>
-1
> <PUBCHEM_COORDINATE_TYPE>
1
5
255
> <PUBCHEM_BONDANNOTATIONS>
19  23  8
19  24  8
15  2  5
20  25  8
20  26  8
21  29  8
21  30  8
22  31  8
22  32  8
23  27  8
24  28  8
25  33  8
26  34  8
27  35  8
28  35  8
29  37  8
16  3  6
30  38  8
31  39  8
32  40  8
33  36  8
34  36  8
37  42  8
38  42  8
39  43  8
13  4  5
40  43  8
14  5  6
$$$$
