501495
  -OEChem-10302200282D
 92 96  0     1  0  0  0  0  0999 V2000
    6.3981   -1.2589    0.0000 O   0  0  0  0  0  0  0  0  0  0  0  0
    8.3914    4.8022    0.0000 O   0  0  0  0  0  0  0  0  0  0  0  0
    9.7480    1.4616    0.0000 O   0  0  0  0  0  0  0  0  0  0  0  0
    6.9902    3.7841    0.0000 O   0  0  0  0  0  0  0  0  0  0  0  0
   10.4291    0.2820    0.0000 O   0  0  0  0  0  0  0  0  0  0  0  0
   11.0615   -3.2676    0.0000 O   0  0  0  0  0  0  0  0  0  0  0  0
   14.6329   -2.7722    0.0000 O   0  0  0  0  0  0  0  0  0  0  0  0
    2.8680   -4.2830    0.0000 O   0  0  0  0  0  0  0  0  0  0  0  0
    8.1657    2.1661    0.0000 N   0  0  0  0  0  0  0  0  0  0  0  0
    8.8468   -0.4225    0.0000 N   0  0  0  0  0  0  0  0  0  0  0  0
   11.2426   -1.5451    0.0000 N   0  0  0  0  0  0  0  0  0  0  0  0
   13.2316   -1.7542    0.0000 N   0  0  0  0  0  0  0  0  0  0  0  0
    6.3981   -4.2589    0.0000 N   0  0  0  0  0  0  0  0  0  0  0  0
    8.5725    3.0796    0.0000 C   0  0  0  0  0  0  0  0  0  0  0  0
    9.4860    2.6729    0.0000 C   0  0  0  0  0  0  0  0  0  0  0  0
    9.3815    3.6674    0.0000 C   0  0  0  0  0  0  0  0  0  0  0  0
    8.3468    0.4435    0.0000 C   0  0  1  0  0  0  0  0  0  0  0  0
    7.3686    0.2356    0.0000 C   0  0  0  0  0  0  0  0  0  0  0  0
    8.7535    1.3571    0.0000 C   0  0  0  0  0  0  0  0  0  0  0  0
    7.9847    3.8887    0.0000 C   0  0  0  0  0  0  0  0  0  0  0  0
    7.2641   -0.7589    0.0000 C   0  0  2  0  0  0  0  0  0  0  0  0
    8.1776   -1.1656    0.0000 C   0  0  0  0  0  0  0  0  0  0  0  0
   13.0505   -3.4767    0.0000 C   0  0  0  0  0  0  0  0  0  0  0  0
   12.4628   -4.2857    0.0000 C   0  0  0  0  0  0  0  0  0  0  0  0
   14.0451   -3.5812    0.0000 C   0  0  0  0  0  0  0  0  0  0  0  0
    9.8413   -0.5270    0.0000 C   0  0  0  0  0  0  0  0  0  0  0  0
   12.6438   -2.5632    0.0000 C   0  0  1  0  0  0  0  0  0  0  0  0
   10.2480   -1.4406    0.0000 C   0  0  2  0  0  0  0  0  0  0  0  0
   12.8695   -5.1993    0.0000 C   0  0  0  0  0  0  0  0  0  0  0  0
   14.4518   -4.4948    0.0000 C   0  0  0  0  0  0  0  0  0  0  0  0
   13.8640   -5.3038    0.0000 C   0  0  0  0  0  0  0  0  0  0  0  0
    9.6602   -2.2496    0.0000 C   0  0  0  0  0  0  0  0  0  0  0  0
   11.6493   -2.4586    0.0000 C   0  0  0  0  0  0  0  0  0  0  0  0
   10.0670   -3.1631    0.0000 C   0  0  0  0  0  0  0  0  0  0  0  0
    8.6657   -2.1450    0.0000 C   0  0  0  0  0  0  0  0  0  0  0  0
    6.3981   -2.2589    0.0000 C   0  0  0  0  0  0  0  0  0  0  0  0
   14.2261   -1.8587    0.0000 C   0  0  0  0  0  0  0  0  0  0  0  0
    5.5320   -2.7589    0.0000 C   0  0  0  0  0  0  0  0  0  0  0  0
    7.2641   -2.7589    0.0000 C   0  0  0  0  0  0  0  0  0  0  0  0
   14.8139   -1.0497    0.0000 C   0  0  0  0  0  0  0  0  0  0  0  0
    5.5320   -3.7589    0.0000 C   0  0  0  0  0  0  0  0  0  0  0  0
    4.6381   -2.2242    0.0000 C   0  0  0  0  0  0  0  0  0  0  0  0
    7.2641   -3.7589    0.0000 C   0  0  0  0  0  0  0  0  0  0  0  0
    4.6381   -4.2936    0.0000 C   0  0  0  0  0  0  0  0  0  0  0  0
    3.7320   -2.7381    0.0000 C   0  0  0  0  0  0  0  0  0  0  0  0
    3.7320   -3.7797    0.0000 C   0  0  0  0  0  0  0  0  0  0  0  0
    2.0000   -3.7864    0.0000 C   0  0  0  0  0  0  0  0  0  0  0  0
    9.3360    2.0713    0.0000 H   0  0  0  0  0  0  0  0  0  0  0  0
   10.1045    2.6297    0.0000 H   0  0  0  0  0  0  0  0  0  0  0  0
    9.9775    3.8383    0.0000 H   0  0  0  0  0  0  0  0  0  0  0  0
    9.1097    4.2247    0.0000 H   0  0  0  0  0  0  0  0  0  0  0  0
    8.9659    0.4760    0.0000 H   0  0  0  0  0  0  0  0  0  0  0  0
    7.5491    2.1013    0.0000 H   0  0  0  0  0  0  0  0  0  0  0  0
    7.3038    0.8522    0.0000 H   0  0  0  0  0  0  0  0  0  0  0  0
    6.7486    0.2356    0.0000 H   0  0  0  0  0  0  0  0  0  0  0  0
    6.7441   -0.4212    0.0000 H   0  0  0  0  0  0  0  0  0  0  0  0
    7.8676   -1.7026    0.0000 H   0  0  0  0  0  0  0  0  0  0  0  0
    8.6792   -1.5301    0.0000 H   0  0  0  0  0  0  0  0  0  0  0  0
   13.4150   -2.9751    0.0000 H   0  0  0  0  0  0  0  0  0  0  0  0
   12.0321   -3.8397    0.0000 H   0  0  0  0  0  0  0  0  0  0  0  0
   11.9488   -4.6324    0.0000 H   0  0  0  0  0  0  0  0  0  0  0  0
   14.6467   -3.4312    0.0000 H   0  0  0  0  0  0  0  0  0  0  0  0
   14.0018   -2.9628    0.0000 H   0  0  0  0  0  0  0  0  0  0  0  0
   12.3916   -1.9968    0.0000 H   0  0  0  0  0  0  0  0  0  0  0  0
   10.6125   -0.9390    0.0000 H   0  0  0  0  0  0  0  0  0  0  0  0
   12.2679   -5.3493    0.0000 H   0  0  0  0  0  0  0  0  0  0  0  0
   12.9127   -5.8178    0.0000 H   0  0  0  0  0  0  0  0  0  0  0  0
   14.8825   -4.9408    0.0000 H   0  0  0  0  0  0  0  0  0  0  0  0
   14.9658   -4.1481    0.0000 H   0  0  0  0  0  0  0  0  0  0  0  0
   13.6931   -5.8998    0.0000 H   0  0  0  0  0  0  0  0  0  0  0  0
   14.4213   -5.5756    0.0000 H   0  0  0  0  0  0  0  0  0  0  0  0
    9.4081   -1.6832    0.0000 H   0  0  0  0  0  0  0  0  0  0  0  0
   11.6070   -1.0435    0.0000 H   0  0  0  0  0  0  0  0  0  0  0  0
    8.0270    5.3038    0.0000 H   0  0  0  0  0  0  0  0  0  0  0  0
   12.9794   -1.1878    0.0000 H   0  0  0  0  0  0  0  0  0  0  0  0
    9.5006   -3.4153    0.0000 H   0  0  0  0  0  0  0  0  0  0  0  0
   10.3192   -3.7295    0.0000 H   0  0  0  0  0  0  0  0  0  0  0  0
   10.6334   -2.9110    0.0000 H   0  0  0  0  0  0  0  0  0  0  0  0
    8.7305   -1.5284    0.0000 H   0  0  0  0  0  0  0  0  0  0  0  0
    8.0491   -2.0802    0.0000 H   0  0  0  0  0  0  0  0  0  0  0  0
    8.6009   -2.7616    0.0000 H   0  0  0  0  0  0  0  0  0  0  0  0
    7.8010   -2.4489    0.0000 H   0  0  0  0  0  0  0  0  0  0  0  0
   15.3155   -1.4141    0.0000 H   0  0  0  0  0  0  0  0  0  0  0  0
   15.1783   -0.5481    0.0000 H   0  0  0  0  0  0  0  0  0  0  0  0
   14.3123   -0.6852    0.0000 H   0  0  0  0  0  0  0  0  0  0  0  0
    4.6453   -1.6043    0.0000 H   0  0  0  0  0  0  0  0  0  0  0  0
    7.8010   -4.0689    0.0000 H   0  0  0  0  0  0  0  0  0  0  0  0
    4.6453   -4.9135    0.0000 H   0  0  0  0  0  0  0  0  0  0  0  0
    3.1963   -2.4260    0.0000 H   0  0  0  0  0  0  0  0  0  0  0  0
    2.3079   -3.2483    0.0000 H   0  0  0  0  0  0  0  0  0  0  0  0
    1.4619   -3.4785    0.0000 H   0  0  0  0  0  0  0  0  0  0  0  0
    1.6921   -4.3245    0.0000 H   0  0  0  0  0  0  0  0  0  0  0  0
 21  1  1  6  0  0  0
  1 36  1  0  0  0  0
  2 20  1  0  0  0  0
  2 74  1  0  0  0  0
  3 19  2  0  0  0  0
  4 20  2  0  0  0  0
  5 26  2  0  0  0  0
  6 33  2  0  0  0  0
  7 37  2  0  0  0  0
  8 46  1  0  0  0  0
  8 47  1  0  0  0  0
  9 14  1  0  0  0  0
  9 19  1  0  0  0  0
  9 53  1  0  0  0  0
 10 17  1  0  0  0  0
 10 22  1  0  0  0  0
 10 26  1  0  0  0  0
 28 11  1  1  0  0  0
 11 33  1  0  0  0  0
 11 73  1  0  0  0  0
 27 12  1  1  0  0  0
 12 37  1  0  0  0  0
 12 75  1  0  0  0  0
 13 41  2  0  0  0  0
 13 43  1  0  0  0  0
 14 15  1  0  0  0  0
 14 16  1  0  0  0  0
 14 20  1  0  0  0  0
 15 16  1  0  0  0  0
 15 48  1  0  0  0  0
 15 49  1  0  0  0  0
 16 50  1  0  0  0  0
 16 51  1  0  0  0  0
 17 18  1  0  0  0  0
 17 19  1  1  0  0  0
 17 52  1  0  0  0  0
 18 21  1  0  0  0  0
 18 54  1  0  0  0  0
 18 55  1  0  0  0  0
 21 22  1  0  0  0  0
 21 56  1  0  0  0  0
 22 57  1  0  0  0  0
 22 58  1  0  0  0  0
 23 24  1  0  0  0  0
 23 25  1  0  0  0  0
 23 27  1  0  0  0  0
 23 59  1  0  0  0  0
 24 29  1  0  0  0  0
 24 60  1  0  0  0  0
 24 61  1  0  0  0  0
 25 30  1  0  0  0  0
 25 62  1  0  0  0  0
 25 63  1  0  0  0  0
 26 28  1  0  0  0  0
 27 33  1  0  0  0  0
 27 64  1  0  0  0  0
 28 32  1  0  0  0  0
 28 65  1  0  0  0  0
 29 31  1  0  0  0  0
 29 66  1  0  0  0  0
 29 67  1  0  0  0  0
 30 31  1  0  0  0  0
 30 68  1  0  0  0  0
 30 69  1  0  0  0  0
 31 70  1  0  0  0  0
 31 71  1  0  0  0  0
 32 34  1  0  0  0  0
 32 35  1  0  0  0  0
 32 72  1  0  0  0  0
 34 76  1  0  0  0  0
 34 77  1  0  0  0  0
 34 78  1  0  0  0  0
 35 79  1  0  0  0  0
 35 80  1  0  0  0  0
 35 81  1  0  0  0  0
 36 38  2  0  0  0  0
 36 39  1  0  0  0  0
 37 40  1  0  0  0  0
 38 41  1  0  0  0  0
 38 42  1  0  0  0  0
 39 43  2  0  0  0  0
 39 82  1  0  0  0  0
 40 83  1  0  0  0  0
 40 84  1  0  0  0  0
 40 85  1  0  0  0  0
 41 44  1  0  0  0  0
 42 45  2  0  0  0  0
 42 86  1  0  0  0  0
 43 87  1  0  0  0  0
 44 46  2  0  0  0  0
 44 88  1  0  0  0  0
 45 46  1  0  0  0  0
 45 89  1  0  0  0  0
 47 90  1  0  0  0  0
 47 91  1  0  0  0  0
 47 92  1  0  0  0  0
M  END
> <PUBCHEM_COMPOUND_CID>
501495
> <PUBCHEM_COMPOUND_CANONICALIZED>
1
> <PUBCHEM_CACTVS_COMPLEXITY>
1170
> <PUBCHEM_CACTVS_HBOND_ACCEPTOR>
9
> <PUBCHEM_CACTVS_HBOND_DONOR>
4
> <PUBCHEM_CACTVS_ROTATABLE_BOND>
12
> <PUBCHEM_CACTVS_SUBSKEYS>
AAADcfB/vAAAAAAAAAAAAAAAGAAAAWAAAAA8YIAAAAAAAACx8AAAHgAQCAAADbzhngY+zvPIFgCoAzX3XACCiCAxIiAI2KG+bJgOZvLEsbuXeCjm1hnY6Ae6+a+OIAAAAgACAABAAAAEAAQAAAAAAAAAAA==
> <PUBCHEM_IUPAC_OPENEYE_NAME>
1-[[(2S,4R)-1-[(2S)-2-[[(2S)-2-acetamido-2-cyclohexyl-acetyl]amino]-3-methyl-butanoyl]-4-[(7-methoxy-4-quinolyl)oxy]pyrrolidine-2-carbonyl]amino]cyclopropanecarboxylic acid
> <PUBCHEM_IUPAC_CAS_NAME>
1-[[[(2S,4R)-1-[(2S)-2-[[(2S)-2-acetamido-2-cyclohexyl-1-oxoethyl]amino]-3-methyl-1-oxobutyl]-4-[(7-methoxy-4-quinolinyl)oxy]-2-pyrrolidinyl]-oxomethyl]amino]-1-cyclopropanecarboxylic acid
> <PUBCHEM_IUPAC_NAME_MARKUP>
1-[[(2<I>S</I>,4<I>R</I>)-1-[(2<I>S</I>)-2-[[(2<I>S</I>)-2-acetamido-2-cyclohexylacetyl]amino]-3-methylbutanoyl]-4-(7-methoxyquinolin-4-yl)oxypyrrolidine-2-carbonyl]amino]cyclopropane-1-carboxylic acid
> <PUBCHEM_IUPAC_NAME>
1-[[(2S,4R)-1-[(2S)-2-[[(2S)-2-acetamido-2-cyclohexylacetyl]amino]-3-methylbutanoyl]-4-(7-methoxyquinolin-4-yl)oxypyrrolidine-2-carbonyl]amino]cyclopropane-1-carboxylic acid
> <PUBCHEM_IUPAC_SYSTEMATIC_NAME>
1-[[(2S,4R)-1-[(2S)-2-[[(2S)-2-acetamido-2-cyclohexyl-ethanoyl]amino]-3-methyl-butanoyl]-4-(7-methoxyquinolin-4-yl)oxy-pyrrolidin-2-yl]carbonylamino]cyclopropane-1-carboxylic acid
> <PUBCHEM_IUPAC_TRADITIONAL_NAME>
1-[[(2S,4R)-1-[(2S)-2-[[(2S)-2-acetamido-2-cyclohexyl-acetyl]amino]-3-methyl-butanoyl]-4-[(7-methoxy-4-quinolyl)oxy]prolyl]amino]cyclopropanecarboxylic acid
> <PUBCHEM_IUPAC_INCHI>
InChI=1S/C34H45N5O8/c1-19(2)28(37-31(42)29(36-20(3)40)21-8-6-5-7-9-21)32(43)39-18-23(17-26(39)30(41)38-34(13-14-34)33(44)45)47-27-12-15-35-25-16-22(46-4)10-11-24(25)27/h10-12,15-16,19,21,23,26,28-29H,5-9,13-14,17-18H2,1-4H3,(H,36,40)(H,37,42)(H,38,41)(H,44,45)/t23-,26+,28+,29+/m1/s1
> <PUBCHEM_IUPAC_INCHIKEY>
QEBHXUITTNWIPD-FWDBPZADSA-N
> <PUBCHEM_XLOGP3_AA>
3.6
> <PUBCHEM_EXACT_MASS>
651.32681341
> <PUBCHEM_MOLECULAR_FORMULA>
C34H45N5O8
> <PUBCHEM_MOLECULAR_WEIGHT>
651.7
> <PUBCHEM_OPENEYE_CAN_SMILES>
CC(C)C(C(=O)N1CC(CC1C(=O)NC2(CC2)C(=O)O)OC3=C4C=CC(=CC4=NC=C3)OC)NC(=O)C(C5CCCCC5)NC(=O)C
> <PUBCHEM_OPENEYE_ISO_SMILES>
CC(C)[C@@H](C(=O)N1C[C@@H](C[C@H]1C(=O)NC2(CC2)C(=O)O)OC3=C4C=CC(=CC4=NC=C3)OC)NC(=O)[C@H](C5CCCCC5)NC(=O)C
> <PUBCHEM_CACTVS_TPSA>
176
> <PUBCHEM_MONOISOTOPIC_WEIGHT>
651.32681341
> <PUBCHEM_TOTAL_CHARGE>
0
> <PUBCHEM_HEAVY_ATOM_COUNT>
47
> <PUBCHEM_ATOM_DEF_STEREO_COUNT>
4
> <PUBCHEM_ATOM_UDEF_STEREO_COUNT>
0
> <PUBCHEM_BOND_DEF_STEREO_COUNT>
0
> <PUBCHEM_BOND_UDEF_STEREO_COUNT>
0
> <PUBCHEM_ISOTOPIC_ATOM_COUNT>
0
> <PUBCHEM_COMPONENT_COUNT>
1
> <PUBCHEM_CACTVS_TAUTO_COUNT>
-1
> <PUBCHEM_COORDINATE_TYPE>
1
5
255
> <PUBCHEM_BONDANNOTATIONS>
21  1  6
28  11  5
27  12  5
13  41  8
13  43  8
17  19  5
36  38  8
36  39  8
38  41  8
38  42  8
39  43  8
41  44  8
42  45  8
44  46  8
45  46  8
$$$$
