501497
  -OEChem-10302200282D
 93 98  0     1  0  0  0  0  0999 V2000
   11.3645   -1.4991    0.0000 S   0  0  0  0  0  0  0  0  0  0  0  0
    5.0589    1.4881    0.0000 O   0  0  0  0  0  0  0  0  0  0  0  0
    4.8905   -0.4364    0.0000 O   0  0  0  0  0  0  0  0  0  0  0  0
    4.5981   -2.1253    0.0000 O   0  0  0  0  0  0  0  0  0  0  0  0
    7.1620    1.3156    0.0000 O   0  0  0  0  0  0  0  0  0  0  0  0
    7.2666   -1.7747    0.0000 O   0  0  0  0  0  0  0  0  0  0  0  0
    5.3428   -5.0986    0.0000 O   0  0  0  0  0  0  0  0  0  0  0  0
   10.1862    4.8458    0.0000 O   0  0  0  0  0  0  0  0  0  0  0  0
   12.1165   -3.1747    0.0000 O   0  0  0  0  0  0  0  0  0  0  0  0
    6.3301   -1.1253    0.0000 N   0  0  0  0  0  0  0  0  0  0  0  0
    6.6852   -4.0039    0.0000 N   0  0  0  0  0  0  0  0  0  0  0  0
   10.1620    1.3156    0.0000 N   0  0  0  0  0  0  0  0  0  0  0  0
    9.7553   -1.3300    0.0000 N   0  0  0  0  0  0  0  0  0  0  0  0
   10.3939   -2.9936    0.0000 N   0  0  0  0  0  0  0  0  0  0  0  0
    3.7320    0.3747    0.0000 C   0  0  3  0  0  0  0  0  0  0  0  0
    2.8660    0.8747    0.0000 C   0  0  3  0  0  0  0  0  0  0  0  0
    3.7323    1.3752    0.0000 C   0  0  0  0  0  0  0  0  0  0  0  0
    3.7320   -0.6253    0.0000 C   0  0  0  0  0  0  0  0  0  0  0  0
    2.0000    0.3747    0.0000 C   0  0  0  0  0  0  0  0  0  0  0  0
    4.7169    0.5484    0.0000 C   0  0  0  0  0  0  0  0  0  0  0  0
    2.0000   -0.6253    0.0000 C   0  0  0  0  0  0  0  0  0  0  0  0
    4.5981   -1.1253    0.0000 C   0  0  0  0  0  0  0  0  0  0  0  0
    5.4641   -0.6253    0.0000 C   0  0  1  0  0  0  0  0  0  0  0  0
    2.7071   -1.3324    0.0000 C   0  0  0  0  0  0  0  0  0  0  0  0
    5.6733    0.3466    0.0000 C   0  0  0  0  0  0  0  0  0  0  0  0
    6.6620    0.4496    0.0000 C   0  0  2  0  0  0  0  0  0  0  0  0
    7.0671   -0.4582    0.0000 C   0  0  0  0  0  0  0  0  0  0  0  0
    2.7071   -2.3324    0.0000 C   0  0  0  0  0  0  0  0  0  0  0  0
    6.3301   -2.1253    0.0000 C   0  0  0  0  0  0  0  0  0  0  0  0
    3.4142   -3.0395    0.0000 C   0  0  0  0  0  0  0  0  0  0  0  0
    6.0532   -3.2289    0.0000 C   0  0  2  0  0  0  0  0  0  0  0  0
    4.3801   -2.7806    0.0000 C   0  0  0  0  0  0  0  0  0  0  0  0
    5.0872   -3.4878    0.0000 C   0  0  0  0  0  0  0  0  0  0  0  0
    8.1620    1.3156    0.0000 C   0  0  0  0  0  0  0  0  0  0  0  0
    8.6620    2.1817    0.0000 C   0  0  0  0  0  0  0  0  0  0  0  0
    6.3300   -4.9387    0.0000 C   0  0  0  0  0  0  0  0  0  0  0  0
    8.6620    0.4496    0.0000 C   0  0  0  0  0  0  0  0  0  0  0  0
    9.6620    2.1817    0.0000 C   0  0  0  0  0  0  0  0  0  0  0  0
    9.6620    0.4496    0.0000 C   0  0  0  0  0  0  0  0  0  0  0  0
    6.9620   -5.7137    0.0000 C   0  0  0  0  0  0  0  0  0  0  0  0
    8.1274    3.0756    0.0000 C   0  0  0  0  0  0  0  0  0  0  0  0
   10.1967    3.0756    0.0000 C   0  0  0  0  0  0  0  0  0  0  0  0
    8.6412    3.9817    0.0000 C   0  0  0  0  0  0  0  0  0  0  0  0
   10.1620   -0.4164    0.0000 C   0  0  0  0  0  0  0  0  0  0  0  0
    9.6828    3.9817    0.0000 C   0  0  0  0  0  0  0  0  0  0  0  0
   11.1566   -0.5209    0.0000 C   0  0  0  0  0  0  0  0  0  0  0  0
   10.4984   -1.9991    0.0000 C   0  0  0  0  0  0  0  0  0  0  0  0
    9.6895    5.7137    0.0000 C   0  0  0  0  0  0  0  0  0  0  0  0
   11.2029   -3.5814    0.0000 C   0  0  0  0  0  0  0  0  0  0  0  0
   11.0984   -4.5759    0.0000 C   0  0  0  0  0  0  0  0  0  0  0  0
    2.5560    1.4116    0.0000 H   0  0  0  0  0  0  0  0  0  0  0  0
    4.3429    1.4828    0.0000 H   0  0  0  0  0  0  0  0  0  0  0  0
    3.5202    1.9578    0.0000 H   0  0  0  0  0  0  0  0  0  0  0  0
    3.1215   -0.5176    0.0000 H   0  0  0  0  0  0  0  0  0  0  0  0
    3.5200   -1.2079    0.0000 H   0  0  0  0  0  0  0  0  0  0  0  0
    1.7880    0.9574    0.0000 H   0  0  0  0  0  0  0  0  0  0  0  0
    1.3894    0.2671    0.0000 H   0  0  0  0  0  0  0  0  0  0  0  0
    1.4011   -0.4648    0.0000 H   0  0  0  0  0  0  0  0  0  0  0  0
    1.6900   -1.1622    0.0000 H   0  0  0  0  0  0  0  0  0  0  0  0
    4.7771   -0.1247    0.0000 H   0  0  0  0  0  0  0  0  0  0  0  0
    3.3060   -1.4928    0.0000 H   0  0  0  0  0  0  0  0  0  0  0  0
    3.0171   -0.7954    0.0000 H   0  0  0  0  0  0  0  0  0  0  0  0
    5.6742    0.9666    0.0000 H   0  0  0  0  0  0  0  0  0  0  0  0
    5.0568    0.4126    0.0000 H   0  0  0  0  0  0  0  0  0  0  0  0
    6.3246    0.9697    0.0000 H   0  0  0  0  0  0  0  0  0  0  0  0
    7.4326   -0.9590    0.0000 H   0  0  0  0  0  0  0  0  0  0  0  0
    7.6036   -0.1474    0.0000 H   0  0  0  0  0  0  0  0  0  0  0  0
    4.6604    1.9630    0.0000 H   0  0  0  0  0  0  0  0  0  0  0  0
    2.1082   -2.1719    0.0000 H   0  0  0  0  0  0  0  0  0  0  0  0
    2.3971   -2.8693    0.0000 H   0  0  0  0  0  0  0  0  0  0  0  0
    2.9063   -3.3951    0.0000 H   0  0  0  0  0  0  0  0  0  0  0  0
    3.6762   -3.6014    0.0000 H   0  0  0  0  0  0  0  0  0  0  0  0
    6.6584   -3.0942    0.0000 H   0  0  0  0  0  0  0  0  0  0  0  0
    4.8880   -2.4250    0.0000 H   0  0  0  0  0  0  0  0  0  0  0  0
    4.1181   -2.2187    0.0000 H   0  0  0  0  0  0  0  0  0  0  0  0
    4.5794   -3.8434    0.0000 H   0  0  0  0  0  0  0  0  0  0  0  0
    5.3493   -4.0497    0.0000 H   0  0  0  0  0  0  0  0  0  0  0  0
    7.2972   -3.9048    0.0000 H   0  0  0  0  0  0  0  0  0  0  0  0
    8.3520   -0.0873    0.0000 H   0  0  0  0  0  0  0  0  0  0  0  0
    6.4815   -6.1055    0.0000 H   0  0  0  0  0  0  0  0  0  0  0  0
    7.3538   -6.1942    0.0000 H   0  0  0  0  0  0  0  0  0  0  0  0
    7.4425   -5.3219    0.0000 H   0  0  0  0  0  0  0  0  0  0  0  0
    7.5074    3.0684    0.0000 H   0  0  0  0  0  0  0  0  0  0  0  0
   10.8166    3.0684    0.0000 H   0  0  0  0  0  0  0  0  0  0  0  0
    8.3292    4.5174    0.0000 H   0  0  0  0  0  0  0  0  0  0  0  0
   11.5714   -0.0602    0.0000 H   0  0  0  0  0  0  0  0  0  0  0  0
   10.2276    6.0216    0.0000 H   0  0  0  0  0  0  0  0  0  0  0  0
    9.3816    6.2518    0.0000 H   0  0  0  0  0  0  0  0  0  0  0  0
    9.1514    5.4058    0.0000 H   0  0  0  0  0  0  0  0  0  0  0  0
    9.8275   -3.2458    0.0000 H   0  0  0  0  0  0  0  0  0  0  0  0
   10.4818   -4.5111    0.0000 H   0  0  0  0  0  0  0  0  0  0  0  0
   11.0336   -5.1925    0.0000 H   0  0  0  0  0  0  0  0  0  0  0  0
   11.7150   -4.6407    0.0000 H   0  0  0  0  0  0  0  0  0  0  0  0
  1 46  1  0  0  0  0
  1 47  1  0  0  0  0
  2 20  1  0  0  0  0
  2 68  1  0  0  0  0
  3 20  2  0  0  0  0
  4 22  2  0  0  0  0
 26  5  1  1  0  0  0
  5 34  1  0  0  0  0
  6 29  2  0  0  0  0
  7 36  2  0  0  0  0
  8 45  1  0  0  0  0
  8 48  1  0  0  0  0
  9 49  2  0  0  0  0
 10 23  1  0  0  0  0
 10 27  1  0  0  0  0
 10 29  1  0  0  0  0
 31 11  1  1  0  0  0
 11 36  1  0  0  0  0
 11 78  1  0  0  0  0
 12 38  1  0  0  0  0
 12 39  2  0  0  0  0
 13 44  1  0  0  0  0
 13 47  2  0  0  0  0
 14 47  1  0  0  0  0
 14 49  1  0  0  0  0
 14 90  1  0  0  0  0
 15 16  1  0  0  0  0
 15 17  1  0  0  0  0
 15 18  1  0  0  0  0
 15 20  1  0  0  0  0
 16 17  1  0  0  0  0
 16 19  1  0  0  0  0
 16 51  1  0  0  0  0
 17 52  1  0  0  0  0
 17 53  1  0  0  0  0
 18 22  1  0  0  0  0
 18 54  1  0  0  0  0
 18 55  1  0  0  0  0
 19 21  1  0  0  0  0
 19 56  1  0  0  0  0
 19 57  1  0  0  0  0
 21 24  1  0  0  0  0
 21 58  1  0  0  0  0
 21 59  1  0  0  0  0
 22 23  1  0  0  0  0
 23 25  1  0  0  0  0
 23 60  1  6  0  0  0
 24 28  1  0  0  0  0
 24 61  1  0  0  0  0
 24 62  1  0  0  0  0
 25 26  1  0  0  0  0
 25 63  1  0  0  0  0
 25 64  1  0  0  0  0
 26 27  1  0  0  0  0
 26 65  1  0  0  0  0
 27 66  1  0  0  0  0
 27 67  1  0  0  0  0
 28 30  1  0  0  0  0
 28 69  1  0  0  0  0
 28 70  1  0  0  0  0
 29 31  1  0  0  0  0
 30 32  1  0  0  0  0
 30 71  1  0  0  0  0
 30 72  1  0  0  0  0
 31 33  1  0  0  0  0
 31 73  1  0  0  0  0
 32 33  1  0  0  0  0
 32 74  1  0  0  0  0
 32 75  1  0  0  0  0
 33 76  1  0  0  0  0
 33 77  1  0  0  0  0
 34 35  1  0  0  0  0
 34 37  2  0  0  0  0
 35 38  2  0  0  0  0
 35 41  1  0  0  0  0
 36 40  1  0  0  0  0
 37 39  1  0  0  0  0
 37 79  1  0  0  0  0
 38 42  1  0  0  0  0
 39 44  1  0  0  0  0
 40 80  1  0  0  0  0
 40 81  1  0  0  0  0
 40 82  1  0  0  0  0
 41 43  2  0  0  0  0
 41 83  1  0  0  0  0
 42 45  2  0  0  0  0
 42 84  1  0  0  0  0
 43 45  1  0  0  0  0
 43 85  1  0  0  0  0
 44 46  2  0  0  0  0
 46 86  1  0  0  0  0
 48 87  1  0  0  0  0
 48 88  1  0  0  0  0
 48 89  1  0  0  0  0
 49 50  1  0  0  0  0
 50 91  1  0  0  0  0
 50 92  1  0  0  0  0
 50 93  1  0  0  0  0
M  END
> <PUBCHEM_COMPOUND_CID>
501497
> <PUBCHEM_COMPOUND_CANONICALIZED>
1
> <PUBCHEM_CACTVS_COMPLEXITY>
1290
> <PUBCHEM_CACTVS_HBOND_ACCEPTOR>
11
> <PUBCHEM_CACTVS_HBOND_DONOR>
3
> <PUBCHEM_CACTVS_ROTATABLE_BOND>
7
> <PUBCHEM_CACTVS_SUBSKEYS>
AAADcfB/vABAAAAAAAAAAAAAGAAAAWLAAAA8QAAAAAAAAACx/AAAHgQQCAAADzzl3gaz3/PIFgisA6XyfACC+KlhKjkJmLW+bJiOZvLkubuXeCju1xvY6Ce7+e+foAAAAgACAABAAAAEAAQAAAAAAAAAAA==
> <PUBCHEM_IUPAC_OPENEYE_NAME>
(1R,14S,18R)-14-acetamido-18-[[2-(2-acetamidothiazol-4-yl)-7-methoxy-4-quinolyl]oxy]-2,15-dioxo-16-azatricyclo[14.3.0.04,6]nonadecane-4-carboxylic acid
> <PUBCHEM_IUPAC_CAS_NAME>
(1R,14S,18R)-14-acetamido-18-[[2-(2-acetamido-4-thiazolyl)-7-methoxy-4-quinolinyl]oxy]-2,15-dioxo-16-azatricyclo[14.3.0.04,6]nonadecane-4-carboxylic acid
> <PUBCHEM_IUPAC_NAME_MARKUP>
(1<I>R</I>,14<I>S</I>,18<I>R</I>)-14-acetamido-18-[2-(2-acetamido-1,3-thiazol-4-yl)-7-methoxyquinolin-4-yl]oxy-2,15-dioxo-16-azatricyclo[14.3.0.0<SUP>4,6</SUP>]nonadecane-4-carboxylic acid
> <PUBCHEM_IUPAC_NAME>
(1R,14S,18R)-14-acetamido-18-[2-(2-acetamido-1,3-thiazol-4-yl)-7-methoxyquinolin-4-yl]oxy-2,15-dioxo-16-azatricyclo[14.3.0.04,6]nonadecane-4-carboxylic acid
> <PUBCHEM_IUPAC_SYSTEMATIC_NAME>
(1R,14S,18R)-14-acetamido-18-[2-(2-acetamido-1,3-thiazol-4-yl)-7-methoxy-quinolin-4-yl]oxy-2,15-bis(oxidanylidene)-16-azatricyclo[14.3.0.04,6]nonadecane-4-carboxylic acid
> <PUBCHEM_IUPAC_TRADITIONAL_NAME>
(1R,14S,18R)-14-acetamido-18-[[2-(2-acetamidothiazol-4-yl)-7-methoxy-4-quinolyl]oxy]-2,15-diketo-16-azatricyclo[14.3.0.04,6]nonadecane-4-carboxylic acid
> <PUBCHEM_IUPAC_INCHI>
InChI=1S/C36H43N5O8S/c1-20(42)37-26-10-8-6-4-5-7-9-22-16-36(22,34(46)47)17-31(44)30-14-24(18-41(30)33(26)45)49-32-15-28(29-19-50-35(40-29)38-21(2)43)39-27-13-23(48-3)11-12-25(27)32/h11-13,15,19,22,24,26,30H,4-10,14,16-18H2,1-3H3,(H,37,42)(H,46,47)(H,38,40,43)/t22?,24-,26+,30-,36?/m1/s1
> <PUBCHEM_IUPAC_INCHIKEY>
CTUJFMJKUMDQMH-NZKJYQTOSA-N
> <PUBCHEM_XLOGP3_AA>
4.2
> <PUBCHEM_EXACT_MASS>
705.28323452
> <PUBCHEM_MOLECULAR_FORMULA>
C36H43N5O8S
> <PUBCHEM_MOLECULAR_WEIGHT>
705.8
> <PUBCHEM_OPENEYE_CAN_SMILES>
CC(=O)NC1CCCCCCCC2CC2(CC(=O)C3CC(CN3C1=O)OC4=CC(=NC5=C4C=CC(=C5)OC)C6=CSC(=N6)NC(=O)C)C(=O)O
> <PUBCHEM_OPENEYE_ISO_SMILES>
CC(=O)N[C@H]1CCCCCCCC2CC2(CC(=O)[C@H]3C[C@H](CN3C1=O)OC4=CC(=NC5=C4C=CC(=C5)OC)C6=CSC(=N6)NC(=O)C)C(=O)O
> <PUBCHEM_CACTVS_TPSA>
205
> <PUBCHEM_MONOISOTOPIC_WEIGHT>
705.28323452
> <PUBCHEM_TOTAL_CHARGE>
0
> <PUBCHEM_HEAVY_ATOM_COUNT>
50
> <PUBCHEM_ATOM_DEF_STEREO_COUNT>
3
> <PUBCHEM_ATOM_UDEF_STEREO_COUNT>
2
> <PUBCHEM_BOND_DEF_STEREO_COUNT>
0
> <PUBCHEM_BOND_UDEF_STEREO_COUNT>
0
> <PUBCHEM_ISOTOPIC_ATOM_COUNT>
0
> <PUBCHEM_COMPONENT_COUNT>
1
> <PUBCHEM_CACTVS_TAUTO_COUNT>
-1
> <PUBCHEM_COORDINATE_TYPE>
1
5
255
> <PUBCHEM_BONDANNOTATIONS>
1  46  8
1  47  8
31  11  5
12  38  8
12  39  8
13  44  8
13  47  8
15  20  3
16  19  3
23  60  6
34  35  8
34  37  8
35  38  8
35  41  8
37  39  8
38  42  8
41  43  8
42  45  8
43  45  8
44  46  8
26  5  5
$$$$
