501442
  -OEChem-10302200282D
 76 79  0     1  0  0  0  0  0999 V2000
    9.2136   -0.6583    0.0000 O   0  0  0  0  0  0  0  0  0  0  0  0
    6.8994    0.6241    0.0000 O   0  0  0  0  0  0  0  0  0  0  0  0
    9.7884    3.8881    0.0000 O   0  0  0  0  0  0  0  0  0  0  0  0
    7.6138   -2.7655    0.0000 O   0  0  0  0  0  0  0  0  0  0  0  0
    8.1886    1.7809    0.0000 O   0  0  0  0  0  0  0  0  0  0  0  0
    7.9244   -1.8150    0.0000 O   0  0  0  0  0  0  0  0  0  0  0  0
    8.4993    2.7314    0.0000 O   0  0  0  0  0  0  0  0  0  0  0  0
    6.3246   -3.9222    0.0000 O   0  0  0  0  0  0  0  0  0  0  0  0
    9.8349    1.2428    0.0000 N   0  0  0  0  0  0  0  0  0  0  0  0
    6.2781   -1.2769    0.0000 N   0  0  0  0  0  0  0  0  0  0  0  0
   11.4348    4.9595    0.0000 N   0  0  0  0  0  0  0  0  0  0  0  0
    4.6783   -4.9936    0.0000 N   0  0  0  0  0  0  0  0  0  0  0  0
   11.1241    2.3995    0.0000 C   0  0  0  0  0  0  0  0  0  0  0  0
    4.9889   -2.4336    0.0000 C   0  0  0  0  0  0  0  0  0  0  0  0
   10.1456    2.1933    0.0000 C   0  0  1  0  0  0  0  0  0  0  0  0
    5.9674   -2.2274    0.0000 C   0  0  1  0  0  0  0  0  0  0  0  0
   11.4348    3.3500    0.0000 C   0  0  0  0  0  0  0  0  0  0  0  0
    4.6783   -3.3842    0.0000 C   0  0  0  0  0  0  0  0  0  0  0  0
   12.3810    3.6548    0.0000 C   0  0  0  0  0  0  0  0  0  0  0  0
    3.7320   -3.6889    0.0000 C   0  0  0  0  0  0  0  0  0  0  0  0
    8.5458    0.0861    0.0000 C   0  0  1  0  0  0  0  0  0  0  0  0
    7.5673   -0.1202    0.0000 C   0  0  1  0  0  0  0  0  0  0  0  0
   12.3810    4.6548    0.0000 C   0  0  0  0  0  0  0  0  0  0  0  0
    3.7320   -4.6889    0.0000 C   0  0  0  0  0  0  0  0  0  0  0  0
   10.8512    4.1548    0.0000 C   0  0  0  0  0  0  0  0  0  0  0  0
    5.2619   -4.1889    0.0000 C   0  0  0  0  0  0  0  0  0  0  0  0
    8.8564    1.0366    0.0000 C   0  0  0  0  0  0  0  0  0  0  0  0
    7.2566   -1.0707    0.0000 C   0  0  0  0  0  0  0  0  0  0  0  0
    9.4778    2.9376    0.0000 C   0  0  0  0  0  0  0  0  0  0  0  0
    6.6353   -2.9717    0.0000 C   0  0  0  0  0  0  0  0  0  0  0  0
   13.2470    3.1548    0.0000 C   0  0  0  0  0  0  0  0  0  0  0  0
    2.8660   -3.1889    0.0000 C   0  0  0  0  0  0  0  0  0  0  0  0
   13.2470    5.1548    0.0000 C   0  0  0  0  0  0  0  0  0  0  0  0
    2.8660   -5.1889    0.0000 C   0  0  0  0  0  0  0  0  0  0  0  0
   14.1130    3.6548    0.0000 C   0  0  0  0  0  0  0  0  0  0  0  0
    2.0000   -3.6889    0.0000 C   0  0  0  0  0  0  0  0  0  0  0  0
   14.1130    4.6548    0.0000 C   0  0  0  0  0  0  0  0  0  0  0  0
    2.0000   -4.6889    0.0000 C   0  0  0  0  0  0  0  0  0  0  0  0
    9.1206    4.6324    0.0000 C   0  0  0  0  0  0  0  0  0  0  0  0
    8.2816   -3.5098    0.0000 C   0  0  0  0  0  0  0  0  0  0  0  0
    9.4312    5.5830    0.0000 C   0  0  0  0  0  0  0  0  0  0  0  0
    9.2601   -3.3036    0.0000 C   0  0  0  0  0  0  0  0  0  0  0  0
   11.1447    1.7799    0.0000 H   0  0  0  0  0  0  0  0  0  0  0  0
   11.7379    2.3122    0.0000 H   0  0  0  0  0  0  0  0  0  0  0  0
    4.9684   -1.8140    0.0000 H   0  0  0  0  0  0  0  0  0  0  0  0
    4.3751   -2.3463    0.0000 H   0  0  0  0  0  0  0  0  0  0  0  0
   10.5597    1.7318    0.0000 H   0  0  0  0  0  0  0  0  0  0  0  0
    5.5534   -1.7660    0.0000 H   0  0  0  0  0  0  0  0  0  0  0  0
    8.3532   -0.5033    0.0000 H   0  0  0  0  0  0  0  0  0  0  0  0
    6.9606   -0.2480    0.0000 H   0  0  0  0  0  0  0  0  0  0  0  0
   10.2490    0.7813    0.0000 H   0  0  0  0  0  0  0  0  0  0  0  0
    5.8640   -0.8154    0.0000 H   0  0  0  0  0  0  0  0  0  0  0  0
   10.2312    4.1548    0.0000 H   0  0  0  0  0  0  0  0  0  0  0  0
    5.8819   -4.1889    0.0000 H   0  0  0  0  0  0  0  0  0  0  0  0
   11.2422    5.5488    0.0000 H   0  0  0  0  0  0  0  0  0  0  0  0
    4.8709   -5.5830    0.0000 H   0  0  0  0  0  0  0  0  0  0  0  0
   13.2470    2.5348    0.0000 H   0  0  0  0  0  0  0  0  0  0  0  0
    2.8660   -2.5689    0.0000 H   0  0  0  0  0  0  0  0  0  0  0  0
   13.2470    5.7748    0.0000 H   0  0  0  0  0  0  0  0  0  0  0  0
    2.8660   -5.8089    0.0000 H   0  0  0  0  0  0  0  0  0  0  0  0
   14.6500    3.3448    0.0000 H   0  0  0  0  0  0  0  0  0  0  0  0
    1.4631   -3.3789    0.0000 H   0  0  0  0  0  0  0  0  0  0  0  0
   14.6500    4.9648    0.0000 H   0  0  0  0  0  0  0  0  0  0  0  0
    1.4631   -4.9989    0.0000 H   0  0  0  0  0  0  0  0  0  0  0  0
    9.8203   -0.5304    0.0000 H   0  0  0  0  0  0  0  0  0  0  0  0
    7.0920    1.2135    0.0000 H   0  0  0  0  0  0  0  0  0  0  0  0
    8.5737    4.9244    0.0000 H   0  0  0  0  0  0  0  0  0  0  0  0
    8.7380    4.1445    0.0000 H   0  0  0  0  0  0  0  0  0  0  0  0
    7.7553   -3.8374    0.0000 H   0  0  0  0  0  0  0  0  0  0  0  0
    8.5129   -4.0851    0.0000 H   0  0  0  0  0  0  0  0  0  0  0  0
   10.0206    5.3903    0.0000 H   0  0  0  0  0  0  0  0  0  0  0  0
    9.6238    6.1723    0.0000 H   0  0  0  0  0  0  0  0  0  0  0  0
    8.8419    5.7756    0.0000 H   0  0  0  0  0  0  0  0  0  0  0  0
    9.3880   -3.9103    0.0000 H   0  0  0  0  0  0  0  0  0  0  0  0
    9.8668   -3.1757    0.0000 H   0  0  0  0  0  0  0  0  0  0  0  0
    9.1323   -2.6969    0.0000 H   0  0  0  0  0  0  0  0  0  0  0  0
 21  1  1  1  0  0  0
  1 65  1  0  0  0  0
 22  2  1  1  0  0  0
  2 66  1  0  0  0  0
  3 29  1  0  0  0  0
  3 39  1  0  0  0  0
  4 30  1  0  0  0  0
  4 40  1  0  0  0  0
  5 27  2  0  0  0  0
  6 28  2  0  0  0  0
  7 29  2  0  0  0  0
  8 30  2  0  0  0  0
 15  9  1  6  0  0  0
  9 27  1  0  0  0  0
  9 51  1  0  0  0  0
 16 10  1  6  0  0  0
 10 28  1  0  0  0  0
 10 52  1  0  0  0  0
 11 23  1  0  0  0  0
 11 25  1  0  0  0  0
 11 55  1  0  0  0  0
 12 24  1  0  0  0  0
 12 26  1  0  0  0  0
 12 56  1  0  0  0  0
 13 15  1  0  0  0  0
 13 17  1  0  0  0  0
 13 43  1  0  0  0  0
 13 44  1  0  0  0  0
 14 16  1  0  0  0  0
 14 18  1  0  0  0  0
 14 45  1  0  0  0  0
 14 46  1  0  0  0  0
 15 29  1  0  0  0  0
 15 47  1  0  0  0  0
 16 30  1  0  0  0  0
 16 48  1  0  0  0  0
 17 19  1  0  0  0  0
 17 25  2  0  0  0  0
 18 20  1  0  0  0  0
 18 26  2  0  0  0  0
 19 23  1  0  0  0  0
 19 31  2  0  0  0  0
 20 24  1  0  0  0  0
 20 32  2  0  0  0  0
 21 22  1  0  0  0  0
 21 27  1  0  0  0  0
 21 49  1  0  0  0  0
 22 28  1  0  0  0  0
 22 50  1  0  0  0  0
 23 33  2  0  0  0  0
 24 34  2  0  0  0  0
 25 53  1  0  0  0  0
 26 54  1  0  0  0  0
 31 35  1  0  0  0  0
 31 57  1  0  0  0  0
 32 36  1  0  0  0  0
 32 58  1  0  0  0  0
 33 37  1  0  0  0  0
 33 59  1  0  0  0  0
 34 38  1  0  0  0  0
 34 60  1  0  0  0  0
 35 37  2  0  0  0  0
 35 61  1  0  0  0  0
 36 38  2  0  0  0  0
 36 62  1  0  0  0  0
 37 63  1  0  0  0  0
 38 64  1  0  0  0  0
 39 41  1  0  0  0  0
 39 67  1  0  0  0  0
 39 68  1  0  0  0  0
 40 42  1  0  0  0  0
 40 69  1  0  0  0  0
 40 70  1  0  0  0  0
 41 71  1  0  0  0  0
 41 72  1  0  0  0  0
 41 73  1  0  0  0  0
 42 74  1  0  0  0  0
 42 75  1  0  0  0  0
 42 76  1  0  0  0  0
M  END
> <PUBCHEM_COMPOUND_CID>
501442
> <PUBCHEM_COMPOUND_CANONICALIZED>
1
> <PUBCHEM_CACTVS_COMPLEXITY>
876
> <PUBCHEM_CACTVS_HBOND_ACCEPTOR>
8
> <PUBCHEM_CACTVS_HBOND_DONOR>
6
> <PUBCHEM_CACTVS_ROTATABLE_BOND>
15
> <PUBCHEM_CACTVS_SUBSKEYS>
AAADcfB7vAAAAAAAAAAAAAAAAAAAAWLAAAAwYAAAAAAAAFgB/gAAHgAQCAAADDzhngY+yPLJlgCoAzX3XAKCgCAxAiAI2aH4ZJgLMPbAkbGHYAhmtgDZyAed2fKOgAAAAAACAAAAAAAAAAQAAAAAAAAAAA==
> <PUBCHEM_IUPAC_OPENEYE_NAME>
ethyl (2S)-2-[[(2S,3S)-4-[[(1S)-2-ethoxy-1-(1H-indol-3-ylmethyl)-2-oxo-ethyl]amino]-2,3-dihydroxy-4-oxo-butanoyl]amino]-3-(1H-indol-3-yl)propanoate
> <PUBCHEM_IUPAC_CAS_NAME>
(2S)-2-[[(2S,3S)-4-[[(2S)-1-ethoxy-3-(1H-indol-3-yl)-1-oxopropan-2-yl]amino]-2,3-dihydroxy-1,4-dioxobutyl]amino]-3-(1H-indol-3-yl)propanoic acid ethyl ester
> <PUBCHEM_IUPAC_NAME_MARKUP>
ethyl (2<I>S</I>)-2-[[(2<I>S</I>,3<I>S</I>)-4-[[(2<I>S</I>)-1-ethoxy-3-(1<I>H</I>-indol-3-yl)-1-oxopropan-2-yl]amino]-2,3-dihydroxy-4-oxobutanoyl]amino]-3-(1<I>H</I>-indol-3-yl)propanoate
> <PUBCHEM_IUPAC_NAME>
ethyl (2S)-2-[[(2S,3S)-4-[[(2S)-1-ethoxy-3-(1H-indol-3-yl)-1-oxopropan-2-yl]amino]-2,3-dihydroxy-4-oxobutanoyl]amino]-3-(1H-indol-3-yl)propanoate
> <PUBCHEM_IUPAC_SYSTEMATIC_NAME>
ethyl (2S)-2-[[(2S,3S)-4-[[(2S)-1-ethoxy-3-(1H-indol-3-yl)-1-oxidanylidene-propan-2-yl]amino]-2,3-bis(oxidanyl)-4-oxidanylidene-butanoyl]amino]-3-(1H-indol-3-yl)propanoate
> <PUBCHEM_IUPAC_TRADITIONAL_NAME>
(2S)-2-[[(2S,3S)-4-[[(1S)-2-ethoxy-1-(1H-indol-3-ylmethyl)-2-keto-ethyl]amino]-2,3-dihydroxy-4-keto-butanoyl]amino]-3-(1H-indol-3-yl)propionic acid ethyl ester
> <PUBCHEM_IUPAC_INCHI>
InChI=1S/C30H34N4O8/c1-3-41-29(39)23(13-17-15-31-21-11-7-5-9-19(17)21)33-27(37)25(35)26(36)28(38)34-24(30(40)42-4-2)14-18-16-32-22-12-8-6-10-20(18)22/h5-12,15-16,23-26,31-32,35-36H,3-4,13-14H2,1-2H3,(H,33,37)(H,34,38)/t23-,24-,25-,26-/m0/s1
> <PUBCHEM_IUPAC_INCHIKEY>
WRJSCUJTZYYQMF-CQJMVLFOSA-N
> <PUBCHEM_XLOGP3>
2
> <PUBCHEM_EXACT_MASS>
578.23766406
> <PUBCHEM_MOLECULAR_FORMULA>
C30H34N4O8
> <PUBCHEM_MOLECULAR_WEIGHT>
578.6
> <PUBCHEM_OPENEYE_CAN_SMILES>
CCOC(=O)C(CC1=CNC2=CC=CC=C21)NC(=O)C(C(C(=O)NC(CC3=CNC4=CC=CC=C43)C(=O)OCC)O)O
> <PUBCHEM_OPENEYE_ISO_SMILES>
CCOC(=O)[C@H](CC1=CNC2=CC=CC=C21)NC(=O)[C@H]([C@@H](C(=O)N[C@@H](CC3=CNC4=CC=CC=C43)C(=O)OCC)O)O
> <PUBCHEM_CACTVS_TPSA>
183
> <PUBCHEM_MONOISOTOPIC_WEIGHT>
578.23766406
> <PUBCHEM_TOTAL_CHARGE>
0
> <PUBCHEM_HEAVY_ATOM_COUNT>
42
> <PUBCHEM_ATOM_DEF_STEREO_COUNT>
4
> <PUBCHEM_ATOM_UDEF_STEREO_COUNT>
0
> <PUBCHEM_BOND_DEF_STEREO_COUNT>
0
> <PUBCHEM_BOND_UDEF_STEREO_COUNT>
0
> <PUBCHEM_ISOTOPIC_ATOM_COUNT>
0
> <PUBCHEM_COMPONENT_COUNT>
1
> <PUBCHEM_CACTVS_TAUTO_COUNT>
-1
> <PUBCHEM_COORDINATE_TYPE>
1
5
255
> <PUBCHEM_BONDANNOTATIONS>
21  1  5
16  10  6
11  23  8
11  25  8
12  24  8
12  26  8
17  19  8
17  25  8
18  20  8
18  26  8
19  23  8
19  31  8
22  2  5
20  24  8
20  32  8
23  33  8
24  34  8
31  35  8
32  36  8
33  37  8
34  38  8
35  37  8
36  38  8
15  9  6
$$$$
