501450
  -OEChem-10302200282D
 87 92  0     1  0  0  0  0  0999 V2000
    4.2788   -0.2683    0.0000 O   0  0  0  0  0  0  0  0  0  0  0  0
    5.3298   -0.9973    0.0000 O   0  0  0  0  0  0  0  0  0  0  0  0
    7.6523   -3.7551    0.0000 O   0  0  0  0  0  0  0  0  0  0  0  0
    8.6685   -4.5221    0.0000 O   0  0  0  0  0  0  0  0  0  0  0  0
    5.5388    0.9918    0.0000 N   0  0  0  0  0  0  0  0  0  0  0  0
    8.6704   -2.3539    0.0000 N   0  0  0  0  0  0  0  0  0  0  0  0
    4.0000    1.4918    0.0000 C   0  0  0  0  0  0  0  0  0  0  0  0
    4.5878    2.3008    0.0000 C   0  0  0  0  0  0  0  0  0  0  0  0
    5.5388    1.9918    0.0000 C   0  0  2  0  0  0  0  0  0  0  0  0
    3.5000    2.3578    0.0000 C   0  0  0  0  0  0  0  0  0  0  0  0
    3.5000    0.6258    0.0000 C   0  0  0  0  0  0  0  0  0  0  0  0
    4.5878    0.6828    0.0000 C   0  0  0  0  0  0  0  0  0  0  0  0
    2.5000    2.3578    0.0000 C   0  0  0  0  0  0  0  0  0  0  0  0
    2.5000    0.6258    0.0000 C   0  0  0  0  0  0  0  0  0  0  0  0
    2.0000    1.4918    0.0000 C   0  0  0  0  0  0  0  0  0  0  0  0
    6.3479    2.5796    0.0000 C   0  0  0  0  0  0  0  0  0  0  0  0
    6.3479    0.4040    0.0000 C   0  0  0  0  0  0  0  0  0  0  0  0
    6.2433   -0.5905    0.0000 C   0  0  2  0  0  0  0  0  0  0  0  0
    6.2433    3.5741    0.0000 C   0  0  0  0  0  0  0  0  0  0  0  0
    7.0524   -1.1783    0.0000 C   0  0  0  0  0  0  0  0  0  0  0  0
    6.9478   -2.1728    0.0000 C   0  0  2  0  0  0  0  0  0  0  0  0
    5.3298    3.9808    0.0000 C   0  0  0  0  0  0  0  0  0  0  0  0
    7.0524    4.1619    0.0000 C   0  0  0  0  0  0  0  0  0  0  0  0
    6.0343   -2.5796    0.0000 C   0  0  0  0  0  0  0  0  0  0  0  0
    7.7568   -2.7606    0.0000 C   0  0  0  0  0  0  0  0  0  0  0  0
    9.4794   -2.9417    0.0000 C   0  0  2  0  0  0  0  0  0  0  0  0
    9.4785   -3.9357    0.0000 C   0  0  1  0  0  0  0  0  0  0  0  0
    5.2253    4.9754    0.0000 C   0  0  0  0  0  0  0  0  0  0  0  0
    6.9478    5.1564    0.0000 C   0  0  0  0  0  0  0  0  0  0  0  0
   10.4246   -2.6337    0.0000 C   0  0  0  0  0  0  0  0  0  0  0  0
   10.4232   -4.2454    0.0000 C   0  0  0  0  0  0  0  0  0  0  0  0
    5.9297   -3.5741    0.0000 C   0  0  0  0  0  0  0  0  0  0  0  0
    6.0343    5.5631    0.0000 C   0  0  0  0  0  0  0  0  0  0  0  0
   11.0109   -3.4437    0.0000 C   0  0  0  0  0  0  0  0  0  0  0  0
   10.8329   -1.7208    0.0000 C   0  0  0  0  0  0  0  0  0  0  0  0
   12.0056   -3.3409    0.0000 C   0  0  0  0  0  0  0  0  0  0  0  0
    6.7388   -4.1619    0.0000 C   0  0  0  0  0  0  0  0  0  0  0  0
    5.0162   -3.9808    0.0000 C   0  0  0  0  0  0  0  0  0  0  0  0
   11.8276   -1.6180    0.0000 C   0  0  0  0  0  0  0  0  0  0  0  0
   12.4140   -2.4280    0.0000 C   0  0  0  0  0  0  0  0  0  0  0  0
    6.6342   -5.1564    0.0000 C   0  0  0  0  0  0  0  0  0  0  0  0
    4.9117   -4.9754    0.0000 C   0  0  0  0  0  0  0  0  0  0  0  0
    5.7207   -5.5631    0.0000 C   0  0  0  0  0  0  0  0  0  0  0  0
    4.8400    2.8672    0.0000 H   0  0  0  0  0  0  0  0  0  0  0  0
    4.0508    2.6108    0.0000 H   0  0  0  0  0  0  0  0  0  0  0  0
    6.0913    1.7103    0.0000 H   0  0  0  0  0  0  0  0  0  0  0  0
    4.0826    2.5699    0.0000 H   0  0  0  0  0  0  0  0  0  0  0  0
    3.3923    2.9684    0.0000 H   0  0  0  0  0  0  0  0  0  0  0  0
    3.3923    0.0152    0.0000 H   0  0  0  0  0  0  0  0  0  0  0  0
    4.0826    0.4137    0.0000 H   0  0  0  0  0  0  0  0  0  0  0  0
    2.6077    2.9684    0.0000 H   0  0  0  0  0  0  0  0  0  0  0  0
    1.9174    2.5699    0.0000 H   0  0  0  0  0  0  0  0  0  0  0  0
    1.9174    0.4137    0.0000 H   0  0  0  0  0  0  0  0  0  0  0  0
    2.6077    0.0152    0.0000 H   0  0  0  0  0  0  0  0  0  0  0  0
    1.5250    1.8903    0.0000 H   0  0  0  0  0  0  0  0  0  0  0  0
    1.5250    1.0932    0.0000 H   0  0  0  0  0  0  0  0  0  0  0  0
    6.6196    2.0223    0.0000 H   0  0  0  0  0  0  0  0  0  0  0  0
    6.9438    2.7505    0.0000 H   0  0  0  0  0  0  0  0  0  0  0  0
    6.9438    0.2331    0.0000 H   0  0  0  0  0  0  0  0  0  0  0  0
    6.6196    0.9612    0.0000 H   0  0  0  0  0  0  0  0  0  0  0  0
    6.1785   -1.2071    0.0000 H   0  0  0  0  0  0  0  0  0  0  0  0
    7.6483   -1.3492    0.0000 H   0  0  0  0  0  0  0  0  0  0  0  0
    7.3241   -0.6211    0.0000 H   0  0  0  0  0  0  0  0  0  0  0  0
    7.5142   -1.9206    0.0000 H   0  0  0  0  0  0  0  0  0  0  0  0
    4.8282    3.6164    0.0000 H   0  0  0  0  0  0  0  0  0  0  0  0
    7.6188    3.9097    0.0000 H   0  0  0  0  0  0  0  0  0  0  0  0
    5.2650   -1.6139    0.0000 H   0  0  0  0  0  0  0  0  0  0  0  0
    5.8843   -1.9780    0.0000 H   0  0  0  0  0  0  0  0  0  0  0  0
    5.4158   -2.6228    0.0000 H   0  0  0  0  0  0  0  0  0  0  0  0
    9.5761   -2.3293    0.0000 H   0  0  0  0  0  0  0  0  0  0  0  0
    8.7352   -1.7373    0.0000 H   0  0  0  0  0  0  0  0  0  0  0  0
    8.9265   -3.6536    0.0000 H   0  0  0  0  0  0  0  0  0  0  0  0
    4.6589    5.2275    0.0000 H   0  0  0  0  0  0  0  0  0  0  0  0
    7.4494    5.5208    0.0000 H   0  0  0  0  0  0  0  0  0  0  0  0
   10.1692   -4.8110    0.0000 H   0  0  0  0  0  0  0  0  0  0  0  0
   10.9589   -4.5574    0.0000 H   0  0  0  0  0  0  0  0  0  0  0  0
    5.9695    6.1797    0.0000 H   0  0  0  0  0  0  0  0  0  0  0  0
   10.4693   -1.2186    0.0000 H   0  0  0  0  0  0  0  0  0  0  0  0
   12.3692   -3.8431    0.0000 H   0  0  0  0  0  0  0  0  0  0  0  0
    7.3052   -3.9097    0.0000 H   0  0  0  0  0  0  0  0  0  0  0  0
    4.5146   -3.6164    0.0000 H   0  0  0  0  0  0  0  0  0  0  0  0
    8.7322   -5.1388    0.0000 H   0  0  0  0  0  0  0  0  0  0  0  0
   12.0807   -1.0520    0.0000 H   0  0  0  0  0  0  0  0  0  0  0  0
   13.0307   -2.3643    0.0000 H   0  0  0  0  0  0  0  0  0  0  0  0
    7.1358   -5.5208    0.0000 H   0  0  0  0  0  0  0  0  0  0  0  0
    4.3453   -5.2275    0.0000 H   0  0  0  0  0  0  0  0  0  0  0  0
    5.6559   -6.1797    0.0000 H   0  0  0  0  0  0  0  0  0  0  0  0
  1 12  2  0  0  0  0
 18  2  1  6  0  0  0
  2 67  1  0  0  0  0
  3 25  2  0  0  0  0
 27  4  1  1  0  0  0
  4 82  1  0  0  0  0
  5  9  1  0  0  0  0
  5 12  1  0  0  0  0
  5 17  1  0  0  0  0
  6 25  1  0  0  0  0
 26  6  1  1  0  0  0
  6 71  1  0  0  0  0
  7  8  1  0  0  0  0
  7 10  1  0  0  0  0
  7 11  1  0  0  0  0
  7 12  1  0  0  0  0
  8  9  1  0  0  0  0
  8 44  1  0  0  0  0
  8 45  1  0  0  0  0
  9 16  1  6  0  0  0
  9 46  1  0  0  0  0
 10 13  1  0  0  0  0
 10 47  1  0  0  0  0
 10 48  1  0  0  0  0
 11 14  1  0  0  0  0
 11 49  1  0  0  0  0
 11 50  1  0  0  0  0
 13 15  1  0  0  0  0
 13 51  1  0  0  0  0
 13 52  1  0  0  0  0
 14 15  1  0  0  0  0
 14 53  1  0  0  0  0
 14 54  1  0  0  0  0
 15 55  1  0  0  0  0
 15 56  1  0  0  0  0
 16 19  1  0  0  0  0
 16 57  1  0  0  0  0
 16 58  1  0  0  0  0
 17 18  1  0  0  0  0
 17 59  1  0  0  0  0
 17 60  1  0  0  0  0
 18 20  1  0  0  0  0
 18 61  1  0  0  0  0
 19 22  2  0  0  0  0
 19 23  1  0  0  0  0
 21 20  1  1  0  0  0
 20 62  1  0  0  0  0
 20 63  1  0  0  0  0
 21 24  1  0  0  0  0
 21 25  1  0  0  0  0
 21 64  1  0  0  0  0
 22 28  1  0  0  0  0
 22 65  1  0  0  0  0
 23 29  2  0  0  0  0
 23 66  1  0  0  0  0
 24 32  1  0  0  0  0
 24 68  1  0  0  0  0
 24 69  1  0  0  0  0
 26 27  1  0  0  0  0
 26 30  1  0  0  0  0
 26 70  1  0  0  0  0
 27 31  1  0  0  0  0
 27 72  1  0  0  0  0
 28 33  2  0  0  0  0
 28 73  1  0  0  0  0
 29 33  1  0  0  0  0
 29 74  1  0  0  0  0
 30 34  1  0  0  0  0
 30 35  2  0  0  0  0
 31 34  1  0  0  0  0
 31 75  1  0  0  0  0
 31 76  1  0  0  0  0
 32 37  2  0  0  0  0
 32 38  1  0  0  0  0
 33 77  1  0  0  0  0
 34 36  2  0  0  0  0
 35 39  1  0  0  0  0
 35 78  1  0  0  0  0
 36 40  1  0  0  0  0
 36 79  1  0  0  0  0
 37 41  1  0  0  0  0
 37 80  1  0  0  0  0
 38 42  2  0  0  0  0
 38 81  1  0  0  0  0
 39 40  2  0  0  0  0
 39 83  1  0  0  0  0
 40 84  1  0  0  0  0
 41 43  2  0  0  0  0
 41 85  1  0  0  0  0
 42 43  1  0  0  0  0
 42 86  1  0  0  0  0
 43 87  1  0  0  0  0
M  END
> <PUBCHEM_COMPOUND_CID>
501450
> <PUBCHEM_COMPOUND_CANONICALIZED>
1
> <PUBCHEM_CACTVS_COMPLEXITY>
922
> <PUBCHEM_CACTVS_HBOND_ACCEPTOR>
4
> <PUBCHEM_CACTVS_HBOND_DONOR>
3
> <PUBCHEM_CACTVS_ROTATABLE_BOND>
10
> <PUBCHEM_CACTVS_SUBSKEYS>
AAADcfB/OAAAAAAAAAAAAAAAAAAAAeIAAAAwYMGAAAAAAGABUAAAHgAQCAAADzzhmAYwAIPAAgCIAiFSEACCAAAgAAAIiIEIBIgKMDKAkRGEYAhk1gGYiAe+2fKPgAAAAAAQAAAAAAAAACAAAKAACQgAAA==
> <PUBCHEM_IUPAC_OPENEYE_NAME>
(2S,4S)-2-benzyl-5-[(3S)-3-benzyl-1-oxo-2-azaspiro[4.5]decan-2-yl]-4-hydroxy-N-[(1S,2R)-2-hydroxyindan-1-yl]pentanamide
> <PUBCHEM_IUPAC_CAS_NAME>
(2S,4S)-4-hydroxy-N-[(1S,2R)-2-hydroxy-2,3-dihydro-1H-inden-1-yl]-5-[(3S)-1-oxo-3-(phenylmethyl)-2-azaspiro[4.5]decan-2-yl]-2-(phenylmethyl)pentanamide
> <PUBCHEM_IUPAC_NAME_MARKUP>
(2<I>S</I>,4<I>S</I>)-2-benzyl-5-[(3<I>S</I>)-3-benzyl-1-oxo-2-azaspiro[4.5]decan-2-yl]-4-hydroxy-<I>N</I>-[(1<I>S</I>,2<I>R</I>)-2-hydroxy-2,3-dihydro-1<I>H</I>-inden-1-yl]pentanamide
> <PUBCHEM_IUPAC_NAME>
(2S,4S)-2-benzyl-5-[(3S)-3-benzyl-1-oxo-2-azaspiro[4.5]decan-2-yl]-4-hydroxy-N-[(1S,2R)-2-hydroxy-2,3-dihydro-1H-inden-1-yl]pentanamide
> <PUBCHEM_IUPAC_SYSTEMATIC_NAME>
(2S,4S)-4-oxidanyl-N-[(1S,2R)-2-oxidanyl-2,3-dihydro-1H-inden-1-yl]-5-[(3S)-1-oxidanylidene-3-(phenylmethyl)-2-azaspiro[4.5]decan-2-yl]-2-(phenylmethyl)pentanamide
> <PUBCHEM_IUPAC_TRADITIONAL_NAME>
(2S,4S)-2-benzyl-5-[(3S)-3-benzyl-1-keto-2-azaspiro[4.5]decan-2-yl]-4-hydroxy-N-[(1S,2R)-2-hydroxyindan-1-yl]valeramide
> <PUBCHEM_IUPAC_INCHI>
InChI=1S/C37H44N2O4/c40-31(25-39-30(21-27-14-6-2-7-15-27)24-37(36(39)43)18-10-3-11-19-37)22-29(20-26-12-4-1-5-13-26)35(42)38-34-32-17-9-8-16-28(32)23-33(34)41/h1-2,4-9,12-17,29-31,33-34,40-41H,3,10-11,18-25H2,(H,38,42)/t29-,30-,31-,33+,34-/m0/s1
> <PUBCHEM_IUPAC_INCHIKEY>
XJRDHWPDPPVFPQ-HPSJISDUSA-N
> <PUBCHEM_XLOGP3_AA>
5.7
> <PUBCHEM_EXACT_MASS>
580.33010789
> <PUBCHEM_MOLECULAR_FORMULA>
C37H44N2O4
> <PUBCHEM_MOLECULAR_WEIGHT>
580.8
> <PUBCHEM_OPENEYE_CAN_SMILES>
C1CCC2(CC1)CC(N(C2=O)CC(CC(CC3=CC=CC=C3)C(=O)NC4C(CC5=CC=CC=C45)O)O)CC6=CC=CC=C6
> <PUBCHEM_OPENEYE_ISO_SMILES>
C1CCC2(CC1)C[C@@H](N(C2=O)C[C@H](C[C@H](CC3=CC=CC=C3)C(=O)N[C@@H]4[C@@H](CC5=CC=CC=C45)O)O)CC6=CC=CC=C6
> <PUBCHEM_CACTVS_TPSA>
89.9
> <PUBCHEM_MONOISOTOPIC_WEIGHT>
580.33010789
> <PUBCHEM_TOTAL_CHARGE>
0
> <PUBCHEM_HEAVY_ATOM_COUNT>
43
> <PUBCHEM_ATOM_DEF_STEREO_COUNT>
5
> <PUBCHEM_ATOM_UDEF_STEREO_COUNT>
0
> <PUBCHEM_BOND_DEF_STEREO_COUNT>
0
> <PUBCHEM_BOND_UDEF_STEREO_COUNT>
0
> <PUBCHEM_ISOTOPIC_ATOM_COUNT>
0
> <PUBCHEM_COMPONENT_COUNT>
1
> <PUBCHEM_CACTVS_TAUTO_COUNT>
-1
> <PUBCHEM_COORDINATE_TYPE>
1
5
255
> <PUBCHEM_BONDANNOTATIONS>
19  22  8
19  23  8
18  2  6
21  20  5
22  28  8
23  29  8
28  33  8
29  33  8
30  34  8
30  35  8
32  37  8
32  38  8
34  36  8
35  39  8
36  40  8
37  41  8
38  42  8
39  40  8
27  4  5
41  43  8
42  43  8
26  6  5
9  16  6
$$$$
