501449
  -OEChem-10302200282D
 85 89  0     1  0  0  0  0  0999 V2000
    5.4641    0.5000    0.0000 S   0  0  0  0  0  0  0  0  0  0  0  0
   11.5263   -1.0000    0.0000 O   0  0  0  0  0  0  0  0  0  0  0  0
    8.9282   -1.5000    0.0000 O   0  0  0  0  0  0  0  0  0  0  0  0
    8.0622   -1.0000    0.0000 O   0  0  0  0  0  0  0  0  0  0  0  0
    4.9641   -0.3660    0.0000 O   0  0  0  0  0  0  0  0  0  0  0  0
    5.9641    1.3660    0.0000 O   0  0  0  0  0  0  0  0  0  0  0  0
    2.0000    2.5000    0.0000 O   0  0  0  0  0  0  0  0  0  0  0  0
    9.7942   -0.0000    0.0000 N   0  0  0  0  0  0  0  0  0  0  0  0
    6.3301   -0.0000    0.0000 N   0  0  3  0  0  0  0  0  0  0  0  0
   10.6603   -1.5000    0.0000 C   0  0  0  0  0  0  0  0  0  0  0  0
   11.5263   -2.0000    0.0000 C   0  0  0  0  0  0  0  0  0  0  0  0
    9.7942   -2.0000    0.0000 C   0  0  0  0  0  0  0  0  0  0  0  0
   10.6603    0.5000    0.0000 C   0  0  2  0  0  0  0  0  0  0  0  0
    9.7942   -1.0000    0.0000 C   0  0  0  0  0  0  0  0  0  0  0  0
    5.4641   -1.5000    0.0000 C   0  0  0  0  0  0  0  0  0  0  0  0
   11.5263   -3.0000    0.0000 C   0  0  0  0  0  0  0  0  0  0  0  0
    9.7942   -3.0000    0.0000 C   0  0  0  0  0  0  0  0  0  0  0  0
   10.6603   -3.5000    0.0000 C   0  0  0  0  0  0  0  0  0  0  0  0
   11.5263    0.0000    0.0000 C   0  0  0  0  0  0  0  0  0  0  0  0
    4.5506   -1.0933    0.0000 C   0  0  0  0  0  0  0  0  0  0  0  0
    5.3596   -2.4945    0.0000 C   0  0  0  0  0  0  0  0  0  0  0  0
    8.9282    0.5000    0.0000 C   0  0  0  0  0  0  0  0  0  0  0  0
    6.3301   -1.0000    0.0000 C   0  0  0  0  0  0  0  0  0  0  0  0
    3.8814   -1.8364    0.0000 C   0  0  0  0  0  0  0  0  0  0  0  0
    4.3814   -2.7024    0.0000 C   0  0  0  0  0  0  0  0  0  0  0  0
    8.0622   -0.0000    0.0000 C   0  0  1  0  0  0  0  0  0  0  0  0
   10.6603    1.5000    0.0000 C   0  0  0  0  0  0  0  0  0  0  0  0
    7.1962    0.5000    0.0000 C   0  0  0  0  0  0  0  0  0  0  0  0
   11.5263    2.0000    0.0000 C   0  0  0  0  0  0  0  0  0  0  0  0
    4.5981    1.0000    0.0000 C   0  0  0  0  0  0  0  0  0  0  0  0
   11.5263    3.0000    0.0000 C   0  0  0  0  0  0  0  0  0  0  0  0
   12.3923    1.5000    0.0000 C   0  0  0  0  0  0  0  0  0  0  0  0
    4.5981    2.0000    0.0000 C   0  0  0  0  0  0  0  0  0  0  0  0
    3.7320    0.5000    0.0000 C   0  0  0  0  0  0  0  0  0  0  0  0
   12.3923    3.5000    0.0000 C   0  0  0  0  0  0  0  0  0  0  0  0
   13.2583    2.0000    0.0000 C   0  0  0  0  0  0  0  0  0  0  0  0
   13.2583    3.0000    0.0000 C   0  0  0  0  0  0  0  0  0  0  0  0
    3.7320    2.5000    0.0000 C   0  0  0  0  0  0  0  0  0  0  0  0
    2.8660    1.0000    0.0000 C   0  0  0  0  0  0  0  0  0  0  0  0
    2.8660    2.0000    0.0000 C   0  0  0  0  0  0  0  0  0  0  0  0
    2.0000    3.5000    0.0000 C   0  0  0  0  0  0  0  0  0  0  0  0
   12.1369   -2.1077    0.0000 H   0  0  0  0  0  0  0  0  0  0  0  0
   11.7383   -1.4174    0.0000 H   0  0  0  0  0  0  0  0  0  0  0  0
    9.5822   -1.4174    0.0000 H   0  0  0  0  0  0  0  0  0  0  0  0
    9.1836   -2.1077    0.0000 H   0  0  0  0  0  0  0  0  0  0  0  0
   10.1233    0.8100    0.0000 H   0  0  0  0  0  0  0  0  0  0  0  0
    5.4316   -0.8808    0.0000 H   0  0  0  0  0  0  0  0  0  0  0  0
   11.7383   -3.5826    0.0000 H   0  0  0  0  0  0  0  0  0  0  0  0
   12.1369   -2.8923    0.0000 H   0  0  0  0  0  0  0  0  0  0  0  0
    9.1836   -2.8923    0.0000 H   0  0  0  0  0  0  0  0  0  0  0  0
    9.5822   -3.5826    0.0000 H   0  0  0  0  0  0  0  0  0  0  0  0
   10.2617   -3.9750    0.0000 H   0  0  0  0  0  0  0  0  0  0  0  0
   11.0588   -3.9750    0.0000 H   0  0  0  0  0  0  0  0  0  0  0  0
   12.1369   -0.1077    0.0000 H   0  0  0  0  0  0  0  0  0  0  0  0
   11.7383    0.5826    0.0000 H   0  0  0  0  0  0  0  0  0  0  0  0
    4.8606   -0.5563    0.0000 H   0  0  0  0  0  0  0  0  0  0  0  0
    4.0490   -0.7288    0.0000 H   0  0  0  0  0  0  0  0  0  0  0  0
    5.4244   -3.1111    0.0000 H   0  0  0  0  0  0  0  0  0  0  0  0
    5.9796   -2.4945    0.0000 H   0  0  0  0  0  0  0  0  0  0  0  0
    9.3267    0.9749    0.0000 H   0  0  0  0  0  0  0  0  0  0  0  0
    8.5297    0.9749    0.0000 H   0  0  0  0  0  0  0  0  0  0  0  0
    6.5422   -1.5826    0.0000 H   0  0  0  0  0  0  0  0  0  0  0  0
    6.9407   -0.8923    0.0000 H   0  0  0  0  0  0  0  0  0  0  0  0
    3.4666   -1.3757    0.0000 H   0  0  0  0  0  0  0  0  0  0  0  0
    3.3798   -2.2008    0.0000 H   0  0  0  0  0  0  0  0  0  0  0  0
    3.8150   -2.9546    0.0000 H   0  0  0  0  0  0  0  0  0  0  0  0
    4.5730   -3.2921    0.0000 H   0  0  0  0  0  0  0  0  0  0  0  0
    7.5252   -0.3100    0.0000 H   0  0  0  0  0  0  0  0  0  0  0  0
   10.4482    2.0826    0.0000 H   0  0  0  0  0  0  0  0  0  0  0  0
   10.0497    1.3923    0.0000 H   0  0  0  0  0  0  0  0  0  0  0  0
    7.5947    0.9749    0.0000 H   0  0  0  0  0  0  0  0  0  0  0  0
    6.7976    0.9749    0.0000 H   0  0  0  0  0  0  0  0  0  0  0  0
    7.5252   -1.3100    0.0000 H   0  0  0  0  0  0  0  0  0  0  0  0
   10.9893    3.3100    0.0000 H   0  0  0  0  0  0  0  0  0  0  0  0
   12.3923    0.8800    0.0000 H   0  0  0  0  0  0  0  0  0  0  0  0
    5.1350    2.3100    0.0000 H   0  0  0  0  0  0  0  0  0  0  0  0
    3.7320   -0.1200    0.0000 H   0  0  0  0  0  0  0  0  0  0  0  0
   12.3923    4.1200    0.0000 H   0  0  0  0  0  0  0  0  0  0  0  0
   13.7953    1.6900    0.0000 H   0  0  0  0  0  0  0  0  0  0  0  0
   13.7953    3.3100    0.0000 H   0  0  0  0  0  0  0  0  0  0  0  0
    3.7320    3.1200    0.0000 H   0  0  0  0  0  0  0  0  0  0  0  0
    2.3291    0.6900    0.0000 H   0  0  0  0  0  0  0  0  0  0  0  0
    2.6200    3.5000    0.0000 H   0  0  0  0  0  0  0  0  0  0  0  0
    2.0000    4.1200    0.0000 H   0  0  0  0  0  0  0  0  0  0  0  0
    1.3800    3.5000    0.0000 H   0  0  0  0  0  0  0  0  0  0  0  0
  1  5  2  0  0  0  0
  1  6  2  0  0  0  0
  1  9  1  0  0  0  0
  1 30  1  0  0  0  0
  2 10  1  0  0  0  0
  2 19  1  0  0  0  0
  3 14  2  0  0  0  0
 26  4  1  6  0  0  0
  4 73  1  0  0  0  0
  7 40  1  0  0  0  0
  7 41  1  0  0  0  0
  8 13  1  0  0  0  0
  8 14  1  0  0  0  0
  8 22  1  0  0  0  0
  9 23  1  0  0  0  0
  9 28  1  0  0  0  0
 10 11  1  0  0  0  0
 10 12  1  0  0  0  0
 10 14  1  0  0  0  0
 11 16  1  0  0  0  0
 11 42  1  0  0  0  0
 11 43  1  0  0  0  0
 12 17  1  0  0  0  0
 12 44  1  0  0  0  0
 12 45  1  0  0  0  0
 13 19  1  0  0  0  0
 13 27  1  1  0  0  0
 13 46  1  0  0  0  0
 15 20  1  0  0  0  0
 15 21  1  0  0  0  0
 15 23  1  0  0  0  0
 15 47  1  0  0  0  0
 16 18  1  0  0  0  0
 16 48  1  0  0  0  0
 16 49  1  0  0  0  0
 17 18  1  0  0  0  0
 17 50  1  0  0  0  0
 17 51  1  0  0  0  0
 18 52  1  0  0  0  0
 18 53  1  0  0  0  0
 19 54  1  0  0  0  0
 19 55  1  0  0  0  0
 20 24  1  0  0  0  0
 20 56  1  0  0  0  0
 20 57  1  0  0  0  0
 21 25  1  0  0  0  0
 21 58  1  0  0  0  0
 21 59  1  0  0  0  0
 22 26  1  0  0  0  0
 22 60  1  0  0  0  0
 22 61  1  0  0  0  0
 23 62  1  0  0  0  0
 23 63  1  0  0  0  0
 24 25  1  0  0  0  0
 24 64  1  0  0  0  0
 24 65  1  0  0  0  0
 25 66  1  0  0  0  0
 25 67  1  0  0  0  0
 26 28  1  0  0  0  0
 26 68  1  0  0  0  0
 27 29  1  0  0  0  0
 27 69  1  0  0  0  0
 27 70  1  0  0  0  0
 28 71  1  0  0  0  0
 28 72  1  0  0  0  0
 29 31  2  0  0  0  0
 29 32  1  0  0  0  0
 30 33  2  0  0  0  0
 30 34  1  0  0  0  0
 31 35  1  0  0  0  0
 31 74  1  0  0  0  0
 32 36  2  0  0  0  0
 32 75  1  0  0  0  0
 33 38  1  0  0  0  0
 33 76  1  0  0  0  0
 34 39  2  0  0  0  0
 34 77  1  0  0  0  0
 35 37  2  0  0  0  0
 35 78  1  0  0  0  0
 36 37  1  0  0  0  0
 36 79  1  0  0  0  0
 37 80  1  0  0  0  0
 38 40  2  0  0  0  0
 38 81  1  0  0  0  0
 39 40  1  0  0  0  0
 39 82  1  0  0  0  0
 41 83  1  0  0  0  0
 41 84  1  0  0  0  0
 41 85  1  0  0  0  0
M  END
> <PUBCHEM_COMPOUND_CID>
501449
> <PUBCHEM_COMPOUND_CANONICALIZED>
1
> <PUBCHEM_CACTVS_COMPLEXITY>
928
> <PUBCHEM_CACTVS_HBOND_ACCEPTOR>
7
> <PUBCHEM_CACTVS_HBOND_DONOR>
1
> <PUBCHEM_CACTVS_ROTATABLE_BOND>
11
> <PUBCHEM_CACTVS_SUBSKEYS>
AAADcfB/OABAAAAAAAAAAAAAAAAAAYAAAAA8YMEAAAAAAAABQAAAHgQASAAADXzh2AYyB4MABgKIAiFSEHJCCBAgIAAIiBlOCIgONjKE8R+HMCAkxhGYqAeYyKCOAIAAAAAAAAABAAAAAAAAAAAAAAAAAA==
> <PUBCHEM_IUPAC_OPENEYE_NAME>
N-[(2S)-3-[(3S)-3-benzyl-5-oxo-1-oxa-4-azaspiro[5.5]undecan-4-yl]-2-hydroxy-propyl]-N-(cyclopentylmethyl)-4-methoxy-benzenesulfonamide
> <PUBCHEM_IUPAC_CAS_NAME>
N-(cyclopentylmethyl)-N-[(2S)-2-hydroxy-3-[(3S)-5-oxo-3-(phenylmethyl)-1-oxa-4-azaspiro[5.5]undecan-4-yl]propyl]-4-methoxybenzenesulfonamide
> <PUBCHEM_IUPAC_NAME_MARKUP>
<I>N</I>-[(2<I>S</I>)-3-[(3<I>S</I>)-3-benzyl-5-oxo-1-oxa-4-azaspiro[5.5]undecan-4-yl]-2-hydroxypropyl]-<I>N</I>-(cyclopentylmethyl)-4-methoxybenzenesulfonamide
> <PUBCHEM_IUPAC_NAME>
N-[(2S)-3-[(3S)-3-benzyl-5-oxo-1-oxa-4-azaspiro[5.5]undecan-4-yl]-2-hydroxypropyl]-N-(cyclopentylmethyl)-4-methoxybenzenesulfonamide
> <PUBCHEM_IUPAC_SYSTEMATIC_NAME>
N-(cyclopentylmethyl)-4-methoxy-N-[(2S)-2-oxidanyl-3-[(3S)-5-oxidanylidene-3-(phenylmethyl)-1-oxa-4-azaspiro[5.5]undecan-4-yl]propyl]benzenesulfonamide
> <PUBCHEM_IUPAC_TRADITIONAL_NAME>
N-[(2S)-3-[(3S)-3-benzyl-5-keto-1-oxa-4-azaspiro[5.5]undecan-4-yl]-2-hydroxy-propyl]-N-(cyclopentylmethyl)-4-methoxy-benzenesulfonamide
> <PUBCHEM_IUPAC_INCHI>
InChI=1S/C32H44N2O6S/c1-39-29-14-16-30(17-15-29)41(37,38)33(21-26-12-6-7-13-26)22-28(35)23-34-27(20-25-10-4-2-5-11-25)24-40-32(31(34)36)18-8-3-9-19-32/h2,4-5,10-11,14-17,26-28,35H,3,6-9,12-13,18-24H2,1H3/t27-,28+/m0/s1
> <PUBCHEM_IUPAC_INCHIKEY>
AYPUGIQXANZCKJ-WUFINQPMSA-N
> <PUBCHEM_XLOGP3_AA>
5
> <PUBCHEM_EXACT_MASS>
584.29200830
> <PUBCHEM_MOLECULAR_FORMULA>
C32H44N2O6S
> <PUBCHEM_MOLECULAR_WEIGHT>
584.8
> <PUBCHEM_OPENEYE_CAN_SMILES>
COC1=CC=C(C=C1)S(=O)(=O)N(CC2CCCC2)CC(CN3C(COC4(C3=O)CCCCC4)CC5=CC=CC=C5)O
> <PUBCHEM_OPENEYE_ISO_SMILES>
COC1=CC=C(C=C1)S(=O)(=O)N(CC2CCCC2)C[C@H](CN3[C@H](COC4(C3=O)CCCCC4)CC5=CC=CC=C5)O
> <PUBCHEM_CACTVS_TPSA>
105
> <PUBCHEM_MONOISOTOPIC_WEIGHT>
584.29200830
> <PUBCHEM_TOTAL_CHARGE>
0
> <PUBCHEM_HEAVY_ATOM_COUNT>
41
> <PUBCHEM_ATOM_DEF_STEREO_COUNT>
2
> <PUBCHEM_ATOM_UDEF_STEREO_COUNT>
0
> <PUBCHEM_BOND_DEF_STEREO_COUNT>
0
> <PUBCHEM_BOND_UDEF_STEREO_COUNT>
0
> <PUBCHEM_ISOTOPIC_ATOM_COUNT>
0
> <PUBCHEM_COMPONENT_COUNT>
1
> <PUBCHEM_CACTVS_TAUTO_COUNT>
-1
> <PUBCHEM_COORDINATE_TYPE>
1
5
255
> <PUBCHEM_BONDANNOTATIONS>
13  27  5
29  31  8
29  32  8
30  33  8
30  34  8
31  35  8
32  36  8
33  38  8
34  39  8
35  37  8
36  37  8
38  40  8
39  40  8
26  4  6
$$$$
