501455
  -OEChem-10302200282D
 59 62  0     1  0  0  0  0  0999 V2000
    6.4754   -1.7985    0.0000 S   0  0  0  0  0  0  0  0  0  0  0  0
    4.3770   -0.1672    0.0000 O   0  0  0  0  0  0  0  0  0  0  0  0
    8.5738   -0.1672    0.0000 O   0  0  0  0  0  0  0  0  0  0  0  0
    5.5415    1.2931    0.0000 O   0  0  0  0  0  0  0  0  0  0  0  0
    7.4093    1.2931    0.0000 O   0  0  0  0  0  0  0  0  0  0  0  0
    6.0415   -2.6995    0.0000 O   0  0  0  0  0  0  0  0  0  0  0  0
    6.9093   -2.6995    0.0000 O   0  0  0  0  0  0  0  0  0  0  0  0
    5.5744   -1.3647    0.0000 N   0  0  3  0  0  0  0  0  0  0  0  0
    7.3764   -1.3647    0.0000 N   0  0  3  0  0  0  0  0  0  0  0  0
    5.9754    0.3921    0.0000 C   0  0  1  0  0  0  0  0  0  0  0  0
    5.3519   -0.3897    0.0000 C   0  0  1  0  0  0  0  0  0  0  0  0
    6.9754    0.3921    0.0000 C   0  0  2  0  0  0  0  0  0  0  0  0
    7.5989   -0.3897    0.0000 C   0  0  1  0  0  0  0  0  0  0  0  0
    4.7926   -1.9882    0.0000 C   0  0  0  0  0  0  0  0  0  0  0  0
    8.1582   -1.9882    0.0000 C   0  0  0  0  0  0  0  0  0  0  0  0
    3.8618   -1.6228    0.0000 C   0  0  0  0  0  0  0  0  0  0  0  0
    4.0822    0.7884    0.0000 C   0  0  0  0  0  0  0  0  0  0  0  0
    8.8686    0.7884    0.0000 C   0  0  0  0  0  0  0  0  0  0  0  0
    3.7127   -0.6340    0.0000 C   0  0  0  0  0  0  0  0  0  0  0  0
    3.0799   -2.2463    0.0000 C   0  0  0  0  0  0  0  0  0  0  0  0
    3.1073    1.0109    0.0000 C   0  0  0  0  0  0  0  0  0  0  0  0
    4.7624    1.5214    0.0000 C   0  0  0  0  0  0  0  0  0  0  0  0
    9.8435    1.0109    0.0000 C   0  0  0  0  0  0  0  0  0  0  0  0
    8.1884    1.5214    0.0000 C   0  0  0  0  0  0  0  0  0  0  0  0
    2.7818   -0.2686    0.0000 C   0  0  0  0  0  0  0  0  0  0  0  0
    2.1490   -1.8810    0.0000 C   0  0  0  0  0  0  0  0  0  0  0  0
    2.0000   -0.8921    0.0000 C   0  0  0  0  0  0  0  0  0  0  0  0
    2.8126    1.9665    0.0000 C   0  0  0  0  0  0  0  0  0  0  0  0
    4.4677    2.4770    0.0000 C   0  0  0  0  0  0  0  0  0  0  0  0
   10.1383    1.9665    0.0000 C   0  0  0  0  0  0  0  0  0  0  0  0
    8.4832    2.4770    0.0000 C   0  0  0  0  0  0  0  0  0  0  0  0
    3.4927    2.6995    0.0000 C   0  0  0  0  0  0  0  0  0  0  0  0
    9.4581    2.6995    0.0000 C   0  0  0  0  0  0  0  0  0  0  0  0
    5.3593    0.4615    0.0000 H   0  0  0  0  0  0  0  0  0  0  0  0
    4.9135   -0.8281    0.0000 H   0  0  0  0  0  0  0  0  0  0  0  0
    6.6456    0.9171    0.0000 H   0  0  0  0  0  0  0  0  0  0  0  0
    7.8037    0.1955    0.0000 H   0  0  0  0  0  0  0  0  0  0  0  0
    4.4693   -2.5172    0.0000 H   0  0  0  0  0  0  0  0  0  0  0  0
    5.2575   -2.3984    0.0000 H   0  0  0  0  0  0  0  0  0  0  0  0
    7.7717   -2.4729    0.0000 H   0  0  0  0  0  0  0  0  0  0  0  0
    8.6430   -2.3747    0.0000 H   0  0  0  0  0  0  0  0  0  0  0  0
    8.5448   -1.5034    0.0000 H   0  0  0  0  0  0  0  0  0  0  0  0
    5.8908    1.8053    0.0000 H   0  0  0  0  0  0  0  0  0  0  0  0
    7.0600    1.8053    0.0000 H   0  0  0  0  0  0  0  0  0  0  0  0
    4.1974   -0.2474    0.0000 H   0  0  0  0  0  0  0  0  0  0  0  0
    3.1723   -2.8594    0.0000 H   0  0  0  0  0  0  0  0  0  0  0  0
    2.6856    0.5564    0.0000 H   0  0  0  0  0  0  0  0  0  0  0  0
    5.3669    1.3834    0.0000 H   0  0  0  0  0  0  0  0  0  0  0  0
   10.2652    0.5564    0.0000 H   0  0  0  0  0  0  0  0  0  0  0  0
    7.5840    1.3834    0.0000 H   0  0  0  0  0  0  0  0  0  0  0  0
    2.6894    0.3444    0.0000 H   0  0  0  0  0  0  0  0  0  0  0  0
    1.6643   -2.2675    0.0000 H   0  0  0  0  0  0  0  0  0  0  0  0
    1.4229   -0.6656    0.0000 H   0  0  0  0  0  0  0  0  0  0  0  0
    2.2081    2.1044    0.0000 H   0  0  0  0  0  0  0  0  0  0  0  0
    4.8894    2.9315    0.0000 H   0  0  0  0  0  0  0  0  0  0  0  0
   10.7427    2.1044    0.0000 H   0  0  0  0  0  0  0  0  0  0  0  0
    8.0615    2.9315    0.0000 H   0  0  0  0  0  0  0  0  0  0  0  0
    3.3100    3.2920    0.0000 H   0  0  0  0  0  0  0  0  0  0  0  0
    9.6408    3.2920    0.0000 H   0  0  0  0  0  0  0  0  0  0  0  0
  1  6  2  0  0  0  0
  1  7  2  0  0  0  0
  1  8  1  0  0  0  0
  1  9  1  0  0  0  0
 11  2  1  6  0  0  0
  2 17  1  0  0  0  0
 13  3  1  1  0  0  0
  3 18  1  0  0  0  0
 10  4  1  6  0  0  0
  4 43  1  0  0  0  0
 12  5  1  1  0  0  0
  5 44  1  0  0  0  0
  8 11  1  0  0  0  0
  8 14  1  0  0  0  0
  9 13  1  0  0  0  0
  9 15  1  0  0  0  0
 10 11  1  0  0  0  0
 10 12  1  0  0  0  0
 10 34  1  0  0  0  0
 11 35  1  0  0  0  0
 12 13  1  0  0  0  0
 12 36  1  0  0  0  0
 13 37  1  0  0  0  0
 14 16  1  0  0  0  0
 14 38  1  0  0  0  0
 14 39  1  0  0  0  0
 15 40  1  0  0  0  0
 15 41  1  0  0  0  0
 15 42  1  0  0  0  0
 16 19  2  0  0  0  0
 16 20  1  0  0  0  0
 17 21  2  0  0  0  0
 17 22  1  0  0  0  0
 18 23  2  0  0  0  0
 18 24  1  0  0  0  0
 19 25  1  0  0  0  0
 19 45  1  0  0  0  0
 20 26  2  0  0  0  0
 20 46  1  0  0  0  0
 21 28  1  0  0  0  0
 21 47  1  0  0  0  0
 22 29  2  0  0  0  0
 22 48  1  0  0  0  0
 23 30  1  0  0  0  0
 23 49  1  0  0  0  0
 24 31  2  0  0  0  0
 24 50  1  0  0  0  0
 25 27  2  0  0  0  0
 25 51  1  0  0  0  0
 26 27  1  0  0  0  0
 26 52  1  0  0  0  0
 27 53  1  0  0  0  0
 28 32  2  0  0  0  0
 28 54  1  0  0  0  0
 29 32  1  0  0  0  0
 29 55  1  0  0  0  0
 30 33  2  0  0  0  0
 30 56  1  0  0  0  0
 31 33  1  0  0  0  0
 31 57  1  0  0  0  0
 32 58  1  0  0  0  0
 33 59  1  0  0  0  0
M  END
> <PUBCHEM_COMPOUND_CID>
501455
> <PUBCHEM_COMPOUND_CANONICALIZED>
1
> <PUBCHEM_CACTVS_COMPLEXITY>
698
> <PUBCHEM_CACTVS_HBOND_ACCEPTOR>
8
> <PUBCHEM_CACTVS_HBOND_DONOR>
2
> <PUBCHEM_CACTVS_ROTATABLE_BOND>
6
> <PUBCHEM_CACTVS_SUBSKEYS>
AAADceB7OABAAAAAAAAAAAAAAAAAAAAAAAAwYMAABYAAAAABUAAAHgAASAAADBThmAYyBoIABgCAAiBCADCCCAAgIAAIiAAODIgPNiKEsRuOeCjnwBGbqAfwwAAOAAAAAAAAAAAAAAAAAAAAAAAAAAAAAA==
> <PUBCHEM_IUPAC_OPENEYE_NAME>
(3R,4R,5R,6R)-2-benzyl-7-methyl-1,1-dioxo-3,6-diphenoxy-1,2,7-thiadiazepane-4,5-diol
> <PUBCHEM_IUPAC_CAS_NAME>
(3R,4R,5R,6R)-2-methyl-1,1-dioxo-3,6-diphenoxy-7-(phenylmethyl)-1,2,7-thiadiazepane-4,5-diol
> <PUBCHEM_IUPAC_NAME_MARKUP>
(3<I>R</I>,4<I>R</I>,5<I>R</I>,6<I>R</I>)-2-benzyl-7-methyl-1,1-dioxo-3,6-diphenoxy-1,2,7-thiadiazepane-4,5-diol
> <PUBCHEM_IUPAC_NAME>
(3R,4R,5R,6R)-2-benzyl-7-methyl-1,1-dioxo-3,6-diphenoxy-1,2,7-thiadiazepane-4,5-diol
> <PUBCHEM_IUPAC_SYSTEMATIC_NAME>
(3R,4R,5R,6R)-2-methyl-1,1-bis(oxidanylidene)-3,6-diphenoxy-7-(phenylmethyl)-1,2,7-thiadiazepane-4,5-diol
> <PUBCHEM_IUPAC_TRADITIONAL_NAME>
(3R,4R,5R,6R)-2-benzyl-1,1-diketo-7-methyl-3,6-diphenoxy-1,2,7-thiadiazepane-4,5-diol
> <PUBCHEM_IUPAC_INCHI>
InChI=1S/C24H26N2O6S/c1-25-23(31-19-13-7-3-8-14-19)21(27)22(28)24(32-20-15-9-4-10-16-20)26(33(25,29)30)17-18-11-5-2-6-12-18/h2-16,21-24,27-28H,17H2,1H3/t21-,22-,23-,24-/m1/s1
> <PUBCHEM_IUPAC_INCHIKEY>
MCXHMUCSLKBJON-MOUTVQLLSA-N
> <PUBCHEM_XLOGP3_AA>
3.1
> <PUBCHEM_EXACT_MASS>
470.15115773
> <PUBCHEM_MOLECULAR_FORMULA>
C24H26N2O6S
> <PUBCHEM_MOLECULAR_WEIGHT>
470.5
> <PUBCHEM_OPENEYE_CAN_SMILES>
CN1C(C(C(C(N(S1(=O)=O)CC2=CC=CC=C2)OC3=CC=CC=C3)O)O)OC4=CC=CC=C4
> <PUBCHEM_OPENEYE_ISO_SMILES>
CN1[C@@H]([C@@H]([C@H]([C@H](N(S1(=O)=O)CC2=CC=CC=C2)OC3=CC=CC=C3)O)O)OC4=CC=CC=C4
> <PUBCHEM_CACTVS_TPSA>
108
> <PUBCHEM_MONOISOTOPIC_WEIGHT>
470.15115773
> <PUBCHEM_TOTAL_CHARGE>
0
> <PUBCHEM_HEAVY_ATOM_COUNT>
33
> <PUBCHEM_ATOM_DEF_STEREO_COUNT>
4
> <PUBCHEM_ATOM_UDEF_STEREO_COUNT>
0
> <PUBCHEM_BOND_DEF_STEREO_COUNT>
0
> <PUBCHEM_BOND_UDEF_STEREO_COUNT>
0
> <PUBCHEM_ISOTOPIC_ATOM_COUNT>
0
> <PUBCHEM_COMPONENT_COUNT>
1
> <PUBCHEM_CACTVS_TAUTO_COUNT>
-1
> <PUBCHEM_COORDINATE_TYPE>
1
5
255
> <PUBCHEM_BONDANNOTATIONS>
16  19  8
16  20  8
17  21  8
17  22  8
18  23  8
18  24  8
19  25  8
11  2  6
20  26  8
21  28  8
22  29  8
23  30  8
24  31  8
25  27  8
26  27  8
28  32  8
29  32  8
13  3  5
30  33  8
31  33  8
10  4  6
12  5  5
$$$$
