501448
  -OEChem-10302200282D
 43 45  0     1  0  0  0  0  0999 V2000
    6.1737   -0.8436    0.0000 O   0  0  0  0  0  0  0  0  0  0  0  0
    7.5763   -0.0370    0.0000 O   0  0  0  0  0  0  0  0  0  0  0  0
    5.9734    3.5990    0.0000 O   0  0  0  0  0  0  0  0  0  0  0  0
    4.6783   -1.0218    0.0000 N   0  0  0  0  0  0  0  0  0  0  0  0
    4.6783   -2.6312    0.0000 N   0  0  0  0  0  0  0  0  0  0  0  0
    2.8660   -0.8265    0.0000 N   0  0  0  0  0  0  0  0  0  0  0  0
    2.0000   -2.3265    0.0000 N   0  0  0  0  0  0  0  0  0  0  0  0
    2.8660   -3.8265    0.0000 N   0  0  0  0  0  0  0  0  0  0  0  0
    5.9674    0.1350    0.0000 C   0  0  3  0  0  0  0  0  0  0  0  0
    6.8343    0.6335    0.0000 C   0  0  0  0  0  0  0  0  0  0  0  0
    5.4689    1.0018    0.0000 C   0  0  0  0  0  0  0  0  0  0  0  0
    4.9889   -0.0713    0.0000 C   0  0  0  0  0  0  0  0  0  0  0  0
    7.1680   -0.9498    0.0000 C   0  0  0  0  0  0  0  0  0  0  0  0
    5.9704    1.8670    0.0000 C   0  0  0  0  0  0  0  0  0  0  0  0
    8.0808   -1.3581    0.0000 C   0  0  0  0  0  0  0  0  0  0  0  0
    7.0618   -1.9441    0.0000 C   0  0  0  0  0  0  0  0  0  0  0  0
    5.4719    2.7339    0.0000 C   0  0  0  0  0  0  0  0  0  0  0  0
    3.7320   -1.3265    0.0000 C   0  0  0  0  0  0  0  0  0  0  0  0
    5.2619   -1.8265    0.0000 C   0  0  0  0  0  0  0  0  0  0  0  0
    3.7320   -2.3265    0.0000 C   0  0  0  0  0  0  0  0  0  0  0  0
    2.8660   -2.8265    0.0000 C   0  0  0  0  0  0  0  0  0  0  0  0
    2.0000   -1.3265    0.0000 C   0  0  0  0  0  0  0  0  0  0  0  0
    7.2958    1.0475    0.0000 H   0  0  0  0  0  0  0  0  0  0  0  0
    6.4708    1.1357    0.0000 H   0  0  0  0  0  0  0  0  0  0  0  0
    4.9947    1.4012    0.0000 H   0  0  0  0  0  0  0  0  0  0  0  0
    4.9933    0.6041    0.0000 H   0  0  0  0  0  0  0  0  0  0  0  0
    4.9684    0.5484    0.0000 H   0  0  0  0  0  0  0  0  0  0  0  0
    4.3751    0.0161    0.0000 H   0  0  0  0  0  0  0  0  0  0  0  0
    6.4447    1.4676    0.0000 H   0  0  0  0  0  0  0  0  0  0  0  0
    6.4461    2.2647    0.0000 H   0  0  0  0  0  0  0  0  0  0  0  0
    7.8277   -1.9241    0.0000 H   0  0  0  0  0  0  0  0  0  0  0  0
    8.6468   -1.6113    0.0000 H   0  0  0  0  0  0  0  0  0  0  0  0
    8.3340   -0.7922    0.0000 H   0  0  0  0  0  0  0  0  0  0  0  0
    6.4453   -1.8783    0.0000 H   0  0  0  0  0  0  0  0  0  0  0  0
    6.9959   -2.5606    0.0000 H   0  0  0  0  0  0  0  0  0  0  0  0
    7.6782   -2.0100    0.0000 H   0  0  0  0  0  0  0  0  0  0  0  0
    4.9977    3.1332    0.0000 H   0  0  0  0  0  0  0  0  0  0  0  0
    4.9963    2.3362    0.0000 H   0  0  0  0  0  0  0  0  0  0  0  0
    5.8819   -1.8265    0.0000 H   0  0  0  0  0  0  0  0  0  0  0  0
    5.6644    4.1365    0.0000 H   0  0  0  0  0  0  0  0  0  0  0  0
    1.4631   -1.0165    0.0000 H   0  0  0  0  0  0  0  0  0  0  0  0
    2.3291   -4.1365    0.0000 H   0  0  0  0  0  0  0  0  0  0  0  0
    3.4030   -4.1365    0.0000 H   0  0  0  0  0  0  0  0  0  0  0  0
  1  9  1  0  0  0  0
  1 13  1  0  0  0  0
  2 10  1  0  0  0  0
  2 13  1  0  0  0  0
  3 17  1  0  0  0  0
  3 40  1  0  0  0  0
  4 12  1  0  0  0  0
  4 18  1  0  0  0  0
  4 19  1  0  0  0  0
  5 19  2  0  0  0  0
  5 20  1  0  0  0  0
  6 18  2  0  0  0  0
  6 22  1  0  0  0  0
  7 21  1  0  0  0  0
  7 22  2  0  0  0  0
  8 21  1  0  0  0  0
  8 42  1  0  0  0  0
  8 43  1  0  0  0  0
  9 10  1  0  0  0  0
  9 11  1  0  0  0  0
  9 12  1  0  0  0  0
 10 23  1  0  0  0  0
 10 24  1  0  0  0  0
 11 14  1  0  0  0  0
 11 25  1  0  0  0  0
 11 26  1  0  0  0  0
 12 27  1  0  0  0  0
 12 28  1  0  0  0  0
 13 15  1  0  0  0  0
 13 16  1  0  0  0  0
 14 17  1  0  0  0  0
 14 29  1  0  0  0  0
 14 30  1  0  0  0  0
 15 31  1  0  0  0  0
 15 32  1  0  0  0  0
 15 33  1  0  0  0  0
 16 34  1  0  0  0  0
 16 35  1  0  0  0  0
 16 36  1  0  0  0  0
 17 37  1  0  0  0  0
 17 38  1  0  0  0  0
 18 20  1  0  0  0  0
 19 39  1  0  0  0  0
 20 21  2  0  0  0  0
 22 41  1  0  0  0  0
M  END
> <PUBCHEM_COMPOUND_CID>
501448
> <PUBCHEM_COMPOUND_CANONICALIZED>
1
> <PUBCHEM_CACTVS_COMPLEXITY>
397
> <PUBCHEM_CACTVS_HBOND_ACCEPTOR>
7
> <PUBCHEM_CACTVS_HBOND_DONOR>
2
> <PUBCHEM_CACTVS_ROTATABLE_BOND>
5
> <PUBCHEM_CACTVS_SUBSKEYS>
AAADceBzsAAAAAAAAAAAAAAAAAAAAWJAAAAsAAAAAAAAAFgB+AAAHgAQCAAADEzhlwYH+L9MFgCgAQZhZACAgC0REKABUCAoVBCTWAJAyEA3RAgOAALWACDQMAoMAAAAAAAAAAAAAAAAAAAAAAAAAAAAAA==
> <PUBCHEM_IUPAC_OPENEYE_NAME>
3-[4-[(6-aminopurin-9-yl)methyl]-2,2-dimethyl-1,3-dioxolan-4-yl]propan-1-ol
> <PUBCHEM_IUPAC_CAS_NAME>
3-[4-[(6-aminopurin-9-yl)methyl]-2,2-dimethyl-1,3-dioxolan-4-yl]-1-propanol
> <PUBCHEM_IUPAC_NAME_MARKUP>
3-[4-[(6-aminopurin-9-yl)methyl]-2,2-dimethyl-1,3-dioxolan-4-yl]propan-1-ol
> <PUBCHEM_IUPAC_NAME>
3-[4-[(6-aminopurin-9-yl)methyl]-2,2-dimethyl-1,3-dioxolan-4-yl]propan-1-ol
> <PUBCHEM_IUPAC_SYSTEMATIC_NAME>
3-[4-[(6-aminopurin-9-yl)methyl]-2,2-dimethyl-1,3-dioxolan-4-yl]propan-1-ol
> <PUBCHEM_IUPAC_TRADITIONAL_NAME>
3-[4-(adenin-9-ylmethyl)-2,2-dimethyl-1,3-dioxolan-4-yl]propan-1-ol
> <PUBCHEM_IUPAC_INCHI>
InChI=1S/C14H21N5O3/c1-13(2)21-7-14(22-13,4-3-5-20)6-19-9-18-10-11(15)16-8-17-12(10)19/h8-9,20H,3-7H2,1-2H3,(H2,15,16,17)
> <PUBCHEM_IUPAC_INCHIKEY>
CCZBNLBPVDJKDY-UHFFFAOYSA-N
> <PUBCHEM_XLOGP3>
0
> <PUBCHEM_EXACT_MASS>
307.16443955
> <PUBCHEM_MOLECULAR_FORMULA>
C14H21N5O3
> <PUBCHEM_MOLECULAR_WEIGHT>
307.35
> <PUBCHEM_OPENEYE_CAN_SMILES>
CC1(OCC(O1)(CCCO)CN2C=NC3=C(N=CN=C32)N)C
> <PUBCHEM_OPENEYE_ISO_SMILES>
CC1(OCC(O1)(CCCO)CN2C=NC3=C(N=CN=C32)N)C
> <PUBCHEM_CACTVS_TPSA>
108
> <PUBCHEM_MONOISOTOPIC_WEIGHT>
307.16443955
> <PUBCHEM_TOTAL_CHARGE>
0
> <PUBCHEM_HEAVY_ATOM_COUNT>
22
> <PUBCHEM_ATOM_DEF_STEREO_COUNT>
0
> <PUBCHEM_ATOM_UDEF_STEREO_COUNT>
1
> <PUBCHEM_BOND_DEF_STEREO_COUNT>
0
> <PUBCHEM_BOND_UDEF_STEREO_COUNT>
0
> <PUBCHEM_ISOTOPIC_ATOM_COUNT>
0
> <PUBCHEM_COMPONENT_COUNT>
1
> <PUBCHEM_CACTVS_TAUTO_COUNT>
-1
> <PUBCHEM_COORDINATE_TYPE>
1
5
255
> <PUBCHEM_BONDANNOTATIONS>
18  20  8
20  21  8
4  18  8
4  19  8
5  19  8
5  20  8
6  18  8
6  22  8
7  21  8
7  22  8
9  11  3
$$$$
