501504
  -OEChem-10302200282D
 81 84  0     1  0  0  0  0  0999 V2000
   10.6603    1.0000    0.0000 Br  0  0  0  0  0  0  0  0  0  0  0  0
    5.4641   -2.0000    0.0000 O   0  0  0  0  0  0  0  0  0  0  0  0
    3.7320   -4.0000    0.0000 O   0  0  0  0  0  0  0  0  0  0  0  0
    4.5981   -2.5000    0.0000 O   0  0  0  0  0  0  0  0  0  0  0  0
    5.4641   -1.0000    0.0000 O   0  0  0  0  0  0  0  0  0  0  0  0
    8.0622    3.5000    0.0000 O   0  0  0  0  0  0  0  0  0  0  0  0
    8.9282    2.0000    0.0000 O   0  0  0  0  0  0  0  0  0  0  0  0
    7.1962   -2.0000    0.0000 N   0  0  0  0  0  0  0  0  0  0  0  0
    6.3301   -3.5000    0.0000 C   0  0  1  0  0  0  0  0  0  0  0  0
    5.4641   -4.0000    0.0000 C   0  0  1  0  0  0  0  0  0  0  0  0
    7.1962   -4.0000    0.0000 C   0  0  0  0  0  0  0  0  0  0  0  0
    5.4641   -5.0000    0.0000 C   0  0  0  0  0  0  0  0  0  0  0  0
    7.1962   -5.0000    0.0000 C   0  0  0  0  0  0  0  0  0  0  0  0
    6.3301   -5.5000    0.0000 C   0  0  0  0  0  0  0  0  0  0  0  0
    6.3301   -2.5000    0.0000 C   0  0  0  0  0  0  0  0  0  0  0  0
    6.3301    0.5000    0.0000 C   0  0  2  0  0  0  0  0  0  0  0  0
    4.5981   -3.5000    0.0000 C   0  0  0  0  0  0  0  0  0  0  0  0
    7.1962   -1.0000    0.0000 C   0  0  3  0  0  0  0  0  0  0  0  0
    5.4641    1.0000    0.0000 C   0  0  0  0  0  0  0  0  0  0  0  0
    6.3301   -0.5000    0.0000 C   0  0  0  0  0  0  0  0  0  0  0  0
    5.4641    2.0000    0.0000 C   0  0  0  0  0  0  0  0  0  0  0  0
    7.1962    1.0000    0.0000 C   0  0  0  0  0  0  0  0  0  0  0  0
    4.5981    2.5000    0.0000 C   0  0  0  0  0  0  0  0  0  0  0  0
    8.0622   -0.5000    0.0000 C   0  0  0  0  0  0  0  0  0  0  0  0
    7.1962    2.0000    0.0000 C   0  0  0  0  0  0  0  0  0  0  0  0
    4.5981    3.5000    0.0000 C   0  0  0  0  0  0  0  0  0  0  0  0
    3.7320    2.0000    0.0000 C   0  0  0  0  0  0  0  0  0  0  0  0
    8.9282   -1.0000    0.0000 C   0  0  0  0  0  0  0  0  0  0  0  0
    8.0622    0.5000    0.0000 C   0  0  0  0  0  0  0  0  0  0  0  0
    8.0622    2.5000    0.0000 C   0  0  0  0  0  0  0  0  0  0  0  0
    3.7320    4.0000    0.0000 C   0  0  0  0  0  0  0  0  0  0  0  0
    2.8660    2.5000    0.0000 C   0  0  0  0  0  0  0  0  0  0  0  0
    5.4641    4.0000    0.0000 C   0  0  0  0  0  0  0  0  0  0  0  0
    3.7320    1.0000    0.0000 C   0  0  0  0  0  0  0  0  0  0  0  0
    9.7942   -0.5000    0.0000 C   0  0  0  0  0  0  0  0  0  0  0  0
    8.9282    1.0000    0.0000 C   0  0  0  0  0  0  0  0  0  0  0  0
    9.7942    0.5000    0.0000 C   0  0  0  0  0  0  0  0  0  0  0  0
    3.7320    5.0000    0.0000 C   0  0  0  0  0  0  0  0  0  0  0  0
    2.0000    2.0000    0.0000 C   0  0  0  0  0  0  0  0  0  0  0  0
    5.4641    5.0000    0.0000 C   0  0  0  0  0  0  0  0  0  0  0  0
    2.8660    0.5000    0.0000 C   0  0  0  0  0  0  0  0  0  0  0  0
    4.5981    5.5000    0.0000 C   0  0  0  0  0  0  0  0  0  0  0  0
    2.0000    1.0000    0.0000 C   0  0  0  0  0  0  0  0  0  0  0  0
    6.8671   -3.1900    0.0000 H   0  0  0  0  0  0  0  0  0  0  0  0
    5.4641   -3.3800    0.0000 H   0  0  0  0  0  0  0  0  0  0  0  0
    7.8067   -4.1077    0.0000 H   0  0  0  0  0  0  0  0  0  0  0  0
    7.4082   -3.4174    0.0000 H   0  0  0  0  0  0  0  0  0  0  0  0
    4.8535   -4.8923    0.0000 H   0  0  0  0  0  0  0  0  0  0  0  0
    5.2520   -5.5826    0.0000 H   0  0  0  0  0  0  0  0  0  0  0  0
    7.4082   -5.5826    0.0000 H   0  0  0  0  0  0  0  0  0  0  0  0
    7.8067   -4.8923    0.0000 H   0  0  0  0  0  0  0  0  0  0  0  0
    5.9316   -5.9750    0.0000 H   0  0  0  0  0  0  0  0  0  0  0  0
    6.7287   -5.9750    0.0000 H   0  0  0  0  0  0  0  0  0  0  0  0
    6.8671    0.8100    0.0000 H   0  0  0  0  0  0  0  0  0  0  0  0
    6.6592   -1.3100    0.0000 H   0  0  0  0  0  0  0  0  0  0  0  0
    7.7331   -2.3100    0.0000 H   0  0  0  0  0  0  0  0  0  0  0  0
    4.8535    1.1077    0.0000 H   0  0  0  0  0  0  0  0  0  0  0  0
    5.2520    0.4174    0.0000 H   0  0  0  0  0  0  0  0  0  0  0  0
    6.0747    1.8923    0.0000 H   0  0  0  0  0  0  0  0  0  0  0  0
    5.6762    2.5826    0.0000 H   0  0  0  0  0  0  0  0  0  0  0  0
    7.4082    0.4174    0.0000 H   0  0  0  0  0  0  0  0  0  0  0  0
    7.8067    1.1077    0.0000 H   0  0  0  0  0  0  0  0  0  0  0  0
    4.5981    1.8800    0.0000 H   0  0  0  0  0  0  0  0  0  0  0  0
    6.9841    2.5826    0.0000 H   0  0  0  0  0  0  0  0  0  0  0  0
    6.5856    1.8923    0.0000 H   0  0  0  0  0  0  0  0  0  0  0  0
    3.1951   -3.6900    0.0000 H   0  0  0  0  0  0  0  0  0  0  0  0
    8.9282   -1.6200    0.0000 H   0  0  0  0  0  0  0  0  0  0  0  0
    7.5252    0.8100    0.0000 H   0  0  0  0  0  0  0  0  0  0  0  0
    3.1951    3.6900    0.0000 H   0  0  0  0  0  0  0  0  0  0  0  0
    2.8660    3.1200    0.0000 H   0  0  0  0  0  0  0  0  0  0  0  0
    6.0010    3.6900    0.0000 H   0  0  0  0  0  0  0  0  0  0  0  0
    4.2690    0.6900    0.0000 H   0  0  0  0  0  0  0  0  0  0  0  0
   10.3312   -0.8100    0.0000 H   0  0  0  0  0  0  0  0  0  0  0  0
    8.9282    1.6200    0.0000 H   0  0  0  0  0  0  0  0  0  0  0  0
    3.1951    5.3100    0.0000 H   0  0  0  0  0  0  0  0  0  0  0  0
    1.4631    2.3100    0.0000 H   0  0  0  0  0  0  0  0  0  0  0  0
    6.0010    5.3100    0.0000 H   0  0  0  0  0  0  0  0  0  0  0  0
    2.8660   -0.1200    0.0000 H   0  0  0  0  0  0  0  0  0  0  0  0
    4.5981    6.1200    0.0000 H   0  0  0  0  0  0  0  0  0  0  0  0
    1.4631    0.6900    0.0000 H   0  0  0  0  0  0  0  0  0  0  0  0
    8.5991    3.8100    0.0000 H   0  0  0  0  0  0  0  0  0  0  0  0
  1 37  1  0  0  0  0
  2 15  2  0  0  0  0
  3 17  1  0  0  0  0
  3 66  1  0  0  0  0
  4 17  2  0  0  0  0
  5 20  2  0  0  0  0
  6 30  1  0  0  0  0
  6 81  1  0  0  0  0
  7 30  2  0  0  0  0
  8 15  1  0  0  0  0
  8 18  1  0  0  0  0
  8 56  1  0  0  0  0
  9 10  1  0  0  0  0
  9 11  1  0  0  0  0
  9 15  1  6  0  0  0
  9 44  1  0  0  0  0
 10 12  1  0  0  0  0
 10 17  1  1  0  0  0
 10 45  1  0  0  0  0
 11 13  1  0  0  0  0
 11 46  1  0  0  0  0
 11 47  1  0  0  0  0
 12 14  1  0  0  0  0
 12 48  1  0  0  0  0
 12 49  1  0  0  0  0
 13 14  1  0  0  0  0
 13 50  1  0  0  0  0
 13 51  1  0  0  0  0
 14 52  1  0  0  0  0
 14 53  1  0  0  0  0
 16 19  1  1  0  0  0
 16 20  1  0  0  0  0
 16 22  1  0  0  0  0
 16 54  1  0  0  0  0
 18 20  1  0  0  0  0
 18 24  1  0  0  0  0
 18 55  1  0  0  0  0
 19 21  1  0  0  0  0
 19 57  1  0  0  0  0
 19 58  1  0  0  0  0
 21 23  1  0  0  0  0
 21 59  1  0  0  0  0
 21 60  1  0  0  0  0
 22 25  1  0  0  0  0
 22 61  1  0  0  0  0
 22 62  1  0  0  0  0
 23 26  1  0  0  0  0
 23 27  1  0  0  0  0
 23 63  1  0  0  0  0
 24 28  2  0  0  0  0
 24 29  1  0  0  0  0
 25 30  1  0  0  0  0
 25 64  1  0  0  0  0
 25 65  1  0  0  0  0
 26 31  2  0  0  0  0
 26 33  1  0  0  0  0
 27 32  2  0  0  0  0
 27 34  1  0  0  0  0
 28 35  1  0  0  0  0
 28 67  1  0  0  0  0
 29 36  2  0  0  0  0
 29 68  1  0  0  0  0
 31 38  1  0  0  0  0
 31 69  1  0  0  0  0
 32 39  1  0  0  0  0
 32 70  1  0  0  0  0
 33 40  2  0  0  0  0
 33 71  1  0  0  0  0
 34 41  2  0  0  0  0
 34 72  1  0  0  0  0
 35 37  2  0  0  0  0
 35 73  1  0  0  0  0
 36 37  1  0  0  0  0
 36 74  1  0  0  0  0
 38 42  2  0  0  0  0
 38 75  1  0  0  0  0
 39 43  2  0  0  0  0
 39 76  1  0  0  0  0
 40 42  1  0  0  0  0
 40 77  1  0  0  0  0
 41 43  1  0  0  0  0
 41 78  1  0  0  0  0
 42 79  1  0  0  0  0
 43 80  1  0  0  0  0
M  END
> <PUBCHEM_COMPOUND_CID>
501504
> <PUBCHEM_COMPOUND_CANONICALIZED>
1
> <PUBCHEM_CACTVS_COMPLEXITY>
903
> <PUBCHEM_CACTVS_HBOND_ACCEPTOR>
6
> <PUBCHEM_CACTVS_HBOND_DONOR>
3
> <PUBCHEM_CACTVS_ROTATABLE_BOND>
14
> <PUBCHEM_CACTVS_SUBSKEYS>
AAADcfB+OAAAEAAAAAAAAAAAAAAAAAAAAAAwYMGAAAAAAAABUAAAHgBQCAABrSzBmAQwCILAAgCIAqHSGACCAAAgAAQIiIGIBKgIIDKAlTGEYAhklgCIihe/zuCuggAAAAAAAAAEAAAAACAAAAAAAAAAAA==
> <PUBCHEM_IUPAC_OPENEYE_NAME>
(1R,2R)-2-[[(3S)-1-(4-bromophenyl)-3-(2-carboxyethyl)-2-oxo-6,6-diphenyl-hexyl]carbamoyl]cyclohexanecarboxylic acid
> <PUBCHEM_IUPAC_CAS_NAME>
(1R,2R)-2-[[[(3S)-1-(4-bromophenyl)-3-(2-carboxyethyl)-2-oxo-6,6-diphenylhexyl]amino]-oxomethyl]-1-cyclohexanecarboxylic acid
> <PUBCHEM_IUPAC_NAME_MARKUP>
(1<I>R</I>,2<I>R</I>)-2-[[(3<I>S</I>)-1-(4-bromophenyl)-3-(2-carboxyethyl)-2-oxo-6,6-diphenylhexyl]carbamoyl]cyclohexane-1-carboxylic acid
> <PUBCHEM_IUPAC_NAME>
(1R,2R)-2-[[(3S)-1-(4-bromophenyl)-3-(2-carboxyethyl)-2-oxo-6,6-diphenylhexyl]carbamoyl]cyclohexane-1-carboxylic acid
> <PUBCHEM_IUPAC_SYSTEMATIC_NAME>
(1R,2R)-2-[[(3S)-1-(4-bromophenyl)-3-(3,3-diphenylpropyl)-6-oxidanyl-2,6-bis(oxidanylidene)hexyl]carbamoyl]cyclohexane-1-carboxylic acid
> <PUBCHEM_IUPAC_TRADITIONAL_NAME>
(1R,2R)-2-[[(3S)-1-(4-bromophenyl)-3-(2-carboxyethyl)-2-keto-6,6-diphenyl-hexyl]carbamoyl]cyclohexanecarboxylic acid
> <PUBCHEM_IUPAC_INCHI>
InChI=1S/C35H38BrNO6/c36-27-19-15-25(16-20-27)32(37-34(41)29-13-7-8-14-30(29)35(42)43)33(40)26(18-22-31(38)39)17-21-28(23-9-3-1-4-10-23)24-11-5-2-6-12-24/h1-6,9-12,15-16,19-20,26,28-30,32H,7-8,13-14,17-18,21-22H2,(H,37,41)(H,38,39)(H,42,43)/t26-,29+,30+,32?/m0/s1
> <PUBCHEM_IUPAC_INCHIKEY>
WNWFMHRMORPBEP-HIMANMAESA-N
> <PUBCHEM_XLOGP3_AA>
6.9
> <PUBCHEM_EXACT_MASS>
647.18825
> <PUBCHEM_MOLECULAR_FORMULA>
C35H38BrNO6
> <PUBCHEM_MOLECULAR_WEIGHT>
648.6
> <PUBCHEM_OPENEYE_CAN_SMILES>
C1CCC(C(C1)C(=O)NC(C2=CC=C(C=C2)Br)C(=O)C(CCC(C3=CC=CC=C3)C4=CC=CC=C4)CCC(=O)O)C(=O)O
> <PUBCHEM_OPENEYE_ISO_SMILES>
C1CC[C@H]([C@@H](C1)C(=O)NC(C2=CC=C(C=C2)Br)C(=O)[C@@H](CCC(C3=CC=CC=C3)C4=CC=CC=C4)CCC(=O)O)C(=O)O
> <PUBCHEM_CACTVS_TPSA>
121
> <PUBCHEM_MONOISOTOPIC_WEIGHT>
647.18825
> <PUBCHEM_TOTAL_CHARGE>
0
> <PUBCHEM_HEAVY_ATOM_COUNT>
43
> <PUBCHEM_ATOM_DEF_STEREO_COUNT>
3
> <PUBCHEM_ATOM_UDEF_STEREO_COUNT>
1
> <PUBCHEM_BOND_DEF_STEREO_COUNT>
0
> <PUBCHEM_BOND_UDEF_STEREO_COUNT>
0
> <PUBCHEM_ISOTOPIC_ATOM_COUNT>
0
> <PUBCHEM_COMPONENT_COUNT>
1
> <PUBCHEM_CACTVS_TAUTO_COUNT>
-1
> <PUBCHEM_COORDINATE_TYPE>
1
5
255
> <PUBCHEM_BONDANNOTATIONS>
10  17  5
16  19  5
18  20  3
24  28  8
24  29  8
26  31  8
26  33  8
27  32  8
27  34  8
28  35  8
29  36  8
31  38  8
32  39  8
33  40  8
34  41  8
35  37  8
36  37  8
38  42  8
39  43  8
40  42  8
41  43  8
9  15  6
$$$$
