501527
  -OEChem-10302200282D
 46 47  0     1  0  0  0  0  0999 V2000
    5.4897   -1.6249    0.0000 P   0  0  3  0  0  0  0  0  0  0  0  0
    5.6707   -3.3475    0.0000 P   0  0  3  0  0  0  0  0  0  0  0  0
    5.8518   -5.0701    0.0000 P   0  0  0  0  0  0  0  0  0  0  0  0
    5.0298    1.8577    0.0000 O   0  0  0  0  0  0  0  0  0  0  0  0
    2.4608    2.1667    0.0000 O   0  0  0  0  0  0  0  0  0  0  0  0
    4.9019   -0.8159    0.0000 O   0  0  0  0  0  0  0  0  0  0  0  0
    5.9529    3.4455    0.0000 O   0  0  0  0  0  0  0  0  0  0  0  0
    6.0774   -2.4340    0.0000 O   0  0  0  0  0  0  0  0  0  0  0  0
    4.6806   -2.2127    0.0000 O   0  0  0  0  0  0  0  0  0  0  0  0
    4.2208    6.4455    0.0000 O   0  0  0  0  0  0  0  0  0  0  0  0
    6.2987   -1.0372    0.0000 O   0  0  0  0  0  0  0  0  0  0  0  0
    5.2640   -4.2610    0.0000 O   0  0  0  0  0  0  0  0  0  0  0  0
    6.5842   -3.7542    0.0000 O   0  0  0  0  0  0  0  0  0  0  0  0
    4.7572   -2.9408    0.0000 O   0  0  0  0  0  0  0  0  0  0  0  0
    6.4395   -5.8791    0.0000 O   0  0  0  0  0  0  0  0  0  0  0  0
    5.0427   -5.6578    0.0000 O   0  0  0  0  0  0  0  0  0  0  0  0
    6.6608   -4.4823    0.0000 O   0  0  0  0  0  0  0  0  0  0  0  0
    4.2208    3.4455    0.0000 N   0  0  0  0  0  0  0  0  0  0  0  0
    5.0868    4.9455    0.0000 N   0  0  0  0  0  0  0  0  0  0  0  0
    3.4118    1.8577    0.0000 C   0  0  1  0  0  0  0  0  0  0  0  0
    4.2208    2.4455    0.0000 C   0  0  1  0  0  0  0  0  0  0  0  0
    4.7208    0.9066    0.0000 C   0  0  1  0  0  0  0  0  0  0  0  0
    3.7208    0.9066    0.0000 C   0  0  0  0  0  0  0  0  0  0  0  0
    5.3086    0.0976    0.0000 C   0  0  0  0  0  0  0  0  0  0  0  0
    3.3548    3.9455    0.0000 C   0  0  0  0  0  0  0  0  0  0  0  0
    5.0868    3.9455    0.0000 C   0  0  0  0  0  0  0  0  0  0  0  0
    3.3548    4.9455    0.0000 C   0  0  0  0  0  0  0  0  0  0  0  0
    4.2208    5.4455    0.0000 C   0  0  0  0  0  0  0  0  0  0  0  0
    2.4888    5.4455    0.0000 C   0  0  0  0  0  0  0  0  0  0  0  0
    3.3148    2.4701    0.0000 H   0  0  0  0  0  0  0  0  0  0  0  0
    3.6684    2.7270    0.0000 H   0  0  0  0  0  0  0  0  0  0  0  0
    5.3332    1.0036    0.0000 H   0  0  0  0  0  0  0  0  0  0  0  0
    3.1144    0.7777    0.0000 H   0  0  0  0  0  0  0  0  0  0  0  0
    3.7856    0.2900    0.0000 H   0  0  0  0  0  0  0  0  0  0  0  0
    5.8226   -0.2491    0.0000 H   0  0  0  0  0  0  0  0  0  0  0  0
    5.7393    0.5436    0.0000 H   0  0  0  0  0  0  0  0  0  0  0  0
    2.0000    1.7518    0.0000 H   0  0  0  0  0  0  0  0  0  0  0  0
    2.8179    3.6355    0.0000 H   0  0  0  0  0  0  0  0  0  0  0  0
    5.6238    5.2555    0.0000 H   0  0  0  0  0  0  0  0  0  0  0  0
    2.7988    5.9824    0.0000 H   0  0  0  0  0  0  0  0  0  0  0  0
    1.9518    5.7555    0.0000 H   0  0  0  0  0  0  0  0  0  0  0  0
    2.1788    4.9086    0.0000 H   0  0  0  0  0  0  0  0  0  0  0  0
    4.1142   -1.9606    0.0000 H   0  0  0  0  0  0  0  0  0  0  0  0
    7.0858   -3.3898    0.0000 H   0  0  0  0  0  0  0  0  0  0  0  0
    6.1874   -6.4455    0.0000 H   0  0  0  0  0  0  0  0  0  0  0  0
    4.4763   -5.4057    0.0000 H   0  0  0  0  0  0  0  0  0  0  0  0
  1  6  1  0  0  0  0
  1  8  1  0  0  0  0
  1  9  1  0  0  0  0
  1 11  2  0  0  0  0
  2  8  1  0  0  0  0
  2 12  1  0  0  0  0
  2 13  1  0  0  0  0
  2 14  2  0  0  0  0
  3 12  1  0  0  0  0
  3 15  1  0  0  0  0
  3 16  1  0  0  0  0
  3 17  2  0  0  0  0
  4 21  1  0  0  0  0
  4 22  1  0  0  0  0
 20  5  1  1  0  0  0
  5 37  1  0  0  0  0
  6 24  1  0  0  0  0
  7 26  2  0  0  0  0
  9 43  1  0  0  0  0
 10 28  2  0  0  0  0
 13 44  1  0  0  0  0
 15 45  1  0  0  0  0
 16 46  1  0  0  0  0
 21 18  1  6  0  0  0
 18 25  1  0  0  0  0
 18 26  1  0  0  0  0
 19 26  1  0  0  0  0
 19 28  1  0  0  0  0
 19 39  1  0  0  0  0
 20 21  1  0  0  0  0
 20 23  1  0  0  0  0
 20 30  1  0  0  0  0
 21 31  1  0  0  0  0
 22 23  1  0  0  0  0
 22 24  1  6  0  0  0
 22 32  1  0  0  0  0
 23 33  1  0  0  0  0
 23 34  1  0  0  0  0
 24 35  1  0  0  0  0
 24 36  1  0  0  0  0
 25 27  2  0  0  0  0
 25 38  1  0  0  0  0
 27 28  1  0  0  0  0
 27 29  1  0  0  0  0
 29 40  1  0  0  0  0
 29 41  1  0  0  0  0
 29 42  1  0  0  0  0
M  END
> <PUBCHEM_COMPOUND_CID>
501527
> <PUBCHEM_COMPOUND_CANONICALIZED>
1
> <PUBCHEM_CACTVS_COMPLEXITY>
853
> <PUBCHEM_CACTVS_HBOND_ACCEPTOR>
14
> <PUBCHEM_CACTVS_HBOND_DONOR>
6
> <PUBCHEM_CACTVS_ROTATABLE_BOND>
8
> <PUBCHEM_CACTVS_SUBSKEYS>
AAADceBzPAMAAAAAAAAAAAAAAAAAASAAAAAgAAAAAAAAAAAAAAAAHgAQCCAADBThgAYDAAPABxCIQgFWUICAAAAAAAAAAAEIAECDEAIAgQAOQAANByITAMDwMAIAAAAAAAAAAAAAAAAAAAAAAAAAAAAAAA==
> <PUBCHEM_IUPAC_OPENEYE_NAME>
[hydroxy-[[(2S,4R,5R)-4-hydroxy-5-(5-methyl-2,4-dioxo-pyrimidin-1-yl)tetrahydrofuran-2-yl]methoxy]phosphoryl] phosphono hydrogen phosphate
> <PUBCHEM_IUPAC_CAS_NAME>
[hydroxy-[[(2S,4R,5R)-4-hydroxy-5-(5-methyl-2,4-dioxo-1-pyrimidinyl)-2-oxolanyl]methoxy]phosphoryl] phosphono hydrogen phosphate
> <PUBCHEM_IUPAC_NAME_MARKUP>
[hydroxy-[[(2<I>S</I>,4<I>R</I>,5<I>R</I>)-4-hydroxy-5-(5-methyl-2,4-dioxopyrimidin-1-yl)oxolan-2-yl]methoxy]phosphoryl] phosphono hydrogen phosphate
> <PUBCHEM_IUPAC_NAME>
[hydroxy-[[(2S,4R,5R)-4-hydroxy-5-(5-methyl-2,4-dioxopyrimidin-1-yl)oxolan-2-yl]methoxy]phosphoryl] phosphono hydrogen phosphate
> <PUBCHEM_IUPAC_SYSTEMATIC_NAME>
[[(2S,4R,5R)-5-[5-methyl-2,4-bis(oxidanylidene)pyrimidin-1-yl]-4-oxidanyl-oxolan-2-yl]methoxy-oxidanyl-phosphoryl] phosphono hydrogen phosphate
> <PUBCHEM_IUPAC_TRADITIONAL_NAME>
[[(2S,4R,5R)-5-(2,4-diketo-5-methyl-pyrimidin-1-yl)-4-hydroxy-tetrahydrofuran-2-yl]methoxy-hydroxy-phosphoryl] phosphono hydrogen phosphate
> <PUBCHEM_IUPAC_INCHI>
InChI=1S/C10H17N2O14P3/c1-5-3-12(10(15)11-8(5)14)9-7(13)2-6(24-9)4-23-28(19,20)26-29(21,22)25-27(16,17)18/h3,6-7,9,13H,2,4H2,1H3,(H,19,20)(H,21,22)(H,11,14,15)(H2,16,17,18)/t6-,7+,9+/m0/s1
> <PUBCHEM_IUPAC_INCHIKEY>
BEALYENGMRDLRK-LKEWCRSYSA-N
> <PUBCHEM_XLOGP3>
-4.8
> <PUBCHEM_EXACT_MASS>
481.98926421
> <PUBCHEM_MOLECULAR_FORMULA>
C10H17N2O14P3
> <PUBCHEM_MOLECULAR_WEIGHT>
482.17
> <PUBCHEM_OPENEYE_CAN_SMILES>
CC1=CN(C(=O)NC1=O)C2C(CC(O2)COP(=O)(O)OP(=O)(O)OP(=O)(O)O)O
> <PUBCHEM_OPENEYE_ISO_SMILES>
CC1=CN(C(=O)NC1=O)[C@H]2[C@@H](C[C@H](O2)COP(=O)(O)OP(=O)(O)OP(=O)(O)O)O
> <PUBCHEM_CACTVS_TPSA>
239
> <PUBCHEM_MONOISOTOPIC_WEIGHT>
481.98926421
> <PUBCHEM_TOTAL_CHARGE>
0
> <PUBCHEM_HEAVY_ATOM_COUNT>
29
> <PUBCHEM_ATOM_DEF_STEREO_COUNT>
3
> <PUBCHEM_ATOM_UDEF_STEREO_COUNT>
0
> <PUBCHEM_BOND_DEF_STEREO_COUNT>
0
> <PUBCHEM_BOND_UDEF_STEREO_COUNT>
0
> <PUBCHEM_ISOTOPIC_ATOM_COUNT>
0
> <PUBCHEM_COMPONENT_COUNT>
1
> <PUBCHEM_CACTVS_TAUTO_COUNT>
-1
> <PUBCHEM_COORDINATE_TYPE>
1
5
255
> <PUBCHEM_BONDANNOTATIONS>
21  18  6
18  25  8
18  26  8
19  26  8
19  28  8
22  24  6
25  27  8
27  28  8
20  5  5
$$$$
