501536
  -OEChem-10302200282D
 46 47  0     1  0  0  0  0  0999 V2000
    6.8909   -2.5722    0.0000 P   0  0  3  0  0  0  0  0  0  0  0  0
    8.4732   -3.2767    0.0000 P   0  0  3  0  0  0  0  0  0  0  0  0
   10.0555   -3.9812    0.0000 P   0  0  0  0  0  0  0  0  0  0  0  0
    5.0298   -0.1076    0.0000 O   0  0  0  0  0  0  0  0  0  0  0  0
    2.4608    0.2014    0.0000 O   0  0  0  0  0  0  0  0  0  0  0  0
    6.3031   -1.7632    0.0000 O   0  0  0  0  0  0  0  0  0  0  0  0
    5.9529    1.4802    0.0000 O   0  0  0  0  0  0  0  0  0  0  0  0
    7.4787   -3.3812    0.0000 O   0  0  0  0  0  0  0  0  0  0  0  0
    7.6999   -1.9844    0.0000 O   0  0  0  0  0  0  0  0  0  0  0  0
    6.0819   -3.1600    0.0000 O   0  0  0  0  0  0  0  0  0  0  0  0
    9.4677   -3.1721    0.0000 O   0  0  0  0  0  0  0  0  0  0  0  0
    8.5778   -4.2712    0.0000 O   0  0  0  0  0  0  0  0  0  0  0  0
    8.3687   -2.2821    0.0000 O   0  0  0  0  0  0  0  0  0  0  0  0
   10.6433   -4.7902    0.0000 O   0  0  0  0  0  0  0  0  0  0  0  0
   10.8645   -3.3934    0.0000 O   0  0  0  0  0  0  0  0  0  0  0  0
    9.2465   -4.5689    0.0000 O   0  0  0  0  0  0  0  0  0  0  0  0
    4.2208    1.4802    0.0000 N   0  0  0  0  0  0  0  0  0  0  0  0
    3.1330   -1.8677    0.0000 N   0  0  0  0  0  0  0  0  0  0  0  0
    3.5398   -2.7812    0.0000 N   0  3  0  0  0  0  0  0  0  0  0  0
    5.0868    2.9802    0.0000 N   0  0  0  0  0  0  0  0  0  0  0  0
    4.2208    4.4802    0.0000 N   0  0  0  0  0  0  0  0  0  0  0  0
    3.9465   -3.6948    0.0000 N   0  5  0  0  0  0  0  0  0  0  0  0
    3.7208   -1.0587    0.0000 C   0  0  1  0  0  0  0  0  0  0  0  0
    3.4118   -0.1076    0.0000 C   0  0  2  0  0  0  0  0  0  0  0  0
    4.7208   -1.0587    0.0000 C   0  0  1  0  0  0  0  0  0  0  0  0
    4.2208    0.4802    0.0000 C   0  0  1  0  0  0  0  0  0  0  0  0
    5.3086   -1.8677    0.0000 C   0  0  0  0  0  0  0  0  0  0  0  0
    3.3548    1.9802    0.0000 C   0  0  0  0  0  0  0  0  0  0  0  0
    5.0868    1.9802    0.0000 C   0  0  0  0  0  0  0  0  0  0  0  0
    3.3548    2.9802    0.0000 C   0  0  0  0  0  0  0  0  0  0  0  0
    4.2208    3.4802    0.0000 C   0  0  0  0  0  0  0  0  0  0  0  0
    3.1085   -0.9617    0.0000 H   0  0  0  0  0  0  0  0  0  0  0  0
    2.9734   -0.5460    0.0000 H   0  0  0  0  0  0  0  0  0  0  0  0
    5.3332   -0.9617    0.0000 H   0  0  0  0  0  0  0  0  0  0  0  0
    3.6684    0.7616    0.0000 H   0  0  0  0  0  0  0  0  0  0  0  0
    4.7514   -2.1395    0.0000 H   0  0  0  0  0  0  0  0  0  0  0  0
    5.4795   -2.4637    0.0000 H   0  0  0  0  0  0  0  0  0  0  0  0
    2.0000   -0.2135    0.0000 H   0  0  0  0  0  0  0  0  0  0  0  0
    2.8179    1.6702    0.0000 H   0  0  0  0  0  0  0  0  0  0  0  0
    2.8179    3.2902    0.0000 H   0  0  0  0  0  0  0  0  0  0  0  0
    7.6351   -1.3678    0.0000 H   0  0  0  0  0  0  0  0  0  0  0  0
    3.6839    4.7902    0.0000 H   0  0  0  0  0  0  0  0  0  0  0  0
    4.7578    4.7902    0.0000 H   0  0  0  0  0  0  0  0  0  0  0  0
    8.0762   -4.6356    0.0000 H   0  0  0  0  0  0  0  0  0  0  0  0
   11.2599   -4.7254    0.0000 H   0  0  0  0  0  0  0  0  0  0  0  0
   10.7997   -2.7768    0.0000 H   0  0  0  0  0  0  0  0  0  0  0  0
  1  6  1  0  0  0  0
  1  8  1  0  0  0  0
  1  9  1  0  0  0  0
  1 10  2  0  0  0  0
  2  8  1  0  0  0  0
  2 11  1  0  0  0  0
  2 12  1  0  0  0  0
  2 13  2  0  0  0  0
  3 11  1  0  0  0  0
  3 14  1  0  0  0  0
  3 15  1  0  0  0  0
  3 16  2  0  0  0  0
  4 25  1  0  0  0  0
  4 26  1  0  0  0  0
 24  5  1  1  0  0  0
  5 38  1  0  0  0  0
  6 27  1  0  0  0  0
  7 29  2  0  0  0  0
  9 41  1  0  0  0  0
 12 44  1  0  0  0  0
 14 45  1  0  0  0  0
 15 46  1  0  0  0  0
 26 17  1  6  0  0  0
 17 28  1  0  0  0  0
 17 29  1  0  0  0  0
 18 19  2  0  0  0  0
 23 18  1  1  0  0  0
 19 22  2  0  0  0  0
 20 29  1  0  0  0  0
 20 31  2  0  0  0  0
 21 31  1  0  0  0  0
 21 42  1  0  0  0  0
 21 43  1  0  0  0  0
 23 24  1  0  0  0  0
 23 25  1  0  0  0  0
 23 32  1  0  0  0  0
 24 26  1  0  0  0  0
 24 33  1  0  0  0  0
 25 27  1  6  0  0  0
 25 34  1  0  0  0  0
 26 35  1  0  0  0  0
 27 36  1  0  0  0  0
 27 37  1  0  0  0  0
 28 30  2  0  0  0  0
 28 39  1  0  0  0  0
 30 31  1  0  0  0  0
 30 40  1  0  0  0  0
M  CHG  2  19   1  22  -1
M  END
> <PUBCHEM_COMPOUND_CID>
501536
> <PUBCHEM_COMPOUND_CANONICALIZED>
1
> <PUBCHEM_CACTVS_COMPLEXITY>
974
> <PUBCHEM_CACTVS_HBOND_ACCEPTOR>
15
> <PUBCHEM_CACTVS_HBOND_DONOR>
6
> <PUBCHEM_CACTVS_ROTATABLE_BOND>
9
> <PUBCHEM_CACTVS_SUBSKEYS>
AAADccBzvAMAAAAAAAAAAAAAAAAAASAAAAAgAAAAAAAAAAAAAAAAHgAYCCAACDzhgAYBAANABxCqQCJmdICAAAEAAgAIAAAYABCDEAIAwAAPQAAHFgITAADwMAIAAAAAAAAAAAAAAAAAAAAAAAAAAAAAAA==
> <PUBCHEM_IUPAC_OPENEYE_NAME>
[[(2S,3S,4R,5R)-5-(4-amino-2-oxo-pyrimidin-1-yl)-3-azido-4-hydroxy-tetrahydrofuran-2-yl]methoxy-hydroxy-phosphoryl] phosphono hydrogen phosphate
> <PUBCHEM_IUPAC_CAS_NAME>
[[(2S,3S,4R,5R)-5-(4-amino-2-oxo-1-pyrimidinyl)-3-azido-4-hydroxy-2-oxolanyl]methoxy-hydroxyphosphoryl] phosphono hydrogen phosphate
> <PUBCHEM_IUPAC_NAME_MARKUP>
[[(2<I>S</I>,3<I>S</I>,4<I>R</I>,5<I>R</I>)-5-(4-amino-2-oxopyrimidin-1-yl)-3-azido-4-hydroxyoxolan-2-yl]methoxy-hydroxyphosphoryl] phosphono hydrogen phosphate
> <PUBCHEM_IUPAC_NAME>
[[(2S,3S,4R,5R)-5-(4-amino-2-oxopyrimidin-1-yl)-3-azido-4-hydroxyoxolan-2-yl]methoxy-hydroxyphosphoryl] phosphono hydrogen phosphate
> <PUBCHEM_IUPAC_SYSTEMATIC_NAME>
[[(2S,3S,4R,5R)-5-(4-azanyl-2-oxidanylidene-pyrimidin-1-yl)-3-azido-4-oxidanyl-oxolan-2-yl]methoxy-oxidanyl-phosphoryl] phosphono hydrogen phosphate
> <PUBCHEM_IUPAC_TRADITIONAL_NAME>
[[(2S,3S,4R,5R)-5-(4-amino-2-keto-pyrimidin-1-yl)-3-azido-4-hydroxy-tetrahydrofuran-2-yl]methoxy-hydroxy-phosphoryl] phosphono hydrogen phosphate
> <PUBCHEM_IUPAC_INCHI>
InChI=1S/C9H15N6O13P3/c10-5-1-2-15(9(17)12-5)8-7(16)6(13-14-11)4(26-8)3-25-30(21,22)28-31(23,24)27-29(18,19)20/h1-2,4,6-8,16H,3H2,(H,21,22)(H,23,24)(H2,10,12,17)(H2,18,19,20)/t4-,6-,7-,8-/m1/s1
> <PUBCHEM_IUPAC_INCHIKEY>
HNJIBGDPZWOXNR-XVFCMESISA-N
> <PUBCHEM_XLOGP3_AA>
-4.9
> <PUBCHEM_EXACT_MASS>
507.99099555
> <PUBCHEM_MOLECULAR_FORMULA>
C9H15N6O13P3
> <PUBCHEM_MOLECULAR_WEIGHT>
508.17
> <PUBCHEM_OPENEYE_CAN_SMILES>
C1=CN(C(=O)N=C1N)C2C(C(C(O2)COP(=O)(O)OP(=O)(O)OP(=O)(O)O)N=[N+]=[N-])O
> <PUBCHEM_OPENEYE_ISO_SMILES>
C1=CN(C(=O)N=C1N)[C@H]2[C@@H]([C@@H]([C@H](O2)COP(=O)(O)OP(=O)(O)OP(=O)(O)O)N=[N+]=[N-])O
> <PUBCHEM_CACTVS_TPSA>
262
> <PUBCHEM_MONOISOTOPIC_WEIGHT>
507.99099555
> <PUBCHEM_TOTAL_CHARGE>
0
> <PUBCHEM_HEAVY_ATOM_COUNT>
31
> <PUBCHEM_ATOM_DEF_STEREO_COUNT>
4
> <PUBCHEM_ATOM_UDEF_STEREO_COUNT>
0
> <PUBCHEM_BOND_DEF_STEREO_COUNT>
0
> <PUBCHEM_BOND_UDEF_STEREO_COUNT>
0
> <PUBCHEM_ISOTOPIC_ATOM_COUNT>
0
> <PUBCHEM_COMPONENT_COUNT>
1
> <PUBCHEM_CACTVS_TAUTO_COUNT>
-1
> <PUBCHEM_COORDINATE_TYPE>
1
5
255
> <PUBCHEM_BONDANNOTATIONS>
26  17  6
17  28  8
17  29  8
23  18  5
20  29  8
20  31  8
25  27  6
28  30  8
30  31  8
24  5  5
$$$$
