501522
  -OEChem-10302200282D
 46 49  0     1  0  0  0  0  0999 V2000
    2.0000   -1.5784    0.0000 F   0  0  0  0  0  0  0  0  0  0  0  0
    3.7320   -4.5784    0.0000 F   0  0  0  0  0  0  0  0  0  0  0  0
    9.5987    1.4869    0.0000 O   0  0  0  0  0  0  0  0  0  0  0  0
   11.9447    0.3950    0.0000 O   0  0  0  0  0  0  0  0  0  0  0  0
   11.9484    2.5706    0.0000 O   0  0  0  0  0  0  0  0  0  0  0  0
   10.5509    3.9884    0.0000 O   0  0  0  0  0  0  0  0  0  0  0  0
    6.3301   -2.0784    0.0000 O   0  0  0  0  0  0  0  0  0  0  0  0
    9.8744   -0.2737    0.0000 N   0  0  0  0  0  0  0  0  0  0  0  0
    9.8744   -1.8832    0.0000 N   0  0  0  0  0  0  0  0  0  0  0  0
    8.0622   -0.0784    0.0000 N   0  0  0  0  0  0  0  0  0  0  0  0
    7.1962   -1.5784    0.0000 N   0  0  0  0  0  0  0  0  0  0  0  0
    8.0622   -3.0784    0.0000 N   0  0  0  0  0  0  0  0  0  0  0  0
   11.1367    0.9842    0.0000 C   0  0  1  0  0  0  0  0  0  0  0  0
   10.1851    0.6768    0.0000 C   0  0  1  0  0  0  0  0  0  0  0  0
   11.1384    1.9842    0.0000 C   0  0  1  0  0  0  0  0  0  0  0  0
   10.1879    2.2949    0.0000 C   0  0  1  0  0  0  0  0  0  0  0  0
    9.8805    3.2464    0.0000 C   0  0  0  0  0  0  0  0  0  0  0  0
    8.9282   -0.5784    0.0000 C   0  0  0  0  0  0  0  0  0  0  0  0
   10.4580   -1.0784    0.0000 C   0  0  0  0  0  0  0  0  0  0  0  0
    8.9282   -1.5784    0.0000 C   0  0  0  0  0  0  0  0  0  0  0  0
    8.0622   -2.0784    0.0000 C   0  0  0  0  0  0  0  0  0  0  0  0
    7.1962   -0.5784    0.0000 C   0  0  0  0  0  0  0  0  0  0  0  0
    5.4641   -1.5784    0.0000 C   0  0  0  0  0  0  0  0  0  0  0  0
    4.5981   -2.0784    0.0000 C   0  0  0  0  0  0  0  0  0  0  0  0
    4.5981   -3.0784    0.0000 C   0  0  0  0  0  0  0  0  0  0  0  0
    3.7320   -1.5784    0.0000 C   0  0  0  0  0  0  0  0  0  0  0  0
    2.8660   -2.0784    0.0000 C   0  0  0  0  0  0  0  0  0  0  0  0
    3.7320   -3.5784    0.0000 C   0  0  0  0  0  0  0  0  0  0  0  0
    2.8660   -3.0784    0.0000 C   0  0  0  0  0  0  0  0  0  0  0  0
   11.0386    0.3720    0.0000 H   0  0  0  0  0  0  0  0  0  0  0  0
   10.6227    0.2377    0.0000 H   0  0  0  0  0  0  0  0  0  0  0  0
   11.6903    1.7018    0.0000 H   0  0  0  0  0  0  0  0  0  0  0  0
    9.5757    2.3929    0.0000 H   0  0  0  0  0  0  0  0  0  0  0  0
    9.4997    3.7357    0.0000 H   0  0  0  0  0  0  0  0  0  0  0  0
    9.3326    2.9563    0.0000 H   0  0  0  0  0  0  0  0  0  0  0  0
   12.5115    0.6462    0.0000 H   0  0  0  0  0  0  0  0  0  0  0  0
   12.5144    2.3174    0.0000 H   0  0  0  0  0  0  0  0  0  0  0  0
   11.0780   -1.0784    0.0000 H   0  0  0  0  0  0  0  0  0  0  0  0
   10.3604    4.5784    0.0000 H   0  0  0  0  0  0  0  0  0  0  0  0
    6.6592   -0.2684    0.0000 H   0  0  0  0  0  0  0  0  0  0  0  0
    7.5252   -3.3884    0.0000 H   0  0  0  0  0  0  0  0  0  0  0  0
    5.8626   -1.1035    0.0000 H   0  0  0  0  0  0  0  0  0  0  0  0
    5.0656   -1.1035    0.0000 H   0  0  0  0  0  0  0  0  0  0  0  0
    5.1350   -3.3884    0.0000 H   0  0  0  0  0  0  0  0  0  0  0  0
    3.7320   -0.9584    0.0000 H   0  0  0  0  0  0  0  0  0  0  0  0
    2.3291   -3.3884    0.0000 H   0  0  0  0  0  0  0  0  0  0  0  0
  1 27  1  0  0  0  0
  2 28  1  0  0  0  0
  3 14  1  0  0  0  0
  3 16  1  0  0  0  0
 13  4  1  1  0  0  0
  4 36  1  0  0  0  0
 15  5  1  1  0  0  0
  5 37  1  0  0  0  0
  6 17  1  0  0  0  0
  6 39  1  0  0  0  0
  7 11  1  0  0  0  0
  7 23  1  0  0  0  0
 14  8  1  6  0  0  0
  8 18  1  0  0  0  0
  8 19  1  0  0  0  0
  9 19  2  0  0  0  0
  9 20  1  0  0  0  0
 10 18  1  0  0  0  0
 10 22  2  0  0  0  0
 11 21  1  0  0  0  0
 11 22  1  0  0  0  0
 12 21  2  0  0  0  0
 12 41  1  0  0  0  0
 13 14  1  0  0  0  0
 13 15  1  0  0  0  0
 13 30  1  0  0  0  0
 14 31  1  0  0  0  0
 15 16  1  0  0  0  0
 15 32  1  0  0  0  0
 16 17  1  6  0  0  0
 16 33  1  0  0  0  0
 17 34  1  0  0  0  0
 17 35  1  0  0  0  0
 18 20  2  0  0  0  0
 19 38  1  0  0  0  0
 20 21  1  0  0  0  0
 22 40  1  0  0  0  0
 23 24  1  0  0  0  0
 23 42  1  0  0  0  0
 23 43  1  0  0  0  0
 24 25  2  0  0  0  0
 24 26  1  0  0  0  0
 25 28  1  0  0  0  0
 25 44  1  0  0  0  0
 26 27  2  0  0  0  0
 26 45  1  0  0  0  0
 27 29  1  0  0  0  0
 28 29  2  0  0  0  0
 29 46  1  0  0  0  0
M  END
> <PUBCHEM_COMPOUND_CID>
501522
> <PUBCHEM_COMPOUND_CANONICALIZED>
1
> <PUBCHEM_CACTVS_COMPLEXITY>
635
> <PUBCHEM_CACTVS_HBOND_ACCEPTOR>
10
> <PUBCHEM_CACTVS_HBOND_DONOR>
4
> <PUBCHEM_CACTVS_ROTATABLE_BOND>
5
> <PUBCHEM_CACTVS_SUBSKEYS>
AAADceB7uYAAAAAAAAAAAAAAAAAAAWJAAAAwQAAAAAAAAEABwAAAHwAUCAAADBzhng41sJdcFgCgAyZjZACCgC2xEKAh2AAoXJiLfiLA2RCecAgvwAPbiCfw8CIOAAAAAAAAAAAAAAAAAAAAAAAAAAAAAA==
> <PUBCHEM_IUPAC_OPENEYE_NAME>
(2R,3R,4S,5R)-2-[1-[(3,5-difluorophenyl)methoxy]-6-imino-purin-9-yl]-5-(hydroxymethyl)tetrahydrofuran-3,4-diol
> <PUBCHEM_IUPAC_CAS_NAME>
(2R,3R,4S,5R)-2-[1-[(3,5-difluorophenyl)methoxy]-6-imino-9-purinyl]-5-(hydroxymethyl)oxolane-3,4-diol
> <PUBCHEM_IUPAC_NAME_MARKUP>
(2<I>R</I>,3<I>R</I>,4<I>S</I>,5<I>R</I>)-2-[1-[(3,5-difluorophenyl)methoxy]-6-iminopurin-9-yl]-5-(hydroxymethyl)oxolane-3,4-diol
> <PUBCHEM_IUPAC_NAME>
(2R,3R,4S,5R)-2-[1-[(3,5-difluorophenyl)methoxy]-6-iminopurin-9-yl]-5-(hydroxymethyl)oxolane-3,4-diol
> <PUBCHEM_IUPAC_SYSTEMATIC_NAME>
(2R,3R,4S,5R)-2-[6-azanylidene-1-[[3,5-bis(fluoranyl)phenyl]methoxy]purin-9-yl]-5-(hydroxymethyl)oxolane-3,4-diol
> <PUBCHEM_IUPAC_TRADITIONAL_NAME>
(2R,3R,4S,5R)-2-[1-(3,5-difluorobenzyl)oxy-6-imino-purin-9-yl]-5-methylol-tetrahydrofuran-3,4-diol
> <PUBCHEM_IUPAC_INCHI>
InChI=1S/C17H17F2N5O5/c18-9-1-8(2-10(19)3-9)5-28-24-7-22-16-12(15(24)20)21-6-23(16)17-14(27)13(26)11(4-25)29-17/h1-3,6-7,11,13-14,17,20,25-27H,4-5H2/t11-,13-,14-,17-/m1/s1
> <PUBCHEM_IUPAC_INCHIKEY>
QNUVHNYYQKBTRV-LSCFUAHRSA-N
> <PUBCHEM_XLOGP3_AA>
-0.1
> <PUBCHEM_EXACT_MASS>
409.11977498
> <PUBCHEM_MOLECULAR_FORMULA>
C17H17F2N5O5
> <PUBCHEM_MOLECULAR_WEIGHT>
409.3
> <PUBCHEM_OPENEYE_CAN_SMILES>
C1=C(C=C(C=C1F)F)CON2C=NC3=C(C2=N)N=CN3C4C(C(C(O4)CO)O)O
> <PUBCHEM_OPENEYE_ISO_SMILES>
C1=C(C=C(C=C1F)F)CON2C=NC3=C(C2=N)N=CN3[C@H]4[C@@H]([C@@H]([C@H](O4)CO)O)O
> <PUBCHEM_CACTVS_TPSA>
136
> <PUBCHEM_MONOISOTOPIC_WEIGHT>
409.11977498
> <PUBCHEM_TOTAL_CHARGE>
0
> <PUBCHEM_HEAVY_ATOM_COUNT>
29
> <PUBCHEM_ATOM_DEF_STEREO_COUNT>
4
> <PUBCHEM_ATOM_UDEF_STEREO_COUNT>
0
> <PUBCHEM_BOND_DEF_STEREO_COUNT>
0
> <PUBCHEM_BOND_UDEF_STEREO_COUNT>
0
> <PUBCHEM_ISOTOPIC_ATOM_COUNT>
0
> <PUBCHEM_COMPONENT_COUNT>
1
> <PUBCHEM_CACTVS_TAUTO_COUNT>
-1
> <PUBCHEM_COORDINATE_TYPE>
1
5
255
> <PUBCHEM_BONDANNOTATIONS>
10  18  8
10  22  8
11  21  8
11  22  8
16  17  6
18  20  8
20  21  8
24  25  8
24  26  8
25  28  8
26  27  8
27  29  8
28  29  8
13  4  5
15  5  5
14  8  6
8  18  8
8  19  8
9  19  8
9  20  8
$$$$
