501658
  -OEChem-10302200282D
 41 42  0     1  0  0  0  0  0999 V2000
    6.0682   -1.4720    0.0000 O   0  0  0  0  0  0  0  0  0  0  0  0
    6.0682    1.5280    0.0000 O   0  0  0  0  0  0  0  0  0  0  0  0
    2.5381   -1.4961    0.0000 O   0  0  0  0  0  0  0  0  0  0  0  0
    6.9343   -0.9720    0.0000 C   0  0  3  0  0  0  0  0  0  0  0  0
    6.9343    0.0280    0.0000 C   0  0  0  0  0  0  0  0  0  0  0  0
    7.9343   -0.9720    0.0000 C   0  0  0  0  0  0  0  0  0  0  0  0
    6.0682    0.5280    0.0000 C   0  0  3  0  0  0  0  0  0  0  0  0
    7.4343   -1.8380    0.0000 C   0  0  0  0  0  0  0  0  0  0  0  0
    5.2022    0.0280    0.0000 C   0  0  0  0  0  0  0  0  0  0  0  0
    5.2022   -0.9720    0.0000 C   0  0  0  0  0  0  0  0  0  0  0  0
    8.4343   -0.1060    0.0000 C   0  0  0  0  0  0  0  0  0  0  0  0
    4.3083    0.5627    0.0000 C   0  0  0  0  0  0  0  0  0  0  0  0
    4.3083   -1.5066    0.0000 C   0  0  0  0  0  0  0  0  0  0  0  0
    9.4343   -0.1060    0.0000 C   0  0  0  0  0  0  0  0  0  0  0  0
    3.4022    0.0488    0.0000 C   0  0  0  0  0  0  0  0  0  0  0  0
    3.4022   -0.9928    0.0000 C   0  0  0  0  0  0  0  0  0  0  0  0
    9.9343    0.7601    0.0000 C   0  0  0  0  0  0  0  0  0  0  0  0
   10.9343    0.7601    0.0000 C   0  0  0  0  0  0  0  0  0  0  0  0
    9.4343    1.6261    0.0000 C   0  0  0  0  0  0  0  0  0  0  0  0
    7.5449   -0.0796    0.0000 H   0  0  0  0  0  0  0  0  0  0  0  0
    7.1463    0.6106    0.0000 H   0  0  0  0  0  0  0  0  0  0  0  0
    7.8266   -1.5826    0.0000 H   0  0  0  0  0  0  0  0  0  0  0  0
    8.5169   -1.1840    0.0000 H   0  0  0  0  0  0  0  0  0  0  0  0
    6.6052    0.8380    0.0000 H   0  0  0  0  0  0  0  0  0  0  0  0
    6.8973   -2.1480    0.0000 H   0  0  0  0  0  0  0  0  0  0  0  0
    7.7443   -2.3750    0.0000 H   0  0  0  0  0  0  0  0  0  0  0  0
    7.9712   -1.5280    0.0000 H   0  0  0  0  0  0  0  0  0  0  0  0
    8.5419    0.5046    0.0000 H   0  0  0  0  0  0  0  0  0  0  0  0
    7.8517    0.1061    0.0000 H   0  0  0  0  0  0  0  0  0  0  0  0
    4.3154    1.1826    0.0000 H   0  0  0  0  0  0  0  0  0  0  0  0
    4.3154   -2.1266    0.0000 H   0  0  0  0  0  0  0  0  0  0  0  0
    9.7443   -0.6429    0.0000 H   0  0  0  0  0  0  0  0  0  0  0  0
    6.6052    1.8380    0.0000 H   0  0  0  0  0  0  0  0  0  0  0  0
    2.8665    0.3609    0.0000 H   0  0  0  0  0  0  0  0  0  0  0  0
   10.9343    0.1401    0.0000 H   0  0  0  0  0  0  0  0  0  0  0  0
   11.5543    0.7601    0.0000 H   0  0  0  0  0  0  0  0  0  0  0  0
   10.9343    1.3801    0.0000 H   0  0  0  0  0  0  0  0  0  0  0  0
    9.9712    1.9361    0.0000 H   0  0  0  0  0  0  0  0  0  0  0  0
    9.1243    2.1630    0.0000 H   0  0  0  0  0  0  0  0  0  0  0  0
    8.8973    1.3161    0.0000 H   0  0  0  0  0  0  0  0  0  0  0  0
    2.0000   -1.1882    0.0000 H   0  0  0  0  0  0  0  0  0  0  0  0
  1  4  1  0  0  0  0
  1 10  1  0  0  0  0
  2  7  1  0  0  0  0
  2 33  1  0  0  0  0
  3 16  1  0  0  0  0
  3 41  1  0  0  0  0
  4  5  1  0  0  0  0
  4  6  1  0  0  0  0
  4  8  1  0  0  0  0
  5  7  1  0  0  0  0
  5 20  1  0  0  0  0
  5 21  1  0  0  0  0
  6 11  1  0  0  0  0
  6 22  1  0  0  0  0
  6 23  1  0  0  0  0
  7  9  1  0  0  0  0
  7 24  1  0  0  0  0
  8 25  1  0  0  0  0
  8 26  1  0  0  0  0
  8 27  1  0  0  0  0
  9 10  2  0  0  0  0
  9 12  1  0  0  0  0
 10 13  1  0  0  0  0
 11 14  1  0  0  0  0
 11 28  1  0  0  0  0
 11 29  1  0  0  0  0
 12 15  2  0  0  0  0
 12 30  1  0  0  0  0
 13 16  2  0  0  0  0
 13 31  1  0  0  0  0
 14 17  2  0  0  0  0
 14 32  1  0  0  0  0
 15 16  1  0  0  0  0
 15 34  1  0  0  0  0
 17 18  1  0  0  0  0
 17 19  1  0  0  0  0
 18 35  1  0  0  0  0
 18 36  1  0  0  0  0
 18 37  1  0  0  0  0
 19 38  1  0  0  0  0
 19 39  1  0  0  0  0
 19 40  1  0  0  0  0
M  END
> <PUBCHEM_COMPOUND_CID>
501658
> <PUBCHEM_COMPOUND_CANONICALIZED>
1
> <PUBCHEM_CACTVS_COMPLEXITY>
335
> <PUBCHEM_CACTVS_HBOND_ACCEPTOR>
3
> <PUBCHEM_CACTVS_HBOND_DONOR>
2
> <PUBCHEM_CACTVS_ROTATABLE_BOND>
3
> <PUBCHEM_CACTVS_SUBSKEYS>
AAADceB4MAAAAAAAAAAAAAAAAAAAAAAAAAA0QAAAAAAAAACRAAAAGgAACAAADFSgmAIyBoAABgCAAiBCAAACCAAgIAAIiAAGCIgMNyKGMRqCeCClwBUIuAeA4PwOIAAACAAIAABAAAAQABAAAAAAAAAAAA==
> <PUBCHEM_IUPAC_OPENEYE_NAME>
2-methyl-2-(4-methylpent-3-enyl)chromane-4,7-diol
> <PUBCHEM_IUPAC_CAS_NAME>
2-methyl-2-(4-methylpent-3-enyl)-3,4-dihydro-2H-1-benzopyran-4,7-diol
> <PUBCHEM_IUPAC_NAME_MARKUP>
2-methyl-2-(4-methylpent-3-enyl)-3,4-dihydrochromene-4,7-diol
> <PUBCHEM_IUPAC_NAME>
2-methyl-2-(4-methylpent-3-enyl)-3,4-dihydrochromene-4,7-diol
> <PUBCHEM_IUPAC_SYSTEMATIC_NAME>
2-methyl-2-(4-methylpent-3-enyl)-3,4-dihydrochromene-4,7-diol
> <PUBCHEM_IUPAC_TRADITIONAL_NAME>
2-methyl-2-(4-methylpent-3-enyl)chroman-4,7-diol
> <PUBCHEM_IUPAC_INCHI>
InChI=1S/C16H22O3/c1-11(2)5-4-8-16(3)10-14(18)13-7-6-12(17)9-15(13)19-16/h5-7,9,14,17-18H,4,8,10H2,1-3H3
> <PUBCHEM_IUPAC_INCHIKEY>
PZJLHERKOVBRSK-UHFFFAOYSA-N
> <PUBCHEM_XLOGP3_AA>
3.4
> <PUBCHEM_EXACT_MASS>
262.15689456
> <PUBCHEM_MOLECULAR_FORMULA>
C16H22O3
> <PUBCHEM_MOLECULAR_WEIGHT>
262.34
> <PUBCHEM_OPENEYE_CAN_SMILES>
CC(=CCCC1(CC(C2=C(O1)C=C(C=C2)O)O)C)C
> <PUBCHEM_OPENEYE_ISO_SMILES>
CC(=CCCC1(CC(C2=C(O1)C=C(C=C2)O)O)C)C
> <PUBCHEM_CACTVS_TPSA>
49.7
> <PUBCHEM_MONOISOTOPIC_WEIGHT>
262.15689456
> <PUBCHEM_TOTAL_CHARGE>
0
> <PUBCHEM_HEAVY_ATOM_COUNT>
19
> <PUBCHEM_ATOM_DEF_STEREO_COUNT>
0
> <PUBCHEM_ATOM_UDEF_STEREO_COUNT>
2
> <PUBCHEM_BOND_DEF_STEREO_COUNT>
0
> <PUBCHEM_BOND_UDEF_STEREO_COUNT>
0
> <PUBCHEM_ISOTOPIC_ATOM_COUNT>
0
> <PUBCHEM_COMPONENT_COUNT>
1
> <PUBCHEM_CACTVS_TAUTO_COUNT>
-1
> <PUBCHEM_COORDINATE_TYPE>
1
5
255
> <PUBCHEM_BONDANNOTATIONS>
10  13  8
12  15  8
13  16  8
15  16  8
7  2  3
4  8  3
9  10  8
9  12  8
$$$$
