501656
  -OEChem-10302200282D
 40 41  0     1  0  0  0  0  0999 V2000
    6.0682   -1.4720    0.0000 O   0  0  0  0  0  0  0  0  0  0  0  0
    6.0682    1.5280    0.0000 O   0  0  0  0  0  0  0  0  0  0  0  0
    2.5381   -1.4961    0.0000 O   0  0  0  0  0  0  0  0  0  0  0  0
    6.9343   -0.9720    0.0000 C   0  0  3  0  0  0  0  0  0  0  0  0
    6.9343    0.0280    0.0000 C   0  0  0  0  0  0  0  0  0  0  0  0
    7.9343   -0.9720    0.0000 C   0  0  0  0  0  0  0  0  0  0  0  0
    6.0682    0.5280    0.0000 C   0  0  3  0  0  0  0  0  0  0  0  0
    8.4343   -0.1060    0.0000 C   0  0  0  0  0  0  0  0  0  0  0  0
    7.4343   -1.8380    0.0000 C   0  0  0  0  0  0  0  0  0  0  0  0
    5.2022    0.0280    0.0000 C   0  0  0  0  0  0  0  0  0  0  0  0
    5.2022   -0.9720    0.0000 C   0  0  0  0  0  0  0  0  0  0  0  0
    9.4343   -0.1060    0.0000 C   0  0  0  0  0  0  0  0  0  0  0  0
    4.3083    0.5627    0.0000 C   0  0  0  0  0  0  0  0  0  0  0  0
    9.9343    0.7601    0.0000 C   0  0  0  0  0  0  0  0  0  0  0  0
    4.3083   -1.5066    0.0000 C   0  0  0  0  0  0  0  0  0  0  0  0
    3.4022    0.0488    0.0000 C   0  0  0  0  0  0  0  0  0  0  0  0
    3.4022   -0.9928    0.0000 C   0  0  0  0  0  0  0  0  0  0  0  0
   10.9343    0.7601    0.0000 C   0  0  0  0  0  0  0  0  0  0  0  0
    7.5449   -0.0796    0.0000 H   0  0  0  0  0  0  0  0  0  0  0  0
    7.1463    0.6106    0.0000 H   0  0  0  0  0  0  0  0  0  0  0  0
    7.8266   -1.5826    0.0000 H   0  0  0  0  0  0  0  0  0  0  0  0
    8.5169   -1.1840    0.0000 H   0  0  0  0  0  0  0  0  0  0  0  0
    6.6052    0.8380    0.0000 H   0  0  0  0  0  0  0  0  0  0  0  0
    8.5419    0.5046    0.0000 H   0  0  0  0  0  0  0  0  0  0  0  0
    7.8517    0.1061    0.0000 H   0  0  0  0  0  0  0  0  0  0  0  0
    6.8973   -2.1480    0.0000 H   0  0  0  0  0  0  0  0  0  0  0  0
    7.7443   -2.3750    0.0000 H   0  0  0  0  0  0  0  0  0  0  0  0
    7.9712   -1.5280    0.0000 H   0  0  0  0  0  0  0  0  0  0  0  0
    9.3266   -0.7165    0.0000 H   0  0  0  0  0  0  0  0  0  0  0  0
   10.0169   -0.3180    0.0000 H   0  0  0  0  0  0  0  0  0  0  0  0
   10.0419    1.3706    0.0000 H   0  0  0  0  0  0  0  0  0  0  0  0
    9.3517    0.9721    0.0000 H   0  0  0  0  0  0  0  0  0  0  0  0
    4.3154    1.1826    0.0000 H   0  0  0  0  0  0  0  0  0  0  0  0
    4.3154   -2.1266    0.0000 H   0  0  0  0  0  0  0  0  0  0  0  0
    6.6052    1.8380    0.0000 H   0  0  0  0  0  0  0  0  0  0  0  0
    2.8665    0.3609    0.0000 H   0  0  0  0  0  0  0  0  0  0  0  0
   10.9343    0.1401    0.0000 H   0  0  0  0  0  0  0  0  0  0  0  0
   11.5543    0.7601    0.0000 H   0  0  0  0  0  0  0  0  0  0  0  0
   10.9343    1.3801    0.0000 H   0  0  0  0  0  0  0  0  0  0  0  0
    2.0000   -1.1882    0.0000 H   0  0  0  0  0  0  0  0  0  0  0  0
  1  4  1  0  0  0  0
  1 11  1  0  0  0  0
  2  7  1  0  0  0  0
  2 35  1  0  0  0  0
  3 17  1  0  0  0  0
  3 40  1  0  0  0  0
  4  5  1  0  0  0  0
  4  6  1  0  0  0  0
  4  9  1  0  0  0  0
  5  7  1  0  0  0  0
  5 19  1  0  0  0  0
  5 20  1  0  0  0  0
  6  8  1  0  0  0  0
  6 21  1  0  0  0  0
  6 22  1  0  0  0  0
  7 10  1  0  0  0  0
  7 23  1  0  0  0  0
  8 12  1  0  0  0  0
  8 24  1  0  0  0  0
  8 25  1  0  0  0  0
  9 26  1  0  0  0  0
  9 27  1  0  0  0  0
  9 28  1  0  0  0  0
 10 11  2  0  0  0  0
 10 13  1  0  0  0  0
 11 15  1  0  0  0  0
 12 14  1  0  0  0  0
 12 29  1  0  0  0  0
 12 30  1  0  0  0  0
 13 16  2  0  0  0  0
 13 33  1  0  0  0  0
 14 18  1  0  0  0  0
 14 31  1  0  0  0  0
 14 32  1  0  0  0  0
 15 17  2  0  0  0  0
 15 34  1  0  0  0  0
 16 17  1  0  0  0  0
 16 36  1  0  0  0  0
 18 37  1  0  0  0  0
 18 38  1  0  0  0  0
 18 39  1  0  0  0  0
M  END
> <PUBCHEM_COMPOUND_CID>
501656
> <PUBCHEM_COMPOUND_CANONICALIZED>
1
> <PUBCHEM_CACTVS_COMPLEXITY>
269
> <PUBCHEM_CACTVS_HBOND_ACCEPTOR>
3
> <PUBCHEM_CACTVS_HBOND_DONOR>
2
> <PUBCHEM_CACTVS_ROTATABLE_BOND>
4
> <PUBCHEM_CACTVS_SUBSKEYS>
AAADceBwMAAAAAAAAAAAAAAAAAAAAAAAAAA0QAAAAAAAAACRAAAAGgAACAAADFSgmAIyBoAABgCAAiBCAAACCAAgIAAIiAAGCIgMNyKGMRqCeCClwBUIuAeA4PwOIAAACAAIAABAAAAQABAAAAAAAAAAAA==
> <PUBCHEM_IUPAC_OPENEYE_NAME>
2-methyl-2-pentyl-chromane-4,7-diol
> <PUBCHEM_IUPAC_CAS_NAME>
2-methyl-2-pentyl-3,4-dihydro-2H-1-benzopyran-4,7-diol
> <PUBCHEM_IUPAC_NAME_MARKUP>
2-methyl-2-pentyl-3,4-dihydrochromene-4,7-diol
> <PUBCHEM_IUPAC_NAME>
2-methyl-2-pentyl-3,4-dihydrochromene-4,7-diol
> <PUBCHEM_IUPAC_SYSTEMATIC_NAME>
2-methyl-2-pentyl-3,4-dihydrochromene-4,7-diol
> <PUBCHEM_IUPAC_TRADITIONAL_NAME>
2-amyl-2-methyl-chroman-4,7-diol
> <PUBCHEM_IUPAC_INCHI>
InChI=1S/C15H22O3/c1-3-4-5-8-15(2)10-13(17)12-7-6-11(16)9-14(12)18-15/h6-7,9,13,16-17H,3-5,8,10H2,1-2H3
> <PUBCHEM_IUPAC_INCHIKEY>
CZTYGKREMIRNDP-UHFFFAOYSA-N
> <PUBCHEM_XLOGP3_AA>
3.4
> <PUBCHEM_EXACT_MASS>
250.15689456
> <PUBCHEM_MOLECULAR_FORMULA>
C15H22O3
> <PUBCHEM_MOLECULAR_WEIGHT>
250.33
> <PUBCHEM_OPENEYE_CAN_SMILES>
CCCCCC1(CC(C2=C(O1)C=C(C=C2)O)O)C
> <PUBCHEM_OPENEYE_ISO_SMILES>
CCCCCC1(CC(C2=C(O1)C=C(C=C2)O)O)C
> <PUBCHEM_CACTVS_TPSA>
49.7
> <PUBCHEM_MONOISOTOPIC_WEIGHT>
250.15689456
> <PUBCHEM_TOTAL_CHARGE>
0
> <PUBCHEM_HEAVY_ATOM_COUNT>
18
> <PUBCHEM_ATOM_DEF_STEREO_COUNT>
0
> <PUBCHEM_ATOM_UDEF_STEREO_COUNT>
2
> <PUBCHEM_BOND_DEF_STEREO_COUNT>
0
> <PUBCHEM_BOND_UDEF_STEREO_COUNT>
0
> <PUBCHEM_ISOTOPIC_ATOM_COUNT>
0
> <PUBCHEM_COMPONENT_COUNT>
1
> <PUBCHEM_CACTVS_TAUTO_COUNT>
-1
> <PUBCHEM_COORDINATE_TYPE>
1
5
255
> <PUBCHEM_BONDANNOTATIONS>
10  11  8
10  13  8
11  15  8
13  16  8
15  17  8
16  17  8
7  2  3
4  9  3
$$$$
