501665
  -OEChem-10302200282D
 50 51  0     1  0  0  0  0  0999 V2000
    6.0682   -1.7990    0.0000 O   0  0  0  0  0  0  0  0  0  0  0  0
    6.0682    1.2010    0.0000 O   0  0  0  0  0  0  0  0  0  0  0  0
    2.5381   -1.8232    0.0000 O   0  0  0  0  0  0  0  0  0  0  0  0
    6.9343   -1.2990    0.0000 C   0  0  3  0  0  0  0  0  0  0  0  0
    7.9343   -1.2990    0.0000 C   0  0  0  0  0  0  0  0  0  0  0  0
    8.4343   -0.4330    0.0000 C   0  0  0  0  0  0  0  0  0  0  0  0
    6.9343   -0.2990    0.0000 C   0  0  0  0  0  0  0  0  0  0  0  0
    9.4343   -0.4330    0.0000 C   0  0  0  0  0  0  0  0  0  0  0  0
    7.4343   -2.1651    0.0000 C   0  0  0  0  0  0  0  0  0  0  0  0
    9.9343    0.4330    0.0000 C   0  0  0  0  0  0  0  0  0  0  0  0
   10.9343    0.4330    0.0000 C   0  0  0  0  0  0  0  0  0  0  0  0
    6.0682    0.2010    0.0000 C   0  0  0  0  0  0  0  0  0  0  0  0
    5.2022   -1.2990    0.0000 C   0  0  0  0  0  0  0  0  0  0  0  0
    5.2022   -0.2990    0.0000 C   0  0  0  0  0  0  0  0  0  0  0  0
   11.4343    1.2990    0.0000 C   0  0  0  0  0  0  0  0  0  0  0  0
   12.4343    1.2990    0.0000 C   0  0  0  0  0  0  0  0  0  0  0  0
    4.3083   -1.8337    0.0000 C   0  0  0  0  0  0  0  0  0  0  0  0
    4.3083    0.2356    0.0000 C   0  0  0  0  0  0  0  0  0  0  0  0
   12.9343    2.1651    0.0000 C   0  0  0  0  0  0  0  0  0  0  0  0
    3.4022   -1.3198    0.0000 C   0  0  0  0  0  0  0  0  0  0  0  0
    3.4022   -0.2782    0.0000 C   0  0  0  0  0  0  0  0  0  0  0  0
   13.9343    2.1651    0.0000 C   0  0  0  0  0  0  0  0  0  0  0  0
    7.8266   -1.9096    0.0000 H   0  0  0  0  0  0  0  0  0  0  0  0
    8.5169   -1.5111    0.0000 H   0  0  0  0  0  0  0  0  0  0  0  0
    8.5419    0.1776    0.0000 H   0  0  0  0  0  0  0  0  0  0  0  0
    7.8517   -0.2210    0.0000 H   0  0  0  0  0  0  0  0  0  0  0  0
    7.5449   -0.4067    0.0000 H   0  0  0  0  0  0  0  0  0  0  0  0
    7.1463    0.2836    0.0000 H   0  0  0  0  0  0  0  0  0  0  0  0
    9.3266   -1.0436    0.0000 H   0  0  0  0  0  0  0  0  0  0  0  0
   10.0169   -0.6451    0.0000 H   0  0  0  0  0  0  0  0  0  0  0  0
    6.8973   -2.4751    0.0000 H   0  0  0  0  0  0  0  0  0  0  0  0
    7.7443   -2.7020    0.0000 H   0  0  0  0  0  0  0  0  0  0  0  0
    7.9712   -1.8551    0.0000 H   0  0  0  0  0  0  0  0  0  0  0  0
   10.0419    1.0436    0.0000 H   0  0  0  0  0  0  0  0  0  0  0  0
    9.3517    0.6451    0.0000 H   0  0  0  0  0  0  0  0  0  0  0  0
   10.8266   -0.1776    0.0000 H   0  0  0  0  0  0  0  0  0  0  0  0
   11.5169    0.2210    0.0000 H   0  0  0  0  0  0  0  0  0  0  0  0
   11.5419    1.9096    0.0000 H   0  0  0  0  0  0  0  0  0  0  0  0
   10.8517    1.5111    0.0000 H   0  0  0  0  0  0  0  0  0  0  0  0
   12.3266    0.6885    0.0000 H   0  0  0  0  0  0  0  0  0  0  0  0
   13.0169    1.0870    0.0000 H   0  0  0  0  0  0  0  0  0  0  0  0
    4.3154   -2.4537    0.0000 H   0  0  0  0  0  0  0  0  0  0  0  0
    4.3154    0.8556    0.0000 H   0  0  0  0  0  0  0  0  0  0  0  0
   13.0419    2.7756    0.0000 H   0  0  0  0  0  0  0  0  0  0  0  0
   12.3517    2.3771    0.0000 H   0  0  0  0  0  0  0  0  0  0  0  0
    2.8665    0.0338    0.0000 H   0  0  0  0  0  0  0  0  0  0  0  0
   13.9343    1.5451    0.0000 H   0  0  0  0  0  0  0  0  0  0  0  0
   14.5543    2.1651    0.0000 H   0  0  0  0  0  0  0  0  0  0  0  0
   13.9343    2.7851    0.0000 H   0  0  0  0  0  0  0  0  0  0  0  0
    2.0000   -1.5153    0.0000 H   0  0  0  0  0  0  0  0  0  0  0  0
  1  4  1  0  0  0  0
  1 13  1  0  0  0  0
  2 12  2  0  0  0  0
  3 20  1  0  0  0  0
  3 50  1  0  0  0  0
  4  5  1  0  0  0  0
  4  7  1  0  0  0  0
  4  9  1  0  0  0  0
  5  6  1  0  0  0  0
  5 23  1  0  0  0  0
  5 24  1  0  0  0  0
  6  8  1  0  0  0  0
  6 25  1  0  0  0  0
  6 26  1  0  0  0  0
  7 12  1  0  0  0  0
  7 27  1  0  0  0  0
  7 28  1  0  0  0  0
  8 10  1  0  0  0  0
  8 29  1  0  0  0  0
  8 30  1  0  0  0  0
  9 31  1  0  0  0  0
  9 32  1  0  0  0  0
  9 33  1  0  0  0  0
 10 11  1  0  0  0  0
 10 34  1  0  0  0  0
 10 35  1  0  0  0  0
 11 15  1  0  0  0  0
 11 36  1  0  0  0  0
 11 37  1  0  0  0  0
 12 14  1  0  0  0  0
 13 14  2  0  0  0  0
 13 17  1  0  0  0  0
 14 18  1  0  0  0  0
 15 16  1  0  0  0  0
 15 38  1  0  0  0  0
 15 39  1  0  0  0  0
 16 19  1  0  0  0  0
 16 40  1  0  0  0  0
 16 41  1  0  0  0  0
 17 20  2  0  0  0  0
 17 42  1  0  0  0  0
 18 21  2  0  0  0  0
 18 43  1  0  0  0  0
 19 22  1  0  0  0  0
 19 44  1  0  0  0  0
 19 45  1  0  0  0  0
 20 21  1  0  0  0  0
 21 46  1  0  0  0  0
 22 47  1  0  0  0  0
 22 48  1  0  0  0  0
 22 49  1  0  0  0  0
M  END
> <PUBCHEM_COMPOUND_CID>
501665
> <PUBCHEM_COMPOUND_CANONICALIZED>
1
> <PUBCHEM_CACTVS_COMPLEXITY>
355
> <PUBCHEM_CACTVS_HBOND_ACCEPTOR>
3
> <PUBCHEM_CACTVS_HBOND_DONOR>
1
> <PUBCHEM_CACTVS_ROTATABLE_BOND>
8
> <PUBCHEM_CACTVS_SUBSKEYS>
AAADceB4MAAAAAAAAAAAAAAAAAAAAAAAAAA0QAAAAAAAAACRAAAAGgAACAAADESAmAAyBoAABgCIAqBSAAACCAAkIAAIiAEGCMgMJzaGNRqCeWCl4BUIuYeI7PzOIAAACAAIAABAAAAQABAAAAAAAAAAAA==
> <PUBCHEM_IUPAC_OPENEYE_NAME>
7-hydroxy-2-methyl-2-nonyl-chroman-4-one
> <PUBCHEM_IUPAC_CAS_NAME>
7-hydroxy-2-methyl-2-nonyl-3,4-dihydro-2H-1-benzopyran-4-one
> <PUBCHEM_IUPAC_NAME_MARKUP>
7-hydroxy-2-methyl-2-nonyl-3<I>H</I>-chromen-4-one
> <PUBCHEM_IUPAC_NAME>
7-hydroxy-2-methyl-2-nonyl-3H-chromen-4-one
> <PUBCHEM_IUPAC_SYSTEMATIC_NAME>
2-methyl-2-nonyl-7-oxidanyl-3H-chromen-4-one
> <PUBCHEM_IUPAC_TRADITIONAL_NAME>
7-hydroxy-2-methyl-2-nonyl-chroman-4-one
> <PUBCHEM_IUPAC_INCHI>
InChI=1S/C19H28O3/c1-3-4-5-6-7-8-9-12-19(2)14-17(21)16-11-10-15(20)13-18(16)22-19/h10-11,13,20H,3-9,12,14H2,1-2H3
> <PUBCHEM_IUPAC_INCHIKEY>
QXSOXXCVPXJEIJ-UHFFFAOYSA-N
> <PUBCHEM_XLOGP3_AA>
5.8
> <PUBCHEM_EXACT_MASS>
304.20384475
> <PUBCHEM_MOLECULAR_FORMULA>
C19H28O3
> <PUBCHEM_MOLECULAR_WEIGHT>
304.4
> <PUBCHEM_OPENEYE_CAN_SMILES>
CCCCCCCCCC1(CC(=O)C2=C(O1)C=C(C=C2)O)C
> <PUBCHEM_OPENEYE_ISO_SMILES>
CCCCCCCCCC1(CC(=O)C2=C(O1)C=C(C=C2)O)C
> <PUBCHEM_CACTVS_TPSA>
46.5
> <PUBCHEM_MONOISOTOPIC_WEIGHT>
304.20384475
> <PUBCHEM_TOTAL_CHARGE>
0
> <PUBCHEM_HEAVY_ATOM_COUNT>
22
> <PUBCHEM_ATOM_DEF_STEREO_COUNT>
0
> <PUBCHEM_ATOM_UDEF_STEREO_COUNT>
1
> <PUBCHEM_BOND_DEF_STEREO_COUNT>
0
> <PUBCHEM_BOND_UDEF_STEREO_COUNT>
0
> <PUBCHEM_ISOTOPIC_ATOM_COUNT>
0
> <PUBCHEM_COMPONENT_COUNT>
1
> <PUBCHEM_CACTVS_TAUTO_COUNT>
-1
> <PUBCHEM_COORDINATE_TYPE>
1
5
255
> <PUBCHEM_BONDANNOTATIONS>
13  14  8
13  17  8
14  18  8
17  20  8
18  21  8
20  21  8
4  9  3
$$$$
