501667
  -OEChem-10302200282D
 41 42  0     1  0  0  0  0  0999 V2000
    6.3981   -1.3170    0.0000 O   0  0  0  0  0  0  0  0  0  0  0  0
    6.3981    1.6830    0.0000 O   0  0  0  0  0  0  0  0  0  0  0  0
    2.8680   -1.3411    0.0000 O   0  0  0  0  0  0  0  0  0  0  0  0
    7.2641   -0.8170    0.0000 C   0  0  3  0  0  0  0  0  0  0  0  0
    8.2641   -0.8170    0.0000 C   0  0  0  0  0  0  0  0  0  0  0  0
    7.2641    0.1830    0.0000 C   0  0  0  0  0  0  0  0  0  0  0  0
    8.7641    0.0490    0.0000 C   0  0  0  0  0  0  0  0  0  0  0  0
    7.7641   -1.6830    0.0000 C   0  0  0  0  0  0  0  0  0  0  0  0
    9.7641    0.0490    0.0000 C   0  0  0  0  0  0  0  0  0  0  0  0
    6.3981    0.6830    0.0000 C   0  0  0  0  0  0  0  0  0  0  0  0
    5.5320   -0.8170    0.0000 C   0  0  0  0  0  0  0  0  0  0  0  0
    5.5320    0.1830    0.0000 C   0  0  0  0  0  0  0  0  0  0  0  0
   10.2641    0.9151    0.0000 C   0  0  0  0  0  0  0  0  0  0  0  0
    4.6381   -1.3516    0.0000 C   0  0  0  0  0  0  0  0  0  0  0  0
    4.6381    0.7177    0.0000 C   0  0  0  0  0  0  0  0  0  0  0  0
   11.2641    0.9151    0.0000 C   0  0  0  0  0  0  0  0  0  0  0  0
    3.7320   -0.8378    0.0000 C   0  0  0  0  0  0  0  0  0  0  0  0
    3.7320    0.2038    0.0000 C   0  0  0  0  0  0  0  0  0  0  0  0
    2.0000   -0.8445    0.0000 C   0  0  0  0  0  0  0  0  0  0  0  0
    8.1564   -1.4276    0.0000 H   0  0  0  0  0  0  0  0  0  0  0  0
    8.8467   -1.0290    0.0000 H   0  0  0  0  0  0  0  0  0  0  0  0
    7.8747    0.0754    0.0000 H   0  0  0  0  0  0  0  0  0  0  0  0
    7.4762    0.7656    0.0000 H   0  0  0  0  0  0  0  0  0  0  0  0
    8.8718    0.6596    0.0000 H   0  0  0  0  0  0  0  0  0  0  0  0
    8.1815    0.2611    0.0000 H   0  0  0  0  0  0  0  0  0  0  0  0
    7.2272   -1.9930    0.0000 H   0  0  0  0  0  0  0  0  0  0  0  0
    8.0741   -2.2200    0.0000 H   0  0  0  0  0  0  0  0  0  0  0  0
    8.3010   -1.3730    0.0000 H   0  0  0  0  0  0  0  0  0  0  0  0
    9.6564   -0.5615    0.0000 H   0  0  0  0  0  0  0  0  0  0  0  0
   10.3467   -0.1630    0.0000 H   0  0  0  0  0  0  0  0  0  0  0  0
   10.3718    1.5256    0.0000 H   0  0  0  0  0  0  0  0  0  0  0  0
    9.6815    1.1271    0.0000 H   0  0  0  0  0  0  0  0  0  0  0  0
    4.6453   -1.9716    0.0000 H   0  0  0  0  0  0  0  0  0  0  0  0
    4.6453    1.3376    0.0000 H   0  0  0  0  0  0  0  0  0  0  0  0
   11.2641    0.2951    0.0000 H   0  0  0  0  0  0  0  0  0  0  0  0
   11.8841    0.9151    0.0000 H   0  0  0  0  0  0  0  0  0  0  0  0
   11.2641    1.5351    0.0000 H   0  0  0  0  0  0  0  0  0  0  0  0
    3.1963    0.5159    0.0000 H   0  0  0  0  0  0  0  0  0  0  0  0
    2.3079   -0.3064    0.0000 H   0  0  0  0  0  0  0  0  0  0  0  0
    1.4619   -0.5366    0.0000 H   0  0  0  0  0  0  0  0  0  0  0  0
    1.6921   -1.3826    0.0000 H   0  0  0  0  0  0  0  0  0  0  0  0
  1  4  1  0  0  0  0
  1 11  1  0  0  0  0
  2 10  2  0  0  0  0
  3 17  1  0  0  0  0
  3 19  1  0  0  0  0
  4  5  1  0  0  0  0
  4  6  1  0  0  0  0
  4  8  1  0  0  0  0
  5  7  1  0  0  0  0
  5 20  1  0  0  0  0
  5 21  1  0  0  0  0
  6 10  1  0  0  0  0
  6 22  1  0  0  0  0
  6 23  1  0  0  0  0
  7  9  1  0  0  0  0
  7 24  1  0  0  0  0
  7 25  1  0  0  0  0
  8 26  1  0  0  0  0
  8 27  1  0  0  0  0
  8 28  1  0  0  0  0
  9 13  1  0  0  0  0
  9 29  1  0  0  0  0
  9 30  1  0  0  0  0
 10 12  1  0  0  0  0
 11 12  2  0  0  0  0
 11 14  1  0  0  0  0
 12 15  1  0  0  0  0
 13 16  1  0  0  0  0
 13 31  1  0  0  0  0
 13 32  1  0  0  0  0
 14 17  2  0  0  0  0
 14 33  1  0  0  0  0
 15 18  2  0  0  0  0
 15 34  1  0  0  0  0
 16 35  1  0  0  0  0
 16 36  1  0  0  0  0
 16 37  1  0  0  0  0
 17 18  1  0  0  0  0
 18 38  1  0  0  0  0
 19 39  1  0  0  0  0
 19 40  1  0  0  0  0
 19 41  1  0  0  0  0
M  END
> <PUBCHEM_COMPOUND_CID>
501667
> <PUBCHEM_COMPOUND_CANONICALIZED>
1
> <PUBCHEM_CACTVS_COMPLEXITY>
315
> <PUBCHEM_CACTVS_HBOND_ACCEPTOR>
3
> <PUBCHEM_CACTVS_HBOND_DONOR>
0
> <PUBCHEM_CACTVS_ROTATABLE_BOND>
5
> <PUBCHEM_CACTVS_SUBSKEYS>
AAADceB4MAAAAAAAAAAAAAAAAAAAAAAAAAA0QAAAAAAAAACRAAAAGgAAAAAADESAmAIyBoAABACIAqBSAAACCAAkIAAIiAEGCMgMJzaENRqCOWCl4BUIqYeI7PzOIAAACAAIAABAAAAQABAAAAAAAAAAAA==
> <PUBCHEM_IUPAC_OPENEYE_NAME>
7-methoxy-2-methyl-2-pentyl-chroman-4-one
> <PUBCHEM_IUPAC_CAS_NAME>
7-methoxy-2-methyl-2-pentyl-3,4-dihydro-2H-1-benzopyran-4-one
> <PUBCHEM_IUPAC_NAME_MARKUP>
7-methoxy-2-methyl-2-pentyl-3<I>H</I>-chromen-4-one
> <PUBCHEM_IUPAC_NAME>
7-methoxy-2-methyl-2-pentyl-3H-chromen-4-one
> <PUBCHEM_IUPAC_SYSTEMATIC_NAME>
7-methoxy-2-methyl-2-pentyl-3H-chromen-4-one
> <PUBCHEM_IUPAC_TRADITIONAL_NAME>
2-amyl-7-methoxy-2-methyl-chroman-4-one
> <PUBCHEM_IUPAC_INCHI>
InChI=1S/C16H22O3/c1-4-5-6-9-16(2)11-14(17)13-8-7-12(18-3)10-15(13)19-16/h7-8,10H,4-6,9,11H2,1-3H3
> <PUBCHEM_IUPAC_INCHIKEY>
KMCINQRDKJSDPS-UHFFFAOYSA-N
> <PUBCHEM_XLOGP3_AA>
3.9
> <PUBCHEM_EXACT_MASS>
262.15689456
> <PUBCHEM_MOLECULAR_FORMULA>
C16H22O3
> <PUBCHEM_MOLECULAR_WEIGHT>
262.34
> <PUBCHEM_OPENEYE_CAN_SMILES>
CCCCCC1(CC(=O)C2=C(O1)C=C(C=C2)OC)C
> <PUBCHEM_OPENEYE_ISO_SMILES>
CCCCCC1(CC(=O)C2=C(O1)C=C(C=C2)OC)C
> <PUBCHEM_CACTVS_TPSA>
35.5
> <PUBCHEM_MONOISOTOPIC_WEIGHT>
262.15689456
> <PUBCHEM_TOTAL_CHARGE>
0
> <PUBCHEM_HEAVY_ATOM_COUNT>
19
> <PUBCHEM_ATOM_DEF_STEREO_COUNT>
0
> <PUBCHEM_ATOM_UDEF_STEREO_COUNT>
1
> <PUBCHEM_BOND_DEF_STEREO_COUNT>
0
> <PUBCHEM_BOND_UDEF_STEREO_COUNT>
0
> <PUBCHEM_ISOTOPIC_ATOM_COUNT>
0
> <PUBCHEM_COMPONENT_COUNT>
1
> <PUBCHEM_CACTVS_TAUTO_COUNT>
-1
> <PUBCHEM_COORDINATE_TYPE>
1
5
255
> <PUBCHEM_BONDANNOTATIONS>
11  12  8
11  14  8
12  15  8
14  17  8
15  18  8
17  18  8
4  8  3
$$$$
