501669
  -OEChem-10302200282D
 42 43  0     1  0  0  0  0  0999 V2000
    6.3981   -1.3660    0.0000 O   0  0  0  0  0  0  0  0  0  0  0  0
    6.3981    1.6340    0.0000 O   0  0  0  0  0  0  0  0  0  0  0  0
    2.8680   -1.3902    0.0000 O   0  0  0  0  0  0  0  0  0  0  0  0
    7.2641   -0.8660    0.0000 C   0  0  3  0  0  0  0  0  0  0  0  0
    8.2641   -0.8660    0.0000 C   0  0  0  0  0  0  0  0  0  0  0  0
    7.2641    0.1340    0.0000 C   0  0  0  0  0  0  0  0  0  0  0  0
    7.7641   -1.7320    0.0000 C   0  0  0  0  0  0  0  0  0  0  0  0
    8.7641    0.0000    0.0000 C   0  0  0  0  0  0  0  0  0  0  0  0
    6.3981    0.6340    0.0000 C   0  0  0  0  0  0  0  0  0  0  0  0
    5.5320   -0.8660    0.0000 C   0  0  0  0  0  0  0  0  0  0  0  0
    5.5320    0.1340    0.0000 C   0  0  0  0  0  0  0  0  0  0  0  0
    9.7641    0.0000    0.0000 C   0  0  0  0  0  0  0  0  0  0  0  0
    4.6381   -1.4007    0.0000 C   0  0  0  0  0  0  0  0  0  0  0  0
    4.6381    0.6686    0.0000 C   0  0  0  0  0  0  0  0  0  0  0  0
    3.7320   -0.8868    0.0000 C   0  0  0  0  0  0  0  0  0  0  0  0
    3.7320    0.1548    0.0000 C   0  0  0  0  0  0  0  0  0  0  0  0
   10.2641    0.8660    0.0000 C   0  0  0  0  0  0  0  0  0  0  0  0
   11.2641    0.8660    0.0000 C   0  0  0  0  0  0  0  0  0  0  0  0
    9.7641    1.7320    0.0000 C   0  0  0  0  0  0  0  0  0  0  0  0
    2.0000   -0.8935    0.0000 C   0  0  0  0  0  0  0  0  0  0  0  0
    8.1564   -1.4766    0.0000 H   0  0  0  0  0  0  0  0  0  0  0  0
    8.8467   -1.0781    0.0000 H   0  0  0  0  0  0  0  0  0  0  0  0
    7.8747    0.0263    0.0000 H   0  0  0  0  0  0  0  0  0  0  0  0
    7.4762    0.7166    0.0000 H   0  0  0  0  0  0  0  0  0  0  0  0
    7.2272   -2.0420    0.0000 H   0  0  0  0  0  0  0  0  0  0  0  0
    8.0741   -2.2690    0.0000 H   0  0  0  0  0  0  0  0  0  0  0  0
    8.3010   -1.4220    0.0000 H   0  0  0  0  0  0  0  0  0  0  0  0
    8.8718    0.6106    0.0000 H   0  0  0  0  0  0  0  0  0  0  0  0
    8.1815    0.2121    0.0000 H   0  0  0  0  0  0  0  0  0  0  0  0
   10.0741   -0.5369    0.0000 H   0  0  0  0  0  0  0  0  0  0  0  0
    4.6453   -2.0206    0.0000 H   0  0  0  0  0  0  0  0  0  0  0  0
    4.6453    1.2886    0.0000 H   0  0  0  0  0  0  0  0  0  0  0  0
    3.1963    0.4669    0.0000 H   0  0  0  0  0  0  0  0  0  0  0  0
   11.2641    0.2460    0.0000 H   0  0  0  0  0  0  0  0  0  0  0  0
   11.8841    0.8660    0.0000 H   0  0  0  0  0  0  0  0  0  0  0  0
   11.2641    1.4860    0.0000 H   0  0  0  0  0  0  0  0  0  0  0  0
   10.3010    2.0420    0.0000 H   0  0  0  0  0  0  0  0  0  0  0  0
    9.4541    2.2690    0.0000 H   0  0  0  0  0  0  0  0  0  0  0  0
    9.2272    1.4220    0.0000 H   0  0  0  0  0  0  0  0  0  0  0  0
    2.3079   -0.3554    0.0000 H   0  0  0  0  0  0  0  0  0  0  0  0
    1.4619   -0.5856    0.0000 H   0  0  0  0  0  0  0  0  0  0  0  0
    1.6921   -1.4316    0.0000 H   0  0  0  0  0  0  0  0  0  0  0  0
  1  4  1  0  0  0  0
  1 10  1  0  0  0  0
  2  9  2  0  0  0  0
  3 15  1  0  0  0  0
  3 20  1  0  0  0  0
  4  5  1  0  0  0  0
  4  6  1  0  0  0  0
  4  7  1  0  0  0  0
  5  8  1  0  0  0  0
  5 21  1  0  0  0  0
  5 22  1  0  0  0  0
  6  9  1  0  0  0  0
  6 23  1  0  0  0  0
  6 24  1  0  0  0  0
  7 25  1  0  0  0  0
  7 26  1  0  0  0  0
  7 27  1  0  0  0  0
  8 12  1  0  0  0  0
  8 28  1  0  0  0  0
  8 29  1  0  0  0  0
  9 11  1  0  0  0  0
 10 11  2  0  0  0  0
 10 13  1  0  0  0  0
 11 14  1  0  0  0  0
 12 17  2  0  0  0  0
 12 30  1  0  0  0  0
 13 15  2  0  0  0  0
 13 31  1  0  0  0  0
 14 16  2  0  0  0  0
 14 32  1  0  0  0  0
 15 16  1  0  0  0  0
 16 33  1  0  0  0  0
 17 18  1  0  0  0  0
 17 19  1  0  0  0  0
 18 34  1  0  0  0  0
 18 35  1  0  0  0  0
 18 36  1  0  0  0  0
 19 37  1  0  0  0  0
 19 38  1  0  0  0  0
 19 39  1  0  0  0  0
 20 40  1  0  0  0  0
 20 41  1  0  0  0  0
 20 42  1  0  0  0  0
M  END
> <PUBCHEM_COMPOUND_CID>
501669
> <PUBCHEM_COMPOUND_CANONICALIZED>
1
> <PUBCHEM_CACTVS_COMPLEXITY>
384
> <PUBCHEM_CACTVS_HBOND_ACCEPTOR>
3
> <PUBCHEM_CACTVS_HBOND_DONOR>
0
> <PUBCHEM_CACTVS_ROTATABLE_BOND>
4
> <PUBCHEM_CACTVS_SUBSKEYS>
AAADceB4MAAAAAAAAAAAAAAAAAAAAAAAAAA0QAAAAAAAAACRAAAAGgAAAAAADESAmAIyBoAABACIAqBSAAACCAAkIAAIiAEGCMgMJzaENRqCOWCl4BUIqYeI7PzOIAAACAAIAABAAAAQABAAAAAAAAAAAA==
> <PUBCHEM_IUPAC_OPENEYE_NAME>
7-methoxy-2-methyl-2-(4-methylpent-3-enyl)chroman-4-one
> <PUBCHEM_IUPAC_CAS_NAME>
7-methoxy-2-methyl-2-(4-methylpent-3-enyl)-3,4-dihydro-2H-1-benzopyran-4-one
> <PUBCHEM_IUPAC_NAME_MARKUP>
7-methoxy-2-methyl-2-(4-methylpent-3-enyl)-3<I>H</I>-chromen-4-one
> <PUBCHEM_IUPAC_NAME>
7-methoxy-2-methyl-2-(4-methylpent-3-enyl)-3H-chromen-4-one
> <PUBCHEM_IUPAC_SYSTEMATIC_NAME>
7-methoxy-2-methyl-2-(4-methylpent-3-enyl)-3H-chromen-4-one
> <PUBCHEM_IUPAC_TRADITIONAL_NAME>
7-methoxy-2-methyl-2-(4-methylpent-3-enyl)chroman-4-one
> <PUBCHEM_IUPAC_INCHI>
InChI=1S/C17H22O3/c1-12(2)6-5-9-17(3)11-15(18)14-8-7-13(19-4)10-16(14)20-17/h6-8,10H,5,9,11H2,1-4H3
> <PUBCHEM_IUPAC_INCHIKEY>
PTLCCRHMOFLHDL-UHFFFAOYSA-N
> <PUBCHEM_XLOGP3_AA>
3.9
> <PUBCHEM_EXACT_MASS>
274.15689456
> <PUBCHEM_MOLECULAR_FORMULA>
C17H22O3
> <PUBCHEM_MOLECULAR_WEIGHT>
274.35
> <PUBCHEM_OPENEYE_CAN_SMILES>
CC(=CCCC1(CC(=O)C2=C(O1)C=C(C=C2)OC)C)C
> <PUBCHEM_OPENEYE_ISO_SMILES>
CC(=CCCC1(CC(=O)C2=C(O1)C=C(C=C2)OC)C)C
> <PUBCHEM_CACTVS_TPSA>
35.5
> <PUBCHEM_MONOISOTOPIC_WEIGHT>
274.15689456
> <PUBCHEM_TOTAL_CHARGE>
0
> <PUBCHEM_HEAVY_ATOM_COUNT>
20
> <PUBCHEM_ATOM_DEF_STEREO_COUNT>
0
> <PUBCHEM_ATOM_UDEF_STEREO_COUNT>
1
> <PUBCHEM_BOND_DEF_STEREO_COUNT>
0
> <PUBCHEM_BOND_UDEF_STEREO_COUNT>
0
> <PUBCHEM_ISOTOPIC_ATOM_COUNT>
0
> <PUBCHEM_COMPONENT_COUNT>
1
> <PUBCHEM_CACTVS_TAUTO_COUNT>
-1
> <PUBCHEM_COORDINATE_TYPE>
1
5
255
> <PUBCHEM_BONDANNOTATIONS>
10  11  8
10  13  8
11  14  8
13  15  8
14  16  8
15  16  8
4  7  3
$$$$
