501776
  -OEChem-10302200282D
 88 90  0     1  0  0  0  0  0999 V2000
    6.3301    4.3450    0.0000 O   0  0  0  0  0  0  0  0  0  0  0  0
    8.0622    0.3450    0.0000 O   0  0  0  0  0  0  0  0  0  0  0  0
    5.4641   -0.1550    0.0000 O   0  0  0  0  0  0  0  0  0  0  0  0
    4.5981    0.3450    0.0000 O   0  0  0  0  0  0  0  0  0  0  0  0
    8.9282   -0.1550    0.0000 O   0  0  0  0  0  0  0  0  0  0  0  0
   11.5263    0.3450    0.0000 O   0  0  0  0  0  0  0  0  0  0  0  0
   11.5263   -2.6550    0.0000 O   0  0  0  0  0  0  0  0  0  0  0  0
    9.7942    0.3450    0.0000 O   0  0  0  0  0  0  0  0  0  0  0  0
    6.3301    1.3450    0.0000 N   0  0  0  0  0  0  0  0  0  0  0  0
    3.7320    1.8450    0.0000 N   0  0  0  0  0  0  0  0  0  0  0  0
    8.0622   -1.6550    0.0000 N   0  0  0  0  0  0  0  0  0  0  0  0
   10.6603   -1.1550    0.0000 N   0  0  0  0  0  0  0  0  0  0  0  0
   10.6603   -4.1550    0.0000 N   0  0  0  0  0  0  0  0  0  0  0  0
    5.4641    1.8450    0.0000 C   0  0  1  0  0  0  0  0  0  0  0  0
    5.4641    2.8450    0.0000 C   0  0  0  0  0  0  0  0  0  0  0  0
    6.3301    3.3450    0.0000 C   0  0  2  0  0  0  0  0  0  0  0  0
    7.1962    2.8450    0.0000 C   0  0  0  0  0  0  0  0  0  0  0  0
    7.1962    1.8450    0.0000 C   0  0  0  0  0  0  0  0  0  0  0  0
    6.3301    0.3450    0.0000 C   0  0  0  0  0  0  0  0  0  0  0  0
    4.5981    1.3450    0.0000 C   0  0  0  0  0  0  0  0  0  0  0  0
    7.1962   -0.1550    0.0000 C   0  0  2  0  0  0  0  0  0  0  0  0
    7.1962   -1.1550    0.0000 C   0  0  2  0  0  0  0  0  0  0  0  0
    2.8660    1.3450    0.0000 C   0  0  0  0  0  0  0  0  0  0  0  0
    6.3301   -1.6550    0.0000 C   0  0  0  0  0  0  0  0  0  0  0  0
    2.0000    0.8450    0.0000 C   0  0  0  0  0  0  0  0  0  0  0  0
    2.3660    2.2110    0.0000 C   0  0  0  0  0  0  0  0  0  0  0  0
    3.3660    0.4790    0.0000 C   0  0  0  0  0  0  0  0  0  0  0  0
    6.3301   -2.6550    0.0000 C   0  0  0  0  0  0  0  0  0  0  0  0
    8.9282   -1.1550    0.0000 C   0  0  0  0  0  0  0  0  0  0  0  0
    9.7942   -1.6550    0.0000 C   0  0  2  0  0  0  0  0  0  0  0  0
    7.1962   -3.1550    0.0000 C   0  0  0  0  0  0  0  0  0  0  0  0
    5.4641   -3.1550    0.0000 C   0  0  0  0  0  0  0  0  0  0  0  0
    9.7942   -2.6550    0.0000 C   0  0  0  0  0  0  0  0  0  0  0  0
    7.1962   -4.1550    0.0000 C   0  0  0  0  0  0  0  0  0  0  0  0
    5.4641   -4.1550    0.0000 C   0  0  0  0  0  0  0  0  0  0  0  0
    6.3301   -4.6550    0.0000 C   0  0  0  0  0  0  0  0  0  0  0  0
   10.6603   -3.1550    0.0000 C   0  0  0  0  0  0  0  0  0  0  0  0
   10.6603   -0.1550    0.0000 C   0  0  0  0  0  0  0  0  0  0  0  0
   11.5263    1.3450    0.0000 C   0  0  0  0  0  0  0  0  0  0  0  0
   12.3923    1.8450    0.0000 C   0  0  0  0  0  0  0  0  0  0  0  0
   13.2583    1.3450    0.0000 C   0  0  0  0  0  0  0  0  0  0  0  0
   12.3923    2.8450    0.0000 C   0  0  0  0  0  0  0  0  0  0  0  0
   14.1244    1.8450    0.0000 C   0  0  0  0  0  0  0  0  0  0  0  0
   13.2583    3.3450    0.0000 C   0  0  0  0  0  0  0  0  0  0  0  0
   14.1244    2.8450    0.0000 C   0  0  0  0  0  0  0  0  0  0  0  0
    5.4641    1.2250    0.0000 H   0  0  0  0  0  0  0  0  0  0  0  0
    5.2520    3.4276    0.0000 H   0  0  0  0  0  0  0  0  0  0  0  0
    4.8535    2.7373    0.0000 H   0  0  0  0  0  0  0  0  0  0  0  0
    6.8671    3.6550    0.0000 H   0  0  0  0  0  0  0  0  0  0  0  0
    7.8067    2.7373    0.0000 H   0  0  0  0  0  0  0  0  0  0  0  0
    7.4082    3.4276    0.0000 H   0  0  0  0  0  0  0  0  0  0  0  0
    7.4082    1.2624    0.0000 H   0  0  0  0  0  0  0  0  0  0  0  0
    7.8067    1.9527    0.0000 H   0  0  0  0  0  0  0  0  0  0  0  0
    7.1962    0.4650    0.0000 H   0  0  0  0  0  0  0  0  0  0  0  0
    7.7331   -0.8450    0.0000 H   0  0  0  0  0  0  0  0  0  0  0  0
    3.7320    2.4650    0.0000 H   0  0  0  0  0  0  0  0  0  0  0  0
    6.8671    4.6550    0.0000 H   0  0  0  0  0  0  0  0  0  0  0  0
    6.1181   -1.0724    0.0000 H   0  0  0  0  0  0  0  0  0  0  0  0
    5.7196   -1.7627    0.0000 H   0  0  0  0  0  0  0  0  0  0  0  0
    8.0622   -2.2750    0.0000 H   0  0  0  0  0  0  0  0  0  0  0  0
    1.6900    1.3819    0.0000 H   0  0  0  0  0  0  0  0  0  0  0  0
    1.4631    0.5350    0.0000 H   0  0  0  0  0  0  0  0  0  0  0  0
    2.3100    0.3081    0.0000 H   0  0  0  0  0  0  0  0  0  0  0  0
    2.9030    2.5210    0.0000 H   0  0  0  0  0  0  0  0  0  0  0  0
    2.0560    2.7480    0.0000 H   0  0  0  0  0  0  0  0  0  0  0  0
    1.8291    1.9010    0.0000 H   0  0  0  0  0  0  0  0  0  0  0  0
    2.8291    0.1690    0.0000 H   0  0  0  0  0  0  0  0  0  0  0  0
    3.6760   -0.0580    0.0000 H   0  0  0  0  0  0  0  0  0  0  0  0
    3.9030    0.7890    0.0000 H   0  0  0  0  0  0  0  0  0  0  0  0
    8.0622    0.9650    0.0000 H   0  0  0  0  0  0  0  0  0  0  0  0
    9.7942   -1.0350    0.0000 H   0  0  0  0  0  0  0  0  0  0  0  0
    7.7331   -2.8450    0.0000 H   0  0  0  0  0  0  0  0  0  0  0  0
    4.9272   -2.8450    0.0000 H   0  0  0  0  0  0  0  0  0  0  0  0
    9.1836   -2.5473    0.0000 H   0  0  0  0  0  0  0  0  0  0  0  0
    9.5822   -3.2376    0.0000 H   0  0  0  0  0  0  0  0  0  0  0  0
   11.1972   -1.4650    0.0000 H   0  0  0  0  0  0  0  0  0  0  0  0
    7.7331   -4.4650    0.0000 H   0  0  0  0  0  0  0  0  0  0  0  0
    4.9272   -4.4650    0.0000 H   0  0  0  0  0  0  0  0  0  0  0  0
    6.3301   -5.2750    0.0000 H   0  0  0  0  0  0  0  0  0  0  0  0
   11.1972   -4.4650    0.0000 H   0  0  0  0  0  0  0  0  0  0  0  0
   10.1233   -4.4650    0.0000 H   0  0  0  0  0  0  0  0  0  0  0  0
   11.3142    1.9276    0.0000 H   0  0  0  0  0  0  0  0  0  0  0  0
   10.9157    1.2373    0.0000 H   0  0  0  0  0  0  0  0  0  0  0  0
   13.2583    0.7250    0.0000 H   0  0  0  0  0  0  0  0  0  0  0  0
   11.8554    3.1550    0.0000 H   0  0  0  0  0  0  0  0  0  0  0  0
   14.6613    1.5350    0.0000 H   0  0  0  0  0  0  0  0  0  0  0  0
   13.2583    3.9650    0.0000 H   0  0  0  0  0  0  0  0  0  0  0  0
   14.6613    3.1550    0.0000 H   0  0  0  0  0  0  0  0  0  0  0  0
 16  1  1  1  0  0  0
  1 57  1  0  0  0  0
 21  2  1  1  0  0  0
  2 70  1  0  0  0  0
  3 19  2  0  0  0  0
  4 20  2  0  0  0  0
  5 29  2  0  0  0  0
  6 38  1  0  0  0  0
  6 39  1  0  0  0  0
  7 37  2  0  0  0  0
  8 38  2  0  0  0  0
  9 14  1  0  0  0  0
  9 18  1  0  0  0  0
  9 19  1  0  0  0  0
 10 20  1  0  0  0  0
 10 23  1  0  0  0  0
 10 56  1  0  0  0  0
 22 11  1  1  0  0  0
 11 29  1  0  0  0  0
 11 60  1  0  0  0  0
 30 12  1  1  0  0  0
 12 38  1  0  0  0  0
 12 76  1  0  0  0  0
 13 37  1  0  0  0  0
 13 80  1  0  0  0  0
 13 81  1  0  0  0  0
 14 15  1  0  0  0  0
 14 20  1  6  0  0  0
 14 46  1  0  0  0  0
 15 16  1  0  0  0  0
 15 47  1  0  0  0  0
 15 48  1  0  0  0  0
 16 17  1  0  0  0  0
 16 49  1  0  0  0  0
 17 18  1  0  0  0  0
 17 50  1  0  0  0  0
 17 51  1  0  0  0  0
 18 52  1  0  0  0  0
 18 53  1  0  0  0  0
 19 21  1  0  0  0  0
 21 22  1  0  0  0  0
 21 54  1  0  0  0  0
 22 24  1  0  0  0  0
 22 55  1  0  0  0  0
 23 25  1  0  0  0  0
 23 26  1  0  0  0  0
 23 27  1  0  0  0  0
 24 28  1  0  0  0  0
 24 58  1  0  0  0  0
 24 59  1  0  0  0  0
 25 61  1  0  0  0  0
 25 62  1  0  0  0  0
 25 63  1  0  0  0  0
 26 64  1  0  0  0  0
 26 65  1  0  0  0  0
 26 66  1  0  0  0  0
 27 67  1  0  0  0  0
 27 68  1  0  0  0  0
 27 69  1  0  0  0  0
 28 31  2  0  0  0  0
 28 32  1  0  0  0  0
 29 30  1  0  0  0  0
 30 33  1  0  0  0  0
 30 71  1  0  0  0  0
 31 34  1  0  0  0  0
 31 72  1  0  0  0  0
 32 35  2  0  0  0  0
 32 73  1  0  0  0  0
 33 37  1  0  0  0  0
 33 74  1  0  0  0  0
 33 75  1  0  0  0  0
 34 36  2  0  0  0  0
 34 77  1  0  0  0  0
 35 36  1  0  0  0  0
 35 78  1  0  0  0  0
 36 79  1  0  0  0  0
 39 40  1  0  0  0  0
 39 82  1  0  0  0  0
 39 83  1  0  0  0  0
 40 41  2  0  0  0  0
 40 42  1  0  0  0  0
 41 43  1  0  0  0  0
 41 84  1  0  0  0  0
 42 44  2  0  0  0  0
 42 85  1  0  0  0  0
 43 45  2  0  0  0  0
 43 86  1  0  0  0  0
 44 45  1  0  0  0  0
 44 87  1  0  0  0  0
 45 88  1  0  0  0  0
M  END
> <PUBCHEM_COMPOUND_CID>
501776
> <PUBCHEM_COMPOUND_CANONICALIZED>
1
> <PUBCHEM_CACTVS_COMPLEXITY>
1020
> <PUBCHEM_CACTVS_HBOND_ACCEPTOR>
8
> <PUBCHEM_CACTVS_HBOND_DONOR>
6
> <PUBCHEM_CACTVS_ROTATABLE_BOND>
14
> <PUBCHEM_CACTVS_SUBSKEYS>
AAADcfB/vAAAAAAAAAAAAAAAAAAAAAAAAAA8YIAAAAAAAAABQAAAHgAQCAAADLzhmAYyCIPABgCIAiFSGAICAAAgAAAIiIHICIkKdjqA8TmccAAm1gGYqAe/yKCOAAAAAAAAAAAAAAAAAAAAAAAAAAAAAA==
> <PUBCHEM_IUPAC_OPENEYE_NAME>
benzyl N-[(1S)-3-amino-1-[[(1S,2S)-1-benzyl-3-[(2S,4S)-2-(tert-butylcarbamoyl)-4-hydroxy-1-piperidyl]-2-hydroxy-3-oxo-propyl]carbamoyl]-3-oxo-propyl]carbamate
> <PUBCHEM_IUPAC_CAS_NAME>
N-[(2S)-4-amino-1-[[(2S,3S)-4-[(2S,4S)-2-[(tert-butylamino)-oxomethyl]-4-hydroxy-1-piperidinyl]-3-hydroxy-4-oxo-1-phenylbutan-2-yl]amino]-1,4-dioxobutan-2-yl]carbamic acid (phenylmethyl) ester
> <PUBCHEM_IUPAC_NAME_MARKUP>
benzyl <I>N</I>-[(2<I>S</I>)-4-amino-1-[[(2<I>S</I>,3<I>S</I>)-4-[(2<I>S</I>,4<I>S</I>)-2-(<I>tert</I>-butylcarbamoyl)-4-hydroxypiperidin-1-yl]-3-hydroxy-4-oxo-1-phenylbutan-2-yl]amino]-1,4-dioxobutan-2-yl]carbamate
> <PUBCHEM_IUPAC_NAME>
benzyl N-[(2S)-4-amino-1-[[(2S,3S)-4-[(2S,4S)-2-(tert-butylcarbamoyl)-4-hydroxypiperidin-1-yl]-3-hydroxy-4-oxo-1-phenylbutan-2-yl]amino]-1,4-dioxobutan-2-yl]carbamate
> <PUBCHEM_IUPAC_SYSTEMATIC_NAME>
(phenylmethyl) N-[(2S)-4-azanyl-1-[[(2S,3S)-4-[(2S,4S)-2-(tert-butylcarbamoyl)-4-oxidanyl-piperidin-1-yl]-3-oxidanyl-4-oxidanylidene-1-phenyl-butan-2-yl]amino]-1,4-bis(oxidanylidene)butan-2-yl]carbamate
> <PUBCHEM_IUPAC_TRADITIONAL_NAME>
N-[(1S)-3-amino-1-[[(1S,2S)-1-benzyl-3-[(2S,4S)-2-(tert-butylcarbamoyl)-4-hydroxy-piperidino]-2-hydroxy-3-keto-propyl]carbamoyl]-3-keto-propyl]carbamic acid benzyl ester
> <PUBCHEM_IUPAC_INCHI>
InChI=1S/C32H43N5O8/c1-32(2,3)36-29(42)25-17-22(38)14-15-37(25)30(43)27(40)23(16-20-10-6-4-7-11-20)34-28(41)24(18-26(33)39)35-31(44)45-19-21-12-8-5-9-13-21/h4-13,22-25,27,38,40H,14-19H2,1-3H3,(H2,33,39)(H,34,41)(H,35,44)(H,36,42)/t22-,23-,24-,25-,27-/m0/s1
> <PUBCHEM_IUPAC_INCHIKEY>
JUGVARLPWNOOFQ-CPHHOOCTSA-N
> <PUBCHEM_XLOGP3_AA>
0.8
> <PUBCHEM_EXACT_MASS>
625.31116335
> <PUBCHEM_MOLECULAR_FORMULA>
C32H43N5O8
> <PUBCHEM_MOLECULAR_WEIGHT>
625.7
> <PUBCHEM_OPENEYE_CAN_SMILES>
CC(C)(C)NC(=O)C1CC(CCN1C(=O)C(C(CC2=CC=CC=C2)NC(=O)C(CC(=O)N)NC(=O)OCC3=CC=CC=C3)O)O
> <PUBCHEM_OPENEYE_ISO_SMILES>
CC(C)(C)NC(=O)[C@@H]1C[C@H](CCN1C(=O)[C@H]([C@H](CC2=CC=CC=C2)NC(=O)[C@H](CC(=O)N)NC(=O)OCC3=CC=CC=C3)O)O
> <PUBCHEM_CACTVS_TPSA>
200
> <PUBCHEM_MONOISOTOPIC_WEIGHT>
625.31116335
> <PUBCHEM_TOTAL_CHARGE>
0
> <PUBCHEM_HEAVY_ATOM_COUNT>
45
> <PUBCHEM_ATOM_DEF_STEREO_COUNT>
5
> <PUBCHEM_ATOM_UDEF_STEREO_COUNT>
0
> <PUBCHEM_BOND_DEF_STEREO_COUNT>
0
> <PUBCHEM_BOND_UDEF_STEREO_COUNT>
0
> <PUBCHEM_ISOTOPIC_ATOM_COUNT>
0
> <PUBCHEM_COMPONENT_COUNT>
1
> <PUBCHEM_CACTVS_TAUTO_COUNT>
-1
> <PUBCHEM_COORDINATE_TYPE>
1
5
255
> <PUBCHEM_BONDANNOTATIONS>
16  1  5
22  11  5
30  12  5
14  20  6
21  2  5
28  31  8
28  32  8
31  34  8
32  35  8
34  36  8
35  36  8
40  41  8
40  42  8
41  43  8
42  44  8
43  45  8
44  45  8
$$$$
