501733
  -OEChem-10302200282D
 92 94  0     1  0  0  0  0  0999 V2000
    8.7768    1.1575    0.0000 O   0  0  0  0  0  0  0  0  0  0  0  0
   12.4768    0.8569    0.0000 O   0  0  0  0  0  0  0  0  0  0  0  0
    9.8788    0.3569    0.0000 O   0  0  0  0  0  0  0  0  0  0  0  0
    6.7553    4.1431    0.0000 O   0  0  0  0  0  0  0  0  0  0  0  0
   14.2089   -1.1431    0.0000 O   0  0  0  0  0  0  0  0  0  0  0  0
   13.3429    0.3569    0.0000 O   0  0  0  0  0  0  0  0  0  0  0  0
   10.7448    1.8569    0.0000 N   0  0  0  0  0  0  0  0  0  0  0  0
    5.5963    2.8559    0.0000 N   0  0  0  0  0  0  0  0  0  0  0  0
    8.2416    2.8048    0.0000 N   0  0  0  0  0  0  0  0  0  0  0  0
   12.4768   -1.1431    0.0000 N   0  0  0  0  0  0  0  0  0  0  0  0
    3.9021    3.2160    0.0000 C   0  0  0  0  0  0  0  0  0  0  0  0
    3.6942    2.2379    0.0000 C   0  0  0  0  0  0  0  0  0  0  0  0
    3.1590    3.8852    0.0000 C   0  0  0  0  0  0  0  0  0  0  0  0
    9.9358    2.4447    0.0000 C   0  0  1  0  0  0  0  0  0  0  0  0
    2.7431    1.9289    0.0000 C   0  0  0  0  0  0  0  0  0  0  0  0
    2.2079    3.5761    0.0000 C   0  0  0  0  0  0  0  0  0  0  0  0
    2.0000    2.5980    0.0000 C   0  0  0  0  0  0  0  0  0  0  0  0
   10.2448    3.3958    0.0000 C   0  0  0  0  0  0  0  0  0  0  0  0
    4.8532    3.5250    0.0000 C   0  0  0  0  0  0  0  0  0  0  0  0
   11.2448    3.3958    0.0000 C   0  0  0  0  0  0  0  0  0  0  0  0
   11.5538    2.4447    0.0000 C   0  0  0  0  0  0  0  0  0  0  0  0
    7.2905    2.4958    0.0000 C   0  0  1  0  0  0  0  0  0  0  0  0
    8.9847    2.1357    0.0000 C   0  0  0  0  0  0  0  0  0  0  0  0
   10.7448    0.8569    0.0000 C   0  0  0  0  0  0  0  0  0  0  0  0
    7.0826    1.5176    0.0000 C   0  0  0  0  0  0  0  0  0  0  0  0
   11.6108    0.3569    0.0000 C   0  0  2  0  0  0  0  0  0  0  0  0
    6.5474    3.1649    0.0000 C   0  0  0  0  0  0  0  0  0  0  0  0
   11.6108   -0.6431    0.0000 C   0  0  2  0  0  0  0  0  0  0  0  0
   10.7448   -1.1431    0.0000 C   0  0  0  0  0  0  0  0  0  0  0  0
    6.1316    1.2086    0.0000 C   0  0  0  0  0  0  0  0  0  0  0  0
    7.8258    0.8485    0.0000 C   0  0  0  0  0  0  0  0  0  0  0  0
   10.7448   -2.1431    0.0000 C   0  0  0  0  0  0  0  0  0  0  0  0
   13.3429   -0.6431    0.0000 C   0  0  0  0  0  0  0  0  0  0  0  0
   11.6108   -2.6431    0.0000 C   0  0  0  0  0  0  0  0  0  0  0  0
    9.8788   -2.6431    0.0000 C   0  0  0  0  0  0  0  0  0  0  0  0
   15.0749   -0.6431    0.0000 C   0  0  0  0  0  0  0  0  0  0  0  0
   11.6108   -3.6431    0.0000 C   0  0  0  0  0  0  0  0  0  0  0  0
    9.8788   -3.6431    0.0000 C   0  0  0  0  0  0  0  0  0  0  0  0
   10.7448   -4.1431    0.0000 C   0  0  0  0  0  0  0  0  0  0  0  0
   15.9409   -0.1431    0.0000 C   0  0  0  0  0  0  0  0  0  0  0  0
   15.5749   -1.5091    0.0000 C   0  0  0  0  0  0  0  0  0  0  0  0
   14.5749    0.2229    0.0000 C   0  0  0  0  0  0  0  0  0  0  0  0
    4.0310    3.8225    0.0000 H   0  0  0  0  0  0  0  0  0  0  0  0
    3.7805    1.6239    0.0000 H   0  0  0  0  0  0  0  0  0  0  0  0
    4.3138    2.2162    0.0000 H   0  0  0  0  0  0  0  0  0  0  0  0
    3.6475    4.2669    0.0000 H   0  0  0  0  0  0  0  0  0  0  0  0
    2.8679    4.4326    0.0000 H   0  0  0  0  0  0  0  0  0  0  0  0
    9.8388    1.8323    0.0000 H   0  0  0  0  0  0  0  0  0  0  0  0
    2.2546    1.5472    0.0000 H   0  0  0  0  0  0  0  0  0  0  0  0
    3.0342    1.3814    0.0000 H   0  0  0  0  0  0  0  0  0  0  0  0
    2.1216    4.1901    0.0000 H   0  0  0  0  0  0  0  0  0  0  0  0
    1.5883    3.5978    0.0000 H   0  0  0  0  0  0  0  0  0  0  0  0
    1.4252    2.8302    0.0000 H   0  0  0  0  0  0  0  0  0  0  0  0
    1.6714    2.0722    0.0000 H   0  0  0  0  0  0  0  0  0  0  0  0
   10.3096    4.0124    0.0000 H   0  0  0  0  0  0  0  0  0  0  0  0
    9.6383    3.5247    0.0000 H   0  0  0  0  0  0  0  0  0  0  0  0
    5.3417    3.9068    0.0000 H   0  0  0  0  0  0  0  0  0  0  0  0
    4.5621    4.0725    0.0000 H   0  0  0  0  0  0  0  0  0  0  0  0
   11.8512    3.5247    0.0000 H   0  0  0  0  0  0  0  0  0  0  0  0
   11.1800    4.0124    0.0000 H   0  0  0  0  0  0  0  0  0  0  0  0
   11.8638    1.9078    0.0000 H   0  0  0  0  0  0  0  0  0  0  0  0
   12.1202    2.6969    0.0000 H   0  0  0  0  0  0  0  0  0  0  0  0
    7.7513    2.0809    0.0000 H   0  0  0  0  0  0  0  0  0  0  0  0
    5.4674    2.2495    0.0000 H   0  0  0  0  0  0  0  0  0  0  0  0
    8.3705    3.4113    0.0000 H   0  0  0  0  0  0  0  0  0  0  0  0
    6.6218    1.9325    0.0000 H   0  0  0  0  0  0  0  0  0  0  0  0
   11.6108    0.9769    0.0000 H   0  0  0  0  0  0  0  0  0  0  0  0
   12.1478   -0.3331    0.0000 H   0  0  0  0  0  0  0  0  0  0  0  0
   10.5327   -0.5605    0.0000 H   0  0  0  0  0  0  0  0  0  0  0  0
   10.1342   -1.2507    0.0000 H   0  0  0  0  0  0  0  0  0  0  0  0
    5.9400    1.7983    0.0000 H   0  0  0  0  0  0  0  0  0  0  0  0
    5.5419    1.0170    0.0000 H   0  0  0  0  0  0  0  0  0  0  0  0
    6.3231    0.6190    0.0000 H   0  0  0  0  0  0  0  0  0  0  0  0
    7.4109    0.3878    0.0000 H   0  0  0  0  0  0  0  0  0  0  0  0
    8.2865    0.4337    0.0000 H   0  0  0  0  0  0  0  0  0  0  0  0
    8.2406    1.3093    0.0000 H   0  0  0  0  0  0  0  0  0  0  0  0
   12.4768   -1.7631    0.0000 H   0  0  0  0  0  0  0  0  0  0  0  0
   12.4768    1.4769    0.0000 H   0  0  0  0  0  0  0  0  0  0  0  0
   12.1478   -2.3331    0.0000 H   0  0  0  0  0  0  0  0  0  0  0  0
    9.3418   -2.3331    0.0000 H   0  0  0  0  0  0  0  0  0  0  0  0
   12.1478   -3.9531    0.0000 H   0  0  0  0  0  0  0  0  0  0  0  0
    9.3418   -3.9531    0.0000 H   0  0  0  0  0  0  0  0  0  0  0  0
   10.7448   -4.7631    0.0000 H   0  0  0  0  0  0  0  0  0  0  0  0
   16.2509   -0.6800    0.0000 H   0  0  0  0  0  0  0  0  0  0  0  0
   16.4779    0.1669    0.0000 H   0  0  0  0  0  0  0  0  0  0  0  0
   15.6309    0.3939    0.0000 H   0  0  0  0  0  0  0  0  0  0  0  0
   15.0380   -1.8191    0.0000 H   0  0  0  0  0  0  0  0  0  0  0  0
   15.8849   -2.0460    0.0000 H   0  0  0  0  0  0  0  0  0  0  0  0
   16.1119   -1.1991    0.0000 H   0  0  0  0  0  0  0  0  0  0  0  0
   15.1119    0.5329    0.0000 H   0  0  0  0  0  0  0  0  0  0  0  0
   14.2649    0.7599    0.0000 H   0  0  0  0  0  0  0  0  0  0  0  0
   14.0380   -0.0871    0.0000 H   0  0  0  0  0  0  0  0  0  0  0  0
  1 23  2  0  0  0  0
 26  2  1  1  0  0  0
  2 78  1  0  0  0  0
  3 24  2  0  0  0  0
  4 27  2  0  0  0  0
  5 33  1  0  0  0  0
  5 36  1  0  0  0  0
  6 33  2  0  0  0  0
  7 14  1  0  0  0  0
  7 21  1  0  0  0  0
  7 24  1  0  0  0  0
  8 19  1  0  0  0  0
  8 27  1  0  0  0  0
  8 64  1  0  0  0  0
 22  9  1  1  0  0  0
  9 23  1  0  0  0  0
  9 65  1  0  0  0  0
 28 10  1  1  0  0  0
 10 33  1  0  0  0  0
 10 77  1  0  0  0  0
 11 12  1  0  0  0  0
 11 13  1  0  0  0  0
 11 19  1  0  0  0  0
 11 43  1  0  0  0  0
 12 15  1  0  0  0  0
 12 44  1  0  0  0  0
 12 45  1  0  0  0  0
 13 16  1  0  0  0  0
 13 46  1  0  0  0  0
 13 47  1  0  0  0  0
 14 18  1  0  0  0  0
 14 23  1  6  0  0  0
 14 48  1  0  0  0  0
 15 17  1  0  0  0  0
 15 49  1  0  0  0  0
 15 50  1  0  0  0  0
 16 17  1  0  0  0  0
 16 51  1  0  0  0  0
 16 52  1  0  0  0  0
 17 53  1  0  0  0  0
 17 54  1  0  0  0  0
 18 20  1  0  0  0  0
 18 55  1  0  0  0  0
 18 56  1  0  0  0  0
 19 57  1  0  0  0  0
 19 58  1  0  0  0  0
 20 21  1  0  0  0  0
 20 59  1  0  0  0  0
 20 60  1  0  0  0  0
 21 61  1  0  0  0  0
 21 62  1  0  0  0  0
 22 25  1  0  0  0  0
 22 27  1  0  0  0  0
 22 63  1  0  0  0  0
 24 26  1  0  0  0  0
 25 30  1  0  0  0  0
 25 31  1  0  0  0  0
 25 66  1  0  0  0  0
 26 28  1  0  0  0  0
 26 67  1  0  0  0  0
 28 29  1  0  0  0  0
 28 68  1  0  0  0  0
 29 32  1  0  0  0  0
 29 69  1  0  0  0  0
 29 70  1  0  0  0  0
 30 71  1  0  0  0  0
 30 72  1  0  0  0  0
 30 73  1  0  0  0  0
 31 74  1  0  0  0  0
 31 75  1  0  0  0  0
 31 76  1  0  0  0  0
 32 34  2  0  0  0  0
 32 35  1  0  0  0  0
 34 37  1  0  0  0  0
 34 79  1  0  0  0  0
 35 38  2  0  0  0  0
 35 80  1  0  0  0  0
 36 40  1  0  0  0  0
 36 41  1  0  0  0  0
 36 42  1  0  0  0  0
 37 39  2  0  0  0  0
 37 81  1  0  0  0  0
 38 39  1  0  0  0  0
 38 82  1  0  0  0  0
 39 83  1  0  0  0  0
 40 84  1  0  0  0  0
 40 85  1  0  0  0  0
 40 86  1  0  0  0  0
 41 87  1  0  0  0  0
 41 88  1  0  0  0  0
 41 89  1  0  0  0  0
 42 90  1  0  0  0  0
 42 91  1  0  0  0  0
 42 92  1  0  0  0  0
M  END
> <PUBCHEM_COMPOUND_CID>
501733
> <PUBCHEM_COMPOUND_CANONICALIZED>
1
> <PUBCHEM_CACTVS_COMPLEXITY>
907
> <PUBCHEM_CACTVS_HBOND_ACCEPTOR>
6
> <PUBCHEM_CACTVS_HBOND_DONOR>
4
> <PUBCHEM_CACTVS_ROTATABLE_BOND>
13
> <PUBCHEM_CACTVS_SUBSKEYS>
AAADcfB/uAAAAAAAAAAAAAAAAAAAAWAAAAAwYAAAAAAAAAABAAAAHgAQCAAADXzhmAYyCIPABgCIAiFSGAICAAAgAAAIiIHIAIkKcDqA0TGcYAAklgCYiAeYyaCOAAAAAAAAAAAAAAAAAAAAAAAAAAAAAA==
> <PUBCHEM_IUPAC_OPENEYE_NAME>
tert-butyl N-[(1S,2S)-1-benzyl-3-[(2S)-2-[[(1S)-1-(cyclohexylmethylcarbamoyl)-2-methyl-propyl]carbamoyl]pyrrolidin-1-yl]-2-hydroxy-3-oxo-propyl]carbamate
> <PUBCHEM_IUPAC_CAS_NAME>
N-[(2S,3S)-4-[(2S)-2-[[[(2S)-1-(cyclohexylmethylamino)-3-methyl-1-oxobutan-2-yl]amino]-oxomethyl]-1-pyrrolidinyl]-3-hydroxy-4-oxo-1-phenylbutan-2-yl]carbamic acid tert-butyl ester
> <PUBCHEM_IUPAC_NAME_MARKUP>
<I>tert</I>-butyl <I>N</I>-[(2<I>S</I>,3<I>S</I>)-4-[(2<I>S</I>)-2-[[(2<I>S</I>)-1-(cyclohexylmethylamino)-3-methyl-1-oxobutan-2-yl]carbamoyl]pyrrolidin-1-yl]-3-hydroxy-4-oxo-1-phenylbutan-2-yl]carbamate
> <PUBCHEM_IUPAC_NAME>
tert-butyl N-[(2S,3S)-4-[(2S)-2-[[(2S)-1-(cyclohexylmethylamino)-3-methyl-1-oxobutan-2-yl]carbamoyl]pyrrolidin-1-yl]-3-hydroxy-4-oxo-1-phenylbutan-2-yl]carbamate
> <PUBCHEM_IUPAC_SYSTEMATIC_NAME>
tert-butyl N-[(2S,3S)-4-[(2S)-2-[[(2S)-1-(cyclohexylmethylamino)-3-methyl-1-oxidanylidene-butan-2-yl]carbamoyl]pyrrolidin-1-yl]-3-oxidanyl-4-oxidanylidene-1-phenyl-butan-2-yl]carbamate
> <PUBCHEM_IUPAC_TRADITIONAL_NAME>
N-[(1S,2S)-1-benzyl-3-[(2S)-2-[[(1S)-1-(cyclohexylmethylcarbamoyl)-2-methyl-propyl]carbamoyl]pyrrolidino]-2-hydroxy-3-keto-propyl]carbamic acid tert-butyl ester
> <PUBCHEM_IUPAC_INCHI>
InChI=1S/C32H50N4O6/c1-21(2)26(29(39)33-20-23-15-10-7-11-16-23)35-28(38)25-17-12-18-36(25)30(40)27(37)24(19-22-13-8-6-9-14-22)34-31(41)42-32(3,4)5/h6,8-9,13-14,21,23-27,37H,7,10-12,15-20H2,1-5H3,(H,33,39)(H,34,41)(H,35,38)/t24-,25-,26-,27-/m0/s1
> <PUBCHEM_IUPAC_INCHIKEY>
PNEPKDYVHHTMTR-FWEHEUNISA-N
> <PUBCHEM_XLOGP3_AA>
4.8
> <PUBCHEM_EXACT_MASS>
586.37303533
> <PUBCHEM_MOLECULAR_FORMULA>
C32H50N4O6
> <PUBCHEM_MOLECULAR_WEIGHT>
586.8
> <PUBCHEM_OPENEYE_CAN_SMILES>
CC(C)C(C(=O)NCC1CCCCC1)NC(=O)C2CCCN2C(=O)C(C(CC3=CC=CC=C3)NC(=O)OC(C)(C)C)O
> <PUBCHEM_OPENEYE_ISO_SMILES>
CC(C)[C@@H](C(=O)NCC1CCCCC1)NC(=O)[C@@H]2CCCN2C(=O)[C@H]([C@H](CC3=CC=CC=C3)NC(=O)OC(C)(C)C)O
> <PUBCHEM_CACTVS_TPSA>
137
> <PUBCHEM_MONOISOTOPIC_WEIGHT>
586.37303533
> <PUBCHEM_TOTAL_CHARGE>
0
> <PUBCHEM_HEAVY_ATOM_COUNT>
42
> <PUBCHEM_ATOM_DEF_STEREO_COUNT>
4
> <PUBCHEM_ATOM_UDEF_STEREO_COUNT>
0
> <PUBCHEM_BOND_DEF_STEREO_COUNT>
0
> <PUBCHEM_BOND_UDEF_STEREO_COUNT>
0
> <PUBCHEM_ISOTOPIC_ATOM_COUNT>
0
> <PUBCHEM_COMPONENT_COUNT>
1
> <PUBCHEM_CACTVS_TAUTO_COUNT>
-1
> <PUBCHEM_COORDINATE_TYPE>
1
5
255
> <PUBCHEM_BONDANNOTATIONS>
28  10  5
14  23  6
26  2  5
32  34  8
32  35  8
34  37  8
35  38  8
37  39  8
38  39  8
22  9  5
$$$$
