501791
  -OEChem-10302200282D
 85 87  0     1  0  0  0  0  0999 V2000
    9.4702    1.0000    0.0000 O   0  0  0  0  0  0  0  0  0  0  0  0
    6.8721    0.5000    0.0000 O   0  0  0  0  0  0  0  0  0  0  0  0
    5.7702    1.3006    0.0000 O   0  0  0  0  0  0  0  0  0  0  0  0
    2.5896    2.9990    0.0000 O   0  0  0  0  0  0  0  0  0  0  0  0
   10.3362    0.5000    0.0000 O   0  0  0  0  0  0  0  0  0  0  0  0
   12.9343    1.0000    0.0000 O   0  0  0  0  0  0  0  0  0  0  0  0
   12.9343   -2.0000    0.0000 O   0  0  0  0  0  0  0  0  0  0  0  0
   11.2022    1.0000    0.0000 O   0  0  0  0  0  0  0  0  0  0  0  0
    7.7381    2.0000    0.0000 N   0  0  0  0  0  0  0  0  0  0  0  0
    5.2349    2.9479    0.0000 N   0  0  0  0  0  0  0  0  0  0  0  0
    9.4702   -1.0000    0.0000 N   0  0  0  0  0  0  0  0  0  0  0  0
   12.0683   -0.5000    0.0000 N   0  0  0  0  0  0  0  0  0  0  0  0
   12.0683   -3.5000    0.0000 N   0  0  0  0  0  0  0  0  0  0  0  0
    6.9291    2.5878    0.0000 C   0  0  1  0  0  0  0  0  0  0  0  0
    7.2381    3.5388    0.0000 C   0  0  0  0  0  0  0  0  0  0  0  0
    8.2381    3.5388    0.0000 C   0  0  0  0  0  0  0  0  0  0  0  0
    8.5472    2.5878    0.0000 C   0  0  0  0  0  0  0  0  0  0  0  0
    7.7381    1.0000    0.0000 C   0  0  0  0  0  0  0  0  0  0  0  0
    5.9781    2.2788    0.0000 C   0  0  0  0  0  0  0  0  0  0  0  0
    8.6042    0.5000    0.0000 C   0  0  2  0  0  0  0  0  0  0  0  0
    8.6042   -0.5000    0.0000 C   0  0  2  0  0  0  0  0  0  0  0  0
    4.2839    2.6389    0.0000 C   0  0  0  0  0  0  0  0  0  0  0  0
    7.7381   -1.0000    0.0000 C   0  0  0  0  0  0  0  0  0  0  0  0
    3.3328    2.3299    0.0000 C   0  0  0  0  0  0  0  0  0  0  0  0
    3.9748    3.5899    0.0000 C   0  0  0  0  0  0  0  0  0  0  0  0
    4.5929    1.6878    0.0000 C   0  0  0  0  0  0  0  0  0  0  0  0
    7.7381   -2.0000    0.0000 C   0  0  0  0  0  0  0  0  0  0  0  0
   10.3362   -0.5000    0.0000 C   0  0  0  0  0  0  0  0  0  0  0  0
   11.2022   -1.0000    0.0000 C   0  0  2  0  0  0  0  0  0  0  0  0
    8.6042   -2.5000    0.0000 C   0  0  0  0  0  0  0  0  0  0  0  0
    6.8721   -2.5000    0.0000 C   0  0  0  0  0  0  0  0  0  0  0  0
   11.2022   -2.0000    0.0000 C   0  0  0  0  0  0  0  0  0  0  0  0
    8.6042   -3.5000    0.0000 C   0  0  0  0  0  0  0  0  0  0  0  0
    6.8721   -3.5000    0.0000 C   0  0  0  0  0  0  0  0  0  0  0  0
    7.7381   -4.0000    0.0000 C   0  0  0  0  0  0  0  0  0  0  0  0
   12.0683   -2.5000    0.0000 C   0  0  0  0  0  0  0  0  0  0  0  0
   12.0683    0.5000    0.0000 C   0  0  0  0  0  0  0  0  0  0  0  0
   12.9343    2.0000    0.0000 C   0  0  0  0  0  0  0  0  0  0  0  0
   13.8003    2.5000    0.0000 C   0  0  0  0  0  0  0  0  0  0  0  0
   14.6663    2.0000    0.0000 C   0  0  0  0  0  0  0  0  0  0  0  0
   13.8003    3.5000    0.0000 C   0  0  0  0  0  0  0  0  0  0  0  0
   15.5324    2.5000    0.0000 C   0  0  0  0  0  0  0  0  0  0  0  0
   14.6663    4.0000    0.0000 C   0  0  0  0  0  0  0  0  0  0  0  0
   15.5324    3.5000    0.0000 C   0  0  0  0  0  0  0  0  0  0  0  0
    6.8321    1.9754    0.0000 H   0  0  0  0  0  0  0  0  0  0  0  0
    7.3029    4.1554    0.0000 H   0  0  0  0  0  0  0  0  0  0  0  0
    6.6317    3.6678    0.0000 H   0  0  0  0  0  0  0  0  0  0  0  0
    8.8446    3.6678    0.0000 H   0  0  0  0  0  0  0  0  0  0  0  0
    8.1733    4.1554    0.0000 H   0  0  0  0  0  0  0  0  0  0  0  0
    8.8572    2.0508    0.0000 H   0  0  0  0  0  0  0  0  0  0  0  0
    9.1136    2.8400    0.0000 H   0  0  0  0  0  0  0  0  0  0  0  0
    8.6042    1.1200    0.0000 H   0  0  0  0  0  0  0  0  0  0  0  0
    8.6042   -1.1200    0.0000 H   0  0  0  0  0  0  0  0  0  0  0  0
    5.3638    3.5544    0.0000 H   0  0  0  0  0  0  0  0  0  0  0  0
    7.5261   -0.4174    0.0000 H   0  0  0  0  0  0  0  0  0  0  0  0
    7.1276   -1.1077    0.0000 H   0  0  0  0  0  0  0  0  0  0  0  0
    9.4702   -1.6200    0.0000 H   0  0  0  0  0  0  0  0  0  0  0  0
    2.8442    1.9482    0.0000 H   0  0  0  0  0  0  0  0  0  0  0  0
    3.6239    1.7824    0.0000 H   0  0  0  0  0  0  0  0  0  0  0  0
    4.5645    3.7815    0.0000 H   0  0  0  0  0  0  0  0  0  0  0  0
    3.7832    4.1796    0.0000 H   0  0  0  0  0  0  0  0  0  0  0  0
    3.3852    3.3984    0.0000 H   0  0  0  0  0  0  0  0  0  0  0  0
    4.0032    1.4962    0.0000 H   0  0  0  0  0  0  0  0  0  0  0  0
    4.7845    1.0982    0.0000 H   0  0  0  0  0  0  0  0  0  0  0  0
    5.1825    1.8794    0.0000 H   0  0  0  0  0  0  0  0  0  0  0  0
    9.4702    1.6200    0.0000 H   0  0  0  0  0  0  0  0  0  0  0  0
   11.7392   -1.3100    0.0000 H   0  0  0  0  0  0  0  0  0  0  0  0
    9.1411   -2.1900    0.0000 H   0  0  0  0  0  0  0  0  0  0  0  0
    6.3352   -2.1900    0.0000 H   0  0  0  0  0  0  0  0  0  0  0  0
    2.0000    2.8074    0.0000 H   0  0  0  0  0  0  0  0  0  0  0  0
   10.5917   -1.8923    0.0000 H   0  0  0  0  0  0  0  0  0  0  0  0
   10.9902   -2.5826    0.0000 H   0  0  0  0  0  0  0  0  0  0  0  0
   12.6052   -0.8100    0.0000 H   0  0  0  0  0  0  0  0  0  0  0  0
    9.1411   -3.8100    0.0000 H   0  0  0  0  0  0  0  0  0  0  0  0
    6.3352   -3.8100    0.0000 H   0  0  0  0  0  0  0  0  0  0  0  0
    7.7381   -4.6200    0.0000 H   0  0  0  0  0  0  0  0  0  0  0  0
   12.6052   -3.8100    0.0000 H   0  0  0  0  0  0  0  0  0  0  0  0
   11.5313   -3.8100    0.0000 H   0  0  0  0  0  0  0  0  0  0  0  0
   12.7222    2.5826    0.0000 H   0  0  0  0  0  0  0  0  0  0  0  0
   12.3237    1.8923    0.0000 H   0  0  0  0  0  0  0  0  0  0  0  0
   14.6663    1.3800    0.0000 H   0  0  0  0  0  0  0  0  0  0  0  0
   13.2634    3.8100    0.0000 H   0  0  0  0  0  0  0  0  0  0  0  0
   16.0693    2.1900    0.0000 H   0  0  0  0  0  0  0  0  0  0  0  0
   14.6663    4.6200    0.0000 H   0  0  0  0  0  0  0  0  0  0  0  0
   16.0693    3.8100    0.0000 H   0  0  0  0  0  0  0  0  0  0  0  0
 20  1  1  1  0  0  0
  1 66  1  0  0  0  0
  2 18  2  0  0  0  0
  3 19  2  0  0  0  0
  4 24  1  0  0  0  0
  4 70  1  0  0  0  0
  5 28  2  0  0  0  0
  6 37  1  0  0  0  0
  6 38  1  0  0  0  0
  7 36  2  0  0  0  0
  8 37  2  0  0  0  0
  9 14  1  0  0  0  0
  9 17  1  0  0  0  0
  9 18  1  0  0  0  0
 10 19  1  0  0  0  0
 10 22  1  0  0  0  0
 10 54  1  0  0  0  0
 21 11  1  1  0  0  0
 11 28  1  0  0  0  0
 11 57  1  0  0  0  0
 29 12  1  1  0  0  0
 12 37  1  0  0  0  0
 12 73  1  0  0  0  0
 13 36  1  0  0  0  0
 13 77  1  0  0  0  0
 13 78  1  0  0  0  0
 14 15  1  0  0  0  0
 14 19  1  6  0  0  0
 14 45  1  0  0  0  0
 15 16  1  0  0  0  0
 15 46  1  0  0  0  0
 15 47  1  0  0  0  0
 16 17  1  0  0  0  0
 16 48  1  0  0  0  0
 16 49  1  0  0  0  0
 17 50  1  0  0  0  0
 17 51  1  0  0  0  0
 18 20  1  0  0  0  0
 20 21  1  0  0  0  0
 20 52  1  0  0  0  0
 21 23  1  0  0  0  0
 21 53  1  0  0  0  0
 22 24  1  0  0  0  0
 22 25  1  0  0  0  0
 22 26  1  0  0  0  0
 23 27  1  0  0  0  0
 23 55  1  0  0  0  0
 23 56  1  0  0  0  0
 24 58  1  0  0  0  0
 24 59  1  0  0  0  0
 25 60  1  0  0  0  0
 25 61  1  0  0  0  0
 25 62  1  0  0  0  0
 26 63  1  0  0  0  0
 26 64  1  0  0  0  0
 26 65  1  0  0  0  0
 27 30  2  0  0  0  0
 27 31  1  0  0  0  0
 28 29  1  0  0  0  0
 29 32  1  0  0  0  0
 29 67  1  0  0  0  0
 30 33  1  0  0  0  0
 30 68  1  0  0  0  0
 31 34  2  0  0  0  0
 31 69  1  0  0  0  0
 32 36  1  0  0  0  0
 32 71  1  0  0  0  0
 32 72  1  0  0  0  0
 33 35  2  0  0  0  0
 33 74  1  0  0  0  0
 34 35  1  0  0  0  0
 34 75  1  0  0  0  0
 35 76  1  0  0  0  0
 38 39  1  0  0  0  0
 38 79  1  0  0  0  0
 38 80  1  0  0  0  0
 39 40  2  0  0  0  0
 39 41  1  0  0  0  0
 40 42  1  0  0  0  0
 40 81  1  0  0  0  0
 41 43  2  0  0  0  0
 41 82  1  0  0  0  0
 42 44  2  0  0  0  0
 42 83  1  0  0  0  0
 43 44  1  0  0  0  0
 43 84  1  0  0  0  0
 44 85  1  0  0  0  0
M  END
> <PUBCHEM_COMPOUND_CID>
501791
> <PUBCHEM_COMPOUND_CANONICALIZED>
1
> <PUBCHEM_CACTVS_COMPLEXITY>
996
> <PUBCHEM_CACTVS_HBOND_ACCEPTOR>
8
> <PUBCHEM_CACTVS_HBOND_DONOR>
6
> <PUBCHEM_CACTVS_ROTATABLE_BOND>
15
> <PUBCHEM_CACTVS_SUBSKEYS>
AAADcfB7vAAAAAAAAAAAAAAAAAAAAWAAAAAwYAAAAAAAAAABQAAAHgAQCAAADLzhmAYyCIPABgCIAiFSGAICAAAgAAAIiIHICIkKdjqA8TmccAAk1gGYqAedyaCOAAAAAAAAAAAAAAAAAAAAAAAAAAAAAA==
> <PUBCHEM_IUPAC_OPENEYE_NAME>
benzyl N-[(1S)-3-amino-1-[[(1S,2S)-1-benzyl-2-hydroxy-3-[(2S)-2-[(2-hydroxy-1,1-dimethyl-ethyl)carbamoyl]pyrrolidin-1-yl]-3-oxo-propyl]carbamoyl]-3-oxo-propyl]carbamate
> <PUBCHEM_IUPAC_CAS_NAME>
N-[(2S)-4-amino-1-[[(2S,3S)-3-hydroxy-4-[(2S)-2-[[(1-hydroxy-2-methylpropan-2-yl)amino]-oxomethyl]-1-pyrrolidinyl]-4-oxo-1-phenylbutan-2-yl]amino]-1,4-dioxobutan-2-yl]carbamic acid (phenylmethyl) ester
> <PUBCHEM_IUPAC_NAME_MARKUP>
benzyl <I>N</I>-[(2<I>S</I>)-4-amino-1-[[(2<I>S</I>,3<I>S</I>)-3-hydroxy-4-[(2<I>S</I>)-2-[(1-hydroxy-2-methylpropan-2-yl)carbamoyl]pyrrolidin-1-yl]-4-oxo-1-phenylbutan-2-yl]amino]-1,4-dioxobutan-2-yl]carbamate
> <PUBCHEM_IUPAC_NAME>
benzyl N-[(2S)-4-amino-1-[[(2S,3S)-3-hydroxy-4-[(2S)-2-[(1-hydroxy-2-methylpropan-2-yl)carbamoyl]pyrrolidin-1-yl]-4-oxo-1-phenylbutan-2-yl]amino]-1,4-dioxobutan-2-yl]carbamate
> <PUBCHEM_IUPAC_SYSTEMATIC_NAME>
(phenylmethyl) N-[(2S)-4-azanyl-1-[[(2S,3S)-4-[(2S)-2-[(2-methyl-1-oxidanyl-propan-2-yl)carbamoyl]pyrrolidin-1-yl]-3-oxidanyl-4-oxidanylidene-1-phenyl-butan-2-yl]amino]-1,4-bis(oxidanylidene)butan-2-yl]carbamate
> <PUBCHEM_IUPAC_TRADITIONAL_NAME>
N-[(1S)-3-amino-1-[[(1S,2S)-1-benzyl-2-hydroxy-3-[(2S)-2-[(2-hydroxy-1,1-dimethyl-ethyl)carbamoyl]pyrrolidino]-3-keto-propyl]carbamoyl]-3-keto-propyl]carbamic acid benzyl ester
> <PUBCHEM_IUPAC_INCHI>
InChI=1S/C31H41N5O8/c1-31(2,19-37)35-28(41)24-14-9-15-36(24)29(42)26(39)22(16-20-10-5-3-6-11-20)33-27(40)23(17-25(32)38)34-30(43)44-18-21-12-7-4-8-13-21/h3-8,10-13,22-24,26,37,39H,9,14-19H2,1-2H3,(H2,32,38)(H,33,40)(H,34,43)(H,35,41)/t22-,23-,24-,26-/m0/s1
> <PUBCHEM_IUPAC_INCHIKEY>
HDNLQNNGUBCWHY-IGRGDXOOSA-N
> <PUBCHEM_XLOGP3_AA>
0.4
> <PUBCHEM_EXACT_MASS>
611.29551328
> <PUBCHEM_MOLECULAR_FORMULA>
C31H41N5O8
> <PUBCHEM_MOLECULAR_WEIGHT>
611.7
> <PUBCHEM_OPENEYE_CAN_SMILES>
CC(C)(CO)NC(=O)C1CCCN1C(=O)C(C(CC2=CC=CC=C2)NC(=O)C(CC(=O)N)NC(=O)OCC3=CC=CC=C3)O
> <PUBCHEM_OPENEYE_ISO_SMILES>
CC(C)(CO)NC(=O)[C@@H]1CCCN1C(=O)[C@H]([C@H](CC2=CC=CC=C2)NC(=O)[C@H](CC(=O)N)NC(=O)OCC3=CC=CC=C3)O
> <PUBCHEM_CACTVS_TPSA>
200
> <PUBCHEM_MONOISOTOPIC_WEIGHT>
611.29551328
> <PUBCHEM_TOTAL_CHARGE>
0
> <PUBCHEM_HEAVY_ATOM_COUNT>
44
> <PUBCHEM_ATOM_DEF_STEREO_COUNT>
4
> <PUBCHEM_ATOM_UDEF_STEREO_COUNT>
0
> <PUBCHEM_BOND_DEF_STEREO_COUNT>
0
> <PUBCHEM_BOND_UDEF_STEREO_COUNT>
0
> <PUBCHEM_ISOTOPIC_ATOM_COUNT>
0
> <PUBCHEM_COMPONENT_COUNT>
1
> <PUBCHEM_CACTVS_TAUTO_COUNT>
-1
> <PUBCHEM_COORDINATE_TYPE>
1
5
255
> <PUBCHEM_BONDANNOTATIONS>
20  1  5
21  11  5
29  12  5
14  19  6
27  30  8
27  31  8
30  33  8
31  34  8
33  35  8
34  35  8
39  40  8
39  41  8
40  42  8
41  43  8
42  44  8
43  44  8
$$$$
