501767
  -OEChem-10302200282D
115118  0     1  0  0  0  0  0999 V2000
    9.9939    2.5809    0.0000 O   0  0  0  0  0  0  0  0  0  0  0  0
   10.8600    0.0809    0.0000 O   0  0  0  0  0  0  0  0  0  0  0  0
   12.1043   -0.4731    0.0000 O   0  0  0  0  0  0  0  0  0  0  0  0
    7.7619    0.4469    0.0000 O   0  0  0  0  0  0  0  0  0  0  0  0
   15.7006   -0.7310    0.0000 O   0  0  0  0  0  0  0  0  0  0  0  0
    6.7619   -3.0172    0.0000 O   0  0  0  0  0  0  0  0  0  0  0  0
    9.4939   -2.2851    0.0000 O   0  0  0  0  0  0  0  0  0  0  0  0
   15.5812   -4.3346    0.0000 O   0  0  0  0  0  0  0  0  0  0  0  0
   11.7260    1.5809    0.0000 N   0  0  0  0  0  0  0  0  0  0  0  0
    9.1279    0.0809    0.0000 N   0  0  0  0  0  0  0  0  0  0  0  0
   13.7985   -0.1130    0.0000 N   0  0  0  0  0  0  0  0  0  0  0  0
    6.7619   -1.2851    0.0000 N   0  0  0  0  0  0  0  0  0  0  0  0
   15.1654   -2.3783    0.0000 N   0  0  0  0  0  0  0  0  0  0  0  0
    4.6783   -2.9559    0.0000 N   0  0  0  0  0  0  0  0  0  0  0  0
    8.6279   -3.7851    0.0000 N   0  0  0  0  0  0  0  0  0  0  0  0
   17.2754   -3.9745    0.0000 N   0  0  0  0  0  0  0  0  0  0  0  0
    8.2619    2.5809    0.0000 C   0  0  0  0  0  0  0  0  0  0  0  0
    8.2619    1.5809    0.0000 C   0  0  0  0  0  0  0  0  0  0  0  0
    9.1279    3.0809    0.0000 C   0  0  0  0  0  0  0  0  0  0  0  0
    7.3958    3.0809    0.0000 C   0  0  0  0  0  0  0  0  0  0  0  0
    9.1279    1.0809    0.0000 C   0  0  1  0  0  0  0  0  0  0  0  0
    9.1279    4.0809    0.0000 C   0  0  0  0  0  0  0  0  0  0  0  0
    7.3958    4.0809    0.0000 C   0  0  0  0  0  0  0  0  0  0  0  0
    8.2619    4.5809    0.0000 C   0  0  0  0  0  0  0  0  0  0  0  0
    9.9939    1.5809    0.0000 C   0  0  1  0  0  0  0  0  0  0  0  0
   12.6395    1.1742    0.0000 C   0  0  1  0  0  0  0  0  0  0  0  0
   13.3087    1.9173    0.0000 C   0  0  0  0  0  0  0  0  0  0  0  0
   11.8305    2.5754    0.0000 C   0  0  0  0  0  0  0  0  0  0  0  0
   10.8600    1.0809    0.0000 C   0  0  0  0  0  0  0  0  0  0  0  0
   12.8087    2.7834    0.0000 C   0  0  0  0  0  0  0  0  0  0  0  0
   12.8474    0.1960    0.0000 C   0  0  0  0  0  0  0  0  0  0  0  0
    8.2619   -0.4191    0.0000 C   0  0  0  0  0  0  0  0  0  0  0  0
   14.0064   -1.0911    0.0000 C   0  0  1  0  0  0  0  0  0  0  0  0
    7.7619   -1.2851    0.0000 C   0  0  2  0  0  0  0  0  0  0  0  0
   13.2633   -1.7603    0.0000 C   0  0  1  0  0  0  0  0  0  0  0  0
    7.7619   -2.2851    0.0000 C   0  0  0  0  0  0  0  0  0  0  0  0
   13.4712   -2.7384    0.0000 C   0  0  0  0  0  0  0  0  0  0  0  0
   14.9575   -1.4001    0.0000 C   0  0  0  0  0  0  0  0  0  0  0  0
   12.3122   -1.4512    0.0000 C   0  0  0  0  0  0  0  0  0  0  0  0
    5.2619   -2.1511    0.0000 C   0  0  2  0  0  0  0  0  0  0  0  0
    6.2619   -2.1511    0.0000 C   0  0  0  0  0  0  0  0  0  0  0  0
   16.1164   -2.6873    0.0000 C   0  0  1  0  0  0  0  0  0  0  0  0
   12.7280   -3.4075    0.0000 C   0  0  0  0  0  0  0  0  0  0  0  0
    4.6783   -1.3464    0.0000 C   0  0  0  0  0  0  0  0  0  0  0  0
    8.6279   -2.7851    0.0000 C   0  0  0  0  0  0  0  0  0  0  0  0
   16.8596   -2.0182    0.0000 C   0  0  0  0  0  0  0  0  0  0  0  0
    3.7320   -1.6511    0.0000 C   0  0  0  0  0  0  0  0  0  0  0  0
    3.7320   -2.6511    0.0000 C   0  0  0  0  0  0  0  0  0  0  0  0
   16.3243   -3.6654    0.0000 C   0  0  0  0  0  0  0  0  0  0  0  0
   17.8106   -2.3272    0.0000 C   0  0  0  0  0  0  0  0  0  0  0  0
   16.6517   -1.0400    0.0000 C   0  0  0  0  0  0  0  0  0  0  0  0
    2.8660   -1.1511    0.0000 C   0  0  0  0  0  0  0  0  0  0  0  0
    2.8660   -3.1511    0.0000 C   0  0  0  0  0  0  0  0  0  0  0  0
    2.0000   -1.6511    0.0000 C   0  0  0  0  0  0  0  0  0  0  0  0
    2.0000   -2.6511    0.0000 C   0  0  0  0  0  0  0  0  0  0  0  0
    8.7988    2.2709    0.0000 H   0  0  0  0  0  0  0  0  0  0  0  0
    7.6513    1.6886    0.0000 H   0  0  0  0  0  0  0  0  0  0  0  0
    8.0498    0.9983    0.0000 H   0  0  0  0  0  0  0  0  0  0  0  0
    9.3400    2.4983    0.0000 H   0  0  0  0  0  0  0  0  0  0  0  0
    9.7385    3.1886    0.0000 H   0  0  0  0  0  0  0  0  0  0  0  0
    6.7853    3.1886    0.0000 H   0  0  0  0  0  0  0  0  0  0  0  0
    7.1838    2.4983    0.0000 H   0  0  0  0  0  0  0  0  0  0  0  0
    8.5910    0.7709    0.0000 H   0  0  0  0  0  0  0  0  0  0  0  0
    9.7385    3.9733    0.0000 H   0  0  0  0  0  0  0  0  0  0  0  0
    9.3400    4.6635    0.0000 H   0  0  0  0  0  0  0  0  0  0  0  0
    7.1838    4.6635    0.0000 H   0  0  0  0  0  0  0  0  0  0  0  0
    6.7853    3.9733    0.0000 H   0  0  0  0  0  0  0  0  0  0  0  0
    8.6604    5.0559    0.0000 H   0  0  0  0  0  0  0  0  0  0  0  0
    7.8634    5.0559    0.0000 H   0  0  0  0  0  0  0  0  0  0  0  0
   10.5309    1.8909    0.0000 H   0  0  0  0  0  0  0  0  0  0  0  0
   12.1577    0.7840    0.0000 H   0  0  0  0  0  0  0  0  0  0  0  0
   13.7235    1.4566    0.0000 H   0  0  0  0  0  0  0  0  0  0  0  0
   13.8102    2.2818    0.0000 H   0  0  0  0  0  0  0  0  0  0  0  0
   11.7657    3.1920    0.0000 H   0  0  0  0  0  0  0  0  0  0  0  0
   11.2105    2.5754    0.0000 H   0  0  0  0  0  0  0  0  0  0  0  0
   13.3751    3.0355    0.0000 H   0  0  0  0  0  0  0  0  0  0  0  0
   12.6171    3.3730    0.0000 H   0  0  0  0  0  0  0  0  0  0  0  0
    9.6648   -0.2291    0.0000 H   0  0  0  0  0  0  0  0  0  0  0  0
   10.5309    2.8909    0.0000 H   0  0  0  0  0  0  0  0  0  0  0  0
   14.4672   -0.6763    0.0000 H   0  0  0  0  0  0  0  0  0  0  0  0
   14.2592    0.3019    0.0000 H   0  0  0  0  0  0  0  0  0  0  0  0
    7.4519   -0.7482    0.0000 H   0  0  0  0  0  0  0  0  0  0  0  0
   13.1344   -1.1538    0.0000 H   0  0  0  0  0  0  0  0  0  0  0  0
    7.1513   -2.1774    0.0000 H   0  0  0  0  0  0  0  0  0  0  0  0
    7.5498   -2.8677    0.0000 H   0  0  0  0  0  0  0  0  0  0  0  0
   13.7997   -3.2642    0.0000 H   0  0  0  0  0  0  0  0  0  0  0  0
   14.0460   -2.5062    0.0000 H   0  0  0  0  0  0  0  0  0  0  0  0
    6.4519   -0.7482    0.0000 H   0  0  0  0  0  0  0  0  0  0  0  0
   12.5038   -0.8616    0.0000 H   0  0  0  0  0  0  0  0  0  0  0  0
   11.7226   -1.2596    0.0000 H   0  0  0  0  0  0  0  0  0  0  0  0
   12.1206   -2.0409    0.0000 H   0  0  0  0  0  0  0  0  0  0  0  0
    5.5436   -2.7034    0.0000 H   0  0  0  0  0  0  0  0  0  0  0  0
   14.7046   -2.7931    0.0000 H   0  0  0  0  0  0  0  0  0  0  0  0
   15.9875   -2.0809    0.0000 H   0  0  0  0  0  0  0  0  0  0  0  0
   12.3132   -2.9468    0.0000 H   0  0  0  0  0  0  0  0  0  0  0  0
   12.2673   -3.8224    0.0000 H   0  0  0  0  0  0  0  0  0  0  0  0
   13.1429   -3.8683    0.0000 H   0  0  0  0  0  0  0  0  0  0  0  0
    5.2156   -1.0372    0.0000 H   0  0  0  0  0  0  0  0  0  0  0  0
    4.4272   -0.7795    0.0000 H   0  0  0  0  0  0  0  0  0  0  0  0
   16.2699   -1.8266    0.0000 H   0  0  0  0  0  0  0  0  0  0  0  0
    4.8709   -3.5452    0.0000 H   0  0  0  0  0  0  0  0  0  0  0  0
   17.6190   -2.9168    0.0000 H   0  0  0  0  0  0  0  0  0  0  0  0
   18.4003   -2.5188    0.0000 H   0  0  0  0  0  0  0  0  0  0  0  0
   18.0022   -1.7375    0.0000 H   0  0  0  0  0  0  0  0  0  0  0  0
   17.2581   -0.9111    0.0000 H   0  0  0  0  0  0  0  0  0  0  0  0
   16.5228   -0.4336    0.0000 H   0  0  0  0  0  0  0  0  0  0  0  0
   16.0452   -1.1689    0.0000 H   0  0  0  0  0  0  0  0  0  0  0  0
    2.8660   -0.5311    0.0000 H   0  0  0  0  0  0  0  0  0  0  0  0
    2.8660   -3.7711    0.0000 H   0  0  0  0  0  0  0  0  0  0  0  0
    9.1648   -4.0951    0.0000 H   0  0  0  0  0  0  0  0  0  0  0  0
    8.0910   -4.0951    0.0000 H   0  0  0  0  0  0  0  0  0  0  0  0
    1.4631   -1.3411    0.0000 H   0  0  0  0  0  0  0  0  0  0  0  0
    1.4631   -2.9611    0.0000 H   0  0  0  0  0  0  0  0  0  0  0  0
   17.4043   -4.5809    0.0000 H   0  0  0  0  0  0  0  0  0  0  0  0
   17.7361   -3.5596    0.0000 H   0  0  0  0  0  0  0  0  0  0  0  0
 25  1  1  6  0  0  0
  1 79  1  0  0  0  0
  2 29  2  0  0  0  0
  3 31  2  0  0  0  0
  4 32  2  0  0  0  0
  5 38  2  0  0  0  0
  6 41  2  0  0  0  0
  7 45  2  0  0  0  0
  8 49  2  0  0  0  0
  9 26  1  0  0  0  0
  9 28  1  0  0  0  0
  9 29  1  0  0  0  0
 21 10  1  1  0  0  0
 10 32  1  0  0  0  0
 10 78  1  0  0  0  0
 11 31  1  0  0  0  0
 33 11  1  6  0  0  0
 11 81  1  0  0  0  0
 34 12  1  6  0  0  0
 12 41  1  0  0  0  0
 12 88  1  0  0  0  0
 13 38  1  0  0  0  0
 42 13  1  1  0  0  0
 13 93  1  0  0  0  0
 14 40  1  0  0  0  0
 14 48  1  0  0  0  0
 14101  1  0  0  0  0
 15 45  1  0  0  0  0
 15110  1  0  0  0  0
 15111  1  0  0  0  0
 16 49  1  0  0  0  0
 16114  1  0  0  0  0
 16115  1  0  0  0  0
 17 18  1  0  0  0  0
 17 19  1  0  0  0  0
 17 20  1  0  0  0  0
 17 56  1  0  0  0  0
 18 21  1  0  0  0  0
 18 57  1  0  0  0  0
 18 58  1  0  0  0  0
 19 22  1  0  0  0  0
 19 59  1  0  0  0  0
 19 60  1  0  0  0  0
 20 23  1  0  0  0  0
 20 61  1  0  0  0  0
 20 62  1  0  0  0  0
 21 25  1  0  0  0  0
 21 63  1  0  0  0  0
 22 24  1  0  0  0  0
 22 64  1  0  0  0  0
 22 65  1  0  0  0  0
 23 24  1  0  0  0  0
 23 66  1  0  0  0  0
 23 67  1  0  0  0  0
 24 68  1  0  0  0  0
 24 69  1  0  0  0  0
 25 29  1  0  0  0  0
 25 70  1  0  0  0  0
 26 27  1  0  0  0  0
 26 31  1  1  0  0  0
 26 71  1  0  0  0  0
 27 30  1  0  0  0  0
 27 72  1  0  0  0  0
 27 73  1  0  0  0  0
 28 30  1  0  0  0  0
 28 74  1  0  0  0  0
 28 75  1  0  0  0  0
 30 76  1  0  0  0  0
 30 77  1  0  0  0  0
 32 34  1  0  0  0  0
 33 35  1  0  0  0  0
 33 38  1  0  0  0  0
 33 80  1  0  0  0  0
 34 36  1  0  0  0  0
 34 82  1  0  0  0  0
 35 37  1  0  0  0  0
 35 39  1  1  0  0  0
 35 83  1  0  0  0  0
 36 45  1  0  0  0  0
 36 84  1  0  0  0  0
 36 85  1  0  0  0  0
 37 43  1  0  0  0  0
 37 86  1  0  0  0  0
 37 87  1  0  0  0  0
 39 89  1  0  0  0  0
 39 90  1  0  0  0  0
 39 91  1  0  0  0  0
 40 41  1  1  0  0  0
 40 44  1  0  0  0  0
 40 92  1  0  0  0  0
 42 46  1  0  0  0  0
 42 49  1  0  0  0  0
 42 94  1  0  0  0  0
 43 95  1  0  0  0  0
 43 96  1  0  0  0  0
 43 97  1  0  0  0  0
 44 47  1  0  0  0  0
 44 98  1  0  0  0  0
 44 99  1  0  0  0  0
 46 50  1  0  0  0  0
 46 51  1  0  0  0  0
 46100  1  0  0  0  0
 47 48  1  0  0  0  0
 47 52  2  0  0  0  0
 48 53  2  0  0  0  0
 50102  1  0  0  0  0
 50103  1  0  0  0  0
 50104  1  0  0  0  0
 51105  1  0  0  0  0
 51106  1  0  0  0  0
 51107  1  0  0  0  0
 52 54  1  0  0  0  0
 52108  1  0  0  0  0
 53 55  1  0  0  0  0
 53109  1  0  0  0  0
 54 55  2  0  0  0  0
 54112  1  0  0  0  0
 55113  1  0  0  0  0
M  END
> <PUBCHEM_COMPOUND_CID>
501767
> <PUBCHEM_COMPOUND_CANONICALIZED>
1
> <PUBCHEM_CACTVS_COMPLEXITY>
1390
> <PUBCHEM_CACTVS_HBOND_ACCEPTOR>
9
> <PUBCHEM_CACTVS_HBOND_DONOR>
8
> <PUBCHEM_CACTVS_ROTATABLE_BOND>
18
> <PUBCHEM_CACTVS_SUBSKEYS>
AAADcfB//AAAAAAAAAAAAAAAAAAAAWLAAAAwYAAAAAAAAFgBAAAAHgAQCAAADTzhmAYywIPAAgCIAiVSUAKCAAAhAgAIiIHIZIgKcDrA0bGUYAhklgDYyAedyaCeAAAAAAACAAAAAAAAAAQAAAAAAAAAAA==
> <PUBCHEM_IUPAC_OPENEYE_NAME>
(2S)-N-[(1S,2S)-3-[(2S)-2-[[(1S,2R)-1-[[(1S)-1-carbamoyl-2-methyl-propyl]carbamoyl]-2-methyl-butyl]carbamoyl]pyrrolidin-1-yl]-1-(cyclohexylmethyl)-2-hydroxy-3-oxo-propyl]-2-[[(2S)-indoline-2-carbonyl]amino]butanediamide
> <PUBCHEM_IUPAC_CAS_NAME>
(2S)-N-[(2S,3S)-4-[(2S)-2-[[[(2S,3R)-1-[[(2S)-1-amino-3-methyl-1-oxobutan-2-yl]amino]-3-methyl-1-oxopentan-2-yl]amino]-oxomethyl]-1-pyrrolidinyl]-1-cyclohexyl-3-hydroxy-4-oxobutan-2-yl]-2-[[[(2S)-2,3-dihydro-1H-indol-2-yl]-oxomethyl]amino]butanediamide
> <PUBCHEM_IUPAC_NAME_MARKUP>
(2<I>S</I>)-<I>N</I>-[(2<I>S</I>,3<I>S</I>)-4-[(2<I>S</I>)-2-[[(2<I>S</I>,3<I>R</I>)-1-[[(2<I>S</I>)-1-amino-3-methyl-1-oxobutan-2-yl]amino]-3-methyl-1-oxopentan-2-yl]carbamoyl]pyrrolidin-1-yl]-1-cyclohexyl-3-hydroxy-4-oxobutan-2-yl]-2-[[(2<I>S</I>)-2,3-dihydro-1<I>H</I>-indole-2-carbonyl]amino]butanediamide
> <PUBCHEM_IUPAC_NAME>
(2S)-N-[(2S,3S)-4-[(2S)-2-[[(2S,3R)-1-[[(2S)-1-amino-3-methyl-1-oxobutan-2-yl]amino]-3-methyl-1-oxopentan-2-yl]carbamoyl]pyrrolidin-1-yl]-1-cyclohexyl-3-hydroxy-4-oxobutan-2-yl]-2-[[(2S)-2,3-dihydro-1H-indole-2-carbonyl]amino]butanediamide
> <PUBCHEM_IUPAC_SYSTEMATIC_NAME>
(2S)-N-[(2S,3S)-4-[(2S)-2-[[(2S,3R)-1-[[(2S)-1-azanyl-3-methyl-1-oxidanylidene-butan-2-yl]amino]-3-methyl-1-oxidanylidene-pentan-2-yl]carbamoyl]pyrrolidin-1-yl]-1-cyclohexyl-3-oxidanyl-4-oxidanylidene-butan-2-yl]-2-[[(2S)-2,3-dihydro-1H-indol-2-yl]carbonylamino]butanediamide
> <PUBCHEM_IUPAC_TRADITIONAL_NAME>
(2S)-N-[(1S,2S)-3-[(2S)-2-[[(1S,2R)-1-[[(1S)-1-carbamoyl-2-methyl-propyl]carbamoyl]-2-methyl-butyl]carbamoyl]pyrrolidino]-1-(cyclohexylmethyl)-2-hydroxy-3-keto-propyl]-2-[[(2S)-indoline-2-carbonyl]amino]succinamide
> <PUBCHEM_IUPAC_INCHI>
InChI=1S/C39H60N8O8/c1-5-22(4)32(38(54)45-31(21(2)3)34(41)50)46-37(53)29-16-11-17-47(29)39(55)33(49)26(18-23-12-7-6-8-13-23)43-36(52)28(20-30(40)48)44-35(51)27-19-24-14-9-10-15-25(24)42-27/h9-10,14-15,21-23,26-29,31-33,42,49H,5-8,11-13,16-20H2,1-4H3,(H2,40,48)(H2,41,50)(H,43,52)(H,44,51)(H,45,54)(H,46,53)/t22-,26+,27+,28+,29+,31+,32+,33+/m1/s1
> <PUBCHEM_IUPAC_INCHIKEY>
CRMXAWSNBCMKPC-GHHLMQQQSA-N
> <PUBCHEM_XLOGP3_AA>
2.8
> <PUBCHEM_EXACT_MASS>
768.45341090
> <PUBCHEM_MOLECULAR_FORMULA>
C39H60N8O8
> <PUBCHEM_MOLECULAR_WEIGHT>
768.9
> <PUBCHEM_OPENEYE_CAN_SMILES>
CCC(C)C(C(=O)NC(C(C)C)C(=O)N)NC(=O)C1CCCN1C(=O)C(C(CC2CCCCC2)NC(=O)C(CC(=O)N)NC(=O)C3CC4=CC=CC=C4N3)O
> <PUBCHEM_OPENEYE_ISO_SMILES>
CC[C@@H](C)[C@@H](C(=O)N[C@@H](C(C)C)C(=O)N)NC(=O)[C@@H]1CCCN1C(=O)[C@H]([C@H](CC2CCCCC2)NC(=O)[C@H](CC(=O)N)NC(=O)[C@@H]3CC4=CC=CC=C4N3)O
> <PUBCHEM_CACTVS_TPSA>
255
> <PUBCHEM_MONOISOTOPIC_WEIGHT>
768.45341090
> <PUBCHEM_TOTAL_CHARGE>
0
> <PUBCHEM_HEAVY_ATOM_COUNT>
55
> <PUBCHEM_ATOM_DEF_STEREO_COUNT>
8
> <PUBCHEM_ATOM_UDEF_STEREO_COUNT>
0
> <PUBCHEM_BOND_DEF_STEREO_COUNT>
0
> <PUBCHEM_BOND_UDEF_STEREO_COUNT>
0
> <PUBCHEM_ISOTOPIC_ATOM_COUNT>
0
> <PUBCHEM_COMPONENT_COUNT>
1
> <PUBCHEM_CACTVS_TAUTO_COUNT>
-1
> <PUBCHEM_COORDINATE_TYPE>
1
5
255
> <PUBCHEM_BONDANNOTATIONS>
25  1  6
21  10  5
33  11  6
34  12  6
42  13  5
26  31  5
35  39  5
40  41  5
47  48  8
47  52  8
48  53  8
52  54  8
53  55  8
54  55  8
$$$$
