501768
  -OEChem-10302200282D
118121  0     1  0  0  0  0  0999 V2000
    7.2641    3.2080    0.0000 O   0  0  0  0  0  0  0  0  0  0  0  0
    9.2641    1.4760    0.0000 O   0  0  0  0  0  0  0  0  0  0  0  0
   10.6187    1.6184    0.0000 O   0  0  0  0  0  0  0  0  0  0  0  0
    6.3981    0.2439    0.0000 O   0  0  0  0  0  0  0  0  0  0  0  0
   13.8622    3.1932    0.0000 O   0  0  0  0  0  0  0  0  0  0  0  0
    7.2641   -3.2561    0.0000 O   0  0  0  0  0  0  0  0  0  0  0  0
    9.2641   -1.2561    0.0000 O   0  0  0  0  0  0  0  0  0  0  0  0
   15.5606    0.0127    0.0000 O   0  0  0  0  0  0  0  0  0  0  0  0
    9.2641    3.2080    0.0000 N   0  0  0  0  0  0  0  0  0  0  0  0
    7.7641    0.6100    0.0000 N   0  0  0  0  0  0  0  0  0  0  0  0
   11.9059    2.7773    0.0000 N   0  0  0  0  0  0  0  0  0  0  0  0
    6.3981   -1.7561    0.0000 N   0  0  0  0  0  0  0  0  0  0  0  0
   14.2223    1.4990    0.0000 N   0  0  0  0  0  0  0  0  0  0  0  0
    5.5321   -4.2561    0.0000 N   0  0  0  0  0  0  0  0  0  0  0  0
    9.2641   -2.9881    0.0000 N   0  0  0  0  0  0  0  0  0  0  0  0
   16.8477    1.1716    0.0000 N   0  0  0  0  0  0  0  0  0  0  0  0
    5.7641    2.3420    0.0000 C   0  0  0  0  0  0  0  0  0  0  0  0
    6.2641    1.4760    0.0000 C   0  0  0  0  0  0  0  0  0  0  0  0
    6.2641    3.2080    0.0000 C   0  0  0  0  0  0  0  0  0  0  0  0
    4.7641    2.3420    0.0000 C   0  0  0  0  0  0  0  0  0  0  0  0
    7.2641    1.4760    0.0000 C   0  0  1  0  0  0  0  0  0  0  0  0
    5.7641    4.0741    0.0000 C   0  0  0  0  0  0  0  0  0  0  0  0
    4.2641    3.2080    0.0000 C   0  0  0  0  0  0  0  0  0  0  0  0
    4.7641    4.0741    0.0000 C   0  0  0  0  0  0  0  0  0  0  0  0
    7.7641    2.3420    0.0000 C   0  0  1  0  0  0  0  0  0  0  0  0
   10.2586    3.3126    0.0000 C   0  0  1  0  0  0  0  0  0  0  0  0
   10.4665    4.2907    0.0000 C   0  0  0  0  0  0  0  0  0  0  0  0
    8.8574    4.1216    0.0000 C   0  0  0  0  0  0  0  0  0  0  0  0
    8.7641    2.3420    0.0000 C   0  0  0  0  0  0  0  0  0  0  0  0
    9.6005    4.7907    0.0000 C   0  0  0  0  0  0  0  0  0  0  0  0
   10.9278    2.5694    0.0000 C   0  0  0  0  0  0  0  0  0  0  0  0
    7.2641   -0.2561    0.0000 C   0  0  0  0  0  0  0  0  0  0  0  0
   12.5750    2.0342    0.0000 C   0  0  1  0  0  0  0  0  0  0  0  0
    7.2641   -1.2561    0.0000 C   0  0  2  0  0  0  0  0  0  0  0  0
   12.2660    1.0831    0.0000 C   0  0  1  0  0  0  0  0  0  0  0  0
    7.7641   -2.1221    0.0000 C   0  0  0  0  0  0  0  0  0  0  0  0
   12.9352    0.3400    0.0000 C   0  0  0  0  0  0  0  0  0  0  0  0
   13.5532    2.2421    0.0000 C   0  0  0  0  0  0  0  0  0  0  0  0
   11.2879    0.8752    0.0000 C   0  0  0  0  0  0  0  0  0  0  0  0
    5.5321   -3.2561    0.0000 C   0  0  1  0  0  0  0  0  0  0  0  0
    6.3981   -2.7561    0.0000 C   0  0  0  0  0  0  0  0  0  0  0  0
   15.2005    1.7069    0.0000 C   0  0  1  0  0  0  0  0  0  0  0  0
   12.6261   -0.6111    0.0000 C   0  0  0  0  0  0  0  0  0  0  0  0
    4.6660   -2.7561    0.0000 C   0  0  0  0  0  0  0  0  0  0  0  0
    8.7641   -2.1221    0.0000 C   0  0  0  0  0  0  0  0  0  0  0  0
   15.5095    2.6579    0.0000 C   0  0  0  0  0  0  0  0  0  0  0  0
    3.8000   -3.2561    0.0000 C   0  0  0  0  0  0  0  0  0  0  0  0
    4.6660   -4.7561    0.0000 C   0  0  0  0  0  0  0  0  0  0  0  0
    3.8000   -4.2561    0.0000 C   0  0  0  0  0  0  0  0  0  0  0  0
   15.8696    0.9637    0.0000 C   0  0  0  0  0  0  0  0  0  0  0  0
   16.4876    2.8658    0.0000 C   0  0  0  0  0  0  0  0  0  0  0  0
   14.8404    3.4011    0.0000 C   0  0  0  0  0  0  0  0  0  0  0  0
    2.9061   -2.7214    0.0000 C   0  0  0  0  0  0  0  0  0  0  0  0
    2.9061   -4.7907    0.0000 C   0  0  0  0  0  0  0  0  0  0  0  0
    2.0000   -3.2352    0.0000 C   0  0  0  0  0  0  0  0  0  0  0  0
    2.0000   -4.2769    0.0000 C   0  0  0  0  0  0  0  0  0  0  0  0
    6.3841    2.3420    0.0000 H   0  0  0  0  0  0  0  0  0  0  0  0
    5.6815    1.2639    0.0000 H   0  0  0  0  0  0  0  0  0  0  0  0
    6.3718    0.8654    0.0000 H   0  0  0  0  0  0  0  0  0  0  0  0
    6.7391    2.8095    0.0000 H   0  0  0  0  0  0  0  0  0  0  0  0
    6.7391    3.6066    0.0000 H   0  0  0  0  0  0  0  0  0  0  0  0
    4.1815    2.1300    0.0000 H   0  0  0  0  0  0  0  0  0  0  0  0
    4.8718    1.7314    0.0000 H   0  0  0  0  0  0  0  0  0  0  0  0
    7.8841    1.4760    0.0000 H   0  0  0  0  0  0  0  0  0  0  0  0
    6.3467    4.2861    0.0000 H   0  0  0  0  0  0  0  0  0  0  0  0
    5.6565    4.6847    0.0000 H   0  0  0  0  0  0  0  0  0  0  0  0
    3.7892    3.6066    0.0000 H   0  0  0  0  0  0  0  0  0  0  0  0
    3.7892    2.8095    0.0000 H   0  0  0  0  0  0  0  0  0  0  0  0
    4.8718    4.6847    0.0000 H   0  0  0  0  0  0  0  0  0  0  0  0
    4.1815    4.2861    0.0000 H   0  0  0  0  0  0  0  0  0  0  0  0
    8.0741    2.8790    0.0000 H   0  0  0  0  0  0  0  0  0  0  0  0
   10.0364    2.7338    0.0000 H   0  0  0  0  0  0  0  0  0  0  0  0
   11.0562    4.0991    0.0000 H   0  0  0  0  0  0  0  0  0  0  0  0
   10.7187    4.8571    0.0000 H   0  0  0  0  0  0  0  0  0  0  0  0
    8.4930    4.6232    0.0000 H   0  0  0  0  0  0  0  0  0  0  0  0
    8.3204    3.8116    0.0000 H   0  0  0  0  0  0  0  0  0  0  0  0
    9.9649    5.2923    0.0000 H   0  0  0  0  0  0  0  0  0  0  0  0
    9.1398    5.2056    0.0000 H   0  0  0  0  0  0  0  0  0  0  0  0
    8.3841    0.6100    0.0000 H   0  0  0  0  0  0  0  0  0  0  0  0
    7.5741    3.7450    0.0000 H   0  0  0  0  0  0  0  0  0  0  0  0
   11.9686    1.9053    0.0000 H   0  0  0  0  0  0  0  0  0  0  0  0
   12.0975    3.3670    0.0000 H   0  0  0  0  0  0  0  0  0  0  0  0
    6.7272   -0.9461    0.0000 H   0  0  0  0  0  0  0  0  0  0  0  0
   12.0744    0.4935    0.0000 H   0  0  0  0  0  0  0  0  0  0  0  0
    7.1815   -2.3341    0.0000 H   0  0  0  0  0  0  0  0  0  0  0  0
    7.8718   -2.7327    0.0000 H   0  0  0  0  0  0  0  0  0  0  0  0
   13.4826    0.0489    0.0000 H   0  0  0  0  0  0  0  0  0  0  0  0
   13.3169    0.8286    0.0000 H   0  0  0  0  0  0  0  0  0  0  0  0
    5.8612   -1.4461    0.0000 H   0  0  0  0  0  0  0  0  0  0  0  0
   11.1590    1.4817    0.0000 H   0  0  0  0  0  0  0  0  0  0  0  0
   10.6814    0.7463    0.0000 H   0  0  0  0  0  0  0  0  0  0  0  0
   11.4168    0.2688    0.0000 H   0  0  0  0  0  0  0  0  0  0  0  0
    6.0690   -3.5661    0.0000 H   0  0  0  0  0  0  0  0  0  0  0  0
   14.0307    0.9093    0.0000 H   0  0  0  0  0  0  0  0  0  0  0  0
   14.7856    2.1676    0.0000 H   0  0  0  0  0  0  0  0  0  0  0  0
   12.0365   -0.4195    0.0000 H   0  0  0  0  0  0  0  0  0  0  0  0
   12.4345   -1.2007    0.0000 H   0  0  0  0  0  0  0  0  0  0  0  0
   13.2158   -0.8027    0.0000 H   0  0  0  0  0  0  0  0  0  0  0  0
    5.0646   -2.2811    0.0000 H   0  0  0  0  0  0  0  0  0  0  0  0
    4.2675   -2.2811    0.0000 H   0  0  0  0  0  0  0  0  0  0  0  0
   15.9243    2.1972    0.0000 H   0  0  0  0  0  0  0  0  0  0  0  0
    6.0690   -4.5661    0.0000 H   0  0  0  0  0  0  0  0  0  0  0  0
    4.2675   -5.2310    0.0000 H   0  0  0  0  0  0  0  0  0  0  0  0
    5.0646   -5.2310    0.0000 H   0  0  0  0  0  0  0  0  0  0  0  0
   16.6165    2.2594    0.0000 H   0  0  0  0  0  0  0  0  0  0  0  0
   17.0941    2.9947    0.0000 H   0  0  0  0  0  0  0  0  0  0  0  0
   16.3587    3.4723    0.0000 H   0  0  0  0  0  0  0  0  0  0  0  0
   15.3011    3.8159    0.0000 H   0  0  0  0  0  0  0  0  0  0  0  0
   14.4255    3.8618    0.0000 H   0  0  0  0  0  0  0  0  0  0  0  0
   14.3796    2.9862    0.0000 H   0  0  0  0  0  0  0  0  0  0  0  0
    2.9132   -2.1014    0.0000 H   0  0  0  0  0  0  0  0  0  0  0  0
    9.8841   -2.9881    0.0000 H   0  0  0  0  0  0  0  0  0  0  0  0
    8.9541   -3.5250    0.0000 H   0  0  0  0  0  0  0  0  0  0  0  0
    2.9132   -5.4107    0.0000 H   0  0  0  0  0  0  0  0  0  0  0  0
    1.4643   -2.9232    0.0000 H   0  0  0  0  0  0  0  0  0  0  0  0
    1.4643   -4.5889    0.0000 H   0  0  0  0  0  0  0  0  0  0  0  0
   17.2626    0.7109    0.0000 H   0  0  0  0  0  0  0  0  0  0  0  0
   17.0393    1.7613    0.0000 H   0  0  0  0  0  0  0  0  0  0  0  0
 25  1  1  6  0  0  0
  1 80  1  0  0  0  0
  2 29  2  0  0  0  0
  3 31  2  0  0  0  0
  4 32  2  0  0  0  0
  5 38  2  0  0  0  0
  6 41  2  0  0  0  0
  7 45  2  0  0  0  0
  8 50  2  0  0  0  0
  9 26  1  0  0  0  0
  9 28  1  0  0  0  0
  9 29  1  0  0  0  0
 21 10  1  1  0  0  0
 10 32  1  0  0  0  0
 10 79  1  0  0  0  0
 11 31  1  0  0  0  0
 33 11  1  6  0  0  0
 11 82  1  0  0  0  0
 34 12  1  6  0  0  0
 12 41  1  0  0  0  0
 12 89  1  0  0  0  0
 13 38  1  0  0  0  0
 42 13  1  1  0  0  0
 13 94  1  0  0  0  0
 14 40  1  0  0  0  0
 14 48  1  0  0  0  0
 14102  1  0  0  0  0
 15 45  1  0  0  0  0
 15112  1  0  0  0  0
 15113  1  0  0  0  0
 16 50  1  0  0  0  0
 16117  1  0  0  0  0
 16118  1  0  0  0  0
 17 18  1  0  0  0  0
 17 19  1  0  0  0  0
 17 20  1  0  0  0  0
 17 57  1  0  0  0  0
 18 21  1  0  0  0  0
 18 58  1  0  0  0  0
 18 59  1  0  0  0  0
 19 22  1  0  0  0  0
 19 60  1  0  0  0  0
 19 61  1  0  0  0  0
 20 23  1  0  0  0  0
 20 62  1  0  0  0  0
 20 63  1  0  0  0  0
 21 25  1  0  0  0  0
 21 64  1  0  0  0  0
 22 24  1  0  0  0  0
 22 65  1  0  0  0  0
 22 66  1  0  0  0  0
 23 24  1  0  0  0  0
 23 67  1  0  0  0  0
 23 68  1  0  0  0  0
 24 69  1  0  0  0  0
 24 70  1  0  0  0  0
 25 29  1  0  0  0  0
 25 71  1  0  0  0  0
 26 27  1  0  0  0  0
 26 31  1  1  0  0  0
 26 72  1  0  0  0  0
 27 30  1  0  0  0  0
 27 73  1  0  0  0  0
 27 74  1  0  0  0  0
 28 30  1  0  0  0  0
 28 75  1  0  0  0  0
 28 76  1  0  0  0  0
 30 77  1  0  0  0  0
 30 78  1  0  0  0  0
 32 34  1  0  0  0  0
 33 35  1  0  0  0  0
 33 38  1  0  0  0  0
 33 81  1  0  0  0  0
 34 36  1  0  0  0  0
 34 83  1  0  0  0  0
 35 37  1  0  0  0  0
 35 39  1  1  0  0  0
 35 84  1  0  0  0  0
 36 45  1  0  0  0  0
 36 85  1  0  0  0  0
 36 86  1  0  0  0  0
 37 43  1  0  0  0  0
 37 87  1  0  0  0  0
 37 88  1  0  0  0  0
 39 90  1  0  0  0  0
 39 91  1  0  0  0  0
 39 92  1  0  0  0  0
 40 41  1  6  0  0  0
 40 44  1  0  0  0  0
 40 93  1  0  0  0  0
 42 46  1  0  0  0  0
 42 50  1  0  0  0  0
 42 95  1  0  0  0  0
 43 96  1  0  0  0  0
 43 97  1  0  0  0  0
 43 98  1  0  0  0  0
 44 47  1  0  0  0  0
 44 99  1  0  0  0  0
 44100  1  0  0  0  0
 46 51  1  0  0  0  0
 46 52  1  0  0  0  0
 46101  1  0  0  0  0
 47 49  1  0  0  0  0
 47 53  2  0  0  0  0
 48 49  1  0  0  0  0
 48103  1  0  0  0  0
 48104  1  0  0  0  0
 49 54  2  0  0  0  0
 51105  1  0  0  0  0
 51106  1  0  0  0  0
 51107  1  0  0  0  0
 52108  1  0  0  0  0
 52109  1  0  0  0  0
 52110  1  0  0  0  0
 53 55  1  0  0  0  0
 53111  1  0  0  0  0
 54 56  1  0  0  0  0
 54114  1  0  0  0  0
 55 56  2  0  0  0  0
 55115  1  0  0  0  0
 56116  1  0  0  0  0
M  END
> <PUBCHEM_COMPOUND_CID>
501768
> <PUBCHEM_COMPOUND_CANONICALIZED>
1
> <PUBCHEM_CACTVS_COMPLEXITY>
1410
> <PUBCHEM_CACTVS_HBOND_ACCEPTOR>
9
> <PUBCHEM_CACTVS_HBOND_DONOR>
8
> <PUBCHEM_CACTVS_ROTATABLE_BOND>
18
> <PUBCHEM_CACTVS_SUBSKEYS>
AAADcfB//AAAAAAAAAAAAAAAAAAAAWAAAAA8YIAAAAAAAACxAAAAHgAQCAAADTzhmAYyAIPAAgCIAiFSEAKCAAAgAAAIiIHIBIgKcDqA0TGUYAhklgCYiAedyaCOgAAAAAAQAAAAAAAAACAAAAAAAAAAAA==
> <PUBCHEM_IUPAC_OPENEYE_NAME>
(2S)-N-[(1S,2S)-3-[(2S)-2-[[(1S,2R)-1-[[(1S)-1-carbamoyl-2-methyl-propyl]carbamoyl]-2-methyl-butyl]carbamoyl]pyrrolidin-1-yl]-1-(cyclohexylmethyl)-2-hydroxy-3-oxo-propyl]-2-[[(3R)-1,2,3,4-tetrahydroisoquinoline-3-carbonyl]amino]butanediamide
> <PUBCHEM_IUPAC_CAS_NAME>
(2S)-N-[(2S,3S)-4-[(2S)-2-[[[(2S,3R)-1-[[(2S)-1-amino-3-methyl-1-oxobutan-2-yl]amino]-3-methyl-1-oxopentan-2-yl]amino]-oxomethyl]-1-pyrrolidinyl]-1-cyclohexyl-3-hydroxy-4-oxobutan-2-yl]-2-[[oxo-[(3R)-1,2,3,4-tetrahydroisoquinolin-3-yl]methyl]amino]butanediamide
> <PUBCHEM_IUPAC_NAME_MARKUP>
(2<I>S</I>)-<I>N</I>-[(2<I>S</I>,3<I>S</I>)-4-[(2<I>S</I>)-2-[[(2<I>S</I>,3<I>R</I>)-1-[[(2<I>S</I>)-1-amino-3-methyl-1-oxobutan-2-yl]amino]-3-methyl-1-oxopentan-2-yl]carbamoyl]pyrrolidin-1-yl]-1-cyclohexyl-3-hydroxy-4-oxobutan-2-yl]-2-[[(3<I>R</I>)-1,2,3,4-tetrahydroisoquinoline-3-carbonyl]amino]butanediamide
> <PUBCHEM_IUPAC_NAME>
(2S)-N-[(2S,3S)-4-[(2S)-2-[[(2S,3R)-1-[[(2S)-1-amino-3-methyl-1-oxobutan-2-yl]amino]-3-methyl-1-oxopentan-2-yl]carbamoyl]pyrrolidin-1-yl]-1-cyclohexyl-3-hydroxy-4-oxobutan-2-yl]-2-[[(3R)-1,2,3,4-tetrahydroisoquinoline-3-carbonyl]amino]butanediamide
> <PUBCHEM_IUPAC_SYSTEMATIC_NAME>
(2S)-N-[(2S,3S)-4-[(2S)-2-[[(2S,3R)-1-[[(2S)-1-azanyl-3-methyl-1-oxidanylidene-butan-2-yl]amino]-3-methyl-1-oxidanylidene-pentan-2-yl]carbamoyl]pyrrolidin-1-yl]-1-cyclohexyl-3-oxidanyl-4-oxidanylidene-butan-2-yl]-2-[[(3R)-1,2,3,4-tetrahydroisoquinolin-3-yl]carbonylamino]butanediamide
> <PUBCHEM_IUPAC_TRADITIONAL_NAME>
(2S)-N-[(1S,2S)-3-[(2S)-2-[[(1S,2R)-1-[[(1S)-1-carbamoyl-2-methyl-propyl]carbamoyl]-2-methyl-butyl]carbamoyl]pyrrolidino]-1-(cyclohexylmethyl)-2-hydroxy-3-keto-propyl]-2-[[(3R)-1,2,3,4-tetrahydroisoquinoline-3-carbonyl]amino]succinamide
> <PUBCHEM_IUPAC_INCHI>
InChI=1S/C40H62N8O8/c1-5-23(4)33(39(55)46-32(22(2)3)35(42)51)47-38(54)30-16-11-17-48(30)40(56)34(50)27(18-24-12-7-6-8-13-24)44-37(53)29(20-31(41)49)45-36(52)28-19-25-14-9-10-15-26(25)21-43-28/h9-10,14-15,22-24,27-30,32-34,43,50H,5-8,11-13,16-21H2,1-4H3,(H2,41,49)(H2,42,51)(H,44,53)(H,45,52)(H,46,55)(H,47,54)/t23-,27+,28-,29+,30+,32+,33+,34+/m1/s1
> <PUBCHEM_IUPAC_INCHIKEY>
LMIVYXBWBBWWGC-MPUODJRBSA-N
> <PUBCHEM_XLOGP3_AA>
2.2
> <PUBCHEM_EXACT_MASS>
782.46906097
> <PUBCHEM_MOLECULAR_FORMULA>
C40H62N8O8
> <PUBCHEM_MOLECULAR_WEIGHT>
783.0
> <PUBCHEM_OPENEYE_CAN_SMILES>
CCC(C)C(C(=O)NC(C(C)C)C(=O)N)NC(=O)C1CCCN1C(=O)C(C(CC2CCCCC2)NC(=O)C(CC(=O)N)NC(=O)C3CC4=CC=CC=C4CN3)O
> <PUBCHEM_OPENEYE_ISO_SMILES>
CC[C@@H](C)[C@@H](C(=O)N[C@@H](C(C)C)C(=O)N)NC(=O)[C@@H]1CCCN1C(=O)[C@H]([C@H](CC2CCCCC2)NC(=O)[C@H](CC(=O)N)NC(=O)[C@H]3CC4=CC=CC=C4CN3)O
> <PUBCHEM_CACTVS_TPSA>
255
> <PUBCHEM_MONOISOTOPIC_WEIGHT>
782.46906097
> <PUBCHEM_TOTAL_CHARGE>
0
> <PUBCHEM_HEAVY_ATOM_COUNT>
56
> <PUBCHEM_ATOM_DEF_STEREO_COUNT>
8
> <PUBCHEM_ATOM_UDEF_STEREO_COUNT>
0
> <PUBCHEM_BOND_DEF_STEREO_COUNT>
0
> <PUBCHEM_BOND_UDEF_STEREO_COUNT>
0
> <PUBCHEM_ISOTOPIC_ATOM_COUNT>
0
> <PUBCHEM_COMPONENT_COUNT>
1
> <PUBCHEM_CACTVS_TAUTO_COUNT>
-1
> <PUBCHEM_COORDINATE_TYPE>
1
5
255
> <PUBCHEM_BONDANNOTATIONS>
25  1  6
21  10  5
33  11  6
34  12  6
42  13  5
26  31  5
35  39  5
40  41  6
47  49  8
47  53  8
49  54  8
53  55  8
54  56  8
55  56  8
$$$$
