501743
  -OEChem-10302200282D
 95 97  0     1  0  0  0  0  0999 V2000
    8.2075    0.6429    0.0000 O   0  0  0  0  0  0  0  0  0  0  0  0
   11.9075    0.3423    0.0000 O   0  0  0  0  0  0  0  0  0  0  0  0
    9.3094   -0.1577    0.0000 O   0  0  0  0  0  0  0  0  0  0  0  0
    6.1860    3.6285    0.0000 O   0  0  0  0  0  0  0  0  0  0  0  0
   12.7736   -0.1577    0.0000 O   0  0  0  0  0  0  0  0  0  0  0  0
    3.1249    1.7233    0.0000 O   0  0  0  0  0  0  0  0  0  0  0  0
   10.1755    1.3423    0.0000 N   0  0  0  0  0  0  0  0  0  0  0  0
    7.6723    2.2902    0.0000 N   0  0  0  0  0  0  0  0  0  0  0  0
   11.9075   -1.6577    0.0000 N   0  0  0  0  0  0  0  0  0  0  0  0
    5.0270    2.3413    0.0000 N   0  0  0  0  0  0  0  0  0  0  0  0
    2.5896    3.3705    0.0000 N   0  0  0  0  0  0  0  0  0  0  0  0
    9.3665    1.9301    0.0000 C   0  0  1  0  0  0  0  0  0  0  0  0
    9.6755    2.8811    0.0000 C   0  0  0  0  0  0  0  0  0  0  0  0
   10.6755    2.8811    0.0000 C   0  0  0  0  0  0  0  0  0  0  0  0
   10.9845    1.9301    0.0000 C   0  0  0  0  0  0  0  0  0  0  0  0
    8.4154    1.6211    0.0000 C   0  0  0  0  0  0  0  0  0  0  0  0
   10.1755    0.3423    0.0000 C   0  0  0  0  0  0  0  0  0  0  0  0
    6.7212    1.9812    0.0000 C   0  0  1  0  0  0  0  0  0  0  0  0
   11.0415   -0.1577    0.0000 C   0  0  2  0  0  0  0  0  0  0  0  0
    6.5133    1.0030    0.0000 C   0  0  1  0  0  0  0  0  0  0  0  0
   11.0415   -1.1577    0.0000 C   0  0  2  0  0  0  0  0  0  0  0  0
    5.5622    0.6940    0.0000 C   0  0  0  0  0  0  0  0  0  0  0  0
   10.1755   -1.6577    0.0000 C   0  0  0  0  0  0  0  0  0  0  0  0
    5.9781    2.6503    0.0000 C   0  0  0  0  0  0  0  0  0  0  0  0
    7.2564    0.3339    0.0000 C   0  0  0  0  0  0  0  0  0  0  0  0
    4.2839    3.0104    0.0000 C   0  0  1  0  0  0  0  0  0  0  0  0
    5.3543   -0.2841    0.0000 C   0  0  0  0  0  0  0  0  0  0  0  0
   10.1755   -2.6577    0.0000 C   0  0  0  0  0  0  0  0  0  0  0  0
    4.4918    3.9886    0.0000 C   0  0  0  0  0  0  0  0  0  0  0  0
   12.7736   -1.1577    0.0000 C   0  0  0  0  0  0  0  0  0  0  0  0
    3.3328    2.7014    0.0000 C   0  0  0  0  0  0  0  0  0  0  0  0
   13.6396   -1.6577    0.0000 C   0  0  0  0  0  0  0  0  0  0  0  0
    3.7486    4.6577    0.0000 C   0  0  0  0  0  0  0  0  0  0  0  0
    5.4428    4.2976    0.0000 C   0  0  0  0  0  0  0  0  0  0  0  0
   11.0415   -3.1577    0.0000 C   0  0  0  0  0  0  0  0  0  0  0  0
    9.3094   -3.1577    0.0000 C   0  0  0  0  0  0  0  0  0  0  0  0
   14.5056   -1.1577    0.0000 C   0  0  0  0  0  0  0  0  0  0  0  0
   11.0415   -4.1577    0.0000 C   0  0  0  0  0  0  0  0  0  0  0  0
    9.3094   -4.1577    0.0000 C   0  0  0  0  0  0  0  0  0  0  0  0
   10.1755   -4.6577    0.0000 C   0  0  0  0  0  0  0  0  0  0  0  0
   15.3716   -1.6577    0.0000 C   0  0  0  0  0  0  0  0  0  0  0  0
   16.2377   -1.1577    0.0000 C   0  0  0  0  0  0  0  0  0  0  0  0
   15.3716   -2.6577    0.0000 C   0  0  0  0  0  0  0  0  0  0  0  0
   17.1037   -1.6577    0.0000 C   0  0  0  0  0  0  0  0  0  0  0  0
   16.2377   -3.1577    0.0000 C   0  0  0  0  0  0  0  0  0  0  0  0
   17.1037   -2.6577    0.0000 C   0  0  0  0  0  0  0  0  0  0  0  0
    9.2695    1.3177    0.0000 H   0  0  0  0  0  0  0  0  0  0  0  0
    9.7403    3.4977    0.0000 H   0  0  0  0  0  0  0  0  0  0  0  0
    9.0690    3.0100    0.0000 H   0  0  0  0  0  0  0  0  0  0  0  0
   11.2819    3.0100    0.0000 H   0  0  0  0  0  0  0  0  0  0  0  0
   10.6107    3.4977    0.0000 H   0  0  0  0  0  0  0  0  0  0  0  0
   11.2945    1.3932    0.0000 H   0  0  0  0  0  0  0  0  0  0  0  0
   11.5509    2.1823    0.0000 H   0  0  0  0  0  0  0  0  0  0  0  0
    6.8501    2.5876    0.0000 H   0  0  0  0  0  0  0  0  0  0  0  0
   11.0415    0.4623    0.0000 H   0  0  0  0  0  0  0  0  0  0  0  0
    6.3844    0.3966    0.0000 H   0  0  0  0  0  0  0  0  0  0  0  0
    7.8012    2.8966    0.0000 H   0  0  0  0  0  0  0  0  0  0  0  0
   11.5784   -0.8477    0.0000 H   0  0  0  0  0  0  0  0  0  0  0  0
    5.4760    1.3080    0.0000 H   0  0  0  0  0  0  0  0  0  0  0  0
    4.9426    0.7157    0.0000 H   0  0  0  0  0  0  0  0  0  0  0  0
    9.9634   -1.0751    0.0000 H   0  0  0  0  0  0  0  0  0  0  0  0
    9.5649   -1.7654    0.0000 H   0  0  0  0  0  0  0  0  0  0  0  0
    6.8416   -0.1268    0.0000 H   0  0  0  0  0  0  0  0  0  0  0  0
    7.7172   -0.0810    0.0000 H   0  0  0  0  0  0  0  0  0  0  0  0
    7.6713    0.7947    0.0000 H   0  0  0  0  0  0  0  0  0  0  0  0
   11.9075   -2.2777    0.0000 H   0  0  0  0  0  0  0  0  0  0  0  0
    4.1550    2.4040    0.0000 H   0  0  0  0  0  0  0  0  0  0  0  0
    4.8981    1.7348    0.0000 H   0  0  0  0  0  0  0  0  0  0  0  0
   11.9075    0.9623    0.0000 H   0  0  0  0  0  0  0  0  0  0  0  0
    4.7479   -0.1552    0.0000 H   0  0  0  0  0  0  0  0  0  0  0  0
    5.2254   -0.8906    0.0000 H   0  0  0  0  0  0  0  0  0  0  0  0
    5.9608   -0.4130    0.0000 H   0  0  0  0  0  0  0  0  0  0  0  0
    4.6207    4.5950    0.0000 H   0  0  0  0  0  0  0  0  0  0  0  0
    4.1635    5.1184    0.0000 H   0  0  0  0  0  0  0  0  0  0  0  0
    3.2879    5.0726    0.0000 H   0  0  0  0  0  0  0  0  0  0  0  0
    3.3338    4.1970    0.0000 H   0  0  0  0  0  0  0  0  0  0  0  0
    5.6344    3.7079    0.0000 H   0  0  0  0  0  0  0  0  0  0  0  0
    6.0325    4.4892    0.0000 H   0  0  0  0  0  0  0  0  0  0  0  0
    5.2512    4.8872    0.0000 H   0  0  0  0  0  0  0  0  0  0  0  0
   13.2411   -2.1326    0.0000 H   0  0  0  0  0  0  0  0  0  0  0  0
   14.0381   -2.1326    0.0000 H   0  0  0  0  0  0  0  0  0  0  0  0
   11.5784   -2.8477    0.0000 H   0  0  0  0  0  0  0  0  0  0  0  0
    8.7725   -2.8477    0.0000 H   0  0  0  0  0  0  0  0  0  0  0  0
   14.9041   -0.6828    0.0000 H   0  0  0  0  0  0  0  0  0  0  0  0
   14.1071   -0.6828    0.0000 H   0  0  0  0  0  0  0  0  0  0  0  0
   11.5784   -4.4677    0.0000 H   0  0  0  0  0  0  0  0  0  0  0  0
    8.7725   -4.4677    0.0000 H   0  0  0  0  0  0  0  0  0  0  0  0
    2.0000    3.1790    0.0000 H   0  0  0  0  0  0  0  0  0  0  0  0
    2.7186    3.9770    0.0000 H   0  0  0  0  0  0  0  0  0  0  0  0
   10.1755   -5.2777    0.0000 H   0  0  0  0  0  0  0  0  0  0  0  0
   16.2377   -0.5377    0.0000 H   0  0  0  0  0  0  0  0  0  0  0  0
   14.8347   -2.9677    0.0000 H   0  0  0  0  0  0  0  0  0  0  0  0
   17.6406   -1.3477    0.0000 H   0  0  0  0  0  0  0  0  0  0  0  0
   16.2377   -3.7777    0.0000 H   0  0  0  0  0  0  0  0  0  0  0  0
   17.6406   -2.9677    0.0000 H   0  0  0  0  0  0  0  0  0  0  0  0
  1 16  2  0  0  0  0
 19  2  1  1  0  0  0
  2 69  1  0  0  0  0
  3 17  2  0  0  0  0
  4 24  2  0  0  0  0
  5 30  2  0  0  0  0
  6 31  2  0  0  0  0
  7 12  1  0  0  0  0
  7 15  1  0  0  0  0
  7 17  1  0  0  0  0
  8 16  1  0  0  0  0
 18  8  1  1  0  0  0
  8 57  1  0  0  0  0
 21  9  1  1  0  0  0
  9 30  1  0  0  0  0
  9 66  1  0  0  0  0
 10 24  1  0  0  0  0
 26 10  1  6  0  0  0
 10 68  1  0  0  0  0
 11 31  1  0  0  0  0
 11 88  1  0  0  0  0
 11 89  1  0  0  0  0
 12 13  1  0  0  0  0
 12 16  1  6  0  0  0
 12 47  1  0  0  0  0
 13 14  1  0  0  0  0
 13 48  1  0  0  0  0
 13 49  1  0  0  0  0
 14 15  1  0  0  0  0
 14 50  1  0  0  0  0
 14 51  1  0  0  0  0
 15 52  1  0  0  0  0
 15 53  1  0  0  0  0
 17 19  1  0  0  0  0
 18 20  1  0  0  0  0
 18 24  1  0  0  0  0
 18 54  1  0  0  0  0
 19 21  1  0  0  0  0
 19 55  1  0  0  0  0
 20 22  1  0  0  0  0
 20 25  1  6  0  0  0
 20 56  1  0  0  0  0
 21 23  1  0  0  0  0
 21 58  1  0  0  0  0
 22 27  1  0  0  0  0
 22 59  1  0  0  0  0
 22 60  1  0  0  0  0
 23 28  1  0  0  0  0
 23 61  1  0  0  0  0
 23 62  1  0  0  0  0
 25 63  1  0  0  0  0
 25 64  1  0  0  0  0
 25 65  1  0  0  0  0
 26 29  1  0  0  0  0
 26 31  1  0  0  0  0
 26 67  1  0  0  0  0
 27 70  1  0  0  0  0
 27 71  1  0  0  0  0
 27 72  1  0  0  0  0
 28 35  2  0  0  0  0
 28 36  1  0  0  0  0
 29 33  1  0  0  0  0
 29 34  1  0  0  0  0
 29 73  1  0  0  0  0
 30 32  1  0  0  0  0
 32 37  1  0  0  0  0
 32 80  1  0  0  0  0
 32 81  1  0  0  0  0
 33 74  1  0  0  0  0
 33 75  1  0  0  0  0
 33 76  1  0  0  0  0
 34 77  1  0  0  0  0
 34 78  1  0  0  0  0
 34 79  1  0  0  0  0
 35 38  1  0  0  0  0
 35 82  1  0  0  0  0
 36 39  2  0  0  0  0
 36 83  1  0  0  0  0
 37 41  1  0  0  0  0
 37 84  1  0  0  0  0
 37 85  1  0  0  0  0
 38 40  2  0  0  0  0
 38 86  1  0  0  0  0
 39 40  1  0  0  0  0
 39 87  1  0  0  0  0
 40 90  1  0  0  0  0
 41 42  2  0  0  0  0
 41 43  1  0  0  0  0
 42 44  1  0  0  0  0
 42 91  1  0  0  0  0
 43 45  2  0  0  0  0
 43 92  1  0  0  0  0
 44 46  2  0  0  0  0
 44 93  1  0  0  0  0
 45 46  1  0  0  0  0
 45 94  1  0  0  0  0
 46 95  1  0  0  0  0
M  END
> <PUBCHEM_COMPOUND_CID>
501743
> <PUBCHEM_COMPOUND_CANONICALIZED>
1
> <PUBCHEM_CACTVS_COMPLEXITY>
1020
> <PUBCHEM_CACTVS_HBOND_ACCEPTOR>
6
> <PUBCHEM_CACTVS_HBOND_DONOR>
5
> <PUBCHEM_CACTVS_ROTATABLE_BOND>
16
> <PUBCHEM_CACTVS_SUBSKEYS>
AAADcfB/uAAAAAAAAAAAAAAAAAAAAWAAAAAwYAAAAAAAAAABQAAAHgAQCAAADTzhmAYyAIPAAgCIAiFSEAICAAAgAAAIiIHIAIgKcDqA0TGUYAAklgCYiAeYyaCOAAAAAAAAAAAAAAAAAAAAAAAAAAAAAA==
> <PUBCHEM_IUPAC_OPENEYE_NAME>
(2S)-N-[(1S,2R)-1-[[(1S)-1-carbamoyl-2-methyl-propyl]carbamoyl]-2-methyl-butyl]-1-[(2S,3S)-2-hydroxy-4-phenyl-3-(3-phenylpropanoylamino)butanoyl]pyrrolidine-2-carboxamide
> <PUBCHEM_IUPAC_CAS_NAME>
(2S)-N-[(2S,3R)-1-[[(2S)-1-amino-3-methyl-1-oxobutan-2-yl]amino]-3-methyl-1-oxopentan-2-yl]-1-[(2S,3S)-2-hydroxy-1-oxo-3-[(1-oxo-3-phenylpropyl)amino]-4-phenylbutyl]-2-pyrrolidinecarboxamide
> <PUBCHEM_IUPAC_NAME_MARKUP>
(2<I>S</I>)-<I>N</I>-[(2<I>S</I>,3<I>R</I>)-1-[[(2<I>S</I>)-1-amino-3-methyl-1-oxobutan-2-yl]amino]-3-methyl-1-oxopentan-2-yl]-1-[(2<I>S</I>,3<I>S</I>)-2-hydroxy-4-phenyl-3-(3-phenylpropanoylamino)butanoyl]pyrrolidine-2-carboxamide
> <PUBCHEM_IUPAC_NAME>
(2S)-N-[(2S,3R)-1-[[(2S)-1-amino-3-methyl-1-oxobutan-2-yl]amino]-3-methyl-1-oxopentan-2-yl]-1-[(2S,3S)-2-hydroxy-4-phenyl-3-(3-phenylpropanoylamino)butanoyl]pyrrolidine-2-carboxamide
> <PUBCHEM_IUPAC_SYSTEMATIC_NAME>
(2S)-N-[(2S,3R)-1-[[(2S)-1-azanyl-3-methyl-1-oxidanylidene-butan-2-yl]amino]-3-methyl-1-oxidanylidene-pentan-2-yl]-1-[(2S,3S)-2-oxidanyl-4-phenyl-3-(3-phenylpropanoylamino)butanoyl]pyrrolidine-2-carboxamide
> <PUBCHEM_IUPAC_TRADITIONAL_NAME>
(2S)-N-[(1S,2R)-1-[[(1S)-1-carbamoyl-2-methyl-propyl]carbamoyl]-2-methyl-butyl]-1-[(2S,3S)-3-(hydrocinnamoylamino)-2-hydroxy-4-phenyl-butanoyl]pyrrolidine-2-carboxamide
> <PUBCHEM_IUPAC_INCHI>
InChI=1S/C35H49N5O6/c1-5-23(4)30(34(45)38-29(22(2)3)32(36)43)39-33(44)27-17-12-20-40(27)35(46)31(42)26(21-25-15-10-7-11-16-25)37-28(41)19-18-24-13-8-6-9-14-24/h6-11,13-16,22-23,26-27,29-31,42H,5,12,17-21H2,1-4H3,(H2,36,43)(H,37,41)(H,38,45)(H,39,44)/t23-,26+,27+,29+,30+,31+/m1/s1
> <PUBCHEM_IUPAC_INCHIKEY>
DRUHGULIYCHBJI-KDUHEPANSA-N
> <PUBCHEM_XLOGP3_AA>
3.6
> <PUBCHEM_EXACT_MASS>
635.36828430
> <PUBCHEM_MOLECULAR_FORMULA>
C35H49N5O6
> <PUBCHEM_MOLECULAR_WEIGHT>
635.8
> <PUBCHEM_OPENEYE_CAN_SMILES>
CCC(C)C(C(=O)NC(C(C)C)C(=O)N)NC(=O)C1CCCN1C(=O)C(C(CC2=CC=CC=C2)NC(=O)CCC3=CC=CC=C3)O
> <PUBCHEM_OPENEYE_ISO_SMILES>
CC[C@@H](C)[C@@H](C(=O)N[C@@H](C(C)C)C(=O)N)NC(=O)[C@@H]1CCCN1C(=O)[C@H]([C@H](CC2=CC=CC=C2)NC(=O)CCC3=CC=CC=C3)O
> <PUBCHEM_CACTVS_TPSA>
171
> <PUBCHEM_MONOISOTOPIC_WEIGHT>
635.36828430
> <PUBCHEM_TOTAL_CHARGE>
0
> <PUBCHEM_HEAVY_ATOM_COUNT>
46
> <PUBCHEM_ATOM_DEF_STEREO_COUNT>
6
> <PUBCHEM_ATOM_UDEF_STEREO_COUNT>
0
> <PUBCHEM_BOND_DEF_STEREO_COUNT>
0
> <PUBCHEM_BOND_UDEF_STEREO_COUNT>
0
> <PUBCHEM_ISOTOPIC_ATOM_COUNT>
0
> <PUBCHEM_COMPONENT_COUNT>
1
> <PUBCHEM_CACTVS_TAUTO_COUNT>
-1
> <PUBCHEM_COORDINATE_TYPE>
1
5
255
> <PUBCHEM_BONDANNOTATIONS>
26  10  6
12  16  6
19  2  5
20  25  6
28  35  8
28  36  8
35  38  8
36  39  8
38  40  8
39  40  8
41  42  8
41  43  8
42  44  8
43  45  8
44  46  8
45  46  8
18  8  5
21  9  5
$$$$
