501749
  -OEChem-10302200282D
109111  0     1  0  0  0  0  0999 V2000
    8.7768    1.1575    0.0000 O   0  0  0  0  0  0  0  0  0  0  0  0
   12.4768    0.8569    0.0000 O   0  0  0  0  0  0  0  0  0  0  0  0
    9.8788    0.3569    0.0000 O   0  0  0  0  0  0  0  0  0  0  0  0
    6.7553    4.1431    0.0000 O   0  0  0  0  0  0  0  0  0  0  0  0
   13.3429    0.3569    0.0000 O   0  0  0  0  0  0  0  0  0  0  0  0
   15.9409    0.8569    0.0000 O   0  0  0  0  0  0  0  0  0  0  0  0
   15.9409   -2.1431    0.0000 O   0  0  0  0  0  0  0  0  0  0  0  0
   14.2089    0.8569    0.0000 O   0  0  0  0  0  0  0  0  0  0  0  0
   10.7448    1.8569    0.0000 N   0  0  0  0  0  0  0  0  0  0  0  0
    5.5963    2.8559    0.0000 N   0  0  0  0  0  0  0  0  0  0  0  0
    8.2416    2.8048    0.0000 N   0  0  0  0  0  0  0  0  0  0  0  0
   12.4768   -1.1431    0.0000 N   0  0  0  0  0  0  0  0  0  0  0  0
   15.0749   -0.6431    0.0000 N   0  0  0  0  0  0  0  0  0  0  0  0
   15.0749   -3.6431    0.0000 N   0  0  0  0  0  0  0  0  0  0  0  0
    3.9021    3.2160    0.0000 C   0  0  0  0  0  0  0  0  0  0  0  0
    3.6942    2.2379    0.0000 C   0  0  0  0  0  0  0  0  0  0  0  0
    3.1590    3.8852    0.0000 C   0  0  0  0  0  0  0  0  0  0  0  0
    9.9358    2.4447    0.0000 C   0  0  1  0  0  0  0  0  0  0  0  0
    2.7431    1.9289    0.0000 C   0  0  0  0  0  0  0  0  0  0  0  0
    2.2079    3.5761    0.0000 C   0  0  0  0  0  0  0  0  0  0  0  0
    2.0000    2.5980    0.0000 C   0  0  0  0  0  0  0  0  0  0  0  0
   10.2448    3.3958    0.0000 C   0  0  0  0  0  0  0  0  0  0  0  0
    4.8532    3.5250    0.0000 C   0  0  0  0  0  0  0  0  0  0  0  0
   11.2448    3.3958    0.0000 C   0  0  0  0  0  0  0  0  0  0  0  0
   11.5538    2.4447    0.0000 C   0  0  0  0  0  0  0  0  0  0  0  0
    7.2905    2.4958    0.0000 C   0  0  1  0  0  0  0  0  0  0  0  0
    8.9847    2.1357    0.0000 C   0  0  0  0  0  0  0  0  0  0  0  0
    7.0826    1.5176    0.0000 C   0  0  1  0  0  0  0  0  0  0  0  0
   10.7448    0.8569    0.0000 C   0  0  0  0  0  0  0  0  0  0  0  0
    6.5474    3.1649    0.0000 C   0  0  0  0  0  0  0  0  0  0  0  0
   11.6108    0.3569    0.0000 C   0  0  2  0  0  0  0  0  0  0  0  0
   11.6108   -0.6431    0.0000 C   0  0  2  0  0  0  0  0  0  0  0  0
    6.1316    1.2086    0.0000 C   0  0  0  0  0  0  0  0  0  0  0  0
    7.8258    0.8485    0.0000 C   0  0  0  0  0  0  0  0  0  0  0  0
   10.7448   -1.1431    0.0000 C   0  0  0  0  0  0  0  0  0  0  0  0
    5.9236    0.2305    0.0000 C   0  0  0  0  0  0  0  0  0  0  0  0
   10.7448   -2.1431    0.0000 C   0  0  0  0  0  0  0  0  0  0  0  0
   13.3429   -0.6431    0.0000 C   0  0  0  0  0  0  0  0  0  0  0  0
   14.2089   -1.1431    0.0000 C   0  0  2  0  0  0  0  0  0  0  0  0
   11.6108   -2.6431    0.0000 C   0  0  0  0  0  0  0  0  0  0  0  0
    9.8788   -2.6431    0.0000 C   0  0  0  0  0  0  0  0  0  0  0  0
   14.2089   -2.1431    0.0000 C   0  0  0  0  0  0  0  0  0  0  0  0
   11.6108   -3.6431    0.0000 C   0  0  0  0  0  0  0  0  0  0  0  0
    9.8788   -3.6431    0.0000 C   0  0  0  0  0  0  0  0  0  0  0  0
   10.7448   -4.1431    0.0000 C   0  0  0  0  0  0  0  0  0  0  0  0
   15.0749   -2.6431    0.0000 C   0  0  0  0  0  0  0  0  0  0  0  0
   15.0749    0.3569    0.0000 C   0  0  0  0  0  0  0  0  0  0  0  0
   15.9409    1.8569    0.0000 C   0  0  0  0  0  0  0  0  0  0  0  0
   15.9409    2.8569    0.0000 C   0  0  0  0  0  0  0  0  0  0  0  0
   16.9409    1.8569    0.0000 C   0  0  0  0  0  0  0  0  0  0  0  0
   14.9409    1.8569    0.0000 C   0  0  0  0  0  0  0  0  0  0  0  0
    4.0310    3.8225    0.0000 H   0  0  0  0  0  0  0  0  0  0  0  0
    3.7805    1.6239    0.0000 H   0  0  0  0  0  0  0  0  0  0  0  0
    4.3138    2.2162    0.0000 H   0  0  0  0  0  0  0  0  0  0  0  0
    3.6475    4.2669    0.0000 H   0  0  0  0  0  0  0  0  0  0  0  0
    2.8679    4.4326    0.0000 H   0  0  0  0  0  0  0  0  0  0  0  0
    9.8388    1.8323    0.0000 H   0  0  0  0  0  0  0  0  0  0  0  0
    2.2546    1.5472    0.0000 H   0  0  0  0  0  0  0  0  0  0  0  0
    3.0342    1.3814    0.0000 H   0  0  0  0  0  0  0  0  0  0  0  0
    2.1216    4.1901    0.0000 H   0  0  0  0  0  0  0  0  0  0  0  0
    1.5883    3.5978    0.0000 H   0  0  0  0  0  0  0  0  0  0  0  0
    1.4252    2.8302    0.0000 H   0  0  0  0  0  0  0  0  0  0  0  0
    1.6714    2.0722    0.0000 H   0  0  0  0  0  0  0  0  0  0  0  0
   10.3096    4.0124    0.0000 H   0  0  0  0  0  0  0  0  0  0  0  0
    9.6383    3.5247    0.0000 H   0  0  0  0  0  0  0  0  0  0  0  0
    5.3417    3.9068    0.0000 H   0  0  0  0  0  0  0  0  0  0  0  0
    4.5621    4.0725    0.0000 H   0  0  0  0  0  0  0  0  0  0  0  0
   11.8512    3.5247    0.0000 H   0  0  0  0  0  0  0  0  0  0  0  0
   11.1800    4.0124    0.0000 H   0  0  0  0  0  0  0  0  0  0  0  0
   11.8638    1.9078    0.0000 H   0  0  0  0  0  0  0  0  0  0  0  0
   12.1202    2.6969    0.0000 H   0  0  0  0  0  0  0  0  0  0  0  0
    7.7513    2.0809    0.0000 H   0  0  0  0  0  0  0  0  0  0  0  0
    6.9537    0.9112    0.0000 H   0  0  0  0  0  0  0  0  0  0  0  0
    5.4674    2.2495    0.0000 H   0  0  0  0  0  0  0  0  0  0  0  0
    8.3705    3.4113    0.0000 H   0  0  0  0  0  0  0  0  0  0  0  0
   11.6108    0.9769    0.0000 H   0  0  0  0  0  0  0  0  0  0  0  0
   12.1478   -0.3331    0.0000 H   0  0  0  0  0  0  0  0  0  0  0  0
    6.0453    1.8226    0.0000 H   0  0  0  0  0  0  0  0  0  0  0  0
    5.5119    1.2303    0.0000 H   0  0  0  0  0  0  0  0  0  0  0  0
    7.4109    0.3878    0.0000 H   0  0  0  0  0  0  0  0  0  0  0  0
    8.2865    0.4337    0.0000 H   0  0  0  0  0  0  0  0  0  0  0  0
    8.2406    1.3093    0.0000 H   0  0  0  0  0  0  0  0  0  0  0  0
   10.5327   -0.5605    0.0000 H   0  0  0  0  0  0  0  0  0  0  0  0
   10.1342   -1.2507    0.0000 H   0  0  0  0  0  0  0  0  0  0  0  0
   12.4768   -1.7631    0.0000 H   0  0  0  0  0  0  0  0  0  0  0  0
    5.3172    0.3594    0.0000 H   0  0  0  0  0  0  0  0  0  0  0  0
    5.7947   -0.3760    0.0000 H   0  0  0  0  0  0  0  0  0  0  0  0
    6.5301    0.1016    0.0000 H   0  0  0  0  0  0  0  0  0  0  0  0
   12.4768    1.4769    0.0000 H   0  0  0  0  0  0  0  0  0  0  0  0
   14.2089   -0.5231    0.0000 H   0  0  0  0  0  0  0  0  0  0  0  0
   12.1478   -2.3331    0.0000 H   0  0  0  0  0  0  0  0  0  0  0  0
    9.3418   -2.3331    0.0000 H   0  0  0  0  0  0  0  0  0  0  0  0
   13.5983   -2.0354    0.0000 H   0  0  0  0  0  0  0  0  0  0  0  0
   13.9968   -2.7257    0.0000 H   0  0  0  0  0  0  0  0  0  0  0  0
   15.6119   -0.9531    0.0000 H   0  0  0  0  0  0  0  0  0  0  0  0
   12.1478   -3.9531    0.0000 H   0  0  0  0  0  0  0  0  0  0  0  0
    9.3418   -3.9531    0.0000 H   0  0  0  0  0  0  0  0  0  0  0  0
   10.7448   -4.7631    0.0000 H   0  0  0  0  0  0  0  0  0  0  0  0
   15.6119   -3.9531    0.0000 H   0  0  0  0  0  0  0  0  0  0  0  0
   14.5380   -3.9531    0.0000 H   0  0  0  0  0  0  0  0  0  0  0  0
   16.5609    2.8569    0.0000 H   0  0  0  0  0  0  0  0  0  0  0  0
   15.9409    3.4769    0.0000 H   0  0  0  0  0  0  0  0  0  0  0  0
   15.3209    2.8569    0.0000 H   0  0  0  0  0  0  0  0  0  0  0  0
   16.9409    1.2369    0.0000 H   0  0  0  0  0  0  0  0  0  0  0  0
   17.5609    1.8569    0.0000 H   0  0  0  0  0  0  0  0  0  0  0  0
   16.9409    2.4769    0.0000 H   0  0  0  0  0  0  0  0  0  0  0  0
   14.9409    2.4769    0.0000 H   0  0  0  0  0  0  0  0  0  0  0  0
   14.3209    1.8569    0.0000 H   0  0  0  0  0  0  0  0  0  0  0  0
   14.9409    1.2369    0.0000 H   0  0  0  0  0  0  0  0  0  0  0  0
  1 27  2  0  0  0  0
 31  2  1  1  0  0  0
  2 89  1  0  0  0  0
  3 29  2  0  0  0  0
  4 30  2  0  0  0  0
  5 38  2  0  0  0  0
  6 47  1  0  0  0  0
  6 48  1  0  0  0  0
  7 46  2  0  0  0  0
  8 47  2  0  0  0  0
  9 18  1  0  0  0  0
  9 25  1  0  0  0  0
  9 29  1  0  0  0  0
 10 23  1  0  0  0  0
 10 30  1  0  0  0  0
 10 74  1  0  0  0  0
 26 11  1  1  0  0  0
 11 27  1  0  0  0  0
 11 75  1  0  0  0  0
 32 12  1  1  0  0  0
 12 38  1  0  0  0  0
 12 85  1  0  0  0  0
 39 13  1  1  0  0  0
 13 47  1  0  0  0  0
 13 95  1  0  0  0  0
 14 46  1  0  0  0  0
 14 99  1  0  0  0  0
 14100  1  0  0  0  0
 15 16  1  0  0  0  0
 15 17  1  0  0  0  0
 15 23  1  0  0  0  0
 15 52  1  0  0  0  0
 16 19  1  0  0  0  0
 16 53  1  0  0  0  0
 16 54  1  0  0  0  0
 17 20  1  0  0  0  0
 17 55  1  0  0  0  0
 17 56  1  0  0  0  0
 18 22  1  0  0  0  0
 18 27  1  6  0  0  0
 18 57  1  0  0  0  0
 19 21  1  0  0  0  0
 19 58  1  0  0  0  0
 19 59  1  0  0  0  0
 20 21  1  0  0  0  0
 20 60  1  0  0  0  0
 20 61  1  0  0  0  0
 21 62  1  0  0  0  0
 21 63  1  0  0  0  0
 22 24  1  0  0  0  0
 22 64  1  0  0  0  0
 22 65  1  0  0  0  0
 23 66  1  0  0  0  0
 23 67  1  0  0  0  0
 24 25  1  0  0  0  0
 24 68  1  0  0  0  0
 24 69  1  0  0  0  0
 25 70  1  0  0  0  0
 25 71  1  0  0  0  0
 26 28  1  0  0  0  0
 26 30  1  0  0  0  0
 26 72  1  0  0  0  0
 28 33  1  0  0  0  0
 28 34  1  6  0  0  0
 28 73  1  0  0  0  0
 29 31  1  0  0  0  0
 31 32  1  0  0  0  0
 31 76  1  0  0  0  0
 32 35  1  0  0  0  0
 32 77  1  0  0  0  0
 33 36  1  0  0  0  0
 33 78  1  0  0  0  0
 33 79  1  0  0  0  0
 34 80  1  0  0  0  0
 34 81  1  0  0  0  0
 34 82  1  0  0  0  0
 35 37  1  0  0  0  0
 35 83  1  0  0  0  0
 35 84  1  0  0  0  0
 36 86  1  0  0  0  0
 36 87  1  0  0  0  0
 36 88  1  0  0  0  0
 37 40  2  0  0  0  0
 37 41  1  0  0  0  0
 38 39  1  0  0  0  0
 39 42  1  0  0  0  0
 39 90  1  0  0  0  0
 40 43  1  0  0  0  0
 40 91  1  0  0  0  0
 41 44  2  0  0  0  0
 41 92  1  0  0  0  0
 42 46  1  0  0  0  0
 42 93  1  0  0  0  0
 42 94  1  0  0  0  0
 43 45  2  0  0  0  0
 43 96  1  0  0  0  0
 44 45  1  0  0  0  0
 44 97  1  0  0  0  0
 45 98  1  0  0  0  0
 48 49  1  0  0  0  0
 48 50  1  0  0  0  0
 48 51  1  0  0  0  0
 49101  1  0  0  0  0
 49102  1  0  0  0  0
 49103  1  0  0  0  0
 50104  1  0  0  0  0
 50105  1  0  0  0  0
 50106  1  0  0  0  0
 51107  1  0  0  0  0
 51108  1  0  0  0  0
 51109  1  0  0  0  0
M  END
> <PUBCHEM_COMPOUND_CID>
501749
> <PUBCHEM_COMPOUND_CANONICALIZED>
1
> <PUBCHEM_CACTVS_COMPLEXITY>
1200
> <PUBCHEM_CACTVS_HBOND_ACCEPTOR>
8
> <PUBCHEM_CACTVS_HBOND_DONOR>
6
> <PUBCHEM_CACTVS_ROTATABLE_BOND>
18
> <PUBCHEM_CACTVS_SUBSKEYS>
AAADcfB/vAAAAAAAAAAAAAAAAAAAAWAAAAAwYAAAAAAAAAABAAAAHgAQCAAADXzhmAYyCIPABgCIAiFSGAICAAAgAAAIiIHIAIkKcDqA0TGcYAAklgCYiAedyaCOAAAAAAAAAAAAAAAAAAAAAAAAAAAAAA==
> <PUBCHEM_IUPAC_OPENEYE_NAME>
tert-butyl N-[(1S)-3-amino-1-[[(1S,2S)-1-benzyl-3-[(2S)-2-[[(1S,2R)-1-(cyclohexylmethylcarbamoyl)-2-methyl-butyl]carbamoyl]pyrrolidin-1-yl]-2-hydroxy-3-oxo-propyl]carbamoyl]-3-oxo-propyl]carbamate
> <PUBCHEM_IUPAC_CAS_NAME>
N-[(2S)-4-amino-1-[[(2S,3S)-4-[(2S)-2-[[[(2S,3R)-1-(cyclohexylmethylamino)-3-methyl-1-oxopentan-2-yl]amino]-oxomethyl]-1-pyrrolidinyl]-3-hydroxy-4-oxo-1-phenylbutan-2-yl]amino]-1,4-dioxobutan-2-yl]carbamic acid tert-butyl ester
> <PUBCHEM_IUPAC_NAME_MARKUP>
<I>tert</I>-butyl <I>N</I>-[(2<I>S</I>)-4-amino-1-[[(2<I>S</I>,3<I>S</I>)-4-[(2<I>S</I>)-2-[[(2<I>S</I>,3<I>R</I>)-1-(cyclohexylmethylamino)-3-methyl-1-oxopentan-2-yl]carbamoyl]pyrrolidin-1-yl]-3-hydroxy-4-oxo-1-phenylbutan-2-yl]amino]-1,4-dioxobutan-2-yl]carbamate
> <PUBCHEM_IUPAC_NAME>
tert-butyl N-[(2S)-4-amino-1-[[(2S,3S)-4-[(2S)-2-[[(2S,3R)-1-(cyclohexylmethylamino)-3-methyl-1-oxopentan-2-yl]carbamoyl]pyrrolidin-1-yl]-3-hydroxy-4-oxo-1-phenylbutan-2-yl]amino]-1,4-dioxobutan-2-yl]carbamate
> <PUBCHEM_IUPAC_SYSTEMATIC_NAME>
tert-butyl N-[(2S)-4-azanyl-1-[[(2S,3S)-4-[(2S)-2-[[(2S,3R)-1-(cyclohexylmethylamino)-3-methyl-1-oxidanylidene-pentan-2-yl]carbamoyl]pyrrolidin-1-yl]-3-oxidanyl-4-oxidanylidene-1-phenyl-butan-2-yl]amino]-1,4-bis(oxidanylidene)butan-2-yl]carbamate
> <PUBCHEM_IUPAC_TRADITIONAL_NAME>
N-[(1S)-3-amino-1-[[(1S,2S)-1-benzyl-3-[(2S)-2-[[(1S,2R)-1-(cyclohexylmethylcarbamoyl)-2-methyl-butyl]carbamoyl]pyrrolidino]-2-hydroxy-3-keto-propyl]carbamoyl]-3-keto-propyl]carbamic acid tert-butyl ester
> <PUBCHEM_IUPAC_INCHI>
InChI=1S/C37H58N6O8/c1-6-23(2)30(34(48)39-22-25-16-11-8-12-17-25)42-33(47)28-18-13-19-43(28)35(49)31(45)26(20-24-14-9-7-10-15-24)40-32(46)27(21-29(38)44)41-36(50)51-37(3,4)5/h7,9-10,14-15,23,25-28,30-31,45H,6,8,11-13,16-22H2,1-5H3,(H2,38,44)(H,39,48)(H,40,46)(H,41,50)(H,42,47)/t23-,26+,27+,28+,30+,31+/m1/s1
> <PUBCHEM_IUPAC_INCHIKEY>
PGHDLKBLWKJPDB-WYNXPTROSA-N
> <PUBCHEM_XLOGP3_AA>
3.4
> <PUBCHEM_EXACT_MASS>
714.43161283
> <PUBCHEM_MOLECULAR_FORMULA>
C37H58N6O8
> <PUBCHEM_MOLECULAR_WEIGHT>
714.9
> <PUBCHEM_OPENEYE_CAN_SMILES>
CCC(C)C(C(=O)NCC1CCCCC1)NC(=O)C2CCCN2C(=O)C(C(CC3=CC=CC=C3)NC(=O)C(CC(=O)N)NC(=O)OC(C)(C)C)O
> <PUBCHEM_OPENEYE_ISO_SMILES>
CC[C@@H](C)[C@@H](C(=O)NCC1CCCCC1)NC(=O)[C@@H]2CCCN2C(=O)[C@H]([C@H](CC3=CC=CC=C3)NC(=O)[C@H](CC(=O)N)NC(=O)OC(C)(C)C)O
> <PUBCHEM_CACTVS_TPSA>
209
> <PUBCHEM_MONOISOTOPIC_WEIGHT>
714.43161283
> <PUBCHEM_TOTAL_CHARGE>
0
> <PUBCHEM_HEAVY_ATOM_COUNT>
51
> <PUBCHEM_ATOM_DEF_STEREO_COUNT>
6
> <PUBCHEM_ATOM_UDEF_STEREO_COUNT>
0
> <PUBCHEM_BOND_DEF_STEREO_COUNT>
0
> <PUBCHEM_BOND_UDEF_STEREO_COUNT>
0
> <PUBCHEM_ISOTOPIC_ATOM_COUNT>
0
> <PUBCHEM_COMPONENT_COUNT>
1
> <PUBCHEM_CACTVS_TAUTO_COUNT>
-1
> <PUBCHEM_COORDINATE_TYPE>
1
5
255
> <PUBCHEM_BONDANNOTATIONS>
26  11  5
32  12  5
39  13  5
18  27  6
31  2  5
28  34  6
37  40  8
37  41  8
40  43  8
41  44  8
43  45  8
44  45  8
$$$$
