501774
  -OEChem-10302200282D
 90 92  0     1  0  0  0  0  0999 V2000
    8.8805    0.6495    0.0000 O   0  0  0  0  0  0  0  0  0  0  0  0
    6.2824    0.1495    0.0000 O   0  0  0  0  0  0  0  0  0  0  0  0
    5.1805    0.9501    0.0000 O   0  0  0  0  0  0  0  0  0  0  0  0
    2.0000    2.6485    0.0000 O   0  0  0  0  0  0  0  0  0  0  0  0
    9.7465    0.1495    0.0000 O   0  0  0  0  0  0  0  0  0  0  0  0
   10.6126    0.6495    0.0000 O   0  0  0  0  0  0  0  0  0  0  0  0
   12.3446   -2.3505    0.0000 O   0  0  0  0  0  0  0  0  0  0  0  0
    7.1485    1.6495    0.0000 N   0  0  0  0  0  0  0  0  0  0  0  0
    4.6453    2.5974    0.0000 N   0  0  0  0  0  0  0  0  0  0  0  0
    8.8805   -1.3505    0.0000 N   0  0  0  0  0  0  0  0  0  0  0  0
   11.4786   -0.8505    0.0000 N   0  0  0  0  0  0  0  0  0  0  0  0
    3.1590    3.9356    0.0000 N   0  0  0  0  0  0  0  0  0  0  0  0
   11.4786   -3.8505    0.0000 N   0  0  0  0  0  0  0  0  0  0  0  0
    6.3395    2.2373    0.0000 C   0  0  1  0  0  0  0  0  0  0  0  0
    6.6485    3.1883    0.0000 C   0  0  0  0  0  0  0  0  0  0  0  0
    7.6485    3.1883    0.0000 C   0  0  0  0  0  0  0  0  0  0  0  0
    7.9575    2.2373    0.0000 C   0  0  0  0  0  0  0  0  0  0  0  0
    7.1485    0.6495    0.0000 C   0  0  0  0  0  0  0  0  0  0  0  0
    5.3884    1.9283    0.0000 C   0  0  0  0  0  0  0  0  0  0  0  0
    8.0145    0.1495    0.0000 C   0  0  2  0  0  0  0  0  0  0  0  0
    8.0145   -0.8505    0.0000 C   0  0  2  0  0  0  0  0  0  0  0  0
    3.6942    2.2884    0.0000 C   0  0  1  0  0  0  0  0  0  0  0  0
    7.1485   -1.3505    0.0000 C   0  0  0  0  0  0  0  0  0  0  0  0
    3.4863    1.3102    0.0000 C   0  0  0  0  0  0  0  0  0  0  0  0
    7.1485   -2.3505    0.0000 C   0  0  0  0  0  0  0  0  0  0  0  0
    2.9511    2.9575    0.0000 C   0  0  0  0  0  0  0  0  0  0  0  0
    9.7465   -0.8505    0.0000 C   0  0  0  0  0  0  0  0  0  0  0  0
    2.5352    1.0012    0.0000 C   0  0  0  0  0  0  0  0  0  0  0  0
    4.2294    0.6411    0.0000 C   0  0  0  0  0  0  0  0  0  0  0  0
   10.6126   -1.3505    0.0000 C   0  0  2  0  0  0  0  0  0  0  0  0
    8.0145   -2.8505    0.0000 C   0  0  0  0  0  0  0  0  0  0  0  0
    6.2824   -2.8505    0.0000 C   0  0  0  0  0  0  0  0  0  0  0  0
   10.6126   -2.3505    0.0000 C   0  0  0  0  0  0  0  0  0  0  0  0
    8.0145   -3.8505    0.0000 C   0  0  0  0  0  0  0  0  0  0  0  0
    6.2824   -3.8505    0.0000 C   0  0  0  0  0  0  0  0  0  0  0  0
    7.1485   -4.3505    0.0000 C   0  0  0  0  0  0  0  0  0  0  0  0
   11.4786    0.1495    0.0000 C   0  0  0  0  0  0  0  0  0  0  0  0
   11.4786   -2.8505    0.0000 C   0  0  0  0  0  0  0  0  0  0  0  0
   12.3446    0.6495    0.0000 C   0  0  0  0  0  0  0  0  0  0  0  0
   12.3446    1.6495    0.0000 C   0  0  0  0  0  0  0  0  0  0  0  0
   13.2107    2.1495    0.0000 C   0  0  0  0  0  0  0  0  0  0  0  0
   14.0767    1.6495    0.0000 C   0  0  0  0  0  0  0  0  0  0  0  0
   13.2107    3.1495    0.0000 C   0  0  0  0  0  0  0  0  0  0  0  0
   14.9427    2.1495    0.0000 C   0  0  0  0  0  0  0  0  0  0  0  0
   14.0767    3.6495    0.0000 C   0  0  0  0  0  0  0  0  0  0  0  0
   14.9427    3.1495    0.0000 C   0  0  0  0  0  0  0  0  0  0  0  0
    6.2425    1.6249    0.0000 H   0  0  0  0  0  0  0  0  0  0  0  0
    6.7133    3.8049    0.0000 H   0  0  0  0  0  0  0  0  0  0  0  0
    6.0420    3.3172    0.0000 H   0  0  0  0  0  0  0  0  0  0  0  0
    8.2549    3.3172    0.0000 H   0  0  0  0  0  0  0  0  0  0  0  0
    7.5837    3.8049    0.0000 H   0  0  0  0  0  0  0  0  0  0  0  0
    8.2675    1.7003    0.0000 H   0  0  0  0  0  0  0  0  0  0  0  0
    8.5239    2.4894    0.0000 H   0  0  0  0  0  0  0  0  0  0  0  0
    8.0145    0.7695    0.0000 H   0  0  0  0  0  0  0  0  0  0  0  0
    8.5514   -0.5405    0.0000 H   0  0  0  0  0  0  0  0  0  0  0  0
    4.7742    3.2038    0.0000 H   0  0  0  0  0  0  0  0  0  0  0  0
    3.8231    2.8948    0.0000 H   0  0  0  0  0  0  0  0  0  0  0  0
    6.9364   -0.7679    0.0000 H   0  0  0  0  0  0  0  0  0  0  0  0
    6.5379   -1.4582    0.0000 H   0  0  0  0  0  0  0  0  0  0  0  0
    4.0759    1.5018    0.0000 H   0  0  0  0  0  0  0  0  0  0  0  0
    8.8805   -1.9705    0.0000 H   0  0  0  0  0  0  0  0  0  0  0  0
    8.8805    1.2695    0.0000 H   0  0  0  0  0  0  0  0  0  0  0  0
    2.3436    1.5909    0.0000 H   0  0  0  0  0  0  0  0  0  0  0  0
    1.9456    0.8096    0.0000 H   0  0  0  0  0  0  0  0  0  0  0  0
    2.7268    0.4116    0.0000 H   0  0  0  0  0  0  0  0  0  0  0  0
    3.8146    0.1803    0.0000 H   0  0  0  0  0  0  0  0  0  0  0  0
    4.6902    0.2262    0.0000 H   0  0  0  0  0  0  0  0  0  0  0  0
    4.6443    1.1018    0.0000 H   0  0  0  0  0  0  0  0  0  0  0  0
   10.6126   -0.7305    0.0000 H   0  0  0  0  0  0  0  0  0  0  0  0
    8.5514   -2.5405    0.0000 H   0  0  0  0  0  0  0  0  0  0  0  0
    5.7455   -2.5405    0.0000 H   0  0  0  0  0  0  0  0  0  0  0  0
   10.0020   -2.2428    0.0000 H   0  0  0  0  0  0  0  0  0  0  0  0
   10.4005   -2.9331    0.0000 H   0  0  0  0  0  0  0  0  0  0  0  0
   12.0155   -1.1605    0.0000 H   0  0  0  0  0  0  0  0  0  0  0  0
    2.6982    4.3505    0.0000 H   0  0  0  0  0  0  0  0  0  0  0  0
    3.7486    4.1272    0.0000 H   0  0  0  0  0  0  0  0  0  0  0  0
    8.5514   -4.1605    0.0000 H   0  0  0  0  0  0  0  0  0  0  0  0
    5.7455   -4.1605    0.0000 H   0  0  0  0  0  0  0  0  0  0  0  0
    7.1485   -4.9705    0.0000 H   0  0  0  0  0  0  0  0  0  0  0  0
   12.5567    0.0669    0.0000 H   0  0  0  0  0  0  0  0  0  0  0  0
   12.9552    0.7572    0.0000 H   0  0  0  0  0  0  0  0  0  0  0  0
   12.1326    2.2321    0.0000 H   0  0  0  0  0  0  0  0  0  0  0  0
   11.7340    1.5418    0.0000 H   0  0  0  0  0  0  0  0  0  0  0  0
   12.0155   -4.1605    0.0000 H   0  0  0  0  0  0  0  0  0  0  0  0
   10.9417   -4.1605    0.0000 H   0  0  0  0  0  0  0  0  0  0  0  0
   14.0767    1.0295    0.0000 H   0  0  0  0  0  0  0  0  0  0  0  0
   12.6737    3.4595    0.0000 H   0  0  0  0  0  0  0  0  0  0  0  0
   15.4796    1.8395    0.0000 H   0  0  0  0  0  0  0  0  0  0  0  0
   14.0767    4.2695    0.0000 H   0  0  0  0  0  0  0  0  0  0  0  0
   15.4796    3.4595    0.0000 H   0  0  0  0  0  0  0  0  0  0  0  0
 20  1  1  1  0  0  0
  1 62  1  0  0  0  0
  2 18  2  0  0  0  0
  3 19  2  0  0  0  0
  4 26  2  0  0  0  0
  5 27  2  0  0  0  0
  6 37  2  0  0  0  0
  7 38  2  0  0  0  0
  8 14  1  0  0  0  0
  8 17  1  0  0  0  0
  8 18  1  0  0  0  0
  9 19  1  0  0  0  0
 22  9  1  1  0  0  0
  9 56  1  0  0  0  0
 21 10  1  1  0  0  0
 10 27  1  0  0  0  0
 10 61  1  0  0  0  0
 30 11  1  1  0  0  0
 11 37  1  0  0  0  0
 11 74  1  0  0  0  0
 12 26  1  0  0  0  0
 12 75  1  0  0  0  0
 12 76  1  0  0  0  0
 13 38  1  0  0  0  0
 13 84  1  0  0  0  0
 13 85  1  0  0  0  0
 14 15  1  0  0  0  0
 14 19  1  6  0  0  0
 14 47  1  0  0  0  0
 15 16  1  0  0  0  0
 15 48  1  0  0  0  0
 15 49  1  0  0  0  0
 16 17  1  0  0  0  0
 16 50  1  0  0  0  0
 16 51  1  0  0  0  0
 17 52  1  0  0  0  0
 17 53  1  0  0  0  0
 18 20  1  0  0  0  0
 20 21  1  0  0  0  0
 20 54  1  0  0  0  0
 21 23  1  0  0  0  0
 21 55  1  0  0  0  0
 22 24  1  0  0  0  0
 22 26  1  0  0  0  0
 22 57  1  0  0  0  0
 23 25  1  0  0  0  0
 23 58  1  0  0  0  0
 23 59  1  0  0  0  0
 24 28  1  0  0  0  0
 24 29  1  0  0  0  0
 24 60  1  0  0  0  0
 25 31  2  0  0  0  0
 25 32  1  0  0  0  0
 27 30  1  0  0  0  0
 28 63  1  0  0  0  0
 28 64  1  0  0  0  0
 28 65  1  0  0  0  0
 29 66  1  0  0  0  0
 29 67  1  0  0  0  0
 29 68  1  0  0  0  0
 30 33  1  0  0  0  0
 30 69  1  0  0  0  0
 31 34  1  0  0  0  0
 31 70  1  0  0  0  0
 32 35  2  0  0  0  0
 32 71  1  0  0  0  0
 33 38  1  0  0  0  0
 33 72  1  0  0  0  0
 33 73  1  0  0  0  0
 34 36  2  0  0  0  0
 34 77  1  0  0  0  0
 35 36  1  0  0  0  0
 35 78  1  0  0  0  0
 36 79  1  0  0  0  0
 37 39  1  0  0  0  0
 39 40  1  0  0  0  0
 39 80  1  0  0  0  0
 39 81  1  0  0  0  0
 40 41  1  0  0  0  0
 40 82  1  0  0  0  0
 40 83  1  0  0  0  0
 41 42  2  0  0  0  0
 41 43  1  0  0  0  0
 42 44  1  0  0  0  0
 42 86  1  0  0  0  0
 43 45  2  0  0  0  0
 43 87  1  0  0  0  0
 44 46  2  0  0  0  0
 44 88  1  0  0  0  0
 45 46  1  0  0  0  0
 45 89  1  0  0  0  0
 46 90  1  0  0  0  0
M  END
> <PUBCHEM_COMPOUND_CID>
501774
> <PUBCHEM_COMPOUND_CANONICALIZED>
1
> <PUBCHEM_CACTVS_COMPLEXITY>
1070
> <PUBCHEM_CACTVS_HBOND_ACCEPTOR>
7
> <PUBCHEM_CACTVS_HBOND_DONOR>
6
> <PUBCHEM_CACTVS_ROTATABLE_BOND>
16
> <PUBCHEM_CACTVS_SUBSKEYS>
AAADcfB/uAAAAAAAAAAAAAAAAAAAAWAAAAAwYAAAAAAAAAABQAAAHgAQCAAADTzhmAYyAIPAAgCIAiFSEAICAAAgAAAIiIHIAIgKcDqA0TGUYAAklgCYiAedyaCOAAAAAAAAAAAAAAAAAAAAAAAAAAAAAA==
> <PUBCHEM_IUPAC_OPENEYE_NAME>
(2S)-N-[(1S,2S)-1-benzyl-3-[(2S)-2-[[(1S)-1-carbamoyl-2-methyl-propyl]carbamoyl]pyrrolidin-1-yl]-2-hydroxy-3-oxo-propyl]-2-(3-phenylpropanoylamino)butanediamide
> <PUBCHEM_IUPAC_CAS_NAME>
(2S)-N-[(2S,3S)-4-[(2S)-2-[[[(2S)-1-amino-3-methyl-1-oxobutan-2-yl]amino]-oxomethyl]-1-pyrrolidinyl]-3-hydroxy-4-oxo-1-phenylbutan-2-yl]-2-[(1-oxo-3-phenylpropyl)amino]butanediamide
> <PUBCHEM_IUPAC_NAME_MARKUP>
(2<I>S</I>)-<I>N</I>-[(2<I>S</I>,3<I>S</I>)-4-[(2<I>S</I>)-2-[[(2<I>S</I>)-1-amino-3-methyl-1-oxobutan-2-yl]carbamoyl]pyrrolidin-1-yl]-3-hydroxy-4-oxo-1-phenylbutan-2-yl]-2-(3-phenylpropanoylamino)butanediamide
> <PUBCHEM_IUPAC_NAME>
(2S)-N-[(2S,3S)-4-[(2S)-2-[[(2S)-1-amino-3-methyl-1-oxobutan-2-yl]carbamoyl]pyrrolidin-1-yl]-3-hydroxy-4-oxo-1-phenylbutan-2-yl]-2-(3-phenylpropanoylamino)butanediamide
> <PUBCHEM_IUPAC_SYSTEMATIC_NAME>
(2S)-N-[(2S,3S)-4-[(2S)-2-[[(2S)-1-azanyl-3-methyl-1-oxidanylidene-butan-2-yl]carbamoyl]pyrrolidin-1-yl]-3-oxidanyl-4-oxidanylidene-1-phenyl-butan-2-yl]-2-(3-phenylpropanoylamino)butanediamide
> <PUBCHEM_IUPAC_TRADITIONAL_NAME>
(2S)-N-[(1S,2S)-1-benzyl-3-[(2S)-2-[[(1S)-1-carbamoyl-2-methyl-propyl]carbamoyl]pyrrolidino]-2-hydroxy-3-keto-propyl]-2-(hydrocinnamoylamino)succinamide
> <PUBCHEM_IUPAC_INCHI>
InChI=1S/C33H44N6O7/c1-20(2)28(30(35)43)38-32(45)25-14-9-17-39(25)33(46)29(42)23(18-22-12-7-4-8-13-22)37-31(44)24(19-26(34)40)36-27(41)16-15-21-10-5-3-6-11-21/h3-8,10-13,20,23-25,28-29,42H,9,14-19H2,1-2H3,(H2,34,40)(H2,35,43)(H,36,41)(H,37,44)(H,38,45)/t23-,24-,25-,28-,29-/m0/s1
> <PUBCHEM_IUPAC_INCHIKEY>
GPTQMLHTWLIRMJ-ROFHDDJXSA-N
> <PUBCHEM_XLOGP3_AA>
0.7
> <PUBCHEM_EXACT_MASS>
636.32714776
> <PUBCHEM_MOLECULAR_FORMULA>
C33H44N6O7
> <PUBCHEM_MOLECULAR_WEIGHT>
636.7
> <PUBCHEM_OPENEYE_CAN_SMILES>
CC(C)C(C(=O)N)NC(=O)C1CCCN1C(=O)C(C(CC2=CC=CC=C2)NC(=O)C(CC(=O)N)NC(=O)CCC3=CC=CC=C3)O
> <PUBCHEM_OPENEYE_ISO_SMILES>
CC(C)[C@@H](C(=O)N)NC(=O)[C@@H]1CCCN1C(=O)[C@H]([C@H](CC2=CC=CC=C2)NC(=O)[C@H](CC(=O)N)NC(=O)CCC3=CC=CC=C3)O
> <PUBCHEM_CACTVS_TPSA>
214
> <PUBCHEM_MONOISOTOPIC_WEIGHT>
636.32714776
> <PUBCHEM_TOTAL_CHARGE>
0
> <PUBCHEM_HEAVY_ATOM_COUNT>
46
> <PUBCHEM_ATOM_DEF_STEREO_COUNT>
5
> <PUBCHEM_ATOM_UDEF_STEREO_COUNT>
0
> <PUBCHEM_BOND_DEF_STEREO_COUNT>
0
> <PUBCHEM_BOND_UDEF_STEREO_COUNT>
0
> <PUBCHEM_ISOTOPIC_ATOM_COUNT>
0
> <PUBCHEM_COMPONENT_COUNT>
1
> <PUBCHEM_CACTVS_TAUTO_COUNT>
-1
> <PUBCHEM_COORDINATE_TYPE>
1
5
255
> <PUBCHEM_BONDANNOTATIONS>
20  1  5
21  10  5
30  11  5
14  19  6
25  31  8
25  32  8
31  34  8
32  35  8
34  36  8
35  36  8
41  42  8
41  43  8
42  44  8
43  45  8
44  46  8
45  46  8
22  9  5
$$$$
