501705
  -OEChem-10302200282D
 46 49  0     1  0  0  0  0  0999 V2000
    4.6870   -0.3495    0.0000 O   0  0  0  0  0  0  0  0  0  0  0  0
    4.1111    2.1732    0.0000 O   0  0  0  0  0  0  0  0  0  0  0  0
    2.6166   -0.6244    0.0000 O   0  0  0  0  0  0  0  0  0  0  0  0
    9.1448   -1.7475    0.0000 O   0  0  0  0  0  0  0  0  0  0  0  0
    5.6005   -1.9428    0.0000 O   0  0  0  0  0  0  0  0  0  0  0  0
    6.4666   -0.4428    0.0000 N   0  0  0  0  0  0  0  0  0  0  0  0
    7.3326   -1.9428    0.0000 N   0  0  0  0  0  0  0  0  0  0  0  0
    4.5179    1.2597    0.0000 C   0  0  1  0  0  0  0  0  0  0  0  0
    5.6005    0.0572    0.0000 C   0  0  1  0  0  0  0  0  0  0  0  0
    5.4960    1.0518    0.0000 C   0  0  0  0  0  0  0  0  0  0  0  0
    4.0179    0.3936    0.0000 C   0  0  1  0  0  0  0  0  0  0  0  0
    3.0233    0.2891    0.0000 C   0  0  0  0  0  0  0  0  0  0  0  0
    7.3326    0.0572    0.0000 C   0  0  0  0  0  0  0  0  0  0  0  0
    6.4666   -1.4428    0.0000 C   0  0  0  0  0  0  0  0  0  0  0  0
    8.1986   -0.4428    0.0000 C   0  0  0  0  0  0  0  0  0  0  0  0
    8.1986   -1.4428    0.0000 C   0  0  0  0  0  0  0  0  0  0  0  0
    9.1448   -0.1380    0.0000 C   0  0  0  0  0  0  0  0  0  0  0  0
    9.7284   -0.9428    0.0000 C   0  0  0  0  0  0  0  0  0  0  0  0
   10.7284   -0.9428    0.0000 C   0  0  0  0  0  0  0  0  0  0  0  0
   11.2284   -1.8088    0.0000 C   0  0  0  0  0  0  0  0  0  0  0  0
   12.2284   -1.8088    0.0000 C   0  0  0  0  0  0  0  0  0  0  0  0
   12.7284   -0.9428    0.0000 C   0  0  0  0  0  0  0  0  0  0  0  0
   12.7284   -2.6748    0.0000 C   0  0  0  0  0  0  0  0  0  0  0  0
   13.7284   -0.9428    0.0000 C   0  0  0  0  0  0  0  0  0  0  0  0
   13.7284   -2.6748    0.0000 C   0  0  0  0  0  0  0  0  0  0  0  0
   14.2284   -1.8088    0.0000 C   0  0  0  0  0  0  0  0  0  0  0  0
    4.9080    1.7415    0.0000 H   0  0  0  0  0  0  0  0  0  0  0  0
    5.5681   -0.5619    0.0000 H   0  0  0  0  0  0  0  0  0  0  0  0
    6.1160    1.0518    0.0000 H   0  0  0  0  0  0  0  0  0  0  0  0
    5.5608    1.6684    0.0000 H   0  0  0  0  0  0  0  0  0  0  0  0
    3.7957   -0.1852    0.0000 H   0  0  0  0  0  0  0  0  0  0  0  0
    3.0666    0.9076    0.0000 H   0  0  0  0  0  0  0  0  0  0  0  0
    2.4218    0.4391    0.0000 H   0  0  0  0  0  0  0  0  0  0  0  0
    7.3326    0.6772    0.0000 H   0  0  0  0  0  0  0  0  0  0  0  0
    4.4756    2.6748    0.0000 H   0  0  0  0  0  0  0  0  0  0  0  0
    9.3374    0.4513    0.0000 H   0  0  0  0  0  0  0  0  0  0  0  0
   11.3111   -0.7307    0.0000 H   0  0  0  0  0  0  0  0  0  0  0  0
   10.6208   -0.3322    0.0000 H   0  0  0  0  0  0  0  0  0  0  0  0
    2.0000   -0.6892    0.0000 H   0  0  0  0  0  0  0  0  0  0  0  0
   10.6458   -2.0208    0.0000 H   0  0  0  0  0  0  0  0  0  0  0  0
   11.3361   -2.4194    0.0000 H   0  0  0  0  0  0  0  0  0  0  0  0
   12.4184   -0.4058    0.0000 H   0  0  0  0  0  0  0  0  0  0  0  0
   12.4184   -3.2118    0.0000 H   0  0  0  0  0  0  0  0  0  0  0  0
   14.0384   -0.4058    0.0000 H   0  0  0  0  0  0  0  0  0  0  0  0
   14.0384   -3.2118    0.0000 H   0  0  0  0  0  0  0  0  0  0  0  0
   14.8484   -1.8088    0.0000 H   0  0  0  0  0  0  0  0  0  0  0  0
  1  9  1  0  0  0  0
  1 11  1  0  0  0  0
  8  2  1  1  0  0  0
  2 35  1  0  0  0  0
  3 12  1  0  0  0  0
  3 39  1  0  0  0  0
  4 16  1  0  0  0  0
  4 18  1  0  0  0  0
  5 14  2  0  0  0  0
  9  6  1  6  0  0  0
  6 13  1  0  0  0  0
  6 14  1  0  0  0  0
  7 14  1  0  0  0  0
  7 16  2  0  0  0  0
  8 10  1  0  0  0  0
  8 11  1  0  0  0  0
  8 27  1  0  0  0  0
  9 10  1  0  0  0  0
  9 28  1  0  0  0  0
 10 29  1  0  0  0  0
 10 30  1  0  0  0  0
 11 12  1  6  0  0  0
 11 31  1  0  0  0  0
 12 32  1  0  0  0  0
 12 33  1  0  0  0  0
 13 15  2  0  0  0  0
 13 34  1  0  0  0  0
 15 16  1  0  0  0  0
 15 17  1  0  0  0  0
 17 18  2  0  0  0  0
 17 36  1  0  0  0  0
 18 19  1  0  0  0  0
 19 20  1  0  0  0  0
 19 37  1  0  0  0  0
 19 38  1  0  0  0  0
 20 21  1  0  0  0  0
 20 40  1  0  0  0  0
 20 41  1  0  0  0  0
 21 22  2  0  0  0  0
 21 23  1  0  0  0  0
 22 24  1  0  0  0  0
 22 42  1  0  0  0  0
 23 25  2  0  0  0  0
 23 43  1  0  0  0  0
 24 26  2  0  0  0  0
 24 44  1  0  0  0  0
 25 26  1  0  0  0  0
 25 45  1  0  0  0  0
 26 46  1  0  0  0  0
M  END
> <PUBCHEM_COMPOUND_CID>
501705
> <PUBCHEM_COMPOUND_CANONICALIZED>
1
> <PUBCHEM_CACTVS_COMPLEXITY>
650
> <PUBCHEM_CACTVS_HBOND_ACCEPTOR>
5
> <PUBCHEM_CACTVS_HBOND_DONOR>
2
> <PUBCHEM_CACTVS_ROTATABLE_BOND>
5
> <PUBCHEM_CACTVS_SUBSKEYS>
AAADceB7OAAAAAAAAAAAAAAAAAAAASIAAAAwQAAAAAAAAEABAAAAHgAACAAADBThmAYxAIMABgCoAiBmVAACCAAgIAAIiAAoAJiJNCKAsRCOYAAnxgILqAew8KIOAAAAAAAAAAAAAAAAAAAAAAAAAAAAAA==
> <PUBCHEM_IUPAC_OPENEYE_NAME>
3-[(2R,4S,5R)-4-hydroxy-5-(hydroxymethyl)tetrahydrofuran-2-yl]-6-(2-phenylethyl)furo[2,3-d]pyrimidin-2-one
> <PUBCHEM_IUPAC_CAS_NAME>
3-[(2R,4S,5R)-4-hydroxy-5-(hydroxymethyl)-2-oxolanyl]-6-(2-phenylethyl)-2-furo[2,3-d]pyrimidinone
> <PUBCHEM_IUPAC_NAME_MARKUP>
3-[(2<I>R</I>,4<I>S</I>,5<I>R</I>)-4-hydroxy-5-(hydroxymethyl)oxolan-2-yl]-6-(2-phenylethyl)furo[2,3-d]pyrimidin-2-one
> <PUBCHEM_IUPAC_NAME>
3-[(2R,4S,5R)-4-hydroxy-5-(hydroxymethyl)oxolan-2-yl]-6-(2-phenylethyl)furo[2,3-d]pyrimidin-2-one
> <PUBCHEM_IUPAC_SYSTEMATIC_NAME>
3-[(2R,4S,5R)-5-(hydroxymethyl)-4-oxidanyl-oxolan-2-yl]-6-(2-phenylethyl)furo[2,3-d]pyrimidin-2-one
> <PUBCHEM_IUPAC_TRADITIONAL_NAME>
3-[(2R,4S,5R)-4-hydroxy-5-methylol-tetrahydrofuran-2-yl]-6-phenethyl-furo[2,3-d]pyrimidin-2-one
> <PUBCHEM_IUPAC_INCHI>
InChI=1S/C19H20N2O5/c22-11-16-15(23)9-17(26-16)21-10-13-8-14(25-18(13)20-19(21)24)7-6-12-4-2-1-3-5-12/h1-5,8,10,15-17,22-23H,6-7,9,11H2/t15-,16+,17+/m0/s1
> <PUBCHEM_IUPAC_INCHIKEY>
CPDIRLDGFMUPGP-GVDBMIGSSA-N
> <PUBCHEM_XLOGP3_AA>
1.7
> <PUBCHEM_EXACT_MASS>
356.13722174
> <PUBCHEM_MOLECULAR_FORMULA>
C19H20N2O5
> <PUBCHEM_MOLECULAR_WEIGHT>
356.4
> <PUBCHEM_OPENEYE_CAN_SMILES>
C1C(C(OC1N2C=C3C=C(OC3=NC2=O)CCC4=CC=CC=C4)CO)O
> <PUBCHEM_OPENEYE_ISO_SMILES>
C1[C@@H]([C@H](O[C@H]1N2C=C3C=C(OC3=NC2=O)CCC4=CC=CC=C4)CO)O
> <PUBCHEM_CACTVS_TPSA>
91.6
> <PUBCHEM_MONOISOTOPIC_WEIGHT>
356.13722174
> <PUBCHEM_TOTAL_CHARGE>
0
> <PUBCHEM_HEAVY_ATOM_COUNT>
26
> <PUBCHEM_ATOM_DEF_STEREO_COUNT>
3
> <PUBCHEM_ATOM_UDEF_STEREO_COUNT>
0
> <PUBCHEM_BOND_DEF_STEREO_COUNT>
0
> <PUBCHEM_BOND_UDEF_STEREO_COUNT>
0
> <PUBCHEM_ISOTOPIC_ATOM_COUNT>
0
> <PUBCHEM_COMPONENT_COUNT>
1
> <PUBCHEM_CACTVS_TAUTO_COUNT>
-1
> <PUBCHEM_COORDINATE_TYPE>
1
5
255
> <PUBCHEM_BONDANNOTATIONS>
11  12  6
13  15  8
15  16  8
15  17  8
17  18  8
8  2  5
21  22  8
21  23  8
22  24  8
23  25  8
24  26  8
25  26  8
4  16  8
4  18  8
6  13  8
6  14  8
9  6  6
7  14  8
7  16  8
$$$$
