501793
  -OEChem-10302200282D
 95 98  0     1  0  0  0  0  0999 V2000
    9.6818   -4.4698    0.0000 S   0  0  0  0  0  0  0  0  0  0  0  0
    8.9774   -1.2133    0.0000 O   0  0  0  0  0  0  0  0  0  0  0  0
    6.8671   -4.2673    0.0000 O   0  0  0  0  0  0  0  0  0  0  0  0
    7.7331   -1.7673    0.0000 O   0  0  0  0  0  0  0  0  0  0  0  0
    4.2690   -1.7673    0.0000 O   0  0  0  0  0  0  0  0  0  0  0  0
    6.8671    1.7327    0.0000 O   0  0  0  0  0  0  0  0  0  0  0  0
    3.4030   -1.2673    0.0000 O   0  0  0  0  0  0  0  0  0  0  0  0
    5.1350    1.7327    0.0000 O   0  0  0  0  0  0  0  0  0  0  0  0
    7.7331    3.2327    0.0000 O   0  0  0  0  0  0  0  0  0  0  0  0
    8.5991   -3.2673    0.0000 N   0  0  0  0  0  0  0  0  0  0  0  0
   10.6716   -1.5734    0.0000 N   0  0  0  0  0  0  0  0  0  0  0  0
    6.0010   -1.7673    0.0000 N   0  0  0  0  0  0  0  0  0  0  0  0
    6.0010    0.2327    0.0000 N   0  0  0  0  0  0  0  0  0  0  0  0
    2.5369    0.2327    0.0000 N   0  0  0  0  0  0  0  0  0  0  0  0
   10.1818   -3.6037    0.0000 C   0  0  0  0  0  0  0  0  0  0  0  0
    9.5127   -2.8606    0.0000 C   0  0  3  0  0  0  0  0  0  0  0  0
    8.7036   -4.2618    0.0000 C   0  0  0  0  0  0  0  0  0  0  0  0
   11.0478   -4.1037    0.0000 C   0  0  0  0  0  0  0  0  0  0  0  0
   10.9249   -2.9346    0.0000 C   0  0  0  0  0  0  0  0  0  0  0  0
    9.7206   -1.8824    0.0000 C   0  0  0  0  0  0  0  0  0  0  0  0
    7.7331   -2.7673    0.0000 C   0  0  0  0  0  0  0  0  0  0  0  0
    6.8671   -3.2673    0.0000 C   0  0  2  0  0  0  0  0  0  0  0  0
    6.0010   -2.7673    0.0000 C   0  0  2  0  0  0  0  0  0  0  0  0
   10.8795   -0.5953    0.0000 C   0  0  0  0  0  0  0  0  0  0  0  0
    5.1350   -3.2673    0.0000 C   0  0  0  0  0  0  0  0  0  0  0  0
   11.0875    0.3829    0.0000 C   0  0  0  0  0  0  0  0  0  0  0  0
   11.8577   -0.8032    0.0000 C   0  0  0  0  0  0  0  0  0  0  0  0
    9.9014   -0.3874    0.0000 C   0  0  0  0  0  0  0  0  0  0  0  0
    5.1350   -4.2673    0.0000 C   0  0  0  0  0  0  0  0  0  0  0  0
    5.1350   -1.2673    0.0000 C   0  0  0  0  0  0  0  0  0  0  0  0
    5.1350   -0.2673    0.0000 C   0  0  2  0  0  0  0  0  0  0  0  0
    4.2690   -4.7673    0.0000 C   0  0  0  0  0  0  0  0  0  0  0  0
    6.0010   -4.7673    0.0000 C   0  0  0  0  0  0  0  0  0  0  0  0
    4.2690    0.2327    0.0000 C   0  0  0  0  0  0  0  0  0  0  0  0
    4.2690   -5.7673    0.0000 C   0  0  0  0  0  0  0  0  0  0  0  0
    6.0010   -5.7673    0.0000 C   0  0  0  0  0  0  0  0  0  0  0  0
    5.1350   -6.2673    0.0000 C   0  0  0  0  0  0  0  0  0  0  0  0
    3.4030   -0.2673    0.0000 C   0  0  0  0  0  0  0  0  0  0  0  0
    6.0010    1.2327    0.0000 C   0  0  0  0  0  0  0  0  0  0  0  0
    6.8671    2.7327    0.0000 C   0  0  0  0  0  0  0  0  0  0  0  0
    7.7331    4.2327    0.0000 C   0  0  0  0  0  0  0  0  0  0  0  0
    8.5991    4.7327    0.0000 C   0  0  0  0  0  0  0  0  0  0  0  0
    8.5991    5.7327    0.0000 C   0  0  0  0  0  0  0  0  0  0  0  0
    6.8671    4.7327    0.0000 C   0  0  0  0  0  0  0  0  0  0  0  0
    9.4931    4.1980    0.0000 C   0  0  0  0  0  0  0  0  0  0  0  0
    7.7331    6.2327    0.0000 C   0  0  0  0  0  0  0  0  0  0  0  0
    6.8671    5.7327    0.0000 C   0  0  0  0  0  0  0  0  0  0  0  0
    9.4931    6.2673    0.0000 C   0  0  0  0  0  0  0  0  0  0  0  0
   10.3991    4.7118    0.0000 C   0  0  0  0  0  0  0  0  0  0  0  0
   10.3991    5.7535    0.0000 C   0  0  0  0  0  0  0  0  0  0  0  0
    9.0308   -2.4704    0.0000 H   0  0  0  0  0  0  0  0  0  0  0  0
    8.0836   -4.2618    0.0000 H   0  0  0  0  0  0  0  0  0  0  0  0
    8.6388   -4.8785    0.0000 H   0  0  0  0  0  0  0  0  0  0  0  0
   10.7378   -4.6407    0.0000 H   0  0  0  0  0  0  0  0  0  0  0  0
   11.5848   -4.4137    0.0000 H   0  0  0  0  0  0  0  0  0  0  0  0
   11.3578   -3.5668    0.0000 H   0  0  0  0  0  0  0  0  0  0  0  0
   11.3398   -3.3954    0.0000 H   0  0  0  0  0  0  0  0  0  0  0  0
   11.3857   -2.5198    0.0000 H   0  0  0  0  0  0  0  0  0  0  0  0
   10.5101   -2.4739    0.0000 H   0  0  0  0  0  0  0  0  0  0  0  0
    6.3301   -3.5773    0.0000 H   0  0  0  0  0  0  0  0  0  0  0  0
    6.5380   -2.4573    0.0000 H   0  0  0  0  0  0  0  0  0  0  0  0
   11.1324   -1.9883    0.0000 H   0  0  0  0  0  0  0  0  0  0  0  0
    4.9230   -2.6847    0.0000 H   0  0  0  0  0  0  0  0  0  0  0  0
    4.5244   -3.3750    0.0000 H   0  0  0  0  0  0  0  0  0  0  0  0
   11.6939    0.2540    0.0000 H   0  0  0  0  0  0  0  0  0  0  0  0
   11.2164    0.9893    0.0000 H   0  0  0  0  0  0  0  0  0  0  0  0
   10.4810    0.5118    0.0000 H   0  0  0  0  0  0  0  0  0  0  0  0
   11.7288   -1.4096    0.0000 H   0  0  0  0  0  0  0  0  0  0  0  0
   12.4641   -0.9321    0.0000 H   0  0  0  0  0  0  0  0  0  0  0  0
   11.9866   -0.1967    0.0000 H   0  0  0  0  0  0  0  0  0  0  0  0
   10.0303    0.2191    0.0000 H   0  0  0  0  0  0  0  0  0  0  0  0
    9.2949   -0.2585    0.0000 H   0  0  0  0  0  0  0  0  0  0  0  0
    9.7725   -0.9938    0.0000 H   0  0  0  0  0  0  0  0  0  0  0  0
    6.5380   -1.4573    0.0000 H   0  0  0  0  0  0  0  0  0  0  0  0
    7.4040   -4.5773    0.0000 H   0  0  0  0  0  0  0  0  0  0  0  0
    5.1350    0.3527    0.0000 H   0  0  0  0  0  0  0  0  0  0  0  0
    3.7320   -4.4573    0.0000 H   0  0  0  0  0  0  0  0  0  0  0  0
    6.5380   -4.4573    0.0000 H   0  0  0  0  0  0  0  0  0  0  0  0
    4.6675    0.7076    0.0000 H   0  0  0  0  0  0  0  0  0  0  0  0
    3.8705    0.7076    0.0000 H   0  0  0  0  0  0  0  0  0  0  0  0
    6.5380   -0.0773    0.0000 H   0  0  0  0  0  0  0  0  0  0  0  0
    3.7320   -6.0773    0.0000 H   0  0  0  0  0  0  0  0  0  0  0  0
    6.5380   -6.0773    0.0000 H   0  0  0  0  0  0  0  0  0  0  0  0
    5.1350   -6.8873    0.0000 H   0  0  0  0  0  0  0  0  0  0  0  0
    2.0000   -0.0773    0.0000 H   0  0  0  0  0  0  0  0  0  0  0  0
    2.5369    0.8527    0.0000 H   0  0  0  0  0  0  0  0  0  0  0  0
    6.6550    3.3153    0.0000 H   0  0  0  0  0  0  0  0  0  0  0  0
    6.2565    2.6250    0.0000 H   0  0  0  0  0  0  0  0  0  0  0  0
    6.3301    4.4227    0.0000 H   0  0  0  0  0  0  0  0  0  0  0  0
    9.4859    3.5780    0.0000 H   0  0  0  0  0  0  0  0  0  0  0  0
    7.7331    6.8527    0.0000 H   0  0  0  0  0  0  0  0  0  0  0  0
    6.3301    6.0427    0.0000 H   0  0  0  0  0  0  0  0  0  0  0  0
    9.4859    6.8873    0.0000 H   0  0  0  0  0  0  0  0  0  0  0  0
   10.9349    4.3998    0.0000 H   0  0  0  0  0  0  0  0  0  0  0  0
   10.9349    6.0656    0.0000 H   0  0  0  0  0  0  0  0  0  0  0  0
  1 15  1  0  0  0  0
  1 17  1  0  0  0  0
  2 20  2  0  0  0  0
 22  3  1  1  0  0  0
  3 75  1  0  0  0  0
  4 21  2  0  0  0  0
  5 30  2  0  0  0  0
  6 39  1  0  0  0  0
  6 40  1  0  0  0  0
  7 38  2  0  0  0  0
  8 39  2  0  0  0  0
  9 40  1  0  0  0  0
  9 41  1  0  0  0  0
 10 16  1  0  0  0  0
 10 17  1  0  0  0  0
 10 21  1  0  0  0  0
 11 20  1  0  0  0  0
 11 24  1  0  0  0  0
 11 62  1  0  0  0  0
 23 12  1  6  0  0  0
 12 30  1  0  0  0  0
 12 74  1  0  0  0  0
 31 13  1  6  0  0  0
 13 39  1  0  0  0  0
 13 81  1  0  0  0  0
 14 38  1  0  0  0  0
 14 85  1  0  0  0  0
 14 86  1  0  0  0  0
 15 16  1  0  0  0  0
 15 18  1  0  0  0  0
 15 19  1  0  0  0  0
 16 20  1  0  0  0  0
 16 51  1  0  0  0  0
 17 52  1  0  0  0  0
 17 53  1  0  0  0  0
 18 54  1  0  0  0  0
 18 55  1  0  0  0  0
 18 56  1  0  0  0  0
 19 57  1  0  0  0  0
 19 58  1  0  0  0  0
 19 59  1  0  0  0  0
 21 22  1  0  0  0  0
 22 23  1  0  0  0  0
 22 60  1  0  0  0  0
 23 25  1  0  0  0  0
 23 61  1  0  0  0  0
 24 26  1  0  0  0  0
 24 27  1  0  0  0  0
 24 28  1  0  0  0  0
 25 29  1  0  0  0  0
 25 63  1  0  0  0  0
 25 64  1  0  0  0  0
 26 65  1  0  0  0  0
 26 66  1  0  0  0  0
 26 67  1  0  0  0  0
 27 68  1  0  0  0  0
 27 69  1  0  0  0  0
 27 70  1  0  0  0  0
 28 71  1  0  0  0  0
 28 72  1  0  0  0  0
 28 73  1  0  0  0  0
 29 32  2  0  0  0  0
 29 33  1  0  0  0  0
 30 31  1  0  0  0  0
 31 34  1  0  0  0  0
 31 76  1  0  0  0  0
 32 35  1  0  0  0  0
 32 77  1  0  0  0  0
 33 36  2  0  0  0  0
 33 78  1  0  0  0  0
 34 38  1  0  0  0  0
 34 79  1  0  0  0  0
 34 80  1  0  0  0  0
 35 37  2  0  0  0  0
 35 82  1  0  0  0  0
 36 37  1  0  0  0  0
 36 83  1  0  0  0  0
 37 84  1  0  0  0  0
 40 87  1  0  0  0  0
 40 88  1  0  0  0  0
 41 42  1  0  0  0  0
 41 44  2  0  0  0  0
 42 43  1  0  0  0  0
 42 45  2  0  0  0  0
 43 46  1  0  0  0  0
 43 48  2  0  0  0  0
 44 47  1  0  0  0  0
 44 89  1  0  0  0  0
 45 49  1  0  0  0  0
 45 90  1  0  0  0  0
 46 47  2  0  0  0  0
 46 91  1  0  0  0  0
 47 92  1  0  0  0  0
 48 50  1  0  0  0  0
 48 93  1  0  0  0  0
 49 50  2  0  0  0  0
 49 94  1  0  0  0  0
 50 95  1  0  0  0  0
M  END
> <PUBCHEM_COMPOUND_CID>
501793
> <PUBCHEM_COMPOUND_CANONICALIZED>
1
> <PUBCHEM_CACTVS_COMPLEXITY>
1210
> <PUBCHEM_CACTVS_HBOND_ACCEPTOR>
9
> <PUBCHEM_CACTVS_HBOND_DONOR>
5
> <PUBCHEM_CACTVS_ROTATABLE_BOND>
15
> <PUBCHEM_CACTVS_SUBSKEYS>
AAADcfB/vABAAAAAAAAAAAAAAAAAAWAAAAAwYMAAAAAAAADBVAAAHgQQCAAADLzh2AeyDsPABgiIAiFSGAICCABgIBAIiIHOCIkedjqk8Tu0cCAk1hGcqAedyLCOgAABAAAYAAAAAAIAADAAAAAAAAAAAA==
> <PUBCHEM_IUPAC_OPENEYE_NAME>
1-naphthyloxymethyl N-[(1S)-3-amino-1-[[(1S,2S)-1-benzyl-3-[4-(tert-butylcarbamoyl)-5,5-dimethyl-thiazolidin-3-yl]-2-hydroxy-3-oxo-propyl]carbamoyl]-3-oxo-propyl]carbamate
> <PUBCHEM_IUPAC_CAS_NAME>
N-[(2S)-4-amino-1-[[(2S,3S)-4-[4-[(tert-butylamino)-oxomethyl]-5,5-dimethyl-3-thiazolidinyl]-3-hydroxy-4-oxo-1-phenylbutan-2-yl]amino]-1,4-dioxobutan-2-yl]carbamic acid 1-naphthalenyloxymethyl ester
> <PUBCHEM_IUPAC_NAME_MARKUP>
naphthalen-1-yloxymethyl <I>N</I>-[(2<I>S</I>)-4-amino-1-[[(2<I>S</I>,3<I>S</I>)-4-[4-(<I>tert</I>-butylcarbamoyl)-5,5-dimethyl-1,3-thiazolidin-3-yl]-3-hydroxy-4-oxo-1-phenylbutan-2-yl]amino]-1,4-dioxobutan-2-yl]carbamate
> <PUBCHEM_IUPAC_NAME>
naphthalen-1-yloxymethyl N-[(2S)-4-amino-1-[[(2S,3S)-4-[4-(tert-butylcarbamoyl)-5,5-dimethyl-1,3-thiazolidin-3-yl]-3-hydroxy-4-oxo-1-phenylbutan-2-yl]amino]-1,4-dioxobutan-2-yl]carbamate
> <PUBCHEM_IUPAC_SYSTEMATIC_NAME>
naphthalen-1-yloxymethyl N-[(2S)-4-azanyl-1-[[(2S,3S)-4-[4-(tert-butylcarbamoyl)-5,5-dimethyl-1,3-thiazolidin-3-yl]-3-oxidanyl-4-oxidanylidene-1-phenyl-butan-2-yl]amino]-1,4-bis(oxidanylidene)butan-2-yl]carbamate
> <PUBCHEM_IUPAC_TRADITIONAL_NAME>
N-[(1S)-3-amino-1-[[(1S,2S)-1-benzyl-3-[4-(tert-butylcarbamoyl)-5,5-dimethyl-thiazolidin-3-yl]-2-hydroxy-3-keto-propyl]carbamoyl]-3-keto-propyl]carbamic acid 1-naphthoxymethyl ester
> <PUBCHEM_IUPAC_INCHI>
InChI=1S/C36H45N5O8S/c1-35(2,3)40-32(45)30-36(4,5)50-20-41(30)33(46)29(43)25(18-22-12-7-6-8-13-22)38-31(44)26(19-28(37)42)39-34(47)49-21-48-27-17-11-15-23-14-9-10-16-24(23)27/h6-17,25-26,29-30,43H,18-21H2,1-5H3,(H2,37,42)(H,38,44)(H,39,47)(H,40,45)/t25-,26-,29-,30?/m0/s1
> <PUBCHEM_IUPAC_INCHIKEY>
VJNWNTNPTDBHML-CVSGXOISSA-N
> <PUBCHEM_XLOGP3_AA>
3.6
> <PUBCHEM_EXACT_MASS>
707.29888458
> <PUBCHEM_MOLECULAR_FORMULA>
C36H45N5O8S
> <PUBCHEM_MOLECULAR_WEIGHT>
707.8
> <PUBCHEM_OPENEYE_CAN_SMILES>
CC1(C(N(CS1)C(=O)C(C(CC2=CC=CC=C2)NC(=O)C(CC(=O)N)NC(=O)OCOC3=CC=CC4=CC=CC=C43)O)C(=O)NC(C)(C)C)C
> <PUBCHEM_OPENEYE_ISO_SMILES>
CC1(C(N(CS1)C(=O)[C@H]([C@H](CC2=CC=CC=C2)NC(=O)[C@H](CC(=O)N)NC(=O)OCOC3=CC=CC4=CC=CC=C43)O)C(=O)NC(C)(C)C)C
> <PUBCHEM_CACTVS_TPSA>
215
> <PUBCHEM_MONOISOTOPIC_WEIGHT>
707.29888458
> <PUBCHEM_TOTAL_CHARGE>
0
> <PUBCHEM_HEAVY_ATOM_COUNT>
50
> <PUBCHEM_ATOM_DEF_STEREO_COUNT>
3
> <PUBCHEM_ATOM_UDEF_STEREO_COUNT>
1
> <PUBCHEM_BOND_DEF_STEREO_COUNT>
0
> <PUBCHEM_BOND_UDEF_STEREO_COUNT>
0
> <PUBCHEM_ISOTOPIC_ATOM_COUNT>
0
> <PUBCHEM_COMPONENT_COUNT>
1
> <PUBCHEM_CACTVS_TAUTO_COUNT>
-1
> <PUBCHEM_COORDINATE_TYPE>
1
5
255
> <PUBCHEM_BONDANNOTATIONS>
23  12  6
31  13  6
16  20  3
29  32  8
29  33  8
22  3  5
32  35  8
33  36  8
35  37  8
36  37  8
41  42  8
41  44  8
42  43  8
42  45  8
43  46  8
43  48  8
44  47  8
45  49  8
46  47  8
48  50  8
49  50  8
$$$$
