501756
  -OEChem-10302200282D
108110  0     1  0  0  0  0  0999 V2000
    8.0622   -1.2500    0.0000 O   0  0  0  0  0  0  0  0  0  0  0  0
    8.9282   -1.7500    0.0000 O   0  0  0  0  0  0  0  0  0  0  0  0
    5.4641   -1.7500    0.0000 O   0  0  0  0  0  0  0  0  0  0  0  0
    4.5981    1.7500    0.0000 O   0  0  0  0  0  0  0  0  0  0  0  0
    8.0622    2.7500    0.0000 O   0  0  0  0  0  0  0  0  0  0  0  0
   12.3923   -2.7500    0.0000 O   0  0  0  0  0  0  0  0  0  0  0  0
   11.5263   -4.2500    0.0000 O   0  0  0  0  0  0  0  0  0  0  0  0
    8.0622   -3.2500    0.0000 N   0  0  0  0  0  0  0  0  0  0  0  0
    6.3301   -0.2500    0.0000 N   0  0  0  0  0  0  0  0  0  0  0  0
    6.3301    1.7500    0.0000 N   0  0  0  0  0  0  0  0  0  0  0  0
   10.6603   -2.7500    0.0000 N   0  0  0  0  0  0  0  0  0  0  0  0
    7.1962    4.2500    0.0000 N   0  0  0  0  0  0  0  0  0  0  0  0
    7.1962   -2.7500    0.0000 C   0  0  2  0  0  0  0  0  0  0  0  0
    7.1962   -1.7500    0.0000 C   0  0  2  0  0  0  0  0  0  0  0  0
    6.3301    2.7500    0.0000 C   0  0  1  0  0  0  0  0  0  0  0  0
    6.3301   -3.2500    0.0000 C   0  0  0  0  0  0  0  0  0  0  0  0
    5.4641    0.2500    0.0000 C   0  0  1  0  0  0  0  0  0  0  0  0
    9.7942   -3.2500    0.0000 C   0  0  1  0  0  0  0  0  0  0  0  0
    5.4641    3.2500    0.0000 C   0  0  0  0  0  0  0  0  0  0  0  0
    9.7942   -4.2500    0.0000 C   0  0  0  0  0  0  0  0  0  0  0  0
    8.9282   -2.7500    0.0000 C   0  0  0  0  0  0  0  0  0  0  0  0
    6.3301   -1.2500    0.0000 C   0  0  0  0  0  0  0  0  0  0  0  0
    4.5981   -0.2500    0.0000 C   0  0  0  0  0  0  0  0  0  0  0  0
    5.4641    1.2500    0.0000 C   0  0  0  0  0  0  0  0  0  0  0  0
    6.3301   -4.2500    0.0000 C   0  0  0  0  0  0  0  0  0  0  0  0
    7.1962    3.2500    0.0000 C   0  0  0  0  0  0  0  0  0  0  0  0
    5.4641    4.2500    0.0000 C   0  0  0  0  0  0  0  0  0  0  0  0
    4.5981    2.7500    0.0000 C   0  0  0  0  0  0  0  0  0  0  0  0
   10.6603   -4.7500    0.0000 C   0  0  0  0  0  0  0  0  0  0  0  0
    8.9282   -4.7500    0.0000 C   0  0  0  0  0  0  0  0  0  0  0  0
    3.7320    0.2500    0.0000 C   0  0  0  0  0  0  0  0  0  0  0  0
    8.0622    4.7500    0.0000 C   0  0  0  0  0  0  0  0  0  0  0  0
    8.0622    5.7500    0.0000 C   0  0  0  0  0  0  0  0  0  0  0  0
    7.1962   -4.7500    0.0000 C   0  0  0  0  0  0  0  0  0  0  0  0
    5.4641   -4.7500    0.0000 C   0  0  0  0  0  0  0  0  0  0  0  0
    2.8660   -0.2500    0.0000 C   0  0  0  0  0  0  0  0  0  0  0  0
    3.7320    1.2500    0.0000 C   0  0  0  0  0  0  0  0  0  0  0  0
   11.5263   -3.2500    0.0000 C   0  0  0  0  0  0  0  0  0  0  0  0
    8.9282    6.2500    0.0000 C   0  0  0  0  0  0  0  0  0  0  0  0
    7.1962    6.2500    0.0000 C   0  0  0  0  0  0  0  0  0  0  0  0
    7.1962   -5.7500    0.0000 C   0  0  0  0  0  0  0  0  0  0  0  0
    5.4641   -5.7500    0.0000 C   0  0  0  0  0  0  0  0  0  0  0  0
    6.3301   -6.2500    0.0000 C   0  0  0  0  0  0  0  0  0  0  0  0
    2.0000    0.2500    0.0000 C   0  0  0  0  0  0  0  0  0  0  0  0
    2.8660    1.7500    0.0000 C   0  0  0  0  0  0  0  0  0  0  0  0
    2.0000    1.2500    0.0000 C   0  0  0  0  0  0  0  0  0  0  0  0
   13.2583   -3.2500    0.0000 C   0  0  0  0  0  0  0  0  0  0  0  0
   14.1244   -2.7500    0.0000 C   0  0  0  0  0  0  0  0  0  0  0  0
   14.1244   -1.7500    0.0000 C   0  0  0  0  0  0  0  0  0  0  0  0
   14.9904   -3.2500    0.0000 C   0  0  0  0  0  0  0  0  0  0  0  0
   14.9904   -1.2500    0.0000 C   0  0  0  0  0  0  0  0  0  0  0  0
   15.8564   -2.7500    0.0000 C   0  0  0  0  0  0  0  0  0  0  0  0
   15.8564   -1.7500    0.0000 C   0  0  0  0  0  0  0  0  0  0  0  0
    7.7331   -2.4400    0.0000 H   0  0  0  0  0  0  0  0  0  0  0  0
    7.1962   -1.1300    0.0000 H   0  0  0  0  0  0  0  0  0  0  0  0
    6.8671    2.4400    0.0000 H   0  0  0  0  0  0  0  0  0  0  0  0
    6.1181   -2.6674    0.0000 H   0  0  0  0  0  0  0  0  0  0  0  0
    5.7196   -3.3577    0.0000 H   0  0  0  0  0  0  0  0  0  0  0  0
    5.4641   -0.3700    0.0000 H   0  0  0  0  0  0  0  0  0  0  0  0
    9.7942   -2.6300    0.0000 H   0  0  0  0  0  0  0  0  0  0  0  0
    5.4641    2.6300    0.0000 H   0  0  0  0  0  0  0  0  0  0  0  0
    9.2573   -3.9400    0.0000 H   0  0  0  0  0  0  0  0  0  0  0  0
    8.0622   -3.8700    0.0000 H   0  0  0  0  0  0  0  0  0  0  0  0
    6.8671    0.0600    0.0000 H   0  0  0  0  0  0  0  0  0  0  0  0
    4.1996   -0.7249    0.0000 H   0  0  0  0  0  0  0  0  0  0  0  0
    4.9966   -0.7249    0.0000 H   0  0  0  0  0  0  0  0  0  0  0  0
    6.8671    1.4400    0.0000 H   0  0  0  0  0  0  0  0  0  0  0  0
    6.0841    4.2500    0.0000 H   0  0  0  0  0  0  0  0  0  0  0  0
    5.4641    4.8700    0.0000 H   0  0  0  0  0  0  0  0  0  0  0  0
    4.8441    4.2500    0.0000 H   0  0  0  0  0  0  0  0  0  0  0  0
    4.2881    3.2869    0.0000 H   0  0  0  0  0  0  0  0  0  0  0  0
    4.0611    2.4400    0.0000 H   0  0  0  0  0  0  0  0  0  0  0  0
    4.9081    2.2131    0.0000 H   0  0  0  0  0  0  0  0  0  0  0  0
   10.3503   -5.2869    0.0000 H   0  0  0  0  0  0  0  0  0  0  0  0
   11.1972   -5.0600    0.0000 H   0  0  0  0  0  0  0  0  0  0  0  0
   10.9703   -4.2131    0.0000 H   0  0  0  0  0  0  0  0  0  0  0  0
    8.6182   -4.2131    0.0000 H   0  0  0  0  0  0  0  0  0  0  0  0
    8.3913   -5.0600    0.0000 H   0  0  0  0  0  0  0  0  0  0  0  0
    9.2382   -5.2869    0.0000 H   0  0  0  0  0  0  0  0  0  0  0  0
   10.6603   -2.1300    0.0000 H   0  0  0  0  0  0  0  0  0  0  0  0
    6.6592    4.5600    0.0000 H   0  0  0  0  0  0  0  0  0  0  0  0
    8.2742    4.1674    0.0000 H   0  0  0  0  0  0  0  0  0  0  0  0
    8.6728    4.8577    0.0000 H   0  0  0  0  0  0  0  0  0  0  0  0
    8.0622   -0.6300    0.0000 H   0  0  0  0  0  0  0  0  0  0  0  0
    8.0622    6.3700    0.0000 H   0  0  0  0  0  0  0  0  0  0  0  0
    7.7331   -4.4400    0.0000 H   0  0  0  0  0  0  0  0  0  0  0  0
    4.9272   -4.4400    0.0000 H   0  0  0  0  0  0  0  0  0  0  0  0
    2.8660   -0.8700    0.0000 H   0  0  0  0  0  0  0  0  0  0  0  0
    4.2690    1.5600    0.0000 H   0  0  0  0  0  0  0  0  0  0  0  0
    9.2382    5.7131    0.0000 H   0  0  0  0  0  0  0  0  0  0  0  0
    9.4651    6.5600    0.0000 H   0  0  0  0  0  0  0  0  0  0  0  0
    8.6182    6.7869    0.0000 H   0  0  0  0  0  0  0  0  0  0  0  0
    7.5062    6.7869    0.0000 H   0  0  0  0  0  0  0  0  0  0  0  0
    6.6592    6.5600    0.0000 H   0  0  0  0  0  0  0  0  0  0  0  0
    6.8862    5.7131    0.0000 H   0  0  0  0  0  0  0  0  0  0  0  0
    7.7331   -6.0600    0.0000 H   0  0  0  0  0  0  0  0  0  0  0  0
    4.9272   -6.0600    0.0000 H   0  0  0  0  0  0  0  0  0  0  0  0
    6.3301   -6.8700    0.0000 H   0  0  0  0  0  0  0  0  0  0  0  0
    1.4631   -0.0600    0.0000 H   0  0  0  0  0  0  0  0  0  0  0  0
    2.8660    2.3700    0.0000 H   0  0  0  0  0  0  0  0  0  0  0  0
    1.4631    1.5600    0.0000 H   0  0  0  0  0  0  0  0  0  0  0  0
   12.8598   -3.7250    0.0000 H   0  0  0  0  0  0  0  0  0  0  0  0
   13.6569   -3.7250    0.0000 H   0  0  0  0  0  0  0  0  0  0  0  0
   13.5874   -1.4400    0.0000 H   0  0  0  0  0  0  0  0  0  0  0  0
   14.9904   -3.8700    0.0000 H   0  0  0  0  0  0  0  0  0  0  0  0
   14.9904   -0.6300    0.0000 H   0  0  0  0  0  0  0  0  0  0  0  0
   16.3933   -3.0600    0.0000 H   0  0  0  0  0  0  0  0  0  0  0  0
   16.3933   -1.4400    0.0000 H   0  0  0  0  0  0  0  0  0  0  0  0
 14  1  1  6  0  0  0
  1 84  1  0  0  0  0
  2 21  2  0  0  0  0
  3 22  2  0  0  0  0
  4 24  2  0  0  0  0
  5 26  2  0  0  0  0
  6 38  1  0  0  0  0
  6 47  1  0  0  0  0
  7 38  2  0  0  0  0
 13  8  1  1  0  0  0
  8 21  1  0  0  0  0
  8 63  1  0  0  0  0
 17  9  1  1  0  0  0
  9 22  1  0  0  0  0
  9 64  1  0  0  0  0
 15 10  1  1  0  0  0
 10 24  1  0  0  0  0
 10 67  1  0  0  0  0
 18 11  1  1  0  0  0
 11 38  1  0  0  0  0
 11 80  1  0  0  0  0
 12 26  1  0  0  0  0
 12 32  1  0  0  0  0
 12 81  1  0  0  0  0
 13 14  1  0  0  0  0
 13 16  1  0  0  0  0
 13 54  1  0  0  0  0
 14 22  1  0  0  0  0
 14 55  1  0  0  0  0
 15 19  1  0  0  0  0
 15 26  1  0  0  0  0
 15 56  1  0  0  0  0
 16 25  1  0  0  0  0
 16 57  1  0  0  0  0
 16 58  1  0  0  0  0
 17 23  1  0  0  0  0
 17 24  1  0  0  0  0
 17 59  1  0  0  0  0
 18 20  1  0  0  0  0
 18 21  1  0  0  0  0
 18 60  1  0  0  0  0
 19 27  1  0  0  0  0
 19 28  1  0  0  0  0
 19 61  1  0  0  0  0
 20 29  1  0  0  0  0
 20 30  1  0  0  0  0
 20 62  1  0  0  0  0
 23 31  1  0  0  0  0
 23 65  1  0  0  0  0
 23 66  1  0  0  0  0
 25 34  2  0  0  0  0
 25 35  1  0  0  0  0
 27 68  1  0  0  0  0
 27 69  1  0  0  0  0
 27 70  1  0  0  0  0
 28 71  1  0  0  0  0
 28 72  1  0  0  0  0
 28 73  1  0  0  0  0
 29 74  1  0  0  0  0
 29 75  1  0  0  0  0
 29 76  1  0  0  0  0
 30 77  1  0  0  0  0
 30 78  1  0  0  0  0
 30 79  1  0  0  0  0
 31 36  2  0  0  0  0
 31 37  1  0  0  0  0
 32 33  1  0  0  0  0
 32 82  1  0  0  0  0
 32 83  1  0  0  0  0
 33 39  1  0  0  0  0
 33 40  1  0  0  0  0
 33 85  1  0  0  0  0
 34 41  1  0  0  0  0
 34 86  1  0  0  0  0
 35 42  2  0  0  0  0
 35 87  1  0  0  0  0
 36 44  1  0  0  0  0
 36 88  1  0  0  0  0
 37 45  2  0  0  0  0
 37 89  1  0  0  0  0
 39 90  1  0  0  0  0
 39 91  1  0  0  0  0
 39 92  1  0  0  0  0
 40 93  1  0  0  0  0
 40 94  1  0  0  0  0
 40 95  1  0  0  0  0
 41 43  2  0  0  0  0
 41 96  1  0  0  0  0
 42 43  1  0  0  0  0
 42 97  1  0  0  0  0
 43 98  1  0  0  0  0
 44 46  2  0  0  0  0
 44 99  1  0  0  0  0
 45 46  1  0  0  0  0
 45100  1  0  0  0  0
 46101  1  0  0  0  0
 47 48  1  0  0  0  0
 47102  1  0  0  0  0
 47103  1  0  0  0  0
 48 49  2  0  0  0  0
 48 50  1  0  0  0  0
 49 51  1  0  0  0  0
 49104  1  0  0  0  0
 50 52  2  0  0  0  0
 50105  1  0  0  0  0
 51 53  2  0  0  0  0
 51106  1  0  0  0  0
 52 53  1  0  0  0  0
 52107  1  0  0  0  0
 53108  1  0  0  0  0
M  END
> <PUBCHEM_COMPOUND_CID>
501756
> <PUBCHEM_COMPOUND_CANONICALIZED>
1
> <PUBCHEM_CACTVS_COMPLEXITY>
1150
> <PUBCHEM_CACTVS_HBOND_ACCEPTOR>
7
> <PUBCHEM_CACTVS_HBOND_DONOR>
6
> <PUBCHEM_CACTVS_ROTATABLE_BOND>
20
> <PUBCHEM_CACTVS_SUBSKEYS>
AAADcfB/uAAAAAAAAAAAAAAAAAAAAAAAAAAwYMAAAAAAAAABUAAAHgAQCAAADTzhmAYyCILABgCIAiFSGAICAAAgAAAIiIHICIkKdjqA8TmccAAk1gGYqAeYyKCOAAAAAAAAAAAAAAAAAAAAAAAAAAAAAA==
> <PUBCHEM_IUPAC_OPENEYE_NAME>
benzyl N-[(1S)-1-[[(1S,2R)-1-benzyl-3-[[(1S)-1-benzyl-2-[[(1S)-1-(isobutylcarbamoyl)-2-methyl-propyl]amino]-2-oxo-ethyl]amino]-2-hydroxy-3-oxo-propyl]carbamoyl]-2-methyl-propyl]carbamate
> <PUBCHEM_IUPAC_CAS_NAME>
N-[(2S)-1-[[(2S,3R)-3-hydroxy-4-[[(2S)-1-[[(2S)-3-methyl-1-(2-methylpropylamino)-1-oxobutan-2-yl]amino]-1-oxo-3-phenylpropan-2-yl]amino]-4-oxo-1-phenylbutan-2-yl]amino]-3-methyl-1-oxobutan-2-yl]carbamic acid (phenylmethyl) ester
> <PUBCHEM_IUPAC_NAME_MARKUP>
benzyl <I>N</I>-[(2<I>S</I>)-1-[[(2<I>S</I>,3<I>R</I>)-3-hydroxy-4-[[(2<I>S</I>)-1-[[(2<I>S</I>)-3-methyl-1-(2-methylpropylamino)-1-oxobutan-2-yl]amino]-1-oxo-3-phenylpropan-2-yl]amino]-4-oxo-1-phenylbutan-2-yl]amino]-3-methyl-1-oxobutan-2-yl]carbamate
> <PUBCHEM_IUPAC_NAME>
benzyl N-[(2S)-1-[[(2S,3R)-3-hydroxy-4-[[(2S)-1-[[(2S)-3-methyl-1-(2-methylpropylamino)-1-oxobutan-2-yl]amino]-1-oxo-3-phenylpropan-2-yl]amino]-4-oxo-1-phenylbutan-2-yl]amino]-3-methyl-1-oxobutan-2-yl]carbamate
> <PUBCHEM_IUPAC_SYSTEMATIC_NAME>
(phenylmethyl) N-[(2S)-3-methyl-1-[[(2S,3R)-4-[[(2S)-1-[[(2S)-3-methyl-1-(2-methylpropylamino)-1-oxidanylidene-butan-2-yl]amino]-1-oxidanylidene-3-phenyl-propan-2-yl]amino]-3-oxidanyl-4-oxidanylidene-1-phenyl-butan-2-yl]amino]-1-oxidanylidene-butan-2-yl]carbamate
> <PUBCHEM_IUPAC_TRADITIONAL_NAME>
N-[(1S)-1-[[(1S,2R)-1-benzyl-3-[[(1S)-1-benzyl-2-[[(1S)-1-(isobutylcarbamoyl)-2-methyl-propyl]amino]-2-keto-ethyl]amino]-2-hydroxy-3-keto-propyl]carbamoyl]-2-methyl-propyl]carbamic acid benzyl ester
> <PUBCHEM_IUPAC_INCHI>
InChI=1S/C41H55N5O7/c1-26(2)24-42-38(49)34(27(3)4)45-37(48)33(23-30-18-12-8-13-19-30)44-40(51)36(47)32(22-29-16-10-7-11-17-29)43-39(50)35(28(5)6)46-41(52)53-25-31-20-14-9-15-21-31/h7-21,26-28,32-36,47H,22-25H2,1-6H3,(H,42,49)(H,43,50)(H,44,51)(H,45,48)(H,46,52)/t32-,33-,34-,35-,36+/m0/s1
> <PUBCHEM_IUPAC_INCHIKEY>
RVPZSDHWWGLBTO-CPDVWBMRSA-N
> <PUBCHEM_XLOGP3_AA>
6.2
> <PUBCHEM_EXACT_MASS>
729.41014911
> <PUBCHEM_MOLECULAR_FORMULA>
C41H55N5O7
> <PUBCHEM_MOLECULAR_WEIGHT>
729.9
> <PUBCHEM_OPENEYE_CAN_SMILES>
CC(C)CNC(=O)C(C(C)C)NC(=O)C(CC1=CC=CC=C1)NC(=O)C(C(CC2=CC=CC=C2)NC(=O)C(C(C)C)NC(=O)OCC3=CC=CC=C3)O
> <PUBCHEM_OPENEYE_ISO_SMILES>
CC(C)CNC(=O)[C@H](C(C)C)NC(=O)[C@H](CC1=CC=CC=C1)NC(=O)[C@@H]([C@H](CC2=CC=CC=C2)NC(=O)[C@H](C(C)C)NC(=O)OCC3=CC=CC=C3)O
> <PUBCHEM_CACTVS_TPSA>
175
> <PUBCHEM_MONOISOTOPIC_WEIGHT>
729.41014911
> <PUBCHEM_TOTAL_CHARGE>
0
> <PUBCHEM_HEAVY_ATOM_COUNT>
53
> <PUBCHEM_ATOM_DEF_STEREO_COUNT>
5
> <PUBCHEM_ATOM_UDEF_STEREO_COUNT>
0
> <PUBCHEM_BOND_DEF_STEREO_COUNT>
0
> <PUBCHEM_BOND_UDEF_STEREO_COUNT>
0
> <PUBCHEM_ISOTOPIC_ATOM_COUNT>
0
> <PUBCHEM_COMPONENT_COUNT>
1
> <PUBCHEM_CACTVS_TAUTO_COUNT>
-1
> <PUBCHEM_COORDINATE_TYPE>
1
5
255
> <PUBCHEM_BONDANNOTATIONS>
14  1  6
15  10  5
18  11  5
25  34  8
25  35  8
31  36  8
31  37  8
34  41  8
35  42  8
36  44  8
37  45  8
41  43  8
42  43  8
44  46  8
45  46  8
48  49  8
48  50  8
49  51  8
50  52  8
51  53  8
52  53  8
13  8  5
17  9  5
$$$$
