501736
  -OEChem-10302200282D
121123  0     1  0  0  0  0  0999 V2000
    6.3301   -1.7500    0.0000 O   0  0  0  0  0  0  0  0  0  0  0  0
    8.9282   -1.2500    0.0000 O   0  0  0  0  0  0  0  0  0  0  0  0
    2.8660    1.2500    0.0000 O   0  0  0  0  0  0  0  0  0  0  0  0
    5.4641   -1.2500    0.0000 O   0  0  0  0  0  0  0  0  0  0  0  0
    9.7942   -1.7500    0.0000 O   0  0  0  0  0  0  0  0  0  0  0  0
   12.3923   -1.2500    0.0000 O   0  0  0  0  0  0  0  0  0  0  0  0
   12.3923   -4.2500    0.0000 O   0  0  0  0  0  0  0  0  0  0  0  0
   10.6603   -1.2500    0.0000 O   0  0  0  0  0  0  0  0  0  0  0  0
    7.1962   -0.2500    0.0000 N   0  0  0  0  0  0  0  0  0  0  0  0
    3.7320    2.7500    0.0000 N   0  0  0  0  0  0  0  0  0  0  0  0
    4.5981    0.2500    0.0000 N   0  0  0  0  0  0  0  0  0  0  0  0
    8.9282   -3.2500    0.0000 N   0  0  0  0  0  0  0  0  0  0  0  0
   11.5263   -2.7500    0.0000 N   0  0  0  0  0  0  0  0  0  0  0  0
   11.5263   -5.7500    0.0000 N   0  0  0  0  0  0  0  0  0  0  0  0
    8.0622    1.2500    0.0000 C   0  0  0  0  0  0  0  0  0  0  0  0
    7.1962    1.7500    0.0000 C   0  0  0  0  0  0  0  0  0  0  0  0
    8.9282    1.7500    0.0000 C   0  0  0  0  0  0  0  0  0  0  0  0
    7.1962    2.7500    0.0000 C   0  0  0  0  0  0  0  0  0  0  0  0
    8.9282    2.7500    0.0000 C   0  0  0  0  0  0  0  0  0  0  0  0
    8.0622    3.2500    0.0000 C   0  0  0  0  0  0  0  0  0  0  0  0
    2.8660    4.2500    0.0000 C   0  0  0  0  0  0  0  0  0  0  0  0
    8.0622    0.2500    0.0000 C   0  0  0  0  0  0  0  0  0  0  0  0
    2.0000    4.7500    0.0000 C   0  0  0  0  0  0  0  0  0  0  0  0
    3.7320    4.7500    0.0000 C   0  0  0  0  0  0  0  0  0  0  0  0
    2.0000    5.7500    0.0000 C   0  0  0  0  0  0  0  0  0  0  0  0
    3.7320    5.7500    0.0000 C   0  0  0  0  0  0  0  0  0  0  0  0
    2.8660    6.2500    0.0000 C   0  0  0  0  0  0  0  0  0  0  0  0
    2.8660    3.2500    0.0000 C   0  0  0  0  0  0  0  0  0  0  0  0
    6.3301    0.2500    0.0000 C   0  0  0  0  0  0  0  0  0  0  0  0
    7.1962   -1.2500    0.0000 C   0  0  0  0  0  0  0  0  0  0  0  0
    4.5981    1.2500    0.0000 C   0  0  1  0  0  0  0  0  0  0  0  0
    8.0622   -1.7500    0.0000 C   0  0  2  0  0  0  0  0  0  0  0  0
    5.4641    1.7500    0.0000 C   0  0  1  0  0  0  0  0  0  0  0  0
    3.7320    1.7500    0.0000 C   0  0  0  0  0  0  0  0  0  0  0  0
    5.4641   -0.2500    0.0000 C   0  0  0  0  0  0  0  0  0  0  0  0
    8.0622   -2.7500    0.0000 C   0  0  2  0  0  0  0  0  0  0  0  0
    5.4641    2.7500    0.0000 C   0  0  0  0  0  0  0  0  0  0  0  0
    7.1962   -3.2500    0.0000 C   0  0  0  0  0  0  0  0  0  0  0  0
    6.3301    1.2500    0.0000 C   0  0  0  0  0  0  0  0  0  0  0  0
    6.3301    3.2500    0.0000 C   0  0  0  0  0  0  0  0  0  0  0  0
    7.1962   -4.2500    0.0000 C   0  0  0  0  0  0  0  0  0  0  0  0
    9.7942   -2.7500    0.0000 C   0  0  0  0  0  0  0  0  0  0  0  0
   10.6603   -3.2500    0.0000 C   0  0  2  0  0  0  0  0  0  0  0  0
    8.0622   -4.7500    0.0000 C   0  0  0  0  0  0  0  0  0  0  0  0
    6.3301   -4.7500    0.0000 C   0  0  0  0  0  0  0  0  0  0  0  0
   10.6603   -4.2500    0.0000 C   0  0  0  0  0  0  0  0  0  0  0  0
    8.0622   -5.7500    0.0000 C   0  0  0  0  0  0  0  0  0  0  0  0
    6.3301   -5.7500    0.0000 C   0  0  0  0  0  0  0  0  0  0  0  0
    7.1962   -6.2500    0.0000 C   0  0  0  0  0  0  0  0  0  0  0  0
   11.5263   -4.7500    0.0000 C   0  0  0  0  0  0  0  0  0  0  0  0
   11.5263   -1.7500    0.0000 C   0  0  0  0  0  0  0  0  0  0  0  0
   12.3923   -0.2500    0.0000 C   0  0  0  0  0  0  0  0  0  0  0  0
   12.3923    0.7500    0.0000 C   0  0  0  0  0  0  0  0  0  0  0  0
   13.3923   -0.2500    0.0000 C   0  0  0  0  0  0  0  0  0  0  0  0
   11.3923   -0.2500    0.0000 C   0  0  0  0  0  0  0  0  0  0  0  0
    7.5252    0.9400    0.0000 H   0  0  0  0  0  0  0  0  0  0  0  0
    6.5856    1.8577    0.0000 H   0  0  0  0  0  0  0  0  0  0  0  0
    6.9841    1.1674    0.0000 H   0  0  0  0  0  0  0  0  0  0  0  0
    9.1403    1.1674    0.0000 H   0  0  0  0  0  0  0  0  0  0  0  0
    9.5388    1.8577    0.0000 H   0  0  0  0  0  0  0  0  0  0  0  0
    6.9841    3.3326    0.0000 H   0  0  0  0  0  0  0  0  0  0  0  0
    6.5856    2.6423    0.0000 H   0  0  0  0  0  0  0  0  0  0  0  0
    9.5388    2.6423    0.0000 H   0  0  0  0  0  0  0  0  0  0  0  0
    9.1403    3.3326    0.0000 H   0  0  0  0  0  0  0  0  0  0  0  0
    8.4607    3.7250    0.0000 H   0  0  0  0  0  0  0  0  0  0  0  0
    7.6636    3.7250    0.0000 H   0  0  0  0  0  0  0  0  0  0  0  0
    3.4030    3.9400    0.0000 H   0  0  0  0  0  0  0  0  0  0  0  0
    8.2742   -0.3326    0.0000 H   0  0  0  0  0  0  0  0  0  0  0  0
    8.6728    0.3577    0.0000 H   0  0  0  0  0  0  0  0  0  0  0  0
    1.3894    4.8577    0.0000 H   0  0  0  0  0  0  0  0  0  0  0  0
    1.7880    4.1674    0.0000 H   0  0  0  0  0  0  0  0  0  0  0  0
    3.9441    4.1674    0.0000 H   0  0  0  0  0  0  0  0  0  0  0  0
    4.3426    4.8577    0.0000 H   0  0  0  0  0  0  0  0  0  0  0  0
    1.7880    6.3326    0.0000 H   0  0  0  0  0  0  0  0  0  0  0  0
    1.3894    5.6423    0.0000 H   0  0  0  0  0  0  0  0  0  0  0  0
    4.3426    5.6423    0.0000 H   0  0  0  0  0  0  0  0  0  0  0  0
    3.9441    6.3326    0.0000 H   0  0  0  0  0  0  0  0  0  0  0  0
    3.2646    6.7250    0.0000 H   0  0  0  0  0  0  0  0  0  0  0  0
    2.4675    6.7250    0.0000 H   0  0  0  0  0  0  0  0  0  0  0  0
    2.2554    3.3577    0.0000 H   0  0  0  0  0  0  0  0  0  0  0  0
    2.6540    2.6674    0.0000 H   0  0  0  0  0  0  0  0  0  0  0  0
    6.7287    0.7249    0.0000 H   0  0  0  0  0  0  0  0  0  0  0  0
    5.9316    0.7249    0.0000 H   0  0  0  0  0  0  0  0  0  0  0  0
    4.0611    0.9400    0.0000 H   0  0  0  0  0  0  0  0  0  0  0  0
    4.2690    3.0600    0.0000 H   0  0  0  0  0  0  0  0  0  0  0  0
    8.0622   -1.1300    0.0000 H   0  0  0  0  0  0  0  0  0  0  0  0
    5.4641    1.1300    0.0000 H   0  0  0  0  0  0  0  0  0  0  0  0
    8.0622   -3.3700    0.0000 H   0  0  0  0  0  0  0  0  0  0  0  0
    4.0611   -0.0600    0.0000 H   0  0  0  0  0  0  0  0  0  0  0  0
    5.2520    3.3326    0.0000 H   0  0  0  0  0  0  0  0  0  0  0  0
    4.8535    2.6423    0.0000 H   0  0  0  0  0  0  0  0  0  0  0  0
    6.9841   -2.6674    0.0000 H   0  0  0  0  0  0  0  0  0  0  0  0
    6.5856   -3.3577    0.0000 H   0  0  0  0  0  0  0  0  0  0  0  0
    6.0201    0.7131    0.0000 H   0  0  0  0  0  0  0  0  0  0  0  0
    6.8671    0.9400    0.0000 H   0  0  0  0  0  0  0  0  0  0  0  0
    6.6401    1.7869    0.0000 H   0  0  0  0  0  0  0  0  0  0  0  0
    8.9282   -3.8700    0.0000 H   0  0  0  0  0  0  0  0  0  0  0  0
    8.9282   -0.6300    0.0000 H   0  0  0  0  0  0  0  0  0  0  0  0
    6.6401    2.7131    0.0000 H   0  0  0  0  0  0  0  0  0  0  0  0
    6.8671    3.5600    0.0000 H   0  0  0  0  0  0  0  0  0  0  0  0
    6.0201    3.7869    0.0000 H   0  0  0  0  0  0  0  0  0  0  0  0
   11.1972   -3.5600    0.0000 H   0  0  0  0  0  0  0  0  0  0  0  0
    8.5991   -4.4400    0.0000 H   0  0  0  0  0  0  0  0  0  0  0  0
    5.7932   -4.4400    0.0000 H   0  0  0  0  0  0  0  0  0  0  0  0
   10.0497   -4.1423    0.0000 H   0  0  0  0  0  0  0  0  0  0  0  0
   10.4482   -4.8326    0.0000 H   0  0  0  0  0  0  0  0  0  0  0  0
   12.0632   -3.0600    0.0000 H   0  0  0  0  0  0  0  0  0  0  0  0
    8.5991   -6.0600    0.0000 H   0  0  0  0  0  0  0  0  0  0  0  0
    5.7932   -6.0600    0.0000 H   0  0  0  0  0  0  0  0  0  0  0  0
    7.1962   -6.8700    0.0000 H   0  0  0  0  0  0  0  0  0  0  0  0
   12.0632   -6.0600    0.0000 H   0  0  0  0  0  0  0  0  0  0  0  0
   10.9893   -6.0600    0.0000 H   0  0  0  0  0  0  0  0  0  0  0  0
   13.0123    0.7500    0.0000 H   0  0  0  0  0  0  0  0  0  0  0  0
   12.3923    1.3700    0.0000 H   0  0  0  0  0  0  0  0  0  0  0  0
   11.7723    0.7500    0.0000 H   0  0  0  0  0  0  0  0  0  0  0  0
   13.3923   -0.8700    0.0000 H   0  0  0  0  0  0  0  0  0  0  0  0
   14.0123   -0.2500    0.0000 H   0  0  0  0  0  0  0  0  0  0  0  0
   13.3923    0.3700    0.0000 H   0  0  0  0  0  0  0  0  0  0  0  0
   11.3923    0.3700    0.0000 H   0  0  0  0  0  0  0  0  0  0  0  0
   10.7723   -0.2500    0.0000 H   0  0  0  0  0  0  0  0  0  0  0  0
   11.3923   -0.8700    0.0000 H   0  0  0  0  0  0  0  0  0  0  0  0
  1 30  2  0  0  0  0
 32  2  1  1  0  0  0
  2 98  1  0  0  0  0
  3 34  2  0  0  0  0
  4 35  2  0  0  0  0
  5 42  2  0  0  0  0
  6 51  1  0  0  0  0
  6 52  1  0  0  0  0
  7 50  2  0  0  0  0
  8 51  2  0  0  0  0
  9 22  1  0  0  0  0
  9 29  1  0  0  0  0
  9 30  1  0  0  0  0
 10 28  1  0  0  0  0
 10 34  1  0  0  0  0
 10 85  1  0  0  0  0
 31 11  1  6  0  0  0
 11 35  1  0  0  0  0
 11 89  1  0  0  0  0
 36 12  1  1  0  0  0
 12 42  1  0  0  0  0
 12 97  1  0  0  0  0
 43 13  1  1  0  0  0
 13 51  1  0  0  0  0
 13107  1  0  0  0  0
 14 50  1  0  0  0  0
 14111  1  0  0  0  0
 14112  1  0  0  0  0
 15 16  1  0  0  0  0
 15 17  1  0  0  0  0
 15 22  1  0  0  0  0
 15 56  1  0  0  0  0
 16 18  1  0  0  0  0
 16 57  1  0  0  0  0
 16 58  1  0  0  0  0
 17 19  1  0  0  0  0
 17 59  1  0  0  0  0
 17 60  1  0  0  0  0
 18 20  1  0  0  0  0
 18 61  1  0  0  0  0
 18 62  1  0  0  0  0
 19 20  1  0  0  0  0
 19 63  1  0  0  0  0
 19 64  1  0  0  0  0
 20 65  1  0  0  0  0
 20 66  1  0  0  0  0
 21 23  1  0  0  0  0
 21 24  1  0  0  0  0
 21 28  1  0  0  0  0
 21 67  1  0  0  0  0
 22 68  1  0  0  0  0
 22 69  1  0  0  0  0
 23 25  1  0  0  0  0
 23 70  1  0  0  0  0
 23 71  1  0  0  0  0
 24 26  1  0  0  0  0
 24 72  1  0  0  0  0
 24 73  1  0  0  0  0
 25 27  1  0  0  0  0
 25 74  1  0  0  0  0
 25 75  1  0  0  0  0
 26 27  1  0  0  0  0
 26 76  1  0  0  0  0
 26 77  1  0  0  0  0
 27 78  1  0  0  0  0
 27 79  1  0  0  0  0
 28 80  1  0  0  0  0
 28 81  1  0  0  0  0
 29 35  1  0  0  0  0
 29 82  1  0  0  0  0
 29 83  1  0  0  0  0
 30 32  1  0  0  0  0
 31 33  1  0  0  0  0
 31 34  1  0  0  0  0
 31 84  1  0  0  0  0
 32 36  1  0  0  0  0
 32 86  1  0  0  0  0
 33 37  1  0  0  0  0
 33 39  1  1  0  0  0
 33 87  1  0  0  0  0
 36 38  1  0  0  0  0
 36 88  1  0  0  0  0
 37 40  1  0  0  0  0
 37 90  1  0  0  0  0
 37 91  1  0  0  0  0
 38 41  1  0  0  0  0
 38 92  1  0  0  0  0
 38 93  1  0  0  0  0
 39 94  1  0  0  0  0
 39 95  1  0  0  0  0
 39 96  1  0  0  0  0
 40 99  1  0  0  0  0
 40100  1  0  0  0  0
 40101  1  0  0  0  0
 41 44  2  0  0  0  0
 41 45  1  0  0  0  0
 42 43  1  0  0  0  0
 43 46  1  0  0  0  0
 43102  1  0  0  0  0
 44 47  1  0  0  0  0
 44103  1  0  0  0  0
 45 48  2  0  0  0  0
 45104  1  0  0  0  0
 46 50  1  0  0  0  0
 46105  1  0  0  0  0
 46106  1  0  0  0  0
 47 49  2  0  0  0  0
 47108  1  0  0  0  0
 48 49  1  0  0  0  0
 48109  1  0  0  0  0
 49110  1  0  0  0  0
 52 53  1  0  0  0  0
 52 54  1  0  0  0  0
 52 55  1  0  0  0  0
 53113  1  0  0  0  0
 53114  1  0  0  0  0
 53115  1  0  0  0  0
 54116  1  0  0  0  0
 54117  1  0  0  0  0
 54118  1  0  0  0  0
 55119  1  0  0  0  0
 55120  1  0  0  0  0
 55121  1  0  0  0  0
M  END
> <PUBCHEM_COMPOUND_CID>
501736
> <PUBCHEM_COMPOUND_CANONICALIZED>
1
> <PUBCHEM_CACTVS_COMPLEXITY>
1260
> <PUBCHEM_CACTVS_HBOND_ACCEPTOR>
8
> <PUBCHEM_CACTVS_HBOND_DONOR>
6
> <PUBCHEM_CACTVS_ROTATABLE_BOND>
21
> <PUBCHEM_CACTVS_SUBSKEYS>
AAADcfB/vAAAAAAAAAAAAAAAAAAAAAAAAAAwYMAAAAAAAAABAAAAHgAQCAAADXzhmAYyCIPABgCIAiFSGAICAAAgAAAIiIHIAIkKcDqA0TGcYAAklgCYiAedyKCOAAAAAAAAAAAAAAAAAAAAAAAAAAAAAA==
> <PUBCHEM_IUPAC_OPENEYE_NAME>
tert-butyl N-[(1S)-3-amino-1-[[(1S,2S)-1-benzyl-3-[cyclohexylmethyl-[2-[[(1S,2R)-1-(cyclohexylmethylcarbamoyl)-2-methyl-butyl]amino]-2-oxo-ethyl]amino]-2-hydroxy-3-oxo-propyl]carbamoyl]-3-oxo-propyl]carbamate
> <PUBCHEM_IUPAC_CAS_NAME>
N-[(2S)-4-amino-1-[[(2S,3S)-4-[cyclohexylmethyl-[2-[[(2S,3R)-1-(cyclohexylmethylamino)-3-methyl-1-oxopentan-2-yl]amino]-2-oxoethyl]amino]-3-hydroxy-4-oxo-1-phenylbutan-2-yl]amino]-1,4-dioxobutan-2-yl]carbamic acid tert-butyl ester
> <PUBCHEM_IUPAC_NAME_MARKUP>
<I>tert</I>-butyl <I>N</I>-[(2<I>S</I>)-4-amino-1-[[(2<I>S</I>,3<I>S</I>)-4-[cyclohexylmethyl-[2-[[(2<I>S</I>,3<I>R</I>)-1-(cyclohexylmethylamino)-3-methyl-1-oxopentan-2-yl]amino]-2-oxoethyl]amino]-3-hydroxy-4-oxo-1-phenylbutan-2-yl]amino]-1,4-dioxobutan-2-yl]carbamate
> <PUBCHEM_IUPAC_NAME>
tert-butyl N-[(2S)-4-amino-1-[[(2S,3S)-4-[cyclohexylmethyl-[2-[[(2S,3R)-1-(cyclohexylmethylamino)-3-methyl-1-oxopentan-2-yl]amino]-2-oxoethyl]amino]-3-hydroxy-4-oxo-1-phenylbutan-2-yl]amino]-1,4-dioxobutan-2-yl]carbamate
> <PUBCHEM_IUPAC_SYSTEMATIC_NAME>
tert-butyl N-[(2S)-4-azanyl-1-[[(2S,3S)-4-[cyclohexylmethyl-[2-[[(2S,3R)-1-(cyclohexylmethylamino)-3-methyl-1-oxidanylidene-pentan-2-yl]amino]-2-oxidanylidene-ethyl]amino]-3-oxidanyl-4-oxidanylidene-1-phenyl-butan-2-yl]amino]-1,4-bis(oxidanylidene)butan-2-yl]carbamate
> <PUBCHEM_IUPAC_TRADITIONAL_NAME>
N-[(1S)-3-amino-1-[[(1S,2S)-1-benzyl-3-[cyclohexylmethyl-[2-[[(1S,2R)-1-(cyclohexylmethylcarbamoyl)-2-methyl-butyl]amino]-2-keto-ethyl]amino]-2-hydroxy-3-keto-propyl]carbamoyl]-3-keto-propyl]carbamic acid tert-butyl ester
> <PUBCHEM_IUPAC_INCHI>
InChI=1S/C41H66N6O8/c1-6-27(2)35(38(52)43-24-29-18-12-8-13-19-29)46-34(49)26-47(25-30-20-14-9-15-21-30)39(53)36(50)31(22-28-16-10-7-11-17-28)44-37(51)32(23-33(42)48)45-40(54)55-41(3,4)5/h7,10-11,16-17,27,29-32,35-36,50H,6,8-9,12-15,18-26H2,1-5H3,(H2,42,48)(H,43,52)(H,44,51)(H,45,54)(H,46,49)/t27-,31+,32+,35+,36+/m1/s1
> <PUBCHEM_IUPAC_INCHIKEY>
DWUOOQZYCFLFJM-NQBGNDJBSA-N
> <PUBCHEM_XLOGP3_AA>
5.2
> <PUBCHEM_EXACT_MASS>
770.49421308
> <PUBCHEM_MOLECULAR_FORMULA>
C41H66N6O8
> <PUBCHEM_MOLECULAR_WEIGHT>
771.0
> <PUBCHEM_OPENEYE_CAN_SMILES>
CCC(C)C(C(=O)NCC1CCCCC1)NC(=O)CN(CC2CCCCC2)C(=O)C(C(CC3=CC=CC=C3)NC(=O)C(CC(=O)N)NC(=O)OC(C)(C)C)O
> <PUBCHEM_OPENEYE_ISO_SMILES>
CC[C@@H](C)[C@@H](C(=O)NCC1CCCCC1)NC(=O)CN(CC2CCCCC2)C(=O)[C@H]([C@H](CC3=CC=CC=C3)NC(=O)[C@H](CC(=O)N)NC(=O)OC(C)(C)C)O
> <PUBCHEM_CACTVS_TPSA>
209
> <PUBCHEM_MONOISOTOPIC_WEIGHT>
770.49421308
> <PUBCHEM_TOTAL_CHARGE>
0
> <PUBCHEM_HEAVY_ATOM_COUNT>
55
> <PUBCHEM_ATOM_DEF_STEREO_COUNT>
5
> <PUBCHEM_ATOM_UDEF_STEREO_COUNT>
0
> <PUBCHEM_BOND_DEF_STEREO_COUNT>
0
> <PUBCHEM_BOND_UDEF_STEREO_COUNT>
0
> <PUBCHEM_ISOTOPIC_ATOM_COUNT>
0
> <PUBCHEM_COMPONENT_COUNT>
1
> <PUBCHEM_CACTVS_TAUTO_COUNT>
-1
> <PUBCHEM_COORDINATE_TYPE>
1
5
255
> <PUBCHEM_BONDANNOTATIONS>
31  11  6
36  12  5
43  13  5
32  2  5
33  39  5
41  44  8
41  45  8
44  47  8
45  48  8
47  49  8
48  49  8
$$$$
