501752
  -OEChem-10302200282D
 91 94  0     1  0  0  0  0  0999 V2000
    5.9236    0.8230    0.0000 O   0  0  0  0  0  0  0  0  0  0  0  0
    9.6237    0.5224    0.0000 O   0  0  0  0  0  0  0  0  0  0  0  0
    7.0256    0.0224    0.0000 O   0  0  0  0  0  0  0  0  0  0  0  0
   10.4897    0.0224    0.0000 O   0  0  0  0  0  0  0  0  0  0  0  0
   13.0878    0.5224    0.0000 O   0  0  0  0  0  0  0  0  0  0  0  0
   13.0878   -2.4776    0.0000 O   0  0  0  0  0  0  0  0  0  0  0  0
   11.3557    0.5224    0.0000 O   0  0  0  0  0  0  0  0  0  0  0  0
    7.8916    1.5224    0.0000 N   0  0  0  0  0  0  0  0  0  0  0  0
    5.3884    2.4702    0.0000 N   0  0  0  0  0  0  0  0  0  0  0  0
    9.6237   -1.4776    0.0000 N   0  0  0  0  0  0  0  0  0  0  0  0
   12.2217   -0.9776    0.0000 N   0  0  0  0  0  0  0  0  0  0  0  0
   12.2217   -3.9776    0.0000 N   0  0  0  0  0  0  0  0  0  0  0  0
    3.6942    2.8304    0.0000 C   0  0  0  0  0  0  0  0  0  0  0  0
    2.7431    2.5214    0.0000 C   0  0  0  0  0  0  0  0  0  0  0  0
    3.9021    3.8085    0.0000 C   0  0  0  0  0  0  0  0  0  0  0  0
    7.0826    2.1101    0.0000 C   0  0  1  0  0  0  0  0  0  0  0  0
    2.0000    3.1905    0.0000 C   0  0  0  0  0  0  0  0  0  0  0  0
    3.1590    4.4776    0.0000 C   0  0  0  0  0  0  0  0  0  0  0  0
    4.4374    2.1612    0.0000 C   0  0  0  0  0  0  0  0  0  0  0  0
    2.2079    4.1686    0.0000 C   0  0  0  0  0  0  0  0  0  0  0  0
    7.3916    3.0612    0.0000 C   0  0  0  0  0  0  0  0  0  0  0  0
    8.3916    3.0612    0.0000 C   0  0  0  0  0  0  0  0  0  0  0  0
    8.7006    2.1101    0.0000 C   0  0  0  0  0  0  0  0  0  0  0  0
    6.1316    1.8011    0.0000 C   0  0  0  0  0  0  0  0  0  0  0  0
    7.8916    0.5224    0.0000 C   0  0  0  0  0  0  0  0  0  0  0  0
    8.7576    0.0224    0.0000 C   0  0  2  0  0  0  0  0  0  0  0  0
    8.7576   -0.9776    0.0000 C   0  0  2  0  0  0  0  0  0  0  0  0
    7.8916   -1.4776    0.0000 C   0  0  0  0  0  0  0  0  0  0  0  0
    7.8916   -2.4776    0.0000 C   0  0  0  0  0  0  0  0  0  0  0  0
   10.4897   -0.9776    0.0000 C   0  0  0  0  0  0  0  0  0  0  0  0
   11.3557   -1.4776    0.0000 C   0  0  2  0  0  0  0  0  0  0  0  0
    8.7576   -2.9776    0.0000 C   0  0  0  0  0  0  0  0  0  0  0  0
    7.0256   -2.9776    0.0000 C   0  0  0  0  0  0  0  0  0  0  0  0
   11.3557   -2.4776    0.0000 C   0  0  0  0  0  0  0  0  0  0  0  0
    8.7576   -3.9776    0.0000 C   0  0  0  0  0  0  0  0  0  0  0  0
    7.0256   -3.9776    0.0000 C   0  0  0  0  0  0  0  0  0  0  0  0
    7.8916   -4.4776    0.0000 C   0  0  0  0  0  0  0  0  0  0  0  0
   12.2217   -2.9776    0.0000 C   0  0  0  0  0  0  0  0  0  0  0  0
   12.2217    0.0224    0.0000 C   0  0  0  0  0  0  0  0  0  0  0  0
   13.0878    1.5224    0.0000 C   0  0  0  0  0  0  0  0  0  0  0  0
   13.9538    2.0224    0.0000 C   0  0  0  0  0  0  0  0  0  0  0  0
   14.8198    1.5224    0.0000 C   0  0  0  0  0  0  0  0  0  0  0  0
   13.9538    3.0224    0.0000 C   0  0  0  0  0  0  0  0  0  0  0  0
   15.6858    2.0224    0.0000 C   0  0  0  0  0  0  0  0  0  0  0  0
   14.8198    3.5224    0.0000 C   0  0  0  0  0  0  0  0  0  0  0  0
   15.6858    3.0224    0.0000 C   0  0  0  0  0  0  0  0  0  0  0  0
    3.5653    2.2239    0.0000 H   0  0  0  0  0  0  0  0  0  0  0  0
    2.2546    2.1396    0.0000 H   0  0  0  0  0  0  0  0  0  0  0  0
    3.0342    1.9739    0.0000 H   0  0  0  0  0  0  0  0  0  0  0  0
    4.4770    3.5763    0.0000 H   0  0  0  0  0  0  0  0  0  0  0  0
    4.2307    4.3343    0.0000 H   0  0  0  0  0  0  0  0  0  0  0  0
    6.9856    1.4978    0.0000 H   0  0  0  0  0  0  0  0  0  0  0  0
    1.4252    3.4227    0.0000 H   0  0  0  0  0  0  0  0  0  0  0  0
    1.6714    2.6647    0.0000 H   0  0  0  0  0  0  0  0  0  0  0  0
    3.6475    4.8594    0.0000 H   0  0  0  0  0  0  0  0  0  0  0  0
    2.8679    5.0251    0.0000 H   0  0  0  0  0  0  0  0  0  0  0  0
    3.9488    1.7795    0.0000 H   0  0  0  0  0  0  0  0  0  0  0  0
    4.7284    1.6138    0.0000 H   0  0  0  0  0  0  0  0  0  0  0  0
    2.1216    4.7826    0.0000 H   0  0  0  0  0  0  0  0  0  0  0  0
    1.5883    4.1903    0.0000 H   0  0  0  0  0  0  0  0  0  0  0  0
    7.4564    3.6778    0.0000 H   0  0  0  0  0  0  0  0  0  0  0  0
    6.7852    3.1901    0.0000 H   0  0  0  0  0  0  0  0  0  0  0  0
    8.9981    3.1901    0.0000 H   0  0  0  0  0  0  0  0  0  0  0  0
    8.3268    3.6778    0.0000 H   0  0  0  0  0  0  0  0  0  0  0  0
    9.0106    1.5732    0.0000 H   0  0  0  0  0  0  0  0  0  0  0  0
    9.2670    2.3623    0.0000 H   0  0  0  0  0  0  0  0  0  0  0  0
    5.5173    3.0767    0.0000 H   0  0  0  0  0  0  0  0  0  0  0  0
    8.7576    0.6424    0.0000 H   0  0  0  0  0  0  0  0  0  0  0  0
    9.2946   -0.6676    0.0000 H   0  0  0  0  0  0  0  0  0  0  0  0
    7.6796   -0.8950    0.0000 H   0  0  0  0  0  0  0  0  0  0  0  0
    7.2810   -1.5853    0.0000 H   0  0  0  0  0  0  0  0  0  0  0  0
    9.6237   -2.0976    0.0000 H   0  0  0  0  0  0  0  0  0  0  0  0
    9.6237    1.1424    0.0000 H   0  0  0  0  0  0  0  0  0  0  0  0
   11.3557   -0.8576    0.0000 H   0  0  0  0  0  0  0  0  0  0  0  0
    9.2946   -2.6676    0.0000 H   0  0  0  0  0  0  0  0  0  0  0  0
    6.4887   -2.6676    0.0000 H   0  0  0  0  0  0  0  0  0  0  0  0
   10.7451   -2.3700    0.0000 H   0  0  0  0  0  0  0  0  0  0  0  0
   11.1437   -3.0602    0.0000 H   0  0  0  0  0  0  0  0  0  0  0  0
   12.7587   -1.2876    0.0000 H   0  0  0  0  0  0  0  0  0  0  0  0
    9.2946   -4.2876    0.0000 H   0  0  0  0  0  0  0  0  0  0  0  0
    6.4887   -4.2876    0.0000 H   0  0  0  0  0  0  0  0  0  0  0  0
    7.8916   -5.0976    0.0000 H   0  0  0  0  0  0  0  0  0  0  0  0
   12.7587   -4.2876    0.0000 H   0  0  0  0  0  0  0  0  0  0  0  0
   11.6848   -4.2876    0.0000 H   0  0  0  0  0  0  0  0  0  0  0  0
   12.8757    2.1050    0.0000 H   0  0  0  0  0  0  0  0  0  0  0  0
   12.4772    1.4147    0.0000 H   0  0  0  0  0  0  0  0  0  0  0  0
   14.8198    0.9024    0.0000 H   0  0  0  0  0  0  0  0  0  0  0  0
   13.4169    3.3324    0.0000 H   0  0  0  0  0  0  0  0  0  0  0  0
   16.2228    1.7124    0.0000 H   0  0  0  0  0  0  0  0  0  0  0  0
   14.8198    4.1424    0.0000 H   0  0  0  0  0  0  0  0  0  0  0  0
   16.2228    3.3324    0.0000 H   0  0  0  0  0  0  0  0  0  0  0  0
  1 24  2  0  0  0  0
 26  2  1  1  0  0  0
  2 73  1  0  0  0  0
  3 25  2  0  0  0  0
  4 30  2  0  0  0  0
  5 39  1  0  0  0  0
  5 40  1  0  0  0  0
  6 38  2  0  0  0  0
  7 39  2  0  0  0  0
  8 16  1  0  0  0  0
  8 23  1  0  0  0  0
  8 25  1  0  0  0  0
  9 19  1  0  0  0  0
  9 24  1  0  0  0  0
  9 67  1  0  0  0  0
 27 10  1  1  0  0  0
 10 30  1  0  0  0  0
 10 72  1  0  0  0  0
 31 11  1  1  0  0  0
 11 39  1  0  0  0  0
 11 79  1  0  0  0  0
 12 38  1  0  0  0  0
 12 83  1  0  0  0  0
 12 84  1  0  0  0  0
 13 14  1  0  0  0  0
 13 15  1  0  0  0  0
 13 19  1  0  0  0  0
 13 47  1  0  0  0  0
 14 17  1  0  0  0  0
 14 48  1  0  0  0  0
 14 49  1  0  0  0  0
 15 18  1  0  0  0  0
 15 50  1  0  0  0  0
 15 51  1  0  0  0  0
 16 21  1  0  0  0  0
 16 24  1  6  0  0  0
 16 52  1  0  0  0  0
 17 20  1  0  0  0  0
 17 53  1  0  0  0  0
 17 54  1  0  0  0  0
 18 20  1  0  0  0  0
 18 55  1  0  0  0  0
 18 56  1  0  0  0  0
 19 57  1  0  0  0  0
 19 58  1  0  0  0  0
 20 59  1  0  0  0  0
 20 60  1  0  0  0  0
 21 22  1  0  0  0  0
 21 61  1  0  0  0  0
 21 62  1  0  0  0  0
 22 23  1  0  0  0  0
 22 63  1  0  0  0  0
 22 64  1  0  0  0  0
 23 65  1  0  0  0  0
 23 66  1  0  0  0  0
 25 26  1  0  0  0  0
 26 27  1  0  0  0  0
 26 68  1  0  0  0  0
 27 28  1  0  0  0  0
 27 69  1  0  0  0  0
 28 29  1  0  0  0  0
 28 70  1  0  0  0  0
 28 71  1  0  0  0  0
 29 32  2  0  0  0  0
 29 33  1  0  0  0  0
 30 31  1  0  0  0  0
 31 34  1  0  0  0  0
 31 74  1  0  0  0  0
 32 35  1  0  0  0  0
 32 75  1  0  0  0  0
 33 36  2  0  0  0  0
 33 76  1  0  0  0  0
 34 38  1  0  0  0  0
 34 77  1  0  0  0  0
 34 78  1  0  0  0  0
 35 37  2  0  0  0  0
 35 80  1  0  0  0  0
 36 37  1  0  0  0  0
 36 81  1  0  0  0  0
 37 82  1  0  0  0  0
 40 41  1  0  0  0  0
 40 85  1  0  0  0  0
 40 86  1  0  0  0  0
 41 42  2  0  0  0  0
 41 43  1  0  0  0  0
 42 44  1  0  0  0  0
 42 87  1  0  0  0  0
 43 45  2  0  0  0  0
 43 88  1  0  0  0  0
 44 46  2  0  0  0  0
 44 89  1  0  0  0  0
 45 46  1  0  0  0  0
 45 90  1  0  0  0  0
 46 91  1  0  0  0  0
M  END
> <PUBCHEM_COMPOUND_CID>
501752
> <PUBCHEM_COMPOUND_CANONICALIZED>
1
> <PUBCHEM_CACTVS_COMPLEXITY>
1020
> <PUBCHEM_CACTVS_HBOND_ACCEPTOR>
7
> <PUBCHEM_CACTVS_HBOND_DONOR>
5
> <PUBCHEM_CACTVS_ROTATABLE_BOND>
15
> <PUBCHEM_CACTVS_SUBSKEYS>
AAADcfB/uAAAAAAAAAAAAAAAAAAAAWAAAAAwYMAAAAAAAAABQAAAHgAQCAAADTzhmAYwCIPABgCIAiFSGAICAAAgAAAIiIHICIkKdjqA8TmccAAk1gGYqAedyaCOAAAAAAAAAAAAAAAAAAAAAAAAAAAAAA==
> <PUBCHEM_IUPAC_OPENEYE_NAME>
benzyl N-[(1S)-3-amino-1-[[(1S,2S)-1-benzyl-3-[(2S)-2-(cyclohexylmethylcarbamoyl)pyrrolidin-1-yl]-2-hydroxy-3-oxo-propyl]carbamoyl]-3-oxo-propyl]carbamate
> <PUBCHEM_IUPAC_CAS_NAME>
N-[(2S)-4-amino-1-[[(2S,3S)-4-[(2S)-2-[(cyclohexylmethylamino)-oxomethyl]-1-pyrrolidinyl]-3-hydroxy-4-oxo-1-phenylbutan-2-yl]amino]-1,4-dioxobutan-2-yl]carbamic acid (phenylmethyl) ester
> <PUBCHEM_IUPAC_NAME_MARKUP>
benzyl <I>N</I>-[(2<I>S</I>)-4-amino-1-[[(2<I>S</I>,3<I>S</I>)-4-[(2<I>S</I>)-2-(cyclohexylmethylcarbamoyl)pyrrolidin-1-yl]-3-hydroxy-4-oxo-1-phenylbutan-2-yl]amino]-1,4-dioxobutan-2-yl]carbamate
> <PUBCHEM_IUPAC_NAME>
benzyl N-[(2S)-4-amino-1-[[(2S,3S)-4-[(2S)-2-(cyclohexylmethylcarbamoyl)pyrrolidin-1-yl]-3-hydroxy-4-oxo-1-phenylbutan-2-yl]amino]-1,4-dioxobutan-2-yl]carbamate
> <PUBCHEM_IUPAC_SYSTEMATIC_NAME>
(phenylmethyl) N-[(2S)-4-azanyl-1-[[(2S,3S)-4-[(2S)-2-(cyclohexylmethylcarbamoyl)pyrrolidin-1-yl]-3-oxidanyl-4-oxidanylidene-1-phenyl-butan-2-yl]amino]-1,4-bis(oxidanylidene)butan-2-yl]carbamate
> <PUBCHEM_IUPAC_TRADITIONAL_NAME>
N-[(1S)-3-amino-1-[[(1S,2S)-1-benzyl-3-[(2S)-2-(cyclohexylmethylcarbamoyl)pyrrolidino]-2-hydroxy-3-keto-propyl]carbamoyl]-3-keto-propyl]carbamic acid benzyl ester
> <PUBCHEM_IUPAC_INCHI>
InChI=1S/C34H45N5O7/c35-29(40)20-27(38-34(45)46-22-25-15-8-3-9-16-25)31(42)37-26(19-23-11-4-1-5-12-23)30(41)33(44)39-18-10-17-28(39)32(43)36-21-24-13-6-2-7-14-24/h1,3-5,8-9,11-12,15-16,24,26-28,30,41H,2,6-7,10,13-14,17-22H2,(H2,35,40)(H,36,43)(H,37,42)(H,38,45)/t26-,27-,28-,30-/m0/s1
> <PUBCHEM_IUPAC_INCHIKEY>
WOPZRFKQHNGEBN-NUISNXNRSA-N
> <PUBCHEM_XLOGP3_AA>
2.8
> <PUBCHEM_EXACT_MASS>
635.33189879
> <PUBCHEM_MOLECULAR_FORMULA>
C34H45N5O7
> <PUBCHEM_MOLECULAR_WEIGHT>
635.7
> <PUBCHEM_OPENEYE_CAN_SMILES>
C1CCC(CC1)CNC(=O)C2CCCN2C(=O)C(C(CC3=CC=CC=C3)NC(=O)C(CC(=O)N)NC(=O)OCC4=CC=CC=C4)O
> <PUBCHEM_OPENEYE_ISO_SMILES>
C1CCC(CC1)CNC(=O)[C@@H]2CCCN2C(=O)[C@H]([C@H](CC3=CC=CC=C3)NC(=O)[C@H](CC(=O)N)NC(=O)OCC4=CC=CC=C4)O
> <PUBCHEM_CACTVS_TPSA>
180
> <PUBCHEM_MONOISOTOPIC_WEIGHT>
635.33189879
> <PUBCHEM_TOTAL_CHARGE>
0
> <PUBCHEM_HEAVY_ATOM_COUNT>
46
> <PUBCHEM_ATOM_DEF_STEREO_COUNT>
4
> <PUBCHEM_ATOM_UDEF_STEREO_COUNT>
0
> <PUBCHEM_BOND_DEF_STEREO_COUNT>
0
> <PUBCHEM_BOND_UDEF_STEREO_COUNT>
0
> <PUBCHEM_ISOTOPIC_ATOM_COUNT>
0
> <PUBCHEM_COMPONENT_COUNT>
1
> <PUBCHEM_CACTVS_TAUTO_COUNT>
-1
> <PUBCHEM_COORDINATE_TYPE>
1
5
255
> <PUBCHEM_BONDANNOTATIONS>
27  10  5
31  11  5
16  24  6
26  2  5
29  32  8
29  33  8
32  35  8
33  36  8
35  37  8
36  37  8
41  42  8
41  43  8
42  44  8
43  45  8
44  46  8
45  46  8
$$$$
