501710
  -OEChem-10302200282D
 61 64  0     1  0  0  0  0  0999 V2000
    4.6870    1.3826    0.0000 O   0  0  0  0  0  0  0  0  0  0  0  0
    4.1111    3.9053    0.0000 O   0  0  0  0  0  0  0  0  0  0  0  0
    2.6166    1.1076    0.0000 O   0  0  0  0  0  0  0  0  0  0  0  0
    9.1448   -0.0154    0.0000 O   0  0  0  0  0  0  0  0  0  0  0  0
    5.6005   -0.2107    0.0000 O   0  0  0  0  0  0  0  0  0  0  0  0
    6.4666    1.2893    0.0000 N   0  0  0  0  0  0  0  0  0  0  0  0
    7.3326   -0.2107    0.0000 N   0  0  0  0  0  0  0  0  0  0  0  0
    4.5179    2.9917    0.0000 C   0  0  1  0  0  0  0  0  0  0  0  0
    5.6005    1.7893    0.0000 C   0  0  1  0  0  0  0  0  0  0  0  0
    5.4960    2.7838    0.0000 C   0  0  0  0  0  0  0  0  0  0  0  0
    4.0179    2.1257    0.0000 C   0  0  1  0  0  0  0  0  0  0  0  0
    3.0233    2.0212    0.0000 C   0  0  0  0  0  0  0  0  0  0  0  0
    7.3326    1.7893    0.0000 C   0  0  0  0  0  0  0  0  0  0  0  0
    8.1986    1.2893    0.0000 C   0  0  0  0  0  0  0  0  0  0  0  0
    6.4666    0.2893    0.0000 C   0  0  0  0  0  0  0  0  0  0  0  0
   11.2284   -0.0767    0.0000 C   0  0  0  0  0  0  0  0  0  0  0  0
   12.2284   -0.0767    0.0000 C   0  0  0  0  0  0  0  0  0  0  0  0
   10.7284    0.7893    0.0000 C   0  0  0  0  0  0  0  0  0  0  0  0
   12.7284   -0.9428    0.0000 C   0  0  0  0  0  0  0  0  0  0  0  0
    8.1986    0.2893    0.0000 C   0  0  0  0  0  0  0  0  0  0  0  0
    9.7284    0.7893    0.0000 C   0  0  0  0  0  0  0  0  0  0  0  0
   13.7284   -0.9428    0.0000 C   0  0  0  0  0  0  0  0  0  0  0  0
    9.1448    1.5940    0.0000 C   0  0  0  0  0  0  0  0  0  0  0  0
   14.2284   -1.8088    0.0000 C   0  0  0  0  0  0  0  0  0  0  0  0
   15.2284   -1.8088    0.0000 C   0  0  0  0  0  0  0  0  0  0  0  0
   15.7284   -2.6748    0.0000 C   0  0  0  0  0  0  0  0  0  0  0  0
   16.7284   -2.6748    0.0000 C   0  0  0  0  0  0  0  0  0  0  0  0
   15.2284   -3.5408    0.0000 C   0  0  0  0  0  0  0  0  0  0  0  0
   17.2284   -3.5408    0.0000 C   0  0  0  0  0  0  0  0  0  0  0  0
   15.7284   -4.4069    0.0000 C   0  0  0  0  0  0  0  0  0  0  0  0
   16.7284   -4.4069    0.0000 C   0  0  0  0  0  0  0  0  0  0  0  0
    4.9080    3.4736    0.0000 H   0  0  0  0  0  0  0  0  0  0  0  0
    5.5681    1.1701    0.0000 H   0  0  0  0  0  0  0  0  0  0  0  0
    6.1160    2.7838    0.0000 H   0  0  0  0  0  0  0  0  0  0  0  0
    5.5608    3.4004    0.0000 H   0  0  0  0  0  0  0  0  0  0  0  0
    3.7957    1.5469    0.0000 H   0  0  0  0  0  0  0  0  0  0  0  0
    3.0666    2.6397    0.0000 H   0  0  0  0  0  0  0  0  0  0  0  0
    2.4218    2.1712    0.0000 H   0  0  0  0  0  0  0  0  0  0  0  0
    7.3326    2.4093    0.0000 H   0  0  0  0  0  0  0  0  0  0  0  0
    4.4756    4.4069    0.0000 H   0  0  0  0  0  0  0  0  0  0  0  0
   12.8111    0.1353    0.0000 H   0  0  0  0  0  0  0  0  0  0  0  0
   12.1208    0.5338    0.0000 H   0  0  0  0  0  0  0  0  0  0  0  0
   10.6458   -0.2888    0.0000 H   0  0  0  0  0  0  0  0  0  0  0  0
   11.3361   -0.6873    0.0000 H   0  0  0  0  0  0  0  0  0  0  0  0
   11.3111    1.0013    0.0000 H   0  0  0  0  0  0  0  0  0  0  0  0
   10.6208    1.3999    0.0000 H   0  0  0  0  0  0  0  0  0  0  0  0
   12.1458   -1.1548    0.0000 H   0  0  0  0  0  0  0  0  0  0  0  0
   12.8361   -1.5533    0.0000 H   0  0  0  0  0  0  0  0  0  0  0  0
   14.3111   -0.7307    0.0000 H   0  0  0  0  0  0  0  0  0  0  0  0
   13.6208   -0.3322    0.0000 H   0  0  0  0  0  0  0  0  0  0  0  0
    9.3374    2.1834    0.0000 H   0  0  0  0  0  0  0  0  0  0  0  0
   13.6458   -2.0208    0.0000 H   0  0  0  0  0  0  0  0  0  0  0  0
   14.3361   -2.4194    0.0000 H   0  0  0  0  0  0  0  0  0  0  0  0
    2.0000    1.0428    0.0000 H   0  0  0  0  0  0  0  0  0  0  0  0
   15.8111   -1.5967    0.0000 H   0  0  0  0  0  0  0  0  0  0  0  0
   15.1208   -1.1982    0.0000 H   0  0  0  0  0  0  0  0  0  0  0  0
   17.0384   -2.1379    0.0000 H   0  0  0  0  0  0  0  0  0  0  0  0
   14.6084   -3.5408    0.0000 H   0  0  0  0  0  0  0  0  0  0  0  0
   17.8484   -3.5408    0.0000 H   0  0  0  0  0  0  0  0  0  0  0  0
   15.4184   -4.9438    0.0000 H   0  0  0  0  0  0  0  0  0  0  0  0
   17.0384   -4.9438    0.0000 H   0  0  0  0  0  0  0  0  0  0  0  0
  1  9  1  0  0  0  0
  1 11  1  0  0  0  0
  8  2  1  1  0  0  0
  2 40  1  0  0  0  0
  3 12  1  0  0  0  0
  3 54  1  0  0  0  0
  4 20  1  0  0  0  0
  4 21  1  0  0  0  0
  5 15  2  0  0  0  0
  9  6  1  6  0  0  0
  6 13  1  0  0  0  0
  6 15  1  0  0  0  0
  7 15  1  0  0  0  0
  7 20  2  0  0  0  0
  8 10  1  0  0  0  0
  8 11  1  0  0  0  0
  8 32  1  0  0  0  0
  9 10  1  0  0  0  0
  9 33  1  0  0  0  0
 10 34  1  0  0  0  0
 10 35  1  0  0  0  0
 11 12  1  6  0  0  0
 11 36  1  0  0  0  0
 12 37  1  0  0  0  0
 12 38  1  0  0  0  0
 13 14  2  0  0  0  0
 13 39  1  0  0  0  0
 14 20  1  0  0  0  0
 14 23  1  0  0  0  0
 16 17  1  0  0  0  0
 16 18  1  0  0  0  0
 16 43  1  0  0  0  0
 16 44  1  0  0  0  0
 17 19  1  0  0  0  0
 17 41  1  0  0  0  0
 17 42  1  0  0  0  0
 18 21  1  0  0  0  0
 18 45  1  0  0  0  0
 18 46  1  0  0  0  0
 19 22  1  0  0  0  0
 19 47  1  0  0  0  0
 19 48  1  0  0  0  0
 21 23  2  0  0  0  0
 22 24  1  0  0  0  0
 22 49  1  0  0  0  0
 22 50  1  0  0  0  0
 23 51  1  0  0  0  0
 24 25  1  0  0  0  0
 24 52  1  0  0  0  0
 24 53  1  0  0  0  0
 25 26  1  0  0  0  0
 25 55  1  0  0  0  0
 25 56  1  0  0  0  0
 26 27  2  0  0  0  0
 26 28  1  0  0  0  0
 27 29  1  0  0  0  0
 27 57  1  0  0  0  0
 28 30  2  0  0  0  0
 28 58  1  0  0  0  0
 29 31  2  0  0  0  0
 29 59  1  0  0  0  0
 30 31  1  0  0  0  0
 30 60  1  0  0  0  0
 31 61  1  0  0  0  0
M  END
> <PUBCHEM_COMPOUND_CID>
501710
> <PUBCHEM_COMPOUND_CANONICALIZED>
1
> <PUBCHEM_CACTVS_COMPLEXITY>
726
> <PUBCHEM_CACTVS_HBOND_ACCEPTOR>
5
> <PUBCHEM_CACTVS_HBOND_DONOR>
2
> <PUBCHEM_CACTVS_ROTATABLE_BOND>
10
> <PUBCHEM_CACTVS_SUBSKEYS>
AAADceB7OAAAAAAAAAAAAAAAAAAAASIAAAAwQAAAAAAAAEABAAAAHgAACAAADBThmAYxAIMABgCoAiBmVAACCAAgIAAIiAAoAJiJNCKAsRCOYAAnxgILqAew8OIOAAAAAAAAAAAAAAAAAAAAAAAAAAAAAA==
> <PUBCHEM_IUPAC_OPENEYE_NAME>
3-[(2R,4S,5R)-4-hydroxy-5-(hydroxymethyl)tetrahydrofuran-2-yl]-6-(7-phenylheptyl)furo[2,3-d]pyrimidin-2-one
> <PUBCHEM_IUPAC_CAS_NAME>
3-[(2R,4S,5R)-4-hydroxy-5-(hydroxymethyl)-2-oxolanyl]-6-(7-phenylheptyl)-2-furo[2,3-d]pyrimidinone
> <PUBCHEM_IUPAC_NAME_MARKUP>
3-[(2<I>R</I>,4<I>S</I>,5<I>R</I>)-4-hydroxy-5-(hydroxymethyl)oxolan-2-yl]-6-(7-phenylheptyl)furo[2,3-d]pyrimidin-2-one
> <PUBCHEM_IUPAC_NAME>
3-[(2R,4S,5R)-4-hydroxy-5-(hydroxymethyl)oxolan-2-yl]-6-(7-phenylheptyl)furo[2,3-d]pyrimidin-2-one
> <PUBCHEM_IUPAC_SYSTEMATIC_NAME>
3-[(2R,4S,5R)-5-(hydroxymethyl)-4-oxidanyl-oxolan-2-yl]-6-(7-phenylheptyl)furo[2,3-d]pyrimidin-2-one
> <PUBCHEM_IUPAC_TRADITIONAL_NAME>
3-[(2R,4S,5R)-4-hydroxy-5-methylol-tetrahydrofuran-2-yl]-6-(7-phenylheptyl)furo[2,3-d]pyrimidin-2-one
> <PUBCHEM_IUPAC_INCHI>
InChI=1S/C24H30N2O5/c27-16-21-20(28)14-22(31-21)26-15-18-13-19(30-23(18)25-24(26)29)12-8-3-1-2-5-9-17-10-6-4-7-11-17/h4,6-7,10-11,13,15,20-22,27-28H,1-3,5,8-9,12,14,16H2/t20-,21+,22+/m0/s1
> <PUBCHEM_IUPAC_INCHIKEY>
HGVMZYLZAYUVFU-BHDDXSALSA-N
> <PUBCHEM_XLOGP3_AA>
4.2
> <PUBCHEM_EXACT_MASS>
426.21547206
> <PUBCHEM_MOLECULAR_FORMULA>
C24H30N2O5
> <PUBCHEM_MOLECULAR_WEIGHT>
426.5
> <PUBCHEM_OPENEYE_CAN_SMILES>
C1C(C(OC1N2C=C3C=C(OC3=NC2=O)CCCCCCCC4=CC=CC=C4)CO)O
> <PUBCHEM_OPENEYE_ISO_SMILES>
C1[C@@H]([C@H](O[C@H]1N2C=C3C=C(OC3=NC2=O)CCCCCCCC4=CC=CC=C4)CO)O
> <PUBCHEM_CACTVS_TPSA>
91.6
> <PUBCHEM_MONOISOTOPIC_WEIGHT>
426.21547206
> <PUBCHEM_TOTAL_CHARGE>
0
> <PUBCHEM_HEAVY_ATOM_COUNT>
31
> <PUBCHEM_ATOM_DEF_STEREO_COUNT>
3
> <PUBCHEM_ATOM_UDEF_STEREO_COUNT>
0
> <PUBCHEM_BOND_DEF_STEREO_COUNT>
0
> <PUBCHEM_BOND_UDEF_STEREO_COUNT>
0
> <PUBCHEM_ISOTOPIC_ATOM_COUNT>
0
> <PUBCHEM_COMPONENT_COUNT>
1
> <PUBCHEM_CACTVS_TAUTO_COUNT>
-1
> <PUBCHEM_COORDINATE_TYPE>
1
5
255
> <PUBCHEM_BONDANNOTATIONS>
11  12  6
13  14  8
14  20  8
14  23  8
8  2  5
21  23  8
26  27  8
26  28  8
27  29  8
28  30  8
29  31  8
30  31  8
4  20  8
4  21  8
6  13  8
6  15  8
9  6  6
7  15  8
7  20  8
$$$$
