501739
  -OEChem-10302200282D
112114  0     1  0  0  0  0  0999 V2000
   10.1589   -0.2945    0.0000 O   0  0  0  0  0  0  0  0  0  0  0  0
    6.4589    0.0061    0.0000 O   0  0  0  0  0  0  0  0  0  0  0  0
    7.5608   -0.7945    0.0000 O   0  0  0  0  0  0  0  0  0  0  0  0
    3.2784    1.7045    0.0000 O   0  0  0  0  0  0  0  0  0  0  0  0
   11.0249   -0.7945    0.0000 O   0  0  0  0  0  0  0  0  0  0  0  0
    4.8532    4.9479    0.0000 O   0  0  0  0  0  0  0  0  0  0  0  0
   13.6230   -3.2945    0.0000 O   0  0  0  0  0  0  0  0  0  0  0  0
   11.8910   -5.2945    0.0000 O   0  0  0  0  0  0  0  0  0  0  0  0
    8.4268    0.7055    0.0000 N   0  0  0  0  0  0  0  0  0  0  0  0
    5.9236    1.6534    0.0000 N   0  0  0  0  0  0  0  0  0  0  0  0
   10.1589   -2.2945    0.0000 N   0  0  0  0  0  0  0  0  0  0  0  0
    4.4374    2.9916    0.0000 N   0  0  0  0  0  0  0  0  0  0  0  0
   12.7570   -1.7945    0.0000 N   0  0  0  0  0  0  0  0  0  0  0  0
    3.1590    5.3081    0.0000 N   0  0  0  0  0  0  0  0  0  0  0  0
   13.6230   -5.2945    0.0000 N   0  0  0  0  0  0  0  0  0  0  0  0
    7.6178    1.2933    0.0000 C   0  0  1  0  0  0  0  0  0  0  0  0
    7.9268    2.2443    0.0000 C   0  0  0  0  0  0  0  0  0  0  0  0
    8.9268    2.2443    0.0000 C   0  0  0  0  0  0  0  0  0  0  0  0
    9.2359    1.2933    0.0000 C   0  0  0  0  0  0  0  0  0  0  0  0
    6.6668    0.9843    0.0000 C   0  0  0  0  0  0  0  0  0  0  0  0
    8.4268   -0.2945    0.0000 C   0  0  0  0  0  0  0  0  0  0  0  0
    9.2929   -0.7945    0.0000 C   0  0  2  0  0  0  0  0  0  0  0  0
    4.9726    1.3444    0.0000 C   0  0  1  0  0  0  0  0  0  0  0  0
    9.2929   -1.7945    0.0000 C   0  0  2  0  0  0  0  0  0  0  0  0
    4.7647    0.3662    0.0000 C   0  0  1  0  0  0  0  0  0  0  0  0
    8.4268   -2.2945    0.0000 C   0  0  0  0  0  0  0  0  0  0  0  0
    3.8136    0.0572    0.0000 C   0  0  0  0  0  0  0  0  0  0  0  0
    4.2294    2.0135    0.0000 C   0  0  0  0  0  0  0  0  0  0  0  0
    5.5078   -0.3029    0.0000 C   0  0  0  0  0  0  0  0  0  0  0  0
    3.6942    3.6608    0.0000 C   0  0  1  0  0  0  0  0  0  0  0  0
    8.4268   -3.2945    0.0000 C   0  0  0  0  0  0  0  0  0  0  0  0
    3.0705    0.7263    0.0000 C   0  0  0  0  0  0  0  0  0  0  0  0
   11.0249   -1.7945    0.0000 C   0  0  0  0  0  0  0  0  0  0  0  0
    2.7431    3.3518    0.0000 C   0  0  0  0  0  0  0  0  0  0  0  0
   11.8910   -2.2945    0.0000 C   0  0  2  0  0  0  0  0  0  0  0  0
   11.8910   -3.2945    0.0000 C   0  0  0  0  0  0  0  0  0  0  0  0
    7.5608   -3.7945    0.0000 C   0  0  0  0  0  0  0  0  0  0  0  0
    9.2929   -3.7945    0.0000 C   0  0  0  0  0  0  0  0  0  0  0  0
    3.9021    4.6389    0.0000 C   0  0  0  0  0  0  0  0  0  0  0  0
    2.0000    4.0209    0.0000 C   0  0  0  0  0  0  0  0  0  0  0  0
    2.5352    2.3736    0.0000 C   0  0  0  0  0  0  0  0  0  0  0  0
   12.7570   -3.7945    0.0000 C   0  0  0  0  0  0  0  0  0  0  0  0
    7.5608   -4.7945    0.0000 C   0  0  0  0  0  0  0  0  0  0  0  0
    9.2929   -4.7945    0.0000 C   0  0  0  0  0  0  0  0  0  0  0  0
    8.4268   -5.2945    0.0000 C   0  0  0  0  0  0  0  0  0  0  0  0
   13.6230   -2.2945    0.0000 C   0  0  0  0  0  0  0  0  0  0  0  0
   14.4890   -1.7945    0.0000 C   0  0  0  0  0  0  0  0  0  0  0  0
   12.7570   -4.7945    0.0000 C   0  0  0  0  0  0  0  0  0  0  0  0
   15.3551   -2.2945    0.0000 C   0  0  0  0  0  0  0  0  0  0  0  0
   16.2211   -1.7945    0.0000 C   0  0  0  0  0  0  0  0  0  0  0  0
   16.2211   -0.7945    0.0000 C   0  0  0  0  0  0  0  0  0  0  0  0
   17.0871   -2.2945    0.0000 C   0  0  0  0  0  0  0  0  0  0  0  0
   17.0871   -0.2945    0.0000 C   0  0  0  0  0  0  0  0  0  0  0  0
   17.9531   -1.7945    0.0000 C   0  0  0  0  0  0  0  0  0  0  0  0
   17.9531   -0.7945    0.0000 C   0  0  0  0  0  0  0  0  0  0  0  0
    7.5208    0.6809    0.0000 H   0  0  0  0  0  0  0  0  0  0  0  0
    7.9917    2.8609    0.0000 H   0  0  0  0  0  0  0  0  0  0  0  0
    7.3204    2.3732    0.0000 H   0  0  0  0  0  0  0  0  0  0  0  0
    9.5333    2.3732    0.0000 H   0  0  0  0  0  0  0  0  0  0  0  0
    8.8620    2.8609    0.0000 H   0  0  0  0  0  0  0  0  0  0  0  0
    9.5459    0.7563    0.0000 H   0  0  0  0  0  0  0  0  0  0  0  0
    9.8023    1.5454    0.0000 H   0  0  0  0  0  0  0  0  0  0  0  0
    9.2929   -0.1745    0.0000 H   0  0  0  0  0  0  0  0  0  0  0  0
    5.4333    0.9295    0.0000 H   0  0  0  0  0  0  0  0  0  0  0  0
    9.2929   -2.4145    0.0000 H   0  0  0  0  0  0  0  0  0  0  0  0
    6.0525    2.2598    0.0000 H   0  0  0  0  0  0  0  0  0  0  0  0
    4.6358   -0.2402    0.0000 H   0  0  0  0  0  0  0  0  0  0  0  0
    8.2148   -1.7119    0.0000 H   0  0  0  0  0  0  0  0  0  0  0  0
    7.8163   -2.4022    0.0000 H   0  0  0  0  0  0  0  0  0  0  0  0
    3.3250   -0.3245    0.0000 H   0  0  0  0  0  0  0  0  0  0  0  0
    4.1047   -0.4902    0.0000 H   0  0  0  0  0  0  0  0  0  0  0  0
   10.1589   -2.9145    0.0000 H   0  0  0  0  0  0  0  0  0  0  0  0
    5.0930   -0.7637    0.0000 H   0  0  0  0  0  0  0  0  0  0  0  0
    5.9686   -0.7178    0.0000 H   0  0  0  0  0  0  0  0  0  0  0  0
    5.9227    0.1578    0.0000 H   0  0  0  0  0  0  0  0  0  0  0  0
   10.1589    0.3255    0.0000 H   0  0  0  0  0  0  0  0  0  0  0  0
    5.0270    3.1832    0.0000 H   0  0  0  0  0  0  0  0  0  0  0  0
    4.2839    3.8524    0.0000 H   0  0  0  0  0  0  0  0  0  0  0  0
    3.4853    1.1871    0.0000 H   0  0  0  0  0  0  0  0  0  0  0  0
    2.6097    1.1412    0.0000 H   0  0  0  0  0  0  0  0  0  0  0  0
    2.6556    0.2656    0.0000 H   0  0  0  0  0  0  0  0  0  0  0  0
    3.2039    2.9369    0.0000 H   0  0  0  0  0  0  0  0  0  0  0  0
   11.8910   -1.6745    0.0000 H   0  0  0  0  0  0  0  0  0  0  0  0
   11.2804   -3.1869    0.0000 H   0  0  0  0  0  0  0  0  0  0  0  0
   11.6789   -3.8771    0.0000 H   0  0  0  0  0  0  0  0  0  0  0  0
    7.0239   -3.4845    0.0000 H   0  0  0  0  0  0  0  0  0  0  0  0
    9.8298   -3.4845    0.0000 H   0  0  0  0  0  0  0  0  0  0  0  0
    2.4149    4.4816    0.0000 H   0  0  0  0  0  0  0  0  0  0  0  0
    1.5392    4.4358    0.0000 H   0  0  0  0  0  0  0  0  0  0  0  0
    1.5851    3.5601    0.0000 H   0  0  0  0  0  0  0  0  0  0  0  0
    1.9288    2.5025    0.0000 H   0  0  0  0  0  0  0  0  0  0  0  0
    2.4063    1.7672    0.0000 H   0  0  0  0  0  0  0  0  0  0  0  0
    3.1417    2.2447    0.0000 H   0  0  0  0  0  0  0  0  0  0  0  0
   12.7570   -1.1745    0.0000 H   0  0  0  0  0  0  0  0  0  0  0  0
   13.3676   -3.9022    0.0000 H   0  0  0  0  0  0  0  0  0  0  0  0
   12.9690   -3.2119    0.0000 H   0  0  0  0  0  0  0  0  0  0  0  0
    7.0239   -5.1045    0.0000 H   0  0  0  0  0  0  0  0  0  0  0  0
    9.8298   -5.1045    0.0000 H   0  0  0  0  0  0  0  0  0  0  0  0
    8.4268   -5.9145    0.0000 H   0  0  0  0  0  0  0  0  0  0  0  0
    3.2879    5.9145    0.0000 H   0  0  0  0  0  0  0  0  0  0  0  0
    2.5693    5.1165    0.0000 H   0  0  0  0  0  0  0  0  0  0  0  0
   14.8876   -1.3196    0.0000 H   0  0  0  0  0  0  0  0  0  0  0  0
   14.0905   -1.3196    0.0000 H   0  0  0  0  0  0  0  0  0  0  0  0
   14.9565   -2.7695    0.0000 H   0  0  0  0  0  0  0  0  0  0  0  0
   15.7536   -2.7695    0.0000 H   0  0  0  0  0  0  0  0  0  0  0  0
   13.6230   -5.9145    0.0000 H   0  0  0  0  0  0  0  0  0  0  0  0
   14.1599   -4.9845    0.0000 H   0  0  0  0  0  0  0  0  0  0  0  0
   15.6841   -0.4845    0.0000 H   0  0  0  0  0  0  0  0  0  0  0  0
   17.0871   -2.9145    0.0000 H   0  0  0  0  0  0  0  0  0  0  0  0
   17.0871    0.3255    0.0000 H   0  0  0  0  0  0  0  0  0  0  0  0
   18.4901   -2.1045    0.0000 H   0  0  0  0  0  0  0  0  0  0  0  0
   18.4901   -0.4845    0.0000 H   0  0  0  0  0  0  0  0  0  0  0  0
 22  1  1  1  0  0  0
  1 76  1  0  0  0  0
  2 20  2  0  0  0  0
  3 21  2  0  0  0  0
  4 28  2  0  0  0  0
  5 33  2  0  0  0  0
  6 39  2  0  0  0  0
  7 46  2  0  0  0  0
  8 48  2  0  0  0  0
  9 16  1  0  0  0  0
  9 19  1  0  0  0  0
  9 21  1  0  0  0  0
 10 20  1  0  0  0  0
 23 10  1  1  0  0  0
 10 66  1  0  0  0  0
 24 11  1  1  0  0  0
 11 33  1  0  0  0  0
 11 72  1  0  0  0  0
 12 28  1  0  0  0  0
 30 12  1  1  0  0  0
 12 77  1  0  0  0  0
 35 13  1  1  0  0  0
 13 46  1  0  0  0  0
 13 94  1  0  0  0  0
 14 39  1  0  0  0  0
 14100  1  0  0  0  0
 14101  1  0  0  0  0
 15 48  1  0  0  0  0
 15106  1  0  0  0  0
 15107  1  0  0  0  0
 16 17  1  0  0  0  0
 16 20  1  6  0  0  0
 16 56  1  0  0  0  0
 17 18  1  0  0  0  0
 17 57  1  0  0  0  0
 17 58  1  0  0  0  0
 18 19  1  0  0  0  0
 18 59  1  0  0  0  0
 18 60  1  0  0  0  0
 19 61  1  0  0  0  0
 19 62  1  0  0  0  0
 21 22  1  0  0  0  0
 22 24  1  0  0  0  0
 22 63  1  0  0  0  0
 23 25  1  0  0  0  0
 23 28  1  0  0  0  0
 23 64  1  0  0  0  0
 24 26  1  0  0  0  0
 24 65  1  0  0  0  0
 25 27  1  0  0  0  0
 25 29  1  6  0  0  0
 25 67  1  0  0  0  0
 26 31  1  0  0  0  0
 26 68  1  0  0  0  0
 26 69  1  0  0  0  0
 27 32  1  0  0  0  0
 27 70  1  0  0  0  0
 27 71  1  0  0  0  0
 29 73  1  0  0  0  0
 29 74  1  0  0  0  0
 29 75  1  0  0  0  0
 30 34  1  0  0  0  0
 30 39  1  0  0  0  0
 30 78  1  0  0  0  0
 31 37  2  0  0  0  0
 31 38  1  0  0  0  0
 32 79  1  0  0  0  0
 32 80  1  0  0  0  0
 32 81  1  0  0  0  0
 33 35  1  0  0  0  0
 34 40  1  0  0  0  0
 34 41  1  0  0  0  0
 34 82  1  0  0  0  0
 35 36  1  0  0  0  0
 35 83  1  0  0  0  0
 36 42  1  0  0  0  0
 36 84  1  0  0  0  0
 36 85  1  0  0  0  0
 37 43  1  0  0  0  0
 37 86  1  0  0  0  0
 38 44  2  0  0  0  0
 38 87  1  0  0  0  0
 40 88  1  0  0  0  0
 40 89  1  0  0  0  0
 40 90  1  0  0  0  0
 41 91  1  0  0  0  0
 41 92  1  0  0  0  0
 41 93  1  0  0  0  0
 42 48  1  0  0  0  0
 42 95  1  0  0  0  0
 42 96  1  0  0  0  0
 43 45  2  0  0  0  0
 43 97  1  0  0  0  0
 44 45  1  0  0  0  0
 44 98  1  0  0  0  0
 45 99  1  0  0  0  0
 46 47  1  0  0  0  0
 47 49  1  0  0  0  0
 47102  1  0  0  0  0
 47103  1  0  0  0  0
 49 50  1  0  0  0  0
 49104  1  0  0  0  0
 49105  1  0  0  0  0
 50 51  2  0  0  0  0
 50 52  1  0  0  0  0
 51 53  1  0  0  0  0
 51108  1  0  0  0  0
 52 54  2  0  0  0  0
 52109  1  0  0  0  0
 53 55  2  0  0  0  0
 53110  1  0  0  0  0
 54 55  1  0  0  0  0
 54111  1  0  0  0  0
 55112  1  0  0  0  0
M  END
> <PUBCHEM_COMPOUND_CID>
501739
> <PUBCHEM_COMPOUND_CANONICALIZED>
1
> <PUBCHEM_CACTVS_COMPLEXITY>
1320
> <PUBCHEM_CACTVS_HBOND_ACCEPTOR>
8
> <PUBCHEM_CACTVS_HBOND_DONOR>
7
> <PUBCHEM_CACTVS_ROTATABLE_BOND>
21
> <PUBCHEM_CACTVS_SUBSKEYS>
AAADcfB/vAAAAAAAAAAAAAAAAAAAAWAAAAAwYAAAAAAAAAABQAAAHgAQCAAADTzhmAYyAIPAAgCIAiFSEAICAAAgAAAIiIHIAIgKcDqA0TGUYAAklgCYiAecy6COAAAAAAAAAAAAAAAAAAAAAAAAAAAAAA==
> <PUBCHEM_IUPAC_OPENEYE_NAME>
(2S)-N-[(1S,2S)-1-benzyl-3-[(2S)-2-[[(1S,2R)-1-[[(1S)-1-carbamoyl-2-methyl-propyl]carbamoyl]-2-methyl-butyl]carbamoyl]pyrrolidin-1-yl]-2-hydroxy-3-oxo-propyl]-2-(3-phenylpropanoylamino)pentanediamide
> <PUBCHEM_IUPAC_CAS_NAME>
(2S)-N-[(2S,3S)-4-[(2S)-2-[[[(2S,3R)-1-[[(2S)-1-amino-3-methyl-1-oxobutan-2-yl]amino]-3-methyl-1-oxopentan-2-yl]amino]-oxomethyl]-1-pyrrolidinyl]-3-hydroxy-4-oxo-1-phenylbutan-2-yl]-2-[(1-oxo-3-phenylpropyl)amino]pentanediamide
> <PUBCHEM_IUPAC_NAME_MARKUP>
(2<I>S</I>)-<I>N</I>-[(2<I>S</I>,3<I>S</I>)-4-[(2<I>S</I>)-2-[[(2<I>S</I>,3<I>R</I>)-1-[[(2<I>S</I>)-1-amino-3-methyl-1-oxobutan-2-yl]amino]-3-methyl-1-oxopentan-2-yl]carbamoyl]pyrrolidin-1-yl]-3-hydroxy-4-oxo-1-phenylbutan-2-yl]-2-(3-phenylpropanoylamino)pentanediamide
> <PUBCHEM_IUPAC_NAME>
(2S)-N-[(2S,3S)-4-[(2S)-2-[[(2S,3R)-1-[[(2S)-1-amino-3-methyl-1-oxobutan-2-yl]amino]-3-methyl-1-oxopentan-2-yl]carbamoyl]pyrrolidin-1-yl]-3-hydroxy-4-oxo-1-phenylbutan-2-yl]-2-(3-phenylpropanoylamino)pentanediamide
> <PUBCHEM_IUPAC_SYSTEMATIC_NAME>
(2S)-N-[(2S,3S)-4-[(2S)-2-[[(2S,3R)-1-[[(2S)-1-azanyl-3-methyl-1-oxidanylidene-butan-2-yl]amino]-3-methyl-1-oxidanylidene-pentan-2-yl]carbamoyl]pyrrolidin-1-yl]-3-oxidanyl-4-oxidanylidene-1-phenyl-butan-2-yl]-2-(3-phenylpropanoylamino)pentanediamide
> <PUBCHEM_IUPAC_TRADITIONAL_NAME>
(2S)-N-[(1S,2S)-1-benzyl-3-[(2S)-2-[[(1S,2R)-1-[[(1S)-1-carbamoyl-2-methyl-propyl]carbamoyl]-2-methyl-butyl]carbamoyl]pyrrolidino]-2-hydroxy-3-keto-propyl]-2-(hydrocinnamoylamino)glutaramide
> <PUBCHEM_IUPAC_INCHI>
InChI=1S/C40H57N7O8/c1-5-25(4)34(39(54)45-33(24(2)3)36(42)51)46-38(53)30-17-12-22-47(30)40(55)35(50)29(23-27-15-10-7-11-16-27)44-37(52)28(19-20-31(41)48)43-32(49)21-18-26-13-8-6-9-14-26/h6-11,13-16,24-25,28-30,33-35,50H,5,12,17-23H2,1-4H3,(H2,41,48)(H2,42,51)(H,43,49)(H,44,52)(H,45,54)(H,46,53)/t25-,28+,29+,30+,33+,34+,35+/m1/s1
> <PUBCHEM_IUPAC_INCHIKEY>
CWVIAJQFDNLMGD-GJDKDPSHSA-N
> <PUBCHEM_XLOGP3_AA>
2.2
> <PUBCHEM_EXACT_MASS>
763.42686180
> <PUBCHEM_MOLECULAR_FORMULA>
C40H57N7O8
> <PUBCHEM_MOLECULAR_WEIGHT>
763.9
> <PUBCHEM_OPENEYE_CAN_SMILES>
CCC(C)C(C(=O)NC(C(C)C)C(=O)N)NC(=O)C1CCCN1C(=O)C(C(CC2=CC=CC=C2)NC(=O)C(CCC(=O)N)NC(=O)CCC3=CC=CC=C3)O
> <PUBCHEM_OPENEYE_ISO_SMILES>
CC[C@@H](C)[C@@H](C(=O)N[C@@H](C(C)C)C(=O)N)NC(=O)[C@@H]1CCCN1C(=O)[C@H]([C@H](CC2=CC=CC=C2)NC(=O)[C@H](CCC(=O)N)NC(=O)CCC3=CC=CC=C3)O
> <PUBCHEM_CACTVS_TPSA>
243
> <PUBCHEM_MONOISOTOPIC_WEIGHT>
763.42686180
> <PUBCHEM_TOTAL_CHARGE>
0
> <PUBCHEM_HEAVY_ATOM_COUNT>
55
> <PUBCHEM_ATOM_DEF_STEREO_COUNT>
7
> <PUBCHEM_ATOM_UDEF_STEREO_COUNT>
0
> <PUBCHEM_BOND_DEF_STEREO_COUNT>
0
> <PUBCHEM_BOND_UDEF_STEREO_COUNT>
0
> <PUBCHEM_ISOTOPIC_ATOM_COUNT>
0
> <PUBCHEM_COMPONENT_COUNT>
1
> <PUBCHEM_CACTVS_TAUTO_COUNT>
-1
> <PUBCHEM_COORDINATE_TYPE>
1
5
255
> <PUBCHEM_BONDANNOTATIONS>
22  1  5
23  10  5
24  11  5
30  12  5
35  13  5
16  20  6
25  29  6
31  37  8
31  38  8
37  43  8
38  44  8
43  45  8
44  45  8
50  51  8
50  52  8
51  53  8
52  54  8
53  55  8
54  55  8
$$$$
