501745
  -OEChem-10302200282D
102104  0     1  0  0  0  0  0999 V2000
    4.5981    0.9973    0.0000 O   0  0  0  0  0  0  0  0  0  0  0  0
    8.2981    1.2979    0.0000 O   0  0  0  0  0  0  0  0  0  0  0  0
    7.1962    0.4973    0.0000 O   0  0  0  0  0  0  0  0  0  0  0  0
   10.3196    4.2835    0.0000 O   0  0  0  0  0  0  0  0  0  0  0  0
    5.4641   -2.5027    0.0000 O   0  0  0  0  0  0  0  0  0  0  0  0
   13.3807    2.3783    0.0000 O   0  0  0  0  0  0  0  0  0  0  0  0
    5.4641   -3.5027    0.0000 O   0  0  0  0  0  0  0  0  0  0  0  0
    8.9282   -3.5027    0.0000 O   0  0  0  0  0  0  0  0  0  0  0  0
    6.3301    1.9973    0.0000 N   0  0  0  0  0  0  0  0  0  0  0  0
    8.8334    2.9452    0.0000 N   0  0  0  0  0  0  0  0  0  0  0  0
    6.3301   -1.0027    0.0000 N   0  0  0  0  0  0  0  0  0  0  0  0
   11.4786    2.9963    0.0000 N   0  0  0  0  0  0  0  0  0  0  0  0
    8.0622   -2.0027    0.0000 N   0  0  0  0  0  0  0  0  0  0  0  0
   13.9159    4.0255    0.0000 N   0  0  0  0  0  0  0  0  0  0  0  0
    6.3301   -5.0027    0.0000 N   0  0  0  0  0  0  0  0  0  0  0  0
   10.6603   -2.5027    0.0000 N   0  0  0  0  0  0  0  0  0  0  0  0
    7.1391    2.5851    0.0000 C   0  0  1  0  0  0  0  0  0  0  0  0
    6.8301    3.5361    0.0000 C   0  0  0  0  0  0  0  0  0  0  0  0
    5.8301    3.5361    0.0000 C   0  0  0  0  0  0  0  0  0  0  0  0
    5.5211    2.5851    0.0000 C   0  0  0  0  0  0  0  0  0  0  0  0
    8.0902    2.2761    0.0000 C   0  0  0  0  0  0  0  0  0  0  0  0
    6.3301    0.9973    0.0000 C   0  0  0  0  0  0  0  0  0  0  0  0
    5.4641    0.4973    0.0000 C   0  0  2  0  0  0  0  0  0  0  0  0
    9.7844    2.6362    0.0000 C   0  0  1  0  0  0  0  0  0  0  0  0
    9.9923    1.6580    0.0000 C   0  0  1  0  0  0  0  0  0  0  0  0
    5.4641   -0.5027    0.0000 C   0  0  2  0  0  0  0  0  0  0  0  0
   10.9434    1.3490    0.0000 C   0  0  0  0  0  0  0  0  0  0  0  0
    4.5981   -1.0027    0.0000 C   0  0  0  0  0  0  0  0  0  0  0  0
   10.5275    3.3053    0.0000 C   0  0  0  0  0  0  0  0  0  0  0  0
    9.2492    0.9889    0.0000 C   0  0  0  0  0  0  0  0  0  0  0  0
   12.2217    3.6654    0.0000 C   0  0  1  0  0  0  0  0  0  0  0  0
    3.7320   -0.5027    0.0000 C   0  0  0  0  0  0  0  0  0  0  0  0
   11.1513    0.3709    0.0000 C   0  0  0  0  0  0  0  0  0  0  0  0
   12.0138    4.6436    0.0000 C   0  0  0  0  0  0  0  0  0  0  0  0
    6.3301   -2.0027    0.0000 C   0  0  0  0  0  0  0  0  0  0  0  0
    7.1962   -2.5027    0.0000 C   0  0  2  0  0  0  0  0  0  0  0  0
   13.1728    3.3564    0.0000 C   0  0  0  0  0  0  0  0  0  0  0  0
    3.7320    0.4973    0.0000 C   0  0  0  0  0  0  0  0  0  0  0  0
    2.8660   -1.0027    0.0000 C   0  0  0  0  0  0  0  0  0  0  0  0
   12.7570    5.3127    0.0000 C   0  0  0  0  0  0  0  0  0  0  0  0
   11.0628    4.9526    0.0000 C   0  0  0  0  0  0  0  0  0  0  0  0
    7.1962   -3.5027    0.0000 C   0  0  0  0  0  0  0  0  0  0  0  0
    2.8660    0.9973    0.0000 C   0  0  0  0  0  0  0  0  0  0  0  0
    2.0000   -0.5027    0.0000 C   0  0  0  0  0  0  0  0  0  0  0  0
    2.0000    0.4973    0.0000 C   0  0  0  0  0  0  0  0  0  0  0  0
    6.3301   -4.0027    0.0000 C   0  0  0  0  0  0  0  0  0  0  0  0
    8.9282   -2.5027    0.0000 C   0  0  0  0  0  0  0  0  0  0  0  0
    9.7942   -2.0027    0.0000 C   0  0  0  0  0  0  0  0  0  0  0  0
    9.7942   -1.0027    0.0000 C   0  0  0  0  0  0  0  0  0  0  0  0
   10.6603   -0.5027    0.0000 C   0  0  0  0  0  0  0  0  0  0  0  0
   11.5263   -2.0027    0.0000 C   0  0  0  0  0  0  0  0  0  0  0  0
   11.5263   -1.0027    0.0000 C   0  0  0  0  0  0  0  0  0  0  0  0
    7.2361    1.9727    0.0000 H   0  0  0  0  0  0  0  0  0  0  0  0
    7.4366    3.6650    0.0000 H   0  0  0  0  0  0  0  0  0  0  0  0
    6.7653    4.1527    0.0000 H   0  0  0  0  0  0  0  0  0  0  0  0
    5.8949    4.1527    0.0000 H   0  0  0  0  0  0  0  0  0  0  0  0
    5.2237    3.6650    0.0000 H   0  0  0  0  0  0  0  0  0  0  0  0
    4.9547    2.8373    0.0000 H   0  0  0  0  0  0  0  0  0  0  0  0
    5.2111    2.0482    0.0000 H   0  0  0  0  0  0  0  0  0  0  0  0
    5.4641    1.1173    0.0000 H   0  0  0  0  0  0  0  0  0  0  0  0
    9.6555    3.2426    0.0000 H   0  0  0  0  0  0  0  0  0  0  0  0
    9.4027    1.8496    0.0000 H   0  0  0  0  0  0  0  0  0  0  0  0
    8.7044    3.5516    0.0000 H   0  0  0  0  0  0  0  0  0  0  0  0
    5.4641   -1.1227    0.0000 H   0  0  0  0  0  0  0  0  0  0  0  0
   11.5630    1.3706    0.0000 H   0  0  0  0  0  0  0  0  0  0  0  0
   11.0297    1.9630    0.0000 H   0  0  0  0  0  0  0  0  0  0  0  0
    4.1996   -1.4776    0.0000 H   0  0  0  0  0  0  0  0  0  0  0  0
    4.9966   -1.4776    0.0000 H   0  0  0  0  0  0  0  0  0  0  0  0
    8.8343    1.4497    0.0000 H   0  0  0  0  0  0  0  0  0  0  0  0
    8.7884    0.5740    0.0000 H   0  0  0  0  0  0  0  0  0  0  0  0
    9.6640    0.5282    0.0000 H   0  0  0  0  0  0  0  0  0  0  0  0
    6.8671   -0.6927    0.0000 H   0  0  0  0  0  0  0  0  0  0  0  0
   11.6075    2.3898    0.0000 H   0  0  0  0  0  0  0  0  0  0  0  0
   12.3507    3.0590    0.0000 H   0  0  0  0  0  0  0  0  0  0  0  0
    4.5981    1.6173    0.0000 H   0  0  0  0  0  0  0  0  0  0  0  0
   10.5448    0.2420    0.0000 H   0  0  0  0  0  0  0  0  0  0  0  0
   11.2802   -0.2356    0.0000 H   0  0  0  0  0  0  0  0  0  0  0  0
   11.7577    0.4998    0.0000 H   0  0  0  0  0  0  0  0  0  0  0  0
   11.5531    4.2287    0.0000 H   0  0  0  0  0  0  0  0  0  0  0  0
    7.7331   -2.8127    0.0000 H   0  0  0  0  0  0  0  0  0  0  0  0
    4.2690    0.8073    0.0000 H   0  0  0  0  0  0  0  0  0  0  0  0
    2.8660   -1.6227    0.0000 H   0  0  0  0  0  0  0  0  0  0  0  0
   13.1718    4.8520    0.0000 H   0  0  0  0  0  0  0  0  0  0  0  0
   13.2177    5.7276    0.0000 H   0  0  0  0  0  0  0  0  0  0  0  0
   12.3421    5.7735    0.0000 H   0  0  0  0  0  0  0  0  0  0  0  0
   11.2544    5.5422    0.0000 H   0  0  0  0  0  0  0  0  0  0  0  0
   10.4731    5.1442    0.0000 H   0  0  0  0  0  0  0  0  0  0  0  0
   10.8712    4.3629    0.0000 H   0  0  0  0  0  0  0  0  0  0  0  0
    7.4082   -4.0853    0.0000 H   0  0  0  0  0  0  0  0  0  0  0  0
    7.8067   -3.3950    0.0000 H   0  0  0  0  0  0  0  0  0  0  0  0
    8.0622   -1.3827    0.0000 H   0  0  0  0  0  0  0  0  0  0  0  0
    2.8660    1.6173    0.0000 H   0  0  0  0  0  0  0  0  0  0  0  0
    1.4631   -0.8127    0.0000 H   0  0  0  0  0  0  0  0  0  0  0  0
    1.4631    0.8073    0.0000 H   0  0  0  0  0  0  0  0  0  0  0  0
   14.5056    3.8340    0.0000 H   0  0  0  0  0  0  0  0  0  0  0  0
   13.7870    4.6320    0.0000 H   0  0  0  0  0  0  0  0  0  0  0  0
    5.7932   -5.3127    0.0000 H   0  0  0  0  0  0  0  0  0  0  0  0
    6.8671   -5.3127    0.0000 H   0  0  0  0  0  0  0  0  0  0  0  0
    9.2573   -0.6927    0.0000 H   0  0  0  0  0  0  0  0  0  0  0  0
   10.6603    0.1173    0.0000 H   0  0  0  0  0  0  0  0  0  0  0  0
   12.0632   -2.3127    0.0000 H   0  0  0  0  0  0  0  0  0  0  0  0
   12.0632   -0.6927    0.0000 H   0  0  0  0  0  0  0  0  0  0  0  0
 23  1  1  6  0  0  0
  1 75  1  0  0  0  0
  2 21  2  0  0  0  0
  3 22  2  0  0  0  0
  4 29  2  0  0  0  0
  5 35  2  0  0  0  0
  6 37  2  0  0  0  0
  7 46  2  0  0  0  0
  8 47  2  0  0  0  0
  9 17  1  0  0  0  0
  9 20  1  0  0  0  0
  9 22  1  0  0  0  0
 10 21  1  0  0  0  0
 24 10  1  6  0  0  0
 10 63  1  0  0  0  0
 26 11  1  1  0  0  0
 11 35  1  0  0  0  0
 11 72  1  0  0  0  0
 12 29  1  0  0  0  0
 31 12  1  1  0  0  0
 12 73  1  0  0  0  0
 36 13  1  1  0  0  0
 13 47  1  0  0  0  0
 13 91  1  0  0  0  0
 14 37  1  0  0  0  0
 14 95  1  0  0  0  0
 14 96  1  0  0  0  0
 15 46  1  0  0  0  0
 15 97  1  0  0  0  0
 15 98  1  0  0  0  0
 16 48  1  0  0  0  0
 16 51  2  0  0  0  0
 17 18  1  0  0  0  0
 17 21  1  1  0  0  0
 17 53  1  0  0  0  0
 18 19  1  0  0  0  0
 18 54  1  0  0  0  0
 18 55  1  0  0  0  0
 19 20  1  0  0  0  0
 19 56  1  0  0  0  0
 19 57  1  0  0  0  0
 20 58  1  0  0  0  0
 20 59  1  0  0  0  0
 22 23  1  0  0  0  0
 23 26  1  0  0  0  0
 23 60  1  0  0  0  0
 24 25  1  0  0  0  0
 24 29  1  0  0  0  0
 24 61  1  0  0  0  0
 25 27  1  0  0  0  0
 25 30  1  1  0  0  0
 25 62  1  0  0  0  0
 26 28  1  0  0  0  0
 26 64  1  0  0  0  0
 27 33  1  0  0  0  0
 27 65  1  0  0  0  0
 27 66  1  0  0  0  0
 28 32  1  0  0  0  0
 28 67  1  0  0  0  0
 28 68  1  0  0  0  0
 30 69  1  0  0  0  0
 30 70  1  0  0  0  0
 30 71  1  0  0  0  0
 31 34  1  0  0  0  0
 31 37  1  0  0  0  0
 31 74  1  0  0  0  0
 32 38  2  0  0  0  0
 32 39  1  0  0  0  0
 33 76  1  0  0  0  0
 33 77  1  0  0  0  0
 33 78  1  0  0  0  0
 34 40  1  0  0  0  0
 34 41  1  0  0  0  0
 34 79  1  0  0  0  0
 35 36  1  0  0  0  0
 36 42  1  0  0  0  0
 36 80  1  0  0  0  0
 38 43  1  0  0  0  0
 38 81  1  0  0  0  0
 39 44  2  0  0  0  0
 39 82  1  0  0  0  0
 40 83  1  0  0  0  0
 40 84  1  0  0  0  0
 40 85  1  0  0  0  0
 41 86  1  0  0  0  0
 41 87  1  0  0  0  0
 41 88  1  0  0  0  0
 42 46  1  0  0  0  0
 42 89  1  0  0  0  0
 42 90  1  0  0  0  0
 43 45  2  0  0  0  0
 43 92  1  0  0  0  0
 44 45  1  0  0  0  0
 44 93  1  0  0  0  0
 45 94  1  0  0  0  0
 47 48  1  0  0  0  0
 48 49  2  0  0  0  0
 49 50  1  0  0  0  0
 49 99  1  0  0  0  0
 50 52  2  0  0  0  0
 50100  1  0  0  0  0
 51 52  1  0  0  0  0
 51101  1  0  0  0  0
 52102  1  0  0  0  0
M  END
> <PUBCHEM_COMPOUND_CID>
501745
> <PUBCHEM_COMPOUND_CANONICALIZED>
1
> <PUBCHEM_CACTVS_COMPLEXITY>
1270
> <PUBCHEM_CACTVS_HBOND_ACCEPTOR>
9
> <PUBCHEM_CACTVS_HBOND_DONOR>
7
> <PUBCHEM_CACTVS_ROTATABLE_BOND>
18
> <PUBCHEM_CACTVS_SUBSKEYS>
AAADcfB//AAAAAAAAAAAAAAAAAAAAWAAAAA8QAAAAAAAAAABwAAAHgAQCAAADTzhngY+gJPIEgCoAzV3VAKCgCA3AiAI2KH4ZNgKcPrA1bGUYQhklgDYyYedyaCOAAAAAAAAAAAAAAAAAAAAAAAAAAAAAA==
> <PUBCHEM_IUPAC_OPENEYE_NAME>
(2S)-N-[(1S,2S)-1-benzyl-3-[(2S)-2-[[(1S,2R)-1-[[(1S)-1-carbamoyl-2-methyl-propyl]carbamoyl]-2-methyl-butyl]carbamoyl]pyrrolidin-1-yl]-2-hydroxy-3-oxo-propyl]-2-(pyridine-2-carbonylamino)butanediamide
> <PUBCHEM_IUPAC_CAS_NAME>
(2S)-N-[(2S,3S)-4-[(2S)-2-[[[(2S,3R)-1-[[(2S)-1-amino-3-methyl-1-oxobutan-2-yl]amino]-3-methyl-1-oxopentan-2-yl]amino]-oxomethyl]-1-pyrrolidinyl]-3-hydroxy-4-oxo-1-phenylbutan-2-yl]-2-[[oxo(2-pyridinyl)methyl]amino]butanediamide
> <PUBCHEM_IUPAC_NAME_MARKUP>
(2<I>S</I>)-<I>N</I>-[(2<I>S</I>,3<I>S</I>)-4-[(2<I>S</I>)-2-[[(2<I>S</I>,3<I>R</I>)-1-[[(2<I>S</I>)-1-amino-3-methyl-1-oxobutan-2-yl]amino]-3-methyl-1-oxopentan-2-yl]carbamoyl]pyrrolidin-1-yl]-3-hydroxy-4-oxo-1-phenylbutan-2-yl]-2-(pyridine-2-carbonylamino)butanediamide
> <PUBCHEM_IUPAC_NAME>
(2S)-N-[(2S,3S)-4-[(2S)-2-[[(2S,3R)-1-[[(2S)-1-amino-3-methyl-1-oxobutan-2-yl]amino]-3-methyl-1-oxopentan-2-yl]carbamoyl]pyrrolidin-1-yl]-3-hydroxy-4-oxo-1-phenylbutan-2-yl]-2-(pyridine-2-carbonylamino)butanediamide
> <PUBCHEM_IUPAC_SYSTEMATIC_NAME>
(2S)-N-[(2S,3S)-4-[(2S)-2-[[(2S,3R)-1-[[(2S)-1-azanyl-3-methyl-1-oxidanylidene-butan-2-yl]amino]-3-methyl-1-oxidanylidene-pentan-2-yl]carbamoyl]pyrrolidin-1-yl]-3-oxidanyl-4-oxidanylidene-1-phenyl-butan-2-yl]-2-(pyridin-2-ylcarbonylamino)butanediamide
> <PUBCHEM_IUPAC_TRADITIONAL_NAME>
(2S)-N-[(1S,2S)-1-benzyl-3-[(2S)-2-[[(1S,2R)-1-[[(1S)-1-carbamoyl-2-methyl-propyl]carbamoyl]-2-methyl-butyl]carbamoyl]pyrrolidino]-2-hydroxy-3-keto-propyl]-2-picolinamido-succinamide
> <PUBCHEM_IUPAC_INCHI>
InChI=1S/C36H50N8O8/c1-5-21(4)29(35(51)42-28(20(2)3)31(38)47)43-34(50)26-15-11-17-44(26)36(52)30(46)24(18-22-12-7-6-8-13-22)40-33(49)25(19-27(37)45)41-32(48)23-14-9-10-16-39-23/h6-10,12-14,16,20-21,24-26,28-30,46H,5,11,15,17-19H2,1-4H3,(H2,37,45)(H2,38,47)(H,40,49)(H,41,48)(H,42,51)(H,43,50)/t21-,24+,25+,26+,28+,29+,30+/m1/s1
> <PUBCHEM_IUPAC_INCHIKEY>
OZJBVUWKEGLFBY-LOCHZAJOSA-N
> <PUBCHEM_XLOGP3_AA>
0.8
> <PUBCHEM_EXACT_MASS>
722.37516058
> <PUBCHEM_MOLECULAR_FORMULA>
C36H50N8O8
> <PUBCHEM_MOLECULAR_WEIGHT>
722.8
> <PUBCHEM_OPENEYE_CAN_SMILES>
CCC(C)C(C(=O)NC(C(C)C)C(=O)N)NC(=O)C1CCCN1C(=O)C(C(CC2=CC=CC=C2)NC(=O)C(CC(=O)N)NC(=O)C3=CC=CC=N3)O
> <PUBCHEM_OPENEYE_ISO_SMILES>
CC[C@@H](C)[C@@H](C(=O)N[C@@H](C(C)C)C(=O)N)NC(=O)[C@@H]1CCCN1C(=O)[C@H]([C@H](CC2=CC=CC=C2)NC(=O)[C@H](CC(=O)N)NC(=O)C3=CC=CC=N3)O
> <PUBCHEM_CACTVS_TPSA>
256
> <PUBCHEM_MONOISOTOPIC_WEIGHT>
722.37516058
> <PUBCHEM_TOTAL_CHARGE>
0
> <PUBCHEM_HEAVY_ATOM_COUNT>
52
> <PUBCHEM_ATOM_DEF_STEREO_COUNT>
7
> <PUBCHEM_ATOM_UDEF_STEREO_COUNT>
0
> <PUBCHEM_BOND_DEF_STEREO_COUNT>
0
> <PUBCHEM_BOND_UDEF_STEREO_COUNT>
0
> <PUBCHEM_ISOTOPIC_ATOM_COUNT>
0
> <PUBCHEM_COMPONENT_COUNT>
1
> <PUBCHEM_CACTVS_TAUTO_COUNT>
-1
> <PUBCHEM_COORDINATE_TYPE>
1
5
255
> <PUBCHEM_BONDANNOTATIONS>
23  1  6
24  10  6
26  11  5
31  12  5
36  13  5
16  48  8
16  51  8
17  21  5
25  30  5
32  38  8
32  39  8
38  43  8
39  44  8
43  45  8
44  45  8
48  49  8
49  50  8
50  52  8
51  52  8
$$$$
