501731
  -OEChem-10302200282D
 88 90  0     1  0  0  0  0  0999 V2000
    4.4374    2.3413    0.0000 O   0  0  0  0  0  0  0  0  0  0  0  0
    7.6178    0.6429    0.0000 O   0  0  0  0  0  0  0  0  0  0  0  0
   11.3179    0.3423    0.0000 O   0  0  0  0  0  0  0  0  0  0  0  0
    8.7198   -0.1577    0.0000 O   0  0  0  0  0  0  0  0  0  0  0  0
    5.5963    3.6285    0.0000 O   0  0  0  0  0  0  0  0  0  0  0  0
   13.0499   -1.6577    0.0000 O   0  0  0  0  0  0  0  0  0  0  0  0
   12.1839   -0.1577    0.0000 O   0  0  0  0  0  0  0  0  0  0  0  0
    9.5858    1.3423    0.0000 N   0  0  0  0  0  0  0  0  0  0  0  0
    7.0826    2.2902    0.0000 N   0  0  0  0  0  0  0  0  0  0  0  0
   11.3179   -1.6577    0.0000 N   0  0  0  0  0  0  0  0  0  0  0  0
    8.7768    1.9301    0.0000 C   0  0  1  0  0  0  0  0  0  0  0  0
    9.0858    2.8811    0.0000 C   0  0  0  0  0  0  0  0  0  0  0  0
   10.0858    2.8811    0.0000 C   0  0  0  0  0  0  0  0  0  0  0  0
   10.3948    1.9301    0.0000 C   0  0  0  0  0  0  0  0  0  0  0  0
    3.6942    3.0104    0.0000 C   0  0  0  0  0  0  0  0  0  0  0  0
    7.8258    1.6211    0.0000 C   0  0  0  0  0  0  0  0  0  0  0  0
    2.7431    2.7014    0.0000 C   0  0  0  0  0  0  0  0  0  0  0  0
    3.9021    3.9886    0.0000 C   0  0  0  0  0  0  0  0  0  0  0  0
    9.5858    0.3423    0.0000 C   0  0  0  0  0  0  0  0  0  0  0  0
    2.0000    3.3705    0.0000 C   0  0  0  0  0  0  0  0  0  0  0  0
    3.1590    4.6577    0.0000 C   0  0  0  0  0  0  0  0  0  0  0  0
    2.2079    4.3487    0.0000 C   0  0  0  0  0  0  0  0  0  0  0  0
    6.1316    1.9812    0.0000 C   0  0  1  0  0  0  0  0  0  0  0  0
   10.4518   -0.1577    0.0000 C   0  0  2  0  0  0  0  0  0  0  0  0
    5.9236    1.0030    0.0000 C   0  0  0  0  0  0  0  0  0  0  0  0
   10.4518   -1.1577    0.0000 C   0  0  2  0  0  0  0  0  0  0  0  0
    5.3884    2.6503    0.0000 C   0  0  0  0  0  0  0  0  0  0  0  0
    9.5858   -1.6577    0.0000 C   0  0  0  0  0  0  0  0  0  0  0  0
    4.9726    0.6940    0.0000 C   0  0  0  0  0  0  0  0  0  0  0  0
    6.6668    0.3339    0.0000 C   0  0  0  0  0  0  0  0  0  0  0  0
    9.5858   -2.6577    0.0000 C   0  0  0  0  0  0  0  0  0  0  0  0
   12.1839   -1.1577    0.0000 C   0  0  0  0  0  0  0  0  0  0  0  0
   10.4518   -3.1577    0.0000 C   0  0  0  0  0  0  0  0  0  0  0  0
    8.7198   -3.1577    0.0000 C   0  0  0  0  0  0  0  0  0  0  0  0
   13.9159   -1.1577    0.0000 C   0  0  0  0  0  0  0  0  0  0  0  0
   10.4518   -4.1577    0.0000 C   0  0  0  0  0  0  0  0  0  0  0  0
    8.7198   -4.1577    0.0000 C   0  0  0  0  0  0  0  0  0  0  0  0
    9.5858   -4.6577    0.0000 C   0  0  0  0  0  0  0  0  0  0  0  0
   14.7820   -0.6577    0.0000 C   0  0  0  0  0  0  0  0  0  0  0  0
   14.4159   -2.0237    0.0000 C   0  0  0  0  0  0  0  0  0  0  0  0
   13.4159   -0.2917    0.0000 C   0  0  0  0  0  0  0  0  0  0  0  0
    8.6798    1.3177    0.0000 H   0  0  0  0  0  0  0  0  0  0  0  0
    9.1506    3.4977    0.0000 H   0  0  0  0  0  0  0  0  0  0  0  0
    8.4794    3.0100    0.0000 H   0  0  0  0  0  0  0  0  0  0  0  0
   10.6923    3.0100    0.0000 H   0  0  0  0  0  0  0  0  0  0  0  0
   10.0210    3.4977    0.0000 H   0  0  0  0  0  0  0  0  0  0  0  0
   10.7048    1.3932    0.0000 H   0  0  0  0  0  0  0  0  0  0  0  0
   10.9612    2.1823    0.0000 H   0  0  0  0  0  0  0  0  0  0  0  0
    3.5653    2.4040    0.0000 H   0  0  0  0  0  0  0  0  0  0  0  0
    2.2546    2.3197    0.0000 H   0  0  0  0  0  0  0  0  0  0  0  0
    3.0342    2.1540    0.0000 H   0  0  0  0  0  0  0  0  0  0  0  0
    4.4770    3.7563    0.0000 H   0  0  0  0  0  0  0  0  0  0  0  0
    4.2307    4.5144    0.0000 H   0  0  0  0  0  0  0  0  0  0  0  0
    1.4252    3.6028    0.0000 H   0  0  0  0  0  0  0  0  0  0  0  0
    1.6714    2.8448    0.0000 H   0  0  0  0  0  0  0  0  0  0  0  0
    3.6475    5.0394    0.0000 H   0  0  0  0  0  0  0  0  0  0  0  0
    2.8679    5.2051    0.0000 H   0  0  0  0  0  0  0  0  0  0  0  0
    2.1216    4.9626    0.0000 H   0  0  0  0  0  0  0  0  0  0  0  0
    1.5883    4.3703    0.0000 H   0  0  0  0  0  0  0  0  0  0  0  0
    6.2604    2.5876    0.0000 H   0  0  0  0  0  0  0  0  0  0  0  0
   10.4518    0.4623    0.0000 H   0  0  0  0  0  0  0  0  0  0  0  0
    7.2115    2.8966    0.0000 H   0  0  0  0  0  0  0  0  0  0  0  0
    6.5133    1.1946    0.0000 H   0  0  0  0  0  0  0  0  0  0  0  0
   10.9888   -0.8477    0.0000 H   0  0  0  0  0  0  0  0  0  0  0  0
    9.3738   -1.0751    0.0000 H   0  0  0  0  0  0  0  0  0  0  0  0
    8.9752   -1.7654    0.0000 H   0  0  0  0  0  0  0  0  0  0  0  0
    4.7810    1.2837    0.0000 H   0  0  0  0  0  0  0  0  0  0  0  0
    4.3829    0.5024    0.0000 H   0  0  0  0  0  0  0  0  0  0  0  0
    5.1642    0.1044    0.0000 H   0  0  0  0  0  0  0  0  0  0  0  0
    6.2519   -0.1268    0.0000 H   0  0  0  0  0  0  0  0  0  0  0  0
    7.1275   -0.0810    0.0000 H   0  0  0  0  0  0  0  0  0  0  0  0
    7.0816    0.7947    0.0000 H   0  0  0  0  0  0  0  0  0  0  0  0
   11.3179   -2.2777    0.0000 H   0  0  0  0  0  0  0  0  0  0  0  0
   11.3179    0.9623    0.0000 H   0  0  0  0  0  0  0  0  0  0  0  0
   10.9888   -2.8477    0.0000 H   0  0  0  0  0  0  0  0  0  0  0  0
    8.1829   -2.8477    0.0000 H   0  0  0  0  0  0  0  0  0  0  0  0
   10.9888   -4.4677    0.0000 H   0  0  0  0  0  0  0  0  0  0  0  0
    8.1829   -4.4677    0.0000 H   0  0  0  0  0  0  0  0  0  0  0  0
    9.5858   -5.2777    0.0000 H   0  0  0  0  0  0  0  0  0  0  0  0
   15.0920   -1.1946    0.0000 H   0  0  0  0  0  0  0  0  0  0  0  0
   15.3189   -0.3477    0.0000 H   0  0  0  0  0  0  0  0  0  0  0  0
   14.4720   -0.1208    0.0000 H   0  0  0  0  0  0  0  0  0  0  0  0
   13.8790   -2.3337    0.0000 H   0  0  0  0  0  0  0  0  0  0  0  0
   14.7260   -2.5607    0.0000 H   0  0  0  0  0  0  0  0  0  0  0  0
   14.9529   -1.7137    0.0000 H   0  0  0  0  0  0  0  0  0  0  0  0
   13.9529    0.0183    0.0000 H   0  0  0  0  0  0  0  0  0  0  0  0
   13.1059    0.2453    0.0000 H   0  0  0  0  0  0  0  0  0  0  0  0
   12.8790   -0.6017    0.0000 H   0  0  0  0  0  0  0  0  0  0  0  0
  1 15  1  0  0  0  0
  1 27  1  0  0  0  0
  2 16  2  0  0  0  0
 24  3  1  1  0  0  0
  3 74  1  0  0  0  0
  4 19  2  0  0  0  0
  5 27  2  0  0  0  0
  6 32  1  0  0  0  0
  6 35  1  0  0  0  0
  7 32  2  0  0  0  0
  8 11  1  0  0  0  0
  8 14  1  0  0  0  0
  8 19  1  0  0  0  0
  9 16  1  0  0  0  0
 23  9  1  1  0  0  0
  9 62  1  0  0  0  0
 26 10  1  1  0  0  0
 10 32  1  0  0  0  0
 10 73  1  0  0  0  0
 11 12  1  0  0  0  0
 11 16  1  6  0  0  0
 11 42  1  0  0  0  0
 12 13  1  0  0  0  0
 12 43  1  0  0  0  0
 12 44  1  0  0  0  0
 13 14  1  0  0  0  0
 13 45  1  0  0  0  0
 13 46  1  0  0  0  0
 14 47  1  0  0  0  0
 14 48  1  0  0  0  0
 15 17  1  0  0  0  0
 15 18  1  0  0  0  0
 15 49  1  0  0  0  0
 17 20  1  0  0  0  0
 17 50  1  0  0  0  0
 17 51  1  0  0  0  0
 18 21  1  0  0  0  0
 18 52  1  0  0  0  0
 18 53  1  0  0  0  0
 19 24  1  0  0  0  0
 20 22  1  0  0  0  0
 20 54  1  0  0  0  0
 20 55  1  0  0  0  0
 21 22  1  0  0  0  0
 21 56  1  0  0  0  0
 21 57  1  0  0  0  0
 22 58  1  0  0  0  0
 22 59  1  0  0  0  0
 23 25  1  0  0  0  0
 23 27  1  0  0  0  0
 23 60  1  0  0  0  0
 24 26  1  0  0  0  0
 24 61  1  0  0  0  0
 25 29  1  0  0  0  0
 25 30  1  0  0  0  0
 25 63  1  0  0  0  0
 26 28  1  0  0  0  0
 26 64  1  0  0  0  0
 28 31  1  0  0  0  0
 28 65  1  0  0  0  0
 28 66  1  0  0  0  0
 29 67  1  0  0  0  0
 29 68  1  0  0  0  0
 29 69  1  0  0  0  0
 30 70  1  0  0  0  0
 30 71  1  0  0  0  0
 30 72  1  0  0  0  0
 31 33  2  0  0  0  0
 31 34  1  0  0  0  0
 33 36  1  0  0  0  0
 33 75  1  0  0  0  0
 34 37  2  0  0  0  0
 34 76  1  0  0  0  0
 35 39  1  0  0  0  0
 35 40  1  0  0  0  0
 35 41  1  0  0  0  0
 36 38  2  0  0  0  0
 36 77  1  0  0  0  0
 37 38  1  0  0  0  0
 37 78  1  0  0  0  0
 38 79  1  0  0  0  0
 39 80  1  0  0  0  0
 39 81  1  0  0  0  0
 39 82  1  0  0  0  0
 40 83  1  0  0  0  0
 40 84  1  0  0  0  0
 40 85  1  0  0  0  0
 41 86  1  0  0  0  0
 41 87  1  0  0  0  0
 41 88  1  0  0  0  0
M  END
> <PUBCHEM_COMPOUND_CID>
501731
> <PUBCHEM_COMPOUND_CANONICALIZED>
1
> <PUBCHEM_CACTVS_COMPLEXITY>
891
> <PUBCHEM_CACTVS_HBOND_ACCEPTOR>
7
> <PUBCHEM_CACTVS_HBOND_DONOR>
3
> <PUBCHEM_CACTVS_ROTATABLE_BOND>
13
> <PUBCHEM_CACTVS_SUBSKEYS>
AAADcfB7OAAAAAAAAAAAAAAAAAAAAWAAAAAwYAAAAAAAAAABAAAAHgAQCAAADXzhmAYyCIPABgCIAiHSGAICAAAgAAAIiIHIAIkKcDqA0TGfYAAklgCYiAeYyaCOAAAAAAAAAAAAAAAAAAAAAAAAAAAAAA==
> <PUBCHEM_IUPAC_OPENEYE_NAME>
cyclohexyl (2S)-2-[[(2S)-1-[(2S,3S)-3-(tert-butoxycarbonylamino)-2-hydroxy-4-phenyl-butanoyl]pyrrolidine-2-carbonyl]amino]-3-methyl-butanoate
> <PUBCHEM_IUPAC_CAS_NAME>
(2S)-2-[[[(2S)-1-[(2S,3S)-2-hydroxy-3-[[(2-methylpropan-2-yl)oxy-oxomethyl]amino]-1-oxo-4-phenylbutyl]-2-pyrrolidinyl]-oxomethyl]amino]-3-methylbutanoic acid cyclohexyl ester
> <PUBCHEM_IUPAC_NAME_MARKUP>
cyclohexyl (2<I>S</I>)-2-[[(2<I>S</I>)-1-[(2<I>S</I>,3<I>S</I>)-2-hydroxy-3-[(2-methylpropan-2-yl)oxycarbonylamino]-4-phenylbutanoyl]pyrrolidine-2-carbonyl]amino]-3-methylbutanoate
> <PUBCHEM_IUPAC_NAME>
cyclohexyl (2S)-2-[[(2S)-1-[(2S,3S)-2-hydroxy-3-[(2-methylpropan-2-yl)oxycarbonylamino]-4-phenylbutanoyl]pyrrolidine-2-carbonyl]amino]-3-methylbutanoate
> <PUBCHEM_IUPAC_SYSTEMATIC_NAME>
cyclohexyl (2S)-3-methyl-2-[[(2S)-1-[(2S,3S)-3-[(2-methylpropan-2-yl)oxycarbonylamino]-2-oxidanyl-4-phenyl-butanoyl]pyrrolidin-2-yl]carbonylamino]butanoate
> <PUBCHEM_IUPAC_TRADITIONAL_NAME>
(2S)-2-[[(2S)-1-[(2S,3S)-3-(tert-butoxycarbonylamino)-2-hydroxy-4-phenyl-butanoyl]prolyl]amino]-3-methyl-butyric acid cyclohexyl ester
> <PUBCHEM_IUPAC_INCHI>
InChI=1S/C31H47N3O7/c1-20(2)25(29(38)40-22-15-10-7-11-16-22)33-27(36)24-17-12-18-34(24)28(37)26(35)23(19-21-13-8-6-9-14-21)32-30(39)41-31(3,4)5/h6,8-9,13-14,20,22-26,35H,7,10-12,15-19H2,1-5H3,(H,32,39)(H,33,36)/t23-,24-,25-,26-/m0/s1
> <PUBCHEM_IUPAC_INCHIKEY>
ARSPVVIOCNUCPE-CQJMVLFOSA-N
> <PUBCHEM_XLOGP3_AA>
4.8
> <PUBCHEM_EXACT_MASS>
573.34140085
> <PUBCHEM_MOLECULAR_FORMULA>
C31H47N3O7
> <PUBCHEM_MOLECULAR_WEIGHT>
573.7
> <PUBCHEM_OPENEYE_CAN_SMILES>
CC(C)C(C(=O)OC1CCCCC1)NC(=O)C2CCCN2C(=O)C(C(CC3=CC=CC=C3)NC(=O)OC(C)(C)C)O
> <PUBCHEM_OPENEYE_ISO_SMILES>
CC(C)[C@@H](C(=O)OC1CCCCC1)NC(=O)[C@@H]2CCCN2C(=O)[C@H]([C@H](CC3=CC=CC=C3)NC(=O)OC(C)(C)C)O
> <PUBCHEM_CACTVS_TPSA>
134
> <PUBCHEM_MONOISOTOPIC_WEIGHT>
573.34140085
> <PUBCHEM_TOTAL_CHARGE>
0
> <PUBCHEM_HEAVY_ATOM_COUNT>
41
> <PUBCHEM_ATOM_DEF_STEREO_COUNT>
4
> <PUBCHEM_ATOM_UDEF_STEREO_COUNT>
0
> <PUBCHEM_BOND_DEF_STEREO_COUNT>
0
> <PUBCHEM_BOND_UDEF_STEREO_COUNT>
0
> <PUBCHEM_ISOTOPIC_ATOM_COUNT>
0
> <PUBCHEM_COMPONENT_COUNT>
1
> <PUBCHEM_CACTVS_TAUTO_COUNT>
-1
> <PUBCHEM_COORDINATE_TYPE>
1
5
255
> <PUBCHEM_BONDANNOTATIONS>
26  10  5
11  16  6
24  3  5
31  33  8
31  34  8
33  36  8
34  37  8
36  38  8
37  38  8
23  9  5
$$$$
