501753
  -OEChem-10302200282D
 93 95  0     1  0  0  0  0  0999 V2000
    8.7768    1.1575    0.0000 O   0  0  0  0  0  0  0  0  0  0  0  0
   12.4768    0.8569    0.0000 O   0  0  0  0  0  0  0  0  0  0  0  0
    9.8788    0.3569    0.0000 O   0  0  0  0  0  0  0  0  0  0  0  0
    6.7553    4.1431    0.0000 O   0  0  0  0  0  0  0  0  0  0  0  0
   14.2089   -1.1431    0.0000 O   0  0  0  0  0  0  0  0  0  0  0  0
   13.3429    0.3569    0.0000 O   0  0  0  0  0  0  0  0  0  0  0  0
    6.6668   -0.4386    0.0000 O   0  0  0  0  0  0  0  0  0  0  0  0
   10.7448    1.8569    0.0000 N   0  0  0  0  0  0  0  0  0  0  0  0
    5.5963    2.8559    0.0000 N   0  0  0  0  0  0  0  0  0  0  0  0
    8.2416    2.8048    0.0000 N   0  0  0  0  0  0  0  0  0  0  0  0
   12.4768   -1.1431    0.0000 N   0  0  0  0  0  0  0  0  0  0  0  0
    4.9726   -0.0785    0.0000 N   0  0  0  0  0  0  0  0  0  0  0  0
    3.9021    3.2160    0.0000 C   0  0  0  0  0  0  0  0  0  0  0  0
    3.6942    2.2379    0.0000 C   0  0  0  0  0  0  0  0  0  0  0  0
    3.1590    3.8852    0.0000 C   0  0  0  0  0  0  0  0  0  0  0  0
    2.7431    1.9289    0.0000 C   0  0  0  0  0  0  0  0  0  0  0  0
    2.2079    3.5761    0.0000 C   0  0  0  0  0  0  0  0  0  0  0  0
    9.9358    2.4447    0.0000 C   0  0  1  0  0  0  0  0  0  0  0  0
    2.0000    2.5980    0.0000 C   0  0  0  0  0  0  0  0  0  0  0  0
   10.2448    3.3958    0.0000 C   0  0  0  0  0  0  0  0  0  0  0  0
    4.8532    3.5250    0.0000 C   0  0  0  0  0  0  0  0  0  0  0  0
   11.2448    3.3958    0.0000 C   0  0  0  0  0  0  0  0  0  0  0  0
   11.5538    2.4447    0.0000 C   0  0  0  0  0  0  0  0  0  0  0  0
    8.9847    2.1357    0.0000 C   0  0  0  0  0  0  0  0  0  0  0  0
   10.7448    0.8569    0.0000 C   0  0  0  0  0  0  0  0  0  0  0  0
    7.2905    2.4958    0.0000 C   0  0  2  0  0  0  0  0  0  0  0  0
   11.6108    0.3569    0.0000 C   0  0  2  0  0  0  0  0  0  0  0  0
    6.5474    3.1649    0.0000 C   0  0  0  0  0  0  0  0  0  0  0  0
   11.6108   -0.6431    0.0000 C   0  0  2  0  0  0  0  0  0  0  0  0
    7.0826    1.5176    0.0000 C   0  0  0  0  0  0  0  0  0  0  0  0
   10.7448   -1.1431    0.0000 C   0  0  0  0  0  0  0  0  0  0  0  0
    6.1316    1.2086    0.0000 C   0  0  0  0  0  0  0  0  0  0  0  0
   10.7448   -2.1431    0.0000 C   0  0  0  0  0  0  0  0  0  0  0  0
   13.3429   -0.6431    0.0000 C   0  0  0  0  0  0  0  0  0  0  0  0
    5.9236    0.2305    0.0000 C   0  0  0  0  0  0  0  0  0  0  0  0
   11.6108   -2.6431    0.0000 C   0  0  0  0  0  0  0  0  0  0  0  0
    9.8788   -2.6431    0.0000 C   0  0  0  0  0  0  0  0  0  0  0  0
   15.0749   -0.6431    0.0000 C   0  0  0  0  0  0  0  0  0  0  0  0
   11.6108   -3.6431    0.0000 C   0  0  0  0  0  0  0  0  0  0  0  0
    9.8788   -3.6431    0.0000 C   0  0  0  0  0  0  0  0  0  0  0  0
   10.7448   -4.1431    0.0000 C   0  0  0  0  0  0  0  0  0  0  0  0
   15.9409   -0.1431    0.0000 C   0  0  0  0  0  0  0  0  0  0  0  0
   15.5749   -1.5091    0.0000 C   0  0  0  0  0  0  0  0  0  0  0  0
   14.5749    0.2229    0.0000 C   0  0  0  0  0  0  0  0  0  0  0  0
    4.0310    3.8225    0.0000 H   0  0  0  0  0  0  0  0  0  0  0  0
    3.7805    1.6239    0.0000 H   0  0  0  0  0  0  0  0  0  0  0  0
    4.3138    2.2162    0.0000 H   0  0  0  0  0  0  0  0  0  0  0  0
    3.6475    4.2669    0.0000 H   0  0  0  0  0  0  0  0  0  0  0  0
    2.8679    4.4326    0.0000 H   0  0  0  0  0  0  0  0  0  0  0  0
    9.8388    1.8323    0.0000 H   0  0  0  0  0  0  0  0  0  0  0  0
    2.2546    1.5472    0.0000 H   0  0  0  0  0  0  0  0  0  0  0  0
    3.0342    1.3814    0.0000 H   0  0  0  0  0  0  0  0  0  0  0  0
    2.1216    4.1901    0.0000 H   0  0  0  0  0  0  0  0  0  0  0  0
    1.5883    3.5978    0.0000 H   0  0  0  0  0  0  0  0  0  0  0  0
    1.4252    2.8302    0.0000 H   0  0  0  0  0  0  0  0  0  0  0  0
    1.6714    2.0722    0.0000 H   0  0  0  0  0  0  0  0  0  0  0  0
   10.3096    4.0124    0.0000 H   0  0  0  0  0  0  0  0  0  0  0  0
    9.6383    3.5247    0.0000 H   0  0  0  0  0  0  0  0  0  0  0  0
    5.3417    3.9068    0.0000 H   0  0  0  0  0  0  0  0  0  0  0  0
    4.5621    4.0725    0.0000 H   0  0  0  0  0  0  0  0  0  0  0  0
   11.8512    3.5247    0.0000 H   0  0  0  0  0  0  0  0  0  0  0  0
   11.1800    4.0124    0.0000 H   0  0  0  0  0  0  0  0  0  0  0  0
   11.8638    1.9078    0.0000 H   0  0  0  0  0  0  0  0  0  0  0  0
   12.1202    2.6969    0.0000 H   0  0  0  0  0  0  0  0  0  0  0  0
    7.7513    2.0809    0.0000 H   0  0  0  0  0  0  0  0  0  0  0  0
    5.4674    2.2495    0.0000 H   0  0  0  0  0  0  0  0  0  0  0  0
   11.6108    0.9769    0.0000 H   0  0  0  0  0  0  0  0  0  0  0  0
    8.3705    3.4113    0.0000 H   0  0  0  0  0  0  0  0  0  0  0  0
   12.1478   -0.3331    0.0000 H   0  0  0  0  0  0  0  0  0  0  0  0
    7.1689    0.9037    0.0000 H   0  0  0  0  0  0  0  0  0  0  0  0
    7.7022    1.4960    0.0000 H   0  0  0  0  0  0  0  0  0  0  0  0
   10.5327   -0.5605    0.0000 H   0  0  0  0  0  0  0  0  0  0  0  0
   10.1342   -1.2507    0.0000 H   0  0  0  0  0  0  0  0  0  0  0  0
    6.0453    1.8226    0.0000 H   0  0  0  0  0  0  0  0  0  0  0  0
    5.5119    1.2303    0.0000 H   0  0  0  0  0  0  0  0  0  0  0  0
   12.4768   -1.7631    0.0000 H   0  0  0  0  0  0  0  0  0  0  0  0
   12.4768    1.4769    0.0000 H   0  0  0  0  0  0  0  0  0  0  0  0
   12.1478   -2.3331    0.0000 H   0  0  0  0  0  0  0  0  0  0  0  0
    9.3418   -2.3331    0.0000 H   0  0  0  0  0  0  0  0  0  0  0  0
   12.1478   -3.9531    0.0000 H   0  0  0  0  0  0  0  0  0  0  0  0
    9.3418   -3.9531    0.0000 H   0  0  0  0  0  0  0  0  0  0  0  0
    4.8437   -0.6850    0.0000 H   0  0  0  0  0  0  0  0  0  0  0  0
    4.5118    0.3363    0.0000 H   0  0  0  0  0  0  0  0  0  0  0  0
   10.7448   -4.7631    0.0000 H   0  0  0  0  0  0  0  0  0  0  0  0
   16.2509   -0.6800    0.0000 H   0  0  0  0  0  0  0  0  0  0  0  0
   16.4779    0.1669    0.0000 H   0  0  0  0  0  0  0  0  0  0  0  0
   15.6309    0.3939    0.0000 H   0  0  0  0  0  0  0  0  0  0  0  0
   15.0380   -1.8191    0.0000 H   0  0  0  0  0  0  0  0  0  0  0  0
   15.8849   -2.0460    0.0000 H   0  0  0  0  0  0  0  0  0  0  0  0
   16.1119   -1.1991    0.0000 H   0  0  0  0  0  0  0  0  0  0  0  0
   15.1119    0.5329    0.0000 H   0  0  0  0  0  0  0  0  0  0  0  0
   14.2649    0.7599    0.0000 H   0  0  0  0  0  0  0  0  0  0  0  0
   14.0380   -0.0871    0.0000 H   0  0  0  0  0  0  0  0  0  0  0  0
  1 24  2  0  0  0  0
 27  2  1  1  0  0  0
  2 77  1  0  0  0  0
  3 25  2  0  0  0  0
  4 28  2  0  0  0  0
  5 34  1  0  0  0  0
  5 38  1  0  0  0  0
  6 34  2  0  0  0  0
  7 35  2  0  0  0  0
  8 18  1  0  0  0  0
  8 23  1  0  0  0  0
  8 25  1  0  0  0  0
  9 21  1  0  0  0  0
  9 28  1  0  0  0  0
  9 66  1  0  0  0  0
 10 24  1  0  0  0  0
 26 10  1  1  0  0  0
 10 68  1  0  0  0  0
 29 11  1  1  0  0  0
 11 34  1  0  0  0  0
 11 76  1  0  0  0  0
 12 35  1  0  0  0  0
 12 82  1  0  0  0  0
 12 83  1  0  0  0  0
 13 14  1  0  0  0  0
 13 15  1  0  0  0  0
 13 21  1  0  0  0  0
 13 45  1  0  0  0  0
 14 16  1  0  0  0  0
 14 46  1  0  0  0  0
 14 47  1  0  0  0  0
 15 17  1  0  0  0  0
 15 48  1  0  0  0  0
 15 49  1  0  0  0  0
 16 19  1  0  0  0  0
 16 51  1  0  0  0  0
 16 52  1  0  0  0  0
 17 19  1  0  0  0  0
 17 53  1  0  0  0  0
 17 54  1  0  0  0  0
 18 20  1  0  0  0  0
 18 24  1  6  0  0  0
 18 50  1  0  0  0  0
 19 55  1  0  0  0  0
 19 56  1  0  0  0  0
 20 22  1  0  0  0  0
 20 57  1  0  0  0  0
 20 58  1  0  0  0  0
 21 59  1  0  0  0  0
 21 60  1  0  0  0  0
 22 23  1  0  0  0  0
 22 61  1  0  0  0  0
 22 62  1  0  0  0  0
 23 63  1  0  0  0  0
 23 64  1  0  0  0  0
 25 27  1  0  0  0  0
 26 28  1  0  0  0  0
 26 30  1  0  0  0  0
 26 65  1  0  0  0  0
 27 29  1  0  0  0  0
 27 67  1  0  0  0  0
 29 31  1  0  0  0  0
 29 69  1  0  0  0  0
 30 32  1  0  0  0  0
 30 70  1  0  0  0  0
 30 71  1  0  0  0  0
 31 33  1  0  0  0  0
 31 72  1  0  0  0  0
 31 73  1  0  0  0  0
 32 35  1  0  0  0  0
 32 74  1  0  0  0  0
 32 75  1  0  0  0  0
 33 36  2  0  0  0  0
 33 37  1  0  0  0  0
 36 39  1  0  0  0  0
 36 78  1  0  0  0  0
 37 40  2  0  0  0  0
 37 79  1  0  0  0  0
 38 42  1  0  0  0  0
 38 43  1  0  0  0  0
 38 44  1  0  0  0  0
 39 41  2  0  0  0  0
 39 80  1  0  0  0  0
 40 41  1  0  0  0  0
 40 81  1  0  0  0  0
 41 84  1  0  0  0  0
 42 85  1  0  0  0  0
 42 86  1  0  0  0  0
 42 87  1  0  0  0  0
 43 88  1  0  0  0  0
 43 89  1  0  0  0  0
 43 90  1  0  0  0  0
 44 91  1  0  0  0  0
 44 92  1  0  0  0  0
 44 93  1  0  0  0  0
M  END
> <PUBCHEM_COMPOUND_CID>
501753
> <PUBCHEM_COMPOUND_CANONICALIZED>
1
> <PUBCHEM_CACTVS_COMPLEXITY>
988
> <PUBCHEM_CACTVS_HBOND_ACCEPTOR>
7
> <PUBCHEM_CACTVS_HBOND_DONOR>
5
> <PUBCHEM_CACTVS_ROTATABLE_BOND>
15
> <PUBCHEM_CACTVS_SUBSKEYS>
AAADcfB/uAAAAAAAAAAAAAAAAAAAAWAAAAAwYAAAAAAAAAABAAAAHgAQCAAADXzhmAYyCIPABgCIAiFSGAICAAAgAAAIiIHIAIkKcDqA0TGcYAAklgCYiAecy6COAAAAAAAAAAAAAAAAAAAAAAAAAAAAAA==
> <PUBCHEM_IUPAC_OPENEYE_NAME>
tert-butyl N-[(1S,2S)-3-[(2S)-2-[[(1S)-4-amino-1-(cyclohexylmethylcarbamoyl)-4-oxo-butyl]carbamoyl]pyrrolidin-1-yl]-1-benzyl-2-hydroxy-3-oxo-propyl]carbamate
> <PUBCHEM_IUPAC_CAS_NAME>
N-[(2S,3S)-4-[(2S)-2-[[[(2S)-5-amino-1-(cyclohexylmethylamino)-1,5-dioxopentan-2-yl]amino]-oxomethyl]-1-pyrrolidinyl]-3-hydroxy-4-oxo-1-phenylbutan-2-yl]carbamic acid tert-butyl ester
> <PUBCHEM_IUPAC_NAME_MARKUP>
<I>tert</I>-butyl <I>N</I>-[(2<I>S</I>,3<I>S</I>)-4-[(2<I>S</I>)-2-[[(2<I>S</I>)-5-amino-1-(cyclohexylmethylamino)-1,5-dioxopentan-2-yl]carbamoyl]pyrrolidin-1-yl]-3-hydroxy-4-oxo-1-phenylbutan-2-yl]carbamate
> <PUBCHEM_IUPAC_NAME>
tert-butyl N-[(2S,3S)-4-[(2S)-2-[[(2S)-5-amino-1-(cyclohexylmethylamino)-1,5-dioxopentan-2-yl]carbamoyl]pyrrolidin-1-yl]-3-hydroxy-4-oxo-1-phenylbutan-2-yl]carbamate
> <PUBCHEM_IUPAC_SYSTEMATIC_NAME>
tert-butyl N-[(2S,3S)-4-[(2S)-2-[[(2S)-5-azanyl-1-(cyclohexylmethylamino)-1,5-bis(oxidanylidene)pentan-2-yl]carbamoyl]pyrrolidin-1-yl]-3-oxidanyl-4-oxidanylidene-1-phenyl-butan-2-yl]carbamate
> <PUBCHEM_IUPAC_TRADITIONAL_NAME>
N-[(1S,2S)-3-[(2S)-2-[[(1S)-4-amino-1-(cyclohexylmethylcarbamoyl)-4-keto-butyl]carbamoyl]pyrrolidino]-1-benzyl-2-hydroxy-3-keto-propyl]carbamic acid tert-butyl ester
> <PUBCHEM_IUPAC_INCHI>
InChI=1S/C32H49N5O7/c1-32(2,3)44-31(43)36-24(19-21-11-6-4-7-12-21)27(39)30(42)37-18-10-15-25(37)29(41)35-23(16-17-26(33)38)28(40)34-20-22-13-8-5-9-14-22/h4,6-7,11-12,22-25,27,39H,5,8-10,13-20H2,1-3H3,(H2,33,38)(H,34,40)(H,35,41)(H,36,43)/t23-,24-,25-,27-/m0/s1
> <PUBCHEM_IUPAC_INCHIKEY>
XADWDOYUJLCDNT-XLXZRNDBSA-N
> <PUBCHEM_XLOGP3_AA>
2.7
> <PUBCHEM_EXACT_MASS>
615.36319892
> <PUBCHEM_MOLECULAR_FORMULA>
C32H49N5O7
> <PUBCHEM_MOLECULAR_WEIGHT>
615.8
> <PUBCHEM_OPENEYE_CAN_SMILES>
CC(C)(C)OC(=O)NC(CC1=CC=CC=C1)C(C(=O)N2CCCC2C(=O)NC(CCC(=O)N)C(=O)NCC3CCCCC3)O
> <PUBCHEM_OPENEYE_ISO_SMILES>
CC(C)(C)OC(=O)N[C@@H](CC1=CC=CC=C1)[C@@H](C(=O)N2CCC[C@H]2C(=O)N[C@@H](CCC(=O)N)C(=O)NCC3CCCCC3)O
> <PUBCHEM_CACTVS_TPSA>
180
> <PUBCHEM_MONOISOTOPIC_WEIGHT>
615.36319892
> <PUBCHEM_TOTAL_CHARGE>
0
> <PUBCHEM_HEAVY_ATOM_COUNT>
44
> <PUBCHEM_ATOM_DEF_STEREO_COUNT>
4
> <PUBCHEM_ATOM_UDEF_STEREO_COUNT>
0
> <PUBCHEM_BOND_DEF_STEREO_COUNT>
0
> <PUBCHEM_BOND_UDEF_STEREO_COUNT>
0
> <PUBCHEM_ISOTOPIC_ATOM_COUNT>
0
> <PUBCHEM_COMPONENT_COUNT>
1
> <PUBCHEM_CACTVS_TAUTO_COUNT>
-1
> <PUBCHEM_COORDINATE_TYPE>
1
5
255
> <PUBCHEM_BONDANNOTATIONS>
26  10  5
29  11  5
18  24  6
27  2  5
33  36  8
33  37  8
36  39  8
37  40  8
39  41  8
40  41  8
$$$$
