501853
  -OEChem-10302200282D
 88 91  0     1  0  0  0  0  0999 V2000
    5.8301   -5.3541    0.0000 S   0  0  0  0  0  0  0  0  0  0  0  0
    4.5981   -2.8152    0.0000 O   0  0  0  0  0  0  0  0  0  0  0  0
    7.1962   -2.3152    0.0000 O   0  0  0  0  0  0  0  0  0  0  0  0
    8.2981   -3.1158    0.0000 O   0  0  0  0  0  0  0  0  0  0  0  0
    5.4641    0.6848    0.0000 O   0  0  0  0  0  0  0  0  0  0  0  0
    8.9282    3.6848    0.0000 O   0  0  0  0  0  0  0  0  0  0  0  0
    8.9282    1.6848    0.0000 O   0  0  0  0  0  0  0  0  0  0  0  0
    6.3301   -3.8152    0.0000 N   0  0  0  0  0  0  0  0  0  0  0  0
    8.8334   -4.7631    0.0000 N   0  0  0  0  0  0  0  0  0  0  0  0
    6.3301   -0.8152    0.0000 N   0  0  0  0  0  0  0  0  0  0  0  0
    7.1962    1.6848    0.0000 N   0  0  0  0  0  0  0  0  0  0  0  0
    7.1391   -4.4030    0.0000 C   0  0  1  0  0  0  0  0  0  0  0  0
    5.4641   -1.3152    0.0000 C   0  0  2  0  0  0  0  0  0  0  0  0
    5.4641   -2.3152    0.0000 C   0  0  1  0  0  0  0  0  0  0  0  0
    6.8301   -5.3541    0.0000 C   0  0  0  0  0  0  0  0  0  0  0  0
    5.5211   -4.4030    0.0000 C   0  0  0  0  0  0  0  0  0  0  0  0
    6.3301   -2.8152    0.0000 C   0  0  0  0  0  0  0  0  0  0  0  0
    8.0902   -4.0940    0.0000 C   0  0  0  0  0  0  0  0  0  0  0  0
    8.6254   -5.7413    0.0000 C   0  0  0  0  0  0  0  0  0  0  0  0
    4.5981   -0.8152    0.0000 C   0  0  0  0  0  0  0  0  0  0  0  0
    3.7320   -1.3152    0.0000 C   0  0  0  0  0  0  0  0  0  0  0  0
    8.4175   -6.7194    0.0000 C   0  0  0  0  0  0  0  0  0  0  0  0
    9.6036   -5.9492    0.0000 C   0  0  0  0  0  0  0  0  0  0  0  0
    7.6473   -5.5334    0.0000 C   0  0  0  0  0  0  0  0  0  0  0  0
    6.3301    0.1848    0.0000 C   0  0  0  0  0  0  0  0  0  0  0  0
    7.1962    0.6848    0.0000 C   0  0  2  0  0  0  0  0  0  0  0  0
    3.7320   -2.3152    0.0000 C   0  0  0  0  0  0  0  0  0  0  0  0
    2.8660   -0.8152    0.0000 C   0  0  0  0  0  0  0  0  0  0  0  0
    8.0622    0.1848    0.0000 C   0  0  0  0  0  0  0  0  0  0  0  0
    2.8660   -2.8152    0.0000 C   0  0  0  0  0  0  0  0  0  0  0  0
    2.0000   -1.3152    0.0000 C   0  0  0  0  0  0  0  0  0  0  0  0
    2.0000   -2.3152    0.0000 C   0  0  0  0  0  0  0  0  0  0  0  0
    8.0622   -0.8152    0.0000 C   0  0  0  0  0  0  0  0  0  0  0  0
    8.0622    2.1848    0.0000 C   0  0  0  0  0  0  0  0  0  0  0  0
    8.0622    3.1848    0.0000 C   0  0  0  0  0  0  0  0  0  0  0  0
    8.9282   -1.3152    0.0000 C   0  0  0  0  0  0  0  0  0  0  0  0
    8.9282    4.6848    0.0000 C   0  0  0  0  0  0  0  0  0  0  0  0
    9.7942    5.1848    0.0000 C   0  0  0  0  0  0  0  0  0  0  0  0
    9.7942    6.1848    0.0000 C   0  0  0  0  0  0  0  0  0  0  0  0
    8.0622    5.1848    0.0000 C   0  0  0  0  0  0  0  0  0  0  0  0
   10.6882    4.6501    0.0000 C   0  0  0  0  0  0  0  0  0  0  0  0
    8.9282    6.6848    0.0000 C   0  0  0  0  0  0  0  0  0  0  0  0
    8.0622    6.1848    0.0000 C   0  0  0  0  0  0  0  0  0  0  0  0
   10.6882    6.7194    0.0000 C   0  0  0  0  0  0  0  0  0  0  0  0
   11.5942    5.1640    0.0000 C   0  0  0  0  0  0  0  0  0  0  0  0
   11.5942    6.2056    0.0000 C   0  0  0  0  0  0  0  0  0  0  0  0
    7.2361   -3.7906    0.0000 H   0  0  0  0  0  0  0  0  0  0  0  0
    5.4641   -0.6952    0.0000 H   0  0  0  0  0  0  0  0  0  0  0  0
    5.4641   -2.9352    0.0000 H   0  0  0  0  0  0  0  0  0  0  0  0
    6.7653   -5.9707    0.0000 H   0  0  0  0  0  0  0  0  0  0  0  0
    7.4366   -5.4830    0.0000 H   0  0  0  0  0  0  0  0  0  0  0  0
    5.2111   -3.8661    0.0000 H   0  0  0  0  0  0  0  0  0  0  0  0
    4.9547   -4.6552    0.0000 H   0  0  0  0  0  0  0  0  0  0  0  0
    4.9966   -0.3403    0.0000 H   0  0  0  0  0  0  0  0  0  0  0  0
    4.1996   -0.3403    0.0000 H   0  0  0  0  0  0  0  0  0  0  0  0
    9.4230   -4.5715    0.0000 H   0  0  0  0  0  0  0  0  0  0  0  0
    6.8671   -1.1252    0.0000 H   0  0  0  0  0  0  0  0  0  0  0  0
    7.8111   -6.5905    0.0000 H   0  0  0  0  0  0  0  0  0  0  0  0
    8.2886   -7.3259    0.0000 H   0  0  0  0  0  0  0  0  0  0  0  0
    9.0240   -6.8483    0.0000 H   0  0  0  0  0  0  0  0  0  0  0  0
    9.4747   -6.5556    0.0000 H   0  0  0  0  0  0  0  0  0  0  0  0
   10.2100   -6.0781    0.0000 H   0  0  0  0  0  0  0  0  0  0  0  0
    9.7325   -5.3427    0.0000 H   0  0  0  0  0  0  0  0  0  0  0  0
    7.7762   -4.9269    0.0000 H   0  0  0  0  0  0  0  0  0  0  0  0
    7.0408   -5.4045    0.0000 H   0  0  0  0  0  0  0  0  0  0  0  0
    7.5184   -6.1398    0.0000 H   0  0  0  0  0  0  0  0  0  0  0  0
    6.6592    0.9948    0.0000 H   0  0  0  0  0  0  0  0  0  0  0  0
    4.5981   -3.4352    0.0000 H   0  0  0  0  0  0  0  0  0  0  0  0
    4.2690   -2.6252    0.0000 H   0  0  0  0  0  0  0  0  0  0  0  0
    2.8660   -0.1952    0.0000 H   0  0  0  0  0  0  0  0  0  0  0  0
    8.6728    0.0771    0.0000 H   0  0  0  0  0  0  0  0  0  0  0  0
    8.2742    0.7674    0.0000 H   0  0  0  0  0  0  0  0  0  0  0  0
    6.6592    1.9948    0.0000 H   0  0  0  0  0  0  0  0  0  0  0  0
    2.8660   -3.4352    0.0000 H   0  0  0  0  0  0  0  0  0  0  0  0
    1.4631   -1.0052    0.0000 H   0  0  0  0  0  0  0  0  0  0  0  0
    1.4631   -2.6252    0.0000 H   0  0  0  0  0  0  0  0  0  0  0  0
    7.5252   -1.1252    0.0000 H   0  0  0  0  0  0  0  0  0  0  0  0
    7.8501    3.7674    0.0000 H   0  0  0  0  0  0  0  0  0  0  0  0
    7.4516    3.0771    0.0000 H   0  0  0  0  0  0  0  0  0  0  0  0
    8.9282   -1.9352    0.0000 H   0  0  0  0  0  0  0  0  0  0  0  0
    9.4651   -1.0052    0.0000 H   0  0  0  0  0  0  0  0  0  0  0  0
    7.5252    4.8748    0.0000 H   0  0  0  0  0  0  0  0  0  0  0  0
   10.6810    4.0302    0.0000 H   0  0  0  0  0  0  0  0  0  0  0  0
    8.9282    7.3048    0.0000 H   0  0  0  0  0  0  0  0  0  0  0  0
    7.5252    6.4948    0.0000 H   0  0  0  0  0  0  0  0  0  0  0  0
   10.6810    7.3394    0.0000 H   0  0  0  0  0  0  0  0  0  0  0  0
   12.1300    4.8519    0.0000 H   0  0  0  0  0  0  0  0  0  0  0  0
   12.1300    6.5176    0.0000 H   0  0  0  0  0  0  0  0  0  0  0  0
  1 15  1  0  0  0  0
  1 16  1  0  0  0  0
 14  2  1  1  0  0  0
  2 68  1  0  0  0  0
  3 17  2  0  0  0  0
  4 18  2  0  0  0  0
  5 25  2  0  0  0  0
  6 35  1  0  0  0  0
  6 37  1  0  0  0  0
  7 34  2  0  0  0  0
  8 12  1  0  0  0  0
  8 16  1  0  0  0  0
  8 17  1  0  0  0  0
  9 18  1  0  0  0  0
  9 19  1  0  0  0  0
  9 56  1  0  0  0  0
 13 10  1  6  0  0  0
 10 25  1  0  0  0  0
 10 57  1  0  0  0  0
 26 11  1  1  0  0  0
 11 34  1  0  0  0  0
 11 73  1  0  0  0  0
 12 15  1  0  0  0  0
 12 18  1  6  0  0  0
 12 47  1  0  0  0  0
 13 14  1  0  0  0  0
 13 20  1  0  0  0  0
 13 48  1  0  0  0  0
 14 17  1  0  0  0  0
 14 49  1  0  0  0  0
 15 50  1  0  0  0  0
 15 51  1  0  0  0  0
 16 52  1  0  0  0  0
 16 53  1  0  0  0  0
 19 22  1  0  0  0  0
 19 23  1  0  0  0  0
 19 24  1  0  0  0  0
 20 21  1  0  0  0  0
 20 54  1  0  0  0  0
 20 55  1  0  0  0  0
 21 27  2  0  0  0  0
 21 28  1  0  0  0  0
 22 58  1  0  0  0  0
 22 59  1  0  0  0  0
 22 60  1  0  0  0  0
 23 61  1  0  0  0  0
 23 62  1  0  0  0  0
 23 63  1  0  0  0  0
 24 64  1  0  0  0  0
 24 65  1  0  0  0  0
 24 66  1  0  0  0  0
 25 26  1  0  0  0  0
 26 29  1  0  0  0  0
 26 67  1  0  0  0  0
 27 30  1  0  0  0  0
 27 69  1  0  0  0  0
 28 31  2  0  0  0  0
 28 70  1  0  0  0  0
 29 33  1  0  0  0  0
 29 71  1  0  0  0  0
 29 72  1  0  0  0  0
 30 32  2  0  0  0  0
 30 74  1  0  0  0  0
 31 32  1  0  0  0  0
 31 75  1  0  0  0  0
 32 76  1  0  0  0  0
 33 36  2  0  0  0  0
 33 77  1  0  0  0  0
 34 35  1  0  0  0  0
 35 78  1  0  0  0  0
 35 79  1  0  0  0  0
 36 80  1  0  0  0  0
 36 81  1  0  0  0  0
 37 38  1  0  0  0  0
 37 40  2  0  0  0  0
 38 39  1  0  0  0  0
 38 41  2  0  0  0  0
 39 42  1  0  0  0  0
 39 44  2  0  0  0  0
 40 43  1  0  0  0  0
 40 82  1  0  0  0  0
 41 45  1  0  0  0  0
 41 83  1  0  0  0  0
 42 43  2  0  0  0  0
 42 84  1  0  0  0  0
 43 85  1  0  0  0  0
 44 46  1  0  0  0  0
 44 86  1  0  0  0  0
 45 46  2  0  0  0  0
 45 87  1  0  0  0  0
 46 88  1  0  0  0  0
M  END
> <PUBCHEM_COMPOUND_CID>
501853
> <PUBCHEM_COMPOUND_CANONICALIZED>
1
> <PUBCHEM_CACTVS_COMPLEXITY>
1060
> <PUBCHEM_CACTVS_HBOND_ACCEPTOR>
7
> <PUBCHEM_CACTVS_HBOND_DONOR>
4
> <PUBCHEM_CACTVS_ROTATABLE_BOND>
14
> <PUBCHEM_CACTVS_SUBSKEYS>
AAADcfB/uABAAAAAAAAAAAAAAAAAAWAAAAAwYMAAAAAAAADBVAAAHgQQCAAADLzl2AayBsPABgiIAiFSEAICCABgIBAIiIHOCIgOdjqk8T+XeCCk1hGYqAeYyLCOgAABAAAYAAAAAAIAADAAAAAAAAAAAA==
> <PUBCHEM_IUPAC_OPENEYE_NAME>
(4R)-N-tert-butyl-3-[(2S,3S)-2-hydroxy-3-[[(2S)-2-[[2-(1-naphthyloxy)acetyl]amino]pent-4-enoyl]amino]-4-phenyl-butanoyl]thiazolidine-4-carboxamide
> <PUBCHEM_IUPAC_CAS_NAME>
(4R)-N-tert-butyl-3-[(2S,3S)-2-hydroxy-3-[[(2S)-2-[[2-(1-naphthalenyloxy)-1-oxoethyl]amino]-1-oxopent-4-enyl]amino]-1-oxo-4-phenylbutyl]-4-thiazolidinecarboxamide
> <PUBCHEM_IUPAC_NAME_MARKUP>
(4<I>R</I>)-<I>N</I>-<I>tert</I>-butyl-3-[(2<I>S</I>,3<I>S</I>)-2-hydroxy-3-[[(2<I>S</I>)-2-[(2-naphthalen-1-yloxyacetyl)amino]pent-4-enoyl]amino]-4-phenylbutanoyl]-1,3-thiazolidine-4-carboxamide
> <PUBCHEM_IUPAC_NAME>
(4R)-N-tert-butyl-3-[(2S,3S)-2-hydroxy-3-[[(2S)-2-[(2-naphthalen-1-yloxyacetyl)amino]pent-4-enoyl]amino]-4-phenylbutanoyl]-1,3-thiazolidine-4-carboxamide
> <PUBCHEM_IUPAC_SYSTEMATIC_NAME>
(4R)-N-tert-butyl-3-[(2S,3S)-3-[[(2S)-2-(2-naphthalen-1-yloxyethanoylamino)pent-4-enoyl]amino]-2-oxidanyl-4-phenyl-butanoyl]-1,3-thiazolidine-4-carboxamide
> <PUBCHEM_IUPAC_TRADITIONAL_NAME>
(4R)-N-tert-butyl-3-[(2S,3S)-2-hydroxy-3-[[(2S)-2-[[2-(1-naphthoxy)acetyl]amino]pent-4-enoyl]amino]-4-phenyl-butanoyl]thiazolidine-4-carboxamide
> <PUBCHEM_IUPAC_INCHI>
InChI=1S/C35H42N4O6S/c1-5-12-26(36-30(40)20-45-29-18-11-16-24-15-9-10-17-25(24)29)32(42)37-27(19-23-13-7-6-8-14-23)31(41)34(44)39-22-46-21-28(39)33(43)38-35(2,3)4/h5-11,13-18,26-28,31,41H,1,12,19-22H2,2-4H3,(H,36,40)(H,37,42)(H,38,43)/t26-,27-,28-,31-/m0/s1
> <PUBCHEM_IUPAC_INCHIKEY>
QGGRBGJVDOXEQO-KFZSMJGVSA-N
> <PUBCHEM_XLOGP3_AA>
4.8
> <PUBCHEM_EXACT_MASS>
646.28250625
> <PUBCHEM_MOLECULAR_FORMULA>
C35H42N4O6S
> <PUBCHEM_MOLECULAR_WEIGHT>
646.8
> <PUBCHEM_OPENEYE_CAN_SMILES>
CC(C)(C)NC(=O)C1CSCN1C(=O)C(C(CC2=CC=CC=C2)NC(=O)C(CC=C)NC(=O)COC3=CC=CC4=CC=CC=C43)O
> <PUBCHEM_OPENEYE_ISO_SMILES>
CC(C)(C)NC(=O)[C@@H]1CSCN1C(=O)[C@H]([C@H](CC2=CC=CC=C2)NC(=O)[C@H](CC=C)NC(=O)COC3=CC=CC4=CC=CC=C43)O
> <PUBCHEM_CACTVS_TPSA>
162
> <PUBCHEM_MONOISOTOPIC_WEIGHT>
646.28250625
> <PUBCHEM_TOTAL_CHARGE>
0
> <PUBCHEM_HEAVY_ATOM_COUNT>
46
> <PUBCHEM_ATOM_DEF_STEREO_COUNT>
4
> <PUBCHEM_ATOM_UDEF_STEREO_COUNT>
0
> <PUBCHEM_BOND_DEF_STEREO_COUNT>
0
> <PUBCHEM_BOND_UDEF_STEREO_COUNT>
0
> <PUBCHEM_ISOTOPIC_ATOM_COUNT>
0
> <PUBCHEM_COMPONENT_COUNT>
1
> <PUBCHEM_CACTVS_TAUTO_COUNT>
-1
> <PUBCHEM_COORDINATE_TYPE>
1
5
255
> <PUBCHEM_BONDANNOTATIONS>
13  10  6
26  11  5
12  18  6
14  2  5
21  27  8
21  28  8
27  30  8
28  31  8
30  32  8
31  32  8
37  38  8
37  40  8
38  39  8
38  41  8
39  42  8
39  44  8
40  43  8
41  45  8
42  43  8
44  46  8
45  46  8
$$$$
