501827
  -OEChem-10302200282D
 91 95  0     1  0  0  0  0  0999 V2000
   10.6986   -2.7673    0.0000 S   0  0  0  0  0  0  0  0  0  0  0  0
    5.5024   -1.7673    0.0000 O   0  0  0  0  0  0  0  0  0  0  0  0
    7.2345    0.2327    0.0000 O   0  0  0  0  0  0  0  0  0  0  0  0
    7.0921    1.5873    0.0000 O   0  0  0  0  0  0  0  0  0  0  0  0
    8.9665   -2.7673    0.0000 O   0  0  0  0  0  0  0  0  0  0  0  0
   10.6986   -3.7673    0.0000 O   0  0  0  0  0  0  0  0  0  0  0  0
    9.6986   -2.7673    0.0000 O   0  0  0  0  0  0  0  0  0  0  0  0
   11.5646   -0.2673    0.0000 O   0  0  0  0  0  0  0  0  0  0  0  0
   11.5646    1.7327    0.0000 O   0  0  0  0  0  0  0  0  0  0  0  0
    2.1289    4.1105    0.0000 O   0  0  0  0  0  0  0  0  0  0  0  0
    5.5024    0.2327    0.0000 N   0  0  0  0  0  0  0  0  0  0  0  0
    8.1005   -1.2673    0.0000 N   0  0  0  0  0  0  0  0  0  0  0  0
    5.9331    2.8745    0.0000 N   0  0  0  0  0  0  0  0  0  0  0  0
    9.8326   -0.2673    0.0000 N   0  0  0  0  0  0  0  0  0  0  0  0
    5.3979    1.2272    0.0000 C   0  0  1  0  0  0  0  0  0  0  0  0
    4.4197    1.4351    0.0000 C   0  0  0  0  0  0  0  0  0  0  0  0
    3.9198    0.5691    0.0000 C   0  0  0  0  0  0  0  0  0  0  0  0
    4.5889   -0.1741    0.0000 C   0  0  0  0  0  0  0  0  0  0  0  0
    6.3684   -0.2673    0.0000 C   0  0  0  0  0  0  0  0  0  0  0  0
    6.3684   -1.2673    0.0000 C   0  0  2  0  0  0  0  0  0  0  0  0
    7.2345   -1.7673    0.0000 C   0  0  2  0  0  0  0  0  0  0  0  0
    6.1410    1.8963    0.0000 C   0  0  0  0  0  0  0  0  0  0  0  0
    7.2345   -2.7673    0.0000 C   0  0  0  0  0  0  0  0  0  0  0  0
    6.3684   -3.2673    0.0000 C   0  0  0  0  0  0  0  0  0  0  0  0
    8.9665   -1.7673    0.0000 C   0  0  0  0  0  0  0  0  0  0  0  0
    9.8326   -1.2673    0.0000 C   0  0  2  0  0  0  0  0  0  0  0  0
   10.6986   -1.7673    0.0000 C   0  0  0  0  0  0  0  0  0  0  0  0
    4.9821    3.1835    0.0000 C   0  0  0  0  0  0  0  0  0  0  0  0
    5.5024   -2.7673    0.0000 C   0  0  0  0  0  0  0  0  0  0  0  0
    6.3684   -4.2673    0.0000 C   0  0  0  0  0  0  0  0  0  0  0  0
    4.2389    2.5144    0.0000 C   0  0  0  0  0  0  0  0  0  0  0  0
    4.7742    4.1616    0.0000 C   0  0  0  0  0  0  0  0  0  0  0  0
    4.6364   -3.2673    0.0000 C   0  0  0  0  0  0  0  0  0  0  0  0
    5.5024   -4.7673    0.0000 C   0  0  0  0  0  0  0  0  0  0  0  0
   11.6986   -2.7673    0.0000 C   0  0  0  0  0  0  0  0  0  0  0  0
   10.6986    0.2327    0.0000 C   0  0  0  0  0  0  0  0  0  0  0  0
    4.6364   -4.2673    0.0000 C   0  0  0  0  0  0  0  0  0  0  0  0
    3.2879    2.8234    0.0000 C   0  0  0  0  0  0  0  0  0  0  0  0
    3.8231    4.4706    0.0000 C   0  0  0  0  0  0  0  0  0  0  0  0
    3.0800    3.8015    0.0000 C   0  0  0  0  0  0  0  0  0  0  0  0
   10.6986    1.2327    0.0000 C   0  0  0  0  0  0  0  0  0  0  0  0
   11.5646    2.7327    0.0000 C   0  0  0  0  0  0  0  0  0  0  0  0
   12.4306    3.2327    0.0000 C   0  0  0  0  0  0  0  0  0  0  0  0
   12.4306    4.2327    0.0000 C   0  0  0  0  0  0  0  0  0  0  0  0
   10.6986    3.2327    0.0000 C   0  0  0  0  0  0  0  0  0  0  0  0
   13.3246    2.6980    0.0000 C   0  0  0  0  0  0  0  0  0  0  0  0
   11.5646    4.7327    0.0000 C   0  0  0  0  0  0  0  0  0  0  0  0
   10.6986    4.2327    0.0000 C   0  0  0  0  0  0  0  0  0  0  0  0
   13.3246    4.7673    0.0000 C   0  0  0  0  0  0  0  0  0  0  0  0
   14.2306    3.2118    0.0000 C   0  0  0  0  0  0  0  0  0  0  0  0
   14.2306    4.2535    0.0000 C   0  0  0  0  0  0  0  0  0  0  0  0
    5.9767    1.0050    0.0000 H   0  0  0  0  0  0  0  0  0  0  0  0
    4.6113    2.0248    0.0000 H   0  0  0  0  0  0  0  0  0  0  0  0
    3.8534    1.6873    0.0000 H   0  0  0  0  0  0  0  0  0  0  0  0
    3.4182    0.9335    0.0000 H   0  0  0  0  0  0  0  0  0  0  0  0
    3.5049    0.1083    0.0000 H   0  0  0  0  0  0  0  0  0  0  0  0
    4.0873   -0.5385    0.0000 H   0  0  0  0  0  0  0  0  0  0  0  0
    4.8989   -0.7110    0.0000 H   0  0  0  0  0  0  0  0  0  0  0  0
    6.3684   -1.8873    0.0000 H   0  0  0  0  0  0  0  0  0  0  0  0
    7.2345   -1.1473    0.0000 H   0  0  0  0  0  0  0  0  0  0  0  0
    7.4465   -3.3499    0.0000 H   0  0  0  0  0  0  0  0  0  0  0  0
    7.8451   -2.6597    0.0000 H   0  0  0  0  0  0  0  0  0  0  0  0
    8.1005   -0.6473    0.0000 H   0  0  0  0  0  0  0  0  0  0  0  0
    6.3939    3.2893    0.0000 H   0  0  0  0  0  0  0  0  0  0  0  0
    4.9655   -1.4573    0.0000 H   0  0  0  0  0  0  0  0  0  0  0  0
   10.3695   -0.9573    0.0000 H   0  0  0  0  0  0  0  0  0  0  0  0
   11.3092   -1.8750    0.0000 H   0  0  0  0  0  0  0  0  0  0  0  0
   10.9106   -1.1847    0.0000 H   0  0  0  0  0  0  0  0  0  0  0  0
    5.5024   -2.1473    0.0000 H   0  0  0  0  0  0  0  0  0  0  0  0
    6.9054   -4.5773    0.0000 H   0  0  0  0  0  0  0  0  0  0  0  0
    9.2956    0.0427    0.0000 H   0  0  0  0  0  0  0  0  0  0  0  0
    4.3678    1.9079    0.0000 H   0  0  0  0  0  0  0  0  0  0  0  0
    5.2349    4.5765    0.0000 H   0  0  0  0  0  0  0  0  0  0  0  0
    4.0995   -2.9573    0.0000 H   0  0  0  0  0  0  0  0  0  0  0  0
    5.5024   -5.3873    0.0000 H   0  0  0  0  0  0  0  0  0  0  0  0
   11.6986   -3.3873    0.0000 H   0  0  0  0  0  0  0  0  0  0  0  0
   12.3186   -2.7673    0.0000 H   0  0  0  0  0  0  0  0  0  0  0  0
   11.6986   -2.1473    0.0000 H   0  0  0  0  0  0  0  0  0  0  0  0
    4.0995   -4.5773    0.0000 H   0  0  0  0  0  0  0  0  0  0  0  0
    2.8271    2.4085    0.0000 H   0  0  0  0  0  0  0  0  0  0  0  0
    3.6942    5.0771    0.0000 H   0  0  0  0  0  0  0  0  0  0  0  0
   10.4865    1.8153    0.0000 H   0  0  0  0  0  0  0  0  0  0  0  0
   10.0880    1.1250    0.0000 H   0  0  0  0  0  0  0  0  0  0  0  0
    2.0000    4.7170    0.0000 H   0  0  0  0  0  0  0  0  0  0  0  0
   10.1616    2.9227    0.0000 H   0  0  0  0  0  0  0  0  0  0  0  0
   13.3174    2.0780    0.0000 H   0  0  0  0  0  0  0  0  0  0  0  0
   11.5646    5.3527    0.0000 H   0  0  0  0  0  0  0  0  0  0  0  0
   10.1616    4.5427    0.0000 H   0  0  0  0  0  0  0  0  0  0  0  0
   13.3174    5.3873    0.0000 H   0  0  0  0  0  0  0  0  0  0  0  0
   14.7664    2.8998    0.0000 H   0  0  0  0  0  0  0  0  0  0  0  0
   14.7664    4.5656    0.0000 H   0  0  0  0  0  0  0  0  0  0  0  0
  1  6  2  0  0  0  0
  1  7  2  0  0  0  0
  1 27  1  0  0  0  0
  1 35  1  0  0  0  0
 20  2  1  6  0  0  0
  2 65  1  0  0  0  0
  3 19  2  0  0  0  0
  4 22  2  0  0  0  0
  5 25  2  0  0  0  0
  8 36  2  0  0  0  0
  9 41  1  0  0  0  0
  9 42  1  0  0  0  0
 10 40  1  0  0  0  0
 10 84  1  0  0  0  0
 11 15  1  0  0  0  0
 11 18  1  0  0  0  0
 11 19  1  0  0  0  0
 21 12  1  1  0  0  0
 12 25  1  0  0  0  0
 12 63  1  0  0  0  0
 13 22  1  0  0  0  0
 13 28  1  0  0  0  0
 13 64  1  0  0  0  0
 26 14  1  1  0  0  0
 14 36  1  0  0  0  0
 14 71  1  0  0  0  0
 15 16  1  0  0  0  0
 15 22  1  1  0  0  0
 15 52  1  0  0  0  0
 16 17  1  0  0  0  0
 16 53  1  0  0  0  0
 16 54  1  0  0  0  0
 17 18  1  0  0  0  0
 17 55  1  0  0  0  0
 17 56  1  0  0  0  0
 18 57  1  0  0  0  0
 18 58  1  0  0  0  0
 19 20  1  0  0  0  0
 20 21  1  0  0  0  0
 20 59  1  0  0  0  0
 21 23  1  0  0  0  0
 21 60  1  0  0  0  0
 23 24  1  0  0  0  0
 23 61  1  0  0  0  0
 23 62  1  0  0  0  0
 24 29  2  0  0  0  0
 24 30  1  0  0  0  0
 25 26  1  0  0  0  0
 26 27  1  0  0  0  0
 26 66  1  0  0  0  0
 27 67  1  0  0  0  0
 27 68  1  0  0  0  0
 28 31  2  0  0  0  0
 28 32  1  0  0  0  0
 29 33  1  0  0  0  0
 29 69  1  0  0  0  0
 30 34  2  0  0  0  0
 30 70  1  0  0  0  0
 31 38  1  0  0  0  0
 31 72  1  0  0  0  0
 32 39  2  0  0  0  0
 32 73  1  0  0  0  0
 33 37  2  0  0  0  0
 33 74  1  0  0  0  0
 34 37  1  0  0  0  0
 34 75  1  0  0  0  0
 35 76  1  0  0  0  0
 35 77  1  0  0  0  0
 35 78  1  0  0  0  0
 36 41  1  0  0  0  0
 37 79  1  0  0  0  0
 38 40  2  0  0  0  0
 38 80  1  0  0  0  0
 39 40  1  0  0  0  0
 39 81  1  0  0  0  0
 41 82  1  0  0  0  0
 41 83  1  0  0  0  0
 42 43  1  0  0  0  0
 42 45  2  0  0  0  0
 43 44  1  0  0  0  0
 43 46  2  0  0  0  0
 44 47  1  0  0  0  0
 44 49  2  0  0  0  0
 45 48  1  0  0  0  0
 45 85  1  0  0  0  0
 46 50  1  0  0  0  0
 46 86  1  0  0  0  0
 47 48  2  0  0  0  0
 47 87  1  0  0  0  0
 48 88  1  0  0  0  0
 49 51  1  0  0  0  0
 49 89  1  0  0  0  0
 50 51  2  0  0  0  0
 50 90  1  0  0  0  0
 51 91  1  0  0  0  0
M  END
> <PUBCHEM_COMPOUND_CID>
501827
> <PUBCHEM_COMPOUND_CANONICALIZED>
1
> <PUBCHEM_CACTVS_COMPLEXITY>
1300
> <PUBCHEM_CACTVS_HBOND_ACCEPTOR>
9
> <PUBCHEM_CACTVS_HBOND_DONOR>
5
> <PUBCHEM_CACTVS_ROTATABLE_BOND>
14
> <PUBCHEM_CACTVS_SUBSKEYS>
AAADcfB/vABAAAAAAAAAAAAAAAAAAWAAAAAwYMGAAAAAAADBVAAAHgQQCAAADDzl2AayxsPABgqIAiVSUHLCCAAhIhAIiIHObIgOdjrm8b+XeCjk1hHY+Ae4ybCOgEABAAAYAAAAgAIAADAAAAAAAAAAAA==
> <PUBCHEM_IUPAC_OPENEYE_NAME>
(2S)-1-[(2S,3S)-2-hydroxy-3-[[(2R)-3-methylsulfonyl-2-[[2-(1-naphthyloxy)acetyl]amino]propanoyl]amino]-4-phenyl-butanoyl]-N-(4-hydroxyphenyl)pyrrolidine-2-carboxamide
> <PUBCHEM_IUPAC_CAS_NAME>
(2S)-1-[(2S,3S)-2-hydroxy-3-[[(2R)-3-methylsulfonyl-2-[[2-(1-naphthalenyloxy)-1-oxoethyl]amino]-1-oxopropyl]amino]-1-oxo-4-phenylbutyl]-N-(4-hydroxyphenyl)-2-pyrrolidinecarboxamide
> <PUBCHEM_IUPAC_NAME_MARKUP>
(2<I>S</I>)-1-[(2<I>S</I>,3<I>S</I>)-2-hydroxy-3-[[(2<I>R</I>)-3-methylsulfonyl-2-[(2-naphthalen-1-yloxyacetyl)amino]propanoyl]amino]-4-phenylbutanoyl]-<I>N</I>-(4-hydroxyphenyl)pyrrolidine-2-carboxamide
> <PUBCHEM_IUPAC_NAME>
(2S)-1-[(2S,3S)-2-hydroxy-3-[[(2R)-3-methylsulfonyl-2-[(2-naphthalen-1-yloxyacetyl)amino]propanoyl]amino]-4-phenylbutanoyl]-N-(4-hydroxyphenyl)pyrrolidine-2-carboxamide
> <PUBCHEM_IUPAC_SYSTEMATIC_NAME>
(2S)-N-(4-hydroxyphenyl)-1-[(2S,3S)-3-[[(2R)-3-methylsulfonyl-2-(2-naphthalen-1-yloxyethanoylamino)propanoyl]amino]-2-oxidanyl-4-phenyl-butanoyl]pyrrolidine-2-carboxamide
> <PUBCHEM_IUPAC_TRADITIONAL_NAME>
(2S)-1-[(2S,3S)-2-hydroxy-3-[[(2R)-3-mesyl-2-[[2-(1-naphthoxy)acetyl]amino]propanoyl]amino]-4-phenyl-butanoyl]-N-(4-hydroxyphenyl)pyrrolidine-2-carboxamide
> <PUBCHEM_IUPAC_INCHI>
InChI=1S/C37H40N4O9S/c1-51(48,49)23-30(39-33(43)22-50-32-15-7-12-25-11-5-6-13-28(25)32)35(45)40-29(21-24-9-3-2-4-10-24)34(44)37(47)41-20-8-14-31(41)36(46)38-26-16-18-27(42)19-17-26/h2-7,9-13,15-19,29-31,34,42,44H,8,14,20-23H2,1H3,(H,38,46)(H,39,43)(H,40,45)/t29-,30-,31-,34-/m0/s1
> <PUBCHEM_IUPAC_INCHIKEY>
UBATUPWONFTEJW-MEROQGEASA-N
> <PUBCHEM_XLOGP3_AA>
3.2
> <PUBCHEM_EXACT_MASS>
716.25160004
> <PUBCHEM_MOLECULAR_FORMULA>
C37H40N4O9S
> <PUBCHEM_MOLECULAR_WEIGHT>
716.8
> <PUBCHEM_OPENEYE_CAN_SMILES>
CS(=O)(=O)CC(C(=O)NC(CC1=CC=CC=C1)C(C(=O)N2CCCC2C(=O)NC3=CC=C(C=C3)O)O)NC(=O)COC4=CC=CC5=CC=CC=C54
> <PUBCHEM_OPENEYE_ISO_SMILES>
CS(=O)(=O)C[C@@H](C(=O)N[C@@H](CC1=CC=CC=C1)[C@@H](C(=O)N2CCC[C@H]2C(=O)NC3=CC=C(C=C3)O)O)NC(=O)COC4=CC=CC5=CC=CC=C54
> <PUBCHEM_CACTVS_TPSA>
200
> <PUBCHEM_MONOISOTOPIC_WEIGHT>
716.25160004
> <PUBCHEM_TOTAL_CHARGE>
0
> <PUBCHEM_HEAVY_ATOM_COUNT>
51
> <PUBCHEM_ATOM_DEF_STEREO_COUNT>
4
> <PUBCHEM_ATOM_UDEF_STEREO_COUNT>
0
> <PUBCHEM_BOND_DEF_STEREO_COUNT>
0
> <PUBCHEM_BOND_UDEF_STEREO_COUNT>
0
> <PUBCHEM_ISOTOPIC_ATOM_COUNT>
0
> <PUBCHEM_COMPONENT_COUNT>
1
> <PUBCHEM_CACTVS_TAUTO_COUNT>
-1
> <PUBCHEM_COORDINATE_TYPE>
1
5
255
> <PUBCHEM_BONDANNOTATIONS>
21  12  5
26  14  5
15  22  5
20  2  6
24  29  8
24  30  8
28  31  8
28  32  8
29  33  8
30  34  8
31  38  8
32  39  8
33  37  8
34  37  8
38  40  8
39  40  8
42  43  8
42  45  8
43  44  8
43  46  8
44  47  8
44  49  8
45  48  8
46  50  8
47  48  8
49  51  8
50  51  8
$$$$
