501839
  -OEChem-10302200282D
 93 96  0     1  0  0  0  0  0999 V2000
    5.8301   -5.3541    0.0000 S   0  0  0  0  0  0  0  0  0  0  0  0
    4.5981   -2.8152    0.0000 O   0  0  0  0  0  0  0  0  0  0  0  0
    7.1962   -2.3152    0.0000 O   0  0  0  0  0  0  0  0  0  0  0  0
    8.2981   -3.1158    0.0000 O   0  0  0  0  0  0  0  0  0  0  0  0
    5.4641    0.6848    0.0000 O   0  0  0  0  0  0  0  0  0  0  0  0
    8.9282    1.6848    0.0000 O   0  0  0  0  0  0  0  0  0  0  0  0
    8.9282    3.6848    0.0000 O   0  0  0  0  0  0  0  0  0  0  0  0
    6.3301   -3.8152    0.0000 N   0  0  0  0  0  0  0  0  0  0  0  0
    6.3301   -0.8152    0.0000 N   0  0  0  0  0  0  0  0  0  0  0  0
    8.8334   -4.7631    0.0000 N   0  0  0  0  0  0  0  0  0  0  0  0
    7.1962    1.6848    0.0000 N   0  0  0  0  0  0  0  0  0  0  0  0
    7.1391   -4.4030    0.0000 C   0  0  1  0  0  0  0  0  0  0  0  0
    5.4641   -1.3152    0.0000 C   0  0  2  0  0  0  0  0  0  0  0  0
    5.4641   -2.3152    0.0000 C   0  0  1  0  0  0  0  0  0  0  0  0
    7.1962    0.6848    0.0000 C   0  0  1  0  0  0  0  0  0  0  0  0
    8.0622    0.1848    0.0000 C   0  0  1  0  0  0  0  0  0  0  0  0
    6.8301   -5.3541    0.0000 C   0  0  0  0  0  0  0  0  0  0  0  0
    6.3301   -2.8152    0.0000 C   0  0  0  0  0  0  0  0  0  0  0  0
    5.5211   -4.4030    0.0000 C   0  0  0  0  0  0  0  0  0  0  0  0
    4.5981   -0.8152    0.0000 C   0  0  0  0  0  0  0  0  0  0  0  0
    8.0902   -4.0940    0.0000 C   0  0  0  0  0  0  0  0  0  0  0  0
    6.3301    0.1848    0.0000 C   0  0  0  0  0  0  0  0  0  0  0  0
    8.6254   -5.7413    0.0000 C   0  0  0  0  0  0  0  0  0  0  0  0
    8.0622   -0.8152    0.0000 C   0  0  0  0  0  0  0  0  0  0  0  0
    8.9282    0.6848    0.0000 C   0  0  0  0  0  0  0  0  0  0  0  0
    3.7320   -1.3152    0.0000 C   0  0  0  0  0  0  0  0  0  0  0  0
    8.4175   -6.7194    0.0000 C   0  0  0  0  0  0  0  0  0  0  0  0
    9.6036   -5.9492    0.0000 C   0  0  0  0  0  0  0  0  0  0  0  0
    7.6473   -5.5334    0.0000 C   0  0  0  0  0  0  0  0  0  0  0  0
    8.9282   -1.3152    0.0000 C   0  0  0  0  0  0  0  0  0  0  0  0
    3.7320   -2.3152    0.0000 C   0  0  0  0  0  0  0  0  0  0  0  0
    2.8660   -0.8152    0.0000 C   0  0  0  0  0  0  0  0  0  0  0  0
    8.0622    2.1848    0.0000 C   0  0  0  0  0  0  0  0  0  0  0  0
    2.8660   -2.8152    0.0000 C   0  0  0  0  0  0  0  0  0  0  0  0
    2.0000   -1.3152    0.0000 C   0  0  0  0  0  0  0  0  0  0  0  0
    8.0622    3.1848    0.0000 C   0  0  0  0  0  0  0  0  0  0  0  0
    2.0000   -2.3152    0.0000 C   0  0  0  0  0  0  0  0  0  0  0  0
    8.9282    4.6848    0.0000 C   0  0  0  0  0  0  0  0  0  0  0  0
    9.7942    5.1848    0.0000 C   0  0  0  0  0  0  0  0  0  0  0  0
    8.0622    5.1848    0.0000 C   0  0  0  0  0  0  0  0  0  0  0  0
    9.7942    6.1848    0.0000 C   0  0  0  0  0  0  0  0  0  0  0  0
   10.6882    4.6501    0.0000 C   0  0  0  0  0  0  0  0  0  0  0  0
    8.0622    6.1848    0.0000 C   0  0  0  0  0  0  0  0  0  0  0  0
    8.9282    6.6848    0.0000 C   0  0  0  0  0  0  0  0  0  0  0  0
   10.6882    6.7194    0.0000 C   0  0  0  0  0  0  0  0  0  0  0  0
   11.5942    5.1640    0.0000 C   0  0  0  0  0  0  0  0  0  0  0  0
   11.5942    6.2056    0.0000 C   0  0  0  0  0  0  0  0  0  0  0  0
    7.2361   -3.7906    0.0000 H   0  0  0  0  0  0  0  0  0  0  0  0
    5.4641   -0.6952    0.0000 H   0  0  0  0  0  0  0  0  0  0  0  0
    5.4641   -2.9352    0.0000 H   0  0  0  0  0  0  0  0  0  0  0  0
    6.6592    0.9948    0.0000 H   0  0  0  0  0  0  0  0  0  0  0  0
    8.0622    0.8048    0.0000 H   0  0  0  0  0  0  0  0  0  0  0  0
    6.7653   -5.9707    0.0000 H   0  0  0  0  0  0  0  0  0  0  0  0
    7.4366   -5.4830    0.0000 H   0  0  0  0  0  0  0  0  0  0  0  0
    5.2111   -3.8661    0.0000 H   0  0  0  0  0  0  0  0  0  0  0  0
    4.9547   -4.6552    0.0000 H   0  0  0  0  0  0  0  0  0  0  0  0
    4.9966   -0.3403    0.0000 H   0  0  0  0  0  0  0  0  0  0  0  0
    4.1996   -0.3403    0.0000 H   0  0  0  0  0  0  0  0  0  0  0  0
    6.8671   -1.1252    0.0000 H   0  0  0  0  0  0  0  0  0  0  0  0
    7.4516   -0.7076    0.0000 H   0  0  0  0  0  0  0  0  0  0  0  0
    7.8501   -1.3978    0.0000 H   0  0  0  0  0  0  0  0  0  0  0  0
    9.4230   -4.5715    0.0000 H   0  0  0  0  0  0  0  0  0  0  0  0
    9.2382    0.1478    0.0000 H   0  0  0  0  0  0  0  0  0  0  0  0
    9.4651    0.9948    0.0000 H   0  0  0  0  0  0  0  0  0  0  0  0
    8.6182    1.2217    0.0000 H   0  0  0  0  0  0  0  0  0  0  0  0
    6.6592    1.9948    0.0000 H   0  0  0  0  0  0  0  0  0  0  0  0
    4.5981   -3.4352    0.0000 H   0  0  0  0  0  0  0  0  0  0  0  0
    7.8111   -6.5905    0.0000 H   0  0  0  0  0  0  0  0  0  0  0  0
    8.2886   -7.3259    0.0000 H   0  0  0  0  0  0  0  0  0  0  0  0
    9.0240   -6.8483    0.0000 H   0  0  0  0  0  0  0  0  0  0  0  0
    9.4747   -6.5556    0.0000 H   0  0  0  0  0  0  0  0  0  0  0  0
   10.2100   -6.0781    0.0000 H   0  0  0  0  0  0  0  0  0  0  0  0
    9.7325   -5.3427    0.0000 H   0  0  0  0  0  0  0  0  0  0  0  0
    7.7762   -4.9269    0.0000 H   0  0  0  0  0  0  0  0  0  0  0  0
    7.0408   -5.4045    0.0000 H   0  0  0  0  0  0  0  0  0  0  0  0
    7.5184   -6.1398    0.0000 H   0  0  0  0  0  0  0  0  0  0  0  0
    8.6182   -1.8522    0.0000 H   0  0  0  0  0  0  0  0  0  0  0  0
    9.4651   -1.6252    0.0000 H   0  0  0  0  0  0  0  0  0  0  0  0
    9.2382   -0.7783    0.0000 H   0  0  0  0  0  0  0  0  0  0  0  0
    4.2690   -2.6252    0.0000 H   0  0  0  0  0  0  0  0  0  0  0  0
    2.8660   -0.1952    0.0000 H   0  0  0  0  0  0  0  0  0  0  0  0
    7.8501    3.7674    0.0000 H   0  0  0  0  0  0  0  0  0  0  0  0
    7.4516    3.0771    0.0000 H   0  0  0  0  0  0  0  0  0  0  0  0
    2.8660   -3.4352    0.0000 H   0  0  0  0  0  0  0  0  0  0  0  0
    1.4631   -1.0052    0.0000 H   0  0  0  0  0  0  0  0  0  0  0  0
    1.4631   -2.6252    0.0000 H   0  0  0  0  0  0  0  0  0  0  0  0
    7.5252    4.8748    0.0000 H   0  0  0  0  0  0  0  0  0  0  0  0
   10.6810    4.0302    0.0000 H   0  0  0  0  0  0  0  0  0  0  0  0
    7.5252    6.4948    0.0000 H   0  0  0  0  0  0  0  0  0  0  0  0
    8.9282    7.3048    0.0000 H   0  0  0  0  0  0  0  0  0  0  0  0
   10.6810    7.3394    0.0000 H   0  0  0  0  0  0  0  0  0  0  0  0
   12.1300    4.8519    0.0000 H   0  0  0  0  0  0  0  0  0  0  0  0
   12.1300    6.5176    0.0000 H   0  0  0  0  0  0  0  0  0  0  0  0
  1 17  1  0  0  0  0
  1 19  1  0  0  0  0
 14  2  1  1  0  0  0
  2 67  1  0  0  0  0
  3 18  2  0  0  0  0
  4 21  2  0  0  0  0
  5 22  2  0  0  0  0
  6 33  2  0  0  0  0
  7 36  1  0  0  0  0
  7 38  1  0  0  0  0
  8 12  1  0  0  0  0
  8 18  1  0  0  0  0
  8 19  1  0  0  0  0
 13  9  1  6  0  0  0
  9 22  1  0  0  0  0
  9 59  1  0  0  0  0
 10 21  1  0  0  0  0
 10 23  1  0  0  0  0
 10 62  1  0  0  0  0
 15 11  1  1  0  0  0
 11 33  1  0  0  0  0
 11 66  1  0  0  0  0
 12 17  1  0  0  0  0
 12 21  1  6  0  0  0
 12 48  1  0  0  0  0
 13 14  1  0  0  0  0
 13 20  1  0  0  0  0
 13 49  1  0  0  0  0
 14 18  1  0  0  0  0
 14 50  1  0  0  0  0
 15 16  1  0  0  0  0
 15 22  1  0  0  0  0
 15 51  1  0  0  0  0
 16 24  1  0  0  0  0
 16 25  1  6  0  0  0
 16 52  1  0  0  0  0
 17 53  1  0  0  0  0
 17 54  1  0  0  0  0
 19 55  1  0  0  0  0
 19 56  1  0  0  0  0
 20 26  1  0  0  0  0
 20 57  1  0  0  0  0
 20 58  1  0  0  0  0
 23 27  1  0  0  0  0
 23 28  1  0  0  0  0
 23 29  1  0  0  0  0
 24 30  1  0  0  0  0
 24 60  1  0  0  0  0
 24 61  1  0  0  0  0
 25 63  1  0  0  0  0
 25 64  1  0  0  0  0
 25 65  1  0  0  0  0
 26 31  2  0  0  0  0
 26 32  1  0  0  0  0
 27 68  1  0  0  0  0
 27 69  1  0  0  0  0
 27 70  1  0  0  0  0
 28 71  1  0  0  0  0
 28 72  1  0  0  0  0
 28 73  1  0  0  0  0
 29 74  1  0  0  0  0
 29 75  1  0  0  0  0
 29 76  1  0  0  0  0
 30 77  1  0  0  0  0
 30 78  1  0  0  0  0
 30 79  1  0  0  0  0
 31 34  1  0  0  0  0
 31 80  1  0  0  0  0
 32 35  2  0  0  0  0
 32 81  1  0  0  0  0
 33 36  1  0  0  0  0
 34 37  2  0  0  0  0
 34 84  1  0  0  0  0
 35 37  1  0  0  0  0
 35 85  1  0  0  0  0
 36 82  1  0  0  0  0
 36 83  1  0  0  0  0
 37 86  1  0  0  0  0
 38 39  1  0  0  0  0
 38 40  2  0  0  0  0
 39 41  1  0  0  0  0
 39 42  2  0  0  0  0
 40 43  1  0  0  0  0
 40 87  1  0  0  0  0
 41 44  1  0  0  0  0
 41 45  2  0  0  0  0
 42 46  1  0  0  0  0
 42 88  1  0  0  0  0
 43 44  2  0  0  0  0
 43 89  1  0  0  0  0
 44 90  1  0  0  0  0
 45 47  1  0  0  0  0
 45 91  1  0  0  0  0
 46 47  2  0  0  0  0
 46 92  1  0  0  0  0
 47 93  1  0  0  0  0
M  END
> <PUBCHEM_COMPOUND_CID>
501839
> <PUBCHEM_COMPOUND_CANONICALIZED>
1
> <PUBCHEM_CACTVS_COMPLEXITY>
1060
> <PUBCHEM_CACTVS_HBOND_ACCEPTOR>
7
> <PUBCHEM_CACTVS_HBOND_DONOR>
4
> <PUBCHEM_CACTVS_ROTATABLE_BOND>
14
> <PUBCHEM_CACTVS_SUBSKEYS>
AAADcfB/uABAAAAAAAAAAAAAAAAAAWAAAAAwYMAAAAAAAADBVAAAHgQQCAAADbzl2AayBsPABgiIAiFSEAICCABgIBAIiIHOCIgOdjqk8T+XeCCk1hGYqAeYyLCOgAABAAAYAAAAAAIAADAAAAAAAAAAAA==
> <PUBCHEM_IUPAC_OPENEYE_NAME>
(4R)-N-tert-butyl-3-[(2S,3S)-2-hydroxy-3-[[(2S,3R)-3-methyl-2-[[2-(1-naphthyloxy)acetyl]amino]pentanoyl]amino]-4-phenyl-butanoyl]thiazolidine-4-carboxamide
> <PUBCHEM_IUPAC_CAS_NAME>
(4R)-N-tert-butyl-3-[(2S,3S)-2-hydroxy-3-[[(2S,3R)-3-methyl-2-[[2-(1-naphthalenyloxy)-1-oxoethyl]amino]-1-oxopentyl]amino]-1-oxo-4-phenylbutyl]-4-thiazolidinecarboxamide
> <PUBCHEM_IUPAC_NAME_MARKUP>
(4<I>R</I>)-<I>N</I>-<I>tert</I>-butyl-3-[(2<I>S</I>,3<I>S</I>)-2-hydroxy-3-[[(2<I>S</I>,3<I>R</I>)-3-methyl-2-[(2-naphthalen-1-yloxyacetyl)amino]pentanoyl]amino]-4-phenylbutanoyl]-1,3-thiazolidine-4-carboxamide
> <PUBCHEM_IUPAC_NAME>
(4R)-N-tert-butyl-3-[(2S,3S)-2-hydroxy-3-[[(2S,3R)-3-methyl-2-[(2-naphthalen-1-yloxyacetyl)amino]pentanoyl]amino]-4-phenylbutanoyl]-1,3-thiazolidine-4-carboxamide
> <PUBCHEM_IUPAC_SYSTEMATIC_NAME>
(4R)-N-tert-butyl-3-[(2S,3S)-3-[[(2S,3R)-3-methyl-2-(2-naphthalen-1-yloxyethanoylamino)pentanoyl]amino]-2-oxidanyl-4-phenyl-butanoyl]-1,3-thiazolidine-4-carboxamide
> <PUBCHEM_IUPAC_TRADITIONAL_NAME>
(4R)-N-tert-butyl-3-[(2S,3S)-2-hydroxy-3-[[(2S,3R)-3-methyl-2-[[2-(1-naphthoxy)acetyl]amino]pentanoyl]amino]-4-phenyl-butanoyl]thiazolidine-4-carboxamide
> <PUBCHEM_IUPAC_INCHI>
InChI=1S/C36H46N4O6S/c1-6-23(2)31(38-30(41)20-46-29-18-12-16-25-15-10-11-17-26(25)29)34(44)37-27(19-24-13-8-7-9-14-24)32(42)35(45)40-22-47-21-28(40)33(43)39-36(3,4)5/h7-18,23,27-28,31-32,42H,6,19-22H2,1-5H3,(H,37,44)(H,38,41)(H,39,43)/t23-,27+,28+,31+,32+/m1/s1
> <PUBCHEM_IUPAC_INCHIKEY>
BNYCROMRZBHHON-NATQRSSTSA-N
> <PUBCHEM_XLOGP3_AA>
5.3
> <PUBCHEM_EXACT_MASS>
662.31380637
> <PUBCHEM_MOLECULAR_FORMULA>
C36H46N4O6S
> <PUBCHEM_MOLECULAR_WEIGHT>
662.8
> <PUBCHEM_OPENEYE_CAN_SMILES>
CCC(C)C(C(=O)NC(CC1=CC=CC=C1)C(C(=O)N2CSCC2C(=O)NC(C)(C)C)O)NC(=O)COC3=CC=CC4=CC=CC=C43
> <PUBCHEM_OPENEYE_ISO_SMILES>
CC[C@@H](C)[C@@H](C(=O)N[C@@H](CC1=CC=CC=C1)[C@@H](C(=O)N2CSC[C@H]2C(=O)NC(C)(C)C)O)NC(=O)COC3=CC=CC4=CC=CC=C43
> <PUBCHEM_CACTVS_TPSA>
162
> <PUBCHEM_MONOISOTOPIC_WEIGHT>
662.31380637
> <PUBCHEM_TOTAL_CHARGE>
0
> <PUBCHEM_HEAVY_ATOM_COUNT>
47
> <PUBCHEM_ATOM_DEF_STEREO_COUNT>
5
> <PUBCHEM_ATOM_UDEF_STEREO_COUNT>
0
> <PUBCHEM_BOND_DEF_STEREO_COUNT>
0
> <PUBCHEM_BOND_UDEF_STEREO_COUNT>
0
> <PUBCHEM_ISOTOPIC_ATOM_COUNT>
0
> <PUBCHEM_COMPONENT_COUNT>
1
> <PUBCHEM_CACTVS_TAUTO_COUNT>
-1
> <PUBCHEM_COORDINATE_TYPE>
1
5
255
> <PUBCHEM_BONDANNOTATIONS>
15  11  5
12  21  6
16  25  6
14  2  5
26  31  8
26  32  8
31  34  8
32  35  8
34  37  8
35  37  8
38  39  8
38  40  8
39  41  8
39  42  8
40  43  8
41  44  8
41  45  8
42  46  8
43  44  8
45  47  8
46  47  8
13  9  6
$$$$
