501862
  -OEChem-10302200282D
 83 85  0     1  0  0  0  0  0999 V2000
    6.9053    3.7439    0.0000 S   0  0  0  0  0  0  0  0  0  0  0  0
    8.1374    1.2050    0.0000 O   0  0  0  0  0  0  0  0  0  0  0  0
    5.5393    0.7050    0.0000 O   0  0  0  0  0  0  0  0  0  0  0  0
    4.4374    1.5056    0.0000 O   0  0  0  0  0  0  0  0  0  0  0  0
    9.0034    0.7050    0.0000 O   0  0  0  0  0  0  0  0  0  0  0  0
   11.6015   -1.7950    0.0000 O   0  0  0  0  0  0  0  0  0  0  0  0
   13.3335   -0.7950    0.0000 O   0  0  0  0  0  0  0  0  0  0  0  0
    6.4053    2.2050    0.0000 N   0  0  0  0  0  0  0  0  0  0  0  0
    8.1374   -0.7950    0.0000 N   0  0  0  0  0  0  0  0  0  0  0  0
    3.9021    3.1529    0.0000 N   0  0  0  0  0  0  0  0  0  0  0  0
   10.7355   -0.2950    0.0000 N   0  0  0  0  0  0  0  0  0  0  0  0
   15.0656    1.2050    0.0000 N   0  0  0  0  0  0  0  0  0  0  0  0
    5.5963    2.7928    0.0000 C   0  0  1  0  0  0  0  0  0  0  0  0
    7.2714   -0.2950    0.0000 C   0  0  2  0  0  0  0  0  0  0  0  0
    7.2714    0.7050    0.0000 C   0  0  1  0  0  0  0  0  0  0  0  0
    5.9053    3.7439    0.0000 C   0  0  0  0  0  0  0  0  0  0  0  0
    6.4053    1.2050    0.0000 C   0  0  0  0  0  0  0  0  0  0  0  0
    7.2144    2.7928    0.0000 C   0  0  0  0  0  0  0  0  0  0  0  0
    6.4053   -0.7950    0.0000 C   0  0  0  0  0  0  0  0  0  0  0  0
    4.6453    2.4838    0.0000 C   0  0  0  0  0  0  0  0  0  0  0  0
    2.9511    2.8439    0.0000 C   0  0  0  0  0  0  0  0  0  0  0  0
    9.8694   -0.7950    0.0000 C   0  0  1  0  0  0  0  0  0  0  0  0
    9.8694   -1.7950    0.0000 C   0  0  0  0  0  0  0  0  0  0  0  0
    9.0034   -0.2950    0.0000 C   0  0  0  0  0  0  0  0  0  0  0  0
    6.4053   -1.7950    0.0000 C   0  0  0  0  0  0  0  0  0  0  0  0
    2.0000    2.5349    0.0000 C   0  0  0  0  0  0  0  0  0  0  0  0
    2.6420    3.7950    0.0000 C   0  0  0  0  0  0  0  0  0  0  0  0
    3.2601    1.8929    0.0000 C   0  0  0  0  0  0  0  0  0  0  0  0
   10.7355   -2.2950    0.0000 C   0  0  0  0  0  0  0  0  0  0  0  0
    9.0034   -2.2950    0.0000 C   0  0  0  0  0  0  0  0  0  0  0  0
    7.2714   -2.2950    0.0000 C   0  0  0  0  0  0  0  0  0  0  0  0
    5.5393   -2.2950    0.0000 C   0  0  0  0  0  0  0  0  0  0  0  0
   11.6015   -0.7950    0.0000 C   0  0  0  0  0  0  0  0  0  0  0  0
    7.2714   -3.2950    0.0000 C   0  0  0  0  0  0  0  0  0  0  0  0
    5.5393   -3.2950    0.0000 C   0  0  0  0  0  0  0  0  0  0  0  0
    6.4053   -3.7950    0.0000 C   0  0  0  0  0  0  0  0  0  0  0  0
   12.4675   -0.2950    0.0000 C   0  0  0  0  0  0  0  0  0  0  0  0
   14.1996   -0.2950    0.0000 C   0  0  0  0  0  0  0  0  0  0  0  0
   15.0656   -0.7950    0.0000 C   0  0  0  0  0  0  0  0  0  0  0  0
   14.1996    0.7050    0.0000 C   0  0  0  0  0  0  0  0  0  0  0  0
   15.9316   -0.2950    0.0000 C   0  0  0  0  0  0  0  0  0  0  0  0
   15.9316    0.7050    0.0000 C   0  0  0  0  0  0  0  0  0  0  0  0
    5.4993    2.1804    0.0000 H   0  0  0  0  0  0  0  0  0  0  0  0
    7.2714   -0.9150    0.0000 H   0  0  0  0  0  0  0  0  0  0  0  0
    7.2714    1.3250    0.0000 H   0  0  0  0  0  0  0  0  0  0  0  0
    5.9701    4.3605    0.0000 H   0  0  0  0  0  0  0  0  0  0  0  0
    5.2989    3.8728    0.0000 H   0  0  0  0  0  0  0  0  0  0  0  0
    7.5244    2.2559    0.0000 H   0  0  0  0  0  0  0  0  0  0  0  0
    7.7808    3.0450    0.0000 H   0  0  0  0  0  0  0  0  0  0  0  0
    6.1933   -0.2124    0.0000 H   0  0  0  0  0  0  0  0  0  0  0  0
    5.7947   -0.9026    0.0000 H   0  0  0  0  0  0  0  0  0  0  0  0
    8.1374   -1.4150    0.0000 H   0  0  0  0  0  0  0  0  0  0  0  0
   10.4064   -1.1050    0.0000 H   0  0  0  0  0  0  0  0  0  0  0  0
    9.8694   -2.4150    0.0000 H   0  0  0  0  0  0  0  0  0  0  0  0
    4.0310    3.7594    0.0000 H   0  0  0  0  0  0  0  0  0  0  0  0
    1.8084    3.1246    0.0000 H   0  0  0  0  0  0  0  0  0  0  0  0
    1.4103    2.3433    0.0000 H   0  0  0  0  0  0  0  0  0  0  0  0
    2.1916    1.9452    0.0000 H   0  0  0  0  0  0  0  0  0  0  0  0
    3.2317    3.9866    0.0000 H   0  0  0  0  0  0  0  0  0  0  0  0
    2.4504    4.3846    0.0000 H   0  0  0  0  0  0  0  0  0  0  0  0
    2.0524    3.6034    0.0000 H   0  0  0  0  0  0  0  0  0  0  0  0
    2.6704    1.7013    0.0000 H   0  0  0  0  0  0  0  0  0  0  0  0
    3.4517    1.3032    0.0000 H   0  0  0  0  0  0  0  0  0  0  0  0
    3.8497    2.0844    0.0000 H   0  0  0  0  0  0  0  0  0  0  0  0
    8.1374    1.8250    0.0000 H   0  0  0  0  0  0  0  0  0  0  0  0
   10.7355    0.3250    0.0000 H   0  0  0  0  0  0  0  0  0  0  0  0
   10.4255   -2.8319    0.0000 H   0  0  0  0  0  0  0  0  0  0  0  0
   11.2724   -2.6050    0.0000 H   0  0  0  0  0  0  0  0  0  0  0  0
   11.0455   -1.7580    0.0000 H   0  0  0  0  0  0  0  0  0  0  0  0
    8.6934   -1.7580    0.0000 H   0  0  0  0  0  0  0  0  0  0  0  0
    8.4665   -2.6050    0.0000 H   0  0  0  0  0  0  0  0  0  0  0  0
    9.3134   -2.8319    0.0000 H   0  0  0  0  0  0  0  0  0  0  0  0
    7.8083   -1.9850    0.0000 H   0  0  0  0  0  0  0  0  0  0  0  0
    5.0024   -1.9850    0.0000 H   0  0  0  0  0  0  0  0  0  0  0  0
    7.8083   -3.6050    0.0000 H   0  0  0  0  0  0  0  0  0  0  0  0
    5.0024   -3.6050    0.0000 H   0  0  0  0  0  0  0  0  0  0  0  0
    6.4053   -4.4150    0.0000 H   0  0  0  0  0  0  0  0  0  0  0  0
   12.8660    0.1800    0.0000 H   0  0  0  0  0  0  0  0  0  0  0  0
   12.0690    0.1800    0.0000 H   0  0  0  0  0  0  0  0  0  0  0  0
   15.0656   -1.4150    0.0000 H   0  0  0  0  0  0  0  0  0  0  0  0
   13.6626    1.0150    0.0000 H   0  0  0  0  0  0  0  0  0  0  0  0
   16.4685   -0.6050    0.0000 H   0  0  0  0  0  0  0  0  0  0  0  0
   16.4685    1.0150    0.0000 H   0  0  0  0  0  0  0  0  0  0  0  0
  1 16  1  0  0  0  0
  1 18  1  0  0  0  0
 15  2  1  1  0  0  0
  2 65  1  0  0  0  0
  3 17  2  0  0  0  0
  4 20  2  0  0  0  0
  5 24  2  0  0  0  0
  6 33  2  0  0  0  0
  7 37  1  0  0  0  0
  7 38  1  0  0  0  0
  8 13  1  0  0  0  0
  8 17  1  0  0  0  0
  8 18  1  0  0  0  0
 14  9  1  1  0  0  0
  9 24  1  0  0  0  0
  9 52  1  0  0  0  0
 10 20  1  0  0  0  0
 10 21  1  0  0  0  0
 10 55  1  0  0  0  0
 22 11  1  1  0  0  0
 11 33  1  0  0  0  0
 11 66  1  0  0  0  0
 12 40  1  0  0  0  0
 12 42  2  0  0  0  0
 13 16  1  0  0  0  0
 13 20  1  6  0  0  0
 13 43  1  0  0  0  0
 14 15  1  0  0  0  0
 14 19  1  0  0  0  0
 14 44  1  0  0  0  0
 15 17  1  0  0  0  0
 15 45  1  0  0  0  0
 16 46  1  0  0  0  0
 16 47  1  0  0  0  0
 18 48  1  0  0  0  0
 18 49  1  0  0  0  0
 19 25  1  0  0  0  0
 19 50  1  0  0  0  0
 19 51  1  0  0  0  0
 21 26  1  0  0  0  0
 21 27  1  0  0  0  0
 21 28  1  0  0  0  0
 22 23  1  0  0  0  0
 22 24  1  0  0  0  0
 22 53  1  0  0  0  0
 23 29  1  0  0  0  0
 23 30  1  0  0  0  0
 23 54  1  0  0  0  0
 25 31  2  0  0  0  0
 25 32  1  0  0  0  0
 26 56  1  0  0  0  0
 26 57  1  0  0  0  0
 26 58  1  0  0  0  0
 27 59  1  0  0  0  0
 27 60  1  0  0  0  0
 27 61  1  0  0  0  0
 28 62  1  0  0  0  0
 28 63  1  0  0  0  0
 28 64  1  0  0  0  0
 29 67  1  0  0  0  0
 29 68  1  0  0  0  0
 29 69  1  0  0  0  0
 30 70  1  0  0  0  0
 30 71  1  0  0  0  0
 30 72  1  0  0  0  0
 31 34  1  0  0  0  0
 31 73  1  0  0  0  0
 32 35  2  0  0  0  0
 32 74  1  0  0  0  0
 33 37  1  0  0  0  0
 34 36  2  0  0  0  0
 34 75  1  0  0  0  0
 35 36  1  0  0  0  0
 35 76  1  0  0  0  0
 36 77  1  0  0  0  0
 37 78  1  0  0  0  0
 37 79  1  0  0  0  0
 38 39  1  0  0  0  0
 38 40  2  0  0  0  0
 39 41  2  0  0  0  0
 39 80  1  0  0  0  0
 40 81  1  0  0  0  0
 41 42  1  0  0  0  0
 41 82  1  0  0  0  0
 42 83  1  0  0  0  0
M  END
> <PUBCHEM_COMPOUND_CID>
501862
> <PUBCHEM_COMPOUND_CANONICALIZED>
1
> <PUBCHEM_CACTVS_COMPLEXITY>
922
> <PUBCHEM_CACTVS_HBOND_ACCEPTOR>
8
> <PUBCHEM_CACTVS_HBOND_DONOR>
4
> <PUBCHEM_CACTVS_ROTATABLE_BOND>
13
> <PUBCHEM_CACTVS_SUBSKEYS>
AAADcfB7uABAAAAAAAAAAAAAAAAAAWAAAAA8QAAAAAAAAAABwAAAHgQQCAAADbzl2ga+hpPIFgioAjF3VAaCiCBxYjAI2KH/bJgOdvrk8b+XeCjk1hHY6Ae4yKCOAAAAAAAAAAAAAAAAAAAAAAAAAAAAAA==
> <PUBCHEM_IUPAC_OPENEYE_NAME>
(4R)-N-tert-butyl-3-[(2S,3S)-2-hydroxy-3-[[(2S)-3-methyl-2-[[2-(3-pyridyloxy)acetyl]amino]butanoyl]amino]-4-phenyl-butanoyl]thiazolidine-4-carboxamide
> <PUBCHEM_IUPAC_CAS_NAME>
(4R)-N-tert-butyl-3-[(2S,3S)-2-hydroxy-3-[[(2S)-3-methyl-1-oxo-2-[[1-oxo-2-(3-pyridinyloxy)ethyl]amino]butyl]amino]-1-oxo-4-phenylbutyl]-4-thiazolidinecarboxamide
> <PUBCHEM_IUPAC_NAME_MARKUP>
(4<I>R</I>)-<I>N</I>-<I>tert</I>-butyl-3-[(2<I>S</I>,3<I>S</I>)-2-hydroxy-3-[[(2<I>S</I>)-3-methyl-2-[(2-pyridin-3-yloxyacetyl)amino]butanoyl]amino]-4-phenylbutanoyl]-1,3-thiazolidine-4-carboxamide
> <PUBCHEM_IUPAC_NAME>
(4R)-N-tert-butyl-3-[(2S,3S)-2-hydroxy-3-[[(2S)-3-methyl-2-[(2-pyridin-3-yloxyacetyl)amino]butanoyl]amino]-4-phenylbutanoyl]-1,3-thiazolidine-4-carboxamide
> <PUBCHEM_IUPAC_SYSTEMATIC_NAME>
(4R)-N-tert-butyl-3-[(2S,3S)-3-[[(2S)-3-methyl-2-(2-pyridin-3-yloxyethanoylamino)butanoyl]amino]-2-oxidanyl-4-phenyl-butanoyl]-1,3-thiazolidine-4-carboxamide
> <PUBCHEM_IUPAC_TRADITIONAL_NAME>
(4R)-N-tert-butyl-3-[(2S,3S)-2-hydroxy-3-[[(2S)-3-methyl-2-[[2-(3-pyridyloxy)acetyl]amino]butanoyl]amino]-4-phenyl-butanoyl]thiazolidine-4-carboxamide
> <PUBCHEM_IUPAC_INCHI>
InChI=1S/C30H41N5O6S/c1-19(2)25(33-24(36)16-41-21-12-9-13-31-15-21)28(39)32-22(14-20-10-7-6-8-11-20)26(37)29(40)35-18-42-17-23(35)27(38)34-30(3,4)5/h6-13,15,19,22-23,25-26,37H,14,16-18H2,1-5H3,(H,32,39)(H,33,36)(H,34,38)/t22-,23-,25-,26-/m0/s1
> <PUBCHEM_IUPAC_INCHIKEY>
GHLLJXMBYFIGKX-LCGRTSHQSA-N
> <PUBCHEM_XLOGP3_AA>
2.7
> <PUBCHEM_EXACT_MASS>
599.27775522
> <PUBCHEM_MOLECULAR_FORMULA>
C30H41N5O6S
> <PUBCHEM_MOLECULAR_WEIGHT>
599.7
> <PUBCHEM_OPENEYE_CAN_SMILES>
CC(C)C(C(=O)NC(CC1=CC=CC=C1)C(C(=O)N2CSCC2C(=O)NC(C)(C)C)O)NC(=O)COC3=CN=CC=C3
> <PUBCHEM_OPENEYE_ISO_SMILES>
CC(C)[C@@H](C(=O)N[C@@H](CC1=CC=CC=C1)[C@@H](C(=O)N2CSC[C@H]2C(=O)NC(C)(C)C)O)NC(=O)COC3=CN=CC=C3
> <PUBCHEM_CACTVS_TPSA>
175
> <PUBCHEM_MONOISOTOPIC_WEIGHT>
599.27775522
> <PUBCHEM_TOTAL_CHARGE>
0
> <PUBCHEM_HEAVY_ATOM_COUNT>
42
> <PUBCHEM_ATOM_DEF_STEREO_COUNT>
4
> <PUBCHEM_ATOM_UDEF_STEREO_COUNT>
0
> <PUBCHEM_BOND_DEF_STEREO_COUNT>
0
> <PUBCHEM_BOND_UDEF_STEREO_COUNT>
0
> <PUBCHEM_ISOTOPIC_ATOM_COUNT>
0
> <PUBCHEM_COMPONENT_COUNT>
1
> <PUBCHEM_CACTVS_TAUTO_COUNT>
-1
> <PUBCHEM_COORDINATE_TYPE>
1
5
255
> <PUBCHEM_BONDANNOTATIONS>
22  11  5
12  40  8
12  42  8
13  20  6
15  2  5
25  31  8
25  32  8
31  34  8
32  35  8
34  36  8
35  36  8
38  39  8
38  40  8
39  41  8
41  42  8
14  9  5
$$$$
