501830
  -OEChem-10302200282D
 99102  0     1  0  0  0  0  0999 V2000
   11.3557   -2.7673    0.0000 S   0  0  0  0  0  0  0  0  0  0  0  0
    3.5823    0.4645    0.0000 O   0  0  0  0  0  0  0  0  0  0  0  0
    6.1595   -1.7673    0.0000 O   0  0  0  0  0  0  0  0  0  0  0  0
    7.8916    0.2327    0.0000 O   0  0  0  0  0  0  0  0  0  0  0  0
    7.7492    1.5873    0.0000 O   0  0  0  0  0  0  0  0  0  0  0  0
    9.6236   -2.7673    0.0000 O   0  0  0  0  0  0  0  0  0  0  0  0
   12.3557   -2.7673    0.0000 O   0  0  0  0  0  0  0  0  0  0  0  0
   10.3557   -2.7673    0.0000 O   0  0  0  0  0  0  0  0  0  0  0  0
   12.2217   -0.2673    0.0000 O   0  0  0  0  0  0  0  0  0  0  0  0
   12.2217    1.7327    0.0000 O   0  0  0  0  0  0  0  0  0  0  0  0
    6.1595    0.2327    0.0000 N   0  0  0  0  0  0  0  0  0  0  0  0
    6.5902    2.8745    0.0000 N   0  0  0  0  0  0  0  0  0  0  0  0
    8.7576   -1.2673    0.0000 N   0  0  0  0  0  0  0  0  0  0  0  0
   10.4896   -0.2673    0.0000 N   0  0  0  0  0  0  0  0  0  0  0  0
    6.0550    1.2272    0.0000 C   0  0  1  0  0  0  0  0  0  0  0  0
    4.5768    0.5691    0.0000 C   0  0  3  0  0  0  0  0  0  0  0  0
    5.0768    1.4351    0.0000 C   0  0  0  0  0  0  0  0  0  0  0  0
    5.2460   -0.1741    0.0000 C   0  0  0  0  0  0  0  0  0  0  0  0
    7.0255   -0.2673    0.0000 C   0  0  0  0  0  0  0  0  0  0  0  0
    6.7981    1.8963    0.0000 C   0  0  0  0  0  0  0  0  0  0  0  0
    7.0255   -1.2673    0.0000 C   0  0  2  0  0  0  0  0  0  0  0  0
    7.8916   -1.7673    0.0000 C   0  0  2  0  0  0  0  0  0  0  0  0
    5.6392    3.1835    0.0000 C   0  0  0  0  0  0  0  0  0  0  0  0
    7.8916   -2.7673    0.0000 C   0  0  0  0  0  0  0  0  0  0  0  0
    2.9945    1.2736    0.0000 C   0  0  0  0  0  0  0  0  0  0  0  0
    4.6881    3.4925    0.0000 C   0  0  0  0  0  0  0  0  0  0  0  0
    5.9482    4.1345    0.0000 C   0  0  0  0  0  0  0  0  0  0  0  0
    5.3301    2.2324    0.0000 C   0  0  0  0  0  0  0  0  0  0  0  0
    7.0255   -3.2673    0.0000 C   0  0  0  0  0  0  0  0  0  0  0  0
    2.0000    1.1690    0.0000 C   0  0  0  0  0  0  0  0  0  0  0  0
    9.6236   -1.7673    0.0000 C   0  0  0  0  0  0  0  0  0  0  0  0
   10.4896   -1.2673    0.0000 C   0  0  2  0  0  0  0  0  0  0  0  0
   11.3557   -1.7673    0.0000 C   0  0  0  0  0  0  0  0  0  0  0  0
    6.1595   -2.7673    0.0000 C   0  0  0  0  0  0  0  0  0  0  0  0
    7.0255   -4.2673    0.0000 C   0  0  0  0  0  0  0  0  0  0  0  0
    5.2935   -3.2673    0.0000 C   0  0  0  0  0  0  0  0  0  0  0  0
    6.1595   -4.7673    0.0000 C   0  0  0  0  0  0  0  0  0  0  0  0
    5.2935   -4.2673    0.0000 C   0  0  0  0  0  0  0  0  0  0  0  0
   11.3557   -3.7673    0.0000 C   0  0  0  0  0  0  0  0  0  0  0  0
   11.3557    0.2327    0.0000 C   0  0  0  0  0  0  0  0  0  0  0  0
   11.3557    1.2327    0.0000 C   0  0  0  0  0  0  0  0  0  0  0  0
   12.2217    2.7327    0.0000 C   0  0  0  0  0  0  0  0  0  0  0  0
   13.0877    3.2327    0.0000 C   0  0  0  0  0  0  0  0  0  0  0  0
   11.3557    3.2327    0.0000 C   0  0  0  0  0  0  0  0  0  0  0  0
   13.0877    4.2327    0.0000 C   0  0  0  0  0  0  0  0  0  0  0  0
   13.9817    2.6980    0.0000 C   0  0  0  0  0  0  0  0  0  0  0  0
   11.3557    4.2327    0.0000 C   0  0  0  0  0  0  0  0  0  0  0  0
   12.2217    4.7327    0.0000 C   0  0  0  0  0  0  0  0  0  0  0  0
   13.9817    4.7673    0.0000 C   0  0  0  0  0  0  0  0  0  0  0  0
   14.8877    3.2118    0.0000 C   0  0  0  0  0  0  0  0  0  0  0  0
   14.8877    4.2535    0.0000 C   0  0  0  0  0  0  0  0  0  0  0  0
    6.6338    1.0050    0.0000 H   0  0  0  0  0  0  0  0  0  0  0  0
    4.3546   -0.0097    0.0000 H   0  0  0  0  0  0  0  0  0  0  0  0
    5.2684    2.0248    0.0000 H   0  0  0  0  0  0  0  0  0  0  0  0
    4.5104    1.6873    0.0000 H   0  0  0  0  0  0  0  0  0  0  0  0
    4.7444   -0.5385    0.0000 H   0  0  0  0  0  0  0  0  0  0  0  0
    5.5560   -0.7110    0.0000 H   0  0  0  0  0  0  0  0  0  0  0  0
    7.0255   -1.8873    0.0000 H   0  0  0  0  0  0  0  0  0  0  0  0
    7.8916   -1.1473    0.0000 H   0  0  0  0  0  0  0  0  0  0  0  0
    7.0510    3.2893    0.0000 H   0  0  0  0  0  0  0  0  0  0  0  0
    8.1036   -3.3499    0.0000 H   0  0  0  0  0  0  0  0  0  0  0  0
    8.5021   -2.6597    0.0000 H   0  0  0  0  0  0  0  0  0  0  0  0
    3.5518    1.5454    0.0000 H   0  0  0  0  0  0  0  0  0  0  0  0
    2.8236    1.8696    0.0000 H   0  0  0  0  0  0  0  0  0  0  0  0
    8.7576   -0.6473    0.0000 H   0  0  0  0  0  0  0  0  0  0  0  0
    4.8797    4.0822    0.0000 H   0  0  0  0  0  0  0  0  0  0  0  0
    4.0984    3.6841    0.0000 H   0  0  0  0  0  0  0  0  0  0  0  0
    4.4965    2.9028    0.0000 H   0  0  0  0  0  0  0  0  0  0  0  0
    6.5378    3.9430    0.0000 H   0  0  0  0  0  0  0  0  0  0  0  0
    6.1398    4.7242    0.0000 H   0  0  0  0  0  0  0  0  0  0  0  0
    5.3585    4.3261    0.0000 H   0  0  0  0  0  0  0  0  0  0  0  0
    4.7405    2.4240    0.0000 H   0  0  0  0  0  0  0  0  0  0  0  0
    5.1386    1.6428    0.0000 H   0  0  0  0  0  0  0  0  0  0  0  0
    5.9198    2.0408    0.0000 H   0  0  0  0  0  0  0  0  0  0  0  0
    5.6226   -1.4573    0.0000 H   0  0  0  0  0  0  0  0  0  0  0  0
    1.9352    1.7856    0.0000 H   0  0  0  0  0  0  0  0  0  0  0  0
    1.3834    1.1042    0.0000 H   0  0  0  0  0  0  0  0  0  0  0  0
    2.0648    0.5524    0.0000 H   0  0  0  0  0  0  0  0  0  0  0  0
    9.9527   -0.9573    0.0000 H   0  0  0  0  0  0  0  0  0  0  0  0
   11.9662   -1.8750    0.0000 H   0  0  0  0  0  0  0  0  0  0  0  0
   11.5677   -1.1847    0.0000 H   0  0  0  0  0  0  0  0  0  0  0  0
    6.1595   -2.1473    0.0000 H   0  0  0  0  0  0  0  0  0  0  0  0
    7.5625   -4.5773    0.0000 H   0  0  0  0  0  0  0  0  0  0  0  0
    9.9527    0.0427    0.0000 H   0  0  0  0  0  0  0  0  0  0  0  0
    4.7565   -2.9573    0.0000 H   0  0  0  0  0  0  0  0  0  0  0  0
    6.1595   -5.3873    0.0000 H   0  0  0  0  0  0  0  0  0  0  0  0
    4.7565   -4.5773    0.0000 H   0  0  0  0  0  0  0  0  0  0  0  0
   10.7357   -3.7673    0.0000 H   0  0  0  0  0  0  0  0  0  0  0  0
   11.3557   -4.3873    0.0000 H   0  0  0  0  0  0  0  0  0  0  0  0
   11.9757   -3.7673    0.0000 H   0  0  0  0  0  0  0  0  0  0  0  0
   11.1436    1.8153    0.0000 H   0  0  0  0  0  0  0  0  0  0  0  0
   10.7451    1.1250    0.0000 H   0  0  0  0  0  0  0  0  0  0  0  0
   10.8187    2.9227    0.0000 H   0  0  0  0  0  0  0  0  0  0  0  0
   13.9745    2.0780    0.0000 H   0  0  0  0  0  0  0  0  0  0  0  0
   10.8187    4.5427    0.0000 H   0  0  0  0  0  0  0  0  0  0  0  0
   12.2217    5.3527    0.0000 H   0  0  0  0  0  0  0  0  0  0  0  0
   13.9745    5.3873    0.0000 H   0  0  0  0  0  0  0  0  0  0  0  0
   15.4235    2.8998    0.0000 H   0  0  0  0  0  0  0  0  0  0  0  0
   15.4235    4.5656    0.0000 H   0  0  0  0  0  0  0  0  0  0  0  0
  1  7  2  0  0  0  0
  1  8  2  0  0  0  0
  1 33  1  0  0  0  0
  1 39  1  0  0  0  0
  2 16  1  0  0  0  0
  2 25  1  0  0  0  0
 21  3  1  6  0  0  0
  3 75  1  0  0  0  0
  4 19  2  0  0  0  0
  5 20  2  0  0  0  0
  6 31  2  0  0  0  0
  9 40  2  0  0  0  0
 10 41  1  0  0  0  0
 10 42  1  0  0  0  0
 11 15  1  0  0  0  0
 11 18  1  0  0  0  0
 11 19  1  0  0  0  0
 12 20  1  0  0  0  0
 12 23  1  0  0  0  0
 12 60  1  0  0  0  0
 22 13  1  1  0  0  0
 13 31  1  0  0  0  0
 13 65  1  0  0  0  0
 32 14  1  1  0  0  0
 14 40  1  0  0  0  0
 14 84  1  0  0  0  0
 15 17  1  0  0  0  0
 15 20  1  1  0  0  0
 15 52  1  0  0  0  0
 16 17  1  0  0  0  0
 16 18  1  0  0  0  0
 16 53  1  0  0  0  0
 17 54  1  0  0  0  0
 17 55  1  0  0  0  0
 18 56  1  0  0  0  0
 18 57  1  0  0  0  0
 19 21  1  0  0  0  0
 21 22  1  0  0  0  0
 21 58  1  0  0  0  0
 22 24  1  0  0  0  0
 22 59  1  0  0  0  0
 23 26  1  0  0  0  0
 23 27  1  0  0  0  0
 23 28  1  0  0  0  0
 24 29  1  0  0  0  0
 24 61  1  0  0  0  0
 24 62  1  0  0  0  0
 25 30  1  0  0  0  0
 25 63  1  0  0  0  0
 25 64  1  0  0  0  0
 26 66  1  0  0  0  0
 26 67  1  0  0  0  0
 26 68  1  0  0  0  0
 27 69  1  0  0  0  0
 27 70  1  0  0  0  0
 27 71  1  0  0  0  0
 28 72  1  0  0  0  0
 28 73  1  0  0  0  0
 28 74  1  0  0  0  0
 29 34  2  0  0  0  0
 29 35  1  0  0  0  0
 30 76  1  0  0  0  0
 30 77  1  0  0  0  0
 30 78  1  0  0  0  0
 31 32  1  0  0  0  0
 32 33  1  0  0  0  0
 32 79  1  0  0  0  0
 33 80  1  0  0  0  0
 33 81  1  0  0  0  0
 34 36  1  0  0  0  0
 34 82  1  0  0  0  0
 35 37  2  0  0  0  0
 35 83  1  0  0  0  0
 36 38  2  0  0  0  0
 36 85  1  0  0  0  0
 37 38  1  0  0  0  0
 37 86  1  0  0  0  0
 38 87  1  0  0  0  0
 39 88  1  0  0  0  0
 39 89  1  0  0  0  0
 39 90  1  0  0  0  0
 40 41  1  0  0  0  0
 41 91  1  0  0  0  0
 41 92  1  0  0  0  0
 42 43  1  0  0  0  0
 42 44  2  0  0  0  0
 43 45  1  0  0  0  0
 43 46  2  0  0  0  0
 44 47  1  0  0  0  0
 44 93  1  0  0  0  0
 45 48  1  0  0  0  0
 45 49  2  0  0  0  0
 46 50  1  0  0  0  0
 46 94  1  0  0  0  0
 47 48  2  0  0  0  0
 47 95  1  0  0  0  0
 48 96  1  0  0  0  0
 49 51  1  0  0  0  0
 49 97  1  0  0  0  0
 50 51  2  0  0  0  0
 50 98  1  0  0  0  0
 51 99  1  0  0  0  0
M  END
> <PUBCHEM_COMPOUND_CID>
501830
> <PUBCHEM_COMPOUND_CANONICALIZED>
1
> <PUBCHEM_CACTVS_COMPLEXITY>
1290
> <PUBCHEM_CACTVS_HBOND_ACCEPTOR>
9
> <PUBCHEM_CACTVS_HBOND_DONOR>
4
> <PUBCHEM_CACTVS_ROTATABLE_BOND>
16
> <PUBCHEM_CACTVS_SUBSKEYS>
AAADcfB/vABAAAAAAAAAAAAAAAAAAWAAAAAwYMAAAAAAAADBVAAAHgQQCAAADLzl2AayBsPABgqIAiFSEHJCCAAgIBAIiIHOCIgOdjqk8T+XeCCm1hGYqAe6ybCOgAABAAAYAAAAAAIAADAAAAAAAAAAAA==
> <PUBCHEM_IUPAC_OPENEYE_NAME>
(2S)-N-tert-butyl-4-ethoxy-1-[(2S,3S)-2-hydroxy-3-[[(2R)-3-methylsulfonyl-2-[[2-(1-naphthyloxy)acetyl]amino]propanoyl]amino]-4-phenyl-butanoyl]pyrrolidine-2-carboxamide
> <PUBCHEM_IUPAC_CAS_NAME>
(2S)-N-tert-butyl-4-ethoxy-1-[(2S,3S)-2-hydroxy-3-[[(2R)-3-methylsulfonyl-2-[[2-(1-naphthalenyloxy)-1-oxoethyl]amino]-1-oxopropyl]amino]-1-oxo-4-phenylbutyl]-2-pyrrolidinecarboxamide
> <PUBCHEM_IUPAC_NAME_MARKUP>
(2<I>S</I>)-<I>N</I>-<I>tert</I>-butyl-4-ethoxy-1-[(2<I>S</I>,3<I>S</I>)-2-hydroxy-3-[[(2<I>R</I>)-3-methylsulfonyl-2-[(2-naphthalen-1-yloxyacetyl)amino]propanoyl]amino]-4-phenylbutanoyl]pyrrolidine-2-carboxamide
> <PUBCHEM_IUPAC_NAME>
(2S)-N-tert-butyl-4-ethoxy-1-[(2S,3S)-2-hydroxy-3-[[(2R)-3-methylsulfonyl-2-[(2-naphthalen-1-yloxyacetyl)amino]propanoyl]amino]-4-phenylbutanoyl]pyrrolidine-2-carboxamide
> <PUBCHEM_IUPAC_SYSTEMATIC_NAME>
(2S)-N-tert-butyl-4-ethoxy-1-[(2S,3S)-3-[[(2R)-3-methylsulfonyl-2-(2-naphthalen-1-yloxyethanoylamino)propanoyl]amino]-2-oxidanyl-4-phenyl-butanoyl]pyrrolidine-2-carboxamide
> <PUBCHEM_IUPAC_TRADITIONAL_NAME>
(2S)-N-tert-butyl-4-ethoxy-1-[(2S,3S)-2-hydroxy-3-[[(2R)-3-mesyl-2-[[2-(1-naphthoxy)acetyl]amino]propanoyl]amino]-4-phenyl-butanoyl]pyrrolidine-2-carboxamide
> <PUBCHEM_IUPAC_INCHI>
InChI=1S/C37H48N4O9S/c1-6-49-26-20-30(35(45)40-37(2,3)4)41(21-26)36(46)33(43)28(19-24-13-8-7-9-14-24)39-34(44)29(23-51(5,47)48)38-32(42)22-50-31-18-12-16-25-15-10-11-17-27(25)31/h7-18,26,28-30,33,43H,6,19-23H2,1-5H3,(H,38,42)(H,39,44)(H,40,45)/t26?,28-,29-,30-,33-/m0/s1
> <PUBCHEM_IUPAC_INCHIKEY>
PZNUFFLLYWPZCX-HKCORRPOSA-N
> <PUBCHEM_XLOGP3_AA>
2.9
> <PUBCHEM_EXACT_MASS>
724.31420029
> <PUBCHEM_MOLECULAR_FORMULA>
C37H48N4O9S
> <PUBCHEM_MOLECULAR_WEIGHT>
724.9
> <PUBCHEM_OPENEYE_CAN_SMILES>
CCOC1CC(N(C1)C(=O)C(C(CC2=CC=CC=C2)NC(=O)C(CS(=O)(=O)C)NC(=O)COC3=CC=CC4=CC=CC=C43)O)C(=O)NC(C)(C)C
> <PUBCHEM_OPENEYE_ISO_SMILES>
CCOC1C[C@H](N(C1)C(=O)[C@H]([C@H](CC2=CC=CC=C2)NC(=O)[C@H](CS(=O)(=O)C)NC(=O)COC3=CC=CC4=CC=CC=C43)O)C(=O)NC(C)(C)C
> <PUBCHEM_CACTVS_TPSA>
189
> <PUBCHEM_MONOISOTOPIC_WEIGHT>
724.31420029
> <PUBCHEM_TOTAL_CHARGE>
0
> <PUBCHEM_HEAVY_ATOM_COUNT>
51
> <PUBCHEM_ATOM_DEF_STEREO_COUNT>
4
> <PUBCHEM_ATOM_UDEF_STEREO_COUNT>
1
> <PUBCHEM_BOND_DEF_STEREO_COUNT>
0
> <PUBCHEM_BOND_UDEF_STEREO_COUNT>
0
> <PUBCHEM_ISOTOPIC_ATOM_COUNT>
0
> <PUBCHEM_COMPONENT_COUNT>
1
> <PUBCHEM_CACTVS_TAUTO_COUNT>
-1
> <PUBCHEM_COORDINATE_TYPE>
1
5
255
> <PUBCHEM_BONDANNOTATIONS>
22  13  5
32  14  5
15  20  5
16  2  3
29  34  8
29  35  8
21  3  6
34  36  8
35  37  8
36  38  8
37  38  8
42  43  8
42  44  8
43  45  8
43  46  8
44  47  8
45  48  8
45  49  8
46  50  8
47  48  8
49  51  8
50  51  8
$$$$
