501856
  -OEChem-10302200282D
 94 97  0     1  0  0  0  0  0999 V2000
    4.4655   -3.7494    0.0000 O   0  0  0  0  0  0  0  0  0  0  0  0
    4.3511   -0.8067    0.0000 O   0  0  0  0  0  0  0  0  0  0  0  0
    6.7469    0.3159    0.0000 O   0  0  0  0  0  0  0  0  0  0  0  0
    7.1537    1.2295    0.0000 O   0  0  0  0  0  0  0  0  0  0  0  0
    9.5494    2.3521    0.0000 O   0  0  0  0  0  0  0  0  0  0  0  0
    7.7861    4.7791    0.0000 O   0  0  0  0  0  0  0  0  0  0  0  0
    8.1482    1.3340    0.0000 O   0  0  0  0  0  0  0  0  0  0  0  0
    5.9334   -1.5112    0.0000 N   0  0  0  0  0  0  0  0  0  0  0  0
    3.9302   -2.1021    0.0000 N   0  0  0  0  0  0  0  0  0  0  0  0
    5.5714    1.9340    0.0000 N   0  0  0  0  0  0  0  0  0  0  0  0
    7.9671    3.0566    0.0000 N   0  0  0  0  0  0  0  0  0  0  0  0
    6.2038    5.4836    0.0000 N   0  0  0  0  0  0  0  0  0  0  0  0
    6.4334   -3.0500    0.0000 C   0  0  3  0  0  0  0  0  0  0  0  0
    5.6244   -2.4622    0.0000 C   0  0  1  0  0  0  0  0  0  0  0  0
    7.2425   -2.4622    0.0000 C   0  0  0  0  0  0  0  0  0  0  0  0
    6.9334   -1.5112    0.0000 C   0  0  0  0  0  0  0  0  0  0  0  0
    6.4334   -4.0500    0.0000 C   0  0  0  0  0  0  0  0  0  0  0  0
    4.6734   -2.7712    0.0000 C   0  0  0  0  0  0  0  0  0  0  0  0
    5.3457   -0.7022    0.0000 C   0  0  0  0  0  0  0  0  0  0  0  0
    5.7524    0.2114    0.0000 C   0  0  2  0  0  0  0  0  0  0  0  0
    5.1646    1.0204    0.0000 C   0  0  2  0  0  0  0  0  0  0  0  0
    2.9792   -2.4111    0.0000 C   0  0  0  0  0  0  0  0  0  0  0  0
    5.5674   -4.5500    0.0000 C   0  0  0  0  0  0  0  0  0  0  0  0
    7.2995   -4.5500    0.0000 C   0  0  0  0  0  0  0  0  0  0  0  0
    4.1701    0.9159    0.0000 C   0  0  0  0  0  0  0  0  0  0  0  0
    2.0281   -2.7201    0.0000 C   0  0  0  0  0  0  0  0  0  0  0  0
    2.6702   -1.4601    0.0000 C   0  0  0  0  0  0  0  0  0  0  0  0
    3.2882   -3.3622    0.0000 C   0  0  0  0  0  0  0  0  0  0  0  0
    5.5674   -5.5500    0.0000 C   0  0  0  0  0  0  0  0  0  0  0  0
    7.2995   -5.5500    0.0000 C   0  0  0  0  0  0  0  0  0  0  0  0
    6.4334   -6.0500    0.0000 C   0  0  0  0  0  0  0  0  0  0  0  0
    3.5823    1.7249    0.0000 C   0  0  0  0  0  0  0  0  0  0  0  0
    6.5659    2.0385    0.0000 C   0  0  0  0  0  0  0  0  0  0  0  0
    6.9726    2.9520    0.0000 C   0  0  2  0  0  0  0  0  0  0  0  0
    2.5878    1.6204    0.0000 C   0  0  0  0  0  0  0  0  0  0  0  0
    3.9890    2.6385    0.0000 C   0  0  0  0  0  0  0  0  0  0  0  0
    6.3848    3.7610    0.0000 C   0  0  0  0  0  0  0  0  0  0  0  0
    2.0000    2.4294    0.0000 C   0  0  0  0  0  0  0  0  0  0  0  0
    3.4013    3.4475    0.0000 C   0  0  0  0  0  0  0  0  0  0  0  0
    2.4067    3.3429    0.0000 C   0  0  0  0  0  0  0  0  0  0  0  0
    6.7916    4.6746    0.0000 C   0  0  0  0  0  0  0  0  0  0  0  0
    8.5549    2.2475    0.0000 C   0  0  0  0  0  0  0  0  0  0  0  0
   10.1372    1.5430    0.0000 C   0  0  0  0  0  0  0  0  0  0  0  0
   11.1317    1.6476    0.0000 C   0  0  0  0  0  0  0  0  0  0  0  0
   11.5385    2.5611    0.0000 C   0  0  0  0  0  0  0  0  0  0  0  0
   11.7195    0.8386    0.0000 C   0  0  0  0  0  0  0  0  0  0  0  0
   12.5330    2.6657    0.0000 C   0  0  0  0  0  0  0  0  0  0  0  0
   12.7141    0.9431    0.0000 C   0  0  0  0  0  0  0  0  0  0  0  0
   13.1208    1.8566    0.0000 C   0  0  0  0  0  0  0  0  0  0  0  0
    6.9859   -3.3315    0.0000 H   0  0  0  0  0  0  0  0  0  0  0  0
    5.1860   -2.0238    0.0000 H   0  0  0  0  0  0  0  0  0  0  0  0
    7.5525   -2.9992    0.0000 H   0  0  0  0  0  0  0  0  0  0  0  0
    7.8089   -2.2100    0.0000 H   0  0  0  0  0  0  0  0  0  0  0  0
    7.5399   -1.3823    0.0000 H   0  0  0  0  0  0  0  0  0  0  0  0
    6.8686   -0.8946    0.0000 H   0  0  0  0  0  0  0  0  0  0  0  0
    6.0046    0.7778    0.0000 H   0  0  0  0  0  0  0  0  0  0  0  0
    4.0591   -1.4957    0.0000 H   0  0  0  0  0  0  0  0  0  0  0  0
    4.8002    1.5220    0.0000 H   0  0  0  0  0  0  0  0  0  0  0  0
    5.0305   -4.2400    0.0000 H   0  0  0  0  0  0  0  0  0  0  0  0
    7.8364   -4.2400    0.0000 H   0  0  0  0  0  0  0  0  0  0  0  0
    3.6128    0.6441    0.0000 H   0  0  0  0  0  0  0  0  0  0  0  0
    4.3410    0.3199    0.0000 H   0  0  0  0  0  0  0  0  0  0  0  0
    1.8365   -2.1305    0.0000 H   0  0  0  0  0  0  0  0  0  0  0  0
    1.4385   -2.9117    0.0000 H   0  0  0  0  0  0  0  0  0  0  0  0
    2.2197   -3.3098    0.0000 H   0  0  0  0  0  0  0  0  0  0  0  0
    3.2598   -1.2685    0.0000 H   0  0  0  0  0  0  0  0  0  0  0  0
    2.4786   -0.8704    0.0000 H   0  0  0  0  0  0  0  0  0  0  0  0
    2.0805   -1.6517    0.0000 H   0  0  0  0  0  0  0  0  0  0  0  0
    2.6985   -3.5538    0.0000 H   0  0  0  0  0  0  0  0  0  0  0  0
    3.4798   -3.9518    0.0000 H   0  0  0  0  0  0  0  0  0  0  0  0
    3.8778   -3.1706    0.0000 H   0  0  0  0  0  0  0  0  0  0  0  0
    5.2069    2.4356    0.0000 H   0  0  0  0  0  0  0  0  0  0  0  0
    5.0305   -5.8600    0.0000 H   0  0  0  0  0  0  0  0  0  0  0  0
    7.8364   -5.8600    0.0000 H   0  0  0  0  0  0  0  0  0  0  0  0
    7.1114   -0.1857    0.0000 H   0  0  0  0  0  0  0  0  0  0  0  0
    6.4334   -6.6700    0.0000 H   0  0  0  0  0  0  0  0  0  0  0  0
    7.3370    2.4504    0.0000 H   0  0  0  0  0  0  0  0  0  0  0  0
    2.3356    1.0540    0.0000 H   0  0  0  0  0  0  0  0  0  0  0  0
    4.6056    2.7032    0.0000 H   0  0  0  0  0  0  0  0  0  0  0  0
    5.8708    4.1078    0.0000 H   0  0  0  0  0  0  0  0  0  0  0  0
    5.9541    3.3151    0.0000 H   0  0  0  0  0  0  0  0  0  0  0  0
    8.2193    3.6230    0.0000 H   0  0  0  0  0  0  0  0  0  0  0  0
    1.3834    2.3646    0.0000 H   0  0  0  0  0  0  0  0  0  0  0  0
    3.6534    4.0139    0.0000 H   0  0  0  0  0  0  0  0  0  0  0  0
    2.0423    3.8445    0.0000 H   0  0  0  0  0  0  0  0  0  0  0  0
    6.4559    6.0500    0.0000 H   0  0  0  0  0  0  0  0  0  0  0  0
    5.5872    5.4188    0.0000 H   0  0  0  0  0  0  0  0  0  0  0  0
    9.5800    1.2713    0.0000 H   0  0  0  0  0  0  0  0  0  0  0  0
   10.3081    0.9471    0.0000 H   0  0  0  0  0  0  0  0  0  0  0  0
   11.1741    3.0627    0.0000 H   0  0  0  0  0  0  0  0  0  0  0  0
   11.4674    0.2722    0.0000 H   0  0  0  0  0  0  0  0  0  0  0  0
   12.7852    3.2320    0.0000 H   0  0  0  0  0  0  0  0  0  0  0  0
   13.0785    0.4415    0.0000 H   0  0  0  0  0  0  0  0  0  0  0  0
   13.7374    1.9214    0.0000 H   0  0  0  0  0  0  0  0  0  0  0  0
  1 18  2  0  0  0  0
  2 19  2  0  0  0  0
 20  3  1  6  0  0  0
  3 75  1  0  0  0  0
  4 33  2  0  0  0  0
  5 42  1  0  0  0  0
  5 43  1  0  0  0  0
  6 41  2  0  0  0  0
  7 42  2  0  0  0  0
  8 14  1  0  0  0  0
  8 16  1  0  0  0  0
  8 19  1  0  0  0  0
  9 18  1  0  0  0  0
  9 22  1  0  0  0  0
  9 57  1  0  0  0  0
 21 10  1  6  0  0  0
 10 33  1  0  0  0  0
 10 72  1  0  0  0  0
 34 11  1  6  0  0  0
 11 42  1  0  0  0  0
 11 82  1  0  0  0  0
 12 41  1  0  0  0  0
 12 86  1  0  0  0  0
 12 87  1  0  0  0  0
 13 14  1  0  0  0  0
 13 15  1  0  0  0  0
 13 17  1  0  0  0  0
 13 50  1  0  0  0  0
 14 18  1  1  0  0  0
 14 51  1  0  0  0  0
 15 16  1  0  0  0  0
 15 52  1  0  0  0  0
 15 53  1  0  0  0  0
 16 54  1  0  0  0  0
 16 55  1  0  0  0  0
 17 23  2  0  0  0  0
 17 24  1  0  0  0  0
 19 20  1  0  0  0  0
 20 21  1  0  0  0  0
 20 56  1  0  0  0  0
 21 25  1  0  0  0  0
 21 58  1  0  0  0  0
 22 26  1  0  0  0  0
 22 27  1  0  0  0  0
 22 28  1  0  0  0  0
 23 29  1  0  0  0  0
 23 59  1  0  0  0  0
 24 30  2  0  0  0  0
 24 60  1  0  0  0  0
 25 32  1  0  0  0  0
 25 61  1  0  0  0  0
 25 62  1  0  0  0  0
 26 63  1  0  0  0  0
 26 64  1  0  0  0  0
 26 65  1  0  0  0  0
 27 66  1  0  0  0  0
 27 67  1  0  0  0  0
 27 68  1  0  0  0  0
 28 69  1  0  0  0  0
 28 70  1  0  0  0  0
 28 71  1  0  0  0  0
 29 31  2  0  0  0  0
 29 73  1  0  0  0  0
 30 31  1  0  0  0  0
 30 74  1  0  0  0  0
 31 76  1  0  0  0  0
 32 35  2  0  0  0  0
 32 36  1  0  0  0  0
 33 34  1  0  0  0  0
 34 37  1  0  0  0  0
 34 77  1  0  0  0  0
 35 38  1  0  0  0  0
 35 78  1  0  0  0  0
 36 39  2  0  0  0  0
 36 79  1  0  0  0  0
 37 41  1  0  0  0  0
 37 80  1  0  0  0  0
 37 81  1  0  0  0  0
 38 40  2  0  0  0  0
 38 83  1  0  0  0  0
 39 40  1  0  0  0  0
 39 84  1  0  0  0  0
 40 85  1  0  0  0  0
 43 44  1  0  0  0  0
 43 88  1  0  0  0  0
 43 89  1  0  0  0  0
 44 45  2  0  0  0  0
 44 46  1  0  0  0  0
 45 47  1  0  0  0  0
 45 90  1  0  0  0  0
 46 48  2  0  0  0  0
 46 91  1  0  0  0  0
 47 49  2  0  0  0  0
 47 92  1  0  0  0  0
 48 49  1  0  0  0  0
 48 93  1  0  0  0  0
 49 94  1  0  0  0  0
M  END
> <PUBCHEM_COMPOUND_CID>
501856
> <PUBCHEM_COMPOUND_CANONICALIZED>
1
> <PUBCHEM_CACTVS_COMPLEXITY>
1120
> <PUBCHEM_CACTVS_HBOND_ACCEPTOR>
7
> <PUBCHEM_CACTVS_HBOND_DONOR>
5
> <PUBCHEM_CACTVS_ROTATABLE_BOND>
15
> <PUBCHEM_CACTVS_SUBSKEYS>
AAADcfB/uAAAAAAAAAAAAAAAAAAAAWAAAAAwYMAAAAAAAAABUAAAHgAQCAAADbzhmAYyCIPABgCIAiFSGAICAAAgAAAIiIHICIkKdjqA8TmccAAk1gGYqAedyeCOgAAAAAAAAAAAAAAAAAAAAAAAAAAAAA==
> <PUBCHEM_IUPAC_OPENEYE_NAME>
benzyl N-[(1S)-3-amino-1-[[(1S,2S)-1-benzyl-3-[(2S)-2-(tert-butylcarbamoyl)-3-phenyl-pyrrolidin-1-yl]-2-hydroxy-3-oxo-propyl]carbamoyl]-3-oxo-propyl]carbamate
> <PUBCHEM_IUPAC_CAS_NAME>
N-[(2S)-4-amino-1-[[(2S,3S)-4-[(2S)-2-[(tert-butylamino)-oxomethyl]-3-phenyl-1-pyrrolidinyl]-3-hydroxy-4-oxo-1-phenylbutan-2-yl]amino]-1,4-dioxobutan-2-yl]carbamic acid (phenylmethyl) ester
> <PUBCHEM_IUPAC_NAME_MARKUP>
benzyl <I>N</I>-[(2<I>S</I>)-4-amino-1-[[(2<I>S</I>,3<I>S</I>)-4-[(2<I>S</I>)-2-(<I>tert</I>-butylcarbamoyl)-3-phenylpyrrolidin-1-yl]-3-hydroxy-4-oxo-1-phenylbutan-2-yl]amino]-1,4-dioxobutan-2-yl]carbamate
> <PUBCHEM_IUPAC_NAME>
benzyl N-[(2S)-4-amino-1-[[(2S,3S)-4-[(2S)-2-(tert-butylcarbamoyl)-3-phenylpyrrolidin-1-yl]-3-hydroxy-4-oxo-1-phenylbutan-2-yl]amino]-1,4-dioxobutan-2-yl]carbamate
> <PUBCHEM_IUPAC_SYSTEMATIC_NAME>
(phenylmethyl) N-[(2S)-4-azanyl-1-[[(2S,3S)-4-[(2S)-2-(tert-butylcarbamoyl)-3-phenyl-pyrrolidin-1-yl]-3-oxidanyl-4-oxidanylidene-1-phenyl-butan-2-yl]amino]-1,4-bis(oxidanylidene)butan-2-yl]carbamate
> <PUBCHEM_IUPAC_TRADITIONAL_NAME>
N-[(1S)-3-amino-1-[[(1S,2S)-1-benzyl-3-[(2S)-2-(tert-butylcarbamoyl)-3-phenyl-pyrrolidino]-2-hydroxy-3-keto-propyl]carbamoyl]-3-keto-propyl]carbamic acid benzyl ester
> <PUBCHEM_IUPAC_INCHI>
InChI=1S/C37H45N5O7/c1-37(2,3)41-34(46)31-27(26-17-11-6-12-18-26)19-20-42(31)35(47)32(44)28(21-24-13-7-4-8-14-24)39-33(45)29(22-30(38)43)40-36(48)49-23-25-15-9-5-10-16-25/h4-18,27-29,31-32,44H,19-23H2,1-3H3,(H2,38,43)(H,39,45)(H,40,48)(H,41,46)/t27?,28-,29-,31-,32-/m0/s1
> <PUBCHEM_IUPAC_INCHIKEY>
RMZOMWVNVMCKJZ-PCXPWMSPSA-N
> <PUBCHEM_XLOGP3_AA>
2.8
> <PUBCHEM_EXACT_MASS>
671.33189879
> <PUBCHEM_MOLECULAR_FORMULA>
C37H45N5O7
> <PUBCHEM_MOLECULAR_WEIGHT>
671.8
> <PUBCHEM_OPENEYE_CAN_SMILES>
CC(C)(C)NC(=O)C1C(CCN1C(=O)C(C(CC2=CC=CC=C2)NC(=O)C(CC(=O)N)NC(=O)OCC3=CC=CC=C3)O)C4=CC=CC=C4
> <PUBCHEM_OPENEYE_ISO_SMILES>
CC(C)(C)NC(=O)[C@@H]1C(CCN1C(=O)[C@H]([C@H](CC2=CC=CC=C2)NC(=O)[C@H](CC(=O)N)NC(=O)OCC3=CC=CC=C3)O)C4=CC=CC=C4
> <PUBCHEM_CACTVS_TPSA>
180
> <PUBCHEM_MONOISOTOPIC_WEIGHT>
671.33189879
> <PUBCHEM_TOTAL_CHARGE>
0
> <PUBCHEM_HEAVY_ATOM_COUNT>
49
> <PUBCHEM_ATOM_DEF_STEREO_COUNT>
4
> <PUBCHEM_ATOM_UDEF_STEREO_COUNT>
1
> <PUBCHEM_BOND_DEF_STEREO_COUNT>
0
> <PUBCHEM_BOND_UDEF_STEREO_COUNT>
0
> <PUBCHEM_ISOTOPIC_ATOM_COUNT>
0
> <PUBCHEM_COMPONENT_COUNT>
1
> <PUBCHEM_CACTVS_TAUTO_COUNT>
-1
> <PUBCHEM_COORDINATE_TYPE>
1
5
255
> <PUBCHEM_BONDANNOTATIONS>
21  10  6
34  11  6
13  17  3
14  18  5
17  23  8
17  24  8
23  29  8
24  30  8
29  31  8
20  3  6
30  31  8
32  35  8
32  36  8
35  38  8
36  39  8
38  40  8
39  40  8
44  45  8
44  46  8
45  47  8
46  48  8
47  49  8
48  49  8
$$$$
