501849
  -OEChem-10302200282D
 91 94  0     1  0  0  0  0  0999 V2000
    3.7164   -0.2294    0.0000 S   0  0  0  0  0  0  0  0  0  0  0  0
   10.4952   -3.5658    0.0000 S   0  0  0  0  0  0  0  0  0  0  0  0
    5.2990   -2.5658    0.0000 O   0  0  0  0  0  0  0  0  0  0  0  0
    7.0311   -0.5658    0.0000 O   0  0  0  0  0  0  0  0  0  0  0  0
    6.8887    0.7888    0.0000 O   0  0  0  0  0  0  0  0  0  0  0  0
    8.7631   -3.5658    0.0000 O   0  0  0  0  0  0  0  0  0  0  0  0
   10.4952   -4.5658    0.0000 O   0  0  0  0  0  0  0  0  0  0  0  0
    9.4952   -3.5658    0.0000 O   0  0  0  0  0  0  0  0  0  0  0  0
   11.3612    0.9342    0.0000 O   0  0  0  0  0  0  0  0  0  0  0  0
   11.3612   -1.0658    0.0000 O   0  0  0  0  0  0  0  0  0  0  0  0
    4.1550    5.3195    0.0000 O   0  0  0  0  0  0  0  0  0  0  0  0
    5.2990   -0.5658    0.0000 N   0  0  0  0  0  0  0  0  0  0  0  0
    7.8971   -2.0658    0.0000 N   0  0  0  0  0  0  0  0  0  0  0  0
    5.7297    2.0760    0.0000 N   0  0  0  0  0  0  0  0  0  0  0  0
    9.6292   -1.0658    0.0000 N   0  0  0  0  0  0  0  0  0  0  0  0
    2.4608    4.9594    0.0000 N   0  0  0  0  0  0  0  0  0  0  0  0
    7.0311   -2.5658    0.0000 C   0  0  2  0  0  0  0  0  0  0  0  0
    5.1945    0.4287    0.0000 C   0  0  1  0  0  0  0  0  0  0  0  0
    6.1651   -2.0658    0.0000 C   0  0  1  0  0  0  0  0  0  0  0  0
    6.1651   -1.0658    0.0000 C   0  0  0  0  0  0  0  0  0  0  0  0
    4.2164    0.6366    0.0000 C   0  0  0  0  0  0  0  0  0  0  0  0
    4.3855   -0.9725    0.0000 C   0  0  0  0  0  0  0  0  0  0  0  0
    7.0311   -3.5658    0.0000 C   0  0  0  0  0  0  0  0  0  0  0  0
    5.9376    1.0978    0.0000 C   0  0  0  0  0  0  0  0  0  0  0  0
    9.6292   -2.0658    0.0000 C   0  0  2  0  0  0  0  0  0  0  0  0
    8.7631   -2.5658    0.0000 C   0  0  0  0  0  0  0  0  0  0  0  0
    6.1651   -4.0658    0.0000 C   0  0  0  0  0  0  0  0  0  0  0  0
   10.4952   -2.5658    0.0000 C   0  0  0  0  0  0  0  0  0  0  0  0
    4.7787    2.3850    0.0000 C   0  0  0  0  0  0  0  0  0  0  0  0
    5.2990   -3.5658    0.0000 C   0  0  0  0  0  0  0  0  0  0  0  0
    6.1651   -5.0658    0.0000 C   0  0  0  0  0  0  0  0  0  0  0  0
    4.5708    3.3632    0.0000 C   0  0  0  0  0  0  0  0  0  0  0  0
   11.4952   -3.5658    0.0000 C   0  0  0  0  0  0  0  0  0  0  0  0
    4.4330   -4.0658    0.0000 C   0  0  0  0  0  0  0  0  0  0  0  0
    5.2990   -5.5658    0.0000 C   0  0  0  0  0  0  0  0  0  0  0  0
   10.4952   -0.5658    0.0000 C   0  0  0  0  0  0  0  0  0  0  0  0
    3.6197    3.6722    0.0000 C   0  0  0  0  0  0  0  0  0  0  0  0
    4.4330   -5.0658    0.0000 C   0  0  0  0  0  0  0  0  0  0  0  0
   10.4952    0.4342    0.0000 C   0  0  0  0  0  0  0  0  0  0  0  0
    3.4118    4.6503    0.0000 C   0  0  0  0  0  0  0  0  0  0  0  0
   11.3612    1.9342    0.0000 C   0  0  0  0  0  0  0  0  0  0  0  0
   12.2272    2.4342    0.0000 C   0  0  0  0  0  0  0  0  0  0  0  0
   12.2272    3.4342    0.0000 C   0  0  0  0  0  0  0  0  0  0  0  0
   10.4952    2.4342    0.0000 C   0  0  0  0  0  0  0  0  0  0  0  0
   13.1212    1.8995    0.0000 C   0  0  0  0  0  0  0  0  0  0  0  0
   11.3612    3.9342    0.0000 C   0  0  0  0  0  0  0  0  0  0  0  0
   10.4952    3.4342    0.0000 C   0  0  0  0  0  0  0  0  0  0  0  0
   13.1212    3.9689    0.0000 C   0  0  0  0  0  0  0  0  0  0  0  0
   14.0273    2.4134    0.0000 C   0  0  0  0  0  0  0  0  0  0  0  0
   14.0273    3.4550    0.0000 C   0  0  0  0  0  0  0  0  0  0  0  0
    7.0311   -1.9458    0.0000 H   0  0  0  0  0  0  0  0  0  0  0  0
    5.7733    0.2065    0.0000 H   0  0  0  0  0  0  0  0  0  0  0  0
    6.1651   -2.6858    0.0000 H   0  0  0  0  0  0  0  0  0  0  0  0
    4.4079    1.2263    0.0000 H   0  0  0  0  0  0  0  0  0  0  0  0
    3.6500    0.8888    0.0000 H   0  0  0  0  0  0  0  0  0  0  0  0
    7.2431   -4.1484    0.0000 H   0  0  0  0  0  0  0  0  0  0  0  0
    7.6417   -3.4581    0.0000 H   0  0  0  0  0  0  0  0  0  0  0  0
    3.8839   -1.3370    0.0000 H   0  0  0  0  0  0  0  0  0  0  0  0
    4.6955   -1.5095    0.0000 H   0  0  0  0  0  0  0  0  0  0  0  0
    7.8971   -1.4458    0.0000 H   0  0  0  0  0  0  0  0  0  0  0  0
    9.0922   -1.7558    0.0000 H   0  0  0  0  0  0  0  0  0  0  0  0
   11.1058   -2.6735    0.0000 H   0  0  0  0  0  0  0  0  0  0  0  0
   10.7072   -1.9832    0.0000 H   0  0  0  0  0  0  0  0  0  0  0  0
    4.7621   -2.2558    0.0000 H   0  0  0  0  0  0  0  0  0  0  0  0
    6.1905    2.4909    0.0000 H   0  0  0  0  0  0  0  0  0  0  0  0
    4.1591    2.3634    0.0000 H   0  0  0  0  0  0  0  0  0  0  0  0
    4.6924    1.7710    0.0000 H   0  0  0  0  0  0  0  0  0  0  0  0
    9.0922   -0.7558    0.0000 H   0  0  0  0  0  0  0  0  0  0  0  0
    5.2990   -2.9458    0.0000 H   0  0  0  0  0  0  0  0  0  0  0  0
    6.7020   -5.3758    0.0000 H   0  0  0  0  0  0  0  0  0  0  0  0
    5.1904    3.3848    0.0000 H   0  0  0  0  0  0  0  0  0  0  0  0
    4.6571    3.9771    0.0000 H   0  0  0  0  0  0  0  0  0  0  0  0
   11.4952   -4.1858    0.0000 H   0  0  0  0  0  0  0  0  0  0  0  0
   12.1152   -3.5658    0.0000 H   0  0  0  0  0  0  0  0  0  0  0  0
   11.4952   -2.9458    0.0000 H   0  0  0  0  0  0  0  0  0  0  0  0
    3.8961   -3.7558    0.0000 H   0  0  0  0  0  0  0  0  0  0  0  0
    5.2990   -6.1858    0.0000 H   0  0  0  0  0  0  0  0  0  0  0  0
    3.0001    3.6506    0.0000 H   0  0  0  0  0  0  0  0  0  0  0  0
    3.5334    3.0582    0.0000 H   0  0  0  0  0  0  0  0  0  0  0  0
    3.8961   -5.3758    0.0000 H   0  0  0  0  0  0  0  0  0  0  0  0
   10.2831    1.0168    0.0000 H   0  0  0  0  0  0  0  0  0  0  0  0
    9.8846    0.3265    0.0000 H   0  0  0  0  0  0  0  0  0  0  0  0
    2.3318    5.5658    0.0000 H   0  0  0  0  0  0  0  0  0  0  0  0
    2.0000    4.5445    0.0000 H   0  0  0  0  0  0  0  0  0  0  0  0
    9.9582    2.1242    0.0000 H   0  0  0  0  0  0  0  0  0  0  0  0
   13.1140    1.2796    0.0000 H   0  0  0  0  0  0  0  0  0  0  0  0
   11.3612    4.5542    0.0000 H   0  0  0  0  0  0  0  0  0  0  0  0
    9.9582    3.7442    0.0000 H   0  0  0  0  0  0  0  0  0  0  0  0
   13.1140    4.5888    0.0000 H   0  0  0  0  0  0  0  0  0  0  0  0
   14.5630    2.1013    0.0000 H   0  0  0  0  0  0  0  0  0  0  0  0
   14.5630    3.7671    0.0000 H   0  0  0  0  0  0  0  0  0  0  0  0
  1 21  1  0  0  0  0
  1 22  1  0  0  0  0
  2  7  2  0  0  0  0
  2  8  2  0  0  0  0
  2 28  1  0  0  0  0
  2 33  1  0  0  0  0
 19  3  1  6  0  0  0
  3 64  1  0  0  0  0
  4 20  2  0  0  0  0
  5 24  2  0  0  0  0
  6 26  2  0  0  0  0
  9 39  1  0  0  0  0
  9 41  1  0  0  0  0
 10 36  2  0  0  0  0
 11 40  2  0  0  0  0
 12 18  1  0  0  0  0
 12 20  1  0  0  0  0
 12 22  1  0  0  0  0
 17 13  1  1  0  0  0
 13 26  1  0  0  0  0
 13 60  1  0  0  0  0
 14 24  1  0  0  0  0
 14 29  1  0  0  0  0
 14 65  1  0  0  0  0
 25 15  1  1  0  0  0
 15 36  1  0  0  0  0
 15 68  1  0  0  0  0
 16 40  1  0  0  0  0
 16 83  1  0  0  0  0
 16 84  1  0  0  0  0
 17 19  1  0  0  0  0
 17 23  1  0  0  0  0
 17 51  1  0  0  0  0
 18 21  1  0  0  0  0
 18 24  1  1  0  0  0
 18 52  1  0  0  0  0
 19 20  1  0  0  0  0
 19 53  1  0  0  0  0
 21 54  1  0  0  0  0
 21 55  1  0  0  0  0
 22 58  1  0  0  0  0
 22 59  1  0  0  0  0
 23 27  1  0  0  0  0
 23 56  1  0  0  0  0
 23 57  1  0  0  0  0
 25 26  1  0  0  0  0
 25 28  1  0  0  0  0
 25 61  1  0  0  0  0
 27 30  2  0  0  0  0
 27 31  1  0  0  0  0
 28 62  1  0  0  0  0
 28 63  1  0  0  0  0
 29 32  1  0  0  0  0
 29 66  1  0  0  0  0
 29 67  1  0  0  0  0
 30 34  1  0  0  0  0
 30 69  1  0  0  0  0
 31 35  2  0  0  0  0
 31 70  1  0  0  0  0
 32 37  1  0  0  0  0
 32 71  1  0  0  0  0
 32 72  1  0  0  0  0
 33 73  1  0  0  0  0
 33 74  1  0  0  0  0
 33 75  1  0  0  0  0
 34 38  2  0  0  0  0
 34 76  1  0  0  0  0
 35 38  1  0  0  0  0
 35 77  1  0  0  0  0
 36 39  1  0  0  0  0
 37 40  1  0  0  0  0
 37 78  1  0  0  0  0
 37 79  1  0  0  0  0
 38 80  1  0  0  0  0
 39 81  1  0  0  0  0
 39 82  1  0  0  0  0
 41 42  1  0  0  0  0
 41 44  2  0  0  0  0
 42 43  1  0  0  0  0
 42 45  2  0  0  0  0
 43 46  1  0  0  0  0
 43 48  2  0  0  0  0
 44 47  1  0  0  0  0
 44 85  1  0  0  0  0
 45 49  1  0  0  0  0
 45 86  1  0  0  0  0
 46 47  2  0  0  0  0
 46 87  1  0  0  0  0
 47 88  1  0  0  0  0
 48 50  1  0  0  0  0
 48 89  1  0  0  0  0
 49 50  2  0  0  0  0
 49 90  1  0  0  0  0
 50 91  1  0  0  0  0
M  END
> <PUBCHEM_COMPOUND_CID>
501849
> <PUBCHEM_COMPOUND_CANONICALIZED>
1
> <PUBCHEM_CACTVS_COMPLEXITY>
1290
> <PUBCHEM_CACTVS_HBOND_ACCEPTOR>
10
> <PUBCHEM_CACTVS_HBOND_DONOR>
5
> <PUBCHEM_CACTVS_ROTATABLE_BOND>
17
> <PUBCHEM_CACTVS_SUBSKEYS>
AAADcfB/vABgAAAAAAAAAAAAAAAAAWAAAAAwYMAAAAAAAADBVAAAHgQQCAAADDzl2AayBsPABgqIAiFSEHJCCABgIBAIiIHOCIgOdjqk8T+XeCCk1hGYqAecyLCOgAABAAAYAAAAAAIAADAAAAAAAAAAAA==
> <PUBCHEM_IUPAC_OPENEYE_NAME>
(4R)-N-(4-amino-4-oxo-butyl)-3-[(2S,3S)-2-hydroxy-3-[[(2R)-3-methylsulfonyl-2-[[2-(1-naphthyloxy)acetyl]amino]propanoyl]amino]-4-phenyl-butanoyl]thiazolidine-4-carboxamide
> <PUBCHEM_IUPAC_CAS_NAME>
(4R)-N-(4-amino-4-oxobutyl)-3-[(2S,3S)-2-hydroxy-3-[[(2R)-3-methylsulfonyl-2-[[2-(1-naphthalenyloxy)-1-oxoethyl]amino]-1-oxopropyl]amino]-1-oxo-4-phenylbutyl]-4-thiazolidinecarboxamide
> <PUBCHEM_IUPAC_NAME_MARKUP>
(4<I>R</I>)-<I>N</I>-(4-amino-4-oxobutyl)-3-[(2<I>S</I>,3<I>S</I>)-2-hydroxy-3-[[(2<I>R</I>)-3-methylsulfonyl-2-[(2-naphthalen-1-yloxyacetyl)amino]propanoyl]amino]-4-phenylbutanoyl]-1,3-thiazolidine-4-carboxamide
> <PUBCHEM_IUPAC_NAME>
(4R)-N-(4-amino-4-oxobutyl)-3-[(2S,3S)-2-hydroxy-3-[[(2R)-3-methylsulfonyl-2-[(2-naphthalen-1-yloxyacetyl)amino]propanoyl]amino]-4-phenylbutanoyl]-1,3-thiazolidine-4-carboxamide
> <PUBCHEM_IUPAC_SYSTEMATIC_NAME>
(4R)-N-(4-azanyl-4-oxidanylidene-butyl)-3-[(2S,3S)-3-[[(2R)-3-methylsulfonyl-2-(2-naphthalen-1-yloxyethanoylamino)propanoyl]amino]-2-oxidanyl-4-phenyl-butanoyl]-1,3-thiazolidine-4-carboxamide
> <PUBCHEM_IUPAC_TRADITIONAL_NAME>
(4R)-N-(4-amino-4-keto-butyl)-3-[(2S,3S)-2-hydroxy-3-[[(2R)-3-mesyl-2-[[2-(1-naphthoxy)acetyl]amino]propanoyl]amino]-4-phenyl-butanoyl]thiazolidine-4-carboxamide
> <PUBCHEM_IUPAC_INCHI>
InChI=1S/C34H41N5O9S2/c1-50(46,47)20-26(37-30(41)18-48-28-14-7-12-23-11-5-6-13-24(23)28)32(43)38-25(17-22-9-3-2-4-10-22)31(42)34(45)39-21-49-19-27(39)33(44)36-16-8-15-29(35)40/h2-7,9-14,25-27,31,42H,8,15-21H2,1H3,(H2,35,40)(H,36,44)(H,37,41)(H,38,43)/t25-,26-,27-,31-/m0/s1
> <PUBCHEM_IUPAC_INCHIKEY>
JSAGMWBNJTYSON-QEETYVBOSA-N
> <PUBCHEM_XLOGP3_AA>
1.3
> <PUBCHEM_EXACT_MASS>
727.23457025
> <PUBCHEM_MOLECULAR_FORMULA>
C34H41N5O9S2
> <PUBCHEM_MOLECULAR_WEIGHT>
727.9
> <PUBCHEM_OPENEYE_CAN_SMILES>
CS(=O)(=O)CC(C(=O)NC(CC1=CC=CC=C1)C(C(=O)N2CSCC2C(=O)NCCCC(=O)N)O)NC(=O)COC3=CC=CC4=CC=CC=C43
> <PUBCHEM_OPENEYE_ISO_SMILES>
CS(=O)(=O)C[C@@H](C(=O)N[C@@H](CC1=CC=CC=C1)[C@@H](C(=O)N2CSC[C@H]2C(=O)NCCCC(=O)N)O)NC(=O)COC3=CC=CC4=CC=CC=C43
> <PUBCHEM_CACTVS_TPSA>
248
> <PUBCHEM_MONOISOTOPIC_WEIGHT>
727.23457025
> <PUBCHEM_TOTAL_CHARGE>
0
> <PUBCHEM_HEAVY_ATOM_COUNT>
50
> <PUBCHEM_ATOM_DEF_STEREO_COUNT>
4
> <PUBCHEM_ATOM_UDEF_STEREO_COUNT>
0
> <PUBCHEM_BOND_DEF_STEREO_COUNT>
0
> <PUBCHEM_BOND_UDEF_STEREO_COUNT>
0
> <PUBCHEM_ISOTOPIC_ATOM_COUNT>
0
> <PUBCHEM_COMPONENT_COUNT>
1
> <PUBCHEM_CACTVS_TAUTO_COUNT>
-1
> <PUBCHEM_COORDINATE_TYPE>
1
5
255
> <PUBCHEM_BONDANNOTATIONS>
17  13  5
25  15  5
18  24  5
27  30  8
27  31  8
19  3  6
30  34  8
31  35  8
34  38  8
35  38  8
41  42  8
41  44  8
42  43  8
42  45  8
43  46  8
43  48  8
44  47  8
45  49  8
46  47  8
48  50  8
49  50  8
$$$$
