501855
  -OEChem-10302200282D
 98101  0     1  0  0  0  0  0999 V2000
    9.1448   -2.7673    0.0000 S   0  0  0  0  0  0  0  0  0  0  0  0
    5.5384    1.5873    0.0000 O   0  0  0  0  0  0  0  0  0  0  0  0
    5.6808    0.2327    0.0000 O   0  0  0  0  0  0  0  0  0  0  0  0
    3.9487   -1.7673    0.0000 O   0  0  0  0  0  0  0  0  0  0  0  0
    7.4128   -2.7673    0.0000 O   0  0  0  0  0  0  0  0  0  0  0  0
   10.1449   -2.7673    0.0000 O   0  0  0  0  0  0  0  0  0  0  0  0
    8.1448   -2.7673    0.0000 O   0  0  0  0  0  0  0  0  0  0  0  0
   10.0109   -0.2673    0.0000 O   0  0  0  0  0  0  0  0  0  0  0  0
   10.0109    1.7327    0.0000 O   0  0  0  0  0  0  0  0  0  0  0  0
    3.9487    0.2327    0.0000 N   0  0  0  0  0  0  0  0  0  0  0  0
    4.3794    2.8745    0.0000 N   0  0  0  0  0  0  0  0  0  0  0  0
    6.5468   -1.2673    0.0000 N   0  0  0  0  0  0  0  0  0  0  0  0
    8.2788   -0.2673    0.0000 N   0  0  0  0  0  0  0  0  0  0  0  0
    2.8660    1.4351    0.0000 C   0  0  0  0  0  0  0  0  0  0  0  0
    3.8442    1.2272    0.0000 C   0  0  1  0  0  0  0  0  0  0  0  0
    2.3660    0.5691    0.0000 C   0  0  0  0  0  0  0  0  0  0  0  0
    3.0352   -0.1741    0.0000 C   0  0  0  0  0  0  0  0  0  0  0  0
    2.0000    1.9351    0.0000 C   0  0  0  0  0  0  0  0  0  0  0  0
    3.0739    2.4132    0.0000 C   0  0  0  0  0  0  0  0  0  0  0  0
    4.5873    1.8963    0.0000 C   0  0  0  0  0  0  0  0  0  0  0  0
    4.8147   -0.2673    0.0000 C   0  0  0  0  0  0  0  0  0  0  0  0
    4.8147   -1.2673    0.0000 C   0  0  2  0  0  0  0  0  0  0  0  0
    5.1226    3.5436    0.0000 C   0  0  0  0  0  0  0  0  0  0  0  0
    5.6808   -1.7673    0.0000 C   0  0  2  0  0  0  0  0  0  0  0  0
    5.6808   -2.7673    0.0000 C   0  0  0  0  0  0  0  0  0  0  0  0
    5.8657    4.2127    0.0000 C   0  0  0  0  0  0  0  0  0  0  0  0
    4.4534    4.2867    0.0000 C   0  0  0  0  0  0  0  0  0  0  0  0
    5.7917    2.8005    0.0000 C   0  0  0  0  0  0  0  0  0  0  0  0
    4.8147   -3.2673    0.0000 C   0  0  0  0  0  0  0  0  0  0  0  0
    7.4128   -1.7673    0.0000 C   0  0  0  0  0  0  0  0  0  0  0  0
    8.2788   -1.2673    0.0000 C   0  0  2  0  0  0  0  0  0  0  0  0
    3.9487   -2.7673    0.0000 C   0  0  0  0  0  0  0  0  0  0  0  0
    4.8147   -4.2673    0.0000 C   0  0  0  0  0  0  0  0  0  0  0  0
    9.1448   -1.7673    0.0000 C   0  0  0  0  0  0  0  0  0  0  0  0
    3.0827   -3.2673    0.0000 C   0  0  0  0  0  0  0  0  0  0  0  0
    3.9487   -4.7673    0.0000 C   0  0  0  0  0  0  0  0  0  0  0  0
    3.0827   -4.2673    0.0000 C   0  0  0  0  0  0  0  0  0  0  0  0
    9.1448    0.2327    0.0000 C   0  0  0  0  0  0  0  0  0  0  0  0
    9.1448   -3.7673    0.0000 C   0  0  0  0  0  0  0  0  0  0  0  0
    9.1448    1.2327    0.0000 C   0  0  0  0  0  0  0  0  0  0  0  0
   10.0109    2.7327    0.0000 C   0  0  0  0  0  0  0  0  0  0  0  0
   10.8769    3.2327    0.0000 C   0  0  0  0  0  0  0  0  0  0  0  0
    9.1448    3.2327    0.0000 C   0  0  0  0  0  0  0  0  0  0  0  0
   10.8769    4.2327    0.0000 C   0  0  0  0  0  0  0  0  0  0  0  0
   11.7708    2.6980    0.0000 C   0  0  0  0  0  0  0  0  0  0  0  0
    9.1448    4.2327    0.0000 C   0  0  0  0  0  0  0  0  0  0  0  0
   10.0109    4.7327    0.0000 C   0  0  0  0  0  0  0  0  0  0  0  0
   11.7708    4.7673    0.0000 C   0  0  0  0  0  0  0  0  0  0  0  0
   12.6769    3.2118    0.0000 C   0  0  0  0  0  0  0  0  0  0  0  0
   12.6769    4.2535    0.0000 C   0  0  0  0  0  0  0  0  0  0  0  0
    4.4230    1.0050    0.0000 H   0  0  0  0  0  0  0  0  0  0  0  0
    1.8644    0.9335    0.0000 H   0  0  0  0  0  0  0  0  0  0  0  0
    1.9512    0.1083    0.0000 H   0  0  0  0  0  0  0  0  0  0  0  0
    2.5336   -0.5385    0.0000 H   0  0  0  0  0  0  0  0  0  0  0  0
    3.3452   -0.7110    0.0000 H   0  0  0  0  0  0  0  0  0  0  0  0
    2.3100    2.4720    0.0000 H   0  0  0  0  0  0  0  0  0  0  0  0
    1.4631    2.2451    0.0000 H   0  0  0  0  0  0  0  0  0  0  0  0
    1.6900    1.3982    0.0000 H   0  0  0  0  0  0  0  0  0  0  0  0
    3.6804    2.2844    0.0000 H   0  0  0  0  0  0  0  0  0  0  0  0
    3.2028    3.0197    0.0000 H   0  0  0  0  0  0  0  0  0  0  0  0
    2.4675    2.5422    0.0000 H   0  0  0  0  0  0  0  0  0  0  0  0
    4.8147   -1.8873    0.0000 H   0  0  0  0  0  0  0  0  0  0  0  0
    3.7898    3.0661    0.0000 H   0  0  0  0  0  0  0  0  0  0  0  0
    5.6808   -1.1473    0.0000 H   0  0  0  0  0  0  0  0  0  0  0  0
    5.8928   -3.3499    0.0000 H   0  0  0  0  0  0  0  0  0  0  0  0
    6.2913   -2.6597    0.0000 H   0  0  0  0  0  0  0  0  0  0  0  0
    6.2806    3.7520    0.0000 H   0  0  0  0  0  0  0  0  0  0  0  0
    6.3264    4.6276    0.0000 H   0  0  0  0  0  0  0  0  0  0  0  0
    5.4508    4.6735    0.0000 H   0  0  0  0  0  0  0  0  0  0  0  0
    4.9142    4.7016    0.0000 H   0  0  0  0  0  0  0  0  0  0  0  0
    4.0386    4.7475    0.0000 H   0  0  0  0  0  0  0  0  0  0  0  0
    3.9927    3.8719    0.0000 H   0  0  0  0  0  0  0  0  0  0  0  0
    5.3309    2.3856    0.0000 H   0  0  0  0  0  0  0  0  0  0  0  0
    6.2065    2.3397    0.0000 H   0  0  0  0  0  0  0  0  0  0  0  0
    6.2524    3.2153    0.0000 H   0  0  0  0  0  0  0  0  0  0  0  0
    6.5468   -0.6473    0.0000 H   0  0  0  0  0  0  0  0  0  0  0  0
    3.4118   -1.4573    0.0000 H   0  0  0  0  0  0  0  0  0  0  0  0
    8.8158   -0.9573    0.0000 H   0  0  0  0  0  0  0  0  0  0  0  0
    3.9487   -2.1473    0.0000 H   0  0  0  0  0  0  0  0  0  0  0  0
    5.3517   -4.5773    0.0000 H   0  0  0  0  0  0  0  0  0  0  0  0
    9.7554   -1.8750    0.0000 H   0  0  0  0  0  0  0  0  0  0  0  0
    9.3569   -1.1847    0.0000 H   0  0  0  0  0  0  0  0  0  0  0  0
    7.7419    0.0427    0.0000 H   0  0  0  0  0  0  0  0  0  0  0  0
    2.5457   -2.9573    0.0000 H   0  0  0  0  0  0  0  0  0  0  0  0
    3.9487   -5.3873    0.0000 H   0  0  0  0  0  0  0  0  0  0  0  0
    2.5457   -4.5773    0.0000 H   0  0  0  0  0  0  0  0  0  0  0  0
    8.5248   -3.7673    0.0000 H   0  0  0  0  0  0  0  0  0  0  0  0
    9.1448   -4.3873    0.0000 H   0  0  0  0  0  0  0  0  0  0  0  0
    9.7648   -3.7673    0.0000 H   0  0  0  0  0  0  0  0  0  0  0  0
    8.9328    1.8153    0.0000 H   0  0  0  0  0  0  0  0  0  0  0  0
    8.5343    1.1250    0.0000 H   0  0  0  0  0  0  0  0  0  0  0  0
    8.6079    2.9227    0.0000 H   0  0  0  0  0  0  0  0  0  0  0  0
   11.7637    2.0780    0.0000 H   0  0  0  0  0  0  0  0  0  0  0  0
    8.6079    4.5427    0.0000 H   0  0  0  0  0  0  0  0  0  0  0  0
   10.0109    5.3527    0.0000 H   0  0  0  0  0  0  0  0  0  0  0  0
   11.7637    5.3873    0.0000 H   0  0  0  0  0  0  0  0  0  0  0  0
   13.2127    2.8998    0.0000 H   0  0  0  0  0  0  0  0  0  0  0  0
   13.2127    4.5656    0.0000 H   0  0  0  0  0  0  0  0  0  0  0  0
  1  6  2  0  0  0  0
  1  7  2  0  0  0  0
  1 34  1  0  0  0  0
  1 39  1  0  0  0  0
  2 20  2  0  0  0  0
  3 21  2  0  0  0  0
 22  4  1  6  0  0  0
  4 77  1  0  0  0  0
  5 30  2  0  0  0  0
  8 38  2  0  0  0  0
  9 40  1  0  0  0  0
  9 41  1  0  0  0  0
 10 15  1  0  0  0  0
 10 17  1  0  0  0  0
 10 21  1  0  0  0  0
 11 20  1  0  0  0  0
 11 23  1  0  0  0  0
 11 63  1  0  0  0  0
 24 12  1  1  0  0  0
 12 30  1  0  0  0  0
 12 76  1  0  0  0  0
 31 13  1  1  0  0  0
 13 38  1  0  0  0  0
 13 83  1  0  0  0  0
 14 15  1  0  0  0  0
 14 16  1  0  0  0  0
 14 18  1  0  0  0  0
 14 19  1  0  0  0  0
 15 20  1  1  0  0  0
 15 51  1  0  0  0  0
 16 17  1  0  0  0  0
 16 52  1  0  0  0  0
 16 53  1  0  0  0  0
 17 54  1  0  0  0  0
 17 55  1  0  0  0  0
 18 56  1  0  0  0  0
 18 57  1  0  0  0  0
 18 58  1  0  0  0  0
 19 59  1  0  0  0  0
 19 60  1  0  0  0  0
 19 61  1  0  0  0  0
 21 22  1  0  0  0  0
 22 24  1  0  0  0  0
 22 62  1  0  0  0  0
 23 26  1  0  0  0  0
 23 27  1  0  0  0  0
 23 28  1  0  0  0  0
 24 25  1  0  0  0  0
 24 64  1  0  0  0  0
 25 29  1  0  0  0  0
 25 65  1  0  0  0  0
 25 66  1  0  0  0  0
 26 67  1  0  0  0  0
 26 68  1  0  0  0  0
 26 69  1  0  0  0  0
 27 70  1  0  0  0  0
 27 71  1  0  0  0  0
 27 72  1  0  0  0  0
 28 73  1  0  0  0  0
 28 74  1  0  0  0  0
 28 75  1  0  0  0  0
 29 32  2  0  0  0  0
 29 33  1  0  0  0  0
 30 31  1  0  0  0  0
 31 34  1  0  0  0  0
 31 78  1  0  0  0  0
 32 35  1  0  0  0  0
 32 79  1  0  0  0  0
 33 36  2  0  0  0  0
 33 80  1  0  0  0  0
 34 81  1  0  0  0  0
 34 82  1  0  0  0  0
 35 37  2  0  0  0  0
 35 84  1  0  0  0  0
 36 37  1  0  0  0  0
 36 85  1  0  0  0  0
 37 86  1  0  0  0  0
 38 40  1  0  0  0  0
 39 87  1  0  0  0  0
 39 88  1  0  0  0  0
 39 89  1  0  0  0  0
 40 90  1  0  0  0  0
 40 91  1  0  0  0  0
 41 42  1  0  0  0  0
 41 43  2  0  0  0  0
 42 44  1  0  0  0  0
 42 45  2  0  0  0  0
 43 46  1  0  0  0  0
 43 92  1  0  0  0  0
 44 47  1  0  0  0  0
 44 48  2  0  0  0  0
 45 49  1  0  0  0  0
 45 93  1  0  0  0  0
 46 47  2  0  0  0  0
 46 94  1  0  0  0  0
 47 95  1  0  0  0  0
 48 50  1  0  0  0  0
 48 96  1  0  0  0  0
 49 50  2  0  0  0  0
 49 97  1  0  0  0  0
 50 98  1  0  0  0  0
M  END
> <PUBCHEM_COMPOUND_CID>
501855
> <PUBCHEM_COMPOUND_CANONICALIZED>
1
> <PUBCHEM_CACTVS_COMPLEXITY>
1300
> <PUBCHEM_CACTVS_HBOND_ACCEPTOR>
8
> <PUBCHEM_CACTVS_HBOND_DONOR>
4
> <PUBCHEM_CACTVS_ROTATABLE_BOND>
14
> <PUBCHEM_CACTVS_SUBSKEYS>
AAADcfB/vABAAAAAAAAAAAAAAAAAAWAAAAAwYMAAAAAAAADBVAAAHgQQCAAADrzl2AayBsPABgqIAiFSEHJCCAAgIBAIiIHOCIgOdjqk8T+XeCCk1hGYqAeYybCPgAABAAAYAAAAAAIAADAAAAAAAAAAAA==
> <PUBCHEM_IUPAC_OPENEYE_NAME>
(2S)-N-tert-butyl-1-[(2S,3S)-2-hydroxy-3-[[(2R)-3-methylsulfonyl-2-[[2-(1-naphthyloxy)acetyl]amino]propanoyl]amino]-4-phenyl-butanoyl]-3,3-dimethyl-pyrrolidine-2-carboxamide
> <PUBCHEM_IUPAC_CAS_NAME>
(2S)-N-tert-butyl-1-[(2S,3S)-2-hydroxy-3-[[(2R)-3-methylsulfonyl-2-[[2-(1-naphthalenyloxy)-1-oxoethyl]amino]-1-oxopropyl]amino]-1-oxo-4-phenylbutyl]-3,3-dimethyl-2-pyrrolidinecarboxamide
> <PUBCHEM_IUPAC_NAME_MARKUP>
(2<I>S</I>)-<I>N</I>-<I>tert</I>-butyl-1-[(2<I>S</I>,3<I>S</I>)-2-hydroxy-3-[[(2<I>R</I>)-3-methylsulfonyl-2-[(2-naphthalen-1-yloxyacetyl)amino]propanoyl]amino]-4-phenylbutanoyl]-3,3-dimethylpyrrolidine-2-carboxamide
> <PUBCHEM_IUPAC_NAME>
(2S)-N-tert-butyl-1-[(2S,3S)-2-hydroxy-3-[[(2R)-3-methylsulfonyl-2-[(2-naphthalen-1-yloxyacetyl)amino]propanoyl]amino]-4-phenylbutanoyl]-3,3-dimethylpyrrolidine-2-carboxamide
> <PUBCHEM_IUPAC_SYSTEMATIC_NAME>
(2S)-N-tert-butyl-3,3-dimethyl-1-[(2S,3S)-3-[[(2R)-3-methylsulfonyl-2-(2-naphthalen-1-yloxyethanoylamino)propanoyl]amino]-2-oxidanyl-4-phenyl-butanoyl]pyrrolidine-2-carboxamide
> <PUBCHEM_IUPAC_TRADITIONAL_NAME>
(2S)-N-tert-butyl-1-[(2S,3S)-2-hydroxy-3-[[(2R)-3-mesyl-2-[[2-(1-naphthoxy)acetyl]amino]propanoyl]amino]-4-phenyl-butanoyl]-3,3-dimethyl-pyrrolidine-2-carboxamide
> <PUBCHEM_IUPAC_INCHI>
InChI=1S/C37H48N4O8S/c1-36(2,3)40-34(45)32-37(4,5)19-20-41(32)35(46)31(43)27(21-24-13-8-7-9-14-24)39-33(44)28(23-50(6,47)48)38-30(42)22-49-29-18-12-16-25-15-10-11-17-26(25)29/h7-18,27-28,31-32,43H,19-23H2,1-6H3,(H,38,42)(H,39,44)(H,40,45)/t27-,28-,31-,32+/m0/s1
> <PUBCHEM_IUPAC_INCHIKEY>
DFUNLPMVAZEMBL-IQXRZRKZSA-N
> <PUBCHEM_XLOGP3_AA>
3.8
> <PUBCHEM_EXACT_MASS>
708.31928568
> <PUBCHEM_MOLECULAR_FORMULA>
C37H48N4O8S
> <PUBCHEM_MOLECULAR_WEIGHT>
708.9
> <PUBCHEM_OPENEYE_CAN_SMILES>
CC1(CCN(C1C(=O)NC(C)(C)C)C(=O)C(C(CC2=CC=CC=C2)NC(=O)C(CS(=O)(=O)C)NC(=O)COC3=CC=CC4=CC=CC=C43)O)C
> <PUBCHEM_OPENEYE_ISO_SMILES>
CC1(CCN([C@@H]1C(=O)NC(C)(C)C)C(=O)[C@H]([C@H](CC2=CC=CC=C2)NC(=O)[C@H](CS(=O)(=O)C)NC(=O)COC3=CC=CC4=CC=CC=C43)O)C
> <PUBCHEM_CACTVS_TPSA>
180
> <PUBCHEM_MONOISOTOPIC_WEIGHT>
708.31928568
> <PUBCHEM_TOTAL_CHARGE>
0
> <PUBCHEM_HEAVY_ATOM_COUNT>
50
> <PUBCHEM_ATOM_DEF_STEREO_COUNT>
4
> <PUBCHEM_ATOM_UDEF_STEREO_COUNT>
0
> <PUBCHEM_BOND_DEF_STEREO_COUNT>
0
> <PUBCHEM_BOND_UDEF_STEREO_COUNT>
0
> <PUBCHEM_ISOTOPIC_ATOM_COUNT>
0
> <PUBCHEM_COMPONENT_COUNT>
1
> <PUBCHEM_CACTVS_TAUTO_COUNT>
-1
> <PUBCHEM_COORDINATE_TYPE>
1
5
255
> <PUBCHEM_BONDANNOTATIONS>
24  12  5
31  13  5
15  20  5
29  32  8
29  33  8
32  35  8
33  36  8
35  37  8
36  37  8
22  4  6
41  42  8
41  43  8
42  44  8
42  45  8
43  46  8
44  47  8
44  48  8
45  49  8
46  47  8
48  50  8
49  50  8
$$$$
