501805
  -OEChem-10302200282D
 91 94  0     1  0  0  0  0  0999 V2000
    2.0000    0.5691    0.0000 S   0  0  0  0  0  0  0  0  0  0  0  0
    8.7788   -2.7673    0.0000 S   0  0  0  0  0  0  0  0  0  0  0  0
    3.5827   -1.7673    0.0000 O   0  0  0  0  0  0  0  0  0  0  0  0
    5.3147    0.2327    0.0000 O   0  0  0  0  0  0  0  0  0  0  0  0
    5.1724    1.5873    0.0000 O   0  0  0  0  0  0  0  0  0  0  0  0
    7.0468   -2.7673    0.0000 O   0  0  0  0  0  0  0  0  0  0  0  0
    8.7788   -3.7673    0.0000 O   0  0  0  0  0  0  0  0  0  0  0  0
    7.7788   -2.7673    0.0000 O   0  0  0  0  0  0  0  0  0  0  0  0
    9.6448   -0.2673    0.0000 O   0  0  0  0  0  0  0  0  0  0  0  0
    3.5827    0.2327    0.0000 N   0  0  0  0  0  0  0  0  0  0  0  0
    6.1808   -1.2673    0.0000 N   0  0  0  0  0  0  0  0  0  0  0  0
    4.0134    2.8745    0.0000 N   0  0  0  0  0  0  0  0  0  0  0  0
    7.9128   -0.2673    0.0000 N   0  0  0  0  0  0  0  0  0  0  0  0
    9.6448    1.7327    0.0000 N   0  0  0  0  0  0  0  0  0  0  0  0
    3.4782    1.2272    0.0000 C   0  0  1  0  0  0  0  0  0  0  0  0
    5.3147   -1.7673    0.0000 C   0  0  2  0  0  0  0  0  0  0  0  0
    4.4487   -1.2673    0.0000 C   0  0  1  0  0  0  0  0  0  0  0  0
    2.5000    1.4351    0.0000 C   0  0  0  0  0  0  0  0  0  0  0  0
    4.4487   -0.2673    0.0000 C   0  0  0  0  0  0  0  0  0  0  0  0
    2.6691   -0.1741    0.0000 C   0  0  0  0  0  0  0  0  0  0  0  0
    5.3147   -2.7673    0.0000 C   0  0  0  0  0  0  0  0  0  0  0  0
    4.2213    1.8963    0.0000 C   0  0  0  0  0  0  0  0  0  0  0  0
    3.0623    3.1835    0.0000 C   0  0  0  0  0  0  0  0  0  0  0  0
    7.9128   -1.2673    0.0000 C   0  0  2  0  0  0  0  0  0  0  0  0
    7.0468   -1.7673    0.0000 C   0  0  0  0  0  0  0  0  0  0  0  0
    4.4487   -3.2673    0.0000 C   0  0  0  0  0  0  0  0  0  0  0  0
    8.7788   -1.7673    0.0000 C   0  0  0  0  0  0  0  0  0  0  0  0
    2.1113    3.4925    0.0000 C   0  0  0  0  0  0  0  0  0  0  0  0
    3.3713    4.1345    0.0000 C   0  0  0  0  0  0  0  0  0  0  0  0
    2.7533    2.2324    0.0000 C   0  0  0  0  0  0  0  0  0  0  0  0
    3.5827   -2.7673    0.0000 C   0  0  0  0  0  0  0  0  0  0  0  0
    4.4487   -4.2673    0.0000 C   0  0  0  0  0  0  0  0  0  0  0  0
    9.7788   -2.7673    0.0000 C   0  0  0  0  0  0  0  0  0  0  0  0
    8.7788    0.2327    0.0000 C   0  0  0  0  0  0  0  0  0  0  0  0
    2.7166   -3.2673    0.0000 C   0  0  0  0  0  0  0  0  0  0  0  0
    3.5827   -4.7673    0.0000 C   0  0  0  0  0  0  0  0  0  0  0  0
    2.7166   -4.2673    0.0000 C   0  0  0  0  0  0  0  0  0  0  0  0
    8.7788    1.2327    0.0000 C   0  0  0  0  0  0  0  0  0  0  0  0
    9.6448    2.7327    0.0000 C   0  0  0  0  0  0  0  0  0  0  0  0
   10.5109    3.2327    0.0000 C   0  0  0  0  0  0  0  0  0  0  0  0
   10.5109    4.2327    0.0000 C   0  0  0  0  0  0  0  0  0  0  0  0
    8.7788    3.2327    0.0000 C   0  0  0  0  0  0  0  0  0  0  0  0
   11.4048    2.6980    0.0000 C   0  0  0  0  0  0  0  0  0  0  0  0
    9.6448    4.7327    0.0000 C   0  0  0  0  0  0  0  0  0  0  0  0
    8.7788    4.2327    0.0000 C   0  0  0  0  0  0  0  0  0  0  0  0
   11.4048    4.7673    0.0000 C   0  0  0  0  0  0  0  0  0  0  0  0
   12.3109    3.2118    0.0000 C   0  0  0  0  0  0  0  0  0  0  0  0
   12.3109    4.2535    0.0000 C   0  0  0  0  0  0  0  0  0  0  0  0
    4.0570    1.0050    0.0000 H   0  0  0  0  0  0  0  0  0  0  0  0
    5.3147   -1.1473    0.0000 H   0  0  0  0  0  0  0  0  0  0  0  0
    3.9118   -0.9573    0.0000 H   0  0  0  0  0  0  0  0  0  0  0  0
    2.6916    2.0248    0.0000 H   0  0  0  0  0  0  0  0  0  0  0  0
    1.9336    1.6873    0.0000 H   0  0  0  0  0  0  0  0  0  0  0  0
    2.1675   -0.5385    0.0000 H   0  0  0  0  0  0  0  0  0  0  0  0
    2.9791   -0.7110    0.0000 H   0  0  0  0  0  0  0  0  0  0  0  0
    5.5268   -3.3499    0.0000 H   0  0  0  0  0  0  0  0  0  0  0  0
    5.9253   -2.6597    0.0000 H   0  0  0  0  0  0  0  0  0  0  0  0
    6.1808   -0.6473    0.0000 H   0  0  0  0  0  0  0  0  0  0  0  0
    4.4741    3.2893    0.0000 H   0  0  0  0  0  0  0  0  0  0  0  0
    8.4497   -0.9573    0.0000 H   0  0  0  0  0  0  0  0  0  0  0  0
    9.3894   -1.8750    0.0000 H   0  0  0  0  0  0  0  0  0  0  0  0
    8.9909   -1.1847    0.0000 H   0  0  0  0  0  0  0  0  0  0  0  0
    2.3029    4.0822    0.0000 H   0  0  0  0  0  0  0  0  0  0  0  0
    1.5216    3.6841    0.0000 H   0  0  0  0  0  0  0  0  0  0  0  0
    1.9197    2.9028    0.0000 H   0  0  0  0  0  0  0  0  0  0  0  0
    3.9610    3.9430    0.0000 H   0  0  0  0  0  0  0  0  0  0  0  0
    3.5629    4.7242    0.0000 H   0  0  0  0  0  0  0  0  0  0  0  0
    2.7817    4.3261    0.0000 H   0  0  0  0  0  0  0  0  0  0  0  0
    2.1636    2.4240    0.0000 H   0  0  0  0  0  0  0  0  0  0  0  0
    2.5617    1.6428    0.0000 H   0  0  0  0  0  0  0  0  0  0  0  0
    3.3430    2.0408    0.0000 H   0  0  0  0  0  0  0  0  0  0  0  0
    3.0457   -1.4573    0.0000 H   0  0  0  0  0  0  0  0  0  0  0  0
    7.3759    0.0427    0.0000 H   0  0  0  0  0  0  0  0  0  0  0  0
    3.5827   -2.1473    0.0000 H   0  0  0  0  0  0  0  0  0  0  0  0
    4.9856   -4.5773    0.0000 H   0  0  0  0  0  0  0  0  0  0  0  0
    9.7788   -3.3873    0.0000 H   0  0  0  0  0  0  0  0  0  0  0  0
   10.3988   -2.7673    0.0000 H   0  0  0  0  0  0  0  0  0  0  0  0
    9.7788   -2.1473    0.0000 H   0  0  0  0  0  0  0  0  0  0  0  0
    2.1797   -2.9573    0.0000 H   0  0  0  0  0  0  0  0  0  0  0  0
    3.5827   -5.3873    0.0000 H   0  0  0  0  0  0  0  0  0  0  0  0
    2.1797   -4.5773    0.0000 H   0  0  0  0  0  0  0  0  0  0  0  0
    8.5668    1.8153    0.0000 H   0  0  0  0  0  0  0  0  0  0  0  0
    8.1682    1.1250    0.0000 H   0  0  0  0  0  0  0  0  0  0  0  0
   10.1818    1.4227    0.0000 H   0  0  0  0  0  0  0  0  0  0  0  0
    8.2419    2.9227    0.0000 H   0  0  0  0  0  0  0  0  0  0  0  0
   11.3977    2.0780    0.0000 H   0  0  0  0  0  0  0  0  0  0  0  0
    9.6448    5.3527    0.0000 H   0  0  0  0  0  0  0  0  0  0  0  0
    8.2419    4.5427    0.0000 H   0  0  0  0  0  0  0  0  0  0  0  0
   11.3977    5.3873    0.0000 H   0  0  0  0  0  0  0  0  0  0  0  0
   12.8466    2.8998    0.0000 H   0  0  0  0  0  0  0  0  0  0  0  0
   12.8466    4.5656    0.0000 H   0  0  0  0  0  0  0  0  0  0  0  0
  1 18  1  0  0  0  0
  1 20  1  0  0  0  0
  2  7  2  0  0  0  0
  2  8  2  0  0  0  0
  2 27  1  0  0  0  0
  2 33  1  0  0  0  0
 17  3  1  6  0  0  0
  3 72  1  0  0  0  0
  4 19  2  0  0  0  0
  5 22  2  0  0  0  0
  6 25  2  0  0  0  0
  9 34  2  0  0  0  0
 10 15  1  0  0  0  0
 10 19  1  0  0  0  0
 10 20  1  0  0  0  0
 16 11  1  1  0  0  0
 11 25  1  0  0  0  0
 11 58  1  0  0  0  0
 12 22  1  0  0  0  0
 12 23  1  0  0  0  0
 12 59  1  0  0  0  0
 24 13  1  1  0  0  0
 13 34  1  0  0  0  0
 13 73  1  0  0  0  0
 14 38  1  0  0  0  0
 14 39  1  0  0  0  0
 14 84  1  0  0  0  0
 15 18  1  0  0  0  0
 15 22  1  1  0  0  0
 15 49  1  0  0  0  0
 16 17  1  0  0  0  0
 16 21  1  0  0  0  0
 16 50  1  0  0  0  0
 17 19  1  0  0  0  0
 17 51  1  0  0  0  0
 18 52  1  0  0  0  0
 18 53  1  0  0  0  0
 20 54  1  0  0  0  0
 20 55  1  0  0  0  0
 21 26  1  0  0  0  0
 21 56  1  0  0  0  0
 21 57  1  0  0  0  0
 23 28  1  0  0  0  0
 23 29  1  0  0  0  0
 23 30  1  0  0  0  0
 24 25  1  0  0  0  0
 24 27  1  0  0  0  0
 24 60  1  0  0  0  0
 26 31  2  0  0  0  0
 26 32  1  0  0  0  0
 27 61  1  0  0  0  0
 27 62  1  0  0  0  0
 28 63  1  0  0  0  0
 28 64  1  0  0  0  0
 28 65  1  0  0  0  0
 29 66  1  0  0  0  0
 29 67  1  0  0  0  0
 29 68  1  0  0  0  0
 30 69  1  0  0  0  0
 30 70  1  0  0  0  0
 30 71  1  0  0  0  0
 31 35  1  0  0  0  0
 31 74  1  0  0  0  0
 32 36  2  0  0  0  0
 32 75  1  0  0  0  0
 33 76  1  0  0  0  0
 33 77  1  0  0  0  0
 33 78  1  0  0  0  0
 34 38  1  0  0  0  0
 35 37  2  0  0  0  0
 35 79  1  0  0  0  0
 36 37  1  0  0  0  0
 36 80  1  0  0  0  0
 37 81  1  0  0  0  0
 38 82  1  0  0  0  0
 38 83  1  0  0  0  0
 39 40  1  0  0  0  0
 39 42  2  0  0  0  0
 40 41  1  0  0  0  0
 40 43  2  0  0  0  0
 41 44  1  0  0  0  0
 41 46  2  0  0  0  0
 42 45  1  0  0  0  0
 42 85  1  0  0  0  0
 43 47  1  0  0  0  0
 43 86  1  0  0  0  0
 44 45  2  0  0  0  0
 44 87  1  0  0  0  0
 45 88  1  0  0  0  0
 46 48  1  0  0  0  0
 46 89  1  0  0  0  0
 47 48  2  0  0  0  0
 47 90  1  0  0  0  0
 48 91  1  0  0  0  0
M  END
> <PUBCHEM_COMPOUND_CID>
501805
> <PUBCHEM_COMPOUND_CANONICALIZED>
1
> <PUBCHEM_CACTVS_COMPLEXITY>
1230
> <PUBCHEM_CACTVS_HBOND_ACCEPTOR>
9
> <PUBCHEM_CACTVS_HBOND_DONOR>
5
> <PUBCHEM_CACTVS_ROTATABLE_BOND>
14
> <PUBCHEM_CACTVS_SUBSKEYS>
AAADcfB/uABgAAAAAAAAAAAAAAAAAWAAAAAwYMAAAAAAAADBVAAAHgQQCAAADLzl2AaywMPAAgqIAiVSUHLCAABhAhAIiIHIZIgKcDrg0bGUYAhklgDYyAeYyKCOgAAAQAASAAAAAACAACQAAAAAAAAAAA==
> <PUBCHEM_IUPAC_OPENEYE_NAME>
(4R)-N-tert-butyl-3-[(2S,3S)-2-hydroxy-3-[[(2R)-3-methylsulfonyl-2-[[2-(1-naphthylamino)acetyl]amino]propanoyl]amino]-4-phenyl-butanoyl]thiazolidine-4-carboxamide
> <PUBCHEM_IUPAC_CAS_NAME>
(4R)-N-tert-butyl-3-[(2S,3S)-2-hydroxy-3-[[(2R)-3-methylsulfonyl-2-[[2-(1-naphthalenylamino)-1-oxoethyl]amino]-1-oxopropyl]amino]-1-oxo-4-phenylbutyl]-4-thiazolidinecarboxamide
> <PUBCHEM_IUPAC_NAME_MARKUP>
(4<I>R</I>)-<I>N</I>-<I>tert</I>-butyl-3-[(2<I>S</I>,3<I>S</I>)-2-hydroxy-3-[[(2<I>R</I>)-3-methylsulfonyl-2-[[2-(naphthalen-1-ylamino)acetyl]amino]propanoyl]amino]-4-phenylbutanoyl]-1,3-thiazolidine-4-carboxamide
> <PUBCHEM_IUPAC_NAME>
(4R)-N-tert-butyl-3-[(2S,3S)-2-hydroxy-3-[[(2R)-3-methylsulfonyl-2-[[2-(naphthalen-1-ylamino)acetyl]amino]propanoyl]amino]-4-phenylbutanoyl]-1,3-thiazolidine-4-carboxamide
> <PUBCHEM_IUPAC_SYSTEMATIC_NAME>
(4R)-N-tert-butyl-3-[(2S,3S)-3-[[(2R)-3-methylsulfonyl-2-[2-(naphthalen-1-ylamino)ethanoylamino]propanoyl]amino]-2-oxidanyl-4-phenyl-butanoyl]-1,3-thiazolidine-4-carboxamide
> <PUBCHEM_IUPAC_TRADITIONAL_NAME>
(4R)-N-tert-butyl-3-[(2S,3S)-2-hydroxy-3-[[(2R)-3-mesyl-2-[[2-(1-naphthylamino)acetyl]amino]propanoyl]amino]-4-phenyl-butanoyl]thiazolidine-4-carboxamide
> <PUBCHEM_IUPAC_INCHI>
InChI=1S/C34H43N5O7S2/c1-34(2,3)38-32(43)28-19-47-21-39(28)33(44)30(41)26(17-22-11-6-5-7-12-22)37-31(42)27(20-48(4,45)46)36-29(40)18-35-25-16-10-14-23-13-8-9-15-24(23)25/h5-16,26-28,30,35,41H,17-21H2,1-4H3,(H,36,40)(H,37,42)(H,38,43)/t26-,27-,28-,30-/m0/s1
> <PUBCHEM_IUPAC_INCHIKEY>
HIZUDCGSXQGGQX-NUISNXNRSA-N
> <PUBCHEM_XLOGP3_AA>
3
> <PUBCHEM_EXACT_MASS>
697.26039107
> <PUBCHEM_MOLECULAR_FORMULA>
C34H43N5O7S2
> <PUBCHEM_MOLECULAR_WEIGHT>
697.9
> <PUBCHEM_OPENEYE_CAN_SMILES>
CC(C)(C)NC(=O)C1CSCN1C(=O)C(C(CC2=CC=CC=C2)NC(=O)C(CS(=O)(=O)C)NC(=O)CNC3=CC=CC4=CC=CC=C43)O
> <PUBCHEM_OPENEYE_ISO_SMILES>
CC(C)(C)NC(=O)[C@@H]1CSCN1C(=O)[C@H]([C@H](CC2=CC=CC=C2)NC(=O)[C@H](CS(=O)(=O)C)NC(=O)CNC3=CC=CC4=CC=CC=C43)O
> <PUBCHEM_CACTVS_TPSA>
208
> <PUBCHEM_MONOISOTOPIC_WEIGHT>
697.26039107
> <PUBCHEM_TOTAL_CHARGE>
0
> <PUBCHEM_HEAVY_ATOM_COUNT>
48
> <PUBCHEM_ATOM_DEF_STEREO_COUNT>
4
> <PUBCHEM_ATOM_UDEF_STEREO_COUNT>
0
> <PUBCHEM_BOND_DEF_STEREO_COUNT>
0
> <PUBCHEM_BOND_UDEF_STEREO_COUNT>
0
> <PUBCHEM_ISOTOPIC_ATOM_COUNT>
0
> <PUBCHEM_COMPONENT_COUNT>
1
> <PUBCHEM_CACTVS_TAUTO_COUNT>
-1
> <PUBCHEM_COORDINATE_TYPE>
1
5
255
> <PUBCHEM_BONDANNOTATIONS>
16  11  5
24  13  5
15  22  5
26  31  8
26  32  8
17  3  6
31  35  8
32  36  8
35  37  8
36  37  8
39  40  8
39  42  8
40  41  8
40  43  8
41  44  8
41  46  8
42  45  8
43  47  8
44  45  8
46  48  8
47  48  8
$$$$
