501837
  -OEChem-10302200282D
 97101  0     1  0  0  0  0  0999 V2000
    2.0000    0.5118    0.0000 S   0  0  0  0  0  0  0  0  0  0  0  0
    8.7788   -2.8246    0.0000 S   0  0  0  0  0  0  0  0  0  0  0  0
    5.1724    1.5300    0.0000 O   0  0  0  0  0  0  0  0  0  0  0  0
    6.4507    3.8464    0.0000 O   0  0  0  0  0  0  0  0  0  0  0  0
    3.5827   -1.8246    0.0000 O   0  0  0  0  0  0  0  0  0  0  0  0
    5.3147    0.1754    0.0000 O   0  0  0  0  0  0  0  0  0  0  0  0
    5.9155    2.1992    0.0000 O   0  0  0  0  0  0  0  0  0  0  0  0
    7.0468   -2.8246    0.0000 O   0  0  0  0  0  0  0  0  0  0  0  0
    8.7788   -3.8246    0.0000 O   0  0  0  0  0  0  0  0  0  0  0  0
    7.7788   -2.8246    0.0000 O   0  0  0  0  0  0  0  0  0  0  0  0
    9.6448   -0.3246    0.0000 O   0  0  0  0  0  0  0  0  0  0  0  0
    9.6448    1.6754    0.0000 O   0  0  0  0  0  0  0  0  0  0  0  0
    4.0134    2.8172    0.0000 N   0  0  0  0  0  0  0  0  0  0  0  0
    3.5827    0.1754    0.0000 N   0  0  0  0  0  0  0  0  0  0  0  0
    6.1808   -1.3246    0.0000 N   0  0  0  0  0  0  0  0  0  0  0  0
    7.9128   -0.3246    0.0000 N   0  0  0  0  0  0  0  0  0  0  0  0
    4.7565    3.4863    0.0000 C   0  0  1  0  0  0  0  0  0  0  0  0
    4.5486    4.4645    0.0000 C   0  0  0  0  0  0  0  0  0  0  0  0
    3.4782    1.1699    0.0000 C   0  0  2  0  0  0  0  0  0  0  0  0
    3.0623    3.1262    0.0000 C   0  0  0  0  0  0  0  0  0  0  0  0
    3.5976    4.7735    0.0000 C   0  0  0  0  0  0  0  0  0  0  0  0
    2.8544    4.1044    0.0000 C   0  0  0  0  0  0  0  0  0  0  0  0
    4.2213    1.8391    0.0000 C   0  0  0  0  0  0  0  0  0  0  0  0
    2.5000    1.3778    0.0000 C   0  0  0  0  0  0  0  0  0  0  0  0
    2.6691   -0.2313    0.0000 C   0  0  0  0  0  0  0  0  0  0  0  0
    4.4487   -0.3246    0.0000 C   0  0  0  0  0  0  0  0  0  0  0  0
    5.7076    3.1773    0.0000 C   0  0  0  0  0  0  0  0  0  0  0  0
    4.4487   -1.3246    0.0000 C   0  0  2  0  0  0  0  0  0  0  0  0
    5.3147   -1.8246    0.0000 C   0  0  2  0  0  0  0  0  0  0  0  0
    5.3147   -2.8246    0.0000 C   0  0  0  0  0  0  0  0  0  0  0  0
    4.4487   -3.3246    0.0000 C   0  0  0  0  0  0  0  0  0  0  0  0
    7.0468   -1.8246    0.0000 C   0  0  0  0  0  0  0  0  0  0  0  0
    7.9128   -1.3246    0.0000 C   0  0  2  0  0  0  0  0  0  0  0  0
    8.7788   -1.8246    0.0000 C   0  0  0  0  0  0  0  0  0  0  0  0
    6.2428    4.8246    0.0000 C   0  0  0  0  0  0  0  0  0  0  0  0
    3.5827   -2.8246    0.0000 C   0  0  0  0  0  0  0  0  0  0  0  0
    4.4487   -4.3246    0.0000 C   0  0  0  0  0  0  0  0  0  0  0  0
    2.7166   -3.3246    0.0000 C   0  0  0  0  0  0  0  0  0  0  0  0
    3.5827   -4.8246    0.0000 C   0  0  0  0  0  0  0  0  0  0  0  0
    9.7788   -2.8246    0.0000 C   0  0  0  0  0  0  0  0  0  0  0  0
    8.7788    0.1754    0.0000 C   0  0  0  0  0  0  0  0  0  0  0  0
    2.7166   -4.3246    0.0000 C   0  0  0  0  0  0  0  0  0  0  0  0
    8.7788    1.1754    0.0000 C   0  0  0  0  0  0  0  0  0  0  0  0
    9.6448    2.6754    0.0000 C   0  0  0  0  0  0  0  0  0  0  0  0
   10.5109    3.1754    0.0000 C   0  0  0  0  0  0  0  0  0  0  0  0
   10.5109    4.1754    0.0000 C   0  0  0  0  0  0  0  0  0  0  0  0
    8.7788    3.1754    0.0000 C   0  0  0  0  0  0  0  0  0  0  0  0
   11.4048    2.6407    0.0000 C   0  0  0  0  0  0  0  0  0  0  0  0
    9.6448    4.6754    0.0000 C   0  0  0  0  0  0  0  0  0  0  0  0
    8.7788    4.1754    0.0000 C   0  0  0  0  0  0  0  0  0  0  0  0
   11.4048    4.7101    0.0000 C   0  0  0  0  0  0  0  0  0  0  0  0
   12.3109    3.1546    0.0000 C   0  0  0  0  0  0  0  0  0  0  0  0
   12.3109    4.1962    0.0000 C   0  0  0  0  0  0  0  0  0  0  0  0
    4.8854    2.8799    0.0000 H   0  0  0  0  0  0  0  0  0  0  0  0
    5.1682    4.4861    0.0000 H   0  0  0  0  0  0  0  0  0  0  0  0
    4.6349    5.0784    0.0000 H   0  0  0  0  0  0  0  0  0  0  0  0
    4.0570    0.9477    0.0000 H   0  0  0  0  0  0  0  0  0  0  0  0
    2.4427    3.1046    0.0000 H   0  0  0  0  0  0  0  0  0  0  0  0
    2.9760    2.5122    0.0000 H   0  0  0  0  0  0  0  0  0  0  0  0
    3.8886    5.3209    0.0000 H   0  0  0  0  0  0  0  0  0  0  0  0
    3.1090    5.1552    0.0000 H   0  0  0  0  0  0  0  0  0  0  0  0
    2.5259    4.6302    0.0000 H   0  0  0  0  0  0  0  0  0  0  0  0
    2.2796    3.8721    0.0000 H   0  0  0  0  0  0  0  0  0  0  0  0
    2.6916    1.9675    0.0000 H   0  0  0  0  0  0  0  0  0  0  0  0
    1.9336    1.6300    0.0000 H   0  0  0  0  0  0  0  0  0  0  0  0
    2.1675   -0.5958    0.0000 H   0  0  0  0  0  0  0  0  0  0  0  0
    2.9791   -0.7683    0.0000 H   0  0  0  0  0  0  0  0  0  0  0  0
    3.9118   -1.0146    0.0000 H   0  0  0  0  0  0  0  0  0  0  0  0
    5.3147   -1.2046    0.0000 H   0  0  0  0  0  0  0  0  0  0  0  0
    5.5268   -3.4072    0.0000 H   0  0  0  0  0  0  0  0  0  0  0  0
    5.9253   -2.7169    0.0000 H   0  0  0  0  0  0  0  0  0  0  0  0
    6.1808   -0.7046    0.0000 H   0  0  0  0  0  0  0  0  0  0  0  0
    8.4497   -1.0146    0.0000 H   0  0  0  0  0  0  0  0  0  0  0  0
    3.0457   -1.5146    0.0000 H   0  0  0  0  0  0  0  0  0  0  0  0
    9.3894   -1.9323    0.0000 H   0  0  0  0  0  0  0  0  0  0  0  0
    8.9909   -1.2420    0.0000 H   0  0  0  0  0  0  0  0  0  0  0  0
    6.8493    4.9535    0.0000 H   0  0  0  0  0  0  0  0  0  0  0  0
    6.1139    5.4310    0.0000 H   0  0  0  0  0  0  0  0  0  0  0  0
    5.6364    4.6957    0.0000 H   0  0  0  0  0  0  0  0  0  0  0  0
    3.5827   -2.2046    0.0000 H   0  0  0  0  0  0  0  0  0  0  0  0
    4.9856   -4.6346    0.0000 H   0  0  0  0  0  0  0  0  0  0  0  0
    7.3759   -0.0146    0.0000 H   0  0  0  0  0  0  0  0  0  0  0  0
    2.1797   -3.0146    0.0000 H   0  0  0  0  0  0  0  0  0  0  0  0
    3.5827   -5.4446    0.0000 H   0  0  0  0  0  0  0  0  0  0  0  0
    9.7788   -3.4446    0.0000 H   0  0  0  0  0  0  0  0  0  0  0  0
   10.3988   -2.8246    0.0000 H   0  0  0  0  0  0  0  0  0  0  0  0
    9.7788   -2.2046    0.0000 H   0  0  0  0  0  0  0  0  0  0  0  0
    2.1797   -4.6346    0.0000 H   0  0  0  0  0  0  0  0  0  0  0  0
    8.5668    1.7580    0.0000 H   0  0  0  0  0  0  0  0  0  0  0  0
    8.1682    1.0677    0.0000 H   0  0  0  0  0  0  0  0  0  0  0  0
    8.2419    2.8654    0.0000 H   0  0  0  0  0  0  0  0  0  0  0  0
   11.3977    2.0208    0.0000 H   0  0  0  0  0  0  0  0  0  0  0  0
    9.6448    5.2954    0.0000 H   0  0  0  0  0  0  0  0  0  0  0  0
    8.2419    4.4854    0.0000 H   0  0  0  0  0  0  0  0  0  0  0  0
   11.3977    5.3300    0.0000 H   0  0  0  0  0  0  0  0  0  0  0  0
   12.8466    2.8425    0.0000 H   0  0  0  0  0  0  0  0  0  0  0  0
   12.8466    4.5083    0.0000 H   0  0  0  0  0  0  0  0  0  0  0  0
  1 24  1  0  0  0  0
  1 25  1  0  0  0  0
  2  9  2  0  0  0  0
  2 10  2  0  0  0  0
  2 34  1  0  0  0  0
  2 40  1  0  0  0  0
  3 23  2  0  0  0  0
  4 27  1  0  0  0  0
  4 35  1  0  0  0  0
 28  5  1  6  0  0  0
  5 74  1  0  0  0  0
  6 26  2  0  0  0  0
  7 27  2  0  0  0  0
  8 32  2  0  0  0  0
 11 41  2  0  0  0  0
 12 43  1  0  0  0  0
 12 44  1  0  0  0  0
 13 17  1  0  0  0  0
 13 20  1  0  0  0  0
 13 23  1  0  0  0  0
 14 19  1  0  0  0  0
 14 25  1  0  0  0  0
 14 26  1  0  0  0  0
 29 15  1  1  0  0  0
 15 32  1  0  0  0  0
 15 72  1  0  0  0  0
 33 16  1  1  0  0  0
 16 41  1  0  0  0  0
 16 82  1  0  0  0  0
 17 18  1  0  0  0  0
 17 27  1  1  0  0  0
 17 54  1  0  0  0  0
 18 21  1  0  0  0  0
 18 55  1  0  0  0  0
 18 56  1  0  0  0  0
 19 23  1  1  0  0  0
 19 24  1  0  0  0  0
 19 57  1  0  0  0  0
 20 22  1  0  0  0  0
 20 58  1  0  0  0  0
 20 59  1  0  0  0  0
 21 22  1  0  0  0  0
 21 60  1  0  0  0  0
 21 61  1  0  0  0  0
 22 62  1  0  0  0  0
 22 63  1  0  0  0  0
 24 64  1  0  0  0  0
 24 65  1  0  0  0  0
 25 66  1  0  0  0  0
 25 67  1  0  0  0  0
 26 28  1  0  0  0  0
 28 29  1  0  0  0  0
 28 68  1  0  0  0  0
 29 30  1  0  0  0  0
 29 69  1  0  0  0  0
 30 31  1  0  0  0  0
 30 70  1  0  0  0  0
 30 71  1  0  0  0  0
 31 36  2  0  0  0  0
 31 37  1  0  0  0  0
 32 33  1  0  0  0  0
 33 34  1  0  0  0  0
 33 73  1  0  0  0  0
 34 75  1  0  0  0  0
 34 76  1  0  0  0  0
 35 77  1  0  0  0  0
 35 78  1  0  0  0  0
 35 79  1  0  0  0  0
 36 38  1  0  0  0  0
 36 80  1  0  0  0  0
 37 39  2  0  0  0  0
 37 81  1  0  0  0  0
 38 42  2  0  0  0  0
 38 83  1  0  0  0  0
 39 42  1  0  0  0  0
 39 84  1  0  0  0  0
 40 85  1  0  0  0  0
 40 86  1  0  0  0  0
 40 87  1  0  0  0  0
 41 43  1  0  0  0  0
 42 88  1  0  0  0  0
 43 89  1  0  0  0  0
 43 90  1  0  0  0  0
 44 45  1  0  0  0  0
 44 47  2  0  0  0  0
 45 46  1  0  0  0  0
 45 48  2  0  0  0  0
 46 49  1  0  0  0  0
 46 51  2  0  0  0  0
 47 50  1  0  0  0  0
 47 91  1  0  0  0  0
 48 52  1  0  0  0  0
 48 92  1  0  0  0  0
 49 50  2  0  0  0  0
 49 93  1  0  0  0  0
 50 94  1  0  0  0  0
 51 53  1  0  0  0  0
 51 95  1  0  0  0  0
 52 53  2  0  0  0  0
 52 96  1  0  0  0  0
 53 97  1  0  0  0  0
M  END
> <PUBCHEM_COMPOUND_CID>
501837
> <PUBCHEM_COMPOUND_CANONICALIZED>
1
> <PUBCHEM_CACTVS_COMPLEXITY>
1400
> <PUBCHEM_CACTVS_HBOND_ACCEPTOR>
11
> <PUBCHEM_CACTVS_HBOND_DONOR>
3
> <PUBCHEM_CACTVS_ROTATABLE_BOND>
15
> <PUBCHEM_CACTVS_SUBSKEYS>
AAADcfB/vABgAAAAAAAAAAAAAAAAAWAAAAA8YMEAAAAAAADBVAAAHgQQCAAADDzl2AayDsPABgqIAiHSGHJCCABgIBAIiIHOCIgOdjqk8T+XeCCk1hGYqAeYyLCOgAABAAAYAAAAAAIAADAAAAAAAAAAAA==
> <PUBCHEM_IUPAC_OPENEYE_NAME>
methyl (2S)-1-[(4R)-3-[(2S,3S)-2-hydroxy-3-[[(2R)-3-methylsulfonyl-2-[[2-(1-naphthyloxy)acetyl]amino]propanoyl]amino]-4-phenyl-butanoyl]thiazolidine-4-carbonyl]piperidine-2-carboxylate
> <PUBCHEM_IUPAC_CAS_NAME>
(2S)-1-[[(4R)-3-[(2S,3S)-2-hydroxy-3-[[(2R)-3-methylsulfonyl-2-[[2-(1-naphthalenyloxy)-1-oxoethyl]amino]-1-oxopropyl]amino]-1-oxo-4-phenylbutyl]-4-thiazolidinyl]-oxomethyl]-2-piperidinecarboxylic acid methyl ester
> <PUBCHEM_IUPAC_NAME_MARKUP>
methyl (2<I>S</I>)-1-[(4<I>R</I>)-3-[(2<I>S</I>,3<I>S</I>)-2-hydroxy-3-[[(2<I>R</I>)-3-methylsulfonyl-2-[(2-naphthalen-1-yloxyacetyl)amino]propanoyl]amino]-4-phenylbutanoyl]-1,3-thiazolidine-4-carbonyl]piperidine-2-carboxylate
> <PUBCHEM_IUPAC_NAME>
methyl (2S)-1-[(4R)-3-[(2S,3S)-2-hydroxy-3-[[(2R)-3-methylsulfonyl-2-[(2-naphthalen-1-yloxyacetyl)amino]propanoyl]amino]-4-phenylbutanoyl]-1,3-thiazolidine-4-carbonyl]piperidine-2-carboxylate
> <PUBCHEM_IUPAC_SYSTEMATIC_NAME>
methyl (2S)-1-[[(4R)-3-[(2S,3S)-3-[[(2R)-3-methylsulfonyl-2-(2-naphthalen-1-yloxyethanoylamino)propanoyl]amino]-2-oxidanyl-4-phenyl-butanoyl]-1,3-thiazolidin-4-yl]carbonyl]piperidine-2-carboxylate
> <PUBCHEM_IUPAC_TRADITIONAL_NAME>
(2S)-1-[(4R)-3-[(2S,3S)-2-hydroxy-3-[[(2R)-3-mesyl-2-[[2-(1-naphthoxy)acetyl]amino]propanoyl]amino]-4-phenyl-butanoyl]thiazolidine-4-carbonyl]pipecolinic acid methyl ester
> <PUBCHEM_IUPAC_INCHI>
InChI=1S/C37H44N4O10S2/c1-50-37(47)29-16-8-9-18-40(29)35(45)30-21-52-23-41(30)36(46)33(43)27(19-24-11-4-3-5-12-24)39-34(44)28(22-53(2,48)49)38-32(42)20-51-31-17-10-14-25-13-6-7-15-26(25)31/h3-7,10-15,17,27-30,33,43H,8-9,16,18-23H2,1-2H3,(H,38,42)(H,39,44)/t27-,28-,29-,30-,33-/m0/s1
> <PUBCHEM_IUPAC_INCHIKEY>
ZUYVFMHDJBWIPX-UGNXYXNMSA-N
> <PUBCHEM_XLOGP3_AA>
3
> <PUBCHEM_EXACT_MASS>
768.24988596
> <PUBCHEM_MOLECULAR_FORMULA>
C37H44N4O10S2
> <PUBCHEM_MOLECULAR_WEIGHT>
768.9
> <PUBCHEM_OPENEYE_CAN_SMILES>
COC(=O)C1CCCCN1C(=O)C2CSCN2C(=O)C(C(CC3=CC=CC=C3)NC(=O)C(CS(=O)(=O)C)NC(=O)COC4=CC=CC5=CC=CC=C54)O
> <PUBCHEM_OPENEYE_ISO_SMILES>
COC(=O)[C@@H]1CCCCN1C(=O)[C@@H]2CSCN2C(=O)[C@H]([C@H](CC3=CC=CC=C3)NC(=O)[C@H](CS(=O)(=O)C)NC(=O)COC4=CC=CC5=CC=CC=C54)O
> <PUBCHEM_CACTVS_TPSA>
222
> <PUBCHEM_MONOISOTOPIC_WEIGHT>
768.24988596
> <PUBCHEM_TOTAL_CHARGE>
0
> <PUBCHEM_HEAVY_ATOM_COUNT>
53
> <PUBCHEM_ATOM_DEF_STEREO_COUNT>
5
> <PUBCHEM_ATOM_UDEF_STEREO_COUNT>
0
> <PUBCHEM_BOND_DEF_STEREO_COUNT>
0
> <PUBCHEM_BOND_UDEF_STEREO_COUNT>
0
> <PUBCHEM_ISOTOPIC_ATOM_COUNT>
0
> <PUBCHEM_COMPONENT_COUNT>
1
> <PUBCHEM_CACTVS_TAUTO_COUNT>
-1
> <PUBCHEM_COORDINATE_TYPE>
1
5
255
> <PUBCHEM_BONDANNOTATIONS>
29  15  5
33  16  5
17  27  5
19  23  5
31  36  8
31  37  8
36  38  8
37  39  8
38  42  8
39  42  8
44  45  8
44  47  8
45  46  8
45  48  8
46  49  8
46  51  8
47  50  8
48  52  8
49  50  8
28  5  6
51  53  8
52  53  8
$$$$
