501811
  -OEChem-10302200282D
 92 95  0     1  0  0  0  0  0999 V2000
    6.3301   -4.0191    0.0000 S   0  0  0  0  0  0  0  0  0  0  0  0
    4.5981    0.9809    0.0000 O   0  0  0  0  0  0  0  0  0  0  0  0
    7.1962    0.4809    0.0000 O   0  0  0  0  0  0  0  0  0  0  0  0
    8.2981    1.2815    0.0000 O   0  0  0  0  0  0  0  0  0  0  0  0
    5.4641   -2.5191    0.0000 O   0  0  0  0  0  0  0  0  0  0  0  0
    5.4641   -4.5191    0.0000 O   0  0  0  0  0  0  0  0  0  0  0  0
    5.8301   -3.1531    0.0000 O   0  0  0  0  0  0  0  0  0  0  0  0
    8.9282   -3.5191    0.0000 O   0  0  0  0  0  0  0  0  0  0  0  0
   10.6603   -2.5191    0.0000 O   0  0  0  0  0  0  0  0  0  0  0  0
    6.3301    1.9809    0.0000 N   0  0  0  0  0  0  0  0  0  0  0  0
    8.8334    2.9288    0.0000 N   0  0  0  0  0  0  0  0  0  0  0  0
    6.3301   -1.0191    0.0000 N   0  0  0  0  0  0  0  0  0  0  0  0
    8.0622   -2.0191    0.0000 N   0  0  0  0  0  0  0  0  0  0  0  0
    7.1391    2.5687    0.0000 C   0  0  1  0  0  0  0  0  0  0  0  0
    6.8301    3.5198    0.0000 C   0  0  0  0  0  0  0  0  0  0  0  0
    5.8301    3.5198    0.0000 C   0  0  0  0  0  0  0  0  0  0  0  0
    5.5211    2.5687    0.0000 C   0  0  0  0  0  0  0  0  0  0  0  0
    6.3301    0.9809    0.0000 C   0  0  0  0  0  0  0  0  0  0  0  0
    8.0902    2.2597    0.0000 C   0  0  0  0  0  0  0  0  0  0  0  0
    5.4641    0.4809    0.0000 C   0  0  2  0  0  0  0  0  0  0  0  0
    5.4641   -0.5191    0.0000 C   0  0  2  0  0  0  0  0  0  0  0  0
    8.6254    3.9070    0.0000 C   0  0  0  0  0  0  0  0  0  0  0  0
    4.5981   -1.0191    0.0000 C   0  0  0  0  0  0  0  0  0  0  0  0
    8.4175    4.8851    0.0000 C   0  0  0  0  0  0  0  0  0  0  0  0
    9.6036    4.1149    0.0000 C   0  0  0  0  0  0  0  0  0  0  0  0
    7.6473    3.6990    0.0000 C   0  0  0  0  0  0  0  0  0  0  0  0
    3.7320   -0.5191    0.0000 C   0  0  0  0  0  0  0  0  0  0  0  0
    6.3301   -2.0191    0.0000 C   0  0  0  0  0  0  0  0  0  0  0  0
    7.1962   -2.5191    0.0000 C   0  0  2  0  0  0  0  0  0  0  0  0
    7.1962   -3.5191    0.0000 C   0  0  0  0  0  0  0  0  0  0  0  0
    3.7320    0.4809    0.0000 C   0  0  0  0  0  0  0  0  0  0  0  0
    2.8660   -1.0191    0.0000 C   0  0  0  0  0  0  0  0  0  0  0  0
    2.8660    0.9809    0.0000 C   0  0  0  0  0  0  0  0  0  0  0  0
    2.0000   -0.5191    0.0000 C   0  0  0  0  0  0  0  0  0  0  0  0
    6.8301   -4.8851    0.0000 C   0  0  0  0  0  0  0  0  0  0  0  0
    2.0000    0.4809    0.0000 C   0  0  0  0  0  0  0  0  0  0  0  0
    8.9282   -2.5191    0.0000 C   0  0  0  0  0  0  0  0  0  0  0  0
    9.7942   -2.0191    0.0000 C   0  0  0  0  0  0  0  0  0  0  0  0
   11.5263   -2.0191    0.0000 C   0  0  0  0  0  0  0  0  0  0  0  0
   12.3923   -2.5191    0.0000 C   0  0  0  0  0  0  0  0  0  0  0  0
   11.5263   -1.0191    0.0000 C   0  0  0  0  0  0  0  0  0  0  0  0
   13.2583   -2.0191    0.0000 C   0  0  0  0  0  0  0  0  0  0  0  0
   13.2583   -1.0191    0.0000 C   0  0  0  0  0  0  0  0  0  0  0  0
   12.3923   -0.5191    0.0000 C   0  0  0  0  0  0  0  0  0  0  0  0
   14.1523   -2.5538    0.0000 C   0  0  0  0  0  0  0  0  0  0  0  0
   14.1523   -0.4844    0.0000 C   0  0  0  0  0  0  0  0  0  0  0  0
   15.0583   -2.0399    0.0000 C   0  0  0  0  0  0  0  0  0  0  0  0
   15.0583   -0.9983    0.0000 C   0  0  0  0  0  0  0  0  0  0  0  0
    7.2361    1.9563    0.0000 H   0  0  0  0  0  0  0  0  0  0  0  0
    7.4366    3.6487    0.0000 H   0  0  0  0  0  0  0  0  0  0  0  0
    6.7653    4.1364    0.0000 H   0  0  0  0  0  0  0  0  0  0  0  0
    5.8949    4.1364    0.0000 H   0  0  0  0  0  0  0  0  0  0  0  0
    5.2237    3.6487    0.0000 H   0  0  0  0  0  0  0  0  0  0  0  0
    4.9547    2.8209    0.0000 H   0  0  0  0  0  0  0  0  0  0  0  0
    5.2111    2.0318    0.0000 H   0  0  0  0  0  0  0  0  0  0  0  0
    5.4641    1.1009    0.0000 H   0  0  0  0  0  0  0  0  0  0  0  0
    5.4641   -1.1391    0.0000 H   0  0  0  0  0  0  0  0  0  0  0  0
    9.4230    2.7372    0.0000 H   0  0  0  0  0  0  0  0  0  0  0  0
    4.1996   -1.4940    0.0000 H   0  0  0  0  0  0  0  0  0  0  0  0
    4.9966   -1.4940    0.0000 H   0  0  0  0  0  0  0  0  0  0  0  0
    6.8671   -0.7091    0.0000 H   0  0  0  0  0  0  0  0  0  0  0  0
    9.0240    5.0140    0.0000 H   0  0  0  0  0  0  0  0  0  0  0  0
    8.2886    5.4916    0.0000 H   0  0  0  0  0  0  0  0  0  0  0  0
    7.8111    4.7562    0.0000 H   0  0  0  0  0  0  0  0  0  0  0  0
    9.7325    3.5084    0.0000 H   0  0  0  0  0  0  0  0  0  0  0  0
   10.2100    4.2438    0.0000 H   0  0  0  0  0  0  0  0  0  0  0  0
    9.4747    4.7213    0.0000 H   0  0  0  0  0  0  0  0  0  0  0  0
    7.5184    4.3055    0.0000 H   0  0  0  0  0  0  0  0  0  0  0  0
    7.0408    3.5702    0.0000 H   0  0  0  0  0  0  0  0  0  0  0  0
    7.7762    3.0926    0.0000 H   0  0  0  0  0  0  0  0  0  0  0  0
    4.5981    1.6009    0.0000 H   0  0  0  0  0  0  0  0  0  0  0  0
    7.7331   -2.8291    0.0000 H   0  0  0  0  0  0  0  0  0  0  0  0
    7.4082   -4.1017    0.0000 H   0  0  0  0  0  0  0  0  0  0  0  0
    7.8067   -3.4114    0.0000 H   0  0  0  0  0  0  0  0  0  0  0  0
    4.2690    0.7909    0.0000 H   0  0  0  0  0  0  0  0  0  0  0  0
    2.8660   -1.6391    0.0000 H   0  0  0  0  0  0  0  0  0  0  0  0
    8.0622   -1.3991    0.0000 H   0  0  0  0  0  0  0  0  0  0  0  0
    2.8660    1.6009    0.0000 H   0  0  0  0  0  0  0  0  0  0  0  0
    1.4631   -0.8291    0.0000 H   0  0  0  0  0  0  0  0  0  0  0  0
    6.2932   -5.1951    0.0000 H   0  0  0  0  0  0  0  0  0  0  0  0
    7.1401   -5.4220    0.0000 H   0  0  0  0  0  0  0  0  0  0  0  0
    7.3671   -4.5751    0.0000 H   0  0  0  0  0  0  0  0  0  0  0  0
    1.4631    0.7909    0.0000 H   0  0  0  0  0  0  0  0  0  0  0  0
   10.1928   -1.5441    0.0000 H   0  0  0  0  0  0  0  0  0  0  0  0
    9.3957   -1.5441    0.0000 H   0  0  0  0  0  0  0  0  0  0  0  0
   12.3923   -3.1391    0.0000 H   0  0  0  0  0  0  0  0  0  0  0  0
   10.9893   -0.7091    0.0000 H   0  0  0  0  0  0  0  0  0  0  0  0
   12.3923    0.1009    0.0000 H   0  0  0  0  0  0  0  0  0  0  0  0
   14.1451   -3.1737    0.0000 H   0  0  0  0  0  0  0  0  0  0  0  0
   14.1451    0.1355    0.0000 H   0  0  0  0  0  0  0  0  0  0  0  0
   15.5941   -2.3520    0.0000 H   0  0  0  0  0  0  0  0  0  0  0  0
   15.5941   -0.6862    0.0000 H   0  0  0  0  0  0  0  0  0  0  0  0
  1  6  2  0  0  0  0
  1  7  2  0  0  0  0
  1 30  1  0  0  0  0
  1 35  1  0  0  0  0
 20  2  1  6  0  0  0
  2 71  1  0  0  0  0
  3 18  2  0  0  0  0
  4 19  2  0  0  0  0
  5 28  2  0  0  0  0
  8 37  2  0  0  0  0
  9 38  1  0  0  0  0
  9 39  1  0  0  0  0
 10 14  1  0  0  0  0
 10 17  1  0  0  0  0
 10 18  1  0  0  0  0
 11 19  1  0  0  0  0
 11 22  1  0  0  0  0
 11 58  1  0  0  0  0
 21 12  1  1  0  0  0
 12 28  1  0  0  0  0
 12 61  1  0  0  0  0
 29 13  1  1  0  0  0
 13 37  1  0  0  0  0
 13 77  1  0  0  0  0
 14 15  1  0  0  0  0
 14 19  1  1  0  0  0
 14 49  1  0  0  0  0
 15 16  1  0  0  0  0
 15 50  1  0  0  0  0
 15 51  1  0  0  0  0
 16 17  1  0  0  0  0
 16 52  1  0  0  0  0
 16 53  1  0  0  0  0
 17 54  1  0  0  0  0
 17 55  1  0  0  0  0
 18 20  1  0  0  0  0
 20 21  1  0  0  0  0
 20 56  1  0  0  0  0
 21 23  1  0  0  0  0
 21 57  1  0  0  0  0
 22 24  1  0  0  0  0
 22 25  1  0  0  0  0
 22 26  1  0  0  0  0
 23 27  1  0  0  0  0
 23 59  1  0  0  0  0
 23 60  1  0  0  0  0
 24 62  1  0  0  0  0
 24 63  1  0  0  0  0
 24 64  1  0  0  0  0
 25 65  1  0  0  0  0
 25 66  1  0  0  0  0
 25 67  1  0  0  0  0
 26 68  1  0  0  0  0
 26 69  1  0  0  0  0
 26 70  1  0  0  0  0
 27 31  2  0  0  0  0
 27 32  1  0  0  0  0
 28 29  1  0  0  0  0
 29 30  1  0  0  0  0
 29 72  1  0  0  0  0
 30 73  1  0  0  0  0
 30 74  1  0  0  0  0
 31 33  1  0  0  0  0
 31 75  1  0  0  0  0
 32 34  2  0  0  0  0
 32 76  1  0  0  0  0
 33 36  2  0  0  0  0
 33 78  1  0  0  0  0
 34 36  1  0  0  0  0
 34 79  1  0  0  0  0
 35 80  1  0  0  0  0
 35 81  1  0  0  0  0
 35 82  1  0  0  0  0
 36 83  1  0  0  0  0
 37 38  1  0  0  0  0
 38 84  1  0  0  0  0
 38 85  1  0  0  0  0
 39 40  2  0  0  0  0
 39 41  1  0  0  0  0
 40 42  1  0  0  0  0
 40 86  1  0  0  0  0
 41 44  2  0  0  0  0
 41 87  1  0  0  0  0
 42 43  1  0  0  0  0
 42 45  2  0  0  0  0
 43 44  1  0  0  0  0
 43 46  2  0  0  0  0
 44 88  1  0  0  0  0
 45 47  1  0  0  0  0
 45 89  1  0  0  0  0
 46 48  1  0  0  0  0
 46 90  1  0  0  0  0
 47 48  2  0  0  0  0
 47 91  1  0  0  0  0
 48 92  1  0  0  0  0
M  END
> <PUBCHEM_COMPOUND_CID>
501811
> <PUBCHEM_COMPOUND_CANONICALIZED>
1
> <PUBCHEM_CACTVS_COMPLEXITY>
1230
> <PUBCHEM_CACTVS_HBOND_ACCEPTOR>
8
> <PUBCHEM_CACTVS_HBOND_DONOR>
4
> <PUBCHEM_CACTVS_ROTATABLE_BOND>
14
> <PUBCHEM_CACTVS_SUBSKEYS>
AAADcfB/vABAAAAAAAAAAAAAAAAAAWAAAAAwYMAAAAAAAADBVAAAHgQQCAAADLzl2AayBsPABgqIAiFSEHJCCAAgIBAIiIHOCIgOdjqk8T+XeCCk1hGYqAeYybCOoAABAAAQAABAAAIAACAAAAAAAAAAAA==
> <PUBCHEM_IUPAC_OPENEYE_NAME>
(2S)-N-tert-butyl-1-[(2S,3S)-2-hydroxy-3-[[(2R)-3-methylsulfonyl-2-[[2-(2-naphthyloxy)acetyl]amino]propanoyl]amino]-4-phenyl-butanoyl]pyrrolidine-2-carboxamide
> <PUBCHEM_IUPAC_CAS_NAME>
(2S)-N-tert-butyl-1-[(2S,3S)-2-hydroxy-3-[[(2R)-3-methylsulfonyl-2-[[2-(2-naphthalenyloxy)-1-oxoethyl]amino]-1-oxopropyl]amino]-1-oxo-4-phenylbutyl]-2-pyrrolidinecarboxamide
> <PUBCHEM_IUPAC_NAME_MARKUP>
(2<I>S</I>)-<I>N</I>-<I>tert</I>-butyl-1-[(2<I>S</I>,3<I>S</I>)-2-hydroxy-3-[[(2<I>R</I>)-3-methylsulfonyl-2-[(2-naphthalen-2-yloxyacetyl)amino]propanoyl]amino]-4-phenylbutanoyl]pyrrolidine-2-carboxamide
> <PUBCHEM_IUPAC_NAME>
(2S)-N-tert-butyl-1-[(2S,3S)-2-hydroxy-3-[[(2R)-3-methylsulfonyl-2-[(2-naphthalen-2-yloxyacetyl)amino]propanoyl]amino]-4-phenylbutanoyl]pyrrolidine-2-carboxamide
> <PUBCHEM_IUPAC_SYSTEMATIC_NAME>
(2S)-N-tert-butyl-1-[(2S,3S)-3-[[(2R)-3-methylsulfonyl-2-(2-naphthalen-2-yloxyethanoylamino)propanoyl]amino]-2-oxidanyl-4-phenyl-butanoyl]pyrrolidine-2-carboxamide
> <PUBCHEM_IUPAC_TRADITIONAL_NAME>
(2S)-N-tert-butyl-1-[(2S,3S)-2-hydroxy-3-[[(2R)-3-mesyl-2-[[2-(2-naphthoxy)acetyl]amino]propanoyl]amino]-4-phenyl-butanoyl]pyrrolidine-2-carboxamide
> <PUBCHEM_IUPAC_INCHI>
InChI=1S/C35H44N4O8S/c1-35(2,3)38-33(43)29-15-10-18-39(29)34(44)31(41)27(19-23-11-6-5-7-12-23)37-32(42)28(22-48(4,45)46)36-30(40)21-47-26-17-16-24-13-8-9-14-25(24)20-26/h5-9,11-14,16-17,20,27-29,31,41H,10,15,18-19,21-22H2,1-4H3,(H,36,40)(H,37,42)(H,38,43)/t27-,28-,29-,31-/m0/s1
> <PUBCHEM_IUPAC_INCHIKEY>
ONCJJDJGGCOXBO-KECWCRPSSA-N
> <PUBCHEM_XLOGP3_AA>
3
> <PUBCHEM_EXACT_MASS>
680.28798555
> <PUBCHEM_MOLECULAR_FORMULA>
C35H44N4O8S
> <PUBCHEM_MOLECULAR_WEIGHT>
680.8
> <PUBCHEM_OPENEYE_CAN_SMILES>
CC(C)(C)NC(=O)C1CCCN1C(=O)C(C(CC2=CC=CC=C2)NC(=O)C(CS(=O)(=O)C)NC(=O)COC3=CC4=CC=CC=C4C=C3)O
> <PUBCHEM_OPENEYE_ISO_SMILES>
CC(C)(C)NC(=O)[C@@H]1CCCN1C(=O)[C@H]([C@H](CC2=CC=CC=C2)NC(=O)[C@H](CS(=O)(=O)C)NC(=O)COC3=CC4=CC=CC=C4C=C3)O
> <PUBCHEM_CACTVS_TPSA>
180
> <PUBCHEM_MONOISOTOPIC_WEIGHT>
680.28798555
> <PUBCHEM_TOTAL_CHARGE>
0
> <PUBCHEM_HEAVY_ATOM_COUNT>
48
> <PUBCHEM_ATOM_DEF_STEREO_COUNT>
4
> <PUBCHEM_ATOM_UDEF_STEREO_COUNT>
0
> <PUBCHEM_BOND_DEF_STEREO_COUNT>
0
> <PUBCHEM_BOND_UDEF_STEREO_COUNT>
0
> <PUBCHEM_ISOTOPIC_ATOM_COUNT>
0
> <PUBCHEM_COMPONENT_COUNT>
1
> <PUBCHEM_CACTVS_TAUTO_COUNT>
-1
> <PUBCHEM_COORDINATE_TYPE>
1
5
255
> <PUBCHEM_BONDANNOTATIONS>
21  12  5
29  13  5
14  19  5
20  2  6
27  31  8
27  32  8
31  33  8
32  34  8
33  36  8
34  36  8
39  40  8
39  41  8
40  42  8
41  44  8
42  43  8
42  45  8
43  44  8
43  46  8
45  47  8
46  48  8
47  48  8
$$$$
