501860
  -OEChem-10302200282D
 78 80  0     1  0  0  0  0  0999 V2000
    3.1249    1.0312    0.0000 O   0  0  0  0  0  0  0  0  0  0  0  0
    4.2268    0.2306    0.0000 O   0  0  0  0  0  0  0  0  0  0  0  0
    6.8249    0.7306    0.0000 O   0  0  0  0  0  0  0  0  0  0  0  0
    7.6910    0.2306    0.0000 O   0  0  0  0  0  0  0  0  0  0  0  0
   10.2890    0.7306    0.0000 O   0  0  0  0  0  0  0  0  0  0  0  0
   10.2890   -2.2694    0.0000 O   0  0  0  0  0  0  0  0  0  0  0  0
    8.5570    0.7306    0.0000 O   0  0  0  0  0  0  0  0  0  0  0  0
    5.0929    1.7306    0.0000 N   0  0  0  0  0  0  0  0  0  0  0  0
    2.5896    2.6785    0.0000 N   0  0  0  0  0  0  0  0  0  0  0  0
    6.8249   -1.2694    0.0000 N   0  0  0  0  0  0  0  0  0  0  0  0
    9.4230   -0.7694    0.0000 N   0  0  0  0  0  0  0  0  0  0  0  0
    9.4230   -3.7694    0.0000 N   0  0  0  0  0  0  0  0  0  0  0  0
    4.5929    3.2694    0.0000 C   0  0  0  0  0  0  0  0  0  0  0  0
    4.2839    2.3184    0.0000 C   0  0  1  0  0  0  0  0  0  0  0  0
    5.5929    3.2694    0.0000 C   0  0  0  0  0  0  0  0  0  0  0  0
    5.9019    2.3184    0.0000 C   0  0  0  0  0  0  0  0  0  0  0  0
    4.5929    4.2694    0.0000 C   0  0  0  0  0  0  0  0  0  0  0  0
    3.6418    3.5784    0.0000 C   0  0  0  0  0  0  0  0  0  0  0  0
    3.3328    2.0094    0.0000 C   0  0  0  0  0  0  0  0  0  0  0  0
    5.0929    0.7306    0.0000 C   0  0  0  0  0  0  0  0  0  0  0  0
    5.9589    0.2306    0.0000 C   0  0  2  0  0  0  0  0  0  0  0  0
    5.9589   -0.7694    0.0000 C   0  0  2  0  0  0  0  0  0  0  0  0
    5.0929   -1.2694    0.0000 C   0  0  0  0  0  0  0  0  0  0  0  0
    5.0929   -2.2694    0.0000 C   0  0  0  0  0  0  0  0  0  0  0  0
    7.6910   -0.7694    0.0000 C   0  0  0  0  0  0  0  0  0  0  0  0
    8.5570   -1.2694    0.0000 C   0  0  2  0  0  0  0  0  0  0  0  0
    5.9589   -2.7694    0.0000 C   0  0  0  0  0  0  0  0  0  0  0  0
    4.2268   -2.7694    0.0000 C   0  0  0  0  0  0  0  0  0  0  0  0
    8.5570   -2.2694    0.0000 C   0  0  0  0  0  0  0  0  0  0  0  0
    5.9589   -3.7694    0.0000 C   0  0  0  0  0  0  0  0  0  0  0  0
    4.2268   -3.7694    0.0000 C   0  0  0  0  0  0  0  0  0  0  0  0
    5.0929   -4.2694    0.0000 C   0  0  0  0  0  0  0  0  0  0  0  0
    9.4230   -2.7694    0.0000 C   0  0  0  0  0  0  0  0  0  0  0  0
    9.4230    0.2306    0.0000 C   0  0  0  0  0  0  0  0  0  0  0  0
   10.2890    1.7306    0.0000 C   0  0  0  0  0  0  0  0  0  0  0  0
   11.1551    2.2306    0.0000 C   0  0  0  0  0  0  0  0  0  0  0  0
   12.0211    1.7306    0.0000 C   0  0  0  0  0  0  0  0  0  0  0  0
   11.1551    3.2306    0.0000 C   0  0  0  0  0  0  0  0  0  0  0  0
   12.8871    2.2306    0.0000 C   0  0  0  0  0  0  0  0  0  0  0  0
   12.0211    3.7306    0.0000 C   0  0  0  0  0  0  0  0  0  0  0  0
   12.8871    3.2306    0.0000 C   0  0  0  0  0  0  0  0  0  0  0  0
    4.1869    1.7060    0.0000 H   0  0  0  0  0  0  0  0  0  0  0  0
    6.1993    3.3983    0.0000 H   0  0  0  0  0  0  0  0  0  0  0  0
    5.5281    3.8860    0.0000 H   0  0  0  0  0  0  0  0  0  0  0  0
    6.2119    1.7814    0.0000 H   0  0  0  0  0  0  0  0  0  0  0  0
    6.4683    2.5705    0.0000 H   0  0  0  0  0  0  0  0  0  0  0  0
    5.2129    4.2694    0.0000 H   0  0  0  0  0  0  0  0  0  0  0  0
    4.5929    4.8894    0.0000 H   0  0  0  0  0  0  0  0  0  0  0  0
    3.9729    4.2694    0.0000 H   0  0  0  0  0  0  0  0  0  0  0  0
    3.8334    4.1681    0.0000 H   0  0  0  0  0  0  0  0  0  0  0  0
    3.0522    3.7700    0.0000 H   0  0  0  0  0  0  0  0  0  0  0  0
    3.4502    2.9888    0.0000 H   0  0  0  0  0  0  0  0  0  0  0  0
    5.9589    0.8506    0.0000 H   0  0  0  0  0  0  0  0  0  0  0  0
    6.4958   -0.4594    0.0000 H   0  0  0  0  0  0  0  0  0  0  0  0
    2.0000    2.4869    0.0000 H   0  0  0  0  0  0  0  0  0  0  0  0
    2.7186    3.2849    0.0000 H   0  0  0  0  0  0  0  0  0  0  0  0
    4.8808   -0.6868    0.0000 H   0  0  0  0  0  0  0  0  0  0  0  0
    4.4823   -1.3771    0.0000 H   0  0  0  0  0  0  0  0  0  0  0  0
    6.8249   -1.8894    0.0000 H   0  0  0  0  0  0  0  0  0  0  0  0
    6.8249    1.3506    0.0000 H   0  0  0  0  0  0  0  0  0  0  0  0
    9.0939   -1.5794    0.0000 H   0  0  0  0  0  0  0  0  0  0  0  0
    6.4958   -2.4594    0.0000 H   0  0  0  0  0  0  0  0  0  0  0  0
    3.6899   -2.4594    0.0000 H   0  0  0  0  0  0  0  0  0  0  0  0
    7.9464   -2.1618    0.0000 H   0  0  0  0  0  0  0  0  0  0  0  0
    8.3449   -2.8520    0.0000 H   0  0  0  0  0  0  0  0  0  0  0  0
    9.9599   -1.0794    0.0000 H   0  0  0  0  0  0  0  0  0  0  0  0
    6.4958   -4.0794    0.0000 H   0  0  0  0  0  0  0  0  0  0  0  0
    3.6899   -4.0794    0.0000 H   0  0  0  0  0  0  0  0  0  0  0  0
    5.0929   -4.8894    0.0000 H   0  0  0  0  0  0  0  0  0  0  0  0
    9.9599   -4.0794    0.0000 H   0  0  0  0  0  0  0  0  0  0  0  0
    8.8861   -4.0794    0.0000 H   0  0  0  0  0  0  0  0  0  0  0  0
   10.0770    2.3132    0.0000 H   0  0  0  0  0  0  0  0  0  0  0  0
    9.6784    1.6229    0.0000 H   0  0  0  0  0  0  0  0  0  0  0  0
   12.0211    1.1106    0.0000 H   0  0  0  0  0  0  0  0  0  0  0  0
   10.6181    3.5406    0.0000 H   0  0  0  0  0  0  0  0  0  0  0  0
   13.4240    1.9206    0.0000 H   0  0  0  0  0  0  0  0  0  0  0  0
   12.0211    4.3506    0.0000 H   0  0  0  0  0  0  0  0  0  0  0  0
   13.4240    3.5406    0.0000 H   0  0  0  0  0  0  0  0  0  0  0  0
  1 19  2  0  0  0  0
  2 20  2  0  0  0  0
 21  3  1  1  0  0  0
  3 60  1  0  0  0  0
  4 25  2  0  0  0  0
  5 34  1  0  0  0  0
  5 35  1  0  0  0  0
  6 33  2  0  0  0  0
  7 34  2  0  0  0  0
  8 14  1  0  0  0  0
  8 16  1  0  0  0  0
  8 20  1  0  0  0  0
  9 19  1  0  0  0  0
  9 55  1  0  0  0  0
  9 56  1  0  0  0  0
 22 10  1  1  0  0  0
 10 25  1  0  0  0  0
 10 59  1  0  0  0  0
 26 11  1  1  0  0  0
 11 34  1  0  0  0  0
 11 66  1  0  0  0  0
 12 33  1  0  0  0  0
 12 70  1  0  0  0  0
 12 71  1  0  0  0  0
 13 14  1  0  0  0  0
 13 15  1  0  0  0  0
 13 17  1  0  0  0  0
 13 18  1  0  0  0  0
 14 19  1  6  0  0  0
 14 42  1  0  0  0  0
 15 16  1  0  0  0  0
 15 43  1  0  0  0  0
 15 44  1  0  0  0  0
 16 45  1  0  0  0  0
 16 46  1  0  0  0  0
 17 47  1  0  0  0  0
 17 48  1  0  0  0  0
 17 49  1  0  0  0  0
 18 50  1  0  0  0  0
 18 51  1  0  0  0  0
 18 52  1  0  0  0  0
 20 21  1  0  0  0  0
 21 22  1  0  0  0  0
 21 53  1  0  0  0  0
 22 23  1  0  0  0  0
 22 54  1  0  0  0  0
 23 24  1  0  0  0  0
 23 57  1  0  0  0  0
 23 58  1  0  0  0  0
 24 27  2  0  0  0  0
 24 28  1  0  0  0  0
 25 26  1  0  0  0  0
 26 29  1  0  0  0  0
 26 61  1  0  0  0  0
 27 30  1  0  0  0  0
 27 62  1  0  0  0  0
 28 31  2  0  0  0  0
 28 63  1  0  0  0  0
 29 33  1  0  0  0  0
 29 64  1  0  0  0  0
 29 65  1  0  0  0  0
 30 32  2  0  0  0  0
 30 67  1  0  0  0  0
 31 32  1  0  0  0  0
 31 68  1  0  0  0  0
 32 69  1  0  0  0  0
 35 36  1  0  0  0  0
 35 72  1  0  0  0  0
 35 73  1  0  0  0  0
 36 37  2  0  0  0  0
 36 38  1  0  0  0  0
 37 39  1  0  0  0  0
 37 74  1  0  0  0  0
 38 40  2  0  0  0  0
 38 75  1  0  0  0  0
 39 41  2  0  0  0  0
 39 76  1  0  0  0  0
 40 41  1  0  0  0  0
 40 77  1  0  0  0  0
 41 78  1  0  0  0  0
M  END
> <PUBCHEM_COMPOUND_CID>
501860
> <PUBCHEM_COMPOUND_CANONICALIZED>
1
> <PUBCHEM_CACTVS_COMPLEXITY>
946
> <PUBCHEM_CACTVS_HBOND_ACCEPTOR>
7
> <PUBCHEM_CACTVS_HBOND_DONOR>
5
> <PUBCHEM_CACTVS_ROTATABLE_BOND>
13
> <PUBCHEM_CACTVS_SUBSKEYS>
AAADcfB7uAAAAAAAAAAAAAAAAAAAAWAAAAAwYAAAAAAAAAABQAAAHgAQCAAADjzhmAYyCIPABgCIAiFSGAICAAAgAAAIiIHICIkKdjqA8TmccAAk1gGYqAedyaCPAAAAAAAAAAAAAAAAAAAAAAAAAAAAAA==
> <PUBCHEM_IUPAC_OPENEYE_NAME>
benzyl N-[(1S)-3-amino-1-[[(1S,2S)-1-benzyl-3-[(2S)-2-carbamoyl-3,3-dimethyl-pyrrolidin-1-yl]-2-hydroxy-3-oxo-propyl]carbamoyl]-3-oxo-propyl]carbamate
> <PUBCHEM_IUPAC_CAS_NAME>
N-[(2S)-4-amino-1-[[(2S,3S)-4-[(2S)-2-carbamoyl-3,3-dimethyl-1-pyrrolidinyl]-3-hydroxy-4-oxo-1-phenylbutan-2-yl]amino]-1,4-dioxobutan-2-yl]carbamic acid (phenylmethyl) ester
> <PUBCHEM_IUPAC_NAME_MARKUP>
benzyl <I>N</I>-[(2<I>S</I>)-4-amino-1-[[(2<I>S</I>,3<I>S</I>)-4-[(2<I>S</I>)-2-carbamoyl-3,3-dimethylpyrrolidin-1-yl]-3-hydroxy-4-oxo-1-phenylbutan-2-yl]amino]-1,4-dioxobutan-2-yl]carbamate
> <PUBCHEM_IUPAC_NAME>
benzyl N-[(2S)-4-amino-1-[[(2S,3S)-4-[(2S)-2-carbamoyl-3,3-dimethylpyrrolidin-1-yl]-3-hydroxy-4-oxo-1-phenylbutan-2-yl]amino]-1,4-dioxobutan-2-yl]carbamate
> <PUBCHEM_IUPAC_SYSTEMATIC_NAME>
(phenylmethyl) N-[(2S)-1-[[(2S,3S)-4-[(2S)-2-aminocarbonyl-3,3-dimethyl-pyrrolidin-1-yl]-3-oxidanyl-4-oxidanylidene-1-phenyl-butan-2-yl]amino]-4-azanyl-1,4-bis(oxidanylidene)butan-2-yl]carbamate
> <PUBCHEM_IUPAC_TRADITIONAL_NAME>
N-[(1S)-3-amino-1-[[(1S,2S)-1-benzyl-3-[(2S)-2-carbamoyl-3,3-dimethyl-pyrrolidino]-2-hydroxy-3-keto-propyl]carbamoyl]-3-keto-propyl]carbamic acid benzyl ester
> <PUBCHEM_IUPAC_INCHI>
InChI=1S/C29H37N5O7/c1-29(2)13-14-34(24(29)25(31)37)27(39)23(36)20(15-18-9-5-3-6-10-18)32-26(38)21(16-22(30)35)33-28(40)41-17-19-11-7-4-8-12-19/h3-12,20-21,23-24,36H,13-17H2,1-2H3,(H2,30,35)(H2,31,37)(H,32,38)(H,33,40)/t20-,21-,23-,24+/m0/s1
> <PUBCHEM_IUPAC_INCHIKEY>
FOIWSYUASYGKDK-HIGZBPRKSA-N
> <PUBCHEM_XLOGP3_AA>
0.9
> <PUBCHEM_EXACT_MASS>
567.26929854
> <PUBCHEM_MOLECULAR_FORMULA>
C29H37N5O7
> <PUBCHEM_MOLECULAR_WEIGHT>
567.6
> <PUBCHEM_OPENEYE_CAN_SMILES>
CC1(CCN(C1C(=O)N)C(=O)C(C(CC2=CC=CC=C2)NC(=O)C(CC(=O)N)NC(=O)OCC3=CC=CC=C3)O)C
> <PUBCHEM_OPENEYE_ISO_SMILES>
CC1(CCN([C@@H]1C(=O)N)C(=O)[C@H]([C@H](CC2=CC=CC=C2)NC(=O)[C@H](CC(=O)N)NC(=O)OCC3=CC=CC=C3)O)C
> <PUBCHEM_CACTVS_TPSA>
194
> <PUBCHEM_MONOISOTOPIC_WEIGHT>
567.26929854
> <PUBCHEM_TOTAL_CHARGE>
0
> <PUBCHEM_HEAVY_ATOM_COUNT>
41
> <PUBCHEM_ATOM_DEF_STEREO_COUNT>
4
> <PUBCHEM_ATOM_UDEF_STEREO_COUNT>
0
> <PUBCHEM_BOND_DEF_STEREO_COUNT>
0
> <PUBCHEM_BOND_UDEF_STEREO_COUNT>
0
> <PUBCHEM_ISOTOPIC_ATOM_COUNT>
0
> <PUBCHEM_COMPONENT_COUNT>
1
> <PUBCHEM_CACTVS_TAUTO_COUNT>
-1
> <PUBCHEM_COORDINATE_TYPE>
1
5
255
> <PUBCHEM_BONDANNOTATIONS>
22  10  5
26  11  5
14  19  6
24  27  8
24  28  8
27  30  8
28  31  8
21  3  5
30  32  8
31  32  8
36  37  8
36  38  8
37  39  8
38  40  8
39  41  8
40  41  8
$$$$
