501828
  -OEChem-10302200282D
 93 96  0     1  0  0  0  0  0999 V2000
   10.1378   -2.7673    0.0000 S   0  0  0  0  0  0  0  0  0  0  0  0
    2.3644    0.4645    0.0000 O   0  0  0  0  0  0  0  0  0  0  0  0
    4.9416   -1.7673    0.0000 O   0  0  0  0  0  0  0  0  0  0  0  0
    6.6737    0.2327    0.0000 O   0  0  0  0  0  0  0  0  0  0  0  0
    6.5313    1.5873    0.0000 O   0  0  0  0  0  0  0  0  0  0  0  0
    8.4057   -2.7673    0.0000 O   0  0  0  0  0  0  0  0  0  0  0  0
   11.1378   -2.7673    0.0000 O   0  0  0  0  0  0  0  0  0  0  0  0
    9.1378   -2.7673    0.0000 O   0  0  0  0  0  0  0  0  0  0  0  0
   11.0038   -0.2673    0.0000 O   0  0  0  0  0  0  0  0  0  0  0  0
   11.0038    1.7327    0.0000 O   0  0  0  0  0  0  0  0  0  0  0  0
    4.9416    0.2327    0.0000 N   0  0  0  0  0  0  0  0  0  0  0  0
    5.3723    2.8745    0.0000 N   0  0  0  0  0  0  0  0  0  0  0  0
    7.5397   -1.2673    0.0000 N   0  0  0  0  0  0  0  0  0  0  0  0
    9.2718   -0.2673    0.0000 N   0  0  0  0  0  0  0  0  0  0  0  0
    4.8371    1.2272    0.0000 C   0  0  1  0  0  0  0  0  0  0  0  0
    3.8590    1.4351    0.0000 C   0  0  0  0  0  0  0  0  0  0  0  0
    3.3590    0.5691    0.0000 C   0  0  3  0  0  0  0  0  0  0  0  0
    4.0281   -0.1741    0.0000 C   0  0  0  0  0  0  0  0  0  0  0  0
    5.8076   -0.2673    0.0000 C   0  0  0  0  0  0  0  0  0  0  0  0
    5.5802    1.8963    0.0000 C   0  0  0  0  0  0  0  0  0  0  0  0
    5.8076   -1.2673    0.0000 C   0  0  2  0  0  0  0  0  0  0  0  0
    6.6737   -1.7673    0.0000 C   0  0  2  0  0  0  0  0  0  0  0  0
    4.4213    3.1835    0.0000 C   0  0  0  0  0  0  0  0  0  0  0  0
    6.6737   -2.7673    0.0000 C   0  0  0  0  0  0  0  0  0  0  0  0
    3.4702    3.4925    0.0000 C   0  0  0  0  0  0  0  0  0  0  0  0
    4.7303    4.1345    0.0000 C   0  0  0  0  0  0  0  0  0  0  0  0
    4.1123    2.2324    0.0000 C   0  0  0  0  0  0  0  0  0  0  0  0
    5.8076   -3.2673    0.0000 C   0  0  0  0  0  0  0  0  0  0  0  0
    8.4057   -1.7673    0.0000 C   0  0  0  0  0  0  0  0  0  0  0  0
    9.2718   -1.2673    0.0000 C   0  0  2  0  0  0  0  0  0  0  0  0
   10.1378   -1.7673    0.0000 C   0  0  0  0  0  0  0  0  0  0  0  0
    4.9416   -2.7673    0.0000 C   0  0  0  0  0  0  0  0  0  0  0  0
    5.8076   -4.2673    0.0000 C   0  0  0  0  0  0  0  0  0  0  0  0
    4.0756   -3.2673    0.0000 C   0  0  0  0  0  0  0  0  0  0  0  0
    4.9416   -4.7673    0.0000 C   0  0  0  0  0  0  0  0  0  0  0  0
    4.0756   -4.2673    0.0000 C   0  0  0  0  0  0  0  0  0  0  0  0
   10.1378   -3.7673    0.0000 C   0  0  0  0  0  0  0  0  0  0  0  0
   10.1378    0.2327    0.0000 C   0  0  0  0  0  0  0  0  0  0  0  0
   10.1378    1.2327    0.0000 C   0  0  0  0  0  0  0  0  0  0  0  0
   11.0038    2.7327    0.0000 C   0  0  0  0  0  0  0  0  0  0  0  0
   11.8698    3.2327    0.0000 C   0  0  0  0  0  0  0  0  0  0  0  0
   11.8698    4.2327    0.0000 C   0  0  0  0  0  0  0  0  0  0  0  0
   10.1378    3.2327    0.0000 C   0  0  0  0  0  0  0  0  0  0  0  0
   12.7638    2.6980    0.0000 C   0  0  0  0  0  0  0  0  0  0  0  0
   11.0038    4.7327    0.0000 C   0  0  0  0  0  0  0  0  0  0  0  0
   10.1378    4.2327    0.0000 C   0  0  0  0  0  0  0  0  0  0  0  0
   12.7638    4.7673    0.0000 C   0  0  0  0  0  0  0  0  0  0  0  0
   13.6698    3.2118    0.0000 C   0  0  0  0  0  0  0  0  0  0  0  0
   13.6698    4.2535    0.0000 C   0  0  0  0  0  0  0  0  0  0  0  0
    5.4159    1.0050    0.0000 H   0  0  0  0  0  0  0  0  0  0  0  0
    4.0505    2.0248    0.0000 H   0  0  0  0  0  0  0  0  0  0  0  0
    3.2926    1.6873    0.0000 H   0  0  0  0  0  0  0  0  0  0  0  0
    3.1368   -0.0097    0.0000 H   0  0  0  0  0  0  0  0  0  0  0  0
    3.5265   -0.5385    0.0000 H   0  0  0  0  0  0  0  0  0  0  0  0
    4.3381   -0.7110    0.0000 H   0  0  0  0  0  0  0  0  0  0  0  0
    5.8076   -1.8873    0.0000 H   0  0  0  0  0  0  0  0  0  0  0  0
    6.6737   -1.1473    0.0000 H   0  0  0  0  0  0  0  0  0  0  0  0
    5.8331    3.2893    0.0000 H   0  0  0  0  0  0  0  0  0  0  0  0
    2.0000    0.9661    0.0000 H   0  0  0  0  0  0  0  0  0  0  0  0
    6.8857   -3.3499    0.0000 H   0  0  0  0  0  0  0  0  0  0  0  0
    7.2843   -2.6597    0.0000 H   0  0  0  0  0  0  0  0  0  0  0  0
    7.5397   -0.6473    0.0000 H   0  0  0  0  0  0  0  0  0  0  0  0
    3.6618    4.0822    0.0000 H   0  0  0  0  0  0  0  0  0  0  0  0
    2.8806    3.6841    0.0000 H   0  0  0  0  0  0  0  0  0  0  0  0
    3.2786    2.9028    0.0000 H   0  0  0  0  0  0  0  0  0  0  0  0
    5.3199    3.9430    0.0000 H   0  0  0  0  0  0  0  0  0  0  0  0
    4.9219    4.7242    0.0000 H   0  0  0  0  0  0  0  0  0  0  0  0
    4.1406    4.3261    0.0000 H   0  0  0  0  0  0  0  0  0  0  0  0
    3.5226    2.4240    0.0000 H   0  0  0  0  0  0  0  0  0  0  0  0
    3.9207    1.6428    0.0000 H   0  0  0  0  0  0  0  0  0  0  0  0
    4.7019    2.0408    0.0000 H   0  0  0  0  0  0  0  0  0  0  0  0
    4.4047   -1.4573    0.0000 H   0  0  0  0  0  0  0  0  0  0  0  0
    8.7348   -0.9573    0.0000 H   0  0  0  0  0  0  0  0  0  0  0  0
   10.7484   -1.8750    0.0000 H   0  0  0  0  0  0  0  0  0  0  0  0
   10.3498   -1.1847    0.0000 H   0  0  0  0  0  0  0  0  0  0  0  0
    4.9416   -2.1473    0.0000 H   0  0  0  0  0  0  0  0  0  0  0  0
    6.3446   -4.5773    0.0000 H   0  0  0  0  0  0  0  0  0  0  0  0
    8.7348    0.0427    0.0000 H   0  0  0  0  0  0  0  0  0  0  0  0
    3.5387   -2.9573    0.0000 H   0  0  0  0  0  0  0  0  0  0  0  0
    4.9416   -5.3873    0.0000 H   0  0  0  0  0  0  0  0  0  0  0  0
    3.5387   -4.5773    0.0000 H   0  0  0  0  0  0  0  0  0  0  0  0
    9.5178   -3.7673    0.0000 H   0  0  0  0  0  0  0  0  0  0  0  0
   10.1378   -4.3873    0.0000 H   0  0  0  0  0  0  0  0  0  0  0  0
   10.7578   -3.7673    0.0000 H   0  0  0  0  0  0  0  0  0  0  0  0
    9.9257    1.8153    0.0000 H   0  0  0  0  0  0  0  0  0  0  0  0
    9.5272    1.1250    0.0000 H   0  0  0  0  0  0  0  0  0  0  0  0
    9.6008    2.9227    0.0000 H   0  0  0  0  0  0  0  0  0  0  0  0
   12.7566    2.0780    0.0000 H   0  0  0  0  0  0  0  0  0  0  0  0
   11.0038    5.3527    0.0000 H   0  0  0  0  0  0  0  0  0  0  0  0
    9.6008    4.5427    0.0000 H   0  0  0  0  0  0  0  0  0  0  0  0
   12.7566    5.3873    0.0000 H   0  0  0  0  0  0  0  0  0  0  0  0
   14.2056    2.8998    0.0000 H   0  0  0  0  0  0  0  0  0  0  0  0
   14.2056    4.5656    0.0000 H   0  0  0  0  0  0  0  0  0  0  0  0
  1  7  2  0  0  0  0
  1  8  2  0  0  0  0
  1 31  1  0  0  0  0
  1 37  1  0  0  0  0
  2 17  1  0  0  0  0
  2 59  1  0  0  0  0
 21  3  1  6  0  0  0
  3 72  1  0  0  0  0
  4 19  2  0  0  0  0
  5 20  2  0  0  0  0
  6 29  2  0  0  0  0
  9 38  2  0  0  0  0
 10 39  1  0  0  0  0
 10 40  1  0  0  0  0
 11 15  1  0  0  0  0
 11 18  1  0  0  0  0
 11 19  1  0  0  0  0
 12 20  1  0  0  0  0
 12 23  1  0  0  0  0
 12 58  1  0  0  0  0
 22 13  1  1  0  0  0
 13 29  1  0  0  0  0
 13 62  1  0  0  0  0
 30 14  1  1  0  0  0
 14 38  1  0  0  0  0
 14 78  1  0  0  0  0
 15 16  1  0  0  0  0
 15 20  1  1  0  0  0
 15 50  1  0  0  0  0
 16 17  1  0  0  0  0
 16 51  1  0  0  0  0
 16 52  1  0  0  0  0
 17 18  1  0  0  0  0
 17 53  1  0  0  0  0
 18 54  1  0  0  0  0
 18 55  1  0  0  0  0
 19 21  1  0  0  0  0
 21 22  1  0  0  0  0
 21 56  1  0  0  0  0
 22 24  1  0  0  0  0
 22 57  1  0  0  0  0
 23 25  1  0  0  0  0
 23 26  1  0  0  0  0
 23 27  1  0  0  0  0
 24 28  1  0  0  0  0
 24 60  1  0  0  0  0
 24 61  1  0  0  0  0
 25 63  1  0  0  0  0
 25 64  1  0  0  0  0
 25 65  1  0  0  0  0
 26 66  1  0  0  0  0
 26 67  1  0  0  0  0
 26 68  1  0  0  0  0
 27 69  1  0  0  0  0
 27 70  1  0  0  0  0
 27 71  1  0  0  0  0
 28 32  2  0  0  0  0
 28 33  1  0  0  0  0
 29 30  1  0  0  0  0
 30 31  1  0  0  0  0
 30 73  1  0  0  0  0
 31 74  1  0  0  0  0
 31 75  1  0  0  0  0
 32 34  1  0  0  0  0
 32 76  1  0  0  0  0
 33 35  2  0  0  0  0
 33 77  1  0  0  0  0
 34 36  2  0  0  0  0
 34 79  1  0  0  0  0
 35 36  1  0  0  0  0
 35 80  1  0  0  0  0
 36 81  1  0  0  0  0
 37 82  1  0  0  0  0
 37 83  1  0  0  0  0
 37 84  1  0  0  0  0
 38 39  1  0  0  0  0
 39 85  1  0  0  0  0
 39 86  1  0  0  0  0
 40 41  1  0  0  0  0
 40 43  2  0  0  0  0
 41 42  1  0  0  0  0
 41 44  2  0  0  0  0
 42 45  1  0  0  0  0
 42 47  2  0  0  0  0
 43 46  1  0  0  0  0
 43 87  1  0  0  0  0
 44 48  1  0  0  0  0
 44 88  1  0  0  0  0
 45 46  2  0  0  0  0
 45 89  1  0  0  0  0
 46 90  1  0  0  0  0
 47 49  1  0  0  0  0
 47 91  1  0  0  0  0
 48 49  2  0  0  0  0
 48 92  1  0  0  0  0
 49 93  1  0  0  0  0
M  END
> <PUBCHEM_COMPOUND_CID>
501828
> <PUBCHEM_COMPOUND_CANONICALIZED>
1
> <PUBCHEM_CACTVS_COMPLEXITY>
1260
> <PUBCHEM_CACTVS_HBOND_ACCEPTOR>
9
> <PUBCHEM_CACTVS_HBOND_DONOR>
5
> <PUBCHEM_CACTVS_ROTATABLE_BOND>
14
> <PUBCHEM_CACTVS_SUBSKEYS>
AAADcfB/vABAAAAAAAAAAAAAAAAAAWAAAAAwYMAAAAAAAADBVAAAHgQQCAAADLzl2AayBsPABgqIAiFSEHJCCAAgIBAIiIHOCIgOdjqk8T+XeCCm1hGYqAe6ybCOgAABAAAYAAAAAAIAADAAAAAAAAAAAA==
> <PUBCHEM_IUPAC_OPENEYE_NAME>
(2S)-N-tert-butyl-4-hydroxy-1-[(2S,3S)-2-hydroxy-3-[[(2R)-3-methylsulfonyl-2-[[2-(1-naphthyloxy)acetyl]amino]propanoyl]amino]-4-phenyl-butanoyl]pyrrolidine-2-carboxamide
> <PUBCHEM_IUPAC_CAS_NAME>
(2S)-N-tert-butyl-4-hydroxy-1-[(2S,3S)-2-hydroxy-3-[[(2R)-3-methylsulfonyl-2-[[2-(1-naphthalenyloxy)-1-oxoethyl]amino]-1-oxopropyl]amino]-1-oxo-4-phenylbutyl]-2-pyrrolidinecarboxamide
> <PUBCHEM_IUPAC_NAME_MARKUP>
(2<I>S</I>)-<I>N</I>-<I>tert</I>-butyl-4-hydroxy-1-[(2<I>S</I>,3<I>S</I>)-2-hydroxy-3-[[(2<I>R</I>)-3-methylsulfonyl-2-[(2-naphthalen-1-yloxyacetyl)amino]propanoyl]amino]-4-phenylbutanoyl]pyrrolidine-2-carboxamide
> <PUBCHEM_IUPAC_NAME>
(2S)-N-tert-butyl-4-hydroxy-1-[(2S,3S)-2-hydroxy-3-[[(2R)-3-methylsulfonyl-2-[(2-naphthalen-1-yloxyacetyl)amino]propanoyl]amino]-4-phenylbutanoyl]pyrrolidine-2-carboxamide
> <PUBCHEM_IUPAC_SYSTEMATIC_NAME>
(2S)-N-tert-butyl-1-[(2S,3S)-3-[[(2R)-3-methylsulfonyl-2-(2-naphthalen-1-yloxyethanoylamino)propanoyl]amino]-2-oxidanyl-4-phenyl-butanoyl]-4-oxidanyl-pyrrolidine-2-carboxamide
> <PUBCHEM_IUPAC_TRADITIONAL_NAME>
(2S)-N-tert-butyl-4-hydroxy-1-[(2S,3S)-2-hydroxy-3-[[(2R)-3-mesyl-2-[[2-(1-naphthoxy)acetyl]amino]propanoyl]amino]-4-phenyl-butanoyl]pyrrolidine-2-carboxamide
> <PUBCHEM_IUPAC_INCHI>
InChI=1S/C35H44N4O9S/c1-35(2,3)38-33(44)28-18-24(40)19-39(28)34(45)31(42)26(17-22-11-6-5-7-12-22)37-32(43)27(21-49(4,46)47)36-30(41)20-48-29-16-10-14-23-13-8-9-15-25(23)29/h5-16,24,26-28,31,40,42H,17-21H2,1-4H3,(H,36,41)(H,37,43)(H,38,44)/t24?,26-,27-,28-,31-/m0/s1
> <PUBCHEM_IUPAC_INCHIKEY>
ANXQTJRZJUDVPH-DZDPWZJZSA-N
> <PUBCHEM_XLOGP3_AA>
2
> <PUBCHEM_EXACT_MASS>
696.28290017
> <PUBCHEM_MOLECULAR_FORMULA>
C35H44N4O9S
> <PUBCHEM_MOLECULAR_WEIGHT>
696.8
> <PUBCHEM_OPENEYE_CAN_SMILES>
CC(C)(C)NC(=O)C1CC(CN1C(=O)C(C(CC2=CC=CC=C2)NC(=O)C(CS(=O)(=O)C)NC(=O)COC3=CC=CC4=CC=CC=C43)O)O
> <PUBCHEM_OPENEYE_ISO_SMILES>
CC(C)(C)NC(=O)[C@@H]1CC(CN1C(=O)[C@H]([C@H](CC2=CC=CC=C2)NC(=O)[C@H](CS(=O)(=O)C)NC(=O)COC3=CC=CC4=CC=CC=C43)O)O
> <PUBCHEM_CACTVS_TPSA>
200
> <PUBCHEM_MONOISOTOPIC_WEIGHT>
696.28290017
> <PUBCHEM_TOTAL_CHARGE>
0
> <PUBCHEM_HEAVY_ATOM_COUNT>
49
> <PUBCHEM_ATOM_DEF_STEREO_COUNT>
4
> <PUBCHEM_ATOM_UDEF_STEREO_COUNT>
1
> <PUBCHEM_BOND_DEF_STEREO_COUNT>
0
> <PUBCHEM_BOND_UDEF_STEREO_COUNT>
0
> <PUBCHEM_ISOTOPIC_ATOM_COUNT>
0
> <PUBCHEM_COMPONENT_COUNT>
1
> <PUBCHEM_CACTVS_TAUTO_COUNT>
-1
> <PUBCHEM_COORDINATE_TYPE>
1
5
255
> <PUBCHEM_BONDANNOTATIONS>
22  13  5
30  14  5
15  20  5
17  2  3
28  32  8
28  33  8
21  3  6
32  34  8
33  35  8
34  36  8
35  36  8
40  41  8
40  43  8
41  42  8
41  44  8
42  45  8
42  47  8
43  46  8
44  48  8
45  46  8
47  49  8
48  49  8
$$$$
