501838
  -OEChem-10302200282D
 91 95  0     1  0  0  0  0  0999 V2000
    5.9641   -5.3541    0.0000 S   0  0  0  0  0  0  0  0  0  0  0  0
    7.1962   -2.8152    0.0000 O   0  0  0  0  0  0  0  0  0  0  0  0
    4.5981   -2.3152    0.0000 O   0  0  0  0  0  0  0  0  0  0  0  0
    3.4961   -3.1158    0.0000 O   0  0  0  0  0  0  0  0  0  0  0  0
    6.3301    0.6848    0.0000 O   0  0  0  0  0  0  0  0  0  0  0  0
    6.3301    3.6848    0.0000 O   0  0  0  0  0  0  0  0  0  0  0  0
    6.3301    1.6848    0.0000 O   0  0  0  0  0  0  0  0  0  0  0  0
    5.4641   -3.8152    0.0000 N   0  0  0  0  0  0  0  0  0  0  0  0
    2.9609   -4.7631    0.0000 N   0  0  0  0  0  0  0  0  0  0  0  0
    5.4641   -0.8152    0.0000 N   0  0  0  0  0  0  0  0  0  0  0  0
    4.5981    1.6848    0.0000 N   0  0  0  0  0  0  0  0  0  0  0  0
    4.6551   -4.4030    0.0000 C   0  0  1  0  0  0  0  0  0  0  0  0
    6.3301   -1.3152    0.0000 C   0  0  2  0  0  0  0  0  0  0  0  0
    6.3301   -2.3152    0.0000 C   0  0  1  0  0  0  0  0  0  0  0  0
    4.9641   -5.3541    0.0000 C   0  0  0  0  0  0  0  0  0  0  0  0
    6.2731   -4.4030    0.0000 C   0  0  0  0  0  0  0  0  0  0  0  0
    5.4641   -2.8152    0.0000 C   0  0  0  0  0  0  0  0  0  0  0  0
    3.7040   -4.0940    0.0000 C   0  0  0  0  0  0  0  0  0  0  0  0
    3.1688   -5.7413    0.0000 C   0  0  0  0  0  0  0  0  0  0  0  0
    7.1962   -0.8152    0.0000 C   0  0  0  0  0  0  0  0  0  0  0  0
    8.0622   -1.3152    0.0000 C   0  0  0  0  0  0  0  0  0  0  0  0
    3.3767   -6.7194    0.0000 C   0  0  0  0  0  0  0  0  0  0  0  0
    2.1907   -5.9492    0.0000 C   0  0  0  0  0  0  0  0  0  0  0  0
    4.1469   -5.5334    0.0000 C   0  0  0  0  0  0  0  0  0  0  0  0
    5.4641    0.1848    0.0000 C   0  0  0  0  0  0  0  0  0  0  0  0
    4.5981    0.6848    0.0000 C   0  0  2  0  0  0  0  0  0  0  0  0
    8.9282   -0.8152    0.0000 C   0  0  0  0  0  0  0  0  0  0  0  0
    8.0622   -2.3152    0.0000 C   0  0  0  0  0  0  0  0  0  0  0  0
    3.7320    0.1848    0.0000 C   0  0  0  0  0  0  0  0  0  0  0  0
    9.7942   -1.3152    0.0000 C   0  0  0  0  0  0  0  0  0  0  0  0
    8.9282   -2.8152    0.0000 C   0  0  0  0  0  0  0  0  0  0  0  0
    9.7942   -2.3152    0.0000 C   0  0  0  0  0  0  0  0  0  0  0  0
    2.8660    0.6848    0.0000 C   0  0  0  0  0  0  0  0  0  0  0  0
    3.7320   -0.8152    0.0000 C   0  0  0  0  0  0  0  0  0  0  0  0
    5.4641    2.1848    0.0000 C   0  0  0  0  0  0  0  0  0  0  0  0
    2.0000    0.1848    0.0000 C   0  0  0  0  0  0  0  0  0  0  0  0
    2.8660   -1.3152    0.0000 C   0  0  0  0  0  0  0  0  0  0  0  0
    5.4641    3.1848    0.0000 C   0  0  0  0  0  0  0  0  0  0  0  0
    2.0000   -0.8152    0.0000 C   0  0  0  0  0  0  0  0  0  0  0  0
    6.3301    4.6848    0.0000 C   0  0  0  0  0  0  0  0  0  0  0  0
    7.1962    5.1848    0.0000 C   0  0  0  0  0  0  0  0  0  0  0  0
    7.1962    6.1848    0.0000 C   0  0  0  0  0  0  0  0  0  0  0  0
    5.4641    5.1848    0.0000 C   0  0  0  0  0  0  0  0  0  0  0  0
    8.0901    4.6501    0.0000 C   0  0  0  0  0  0  0  0  0  0  0  0
    6.3301    6.6848    0.0000 C   0  0  0  0  0  0  0  0  0  0  0  0
    5.4641    6.1848    0.0000 C   0  0  0  0  0  0  0  0  0  0  0  0
    8.0901    6.7194    0.0000 C   0  0  0  0  0  0  0  0  0  0  0  0
    8.9962    5.1640    0.0000 C   0  0  0  0  0  0  0  0  0  0  0  0
    8.9962    6.2056    0.0000 C   0  0  0  0  0  0  0  0  0  0  0  0
    4.5581   -3.7906    0.0000 H   0  0  0  0  0  0  0  0  0  0  0  0
    5.7932   -1.6252    0.0000 H   0  0  0  0  0  0  0  0  0  0  0  0
    6.8671   -2.0052    0.0000 H   0  0  0  0  0  0  0  0  0  0  0  0
    4.3576   -5.4830    0.0000 H   0  0  0  0  0  0  0  0  0  0  0  0
    5.0289   -5.9707    0.0000 H   0  0  0  0  0  0  0  0  0  0  0  0
    6.8395   -4.6552    0.0000 H   0  0  0  0  0  0  0  0  0  0  0  0
    6.5831   -3.8661    0.0000 H   0  0  0  0  0  0  0  0  0  0  0  0
    7.5947   -0.3403    0.0000 H   0  0  0  0  0  0  0  0  0  0  0  0
    6.7976   -0.3403    0.0000 H   0  0  0  0  0  0  0  0  0  0  0  0
    2.3712   -4.5715    0.0000 H   0  0  0  0  0  0  0  0  0  0  0  0
    4.9272   -1.1252    0.0000 H   0  0  0  0  0  0  0  0  0  0  0  0
    2.7703   -6.8483    0.0000 H   0  0  0  0  0  0  0  0  0  0  0  0
    3.5056   -7.3259    0.0000 H   0  0  0  0  0  0  0  0  0  0  0  0
    3.9832   -6.5905    0.0000 H   0  0  0  0  0  0  0  0  0  0  0  0
    2.0617   -5.3427    0.0000 H   0  0  0  0  0  0  0  0  0  0  0  0
    1.5842   -6.0781    0.0000 H   0  0  0  0  0  0  0  0  0  0  0  0
    2.3196   -6.5556    0.0000 H   0  0  0  0  0  0  0  0  0  0  0  0
    4.2758   -6.1398    0.0000 H   0  0  0  0  0  0  0  0  0  0  0  0
    4.7534   -5.4045    0.0000 H   0  0  0  0  0  0  0  0  0  0  0  0
    4.0180   -4.9269    0.0000 H   0  0  0  0  0  0  0  0  0  0  0  0
    7.1962   -3.4352    0.0000 H   0  0  0  0  0  0  0  0  0  0  0  0
    5.1350    0.9948    0.0000 H   0  0  0  0  0  0  0  0  0  0  0  0
    8.9282   -0.1952    0.0000 H   0  0  0  0  0  0  0  0  0  0  0  0
    7.5252   -2.6252    0.0000 H   0  0  0  0  0  0  0  0  0  0  0  0
    4.0611    1.9948    0.0000 H   0  0  0  0  0  0  0  0  0  0  0  0
   10.3312   -1.0052    0.0000 H   0  0  0  0  0  0  0  0  0  0  0  0
    8.9282   -3.4352    0.0000 H   0  0  0  0  0  0  0  0  0  0  0  0
   10.3312   -2.6252    0.0000 H   0  0  0  0  0  0  0  0  0  0  0  0
    2.8660    1.3048    0.0000 H   0  0  0  0  0  0  0  0  0  0  0  0
    4.2690   -1.1252    0.0000 H   0  0  0  0  0  0  0  0  0  0  0  0
    1.4631    0.4948    0.0000 H   0  0  0  0  0  0  0  0  0  0  0  0
    2.8660   -1.9352    0.0000 H   0  0  0  0  0  0  0  0  0  0  0  0
    5.2520    3.7674    0.0000 H   0  0  0  0  0  0  0  0  0  0  0  0
    4.8535    3.0771    0.0000 H   0  0  0  0  0  0  0  0  0  0  0  0
    1.4631   -1.1252    0.0000 H   0  0  0  0  0  0  0  0  0  0  0  0
    4.9272    4.8748    0.0000 H   0  0  0  0  0  0  0  0  0  0  0  0
    8.0829    4.0302    0.0000 H   0  0  0  0  0  0  0  0  0  0  0  0
    6.3301    7.3048    0.0000 H   0  0  0  0  0  0  0  0  0  0  0  0
    4.9272    6.4948    0.0000 H   0  0  0  0  0  0  0  0  0  0  0  0
    8.0829    7.3394    0.0000 H   0  0  0  0  0  0  0  0  0  0  0  0
    9.5319    4.8519    0.0000 H   0  0  0  0  0  0  0  0  0  0  0  0
    9.5319    6.5176    0.0000 H   0  0  0  0  0  0  0  0  0  0  0  0
  1 15  1  0  0  0  0
  1 16  1  0  0  0  0
 14  2  1  6  0  0  0
  2 70  1  0  0  0  0
  3 17  2  0  0  0  0
  4 18  2  0  0  0  0
  5 25  2  0  0  0  0
  6 38  1  0  0  0  0
  6 40  1  0  0  0  0
  7 35  2  0  0  0  0
  8 12  1  0  0  0  0
  8 16  1  0  0  0  0
  8 17  1  0  0  0  0
  9 18  1  0  0  0  0
  9 19  1  0  0  0  0
  9 59  1  0  0  0  0
 13 10  1  1  0  0  0
 10 25  1  0  0  0  0
 10 60  1  0  0  0  0
 26 11  1  6  0  0  0
 11 35  1  0  0  0  0
 11 74  1  0  0  0  0
 12 15  1  0  0  0  0
 12 18  1  1  0  0  0
 12 50  1  0  0  0  0
 13 14  1  0  0  0  0
 13 20  1  0  0  0  0
 13 51  1  0  0  0  0
 14 17  1  0  0  0  0
 14 52  1  0  0  0  0
 15 53  1  0  0  0  0
 15 54  1  0  0  0  0
 16 55  1  0  0  0  0
 16 56  1  0  0  0  0
 19 22  1  0  0  0  0
 19 23  1  0  0  0  0
 19 24  1  0  0  0  0
 20 21  1  0  0  0  0
 20 57  1  0  0  0  0
 20 58  1  0  0  0  0
 21 27  2  0  0  0  0
 21 28  1  0  0  0  0
 22 61  1  0  0  0  0
 22 62  1  0  0  0  0
 22 63  1  0  0  0  0
 23 64  1  0  0  0  0
 23 65  1  0  0  0  0
 23 66  1  0  0  0  0
 24 67  1  0  0  0  0
 24 68  1  0  0  0  0
 24 69  1  0  0  0  0
 25 26  1  0  0  0  0
 26 29  1  0  0  0  0
 26 71  1  0  0  0  0
 27 30  1  0  0  0  0
 27 72  1  0  0  0  0
 28 31  2  0  0  0  0
 28 73  1  0  0  0  0
 29 33  2  0  0  0  0
 29 34  1  0  0  0  0
 30 32  2  0  0  0  0
 30 75  1  0  0  0  0
 31 32  1  0  0  0  0
 31 76  1  0  0  0  0
 32 77  1  0  0  0  0
 33 36  1  0  0  0  0
 33 78  1  0  0  0  0
 34 37  2  0  0  0  0
 34 79  1  0  0  0  0
 35 38  1  0  0  0  0
 36 39  2  0  0  0  0
 36 80  1  0  0  0  0
 37 39  1  0  0  0  0
 37 81  1  0  0  0  0
 38 82  1  0  0  0  0
 38 83  1  0  0  0  0
 39 84  1  0  0  0  0
 40 41  1  0  0  0  0
 40 43  2  0  0  0  0
 41 42  1  0  0  0  0
 41 44  2  0  0  0  0
 42 45  1  0  0  0  0
 42 47  2  0  0  0  0
 43 46  1  0  0  0  0
 43 85  1  0  0  0  0
 44 48  1  0  0  0  0
 44 86  1  0  0  0  0
 45 46  2  0  0  0  0
 45 87  1  0  0  0  0
 46 88  1  0  0  0  0
 47 49  1  0  0  0  0
 47 89  1  0  0  0  0
 48 49  2  0  0  0  0
 48 90  1  0  0  0  0
 49 91  1  0  0  0  0
M  END
> <PUBCHEM_COMPOUND_CID>
501838
> <PUBCHEM_COMPOUND_CANONICALIZED>
1
> <PUBCHEM_CACTVS_COMPLEXITY>
1120
> <PUBCHEM_CACTVS_HBOND_ACCEPTOR>
7
> <PUBCHEM_CACTVS_HBOND_DONOR>
4
> <PUBCHEM_CACTVS_ROTATABLE_BOND>
13
> <PUBCHEM_CACTVS_SUBSKEYS>
AAADcfB/uABAAAAAAAAAAAAAAAAAAWAAAAAwYMGAAAAAAADBVAAAHgQQCAAADLzl2AayBsPABgiIAiFSEAKCCABgIBAIiIHODIgOdjqk9T+XeCjk1hGYqAeYyLCOgAABAAAYAAAAAAIAADAAAAAAAAAAAA==
> <PUBCHEM_IUPAC_OPENEYE_NAME>
(4R)-N-tert-butyl-3-[(2S,3S)-2-hydroxy-3-[[(2S)-2-[[2-(1-naphthyloxy)acetyl]amino]-2-phenyl-acetyl]amino]-4-phenyl-butanoyl]thiazolidine-4-carboxamide
> <PUBCHEM_IUPAC_CAS_NAME>
(4R)-N-tert-butyl-3-[(2S,3S)-2-hydroxy-3-[[(2S)-2-[[2-(1-naphthalenyloxy)-1-oxoethyl]amino]-1-oxo-2-phenylethyl]amino]-1-oxo-4-phenylbutyl]-4-thiazolidinecarboxamide
> <PUBCHEM_IUPAC_NAME_MARKUP>
(4<I>R</I>)-<I>N</I>-<I>tert</I>-butyl-3-[(2<I>S</I>,3<I>S</I>)-2-hydroxy-3-[[(2<I>S</I>)-2-[(2-naphthalen-1-yloxyacetyl)amino]-2-phenylacetyl]amino]-4-phenylbutanoyl]-1,3-thiazolidine-4-carboxamide
> <PUBCHEM_IUPAC_NAME>
(4R)-N-tert-butyl-3-[(2S,3S)-2-hydroxy-3-[[(2S)-2-[(2-naphthalen-1-yloxyacetyl)amino]-2-phenylacetyl]amino]-4-phenylbutanoyl]-1,3-thiazolidine-4-carboxamide
> <PUBCHEM_IUPAC_SYSTEMATIC_NAME>
(4R)-N-tert-butyl-3-[(2S,3S)-3-[[(2S)-2-(2-naphthalen-1-yloxyethanoylamino)-2-phenyl-ethanoyl]amino]-2-oxidanyl-4-phenyl-butanoyl]-1,3-thiazolidine-4-carboxamide
> <PUBCHEM_IUPAC_TRADITIONAL_NAME>
(4R)-N-tert-butyl-3-[(2S,3S)-2-hydroxy-3-[[(2S)-2-[[2-(1-naphthoxy)acetyl]amino]-2-phenyl-acetyl]amino]-4-phenyl-butanoyl]thiazolidine-4-carboxamide
> <PUBCHEM_IUPAC_INCHI>
InChI=1S/C38H42N4O6S/c1-38(2,3)41-35(45)30-23-49-24-42(30)37(47)34(44)29(21-25-13-6-4-7-14-25)39-36(46)33(27-16-8-5-9-17-27)40-32(43)22-48-31-20-12-18-26-15-10-11-19-28(26)31/h4-20,29-30,33-34,44H,21-24H2,1-3H3,(H,39,46)(H,40,43)(H,41,45)/t29-,30-,33-,34-/m0/s1
> <PUBCHEM_IUPAC_INCHIKEY>
FCEAUUZQEBETSK-ANFUHZJESA-N
> <PUBCHEM_XLOGP3_AA>
5.3
> <PUBCHEM_EXACT_MASS>
682.28250625
> <PUBCHEM_MOLECULAR_FORMULA>
C38H42N4O6S
> <PUBCHEM_MOLECULAR_WEIGHT>
682.8
> <PUBCHEM_OPENEYE_CAN_SMILES>
CC(C)(C)NC(=O)C1CSCN1C(=O)C(C(CC2=CC=CC=C2)NC(=O)C(C3=CC=CC=C3)NC(=O)COC4=CC=CC5=CC=CC=C54)O
> <PUBCHEM_OPENEYE_ISO_SMILES>
CC(C)(C)NC(=O)[C@@H]1CSCN1C(=O)[C@H]([C@H](CC2=CC=CC=C2)NC(=O)[C@H](C3=CC=CC=C3)NC(=O)COC4=CC=CC5=CC=CC=C54)O
> <PUBCHEM_CACTVS_TPSA>
162
> <PUBCHEM_MONOISOTOPIC_WEIGHT>
682.28250625
> <PUBCHEM_TOTAL_CHARGE>
0
> <PUBCHEM_HEAVY_ATOM_COUNT>
49
> <PUBCHEM_ATOM_DEF_STEREO_COUNT>
4
> <PUBCHEM_ATOM_UDEF_STEREO_COUNT>
0
> <PUBCHEM_BOND_DEF_STEREO_COUNT>
0
> <PUBCHEM_BOND_UDEF_STEREO_COUNT>
0
> <PUBCHEM_ISOTOPIC_ATOM_COUNT>
0
> <PUBCHEM_COMPONENT_COUNT>
1
> <PUBCHEM_CACTVS_TAUTO_COUNT>
-1
> <PUBCHEM_COORDINATE_TYPE>
1
5
255
> <PUBCHEM_BONDANNOTATIONS>
13  10  5
26  11  6
12  18  5
14  2  6
21  27  8
21  28  8
27  30  8
28  31  8
29  33  8
29  34  8
30  32  8
31  32  8
33  36  8
34  37  8
36  39  8
37  39  8
40  41  8
40  43  8
41  42  8
41  44  8
42  45  8
42  47  8
43  46  8
44  48  8
45  46  8
47  49  8
48  49  8
$$$$
