501806
  -OEChem-10302200282D
 94 97  0     1  0  0  0  0  0999 V2000
    9.4651   -3.1173    0.0000 S   0  0  0  0  0  0  0  0  0  0  0  0
    4.2690   -2.1173    0.0000 O   0  0  0  0  0  0  0  0  0  0  0  0
    6.0010   -0.1173    0.0000 O   0  0  0  0  0  0  0  0  0  0  0  0
    5.8586    1.2373    0.0000 O   0  0  0  0  0  0  0  0  0  0  0  0
    2.5896    4.1207    0.0000 O   0  0  0  0  0  0  0  0  0  0  0  0
    3.3885    4.5277    0.0000 O   0  0  0  0  0  0  0  0  0  0  0  0
    7.7331   -3.1173    0.0000 O   0  0  0  0  0  0  0  0  0  0  0  0
    9.4651   -4.1173    0.0000 O   0  0  0  0  0  0  0  0  0  0  0  0
    8.4651   -3.1173    0.0000 O   0  0  0  0  0  0  0  0  0  0  0  0
   10.3312   -0.6173    0.0000 O   0  0  0  0  0  0  0  0  0  0  0  0
   10.3312    1.3827    0.0000 O   0  0  0  0  0  0  0  0  0  0  0  0
    4.2690   -0.1173    0.0000 N   0  0  0  0  0  0  0  0  0  0  0  0
    4.6997    2.5245    0.0000 N   0  0  0  0  0  0  0  0  0  0  0  0
    6.8670   -1.6173    0.0000 N   0  0  0  0  0  0  0  0  0  0  0  0
    8.5991   -0.6173    0.0000 N   0  0  0  0  0  0  0  0  0  0  0  0
    4.1645    0.8772    0.0000 C   0  0  1  0  0  0  0  0  0  0  0  0
    3.1863    1.0851    0.0000 C   0  0  0  0  0  0  0  0  0  0  0  0
    2.6863    0.2191    0.0000 C   0  0  0  0  0  0  0  0  0  0  0  0
    3.3554   -0.5241    0.0000 C   0  0  0  0  0  0  0  0  0  0  0  0
    5.1350   -0.6173    0.0000 C   0  0  0  0  0  0  0  0  0  0  0  0
    4.9076    1.5463    0.0000 C   0  0  0  0  0  0  0  0  0  0  0  0
    5.1350   -1.6173    0.0000 C   0  0  2  0  0  0  0  0  0  0  0  0
    6.0010   -2.1173    0.0000 C   0  0  2  0  0  0  0  0  0  0  0  0
    3.7486    2.8335    0.0000 C   0  0  0  0  0  0  0  0  0  0  0  0
    6.0010   -3.1173    0.0000 C   0  0  0  0  0  0  0  0  0  0  0  0
    2.7976    3.1425    0.0000 C   0  0  0  0  0  0  0  0  0  0  0  0
    4.0576    3.7845    0.0000 C   0  0  0  0  0  0  0  0  0  0  0  0
    3.4396    1.8824    0.0000 C   0  0  0  0  0  0  0  0  0  0  0  0
    5.1350   -3.6173    0.0000 C   0  0  0  0  0  0  0  0  0  0  0  0
    7.7331   -2.1173    0.0000 C   0  0  0  0  0  0  0  0  0  0  0  0
    8.5991   -1.6173    0.0000 C   0  0  2  0  0  0  0  0  0  0  0  0
    9.4651   -2.1173    0.0000 C   0  0  0  0  0  0  0  0  0  0  0  0
    4.2690   -3.1173    0.0000 C   0  0  0  0  0  0  0  0  0  0  0  0
    5.1350   -4.6173    0.0000 C   0  0  0  0  0  0  0  0  0  0  0  0
    3.4030   -3.6173    0.0000 C   0  0  0  0  0  0  0  0  0  0  0  0
    4.2690   -5.1173    0.0000 C   0  0  0  0  0  0  0  0  0  0  0  0
   10.4651   -3.1173    0.0000 C   0  0  0  0  0  0  0  0  0  0  0  0
    3.4030   -4.6173    0.0000 C   0  0  0  0  0  0  0  0  0  0  0  0
    9.4651   -0.1173    0.0000 C   0  0  0  0  0  0  0  0  0  0  0  0
    9.4651    0.8827    0.0000 C   0  0  0  0  0  0  0  0  0  0  0  0
   10.3312    2.3827    0.0000 C   0  0  0  0  0  0  0  0  0  0  0  0
   11.1972    2.8827    0.0000 C   0  0  0  0  0  0  0  0  0  0  0  0
   11.1972    3.8827    0.0000 C   0  0  0  0  0  0  0  0  0  0  0  0
    9.4651    2.8827    0.0000 C   0  0  0  0  0  0  0  0  0  0  0  0
   12.0911    2.3480    0.0000 C   0  0  0  0  0  0  0  0  0  0  0  0
   10.3312    4.3827    0.0000 C   0  0  0  0  0  0  0  0  0  0  0  0
    9.4651    3.8827    0.0000 C   0  0  0  0  0  0  0  0  0  0  0  0
   12.0911    4.4173    0.0000 C   0  0  0  0  0  0  0  0  0  0  0  0
   12.9972    2.8618    0.0000 C   0  0  0  0  0  0  0  0  0  0  0  0
   12.9972    3.9035    0.0000 C   0  0  0  0  0  0  0  0  0  0  0  0
    4.7433    0.6550    0.0000 H   0  0  0  0  0  0  0  0  0  0  0  0
    3.3779    1.6748    0.0000 H   0  0  0  0  0  0  0  0  0  0  0  0
    2.6199    1.3373    0.0000 H   0  0  0  0  0  0  0  0  0  0  0  0
    2.1847    0.5835    0.0000 H   0  0  0  0  0  0  0  0  0  0  0  0
    2.2714   -0.2417    0.0000 H   0  0  0  0  0  0  0  0  0  0  0  0
    2.8538   -0.8885    0.0000 H   0  0  0  0  0  0  0  0  0  0  0  0
    3.6654   -1.0610    0.0000 H   0  0  0  0  0  0  0  0  0  0  0  0
    4.5981   -1.3073    0.0000 H   0  0  0  0  0  0  0  0  0  0  0  0
    6.5380   -2.4273    0.0000 H   0  0  0  0  0  0  0  0  0  0  0  0
    5.1604    2.9393    0.0000 H   0  0  0  0  0  0  0  0  0  0  0  0
    6.2131   -3.7000    0.0000 H   0  0  0  0  0  0  0  0  0  0  0  0
    6.6116   -3.0097    0.0000 H   0  0  0  0  0  0  0  0  0  0  0  0
    6.8670   -0.9973    0.0000 H   0  0  0  0  0  0  0  0  0  0  0  0
    2.1779    3.1209    0.0000 H   0  0  0  0  0  0  0  0  0  0  0  0
    2.7113    2.5285    0.0000 H   0  0  0  0  0  0  0  0  0  0  0  0
    4.6051    3.4935    0.0000 H   0  0  0  0  0  0  0  0  0  0  0  0
    4.4394    4.2731    0.0000 H   0  0  0  0  0  0  0  0  0  0  0  0
    2.8500    2.0740    0.0000 H   0  0  0  0  0  0  0  0  0  0  0  0
    3.2480    1.2928    0.0000 H   0  0  0  0  0  0  0  0  0  0  0  0
    4.0293    1.6908    0.0000 H   0  0  0  0  0  0  0  0  0  0  0  0
    3.7320   -1.8073    0.0000 H   0  0  0  0  0  0  0  0  0  0  0  0
    8.0622   -1.3073    0.0000 H   0  0  0  0  0  0  0  0  0  0  0  0
   10.0757   -2.2250    0.0000 H   0  0  0  0  0  0  0  0  0  0  0  0
    9.6772   -1.5347    0.0000 H   0  0  0  0  0  0  0  0  0  0  0  0
    4.2690   -2.4973    0.0000 H   0  0  0  0  0  0  0  0  0  0  0  0
    5.6719   -4.9273    0.0000 H   0  0  0  0  0  0  0  0  0  0  0  0
    2.0000    4.3122    0.0000 H   0  0  0  0  0  0  0  0  0  0  0  0
    3.5801    5.1173    0.0000 H   0  0  0  0  0  0  0  0  0  0  0  0
    8.0622   -0.3073    0.0000 H   0  0  0  0  0  0  0  0  0  0  0  0
    2.8660   -3.3073    0.0000 H   0  0  0  0  0  0  0  0  0  0  0  0
    4.2690   -5.7373    0.0000 H   0  0  0  0  0  0  0  0  0  0  0  0
   10.4651   -3.7373    0.0000 H   0  0  0  0  0  0  0  0  0  0  0  0
   11.0851   -3.1173    0.0000 H   0  0  0  0  0  0  0  0  0  0  0  0
   10.4651   -2.4973    0.0000 H   0  0  0  0  0  0  0  0  0  0  0  0
    2.8660   -4.9273    0.0000 H   0  0  0  0  0  0  0  0  0  0  0  0
    9.2531    1.4653    0.0000 H   0  0  0  0  0  0  0  0  0  0  0  0
    8.8546    0.7750    0.0000 H   0  0  0  0  0  0  0  0  0  0  0  0
    8.9282    2.5727    0.0000 H   0  0  0  0  0  0  0  0  0  0  0  0
   12.0840    1.7280    0.0000 H   0  0  0  0  0  0  0  0  0  0  0  0
   10.3312    5.0027    0.0000 H   0  0  0  0  0  0  0  0  0  0  0  0
    8.9282    4.1927    0.0000 H   0  0  0  0  0  0  0  0  0  0  0  0
   12.0840    5.0373    0.0000 H   0  0  0  0  0  0  0  0  0  0  0  0
   13.5329    2.5498    0.0000 H   0  0  0  0  0  0  0  0  0  0  0  0
   13.5329    4.2156    0.0000 H   0  0  0  0  0  0  0  0  0  0  0  0
  1  8  2  0  0  0  0
  1  9  2  0  0  0  0
  1 32  1  0  0  0  0
  1 37  1  0  0  0  0
 22  2  1  6  0  0  0
  2 71  1  0  0  0  0
  3 20  2  0  0  0  0
  4 21  2  0  0  0  0
  5 26  1  0  0  0  0
  5 77  1  0  0  0  0
  6 27  1  0  0  0  0
  6 78  1  0  0  0  0
  7 30  2  0  0  0  0
 10 39  2  0  0  0  0
 11 40  1  0  0  0  0
 11 41  1  0  0  0  0
 12 16  1  0  0  0  0
 12 19  1  0  0  0  0
 12 20  1  0  0  0  0
 13 21  1  0  0  0  0
 13 24  1  0  0  0  0
 13 60  1  0  0  0  0
 23 14  1  1  0  0  0
 14 30  1  0  0  0  0
 14 63  1  0  0  0  0
 31 15  1  1  0  0  0
 15 39  1  0  0  0  0
 15 79  1  0  0  0  0
 16 17  1  0  0  0  0
 16 21  1  1  0  0  0
 16 51  1  0  0  0  0
 17 18  1  0  0  0  0
 17 52  1  0  0  0  0
 17 53  1  0  0  0  0
 18 19  1  0  0  0  0
 18 54  1  0  0  0  0
 18 55  1  0  0  0  0
 19 56  1  0  0  0  0
 19 57  1  0  0  0  0
 20 22  1  0  0  0  0
 22 23  1  0  0  0  0
 22 58  1  0  0  0  0
 23 25  1  0  0  0  0
 23 59  1  0  0  0  0
 24 26  1  0  0  0  0
 24 27  1  0  0  0  0
 24 28  1  0  0  0  0
 25 29  1  0  0  0  0
 25 61  1  0  0  0  0
 25 62  1  0  0  0  0
 26 64  1  0  0  0  0
 26 65  1  0  0  0  0
 27 66  1  0  0  0  0
 27 67  1  0  0  0  0
 28 68  1  0  0  0  0
 28 69  1  0  0  0  0
 28 70  1  0  0  0  0
 29 33  2  0  0  0  0
 29 34  1  0  0  0  0
 30 31  1  0  0  0  0
 31 32  1  0  0  0  0
 31 72  1  0  0  0  0
 32 73  1  0  0  0  0
 32 74  1  0  0  0  0
 33 35  1  0  0  0  0
 33 75  1  0  0  0  0
 34 36  2  0  0  0  0
 34 76  1  0  0  0  0
 35 38  2  0  0  0  0
 35 80  1  0  0  0  0
 36 38  1  0  0  0  0
 36 81  1  0  0  0  0
 37 82  1  0  0  0  0
 37 83  1  0  0  0  0
 37 84  1  0  0  0  0
 38 85  1  0  0  0  0
 39 40  1  0  0  0  0
 40 86  1  0  0  0  0
 40 87  1  0  0  0  0
 41 42  1  0  0  0  0
 41 44  2  0  0  0  0
 42 43  1  0  0  0  0
 42 45  2  0  0  0  0
 43 46  1  0  0  0  0
 43 48  2  0  0  0  0
 44 47  1  0  0  0  0
 44 88  1  0  0  0  0
 45 49  1  0  0  0  0
 45 89  1  0  0  0  0
 46 47  2  0  0  0  0
 46 90  1  0  0  0  0
 47 91  1  0  0  0  0
 48 50  1  0  0  0  0
 48 92  1  0  0  0  0
 49 50  2  0  0  0  0
 49 93  1  0  0  0  0
 50 94  1  0  0  0  0
M  END
> <PUBCHEM_COMPOUND_CID>
501806
> <PUBCHEM_COMPOUND_CANONICALIZED>
1
> <PUBCHEM_CACTVS_COMPLEXITY>
1270
> <PUBCHEM_CACTVS_HBOND_ACCEPTOR>
10
> <PUBCHEM_CACTVS_HBOND_DONOR>
6
> <PUBCHEM_CACTVS_ROTATABLE_BOND>
16
> <PUBCHEM_CACTVS_SUBSKEYS>
AAADcfB/vABAAAAAAAAAAAAAAAAAAWAAAAAwYMAAAAAAAADBVAAAHgQQCAAADLzl2AayBsPABgqIAiFSEHJCCAAgIBAIiIHOCIgOdjqk8T+XeCCl1hGYqAeYybCOgAABAAAYAAAAAAIAADAAAAAAAAAAAA==
> <PUBCHEM_IUPAC_OPENEYE_NAME>
(2S)-N-[2-hydroxy-1-(hydroxymethyl)-1-methyl-ethyl]-1-[(2S,3S)-2-hydroxy-3-[[(2R)-3-methylsulfonyl-2-[[2-(1-naphthyloxy)acetyl]amino]propanoyl]amino]-4-phenyl-butanoyl]pyrrolidine-2-carboxamide
> <PUBCHEM_IUPAC_CAS_NAME>
(2S)-N-(1,3-dihydroxy-2-methylpropan-2-yl)-1-[(2S,3S)-2-hydroxy-3-[[(2R)-3-methylsulfonyl-2-[[2-(1-naphthalenyloxy)-1-oxoethyl]amino]-1-oxopropyl]amino]-1-oxo-4-phenylbutyl]-2-pyrrolidinecarboxamide
> <PUBCHEM_IUPAC_NAME_MARKUP>
(2<I>S</I>)-<I>N</I>-(1,3-dihydroxy-2-methylpropan-2-yl)-1-[(2<I>S</I>,3<I>S</I>)-2-hydroxy-3-[[(2<I>R</I>)-3-methylsulfonyl-2-[(2-naphthalen-1-yloxyacetyl)amino]propanoyl]amino]-4-phenylbutanoyl]pyrrolidine-2-carboxamide
> <PUBCHEM_IUPAC_NAME>
(2S)-N-(1,3-dihydroxy-2-methylpropan-2-yl)-1-[(2S,3S)-2-hydroxy-3-[[(2R)-3-methylsulfonyl-2-[(2-naphthalen-1-yloxyacetyl)amino]propanoyl]amino]-4-phenylbutanoyl]pyrrolidine-2-carboxamide
> <PUBCHEM_IUPAC_SYSTEMATIC_NAME>
(2S)-N-[2-methyl-1,3-bis(oxidanyl)propan-2-yl]-1-[(2S,3S)-3-[[(2R)-3-methylsulfonyl-2-(2-naphthalen-1-yloxyethanoylamino)propanoyl]amino]-2-oxidanyl-4-phenyl-butanoyl]pyrrolidine-2-carboxamide
> <PUBCHEM_IUPAC_TRADITIONAL_NAME>
(2S)-1-[(2S,3S)-2-hydroxy-3-[[(2R)-3-mesyl-2-[[2-(1-naphthoxy)acetyl]amino]propanoyl]amino]-4-phenyl-butanoyl]-N-(2-hydroxy-1-methyl-1-methylol-ethyl)pyrrolidine-2-carboxamide
> <PUBCHEM_IUPAC_INCHI>
InChI=1S/C35H44N4O10S/c1-35(21-40,22-41)38-33(45)28-15-9-17-39(28)34(46)31(43)26(18-23-10-4-3-5-11-23)37-32(44)27(20-50(2,47)48)36-30(42)19-49-29-16-8-13-24-12-6-7-14-25(24)29/h3-8,10-14,16,26-28,31,40-41,43H,9,15,17-22H2,1-2H3,(H,36,42)(H,37,44)(H,38,45)/t26-,27-,28-,31-/m0/s1
> <PUBCHEM_IUPAC_INCHIKEY>
IJEOFCUFNMESGA-KFZSMJGVSA-N
> <PUBCHEM_XLOGP3_AA>
0.9
> <PUBCHEM_EXACT_MASS>
712.27781479
> <PUBCHEM_MOLECULAR_FORMULA>
C35H44N4O10S
> <PUBCHEM_MOLECULAR_WEIGHT>
712.8
> <PUBCHEM_OPENEYE_CAN_SMILES>
CC(CO)(CO)NC(=O)C1CCCN1C(=O)C(C(CC2=CC=CC=C2)NC(=O)C(CS(=O)(=O)C)NC(=O)COC3=CC=CC4=CC=CC=C43)O
> <PUBCHEM_OPENEYE_ISO_SMILES>
CC(CO)(CO)NC(=O)[C@@H]1CCCN1C(=O)[C@H]([C@H](CC2=CC=CC=C2)NC(=O)[C@H](CS(=O)(=O)C)NC(=O)COC3=CC=CC4=CC=CC=C43)O
> <PUBCHEM_CACTVS_TPSA>
220
> <PUBCHEM_MONOISOTOPIC_WEIGHT>
712.27781479
> <PUBCHEM_TOTAL_CHARGE>
0
> <PUBCHEM_HEAVY_ATOM_COUNT>
50
> <PUBCHEM_ATOM_DEF_STEREO_COUNT>
4
> <PUBCHEM_ATOM_UDEF_STEREO_COUNT>
0
> <PUBCHEM_BOND_DEF_STEREO_COUNT>
0
> <PUBCHEM_BOND_UDEF_STEREO_COUNT>
0
> <PUBCHEM_ISOTOPIC_ATOM_COUNT>
0
> <PUBCHEM_COMPONENT_COUNT>
1
> <PUBCHEM_CACTVS_TAUTO_COUNT>
-1
> <PUBCHEM_COORDINATE_TYPE>
1
5
255
> <PUBCHEM_BONDANNOTATIONS>
23  14  5
31  15  5
16  21  5
22  2  6
29  33  8
29  34  8
33  35  8
34  36  8
35  38  8
36  38  8
41  42  8
41  44  8
42  43  8
42  45  8
43  46  8
43  48  8
44  47  8
45  49  8
46  47  8
48  50  8
49  50  8
$$$$
