501858
  -OEChem-10302200282D
100103  0     1  0  0  0  0  0999 V2000
    4.7981    2.1407    0.0000 O   0  0  0  0  0  0  0  0  0  0  0  0
    6.1602    2.1407    0.0000 O   0  0  0  0  0  0  0  0  0  0  0  0
    7.9682    0.2091    0.0000 O   0  0  0  0  0  0  0  0  0  0  0  0
    8.9627    0.1045    0.0000 O   0  0  0  0  0  0  0  0  0  0  0  0
   10.7707   -1.8271    0.0000 O   0  0  0  0  0  0  0  0  0  0  0  0
   12.5340    0.6000    0.0000 O   0  0  0  0  0  0  0  0  0  0  0  0
    9.3694   -0.8090    0.0000 O   0  0  0  0  0  0  0  0  0  0  0  0
    5.9791    0.4181    0.0000 N   0  0  0  0  0  0  0  0  0  0  0  0
    3.3968    1.1226    0.0000 N   0  0  0  0  0  0  0  0  0  0  0  0
    9.1437    1.8271    0.0000 N   0  0  0  0  0  0  0  0  0  0  0  0
   10.9517   -0.1045    0.0000 N   0  0  0  0  0  0  0  0  0  0  0  0
   12.7151    2.3225    0.0000 N   0  0  0  0  0  0  0  0  0  0  0  0
    5.4791   -1.1207    0.0000 C   0  0  2  0  0  0  0  0  0  0  0  0
    5.4791   -2.1207    0.0000 C   0  0  0  0  0  0  0  0  0  0  0  0
    4.6701   -0.5329    0.0000 C   0  0  0  0  0  0  0  0  0  0  0  0
    6.2881   -0.5329    0.0000 C   0  0  0  0  0  0  0  0  0  0  0  0
    4.9791    0.4181    0.0000 C   0  0  1  0  0  0  0  0  0  0  0  0
    4.6131   -2.6207    0.0000 C   0  0  0  0  0  0  0  0  0  0  0  0
    6.3451   -2.6207    0.0000 C   0  0  0  0  0  0  0  0  0  0  0  0
    4.6131   -3.6207    0.0000 C   0  0  0  0  0  0  0  0  0  0  0  0
    6.3451   -3.6207    0.0000 C   0  0  0  0  0  0  0  0  0  0  0  0
    5.4791   -4.1207    0.0000 C   0  0  0  0  0  0  0  0  0  0  0  0
    4.3913    1.2271    0.0000 C   0  0  0  0  0  0  0  0  0  0  0  0
    6.5669    1.2271    0.0000 C   0  0  0  0  0  0  0  0  0  0  0  0
    7.5614    1.1226    0.0000 C   0  0  2  0  0  0  0  0  0  0  0  0
    8.1492    1.9316    0.0000 C   0  0  2  0  0  0  0  0  0  0  0  0
    2.8090    1.9316    0.0000 C   0  0  0  0  0  0  0  0  0  0  0  0
    7.7425    2.8452    0.0000 C   0  0  0  0  0  0  0  0  0  0  0  0
    2.2212    2.7406    0.0000 C   0  0  0  0  0  0  0  0  0  0  0  0
    2.0000    1.3438    0.0000 C   0  0  0  0  0  0  0  0  0  0  0  0
    3.6180    2.5194    0.0000 C   0  0  0  0  0  0  0  0  0  0  0  0
    8.3302    3.6542    0.0000 C   0  0  0  0  0  0  0  0  0  0  0  0
    9.5505    0.9135    0.0000 C   0  0  0  0  0  0  0  0  0  0  0  0
   10.5450    0.8090    0.0000 C   0  0  2  0  0  0  0  0  0  0  0  0
    9.3248    3.5496    0.0000 C   0  0  0  0  0  0  0  0  0  0  0  0
    7.9235    4.5677    0.0000 C   0  0  0  0  0  0  0  0  0  0  0  0
   11.1328    1.6180    0.0000 C   0  0  0  0  0  0  0  0  0  0  0  0
    9.9126    4.3587    0.0000 C   0  0  0  0  0  0  0  0  0  0  0  0
    8.5113    5.3767    0.0000 C   0  0  0  0  0  0  0  0  0  0  0  0
    9.5058    5.2722    0.0000 C   0  0  0  0  0  0  0  0  0  0  0  0
   12.1273    1.5135    0.0000 C   0  0  0  0  0  0  0  0  0  0  0  0
   10.3639   -0.9135    0.0000 C   0  0  0  0  0  0  0  0  0  0  0  0
   10.1829   -2.6361    0.0000 C   0  0  0  0  0  0  0  0  0  0  0  0
   10.5896   -3.5496    0.0000 C   0  0  0  0  0  0  0  0  0  0  0  0
   10.0018   -4.3587    0.0000 C   0  0  0  0  0  0  0  0  0  0  0  0
   11.5841   -3.6542    0.0000 C   0  0  0  0  0  0  0  0  0  0  0  0
   10.4086   -5.2722    0.0000 C   0  0  0  0  0  0  0  0  0  0  0  0
   11.9909   -4.5677    0.0000 C   0  0  0  0  0  0  0  0  0  0  0  0
   11.4031   -5.3767    0.0000 C   0  0  0  0  0  0  0  0  0  0  0  0
    4.7218   -1.5066    0.0000 H   0  0  0  0  0  0  0  0  0  0  0  0
    6.0160   -1.8107    0.0000 H   0  0  0  0  0  0  0  0  0  0  0  0
    4.1037   -0.2808    0.0000 H   0  0  0  0  0  0  0  0  0  0  0  0
    4.3601   -1.0699    0.0000 H   0  0  0  0  0  0  0  0  0  0  0  0
    6.5981   -1.0699    0.0000 H   0  0  0  0  0  0  0  0  0  0  0  0
    6.8545   -0.2808    0.0000 H   0  0  0  0  0  0  0  0  0  0  0  0
    5.2606    0.9705    0.0000 H   0  0  0  0  0  0  0  0  0  0  0  0
    4.4010   -2.0381    0.0000 H   0  0  0  0  0  0  0  0  0  0  0  0
    4.0025   -2.7284    0.0000 H   0  0  0  0  0  0  0  0  0  0  0  0
    6.9557   -2.7284    0.0000 H   0  0  0  0  0  0  0  0  0  0  0  0
    6.5572   -2.0381    0.0000 H   0  0  0  0  0  0  0  0  0  0  0  0
    4.0025   -3.5131    0.0000 H   0  0  0  0  0  0  0  0  0  0  0  0
    4.4010   -4.2033    0.0000 H   0  0  0  0  0  0  0  0  0  0  0  0
    6.5572   -4.2033    0.0000 H   0  0  0  0  0  0  0  0  0  0  0  0
    6.9557   -3.5131    0.0000 H   0  0  0  0  0  0  0  0  0  0  0  0
    5.0806   -4.5957    0.0000 H   0  0  0  0  0  0  0  0  0  0  0  0
    5.8776   -4.5957    0.0000 H   0  0  0  0  0  0  0  0  0  0  0  0
    8.1780    1.0578    0.0000 H   0  0  0  0  0  0  0  0  0  0  0  0
    3.1446    0.5562    0.0000 H   0  0  0  0  0  0  0  0  0  0  0  0
    8.5136    2.4332    0.0000 H   0  0  0  0  0  0  0  0  0  0  0  0
    7.3118    3.2912    0.0000 H   0  0  0  0  0  0  0  0  0  0  0  0
    7.2285    2.4985    0.0000 H   0  0  0  0  0  0  0  0  0  0  0  0
    7.6037   -0.2925    0.0000 H   0  0  0  0  0  0  0  0  0  0  0  0
    2.7228    3.1051    0.0000 H   0  0  0  0  0  0  0  0  0  0  0  0
    1.8568    3.2422    0.0000 H   0  0  0  0  0  0  0  0  0  0  0  0
    1.7196    2.3762    0.0000 H   0  0  0  0  0  0  0  0  0  0  0  0
    1.6356    1.8454    0.0000 H   0  0  0  0  0  0  0  0  0  0  0  0
    1.4984    0.9794    0.0000 H   0  0  0  0  0  0  0  0  0  0  0  0
    2.3644    0.8422    0.0000 H   0  0  0  0  0  0  0  0  0  0  0  0
    3.9825    2.0178    0.0000 H   0  0  0  0  0  0  0  0  0  0  0  0
    4.1196    2.8838    0.0000 H   0  0  0  0  0  0  0  0  0  0  0  0
    3.2536    3.0210    0.0000 H   0  0  0  0  0  0  0  0  0  0  0  0
    9.5082    2.3287    0.0000 H   0  0  0  0  0  0  0  0  0  0  0  0
   10.1806    0.3074    0.0000 H   0  0  0  0  0  0  0  0  0  0  0  0
    9.5770    2.9833    0.0000 H   0  0  0  0  0  0  0  0  0  0  0  0
    7.3069    4.6325    0.0000 H   0  0  0  0  0  0  0  0  0  0  0  0
   11.3037    2.2140    0.0000 H   0  0  0  0  0  0  0  0  0  0  0  0
   10.5755    1.8898    0.0000 H   0  0  0  0  0  0  0  0  0  0  0  0
   10.5292    4.2939    0.0000 H   0  0  0  0  0  0  0  0  0  0  0  0
    8.2591    5.9431    0.0000 H   0  0  0  0  0  0  0  0  0  0  0  0
   11.5683   -0.1693    0.0000 H   0  0  0  0  0  0  0  0  0  0  0  0
    9.8702    5.7738    0.0000 H   0  0  0  0  0  0  0  0  0  0  0  0
   13.3317    2.2577    0.0000 H   0  0  0  0  0  0  0  0  0  0  0  0
   12.4629    2.8889    0.0000 H   0  0  0  0  0  0  0  0  0  0  0  0
    9.7522   -2.1901    0.0000 H   0  0  0  0  0  0  0  0  0  0  0  0
    9.6689   -2.9828    0.0000 H   0  0  0  0  0  0  0  0  0  0  0  0
    9.3852   -4.2939    0.0000 H   0  0  0  0  0  0  0  0  0  0  0  0
   11.9486   -3.1526    0.0000 H   0  0  0  0  0  0  0  0  0  0  0  0
   10.0441   -5.7738    0.0000 H   0  0  0  0  0  0  0  0  0  0  0  0
   12.6075   -4.6325    0.0000 H   0  0  0  0  0  0  0  0  0  0  0  0
   11.6553   -5.9431    0.0000 H   0  0  0  0  0  0  0  0  0  0  0  0
  1 23  2  0  0  0  0
  2 24  2  0  0  0  0
 25  3  1  6  0  0  0
  3 72  1  0  0  0  0
  4 33  2  0  0  0  0
  5 42  1  0  0  0  0
  5 43  1  0  0  0  0
  6 41  2  0  0  0  0
  7 42  2  0  0  0  0
  8 16  1  0  0  0  0
  8 17  1  0  0  0  0
  8 24  1  0  0  0  0
  9 23  1  0  0  0  0
  9 27  1  0  0  0  0
  9 68  1  0  0  0  0
 26 10  1  6  0  0  0
 10 33  1  0  0  0  0
 10 82  1  0  0  0  0
 34 11  1  6  0  0  0
 11 42  1  0  0  0  0
 11 90  1  0  0  0  0
 12 41  1  0  0  0  0
 12 92  1  0  0  0  0
 12 93  1  0  0  0  0
 13 14  1  0  0  0  0
 13 15  1  0  0  0  0
 13 16  1  0  0  0  0
 13 50  1  1  0  0  0
 14 18  1  0  0  0  0
 14 19  1  0  0  0  0
 14 51  1  0  0  0  0
 15 17  1  0  0  0  0
 15 52  1  0  0  0  0
 15 53  1  0  0  0  0
 16 54  1  0  0  0  0
 16 55  1  0  0  0  0
 17 23  1  1  0  0  0
 17 56  1  0  0  0  0
 18 20  1  0  0  0  0
 18 57  1  0  0  0  0
 18 58  1  0  0  0  0
 19 21  1  0  0  0  0
 19 59  1  0  0  0  0
 19 60  1  0  0  0  0
 20 22  1  0  0  0  0
 20 61  1  0  0  0  0
 20 62  1  0  0  0  0
 21 22  1  0  0  0  0
 21 63  1  0  0  0  0
 21 64  1  0  0  0  0
 22 65  1  0  0  0  0
 22 66  1  0  0  0  0
 24 25  1  0  0  0  0
 25 26  1  0  0  0  0
 25 67  1  0  0  0  0
 26 28  1  0  0  0  0
 26 69  1  0  0  0  0
 27 29  1  0  0  0  0
 27 30  1  0  0  0  0
 27 31  1  0  0  0  0
 28 32  1  0  0  0  0
 28 70  1  0  0  0  0
 28 71  1  0  0  0  0
 29 73  1  0  0  0  0
 29 74  1  0  0  0  0
 29 75  1  0  0  0  0
 30 76  1  0  0  0  0
 30 77  1  0  0  0  0
 30 78  1  0  0  0  0
 31 79  1  0  0  0  0
 31 80  1  0  0  0  0
 31 81  1  0  0  0  0
 32 35  2  0  0  0  0
 32 36  1  0  0  0  0
 33 34  1  0  0  0  0
 34 37  1  0  0  0  0
 34 83  1  0  0  0  0
 35 38  1  0  0  0  0
 35 84  1  0  0  0  0
 36 39  2  0  0  0  0
 36 85  1  0  0  0  0
 37 41  1  0  0  0  0
 37 86  1  0  0  0  0
 37 87  1  0  0  0  0
 38 40  2  0  0  0  0
 38 88  1  0  0  0  0
 39 40  1  0  0  0  0
 39 89  1  0  0  0  0
 40 91  1  0  0  0  0
 43 44  1  0  0  0  0
 43 94  1  0  0  0  0
 43 95  1  0  0  0  0
 44 45  2  0  0  0  0
 44 46  1  0  0  0  0
 45 47  1  0  0  0  0
 45 96  1  0  0  0  0
 46 48  2  0  0  0  0
 46 97  1  0  0  0  0
 47 49  2  0  0  0  0
 47 98  1  0  0  0  0
 48 49  1  0  0  0  0
 48 99  1  0  0  0  0
 49100  1  0  0  0  0
M  END
> <PUBCHEM_COMPOUND_CID>
501858
> <PUBCHEM_COMPOUND_CANONICALIZED>
1
> <PUBCHEM_CACTVS_COMPLEXITY>
1120
> <PUBCHEM_CACTVS_HBOND_ACCEPTOR>
7
> <PUBCHEM_CACTVS_HBOND_DONOR>
5
> <PUBCHEM_CACTVS_ROTATABLE_BOND>
15
> <PUBCHEM_CACTVS_SUBSKEYS>
AAADcfB/uAAAAAAAAAAAAAAAAAAAAWAAAAAwYMAAAAAAAAABQAAAHgAQCAAADbzhmAYyCIPABgCIAiFSGAICAAAgAAAIiIHICIkKdjqA8TmccAAk1gGYqAedyeCOgAAAAAAAAAAAAAAAAAAAAAAAAAAAAA==
> <PUBCHEM_IUPAC_OPENEYE_NAME>
benzyl N-[(1S)-3-amino-1-[[(1S,2S)-1-benzyl-3-[(2S,4S)-2-(tert-butylcarbamoyl)-4-cyclohexyl-pyrrolidin-1-yl]-2-hydroxy-3-oxo-propyl]carbamoyl]-3-oxo-propyl]carbamate
> <PUBCHEM_IUPAC_CAS_NAME>
N-[(2S)-4-amino-1-[[(2S,3S)-4-[(2S,4S)-2-[(tert-butylamino)-oxomethyl]-4-cyclohexyl-1-pyrrolidinyl]-3-hydroxy-4-oxo-1-phenylbutan-2-yl]amino]-1,4-dioxobutan-2-yl]carbamic acid (phenylmethyl) ester
> <PUBCHEM_IUPAC_NAME_MARKUP>
benzyl <I>N</I>-[(2<I>S</I>)-4-amino-1-[[(2<I>S</I>,3<I>S</I>)-4-[(2<I>S</I>,4<I>S</I>)-2-(<I>tert</I>-butylcarbamoyl)-4-cyclohexylpyrrolidin-1-yl]-3-hydroxy-4-oxo-1-phenylbutan-2-yl]amino]-1,4-dioxobutan-2-yl]carbamate
> <PUBCHEM_IUPAC_NAME>
benzyl N-[(2S)-4-amino-1-[[(2S,3S)-4-[(2S,4S)-2-(tert-butylcarbamoyl)-4-cyclohexylpyrrolidin-1-yl]-3-hydroxy-4-oxo-1-phenylbutan-2-yl]amino]-1,4-dioxobutan-2-yl]carbamate
> <PUBCHEM_IUPAC_SYSTEMATIC_NAME>
(phenylmethyl) N-[(2S)-4-azanyl-1-[[(2S,3S)-4-[(2S,4S)-2-(tert-butylcarbamoyl)-4-cyclohexyl-pyrrolidin-1-yl]-3-oxidanyl-4-oxidanylidene-1-phenyl-butan-2-yl]amino]-1,4-bis(oxidanylidene)butan-2-yl]carbamate
> <PUBCHEM_IUPAC_TRADITIONAL_NAME>
N-[(1S)-3-amino-1-[[(1S,2S)-1-benzyl-3-[(2S,4S)-2-(tert-butylcarbamoyl)-4-cyclohexyl-pyrrolidino]-2-hydroxy-3-keto-propyl]carbamoyl]-3-keto-propyl]carbamic acid benzyl ester
> <PUBCHEM_IUPAC_INCHI>
InChI=1S/C37H51N5O7/c1-37(2,3)41-34(46)30-20-27(26-17-11-6-12-18-26)22-42(30)35(47)32(44)28(19-24-13-7-4-8-14-24)39-33(45)29(21-31(38)43)40-36(48)49-23-25-15-9-5-10-16-25/h4-5,7-10,13-16,26-30,32,44H,6,11-12,17-23H2,1-3H3,(H2,38,43)(H,39,45)(H,40,48)(H,41,46)/t27-,28+,29+,30+,32+/m1/s1
> <PUBCHEM_IUPAC_INCHIKEY>
OQXMLTOXQBEBSK-HVSNEVFASA-N
> <PUBCHEM_XLOGP3_AA>
4.1
> <PUBCHEM_EXACT_MASS>
677.37884898
> <PUBCHEM_MOLECULAR_FORMULA>
C37H51N5O7
> <PUBCHEM_MOLECULAR_WEIGHT>
677.8
> <PUBCHEM_OPENEYE_CAN_SMILES>
CC(C)(C)NC(=O)C1CC(CN1C(=O)C(C(CC2=CC=CC=C2)NC(=O)C(CC(=O)N)NC(=O)OCC3=CC=CC=C3)O)C4CCCCC4
> <PUBCHEM_OPENEYE_ISO_SMILES>
CC(C)(C)NC(=O)[C@@H]1C[C@H](CN1C(=O)[C@H]([C@H](CC2=CC=CC=C2)NC(=O)[C@H](CC(=O)N)NC(=O)OCC3=CC=CC=C3)O)C4CCCCC4
> <PUBCHEM_CACTVS_TPSA>
180
> <PUBCHEM_MONOISOTOPIC_WEIGHT>
677.37884898
> <PUBCHEM_TOTAL_CHARGE>
0
> <PUBCHEM_HEAVY_ATOM_COUNT>
49
> <PUBCHEM_ATOM_DEF_STEREO_COUNT>
5
> <PUBCHEM_ATOM_UDEF_STEREO_COUNT>
0
> <PUBCHEM_BOND_DEF_STEREO_COUNT>
0
> <PUBCHEM_BOND_UDEF_STEREO_COUNT>
0
> <PUBCHEM_ISOTOPIC_ATOM_COUNT>
0
> <PUBCHEM_COMPONENT_COUNT>
1
> <PUBCHEM_CACTVS_TAUTO_COUNT>
-1
> <PUBCHEM_COORDINATE_TYPE>
1
5
255
> <PUBCHEM_BONDANNOTATIONS>
26  10  6
34  11  6
13  50  5
17  23  5
25  3  6
32  35  8
32  36  8
35  38  8
36  39  8
38  40  8
39  40  8
44  45  8
44  46  8
45  47  8
46  48  8
47  49  8
48  49  8
$$$$
