501850
  -OEChem-10302200282D
 91 94  0     1  0  0  0  0  0999 V2000
    2.8942    0.0209    0.0000 S   0  0  0  0  0  0  0  0  0  0  0  0
    9.6730   -3.3155    0.0000 S   0  0  0  0  0  0  0  0  0  0  0  0
    4.4769   -2.3155    0.0000 O   0  0  0  0  0  0  0  0  0  0  0  0
    6.2089   -0.3155    0.0000 O   0  0  0  0  0  0  0  0  0  0  0  0
    6.0666    1.0391    0.0000 O   0  0  0  0  0  0  0  0  0  0  0  0
    7.9410   -3.3155    0.0000 O   0  0  0  0  0  0  0  0  0  0  0  0
    9.6730   -4.3155    0.0000 O   0  0  0  0  0  0  0  0  0  0  0  0
    8.6730   -3.3155    0.0000 O   0  0  0  0  0  0  0  0  0  0  0  0
   10.5391    1.1845    0.0000 O   0  0  0  0  0  0  0  0  0  0  0  0
   10.5391   -0.8155    0.0000 O   0  0  0  0  0  0  0  0  0  0  0  0
    2.0544    3.2534    0.0000 O   0  0  0  0  0  0  0  0  0  0  0  0
    4.4769   -0.3155    0.0000 N   0  0  0  0  0  0  0  0  0  0  0  0
    7.0750   -1.8155    0.0000 N   0  0  0  0  0  0  0  0  0  0  0  0
    4.9076    2.3263    0.0000 N   0  0  0  0  0  0  0  0  0  0  0  0
    8.8070   -0.8155    0.0000 N   0  0  0  0  0  0  0  0  0  0  0  0
    2.5896    4.9006    0.0000 N   0  0  0  0  0  0  0  0  0  0  0  0
    4.3724    0.6790    0.0000 C   0  0  1  0  0  0  0  0  0  0  0  0
    6.2089   -2.3155    0.0000 C   0  0  2  0  0  0  0  0  0  0  0  0
    5.3429   -1.8155    0.0000 C   0  0  1  0  0  0  0  0  0  0  0  0
    5.3429   -0.8155    0.0000 C   0  0  0  0  0  0  0  0  0  0  0  0
    3.3942    0.8869    0.0000 C   0  0  0  0  0  0  0  0  0  0  0  0
    3.5633   -0.7222    0.0000 C   0  0  0  0  0  0  0  0  0  0  0  0
    6.2089   -3.3155    0.0000 C   0  0  0  0  0  0  0  0  0  0  0  0
    5.1155    1.3482    0.0000 C   0  0  0  0  0  0  0  0  0  0  0  0
    8.8070   -1.8155    0.0000 C   0  0  2  0  0  0  0  0  0  0  0  0
    7.9410   -2.3155    0.0000 C   0  0  0  0  0  0  0  0  0  0  0  0
    5.3429   -3.8155    0.0000 C   0  0  0  0  0  0  0  0  0  0  0  0
    9.6730   -2.3155    0.0000 C   0  0  0  0  0  0  0  0  0  0  0  0
    3.9565    2.6353    0.0000 C   0  0  0  0  0  0  0  0  0  0  0  0
    3.7486    3.6135    0.0000 C   0  0  3  0  0  0  0  0  0  0  0  0
    4.4769   -3.3155    0.0000 C   0  0  0  0  0  0  0  0  0  0  0  0
    5.3429   -4.8155    0.0000 C   0  0  0  0  0  0  0  0  0  0  0  0
   10.6730   -3.3155    0.0000 C   0  0  0  0  0  0  0  0  0  0  0  0
    3.6109   -3.8155    0.0000 C   0  0  0  0  0  0  0  0  0  0  0  0
    4.4769   -5.3155    0.0000 C   0  0  0  0  0  0  0  0  0  0  0  0
    9.6730   -0.3155    0.0000 C   0  0  0  0  0  0  0  0  0  0  0  0
    4.4918    4.2826    0.0000 C   0  0  0  0  0  0  0  0  0  0  0  0
    2.7976    3.9225    0.0000 C   0  0  0  0  0  0  0  0  0  0  0  0
    3.6109   -4.8155    0.0000 C   0  0  0  0  0  0  0  0  0  0  0  0
    9.6730    0.6845    0.0000 C   0  0  0  0  0  0  0  0  0  0  0  0
   10.5391    2.1845    0.0000 C   0  0  0  0  0  0  0  0  0  0  0  0
   11.4051    2.6845    0.0000 C   0  0  0  0  0  0  0  0  0  0  0  0
   11.4051    3.6845    0.0000 C   0  0  0  0  0  0  0  0  0  0  0  0
    9.6730    2.6845    0.0000 C   0  0  0  0  0  0  0  0  0  0  0  0
   12.2990    2.1498    0.0000 C   0  0  0  0  0  0  0  0  0  0  0  0
   10.5391    4.1845    0.0000 C   0  0  0  0  0  0  0  0  0  0  0  0
    9.6730    3.6845    0.0000 C   0  0  0  0  0  0  0  0  0  0  0  0
   12.2990    4.2192    0.0000 C   0  0  0  0  0  0  0  0  0  0  0  0
   13.2051    2.6637    0.0000 C   0  0  0  0  0  0  0  0  0  0  0  0
   13.2051    3.7053    0.0000 C   0  0  0  0  0  0  0  0  0  0  0  0
    4.9512    0.4568    0.0000 H   0  0  0  0  0  0  0  0  0  0  0  0
    6.7459   -2.6255    0.0000 H   0  0  0  0  0  0  0  0  0  0  0  0
    4.8060   -1.5055    0.0000 H   0  0  0  0  0  0  0  0  0  0  0  0
    3.5858    1.4766    0.0000 H   0  0  0  0  0  0  0  0  0  0  0  0
    2.8278    1.1391    0.0000 H   0  0  0  0  0  0  0  0  0  0  0  0
    3.0618   -1.0867    0.0000 H   0  0  0  0  0  0  0  0  0  0  0  0
    3.8733   -1.2592    0.0000 H   0  0  0  0  0  0  0  0  0  0  0  0
    6.4210   -3.8981    0.0000 H   0  0  0  0  0  0  0  0  0  0  0  0
    6.8195   -3.2078    0.0000 H   0  0  0  0  0  0  0  0  0  0  0  0
    7.0750   -1.1955    0.0000 H   0  0  0  0  0  0  0  0  0  0  0  0
    8.2701   -1.5055    0.0000 H   0  0  0  0  0  0  0  0  0  0  0  0
   10.2836   -2.4232    0.0000 H   0  0  0  0  0  0  0  0  0  0  0  0
    9.8851   -1.7329    0.0000 H   0  0  0  0  0  0  0  0  0  0  0  0
    5.3683    2.7412    0.0000 H   0  0  0  0  0  0  0  0  0  0  0  0
    3.9400   -2.0055    0.0000 H   0  0  0  0  0  0  0  0  0  0  0  0
    3.3369    2.6137    0.0000 H   0  0  0  0  0  0  0  0  0  0  0  0
    3.8702    2.0214    0.0000 H   0  0  0  0  0  0  0  0  0  0  0  0
    8.2701   -0.5055    0.0000 H   0  0  0  0  0  0  0  0  0  0  0  0
    4.3383    3.4219    0.0000 H   0  0  0  0  0  0  0  0  0  0  0  0
    4.4769   -2.6955    0.0000 H   0  0  0  0  0  0  0  0  0  0  0  0
    5.8798   -5.1255    0.0000 H   0  0  0  0  0  0  0  0  0  0  0  0
   10.6730   -3.9355    0.0000 H   0  0  0  0  0  0  0  0  0  0  0  0
   11.2930   -3.3155    0.0000 H   0  0  0  0  0  0  0  0  0  0  0  0
   10.6730   -2.6955    0.0000 H   0  0  0  0  0  0  0  0  0  0  0  0
    3.0739   -3.5055    0.0000 H   0  0  0  0  0  0  0  0  0  0  0  0
    4.4769   -5.9355    0.0000 H   0  0  0  0  0  0  0  0  0  0  0  0
    4.9066    3.8218    0.0000 H   0  0  0  0  0  0  0  0  0  0  0  0
    4.9525    4.6975    0.0000 H   0  0  0  0  0  0  0  0  0  0  0  0
    4.0769    4.7434    0.0000 H   0  0  0  0  0  0  0  0  0  0  0  0
    3.0739   -5.1255    0.0000 H   0  0  0  0  0  0  0  0  0  0  0  0
    9.4610    1.2671    0.0000 H   0  0  0  0  0  0  0  0  0  0  0  0
    9.0625    0.5768    0.0000 H   0  0  0  0  0  0  0  0  0  0  0  0
    2.0000    5.0922    0.0000 H   0  0  0  0  0  0  0  0  0  0  0  0
    3.0504    5.3155    0.0000 H   0  0  0  0  0  0  0  0  0  0  0  0
    9.1361    2.3745    0.0000 H   0  0  0  0  0  0  0  0  0  0  0  0
   12.2919    1.5299    0.0000 H   0  0  0  0  0  0  0  0  0  0  0  0
   10.5391    4.8045    0.0000 H   0  0  0  0  0  0  0  0  0  0  0  0
    9.1361    3.9945    0.0000 H   0  0  0  0  0  0  0  0  0  0  0  0
   12.2919    4.8391    0.0000 H   0  0  0  0  0  0  0  0  0  0  0  0
   13.7408    2.3516    0.0000 H   0  0  0  0  0  0  0  0  0  0  0  0
   13.7408    4.0174    0.0000 H   0  0  0  0  0  0  0  0  0  0  0  0
  1 21  1  0  0  0  0
  1 22  1  0  0  0  0
  2  7  2  0  0  0  0
  2  8  2  0  0  0  0
  2 28  1  0  0  0  0
  2 33  1  0  0  0  0
 19  3  1  6  0  0  0
  3 65  1  0  0  0  0
  4 20  2  0  0  0  0
  5 24  2  0  0  0  0
  6 26  2  0  0  0  0
  9 40  1  0  0  0  0
  9 41  1  0  0  0  0
 10 36  2  0  0  0  0
 11 38  2  0  0  0  0
 12 17  1  0  0  0  0
 12 20  1  0  0  0  0
 12 22  1  0  0  0  0
 18 13  1  1  0  0  0
 13 26  1  0  0  0  0
 13 60  1  0  0  0  0
 14 24  1  0  0  0  0
 14 29  1  0  0  0  0
 14 64  1  0  0  0  0
 25 15  1  1  0  0  0
 15 36  1  0  0  0  0
 15 68  1  0  0  0  0
 16 38  1  0  0  0  0
 16 83  1  0  0  0  0
 16 84  1  0  0  0  0
 17 21  1  0  0  0  0
 17 24  1  1  0  0  0
 17 51  1  0  0  0  0
 18 19  1  0  0  0  0
 18 23  1  0  0  0  0
 18 52  1  0  0  0  0
 19 20  1  0  0  0  0
 19 53  1  0  0  0  0
 21 54  1  0  0  0  0
 21 55  1  0  0  0  0
 22 56  1  0  0  0  0
 22 57  1  0  0  0  0
 23 27  1  0  0  0  0
 23 58  1  0  0  0  0
 23 59  1  0  0  0  0
 25 26  1  0  0  0  0
 25 28  1  0  0  0  0
 25 61  1  0  0  0  0
 27 31  2  0  0  0  0
 27 32  1  0  0  0  0
 28 62  1  0  0  0  0
 28 63  1  0  0  0  0
 29 30  1  0  0  0  0
 29 66  1  0  0  0  0
 29 67  1  0  0  0  0
 30 37  1  0  0  0  0
 30 38  1  0  0  0  0
 30 69  1  0  0  0  0
 31 34  1  0  0  0  0
 31 70  1  0  0  0  0
 32 35  2  0  0  0  0
 32 71  1  0  0  0  0
 33 72  1  0  0  0  0
 33 73  1  0  0  0  0
 33 74  1  0  0  0  0
 34 39  2  0  0  0  0
 34 75  1  0  0  0  0
 35 39  1  0  0  0  0
 35 76  1  0  0  0  0
 36 40  1  0  0  0  0
 37 77  1  0  0  0  0
 37 78  1  0  0  0  0
 37 79  1  0  0  0  0
 39 80  1  0  0  0  0
 40 81  1  0  0  0  0
 40 82  1  0  0  0  0
 41 42  1  0  0  0  0
 41 44  2  0  0  0  0
 42 43  1  0  0  0  0
 42 45  2  0  0  0  0
 43 46  1  0  0  0  0
 43 48  2  0  0  0  0
 44 47  1  0  0  0  0
 44 85  1  0  0  0  0
 45 49  1  0  0  0  0
 45 86  1  0  0  0  0
 46 47  2  0  0  0  0
 46 87  1  0  0  0  0
 47 88  1  0  0  0  0
 48 50  1  0  0  0  0
 48 89  1  0  0  0  0
 49 50  2  0  0  0  0
 49 90  1  0  0  0  0
 50 91  1  0  0  0  0
M  END
> <PUBCHEM_COMPOUND_CID>
501850
> <PUBCHEM_COMPOUND_CANONICALIZED>
1
> <PUBCHEM_CACTVS_COMPLEXITY>
1310
> <PUBCHEM_CACTVS_HBOND_ACCEPTOR>
10
> <PUBCHEM_CACTVS_HBOND_DONOR>
5
> <PUBCHEM_CACTVS_ROTATABLE_BOND>
16
> <PUBCHEM_CACTVS_SUBSKEYS>
AAADcfB/vABgAAAAAAAAAAAAAAAAAWAAAAAwYMAAAAAAAADBVAAAHgQQCAAADTzl2AayBsPABgqIAiFSEHJCCABgIBAIiIHOCIgOdjqk8T+XeCCk1hGYqAeYyLCOgAABAAAYAAAAAAIAADAAAAAAAAAAAA==
> <PUBCHEM_IUPAC_OPENEYE_NAME>
(4R)-N-(3-amino-2-methyl-3-oxo-propyl)-3-[(2S,3S)-2-hydroxy-3-[[(2R)-3-methylsulfonyl-2-[[2-(1-naphthyloxy)acetyl]amino]propanoyl]amino]-4-phenyl-butanoyl]thiazolidine-4-carboxamide
> <PUBCHEM_IUPAC_CAS_NAME>
(4R)-N-(3-amino-2-methyl-3-oxopropyl)-3-[(2S,3S)-2-hydroxy-3-[[(2R)-3-methylsulfonyl-2-[[2-(1-naphthalenyloxy)-1-oxoethyl]amino]-1-oxopropyl]amino]-1-oxo-4-phenylbutyl]-4-thiazolidinecarboxamide
> <PUBCHEM_IUPAC_NAME_MARKUP>
(4<I>R</I>)-<I>N</I>-(3-amino-2-methyl-3-oxopropyl)-3-[(2<I>S</I>,3<I>S</I>)-2-hydroxy-3-[[(2<I>R</I>)-3-methylsulfonyl-2-[(2-naphthalen-1-yloxyacetyl)amino]propanoyl]amino]-4-phenylbutanoyl]-1,3-thiazolidine-4-carboxamide
> <PUBCHEM_IUPAC_NAME>
(4R)-N-(3-amino-2-methyl-3-oxopropyl)-3-[(2S,3S)-2-hydroxy-3-[[(2R)-3-methylsulfonyl-2-[(2-naphthalen-1-yloxyacetyl)amino]propanoyl]amino]-4-phenylbutanoyl]-1,3-thiazolidine-4-carboxamide
> <PUBCHEM_IUPAC_SYSTEMATIC_NAME>
(4R)-N-(3-azanyl-2-methyl-3-oxidanylidene-propyl)-3-[(2S,3S)-3-[[(2R)-3-methylsulfonyl-2-(2-naphthalen-1-yloxyethanoylamino)propanoyl]amino]-2-oxidanyl-4-phenyl-butanoyl]-1,3-thiazolidine-4-carboxamide
> <PUBCHEM_IUPAC_TRADITIONAL_NAME>
(4R)-N-(3-amino-3-keto-2-methyl-propyl)-3-[(2S,3S)-2-hydroxy-3-[[(2R)-3-mesyl-2-[[2-(1-naphthoxy)acetyl]amino]propanoyl]amino]-4-phenyl-butanoyl]thiazolidine-4-carboxamide
> <PUBCHEM_IUPAC_INCHI>
InChI=1S/C34H41N5O9S2/c1-21(31(35)42)16-36-33(44)27-18-49-20-39(27)34(45)30(41)25(15-22-9-4-3-5-10-22)38-32(43)26(19-50(2,46)47)37-29(40)17-48-28-14-8-12-23-11-6-7-13-24(23)28/h3-14,21,25-27,30,41H,15-20H2,1-2H3,(H2,35,42)(H,36,44)(H,37,40)(H,38,43)/t21?,25-,26-,27-,30-/m0/s1
> <PUBCHEM_IUPAC_INCHIKEY>
HTXFXBDMCVJTNI-JPLNDPSTSA-N
> <PUBCHEM_XLOGP3_AA>
1.5
> <PUBCHEM_EXACT_MASS>
727.23457025
> <PUBCHEM_MOLECULAR_FORMULA>
C34H41N5O9S2
> <PUBCHEM_MOLECULAR_WEIGHT>
727.9
> <PUBCHEM_OPENEYE_CAN_SMILES>
CC(CNC(=O)C1CSCN1C(=O)C(C(CC2=CC=CC=C2)NC(=O)C(CS(=O)(=O)C)NC(=O)COC3=CC=CC4=CC=CC=C43)O)C(=O)N
> <PUBCHEM_OPENEYE_ISO_SMILES>
CC(CNC(=O)[C@@H]1CSCN1C(=O)[C@H]([C@H](CC2=CC=CC=C2)NC(=O)[C@H](CS(=O)(=O)C)NC(=O)COC3=CC=CC4=CC=CC=C43)O)C(=O)N
> <PUBCHEM_CACTVS_TPSA>
248
> <PUBCHEM_MONOISOTOPIC_WEIGHT>
727.23457025
> <PUBCHEM_TOTAL_CHARGE>
0
> <PUBCHEM_HEAVY_ATOM_COUNT>
50
> <PUBCHEM_ATOM_DEF_STEREO_COUNT>
4
> <PUBCHEM_ATOM_UDEF_STEREO_COUNT>
1
> <PUBCHEM_BOND_DEF_STEREO_COUNT>
0
> <PUBCHEM_BOND_UDEF_STEREO_COUNT>
0
> <PUBCHEM_ISOTOPIC_ATOM_COUNT>
0
> <PUBCHEM_COMPONENT_COUNT>
1
> <PUBCHEM_CACTVS_TAUTO_COUNT>
-1
> <PUBCHEM_COORDINATE_TYPE>
1
5
255
> <PUBCHEM_BONDANNOTATIONS>
18  13  5
25  15  5
17  24  5
27  31  8
27  32  8
19  3  6
30  37  3
31  34  8
32  35  8
34  39  8
35  39  8
41  42  8
41  44  8
42  43  8
42  45  8
43  46  8
43  48  8
44  47  8
45  49  8
46  47  8
48  50  8
49  50  8
$$$$
