501800
  -OEChem-10302200282D
 93 96  0     1  0  0  0  0  0999 V2000
    5.8301   -5.5367    0.0000 S   0  0  0  0  0  0  0  0  0  0  0  0
    8.0622   -0.9979    0.0000 S   0  0  0  0  0  0  0  0  0  0  0  0
    8.2981   -3.2985    0.0000 O   0  0  0  0  0  0  0  0  0  0  0  0
    4.5981   -2.9979    0.0000 O   0  0  0  0  0  0  0  0  0  0  0  0
    7.1962   -2.4979    0.0000 O   0  0  0  0  0  0  0  0  0  0  0  0
    5.4641    0.5021    0.0000 O   0  0  0  0  0  0  0  0  0  0  0  0
    8.9282    1.5021    0.0000 O   0  0  0  0  0  0  0  0  0  0  0  0
    8.9282    3.5021    0.0000 O   0  0  0  0  0  0  0  0  0  0  0  0
    6.3301   -3.9979    0.0000 N   0  0  0  0  0  0  0  0  0  0  0  0
    8.8334   -4.9458    0.0000 N   0  0  0  0  0  0  0  0  0  0  0  0
    6.3301   -0.9979    0.0000 N   0  0  0  0  0  0  0  0  0  0  0  0
    7.1962    1.5021    0.0000 N   0  0  0  0  0  0  0  0  0  0  0  0
   10.6882    4.4674    0.0000 N   0  0  0  0  0  0  0  0  0  0  0  0
    6.8301   -5.5367    0.0000 C   0  0  0  0  0  0  0  0  0  0  0  0
    7.1391   -4.5857    0.0000 C   0  0  3  0  0  0  0  0  0  0  0  0
    5.5211   -4.5857    0.0000 C   0  0  0  0  0  0  0  0  0  0  0  0
    6.8301   -6.5367    0.0000 C   0  0  0  0  0  0  0  0  0  0  0  0
    7.7812   -5.8458    0.0000 C   0  0  0  0  0  0  0  0  0  0  0  0
    8.0902   -4.2767    0.0000 C   0  0  0  0  0  0  0  0  0  0  0  0
    6.3301   -2.9979    0.0000 C   0  0  0  0  0  0  0  0  0  0  0  0
    5.4641   -2.4979    0.0000 C   0  0  2  0  0  0  0  0  0  0  0  0
    5.4641   -1.4979    0.0000 C   0  0  2  0  0  0  0  0  0  0  0  0
    9.7844   -4.6368    0.0000 C   0  0  0  0  0  0  0  0  0  0  0  0
    4.5981   -0.9979    0.0000 C   0  0  0  0  0  0  0  0  0  0  0  0
   10.7355   -4.3278    0.0000 C   0  0  0  0  0  0  0  0  0  0  0  0
   10.0934   -5.5879    0.0000 C   0  0  0  0  0  0  0  0  0  0  0  0
    9.4754   -3.6857    0.0000 C   0  0  0  0  0  0  0  0  0  0  0  0
    3.7320   -1.4979    0.0000 C   0  0  0  0  0  0  0  0  0  0  0  0
    6.3301    0.0021    0.0000 C   0  0  0  0  0  0  0  0  0  0  0  0
    7.1962    0.5021    0.0000 C   0  0  2  0  0  0  0  0  0  0  0  0
    3.7320   -2.4979    0.0000 C   0  0  0  0  0  0  0  0  0  0  0  0
    2.8660   -0.9979    0.0000 C   0  0  0  0  0  0  0  0  0  0  0  0
    8.0622    0.0021    0.0000 C   0  0  0  0  0  0  0  0  0  0  0  0
    2.8660   -2.9979    0.0000 C   0  0  0  0  0  0  0  0  0  0  0  0
    2.0000   -1.4979    0.0000 C   0  0  0  0  0  0  0  0  0  0  0  0
    2.0000   -2.4979    0.0000 C   0  0  0  0  0  0  0  0  0  0  0  0
    8.0622    2.0021    0.0000 C   0  0  0  0  0  0  0  0  0  0  0  0
    8.0622    3.0021    0.0000 C   0  0  0  0  0  0  0  0  0  0  0  0
    8.9282   -1.4979    0.0000 C   0  0  0  0  0  0  0  0  0  0  0  0
    8.9282    4.5021    0.0000 C   0  0  0  0  0  0  0  0  0  0  0  0
    9.7942    5.0021    0.0000 C   0  0  0  0  0  0  0  0  0  0  0  0
    8.0622    5.0021    0.0000 C   0  0  0  0  0  0  0  0  0  0  0  0
    9.7942    6.0021    0.0000 C   0  0  0  0  0  0  0  0  0  0  0  0
    8.0622    6.0021    0.0000 C   0  0  0  0  0  0  0  0  0  0  0  0
    8.9282    6.5021    0.0000 C   0  0  0  0  0  0  0  0  0  0  0  0
   10.6882    6.5367    0.0000 C   0  0  0  0  0  0  0  0  0  0  0  0
   11.5942    6.0229    0.0000 C   0  0  0  0  0  0  0  0  0  0  0  0
   11.5942    4.9813    0.0000 C   0  0  0  0  0  0  0  0  0  0  0  0
    7.2361   -3.9733    0.0000 H   0  0  0  0  0  0  0  0  0  0  0  0
    5.2111   -4.0488    0.0000 H   0  0  0  0  0  0  0  0  0  0  0  0
    4.9547   -4.8379    0.0000 H   0  0  0  0  0  0  0  0  0  0  0  0
    6.2101   -6.5367    0.0000 H   0  0  0  0  0  0  0  0  0  0  0  0
    6.8301   -7.1568    0.0000 H   0  0  0  0  0  0  0  0  0  0  0  0
    7.4501   -6.5367    0.0000 H   0  0  0  0  0  0  0  0  0  0  0  0
    7.5896   -6.4354    0.0000 H   0  0  0  0  0  0  0  0  0  0  0  0
    8.3708   -6.0374    0.0000 H   0  0  0  0  0  0  0  0  0  0  0  0
    7.9728   -5.2561    0.0000 H   0  0  0  0  0  0  0  0  0  0  0  0
    5.4641   -3.1179    0.0000 H   0  0  0  0  0  0  0  0  0  0  0  0
    5.4641   -0.8779    0.0000 H   0  0  0  0  0  0  0  0  0  0  0  0
    8.7044   -5.5523    0.0000 H   0  0  0  0  0  0  0  0  0  0  0  0
    4.9966   -0.5230    0.0000 H   0  0  0  0  0  0  0  0  0  0  0  0
    4.1996   -0.5230    0.0000 H   0  0  0  0  0  0  0  0  0  0  0  0
   10.9270   -4.9174    0.0000 H   0  0  0  0  0  0  0  0  0  0  0  0
   11.3251   -4.1362    0.0000 H   0  0  0  0  0  0  0  0  0  0  0  0
   10.5439   -3.7381    0.0000 H   0  0  0  0  0  0  0  0  0  0  0  0
    9.5038   -5.7794    0.0000 H   0  0  0  0  0  0  0  0  0  0  0  0
   10.2850   -6.1775    0.0000 H   0  0  0  0  0  0  0  0  0  0  0  0
   10.6831   -5.3963    0.0000 H   0  0  0  0  0  0  0  0  0  0  0  0
   10.0650   -3.4941    0.0000 H   0  0  0  0  0  0  0  0  0  0  0  0
    9.2838   -3.0961    0.0000 H   0  0  0  0  0  0  0  0  0  0  0  0
    8.8857   -3.8773    0.0000 H   0  0  0  0  0  0  0  0  0  0  0  0
    6.8671   -1.3079    0.0000 H   0  0  0  0  0  0  0  0  0  0  0  0
    4.5981   -3.6179    0.0000 H   0  0  0  0  0  0  0  0  0  0  0  0
    6.6592    0.8121    0.0000 H   0  0  0  0  0  0  0  0  0  0  0  0
    4.2690   -2.8079    0.0000 H   0  0  0  0  0  0  0  0  0  0  0  0
    2.8660   -0.3779    0.0000 H   0  0  0  0  0  0  0  0  0  0  0  0
    8.6728   -0.1056    0.0000 H   0  0  0  0  0  0  0  0  0  0  0  0
    8.2742    0.5847    0.0000 H   0  0  0  0  0  0  0  0  0  0  0  0
    6.6592    1.8121    0.0000 H   0  0  0  0  0  0  0  0  0  0  0  0
    2.8660   -3.6179    0.0000 H   0  0  0  0  0  0  0  0  0  0  0  0
    1.4631   -1.1879    0.0000 H   0  0  0  0  0  0  0  0  0  0  0  0
    1.4631   -2.8079    0.0000 H   0  0  0  0  0  0  0  0  0  0  0  0
    7.8501    3.5847    0.0000 H   0  0  0  0  0  0  0  0  0  0  0  0
    7.4516    2.8944    0.0000 H   0  0  0  0  0  0  0  0  0  0  0  0
    8.6182   -2.0348    0.0000 H   0  0  0  0  0  0  0  0  0  0  0  0
    9.4651   -1.8079    0.0000 H   0  0  0  0  0  0  0  0  0  0  0  0
    9.2382   -0.9610    0.0000 H   0  0  0  0  0  0  0  0  0  0  0  0
    7.5252    4.6921    0.0000 H   0  0  0  0  0  0  0  0  0  0  0  0
    7.5252    6.3121    0.0000 H   0  0  0  0  0  0  0  0  0  0  0  0
    8.9282    7.1221    0.0000 H   0  0  0  0  0  0  0  0  0  0  0  0
   10.6810    7.1567    0.0000 H   0  0  0  0  0  0  0  0  0  0  0  0
   12.1300    6.3350    0.0000 H   0  0  0  0  0  0  0  0  0  0  0  0
   12.1300    4.6692    0.0000 H   0  0  0  0  0  0  0  0  0  0  0  0
  1 14  1  0  0  0  0
  1 16  1  0  0  0  0
  2 33  1  0  0  0  0
  2 39  1  0  0  0  0
  3 19  2  0  0  0  0
 21  4  1  1  0  0  0
  4 73  1  0  0  0  0
  5 20  2  0  0  0  0
  6 29  2  0  0  0  0
  7 37  2  0  0  0  0
  8 38  1  0  0  0  0
  8 40  1  0  0  0  0
  9 15  1  0  0  0  0
  9 16  1  0  0  0  0
  9 20  1  0  0  0  0
 10 19  1  0  0  0  0
 10 23  1  0  0  0  0
 10 60  1  0  0  0  0
 22 11  1  6  0  0  0
 11 29  1  0  0  0  0
 11 72  1  0  0  0  0
 30 12  1  1  0  0  0
 12 37  1  0  0  0  0
 12 79  1  0  0  0  0
 13 41  1  0  0  0  0
 13 48  2  0  0  0  0
 14 15  1  0  0  0  0
 14 17  1  0  0  0  0
 14 18  1  0  0  0  0
 15 19  1  0  0  0  0
 15 49  1  0  0  0  0
 16 50  1  0  0  0  0
 16 51  1  0  0  0  0
 17 52  1  0  0  0  0
 17 53  1  0  0  0  0
 17 54  1  0  0  0  0
 18 55  1  0  0  0  0
 18 56  1  0  0  0  0
 18 57  1  0  0  0  0
 20 21  1  0  0  0  0
 21 22  1  0  0  0  0
 21 58  1  0  0  0  0
 22 24  1  0  0  0  0
 22 59  1  0  0  0  0
 23 25  1  0  0  0  0
 23 26  1  0  0  0  0
 23 27  1  0  0  0  0
 24 28  1  0  0  0  0
 24 61  1  0  0  0  0
 24 62  1  0  0  0  0
 25 63  1  0  0  0  0
 25 64  1  0  0  0  0
 25 65  1  0  0  0  0
 26 66  1  0  0  0  0
 26 67  1  0  0  0  0
 26 68  1  0  0  0  0
 27 69  1  0  0  0  0
 27 70  1  0  0  0  0
 27 71  1  0  0  0  0
 28 31  2  0  0  0  0
 28 32  1  0  0  0  0
 29 30  1  0  0  0  0
 30 33  1  0  0  0  0
 30 74  1  0  0  0  0
 31 34  1  0  0  0  0
 31 75  1  0  0  0  0
 32 35  2  0  0  0  0
 32 76  1  0  0  0  0
 33 77  1  0  0  0  0
 33 78  1  0  0  0  0
 34 36  2  0  0  0  0
 34 80  1  0  0  0  0
 35 36  1  0  0  0  0
 35 81  1  0  0  0  0
 36 82  1  0  0  0  0
 37 38  1  0  0  0  0
 38 83  1  0  0  0  0
 38 84  1  0  0  0  0
 39 85  1  0  0  0  0
 39 86  1  0  0  0  0
 39 87  1  0  0  0  0
 40 41  1  0  0  0  0
 40 42  2  0  0  0  0
 41 43  2  0  0  0  0
 42 44  1  0  0  0  0
 42 88  1  0  0  0  0
 43 45  1  0  0  0  0
 43 46  1  0  0  0  0
 44 45  2  0  0  0  0
 44 89  1  0  0  0  0
 45 90  1  0  0  0  0
 46 47  2  0  0  0  0
 46 91  1  0  0  0  0
 47 48  1  0  0  0  0
 47 92  1  0  0  0  0
 48 93  1  0  0  0  0
M  END
> <PUBCHEM_COMPOUND_CID>
501800
> <PUBCHEM_COMPOUND_CANONICALIZED>
1
> <PUBCHEM_CACTVS_COMPLEXITY>
1110
> <PUBCHEM_CACTVS_HBOND_ACCEPTOR>
9
> <PUBCHEM_CACTVS_HBOND_DONOR>
4
> <PUBCHEM_CACTVS_ROTATABLE_BOND>
14
> <PUBCHEM_CACTVS_SUBSKEYS>
AAADcfB/uABgAAAAAAAAAAAAAAAAAWAAAAA8YIAAAAAAAACx9AAAHgQQCAAADLzl3ga+xvPIFgioAzV3VAaCiCBxYjAI2KH/bJgOdvrk8b+XeCjk1hHY6AeYyLCOAAABAAACEAAAAAIAAAQgAAAAAAAAAA==
> <PUBCHEM_IUPAC_OPENEYE_NAME>
N-tert-butyl-3-[(2S,3S)-2-hydroxy-3-[[(2R)-3-methylsulfanyl-2-[[2-(8-quinolyloxy)acetyl]amino]propanoyl]amino]-4-phenyl-butanoyl]-5,5-dimethyl-thiazolidine-4-carboxamide
> <PUBCHEM_IUPAC_CAS_NAME>
N-tert-butyl-3-[(2S,3S)-2-hydroxy-3-[[(2R)-3-(methylthio)-1-oxo-2-[[1-oxo-2-(8-quinolinyloxy)ethyl]amino]propyl]amino]-1-oxo-4-phenylbutyl]-5,5-dimethyl-4-thiazolidinecarboxamide
> <PUBCHEM_IUPAC_NAME_MARKUP>
<I>N</I>-<I>tert</I>-butyl-3-[(2<I>S</I>,3<I>S</I>)-2-hydroxy-3-[[(2<I>R</I>)-3-methylsulfanyl-2-[(2-quinolin-8-yloxyacetyl)amino]propanoyl]amino]-4-phenylbutanoyl]-5,5-dimethyl-1,3-thiazolidine-4-carboxamide
> <PUBCHEM_IUPAC_NAME>
N-tert-butyl-3-[(2S,3S)-2-hydroxy-3-[[(2R)-3-methylsulfanyl-2-[(2-quinolin-8-yloxyacetyl)amino]propanoyl]amino]-4-phenylbutanoyl]-5,5-dimethyl-1,3-thiazolidine-4-carboxamide
> <PUBCHEM_IUPAC_SYSTEMATIC_NAME>
N-tert-butyl-5,5-dimethyl-3-[(2S,3S)-3-[[(2R)-3-methylsulfanyl-2-(2-quinolin-8-yloxyethanoylamino)propanoyl]amino]-2-oxidanyl-4-phenyl-butanoyl]-1,3-thiazolidine-4-carboxamide
> <PUBCHEM_IUPAC_TRADITIONAL_NAME>
N-tert-butyl-3-[(2S,3S)-2-hydroxy-3-[[(2R)-3-(methylthio)-2-[[2-(8-quinolyloxy)acetyl]amino]propanoyl]amino]-4-phenyl-butanoyl]-5,5-dimethyl-thiazolidine-4-carboxamide
> <PUBCHEM_IUPAC_INCHI>
InChI=1S/C35H45N5O6S2/c1-34(2,3)39-32(44)30-35(4,5)48-21-40(30)33(45)29(42)24(18-22-12-8-7-9-13-22)38-31(43)25(20-47-6)37-27(41)19-46-26-16-10-14-23-15-11-17-36-28(23)26/h7-17,24-25,29-30,42H,18-21H2,1-6H3,(H,37,41)(H,38,43)(H,39,44)/t24-,25-,29-,30?/m0/s1
> <PUBCHEM_IUPAC_INCHIKEY>
VMBBDJGTTQHVAS-VYKFGDEHSA-N
> <PUBCHEM_XLOGP3_AA>
3.9
> <PUBCHEM_EXACT_MASS>
695.28112652
> <PUBCHEM_MOLECULAR_FORMULA>
C35H45N5O6S2
> <PUBCHEM_MOLECULAR_WEIGHT>
695.9
> <PUBCHEM_OPENEYE_CAN_SMILES>
CC1(C(N(CS1)C(=O)C(C(CC2=CC=CC=C2)NC(=O)C(CSC)NC(=O)COC3=CC=CC4=C3N=CC=C4)O)C(=O)NC(C)(C)C)C
> <PUBCHEM_OPENEYE_ISO_SMILES>
CC1(C(N(CS1)C(=O)[C@H]([C@H](CC2=CC=CC=C2)NC(=O)[C@H](CSC)NC(=O)COC3=CC=CC4=C3N=CC=C4)O)C(=O)NC(C)(C)C)C
> <PUBCHEM_CACTVS_TPSA>
201
> <PUBCHEM_MONOISOTOPIC_WEIGHT>
695.28112652
> <PUBCHEM_TOTAL_CHARGE>
0
> <PUBCHEM_HEAVY_ATOM_COUNT>
48
> <PUBCHEM_ATOM_DEF_STEREO_COUNT>
3
> <PUBCHEM_ATOM_UDEF_STEREO_COUNT>
1
> <PUBCHEM_BOND_DEF_STEREO_COUNT>
0
> <PUBCHEM_BOND_UDEF_STEREO_COUNT>
0
> <PUBCHEM_ISOTOPIC_ATOM_COUNT>
0
> <PUBCHEM_COMPONENT_COUNT>
1
> <PUBCHEM_CACTVS_TAUTO_COUNT>
-1
> <PUBCHEM_COORDINATE_TYPE>
1
5
255
> <PUBCHEM_BONDANNOTATIONS>
22  11  6
30  12  5
13  41  8
13  48  8
15  19  3
28  31  8
28  32  8
31  34  8
32  35  8
34  36  8
35  36  8
21  4  5
40  41  8
40  42  8
41  43  8
42  44  8
43  45  8
43  46  8
44  45  8
46  47  8
47  48  8
$$$$
