501815
  -OEChem-10302200282D
 83 86  0     1  0  0  0  0  0999 V2000
    5.9255   -3.8894    0.0000 S   0  0  0  0  0  0  0  0  0  0  0  0
    9.2619    2.8894    0.0000 S   0  0  0  0  0  0  0  0  0  0  0  0
    8.2619   -2.3067    0.0000 O   0  0  0  0  0  0  0  0  0  0  0  0
    6.2619   -0.5747    0.0000 O   0  0  0  0  0  0  0  0  0  0  0  0
    4.9072   -0.7171    0.0000 O   0  0  0  0  0  0  0  0  0  0  0  0
    9.2619    1.1574    0.0000 O   0  0  0  0  0  0  0  0  0  0  0  0
   10.2619    2.8894    0.0000 O   0  0  0  0  0  0  0  0  0  0  0  0
    9.2619    1.8894    0.0000 O   0  0  0  0  0  0  0  0  0  0  0  0
    4.6783    2.0847    0.0000 O   0  0  0  0  0  0  0  0  0  0  0  0
    6.7619    3.7554    0.0000 O   0  0  0  0  0  0  0  0  0  0  0  0
    6.2619   -2.3067    0.0000 N   0  0  0  0  0  0  0  0  0  0  0  0
    7.7619    0.2913    0.0000 N   0  0  0  0  0  0  0  0  0  0  0  0
    3.6201   -1.8760    0.0000 N   0  0  0  0  0  0  0  0  0  0  0  0
    6.7619    2.0234    0.0000 N   0  0  0  0  0  0  0  0  0  0  0  0
    5.2674   -2.4113    0.0000 C   0  0  1  0  0  0  0  0  0  0  0  0
    8.2619   -0.5747    0.0000 C   0  0  2  0  0  0  0  0  0  0  0  0
    7.7619   -1.4407    0.0000 C   0  0  1  0  0  0  0  0  0  0  0  0
    5.0594   -3.3894    0.0000 C   0  0  0  0  0  0  0  0  0  0  0  0
    6.7619   -1.4407    0.0000 C   0  0  0  0  0  0  0  0  0  0  0  0
    6.6686   -3.2203    0.0000 C   0  0  0  0  0  0  0  0  0  0  0  0
    9.2619   -0.5747    0.0000 C   0  0  0  0  0  0  0  0  0  0  0  0
    4.5982   -1.6681    0.0000 C   0  0  0  0  0  0  0  0  0  0  0  0
    3.3111   -2.8271    0.0000 C   0  0  0  0  0  0  0  0  0  0  0  0
    7.7619    2.0234    0.0000 C   0  0  2  0  0  0  0  0  0  0  0  0
    8.2619    1.1574    0.0000 C   0  0  0  0  0  0  0  0  0  0  0  0
    9.7619   -1.4407    0.0000 C   0  0  0  0  0  0  0  0  0  0  0  0
    8.2619    2.8894    0.0000 C   0  0  0  0  0  0  0  0  0  0  0  0
    3.0020   -3.7782    0.0000 C   0  0  0  0  0  0  0  0  0  0  0  0
    2.3600   -2.5181    0.0000 C   0  0  0  0  0  0  0  0  0  0  0  0
    4.2621   -3.1361    0.0000 C   0  0  0  0  0  0  0  0  0  0  0  0
    9.2619   -2.3067    0.0000 C   0  0  0  0  0  0  0  0  0  0  0  0
   10.7619   -1.4407    0.0000 C   0  0  0  0  0  0  0  0  0  0  0  0
    9.2619    3.8894    0.0000 C   0  0  0  0  0  0  0  0  0  0  0  0
    6.2619    2.8894    0.0000 C   0  0  0  0  0  0  0  0  0  0  0  0
    9.7619   -3.1728    0.0000 C   0  0  0  0  0  0  0  0  0  0  0  0
   11.2619   -2.3067    0.0000 C   0  0  0  0  0  0  0  0  0  0  0  0
   10.7619   -3.1728    0.0000 C   0  0  0  0  0  0  0  0  0  0  0  0
    5.2619    2.8894    0.0000 C   0  0  0  0  0  0  0  0  0  0  0  0
    4.6783    3.6942    0.0000 C   0  0  0  0  0  0  0  0  0  0  0  0
    3.7320    3.3894    0.0000 C   0  0  0  0  0  0  0  0  0  0  0  0
    3.7320    2.3894    0.0000 C   0  0  0  0  0  0  0  0  0  0  0  0
    2.8660    3.8894    0.0000 C   0  0  0  0  0  0  0  0  0  0  0  0
    2.8660    1.8894    0.0000 C   0  0  0  0  0  0  0  0  0  0  0  0
    2.0000    3.3894    0.0000 C   0  0  0  0  0  0  0  0  0  0  0  0
    2.0000    2.3894    0.0000 C   0  0  0  0  0  0  0  0  0  0  0  0
    5.4896   -1.8324    0.0000 H   0  0  0  0  0  0  0  0  0  0  0  0
    8.5719   -0.0378    0.0000 H   0  0  0  0  0  0  0  0  0  0  0  0
    7.4519   -1.9776    0.0000 H   0  0  0  0  0  0  0  0  0  0  0  0
    4.4698   -3.1978    0.0000 H   0  0  0  0  0  0  0  0  0  0  0  0
    4.8073   -3.9558    0.0000 H   0  0  0  0  0  0  0  0  0  0  0  0
    7.0330   -3.7219    0.0000 H   0  0  0  0  0  0  0  0  0  0  0  0
    7.2056   -2.9103    0.0000 H   0  0  0  0  0  0  0  0  0  0  0  0
    9.8445   -0.3626    0.0000 H   0  0  0  0  0  0  0  0  0  0  0  0
    9.1542    0.0359    0.0000 H   0  0  0  0  0  0  0  0  0  0  0  0
    7.1419    0.2913    0.0000 H   0  0  0  0  0  0  0  0  0  0  0  0
    3.2052   -1.4153    0.0000 H   0  0  0  0  0  0  0  0  0  0  0  0
    7.4519    2.5603    0.0000 H   0  0  0  0  0  0  0  0  0  0  0  0
    8.3695    3.5000    0.0000 H   0  0  0  0  0  0  0  0  0  0  0  0
    7.6793    3.1015    0.0000 H   0  0  0  0  0  0  0  0  0  0  0  0
    2.4124   -3.5866    0.0000 H   0  0  0  0  0  0  0  0  0  0  0  0
    2.8105   -4.3678    0.0000 H   0  0  0  0  0  0  0  0  0  0  0  0
    3.5917   -3.9697    0.0000 H   0  0  0  0  0  0  0  0  0  0  0  0
    2.5516   -1.9284    0.0000 H   0  0  0  0  0  0  0  0  0  0  0  0
    1.7704   -2.3265    0.0000 H   0  0  0  0  0  0  0  0  0  0  0  0
    2.1684   -3.1077    0.0000 H   0  0  0  0  0  0  0  0  0  0  0  0
    4.0705   -3.7258    0.0000 H   0  0  0  0  0  0  0  0  0  0  0  0
    4.8518   -3.3277    0.0000 H   0  0  0  0  0  0  0  0  0  0  0  0
    4.4537   -2.5464    0.0000 H   0  0  0  0  0  0  0  0  0  0  0  0
    7.9519   -2.8437    0.0000 H   0  0  0  0  0  0  0  0  0  0  0  0
    6.4519    1.4864    0.0000 H   0  0  0  0  0  0  0  0  0  0  0  0
    8.6419   -2.3067    0.0000 H   0  0  0  0  0  0  0  0  0  0  0  0
   11.0719   -0.9038    0.0000 H   0  0  0  0  0  0  0  0  0  0  0  0
    9.8819    3.8894    0.0000 H   0  0  0  0  0  0  0  0  0  0  0  0
    9.2619    4.5094    0.0000 H   0  0  0  0  0  0  0  0  0  0  0  0
    8.6419    3.8894    0.0000 H   0  0  0  0  0  0  0  0  0  0  0  0
    9.4519   -3.7097    0.0000 H   0  0  0  0  0  0  0  0  0  0  0  0
   11.8819   -2.3067    0.0000 H   0  0  0  0  0  0  0  0  0  0  0  0
   11.0719   -3.7097    0.0000 H   0  0  0  0  0  0  0  0  0  0  0  0
    4.8709    4.2835    0.0000 H   0  0  0  0  0  0  0  0  0  0  0  0
    2.8660    4.5094    0.0000 H   0  0  0  0  0  0  0  0  0  0  0  0
    2.8660    1.2694    0.0000 H   0  0  0  0  0  0  0  0  0  0  0  0
    1.4631    3.6994    0.0000 H   0  0  0  0  0  0  0  0  0  0  0  0
    1.4631    2.0794    0.0000 H   0  0  0  0  0  0  0  0  0  0  0  0
  1 18  1  0  0  0  0
  1 20  1  0  0  0  0
  2  7  2  0  0  0  0
  2  8  2  0  0  0  0
  2 27  1  0  0  0  0
  2 33  1  0  0  0  0
 17  3  1  6  0  0  0
  3 69  1  0  0  0  0
  4 19  2  0  0  0  0
  5 22  2  0  0  0  0
  6 25  2  0  0  0  0
  9 38  1  0  0  0  0
  9 41  1  0  0  0  0
 10 34  2  0  0  0  0
 11 15  1  0  0  0  0
 11 19  1  0  0  0  0
 11 20  1  0  0  0  0
 16 12  1  1  0  0  0
 12 25  1  0  0  0  0
 12 55  1  0  0  0  0
 13 22  1  0  0  0  0
 13 23  1  0  0  0  0
 13 56  1  0  0  0  0
 24 14  1  1  0  0  0
 14 34  1  0  0  0  0
 14 70  1  0  0  0  0
 15 18  1  0  0  0  0
 15 22  1  1  0  0  0
 15 46  1  0  0  0  0
 16 17  1  0  0  0  0
 16 21  1  0  0  0  0
 16 47  1  0  0  0  0
 17 19  1  0  0  0  0
 17 48  1  0  0  0  0
 18 49  1  0  0  0  0
 18 50  1  0  0  0  0
 20 51  1  0  0  0  0
 20 52  1  0  0  0  0
 21 26  1  0  0  0  0
 21 53  1  0  0  0  0
 21 54  1  0  0  0  0
 23 28  1  0  0  0  0
 23 29  1  0  0  0  0
 23 30  1  0  0  0  0
 24 25  1  0  0  0  0
 24 27  1  0  0  0  0
 24 57  1  0  0  0  0
 26 31  2  0  0  0  0
 26 32  1  0  0  0  0
 27 58  1  0  0  0  0
 27 59  1  0  0  0  0
 28 60  1  0  0  0  0
 28 61  1  0  0  0  0
 28 62  1  0  0  0  0
 29 63  1  0  0  0  0
 29 64  1  0  0  0  0
 29 65  1  0  0  0  0
 30 66  1  0  0  0  0
 30 67  1  0  0  0  0
 30 68  1  0  0  0  0
 31 35  1  0  0  0  0
 31 71  1  0  0  0  0
 32 36  2  0  0  0  0
 32 72  1  0  0  0  0
 33 73  1  0  0  0  0
 33 74  1  0  0  0  0
 33 75  1  0  0  0  0
 34 38  1  0  0  0  0
 35 37  2  0  0  0  0
 35 76  1  0  0  0  0
 36 37  1  0  0  0  0
 36 77  1  0  0  0  0
 37 78  1  0  0  0  0
 38 39  2  0  0  0  0
 39 40  1  0  0  0  0
 39 79  1  0  0  0  0
 40 41  1  0  0  0  0
 40 42  2  0  0  0  0
 41 43  2  0  0  0  0
 42 44  1  0  0  0  0
 42 80  1  0  0  0  0
 43 45  1  0  0  0  0
 43 81  1  0  0  0  0
 44 45  2  0  0  0  0
 44 82  1  0  0  0  0
 45 83  1  0  0  0  0
M  END
> <PUBCHEM_COMPOUND_CID>
501815
> <PUBCHEM_COMPOUND_CANONICALIZED>
1
> <PUBCHEM_CACTVS_COMPLEXITY>
1180
> <PUBCHEM_CACTVS_HBOND_ACCEPTOR>
9
> <PUBCHEM_CACTVS_HBOND_DONOR>
4
> <PUBCHEM_CACTVS_ROTATABLE_BOND>
12
> <PUBCHEM_CACTVS_SUBSKEYS>
AAADcfB7vABgAAAAAAAAAAAAAAAAAWJAAAAwYAAAAAAAAEgB9AAAHgQQCAAADLzl2AayBsPABkqIAqFSEHLCCABkIBAIiIHODMgOdjqk9T+XeSjk1hGYqYeY36LuAAAAAAAIAAAAAAAAABAAAAAAAAAAAA==
> <PUBCHEM_IUPAC_OPENEYE_NAME>
(4R)-3-[(2S,3S)-3-[[(2R)-2-(benzofuran-2-carbonylamino)-3-methylsulfonyl-propanoyl]amino]-2-hydroxy-4-phenyl-butanoyl]-N-tert-butyl-thiazolidine-4-carboxamide
> <PUBCHEM_IUPAC_CAS_NAME>
(4R)-3-[(2S,3S)-3-[[(2R)-2-[[2-benzofuranyl(oxo)methyl]amino]-3-methylsulfonyl-1-oxopropyl]amino]-2-hydroxy-1-oxo-4-phenylbutyl]-N-tert-butyl-4-thiazolidinecarboxamide
> <PUBCHEM_IUPAC_NAME_MARKUP>
(4<I>R</I>)-3-[(2<I>S</I>,3<I>S</I>)-3-[[(2<I>R</I>)-2-(1-benzofuran-2-carbonylamino)-3-methylsulfonylpropanoyl]amino]-2-hydroxy-4-phenylbutanoyl]-<I>N</I>-<I>tert</I>-butyl-1,3-thiazolidine-4-carboxamide
> <PUBCHEM_IUPAC_NAME>
(4R)-3-[(2S,3S)-3-[[(2R)-2-(1-benzofuran-2-carbonylamino)-3-methylsulfonylpropanoyl]amino]-2-hydroxy-4-phenylbutanoyl]-N-tert-butyl-1,3-thiazolidine-4-carboxamide
> <PUBCHEM_IUPAC_SYSTEMATIC_NAME>
(4R)-3-[(2S,3S)-3-[[(2R)-2-(1-benzofuran-2-ylcarbonylamino)-3-methylsulfonyl-propanoyl]amino]-2-oxidanyl-4-phenyl-butanoyl]-N-tert-butyl-1,3-thiazolidine-4-carboxamide
> <PUBCHEM_IUPAC_TRADITIONAL_NAME>
(4R)-3-[(2S,3S)-3-[[(2R)-2-(benzofuran-2-carbonylamino)-3-mesyl-propanoyl]amino]-2-hydroxy-4-phenyl-butanoyl]-N-tert-butyl-thiazolidine-4-carboxamide
> <PUBCHEM_IUPAC_INCHI>
InChI=1S/C31H38N4O8S2/c1-31(2,3)34-28(38)23-16-44-18-35(23)30(40)26(36)21(14-19-10-6-5-7-11-19)32-27(37)22(17-45(4,41)42)33-29(39)25-15-20-12-8-9-13-24(20)43-25/h5-13,15,21-23,26,36H,14,16-18H2,1-4H3,(H,32,37)(H,33,39)(H,34,38)/t21-,22-,23-,26-/m0/s1
> <PUBCHEM_IUPAC_INCHIKEY>
BCQXPEAOLJFSOV-HZLPDVBGSA-N
> <PUBCHEM_XLOGP3_AA>
2.5
> <PUBCHEM_EXACT_MASS>
658.21310653
> <PUBCHEM_MOLECULAR_FORMULA>
C31H38N4O8S2
> <PUBCHEM_MOLECULAR_WEIGHT>
658.8
> <PUBCHEM_OPENEYE_CAN_SMILES>
CC(C)(C)NC(=O)C1CSCN1C(=O)C(C(CC2=CC=CC=C2)NC(=O)C(CS(=O)(=O)C)NC(=O)C3=CC4=CC=CC=C4O3)O
> <PUBCHEM_OPENEYE_ISO_SMILES>
CC(C)(C)NC(=O)[C@@H]1CSCN1C(=O)[C@H]([C@H](CC2=CC=CC=C2)NC(=O)[C@H](CS(=O)(=O)C)NC(=O)C3=CC4=CC=CC=C4O3)O
> <PUBCHEM_CACTVS_TPSA>
209
> <PUBCHEM_MONOISOTOPIC_WEIGHT>
658.21310653
> <PUBCHEM_TOTAL_CHARGE>
0
> <PUBCHEM_HEAVY_ATOM_COUNT>
45
> <PUBCHEM_ATOM_DEF_STEREO_COUNT>
4
> <PUBCHEM_ATOM_UDEF_STEREO_COUNT>
0
> <PUBCHEM_BOND_DEF_STEREO_COUNT>
0
> <PUBCHEM_BOND_UDEF_STEREO_COUNT>
0
> <PUBCHEM_ISOTOPIC_ATOM_COUNT>
0
> <PUBCHEM_COMPONENT_COUNT>
1
> <PUBCHEM_CACTVS_TAUTO_COUNT>
-1
> <PUBCHEM_COORDINATE_TYPE>
1
5
255
> <PUBCHEM_BONDANNOTATIONS>
16  12  5
24  14  5
15  22  5
26  31  8
26  32  8
17  3  6
31  35  8
32  36  8
35  37  8
36  37  8
38  39  8
39  40  8
40  41  8
40  42  8
41  43  8
42  44  8
43  45  8
44  45  8
9  38  8
9  41  8
$$$$
