501964
  -OEChem-10302200282D
 84 86  0     1  0  0  0  0  0999 V2000
    2.0000    1.4588    0.0000 F   0  0  0  0  0  0  0  0  0  0  0  0
    8.0622   -5.0412    0.0000 O   0  0  0  0  0  0  0  0  0  0  0  0
    8.0622   -0.0412    0.0000 O   0  0  0  0  0  0  0  0  0  0  0  0
    8.0622    0.9588    0.0000 O   0  0  0  0  0  0  0  0  0  0  0  0
    9.7942    0.9588    0.0000 O   0  0  0  0  0  0  0  0  0  0  0  0
   10.6603   -0.5412    0.0000 O   0  0  0  0  0  0  0  0  0  0  0  0
    7.1962    4.4588    0.0000 O   0  0  0  0  0  0  0  0  0  0  0  0
   10.0109    5.6612    0.0000 O   0  0  0  0  0  0  0  0  0  0  0  0
    9.7942   -5.0412    0.0000 N   0  0  0  0  0  0  0  0  0  0  0  0
    7.1962   -1.5412    0.0000 N   0  0  0  0  0  0  0  0  0  0  0  0
    6.3301    0.9588    0.0000 N   0  0  0  0  0  0  0  0  0  0  0  0
    8.0622    2.9588    0.0000 N   0  0  0  0  0  0  0  0  0  0  0  0
    9.0327    5.4533    0.0000 N   0  0  0  0  0  0  0  0  0  0  0  0
    8.9282   -3.5412    0.0000 C   0  0  1  0  0  0  0  0  0  0  0  0
    9.7942   -3.0412    0.0000 C   0  0  0  0  0  0  0  0  0  0  0  0
    8.0622   -3.0412    0.0000 C   0  0  0  0  0  0  0  0  0  0  0  0
   10.6603   -3.5412    0.0000 C   0  0  0  0  0  0  0  0  0  0  0  0
    8.0622   -2.0412    0.0000 C   0  0  1  0  0  0  0  0  0  0  0  0
    8.9282   -4.5412    0.0000 C   0  0  0  0  0  0  0  0  0  0  0  0
   10.6603   -4.5412    0.0000 C   0  0  0  0  0  0  0  0  0  0  0  0
    6.3301   -0.0412    0.0000 C   0  0  2  0  0  0  0  0  0  0  0  0
    8.9282   -1.5412    0.0000 C   0  0  0  0  0  0  0  0  0  0  0  0
    7.1962   -0.5412    0.0000 C   0  0  0  0  0  0  0  0  0  0  0  0
    7.1962    2.4588    0.0000 C   0  0  1  0  0  0  0  0  0  0  0  0
    5.4641   -0.5412    0.0000 C   0  0  0  0  0  0  0  0  0  0  0  0
    6.3301    2.9588    0.0000 C   0  0  0  0  0  0  0  0  0  0  0  0
    7.1962    1.4588    0.0000 C   0  0  0  0  0  0  0  0  0  0  0  0
    8.9282   -0.5412    0.0000 C   0  0  0  0  0  0  0  0  0  0  0  0
    4.5981   -0.0412    0.0000 C   0  0  0  0  0  0  0  0  0  0  0  0
    6.3301    3.9588    0.0000 C   0  0  0  0  0  0  0  0  0  0  0  0
    5.4641    2.4588    0.0000 C   0  0  0  0  0  0  0  0  0  0  0  0
    3.7320   -0.5412    0.0000 C   0  0  0  0  0  0  0  0  0  0  0  0
    4.5981    0.9588    0.0000 C   0  0  0  0  0  0  0  0  0  0  0  0
    9.7942   -0.0412    0.0000 C   0  0  0  0  0  0  0  0  0  0  0  0
    8.0622    3.9588    0.0000 C   0  0  0  0  0  0  0  0  0  0  0  0
    2.8660   -0.0412    0.0000 C   0  0  0  0  0  0  0  0  0  0  0  0
    3.7320    1.4588    0.0000 C   0  0  0  0  0  0  0  0  0  0  0  0
    2.8660    0.9588    0.0000 C   0  0  0  0  0  0  0  0  0  0  0  0
    8.9282    4.4588    0.0000 C   0  0  0  0  0  0  0  0  0  0  0  0
    9.8418    4.0521    0.0000 C   0  0  0  0  0  0  0  0  0  0  0  0
   10.6603    1.4588    0.0000 C   0  0  0  0  0  0  0  0  0  0  0  0
   10.5109    4.7952    0.0000 C   0  0  0  0  0  0  0  0  0  0  0  0
   10.6603    2.4588    0.0000 C   0  0  0  0  0  0  0  0  0  0  0  0
   11.5054    4.6907    0.0000 C   0  0  0  0  0  0  0  0  0  0  0  0
    8.9282   -2.9212    0.0000 H   0  0  0  0  0  0  0  0  0  0  0  0
   10.1928   -2.5663    0.0000 H   0  0  0  0  0  0  0  0  0  0  0  0
    9.3957   -2.5663    0.0000 H   0  0  0  0  0  0  0  0  0  0  0  0
    7.4516   -2.9336    0.0000 H   0  0  0  0  0  0  0  0  0  0  0  0
    7.8501   -3.6238    0.0000 H   0  0  0  0  0  0  0  0  0  0  0  0
   11.2708   -3.6489    0.0000 H   0  0  0  0  0  0  0  0  0  0  0  0
   10.8723   -2.9586    0.0000 H   0  0  0  0  0  0  0  0  0  0  0  0
    8.0622   -1.4212    0.0000 H   0  0  0  0  0  0  0  0  0  0  0  0
   10.8723   -5.1238    0.0000 H   0  0  0  0  0  0  0  0  0  0  0  0
   11.2708   -4.4336    0.0000 H   0  0  0  0  0  0  0  0  0  0  0  0
    9.7942   -5.6612    0.0000 H   0  0  0  0  0  0  0  0  0  0  0  0
    6.6592   -1.8512    0.0000 H   0  0  0  0  0  0  0  0  0  0  0  0
    6.8671    0.2688    0.0000 H   0  0  0  0  0  0  0  0  0  0  0  0
    9.4651   -1.8512    0.0000 H   0  0  0  0  0  0  0  0  0  0  0  0
    7.7331    2.1488    0.0000 H   0  0  0  0  0  0  0  0  0  0  0  0
    5.0656   -1.0162    0.0000 H   0  0  0  0  0  0  0  0  0  0  0  0
    5.8626   -1.0162    0.0000 H   0  0  0  0  0  0  0  0  0  0  0  0
    6.8671    3.2688    0.0000 H   0  0  0  0  0  0  0  0  0  0  0  0
    5.7932    1.2688    0.0000 H   0  0  0  0  0  0  0  0  0  0  0  0
    8.3913   -0.2312    0.0000 H   0  0  0  0  0  0  0  0  0  0  0  0
    6.9501    3.9588    0.0000 H   0  0  0  0  0  0  0  0  0  0  0  0
    6.3301    4.5788    0.0000 H   0  0  0  0  0  0  0  0  0  0  0  0
    5.7101    3.9588    0.0000 H   0  0  0  0  0  0  0  0  0  0  0  0
    5.1541    2.9957    0.0000 H   0  0  0  0  0  0  0  0  0  0  0  0
    4.9272    2.1488    0.0000 H   0  0  0  0  0  0  0  0  0  0  0  0
    5.7741    1.9218    0.0000 H   0  0  0  0  0  0  0  0  0  0  0  0
    8.5991    2.6488    0.0000 H   0  0  0  0  0  0  0  0  0  0  0  0
    3.7320   -1.1612    0.0000 H   0  0  0  0  0  0  0  0  0  0  0  0
    5.1350    1.2688    0.0000 H   0  0  0  0  0  0  0  0  0  0  0  0
    2.3291   -0.3512    0.0000 H   0  0  0  0  0  0  0  0  0  0  0  0
    3.7320    2.0788    0.0000 H   0  0  0  0  0  0  0  0  0  0  0  0
    9.9706    3.4456    0.0000 H   0  0  0  0  0  0  0  0  0  0  0  0
   10.8723    0.8762    0.0000 H   0  0  0  0  0  0  0  0  0  0  0  0
   11.2708    1.5664    0.0000 H   0  0  0  0  0  0  0  0  0  0  0  0
   11.2803    2.4588    0.0000 H   0  0  0  0  0  0  0  0  0  0  0  0
   10.6603    3.0788    0.0000 H   0  0  0  0  0  0  0  0  0  0  0  0
   10.0403    2.4588    0.0000 H   0  0  0  0  0  0  0  0  0  0  0  0
   11.4406    4.0741    0.0000 H   0  0  0  0  0  0  0  0  0  0  0  0
   12.1220    4.6259    0.0000 H   0  0  0  0  0  0  0  0  0  0  0  0
   11.5702    5.3073    0.0000 H   0  0  0  0  0  0  0  0  0  0  0  0
  1 38  1  0  0  0  0
  2 19  2  0  0  0  0
  3 23  2  0  0  0  0
  4 27  2  0  0  0  0
  5 34  1  0  0  0  0
  5 41  1  0  0  0  0
  6 34  2  0  0  0  0
  7 35  2  0  0  0  0
  8 13  1  0  0  0  0
  8 42  1  0  0  0  0
  9 19  1  0  0  0  0
  9 20  1  0  0  0  0
  9 55  1  0  0  0  0
 18 10  1  6  0  0  0
 10 23  1  0  0  0  0
 10 56  1  0  0  0  0
 21 11  1  6  0  0  0
 11 27  1  0  0  0  0
 11 63  1  0  0  0  0
 24 12  1  6  0  0  0
 12 35  1  0  0  0  0
 12 71  1  0  0  0  0
 13 39  2  0  0  0  0
 14 15  1  0  0  0  0
 14 16  1  6  0  0  0
 14 19  1  0  0  0  0
 14 45  1  0  0  0  0
 15 17  1  0  0  0  0
 15 46  1  0  0  0  0
 15 47  1  0  0  0  0
 16 18  1  0  0  0  0
 16 48  1  0  0  0  0
 16 49  1  0  0  0  0
 17 20  1  0  0  0  0
 17 50  1  0  0  0  0
 17 51  1  0  0  0  0
 18 22  1  0  0  0  0
 18 52  1  0  0  0  0
 20 53  1  0  0  0  0
 20 54  1  0  0  0  0
 21 23  1  0  0  0  0
 21 25  1  0  0  0  0
 21 57  1  0  0  0  0
 22 28  2  3  0  0  0
 22 58  1  0  0  0  0
 24 26  1  0  0  0  0
 24 27  1  0  0  0  0
 24 59  1  0  0  0  0
 25 29  1  0  0  0  0
 25 60  1  0  0  0  0
 25 61  1  0  0  0  0
 26 30  1  0  0  0  0
 26 31  1  0  0  0  0
 26 62  1  0  0  0  0
 28 34  1  0  0  0  0
 28 64  1  0  0  0  0
 29 32  2  0  0  0  0
 29 33  1  0  0  0  0
 30 65  1  0  0  0  0
 30 66  1  0  0  0  0
 30 67  1  0  0  0  0
 31 68  1  0  0  0  0
 31 69  1  0  0  0  0
 31 70  1  0  0  0  0
 32 36  1  0  0  0  0
 32 72  1  0  0  0  0
 33 37  2  0  0  0  0
 33 73  1  0  0  0  0
 35 39  1  0  0  0  0
 36 38  2  0  0  0  0
 36 74  1  0  0  0  0
 37 38  1  0  0  0  0
 37 75  1  0  0  0  0
 39 40  1  0  0  0  0
 40 42  2  0  0  0  0
 40 76  1  0  0  0  0
 41 43  1  0  0  0  0
 41 77  1  0  0  0  0
 41 78  1  0  0  0  0
 42 44  1  0  0  0  0
 43 79  1  0  0  0  0
 43 80  1  0  0  0  0
 43 81  1  0  0  0  0
 44 82  1  0  0  0  0
 44 83  1  0  0  0  0
 44 84  1  0  0  0  0
M  END
> <PUBCHEM_COMPOUND_CID>
501964
> <PUBCHEM_COMPOUND_CANONICALIZED>
1
> <PUBCHEM_CACTVS_COMPLEXITY>
1030
> <PUBCHEM_CACTVS_HBOND_ACCEPTOR>
9
> <PUBCHEM_CACTVS_HBOND_DONOR>
4
> <PUBCHEM_CACTVS_ROTATABLE_BOND>
15
> <PUBCHEM_CACTVS_SUBSKEYS>
AAADcfB7uQAAAAAAAAAAAAAAAAAAAWAAAAA8QAAAAAAAAAABwAAAHwAUAAAADSzhng4yjJLQBACpA6XyWgCCAAAmIgAomKG+bNoIZjqAtbOWMYhmlhiI6cc/iYCOAAAAAAAAAAAAAAAAAAAAAAAAAAAAAA==
> <PUBCHEM_IUPAC_OPENEYE_NAME>
ethyl (4S)-4-[[(2S)-3-(4-fluorophenyl)-2-[[(2S)-3-methyl-2-[(5-methylisoxazole-3-carbonyl)amino]butanoyl]amino]propanoyl]amino]-5-[(3S)-2-oxo-3-piperidyl]pent-2-enoate
> <PUBCHEM_IUPAC_CAS_NAME>
(4S)-4-[[(2S)-3-(4-fluorophenyl)-2-[[(2S)-3-methyl-2-[[(5-methyl-3-isoxazolyl)-oxomethyl]amino]-1-oxobutyl]amino]-1-oxopropyl]amino]-5-[(3S)-2-oxo-3-piperidinyl]-2-pentenoic acid ethyl ester
> <PUBCHEM_IUPAC_NAME_MARKUP>
ethyl (4<I>S</I>)-4-[[(2<I>S</I>)-3-(4-fluorophenyl)-2-[[(2<I>S</I>)-3-methyl-2-[(5-methyl-1,2-oxazole-3-carbonyl)amino]butanoyl]amino]propanoyl]amino]-5-[(3<I>S</I>)-2-oxopiperidin-3-yl]pent-2-enoate
> <PUBCHEM_IUPAC_NAME>
ethyl (4S)-4-[[(2S)-3-(4-fluorophenyl)-2-[[(2S)-3-methyl-2-[(5-methyl-1,2-oxazole-3-carbonyl)amino]butanoyl]amino]propanoyl]amino]-5-[(3S)-2-oxopiperidin-3-yl]pent-2-enoate
> <PUBCHEM_IUPAC_SYSTEMATIC_NAME>
ethyl (4S)-4-[[(2S)-3-(4-fluorophenyl)-2-[[(2S)-3-methyl-2-[(5-methyl-1,2-oxazol-3-yl)carbonylamino]butanoyl]amino]propanoyl]amino]-5-[(3S)-2-oxidanylidenepiperidin-3-yl]pent-2-enoate
> <PUBCHEM_IUPAC_TRADITIONAL_NAME>
(4S)-4-[[(2S)-3-(4-fluorophenyl)-2-[[(2S)-3-methyl-2-[(5-methylisoxazole-3-carbonyl)amino]butanoyl]amino]propanoyl]amino]-5-[(3S)-2-keto-3-piperidyl]pent-2-enoic acid ethyl ester
> <PUBCHEM_IUPAC_INCHI>
InChI=1S/C31H40FN5O7/c1-5-43-26(38)13-12-23(17-21-7-6-14-33-28(21)39)34-29(40)24(16-20-8-10-22(32)11-9-20)35-31(42)27(18(2)3)36-30(41)25-15-19(4)44-37-25/h8-13,15,18,21,23-24,27H,5-7,14,16-17H2,1-4H3,(H,33,39)(H,34,40)(H,35,42)(H,36,41)/t21-,23+,24-,27-/m0/s1
> <PUBCHEM_IUPAC_INCHIKEY>
CDUSHRVVRRRFJC-DQHZSEARSA-N
> <PUBCHEM_XLOGP3_AA>
3.2
> <PUBCHEM_EXACT_MASS>
613.29117679
> <PUBCHEM_MOLECULAR_FORMULA>
C31H40FN5O7
> <PUBCHEM_MOLECULAR_WEIGHT>
613.7
> <PUBCHEM_OPENEYE_CAN_SMILES>
CCOC(=O)C=CC(CC1CCCNC1=O)NC(=O)C(CC2=CC=C(C=C2)F)NC(=O)C(C(C)C)NC(=O)C3=NOC(=C3)C
> <PUBCHEM_OPENEYE_ISO_SMILES>
CCOC(=O)C=C[C@H](C[C@@H]1CCCNC1=O)NC(=O)[C@H](CC2=CC=C(C=C2)F)NC(=O)[C@H](C(C)C)NC(=O)C3=NOC(=C3)C
> <PUBCHEM_CACTVS_TPSA>
169
> <PUBCHEM_MONOISOTOPIC_WEIGHT>
613.29117679
> <PUBCHEM_TOTAL_CHARGE>
0
> <PUBCHEM_HEAVY_ATOM_COUNT>
44
> <PUBCHEM_ATOM_DEF_STEREO_COUNT>
4
> <PUBCHEM_ATOM_UDEF_STEREO_COUNT>
0
> <PUBCHEM_BOND_DEF_STEREO_COUNT>
0
> <PUBCHEM_BOND_UDEF_STEREO_COUNT>
1
> <PUBCHEM_ISOTOPIC_ATOM_COUNT>
0
> <PUBCHEM_COMPONENT_COUNT>
1
> <PUBCHEM_CACTVS_TAUTO_COUNT>
-1
> <PUBCHEM_COORDINATE_TYPE>
1
5
255
> <PUBCHEM_BONDANNOTATIONS>
18  10  6
21  11  6
24  12  6
13  39  8
14  16  6
22  28  1
29  32  8
29  33  8
32  36  8
33  37  8
36  38  8
37  38  8
39  40  8
40  42  8
8  13  8
8  42  8
$$$$
