501965
  -OEChem-10302200282D
 85 87  0     1  0  0  0  0  0999 V2000
    2.0000    1.0020    0.0000 F   0  0  0  0  0  0  0  0  0  0  0  0
    8.0622   -5.4980    0.0000 O   0  0  0  0  0  0  0  0  0  0  0  0
    8.0622   -0.4980    0.0000 O   0  0  0  0  0  0  0  0  0  0  0  0
    8.0622    0.5020    0.0000 O   0  0  0  0  0  0  0  0  0  0  0  0
    9.7942    0.5020    0.0000 O   0  0  0  0  0  0  0  0  0  0  0  0
    7.1962    4.0020    0.0000 O   0  0  0  0  0  0  0  0  0  0  0  0
   10.6603   -0.9980    0.0000 O   0  0  0  0  0  0  0  0  0  0  0  0
    3.8814    4.3384    0.0000 O   0  0  0  0  0  0  0  0  0  0  0  0
    9.7942   -5.4980    0.0000 N   0  0  0  0  0  0  0  0  0  0  0  0
    7.1962   -1.9980    0.0000 N   0  0  0  0  0  0  0  0  0  0  0  0
    6.3301    2.5020    0.0000 N   0  0  0  0  0  0  0  0  0  0  0  0
    4.5506    3.5953    0.0000 N   0  0  0  0  0  0  0  0  0  0  0  0
    8.9282   -3.9980    0.0000 C   0  0  2  0  0  0  0  0  0  0  0  0
    8.0622   -3.4980    0.0000 C   0  0  0  0  0  0  0  0  0  0  0  0
    9.7942   -3.4980    0.0000 C   0  0  0  0  0  0  0  0  0  0  0  0
    8.0622   -2.4980    0.0000 C   0  0  1  0  0  0  0  0  0  0  0  0
   10.6603   -3.9980    0.0000 C   0  0  0  0  0  0  0  0  0  0  0  0
    8.9282   -4.9980    0.0000 C   0  0  0  0  0  0  0  0  0  0  0  0
   10.6603   -4.9980    0.0000 C   0  0  0  0  0  0  0  0  0  0  0  0
    6.3301   -0.4980    0.0000 C   0  0  2  0  0  0  0  0  0  0  0  0
    6.3301    0.5020    0.0000 C   0  0  0  0  0  0  0  0  0  0  0  0
    7.1962   -0.9980    0.0000 C   0  0  0  0  0  0  0  0  0  0  0  0
    7.1962    2.0020    0.0000 C   0  0  2  0  0  0  0  0  0  0  0  0
    5.4641   -0.9980    0.0000 C   0  0  0  0  0  0  0  0  0  0  0  0
    8.9282   -1.9980    0.0000 C   0  0  0  0  0  0  0  0  0  0  0  0
    7.1962    1.0020    0.0000 C   0  0  0  0  0  0  0  0  0  0  0  0
    8.0622    2.5020    0.0000 C   0  0  0  0  0  0  0  0  0  0  0  0
    4.5981   -0.4980    0.0000 C   0  0  0  0  0  0  0  0  0  0  0  0
    8.0622    3.5020    0.0000 C   0  0  0  0  0  0  0  0  0  0  0  0
    8.9282    2.0020    0.0000 C   0  0  0  0  0  0  0  0  0  0  0  0
    8.9282   -0.9980    0.0000 C   0  0  0  0  0  0  0  0  0  0  0  0
    3.7320   -0.9980    0.0000 C   0  0  0  0  0  0  0  0  0  0  0  0
    4.5981    0.5020    0.0000 C   0  0  0  0  0  0  0  0  0  0  0  0
    6.3301    3.5020    0.0000 C   0  0  0  0  0  0  0  0  0  0  0  0
    9.7942   -0.4980    0.0000 C   0  0  0  0  0  0  0  0  0  0  0  0
    2.8660   -0.4980    0.0000 C   0  0  0  0  0  0  0  0  0  0  0  0
    3.7320    1.0020    0.0000 C   0  0  0  0  0  0  0  0  0  0  0  0
    2.8660    0.5020    0.0000 C   0  0  0  0  0  0  0  0  0  0  0  0
    5.4641    4.0020    0.0000 C   0  0  0  0  0  0  0  0  0  0  0  0
    5.3596    4.9965    0.0000 C   0  0  0  0  0  0  0  0  0  0  0  0
    4.3814    5.2044    0.0000 C   0  0  0  0  0  0  0  0  0  0  0  0
   10.6603    1.0020    0.0000 C   0  0  0  0  0  0  0  0  0  0  0  0
    3.9747    6.1180    0.0000 C   0  0  0  0  0  0  0  0  0  0  0  0
   10.6603    2.0020    0.0000 C   0  0  0  0  0  0  0  0  0  0  0  0
    8.9282   -3.3780    0.0000 H   0  0  0  0  0  0  0  0  0  0  0  0
    7.4516   -3.3903    0.0000 H   0  0  0  0  0  0  0  0  0  0  0  0
    7.8501   -4.0806    0.0000 H   0  0  0  0  0  0  0  0  0  0  0  0
   10.1928   -3.0230    0.0000 H   0  0  0  0  0  0  0  0  0  0  0  0
    9.3957   -3.0230    0.0000 H   0  0  0  0  0  0  0  0  0  0  0  0
    8.0622   -1.8780    0.0000 H   0  0  0  0  0  0  0  0  0  0  0  0
   11.2708   -4.1056    0.0000 H   0  0  0  0  0  0  0  0  0  0  0  0
   10.8723   -3.4154    0.0000 H   0  0  0  0  0  0  0  0  0  0  0  0
   10.8723   -5.5806    0.0000 H   0  0  0  0  0  0  0  0  0  0  0  0
   11.2708   -4.8903    0.0000 H   0  0  0  0  0  0  0  0  0  0  0  0
    6.8671   -0.1880    0.0000 H   0  0  0  0  0  0  0  0  0  0  0  0
    9.7942   -6.1180    0.0000 H   0  0  0  0  0  0  0  0  0  0  0  0
    6.6592   -2.3080    0.0000 H   0  0  0  0  0  0  0  0  0  0  0  0
    6.1181    1.0846    0.0000 H   0  0  0  0  0  0  0  0  0  0  0  0
    5.7196    0.3943    0.0000 H   0  0  0  0  0  0  0  0  0  0  0  0
    6.6592    1.6920    0.0000 H   0  0  0  0  0  0  0  0  0  0  0  0
    5.0656   -1.4729    0.0000 H   0  0  0  0  0  0  0  0  0  0  0  0
    5.8626   -1.4729    0.0000 H   0  0  0  0  0  0  0  0  0  0  0  0
    9.4651   -2.3080    0.0000 H   0  0  0  0  0  0  0  0  0  0  0  0
    8.0622    1.8820    0.0000 H   0  0  0  0  0  0  0  0  0  0  0  0
    5.7932    2.1920    0.0000 H   0  0  0  0  0  0  0  0  0  0  0  0
    8.6822    3.5020    0.0000 H   0  0  0  0  0  0  0  0  0  0  0  0
    8.0622    4.1220    0.0000 H   0  0  0  0  0  0  0  0  0  0  0  0
    7.4422    3.5020    0.0000 H   0  0  0  0  0  0  0  0  0  0  0  0
    8.6182    1.4651    0.0000 H   0  0  0  0  0  0  0  0  0  0  0  0
    9.4651    1.6920    0.0000 H   0  0  0  0  0  0  0  0  0  0  0  0
    9.2382    2.5390    0.0000 H   0  0  0  0  0  0  0  0  0  0  0  0
    8.3913   -0.6880    0.0000 H   0  0  0  0  0  0  0  0  0  0  0  0
    3.7320   -1.6180    0.0000 H   0  0  0  0  0  0  0  0  0  0  0  0
    5.1350    0.8120    0.0000 H   0  0  0  0  0  0  0  0  0  0  0  0
    2.3291   -0.8080    0.0000 H   0  0  0  0  0  0  0  0  0  0  0  0
    3.7320    1.6220    0.0000 H   0  0  0  0  0  0  0  0  0  0  0  0
    5.8203    5.4114    0.0000 H   0  0  0  0  0  0  0  0  0  0  0  0
   10.8723    0.4194    0.0000 H   0  0  0  0  0  0  0  0  0  0  0  0
   11.2708    1.1097    0.0000 H   0  0  0  0  0  0  0  0  0  0  0  0
    4.5411    6.3702    0.0000 H   0  0  0  0  0  0  0  0  0  0  0  0
    3.7225    6.6844    0.0000 H   0  0  0  0  0  0  0  0  0  0  0  0
    3.4083    5.8658    0.0000 H   0  0  0  0  0  0  0  0  0  0  0  0
   11.2803    2.0020    0.0000 H   0  0  0  0  0  0  0  0  0  0  0  0
   10.6603    2.6220    0.0000 H   0  0  0  0  0  0  0  0  0  0  0  0
   10.0403    2.0020    0.0000 H   0  0  0  0  0  0  0  0  0  0  0  0
  1 38  1  0  0  0  0
  2 18  2  0  0  0  0
  3 22  2  0  0  0  0
  4 26  2  0  0  0  0
  5 35  1  0  0  0  0
  5 42  1  0  0  0  0
  6 34  2  0  0  0  0
  7 35  2  0  0  0  0
  8 12  1  0  0  0  0
  8 41  1  0  0  0  0
  9 18  1  0  0  0  0
  9 19  1  0  0  0  0
  9 56  1  0  0  0  0
 16 10  1  6  0  0  0
 10 22  1  0  0  0  0
 10 57  1  0  0  0  0
 23 11  1  1  0  0  0
 11 34  1  0  0  0  0
 11 65  1  0  0  0  0
 12 39  2  0  0  0  0
 13 14  1  6  0  0  0
 13 15  1  0  0  0  0
 13 18  1  0  0  0  0
 13 45  1  0  0  0  0
 14 16  1  0  0  0  0
 14 46  1  0  0  0  0
 14 47  1  0  0  0  0
 15 17  1  0  0  0  0
 15 48  1  0  0  0  0
 15 49  1  0  0  0  0
 16 25  1  0  0  0  0
 16 50  1  0  0  0  0
 17 19  1  0  0  0  0
 17 51  1  0  0  0  0
 17 52  1  0  0  0  0
 19 53  1  0  0  0  0
 19 54  1  0  0  0  0
 20 21  1  6  0  0  0
 20 22  1  0  0  0  0
 20 24  1  0  0  0  0
 20 55  1  0  0  0  0
 21 26  1  0  0  0  0
 21 58  1  0  0  0  0
 21 59  1  0  0  0  0
 23 26  1  0  0  0  0
 23 27  1  0  0  0  0
 23 60  1  0  0  0  0
 24 28  1  0  0  0  0
 24 61  1  0  0  0  0
 24 62  1  0  0  0  0
 25 31  2  3  0  0  0
 25 63  1  0  0  0  0
 27 29  1  0  0  0  0
 27 30  1  0  0  0  0
 27 64  1  0  0  0  0
 28 32  2  0  0  0  0
 28 33  1  0  0  0  0
 29 66  1  0  0  0  0
 29 67  1  0  0  0  0
 29 68  1  0  0  0  0
 30 69  1  0  0  0  0
 30 70  1  0  0  0  0
 30 71  1  0  0  0  0
 31 35  1  0  0  0  0
 31 72  1  0  0  0  0
 32 36  1  0  0  0  0
 32 73  1  0  0  0  0
 33 37  2  0  0  0  0
 33 74  1  0  0  0  0
 34 39  1  0  0  0  0
 36 38  2  0  0  0  0
 36 75  1  0  0  0  0
 37 38  1  0  0  0  0
 37 76  1  0  0  0  0
 39 40  1  0  0  0  0
 40 41  2  0  0  0  0
 40 77  1  0  0  0  0
 41 43  1  0  0  0  0
 42 44  1  0  0  0  0
 42 78  1  0  0  0  0
 42 79  1  0  0  0  0
 43 80  1  0  0  0  0
 43 81  1  0  0  0  0
 43 82  1  0  0  0  0
 44 83  1  0  0  0  0
 44 84  1  0  0  0  0
 44 85  1  0  0  0  0
M  END
> <PUBCHEM_COMPOUND_CID>
501965
> <PUBCHEM_COMPOUND_CANONICALIZED>
1
> <PUBCHEM_CACTVS_COMPLEXITY>
1030
> <PUBCHEM_CACTVS_HBOND_ACCEPTOR>
9
> <PUBCHEM_CACTVS_HBOND_DONOR>
3
> <PUBCHEM_CACTVS_ROTATABLE_BOND>
16
> <PUBCHEM_CACTVS_SUBSKEYS>
AAADcfB/uQAAAAAAAAAAAAAAAAAAAWAAAAA8QAAAAAAAAAABwAAAHwAUAAAADSzhng4yjJLQBACpA6XyWgCCAAAmIgAomKG+bNoIZjqAtbOWMYhmlhiI6cc/icCeAAAAAAAAAAAAAAAAAAAAAAAAAAAAAA==
> <PUBCHEM_IUPAC_OPENEYE_NAME>
ethyl (4S)-4-[[(2R,5S)-2-[(4-fluorophenyl)methyl]-6-methyl-5-[(5-methylisoxazole-3-carbonyl)amino]-4-oxo-heptanoyl]amino]-5-[(3S)-2-oxo-3-piperidyl]pent-2-enoate
> <PUBCHEM_IUPAC_CAS_NAME>
(4S)-4-[[(2R,5S)-2-[(4-fluorophenyl)methyl]-6-methyl-5-[[(5-methyl-3-isoxazolyl)-oxomethyl]amino]-1,4-dioxoheptyl]amino]-5-[(3S)-2-oxo-3-piperidinyl]-2-pentenoic acid ethyl ester
> <PUBCHEM_IUPAC_NAME_MARKUP>
ethyl (4<I>S</I>)-4-[[(2<I>R</I>,5<I>S</I>)-2-[(4-fluorophenyl)methyl]-6-methyl-5-[(5-methyl-1,2-oxazole-3-carbonyl)amino]-4-oxoheptanoyl]amino]-5-[(3<I>S</I>)-2-oxopiperidin-3-yl]pent-2-enoate
> <PUBCHEM_IUPAC_NAME>
ethyl (4S)-4-[[(2R,5S)-2-[(4-fluorophenyl)methyl]-6-methyl-5-[(5-methyl-1,2-oxazole-3-carbonyl)amino]-4-oxoheptanoyl]amino]-5-[(3S)-2-oxopiperidin-3-yl]pent-2-enoate
> <PUBCHEM_IUPAC_SYSTEMATIC_NAME>
ethyl (4S)-4-[[(2R,5S)-2-[(4-fluorophenyl)methyl]-6-methyl-5-[(5-methyl-1,2-oxazol-3-yl)carbonylamino]-4-oxidanylidene-heptanoyl]amino]-5-[(3S)-2-oxidanylidenepiperidin-3-yl]pent-2-enoate
> <PUBCHEM_IUPAC_TRADITIONAL_NAME>
(4S)-4-[[(2R,5S)-2-(4-fluorobenzyl)-4-keto-6-methyl-5-[(5-methylisoxazole-3-carbonyl)amino]heptanoyl]amino]-5-[(3S)-2-keto-3-piperidyl]pent-2-enoic acid ethyl ester
> <PUBCHEM_IUPAC_INCHI>
InChI=1S/C32H41FN4O7/c1-5-43-28(39)13-12-25(17-22-7-6-14-34-30(22)40)35-31(41)23(16-21-8-10-24(33)11-9-21)18-27(38)29(19(2)3)36-32(42)26-15-20(4)44-37-26/h8-13,15,19,22-23,25,29H,5-7,14,16-18H2,1-4H3,(H,34,40)(H,35,41)(H,36,42)/t22-,23+,25+,29-/m0/s1
> <PUBCHEM_IUPAC_INCHIKEY>
PRMCQSGWRSVXJB-PDPZDVJFSA-N
> <PUBCHEM_XLOGP3_AA>
3.4
> <PUBCHEM_EXACT_MASS>
612.29592782
> <PUBCHEM_MOLECULAR_FORMULA>
C32H41FN4O7
> <PUBCHEM_MOLECULAR_WEIGHT>
612.7
> <PUBCHEM_OPENEYE_CAN_SMILES>
CCOC(=O)C=CC(CC1CCCNC1=O)NC(=O)C(CC2=CC=C(C=C2)F)CC(=O)C(C(C)C)NC(=O)C3=NOC(=C3)C
> <PUBCHEM_OPENEYE_ISO_SMILES>
CCOC(=O)C=C[C@H](C[C@@H]1CCCNC1=O)NC(=O)[C@H](CC2=CC=C(C=C2)F)CC(=O)[C@H](C(C)C)NC(=O)C3=NOC(=C3)C
> <PUBCHEM_CACTVS_TPSA>
157
> <PUBCHEM_MONOISOTOPIC_WEIGHT>
612.29592782
> <PUBCHEM_TOTAL_CHARGE>
0
> <PUBCHEM_HEAVY_ATOM_COUNT>
44
> <PUBCHEM_ATOM_DEF_STEREO_COUNT>
4
> <PUBCHEM_ATOM_UDEF_STEREO_COUNT>
0
> <PUBCHEM_BOND_DEF_STEREO_COUNT>
0
> <PUBCHEM_BOND_UDEF_STEREO_COUNT>
1
> <PUBCHEM_ISOTOPIC_ATOM_COUNT>
0
> <PUBCHEM_COMPONENT_COUNT>
1
> <PUBCHEM_CACTVS_TAUTO_COUNT>
-1
> <PUBCHEM_COORDINATE_TYPE>
1
5
255
> <PUBCHEM_BONDANNOTATIONS>
16  10  6
23  11  5
12  39  8
13  14  6
20  21  6
25  31  1
28  32  8
28  33  8
32  36  8
33  37  8
36  38  8
37  38  8
39  40  8
40  41  8
8  12  8
8  41  8
$$$$
