502057
  -OEChem-10302200282D
 57 60  0     1  0  0  0  0  0999 V2000
    4.8745   -1.3570    0.0000 O   0  0  0  0  0  0  0  0  0  0  0  0
    4.8467    2.1790    0.0000 O   0  0  0  0  0  0  0  0  0  0  0  0
    2.3121   -0.4591    0.0000 O   0  0  0  0  0  0  0  0  0  0  0  0
    3.3499    1.3068    0.0000 O   0  0  0  0  0  0  0  0  0  0  0  0
    7.9159    2.1674    0.0000 O   0  0  0  0  0  0  0  0  0  0  0  0
    7.9228    0.4351    0.0000 O   0  0  0  0  0  0  0  0  0  0  0  0
    9.4506   -0.4591    0.0000 O   0  0  0  0  0  0  0  0  0  0  0  0
    3.8329   -1.3651    0.0000 C   0  0  0  0  0  0  0  0  0  0  0  0
    4.8813    0.4190    0.0000 C   0  0  0  0  0  0  0  0  0  0  0  0
    6.4021    3.0850    0.0000 C   0  0  1  0  0  0  0  0  0  0  0  0
    3.3121   -0.4630    0.0000 C   0  0  1  0  0  0  0  0  0  0  0  0
    3.8398    0.4351    0.0000 C   0  0  2  0  0  0  0  0  0  0  0  0
    6.9160    2.1790    0.0000 C   0  0  1  0  0  0  0  0  0  0  0  0
    6.3813    1.2850    0.0000 C   0  0  0  0  0  0  0  0  0  0  0  0
    5.3813    1.2850    0.0000 C   0  0  0  0  0  0  0  0  0  0  0  0
    5.3605    3.0850    0.0000 C   0  0  1  0  0  0  0  0  0  0  0  0
    5.3813   -0.4470    0.0000 C   0  0  0  0  0  0  0  0  0  0  0  0
    6.3813   -0.4470    0.0000 C   0  0  0  0  0  0  0  0  0  0  0  0
    6.8813    0.4190    0.0000 C   0  0  0  0  0  0  0  0  0  0  0  0
    2.9688   -1.8684    0.0000 C   0  0  0  0  0  0  0  0  0  0  0  0
    3.8367   -2.3650    0.0000 C   0  0  0  0  0  0  0  0  0  0  0  0
    6.9055    3.9491    0.0000 C   0  0  0  0  0  0  0  0  0  0  0  0
    6.8882   -1.3570    0.0000 C   0  0  0  0  0  0  0  0  0  0  0  0
    4.8572    3.9491    0.0000 C   0  0  0  0  0  0  0  0  0  0  0  0
    6.3782   -2.2172    0.0000 C   0  0  0  0  0  0  0  0  0  0  0  0
    7.9298   -1.3651    0.0000 C   0  0  0  0  0  0  0  0  0  0  0  0
    8.4506   -0.4630    0.0000 C   0  0  0  0  0  0  0  0  0  0  0  0
    6.8681   -3.0890    0.0000 C   0  0  0  0  0  0  0  0  0  0  0  0
    6.3582   -3.9491    0.0000 C   0  0  0  0  0  0  0  0  0  0  0  0
    6.0932    3.6226    0.0000 H   0  0  0  0  0  0  0  0  0  0  0  0
    3.0052    0.0758    0.0000 H   0  0  0  0  0  0  0  0  0  0  0  0
    4.1570    0.9678    0.0000 H   0  0  0  0  0  0  0  0  0  0  0  0
    7.2187    1.6379    0.0000 H   0  0  0  0  0  0  0  0  0  0  0  0
    4.7405    3.0815    0.0000 H   0  0  0  0  0  0  0  0  0  0  0  0
    2.6567   -1.3326    0.0000 H   0  0  0  0  0  0  0  0  0  0  0  0
    2.4330   -2.1804    0.0000 H   0  0  0  0  0  0  0  0  0  0  0  0
    3.2808   -2.4041    0.0000 H   0  0  0  0  0  0  0  0  0  0  0  0
    3.2167   -2.3674    0.0000 H   0  0  0  0  0  0  0  0  0  0  0  0
    3.8391   -2.9850    0.0000 H   0  0  0  0  0  0  0  0  0  0  0  0
    4.4567   -2.3626    0.0000 H   0  0  0  0  0  0  0  0  0  0  0  0
    7.4412    3.6371    0.0000 H   0  0  0  0  0  0  0  0  0  0  0  0
    7.2175    4.4849    0.0000 H   0  0  0  0  0  0  0  0  0  0  0  0
    6.3697    4.2612    0.0000 H   0  0  0  0  0  0  0  0  0  0  0  0
    5.3929    4.2612    0.0000 H   0  0  0  0  0  0  0  0  0  0  0  0
    4.5451    4.4849    0.0000 H   0  0  0  0  0  0  0  0  0  0  0  0
    4.3214    3.6371    0.0000 H   0  0  0  0  0  0  0  0  0  0  0  0
    2.0000   -0.9948    0.0000 H   0  0  0  0  0  0  0  0  0  0  0  0
    2.7299    1.3140    0.0000 H   0  0  0  0  0  0  0  0  0  0  0  0
    8.2321    2.7007    0.0000 H   0  0  0  0  0  0  0  0  0  0  0  0
    5.9079   -1.8132    0.0000 H   0  0  0  0  0  0  0  0  0  0  0  0
    5.8987   -2.6102    0.0000 H   0  0  0  0  0  0  0  0  0  0  0  0
    8.2377   -1.9032    0.0000 H   0  0  0  0  0  0  0  0  0  0  0  0
    7.3384   -3.4929    0.0000 H   0  0  0  0  0  0  0  0  0  0  0  0
    7.3477   -2.6959    0.0000 H   0  0  0  0  0  0  0  0  0  0  0  0
    5.8248   -3.6330    0.0000 H   0  0  0  0  0  0  0  0  0  0  0  0
    6.0420   -4.4824    0.0000 H   0  0  0  0  0  0  0  0  0  0  0  0
    6.8915   -4.2653    0.0000 H   0  0  0  0  0  0  0  0  0  0  0  0
  1  8  1  0  0  0  0
  1 17  1  0  0  0  0
  2 15  1  0  0  0  0
  2 16  1  0  0  0  0
 11  3  1  6  0  0  0
  3 47  1  0  0  0  0
 12  4  1  6  0  0  0
  4 48  1  0  0  0  0
 13  5  1  6  0  0  0
  5 49  1  0  0  0  0
  6 19  1  0  0  0  0
  6 27  1  0  0  0  0
  7 27  2  0  0  0  0
  8 11  1  0  0  0  0
  8 20  1  0  0  0  0
  8 21  1  0  0  0  0
  9 12  1  0  0  0  0
  9 15  1  0  0  0  0
  9 17  2  0  0  0  0
 10 13  1  0  0  0  0
 10 16  1  0  0  0  0
 10 22  1  1  0  0  0
 10 30  1  0  0  0  0
 11 12  1  0  0  0  0
 11 31  1  0  0  0  0
 12 32  1  0  0  0  0
 13 14  1  0  0  0  0
 13 33  1  0  0  0  0
 14 15  2  0  0  0  0
 14 19  1  0  0  0  0
 16 24  1  6  0  0  0
 16 34  1  0  0  0  0
 17 18  1  0  0  0  0
 18 19  2  0  0  0  0
 18 23  1  0  0  0  0
 20 35  1  0  0  0  0
 20 36  1  0  0  0  0
 20 37  1  0  0  0  0
 21 38  1  0  0  0  0
 21 39  1  0  0  0  0
 21 40  1  0  0  0  0
 22 41  1  0  0  0  0
 22 42  1  0  0  0  0
 22 43  1  0  0  0  0
 23 25  1  0  0  0  0
 23 26  2  0  0  0  0
 24 44  1  0  0  0  0
 24 45  1  0  0  0  0
 24 46  1  0  0  0  0
 25 28  1  0  0  0  0
 25 50  1  0  0  0  0
 25 51  1  0  0  0  0
 26 27  1  0  0  0  0
 26 52  1  0  0  0  0
 28 29  1  0  0  0  0
 28 53  1  0  0  0  0
 28 54  1  0  0  0  0
 29 55  1  0  0  0  0
 29 56  1  0  0  0  0
 29 57  1  0  0  0  0
M  END
> <PUBCHEM_COMPOUND_CID>
502057
> <PUBCHEM_COMPOUND_CANONICALIZED>
1
> <PUBCHEM_CACTVS_COMPLEXITY>
689
> <PUBCHEM_CACTVS_HBOND_ACCEPTOR>
7
> <PUBCHEM_CACTVS_HBOND_DONOR>
3
> <PUBCHEM_CACTVS_ROTATABLE_BOND>
2
> <PUBCHEM_CACTVS_SUBSKEYS>
AAADceB4OAAAAAAAAAAAAAAAAAAAAAAAAAA0SIEAAAAAAACRAAAAGgAACAAADVSgmAICDoAABgCIAiDSCAACCAAgIAAAiAAECMgNNyKEMRqCeiClwBULuQfA4PwOIAACCAAIAABAAAQQABAAAAAAAAAAAA==
> <PUBCHEM_IUPAC_OPENEYE_NAME>
(11R,12R,16R,17S,18S)-11,12,18-trihydroxy-10,10,16,17-tetramethyl-6-propyl-3,9,15-trioxatetracyclo[12.4.0.02,7.08,13]octadeca-1(14),2(7),5,8(13)-tetraen-4-one
> <PUBCHEM_IUPAC_CAS_NAME>
(11R,12R,16R,17S,18S)-11,12,18-trihydroxy-10,10,16,17-tetramethyl-6-propyl-3,9,15-trioxatetracyclo[12.4.0.02,7.08,13]octadeca-1(14),2(7),5,8(13)-tetraen-4-one
> <PUBCHEM_IUPAC_NAME_MARKUP>
(11<I>R</I>,12<I>R</I>,16<I>R</I>,17<I>S</I>,18<I>S</I>)-11,12,18-trihydroxy-10,10,16,17-tetramethyl-6-propyl-3,9,15-trioxatetracyclo[12.4.0.0<SUP>2,7</SUP>.0<SUP>8,13</SUP>]octadeca-1(14),2(7),5,8(13)-tetraen-4-one
> <PUBCHEM_IUPAC_NAME>
(11R,12R,16R,17S,18S)-11,12,18-trihydroxy-10,10,16,17-tetramethyl-6-propyl-3,9,15-trioxatetracyclo[12.4.0.02,7.08,13]octadeca-1(14),2(7),5,8(13)-tetraen-4-one
> <PUBCHEM_IUPAC_SYSTEMATIC_NAME>
(11R,12R,16R,17S,18S)-10,10,16,17-tetramethyl-11,12,18-tris(oxidanyl)-6-propyl-3,9,15-trioxatetracyclo[12.4.0.02,7.08,13]octadeca-1(14),2(7),5,8(13)-tetraen-4-one
> <PUBCHEM_IUPAC_TRADITIONAL_NAME>
(11R,12R,16R,17S,18S)-11,12,18-trihydroxy-10,10,16,17-tetramethyl-6-propyl-3,9,15-trioxatetracyclo[12.4.0.02,7.08,13]octadeca-1(14),2(7),5,8(13)-tetraen-4-one
> <PUBCHEM_IUPAC_INCHI>
InChI=1S/C22H28O7/c1-6-7-11-8-12(23)28-18-13(11)20-15(17(25)21(26)22(4,5)29-20)19-14(18)16(24)9(2)10(3)27-19/h8-10,16-17,21,24-26H,6-7H2,1-5H3/t9-,10-,16+,17-,21-/m1/s1
> <PUBCHEM_IUPAC_INCHIKEY>
GIHXLUNIOJIQJL-DNDUMNFCSA-N
> <PUBCHEM_XLOGP3_AA>
1.8
> <PUBCHEM_EXACT_MASS>
404.18350323
> <PUBCHEM_MOLECULAR_FORMULA>
C22H28O7
> <PUBCHEM_MOLECULAR_WEIGHT>
404.5
> <PUBCHEM_OPENEYE_CAN_SMILES>
CCCC1=CC(=O)OC2=C1C3=C(C(C(C(O3)(C)C)O)O)C4=C2C(C(C(O4)C)C)O
> <PUBCHEM_OPENEYE_ISO_SMILES>
CCCC1=CC(=O)OC2=C1C3=C([C@H]([C@H](C(O3)(C)C)O)O)C4=C2[C@H]([C@@H]([C@H](O4)C)C)O
> <PUBCHEM_CACTVS_TPSA>
105
> <PUBCHEM_MONOISOTOPIC_WEIGHT>
404.18350323
> <PUBCHEM_TOTAL_CHARGE>
0
> <PUBCHEM_HEAVY_ATOM_COUNT>
29
> <PUBCHEM_ATOM_DEF_STEREO_COUNT>
5
> <PUBCHEM_ATOM_UDEF_STEREO_COUNT>
0
> <PUBCHEM_BOND_DEF_STEREO_COUNT>
0
> <PUBCHEM_BOND_UDEF_STEREO_COUNT>
0
> <PUBCHEM_ISOTOPIC_ATOM_COUNT>
0
> <PUBCHEM_COMPONENT_COUNT>
1
> <PUBCHEM_CACTVS_TAUTO_COUNT>
-1
> <PUBCHEM_COORDINATE_TYPE>
1
5
255
> <PUBCHEM_BONDANNOTATIONS>
10  22  5
14  15  8
14  19  8
16  24  6
17  18  8
18  19  8
18  23  8
23  26  8
26  27  8
11  3  6
12  4  6
13  5  6
6  19  8
6  27  8
9  15  8
9  17  8
$$$$
