502073
  -OEChem-10302200282D
 51 55  0     1  0  0  0  0  0999 V2000
    5.8819    1.6103    0.0000 F   0  0  0  0  0  0  0  0  0  0  0  0
    7.6139   -1.3897    0.0000 O   0  0  0  0  0  0  0  0  0  0  0  0
    9.3623    2.6449    0.0000 O   0  0  0  0  0  0  0  0  0  0  0  0
   12.0120    1.1378    0.0000 O   0  0  0  0  0  0  0  0  0  0  0  0
   11.1402    2.6345    0.0000 O   0  0  0  0  0  0  0  0  0  0  0  0
    9.3739   -0.4243    0.0000 N   0  0  0  0  0  0  0  0  0  0  0  0
    2.6200   -0.8897    0.0000 N   0  0  0  0  0  0  0  0  0  0  0  0
    9.3623   -1.4243    0.0000 C   0  0  0  0  0  0  0  0  0  0  0  0
    8.8524   -2.2844    0.0000 C   0  0  0  0  0  0  0  0  0  0  0  0
    9.8523   -2.2960    0.0000 C   0  0  0  0  0  0  0  0  0  0  0  0
    8.4800    0.1103    0.0000 C   0  0  0  0  0  0  0  0  0  0  0  0
   10.2800    0.0895    0.0000 C   0  0  0  0  0  0  0  0  0  0  0  0
    8.4800    1.1103    0.0000 C   0  0  0  0  0  0  0  0  0  0  0  0
    7.6139   -0.3897    0.0000 C   0  0  0  0  0  0  0  0  0  0  0  0
   10.2800    1.1311    0.0000 C   0  0  0  0  0  0  0  0  0  0  0  0
    6.7479    0.1103    0.0000 C   0  0  0  0  0  0  0  0  0  0  0  0
    9.3739    1.6450    0.0000 C   0  0  0  0  0  0  0  0  0  0  0  0
    3.2036   -1.6944    0.0000 C   0  0  3  0  0  0  0  0  0  0  0  0
    4.1498   -1.3897    0.0000 C   0  0  0  0  0  0  0  0  0  0  0  0
    4.1498   -0.3897    0.0000 C   0  0  0  0  0  0  0  0  0  0  0  0
    5.8819   -0.3897    0.0000 C   0  0  0  0  0  0  0  0  0  0  0  0
    7.6139    1.6103    0.0000 C   0  0  0  0  0  0  0  0  0  0  0  0
    3.2036   -0.0849    0.0000 C   0  0  0  0  0  0  0  0  0  0  0  0
    6.7479    1.1103    0.0000 C   0  0  0  0  0  0  0  0  0  0  0  0
    5.0158    0.1103    0.0000 C   0  0  0  0  0  0  0  0  0  0  0  0
    5.0158   -1.8897    0.0000 C   0  0  0  0  0  0  0  0  0  0  0  0
    5.8819   -1.3897    0.0000 C   0  0  0  0  0  0  0  0  0  0  0  0
    2.8930   -2.6449    0.0000 C   0  0  0  0  0  0  0  0  0  0  0  0
   11.1441    1.6345    0.0000 C   0  0  0  0  0  0  0  0  0  0  0  0
    6.7479   -1.8897    0.0000 C   0  0  0  0  0  0  0  0  0  0  0  0
    8.7654   -1.2569    0.0000 H   0  0  0  0  0  0  0  0  0  0  0  0
    8.2722   -2.0657    0.0000 H   0  0  0  0  0  0  0  0  0  0  0  0
    8.7376   -2.8938    0.0000 H   0  0  0  0  0  0  0  0  0  0  0  0
    9.9529   -2.9078    0.0000 H   0  0  0  0  0  0  0  0  0  0  0  0
   10.4373   -2.0907    0.0000 H   0  0  0  0  0  0  0  0  0  0  0  0
   10.8157   -0.2226    0.0000 H   0  0  0  0  0  0  0  0  0  0  0  0
    2.5911   -1.7906    0.0000 H   0  0  0  0  0  0  0  0  0  0  0  0
    7.6139    2.2303    0.0000 H   0  0  0  0  0  0  0  0  0  0  0  0
    3.4546    0.4820    0.0000 H   0  0  0  0  0  0  0  0  0  0  0  0
    2.6662    0.2243    0.0000 H   0  0  0  0  0  0  0  0  0  0  0  0
    2.0000   -0.8897    0.0000 H   0  0  0  0  0  0  0  0  0  0  0  0
    5.0158    0.7303    0.0000 H   0  0  0  0  0  0  0  0  0  0  0  0
    5.0158   -2.5097    0.0000 H   0  0  0  0  0  0  0  0  0  0  0  0
    6.4188   -1.6997    0.0000 H   0  0  0  0  0  0  0  0  0  0  0  0
    2.3036   -2.4523    0.0000 H   0  0  0  0  0  0  0  0  0  0  0  0
    2.7003   -3.2342    0.0000 H   0  0  0  0  0  0  0  0  0  0  0  0
    3.4823   -2.8375    0.0000 H   0  0  0  0  0  0  0  0  0  0  0  0
    6.4379   -1.3527    0.0000 H   0  0  0  0  0  0  0  0  0  0  0  0
    6.2110   -2.1997    0.0000 H   0  0  0  0  0  0  0  0  0  0  0  0
    7.0579   -2.4266    0.0000 H   0  0  0  0  0  0  0  0  0  0  0  0
   12.5477    1.4499    0.0000 H   0  0  0  0  0  0  0  0  0  0  0  0
  1 24  1  0  0  0  0
  2 14  1  0  0  0  0
  2 30  1  0  0  0  0
  3 17  2  0  0  0  0
  4 29  1  0  0  0  0
  4 51  1  0  0  0  0
  5 29  2  0  0  0  0
  6  8  1  0  0  0  0
  6 11  1  0  0  0  0
  6 12  1  0  0  0  0
  7 18  1  0  0  0  0
  7 23  1  0  0  0  0
  7 41  1  0  0  0  0
  8  9  1  0  0  0  0
  8 10  1  0  0  0  0
  8 31  1  0  0  0  0
  9 10  1  0  0  0  0
  9 32  1  0  0  0  0
  9 33  1  0  0  0  0
 10 34  1  0  0  0  0
 10 35  1  0  0  0  0
 11 13  1  0  0  0  0
 11 14  2  0  0  0  0
 12 15  2  0  0  0  0
 12 36  1  0  0  0  0
 13 17  1  0  0  0  0
 13 22  2  0  0  0  0
 14 16  1  0  0  0  0
 15 17  1  0  0  0  0
 15 29  1  0  0  0  0
 16 21  1  0  0  0  0
 16 24  2  0  0  0  0
 18 19  1  0  0  0  0
 18 28  1  0  0  0  0
 18 37  1  0  0  0  0
 19 20  2  0  0  0  0
 19 26  1  0  0  0  0
 20 23  1  0  0  0  0
 20 25  1  0  0  0  0
 21 25  2  0  0  0  0
 21 27  1  0  0  0  0
 22 24  1  0  0  0  0
 22 38  1  0  0  0  0
 23 39  1  0  0  0  0
 23 40  1  0  0  0  0
 25 42  1  0  0  0  0
 26 27  2  0  0  0  0
 26 43  1  0  0  0  0
 27 44  1  0  0  0  0
 28 45  1  0  0  0  0
 28 46  1  0  0  0  0
 28 47  1  0  0  0  0
 30 48  1  0  0  0  0
 30 49  1  0  0  0  0
 30 50  1  0  0  0  0
M  END
> <PUBCHEM_COMPOUND_CID>
502073
> <PUBCHEM_COMPOUND_CANONICALIZED>
1
> <PUBCHEM_CACTVS_COMPLEXITY>
754
> <PUBCHEM_CACTVS_HBOND_ACCEPTOR>
7
> <PUBCHEM_CACTVS_HBOND_DONOR>
2
> <PUBCHEM_CACTVS_ROTATABLE_BOND>
4
> <PUBCHEM_CACTVS_SUBSKEYS>
AAADceB7OQAAAAAAAAAAAAAAGAAAAWAAAAAwYIAAAAAAAFiBQAAAHwAQCAAADCzBmA4yzoPABgCIAqTWSACCCAAlIAAIiIENTMgOJj7MtZuFcahk8BHY+cea2fOewAADQAAaEACAAAaAADQgAAAAAAAAAA==
> <PUBCHEM_IUPAC_OPENEYE_NAME>
1-cyclopropyl-6-fluoro-8-methoxy-7-(1-methylisoindolin-5-yl)-4-oxo-quinoline-3-carboxylic acid
> <PUBCHEM_IUPAC_CAS_NAME>
1-cyclopropyl-6-fluoro-8-methoxy-7-(1-methyl-2,3-dihydro-1H-isoindol-5-yl)-4-oxo-3-quinolinecarboxylic acid
> <PUBCHEM_IUPAC_NAME_MARKUP>
1-cyclopropyl-6-fluoro-8-methoxy-7-(1-methyl-2,3-dihydro-1<I>H</I>-isoindol-5-yl)-4-oxoquinoline-3-carboxylic acid
> <PUBCHEM_IUPAC_NAME>
1-cyclopropyl-6-fluoro-8-methoxy-7-(1-methyl-2,3-dihydro-1H-isoindol-5-yl)-4-oxoquinoline-3-carboxylic acid
> <PUBCHEM_IUPAC_SYSTEMATIC_NAME>
1-cyclopropyl-6-fluoranyl-8-methoxy-7-(1-methyl-2,3-dihydro-1H-isoindol-5-yl)-4-oxidanylidene-quinoline-3-carboxylic acid
> <PUBCHEM_IUPAC_TRADITIONAL_NAME>
1-cyclopropyl-6-fluoro-4-keto-8-methoxy-7-(1-methylisoindolin-5-yl)quinoline-3-carboxylic acid
> <PUBCHEM_IUPAC_INCHI>
InChI=1S/C23H21FN2O4/c1-11-15-6-3-12(7-13(15)9-25-11)19-18(24)8-16-20(22(19)30-2)26(14-4-5-14)10-17(21(16)27)23(28)29/h3,6-8,10-11,14,25H,4-5,9H2,1-2H3,(H,28,29)
> <PUBCHEM_IUPAC_INCHIKEY>
CIDYCWZDYUZBOA-UHFFFAOYSA-N
> <PUBCHEM_XLOGP3_AA>
1.3
> <PUBCHEM_EXACT_MASS>
408.14853532
> <PUBCHEM_MOLECULAR_FORMULA>
C23H21FN2O4
> <PUBCHEM_MOLECULAR_WEIGHT>
408.4
> <PUBCHEM_OPENEYE_CAN_SMILES>
CC1C2=C(CN1)C=C(C=C2)C3=C(C=C4C(=C3OC)N(C=C(C4=O)C(=O)O)C5CC5)F
> <PUBCHEM_OPENEYE_ISO_SMILES>
CC1C2=C(CN1)C=C(C=C2)C3=C(C=C4C(=C3OC)N(C=C(C4=O)C(=O)O)C5CC5)F
> <PUBCHEM_CACTVS_TPSA>
78.9
> <PUBCHEM_MONOISOTOPIC_WEIGHT>
408.14853532
> <PUBCHEM_TOTAL_CHARGE>
0
> <PUBCHEM_HEAVY_ATOM_COUNT>
30
> <PUBCHEM_ATOM_DEF_STEREO_COUNT>
0
> <PUBCHEM_ATOM_UDEF_STEREO_COUNT>
1
> <PUBCHEM_BOND_DEF_STEREO_COUNT>
0
> <PUBCHEM_BOND_UDEF_STEREO_COUNT>
0
> <PUBCHEM_ISOTOPIC_ATOM_COUNT>
0
> <PUBCHEM_COMPONENT_COUNT>
1
> <PUBCHEM_CACTVS_TAUTO_COUNT>
-1
> <PUBCHEM_COORDINATE_TYPE>
1
5
255
> <PUBCHEM_BONDANNOTATIONS>
11  13  8
11  14  8
12  15  8
13  17  8
13  22  8
14  16  8
15  17  8
16  24  8
18  28  3
19  20  8
19  26  8
20  25  8
21  25  8
21  27  8
22  24  8
26  27  8
6  11  8
6  12  8
$$$$
