502190
  -OEChem-10302200282D
 37 39  0     1  0  0  0  0  0999 V2000
    2.0000   -2.9400    0.0000 O   0  0  0  0  0  0  0  0  0  0  0  0
    2.8660    3.5600    0.0000 O   0  5  0  0  0  0  0  0  0  0  0  0
    4.5981    3.5600    0.0000 O   0  0  0  0  0  0  0  0  0  0  0  0
    4.5981   -1.4400    0.0000 N   0  0  0  0  0  0  0  0  0  0  0  0
    3.7320   -2.9400    0.0000 N   0  0  0  0  0  0  0  0  0  0  0  0
    5.5443   -1.1353    0.0000 N   0  0  0  0  0  0  0  0  0  0  0  0
    5.5443   -2.7447    0.0000 N   0  0  0  0  0  0  0  0  0  0  0  0
    3.7320    3.0600    0.0000 N   0  3  0  0  0  0  0  0  0  0  0  0
    3.7320   -0.9400    0.0000 C   0  0  3  0  0  0  0  0  0  0  0  0
    2.8660   -1.4400    0.0000 C   0  0  0  0  0  0  0  0  0  0  0  0
    3.7320    0.0600    0.0000 C   0  0  0  0  0  0  0  0  0  0  0  0
    4.5981   -2.4400    0.0000 C   0  0  0  0  0  0  0  0  0  0  0  0
    2.8660   -2.4400    0.0000 C   0  0  0  0  0  0  0  0  0  0  0  0
    6.1279   -1.9400    0.0000 C   0  0  0  0  0  0  0  0  0  0  0  0
    7.1279   -1.9400    0.0000 C   0  0  0  0  0  0  0  0  0  0  0  0
    2.8660    0.5600    0.0000 C   0  0  0  0  0  0  0  0  0  0  0  0
    4.5981    0.5600    0.0000 C   0  0  0  0  0  0  0  0  0  0  0  0
    7.6279   -2.8060    0.0000 C   0  0  0  0  0  0  0  0  0  0  0  0
    2.8660    1.5600    0.0000 C   0  0  0  0  0  0  0  0  0  0  0  0
    4.5981    1.5600    0.0000 C   0  0  0  0  0  0  0  0  0  0  0  0
    3.7320    2.0600    0.0000 C   0  0  0  0  0  0  0  0  0  0  0  0
    8.6279   -2.8060    0.0000 C   0  0  0  0  0  0  0  0  0  0  0  0
    3.1951   -0.6300    0.0000 H   0  0  0  0  0  0  0  0  0  0  0  0
    2.6540   -0.8574    0.0000 H   0  0  0  0  0  0  0  0  0  0  0  0
    2.2554   -1.5477    0.0000 H   0  0  0  0  0  0  0  0  0  0  0  0
    3.7320   -3.5600    0.0000 H   0  0  0  0  0  0  0  0  0  0  0  0
    7.7105   -1.7280    0.0000 H   0  0  0  0  0  0  0  0  0  0  0  0
    7.0202   -1.3294    0.0000 H   0  0  0  0  0  0  0  0  0  0  0  0
    2.3291    0.2500    0.0000 H   0  0  0  0  0  0  0  0  0  0  0  0
    5.1350    0.2500    0.0000 H   0  0  0  0  0  0  0  0  0  0  0  0
    7.0453   -3.0181    0.0000 H   0  0  0  0  0  0  0  0  0  0  0  0
    7.7356   -3.4166    0.0000 H   0  0  0  0  0  0  0  0  0  0  0  0
    2.3291    1.8700    0.0000 H   0  0  0  0  0  0  0  0  0  0  0  0
    5.1350    1.8700    0.0000 H   0  0  0  0  0  0  0  0  0  0  0  0
    8.6279   -3.4260    0.0000 H   0  0  0  0  0  0  0  0  0  0  0  0
    9.2479   -2.8060    0.0000 H   0  0  0  0  0  0  0  0  0  0  0  0
    8.6279   -2.1860    0.0000 H   0  0  0  0  0  0  0  0  0  0  0  0
  1 13  2  0  0  0  0
  2  8  1  0  0  0  0
  3  8  2  0  0  0  0
  4  6  1  0  0  0  0
  4  9  1  0  0  0  0
  4 12  1  0  0  0  0
  5 12  1  0  0  0  0
  5 13  1  0  0  0  0
  5 26  1  0  0  0  0
  6 14  2  0  0  0  0
  7 12  2  0  0  0  0
  7 14  1  0  0  0  0
  8 21  1  0  0  0  0
  9 10  1  0  0  0  0
  9 11  1  0  0  0  0
  9 23  1  0  0  0  0
 10 13  1  0  0  0  0
 10 24  1  0  0  0  0
 10 25  1  0  0  0  0
 11 16  2  0  0  0  0
 11 17  1  0  0  0  0
 14 15  1  0  0  0  0
 15 18  1  0  0  0  0
 15 27  1  0  0  0  0
 15 28  1  0  0  0  0
 16 19  1  0  0  0  0
 16 29  1  0  0  0  0
 17 20  2  0  0  0  0
 17 30  1  0  0  0  0
 18 22  1  0  0  0  0
 18 31  1  0  0  0  0
 18 32  1  0  0  0  0
 19 21  2  0  0  0  0
 19 33  1  0  0  0  0
 20 21  1  0  0  0  0
 20 34  1  0  0  0  0
 22 35  1  0  0  0  0
 22 36  1  0  0  0  0
 22 37  1  0  0  0  0
M  CHG  2   2  -1   8   1
M  END
> <PUBCHEM_COMPOUND_CID>
502190
> <PUBCHEM_COMPOUND_CANONICALIZED>
1
> <PUBCHEM_CACTVS_COMPLEXITY>
433
> <PUBCHEM_CACTVS_HBOND_ACCEPTOR>
5
> <PUBCHEM_CACTVS_HBOND_DONOR>
1
> <PUBCHEM_CACTVS_ROTATABLE_BOND>
3
> <PUBCHEM_CACTVS_SUBSKEYS>
AAADccBzsAAAAAAAAAAAAAAAAAAAAWAAAAA8QAAAAAAAAFgBwAAAHgAcAAAADCjBmwQz0IbYUACrAidydwCSgAsggqA9yAE4ZIqIKDqA2ZGEIAh4mQIIyAcYiICOCAAAAAAAAAAQAAAAAAAAAAAAAAAAAA==
> <PUBCHEM_IUPAC_OPENEYE_NAME>
7-(4-nitrophenyl)-2-propyl-6,7-dihydro-4H-[1,2,4]triazolo[1,5-a]pyrimidin-5-one
> <PUBCHEM_IUPAC_CAS_NAME>
7-(4-nitrophenyl)-2-propyl-6,7-dihydro-4H-[1,2,4]triazolo[1,5-a]pyrimidin-5-one
> <PUBCHEM_IUPAC_NAME_MARKUP>
7-(4-nitrophenyl)-2-propyl-6,7-dihydro-4<I>H</I>-[1,2,4]triazolo[1,5-a]pyrimidin-5-one
> <PUBCHEM_IUPAC_NAME>
7-(4-nitrophenyl)-2-propyl-6,7-dihydro-4H-[1,2,4]triazolo[1,5-a]pyrimidin-5-one
> <PUBCHEM_IUPAC_SYSTEMATIC_NAME>
7-(4-nitrophenyl)-2-propyl-6,7-dihydro-4H-[1,2,4]triazolo[1,5-a]pyrimidin-5-one
> <PUBCHEM_IUPAC_TRADITIONAL_NAME>
7-(4-nitrophenyl)-2-propyl-6,7-dihydro-4H-[1,2,4]triazolo[1,5-a]pyrimidin-5-one
> <PUBCHEM_IUPAC_INCHI>
InChI=1S/C14H15N5O3/c1-2-3-12-15-14-16-13(20)8-11(18(14)17-12)9-4-6-10(7-5-9)19(21)22/h4-7,11H,2-3,8H2,1H3,(H,15,16,17,20)
> <PUBCHEM_IUPAC_INCHIKEY>
PTAAZWZJYLNFOR-UHFFFAOYSA-N
> <PUBCHEM_XLOGP3_AA>
1.9
> <PUBCHEM_EXACT_MASS>
301.11748936
> <PUBCHEM_MOLECULAR_FORMULA>
C14H15N5O3
> <PUBCHEM_MOLECULAR_WEIGHT>
301.30
> <PUBCHEM_OPENEYE_CAN_SMILES>
CCCC1=NN2C(CC(=O)NC2=N1)C3=CC=C(C=C3)[N+](=O)[O-]
> <PUBCHEM_OPENEYE_ISO_SMILES>
CCCC1=NN2C(CC(=O)NC2=N1)C3=CC=C(C=C3)[N+](=O)[O-]
> <PUBCHEM_CACTVS_TPSA>
106
> <PUBCHEM_MONOISOTOPIC_WEIGHT>
301.11748936
> <PUBCHEM_TOTAL_CHARGE>
0
> <PUBCHEM_HEAVY_ATOM_COUNT>
22
> <PUBCHEM_ATOM_DEF_STEREO_COUNT>
0
> <PUBCHEM_ATOM_UDEF_STEREO_COUNT>
1
> <PUBCHEM_BOND_DEF_STEREO_COUNT>
0
> <PUBCHEM_BOND_UDEF_STEREO_COUNT>
0
> <PUBCHEM_ISOTOPIC_ATOM_COUNT>
0
> <PUBCHEM_COMPONENT_COUNT>
1
> <PUBCHEM_CACTVS_TAUTO_COUNT>
-1
> <PUBCHEM_COORDINATE_TYPE>
1
5
255
> <PUBCHEM_BONDANNOTATIONS>
11  16  8
11  17  8
16  19  8
17  20  8
19  21  8
20  21  8
4  12  8
4  6  8
6  14  8
7  12  8
7  14  8
9  11  3
$$$$
