502187
  -OEChem-10302200282D
 45 47  0     1  0  0  0  0  0999 V2000
    6.3630   -4.9883    0.0000 S   0  0  0  0  0  0  0  0  0  0  0  0
    4.5411    1.9394    0.0000 O   0  0  0  0  0  0  0  0  0  0  0  0
    4.4131   -0.7342    0.0000 O   0  0  0  0  0  0  0  0  0  0  0  0
    5.4641    3.5272    0.0000 O   0  0  0  0  0  0  0  0  0  0  0  0
    3.7320    6.5272    0.0000 O   0  0  0  0  0  0  0  0  0  0  0  0
    5.9954   -1.4387    0.0000 O   0  0  0  0  0  0  0  0  0  0  0  0
    3.7320    3.5272    0.0000 N   0  0  0  0  0  0  0  0  0  0  0  0
    4.5981    5.0272    0.0000 N   0  0  0  0  0  0  0  0  0  0  0  0
    4.5942   -2.4568    0.0000 N   0  0  0  0  0  0  0  0  0  0  0  0
    3.7320    2.5272    0.0000 C   0  0  1  0  0  0  0  0  0  0  0  0
    4.2320    0.9884    0.0000 C   0  0  1  0  0  0  0  0  0  0  0  0
    2.9230    1.9394    0.0000 C   0  0  0  0  0  0  0  0  0  0  0  0
    3.2320    0.9884    0.0000 C   0  0  0  0  0  0  0  0  0  0  0  0
    4.8198    0.1793    0.0000 C   0  0  0  0  0  0  0  0  0  0  0  0
    2.8660    4.0272    0.0000 C   0  0  0  0  0  0  0  0  0  0  0  0
    4.5981    4.0272    0.0000 C   0  0  0  0  0  0  0  0  0  0  0  0
    2.8660    5.0272    0.0000 C   0  0  0  0  0  0  0  0  0  0  0  0
    3.7320    5.5272    0.0000 C   0  0  0  0  0  0  0  0  0  0  0  0
    5.1819   -3.2658    0.0000 C   0  0  0  0  0  0  0  0  0  0  0  0
    4.7752   -4.1793    0.0000 C   0  0  0  0  0  0  0  0  0  0  0  0
    2.0000    5.5272    0.0000 C   0  0  0  0  0  0  0  0  0  0  0  0
    5.0009   -1.5432    0.0000 C   0  0  0  0  0  0  0  0  0  0  0  0
    5.3630   -4.9883    0.0000 C   0  0  0  0  0  0  0  0  0  0  0  0
    5.0540   -5.9394    0.0000 C   0  0  0  0  0  0  0  0  0  0  0  0
    5.8630   -6.5272    0.0000 C   0  0  0  0  0  0  0  0  0  0  0  0
    6.6720   -5.9394    0.0000 C   0  0  0  0  0  0  0  0  0  0  0  0
    4.2845    2.8087    0.0000 H   0  0  0  0  0  0  0  0  0  0  0  0
    4.8444    1.0853    0.0000 H   0  0  0  0  0  0  0  0  0  0  0  0
    2.3334    2.1310    0.0000 H   0  0  0  0  0  0  0  0  0  0  0  0
    2.8676    0.4868    0.0000 H   0  0  0  0  0  0  0  0  0  0  0  0
    5.3338   -0.1674    0.0000 H   0  0  0  0  0  0  0  0  0  0  0  0
    5.2505    0.6253    0.0000 H   0  0  0  0  0  0  0  0  0  0  0  0
    2.3291    3.7172    0.0000 H   0  0  0  0  0  0  0  0  0  0  0  0
    5.1350    5.3372    0.0000 H   0  0  0  0  0  0  0  0  0  0  0  0
    5.6959   -3.6125    0.0000 H   0  0  0  0  0  0  0  0  0  0  0  0
    5.6126   -2.8198    0.0000 H   0  0  0  0  0  0  0  0  0  0  0  0
    4.2612   -3.8326    0.0000 H   0  0  0  0  0  0  0  0  0  0  0  0
    4.3445   -4.6253    0.0000 H   0  0  0  0  0  0  0  0  0  0  0  0
    2.3100    6.0641    0.0000 H   0  0  0  0  0  0  0  0  0  0  0  0
    1.4631    5.8372    0.0000 H   0  0  0  0  0  0  0  0  0  0  0  0
    1.6900    4.9903    0.0000 H   0  0  0  0  0  0  0  0  0  0  0  0
    3.9775   -2.5216    0.0000 H   0  0  0  0  0  0  0  0  0  0  0  0
    4.4643   -6.1310    0.0000 H   0  0  0  0  0  0  0  0  0  0  0  0
    5.8630   -7.1472    0.0000 H   0  0  0  0  0  0  0  0  0  0  0  0
    7.2616   -6.1310    0.0000 H   0  0  0  0  0  0  0  0  0  0  0  0
  1 23  1  0  0  0  0
  1 26  1  0  0  0  0
  2 10  1  0  0  0  0
  2 11  1  0  0  0  0
  3 14  1  0  0  0  0
  3 22  1  0  0  0  0
  4 16  2  0  0  0  0
  5 18  2  0  0  0  0
  6 22  2  0  0  0  0
 10  7  1  6  0  0  0
  7 15  1  0  0  0  0
  7 16  1  0  0  0  0
  8 16  1  0  0  0  0
  8 18  1  0  0  0  0
  8 34  1  0  0  0  0
  9 19  1  0  0  0  0
  9 22  1  0  0  0  0
  9 42  1  0  0  0  0
 10 12  1  0  0  0  0
 10 27  1  0  0  0  0
 11 13  1  0  0  0  0
 11 14  1  6  0  0  0
 11 28  1  0  0  0  0
 12 13  2  0  0  0  0
 12 29  1  0  0  0  0
 13 30  1  0  0  0  0
 14 31  1  0  0  0  0
 14 32  1  0  0  0  0
 15 17  2  0  0  0  0
 15 33  1  0  0  0  0
 17 18  1  0  0  0  0
 17 21  1  0  0  0  0
 19 20  1  0  0  0  0
 19 35  1  0  0  0  0
 19 36  1  0  0  0  0
 20 23  1  0  0  0  0
 20 37  1  0  0  0  0
 20 38  1  0  0  0  0
 21 39  1  0  0  0  0
 21 40  1  0  0  0  0
 21 41  1  0  0  0  0
 23 24  2  0  0  0  0
 24 25  1  0  0  0  0
 24 43  1  0  0  0  0
 25 26  2  0  0  0  0
 25 44  1  0  0  0  0
 26 45  1  0  0  0  0
M  END
> <PUBCHEM_COMPOUND_CID>
502187
> <PUBCHEM_COMPOUND_CANONICALIZED>
1
> <PUBCHEM_CACTVS_COMPLEXITY>
636
> <PUBCHEM_CACTVS_HBOND_ACCEPTOR>
6
> <PUBCHEM_CACTVS_HBOND_DONOR>
2
> <PUBCHEM_CACTVS_ROTATABLE_BOND>
7
> <PUBCHEM_CACTVS_SUBSKEYS>
AAADceB7OABAAAAAAAAAAAAAAAAAASIAAAAgAAAAAAAAAAABgAAAHgQQAAAADBTl0AazCYPABAiMAiFWWACDAIAgCBBIiJkIAMmJJCKgsRGOEAAo1yIqqMcQAAAAAAAAAAAAAAAAAAAAAAAAAAAAAAAAAA==
> <PUBCHEM_IUPAC_OPENEYE_NAME>
[(2S,5R)-5-(5-methyl-2,4-dioxo-pyrimidin-1-yl)-2,5-dihydrofuran-2-yl]methyl N-[2-(2-thienyl)ethyl]carbamate
> <PUBCHEM_IUPAC_CAS_NAME>
N-(2-thiophen-2-ylethyl)carbamic acid [(2S,5R)-5-(5-methyl-2,4-dioxo-1-pyrimidinyl)-2,5-dihydrofuran-2-yl]methyl ester
> <PUBCHEM_IUPAC_NAME_MARKUP>
[(2<I>S</I>,5<I>R</I>)-5-(5-methyl-2,4-dioxopyrimidin-1-yl)-2,5-dihydrofuran-2-yl]methyl <I>N</I>-(2-thiophen-2-ylethyl)carbamate
> <PUBCHEM_IUPAC_NAME>
[(2S,5R)-5-(5-methyl-2,4-dioxopyrimidin-1-yl)-2,5-dihydrofuran-2-yl]methyl N-(2-thiophen-2-ylethyl)carbamate
> <PUBCHEM_IUPAC_SYSTEMATIC_NAME>
[(2S,5R)-5-[5-methyl-2,4-bis(oxidanylidene)pyrimidin-1-yl]-2,5-dihydrofuran-2-yl]methyl N-(2-thiophen-2-ylethyl)carbamate
> <PUBCHEM_IUPAC_TRADITIONAL_NAME>
N-[2-(2-thienyl)ethyl]carbamic acid [(2S,5R)-5-(2,4-diketo-5-methyl-pyrimidin-1-yl)-2,5-dihydrofuran-2-yl]methyl ester
> <PUBCHEM_IUPAC_INCHI>
InChI=1S/C17H19N3O5S/c1-11-9-20(16(22)19-15(11)21)14-5-4-12(25-14)10-24-17(23)18-7-6-13-3-2-8-26-13/h2-5,8-9,12,14H,6-7,10H2,1H3,(H,18,23)(H,19,21,22)/t12-,14+/m0/s1
> <PUBCHEM_IUPAC_INCHIKEY>
DEVDOWDZFHXZJD-GXTWGEPZSA-N
> <PUBCHEM_XLOGP3>
1.3
> <PUBCHEM_EXACT_MASS>
377.10454189
> <PUBCHEM_MOLECULAR_FORMULA>
C17H19N3O5S
> <PUBCHEM_MOLECULAR_WEIGHT>
377.4
> <PUBCHEM_OPENEYE_CAN_SMILES>
CC1=CN(C(=O)NC1=O)C2C=CC(O2)COC(=O)NCCC3=CC=CS3
> <PUBCHEM_OPENEYE_ISO_SMILES>
CC1=CN(C(=O)NC1=O)[C@H]2C=C[C@H](O2)COC(=O)NCCC3=CC=CS3
> <PUBCHEM_CACTVS_TPSA>
125
> <PUBCHEM_MONOISOTOPIC_WEIGHT>
377.10454189
> <PUBCHEM_TOTAL_CHARGE>
0
> <PUBCHEM_HEAVY_ATOM_COUNT>
26
> <PUBCHEM_ATOM_DEF_STEREO_COUNT>
2
> <PUBCHEM_ATOM_UDEF_STEREO_COUNT>
0
> <PUBCHEM_BOND_DEF_STEREO_COUNT>
0
> <PUBCHEM_BOND_UDEF_STEREO_COUNT>
0
> <PUBCHEM_ISOTOPIC_ATOM_COUNT>
0
> <PUBCHEM_COMPONENT_COUNT>
1
> <PUBCHEM_CACTVS_TAUTO_COUNT>
-1
> <PUBCHEM_COORDINATE_TYPE>
1
5
255
> <PUBCHEM_BONDANNOTATIONS>
1  23  8
1  26  8
11  14  6
15  17  8
17  18  8
23  24  8
24  25  8
25  26  8
10  7  6
7  15  8
7  16  8
8  16  8
8  18  8
$$$$
