502128
  -OEChem-10302200282D
112114  0     1  0  0  0  0  0999 V2000
    6.4589   -0.3039    0.0000 O   0  0  0  0  0  0  0  0  0  0  0  0
   10.1589   -0.6045    0.0000 O   0  0  0  0  0  0  0  0  0  0  0  0
    7.5608   -1.1045    0.0000 O   0  0  0  0  0  0  0  0  0  0  0  0
    3.2784    1.3945    0.0000 O   0  0  0  0  0  0  0  0  0  0  0  0
   11.0249   -1.1045    0.0000 O   0  0  0  0  0  0  0  0  0  0  0  0
    4.8532    4.6380    0.0000 O   0  0  0  0  0  0  0  0  0  0  0  0
   13.6230   -3.6045    0.0000 O   0  0  0  0  0  0  0  0  0  0  0  0
   11.8910   -0.6045    0.0000 O   0  0  0  0  0  0  0  0  0  0  0  0
    8.4268    0.3955    0.0000 N   0  0  0  0  0  0  0  0  0  0  0  0
    5.9236    1.3434    0.0000 N   0  0  0  0  0  0  0  0  0  0  0  0
   10.1589   -2.6045    0.0000 N   0  0  0  0  0  0  0  0  0  0  0  0
    4.4374    2.6816    0.0000 N   0  0  0  0  0  0  0  0  0  0  0  0
   12.7570   -2.1045    0.0000 N   0  0  0  0  0  0  0  0  0  0  0  0
    3.1590    4.9981    0.0000 N   0  0  0  0  0  0  0  0  0  0  0  0
   12.7570   -5.1045    0.0000 N   0  0  0  0  0  0  0  0  0  0  0  0
    7.6178    0.9833    0.0000 C   0  0  1  0  0  0  0  0  0  0  0  0
    7.9268    1.9343    0.0000 C   0  0  0  0  0  0  0  0  0  0  0  0
    8.9268    1.9343    0.0000 C   0  0  0  0  0  0  0  0  0  0  0  0
    9.2359    0.9833    0.0000 C   0  0  0  0  0  0  0  0  0  0  0  0
    6.6668    0.6743    0.0000 C   0  0  0  0  0  0  0  0  0  0  0  0
    4.9726    1.0344    0.0000 C   0  0  1  0  0  0  0  0  0  0  0  0
    8.4268   -0.6045    0.0000 C   0  0  0  0  0  0  0  0  0  0  0  0
    4.7647    0.0562    0.0000 C   0  0  2  0  0  0  0  0  0  0  0  0
    9.2929   -1.1045    0.0000 C   0  0  2  0  0  0  0  0  0  0  0  0
    9.2929   -2.1045    0.0000 C   0  0  2  0  0  0  0  0  0  0  0  0
    3.8136   -0.2528    0.0000 C   0  0  0  0  0  0  0  0  0  0  0  0
    4.2294    1.7035    0.0000 C   0  0  0  0  0  0  0  0  0  0  0  0
    6.1316    2.3215    0.0000 C   0  0  0  0  0  0  0  0  0  0  0  0
    5.5078   -0.6129    0.0000 C   0  0  0  0  0  0  0  0  0  0  0  0
    8.4268   -2.6045    0.0000 C   0  0  0  0  0  0  0  0  0  0  0  0
    3.6942    3.3508    0.0000 C   0  0  1  0  0  0  0  0  0  0  0  0
    3.0705    0.4163    0.0000 C   0  0  0  0  0  0  0  0  0  0  0  0
    2.7431    3.0418    0.0000 C   0  0  0  0  0  0  0  0  0  0  0  0
    8.4268   -3.6045    0.0000 C   0  0  0  0  0  0  0  0  0  0  0  0
   11.0249   -2.1045    0.0000 C   0  0  0  0  0  0  0  0  0  0  0  0
   11.8910   -2.6045    0.0000 C   0  0  2  0  0  0  0  0  0  0  0  0
    3.9021    4.3289    0.0000 C   0  0  0  0  0  0  0  0  0  0  0  0
    2.0000    3.7109    0.0000 C   0  0  0  0  0  0  0  0  0  0  0  0
    2.5352    2.0636    0.0000 C   0  0  0  0  0  0  0  0  0  0  0  0
    7.5608   -4.1045    0.0000 C   0  0  0  0  0  0  0  0  0  0  0  0
    9.2929   -4.1045    0.0000 C   0  0  0  0  0  0  0  0  0  0  0  0
   11.8910   -3.6045    0.0000 C   0  0  0  0  0  0  0  0  0  0  0  0
    7.5608   -5.1045    0.0000 C   0  0  0  0  0  0  0  0  0  0  0  0
    9.2929   -5.1045    0.0000 C   0  0  0  0  0  0  0  0  0  0  0  0
    8.4268   -5.6045    0.0000 C   0  0  0  0  0  0  0  0  0  0  0  0
   12.7570   -4.1045    0.0000 C   0  0  0  0  0  0  0  0  0  0  0  0
   12.7570   -1.1045    0.0000 C   0  0  0  0  0  0  0  0  0  0  0  0
   13.6230   -0.6045    0.0000 C   0  0  0  0  0  0  0  0  0  0  0  0
   13.6230    0.3955    0.0000 C   0  0  0  0  0  0  0  0  0  0  0  0
   14.4890    0.8955    0.0000 C   0  0  0  0  0  0  0  0  0  0  0  0
   15.3551    0.3955    0.0000 C   0  0  0  0  0  0  0  0  0  0  0  0
   14.4890    1.8955    0.0000 C   0  0  0  0  0  0  0  0  0  0  0  0
   16.2211    0.8955    0.0000 C   0  0  0  0  0  0  0  0  0  0  0  0
   15.3551    2.3955    0.0000 C   0  0  0  0  0  0  0  0  0  0  0  0
   16.2211    1.8955    0.0000 C   0  0  0  0  0  0  0  0  0  0  0  0
    7.5208    0.3709    0.0000 H   0  0  0  0  0  0  0  0  0  0  0  0
    7.9917    2.5509    0.0000 H   0  0  0  0  0  0  0  0  0  0  0  0
    7.3204    2.0632    0.0000 H   0  0  0  0  0  0  0  0  0  0  0  0
    9.5333    2.0632    0.0000 H   0  0  0  0  0  0  0  0  0  0  0  0
    8.8620    2.5509    0.0000 H   0  0  0  0  0  0  0  0  0  0  0  0
    9.5459    0.4463    0.0000 H   0  0  0  0  0  0  0  0  0  0  0  0
    9.8023    1.2354    0.0000 H   0  0  0  0  0  0  0  0  0  0  0  0
    5.4333    0.6195    0.0000 H   0  0  0  0  0  0  0  0  0  0  0  0
    4.6358   -0.5502    0.0000 H   0  0  0  0  0  0  0  0  0  0  0  0
    9.2929   -0.4845    0.0000 H   0  0  0  0  0  0  0  0  0  0  0  0
    9.2929   -2.7245    0.0000 H   0  0  0  0  0  0  0  0  0  0  0  0
    3.3250   -0.6345    0.0000 H   0  0  0  0  0  0  0  0  0  0  0  0
    4.1047   -0.8002    0.0000 H   0  0  0  0  0  0  0  0  0  0  0  0
    6.7380    2.1926    0.0000 H   0  0  0  0  0  0  0  0  0  0  0  0
    6.2604    2.9280    0.0000 H   0  0  0  0  0  0  0  0  0  0  0  0
    5.5251    2.4504    0.0000 H   0  0  0  0  0  0  0  0  0  0  0  0
    5.0930   -1.0737    0.0000 H   0  0  0  0  0  0  0  0  0  0  0  0
    5.9686   -1.0278    0.0000 H   0  0  0  0  0  0  0  0  0  0  0  0
    5.9227   -0.1522    0.0000 H   0  0  0  0  0  0  0  0  0  0  0  0
    8.2148   -2.0219    0.0000 H   0  0  0  0  0  0  0  0  0  0  0  0
    7.8163   -2.7122    0.0000 H   0  0  0  0  0  0  0  0  0  0  0  0
   10.1589   -3.2245    0.0000 H   0  0  0  0  0  0  0  0  0  0  0  0
    5.0270    2.8732    0.0000 H   0  0  0  0  0  0  0  0  0  0  0  0
    3.5653    2.7443    0.0000 H   0  0  0  0  0  0  0  0  0  0  0  0
    3.4853    0.8771    0.0000 H   0  0  0  0  0  0  0  0  0  0  0  0
    2.6097    0.8312    0.0000 H   0  0  0  0  0  0  0  0  0  0  0  0
    2.6556   -0.0444    0.0000 H   0  0  0  0  0  0  0  0  0  0  0  0
   10.1589    0.0155    0.0000 H   0  0  0  0  0  0  0  0  0  0  0  0
    2.8721    3.6482    0.0000 H   0  0  0  0  0  0  0  0  0  0  0  0
   12.4279   -2.9145    0.0000 H   0  0  0  0  0  0  0  0  0  0  0  0
    2.4149    4.1716    0.0000 H   0  0  0  0  0  0  0  0  0  0  0  0
    1.5392    4.1258    0.0000 H   0  0  0  0  0  0  0  0  0  0  0  0
    1.5851    3.2501    0.0000 H   0  0  0  0  0  0  0  0  0  0  0  0
    1.9288    2.1925    0.0000 H   0  0  0  0  0  0  0  0  0  0  0  0
    2.4063    1.4572    0.0000 H   0  0  0  0  0  0  0  0  0  0  0  0
    3.1417    1.9347    0.0000 H   0  0  0  0  0  0  0  0  0  0  0  0
    7.0239   -3.7945    0.0000 H   0  0  0  0  0  0  0  0  0  0  0  0
    9.8298   -3.7945    0.0000 H   0  0  0  0  0  0  0  0  0  0  0  0
   11.2804   -3.4968    0.0000 H   0  0  0  0  0  0  0  0  0  0  0  0
   11.6789   -4.1871    0.0000 H   0  0  0  0  0  0  0  0  0  0  0  0
   13.2939   -2.4145    0.0000 H   0  0  0  0  0  0  0  0  0  0  0  0
    7.0239   -5.4145    0.0000 H   0  0  0  0  0  0  0  0  0  0  0  0
    9.8298   -5.4145    0.0000 H   0  0  0  0  0  0  0  0  0  0  0  0
    3.2879    5.6045    0.0000 H   0  0  0  0  0  0  0  0  0  0  0  0
    2.5693    4.8065    0.0000 H   0  0  0  0  0  0  0  0  0  0  0  0
    8.4268   -6.2245    0.0000 H   0  0  0  0  0  0  0  0  0  0  0  0
   13.8351   -1.1871    0.0000 H   0  0  0  0  0  0  0  0  0  0  0  0
   14.2336   -0.4968    0.0000 H   0  0  0  0  0  0  0  0  0  0  0  0
   13.4110    0.9781    0.0000 H   0  0  0  0  0  0  0  0  0  0  0  0
   13.0124    0.2878    0.0000 H   0  0  0  0  0  0  0  0  0  0  0  0
   13.2939   -5.4145    0.0000 H   0  0  0  0  0  0  0  0  0  0  0  0
   12.2200   -5.4145    0.0000 H   0  0  0  0  0  0  0  0  0  0  0  0
   15.3551   -0.2245    0.0000 H   0  0  0  0  0  0  0  0  0  0  0  0
   13.9521    2.2055    0.0000 H   0  0  0  0  0  0  0  0  0  0  0  0
   16.7580    0.5855    0.0000 H   0  0  0  0  0  0  0  0  0  0  0  0
   15.3551    3.0155    0.0000 H   0  0  0  0  0  0  0  0  0  0  0  0
   16.7580    2.2055    0.0000 H   0  0  0  0  0  0  0  0  0  0  0  0
  1 20  2  0  0  0  0
 24  2  1  1  0  0  0
  2 83  1  0  0  0  0
  3 22  2  0  0  0  0
  4 27  2  0  0  0  0
  5 35  2  0  0  0  0
  6 37  2  0  0  0  0
  7 46  2  0  0  0  0
  8 47  2  0  0  0  0
  9 16  1  0  0  0  0
  9 19  1  0  0  0  0
  9 22  1  0  0  0  0
 10 20  1  0  0  0  0
 21 10  1  1  0  0  0
 10 28  1  0  0  0  0
 25 11  1  1  0  0  0
 11 35  1  0  0  0  0
 11 77  1  0  0  0  0
 12 27  1  0  0  0  0
 31 12  1  1  0  0  0
 12 78  1  0  0  0  0
 36 13  1  1  0  0  0
 13 47  1  0  0  0  0
 13 96  1  0  0  0  0
 14 37  1  0  0  0  0
 14 99  1  0  0  0  0
 14100  1  0  0  0  0
 15 46  1  0  0  0  0
 15106  1  0  0  0  0
 15107  1  0  0  0  0
 16 17  1  0  0  0  0
 16 20  1  6  0  0  0
 16 56  1  0  0  0  0
 17 18  1  0  0  0  0
 17 57  1  0  0  0  0
 17 58  1  0  0  0  0
 18 19  1  0  0  0  0
 18 59  1  0  0  0  0
 18 60  1  0  0  0  0
 19 61  1  0  0  0  0
 19 62  1  0  0  0  0
 21 23  1  0  0  0  0
 21 27  1  0  0  0  0
 21 63  1  0  0  0  0
 22 24  1  0  0  0  0
 23 26  1  0  0  0  0
 23 29  1  1  0  0  0
 23 64  1  0  0  0  0
 24 25  1  0  0  0  0
 24 65  1  0  0  0  0
 25 30  1  0  0  0  0
 25 66  1  0  0  0  0
 26 32  1  0  0  0  0
 26 67  1  0  0  0  0
 26 68  1  0  0  0  0
 28 69  1  0  0  0  0
 28 70  1  0  0  0  0
 28 71  1  0  0  0  0
 29 72  1  0  0  0  0
 29 73  1  0  0  0  0
 29 74  1  0  0  0  0
 30 34  1  0  0  0  0
 30 75  1  0  0  0  0
 30 76  1  0  0  0  0
 31 33  1  0  0  0  0
 31 37  1  0  0  0  0
 31 79  1  0  0  0  0
 32 80  1  0  0  0  0
 32 81  1  0  0  0  0
 32 82  1  0  0  0  0
 33 38  1  0  0  0  0
 33 39  1  0  0  0  0
 33 84  1  0  0  0  0
 34 40  2  0  0  0  0
 34 41  1  0  0  0  0
 35 36  1  0  0  0  0
 36 42  1  0  0  0  0
 36 85  1  0  0  0  0
 38 86  1  0  0  0  0
 38 87  1  0  0  0  0
 38 88  1  0  0  0  0
 39 89  1  0  0  0  0
 39 90  1  0  0  0  0
 39 91  1  0  0  0  0
 40 43  1  0  0  0  0
 40 92  1  0  0  0  0
 41 44  2  0  0  0  0
 41 93  1  0  0  0  0
 42 46  1  0  0  0  0
 42 94  1  0  0  0  0
 42 95  1  0  0  0  0
 43 45  2  0  0  0  0
 43 97  1  0  0  0  0
 44 45  1  0  0  0  0
 44 98  1  0  0  0  0
 45101  1  0  0  0  0
 47 48  1  0  0  0  0
 48 49  1  0  0  0  0
 48102  1  0  0  0  0
 48103  1  0  0  0  0
 49 50  1  0  0  0  0
 49104  1  0  0  0  0
 49105  1  0  0  0  0
 50 51  2  0  0  0  0
 50 52  1  0  0  0  0
 51 53  1  0  0  0  0
 51108  1  0  0  0  0
 52 54  2  0  0  0  0
 52109  1  0  0  0  0
 53 55  2  0  0  0  0
 53110  1  0  0  0  0
 54 55  1  0  0  0  0
 54111  1  0  0  0  0
 55112  1  0  0  0  0
M  END
> <PUBCHEM_COMPOUND_CID>
502128
> <PUBCHEM_COMPOUND_CANONICALIZED>
1
> <PUBCHEM_CACTVS_COMPLEXITY>
1330
> <PUBCHEM_CACTVS_HBOND_ACCEPTOR>
8
> <PUBCHEM_CACTVS_HBOND_DONOR>
6
> <PUBCHEM_CACTVS_ROTATABLE_BOND>
20
> <PUBCHEM_CACTVS_SUBSKEYS>
AAADcfB/vAAAAAAAAAAAAAAAAAAAAWAAAAAwYAAAAAAAAAABQAAAHgAQCAAADTzhmAYyAIPAAgCIAiFSEAICAAAgAAAIiIHIAIgKcDqA0TGUYAAklgCYiAedyaCOAAAAAAAAAAAAAAAAAAAAAAAAAAAAAA==
> <PUBCHEM_IUPAC_OPENEYE_NAME>
(2S)-N-[(1S,2S)-1-benzyl-3-[(2S)-2-[[(1S,2S)-1-[[(1S)-1-carbamoyl-2-methyl-propyl]carbamoyl]-2-methyl-butyl]-methyl-carbamoyl]pyrrolidin-1-yl]-2-hydroxy-3-oxo-propyl]-2-(3-phenylpropanoylamino)butanediamide
> <PUBCHEM_IUPAC_CAS_NAME>
(2S)-N-[(2S,3S)-4-[(2S)-2-[[[(2S,3S)-1-[[(2S)-1-amino-3-methyl-1-oxobutan-2-yl]amino]-3-methyl-1-oxopentan-2-yl]-methylamino]-oxomethyl]-1-pyrrolidinyl]-3-hydroxy-4-oxo-1-phenylbutan-2-yl]-2-[(1-oxo-3-phenylpropyl)amino]butanediamide
> <PUBCHEM_IUPAC_NAME_MARKUP>
(2<I>S</I>)-<I>N</I>-[(2<I>S</I>,3<I>S</I>)-4-[(2<I>S</I>)-2-[[(2<I>S</I>,3<I>S</I>)-1-[[(2<I>S</I>)-1-amino-3-methyl-1-oxobutan-2-yl]amino]-3-methyl-1-oxopentan-2-yl]-methylcarbamoyl]pyrrolidin-1-yl]-3-hydroxy-4-oxo-1-phenylbutan-2-yl]-2-(3-phenylpropanoylamino)butanediamide
> <PUBCHEM_IUPAC_NAME>
(2S)-N-[(2S,3S)-4-[(2S)-2-[[(2S,3S)-1-[[(2S)-1-amino-3-methyl-1-oxobutan-2-yl]amino]-3-methyl-1-oxopentan-2-yl]-methylcarbamoyl]pyrrolidin-1-yl]-3-hydroxy-4-oxo-1-phenylbutan-2-yl]-2-(3-phenylpropanoylamino)butanediamide
> <PUBCHEM_IUPAC_SYSTEMATIC_NAME>
(2S)-N-[(2S,3S)-4-[(2S)-2-[[(2S,3S)-1-[[(2S)-1-azanyl-3-methyl-1-oxidanylidene-butan-2-yl]amino]-3-methyl-1-oxidanylidene-pentan-2-yl]-methyl-carbamoyl]pyrrolidin-1-yl]-3-oxidanyl-4-oxidanylidene-1-phenyl-butan-2-yl]-2-(3-phenylpropanoylamino)butanediamide
> <PUBCHEM_IUPAC_TRADITIONAL_NAME>
(2S)-N-[(1S,2S)-1-benzyl-3-[(2S)-2-[[(1S,2S)-1-[[(1S)-1-carbamoyl-2-methyl-propyl]carbamoyl]-2-methyl-butyl]-methyl-carbamoyl]pyrrolidino]-2-hydroxy-3-keto-propyl]-2-(hydrocinnamoylamino)succinamide
> <PUBCHEM_IUPAC_INCHI>
InChI=1S/C40H57N7O8/c1-6-25(4)34(38(53)45-33(24(2)3)36(42)51)46(5)39(54)30-18-13-21-47(30)40(55)35(50)28(22-27-16-11-8-12-17-27)44-37(52)29(23-31(41)48)43-32(49)20-19-26-14-9-7-10-15-26/h7-12,14-17,24-25,28-30,33-35,50H,6,13,18-23H2,1-5H3,(H2,41,48)(H2,42,51)(H,43,49)(H,44,52)(H,45,53)/t25-,28-,29-,30-,33-,34-,35-/m0/s1
> <PUBCHEM_IUPAC_INCHIKEY>
CRRODWJTSWNGKD-ZUJWCVCRSA-N
> <PUBCHEM_XLOGP3_AA>
2
> <PUBCHEM_EXACT_MASS>
763.42686180
> <PUBCHEM_MOLECULAR_FORMULA>
C40H57N7O8
> <PUBCHEM_MOLECULAR_WEIGHT>
763.9
> <PUBCHEM_OPENEYE_CAN_SMILES>
CCC(C)C(C(=O)NC(C(C)C)C(=O)N)N(C)C(=O)C1CCCN1C(=O)C(C(CC2=CC=CC=C2)NC(=O)C(CC(=O)N)NC(=O)CCC3=CC=CC=C3)O
> <PUBCHEM_OPENEYE_ISO_SMILES>
CC[C@H](C)[C@@H](C(=O)N[C@@H](C(C)C)C(=O)N)N(C)C(=O)[C@@H]1CCCN1C(=O)[C@H]([C@H](CC2=CC=CC=C2)NC(=O)[C@H](CC(=O)N)NC(=O)CCC3=CC=CC=C3)O
> <PUBCHEM_CACTVS_TPSA>
234
> <PUBCHEM_MONOISOTOPIC_WEIGHT>
763.42686180
> <PUBCHEM_TOTAL_CHARGE>
0
> <PUBCHEM_HEAVY_ATOM_COUNT>
55
> <PUBCHEM_ATOM_DEF_STEREO_COUNT>
7
> <PUBCHEM_ATOM_UDEF_STEREO_COUNT>
0
> <PUBCHEM_BOND_DEF_STEREO_COUNT>
0
> <PUBCHEM_BOND_UDEF_STEREO_COUNT>
0
> <PUBCHEM_ISOTOPIC_ATOM_COUNT>
0
> <PUBCHEM_COMPONENT_COUNT>
1
> <PUBCHEM_CACTVS_TAUTO_COUNT>
-1
> <PUBCHEM_COORDINATE_TYPE>
1
5
255
> <PUBCHEM_BONDANNOTATIONS>
21  10  5
25  11  5
31  12  5
36  13  5
16  20  6
24  2  5
23  29  5
34  40  8
34  41  8
40  43  8
41  44  8
43  45  8
44  45  8
50  51  8
50  52  8
51  53  8
52  54  8
53  55  8
54  55  8
$$$$
