502147
  -OEChem-10302200282D
 65 65  0     1  0  0  0  0  0999 V2000
    6.3301   -2.8100    0.0000 O   0  0  0  0  0  0  0  0  0  0  0  0
    2.8660   -3.8100    0.0000 O   0  0  0  0  0  0  0  0  0  0  0  0
    2.0000   -1.3100    0.0000 O   0  0  0  0  0  0  0  0  0  0  0  0
    5.4641   -1.3100    0.0000 N   0  0  0  0  0  0  0  0  0  0  0  0
    4.5981   -3.8100    0.0000 N   0  0  0  0  0  0  0  0  0  0  0  0
   10.6603    6.6900    0.0000 N   0  0  0  0  0  0  0  0  0  0  0  0
    2.8660    0.1900    0.0000 N   0  0  0  0  0  0  0  0  0  0  0  0
    8.0622    2.1900    0.0000 C   0  0  0  0  0  0  0  0  0  0  0  0
    7.1962    1.6900    0.0000 C   0  0  0  0  0  0  0  0  0  0  0  0
    8.0622    3.1900    0.0000 C   0  0  0  0  0  0  0  0  0  0  0  0
    7.1962    0.6900    0.0000 C   0  0  0  0  0  0  0  0  0  0  0  0
    8.9282    3.6900    0.0000 C   0  0  0  0  0  0  0  0  0  0  0  0
    6.3301    0.1900    0.0000 C   0  0  0  0  0  0  0  0  0  0  0  0
    8.9282    4.6900    0.0000 C   0  0  0  0  0  0  0  0  0  0  0  0
    6.3301   -0.8100    0.0000 C   0  0  0  0  0  0  0  0  0  0  0  0
    9.7942    5.1900    0.0000 C   0  0  0  0  0  0  0  0  0  0  0  0
    4.5981   -2.8100    0.0000 C   0  0  3  0  0  0  0  0  0  0  0  0
    3.7320   -2.3100    0.0000 C   0  0  0  0  0  0  0  0  0  0  0  0
    5.4641   -2.3100    0.0000 C   0  0  0  0  0  0  0  0  0  0  0  0
    9.7942    6.1900    0.0000 C   0  0  0  0  0  0  0  0  0  0  0  0
    3.7320   -1.3100    0.0000 C   0  0  0  0  0  0  0  0  0  0  0  0
    3.7320   -4.3100    0.0000 C   0  0  0  0  0  0  0  0  0  0  0  0
    2.8660   -0.8100    0.0000 C   0  0  0  0  0  0  0  0  0  0  0  0
    3.7320   -5.3100    0.0000 C   0  0  0  0  0  0  0  0  0  0  0  0
    2.8660   -5.8100    0.0000 C   0  0  0  0  0  0  0  0  0  0  0  0
    4.5981   -5.8100    0.0000 C   0  0  0  0  0  0  0  0  0  0  0  0
    2.8660   -6.8100    0.0000 C   0  0  0  0  0  0  0  0  0  0  0  0
    4.5981   -6.8100    0.0000 C   0  0  0  0  0  0  0  0  0  0  0  0
    3.7320   -7.3100    0.0000 C   0  0  0  0  0  0  0  0  0  0  0  0
    8.2742    1.6074    0.0000 H   0  0  0  0  0  0  0  0  0  0  0  0
    8.6728    2.2977    0.0000 H   0  0  0  0  0  0  0  0  0  0  0  0
    6.9841    2.2726    0.0000 H   0  0  0  0  0  0  0  0  0  0  0  0
    6.5856    1.5823    0.0000 H   0  0  0  0  0  0  0  0  0  0  0  0
    7.8501    3.7726    0.0000 H   0  0  0  0  0  0  0  0  0  0  0  0
    7.4516    3.0823    0.0000 H   0  0  0  0  0  0  0  0  0  0  0  0
    7.4082    0.1074    0.0000 H   0  0  0  0  0  0  0  0  0  0  0  0
    7.8067    0.7977    0.0000 H   0  0  0  0  0  0  0  0  0  0  0  0
    9.1403    3.1074    0.0000 H   0  0  0  0  0  0  0  0  0  0  0  0
    9.5388    3.7977    0.0000 H   0  0  0  0  0  0  0  0  0  0  0  0
    6.1181    0.7726    0.0000 H   0  0  0  0  0  0  0  0  0  0  0  0
    5.7196    0.0823    0.0000 H   0  0  0  0  0  0  0  0  0  0  0  0
    8.7162    5.2726    0.0000 H   0  0  0  0  0  0  0  0  0  0  0  0
    8.3176    4.5823    0.0000 H   0  0  0  0  0  0  0  0  0  0  0  0
    6.5422   -1.3926    0.0000 H   0  0  0  0  0  0  0  0  0  0  0  0
    6.9407   -0.7023    0.0000 H   0  0  0  0  0  0  0  0  0  0  0  0
   10.0063    4.6074    0.0000 H   0  0  0  0  0  0  0  0  0  0  0  0
   10.4048    5.2977    0.0000 H   0  0  0  0  0  0  0  0  0  0  0  0
    5.1350   -3.1200    0.0000 H   0  0  0  0  0  0  0  0  0  0  0  0
    4.9272   -1.0000    0.0000 H   0  0  0  0  0  0  0  0  0  0  0  0
    3.1215   -2.2023    0.0000 H   0  0  0  0  0  0  0  0  0  0  0  0
    3.5200   -2.8926    0.0000 H   0  0  0  0  0  0  0  0  0  0  0  0
    9.5822    6.7726    0.0000 H   0  0  0  0  0  0  0  0  0  0  0  0
    9.1836    6.0823    0.0000 H   0  0  0  0  0  0  0  0  0  0  0  0
    4.3426   -1.4177    0.0000 H   0  0  0  0  0  0  0  0  0  0  0  0
    3.9441   -0.7274    0.0000 H   0  0  0  0  0  0  0  0  0  0  0  0
    5.1350   -4.1200    0.0000 H   0  0  0  0  0  0  0  0  0  0  0  0
   10.6603    7.3100    0.0000 H   0  0  0  0  0  0  0  0  0  0  0  0
   11.1972    6.3800    0.0000 H   0  0  0  0  0  0  0  0  0  0  0  0
    2.3291    0.5000    0.0000 H   0  0  0  0  0  0  0  0  0  0  0  0
    3.4030    0.5000    0.0000 H   0  0  0  0  0  0  0  0  0  0  0  0
    2.3291   -5.5000    0.0000 H   0  0  0  0  0  0  0  0  0  0  0  0
    5.1350   -5.5000    0.0000 H   0  0  0  0  0  0  0  0  0  0  0  0
    2.3291   -7.1200    0.0000 H   0  0  0  0  0  0  0  0  0  0  0  0
    5.1350   -7.1200    0.0000 H   0  0  0  0  0  0  0  0  0  0  0  0
    3.7320   -7.9300    0.0000 H   0  0  0  0  0  0  0  0  0  0  0  0
  1 19  2  0  0  0  0
  2 22  2  0  0  0  0
  3 23  2  0  0  0  0
  4 15  1  0  0  0  0
  4 19  1  0  0  0  0
  4 49  1  0  0  0  0
  5 17  1  0  0  0  0
  5 22  1  0  0  0  0
  5 56  1  0  0  0  0
  6 20  1  0  0  0  0
  6 57  1  0  0  0  0
  6 58  1  0  0  0  0
  7 23  1  0  0  0  0
  7 59  1  0  0  0  0
  7 60  1  0  0  0  0
  8  9  1  0  0  0  0
  8 10  1  0  0  0  0
  8 30  1  0  0  0  0
  8 31  1  0  0  0  0
  9 11  1  0  0  0  0
  9 32  1  0  0  0  0
  9 33  1  0  0  0  0
 10 12  1  0  0  0  0
 10 34  1  0  0  0  0
 10 35  1  0  0  0  0
 11 13  1  0  0  0  0
 11 36  1  0  0  0  0
 11 37  1  0  0  0  0
 12 14  1  0  0  0  0
 12 38  1  0  0  0  0
 12 39  1  0  0  0  0
 13 15  1  0  0  0  0
 13 40  1  0  0  0  0
 13 41  1  0  0  0  0
 14 16  1  0  0  0  0
 14 42  1  0  0  0  0
 14 43  1  0  0  0  0
 15 44  1  0  0  0  0
 15 45  1  0  0  0  0
 16 20  1  0  0  0  0
 16 46  1  0  0  0  0
 16 47  1  0  0  0  0
 17 18  1  0  0  0  0
 17 19  1  0  0  0  0
 17 48  1  0  0  0  0
 18 21  1  0  0  0  0
 18 50  1  0  0  0  0
 18 51  1  0  0  0  0
 20 52  1  0  0  0  0
 20 53  1  0  0  0  0
 21 23  1  0  0  0  0
 21 54  1  0  0  0  0
 21 55  1  0  0  0  0
 22 24  1  0  0  0  0
 24 25  2  0  0  0  0
 24 26  1  0  0  0  0
 25 27  1  0  0  0  0
 25 61  1  0  0  0  0
 26 28  2  0  0  0  0
 26 62  1  0  0  0  0
 27 29  2  0  0  0  0
 27 63  1  0  0  0  0
 28 29  1  0  0  0  0
 28 64  1  0  0  0  0
 29 65  1  0  0  0  0
M  END
> <PUBCHEM_COMPOUND_CID>
502147
> <PUBCHEM_COMPOUND_CANONICALIZED>
1
> <PUBCHEM_CACTVS_COMPLEXITY>
479
> <PUBCHEM_CACTVS_HBOND_ACCEPTOR>
4
> <PUBCHEM_CACTVS_HBOND_DONOR>
4
> <PUBCHEM_CACTVS_ROTATABLE_BOND>
16
> <PUBCHEM_CACTVS_SUBSKEYS>
AAADcfB7sAAAAAAAAAAAAAAAAAAAAAAAAAAwAAAAAAAAAAABAAAAHgAQAAAADCjBmAQwAILAAACIAiFSEACCAAAkAAAIiIGIBMgIYDKAlTGUIQhglgCIiYcci4COAAAAAAAAAAAAAAAAAAAAAAAAAAAAAA==
> <PUBCHEM_IUPAC_OPENEYE_NAME>
N-(10-aminodecyl)-2-benzamido-pentanediamide
> <PUBCHEM_IUPAC_CAS_NAME>
N-(10-aminodecyl)-2-benzamidopentanediamide
> <PUBCHEM_IUPAC_NAME_MARKUP>
<I>N</I>-(10-aminodecyl)-2-benzamidopentanediamide
> <PUBCHEM_IUPAC_NAME>
N-(10-aminodecyl)-2-benzamidopentanediamide
> <PUBCHEM_IUPAC_SYSTEMATIC_NAME>
N-(10-azanyldecyl)-2-benzamido-pentanediamide
> <PUBCHEM_IUPAC_TRADITIONAL_NAME>
N-(10-aminodecyl)-2-benzamido-glutaramide
> <PUBCHEM_IUPAC_INCHI>
InChI=1S/C22H36N4O3/c23-16-10-5-3-1-2-4-6-11-17-25-22(29)19(14-15-20(24)27)26-21(28)18-12-8-7-9-13-18/h7-9,12-13,19H,1-6,10-11,14-17,23H2,(H2,24,27)(H,25,29)(H,26,28)
> <PUBCHEM_IUPAC_INCHIKEY>
SXCRLAHNUNSMJX-UHFFFAOYSA-N
> <PUBCHEM_XLOGP3_AA>
2.4
> <PUBCHEM_EXACT_MASS>
404.27874102
> <PUBCHEM_MOLECULAR_FORMULA>
C22H36N4O3
> <PUBCHEM_MOLECULAR_WEIGHT>
404.5
> <PUBCHEM_OPENEYE_CAN_SMILES>
C1=CC=C(C=C1)C(=O)NC(CCC(=O)N)C(=O)NCCCCCCCCCCN
> <PUBCHEM_OPENEYE_ISO_SMILES>
C1=CC=C(C=C1)C(=O)NC(CCC(=O)N)C(=O)NCCCCCCCCCCN
> <PUBCHEM_CACTVS_TPSA>
127
> <PUBCHEM_MONOISOTOPIC_WEIGHT>
404.27874102
> <PUBCHEM_TOTAL_CHARGE>
0
> <PUBCHEM_HEAVY_ATOM_COUNT>
29
> <PUBCHEM_ATOM_DEF_STEREO_COUNT>
0
> <PUBCHEM_ATOM_UDEF_STEREO_COUNT>
1
> <PUBCHEM_BOND_DEF_STEREO_COUNT>
0
> <PUBCHEM_BOND_UDEF_STEREO_COUNT>
0
> <PUBCHEM_ISOTOPIC_ATOM_COUNT>
0
> <PUBCHEM_COMPONENT_COUNT>
1
> <PUBCHEM_CACTVS_TAUTO_COUNT>
-1
> <PUBCHEM_COORDINATE_TYPE>
1
5
255
> <PUBCHEM_BONDANNOTATIONS>
17  18  3
24  25  8
24  26  8
25  27  8
26  28  8
27  29  8
28  29  8
$$$$
