502162
  -OEChem-10302200282D
 82 84  0     1  0  0  0  0  0999 V2000
    6.1200    0.7015    0.0000 S   0  0  0  0  0  0  0  0  0  0  0  0
    5.6200    1.5675    0.0000 S   0  0  0  0  0  0  0  0  0  0  0  0
    6.6201    3.2996    0.0000 O   0  0  0  0  0  0  0  0  0  0  0  0
    8.6200   -0.1645    0.0000 O   0  0  0  0  0  0  0  0  0  0  0  0
    4.6200   -1.8966    0.0000 O   0  0  0  0  0  0  0  0  0  0  0  0
    5.6200    5.0316    0.0000 O   0  0  0  0  0  0  0  0  0  0  0  0
    5.6200   -5.3607    0.0000 O   0  0  0  0  0  0  0  0  0  0  0  0
    7.1200   -4.4947    0.0000 O   0  0  0  0  0  0  0  0  0  0  0  0
    4.6200    5.0316    0.0000 O   0  0  0  0  0  0  0  0  0  0  0  0
    2.6200   -3.6286    0.0000 O   0  0  0  0  0  0  0  0  0  0  0  0
    7.6200    1.5675    0.0000 N   0  0  0  0  0  0  0  0  0  0  0  0
    7.1200   -1.0306    0.0000 N   0  0  0  0  0  0  0  0  0  0  0  0
    7.1200    4.1656    0.0000 N   0  0  0  0  0  0  0  0  0  0  0  0
    6.1200   -2.7626    0.0000 N   0  0  0  0  0  0  0  0  0  0  0  0
    4.5852    1.5615    0.0000 N   0  0  0  0  0  0  0  0  0  0  0  0
    4.6200    3.2996    0.0000 N   0  0  0  0  0  0  0  0  0  0  0  0
    4.1392    0.0061    0.0000 N   0  0  0  0  0  0  0  0  0  0  0  0
    2.6200   -5.3607    0.0000 N   0  0  0  0  0  0  0  0  0  0  0  0
    7.1200    0.7015    0.0000 C   0  0  1  0  0  0  0  0  0  0  0  0
    7.6200    3.2996    0.0000 C   0  0  1  0  0  0  0  0  0  0  0  0
    6.3540    1.3443    0.0000 C   0  0  0  0  0  0  0  0  0  0  0  0
    6.1200   -1.0306    0.0000 C   0  0  1  0  0  0  0  0  0  0  0  0
    8.6200    3.2996    0.0000 C   0  0  0  0  0  0  0  0  0  0  0  0
    7.1200    2.4335    0.0000 C   0  0  0  0  0  0  0  0  0  0  0  0
    7.6200   -0.1645    0.0000 C   0  0  0  0  0  0  0  0  0  0  0  0
    5.6200    3.2996    0.0000 C   0  0  2  0  0  0  0  0  0  0  0  0
    5.6200   -0.1645    0.0000 C   0  0  0  0  0  0  0  0  0  0  0  0
    5.4143    1.0023    0.0000 C   0  0  0  0  0  0  0  0  0  0  0  0
    5.6200   -3.6286    0.0000 C   0  0  1  0  0  0  0  0  0  0  0  0
    5.6200   -1.8966    0.0000 C   0  0  0  0  0  0  0  0  0  0  0  0
    9.1200    4.1656    0.0000 C   0  0  0  0  0  0  0  0  0  0  0  0
    6.1200    4.1656    0.0000 C   0  0  0  0  0  0  0  0  0  0  0  0
    4.6200   -3.6286    0.0000 C   0  0  0  0  0  0  0  0  0  0  0  0
    6.1200    2.4335    0.0000 C   0  0  0  0  0  0  0  0  0  0  0  0
    4.1200   -4.4947    0.0000 C   0  0  0  0  0  0  0  0  0  0  0  0
    5.1386    0.0410    0.0000 C   0  0  0  0  0  0  0  0  0  0  0  0
    8.6200    5.0316    0.0000 C   0  0  0  0  0  0  0  0  0  0  0  0
   10.1200    4.1656    0.0000 C   0  0  0  0  0  0  0  0  0  0  0  0
    6.1200   -4.4947    0.0000 C   0  0  0  0  0  0  0  0  0  0  0  0
    3.7972    0.9458    0.0000 C   0  0  0  0  0  0  0  0  0  0  0  0
    9.1200    5.8976    0.0000 C   0  0  0  0  0  0  0  0  0  0  0  0
   10.6200    5.0316    0.0000 C   0  0  0  0  0  0  0  0  0  0  0  0
    4.1200    4.1656    0.0000 C   0  0  0  0  0  0  0  0  0  0  0  0
   10.1200    5.8976    0.0000 C   0  0  0  0  0  0  0  0  0  0  0  0
    3.1200   -4.4947    0.0000 C   0  0  0  0  0  0  0  0  0  0  0  0
    3.1200    4.1656    0.0000 C   0  0  0  0  0  0  0  0  0  0  0  0
    7.0124    1.3121    0.0000 H   0  0  0  0  0  0  0  0  0  0  0  0
    7.9300    3.8365    0.0000 H   0  0  0  0  0  0  0  0  0  0  0  0
    6.8290    1.7428    0.0000 H   0  0  0  0  0  0  0  0  0  0  0  0
    6.0440    1.8813    0.0000 H   0  0  0  0  0  0  0  0  0  0  0  0
    6.4300   -1.5675    0.0000 H   0  0  0  0  0  0  0  0  0  0  0  0
    8.5123    2.6890    0.0000 H   0  0  0  0  0  0  0  0  0  0  0  0
    9.2026    3.0875    0.0000 H   0  0  0  0  0  0  0  0  0  0  0  0
    8.2400    1.5675    0.0000 H   0  0  0  0  0  0  0  0  0  0  0  0
    7.4300   -1.5675    0.0000 H   0  0  0  0  0  0  0  0  0  0  0  0
    7.4300    4.7025    0.0000 H   0  0  0  0  0  0  0  0  0  0  0  0
    5.3100    3.8365    0.0000 H   0  0  0  0  0  0  0  0  0  0  0  0
    5.1450    0.2340    0.0000 H   0  0  0  0  0  0  0  0  0  0  0  0
    5.1450   -0.5631    0.0000 H   0  0  0  0  0  0  0  0  0  0  0  0
    6.2400   -3.6286    0.0000 H   0  0  0  0  0  0  0  0  0  0  0  0
    6.7400   -2.7626    0.0000 H   0  0  0  0  0  0  0  0  0  0  0  0
    4.7277   -3.0181    0.0000 H   0  0  0  0  0  0  0  0  0  0  0  0
    4.0374   -3.4166    0.0000 H   0  0  0  0  0  0  0  0  0  0  0  0
    6.5950    2.0350    0.0000 H   0  0  0  0  0  0  0  0  0  0  0  0
    6.5950    2.8321    0.0000 H   0  0  0  0  0  0  0  0  0  0  0  0
    4.0123   -5.1052    0.0000 H   0  0  0  0  0  0  0  0  0  0  0  0
    4.7026   -4.7067    0.0000 H   0  0  0  0  0  0  0  0  0  0  0  0
    4.5636    2.1811    0.0000 H   0  0  0  0  0  0  0  0  0  0  0  0
    4.3100    2.7626    0.0000 H   0  0  0  0  0  0  0  0  0  0  0  0
    5.5204   -0.4476    0.0000 H   0  0  0  0  0  0  0  0  0  0  0  0
    8.0000    5.0316    0.0000 H   0  0  0  0  0  0  0  0  0  0  0  0
   10.4300    3.6286    0.0000 H   0  0  0  0  0  0  0  0  0  0  0  0
    3.2012    1.1167    0.0000 H   0  0  0  0  0  0  0  0  0  0  0  0
    8.8100    6.4346    0.0000 H   0  0  0  0  0  0  0  0  0  0  0  0
   11.2400    5.0316    0.0000 H   0  0  0  0  0  0  0  0  0  0  0  0
   10.4300    6.4346    0.0000 H   0  0  0  0  0  0  0  0  0  0  0  0
    3.1200    4.7856    0.0000 H   0  0  0  0  0  0  0  0  0  0  0  0
    2.5000    4.1656    0.0000 H   0  0  0  0  0  0  0  0  0  0  0  0
    3.1200    3.5456    0.0000 H   0  0  0  0  0  0  0  0  0  0  0  0
    5.9300   -5.8976    0.0000 H   0  0  0  0  0  0  0  0  0  0  0  0
    2.0000   -5.3607    0.0000 H   0  0  0  0  0  0  0  0  0  0  0  0
    2.9300   -5.8976    0.0000 H   0  0  0  0  0  0  0  0  0  0  0  0
  1  2  1  0  0  0  0
  1 27  1  0  0  0  0
  2 34  1  0  0  0  0
  3 24  2  0  0  0  0
  4 25  2  0  0  0  0
  5 30  2  0  0  0  0
  6 32  2  0  0  0  0
  7 39  1  0  0  0  0
  7 80  1  0  0  0  0
  8 39  2  0  0  0  0
  9 43  2  0  0  0  0
 10 45  2  0  0  0  0
 11 19  1  0  0  0  0
 11 24  1  0  0  0  0
 11 54  1  0  0  0  0
 12 22  1  0  0  0  0
 12 25  1  0  0  0  0
 12 55  1  0  0  0  0
 13 20  1  0  0  0  0
 13 32  1  0  0  0  0
 13 56  1  0  0  0  0
 29 14  1  6  0  0  0
 14 30  1  0  0  0  0
 14 61  1  0  0  0  0
 15 28  1  0  0  0  0
 15 40  1  0  0  0  0
 15 68  1  0  0  0  0
 26 16  1  6  0  0  0
 16 43  1  0  0  0  0
 16 69  1  0  0  0  0
 17 36  1  0  0  0  0
 17 40  2  0  0  0  0
 18 45  1  0  0  0  0
 18 81  1  0  0  0  0
 18 82  1  0  0  0  0
 19 21  1  6  0  0  0
 19 25  1  0  0  0  0
 19 47  1  0  0  0  0
 20 23  1  1  0  0  0
 20 24  1  0  0  0  0
 20 48  1  0  0  0  0
 21 28  1  0  0  0  0
 21 49  1  0  0  0  0
 21 50  1  0  0  0  0
 22 27  1  0  0  0  0
 22 30  1  6  0  0  0
 22 51  1  0  0  0  0
 23 31  1  0  0  0  0
 23 52  1  0  0  0  0
 23 53  1  0  0  0  0
 26 32  1  0  0  0  0
 26 34  1  0  0  0  0
 26 57  1  0  0  0  0
 27 58  1  0  0  0  0
 27 59  1  0  0  0  0
 28 36  2  0  0  0  0
 29 33  1  0  0  0  0
 29 39  1  0  0  0  0
 29 60  1  0  0  0  0
 31 37  2  0  0  0  0
 31 38  1  0  0  0  0
 33 35  1  0  0  0  0
 33 62  1  0  0  0  0
 33 63  1  0  0  0  0
 34 64  1  0  0  0  0
 34 65  1  0  0  0  0
 35 45  1  0  0  0  0
 35 66  1  0  0  0  0
 35 67  1  0  0  0  0
 36 70  1  0  0  0  0
 37 41  1  0  0  0  0
 37 71  1  0  0  0  0
 38 42  2  0  0  0  0
 38 72  1  0  0  0  0
 40 73  1  0  0  0  0
 41 44  2  0  0  0  0
 41 74  1  0  0  0  0
 42 44  1  0  0  0  0
 42 75  1  0  0  0  0
 43 46  1  0  0  0  0
 44 76  1  0  0  0  0
 46 77  1  0  0  0  0
 46 78  1  0  0  0  0
 46 79  1  0  0  0  0
M  END
> <PUBCHEM_COMPOUND_CID>
502162
> <PUBCHEM_COMPOUND_CANONICALIZED>
1
> <PUBCHEM_CACTVS_COMPLEXITY>
1130
> <PUBCHEM_CACTVS_HBOND_ACCEPTOR>
11
> <PUBCHEM_CACTVS_HBOND_DONOR>
8
> <PUBCHEM_CACTVS_ROTATABLE_BOND>
11
> <PUBCHEM_CACTVS_SUBSKEYS>
AAADcfB7/ABgAAAAAAAAAAAAAAAAAWAAAAAwAAAAAAAAAAABwAAAHgQQCAAADCjF3gS/mJbJkgCoAzX3fAACgC2xEqAJ2YG4cIiKaDLA2TGUYAAslgLYyCecn4COAAAAAAAAAAAAAAAAAAAAAAAAAAAAAA==
> <PUBCHEM_IUPAC_OPENEYE_NAME>
(2S)-2-[[(4R,7S,10S,13R)-13-acetamido-10-benzyl-7-(1H-imidazol-5-ylmethyl)-6,9,12-trioxo-1,2-dithia-5,8,11-triazacyclotetradecane-4-carbonyl]amino]-5-amino-5-oxo-pentanoic acid
> <PUBCHEM_IUPAC_CAS_NAME>
(2S)-2-[[[(4R,7S,10S,13R)-13-acetamido-7-(1H-imidazol-5-ylmethyl)-6,9,12-trioxo-10-(phenylmethyl)-1,2-dithia-5,8,11-triazacyclotetradec-4-yl]-oxomethyl]amino]-5-amino-5-oxopentanoic acid
> <PUBCHEM_IUPAC_NAME_MARKUP>
(2<I>S</I>)-2-[[(4<I>R</I>,7<I>S</I>,10<I>S</I>,13<I>R</I>)-13-acetamido-10-benzyl-7-(1<I>H</I>-imidazol-5-ylmethyl)-6,9,12-trioxo-1,2-dithia-5,8,11-triazacyclotetradecane-4-carbonyl]amino]-5-amino-5-oxopentanoic acid
> <PUBCHEM_IUPAC_NAME>
(2S)-2-[[(4R,7S,10S,13R)-13-acetamido-10-benzyl-7-(1H-imidazol-5-ylmethyl)-6,9,12-trioxo-1,2-dithia-5,8,11-triazacyclotetradecane-4-carbonyl]amino]-5-amino-5-oxopentanoic acid
> <PUBCHEM_IUPAC_SYSTEMATIC_NAME>
(2S)-2-[[(4R,7S,10S,13R)-13-acetamido-7-(1H-imidazol-5-ylmethyl)-6,9,12-tris(oxidanylidene)-10-(phenylmethyl)-1,2-dithia-5,8,11-triazacyclotetradec-4-yl]carbonylamino]-5-azanyl-5-oxidanylidene-pentanoic acid
> <PUBCHEM_IUPAC_TRADITIONAL_NAME>
(2S)-2-[[(4R,7S,10S,13R)-13-acetamido-10-benzyl-7-(1H-imidazol-5-ylmethyl)-6,9,12-triketo-1,2-dithia-5,8,11-triazacyclotetradecane-4-carbonyl]amino]-5-amino-5-keto-valeric acid
> <PUBCHEM_IUPAC_INCHI>
InChI=1S/C28H36N8O8S2/c1-15(37)32-21-12-45-46-13-22(27(42)33-18(28(43)44)7-8-23(29)38)36-25(40)20(10-17-11-30-14-31-17)35-24(39)19(34-26(21)41)9-16-5-3-2-4-6-16/h2-6,11,14,18-22H,7-10,12-13H2,1H3,(H2,29,38)(H,30,31)(H,32,37)(H,33,42)(H,34,41)(H,35,39)(H,36,40)(H,43,44)/t18-,19-,20-,21-,22-/m0/s1
> <PUBCHEM_IUPAC_INCHIKEY>
XAFZNSDJNXOXIT-YFNVTMOMSA-N
> <PUBCHEM_XLOGP3_AA>
-1.6
> <PUBCHEM_EXACT_MASS>
676.20975248
> <PUBCHEM_MOLECULAR_FORMULA>
C28H36N8O8S2
> <PUBCHEM_MOLECULAR_WEIGHT>
676.8
> <PUBCHEM_OPENEYE_CAN_SMILES>
CC(=O)NC1CSSCC(NC(=O)C(NC(=O)C(NC1=O)CC2=CC=CC=C2)CC3=CN=CN3)C(=O)NC(CCC(=O)N)C(=O)O
> <PUBCHEM_OPENEYE_ISO_SMILES>
CC(=O)N[C@H]1CSSC[C@H](NC(=O)[C@@H](NC(=O)[C@@H](NC1=O)CC2=CC=CC=C2)CC3=CN=CN3)C(=O)N[C@@H](CCC(=O)N)C(=O)O
> <PUBCHEM_CACTVS_TPSA>
305
> <PUBCHEM_MONOISOTOPIC_WEIGHT>
676.20975248
> <PUBCHEM_TOTAL_CHARGE>
0
> <PUBCHEM_HEAVY_ATOM_COUNT>
46
> <PUBCHEM_ATOM_DEF_STEREO_COUNT>
5
> <PUBCHEM_ATOM_UDEF_STEREO_COUNT>
0
> <PUBCHEM_BOND_DEF_STEREO_COUNT>
0
> <PUBCHEM_BOND_UDEF_STEREO_COUNT>
0
> <PUBCHEM_ISOTOPIC_ATOM_COUNT>
0
> <PUBCHEM_COMPONENT_COUNT>
1
> <PUBCHEM_CACTVS_TAUTO_COUNT>
-1
> <PUBCHEM_COORDINATE_TYPE>
1
5
255
> <PUBCHEM_BONDANNOTATIONS>
29  14  6
15  28  8
15  40  8
26  16  6
17  36  8
17  40  8
19  21  6
20  23  5
22  30  6
28  36  8
31  37  8
31  38  8
37  41  8
38  42  8
41  44  8
42  44  8
$$$$
