502152
  -OEChem-10302200282D
105107  0     1  0  0  0  0  0999 V2000
    5.3934   -6.2432    0.0000 O   0  0  0  0  0  0  0  0  0  0  0  0
    7.9915   -3.7432    0.0000 O   0  0  0  0  0  0  0  0  0  0  0  0
    4.5274   -4.7432    0.0000 O   0  0  0  0  0  0  0  0  0  0  0  0
    7.1254   -0.2432    0.0000 O   0  0  0  0  0  0  0  0  0  0  0  0
   10.5895   -3.2432    0.0000 O   0  0  0  0  0  0  0  0  0  0  0  0
    6.2594   -4.7432    0.0000 N   0  0  0  0  0  0  0  0  0  0  0  0
    7.1254   -2.2432    0.0000 N   0  0  0  0  0  0  0  0  0  0  0  0
    8.8575   -0.2432    0.0000 N   0  0  0  0  0  0  0  0  0  0  0  0
   10.5895    2.7568    0.0000 N   0  0  0  0  0  0  0  0  0  0  0  0
   12.3216    6.7568    0.0000 N   0  0  0  0  0  0  0  0  0  0  0  0
    3.6613   -0.2432    0.0000 N   0  0  0  0  0  0  0  0  0  0  0  0
   11.4556   -1.7432    0.0000 N   0  0  0  0  0  0  0  0  0  0  0  0
   14.0536    9.7568    0.0000 N   0  0  0  0  0  0  0  0  0  0  0  0
    4.5274   -7.7432    0.0000 C   0  0  0  0  0  0  0  0  0  0  0  0
    5.3364   -8.3310    0.0000 C   0  0  0  0  0  0  0  0  0  0  0  0
    3.7183   -8.3310    0.0000 C   0  0  0  0  0  0  0  0  0  0  0  0
    5.0274   -9.2820    0.0000 C   0  0  0  0  0  0  0  0  0  0  0  0
    4.0274   -9.2820    0.0000 C   0  0  0  0  0  0  0  0  0  0  0  0
    4.5274   -6.7432    0.0000 C   0  0  0  0  0  0  0  0  0  0  0  0
    6.3518   -8.0988    0.0000 C   0  0  0  0  0  0  0  0  0  0  0  0
    2.7029   -8.0988    0.0000 C   0  0  0  0  0  0  0  0  0  0  0  0
    5.7123  -10.0668    0.0000 C   0  0  0  0  0  0  0  0  0  0  0  0
    3.3424  -10.0668    0.0000 C   0  0  0  0  0  0  0  0  0  0  0  0
    6.2594   -3.7432    0.0000 C   0  0  3  0  0  0  0  0  0  0  0  0
    5.3934   -3.2432    0.0000 C   0  0  0  0  0  0  0  0  0  0  0  0
    7.0547   -8.8674    0.0000 C   0  0  0  0  0  0  0  0  0  0  0  0
    2.0000   -8.8674    0.0000 C   0  0  0  0  0  0  0  0  0  0  0  0
    5.3934   -2.2432    0.0000 C   0  0  0  0  0  0  0  0  0  0  0  0
    6.7328   -9.8581    0.0000 C   0  0  0  0  0  0  0  0  0  0  0  0
    2.3219   -9.8581    0.0000 C   0  0  0  0  0  0  0  0  0  0  0  0
    7.9915   -1.7432    0.0000 C   0  0  3  0  0  0  0  0  0  0  0  0
    7.1254   -3.2432    0.0000 C   0  0  0  0  0  0  0  0  0  0  0  0
    4.5274   -1.7432    0.0000 C   0  0  0  0  0  0  0  0  0  0  0  0
    5.3934   -5.2432    0.0000 C   0  0  0  0  0  0  0  0  0  0  0  0
    8.8575   -2.2432    0.0000 C   0  0  0  0  0  0  0  0  0  0  0  0
    7.9915   -0.7432    0.0000 C   0  0  0  0  0  0  0  0  0  0  0  0
    9.7235   -1.7432    0.0000 C   0  0  0  0  0  0  0  0  0  0  0  0
    9.7235    1.2568    0.0000 C   0  0  0  0  0  0  0  0  0  0  0  0
    8.8575    0.7568    0.0000 C   0  0  0  0  0  0  0  0  0  0  0  0
    4.5274   -0.7432    0.0000 C   0  0  0  0  0  0  0  0  0  0  0  0
    9.7235    2.2568    0.0000 C   0  0  0  0  0  0  0  0  0  0  0  0
   11.4556    4.2568    0.0000 C   0  0  0  0  0  0  0  0  0  0  0  0
   10.5895    3.7568    0.0000 C   0  0  0  0  0  0  0  0  0  0  0  0
   11.4556    5.2568    0.0000 C   0  0  0  0  0  0  0  0  0  0  0  0
   12.3216    5.7568    0.0000 C   0  0  0  0  0  0  0  0  0  0  0  0
   10.5895   -2.2432    0.0000 C   0  0  0  0  0  0  0  0  0  0  0  0
   13.1876    7.2568    0.0000 C   0  0  0  0  0  0  0  0  0  0  0  0
   13.1876    8.2568    0.0000 C   0  0  0  0  0  0  0  0  0  0  0  0
   14.0536    8.7568    0.0000 C   0  0  0  0  0  0  0  0  0  0  0  0
    5.0798   -7.4617    0.0000 H   0  0  0  0  0  0  0  0  0  0  0  0
    4.3153   -6.1606    0.0000 H   0  0  0  0  0  0  0  0  0  0  0  0
    3.9168   -6.8509    0.0000 H   0  0  0  0  0  0  0  0  0  0  0  0
    6.5365   -7.5069    0.0000 H   0  0  0  0  0  0  0  0  0  0  0  0
    2.5182   -7.5069    0.0000 H   0  0  0  0  0  0  0  0  0  0  0  0
    5.5139  -10.6542    0.0000 H   0  0  0  0  0  0  0  0  0  0  0  0
    3.5408  -10.6542    0.0000 H   0  0  0  0  0  0  0  0  0  0  0  0
    6.7964   -4.0532    0.0000 H   0  0  0  0  0  0  0  0  0  0  0  0
    4.7828   -3.1356    0.0000 H   0  0  0  0  0  0  0  0  0  0  0  0
    5.1813   -3.8258    0.0000 H   0  0  0  0  0  0  0  0  0  0  0  0
    6.0040   -2.3509    0.0000 H   0  0  0  0  0  0  0  0  0  0  0  0
    5.6054   -1.6606    0.0000 H   0  0  0  0  0  0  0  0  0  0  0  0
    7.6607   -8.7362    0.0000 H   0  0  0  0  0  0  0  0  0  0  0  0
    1.3940   -8.7362    0.0000 H   0  0  0  0  0  0  0  0  0  0  0  0
    7.1459  -10.3204    0.0000 H   0  0  0  0  0  0  0  0  0  0  0  0
    1.9088  -10.3204    0.0000 H   0  0  0  0  0  0  0  0  0  0  0  0
    7.4545   -1.4332    0.0000 H   0  0  0  0  0  0  0  0  0  0  0  0
    6.7964   -5.0532    0.0000 H   0  0  0  0  0  0  0  0  0  0  0  0
    6.5885   -1.9332    0.0000 H   0  0  0  0  0  0  0  0  0  0  0  0
    3.9168   -1.6356    0.0000 H   0  0  0  0  0  0  0  0  0  0  0  0
    4.3153   -2.3258    0.0000 H   0  0  0  0  0  0  0  0  0  0  0  0
    8.4590   -2.7182    0.0000 H   0  0  0  0  0  0  0  0  0  0  0  0
    9.2560   -2.7182    0.0000 H   0  0  0  0  0  0  0  0  0  0  0  0
   10.1220   -1.2683    0.0000 H   0  0  0  0  0  0  0  0  0  0  0  0
    9.3250   -1.2683    0.0000 H   0  0  0  0  0  0  0  0  0  0  0  0
    9.9356    0.6742    0.0000 H   0  0  0  0  0  0  0  0  0  0  0  0
   10.3341    1.3644    0.0000 H   0  0  0  0  0  0  0  0  0  0  0  0
    8.6454    1.3394    0.0000 H   0  0  0  0  0  0  0  0  0  0  0  0
    8.2469    0.6491    0.0000 H   0  0  0  0  0  0  0  0  0  0  0  0
    5.1379   -0.8509    0.0000 H   0  0  0  0  0  0  0  0  0  0  0  0
    4.7394   -0.1606    0.0000 H   0  0  0  0  0  0  0  0  0  0  0  0
    9.5115    2.8394    0.0000 H   0  0  0  0  0  0  0  0  0  0  0  0
    9.1129    2.1491    0.0000 H   0  0  0  0  0  0  0  0  0  0  0  0
    9.3944   -0.5532    0.0000 H   0  0  0  0  0  0  0  0  0  0  0  0
   11.6676    3.6742    0.0000 H   0  0  0  0  0  0  0  0  0  0  0  0
   12.0661    4.3644    0.0000 H   0  0  0  0  0  0  0  0  0  0  0  0
   10.3775    4.3394    0.0000 H   0  0  0  0  0  0  0  0  0  0  0  0
    9.9790    3.6491    0.0000 H   0  0  0  0  0  0  0  0  0  0  0  0
   11.2435    5.8394    0.0000 H   0  0  0  0  0  0  0  0  0  0  0  0
   10.8450    5.1491    0.0000 H   0  0  0  0  0  0  0  0  0  0  0  0
   11.1265    2.4468    0.0000 H   0  0  0  0  0  0  0  0  0  0  0  0
   12.5336    5.1742    0.0000 H   0  0  0  0  0  0  0  0  0  0  0  0
   12.9322    5.8644    0.0000 H   0  0  0  0  0  0  0  0  0  0  0  0
   11.7847    7.0668    0.0000 H   0  0  0  0  0  0  0  0  0  0  0  0
   13.3997    6.6742    0.0000 H   0  0  0  0  0  0  0  0  0  0  0  0
   13.7982    7.3644    0.0000 H   0  0  0  0  0  0  0  0  0  0  0  0
    3.6613    0.3768    0.0000 H   0  0  0  0  0  0  0  0  0  0  0  0
    3.1244   -0.5532    0.0000 H   0  0  0  0  0  0  0  0  0  0  0  0
   12.9756    8.8394    0.0000 H   0  0  0  0  0  0  0  0  0  0  0  0
   12.5770    8.1491    0.0000 H   0  0  0  0  0  0  0  0  0  0  0  0
   14.2657    8.1742    0.0000 H   0  0  0  0  0  0  0  0  0  0  0  0
   14.6642    8.8644    0.0000 H   0  0  0  0  0  0  0  0  0  0  0  0
   11.9925   -2.0532    0.0000 H   0  0  0  0  0  0  0  0  0  0  0  0
   11.4556   -1.1232    0.0000 H   0  0  0  0  0  0  0  0  0  0  0  0
   14.5906   10.0668    0.0000 H   0  0  0  0  0  0  0  0  0  0  0  0
   13.5167   10.0668    0.0000 H   0  0  0  0  0  0  0  0  0  0  0  0
  1 19  1  0  0  0  0
  1 34  1  0  0  0  0
  2 32  2  0  0  0  0
  3 34  2  0  0  0  0
  4 36  2  0  0  0  0
  5 46  2  0  0  0  0
  6 24  1  0  0  0  0
  6 34  1  0  0  0  0
  6 67  1  0  0  0  0
  7 31  1  0  0  0  0
  7 32  1  0  0  0  0
  7 68  1  0  0  0  0
  8 36  1  0  0  0  0
  8 39  1  0  0  0  0
  8 83  1  0  0  0  0
  9 41  1  0  0  0  0
  9 43  1  0  0  0  0
  9 90  1  0  0  0  0
 10 45  1  0  0  0  0
 10 47  1  0  0  0  0
 10 93  1  0  0  0  0
 11 40  1  0  0  0  0
 11 96  1  0  0  0  0
 11 97  1  0  0  0  0
 12 46  1  0  0  0  0
 12102  1  0  0  0  0
 12103  1  0  0  0  0
 13 49  1  0  0  0  0
 13104  1  0  0  0  0
 13105  1  0  0  0  0
 14 15  1  0  0  0  0
 14 16  1  0  0  0  0
 14 19  1  0  0  0  0
 14 50  1  0  0  0  0
 15 17  1  0  0  0  0
 15 20  2  0  0  0  0
 16 18  1  0  0  0  0
 16 21  2  0  0  0  0
 17 18  1  0  0  0  0
 17 22  2  0  0  0  0
 18 23  2  0  0  0  0
 19 51  1  0  0  0  0
 19 52  1  0  0  0  0
 20 26  1  0  0  0  0
 20 53  1  0  0  0  0
 21 27  1  0  0  0  0
 21 54  1  0  0  0  0
 22 29  1  0  0  0  0
 22 55  1  0  0  0  0
 23 30  1  0  0  0  0
 23 56  1  0  0  0  0
 24 25  1  0  0  0  0
 24 32  1  0  0  0  0
 24 57  1  0  0  0  0
 25 28  1  0  0  0  0
 25 58  1  0  0  0  0
 25 59  1  0  0  0  0
 26 29  2  0  0  0  0
 26 62  1  0  0  0  0
 27 30  2  0  0  0  0
 27 63  1  0  0  0  0
 28 33  1  0  0  0  0
 28 60  1  0  0  0  0
 28 61  1  0  0  0  0
 29 64  1  0  0  0  0
 30 65  1  0  0  0  0
 31 35  1  0  0  0  0
 31 36  1  0  0  0  0
 31 66  1  0  0  0  0
 33 40  1  0  0  0  0
 33 69  1  0  0  0  0
 33 70  1  0  0  0  0
 35 37  1  0  0  0  0
 35 71  1  0  0  0  0
 35 72  1  0  0  0  0
 37 46  1  0  0  0  0
 37 73  1  0  0  0  0
 37 74  1  0  0  0  0
 38 39  1  0  0  0  0
 38 41  1  0  0  0  0
 38 75  1  0  0  0  0
 38 76  1  0  0  0  0
 39 77  1  0  0  0  0
 39 78  1  0  0  0  0
 40 79  1  0  0  0  0
 40 80  1  0  0  0  0
 41 81  1  0  0  0  0
 41 82  1  0  0  0  0
 42 43  1  0  0  0  0
 42 44  1  0  0  0  0
 42 84  1  0  0  0  0
 42 85  1  0  0  0  0
 43 86  1  0  0  0  0
 43 87  1  0  0  0  0
 44 45  1  0  0  0  0
 44 88  1  0  0  0  0
 44 89  1  0  0  0  0
 45 91  1  0  0  0  0
 45 92  1  0  0  0  0
 47 48  1  0  0  0  0
 47 94  1  0  0  0  0
 47 95  1  0  0  0  0
 48 49  1  0  0  0  0
 48 98  1  0  0  0  0
 48 99  1  0  0  0  0
 49100  1  0  0  0  0
 49101  1  0  0  0  0
M  END
> <PUBCHEM_COMPOUND_CID>
502152
> <PUBCHEM_COMPOUND_CANONICALIZED>
1
> <PUBCHEM_CACTVS_COMPLEXITY>
965
> <PUBCHEM_CACTVS_HBOND_ACCEPTOR>
9
> <PUBCHEM_CACTVS_HBOND_DONOR>
8
> <PUBCHEM_CACTVS_ROTATABLE_BOND>
26
> <PUBCHEM_CACTVS_SUBSKEYS>
AAADcfB/+AAAAAAAAAAAAAAAAAAAAYAAAAAwYAAAAAAAAGABQAAAHgAQAAAADSjhmAYwCILABACIAiFSGAACAAAgAAAIiIGIAIkIYDKA0TCcIAAk1gGIiAecy/AOgAAAAAAQAAAAAAAAACAAAQAACAAAAA==
> <PUBCHEM_IUPAC_OPENEYE_NAME>
9H-fluoren-9-ylmethyl N-[5-amino-1-[[4-amino-1-[3-[4-(3-aminopropylamino)butylamino]propylcarbamoyl]-4-oxo-butyl]carbamoyl]pentyl]carbamate
> <PUBCHEM_IUPAC_CAS_NAME>
N-[6-amino-1-[[5-amino-1-[3-[4-(3-aminopropylamino)butylamino]propylamino]-1,5-dioxopentan-2-yl]amino]-1-oxohexan-2-yl]carbamic acid 9H-fluoren-9-ylmethyl ester
> <PUBCHEM_IUPAC_NAME_MARKUP>
9<I>H</I>-fluoren-9-ylmethyl <I>N</I>-[6-amino-1-[[5-amino-1-[3-[4-(3-aminopropylamino)butylamino]propylamino]-1,5-dioxopentan-2-yl]amino]-1-oxohexan-2-yl]carbamate
> <PUBCHEM_IUPAC_NAME>
9H-fluoren-9-ylmethyl N-[6-amino-1-[[5-amino-1-[3-[4-(3-aminopropylamino)butylamino]propylamino]-1,5-dioxopentan-2-yl]amino]-1-oxohexan-2-yl]carbamate
> <PUBCHEM_IUPAC_SYSTEMATIC_NAME>
9H-fluoren-9-ylmethyl N-[6-azanyl-1-[[5-azanyl-1-[3-[4-(3-azanylpropylamino)butylamino]propylamino]-1,5-bis(oxidanylidene)pentan-2-yl]amino]-1-oxidanylidene-hexan-2-yl]carbamate
> <PUBCHEM_IUPAC_TRADITIONAL_NAME>
N-[5-amino-1-[[4-amino-1-[3-[4-(3-aminopropylamino)butylamino]propylcarbamoyl]-4-keto-butyl]carbamoyl]pentyl]carbamic acid 9H-fluoren-9-ylmethyl ester
> <PUBCHEM_IUPAC_INCHI>
InChI=1S/C36H56N8O5/c37-18-6-5-15-31(44-36(48)49-25-30-28-13-3-1-11-26(28)27-12-2-4-14-29(27)30)35(47)43-32(16-17-33(39)45)34(46)42-24-10-23-41-21-8-7-20-40-22-9-19-38/h1-4,11-14,30-32,40-41H,5-10,15-25,37-38H2,(H2,39,45)(H,42,46)(H,43,47)(H,44,48)
> <PUBCHEM_IUPAC_INCHIKEY>
UMVIRIMBUHSBHT-UHFFFAOYSA-N
> <PUBCHEM_XLOGP3_AA>
0.8
> <PUBCHEM_EXACT_MASS>
680.43736692
> <PUBCHEM_MOLECULAR_FORMULA>
C36H56N8O5
> <PUBCHEM_MOLECULAR_WEIGHT>
680.9
> <PUBCHEM_OPENEYE_CAN_SMILES>
C1=CC=C2C(=C1)C(C3=CC=CC=C32)COC(=O)NC(CCCCN)C(=O)NC(CCC(=O)N)C(=O)NCCCNCCCCNCCCN
> <PUBCHEM_OPENEYE_ISO_SMILES>
C1=CC=C2C(=C1)C(C3=CC=CC=C32)COC(=O)NC(CCCCN)C(=O)NC(CCC(=O)N)C(=O)NCCCNCCCCNCCCN
> <PUBCHEM_CACTVS_TPSA>
216
> <PUBCHEM_MONOISOTOPIC_WEIGHT>
680.43736692
> <PUBCHEM_TOTAL_CHARGE>
0
> <PUBCHEM_HEAVY_ATOM_COUNT>
49
> <PUBCHEM_ATOM_DEF_STEREO_COUNT>
0
> <PUBCHEM_ATOM_UDEF_STEREO_COUNT>
2
> <PUBCHEM_BOND_DEF_STEREO_COUNT>
0
> <PUBCHEM_BOND_UDEF_STEREO_COUNT>
0
> <PUBCHEM_ISOTOPIC_ATOM_COUNT>
0
> <PUBCHEM_COMPONENT_COUNT>
1
> <PUBCHEM_CACTVS_TAUTO_COUNT>
-1
> <PUBCHEM_COORDINATE_TYPE>
1
5
255
> <PUBCHEM_BONDANNOTATIONS>
15  17  8
15  20  8
16  18  8
16  21  8
17  22  8
18  23  8
20  26  8
21  27  8
22  29  8
23  30  8
24  25  3
26  29  8
27  30  8
31  35  3
$$$$
