502161
  -OEChem-10302200282D
 83 85  0     1  0  0  0  0  0999 V2000
    6.1200    0.2685    0.0000 S   0  0  0  0  0  0  0  0  0  0  0  0
    5.6200    1.1345    0.0000 S   0  0  0  0  0  0  0  0  0  0  0  0
    6.6201    2.8666    0.0000 O   0  0  0  0  0  0  0  0  0  0  0  0
    8.6200   -0.5976    0.0000 O   0  0  0  0  0  0  0  0  0  0  0  0
    4.6200   -2.3296    0.0000 O   0  0  0  0  0  0  0  0  0  0  0  0
    5.6200    4.5986    0.0000 O   0  0  0  0  0  0  0  0  0  0  0  0
    5.6200   -5.7937    0.0000 O   0  0  0  0  0  0  0  0  0  0  0  0
    7.1200   -4.9277    0.0000 O   0  0  0  0  0  0  0  0  0  0  0  0
   10.6200    6.3306    0.0000 O   0  0  0  0  0  0  0  0  0  0  0  0
    4.6200    4.5986    0.0000 O   0  0  0  0  0  0  0  0  0  0  0  0
    2.6200   -4.0617    0.0000 O   0  0  0  0  0  0  0  0  0  0  0  0
    7.6200    1.1345    0.0000 N   0  0  0  0  0  0  0  0  0  0  0  0
    7.1200   -1.4636    0.0000 N   0  0  0  0  0  0  0  0  0  0  0  0
    7.1200    3.7326    0.0000 N   0  0  0  0  0  0  0  0  0  0  0  0
    6.1200   -3.1956    0.0000 N   0  0  0  0  0  0  0  0  0  0  0  0
    4.5852    1.1285    0.0000 N   0  0  0  0  0  0  0  0  0  0  0  0
    4.6200    2.8665    0.0000 N   0  0  0  0  0  0  0  0  0  0  0  0
    4.1392   -0.4269    0.0000 N   0  0  0  0  0  0  0  0  0  0  0  0
    2.6200   -5.7937    0.0000 N   0  0  0  0  0  0  0  0  0  0  0  0
    7.1200    0.2685    0.0000 C   0  0  1  0  0  0  0  0  0  0  0  0
    7.6200    2.8665    0.0000 C   0  0  1  0  0  0  0  0  0  0  0  0
    6.3540    0.9113    0.0000 C   0  0  0  0  0  0  0  0  0  0  0  0
    8.6200    2.8665    0.0000 C   0  0  0  0  0  0  0  0  0  0  0  0
    6.1200   -1.4636    0.0000 C   0  0  1  0  0  0  0  0  0  0  0  0
    7.1200    2.0005    0.0000 C   0  0  0  0  0  0  0  0  0  0  0  0
    7.6200   -0.5976    0.0000 C   0  0  0  0  0  0  0  0  0  0  0  0
    5.6200    2.8665    0.0000 C   0  0  2  0  0  0  0  0  0  0  0  0
    5.6200   -0.5976    0.0000 C   0  0  0  0  0  0  0  0  0  0  0  0
    5.4143    0.5693    0.0000 C   0  0  0  0  0  0  0  0  0  0  0  0
    9.1200    3.7326    0.0000 C   0  0  0  0  0  0  0  0  0  0  0  0
    5.6200   -2.3296    0.0000 C   0  0  0  0  0  0  0  0  0  0  0  0
    5.6200   -4.0617    0.0000 C   0  0  1  0  0  0  0  0  0  0  0  0
    6.1200    3.7326    0.0000 C   0  0  0  0  0  0  0  0  0  0  0  0
    4.6200   -4.0617    0.0000 C   0  0  0  0  0  0  0  0  0  0  0  0
    6.1200    2.0005    0.0000 C   0  0  0  0  0  0  0  0  0  0  0  0
    4.1200   -4.9277    0.0000 C   0  0  0  0  0  0  0  0  0  0  0  0
    8.6200    4.5986    0.0000 C   0  0  0  0  0  0  0  0  0  0  0  0
   10.1200    3.7326    0.0000 C   0  0  0  0  0  0  0  0  0  0  0  0
    5.1386   -0.3921    0.0000 C   0  0  0  0  0  0  0  0  0  0  0  0
    6.1200   -4.9277    0.0000 C   0  0  0  0  0  0  0  0  0  0  0  0
    3.7972    0.5128    0.0000 C   0  0  0  0  0  0  0  0  0  0  0  0
    9.1200    5.4646    0.0000 C   0  0  0  0  0  0  0  0  0  0  0  0
   10.6200    4.5986    0.0000 C   0  0  0  0  0  0  0  0  0  0  0  0
   10.1200    5.4646    0.0000 C   0  0  0  0  0  0  0  0  0  0  0  0
    4.1200    3.7326    0.0000 C   0  0  0  0  0  0  0  0  0  0  0  0
    3.1200   -4.9277    0.0000 C   0  0  0  0  0  0  0  0  0  0  0  0
    3.1200    3.7326    0.0000 C   0  0  0  0  0  0  0  0  0  0  0  0
    7.0124    0.8791    0.0000 H   0  0  0  0  0  0  0  0  0  0  0  0
    7.9300    3.4035    0.0000 H   0  0  0  0  0  0  0  0  0  0  0  0
    6.8290    1.3098    0.0000 H   0  0  0  0  0  0  0  0  0  0  0  0
    6.0440    1.4483    0.0000 H   0  0  0  0  0  0  0  0  0  0  0  0
    8.5123    2.2560    0.0000 H   0  0  0  0  0  0  0  0  0  0  0  0
    9.2026    2.6545    0.0000 H   0  0  0  0  0  0  0  0  0  0  0  0
    6.4300   -2.0005    0.0000 H   0  0  0  0  0  0  0  0  0  0  0  0
    8.2400    1.1345    0.0000 H   0  0  0  0  0  0  0  0  0  0  0  0
    7.4300   -2.0005    0.0000 H   0  0  0  0  0  0  0  0  0  0  0  0
    7.4300    4.2695    0.0000 H   0  0  0  0  0  0  0  0  0  0  0  0
    5.3100    2.3296    0.0000 H   0  0  0  0  0  0  0  0  0  0  0  0
    5.1450   -0.1990    0.0000 H   0  0  0  0  0  0  0  0  0  0  0  0
    5.1450   -0.9961    0.0000 H   0  0  0  0  0  0  0  0  0  0  0  0
    6.2400   -4.0617    0.0000 H   0  0  0  0  0  0  0  0  0  0  0  0
    6.7400   -3.1956    0.0000 H   0  0  0  0  0  0  0  0  0  0  0  0
    4.7277   -3.4511    0.0000 H   0  0  0  0  0  0  0  0  0  0  0  0
    4.0374   -3.8496    0.0000 H   0  0  0  0  0  0  0  0  0  0  0  0
    6.5950    1.6020    0.0000 H   0  0  0  0  0  0  0  0  0  0  0  0
    6.5950    2.3990    0.0000 H   0  0  0  0  0  0  0  0  0  0  0  0
    4.5636    1.7481    0.0000 H   0  0  0  0  0  0  0  0  0  0  0  0
    4.0123   -5.5383    0.0000 H   0  0  0  0  0  0  0  0  0  0  0  0
    4.7026   -5.1397    0.0000 H   0  0  0  0  0  0  0  0  0  0  0  0
    4.3100    2.3296    0.0000 H   0  0  0  0  0  0  0  0  0  0  0  0
    8.0000    4.5986    0.0000 H   0  0  0  0  0  0  0  0  0  0  0  0
   10.4300    3.1956    0.0000 H   0  0  0  0  0  0  0  0  0  0  0  0
    5.5204   -0.8806    0.0000 H   0  0  0  0  0  0  0  0  0  0  0  0
    3.2012    0.6837    0.0000 H   0  0  0  0  0  0  0  0  0  0  0  0
    8.8100    6.0016    0.0000 H   0  0  0  0  0  0  0  0  0  0  0  0
   11.2400    4.5986    0.0000 H   0  0  0  0  0  0  0  0  0  0  0  0
    3.1200    4.3526    0.0000 H   0  0  0  0  0  0  0  0  0  0  0  0
    2.5000    3.7326    0.0000 H   0  0  0  0  0  0  0  0  0  0  0  0
    3.1200    3.1126    0.0000 H   0  0  0  0  0  0  0  0  0  0  0  0
    5.9300   -6.3306    0.0000 H   0  0  0  0  0  0  0  0  0  0  0  0
    2.0000   -5.7937    0.0000 H   0  0  0  0  0  0  0  0  0  0  0  0
    2.9300   -6.3306    0.0000 H   0  0  0  0  0  0  0  0  0  0  0  0
   11.2400    6.3306    0.0000 H   0  0  0  0  0  0  0  0  0  0  0  0
  1  2  1  0  0  0  0
  1 28  1  0  0  0  0
  2 35  1  0  0  0  0
  3 25  2  0  0  0  0
  4 26  2  0  0  0  0
  5 31  2  0  0  0  0
  6 33  2  0  0  0  0
  7 40  1  0  0  0  0
  7 80  1  0  0  0  0
  8 40  2  0  0  0  0
  9 44  1  0  0  0  0
  9 83  1  0  0  0  0
 10 45  2  0  0  0  0
 11 46  2  0  0  0  0
 12 20  1  0  0  0  0
 12 25  1  0  0  0  0
 12 55  1  0  0  0  0
 13 24  1  0  0  0  0
 13 26  1  0  0  0  0
 13 56  1  0  0  0  0
 14 21  1  0  0  0  0
 14 33  1  0  0  0  0
 14 57  1  0  0  0  0
 15 31  1  0  0  0  0
 32 15  1  6  0  0  0
 15 62  1  0  0  0  0
 16 29  1  0  0  0  0
 16 41  1  0  0  0  0
 16 67  1  0  0  0  0
 27 17  1  6  0  0  0
 17 45  1  0  0  0  0
 17 70  1  0  0  0  0
 18 39  1  0  0  0  0
 18 41  2  0  0  0  0
 19 46  1  0  0  0  0
 19 81  1  0  0  0  0
 19 82  1  0  0  0  0
 20 22  1  6  0  0  0
 20 26  1  0  0  0  0
 20 48  1  0  0  0  0
 21 23  1  1  0  0  0
 21 25  1  0  0  0  0
 21 49  1  0  0  0  0
 22 29  1  0  0  0  0
 22 50  1  0  0  0  0
 22 51  1  0  0  0  0
 23 30  1  0  0  0  0
 23 52  1  0  0  0  0
 23 53  1  0  0  0  0
 24 28  1  0  0  0  0
 24 31  1  6  0  0  0
 24 54  1  0  0  0  0
 27 33  1  0  0  0  0
 27 35  1  0  0  0  0
 27 58  1  0  0  0  0
 28 59  1  0  0  0  0
 28 60  1  0  0  0  0
 29 39  2  0  0  0  0
 30 37  2  0  0  0  0
 30 38  1  0  0  0  0
 32 34  1  0  0  0  0
 32 40  1  0  0  0  0
 32 61  1  0  0  0  0
 34 36  1  0  0  0  0
 34 63  1  0  0  0  0
 34 64  1  0  0  0  0
 35 65  1  0  0  0  0
 35 66  1  0  0  0  0
 36 46  1  0  0  0  0
 36 68  1  0  0  0  0
 36 69  1  0  0  0  0
 37 42  1  0  0  0  0
 37 71  1  0  0  0  0
 38 43  2  0  0  0  0
 38 72  1  0  0  0  0
 39 73  1  0  0  0  0
 41 74  1  0  0  0  0
 42 44  2  0  0  0  0
 42 75  1  0  0  0  0
 43 44  1  0  0  0  0
 43 76  1  0  0  0  0
 45 47  1  0  0  0  0
 47 77  1  0  0  0  0
 47 78  1  0  0  0  0
 47 79  1  0  0  0  0
M  END
> <PUBCHEM_COMPOUND_CID>
502161
> <PUBCHEM_COMPOUND_CANONICALIZED>
1
> <PUBCHEM_CACTVS_COMPLEXITY>
1160
> <PUBCHEM_CACTVS_HBOND_ACCEPTOR>
12
> <PUBCHEM_CACTVS_HBOND_DONOR>
9
> <PUBCHEM_CACTVS_ROTATABLE_BOND>
11
> <PUBCHEM_CACTVS_SUBSKEYS>
AAADcfB7/ABgAAAAAAAAAAAAAAAAAWAAAAAwAAAAAAAAAAABwAAAHgQQCAAADCzF3gS/npbJkgCoAzX3fAACgC2xMqAJ2YG+eIiKbjLC2TOUcAAs1hPY2Cec36COIAAAAAAAAABAAAAAAAAAAAAAAAAAAA==
> <PUBCHEM_IUPAC_OPENEYE_NAME>
(2S)-2-[[(4R,7S,10S,13R)-13-acetamido-10-[(4-hydroxyphenyl)methyl]-7-(1H-imidazol-5-ylmethyl)-6,9,12-trioxo-1,2-dithia-5,8,11-triazacyclotetradecane-4-carbonyl]amino]-5-amino-5-oxo-pentanoic acid
> <PUBCHEM_IUPAC_CAS_NAME>
(2S)-2-[[[(4R,7S,10S,13R)-13-acetamido-10-[(4-hydroxyphenyl)methyl]-7-(1H-imidazol-5-ylmethyl)-6,9,12-trioxo-1,2-dithia-5,8,11-triazacyclotetradec-4-yl]-oxomethyl]amino]-5-amino-5-oxopentanoic acid
> <PUBCHEM_IUPAC_NAME_MARKUP>
(2<I>S</I>)-2-[[(4<I>R</I>,7<I>S</I>,10<I>S</I>,13<I>R</I>)-13-acetamido-10-[(4-hydroxyphenyl)methyl]-7-(1<I>H</I>-imidazol-5-ylmethyl)-6,9,12-trioxo-1,2-dithia-5,8,11-triazacyclotetradecane-4-carbonyl]amino]-5-amino-5-oxopentanoic acid
> <PUBCHEM_IUPAC_NAME>
(2S)-2-[[(4R,7S,10S,13R)-13-acetamido-10-[(4-hydroxyphenyl)methyl]-7-(1H-imidazol-5-ylmethyl)-6,9,12-trioxo-1,2-dithia-5,8,11-triazacyclotetradecane-4-carbonyl]amino]-5-amino-5-oxopentanoic acid
> <PUBCHEM_IUPAC_SYSTEMATIC_NAME>
(2S)-2-[[(4R,7S,10S,13R)-13-acetamido-10-[(4-hydroxyphenyl)methyl]-7-(1H-imidazol-5-ylmethyl)-6,9,12-tris(oxidanylidene)-1,2-dithia-5,8,11-triazacyclotetradec-4-yl]carbonylamino]-5-azanyl-5-oxidanylidene-pentanoic acid
> <PUBCHEM_IUPAC_TRADITIONAL_NAME>
(2S)-2-[[(4R,7S,10S,13R)-13-acetamido-10-(4-hydroxybenzyl)-7-(1H-imidazol-5-ylmethyl)-6,9,12-triketo-1,2-dithia-5,8,11-triazacyclotetradecane-4-carbonyl]amino]-5-amino-5-keto-valeric acid
> <PUBCHEM_IUPAC_INCHI>
InChI=1S/C28H36N8O9S2/c1-14(37)32-21-11-46-47-12-22(27(43)33-18(28(44)45)6-7-23(29)39)36-25(41)20(9-16-10-30-13-31-16)35-24(40)19(34-26(21)42)8-15-2-4-17(38)5-3-15/h2-5,10,13,18-22,38H,6-9,11-12H2,1H3,(H2,29,39)(H,30,31)(H,32,37)(H,33,43)(H,34,42)(H,35,40)(H,36,41)(H,44,45)/t18-,19-,20-,21-,22-/m0/s1
> <PUBCHEM_IUPAC_INCHIKEY>
GZGKGIMDEDOKKV-YFNVTMOMSA-N
> <PUBCHEM_XLOGP3_AA>
-1.9
> <PUBCHEM_EXACT_MASS>
692.20466710
> <PUBCHEM_MOLECULAR_FORMULA>
C28H36N8O9S2
> <PUBCHEM_MOLECULAR_WEIGHT>
692.8
> <PUBCHEM_OPENEYE_CAN_SMILES>
CC(=O)NC1CSSCC(NC(=O)C(NC(=O)C(NC1=O)CC2=CC=C(C=C2)O)CC3=CN=CN3)C(=O)NC(CCC(=O)N)C(=O)O
> <PUBCHEM_OPENEYE_ISO_SMILES>
CC(=O)N[C@H]1CSSC[C@H](NC(=O)[C@@H](NC(=O)[C@@H](NC1=O)CC2=CC=C(C=C2)O)CC3=CN=CN3)C(=O)N[C@@H](CCC(=O)N)C(=O)O
> <PUBCHEM_CACTVS_TPSA>
325
> <PUBCHEM_MONOISOTOPIC_WEIGHT>
692.20466710
> <PUBCHEM_TOTAL_CHARGE>
0
> <PUBCHEM_HEAVY_ATOM_COUNT>
47
> <PUBCHEM_ATOM_DEF_STEREO_COUNT>
5
> <PUBCHEM_ATOM_UDEF_STEREO_COUNT>
0
> <PUBCHEM_BOND_DEF_STEREO_COUNT>
0
> <PUBCHEM_BOND_UDEF_STEREO_COUNT>
0
> <PUBCHEM_ISOTOPIC_ATOM_COUNT>
0
> <PUBCHEM_COMPONENT_COUNT>
1
> <PUBCHEM_CACTVS_TAUTO_COUNT>
-1
> <PUBCHEM_COORDINATE_TYPE>
1
5
255
> <PUBCHEM_BONDANNOTATIONS>
32  15  6
16  29  8
16  41  8
27  17  6
18  39  8
18  41  8
20  22  6
21  23  5
24  31  6
29  39  8
30  37  8
30  38  8
37  42  8
38  43  8
42  44  8
43  44  8
$$$$
