502145
  -OEChem-10302200282D
 56 56  0     1  0  0  0  0  0999 V2000
    6.3301   -1.6550    0.0000 O   0  0  0  0  0  0  0  0  0  0  0  0
    2.8660   -2.6550    0.0000 O   0  0  0  0  0  0  0  0  0  0  0  0
    2.0000   -0.1550    0.0000 O   0  0  0  0  0  0  0  0  0  0  0  0
    5.4641   -0.1550    0.0000 N   0  0  0  0  0  0  0  0  0  0  0  0
    4.5981   -2.6550    0.0000 N   0  0  0  0  0  0  0  0  0  0  0  0
    8.9282    5.8450    0.0000 N   0  0  0  0  0  0  0  0  0  0  0  0
    2.8660    1.3450    0.0000 N   0  0  0  0  0  0  0  0  0  0  0  0
    7.1962    1.8450    0.0000 C   0  0  0  0  0  0  0  0  0  0  0  0
    7.1962    2.8450    0.0000 C   0  0  0  0  0  0  0  0  0  0  0  0
    6.3301    1.3450    0.0000 C   0  0  0  0  0  0  0  0  0  0  0  0
    8.0622    3.3450    0.0000 C   0  0  0  0  0  0  0  0  0  0  0  0
    6.3301    0.3450    0.0000 C   0  0  0  0  0  0  0  0  0  0  0  0
    4.5981   -1.6550    0.0000 C   0  0  3  0  0  0  0  0  0  0  0  0
    8.0622    4.3450    0.0000 C   0  0  0  0  0  0  0  0  0  0  0  0
    3.7320   -1.1550    0.0000 C   0  0  0  0  0  0  0  0  0  0  0  0
    5.4641   -1.1550    0.0000 C   0  0  0  0  0  0  0  0  0  0  0  0
    3.7320   -0.1550    0.0000 C   0  0  0  0  0  0  0  0  0  0  0  0
    8.9282    4.8450    0.0000 C   0  0  0  0  0  0  0  0  0  0  0  0
    3.7320   -3.1550    0.0000 C   0  0  0  0  0  0  0  0  0  0  0  0
    2.8660    0.3450    0.0000 C   0  0  0  0  0  0  0  0  0  0  0  0
    3.7320   -4.1550    0.0000 C   0  0  0  0  0  0  0  0  0  0  0  0
    2.8660   -4.6550    0.0000 C   0  0  0  0  0  0  0  0  0  0  0  0
    4.5981   -4.6550    0.0000 C   0  0  0  0  0  0  0  0  0  0  0  0
    2.8660   -5.6550    0.0000 C   0  0  0  0  0  0  0  0  0  0  0  0
    4.5981   -5.6550    0.0000 C   0  0  0  0  0  0  0  0  0  0  0  0
    3.7320   -6.1550    0.0000 C   0  0  0  0  0  0  0  0  0  0  0  0
    7.4082    1.2624    0.0000 H   0  0  0  0  0  0  0  0  0  0  0  0
    7.8067    1.9527    0.0000 H   0  0  0  0  0  0  0  0  0  0  0  0
    6.9841    3.4276    0.0000 H   0  0  0  0  0  0  0  0  0  0  0  0
    6.5856    2.7373    0.0000 H   0  0  0  0  0  0  0  0  0  0  0  0
    6.1181    1.9276    0.0000 H   0  0  0  0  0  0  0  0  0  0  0  0
    5.7196    1.2373    0.0000 H   0  0  0  0  0  0  0  0  0  0  0  0
    8.2742    2.7624    0.0000 H   0  0  0  0  0  0  0  0  0  0  0  0
    8.6728    3.4527    0.0000 H   0  0  0  0  0  0  0  0  0  0  0  0
    6.5422   -0.2376    0.0000 H   0  0  0  0  0  0  0  0  0  0  0  0
    6.9407    0.4527    0.0000 H   0  0  0  0  0  0  0  0  0  0  0  0
    5.1350   -1.9650    0.0000 H   0  0  0  0  0  0  0  0  0  0  0  0
    7.8501    4.9276    0.0000 H   0  0  0  0  0  0  0  0  0  0  0  0
    7.4516    4.2373    0.0000 H   0  0  0  0  0  0  0  0  0  0  0  0
    3.1215   -1.0473    0.0000 H   0  0  0  0  0  0  0  0  0  0  0  0
    3.5200   -1.7376    0.0000 H   0  0  0  0  0  0  0  0  0  0  0  0
    4.9272    0.1550    0.0000 H   0  0  0  0  0  0  0  0  0  0  0  0
    4.3426   -0.2627    0.0000 H   0  0  0  0  0  0  0  0  0  0  0  0
    3.9441    0.4276    0.0000 H   0  0  0  0  0  0  0  0  0  0  0  0
    9.1403    4.2624    0.0000 H   0  0  0  0  0  0  0  0  0  0  0  0
    9.5388    4.9527    0.0000 H   0  0  0  0  0  0  0  0  0  0  0  0
    5.1350   -2.9650    0.0000 H   0  0  0  0  0  0  0  0  0  0  0  0
    9.4651    6.1550    0.0000 H   0  0  0  0  0  0  0  0  0  0  0  0
    8.3913    6.1550    0.0000 H   0  0  0  0  0  0  0  0  0  0  0  0
    2.3291   -4.3450    0.0000 H   0  0  0  0  0  0  0  0  0  0  0  0
    5.1350   -4.3450    0.0000 H   0  0  0  0  0  0  0  0  0  0  0  0
    2.3291    1.6550    0.0000 H   0  0  0  0  0  0  0  0  0  0  0  0
    3.4030    1.6550    0.0000 H   0  0  0  0  0  0  0  0  0  0  0  0
    2.3291   -5.9650    0.0000 H   0  0  0  0  0  0  0  0  0  0  0  0
    5.1350   -5.9650    0.0000 H   0  0  0  0  0  0  0  0  0  0  0  0
    3.7320   -6.7750    0.0000 H   0  0  0  0  0  0  0  0  0  0  0  0
  1 16  2  0  0  0  0
  2 19  2  0  0  0  0
  3 20  2  0  0  0  0
  4 12  1  0  0  0  0
  4 16  1  0  0  0  0
  4 42  1  0  0  0  0
  5 13  1  0  0  0  0
  5 19  1  0  0  0  0
  5 47  1  0  0  0  0
  6 18  1  0  0  0  0
  6 48  1  0  0  0  0
  6 49  1  0  0  0  0
  7 20  1  0  0  0  0
  7 52  1  0  0  0  0
  7 53  1  0  0  0  0
  8  9  1  0  0  0  0
  8 10  1  0  0  0  0
  8 27  1  0  0  0  0
  8 28  1  0  0  0  0
  9 11  1  0  0  0  0
  9 29  1  0  0  0  0
  9 30  1  0  0  0  0
 10 12  1  0  0  0  0
 10 31  1  0  0  0  0
 10 32  1  0  0  0  0
 11 14  1  0  0  0  0
 11 33  1  0  0  0  0
 11 34  1  0  0  0  0
 12 35  1  0  0  0  0
 12 36  1  0  0  0  0
 13 15  1  0  0  0  0
 13 16  1  0  0  0  0
 13 37  1  0  0  0  0
 14 18  1  0  0  0  0
 14 38  1  0  0  0  0
 14 39  1  0  0  0  0
 15 17  1  0  0  0  0
 15 40  1  0  0  0  0
 15 41  1  0  0  0  0
 17 20  1  0  0  0  0
 17 43  1  0  0  0  0
 17 44  1  0  0  0  0
 18 45  1  0  0  0  0
 18 46  1  0  0  0  0
 19 21  1  0  0  0  0
 21 22  2  0  0  0  0
 21 23  1  0  0  0  0
 22 24  1  0  0  0  0
 22 50  1  0  0  0  0
 23 25  2  0  0  0  0
 23 51  1  0  0  0  0
 24 26  2  0  0  0  0
 24 54  1  0  0  0  0
 25 26  1  0  0  0  0
 25 55  1  0  0  0  0
 26 56  1  0  0  0  0
M  END
> <PUBCHEM_COMPOUND_CID>
502145
> <PUBCHEM_COMPOUND_CANONICALIZED>
1
> <PUBCHEM_CACTVS_COMPLEXITY>
437
> <PUBCHEM_CACTVS_HBOND_ACCEPTOR>
4
> <PUBCHEM_CACTVS_HBOND_DONOR>
4
> <PUBCHEM_CACTVS_ROTATABLE_BOND>
13
> <PUBCHEM_CACTVS_SUBSKEYS>
AAADceB7sAAAAAAAAAAAAAAAAAAAAAAAAAAwAAAAAAAAAAABAAAAHgAQAAAADCjBmAQwAILAAACIAiFSEACCAAAkAAAIiIGIBMgIYDKAlTGUIQhglgCIiYcciwCOAAAAAAAAAAAAAAAAAAAAAAAAAAAAAA==
> <PUBCHEM_IUPAC_OPENEYE_NAME>
N-(7-aminoheptyl)-2-benzamido-pentanediamide
> <PUBCHEM_IUPAC_CAS_NAME>
N-(7-aminoheptyl)-2-benzamidopentanediamide
> <PUBCHEM_IUPAC_NAME_MARKUP>
<I>N</I>-(7-aminoheptyl)-2-benzamidopentanediamide
> <PUBCHEM_IUPAC_NAME>
N-(7-aminoheptyl)-2-benzamidopentanediamide
> <PUBCHEM_IUPAC_SYSTEMATIC_NAME>
N-(7-azanylheptyl)-2-benzamido-pentanediamide
> <PUBCHEM_IUPAC_TRADITIONAL_NAME>
N-(7-aminoheptyl)-2-benzamido-glutaramide
> <PUBCHEM_IUPAC_INCHI>
InChI=1S/C19H30N4O3/c20-13-7-2-1-3-8-14-22-19(26)16(11-12-17(21)24)23-18(25)15-9-5-4-6-10-15/h4-6,9-10,16H,1-3,7-8,11-14,20H2,(H2,21,24)(H,22,26)(H,23,25)
> <PUBCHEM_IUPAC_INCHIKEY>
WGVVDBGBQGGZEW-UHFFFAOYSA-N
> <PUBCHEM_XLOGP3_AA>
0.8
> <PUBCHEM_EXACT_MASS>
362.23179083
> <PUBCHEM_MOLECULAR_FORMULA>
C19H30N4O3
> <PUBCHEM_MOLECULAR_WEIGHT>
362.5
> <PUBCHEM_OPENEYE_CAN_SMILES>
C1=CC=C(C=C1)C(=O)NC(CCC(=O)N)C(=O)NCCCCCCCN
> <PUBCHEM_OPENEYE_ISO_SMILES>
C1=CC=C(C=C1)C(=O)NC(CCC(=O)N)C(=O)NCCCCCCCN
> <PUBCHEM_CACTVS_TPSA>
127
> <PUBCHEM_MONOISOTOPIC_WEIGHT>
362.23179083
> <PUBCHEM_TOTAL_CHARGE>
0
> <PUBCHEM_HEAVY_ATOM_COUNT>
26
> <PUBCHEM_ATOM_DEF_STEREO_COUNT>
0
> <PUBCHEM_ATOM_UDEF_STEREO_COUNT>
1
> <PUBCHEM_BOND_DEF_STEREO_COUNT>
0
> <PUBCHEM_BOND_UDEF_STEREO_COUNT>
0
> <PUBCHEM_ISOTOPIC_ATOM_COUNT>
0
> <PUBCHEM_COMPONENT_COUNT>
1
> <PUBCHEM_CACTVS_TAUTO_COUNT>
-1
> <PUBCHEM_COORDINATE_TYPE>
1
5
255
> <PUBCHEM_BONDANNOTATIONS>
13  15  3
21  22  8
21  23  8
22  24  8
23  25  8
24  26  8
25  26  8
$$$$
