502153
  -OEChem-10302200282D
 95 97  0     1  0  0  0  0  0999 V2000
    5.3934   -5.1482    0.0000 O   0  0  0  0  0  0  0  0  0  0  0  0
    7.9915   -2.6482    0.0000 O   0  0  0  0  0  0  0  0  0  0  0  0
    4.5274   -3.6482    0.0000 O   0  0  0  0  0  0  0  0  0  0  0  0
    8.8575    0.8518    0.0000 O   0  0  0  0  0  0  0  0  0  0  0  0
    9.7235    0.3518    0.0000 O   0  0  0  0  0  0  0  0  0  0  0  0
    6.2594   -3.6482    0.0000 N   0  0  0  0  0  0  0  0  0  0  0  0
    7.1254   -1.1482    0.0000 N   0  0  0  0  0  0  0  0  0  0  0  0
    7.1254    0.8518    0.0000 N   0  0  0  0  0  0  0  0  0  0  0  0
    3.6613    0.8518    0.0000 N   0  0  0  0  0  0  0  0  0  0  0  0
    2.7953    8.3518    0.0000 N   0  0  0  0  0  0  0  0  0  0  0  0
   10.5895   -1.1482    0.0000 N   0  0  0  0  0  0  0  0  0  0  0  0
    4.5274   -6.6482    0.0000 C   0  0  0  0  0  0  0  0  0  0  0  0
    5.3364   -7.2360    0.0000 C   0  0  0  0  0  0  0  0  0  0  0  0
    3.7183   -7.2360    0.0000 C   0  0  0  0  0  0  0  0  0  0  0  0
    5.0274   -8.1870    0.0000 C   0  0  0  0  0  0  0  0  0  0  0  0
    4.0274   -8.1870    0.0000 C   0  0  0  0  0  0  0  0  0  0  0  0
    4.5274   -5.6482    0.0000 C   0  0  0  0  0  0  0  0  0  0  0  0
    6.3518   -7.0038    0.0000 C   0  0  0  0  0  0  0  0  0  0  0  0
    2.7029   -7.0038    0.0000 C   0  0  0  0  0  0  0  0  0  0  0  0
    5.7123   -8.9718    0.0000 C   0  0  0  0  0  0  0  0  0  0  0  0
    3.3424   -8.9718    0.0000 C   0  0  0  0  0  0  0  0  0  0  0  0
    6.2594   -2.6482    0.0000 C   0  0  3  0  0  0  0  0  0  0  0  0
    5.3934    3.8518    0.0000 C   0  0  0  0  0  0  0  0  0  0  0  0
    5.3934    4.8518    0.0000 C   0  0  0  0  0  0  0  0  0  0  0  0
    5.3934   -2.1482    0.0000 C   0  0  0  0  0  0  0  0  0  0  0  0
    6.2594    3.3518    0.0000 C   0  0  0  0  0  0  0  0  0  0  0  0
    4.5274    5.3518    0.0000 C   0  0  0  0  0  0  0  0  0  0  0  0
    6.2594    2.3518    0.0000 C   0  0  0  0  0  0  0  0  0  0  0  0
    5.3934   -1.1482    0.0000 C   0  0  0  0  0  0  0  0  0  0  0  0
    7.0547   -7.7724    0.0000 C   0  0  0  0  0  0  0  0  0  0  0  0
    2.0000   -7.7724    0.0000 C   0  0  0  0  0  0  0  0  0  0  0  0
    6.7328   -8.7631    0.0000 C   0  0  0  0  0  0  0  0  0  0  0  0
    2.3219   -8.7631    0.0000 C   0  0  0  0  0  0  0  0  0  0  0  0
    4.5274    6.3518    0.0000 C   0  0  0  0  0  0  0  0  0  0  0  0
    7.9915   -0.6482    0.0000 C   0  0  3  0  0  0  0  0  0  0  0  0
    7.1254    1.8518    0.0000 C   0  0  0  0  0  0  0  0  0  0  0  0
    7.1254   -2.1482    0.0000 C   0  0  0  0  0  0  0  0  0  0  0  0
    4.5274   -0.6482    0.0000 C   0  0  0  0  0  0  0  0  0  0  0  0
    5.3934   -4.1482    0.0000 C   0  0  0  0  0  0  0  0  0  0  0  0
    3.6613    6.8518    0.0000 C   0  0  0  0  0  0  0  0  0  0  0  0
    7.9915    0.3518    0.0000 C   0  0  0  0  0  0  0  0  0  0  0  0
    8.8575   -1.1482    0.0000 C   0  0  0  0  0  0  0  0  0  0  0  0
    4.5274    0.3518    0.0000 C   0  0  0  0  0  0  0  0  0  0  0  0
    3.6613    7.8518    0.0000 C   0  0  0  0  0  0  0  0  0  0  0  0
    9.7235   -0.6482    0.0000 C   0  0  0  0  0  0  0  0  0  0  0  0
    5.0798   -6.3667    0.0000 H   0  0  0  0  0  0  0  0  0  0  0  0
    4.3153   -5.0656    0.0000 H   0  0  0  0  0  0  0  0  0  0  0  0
    3.9168   -5.7559    0.0000 H   0  0  0  0  0  0  0  0  0  0  0  0
    6.5365   -6.4119    0.0000 H   0  0  0  0  0  0  0  0  0  0  0  0
    2.5182   -6.4119    0.0000 H   0  0  0  0  0  0  0  0  0  0  0  0
    5.5139   -9.5592    0.0000 H   0  0  0  0  0  0  0  0  0  0  0  0
    3.5408   -9.5592    0.0000 H   0  0  0  0  0  0  0  0  0  0  0  0
    6.7964   -2.9582    0.0000 H   0  0  0  0  0  0  0  0  0  0  0  0
    4.7828    3.9594    0.0000 H   0  0  0  0  0  0  0  0  0  0  0  0
    5.1813    3.2692    0.0000 H   0  0  0  0  0  0  0  0  0  0  0  0
    6.0040    4.7441    0.0000 H   0  0  0  0  0  0  0  0  0  0  0  0
    5.6054    5.4344    0.0000 H   0  0  0  0  0  0  0  0  0  0  0  0
    6.8700    3.2441    0.0000 H   0  0  0  0  0  0  0  0  0  0  0  0
    6.4715    3.9344    0.0000 H   0  0  0  0  0  0  0  0  0  0  0  0
    4.7828   -2.0406    0.0000 H   0  0  0  0  0  0  0  0  0  0  0  0
    5.1813   -2.7308    0.0000 H   0  0  0  0  0  0  0  0  0  0  0  0
    3.9168    5.4594    0.0000 H   0  0  0  0  0  0  0  0  0  0  0  0
    4.3153    4.7692    0.0000 H   0  0  0  0  0  0  0  0  0  0  0  0
    5.6488    2.4594    0.0000 H   0  0  0  0  0  0  0  0  0  0  0  0
    6.0474    1.7692    0.0000 H   0  0  0  0  0  0  0  0  0  0  0  0
    6.0040   -1.2559    0.0000 H   0  0  0  0  0  0  0  0  0  0  0  0
    5.6054   -0.5656    0.0000 H   0  0  0  0  0  0  0  0  0  0  0  0
    7.6607   -7.6412    0.0000 H   0  0  0  0  0  0  0  0  0  0  0  0
    1.3940   -7.6412    0.0000 H   0  0  0  0  0  0  0  0  0  0  0  0
    5.1379    6.2441    0.0000 H   0  0  0  0  0  0  0  0  0  0  0  0
    4.7394    6.9344    0.0000 H   0  0  0  0  0  0  0  0  0  0  0  0
    7.1459   -9.2254    0.0000 H   0  0  0  0  0  0  0  0  0  0  0  0
    1.9088   -9.2254    0.0000 H   0  0  0  0  0  0  0  0  0  0  0  0
    7.4545   -0.3382    0.0000 H   0  0  0  0  0  0  0  0  0  0  0  0
    7.7360    1.7441    0.0000 H   0  0  0  0  0  0  0  0  0  0  0  0
    7.3375    2.4344    0.0000 H   0  0  0  0  0  0  0  0  0  0  0  0
    6.7964   -3.9582    0.0000 H   0  0  0  0  0  0  0  0  0  0  0  0
    3.9168   -0.5405    0.0000 H   0  0  0  0  0  0  0  0  0  0  0  0
    4.3153   -1.2308    0.0000 H   0  0  0  0  0  0  0  0  0  0  0  0
    6.5885   -0.8382    0.0000 H   0  0  0  0  0  0  0  0  0  0  0  0
    3.0508    6.9594    0.0000 H   0  0  0  0  0  0  0  0  0  0  0  0
    3.4493    6.2692    0.0000 H   0  0  0  0  0  0  0  0  0  0  0  0
    6.5885    0.5418    0.0000 H   0  0  0  0  0  0  0  0  0  0  0  0
    8.4590   -1.6232    0.0000 H   0  0  0  0  0  0  0  0  0  0  0  0
    9.2560   -1.6232    0.0000 H   0  0  0  0  0  0  0  0  0  0  0  0
    5.1379    0.2441    0.0000 H   0  0  0  0  0  0  0  0  0  0  0  0
    4.7394    0.9344    0.0000 H   0  0  0  0  0  0  0  0  0  0  0  0
    4.2719    7.7441    0.0000 H   0  0  0  0  0  0  0  0  0  0  0  0
    3.8734    8.4344    0.0000 H   0  0  0  0  0  0  0  0  0  0  0  0
    3.6613    1.4718    0.0000 H   0  0  0  0  0  0  0  0  0  0  0  0
    3.1244    0.5418    0.0000 H   0  0  0  0  0  0  0  0  0  0  0  0
    2.7953    8.9718    0.0000 H   0  0  0  0  0  0  0  0  0  0  0  0
    2.2584    8.0418    0.0000 H   0  0  0  0  0  0  0  0  0  0  0  0
   11.1265   -0.8382    0.0000 H   0  0  0  0  0  0  0  0  0  0  0  0
   10.5895   -1.7682    0.0000 H   0  0  0  0  0  0  0  0  0  0  0  0
  1 17  1  0  0  0  0
  1 39  1  0  0  0  0
  2 37  2  0  0  0  0
  3 39  2  0  0  0  0
  4 41  2  0  0  0  0
  5 45  2  0  0  0  0
  6 22  1  0  0  0  0
  6 39  1  0  0  0  0
  6 77  1  0  0  0  0
  7 35  1  0  0  0  0
  7 37  1  0  0  0  0
  7 80  1  0  0  0  0
  8 36  1  0  0  0  0
  8 41  1  0  0  0  0
  8 83  1  0  0  0  0
  9 43  1  0  0  0  0
  9 90  1  0  0  0  0
  9 91  1  0  0  0  0
 10 44  1  0  0  0  0
 10 92  1  0  0  0  0
 10 93  1  0  0  0  0
 11 45  1  0  0  0  0
 11 94  1  0  0  0  0
 11 95  1  0  0  0  0
 12 13  1  0  0  0  0
 12 14  1  0  0  0  0
 12 17  1  0  0  0  0
 12 46  1  0  0  0  0
 13 15  1  0  0  0  0
 13 18  2  0  0  0  0
 14 16  1  0  0  0  0
 14 19  2  0  0  0  0
 15 16  1  0  0  0  0
 15 20  2  0  0  0  0
 16 21  2  0  0  0  0
 17 47  1  0  0  0  0
 17 48  1  0  0  0  0
 18 30  1  0  0  0  0
 18 49  1  0  0  0  0
 19 31  1  0  0  0  0
 19 50  1  0  0  0  0
 20 32  1  0  0  0  0
 20 51  1  0  0  0  0
 21 33  1  0  0  0  0
 21 52  1  0  0  0  0
 22 25  1  0  0  0  0
 22 37  1  0  0  0  0
 22 53  1  0  0  0  0
 23 24  1  0  0  0  0
 23 26  1  0  0  0  0
 23 54  1  0  0  0  0
 23 55  1  0  0  0  0
 24 27  1  0  0  0  0
 24 56  1  0  0  0  0
 24 57  1  0  0  0  0
 25 29  1  0  0  0  0
 25 60  1  0  0  0  0
 25 61  1  0  0  0  0
 26 28  1  0  0  0  0
 26 58  1  0  0  0  0
 26 59  1  0  0  0  0
 27 34  1  0  0  0  0
 27 62  1  0  0  0  0
 27 63  1  0  0  0  0
 28 36  1  0  0  0  0
 28 64  1  0  0  0  0
 28 65  1  0  0  0  0
 29 38  1  0  0  0  0
 29 66  1  0  0  0  0
 29 67  1  0  0  0  0
 30 32  2  0  0  0  0
 30 68  1  0  0  0  0
 31 33  2  0  0  0  0
 31 69  1  0  0  0  0
 32 72  1  0  0  0  0
 33 73  1  0  0  0  0
 34 40  1  0  0  0  0
 34 70  1  0  0  0  0
 34 71  1  0  0  0  0
 35 41  1  0  0  0  0
 35 42  1  0  0  0  0
 35 74  1  0  0  0  0
 36 75  1  0  0  0  0
 36 76  1  0  0  0  0
 38 43  1  0  0  0  0
 38 78  1  0  0  0  0
 38 79  1  0  0  0  0
 40 44  1  0  0  0  0
 40 81  1  0  0  0  0
 40 82  1  0  0  0  0
 42 45  1  0  0  0  0
 42 84  1  0  0  0  0
 42 85  1  0  0  0  0
 43 86  1  0  0  0  0
 43 87  1  0  0  0  0
 44 88  1  0  0  0  0
 44 89  1  0  0  0  0
M  END
> <PUBCHEM_COMPOUND_CID>
502153
> <PUBCHEM_COMPOUND_CANONICALIZED>
1
> <PUBCHEM_CACTVS_COMPLEXITY>
898
> <PUBCHEM_CACTVS_HBOND_ACCEPTOR>
7
> <PUBCHEM_CACTVS_HBOND_DONOR>
6
> <PUBCHEM_CACTVS_ROTATABLE_BOND>
22
> <PUBCHEM_CACTVS_SUBSKEYS>
AAADcfB/uAAAAAAAAAAAAAAAAAAAAYAAAAAwYAAAAAAAAGABQAAAHgAQAAAADSjhmAYwCILABACIAiFSGAACAAAgAAAIiIGIAIkIYDqA0TCcIAAk1gGIiAedyPAOgAAAAAAQAAAAAAAAACAAAQAACAAAAA==
> <PUBCHEM_IUPAC_OPENEYE_NAME>
9H-fluoren-9-ylmethyl N-[5-amino-1-[[3-amino-1-(9-aminononylcarbamoyl)-3-oxo-propyl]carbamoyl]pentyl]carbamate
> <PUBCHEM_IUPAC_CAS_NAME>
N-[6-amino-1-[[4-amino-1-(9-aminononylamino)-1,4-dioxobutan-2-yl]amino]-1-oxohexan-2-yl]carbamic acid 9H-fluoren-9-ylmethyl ester
> <PUBCHEM_IUPAC_NAME_MARKUP>
9<I>H</I>-fluoren-9-ylmethyl <I>N</I>-[6-amino-1-[[4-amino-1-(9-aminononylamino)-1,4-dioxobutan-2-yl]amino]-1-oxohexan-2-yl]carbamate
> <PUBCHEM_IUPAC_NAME>
9H-fluoren-9-ylmethyl N-[6-amino-1-[[4-amino-1-(9-aminononylamino)-1,4-dioxobutan-2-yl]amino]-1-oxohexan-2-yl]carbamate
> <PUBCHEM_IUPAC_SYSTEMATIC_NAME>
9H-fluoren-9-ylmethyl N-[6-azanyl-1-[[4-azanyl-1-(9-azanylnonylamino)-1,4-bis(oxidanylidene)butan-2-yl]amino]-1-oxidanylidene-hexan-2-yl]carbamate
> <PUBCHEM_IUPAC_TRADITIONAL_NAME>
N-[5-amino-1-[[3-amino-1-(9-aminononylcarbamoyl)-3-keto-propyl]carbamoyl]pentyl]carbamic acid 9H-fluoren-9-ylmethyl ester
> <PUBCHEM_IUPAC_INCHI>
InChI=1S/C34H50N6O5/c35-19-11-4-2-1-3-5-13-21-38-32(42)30(22-31(37)41)39-33(43)29(18-10-12-20-36)40-34(44)45-23-28-26-16-8-6-14-24(26)25-15-7-9-17-27(25)28/h6-9,14-17,28-30H,1-5,10-13,18-23,35-36H2,(H2,37,41)(H,38,42)(H,39,43)(H,40,44)
> <PUBCHEM_IUPAC_INCHIKEY>
UVBADOIRBSZZAA-UHFFFAOYSA-N
> <PUBCHEM_XLOGP3_AA>
2.9
> <PUBCHEM_EXACT_MASS>
622.38426872
> <PUBCHEM_MOLECULAR_FORMULA>
C34H50N6O5
> <PUBCHEM_MOLECULAR_WEIGHT>
622.8
> <PUBCHEM_OPENEYE_CAN_SMILES>
C1=CC=C2C(=C1)C(C3=CC=CC=C32)COC(=O)NC(CCCCN)C(=O)NC(CC(=O)N)C(=O)NCCCCCCCCCN
> <PUBCHEM_OPENEYE_ISO_SMILES>
C1=CC=C2C(=C1)C(C3=CC=CC=C32)COC(=O)NC(CCCCN)C(=O)NC(CC(=O)N)C(=O)NCCCCCCCCCN
> <PUBCHEM_CACTVS_TPSA>
192
> <PUBCHEM_MONOISOTOPIC_WEIGHT>
622.38426872
> <PUBCHEM_TOTAL_CHARGE>
0
> <PUBCHEM_HEAVY_ATOM_COUNT>
45
> <PUBCHEM_ATOM_DEF_STEREO_COUNT>
0
> <PUBCHEM_ATOM_UDEF_STEREO_COUNT>
2
> <PUBCHEM_BOND_DEF_STEREO_COUNT>
0
> <PUBCHEM_BOND_UDEF_STEREO_COUNT>
0
> <PUBCHEM_ISOTOPIC_ATOM_COUNT>
0
> <PUBCHEM_COMPONENT_COUNT>
1
> <PUBCHEM_CACTVS_TAUTO_COUNT>
-1
> <PUBCHEM_COORDINATE_TYPE>
1
5
255
> <PUBCHEM_BONDANNOTATIONS>
13  15  8
13  18  8
14  16  8
14  19  8
15  20  8
16  21  8
18  30  8
19  31  8
20  32  8
21  33  8
22  25  3
30  32  8
31  33  8
35  42  3
$$$$
