502159
  -OEChem-10302200282D
 84 85  0     1  0  0  0  0  0999 V2000
    8.3100   -0.4330    0.0000 S   0  0  0  0  0  0  0  0  0  0  0  0
    7.8100    0.4330    0.0000 S   0  0  0  0  0  0  0  0  0  0  0  0
    6.3100   -3.8971    0.0000 O   0  0  0  0  0  0  0  0  0  0  0  0
    5.3100   -0.4330    0.0000 O   0  0  0  0  0  0  0  0  0  0  0  0
    9.8100   -1.2990    0.0000 O   0  0  0  0  0  0  0  0  0  0  0  0
    6.3100    3.0311    0.0000 O   0  0  0  0  0  0  0  0  0  0  0  0
    9.0420    1.2990    0.0000 O   0  0  0  0  0  0  0  0  0  0  0  0
   12.3100   -2.1651    0.0000 O   0  0  0  0  0  0  0  0  0  0  0  0
   10.8100   -1.2990    0.0000 O   0  0  0  0  0  0  0  0  0  0  0  0
    6.8100    3.8971    0.0000 O   0  0  0  0  0  0  0  0  0  0  0  0
   15.3100   -3.8971    0.0000 O   0  0  0  0  0  0  0  0  0  0  0  0
    6.8100   -1.2990    0.0000 N   0  0  0  0  0  0  0  0  0  0  0  0
    7.8100   -3.0311    0.0000 N   0  0  0  0  0  0  0  0  0  0  0  0
    6.3100    1.2990    0.0000 N   0  0  0  0  0  0  0  0  0  0  0  0
    9.8100   -3.0311    0.0000 N   0  0  0  0  0  0  0  0  0  0  0  0
    8.3100    3.0311    0.0000 N   0  0  0  0  0  0  0  0  0  0  0  0
    2.3100   -3.8971    0.0000 N   0  0  0  0  0  0  0  0  0  0  0  0
    9.4081   -0.0670    0.0000 N   0  0  0  0  0  0  0  0  0  0  0  0
    6.3100   -2.1651    0.0000 C   0  0  1  0  0  0  0  0  0  0  0  0
    5.3100   -2.1651    0.0000 C   0  0  0  0  0  0  0  0  0  0  0  0
    4.8100   -3.0311    0.0000 C   0  0  0  0  0  0  0  0  0  0  0  0
    6.8100   -3.0311    0.0000 C   0  0  0  0  0  0  0  0  0  0  0  0
    3.8100   -3.0311    0.0000 C   0  0  0  0  0  0  0  0  0  0  0  0
    6.8100    0.4330    0.0000 C   0  0  2  0  0  0  0  0  0  0  0  0
    8.3100   -2.1651    0.0000 C   0  0  1  0  0  0  0  0  0  0  0  0
    6.3100   -0.4330    0.0000 C   0  0  0  0  0  0  0  0  0  0  0  0
    7.6760   -0.0670    0.0000 C   0  0  0  0  0  0  0  0  0  0  0  0
    3.3100   -3.8971    0.0000 C   0  0  0  0  0  0  0  0  0  0  0  0
    7.8100   -1.2990    0.0000 C   0  0  0  0  0  0  0  0  0  0  0  0
    9.3100   -2.1651    0.0000 C   0  0  0  0  0  0  0  0  0  0  0  0
    7.8100    2.1651    0.0000 C   0  0  2  0  0  0  0  0  0  0  0  0
   10.8100   -3.0311    0.0000 C   0  0  1  0  0  0  0  0  0  0  0  0
    6.8100    2.1651    0.0000 C   0  0  0  0  0  0  0  0  0  0  0  0
   11.3100   -3.8971    0.0000 C   0  0  0  0  0  0  0  0  0  0  0  0
    8.3100    1.2990    0.0000 C   0  0  0  0  0  0  0  0  0  0  0  0
    8.5420    0.4330    0.0000 C   0  0  0  0  0  0  0  0  0  0  0  0
   12.3100   -3.8971    0.0000 C   0  0  0  0  0  0  0  0  0  0  0  0
   11.3100   -2.1651    0.0000 C   0  0  0  0  0  0  0  0  0  0  0  0
   12.8100   -3.0311    0.0000 C   0  0  0  0  0  0  0  0  0  0  0  0
   12.8100   -4.7631    0.0000 C   0  0  0  0  0  0  0  0  0  0  0  0
    7.8100    3.8971    0.0000 C   0  0  0  0  0  0  0  0  0  0  0  0
   13.8100   -3.0311    0.0000 C   0  0  0  0  0  0  0  0  0  0  0  0
   13.8100   -4.7631    0.0000 C   0  0  0  0  0  0  0  0  0  0  0  0
   14.3100   -3.8971    0.0000 C   0  0  0  0  0  0  0  0  0  0  0  0
    8.3100    4.7631    0.0000 C   0  0  0  0  0  0  0  0  0  0  0  0
    6.0000   -1.6281    0.0000 H   0  0  0  0  0  0  0  0  0  0  0  0
    5.4177   -1.5545    0.0000 H   0  0  0  0  0  0  0  0  0  0  0  0
    4.7274   -1.9530    0.0000 H   0  0  0  0  0  0  0  0  0  0  0  0
    4.7023   -3.6417    0.0000 H   0  0  0  0  0  0  0  0  0  0  0  0
    5.3926   -3.2431    0.0000 H   0  0  0  0  0  0  0  0  0  0  0  0
    7.1200   -1.8360    0.0000 H   0  0  0  0  0  0  0  0  0  0  0  0
    3.9177   -2.4205    0.0000 H   0  0  0  0  0  0  0  0  0  0  0  0
    3.2274   -2.8190    0.0000 H   0  0  0  0  0  0  0  0  0  0  0  0
    7.2484    0.8714    0.0000 H   0  0  0  0  0  0  0  0  0  0  0  0
    8.6200   -2.7020    0.0000 H   0  0  0  0  0  0  0  0  0  0  0  0
    8.1200   -3.5680    0.0000 H   0  0  0  0  0  0  0  0  0  0  0  0
    7.2775   -0.5419    0.0000 H   0  0  0  0  0  0  0  0  0  0  0  0
    8.0746   -0.5419    0.0000 H   0  0  0  0  0  0  0  0  0  0  0  0
    3.2023   -4.5077    0.0000 H   0  0  0  0  0  0  0  0  0  0  0  0
    3.8926   -4.1092    0.0000 H   0  0  0  0  0  0  0  0  0  0  0  0
    7.3350   -0.9005    0.0000 H   0  0  0  0  0  0  0  0  0  0  0  0
    7.3350   -1.6976    0.0000 H   0  0  0  0  0  0  0  0  0  0  0  0
    5.6900    1.2990    0.0000 H   0  0  0  0  0  0  0  0  0  0  0  0
    7.5000    2.7020    0.0000 H   0  0  0  0  0  0  0  0  0  0  0  0
   10.5000   -2.4942    0.0000 H   0  0  0  0  0  0  0  0  0  0  0  0
    9.5000   -3.5680    0.0000 H   0  0  0  0  0  0  0  0  0  0  0  0
   10.7274   -4.1092    0.0000 H   0  0  0  0  0  0  0  0  0  0  0  0
   11.4177   -4.5077    0.0000 H   0  0  0  0  0  0  0  0  0  0  0  0
    8.7850    0.9005    0.0000 H   0  0  0  0  0  0  0  0  0  0  0  0
    8.7850    1.6976    0.0000 H   0  0  0  0  0  0  0  0  0  0  0  0
    8.9300    3.0311    0.0000 H   0  0  0  0  0  0  0  0  0  0  0  0
    2.0000   -4.4340    0.0000 H   0  0  0  0  0  0  0  0  0  0  0  0
    2.0000   -3.3602    0.0000 H   0  0  0  0  0  0  0  0  0  0  0  0
   12.5000   -2.4942    0.0000 H   0  0  0  0  0  0  0  0  0  0  0  0
   12.5000   -5.3001    0.0000 H   0  0  0  0  0  0  0  0  0  0  0  0
    9.4081   -0.6870    0.0000 H   0  0  0  0  0  0  0  0  0  0  0  0
    9.9450    0.2430    0.0000 H   0  0  0  0  0  0  0  0  0  0  0  0
   14.1200   -2.4942    0.0000 H   0  0  0  0  0  0  0  0  0  0  0  0
   14.1200   -5.3001    0.0000 H   0  0  0  0  0  0  0  0  0  0  0  0
   12.6200   -1.6281    0.0000 H   0  0  0  0  0  0  0  0  0  0  0  0
    8.8469    4.4531    0.0000 H   0  0  0  0  0  0  0  0  0  0  0  0
    8.6200    5.3001    0.0000 H   0  0  0  0  0  0  0  0  0  0  0  0
    7.7731    5.0731    0.0000 H   0  0  0  0  0  0  0  0  0  0  0  0
   15.6200   -4.4340    0.0000 H   0  0  0  0  0  0  0  0  0  0  0  0
  1  2  1  0  0  0  0
  1 29  1  0  0  0  0
  2 35  1  0  0  0  0
  3 22  2  0  0  0  0
  4 26  2  0  0  0  0
  5 30  2  0  0  0  0
  6 33  2  0  0  0  0
  7 36  2  0  0  0  0
  8 38  1  0  0  0  0
  8 80  1  0  0  0  0
  9 38  2  0  0  0  0
 10 41  2  0  0  0  0
 11 44  1  0  0  0  0
 11 84  1  0  0  0  0
 12 19  1  0  0  0  0
 12 26  1  0  0  0  0
 12 51  1  0  0  0  0
 13 22  1  0  0  0  0
 13 25  1  0  0  0  0
 13 56  1  0  0  0  0
 14 24  1  0  0  0  0
 14 33  1  0  0  0  0
 14 63  1  0  0  0  0
 15 30  1  0  0  0  0
 32 15  1  6  0  0  0
 15 66  1  0  0  0  0
 31 16  1  1  0  0  0
 16 41  1  0  0  0  0
 16 71  1  0  0  0  0
 17 28  1  0  0  0  0
 17 72  1  0  0  0  0
 17 73  1  0  0  0  0
 18 36  1  0  0  0  0
 18 76  1  0  0  0  0
 18 77  1  0  0  0  0
 19 20  1  6  0  0  0
 19 22  1  0  0  0  0
 19 46  1  0  0  0  0
 20 21  1  0  0  0  0
 20 47  1  0  0  0  0
 20 48  1  0  0  0  0
 21 23  1  0  0  0  0
 21 49  1  0  0  0  0
 21 50  1  0  0  0  0
 23 28  1  0  0  0  0
 23 52  1  0  0  0  0
 23 53  1  0  0  0  0
 24 26  1  0  0  0  0
 24 27  1  1  0  0  0
 24 54  1  0  0  0  0
 25 29  1  0  0  0  0
 25 30  1  1  0  0  0
 25 55  1  0  0  0  0
 27 36  1  0  0  0  0
 27 57  1  0  0  0  0
 27 58  1  0  0  0  0
 28 59  1  0  0  0  0
 28 60  1  0  0  0  0
 29 61  1  0  0  0  0
 29 62  1  0  0  0  0
 31 33  1  0  0  0  0
 31 35  1  0  0  0  0
 31 64  1  0  0  0  0
 32 34  1  0  0  0  0
 32 38  1  0  0  0  0
 32 65  1  0  0  0  0
 34 37  1  0  0  0  0
 34 67  1  0  0  0  0
 34 68  1  0  0  0  0
 35 69  1  0  0  0  0
 35 70  1  0  0  0  0
 37 39  2  0  0  0  0
 37 40  1  0  0  0  0
 39 42  1  0  0  0  0
 39 74  1  0  0  0  0
 40 43  2  0  0  0  0
 40 75  1  0  0  0  0
 41 45  1  0  0  0  0
 42 44  2  0  0  0  0
 42 78  1  0  0  0  0
 43 44  1  0  0  0  0
 43 79  1  0  0  0  0
 45 81  1  0  0  0  0
 45 82  1  0  0  0  0
 45 83  1  0  0  0  0
M  END
> <PUBCHEM_COMPOUND_CID>
502159
> <PUBCHEM_COMPOUND_CANONICALIZED>
1
> <PUBCHEM_CACTVS_COMPLEXITY>
1080
> <PUBCHEM_CACTVS_HBOND_ACCEPTOR>
12
> <PUBCHEM_CACTVS_HBOND_DONOR>
9
> <PUBCHEM_CACTVS_ROTATABLE_BOND>
12
> <PUBCHEM_CACTVS_SUBSKEYS>
AAADcfB7vABgAAAAAAAAAAAAAAAAAAAAAAAwAAAAAAAAAAABAAAAHgQQCAAADCzF2ASyDoLAAgCIAiHSGAACAAAgIAAIiIGOCIgKZjqC0TOUcAAk1hGYmAedyKCOIAAAAAAAAABAAAAAAAAAAAAAAAAAAA==
> <PUBCHEM_IUPAC_OPENEYE_NAME>
(2S)-2-[[(4R,7S,10S,13R)-13-acetamido-7-(4-aminobutyl)-10-(2-amino-2-oxo-ethyl)-6,9,12-trioxo-1,2-dithia-5,8,11-triazacyclotetradecane-4-carbonyl]amino]-3-(4-hydroxyphenyl)propanoic acid
> <PUBCHEM_IUPAC_CAS_NAME>
(2S)-2-[[[(4R,7S,10S,13R)-13-acetamido-7-(4-aminobutyl)-10-(2-amino-2-oxoethyl)-6,9,12-trioxo-1,2-dithia-5,8,11-triazacyclotetradec-4-yl]-oxomethyl]amino]-3-(4-hydroxyphenyl)propanoic acid
> <PUBCHEM_IUPAC_NAME_MARKUP>
(2<I>S</I>)-2-[[(4<I>R</I>,7<I>S</I>,10<I>S</I>,13<I>R</I>)-13-acetamido-7-(4-aminobutyl)-10-(2-amino-2-oxoethyl)-6,9,12-trioxo-1,2-dithia-5,8,11-triazacyclotetradecane-4-carbonyl]amino]-3-(4-hydroxyphenyl)propanoic acid
> <PUBCHEM_IUPAC_NAME>
(2S)-2-[[(4R,7S,10S,13R)-13-acetamido-7-(4-aminobutyl)-10-(2-amino-2-oxoethyl)-6,9,12-trioxo-1,2-dithia-5,8,11-triazacyclotetradecane-4-carbonyl]amino]-3-(4-hydroxyphenyl)propanoic acid
> <PUBCHEM_IUPAC_SYSTEMATIC_NAME>
(2S)-2-[[(4R,7S,10S,13R)-13-acetamido-7-(4-azanylbutyl)-10-(2-azanyl-2-oxidanylidene-ethyl)-6,9,12-tris(oxidanylidene)-1,2-dithia-5,8,11-triazacyclotetradec-4-yl]carbonylamino]-3-(4-hydroxyphenyl)propanoic acid
> <PUBCHEM_IUPAC_TRADITIONAL_NAME>
(2S)-2-[[(4R,7S,10S,13R)-13-acetamido-7-(4-aminobutyl)-10-(2-amino-2-keto-ethyl)-6,9,12-triketo-1,2-dithia-5,8,11-triazacyclotetradecane-4-carbonyl]amino]-3-(4-hydroxyphenyl)propionic acid
> <PUBCHEM_IUPAC_INCHI>
InChI=1S/C27H39N7O9S2/c1-14(35)30-20-12-44-45-13-21(26(41)33-19(27(42)43)10-15-5-7-16(36)8-6-15)34-23(38)17(4-2-3-9-28)31-24(39)18(11-22(29)37)32-25(20)40/h5-8,17-21,36H,2-4,9-13,28H2,1H3,(H2,29,37)(H,30,35)(H,31,39)(H,32,40)(H,33,41)(H,34,38)(H,42,43)/t17-,18-,19-,20-,21-/m0/s1
> <PUBCHEM_IUPAC_INCHIKEY>
IVHPDLQRAYOJHQ-SXYSDOLCSA-N
> <PUBCHEM_XLOGP3_AA>
-4.6
> <PUBCHEM_EXACT_MASS>
669.22506819
> <PUBCHEM_MOLECULAR_FORMULA>
C27H39N7O9S2
> <PUBCHEM_MOLECULAR_WEIGHT>
669.8
> <PUBCHEM_OPENEYE_CAN_SMILES>
CC(=O)NC1CSSCC(NC(=O)C(NC(=O)C(NC1=O)CC(=O)N)CCCCN)C(=O)NC(CC2=CC=C(C=C2)O)C(=O)O
> <PUBCHEM_OPENEYE_ISO_SMILES>
CC(=O)N[C@H]1CSSC[C@H](NC(=O)[C@@H](NC(=O)[C@@H](NC1=O)CC(=O)N)CCCCN)C(=O)N[C@@H](CC2=CC=C(C=C2)O)C(=O)O
> <PUBCHEM_CACTVS_TPSA>
323
> <PUBCHEM_MONOISOTOPIC_WEIGHT>
669.22506819
> <PUBCHEM_TOTAL_CHARGE>
0
> <PUBCHEM_HEAVY_ATOM_COUNT>
45
> <PUBCHEM_ATOM_DEF_STEREO_COUNT>
5
> <PUBCHEM_ATOM_UDEF_STEREO_COUNT>
0
> <PUBCHEM_BOND_DEF_STEREO_COUNT>
0
> <PUBCHEM_BOND_UDEF_STEREO_COUNT>
0
> <PUBCHEM_ISOTOPIC_ATOM_COUNT>
0
> <PUBCHEM_COMPONENT_COUNT>
1
> <PUBCHEM_CACTVS_TAUTO_COUNT>
-1
> <PUBCHEM_COORDINATE_TYPE>
1
5
255
> <PUBCHEM_BONDANNOTATIONS>
32  15  6
31  16  5
19  20  6
24  27  5
25  30  5
37  39  8
37  40  8
39  42  8
40  43  8
42  44  8
43  44  8
$$$$
