502164
  -OEChem-10302200282D
127133  0     1  0  0  0  0  0999 V2000
   15.3533   -2.5602    0.0000 O   0  0  0  0  0  0  0  0  0  0  0  0
   24.2784    0.5263    0.0000 O   0  0  0  0  0  0  0  0  0  0  0  0
   23.4239   -0.9803    0.0000 O   0  0  0  0  0  0  0  0  0  0  0  0
   14.4930   -1.0569    0.0000 O   0  0  0  0  0  0  0  0  0  0  0  0
    9.2931   -2.0368    0.0000 O   0  0  0  0  0  0  0  0  0  0  0  0
   10.1533   -3.5402    0.0000 O   0  0  0  0  0  0  0  0  0  0  0  0
    6.6459   -2.4334    0.0000 O   0  0  0  0  0  0  0  0  0  0  0  0
    5.1592   -3.5116    0.0000 O   0  0  0  0  0  0  0  0  0  0  0  0
    2.0000   -2.0904    0.0000 O   0  0  0  0  0  0  0  0  0  0  0  0
    4.9848   -1.7884    0.0000 N   0  0  0  0  0  0  0  0  0  0  0  0
    8.2061   -0.3690    0.0000 N   0  0  0  0  0  0  0  0  0  0  0  0
    8.0019    0.6100    0.0000 N   0  3  0  0  0  0  0  0  0  0  0  0
    3.5796   -2.8010    0.0000 N   0  0  0  0  0  0  0  0  0  0  0  0
    7.7978    1.5889    0.0000 N   0  5  0  0  0  0  0  0  0  0  0  0
   19.8803   -1.0079    0.0000 C   0  0  2  0  0  0  0  0  0  0  0  0
   19.0143   -0.5079    0.0000 C   0  0  1  0  0  0  0  0  0  0  0  0
   18.1043   -1.0147    0.0000 C   0  0  2  0  0  0  0  0  0  0  0  0
   20.7464   -0.5079    0.0000 C   0  0  1  0  0  0  0  0  0  0  0  0
   18.0963   -2.0563    0.0000 C   0  0  1  0  0  0  0  0  0  0  0  0
   19.8964   -2.0494    0.0000 C   0  0  0  0  0  0  0  0  0  0  0  0
   18.9984   -2.5771    0.0000 C   0  0  0  0  0  0  0  0  0  0  0  0
   17.1609   -2.6060    0.0000 C   0  0  0  0  0  0  0  0  0  0  0  0
   20.7464    0.4921    0.0000 C   0  0  0  0  0  0  0  0  0  0  0  0
   21.6403    1.0268    0.0000 C   0  0  1  0  0  0  0  0  0  0  0  0
   19.0143    0.4921    0.0000 C   0  0  0  0  0  0  0  0  0  0  0  0
   17.1775   -0.4506    0.0000 C   0  0  0  0  0  0  0  0  0  0  0  0
   21.6403   -1.0425    0.0000 C   0  0  0  0  0  0  0  0  0  0  0  0
   22.5464    0.5129    0.0000 C   0  0  1  0  0  0  0  0  0  0  0  0
   20.5231   -1.7739    0.0000 C   0  0  0  0  0  0  0  0  0  0  0  0
   22.5464   -0.5287    0.0000 C   0  0  0  0  0  0  0  0  0  0  0  0
   16.2212   -2.0635    0.0000 C   0  0  2  0  0  0  0  0  0  0  0  0
   18.1120   -0.0147    0.0000 C   0  0  0  0  0  0  0  0  0  0  0  0
   19.8803    0.9921    0.0000 C   0  0  0  0  0  0  0  0  0  0  0  0
   16.2296   -0.9786    0.0000 C   0  0  0  0  0  0  0  0  0  0  0  0
   21.0885   -1.4475    0.0000 C   0  0  0  0  0  0  0  0  0  0  0  0
   21.6152    2.1115    0.0000 C   0  0  0  0  0  0  0  0  0  0  0  0
   23.4902    1.0482    0.0000 C   0  0  0  0  0  0  0  0  0  0  0  0
   22.5464    2.6684    0.0000 C   0  0  0  0  0  0  0  0  0  0  0  0
   16.6642   -3.4740    0.0000 C   0  0  0  0  0  0  0  0  0  0  0  0
   17.6642   -3.4701    0.0000 C   0  0  0  0  0  0  0  0  0  0  0  0
   23.4902    2.1332    0.0000 C   0  0  0  0  0  0  0  0  0  0  0  0
   23.4162    0.0196    0.0000 C   0  0  0  0  0  0  0  0  0  0  0  0
   23.0363    3.5402    0.0000 C   0  0  0  0  0  0  0  0  0  0  0  0
   22.0364    3.5286    0.0000 C   0  0  0  0  0  0  0  0  0  0  0  0
   14.4892   -2.0569    0.0000 C   0  0  0  0  0  0  0  0  0  0  0  0
   13.6212   -2.5535    0.0000 C   0  0  0  0  0  0  0  0  0  0  0  0
   12.7572   -2.0502    0.0000 C   0  0  0  0  0  0  0  0  0  0  0  0
   11.8892   -2.5468    0.0000 C   0  0  0  0  0  0  0  0  0  0  0  0
   11.0251   -2.0435    0.0000 C   0  0  0  0  0  0  0  0  0  0  0  0
   10.1572   -2.5402    0.0000 C   0  0  0  0  0  0  0  0  0  0  0  0
    8.4251   -2.5335    0.0000 C   0  0  0  0  0  0  0  0  0  0  0  0
    7.5610   -2.0302    0.0000 C   0  0  2  0  0  0  0  0  0  0  0  0
    7.4603   -1.0352    0.0000 C   0  0  2  0  0  0  0  0  0  0  0  0
    6.4830   -0.8236    0.0000 C   0  0  0  0  0  0  0  0  0  0  0  0
    5.9797   -1.6877    0.0000 C   0  0  1  0  0  0  0  0  0  0  0  0
    4.4001   -0.9771    0.0000 C   0  0  0  0  0  0  0  0  0  0  0  0
    4.5745   -2.7003    0.0000 C   0  0  0  0  0  0  0  0  0  0  0  0
    3.4052   -1.0778    0.0000 C   0  0  0  0  0  0  0  0  0  0  0  0
    2.9949   -1.9897    0.0000 C   0  0  0  0  0  0  0  0  0  0  0  0
    2.8205   -0.2665    0.0000 C   0  0  0  0  0  0  0  0  0  0  0  0
   19.7504   -0.0829    0.0000 H   0  0  0  0  0  0  0  0  0  0  0  0
   18.0996   -2.9063    0.0000 H   0  0  0  0  0  0  0  0  0  0  0  0
   20.1144   -2.6298    0.0000 H   0  0  0  0  0  0  0  0  0  0  0  0
   20.5055   -1.9339    0.0000 H   0  0  0  0  0  0  0  0  0  0  0  0
   18.6011   -3.0531    0.0000 H   0  0  0  0  0  0  0  0  0  0  0  0
   19.3993   -3.0500    0.0000 H   0  0  0  0  0  0  0  0  0  0  0  0
   22.3698    1.4631    0.0000 H   0  0  0  0  0  0  0  0  0  0  0  0
   18.8023    1.0747    0.0000 H   0  0  0  0  0  0  0  0  0  0  0  0
   18.4037    0.3845    0.0000 H   0  0  0  0  0  0  0  0  0  0  0  0
   17.5857    0.0160    0.0000 H   0  0  0  0  0  0  0  0  0  0  0  0
   16.7876    0.0314    0.0000 H   0  0  0  0  0  0  0  0  0  0  0  0
   21.2357   -1.5123    0.0000 H   0  0  0  0  0  0  0  0  0  0  0  0
   22.0339   -1.5216    0.0000 H   0  0  0  0  0  0  0  0  0  0  0  0
   20.0482   -2.1724    0.0000 H   0  0  0  0  0  0  0  0  0  0  0  0
   20.9217   -2.2489    0.0000 H   0  0  0  0  0  0  0  0  0  0  0  0
   20.9981   -1.3754    0.0000 H   0  0  0  0  0  0  0  0  0  0  0  0
   22.7554   -1.1124    0.0000 H   0  0  0  0  0  0  0  0  0  0  0  0
   23.1572   -0.4226    0.0000 H   0  0  0  0  0  0  0  0  0  0  0  0
   16.2200   -2.6835    0.0000 H   0  0  0  0  0  0  0  0  0  0  0  0
   18.7320   -0.0195    0.0000 H   0  0  0  0  0  0  0  0  0  0  0  0
   18.1168    0.6052    0.0000 H   0  0  0  0  0  0  0  0  0  0  0  0
   17.4920   -0.0100    0.0000 H   0  0  0  0  0  0  0  0  0  0  0  0
   19.8803    1.6121    0.0000 H   0  0  0  0  0  0  0  0  0  0  0  0
   16.0250   -0.3933    0.0000 H   0  0  0  0  0  0  0  0  0  0  0  0
   15.6179   -1.0800    0.0000 H   0  0  0  0  0  0  0  0  0  0  0  0
   20.5059   -1.6596    0.0000 H   0  0  0  0  0  0  0  0  0  0  0  0
   21.3006   -2.0301    0.0000 H   0  0  0  0  0  0  0  0  0  0  0  0
   21.6711   -1.2354    0.0000 H   0  0  0  0  0  0  0  0  0  0  0  0
   21.3927    2.6902    0.0000 H   0  0  0  0  0  0  0  0  0  0  0  0
   21.0070    1.9913    0.0000 H   0  0  0  0  0  0  0  0  0  0  0  0
   23.6992    0.4645    0.0000 H   0  0  0  0  0  0  0  0  0  0  0  0
   24.1010    1.1543    0.0000 H   0  0  0  0  0  0  0  0  0  0  0  0
   16.1261   -3.1661    0.0000 H   0  0  0  0  0  0  0  0  0  0  0  0
   16.3563   -4.0121    0.0000 H   0  0  0  0  0  0  0  0  0  0  0  0
   17.2023   -3.7819    0.0000 H   0  0  0  0  0  0  0  0  0  0  0  0
   17.1285   -3.7822    0.0000 H   0  0  0  0  0  0  0  0  0  0  0  0
   17.9763   -4.0059    0.0000 H   0  0  0  0  0  0  0  0  0  0  0  0
   18.1999   -3.1581    0.0000 H   0  0  0  0  0  0  0  0  0  0  0  0
   24.1010    2.0271    0.0000 H   0  0  0  0  0  0  0  0  0  0  0  0
   23.6992    2.7169    0.0000 H   0  0  0  0  0  0  0  0  0  0  0  0
   23.5768    3.2364    0.0000 H   0  0  0  0  0  0  0  0  0  0  0  0
   23.3401    4.0806    0.0000 H   0  0  0  0  0  0  0  0  0  0  0  0
   22.4958    3.8439    0.0000 H   0  0  0  0  0  0  0  0  0  0  0  0
   22.5697    3.8448    0.0000 H   0  0  0  0  0  0  0  0  0  0  0  0
   21.7202    4.0619    0.0000 H   0  0  0  0  0  0  0  0  0  0  0  0
   21.5031    3.2124    0.0000 H   0  0  0  0  0  0  0  0  0  0  0  0
   24.8177    0.2204    0.0000 H   0  0  0  0  0  0  0  0  0  0  0  0
   13.2209   -3.0269    0.0000 H   0  0  0  0  0  0  0  0  0  0  0  0
   14.0179   -3.0300    0.0000 H   0  0  0  0  0  0  0  0  0  0  0  0
   13.1575   -1.5768    0.0000 H   0  0  0  0  0  0  0  0  0  0  0  0
   12.3605   -1.5737    0.0000 H   0  0  0  0  0  0  0  0  0  0  0  0
   11.4888   -3.0203    0.0000 H   0  0  0  0  0  0  0  0  0  0  0  0
   12.2859   -3.0233    0.0000 H   0  0  0  0  0  0  0  0  0  0  0  0
   11.4255   -1.5701    0.0000 H   0  0  0  0  0  0  0  0  0  0  0  0
   10.6284   -1.5670    0.0000 H   0  0  0  0  0  0  0  0  0  0  0  0
    8.0248   -3.0069    0.0000 H   0  0  0  0  0  0  0  0  0  0  0  0
    8.8218   -3.0100    0.0000 H   0  0  0  0  0  0  0  0  0  0  0  0
    7.5262   -2.6492    0.0000 H   0  0  0  0  0  0  0  0  0  0  0  0
    8.0383   -1.2597    0.0000 H   0  0  0  0  0  0  0  0  0  0  0  0
    6.6769   -0.2347    0.0000 H   0  0  0  0  0  0  0  0  0  0  0  0
    5.9176   -0.5692    0.0000 H   0  0  0  0  0  0  0  0  0  0  0  0
    5.6440   -1.1664    0.0000 H   0  0  0  0  0  0  0  0  0  0  0  0
    4.6544   -0.4117    0.0000 H   0  0  0  0  0  0  0  0  0  0  0  0
    3.3252   -3.3664    0.0000 H   0  0  0  0  0  0  0  0  0  0  0  0
    3.3235    0.0960    0.0000 H   0  0  0  0  0  0  0  0  0  0  0  0
    2.4580    0.2365    0.0000 H   0  0  0  0  0  0  0  0  0  0  0  0
    2.3175   -0.6290    0.0000 H   0  0  0  0  0  0  0  0  0  0  0  0
 31  1  1  1  0  0  0
  1 45  1  0  0  0  0
  2 42  1  0  0  0  0
  2107  1  0  0  0  0
  3 42  2  0  0  0  0
  4 45  2  0  0  0  0
  5 50  1  0  0  0  0
  5 51  1  0  0  0  0
  6 50  2  0  0  0  0
  7 52  1  0  0  0  0
  7 55  1  0  0  0  0
  8 57  2  0  0  0  0
  9 59  2  0  0  0  0
 55 10  1  1  0  0  0
 10 56  1  0  0  0  0
 10 57  1  0  0  0  0
 11 12  2  0  0  0  0
 53 11  1  6  0  0  0
 12 14  2  0  0  0  0
 13 57  1  0  0  0  0
 13 59  1  0  0  0  0
 13124  1  0  0  0  0
 15 16  1  0  0  0  0
 15 18  1  0  0  0  0
 15 20  1  0  0  0  0
 15 29  1  1  0  0  0
 16 17  1  0  0  0  0
 16 25  1  0  0  0  0
 16 61  1  6  0  0  0
 17 19  1  0  0  0  0
 17 26  1  0  0  0  0
 17 32  1  1  0  0  0
 18 23  1  0  0  0  0
 18 27  1  0  0  0  0
 18 35  1  6  0  0  0
 19 21  1  0  0  0  0
 19 22  1  0  0  0  0
 19 62  1  6  0  0  0
 20 21  1  0  0  0  0
 20 63  1  0  0  0  0
 20 64  1  0  0  0  0
 21 65  1  0  0  0  0
 21 66  1  0  0  0  0
 22 31  1  0  0  0  0
 22 39  1  0  0  0  0
 22 40  1  0  0  0  0
 23 24  1  0  0  0  0
 23 33  2  0  0  0  0
 24 28  1  0  0  0  0
 24 36  1  0  0  0  0
 24 67  1  1  0  0  0
 25 33  1  0  0  0  0
 25 68  1  0  0  0  0
 25 69  1  0  0  0  0
 26 34  1  0  0  0  0
 26 70  1  0  0  0  0
 26 71  1  0  0  0  0
 27 30  1  0  0  0  0
 27 72  1  0  0  0  0
 27 73  1  0  0  0  0
 28 30  1  0  0  0  0
 28 37  1  0  0  0  0
 28 42  1  1  0  0  0
 29 74  1  0  0  0  0
 29 75  1  0  0  0  0
 29 76  1  0  0  0  0
 30 77  1  0  0  0  0
 30 78  1  0  0  0  0
 31 34  1  0  0  0  0
 31 79  1  0  0  0  0
 32 80  1  0  0  0  0
 32 81  1  0  0  0  0
 32 82  1  0  0  0  0
 33 83  1  0  0  0  0
 34 84  1  0  0  0  0
 34 85  1  0  0  0  0
 35 86  1  0  0  0  0
 35 87  1  0  0  0  0
 35 88  1  0  0  0  0
 36 38  1  0  0  0  0
 36 89  1  0  0  0  0
 36 90  1  0  0  0  0
 37 41  1  0  0  0  0
 37 91  1  0  0  0  0
 37 92  1  0  0  0  0
 38 41  1  0  0  0  0
 38 43  1  0  0  0  0
 38 44  1  0  0  0  0
 39 93  1  0  0  0  0
 39 94  1  0  0  0  0
 39 95  1  0  0  0  0
 40 96  1  0  0  0  0
 40 97  1  0  0  0  0
 40 98  1  0  0  0  0
 41 99  1  0  0  0  0
 41100  1  0  0  0  0
 43101  1  0  0  0  0
 43102  1  0  0  0  0
 43103  1  0  0  0  0
 44104  1  0  0  0  0
 44105  1  0  0  0  0
 44106  1  0  0  0  0
 45 46  1  0  0  0  0
 46 47  1  0  0  0  0
 46108  1  0  0  0  0
 46109  1  0  0  0  0
 47 48  1  0  0  0  0
 47110  1  0  0  0  0
 47111  1  0  0  0  0
 48 49  1  0  0  0  0
 48112  1  0  0  0  0
 48113  1  0  0  0  0
 49 50  1  0  0  0  0
 49114  1  0  0  0  0
 49115  1  0  0  0  0
 52 51  1  1  0  0  0
 51116  1  0  0  0  0
 51117  1  0  0  0  0
 52 53  1  0  0  0  0
 52118  1  0  0  0  0
 53 54  1  0  0  0  0
 53119  1  0  0  0  0
 54 55  1  0  0  0  0
 54120  1  0  0  0  0
 54121  1  0  0  0  0
 55122  1  0  0  0  0
 56 58  2  0  0  0  0
 56123  1  0  0  0  0
 58 59  1  0  0  0  0
 58 60  1  0  0  0  0
 60125  1  0  0  0  0
 60126  1  0  0  0  0
 60127  1  0  0  0  0
M  CHG  2  12   1  14  -1
M  END
> <PUBCHEM_COMPOUND_CID>
502164
> <PUBCHEM_COMPOUND_CANONICALIZED>
1
> <PUBCHEM_CACTVS_COMPLEXITY>
1900
> <PUBCHEM_CACTVS_HBOND_ACCEPTOR>
11
> <PUBCHEM_CACTVS_HBOND_DONOR>
2
> <PUBCHEM_CACTVS_ROTATABLE_BOND>
13
> <PUBCHEM_CACTVS_SUBSKEYS>
AAADcfB/vAAAAAAAAAAAAAAAAAAAASAAAAAwYMGCAAAAAADAAAAAHgAYCAAADzzhgAYDCAPABgCKAiHWWACAAAAgAAAACAEIAEiDABIAwQAPQAAOhyIKAMO4+PqPgAAAAAAAAADAAAYAADAAAAAAAAAAAA==
> <PUBCHEM_IUPAC_OPENEYE_NAME>
(4aS,6aR,6aS,6bR,8aR,10S,12aR,14bS)-10-[6-[[(2S,3S,5R)-3-azido-5-(5-methyl-2,4-dioxo-pyrimidin-1-yl)tetrahydrofuran-2-yl]methoxy]-6-oxo-hexanoyl]oxy-2,2,6a,6b,9,9,12a-heptamethyl-1,3,4,5,6,6a,7,8,8a,10,11,12,13,14b-tetradecahydropicene-4a-carboxylic acid
> <PUBCHEM_IUPAC_CAS_NAME>
(4aS,6aR,6aS,6bR,8aR,10S,12aR,14bS)-10-[6-[[(2S,3S,5R)-3-azido-5-(5-methyl-2,4-dioxo-1-pyrimidinyl)-2-oxolanyl]methoxy]-1,6-dioxohexoxy]-2,2,6a,6b,9,9,12a-heptamethyl-1,3,4,5,6,6a,7,8,8a,10,11,12,13,14b-tetradecahydropicene-4a-carboxylic acid
> <PUBCHEM_IUPAC_NAME_MARKUP>
(4<I>a</I><I>S</I>,6<I>a</I><I>R</I>,6<I>a</I><I>S</I>,6<I>b</I><I>R</I>,8<I>a</I><I>R</I>,10<I>S</I>,12<I>a</I><I>R</I>,14<I>b</I><I>S</I>)-10-[6-[[(2<I>S</I>,3<I>S</I>,5<I>R</I>)-3-azido-5-(5-methyl-2,4-dioxopyrimidin-1-yl)oxolan-2-yl]methoxy]-6-oxohexanoyl]oxy-2,2,6<I>a</I>,6<I>b</I>,9,9,12<I>a</I>-heptamethyl-1,3,4,5,6,6<I>a</I>,7,8,8<I>a</I>,10,11,12,13,14<I>b</I>-tetradecahydropicene-4<I>a</I>-carboxylic acid
> <PUBCHEM_IUPAC_NAME>
(4aS,6aR,6aS,6bR,8aR,10S,12aR,14bS)-10-[6-[[(2S,3S,5R)-3-azido-5-(5-methyl-2,4-dioxopyrimidin-1-yl)oxolan-2-yl]methoxy]-6-oxohexanoyl]oxy-2,2,6a,6b,9,9,12a-heptamethyl-1,3,4,5,6,6a,7,8,8a,10,11,12,13,14b-tetradecahydropicene-4a-carboxylic acid
> <PUBCHEM_IUPAC_SYSTEMATIC_NAME>
(4aS,6aR,6aS,6bR,8aR,10S,12aR,14bS)-10-[6-[[(2S,3S,5R)-3-azido-5-[5-methyl-2,4-bis(oxidanylidene)pyrimidin-1-yl]oxolan-2-yl]methoxy]-6-oxidanylidene-hexanoyl]oxy-2,2,6a,6b,9,9,12a-heptamethyl-1,3,4,5,6,6a,7,8,8a,10,11,12,13,14b-tetradecahydropicene-4a-carboxylic acid
> <PUBCHEM_IUPAC_TRADITIONAL_NAME>
(4aS,6aR,6aS,6bR,8aR,10S,12aR,14bS)-10-[6-[[(2S,3S,5R)-3-azido-5-(2,4-diketo-5-methyl-pyrimidin-1-yl)tetrahydrofuran-2-yl]methoxy]-6-keto-hexanoyl]oxy-2,2,6a,6b,9,9,12a-heptamethyl-1,3,4,5,6,6a,7,8,8a,10,11,12,13,14b-tetradecahydropicene-4a-carboxylic acid
> <PUBCHEM_IUPAC_INCHI>
InChI=1S/C46H67N5O9/c1-27-25-51(40(57)48-38(27)54)35-23-30(49-50-47)31(59-35)26-58-36(52)11-9-10-12-37(53)60-34-16-17-43(6)32(42(34,4)5)15-18-45(8)33(43)14-13-28-29-24-41(2,3)19-21-46(29,39(55)56)22-20-44(28,45)7/h13,25,29-35H,9-12,14-24,26H2,1-8H3,(H,55,56)(H,48,54,57)/t29-,30-,31+,32-,33+,34-,35+,43-,44+,45+,46-/m0/s1
> <PUBCHEM_IUPAC_INCHIKEY>
YUCZMIFQCHZIHP-ZQZJORMKSA-N
> <PUBCHEM_XLOGP3_AA>
9
> <PUBCHEM_EXACT_MASS>
833.49387873
> <PUBCHEM_MOLECULAR_FORMULA>
C46H67N5O9
> <PUBCHEM_MOLECULAR_WEIGHT>
834.1
> <PUBCHEM_OPENEYE_CAN_SMILES>
CC1=CN(C(=O)NC1=O)C2CC(C(O2)COC(=O)CCCCC(=O)OC3CCC4(C(C3(C)C)CCC5(C4CC=C6C5(CCC7(C6CC(CC7)(C)C)C(=O)O)C)C)C)N=[N+]=[N-]
> <PUBCHEM_OPENEYE_ISO_SMILES>
CC1=CN(C(=O)NC1=O)[C@H]2C[C@@H]([C@H](O2)COC(=O)CCCCC(=O)O[C@H]3CC[C@]4([C@H](C3(C)C)CC[C@@]5([C@@H]4CC=C6[C@]5(CC[C@@]7([C@H]6CC(CC7)(C)C)C(=O)O)C)C)C)N=[N+]=[N-]
> <PUBCHEM_CACTVS_TPSA>
163
> <PUBCHEM_MONOISOTOPIC_WEIGHT>
833.49387873
> <PUBCHEM_TOTAL_CHARGE>
0
> <PUBCHEM_HEAVY_ATOM_COUNT>
60
> <PUBCHEM_ATOM_DEF_STEREO_COUNT>
11
> <PUBCHEM_ATOM_UDEF_STEREO_COUNT>
0
> <PUBCHEM_BOND_DEF_STEREO_COUNT>
0
> <PUBCHEM_BOND_UDEF_STEREO_COUNT>
0
> <PUBCHEM_ISOTOPIC_ATOM_COUNT>
0
> <PUBCHEM_COMPONENT_COUNT>
1
> <PUBCHEM_CACTVS_TAUTO_COUNT>
-1
> <PUBCHEM_COORDINATE_TYPE>
1
5
255
> <PUBCHEM_BONDANNOTATIONS>
31  1  5
55  10  5
10  56  8
10  57  8
53  11  6
13  57  8
13  59  8
15  29  5
16  61  6
17  32  5
18  35  6
19  62  6
24  67  5
28  42  5
52  51  5
56  58  8
58  59  8
$$$$
