502138
  -OEChem-10302200282D
 25 26  0     1  0  0  0  0  0999 V2000
    2.0000   -2.3450    0.0000 F   0  0  0  0  0  0  0  0  0  0  0  0
    4.5981   -0.8450    0.0000 O   0  0  0  0  0  0  0  0  0  0  0  0
    3.7320   -3.3450    0.0000 O   0  0  0  0  0  0  0  0  0  0  0  0
    5.4641    0.6550    0.0000 O   0  0  0  0  0  0  0  0  0  0  0  0
    3.7320    3.6550    0.0000 O   0  0  0  0  0  0  0  0  0  0  0  0
    3.7320    0.6550    0.0000 N   0  0  0  0  0  0  0  0  0  0  0  0
    4.5981    2.1550    0.0000 N   0  0  0  0  0  0  0  0  0  0  0  0
    3.7320   -0.3450    0.0000 C   0  0  2  0  0  0  0  0  0  0  0  0
    3.7320   -2.3450    0.0000 C   0  0  2  0  0  0  0  0  0  0  0  0
    4.5981   -1.8450    0.0000 C   0  0  0  0  0  0  0  0  0  0  0  0
    2.8660   -0.8450    0.0000 C   0  0  0  0  0  0  0  0  0  0  0  0
    2.8660   -1.8450    0.0000 C   0  0  0  0  0  0  0  0  0  0  0  0
    4.5981    1.1550    0.0000 C   0  0  0  0  0  0  0  0  0  0  0  0
    2.8660    1.1550    0.0000 C   0  0  0  0  0  0  0  0  0  0  0  0
    2.8660    2.1550    0.0000 C   0  0  0  0  0  0  0  0  0  0  0  0
    3.7320    2.6550    0.0000 C   0  0  0  0  0  0  0  0  0  0  0  0
    4.2690   -0.0350    0.0000 H   0  0  0  0  0  0  0  0  0  0  0  0
    4.2690   -2.6550    0.0000 H   0  0  0  0  0  0  0  0  0  0  0  0
    4.8101   -2.4276    0.0000 H   0  0  0  0  0  0  0  0  0  0  0  0
    5.2087   -1.7373    0.0000 H   0  0  0  0  0  0  0  0  0  0  0  0
    2.3291   -0.5350    0.0000 H   0  0  0  0  0  0  0  0  0  0  0  0
    2.3291    0.8450    0.0000 H   0  0  0  0  0  0  0  0  0  0  0  0
    5.1350    2.4650    0.0000 H   0  0  0  0  0  0  0  0  0  0  0  0
    2.3291    2.4650    0.0000 H   0  0  0  0  0  0  0  0  0  0  0  0
    4.2690   -3.6550    0.0000 H   0  0  0  0  0  0  0  0  0  0  0  0
  1 12  1  0  0  0  0
  2  8  1  0  0  0  0
  2 10  1  0  0  0  0
  9  3  1  1  0  0  0
  3 25  1  0  0  0  0
  4 13  2  0  0  0  0
  5 16  2  0  0  0  0
  8  6  1  1  0  0  0
  6 13  1  0  0  0  0
  6 14  1  0  0  0  0
  7 13  1  0  0  0  0
  7 16  1  0  0  0  0
  7 23  1  0  0  0  0
  8 11  1  0  0  0  0
  8 17  1  0  0  0  0
  9 10  1  0  0  0  0
  9 12  1  0  0  0  0
  9 18  1  0  0  0  0
 10 19  1  0  0  0  0
 10 20  1  0  0  0  0
 11 12  2  0  0  0  0
 11 21  1  0  0  0  0
 14 15  2  0  0  0  0
 14 22  1  0  0  0  0
 15 16  1  0  0  0  0
 15 24  1  0  0  0  0
M  END
> <PUBCHEM_COMPOUND_CID>
502138
> <PUBCHEM_COMPOUND_CANONICALIZED>
1
> <PUBCHEM_CACTVS_COMPLEXITY>
393
> <PUBCHEM_CACTVS_HBOND_ACCEPTOR>
5
> <PUBCHEM_CACTVS_HBOND_DONOR>
2
> <PUBCHEM_CACTVS_ROTATABLE_BOND>
1
> <PUBCHEM_CACTVS_SUBSKEYS>
AAADccBzOQAAAAAAAAAAAAAAAAAAAAAAAAAgQAAAAAAAAAAAAAAAHwAQCAAACBThgAYBAAPABgCIACFWUACAAAAgAgAICAAIAEiBFAAAIQAKEAAIVyILMMIAAAAAAAAAAAAAAAAAAAAAAAAAAAAAAAAAAA==
> <PUBCHEM_IUPAC_OPENEYE_NAME>
1-[(3R,6S)-4-fluoro-3-hydroxy-3,6-dihydro-2H-pyran-6-yl]pyrimidine-2,4-dione
> <PUBCHEM_IUPAC_CAS_NAME>
1-[(3R,6S)-4-fluoro-3-hydroxy-3,6-dihydro-2H-pyran-6-yl]pyrimidine-2,4-dione
> <PUBCHEM_IUPAC_NAME_MARKUP>
1-[(3<I>R</I>,6<I>S</I>)-4-fluoro-3-hydroxy-3,6-dihydro-2<I>H</I>-pyran-6-yl]pyrimidine-2,4-dione
> <PUBCHEM_IUPAC_NAME>
1-[(3R,6S)-4-fluoro-3-hydroxy-3,6-dihydro-2H-pyran-6-yl]pyrimidine-2,4-dione
> <PUBCHEM_IUPAC_SYSTEMATIC_NAME>
1-[(3R,6S)-4-fluoranyl-3-oxidanyl-3,6-dihydro-2H-pyran-6-yl]pyrimidine-2,4-dione
> <PUBCHEM_IUPAC_TRADITIONAL_NAME>
1-[(3R,6S)-4-fluoro-3-hydroxy-3,6-dihydro-2H-pyran-6-yl]pyrimidine-2,4-quinone
> <PUBCHEM_IUPAC_INCHI>
InChI=1S/C9H9FN2O4/c10-5-3-8(16-4-6(5)13)12-2-1-7(14)11-9(12)15/h1-3,6,8,13H,4H2,(H,11,14,15)/t6-,8+/m1/s1
> <PUBCHEM_IUPAC_INCHIKEY>
DHHOQYOALNNCAD-SVRRBLITSA-N
> <PUBCHEM_XLOGP3_AA>
-1.4
> <PUBCHEM_EXACT_MASS>
228.05463493
> <PUBCHEM_MOLECULAR_FORMULA>
C9H9FN2O4
> <PUBCHEM_MOLECULAR_WEIGHT>
228.18
> <PUBCHEM_OPENEYE_CAN_SMILES>
C1C(C(=CC(O1)N2C=CC(=O)NC2=O)F)O
> <PUBCHEM_OPENEYE_ISO_SMILES>
C1[C@H](C(=C[C@H](O1)N2C=CC(=O)NC2=O)F)O
> <PUBCHEM_CACTVS_TPSA>
78.9
> <PUBCHEM_MONOISOTOPIC_WEIGHT>
228.05463493
> <PUBCHEM_TOTAL_CHARGE>
0
> <PUBCHEM_HEAVY_ATOM_COUNT>
16
> <PUBCHEM_ATOM_DEF_STEREO_COUNT>
2
> <PUBCHEM_ATOM_UDEF_STEREO_COUNT>
0
> <PUBCHEM_BOND_DEF_STEREO_COUNT>
0
> <PUBCHEM_BOND_UDEF_STEREO_COUNT>
0
> <PUBCHEM_ISOTOPIC_ATOM_COUNT>
0
> <PUBCHEM_COMPONENT_COUNT>
1
> <PUBCHEM_CACTVS_TAUTO_COUNT>
-1
> <PUBCHEM_COORDINATE_TYPE>
1
5
255
> <PUBCHEM_BONDANNOTATIONS>
14  15  8
15  16  8
9  3  5
6  13  8
6  14  8
8  6  5
7  13  8
7  16  8
$$$$
