502283
  -OEChem-10302200282D
 67 67  0     1  0  0  0  0  0999 V2000
    6.8671   -2.9400    0.0000 O   0  0  0  0  0  0  0  0  0  0  0  0
    7.7331   -0.4400    0.0000 O   0  0  0  0  0  0  0  0  0  0  0  0
    8.5991   -2.9400    0.0000 O   0  0  0  0  0  0  0  0  0  0  0  0
   10.3312   -1.9400    0.0000 O   0  0  0  0  0  0  0  0  0  0  0  0
    4.2690   -0.4400    0.0000 O   0  0  0  0  0  0  0  0  0  0  0  0
    5.1350   -4.9400    0.0000 O   0  0  0  0  0  0  0  0  0  0  0  0
    6.8671   -4.9400    0.0000 O   0  0  0  0  0  0  0  0  0  0  0  0
    6.0010   -0.4400    0.0000 N   0  0  0  0  0  0  0  0  0  0  0  0
    4.2690   -1.4400    0.0000 N   0  0  0  0  0  0  0  0  0  0  0  0
    2.5369   -1.4400    0.0000 N   0  0  0  0  0  0  0  0  0  0  0  0
    3.4030   -2.9400    0.0000 N   0  0  0  0  0  0  0  0  0  0  0  0
    6.8671   -1.9400    0.0000 C   0  0  2  0  0  0  0  0  0  0  0  0
    6.0010   -1.4400    0.0000 C   0  0  1  0  0  0  0  0  0  0  0  0
    7.7331   -1.4400    0.0000 C   0  0  1  0  0  0  0  0  0  0  0  0
    5.1350   -1.9400    0.0000 C   0  0  2  0  0  0  0  0  0  0  0  0
    8.5991   -1.9400    0.0000 C   0  0  1  0  0  0  0  0  0  0  0  0
    5.1350   -2.9400    0.0000 C   0  0  0  0  0  0  0  0  0  0  0  0
    6.0010   -3.4400    0.0000 C   0  0  0  0  0  0  0  0  0  0  0  0
    8.5991    0.0600    0.0000 C   0  0  0  0  0  0  0  0  0  0  0  0
    9.4651   -1.4400    0.0000 C   0  0  0  0  0  0  0  0  0  0  0  0
    8.5991    1.0600    0.0000 C   0  0  0  0  0  0  0  0  0  0  0  0
    9.4651    1.5600    0.0000 C   0  0  0  0  0  0  0  0  0  0  0  0
    9.4651    2.5600    0.0000 C   0  0  0  0  0  0  0  0  0  0  0  0
    5.1350    0.0600    0.0000 C   0  0  0  0  0  0  0  0  0  0  0  0
   10.3312    3.0600    0.0000 C   0  0  0  0  0  0  0  0  0  0  0  0
    6.0010   -4.4400    0.0000 C   0  0  0  0  0  0  0  0  0  0  0  0
   10.3312    4.0600    0.0000 C   0  0  0  0  0  0  0  0  0  0  0  0
    3.4030   -1.9400    0.0000 C   0  0  0  0  0  0  0  0  0  0  0  0
    5.1350    1.0600    0.0000 C   0  0  0  0  0  0  0  0  0  0  0  0
   11.1972    4.5600    0.0000 C   0  0  0  0  0  0  0  0  0  0  0  0
   11.1972    5.5600    0.0000 C   0  0  0  0  0  0  0  0  0  0  0  0
    7.6032   -2.3650    0.0000 H   0  0  0  0  0  0  0  0  0  0  0  0
    6.5380   -1.1300    0.0000 H   0  0  0  0  0  0  0  0  0  0  0  0
    8.2700   -1.1300    0.0000 H   0  0  0  0  0  0  0  0  0  0  0  0
    5.1350   -1.3200    0.0000 H   0  0  0  0  0  0  0  0  0  0  0  0
    8.0622   -2.2500    0.0000 H   0  0  0  0  0  0  0  0  0  0  0  0
    6.5380   -0.1300    0.0000 H   0  0  0  0  0  0  0  0  0  0  0  0
    4.5981   -3.2500    0.0000 H   0  0  0  0  0  0  0  0  0  0  0  0
    8.8112   -0.5226    0.0000 H   0  0  0  0  0  0  0  0  0  0  0  0
    9.2097    0.1677    0.0000 H   0  0  0  0  0  0  0  0  0  0  0  0
    9.8637   -0.9651    0.0000 H   0  0  0  0  0  0  0  0  0  0  0  0
    9.0666   -0.9651    0.0000 H   0  0  0  0  0  0  0  0  0  0  0  0
    8.3871    1.6426    0.0000 H   0  0  0  0  0  0  0  0  0  0  0  0
    7.9885    0.9523    0.0000 H   0  0  0  0  0  0  0  0  0  0  0  0
    9.6772    0.9774    0.0000 H   0  0  0  0  0  0  0  0  0  0  0  0
   10.0757    1.6677    0.0000 H   0  0  0  0  0  0  0  0  0  0  0  0
    9.2531    3.1426    0.0000 H   0  0  0  0  0  0  0  0  0  0  0  0
    8.8546    2.4523    0.0000 H   0  0  0  0  0  0  0  0  0  0  0  0
    9.1360   -3.2500    0.0000 H   0  0  0  0  0  0  0  0  0  0  0  0
   10.5432    2.4774    0.0000 H   0  0  0  0  0  0  0  0  0  0  0  0
   10.9417    3.1677    0.0000 H   0  0  0  0  0  0  0  0  0  0  0  0
   10.1191    4.6426    0.0000 H   0  0  0  0  0  0  0  0  0  0  0  0
    9.7206    3.9523    0.0000 H   0  0  0  0  0  0  0  0  0  0  0  0
    5.7550    1.0600    0.0000 H   0  0  0  0  0  0  0  0  0  0  0  0
    5.1350    1.6800    0.0000 H   0  0  0  0  0  0  0  0  0  0  0  0
    4.5150    1.0600    0.0000 H   0  0  0  0  0  0  0  0  0  0  0  0
   10.8681   -1.6300    0.0000 H   0  0  0  0  0  0  0  0  0  0  0  0
   11.4092    3.9774    0.0000 H   0  0  0  0  0  0  0  0  0  0  0  0
   11.8078    4.6677    0.0000 H   0  0  0  0  0  0  0  0  0  0  0  0
    5.1350   -5.5600    0.0000 H   0  0  0  0  0  0  0  0  0  0  0  0
    2.0000   -1.7500    0.0000 H   0  0  0  0  0  0  0  0  0  0  0  0
    2.5369   -0.8200    0.0000 H   0  0  0  0  0  0  0  0  0  0  0  0
    2.8660   -3.2500    0.0000 H   0  0  0  0  0  0  0  0  0  0  0  0
    3.9399   -3.2500    0.0000 H   0  0  0  0  0  0  0  0  0  0  0  0
   11.8172    5.5600    0.0000 H   0  0  0  0  0  0  0  0  0  0  0  0
   11.1972    6.1800    0.0000 H   0  0  0  0  0  0  0  0  0  0  0  0
   10.5772    5.5600    0.0000 H   0  0  0  0  0  0  0  0  0  0  0  0
  1 12  1  0  0  0  0
  1 18  1  0  0  0  0
 14  2  1  6  0  0  0
  2 19  1  0  0  0  0
 16  3  1  1  0  0  0
  3 49  1  0  0  0  0
  4 20  1  0  0  0  0
  4 57  1  0  0  0  0
  5 24  2  0  0  0  0
  6 26  1  0  0  0  0
  6 60  1  0  0  0  0
  7 26  2  0  0  0  0
 13  8  1  1  0  0  0
  8 24  1  0  0  0  0
  8 37  1  0  0  0  0
 15  9  1  6  0  0  0
  9 28  2  0  0  0  0
 10 28  1  0  0  0  0
 10 61  1  0  0  0  0
 10 62  1  0  0  0  0
 11 28  1  0  0  0  0
 11 63  1  0  0  0  0
 11 64  1  0  0  0  0
 12 13  1  0  0  0  0
 12 14  1  0  0  0  0
 12 32  1  1  0  0  0
 13 15  1  0  0  0  0
 13 33  1  0  0  0  0
 14 16  1  0  0  0  0
 14 34  1  0  0  0  0
 15 17  1  0  0  0  0
 15 35  1  0  0  0  0
 16 20  1  0  0  0  0
 16 36  1  0  0  0  0
 17 18  2  0  0  0  0
 17 38  1  0  0  0  0
 18 26  1  0  0  0  0
 19 21  1  0  0  0  0
 19 39  1  0  0  0  0
 19 40  1  0  0  0  0
 20 41  1  0  0  0  0
 20 42  1  0  0  0  0
 21 22  1  0  0  0  0
 21 43  1  0  0  0  0
 21 44  1  0  0  0  0
 22 23  1  0  0  0  0
 22 45  1  0  0  0  0
 22 46  1  0  0  0  0
 23 25  1  0  0  0  0
 23 47  1  0  0  0  0
 23 48  1  0  0  0  0
 24 29  1  0  0  0  0
 25 27  1  0  0  0  0
 25 50  1  0  0  0  0
 25 51  1  0  0  0  0
 27 30  1  0  0  0  0
 27 52  1  0  0  0  0
 27 53  1  0  0  0  0
 29 54  1  0  0  0  0
 29 55  1  0  0  0  0
 29 56  1  0  0  0  0
 30 31  1  0  0  0  0
 30 58  1  0  0  0  0
 30 59  1  0  0  0  0
 31 65  1  0  0  0  0
 31 66  1  0  0  0  0
 31 67  1  0  0  0  0
M  END
> <PUBCHEM_COMPOUND_CID>
502283
> <PUBCHEM_COMPOUND_CANONICALIZED>
1
> <PUBCHEM_CACTVS_COMPLEXITY>
637
> <PUBCHEM_CACTVS_HBOND_ACCEPTOR>
8
> <PUBCHEM_CACTVS_HBOND_DONOR>
6
> <PUBCHEM_CACTVS_ROTATABLE_BOND>
14
> <PUBCHEM_CACTVS_SUBSKEYS>
AAADcfB7uAAAAAAAAAAAAAAAAAAAAAAAAAAgAAAAAAAAAAAAAAAAHgAQCAAACDzhgAYDCALABgCoACHSPAKACAEgIAAACIBIAEgDVAIAgAQXUAAHlgCbEYPw0KMAAAAAAAAAAAAAAAAAAAAAAAAAAAAAAA==
> <PUBCHEM_IUPAC_OPENEYE_NAME>
(2R,3R,4S)-3-acetamido-2-[(1R,2R)-2,3-dihydroxy-1-octoxy-propyl]-4-guanidino-3,4-dihydro-2H-pyran-6-carboxylic acid
> <PUBCHEM_IUPAC_CAS_NAME>
(2R,3R,4S)-3-acetamido-4-(diaminomethylideneamino)-2-[(1R,2R)-2,3-dihydroxy-1-octoxypropyl]-3,4-dihydro-2H-pyran-6-carboxylic acid
> <PUBCHEM_IUPAC_NAME_MARKUP>
(2<I>R</I>,3<I>R</I>,4<I>S</I>)-3-acetamido-4-(diaminomethylideneamino)-2-[(1<I>R</I>,2<I>R</I>)-2,3-dihydroxy-1-octoxypropyl]-3,4-dihydro-2<I>H</I>-pyran-6-carboxylic acid
> <PUBCHEM_IUPAC_NAME>
(2R,3R,4S)-3-acetamido-4-(diaminomethylideneamino)-2-[(1R,2R)-2,3-dihydroxy-1-octoxypropyl]-3,4-dihydro-2H-pyran-6-carboxylic acid
> <PUBCHEM_IUPAC_SYSTEMATIC_NAME>
(2R,3R,4S)-3-acetamido-4-[bis(azanyl)methylideneamino]-2-[(1R,2R)-1-octoxy-2,3-bis(oxidanyl)propyl]-3,4-dihydro-2H-pyran-6-carboxylic acid
> <PUBCHEM_IUPAC_TRADITIONAL_NAME>
(2R,3R,4S)-3-acetamido-2-[(1R,2R)-2,3-dihydroxy-1-octoxy-propyl]-4-guanidino-3,4-dihydro-2H-pyran-6-carboxylic acid
> <PUBCHEM_IUPAC_INCHI>
InChI=1S/C20H36N4O7/c1-3-4-5-6-7-8-9-30-17(14(27)11-25)18-16(23-12(2)26)13(24-20(21)22)10-15(31-18)19(28)29/h10,13-14,16-18,25,27H,3-9,11H2,1-2H3,(H,23,26)(H,28,29)(H4,21,22,24)/t13-,14+,16+,17+,18+/m0/s1
> <PUBCHEM_IUPAC_INCHIKEY>
GAEDSJMECGQJNI-QBBQCFRVSA-N
> <PUBCHEM_XLOGP3_AA>
0.2
> <PUBCHEM_EXACT_MASS>
444.25839950
> <PUBCHEM_MOLECULAR_FORMULA>
C20H36N4O7
> <PUBCHEM_MOLECULAR_WEIGHT>
444.5
> <PUBCHEM_OPENEYE_CAN_SMILES>
CCCCCCCCOC(C1C(C(C=C(O1)C(=O)O)N=C(N)N)NC(=O)C)C(CO)O
> <PUBCHEM_OPENEYE_ISO_SMILES>
CCCCCCCCO[C@@H]([C@H]1[C@@H]([C@H](C=C(O1)C(=O)O)N=C(N)N)NC(=O)C)[C@@H](CO)O
> <PUBCHEM_CACTVS_TPSA>
190
> <PUBCHEM_MONOISOTOPIC_WEIGHT>
444.25839950
> <PUBCHEM_TOTAL_CHARGE>
0
> <PUBCHEM_HEAVY_ATOM_COUNT>
31
> <PUBCHEM_ATOM_DEF_STEREO_COUNT>
5
> <PUBCHEM_ATOM_UDEF_STEREO_COUNT>
0
> <PUBCHEM_BOND_DEF_STEREO_COUNT>
0
> <PUBCHEM_BOND_UDEF_STEREO_COUNT>
0
> <PUBCHEM_ISOTOPIC_ATOM_COUNT>
0
> <PUBCHEM_COMPONENT_COUNT>
1
> <PUBCHEM_CACTVS_TAUTO_COUNT>
-1
> <PUBCHEM_COORDINATE_TYPE>
1
5
255
> <PUBCHEM_BONDANNOTATIONS>
12  32  5
14  2  6
16  3  5
13  8  5
15  9  6
$$$$
