502281
  -OEChem-10302200282D
 52 52  0     1  0  0  0  0  0999 V2000
    6.8671   -0.9400    0.0000 O   0  0  0  0  0  0  0  0  0  0  0  0
    7.7331    1.5600    0.0000 O   0  0  0  0  0  0  0  0  0  0  0  0
    8.5991   -0.9400    0.0000 O   0  0  0  0  0  0  0  0  0  0  0  0
   10.3312    0.0600    0.0000 O   0  0  0  0  0  0  0  0  0  0  0  0
    4.2690    1.5600    0.0000 O   0  0  0  0  0  0  0  0  0  0  0  0
    5.1350   -2.9400    0.0000 O   0  0  0  0  0  0  0  0  0  0  0  0
    6.8671   -2.9400    0.0000 O   0  0  0  0  0  0  0  0  0  0  0  0
    6.0010    1.5600    0.0000 N   0  0  0  0  0  0  0  0  0  0  0  0
    4.2690    0.5600    0.0000 N   0  0  0  0  0  0  0  0  0  0  0  0
    2.5369    0.5600    0.0000 N   0  0  0  0  0  0  0  0  0  0  0  0
    3.4030   -0.9400    0.0000 N   0  0  0  0  0  0  0  0  0  0  0  0
    6.8671    0.0600    0.0000 C   0  0  2  0  0  0  0  0  0  0  0  0
    6.0010    0.5600    0.0000 C   0  0  1  0  0  0  0  0  0  0  0  0
    7.7331    0.5600    0.0000 C   0  0  1  0  0  0  0  0  0  0  0  0
    5.1350    0.0600    0.0000 C   0  0  2  0  0  0  0  0  0  0  0  0
    8.5991    0.0600    0.0000 C   0  0  1  0  0  0  0  0  0  0  0  0
    5.1350   -0.9400    0.0000 C   0  0  0  0  0  0  0  0  0  0  0  0
    6.0010   -1.4400    0.0000 C   0  0  0  0  0  0  0  0  0  0  0  0
    9.4651    0.5600    0.0000 C   0  0  0  0  0  0  0  0  0  0  0  0
    8.5991    2.0600    0.0000 C   0  0  0  0  0  0  0  0  0  0  0  0
    5.1350    2.0600    0.0000 C   0  0  0  0  0  0  0  0  0  0  0  0
    8.5991    3.0600    0.0000 C   0  0  0  0  0  0  0  0  0  0  0  0
    6.0010   -2.4400    0.0000 C   0  0  0  0  0  0  0  0  0  0  0  0
    3.4030    0.0600    0.0000 C   0  0  0  0  0  0  0  0  0  0  0  0
    5.1350    3.0600    0.0000 C   0  0  0  0  0  0  0  0  0  0  0  0
    9.4651    3.5600    0.0000 C   0  0  0  0  0  0  0  0  0  0  0  0
    7.6032   -0.3650    0.0000 H   0  0  0  0  0  0  0  0  0  0  0  0
    6.5380    0.8700    0.0000 H   0  0  0  0  0  0  0  0  0  0  0  0
    8.2700    0.8700    0.0000 H   0  0  0  0  0  0  0  0  0  0  0  0
    5.1350    0.6800    0.0000 H   0  0  0  0  0  0  0  0  0  0  0  0
    8.0622   -0.2500    0.0000 H   0  0  0  0  0  0  0  0  0  0  0  0
    6.5380    1.8700    0.0000 H   0  0  0  0  0  0  0  0  0  0  0  0
    4.5981   -1.2500    0.0000 H   0  0  0  0  0  0  0  0  0  0  0  0
    9.8637    1.0350    0.0000 H   0  0  0  0  0  0  0  0  0  0  0  0
    9.0666    1.0350    0.0000 H   0  0  0  0  0  0  0  0  0  0  0  0
    8.8112    1.4774    0.0000 H   0  0  0  0  0  0  0  0  0  0  0  0
    9.2097    2.1677    0.0000 H   0  0  0  0  0  0  0  0  0  0  0  0
    9.1360   -1.2500    0.0000 H   0  0  0  0  0  0  0  0  0  0  0  0
    8.3871    3.6426    0.0000 H   0  0  0  0  0  0  0  0  0  0  0  0
    7.9885    2.9523    0.0000 H   0  0  0  0  0  0  0  0  0  0  0  0
    5.7550    3.0600    0.0000 H   0  0  0  0  0  0  0  0  0  0  0  0
    5.1350    3.6800    0.0000 H   0  0  0  0  0  0  0  0  0  0  0  0
    4.5150    3.0600    0.0000 H   0  0  0  0  0  0  0  0  0  0  0  0
   10.8681    0.3700    0.0000 H   0  0  0  0  0  0  0  0  0  0  0  0
    9.7751    3.0231    0.0000 H   0  0  0  0  0  0  0  0  0  0  0  0
   10.0021    3.8700    0.0000 H   0  0  0  0  0  0  0  0  0  0  0  0
    9.1551    4.0969    0.0000 H   0  0  0  0  0  0  0  0  0  0  0  0
    5.1350   -3.5600    0.0000 H   0  0  0  0  0  0  0  0  0  0  0  0
    2.0000    0.2500    0.0000 H   0  0  0  0  0  0  0  0  0  0  0  0
    2.5369    1.1800    0.0000 H   0  0  0  0  0  0  0  0  0  0  0  0
    2.8660   -1.2500    0.0000 H   0  0  0  0  0  0  0  0  0  0  0  0
    3.9399   -1.2500    0.0000 H   0  0  0  0  0  0  0  0  0  0  0  0
  1 12  1  0  0  0  0
  1 18  1  0  0  0  0
 14  2  1  6  0  0  0
  2 20  1  0  0  0  0
 16  3  1  1  0  0  0
  3 38  1  0  0  0  0
  4 19  1  0  0  0  0
  4 44  1  0  0  0  0
  5 21  2  0  0  0  0
  6 23  1  0  0  0  0
  6 48  1  0  0  0  0
  7 23  2  0  0  0  0
 13  8  1  1  0  0  0
  8 21  1  0  0  0  0
  8 32  1  0  0  0  0
 15  9  1  6  0  0  0
  9 24  2  0  0  0  0
 10 24  1  0  0  0  0
 10 49  1  0  0  0  0
 10 50  1  0  0  0  0
 11 24  1  0  0  0  0
 11 51  1  0  0  0  0
 11 52  1  0  0  0  0
 12 13  1  0  0  0  0
 12 14  1  0  0  0  0
 12 27  1  1  0  0  0
 13 15  1  0  0  0  0
 13 28  1  0  0  0  0
 14 16  1  0  0  0  0
 14 29  1  0  0  0  0
 15 17  1  0  0  0  0
 15 30  1  0  0  0  0
 16 19  1  0  0  0  0
 16 31  1  0  0  0  0
 17 18  2  0  0  0  0
 17 33  1  0  0  0  0
 18 23  1  0  0  0  0
 19 34  1  0  0  0  0
 19 35  1  0  0  0  0
 20 22  1  0  0  0  0
 20 36  1  0  0  0  0
 20 37  1  0  0  0  0
 21 25  1  0  0  0  0
 22 26  1  0  0  0  0
 22 39  1  0  0  0  0
 22 40  1  0  0  0  0
 25 41  1  0  0  0  0
 25 42  1  0  0  0  0
 25 43  1  0  0  0  0
 26 45  1  0  0  0  0
 26 46  1  0  0  0  0
 26 47  1  0  0  0  0
M  END
> <PUBCHEM_COMPOUND_CID>
502281
> <PUBCHEM_COMPOUND_CANONICALIZED>
1
> <PUBCHEM_CACTVS_COMPLEXITY>
562
> <PUBCHEM_CACTVS_HBOND_ACCEPTOR>
8
> <PUBCHEM_CACTVS_HBOND_DONOR>
6
> <PUBCHEM_CACTVS_ROTATABLE_BOND>
9
> <PUBCHEM_CACTVS_SUBSKEYS>
AAADceBzuAAAAAAAAAAAAAAAAAAAAAAAAAAgAAAAAAAAAAAAAAAAHgAQCAAACDzhgAYDCALABgCoACHSPAKACAEgIAAACIBIAEgDVAIAgAQXUAAHlgCbEYPw0CMAAAAAAAAAAAAAAAAAAAAAAAAAAAAAAA==
> <PUBCHEM_IUPAC_OPENEYE_NAME>
(2R,3R,4S)-3-acetamido-2-[(1R,2R)-2,3-dihydroxy-1-propoxy-propyl]-4-guanidino-3,4-dihydro-2H-pyran-6-carboxylic acid
> <PUBCHEM_IUPAC_CAS_NAME>
(2R,3R,4S)-3-acetamido-4-(diaminomethylideneamino)-2-[(1R,2R)-2,3-dihydroxy-1-propoxypropyl]-3,4-dihydro-2H-pyran-6-carboxylic acid
> <PUBCHEM_IUPAC_NAME_MARKUP>
(2<I>R</I>,3<I>R</I>,4<I>S</I>)-3-acetamido-4-(diaminomethylideneamino)-2-[(1<I>R</I>,2<I>R</I>)-2,3-dihydroxy-1-propoxypropyl]-3,4-dihydro-2<I>H</I>-pyran-6-carboxylic acid
> <PUBCHEM_IUPAC_NAME>
(2R,3R,4S)-3-acetamido-4-(diaminomethylideneamino)-2-[(1R,2R)-2,3-dihydroxy-1-propoxypropyl]-3,4-dihydro-2H-pyran-6-carboxylic acid
> <PUBCHEM_IUPAC_SYSTEMATIC_NAME>
(2R,3R,4S)-3-acetamido-4-[bis(azanyl)methylideneamino]-2-[(1R,2R)-2,3-bis(oxidanyl)-1-propoxy-propyl]-3,4-dihydro-2H-pyran-6-carboxylic acid
> <PUBCHEM_IUPAC_TRADITIONAL_NAME>
(2R,3R,4S)-3-acetamido-2-[(1R,2R)-2,3-dihydroxy-1-propoxy-propyl]-4-guanidino-3,4-dihydro-2H-pyran-6-carboxylic acid
> <PUBCHEM_IUPAC_INCHI>
InChI=1S/C15H26N4O7/c1-3-4-25-12(9(22)6-20)13-11(18-7(2)21)8(19-15(16)17)5-10(26-13)14(23)24/h5,8-9,11-13,20,22H,3-4,6H2,1-2H3,(H,18,21)(H,23,24)(H4,16,17,19)/t8-,9+,11+,12+,13+/m0/s1
> <PUBCHEM_IUPAC_INCHIKEY>
PFUSBAPXPQZUIJ-IINAIABHSA-N
> <PUBCHEM_XLOGP3_AA>
-2.3
> <PUBCHEM_EXACT_MASS>
374.18014918
> <PUBCHEM_MOLECULAR_FORMULA>
C15H26N4O7
> <PUBCHEM_MOLECULAR_WEIGHT>
374.39
> <PUBCHEM_OPENEYE_CAN_SMILES>
CCCOC(C1C(C(C=C(O1)C(=O)O)N=C(N)N)NC(=O)C)C(CO)O
> <PUBCHEM_OPENEYE_ISO_SMILES>
CCCO[C@@H]([C@H]1[C@@H]([C@H](C=C(O1)C(=O)O)N=C(N)N)NC(=O)C)[C@@H](CO)O
> <PUBCHEM_CACTVS_TPSA>
190
> <PUBCHEM_MONOISOTOPIC_WEIGHT>
374.18014918
> <PUBCHEM_TOTAL_CHARGE>
0
> <PUBCHEM_HEAVY_ATOM_COUNT>
26
> <PUBCHEM_ATOM_DEF_STEREO_COUNT>
5
> <PUBCHEM_ATOM_UDEF_STEREO_COUNT>
0
> <PUBCHEM_BOND_DEF_STEREO_COUNT>
0
> <PUBCHEM_BOND_UDEF_STEREO_COUNT>
0
> <PUBCHEM_ISOTOPIC_ATOM_COUNT>
0
> <PUBCHEM_COMPONENT_COUNT>
1
> <PUBCHEM_CACTVS_TAUTO_COUNT>
-1
> <PUBCHEM_COORDINATE_TYPE>
1
5
255
> <PUBCHEM_BONDANNOTATIONS>
12  27  5
14  2  6
16  3  5
13  8  5
15  9  6
$$$$
