502218
  -OEChem-10302200282D
 57 59  0     1  0  0  0  0  0999 V2000
    5.0009   -1.2550    0.0000 P   0  0  3  0  0  0  0  0  0  0  0  0
    4.5411    2.2276    0.0000 O   0  0  0  0  0  0  0  0  0  0  0  0
    4.4131   -0.4460    0.0000 O   0  0  0  0  0  0  0  0  0  0  0  0
    4.1919   -1.8428    0.0000 O   0  0  0  0  0  0  0  0  0  0  0  0
    5.8099   -0.6672    0.0000 O   0  0  0  0  0  0  0  0  0  0  0  0
    5.4641    3.8154    0.0000 O   0  0  0  0  0  0  0  0  0  0  0  0
    3.7320    6.8154    0.0000 O   0  0  0  0  0  0  0  0  0  0  0  0
    8.1655   -2.6640    0.0000 O   0  0  0  0  0  0  0  0  0  0  0  0
    6.7642   -3.6821    0.0000 O   0  0  0  0  0  0  0  0  0  0  0  0
    3.7320    3.8154    0.0000 N   0  0  0  0  0  0  0  0  0  0  0  0
    5.5887   -2.0640    0.0000 N   0  0  0  0  0  0  0  0  0  0  0  0
    4.5981    5.3154    0.0000 N   0  0  0  0  0  0  0  0  0  0  0  0
    4.7145   -6.8154    0.0000 N   0  0  0  0  0  0  0  0  0  0  0  0
    4.2320    1.2766    0.0000 C   0  0  2  0  0  0  0  0  0  0  0  0
    3.7320    2.8154    0.0000 C   0  0  1  0  0  0  0  0  0  0  0  0
    4.8198    0.4675    0.0000 C   0  0  0  0  0  0  0  0  0  0  0  0
    3.2320    1.2766    0.0000 C   0  0  0  0  0  0  0  0  0  0  0  0
    2.9230    2.2276    0.0000 C   0  0  0  0  0  0  0  0  0  0  0  0
    2.8660    4.3154    0.0000 C   0  0  0  0  0  0  0  0  0  0  0  0
    4.5981    4.3154    0.0000 C   0  0  0  0  0  0  0  0  0  0  0  0
    2.8660    5.3154    0.0000 C   0  0  0  0  0  0  0  0  0  0  0  0
    6.5832   -1.9595    0.0000 C   0  0  3  0  0  0  0  0  0  0  0  0
    3.7320    5.8154    0.0000 C   0  0  0  0  0  0  0  0  0  0  0  0
    6.9899   -1.0460    0.0000 C   0  0  0  0  0  0  0  0  0  0  0  0
    2.0000    5.8154    0.0000 C   0  0  0  0  0  0  0  0  0  0  0  0
    7.1710   -2.7685    0.0000 C   0  0  0  0  0  0  0  0  0  0  0  0
    4.2964   -2.8373    0.0000 C   0  0  0  0  0  0  0  0  0  0  0  0
    3.4874   -3.4251    0.0000 C   0  0  0  0  0  0  0  0  0  0  0  0
    5.2099   -3.2441    0.0000 C   0  0  0  0  0  0  0  0  0  0  0  0
    3.5919   -4.4196    0.0000 C   0  0  0  0  0  0  0  0  0  0  0  0
    5.3145   -4.2386    0.0000 C   0  0  0  0  0  0  0  0  0  0  0  0
    4.5054   -4.8264    0.0000 C   0  0  0  0  0  0  0  0  0  0  0  0
    8.7533   -3.4730    0.0000 C   0  0  0  0  0  0  0  0  0  0  0  0
    4.6100   -5.8209    0.0000 C   0  0  0  0  0  0  0  0  0  0  0  0
    4.8444    1.3736    0.0000 H   0  0  0  0  0  0  0  0  0  0  0  0
    4.2845    3.0969    0.0000 H   0  0  0  0  0  0  0  0  0  0  0  0
    5.3338    0.1208    0.0000 H   0  0  0  0  0  0  0  0  0  0  0  0
    5.2505    0.9135    0.0000 H   0  0  0  0  0  0  0  0  0  0  0  0
    2.8676    0.7750    0.0000 H   0  0  0  0  0  0  0  0  0  0  0  0
    2.3334    2.4192    0.0000 H   0  0  0  0  0  0  0  0  0  0  0  0
    2.3291    4.0054    0.0000 H   0  0  0  0  0  0  0  0  0  0  0  0
    5.3365   -2.6304    0.0000 H   0  0  0  0  0  0  0  0  0  0  0  0
    6.3310   -2.5259    0.0000 H   0  0  0  0  0  0  0  0  0  0  0  0
    5.1350    5.6254    0.0000 H   0  0  0  0  0  0  0  0  0  0  0  0
    7.5563   -1.2981    0.0000 H   0  0  0  0  0  0  0  0  0  0  0  0
    7.2421   -0.4796    0.0000 H   0  0  0  0  0  0  0  0  0  0  0  0
    6.4235   -0.7938    0.0000 H   0  0  0  0  0  0  0  0  0  0  0  0
    2.3100    6.3523    0.0000 H   0  0  0  0  0  0  0  0  0  0  0  0
    1.4631    6.1254    0.0000 H   0  0  0  0  0  0  0  0  0  0  0  0
    1.6900    5.2785    0.0000 H   0  0  0  0  0  0  0  0  0  0  0  0
    2.9210   -3.1729    0.0000 H   0  0  0  0  0  0  0  0  0  0  0  0
    5.7115   -2.8796    0.0000 H   0  0  0  0  0  0  0  0  0  0  0  0
    3.0903   -4.7840    0.0000 H   0  0  0  0  0  0  0  0  0  0  0  0
    5.8809   -4.4908    0.0000 H   0  0  0  0  0  0  0  0  0  0  0  0
    8.2517   -3.8374    0.0000 H   0  0  0  0  0  0  0  0  0  0  0  0
    9.1177   -3.9746    0.0000 H   0  0  0  0  0  0  0  0  0  0  0  0
    9.2549   -3.1086    0.0000 H   0  0  0  0  0  0  0  0  0  0  0  0
  1  3  1  0  0  0  0
  1  4  1  0  0  0  0
  1  5  2  0  0  0  0
  1 11  1  0  0  0  0
  2 14  1  0  0  0  0
  2 15  1  0  0  0  0
  3 16  1  0  0  0  0
  4 27  1  0  0  0  0
  6 20  2  0  0  0  0
  7 23  2  0  0  0  0
  8 26  1  0  0  0  0
  8 33  1  0  0  0  0
  9 26  2  0  0  0  0
 15 10  1  6  0  0  0
 10 19  1  0  0  0  0
 10 20  1  0  0  0  0
 11 22  1  0  0  0  0
 11 42  1  0  0  0  0
 12 20  1  0  0  0  0
 12 23  1  0  0  0  0
 12 44  1  0  0  0  0
 13 34  3  0  0  0  0
 14 16  1  6  0  0  0
 14 17  1  0  0  0  0
 14 35  1  0  0  0  0
 15 18  1  0  0  0  0
 15 36  1  0  0  0  0
 16 37  1  0  0  0  0
 16 38  1  0  0  0  0
 17 18  2  0  0  0  0
 17 39  1  0  0  0  0
 18 40  1  0  0  0  0
 19 21  2  0  0  0  0
 19 41  1  0  0  0  0
 21 23  1  0  0  0  0
 21 25  1  0  0  0  0
 22 24  1  0  0  0  0
 22 26  1  0  0  0  0
 22 43  1  0  0  0  0
 24 45  1  0  0  0  0
 24 46  1  0  0  0  0
 24 47  1  0  0  0  0
 25 48  1  0  0  0  0
 25 49  1  0  0  0  0
 25 50  1  0  0  0  0
 27 28  2  0  0  0  0
 27 29  1  0  0  0  0
 28 30  1  0  0  0  0
 28 51  1  0  0  0  0
 29 31  2  0  0  0  0
 29 52  1  0  0  0  0
 30 32  2  0  0  0  0
 30 53  1  0  0  0  0
 31 32  1  0  0  0  0
 31 54  1  0  0  0  0
 32 34  1  0  0  0  0
 33 55  1  0  0  0  0
 33 56  1  0  0  0  0
 33 57  1  0  0  0  0
M  END
> <PUBCHEM_COMPOUND_CID>
502218
> <PUBCHEM_COMPOUND_CANONICALIZED>
1
> <PUBCHEM_CACTVS_COMPLEXITY>
965
> <PUBCHEM_CACTVS_HBOND_ACCEPTOR>
10
> <PUBCHEM_CACTVS_HBOND_DONOR>
2
> <PUBCHEM_CACTVS_ROTATABLE_BOND>
10
> <PUBCHEM_CACTVS_SUBSKEYS>
AAADceB7vAIAAAAAAAAAAAAAAAAAAQAAAAAwQAAAAAAAAAABAAAAHgAQgCAADDzhmAYzDoPABRCYRiHWWICiAAAgIAAIiIGOCMiLpiKAMRKPMAAs1zMKqM+AwAAOIAAAAAAAAABAAAAAAAAAAAAAAAAAAA==
> <PUBCHEM_IUPAC_OPENEYE_NAME>
methyl 2-[[(4-cyanophenoxy)-[[(2S,5R)-5-(5-methyl-2,4-dioxo-pyrimidin-1-yl)-2,5-dihydrofuran-2-yl]methoxy]phosphoryl]amino]propanoate
> <PUBCHEM_IUPAC_CAS_NAME>
2-[[(4-cyanophenoxy)-[[(2S,5R)-5-(5-methyl-2,4-dioxo-1-pyrimidinyl)-2,5-dihydrofuran-2-yl]methoxy]phosphoryl]amino]propanoic acid methyl ester
> <PUBCHEM_IUPAC_NAME_MARKUP>
methyl 2-[[(4-cyanophenoxy)-[[(2<I>S</I>,5<I>R</I>)-5-(5-methyl-2,4-dioxopyrimidin-1-yl)-2,5-dihydrofuran-2-yl]methoxy]phosphoryl]amino]propanoate
> <PUBCHEM_IUPAC_NAME>
methyl 2-[[(4-cyanophenoxy)-[[(2S,5R)-5-(5-methyl-2,4-dioxopyrimidin-1-yl)-2,5-dihydrofuran-2-yl]methoxy]phosphoryl]amino]propanoate
> <PUBCHEM_IUPAC_SYSTEMATIC_NAME>
methyl 2-[[(4-cyanophenoxy)-[[(2S,5R)-5-[5-methyl-2,4-bis(oxidanylidene)pyrimidin-1-yl]-2,5-dihydrofuran-2-yl]methoxy]phosphoryl]amino]propanoate
> <PUBCHEM_IUPAC_TRADITIONAL_NAME>
2-[[(4-cyanophenoxy)-[[(2S,5R)-5-(2,4-diketo-5-methyl-pyrimidin-1-yl)-2,5-dihydrofuran-2-yl]methoxy]phosphoryl]amino]propionic acid methyl ester
> <PUBCHEM_IUPAC_INCHI>
InChI=1S/C21H23N4O8P/c1-13-11-25(21(28)23-19(13)26)18-9-8-17(32-18)12-31-34(29,24-14(2)20(27)30-3)33-16-6-4-15(10-22)5-7-16/h4-9,11,14,17-18H,12H2,1-3H3,(H,24,29)(H,23,26,28)/t14?,17-,18+,34?/m0/s1
> <PUBCHEM_IUPAC_INCHIKEY>
VCGSSOZAMBQBFC-ADVIUVPZSA-N
> <PUBCHEM_XLOGP3_AA>
0.7
> <PUBCHEM_EXACT_MASS>
490.12535070
> <PUBCHEM_MOLECULAR_FORMULA>
C21H23N4O8P
> <PUBCHEM_MOLECULAR_WEIGHT>
490.4
> <PUBCHEM_OPENEYE_CAN_SMILES>
CC1=CN(C(=O)NC1=O)C2C=CC(O2)COP(=O)(NC(C)C(=O)OC)OC3=CC=C(C=C3)C#N
> <PUBCHEM_OPENEYE_ISO_SMILES>
CC1=CN(C(=O)NC1=O)[C@H]2C=C[C@H](O2)COP(=O)(NC(C)C(=O)OC)OC3=CC=C(C=C3)C#N
> <PUBCHEM_CACTVS_TPSA>
156
> <PUBCHEM_MONOISOTOPIC_WEIGHT>
490.12535070
> <PUBCHEM_TOTAL_CHARGE>
0
> <PUBCHEM_HEAVY_ATOM_COUNT>
34
> <PUBCHEM_ATOM_DEF_STEREO_COUNT>
2
> <PUBCHEM_ATOM_UDEF_STEREO_COUNT>
2
> <PUBCHEM_BOND_DEF_STEREO_COUNT>
0
> <PUBCHEM_BOND_UDEF_STEREO_COUNT>
0
> <PUBCHEM_ISOTOPIC_ATOM_COUNT>
0
> <PUBCHEM_COMPONENT_COUNT>
1
> <PUBCHEM_CACTVS_TAUTO_COUNT>
-1
> <PUBCHEM_COORDINATE_TYPE>
1
5
255
> <PUBCHEM_BONDANNOTATIONS>
1  11  3
15  10  6
10  19  8
10  20  8
12  20  8
12  23  8
14  16  6
19  21  8
21  23  8
22  24  3
27  28  8
27  29  8
28  30  8
29  31  8
30  32  8
31  32  8
$$$$
