502284
  -OEChem-10302200282D
 79 79  0     1  0  0  0  0  0999 V2000
    6.8671   -4.4400    0.0000 O   0  0  0  0  0  0  0  0  0  0  0  0
    7.7331   -1.9400    0.0000 O   0  0  0  0  0  0  0  0  0  0  0  0
    8.5991   -4.4400    0.0000 O   0  0  0  0  0  0  0  0  0  0  0  0
   10.3312   -3.4400    0.0000 O   0  0  0  0  0  0  0  0  0  0  0  0
    4.2690   -1.9400    0.0000 O   0  0  0  0  0  0  0  0  0  0  0  0
    5.1350   -6.4400    0.0000 O   0  0  0  0  0  0  0  0  0  0  0  0
    6.8671   -6.4400    0.0000 O   0  0  0  0  0  0  0  0  0  0  0  0
    6.0010   -1.9400    0.0000 N   0  0  0  0  0  0  0  0  0  0  0  0
    4.2690   -2.9400    0.0000 N   0  0  0  0  0  0  0  0  0  0  0  0
    2.5369   -2.9400    0.0000 N   0  0  0  0  0  0  0  0  0  0  0  0
    3.4030   -4.4400    0.0000 N   0  0  0  0  0  0  0  0  0  0  0  0
    6.8671   -3.4400    0.0000 C   0  0  2  0  0  0  0  0  0  0  0  0
    6.0010   -2.9400    0.0000 C   0  0  1  0  0  0  0  0  0  0  0  0
    7.7331   -2.9400    0.0000 C   0  0  1  0  0  0  0  0  0  0  0  0
    5.1350   -3.4400    0.0000 C   0  0  2  0  0  0  0  0  0  0  0  0
    8.5991   -3.4400    0.0000 C   0  0  1  0  0  0  0  0  0  0  0  0
    5.1350   -4.4400    0.0000 C   0  0  0  0  0  0  0  0  0  0  0  0
    6.0010   -4.9400    0.0000 C   0  0  0  0  0  0  0  0  0  0  0  0
    8.5991   -1.4400    0.0000 C   0  0  0  0  0  0  0  0  0  0  0  0
    9.4651   -2.9400    0.0000 C   0  0  0  0  0  0  0  0  0  0  0  0
    8.5991   -0.4400    0.0000 C   0  0  0  0  0  0  0  0  0  0  0  0
    9.4651    0.0600    0.0000 C   0  0  0  0  0  0  0  0  0  0  0  0
    9.4651    1.0600    0.0000 C   0  0  0  0  0  0  0  0  0  0  0  0
   10.3312    1.5600    0.0000 C   0  0  0  0  0  0  0  0  0  0  0  0
   10.3312    2.5600    0.0000 C   0  0  0  0  0  0  0  0  0  0  0  0
    5.1350   -1.4400    0.0000 C   0  0  0  0  0  0  0  0  0  0  0  0
   11.1972    3.0600    0.0000 C   0  0  0  0  0  0  0  0  0  0  0  0
   11.1972    4.0600    0.0000 C   0  0  0  0  0  0  0  0  0  0  0  0
    6.0010   -5.9400    0.0000 C   0  0  0  0  0  0  0  0  0  0  0  0
   12.0632    4.5600    0.0000 C   0  0  0  0  0  0  0  0  0  0  0  0
    3.4030   -3.4400    0.0000 C   0  0  0  0  0  0  0  0  0  0  0  0
    5.1350   -0.4400    0.0000 C   0  0  0  0  0  0  0  0  0  0  0  0
   12.0632    5.5600    0.0000 C   0  0  0  0  0  0  0  0  0  0  0  0
   12.9292    6.0600    0.0000 C   0  0  0  0  0  0  0  0  0  0  0  0
   12.9292    7.0600    0.0000 C   0  0  0  0  0  0  0  0  0  0  0  0
    7.6032   -3.8650    0.0000 H   0  0  0  0  0  0  0  0  0  0  0  0
    6.5380   -2.6300    0.0000 H   0  0  0  0  0  0  0  0  0  0  0  0
    8.2700   -2.6300    0.0000 H   0  0  0  0  0  0  0  0  0  0  0  0
    5.1350   -2.8200    0.0000 H   0  0  0  0  0  0  0  0  0  0  0  0
    8.0622   -3.7500    0.0000 H   0  0  0  0  0  0  0  0  0  0  0  0
    6.5380   -1.6300    0.0000 H   0  0  0  0  0  0  0  0  0  0  0  0
    4.5981   -4.7500    0.0000 H   0  0  0  0  0  0  0  0  0  0  0  0
    8.8112   -2.0226    0.0000 H   0  0  0  0  0  0  0  0  0  0  0  0
    9.2097   -1.3323    0.0000 H   0  0  0  0  0  0  0  0  0  0  0  0
    9.8637   -2.4651    0.0000 H   0  0  0  0  0  0  0  0  0  0  0  0
    9.0666   -2.4651    0.0000 H   0  0  0  0  0  0  0  0  0  0  0  0
    8.3871    0.1426    0.0000 H   0  0  0  0  0  0  0  0  0  0  0  0
    7.9885   -0.5477    0.0000 H   0  0  0  0  0  0  0  0  0  0  0  0
    9.6772   -0.5226    0.0000 H   0  0  0  0  0  0  0  0  0  0  0  0
   10.0757    0.1677    0.0000 H   0  0  0  0  0  0  0  0  0  0  0  0
    9.2531    1.6426    0.0000 H   0  0  0  0  0  0  0  0  0  0  0  0
    8.8546    0.9523    0.0000 H   0  0  0  0  0  0  0  0  0  0  0  0
   10.5432    0.9774    0.0000 H   0  0  0  0  0  0  0  0  0  0  0  0
   10.9417    1.6677    0.0000 H   0  0  0  0  0  0  0  0  0  0  0  0
   10.1191    3.1426    0.0000 H   0  0  0  0  0  0  0  0  0  0  0  0
    9.7206    2.4523    0.0000 H   0  0  0  0  0  0  0  0  0  0  0  0
    9.1360   -4.7500    0.0000 H   0  0  0  0  0  0  0  0  0  0  0  0
   11.4092    2.4774    0.0000 H   0  0  0  0  0  0  0  0  0  0  0  0
   11.8078    3.1677    0.0000 H   0  0  0  0  0  0  0  0  0  0  0  0
   10.9851    4.6426    0.0000 H   0  0  0  0  0  0  0  0  0  0  0  0
   10.5866    3.9523    0.0000 H   0  0  0  0  0  0  0  0  0  0  0  0
   12.2753    3.9774    0.0000 H   0  0  0  0  0  0  0  0  0  0  0  0
   12.6738    4.6677    0.0000 H   0  0  0  0  0  0  0  0  0  0  0  0
   10.8681   -3.1300    0.0000 H   0  0  0  0  0  0  0  0  0  0  0  0
    5.7550   -0.4400    0.0000 H   0  0  0  0  0  0  0  0  0  0  0  0
    5.1350    0.1800    0.0000 H   0  0  0  0  0  0  0  0  0  0  0  0
    4.5150   -0.4400    0.0000 H   0  0  0  0  0  0  0  0  0  0  0  0
   11.8512    6.1426    0.0000 H   0  0  0  0  0  0  0  0  0  0  0  0
   11.4526    5.4523    0.0000 H   0  0  0  0  0  0  0  0  0  0  0  0
   13.1413    5.4774    0.0000 H   0  0  0  0  0  0  0  0  0  0  0  0
   13.5398    6.1677    0.0000 H   0  0  0  0  0  0  0  0  0  0  0  0
    5.1350   -7.0600    0.0000 H   0  0  0  0  0  0  0  0  0  0  0  0
    2.0000   -3.2500    0.0000 H   0  0  0  0  0  0  0  0  0  0  0  0
    2.5369   -2.3200    0.0000 H   0  0  0  0  0  0  0  0  0  0  0  0
    2.8660   -4.7500    0.0000 H   0  0  0  0  0  0  0  0  0  0  0  0
    3.9399   -4.7500    0.0000 H   0  0  0  0  0  0  0  0  0  0  0  0
   13.5492    7.0600    0.0000 H   0  0  0  0  0  0  0  0  0  0  0  0
   12.9292    7.6800    0.0000 H   0  0  0  0  0  0  0  0  0  0  0  0
   12.3092    7.0600    0.0000 H   0  0  0  0  0  0  0  0  0  0  0  0
  1 12  1  0  0  0  0
  1 18  1  0  0  0  0
 14  2  1  6  0  0  0
  2 19  1  0  0  0  0
 16  3  1  1  0  0  0
  3 57  1  0  0  0  0
  4 20  1  0  0  0  0
  4 64  1  0  0  0  0
  5 26  2  0  0  0  0
  6 29  1  0  0  0  0
  6 72  1  0  0  0  0
  7 29  2  0  0  0  0
 13  8  1  1  0  0  0
  8 26  1  0  0  0  0
  8 41  1  0  0  0  0
 15  9  1  6  0  0  0
  9 31  2  0  0  0  0
 10 31  1  0  0  0  0
 10 73  1  0  0  0  0
 10 74  1  0  0  0  0
 11 31  1  0  0  0  0
 11 75  1  0  0  0  0
 11 76  1  0  0  0  0
 12 13  1  0  0  0  0
 12 14  1  0  0  0  0
 12 36  1  1  0  0  0
 13 15  1  0  0  0  0
 13 37  1  0  0  0  0
 14 16  1  0  0  0  0
 14 38  1  0  0  0  0
 15 17  1  0  0  0  0
 15 39  1  0  0  0  0
 16 20  1  0  0  0  0
 16 40  1  0  0  0  0
 17 18  2  0  0  0  0
 17 42  1  0  0  0  0
 18 29  1  0  0  0  0
 19 21  1  0  0  0  0
 19 43  1  0  0  0  0
 19 44  1  0  0  0  0
 20 45  1  0  0  0  0
 20 46  1  0  0  0  0
 21 22  1  0  0  0  0
 21 47  1  0  0  0  0
 21 48  1  0  0  0  0
 22 23  1  0  0  0  0
 22 49  1  0  0  0  0
 22 50  1  0  0  0  0
 23 24  1  0  0  0  0
 23 51  1  0  0  0  0
 23 52  1  0  0  0  0
 24 25  1  0  0  0  0
 24 53  1  0  0  0  0
 24 54  1  0  0  0  0
 25 27  1  0  0  0  0
 25 55  1  0  0  0  0
 25 56  1  0  0  0  0
 26 32  1  0  0  0  0
 27 28  1  0  0  0  0
 27 58  1  0  0  0  0
 27 59  1  0  0  0  0
 28 30  1  0  0  0  0
 28 60  1  0  0  0  0
 28 61  1  0  0  0  0
 30 33  1  0  0  0  0
 30 62  1  0  0  0  0
 30 63  1  0  0  0  0
 32 65  1  0  0  0  0
 32 66  1  0  0  0  0
 32 67  1  0  0  0  0
 33 34  1  0  0  0  0
 33 68  1  0  0  0  0
 33 69  1  0  0  0  0
 34 35  1  0  0  0  0
 34 70  1  0  0  0  0
 34 71  1  0  0  0  0
 35 77  1  0  0  0  0
 35 78  1  0  0  0  0
 35 79  1  0  0  0  0
M  END
> <PUBCHEM_COMPOUND_CID>
502284
> <PUBCHEM_COMPOUND_CANONICALIZED>
1
> <PUBCHEM_CACTVS_COMPLEXITY>
697
> <PUBCHEM_CACTVS_HBOND_ACCEPTOR>
8
> <PUBCHEM_CACTVS_HBOND_DONOR>
6
> <PUBCHEM_CACTVS_ROTATABLE_BOND>
18
> <PUBCHEM_CACTVS_SUBSKEYS>
AAADcfB7uAAAAAAAAAAAAAAAAAAAAAAAAAAgAAAAAAAAAAAAAAAAHgAQCAAACDzhgAYDCALABgCoACHSPAKACAEgIAAACIBIAEgDVAIAgAQXUAAHlgCbEYPw0KMAAAAAAAAAAAAAAAAAAAAAAAAAAAAAAA==
> <PUBCHEM_IUPAC_OPENEYE_NAME>
(2R,3R,4S)-3-acetamido-2-[(1R,2R)-1-dodecoxy-2,3-dihydroxy-propyl]-4-guanidino-3,4-dihydro-2H-pyran-6-carboxylic acid
> <PUBCHEM_IUPAC_CAS_NAME>
(2R,3R,4S)-3-acetamido-4-(diaminomethylideneamino)-2-[(1R,2R)-1-dodecoxy-2,3-dihydroxypropyl]-3,4-dihydro-2H-pyran-6-carboxylic acid
> <PUBCHEM_IUPAC_NAME_MARKUP>
(2<I>R</I>,3<I>R</I>,4<I>S</I>)-3-acetamido-4-(diaminomethylideneamino)-2-[(1<I>R</I>,2<I>R</I>)-1-dodecoxy-2,3-dihydroxypropyl]-3,4-dihydro-2<I>H</I>-pyran-6-carboxylic acid
> <PUBCHEM_IUPAC_NAME>
(2R,3R,4S)-3-acetamido-4-(diaminomethylideneamino)-2-[(1R,2R)-1-dodecoxy-2,3-dihydroxypropyl]-3,4-dihydro-2H-pyran-6-carboxylic acid
> <PUBCHEM_IUPAC_SYSTEMATIC_NAME>
(2R,3R,4S)-3-acetamido-4-[bis(azanyl)methylideneamino]-2-[(1R,2R)-1-dodecoxy-2,3-bis(oxidanyl)propyl]-3,4-dihydro-2H-pyran-6-carboxylic acid
> <PUBCHEM_IUPAC_TRADITIONAL_NAME>
(2R,3R,4S)-3-acetamido-2-[(1R,2R)-2,3-dihydroxy-1-lauryloxy-propyl]-4-guanidino-3,4-dihydro-2H-pyran-6-carboxylic acid
> <PUBCHEM_IUPAC_INCHI>
InChI=1S/C24H44N4O7/c1-3-4-5-6-7-8-9-10-11-12-13-34-21(18(31)15-29)22-20(27-16(2)30)17(28-24(25)26)14-19(35-22)23(32)33/h14,17-18,20-22,29,31H,3-13,15H2,1-2H3,(H,27,30)(H,32,33)(H4,25,26,28)/t17-,18+,20+,21+,22+/m0/s1
> <PUBCHEM_IUPAC_INCHIKEY>
YLOJBTIMLDRMEJ-OMTGHCCBSA-N
> <PUBCHEM_XLOGP3_AA>
2.4
> <PUBCHEM_EXACT_MASS>
500.32099976
> <PUBCHEM_MOLECULAR_FORMULA>
C24H44N4O7
> <PUBCHEM_MOLECULAR_WEIGHT>
500.6
> <PUBCHEM_OPENEYE_CAN_SMILES>
CCCCCCCCCCCCOC(C1C(C(C=C(O1)C(=O)O)N=C(N)N)NC(=O)C)C(CO)O
> <PUBCHEM_OPENEYE_ISO_SMILES>
CCCCCCCCCCCCO[C@@H]([C@H]1[C@@H]([C@H](C=C(O1)C(=O)O)N=C(N)N)NC(=O)C)[C@@H](CO)O
> <PUBCHEM_CACTVS_TPSA>
190
> <PUBCHEM_MONOISOTOPIC_WEIGHT>
500.32099976
> <PUBCHEM_TOTAL_CHARGE>
0
> <PUBCHEM_HEAVY_ATOM_COUNT>
35
> <PUBCHEM_ATOM_DEF_STEREO_COUNT>
5
> <PUBCHEM_ATOM_UDEF_STEREO_COUNT>
0
> <PUBCHEM_BOND_DEF_STEREO_COUNT>
0
> <PUBCHEM_BOND_UDEF_STEREO_COUNT>
0
> <PUBCHEM_ISOTOPIC_ATOM_COUNT>
0
> <PUBCHEM_COMPONENT_COUNT>
1
> <PUBCHEM_CACTVS_TAUTO_COUNT>
-1
> <PUBCHEM_COORDINATE_TYPE>
1
5
255
> <PUBCHEM_BONDANNOTATIONS>
12  36  5
14  2  6
16  3  5
13  8  5
15  9  6
$$$$
