502286
  -OEChem-10302200282D
 62 63  0     1  0  0  0  0  0999 V2000
    7.7331    0.8100    0.0000 O   0  0  0  0  0  0  0  0  0  0  0  0
    6.8671   -1.6900    0.0000 O   0  0  0  0  0  0  0  0  0  0  0  0
    8.5991   -1.6900    0.0000 O   0  0  0  0  0  0  0  0  0  0  0  0
   10.3312   -0.6900    0.0000 O   0  0  0  0  0  0  0  0  0  0  0  0
    4.2690    0.8100    0.0000 O   0  0  0  0  0  0  0  0  0  0  0  0
    5.1350   -3.6900    0.0000 O   0  0  0  0  0  0  0  0  0  0  0  0
    6.8671   -3.6900    0.0000 O   0  0  0  0  0  0  0  0  0  0  0  0
    6.0010    0.8100    0.0000 N   0  0  0  0  0  0  0  0  0  0  0  0
    4.2690   -0.1900    0.0000 N   0  0  0  0  0  0  0  0  0  0  0  0
    2.5369   -0.1900    0.0000 N   0  0  0  0  0  0  0  0  0  0  0  0
    3.4030   -1.6900    0.0000 N   0  0  0  0  0  0  0  0  0  0  0  0
    8.5991    2.3100    0.0000 C   0  0  0  0  0  0  0  0  0  0  0  0
    9.4651    2.8100    0.0000 C   0  0  0  0  0  0  0  0  0  0  0  0
    7.7331    2.8100    0.0000 C   0  0  0  0  0  0  0  0  0  0  0  0
    6.8671   -0.6900    0.0000 C   0  0  1  0  0  0  0  0  0  0  0  0
    7.7331   -0.1900    0.0000 C   0  0  1  0  0  0  0  0  0  0  0  0
    6.0010   -0.1900    0.0000 C   0  0  1  0  0  0  0  0  0  0  0  0
    8.5991    1.3100    0.0000 C   0  0  0  0  0  0  0  0  0  0  0  0
    9.4651    3.8100    0.0000 C   0  0  0  0  0  0  0  0  0  0  0  0
    7.7331    3.8100    0.0000 C   0  0  0  0  0  0  0  0  0  0  0  0
    8.5991    4.3100    0.0000 C   0  0  0  0  0  0  0  0  0  0  0  0
    8.5991   -0.6900    0.0000 C   0  0  1  0  0  0  0  0  0  0  0  0
    5.1350   -0.6900    0.0000 C   0  0  2  0  0  0  0  0  0  0  0  0
    5.1350   -1.6900    0.0000 C   0  0  0  0  0  0  0  0  0  0  0  0
    6.0010   -2.1900    0.0000 C   0  0  0  0  0  0  0  0  0  0  0  0
    9.4651   -0.1900    0.0000 C   0  0  0  0  0  0  0  0  0  0  0  0
    5.1350    1.3100    0.0000 C   0  0  0  0  0  0  0  0  0  0  0  0
    6.0010   -3.1900    0.0000 C   0  0  0  0  0  0  0  0  0  0  0  0
    3.4030   -0.6900    0.0000 C   0  0  0  0  0  0  0  0  0  0  0  0
    5.1350    2.3100    0.0000 C   0  0  0  0  0  0  0  0  0  0  0  0
    8.0622    2.0000    0.0000 H   0  0  0  0  0  0  0  0  0  0  0  0
    7.6032   -1.1150    0.0000 H   0  0  0  0  0  0  0  0  0  0  0  0
    9.6772    2.2274    0.0000 H   0  0  0  0  0  0  0  0  0  0  0  0
   10.0757    2.9177    0.0000 H   0  0  0  0  0  0  0  0  0  0  0  0
    7.1225    2.9177    0.0000 H   0  0  0  0  0  0  0  0  0  0  0  0
    7.5210    2.2274    0.0000 H   0  0  0  0  0  0  0  0  0  0  0  0
    8.2700    0.1200    0.0000 H   0  0  0  0  0  0  0  0  0  0  0  0
    6.5380    0.1200    0.0000 H   0  0  0  0  0  0  0  0  0  0  0  0
    8.8112    0.7274    0.0000 H   0  0  0  0  0  0  0  0  0  0  0  0
    9.2097    1.4177    0.0000 H   0  0  0  0  0  0  0  0  0  0  0  0
   10.0757    3.7023    0.0000 H   0  0  0  0  0  0  0  0  0  0  0  0
    9.6772    4.3926    0.0000 H   0  0  0  0  0  0  0  0  0  0  0  0
    7.5210    4.3926    0.0000 H   0  0  0  0  0  0  0  0  0  0  0  0
    7.1225    3.7023    0.0000 H   0  0  0  0  0  0  0  0  0  0  0  0
    8.9976    4.7850    0.0000 H   0  0  0  0  0  0  0  0  0  0  0  0
    8.2006    4.7850    0.0000 H   0  0  0  0  0  0  0  0  0  0  0  0
    8.0622   -1.0000    0.0000 H   0  0  0  0  0  0  0  0  0  0  0  0
    5.1350   -0.0700    0.0000 H   0  0  0  0  0  0  0  0  0  0  0  0
    6.5380    1.1200    0.0000 H   0  0  0  0  0  0  0  0  0  0  0  0
    4.5981   -2.0000    0.0000 H   0  0  0  0  0  0  0  0  0  0  0  0
    9.8637    0.2849    0.0000 H   0  0  0  0  0  0  0  0  0  0  0  0
    9.0666    0.2849    0.0000 H   0  0  0  0  0  0  0  0  0  0  0  0
    9.1360   -2.0000    0.0000 H   0  0  0  0  0  0  0  0  0  0  0  0
   10.8681   -0.3800    0.0000 H   0  0  0  0  0  0  0  0  0  0  0  0
    5.7550    2.3100    0.0000 H   0  0  0  0  0  0  0  0  0  0  0  0
    5.1350    2.9300    0.0000 H   0  0  0  0  0  0  0  0  0  0  0  0
    4.5150    2.3100    0.0000 H   0  0  0  0  0  0  0  0  0  0  0  0
    5.1350   -4.3100    0.0000 H   0  0  0  0  0  0  0  0  0  0  0  0
    2.0000   -0.5000    0.0000 H   0  0  0  0  0  0  0  0  0  0  0  0
    2.5369    0.4300    0.0000 H   0  0  0  0  0  0  0  0  0  0  0  0
    2.8660   -2.0000    0.0000 H   0  0  0  0  0  0  0  0  0  0  0  0
    3.9399   -2.0000    0.0000 H   0  0  0  0  0  0  0  0  0  0  0  0
 16  1  1  6  0  0  0
  1 18  1  0  0  0  0
  2 15  1  0  0  0  0
  2 25  1  0  0  0  0
 22  3  1  1  0  0  0
  3 53  1  0  0  0  0
  4 26  1  0  0  0  0
  4 54  1  0  0  0  0
  5 27  2  0  0  0  0
  6 28  1  0  0  0  0
  6 58  1  0  0  0  0
  7 28  2  0  0  0  0
 17  8  1  1  0  0  0
  8 27  1  0  0  0  0
  8 49  1  0  0  0  0
 23  9  1  6  0  0  0
  9 29  2  0  0  0  0
 10 29  1  0  0  0  0
 10 59  1  0  0  0  0
 10 60  1  0  0  0  0
 11 29  1  0  0  0  0
 11 61  1  0  0  0  0
 11 62  1  0  0  0  0
 12 13  1  0  0  0  0
 12 14  1  0  0  0  0
 12 18  1  0  0  0  0
 12 31  1  0  0  0  0
 13 19  1  0  0  0  0
 13 33  1  0  0  0  0
 13 34  1  0  0  0  0
 14 20  1  0  0  0  0
 14 35  1  0  0  0  0
 14 36  1  0  0  0  0
 15 16  1  0  0  0  0
 15 17  1  0  0  0  0
 15 32  1  1  0  0  0
 16 22  1  0  0  0  0
 16 37  1  0  0  0  0
 17 23  1  0  0  0  0
 17 38  1  0  0  0  0
 18 39  1  0  0  0  0
 18 40  1  0  0  0  0
 19 21  1  0  0  0  0
 19 41  1  0  0  0  0
 19 42  1  0  0  0  0
 20 21  1  0  0  0  0
 20 43  1  0  0  0  0
 20 44  1  0  0  0  0
 21 45  1  0  0  0  0
 21 46  1  0  0  0  0
 22 26  1  0  0  0  0
 22 47  1  0  0  0  0
 23 24  1  0  0  0  0
 23 48  1  0  0  0  0
 24 25  2  0  0  0  0
 24 50  1  0  0  0  0
 25 28  1  0  0  0  0
 26 51  1  0  0  0  0
 26 52  1  0  0  0  0
 27 30  1  0  0  0  0
 30 55  1  0  0  0  0
 30 56  1  0  0  0  0
 30 57  1  0  0  0  0
M  END
> <PUBCHEM_COMPOUND_CID>
502286
> <PUBCHEM_COMPOUND_CANONICALIZED>
1
> <PUBCHEM_CACTVS_COMPLEXITY>
659
> <PUBCHEM_CACTVS_HBOND_ACCEPTOR>
8
> <PUBCHEM_CACTVS_HBOND_DONOR>
6
> <PUBCHEM_CACTVS_ROTATABLE_BOND>
9
> <PUBCHEM_CACTVS_SUBSKEYS>
AAADcfB7uAAAAAAAAAAAAAAAAAAAAAAAAAAwQAAAAAAAAAAAAAAAHgAQCAAADTzhgAYDCALABgCoACHSPAKACAEgIAAACIBIAEgDVAIAgAQXUAAHlgCbEYPw0CMOAAAAAAAAAAAAAAAAAAAAAAAAAAAAAA==
> <PUBCHEM_IUPAC_OPENEYE_NAME>
(2R,3R,4S)-3-acetamido-2-[(1R,2R)-1-(cyclohexylmethoxy)-2,3-dihydroxy-propyl]-4-guanidino-3,4-dihydro-2H-pyran-6-carboxylic acid
> <PUBCHEM_IUPAC_CAS_NAME>
(2R,3R,4S)-3-acetamido-2-[(1R,2R)-1-(cyclohexylmethoxy)-2,3-dihydroxypropyl]-4-(diaminomethylideneamino)-3,4-dihydro-2H-pyran-6-carboxylic acid
> <PUBCHEM_IUPAC_NAME_MARKUP>
(2<I>R</I>,3<I>R</I>,4<I>S</I>)-3-acetamido-2-[(1<I>R</I>,2<I>R</I>)-1-(cyclohexylmethoxy)-2,3-dihydroxypropyl]-4-(diaminomethylideneamino)-3,4-dihydro-2<I>H</I>-pyran-6-carboxylic acid
> <PUBCHEM_IUPAC_NAME>
(2R,3R,4S)-3-acetamido-2-[(1R,2R)-1-(cyclohexylmethoxy)-2,3-dihydroxypropyl]-4-(diaminomethylideneamino)-3,4-dihydro-2H-pyran-6-carboxylic acid
> <PUBCHEM_IUPAC_SYSTEMATIC_NAME>
(2R,3R,4S)-3-acetamido-4-[bis(azanyl)methylideneamino]-2-[(1R,2R)-1-(cyclohexylmethoxy)-2,3-bis(oxidanyl)propyl]-3,4-dihydro-2H-pyran-6-carboxylic acid
> <PUBCHEM_IUPAC_TRADITIONAL_NAME>
(2R,3R,4S)-3-acetamido-2-[(1R,2R)-1-(cyclohexylmethoxy)-2,3-dihydroxy-propyl]-4-guanidino-3,4-dihydro-2H-pyran-6-carboxylic acid
> <PUBCHEM_IUPAC_INCHI>
InChI=1S/C19H32N4O7/c1-10(25)22-15-12(23-19(20)21)7-14(18(27)28)30-17(15)16(13(26)8-24)29-9-11-5-3-2-4-6-11/h7,11-13,15-17,24,26H,2-6,8-9H2,1H3,(H,22,25)(H,27,28)(H4,20,21,23)/t12-,13+,15+,16+,17+/m0/s1
> <PUBCHEM_IUPAC_INCHIKEY>
POPAGUWEGLYZGZ-IHWGESPNSA-N
> <PUBCHEM_XLOGP3_AA>
-0.8
> <PUBCHEM_EXACT_MASS>
428.22709937
> <PUBCHEM_MOLECULAR_FORMULA>
C19H32N4O7
> <PUBCHEM_MOLECULAR_WEIGHT>
428.5
> <PUBCHEM_OPENEYE_CAN_SMILES>
CC(=O)NC1C(C=C(OC1C(C(CO)O)OCC2CCCCC2)C(=O)O)N=C(N)N
> <PUBCHEM_OPENEYE_ISO_SMILES>
CC(=O)N[C@@H]1[C@H](C=C(O[C@H]1[C@@H]([C@@H](CO)O)OCC2CCCCC2)C(=O)O)N=C(N)N
> <PUBCHEM_CACTVS_TPSA>
190
> <PUBCHEM_MONOISOTOPIC_WEIGHT>
428.22709937
> <PUBCHEM_TOTAL_CHARGE>
0
> <PUBCHEM_HEAVY_ATOM_COUNT>
30
> <PUBCHEM_ATOM_DEF_STEREO_COUNT>
5
> <PUBCHEM_ATOM_UDEF_STEREO_COUNT>
0
> <PUBCHEM_BOND_DEF_STEREO_COUNT>
0
> <PUBCHEM_BOND_UDEF_STEREO_COUNT>
0
> <PUBCHEM_ISOTOPIC_ATOM_COUNT>
0
> <PUBCHEM_COMPONENT_COUNT>
1
> <PUBCHEM_CACTVS_TAUTO_COUNT>
-1
> <PUBCHEM_COORDINATE_TYPE>
1
5
255
> <PUBCHEM_BONDANNOTATIONS>
16  1  6
15  32  5
22  3  5
17  8  5
23  9  6
$$$$
