502205
  -OEChem-10302200282D
 37 40  0     1  0  0  0  0  0999 V2000
    2.0000   -2.9400    0.0000 O   0  0  0  0  0  0  0  0  0  0  0  0
    2.8660    3.5600    0.0000 O   0  5  0  0  0  0  0  0  0  0  0  0
    4.5981    3.5600    0.0000 O   0  0  0  0  0  0  0  0  0  0  0  0
    4.5981   -1.4400    0.0000 N   0  0  0  0  0  0  0  0  0  0  0  0
    3.7320   -2.9400    0.0000 N   0  0  0  0  0  0  0  0  0  0  0  0
    5.5443   -1.1353    0.0000 N   0  0  0  0  0  0  0  0  0  0  0  0
    5.5443   -2.7447    0.0000 N   0  0  0  0  0  0  0  0  0  0  0  0
    3.7320    3.0600    0.0000 N   0  3  0  0  0  0  0  0  0  0  0  0
    9.1279   -1.9400    0.0000 N   0  0  0  0  0  0  0  0  0  0  0  0
    3.7320   -0.9400    0.0000 C   0  0  3  0  0  0  0  0  0  0  0  0
    2.8660   -1.4400    0.0000 C   0  0  0  0  0  0  0  0  0  0  0  0
    3.7320    0.0600    0.0000 C   0  0  0  0  0  0  0  0  0  0  0  0
    4.5981   -2.4400    0.0000 C   0  0  0  0  0  0  0  0  0  0  0  0
    2.8660   -2.4400    0.0000 C   0  0  0  0  0  0  0  0  0  0  0  0
    2.8660    0.5600    0.0000 C   0  0  0  0  0  0  0  0  0  0  0  0
    4.5981    0.5600    0.0000 C   0  0  0  0  0  0  0  0  0  0  0  0
    6.1279   -1.9400    0.0000 C   0  0  0  0  0  0  0  0  0  0  0  0
    2.8660    1.5600    0.0000 C   0  0  0  0  0  0  0  0  0  0  0  0
    4.5981    1.5600    0.0000 C   0  0  0  0  0  0  0  0  0  0  0  0
    7.1279   -1.9400    0.0000 C   0  0  0  0  0  0  0  0  0  0  0  0
    3.7320    2.0600    0.0000 C   0  0  0  0  0  0  0  0  0  0  0  0
    7.6279   -2.8060    0.0000 C   0  0  0  0  0  0  0  0  0  0  0  0
    7.6279   -1.0740    0.0000 C   0  0  0  0  0  0  0  0  0  0  0  0
    8.6279   -2.8060    0.0000 C   0  0  0  0  0  0  0  0  0  0  0  0
    8.6279   -1.0740    0.0000 C   0  0  0  0  0  0  0  0  0  0  0  0
    3.1951   -0.6300    0.0000 H   0  0  0  0  0  0  0  0  0  0  0  0
    2.6540   -0.8574    0.0000 H   0  0  0  0  0  0  0  0  0  0  0  0
    2.2554   -1.5477    0.0000 H   0  0  0  0  0  0  0  0  0  0  0  0
    3.7320   -3.5600    0.0000 H   0  0  0  0  0  0  0  0  0  0  0  0
    2.3291    0.2500    0.0000 H   0  0  0  0  0  0  0  0  0  0  0  0
    5.1350    0.2500    0.0000 H   0  0  0  0  0  0  0  0  0  0  0  0
    2.3291    1.8700    0.0000 H   0  0  0  0  0  0  0  0  0  0  0  0
    5.1350    1.8700    0.0000 H   0  0  0  0  0  0  0  0  0  0  0  0
    7.3179   -3.3430    0.0000 H   0  0  0  0  0  0  0  0  0  0  0  0
    7.3179   -0.5370    0.0000 H   0  0  0  0  0  0  0  0  0  0  0  0
    8.9379   -3.3430    0.0000 H   0  0  0  0  0  0  0  0  0  0  0  0
    8.9379   -0.5370    0.0000 H   0  0  0  0  0  0  0  0  0  0  0  0
  1 14  2  0  0  0  0
  2  8  1  0  0  0  0
  3  8  2  0  0  0  0
  4  6  1  0  0  0  0
  4 10  1  0  0  0  0
  4 13  1  0  0  0  0
  5 13  1  0  0  0  0
  5 14  1  0  0  0  0
  5 29  1  0  0  0  0
  6 17  2  0  0  0  0
  7 13  2  0  0  0  0
  7 17  1  0  0  0  0
  8 21  1  0  0  0  0
  9 24  2  0  0  0  0
  9 25  1  0  0  0  0
 10 11  1  0  0  0  0
 10 12  1  0  0  0  0
 10 26  1  0  0  0  0
 11 14  1  0  0  0  0
 11 27  1  0  0  0  0
 11 28  1  0  0  0  0
 12 15  2  0  0  0  0
 12 16  1  0  0  0  0
 15 18  1  0  0  0  0
 15 30  1  0  0  0  0
 16 19  2  0  0  0  0
 16 31  1  0  0  0  0
 17 20  1  0  0  0  0
 18 21  2  0  0  0  0
 18 32  1  0  0  0  0
 19 21  1  0  0  0  0
 19 33  1  0  0  0  0
 20 22  2  0  0  0  0
 20 23  1  0  0  0  0
 22 24  1  0  0  0  0
 22 34  1  0  0  0  0
 23 25  2  0  0  0  0
 23 35  1  0  0  0  0
 24 36  1  0  0  0  0
 25 37  1  0  0  0  0
M  CHG  2   2  -1   8   1
M  END
> <PUBCHEM_COMPOUND_CID>
502205
> <PUBCHEM_COMPOUND_CANONICALIZED>
1
> <PUBCHEM_CACTVS_COMPLEXITY>
513
> <PUBCHEM_CACTVS_HBOND_ACCEPTOR>
6
> <PUBCHEM_CACTVS_HBOND_DONOR>
1
> <PUBCHEM_CACTVS_ROTATABLE_BOND>
2
> <PUBCHEM_CACTVS_SUBSKEYS>
AAADccB7sAAAAAAAAAAAAAAAAAAAAWAAAAA8WIAAAAAAAFgB8AAAHgAcAAAADCjBmwQ90JbYUACrAjd3dwCSgCsxgqA92CE4ZJqIKPrA2ZGEIAh4mQLIyAcYiICOCAAAAAAAAAAQAAAAAAAAAAAAAAAAAA==
> <PUBCHEM_IUPAC_OPENEYE_NAME>
7-(4-nitrophenyl)-2-(4-pyridyl)-6,7-dihydro-4H-[1,2,4]triazolo[1,5-a]pyrimidin-5-one
> <PUBCHEM_IUPAC_CAS_NAME>
7-(4-nitrophenyl)-2-pyridin-4-yl-6,7-dihydro-4H-[1,2,4]triazolo[1,5-a]pyrimidin-5-one
> <PUBCHEM_IUPAC_NAME_MARKUP>
7-(4-nitrophenyl)-2-pyridin-4-yl-6,7-dihydro-4<I>H</I>-[1,2,4]triazolo[1,5-a]pyrimidin-5-one
> <PUBCHEM_IUPAC_NAME>
7-(4-nitrophenyl)-2-pyridin-4-yl-6,7-dihydro-4H-[1,2,4]triazolo[1,5-a]pyrimidin-5-one
> <PUBCHEM_IUPAC_SYSTEMATIC_NAME>
7-(4-nitrophenyl)-2-pyridin-4-yl-6,7-dihydro-4H-[1,2,4]triazolo[1,5-a]pyrimidin-5-one
> <PUBCHEM_IUPAC_TRADITIONAL_NAME>
7-(4-nitrophenyl)-2-(4-pyridyl)-6,7-dihydro-4H-[1,2,4]triazolo[1,5-a]pyrimidin-5-one
> <PUBCHEM_IUPAC_INCHI>
InChI=1S/C16H12N6O3/c23-14-9-13(10-1-3-12(4-2-10)22(24)25)21-16(18-14)19-15(20-21)11-5-7-17-8-6-11/h1-8,13H,9H2,(H,18,19,20,23)
> <PUBCHEM_IUPAC_INCHIKEY>
ZCQYTNBDQFWQSA-UHFFFAOYSA-N
> <PUBCHEM_XLOGP3_AA>
1.3
> <PUBCHEM_EXACT_MASS>
336.09708827
> <PUBCHEM_MOLECULAR_FORMULA>
C16H12N6O3
> <PUBCHEM_MOLECULAR_WEIGHT>
336.30
> <PUBCHEM_OPENEYE_CAN_SMILES>
C1C(N2C(=NC(=N2)C3=CC=NC=C3)NC1=O)C4=CC=C(C=C4)[N+](=O)[O-]
> <PUBCHEM_OPENEYE_ISO_SMILES>
C1C(N2C(=NC(=N2)C3=CC=NC=C3)NC1=O)C4=CC=C(C=C4)[N+](=O)[O-]
> <PUBCHEM_CACTVS_TPSA>
119
> <PUBCHEM_MONOISOTOPIC_WEIGHT>
336.09708827
> <PUBCHEM_TOTAL_CHARGE>
0
> <PUBCHEM_HEAVY_ATOM_COUNT>
25
> <PUBCHEM_ATOM_DEF_STEREO_COUNT>
0
> <PUBCHEM_ATOM_UDEF_STEREO_COUNT>
1
> <PUBCHEM_BOND_DEF_STEREO_COUNT>
0
> <PUBCHEM_BOND_UDEF_STEREO_COUNT>
0
> <PUBCHEM_ISOTOPIC_ATOM_COUNT>
0
> <PUBCHEM_COMPONENT_COUNT>
1
> <PUBCHEM_CACTVS_TAUTO_COUNT>
-1
> <PUBCHEM_COORDINATE_TYPE>
1
5
255
> <PUBCHEM_BONDANNOTATIONS>
10  12  3
12  15  8
12  16  8
15  18  8
16  19  8
18  21  8
19  21  8
20  22  8
20  23  8
22  24  8
23  25  8
4  13  8
4  6  8
6  17  8
7  13  8
7  17  8
9  24  8
9  25  8
$$$$
