502200
  -OEChem-10302200282D
 35 38  0     1  0  0  0  0  0999 V2000
    2.0000   -2.1900    0.0000 O   0  0  0  0  0  0  0  0  0  0  0  0
    4.5981   -0.6900    0.0000 N   0  0  0  0  0  0  0  0  0  0  0  0
    3.7320   -2.1900    0.0000 N   0  0  0  0  0  0  0  0  0  0  0  0
    5.5443   -0.3853    0.0000 N   0  0  0  0  0  0  0  0  0  0  0  0
    5.5443   -1.9947    0.0000 N   0  0  0  0  0  0  0  0  0  0  0  0
    8.6279   -0.3240    0.0000 N   0  0  0  0  0  0  0  0  0  0  0  0
    3.7320   -0.1900    0.0000 C   0  0  3  0  0  0  0  0  0  0  0  0
    2.8660   -0.6900    0.0000 C   0  0  0  0  0  0  0  0  0  0  0  0
    3.7320    0.8100    0.0000 C   0  0  0  0  0  0  0  0  0  0  0  0
    4.5981   -1.6900    0.0000 C   0  0  0  0  0  0  0  0  0  0  0  0
    2.8660   -1.6900    0.0000 C   0  0  0  0  0  0  0  0  0  0  0  0
    6.1279   -1.1900    0.0000 C   0  0  0  0  0  0  0  0  0  0  0  0
    4.5981    1.3100    0.0000 C   0  0  0  0  0  0  0  0  0  0  0  0
    2.8660    1.3100    0.0000 C   0  0  0  0  0  0  0  0  0  0  0  0
    7.1279   -1.1900    0.0000 C   0  0  0  0  0  0  0  0  0  0  0  0
    4.5981    2.3100    0.0000 C   0  0  0  0  0  0  0  0  0  0  0  0
    2.8660    2.3100    0.0000 C   0  0  0  0  0  0  0  0  0  0  0  0
    3.7320    2.8100    0.0000 C   0  0  0  0  0  0  0  0  0  0  0  0
    7.6279   -2.0560    0.0000 C   0  0  0  0  0  0  0  0  0  0  0  0
    7.6279   -0.3240    0.0000 C   0  0  0  0  0  0  0  0  0  0  0  0
    8.6279   -2.0560    0.0000 C   0  0  0  0  0  0  0  0  0  0  0  0
    9.1279   -1.1900    0.0000 C   0  0  0  0  0  0  0  0  0  0  0  0
    3.1951    0.1200    0.0000 H   0  0  0  0  0  0  0  0  0  0  0  0
    2.6540   -0.1074    0.0000 H   0  0  0  0  0  0  0  0  0  0  0  0
    2.2554   -0.7977    0.0000 H   0  0  0  0  0  0  0  0  0  0  0  0
    3.7320   -2.8100    0.0000 H   0  0  0  0  0  0  0  0  0  0  0  0
    5.1350    1.0000    0.0000 H   0  0  0  0  0  0  0  0  0  0  0  0
    2.3291    1.0000    0.0000 H   0  0  0  0  0  0  0  0  0  0  0  0
    5.1350    2.6200    0.0000 H   0  0  0  0  0  0  0  0  0  0  0  0
    2.3291    2.6200    0.0000 H   0  0  0  0  0  0  0  0  0  0  0  0
    3.7320    3.4300    0.0000 H   0  0  0  0  0  0  0  0  0  0  0  0
    7.3179   -2.5930    0.0000 H   0  0  0  0  0  0  0  0  0  0  0  0
    7.3179    0.2130    0.0000 H   0  0  0  0  0  0  0  0  0  0  0  0
    8.9379   -2.5930    0.0000 H   0  0  0  0  0  0  0  0  0  0  0  0
    9.7479   -1.1900    0.0000 H   0  0  0  0  0  0  0  0  0  0  0  0
  1 11  2  0  0  0  0
  2  4  1  0  0  0  0
  2  7  1  0  0  0  0
  2 10  1  0  0  0  0
  3 10  1  0  0  0  0
  3 11  1  0  0  0  0
  3 26  1  0  0  0  0
  4 12  2  0  0  0  0
  5 10  2  0  0  0  0
  5 12  1  0  0  0  0
  6 20  1  0  0  0  0
  6 22  2  0  0  0  0
  7  8  1  0  0  0  0
  7  9  1  0  0  0  0
  7 23  1  0  0  0  0
  8 11  1  0  0  0  0
  8 24  1  0  0  0  0
  8 25  1  0  0  0  0
  9 13  2  0  0  0  0
  9 14  1  0  0  0  0
 12 15  1  0  0  0  0
 13 16  1  0  0  0  0
 13 27  1  0  0  0  0
 14 17  2  0  0  0  0
 14 28  1  0  0  0  0
 15 19  1  0  0  0  0
 15 20  2  0  0  0  0
 16 18  2  0  0  0  0
 16 29  1  0  0  0  0
 17 18  1  0  0  0  0
 17 30  1  0  0  0  0
 18 31  1  0  0  0  0
 19 21  2  0  0  0  0
 19 32  1  0  0  0  0
 20 33  1  0  0  0  0
 21 22  1  0  0  0  0
 21 34  1  0  0  0  0
 22 35  1  0  0  0  0
M  END
> <PUBCHEM_COMPOUND_CID>
502200
> <PUBCHEM_COMPOUND_CANONICALIZED>
1
> <PUBCHEM_CACTVS_COMPLEXITY>
411
> <PUBCHEM_CACTVS_HBOND_ACCEPTOR>
4
> <PUBCHEM_CACTVS_HBOND_DONOR>
1
> <PUBCHEM_CACTVS_ROTATABLE_BOND>
2
> <PUBCHEM_CACTVS_SUBSKEYS>
AAADccB7oAAAAAAAAAAAAAAAAAAAAWAAAAA8WIAAAAAAAFgB8AAAHgAYAAAADCjBmwQ9kJbIEACqAjN3dACSgCsxgqAd2CE4ZJiIKPrA2ZGEIAh4mQLIyAcYiICOAAAAAAAAAAAAAAAAAAAAAAAAAAAAAA==
> <PUBCHEM_IUPAC_OPENEYE_NAME>
7-phenyl-2-(3-pyridyl)-6,7-dihydro-4H-[1,2,4]triazolo[1,5-a]pyrimidin-5-one
> <PUBCHEM_IUPAC_CAS_NAME>
7-phenyl-2-(3-pyridinyl)-6,7-dihydro-4H-[1,2,4]triazolo[1,5-a]pyrimidin-5-one
> <PUBCHEM_IUPAC_NAME_MARKUP>
7-phenyl-2-pyridin-3-yl-6,7-dihydro-4<I>H</I>-[1,2,4]triazolo[1,5-a]pyrimidin-5-one
> <PUBCHEM_IUPAC_NAME>
7-phenyl-2-pyridin-3-yl-6,7-dihydro-4H-[1,2,4]triazolo[1,5-a]pyrimidin-5-one
> <PUBCHEM_IUPAC_SYSTEMATIC_NAME>
7-phenyl-2-pyridin-3-yl-6,7-dihydro-4H-[1,2,4]triazolo[1,5-a]pyrimidin-5-one
> <PUBCHEM_IUPAC_TRADITIONAL_NAME>
7-phenyl-2-(3-pyridyl)-6,7-dihydro-4H-[1,2,4]triazolo[1,5-a]pyrimidin-5-one
> <PUBCHEM_IUPAC_INCHI>
InChI=1S/C16H13N5O/c22-14-9-13(11-5-2-1-3-6-11)21-16(18-14)19-15(20-21)12-7-4-8-17-10-12/h1-8,10,13H,9H2,(H,18,19,20,22)
> <PUBCHEM_IUPAC_INCHIKEY>
QHBWZUPBMJCZAY-UHFFFAOYSA-N
> <PUBCHEM_XLOGP3_AA>
1.4
> <PUBCHEM_EXACT_MASS>
291.11201006
> <PUBCHEM_MOLECULAR_FORMULA>
C16H13N5O
> <PUBCHEM_MOLECULAR_WEIGHT>
291.31
> <PUBCHEM_OPENEYE_CAN_SMILES>
C1C(N2C(=NC(=N2)C3=CN=CC=C3)NC1=O)C4=CC=CC=C4
> <PUBCHEM_OPENEYE_ISO_SMILES>
C1C(N2C(=NC(=N2)C3=CN=CC=C3)NC1=O)C4=CC=CC=C4
> <PUBCHEM_CACTVS_TPSA>
72.7
> <PUBCHEM_MONOISOTOPIC_WEIGHT>
291.11201006
> <PUBCHEM_TOTAL_CHARGE>
0
> <PUBCHEM_HEAVY_ATOM_COUNT>
22
> <PUBCHEM_ATOM_DEF_STEREO_COUNT>
0
> <PUBCHEM_ATOM_UDEF_STEREO_COUNT>
1
> <PUBCHEM_BOND_DEF_STEREO_COUNT>
0
> <PUBCHEM_BOND_UDEF_STEREO_COUNT>
0
> <PUBCHEM_ISOTOPIC_ATOM_COUNT>
0
> <PUBCHEM_COMPONENT_COUNT>
1
> <PUBCHEM_CACTVS_TAUTO_COUNT>
-1
> <PUBCHEM_COORDINATE_TYPE>
1
5
255
> <PUBCHEM_BONDANNOTATIONS>
13  16  8
14  17  8
15  19  8
15  20  8
16  18  8
17  18  8
19  21  8
2  10  8
2  4  8
21  22  8
4  12  8
5  10  8
5  12  8
6  20  8
6  22  8
7  9  3
9  13  8
9  14  8
$$$$
