502207
  -OEChem-10302200282D
 64 66  0     1  0  0  0  0  0999 V2000
    5.1315   -1.6618    0.0000 P   0  0  3  0  0  0  0  0  0  0  0  0
    4.6717    1.8209    0.0000 O   0  0  0  0  0  0  0  0  0  0  0  0
    4.5438   -0.8527    0.0000 O   0  0  0  0  0  0  0  0  0  0  0  0
    4.3225   -2.2495    0.0000 O   0  0  0  0  0  0  0  0  0  0  0  0
    5.9406   -1.0740    0.0000 O   0  0  0  0  0  0  0  0  0  0  0  0
    5.5948    3.4087    0.0000 O   0  0  0  0  0  0  0  0  0  0  0  0
    3.8627    6.4087    0.0000 O   0  0  0  0  0  0  0  0  0  0  0  0
    8.2962   -3.0707    0.0000 O   0  0  0  0  0  0  0  0  0  0  0  0
    6.8949   -4.0888    0.0000 O   0  0  0  0  0  0  0  0  0  0  0  0
    3.8627    3.4087    0.0000 N   0  0  0  0  0  0  0  0  0  0  0  0
    5.7193   -2.4708    0.0000 N   0  0  0  0  0  0  0  0  0  0  0  0
    4.7287    4.9087    0.0000 N   0  0  0  0  0  0  0  0  0  0  0  0
    2.9136   -5.4142    0.0000 N   0  0  0  0  0  0  0  0  0  0  0  0
    4.3627    0.8698    0.0000 C   0  0  2  0  0  0  0  0  0  0  0  0
    3.8627    2.4087    0.0000 C   0  0  1  0  0  0  0  0  0  0  0  0
    4.9505    0.0608    0.0000 C   0  0  0  0  0  0  0  0  0  0  0  0
    3.3627    0.8698    0.0000 C   0  0  0  0  0  0  0  0  0  0  0  0
    3.0537    1.8209    0.0000 C   0  0  0  0  0  0  0  0  0  0  0  0
    2.9967    3.9087    0.0000 C   0  0  0  0  0  0  0  0  0  0  0  0
    4.7287    3.9087    0.0000 C   0  0  0  0  0  0  0  0  0  0  0  0
    2.9967    4.9087    0.0000 C   0  0  0  0  0  0  0  0  0  0  0  0
    6.7138   -2.3662    0.0000 C   0  0  3  0  0  0  0  0  0  0  0  0
    3.8627    5.4087    0.0000 C   0  0  0  0  0  0  0  0  0  0  0  0
    7.1206   -1.4527    0.0000 C   0  0  0  0  0  0  0  0  0  0  0  0
    2.1306    5.4087    0.0000 C   0  0  0  0  0  0  0  0  0  0  0  0
    4.4271   -3.2441    0.0000 C   0  0  0  0  0  0  0  0  0  0  0  0
    7.3016   -3.1753    0.0000 C   0  0  0  0  0  0  0  0  0  0  0  0
    3.6180   -3.8318    0.0000 C   0  0  0  0  0  0  0  0  0  0  0  0
    3.7226   -4.8264    0.0000 C   0  0  0  0  0  0  0  0  0  0  0  0
    5.3406   -3.6508    0.0000 C   0  0  0  0  0  0  0  0  0  0  0  0
    4.6361   -5.2331    0.0000 C   0  0  0  0  0  0  0  0  0  0  0  0
    5.4451   -4.6453    0.0000 C   0  0  0  0  0  0  0  0  0  0  0  0
    3.0181   -6.4087    0.0000 C   0  0  0  0  0  0  0  0  0  0  0  0
    2.0000   -5.0074    0.0000 C   0  0  0  0  0  0  0  0  0  0  0  0
    8.8839   -3.8797    0.0000 C   0  0  0  0  0  0  0  0  0  0  0  0
    4.9751    0.9668    0.0000 H   0  0  0  0  0  0  0  0  0  0  0  0
    4.4151    2.6902    0.0000 H   0  0  0  0  0  0  0  0  0  0  0  0
    5.4645   -0.2859    0.0000 H   0  0  0  0  0  0  0  0  0  0  0  0
    5.3812    0.5068    0.0000 H   0  0  0  0  0  0  0  0  0  0  0  0
    2.9983    0.3682    0.0000 H   0  0  0  0  0  0  0  0  0  0  0  0
    2.4640    2.0125    0.0000 H   0  0  0  0  0  0  0  0  0  0  0  0
    2.4597    3.5987    0.0000 H   0  0  0  0  0  0  0  0  0  0  0  0
    5.4672   -3.0372    0.0000 H   0  0  0  0  0  0  0  0  0  0  0  0
    6.3494   -1.8646    0.0000 H   0  0  0  0  0  0  0  0  0  0  0  0
    5.2657    5.2187    0.0000 H   0  0  0  0  0  0  0  0  0  0  0  0
    7.6870   -1.7049    0.0000 H   0  0  0  0  0  0  0  0  0  0  0  0
    7.3728   -0.8863    0.0000 H   0  0  0  0  0  0  0  0  0  0  0  0
    6.5542   -1.2005    0.0000 H   0  0  0  0  0  0  0  0  0  0  0  0
    2.4407    5.9456    0.0000 H   0  0  0  0  0  0  0  0  0  0  0  0
    1.5937    5.7187    0.0000 H   0  0  0  0  0  0  0  0  0  0  0  0
    1.8206    4.8717    0.0000 H   0  0  0  0  0  0  0  0  0  0  0  0
    3.0516   -3.5797    0.0000 H   0  0  0  0  0  0  0  0  0  0  0  0
    5.8422   -3.2864    0.0000 H   0  0  0  0  0  0  0  0  0  0  0  0
    4.7009   -5.8497    0.0000 H   0  0  0  0  0  0  0  0  0  0  0  0
    6.0115   -4.8975    0.0000 H   0  0  0  0  0  0  0  0  0  0  0  0
    2.4015   -6.4735    0.0000 H   0  0  0  0  0  0  0  0  0  0  0  0
    3.0829   -7.0253    0.0000 H   0  0  0  0  0  0  0  0  0  0  0  0
    3.6347   -6.3439    0.0000 H   0  0  0  0  0  0  0  0  0  0  0  0
    2.2522   -4.4410    0.0000 H   0  0  0  0  0  0  0  0  0  0  0  0
    1.4336   -4.7552    0.0000 H   0  0  0  0  0  0  0  0  0  0  0  0
    1.7478   -5.5738    0.0000 H   0  0  0  0  0  0  0  0  0  0  0  0
    8.3824   -4.2442    0.0000 H   0  0  0  0  0  0  0  0  0  0  0  0
    9.2484   -4.3813    0.0000 H   0  0  0  0  0  0  0  0  0  0  0  0
    9.3855   -3.5153    0.0000 H   0  0  0  0  0  0  0  0  0  0  0  0
  1  3  1  0  0  0  0
  1  4  1  0  0  0  0
  1  5  2  0  0  0  0
  1 11  1  0  0  0  0
  2 14  1  0  0  0  0
  2 15  1  0  0  0  0
  3 16  1  0  0  0  0
  4 26  1  0  0  0  0
  6 20  2  0  0  0  0
  7 23  2  0  0  0  0
  8 27  1  0  0  0  0
  8 35  1  0  0  0  0
  9 27  2  0  0  0  0
 15 10  1  6  0  0  0
 10 19  1  0  0  0  0
 10 20  1  0  0  0  0
 11 22  1  0  0  0  0
 11 43  1  0  0  0  0
 12 20  1  0  0  0  0
 12 23  1  0  0  0  0
 12 45  1  0  0  0  0
 13 29  1  0  0  0  0
 13 33  1  0  0  0  0
 13 34  1  0  0  0  0
 14 16  1  6  0  0  0
 14 17  1  0  0  0  0
 14 36  1  0  0  0  0
 15 18  1  0  0  0  0
 15 37  1  0  0  0  0
 16 38  1  0  0  0  0
 16 39  1  0  0  0  0
 17 18  2  0  0  0  0
 17 40  1  0  0  0  0
 18 41  1  0  0  0  0
 19 21  2  0  0  0  0
 19 42  1  0  0  0  0
 21 23  1  0  0  0  0
 21 25  1  0  0  0  0
 22 24  1  0  0  0  0
 22 27  1  0  0  0  0
 22 44  1  0  0  0  0
 24 46  1  0  0  0  0
 24 47  1  0  0  0  0
 24 48  1  0  0  0  0
 25 49  1  0  0  0  0
 25 50  1  0  0  0  0
 25 51  1  0  0  0  0
 26 28  1  0  0  0  0
 26 30  2  0  0  0  0
 28 29  2  0  0  0  0
 28 52  1  0  0  0  0
 29 31  1  0  0  0  0
 30 32  1  0  0  0  0
 30 53  1  0  0  0  0
 31 32  2  0  0  0  0
 31 54  1  0  0  0  0
 32 55  1  0  0  0  0
 33 56  1  0  0  0  0
 33 57  1  0  0  0  0
 33 58  1  0  0  0  0
 34 59  1  0  0  0  0
 34 60  1  0  0  0  0
 34 61  1  0  0  0  0
 35 62  1  0  0  0  0
 35 63  1  0  0  0  0
 35 64  1  0  0  0  0
M  END
> <PUBCHEM_COMPOUND_CID>
502207
> <PUBCHEM_COMPOUND_CANONICALIZED>
1
> <PUBCHEM_CACTVS_COMPLEXITY>
923
> <PUBCHEM_CACTVS_HBOND_ACCEPTOR>
10
> <PUBCHEM_CACTVS_HBOND_DONOR>
2
> <PUBCHEM_CACTVS_ROTATABLE_BOND>
11
> <PUBCHEM_CACTVS_SUBSKEYS>
AAADceB7vAIAAAAAAAAAAAAAAAAAAQAAAAAwQAAAAAAAAAABAAAAHgAQgCAADDzhkAYzzoPABRCIQiXWWICCAAAhIgAIiIGObMiLJiLAsZOPMAhu1ztK6MeQUAMAAAAAAgAAAAAAAAAEAAAAAAAAAAAAAA==
> <PUBCHEM_IUPAC_OPENEYE_NAME>
methyl 2-[[[3-(dimethylamino)phenoxy]-[[(2S,5R)-5-(5-methyl-2,4-dioxo-pyrimidin-1-yl)-2,5-dihydrofuran-2-yl]methoxy]phosphoryl]amino]propanoate
> <PUBCHEM_IUPAC_CAS_NAME>
2-[[[3-(dimethylamino)phenoxy]-[[(2S,5R)-5-(5-methyl-2,4-dioxo-1-pyrimidinyl)-2,5-dihydrofuran-2-yl]methoxy]phosphoryl]amino]propanoic acid methyl ester
> <PUBCHEM_IUPAC_NAME_MARKUP>
methyl 2-[[[3-(dimethylamino)phenoxy]-[[(2<I>S</I>,5<I>R</I>)-5-(5-methyl-2,4-dioxopyrimidin-1-yl)-2,5-dihydrofuran-2-yl]methoxy]phosphoryl]amino]propanoate
> <PUBCHEM_IUPAC_NAME>
methyl 2-[[[3-(dimethylamino)phenoxy]-[[(2S,5R)-5-(5-methyl-2,4-dioxopyrimidin-1-yl)-2,5-dihydrofuran-2-yl]methoxy]phosphoryl]amino]propanoate
> <PUBCHEM_IUPAC_SYSTEMATIC_NAME>
methyl 2-[[[3-(dimethylamino)phenoxy]-[[(2S,5R)-5-[5-methyl-2,4-bis(oxidanylidene)pyrimidin-1-yl]-2,5-dihydrofuran-2-yl]methoxy]phosphoryl]amino]propanoate
> <PUBCHEM_IUPAC_TRADITIONAL_NAME>
2-[[[(2S,5R)-5-(2,4-diketo-5-methyl-pyrimidin-1-yl)-2,5-dihydrofuran-2-yl]methoxy-[3-(dimethylamino)phenoxy]phosphoryl]amino]propionic acid methyl ester
> <PUBCHEM_IUPAC_INCHI>
InChI=1S/C22H29N4O8P/c1-14-12-26(22(29)23-20(14)27)19-10-9-18(33-19)13-32-35(30,24-15(2)21(28)31-5)34-17-8-6-7-16(11-17)25(3)4/h6-12,15,18-19H,13H2,1-5H3,(H,24,30)(H,23,27,29)/t15?,18-,19+,35?/m0/s1
> <PUBCHEM_IUPAC_INCHIKEY>
SRKXYBPSAPTGDC-QCRQWVKASA-N
> <PUBCHEM_XLOGP3_AA>
1.1
> <PUBCHEM_EXACT_MASS>
508.17230089
> <PUBCHEM_MOLECULAR_FORMULA>
C22H29N4O8P
> <PUBCHEM_MOLECULAR_WEIGHT>
508.5
> <PUBCHEM_OPENEYE_CAN_SMILES>
CC1=CN(C(=O)NC1=O)C2C=CC(O2)COP(=O)(NC(C)C(=O)OC)OC3=CC=CC(=C3)N(C)C
> <PUBCHEM_OPENEYE_ISO_SMILES>
CC1=CN(C(=O)NC1=O)[C@H]2C=C[C@H](O2)COP(=O)(NC(C)C(=O)OC)OC3=CC=CC(=C3)N(C)C
> <PUBCHEM_CACTVS_TPSA>
136
> <PUBCHEM_MONOISOTOPIC_WEIGHT>
508.17230089
> <PUBCHEM_TOTAL_CHARGE>
0
> <PUBCHEM_HEAVY_ATOM_COUNT>
35
> <PUBCHEM_ATOM_DEF_STEREO_COUNT>
2
> <PUBCHEM_ATOM_UDEF_STEREO_COUNT>
2
> <PUBCHEM_BOND_DEF_STEREO_COUNT>
0
> <PUBCHEM_BOND_UDEF_STEREO_COUNT>
0
> <PUBCHEM_ISOTOPIC_ATOM_COUNT>
0
> <PUBCHEM_COMPONENT_COUNT>
1
> <PUBCHEM_CACTVS_TAUTO_COUNT>
-1
> <PUBCHEM_COORDINATE_TYPE>
1
5
255
> <PUBCHEM_BONDANNOTATIONS>
1  11  3
15  10  6
10  19  8
10  20  8
12  20  8
12  23  8
14  16  6
19  21  8
21  23  8
22  24  3
26  28  8
26  30  8
28  29  8
29  31  8
30  32  8
31  32  8
$$$$
