502287
  -OEChem-10302200282D
 59 60  0     1  0  0  0  0  0999 V2000
    6.8671   -1.6900    0.0000 O   0  0  0  0  0  0  0  0  0  0  0  0
    7.7331    0.8100    0.0000 O   0  0  0  0  0  0  0  0  0  0  0  0
    8.5991   -1.6900    0.0000 O   0  0  0  0  0  0  0  0  0  0  0  0
   10.3312   -0.6900    0.0000 O   0  0  0  0  0  0  0  0  0  0  0  0
    4.2690    0.8100    0.0000 O   0  0  0  0  0  0  0  0  0  0  0  0
    5.1350   -3.6900    0.0000 O   0  0  0  0  0  0  0  0  0  0  0  0
    6.8671   -3.6900    0.0000 O   0  0  0  0  0  0  0  0  0  0  0  0
    6.0010    0.8100    0.0000 N   0  0  0  0  0  0  0  0  0  0  0  0
    4.2690   -0.1900    0.0000 N   0  0  0  0  0  0  0  0  0  0  0  0
    2.5369   -0.1900    0.0000 N   0  0  0  0  0  0  0  0  0  0  0  0
    3.4030   -1.6900    0.0000 N   0  0  0  0  0  0  0  0  0  0  0  0
    6.8671   -0.6900    0.0000 C   0  0  2  0  0  0  0  0  0  0  0  0
    6.0010   -0.1900    0.0000 C   0  0  1  0  0  0  0  0  0  0  0  0
    7.7331   -0.1900    0.0000 C   0  0  1  0  0  0  0  0  0  0  0  0
    5.1350   -0.6900    0.0000 C   0  0  2  0  0  0  0  0  0  0  0  0
    8.5991   -0.6900    0.0000 C   0  0  1  0  0  0  0  0  0  0  0  0
    5.1350   -1.6900    0.0000 C   0  0  0  0  0  0  0  0  0  0  0  0
    6.0010   -2.1900    0.0000 C   0  0  0  0  0  0  0  0  0  0  0  0
    9.4651   -0.1900    0.0000 C   0  0  0  0  0  0  0  0  0  0  0  0
    8.5991    1.3100    0.0000 C   0  0  0  0  0  0  0  0  0  0  0  0
    5.1350    1.3100    0.0000 C   0  0  0  0  0  0  0  0  0  0  0  0
    8.5991    2.3100    0.0000 C   0  0  0  0  0  0  0  0  0  0  0  0
    6.0010   -3.1900    0.0000 C   0  0  0  0  0  0  0  0  0  0  0  0
    3.4030   -0.6900    0.0000 C   0  0  0  0  0  0  0  0  0  0  0  0
    5.1350    2.3100    0.0000 C   0  0  0  0  0  0  0  0  0  0  0  0
    9.4651    2.8100    0.0000 C   0  0  0  0  0  0  0  0  0  0  0  0
    9.4651    3.8100    0.0000 C   0  0  0  0  0  0  0  0  0  0  0  0
   10.3312    2.3100    0.0000 C   0  0  0  0  0  0  0  0  0  0  0  0
   10.3312    4.3100    0.0000 C   0  0  0  0  0  0  0  0  0  0  0  0
   11.1972    2.8100    0.0000 C   0  0  0  0  0  0  0  0  0  0  0  0
   11.1972    3.8100    0.0000 C   0  0  0  0  0  0  0  0  0  0  0  0
    7.6032   -1.1150    0.0000 H   0  0  0  0  0  0  0  0  0  0  0  0
    6.5380    0.1200    0.0000 H   0  0  0  0  0  0  0  0  0  0  0  0
    8.2700    0.1200    0.0000 H   0  0  0  0  0  0  0  0  0  0  0  0
    5.1350   -0.0700    0.0000 H   0  0  0  0  0  0  0  0  0  0  0  0
    8.0622   -1.0000    0.0000 H   0  0  0  0  0  0  0  0  0  0  0  0
    6.5380    1.1200    0.0000 H   0  0  0  0  0  0  0  0  0  0  0  0
    4.5981   -2.0000    0.0000 H   0  0  0  0  0  0  0  0  0  0  0  0
    9.8637    0.2849    0.0000 H   0  0  0  0  0  0  0  0  0  0  0  0
    9.0666    0.2849    0.0000 H   0  0  0  0  0  0  0  0  0  0  0  0
    8.8112    0.7274    0.0000 H   0  0  0  0  0  0  0  0  0  0  0  0
    9.2097    1.4177    0.0000 H   0  0  0  0  0  0  0  0  0  0  0  0
    9.1360   -2.0000    0.0000 H   0  0  0  0  0  0  0  0  0  0  0  0
    8.3871    2.8926    0.0000 H   0  0  0  0  0  0  0  0  0  0  0  0
    7.9885    2.2023    0.0000 H   0  0  0  0  0  0  0  0  0  0  0  0
    5.7550    2.3100    0.0000 H   0  0  0  0  0  0  0  0  0  0  0  0
    5.1350    2.9300    0.0000 H   0  0  0  0  0  0  0  0  0  0  0  0
    4.5150    2.3100    0.0000 H   0  0  0  0  0  0  0  0  0  0  0  0
   10.8681   -0.3800    0.0000 H   0  0  0  0  0  0  0  0  0  0  0  0
    5.1350   -4.3100    0.0000 H   0  0  0  0  0  0  0  0  0  0  0  0
    2.0000   -0.5000    0.0000 H   0  0  0  0  0  0  0  0  0  0  0  0
    2.5369    0.4300    0.0000 H   0  0  0  0  0  0  0  0  0  0  0  0
    2.8660   -2.0000    0.0000 H   0  0  0  0  0  0  0  0  0  0  0  0
    3.9399   -2.0000    0.0000 H   0  0  0  0  0  0  0  0  0  0  0  0
    8.9282    4.1200    0.0000 H   0  0  0  0  0  0  0  0  0  0  0  0
   10.3312    1.6900    0.0000 H   0  0  0  0  0  0  0  0  0  0  0  0
   10.3312    4.9300    0.0000 H   0  0  0  0  0  0  0  0  0  0  0  0
   11.7341    2.5000    0.0000 H   0  0  0  0  0  0  0  0  0  0  0  0
   11.7341    4.1200    0.0000 H   0  0  0  0  0  0  0  0  0  0  0  0
  1 12  1  0  0  0  0
  1 18  1  0  0  0  0
 14  2  1  6  0  0  0
  2 20  1  0  0  0  0
 16  3  1  1  0  0  0
  3 43  1  0  0  0  0
  4 19  1  0  0  0  0
  4 49  1  0  0  0  0
  5 21  2  0  0  0  0
  6 23  1  0  0  0  0
  6 50  1  0  0  0  0
  7 23  2  0  0  0  0
 13  8  1  1  0  0  0
  8 21  1  0  0  0  0
  8 37  1  0  0  0  0
 15  9  1  6  0  0  0
  9 24  2  0  0  0  0
 10 24  1  0  0  0  0
 10 51  1  0  0  0  0
 10 52  1  0  0  0  0
 11 24  1  0  0  0  0
 11 53  1  0  0  0  0
 11 54  1  0  0  0  0
 12 13  1  0  0  0  0
 12 14  1  0  0  0  0
 12 32  1  1  0  0  0
 13 15  1  0  0  0  0
 13 33  1  0  0  0  0
 14 16  1  0  0  0  0
 14 34  1  0  0  0  0
 15 17  1  0  0  0  0
 15 35  1  0  0  0  0
 16 19  1  0  0  0  0
 16 36  1  0  0  0  0
 17 18  2  0  0  0  0
 17 38  1  0  0  0  0
 18 23  1  0  0  0  0
 19 39  1  0  0  0  0
 19 40  1  0  0  0  0
 20 22  1  0  0  0  0
 20 41  1  0  0  0  0
 20 42  1  0  0  0  0
 21 25  1  0  0  0  0
 22 26  1  0  0  0  0
 22 44  1  0  0  0  0
 22 45  1  0  0  0  0
 25 46  1  0  0  0  0
 25 47  1  0  0  0  0
 25 48  1  0  0  0  0
 26 27  2  0  0  0  0
 26 28  1  0  0  0  0
 27 29  1  0  0  0  0
 27 55  1  0  0  0  0
 28 30  2  0  0  0  0
 28 56  1  0  0  0  0
 29 31  2  0  0  0  0
 29 57  1  0  0  0  0
 30 31  1  0  0  0  0
 30 58  1  0  0  0  0
 31 59  1  0  0  0  0
M  END
> <PUBCHEM_COMPOUND_CID>
502287
> <PUBCHEM_COMPOUND_CANONICALIZED>
1
> <PUBCHEM_CACTVS_COMPLEXITY>
674
> <PUBCHEM_CACTVS_HBOND_ACCEPTOR>
8
> <PUBCHEM_CACTVS_HBOND_DONOR>
6
> <PUBCHEM_CACTVS_ROTATABLE_BOND>
10
> <PUBCHEM_CACTVS_SUBSKEYS>
AAADceB7uAAAAAAAAAAAAAAAAAAAAAAAAAAwQAAAAAAAAAABAAAAHgAQCAAADDzhmAYzCILABgCoAiHSPAKCCAEgIAAIiIBIAMgLdCKAkRSXcAAn1gGbmYfw0KMOAAAAAAAAAAAAAAAAAAAAAAAAAAAAAA==
> <PUBCHEM_IUPAC_OPENEYE_NAME>
(2R,3R,4S)-3-acetamido-2-[(1R,2R)-2,3-dihydroxy-1-(2-phenylethoxy)propyl]-4-guanidino-3,4-dihydro-2H-pyran-6-carboxylic acid
> <PUBCHEM_IUPAC_CAS_NAME>
(2R,3R,4S)-3-acetamido-4-(diaminomethylideneamino)-2-[(1R,2R)-2,3-dihydroxy-1-(2-phenylethoxy)propyl]-3,4-dihydro-2H-pyran-6-carboxylic acid
> <PUBCHEM_IUPAC_NAME_MARKUP>
(2<I>R</I>,3<I>R</I>,4<I>S</I>)-3-acetamido-4-(diaminomethylideneamino)-2-[(1<I>R</I>,2<I>R</I>)-2,3-dihydroxy-1-(2-phenylethoxy)propyl]-3,4-dihydro-2<I>H</I>-pyran-6-carboxylic acid
> <PUBCHEM_IUPAC_NAME>
(2R,3R,4S)-3-acetamido-4-(diaminomethylideneamino)-2-[(1R,2R)-2,3-dihydroxy-1-(2-phenylethoxy)propyl]-3,4-dihydro-2H-pyran-6-carboxylic acid
> <PUBCHEM_IUPAC_SYSTEMATIC_NAME>
(2R,3R,4S)-3-acetamido-4-[bis(azanyl)methylideneamino]-2-[(1R,2R)-2,3-bis(oxidanyl)-1-(2-phenylethoxy)propyl]-3,4-dihydro-2H-pyran-6-carboxylic acid
> <PUBCHEM_IUPAC_TRADITIONAL_NAME>
(2R,3R,4S)-3-acetamido-2-[(1R,2R)-2,3-dihydroxy-1-phenethoxy-propyl]-4-guanidino-3,4-dihydro-2H-pyran-6-carboxylic acid
> <PUBCHEM_IUPAC_INCHI>
InChI=1S/C20H28N4O7/c1-11(26)23-16-13(24-20(21)22)9-15(19(28)29)31-18(16)17(14(27)10-25)30-8-7-12-5-3-2-4-6-12/h2-6,9,13-14,16-18,25,27H,7-8,10H2,1H3,(H,23,26)(H,28,29)(H4,21,22,24)/t13-,14+,16+,17+,18+/m0/s1
> <PUBCHEM_IUPAC_INCHIKEY>
YBIQFAPSTLLHTM-QBBQCFRVSA-N
> <PUBCHEM_XLOGP3_AA>
-1.3
> <PUBCHEM_EXACT_MASS>
436.19579924
> <PUBCHEM_MOLECULAR_FORMULA>
C20H28N4O7
> <PUBCHEM_MOLECULAR_WEIGHT>
436.5
> <PUBCHEM_OPENEYE_CAN_SMILES>
CC(=O)NC1C(C=C(OC1C(C(CO)O)OCCC2=CC=CC=C2)C(=O)O)N=C(N)N
> <PUBCHEM_OPENEYE_ISO_SMILES>
CC(=O)N[C@@H]1[C@H](C=C(O[C@H]1[C@@H]([C@@H](CO)O)OCCC2=CC=CC=C2)C(=O)O)N=C(N)N
> <PUBCHEM_CACTVS_TPSA>
190
> <PUBCHEM_MONOISOTOPIC_WEIGHT>
436.19579924
> <PUBCHEM_TOTAL_CHARGE>
0
> <PUBCHEM_HEAVY_ATOM_COUNT>
31
> <PUBCHEM_ATOM_DEF_STEREO_COUNT>
5
> <PUBCHEM_ATOM_UDEF_STEREO_COUNT>
0
> <PUBCHEM_BOND_DEF_STEREO_COUNT>
0
> <PUBCHEM_BOND_UDEF_STEREO_COUNT>
0
> <PUBCHEM_ISOTOPIC_ATOM_COUNT>
0
> <PUBCHEM_COMPONENT_COUNT>
1
> <PUBCHEM_CACTVS_TAUTO_COUNT>
-1
> <PUBCHEM_COORDINATE_TYPE>
1
5
255
> <PUBCHEM_BONDANNOTATIONS>
12  32  5
14  2  6
26  27  8
26  28  8
27  29  8
28  30  8
29  31  8
16  3  5
30  31  8
13  8  5
15  9  6
$$$$
