502206
  -OEChem-10302200282D
 73 76  0     1  0  0  0  0  0999 V2000
    6.8100   -0.9664    0.0000 O   0  0  0  0  0  0  0  0  0  0  0  0
    5.1920   -0.9664    0.0000 O   0  0  0  0  0  0  0  0  0  0  0  0
    5.1350   -2.0542    0.0000 O   0  0  0  0  0  0  0  0  0  0  0  0
    8.0356    0.8670    0.0000 O   0  0  0  0  0  0  0  0  0  0  0  0
    6.5218    1.7846    0.0000 O   0  0  0  0  0  0  0  0  0  0  0  0
    3.9664    0.8670    0.0000 O   0  0  0  0  0  0  0  0  0  0  0  0
    7.7331   -1.5542    0.0000 O   0  0  0  0  0  0  0  0  0  0  0  0
    7.7331   -3.5542    0.0000 O   0  0  0  0  0  0  0  0  0  0  0  0
    6.0010   -4.5542    0.0000 O   0  0  0  0  0  0  0  0  0  0  0  0
   10.0355    0.8439    0.0000 O   0  0  0  0  0  0  0  0  0  0  0  0
    7.0557    2.6105    0.0000 O   0  0  0  0  0  0  0  0  0  0  0  0
    5.4736    3.5167    0.0000 O   0  0  0  0  0  0  0  0  0  0  0  0
    2.5369   -3.5542    0.0000 O   0  0  0  0  0  0  0  0  0  0  0  0
   11.0555    2.5643    0.0000 N   0  0  0  0  0  0  0  0  0  0  0  0
    8.0757    4.3309    0.0000 N   0  0  0  0  0  0  0  0  0  0  0  0
    4.2690   -4.5542    0.0000 N   0  0  0  0  0  0  0  0  0  0  0  0
    6.5010   -0.0154    0.0000 C   0  0  1  0  0  0  0  0  0  0  0  0
    5.5010   -0.0154    0.0000 C   0  0  2  0  0  0  0  0  0  0  0  0
    6.0010   -1.5542    0.0000 C   0  0  3  0  0  0  0  0  0  0  0  0
    7.0357    0.8786    0.0000 C   0  0  2  0  0  0  0  0  0  0  0  0
    4.9664    0.8786    0.0000 C   0  0  2  0  0  0  0  0  0  0  0  0
    6.8671   -2.0542    0.0000 C   0  0  1  0  0  0  0  0  0  0  0  0
    8.5456    1.7272    0.0000 C   0  0  2  0  0  0  0  0  0  0  0  0
    5.4802    1.7846    0.0000 C   0  0  1  0  0  0  0  0  0  0  0  0
    6.8671   -3.0542    0.0000 C   0  0  2  0  0  0  0  0  0  0  0  0
    5.1350   -3.0542    0.0000 C   0  0  1  0  0  0  0  0  0  0  0  0
    6.0010   -3.5542    0.0000 C   0  0  2  0  0  0  0  0  0  0  0  0
    9.5456    1.7156    0.0000 C   0  0  2  0  0  0  0  0  0  0  0  0
    8.0557    2.5990    0.0000 C   0  0  1  0  0  0  0  0  0  0  0  0
   10.0555    2.5758    0.0000 C   0  0  1  0  0  0  0  0  0  0  0  0
    8.5656    3.4591    0.0000 C   0  0  2  0  0  0  0  0  0  0  0  0
    9.5656    3.4476    0.0000 C   0  0  0  0  0  0  0  0  0  0  0  0
    4.2690   -3.5542    0.0000 C   0  0  2  0  0  0  0  0  0  0  0  0
    4.9769    2.6487    0.0000 C   0  0  0  0  0  0  0  0  0  0  0  0
    3.4030   -3.0542    0.0000 C   0  0  0  0  0  0  0  0  0  0  0  0
   11.5654    3.4244    0.0000 C   0  0  0  0  0  0  0  0  0  0  0  0
    7.3457   -0.1107    0.0000 H   0  0  0  0  0  0  0  0  0  0  0  0
    4.6564   -0.1107    0.0000 H   0  0  0  0  0  0  0  0  0  0  0  0
    7.3384    0.3375    0.0000 H   0  0  0  0  0  0  0  0  0  0  0  0
    4.6636    0.3375    0.0000 H   0  0  0  0  0  0  0  0  0  0  0  0
    7.4040   -2.3642    0.0000 H   0  0  0  0  0  0  0  0  0  0  0  0
    7.9256    1.7344    0.0000 H   0  0  0  0  0  0  0  0  0  0  0  0
    5.7892    2.3222    0.0000 H   0  0  0  0  0  0  0  0  0  0  0  0
    6.8671   -3.6742    0.0000 H   0  0  0  0  0  0  0  0  0  0  0  0
    4.3989   -2.6292    0.0000 H   0  0  0  0  0  0  0  0  0  0  0  0
    6.5380   -3.8642    0.0000 H   0  0  0  0  0  0  0  0  0  0  0  0
   10.1655    1.7085    0.0000 H   0  0  0  0  0  0  0  0  0  0  0  0
    7.7519    3.1394    0.0000 H   0  0  0  0  0  0  0  0  0  0  0  0
   10.3717    3.1091    0.0000 H   0  0  0  0  0  0  0  0  0  0  0  0
    8.8818    3.9924    0.0000 H   0  0  0  0  0  0  0  0  0  0  0  0
   10.1506    3.6529    0.0000 H   0  0  0  0  0  0  0  0  0  0  0  0
    9.4650    4.0594    0.0000 H   0  0  0  0  0  0  0  0  0  0  0  0
    4.8059   -3.8642    0.0000 H   0  0  0  0  0  0  0  0  0  0  0  0
    4.5004    3.0454    0.0000 H   0  0  0  0  0  0  0  0  0  0  0  0
    4.5035    2.2484    0.0000 H   0  0  0  0  0  0  0  0  0  0  0  0
    3.6502    1.4003    0.0000 H   0  0  0  0  0  0  0  0  0  0  0  0
    8.2700   -1.8642    0.0000 H   0  0  0  0  0  0  0  0  0  0  0  0
   11.3592    2.0238    0.0000 H   0  0  0  0  0  0  0  0  0  0  0  0
    7.7331   -4.1742    0.0000 H   0  0  0  0  0  0  0  0  0  0  0  0
    8.3919    4.8642    0.0000 H   0  0  0  0  0  0  0  0  0  0  0  0
    7.4557    4.3381    0.0000 H   0  0  0  0  0  0  0  0  0  0  0  0
    3.8015   -2.5793    0.0000 H   0  0  0  0  0  0  0  0  0  0  0  0
    3.0044   -2.5793    0.0000 H   0  0  0  0  0  0  0  0  0  0  0  0
    6.5380   -4.8642    0.0000 H   0  0  0  0  0  0  0  0  0  0  0  0
   10.6555    0.8367    0.0000 H   0  0  0  0  0  0  0  0  0  0  0  0
    6.7520    3.1510    0.0000 H   0  0  0  0  0  0  0  0  0  0  0  0
    3.7320   -4.8642    0.0000 H   0  0  0  0  0  0  0  0  0  0  0  0
    4.8059   -4.8642    0.0000 H   0  0  0  0  0  0  0  0  0  0  0  0
   12.0988    3.1083    0.0000 H   0  0  0  0  0  0  0  0  0  0  0  0
   11.8816    3.9578    0.0000 H   0  0  0  0  0  0  0  0  0  0  0  0
   11.0321    3.7406    0.0000 H   0  0  0  0  0  0  0  0  0  0  0  0
    5.1615    4.0524    0.0000 H   0  0  0  0  0  0  0  0  0  0  0  0
    2.0000   -3.2442    0.0000 H   0  0  0  0  0  0  0  0  0  0  0  0
  1 17  1  0  0  0  0
  1 19  1  0  0  0  0
  2 18  1  0  0  0  0
  2 19  1  0  0  0  0
  3 19  1  0  0  0  0
  3 26  1  0  0  0  0
 20  4  1  1  0  0  0
 23  4  1  1  0  0  0
  5 20  1  0  0  0  0
  5 24  1  0  0  0  0
 21  6  1  1  0  0  0
  6 56  1  0  0  0  0
  7 22  1  0  0  0  0
  7 57  1  0  0  0  0
 25  8  1  1  0  0  0
  8 59  1  0  0  0  0
 27  9  1  1  0  0  0
  9 64  1  0  0  0  0
 28 10  1  6  0  0  0
 10 65  1  0  0  0  0
 29 11  1  6  0  0  0
 11 66  1  0  0  0  0
 12 34  1  0  0  0  0
 12 72  1  0  0  0  0
 13 35  1  0  0  0  0
 13 73  1  0  0  0  0
 30 14  1  1  0  0  0
 14 36  1  0  0  0  0
 14 58  1  0  0  0  0
 31 15  1  1  0  0  0
 15 60  1  0  0  0  0
 15 61  1  0  0  0  0
 33 16  1  1  0  0  0
 16 67  1  0  0  0  0
 16 68  1  0  0  0  0
 17 18  1  0  0  0  0
 17 20  1  0  0  0  0
 17 37  1  6  0  0  0
 18 21  1  0  0  0  0
 18 38  1  6  0  0  0
 19 22  1  0  0  0  0
 20 39  1  0  0  0  0
 21 24  1  0  0  0  0
 21 40  1  0  0  0  0
 22 25  1  0  0  0  0
 22 41  1  0  0  0  0
 23 28  1  0  0  0  0
 23 29  1  0  0  0  0
 23 42  1  0  0  0  0
 24 34  1  1  0  0  0
 24 43  1  0  0  0  0
 25 27  1  0  0  0  0
 25 44  1  0  0  0  0
 26 27  1  0  0  0  0
 26 33  1  0  0  0  0
 26 45  1  6  0  0  0
 27 46  1  0  0  0  0
 28 30  1  0  0  0  0
 28 47  1  0  0  0  0
 29 31  1  0  0  0  0
 29 48  1  0  0  0  0
 30 32  1  0  0  0  0
 30 49  1  0  0  0  0
 31 32  1  0  0  0  0
 31 50  1  0  0  0  0
 32 51  1  0  0  0  0
 32 52  1  0  0  0  0
 33 35  1  0  0  0  0
 33 53  1  0  0  0  0
 34 54  1  0  0  0  0
 34 55  1  0  0  0  0
 35 62  1  0  0  0  0
 35 63  1  0  0  0  0
 36 69  1  0  0  0  0
 36 70  1  0  0  0  0
 36 71  1  0  0  0  0
M  END
> <PUBCHEM_COMPOUND_CID>
502206
> <PUBCHEM_COMPOUND_CANONICALIZED>
1
> <PUBCHEM_CACTVS_COMPLEXITY>
756
> <PUBCHEM_CACTVS_HBOND_ACCEPTOR>
16
> <PUBCHEM_CACTVS_HBOND_DONOR>
11
> <PUBCHEM_CACTVS_ROTATABLE_BOND>
6
> <PUBCHEM_CACTVS_SUBSKEYS>
AAADcfB7PAAAAAAAAAAAAAAAAAAAASAAAAA0SIAAAAAAAEgAAAAAHgAQCAAACDzxgAcCCALABgAAAAAAAAAAAAAAAAAAAIAIAAATEAIAwAAnQAAHEAAXAAHw8C8AAAAAAAAAAAAAgAAUCACgAAAAAAAAAA==
> <PUBCHEM_IUPAC_OPENEYE_NAME>
(3'R,3aS,4S,4'S,5'R,6R,6'R,7S,7aS)-4-[(1S,2R,3S,5R,6S)-3-amino-2,6-dihydroxy-5-(methylamino)cyclohexoxy]-6'-[(1S)-1-amino-2-hydroxy-ethyl]-6-(hydroxymethyl)spiro[4,6,7,7a-tetrahydro-3aH-[1,3]dioxolo[4,5-c]pyran-2,2'-tetrahydropyran]-3',4',5',7-tetrol
> <PUBCHEM_IUPAC_CAS_NAME>
(3'R,3aS,4S,4'S,5'R,6R,6'R,7S,7aS)-4-[(1S,2R,3S,5R,6S)-3-amino-2,6-dihydroxy-5-(methylamino)cyclohexyl]oxy-6'-[(1S)-1-amino-2-hydroxyethyl]-6-(hydroxymethyl)spiro[4,6,7,7a-tetrahydro-3aH-[1,3]dioxolo[4,5-c]pyran-2,2'-oxane]-3',4',5',7-tetrol
> <PUBCHEM_IUPAC_NAME_MARKUP>
(3&apos;<I>R</I>,3<I>a</I><I>S</I>,4<I>S</I>,4&apos;<I>S</I>,5&apos;<I>R</I>,6<I>R</I>,6&apos;<I>R</I>,7<I>S</I>,7<I>a</I><I>S</I>)-4-[(1<I>S</I>,2<I>R</I>,3<I>S</I>,5<I>R</I>,6<I>S</I>)-3-amino-2,6-dihydroxy-5-(methylamino)cyclohexyl]oxy-6&apos;-[(1<I>S</I>)-1-amino-2-hydroxyethyl]-6-(hydroxymethyl)spiro[4,6,7,7<I>a</I>-tetrahydro-3<I>a</I><I>H</I>-[1,3]dioxolo[4,5-c]pyran-2,2&apos;-oxane]-3&apos;,4&apos;,5&apos;,7-tetrol
> <PUBCHEM_IUPAC_NAME>
(3'R,3aS,4S,4'S,5'R,6R,6'R,7S,7aS)-4-[(1S,2R,3S,5R,6S)-3-amino-2,6-dihydroxy-5-(methylamino)cyclohexyl]oxy-6'-[(1S)-1-amino-2-hydroxyethyl]-6-(hydroxymethyl)spiro[4,6,7,7a-tetrahydro-3aH-[1,3]dioxolo[4,5-c]pyran-2,2'-oxane]-3',4',5',7-tetrol
> <PUBCHEM_IUPAC_SYSTEMATIC_NAME>
(3'R,3aS,4S,4'S,5'R,6R,6'R,7S,7aS)-4-[(1S,2R,3S,5R,6S)-3-azanyl-5-(methylamino)-2,6-bis(oxidanyl)cyclohexyl]oxy-6'-[(1S)-1-azanyl-2-oxidanyl-ethyl]-6-(hydroxymethyl)spiro[4,6,7,7a-tetrahydro-3aH-[1,3]dioxolo[4,5-c]pyran-2,2'-oxane]-3',4',5',7-tetrol
> <PUBCHEM_IUPAC_TRADITIONAL_NAME>
(3'R,3aS,4S,4'S,5'R,6R,6'R,7S,7aS)-4-[(1S,2R,3S,5R,6S)-3-amino-2,6-dihydroxy-5-(methylamino)cyclohexoxy]-6'-[(1S)-1-amino-2-hydroxy-ethyl]-6-methylol-spiro[4,6,7,7a-tetrahydro-3aH-[1,3]dioxolo[4,5-c]pyran-2,2'-tetrahydropyran]-3',4',5',7-tetrol
> <PUBCHEM_IUPAC_INCHI>
InChI=1S/C20H37N3O13/c1-23-7-2-5(21)9(26)15(10(7)27)33-19-17-16(11(28)8(4-25)32-19)35-20(36-17)18(31)13(30)12(29)14(34-20)6(22)3-24/h5-19,23-31H,2-4,21-22H2,1H3/t5-,6-,7+,8+,9+,10-,11-,12+,13-,14+,15-,16-,17-,18+,19-,20?/m0/s1
> <PUBCHEM_IUPAC_INCHIKEY>
GRRNUXAQVGOGFE-SVNOMHMPSA-N
> <PUBCHEM_XLOGP3_AA>
-6.6
> <PUBCHEM_EXACT_MASS>
527.23263824
> <PUBCHEM_MOLECULAR_FORMULA>
C20H37N3O13
> <PUBCHEM_MOLECULAR_WEIGHT>
527.5
> <PUBCHEM_OPENEYE_CAN_SMILES>
CNC1CC(C(C(C1O)OC2C3C(C(C(O2)CO)O)OC4(O3)C(C(C(C(O4)C(CO)N)O)O)O)O)N
> <PUBCHEM_OPENEYE_ISO_SMILES>
CN[C@@H]1C[C@@H]([C@H]([C@@H]([C@H]1O)O[C@H]2[C@@H]3[C@H]([C@H]([C@H](O2)CO)O)OC4(O3)[C@@H]([C@H]([C@H]([C@H](O4)[C@H](CO)N)O)O)O)O)N
> <PUBCHEM_CACTVS_TPSA>
272
> <PUBCHEM_MONOISOTOPIC_WEIGHT>
527.23263824
> <PUBCHEM_TOTAL_CHARGE>
0
> <PUBCHEM_HEAVY_ATOM_COUNT>
36
> <PUBCHEM_ATOM_DEF_STEREO_COUNT>
15
> <PUBCHEM_ATOM_UDEF_STEREO_COUNT>
1
> <PUBCHEM_BOND_DEF_STEREO_COUNT>
0
> <PUBCHEM_BOND_UDEF_STEREO_COUNT>
0
> <PUBCHEM_ISOTOPIC_ATOM_COUNT>
0
> <PUBCHEM_COMPONENT_COUNT>
1
> <PUBCHEM_CACTVS_TAUTO_COUNT>
1
> <PUBCHEM_COORDINATE_TYPE>
1
5
255
> <PUBCHEM_BONDANNOTATIONS>
28  10  6
29  11  6
30  14  5
31  15  5
33  16  5
17  37  6
18  38  6
19  22  3
24  34  5
26  45  6
20  4  5
23  4  5
21  6  5
25  8  5
27  9  5
$$$$
