502961
  -OEChem-10302200282D
 98 97  0     1  0  0  0  0  0999 V2000
    8.5991    1.5000    0.0000 O   0  0  0  0  0  0  0  0  0  0  0  0
   11.1972   -1.0000    0.0000 O   0  0  0  0  0  0  0  0  0  0  0  0
    5.1350    0.5000    0.0000 O   0  0  0  0  0  0  0  0  0  0  0  0
    5.1350    1.5000    0.0000 O   0  0  0  0  0  0  0  0  0  0  0  0
    4.2690   -3.0000    0.0000 O   0  0  0  0  0  0  0  0  0  0  0  0
    6.8671   -5.5000    0.0000 O   0  0  0  0  0  0  0  0  0  0  0  0
    7.7331   -4.0000    0.0000 O   0  0  0  0  0  0  0  0  0  0  0  0
    2.5369   -1.0000    0.0000 O   0  0  0  0  0  0  0  0  0  0  0  0
    3.4030   -2.5000    0.0000 O   0  0  0  0  0  0  0  0  0  0  0  0
    9.4651   -1.0000    0.0000 N   0  0  0  0  0  0  0  0  0  0  0  0
    7.7331    0.0000    0.0000 N   0  0  0  0  0  0  0  0  0  0  0  0
    6.0010   -1.0000    0.0000 N   0  0  0  0  0  0  0  0  0  0  0  0
    6.0010   -3.0000    0.0000 N   0  0  0  0  0  0  0  0  0  0  0  0
   10.3312    0.5000    0.0000 C   0  0  0  0  0  0  0  0  0  0  0  0
    9.4651    0.0000    0.0000 C   0  0  1  0  0  0  0  0  0  0  0  0
   11.1972    1.0000    0.0000 C   0  0  0  0  0  0  0  0  0  0  0  0
   10.8312   -0.3660    0.0000 C   0  0  0  0  0  0  0  0  0  0  0  0
    9.8312    1.3660    0.0000 C   0  0  0  0  0  0  0  0  0  0  0  0
    8.5991    0.5000    0.0000 C   0  0  0  0  0  0  0  0  0  0  0  0
   10.3312   -2.5000    0.0000 C   0  0  0  0  0  0  0  0  0  0  0  0
    6.8671    0.5000    0.0000 C   0  0  3  0  0  0  0  0  0  0  0  0
   10.3312   -1.5000    0.0000 C   0  0  0  0  0  0  0  0  0  0  0  0
    6.8671    1.5000    0.0000 C   0  0  0  0  0  0  0  0  0  0  0  0
   11.1972   -3.0000    0.0000 C   0  0  0  0  0  0  0  0  0  0  0  0
    9.4651   -3.0000    0.0000 C   0  0  0  0  0  0  0  0  0  0  0  0
    6.0010    0.0000    0.0000 C   0  0  0  0  0  0  0  0  0  0  0  0
    5.1350   -1.5000    0.0000 C   0  0  2  0  0  0  0  0  0  0  0  0
    6.0010    2.0000    0.0000 C   0  0  0  0  0  0  0  0  0  0  0  0
    6.0010    3.0000    0.0000 C   0  0  0  0  0  0  0  0  0  0  0  0
   11.1972   -4.0000    0.0000 C   0  0  0  0  0  0  0  0  0  0  0  0
    9.4651   -4.0000    0.0000 C   0  0  0  0  0  0  0  0  0  0  0  0
    5.1350   -4.5000    0.0000 C   0  0  0  0  0  0  0  0  0  0  0  0
    6.0010   -4.0000    0.0000 C   0  0  1  0  0  0  0  0  0  0  0  0
    5.1350   -5.5000    0.0000 C   0  0  0  0  0  0  0  0  0  0  0  0
    5.1350    3.5000    0.0000 C   0  0  0  0  0  0  0  0  0  0  0  0
    5.1350   -2.5000    0.0000 C   0  0  0  0  0  0  0  0  0  0  0  0
    4.2690   -1.0000    0.0000 C   0  0  0  0  0  0  0  0  0  0  0  0
    5.1350    4.5000    0.0000 C   0  0  0  0  0  0  0  0  0  0  0  0
    4.2690   -6.0000    0.0000 C   0  0  0  0  0  0  0  0  0  0  0  0
    6.0010   -6.0000    0.0000 C   0  0  0  0  0  0  0  0  0  0  0  0
    4.2690    5.0000    0.0000 C   0  0  0  0  0  0  0  0  0  0  0  0
    6.8671   -4.5000    0.0000 C   0  0  0  0  0  0  0  0  0  0  0  0
    3.4030   -1.5000    0.0000 C   0  0  0  0  0  0  0  0  0  0  0  0
    4.2690    6.0000    0.0000 C   0  0  0  0  0  0  0  0  0  0  0  0
   10.0021   -0.3100    0.0000 H   0  0  0  0  0  0  0  0  0  0  0  0
   11.5072    0.4631    0.0000 H   0  0  0  0  0  0  0  0  0  0  0  0
   11.7341    1.3100    0.0000 H   0  0  0  0  0  0  0  0  0  0  0  0
   10.8872    1.5369    0.0000 H   0  0  0  0  0  0  0  0  0  0  0  0
   10.2942   -0.6760    0.0000 H   0  0  0  0  0  0  0  0  0  0  0  0
   11.1412   -0.9030    0.0000 H   0  0  0  0  0  0  0  0  0  0  0  0
   11.3681   -0.0560    0.0000 H   0  0  0  0  0  0  0  0  0  0  0  0
   10.3681    1.6760    0.0000 H   0  0  0  0  0  0  0  0  0  0  0  0
    9.5212    1.9030    0.0000 H   0  0  0  0  0  0  0  0  0  0  0  0
    9.2942    1.0560    0.0000 H   0  0  0  0  0  0  0  0  0  0  0  0
    8.9282   -1.3100    0.0000 H   0  0  0  0  0  0  0  0  0  0  0  0
   10.8681   -2.1900    0.0000 H   0  0  0  0  0  0  0  0  0  0  0  0
    7.4040    0.8100    0.0000 H   0  0  0  0  0  0  0  0  0  0  0  0
    7.7331   -0.6200    0.0000 H   0  0  0  0  0  0  0  0  0  0  0  0
    7.4776    1.3923    0.0000 H   0  0  0  0  0  0  0  0  0  0  0  0
    7.0791    2.0826    0.0000 H   0  0  0  0  0  0  0  0  0  0  0  0
   11.8078   -3.1077    0.0000 H   0  0  0  0  0  0  0  0  0  0  0  0
   11.4092   -2.4174    0.0000 H   0  0  0  0  0  0  0  0  0  0  0  0
    9.2531   -2.4174    0.0000 H   0  0  0  0  0  0  0  0  0  0  0  0
    8.8546   -3.1077    0.0000 H   0  0  0  0  0  0  0  0  0  0  0  0
    5.1350   -0.8800    0.0000 H   0  0  0  0  0  0  0  0  0  0  0  0
    6.5380   -1.3100    0.0000 H   0  0  0  0  0  0  0  0  0  0  0  0
    6.6116    2.8923    0.0000 H   0  0  0  0  0  0  0  0  0  0  0  0
    6.2131    3.5826    0.0000 H   0  0  0  0  0  0  0  0  0  0  0  0
    4.9230   -3.9174    0.0000 H   0  0  0  0  0  0  0  0  0  0  0  0
    4.5244   -4.6077    0.0000 H   0  0  0  0  0  0  0  0  0  0  0  0
   10.5772   -4.0000    0.0000 H   0  0  0  0  0  0  0  0  0  0  0  0
   11.1972   -4.6200    0.0000 H   0  0  0  0  0  0  0  0  0  0  0  0
   11.8172   -4.0000    0.0000 H   0  0  0  0  0  0  0  0  0  0  0  0
    8.8451   -4.0000    0.0000 H   0  0  0  0  0  0  0  0  0  0  0  0
    9.4651   -4.6200    0.0000 H   0  0  0  0  0  0  0  0  0  0  0  0
   10.0851   -4.0000    0.0000 H   0  0  0  0  0  0  0  0  0  0  0  0
    6.5380   -3.6900    0.0000 H   0  0  0  0  0  0  0  0  0  0  0  0
    5.1350   -6.1200    0.0000 H   0  0  0  0  0  0  0  0  0  0  0  0
    4.5244    3.6077    0.0000 H   0  0  0  0  0  0  0  0  0  0  0  0
    4.9230    2.9174    0.0000 H   0  0  0  0  0  0  0  0  0  0  0  0
    4.6675   -0.5251    0.0000 H   0  0  0  0  0  0  0  0  0  0  0  0
    3.8705   -0.5251    0.0000 H   0  0  0  0  0  0  0  0  0  0  0  0
    6.5380   -2.6900    0.0000 H   0  0  0  0  0  0  0  0  0  0  0  0
    5.7456    4.3923    0.0000 H   0  0  0  0  0  0  0  0  0  0  0  0
    5.3471    5.0826    0.0000 H   0  0  0  0  0  0  0  0  0  0  0  0
    3.9590   -5.4631    0.0000 H   0  0  0  0  0  0  0  0  0  0  0  0
    3.7320   -6.3100    0.0000 H   0  0  0  0  0  0  0  0  0  0  0  0
    4.5790   -6.5369    0.0000 H   0  0  0  0  0  0  0  0  0  0  0  0
    5.6910   -6.5369    0.0000 H   0  0  0  0  0  0  0  0  0  0  0  0
    6.5380   -6.3100    0.0000 H   0  0  0  0  0  0  0  0  0  0  0  0
    6.3110   -5.4631    0.0000 H   0  0  0  0  0  0  0  0  0  0  0  0
    3.6584    5.1077    0.0000 H   0  0  0  0  0  0  0  0  0  0  0  0
    4.0569    4.4174    0.0000 H   0  0  0  0  0  0  0  0  0  0  0  0
    4.8890    6.0000    0.0000 H   0  0  0  0  0  0  0  0  0  0  0  0
    4.2690    6.6200    0.0000 H   0  0  0  0  0  0  0  0  0  0  0  0
    3.6490    6.0000    0.0000 H   0  0  0  0  0  0  0  0  0  0  0  0
    7.4040   -5.8100    0.0000 H   0  0  0  0  0  0  0  0  0  0  0  0
    2.0000   -1.3100    0.0000 H   0  0  0  0  0  0  0  0  0  0  0  0
  1 19  2  0  0  0  0
  2 22  2  0  0  0  0
  3 26  2  0  0  0  0
  4 28  2  0  0  0  0
  5 36  2  0  0  0  0
  6 42  1  0  0  0  0
  6 97  1  0  0  0  0
  7 42  2  0  0  0  0
  8 43  1  0  0  0  0
  8 98  1  0  0  0  0
  9 43  2  0  0  0  0
 15 10  1  6  0  0  0
 10 22  1  0  0  0  0
 10 55  1  0  0  0  0
 11 19  1  0  0  0  0
 11 21  1  0  0  0  0
 11 58  1  0  0  0  0
 12 26  1  0  0  0  0
 27 12  1  6  0  0  0
 12 66  1  0  0  0  0
 33 13  1  6  0  0  0
 13 36  1  0  0  0  0
 13 83  1  0  0  0  0
 14 15  1  0  0  0  0
 14 16  1  0  0  0  0
 14 17  1  0  0  0  0
 14 18  1  0  0  0  0
 15 19  1  0  0  0  0
 15 45  1  0  0  0  0
 16 46  1  0  0  0  0
 16 47  1  0  0  0  0
 16 48  1  0  0  0  0
 17 49  1  0  0  0  0
 17 50  1  0  0  0  0
 17 51  1  0  0  0  0
 18 52  1  0  0  0  0
 18 53  1  0  0  0  0
 18 54  1  0  0  0  0
 20 22  1  0  0  0  0
 20 24  1  0  0  0  0
 20 25  1  0  0  0  0
 20 56  1  0  0  0  0
 21 23  1  0  0  0  0
 21 26  1  0  0  0  0
 21 57  1  0  0  0  0
 23 28  1  0  0  0  0
 23 59  1  0  0  0  0
 23 60  1  0  0  0  0
 24 30  1  0  0  0  0
 24 61  1  0  0  0  0
 24 62  1  0  0  0  0
 25 31  1  0  0  0  0
 25 63  1  0  0  0  0
 25 64  1  0  0  0  0
 27 36  1  0  0  0  0
 27 37  1  0  0  0  0
 27 65  1  0  0  0  0
 28 29  1  0  0  0  0
 29 35  1  0  0  0  0
 29 67  1  0  0  0  0
 29 68  1  0  0  0  0
 30 71  1  0  0  0  0
 30 72  1  0  0  0  0
 30 73  1  0  0  0  0
 31 74  1  0  0  0  0
 31 75  1  0  0  0  0
 31 76  1  0  0  0  0
 32 33  1  0  0  0  0
 32 34  1  0  0  0  0
 32 69  1  0  0  0  0
 32 70  1  0  0  0  0
 33 42  1  0  0  0  0
 33 77  1  0  0  0  0
 34 39  1  0  0  0  0
 34 40  1  0  0  0  0
 34 78  1  0  0  0  0
 35 38  1  0  0  0  0
 35 79  1  0  0  0  0
 35 80  1  0  0  0  0
 37 43  1  0  0  0  0
 37 81  1  0  0  0  0
 37 82  1  0  0  0  0
 38 41  1  0  0  0  0
 38 84  1  0  0  0  0
 38 85  1  0  0  0  0
 39 86  1  0  0  0  0
 39 87  1  0  0  0  0
 39 88  1  0  0  0  0
 40 89  1  0  0  0  0
 40 90  1  0  0  0  0
 40 91  1  0  0  0  0
 41 44  1  0  0  0  0
 41 92  1  0  0  0  0
 41 93  1  0  0  0  0
 44 94  1  0  0  0  0
 44 95  1  0  0  0  0
 44 96  1  0  0  0  0
M  END
> <PUBCHEM_COMPOUND_CID>
502961
> <PUBCHEM_COMPOUND_CANONICALIZED>
1
> <PUBCHEM_CACTVS_COMPLEXITY>
1000
> <PUBCHEM_CACTVS_HBOND_ACCEPTOR>
9
> <PUBCHEM_CACTVS_HBOND_DONOR>
6
> <PUBCHEM_CACTVS_ROTATABLE_BOND>
22
> <PUBCHEM_CACTVS_SUBSKEYS>
AAADcfB7vAAAAAAAAAAAAAAAAAAAAAAAAAAAAAAAAAAAAAAAAAAAHgAQCAAADyzBgAQCCALAAgAIAIGQGAAAAAAAAAAAAIGIAAACQBoAgCAUQAAGFgCQAAG/iICPAAAAAAAAAAAAAAAAAAAAAAAAAAAAAA==
> <PUBCHEM_IUPAC_OPENEYE_NAME>
(2S)-2-[[(2S)-3-carboxy-2-[[2-[[(2S)-2-(2-ethylbutanoylamino)-3,3-dimethyl-butanoyl]amino]-4-oxo-nonanoyl]amino]propanoyl]amino]-4-methyl-pentanoic acid
> <PUBCHEM_IUPAC_CAS_NAME>
(2S)-2-[[(2S)-3-carboxy-2-[[2-[[(2S)-2-[(2-ethyl-1-oxobutyl)amino]-3,3-dimethyl-1-oxobutyl]amino]-1,4-dioxononyl]amino]-1-oxopropyl]amino]-4-methylpentanoic acid
> <PUBCHEM_IUPAC_NAME_MARKUP>
(2<I>S</I>)-2-[[(2<I>S</I>)-3-carboxy-2-[[2-[[(2<I>S</I>)-2-(2-ethylbutanoylamino)-3,3-dimethylbutanoyl]amino]-4-oxononanoyl]amino]propanoyl]amino]-4-methylpentanoic acid
> <PUBCHEM_IUPAC_NAME>
(2S)-2-[[(2S)-3-carboxy-2-[[2-[[(2S)-2-(2-ethylbutanoylamino)-3,3-dimethylbutanoyl]amino]-4-oxononanoyl]amino]propanoyl]amino]-4-methylpentanoic acid
> <PUBCHEM_IUPAC_SYSTEMATIC_NAME>
(2S)-2-[[(2S)-2-[[2-[[(2S)-2-(2-ethylbutanoylamino)-3,3-dimethyl-butanoyl]amino]-4-oxidanylidene-nonanoyl]amino]-4-oxidanyl-4-oxidanylidene-butanoyl]amino]-4-methyl-pentanoic acid
> <PUBCHEM_IUPAC_TRADITIONAL_NAME>
(2S)-2-[[(2S)-3-carboxy-2-[[2-[[(2S)-2-(2-ethylbutanoylamino)-3,3-dimethyl-butanoyl]amino]-4-keto-nonanoyl]amino]propanoyl]amino]-4-methyl-valeric acid
> <PUBCHEM_IUPAC_INCHI>
InChI=1S/C31H54N4O9/c1-9-12-13-14-20(36)16-21(33-29(42)25(31(6,7)8)35-26(39)19(10-2)11-3)27(40)32-22(17-24(37)38)28(41)34-23(30(43)44)15-18(4)5/h18-19,21-23,25H,9-17H2,1-8H3,(H,32,40)(H,33,42)(H,34,41)(H,35,39)(H,37,38)(H,43,44)/t21?,22-,23-,25+/m0/s1
> <PUBCHEM_IUPAC_INCHIKEY>
DJNZYKVCIKNTKX-IVXNLOMBSA-N
> <PUBCHEM_XLOGP3_AA>
3.5
> <PUBCHEM_EXACT_MASS>
626.38907931
> <PUBCHEM_MOLECULAR_FORMULA>
C31H54N4O9
> <PUBCHEM_MOLECULAR_WEIGHT>
626.8
> <PUBCHEM_OPENEYE_CAN_SMILES>
CCCCCC(=O)CC(C(=O)NC(CC(=O)O)C(=O)NC(CC(C)C)C(=O)O)NC(=O)C(C(C)(C)C)NC(=O)C(CC)CC
> <PUBCHEM_OPENEYE_ISO_SMILES>
CCCCCC(=O)CC(C(=O)N[C@@H](CC(=O)O)C(=O)N[C@@H](CC(C)C)C(=O)O)NC(=O)[C@H](C(C)(C)C)NC(=O)C(CC)CC
> <PUBCHEM_CACTVS_TPSA>
208
> <PUBCHEM_MONOISOTOPIC_WEIGHT>
626.38907931
> <PUBCHEM_TOTAL_CHARGE>
0
> <PUBCHEM_HEAVY_ATOM_COUNT>
44
> <PUBCHEM_ATOM_DEF_STEREO_COUNT>
3
> <PUBCHEM_ATOM_UDEF_STEREO_COUNT>
1
> <PUBCHEM_BOND_DEF_STEREO_COUNT>
0
> <PUBCHEM_BOND_UDEF_STEREO_COUNT>
0
> <PUBCHEM_ISOTOPIC_ATOM_COUNT>
0
> <PUBCHEM_COMPONENT_COUNT>
1
> <PUBCHEM_CACTVS_TAUTO_COUNT>
-1
> <PUBCHEM_COORDINATE_TYPE>
1
5
255
> <PUBCHEM_BONDANNOTATIONS>
15  10  6
27  12  6
33  13  6
21  23  3
$$$$
