502988
  -OEChem-10302200282D
118118  0     1  0  0  0  0  0999 V2000
    6.3301    3.5670    0.0000 O   0  0  0  0  0  0  0  0  0  0  0  0
    5.4641    0.0670    0.0000 O   0  0  0  0  0  0  0  0  0  0  0  0
    3.7320    6.0670    0.0000 O   0  0  0  0  0  0  0  0  0  0  0  0
    2.8660    4.5670    0.0000 O   0  0  0  0  0  0  0  0  0  0  0  0
    8.0622   -2.4330    0.0000 O   0  0  0  0  0  0  0  0  0  0  0  0
   11.5263   -1.4330    0.0000 O   0  0  0  0  0  0  0  0  0  0  0  0
    7.1962   -2.9330    0.0000 O   0  0  0  0  0  0  0  0  0  0  0  0
   12.3923    2.0670    0.0000 O   0  0  0  0  0  0  0  0  0  0  0  0
   10.6603    2.0670    0.0000 O   0  0  0  0  0  0  0  0  0  0  0  0
   10.6603   -3.9330    0.0000 O   0  0  0  0  0  0  0  0  0  0  0  0
   11.5263   -2.4330    0.0000 O   0  0  0  0  0  0  0  0  0  0  0  0
    5.4641    2.0670    0.0000 N   0  0  0  0  0  0  0  0  0  0  0  0
    4.5981    4.5670    0.0000 N   0  0  0  0  0  0  0  0  0  0  0  0
    7.1962    0.0670    0.0000 N   0  0  0  0  0  0  0  0  0  0  0  0
    8.9282   -0.9330    0.0000 N   0  0  0  0  0  0  0  0  0  0  0  0
   10.6603    0.0670    0.0000 N   0  0  0  0  0  0  0  0  0  0  0  0
    5.4641   -2.9330    0.0000 N   0  0  0  0  0  0  0  0  0  0  0  0
    7.1962    2.0670    0.0000 C   0  0  2  0  0  0  0  0  0  0  0  0
    6.3301    1.5670    0.0000 C   0  0  1  0  0  0  0  0  0  0  0  0
    4.5981    3.5670    0.0000 C   0  0  1  0  0  0  0  0  0  0  0  0
    3.7320    3.0670    0.0000 C   0  0  0  0  0  0  0  0  0  0  0  0
    7.1962    3.0670    0.0000 C   0  0  0  0  0  0  0  0  0  0  0  0
    5.4641    3.0670    0.0000 C   0  0  0  0  0  0  0  0  0  0  0  0
    6.3301    0.5670    0.0000 C   0  0  0  0  0  0  0  0  0  0  0  0
    8.0622    1.5670    0.0000 C   0  0  0  0  0  0  0  0  0  0  0  0
    7.1962   -0.9330    0.0000 C   0  0  1  0  0  0  0  0  0  0  0  0
    2.8660    3.5670    0.0000 C   0  0  0  0  0  0  0  0  0  0  0  0
    3.7320    2.0670    0.0000 C   0  0  0  0  0  0  0  0  0  0  0  0
    8.0622    3.5670    0.0000 C   0  0  0  0  0  0  0  0  0  0  0  0
    6.3301   -1.4330    0.0000 C   0  0  0  0  0  0  0  0  0  0  0  0
    5.4641    5.0670    0.0000 C   0  0  0  0  0  0  0  0  0  0  0  0
    3.7320    5.0670    0.0000 C   0  0  0  0  0  0  0  0  0  0  0  0
    8.0622   -1.4330    0.0000 C   0  0  0  0  0  0  0  0  0  0  0  0
    9.7942   -1.4330    0.0000 C   0  0  2  0  0  0  0  0  0  0  0  0
   12.3923    0.0670    0.0000 C   0  0  0  0  0  0  0  0  0  0  0  0
   11.5263    0.5670    0.0000 C   0  0  1  0  0  0  0  0  0  0  0  0
   13.2583    0.5670    0.0000 C   0  0  0  0  0  0  0  0  0  0  0  0
    2.8660    6.5670    0.0000 C   0  0  0  0  0  0  0  0  0  0  0  0
   10.6603   -0.9330    0.0000 C   0  0  0  0  0  0  0  0  0  0  0  0
    6.3301   -2.4330    0.0000 C   0  0  0  0  0  0  0  0  0  0  0  0
    9.7942   -2.4330    0.0000 C   0  0  0  0  0  0  0  0  0  0  0  0
   14.1244    0.0670    0.0000 C   0  0  0  0  0  0  0  0  0  0  0  0
   13.2583    1.5670    0.0000 C   0  0  0  0  0  0  0  0  0  0  0  0
    2.0000    7.0670    0.0000 C   0  0  0  0  0  0  0  0  0  0  0  0
    3.3660    7.4330    0.0000 C   0  0  0  0  0  0  0  0  0  0  0  0
    2.3660    5.7010    0.0000 C   0  0  0  0  0  0  0  0  0  0  0  0
   11.5263    1.5670    0.0000 C   0  0  0  0  0  0  0  0  0  0  0  0
    5.4641   -3.9330    0.0000 C   0  0  0  0  0  0  0  0  0  0  0  0
   10.6603   -2.9330    0.0000 C   0  0  0  0  0  0  0  0  0  0  0  0
    4.5981   -4.4330    0.0000 C   0  0  0  0  0  0  0  0  0  0  0  0
    4.5981   -5.4330    0.0000 C   0  0  0  0  0  0  0  0  0  0  0  0
    5.4641   -5.9330    0.0000 C   0  0  0  0  0  0  0  0  0  0  0  0
    3.7320   -5.9330    0.0000 C   0  0  0  0  0  0  0  0  0  0  0  0
    5.4641   -6.9330    0.0000 C   0  0  0  0  0  0  0  0  0  0  0  0
    3.7320   -6.9330    0.0000 C   0  0  0  0  0  0  0  0  0  0  0  0
    4.5981   -7.4330    0.0000 C   0  0  0  0  0  0  0  0  0  0  0  0
    7.7331    2.3770    0.0000 H   0  0  0  0  0  0  0  0  0  0  0  0
    5.7932    1.2570    0.0000 H   0  0  0  0  0  0  0  0  0  0  0  0
    5.1350    3.8770    0.0000 H   0  0  0  0  0  0  0  0  0  0  0  0
    3.7320    3.6870    0.0000 H   0  0  0  0  0  0  0  0  0  0  0  0
    6.9841    3.6496    0.0000 H   0  0  0  0  0  0  0  0  0  0  0  0
    6.5856    2.9593    0.0000 H   0  0  0  0  0  0  0  0  0  0  0  0
    4.9272    1.7570    0.0000 H   0  0  0  0  0  0  0  0  0  0  0  0
    7.7522    1.0300    0.0000 H   0  0  0  0  0  0  0  0  0  0  0  0
    8.5991    1.2570    0.0000 H   0  0  0  0  0  0  0  0  0  0  0  0
    8.3722    2.1039    0.0000 H   0  0  0  0  0  0  0  0  0  0  0  0
    6.6592   -0.6230    0.0000 H   0  0  0  0  0  0  0  0  0  0  0  0
    7.7331    0.3770    0.0000 H   0  0  0  0  0  0  0  0  0  0  0  0
    3.1760    4.1039    0.0000 H   0  0  0  0  0  0  0  0  0  0  0  0
    2.3291    3.8770    0.0000 H   0  0  0  0  0  0  0  0  0  0  0  0
    2.5560    3.0300    0.0000 H   0  0  0  0  0  0  0  0  0  0  0  0
    3.1120    2.0670    0.0000 H   0  0  0  0  0  0  0  0  0  0  0  0
    3.7320    1.4470    0.0000 H   0  0  0  0  0  0  0  0  0  0  0  0
    4.3520    2.0670    0.0000 H   0  0  0  0  0  0  0  0  0  0  0  0
    8.3722    3.0300    0.0000 H   0  0  0  0  0  0  0  0  0  0  0  0
    8.5991    3.8770    0.0000 H   0  0  0  0  0  0  0  0  0  0  0  0
    7.7522    4.1039    0.0000 H   0  0  0  0  0  0  0  0  0  0  0  0
    6.1181   -0.8504    0.0000 H   0  0  0  0  0  0  0  0  0  0  0  0
    5.7196   -1.5407    0.0000 H   0  0  0  0  0  0  0  0  0  0  0  0
    5.7741    4.5300    0.0000 H   0  0  0  0  0  0  0  0  0  0  0  0
    6.0010    5.3770    0.0000 H   0  0  0  0  0  0  0  0  0  0  0  0
    5.1541    5.6039    0.0000 H   0  0  0  0  0  0  0  0  0  0  0  0
    9.2573   -1.7430    0.0000 H   0  0  0  0  0  0  0  0  0  0  0  0
   11.9938   -0.4080    0.0000 H   0  0  0  0  0  0  0  0  0  0  0  0
   12.7908   -0.4080    0.0000 H   0  0  0  0  0  0  0  0  0  0  0  0
   10.9893    0.8770    0.0000 H   0  0  0  0  0  0  0  0  0  0  0  0
    8.9282   -0.3130    0.0000 H   0  0  0  0  0  0  0  0  0  0  0  0
   13.7953    0.8770    0.0000 H   0  0  0  0  0  0  0  0  0  0  0  0
   10.1233    0.3770    0.0000 H   0  0  0  0  0  0  0  0  0  0  0  0
    9.1836   -2.3253    0.0000 H   0  0  0  0  0  0  0  0  0  0  0  0
    9.5822   -3.0156    0.0000 H   0  0  0  0  0  0  0  0  0  0  0  0
   13.8144   -0.4699    0.0000 H   0  0  0  0  0  0  0  0  0  0  0  0
   14.6613   -0.2430    0.0000 H   0  0  0  0  0  0  0  0  0  0  0  0
   14.4344    0.6039    0.0000 H   0  0  0  0  0  0  0  0  0  0  0  0
   13.8783    1.5670    0.0000 H   0  0  0  0  0  0  0  0  0  0  0  0
   13.2583    2.1870    0.0000 H   0  0  0  0  0  0  0  0  0  0  0  0
   12.6383    1.5670    0.0000 H   0  0  0  0  0  0  0  0  0  0  0  0
    2.3100    7.6039    0.0000 H   0  0  0  0  0  0  0  0  0  0  0  0
    1.4631    7.3770    0.0000 H   0  0  0  0  0  0  0  0  0  0  0  0
    1.6900    6.5300    0.0000 H   0  0  0  0  0  0  0  0  0  0  0  0
    3.9030    7.1230    0.0000 H   0  0  0  0  0  0  0  0  0  0  0  0
    3.6760    7.9700    0.0000 H   0  0  0  0  0  0  0  0  0  0  0  0
    2.8291    7.7430    0.0000 H   0  0  0  0  0  0  0  0  0  0  0  0
    1.8291    6.0110    0.0000 H   0  0  0  0  0  0  0  0  0  0  0  0
    2.0560    5.1640    0.0000 H   0  0  0  0  0  0  0  0  0  0  0  0
    2.9030    5.3910    0.0000 H   0  0  0  0  0  0  0  0  0  0  0  0
    4.9272   -2.6230    0.0000 H   0  0  0  0  0  0  0  0  0  0  0  0
    5.6762   -4.5156    0.0000 H   0  0  0  0  0  0  0  0  0  0  0  0
    6.0747   -3.8254    0.0000 H   0  0  0  0  0  0  0  0  0  0  0  0
    4.3860   -3.8504    0.0000 H   0  0  0  0  0  0  0  0  0  0  0  0
    3.9875   -4.5407    0.0000 H   0  0  0  0  0  0  0  0  0  0  0  0
   12.3923    2.6870    0.0000 H   0  0  0  0  0  0  0  0  0  0  0  0
   11.1972   -4.2430    0.0000 H   0  0  0  0  0  0  0  0  0  0  0  0
    6.0010   -5.6230    0.0000 H   0  0  0  0  0  0  0  0  0  0  0  0
    3.1951   -5.6230    0.0000 H   0  0  0  0  0  0  0  0  0  0  0  0
    6.0010   -7.2430    0.0000 H   0  0  0  0  0  0  0  0  0  0  0  0
    3.1951   -7.2430    0.0000 H   0  0  0  0  0  0  0  0  0  0  0  0
    4.5981   -8.0530    0.0000 H   0  0  0  0  0  0  0  0  0  0  0  0
  1 23  2  0  0  0  0
  2 24  2  0  0  0  0
  3 32  1  0  0  0  0
  3 38  1  0  0  0  0
  4 32  2  0  0  0  0
  5 33  2  0  0  0  0
  6 39  2  0  0  0  0
  7 40  2  0  0  0  0
  8 47  1  0  0  0  0
  8112  1  0  0  0  0
  9 47  2  0  0  0  0
 10 49  1  0  0  0  0
 10113  1  0  0  0  0
 11 49  2  0  0  0  0
 19 12  1  1  0  0  0
 12 23  1  0  0  0  0
 12 63  1  0  0  0  0
 20 13  1  6  0  0  0
 13 31  1  0  0  0  0
 13 32  1  0  0  0  0
 14 24  1  0  0  0  0
 26 14  1  6  0  0  0
 14 68  1  0  0  0  0
 15 33  1  0  0  0  0
 34 15  1  6  0  0  0
 15 87  1  0  0  0  0
 36 16  1  6  0  0  0
 16 39  1  0  0  0  0
 16 89  1  0  0  0  0
 17 40  1  0  0  0  0
 17 48  1  0  0  0  0
 17107  1  0  0  0  0
 18 19  1  0  0  0  0
 18 22  1  0  0  0  0
 18 25  1  6  0  0  0
 18 57  1  0  0  0  0
 19 24  1  0  0  0  0
 19 58  1  0  0  0  0
 20 21  1  0  0  0  0
 20 23  1  0  0  0  0
 20 59  1  0  0  0  0
 21 27  1  0  0  0  0
 21 28  1  0  0  0  0
 21 60  1  0  0  0  0
 22 29  1  0  0  0  0
 22 61  1  0  0  0  0
 22 62  1  0  0  0  0
 25 64  1  0  0  0  0
 25 65  1  0  0  0  0
 25 66  1  0  0  0  0
 26 30  1  0  0  0  0
 26 33  1  0  0  0  0
 26 67  1  0  0  0  0
 27 69  1  0  0  0  0
 27 70  1  0  0  0  0
 27 71  1  0  0  0  0
 28 72  1  0  0  0  0
 28 73  1  0  0  0  0
 28 74  1  0  0  0  0
 29 75  1  0  0  0  0
 29 76  1  0  0  0  0
 29 77  1  0  0  0  0
 30 40  1  0  0  0  0
 30 78  1  0  0  0  0
 30 79  1  0  0  0  0
 31 80  1  0  0  0  0
 31 81  1  0  0  0  0
 31 82  1  0  0  0  0
 34 39  1  0  0  0  0
 34 41  1  0  0  0  0
 34 83  1  0  0  0  0
 35 36  1  0  0  0  0
 35 37  1  0  0  0  0
 35 84  1  0  0  0  0
 35 85  1  0  0  0  0
 36 47  1  0  0  0  0
 36 86  1  0  0  0  0
 37 42  1  0  0  0  0
 37 43  1  0  0  0  0
 37 88  1  0  0  0  0
 38 44  1  0  0  0  0
 38 45  1  0  0  0  0
 38 46  1  0  0  0  0
 41 49  1  0  0  0  0
 41 90  1  0  0  0  0
 41 91  1  0  0  0  0
 42 92  1  0  0  0  0
 42 93  1  0  0  0  0
 42 94  1  0  0  0  0
 43 95  1  0  0  0  0
 43 96  1  0  0  0  0
 43 97  1  0  0  0  0
 44 98  1  0  0  0  0
 44 99  1  0  0  0  0
 44100  1  0  0  0  0
 45101  1  0  0  0  0
 45102  1  0  0  0  0
 45103  1  0  0  0  0
 46104  1  0  0  0  0
 46105  1  0  0  0  0
 46106  1  0  0  0  0
 48 50  1  0  0  0  0
 48108  1  0  0  0  0
 48109  1  0  0  0  0
 50 51  1  0  0  0  0
 50110  1  0  0  0  0
 50111  1  0  0  0  0
 51 52  2  0  0  0  0
 51 53  1  0  0  0  0
 52 54  1  0  0  0  0
 52114  1  0  0  0  0
 53 55  2  0  0  0  0
 53115  1  0  0  0  0
 54 56  2  0  0  0  0
 54116  1  0  0  0  0
 55 56  1  0  0  0  0
 55117  1  0  0  0  0
 56118  1  0  0  0  0
M  END
> <PUBCHEM_COMPOUND_CID>
502988
> <PUBCHEM_COMPOUND_CANONICALIZED>
1
> <PUBCHEM_CACTVS_COMPLEXITY>
1360
> <PUBCHEM_CACTVS_HBOND_ACCEPTOR>
11
> <PUBCHEM_CACTVS_HBOND_DONOR>
7
> <PUBCHEM_CACTVS_ROTATABLE_BOND>
24
> <PUBCHEM_CACTVS_SUBSKEYS>
AAADcfB/vAAAAAAAAAAAAAAAAAAAAAAAAAAwAAAAAAAAAAABAAAAHgAQCAAADWzBmAQyCIPABgCIAiHSGAACAAAgAAAIiIGIAIgKYDqA0TGcYAAmlgCYiAe/gIAOAAAAAAAAAAAAAAAAAAAAAAAAAAAAAA==
> <PUBCHEM_IUPAC_OPENEYE_NAME>
(2S)-2-[[(2S)-2-[[(2S)-2-[[(2S,3S)-2-[[(2S)-2-[tert-butoxycarbonyl(methyl)amino]-3-methyl-butanoyl]amino]-3-methyl-pentanoyl]amino]-4-oxo-4-(2-phenylethylamino)butanoyl]amino]-3-carboxy-propanoyl]amino]-4-methyl-pentanoic acid
> <PUBCHEM_IUPAC_CAS_NAME>
(2S)-2-[[(2S)-3-carboxy-2-[[(2S)-2-[[(2S,3S)-3-methyl-2-[[(2S)-3-methyl-2-[methyl-[(2-methylpropan-2-yl)oxy-oxomethyl]amino]-1-oxobutyl]amino]-1-oxopentyl]amino]-1,4-dioxo-4-(2-phenylethylamino)butyl]amino]-1-oxopropyl]amino]-4-methylpentanoic acid
> <PUBCHEM_IUPAC_NAME_MARKUP>
(2<I>S</I>)-2-[[(2<I>S</I>)-3-carboxy-2-[[(2<I>S</I>)-2-[[(2<I>S</I>,3<I>S</I>)-3-methyl-2-[[(2<I>S</I>)-3-methyl-2-[methyl-[(2-methylpropan-2-yl)oxycarbonyl]amino]butanoyl]amino]pentanoyl]amino]-4-oxo-4-(2-phenylethylamino)butanoyl]amino]propanoyl]amino]-4-methylpentanoic acid
> <PUBCHEM_IUPAC_NAME>
(2S)-2-[[(2S)-3-carboxy-2-[[(2S)-2-[[(2S,3S)-3-methyl-2-[[(2S)-3-methyl-2-[methyl-[(2-methylpropan-2-yl)oxycarbonyl]amino]butanoyl]amino]pentanoyl]amino]-4-oxo-4-(2-phenylethylamino)butanoyl]amino]propanoyl]amino]-4-methylpentanoic acid
> <PUBCHEM_IUPAC_SYSTEMATIC_NAME>
(2S)-4-methyl-2-[[(2S)-2-[[(2S)-2-[[(2S,3S)-3-methyl-2-[[(2S)-3-methyl-2-[methyl-[(2-methylpropan-2-yl)oxycarbonyl]amino]butanoyl]amino]pentanoyl]amino]-4-oxidanylidene-4-(2-phenylethylamino)butanoyl]amino]-4-oxidanyl-4-oxidanylidene-butanoyl]amino]pentanoic acid
> <PUBCHEM_IUPAC_TRADITIONAL_NAME>
(2S)-2-[[(2S)-2-[[(2S)-2-[[(2S,3S)-2-[[(2S)-2-[tert-butoxycarbonyl(methyl)amino]-3-methyl-butanoyl]amino]-3-methyl-pentanoyl]amino]-4-keto-4-(phenethylamino)butanoyl]amino]-3-carboxy-propanoyl]amino]-4-methyl-valeric acid
> <PUBCHEM_IUPAC_INCHI>
InChI=1S/C39H62N6O11/c1-11-24(6)31(44-36(52)32(23(4)5)45(10)38(55)56-39(7,8)9)35(51)42-26(20-29(46)40-18-17-25-15-13-12-14-16-25)33(49)41-27(21-30(47)48)34(50)43-28(37(53)54)19-22(2)3/h12-16,22-24,26-28,31-32H,11,17-21H2,1-10H3,(H,40,46)(H,41,49)(H,42,51)(H,43,50)(H,44,52)(H,47,48)(H,53,54)/t24-,26-,27-,28-,31-,32-/m0/s1
> <PUBCHEM_IUPAC_INCHIKEY>
BWQFQIGGNVOVTB-JMIRHWPHSA-N
> <PUBCHEM_XLOGP3_AA>
3.7
> <PUBCHEM_EXACT_MASS>
790.44765682
> <PUBCHEM_MOLECULAR_FORMULA>
C39H62N6O11
> <PUBCHEM_MOLECULAR_WEIGHT>
790.9
> <PUBCHEM_OPENEYE_CAN_SMILES>
CCC(C)C(C(=O)NC(CC(=O)NCCC1=CC=CC=C1)C(=O)NC(CC(=O)O)C(=O)NC(CC(C)C)C(=O)O)NC(=O)C(C(C)C)N(C)C(=O)OC(C)(C)C
> <PUBCHEM_OPENEYE_ISO_SMILES>
CC[C@H](C)[C@@H](C(=O)N[C@@H](CC(=O)NCCC1=CC=CC=C1)C(=O)N[C@@H](CC(=O)O)C(=O)N[C@@H](CC(C)C)C(=O)O)NC(=O)[C@H](C(C)C)N(C)C(=O)OC(C)(C)C
> <PUBCHEM_CACTVS_TPSA>
250
> <PUBCHEM_MONOISOTOPIC_WEIGHT>
790.44765682
> <PUBCHEM_TOTAL_CHARGE>
0
> <PUBCHEM_HEAVY_ATOM_COUNT>
56
> <PUBCHEM_ATOM_DEF_STEREO_COUNT>
6
> <PUBCHEM_ATOM_UDEF_STEREO_COUNT>
0
> <PUBCHEM_BOND_DEF_STEREO_COUNT>
0
> <PUBCHEM_BOND_UDEF_STEREO_COUNT>
0
> <PUBCHEM_ISOTOPIC_ATOM_COUNT>
0
> <PUBCHEM_COMPONENT_COUNT>
1
> <PUBCHEM_CACTVS_TAUTO_COUNT>
-1
> <PUBCHEM_COORDINATE_TYPE>
1
5
255
> <PUBCHEM_BONDANNOTATIONS>
19  12  5
20  13  6
26  14  6
34  15  6
36  16  6
18  25  6
51  52  8
51  53  8
52  54  8
53  55  8
54  56  8
55  56  8
$$$$
