502963
  -OEChem-10302200282D
110109  0     1  0  0  0  0  0999 V2000
    5.4641   -2.5000    0.0000 O   0  0  0  0  0  0  0  0  0  0  0  0
    6.3301   -2.0000    0.0000 O   0  0  0  0  0  0  0  0  0  0  0  0
    2.0000   -3.5000    0.0000 O   0  0  0  0  0  0  0  0  0  0  0  0
    7.1962   -2.5000    0.0000 O   0  0  0  0  0  0  0  0  0  0  0  0
    9.7942    1.0000    0.0000 O   0  0  0  0  0  0  0  0  0  0  0  0
   10.6603   -0.5000    0.0000 O   0  0  0  0  0  0  0  0  0  0  0  0
    3.7320    0.5000    0.0000 O   0  0  0  0  0  0  0  0  0  0  0  0
    9.7942   -5.0000    0.0000 O   0  0  0  0  0  0  0  0  0  0  0  0
   10.6603   -3.5000    0.0000 O   0  0  0  0  0  0  0  0  0  0  0  0
    3.7320   -3.5000    0.0000 N   0  0  0  0  0  0  0  0  0  0  0  0
    4.5981   -1.0000    0.0000 N   0  0  0  0  0  0  0  0  0  0  0  0
    7.1962   -0.5000    0.0000 N   0  0  0  0  0  0  0  0  0  0  0  0
    8.9282   -2.5000    0.0000 N   0  0  0  0  0  0  0  0  0  0  0  0
    2.8660   -2.0000    0.0000 C   0  0  0  0  0  0  0  0  0  0  0  0
    3.7320   -2.5000    0.0000 C   0  0  1  0  0  0  0  0  0  0  0  0
    8.9282   -0.5000    0.0000 C   0  0  0  0  0  0  0  0  0  0  0  0
    8.0622   -1.0000    0.0000 C   0  0  3  0  0  0  0  0  0  0  0  0
    2.0000   -1.5000    0.0000 C   0  0  0  0  0  0  0  0  0  0  0  0
    2.3660   -2.8660    0.0000 C   0  0  0  0  0  0  0  0  0  0  0  0
    3.3660   -1.1340    0.0000 C   0  0  0  0  0  0  0  0  0  0  0  0
    4.5981   -2.0000    0.0000 C   0  0  0  0  0  0  0  0  0  0  0  0
    5.4641   -0.5000    0.0000 C   0  0  3  0  0  0  0  0  0  0  0  0
    2.8660   -5.0000    0.0000 C   0  0  0  0  0  0  0  0  0  0  0  0
    5.4641    0.5000    0.0000 C   0  0  0  0  0  0  0  0  0  0  0  0
    6.3301   -1.0000    0.0000 C   0  0  0  0  0  0  0  0  0  0  0  0
    2.8660   -4.0000    0.0000 C   0  0  0  0  0  0  0  0  0  0  0  0
    8.0622   -2.0000    0.0000 C   0  0  0  0  0  0  0  0  0  0  0  0
    9.4282   -1.3660    0.0000 C   0  0  0  0  0  0  0  0  0  0  0  0
    8.4282    0.3660    0.0000 C   0  0  0  0  0  0  0  0  0  0  0  0
    8.9282   -3.5000    0.0000 C   0  0  1  0  0  0  0  0  0  0  0  0
    9.7942    0.0000    0.0000 C   0  0  0  0  0  0  0  0  0  0  0  0
    2.0000   -5.5000    0.0000 C   0  0  0  0  0  0  0  0  0  0  0  0
    3.7320   -5.5000    0.0000 C   0  0  0  0  0  0  0  0  0  0  0  0
    8.0622   -4.0000    0.0000 C   0  0  0  0  0  0  0  0  0  0  0  0
    4.5981    1.0000    0.0000 C   0  0  0  0  0  0  0  0  0  0  0  0
    4.5981    2.0000    0.0000 C   0  0  0  0  0  0  0  0  0  0  0  0
    8.0622   -5.0000    0.0000 C   0  0  0  0  0  0  0  0  0  0  0  0
    3.7320    2.5000    0.0000 C   0  0  0  0  0  0  0  0  0  0  0  0
    3.7320    3.5000    0.0000 C   0  0  0  0  0  0  0  0  0  0  0  0
    2.0000   -6.5000    0.0000 C   0  0  0  0  0  0  0  0  0  0  0  0
    3.7320   -6.5000    0.0000 C   0  0  0  0  0  0  0  0  0  0  0  0
    2.8660    4.0000    0.0000 C   0  0  0  0  0  0  0  0  0  0  0  0
    9.7942   -4.0000    0.0000 C   0  0  0  0  0  0  0  0  0  0  0  0
    7.1962   -5.5000    0.0000 C   0  0  0  0  0  0  0  0  0  0  0  0
    8.9282   -5.5000    0.0000 C   0  0  0  0  0  0  0  0  0  0  0  0
    2.8660    5.0000    0.0000 C   0  0  0  0  0  0  0  0  0  0  0  0
    2.0000    5.5000    0.0000 C   0  0  0  0  0  0  0  0  0  0  0  0
    2.0000    6.5000    0.0000 C   0  0  0  0  0  0  0  0  0  0  0  0
    4.2690   -2.8100    0.0000 H   0  0  0  0  0  0  0  0  0  0  0  0
    8.0622   -0.3800    0.0000 H   0  0  0  0  0  0  0  0  0  0  0  0
    2.3100   -0.9631    0.0000 H   0  0  0  0  0  0  0  0  0  0  0  0
    1.4631   -1.1900    0.0000 H   0  0  0  0  0  0  0  0  0  0  0  0
    1.6900   -2.0369    0.0000 H   0  0  0  0  0  0  0  0  0  0  0  0
    1.8291   -2.5560    0.0000 H   0  0  0  0  0  0  0  0  0  0  0  0
    2.0560   -3.4030    0.0000 H   0  0  0  0  0  0  0  0  0  0  0  0
    2.9030   -3.1760    0.0000 H   0  0  0  0  0  0  0  0  0  0  0  0
    3.9030   -1.4440    0.0000 H   0  0  0  0  0  0  0  0  0  0  0  0
    3.6760   -0.5970    0.0000 H   0  0  0  0  0  0  0  0  0  0  0  0
    2.8291   -0.8240    0.0000 H   0  0  0  0  0  0  0  0  0  0  0  0
    5.4641   -1.1200    0.0000 H   0  0  0  0  0  0  0  0  0  0  0  0
    4.2690   -3.8100    0.0000 H   0  0  0  0  0  0  0  0  0  0  0  0
    4.0611   -0.6900    0.0000 H   0  0  0  0  0  0  0  0  0  0  0  0
    7.1962    0.1200    0.0000 H   0  0  0  0  0  0  0  0  0  0  0  0
    2.8660   -5.6200    0.0000 H   0  0  0  0  0  0  0  0  0  0  0  0
    6.0747    0.3923    0.0000 H   0  0  0  0  0  0  0  0  0  0  0  0
    5.6762    1.0826    0.0000 H   0  0  0  0  0  0  0  0  0  0  0  0
    8.8913   -1.6760    0.0000 H   0  0  0  0  0  0  0  0  0  0  0  0
    9.7382   -1.9030    0.0000 H   0  0  0  0  0  0  0  0  0  0  0  0
    9.9651   -1.0560    0.0000 H   0  0  0  0  0  0  0  0  0  0  0  0
    8.9651    0.6760    0.0000 H   0  0  0  0  0  0  0  0  0  0  0  0
    8.1182    0.9030    0.0000 H   0  0  0  0  0  0  0  0  0  0  0  0
    7.8913    0.0560    0.0000 H   0  0  0  0  0  0  0  0  0  0  0  0
    9.4651   -3.1900    0.0000 H   0  0  0  0  0  0  0  0  0  0  0  0
    1.7880   -4.9174    0.0000 H   0  0  0  0  0  0  0  0  0  0  0  0
    1.3894   -5.6077    0.0000 H   0  0  0  0  0  0  0  0  0  0  0  0
    4.3426   -5.6077    0.0000 H   0  0  0  0  0  0  0  0  0  0  0  0
    3.9441   -4.9174    0.0000 H   0  0  0  0  0  0  0  0  0  0  0  0
    9.4651   -2.1900    0.0000 H   0  0  0  0  0  0  0  0  0  0  0  0
    7.8501   -3.4174    0.0000 H   0  0  0  0  0  0  0  0  0  0  0  0
    7.4516   -4.1077    0.0000 H   0  0  0  0  0  0  0  0  0  0  0  0
    5.2087    1.8923    0.0000 H   0  0  0  0  0  0  0  0  0  0  0  0
    4.8101    2.5826    0.0000 H   0  0  0  0  0  0  0  0  0  0  0  0
    8.0622   -5.6200    0.0000 H   0  0  0  0  0  0  0  0  0  0  0  0
    3.1215    2.6077    0.0000 H   0  0  0  0  0  0  0  0  0  0  0  0
    3.5200    1.9174    0.0000 H   0  0  0  0  0  0  0  0  0  0  0  0
    4.3426    3.3923    0.0000 H   0  0  0  0  0  0  0  0  0  0  0  0
    3.9441    4.0826    0.0000 H   0  0  0  0  0  0  0  0  0  0  0  0
    1.3800   -6.5000    0.0000 H   0  0  0  0  0  0  0  0  0  0  0  0
    2.0000   -7.1200    0.0000 H   0  0  0  0  0  0  0  0  0  0  0  0
    2.6200   -6.5000    0.0000 H   0  0  0  0  0  0  0  0  0  0  0  0
    3.1120   -6.5000    0.0000 H   0  0  0  0  0  0  0  0  0  0  0  0
    3.7320   -7.1200    0.0000 H   0  0  0  0  0  0  0  0  0  0  0  0
    4.3520   -6.5000    0.0000 H   0  0  0  0  0  0  0  0  0  0  0  0
    2.2554    4.1077    0.0000 H   0  0  0  0  0  0  0  0  0  0  0  0
    2.6540    3.4174    0.0000 H   0  0  0  0  0  0  0  0  0  0  0  0
    6.8862   -4.9631    0.0000 H   0  0  0  0  0  0  0  0  0  0  0  0
    6.6592   -5.8100    0.0000 H   0  0  0  0  0  0  0  0  0  0  0  0
    7.5062   -6.0369    0.0000 H   0  0  0  0  0  0  0  0  0  0  0  0
    8.6182   -6.0369    0.0000 H   0  0  0  0  0  0  0  0  0  0  0  0
    9.4651   -5.8100    0.0000 H   0  0  0  0  0  0  0  0  0  0  0  0
    9.2382   -4.9631    0.0000 H   0  0  0  0  0  0  0  0  0  0  0  0
    3.4766    4.8923    0.0000 H   0  0  0  0  0  0  0  0  0  0  0  0
    3.0781    5.5826    0.0000 H   0  0  0  0  0  0  0  0  0  0  0  0
   10.3312    1.3100    0.0000 H   0  0  0  0  0  0  0  0  0  0  0  0
    1.3894    5.6077    0.0000 H   0  0  0  0  0  0  0  0  0  0  0  0
    1.7880    4.9174    0.0000 H   0  0  0  0  0  0  0  0  0  0  0  0
   10.3312   -5.3100    0.0000 H   0  0  0  0  0  0  0  0  0  0  0  0
    2.6200    6.5000    0.0000 H   0  0  0  0  0  0  0  0  0  0  0  0
    2.0000    7.1200    0.0000 H   0  0  0  0  0  0  0  0  0  0  0  0
    1.3800    6.5000    0.0000 H   0  0  0  0  0  0  0  0  0  0  0  0
  1 21  2  0  0  0  0
  2 25  2  0  0  0  0
  3 26  2  0  0  0  0
  4 27  2  0  0  0  0
  5 31  1  0  0  0  0
  5104  1  0  0  0  0
  6 31  2  0  0  0  0
  7 35  2  0  0  0  0
  8 43  1  0  0  0  0
  8107  1  0  0  0  0
  9 43  2  0  0  0  0
 15 10  1  1  0  0  0
 10 26  1  0  0  0  0
 10 61  1  0  0  0  0
 11 21  1  0  0  0  0
 11 22  1  0  0  0  0
 11 62  1  0  0  0  0
 12 17  1  0  0  0  0
 12 25  1  0  0  0  0
 12 63  1  0  0  0  0
 13 27  1  0  0  0  0
 30 13  1  6  0  0  0
 13 78  1  0  0  0  0
 14 15  1  0  0  0  0
 14 18  1  0  0  0  0
 14 19  1  0  0  0  0
 14 20  1  0  0  0  0
 15 21  1  0  0  0  0
 15 49  1  0  0  0  0
 16 17  1  0  0  0  0
 16 28  1  0  0  0  0
 16 29  1  0  0  0  0
 16 31  1  0  0  0  0
 17 27  1  0  0  0  0
 17 50  1  0  0  0  0
 18 51  1  0  0  0  0
 18 52  1  0  0  0  0
 18 53  1  0  0  0  0
 19 54  1  0  0  0  0
 19 55  1  0  0  0  0
 19 56  1  0  0  0  0
 20 57  1  0  0  0  0
 20 58  1  0  0  0  0
 20 59  1  0  0  0  0
 22 24  1  0  0  0  0
 22 25  1  0  0  0  0
 22 60  1  0  0  0  0
 23 26  1  0  0  0  0
 23 32  1  0  0  0  0
 23 33  1  0  0  0  0
 23 64  1  0  0  0  0
 24 35  1  0  0  0  0
 24 65  1  0  0  0  0
 24 66  1  0  0  0  0
 28 67  1  0  0  0  0
 28 68  1  0  0  0  0
 28 69  1  0  0  0  0
 29 70  1  0  0  0  0
 29 71  1  0  0  0  0
 29 72  1  0  0  0  0
 30 34  1  0  0  0  0
 30 43  1  0  0  0  0
 30 73  1  0  0  0  0
 32 40  1  0  0  0  0
 32 74  1  0  0  0  0
 32 75  1  0  0  0  0
 33 41  1  0  0  0  0
 33 76  1  0  0  0  0
 33 77  1  0  0  0  0
 34 37  1  0  0  0  0
 34 79  1  0  0  0  0
 34 80  1  0  0  0  0
 35 36  1  0  0  0  0
 36 38  1  0  0  0  0
 36 81  1  0  0  0  0
 36 82  1  0  0  0  0
 37 44  1  0  0  0  0
 37 45  1  0  0  0  0
 37 83  1  0  0  0  0
 38 39  1  0  0  0  0
 38 84  1  0  0  0  0
 38 85  1  0  0  0  0
 39 42  1  0  0  0  0
 39 86  1  0  0  0  0
 39 87  1  0  0  0  0
 40 88  1  0  0  0  0
 40 89  1  0  0  0  0
 40 90  1  0  0  0  0
 41 91  1  0  0  0  0
 41 92  1  0  0  0  0
 41 93  1  0  0  0  0
 42 46  1  0  0  0  0
 42 94  1  0  0  0  0
 42 95  1  0  0  0  0
 44 96  1  0  0  0  0
 44 97  1  0  0  0  0
 44 98  1  0  0  0  0
 45 99  1  0  0  0  0
 45100  1  0  0  0  0
 45101  1  0  0  0  0
 46 47  1  0  0  0  0
 46102  1  0  0  0  0
 46103  1  0  0  0  0
 47 48  1  0  0  0  0
 47105  1  0  0  0  0
 47106  1  0  0  0  0
 48108  1  0  0  0  0
 48109  1  0  0  0  0
 48110  1  0  0  0  0
M  END
> <PUBCHEM_COMPOUND_CID>
502963
> <PUBCHEM_COMPOUND_CANONICALIZED>
1
> <PUBCHEM_CACTVS_COMPLEXITY>
1110
> <PUBCHEM_CACTVS_HBOND_ACCEPTOR>
9
> <PUBCHEM_CACTVS_HBOND_DONOR>
6
> <PUBCHEM_CACTVS_ROTATABLE_BOND>
24
> <PUBCHEM_CACTVS_SUBSKEYS>
AAADcfB/vAAAAAAAAAAAAAAAAAAAAAAAAAAAAAAAAAAAAAAAAAAAHgAQCAAADyzBgAQCCALAAgAIAIGQGAAAAAAAAAAAAIGIAAACQBoAgCAUQAAGFgCQAAG/iICPAAAAAAAAAAAAAAAAAAAAAAAAAAAAAA==
> <PUBCHEM_IUPAC_OPENEYE_NAME>
4-[[(1S)-1-carboxy-3-methyl-butyl]amino]-3-[[2-[[(2S)-2-(2-ethylbutanoylamino)-3,3-dimethyl-butanoyl]amino]-4-oxo-undecanoyl]amino]-2,2-dimethyl-4-oxo-butanoic acid
> <PUBCHEM_IUPAC_CAS_NAME>
4-[[(1S)-1-carboxy-3-methylbutyl]amino]-3-[[2-[[(2S)-2-[(2-ethyl-1-oxobutyl)amino]-3,3-dimethyl-1-oxobutyl]amino]-1,4-dioxoundecyl]amino]-2,2-dimethyl-4-oxobutanoic acid
> <PUBCHEM_IUPAC_NAME_MARKUP>
4-[[(1<I>S</I>)-1-carboxy-3-methylbutyl]amino]-3-[[2-[[(2<I>S</I>)-2-(2-ethylbutanoylamino)-3,3-dimethylbutanoyl]amino]-4-oxoundecanoyl]amino]-2,2-dimethyl-4-oxobutanoic acid
> <PUBCHEM_IUPAC_NAME>
4-[[(1S)-1-carboxy-3-methylbutyl]amino]-3-[[2-[[(2S)-2-(2-ethylbutanoylamino)-3,3-dimethylbutanoyl]amino]-4-oxoundecanoyl]amino]-2,2-dimethyl-4-oxobutanoic acid
> <PUBCHEM_IUPAC_SYSTEMATIC_NAME>
3-[[2-[[(2S)-2-(2-ethylbutanoylamino)-3,3-dimethyl-butanoyl]amino]-4-oxidanylidene-undecanoyl]amino]-2,2-dimethyl-4-[[(2S)-4-methyl-1-oxidanyl-1-oxidanylidene-pentan-2-yl]amino]-4-oxidanylidene-butanoic acid
> <PUBCHEM_IUPAC_TRADITIONAL_NAME>
4-[[(1S)-1-carboxy-3-methyl-butyl]amino]-3-[[2-[[(2S)-2-(2-ethylbutanoylamino)-3,3-dimethyl-butanoyl]amino]-4-keto-undecanoyl]amino]-4-keto-2,2-dimethyl-butyric acid
> <PUBCHEM_IUPAC_INCHI>
InChI=1S/C35H62N4O9/c1-11-14-15-16-17-18-23(40)20-24(36-30(43)26(34(6,7)8)38-28(41)22(12-2)13-3)29(42)39-27(35(9,10)33(47)48)31(44)37-25(32(45)46)19-21(4)5/h21-22,24-27H,11-20H2,1-10H3,(H,36,43)(H,37,44)(H,38,41)(H,39,42)(H,45,46)(H,47,48)/t24?,25-,26+,27?/m0/s1
> <PUBCHEM_IUPAC_INCHIKEY>
BVVLKHGJOGMYCX-RUZKSTDQSA-N
> <PUBCHEM_XLOGP3_AA>
5.6
> <PUBCHEM_EXACT_MASS>
682.45167957
> <PUBCHEM_MOLECULAR_FORMULA>
C35H62N4O9
> <PUBCHEM_MOLECULAR_WEIGHT>
682.9
> <PUBCHEM_OPENEYE_CAN_SMILES>
CCCCCCCC(=O)CC(C(=O)NC(C(=O)NC(CC(C)C)C(=O)O)C(C)(C)C(=O)O)NC(=O)C(C(C)(C)C)NC(=O)C(CC)CC
> <PUBCHEM_OPENEYE_ISO_SMILES>
CCCCCCCC(=O)CC(C(=O)NC(C(=O)N[C@@H](CC(C)C)C(=O)O)C(C)(C)C(=O)O)NC(=O)[C@H](C(C)(C)C)NC(=O)C(CC)CC
> <PUBCHEM_CACTVS_TPSA>
208
> <PUBCHEM_MONOISOTOPIC_WEIGHT>
682.45167957
> <PUBCHEM_TOTAL_CHARGE>
0
> <PUBCHEM_HEAVY_ATOM_COUNT>
48
> <PUBCHEM_ATOM_DEF_STEREO_COUNT>
2
> <PUBCHEM_ATOM_UDEF_STEREO_COUNT>
2
> <PUBCHEM_BOND_DEF_STEREO_COUNT>
0
> <PUBCHEM_BOND_UDEF_STEREO_COUNT>
0
> <PUBCHEM_ISOTOPIC_ATOM_COUNT>
0
> <PUBCHEM_COMPONENT_COUNT>
1
> <PUBCHEM_CACTVS_TAUTO_COUNT>
-1
> <PUBCHEM_COORDINATE_TYPE>
1
5
255
> <PUBCHEM_BONDANNOTATIONS>
15  10  5
30  13  6
17  27  3
22  24  3
$$$$
