502982
  -OEChem-10302200282D
106106  0     1  0  0  0  0  0999 V2000
    7.7331    0.6550    0.0000 O   0  0  0  0  0  0  0  0  0  0  0  0
    4.2690   -0.3450    0.0000 O   0  0  0  0  0  0  0  0  0  0  0  0
    8.5991    4.1550    0.0000 O   0  0  0  0  0  0  0  0  0  0  0  0
    6.0010    6.6550    0.0000 O   0  0  0  0  0  0  0  0  0  0  0  0
    5.1350   -3.8450    0.0000 O   0  0  0  0  0  0  0  0  0  0  0  0
    9.4651    3.6550    0.0000 O   0  0  0  0  0  0  0  0  0  0  0  0
    2.5369    5.6550    0.0000 O   0  0  0  0  0  0  0  0  0  0  0  0
    3.4030    4.1550    0.0000 O   0  0  0  0  0  0  0  0  0  0  0  0
    8.5991    7.1550    0.0000 O   0  0  0  0  0  0  0  0  0  0  0  0
    6.8671    7.1550    0.0000 O   0  0  0  0  0  0  0  0  0  0  0  0
    3.4030   -7.8450    0.0000 O   0  0  0  0  0  0  0  0  0  0  0  0
    6.0010   -0.3450    0.0000 N   0  0  0  0  0  0  0  0  0  0  0  0
    6.8671    2.1550    0.0000 N   0  0  0  0  0  0  0  0  0  0  0  0
    4.2690   -2.3450    0.0000 N   0  0  0  0  0  0  0  0  0  0  0  0
    6.8671    4.1550    0.0000 N   0  0  0  0  0  0  0  0  0  0  0  0
    5.1350    5.1550    0.0000 N   0  0  0  0  0  0  0  0  0  0  0  0
   10.3312    2.1550    0.0000 N   0  0  0  0  0  0  0  0  0  0  0  0
    5.1350    1.1550    0.0000 C   0  0  2  0  0  0  0  0  0  0  0  0
    6.0010    0.6550    0.0000 C   0  0  1  0  0  0  0  0  0  0  0  0
    5.1350    2.1550    0.0000 C   0  0  0  0  0  0  0  0  0  0  0  0
    5.1350   -1.8450    0.0000 C   0  0  1  0  0  0  0  0  0  0  0  0
    6.0010   -2.3450    0.0000 C   0  0  0  0  0  0  0  0  0  0  0  0
    6.8671    1.1550    0.0000 C   0  0  0  0  0  0  0  0  0  0  0  0
    4.2690    0.6550    0.0000 C   0  0  0  0  0  0  0  0  0  0  0  0
    5.1350   -0.8450    0.0000 C   0  0  0  0  0  0  0  0  0  0  0  0
    7.7331    2.6550    0.0000 C   0  0  3  0  0  0  0  0  0  0  0  0
    4.2690    2.6550    0.0000 C   0  0  0  0  0  0  0  0  0  0  0  0
    6.8671   -1.8450    0.0000 C   0  0  0  0  0  0  0  0  0  0  0  0
    6.0010   -3.3450    0.0000 C   0  0  0  0  0  0  0  0  0  0  0  0
    8.5991    2.1550    0.0000 C   0  0  0  0  0  0  0  0  0  0  0  0
    7.7331    3.6550    0.0000 C   0  0  0  0  0  0  0  0  0  0  0  0
    6.8671    5.1550    0.0000 C   0  0  2  0  0  0  0  0  0  0  0  0
    4.2690    6.6550    0.0000 C   0  0  0  0  0  0  0  0  0  0  0  0
    4.2690    5.6550    0.0000 C   0  0  1  0  0  0  0  0  0  0  0  0
    3.4030    7.1550    0.0000 C   0  0  0  0  0  0  0  0  0  0  0  0
    6.0010    5.6550    0.0000 C   0  0  0  0  0  0  0  0  0  0  0  0
    4.2690   -3.3450    0.0000 C   0  0  0  0  0  0  0  0  0  0  0  0
    7.7331    5.6550    0.0000 C   0  0  0  0  0  0  0  0  0  0  0  0
    9.4651    2.6550    0.0000 C   0  0  0  0  0  0  0  0  0  0  0  0
    3.4030    8.1550    0.0000 C   0  0  0  0  0  0  0  0  0  0  0  0
    2.5369    6.6550    0.0000 C   0  0  0  0  0  0  0  0  0  0  0  0
    3.4030   -3.8450    0.0000 C   0  0  0  0  0  0  0  0  0  0  0  0
    3.4030    5.1550    0.0000 C   0  0  0  0  0  0  0  0  0  0  0  0
    3.4030   -4.8450    0.0000 C   0  0  0  0  0  0  0  0  0  0  0  0
    7.7331    6.6550    0.0000 C   0  0  0  0  0  0  0  0  0  0  0  0
   11.1972    2.6550    0.0000 C   0  0  0  0  0  0  0  0  0  0  0  0
    4.2690   -5.3450    0.0000 C   0  0  0  0  0  0  0  0  0  0  0  0
    2.5369   -5.3450    0.0000 C   0  0  0  0  0  0  0  0  0  0  0  0
   12.0632    2.1550    0.0000 C   0  0  0  0  0  0  0  0  0  0  0  0
    4.2690   -6.3450    0.0000 C   0  0  0  0  0  0  0  0  0  0  0  0
    2.5369   -6.3450    0.0000 C   0  0  0  0  0  0  0  0  0  0  0  0
    3.4030   -6.8450    0.0000 C   0  0  0  0  0  0  0  0  0  0  0  0
    5.1350    0.5350    0.0000 H   0  0  0  0  0  0  0  0  0  0  0  0
    6.5380    0.3450    0.0000 H   0  0  0  0  0  0  0  0  0  0  0  0
    5.7456    2.0473    0.0000 H   0  0  0  0  0  0  0  0  0  0  0  0
    5.3471    2.7376    0.0000 H   0  0  0  0  0  0  0  0  0  0  0  0
    5.1350   -2.4650    0.0000 H   0  0  0  0  0  0  0  0  0  0  0  0
    6.5380   -0.6550    0.0000 H   0  0  0  0  0  0  0  0  0  0  0  0
    6.5380   -2.6550    0.0000 H   0  0  0  0  0  0  0  0  0  0  0  0
    3.9590    1.1919    0.0000 H   0  0  0  0  0  0  0  0  0  0  0  0
    3.7320    0.3450    0.0000 H   0  0  0  0  0  0  0  0  0  0  0  0
    4.5790    0.1181    0.0000 H   0  0  0  0  0  0  0  0  0  0  0  0
    7.7331    2.0350    0.0000 H   0  0  0  0  0  0  0  0  0  0  0  0
    6.3301    2.4650    0.0000 H   0  0  0  0  0  0  0  0  0  0  0  0
    4.5790    3.1919    0.0000 H   0  0  0  0  0  0  0  0  0  0  0  0
    3.7320    2.9650    0.0000 H   0  0  0  0  0  0  0  0  0  0  0  0
    3.9590    2.1181    0.0000 H   0  0  0  0  0  0  0  0  0  0  0  0
    3.7320   -2.0350    0.0000 H   0  0  0  0  0  0  0  0  0  0  0  0
    7.1771   -2.3819    0.0000 H   0  0  0  0  0  0  0  0  0  0  0  0
    7.4040   -1.5350    0.0000 H   0  0  0  0  0  0  0  0  0  0  0  0
    6.5571   -1.3081    0.0000 H   0  0  0  0  0  0  0  0  0  0  0  0
    5.3810   -3.3450    0.0000 H   0  0  0  0  0  0  0  0  0  0  0  0
    6.0010   -3.9650    0.0000 H   0  0  0  0  0  0  0  0  0  0  0  0
    6.6210   -3.3450    0.0000 H   0  0  0  0  0  0  0  0  0  0  0  0
    8.2006    1.6800    0.0000 H   0  0  0  0  0  0  0  0  0  0  0  0
    8.9976    1.6800    0.0000 H   0  0  0  0  0  0  0  0  0  0  0  0
    6.3301    4.8450    0.0000 H   0  0  0  0  0  0  0  0  0  0  0  0
    4.8796    6.5473    0.0000 H   0  0  0  0  0  0  0  0  0  0  0  0
    4.4810    7.2376    0.0000 H   0  0  0  0  0  0  0  0  0  0  0  0
    4.2690    5.0350    0.0000 H   0  0  0  0  0  0  0  0  0  0  0  0
    3.4030    6.5350    0.0000 H   0  0  0  0  0  0  0  0  0  0  0  0
    6.3301    3.8450    0.0000 H   0  0  0  0  0  0  0  0  0  0  0  0
    5.1350    4.5350    0.0000 H   0  0  0  0  0  0  0  0  0  0  0  0
    7.9451    5.0724    0.0000 H   0  0  0  0  0  0  0  0  0  0  0  0
    8.3437    5.7627    0.0000 H   0  0  0  0  0  0  0  0  0  0  0  0
    4.0230    8.1550    0.0000 H   0  0  0  0  0  0  0  0  0  0  0  0
    3.4030    8.7750    0.0000 H   0  0  0  0  0  0  0  0  0  0  0  0
    2.7830    8.1550    0.0000 H   0  0  0  0  0  0  0  0  0  0  0  0
    2.2269    7.1919    0.0000 H   0  0  0  0  0  0  0  0  0  0  0  0
    2.0000    6.3450    0.0000 H   0  0  0  0  0  0  0  0  0  0  0  0
    2.8469    6.1181    0.0000 H   0  0  0  0  0  0  0  0  0  0  0  0
    3.1909   -3.2624    0.0000 H   0  0  0  0  0  0  0  0  0  0  0  0
    2.7924   -3.9527    0.0000 H   0  0  0  0  0  0  0  0  0  0  0  0
   10.3312    1.5350    0.0000 H   0  0  0  0  0  0  0  0  0  0  0  0
   11.5957    3.1300    0.0000 H   0  0  0  0  0  0  0  0  0  0  0  0
   10.7987    3.1300    0.0000 H   0  0  0  0  0  0  0  0  0  0  0  0
    4.8059   -5.0350    0.0000 H   0  0  0  0  0  0  0  0  0  0  0  0
    2.0000   -5.0350    0.0000 H   0  0  0  0  0  0  0  0  0  0  0  0
    2.0000    5.3450    0.0000 H   0  0  0  0  0  0  0  0  0  0  0  0
   11.7532    1.6181    0.0000 H   0  0  0  0  0  0  0  0  0  0  0  0
   12.6002    1.8450    0.0000 H   0  0  0  0  0  0  0  0  0  0  0  0
   12.3732    2.6919    0.0000 H   0  0  0  0  0  0  0  0  0  0  0  0
    8.5991    7.7750    0.0000 H   0  0  0  0  0  0  0  0  0  0  0  0
    4.8059   -6.6550    0.0000 H   0  0  0  0  0  0  0  0  0  0  0  0
    2.0000   -6.6550    0.0000 H   0  0  0  0  0  0  0  0  0  0  0  0
    2.8660   -8.1550    0.0000 H   0  0  0  0  0  0  0  0  0  0  0  0
  1 23  2  0  0  0  0
  2 25  2  0  0  0  0
  3 31  2  0  0  0  0
  4 36  2  0  0  0  0
  5 37  2  0  0  0  0
  6 39  2  0  0  0  0
  7 43  1  0  0  0  0
  7 99  1  0  0  0  0
  8 43  2  0  0  0  0
  9 45  1  0  0  0  0
  9103  1  0  0  0  0
 10 45  2  0  0  0  0
 11 52  1  0  0  0  0
 11106  1  0  0  0  0
 19 12  1  1  0  0  0
 12 25  1  0  0  0  0
 12 58  1  0  0  0  0
 13 23  1  0  0  0  0
 13 26  1  0  0  0  0
 13 64  1  0  0  0  0
 21 14  1  6  0  0  0
 14 37  1  0  0  0  0
 14 68  1  0  0  0  0
 15 31  1  0  0  0  0
 32 15  1  6  0  0  0
 15 82  1  0  0  0  0
 34 16  1  6  0  0  0
 16 36  1  0  0  0  0
 16 83  1  0  0  0  0
 17 39  1  0  0  0  0
 17 46  1  0  0  0  0
 17 94  1  0  0  0  0
 18 19  1  0  0  0  0
 18 20  1  0  0  0  0
 18 24  1  1  0  0  0
 18 53  1  0  0  0  0
 19 23  1  0  0  0  0
 19 54  1  0  0  0  0
 20 27  1  0  0  0  0
 20 55  1  0  0  0  0
 20 56  1  0  0  0  0
 21 22  1  0  0  0  0
 21 25  1  0  0  0  0
 21 57  1  0  0  0  0
 22 28  1  0  0  0  0
 22 29  1  0  0  0  0
 22 59  1  0  0  0  0
 24 60  1  0  0  0  0
 24 61  1  0  0  0  0
 24 62  1  0  0  0  0
 26 30  1  0  0  0  0
 26 31  1  0  0  0  0
 26 63  1  0  0  0  0
 27 65  1  0  0  0  0
 27 66  1  0  0  0  0
 27 67  1  0  0  0  0
 28 69  1  0  0  0  0
 28 70  1  0  0  0  0
 28 71  1  0  0  0  0
 29 72  1  0  0  0  0
 29 73  1  0  0  0  0
 29 74  1  0  0  0  0
 30 39  1  0  0  0  0
 30 75  1  0  0  0  0
 30 76  1  0  0  0  0
 32 36  1  0  0  0  0
 32 38  1  0  0  0  0
 32 77  1  0  0  0  0
 33 34  1  0  0  0  0
 33 35  1  0  0  0  0
 33 78  1  0  0  0  0
 33 79  1  0  0  0  0
 34 43  1  0  0  0  0
 34 80  1  0  0  0  0
 35 40  1  0  0  0  0
 35 41  1  0  0  0  0
 35 81  1  0  0  0  0
 37 42  1  0  0  0  0
 38 45  1  0  0  0  0
 38 84  1  0  0  0  0
 38 85  1  0  0  0  0
 40 86  1  0  0  0  0
 40 87  1  0  0  0  0
 40 88  1  0  0  0  0
 41 89  1  0  0  0  0
 41 90  1  0  0  0  0
 41 91  1  0  0  0  0
 42 44  1  0  0  0  0
 42 92  1  0  0  0  0
 42 93  1  0  0  0  0
 44 47  2  0  0  0  0
 44 48  1  0  0  0  0
 46 49  1  0  0  0  0
 46 95  1  0  0  0  0
 46 96  1  0  0  0  0
 47 50  1  0  0  0  0
 47 97  1  0  0  0  0
 48 51  2  0  0  0  0
 48 98  1  0  0  0  0
 49100  1  0  0  0  0
 49101  1  0  0  0  0
 49102  1  0  0  0  0
 50 52  2  0  0  0  0
 50104  1  0  0  0  0
 51 52  1  0  0  0  0
 51105  1  0  0  0  0
M  END
> <PUBCHEM_COMPOUND_CID>
502982
> <PUBCHEM_COMPOUND_CANONICALIZED>
1
> <PUBCHEM_CACTVS_COMPLEXITY>
1250
> <PUBCHEM_CACTVS_HBOND_ACCEPTOR>
11
> <PUBCHEM_CACTVS_HBOND_DONOR>
9
> <PUBCHEM_CACTVS_ROTATABLE_BOND>
22
> <PUBCHEM_CACTVS_SUBSKEYS>
AAADcfB/vAAAAAAAAAAAAAAAAAAAAAAAAAAwAAAAAAAAAAABAAAAHgAQCAAADSzBmAQyDoLAAgCIAiHSGAACAAAgIAAIiIGOCIgKZjqC1TOUcAAm1hGYmAe/yICOIAAAAAAAAABAAAAAAAAAAAAAAAAAAA==
> <PUBCHEM_IUPAC_OPENEYE_NAME>
(2S)-2-[[(2S)-3-carboxy-2-[[4-(ethylamino)-2-[[(2S,3S)-2-[[(2S)-2-[[2-(4-hydroxyphenyl)acetyl]amino]-3-methyl-butanoyl]amino]-3-methyl-pentanoyl]amino]-4-oxo-butanoyl]amino]propanoyl]amino]-4-methyl-pentanoic acid
> <PUBCHEM_IUPAC_CAS_NAME>
(2S)-2-[[(2S)-3-carboxy-2-[[4-(ethylamino)-2-[[(2S,3S)-2-[[(2S)-2-[[2-(4-hydroxyphenyl)-1-oxoethyl]amino]-3-methyl-1-oxobutyl]amino]-3-methyl-1-oxopentyl]amino]-1,4-dioxobutyl]amino]-1-oxopropyl]amino]-4-methylpentanoic acid
> <PUBCHEM_IUPAC_NAME_MARKUP>
(2<I>S</I>)-2-[[(2<I>S</I>)-3-carboxy-2-[[4-(ethylamino)-2-[[(2<I>S</I>,3<I>S</I>)-2-[[(2<I>S</I>)-2-[[2-(4-hydroxyphenyl)acetyl]amino]-3-methylbutanoyl]amino]-3-methylpentanoyl]amino]-4-oxobutanoyl]amino]propanoyl]amino]-4-methylpentanoic acid
> <PUBCHEM_IUPAC_NAME>
(2S)-2-[[(2S)-3-carboxy-2-[[4-(ethylamino)-2-[[(2S,3S)-2-[[(2S)-2-[[2-(4-hydroxyphenyl)acetyl]amino]-3-methylbutanoyl]amino]-3-methylpentanoyl]amino]-4-oxobutanoyl]amino]propanoyl]amino]-4-methylpentanoic acid
> <PUBCHEM_IUPAC_SYSTEMATIC_NAME>
(2S)-2-[[(2S)-2-[[4-(ethylamino)-2-[[(2S,3S)-2-[[(2S)-2-[2-(4-hydroxyphenyl)ethanoylamino]-3-methyl-butanoyl]amino]-3-methyl-pentanoyl]amino]-4-oxidanylidene-butanoyl]amino]-4-oxidanyl-4-oxidanylidene-butanoyl]amino]-4-methyl-pentanoic acid
> <PUBCHEM_IUPAC_TRADITIONAL_NAME>
(2S)-2-[[(2S)-3-carboxy-2-[[4-(ethylamino)-2-[[(2S,3S)-2-[[(2S)-2-[[2-(4-hydroxyphenyl)acetyl]amino]-3-methyl-butanoyl]amino]-3-methyl-pentanoyl]amino]-4-keto-butanoyl]amino]propanoyl]amino]-4-methyl-valeric acid
> <PUBCHEM_IUPAC_INCHI>
InChI=1S/C35H54N6O11/c1-8-20(7)30(41-33(49)29(19(5)6)40-27(44)15-21-10-12-22(42)13-11-21)34(50)38-23(16-26(43)36-9-2)31(47)37-24(17-28(45)46)32(48)39-25(35(51)52)14-18(3)4/h10-13,18-20,23-25,29-30,42H,8-9,14-17H2,1-7H3,(H,36,43)(H,37,47)(H,38,50)(H,39,48)(H,40,44)(H,41,49)(H,45,46)(H,51,52)/t20-,23?,24-,25-,29-,30-/m0/s1
> <PUBCHEM_IUPAC_INCHIKEY>
GSKULUVZCPBHKJ-UKVITZQTSA-N
> <PUBCHEM_XLOGP3_AA>
1.7
> <PUBCHEM_EXACT_MASS>
734.38505656
> <PUBCHEM_MOLECULAR_FORMULA>
C35H54N6O11
> <PUBCHEM_MOLECULAR_WEIGHT>
734.8
> <PUBCHEM_OPENEYE_CAN_SMILES>
CCC(C)C(C(=O)NC(CC(=O)NCC)C(=O)NC(CC(=O)O)C(=O)NC(CC(C)C)C(=O)O)NC(=O)C(C(C)C)NC(=O)CC1=CC=C(C=C1)O
> <PUBCHEM_OPENEYE_ISO_SMILES>
CC[C@H](C)[C@@H](C(=O)NC(CC(=O)NCC)C(=O)N[C@@H](CC(=O)O)C(=O)N[C@@H](CC(C)C)C(=O)O)NC(=O)[C@H](C(C)C)NC(=O)CC1=CC=C(C=C1)O
> <PUBCHEM_CACTVS_TPSA>
269
> <PUBCHEM_MONOISOTOPIC_WEIGHT>
734.38505656
> <PUBCHEM_TOTAL_CHARGE>
0
> <PUBCHEM_HEAVY_ATOM_COUNT>
52
> <PUBCHEM_ATOM_DEF_STEREO_COUNT>
5
> <PUBCHEM_ATOM_UDEF_STEREO_COUNT>
1
> <PUBCHEM_BOND_DEF_STEREO_COUNT>
0
> <PUBCHEM_BOND_UDEF_STEREO_COUNT>
0
> <PUBCHEM_ISOTOPIC_ATOM_COUNT>
0
> <PUBCHEM_COMPONENT_COUNT>
1
> <PUBCHEM_CACTVS_TAUTO_COUNT>
-1
> <PUBCHEM_COORDINATE_TYPE>
1
5
255
> <PUBCHEM_BONDANNOTATIONS>
19  12  5
21  14  6
32  15  6
34  16  6
18  24  5
26  30  3
44  47  8
44  48  8
47  50  8
48  51  8
50  52  8
51  52  8
$$$$
