502997
  -OEChem-10302200282D
122124  0     1  0  0  0  0  0999 V2000
   11.5264    1.2501    0.0000 O   0  0  0  0  0  0  0  0  0  0  0  0
    9.7942    1.2500    0.0000 O   0  0  0  0  0  0  0  0  0  0  0  0
    8.9282    4.7500    0.0000 O   0  0  0  0  0  0  0  0  0  0  0  0
    8.0622    4.2500    0.0000 O   0  0  0  0  0  0  0  0  0  0  0  0
   11.5263    7.2500    0.0000 O   0  0  0  0  0  0  0  0  0  0  0  0
   12.3923    5.7500    0.0000 O   0  0  0  0  0  0  0  0  0  0  0  0
    7.1962    4.7500    0.0000 O   0  0  0  0  0  0  0  0  0  0  0  0
    5.4641    1.7500    0.0000 O   0  0  0  0  0  0  0  0  0  0  0  0
    6.3301   -1.7500    0.0000 O   0  0  0  0  0  0  0  0  0  0  0  0
    2.8660   -2.7500    0.0000 O   0  0  0  0  0  0  0  0  0  0  0  0
    8.9282    2.7500    0.0000 N   0  0  0  0  0  0  0  0  0  0  0  0
   10.6603    4.7500    0.0000 N   0  0  0  0  0  0  0  0  0  0  0  0
    7.1962    1.7500    0.0000 N   0  0  0  0  0  0  0  0  0  0  0  0
    5.4641    4.7500    0.0000 N   0  0  0  0  0  0  0  0  0  0  0  0
    5.4641   -0.2500    0.0000 N   0  0  0  0  0  0  0  0  0  0  0  0
    4.5981   -2.7500    0.0000 N   0  0  0  0  0  0  0  0  0  0  0  0
   10.6603    2.7500    0.0000 C   0  0  0  0  0  0  0  0  0  0  0  0
   11.5263    2.2500    0.0000 C   0  0  0  0  0  0  0  0  0  0  0  0
   11.1603    3.6160    0.0000 C   0  0  0  0  0  0  0  0  0  0  0  0
   12.0263    3.1160    0.0000 C   0  0  0  0  0  0  0  0  0  0  0  0
    9.7942    3.2500    0.0000 C   0  0  1  0  0  0  0  0  0  0  0  0
   10.6603    1.7500    0.0000 C   0  0  0  0  0  0  0  0  0  0  0  0
    9.7942    4.2500    0.0000 C   0  0  0  0  0  0  0  0  0  0  0  0
    8.0622    3.2500    0.0000 C   0  0  0  0  0  0  0  0  0  0  0  0
    7.1962    2.7500    0.0000 C   0  0  2  0  0  0  0  0  0  0  0  0
   10.6603    5.7500    0.0000 C   0  0  1  0  0  0  0  0  0  0  0  0
    6.3301    3.2500    0.0000 C   0  0  0  0  0  0  0  0  0  0  0  0
    9.7942    6.2500    0.0000 C   0  0  0  0  0  0  0  0  0  0  0  0
    9.7942    7.2500    0.0000 C   0  0  0  0  0  0  0  0  0  0  0  0
    6.3301    0.2500    0.0000 C   0  0  1  0  0  0  0  0  0  0  0  0
    7.1962   -0.2500    0.0000 C   0  0  0  0  0  0  0  0  0  0  0  0
   11.5263    6.2500    0.0000 C   0  0  0  0  0  0  0  0  0  0  0  0
    6.3301    4.2500    0.0000 C   0  0  0  0  0  0  0  0  0  0  0  0
    6.3301    1.2500    0.0000 C   0  0  0  0  0  0  0  0  0  0  0  0
    5.3596    5.7445    0.0000 C   0  0  0  0  0  0  0  0  0  0  0  0
    4.5506    4.3433    0.0000 C   0  0  0  0  0  0  0  0  0  0  0  0
    4.3814    5.9524    0.0000 C   0  0  0  0  0  0  0  0  0  0  0  0
    3.8814    5.0864    0.0000 C   0  0  0  0  0  0  0  0  0  0  0  0
    8.9282    7.7500    0.0000 C   0  0  0  0  0  0  0  0  0  0  0  0
   10.6603    7.7500    0.0000 C   0  0  0  0  0  0  0  0  0  0  0  0
    8.0622   -0.7500    0.0000 C   0  0  0  0  0  0  0  0  0  0  0  0
    7.6962    0.6160    0.0000 C   0  0  0  0  0  0  0  0  0  0  0  0
    6.6962   -1.1160    0.0000 C   0  0  0  0  0  0  0  0  0  0  0  0
    4.5981   -1.7500    0.0000 C   0  0  2  0  0  0  0  0  0  0  0  0
    5.4641   -1.2500    0.0000 C   0  0  0  0  0  0  0  0  0  0  0  0
    3.7320   -1.2500    0.0000 C   0  0  0  0  0  0  0  0  0  0  0  0
    3.7320   -0.2500    0.0000 C   0  0  0  0  0  0  0  0  0  0  0  0
    2.8660   -1.7500    0.0000 C   0  0  0  0  0  0  0  0  0  0  0  0
    3.7320   -3.2500    0.0000 C   0  0  0  0  0  0  0  0  0  0  0  0
    5.4641   -3.2500    0.0000 C   0  0  0  0  0  0  0  0  0  0  0  0
    3.7320   -4.2500    0.0000 C   0  0  0  0  0  0  0  0  0  0  0  0
    2.8660   -4.7500    0.0000 C   0  0  0  0  0  0  0  0  0  0  0  0
    2.8660   -5.7500    0.0000 C   0  0  0  0  0  0  0  0  0  0  0  0
    3.7320   -6.2500    0.0000 C   0  0  0  0  0  0  0  0  0  0  0  0
    2.0000   -6.2500    0.0000 C   0  0  0  0  0  0  0  0  0  0  0  0
    3.7320   -7.2500    0.0000 C   0  0  0  0  0  0  0  0  0  0  0  0
    2.0000   -7.2500    0.0000 C   0  0  0  0  0  0  0  0  0  0  0  0
    2.8660   -7.7500    0.0000 C   0  0  0  0  0  0  0  0  0  0  0  0
   11.2163    1.7131    0.0000 H   0  0  0  0  0  0  0  0  0  0  0  0
   12.0632    1.9400    0.0000 H   0  0  0  0  0  0  0  0  0  0  0  0
   11.4703    4.1530    0.0000 H   0  0  0  0  0  0  0  0  0  0  0  0
   10.6233    3.9260    0.0000 H   0  0  0  0  0  0  0  0  0  0  0  0
   12.5632    2.8060    0.0000 H   0  0  0  0  0  0  0  0  0  0  0  0
   12.3363    3.6530    0.0000 H   0  0  0  0  0  0  0  0  0  0  0  0
    9.2573    3.5600    0.0000 H   0  0  0  0  0  0  0  0  0  0  0  0
    8.9282    2.1300    0.0000 H   0  0  0  0  0  0  0  0  0  0  0  0
   11.1972    4.4400    0.0000 H   0  0  0  0  0  0  0  0  0  0  0  0
   11.5264    0.6300    0.0000 H   0  0  0  0  0  0  0  0  0  0  0  0
    6.6592    2.4400    0.0000 H   0  0  0  0  0  0  0  0  0  0  0  0
   11.1972    5.4400    0.0000 H   0  0  0  0  0  0  0  0  0  0  0  0
    5.7196    3.3577    0.0000 H   0  0  0  0  0  0  0  0  0  0  0  0
    6.1181    2.6674    0.0000 H   0  0  0  0  0  0  0  0  0  0  0  0
    9.1836    6.3577    0.0000 H   0  0  0  0  0  0  0  0  0  0  0  0
    9.5822    5.6674    0.0000 H   0  0  0  0  0  0  0  0  0  0  0  0
    7.7331    1.4400    0.0000 H   0  0  0  0  0  0  0  0  0  0  0  0
    9.2573    6.9400    0.0000 H   0  0  0  0  0  0  0  0  0  0  0  0
    5.7932    0.5600    0.0000 H   0  0  0  0  0  0  0  0  0  0  0  0
    5.9796    5.7445    0.0000 H   0  0  0  0  0  0  0  0  0  0  0  0
    5.4244    6.3611    0.0000 H   0  0  0  0  0  0  0  0  0  0  0  0
    4.0490    3.9788    0.0000 H   0  0  0  0  0  0  0  0  0  0  0  0
    4.8606    3.8063    0.0000 H   0  0  0  0  0  0  0  0  0  0  0  0
    4.5730    6.5421    0.0000 H   0  0  0  0  0  0  0  0  0  0  0  0
    3.8150    6.2046    0.0000 H   0  0  0  0  0  0  0  0  0  0  0  0
    3.3798    5.4508    0.0000 H   0  0  0  0  0  0  0  0  0  0  0  0
    3.4666    4.6257    0.0000 H   0  0  0  0  0  0  0  0  0  0  0  0
    4.9272    0.0600    0.0000 H   0  0  0  0  0  0  0  0  0  0  0  0
    9.2382    8.2869    0.0000 H   0  0  0  0  0  0  0  0  0  0  0  0
    8.3913    8.0600    0.0000 H   0  0  0  0  0  0  0  0  0  0  0  0
    8.6182    7.2131    0.0000 H   0  0  0  0  0  0  0  0  0  0  0  0
   10.9703    7.2131    0.0000 H   0  0  0  0  0  0  0  0  0  0  0  0
   11.1972    8.0600    0.0000 H   0  0  0  0  0  0  0  0  0  0  0  0
   10.3503    8.2869    0.0000 H   0  0  0  0  0  0  0  0  0  0  0  0
    7.7522   -1.2869    0.0000 H   0  0  0  0  0  0  0  0  0  0  0  0
    8.5991   -1.0600    0.0000 H   0  0  0  0  0  0  0  0  0  0  0  0
    8.3722   -0.2131    0.0000 H   0  0  0  0  0  0  0  0  0  0  0  0
    8.2331    0.3060    0.0000 H   0  0  0  0  0  0  0  0  0  0  0  0
    8.0062    1.1530    0.0000 H   0  0  0  0  0  0  0  0  0  0  0  0
    7.1592    0.9260    0.0000 H   0  0  0  0  0  0  0  0  0  0  0  0
    6.1592   -0.8060    0.0000 H   0  0  0  0  0  0  0  0  0  0  0  0
    6.3862   -1.6530    0.0000 H   0  0  0  0  0  0  0  0  0  0  0  0
    7.2331   -1.4260    0.0000 H   0  0  0  0  0  0  0  0  0  0  0  0
    5.1350   -2.0600    0.0000 H   0  0  0  0  0  0  0  0  0  0  0  0
   12.0632    7.5600    0.0000 H   0  0  0  0  0  0  0  0  0  0  0  0
    3.7320   -1.8700    0.0000 H   0  0  0  0  0  0  0  0  0  0  0  0
    4.3520   -0.2500    0.0000 H   0  0  0  0  0  0  0  0  0  0  0  0
    3.7320    0.3700    0.0000 H   0  0  0  0  0  0  0  0  0  0  0  0
    3.1120   -0.2500    0.0000 H   0  0  0  0  0  0  0  0  0  0  0  0
    2.5560   -1.2131    0.0000 H   0  0  0  0  0  0  0  0  0  0  0  0
    2.3291   -2.0600    0.0000 H   0  0  0  0  0  0  0  0  0  0  0  0
    3.1760   -2.2869    0.0000 H   0  0  0  0  0  0  0  0  0  0  0  0
    5.1541   -3.7869    0.0000 H   0  0  0  0  0  0  0  0  0  0  0  0
    6.0010   -3.5600    0.0000 H   0  0  0  0  0  0  0  0  0  0  0  0
    5.7741   -2.7131    0.0000 H   0  0  0  0  0  0  0  0  0  0  0  0
    3.9441   -4.8326    0.0000 H   0  0  0  0  0  0  0  0  0  0  0  0
    4.3426   -4.1423    0.0000 H   0  0  0  0  0  0  0  0  0  0  0  0
    2.6540   -4.1674    0.0000 H   0  0  0  0  0  0  0  0  0  0  0  0
    2.2554   -4.8577    0.0000 H   0  0  0  0  0  0  0  0  0  0  0  0
    4.2690   -5.9400    0.0000 H   0  0  0  0  0  0  0  0  0  0  0  0
    1.4631   -5.9400    0.0000 H   0  0  0  0  0  0  0  0  0  0  0  0
    4.2690   -7.5600    0.0000 H   0  0  0  0  0  0  0  0  0  0  0  0
    1.4631   -7.5600    0.0000 H   0  0  0  0  0  0  0  0  0  0  0  0
    2.8660   -8.3700    0.0000 H   0  0  0  0  0  0  0  0  0  0  0  0
  1 22  1  0  0  0  0
  1 68  1  0  0  0  0
  2 22  2  0  0  0  0
  3 23  2  0  0  0  0
  4 24  2  0  0  0  0
  5 32  1  0  0  0  0
  5103  1  0  0  0  0
  6 32  2  0  0  0  0
  7 33  2  0  0  0  0
  8 34  2  0  0  0  0
  9 45  2  0  0  0  0
 10 49  2  0  0  0  0
 21 11  1  6  0  0  0
 11 24  1  0  0  0  0
 11 66  1  0  0  0  0
 12 23  1  0  0  0  0
 26 12  1  1  0  0  0
 12 67  1  0  0  0  0
 25 13  1  1  0  0  0
 13 34  1  0  0  0  0
 13 75  1  0  0  0  0
 14 33  1  0  0  0  0
 14 35  1  0  0  0  0
 14 36  1  0  0  0  0
 30 15  1  6  0  0  0
 15 45  1  0  0  0  0
 15 86  1  0  0  0  0
 44 16  1  1  0  0  0
 16 49  1  0  0  0  0
 16 50  1  0  0  0  0
 17 18  1  0  0  0  0
 17 19  1  0  0  0  0
 17 21  1  0  0  0  0
 17 22  1  0  0  0  0
 18 20  1  0  0  0  0
 18 59  1  0  0  0  0
 18 60  1  0  0  0  0
 19 20  1  0  0  0  0
 19 61  1  0  0  0  0
 19 62  1  0  0  0  0
 20 63  1  0  0  0  0
 20 64  1  0  0  0  0
 21 23  1  0  0  0  0
 21 65  1  0  0  0  0
 24 25  1  0  0  0  0
 25 27  1  0  0  0  0
 25 69  1  0  0  0  0
 26 28  1  0  0  0  0
 26 32  1  0  0  0  0
 26 70  1  0  0  0  0
 27 33  1  0  0  0  0
 27 71  1  0  0  0  0
 27 72  1  0  0  0  0
 28 29  1  0  0  0  0
 28 73  1  0  0  0  0
 28 74  1  0  0  0  0
 29 39  1  0  0  0  0
 29 40  1  0  0  0  0
 29 76  1  0  0  0  0
 30 31  1  0  0  0  0
 30 34  1  0  0  0  0
 30 77  1  0  0  0  0
 31 41  1  0  0  0  0
 31 42  1  0  0  0  0
 31 43  1  0  0  0  0
 35 37  1  0  0  0  0
 35 78  1  0  0  0  0
 35 79  1  0  0  0  0
 36 38  1  0  0  0  0
 36 80  1  0  0  0  0
 36 81  1  0  0  0  0
 37 38  1  0  0  0  0
 37 82  1  0  0  0  0
 37 83  1  0  0  0  0
 38 84  1  0  0  0  0
 38 85  1  0  0  0  0
 39 87  1  0  0  0  0
 39 88  1  0  0  0  0
 39 89  1  0  0  0  0
 40 90  1  0  0  0  0
 40 91  1  0  0  0  0
 40 92  1  0  0  0  0
 41 93  1  0  0  0  0
 41 94  1  0  0  0  0
 41 95  1  0  0  0  0
 42 96  1  0  0  0  0
 42 97  1  0  0  0  0
 42 98  1  0  0  0  0
 43 99  1  0  0  0  0
 43100  1  0  0  0  0
 43101  1  0  0  0  0
 44 45  1  0  0  0  0
 44 46  1  0  0  0  0
 44102  1  0  0  0  0
 46 47  1  0  0  0  0
 46 48  1  0  0  0  0
 46104  1  0  0  0  0
 47105  1  0  0  0  0
 47106  1  0  0  0  0
 47107  1  0  0  0  0
 48108  1  0  0  0  0
 48109  1  0  0  0  0
 48110  1  0  0  0  0
 49 51  1  0  0  0  0
 50111  1  0  0  0  0
 50112  1  0  0  0  0
 50113  1  0  0  0  0
 51 52  1  0  0  0  0
 51114  1  0  0  0  0
 51115  1  0  0  0  0
 52 53  1  0  0  0  0
 52116  1  0  0  0  0
 52117  1  0  0  0  0
 53 54  2  0  0  0  0
 53 55  1  0  0  0  0
 54 56  1  0  0  0  0
 54118  1  0  0  0  0
 55 57  2  0  0  0  0
 55119  1  0  0  0  0
 56 58  2  0  0  0  0
 56120  1  0  0  0  0
 57 58  1  0  0  0  0
 57121  1  0  0  0  0
 58122  1  0  0  0  0
M  END
> <PUBCHEM_COMPOUND_CID>
502997
> <PUBCHEM_COMPOUND_CANONICALIZED>
1
> <PUBCHEM_CACTVS_COMPLEXITY>
1490
> <PUBCHEM_CACTVS_HBOND_ACCEPTOR>
10
> <PUBCHEM_CACTVS_HBOND_DONOR>
6
> <PUBCHEM_CACTVS_ROTATABLE_BOND>
21
> <PUBCHEM_CACTVS_SUBSKEYS>
AAADcfB/vAAAAAAAAAAAAAAAAABgAWAAAAAwAAAAAAAAAAABAAAAHgAQCAAADyjBmAQyCIPAAgCIAiHSGAACAAAgAAAIiIGIAIgKYDqA0TCUYAAmlgCYiAe/iICPAAAAAAAAAAAAAAAAAAAAAAAAAAAAAA==
> <PUBCHEM_IUPAC_OPENEYE_NAME>
1-[(1S)-2-[[(1S)-1-carboxy-3-methyl-butyl]amino]-1-[[(2S)-2-[[(2S)-3,3-dimethyl-2-[[(2S)-3-methyl-2-[methyl(3-phenylpropanoyl)amino]butanoyl]amino]butanoyl]amino]-4-oxo-4-pyrrolidin-1-yl-butanoyl]amino]-2-oxo-ethyl]cyclobutanecarboxylic acid
> <PUBCHEM_IUPAC_CAS_NAME>
1-[(1S)-2-[[(1S)-1-carboxy-3-methylbutyl]amino]-1-[[(2S)-2-[[(2S)-3,3-dimethyl-2-[[(2S)-3-methyl-2-[methyl-(1-oxo-3-phenylpropyl)amino]-1-oxobutyl]amino]-1-oxobutyl]amino]-1,4-dioxo-4-(1-pyrrolidinyl)butyl]amino]-2-oxoethyl]-1-cyclobutanecarboxylic acid
> <PUBCHEM_IUPAC_NAME_MARKUP>
1-[(1<I>S</I>)-2-[[(1<I>S</I>)-1-carboxy-3-methylbutyl]amino]-1-[[(2<I>S</I>)-2-[[(2<I>S</I>)-3,3-dimethyl-2-[[(2<I>S</I>)-3-methyl-2-[methyl(3-phenylpropanoyl)amino]butanoyl]amino]butanoyl]amino]-4-oxo-4-pyrrolidin-1-ylbutanoyl]amino]-2-oxoethyl]cyclobutane-1-carboxylic acid
> <PUBCHEM_IUPAC_NAME>
1-[(1S)-2-[[(1S)-1-carboxy-3-methylbutyl]amino]-1-[[(2S)-2-[[(2S)-3,3-dimethyl-2-[[(2S)-3-methyl-2-[methyl(3-phenylpropanoyl)amino]butanoyl]amino]butanoyl]amino]-4-oxo-4-pyrrolidin-1-ylbutanoyl]amino]-2-oxoethyl]cyclobutane-1-carboxylic acid
> <PUBCHEM_IUPAC_SYSTEMATIC_NAME>
1-[(1S)-1-[[(2S)-2-[[(2S)-3,3-dimethyl-2-[[(2S)-3-methyl-2-[methyl(3-phenylpropanoyl)amino]butanoyl]amino]butanoyl]amino]-4-oxidanylidene-4-pyrrolidin-1-yl-butanoyl]amino]-2-[[(2S)-4-methyl-1-oxidanyl-1-oxidanylidene-pentan-2-yl]amino]-2-oxidanylidene-ethyl]cyclobutane-1-carboxylic acid
> <PUBCHEM_IUPAC_TRADITIONAL_NAME>
1-[(1S)-2-[[(1S)-1-carboxy-3-methyl-butyl]amino]-1-[[(2S)-2-[[(2S)-2-[[(2S)-2-[hydrocinnamoyl(methyl)amino]-3-methyl-butanoyl]amino]-3,3-dimethyl-butanoyl]amino]-4-keto-4-pyrrolidino-butanoyl]amino]-2-keto-ethyl]cyclobutanecarboxylic acid
> <PUBCHEM_IUPAC_INCHI>
InChI=1S/C42H64N6O10/c1-25(2)23-29(39(55)56)44-38(54)34(42(40(57)58)19-14-20-42)46-35(51)28(24-31(50)48-21-12-13-22-48)43-37(53)33(41(5,6)7)45-36(52)32(26(3)4)47(8)30(49)18-17-27-15-10-9-11-16-27/h9-11,15-16,25-26,28-29,32-34H,12-14,17-24H2,1-8H3,(H,43,53)(H,44,54)(H,45,52)(H,46,51)(H,55,56)(H,57,58)/t28-,29-,32-,33+,34+/m0/s1
> <PUBCHEM_IUPAC_INCHIKEY>
GOPUKMAJCQTZCP-TYMFJJTRSA-N
> <PUBCHEM_XLOGP3_AA>
3.8
> <PUBCHEM_EXACT_MASS>
812.46839226
> <PUBCHEM_MOLECULAR_FORMULA>
C42H64N6O10
> <PUBCHEM_MOLECULAR_WEIGHT>
813.0
> <PUBCHEM_OPENEYE_CAN_SMILES>
CC(C)CC(C(=O)O)NC(=O)C(C1(CCC1)C(=O)O)NC(=O)C(CC(=O)N2CCCC2)NC(=O)C(C(C)(C)C)NC(=O)C(C(C)C)N(C)C(=O)CCC3=CC=CC=C3
> <PUBCHEM_OPENEYE_ISO_SMILES>
CC(C)C[C@@H](C(=O)O)NC(=O)[C@H](C1(CCC1)C(=O)O)NC(=O)[C@H](CC(=O)N2CCCC2)NC(=O)[C@H](C(C)(C)C)NC(=O)[C@H](C(C)C)N(C)C(=O)CCC3=CC=CC=C3
> <PUBCHEM_CACTVS_TPSA>
232
> <PUBCHEM_MONOISOTOPIC_WEIGHT>
812.46839226
> <PUBCHEM_TOTAL_CHARGE>
0
> <PUBCHEM_HEAVY_ATOM_COUNT>
58
> <PUBCHEM_ATOM_DEF_STEREO_COUNT>
5
> <PUBCHEM_ATOM_UDEF_STEREO_COUNT>
0
> <PUBCHEM_BOND_DEF_STEREO_COUNT>
0
> <PUBCHEM_BOND_UDEF_STEREO_COUNT>
0
> <PUBCHEM_ISOTOPIC_ATOM_COUNT>
0
> <PUBCHEM_COMPONENT_COUNT>
1
> <PUBCHEM_CACTVS_TAUTO_COUNT>
-1
> <PUBCHEM_COORDINATE_TYPE>
1
5
255
> <PUBCHEM_BONDANNOTATIONS>
21  11  6
26  12  5
25  13  5
30  15  6
44  16  5
53  54  8
53  55  8
54  56  8
55  57  8
56  58  8
57  58  8
$$$$
