502957
  -OEChem-10302200282D
137137  0     1  0  0  0  0  0999 V2000
    7.1962   -4.0000    0.0000 O   0  0  0  0  0  0  0  0  0  0  0  0
    6.3301   -0.5000    0.0000 O   0  0  0  0  0  0  0  0  0  0  0  0
    8.0622    2.5000    0.0000 O   0  0  0  0  0  0  0  0  0  0  0  0
    8.9282    2.0000    0.0000 O   0  0  0  0  0  0  0  0  0  0  0  0
    3.7320   -5.0000    0.0000 O   0  0  0  0  0  0  0  0  0  0  0  0
   12.3923    1.0000    0.0000 O   0  0  0  0  0  0  0  0  0  0  0  0
   13.2583   -2.5000    0.0000 O   0  0  0  0  0  0  0  0  0  0  0  0
   11.5263    3.5000    0.0000 O   0  0  0  0  0  0  0  0  0  0  0  0
   12.3923    2.0000    0.0000 O   0  0  0  0  0  0  0  0  0  0  0  0
    6.3301   -2.5000    0.0000 N   0  0  0  0  0  0  0  0  0  0  0  0
    5.4641   -5.0000    0.0000 N   0  0  0  0  0  0  0  0  0  0  0  0
    8.0622   -0.5000    0.0000 N   0  0  0  0  0  0  0  0  0  0  0  0
    9.7942    0.5000    0.0000 N   0  0  0  0  0  0  0  0  0  0  0  0
   11.5263   -0.5000    0.0000 N   0  0  0  0  0  0  0  0  0  0  0  0
   11.5263   -2.5000    0.0000 N   0  0  0  0  0  0  0  0  0  0  0  0
    7.1962   -2.0000    0.0000 C   0  0  1  0  0  0  0  0  0  0  0  0
    8.0622   -2.5000    0.0000 C   0  0  2  0  0  0  0  0  0  0  0  0
    5.4641   -4.0000    0.0000 C   0  0  1  0  0  0  0  0  0  0  0  0
    4.5981   -3.5000    0.0000 C   0  0  0  0  0  0  0  0  0  0  0  0
    8.9282   -2.0000    0.0000 C   0  0  0  0  0  0  0  0  0  0  0  0
    6.3301   -3.5000    0.0000 C   0  0  0  0  0  0  0  0  0  0  0  0
    7.1962   -1.0000    0.0000 C   0  0  0  0  0  0  0  0  0  0  0  0
    8.0622   -3.5000    0.0000 C   0  0  0  0  0  0  0  0  0  0  0  0
    8.0622    0.5000    0.0000 C   0  0  3  0  0  0  0  0  0  0  0  0
    7.1962    1.0000    0.0000 C   0  0  0  0  0  0  0  0  0  0  0  0
    4.5981   -2.5000    0.0000 C   0  0  0  0  0  0  0  0  0  0  0  0
    3.7320   -4.0000    0.0000 C   0  0  0  0  0  0  0  0  0  0  0  0
    5.4641    4.0000    0.0000 C   0  0  0  0  0  0  0  0  0  0  0  0
    9.7942   -2.5000    0.0000 C   0  0  0  0  0  0  0  0  0  0  0  0
    5.4641    5.0000    0.0000 C   0  0  0  0  0  0  0  0  0  0  0  0
    6.3301    3.5000    0.0000 C   0  0  0  0  0  0  0  0  0  0  0  0
    4.5981    5.5000    0.0000 C   0  0  0  0  0  0  0  0  0  0  0  0
    6.3301    2.5000    0.0000 C   0  0  0  0  0  0  0  0  0  0  0  0
    4.5981    6.5000    0.0000 C   0  0  0  0  0  0  0  0  0  0  0  0
    7.1962    2.0000    0.0000 C   0  0  0  0  0  0  0  0  0  0  0  0
    8.9282    1.0000    0.0000 C   0  0  0  0  0  0  0  0  0  0  0  0
    4.5981   -5.5000    0.0000 C   0  0  0  0  0  0  0  0  0  0  0  0
    6.3301   -5.5000    0.0000 C   0  0  0  0  0  0  0  0  0  0  0  0
    3.7320    7.0000    0.0000 C   0  0  0  0  0  0  0  0  0  0  0  0
   10.6603    1.0000    0.0000 C   0  0  2  0  0  0  0  0  0  0  0  0
    3.7320    8.0000    0.0000 C   0  0  0  0  0  0  0  0  0  0  0  0
    4.5981   -6.5000    0.0000 C   0  0  0  0  0  0  0  0  0  0  0  0
   12.3923   -1.0000    0.0000 C   0  0  1  0  0  0  0  0  0  0  0  0
    2.8660    8.5000    0.0000 C   0  0  0  0  0  0  0  0  0  0  0  0
   13.2583   -0.5000    0.0000 C   0  0  0  0  0  0  0  0  0  0  0  0
   14.1244   -1.0000    0.0000 C   0  0  0  0  0  0  0  0  0  0  0  0
    3.7320   -7.0000    0.0000 C   0  0  0  0  0  0  0  0  0  0  0  0
   11.5263    0.5000    0.0000 C   0  0  0  0  0  0  0  0  0  0  0  0
   10.6603    2.0000    0.0000 C   0  0  0  0  0  0  0  0  0  0  0  0
    2.8660    9.5000    0.0000 C   0  0  0  0  0  0  0  0  0  0  0  0
    3.7320   -8.0000    0.0000 C   0  0  0  0  0  0  0  0  0  0  0  0
   14.9904   -0.5000    0.0000 C   0  0  0  0  0  0  0  0  0  0  0  0
   14.1244   -2.0000    0.0000 C   0  0  0  0  0  0  0  0  0  0  0  0
   12.3923   -2.0000    0.0000 C   0  0  0  0  0  0  0  0  0  0  0  0
    2.0000   10.0000    0.0000 C   0  0  0  0  0  0  0  0  0  0  0  0
   11.5263    2.5000    0.0000 C   0  0  0  0  0  0  0  0  0  0  0  0
    4.5981   -8.5000    0.0000 C   0  0  0  0  0  0  0  0  0  0  0  0
    2.8660   -8.5000    0.0000 C   0  0  0  0  0  0  0  0  0  0  0  0
    4.5981   -9.5000    0.0000 C   0  0  0  0  0  0  0  0  0  0  0  0
    2.8660   -9.5000    0.0000 C   0  0  0  0  0  0  0  0  0  0  0  0
    3.7320  -10.0000    0.0000 C   0  0  0  0  0  0  0  0  0  0  0  0
    6.6592   -1.6900    0.0000 H   0  0  0  0  0  0  0  0  0  0  0  0
    7.5252   -2.8100    0.0000 H   0  0  0  0  0  0  0  0  0  0  0  0
    6.0010   -4.3100    0.0000 H   0  0  0  0  0  0  0  0  0  0  0  0
    4.5981   -4.1200    0.0000 H   0  0  0  0  0  0  0  0  0  0  0  0
    9.3267   -1.5250    0.0000 H   0  0  0  0  0  0  0  0  0  0  0  0
    8.5297   -1.5250    0.0000 H   0  0  0  0  0  0  0  0  0  0  0  0
    5.7932   -2.1900    0.0000 H   0  0  0  0  0  0  0  0  0  0  0  0
    7.4422   -3.5000    0.0000 H   0  0  0  0  0  0  0  0  0  0  0  0
    8.0622   -4.1200    0.0000 H   0  0  0  0  0  0  0  0  0  0  0  0
    8.6822   -3.5000    0.0000 H   0  0  0  0  0  0  0  0  0  0  0  0
    7.5252    0.1900    0.0000 H   0  0  0  0  0  0  0  0  0  0  0  0
    8.5991   -0.8100    0.0000 H   0  0  0  0  0  0  0  0  0  0  0  0
    6.5856    1.1077    0.0000 H   0  0  0  0  0  0  0  0  0  0  0  0
    6.9841    0.4174    0.0000 H   0  0  0  0  0  0  0  0  0  0  0  0
    5.2181   -2.5000    0.0000 H   0  0  0  0  0  0  0  0  0  0  0  0
    4.5981   -1.8800    0.0000 H   0  0  0  0  0  0  0  0  0  0  0  0
    3.9781   -2.5000    0.0000 H   0  0  0  0  0  0  0  0  0  0  0  0
    3.4220   -3.4631    0.0000 H   0  0  0  0  0  0  0  0  0  0  0  0
    3.1951   -4.3100    0.0000 H   0  0  0  0  0  0  0  0  0  0  0  0
    4.0420   -4.5369    0.0000 H   0  0  0  0  0  0  0  0  0  0  0  0
    4.8535    4.1077    0.0000 H   0  0  0  0  0  0  0  0  0  0  0  0
    5.2520    3.4174    0.0000 H   0  0  0  0  0  0  0  0  0  0  0  0
    9.4842   -3.0369    0.0000 H   0  0  0  0  0  0  0  0  0  0  0  0
   10.3312   -2.8100    0.0000 H   0  0  0  0  0  0  0  0  0  0  0  0
   10.1042   -1.9631    0.0000 H   0  0  0  0  0  0  0  0  0  0  0  0
    6.0747    4.8923    0.0000 H   0  0  0  0  0  0  0  0  0  0  0  0
    5.6762    5.5826    0.0000 H   0  0  0  0  0  0  0  0  0  0  0  0
    6.9407    3.3923    0.0000 H   0  0  0  0  0  0  0  0  0  0  0  0
    6.5422    4.0826    0.0000 H   0  0  0  0  0  0  0  0  0  0  0  0
    3.9875    5.6077    0.0000 H   0  0  0  0  0  0  0  0  0  0  0  0
    4.3860    4.9174    0.0000 H   0  0  0  0  0  0  0  0  0  0  0  0
    5.7196    2.6077    0.0000 H   0  0  0  0  0  0  0  0  0  0  0  0
    6.1181    1.9174    0.0000 H   0  0  0  0  0  0  0  0  0  0  0  0
    5.2087    6.3923    0.0000 H   0  0  0  0  0  0  0  0  0  0  0  0
    4.8101    7.0826    0.0000 H   0  0  0  0  0  0  0  0  0  0  0  0
    6.0201   -6.0369    0.0000 H   0  0  0  0  0  0  0  0  0  0  0  0
    6.8671   -5.8100    0.0000 H   0  0  0  0  0  0  0  0  0  0  0  0
    6.6401   -4.9631    0.0000 H   0  0  0  0  0  0  0  0  0  0  0  0
    3.1215    7.1077    0.0000 H   0  0  0  0  0  0  0  0  0  0  0  0
    3.5200    6.4174    0.0000 H   0  0  0  0  0  0  0  0  0  0  0  0
   10.6603    0.3800    0.0000 H   0  0  0  0  0  0  0  0  0  0  0  0
    4.3426    7.8923    0.0000 H   0  0  0  0  0  0  0  0  0  0  0  0
    3.9441    8.5826    0.0000 H   0  0  0  0  0  0  0  0  0  0  0  0
    4.8101   -7.0826    0.0000 H   0  0  0  0  0  0  0  0  0  0  0  0
    5.2087   -6.3923    0.0000 H   0  0  0  0  0  0  0  0  0  0  0  0
    9.7942   -0.1200    0.0000 H   0  0  0  0  0  0  0  0  0  0  0  0
   11.8554   -1.3100    0.0000 H   0  0  0  0  0  0  0  0  0  0  0  0
    2.2554    8.6077    0.0000 H   0  0  0  0  0  0  0  0  0  0  0  0
    2.6540    7.9174    0.0000 H   0  0  0  0  0  0  0  0  0  0  0  0
   13.6569   -0.0251    0.0000 H   0  0  0  0  0  0  0  0  0  0  0  0
   12.8598   -0.0251    0.0000 H   0  0  0  0  0  0  0  0  0  0  0  0
   13.5874   -1.3100    0.0000 H   0  0  0  0  0  0  0  0  0  0  0  0
    3.5200   -6.4174    0.0000 H   0  0  0  0  0  0  0  0  0  0  0  0
    3.1215   -7.1077    0.0000 H   0  0  0  0  0  0  0  0  0  0  0  0
   10.4482    2.5826    0.0000 H   0  0  0  0  0  0  0  0  0  0  0  0
   10.0497    1.8923    0.0000 H   0  0  0  0  0  0  0  0  0  0  0  0
   10.9893   -0.8100    0.0000 H   0  0  0  0  0  0  0  0  0  0  0  0
    3.4766    9.3923    0.0000 H   0  0  0  0  0  0  0  0  0  0  0  0
    3.0781   10.0826    0.0000 H   0  0  0  0  0  0  0  0  0  0  0  0
   15.3004   -1.0369    0.0000 H   0  0  0  0  0  0  0  0  0  0  0  0
   15.5273   -0.1900    0.0000 H   0  0  0  0  0  0  0  0  0  0  0  0
   14.6804    0.0369    0.0000 H   0  0  0  0  0  0  0  0  0  0  0  0
   13.5044   -2.0000    0.0000 H   0  0  0  0  0  0  0  0  0  0  0  0
   14.1244   -2.6200    0.0000 H   0  0  0  0  0  0  0  0  0  0  0  0
   14.7444   -2.0000    0.0000 H   0  0  0  0  0  0  0  0  0  0  0  0
    2.3100   10.5369    0.0000 H   0  0  0  0  0  0  0  0  0  0  0  0
    1.4631   10.3100    0.0000 H   0  0  0  0  0  0  0  0  0  0  0  0
    1.6900    9.4631    0.0000 H   0  0  0  0  0  0  0  0  0  0  0  0
    5.1350   -8.1900    0.0000 H   0  0  0  0  0  0  0  0  0  0  0  0
    2.3291   -8.1900    0.0000 H   0  0  0  0  0  0  0  0  0  0  0  0
   11.5263   -3.1200    0.0000 H   0  0  0  0  0  0  0  0  0  0  0  0
   10.9893   -2.1900    0.0000 H   0  0  0  0  0  0  0  0  0  0  0  0
    5.1350   -9.8100    0.0000 H   0  0  0  0  0  0  0  0  0  0  0  0
    2.3291   -9.8100    0.0000 H   0  0  0  0  0  0  0  0  0  0  0  0
    3.7320  -10.6200    0.0000 H   0  0  0  0  0  0  0  0  0  0  0  0
   12.0632    3.8100    0.0000 H   0  0  0  0  0  0  0  0  0  0  0  0
  1 21  2  0  0  0  0
  2 22  2  0  0  0  0
  3 35  2  0  0  0  0
  4 36  2  0  0  0  0
  5 37  2  0  0  0  0
  6 48  2  0  0  0  0
  7 54  2  0  0  0  0
  8 56  1  0  0  0  0
  8137  1  0  0  0  0
  9 56  2  0  0  0  0
 16 10  1  6  0  0  0
 10 21  1  0  0  0  0
 10 68  1  0  0  0  0
 18 11  1  1  0  0  0
 11 37  1  0  0  0  0
 11 38  1  0  0  0  0
 12 22  1  0  0  0  0
 12 24  1  0  0  0  0
 12 73  1  0  0  0  0
 13 36  1  0  0  0  0
 40 13  1  1  0  0  0
 13107  1  0  0  0  0
 43 14  1  1  0  0  0
 14 48  1  0  0  0  0
 14118  1  0  0  0  0
 15 54  1  0  0  0  0
 15132  1  0  0  0  0
 15133  1  0  0  0  0
 16 17  1  0  0  0  0
 16 22  1  0  0  0  0
 16 62  1  0  0  0  0
 17 20  1  0  0  0  0
 17 23  1  6  0  0  0
 17 63  1  0  0  0  0
 18 19  1  0  0  0  0
 18 21  1  0  0  0  0
 18 64  1  0  0  0  0
 19 26  1  0  0  0  0
 19 27  1  0  0  0  0
 19 65  1  0  0  0  0
 20 29  1  0  0  0  0
 20 66  1  0  0  0  0
 20 67  1  0  0  0  0
 23 69  1  0  0  0  0
 23 70  1  0  0  0  0
 23 71  1  0  0  0  0
 24 25  1  0  0  0  0
 24 36  1  0  0  0  0
 24 72  1  0  0  0  0
 25 35  1  0  0  0  0
 25 74  1  0  0  0  0
 25 75  1  0  0  0  0
 26 76  1  0  0  0  0
 26 77  1  0  0  0  0
 26 78  1  0  0  0  0
 27 79  1  0  0  0  0
 27 80  1  0  0  0  0
 27 81  1  0  0  0  0
 28 30  1  0  0  0  0
 28 31  1  0  0  0  0
 28 82  1  0  0  0  0
 28 83  1  0  0  0  0
 29 84  1  0  0  0  0
 29 85  1  0  0  0  0
 29 86  1  0  0  0  0
 30 32  1  0  0  0  0
 30 87  1  0  0  0  0
 30 88  1  0  0  0  0
 31 33  1  0  0  0  0
 31 89  1  0  0  0  0
 31 90  1  0  0  0  0
 32 34  1  0  0  0  0
 32 91  1  0  0  0  0
 32 92  1  0  0  0  0
 33 35  1  0  0  0  0
 33 93  1  0  0  0  0
 33 94  1  0  0  0  0
 34 39  1  0  0  0  0
 34 95  1  0  0  0  0
 34 96  1  0  0  0  0
 37 42  1  0  0  0  0
 38 97  1  0  0  0  0
 38 98  1  0  0  0  0
 38 99  1  0  0  0  0
 39 41  1  0  0  0  0
 39100  1  0  0  0  0
 39101  1  0  0  0  0
 40 48  1  0  0  0  0
 40 49  1  0  0  0  0
 40102  1  0  0  0  0
 41 44  1  0  0  0  0
 41103  1  0  0  0  0
 41104  1  0  0  0  0
 42 47  1  0  0  0  0
 42105  1  0  0  0  0
 42106  1  0  0  0  0
 43 45  1  0  0  0  0
 43 54  1  0  0  0  0
 43108  1  0  0  0  0
 44 50  1  0  0  0  0
 44109  1  0  0  0  0
 44110  1  0  0  0  0
 45 46  1  0  0  0  0
 45111  1  0  0  0  0
 45112  1  0  0  0  0
 46 52  1  0  0  0  0
 46 53  1  0  0  0  0
 46113  1  0  0  0  0
 47 51  1  0  0  0  0
 47114  1  0  0  0  0
 47115  1  0  0  0  0
 49 56  1  0  0  0  0
 49116  1  0  0  0  0
 49117  1  0  0  0  0
 50 55  1  0  0  0  0
 50119  1  0  0  0  0
 50120  1  0  0  0  0
 51 57  2  0  0  0  0
 51 58  1  0  0  0  0
 52121  1  0  0  0  0
 52122  1  0  0  0  0
 52123  1  0  0  0  0
 53124  1  0  0  0  0
 53125  1  0  0  0  0
 53126  1  0  0  0  0
 55127  1  0  0  0  0
 55128  1  0  0  0  0
 55129  1  0  0  0  0
 57 59  1  0  0  0  0
 57130  1  0  0  0  0
 58 60  2  0  0  0  0
 58131  1  0  0  0  0
 59 61  2  0  0  0  0
 59134  1  0  0  0  0
 60 61  1  0  0  0  0
 60135  1  0  0  0  0
 61136  1  0  0  0  0
M  END
> <PUBCHEM_COMPOUND_CID>
502957
> <PUBCHEM_COMPOUND_CANONICALIZED>
1
> <PUBCHEM_CACTVS_COMPLEXITY>
1400
> <PUBCHEM_CACTVS_HBOND_ACCEPTOR>
9
> <PUBCHEM_CACTVS_HBOND_DONOR>
6
> <PUBCHEM_CACTVS_ROTATABLE_BOND>
32
> <PUBCHEM_CACTVS_SUBSKEYS>
AAADcfB/vAAAAAAAAAAAAAAAAAAAAAAAAAAwAAAAAAAAAAABAAAAHgAQCAAADSzBmAQyCIPAAgCIAqHSGAACAAAgAAAIiIGIAIgIYDqAkTCUYAAmlgCIiAc/iICOAAAAAAAAAAAAAAAAAAAAAAAAAAAAAA==
> <PUBCHEM_IUPAC_OPENEYE_NAME>
(3S)-4-[[(1S)-1-carbamoyl-3-methyl-butyl]amino]-3-[[2-[[(2S,3S)-3-methyl-2-[[(2S)-3-methyl-2-[methyl(3-phenylpropanoyl)amino]butanoyl]amino]pentanoyl]amino]-4-oxo-pentadecanoyl]amino]-4-oxo-butanoic acid
> <PUBCHEM_IUPAC_CAS_NAME>
(3S)-4-[[(2S)-1-amino-4-methyl-1-oxopentan-2-yl]amino]-3-[[2-[[(2S,3S)-3-methyl-2-[[(2S)-3-methyl-2-[methyl-(1-oxo-3-phenylpropyl)amino]-1-oxobutyl]amino]-1-oxopentyl]amino]-1,4-dioxopentadecyl]amino]-4-oxobutanoic acid
> <PUBCHEM_IUPAC_NAME_MARKUP>
(3<I>S</I>)-4-[[(2<I>S</I>)-1-amino-4-methyl-1-oxopentan-2-yl]amino]-3-[[2-[[(2<I>S</I>,3<I>S</I>)-3-methyl-2-[[(2<I>S</I>)-3-methyl-2-[methyl(3-phenylpropanoyl)amino]butanoyl]amino]pentanoyl]amino]-4-oxopentadecanoyl]amino]-4-oxobutanoic acid
> <PUBCHEM_IUPAC_NAME>
(3S)-4-[[(2S)-1-amino-4-methyl-1-oxopentan-2-yl]amino]-3-[[2-[[(2S,3S)-3-methyl-2-[[(2S)-3-methyl-2-[methyl(3-phenylpropanoyl)amino]butanoyl]amino]pentanoyl]amino]-4-oxopentadecanoyl]amino]-4-oxobutanoic acid
> <PUBCHEM_IUPAC_SYSTEMATIC_NAME>
(3S)-4-[[(2S)-1-azanyl-4-methyl-1-oxidanylidene-pentan-2-yl]amino]-3-[[2-[[(2S,3S)-3-methyl-2-[[(2S)-3-methyl-2-[methyl(3-phenylpropanoyl)amino]butanoyl]amino]pentanoyl]amino]-4-oxidanylidene-pentadecanoyl]amino]-4-oxidanylidene-butanoic acid
> <PUBCHEM_IUPAC_TRADITIONAL_NAME>
(3S)-4-[[(1S)-1-carbamoyl-3-methyl-butyl]amino]-3-[[2-[[(2S,3S)-2-[[(2S)-2-[hydrocinnamoyl(methyl)amino]-3-methyl-butanoyl]amino]-3-methyl-pentanoyl]amino]-4-keto-pentadecanoyl]amino]-4-keto-butyric acid
> <PUBCHEM_IUPAC_INCHI>
InChI=1S/C46H76N6O9/c1-9-11-12-13-14-15-16-17-21-24-34(53)28-36(43(58)49-37(29-39(55)56)44(59)48-35(42(47)57)27-30(3)4)50-45(60)40(32(7)10-2)51-46(61)41(31(5)6)52(8)38(54)26-25-33-22-19-18-20-23-33/h18-20,22-23,30-32,35-37,40-41H,9-17,21,24-29H2,1-8H3,(H2,47,57)(H,48,59)(H,49,58)(H,50,60)(H,51,61)(H,55,56)/t32-,35-,36?,37-,40-,41-/m0/s1
> <PUBCHEM_IUPAC_INCHIKEY>
HBINUTJPLSLNTN-OJWMTORWSA-N
> <PUBCHEM_XLOGP3_AA>
7.1
> <PUBCHEM_EXACT_MASS>
856.56737802
> <PUBCHEM_MOLECULAR_FORMULA>
C46H76N6O9
> <PUBCHEM_MOLECULAR_WEIGHT>
857.1
> <PUBCHEM_OPENEYE_CAN_SMILES>
CCCCCCCCCCCC(=O)CC(C(=O)NC(CC(=O)O)C(=O)NC(CC(C)C)C(=O)N)NC(=O)C(C(C)CC)NC(=O)C(C(C)C)N(C)C(=O)CCC1=CC=CC=C1
> <PUBCHEM_OPENEYE_ISO_SMILES>
CCCCCCCCCCCC(=O)CC(C(=O)N[C@@H](CC(=O)O)C(=O)N[C@@H](CC(C)C)C(=O)N)NC(=O)[C@H]([C@@H](C)CC)NC(=O)[C@H](C(C)C)N(C)C(=O)CCC1=CC=CC=C1
> <PUBCHEM_CACTVS_TPSA>
234
> <PUBCHEM_MONOISOTOPIC_WEIGHT>
856.56737802
> <PUBCHEM_TOTAL_CHARGE>
0
> <PUBCHEM_HEAVY_ATOM_COUNT>
61
> <PUBCHEM_ATOM_DEF_STEREO_COUNT>
5
> <PUBCHEM_ATOM_UDEF_STEREO_COUNT>
1
> <PUBCHEM_BOND_DEF_STEREO_COUNT>
0
> <PUBCHEM_BOND_UDEF_STEREO_COUNT>
0
> <PUBCHEM_ISOTOPIC_ATOM_COUNT>
0
> <PUBCHEM_COMPONENT_COUNT>
1
> <PUBCHEM_CACTVS_TAUTO_COUNT>
-1
> <PUBCHEM_COORDINATE_TYPE>
1
5
255
> <PUBCHEM_BONDANNOTATIONS>
16  10  6
18  11  5
40  13  5
43  14  5
17  23  6
24  25  3
51  57  8
51  58  8
57  59  8
58  60  8
59  61  8
60  61  8
$$$$
