502991
  -OEChem-10302200282D
129130  0     1  0  0  0  0  0999 V2000
    8.9282   -0.5000    0.0000 O   0  0  0  0  0  0  0  0  0  0  0  0
   11.5263    2.0000    0.0000 O   0  0  0  0  0  0  0  0  0  0  0  0
   14.1244    5.5000    0.0000 O   0  0  0  0  0  0  0  0  0  0  0  0
   14.9904    1.0000    0.0000 O   0  0  0  0  0  0  0  0  0  0  0  0
    6.3301    2.0000    0.0000 O   0  0  0  0  0  0  0  0  0  0  0  0
   14.9904    2.0000    0.0000 O   0  0  0  0  0  0  0  0  0  0  0  0
   15.8564   -2.5000    0.0000 O   0  0  0  0  0  0  0  0  0  0  0  0
   13.2583   -5.0000    0.0000 O   0  0  0  0  0  0  0  0  0  0  0  0
   17.5885   -0.5000    0.0000 O   0  0  0  0  0  0  0  0  0  0  0  0
   16.7224   -2.0000    0.0000 O   0  0  0  0  0  0  0  0  0  0  0  0
    9.7942    1.0000    0.0000 N   0  0  0  0  0  0  0  0  0  0  0  0
    7.1962    0.5000    0.0000 N   0  0  0  0  0  0  0  0  0  0  0  0
   12.3923    0.5000    0.0000 N   0  0  0  0  0  0  0  0  0  0  0  0
   14.1244    3.5000    0.0000 N   0  0  0  0  0  0  0  0  0  0  0  0
   14.1244   -0.5000    0.0000 N   0  0  0  0  0  0  0  0  0  0  0  0
   14.1244   -2.5000    0.0000 N   0  0  0  0  0  0  0  0  0  0  0  0
   12.3923   -3.5000    0.0000 N   0  0  0  0  0  0  0  0  0  0  0  0
   10.6603    0.5000    0.0000 C   0  0  1  0  0  0  0  0  0  0  0  0
   10.6603   -0.5000    0.0000 C   0  0  2  0  0  0  0  0  0  0  0  0
    8.0622    1.0000    0.0000 C   0  0  1  0  0  0  0  0  0  0  0  0
    8.0622    2.0000    0.0000 C   0  0  0  0  0  0  0  0  0  0  0  0
    9.7942   -1.0000    0.0000 C   0  0  0  0  0  0  0  0  0  0  0  0
    8.9282    0.5000    0.0000 C   0  0  0  0  0  0  0  0  0  0  0  0
   11.5263    1.0000    0.0000 C   0  0  0  0  0  0  0  0  0  0  0  0
   13.2583    1.0000    0.0000 C   0  0  1  0  0  0  0  0  0  0  0  0
   11.5263   -1.0000    0.0000 C   0  0  0  0  0  0  0  0  0  0  0  0
   13.2583    2.0000    0.0000 C   0  0  0  0  0  0  0  0  0  0  0  0
    7.1962    2.5000    0.0000 C   0  0  0  0  0  0  0  0  0  0  0  0
    8.9282    2.5000    0.0000 C   0  0  0  0  0  0  0  0  0  0  0  0
   14.1244   -3.5000    0.0000 C   0  0  1  0  0  0  0  0  0  0  0  0
    9.7942   -2.0000    0.0000 C   0  0  0  0  0  0  0  0  0  0  0  0
   14.9904   -4.0000    0.0000 C   0  0  0  0  0  0  0  0  0  0  0  0
   14.9904   -5.0000    0.0000 C   0  0  0  0  0  0  0  0  0  0  0  0
   14.1244    0.5000    0.0000 C   0  0  0  0  0  0  0  0  0  0  0  0
   14.9904   -1.0000    0.0000 C   0  0  2  0  0  0  0  0  0  0  0  0
    6.3301    1.0000    0.0000 C   0  0  0  0  0  0  0  0  0  0  0  0
   14.1244    2.5000    0.0000 C   0  0  0  0  0  0  0  0  0  0  0  0
    7.1962   -0.5000    0.0000 C   0  0  0  0  0  0  0  0  0  0  0  0
   14.9904    4.0000    0.0000 C   0  0  0  0  0  0  0  0  0  0  0  0
   13.2583    4.0000    0.0000 C   0  0  0  0  0  0  0  0  0  0  0  0
   14.9904   -2.0000    0.0000 C   0  0  0  0  0  0  0  0  0  0  0  0
   13.2583   -4.0000    0.0000 C   0  0  0  0  0  0  0  0  0  0  0  0
    5.4641    0.5000    0.0000 C   0  0  0  0  0  0  0  0  0  0  0  0
   15.8564   -0.5000    0.0000 C   0  0  0  0  0  0  0  0  0  0  0  0
   15.8564   -5.5000    0.0000 C   0  0  0  0  0  0  0  0  0  0  0  0
   14.1244   -5.5000    0.0000 C   0  0  0  0  0  0  0  0  0  0  0  0
   14.9904    5.0000    0.0000 C   0  0  0  0  0  0  0  0  0  0  0  0
   13.2583    5.0000    0.0000 C   0  0  0  0  0  0  0  0  0  0  0  0
    4.5981    1.0000    0.0000 C   0  0  0  0  0  0  0  0  0  0  0  0
   11.5263   -4.0000    0.0000 C   0  0  0  0  0  0  0  0  0  0  0  0
   12.3923   -2.5000    0.0000 C   0  0  0  0  0  0  0  0  0  0  0  0
    3.7320    0.5000    0.0000 C   0  0  0  0  0  0  0  0  0  0  0  0
   16.7224   -1.0000    0.0000 C   0  0  0  0  0  0  0  0  0  0  0  0
   10.6603   -3.5000    0.0000 C   0  0  0  0  0  0  0  0  0  0  0  0
   11.5263   -2.0000    0.0000 C   0  0  0  0  0  0  0  0  0  0  0  0
    2.8660    1.0000    0.0000 C   0  0  0  0  0  0  0  0  0  0  0  0
    3.7320   -0.5000    0.0000 C   0  0  0  0  0  0  0  0  0  0  0  0
    2.0000    0.5000    0.0000 C   0  0  0  0  0  0  0  0  0  0  0  0
    2.8660   -1.0000    0.0000 C   0  0  0  0  0  0  0  0  0  0  0  0
    2.0000   -0.5000    0.0000 C   0  0  0  0  0  0  0  0  0  0  0  0
   10.6603    1.1200    0.0000 H   0  0  0  0  0  0  0  0  0  0  0  0
   11.1972   -0.1900    0.0000 H   0  0  0  0  0  0  0  0  0  0  0  0
    8.0622    0.3800    0.0000 H   0  0  0  0  0  0  0  0  0  0  0  0
    8.0622    2.6200    0.0000 H   0  0  0  0  0  0  0  0  0  0  0  0
    9.5822   -0.4174    0.0000 H   0  0  0  0  0  0  0  0  0  0  0  0
    9.1836   -1.1077    0.0000 H   0  0  0  0  0  0  0  0  0  0  0  0
    9.7942    1.6200    0.0000 H   0  0  0  0  0  0  0  0  0  0  0  0
   13.2583    0.3800    0.0000 H   0  0  0  0  0  0  0  0  0  0  0  0
   11.2163   -1.5369    0.0000 H   0  0  0  0  0  0  0  0  0  0  0  0
   12.0632   -1.3100    0.0000 H   0  0  0  0  0  0  0  0  0  0  0  0
   11.8363   -0.4631    0.0000 H   0  0  0  0  0  0  0  0  0  0  0  0
   12.3923   -0.1200    0.0000 H   0  0  0  0  0  0  0  0  0  0  0  0
   13.0463    2.5826    0.0000 H   0  0  0  0  0  0  0  0  0  0  0  0
   12.6477    1.8923    0.0000 H   0  0  0  0  0  0  0  0  0  0  0  0
    7.5062    3.0369    0.0000 H   0  0  0  0  0  0  0  0  0  0  0  0
    6.6592    2.8100    0.0000 H   0  0  0  0  0  0  0  0  0  0  0  0
    6.8862    1.9631    0.0000 H   0  0  0  0  0  0  0  0  0  0  0  0
    9.2382    1.9631    0.0000 H   0  0  0  0  0  0  0  0  0  0  0  0
    9.4651    2.8100    0.0000 H   0  0  0  0  0  0  0  0  0  0  0  0
    8.6182    3.0369    0.0000 H   0  0  0  0  0  0  0  0  0  0  0  0
   13.5874   -3.1900    0.0000 H   0  0  0  0  0  0  0  0  0  0  0  0
   15.6010   -4.1077    0.0000 H   0  0  0  0  0  0  0  0  0  0  0  0
   15.2024   -3.4174    0.0000 H   0  0  0  0  0  0  0  0  0  0  0  0
    9.1742   -2.0000    0.0000 H   0  0  0  0  0  0  0  0  0  0  0  0
    9.7942   -2.6200    0.0000 H   0  0  0  0  0  0  0  0  0  0  0  0
   10.4142   -2.0000    0.0000 H   0  0  0  0  0  0  0  0  0  0  0  0
   15.5273   -4.6900    0.0000 H   0  0  0  0  0  0  0  0  0  0  0  0
   14.9904   -0.3800    0.0000 H   0  0  0  0  0  0  0  0  0  0  0  0
    6.5762   -0.5000    0.0000 H   0  0  0  0  0  0  0  0  0  0  0  0
    7.1962   -1.1200    0.0000 H   0  0  0  0  0  0  0  0  0  0  0  0
    7.8162   -0.5000    0.0000 H   0  0  0  0  0  0  0  0  0  0  0  0
   13.5874   -0.8100    0.0000 H   0  0  0  0  0  0  0  0  0  0  0  0
   13.5874   -2.1900    0.0000 H   0  0  0  0  0  0  0  0  0  0  0  0
   15.2024    3.4174    0.0000 H   0  0  0  0  0  0  0  0  0  0  0  0
   15.6010    4.1077    0.0000 H   0  0  0  0  0  0  0  0  0  0  0  0
   12.6477    4.1077    0.0000 H   0  0  0  0  0  0  0  0  0  0  0  0
   13.0463    3.4174    0.0000 H   0  0  0  0  0  0  0  0  0  0  0  0
    5.0656    0.0251    0.0000 H   0  0  0  0  0  0  0  0  0  0  0  0
    5.8626    0.0251    0.0000 H   0  0  0  0  0  0  0  0  0  0  0  0
   16.2549   -0.0251    0.0000 H   0  0  0  0  0  0  0  0  0  0  0  0
   15.4579   -0.0251    0.0000 H   0  0  0  0  0  0  0  0  0  0  0  0
   15.5464   -6.0369    0.0000 H   0  0  0  0  0  0  0  0  0  0  0  0
   16.3933   -5.8100    0.0000 H   0  0  0  0  0  0  0  0  0  0  0  0
   16.1664   -4.9631    0.0000 H   0  0  0  0  0  0  0  0  0  0  0  0
   13.8144   -4.9631    0.0000 H   0  0  0  0  0  0  0  0  0  0  0  0
   13.5874   -5.8100    0.0000 H   0  0  0  0  0  0  0  0  0  0  0  0
   14.4344   -6.0369    0.0000 H   0  0  0  0  0  0  0  0  0  0  0  0
   15.6010    4.8923    0.0000 H   0  0  0  0  0  0  0  0  0  0  0  0
   15.2024    5.5826    0.0000 H   0  0  0  0  0  0  0  0  0  0  0  0
   13.0463    5.5826    0.0000 H   0  0  0  0  0  0  0  0  0  0  0  0
   12.6477    4.8923    0.0000 H   0  0  0  0  0  0  0  0  0  0  0  0
    4.9966    1.4750    0.0000 H   0  0  0  0  0  0  0  0  0  0  0  0
    4.1996    1.4750    0.0000 H   0  0  0  0  0  0  0  0  0  0  0  0
   11.1278   -4.4750    0.0000 H   0  0  0  0  0  0  0  0  0  0  0  0
   11.9248   -4.4750    0.0000 H   0  0  0  0  0  0  0  0  0  0  0  0
   13.0029   -2.6077    0.0000 H   0  0  0  0  0  0  0  0  0  0  0  0
   12.6044   -1.9174    0.0000 H   0  0  0  0  0  0  0  0  0  0  0  0
   10.9703   -2.9631    0.0000 H   0  0  0  0  0  0  0  0  0  0  0  0
   10.1233   -3.1900    0.0000 H   0  0  0  0  0  0  0  0  0  0  0  0
   10.3503   -4.0369    0.0000 H   0  0  0  0  0  0  0  0  0  0  0  0
   11.8363   -1.4631    0.0000 H   0  0  0  0  0  0  0  0  0  0  0  0
   10.9893   -1.6900    0.0000 H   0  0  0  0  0  0  0  0  0  0  0  0
   11.2163   -2.5369    0.0000 H   0  0  0  0  0  0  0  0  0  0  0  0
    2.8660    1.6200    0.0000 H   0  0  0  0  0  0  0  0  0  0  0  0
    4.2690   -0.8100    0.0000 H   0  0  0  0  0  0  0  0  0  0  0  0
   18.1254   -0.8100    0.0000 H   0  0  0  0  0  0  0  0  0  0  0  0
    1.4631    0.8100    0.0000 H   0  0  0  0  0  0  0  0  0  0  0  0
    2.8660   -1.6200    0.0000 H   0  0  0  0  0  0  0  0  0  0  0  0
    1.4631   -0.8100    0.0000 H   0  0  0  0  0  0  0  0  0  0  0  0
  1 23  2  0  0  0  0
  2 24  2  0  0  0  0
  3 47  1  0  0  0  0
  3 48  1  0  0  0  0
  4 34  2  0  0  0  0
  5 36  2  0  0  0  0
  6 37  2  0  0  0  0
  7 41  2  0  0  0  0
  8 42  2  0  0  0  0
  9 53  1  0  0  0  0
  9126  1  0  0  0  0
 10 53  2  0  0  0  0
 18 11  1  6  0  0  0
 11 23  1  0  0  0  0
 11 67  1  0  0  0  0
 20 12  1  1  0  0  0
 12 36  1  0  0  0  0
 12 38  1  0  0  0  0
 13 24  1  0  0  0  0
 25 13  1  1  0  0  0
 13 72  1  0  0  0  0
 14 37  1  0  0  0  0
 14 39  1  0  0  0  0
 14 40  1  0  0  0  0
 15 34  1  0  0  0  0
 35 15  1  1  0  0  0
 15 92  1  0  0  0  0
 30 16  1  1  0  0  0
 16 41  1  0  0  0  0
 16 93  1  0  0  0  0
 17 42  1  0  0  0  0
 17 50  1  0  0  0  0
 17 51  1  0  0  0  0
 18 19  1  0  0  0  0
 18 24  1  0  0  0  0
 18 61  1  0  0  0  0
 19 22  1  0  0  0  0
 19 26  1  1  0  0  0
 19 62  1  0  0  0  0
 20 21  1  0  0  0  0
 20 23  1  0  0  0  0
 20 63  1  0  0  0  0
 21 28  1  0  0  0  0
 21 29  1  0  0  0  0
 21 64  1  0  0  0  0
 22 31  1  0  0  0  0
 22 65  1  0  0  0  0
 22 66  1  0  0  0  0
 25 27  1  0  0  0  0
 25 34  1  0  0  0  0
 25 68  1  0  0  0  0
 26 69  1  0  0  0  0
 26 70  1  0  0  0  0
 26 71  1  0  0  0  0
 27 37  1  0  0  0  0
 27 73  1  0  0  0  0
 27 74  1  0  0  0  0
 28 75  1  0  0  0  0
 28 76  1  0  0  0  0
 28 77  1  0  0  0  0
 29 78  1  0  0  0  0
 29 79  1  0  0  0  0
 29 80  1  0  0  0  0
 30 32  1  0  0  0  0
 30 42  1  0  0  0  0
 30 81  1  0  0  0  0
 31 84  1  0  0  0  0
 31 85  1  0  0  0  0
 31 86  1  0  0  0  0
 32 33  1  0  0  0  0
 32 82  1  0  0  0  0
 32 83  1  0  0  0  0
 33 45  1  0  0  0  0
 33 46  1  0  0  0  0
 33 87  1  0  0  0  0
 35 41  1  0  0  0  0
 35 44  1  0  0  0  0
 35 88  1  0  0  0  0
 36 43  1  0  0  0  0
 38 89  1  0  0  0  0
 38 90  1  0  0  0  0
 38 91  1  0  0  0  0
 39 47  1  0  0  0  0
 39 94  1  0  0  0  0
 39 95  1  0  0  0  0
 40 48  1  0  0  0  0
 40 96  1  0  0  0  0
 40 97  1  0  0  0  0
 43 49  1  0  0  0  0
 43 98  1  0  0  0  0
 43 99  1  0  0  0  0
 44 53  1  0  0  0  0
 44100  1  0  0  0  0
 44101  1  0  0  0  0
 45102  1  0  0  0  0
 45103  1  0  0  0  0
 45104  1  0  0  0  0
 46105  1  0  0  0  0
 46106  1  0  0  0  0
 46107  1  0  0  0  0
 47108  1  0  0  0  0
 47109  1  0  0  0  0
 48110  1  0  0  0  0
 48111  1  0  0  0  0
 49 52  1  0  0  0  0
 49112  1  0  0  0  0
 49113  1  0  0  0  0
 50 54  1  0  0  0  0
 50114  1  0  0  0  0
 50115  1  0  0  0  0
 51 55  1  0  0  0  0
 51116  1  0  0  0  0
 51117  1  0  0  0  0
 52 56  2  0  0  0  0
 52 57  1  0  0  0  0
 54118  1  0  0  0  0
 54119  1  0  0  0  0
 54120  1  0  0  0  0
 55121  1  0  0  0  0
 55122  1  0  0  0  0
 55123  1  0  0  0  0
 56 58  1  0  0  0  0
 56124  1  0  0  0  0
 57 59  2  0  0  0  0
 57125  1  0  0  0  0
 58 60  2  0  0  0  0
 58127  1  0  0  0  0
 59 60  1  0  0  0  0
 59128  1  0  0  0  0
 60129  1  0  0  0  0
M  END
> <PUBCHEM_COMPOUND_CID>
502991
> <PUBCHEM_COMPOUND_CANONICALIZED>
1
> <PUBCHEM_CACTVS_COMPLEXITY>
1440
> <PUBCHEM_CACTVS_HBOND_ACCEPTOR>
10
> <PUBCHEM_CACTVS_HBOND_DONOR>
5
> <PUBCHEM_CACTVS_ROTATABLE_BOND>
24
> <PUBCHEM_CACTVS_SUBSKEYS>
AAADcfB/vAAAAAAAAAAAAAAAAAAAAAAAAAA8QAAAAAAAAAABAAAAHgAQCAAADSjhmAYyCIPABgCIAiHSGAACAAAgAAAIiIGIAIgKYDqA0TCXYAAmlgCYiAc/iICOAAAAAAAAAAAAAAAAAAAAAAAAAAAAAA==
> <PUBCHEM_IUPAC_OPENEYE_NAME>
(3S)-4-[[(1S)-1-(diethylcarbamoyl)-3-methyl-butyl]amino]-3-[[(2S)-2-[[(2S,3S)-3-methyl-2-[[(2S)-3-methyl-2-[methyl(3-phenylpropanoyl)amino]butanoyl]amino]pentanoyl]amino]-4-morpholino-4-oxo-butanoyl]amino]-4-oxo-butanoic acid
> <PUBCHEM_IUPAC_CAS_NAME>
(3S)-4-[[(2S)-1-(diethylamino)-4-methyl-1-oxopentan-2-yl]amino]-3-[[(2S)-2-[[(2S,3S)-3-methyl-2-[[(2S)-3-methyl-2-[methyl-(1-oxo-3-phenylpropyl)amino]-1-oxobutyl]amino]-1-oxopentyl]amino]-4-(4-morpholinyl)-1,4-dioxobutyl]amino]-4-oxobutanoic acid
> <PUBCHEM_IUPAC_NAME_MARKUP>
(3<I>S</I>)-4-[[(2<I>S</I>)-1-(diethylamino)-4-methyl-1-oxopentan-2-yl]amino]-3-[[(2<I>S</I>)-2-[[(2<I>S</I>,3<I>S</I>)-3-methyl-2-[[(2<I>S</I>)-3-methyl-2-[methyl(3-phenylpropanoyl)amino]butanoyl]amino]pentanoyl]amino]-4-morpholin-4-yl-4-oxobutanoyl]amino]-4-oxobutanoic acid
> <PUBCHEM_IUPAC_NAME>
(3S)-4-[[(2S)-1-(diethylamino)-4-methyl-1-oxopentan-2-yl]amino]-3-[[(2S)-2-[[(2S,3S)-3-methyl-2-[[(2S)-3-methyl-2-[methyl(3-phenylpropanoyl)amino]butanoyl]amino]pentanoyl]amino]-4-morpholin-4-yl-4-oxobutanoyl]amino]-4-oxobutanoic acid
> <PUBCHEM_IUPAC_SYSTEMATIC_NAME>
(3S)-4-[[(2S)-1-(diethylamino)-4-methyl-1-oxidanylidene-pentan-2-yl]amino]-3-[[(2S)-2-[[(2S,3S)-3-methyl-2-[[(2S)-3-methyl-2-[methyl(3-phenylpropanoyl)amino]butanoyl]amino]pentanoyl]amino]-4-morpholin-4-yl-4-oxidanylidene-butanoyl]amino]-4-oxidanylidene-butanoic acid
> <PUBCHEM_IUPAC_TRADITIONAL_NAME>
(3S)-4-[[(1S)-1-(diethylcarbamoyl)-3-methyl-butyl]amino]-3-[[(2S)-2-[[(2S,3S)-2-[[(2S)-2-[hydrocinnamoyl(methyl)amino]-3-methyl-butanoyl]amino]-3-methyl-pentanoyl]amino]-4-keto-4-morpholino-butanoyl]amino]-4-keto-butyric acid
> <PUBCHEM_IUPAC_INCHI>
InChI=1S/C43H69N7O10/c1-10-29(8)37(47-42(58)38(28(6)7)48(9)34(51)19-18-30-16-14-13-15-17-30)41(57)45-31(25-35(52)50-20-22-60-23-21-50)39(55)44-32(26-36(53)54)40(56)46-33(24-27(4)5)43(59)49(11-2)12-3/h13-17,27-29,31-33,37-38H,10-12,18-26H2,1-9H3,(H,44,55)(H,45,57)(H,46,56)(H,47,58)(H,53,54)/t29-,31-,32-,33-,37-,38-/m0/s1
> <PUBCHEM_IUPAC_INCHIKEY>
KMHRDNOZVDGLRL-RAPQZMOFSA-N
> <PUBCHEM_XLOGP3_AA>
2.7
> <PUBCHEM_EXACT_MASS>
843.51059142
> <PUBCHEM_MOLECULAR_FORMULA>
C43H69N7O10
> <PUBCHEM_MOLECULAR_WEIGHT>
844.0
> <PUBCHEM_OPENEYE_CAN_SMILES>
CCC(C)C(C(=O)NC(CC(=O)N1CCOCC1)C(=O)NC(CC(=O)O)C(=O)NC(CC(C)C)C(=O)N(CC)CC)NC(=O)C(C(C)C)N(C)C(=O)CCC2=CC=CC=C2
> <PUBCHEM_OPENEYE_ISO_SMILES>
CC[C@H](C)[C@@H](C(=O)N[C@@H](CC(=O)N1CCOCC1)C(=O)N[C@@H](CC(=O)O)C(=O)N[C@@H](CC(C)C)C(=O)N(CC)CC)NC(=O)[C@H](C(C)C)N(C)C(=O)CCC2=CC=CC=C2
> <PUBCHEM_CACTVS_TPSA>
224
> <PUBCHEM_MONOISOTOPIC_WEIGHT>
843.51059142
> <PUBCHEM_TOTAL_CHARGE>
0
> <PUBCHEM_HEAVY_ATOM_COUNT>
60
> <PUBCHEM_ATOM_DEF_STEREO_COUNT>
6
> <PUBCHEM_ATOM_UDEF_STEREO_COUNT>
0
> <PUBCHEM_BOND_DEF_STEREO_COUNT>
0
> <PUBCHEM_BOND_UDEF_STEREO_COUNT>
0
> <PUBCHEM_ISOTOPIC_ATOM_COUNT>
0
> <PUBCHEM_COMPONENT_COUNT>
1
> <PUBCHEM_CACTVS_TAUTO_COUNT>
-1
> <PUBCHEM_COORDINATE_TYPE>
1
5
255
> <PUBCHEM_BONDANNOTATIONS>
18  11  6
20  12  5
25  13  5
35  15  5
30  16  5
19  26  5
52  56  8
52  57  8
56  58  8
57  59  8
58  60  8
59  60  8
$$$$
