502995
  -OEChem-10302200282D
129129  0     1  0  0  0  0  0999 V2000
    6.3301   -3.0000    0.0000 O   0  0  0  0  0  0  0  0  0  0  0  0
    5.4641    0.5000    0.0000 O   0  0  0  0  0  0  0  0  0  0  0  0
    5.4641    3.5000    0.0000 O   0  0  0  0  0  0  0  0  0  0  0  0
    2.8660   -4.0000    0.0000 O   0  0  0  0  0  0  0  0  0  0  0  0
    8.0622    3.0000    0.0000 O   0  0  0  0  0  0  0  0  0  0  0  0
    7.1962    3.5000    0.0000 O   0  0  0  0  0  0  0  0  0  0  0  0
   11.5263    2.0000    0.0000 O   0  0  0  0  0  0  0  0  0  0  0  0
   12.3923   -1.5000    0.0000 O   0  0  0  0  0  0  0  0  0  0  0  0
   10.6603    4.5000    0.0000 O   0  0  0  0  0  0  0  0  0  0  0  0
   11.5263    3.0000    0.0000 O   0  0  0  0  0  0  0  0  0  0  0  0
    5.4641   -1.5000    0.0000 N   0  0  0  0  0  0  0  0  0  0  0  0
    4.5981   -4.0000    0.0000 N   0  0  0  0  0  0  0  0  0  0  0  0
    7.1962    0.5000    0.0000 N   0  0  0  0  0  0  0  0  0  0  0  0
    8.9282    1.5000    0.0000 N   0  0  0  0  0  0  0  0  0  0  0  0
   10.6603    0.5000    0.0000 N   0  0  0  0  0  0  0  0  0  0  0  0
   10.6603   -1.5000    0.0000 N   0  0  0  0  0  0  0  0  0  0  0  0
    6.3301   -1.0000    0.0000 C   0  0  1  0  0  0  0  0  0  0  0  0
    7.1962   -1.5000    0.0000 C   0  0  2  0  0  0  0  0  0  0  0  0
    4.5981   -3.0000    0.0000 C   0  0  1  0  0  0  0  0  0  0  0  0
    3.7320   -2.5000    0.0000 C   0  0  0  0  0  0  0  0  0  0  0  0
    8.0622   -1.0000    0.0000 C   0  0  0  0  0  0  0  0  0  0  0  0
    5.4641   -2.5000    0.0000 C   0  0  0  0  0  0  0  0  0  0  0  0
    6.3301    0.0000    0.0000 C   0  0  0  0  0  0  0  0  0  0  0  0
    7.1962   -2.5000    0.0000 C   0  0  0  0  0  0  0  0  0  0  0  0
    7.1962    1.5000    0.0000 C   0  0  1  0  0  0  0  0  0  0  0  0
    3.7320   -1.5000    0.0000 C   0  0  0  0  0  0  0  0  0  0  0  0
    2.8660   -3.0000    0.0000 C   0  0  0  0  0  0  0  0  0  0  0  0
    8.9282   -1.5000    0.0000 C   0  0  0  0  0  0  0  0  0  0  0  0
    3.7320   -4.5000    0.0000 C   0  0  0  0  0  0  0  0  0  0  0  0
    6.3301    2.0000    0.0000 C   0  0  0  0  0  0  0  0  0  0  0  0
    5.4641   -4.5000    0.0000 C   0  0  0  0  0  0  0  0  0  0  0  0
    8.0622    2.0000    0.0000 C   0  0  0  0  0  0  0  0  0  0  0  0
    3.7320   -5.5000    0.0000 C   0  0  0  0  0  0  0  0  0  0  0  0
    9.7942    2.0000    0.0000 C   0  0  2  0  0  0  0  0  0  0  0  0
   11.5263    0.0000    0.0000 C   0  0  1  0  0  0  0  0  0  0  0  0
   12.3923    0.5000    0.0000 C   0  0  0  0  0  0  0  0  0  0  0  0
    5.4641    4.5000    0.0000 C   0  0  2  0  0  0  0  0  0  0  0  0
    4.5981    5.0000    0.0000 C   0  0  0  0  0  0  0  0  0  0  0  0
   13.2583    0.0000    0.0000 C   0  0  0  0  0  0  0  0  0  0  0  0
    4.5981    6.0000    0.0000 C   0  0  0  0  0  0  0  0  0  0  0  0
    6.3301    3.0000    0.0000 C   0  0  0  0  0  0  0  0  0  0  0  0
    2.8660   -6.0000    0.0000 C   0  0  0  0  0  0  0  0  0  0  0  0
    3.7320    6.5000    0.0000 C   0  0  0  0  0  0  0  0  0  0  0  0
   10.6603    1.5000    0.0000 C   0  0  0  0  0  0  0  0  0  0  0  0
    9.7942    3.0000    0.0000 C   0  0  0  0  0  0  0  0  0  0  0  0
    3.7320    7.5000    0.0000 C   0  0  0  0  0  0  0  0  0  0  0  0
    6.3301    5.0000    0.0000 C   0  0  0  0  0  0  0  0  0  0  0  0
   14.1244    0.5000    0.0000 C   0  0  0  0  0  0  0  0  0  0  0  0
   13.2583   -1.0000    0.0000 C   0  0  0  0  0  0  0  0  0  0  0  0
    2.8660   -7.0000    0.0000 C   0  0  0  0  0  0  0  0  0  0  0  0
   11.5263   -1.0000    0.0000 C   0  0  0  0  0  0  0  0  0  0  0  0
    2.8660    8.0000    0.0000 C   0  0  0  0  0  0  0  0  0  0  0  0
   10.6603    3.5000    0.0000 C   0  0  0  0  0  0  0  0  0  0  0  0
    3.7320   -7.5000    0.0000 C   0  0  0  0  0  0  0  0  0  0  0  0
    2.0000   -7.5000    0.0000 C   0  0  0  0  0  0  0  0  0  0  0  0
    2.8660    9.0000    0.0000 C   0  0  0  0  0  0  0  0  0  0  0  0
    3.7320   -8.5000    0.0000 C   0  0  0  0  0  0  0  0  0  0  0  0
    2.0000   -8.5000    0.0000 C   0  0  0  0  0  0  0  0  0  0  0  0
    2.8660   -9.0000    0.0000 C   0  0  0  0  0  0  0  0  0  0  0  0
    5.7932   -0.6900    0.0000 H   0  0  0  0  0  0  0  0  0  0  0  0
    6.6592   -1.8100    0.0000 H   0  0  0  0  0  0  0  0  0  0  0  0
    5.1350   -3.3100    0.0000 H   0  0  0  0  0  0  0  0  0  0  0  0
    3.7320   -3.1200    0.0000 H   0  0  0  0  0  0  0  0  0  0  0  0
    8.4607   -0.5251    0.0000 H   0  0  0  0  0  0  0  0  0  0  0  0
    7.6636   -0.5251    0.0000 H   0  0  0  0  0  0  0  0  0  0  0  0
    4.9272   -1.1900    0.0000 H   0  0  0  0  0  0  0  0  0  0  0  0
    6.5762   -2.5000    0.0000 H   0  0  0  0  0  0  0  0  0  0  0  0
    7.1962   -3.1200    0.0000 H   0  0  0  0  0  0  0  0  0  0  0  0
    7.8162   -2.5000    0.0000 H   0  0  0  0  0  0  0  0  0  0  0  0
    6.6592    1.1900    0.0000 H   0  0  0  0  0  0  0  0  0  0  0  0
    4.3520   -1.5000    0.0000 H   0  0  0  0  0  0  0  0  0  0  0  0
    3.7320   -0.8800    0.0000 H   0  0  0  0  0  0  0  0  0  0  0  0
    3.1120   -1.5000    0.0000 H   0  0  0  0  0  0  0  0  0  0  0  0
    2.5560   -2.4631    0.0000 H   0  0  0  0  0  0  0  0  0  0  0  0
    2.3291   -3.3100    0.0000 H   0  0  0  0  0  0  0  0  0  0  0  0
    3.1760   -3.5369    0.0000 H   0  0  0  0  0  0  0  0  0  0  0  0
    7.7331    0.1900    0.0000 H   0  0  0  0  0  0  0  0  0  0  0  0
    8.6182   -2.0369    0.0000 H   0  0  0  0  0  0  0  0  0  0  0  0
    9.4651   -1.8100    0.0000 H   0  0  0  0  0  0  0  0  0  0  0  0
    9.2382   -0.9631    0.0000 H   0  0  0  0  0  0  0  0  0  0  0  0
    5.7196    2.1077    0.0000 H   0  0  0  0  0  0  0  0  0  0  0  0
    6.1181    1.4174    0.0000 H   0  0  0  0  0  0  0  0  0  0  0  0
    5.1541   -5.0369    0.0000 H   0  0  0  0  0  0  0  0  0  0  0  0
    6.0010   -4.8100    0.0000 H   0  0  0  0  0  0  0  0  0  0  0  0
    5.7741   -3.9631    0.0000 H   0  0  0  0  0  0  0  0  0  0  0  0
    3.9441   -6.0826    0.0000 H   0  0  0  0  0  0  0  0  0  0  0  0
    4.3426   -5.3923    0.0000 H   0  0  0  0  0  0  0  0  0  0  0  0
    9.2573    2.3100    0.0000 H   0  0  0  0  0  0  0  0  0  0  0  0
    8.9282    0.8800    0.0000 H   0  0  0  0  0  0  0  0  0  0  0  0
   10.9893   -0.3100    0.0000 H   0  0  0  0  0  0  0  0  0  0  0  0
   12.7908    0.9749    0.0000 H   0  0  0  0  0  0  0  0  0  0  0  0
   11.9938    0.9749    0.0000 H   0  0  0  0  0  0  0  0  0  0  0  0
    6.0010    4.1900    0.0000 H   0  0  0  0  0  0  0  0  0  0  0  0
    3.9875    5.1077    0.0000 H   0  0  0  0  0  0  0  0  0  0  0  0
    4.3860    4.4174    0.0000 H   0  0  0  0  0  0  0  0  0  0  0  0
   13.7953   -0.3100    0.0000 H   0  0  0  0  0  0  0  0  0  0  0  0
    5.2087    5.8923    0.0000 H   0  0  0  0  0  0  0  0  0  0  0  0
    4.8101    6.5826    0.0000 H   0  0  0  0  0  0  0  0  0  0  0  0
    2.6540   -5.4174    0.0000 H   0  0  0  0  0  0  0  0  0  0  0  0
    2.2554   -6.1077    0.0000 H   0  0  0  0  0  0  0  0  0  0  0  0
    3.1215    6.6077    0.0000 H   0  0  0  0  0  0  0  0  0  0  0  0
    3.5200    5.9174    0.0000 H   0  0  0  0  0  0  0  0  0  0  0  0
   10.1233    0.1900    0.0000 H   0  0  0  0  0  0  0  0  0  0  0  0
    9.5822    3.5826    0.0000 H   0  0  0  0  0  0  0  0  0  0  0  0
    9.1836    2.8923    0.0000 H   0  0  0  0  0  0  0  0  0  0  0  0
    4.3426    7.3923    0.0000 H   0  0  0  0  0  0  0  0  0  0  0  0
    3.9441    8.0826    0.0000 H   0  0  0  0  0  0  0  0  0  0  0  0
    6.6401    4.4631    0.0000 H   0  0  0  0  0  0  0  0  0  0  0  0
    6.8671    5.3100    0.0000 H   0  0  0  0  0  0  0  0  0  0  0  0
    6.0201    5.5369    0.0000 H   0  0  0  0  0  0  0  0  0  0  0  0
   14.4344   -0.0369    0.0000 H   0  0  0  0  0  0  0  0  0  0  0  0
   14.6613    0.8100    0.0000 H   0  0  0  0  0  0  0  0  0  0  0  0
   13.8144    1.0369    0.0000 H   0  0  0  0  0  0  0  0  0  0  0  0
   12.6383   -1.0000    0.0000 H   0  0  0  0  0  0  0  0  0  0  0  0
   13.2583   -1.6200    0.0000 H   0  0  0  0  0  0  0  0  0  0  0  0
   13.8783   -1.0000    0.0000 H   0  0  0  0  0  0  0  0  0  0  0  0
    2.2554    8.1077    0.0000 H   0  0  0  0  0  0  0  0  0  0  0  0
    2.6540    7.4174    0.0000 H   0  0  0  0  0  0  0  0  0  0  0  0
    4.2690   -7.1900    0.0000 H   0  0  0  0  0  0  0  0  0  0  0  0
    1.4631   -7.1900    0.0000 H   0  0  0  0  0  0  0  0  0  0  0  0
    3.4860    9.0000    0.0000 H   0  0  0  0  0  0  0  0  0  0  0  0
    2.8660    9.6200    0.0000 H   0  0  0  0  0  0  0  0  0  0  0  0
    2.2460    9.0000    0.0000 H   0  0  0  0  0  0  0  0  0  0  0  0
   10.6603   -2.1200    0.0000 H   0  0  0  0  0  0  0  0  0  0  0  0
   10.1233   -1.1900    0.0000 H   0  0  0  0  0  0  0  0  0  0  0  0
    4.2690   -8.8100    0.0000 H   0  0  0  0  0  0  0  0  0  0  0  0
    1.4631   -8.8100    0.0000 H   0  0  0  0  0  0  0  0  0  0  0  0
    2.8660   -9.6200    0.0000 H   0  0  0  0  0  0  0  0  0  0  0  0
   11.1972    4.8100    0.0000 H   0  0  0  0  0  0  0  0  0  0  0  0
  1 22  2  0  0  0  0
  2 23  2  0  0  0  0
 37  3  1  6  0  0  0
  3 41  1  0  0  0  0
  4 29  2  0  0  0  0
  5 32  2  0  0  0  0
  6 41  2  0  0  0  0
  7 44  2  0  0  0  0
  8 51  2  0  0  0  0
  9 53  1  0  0  0  0
  9129  1  0  0  0  0
 10 53  2  0  0  0  0
 17 11  1  6  0  0  0
 11 22  1  0  0  0  0
 11 66  1  0  0  0  0
 19 12  1  1  0  0  0
 12 29  1  0  0  0  0
 12 31  1  0  0  0  0
 13 23  1  0  0  0  0
 25 13  1  1  0  0  0
 13 77  1  0  0  0  0
 14 32  1  0  0  0  0
 34 14  1  1  0  0  0
 14 89  1  0  0  0  0
 35 15  1  1  0  0  0
 15 44  1  0  0  0  0
 15103  1  0  0  0  0
 16 51  1  0  0  0  0
 16124  1  0  0  0  0
 16125  1  0  0  0  0
 17 18  1  0  0  0  0
 17 23  1  0  0  0  0
 17 60  1  0  0  0  0
 18 21  1  0  0  0  0
 18 24  1  6  0  0  0
 18 61  1  0  0  0  0
 19 20  1  0  0  0  0
 19 22  1  0  0  0  0
 19 62  1  0  0  0  0
 20 26  1  0  0  0  0
 20 27  1  0  0  0  0
 20 63  1  0  0  0  0
 21 28  1  0  0  0  0
 21 64  1  0  0  0  0
 21 65  1  0  0  0  0
 24 67  1  0  0  0  0
 24 68  1  0  0  0  0
 24 69  1  0  0  0  0
 25 30  1  0  0  0  0
 25 32  1  0  0  0  0
 25 70  1  0  0  0  0
 26 71  1  0  0  0  0
 26 72  1  0  0  0  0
 26 73  1  0  0  0  0
 27 74  1  0  0  0  0
 27 75  1  0  0  0  0
 27 76  1  0  0  0  0
 28 78  1  0  0  0  0
 28 79  1  0  0  0  0
 28 80  1  0  0  0  0
 29 33  1  0  0  0  0
 30 41  1  0  0  0  0
 30 81  1  0  0  0  0
 30 82  1  0  0  0  0
 31 83  1  0  0  0  0
 31 84  1  0  0  0  0
 31 85  1  0  0  0  0
 33 42  1  0  0  0  0
 33 86  1  0  0  0  0
 33 87  1  0  0  0  0
 34 44  1  0  0  0  0
 34 45  1  0  0  0  0
 34 88  1  0  0  0  0
 35 36  1  0  0  0  0
 35 51  1  0  0  0  0
 35 90  1  0  0  0  0
 36 39  1  0  0  0  0
 36 91  1  0  0  0  0
 36 92  1  0  0  0  0
 37 38  1  0  0  0  0
 37 47  1  0  0  0  0
 37 93  1  0  0  0  0
 38 40  1  0  0  0  0
 38 94  1  0  0  0  0
 38 95  1  0  0  0  0
 39 48  1  0  0  0  0
 39 49  1  0  0  0  0
 39 96  1  0  0  0  0
 40 43  1  0  0  0  0
 40 97  1  0  0  0  0
 40 98  1  0  0  0  0
 42 50  1  0  0  0  0
 42 99  1  0  0  0  0
 42100  1  0  0  0  0
 43 46  1  0  0  0  0
 43101  1  0  0  0  0
 43102  1  0  0  0  0
 45 53  1  0  0  0  0
 45104  1  0  0  0  0
 45105  1  0  0  0  0
 46 52  1  0  0  0  0
 46106  1  0  0  0  0
 46107  1  0  0  0  0
 47108  1  0  0  0  0
 47109  1  0  0  0  0
 47110  1  0  0  0  0
 48111  1  0  0  0  0
 48112  1  0  0  0  0
 48113  1  0  0  0  0
 49114  1  0  0  0  0
 49115  1  0  0  0  0
 49116  1  0  0  0  0
 50 54  2  0  0  0  0
 50 55  1  0  0  0  0
 52 56  1  0  0  0  0
 52117  1  0  0  0  0
 52118  1  0  0  0  0
 54 57  1  0  0  0  0
 54119  1  0  0  0  0
 55 58  2  0  0  0  0
 55120  1  0  0  0  0
 56121  1  0  0  0  0
 56122  1  0  0  0  0
 56123  1  0  0  0  0
 57 59  2  0  0  0  0
 57126  1  0  0  0  0
 58 59  1  0  0  0  0
 58127  1  0  0  0  0
 59128  1  0  0  0  0
M  END
> <PUBCHEM_COMPOUND_CID>
502995
> <PUBCHEM_COMPOUND_CANONICALIZED>
1
> <PUBCHEM_CACTVS_COMPLEXITY>
1380
> <PUBCHEM_CACTVS_HBOND_ACCEPTOR>
10
> <PUBCHEM_CACTVS_HBOND_DONOR>
6
> <PUBCHEM_CACTVS_ROTATABLE_BOND>
29
> <PUBCHEM_CACTVS_SUBSKEYS>
AAADcfB/vAAAAAAAAAAAAAAAAAAAAAAAAAAwAAAAAAAAAAABAAAAHgAQCAAADTzhmAYyCIPABgCIAiHSGAACAAAgAAAIiIGIAIgIYDqAkTCWYAAmlgCIiAe/yKCOAAAAAAAAAAAAAAAAAAAAAAAAAAAAAA==
> <PUBCHEM_IUPAC_OPENEYE_NAME>
(3S)-4-[[(1S)-1-carbamoyl-3-methyl-butyl]amino]-3-[[(2S)-4-[(1S)-1-methylheptoxy]-2-[[(2S,3S)-3-methyl-2-[[(2S)-3-methyl-2-[methyl(3-phenylpropanoyl)amino]butanoyl]amino]pentanoyl]amino]-4-oxo-butanoyl]amino]-4-oxo-butanoic acid
> <PUBCHEM_IUPAC_CAS_NAME>
(3S)-4-[[(2S)-1-amino-4-methyl-1-oxopentan-2-yl]amino]-3-[[(2S)-2-[[(2S,3S)-3-methyl-2-[[(2S)-3-methyl-2-[methyl-(1-oxo-3-phenylpropyl)amino]-1-oxobutyl]amino]-1-oxopentyl]amino]-4-[(2S)-octan-2-yl]oxy-1,4-dioxobutyl]amino]-4-oxobutanoic acid
> <PUBCHEM_IUPAC_NAME_MARKUP>
(3<I>S</I>)-4-[[(2<I>S</I>)-1-amino-4-methyl-1-oxopentan-2-yl]amino]-3-[[(2<I>S</I>)-2-[[(2<I>S</I>,3<I>S</I>)-3-methyl-2-[[(2<I>S</I>)-3-methyl-2-[methyl(3-phenylpropanoyl)amino]butanoyl]amino]pentanoyl]amino]-4-[(2<I>S</I>)-octan-2-yl]oxy-4-oxobutanoyl]amino]-4-oxobutanoic acid
> <PUBCHEM_IUPAC_NAME>
(3S)-4-[[(2S)-1-amino-4-methyl-1-oxopentan-2-yl]amino]-3-[[(2S)-2-[[(2S,3S)-3-methyl-2-[[(2S)-3-methyl-2-[methyl(3-phenylpropanoyl)amino]butanoyl]amino]pentanoyl]amino]-4-[(2S)-octan-2-yl]oxy-4-oxobutanoyl]amino]-4-oxobutanoic acid
> <PUBCHEM_IUPAC_SYSTEMATIC_NAME>
(3S)-4-[[(2S)-1-azanyl-4-methyl-1-oxidanylidene-pentan-2-yl]amino]-3-[[(2S)-2-[[(2S,3S)-3-methyl-2-[[(2S)-3-methyl-2-[methyl(3-phenylpropanoyl)amino]butanoyl]amino]pentanoyl]amino]-4-[(2S)-octan-2-yl]oxy-4-oxidanylidene-butanoyl]amino]-4-oxidanylidene-butanoic acid
> <PUBCHEM_IUPAC_TRADITIONAL_NAME>
(3S)-4-[[(1S)-1-carbamoyl-3-methyl-butyl]amino]-3-[[(2S)-2-[[(2S,3S)-2-[[(2S)-2-[hydrocinnamoyl(methyl)amino]-3-methyl-butanoyl]amino]-3-methyl-pentanoyl]amino]-4-keto-4-[(1S)-1-methylheptoxy]butanoyl]amino]-4-keto-butyric acid
> <PUBCHEM_IUPAC_INCHI>
InChI=1S/C43H70N6O10/c1-10-12-13-15-18-29(8)59-36(53)25-33(41(56)46-32(24-35(51)52)40(55)45-31(39(44)54)23-26(3)4)47-42(57)37(28(7)11-2)48-43(58)38(27(5)6)49(9)34(50)22-21-30-19-16-14-17-20-30/h14,16-17,19-20,26-29,31-33,37-38H,10-13,15,18,21-25H2,1-9H3,(H2,44,54)(H,45,55)(H,46,56)(H,47,57)(H,48,58)(H,51,52)/t28-,29-,31-,32-,33-,37-,38-/m0/s1
> <PUBCHEM_IUPAC_INCHIKEY>
GSOJLJJUBSBZMQ-SORWORLVSA-N
> <PUBCHEM_XLOGP3_AA>
5.4
> <PUBCHEM_EXACT_MASS>
830.51534245
> <PUBCHEM_MOLECULAR_FORMULA>
C43H70N6O10
> <PUBCHEM_MOLECULAR_WEIGHT>
831.0
> <PUBCHEM_OPENEYE_CAN_SMILES>
CCCCCCC(C)OC(=O)CC(C(=O)NC(CC(=O)O)C(=O)NC(CC(C)C)C(=O)N)NC(=O)C(C(C)CC)NC(=O)C(C(C)C)N(C)C(=O)CCC1=CC=CC=C1
> <PUBCHEM_OPENEYE_ISO_SMILES>
CCCCCC[C@H](C)OC(=O)C[C@@H](C(=O)N[C@@H](CC(=O)O)C(=O)N[C@@H](CC(C)C)C(=O)N)NC(=O)[C@H]([C@@H](C)CC)NC(=O)[C@H](C(C)C)N(C)C(=O)CCC1=CC=CC=C1
> <PUBCHEM_CACTVS_TPSA>
243
> <PUBCHEM_MONOISOTOPIC_WEIGHT>
830.51534245
> <PUBCHEM_TOTAL_CHARGE>
0
> <PUBCHEM_HEAVY_ATOM_COUNT>
59
> <PUBCHEM_ATOM_DEF_STEREO_COUNT>
7
> <PUBCHEM_ATOM_UDEF_STEREO_COUNT>
0
> <PUBCHEM_BOND_DEF_STEREO_COUNT>
0
> <PUBCHEM_BOND_UDEF_STEREO_COUNT>
0
> <PUBCHEM_ISOTOPIC_ATOM_COUNT>
0
> <PUBCHEM_COMPONENT_COUNT>
1
> <PUBCHEM_CACTVS_TAUTO_COUNT>
-1
> <PUBCHEM_COORDINATE_TYPE>
1
5
255
> <PUBCHEM_BONDANNOTATIONS>
17  11  6
19  12  5
25  13  5
34  14  5
35  15  5
18  24  6
37  3  6
50  54  8
50  55  8
54  57  8
55  58  8
57  59  8
58  59  8
$$$$
