502998
  -OEChem-10302200282D
135136  0     1  0  0  0  0  0999 V2000
   14.1244    1.2501    0.0000 O   0  0  0  0  0  0  0  0  0  0  0  0
   12.3923    1.2500    0.0000 O   0  0  0  0  0  0  0  0  0  0  0  0
   11.5263    4.7500    0.0000 O   0  0  0  0  0  0  0  0  0  0  0  0
   10.6603    4.2500    0.0000 O   0  0  0  0  0  0  0  0  0  0  0  0
   14.1244    7.2500    0.0000 O   0  0  0  0  0  0  0  0  0  0  0  0
   14.9904    5.7500    0.0000 O   0  0  0  0  0  0  0  0  0  0  0  0
    8.0622    4.7500    0.0000 O   0  0  0  0  0  0  0  0  0  0  0  0
    8.0622    1.7500    0.0000 O   0  0  0  0  0  0  0  0  0  0  0  0
    9.7942    4.7500    0.0000 O   0  0  0  0  0  0  0  0  0  0  0  0
    8.9282   -1.7500    0.0000 O   0  0  0  0  0  0  0  0  0  0  0  0
    5.4641   -2.7500    0.0000 O   0  0  0  0  0  0  0  0  0  0  0  0
   11.5263    2.7500    0.0000 N   0  0  0  0  0  0  0  0  0  0  0  0
   13.2583    4.7500    0.0000 N   0  0  0  0  0  0  0  0  0  0  0  0
    9.7942    1.7500    0.0000 N   0  0  0  0  0  0  0  0  0  0  0  0
    8.0622   -0.2500    0.0000 N   0  0  0  0  0  0  0  0  0  0  0  0
    7.1962   -2.7500    0.0000 N   0  0  0  0  0  0  0  0  0  0  0  0
   13.2583    2.7500    0.0000 C   0  0  0  0  0  0  0  0  0  0  0  0
   14.1244    2.2500    0.0000 C   0  0  0  0  0  0  0  0  0  0  0  0
   13.7583    3.6160    0.0000 C   0  0  0  0  0  0  0  0  0  0  0  0
   14.6244    3.1160    0.0000 C   0  0  0  0  0  0  0  0  0  0  0  0
   12.3923    3.2500    0.0000 C   0  0  1  0  0  0  0  0  0  0  0  0
   13.2584    1.7500    0.0000 C   0  0  0  0  0  0  0  0  0  0  0  0
   12.3923    4.2500    0.0000 C   0  0  0  0  0  0  0  0  0  0  0  0
   10.6603    3.2500    0.0000 C   0  0  0  0  0  0  0  0  0  0  0  0
   13.2583    5.7500    0.0000 C   0  0  1  0  0  0  0  0  0  0  0  0
    9.7942    2.7500    0.0000 C   0  0  2  0  0  0  0  0  0  0  0  0
   12.3923    6.2500    0.0000 C   0  0  0  0  0  0  0  0  0  0  0  0
    8.9282    3.2500    0.0000 C   0  0  0  0  0  0  0  0  0  0  0  0
   12.3923    7.2500    0.0000 C   0  0  0  0  0  0  0  0  0  0  0  0
   14.1244    6.2500    0.0000 C   0  0  0  0  0  0  0  0  0  0  0  0
    8.9282    0.2500    0.0000 C   0  0  2  0  0  0  0  0  0  0  0  0
    8.9282    1.2500    0.0000 C   0  0  0  0  0  0  0  0  0  0  0  0
    9.7942   -0.2500    0.0000 C   0  0  0  0  0  0  0  0  0  0  0  0
    8.9282    4.2500    0.0000 C   0  0  0  0  0  0  0  0  0  0  0  0
   11.5263    7.7500    0.0000 C   0  0  0  0  0  0  0  0  0  0  0  0
   13.2583    7.7500    0.0000 C   0  0  0  0  0  0  0  0  0  0  0  0
   10.6603   -0.7500    0.0000 C   0  0  0  0  0  0  0  0  0  0  0  0
   10.2942    0.6160    0.0000 C   0  0  0  0  0  0  0  0  0  0  0  0
    9.2942   -1.1160    0.0000 C   0  0  0  0  0  0  0  0  0  0  0  0
    7.1962   -1.7500    0.0000 C   0  0  2  0  0  0  0  0  0  0  0  0
    8.0622   -1.2500    0.0000 C   0  0  0  0  0  0  0  0  0  0  0  0
    6.3301   -1.2500    0.0000 C   0  0  0  0  0  0  0  0  0  0  0  0
    7.1962    4.2500    0.0000 C   0  0  2  0  0  0  0  0  0  0  0  0
    6.3301    4.7500    0.0000 C   0  0  0  0  0  0  0  0  0  0  0  0
    6.3301   -0.2500    0.0000 C   0  0  0  0  0  0  0  0  0  0  0  0
    5.4641   -1.7500    0.0000 C   0  0  0  0  0  0  0  0  0  0  0  0
    7.1962    3.2500    0.0000 C   0  0  0  0  0  0  0  0  0  0  0  0
    5.4641    4.2500    0.0000 C   0  0  0  0  0  0  0  0  0  0  0  0
    6.3301   -3.2500    0.0000 C   0  0  0  0  0  0  0  0  0  0  0  0
    8.0622   -3.2500    0.0000 C   0  0  0  0  0  0  0  0  0  0  0  0
    4.5981    4.7500    0.0000 C   0  0  0  0  0  0  0  0  0  0  0  0
    6.3301   -4.2500    0.0000 C   0  0  0  0  0  0  0  0  0  0  0  0
    3.7320    4.2500    0.0000 C   0  0  0  0  0  0  0  0  0  0  0  0
    5.4641   -4.7500    0.0000 C   0  0  0  0  0  0  0  0  0  0  0  0
    2.8660    4.7500    0.0000 C   0  0  0  0  0  0  0  0  0  0  0  0
    5.4641   -5.7500    0.0000 C   0  0  0  0  0  0  0  0  0  0  0  0
    2.0000    4.2500    0.0000 C   0  0  0  0  0  0  0  0  0  0  0  0
    4.5981   -6.2500    0.0000 C   0  0  0  0  0  0  0  0  0  0  0  0
    6.3301   -6.2500    0.0000 C   0  0  0  0  0  0  0  0  0  0  0  0
    4.5981   -7.2500    0.0000 C   0  0  0  0  0  0  0  0  0  0  0  0
    6.3301   -7.2500    0.0000 C   0  0  0  0  0  0  0  0  0  0  0  0
    5.4641   -7.7500    0.0000 C   0  0  0  0  0  0  0  0  0  0  0  0
   13.8144    1.7131    0.0000 H   0  0  0  0  0  0  0  0  0  0  0  0
   14.6613    1.9400    0.0000 H   0  0  0  0  0  0  0  0  0  0  0  0
   14.0683    4.1530    0.0000 H   0  0  0  0  0  0  0  0  0  0  0  0
   13.2214    3.9260    0.0000 H   0  0  0  0  0  0  0  0  0  0  0  0
   15.1613    2.8060    0.0000 H   0  0  0  0  0  0  0  0  0  0  0  0
   14.9344    3.6530    0.0000 H   0  0  0  0  0  0  0  0  0  0  0  0
   11.8554    3.5600    0.0000 H   0  0  0  0  0  0  0  0  0  0  0  0
   11.5263    2.1300    0.0000 H   0  0  0  0  0  0  0  0  0  0  0  0
   13.7953    4.4400    0.0000 H   0  0  0  0  0  0  0  0  0  0  0  0
   14.1244    0.6300    0.0000 H   0  0  0  0  0  0  0  0  0  0  0  0
   13.7953    5.4400    0.0000 H   0  0  0  0  0  0  0  0  0  0  0  0
    9.2573    2.4400    0.0000 H   0  0  0  0  0  0  0  0  0  0  0  0
   11.7817    6.3577    0.0000 H   0  0  0  0  0  0  0  0  0  0  0  0
   12.1803    5.6674    0.0000 H   0  0  0  0  0  0  0  0  0  0  0  0
    8.3176    3.3577    0.0000 H   0  0  0  0  0  0  0  0  0  0  0  0
    8.7162    2.6674    0.0000 H   0  0  0  0  0  0  0  0  0  0  0  0
   10.3312    1.4400    0.0000 H   0  0  0  0  0  0  0  0  0  0  0  0
   11.8554    6.9400    0.0000 H   0  0  0  0  0  0  0  0  0  0  0  0
    8.9282   -0.3700    0.0000 H   0  0  0  0  0  0  0  0  0  0  0  0
   11.8363    8.2869    0.0000 H   0  0  0  0  0  0  0  0  0  0  0  0
   10.9893    8.0600    0.0000 H   0  0  0  0  0  0  0  0  0  0  0  0
   11.2163    7.2131    0.0000 H   0  0  0  0  0  0  0  0  0  0  0  0
   13.5683    7.2131    0.0000 H   0  0  0  0  0  0  0  0  0  0  0  0
   13.7953    8.0600    0.0000 H   0  0  0  0  0  0  0  0  0  0  0  0
   12.9483    8.2869    0.0000 H   0  0  0  0  0  0  0  0  0  0  0  0
    7.5252    0.0600    0.0000 H   0  0  0  0  0  0  0  0  0  0  0  0
   10.3503   -1.2869    0.0000 H   0  0  0  0  0  0  0  0  0  0  0  0
   11.1972   -1.0600    0.0000 H   0  0  0  0  0  0  0  0  0  0  0  0
   10.9703   -0.2131    0.0000 H   0  0  0  0  0  0  0  0  0  0  0  0
   10.8312    0.3060    0.0000 H   0  0  0  0  0  0  0  0  0  0  0  0
   10.6042    1.1530    0.0000 H   0  0  0  0  0  0  0  0  0  0  0  0
    9.7573    0.9260    0.0000 H   0  0  0  0  0  0  0  0  0  0  0  0
    8.7573   -0.8060    0.0000 H   0  0  0  0  0  0  0  0  0  0  0  0
    8.9842   -1.6530    0.0000 H   0  0  0  0  0  0  0  0  0  0  0  0
    9.8312   -1.4260    0.0000 H   0  0  0  0  0  0  0  0  0  0  0  0
   14.6613    7.5600    0.0000 H   0  0  0  0  0  0  0  0  0  0  0  0
    6.6592   -2.0600    0.0000 H   0  0  0  0  0  0  0  0  0  0  0  0
    6.8671   -0.9400    0.0000 H   0  0  0  0  0  0  0  0  0  0  0  0
    7.7331    3.9400    0.0000 H   0  0  0  0  0  0  0  0  0  0  0  0
    6.7287    5.2250    0.0000 H   0  0  0  0  0  0  0  0  0  0  0  0
    5.9316    5.2250    0.0000 H   0  0  0  0  0  0  0  0  0  0  0  0
    6.9501   -0.2500    0.0000 H   0  0  0  0  0  0  0  0  0  0  0  0
    6.3301    0.3700    0.0000 H   0  0  0  0  0  0  0  0  0  0  0  0
    5.7101   -0.2500    0.0000 H   0  0  0  0  0  0  0  0  0  0  0  0
    5.1541   -1.2131    0.0000 H   0  0  0  0  0  0  0  0  0  0  0  0
    4.9272   -2.0600    0.0000 H   0  0  0  0  0  0  0  0  0  0  0  0
    5.7741   -2.2869    0.0000 H   0  0  0  0  0  0  0  0  0  0  0  0
    6.5762    3.2500    0.0000 H   0  0  0  0  0  0  0  0  0  0  0  0
    7.1962    2.6300    0.0000 H   0  0  0  0  0  0  0  0  0  0  0  0
    7.8162    3.2500    0.0000 H   0  0  0  0  0  0  0  0  0  0  0  0
    5.0656    3.7750    0.0000 H   0  0  0  0  0  0  0  0  0  0  0  0
    5.8626    3.7750    0.0000 H   0  0  0  0  0  0  0  0  0  0  0  0
    7.7522   -3.7869    0.0000 H   0  0  0  0  0  0  0  0  0  0  0  0
    8.5991   -3.5600    0.0000 H   0  0  0  0  0  0  0  0  0  0  0  0
    8.3722   -2.7131    0.0000 H   0  0  0  0  0  0  0  0  0  0  0  0
    4.9966    5.2250    0.0000 H   0  0  0  0  0  0  0  0  0  0  0  0
    4.1996    5.2250    0.0000 H   0  0  0  0  0  0  0  0  0  0  0  0
    6.5422   -4.8326    0.0000 H   0  0  0  0  0  0  0  0  0  0  0  0
    6.9407   -4.1423    0.0000 H   0  0  0  0  0  0  0  0  0  0  0  0
    3.3335    3.7750    0.0000 H   0  0  0  0  0  0  0  0  0  0  0  0
    4.1306    3.7750    0.0000 H   0  0  0  0  0  0  0  0  0  0  0  0
    5.2520   -4.1674    0.0000 H   0  0  0  0  0  0  0  0  0  0  0  0
    4.8535   -4.8577    0.0000 H   0  0  0  0  0  0  0  0  0  0  0  0
    3.2646    5.2250    0.0000 H   0  0  0  0  0  0  0  0  0  0  0  0
    2.4675    5.2250    0.0000 H   0  0  0  0  0  0  0  0  0  0  0  0
    1.6900    4.7869    0.0000 H   0  0  0  0  0  0  0  0  0  0  0  0
    1.4631    3.9400    0.0000 H   0  0  0  0  0  0  0  0  0  0  0  0
    2.3100    3.7131    0.0000 H   0  0  0  0  0  0  0  0  0  0  0  0
    4.0611   -5.9400    0.0000 H   0  0  0  0  0  0  0  0  0  0  0  0
    6.8671   -5.9400    0.0000 H   0  0  0  0  0  0  0  0  0  0  0  0
    4.0611   -7.5600    0.0000 H   0  0  0  0  0  0  0  0  0  0  0  0
    6.8671   -7.5600    0.0000 H   0  0  0  0  0  0  0  0  0  0  0  0
    5.4641   -8.3700    0.0000 H   0  0  0  0  0  0  0  0  0  0  0  0
  1 22  1  0  0  0  0
  1 72  1  0  0  0  0
  2 22  2  0  0  0  0
  3 23  2  0  0  0  0
  4 24  2  0  0  0  0
  5 30  1  0  0  0  0
  5 98  1  0  0  0  0
  6 30  2  0  0  0  0
  7 34  1  0  0  0  0
 43  7  1  1  0  0  0
  8 32  2  0  0  0  0
  9 34  2  0  0  0  0
 10 41  2  0  0  0  0
 11 49  2  0  0  0  0
 21 12  1  6  0  0  0
 12 24  1  0  0  0  0
 12 70  1  0  0  0  0
 13 23  1  0  0  0  0
 25 13  1  1  0  0  0
 13 71  1  0  0  0  0
 26 14  1  1  0  0  0
 14 32  1  0  0  0  0
 14 79  1  0  0  0  0
 31 15  1  6  0  0  0
 15 41  1  0  0  0  0
 15 88  1  0  0  0  0
 40 16  1  1  0  0  0
 16 49  1  0  0  0  0
 16 50  1  0  0  0  0
 17 18  1  0  0  0  0
 17 19  1  0  0  0  0
 17 21  1  0  0  0  0
 17 22  1  0  0  0  0
 18 20  1  0  0  0  0
 18 63  1  0  0  0  0
 18 64  1  0  0  0  0
 19 20  1  0  0  0  0
 19 65  1  0  0  0  0
 19 66  1  0  0  0  0
 20 67  1  0  0  0  0
 20 68  1  0  0  0  0
 21 23  1  0  0  0  0
 21 69  1  0  0  0  0
 24 26  1  0  0  0  0
 25 27  1  0  0  0  0
 25 30  1  0  0  0  0
 25 73  1  0  0  0  0
 26 28  1  0  0  0  0
 26 74  1  0  0  0  0
 27 29  1  0  0  0  0
 27 75  1  0  0  0  0
 27 76  1  0  0  0  0
 28 34  1  0  0  0  0
 28 77  1  0  0  0  0
 28 78  1  0  0  0  0
 29 35  1  0  0  0  0
 29 36  1  0  0  0  0
 29 80  1  0  0  0  0
 31 32  1  0  0  0  0
 31 33  1  0  0  0  0
 31 81  1  0  0  0  0
 33 37  1  0  0  0  0
 33 38  1  0  0  0  0
 33 39  1  0  0  0  0
 35 82  1  0  0  0  0
 35 83  1  0  0  0  0
 35 84  1  0  0  0  0
 36 85  1  0  0  0  0
 36 86  1  0  0  0  0
 36 87  1  0  0  0  0
 37 89  1  0  0  0  0
 37 90  1  0  0  0  0
 37 91  1  0  0  0  0
 38 92  1  0  0  0  0
 38 93  1  0  0  0  0
 38 94  1  0  0  0  0
 39 95  1  0  0  0  0
 39 96  1  0  0  0  0
 39 97  1  0  0  0  0
 40 41  1  0  0  0  0
 40 42  1  0  0  0  0
 40 99  1  0  0  0  0
 42 45  1  0  0  0  0
 42 46  1  0  0  0  0
 42100  1  0  0  0  0
 43 44  1  0  0  0  0
 43 47  1  0  0  0  0
 43101  1  0  0  0  0
 44 48  1  0  0  0  0
 44102  1  0  0  0  0
 44103  1  0  0  0  0
 45104  1  0  0  0  0
 45105  1  0  0  0  0
 45106  1  0  0  0  0
 46107  1  0  0  0  0
 46108  1  0  0  0  0
 46109  1  0  0  0  0
 47110  1  0  0  0  0
 47111  1  0  0  0  0
 47112  1  0  0  0  0
 48 51  1  0  0  0  0
 48113  1  0  0  0  0
 48114  1  0  0  0  0
 49 52  1  0  0  0  0
 50115  1  0  0  0  0
 50116  1  0  0  0  0
 50117  1  0  0  0  0
 51 53  1  0  0  0  0
 51118  1  0  0  0  0
 51119  1  0  0  0  0
 52 54  1  0  0  0  0
 52120  1  0  0  0  0
 52121  1  0  0  0  0
 53 55  1  0  0  0  0
 53122  1  0  0  0  0
 53123  1  0  0  0  0
 54 56  1  0  0  0  0
 54124  1  0  0  0  0
 54125  1  0  0  0  0
 55 57  1  0  0  0  0
 55126  1  0  0  0  0
 55127  1  0  0  0  0
 56 58  2  0  0  0  0
 56 59  1  0  0  0  0
 57128  1  0  0  0  0
 57129  1  0  0  0  0
 57130  1  0  0  0  0
 58 60  1  0  0  0  0
 58131  1  0  0  0  0
 59 61  2  0  0  0  0
 59132  1  0  0  0  0
 60 62  2  0  0  0  0
 60133  1  0  0  0  0
 61 62  1  0  0  0  0
 61134  1  0  0  0  0
 62135  1  0  0  0  0
M  END
> <PUBCHEM_COMPOUND_CID>
502998
> <PUBCHEM_COMPOUND_CANONICALIZED>
1
> <PUBCHEM_CACTVS_COMPLEXITY>
1530
> <PUBCHEM_CACTVS_HBOND_ACCEPTOR>
11
> <PUBCHEM_CACTVS_HBOND_DONOR>
6
> <PUBCHEM_CACTVS_ROTATABLE_BOND>
28
> <PUBCHEM_CACTVS_SUBSKEYS>
AAADcfB/vAAAAAAAAAAAAAAAAABgAAAAAAAwAAAAAAAAAAABAAAAHgAQCAAADzzhmAYyCIPABgCIAiHSGAACAAAgAAAIiIGIAIgKYDqAkTCWYAAmlgCYiAe/yKCPAAAAAAAAAAAAAAAAAAAAAAAAAAAAAA==
> <PUBCHEM_IUPAC_OPENEYE_NAME>
1-[(1S)-2-[[(1S)-1-carboxy-3-methyl-butyl]amino]-1-[[(2S)-2-[[(2S)-3,3-dimethyl-2-[[(2S)-3-methyl-2-[methyl(3-phenylpropanoyl)amino]butanoyl]amino]butanoyl]amino]-4-[(1S)-1-methylheptoxy]-4-oxo-butanoyl]amino]-2-oxo-ethyl]cyclobutanecarboxylic acid
> <PUBCHEM_IUPAC_CAS_NAME>
1-[(1S)-2-[[(1S)-1-carboxy-3-methylbutyl]amino]-1-[[(2S)-2-[[(2S)-3,3-dimethyl-2-[[(2S)-3-methyl-2-[methyl-(1-oxo-3-phenylpropyl)amino]-1-oxobutyl]amino]-1-oxobutyl]amino]-4-[(2S)-octan-2-yl]oxy-1,4-dioxobutyl]amino]-2-oxoethyl]-1-cyclobutanecarboxylic acid
> <PUBCHEM_IUPAC_NAME_MARKUP>
1-[(1<I>S</I>)-2-[[(1<I>S</I>)-1-carboxy-3-methylbutyl]amino]-1-[[(2<I>S</I>)-2-[[(2<I>S</I>)-3,3-dimethyl-2-[[(2<I>S</I>)-3-methyl-2-[methyl(3-phenylpropanoyl)amino]butanoyl]amino]butanoyl]amino]-4-[(2<I>S</I>)-octan-2-yl]oxy-4-oxobutanoyl]amino]-2-oxoethyl]cyclobutane-1-carboxylic acid
> <PUBCHEM_IUPAC_NAME>
1-[(1S)-2-[[(1S)-1-carboxy-3-methylbutyl]amino]-1-[[(2S)-2-[[(2S)-3,3-dimethyl-2-[[(2S)-3-methyl-2-[methyl(3-phenylpropanoyl)amino]butanoyl]amino]butanoyl]amino]-4-[(2S)-octan-2-yl]oxy-4-oxobutanoyl]amino]-2-oxoethyl]cyclobutane-1-carboxylic acid
> <PUBCHEM_IUPAC_SYSTEMATIC_NAME>
1-[(1S)-1-[[(2S)-2-[[(2S)-3,3-dimethyl-2-[[(2S)-3-methyl-2-[methyl(3-phenylpropanoyl)amino]butanoyl]amino]butanoyl]amino]-4-[(2S)-octan-2-yl]oxy-4-oxidanylidene-butanoyl]amino]-2-[[(2S)-4-methyl-1-oxidanyl-1-oxidanylidene-pentan-2-yl]amino]-2-oxidanylidene-ethyl]cyclobutane-1-carboxylic acid
> <PUBCHEM_IUPAC_TRADITIONAL_NAME>
1-[(1S)-2-[[(1S)-1-carboxy-3-methyl-butyl]amino]-1-[[(2S)-2-[[(2S)-2-[[(2S)-2-[hydrocinnamoyl(methyl)amino]-3-methyl-butanoyl]amino]-3,3-dimethyl-butanoyl]amino]-4-keto-4-[(1S)-1-methylheptoxy]butanoyl]amino]-2-keto-ethyl]cyclobutanecarboxylic acid
> <PUBCHEM_IUPAC_INCHI>
InChI=1S/C46H73N5O11/c1-11-12-13-15-19-30(6)62-35(53)27-32(39(54)50-38(46(44(60)61)24-18-25-46)42(57)48-33(43(58)59)26-28(2)3)47-41(56)37(45(7,8)9)49-40(55)36(29(4)5)51(10)34(52)23-22-31-20-16-14-17-21-31/h14,16-17,20-21,28-30,32-33,36-38H,11-13,15,18-19,22-27H2,1-10H3,(H,47,56)(H,48,57)(H,49,55)(H,50,54)(H,58,59)(H,60,61)/t30-,32-,33-,36-,37+,38+/m0/s1
> <PUBCHEM_IUPAC_INCHIKEY>
SKGOVHGYSHPGQI-JYAODBNVSA-N
> <PUBCHEM_XLOGP3_AA>
7
> <PUBCHEM_EXACT_MASS>
871.53065816
> <PUBCHEM_MOLECULAR_FORMULA>
C46H73N5O11
> <PUBCHEM_MOLECULAR_WEIGHT>
872.1
> <PUBCHEM_OPENEYE_CAN_SMILES>
CCCCCCC(C)OC(=O)CC(C(=O)NC(C(=O)NC(CC(C)C)C(=O)O)C1(CCC1)C(=O)O)NC(=O)C(C(C)(C)C)NC(=O)C(C(C)C)N(C)C(=O)CCC2=CC=CC=C2
> <PUBCHEM_OPENEYE_ISO_SMILES>
CCCCCC[C@H](C)OC(=O)C[C@@H](C(=O)N[C@H](C(=O)N[C@@H](CC(C)C)C(=O)O)C1(CCC1)C(=O)O)NC(=O)[C@H](C(C)(C)C)NC(=O)[C@H](C(C)C)N(C)C(=O)CCC2=CC=CC=C2
> <PUBCHEM_CACTVS_TPSA>
238
> <PUBCHEM_MONOISOTOPIC_WEIGHT>
871.53065816
> <PUBCHEM_TOTAL_CHARGE>
0
> <PUBCHEM_HEAVY_ATOM_COUNT>
62
> <PUBCHEM_ATOM_DEF_STEREO_COUNT>
6
> <PUBCHEM_ATOM_UDEF_STEREO_COUNT>
0
> <PUBCHEM_BOND_DEF_STEREO_COUNT>
0
> <PUBCHEM_BOND_UDEF_STEREO_COUNT>
0
> <PUBCHEM_ISOTOPIC_ATOM_COUNT>
0
> <PUBCHEM_COMPONENT_COUNT>
1
> <PUBCHEM_CACTVS_TAUTO_COUNT>
-1
> <PUBCHEM_COORDINATE_TYPE>
1
5
255
> <PUBCHEM_BONDANNOTATIONS>
21  12  6
25  13  5
26  14  5
31  15  6
40  16  5
56  58  8
56  59  8
58  60  8
59  61  8
60  62  8
61  62  8
43  7  5
$$$$
