502993
  -OEChem-10302200282D
140140  0     1  0  0  0  0  0999 V2000
    8.0622   -4.7500    0.0000 O   0  0  0  0  0  0  0  0  0  0  0  0
    7.1962   -1.2500    0.0000 O   0  0  0  0  0  0  0  0  0  0  0  0
    7.1962    1.7500    0.0000 O   0  0  0  0  0  0  0  0  0  0  0  0
    4.5981   -5.7500    0.0000 O   0  0  0  0  0  0  0  0  0  0  0  0
    9.7942    1.2500    0.0000 O   0  0  0  0  0  0  0  0  0  0  0  0
    8.9282    1.7500    0.0000 O   0  0  0  0  0  0  0  0  0  0  0  0
   13.2583    0.2500    0.0000 O   0  0  0  0  0  0  0  0  0  0  0  0
   14.1244   -3.2500    0.0000 O   0  0  0  0  0  0  0  0  0  0  0  0
   12.3923   -3.2500    0.0000 O   0  0  0  0  0  0  0  0  0  0  0  0
   12.3923    2.7500    0.0000 O   0  0  0  0  0  0  0  0  0  0  0  0
   13.2583    1.2500    0.0000 O   0  0  0  0  0  0  0  0  0  0  0  0
    7.1962   -3.2500    0.0000 N   0  0  0  0  0  0  0  0  0  0  0  0
    6.3301   -5.7500    0.0000 N   0  0  0  0  0  0  0  0  0  0  0  0
    8.9282   -1.2500    0.0000 N   0  0  0  0  0  0  0  0  0  0  0  0
   10.6603   -0.2500    0.0000 N   0  0  0  0  0  0  0  0  0  0  0  0
   12.3923   -1.2500    0.0000 N   0  0  0  0  0  0  0  0  0  0  0  0
    8.9282   -3.2500    0.0000 C   0  0  2  0  0  0  0  0  0  0  0  0
    8.0622   -2.7500    0.0000 C   0  0  1  0  0  0  0  0  0  0  0  0
    6.3301   -4.7500    0.0000 C   0  0  1  0  0  0  0  0  0  0  0  0
    5.4641   -4.2500    0.0000 C   0  0  0  0  0  0  0  0  0  0  0  0
    9.7942   -2.7500    0.0000 C   0  0  0  0  0  0  0  0  0  0  0  0
    7.1962   -4.2500    0.0000 C   0  0  0  0  0  0  0  0  0  0  0  0
    8.0622   -1.7500    0.0000 C   0  0  0  0  0  0  0  0  0  0  0  0
    8.9282   -4.2500    0.0000 C   0  0  0  0  0  0  0  0  0  0  0  0
    5.4641   -3.2500    0.0000 C   0  0  0  0  0  0  0  0  0  0  0  0
    4.5981   -4.7500    0.0000 C   0  0  0  0  0  0  0  0  0  0  0  0
    8.9282   -0.2500    0.0000 C   0  0  1  0  0  0  0  0  0  0  0  0
   10.6603   -3.2500    0.0000 C   0  0  0  0  0  0  0  0  0  0  0  0
    5.4641   -6.2500    0.0000 C   0  0  0  0  0  0  0  0  0  0  0  0
    7.1962   -6.2500    0.0000 C   0  0  0  0  0  0  0  0  0  0  0  0
    8.0622    0.2500    0.0000 C   0  0  0  0  0  0  0  0  0  0  0  0
    4.5981    6.2500    0.0000 C   0  0  0  0  0  0  0  0  0  0  0  0
    5.4641    5.7500    0.0000 C   0  0  0  0  0  0  0  0  0  0  0  0
    4.5981    7.2500    0.0000 C   0  0  0  0  0  0  0  0  0  0  0  0
    5.4641    4.7500    0.0000 C   0  0  0  0  0  0  0  0  0  0  0  0
    3.7320    7.7500    0.0000 C   0  0  0  0  0  0  0  0  0  0  0  0
    5.4641   -7.2500    0.0000 C   0  0  0  0  0  0  0  0  0  0  0  0
    9.7942    0.2500    0.0000 C   0  0  0  0  0  0  0  0  0  0  0  0
    6.3301    4.2500    0.0000 C   0  0  0  0  0  0  0  0  0  0  0  0
    3.7320    8.7500    0.0000 C   0  0  0  0  0  0  0  0  0  0  0  0
    6.3301    3.2500    0.0000 C   0  0  0  0  0  0  0  0  0  0  0  0
   11.5263    0.2500    0.0000 C   0  0  2  0  0  0  0  0  0  0  0  0
    4.5981   -7.7500    0.0000 C   0  0  0  0  0  0  0  0  0  0  0  0
    2.8660    9.2500    0.0000 C   0  0  0  0  0  0  0  0  0  0  0  0
    8.0622    1.2500    0.0000 C   0  0  0  0  0  0  0  0  0  0  0  0
   13.2583   -1.7500    0.0000 C   0  0  1  0  0  0  0  0  0  0  0  0
   14.1244   -1.2500    0.0000 C   0  0  0  0  0  0  0  0  0  0  0  0
    7.1962    2.7500    0.0000 C   0  0  0  0  0  0  0  0  0  0  0  0
   14.9904   -1.7500    0.0000 C   0  0  0  0  0  0  0  0  0  0  0  0
   12.3923   -0.2500    0.0000 C   0  0  0  0  0  0  0  0  0  0  0  0
   11.5263    1.2500    0.0000 C   0  0  0  0  0  0  0  0  0  0  0  0
    2.8660   10.2500    0.0000 C   0  0  0  0  0  0  0  0  0  0  0  0
    4.5981   -8.7500    0.0000 C   0  0  0  0  0  0  0  0  0  0  0  0
   15.8564   -1.2500    0.0000 C   0  0  0  0  0  0  0  0  0  0  0  0
   14.9904   -2.7500    0.0000 C   0  0  0  0  0  0  0  0  0  0  0  0
   13.2583   -2.7500    0.0000 C   0  0  0  0  0  0  0  0  0  0  0  0
    2.0000   10.7500    0.0000 C   0  0  0  0  0  0  0  0  0  0  0  0
   12.3923    1.7500    0.0000 C   0  0  0  0  0  0  0  0  0  0  0  0
    5.4641   -9.2500    0.0000 C   0  0  0  0  0  0  0  0  0  0  0  0
    3.7320   -9.2500    0.0000 C   0  0  0  0  0  0  0  0  0  0  0  0
    5.4641  -10.2500    0.0000 C   0  0  0  0  0  0  0  0  0  0  0  0
    3.7320  -10.2500    0.0000 C   0  0  0  0  0  0  0  0  0  0  0  0
    4.5981  -10.7500    0.0000 C   0  0  0  0  0  0  0  0  0  0  0  0
    9.4651   -3.5600    0.0000 H   0  0  0  0  0  0  0  0  0  0  0  0
    8.0622   -3.3700    0.0000 H   0  0  0  0  0  0  0  0  0  0  0  0
    6.8671   -5.0600    0.0000 H   0  0  0  0  0  0  0  0  0  0  0  0
    5.4641   -4.8700    0.0000 H   0  0  0  0  0  0  0  0  0  0  0  0
   10.1928   -2.2750    0.0000 H   0  0  0  0  0  0  0  0  0  0  0  0
    9.3957   -2.2750    0.0000 H   0  0  0  0  0  0  0  0  0  0  0  0
    6.6592   -2.9400    0.0000 H   0  0  0  0  0  0  0  0  0  0  0  0
    8.3082   -4.2500    0.0000 H   0  0  0  0  0  0  0  0  0  0  0  0
    8.9282   -4.8700    0.0000 H   0  0  0  0  0  0  0  0  0  0  0  0
    9.5482   -4.2500    0.0000 H   0  0  0  0  0  0  0  0  0  0  0  0
    6.0841   -3.2500    0.0000 H   0  0  0  0  0  0  0  0  0  0  0  0
    5.4641   -2.6300    0.0000 H   0  0  0  0  0  0  0  0  0  0  0  0
    4.8441   -3.2500    0.0000 H   0  0  0  0  0  0  0  0  0  0  0  0
    4.2881   -4.2131    0.0000 H   0  0  0  0  0  0  0  0  0  0  0  0
    4.0611   -5.0600    0.0000 H   0  0  0  0  0  0  0  0  0  0  0  0
    4.9081   -5.2869    0.0000 H   0  0  0  0  0  0  0  0  0  0  0  0
    9.4651   -0.5600    0.0000 H   0  0  0  0  0  0  0  0  0  0  0  0
    9.4651   -1.5600    0.0000 H   0  0  0  0  0  0  0  0  0  0  0  0
   10.3503   -3.7869    0.0000 H   0  0  0  0  0  0  0  0  0  0  0  0
   11.1972   -3.5600    0.0000 H   0  0  0  0  0  0  0  0  0  0  0  0
   10.9703   -2.7131    0.0000 H   0  0  0  0  0  0  0  0  0  0  0  0
    6.8862   -6.7869    0.0000 H   0  0  0  0  0  0  0  0  0  0  0  0
    7.7331   -6.5600    0.0000 H   0  0  0  0  0  0  0  0  0  0  0  0
    7.5062   -5.7131    0.0000 H   0  0  0  0  0  0  0  0  0  0  0  0
    3.9875    6.3577    0.0000 H   0  0  0  0  0  0  0  0  0  0  0  0
    4.3860    5.6674    0.0000 H   0  0  0  0  0  0  0  0  0  0  0  0
    7.4516    0.3577    0.0000 H   0  0  0  0  0  0  0  0  0  0  0  0
    7.8501   -0.3326    0.0000 H   0  0  0  0  0  0  0  0  0  0  0  0
    6.0747    5.6423    0.0000 H   0  0  0  0  0  0  0  0  0  0  0  0
    5.6762    6.3326    0.0000 H   0  0  0  0  0  0  0  0  0  0  0  0
    5.2087    7.1423    0.0000 H   0  0  0  0  0  0  0  0  0  0  0  0
    4.8101    7.8326    0.0000 H   0  0  0  0  0  0  0  0  0  0  0  0
    4.8535    4.8577    0.0000 H   0  0  0  0  0  0  0  0  0  0  0  0
    5.2520    4.1674    0.0000 H   0  0  0  0  0  0  0  0  0  0  0  0
    3.1215    7.8577    0.0000 H   0  0  0  0  0  0  0  0  0  0  0  0
    3.5200    7.1674    0.0000 H   0  0  0  0  0  0  0  0  0  0  0  0
    5.6762   -7.8326    0.0000 H   0  0  0  0  0  0  0  0  0  0  0  0
    6.0747   -7.1423    0.0000 H   0  0  0  0  0  0  0  0  0  0  0  0
    6.9407    4.1423    0.0000 H   0  0  0  0  0  0  0  0  0  0  0  0
    6.5422    4.8326    0.0000 H   0  0  0  0  0  0  0  0  0  0  0  0
    4.3426    8.6423    0.0000 H   0  0  0  0  0  0  0  0  0  0  0  0
    3.9441    9.3326    0.0000 H   0  0  0  0  0  0  0  0  0  0  0  0
    5.7196    3.3577    0.0000 H   0  0  0  0  0  0  0  0  0  0  0  0
    6.1181    2.6674    0.0000 H   0  0  0  0  0  0  0  0  0  0  0  0
   10.9893    0.5600    0.0000 H   0  0  0  0  0  0  0  0  0  0  0  0
   10.6603   -0.8700    0.0000 H   0  0  0  0  0  0  0  0  0  0  0  0
    4.3860   -7.1674    0.0000 H   0  0  0  0  0  0  0  0  0  0  0  0
    3.9875   -7.8577    0.0000 H   0  0  0  0  0  0  0  0  0  0  0  0
    2.2554    9.3577    0.0000 H   0  0  0  0  0  0  0  0  0  0  0  0
    2.6540    8.6674    0.0000 H   0  0  0  0  0  0  0  0  0  0  0  0
   13.2583   -1.1300    0.0000 H   0  0  0  0  0  0  0  0  0  0  0  0
   14.5229   -0.7751    0.0000 H   0  0  0  0  0  0  0  0  0  0  0  0
   13.7258   -0.7751    0.0000 H   0  0  0  0  0  0  0  0  0  0  0  0
    7.8067    2.6423    0.0000 H   0  0  0  0  0  0  0  0  0  0  0  0
    7.4082    3.3326    0.0000 H   0  0  0  0  0  0  0  0  0  0  0  0
   15.5273   -2.0600    0.0000 H   0  0  0  0  0  0  0  0  0  0  0  0
   11.3142    1.8326    0.0000 H   0  0  0  0  0  0  0  0  0  0  0  0
   10.9157    1.1423    0.0000 H   0  0  0  0  0  0  0  0  0  0  0  0
   11.8554   -1.5600    0.0000 H   0  0  0  0  0  0  0  0  0  0  0  0
    3.4766   10.1423    0.0000 H   0  0  0  0  0  0  0  0  0  0  0  0
    3.0781   10.8326    0.0000 H   0  0  0  0  0  0  0  0  0  0  0  0
   16.1664   -1.7869    0.0000 H   0  0  0  0  0  0  0  0  0  0  0  0
   16.3933   -0.9400    0.0000 H   0  0  0  0  0  0  0  0  0  0  0  0
   15.5464   -0.7131    0.0000 H   0  0  0  0  0  0  0  0  0  0  0  0
   14.3704   -2.7500    0.0000 H   0  0  0  0  0  0  0  0  0  0  0  0
   14.9904   -3.3700    0.0000 H   0  0  0  0  0  0  0  0  0  0  0  0
   15.6104   -2.7500    0.0000 H   0  0  0  0  0  0  0  0  0  0  0  0
    2.3100   11.2869    0.0000 H   0  0  0  0  0  0  0  0  0  0  0  0
    1.4631   11.0600    0.0000 H   0  0  0  0  0  0  0  0  0  0  0  0
    1.6900   10.2131    0.0000 H   0  0  0  0  0  0  0  0  0  0  0  0
    6.0010   -8.9400    0.0000 H   0  0  0  0  0  0  0  0  0  0  0  0
    3.1951   -8.9400    0.0000 H   0  0  0  0  0  0  0  0  0  0  0  0
    6.0010  -10.5600    0.0000 H   0  0  0  0  0  0  0  0  0  0  0  0
    3.1951  -10.5600    0.0000 H   0  0  0  0  0  0  0  0  0  0  0  0
    4.5981  -11.3700    0.0000 H   0  0  0  0  0  0  0  0  0  0  0  0
   14.1244   -3.8700    0.0000 H   0  0  0  0  0  0  0  0  0  0  0  0
   12.9292    3.0600    0.0000 H   0  0  0  0  0  0  0  0  0  0  0  0
  1 22  2  0  0  0  0
  2 23  2  0  0  0  0
  3 45  1  0  0  0  0
  3 48  1  0  0  0  0
  4 29  2  0  0  0  0
  5 38  2  0  0  0  0
  6 45  2  0  0  0  0
  7 50  2  0  0  0  0
  8 56  1  0  0  0  0
  8139  1  0  0  0  0
  9 56  2  0  0  0  0
 10 58  1  0  0  0  0
 10140  1  0  0  0  0
 11 58  2  0  0  0  0
 18 12  1  6  0  0  0
 12 22  1  0  0  0  0
 12 70  1  0  0  0  0
 19 13  1  1  0  0  0
 13 29  1  0  0  0  0
 13 30  1  0  0  0  0
 14 23  1  0  0  0  0
 27 14  1  1  0  0  0
 14 81  1  0  0  0  0
 15 38  1  0  0  0  0
 42 15  1  1  0  0  0
 15109  1  0  0  0  0
 46 16  1  1  0  0  0
 16 50  1  0  0  0  0
 16122  1  0  0  0  0
 17 18  1  0  0  0  0
 17 21  1  0  0  0  0
 17 24  1  6  0  0  0
 17 64  1  0  0  0  0
 18 23  1  0  0  0  0
 18 65  1  0  0  0  0
 19 20  1  0  0  0  0
 19 22  1  0  0  0  0
 19 66  1  0  0  0  0
 20 25  1  0  0  0  0
 20 26  1  0  0  0  0
 20 67  1  0  0  0  0
 21 28  1  0  0  0  0
 21 68  1  0  0  0  0
 21 69  1  0  0  0  0
 24 71  1  0  0  0  0
 24 72  1  0  0  0  0
 24 73  1  0  0  0  0
 25 74  1  0  0  0  0
 25 75  1  0  0  0  0
 25 76  1  0  0  0  0
 26 77  1  0  0  0  0
 26 78  1  0  0  0  0
 26 79  1  0  0  0  0
 27 31  1  0  0  0  0
 27 38  1  0  0  0  0
 27 80  1  0  0  0  0
 28 82  1  0  0  0  0
 28 83  1  0  0  0  0
 28 84  1  0  0  0  0
 29 37  1  0  0  0  0
 30 85  1  0  0  0  0
 30 86  1  0  0  0  0
 30 87  1  0  0  0  0
 31 45  1  0  0  0  0
 31 90  1  0  0  0  0
 31 91  1  0  0  0  0
 32 33  1  0  0  0  0
 32 34  1  0  0  0  0
 32 88  1  0  0  0  0
 32 89  1  0  0  0  0
 33 35  1  0  0  0  0
 33 92  1  0  0  0  0
 33 93  1  0  0  0  0
 34 36  1  0  0  0  0
 34 94  1  0  0  0  0
 34 95  1  0  0  0  0
 35 39  1  0  0  0  0
 35 96  1  0  0  0  0
 35 97  1  0  0  0  0
 36 40  1  0  0  0  0
 36 98  1  0  0  0  0
 36 99  1  0  0  0  0
 37 43  1  0  0  0  0
 37100  1  0  0  0  0
 37101  1  0  0  0  0
 39 41  1  0  0  0  0
 39102  1  0  0  0  0
 39103  1  0  0  0  0
 40 44  1  0  0  0  0
 40104  1  0  0  0  0
 40105  1  0  0  0  0
 41 48  1  0  0  0  0
 41106  1  0  0  0  0
 41107  1  0  0  0  0
 42 50  1  0  0  0  0
 42 51  1  0  0  0  0
 42108  1  0  0  0  0
 43 53  1  0  0  0  0
 43110  1  0  0  0  0
 43111  1  0  0  0  0
 44 52  1  0  0  0  0
 44112  1  0  0  0  0
 44113  1  0  0  0  0
 46 47  1  0  0  0  0
 46 56  1  0  0  0  0
 46114  1  0  0  0  0
 47 49  1  0  0  0  0
 47115  1  0  0  0  0
 47116  1  0  0  0  0
 48117  1  0  0  0  0
 48118  1  0  0  0  0
 49 54  1  0  0  0  0
 49 55  1  0  0  0  0
 49119  1  0  0  0  0
 51 58  1  0  0  0  0
 51120  1  0  0  0  0
 51121  1  0  0  0  0
 52 57  1  0  0  0  0
 52123  1  0  0  0  0
 52124  1  0  0  0  0
 53 59  2  0  0  0  0
 53 60  1  0  0  0  0
 54125  1  0  0  0  0
 54126  1  0  0  0  0
 54127  1  0  0  0  0
 55128  1  0  0  0  0
 55129  1  0  0  0  0
 55130  1  0  0  0  0
 57131  1  0  0  0  0
 57132  1  0  0  0  0
 57133  1  0  0  0  0
 59 61  1  0  0  0  0
 59134  1  0  0  0  0
 60 62  2  0  0  0  0
 60135  1  0  0  0  0
 61 63  2  0  0  0  0
 61136  1  0  0  0  0
 62 63  1  0  0  0  0
 62137  1  0  0  0  0
 63138  1  0  0  0  0
M  END
> <PUBCHEM_COMPOUND_CID>
502993
> <PUBCHEM_COMPOUND_CANONICALIZED>
1
> <PUBCHEM_CACTVS_COMPLEXITY>
1430
> <PUBCHEM_CACTVS_HBOND_ACCEPTOR>
11
> <PUBCHEM_CACTVS_HBOND_DONOR>
6
> <PUBCHEM_CACTVS_ROTATABLE_BOND>
34
> <PUBCHEM_CACTVS_SUBSKEYS>
AAADcfB/vAAAAAAAAAAAAAAAAAAAAAAAAAAwAAAAAAAAAAABAAAAHgAQCAAADSjhmAYyCIPABgCIAiHSGAACAAAgAAAIiIGIAIgKYDqAkTCWYAAmlgCYiAe/yKCOAAAAAAAAAAAAAAAAAAAAAAAAAAAAAA==
> <PUBCHEM_IUPAC_OPENEYE_NAME>
(2S)-2-[[(2S)-3-carboxy-2-[[(2S)-4-dodecoxy-2-[[(2S,3S)-3-methyl-2-[[(2S)-3-methyl-2-[methyl(3-phenylpropanoyl)amino]butanoyl]amino]pentanoyl]amino]-4-oxo-butanoyl]amino]propanoyl]amino]-4-methyl-pentanoic acid
> <PUBCHEM_IUPAC_CAS_NAME>
(2S)-2-[[(2S)-3-carboxy-2-[[(2S)-4-dodecoxy-2-[[(2S,3S)-3-methyl-2-[[(2S)-3-methyl-2-[methyl-(1-oxo-3-phenylpropyl)amino]-1-oxobutyl]amino]-1-oxopentyl]amino]-1,4-dioxobutyl]amino]-1-oxopropyl]amino]-4-methylpentanoic acid
> <PUBCHEM_IUPAC_NAME_MARKUP>
(2<I>S</I>)-2-[[(2<I>S</I>)-3-carboxy-2-[[(2<I>S</I>)-4-dodecoxy-2-[[(2<I>S</I>,3<I>S</I>)-3-methyl-2-[[(2<I>S</I>)-3-methyl-2-[methyl(3-phenylpropanoyl)amino]butanoyl]amino]pentanoyl]amino]-4-oxobutanoyl]amino]propanoyl]amino]-4-methylpentanoic acid
> <PUBCHEM_IUPAC_NAME>
(2S)-2-[[(2S)-3-carboxy-2-[[(2S)-4-dodecoxy-2-[[(2S,3S)-3-methyl-2-[[(2S)-3-methyl-2-[methyl(3-phenylpropanoyl)amino]butanoyl]amino]pentanoyl]amino]-4-oxobutanoyl]amino]propanoyl]amino]-4-methylpentanoic acid
> <PUBCHEM_IUPAC_SYSTEMATIC_NAME>
(2S)-2-[[(2S)-2-[[(2S)-4-dodecoxy-2-[[(2S,3S)-3-methyl-2-[[(2S)-3-methyl-2-[methyl(3-phenylpropanoyl)amino]butanoyl]amino]pentanoyl]amino]-4-oxidanylidene-butanoyl]amino]-4-oxidanyl-4-oxidanylidene-butanoyl]amino]-4-methyl-pentanoic acid
> <PUBCHEM_IUPAC_TRADITIONAL_NAME>
(2S)-2-[[(2S)-3-carboxy-2-[[(2S)-2-[[(2S,3S)-2-[[(2S)-2-[hydrocinnamoyl(methyl)amino]-3-methyl-butanoyl]amino]-3-methyl-pentanoyl]amino]-4-keto-4-lauryloxy-butanoyl]amino]propanoyl]amino]-4-methyl-valeric acid
> <PUBCHEM_IUPAC_INCHI>
InChI=1S/C47H77N5O11/c1-9-11-12-13-14-15-16-17-18-22-27-63-40(56)30-36(44(58)48-35(29-39(54)55)43(57)50-37(47(61)62)28-31(3)4)49-45(59)41(33(7)10-2)51-46(60)42(32(5)6)52(8)38(53)26-25-34-23-20-19-21-24-34/h19-21,23-24,31-33,35-37,41-42H,9-18,22,25-30H2,1-8H3,(H,48,58)(H,49,59)(H,50,57)(H,51,60)(H,54,55)(H,61,62)/t33-,35-,36-,37-,41-,42-/m0/s1
> <PUBCHEM_IUPAC_INCHIKEY>
JKVGWAVHUVYJAO-PILDTYTGSA-N
> <PUBCHEM_XLOGP3_AA>
8.4
> <PUBCHEM_EXACT_MASS>
887.56195829
> <PUBCHEM_MOLECULAR_FORMULA>
C47H77N5O11
> <PUBCHEM_MOLECULAR_WEIGHT>
888.1
> <PUBCHEM_OPENEYE_CAN_SMILES>
CCCCCCCCCCCCOC(=O)CC(C(=O)NC(CC(=O)O)C(=O)NC(CC(C)C)C(=O)O)NC(=O)C(C(C)CC)NC(=O)C(C(C)C)N(C)C(=O)CCC1=CC=CC=C1
> <PUBCHEM_OPENEYE_ISO_SMILES>
CCCCCCCCCCCCOC(=O)C[C@@H](C(=O)N[C@@H](CC(=O)O)C(=O)N[C@@H](CC(C)C)C(=O)O)NC(=O)[C@H]([C@@H](C)CC)NC(=O)[C@H](C(C)C)N(C)C(=O)CCC1=CC=CC=C1
> <PUBCHEM_CACTVS_TPSA>
238
> <PUBCHEM_MONOISOTOPIC_WEIGHT>
887.56195829
> <PUBCHEM_TOTAL_CHARGE>
0
> <PUBCHEM_HEAVY_ATOM_COUNT>
63
> <PUBCHEM_ATOM_DEF_STEREO_COUNT>
6
> <PUBCHEM_ATOM_UDEF_STEREO_COUNT>
0
> <PUBCHEM_BOND_DEF_STEREO_COUNT>
0
> <PUBCHEM_BOND_UDEF_STEREO_COUNT>
0
> <PUBCHEM_ISOTOPIC_ATOM_COUNT>
0
> <PUBCHEM_COMPONENT_COUNT>
1
> <PUBCHEM_CACTVS_TAUTO_COUNT>
-1
> <PUBCHEM_COORDINATE_TYPE>
1
5
255
> <PUBCHEM_BONDANNOTATIONS>
18  12  6
19  13  5
27  14  5
42  15  5
46  16  5
17  24  6
53  59  8
53  60  8
59  61  8
60  62  8
61  63  8
62  63  8
$$$$
