502989
  -OEChem-10302200282D
116115  0     1  0  0  0  0  0999 V2000
   11.1972    0.2500    0.0000 O   0  0  0  0  0  0  0  0  0  0  0  0
    8.5991   -2.2500    0.0000 O   0  0  0  0  0  0  0  0  0  0  0  0
   13.7953   -2.2500    0.0000 O   0  0  0  0  0  0  0  0  0  0  0  0
    5.1350   -1.2500    0.0000 O   0  0  0  0  0  0  0  0  0  0  0  0
    5.1350   -2.2500    0.0000 O   0  0  0  0  0  0  0  0  0  0  0  0
    4.2690    2.2500    0.0000 O   0  0  0  0  0  0  0  0  0  0  0  0
    6.8671    4.7500    0.0000 O   0  0  0  0  0  0  0  0  0  0  0  0
    7.7331    3.2500    0.0000 O   0  0  0  0  0  0  0  0  0  0  0  0
    2.5369    0.2500    0.0000 O   0  0  0  0  0  0  0  0  0  0  0  0
    3.4030    1.7500    0.0000 O   0  0  0  0  0  0  0  0  0  0  0  0
   10.3312   -1.2500    0.0000 N   0  0  0  0  0  0  0  0  0  0  0  0
   12.9292   -0.7500    0.0000 N   0  0  0  0  0  0  0  0  0  0  0  0
    7.7331   -0.7500    0.0000 N   0  0  0  0  0  0  0  0  0  0  0  0
    6.0010    0.2500    0.0000 N   0  0  0  0  0  0  0  0  0  0  0  0
    6.0010   -3.7500    0.0000 N   0  0  0  0  0  0  0  0  0  0  0  0
    6.0010    2.2500    0.0000 N   0  0  0  0  0  0  0  0  0  0  0  0
    9.4651   -0.7500    0.0000 C   0  0  1  0  0  0  0  0  0  0  0  0
    9.4651    0.2500    0.0000 C   0  0  2  0  0  0  0  0  0  0  0  0
   12.0632   -1.2500    0.0000 C   0  0  1  0  0  0  0  0  0  0  0  0
   12.0632   -2.2500    0.0000 C   0  0  0  0  0  0  0  0  0  0  0  0
    8.5991    0.7500    0.0000 C   0  0  0  0  0  0  0  0  0  0  0  0
   11.1972   -0.7500    0.0000 C   0  0  0  0  0  0  0  0  0  0  0  0
    8.5991   -1.2500    0.0000 C   0  0  0  0  0  0  0  0  0  0  0  0
   10.3312    0.7500    0.0000 C   0  0  0  0  0  0  0  0  0  0  0  0
   11.1972   -2.7500    0.0000 C   0  0  0  0  0  0  0  0  0  0  0  0
   12.9292   -2.7500    0.0000 C   0  0  0  0  0  0  0  0  0  0  0  0
    6.8671   -1.2500    0.0000 C   0  0  1  0  0  0  0  0  0  0  0  0
   13.7953   -1.2500    0.0000 C   0  0  0  0  0  0  0  0  0  0  0  0
   14.6613   -0.7500    0.0000 C   0  0  0  0  0  0  0  0  0  0  0  0
    8.5991    1.7500    0.0000 C   0  0  0  0  0  0  0  0  0  0  0  0
   12.9292    0.2500    0.0000 C   0  0  0  0  0  0  0  0  0  0  0  0
   15.5273   -1.2500    0.0000 C   0  0  0  0  0  0  0  0  0  0  0  0
    6.8671   -2.2500    0.0000 C   0  0  0  0  0  0  0  0  0  0  0  0
   16.3933   -0.7500    0.0000 C   0  0  0  0  0  0  0  0  0  0  0  0
    6.0010   -0.7500    0.0000 C   0  0  0  0  0  0  0  0  0  0  0  0
    5.1350    0.7500    0.0000 C   0  0  2  0  0  0  0  0  0  0  0  0
    6.0010   -2.7500    0.0000 C   0  0  0  0  0  0  0  0  0  0  0  0
    5.1350    3.7500    0.0000 C   0  0  0  0  0  0  0  0  0  0  0  0
    6.0010    3.2500    0.0000 C   0  0  1  0  0  0  0  0  0  0  0  0
    5.1350    4.7500    0.0000 C   0  0  0  0  0  0  0  0  0  0  0  0
   17.2594   -1.2500    0.0000 C   0  0  0  0  0  0  0  0  0  0  0  0
   16.3933    0.2500    0.0000 C   0  0  0  0  0  0  0  0  0  0  0  0
    5.1350    1.7500    0.0000 C   0  0  0  0  0  0  0  0  0  0  0  0
    4.2690    0.2500    0.0000 C   0  0  0  0  0  0  0  0  0  0  0  0
    5.1350   -4.2500    0.0000 C   0  0  0  0  0  0  0  0  0  0  0  0
    6.8671   -4.2500    0.0000 C   0  0  0  0  0  0  0  0  0  0  0  0
    4.2690    5.2500    0.0000 C   0  0  0  0  0  0  0  0  0  0  0  0
    6.0010    5.2500    0.0000 C   0  0  0  0  0  0  0  0  0  0  0  0
    6.8671    3.7500    0.0000 C   0  0  0  0  0  0  0  0  0  0  0  0
    3.4030    0.7500    0.0000 C   0  0  0  0  0  0  0  0  0  0  0  0
    5.1350   -5.2500    0.0000 C   0  0  0  0  0  0  0  0  0  0  0  0
    6.8671   -5.2500    0.0000 C   0  0  0  0  0  0  0  0  0  0  0  0
    9.4651   -1.3700    0.0000 H   0  0  0  0  0  0  0  0  0  0  0  0
   10.0021   -0.0600    0.0000 H   0  0  0  0  0  0  0  0  0  0  0  0
   12.0632   -0.6300    0.0000 H   0  0  0  0  0  0  0  0  0  0  0  0
   12.6002   -1.9400    0.0000 H   0  0  0  0  0  0  0  0  0  0  0  0
   10.3312   -1.8700    0.0000 H   0  0  0  0  0  0  0  0  0  0  0  0
    7.9885    0.8577    0.0000 H   0  0  0  0  0  0  0  0  0  0  0  0
    8.3871    0.1674    0.0000 H   0  0  0  0  0  0  0  0  0  0  0  0
   10.6412    0.2131    0.0000 H   0  0  0  0  0  0  0  0  0  0  0  0
   10.8681    1.0600    0.0000 H   0  0  0  0  0  0  0  0  0  0  0  0
   10.0212    1.2869    0.0000 H   0  0  0  0  0  0  0  0  0  0  0  0
   10.8872   -2.2131    0.0000 H   0  0  0  0  0  0  0  0  0  0  0  0
   10.6603   -3.0600    0.0000 H   0  0  0  0  0  0  0  0  0  0  0  0
   11.5072   -3.2869    0.0000 H   0  0  0  0  0  0  0  0  0  0  0  0
   12.6192   -3.2869    0.0000 H   0  0  0  0  0  0  0  0  0  0  0  0
   13.4662   -3.0600    0.0000 H   0  0  0  0  0  0  0  0  0  0  0  0
   13.2392   -2.2131    0.0000 H   0  0  0  0  0  0  0  0  0  0  0  0
    7.4040   -1.5600    0.0000 H   0  0  0  0  0  0  0  0  0  0  0  0
    7.7331   -0.1300    0.0000 H   0  0  0  0  0  0  0  0  0  0  0  0
   15.0598   -0.2751    0.0000 H   0  0  0  0  0  0  0  0  0  0  0  0
   14.2628   -0.2751    0.0000 H   0  0  0  0  0  0  0  0  0  0  0  0
    9.2191    1.7500    0.0000 H   0  0  0  0  0  0  0  0  0  0  0  0
    8.5991    2.3700    0.0000 H   0  0  0  0  0  0  0  0  0  0  0  0
    7.9791    1.7500    0.0000 H   0  0  0  0  0  0  0  0  0  0  0  0
   13.5492    0.2500    0.0000 H   0  0  0  0  0  0  0  0  0  0  0  0
   12.9292    0.8700    0.0000 H   0  0  0  0  0  0  0  0  0  0  0  0
   12.3092    0.2500    0.0000 H   0  0  0  0  0  0  0  0  0  0  0  0
   15.1288   -1.7250    0.0000 H   0  0  0  0  0  0  0  0  0  0  0  0
   15.9258   -1.7250    0.0000 H   0  0  0  0  0  0  0  0  0  0  0  0
    7.0791   -2.8326    0.0000 H   0  0  0  0  0  0  0  0  0  0  0  0
    7.4776   -2.1423    0.0000 H   0  0  0  0  0  0  0  0  0  0  0  0
   16.9303   -0.4400    0.0000 H   0  0  0  0  0  0  0  0  0  0  0  0
    5.1350    0.1300    0.0000 H   0  0  0  0  0  0  0  0  0  0  0  0
    6.5380    0.5600    0.0000 H   0  0  0  0  0  0  0  0  0  0  0  0
    4.5244    3.8577    0.0000 H   0  0  0  0  0  0  0  0  0  0  0  0
    4.9230    3.1674    0.0000 H   0  0  0  0  0  0  0  0  0  0  0  0
    6.5380    2.9400    0.0000 H   0  0  0  0  0  0  0  0  0  0  0  0
    5.1350    5.3700    0.0000 H   0  0  0  0  0  0  0  0  0  0  0  0
   16.9494   -1.7869    0.0000 H   0  0  0  0  0  0  0  0  0  0  0  0
   17.7963   -1.5600    0.0000 H   0  0  0  0  0  0  0  0  0  0  0  0
   17.5694   -0.7131    0.0000 H   0  0  0  0  0  0  0  0  0  0  0  0
   17.0133    0.2500    0.0000 H   0  0  0  0  0  0  0  0  0  0  0  0
   16.3933    0.8700    0.0000 H   0  0  0  0  0  0  0  0  0  0  0  0
   15.7733    0.2500    0.0000 H   0  0  0  0  0  0  0  0  0  0  0  0
    3.8705   -0.2249    0.0000 H   0  0  0  0  0  0  0  0  0  0  0  0
    4.6675   -0.2249    0.0000 H   0  0  0  0  0  0  0  0  0  0  0  0
    6.5380    1.9400    0.0000 H   0  0  0  0  0  0  0  0  0  0  0  0
    4.5790    5.7869    0.0000 H   0  0  0  0  0  0  0  0  0  0  0  0
    3.7320    5.5600    0.0000 H   0  0  0  0  0  0  0  0  0  0  0  0
    3.9590    4.7131    0.0000 H   0  0  0  0  0  0  0  0  0  0  0  0
    6.3110    4.7131    0.0000 H   0  0  0  0  0  0  0  0  0  0  0  0
    6.5380    5.5600    0.0000 H   0  0  0  0  0  0  0  0  0  0  0  0
    5.6910    5.7869    0.0000 H   0  0  0  0  0  0  0  0  0  0  0  0
    4.9230   -3.6674    0.0000 H   0  0  0  0  0  0  0  0  0  0  0  0
    4.5244   -4.3577    0.0000 H   0  0  0  0  0  0  0  0  0  0  0  0
    7.4776   -4.3577    0.0000 H   0  0  0  0  0  0  0  0  0  0  0  0
    7.0791   -3.6674    0.0000 H   0  0  0  0  0  0  0  0  0  0  0  0
    4.5150   -5.2500    0.0000 H   0  0  0  0  0  0  0  0  0  0  0  0
    5.1350   -5.8700    0.0000 H   0  0  0  0  0  0  0  0  0  0  0  0
    5.7550   -5.2500    0.0000 H   0  0  0  0  0  0  0  0  0  0  0  0
    6.2471   -5.2500    0.0000 H   0  0  0  0  0  0  0  0  0  0  0  0
    6.8671   -5.8700    0.0000 H   0  0  0  0  0  0  0  0  0  0  0  0
    7.4871   -5.2500    0.0000 H   0  0  0  0  0  0  0  0  0  0  0  0
    7.4040    5.0600    0.0000 H   0  0  0  0  0  0  0  0  0  0  0  0
    2.0000    0.5600    0.0000 H   0  0  0  0  0  0  0  0  0  0  0  0
  1 22  2  0  0  0  0
  2 23  2  0  0  0  0
  3 28  2  0  0  0  0
  4 35  2  0  0  0  0
  5 37  2  0  0  0  0
  6 43  2  0  0  0  0
  7 49  1  0  0  0  0
  7115  1  0  0  0  0
  8 49  2  0  0  0  0
  9 50  1  0  0  0  0
  9116  1  0  0  0  0
 10 50  2  0  0  0  0
 17 11  1  6  0  0  0
 11 22  1  0  0  0  0
 11 57  1  0  0  0  0
 19 12  1  1  0  0  0
 12 28  1  0  0  0  0
 12 31  1  0  0  0  0
 13 23  1  0  0  0  0
 27 13  1  1  0  0  0
 13 70  1  0  0  0  0
 14 35  1  0  0  0  0
 36 14  1  1  0  0  0
 14 85  1  0  0  0  0
 15 37  1  0  0  0  0
 15 45  1  0  0  0  0
 15 46  1  0  0  0  0
 39 16  1  1  0  0  0
 16 43  1  0  0  0  0
 16 98  1  0  0  0  0
 17 18  1  0  0  0  0
 17 23  1  0  0  0  0
 17 53  1  0  0  0  0
 18 21  1  0  0  0  0
 18 24  1  6  0  0  0
 18 54  1  0  0  0  0
 19 20  1  0  0  0  0
 19 22  1  0  0  0  0
 19 55  1  0  0  0  0
 20 25  1  0  0  0  0
 20 26  1  0  0  0  0
 20 56  1  0  0  0  0
 21 30  1  0  0  0  0
 21 58  1  0  0  0  0
 21 59  1  0  0  0  0
 24 60  1  0  0  0  0
 24 61  1  0  0  0  0
 24 62  1  0  0  0  0
 25 63  1  0  0  0  0
 25 64  1  0  0  0  0
 25 65  1  0  0  0  0
 26 66  1  0  0  0  0
 26 67  1  0  0  0  0
 26 68  1  0  0  0  0
 27 33  1  0  0  0  0
 27 35  1  0  0  0  0
 27 69  1  0  0  0  0
 28 29  1  0  0  0  0
 29 32  1  0  0  0  0
 29 71  1  0  0  0  0
 29 72  1  0  0  0  0
 30 73  1  0  0  0  0
 30 74  1  0  0  0  0
 30 75  1  0  0  0  0
 31 76  1  0  0  0  0
 31 77  1  0  0  0  0
 31 78  1  0  0  0  0
 32 34  1  0  0  0  0
 32 79  1  0  0  0  0
 32 80  1  0  0  0  0
 33 37  1  0  0  0  0
 33 81  1  0  0  0  0
 33 82  1  0  0  0  0
 34 41  1  0  0  0  0
 34 42  1  0  0  0  0
 34 83  1  0  0  0  0
 36 43  1  0  0  0  0
 36 44  1  0  0  0  0
 36 84  1  0  0  0  0
 38 39  1  0  0  0  0
 38 40  1  0  0  0  0
 38 86  1  0  0  0  0
 38 87  1  0  0  0  0
 39 49  1  0  0  0  0
 39 88  1  0  0  0  0
 40 47  1  0  0  0  0
 40 48  1  0  0  0  0
 40 89  1  0  0  0  0
 41 90  1  0  0  0  0
 41 91  1  0  0  0  0
 41 92  1  0  0  0  0
 42 93  1  0  0  0  0
 42 94  1  0  0  0  0
 42 95  1  0  0  0  0
 44 50  1  0  0  0  0
 44 96  1  0  0  0  0
 44 97  1  0  0  0  0
 45 51  1  0  0  0  0
 45105  1  0  0  0  0
 45106  1  0  0  0  0
 46 52  1  0  0  0  0
 46107  1  0  0  0  0
 46108  1  0  0  0  0
 47 99  1  0  0  0  0
 47100  1  0  0  0  0
 47101  1  0  0  0  0
 48102  1  0  0  0  0
 48103  1  0  0  0  0
 48104  1  0  0  0  0
 51109  1  0  0  0  0
 51110  1  0  0  0  0
 51111  1  0  0  0  0
 52112  1  0  0  0  0
 52113  1  0  0  0  0
 52114  1  0  0  0  0
M  END
> <PUBCHEM_COMPOUND_CID>
502989
> <PUBCHEM_COMPOUND_CANONICALIZED>
1
> <PUBCHEM_CACTVS_COMPLEXITY>
1240
> <PUBCHEM_CACTVS_HBOND_ACCEPTOR>
10
> <PUBCHEM_CACTVS_HBOND_DONOR>
6
> <PUBCHEM_CACTVS_ROTATABLE_BOND>
24
> <PUBCHEM_CACTVS_SUBSKEYS>
AAADcfB/vAAAAAAAAAAAAAAAAAAAAAAAAAAAAAAAAAAAAAAAAAAAHgAQCAAADSjBgAQCCAPAAgAIAAGQGAAAAAAAAAAAAIGIAAACQBoAwCAUQAAGFgCQAAC/AAAOAAAAAAAAAAAAAAAAAAAAAAAAAAAAAA==
> <PUBCHEM_IUPAC_OPENEYE_NAME>
(2S)-2-[[(2S)-3-carboxy-2-[[(2S)-4-(diethylamino)-2-[[(2S,3S)-3-methyl-2-[[(2S)-3-methyl-2-[methyl(4-methylpentanoyl)amino]butanoyl]amino]pentanoyl]amino]-4-oxo-butanoyl]amino]propanoyl]amino]-4-methyl-pentanoic acid
> <PUBCHEM_IUPAC_CAS_NAME>
(2S)-2-[[(2S)-3-carboxy-2-[[(2S)-4-(diethylamino)-2-[[(2S,3S)-3-methyl-2-[[(2S)-3-methyl-2-[methyl-(4-methyl-1-oxopentyl)amino]-1-oxobutyl]amino]-1-oxopentyl]amino]-1,4-dioxobutyl]amino]-1-oxopropyl]amino]-4-methylpentanoic acid
> <PUBCHEM_IUPAC_NAME_MARKUP>
(2<I>S</I>)-2-[[(2<I>S</I>)-3-carboxy-2-[[(2<I>S</I>)-4-(diethylamino)-2-[[(2<I>S</I>,3<I>S</I>)-3-methyl-2-[[(2<I>S</I>)-3-methyl-2-[methyl(4-methylpentanoyl)amino]butanoyl]amino]pentanoyl]amino]-4-oxobutanoyl]amino]propanoyl]amino]-4-methylpentanoic acid
> <PUBCHEM_IUPAC_NAME>
(2S)-2-[[(2S)-3-carboxy-2-[[(2S)-4-(diethylamino)-2-[[(2S,3S)-3-methyl-2-[[(2S)-3-methyl-2-[methyl(4-methylpentanoyl)amino]butanoyl]amino]pentanoyl]amino]-4-oxobutanoyl]amino]propanoyl]amino]-4-methylpentanoic acid
> <PUBCHEM_IUPAC_SYSTEMATIC_NAME>
(2S)-2-[[(2S)-2-[[(2S)-4-(diethylamino)-2-[[(2S,3S)-3-methyl-2-[[(2S)-3-methyl-2-[methyl(4-methylpentanoyl)amino]butanoyl]amino]pentanoyl]amino]-4-oxidanylidene-butanoyl]amino]-4-oxidanyl-4-oxidanylidene-butanoyl]amino]-4-methyl-pentanoic acid
> <PUBCHEM_IUPAC_TRADITIONAL_NAME>
(2S)-2-[[(2S)-3-carboxy-2-[[(2S)-4-(diethylamino)-4-keto-2-[[(2S,3S)-3-methyl-2-[[(2S)-3-methyl-2-[methyl(4-methylpentanoyl)amino]butanoyl]amino]pentanoyl]amino]butanoyl]amino]propanoyl]amino]-4-methyl-valeric acid
> <PUBCHEM_IUPAC_INCHI>
InChI=1S/C36H64N6O10/c1-12-23(10)30(40-35(50)31(22(8)9)41(11)27(43)16-15-20(4)5)34(49)38-24(18-28(44)42(13-2)14-3)32(47)37-25(19-29(45)46)33(48)39-26(36(51)52)17-21(6)7/h20-26,30-31H,12-19H2,1-11H3,(H,37,47)(H,38,49)(H,39,48)(H,40,50)(H,45,46)(H,51,52)/t23-,24-,25-,26-,30-,31-/m0/s1
> <PUBCHEM_IUPAC_INCHIKEY>
RGVWGDZMNBYNLQ-PXQNEPCRSA-N
> <PUBCHEM_XLOGP3_AA>
2.9
> <PUBCHEM_EXACT_MASS>
740.46839226
> <PUBCHEM_MOLECULAR_FORMULA>
C36H64N6O10
> <PUBCHEM_MOLECULAR_WEIGHT>
740.9
> <PUBCHEM_OPENEYE_CAN_SMILES>
CCC(C)C(C(=O)NC(CC(=O)N(CC)CC)C(=O)NC(CC(=O)O)C(=O)NC(CC(C)C)C(=O)O)NC(=O)C(C(C)C)N(C)C(=O)CCC(C)C
> <PUBCHEM_OPENEYE_ISO_SMILES>
CC[C@H](C)[C@@H](C(=O)N[C@@H](CC(=O)N(CC)CC)C(=O)N[C@@H](CC(=O)O)C(=O)N[C@@H](CC(C)C)C(=O)O)NC(=O)[C@H](C(C)C)N(C)C(=O)CCC(C)C
> <PUBCHEM_CACTVS_TPSA>
232
> <PUBCHEM_MONOISOTOPIC_WEIGHT>
740.46839226
> <PUBCHEM_TOTAL_CHARGE>
0
> <PUBCHEM_HEAVY_ATOM_COUNT>
52
> <PUBCHEM_ATOM_DEF_STEREO_COUNT>
6
> <PUBCHEM_ATOM_UDEF_STEREO_COUNT>
0
> <PUBCHEM_BOND_DEF_STEREO_COUNT>
0
> <PUBCHEM_BOND_UDEF_STEREO_COUNT>
0
> <PUBCHEM_ISOTOPIC_ATOM_COUNT>
0
> <PUBCHEM_COMPONENT_COUNT>
1
> <PUBCHEM_CACTVS_TAUTO_COUNT>
-1
> <PUBCHEM_COORDINATE_TYPE>
1
5
255
> <PUBCHEM_BONDANNOTATIONS>
17  11  6
19  12  5
27  13  5
36  14  5
39  16  5
18  24  6
$$$$
