503094
  -OEChem-10302200282D
 82 85  0     1  0  0  0  0  0999 V2000
   10.7282   -0.5950    0.0000 O   0  0  0  0  0  0  0  0  0  0  0  0
   12.4603    0.4050    0.0000 O   0  0  0  0  0  0  0  0  0  0  0  0
    9.8622   -1.0950    0.0000 O   0  0  0  0  0  0  0  0  0  0  0  0
   13.3263   -1.0950    0.0000 O   0  0  0  0  0  0  0  0  0  0  0  0
    9.8622   -2.0950    0.0000 O   0  0  0  0  0  0  0  0  0  0  0  0
    6.3981   -2.0950    0.0000 O   0  0  0  0  0  0  0  0  0  0  0  0
    8.9962    0.4050    0.0000 N   0  0  0  0  0  0  0  0  0  0  0  0
   15.0583   -1.0950    0.0000 N   0  0  0  0  0  0  0  0  0  0  0  0
    7.2641   -0.5950    0.0000 N   0  0  0  0  0  0  0  0  0  0  0  0
    8.9962   -3.5950    0.0000 N   0  0  0  0  0  0  0  0  0  0  0  0
    4.6660   -1.0950    0.0000 N   0  0  0  0  0  0  0  0  0  0  0  0
    9.8622    0.9050    0.0000 C   0  0  2  0  0  0  0  0  0  0  0  0
   10.7282    0.4050    0.0000 C   0  0  1  0  0  0  0  0  0  0  0  0
    9.8622    1.9050    0.0000 C   0  0  0  0  0  0  0  0  0  0  0  0
   11.5942    0.9050    0.0000 C   0  0  0  0  0  0  0  0  0  0  0  0
    8.1301   -1.0950    0.0000 C   0  0  2  0  0  0  0  0  0  0  0  0
   15.0583   -2.0950    0.0000 C   0  0  0  0  0  0  0  0  0  0  0  0
    8.9962   -0.5950    0.0000 C   0  0  0  0  0  0  0  0  0  0  0  0
    8.1301   -2.0950    0.0000 C   0  0  0  0  0  0  0  0  0  0  0  0
   10.7282    2.4050    0.0000 C   0  0  0  0  0  0  0  0  0  0  0  0
    8.9962    2.4050    0.0000 C   0  0  0  0  0  0  0  0  0  0  0  0
   15.0583   -3.0950    0.0000 C   0  0  0  0  0  0  0  0  0  0  0  0
   16.0583   -2.0950    0.0000 C   0  0  0  0  0  0  0  0  0  0  0  0
   14.0583   -2.0950    0.0000 C   0  0  0  0  0  0  0  0  0  0  0  0
   13.3263    0.9050    0.0000 C   0  0  0  0  0  0  0  0  0  0  0  0
   14.1923    0.4050    0.0000 C   0  0  0  0  0  0  0  0  0  0  0  0
   14.1923   -0.5950    0.0000 C   0  0  0  0  0  0  0  0  0  0  0  0
   10.7282    3.4050    0.0000 C   0  0  0  0  0  0  0  0  0  0  0  0
    8.9962    3.4050    0.0000 C   0  0  0  0  0  0  0  0  0  0  0  0
    9.8622    3.9050    0.0000 C   0  0  0  0  0  0  0  0  0  0  0  0
    8.9962   -2.5950    0.0000 C   0  0  0  0  0  0  0  0  0  0  0  0
    6.3981   -1.0950    0.0000 C   0  0  0  0  0  0  0  0  0  0  0  0
   13.3263    1.9050    0.0000 C   0  0  0  0  0  0  0  0  0  0  0  0
   15.0583    0.9050    0.0000 C   0  0  0  0  0  0  0  0  0  0  0  0
   14.1923    2.4050    0.0000 C   0  0  0  0  0  0  0  0  0  0  0  0
   15.0583    1.9050    0.0000 C   0  0  0  0  0  0  0  0  0  0  0  0
    5.5321   -0.5950    0.0000 C   0  0  0  0  0  0  0  0  0  0  0  0
    5.5321    0.4050    0.0000 C   0  0  0  0  0  0  0  0  0  0  0  0
    3.8000   -0.5950    0.0000 C   0  0  0  0  0  0  0  0  0  0  0  0
    3.8000    0.4050    0.0000 C   0  0  0  0  0  0  0  0  0  0  0  0
    4.6660    0.9050    0.0000 C   0  0  0  0  0  0  0  0  0  0  0  0
    2.9061   -1.1297    0.0000 C   0  0  0  0  0  0  0  0  0  0  0  0
    2.9061    0.9397    0.0000 C   0  0  0  0  0  0  0  0  0  0  0  0
    2.0000   -0.6158    0.0000 C   0  0  0  0  0  0  0  0  0  0  0  0
    2.0000    0.4258    0.0000 C   0  0  0  0  0  0  0  0  0  0  0  0
    9.3252    1.2150    0.0000 H   0  0  0  0  0  0  0  0  0  0  0  0
   11.2651    0.0950    0.0000 H   0  0  0  0  0  0  0  0  0  0  0  0
    8.4592    0.7150    0.0000 H   0  0  0  0  0  0  0  0  0  0  0  0
   11.9928    1.3800    0.0000 H   0  0  0  0  0  0  0  0  0  0  0  0
   11.1957    1.3800    0.0000 H   0  0  0  0  0  0  0  0  0  0  0  0
    7.5932   -1.4050    0.0000 H   0  0  0  0  0  0  0  0  0  0  0  0
    7.5196   -1.9873    0.0000 H   0  0  0  0  0  0  0  0  0  0  0  0
    7.9181   -2.6776    0.0000 H   0  0  0  0  0  0  0  0  0  0  0  0
   11.2651    2.0950    0.0000 H   0  0  0  0  0  0  0  0  0  0  0  0
    8.4592    2.0950    0.0000 H   0  0  0  0  0  0  0  0  0  0  0  0
   15.5953   -0.7850    0.0000 H   0  0  0  0  0  0  0  0  0  0  0  0
   11.2651   -0.9050    0.0000 H   0  0  0  0  0  0  0  0  0  0  0  0
   14.4383   -3.0950    0.0000 H   0  0  0  0  0  0  0  0  0  0  0  0
   15.0583   -3.7150    0.0000 H   0  0  0  0  0  0  0  0  0  0  0  0
   15.6783   -3.0950    0.0000 H   0  0  0  0  0  0  0  0  0  0  0  0
   16.0583   -2.7150    0.0000 H   0  0  0  0  0  0  0  0  0  0  0  0
   16.6783   -2.0950    0.0000 H   0  0  0  0  0  0  0  0  0  0  0  0
   16.0583   -1.4750    0.0000 H   0  0  0  0  0  0  0  0  0  0  0  0
   14.0583   -1.4750    0.0000 H   0  0  0  0  0  0  0  0  0  0  0  0
   13.4383   -2.0950    0.0000 H   0  0  0  0  0  0  0  0  0  0  0  0
   14.0583   -2.7150    0.0000 H   0  0  0  0  0  0  0  0  0  0  0  0
    7.2641    0.0250    0.0000 H   0  0  0  0  0  0  0  0  0  0  0  0
   11.2651    3.7150    0.0000 H   0  0  0  0  0  0  0  0  0  0  0  0
    8.4592    3.7150    0.0000 H   0  0  0  0  0  0  0  0  0  0  0  0
    9.8622    4.5250    0.0000 H   0  0  0  0  0  0  0  0  0  0  0  0
   12.7894    2.2150    0.0000 H   0  0  0  0  0  0  0  0  0  0  0  0
   15.5953    0.5950    0.0000 H   0  0  0  0  0  0  0  0  0  0  0  0
   14.1923    3.0250    0.0000 H   0  0  0  0  0  0  0  0  0  0  0  0
   15.5953    2.2150    0.0000 H   0  0  0  0  0  0  0  0  0  0  0  0
    8.4592   -3.9050    0.0000 H   0  0  0  0  0  0  0  0  0  0  0  0
    9.5331   -3.9050    0.0000 H   0  0  0  0  0  0  0  0  0  0  0  0
    6.0690    0.7150    0.0000 H   0  0  0  0  0  0  0  0  0  0  0  0
    4.6660    1.5250    0.0000 H   0  0  0  0  0  0  0  0  0  0  0  0
    2.9132   -1.7496    0.0000 H   0  0  0  0  0  0  0  0  0  0  0  0
    2.9132    1.5596    0.0000 H   0  0  0  0  0  0  0  0  0  0  0  0
    1.4643   -0.9279    0.0000 H   0  0  0  0  0  0  0  0  0  0  0  0
    1.4643    0.7379    0.0000 H   0  0  0  0  0  0  0  0  0  0  0  0
 13  1  1  1  0  0  0
  1 57  1  0  0  0  0
  2 15  1  0  0  0  0
  2 25  1  0  0  0  0
  3 18  2  0  0  0  0
  4 27  2  0  0  0  0
  5 31  2  0  0  0  0
  6 32  2  0  0  0  0
 12  7  1  1  0  0  0
  7 18  1  0  0  0  0
  7 48  1  0  0  0  0
  8 17  1  0  0  0  0
  8 27  1  0  0  0  0
  8 56  1  0  0  0  0
 16  9  1  6  0  0  0
  9 32  1  0  0  0  0
  9 67  1  0  0  0  0
 10 31  1  0  0  0  0
 10 75  1  0  0  0  0
 10 76  1  0  0  0  0
 11 37  2  0  0  0  0
 11 39  1  0  0  0  0
 12 13  1  0  0  0  0
 12 14  1  0  0  0  0
 12 46  1  0  0  0  0
 13 15  1  0  0  0  0
 13 47  1  0  0  0  0
 14 20  2  0  0  0  0
 14 21  1  0  0  0  0
 15 49  1  0  0  0  0
 15 50  1  0  0  0  0
 16 18  1  0  0  0  0
 16 19  1  0  0  0  0
 16 51  1  0  0  0  0
 17 22  1  0  0  0  0
 17 23  1  0  0  0  0
 17 24  1  0  0  0  0
 19 31  1  0  0  0  0
 19 52  1  0  0  0  0
 19 53  1  0  0  0  0
 20 28  1  0  0  0  0
 20 54  1  0  0  0  0
 21 29  2  0  0  0  0
 21 55  1  0  0  0  0
 22 58  1  0  0  0  0
 22 59  1  0  0  0  0
 22 60  1  0  0  0  0
 23 61  1  0  0  0  0
 23 62  1  0  0  0  0
 23 63  1  0  0  0  0
 24 64  1  0  0  0  0
 24 65  1  0  0  0  0
 24 66  1  0  0  0  0
 25 26  1  0  0  0  0
 25 33  2  0  0  0  0
 26 27  1  0  0  0  0
 26 34  2  0  0  0  0
 28 30  2  0  0  0  0
 28 68  1  0  0  0  0
 29 30  1  0  0  0  0
 29 69  1  0  0  0  0
 30 70  1  0  0  0  0
 32 37  1  0  0  0  0
 33 35  1  0  0  0  0
 33 71  1  0  0  0  0
 34 36  1  0  0  0  0
 34 72  1  0  0  0  0
 35 36  2  0  0  0  0
 35 73  1  0  0  0  0
 36 74  1  0  0  0  0
 37 38  1  0  0  0  0
 38 41  2  0  0  0  0
 38 77  1  0  0  0  0
 39 40  1  0  0  0  0
 39 42  2  0  0  0  0
 40 41  1  0  0  0  0
 40 43  2  0  0  0  0
 41 78  1  0  0  0  0
 42 44  1  0  0  0  0
 42 79  1  0  0  0  0
 43 45  1  0  0  0  0
 43 80  1  0  0  0  0
 44 45  2  0  0  0  0
 44 81  1  0  0  0  0
 45 82  1  0  0  0  0
M  END
> <PUBCHEM_COMPOUND_CID>
503094
> <PUBCHEM_COMPOUND_CANONICALIZED>
1
> <PUBCHEM_CACTVS_COMPLEXITY>
1010
> <PUBCHEM_CACTVS_HBOND_ACCEPTOR>
7
> <PUBCHEM_CACTVS_HBOND_DONOR>
5
> <PUBCHEM_CACTVS_ROTATABLE_BOND>
13
> <PUBCHEM_CACTVS_SUBSKEYS>
AAADcfB/uAAAAAAAAAAAAAAAAAAAAAAAAAA8YMEAAAAAAACx9AAAHgAQCAAADLzhngYyxvLIFgCoAyVyVACCiCAnIiAImKG+bNgPdv7E9buWeWjm9hHb6YedyKCOAAAAAAAKAAAAAAAAABQAAAAAAAAAAA==
> <PUBCHEM_IUPAC_OPENEYE_NAME>
(2S)-N-[(1S,2S)-3-[2-(tert-butylcarbamoyl)phenoxy]-2-hydroxy-1-phenyl-propyl]-2-(quinoline-2-carbonylamino)butanediamide
> <PUBCHEM_IUPAC_CAS_NAME>
(2S)-N-[(1S,2S)-3-[2-[(tert-butylamino)-oxomethyl]phenoxy]-2-hydroxy-1-phenylpropyl]-2-[[oxo(2-quinolinyl)methyl]amino]butanediamide
> <PUBCHEM_IUPAC_NAME_MARKUP>
(2<I>S</I>)-<I>N</I>-[(1<I>S</I>,2<I>S</I>)-3-[2-(<I>tert</I>-butylcarbamoyl)phenoxy]-2-hydroxy-1-phenylpropyl]-2-(quinoline-2-carbonylamino)butanediamide
> <PUBCHEM_IUPAC_NAME>
(2S)-N-[(1S,2S)-3-[2-(tert-butylcarbamoyl)phenoxy]-2-hydroxy-1-phenylpropyl]-2-(quinoline-2-carbonylamino)butanediamide
> <PUBCHEM_IUPAC_SYSTEMATIC_NAME>
(2S)-N-[(1S,2S)-3-[2-(tert-butylcarbamoyl)phenoxy]-2-oxidanyl-1-phenyl-propyl]-2-(quinolin-2-ylcarbonylamino)butanediamide
> <PUBCHEM_IUPAC_TRADITIONAL_NAME>
(2S)-N-[(1S,2S)-3-[2-(tert-butylcarbamoyl)phenoxy]-2-hydroxy-1-phenyl-propyl]-2-(quinaldoylamino)succinamide
> <PUBCHEM_IUPAC_INCHI>
InChI=1S/C34H37N5O6/c1-34(2,3)39-31(42)23-14-8-10-16-28(23)45-20-27(40)30(22-12-5-4-6-13-22)38-33(44)26(19-29(35)41)37-32(43)25-18-17-21-11-7-9-15-24(21)36-25/h4-18,26-27,30,40H,19-20H2,1-3H3,(H2,35,41)(H,37,43)(H,38,44)(H,39,42)/t26-,27+,30-/m0/s1
> <PUBCHEM_IUPAC_INCHIKEY>
BBJOJXWWKHKPPZ-DURBRWELSA-N
> <PUBCHEM_XLOGP3_AA>
2.9
> <PUBCHEM_EXACT_MASS>
611.27438392
> <PUBCHEM_MOLECULAR_FORMULA>
C34H37N5O6
> <PUBCHEM_MOLECULAR_WEIGHT>
611.7
> <PUBCHEM_OPENEYE_CAN_SMILES>
CC(C)(C)NC(=O)C1=CC=CC=C1OCC(C(C2=CC=CC=C2)NC(=O)C(CC(=O)N)NC(=O)C3=NC4=CC=CC=C4C=C3)O
> <PUBCHEM_OPENEYE_ISO_SMILES>
CC(C)(C)NC(=O)C1=CC=CC=C1OC[C@H]([C@H](C2=CC=CC=C2)NC(=O)[C@H](CC(=O)N)NC(=O)C3=NC4=CC=CC=C4C=C3)O
> <PUBCHEM_CACTVS_TPSA>
173
> <PUBCHEM_MONOISOTOPIC_WEIGHT>
611.27438392
> <PUBCHEM_TOTAL_CHARGE>
0
> <PUBCHEM_HEAVY_ATOM_COUNT>
45
> <PUBCHEM_ATOM_DEF_STEREO_COUNT>
3
> <PUBCHEM_ATOM_UDEF_STEREO_COUNT>
0
> <PUBCHEM_BOND_DEF_STEREO_COUNT>
0
> <PUBCHEM_BOND_UDEF_STEREO_COUNT>
0
> <PUBCHEM_ISOTOPIC_ATOM_COUNT>
0
> <PUBCHEM_COMPONENT_COUNT>
1
> <PUBCHEM_CACTVS_TAUTO_COUNT>
-1
> <PUBCHEM_COORDINATE_TYPE>
1
5
255
> <PUBCHEM_BONDANNOTATIONS>
13  1  5
11  37  8
11  39  8
14  20  8
14  21  8
20  28  8
21  29  8
25  26  8
25  33  8
26  34  8
28  30  8
29  30  8
33  35  8
34  36  8
35  36  8
37  38  8
38  41  8
39  40  8
39  42  8
40  41  8
40  43  8
42  44  8
43  45  8
44  45  8
12  7  5
16  9  6
$$$$
