503016
  -OEChem-10302200282D
 31 32  0     1  0  0  0  0  0999 V2000
    4.1349   -3.5025    0.0000 P   0  0  0  0  0  0  0  0  0  0  0  0
    3.6750   -0.0199    0.0000 O   0  0  0  0  0  0  0  0  0  0  0  0
    2.3660   -0.9709    0.0000 O   0  0  0  0  0  0  0  0  0  0  0  0
    3.5471   -2.6935    0.0000 O   0  0  0  0  0  0  0  0  0  0  0  0
    4.5981    1.5679    0.0000 O   0  0  0  0  0  0  0  0  0  0  0  0
    4.7226   -4.3115    0.0000 O   0  0  0  0  0  0  0  0  0  0  0  0
    3.3258   -4.0903    0.0000 O   0  0  0  0  0  0  0  0  0  0  0  0
    4.9439   -2.9147    0.0000 O   0  0  0  0  0  0  0  0  0  0  0  0
    2.8660    1.5679    0.0000 N   0  0  0  0  0  0  0  0  0  0  0  0
    3.7320    3.0679    0.0000 N   0  0  0  0  0  0  0  0  0  0  0  0
    2.8660    4.5679    0.0000 N   0  0  0  0  0  0  0  0  0  0  0  0
    2.8660    0.5679    0.0000 C   0  0  2  0  0  0  0  0  0  0  0  0
    3.3660   -0.9709    0.0000 C   0  0  2  0  0  0  0  0  0  0  0  0
    2.0570   -0.0199    0.0000 C   0  0  0  0  0  0  0  0  0  0  0  0
    3.9538   -1.7799    0.0000 C   0  0  0  0  0  0  0  0  0  0  0  0
    2.0000    2.0679    0.0000 C   0  0  0  0  0  0  0  0  0  0  0  0
    3.7320    2.0679    0.0000 C   0  0  0  0  0  0  0  0  0  0  0  0
    2.0000    3.0679    0.0000 C   0  0  0  0  0  0  0  0  0  0  0  0
    2.8660    3.5679    0.0000 C   0  0  0  0  0  0  0  0  0  0  0  0
    3.4184    0.8494    0.0000 H   0  0  0  0  0  0  0  0  0  0  0  0
    3.9784   -0.8739    0.0000 H   0  0  0  0  0  0  0  0  0  0  0  0
    1.7470    0.5171    0.0000 H   0  0  0  0  0  0  0  0  0  0  0  0
    1.4906   -0.2720    0.0000 H   0  0  0  0  0  0  0  0  0  0  0  0
    4.4678   -2.1266    0.0000 H   0  0  0  0  0  0  0  0  0  0  0  0
    4.3845   -1.3340    0.0000 H   0  0  0  0  0  0  0  0  0  0  0  0
    1.4631    1.7579    0.0000 H   0  0  0  0  0  0  0  0  0  0  0  0
    1.4631    3.3779    0.0000 H   0  0  0  0  0  0  0  0  0  0  0  0
    2.3291    4.8779    0.0000 H   0  0  0  0  0  0  0  0  0  0  0  0
    3.4030    4.8779    0.0000 H   0  0  0  0  0  0  0  0  0  0  0  0
    4.4705   -4.8779    0.0000 H   0  0  0  0  0  0  0  0  0  0  0  0
    2.7594   -3.8381    0.0000 H   0  0  0  0  0  0  0  0  0  0  0  0
  1  4  1  0  0  0  0
  1  6  1  0  0  0  0
  1  7  1  0  0  0  0
  1  8  2  0  0  0  0
  2 12  1  0  0  0  0
  2 13  1  0  0  0  0
  3 13  1  0  0  0  0
  3 14  1  0  0  0  0
  4 15  1  0  0  0  0
  5 17  2  0  0  0  0
  6 30  1  0  0  0  0
  7 31  1  0  0  0  0
 12  9  1  1  0  0  0
  9 16  1  0  0  0  0
  9 17  1  0  0  0  0
 10 17  1  0  0  0  0
 10 19  2  0  0  0  0
 11 19  1  0  0  0  0
 11 28  1  0  0  0  0
 11 29  1  0  0  0  0
 12 14  1  0  0  0  0
 12 20  1  0  0  0  0
 13 15  1  1  0  0  0
 13 21  1  0  0  0  0
 14 22  1  0  0  0  0
 14 23  1  0  0  0  0
 15 24  1  0  0  0  0
 15 25  1  0  0  0  0
 16 18  2  0  0  0  0
 16 26  1  0  0  0  0
 18 19  1  0  0  0  0
 18 27  1  0  0  0  0
M  END
> <PUBCHEM_COMPOUND_CID>
503016
> <PUBCHEM_COMPOUND_CANONICALIZED>
1
> <PUBCHEM_CACTVS_COMPLEXITY>
473
> <PUBCHEM_CACTVS_HBOND_ACCEPTOR>
7
> <PUBCHEM_CACTVS_HBOND_DONOR>
3
> <PUBCHEM_CACTVS_ROTATABLE_BOND>
4
> <PUBCHEM_CACTVS_SUBSKEYS>
AAADccBzOAIAAAAAAAAAAAAAAAAAASAAAAAgAAAAAAAAAAAAAAAAHgAQCCAACADxgAcBCANABRCoQCJmdICAAAEAAgAIAAAYABCTAAAAAAArAAAAFgIWAAAAAAAAAAAAAAAAAAAAAAAAAAAAAAAAAAAAAA==
> <PUBCHEM_IUPAC_OPENEYE_NAME>
[(2S,4S)-4-(4-amino-2-oxo-pyrimidin-1-yl)-1,3-dioxolan-2-yl]methyl dihydrogen phosphate
> <PUBCHEM_IUPAC_CAS_NAME>
[(2S,4S)-4-(4-amino-2-oxo-1-pyrimidinyl)-1,3-dioxolan-2-yl]methyl dihydrogen phosphate
> <PUBCHEM_IUPAC_NAME_MARKUP>
[(2<I>S</I>,4<I>S</I>)-4-(4-amino-2-oxopyrimidin-1-yl)-1,3-dioxolan-2-yl]methyl dihydrogen phosphate
> <PUBCHEM_IUPAC_NAME>
[(2S,4S)-4-(4-amino-2-oxopyrimidin-1-yl)-1,3-dioxolan-2-yl]methyl dihydrogen phosphate
> <PUBCHEM_IUPAC_SYSTEMATIC_NAME>
[(2S,4S)-4-(4-azanyl-2-oxidanylidene-pyrimidin-1-yl)-1,3-dioxolan-2-yl]methyl dihydrogen phosphate
> <PUBCHEM_IUPAC_TRADITIONAL_NAME>
[(2S,4S)-4-(4-amino-2-keto-pyrimidin-1-yl)-1,3-dioxolan-2-yl]methyl dihydrogen phosphate
> <PUBCHEM_IUPAC_INCHI>
InChI=1S/C8H12N3O7P/c9-5-1-2-11(8(12)10-5)6-3-16-7(18-6)4-17-19(13,14)15/h1-2,6-7H,3-4H2,(H2,9,10,12)(H2,13,14,15)/t6-,7-/m0/s1
> <PUBCHEM_IUPAC_INCHIKEY>
JBTJFVCQAQNFTN-BQBZGAKWSA-N
> <PUBCHEM_XLOGP3>
-2.8
> <PUBCHEM_EXACT_MASS>
293.04128673
> <PUBCHEM_MOLECULAR_FORMULA>
C8H12N3O7P
> <PUBCHEM_MOLECULAR_WEIGHT>
293.17
> <PUBCHEM_OPENEYE_CAN_SMILES>
C1C(OC(O1)COP(=O)(O)O)N2C=CC(=NC2=O)N
> <PUBCHEM_OPENEYE_ISO_SMILES>
C1[C@H](O[C@H](O1)COP(=O)(O)O)N2C=CC(=NC2=O)N
> <PUBCHEM_CACTVS_TPSA>
144
> <PUBCHEM_MONOISOTOPIC_WEIGHT>
293.04128673
> <PUBCHEM_TOTAL_CHARGE>
0
> <PUBCHEM_HEAVY_ATOM_COUNT>
19
> <PUBCHEM_ATOM_DEF_STEREO_COUNT>
2
> <PUBCHEM_ATOM_UDEF_STEREO_COUNT>
0
> <PUBCHEM_BOND_DEF_STEREO_COUNT>
0
> <PUBCHEM_BOND_UDEF_STEREO_COUNT>
0
> <PUBCHEM_ISOTOPIC_ATOM_COUNT>
0
> <PUBCHEM_COMPONENT_COUNT>
1
> <PUBCHEM_CACTVS_TAUTO_COUNT>
-1
> <PUBCHEM_COORDINATE_TYPE>
1
5
255
> <PUBCHEM_BONDANNOTATIONS>
10  17  8
10  19  8
13  15  5
16  18  8
18  19  8
12  9  5
9  16  8
9  17  8
$$$$
