503077
  -OEChem-10302200282D
 90 93  0     1  0  0  0  0  0999 V2000
   12.4603    1.0000    0.0000 O   0  0  0  0  0  0  0  0  0  0  0  0
   12.4603   -1.0000    0.0000 O   0  0  0  0  0  0  0  0  0  0  0  0
    8.9962    2.0000    0.0000 O   0  0  0  0  0  0  0  0  0  0  0  0
    6.3981   -0.5000    0.0000 O   0  0  0  0  0  0  0  0  0  0  0  0
   14.1923   -1.0000    0.0000 O   0  0  0  0  0  0  0  0  0  0  0  0
    9.8622    0.5000    0.0000 N   0  0  0  0  0  0  0  0  0  0  0  0
    7.2641    1.0000    0.0000 N   0  0  0  0  0  0  0  0  0  0  0  0
   15.0583   -2.5000    0.0000 N   0  0  0  0  0  0  0  0  0  0  0  0
    4.6660    0.5000    0.0000 N   0  0  0  0  0  0  0  0  0  0  0  0
    8.1301   -0.5000    0.0000 C   0  0  3  0  0  0  0  0  0  0  0  0
    8.1301    0.5000    0.0000 C   0  0  1  0  0  0  0  0  0  0  0  0
   10.7282    1.0000    0.0000 C   0  0  2  0  0  0  0  0  0  0  0  0
   11.5942    0.5000    0.0000 C   0  0  1  0  0  0  0  0  0  0  0  0
    8.9962   -1.0000    0.0000 C   0  0  0  0  0  0  0  0  0  0  0  0
   10.7282    2.0000    0.0000 C   0  0  0  0  0  0  0  0  0  0  0  0
    8.9962    1.0000    0.0000 C   0  0  0  0  0  0  0  0  0  0  0  0
    7.2641   -1.0000    0.0000 C   0  0  0  0  0  0  0  0  0  0  0  0
   11.5942   -0.5000    0.0000 C   0  0  0  0  0  0  0  0  0  0  0  0
   11.5942    2.5000    0.0000 C   0  0  0  0  0  0  0  0  0  0  0  0
    8.9962   -2.0000    0.0000 C   0  0  0  0  0  0  0  0  0  0  0  0
    6.3981    0.5000    0.0000 C   0  0  0  0  0  0  0  0  0  0  0  0
   11.5942    3.5000    0.0000 C   0  0  0  0  0  0  0  0  0  0  0  0
   12.4603    2.0000    0.0000 C   0  0  0  0  0  0  0  0  0  0  0  0
   15.9244   -2.0000    0.0000 C   0  0  0  0  0  0  0  0  0  0  0  0
   12.4603   -2.0000    0.0000 C   0  0  0  0  0  0  0  0  0  0  0  0
    5.5321    1.0000    0.0000 C   0  0  0  0  0  0  0  0  0  0  0  0
   12.4603    4.0000    0.0000 C   0  0  0  0  0  0  0  0  0  0  0  0
   13.3263    2.5000    0.0000 C   0  0  0  0  0  0  0  0  0  0  0  0
   13.3263   -2.5000    0.0000 C   0  0  0  0  0  0  0  0  0  0  0  0
   13.3263    3.5000    0.0000 C   0  0  0  0  0  0  0  0  0  0  0  0
   14.1923   -2.0000    0.0000 C   0  0  0  0  0  0  0  0  0  0  0  0
   16.7904   -1.5000    0.0000 C   0  0  0  0  0  0  0  0  0  0  0  0
   16.4244   -2.8660    0.0000 C   0  0  0  0  0  0  0  0  0  0  0  0
   15.4244   -1.1340    0.0000 C   0  0  0  0  0  0  0  0  0  0  0  0
   11.5942   -2.5000    0.0000 C   0  0  0  0  0  0  0  0  0  0  0  0
    5.5321    2.0000    0.0000 C   0  0  0  0  0  0  0  0  0  0  0  0
   13.3263   -3.5000    0.0000 C   0  0  0  0  0  0  0  0  0  0  0  0
    3.8000    1.0000    0.0000 C   0  0  0  0  0  0  0  0  0  0  0  0
   11.5942   -3.5000    0.0000 C   0  0  0  0  0  0  0  0  0  0  0  0
    4.6660    2.5000    0.0000 C   0  0  0  0  0  0  0  0  0  0  0  0
    3.8000    2.0000    0.0000 C   0  0  0  0  0  0  0  0  0  0  0  0
   12.4603   -4.0000    0.0000 C   0  0  0  0  0  0  0  0  0  0  0  0
    2.9061    0.4653    0.0000 C   0  0  0  0  0  0  0  0  0  0  0  0
    2.9061    2.5347    0.0000 C   0  0  0  0  0  0  0  0  0  0  0  0
    2.0000    0.9792    0.0000 C   0  0  0  0  0  0  0  0  0  0  0  0
    2.0000    2.0208    0.0000 C   0  0  0  0  0  0  0  0  0  0  0  0
    7.5932   -0.1900    0.0000 H   0  0  0  0  0  0  0  0  0  0  0  0
    8.1301    1.1200    0.0000 H   0  0  0  0  0  0  0  0  0  0  0  0
   10.7282    0.3800    0.0000 H   0  0  0  0  0  0  0  0  0  0  0  0
   11.5942    1.1200    0.0000 H   0  0  0  0  0  0  0  0  0  0  0  0
   10.5162    2.5826    0.0000 H   0  0  0  0  0  0  0  0  0  0  0  0
   10.1176    1.8923    0.0000 H   0  0  0  0  0  0  0  0  0  0  0  0
    9.6067   -1.1077    0.0000 H   0  0  0  0  0  0  0  0  0  0  0  0
    9.2082   -0.4174    0.0000 H   0  0  0  0  0  0  0  0  0  0  0  0
    9.8622   -0.1200    0.0000 H   0  0  0  0  0  0  0  0  0  0  0  0
    6.9541   -0.4631    0.0000 H   0  0  0  0  0  0  0  0  0  0  0  0
    6.7272   -1.3100    0.0000 H   0  0  0  0  0  0  0  0  0  0  0  0
    7.5741   -1.5369    0.0000 H   0  0  0  0  0  0  0  0  0  0  0  0
    7.2641    1.6200    0.0000 H   0  0  0  0  0  0  0  0  0  0  0  0
   10.9837   -0.3923    0.0000 H   0  0  0  0  0  0  0  0  0  0  0  0
   11.3822   -1.0826    0.0000 H   0  0  0  0  0  0  0  0  0  0  0  0
    8.3762   -2.0000    0.0000 H   0  0  0  0  0  0  0  0  0  0  0  0
    8.9962   -2.6200    0.0000 H   0  0  0  0  0  0  0  0  0  0  0  0
    9.6162   -2.0000    0.0000 H   0  0  0  0  0  0  0  0  0  0  0  0
   12.9972    0.6900    0.0000 H   0  0  0  0  0  0  0  0  0  0  0  0
   11.0573    3.8100    0.0000 H   0  0  0  0  0  0  0  0  0  0  0  0
   12.4603    1.3800    0.0000 H   0  0  0  0  0  0  0  0  0  0  0  0
   12.4603    4.6200    0.0000 H   0  0  0  0  0  0  0  0  0  0  0  0
   13.8632    2.1900    0.0000 H   0  0  0  0  0  0  0  0  0  0  0  0
   15.0583   -3.1200    0.0000 H   0  0  0  0  0  0  0  0  0  0  0  0
   13.8632    3.8100    0.0000 H   0  0  0  0  0  0  0  0  0  0  0  0
   17.1004   -2.0369    0.0000 H   0  0  0  0  0  0  0  0  0  0  0  0
   17.3273   -1.1900    0.0000 H   0  0  0  0  0  0  0  0  0  0  0  0
   16.4804   -0.9631    0.0000 H   0  0  0  0  0  0  0  0  0  0  0  0
   15.8874   -3.1760    0.0000 H   0  0  0  0  0  0  0  0  0  0  0  0
   16.7344   -3.4030    0.0000 H   0  0  0  0  0  0  0  0  0  0  0  0
   16.9613   -2.5560    0.0000 H   0  0  0  0  0  0  0  0  0  0  0  0
   15.9613   -0.8240    0.0000 H   0  0  0  0  0  0  0  0  0  0  0  0
   15.1144   -0.5970    0.0000 H   0  0  0  0  0  0  0  0  0  0  0  0
   14.8874   -1.4440    0.0000 H   0  0  0  0  0  0  0  0  0  0  0  0
   11.0573   -2.1900    0.0000 H   0  0  0  0  0  0  0  0  0  0  0  0
    6.0690    2.3100    0.0000 H   0  0  0  0  0  0  0  0  0  0  0  0
   13.8632   -3.8100    0.0000 H   0  0  0  0  0  0  0  0  0  0  0  0
   11.0573   -3.8100    0.0000 H   0  0  0  0  0  0  0  0  0  0  0  0
    4.6660    3.1200    0.0000 H   0  0  0  0  0  0  0  0  0  0  0  0
   12.4603   -4.6200    0.0000 H   0  0  0  0  0  0  0  0  0  0  0  0
    2.9132   -0.1546    0.0000 H   0  0  0  0  0  0  0  0  0  0  0  0
    2.9132    3.1546    0.0000 H   0  0  0  0  0  0  0  0  0  0  0  0
    1.4643    0.6671    0.0000 H   0  0  0  0  0  0  0  0  0  0  0  0
    1.4643    2.3329    0.0000 H   0  0  0  0  0  0  0  0  0  0  0  0
 13  1  1  6  0  0  0
  1 65  1  0  0  0  0
  2 18  1  0  0  0  0
  2 25  1  0  0  0  0
  3 16  2  0  0  0  0
  4 21  2  0  0  0  0
  5 31  2  0  0  0  0
 12  6  1  1  0  0  0
  6 16  1  0  0  0  0
  6 55  1  0  0  0  0
 11  7  1  6  0  0  0
  7 21  1  0  0  0  0
  7 59  1  0  0  0  0
  8 24  1  0  0  0  0
  8 31  1  0  0  0  0
  8 70  1  0  0  0  0
  9 26  2  0  0  0  0
  9 38  1  0  0  0  0
 10 11  1  0  0  0  0
 10 14  1  0  0  0  0
 10 17  1  0  0  0  0
 10 47  1  0  0  0  0
 11 16  1  0  0  0  0
 11 48  1  0  0  0  0
 12 13  1  0  0  0  0
 12 15  1  0  0  0  0
 12 49  1  0  0  0  0
 13 18  1  0  0  0  0
 13 50  1  0  0  0  0
 14 20  1  0  0  0  0
 14 53  1  0  0  0  0
 14 54  1  0  0  0  0
 15 19  1  0  0  0  0
 15 51  1  0  0  0  0
 15 52  1  0  0  0  0
 17 56  1  0  0  0  0
 17 57  1  0  0  0  0
 17 58  1  0  0  0  0
 18 60  1  0  0  0  0
 18 61  1  0  0  0  0
 19 22  2  0  0  0  0
 19 23  1  0  0  0  0
 20 62  1  0  0  0  0
 20 63  1  0  0  0  0
 20 64  1  0  0  0  0
 21 26  1  0  0  0  0
 22 27  1  0  0  0  0
 22 66  1  0  0  0  0
 23 28  2  0  0  0  0
 23 67  1  0  0  0  0
 24 32  1  0  0  0  0
 24 33  1  0  0  0  0
 24 34  1  0  0  0  0
 25 29  1  0  0  0  0
 25 35  2  0  0  0  0
 26 36  1  0  0  0  0
 27 30  2  0  0  0  0
 27 68  1  0  0  0  0
 28 30  1  0  0  0  0
 28 69  1  0  0  0  0
 29 31  1  0  0  0  0
 29 37  2  0  0  0  0
 30 71  1  0  0  0  0
 32 72  1  0  0  0  0
 32 73  1  0  0  0  0
 32 74  1  0  0  0  0
 33 75  1  0  0  0  0
 33 76  1  0  0  0  0
 33 77  1  0  0  0  0
 34 78  1  0  0  0  0
 34 79  1  0  0  0  0
 34 80  1  0  0  0  0
 35 39  1  0  0  0  0
 35 81  1  0  0  0  0
 36 40  2  0  0  0  0
 36 82  1  0  0  0  0
 37 42  1  0  0  0  0
 37 83  1  0  0  0  0
 38 41  1  0  0  0  0
 38 43  2  0  0  0  0
 39 42  2  0  0  0  0
 39 84  1  0  0  0  0
 40 41  1  0  0  0  0
 40 85  1  0  0  0  0
 41 44  2  0  0  0  0
 42 86  1  0  0  0  0
 43 45  1  0  0  0  0
 43 87  1  0  0  0  0
 44 46  1  0  0  0  0
 44 88  1  0  0  0  0
 45 46  2  0  0  0  0
 45 89  1  0  0  0  0
 46 90  1  0  0  0  0
M  END
> <PUBCHEM_COMPOUND_CID>
503077
> <PUBCHEM_COMPOUND_CANONICALIZED>
1
> <PUBCHEM_CACTVS_COMPLEXITY>
979
> <PUBCHEM_CACTVS_HBOND_ACCEPTOR>
6
> <PUBCHEM_CACTVS_HBOND_DONOR>
4
> <PUBCHEM_CACTVS_ROTATABLE_BOND>
14
> <PUBCHEM_CACTVS_SUBSKEYS>
AAADcfB/uAAAAAAAAAAAAAAAAAAAAAAAAAA8YMEAAAAAAACx9AAAHgAQCAAADbzhngYyxvLIFgCoAyVyVACCiCAnIiAImKG+bNgPdvbEtbuWeWjm9hHb6YeYyLCOAAAAAAAKAAAAAAAAABQAAAAAAAAAAA==
> <PUBCHEM_IUPAC_OPENEYE_NAME>
N-[(1S)-1-[[(1S,2S)-1-benzyl-3-[2-(tert-butylcarbamoyl)phenoxy]-2-hydroxy-propyl]carbamoyl]-2-methyl-butyl]quinoline-2-carboxamide
> <PUBCHEM_IUPAC_CAS_NAME>
N-[(2S)-1-[[(2S,3S)-4-[2-[(tert-butylamino)-oxomethyl]phenoxy]-3-hydroxy-1-phenylbutan-2-yl]amino]-3-methyl-1-oxopentan-2-yl]-2-quinolinecarboxamide
> <PUBCHEM_IUPAC_NAME_MARKUP>
<I>N</I>-[(2<I>S</I>)-1-[[(2<I>S</I>,3<I>S</I>)-4-[2-(<I>tert</I>-butylcarbamoyl)phenoxy]-3-hydroxy-1-phenylbutan-2-yl]amino]-3-methyl-1-oxopentan-2-yl]quinoline-2-carboxamide
> <PUBCHEM_IUPAC_NAME>
N-[(2S)-1-[[(2S,3S)-4-[2-(tert-butylcarbamoyl)phenoxy]-3-hydroxy-1-phenylbutan-2-yl]amino]-3-methyl-1-oxopentan-2-yl]quinoline-2-carboxamide
> <PUBCHEM_IUPAC_SYSTEMATIC_NAME>
N-[(2S)-1-[[(2S,3S)-4-[2-(tert-butylcarbamoyl)phenoxy]-3-oxidanyl-1-phenyl-butan-2-yl]amino]-3-methyl-1-oxidanylidene-pentan-2-yl]quinoline-2-carboxamide
> <PUBCHEM_IUPAC_TRADITIONAL_NAME>
N-[(1S)-1-[[(1S,2S)-1-benzyl-3-[2-(tert-butylcarbamoyl)phenoxy]-2-hydroxy-propyl]carbamoyl]-2-methyl-butyl]quinaldamide
> <PUBCHEM_IUPAC_INCHI>
InChI=1S/C37H44N4O5/c1-6-24(2)33(40-35(44)29-21-20-26-16-10-12-18-28(26)38-29)36(45)39-30(22-25-14-8-7-9-15-25)31(42)23-46-32-19-13-11-17-27(32)34(43)41-37(3,4)5/h7-21,24,30-31,33,42H,6,22-23H2,1-5H3,(H,39,45)(H,40,44)(H,41,43)/t24?,30-,31+,33-/m0/s1
> <PUBCHEM_IUPAC_INCHIKEY>
OYASPPVVYCVWJS-QPUWICDMSA-N
> <PUBCHEM_XLOGP3_AA>
6.2
> <PUBCHEM_EXACT_MASS>
624.33117052
> <PUBCHEM_MOLECULAR_FORMULA>
C37H44N4O5
> <PUBCHEM_MOLECULAR_WEIGHT>
624.8
> <PUBCHEM_OPENEYE_CAN_SMILES>
CCC(C)C(C(=O)NC(CC1=CC=CC=C1)C(COC2=CC=CC=C2C(=O)NC(C)(C)C)O)NC(=O)C3=NC4=CC=CC=C4C=C3
> <PUBCHEM_OPENEYE_ISO_SMILES>
CCC(C)[C@@H](C(=O)N[C@@H](CC1=CC=CC=C1)[C@@H](COC2=CC=CC=C2C(=O)NC(C)(C)C)O)NC(=O)C3=NC4=CC=CC=C4C=C3
> <PUBCHEM_CACTVS_TPSA>
130
> <PUBCHEM_MONOISOTOPIC_WEIGHT>
624.33117052
> <PUBCHEM_TOTAL_CHARGE>
0
> <PUBCHEM_HEAVY_ATOM_COUNT>
46
> <PUBCHEM_ATOM_DEF_STEREO_COUNT>
3
> <PUBCHEM_ATOM_UDEF_STEREO_COUNT>
1
> <PUBCHEM_BOND_DEF_STEREO_COUNT>
0
> <PUBCHEM_BOND_UDEF_STEREO_COUNT>
0
> <PUBCHEM_ISOTOPIC_ATOM_COUNT>
0
> <PUBCHEM_COMPONENT_COUNT>
1
> <PUBCHEM_CACTVS_TAUTO_COUNT>
-1
> <PUBCHEM_COORDINATE_TYPE>
1
5
255
> <PUBCHEM_BONDANNOTATIONS>
13  1  6
10  17  3
19  22  8
19  23  8
22  27  8
23  28  8
25  29  8
25  35  8
26  36  8
27  30  8
28  30  8
29  37  8
35  39  8
36  40  8
37  42  8
38  41  8
38  43  8
39  42  8
40  41  8
41  44  8
43  45  8
44  46  8
45  46  8
12  6  5
11  7  6
9  26  8
9  38  8
$$$$
