503098
  -OEChem-10302200282D
 86 89  0     1  0  0  0  0  0999 V2000
    8.9962    1.4720    0.0000 S   0  0  0  0  0  0  0  0  0  0  0  0
   10.7282    0.4720    0.0000 O   0  0  0  0  0  0  0  0  0  0  0  0
    9.8622   -3.0280    0.0000 O   0  0  0  0  0  0  0  0  0  0  0  0
   14.1923    0.4720    0.0000 O   0  0  0  0  0  0  0  0  0  0  0  0
    9.8622    2.9720    0.0000 O   0  0  0  0  0  0  0  0  0  0  0  0
    9.8622   -4.0280    0.0000 O   0  0  0  0  0  0  0  0  0  0  0  0
    6.3981   -4.0280    0.0000 O   0  0  0  0  0  0  0  0  0  0  0  0
    8.9962   -1.5280    0.0000 N   0  0  0  0  0  0  0  0  0  0  0  0
    7.2641   -2.5280    0.0000 N   0  0  0  0  0  0  0  0  0  0  0  0
    8.9962    4.4720    0.0000 N   0  0  0  0  0  0  0  0  0  0  0  0
    8.9962   -5.5280    0.0000 N   0  0  0  0  0  0  0  0  0  0  0  0
    4.6660   -3.0280    0.0000 N   0  0  0  0  0  0  0  0  0  0  0  0
    9.8622   -1.0280    0.0000 C   0  0  2  0  0  0  0  0  0  0  0  0
    9.8622   -0.0280    0.0000 C   0  0  2  0  0  0  0  0  0  0  0  0
   10.7282   -1.5280    0.0000 C   0  0  0  0  0  0  0  0  0  0  0  0
    8.9962    0.4720    0.0000 C   0  0  0  0  0  0  0  0  0  0  0  0
   11.5942   -1.0280    0.0000 C   0  0  0  0  0  0  0  0  0  0  0  0
    8.1301   -3.0280    0.0000 C   0  0  2  0  0  0  0  0  0  0  0  0
    8.9962   -2.5280    0.0000 C   0  0  0  0  0  0  0  0  0  0  0  0
    9.8622    4.9720    0.0000 C   0  0  0  0  0  0  0  0  0  0  0  0
    8.1301   -4.0280    0.0000 C   0  0  0  0  0  0  0  0  0  0  0  0
   11.5942   -0.0280    0.0000 C   0  0  0  0  0  0  0  0  0  0  0  0
   12.4603   -1.5280    0.0000 C   0  0  0  0  0  0  0  0  0  0  0  0
    8.1301    1.9720    0.0000 C   0  0  0  0  0  0  0  0  0  0  0  0
    8.1301    2.9720    0.0000 C   0  0  0  0  0  0  0  0  0  0  0  0
   10.7282    5.4720    0.0000 C   0  0  0  0  0  0  0  0  0  0  0  0
    9.3622    5.8380    0.0000 C   0  0  0  0  0  0  0  0  0  0  0  0
   10.3622    4.1060    0.0000 C   0  0  0  0  0  0  0  0  0  0  0  0
   12.4603    0.4720    0.0000 C   0  0  0  0  0  0  0  0  0  0  0  0
   13.3263   -1.0280    0.0000 C   0  0  0  0  0  0  0  0  0  0  0  0
    8.9962    3.4720    0.0000 C   0  0  0  0  0  0  0  0  0  0  0  0
   13.3263   -0.0280    0.0000 C   0  0  0  0  0  0  0  0  0  0  0  0
    8.9962   -4.5280    0.0000 C   0  0  0  0  0  0  0  0  0  0  0  0
    6.3981   -3.0280    0.0000 C   0  0  0  0  0  0  0  0  0  0  0  0
    7.2641    1.4720    0.0000 C   0  0  0  0  0  0  0  0  0  0  0  0
    7.2641    3.4720    0.0000 C   0  0  0  0  0  0  0  0  0  0  0  0
    6.3981    1.9720    0.0000 C   0  0  0  0  0  0  0  0  0  0  0  0
    5.5321   -2.5280    0.0000 C   0  0  0  0  0  0  0  0  0  0  0  0
    6.3981    2.9720    0.0000 C   0  0  0  0  0  0  0  0  0  0  0  0
    5.5321   -1.5280    0.0000 C   0  0  0  0  0  0  0  0  0  0  0  0
    3.8000   -2.5280    0.0000 C   0  0  0  0  0  0  0  0  0  0  0  0
    3.8000   -1.5280    0.0000 C   0  0  0  0  0  0  0  0  0  0  0  0
    4.6660   -1.0280    0.0000 C   0  0  0  0  0  0  0  0  0  0  0  0
    2.9061   -3.0627    0.0000 C   0  0  0  0  0  0  0  0  0  0  0  0
    2.9061   -0.9934    0.0000 C   0  0  0  0  0  0  0  0  0  0  0  0
    2.0000   -2.5488    0.0000 C   0  0  0  0  0  0  0  0  0  0  0  0
    2.0000   -1.5072    0.0000 C   0  0  0  0  0  0  0  0  0  0  0  0
    9.3252   -0.7180    0.0000 H   0  0  0  0  0  0  0  0  0  0  0  0
    9.8622    0.5920    0.0000 H   0  0  0  0  0  0  0  0  0  0  0  0
   10.3297   -2.0030    0.0000 H   0  0  0  0  0  0  0  0  0  0  0  0
   11.1267   -2.0030    0.0000 H   0  0  0  0  0  0  0  0  0  0  0  0
    8.4592   -1.2180    0.0000 H   0  0  0  0  0  0  0  0  0  0  0  0
    8.3856    0.5796    0.0000 H   0  0  0  0  0  0  0  0  0  0  0  0
    8.7841   -0.1106    0.0000 H   0  0  0  0  0  0  0  0  0  0  0  0
    7.5932   -3.3380    0.0000 H   0  0  0  0  0  0  0  0  0  0  0  0
    7.5196   -3.9204    0.0000 H   0  0  0  0  0  0  0  0  0  0  0  0
    7.9181   -4.6106    0.0000 H   0  0  0  0  0  0  0  0  0  0  0  0
   10.7282    1.0920    0.0000 H   0  0  0  0  0  0  0  0  0  0  0  0
   11.0573    0.2820    0.0000 H   0  0  0  0  0  0  0  0  0  0  0  0
   12.4603   -2.1480    0.0000 H   0  0  0  0  0  0  0  0  0  0  0  0
    7.2641   -1.9080    0.0000 H   0  0  0  0  0  0  0  0  0  0  0  0
    8.4592    4.7820    0.0000 H   0  0  0  0  0  0  0  0  0  0  0  0
   11.0382    4.9351    0.0000 H   0  0  0  0  0  0  0  0  0  0  0  0
   11.2651    5.7820    0.0000 H   0  0  0  0  0  0  0  0  0  0  0  0
   10.4182    6.0089    0.0000 H   0  0  0  0  0  0  0  0  0  0  0  0
    9.8991    6.1480    0.0000 H   0  0  0  0  0  0  0  0  0  0  0  0
    9.0522    6.3750    0.0000 H   0  0  0  0  0  0  0  0  0  0  0  0
    8.8252    5.5280    0.0000 H   0  0  0  0  0  0  0  0  0  0  0  0
    9.8252    3.7960    0.0000 H   0  0  0  0  0  0  0  0  0  0  0  0
   10.6722    3.5690    0.0000 H   0  0  0  0  0  0  0  0  0  0  0  0
   10.8991    4.4160    0.0000 H   0  0  0  0  0  0  0  0  0  0  0  0
   12.4603    1.0920    0.0000 H   0  0  0  0  0  0  0  0  0  0  0  0
   13.8632   -1.3380    0.0000 H   0  0  0  0  0  0  0  0  0  0  0  0
    7.2641    0.8520    0.0000 H   0  0  0  0  0  0  0  0  0  0  0  0
    7.2641    4.0920    0.0000 H   0  0  0  0  0  0  0  0  0  0  0  0
    5.8612    1.6620    0.0000 H   0  0  0  0  0  0  0  0  0  0  0  0
    5.8612    3.2820    0.0000 H   0  0  0  0  0  0  0  0  0  0  0  0
    9.5331   -5.8380    0.0000 H   0  0  0  0  0  0  0  0  0  0  0  0
    8.4592   -5.8380    0.0000 H   0  0  0  0  0  0  0  0  0  0  0  0
    6.0690   -1.2180    0.0000 H   0  0  0  0  0  0  0  0  0  0  0  0
   14.7292    0.1620    0.0000 H   0  0  0  0  0  0  0  0  0  0  0  0
    4.6660   -0.4080    0.0000 H   0  0  0  0  0  0  0  0  0  0  0  0
    2.9132   -3.6826    0.0000 H   0  0  0  0  0  0  0  0  0  0  0  0
    2.9132   -0.3734    0.0000 H   0  0  0  0  0  0  0  0  0  0  0  0
    1.4643   -2.8609    0.0000 H   0  0  0  0  0  0  0  0  0  0  0  0
    1.4643   -1.1951    0.0000 H   0  0  0  0  0  0  0  0  0  0  0  0
  1 16  1  0  0  0  0
  1 24  1  0  0  0  0
 14  2  1  6  0  0  0
  2 58  1  0  0  0  0
  3 19  2  0  0  0  0
  4 32  1  0  0  0  0
  4 81  1  0  0  0  0
  5 31  2  0  0  0  0
  6 33  2  0  0  0  0
  7 34  2  0  0  0  0
 13  8  1  6  0  0  0
  8 19  1  0  0  0  0
  8 52  1  0  0  0  0
 18  9  1  6  0  0  0
  9 34  1  0  0  0  0
  9 61  1  0  0  0  0
 10 20  1  0  0  0  0
 10 31  1  0  0  0  0
 10 62  1  0  0  0  0
 11 33  1  0  0  0  0
 11 78  1  0  0  0  0
 11 79  1  0  0  0  0
 12 38  2  0  0  0  0
 12 41  1  0  0  0  0
 13 14  1  0  0  0  0
 13 15  1  0  0  0  0
 13 48  1  0  0  0  0
 14 16  1  0  0  0  0
 14 49  1  0  0  0  0
 15 17  1  0  0  0  0
 15 50  1  0  0  0  0
 15 51  1  0  0  0  0
 16 53  1  0  0  0  0
 16 54  1  0  0  0  0
 17 22  2  0  0  0  0
 17 23  1  0  0  0  0
 18 19  1  0  0  0  0
 18 21  1  0  0  0  0
 18 55  1  0  0  0  0
 20 26  1  0  0  0  0
 20 27  1  0  0  0  0
 20 28  1  0  0  0  0
 21 33  1  0  0  0  0
 21 56  1  0  0  0  0
 21 57  1  0  0  0  0
 22 29  1  0  0  0  0
 22 59  1  0  0  0  0
 23 30  2  0  0  0  0
 23 60  1  0  0  0  0
 24 25  1  0  0  0  0
 24 35  2  0  0  0  0
 25 31  1  0  0  0  0
 25 36  2  0  0  0  0
 26 63  1  0  0  0  0
 26 64  1  0  0  0  0
 26 65  1  0  0  0  0
 27 66  1  0  0  0  0
 27 67  1  0  0  0  0
 27 68  1  0  0  0  0
 28 69  1  0  0  0  0
 28 70  1  0  0  0  0
 28 71  1  0  0  0  0
 29 32  2  0  0  0  0
 29 72  1  0  0  0  0
 30 32  1  0  0  0  0
 30 73  1  0  0  0  0
 34 38  1  0  0  0  0
 35 37  1  0  0  0  0
 35 74  1  0  0  0  0
 36 39  1  0  0  0  0
 36 75  1  0  0  0  0
 37 39  2  0  0  0  0
 37 76  1  0  0  0  0
 38 40  1  0  0  0  0
 39 77  1  0  0  0  0
 40 43  2  0  0  0  0
 40 80  1  0  0  0  0
 41 42  1  0  0  0  0
 41 44  2  0  0  0  0
 42 43  1  0  0  0  0
 42 45  2  0  0  0  0
 43 82  1  0  0  0  0
 44 46  1  0  0  0  0
 44 83  1  0  0  0  0
 45 47  1  0  0  0  0
 45 84  1  0  0  0  0
 46 47  2  0  0  0  0
 46 85  1  0  0  0  0
 47 86  1  0  0  0  0
M  END
> <PUBCHEM_COMPOUND_CID>
503098
> <PUBCHEM_COMPOUND_CANONICALIZED>
1
> <PUBCHEM_CACTVS_COMPLEXITY>
1060
> <PUBCHEM_CACTVS_HBOND_ACCEPTOR>
8
> <PUBCHEM_CACTVS_HBOND_DONOR>
6
> <PUBCHEM_CACTVS_ROTATABLE_BOND>
14
> <PUBCHEM_CACTVS_SUBSKEYS>
AAADcfB/uABAAAAAAAAAAAAAAAAAAAAAAAA8YMEAAAAAAACx9AAAHgQQCAAADLzl3gayx/LIEgioAyVyVACCgCAnKjAImLm+bNgKdvri1bOUcQhk1hH42YedyKCOIAAAAAAGAABAAAAAAAwAAAAAAAAAAA==
> <PUBCHEM_IUPAC_OPENEYE_NAME>
(2S)-N-[(1S,2R)-3-[2-(tert-butylcarbamoyl)phenyl]sulfanyl-2-hydroxy-1-[(4-hydroxyphenyl)methyl]propyl]-2-(quinoline-2-carbonylamino)butanediamide
> <PUBCHEM_IUPAC_CAS_NAME>
(2S)-N-[(2S,3R)-4-[[2-[(tert-butylamino)-oxomethyl]phenyl]thio]-3-hydroxy-1-(4-hydroxyphenyl)butan-2-yl]-2-[[oxo(2-quinolinyl)methyl]amino]butanediamide
> <PUBCHEM_IUPAC_NAME_MARKUP>
(2<I>S</I>)-<I>N</I>-[(2<I>S</I>,3<I>R</I>)-4-[2-(<I>tert</I>-butylcarbamoyl)phenyl]sulfanyl-3-hydroxy-1-(4-hydroxyphenyl)butan-2-yl]-2-(quinoline-2-carbonylamino)butanediamide
> <PUBCHEM_IUPAC_NAME>
(2S)-N-[(2S,3R)-4-[2-(tert-butylcarbamoyl)phenyl]sulfanyl-3-hydroxy-1-(4-hydroxyphenyl)butan-2-yl]-2-(quinoline-2-carbonylamino)butanediamide
> <PUBCHEM_IUPAC_SYSTEMATIC_NAME>
(2S)-N-[(2S,3R)-4-[2-(tert-butylcarbamoyl)phenyl]sulfanyl-1-(4-hydroxyphenyl)-3-oxidanyl-butan-2-yl]-2-(quinolin-2-ylcarbonylamino)butanediamide
> <PUBCHEM_IUPAC_TRADITIONAL_NAME>
(2S)-N-[(1S,2R)-3-[[2-(tert-butylcarbamoyl)phenyl]thio]-2-hydroxy-1-(4-hydroxybenzyl)propyl]-2-(quinaldoylamino)succinamide
> <PUBCHEM_IUPAC_INCHI>
InChI=1S/C35H39N5O6S/c1-35(2,3)40-32(44)24-9-5-7-11-30(24)47-20-29(42)27(18-21-12-15-23(41)16-13-21)38-34(46)28(19-31(36)43)39-33(45)26-17-14-22-8-4-6-10-25(22)37-26/h4-17,27-29,41-42H,18-20H2,1-3H3,(H2,36,43)(H,38,46)(H,39,45)(H,40,44)/t27-,28-,29-/m0/s1
> <PUBCHEM_IUPAC_INCHIKEY>
JYMQSFUVEDNXMT-AWCRTANDSA-N
> <PUBCHEM_XLOGP3_AA>
3.5
> <PUBCHEM_EXACT_MASS>
657.26210515
> <PUBCHEM_MOLECULAR_FORMULA>
C35H39N5O6S
> <PUBCHEM_MOLECULAR_WEIGHT>
657.8
> <PUBCHEM_OPENEYE_CAN_SMILES>
CC(C)(C)NC(=O)C1=CC=CC=C1SCC(C(CC2=CC=C(C=C2)O)NC(=O)C(CC(=O)N)NC(=O)C3=NC4=CC=CC=C4C=C3)O
> <PUBCHEM_OPENEYE_ISO_SMILES>
CC(C)(C)NC(=O)C1=CC=CC=C1SC[C@@H]([C@H](CC2=CC=C(C=C2)O)NC(=O)[C@H](CC(=O)N)NC(=O)C3=NC4=CC=CC=C4C=C3)O
> <PUBCHEM_CACTVS_TPSA>
209
> <PUBCHEM_MONOISOTOPIC_WEIGHT>
657.26210515
> <PUBCHEM_TOTAL_CHARGE>
0
> <PUBCHEM_HEAVY_ATOM_COUNT>
47
> <PUBCHEM_ATOM_DEF_STEREO_COUNT>
3
> <PUBCHEM_ATOM_UDEF_STEREO_COUNT>
0
> <PUBCHEM_BOND_DEF_STEREO_COUNT>
0
> <PUBCHEM_BOND_UDEF_STEREO_COUNT>
0
> <PUBCHEM_ISOTOPIC_ATOM_COUNT>
0
> <PUBCHEM_COMPONENT_COUNT>
1
> <PUBCHEM_CACTVS_TAUTO_COUNT>
-1
> <PUBCHEM_COORDINATE_TYPE>
1
5
255
> <PUBCHEM_BONDANNOTATIONS>
12  38  8
12  41  8
17  22  8
17  23  8
14  2  6
22  29  8
23  30  8
24  25  8
24  35  8
25  36  8
29  32  8
30  32  8
35  37  8
36  39  8
37  39  8
38  40  8
40  43  8
41  42  8
41  44  8
42  43  8
42  45  8
44  46  8
45  47  8
46  47  8
13  8  6
18  9  6
$$$$
