503008
  -OEChem-10302200282D
 33 35  0     1  0  0  0  0  0999 V2000
    5.9405    0.7140    0.0000 O   0  0  0  0  0  0  0  0  0  0  0  0
    4.6783   -0.5439    0.0000 N   0  0  0  0  0  0  0  0  0  0  0  0
    3.4026    1.2184    0.0000 N   0  0  0  0  0  0  0  0  0  0  0  0
    6.6495    3.2951    0.0000 N   0  0  0  0  0  0  0  0  0  0  0  0
    4.6783   -2.1534    0.0000 N   0  0  0  0  0  0  0  0  0  0  0  0
    2.8660   -0.3486    0.0000 N   0  0  0  0  0  0  0  0  0  0  0  0
    2.0000   -1.8486    0.0000 N   0  0  0  0  0  0  0  0  0  0  0  0
    2.8660   -3.3486    0.0000 N   0  0  0  0  0  0  0  0  0  0  0  0
    4.4026    1.2166    0.0000 C   0  0  1  0  0  0  0  0  0  0  0  0
    4.9889    0.4066    0.0000 C   0  0  1  0  0  0  0  0  0  0  0  0
    4.9917    2.0246    0.0000 C   0  0  0  0  0  0  0  0  0  0  0  0
    5.9422    1.7140    0.0000 C   0  0  1  0  0  0  0  0  0  0  0  0
    6.7523    2.3004    0.0000 C   0  0  0  0  0  0  0  0  0  0  0  0
    3.7320   -0.8486    0.0000 C   0  0  0  0  0  0  0  0  0  0  0  0
    5.2619   -1.3486    0.0000 C   0  0  0  0  0  0  0  0  0  0  0  0
    3.7320   -1.8486    0.0000 C   0  0  0  0  0  0  0  0  0  0  0  0
    2.8660   -2.3486    0.0000 C   0  0  0  0  0  0  0  0  0  0  0  0
    2.0000   -0.8486    0.0000 C   0  0  0  0  0  0  0  0  0  0  0  0
    4.1220    1.7696    0.0000 H   0  0  0  0  0  0  0  0  0  0  0  0
    5.4266   -0.0325    0.0000 H   0  0  0  0  0  0  0  0  0  0  0  0
    5.2449    2.5906    0.0000 H   0  0  0  0  0  0  0  0  0  0  0  0
    4.4553    2.3356    0.0000 H   0  0  0  0  0  0  0  0  0  0  0  0
    6.4942    1.4316    0.0000 H   0  0  0  0  0  0  0  0  0  0  0  0
    7.0231    1.7426    0.0000 H   0  0  0  0  0  0  0  0  0  0  0  0
    7.3486    2.4702    0.0000 H   0  0  0  0  0  0  0  0  0  0  0  0
    3.0935    1.7558    0.0000 H   0  0  0  0  0  0  0  0  0  0  0  0
    3.0916    0.6820    0.0000 H   0  0  0  0  0  0  0  0  0  0  0  0
    5.8819   -1.3486    0.0000 H   0  0  0  0  0  0  0  0  0  0  0  0
    7.1517    3.6586    0.0000 H   0  0  0  0  0  0  0  0  0  0  0  0
    6.0835    3.5482    0.0000 H   0  0  0  0  0  0  0  0  0  0  0  0
    1.4631   -0.5386    0.0000 H   0  0  0  0  0  0  0  0  0  0  0  0
    2.3291   -3.6586    0.0000 H   0  0  0  0  0  0  0  0  0  0  0  0
    3.4030   -3.6586    0.0000 H   0  0  0  0  0  0  0  0  0  0  0  0
  1 10  1  0  0  0  0
  1 12  1  0  0  0  0
 10  2  1  1  0  0  0
  2 14  1  0  0  0  0
  2 15  1  0  0  0  0
  9  3  1  6  0  0  0
  3 26  1  0  0  0  0
  3 27  1  0  0  0  0
  4 13  1  0  0  0  0
  4 29  1  0  0  0  0
  4 30  1  0  0  0  0
  5 15  2  0  0  0  0
  5 16  1  0  0  0  0
  6 14  2  0  0  0  0
  6 18  1  0  0  0  0
  7 17  1  0  0  0  0
  7 18  2  0  0  0  0
  8 17  1  0  0  0  0
  8 32  1  0  0  0  0
  8 33  1  0  0  0  0
  9 10  1  0  0  0  0
  9 11  1  0  0  0  0
  9 19  1  0  0  0  0
 10 20  1  0  0  0  0
 11 12  1  0  0  0  0
 11 21  1  0  0  0  0
 11 22  1  0  0  0  0
 12 13  1  1  0  0  0
 12 23  1  0  0  0  0
 13 24  1  0  0  0  0
 13 25  1  0  0  0  0
 14 16  1  0  0  0  0
 15 28  1  0  0  0  0
 16 17  2  0  0  0  0
 18 31  1  0  0  0  0
M  END
> <PUBCHEM_COMPOUND_CID>
503008
> <PUBCHEM_COMPOUND_CANONICALIZED>
1
> <PUBCHEM_CACTVS_COMPLEXITY>
304
> <PUBCHEM_CACTVS_HBOND_ACCEPTOR>
7
> <PUBCHEM_CACTVS_HBOND_DONOR>
3
> <PUBCHEM_CACTVS_ROTATABLE_BOND>
2
> <PUBCHEM_CACTVS_SUBSKEYS>
AAADccBzoAAAAAAAAAAAAAAAAAAAAWJAAAAsAAAAAAAAAFgB+AAAHgAQAAAACDzhlwYF8L9MFACgAQZhZACAgC0REKABUKAoVBCCSAJAyEAfBAgOEALAACCwEAAAAAAAAAAAAAAAAAAAAAAAAAAAAAAAAA==
> <PUBCHEM_IUPAC_OPENEYE_NAME>
9-[(2R,3R,5S)-3-amino-5-(aminomethyl)tetrahydrofuran-2-yl]purin-6-amine
> <PUBCHEM_IUPAC_CAS_NAME>
9-[(2R,3R,5S)-3-amino-5-(aminomethyl)-2-oxolanyl]-6-purinamine
> <PUBCHEM_IUPAC_NAME_MARKUP>
9-[(2<I>R</I>,3<I>R</I>,5<I>S</I>)-3-amino-5-(aminomethyl)oxolan-2-yl]purin-6-amine
> <PUBCHEM_IUPAC_NAME>
9-[(2R,3R,5S)-3-amino-5-(aminomethyl)oxolan-2-yl]purin-6-amine
> <PUBCHEM_IUPAC_SYSTEMATIC_NAME>
9-[(2R,3R,5S)-5-(aminomethyl)-3-azanyl-oxolan-2-yl]purin-6-amine
> <PUBCHEM_IUPAC_TRADITIONAL_NAME>
[(2R,3R,5S)-2-adenin-9-yl-5-(aminomethyl)tetrahydrofuran-3-yl]amine
> <PUBCHEM_IUPAC_INCHI>
InChI=1S/C10H15N7O/c11-2-5-1-6(12)10(18-5)17-4-16-7-8(13)14-3-15-9(7)17/h3-6,10H,1-2,11-12H2,(H2,13,14,15)/t5-,6+,10+/m0/s1
> <PUBCHEM_IUPAC_INCHIKEY>
DHQGNBXKPQWBBK-BAJZRUMYSA-N
> <PUBCHEM_XLOGP3>
-1.7
> <PUBCHEM_EXACT_MASS>
249.13380813
> <PUBCHEM_MOLECULAR_FORMULA>
C10H15N7O
> <PUBCHEM_MOLECULAR_WEIGHT>
249.27
> <PUBCHEM_OPENEYE_CAN_SMILES>
C1C(OC(C1N)N2C=NC3=C(N=CN=C32)N)CN
> <PUBCHEM_OPENEYE_ISO_SMILES>
C1[C@H](O[C@H]([C@@H]1N)N2C=NC3=C(N=CN=C32)N)CN
> <PUBCHEM_CACTVS_TPSA>
131
> <PUBCHEM_MONOISOTOPIC_WEIGHT>
249.13380813
> <PUBCHEM_TOTAL_CHARGE>
0
> <PUBCHEM_HEAVY_ATOM_COUNT>
18
> <PUBCHEM_ATOM_DEF_STEREO_COUNT>
3
> <PUBCHEM_ATOM_UDEF_STEREO_COUNT>
0
> <PUBCHEM_BOND_DEF_STEREO_COUNT>
0
> <PUBCHEM_BOND_UDEF_STEREO_COUNT>
0
> <PUBCHEM_ISOTOPIC_ATOM_COUNT>
0
> <PUBCHEM_COMPONENT_COUNT>
1
> <PUBCHEM_CACTVS_TAUTO_COUNT>
-1
> <PUBCHEM_COORDINATE_TYPE>
1
5
255
> <PUBCHEM_BONDANNOTATIONS>
12  13  5
14  16  8
16  17  8
10  2  5
2  14  8
2  15  8
9  3  6
5  15  8
5  16  8
6  14  8
6  18  8
7  17  8
7  18  8
$$$$
