503086
  -OEChem-10302200282D
 87 90  0     1  0  0  0  0  0999 V2000
   12.4603   -1.0000    0.0000 S   0  0  0  0  0  0  0  0  0  0  0  0
   12.4603    1.0000    0.0000 O   0  0  0  0  0  0  0  0  0  0  0  0
    8.9962    2.0000    0.0000 O   0  0  0  0  0  0  0  0  0  0  0  0
    6.3981   -0.5000    0.0000 O   0  0  0  0  0  0  0  0  0  0  0  0
   14.1923   -1.0000    0.0000 O   0  0  0  0  0  0  0  0  0  0  0  0
    9.8622    0.5000    0.0000 N   0  0  0  0  0  0  0  0  0  0  0  0
    7.2641    1.0000    0.0000 N   0  0  0  0  0  0  0  0  0  0  0  0
   15.0583   -2.5000    0.0000 N   0  0  0  0  0  0  0  0  0  0  0  0
    4.6660    0.5000    0.0000 N   0  0  0  0  0  0  0  0  0  0  0  0
   10.7282    1.0000    0.0000 C   0  0  2  0  0  0  0  0  0  0  0  0
   11.5942    0.5000    0.0000 C   0  0  2  0  0  0  0  0  0  0  0  0
    8.1301    0.5000    0.0000 C   0  0  1  0  0  0  0  0  0  0  0  0
   10.7282    2.0000    0.0000 C   0  0  0  0  0  0  0  0  0  0  0  0
    8.1301   -0.5000    0.0000 C   0  0  0  0  0  0  0  0  0  0  0  0
    8.9962    1.0000    0.0000 C   0  0  0  0  0  0  0  0  0  0  0  0
   11.5942   -0.5000    0.0000 C   0  0  0  0  0  0  0  0  0  0  0  0
   11.5942    2.5000    0.0000 C   0  0  0  0  0  0  0  0  0  0  0  0
    8.9962   -1.0000    0.0000 C   0  0  0  0  0  0  0  0  0  0  0  0
    7.2641   -1.0000    0.0000 C   0  0  0  0  0  0  0  0  0  0  0  0
   11.5942    3.5000    0.0000 C   0  0  0  0  0  0  0  0  0  0  0  0
   12.4603    2.0000    0.0000 C   0  0  0  0  0  0  0  0  0  0  0  0
   15.9244   -2.0000    0.0000 C   0  0  0  0  0  0  0  0  0  0  0  0
    6.3981    0.5000    0.0000 C   0  0  0  0  0  0  0  0  0  0  0  0
   12.4603   -2.0000    0.0000 C   0  0  0  0  0  0  0  0  0  0  0  0
   13.3263   -2.5000    0.0000 C   0  0  0  0  0  0  0  0  0  0  0  0
   12.4603    4.0000    0.0000 C   0  0  0  0  0  0  0  0  0  0  0  0
   13.3263    2.5000    0.0000 C   0  0  0  0  0  0  0  0  0  0  0  0
   16.7904   -1.5000    0.0000 C   0  0  0  0  0  0  0  0  0  0  0  0
   16.4244   -2.8660    0.0000 C   0  0  0  0  0  0  0  0  0  0  0  0
   15.4244   -1.1340    0.0000 C   0  0  0  0  0  0  0  0  0  0  0  0
    5.5321    1.0000    0.0000 C   0  0  0  0  0  0  0  0  0  0  0  0
   14.1923   -2.0000    0.0000 C   0  0  0  0  0  0  0  0  0  0  0  0
   13.3263    3.5000    0.0000 C   0  0  0  0  0  0  0  0  0  0  0  0
   11.5942   -2.5000    0.0000 C   0  0  0  0  0  0  0  0  0  0  0  0
   13.3263   -3.5000    0.0000 C   0  0  0  0  0  0  0  0  0  0  0  0
    5.5321    2.0000    0.0000 C   0  0  0  0  0  0  0  0  0  0  0  0
   11.5942   -3.5000    0.0000 C   0  0  0  0  0  0  0  0  0  0  0  0
   12.4603   -4.0000    0.0000 C   0  0  0  0  0  0  0  0  0  0  0  0
    3.8000    1.0000    0.0000 C   0  0  0  0  0  0  0  0  0  0  0  0
    3.8000    2.0000    0.0000 C   0  0  0  0  0  0  0  0  0  0  0  0
    4.6660    2.5000    0.0000 C   0  0  0  0  0  0  0  0  0  0  0  0
    2.9061    0.4653    0.0000 C   0  0  0  0  0  0  0  0  0  0  0  0
    2.9061    2.5347    0.0000 C   0  0  0  0  0  0  0  0  0  0  0  0
    2.0000    0.9792    0.0000 C   0  0  0  0  0  0  0  0  0  0  0  0
    2.0000    2.0208    0.0000 C   0  0  0  0  0  0  0  0  0  0  0  0
   10.7282    0.3800    0.0000 H   0  0  0  0  0  0  0  0  0  0  0  0
   11.5942    1.1200    0.0000 H   0  0  0  0  0  0  0  0  0  0  0  0
    8.1301    1.1200    0.0000 H   0  0  0  0  0  0  0  0  0  0  0  0
   10.5162    2.5826    0.0000 H   0  0  0  0  0  0  0  0  0  0  0  0
   10.1176    1.8923    0.0000 H   0  0  0  0  0  0  0  0  0  0  0  0
    7.5932   -0.1900    0.0000 H   0  0  0  0  0  0  0  0  0  0  0  0
    9.8622   -0.1200    0.0000 H   0  0  0  0  0  0  0  0  0  0  0  0
   10.9837   -0.3923    0.0000 H   0  0  0  0  0  0  0  0  0  0  0  0
   11.3822   -1.0826    0.0000 H   0  0  0  0  0  0  0  0  0  0  0  0
    8.6862   -1.5369    0.0000 H   0  0  0  0  0  0  0  0  0  0  0  0
    9.5331   -1.3100    0.0000 H   0  0  0  0  0  0  0  0  0  0  0  0
    9.3062   -0.4631    0.0000 H   0  0  0  0  0  0  0  0  0  0  0  0
    6.9541   -0.4631    0.0000 H   0  0  0  0  0  0  0  0  0  0  0  0
    6.7272   -1.3100    0.0000 H   0  0  0  0  0  0  0  0  0  0  0  0
    7.5741   -1.5369    0.0000 H   0  0  0  0  0  0  0  0  0  0  0  0
    7.2641    1.6200    0.0000 H   0  0  0  0  0  0  0  0  0  0  0  0
   12.9972    0.6900    0.0000 H   0  0  0  0  0  0  0  0  0  0  0  0
   11.0573    3.8100    0.0000 H   0  0  0  0  0  0  0  0  0  0  0  0
   12.4603    1.3800    0.0000 H   0  0  0  0  0  0  0  0  0  0  0  0
   15.0583   -3.1200    0.0000 H   0  0  0  0  0  0  0  0  0  0  0  0
   12.4603    4.6200    0.0000 H   0  0  0  0  0  0  0  0  0  0  0  0
   13.8632    2.1900    0.0000 H   0  0  0  0  0  0  0  0  0  0  0  0
   17.1004   -2.0369    0.0000 H   0  0  0  0  0  0  0  0  0  0  0  0
   17.3273   -1.1900    0.0000 H   0  0  0  0  0  0  0  0  0  0  0  0
   16.4804   -0.9631    0.0000 H   0  0  0  0  0  0  0  0  0  0  0  0
   15.8874   -3.1760    0.0000 H   0  0  0  0  0  0  0  0  0  0  0  0
   16.7344   -3.4030    0.0000 H   0  0  0  0  0  0  0  0  0  0  0  0
   16.9613   -2.5560    0.0000 H   0  0  0  0  0  0  0  0  0  0  0  0
   15.9613   -0.8240    0.0000 H   0  0  0  0  0  0  0  0  0  0  0  0
   15.1144   -0.5970    0.0000 H   0  0  0  0  0  0  0  0  0  0  0  0
   14.8874   -1.4440    0.0000 H   0  0  0  0  0  0  0  0  0  0  0  0
   13.8632    3.8100    0.0000 H   0  0  0  0  0  0  0  0  0  0  0  0
   11.0573   -2.1900    0.0000 H   0  0  0  0  0  0  0  0  0  0  0  0
   13.8632   -3.8100    0.0000 H   0  0  0  0  0  0  0  0  0  0  0  0
    6.0690    2.3100    0.0000 H   0  0  0  0  0  0  0  0  0  0  0  0
   11.0573   -3.8100    0.0000 H   0  0  0  0  0  0  0  0  0  0  0  0
   12.4603   -4.6200    0.0000 H   0  0  0  0  0  0  0  0  0  0  0  0
    4.6660    3.1200    0.0000 H   0  0  0  0  0  0  0  0  0  0  0  0
    2.9132   -0.1546    0.0000 H   0  0  0  0  0  0  0  0  0  0  0  0
    2.9132    3.1546    0.0000 H   0  0  0  0  0  0  0  0  0  0  0  0
    1.4643    0.6671    0.0000 H   0  0  0  0  0  0  0  0  0  0  0  0
    1.4643    2.3329    0.0000 H   0  0  0  0  0  0  0  0  0  0  0  0
  1 16  1  0  0  0  0
  1 24  1  0  0  0  0
 11  2  1  1  0  0  0
  2 62  1  0  0  0  0
  3 15  2  0  0  0  0
  4 23  2  0  0  0  0
  5 32  2  0  0  0  0
 10  6  1  1  0  0  0
  6 15  1  0  0  0  0
  6 52  1  0  0  0  0
 12  7  1  6  0  0  0
  7 23  1  0  0  0  0
  7 61  1  0  0  0  0
  8 22  1  0  0  0  0
  8 32  1  0  0  0  0
  8 65  1  0  0  0  0
  9 31  2  0  0  0  0
  9 39  1  0  0  0  0
 10 11  1  0  0  0  0
 10 13  1  0  0  0  0
 10 46  1  0  0  0  0
 11 16  1  0  0  0  0
 11 47  1  0  0  0  0
 12 14  1  0  0  0  0
 12 15  1  0  0  0  0
 12 48  1  0  0  0  0
 13 17  1  0  0  0  0
 13 49  1  0  0  0  0
 13 50  1  0  0  0  0
 14 18  1  0  0  0  0
 14 19  1  0  0  0  0
 14 51  1  0  0  0  0
 16 53  1  0  0  0  0
 16 54  1  0  0  0  0
 17 20  2  0  0  0  0
 17 21  1  0  0  0  0
 18 55  1  0  0  0  0
 18 56  1  0  0  0  0
 18 57  1  0  0  0  0
 19 58  1  0  0  0  0
 19 59  1  0  0  0  0
 19 60  1  0  0  0  0
 20 26  1  0  0  0  0
 20 63  1  0  0  0  0
 21 27  2  0  0  0  0
 21 64  1  0  0  0  0
 22 28  1  0  0  0  0
 22 29  1  0  0  0  0
 22 30  1  0  0  0  0
 23 31  1  0  0  0  0
 24 25  1  0  0  0  0
 24 34  2  0  0  0  0
 25 32  1  0  0  0  0
 25 35  2  0  0  0  0
 26 33  2  0  0  0  0
 26 66  1  0  0  0  0
 27 33  1  0  0  0  0
 27 67  1  0  0  0  0
 28 68  1  0  0  0  0
 28 69  1  0  0  0  0
 28 70  1  0  0  0  0
 29 71  1  0  0  0  0
 29 72  1  0  0  0  0
 29 73  1  0  0  0  0
 30 74  1  0  0  0  0
 30 75  1  0  0  0  0
 30 76  1  0  0  0  0
 31 36  1  0  0  0  0
 33 77  1  0  0  0  0
 34 37  1  0  0  0  0
 34 78  1  0  0  0  0
 35 38  1  0  0  0  0
 35 79  1  0  0  0  0
 36 41  2  0  0  0  0
 36 80  1  0  0  0  0
 37 38  2  0  0  0  0
 37 81  1  0  0  0  0
 38 82  1  0  0  0  0
 39 40  1  0  0  0  0
 39 42  2  0  0  0  0
 40 41  1  0  0  0  0
 40 43  2  0  0  0  0
 41 83  1  0  0  0  0
 42 44  1  0  0  0  0
 42 84  1  0  0  0  0
 43 45  1  0  0  0  0
 43 85  1  0  0  0  0
 44 45  2  0  0  0  0
 44 86  1  0  0  0  0
 45 87  1  0  0  0  0
M  END
> <PUBCHEM_COMPOUND_CID>
503086
> <PUBCHEM_COMPOUND_CANONICALIZED>
1
> <PUBCHEM_CACTVS_COMPLEXITY>
965
> <PUBCHEM_CACTVS_HBOND_ACCEPTOR>
6
> <PUBCHEM_CACTVS_HBOND_DONOR>
4
> <PUBCHEM_CACTVS_ROTATABLE_BOND>
13
> <PUBCHEM_CACTVS_SUBSKEYS>
AAADcfB/uABAAAAAAAAAAAAAAAAAAAAAAAA8YMEAAAAAAACx9AAAHgQQCAAADbzl3gaywfLIEgioAyVyVACCgCAnCjAImLm4ZNgKcPLglbGUYQhklgD4yYeYyKCOAAAAAAAGAAAAAAAAAAwAAAAAAAAAAA==
> <PUBCHEM_IUPAC_OPENEYE_NAME>
N-[(1S)-1-[[(1S,2R)-1-benzyl-3-[2-(tert-butylcarbamoyl)phenyl]sulfanyl-2-hydroxy-propyl]carbamoyl]-2-methyl-propyl]quinoline-2-carboxamide
> <PUBCHEM_IUPAC_CAS_NAME>
N-[(2S)-1-[[(2S,3R)-4-[[2-[(tert-butylamino)-oxomethyl]phenyl]thio]-3-hydroxy-1-phenylbutan-2-yl]amino]-3-methyl-1-oxobutan-2-yl]-2-quinolinecarboxamide
> <PUBCHEM_IUPAC_NAME_MARKUP>
<I>N</I>-[(2<I>S</I>)-1-[[(2<I>S</I>,3<I>R</I>)-4-[2-(<I>tert</I>-butylcarbamoyl)phenyl]sulfanyl-3-hydroxy-1-phenylbutan-2-yl]amino]-3-methyl-1-oxobutan-2-yl]quinoline-2-carboxamide
> <PUBCHEM_IUPAC_NAME>
N-[(2S)-1-[[(2S,3R)-4-[2-(tert-butylcarbamoyl)phenyl]sulfanyl-3-hydroxy-1-phenylbutan-2-yl]amino]-3-methyl-1-oxobutan-2-yl]quinoline-2-carboxamide
> <PUBCHEM_IUPAC_SYSTEMATIC_NAME>
N-[(2S)-1-[[(2S,3R)-4-[2-(tert-butylcarbamoyl)phenyl]sulfanyl-3-oxidanyl-1-phenyl-butan-2-yl]amino]-3-methyl-1-oxidanylidene-butan-2-yl]quinoline-2-carboxamide
> <PUBCHEM_IUPAC_TRADITIONAL_NAME>
N-[(1S)-1-[[(1S,2R)-1-benzyl-3-[[2-(tert-butylcarbamoyl)phenyl]thio]-2-hydroxy-propyl]carbamoyl]-2-methyl-propyl]quinaldamide
> <PUBCHEM_IUPAC_INCHI>
InChI=1S/C36H42N4O4S/c1-23(2)32(39-34(43)28-20-19-25-15-9-11-17-27(25)37-28)35(44)38-29(21-24-13-7-6-8-14-24)30(41)22-45-31-18-12-10-16-26(31)33(42)40-36(3,4)5/h6-20,23,29-30,32,41H,21-22H2,1-5H3,(H,38,44)(H,39,43)(H,40,42)/t29-,30-,32-/m0/s1
> <PUBCHEM_IUPAC_INCHIKEY>
SOPLXZZSCBXPQJ-GCRSFRQPSA-N
> <PUBCHEM_XLOGP3_AA>
6.4
> <PUBCHEM_EXACT_MASS>
626.29267701
> <PUBCHEM_MOLECULAR_FORMULA>
C36H42N4O4S
> <PUBCHEM_MOLECULAR_WEIGHT>
626.8
> <PUBCHEM_OPENEYE_CAN_SMILES>
CC(C)C(C(=O)NC(CC1=CC=CC=C1)C(CSC2=CC=CC=C2C(=O)NC(C)(C)C)O)NC(=O)C3=NC4=CC=CC=C4C=C3
> <PUBCHEM_OPENEYE_ISO_SMILES>
CC(C)[C@@H](C(=O)N[C@@H](CC1=CC=CC=C1)[C@H](CSC2=CC=CC=C2C(=O)NC(C)(C)C)O)NC(=O)C3=NC4=CC=CC=C4C=C3
> <PUBCHEM_CACTVS_TPSA>
146
> <PUBCHEM_MONOISOTOPIC_WEIGHT>
626.29267701
> <PUBCHEM_TOTAL_CHARGE>
0
> <PUBCHEM_HEAVY_ATOM_COUNT>
45
> <PUBCHEM_ATOM_DEF_STEREO_COUNT>
3
> <PUBCHEM_ATOM_UDEF_STEREO_COUNT>
0
> <PUBCHEM_BOND_DEF_STEREO_COUNT>
0
> <PUBCHEM_BOND_UDEF_STEREO_COUNT>
0
> <PUBCHEM_ISOTOPIC_ATOM_COUNT>
0
> <PUBCHEM_COMPONENT_COUNT>
1
> <PUBCHEM_CACTVS_TAUTO_COUNT>
-1
> <PUBCHEM_COORDINATE_TYPE>
1
5
255
> <PUBCHEM_BONDANNOTATIONS>
17  20  8
17  21  8
11  2  5
20  26  8
21  27  8
24  25  8
24  34  8
25  35  8
26  33  8
27  33  8
31  36  8
34  37  8
35  38  8
36  41  8
37  38  8
39  40  8
39  42  8
40  41  8
40  43  8
42  44  8
43  45  8
44  45  8
10  6  5
12  7  6
9  31  8
9  39  8
$$$$
