503085
  -OEChem-10302200282D
 88 91  0     1  0  0  0  0  0999 V2000
   12.4603   -1.0000    0.0000 S   0  0  0  0  0  0  0  0  0  0  0  0
   12.4603    1.0000    0.0000 O   0  0  0  0  0  0  0  0  0  0  0  0
    8.9962    2.0000    0.0000 O   0  0  0  0  0  0  0  0  0  0  0  0
    6.3981   -0.5000    0.0000 O   0  0  0  0  0  0  0  0  0  0  0  0
   14.1923   -1.0000    0.0000 O   0  0  0  0  0  0  0  0  0  0  0  0
    8.1301   -2.5000    0.0000 O   0  0  0  0  0  0  0  0  0  0  0  0
    9.8622    0.5000    0.0000 N   0  0  0  0  0  0  0  0  0  0  0  0
    7.2641    1.0000    0.0000 N   0  0  0  0  0  0  0  0  0  0  0  0
   15.0583   -2.5000    0.0000 N   0  0  0  0  0  0  0  0  0  0  0  0
    9.8622   -2.5000    0.0000 N   0  0  0  0  0  0  0  0  0  0  0  0
    4.6660    0.5000    0.0000 N   0  0  0  0  0  0  0  0  0  0  0  0
   10.7282    1.0000    0.0000 C   0  0  2  0  0  0  0  0  0  0  0  0
   11.5942    0.5000    0.0000 C   0  0  2  0  0  0  0  0  0  0  0  0
   10.7282    2.0000    0.0000 C   0  0  0  0  0  0  0  0  0  0  0  0
    8.1301    0.5000    0.0000 C   0  0  2  0  0  0  0  0  0  0  0  0
   11.5942   -0.5000    0.0000 C   0  0  0  0  0  0  0  0  0  0  0  0
    8.9962    1.0000    0.0000 C   0  0  0  0  0  0  0  0  0  0  0  0
   11.5942    2.5000    0.0000 C   0  0  0  0  0  0  0  0  0  0  0  0
    8.1301   -0.5000    0.0000 C   0  0  0  0  0  0  0  0  0  0  0  0
    8.9962   -1.0000    0.0000 C   0  0  0  0  0  0  0  0  0  0  0  0
   15.9244   -2.0000    0.0000 C   0  0  0  0  0  0  0  0  0  0  0  0
   11.5942    3.5000    0.0000 C   0  0  0  0  0  0  0  0  0  0  0  0
   12.4603    2.0000    0.0000 C   0  0  0  0  0  0  0  0  0  0  0  0
   12.4603   -2.0000    0.0000 C   0  0  0  0  0  0  0  0  0  0  0  0
   13.3263   -2.5000    0.0000 C   0  0  0  0  0  0  0  0  0  0  0  0
    6.3981    0.5000    0.0000 C   0  0  0  0  0  0  0  0  0  0  0  0
   12.4603    4.0000    0.0000 C   0  0  0  0  0  0  0  0  0  0  0  0
   13.3263    2.5000    0.0000 C   0  0  0  0  0  0  0  0  0  0  0  0
   16.7904   -1.5000    0.0000 C   0  0  0  0  0  0  0  0  0  0  0  0
   16.4244   -2.8660    0.0000 C   0  0  0  0  0  0  0  0  0  0  0  0
   15.4244   -1.1340    0.0000 C   0  0  0  0  0  0  0  0  0  0  0  0
   14.1923   -2.0000    0.0000 C   0  0  0  0  0  0  0  0  0  0  0  0
    8.9962   -2.0000    0.0000 C   0  0  0  0  0  0  0  0  0  0  0  0
   13.3263    3.5000    0.0000 C   0  0  0  0  0  0  0  0  0  0  0  0
   11.5942   -2.5000    0.0000 C   0  0  0  0  0  0  0  0  0  0  0  0
   13.3263   -3.5000    0.0000 C   0  0  0  0  0  0  0  0  0  0  0  0
    5.5321    1.0000    0.0000 C   0  0  0  0  0  0  0  0  0  0  0  0
   11.5942   -3.5000    0.0000 C   0  0  0  0  0  0  0  0  0  0  0  0
   12.4603   -4.0000    0.0000 C   0  0  0  0  0  0  0  0  0  0  0  0
    5.5321    2.0000    0.0000 C   0  0  0  0  0  0  0  0  0  0  0  0
    3.8000    1.0000    0.0000 C   0  0  0  0  0  0  0  0  0  0  0  0
    3.8000    2.0000    0.0000 C   0  0  0  0  0  0  0  0  0  0  0  0
    4.6660    2.5000    0.0000 C   0  0  0  0  0  0  0  0  0  0  0  0
    2.9061    0.4653    0.0000 C   0  0  0  0  0  0  0  0  0  0  0  0
    2.9061    2.5347    0.0000 C   0  0  0  0  0  0  0  0  0  0  0  0
    2.0000    0.9792    0.0000 C   0  0  0  0  0  0  0  0  0  0  0  0
    2.0000    2.0208    0.0000 C   0  0  0  0  0  0  0  0  0  0  0  0
   10.7282    0.3800    0.0000 H   0  0  0  0  0  0  0  0  0  0  0  0
   11.5942    1.1200    0.0000 H   0  0  0  0  0  0  0  0  0  0  0  0
   10.5162    2.5826    0.0000 H   0  0  0  0  0  0  0  0  0  0  0  0
   10.1176    1.8923    0.0000 H   0  0  0  0  0  0  0  0  0  0  0  0
    9.8622   -0.1200    0.0000 H   0  0  0  0  0  0  0  0  0  0  0  0
    7.5932    0.1900    0.0000 H   0  0  0  0  0  0  0  0  0  0  0  0
   10.9837   -0.3923    0.0000 H   0  0  0  0  0  0  0  0  0  0  0  0
   11.3822   -1.0826    0.0000 H   0  0  0  0  0  0  0  0  0  0  0  0
    7.5196   -0.3923    0.0000 H   0  0  0  0  0  0  0  0  0  0  0  0
    7.9181   -1.0826    0.0000 H   0  0  0  0  0  0  0  0  0  0  0  0
    9.6067   -1.1077    0.0000 H   0  0  0  0  0  0  0  0  0  0  0  0
    9.2082   -0.4174    0.0000 H   0  0  0  0  0  0  0  0  0  0  0  0
    7.2641    1.6200    0.0000 H   0  0  0  0  0  0  0  0  0  0  0  0
   12.9972    0.6900    0.0000 H   0  0  0  0  0  0  0  0  0  0  0  0
   11.0573    3.8100    0.0000 H   0  0  0  0  0  0  0  0  0  0  0  0
   12.4603    1.3800    0.0000 H   0  0  0  0  0  0  0  0  0  0  0  0
   15.0583   -3.1200    0.0000 H   0  0  0  0  0  0  0  0  0  0  0  0
   17.1004   -2.0369    0.0000 H   0  0  0  0  0  0  0  0  0  0  0  0
   17.3273   -1.1900    0.0000 H   0  0  0  0  0  0  0  0  0  0  0  0
   16.4804   -0.9631    0.0000 H   0  0  0  0  0  0  0  0  0  0  0  0
   15.8874   -3.1760    0.0000 H   0  0  0  0  0  0  0  0  0  0  0  0
   16.7344   -3.4030    0.0000 H   0  0  0  0  0  0  0  0  0  0  0  0
   16.9613   -2.5560    0.0000 H   0  0  0  0  0  0  0  0  0  0  0  0
   15.9613   -0.8240    0.0000 H   0  0  0  0  0  0  0  0  0  0  0  0
   15.1144   -0.5970    0.0000 H   0  0  0  0  0  0  0  0  0  0  0  0
   14.8874   -1.4440    0.0000 H   0  0  0  0  0  0  0  0  0  0  0  0
   12.4603    4.6200    0.0000 H   0  0  0  0  0  0  0  0  0  0  0  0
   13.8632    2.1900    0.0000 H   0  0  0  0  0  0  0  0  0  0  0  0
   13.8632    3.8100    0.0000 H   0  0  0  0  0  0  0  0  0  0  0  0
   11.0573   -2.1900    0.0000 H   0  0  0  0  0  0  0  0  0  0  0  0
   13.8632   -3.8100    0.0000 H   0  0  0  0  0  0  0  0  0  0  0  0
   11.0573   -3.8100    0.0000 H   0  0  0  0  0  0  0  0  0  0  0  0
   12.4603   -4.6200    0.0000 H   0  0  0  0  0  0  0  0  0  0  0  0
    6.0690    2.3100    0.0000 H   0  0  0  0  0  0  0  0  0  0  0  0
    9.8622   -3.1200    0.0000 H   0  0  0  0  0  0  0  0  0  0  0  0
   10.3991   -2.1900    0.0000 H   0  0  0  0  0  0  0  0  0  0  0  0
    4.6660    3.1200    0.0000 H   0  0  0  0  0  0  0  0  0  0  0  0
    2.9132   -0.1546    0.0000 H   0  0  0  0  0  0  0  0  0  0  0  0
    2.9132    3.1546    0.0000 H   0  0  0  0  0  0  0  0  0  0  0  0
    1.4643    0.6671    0.0000 H   0  0  0  0  0  0  0  0  0  0  0  0
    1.4643    2.3329    0.0000 H   0  0  0  0  0  0  0  0  0  0  0  0
  1 16  1  0  0  0  0
  1 24  1  0  0  0  0
 13  2  1  1  0  0  0
  2 61  1  0  0  0  0
  3 17  2  0  0  0  0
  4 26  2  0  0  0  0
  5 32  2  0  0  0  0
  6 33  2  0  0  0  0
 12  7  1  1  0  0  0
  7 17  1  0  0  0  0
  7 52  1  0  0  0  0
 15  8  1  6  0  0  0
  8 26  1  0  0  0  0
  8 60  1  0  0  0  0
  9 21  1  0  0  0  0
  9 32  1  0  0  0  0
  9 64  1  0  0  0  0
 10 33  1  0  0  0  0
 10 82  1  0  0  0  0
 10 83  1  0  0  0  0
 11 37  2  0  0  0  0
 11 41  1  0  0  0  0
 12 13  1  0  0  0  0
 12 14  1  0  0  0  0
 12 48  1  0  0  0  0
 13 16  1  0  0  0  0
 13 49  1  0  0  0  0
 14 18  1  0  0  0  0
 14 50  1  0  0  0  0
 14 51  1  0  0  0  0
 15 17  1  0  0  0  0
 15 19  1  0  0  0  0
 15 53  1  0  0  0  0
 16 54  1  0  0  0  0
 16 55  1  0  0  0  0
 18 22  2  0  0  0  0
 18 23  1  0  0  0  0
 19 20  1  0  0  0  0
 19 56  1  0  0  0  0
 19 57  1  0  0  0  0
 20 33  1  0  0  0  0
 20 58  1  0  0  0  0
 20 59  1  0  0  0  0
 21 29  1  0  0  0  0
 21 30  1  0  0  0  0
 21 31  1  0  0  0  0
 22 27  1  0  0  0  0
 22 62  1  0  0  0  0
 23 28  2  0  0  0  0
 23 63  1  0  0  0  0
 24 25  1  0  0  0  0
 24 35  2  0  0  0  0
 25 32  1  0  0  0  0
 25 36  2  0  0  0  0
 26 37  1  0  0  0  0
 27 34  2  0  0  0  0
 27 74  1  0  0  0  0
 28 34  1  0  0  0  0
 28 75  1  0  0  0  0
 29 65  1  0  0  0  0
 29 66  1  0  0  0  0
 29 67  1  0  0  0  0
 30 68  1  0  0  0  0
 30 69  1  0  0  0  0
 30 70  1  0  0  0  0
 31 71  1  0  0  0  0
 31 72  1  0  0  0  0
 31 73  1  0  0  0  0
 34 76  1  0  0  0  0
 35 38  1  0  0  0  0
 35 77  1  0  0  0  0
 36 39  1  0  0  0  0
 36 78  1  0  0  0  0
 37 40  1  0  0  0  0
 38 39  2  0  0  0  0
 38 79  1  0  0  0  0
 39 80  1  0  0  0  0
 40 43  2  0  0  0  0
 40 81  1  0  0  0  0
 41 42  1  0  0  0  0
 41 44  2  0  0  0  0
 42 43  1  0  0  0  0
 42 45  2  0  0  0  0
 43 84  1  0  0  0  0
 44 46  1  0  0  0  0
 44 85  1  0  0  0  0
 45 47  1  0  0  0  0
 45 86  1  0  0  0  0
 46 47  2  0  0  0  0
 46 87  1  0  0  0  0
 47 88  1  0  0  0  0
M  END
> <PUBCHEM_COMPOUND_CID>
503085
> <PUBCHEM_COMPOUND_CANONICALIZED>
1
> <PUBCHEM_CACTVS_COMPLEXITY>
1050
> <PUBCHEM_CACTVS_HBOND_ACCEPTOR>
7
> <PUBCHEM_CACTVS_HBOND_DONOR>
5
> <PUBCHEM_CACTVS_ROTATABLE_BOND>
15
> <PUBCHEM_CACTVS_SUBSKEYS>
AAADcfB/uABAAAAAAAAAAAAAAAAAAAAAAAA8YMEAAAAAAACx9AAAHgQQCAAADLzl3gaywfLIEgioAyVyVACCgCAnCjAImLm4ZNgKcPLglbGUYQhklgD4yYecy6COAAAAAAAGAAAAAAAAAAwAAAAAAAAAAA==
> <PUBCHEM_IUPAC_OPENEYE_NAME>
(2S)-N-[(1S,2R)-1-benzyl-3-[2-(tert-butylcarbamoyl)phenyl]sulfanyl-2-hydroxy-propyl]-2-(quinoline-2-carbonylamino)pentanediamide
> <PUBCHEM_IUPAC_CAS_NAME>
(2S)-N-[(2S,3R)-4-[[2-[(tert-butylamino)-oxomethyl]phenyl]thio]-3-hydroxy-1-phenylbutan-2-yl]-2-[[oxo(2-quinolinyl)methyl]amino]pentanediamide
> <PUBCHEM_IUPAC_NAME_MARKUP>
(2<I>S</I>)-<I>N</I>-[(2<I>S</I>,3<I>R</I>)-4-[2-(<I>tert</I>-butylcarbamoyl)phenyl]sulfanyl-3-hydroxy-1-phenylbutan-2-yl]-2-(quinoline-2-carbonylamino)pentanediamide
> <PUBCHEM_IUPAC_NAME>
(2S)-N-[(2S,3R)-4-[2-(tert-butylcarbamoyl)phenyl]sulfanyl-3-hydroxy-1-phenylbutan-2-yl]-2-(quinoline-2-carbonylamino)pentanediamide
> <PUBCHEM_IUPAC_SYSTEMATIC_NAME>
(2S)-N-[(2S,3R)-4-[2-(tert-butylcarbamoyl)phenyl]sulfanyl-3-oxidanyl-1-phenyl-butan-2-yl]-2-(quinolin-2-ylcarbonylamino)pentanediamide
> <PUBCHEM_IUPAC_TRADITIONAL_NAME>
(2S)-N-[(1S,2R)-1-benzyl-3-[[2-(tert-butylcarbamoyl)phenyl]thio]-2-hydroxy-propyl]-2-(quinaldoylamino)glutaramide
> <PUBCHEM_IUPAC_INCHI>
InChI=1S/C36H41N5O5S/c1-36(2,3)41-33(44)25-14-8-10-16-31(25)47-22-30(42)29(21-23-11-5-4-6-12-23)40-35(46)28(19-20-32(37)43)39-34(45)27-18-17-24-13-7-9-15-26(24)38-27/h4-18,28-30,42H,19-22H2,1-3H3,(H2,37,43)(H,39,45)(H,40,46)(H,41,44)/t28-,29-,30-/m0/s1
> <PUBCHEM_IUPAC_INCHIKEY>
TXWLFMHPMULKFB-DTXPUJKBSA-N
> <PUBCHEM_XLOGP3_AA>
4.3
> <PUBCHEM_EXACT_MASS>
655.28284060
> <PUBCHEM_MOLECULAR_FORMULA>
C36H41N5O5S
> <PUBCHEM_MOLECULAR_WEIGHT>
655.8
> <PUBCHEM_OPENEYE_CAN_SMILES>
CC(C)(C)NC(=O)C1=CC=CC=C1SCC(C(CC2=CC=CC=C2)NC(=O)C(CCC(=O)N)NC(=O)C3=NC4=CC=CC=C4C=C3)O
> <PUBCHEM_OPENEYE_ISO_SMILES>
CC(C)(C)NC(=O)C1=CC=CC=C1SC[C@@H]([C@H](CC2=CC=CC=C2)NC(=O)[C@H](CCC(=O)N)NC(=O)C3=NC4=CC=CC=C4C=C3)O
> <PUBCHEM_CACTVS_TPSA>
189
> <PUBCHEM_MONOISOTOPIC_WEIGHT>
655.28284060
> <PUBCHEM_TOTAL_CHARGE>
0
> <PUBCHEM_HEAVY_ATOM_COUNT>
47
> <PUBCHEM_ATOM_DEF_STEREO_COUNT>
3
> <PUBCHEM_ATOM_UDEF_STEREO_COUNT>
0
> <PUBCHEM_BOND_DEF_STEREO_COUNT>
0
> <PUBCHEM_BOND_UDEF_STEREO_COUNT>
0
> <PUBCHEM_ISOTOPIC_ATOM_COUNT>
0
> <PUBCHEM_COMPONENT_COUNT>
1
> <PUBCHEM_CACTVS_TAUTO_COUNT>
-1
> <PUBCHEM_COORDINATE_TYPE>
1
5
255
> <PUBCHEM_BONDANNOTATIONS>
11  37  8
11  41  8
18  22  8
18  23  8
13  2  5
22  27  8
23  28  8
24  25  8
24  35  8
25  36  8
27  34  8
28  34  8
35  38  8
36  39  8
37  40  8
38  39  8
40  43  8
41  42  8
41  44  8
42  43  8
42  45  8
44  46  8
45  47  8
46  47  8
12  7  5
15  8  6
$$$$
