503072
  -OEChem-10302200282D
 91 95  0     1  0  0  0  0  0999 V2000
    8.9962    2.7500    0.0000 S   0  0  0  0  0  0  0  0  0  0  0  0
   10.7282    1.7500    0.0000 O   0  0  0  0  0  0  0  0  0  0  0  0
    9.8622   -1.7500    0.0000 O   0  0  0  0  0  0  0  0  0  0  0  0
    6.3981   -2.7500    0.0000 O   0  0  0  0  0  0  0  0  0  0  0  0
    8.1301    1.2500    0.0000 O   0  0  0  0  0  0  0  0  0  0  0  0
    8.9962   -0.2500    0.0000 N   0  0  0  0  0  0  0  0  0  0  0  0
    7.2641   -1.2500    0.0000 N   0  0  0  0  0  0  0  0  0  0  0  0
    6.3981    1.2500    0.0000 N   0  0  0  0  0  0  0  0  0  0  0  0
    4.6660   -1.7500    0.0000 N   0  0  0  0  0  0  0  0  0  0  0  0
    9.8622    0.2500    0.0000 C   0  0  2  0  0  0  0  0  0  0  0  0
    9.8622    1.2500    0.0000 C   0  0  2  0  0  0  0  0  0  0  0  0
   10.7282   -0.2500    0.0000 C   0  0  0  0  0  0  0  0  0  0  0  0
    8.9962    1.7500    0.0000 C   0  0  0  0  0  0  0  0  0  0  0  0
    8.1301   -1.7500    0.0000 C   0  0  2  0  0  0  0  0  0  0  0  0
    8.9962   -1.2500    0.0000 C   0  0  0  0  0  0  0  0  0  0  0  0
   11.5942    0.2500    0.0000 C   0  0  0  0  0  0  0  0  0  0  0  0
    8.1301   -2.7500    0.0000 C   0  0  0  0  0  0  0  0  0  0  0  0
    5.5321    1.7500    0.0000 C   0  0  0  0  0  0  0  0  0  0  0  0
   11.5942    1.2500    0.0000 C   0  0  0  0  0  0  0  0  0  0  0  0
   12.4603   -0.2500    0.0000 C   0  0  0  0  0  0  0  0  0  0  0  0
    8.9962   -3.2500    0.0000 C   0  0  0  0  0  0  0  0  0  0  0  0
    8.1301    3.2500    0.0000 C   0  0  0  0  0  0  0  0  0  0  0  0
    7.2641    2.7500    0.0000 C   0  0  0  0  0  0  0  0  0  0  0  0
   12.4603    1.7500    0.0000 C   0  0  0  0  0  0  0  0  0  0  0  0
   13.3263    0.2500    0.0000 C   0  0  0  0  0  0  0  0  0  0  0  0
    4.6660    2.2500    0.0000 C   0  0  0  0  0  0  0  0  0  0  0  0
    6.0321    2.6160    0.0000 C   0  0  0  0  0  0  0  0  0  0  0  0
    5.0321    0.8840    0.0000 C   0  0  0  0  0  0  0  0  0  0  0  0
    6.3981   -1.7500    0.0000 C   0  0  0  0  0  0  0  0  0  0  0  0
    7.2641    1.7500    0.0000 C   0  0  0  0  0  0  0  0  0  0  0  0
    9.8622   -2.7500    0.0000 C   0  0  0  0  0  0  0  0  0  0  0  0
    8.9962   -4.2500    0.0000 C   0  0  0  0  0  0  0  0  0  0  0  0
   13.3263    1.2500    0.0000 C   0  0  0  0  0  0  0  0  0  0  0  0
    8.1301    4.2500    0.0000 C   0  0  0  0  0  0  0  0  0  0  0  0
    6.3981    3.2500    0.0000 C   0  0  0  0  0  0  0  0  0  0  0  0
    5.5321   -1.2500    0.0000 C   0  0  0  0  0  0  0  0  0  0  0  0
   10.7282   -3.2500    0.0000 C   0  0  0  0  0  0  0  0  0  0  0  0
    9.8622   -4.7500    0.0000 C   0  0  0  0  0  0  0  0  0  0  0  0
    7.2641    4.7500    0.0000 C   0  0  0  0  0  0  0  0  0  0  0  0
    6.3981    4.2500    0.0000 C   0  0  0  0  0  0  0  0  0  0  0  0
   10.7282   -4.2500    0.0000 C   0  0  0  0  0  0  0  0  0  0  0  0
    5.5321   -0.2500    0.0000 C   0  0  0  0  0  0  0  0  0  0  0  0
    3.8000   -1.2500    0.0000 C   0  0  0  0  0  0  0  0  0  0  0  0
    3.8000   -0.2500    0.0000 C   0  0  0  0  0  0  0  0  0  0  0  0
    4.6660    0.2500    0.0000 C   0  0  0  0  0  0  0  0  0  0  0  0
    2.9061   -1.7847    0.0000 C   0  0  0  0  0  0  0  0  0  0  0  0
    2.9061    0.2847    0.0000 C   0  0  0  0  0  0  0  0  0  0  0  0
    2.0000   -1.2708    0.0000 C   0  0  0  0  0  0  0  0  0  0  0  0
    2.0000   -0.2292    0.0000 C   0  0  0  0  0  0  0  0  0  0  0  0
    9.3252    0.5600    0.0000 H   0  0  0  0  0  0  0  0  0  0  0  0
    9.8622    1.8700    0.0000 H   0  0  0  0  0  0  0  0  0  0  0  0
   10.3297   -0.7249    0.0000 H   0  0  0  0  0  0  0  0  0  0  0  0
   11.1267   -0.7249    0.0000 H   0  0  0  0  0  0  0  0  0  0  0  0
    8.4592    0.0600    0.0000 H   0  0  0  0  0  0  0  0  0  0  0  0
    8.3856    1.8577    0.0000 H   0  0  0  0  0  0  0  0  0  0  0  0
    8.7841    1.1674    0.0000 H   0  0  0  0  0  0  0  0  0  0  0  0
    7.5932   -2.0600    0.0000 H   0  0  0  0  0  0  0  0  0  0  0  0
    7.5196   -2.6423    0.0000 H   0  0  0  0  0  0  0  0  0  0  0  0
    7.9181   -3.3326    0.0000 H   0  0  0  0  0  0  0  0  0  0  0  0
   10.7282    2.3700    0.0000 H   0  0  0  0  0  0  0  0  0  0  0  0
    7.2641   -0.6300    0.0000 H   0  0  0  0  0  0  0  0  0  0  0  0
   11.0573    1.5600    0.0000 H   0  0  0  0  0  0  0  0  0  0  0  0
   12.4603   -0.8700    0.0000 H   0  0  0  0  0  0  0  0  0  0  0  0
    6.3981    0.6300    0.0000 H   0  0  0  0  0  0  0  0  0  0  0  0
   12.4603    2.3700    0.0000 H   0  0  0  0  0  0  0  0  0  0  0  0
   13.8632   -0.0600    0.0000 H   0  0  0  0  0  0  0  0  0  0  0  0
    4.9760    2.7869    0.0000 H   0  0  0  0  0  0  0  0  0  0  0  0
    4.1291    2.5600    0.0000 H   0  0  0  0  0  0  0  0  0  0  0  0
    4.3560    1.7131    0.0000 H   0  0  0  0  0  0  0  0  0  0  0  0
    6.5690    2.3060    0.0000 H   0  0  0  0  0  0  0  0  0  0  0  0
    6.3421    3.1530    0.0000 H   0  0  0  0  0  0  0  0  0  0  0  0
    5.4951    2.9260    0.0000 H   0  0  0  0  0  0  0  0  0  0  0  0
    4.4951    1.1940    0.0000 H   0  0  0  0  0  0  0  0  0  0  0  0
    4.7221    0.3470    0.0000 H   0  0  0  0  0  0  0  0  0  0  0  0
    5.5690    0.5740    0.0000 H   0  0  0  0  0  0  0  0  0  0  0  0
    9.8622   -2.1300    0.0000 H   0  0  0  0  0  0  0  0  0  0  0  0
    8.4592   -4.5600    0.0000 H   0  0  0  0  0  0  0  0  0  0  0  0
   13.8632    1.5600    0.0000 H   0  0  0  0  0  0  0  0  0  0  0  0
    8.6671    4.5600    0.0000 H   0  0  0  0  0  0  0  0  0  0  0  0
    5.8612    2.9400    0.0000 H   0  0  0  0  0  0  0  0  0  0  0  0
   11.2651   -2.9400    0.0000 H   0  0  0  0  0  0  0  0  0  0  0  0
    9.8622   -5.3700    0.0000 H   0  0  0  0  0  0  0  0  0  0  0  0
    7.2641    5.3700    0.0000 H   0  0  0  0  0  0  0  0  0  0  0  0
    5.8612    4.5600    0.0000 H   0  0  0  0  0  0  0  0  0  0  0  0
   11.2651   -4.5600    0.0000 H   0  0  0  0  0  0  0  0  0  0  0  0
    6.0690    0.0600    0.0000 H   0  0  0  0  0  0  0  0  0  0  0  0
    4.6660    0.8700    0.0000 H   0  0  0  0  0  0  0  0  0  0  0  0
    2.9132   -2.4046    0.0000 H   0  0  0  0  0  0  0  0  0  0  0  0
    2.9132    0.9046    0.0000 H   0  0  0  0  0  0  0  0  0  0  0  0
    1.4643   -1.5829    0.0000 H   0  0  0  0  0  0  0  0  0  0  0  0
    1.4643    0.0829    0.0000 H   0  0  0  0  0  0  0  0  0  0  0  0
  1 13  1  0  0  0  0
  1 22  1  0  0  0  0
 11  2  1  6  0  0  0
  2 60  1  0  0  0  0
  3 15  2  0  0  0  0
  4 29  2  0  0  0  0
  5 30  2  0  0  0  0
 10  6  1  6  0  0  0
  6 15  1  0  0  0  0
  6 54  1  0  0  0  0
 14  7  1  6  0  0  0
  7 29  1  0  0  0  0
  7 61  1  0  0  0  0
  8 18  1  0  0  0  0
  8 30  1  0  0  0  0
  8 64  1  0  0  0  0
  9 36  2  0  0  0  0
  9 43  1  0  0  0  0
 10 11  1  0  0  0  0
 10 12  1  0  0  0  0
 10 50  1  0  0  0  0
 11 13  1  0  0  0  0
 11 51  1  0  0  0  0
 12 16  1  0  0  0  0
 12 52  1  0  0  0  0
 12 53  1  0  0  0  0
 13 55  1  0  0  0  0
 13 56  1  0  0  0  0
 14 15  1  0  0  0  0
 14 17  1  0  0  0  0
 14 57  1  0  0  0  0
 16 19  2  0  0  0  0
 16 20  1  0  0  0  0
 17 21  1  0  0  0  0
 17 58  1  0  0  0  0
 17 59  1  0  0  0  0
 18 26  1  0  0  0  0
 18 27  1  0  0  0  0
 18 28  1  0  0  0  0
 19 24  1  0  0  0  0
 19 62  1  0  0  0  0
 20 25  2  0  0  0  0
 20 63  1  0  0  0  0
 21 31  2  0  0  0  0
 21 32  1  0  0  0  0
 22 23  1  0  0  0  0
 22 34  2  0  0  0  0
 23 30  1  0  0  0  0
 23 35  2  0  0  0  0
 24 33  2  0  0  0  0
 24 65  1  0  0  0  0
 25 33  1  0  0  0  0
 25 66  1  0  0  0  0
 26 67  1  0  0  0  0
 26 68  1  0  0  0  0
 26 69  1  0  0  0  0
 27 70  1  0  0  0  0
 27 71  1  0  0  0  0
 27 72  1  0  0  0  0
 28 73  1  0  0  0  0
 28 74  1  0  0  0  0
 28 75  1  0  0  0  0
 29 36  1  0  0  0  0
 31 37  1  0  0  0  0
 31 76  1  0  0  0  0
 32 38  2  0  0  0  0
 32 77  1  0  0  0  0
 33 78  1  0  0  0  0
 34 39  1  0  0  0  0
 34 79  1  0  0  0  0
 35 40  1  0  0  0  0
 35 80  1  0  0  0  0
 36 42  1  0  0  0  0
 37 41  2  0  0  0  0
 37 81  1  0  0  0  0
 38 41  1  0  0  0  0
 38 82  1  0  0  0  0
 39 40  2  0  0  0  0
 39 83  1  0  0  0  0
 40 84  1  0  0  0  0
 41 85  1  0  0  0  0
 42 45  2  0  0  0  0
 42 86  1  0  0  0  0
 43 44  1  0  0  0  0
 43 46  2  0  0  0  0
 44 45  1  0  0  0  0
 44 47  2  0  0  0  0
 45 87  1  0  0  0  0
 46 48  1  0  0  0  0
 46 88  1  0  0  0  0
 47 49  1  0  0  0  0
 47 89  1  0  0  0  0
 48 49  2  0  0  0  0
 48 90  1  0  0  0  0
 49 91  1  0  0  0  0
M  END
> <PUBCHEM_COMPOUND_CID>
503072
> <PUBCHEM_COMPOUND_CANONICALIZED>
1
> <PUBCHEM_CACTVS_COMPLEXITY>
1060
> <PUBCHEM_CACTVS_HBOND_ACCEPTOR>
6
> <PUBCHEM_CACTVS_HBOND_DONOR>
4
> <PUBCHEM_CACTVS_ROTATABLE_BOND>
14
> <PUBCHEM_CACTVS_SUBSKEYS>
AAADcfB/uABAAAAAAAAAAAAAAAAAAAAAAAA8YMGCAAAAAACx9AAAHgQQCAAADLzl3gaywfLIEgioAyVyVACCgCAnCjAImLm4ZNgKcPLglbGUYQhklgD4yYeYyKCOAAAAAAAGAAAAAAAAAAwAAAAAAAAAAA==
> <PUBCHEM_IUPAC_OPENEYE_NAME>
N-[(1S)-1-benzyl-2-[[(1S,2R)-1-benzyl-3-[2-(tert-butylcarbamoyl)phenyl]sulfanyl-2-hydroxy-propyl]amino]-2-oxo-ethyl]quinoline-2-carboxamide
> <PUBCHEM_IUPAC_CAS_NAME>
N-[(2S)-1-[[(2S,3R)-4-[[2-[(tert-butylamino)-oxomethyl]phenyl]thio]-3-hydroxy-1-phenylbutan-2-yl]amino]-1-oxo-3-phenylpropan-2-yl]-2-quinolinecarboxamide
> <PUBCHEM_IUPAC_NAME_MARKUP>
<I>N</I>-[(2<I>S</I>)-1-[[(2<I>S</I>,3<I>R</I>)-4-[2-(<I>tert</I>-butylcarbamoyl)phenyl]sulfanyl-3-hydroxy-1-phenylbutan-2-yl]amino]-1-oxo-3-phenylpropan-2-yl]quinoline-2-carboxamide
> <PUBCHEM_IUPAC_NAME>
N-[(2S)-1-[[(2S,3R)-4-[2-(tert-butylcarbamoyl)phenyl]sulfanyl-3-hydroxy-1-phenylbutan-2-yl]amino]-1-oxo-3-phenylpropan-2-yl]quinoline-2-carboxamide
> <PUBCHEM_IUPAC_SYSTEMATIC_NAME>
N-[(2S)-1-[[(2S,3R)-4-[2-(tert-butylcarbamoyl)phenyl]sulfanyl-3-oxidanyl-1-phenyl-butan-2-yl]amino]-1-oxidanylidene-3-phenyl-propan-2-yl]quinoline-2-carboxamide
> <PUBCHEM_IUPAC_TRADITIONAL_NAME>
N-[(1S)-1-benzyl-2-[[(1S,2R)-1-benzyl-3-[[2-(tert-butylcarbamoyl)phenyl]thio]-2-hydroxy-propyl]amino]-2-keto-ethyl]quinaldamide
> <PUBCHEM_IUPAC_INCHI>
InChI=1S/C40H42N4O4S/c1-40(2,3)44-37(46)30-19-11-13-21-36(30)49-26-35(45)33(24-27-14-6-4-7-15-27)42-39(48)34(25-28-16-8-5-9-17-28)43-38(47)32-23-22-29-18-10-12-20-31(29)41-32/h4-23,33-35,45H,24-26H2,1-3H3,(H,42,48)(H,43,47)(H,44,46)/t33-,34-,35-/m0/s1
> <PUBCHEM_IUPAC_INCHIKEY>
PMUPMYRDNJSYSB-IMKBVMFZSA-N
> <PUBCHEM_XLOGP3_AA>
7
> <PUBCHEM_EXACT_MASS>
674.29267701
> <PUBCHEM_MOLECULAR_FORMULA>
C40H42N4O4S
> <PUBCHEM_MOLECULAR_WEIGHT>
674.9
> <PUBCHEM_OPENEYE_CAN_SMILES>
CC(C)(C)NC(=O)C1=CC=CC=C1SCC(C(CC2=CC=CC=C2)NC(=O)C(CC3=CC=CC=C3)NC(=O)C4=NC5=CC=CC=C5C=C4)O
> <PUBCHEM_OPENEYE_ISO_SMILES>
CC(C)(C)NC(=O)C1=CC=CC=C1SC[C@@H]([C@H](CC2=CC=CC=C2)NC(=O)[C@H](CC3=CC=CC=C3)NC(=O)C4=NC5=CC=CC=C5C=C4)O
> <PUBCHEM_CACTVS_TPSA>
146
> <PUBCHEM_MONOISOTOPIC_WEIGHT>
674.29267701
> <PUBCHEM_TOTAL_CHARGE>
0
> <PUBCHEM_HEAVY_ATOM_COUNT>
49
> <PUBCHEM_ATOM_DEF_STEREO_COUNT>
3
> <PUBCHEM_ATOM_UDEF_STEREO_COUNT>
0
> <PUBCHEM_BOND_DEF_STEREO_COUNT>
0
> <PUBCHEM_BOND_UDEF_STEREO_COUNT>
0
> <PUBCHEM_ISOTOPIC_ATOM_COUNT>
0
> <PUBCHEM_COMPONENT_COUNT>
1
> <PUBCHEM_CACTVS_TAUTO_COUNT>
-1
> <PUBCHEM_COORDINATE_TYPE>
1
5
255
> <PUBCHEM_BONDANNOTATIONS>
16  19  8
16  20  8
19  24  8
11  2  6
20  25  8
21  31  8
21  32  8
22  23  8
22  34  8
23  35  8
24  33  8
25  33  8
31  37  8
32  38  8
34  39  8
35  40  8
36  42  8
37  41  8
38  41  8
39  40  8
42  45  8
43  44  8
43  46  8
44  45  8
44  47  8
46  48  8
47  49  8
48  49  8
10  6  6
14  7  6
9  36  8
9  43  8
$$$$
