503064
  -OEChem-10302200282D
 72 76  0     1  0  0  0  0  0999 V2000
    8.9962    2.3730    0.0000 S   0  0  0  0  0  0  0  0  0  0  0  0
   10.7282    1.3730    0.0000 O   0  0  0  0  0  0  0  0  0  0  0  0
    9.8622   -2.1270    0.0000 O   0  0  0  0  0  0  0  0  0  0  0  0
    9.8622   -3.1270    0.0000 O   0  0  0  0  0  0  0  0  0  0  0  0
    6.3981   -3.1270    0.0000 O   0  0  0  0  0  0  0  0  0  0  0  0
    8.9962   -0.6270    0.0000 N   0  0  0  0  0  0  0  0  0  0  0  0
    7.2641   -1.6270    0.0000 N   0  0  0  0  0  0  0  0  0  0  0  0
    8.0271    3.8618    0.0000 N   0  0  0  0  0  0  0  0  0  0  0  0
    7.2224    2.4679    0.0000 N   0  0  0  0  0  0  0  0  0  0  0  0
    8.9962   -4.6270    0.0000 N   0  0  0  0  0  0  0  0  0  0  0  0
    4.6660   -2.1270    0.0000 N   0  0  0  0  0  0  0  0  0  0  0  0
    9.8622   -0.1270    0.0000 C   0  0  2  0  0  0  0  0  0  0  0  0
    9.8622    0.8730    0.0000 C   0  0  2  0  0  0  0  0  0  0  0  0
   10.7282   -0.6270    0.0000 C   0  0  0  0  0  0  0  0  0  0  0  0
    8.9962    1.3730    0.0000 C   0  0  0  0  0  0  0  0  0  0  0  0
   11.5942   -0.1270    0.0000 C   0  0  0  0  0  0  0  0  0  0  0  0
    8.1301   -2.1270    0.0000 C   0  0  2  0  0  0  0  0  0  0  0  0
    8.9962   -1.6270    0.0000 C   0  0  0  0  0  0  0  0  0  0  0  0
    8.1301   -3.1270    0.0000 C   0  0  0  0  0  0  0  0  0  0  0  0
   12.4603   -0.6270    0.0000 C   0  0  0  0  0  0  0  0  0  0  0  0
   11.5942    0.8730    0.0000 C   0  0  0  0  0  0  0  0  0  0  0  0
    8.1301    2.8730    0.0000 C   0  0  0  0  0  0  0  0  0  0  0  0
   13.3263   -0.1270    0.0000 C   0  0  0  0  0  0  0  0  0  0  0  0
   12.4603    1.3730    0.0000 C   0  0  0  0  0  0  0  0  0  0  0  0
    8.9962   -3.6270    0.0000 C   0  0  0  0  0  0  0  0  0  0  0  0
    6.3981   -2.1270    0.0000 C   0  0  0  0  0  0  0  0  0  0  0  0
   13.3263    0.8730    0.0000 C   0  0  0  0  0  0  0  0  0  0  0  0
    7.0553    4.0710    0.0000 C   0  0  0  0  0  0  0  0  0  0  0  0
    6.5553    3.2049    0.0000 C   0  0  0  0  0  0  0  0  0  0  0  0
    5.5321   -1.6270    0.0000 C   0  0  0  0  0  0  0  0  0  0  0  0
    6.5553    4.9370    0.0000 C   0  0  0  0  0  0  0  0  0  0  0  0
    5.5321   -0.6270    0.0000 C   0  0  0  0  0  0  0  0  0  0  0  0
    5.5553    3.2049    0.0000 C   0  0  0  0  0  0  0  0  0  0  0  0
    3.8000   -1.6270    0.0000 C   0  0  0  0  0  0  0  0  0  0  0  0
    3.8000   -0.6270    0.0000 C   0  0  0  0  0  0  0  0  0  0  0  0
    4.6660   -0.1270    0.0000 C   0  0  0  0  0  0  0  0  0  0  0  0
    5.5553    4.9370    0.0000 C   0  0  0  0  0  0  0  0  0  0  0  0
    5.0553    4.0710    0.0000 C   0  0  0  0  0  0  0  0  0  0  0  0
    2.9061   -2.1616    0.0000 C   0  0  0  0  0  0  0  0  0  0  0  0
    2.9061   -0.0923    0.0000 C   0  0  0  0  0  0  0  0  0  0  0  0
    2.0000   -1.6478    0.0000 C   0  0  0  0  0  0  0  0  0  0  0  0
    2.0000   -0.6062    0.0000 C   0  0  0  0  0  0  0  0  0  0  0  0
    9.3252    0.1830    0.0000 H   0  0  0  0  0  0  0  0  0  0  0  0
    9.8622    1.4930    0.0000 H   0  0  0  0  0  0  0  0  0  0  0  0
   10.3297   -1.1019    0.0000 H   0  0  0  0  0  0  0  0  0  0  0  0
   11.1267   -1.1019    0.0000 H   0  0  0  0  0  0  0  0  0  0  0  0
    8.4592   -0.3170    0.0000 H   0  0  0  0  0  0  0  0  0  0  0  0
    8.3856    1.4807    0.0000 H   0  0  0  0  0  0  0  0  0  0  0  0
    8.7841    0.7904    0.0000 H   0  0  0  0  0  0  0  0  0  0  0  0
    7.5932   -2.4370    0.0000 H   0  0  0  0  0  0  0  0  0  0  0  0
    7.5196   -3.0193    0.0000 H   0  0  0  0  0  0  0  0  0  0  0  0
    7.9181   -3.7096    0.0000 H   0  0  0  0  0  0  0  0  0  0  0  0
   10.7282    1.9930    0.0000 H   0  0  0  0  0  0  0  0  0  0  0  0
   12.4603   -1.2470    0.0000 H   0  0  0  0  0  0  0  0  0  0  0  0
   11.0573    1.1830    0.0000 H   0  0  0  0  0  0  0  0  0  0  0  0
    7.2641   -1.0070    0.0000 H   0  0  0  0  0  0  0  0  0  0  0  0
   13.8632   -0.4370    0.0000 H   0  0  0  0  0  0  0  0  0  0  0  0
   12.4603    1.9930    0.0000 H   0  0  0  0  0  0  0  0  0  0  0  0
   13.8632    1.1830    0.0000 H   0  0  0  0  0  0  0  0  0  0  0  0
    8.4886    4.2758    0.0000 H   0  0  0  0  0  0  0  0  0  0  0  0
    9.5331   -4.9370    0.0000 H   0  0  0  0  0  0  0  0  0  0  0  0
    8.4592   -4.9370    0.0000 H   0  0  0  0  0  0  0  0  0  0  0  0
    6.8653    5.4739    0.0000 H   0  0  0  0  0  0  0  0  0  0  0  0
    6.0690   -0.3170    0.0000 H   0  0  0  0  0  0  0  0  0  0  0  0
    5.2453    2.6680    0.0000 H   0  0  0  0  0  0  0  0  0  0  0  0
    4.6660    0.4930    0.0000 H   0  0  0  0  0  0  0  0  0  0  0  0
    5.2453    5.4739    0.0000 H   0  0  0  0  0  0  0  0  0  0  0  0
    4.4353    4.0710    0.0000 H   0  0  0  0  0  0  0  0  0  0  0  0
    2.9132   -2.7816    0.0000 H   0  0  0  0  0  0  0  0  0  0  0  0
    2.9132    0.5276    0.0000 H   0  0  0  0  0  0  0  0  0  0  0  0
    1.4643   -1.9599    0.0000 H   0  0  0  0  0  0  0  0  0  0  0  0
    1.4643   -0.2941    0.0000 H   0  0  0  0  0  0  0  0  0  0  0  0
  1 15  1  0  0  0  0
  1 22  1  0  0  0  0
 13  2  1  6  0  0  0
  2 53  1  0  0  0  0
  3 18  2  0  0  0  0
  4 25  2  0  0  0  0
  5 26  2  0  0  0  0
 12  6  1  6  0  0  0
  6 18  1  0  0  0  0
  6 47  1  0  0  0  0
 17  7  1  6  0  0  0
  7 26  1  0  0  0  0
  7 56  1  0  0  0  0
  8 22  1  0  0  0  0
  8 28  1  0  0  0  0
  8 60  1  0  0  0  0
  9 22  2  0  0  0  0
  9 29  1  0  0  0  0
 10 25  1  0  0  0  0
 10 61  1  0  0  0  0
 10 62  1  0  0  0  0
 11 30  2  0  0  0  0
 11 34  1  0  0  0  0
 12 13  1  0  0  0  0
 12 14  1  0  0  0  0
 12 43  1  0  0  0  0
 13 15  1  0  0  0  0
 13 44  1  0  0  0  0
 14 16  1  0  0  0  0
 14 45  1  0  0  0  0
 14 46  1  0  0  0  0
 15 48  1  0  0  0  0
 15 49  1  0  0  0  0
 16 20  2  0  0  0  0
 16 21  1  0  0  0  0
 17 18  1  0  0  0  0
 17 19  1  0  0  0  0
 17 50  1  0  0  0  0
 19 25  1  0  0  0  0
 19 51  1  0  0  0  0
 19 52  1  0  0  0  0
 20 23  1  0  0  0  0
 20 54  1  0  0  0  0
 21 24  2  0  0  0  0
 21 55  1  0  0  0  0
 23 27  2  0  0  0  0
 23 57  1  0  0  0  0
 24 27  1  0  0  0  0
 24 58  1  0  0  0  0
 26 30  1  0  0  0  0
 27 59  1  0  0  0  0
 28 29  1  0  0  0  0
 28 31  2  0  0  0  0
 29 33  2  0  0  0  0
 30 32  1  0  0  0  0
 31 37  1  0  0  0  0
 31 63  1  0  0  0  0
 32 36  2  0  0  0  0
 32 64  1  0  0  0  0
 33 38  1  0  0  0  0
 33 65  1  0  0  0  0
 34 35  1  0  0  0  0
 34 39  2  0  0  0  0
 35 36  1  0  0  0  0
 35 40  2  0  0  0  0
 36 66  1  0  0  0  0
 37 38  2  0  0  0  0
 37 67  1  0  0  0  0
 38 68  1  0  0  0  0
 39 41  1  0  0  0  0
 39 69  1  0  0  0  0
 40 42  1  0  0  0  0
 40 70  1  0  0  0  0
 41 42  2  0  0  0  0
 41 71  1  0  0  0  0
 42 72  1  0  0  0  0
M  END
> <PUBCHEM_COMPOUND_CID>
503064
> <PUBCHEM_COMPOUND_CANONICALIZED>
1
> <PUBCHEM_CACTVS_COMPLEXITY>
920
> <PUBCHEM_CACTVS_HBOND_ACCEPTOR>
7
> <PUBCHEM_CACTVS_HBOND_DONOR>
5
> <PUBCHEM_CACTVS_ROTATABLE_BOND>
12
> <PUBCHEM_CACTVS_SUBSKEYS>
AAADceB7uABAAAAAAAAAAAAAAAAAAWAAAAA8YMEAAAAAAFix/gAAHgQQCAAADDzl3gax0PbJkgioAyVydACC0i3nErAJmaG4dNiKePrg3bGUYQhslgLYyaedyKCOAAAAAAACACAAAAAAAAQAQAAAAAAAAA==
> <PUBCHEM_IUPAC_OPENEYE_NAME>
(2S)-N-[(1S,2R)-3-(1H-benzimidazol-2-ylsulfanyl)-1-benzyl-2-hydroxy-propyl]-2-(quinoline-2-carbonylamino)butanediamide
> <PUBCHEM_IUPAC_CAS_NAME>
(2S)-N-[(2S,3R)-4-(1H-benzimidazol-2-ylthio)-3-hydroxy-1-phenylbutan-2-yl]-2-[[oxo(2-quinolinyl)methyl]amino]butanediamide
> <PUBCHEM_IUPAC_NAME_MARKUP>
(2<I>S</I>)-<I>N</I>-[(2<I>S</I>,3<I>R</I>)-4-(1<I>H</I>-benzimidazol-2-ylsulfanyl)-3-hydroxy-1-phenylbutan-2-yl]-2-(quinoline-2-carbonylamino)butanediamide
> <PUBCHEM_IUPAC_NAME>
(2S)-N-[(2S,3R)-4-(1H-benzimidazol-2-ylsulfanyl)-3-hydroxy-1-phenylbutan-2-yl]-2-(quinoline-2-carbonylamino)butanediamide
> <PUBCHEM_IUPAC_SYSTEMATIC_NAME>
(2S)-N-[(2S,3R)-4-(1H-benzimidazol-2-ylsulfanyl)-3-oxidanyl-1-phenyl-butan-2-yl]-2-(quinolin-2-ylcarbonylamino)butanediamide
> <PUBCHEM_IUPAC_TRADITIONAL_NAME>
(2S)-N-[(1S,2R)-3-(1H-benzimidazol-2-ylthio)-1-benzyl-2-hydroxy-propyl]-2-(quinaldoylamino)succinamide
> <PUBCHEM_IUPAC_INCHI>
InChI=1S/C31H30N6O4S/c32-28(39)17-26(35-29(40)24-15-14-20-10-4-5-11-21(20)33-24)30(41)34-25(16-19-8-2-1-3-9-19)27(38)18-42-31-36-22-12-6-7-13-23(22)37-31/h1-15,25-27,38H,16-18H2,(H2,32,39)(H,34,41)(H,35,40)(H,36,37)/t25-,26-,27-/m0/s1
> <PUBCHEM_IUPAC_INCHIKEY>
AYCJVHRKSLBAFP-QKDODKLFSA-N
> <PUBCHEM_XLOGP3_AA>
3.5
> <PUBCHEM_EXACT_MASS>
582.20492463
> <PUBCHEM_MOLECULAR_FORMULA>
C31H30N6O4S
> <PUBCHEM_MOLECULAR_WEIGHT>
582.7
> <PUBCHEM_OPENEYE_CAN_SMILES>
C1=CC=C(C=C1)CC(C(CSC2=NC3=CC=CC=C3N2)O)NC(=O)C(CC(=O)N)NC(=O)C4=NC5=CC=CC=C5C=C4
> <PUBCHEM_OPENEYE_ISO_SMILES>
C1=CC=C(C=C1)C[C@@H]([C@H](CSC2=NC3=CC=CC=C3N2)O)NC(=O)[C@H](CC(=O)N)NC(=O)C4=NC5=CC=CC=C5C=C4
> <PUBCHEM_CACTVS_TPSA>
188
> <PUBCHEM_MONOISOTOPIC_WEIGHT>
582.20492463
> <PUBCHEM_TOTAL_CHARGE>
0
> <PUBCHEM_HEAVY_ATOM_COUNT>
42
> <PUBCHEM_ATOM_DEF_STEREO_COUNT>
3
> <PUBCHEM_ATOM_UDEF_STEREO_COUNT>
0
> <PUBCHEM_BOND_DEF_STEREO_COUNT>
0
> <PUBCHEM_BOND_UDEF_STEREO_COUNT>
0
> <PUBCHEM_ISOTOPIC_ATOM_COUNT>
0
> <PUBCHEM_COMPONENT_COUNT>
1
> <PUBCHEM_CACTVS_TAUTO_COUNT>
-1
> <PUBCHEM_COORDINATE_TYPE>
1
5
255
> <PUBCHEM_BONDANNOTATIONS>
11  30  8
11  34  8
16  20  8
16  21  8
13  2  6
20  23  8
21  24  8
23  27  8
24  27  8
28  29  8
28  31  8
29  33  8
30  32  8
31  37  8
32  36  8
33  38  8
34  35  8
34  39  8
35  36  8
35  40  8
37  38  8
39  41  8
40  42  8
41  42  8
12  6  6
17  7  6
8  22  8
8  28  8
9  22  8
9  29  8
$$$$
