503091
  -OEChem-10302200282D
 80 82  0     1  0  0  0  0  0999 V2000
    8.5991    2.0600    0.0000 S   0  0  0  0  0  0  0  0  0  0  0  0
    6.8671    3.0600    0.0000 O   0  0  0  0  0  0  0  0  0  0  0  0
    4.2690    0.5600    0.0000 O   0  0  0  0  0  0  0  0  0  0  0  0
    9.4651    3.5600    0.0000 O   0  0  0  0  0  0  0  0  0  0  0  0
    3.4030    0.0600    0.0000 O   0  0  0  0  0  0  0  0  0  0  0  0
    5.1350   -2.9400    0.0000 O   0  0  0  0  0  0  0  0  0  0  0  0
    6.0010   -4.4400    0.0000 O   0  0  0  0  0  0  0  0  0  0  0  0
    6.0010    0.5600    0.0000 N   0  0  0  0  0  0  0  0  0  0  0  0
    6.0010   -1.4400    0.0000 N   0  0  0  0  0  0  0  0  0  0  0  0
   11.1972    3.5600    0.0000 N   0  0  0  0  0  0  0  0  0  0  0  0
    2.5369   -1.4400    0.0000 N   0  0  0  0  0  0  0  0  0  0  0  0
    7.7331   -4.4400    0.0000 N   0  0  0  0  0  0  0  0  0  0  0  0
    6.0010    1.5600    0.0000 C   0  0  2  0  0  0  0  0  0  0  0  0
    6.8671    2.0600    0.0000 C   0  0  2  0  0  0  0  0  0  0  0  0
    5.1350    2.0600    0.0000 C   0  0  0  0  0  0  0  0  0  0  0  0
    7.7331    1.5600    0.0000 C   0  0  0  0  0  0  0  0  0  0  0  0
    5.1350    3.0600    0.0000 C   0  0  0  0  0  0  0  0  0  0  0  0
    5.1350   -0.9400    0.0000 C   0  0  2  0  0  0  0  0  0  0  0  0
    5.1350    0.0600    0.0000 C   0  0  0  0  0  0  0  0  0  0  0  0
   12.0632    3.0600    0.0000 C   0  0  0  0  0  0  0  0  0  0  0  0
    4.2690   -1.4400    0.0000 C   0  0  0  0  0  0  0  0  0  0  0  0
    6.0010    3.5600    0.0000 C   0  0  0  0  0  0  0  0  0  0  0  0
    4.2690    3.5600    0.0000 C   0  0  0  0  0  0  0  0  0  0  0  0
    9.4651    1.5600    0.0000 C   0  0  0  0  0  0  0  0  0  0  0  0
   10.3312    2.0600    0.0000 C   0  0  0  0  0  0  0  0  0  0  0  0
   12.9292    2.5600    0.0000 C   0  0  0  0  0  0  0  0  0  0  0  0
   11.5632    2.1940    0.0000 C   0  0  0  0  0  0  0  0  0  0  0  0
   12.5632    3.9260    0.0000 C   0  0  0  0  0  0  0  0  0  0  0  0
   10.3312    3.0600    0.0000 C   0  0  0  0  0  0  0  0  0  0  0  0
    6.0010    4.5600    0.0000 C   0  0  0  0  0  0  0  0  0  0  0  0
    4.2690    4.5600    0.0000 C   0  0  0  0  0  0  0  0  0  0  0  0
    3.4030   -0.9400    0.0000 C   0  0  0  0  0  0  0  0  0  0  0  0
    5.1350    5.0600    0.0000 C   0  0  0  0  0  0  0  0  0  0  0  0
    9.4651    0.5600    0.0000 C   0  0  0  0  0  0  0  0  0  0  0  0
    6.0010   -2.4400    0.0000 C   0  0  0  0  0  0  0  0  0  0  0  0
   11.1972    1.5600    0.0000 C   0  0  0  0  0  0  0  0  0  0  0  0
   10.3312    0.0600    0.0000 C   0  0  0  0  0  0  0  0  0  0  0  0
   11.1972    0.5600    0.0000 C   0  0  0  0  0  0  0  0  0  0  0  0
    6.8671   -2.9400    0.0000 C   0  0  0  0  0  0  0  0  0  0  0  0
    6.8671   -3.9400    0.0000 C   0  0  0  0  0  0  0  0  0  0  0  0
    7.7331   -2.4400    0.0000 C   0  0  0  0  0  0  0  0  0  0  0  0
    8.5991   -2.9400    0.0000 C   0  0  0  0  0  0  0  0  0  0  0  0
    8.5991   -3.9400    0.0000 C   0  0  0  0  0  0  0  0  0  0  0  0
    6.5380    1.2500    0.0000 H   0  0  0  0  0  0  0  0  0  0  0  0
    6.3301    2.3700    0.0000 H   0  0  0  0  0  0  0  0  0  0  0  0
    4.5244    2.1677    0.0000 H   0  0  0  0  0  0  0  0  0  0  0  0
    4.9230    1.4774    0.0000 H   0  0  0  0  0  0  0  0  0  0  0  0
    6.5380    0.2500    0.0000 H   0  0  0  0  0  0  0  0  0  0  0  0
    7.3346    1.0850    0.0000 H   0  0  0  0  0  0  0  0  0  0  0  0
    8.1316    1.0850    0.0000 H   0  0  0  0  0  0  0  0  0  0  0  0
    5.6720   -0.6300    0.0000 H   0  0  0  0  0  0  0  0  0  0  0  0
    3.8705   -1.9150    0.0000 H   0  0  0  0  0  0  0  0  0  0  0  0
    4.6675   -1.9150    0.0000 H   0  0  0  0  0  0  0  0  0  0  0  0
    7.4040    3.3700    0.0000 H   0  0  0  0  0  0  0  0  0  0  0  0
    6.5380    3.2500    0.0000 H   0  0  0  0  0  0  0  0  0  0  0  0
    3.7320    3.2500    0.0000 H   0  0  0  0  0  0  0  0  0  0  0  0
    6.5380   -1.1300    0.0000 H   0  0  0  0  0  0  0  0  0  0  0  0
   11.1972    4.1800    0.0000 H   0  0  0  0  0  0  0  0  0  0  0  0
   12.6192    2.0231    0.0000 H   0  0  0  0  0  0  0  0  0  0  0  0
   13.4662    2.2500    0.0000 H   0  0  0  0  0  0  0  0  0  0  0  0
   13.2392    3.0969    0.0000 H   0  0  0  0  0  0  0  0  0  0  0  0
   11.0263    2.5040    0.0000 H   0  0  0  0  0  0  0  0  0  0  0  0
   11.2532    1.6570    0.0000 H   0  0  0  0  0  0  0  0  0  0  0  0
   12.1002    1.8840    0.0000 H   0  0  0  0  0  0  0  0  0  0  0  0
   13.1002    3.6160    0.0000 H   0  0  0  0  0  0  0  0  0  0  0  0
   12.8732    4.4630    0.0000 H   0  0  0  0  0  0  0  0  0  0  0  0
   12.0263    4.2360    0.0000 H   0  0  0  0  0  0  0  0  0  0  0  0
    6.5380    4.8700    0.0000 H   0  0  0  0  0  0  0  0  0  0  0  0
    3.7320    4.8700    0.0000 H   0  0  0  0  0  0  0  0  0  0  0  0
    5.1350    5.6800    0.0000 H   0  0  0  0  0  0  0  0  0  0  0  0
    8.9282    0.2500    0.0000 H   0  0  0  0  0  0  0  0  0  0  0  0
   11.7341    1.8700    0.0000 H   0  0  0  0  0  0  0  0  0  0  0  0
   10.3312   -0.5600    0.0000 H   0  0  0  0  0  0  0  0  0  0  0  0
   11.7341    0.2500    0.0000 H   0  0  0  0  0  0  0  0  0  0  0  0
    2.0000   -1.1300    0.0000 H   0  0  0  0  0  0  0  0  0  0  0  0
    2.5369   -2.0600    0.0000 H   0  0  0  0  0  0  0  0  0  0  0  0
    7.7331   -1.8200    0.0000 H   0  0  0  0  0  0  0  0  0  0  0  0
    7.7331   -5.0600    0.0000 H   0  0  0  0  0  0  0  0  0  0  0  0
    9.1360   -2.6300    0.0000 H   0  0  0  0  0  0  0  0  0  0  0  0
    9.1360   -4.2500    0.0000 H   0  0  0  0  0  0  0  0  0  0  0  0
  1 16  1  0  0  0  0
  1 24  1  0  0  0  0
 14  2  1  1  0  0  0
  2 54  1  0  0  0  0
  3 19  2  0  0  0  0
  4 29  2  0  0  0  0
  5 32  2  0  0  0  0
  6 35  2  0  0  0  0
  7 40  2  0  0  0  0
 13  8  1  1  0  0  0
  8 19  1  0  0  0  0
  8 48  1  0  0  0  0
 18  9  1  1  0  0  0
  9 35  1  0  0  0  0
  9 57  1  0  0  0  0
 10 20  1  0  0  0  0
 10 29  1  0  0  0  0
 10 58  1  0  0  0  0
 11 32  1  0  0  0  0
 11 75  1  0  0  0  0
 11 76  1  0  0  0  0
 12 40  1  0  0  0  0
 12 43  1  0  0  0  0
 12 78  1  0  0  0  0
 13 14  1  0  0  0  0
 13 15  1  0  0  0  0
 13 44  1  0  0  0  0
 14 16  1  0  0  0  0
 14 45  1  0  0  0  0
 15 17  1  0  0  0  0
 15 46  1  0  0  0  0
 15 47  1  0  0  0  0
 16 49  1  0  0  0  0
 16 50  1  0  0  0  0
 17 22  2  0  0  0  0
 17 23  1  0  0  0  0
 18 19  1  0  0  0  0
 18 21  1  0  0  0  0
 18 51  1  0  0  0  0
 20 26  1  0  0  0  0
 20 27  1  0  0  0  0
 20 28  1  0  0  0  0
 21 32  1  0  0  0  0
 21 52  1  0  0  0  0
 21 53  1  0  0  0  0
 22 30  1  0  0  0  0
 22 55  1  0  0  0  0
 23 31  2  0  0  0  0
 23 56  1  0  0  0  0
 24 25  1  0  0  0  0
 24 34  2  0  0  0  0
 25 29  1  0  0  0  0
 25 36  2  0  0  0  0
 26 59  1  0  0  0  0
 26 60  1  0  0  0  0
 26 61  1  0  0  0  0
 27 62  1  0  0  0  0
 27 63  1  0  0  0  0
 27 64  1  0  0  0  0
 28 65  1  0  0  0  0
 28 66  1  0  0  0  0
 28 67  1  0  0  0  0
 30 33  2  0  0  0  0
 30 68  1  0  0  0  0
 31 33  1  0  0  0  0
 31 69  1  0  0  0  0
 33 70  1  0  0  0  0
 34 37  1  0  0  0  0
 34 71  1  0  0  0  0
 35 39  1  0  0  0  0
 36 38  1  0  0  0  0
 36 72  1  0  0  0  0
 37 38  2  0  0  0  0
 37 73  1  0  0  0  0
 38 74  1  0  0  0  0
 39 40  1  0  0  0  0
 39 41  2  0  0  0  0
 41 42  1  0  0  0  0
 41 77  1  0  0  0  0
 42 43  2  0  0  0  0
 42 79  1  0  0  0  0
 43 80  1  0  0  0  0
M  END
> <PUBCHEM_COMPOUND_CID>
503091
> <PUBCHEM_COMPOUND_CANONICALIZED>
1
> <PUBCHEM_CACTVS_COMPLEXITY>
1080
> <PUBCHEM_CACTVS_HBOND_ACCEPTOR>
7
> <PUBCHEM_CACTVS_HBOND_DONOR>
6
> <PUBCHEM_CACTVS_ROTATABLE_BOND>
14
> <PUBCHEM_CACTVS_SUBSKEYS>
AAADcfB7uABAAAAAAAAAAAAAAAAAAAAAAAAwYIAAAAAAAAABQAAAHgQQCAAADLzl2AayAYLAAgiIAiFWUACCAAAkChAIiJmIBMgKcDqo1TGUYQhklgC4iYedyKCOAAAAAAAEAAAAAAAAAAgAAAAAAAAAAA==
> <PUBCHEM_IUPAC_OPENEYE_NAME>
(2S)-N-[(1S,2R)-1-benzyl-3-[2-(tert-butylcarbamoyl)phenyl]sulfanyl-2-hydroxy-propyl]-2-[(2-oxo-1H-pyridine-3-carbonyl)amino]butanediamide
> <PUBCHEM_IUPAC_CAS_NAME>
(2S)-N-[(2S,3R)-4-[[2-[(tert-butylamino)-oxomethyl]phenyl]thio]-3-hydroxy-1-phenylbutan-2-yl]-2-[[oxo-(2-oxo-1H-pyridin-3-yl)methyl]amino]butanediamide
> <PUBCHEM_IUPAC_NAME_MARKUP>
(2<I>S</I>)-<I>N</I>-[(2<I>S</I>,3<I>R</I>)-4-[2-(<I>tert</I>-butylcarbamoyl)phenyl]sulfanyl-3-hydroxy-1-phenylbutan-2-yl]-2-[(2-oxo-1<I>H</I>-pyridine-3-carbonyl)amino]butanediamide
> <PUBCHEM_IUPAC_NAME>
(2S)-N-[(2S,3R)-4-[2-(tert-butylcarbamoyl)phenyl]sulfanyl-3-hydroxy-1-phenylbutan-2-yl]-2-[(2-oxo-1H-pyridine-3-carbonyl)amino]butanediamide
> <PUBCHEM_IUPAC_SYSTEMATIC_NAME>
(2S)-N-[(2S,3R)-4-[2-(tert-butylcarbamoyl)phenyl]sulfanyl-3-oxidanyl-1-phenyl-butan-2-yl]-2-[(2-oxidanylidene-1H-pyridin-3-yl)carbonylamino]butanediamide
> <PUBCHEM_IUPAC_TRADITIONAL_NAME>
(2S)-N-[(1S,2R)-1-benzyl-3-[[2-(tert-butylcarbamoyl)phenyl]thio]-2-hydroxy-propyl]-2-[(2-keto-1H-pyridine-3-carbonyl)amino]succinamide
> <PUBCHEM_IUPAC_INCHI>
InChI=1S/C31H37N5O6S/c1-31(2,3)36-29(41)20-12-7-8-14-25(20)43-18-24(37)22(16-19-10-5-4-6-11-19)34-30(42)23(17-26(32)38)35-28(40)21-13-9-15-33-27(21)39/h4-15,22-24,37H,16-18H2,1-3H3,(H2,32,38)(H,33,39)(H,34,42)(H,35,40)(H,36,41)/t22-,23-,24-/m0/s1
> <PUBCHEM_IUPAC_INCHIKEY>
UDGKFIYYUPLIAK-HJOGWXRNSA-N
> <PUBCHEM_XLOGP3_AA>
2.3
> <PUBCHEM_EXACT_MASS>
607.24645509
> <PUBCHEM_MOLECULAR_FORMULA>
C31H37N5O6S
> <PUBCHEM_MOLECULAR_WEIGHT>
607.7
> <PUBCHEM_OPENEYE_CAN_SMILES>
CC(C)(C)NC(=O)C1=CC=CC=C1SCC(C(CC2=CC=CC=C2)NC(=O)C(CC(=O)N)NC(=O)C3=CC=CNC3=O)O
> <PUBCHEM_OPENEYE_ISO_SMILES>
CC(C)(C)NC(=O)C1=CC=CC=C1SC[C@@H]([C@H](CC2=CC=CC=C2)NC(=O)[C@H](CC(=O)N)NC(=O)C3=CC=CNC3=O)O
> <PUBCHEM_CACTVS_TPSA>
205
> <PUBCHEM_MONOISOTOPIC_WEIGHT>
607.24645509
> <PUBCHEM_TOTAL_CHARGE>
0
> <PUBCHEM_HEAVY_ATOM_COUNT>
43
> <PUBCHEM_ATOM_DEF_STEREO_COUNT>
3
> <PUBCHEM_ATOM_UDEF_STEREO_COUNT>
0
> <PUBCHEM_BOND_DEF_STEREO_COUNT>
0
> <PUBCHEM_BOND_UDEF_STEREO_COUNT>
0
> <PUBCHEM_ISOTOPIC_ATOM_COUNT>
0
> <PUBCHEM_COMPONENT_COUNT>
1
> <PUBCHEM_CACTVS_TAUTO_COUNT>
-1
> <PUBCHEM_COORDINATE_TYPE>
1
5
255
> <PUBCHEM_BONDANNOTATIONS>
12  40  8
12  43  8
17  22  8
17  23  8
14  2  5
22  30  8
23  31  8
24  25  8
24  34  8
25  36  8
30  33  8
31  33  8
34  37  8
36  38  8
37  38  8
39  40  8
39  41  8
41  42  8
42  43  8
13  8  5
18  9  5
$$$$
