503081
  -OEChem-10302200282D
 95 99  0     1  0  0  0  0  0999 V2000
    8.9962    2.0670    0.0000 S   0  0  0  0  0  0  0  0  0  0  0  0
   10.7282    1.0670    0.0000 O   0  0  0  0  0  0  0  0  0  0  0  0
    9.8622   -2.4330    0.0000 O   0  0  0  0  0  0  0  0  0  0  0  0
    6.3981   -3.4330    0.0000 O   0  0  0  0  0  0  0  0  0  0  0  0
    9.8622    3.5670    0.0000 O   0  0  0  0  0  0  0  0  0  0  0  0
   11.5942   -5.4330    0.0000 O   0  0  0  0  0  0  0  0  0  0  0  0
    8.9962   -0.9330    0.0000 N   0  0  0  0  0  0  0  0  0  0  0  0
    7.2641   -1.9330    0.0000 N   0  0  0  0  0  0  0  0  0  0  0  0
    8.9962    5.0670    0.0000 N   0  0  0  0  0  0  0  0  0  0  0  0
    4.6660   -2.4330    0.0000 N   0  0  0  0  0  0  0  0  0  0  0  0
    9.8622   -0.4330    0.0000 C   0  0  2  0  0  0  0  0  0  0  0  0
    9.8622    0.5670    0.0000 C   0  0  2  0  0  0  0  0  0  0  0  0
   10.7282   -0.9330    0.0000 C   0  0  0  0  0  0  0  0  0  0  0  0
    8.9962    1.0670    0.0000 C   0  0  0  0  0  0  0  0  0  0  0  0
    8.1301   -2.4330    0.0000 C   0  0  2  0  0  0  0  0  0  0  0  0
    8.9962   -1.9330    0.0000 C   0  0  0  0  0  0  0  0  0  0  0  0
   11.5942   -0.4330    0.0000 C   0  0  0  0  0  0  0  0  0  0  0  0
    8.1301   -3.4330    0.0000 C   0  0  0  0  0  0  0  0  0  0  0  0
    8.9962   -3.9330    0.0000 C   0  0  0  0  0  0  0  0  0  0  0  0
   11.5942    0.5670    0.0000 C   0  0  0  0  0  0  0  0  0  0  0  0
   12.4603   -0.9330    0.0000 C   0  0  0  0  0  0  0  0  0  0  0  0
    9.8622    5.5670    0.0000 C   0  0  0  0  0  0  0  0  0  0  0  0
    8.1301    2.5670    0.0000 C   0  0  0  0  0  0  0  0  0  0  0  0
    8.1301    3.5670    0.0000 C   0  0  0  0  0  0  0  0  0  0  0  0
   12.4603    1.0670    0.0000 C   0  0  0  0  0  0  0  0  0  0  0  0
   13.3263   -0.4330    0.0000 C   0  0  0  0  0  0  0  0  0  0  0  0
    6.3981   -2.4330    0.0000 C   0  0  0  0  0  0  0  0  0  0  0  0
   10.7282    6.0670    0.0000 C   0  0  0  0  0  0  0  0  0  0  0  0
    9.3622    6.4330    0.0000 C   0  0  0  0  0  0  0  0  0  0  0  0
   10.3622    4.7010    0.0000 C   0  0  0  0  0  0  0  0  0  0  0  0
    8.9962   -4.9330    0.0000 C   0  0  0  0  0  0  0  0  0  0  0  0
    9.8622   -3.4330    0.0000 C   0  0  0  0  0  0  0  0  0  0  0  0
    8.9962    4.0670    0.0000 C   0  0  0  0  0  0  0  0  0  0  0  0
   13.3263    0.5670    0.0000 C   0  0  0  0  0  0  0  0  0  0  0  0
    7.2641    2.0670    0.0000 C   0  0  0  0  0  0  0  0  0  0  0  0
    7.2641    4.0670    0.0000 C   0  0  0  0  0  0  0  0  0  0  0  0
    5.5321   -1.9330    0.0000 C   0  0  0  0  0  0  0  0  0  0  0  0
    9.8622   -5.4330    0.0000 C   0  0  0  0  0  0  0  0  0  0  0  0
   10.7282   -3.9330    0.0000 C   0  0  0  0  0  0  0  0  0  0  0  0
   10.7282   -4.9330    0.0000 C   0  0  0  0  0  0  0  0  0  0  0  0
    6.3981    2.5670    0.0000 C   0  0  0  0  0  0  0  0  0  0  0  0
    6.3981    3.5670    0.0000 C   0  0  0  0  0  0  0  0  0  0  0  0
    5.5321   -0.9330    0.0000 C   0  0  0  0  0  0  0  0  0  0  0  0
    3.8000   -1.9330    0.0000 C   0  0  0  0  0  0  0  0  0  0  0  0
    3.8000   -0.9330    0.0000 C   0  0  0  0  0  0  0  0  0  0  0  0
    4.6660   -0.4330    0.0000 C   0  0  0  0  0  0  0  0  0  0  0  0
    2.9061   -2.4677    0.0000 C   0  0  0  0  0  0  0  0  0  0  0  0
    2.9061   -0.3984    0.0000 C   0  0  0  0  0  0  0  0  0  0  0  0
   11.5942   -6.4330    0.0000 C   0  0  0  0  0  0  0  0  0  0  0  0
    2.0000   -1.9538    0.0000 C   0  0  0  0  0  0  0  0  0  0  0  0
    2.0000   -0.9122    0.0000 C   0  0  0  0  0  0  0  0  0  0  0  0
    9.3252   -0.1230    0.0000 H   0  0  0  0  0  0  0  0  0  0  0  0
    9.8622    1.1870    0.0000 H   0  0  0  0  0  0  0  0  0  0  0  0
   10.3297   -1.4080    0.0000 H   0  0  0  0  0  0  0  0  0  0  0  0
   11.1267   -1.4080    0.0000 H   0  0  0  0  0  0  0  0  0  0  0  0
    8.4592   -0.6230    0.0000 H   0  0  0  0  0  0  0  0  0  0  0  0
    8.3856    1.1746    0.0000 H   0  0  0  0  0  0  0  0  0  0  0  0
    8.7841    0.4844    0.0000 H   0  0  0  0  0  0  0  0  0  0  0  0
    7.5932   -2.7430    0.0000 H   0  0  0  0  0  0  0  0  0  0  0  0
    7.5196   -3.3254    0.0000 H   0  0  0  0  0  0  0  0  0  0  0  0
    7.9181   -4.0156    0.0000 H   0  0  0  0  0  0  0  0  0  0  0  0
   10.7282    1.6870    0.0000 H   0  0  0  0  0  0  0  0  0  0  0  0
    7.2641   -1.3130    0.0000 H   0  0  0  0  0  0  0  0  0  0  0  0
   11.0573    0.8770    0.0000 H   0  0  0  0  0  0  0  0  0  0  0  0
   12.4603   -1.5530    0.0000 H   0  0  0  0  0  0  0  0  0  0  0  0
    8.4592    5.3770    0.0000 H   0  0  0  0  0  0  0  0  0  0  0  0
   12.4603    1.6870    0.0000 H   0  0  0  0  0  0  0  0  0  0  0  0
   13.8632   -0.7430    0.0000 H   0  0  0  0  0  0  0  0  0  0  0  0
   11.0382    5.5300    0.0000 H   0  0  0  0  0  0  0  0  0  0  0  0
   11.2651    6.3770    0.0000 H   0  0  0  0  0  0  0  0  0  0  0  0
   10.4182    6.6039    0.0000 H   0  0  0  0  0  0  0  0  0  0  0  0
    9.8991    6.7430    0.0000 H   0  0  0  0  0  0  0  0  0  0  0  0
    9.0522    6.9700    0.0000 H   0  0  0  0  0  0  0  0  0  0  0  0
    8.8252    6.1230    0.0000 H   0  0  0  0  0  0  0  0  0  0  0  0
    9.8252    4.3910    0.0000 H   0  0  0  0  0  0  0  0  0  0  0  0
   10.6722    4.1640    0.0000 H   0  0  0  0  0  0  0  0  0  0  0  0
   10.8991    5.0110    0.0000 H   0  0  0  0  0  0  0  0  0  0  0  0
    8.4592   -5.2430    0.0000 H   0  0  0  0  0  0  0  0  0  0  0  0
    9.8622   -2.8130    0.0000 H   0  0  0  0  0  0  0  0  0  0  0  0
   13.8632    0.8770    0.0000 H   0  0  0  0  0  0  0  0  0  0  0  0
    7.2641    1.4470    0.0000 H   0  0  0  0  0  0  0  0  0  0  0  0
    7.2641    4.6870    0.0000 H   0  0  0  0  0  0  0  0  0  0  0  0
    9.8622   -6.0530    0.0000 H   0  0  0  0  0  0  0  0  0  0  0  0
   11.2651   -3.6230    0.0000 H   0  0  0  0  0  0  0  0  0  0  0  0
    5.8612    2.2570    0.0000 H   0  0  0  0  0  0  0  0  0  0  0  0
    5.8612    3.8770    0.0000 H   0  0  0  0  0  0  0  0  0  0  0  0
    6.0690   -0.6230    0.0000 H   0  0  0  0  0  0  0  0  0  0  0  0
    4.6660    0.1870    0.0000 H   0  0  0  0  0  0  0  0  0  0  0  0
    2.9132   -3.0876    0.0000 H   0  0  0  0  0  0  0  0  0  0  0  0
    2.9132    0.2216    0.0000 H   0  0  0  0  0  0  0  0  0  0  0  0
   10.9742   -6.4330    0.0000 H   0  0  0  0  0  0  0  0  0  0  0  0
   11.5942   -7.0530    0.0000 H   0  0  0  0  0  0  0  0  0  0  0  0
   12.2142   -6.4330    0.0000 H   0  0  0  0  0  0  0  0  0  0  0  0
    1.4643   -2.2659    0.0000 H   0  0  0  0  0  0  0  0  0  0  0  0
    1.4643   -0.6001    0.0000 H   0  0  0  0  0  0  0  0  0  0  0  0
  1 14  1  0  0  0  0
  1 23  1  0  0  0  0
 12  2  1  6  0  0  0
  2 62  1  0  0  0  0
  3 16  2  0  0  0  0
  4 27  2  0  0  0  0
  5 33  2  0  0  0  0
  6 40  1  0  0  0  0
  6 49  1  0  0  0  0
 11  7  1  6  0  0  0
  7 16  1  0  0  0  0
  7 56  1  0  0  0  0
 15  8  1  6  0  0  0
  8 27  1  0  0  0  0
  8 63  1  0  0  0  0
  9 22  1  0  0  0  0
  9 33  1  0  0  0  0
  9 66  1  0  0  0  0
 10 37  2  0  0  0  0
 10 44  1  0  0  0  0
 11 12  1  0  0  0  0
 11 13  1  0  0  0  0
 11 52  1  0  0  0  0
 12 14  1  0  0  0  0
 12 53  1  0  0  0  0
 13 17  1  0  0  0  0
 13 54  1  0  0  0  0
 13 55  1  0  0  0  0
 14 57  1  0  0  0  0
 14 58  1  0  0  0  0
 15 16  1  0  0  0  0
 15 18  1  0  0  0  0
 15 59  1  0  0  0  0
 17 20  2  0  0  0  0
 17 21  1  0  0  0  0
 18 19  1  0  0  0  0
 18 60  1  0  0  0  0
 18 61  1  0  0  0  0
 19 31  2  0  0  0  0
 19 32  1  0  0  0  0
 20 25  1  0  0  0  0
 20 64  1  0  0  0  0
 21 26  2  0  0  0  0
 21 65  1  0  0  0  0
 22 28  1  0  0  0  0
 22 29  1  0  0  0  0
 22 30  1  0  0  0  0
 23 24  1  0  0  0  0
 23 35  2  0  0  0  0
 24 33  1  0  0  0  0
 24 36  2  0  0  0  0
 25 34  2  0  0  0  0
 25 67  1  0  0  0  0
 26 34  1  0  0  0  0
 26 68  1  0  0  0  0
 27 37  1  0  0  0  0
 28 69  1  0  0  0  0
 28 70  1  0  0  0  0
 28 71  1  0  0  0  0
 29 72  1  0  0  0  0
 29 73  1  0  0  0  0
 29 74  1  0  0  0  0
 30 75  1  0  0  0  0
 30 76  1  0  0  0  0
 30 77  1  0  0  0  0
 31 38  1  0  0  0  0
 31 78  1  0  0  0  0
 32 39  2  0  0  0  0
 32 79  1  0  0  0  0
 34 80  1  0  0  0  0
 35 41  1  0  0  0  0
 35 81  1  0  0  0  0
 36 42  1  0  0  0  0
 36 82  1  0  0  0  0
 37 43  1  0  0  0  0
 38 40  2  0  0  0  0
 38 83  1  0  0  0  0
 39 40  1  0  0  0  0
 39 84  1  0  0  0  0
 41 42  2  0  0  0  0
 41 85  1  0  0  0  0
 42 86  1  0  0  0  0
 43 46  2  0  0  0  0
 43 87  1  0  0  0  0
 44 45  1  0  0  0  0
 44 47  2  0  0  0  0
 45 46  1  0  0  0  0
 45 48  2  0  0  0  0
 46 88  1  0  0  0  0
 47 50  1  0  0  0  0
 47 89  1  0  0  0  0
 48 51  1  0  0  0  0
 48 90  1  0  0  0  0
 49 91  1  0  0  0  0
 49 92  1  0  0  0  0
 49 93  1  0  0  0  0
 50 51  2  0  0  0  0
 50 94  1  0  0  0  0
 51 95  1  0  0  0  0
M  END
> <PUBCHEM_COMPOUND_CID>
503081
> <PUBCHEM_COMPOUND_CANONICALIZED>
1
> <PUBCHEM_CACTVS_COMPLEXITY>
1100
> <PUBCHEM_CACTVS_HBOND_ACCEPTOR>
7
> <PUBCHEM_CACTVS_HBOND_DONOR>
4
> <PUBCHEM_CACTVS_ROTATABLE_BOND>
15
> <PUBCHEM_CACTVS_SUBSKEYS>
AAADcfB/uABAAAAAAAAAAAAAAAAAAAAAAAA8YMGCAAAAAACx9AAAHgQQCAAADLzl3gayx/LIFgioAyVyVACCiCAnKjAImLm+bNgOdvLktbuUcShk1hH46YeYyKCOIAAAAAAGAABAAAAAAAwAAAAAAAAAAA==
> <PUBCHEM_IUPAC_OPENEYE_NAME>
N-[(1S)-2-[[(1S,2R)-1-benzyl-3-[2-(tert-butylcarbamoyl)phenyl]sulfanyl-2-hydroxy-propyl]amino]-1-[(4-methoxyphenyl)methyl]-2-oxo-ethyl]quinoline-2-carboxamide
> <PUBCHEM_IUPAC_CAS_NAME>
N-[(2S)-1-[[(2S,3R)-4-[[2-[(tert-butylamino)-oxomethyl]phenyl]thio]-3-hydroxy-1-phenylbutan-2-yl]amino]-3-(4-methoxyphenyl)-1-oxopropan-2-yl]-2-quinolinecarboxamide
> <PUBCHEM_IUPAC_NAME_MARKUP>
<I>N</I>-[(2<I>S</I>)-1-[[(2<I>S</I>,3<I>R</I>)-4-[2-(<I>tert</I>-butylcarbamoyl)phenyl]sulfanyl-3-hydroxy-1-phenylbutan-2-yl]amino]-3-(4-methoxyphenyl)-1-oxopropan-2-yl]quinoline-2-carboxamide
> <PUBCHEM_IUPAC_NAME>
N-[(2S)-1-[[(2S,3R)-4-[2-(tert-butylcarbamoyl)phenyl]sulfanyl-3-hydroxy-1-phenylbutan-2-yl]amino]-3-(4-methoxyphenyl)-1-oxopropan-2-yl]quinoline-2-carboxamide
> <PUBCHEM_IUPAC_SYSTEMATIC_NAME>
N-[(2S)-1-[[(2S,3R)-4-[2-(tert-butylcarbamoyl)phenyl]sulfanyl-3-oxidanyl-1-phenyl-butan-2-yl]amino]-3-(4-methoxyphenyl)-1-oxidanylidene-propan-2-yl]quinoline-2-carboxamide
> <PUBCHEM_IUPAC_TRADITIONAL_NAME>
N-[(1S)-2-[[(1S,2R)-1-benzyl-3-[[2-(tert-butylcarbamoyl)phenyl]thio]-2-hydroxy-propyl]amino]-2-keto-1-p-anisyl-ethyl]quinaldamide
> <PUBCHEM_IUPAC_INCHI>
InChI=1S/C41H44N4O5S/c1-41(2,3)45-38(47)31-15-9-11-17-37(31)51-26-36(46)34(24-27-12-6-5-7-13-27)43-40(49)35(25-28-18-21-30(50-4)22-19-28)44-39(48)33-23-20-29-14-8-10-16-32(29)42-33/h5-23,34-36,46H,24-26H2,1-4H3,(H,43,49)(H,44,48)(H,45,47)/t34-,35-,36-/m0/s1
> <PUBCHEM_IUPAC_INCHIKEY>
ULESAMQHUZSIAF-KVBYWJEESA-N
> <PUBCHEM_XLOGP3_AA>
7
> <PUBCHEM_EXACT_MASS>
704.30324169
> <PUBCHEM_MOLECULAR_FORMULA>
C41H44N4O5S
> <PUBCHEM_MOLECULAR_WEIGHT>
704.9
> <PUBCHEM_OPENEYE_CAN_SMILES>
CC(C)(C)NC(=O)C1=CC=CC=C1SCC(C(CC2=CC=CC=C2)NC(=O)C(CC3=CC=C(C=C3)OC)NC(=O)C4=NC5=CC=CC=C5C=C4)O
> <PUBCHEM_OPENEYE_ISO_SMILES>
CC(C)(C)NC(=O)C1=CC=CC=C1SC[C@@H]([C@H](CC2=CC=CC=C2)NC(=O)[C@H](CC3=CC=C(C=C3)OC)NC(=O)C4=NC5=CC=CC=C5C=C4)O
> <PUBCHEM_CACTVS_TPSA>
155
> <PUBCHEM_MONOISOTOPIC_WEIGHT>
704.30324169
> <PUBCHEM_TOTAL_CHARGE>
0
> <PUBCHEM_HEAVY_ATOM_COUNT>
51
> <PUBCHEM_ATOM_DEF_STEREO_COUNT>
3
> <PUBCHEM_ATOM_UDEF_STEREO_COUNT>
0
> <PUBCHEM_BOND_DEF_STEREO_COUNT>
0
> <PUBCHEM_BOND_UDEF_STEREO_COUNT>
0
> <PUBCHEM_ISOTOPIC_ATOM_COUNT>
0
> <PUBCHEM_COMPONENT_COUNT>
1
> <PUBCHEM_CACTVS_TAUTO_COUNT>
-1
> <PUBCHEM_COORDINATE_TYPE>
1
5
255
> <PUBCHEM_BONDANNOTATIONS>
10  37  8
10  44  8
17  20  8
17  21  8
19  31  8
19  32  8
12  2  6
20  25  8
21  26  8
23  24  8
23  35  8
24  36  8
25  34  8
26  34  8
31  38  8
32  39  8
35  41  8
36  42  8
37  43  8
38  40  8
39  40  8
41  42  8
43  46  8
44  45  8
44  47  8
45  46  8
45  48  8
47  50  8
48  51  8
50  51  8
11  7  6
15  8  6
$$$$
