503055
  -OEChem-10302200282D
 88 91  0     1  0  0  0  0  0999 V2000
    8.9962    1.3780    0.0000 S   0  0  0  0  0  0  0  0  0  0  0  0
    9.7198    3.2326    0.0000 O   0  0  0  0  0  0  0  0  0  0  0  0
   10.7282    0.3780    0.0000 O   0  0  0  0  0  0  0  0  0  0  0  0
    9.8622   -3.1220    0.0000 O   0  0  0  0  0  0  0  0  0  0  0  0
    9.8622   -4.1220    0.0000 O   0  0  0  0  0  0  0  0  0  0  0  0
    6.3981   -4.1220    0.0000 O   0  0  0  0  0  0  0  0  0  0  0  0
    8.5608    4.5198    0.0000 N   0  0  0  0  0  0  0  0  0  0  0  0
    8.9962   -1.6220    0.0000 N   0  0  0  0  0  0  0  0  0  0  0  0
    7.2641   -2.6220    0.0000 N   0  0  0  0  0  0  0  0  0  0  0  0
    8.9962   -5.6220    0.0000 N   0  0  0  0  0  0  0  0  0  0  0  0
    4.6660   -3.1220    0.0000 N   0  0  0  0  0  0  0  0  0  0  0  0
    8.0256    2.8725    0.0000 C   0  0  3  0  0  0  0  0  0  0  0  0
    8.1301    1.8780    0.0000 C   0  0  3  0  0  0  0  0  0  0  0  0
    7.0475    3.0804    0.0000 C   0  0  0  0  0  0  0  0  0  0  0  0
    7.2166    1.4712    0.0000 C   0  0  0  0  0  0  0  0  0  0  0  0
    6.5475    2.2144    0.0000 C   0  0  0  0  0  0  0  0  0  0  0  0
    8.7688    3.5416    0.0000 C   0  0  0  0  0  0  0  0  0  0  0  0
    8.9962    0.3780    0.0000 C   0  0  0  0  0  0  0  0  0  0  0  0
    9.3040    5.1889    0.0000 C   0  0  0  0  0  0  0  0  0  0  0  0
    9.8622   -0.1220    0.0000 C   0  0  3  0  0  0  0  0  0  0  0  0
    9.8622   -1.1220    0.0000 C   0  0  2  0  0  0  0  0  0  0  0  0
   10.7282   -1.6220    0.0000 C   0  0  0  0  0  0  0  0  0  0  0  0
   10.0471    5.8580    0.0000 C   0  0  0  0  0  0  0  0  0  0  0  0
    8.6348    5.9320    0.0000 C   0  0  0  0  0  0  0  0  0  0  0  0
    9.9731    4.4458    0.0000 C   0  0  0  0  0  0  0  0  0  0  0  0
   11.5942   -1.1220    0.0000 C   0  0  0  0  0  0  0  0  0  0  0  0
    8.9962   -2.6220    0.0000 C   0  0  0  0  0  0  0  0  0  0  0  0
    8.1301   -3.1220    0.0000 C   0  0  2  0  0  0  0  0  0  0  0  0
   12.4603   -1.6220    0.0000 C   0  0  0  0  0  0  0  0  0  0  0  0
   11.5942   -0.1220    0.0000 C   0  0  0  0  0  0  0  0  0  0  0  0
    8.1301   -4.1220    0.0000 C   0  0  0  0  0  0  0  0  0  0  0  0
   13.3263   -1.1220    0.0000 C   0  0  0  0  0  0  0  0  0  0  0  0
   12.4603    0.3780    0.0000 C   0  0  0  0  0  0  0  0  0  0  0  0
   13.3263   -0.1220    0.0000 C   0  0  0  0  0  0  0  0  0  0  0  0
    8.9962   -4.6220    0.0000 C   0  0  0  0  0  0  0  0  0  0  0  0
    6.3981   -3.1220    0.0000 C   0  0  0  0  0  0  0  0  0  0  0  0
    5.5321   -2.6220    0.0000 C   0  0  0  0  0  0  0  0  0  0  0  0
    5.5321   -1.6220    0.0000 C   0  0  0  0  0  0  0  0  0  0  0  0
    3.8000   -2.6220    0.0000 C   0  0  0  0  0  0  0  0  0  0  0  0
    3.8000   -1.6220    0.0000 C   0  0  0  0  0  0  0  0  0  0  0  0
    4.6660   -1.1220    0.0000 C   0  0  0  0  0  0  0  0  0  0  0  0
    2.9061   -3.1567    0.0000 C   0  0  0  0  0  0  0  0  0  0  0  0
    2.9061   -1.0874    0.0000 C   0  0  0  0  0  0  0  0  0  0  0  0
    2.0000   -2.6428    0.0000 C   0  0  0  0  0  0  0  0  0  0  0  0
    2.0000   -1.6012    0.0000 C   0  0  0  0  0  0  0  0  0  0  0  0
    7.8651    3.4714    0.0000 H   0  0  0  0  0  0  0  0  0  0  0  0
    8.0977    1.2588    0.0000 H   0  0  0  0  0  0  0  0  0  0  0  0
    7.2390    3.6700    0.0000 H   0  0  0  0  0  0  0  0  0  0  0  0
    6.4811    3.3326    0.0000 H   0  0  0  0  0  0  0  0  0  0  0  0
    6.7150    1.1068    0.0000 H   0  0  0  0  0  0  0  0  0  0  0  0
    7.5266    0.9343    0.0000 H   0  0  0  0  0  0  0  0  0  0  0  0
    6.0459    2.5788    0.0000 H   0  0  0  0  0  0  0  0  0  0  0  0
    6.1326    1.7536    0.0000 H   0  0  0  0  0  0  0  0  0  0  0  0
    8.3856    0.4856    0.0000 H   0  0  0  0  0  0  0  0  0  0  0  0
    8.7841   -0.2046    0.0000 H   0  0  0  0  0  0  0  0  0  0  0  0
    7.9712    4.7114    0.0000 H   0  0  0  0  0  0  0  0  0  0  0  0
    9.8622    0.4980    0.0000 H   0  0  0  0  0  0  0  0  0  0  0  0
    9.3252   -0.8120    0.0000 H   0  0  0  0  0  0  0  0  0  0  0  0
   10.3297   -2.0970    0.0000 H   0  0  0  0  0  0  0  0  0  0  0  0
   11.1267   -2.0970    0.0000 H   0  0  0  0  0  0  0  0  0  0  0  0
   10.4620    5.3973    0.0000 H   0  0  0  0  0  0  0  0  0  0  0  0
   10.5079    6.2729    0.0000 H   0  0  0  0  0  0  0  0  0  0  0  0
    9.6323    6.3188    0.0000 H   0  0  0  0  0  0  0  0  0  0  0  0
    9.0956    6.3469    0.0000 H   0  0  0  0  0  0  0  0  0  0  0  0
    8.2200    6.3928    0.0000 H   0  0  0  0  0  0  0  0  0  0  0  0
    8.1741    5.5172    0.0000 H   0  0  0  0  0  0  0  0  0  0  0  0
    9.5124    4.0309    0.0000 H   0  0  0  0  0  0  0  0  0  0  0  0
   10.3880    3.9850    0.0000 H   0  0  0  0  0  0  0  0  0  0  0  0
   10.4339    4.8606    0.0000 H   0  0  0  0  0  0  0  0  0  0  0  0
    8.4592   -1.3120    0.0000 H   0  0  0  0  0  0  0  0  0  0  0  0
   10.7282    0.9980    0.0000 H   0  0  0  0  0  0  0  0  0  0  0  0
    7.5932   -3.4320    0.0000 H   0  0  0  0  0  0  0  0  0  0  0  0
   12.4603   -2.2420    0.0000 H   0  0  0  0  0  0  0  0  0  0  0  0
   11.0573    0.1880    0.0000 H   0  0  0  0  0  0  0  0  0  0  0  0
    7.5196   -4.0144    0.0000 H   0  0  0  0  0  0  0  0  0  0  0  0
    7.9181   -4.7046    0.0000 H   0  0  0  0  0  0  0  0  0  0  0  0
    7.2641   -2.0020    0.0000 H   0  0  0  0  0  0  0  0  0  0  0  0
   13.8632   -1.4320    0.0000 H   0  0  0  0  0  0  0  0  0  0  0  0
   12.4603    0.9980    0.0000 H   0  0  0  0  0  0  0  0  0  0  0  0
   13.8632    0.1880    0.0000 H   0  0  0  0  0  0  0  0  0  0  0  0
    9.5331   -5.9320    0.0000 H   0  0  0  0  0  0  0  0  0  0  0  0
    8.4592   -5.9320    0.0000 H   0  0  0  0  0  0  0  0  0  0  0  0
    6.0690   -1.3120    0.0000 H   0  0  0  0  0  0  0  0  0  0  0  0
    4.6660   -0.5020    0.0000 H   0  0  0  0  0  0  0  0  0  0  0  0
    2.9132   -3.7767    0.0000 H   0  0  0  0  0  0  0  0  0  0  0  0
    2.9132   -0.4674    0.0000 H   0  0  0  0  0  0  0  0  0  0  0  0
    1.4643   -2.9549    0.0000 H   0  0  0  0  0  0  0  0  0  0  0  0
    1.4643   -1.2892    0.0000 H   0  0  0  0  0  0  0  0  0  0  0  0
  1 13  1  0  0  0  0
  1 18  1  0  0  0  0
  2 17  2  0  0  0  0
  3 20  1  0  0  0  0
  3 71  1  0  0  0  0
  4 27  2  0  0  0  0
  5 35  2  0  0  0  0
  6 36  2  0  0  0  0
  7 17  1  0  0  0  0
  7 19  1  0  0  0  0
  7 56  1  0  0  0  0
 21  8  1  6  0  0  0
  8 27  1  0  0  0  0
  8 70  1  0  0  0  0
 28  9  1  6  0  0  0
  9 36  1  0  0  0  0
  9 77  1  0  0  0  0
 10 35  1  0  0  0  0
 10 81  1  0  0  0  0
 10 82  1  0  0  0  0
 11 37  2  0  0  0  0
 11 39  1  0  0  0  0
 12 13  1  0  0  0  0
 12 14  1  0  0  0  0
 12 17  1  0  0  0  0
 12 46  1  0  0  0  0
 13 15  1  0  0  0  0
 13 47  1  0  0  0  0
 14 16  1  0  0  0  0
 14 48  1  0  0  0  0
 14 49  1  0  0  0  0
 15 16  1  0  0  0  0
 15 50  1  0  0  0  0
 15 51  1  0  0  0  0
 16 52  1  0  0  0  0
 16 53  1  0  0  0  0
 18 20  1  0  0  0  0
 18 54  1  0  0  0  0
 18 55  1  0  0  0  0
 19 23  1  0  0  0  0
 19 24  1  0  0  0  0
 19 25  1  0  0  0  0
 20 21  1  0  0  0  0
 20 57  1  0  0  0  0
 21 22  1  0  0  0  0
 21 58  1  0  0  0  0
 22 26  1  0  0  0  0
 22 59  1  0  0  0  0
 22 60  1  0  0  0  0
 23 61  1  0  0  0  0
 23 62  1  0  0  0  0
 23 63  1  0  0  0  0
 24 64  1  0  0  0  0
 24 65  1  0  0  0  0
 24 66  1  0  0  0  0
 25 67  1  0  0  0  0
 25 68  1  0  0  0  0
 25 69  1  0  0  0  0
 26 29  2  0  0  0  0
 26 30  1  0  0  0  0
 27 28  1  0  0  0  0
 28 31  1  0  0  0  0
 28 72  1  0  0  0  0
 29 32  1  0  0  0  0
 29 73  1  0  0  0  0
 30 33  2  0  0  0  0
 30 74  1  0  0  0  0
 31 35  1  0  0  0  0
 31 75  1  0  0  0  0
 31 76  1  0  0  0  0
 32 34  2  0  0  0  0
 32 78  1  0  0  0  0
 33 34  1  0  0  0  0
 33 79  1  0  0  0  0
 34 80  1  0  0  0  0
 36 37  1  0  0  0  0
 37 38  1  0  0  0  0
 38 41  2  0  0  0  0
 38 83  1  0  0  0  0
 39 40  1  0  0  0  0
 39 42  2  0  0  0  0
 40 41  1  0  0  0  0
 40 43  2  0  0  0  0
 41 84  1  0  0  0  0
 42 44  1  0  0  0  0
 42 85  1  0  0  0  0
 43 45  1  0  0  0  0
 43 86  1  0  0  0  0
 44 45  2  0  0  0  0
 44 87  1  0  0  0  0
 45 88  1  0  0  0  0
M  END
> <PUBCHEM_COMPOUND_CID>
503055
> <PUBCHEM_COMPOUND_CANONICALIZED>
1
> <PUBCHEM_CACTVS_COMPLEXITY>
1020
> <PUBCHEM_CACTVS_HBOND_ACCEPTOR>
7
> <PUBCHEM_CACTVS_HBOND_DONOR>
5
> <PUBCHEM_CACTVS_ROTATABLE_BOND>
14
> <PUBCHEM_CACTVS_SUBSKEYS>
AAADcfB/uABAAAAAAAAAAAAAAAAAAYAAAAA8YIAAAAAAAACx9AAAHgQQCAAADbzl3gaywPLIEgioAyVyVACCgCAnAjAImKG4ZNgKcPrg1bGUYQhklgD4yYedyKCOAAAAAAACAAAAAAAAAAQAAAAAAgAAAA==
> <PUBCHEM_IUPAC_OPENEYE_NAME>
(2S)-N-[(1S)-1-benzyl-3-[2-(tert-butylcarbamoyl)cyclopentyl]sulfanyl-2-hydroxy-propyl]-2-(quinoline-2-carbonylamino)butanediamide
> <PUBCHEM_IUPAC_CAS_NAME>
(2S)-N-[(2S)-4-[[2-[(tert-butylamino)-oxomethyl]cyclopentyl]thio]-3-hydroxy-1-phenylbutan-2-yl]-2-[[oxo(2-quinolinyl)methyl]amino]butanediamide
> <PUBCHEM_IUPAC_NAME_MARKUP>
(2<I>S</I>)-<I>N</I>-[(2<I>S</I>)-4-[2-(<I>tert</I>-butylcarbamoyl)cyclopentyl]sulfanyl-3-hydroxy-1-phenylbutan-2-yl]-2-(quinoline-2-carbonylamino)butanediamide
> <PUBCHEM_IUPAC_NAME>
(2S)-N-[(2S)-4-[2-(tert-butylcarbamoyl)cyclopentyl]sulfanyl-3-hydroxy-1-phenylbutan-2-yl]-2-(quinoline-2-carbonylamino)butanediamide
> <PUBCHEM_IUPAC_SYSTEMATIC_NAME>
(2S)-N-[(2S)-4-[2-(tert-butylcarbamoyl)cyclopentyl]sulfanyl-3-oxidanyl-1-phenyl-butan-2-yl]-2-(quinolin-2-ylcarbonylamino)butanediamide
> <PUBCHEM_IUPAC_TRADITIONAL_NAME>
(2S)-N-[(1S)-1-benzyl-3-[[2-(tert-butylcarbamoyl)cyclopentyl]thio]-2-hydroxy-propyl]-2-(quinaldoylamino)succinamide
> <PUBCHEM_IUPAC_INCHI>
InChI=1S/C34H43N5O5S/c1-34(2,3)39-31(42)23-13-9-15-29(23)45-20-28(40)26(18-21-10-5-4-6-11-21)37-33(44)27(19-30(35)41)38-32(43)25-17-16-22-12-7-8-14-24(22)36-25/h4-8,10-12,14,16-17,23,26-29,40H,9,13,15,18-20H2,1-3H3,(H2,35,41)(H,37,44)(H,38,43)(H,39,42)/t23?,26-,27-,28?,29?/m0/s1
> <PUBCHEM_IUPAC_INCHIKEY>
AWBZWWXIQYCLSO-QWTTYVSXSA-N
> <PUBCHEM_XLOGP3_AA>
3.3
> <PUBCHEM_EXACT_MASS>
633.29849066
> <PUBCHEM_MOLECULAR_FORMULA>
C34H43N5O5S
> <PUBCHEM_MOLECULAR_WEIGHT>
633.8
> <PUBCHEM_OPENEYE_CAN_SMILES>
CC(C)(C)NC(=O)C1CCCC1SCC(C(CC2=CC=CC=C2)NC(=O)C(CC(=O)N)NC(=O)C3=NC4=CC=CC=C4C=C3)O
> <PUBCHEM_OPENEYE_ISO_SMILES>
CC(C)(C)NC(=O)C1CCCC1SCC([C@H](CC2=CC=CC=C2)NC(=O)[C@H](CC(=O)N)NC(=O)C3=NC4=CC=CC=C4C=C3)O
> <PUBCHEM_CACTVS_TPSA>
189
> <PUBCHEM_MONOISOTOPIC_WEIGHT>
633.29849066
> <PUBCHEM_TOTAL_CHARGE>
0
> <PUBCHEM_HEAVY_ATOM_COUNT>
45
> <PUBCHEM_ATOM_DEF_STEREO_COUNT>
2
> <PUBCHEM_ATOM_UDEF_STEREO_COUNT>
3
> <PUBCHEM_BOND_DEF_STEREO_COUNT>
0
> <PUBCHEM_BOND_UDEF_STEREO_COUNT>
0
> <PUBCHEM_ISOTOPIC_ATOM_COUNT>
0
> <PUBCHEM_COMPONENT_COUNT>
1
> <PUBCHEM_CACTVS_TAUTO_COUNT>
-1
> <PUBCHEM_COORDINATE_TYPE>
1
5
255
> <PUBCHEM_BONDANNOTATIONS>
13  1  3
11  37  8
11  39  8
12  17  3
26  29  8
26  30  8
29  32  8
20  3  3
30  33  8
32  34  8
33  34  8
37  38  8
38  41  8
39  40  8
39  42  8
40  41  8
40  43  8
42  44  8
43  45  8
44  45  8
21  8  6
28  9  6
$$$$
