503080
  -OEChem-10302200282D
 91 94  0     1  0  0  0  0  0999 V2000
    8.9962    1.5670    0.0000 S   0  0  0  0  0  0  0  0  0  0  0  0
   10.7282    0.5670    0.0000 O   0  0  0  0  0  0  0  0  0  0  0  0
    9.8622   -2.9330    0.0000 O   0  0  0  0  0  0  0  0  0  0  0  0
    9.8622   -3.9330    0.0000 O   0  0  0  0  0  0  0  0  0  0  0  0
    9.8622    3.0670    0.0000 O   0  0  0  0  0  0  0  0  0  0  0  0
    6.3981   -3.9330    0.0000 O   0  0  0  0  0  0  0  0  0  0  0  0
    8.9962   -1.4330    0.0000 N   0  0  0  0  0  0  0  0  0  0  0  0
    7.2641   -2.4330    0.0000 N   0  0  0  0  0  0  0  0  0  0  0  0
    8.9962    4.5670    0.0000 N   0  0  0  0  0  0  0  0  0  0  0  0
    8.9962   -5.4330    0.0000 N   0  0  0  0  0  0  0  0  0  0  0  0
    4.6660   -2.9330    0.0000 N   0  0  0  0  0  0  0  0  0  0  0  0
    9.8622   -0.9330    0.0000 C   0  0  2  0  0  0  0  0  0  0  0  0
    9.8622    0.0670    0.0000 C   0  0  1  0  0  0  0  0  0  0  0  0
   10.7282   -1.4330    0.0000 C   0  0  0  0  0  0  0  0  0  0  0  0
    8.9962    0.5670    0.0000 C   0  0  0  0  0  0  0  0  0  0  0  0
    8.1301   -2.9330    0.0000 C   0  0  2  0  0  0  0  0  0  0  0  0
   11.5942   -0.9330    0.0000 C   0  0  0  0  0  0  0  0  0  0  0  0
    8.9962   -2.4330    0.0000 C   0  0  0  0  0  0  0  0  0  0  0  0
    8.1301   -3.9330    0.0000 C   0  0  0  0  0  0  0  0  0  0  0  0
    9.8622    5.0670    0.0000 C   0  0  0  0  0  0  0  0  0  0  0  0
   12.4603   -1.4330    0.0000 C   0  0  0  0  0  0  0  0  0  0  0  0
   11.5942    0.0670    0.0000 C   0  0  0  0  0  0  0  0  0  0  0  0
    8.1301    2.0670    0.0000 C   0  0  0  0  0  0  0  0  0  0  0  0
    8.9962   -4.4330    0.0000 C   0  0  0  0  0  0  0  0  0  0  0  0
    8.1301    3.0670    0.0000 C   0  0  0  0  0  0  0  0  0  0  0  0
   10.7282    5.5670    0.0000 C   0  0  0  0  0  0  0  0  0  0  0  0
    9.3622    5.9330    0.0000 C   0  0  0  0  0  0  0  0  0  0  0  0
   10.3622    4.2010    0.0000 C   0  0  0  0  0  0  0  0  0  0  0  0
   13.3263   -0.9330    0.0000 C   0  0  0  0  0  0  0  0  0  0  0  0
   12.4603    0.5670    0.0000 C   0  0  0  0  0  0  0  0  0  0  0  0
    8.9962    3.5670    0.0000 C   0  0  0  0  0  0  0  0  0  0  0  0
    6.3981   -2.9330    0.0000 C   0  0  0  0  0  0  0  0  0  0  0  0
   13.3263    0.0670    0.0000 C   0  0  0  0  0  0  0  0  0  0  0  0
    7.2641    1.5670    0.0000 C   0  0  0  0  0  0  0  0  0  0  0  0
    7.2641    3.5670    0.0000 C   0  0  0  0  0  0  0  0  0  0  0  0
    5.5321   -2.4330    0.0000 C   0  0  0  0  0  0  0  0  0  0  0  0
    6.3981    2.0670    0.0000 C   0  0  0  0  0  0  0  0  0  0  0  0
    6.3981    3.0670    0.0000 C   0  0  0  0  0  0  0  0  0  0  0  0
    9.8622   -5.9330    0.0000 C   0  0  0  0  0  0  0  0  0  0  0  0
    8.1301   -5.9330    0.0000 C   0  0  0  0  0  0  0  0  0  0  0  0
    5.5321   -1.4330    0.0000 C   0  0  0  0  0  0  0  0  0  0  0  0
    3.8000   -2.4330    0.0000 C   0  0  0  0  0  0  0  0  0  0  0  0
    3.8000   -1.4330    0.0000 C   0  0  0  0  0  0  0  0  0  0  0  0
    4.6660   -0.9330    0.0000 C   0  0  0  0  0  0  0  0  0  0  0  0
    2.9061   -2.9677    0.0000 C   0  0  0  0  0  0  0  0  0  0  0  0
    2.9061   -0.8984    0.0000 C   0  0  0  0  0  0  0  0  0  0  0  0
    2.0000   -2.4538    0.0000 C   0  0  0  0  0  0  0  0  0  0  0  0
    2.0000   -1.4122    0.0000 C   0  0  0  0  0  0  0  0  0  0  0  0
    9.3252   -0.6230    0.0000 H   0  0  0  0  0  0  0  0  0  0  0  0
    9.8622    0.6870    0.0000 H   0  0  0  0  0  0  0  0  0  0  0  0
   10.3297   -1.9080    0.0000 H   0  0  0  0  0  0  0  0  0  0  0  0
   11.1267   -1.9080    0.0000 H   0  0  0  0  0  0  0  0  0  0  0  0
    8.4592   -1.1230    0.0000 H   0  0  0  0  0  0  0  0  0  0  0  0
    8.3856    0.6746    0.0000 H   0  0  0  0  0  0  0  0  0  0  0  0
    8.7841   -0.0156    0.0000 H   0  0  0  0  0  0  0  0  0  0  0  0
    7.5932   -3.2430    0.0000 H   0  0  0  0  0  0  0  0  0  0  0  0
    7.5196   -3.8254    0.0000 H   0  0  0  0  0  0  0  0  0  0  0  0
    7.9181   -4.5156    0.0000 H   0  0  0  0  0  0  0  0  0  0  0  0
   10.7282    1.1870    0.0000 H   0  0  0  0  0  0  0  0  0  0  0  0
   12.4603   -2.0530    0.0000 H   0  0  0  0  0  0  0  0  0  0  0  0
   11.0573    0.3770    0.0000 H   0  0  0  0  0  0  0  0  0  0  0  0
    7.2641   -1.8130    0.0000 H   0  0  0  0  0  0  0  0  0  0  0  0
    8.4592    4.8770    0.0000 H   0  0  0  0  0  0  0  0  0  0  0  0
   11.0382    5.0300    0.0000 H   0  0  0  0  0  0  0  0  0  0  0  0
   11.2651    5.8770    0.0000 H   0  0  0  0  0  0  0  0  0  0  0  0
   10.4182    6.1039    0.0000 H   0  0  0  0  0  0  0  0  0  0  0  0
    9.8991    6.2430    0.0000 H   0  0  0  0  0  0  0  0  0  0  0  0
    9.0522    6.4700    0.0000 H   0  0  0  0  0  0  0  0  0  0  0  0
    8.8252    5.6230    0.0000 H   0  0  0  0  0  0  0  0  0  0  0  0
    9.8252    3.8910    0.0000 H   0  0  0  0  0  0  0  0  0  0  0  0
   10.6722    3.6640    0.0000 H   0  0  0  0  0  0  0  0  0  0  0  0
   10.8991    4.5110    0.0000 H   0  0  0  0  0  0  0  0  0  0  0  0
   13.8632   -1.2430    0.0000 H   0  0  0  0  0  0  0  0  0  0  0  0
   12.4603    1.1870    0.0000 H   0  0  0  0  0  0  0  0  0  0  0  0
   13.8632    0.3770    0.0000 H   0  0  0  0  0  0  0  0  0  0  0  0
    7.2641    0.9470    0.0000 H   0  0  0  0  0  0  0  0  0  0  0  0
    7.2641    4.1870    0.0000 H   0  0  0  0  0  0  0  0  0  0  0  0
    5.8612    1.7570    0.0000 H   0  0  0  0  0  0  0  0  0  0  0  0
    5.8612    3.3770    0.0000 H   0  0  0  0  0  0  0  0  0  0  0  0
    9.5522   -6.4700    0.0000 H   0  0  0  0  0  0  0  0  0  0  0  0
   10.3991   -6.2430    0.0000 H   0  0  0  0  0  0  0  0  0  0  0  0
   10.1722   -5.3961    0.0000 H   0  0  0  0  0  0  0  0  0  0  0  0
    7.8201   -5.3961    0.0000 H   0  0  0  0  0  0  0  0  0  0  0  0
    7.5932   -6.2430    0.0000 H   0  0  0  0  0  0  0  0  0  0  0  0
    8.4401   -6.4700    0.0000 H   0  0  0  0  0  0  0  0  0  0  0  0
    6.0690   -1.1230    0.0000 H   0  0  0  0  0  0  0  0  0  0  0  0
    4.6660   -0.3130    0.0000 H   0  0  0  0  0  0  0  0  0  0  0  0
    2.9132   -3.5876    0.0000 H   0  0  0  0  0  0  0  0  0  0  0  0
    2.9132   -0.2784    0.0000 H   0  0  0  0  0  0  0  0  0  0  0  0
    1.4643   -2.7659    0.0000 H   0  0  0  0  0  0  0  0  0  0  0  0
    1.4643   -1.1001    0.0000 H   0  0  0  0  0  0  0  0  0  0  0  0
  1 15  1  0  0  0  0
  1 23  1  0  0  0  0
 13  2  1  1  0  0  0
  2 59  1  0  0  0  0
  3 18  2  0  0  0  0
  4 24  2  0  0  0  0
  5 31  2  0  0  0  0
  6 32  2  0  0  0  0
 12  7  1  6  0  0  0
  7 18  1  0  0  0  0
  7 53  1  0  0  0  0
 16  8  1  6  0  0  0
  8 32  1  0  0  0  0
  8 62  1  0  0  0  0
  9 20  1  0  0  0  0
  9 31  1  0  0  0  0
  9 63  1  0  0  0  0
 10 24  1  0  0  0  0
 10 39  1  0  0  0  0
 10 40  1  0  0  0  0
 11 36  2  0  0  0  0
 11 42  1  0  0  0  0
 12 13  1  0  0  0  0
 12 14  1  0  0  0  0
 12 49  1  0  0  0  0
 13 15  1  0  0  0  0
 13 50  1  0  0  0  0
 14 17  1  0  0  0  0
 14 51  1  0  0  0  0
 14 52  1  0  0  0  0
 15 54  1  0  0  0  0
 15 55  1  0  0  0  0
 16 18  1  0  0  0  0
 16 19  1  0  0  0  0
 16 56  1  0  0  0  0
 17 21  2  0  0  0  0
 17 22  1  0  0  0  0
 19 24  1  0  0  0  0
 19 57  1  0  0  0  0
 19 58  1  0  0  0  0
 20 26  1  0  0  0  0
 20 27  1  0  0  0  0
 20 28  1  0  0  0  0
 21 29  1  0  0  0  0
 21 60  1  0  0  0  0
 22 30  2  0  0  0  0
 22 61  1  0  0  0  0
 23 25  1  0  0  0  0
 23 34  2  0  0  0  0
 25 31  1  0  0  0  0
 25 35  2  0  0  0  0
 26 64  1  0  0  0  0
 26 65  1  0  0  0  0
 26 66  1  0  0  0  0
 27 67  1  0  0  0  0
 27 68  1  0  0  0  0
 27 69  1  0  0  0  0
 28 70  1  0  0  0  0
 28 71  1  0  0  0  0
 28 72  1  0  0  0  0
 29 33  2  0  0  0  0
 29 73  1  0  0  0  0
 30 33  1  0  0  0  0
 30 74  1  0  0  0  0
 32 36  1  0  0  0  0
 33 75  1  0  0  0  0
 34 37  1  0  0  0  0
 34 76  1  0  0  0  0
 35 38  1  0  0  0  0
 35 77  1  0  0  0  0
 36 41  1  0  0  0  0
 37 38  2  0  0  0  0
 37 78  1  0  0  0  0
 38 79  1  0  0  0  0
 39 80  1  0  0  0  0
 39 81  1  0  0  0  0
 39 82  1  0  0  0  0
 40 83  1  0  0  0  0
 40 84  1  0  0  0  0
 40 85  1  0  0  0  0
 41 44  2  0  0  0  0
 41 86  1  0  0  0  0
 42 43  1  0  0  0  0
 42 45  2  0  0  0  0
 43 44  1  0  0  0  0
 43 46  2  0  0  0  0
 44 87  1  0  0  0  0
 45 47  1  0  0  0  0
 45 88  1  0  0  0  0
 46 48  1  0  0  0  0
 46 89  1  0  0  0  0
 47 48  2  0  0  0  0
 47 90  1  0  0  0  0
 48 91  1  0  0  0  0
M  END
> <PUBCHEM_COMPOUND_CID>
503080
> <PUBCHEM_COMPOUND_CANONICALIZED>
1
> <PUBCHEM_CACTVS_COMPLEXITY>
1080
> <PUBCHEM_CACTVS_HBOND_ACCEPTOR>
7
> <PUBCHEM_CACTVS_HBOND_DONOR>
4
> <PUBCHEM_CACTVS_ROTATABLE_BOND>
14
> <PUBCHEM_CACTVS_SUBSKEYS>
AAADcfB/uABAAAAAAAAAAAAAAAAAAAAAAAA8YMEAAAAAAACx9AAAHgQQCAAADLzl3gaywfPIEgioAyVyVACCgCAnCjAImLm4ZNgKcPrg1bGUYQhklgD4yYedyKCOAAAAAAAGAAAAAAAAAAwAAAAAAAAAAA==
> <PUBCHEM_IUPAC_OPENEYE_NAME>
(2S)-N-[(1S,2S)-1-benzyl-3-[2-(tert-butylcarbamoyl)phenyl]sulfanyl-2-hydroxy-propyl]-N',N'-dimethyl-2-(quinoline-2-carbonylamino)butanediamide
> <PUBCHEM_IUPAC_CAS_NAME>
(2S)-N-[(2S,3S)-4-[[2-[(tert-butylamino)-oxomethyl]phenyl]thio]-3-hydroxy-1-phenylbutan-2-yl]-N',N'-dimethyl-2-[[oxo(2-quinolinyl)methyl]amino]butanediamide
> <PUBCHEM_IUPAC_NAME_MARKUP>
(2<I>S</I>)-<I>N</I>-[(2<I>S</I>,3<I>S</I>)-4-[2-(<I>tert</I>-butylcarbamoyl)phenyl]sulfanyl-3-hydroxy-1-phenylbutan-2-yl]-<I>N</I>&apos;,<I>N</I>&apos;-dimethyl-2-(quinoline-2-carbonylamino)butanediamide
> <PUBCHEM_IUPAC_NAME>
(2S)-N-[(2S,3S)-4-[2-(tert-butylcarbamoyl)phenyl]sulfanyl-3-hydroxy-1-phenylbutan-2-yl]-N',N'-dimethyl-2-(quinoline-2-carbonylamino)butanediamide
> <PUBCHEM_IUPAC_SYSTEMATIC_NAME>
(2S)-N-[(2S,3S)-4-[2-(tert-butylcarbamoyl)phenyl]sulfanyl-3-oxidanyl-1-phenyl-butan-2-yl]-N',N'-dimethyl-2-(quinolin-2-ylcarbonylamino)butanediamide
> <PUBCHEM_IUPAC_TRADITIONAL_NAME>
(2S)-N-[(1S,2S)-1-benzyl-3-[[2-(tert-butylcarbamoyl)phenyl]thio]-2-hydroxy-propyl]-N',N'-dimethyl-2-(quinaldoylamino)succinamide
> <PUBCHEM_IUPAC_INCHI>
InChI=1S/C37H43N5O5S/c1-37(2,3)41-34(45)26-16-10-12-18-32(26)48-23-31(43)29(21-24-13-7-6-8-14-24)39-36(47)30(22-33(44)42(4)5)40-35(46)28-20-19-25-15-9-11-17-27(25)38-28/h6-20,29-31,43H,21-23H2,1-5H3,(H,39,47)(H,40,46)(H,41,45)/t29-,30-,31+/m0/s1
> <PUBCHEM_IUPAC_INCHIKEY>
ACNYVEFAQLFLCL-RWSKJCERSA-N
> <PUBCHEM_XLOGP3_AA>
4.5
> <PUBCHEM_EXACT_MASS>
669.29849066
> <PUBCHEM_MOLECULAR_FORMULA>
C37H43N5O5S
> <PUBCHEM_MOLECULAR_WEIGHT>
669.8
> <PUBCHEM_OPENEYE_CAN_SMILES>
CC(C)(C)NC(=O)C1=CC=CC=C1SCC(C(CC2=CC=CC=C2)NC(=O)C(CC(=O)N(C)C)NC(=O)C3=NC4=CC=CC=C4C=C3)O
> <PUBCHEM_OPENEYE_ISO_SMILES>
CC(C)(C)NC(=O)C1=CC=CC=C1SC[C@H]([C@H](CC2=CC=CC=C2)NC(=O)[C@H](CC(=O)N(C)C)NC(=O)C3=NC4=CC=CC=C4C=C3)O
> <PUBCHEM_CACTVS_TPSA>
166
> <PUBCHEM_MONOISOTOPIC_WEIGHT>
669.29849066
> <PUBCHEM_TOTAL_CHARGE>
0
> <PUBCHEM_HEAVY_ATOM_COUNT>
48
> <PUBCHEM_ATOM_DEF_STEREO_COUNT>
3
> <PUBCHEM_ATOM_UDEF_STEREO_COUNT>
0
> <PUBCHEM_BOND_DEF_STEREO_COUNT>
0
> <PUBCHEM_BOND_UDEF_STEREO_COUNT>
0
> <PUBCHEM_ISOTOPIC_ATOM_COUNT>
0
> <PUBCHEM_COMPONENT_COUNT>
1
> <PUBCHEM_CACTVS_TAUTO_COUNT>
-1
> <PUBCHEM_COORDINATE_TYPE>
1
5
255
> <PUBCHEM_BONDANNOTATIONS>
11  36  8
11  42  8
17  21  8
17  22  8
13  2  5
21  29  8
22  30  8
23  25  8
23  34  8
25  35  8
29  33  8
30  33  8
34  37  8
35  38  8
36  41  8
37  38  8
41  44  8
42  43  8
42  45  8
43  44  8
43  46  8
45  47  8
46  48  8
47  48  8
12  7  6
16  8  6
$$$$
