503022
  -OEChem-10302200282D
 41 42  0     1  0  0  0  0  0999 V2000
    4.1349   -1.7799    0.0000 P   0  0  3  0  0  0  0  0  0  0  0  0
    4.3159   -3.5025    0.0000 P   0  0  3  0  0  0  0  0  0  0  0  0
    4.4970   -5.2251    0.0000 P   0  0  0  0  0  0  0  0  0  0  0  0
    3.6750    1.7027    0.0000 O   0  0  0  0  0  0  0  0  0  0  0  0
    2.3660    0.7516    0.0000 O   0  0  0  0  0  0  0  0  0  0  0  0
    3.5471   -0.9709    0.0000 O   0  0  0  0  0  0  0  0  0  0  0  0
    4.7226   -2.5890    0.0000 O   0  0  0  0  0  0  0  0  0  0  0  0
    4.5981    3.2905    0.0000 O   0  0  0  0  0  0  0  0  0  0  0  0
    3.3258   -2.3677    0.0000 O   0  0  0  0  0  0  0  0  0  0  0  0
    4.9439   -1.1922    0.0000 O   0  0  0  0  0  0  0  0  0  0  0  0
    3.9092   -4.4160    0.0000 O   0  0  0  0  0  0  0  0  0  0  0  0
    5.2294   -3.9092    0.0000 O   0  0  0  0  0  0  0  0  0  0  0  0
    3.4024   -3.0958    0.0000 O   0  0  0  0  0  0  0  0  0  0  0  0
    5.0847   -6.0341    0.0000 O   0  0  0  0  0  0  0  0  0  0  0  0
    3.6879   -5.8128    0.0000 O   0  0  0  0  0  0  0  0  0  0  0  0
    5.3060   -4.6373    0.0000 O   0  0  0  0  0  0  0  0  0  0  0  0
    2.8660    3.2905    0.0000 N   0  0  0  0  0  0  0  0  0  0  0  0
    3.7320    4.7905    0.0000 N   0  0  0  0  0  0  0  0  0  0  0  0
    2.8660    6.2905    0.0000 N   0  0  0  0  0  0  0  0  0  0  0  0
    2.8660    2.2905    0.0000 C   0  0  2  0  0  0  0  0  0  0  0  0
    3.3660    0.7516    0.0000 C   0  0  2  0  0  0  0  0  0  0  0  0
    2.0570    1.7027    0.0000 C   0  0  0  0  0  0  0  0  0  0  0  0
    3.9538   -0.0574    0.0000 C   0  0  0  0  0  0  0  0  0  0  0  0
    2.0000    3.7905    0.0000 C   0  0  0  0  0  0  0  0  0  0  0  0
    3.7320    3.7905    0.0000 C   0  0  0  0  0  0  0  0  0  0  0  0
    2.0000    4.7905    0.0000 C   0  0  0  0  0  0  0  0  0  0  0  0
    2.8660    5.2905    0.0000 C   0  0  0  0  0  0  0  0  0  0  0  0
    3.4184    2.5720    0.0000 H   0  0  0  0  0  0  0  0  0  0  0  0
    3.9784    0.8486    0.0000 H   0  0  0  0  0  0  0  0  0  0  0  0
    1.7470    2.2396    0.0000 H   0  0  0  0  0  0  0  0  0  0  0  0
    1.4906    1.4505    0.0000 H   0  0  0  0  0  0  0  0  0  0  0  0
    4.4678   -0.4041    0.0000 H   0  0  0  0  0  0  0  0  0  0  0  0
    4.3845    0.3886    0.0000 H   0  0  0  0  0  0  0  0  0  0  0  0
    1.4631    3.4805    0.0000 H   0  0  0  0  0  0  0  0  0  0  0  0
    1.4631    5.1005    0.0000 H   0  0  0  0  0  0  0  0  0  0  0  0
    2.7594   -2.1156    0.0000 H   0  0  0  0  0  0  0  0  0  0  0  0
    2.3291    6.6005    0.0000 H   0  0  0  0  0  0  0  0  0  0  0  0
    3.4030    6.6005    0.0000 H   0  0  0  0  0  0  0  0  0  0  0  0
    5.7310   -3.5448    0.0000 H   0  0  0  0  0  0  0  0  0  0  0  0
    4.8326   -6.6005    0.0000 H   0  0  0  0  0  0  0  0  0  0  0  0
    3.1215   -5.5607    0.0000 H   0  0  0  0  0  0  0  0  0  0  0  0
  1  6  1  0  0  0  0
  1  7  1  0  0  0  0
  1  9  1  0  0  0  0
  1 10  2  0  0  0  0
  2  7  1  0  0  0  0
  2 11  1  0  0  0  0
  2 12  1  0  0  0  0
  2 13  2  0  0  0  0
  3 11  1  0  0  0  0
  3 14  1  0  0  0  0
  3 15  1  0  0  0  0
  3 16  2  0  0  0  0
  4 20  1  0  0  0  0
  4 21  1  0  0  0  0
  5 21  1  0  0  0  0
  5 22  1  0  0  0  0
  6 23  1  0  0  0  0
  8 25  2  0  0  0  0
  9 36  1  0  0  0  0
 12 39  1  0  0  0  0
 14 40  1  0  0  0  0
 15 41  1  0  0  0  0
 20 17  1  1  0  0  0
 17 24  1  0  0  0  0
 17 25  1  0  0  0  0
 18 25  1  0  0  0  0
 18 27  2  0  0  0  0
 19 27  1  0  0  0  0
 19 37  1  0  0  0  0
 19 38  1  0  0  0  0
 20 22  1  0  0  0  0
 20 28  1  0  0  0  0
 21 23  1  1  0  0  0
 21 29  1  0  0  0  0
 22 30  1  0  0  0  0
 22 31  1  0  0  0  0
 23 32  1  0  0  0  0
 23 33  1  0  0  0  0
 24 26  2  0  0  0  0
 24 34  1  0  0  0  0
 26 27  1  0  0  0  0
 26 35  1  0  0  0  0
M  END
> <PUBCHEM_COMPOUND_CID>
503022
> <PUBCHEM_COMPOUND_CANONICALIZED>
1
> <PUBCHEM_CACTVS_COMPLEXITY>
792
> <PUBCHEM_CACTVS_HBOND_ACCEPTOR>
13
> <PUBCHEM_CACTVS_HBOND_DONOR>
5
> <PUBCHEM_CACTVS_ROTATABLE_BOND>
8
> <PUBCHEM_CACTVS_SUBSKEYS>
AAADccBzPAMAAAAAAAAAAAAAAAAAASAAAAAgAAAAAAAAAAAAAAAAHgAQCCAACADxgAcBCANABRCoQCJmdICAAAEAAgAIAAAYABCTAAAAAAArAAAAFgIWAAAAAAAAAAAAAAAAAAAAAAAAAAAAAAAAAAAAAA==
> <PUBCHEM_IUPAC_OPENEYE_NAME>
[[(2S,4S)-4-(4-amino-2-oxo-pyrimidin-1-yl)-1,3-dioxolan-2-yl]methoxy-hydroxy-phosphoryl] phosphono hydrogen phosphate
> <PUBCHEM_IUPAC_CAS_NAME>
[[(2S,4S)-4-(4-amino-2-oxo-1-pyrimidinyl)-1,3-dioxolan-2-yl]methoxy-hydroxyphosphoryl] phosphono hydrogen phosphate
> <PUBCHEM_IUPAC_NAME_MARKUP>
[[(2<I>S</I>,4<I>S</I>)-4-(4-amino-2-oxopyrimidin-1-yl)-1,3-dioxolan-2-yl]methoxy-hydroxyphosphoryl] phosphono hydrogen phosphate
> <PUBCHEM_IUPAC_NAME>
[[(2S,4S)-4-(4-amino-2-oxopyrimidin-1-yl)-1,3-dioxolan-2-yl]methoxy-hydroxyphosphoryl] phosphono hydrogen phosphate
> <PUBCHEM_IUPAC_SYSTEMATIC_NAME>
[[(2S,4S)-4-(4-azanyl-2-oxidanylidene-pyrimidin-1-yl)-1,3-dioxolan-2-yl]methoxy-oxidanyl-phosphoryl] phosphono hydrogen phosphate
> <PUBCHEM_IUPAC_TRADITIONAL_NAME>
[[(2S,4S)-4-(4-amino-2-keto-pyrimidin-1-yl)-1,3-dioxolan-2-yl]methoxy-hydroxy-phosphoryl] phosphono hydrogen phosphate
> <PUBCHEM_IUPAC_INCHI>
InChI=1S/C8H14N3O13P3/c9-5-1-2-11(8(12)10-5)6-3-20-7(22-6)4-21-26(16,17)24-27(18,19)23-25(13,14)15/h1-2,6-7H,3-4H2,(H,16,17)(H,18,19)(H2,9,10,12)(H2,13,14,15)/t6-,7-/m0/s1
> <PUBCHEM_IUPAC_INCHIKEY>
WNZKNPIDEYYOOQ-BQBZGAKWSA-N
> <PUBCHEM_XLOGP3_AA>
-5.3
> <PUBCHEM_EXACT_MASS>
452.97394850
> <PUBCHEM_MOLECULAR_FORMULA>
C8H14N3O13P3
> <PUBCHEM_MOLECULAR_WEIGHT>
453.13
> <PUBCHEM_OPENEYE_CAN_SMILES>
C1C(OC(O1)COP(=O)(O)OP(=O)(O)OP(=O)(O)O)N2C=CC(=NC2=O)N
> <PUBCHEM_OPENEYE_ISO_SMILES>
C1[C@H](O[C@H](O1)COP(=O)(O)OP(=O)(O)OP(=O)(O)O)N2C=CC(=NC2=O)N
> <PUBCHEM_CACTVS_TPSA>
237
> <PUBCHEM_MONOISOTOPIC_WEIGHT>
452.97394850
> <PUBCHEM_TOTAL_CHARGE>
0
> <PUBCHEM_HEAVY_ATOM_COUNT>
27
> <PUBCHEM_ATOM_DEF_STEREO_COUNT>
2
> <PUBCHEM_ATOM_UDEF_STEREO_COUNT>
0
> <PUBCHEM_BOND_DEF_STEREO_COUNT>
0
> <PUBCHEM_BOND_UDEF_STEREO_COUNT>
0
> <PUBCHEM_ISOTOPIC_ATOM_COUNT>
0
> <PUBCHEM_COMPONENT_COUNT>
1
> <PUBCHEM_CACTVS_TAUTO_COUNT>
-1
> <PUBCHEM_COORDINATE_TYPE>
1
5
255
> <PUBCHEM_BONDANNOTATIONS>
20  17  5
17  24  8
17  25  8
18  25  8
18  27  8
21  23  5
24  26  8
26  27  8
$$$$
