503083
  -OEChem-10302200282D
 92 95  0     1  0  0  0  0  0999 V2000
   12.4603   -0.3170    0.0000 S   0  0  0  0  0  0  0  0  0  0  0  0
    8.9962   -1.3170    0.0000 S   0  0  0  0  0  0  0  0  0  0  0  0
   12.4603    1.6830    0.0000 O   0  0  0  0  0  0  0  0  0  0  0  0
   11.9603   -1.1830    0.0000 O   0  0  0  0  0  0  0  0  0  0  0  0
   12.9603    0.5490    0.0000 O   0  0  0  0  0  0  0  0  0  0  0  0
    8.9962    2.6830    0.0000 O   0  0  0  0  0  0  0  0  0  0  0  0
    9.9962   -1.3170    0.0000 O   0  0  0  0  0  0  0  0  0  0  0  0
    7.9962   -1.3170    0.0000 O   0  0  0  0  0  0  0  0  0  0  0  0
   11.5942   -1.8170    0.0000 O   0  0  0  0  0  0  0  0  0  0  0  0
    6.3981    0.1830    0.0000 O   0  0  0  0  0  0  0  0  0  0  0  0
    9.8622    1.1830    0.0000 N   0  0  0  0  0  0  0  0  0  0  0  0
    7.2641    1.6830    0.0000 N   0  0  0  0  0  0  0  0  0  0  0  0
   12.4603   -3.3170    0.0000 N   0  0  0  0  0  0  0  0  0  0  0  0
    4.6660    1.1830    0.0000 N   0  0  0  0  0  0  0  0  0  0  0  0
   10.7282    1.6830    0.0000 C   0  0  2  0  0  0  0  0  0  0  0  0
   11.5942    1.1830    0.0000 C   0  0  2  0  0  0  0  0  0  0  0  0
   11.5942    0.1830    0.0000 C   0  0  0  0  0  0  0  0  0  0  0  0
   10.7282    2.6830    0.0000 C   0  0  0  0  0  0  0  0  0  0  0  0
    8.1301    1.1830    0.0000 C   0  0  2  0  0  0  0  0  0  0  0  0
    8.9962    1.6830    0.0000 C   0  0  0  0  0  0  0  0  0  0  0  0
    8.1301    0.1830    0.0000 C   0  0  0  0  0  0  0  0  0  0  0  0
   11.5942    3.1830    0.0000 C   0  0  0  0  0  0  0  0  0  0  0  0
   13.3263   -0.8170    0.0000 C   0  0  0  0  0  0  0  0  0  0  0  0
    8.9962   -0.3170    0.0000 C   0  0  0  0  0  0  0  0  0  0  0  0
   13.3263   -1.8170    0.0000 C   0  0  0  0  0  0  0  0  0  0  0  0
   11.5942    4.1830    0.0000 C   0  0  0  0  0  0  0  0  0  0  0  0
   12.4603    2.6830    0.0000 C   0  0  0  0  0  0  0  0  0  0  0  0
   11.5942   -3.8170    0.0000 C   0  0  0  0  0  0  0  0  0  0  0  0
   14.1923   -0.3170    0.0000 C   0  0  0  0  0  0  0  0  0  0  0  0
   12.4603   -2.3170    0.0000 C   0  0  0  0  0  0  0  0  0  0  0  0
   14.1923   -2.3170    0.0000 C   0  0  0  0  0  0  0  0  0  0  0  0
    6.3981    1.1830    0.0000 C   0  0  0  0  0  0  0  0  0  0  0  0
   15.0583   -0.8170    0.0000 C   0  0  0  0  0  0  0  0  0  0  0  0
   12.4603    4.6830    0.0000 C   0  0  0  0  0  0  0  0  0  0  0  0
   13.3263    3.1830    0.0000 C   0  0  0  0  0  0  0  0  0  0  0  0
    8.9962   -2.3170    0.0000 C   0  0  0  0  0  0  0  0  0  0  0  0
   10.7282   -4.3170    0.0000 C   0  0  0  0  0  0  0  0  0  0  0  0
   12.0942   -4.6830    0.0000 C   0  0  0  0  0  0  0  0  0  0  0  0
   11.0942   -2.9510    0.0000 C   0  0  0  0  0  0  0  0  0  0  0  0
   15.0583   -1.8170    0.0000 C   0  0  0  0  0  0  0  0  0  0  0  0
   13.3263    4.1830    0.0000 C   0  0  0  0  0  0  0  0  0  0  0  0
    5.5321    1.6830    0.0000 C   0  0  0  0  0  0  0  0  0  0  0  0
    5.5321    2.6830    0.0000 C   0  0  0  0  0  0  0  0  0  0  0  0
    3.8000    1.6830    0.0000 C   0  0  0  0  0  0  0  0  0  0  0  0
    3.8000    2.6830    0.0000 C   0  0  0  0  0  0  0  0  0  0  0  0
    4.6660    3.1830    0.0000 C   0  0  0  0  0  0  0  0  0  0  0  0
    2.9061    1.1484    0.0000 C   0  0  0  0  0  0  0  0  0  0  0  0
    2.9061    3.2177    0.0000 C   0  0  0  0  0  0  0  0  0  0  0  0
    2.0000    1.6622    0.0000 C   0  0  0  0  0  0  0  0  0  0  0  0
    2.0000    2.7038    0.0000 C   0  0  0  0  0  0  0  0  0  0  0  0
   10.7282    1.0630    0.0000 H   0  0  0  0  0  0  0  0  0  0  0  0
   11.5942    1.8030    0.0000 H   0  0  0  0  0  0  0  0  0  0  0  0
   10.9837    0.2907    0.0000 H   0  0  0  0  0  0  0  0  0  0  0  0
   11.3822   -0.3996    0.0000 H   0  0  0  0  0  0  0  0  0  0  0  0
   10.5162    3.2656    0.0000 H   0  0  0  0  0  0  0  0  0  0  0  0
   10.1176    2.5753    0.0000 H   0  0  0  0  0  0  0  0  0  0  0  0
    9.8622    0.5630    0.0000 H   0  0  0  0  0  0  0  0  0  0  0  0
    7.5932    0.8730    0.0000 H   0  0  0  0  0  0  0  0  0  0  0  0
    7.5196    0.2907    0.0000 H   0  0  0  0  0  0  0  0  0  0  0  0
    7.9181   -0.3996    0.0000 H   0  0  0  0  0  0  0  0  0  0  0  0
    9.6067   -0.4246    0.0000 H   0  0  0  0  0  0  0  0  0  0  0  0
    9.2082    0.2656    0.0000 H   0  0  0  0  0  0  0  0  0  0  0  0
   12.9972    1.3730    0.0000 H   0  0  0  0  0  0  0  0  0  0  0  0
    7.2641    2.3030    0.0000 H   0  0  0  0  0  0  0  0  0  0  0  0
   11.0573    4.4930    0.0000 H   0  0  0  0  0  0  0  0  0  0  0  0
   12.4603    2.0630    0.0000 H   0  0  0  0  0  0  0  0  0  0  0  0
   14.1923    0.3030    0.0000 H   0  0  0  0  0  0  0  0  0  0  0  0
   12.9972   -3.6270    0.0000 H   0  0  0  0  0  0  0  0  0  0  0  0
   14.1923   -2.9370    0.0000 H   0  0  0  0  0  0  0  0  0  0  0  0
   15.5953   -0.5070    0.0000 H   0  0  0  0  0  0  0  0  0  0  0  0
   12.4603    5.3030    0.0000 H   0  0  0  0  0  0  0  0  0  0  0  0
   13.8632    2.8730    0.0000 H   0  0  0  0  0  0  0  0  0  0  0  0
    8.3762   -2.3170    0.0000 H   0  0  0  0  0  0  0  0  0  0  0  0
    8.9962   -2.9370    0.0000 H   0  0  0  0  0  0  0  0  0  0  0  0
    9.6162   -2.3170    0.0000 H   0  0  0  0  0  0  0  0  0  0  0  0
   10.4182   -3.7800    0.0000 H   0  0  0  0  0  0  0  0  0  0  0  0
   10.1913   -4.6270    0.0000 H   0  0  0  0  0  0  0  0  0  0  0  0
   11.0382   -4.8539    0.0000 H   0  0  0  0  0  0  0  0  0  0  0  0
   11.5573   -4.9930    0.0000 H   0  0  0  0  0  0  0  0  0  0  0  0
   12.4042   -5.2200    0.0000 H   0  0  0  0  0  0  0  0  0  0  0  0
   12.6312   -4.3730    0.0000 H   0  0  0  0  0  0  0  0  0  0  0  0
   11.6312   -2.6410    0.0000 H   0  0  0  0  0  0  0  0  0  0  0  0
   10.7842   -2.4140    0.0000 H   0  0  0  0  0  0  0  0  0  0  0  0
   10.5573   -3.2610    0.0000 H   0  0  0  0  0  0  0  0  0  0  0  0
   15.5953   -2.1270    0.0000 H   0  0  0  0  0  0  0  0  0  0  0  0
   13.8632    4.4930    0.0000 H   0  0  0  0  0  0  0  0  0  0  0  0
    6.0690    2.9930    0.0000 H   0  0  0  0  0  0  0  0  0  0  0  0
    4.6660    3.8030    0.0000 H   0  0  0  0  0  0  0  0  0  0  0  0
    2.9132    0.5284    0.0000 H   0  0  0  0  0  0  0  0  0  0  0  0
    2.9132    3.8376    0.0000 H   0  0  0  0  0  0  0  0  0  0  0  0
    1.4643    1.3501    0.0000 H   0  0  0  0  0  0  0  0  0  0  0  0
    1.4643    3.0159    0.0000 H   0  0  0  0  0  0  0  0  0  0  0  0
  1  4  2  0  0  0  0
  1  5  2  0  0  0  0
  1 17  1  0  0  0  0
  1 23  1  0  0  0  0
  2  7  2  0  0  0  0
  2  8  2  0  0  0  0
  2 24  1  0  0  0  0
  2 36  1  0  0  0  0
 16  3  1  1  0  0  0
  3 63  1  0  0  0  0
  6 20  2  0  0  0  0
  9 30  2  0  0  0  0
 10 32  2  0  0  0  0
 15 11  1  1  0  0  0
 11 20  1  0  0  0  0
 11 57  1  0  0  0  0
 19 12  1  6  0  0  0
 12 32  1  0  0  0  0
 12 64  1  0  0  0  0
 13 28  1  0  0  0  0
 13 30  1  0  0  0  0
 13 68  1  0  0  0  0
 14 42  2  0  0  0  0
 14 44  1  0  0  0  0
 15 16  1  0  0  0  0
 15 18  1  0  0  0  0
 15 51  1  0  0  0  0
 16 17  1  0  0  0  0
 16 52  1  0  0  0  0
 17 53  1  0  0  0  0
 17 54  1  0  0  0  0
 18 22  1  0  0  0  0
 18 55  1  0  0  0  0
 18 56  1  0  0  0  0
 19 20  1  0  0  0  0
 19 21  1  0  0  0  0
 19 58  1  0  0  0  0
 21 24  1  0  0  0  0
 21 59  1  0  0  0  0
 21 60  1  0  0  0  0
 22 26  2  0  0  0  0
 22 27  1  0  0  0  0
 23 25  1  0  0  0  0
 23 29  2  0  0  0  0
 24 61  1  0  0  0  0
 24 62  1  0  0  0  0
 25 30  1  0  0  0  0
 25 31  2  0  0  0  0
 26 34  1  0  0  0  0
 26 65  1  0  0  0  0
 27 35  2  0  0  0  0
 27 66  1  0  0  0  0
 28 37  1  0  0  0  0
 28 38  1  0  0  0  0
 28 39  1  0  0  0  0
 29 33  1  0  0  0  0
 29 67  1  0  0  0  0
 31 40  1  0  0  0  0
 31 69  1  0  0  0  0
 32 42  1  0  0  0  0
 33 40  2  0  0  0  0
 33 70  1  0  0  0  0
 34 41  2  0  0  0  0
 34 71  1  0  0  0  0
 35 41  1  0  0  0  0
 35 72  1  0  0  0  0
 36 73  1  0  0  0  0
 36 74  1  0  0  0  0
 36 75  1  0  0  0  0
 37 76  1  0  0  0  0
 37 77  1  0  0  0  0
 37 78  1  0  0  0  0
 38 79  1  0  0  0  0
 38 80  1  0  0  0  0
 38 81  1  0  0  0  0
 39 82  1  0  0  0  0
 39 83  1  0  0  0  0
 39 84  1  0  0  0  0
 40 85  1  0  0  0  0
 41 86  1  0  0  0  0
 42 43  1  0  0  0  0
 43 46  2  0  0  0  0
 43 87  1  0  0  0  0
 44 45  1  0  0  0  0
 44 47  2  0  0  0  0
 45 46  1  0  0  0  0
 45 48  2  0  0  0  0
 46 88  1  0  0  0  0
 47 49  1  0  0  0  0
 47 89  1  0  0  0  0
 48 50  1  0  0  0  0
 48 90  1  0  0  0  0
 49 50  2  0  0  0  0
 49 91  1  0  0  0  0
 50 92  1  0  0  0  0
M  END
> <PUBCHEM_COMPOUND_CID>
503083
> <PUBCHEM_COMPOUND_CANONICALIZED>
1
> <PUBCHEM_CACTVS_COMPLEXITY>
1370
> <PUBCHEM_CACTVS_HBOND_ACCEPTOR>
9
> <PUBCHEM_CACTVS_HBOND_DONOR>
4
> <PUBCHEM_CACTVS_ROTATABLE_BOND>
15
> <PUBCHEM_CACTVS_SUBSKEYS>
AAADcfB/vABgAAAAAAAAAAAAAAAAAAAAAAA8YMEAAAAAAACx9AAAHgQQCAAADLzl3gaywfLIEgqoAyVyVHDCgCAnCjAImLm4ZNgKcPLglbGUYQhklgD4yYeYyKCOAAAAAAAGAAAAAAAAAAwAAAAAAAAAAA==
> <PUBCHEM_IUPAC_OPENEYE_NAME>
N-[(1S)-1-[[(1S,2R)-1-benzyl-3-[2-(tert-butylcarbamoyl)phenyl]sulfonyl-2-hydroxy-propyl]carbamoyl]-3-methylsulfonyl-propyl]quinoline-2-carboxamide
> <PUBCHEM_IUPAC_CAS_NAME>
N-[(2S)-1-[[(2S,3R)-4-[2-[(tert-butylamino)-oxomethyl]phenyl]sulfonyl-3-hydroxy-1-phenylbutan-2-yl]amino]-4-methylsulfonyl-1-oxobutan-2-yl]-2-quinolinecarboxamide
> <PUBCHEM_IUPAC_NAME_MARKUP>
<I>N</I>-[(2<I>S</I>)-1-[[(2<I>S</I>,3<I>R</I>)-4-[2-(<I>tert</I>-butylcarbamoyl)phenyl]sulfonyl-3-hydroxy-1-phenylbutan-2-yl]amino]-4-methylsulfonyl-1-oxobutan-2-yl]quinoline-2-carboxamide
> <PUBCHEM_IUPAC_NAME>
N-[(2S)-1-[[(2S,3R)-4-[2-(tert-butylcarbamoyl)phenyl]sulfonyl-3-hydroxy-1-phenylbutan-2-yl]amino]-4-methylsulfonyl-1-oxobutan-2-yl]quinoline-2-carboxamide
> <PUBCHEM_IUPAC_SYSTEMATIC_NAME>
N-[(2S)-1-[[(2S,3R)-4-[2-(tert-butylcarbamoyl)phenyl]sulfonyl-3-oxidanyl-1-phenyl-butan-2-yl]amino]-4-methylsulfonyl-1-oxidanylidene-butan-2-yl]quinoline-2-carboxamide
> <PUBCHEM_IUPAC_TRADITIONAL_NAME>
N-[(1S)-1-[[(1S,2R)-1-benzyl-3-[2-(tert-butylcarbamoyl)phenyl]sulfonyl-2-hydroxy-propyl]carbamoyl]-3-mesyl-propyl]quinaldamide
> <PUBCHEM_IUPAC_INCHI>
InChI=1S/C36H42N4O8S2/c1-36(2,3)40-33(42)26-15-9-11-17-32(26)50(47,48)23-31(41)30(22-24-12-6-5-7-13-24)39-35(44)29(20-21-49(4,45)46)38-34(43)28-19-18-25-14-8-10-16-27(25)37-28/h5-19,29-31,41H,20-23H2,1-4H3,(H,38,43)(H,39,44)(H,40,42)/t29-,30-,31-/m0/s1
> <PUBCHEM_IUPAC_INCHIKEY>
GZIPSAOPAVAUPZ-CHQNGUEUSA-N
> <PUBCHEM_XLOGP3_AA>
3.5
> <PUBCHEM_EXACT_MASS>
722.24440666
> <PUBCHEM_MOLECULAR_FORMULA>
C36H42N4O8S2
> <PUBCHEM_MOLECULAR_WEIGHT>
722.9
> <PUBCHEM_OPENEYE_CAN_SMILES>
CC(C)(C)NC(=O)C1=CC=CC=C1S(=O)(=O)CC(C(CC2=CC=CC=C2)NC(=O)C(CCS(=O)(=O)C)NC(=O)C3=NC4=CC=CC=C4C=C3)O
> <PUBCHEM_OPENEYE_ISO_SMILES>
CC(C)(C)NC(=O)C1=CC=CC=C1S(=O)(=O)C[C@@H]([C@H](CC2=CC=CC=C2)NC(=O)[C@H](CCS(=O)(=O)C)NC(=O)C3=NC4=CC=CC=C4C=C3)O
> <PUBCHEM_CACTVS_TPSA>
206
> <PUBCHEM_MONOISOTOPIC_WEIGHT>
722.24440666
> <PUBCHEM_TOTAL_CHARGE>
0
> <PUBCHEM_HEAVY_ATOM_COUNT>
50
> <PUBCHEM_ATOM_DEF_STEREO_COUNT>
3
> <PUBCHEM_ATOM_UDEF_STEREO_COUNT>
0
> <PUBCHEM_BOND_DEF_STEREO_COUNT>
0
> <PUBCHEM_BOND_UDEF_STEREO_COUNT>
0
> <PUBCHEM_ISOTOPIC_ATOM_COUNT>
0
> <PUBCHEM_COMPONENT_COUNT>
1
> <PUBCHEM_CACTVS_TAUTO_COUNT>
-1
> <PUBCHEM_COORDINATE_TYPE>
1
5
255
> <PUBCHEM_BONDANNOTATIONS>
15  11  5
19  12  6
14  42  8
14  44  8
22  26  8
22  27  8
23  25  8
23  29  8
25  31  8
26  34  8
27  35  8
29  33  8
16  3  5
31  40  8
33  40  8
34  41  8
35  41  8
42  43  8
43  46  8
44  45  8
44  47  8
45  46  8
45  48  8
47  49  8
48  50  8
49  50  8
$$$$
