503101
  -OEChem-10302200282D
 86 87  0     1  0  0  0  0  0999 V2000
   10.3312   -0.9330    0.0000 S   0  0  0  0  0  0  0  0  0  0  0  0
    8.5991    0.0670    0.0000 O   0  0  0  0  0  0  0  0  0  0  0  0
    7.7331    0.5670    0.0000 O   0  0  0  0  0  0  0  0  0  0  0  0
    5.1350    3.0670    0.0000 O   0  0  0  0  0  0  0  0  0  0  0  0
    4.2690    1.5670    0.0000 O   0  0  0  0  0  0  0  0  0  0  0  0
   11.1972    0.5670    0.0000 O   0  0  0  0  0  0  0  0  0  0  0  0
    3.4030   -0.9330    0.0000 O   0  0  0  0  0  0  0  0  0  0  0  0
    6.8671   -0.9330    0.0000 N   0  0  0  0  0  0  0  0  0  0  0  0
    6.0010    1.5670    0.0000 N   0  0  0  0  0  0  0  0  0  0  0  0
   12.9292    0.5670    0.0000 N   0  0  0  0  0  0  0  0  0  0  0  0
    2.5369    0.5670    0.0000 N   0  0  0  0  0  0  0  0  0  0  0  0
    7.7331   -1.4330    0.0000 C   0  0  2  0  0  0  0  0  0  0  0  0
    8.5991   -0.9330    0.0000 C   0  0  2  0  0  0  0  0  0  0  0  0
    7.7331   -2.4330    0.0000 C   0  0  0  0  0  0  0  0  0  0  0  0
    6.0010    0.5670    0.0000 C   0  0  2  0  0  0  0  0  0  0  0  0
    9.4651   -1.4330    0.0000 C   0  0  0  0  0  0  0  0  0  0  0  0
    6.8671    0.0670    0.0000 C   0  0  0  0  0  0  0  0  0  0  0  0
    6.8671   -2.9330    0.0000 C   0  0  0  0  0  0  0  0  0  0  0  0
    5.1350    0.0670    0.0000 C   0  0  0  0  0  0  0  0  0  0  0  0
    4.2690    0.5670    0.0000 C   0  0  0  0  0  0  0  0  0  0  0  0
   12.9292    1.5670    0.0000 C   0  0  0  0  0  0  0  0  0  0  0  0
    6.8671   -3.9330    0.0000 C   0  0  0  0  0  0  0  0  0  0  0  0
    6.0010   -2.4330    0.0000 C   0  0  0  0  0  0  0  0  0  0  0  0
   11.1972   -1.4330    0.0000 C   0  0  0  0  0  0  0  0  0  0  0  0
    4.2690    3.5670    0.0000 C   0  0  0  0  0  0  0  0  0  0  0  0
    5.1350    2.0670    0.0000 C   0  0  0  0  0  0  0  0  0  0  0  0
   12.0632   -0.9330    0.0000 C   0  0  0  0  0  0  0  0  0  0  0  0
   12.9292    2.5670    0.0000 C   0  0  0  0  0  0  0  0  0  0  0  0
   13.9292    1.5670    0.0000 C   0  0  0  0  0  0  0  0  0  0  0  0
   11.9292    1.5670    0.0000 C   0  0  0  0  0  0  0  0  0  0  0  0
    6.0010   -4.4330    0.0000 C   0  0  0  0  0  0  0  0  0  0  0  0
    5.1350   -2.9330    0.0000 C   0  0  0  0  0  0  0  0  0  0  0  0
   12.0632    0.0670    0.0000 C   0  0  0  0  0  0  0  0  0  0  0  0
    3.4030    0.0670    0.0000 C   0  0  0  0  0  0  0  0  0  0  0  0
    5.1350   -3.9330    0.0000 C   0  0  0  0  0  0  0  0  0  0  0  0
   11.1972   -2.4330    0.0000 C   0  0  0  0  0  0  0  0  0  0  0  0
    3.4030    4.0670    0.0000 C   0  0  0  0  0  0  0  0  0  0  0  0
    4.7690    4.4330    0.0000 C   0  0  0  0  0  0  0  0  0  0  0  0
    3.7690    2.7010    0.0000 C   0  0  0  0  0  0  0  0  0  0  0  0
   12.9292   -1.4330    0.0000 C   0  0  0  0  0  0  0  0  0  0  0  0
   12.0632   -2.9330    0.0000 C   0  0  0  0  0  0  0  0  0  0  0  0
   12.9292   -2.4330    0.0000 C   0  0  0  0  0  0  0  0  0  0  0  0
    7.7331   -0.8130    0.0000 H   0  0  0  0  0  0  0  0  0  0  0  0
    8.0622   -0.6230    0.0000 H   0  0  0  0  0  0  0  0  0  0  0  0
    7.9451   -3.0156    0.0000 H   0  0  0  0  0  0  0  0  0  0  0  0
    8.3437   -2.3253    0.0000 H   0  0  0  0  0  0  0  0  0  0  0  0
    6.3301   -1.2430    0.0000 H   0  0  0  0  0  0  0  0  0  0  0  0
    6.5380    0.8770    0.0000 H   0  0  0  0  0  0  0  0  0  0  0  0
    9.0666   -1.9080    0.0000 H   0  0  0  0  0  0  0  0  0  0  0  0
    9.8637   -1.9080    0.0000 H   0  0  0  0  0  0  0  0  0  0  0  0
    4.7365   -0.4080    0.0000 H   0  0  0  0  0  0  0  0  0  0  0  0
    5.5335   -0.4080    0.0000 H   0  0  0  0  0  0  0  0  0  0  0  0
    6.5380    1.8770    0.0000 H   0  0  0  0  0  0  0  0  0  0  0  0
    4.6675    1.0419    0.0000 H   0  0  0  0  0  0  0  0  0  0  0  0
    3.8705    1.0419    0.0000 H   0  0  0  0  0  0  0  0  0  0  0  0
    9.1360    0.3770    0.0000 H   0  0  0  0  0  0  0  0  0  0  0  0
    7.4040   -4.2430    0.0000 H   0  0  0  0  0  0  0  0  0  0  0  0
    6.0010   -1.8130    0.0000 H   0  0  0  0  0  0  0  0  0  0  0  0
   13.4662    0.2570    0.0000 H   0  0  0  0  0  0  0  0  0  0  0  0
   13.5492    2.5670    0.0000 H   0  0  0  0  0  0  0  0  0  0  0  0
   12.9292    3.1870    0.0000 H   0  0  0  0  0  0  0  0  0  0  0  0
   12.3092    2.5670    0.0000 H   0  0  0  0  0  0  0  0  0  0  0  0
   13.9292    0.9470    0.0000 H   0  0  0  0  0  0  0  0  0  0  0  0
   14.5492    1.5670    0.0000 H   0  0  0  0  0  0  0  0  0  0  0  0
   13.9292    2.1870    0.0000 H   0  0  0  0  0  0  0  0  0  0  0  0
   11.9292    2.1870    0.0000 H   0  0  0  0  0  0  0  0  0  0  0  0
   11.3092    1.5670    0.0000 H   0  0  0  0  0  0  0  0  0  0  0  0
   11.9292    0.9470    0.0000 H   0  0  0  0  0  0  0  0  0  0  0  0
    6.0010   -5.0530    0.0000 H   0  0  0  0  0  0  0  0  0  0  0  0
    4.5981   -2.6230    0.0000 H   0  0  0  0  0  0  0  0  0  0  0  0
    4.5981   -4.2430    0.0000 H   0  0  0  0  0  0  0  0  0  0  0  0
   10.6603   -2.7430    0.0000 H   0  0  0  0  0  0  0  0  0  0  0  0
    3.7130    4.6039    0.0000 H   0  0  0  0  0  0  0  0  0  0  0  0
    2.8660    4.3770    0.0000 H   0  0  0  0  0  0  0  0  0  0  0  0
    3.0930    3.5300    0.0000 H   0  0  0  0  0  0  0  0  0  0  0  0
    5.3059    4.1230    0.0000 H   0  0  0  0  0  0  0  0  0  0  0  0
    5.0790    4.9700    0.0000 H   0  0  0  0  0  0  0  0  0  0  0  0
    4.2320    4.7430    0.0000 H   0  0  0  0  0  0  0  0  0  0  0  0
    3.2320    3.0110    0.0000 H   0  0  0  0  0  0  0  0  0  0  0  0
    3.4590    2.1640    0.0000 H   0  0  0  0  0  0  0  0  0  0  0  0
    4.3059    2.3910    0.0000 H   0  0  0  0  0  0  0  0  0  0  0  0
   13.4662   -1.1230    0.0000 H   0  0  0  0  0  0  0  0  0  0  0  0
   12.0632   -3.5530    0.0000 H   0  0  0  0  0  0  0  0  0  0  0  0
   13.4662   -2.7430    0.0000 H   0  0  0  0  0  0  0  0  0  0  0  0
    2.0000    0.2570    0.0000 H   0  0  0  0  0  0  0  0  0  0  0  0
    2.5369    1.1870    0.0000 H   0  0  0  0  0  0  0  0  0  0  0  0
  1 16  1  0  0  0  0
  1 24  1  0  0  0  0
 13  2  1  1  0  0  0
  2 56  1  0  0  0  0
  3 17  2  0  0  0  0
  4 25  1  0  0  0  0
  4 26  1  0  0  0  0
  5 26  2  0  0  0  0
  6 33  2  0  0  0  0
  7 34  2  0  0  0  0
 12  8  1  6  0  0  0
  8 17  1  0  0  0  0
  8 47  1  0  0  0  0
 15  9  1  6  0  0  0
  9 26  1  0  0  0  0
  9 53  1  0  0  0  0
 10 21  1  0  0  0  0
 10 33  1  0  0  0  0
 10 59  1  0  0  0  0
 11 34  1  0  0  0  0
 11 85  1  0  0  0  0
 11 86  1  0  0  0  0
 12 13  1  0  0  0  0
 12 14  1  0  0  0  0
 12 43  1  0  0  0  0
 13 16  1  0  0  0  0
 13 44  1  0  0  0  0
 14 18  1  0  0  0  0
 14 45  1  0  0  0  0
 14 46  1  0  0  0  0
 15 17  1  0  0  0  0
 15 19  1  0  0  0  0
 15 48  1  0  0  0  0
 16 49  1  0  0  0  0
 16 50  1  0  0  0  0
 18 22  2  0  0  0  0
 18 23  1  0  0  0  0
 19 20  1  0  0  0  0
 19 51  1  0  0  0  0
 19 52  1  0  0  0  0
 20 34  1  0  0  0  0
 20 54  1  0  0  0  0
 20 55  1  0  0  0  0
 21 28  1  0  0  0  0
 21 29  1  0  0  0  0
 21 30  1  0  0  0  0
 22 31  1  0  0  0  0
 22 57  1  0  0  0  0
 23 32  2  0  0  0  0
 23 58  1  0  0  0  0
 24 27  1  0  0  0  0
 24 36  2  0  0  0  0
 25 37  1  0  0  0  0
 25 38  1  0  0  0  0
 25 39  1  0  0  0  0
 27 33  1  0  0  0  0
 27 40  2  0  0  0  0
 28 60  1  0  0  0  0
 28 61  1  0  0  0  0
 28 62  1  0  0  0  0
 29 63  1  0  0  0  0
 29 64  1  0  0  0  0
 29 65  1  0  0  0  0
 30 66  1  0  0  0  0
 30 67  1  0  0  0  0
 30 68  1  0  0  0  0
 31 35  2  0  0  0  0
 31 69  1  0  0  0  0
 32 35  1  0  0  0  0
 32 70  1  0  0  0  0
 35 71  1  0  0  0  0
 36 41  1  0  0  0  0
 36 72  1  0  0  0  0
 37 73  1  0  0  0  0
 37 74  1  0  0  0  0
 37 75  1  0  0  0  0
 38 76  1  0  0  0  0
 38 77  1  0  0  0  0
 38 78  1  0  0  0  0
 39 79  1  0  0  0  0
 39 80  1  0  0  0  0
 39 81  1  0  0  0  0
 40 42  1  0  0  0  0
 40 82  1  0  0  0  0
 41 42  2  0  0  0  0
 41 83  1  0  0  0  0
 42 84  1  0  0  0  0
M  END
> <PUBCHEM_COMPOUND_CID>
503101
> <PUBCHEM_COMPOUND_CANONICALIZED>
1
> <PUBCHEM_CACTVS_COMPLEXITY>
897
> <PUBCHEM_CACTVS_HBOND_ACCEPTOR>
7
> <PUBCHEM_CACTVS_HBOND_DONOR>
5
> <PUBCHEM_CACTVS_ROTATABLE_BOND>
16
> <PUBCHEM_CACTVS_SUBSKEYS>
AAADcfB7uABAAAAAAAAAAAAAAAAAAAAAAAAwYAAAAAAAAAABQAAAHgQQCAAADPzl2AayCYLABgiIAiFSGACCAAAkCBAIiJmIBMkKcDKglTGcYQhklgC4iYecy6COAAAAAAAEAAAAAAAAAAgAAAAAAAAAAA==
> <PUBCHEM_IUPAC_OPENEYE_NAME>
tert-butyl N-[(1S)-4-amino-1-[[(1S,2R)-1-benzyl-3-[2-(tert-butylcarbamoyl)phenyl]sulfanyl-2-hydroxy-propyl]carbamoyl]-4-oxo-butyl]carbamate
> <PUBCHEM_IUPAC_CAS_NAME>
N-[(2S)-5-amino-1-[[(2S,3R)-4-[[2-[(tert-butylamino)-oxomethyl]phenyl]thio]-3-hydroxy-1-phenylbutan-2-yl]amino]-1,5-dioxopentan-2-yl]carbamic acid tert-butyl ester
> <PUBCHEM_IUPAC_NAME_MARKUP>
<I>tert</I>-butyl <I>N</I>-[(2<I>S</I>)-5-amino-1-[[(2<I>S</I>,3<I>R</I>)-4-[2-(<I>tert</I>-butylcarbamoyl)phenyl]sulfanyl-3-hydroxy-1-phenylbutan-2-yl]amino]-1,5-dioxopentan-2-yl]carbamate
> <PUBCHEM_IUPAC_NAME>
tert-butyl N-[(2S)-5-amino-1-[[(2S,3R)-4-[2-(tert-butylcarbamoyl)phenyl]sulfanyl-3-hydroxy-1-phenylbutan-2-yl]amino]-1,5-dioxopentan-2-yl]carbamate
> <PUBCHEM_IUPAC_SYSTEMATIC_NAME>
tert-butyl N-[(2S)-5-azanyl-1-[[(2S,3R)-4-[2-(tert-butylcarbamoyl)phenyl]sulfanyl-3-oxidanyl-1-phenyl-butan-2-yl]amino]-1,5-bis(oxidanylidene)pentan-2-yl]carbamate
> <PUBCHEM_IUPAC_TRADITIONAL_NAME>
N-[(1S)-4-amino-1-[[(1S,2R)-1-benzyl-3-[[2-(tert-butylcarbamoyl)phenyl]thio]-2-hydroxy-propyl]carbamoyl]-4-keto-butyl]carbamic acid tert-butyl ester
> <PUBCHEM_IUPAC_INCHI>
InChI=1S/C31H44N4O6S/c1-30(2,3)35-27(38)21-14-10-11-15-25(21)42-19-24(36)23(18-20-12-8-7-9-13-20)33-28(39)22(16-17-26(32)37)34-29(40)41-31(4,5)6/h7-15,22-24,36H,16-19H2,1-6H3,(H2,32,37)(H,33,39)(H,34,40)(H,35,38)/t22-,23-,24-/m0/s1
> <PUBCHEM_IUPAC_INCHIKEY>
MAPAXCUXCOAHQC-HJOGWXRNSA-N
> <PUBCHEM_XLOGP3_AA>
3.4
> <PUBCHEM_EXACT_MASS>
600.29815631
> <PUBCHEM_MOLECULAR_FORMULA>
C31H44N4O6S
> <PUBCHEM_MOLECULAR_WEIGHT>
600.8
> <PUBCHEM_OPENEYE_CAN_SMILES>
CC(C)(C)NC(=O)C1=CC=CC=C1SCC(C(CC2=CC=CC=C2)NC(=O)C(CCC(=O)N)NC(=O)OC(C)(C)C)O
> <PUBCHEM_OPENEYE_ISO_SMILES>
CC(C)(C)NC(=O)C1=CC=CC=C1SC[C@@H]([C@H](CC2=CC=CC=C2)NC(=O)[C@H](CCC(=O)N)NC(=O)OC(C)(C)C)O
> <PUBCHEM_CACTVS_TPSA>
185
> <PUBCHEM_MONOISOTOPIC_WEIGHT>
600.29815631
> <PUBCHEM_TOTAL_CHARGE>
0
> <PUBCHEM_HEAVY_ATOM_COUNT>
42
> <PUBCHEM_ATOM_DEF_STEREO_COUNT>
3
> <PUBCHEM_ATOM_UDEF_STEREO_COUNT>
0
> <PUBCHEM_BOND_DEF_STEREO_COUNT>
0
> <PUBCHEM_BOND_UDEF_STEREO_COUNT>
0
> <PUBCHEM_ISOTOPIC_ATOM_COUNT>
0
> <PUBCHEM_COMPONENT_COUNT>
1
> <PUBCHEM_CACTVS_TAUTO_COUNT>
-1
> <PUBCHEM_COORDINATE_TYPE>
1
5
255
> <PUBCHEM_BONDANNOTATIONS>
18  22  8
18  23  8
13  2  5
22  31  8
23  32  8
24  27  8
24  36  8
27  40  8
31  35  8
32  35  8
36  41  8
40  42  8
41  42  8
12  8  6
15  9  6
$$$$
