503102
  -OEChem-10302200282D
 85 86  0     1  0  0  0  0  0999 V2000
    8.9282   -0.9330    0.0000 S   0  0  0  0  0  0  0  0  0  0  0  0
    7.1962    0.0670    0.0000 O   0  0  0  0  0  0  0  0  0  0  0  0
    6.3301    0.5670    0.0000 O   0  0  0  0  0  0  0  0  0  0  0  0
    3.7320    3.0670    0.0000 O   0  0  0  0  0  0  0  0  0  0  0  0
    2.8660    1.5670    0.0000 O   0  0  0  0  0  0  0  0  0  0  0  0
    9.7942    0.5670    0.0000 O   0  0  0  0  0  0  0  0  0  0  0  0
    5.4641   -0.9330    0.0000 N   0  0  0  0  0  0  0  0  0  0  0  0
    4.5981    1.5670    0.0000 N   0  0  0  0  0  0  0  0  0  0  0  0
   11.5263    0.5670    0.0000 N   0  0  0  0  0  0  0  0  0  0  0  0
    6.3301   -1.4330    0.0000 C   0  0  2  0  0  0  0  0  0  0  0  0
    7.1962   -0.9330    0.0000 C   0  0  2  0  0  0  0  0  0  0  0  0
    4.5981    0.5670    0.0000 C   0  0  1  0  0  0  0  0  0  0  0  0
    6.3301   -2.4330    0.0000 C   0  0  0  0  0  0  0  0  0  0  0  0
    3.7320    0.0670    0.0000 C   0  0  0  0  0  0  0  0  0  0  0  0
    5.4641    0.0670    0.0000 C   0  0  0  0  0  0  0  0  0  0  0  0
    8.0622   -1.4330    0.0000 C   0  0  0  0  0  0  0  0  0  0  0  0
    5.4641   -2.9330    0.0000 C   0  0  0  0  0  0  0  0  0  0  0  0
    2.8660    0.5670    0.0000 C   0  0  0  0  0  0  0  0  0  0  0  0
    3.7320   -0.9330    0.0000 C   0  0  0  0  0  0  0  0  0  0  0  0
    5.4641   -3.9330    0.0000 C   0  0  0  0  0  0  0  0  0  0  0  0
    4.5981   -2.4330    0.0000 C   0  0  0  0  0  0  0  0  0  0  0  0
   11.5263    1.5670    0.0000 C   0  0  0  0  0  0  0  0  0  0  0  0
    3.7320    2.0670    0.0000 C   0  0  0  0  0  0  0  0  0  0  0  0
    2.8660    3.5670    0.0000 C   0  0  0  0  0  0  0  0  0  0  0  0
    9.7942   -1.4330    0.0000 C   0  0  0  0  0  0  0  0  0  0  0  0
   10.6603   -0.9330    0.0000 C   0  0  0  0  0  0  0  0  0  0  0  0
    4.5981   -4.4330    0.0000 C   0  0  0  0  0  0  0  0  0  0  0  0
    3.7320   -2.9330    0.0000 C   0  0  0  0  0  0  0  0  0  0  0  0
   11.5263    2.5670    0.0000 C   0  0  0  0  0  0  0  0  0  0  0  0
   12.5263    1.5670    0.0000 C   0  0  0  0  0  0  0  0  0  0  0  0
   10.5263    1.5670    0.0000 C   0  0  0  0  0  0  0  0  0  0  0  0
   10.6603    0.0670    0.0000 C   0  0  0  0  0  0  0  0  0  0  0  0
    2.0000    4.0670    0.0000 C   0  0  0  0  0  0  0  0  0  0  0  0
    3.3660    4.4330    0.0000 C   0  0  0  0  0  0  0  0  0  0  0  0
    2.3660    2.7010    0.0000 C   0  0  0  0  0  0  0  0  0  0  0  0
    3.7320   -3.9330    0.0000 C   0  0  0  0  0  0  0  0  0  0  0  0
    9.7942   -2.4330    0.0000 C   0  0  0  0  0  0  0  0  0  0  0  0
   11.5263   -1.4330    0.0000 C   0  0  0  0  0  0  0  0  0  0  0  0
   10.6603   -2.9330    0.0000 C   0  0  0  0  0  0  0  0  0  0  0  0
   11.5263   -2.4330    0.0000 C   0  0  0  0  0  0  0  0  0  0  0  0
    5.7932   -1.7430    0.0000 H   0  0  0  0  0  0  0  0  0  0  0  0
    6.6592   -0.6230    0.0000 H   0  0  0  0  0  0  0  0  0  0  0  0
    5.1350    0.8770    0.0000 H   0  0  0  0  0  0  0  0  0  0  0  0
    3.7320    0.6870    0.0000 H   0  0  0  0  0  0  0  0  0  0  0  0
    6.5422   -3.0156    0.0000 H   0  0  0  0  0  0  0  0  0  0  0  0
    6.9407   -2.3253    0.0000 H   0  0  0  0  0  0  0  0  0  0  0  0
    4.9272   -1.2430    0.0000 H   0  0  0  0  0  0  0  0  0  0  0  0
    7.6636   -1.9080    0.0000 H   0  0  0  0  0  0  0  0  0  0  0  0
    8.4607   -1.9080    0.0000 H   0  0  0  0  0  0  0  0  0  0  0  0
    3.1760    1.1039    0.0000 H   0  0  0  0  0  0  0  0  0  0  0  0
    2.3291    0.8770    0.0000 H   0  0  0  0  0  0  0  0  0  0  0  0
    2.5560    0.0301    0.0000 H   0  0  0  0  0  0  0  0  0  0  0  0
    3.1120   -0.9330    0.0000 H   0  0  0  0  0  0  0  0  0  0  0  0
    3.7320   -1.5530    0.0000 H   0  0  0  0  0  0  0  0  0  0  0  0
    4.3520   -0.9330    0.0000 H   0  0  0  0  0  0  0  0  0  0  0  0
    5.1350    1.8770    0.0000 H   0  0  0  0  0  0  0  0  0  0  0  0
    7.7331    0.3770    0.0000 H   0  0  0  0  0  0  0  0  0  0  0  0
    6.0010   -4.2430    0.0000 H   0  0  0  0  0  0  0  0  0  0  0  0
    4.5981   -1.8130    0.0000 H   0  0  0  0  0  0  0  0  0  0  0  0
   12.0632    0.2570    0.0000 H   0  0  0  0  0  0  0  0  0  0  0  0
    4.5981   -5.0530    0.0000 H   0  0  0  0  0  0  0  0  0  0  0  0
    3.1951   -2.6230    0.0000 H   0  0  0  0  0  0  0  0  0  0  0  0
   12.1463    2.5670    0.0000 H   0  0  0  0  0  0  0  0  0  0  0  0
   11.5263    3.1870    0.0000 H   0  0  0  0  0  0  0  0  0  0  0  0
   10.9063    2.5670    0.0000 H   0  0  0  0  0  0  0  0  0  0  0  0
   12.5263    0.9470    0.0000 H   0  0  0  0  0  0  0  0  0  0  0  0
   13.1463    1.5670    0.0000 H   0  0  0  0  0  0  0  0  0  0  0  0
   12.5263    2.1870    0.0000 H   0  0  0  0  0  0  0  0  0  0  0  0
   10.5263    2.1870    0.0000 H   0  0  0  0  0  0  0  0  0  0  0  0
    9.9063    1.5670    0.0000 H   0  0  0  0  0  0  0  0  0  0  0  0
   10.5263    0.9470    0.0000 H   0  0  0  0  0  0  0  0  0  0  0  0
    2.3100    4.6039    0.0000 H   0  0  0  0  0  0  0  0  0  0  0  0
    1.4631    4.3770    0.0000 H   0  0  0  0  0  0  0  0  0  0  0  0
    1.6900    3.5300    0.0000 H   0  0  0  0  0  0  0  0  0  0  0  0
    3.9030    4.1230    0.0000 H   0  0  0  0  0  0  0  0  0  0  0  0
    3.6760    4.9700    0.0000 H   0  0  0  0  0  0  0  0  0  0  0  0
    2.8291    4.7430    0.0000 H   0  0  0  0  0  0  0  0  0  0  0  0
    1.8291    3.0110    0.0000 H   0  0  0  0  0  0  0  0  0  0  0  0
    2.0560    2.1640    0.0000 H   0  0  0  0  0  0  0  0  0  0  0  0
    2.9030    2.3910    0.0000 H   0  0  0  0  0  0  0  0  0  0  0  0
    3.1951   -4.2430    0.0000 H   0  0  0  0  0  0  0  0  0  0  0  0
    9.2573   -2.7430    0.0000 H   0  0  0  0  0  0  0  0  0  0  0  0
   12.0632   -1.1230    0.0000 H   0  0  0  0  0  0  0  0  0  0  0  0
   10.6603   -3.5530    0.0000 H   0  0  0  0  0  0  0  0  0  0  0  0
   12.0632   -2.7430    0.0000 H   0  0  0  0  0  0  0  0  0  0  0  0
  1 16  1  0  0  0  0
  1 25  1  0  0  0  0
 11  2  1  1  0  0  0
  2 57  1  0  0  0  0
  3 15  2  0  0  0  0
  4 23  1  0  0  0  0
  4 24  1  0  0  0  0
  5 23  2  0  0  0  0
  6 32  2  0  0  0  0
 10  7  1  6  0  0  0
  7 15  1  0  0  0  0
  7 47  1  0  0  0  0
 12  8  1  6  0  0  0
  8 23  1  0  0  0  0
  8 56  1  0  0  0  0
  9 22  1  0  0  0  0
  9 32  1  0  0  0  0
  9 60  1  0  0  0  0
 10 11  1  0  0  0  0
 10 13  1  0  0  0  0
 10 41  1  0  0  0  0
 11 16  1  0  0  0  0
 11 42  1  0  0  0  0
 12 14  1  0  0  0  0
 12 15  1  0  0  0  0
 12 43  1  0  0  0  0
 13 17  1  0  0  0  0
 13 45  1  0  0  0  0
 13 46  1  0  0  0  0
 14 18  1  0  0  0  0
 14 19  1  0  0  0  0
 14 44  1  0  0  0  0
 16 48  1  0  0  0  0
 16 49  1  0  0  0  0
 17 20  2  0  0  0  0
 17 21  1  0  0  0  0
 18 50  1  0  0  0  0
 18 51  1  0  0  0  0
 18 52  1  0  0  0  0
 19 53  1  0  0  0  0
 19 54  1  0  0  0  0
 19 55  1  0  0  0  0
 20 27  1  0  0  0  0
 20 58  1  0  0  0  0
 21 28  2  0  0  0  0
 21 59  1  0  0  0  0
 22 29  1  0  0  0  0
 22 30  1  0  0  0  0
 22 31  1  0  0  0  0
 24 33  1  0  0  0  0
 24 34  1  0  0  0  0
 24 35  1  0  0  0  0
 25 26  1  0  0  0  0
 25 37  2  0  0  0  0
 26 32  1  0  0  0  0
 26 38  2  0  0  0  0
 27 36  2  0  0  0  0
 27 61  1  0  0  0  0
 28 36  1  0  0  0  0
 28 62  1  0  0  0  0
 29 63  1  0  0  0  0
 29 64  1  0  0  0  0
 29 65  1  0  0  0  0
 30 66  1  0  0  0  0
 30 67  1  0  0  0  0
 30 68  1  0  0  0  0
 31 69  1  0  0  0  0
 31 70  1  0  0  0  0
 31 71  1  0  0  0  0
 33 72  1  0  0  0  0
 33 73  1  0  0  0  0
 33 74  1  0  0  0  0
 34 75  1  0  0  0  0
 34 76  1  0  0  0  0
 34 77  1  0  0  0  0
 35 78  1  0  0  0  0
 35 79  1  0  0  0  0
 35 80  1  0  0  0  0
 36 81  1  0  0  0  0
 37 39  1  0  0  0  0
 37 82  1  0  0  0  0
 38 40  1  0  0  0  0
 38 83  1  0  0  0  0
 39 40  2  0  0  0  0
 39 84  1  0  0  0  0
 40 85  1  0  0  0  0
M  END
> <PUBCHEM_COMPOUND_CID>
503102
> <PUBCHEM_COMPOUND_CANONICALIZED>
1
> <PUBCHEM_CACTVS_COMPLEXITY>
817
> <PUBCHEM_CACTVS_HBOND_ACCEPTOR>
6
> <PUBCHEM_CACTVS_HBOND_DONOR>
4
> <PUBCHEM_CACTVS_ROTATABLE_BOND>
14
> <PUBCHEM_CACTVS_SUBSKEYS>
AAADcfB7OABAAAAAAAAAAAAAAAAAAAAAAAAwYAAAAAAAAAABQAAAHgQQCAAADfzl2AayCYLABgiIAiFSGACCAAAkCBAIiJmIBMkKcDKglTGcYQhklgC4iYeYyKCOAAAAAAAEAAAAAAAAAAgAAAAAAAAAAA==
> <PUBCHEM_IUPAC_OPENEYE_NAME>
tert-butyl N-[(1S)-1-[[(1S,2R)-1-benzyl-3-[2-(tert-butylcarbamoyl)phenyl]sulfanyl-2-hydroxy-propyl]carbamoyl]-2-methyl-propyl]carbamate
> <PUBCHEM_IUPAC_CAS_NAME>
N-[(2S)-1-[[(2S,3R)-4-[[2-[(tert-butylamino)-oxomethyl]phenyl]thio]-3-hydroxy-1-phenylbutan-2-yl]amino]-3-methyl-1-oxobutan-2-yl]carbamic acid tert-butyl ester
> <PUBCHEM_IUPAC_NAME_MARKUP>
<I>tert</I>-butyl <I>N</I>-[(2<I>S</I>)-1-[[(2<I>S</I>,3<I>R</I>)-4-[2-(<I>tert</I>-butylcarbamoyl)phenyl]sulfanyl-3-hydroxy-1-phenylbutan-2-yl]amino]-3-methyl-1-oxobutan-2-yl]carbamate
> <PUBCHEM_IUPAC_NAME>
tert-butyl N-[(2S)-1-[[(2S,3R)-4-[2-(tert-butylcarbamoyl)phenyl]sulfanyl-3-hydroxy-1-phenylbutan-2-yl]amino]-3-methyl-1-oxobutan-2-yl]carbamate
> <PUBCHEM_IUPAC_SYSTEMATIC_NAME>
tert-butyl N-[(2S)-1-[[(2S,3R)-4-[2-(tert-butylcarbamoyl)phenyl]sulfanyl-3-oxidanyl-1-phenyl-butan-2-yl]amino]-3-methyl-1-oxidanylidene-butan-2-yl]carbamate
> <PUBCHEM_IUPAC_TRADITIONAL_NAME>
N-[(1S)-1-[[(1S,2R)-1-benzyl-3-[[2-(tert-butylcarbamoyl)phenyl]thio]-2-hydroxy-propyl]carbamoyl]-2-methyl-propyl]carbamic acid tert-butyl ester
> <PUBCHEM_IUPAC_INCHI>
InChI=1S/C31H45N3O5S/c1-20(2)26(33-29(38)39-31(6,7)8)28(37)32-23(18-21-14-10-9-11-15-21)24(35)19-40-25-17-13-12-16-22(25)27(36)34-30(3,4)5/h9-17,20,23-24,26,35H,18-19H2,1-8H3,(H,32,37)(H,33,38)(H,34,36)/t23-,24-,26-/m0/s1
> <PUBCHEM_IUPAC_INCHIKEY>
QKDVJPXQYDLBSQ-GNKBHMEESA-N
> <PUBCHEM_XLOGP3_AA>
5.5
> <PUBCHEM_EXACT_MASS>
571.30799272
> <PUBCHEM_MOLECULAR_FORMULA>
C31H45N3O5S
> <PUBCHEM_MOLECULAR_WEIGHT>
571.8
> <PUBCHEM_OPENEYE_CAN_SMILES>
CC(C)C(C(=O)NC(CC1=CC=CC=C1)C(CSC2=CC=CC=C2C(=O)NC(C)(C)C)O)NC(=O)OC(C)(C)C
> <PUBCHEM_OPENEYE_ISO_SMILES>
CC(C)[C@@H](C(=O)N[C@@H](CC1=CC=CC=C1)[C@H](CSC2=CC=CC=C2C(=O)NC(C)(C)C)O)NC(=O)OC(C)(C)C
> <PUBCHEM_CACTVS_TPSA>
142
> <PUBCHEM_MONOISOTOPIC_WEIGHT>
571.30799272
> <PUBCHEM_TOTAL_CHARGE>
0
> <PUBCHEM_HEAVY_ATOM_COUNT>
40
> <PUBCHEM_ATOM_DEF_STEREO_COUNT>
3
> <PUBCHEM_ATOM_UDEF_STEREO_COUNT>
0
> <PUBCHEM_BOND_DEF_STEREO_COUNT>
0
> <PUBCHEM_BOND_UDEF_STEREO_COUNT>
0
> <PUBCHEM_ISOTOPIC_ATOM_COUNT>
0
> <PUBCHEM_COMPONENT_COUNT>
1
> <PUBCHEM_CACTVS_TAUTO_COUNT>
-1
> <PUBCHEM_COORDINATE_TYPE>
1
5
255
> <PUBCHEM_BONDANNOTATIONS>
17  20  8
17  21  8
11  2  5
20  27  8
21  28  8
25  26  8
25  37  8
26  38  8
27  36  8
28  36  8
37  39  8
38  40  8
39  40  8
10  7  6
12  8  6
$$$$
