503191
  -OEChem-10302200282D
101104  0     1  0  0  0  0  0999 V2000
    6.3301    4.0000    0.0000 S   0  0  0  0  0  0  0  0  0  0  0  0
    6.3301   -6.0000    0.0000 F   0  0  0  0  0  0  0  0  0  0  0  0
    8.0622   -0.0000    0.0000 O   0  0  0  0  0  0  0  0  0  0  0  0
    4.5981   -0.0000    0.0000 O   0  0  0  0  0  0  0  0  0  0  0  0
    8.9282   -0.5000    0.0000 O   0  0  0  0  0  0  0  0  0  0  0  0
   12.3923   -1.5000    0.0000 O   0  0  0  0  0  0  0  0  0  0  0  0
   11.5263   -3.0000    0.0000 O   0  0  0  0  0  0  0  0  0  0  0  0
    6.3301    1.0000    0.0000 N   0  0  3  0  0  0  0  0  0  0  0  0
    3.7320    1.5000    0.0000 N   0  0  0  0  0  0  0  0  0  0  0  0
    8.0622   -2.0000    0.0000 N   0  0  0  0  0  0  0  0  0  0  0  0
   10.6603   -1.5000    0.0000 N   0  0  0  0  0  0  0  0  0  0  0  0
    5.4641    1.5000    0.0000 C   0  0  1  0  0  0  0  0  0  0  0  0
    5.4641    2.5000    0.0000 C   0  0  0  0  0  0  0  0  0  0  0  0
    6.3301    3.0000    0.0000 C   0  0  1  0  0  0  0  0  0  0  0  0
    7.1962    1.5000    0.0000 C   0  0  0  0  0  0  0  0  0  0  0  0
    7.1962    2.5000    0.0000 C   0  0  0  0  0  0  0  0  0  0  0  0
    6.3301   -0.0000    0.0000 C   0  0  0  0  0  0  0  0  0  0  0  0
    7.1962   -0.5000    0.0000 C   0  0  2  0  0  0  0  0  0  0  0  0
    7.1962   -1.5000    0.0000 C   0  0  2  0  0  0  0  0  0  0  0  0
    4.5981    1.0000    0.0000 C   0  0  0  0  0  0  0  0  0  0  0  0
    6.3301   -2.0000    0.0000 C   0  0  0  0  0  0  0  0  0  0  0  0
    2.8660    1.0000    0.0000 C   0  0  0  0  0  0  0  0  0  0  0  0
    7.1962    4.5000    0.0000 C   0  0  0  0  0  0  0  0  0  0  0  0
    6.3301   -3.0000    0.0000 C   0  0  0  0  0  0  0  0  0  0  0  0
    8.9282   -1.5000    0.0000 C   0  0  0  0  0  0  0  0  0  0  0  0
    2.0000    0.5000    0.0000 C   0  0  0  0  0  0  0  0  0  0  0  0
    2.3660    1.8660    0.0000 C   0  0  0  0  0  0  0  0  0  0  0  0
    3.3660    0.1340    0.0000 C   0  0  0  0  0  0  0  0  0  0  0  0
    9.7942   -2.0000    0.0000 C   0  0  2  0  0  0  0  0  0  0  0  0
    9.7942   -3.0000    0.0000 C   0  0  0  0  0  0  0  0  0  0  0  0
    8.0622    4.0000    0.0000 C   0  0  0  0  0  0  0  0  0  0  0  0
    7.1962    5.5000    0.0000 C   0  0  0  0  0  0  0  0  0  0  0  0
    5.4641   -3.5000    0.0000 C   0  0  0  0  0  0  0  0  0  0  0  0
    7.1962   -3.5000    0.0000 C   0  0  0  0  0  0  0  0  0  0  0  0
   10.6603   -3.5000    0.0000 C   0  0  0  0  0  0  0  0  0  0  0  0
    8.9282   -3.5000    0.0000 C   0  0  0  0  0  0  0  0  0  0  0  0
    8.9282    4.5000    0.0000 C   0  0  0  0  0  0  0  0  0  0  0  0
    8.0622    6.0000    0.0000 C   0  0  0  0  0  0  0  0  0  0  0  0
    5.4641   -4.5000    0.0000 C   0  0  0  0  0  0  0  0  0  0  0  0
    7.1962   -4.5000    0.0000 C   0  0  0  0  0  0  0  0  0  0  0  0
    8.9282    5.5000    0.0000 C   0  0  0  0  0  0  0  0  0  0  0  0
    6.3301   -5.0000    0.0000 C   0  0  0  0  0  0  0  0  0  0  0  0
   11.5263   -2.0000    0.0000 C   0  0  0  0  0  0  0  0  0  0  0  0
   13.2583   -2.0000    0.0000 C   0  0  0  0  0  0  0  0  0  0  0  0
   14.1244   -1.5000    0.0000 C   0  0  0  0  0  0  0  0  0  0  0  0
   14.9904   -2.0000    0.0000 C   0  0  0  0  0  0  0  0  0  0  0  0
   14.1244   -0.5000    0.0000 C   0  0  0  0  0  0  0  0  0  0  0  0
   15.8564   -1.5000    0.0000 C   0  0  0  0  0  0  0  0  0  0  0  0
   14.9904   -0.0000    0.0000 C   0  0  0  0  0  0  0  0  0  0  0  0
   15.8564   -0.5000    0.0000 C   0  0  0  0  0  0  0  0  0  0  0  0
    5.4641    0.8800    0.0000 H   0  0  0  0  0  0  0  0  0  0  0  0
    5.2520    3.0826    0.0000 H   0  0  0  0  0  0  0  0  0  0  0  0
    4.8535    2.3923    0.0000 H   0  0  0  0  0  0  0  0  0  0  0  0
    6.8671    3.3100    0.0000 H   0  0  0  0  0  0  0  0  0  0  0  0
    7.4082    0.9174    0.0000 H   0  0  0  0  0  0  0  0  0  0  0  0
    7.8067    1.6077    0.0000 H   0  0  0  0  0  0  0  0  0  0  0  0
    7.8067    2.3923    0.0000 H   0  0  0  0  0  0  0  0  0  0  0  0
    7.4082    3.0826    0.0000 H   0  0  0  0  0  0  0  0  0  0  0  0
    5.7196    0.1077    0.0000 H   0  0  0  0  0  0  0  0  0  0  0  0
    6.1181   -0.5826    0.0000 H   0  0  0  0  0  0  0  0  0  0  0  0
    7.7331   -0.8100    0.0000 H   0  0  0  0  0  0  0  0  0  0  0  0
    7.1962   -2.1200    0.0000 H   0  0  0  0  0  0  0  0  0  0  0  0
    6.1181   -1.4174    0.0000 H   0  0  0  0  0  0  0  0  0  0  0  0
    5.7196   -2.1077    0.0000 H   0  0  0  0  0  0  0  0  0  0  0  0
    3.7320    2.1200    0.0000 H   0  0  0  0  0  0  0  0  0  0  0  0
    8.0622   -2.6200    0.0000 H   0  0  0  0  0  0  0  0  0  0  0  0
    8.0622    0.6200    0.0000 H   0  0  0  0  0  0  0  0  0  0  0  0
    1.6900    1.0369    0.0000 H   0  0  0  0  0  0  0  0  0  0  0  0
    1.4631    0.1900    0.0000 H   0  0  0  0  0  0  0  0  0  0  0  0
    2.3100   -0.0369    0.0000 H   0  0  0  0  0  0  0  0  0  0  0  0
    2.9030    2.1760    0.0000 H   0  0  0  0  0  0  0  0  0  0  0  0
    2.0560    2.4030    0.0000 H   0  0  0  0  0  0  0  0  0  0  0  0
    1.8291    1.5560    0.0000 H   0  0  0  0  0  0  0  0  0  0  0  0
    2.8291   -0.1760    0.0000 H   0  0  0  0  0  0  0  0  0  0  0  0
    3.6760   -0.4030    0.0000 H   0  0  0  0  0  0  0  0  0  0  0  0
    3.9030    0.4440    0.0000 H   0  0  0  0  0  0  0  0  0  0  0  0
    9.7942   -1.3800    0.0000 H   0  0  0  0  0  0  0  0  0  0  0  0
    9.2573   -2.6900    0.0000 H   0  0  0  0  0  0  0  0  0  0  0  0
    8.0622    3.3800    0.0000 H   0  0  0  0  0  0  0  0  0  0  0  0
    6.6592    5.8100    0.0000 H   0  0  0  0  0  0  0  0  0  0  0  0
    4.9272   -3.1900    0.0000 H   0  0  0  0  0  0  0  0  0  0  0  0
    7.7331   -3.1900    0.0000 H   0  0  0  0  0  0  0  0  0  0  0  0
   10.6603   -0.8800    0.0000 H   0  0  0  0  0  0  0  0  0  0  0  0
   10.3503   -4.0369    0.0000 H   0  0  0  0  0  0  0  0  0  0  0  0
   11.1972   -3.8100    0.0000 H   0  0  0  0  0  0  0  0  0  0  0  0
   10.9703   -2.9631    0.0000 H   0  0  0  0  0  0  0  0  0  0  0  0
    8.6182   -2.9631    0.0000 H   0  0  0  0  0  0  0  0  0  0  0  0
    8.3913   -3.8100    0.0000 H   0  0  0  0  0  0  0  0  0  0  0  0
    9.2382   -4.0369    0.0000 H   0  0  0  0  0  0  0  0  0  0  0  0
    9.4651    4.1900    0.0000 H   0  0  0  0  0  0  0  0  0  0  0  0
    8.0622    6.6200    0.0000 H   0  0  0  0  0  0  0  0  0  0  0  0
    4.9272   -4.8100    0.0000 H   0  0  0  0  0  0  0  0  0  0  0  0
    7.7331   -4.8100    0.0000 H   0  0  0  0  0  0  0  0  0  0  0  0
    9.4651    5.8100    0.0000 H   0  0  0  0  0  0  0  0  0  0  0  0
   12.8598   -2.4750    0.0000 H   0  0  0  0  0  0  0  0  0  0  0  0
   13.6569   -2.4750    0.0000 H   0  0  0  0  0  0  0  0  0  0  0  0
   14.9904   -2.6200    0.0000 H   0  0  0  0  0  0  0  0  0  0  0  0
   13.5874   -0.1900    0.0000 H   0  0  0  0  0  0  0  0  0  0  0  0
   16.3933   -1.8100    0.0000 H   0  0  0  0  0  0  0  0  0  0  0  0
   14.9904    0.6200    0.0000 H   0  0  0  0  0  0  0  0  0  0  0  0
   16.3933   -0.1900    0.0000 H   0  0  0  0  0  0  0  0  0  0  0  0
 14  1  1  6  0  0  0
  1 23  1  0  0  0  0
  2 42  1  0  0  0  0
 18  3  1  1  0  0  0
  3 67  1  0  0  0  0
  4 20  2  0  0  0  0
  5 25  2  0  0  0  0
  6 43  1  0  0  0  0
  6 44  1  0  0  0  0
  7 43  2  0  0  0  0
  8 12  1  0  0  0  0
  8 15  1  0  0  0  0
  8 17  1  0  0  0  0
  9 20  1  0  0  0  0
  9 22  1  0  0  0  0
  9 65  1  0  0  0  0
 19 10  1  1  0  0  0
 10 25  1  0  0  0  0
 10 66  1  0  0  0  0
 29 11  1  1  0  0  0
 11 43  1  0  0  0  0
 11 83  1  0  0  0  0
 12 13  1  0  0  0  0
 12 20  1  6  0  0  0
 12 51  1  0  0  0  0
 13 14  1  0  0  0  0
 13 52  1  0  0  0  0
 13 53  1  0  0  0  0
 14 16  1  0  0  0  0
 14 54  1  0  0  0  0
 15 16  1  0  0  0  0
 15 55  1  0  0  0  0
 15 56  1  0  0  0  0
 16 57  1  0  0  0  0
 16 58  1  0  0  0  0
 17 18  1  0  0  0  0
 17 59  1  0  0  0  0
 17 60  1  0  0  0  0
 18 19  1  0  0  0  0
 18 61  1  0  0  0  0
 19 21  1  0  0  0  0
 19 62  1  0  0  0  0
 21 24  1  0  0  0  0
 21 63  1  0  0  0  0
 21 64  1  0  0  0  0
 22 26  1  0  0  0  0
 22 27  1  0  0  0  0
 22 28  1  0  0  0  0
 23 31  2  0  0  0  0
 23 32  1  0  0  0  0
 24 33  2  0  0  0  0
 24 34  1  0  0  0  0
 25 29  1  0  0  0  0
 26 68  1  0  0  0  0
 26 69  1  0  0  0  0
 26 70  1  0  0  0  0
 27 71  1  0  0  0  0
 27 72  1  0  0  0  0
 27 73  1  0  0  0  0
 28 74  1  0  0  0  0
 28 75  1  0  0  0  0
 28 76  1  0  0  0  0
 29 30  1  0  0  0  0
 29 77  1  0  0  0  0
 30 35  1  0  0  0  0
 30 36  1  0  0  0  0
 30 78  1  0  0  0  0
 31 37  1  0  0  0  0
 31 79  1  0  0  0  0
 32 38  2  0  0  0  0
 32 80  1  0  0  0  0
 33 39  1  0  0  0  0
 33 81  1  0  0  0  0
 34 40  2  0  0  0  0
 34 82  1  0  0  0  0
 35 84  1  0  0  0  0
 35 85  1  0  0  0  0
 35 86  1  0  0  0  0
 36 87  1  0  0  0  0
 36 88  1  0  0  0  0
 36 89  1  0  0  0  0
 37 41  2  0  0  0  0
 37 90  1  0  0  0  0
 38 41  1  0  0  0  0
 38 91  1  0  0  0  0
 39 42  2  0  0  0  0
 39 92  1  0  0  0  0
 40 42  1  0  0  0  0
 40 93  1  0  0  0  0
 41 94  1  0  0  0  0
 44 45  1  0  0  0  0
 44 95  1  0  0  0  0
 44 96  1  0  0  0  0
 45 46  2  0  0  0  0
 45 47  1  0  0  0  0
 46 48  1  0  0  0  0
 46 97  1  0  0  0  0
 47 49  2  0  0  0  0
 47 98  1  0  0  0  0
 48 50  2  0  0  0  0
 48 99  1  0  0  0  0
 49 50  1  0  0  0  0
 49100  1  0  0  0  0
 50101  1  0  0  0  0
M  END
> <PUBCHEM_COMPOUND_CID>
503191
> <PUBCHEM_COMPOUND_CANONICALIZED>
1
> <PUBCHEM_CACTVS_COMPLEXITY>
1060
> <PUBCHEM_CACTVS_HBOND_ACCEPTOR>
8
> <PUBCHEM_CACTVS_HBOND_DONOR>
4
> <PUBCHEM_CACTVS_ROTATABLE_BOND>
16
> <PUBCHEM_CACTVS_SUBSKEYS>
AAADcfB/uQBAAAAAAAAAAAAAAAAAAAAAAAA8YMEAAAAAAAABUAAAHwQQCAAADbzl2A6yCYPABgiIAiFSGAACAAAgCBAIiJmICIkKdjKg8TmccAAk1gG4qAeYyKAOAAAAAAAAAAAAAAAAAAAAAAAAAAAAAA==
> <PUBCHEM_IUPAC_OPENEYE_NAME>
benzyl N-[(1S)-1-[[(1S,2R)-3-[(2S,4R)-2-(tert-butylcarbamoyl)-4-phenylsulfanyl-1-piperidyl]-1-[(4-fluorophenyl)methyl]-2-hydroxy-propyl]carbamoyl]-2-methyl-propyl]carbamate
> <PUBCHEM_IUPAC_CAS_NAME>
N-[(2S)-1-[[(2S,3R)-4-[(2S,4R)-2-[(tert-butylamino)-oxomethyl]-4-(phenylthio)-1-piperidinyl]-1-(4-fluorophenyl)-3-hydroxybutan-2-yl]amino]-3-methyl-1-oxobutan-2-yl]carbamic acid (phenylmethyl) ester
> <PUBCHEM_IUPAC_NAME_MARKUP>
benzyl <I>N</I>-[(2<I>S</I>)-1-[[(2<I>S</I>,3<I>R</I>)-4-[(2<I>S</I>,4<I>R</I>)-2-(<I>tert</I>-butylcarbamoyl)-4-phenylsulfanylpiperidin-1-yl]-1-(4-fluorophenyl)-3-hydroxybutan-2-yl]amino]-3-methyl-1-oxobutan-2-yl]carbamate
> <PUBCHEM_IUPAC_NAME>
benzyl N-[(2S)-1-[[(2S,3R)-4-[(2S,4R)-2-(tert-butylcarbamoyl)-4-phenylsulfanylpiperidin-1-yl]-1-(4-fluorophenyl)-3-hydroxybutan-2-yl]amino]-3-methyl-1-oxobutan-2-yl]carbamate
> <PUBCHEM_IUPAC_SYSTEMATIC_NAME>
(phenylmethyl) N-[(2S)-1-[[(2S,3R)-4-[(2S,4R)-2-(tert-butylcarbamoyl)-4-phenylsulfanyl-piperidin-1-yl]-1-(4-fluorophenyl)-3-oxidanyl-butan-2-yl]amino]-3-methyl-1-oxidanylidene-butan-2-yl]carbamate
> <PUBCHEM_IUPAC_TRADITIONAL_NAME>
N-[(1S)-1-[[(1S,2R)-3-[(2S,4R)-2-(tert-butylcarbamoyl)-4-(phenylthio)piperidino]-1-(4-fluorobenzyl)-2-hydroxy-propyl]carbamoyl]-2-methyl-propyl]carbamic acid benzyl ester
> <PUBCHEM_IUPAC_INCHI>
InChI=1S/C39H51FN4O5S/c1-26(2)35(42-38(48)49-25-28-12-8-6-9-13-28)37(47)41-32(22-27-16-18-29(40)19-17-27)34(45)24-44-21-20-31(50-30-14-10-7-11-15-30)23-33(44)36(46)43-39(3,4)5/h6-19,26,31-35,45H,20-25H2,1-5H3,(H,41,47)(H,42,48)(H,43,46)/t31-,32+,33+,34-,35+/m1/s1
> <PUBCHEM_IUPAC_INCHIKEY>
ZCNLBMOLSNBTEG-NVCPMKERSA-N
> <PUBCHEM_XLOGP3_AA>
6.8
> <PUBCHEM_EXACT_MASS>
706.35642008
> <PUBCHEM_MOLECULAR_FORMULA>
C39H51FN4O5S
> <PUBCHEM_MOLECULAR_WEIGHT>
706.9
> <PUBCHEM_OPENEYE_CAN_SMILES>
CC(C)C(C(=O)NC(CC1=CC=C(C=C1)F)C(CN2CCC(CC2C(=O)NC(C)(C)C)SC3=CC=CC=C3)O)NC(=O)OCC4=CC=CC=C4
> <PUBCHEM_OPENEYE_ISO_SMILES>
CC(C)[C@@H](C(=O)N[C@@H](CC1=CC=C(C=C1)F)[C@@H](CN2CC[C@H](C[C@H]2C(=O)NC(C)(C)C)SC3=CC=CC=C3)O)NC(=O)OCC4=CC=CC=C4
> <PUBCHEM_CACTVS_TPSA>
145
> <PUBCHEM_MONOISOTOPIC_WEIGHT>
706.35642008
> <PUBCHEM_TOTAL_CHARGE>
0
> <PUBCHEM_HEAVY_ATOM_COUNT>
50
> <PUBCHEM_ATOM_DEF_STEREO_COUNT>
5
> <PUBCHEM_ATOM_UDEF_STEREO_COUNT>
0
> <PUBCHEM_BOND_DEF_STEREO_COUNT>
0
> <PUBCHEM_BOND_UDEF_STEREO_COUNT>
0
> <PUBCHEM_ISOTOPIC_ATOM_COUNT>
0
> <PUBCHEM_COMPONENT_COUNT>
1
> <PUBCHEM_CACTVS_TAUTO_COUNT>
-1
> <PUBCHEM_COORDINATE_TYPE>
1
5
255
> <PUBCHEM_BONDANNOTATIONS>
14  1  6
19  10  5
29  11  5
12  20  6
23  31  8
23  32  8
24  33  8
24  34  8
18  3  5
31  37  8
32  38  8
33  39  8
34  40  8
37  41  8
38  41  8
39  42  8
40  42  8
45  46  8
45  47  8
46  48  8
47  49  8
48  50  8
49  50  8
$$$$
