503103
  -OEChem-10302200282D
 86 87  0     1  0  0  0  0  0999 V2000
    9.7942   -0.9330    0.0000 S   0  0  0  0  0  0  0  0  0  0  0  0
    2.8660    0.0670    0.0000 S   0  0  0  0  0  0  0  0  0  0  0  0
    8.0622    0.0670    0.0000 O   0  0  0  0  0  0  0  0  0  0  0  0
    7.1962    0.5670    0.0000 O   0  0  0  0  0  0  0  0  0  0  0  0
    4.5981    3.0670    0.0000 O   0  0  0  0  0  0  0  0  0  0  0  0
    3.7320    1.5670    0.0000 O   0  0  0  0  0  0  0  0  0  0  0  0
   10.6603    0.5670    0.0000 O   0  0  0  0  0  0  0  0  0  0  0  0
    6.3301   -0.9330    0.0000 N   0  0  0  0  0  0  0  0  0  0  0  0
    5.4641    1.5670    0.0000 N   0  0  0  0  0  0  0  0  0  0  0  0
   12.3923    0.5670    0.0000 N   0  0  0  0  0  0  0  0  0  0  0  0
    7.1962   -1.4330    0.0000 C   0  0  2  0  0  0  0  0  0  0  0  0
    8.0622   -0.9330    0.0000 C   0  0  2  0  0  0  0  0  0  0  0  0
    7.1962   -2.4330    0.0000 C   0  0  0  0  0  0  0  0  0  0  0  0
    5.4641    0.5670    0.0000 C   0  0  2  0  0  0  0  0  0  0  0  0
    8.9282   -1.4330    0.0000 C   0  0  0  0  0  0  0  0  0  0  0  0
    6.3301    0.0670    0.0000 C   0  0  0  0  0  0  0  0  0  0  0  0
    6.3301   -2.9330    0.0000 C   0  0  0  0  0  0  0  0  0  0  0  0
    4.5981    0.0670    0.0000 C   0  0  0  0  0  0  0  0  0  0  0  0
   12.3923    1.5670    0.0000 C   0  0  0  0  0  0  0  0  0  0  0  0
    3.7320    0.5670    0.0000 C   0  0  0  0  0  0  0  0  0  0  0  0
    6.3301   -3.9330    0.0000 C   0  0  0  0  0  0  0  0  0  0  0  0
    5.4641   -2.4330    0.0000 C   0  0  0  0  0  0  0  0  0  0  0  0
   10.6603   -1.4330    0.0000 C   0  0  0  0  0  0  0  0  0  0  0  0
    3.7320    3.5670    0.0000 C   0  0  0  0  0  0  0  0  0  0  0  0
   11.5263   -0.9330    0.0000 C   0  0  0  0  0  0  0  0  0  0  0  0
    4.5981    2.0670    0.0000 C   0  0  0  0  0  0  0  0  0  0  0  0
   12.3923    2.5670    0.0000 C   0  0  0  0  0  0  0  0  0  0  0  0
   13.3923    1.5670    0.0000 C   0  0  0  0  0  0  0  0  0  0  0  0
   11.3923    1.5670    0.0000 C   0  0  0  0  0  0  0  0  0  0  0  0
    5.4641   -4.4330    0.0000 C   0  0  0  0  0  0  0  0  0  0  0  0
    4.5981   -2.9330    0.0000 C   0  0  0  0  0  0  0  0  0  0  0  0
   11.5263    0.0670    0.0000 C   0  0  0  0  0  0  0  0  0  0  0  0
    4.5981   -3.9330    0.0000 C   0  0  0  0  0  0  0  0  0  0  0  0
   10.6603   -2.4330    0.0000 C   0  0  0  0  0  0  0  0  0  0  0  0
    2.8660    4.0670    0.0000 C   0  0  0  0  0  0  0  0  0  0  0  0
    4.2320    4.4330    0.0000 C   0  0  0  0  0  0  0  0  0  0  0  0
    3.2320    2.7010    0.0000 C   0  0  0  0  0  0  0  0  0  0  0  0
   12.3923   -1.4330    0.0000 C   0  0  0  0  0  0  0  0  0  0  0  0
   11.5263   -2.9330    0.0000 C   0  0  0  0  0  0  0  0  0  0  0  0
   12.3923   -2.4330    0.0000 C   0  0  0  0  0  0  0  0  0  0  0  0
    2.0000    0.5670    0.0000 C   0  0  0  0  0  0  0  0  0  0  0  0
    6.6592   -1.7430    0.0000 H   0  0  0  0  0  0  0  0  0  0  0  0
    7.5252   -0.6230    0.0000 H   0  0  0  0  0  0  0  0  0  0  0  0
    7.4082   -3.0156    0.0000 H   0  0  0  0  0  0  0  0  0  0  0  0
    7.8067   -2.3253    0.0000 H   0  0  0  0  0  0  0  0  0  0  0  0
    5.7932   -1.2430    0.0000 H   0  0  0  0  0  0  0  0  0  0  0  0
    6.0010    0.8770    0.0000 H   0  0  0  0  0  0  0  0  0  0  0  0
    8.5297   -1.9080    0.0000 H   0  0  0  0  0  0  0  0  0  0  0  0
    9.3267   -1.9080    0.0000 H   0  0  0  0  0  0  0  0  0  0  0  0
    4.1996   -0.4080    0.0000 H   0  0  0  0  0  0  0  0  0  0  0  0
    4.9966   -0.4080    0.0000 H   0  0  0  0  0  0  0  0  0  0  0  0
    6.0010    1.8770    0.0000 H   0  0  0  0  0  0  0  0  0  0  0  0
    8.5991    0.3770    0.0000 H   0  0  0  0  0  0  0  0  0  0  0  0
    4.1306    1.0419    0.0000 H   0  0  0  0  0  0  0  0  0  0  0  0
    3.3335    1.0419    0.0000 H   0  0  0  0  0  0  0  0  0  0  0  0
    6.8671   -4.2430    0.0000 H   0  0  0  0  0  0  0  0  0  0  0  0
    5.4641   -1.8130    0.0000 H   0  0  0  0  0  0  0  0  0  0  0  0
   12.9292    0.2570    0.0000 H   0  0  0  0  0  0  0  0  0  0  0  0
   13.0123    2.5670    0.0000 H   0  0  0  0  0  0  0  0  0  0  0  0
   12.3923    3.1870    0.0000 H   0  0  0  0  0  0  0  0  0  0  0  0
   11.7723    2.5670    0.0000 H   0  0  0  0  0  0  0  0  0  0  0  0
   13.3923    0.9470    0.0000 H   0  0  0  0  0  0  0  0  0  0  0  0
   14.0123    1.5670    0.0000 H   0  0  0  0  0  0  0  0  0  0  0  0
   13.3923    2.1870    0.0000 H   0  0  0  0  0  0  0  0  0  0  0  0
   11.3923    2.1870    0.0000 H   0  0  0  0  0  0  0  0  0  0  0  0
   10.7723    1.5670    0.0000 H   0  0  0  0  0  0  0  0  0  0  0  0
   11.3923    0.9470    0.0000 H   0  0  0  0  0  0  0  0  0  0  0  0
    5.4641   -5.0530    0.0000 H   0  0  0  0  0  0  0  0  0  0  0  0
    4.0611   -2.6230    0.0000 H   0  0  0  0  0  0  0  0  0  0  0  0
    4.0611   -4.2430    0.0000 H   0  0  0  0  0  0  0  0  0  0  0  0
   10.1233   -2.7430    0.0000 H   0  0  0  0  0  0  0  0  0  0  0  0
    3.1760    4.6039    0.0000 H   0  0  0  0  0  0  0  0  0  0  0  0
    2.3291    4.3770    0.0000 H   0  0  0  0  0  0  0  0  0  0  0  0
    2.5560    3.5300    0.0000 H   0  0  0  0  0  0  0  0  0  0  0  0
    4.7690    4.1230    0.0000 H   0  0  0  0  0  0  0  0  0  0  0  0
    4.5420    4.9700    0.0000 H   0  0  0  0  0  0  0  0  0  0  0  0
    3.6951    4.7430    0.0000 H   0  0  0  0  0  0  0  0  0  0  0  0
    2.6951    3.0110    0.0000 H   0  0  0  0  0  0  0  0  0  0  0  0
    2.9220    2.1640    0.0000 H   0  0  0  0  0  0  0  0  0  0  0  0
    3.7690    2.3910    0.0000 H   0  0  0  0  0  0  0  0  0  0  0  0
   12.9292   -1.1230    0.0000 H   0  0  0  0  0  0  0  0  0  0  0  0
   11.5263   -3.5530    0.0000 H   0  0  0  0  0  0  0  0  0  0  0  0
   12.9292   -2.7430    0.0000 H   0  0  0  0  0  0  0  0  0  0  0  0
    2.3100    1.1039    0.0000 H   0  0  0  0  0  0  0  0  0  0  0  0
    1.4631    0.8770    0.0000 H   0  0  0  0  0  0  0  0  0  0  0  0
    1.6900    0.0301    0.0000 H   0  0  0  0  0  0  0  0  0  0  0  0
  1 15  1  0  0  0  0
  1 23  1  0  0  0  0
  2 20  1  0  0  0  0
  2 41  1  0  0  0  0
 12  3  1  1  0  0  0
  3 53  1  0  0  0  0
  4 16  2  0  0  0  0
  5 24  1  0  0  0  0
  5 26  1  0  0  0  0
  6 26  2  0  0  0  0
  7 32  2  0  0  0  0
 11  8  1  6  0  0  0
  8 16  1  0  0  0  0
  8 46  1  0  0  0  0
 14  9  1  6  0  0  0
  9 26  1  0  0  0  0
  9 52  1  0  0  0  0
 10 19  1  0  0  0  0
 10 32  1  0  0  0  0
 10 58  1  0  0  0  0
 11 12  1  0  0  0  0
 11 13  1  0  0  0  0
 11 42  1  0  0  0  0
 12 15  1  0  0  0  0
 12 43  1  0  0  0  0
 13 17  1  0  0  0  0
 13 44  1  0  0  0  0
 13 45  1  0  0  0  0
 14 16  1  0  0  0  0
 14 18  1  0  0  0  0
 14 47  1  0  0  0  0
 15 48  1  0  0  0  0
 15 49  1  0  0  0  0
 17 21  2  0  0  0  0
 17 22  1  0  0  0  0
 18 20  1  0  0  0  0
 18 50  1  0  0  0  0
 18 51  1  0  0  0  0
 19 27  1  0  0  0  0
 19 28  1  0  0  0  0
 19 29  1  0  0  0  0
 20 54  1  0  0  0  0
 20 55  1  0  0  0  0
 21 30  1  0  0  0  0
 21 56  1  0  0  0  0
 22 31  2  0  0  0  0
 22 57  1  0  0  0  0
 23 25  1  0  0  0  0
 23 34  2  0  0  0  0
 24 35  1  0  0  0  0
 24 36  1  0  0  0  0
 24 37  1  0  0  0  0
 25 32  1  0  0  0  0
 25 38  2  0  0  0  0
 27 59  1  0  0  0  0
 27 60  1  0  0  0  0
 27 61  1  0  0  0  0
 28 62  1  0  0  0  0
 28 63  1  0  0  0  0
 28 64  1  0  0  0  0
 29 65  1  0  0  0  0
 29 66  1  0  0  0  0
 29 67  1  0  0  0  0
 30 33  2  0  0  0  0
 30 68  1  0  0  0  0
 31 33  1  0  0  0  0
 31 69  1  0  0  0  0
 33 70  1  0  0  0  0
 34 39  1  0  0  0  0
 34 71  1  0  0  0  0
 35 72  1  0  0  0  0
 35 73  1  0  0  0  0
 35 74  1  0  0  0  0
 36 75  1  0  0  0  0
 36 76  1  0  0  0  0
 36 77  1  0  0  0  0
 37 78  1  0  0  0  0
 37 79  1  0  0  0  0
 37 80  1  0  0  0  0
 38 40  1  0  0  0  0
 38 81  1  0  0  0  0
 39 40  2  0  0  0  0
 39 82  1  0  0  0  0
 40 83  1  0  0  0  0
 41 84  1  0  0  0  0
 41 85  1  0  0  0  0
 41 86  1  0  0  0  0
M  END
> <PUBCHEM_COMPOUND_CID>
503103
> <PUBCHEM_COMPOUND_CANONICALIZED>
1
> <PUBCHEM_CACTVS_COMPLEXITY>
824
> <PUBCHEM_CACTVS_HBOND_ACCEPTOR>
7
> <PUBCHEM_CACTVS_HBOND_DONOR>
4
> <PUBCHEM_CACTVS_ROTATABLE_BOND>
16
> <PUBCHEM_CACTVS_SUBSKEYS>
AAADcfB7OABgAAAAAAAAAAAAAAAAAAAAAAAwYAAAAAAAAAABQAAAHgQQCAAADPzl2AayCYLABgiIAiFSGACCAAAkCBAIiJmIBMkKcDKglTGcYQhklgC4iYeYyKCOAAAAAAAEAAAAAAAAAAgAAAAAAAAAAA==
> <PUBCHEM_IUPAC_OPENEYE_NAME>
tert-butyl N-[(1S)-1-[[(1S,2R)-1-benzyl-3-[2-(tert-butylcarbamoyl)phenyl]sulfanyl-2-hydroxy-propyl]carbamoyl]-3-methylsulfanyl-propyl]carbamate
> <PUBCHEM_IUPAC_CAS_NAME>
N-[(2S)-1-[[(2S,3R)-4-[[2-[(tert-butylamino)-oxomethyl]phenyl]thio]-3-hydroxy-1-phenylbutan-2-yl]amino]-4-(methylthio)-1-oxobutan-2-yl]carbamic acid tert-butyl ester
> <PUBCHEM_IUPAC_NAME_MARKUP>
<I>tert</I>-butyl <I>N</I>-[(2<I>S</I>)-1-[[(2<I>S</I>,3<I>R</I>)-4-[2-(<I>tert</I>-butylcarbamoyl)phenyl]sulfanyl-3-hydroxy-1-phenylbutan-2-yl]amino]-4-methylsulfanyl-1-oxobutan-2-yl]carbamate
> <PUBCHEM_IUPAC_NAME>
tert-butyl N-[(2S)-1-[[(2S,3R)-4-[2-(tert-butylcarbamoyl)phenyl]sulfanyl-3-hydroxy-1-phenylbutan-2-yl]amino]-4-methylsulfanyl-1-oxobutan-2-yl]carbamate
> <PUBCHEM_IUPAC_SYSTEMATIC_NAME>
tert-butyl N-[(2S)-1-[[(2S,3R)-4-[2-(tert-butylcarbamoyl)phenyl]sulfanyl-3-oxidanyl-1-phenyl-butan-2-yl]amino]-4-methylsulfanyl-1-oxidanylidene-butan-2-yl]carbamate
> <PUBCHEM_IUPAC_TRADITIONAL_NAME>
N-[(1S)-1-[[(1S,2R)-1-benzyl-3-[[2-(tert-butylcarbamoyl)phenyl]thio]-2-hydroxy-propyl]carbamoyl]-3-(methylthio)propyl]carbamic acid tert-butyl ester
> <PUBCHEM_IUPAC_INCHI>
InChI=1S/C31H45N3O5S2/c1-30(2,3)34-27(36)22-15-11-12-16-26(22)41-20-25(35)24(19-21-13-9-8-10-14-21)32-28(37)23(17-18-40-7)33-29(38)39-31(4,5)6/h8-16,23-25,35H,17-20H2,1-7H3,(H,32,37)(H,33,38)(H,34,36)/t23-,24-,25-/m0/s1
> <PUBCHEM_IUPAC_INCHIKEY>
AYXIDUZWULVYOQ-SDHOMARFSA-N
> <PUBCHEM_XLOGP3_AA>
5.2
> <PUBCHEM_EXACT_MASS>
603.28006389
> <PUBCHEM_MOLECULAR_FORMULA>
C31H45N3O5S2
> <PUBCHEM_MOLECULAR_WEIGHT>
603.8
> <PUBCHEM_OPENEYE_CAN_SMILES>
CC(C)(C)NC(=O)C1=CC=CC=C1SCC(C(CC2=CC=CC=C2)NC(=O)C(CCSC)NC(=O)OC(C)(C)C)O
> <PUBCHEM_OPENEYE_ISO_SMILES>
CC(C)(C)NC(=O)C1=CC=CC=C1SC[C@@H]([C@H](CC2=CC=CC=C2)NC(=O)[C@H](CCSC)NC(=O)OC(C)(C)C)O
> <PUBCHEM_CACTVS_TPSA>
167
> <PUBCHEM_MONOISOTOPIC_WEIGHT>
603.28006389
> <PUBCHEM_TOTAL_CHARGE>
0
> <PUBCHEM_HEAVY_ATOM_COUNT>
41
> <PUBCHEM_ATOM_DEF_STEREO_COUNT>
3
> <PUBCHEM_ATOM_UDEF_STEREO_COUNT>
0
> <PUBCHEM_BOND_DEF_STEREO_COUNT>
0
> <PUBCHEM_BOND_UDEF_STEREO_COUNT>
0
> <PUBCHEM_ISOTOPIC_ATOM_COUNT>
0
> <PUBCHEM_COMPONENT_COUNT>
1
> <PUBCHEM_CACTVS_TAUTO_COUNT>
-1
> <PUBCHEM_COORDINATE_TYPE>
1
5
255
> <PUBCHEM_BONDANNOTATIONS>
17  21  8
17  22  8
21  30  8
22  31  8
23  25  8
23  34  8
25  38  8
12  3  5
30  33  8
31  33  8
34  39  8
38  40  8
39  40  8
11  8  6
14  9  6
$$$$
