503104
  -OEChem-10302200282D
 93 96  0     1  0  0  0  0  0999 V2000
    5.9605    2.1390    0.0000 S   0  0  0  0  0  0  0  0  0  0  0  0
    7.9176    2.5515    0.0000 O   0  0  0  0  0  0  0  0  0  0  0  0
    9.6104   -0.6320    0.0000 O   0  0  0  0  0  0  0  0  0  0  0  0
   10.6354   -3.0711    0.0000 O   0  0  0  0  0  0  0  0  0  0  0  0
   10.2783   -1.3763    0.0000 O   0  0  0  0  0  0  0  0  0  0  0  0
    5.6034    3.8338    0.0000 O   0  0  0  0  0  0  0  0  0  0  0  0
    7.9641   -0.0939    0.0000 N   0  0  0  0  0  0  0  0  0  0  0  0
    8.9891   -2.5330    0.0000 N   0  0  0  0  0  0  0  0  0  0  0  0
    7.0321   -4.5549    0.0000 N   0  0  0  0  0  0  0  0  0  0  0  0
    3.9570    4.3719    0.0000 N   0  0  0  0  0  0  0  0  0  0  0  0
    8.2747    0.8566    0.0000 C   0  0  2  0  0  0  0  0  0  0  0  0
    7.6069    1.6010    0.0000 C   0  0  2  0  0  0  0  0  0  0  0  0
    9.2532    1.0629    0.0000 C   0  0  0  0  0  0  0  0  0  0  0  0
    8.3212   -1.7887    0.0000 C   0  0  1  0  0  0  0  0  0  0  0  0
    7.3428   -1.9949    0.0000 C   0  0  0  0  0  0  0  0  0  0  0  0
    8.6319   -0.8382    0.0000 C   0  0  0  0  0  0  0  0  0  0  0  0
    6.6284    1.3947    0.0000 C   0  0  0  0  0  0  0  0  0  0  0  0
    7.0321   -2.9454    0.0000 C   0  0  0  0  0  0  0  0  0  0  0  0
    9.5639    2.0134    0.0000 C   0  0  0  0  0  0  0  0  0  0  0  0
    6.0859   -3.2502    0.0000 C   0  0  0  0  0  0  0  0  0  0  0  0
    6.0859   -4.2502    0.0000 C   0  0  0  0  0  0  0  0  0  0  0  0
    7.6157   -3.7502    0.0000 C   0  0  0  0  0  0  0  0  0  0  0  0
   10.5424    2.2196    0.0000 C   0  0  0  0  0  0  0  0  0  0  0  0
    8.8961    2.7577    0.0000 C   0  0  0  0  0  0  0  0  0  0  0  0
    2.9785    4.1657    0.0000 C   0  0  0  0  0  0  0  0  0  0  0  0
    5.2198   -2.7502    0.0000 C   0  0  0  0  0  0  0  0  0  0  0  0
    9.9676   -2.3268    0.0000 C   0  0  0  0  0  0  0  0  0  0  0  0
   11.6140   -2.8649    0.0000 C   0  0  0  0  0  0  0  0  0  0  0  0
    4.9820    1.9328    0.0000 C   0  0  0  0  0  0  0  0  0  0  0  0
    5.2198   -4.7502    0.0000 C   0  0  0  0  0  0  0  0  0  0  0  0
    4.3142    2.6771    0.0000 C   0  0  0  0  0  0  0  0  0  0  0  0
   10.8531    3.1701    0.0000 C   0  0  0  0  0  0  0  0  0  0  0  0
    9.2067    3.7082    0.0000 C   0  0  0  0  0  0  0  0  0  0  0  0
    4.3538   -3.2502    0.0000 C   0  0  0  0  0  0  0  0  0  0  0  0
    4.3538   -4.2502    0.0000 C   0  0  0  0  0  0  0  0  0  0  0  0
    2.0000    3.9595    0.0000 C   0  0  0  0  0  0  0  0  0  0  0  0
    3.1847    3.1872    0.0000 C   0  0  0  0  0  0  0  0  0  0  0  0
    2.7723    5.1442    0.0000 C   0  0  0  0  0  0  0  0  0  0  0  0
    4.6249    3.6276    0.0000 C   0  0  0  0  0  0  0  0  0  0  0  0
   10.1852    3.9144    0.0000 C   0  0  0  0  0  0  0  0  0  0  0  0
   12.5925   -2.6586    0.0000 C   0  0  0  0  0  0  0  0  0  0  0  0
   11.8202   -3.8434    0.0000 C   0  0  0  0  0  0  0  0  0  0  0  0
   11.4077   -1.8864    0.0000 C   0  0  0  0  0  0  0  0  0  0  0  0
    4.6714    0.9823    0.0000 C   0  0  0  0  0  0  0  0  0  0  0  0
    3.3357    2.4709    0.0000 C   0  0  0  0  0  0  0  0  0  0  0  0
    3.6929    0.7761    0.0000 C   0  0  0  0  0  0  0  0  0  0  0  0
    3.0250    1.5204    0.0000 C   0  0  0  0  0  0  0  0  0  0  0  0
    7.6681    0.7288    0.0000 H   0  0  0  0  0  0  0  0  0  0  0  0
    8.2136    1.7288    0.0000 H   0  0  0  0  0  0  0  0  0  0  0  0
    9.2738    0.4432    0.0000 H   0  0  0  0  0  0  0  0  0  0  0  0
    9.8671    0.9755    0.0000 H   0  0  0  0  0  0  0  0  0  0  0  0
    8.1286   -2.3780    0.0000 H   0  0  0  0  0  0  0  0  0  0  0  0
    7.3574   -0.2217    0.0000 H   0  0  0  0  0  0  0  0  0  0  0  0
    7.3222   -1.3753    0.0000 H   0  0  0  0  0  0  0  0  0  0  0  0
    6.7289   -1.9076    0.0000 H   0  0  0  0  0  0  0  0  0  0  0  0
    6.1020    1.0671    0.0000 H   0  0  0  0  0  0  0  0  0  0  0  0
    6.8596    0.8195    0.0000 H   0  0  0  0  0  0  0  0  0  0  0  0
    8.7965   -3.1223    0.0000 H   0  0  0  0  0  0  0  0  0  0  0  0
    8.2357   -3.7502    0.0000 H   0  0  0  0  0  0  0  0  0  0  0  0
    7.5035    3.0129    0.0000 H   0  0  0  0  0  0  0  0  0  0  0  0
    7.2247   -5.1442    0.0000 H   0  0  0  0  0  0  0  0  0  0  0  0
   10.9565    1.7581    0.0000 H   0  0  0  0  0  0  0  0  0  0  0  0
    8.2894    2.6298    0.0000 H   0  0  0  0  0  0  0  0  0  0  0  0
    5.2198   -2.1302    0.0000 H   0  0  0  0  0  0  0  0  0  0  0  0
    5.2198   -5.3702    0.0000 H   0  0  0  0  0  0  0  0  0  0  0  0
   11.4597    3.2980    0.0000 H   0  0  0  0  0  0  0  0  0  0  0  0
    8.7927    4.1697    0.0000 H   0  0  0  0  0  0  0  0  0  0  0  0
    4.1496    4.9613    0.0000 H   0  0  0  0  0  0  0  0  0  0  0  0
    3.8169   -2.9402    0.0000 H   0  0  0  0  0  0  0  0  0  0  0  0
    3.8169   -4.5602    0.0000 H   0  0  0  0  0  0  0  0  0  0  0  0
    1.8721    4.5662    0.0000 H   0  0  0  0  0  0  0  0  0  0  0  0
    1.3933    3.8316    0.0000 H   0  0  0  0  0  0  0  0  0  0  0  0
    2.1279    3.3528    0.0000 H   0  0  0  0  0  0  0  0  0  0  0  0
    2.5780    3.0594    0.0000 H   0  0  0  0  0  0  0  0  0  0  0  0
    3.3126    2.5805    0.0000 H   0  0  0  0  0  0  0  0  0  0  0  0
    3.7914    3.3151    0.0000 H   0  0  0  0  0  0  0  0  0  0  0  0
    3.3790    5.2721    0.0000 H   0  0  0  0  0  0  0  0  0  0  0  0
    2.6444    5.7509    0.0000 H   0  0  0  0  0  0  0  0  0  0  0  0
    2.1656    5.0164    0.0000 H   0  0  0  0  0  0  0  0  0  0  0  0
   10.3778    4.5038    0.0000 H   0  0  0  0  0  0  0  0  0  0  0  0
   12.7203   -3.2653    0.0000 H   0  0  0  0  0  0  0  0  0  0  0  0
   13.1991   -2.5308    0.0000 H   0  0  0  0  0  0  0  0  0  0  0  0
   12.4646   -2.0520    0.0000 H   0  0  0  0  0  0  0  0  0  0  0  0
   11.2135   -3.9712    0.0000 H   0  0  0  0  0  0  0  0  0  0  0  0
   11.9480   -4.4500    0.0000 H   0  0  0  0  0  0  0  0  0  0  0  0
   12.4268   -3.7155    0.0000 H   0  0  0  0  0  0  0  0  0  0  0  0
   12.0144   -1.7585    0.0000 H   0  0  0  0  0  0  0  0  0  0  0  0
   11.2799   -1.2797    0.0000 H   0  0  0  0  0  0  0  0  0  0  0  0
   10.8011   -2.0142    0.0000 H   0  0  0  0  0  0  0  0  0  0  0  0
    5.0854    0.5208    0.0000 H   0  0  0  0  0  0  0  0  0  0  0  0
    2.9216    2.9324    0.0000 H   0  0  0  0  0  0  0  0  0  0  0  0
    3.5003    0.1868    0.0000 H   0  0  0  0  0  0  0  0  0  0  0  0
    2.4184    1.3925    0.0000 H   0  0  0  0  0  0  0  0  0  0  0  0
  1 17  1  0  0  0  0
  1 29  1  0  0  0  0
 12  2  1  6  0  0  0
  2 60  1  0  0  0  0
  3 16  2  0  0  0  0
  4 27  1  0  0  0  0
  4 28  1  0  0  0  0
  5 27  2  0  0  0  0
  6 39  2  0  0  0  0
 11  7  1  6  0  0  0
  7 16  1  0  0  0  0
  7 53  1  0  0  0  0
 14  8  1  1  0  0  0
  8 27  1  0  0  0  0
  8 58  1  0  0  0  0
  9 21  1  0  0  0  0
  9 22  1  0  0  0  0
  9 61  1  0  0  0  0
 10 25  1  0  0  0  0
 10 39  1  0  0  0  0
 10 68  1  0  0  0  0
 11 12  1  0  0  0  0
 11 13  1  0  0  0  0
 11 48  1  0  0  0  0
 12 17  1  0  0  0  0
 12 49  1  0  0  0  0
 13 19  1  0  0  0  0
 13 50  1  0  0  0  0
 13 51  1  0  0  0  0
 14 15  1  0  0  0  0
 14 16  1  0  0  0  0
 14 52  1  0  0  0  0
 15 18  1  0  0  0  0
 15 54  1  0  0  0  0
 15 55  1  0  0  0  0
 17 56  1  0  0  0  0
 17 57  1  0  0  0  0
 18 20  1  0  0  0  0
 18 22  2  0  0  0  0
 19 23  2  0  0  0  0
 19 24  1  0  0  0  0
 20 21  1  0  0  0  0
 20 26  2  0  0  0  0
 21 30  2  0  0  0  0
 22 59  1  0  0  0  0
 23 32  1  0  0  0  0
 23 62  1  0  0  0  0
 24 33  2  0  0  0  0
 24 63  1  0  0  0  0
 25 36  1  0  0  0  0
 25 37  1  0  0  0  0
 25 38  1  0  0  0  0
 26 34  1  0  0  0  0
 26 64  1  0  0  0  0
 28 41  1  0  0  0  0
 28 42  1  0  0  0  0
 28 43  1  0  0  0  0
 29 31  1  0  0  0  0
 29 44  2  0  0  0  0
 30 35  1  0  0  0  0
 30 65  1  0  0  0  0
 31 39  1  0  0  0  0
 31 45  2  0  0  0  0
 32 40  2  0  0  0  0
 32 66  1  0  0  0  0
 33 40  1  0  0  0  0
 33 67  1  0  0  0  0
 34 35  2  0  0  0  0
 34 69  1  0  0  0  0
 35 70  1  0  0  0  0
 36 71  1  0  0  0  0
 36 72  1  0  0  0  0
 36 73  1  0  0  0  0
 37 74  1  0  0  0  0
 37 75  1  0  0  0  0
 37 76  1  0  0  0  0
 38 77  1  0  0  0  0
 38 78  1  0  0  0  0
 38 79  1  0  0  0  0
 40 80  1  0  0  0  0
 41 81  1  0  0  0  0
 41 82  1  0  0  0  0
 41 83  1  0  0  0  0
 42 84  1  0  0  0  0
 42 85  1  0  0  0  0
 42 86  1  0  0  0  0
 43 87  1  0  0  0  0
 43 88  1  0  0  0  0
 43 89  1  0  0  0  0
 44 46  1  0  0  0  0
 44 90  1  0  0  0  0
 45 47  1  0  0  0  0
 45 91  1  0  0  0  0
 46 47  2  0  0  0  0
 46 92  1  0  0  0  0
 47 93  1  0  0  0  0
M  END
> <PUBCHEM_COMPOUND_CID>
503104
> <PUBCHEM_COMPOUND_CANONICALIZED>
1
> <PUBCHEM_CACTVS_COMPLEXITY>
1020
> <PUBCHEM_CACTVS_HBOND_ACCEPTOR>
6
> <PUBCHEM_CACTVS_HBOND_DONOR>
5
> <PUBCHEM_CACTVS_ROTATABLE_BOND>
15
> <PUBCHEM_CACTVS_SUBSKEYS>
AAADcfB/uABAAAAAAAAAAAAAAAAAAWAAAAAwYMAAAAAAAFgB9AAAHgQQCAAADPzl3ga+yfLJlgioAzV3XACCgCA1CjAI2bm4ZNkKcPLglbGcYQhklgD4yYeYyeCOgAAAAAAGAAAAAAAAAAwAAAAAAAAAAA==
> <PUBCHEM_IUPAC_OPENEYE_NAME>
tert-butyl N-[(1S)-2-[[(1S,2R)-1-benzyl-3-[2-(tert-butylcarbamoyl)phenyl]sulfanyl-2-hydroxy-propyl]amino]-1-(1H-indol-3-ylmethyl)-2-oxo-ethyl]carbamate
> <PUBCHEM_IUPAC_CAS_NAME>
N-[(2S)-1-[[(2S,3R)-4-[[2-[(tert-butylamino)-oxomethyl]phenyl]thio]-3-hydroxy-1-phenylbutan-2-yl]amino]-3-(1H-indol-3-yl)-1-oxopropan-2-yl]carbamic acid tert-butyl ester
> <PUBCHEM_IUPAC_NAME_MARKUP>
<I>tert</I>-butyl <I>N</I>-[(2<I>S</I>)-1-[[(2<I>S</I>,3<I>R</I>)-4-[2-(<I>tert</I>-butylcarbamoyl)phenyl]sulfanyl-3-hydroxy-1-phenylbutan-2-yl]amino]-3-(1<I>H</I>-indol-3-yl)-1-oxopropan-2-yl]carbamate
> <PUBCHEM_IUPAC_NAME>
tert-butyl N-[(2S)-1-[[(2S,3R)-4-[2-(tert-butylcarbamoyl)phenyl]sulfanyl-3-hydroxy-1-phenylbutan-2-yl]amino]-3-(1H-indol-3-yl)-1-oxopropan-2-yl]carbamate
> <PUBCHEM_IUPAC_SYSTEMATIC_NAME>
tert-butyl N-[(2S)-1-[[(2S,3R)-4-[2-(tert-butylcarbamoyl)phenyl]sulfanyl-3-oxidanyl-1-phenyl-butan-2-yl]amino]-3-(1H-indol-3-yl)-1-oxidanylidene-propan-2-yl]carbamate
> <PUBCHEM_IUPAC_TRADITIONAL_NAME>
N-[(1S)-2-[[(1S,2R)-1-benzyl-3-[[2-(tert-butylcarbamoyl)phenyl]thio]-2-hydroxy-propyl]amino]-1-(1H-indol-3-ylmethyl)-2-keto-ethyl]carbamic acid tert-butyl ester
> <PUBCHEM_IUPAC_INCHI>
InChI=1S/C37H46N4O5S/c1-36(2,3)41-33(43)27-17-11-13-19-32(27)47-23-31(42)29(20-24-14-8-7-9-15-24)39-34(44)30(40-35(45)46-37(4,5)6)21-25-22-38-28-18-12-10-16-26(25)28/h7-19,22,29-31,38,42H,20-21,23H2,1-6H3,(H,39,44)(H,40,45)(H,41,43)/t29-,30-,31-/m0/s1
> <PUBCHEM_IUPAC_INCHIKEY>
SJAQYKYWIJRQGK-CHQNGUEUSA-N
> <PUBCHEM_XLOGP3_AA>
6.3
> <PUBCHEM_EXACT_MASS>
658.31889175
> <PUBCHEM_MOLECULAR_FORMULA>
C37H46N4O5S
> <PUBCHEM_MOLECULAR_WEIGHT>
658.9
> <PUBCHEM_OPENEYE_CAN_SMILES>
CC(C)(C)NC(=O)C1=CC=CC=C1SCC(C(CC2=CC=CC=C2)NC(=O)C(CC3=CNC4=CC=CC=C43)NC(=O)OC(C)(C)C)O
> <PUBCHEM_OPENEYE_ISO_SMILES>
CC(C)(C)NC(=O)C1=CC=CC=C1SC[C@@H]([C@H](CC2=CC=CC=C2)NC(=O)[C@H](CC3=CNC4=CC=CC=C43)NC(=O)OC(C)(C)C)O
> <PUBCHEM_CACTVS_TPSA>
158
> <PUBCHEM_MONOISOTOPIC_WEIGHT>
658.31889175
> <PUBCHEM_TOTAL_CHARGE>
0
> <PUBCHEM_HEAVY_ATOM_COUNT>
47
> <PUBCHEM_ATOM_DEF_STEREO_COUNT>
3
> <PUBCHEM_ATOM_UDEF_STEREO_COUNT>
0
> <PUBCHEM_BOND_DEF_STEREO_COUNT>
0
> <PUBCHEM_BOND_UDEF_STEREO_COUNT>
0
> <PUBCHEM_ISOTOPIC_ATOM_COUNT>
0
> <PUBCHEM_COMPONENT_COUNT>
1
> <PUBCHEM_CACTVS_TAUTO_COUNT>
-1
> <PUBCHEM_COORDINATE_TYPE>
1
5
255
> <PUBCHEM_BONDANNOTATIONS>
18  20  8
18  22  8
19  23  8
19  24  8
12  2  6
20  21  8
20  26  8
21  30  8
23  32  8
24  33  8
26  34  8
29  31  8
29  44  8
30  35  8
31  45  8
32  40  8
33  40  8
34  35  8
44  46  8
45  47  8
46  47  8
11  7  6
14  8  5
9  21  8
9  22  8
$$$$
