503189
  -OEChem-10302200282D
103107  0     1  0  0  0  0  0999 V2000
    4.5981   -2.0670    0.0000 S   0  0  0  0  0  0  0  0  0  0  0  0
    7.1962    1.4330    0.0000 O   0  0  0  0  0  0  0  0  0  0  0  0
    8.9282   -1.5670    0.0000 O   0  0  0  0  0  0  0  0  0  0  0  0
   10.6603    2.4330    0.0000 O   0  0  0  0  0  0  0  0  0  0  0  0
   13.2583   -0.0670    0.0000 O   0  0  0  0  0  0  0  0  0  0  0  0
    7.1962   -0.5670    0.0000 N   0  0  3  0  0  0  0  0  0  0  0  0
    8.0622   -3.0670    0.0000 N   0  0  0  0  0  0  0  0  0  0  0  0
    9.7942    0.9330    0.0000 N   0  0  0  0  0  0  0  0  0  0  0  0
   12.3923    1.4330    0.0000 N   0  0  0  0  0  0  0  0  0  0  0  0
    7.1962   -1.5670    0.0000 C   0  0  1  0  0  0  0  0  0  0  0  0
    6.3301   -2.0670    0.0000 C   0  0  0  0  0  0  0  0  0  0  0  0
    5.4641   -1.5670    0.0000 C   0  0  1  0  0  0  0  0  0  0  0  0
    6.3301   -0.0670    0.0000 C   0  0  0  0  0  0  0  0  0  0  0  0
    5.4641   -0.5670    0.0000 C   0  0  0  0  0  0  0  0  0  0  0  0
    8.0622   -0.0670    0.0000 C   0  0  0  0  0  0  0  0  0  0  0  0
    8.0622    0.9330    0.0000 C   0  0  2  0  0  0  0  0  0  0  0  0
    8.9282    1.4330    0.0000 C   0  0  2  0  0  0  0  0  0  0  0  0
    8.0622   -2.0670    0.0000 C   0  0  0  0  0  0  0  0  0  0  0  0
    8.9282    2.4330    0.0000 C   0  0  0  0  0  0  0  0  0  0  0  0
    8.9282   -3.5670    0.0000 C   0  0  0  0  0  0  0  0  0  0  0  0
    3.7320   -1.5670    0.0000 C   0  0  0  0  0  0  0  0  0  0  0  0
    8.0622    2.9330    0.0000 C   0  0  0  0  0  0  0  0  0  0  0  0
   10.6603    1.4330    0.0000 C   0  0  0  0  0  0  0  0  0  0  0  0
    9.7942   -4.0670    0.0000 C   0  0  0  0  0  0  0  0  0  0  0  0
    8.4282   -4.4330    0.0000 C   0  0  0  0  0  0  0  0  0  0  0  0
    9.4282   -2.7010    0.0000 C   0  0  0  0  0  0  0  0  0  0  0  0
   11.5263    0.9330    0.0000 C   0  0  2  0  0  0  0  0  0  0  0  0
   11.5263   -0.0670    0.0000 C   0  0  0  0  0  0  0  0  0  0  0  0
    2.8660   -2.0670    0.0000 C   0  0  0  0  0  0  0  0  0  0  0  0
    3.7320   -0.5670    0.0000 C   0  0  0  0  0  0  0  0  0  0  0  0
    7.1962    2.4330    0.0000 C   0  0  0  0  0  0  0  0  0  0  0  0
    8.0622    3.9330    0.0000 C   0  0  0  0  0  0  0  0  0  0  0  0
   10.6603   -0.5670    0.0000 C   0  0  0  0  0  0  0  0  0  0  0  0
   12.3923   -0.5670    0.0000 C   0  0  0  0  0  0  0  0  0  0  0  0
    2.0000   -1.5670    0.0000 C   0  0  0  0  0  0  0  0  0  0  0  0
    2.8660   -0.0670    0.0000 C   0  0  0  0  0  0  0  0  0  0  0  0
    6.3301    2.9330    0.0000 C   0  0  0  0  0  0  0  0  0  0  0  0
    7.1962    4.4330    0.0000 C   0  0  0  0  0  0  0  0  0  0  0  0
    2.0000   -0.5670    0.0000 C   0  0  0  0  0  0  0  0  0  0  0  0
    6.3301    3.9330    0.0000 C   0  0  0  0  0  0  0  0  0  0  0  0
   13.2583    0.9330    0.0000 C   0  0  0  0  0  0  0  0  0  0  0  0
   14.1244    1.4330    0.0000 C   0  0  0  0  0  0  0  0  0  0  0  0
   14.9904    0.9330    0.0000 C   0  0  0  0  0  0  0  0  0  0  0  0
   14.1244    2.4330    0.0000 C   0  0  0  0  0  0  0  0  0  0  0  0
   15.8564    1.4330    0.0000 C   0  0  0  0  0  0  0  0  0  0  0  0
   15.8564    2.4330    0.0000 C   0  0  0  0  0  0  0  0  0  0  0  0
   14.9904    2.9330    0.0000 C   0  0  0  0  0  0  0  0  0  0  0  0
   16.7503    0.8984    0.0000 C   0  0  0  0  0  0  0  0  0  0  0  0
   16.7503    2.9677    0.0000 C   0  0  0  0  0  0  0  0  0  0  0  0
   17.6564    1.4122    0.0000 C   0  0  0  0  0  0  0  0  0  0  0  0
   17.6564    2.4538    0.0000 C   0  0  0  0  0  0  0  0  0  0  0  0
    7.7331   -1.2570    0.0000 H   0  0  0  0  0  0  0  0  0  0  0  0
    5.9316   -2.5419    0.0000 H   0  0  0  0  0  0  0  0  0  0  0  0
    6.7287   -2.5419    0.0000 H   0  0  0  0  0  0  0  0  0  0  0  0
    5.4641   -2.1870    0.0000 H   0  0  0  0  0  0  0  0  0  0  0  0
    6.7287    0.4080    0.0000 H   0  0  0  0  0  0  0  0  0  0  0  0
    5.9316    0.4080    0.0000 H   0  0  0  0  0  0  0  0  0  0  0  0
    5.2520    0.0156    0.0000 H   0  0  0  0  0  0  0  0  0  0  0  0
    4.8535   -0.6746    0.0000 H   0  0  0  0  0  0  0  0  0  0  0  0
    8.2742   -0.6496    0.0000 H   0  0  0  0  0  0  0  0  0  0  0  0
    8.6728    0.0407    0.0000 H   0  0  0  0  0  0  0  0  0  0  0  0
    8.0622    1.5530    0.0000 H   0  0  0  0  0  0  0  0  0  0  0  0
    9.4651    1.7430    0.0000 H   0  0  0  0  0  0  0  0  0  0  0  0
    9.5388    2.3253    0.0000 H   0  0  0  0  0  0  0  0  0  0  0  0
    9.1403    3.0156    0.0000 H   0  0  0  0  0  0  0  0  0  0  0  0
    7.5252   -3.3770    0.0000 H   0  0  0  0  0  0  0  0  0  0  0  0
    9.7942    0.3130    0.0000 H   0  0  0  0  0  0  0  0  0  0  0  0
    6.6592    1.1230    0.0000 H   0  0  0  0  0  0  0  0  0  0  0  0
    9.4842   -4.6039    0.0000 H   0  0  0  0  0  0  0  0  0  0  0  0
   10.3312   -4.3770    0.0000 H   0  0  0  0  0  0  0  0  0  0  0  0
   10.1042   -3.5300    0.0000 H   0  0  0  0  0  0  0  0  0  0  0  0
    7.8913   -4.1230    0.0000 H   0  0  0  0  0  0  0  0  0  0  0  0
    8.1182   -4.9700    0.0000 H   0  0  0  0  0  0  0  0  0  0  0  0
    8.9651   -4.7430    0.0000 H   0  0  0  0  0  0  0  0  0  0  0  0
    9.9651   -3.0110    0.0000 H   0  0  0  0  0  0  0  0  0  0  0  0
    9.7382   -2.1640    0.0000 H   0  0  0  0  0  0  0  0  0  0  0  0
    8.8913   -2.3910    0.0000 H   0  0  0  0  0  0  0  0  0  0  0  0
   12.0632    0.6230    0.0000 H   0  0  0  0  0  0  0  0  0  0  0  0
   10.9893    0.2430    0.0000 H   0  0  0  0  0  0  0  0  0  0  0  0
    2.8660   -2.6870    0.0000 H   0  0  0  0  0  0  0  0  0  0  0  0
    4.2690   -0.2570    0.0000 H   0  0  0  0  0  0  0  0  0  0  0  0
    7.1962    1.8130    0.0000 H   0  0  0  0  0  0  0  0  0  0  0  0
    8.5991    4.2430    0.0000 H   0  0  0  0  0  0  0  0  0  0  0  0
   12.3923    2.0530    0.0000 H   0  0  0  0  0  0  0  0  0  0  0  0
   10.3503   -0.0301    0.0000 H   0  0  0  0  0  0  0  0  0  0  0  0
   10.1233   -0.8770    0.0000 H   0  0  0  0  0  0  0  0  0  0  0  0
   10.9703   -1.1039    0.0000 H   0  0  0  0  0  0  0  0  0  0  0  0
   12.0823   -1.1039    0.0000 H   0  0  0  0  0  0  0  0  0  0  0  0
   12.9292   -0.8770    0.0000 H   0  0  0  0  0  0  0  0  0  0  0  0
   12.7023   -0.0301    0.0000 H   0  0  0  0  0  0  0  0  0  0  0  0
    1.4631   -1.8770    0.0000 H   0  0  0  0  0  0  0  0  0  0  0  0
    2.8660    0.5530    0.0000 H   0  0  0  0  0  0  0  0  0  0  0  0
    5.7932    2.6230    0.0000 H   0  0  0  0  0  0  0  0  0  0  0  0
    7.1962    5.0530    0.0000 H   0  0  0  0  0  0  0  0  0  0  0  0
    1.4631   -0.2570    0.0000 H   0  0  0  0  0  0  0  0  0  0  0  0
    5.7932    4.2430    0.0000 H   0  0  0  0  0  0  0  0  0  0  0  0
   14.9904    0.3130    0.0000 H   0  0  0  0  0  0  0  0  0  0  0  0
   13.5874    2.7430    0.0000 H   0  0  0  0  0  0  0  0  0  0  0  0
   14.9904    3.5530    0.0000 H   0  0  0  0  0  0  0  0  0  0  0  0
   16.7432    0.2784    0.0000 H   0  0  0  0  0  0  0  0  0  0  0  0
   16.7432    3.5876    0.0000 H   0  0  0  0  0  0  0  0  0  0  0  0
   18.1922    1.1001    0.0000 H   0  0  0  0  0  0  0  0  0  0  0  0
   18.1922    2.7659    0.0000 H   0  0  0  0  0  0  0  0  0  0  0  0
 12  1  1  6  0  0  0
  1 21  1  0  0  0  0
 16  2  1  1  0  0  0
  2 68  1  0  0  0  0
  3 18  2  0  0  0  0
  4 23  2  0  0  0  0
  5 41  2  0  0  0  0
  6 10  1  0  0  0  0
  6 13  1  0  0  0  0
  6 15  1  0  0  0  0
  7 18  1  0  0  0  0
  7 20  1  0  0  0  0
  7 66  1  0  0  0  0
 17  8  1  6  0  0  0
  8 23  1  0  0  0  0
  8 67  1  0  0  0  0
 27  9  1  1  0  0  0
  9 41  1  0  0  0  0
  9 84  1  0  0  0  0
 10 11  1  0  0  0  0
 10 18  1  6  0  0  0
 10 52  1  0  0  0  0
 11 12  1  0  0  0  0
 11 53  1  0  0  0  0
 11 54  1  0  0  0  0
 12 14  1  0  0  0  0
 12 55  1  0  0  0  0
 13 14  1  0  0  0  0
 13 56  1  0  0  0  0
 13 57  1  0  0  0  0
 14 58  1  0  0  0  0
 14 59  1  0  0  0  0
 15 16  1  0  0  0  0
 15 60  1  0  0  0  0
 15 61  1  0  0  0  0
 16 17  1  0  0  0  0
 16 62  1  0  0  0  0
 17 19  1  0  0  0  0
 17 63  1  0  0  0  0
 19 22  1  0  0  0  0
 19 64  1  0  0  0  0
 19 65  1  0  0  0  0
 20 24  1  0  0  0  0
 20 25  1  0  0  0  0
 20 26  1  0  0  0  0
 21 29  2  0  0  0  0
 21 30  1  0  0  0  0
 22 31  2  0  0  0  0
 22 32  1  0  0  0  0
 23 27  1  0  0  0  0
 24 69  1  0  0  0  0
 24 70  1  0  0  0  0
 24 71  1  0  0  0  0
 25 72  1  0  0  0  0
 25 73  1  0  0  0  0
 25 74  1  0  0  0  0
 26 75  1  0  0  0  0
 26 76  1  0  0  0  0
 26 77  1  0  0  0  0
 27 28  1  0  0  0  0
 27 78  1  0  0  0  0
 28 33  1  0  0  0  0
 28 34  1  0  0  0  0
 28 79  1  0  0  0  0
 29 35  1  0  0  0  0
 29 80  1  0  0  0  0
 30 36  2  0  0  0  0
 30 81  1  0  0  0  0
 31 37  1  0  0  0  0
 31 82  1  0  0  0  0
 32 38  2  0  0  0  0
 32 83  1  0  0  0  0
 33 85  1  0  0  0  0
 33 86  1  0  0  0  0
 33 87  1  0  0  0  0
 34 88  1  0  0  0  0
 34 89  1  0  0  0  0
 34 90  1  0  0  0  0
 35 39  2  0  0  0  0
 35 91  1  0  0  0  0
 36 39  1  0  0  0  0
 36 92  1  0  0  0  0
 37 40  2  0  0  0  0
 37 93  1  0  0  0  0
 38 40  1  0  0  0  0
 38 94  1  0  0  0  0
 39 95  1  0  0  0  0
 40 96  1  0  0  0  0
 41 42  1  0  0  0  0
 42 43  2  0  0  0  0
 42 44  1  0  0  0  0
 43 45  1  0  0  0  0
 43 97  1  0  0  0  0
 44 47  2  0  0  0  0
 44 98  1  0  0  0  0
 45 46  1  0  0  0  0
 45 48  2  0  0  0  0
 46 47  1  0  0  0  0
 46 49  2  0  0  0  0
 47 99  1  0  0  0  0
 48 50  1  0  0  0  0
 48100  1  0  0  0  0
 49 51  1  0  0  0  0
 49101  1  0  0  0  0
 50 51  2  0  0  0  0
 50102  1  0  0  0  0
 51103  1  0  0  0  0
M  END
> <PUBCHEM_COMPOUND_CID>
503189
> <PUBCHEM_COMPOUND_CANONICALIZED>
1
> <PUBCHEM_CACTVS_COMPLEXITY>
1120
> <PUBCHEM_CACTVS_HBOND_ACCEPTOR>
6
> <PUBCHEM_CACTVS_HBOND_DONOR>
4
> <PUBCHEM_CACTVS_ROTATABLE_BOND>
14
> <PUBCHEM_CACTVS_SUBSKEYS>
AAADcfB/uABAAAAAAAAAAAAAAAAAAAAAAAA8YMGCAAAAAADBVAAAHgQQCAAADbzl2AayAcPAAgiIAiFSEACCAAAkCBAIiJmIBMgKcDKg1TGUYQhklgC4iYeYyOCOwAACAAAQAACAAAQAACAAAAAAAAAAAA==
> <PUBCHEM_IUPAC_OPENEYE_NAME>
(2S,4R)-N-tert-butyl-1-[(2R,3S)-2-hydroxy-3-[[(2S)-3-methyl-2-(naphthalene-2-carbonylamino)butanoyl]amino]-4-phenyl-butyl]-4-phenylsulfanyl-piperidine-2-carboxamide
> <PUBCHEM_IUPAC_CAS_NAME>
(2S,4R)-N-tert-butyl-1-[(2R,3S)-2-hydroxy-3-[[(2S)-3-methyl-2-[[2-naphthalenyl(oxo)methyl]amino]-1-oxobutyl]amino]-4-phenylbutyl]-4-(phenylthio)-2-piperidinecarboxamide
> <PUBCHEM_IUPAC_NAME_MARKUP>
(2<I>S</I>,4<I>R</I>)-<I>N</I>-<I>tert</I>-butyl-1-[(2<I>R</I>,3<I>S</I>)-2-hydroxy-3-[[(2<I>S</I>)-3-methyl-2-(naphthalene-2-carbonylamino)butanoyl]amino]-4-phenylbutyl]-4-phenylsulfanylpiperidine-2-carboxamide
> <PUBCHEM_IUPAC_NAME>
(2S,4R)-N-tert-butyl-1-[(2R,3S)-2-hydroxy-3-[[(2S)-3-methyl-2-(naphthalene-2-carbonylamino)butanoyl]amino]-4-phenylbutyl]-4-phenylsulfanylpiperidine-2-carboxamide
> <PUBCHEM_IUPAC_SYSTEMATIC_NAME>
(2S,4R)-N-tert-butyl-1-[(2R,3S)-3-[[(2S)-3-methyl-2-(naphthalen-2-ylcarbonylamino)butanoyl]amino]-2-oxidanyl-4-phenyl-butyl]-4-phenylsulfanyl-piperidine-2-carboxamide
> <PUBCHEM_IUPAC_TRADITIONAL_NAME>
(2S,4R)-N-tert-butyl-1-[(2R,3S)-2-hydroxy-3-[[(2S)-3-methyl-2-(2-naphthoylamino)butanoyl]amino]-4-phenyl-butyl]-4-(phenylthio)pipecolinamide
> <PUBCHEM_IUPAC_INCHI>
InChI=1S/C42H52N4O4S/c1-28(2)38(44-39(48)32-21-20-30-16-12-13-17-31(30)25-32)41(50)43-35(24-29-14-8-6-9-15-29)37(47)27-46-23-22-34(51-33-18-10-7-11-19-33)26-36(46)40(49)45-42(3,4)5/h6-21,25,28,34-38,47H,22-24,26-27H2,1-5H3,(H,43,50)(H,44,48)(H,45,49)/t34-,35+,36+,37-,38+/m1/s1
> <PUBCHEM_IUPAC_INCHIKEY>
KKRODDLLWSZXFJ-LDVAZLSXSA-N
> <PUBCHEM_XLOGP3_AA>
7.7
> <PUBCHEM_EXACT_MASS>
708.37092733
> <PUBCHEM_MOLECULAR_FORMULA>
C42H52N4O4S
> <PUBCHEM_MOLECULAR_WEIGHT>
709.0
> <PUBCHEM_OPENEYE_CAN_SMILES>
CC(C)C(C(=O)NC(CC1=CC=CC=C1)C(CN2CCC(CC2C(=O)NC(C)(C)C)SC3=CC=CC=C3)O)NC(=O)C4=CC5=CC=CC=C5C=C4
> <PUBCHEM_OPENEYE_ISO_SMILES>
CC(C)[C@@H](C(=O)N[C@@H](CC1=CC=CC=C1)[C@@H](CN2CC[C@H](C[C@H]2C(=O)NC(C)(C)C)SC3=CC=CC=C3)O)NC(=O)C4=CC5=CC=CC=C5C=C4
> <PUBCHEM_CACTVS_TPSA>
136
> <PUBCHEM_MONOISOTOPIC_WEIGHT>
708.37092733
> <PUBCHEM_TOTAL_CHARGE>
0
> <PUBCHEM_HEAVY_ATOM_COUNT>
51
> <PUBCHEM_ATOM_DEF_STEREO_COUNT>
5
> <PUBCHEM_ATOM_UDEF_STEREO_COUNT>
0
> <PUBCHEM_BOND_DEF_STEREO_COUNT>
0
> <PUBCHEM_BOND_UDEF_STEREO_COUNT>
0
> <PUBCHEM_ISOTOPIC_ATOM_COUNT>
0
> <PUBCHEM_COMPONENT_COUNT>
1
> <PUBCHEM_CACTVS_TAUTO_COUNT>
-1
> <PUBCHEM_COORDINATE_TYPE>
1
5
255
> <PUBCHEM_BONDANNOTATIONS>
12  1  6
10  18  6
16  2  5
21  29  8
21  30  8
22  31  8
22  32  8
29  35  8
30  36  8
31  37  8
32  38  8
35  39  8
36  39  8
37  40  8
38  40  8
42  43  8
42  44  8
43  45  8
44  47  8
45  46  8
45  48  8
46  47  8
46  49  8
48  50  8
49  51  8
50  51  8
17  8  6
27  9  5
$$$$
