503227
  -OEChem-10302200282D
104108  0     1  0  0  0  0  0999 V2000
    8.9962    3.6550    0.0000 S   0  0  0  0  0  0  0  0  0  0  0  0
   10.7282   -0.3450    0.0000 O   0  0  0  0  0  0  0  0  0  0  0  0
    7.2641   -0.3450    0.0000 O   0  0  0  0  0  0  0  0  0  0  0  0
    9.8622   -3.8450    0.0000 O   0  0  0  0  0  0  0  0  0  0  0  0
    9.8622   -4.8450    0.0000 O   0  0  0  0  0  0  0  0  0  0  0  0
    6.3981   -4.8450    0.0000 O   0  0  0  0  0  0  0  0  0  0  0  0
    8.9962    0.6550    0.0000 N   0  0  3  0  0  0  0  0  0  0  0  0
    6.3981    1.1550    0.0000 N   0  0  0  0  0  0  0  0  0  0  0  0
    8.9962   -2.3450    0.0000 N   0  0  0  0  0  0  0  0  0  0  0  0
    9.8622    5.1550    0.0000 N   0  0  0  0  0  0  0  0  0  0  0  0
   10.7282    3.6550    0.0000 N   0  0  0  0  0  0  0  0  0  0  0  0
    7.2641   -3.3450    0.0000 N   0  0  0  0  0  0  0  0  0  0  0  0
    8.9962   -6.3450    0.0000 N   0  0  0  0  0  0  0  0  0  0  0  0
    4.6660   -3.8450    0.0000 N   0  0  0  0  0  0  0  0  0  0  0  0
    8.1301    1.1550    0.0000 C   0  0  1  0  0  0  0  0  0  0  0  0
    8.1301    2.1550    0.0000 C   0  0  0  0  0  0  0  0  0  0  0  0
    8.9962    2.6550    0.0000 C   0  0  1  0  0  0  0  0  0  0  0  0
    9.8622    1.1550    0.0000 C   0  0  0  0  0  0  0  0  0  0  0  0
    9.8622    2.1550    0.0000 C   0  0  0  0  0  0  0  0  0  0  0  0
    8.9962   -0.3450    0.0000 C   0  0  0  0  0  0  0  0  0  0  0  0
    9.8622   -0.8450    0.0000 C   0  0  2  0  0  0  0  0  0  0  0  0
    7.2641    0.6550    0.0000 C   0  0  0  0  0  0  0  0  0  0  0  0
    9.8622   -1.8450    0.0000 C   0  0  2  0  0  0  0  0  0  0  0  0
    5.5321    0.6550    0.0000 C   0  0  0  0  0  0  0  0  0  0  0  0
   10.7282   -2.3450    0.0000 C   0  0  0  0  0  0  0  0  0  0  0  0
   11.5942   -1.8450    0.0000 C   0  0  0  0  0  0  0  0  0  0  0  0
    4.6660    0.1550    0.0000 C   0  0  0  0  0  0  0  0  0  0  0  0
    5.0321    1.5210    0.0000 C   0  0  0  0  0  0  0  0  0  0  0  0
    6.0321   -0.2110    0.0000 C   0  0  0  0  0  0  0  0  0  0  0  0
    9.8622    4.1550    0.0000 C   0  0  0  0  0  0  0  0  0  0  0  0
    8.9962   -3.3450    0.0000 C   0  0  0  0  0  0  0  0  0  0  0  0
    8.1301   -3.8450    0.0000 C   0  0  2  0  0  0  0  0  0  0  0  0
   12.4603   -2.3450    0.0000 C   0  0  0  0  0  0  0  0  0  0  0  0
   11.5942   -0.8450    0.0000 C   0  0  0  0  0  0  0  0  0  0  0  0
    8.1301   -4.8450    0.0000 C   0  0  0  0  0  0  0  0  0  0  0  0
   13.3263   -1.8450    0.0000 C   0  0  0  0  0  0  0  0  0  0  0  0
   12.4603   -0.3450    0.0000 C   0  0  0  0  0  0  0  0  0  0  0  0
   10.7282    5.6550    0.0000 C   0  0  0  0  0  0  0  0  0  0  0  0
   11.5942    4.1550    0.0000 C   0  0  0  0  0  0  0  0  0  0  0  0
   13.3263   -0.8450    0.0000 C   0  0  0  0  0  0  0  0  0  0  0  0
   11.5942    5.1550    0.0000 C   0  0  0  0  0  0  0  0  0  0  0  0
    8.9962   -5.3450    0.0000 C   0  0  0  0  0  0  0  0  0  0  0  0
    6.3981   -3.8450    0.0000 C   0  0  0  0  0  0  0  0  0  0  0  0
   10.7282    6.6550    0.0000 C   0  0  0  0  0  0  0  0  0  0  0  0
   12.4603    3.6550    0.0000 C   0  0  0  0  0  0  0  0  0  0  0  0
    5.5321   -3.3450    0.0000 C   0  0  0  0  0  0  0  0  0  0  0  0
    5.5321   -2.3450    0.0000 C   0  0  0  0  0  0  0  0  0  0  0  0
    3.8000   -3.3450    0.0000 C   0  0  0  0  0  0  0  0  0  0  0  0
    4.6660   -1.8450    0.0000 C   0  0  0  0  0  0  0  0  0  0  0  0
    3.8000   -2.3450    0.0000 C   0  0  0  0  0  0  0  0  0  0  0  0
    2.9061   -3.8797    0.0000 C   0  0  0  0  0  0  0  0  0  0  0  0
    2.9061   -1.8103    0.0000 C   0  0  0  0  0  0  0  0  0  0  0  0
    2.0000   -3.3658    0.0000 C   0  0  0  0  0  0  0  0  0  0  0  0
    2.0000   -2.3242    0.0000 C   0  0  0  0  0  0  0  0  0  0  0  0
    8.1301    0.5350    0.0000 H   0  0  0  0  0  0  0  0  0  0  0  0
    7.9181    2.7376    0.0000 H   0  0  0  0  0  0  0  0  0  0  0  0
    7.5196    2.0473    0.0000 H   0  0  0  0  0  0  0  0  0  0  0  0
    9.5331    2.9650    0.0000 H   0  0  0  0  0  0  0  0  0  0  0  0
   10.0742    0.5724    0.0000 H   0  0  0  0  0  0  0  0  0  0  0  0
   10.4728    1.2627    0.0000 H   0  0  0  0  0  0  0  0  0  0  0  0
   10.4728    2.0473    0.0000 H   0  0  0  0  0  0  0  0  0  0  0  0
   10.0742    2.7376    0.0000 H   0  0  0  0  0  0  0  0  0  0  0  0
    8.3856   -0.2373    0.0000 H   0  0  0  0  0  0  0  0  0  0  0  0
    8.7841   -0.9276    0.0000 H   0  0  0  0  0  0  0  0  0  0  0  0
    9.8622   -0.2250    0.0000 H   0  0  0  0  0  0  0  0  0  0  0  0
    9.3252   -1.5350    0.0000 H   0  0  0  0  0  0  0  0  0  0  0  0
    6.3981    1.7750    0.0000 H   0  0  0  0  0  0  0  0  0  0  0  0
   10.3297   -2.8200    0.0000 H   0  0  0  0  0  0  0  0  0  0  0  0
   11.1267   -2.8200    0.0000 H   0  0  0  0  0  0  0  0  0  0  0  0
    8.4592   -2.0350    0.0000 H   0  0  0  0  0  0  0  0  0  0  0  0
   10.7282    0.2750    0.0000 H   0  0  0  0  0  0  0  0  0  0  0  0
    4.3560    0.6919    0.0000 H   0  0  0  0  0  0  0  0  0  0  0  0
    4.1291   -0.1550    0.0000 H   0  0  0  0  0  0  0  0  0  0  0  0
    4.9760   -0.3819    0.0000 H   0  0  0  0  0  0  0  0  0  0  0  0
    5.5690    1.8310    0.0000 H   0  0  0  0  0  0  0  0  0  0  0  0
    4.7221    2.0580    0.0000 H   0  0  0  0  0  0  0  0  0  0  0  0
    4.4951    1.2110    0.0000 H   0  0  0  0  0  0  0  0  0  0  0  0
    5.4951   -0.5210    0.0000 H   0  0  0  0  0  0  0  0  0  0  0  0
    6.3421   -0.7480    0.0000 H   0  0  0  0  0  0  0  0  0  0  0  0
    6.5690    0.0990    0.0000 H   0  0  0  0  0  0  0  0  0  0  0  0
    7.5932   -4.1550    0.0000 H   0  0  0  0  0  0  0  0  0  0  0  0
   12.4603   -2.9650    0.0000 H   0  0  0  0  0  0  0  0  0  0  0  0
   11.0573   -0.5350    0.0000 H   0  0  0  0  0  0  0  0  0  0  0  0
    7.5196   -4.7373    0.0000 H   0  0  0  0  0  0  0  0  0  0  0  0
    7.9181   -5.4276    0.0000 H   0  0  0  0  0  0  0  0  0  0  0  0
    7.2641   -2.7250    0.0000 H   0  0  0  0  0  0  0  0  0  0  0  0
   13.8632   -2.1550    0.0000 H   0  0  0  0  0  0  0  0  0  0  0  0
   12.4603    0.2750    0.0000 H   0  0  0  0  0  0  0  0  0  0  0  0
   13.8632   -0.5350    0.0000 H   0  0  0  0  0  0  0  0  0  0  0  0
   12.1312    5.4650    0.0000 H   0  0  0  0  0  0  0  0  0  0  0  0
   11.3482    6.6550    0.0000 H   0  0  0  0  0  0  0  0  0  0  0  0
   10.7282    7.2750    0.0000 H   0  0  0  0  0  0  0  0  0  0  0  0
   10.1082    6.6550    0.0000 H   0  0  0  0  0  0  0  0  0  0  0  0
   12.1503    3.1181    0.0000 H   0  0  0  0  0  0  0  0  0  0  0  0
   12.9972    3.3450    0.0000 H   0  0  0  0  0  0  0  0  0  0  0  0
   12.7703    4.1919    0.0000 H   0  0  0  0  0  0  0  0  0  0  0  0
    9.5331   -6.6550    0.0000 H   0  0  0  0  0  0  0  0  0  0  0  0
    8.4592   -6.6550    0.0000 H   0  0  0  0  0  0  0  0  0  0  0  0
    6.0690   -2.0350    0.0000 H   0  0  0  0  0  0  0  0  0  0  0  0
    4.6660   -1.2250    0.0000 H   0  0  0  0  0  0  0  0  0  0  0  0
    2.9132   -4.4996    0.0000 H   0  0  0  0  0  0  0  0  0  0  0  0
    2.9132   -1.1904    0.0000 H   0  0  0  0  0  0  0  0  0  0  0  0
    1.4643   -3.6779    0.0000 H   0  0  0  0  0  0  0  0  0  0  0  0
    1.4643   -2.0121    0.0000 H   0  0  0  0  0  0  0  0  0  0  0  0
 17  1  1  6  0  0  0
  1 30  1  0  0  0  0
 21  2  1  1  0  0  0
  2 71  1  0  0  0  0
  3 22  2  0  0  0  0
  4 31  2  0  0  0  0
  5 42  2  0  0  0  0
  6 43  2  0  0  0  0
  7 15  1  0  0  0  0
  7 18  1  0  0  0  0
  7 20  1  0  0  0  0
  8 22  1  0  0  0  0
  8 24  1  0  0  0  0
  8 67  1  0  0  0  0
 23  9  1  6  0  0  0
  9 31  1  0  0  0  0
  9 70  1  0  0  0  0
 10 30  2  0  0  0  0
 10 38  1  0  0  0  0
 11 30  1  0  0  0  0
 11 39  2  0  0  0  0
 32 12  1  6  0  0  0
 12 43  1  0  0  0  0
 12 86  1  0  0  0  0
 13 42  1  0  0  0  0
 13 97  1  0  0  0  0
 13 98  1  0  0  0  0
 14 46  2  0  0  0  0
 14 48  1  0  0  0  0
 15 16  1  0  0  0  0
 15 22  1  6  0  0  0
 15 55  1  0  0  0  0
 16 17  1  0  0  0  0
 16 56  1  0  0  0  0
 16 57  1  0  0  0  0
 17 19  1  0  0  0  0
 17 58  1  0  0  0  0
 18 19  1  0  0  0  0
 18 59  1  0  0  0  0
 18 60  1  0  0  0  0
 19 61  1  0  0  0  0
 19 62  1  0  0  0  0
 20 21  1  0  0  0  0
 20 63  1  0  0  0  0
 20 64  1  0  0  0  0
 21 23  1  0  0  0  0
 21 65  1  0  0  0  0
 23 25  1  0  0  0  0
 23 66  1  0  0  0  0
 24 27  1  0  0  0  0
 24 28  1  0  0  0  0
 24 29  1  0  0  0  0
 25 26  1  0  0  0  0
 25 68  1  0  0  0  0
 25 69  1  0  0  0  0
 26 33  2  0  0  0  0
 26 34  1  0  0  0  0
 27 72  1  0  0  0  0
 27 73  1  0  0  0  0
 27 74  1  0  0  0  0
 28 75  1  0  0  0  0
 28 76  1  0  0  0  0
 28 77  1  0  0  0  0
 29 78  1  0  0  0  0
 29 79  1  0  0  0  0
 29 80  1  0  0  0  0
 31 32  1  0  0  0  0
 32 35  1  0  0  0  0
 32 81  1  0  0  0  0
 33 36  1  0  0  0  0
 33 82  1  0  0  0  0
 34 37  2  0  0  0  0
 34 83  1  0  0  0  0
 35 42  1  0  0  0  0
 35 84  1  0  0  0  0
 35 85  1  0  0  0  0
 36 40  2  0  0  0  0
 36 87  1  0  0  0  0
 37 40  1  0  0  0  0
 37 88  1  0  0  0  0
 38 41  2  0  0  0  0
 38 44  1  0  0  0  0
 39 41  1  0  0  0  0
 39 45  1  0  0  0  0
 40 89  1  0  0  0  0
 41 90  1  0  0  0  0
 43 46  1  0  0  0  0
 44 91  1  0  0  0  0
 44 92  1  0  0  0  0
 44 93  1  0  0  0  0
 45 94  1  0  0  0  0
 45 95  1  0  0  0  0
 45 96  1  0  0  0  0
 46 47  1  0  0  0  0
 47 49  2  0  0  0  0
 47 99  1  0  0  0  0
 48 50  1  0  0  0  0
 48 51  2  0  0  0  0
 49 50  1  0  0  0  0
 49100  1  0  0  0  0
 50 52  2  0  0  0  0
 51 53  1  0  0  0  0
 51101  1  0  0  0  0
 52 54  1  0  0  0  0
 52102  1  0  0  0  0
 53 54  2  0  0  0  0
 53103  1  0  0  0  0
 54104  1  0  0  0  0
M  END
> <PUBCHEM_COMPOUND_CID>
503227
> <PUBCHEM_COMPOUND_CANONICALIZED>
1
> <PUBCHEM_CACTVS_COMPLEXITY>
1250
> <PUBCHEM_CACTVS_HBOND_ACCEPTOR>
10
> <PUBCHEM_CACTVS_HBOND_DONOR>
5
> <PUBCHEM_CACTVS_ROTATABLE_BOND>
15
> <PUBCHEM_CACTVS_SUBSKEYS>
AAADcfB/+ABAAAAAAAAAAAAAAAAAAAAAAAA8eLECAAAAAACx/AAAHgQQCAAADLzl3gaz0PfIEgioAyVydACC0ClnArAJmKG4ZNiKePrg3fGUZQhslgLYyaedyKCOAAAAAAACAAAAAAAAAAQAAAAAAAAAAA==
> <PUBCHEM_IUPAC_OPENEYE_NAME>
(2S)-N-[(1S,2R)-1-benzyl-3-[(2S,4R)-2-(tert-butylcarbamoyl)-4-(4,6-dimethylpyrimidin-2-yl)sulfanyl-1-piperidyl]-2-hydroxy-propyl]-2-(quinoline-2-carbonylamino)butanediamide
> <PUBCHEM_IUPAC_CAS_NAME>
(2S)-N-[(2S,3R)-4-[(2S,4R)-2-[(tert-butylamino)-oxomethyl]-4-[(4,6-dimethyl-2-pyrimidinyl)thio]-1-piperidinyl]-3-hydroxy-1-phenylbutan-2-yl]-2-[[oxo(2-quinolinyl)methyl]amino]butanediamide
> <PUBCHEM_IUPAC_NAME_MARKUP>
(2<I>S</I>)-<I>N</I>-[(2<I>S</I>,3<I>R</I>)-4-[(2<I>S</I>,4<I>R</I>)-2-(<I>tert</I>-butylcarbamoyl)-4-(4,6-dimethylpyrimidin-2-yl)sulfanylpiperidin-1-yl]-3-hydroxy-1-phenylbutan-2-yl]-2-(quinoline-2-carbonylamino)butanediamide
> <PUBCHEM_IUPAC_NAME>
(2S)-N-[(2S,3R)-4-[(2S,4R)-2-(tert-butylcarbamoyl)-4-(4,6-dimethylpyrimidin-2-yl)sulfanylpiperidin-1-yl]-3-hydroxy-1-phenylbutan-2-yl]-2-(quinoline-2-carbonylamino)butanediamide
> <PUBCHEM_IUPAC_SYSTEMATIC_NAME>
(2S)-N-[(2S,3R)-4-[(2S,4R)-2-(tert-butylcarbamoyl)-4-(4,6-dimethylpyrimidin-2-yl)sulfanyl-piperidin-1-yl]-3-oxidanyl-1-phenyl-butan-2-yl]-2-(quinolin-2-ylcarbonylamino)butanediamide
> <PUBCHEM_IUPAC_TRADITIONAL_NAME>
(2S)-N-[(1S,2R)-1-benzyl-3-[(2S,4R)-2-(tert-butylcarbamoyl)-4-[(4,6-dimethylpyrimidin-2-yl)thio]piperidino]-2-hydroxy-propyl]-2-(quinaldoylamino)succinamide
> <PUBCHEM_IUPAC_INCHI>
InChI=1S/C40H50N8O5S/c1-24-19-25(2)43-39(42-24)54-28-17-18-48(33(21-28)38(53)47-40(3,4)5)23-34(49)31(20-26-11-7-6-8-12-26)45-37(52)32(22-35(41)50)46-36(51)30-16-15-27-13-9-10-14-29(27)44-30/h6-16,19,28,31-34,49H,17-18,20-23H2,1-5H3,(H2,41,50)(H,45,52)(H,46,51)(H,47,53)/t28-,31+,32+,33+,34-/m1/s1
> <PUBCHEM_IUPAC_INCHIKEY>
KVVDGVPHHUUYKP-LSOHEVAPSA-N
> <PUBCHEM_XLOGP3_AA>
4
> <PUBCHEM_EXACT_MASS>
754.36248790
> <PUBCHEM_MOLECULAR_FORMULA>
C40H50N8O5S
> <PUBCHEM_MOLECULAR_WEIGHT>
754.9
> <PUBCHEM_OPENEYE_CAN_SMILES>
CC1=CC(=NC(=N1)SC2CCN(C(C2)C(=O)NC(C)(C)C)CC(C(CC3=CC=CC=C3)NC(=O)C(CC(=O)N)NC(=O)C4=NC5=CC=CC=C5C=C4)O)C
> <PUBCHEM_OPENEYE_ISO_SMILES>
CC1=CC(=NC(=N1)S[C@@H]2CCN([C@@H](C2)C(=O)NC(C)(C)C)C[C@H]([C@H](CC3=CC=CC=C3)NC(=O)[C@H](CC(=O)N)NC(=O)C4=NC5=CC=CC=C5C=C4)O)C
> <PUBCHEM_CACTVS_TPSA>
218
> <PUBCHEM_MONOISOTOPIC_WEIGHT>
754.36248790
> <PUBCHEM_TOTAL_CHARGE>
0
> <PUBCHEM_HEAVY_ATOM_COUNT>
54
> <PUBCHEM_ATOM_DEF_STEREO_COUNT>
5
> <PUBCHEM_ATOM_UDEF_STEREO_COUNT>
0
> <PUBCHEM_BOND_DEF_STEREO_COUNT>
0
> <PUBCHEM_BOND_UDEF_STEREO_COUNT>
0
> <PUBCHEM_ISOTOPIC_ATOM_COUNT>
0
> <PUBCHEM_COMPONENT_COUNT>
1
> <PUBCHEM_CACTVS_TAUTO_COUNT>
-1
> <PUBCHEM_COORDINATE_TYPE>
1
5
255
> <PUBCHEM_BONDANNOTATIONS>
17  1  6
10  30  8
10  38  8
11  30  8
11  39  8
32  12  6
14  46  8
14  48  8
15  22  6
21  2  5
26  33  8
26  34  8
33  36  8
34  37  8
36  40  8
37  40  8
38  41  8
39  41  8
46  47  8
47  49  8
48  50  8
48  51  8
49  50  8
50  52  8
51  53  8
52  54  8
53  54  8
23  9  6
$$$$
