503231
  -OEChem-10302200282D
102106  0     1  0  0  0  0  0999 V2000
   15.0583   -2.0670    0.0000 S   0  0  0  0  0  0  0  0  0  0  0  0
   14.5583   -2.9330    0.0000 O   0  0  0  0  0  0  0  0  0  0  0  0
   15.5583   -1.2010    0.0000 O   0  0  0  0  0  0  0  0  0  0  0  0
   12.4603    1.4330    0.0000 O   0  0  0  0  0  0  0  0  0  0  0  0
   10.7282   -1.5670    0.0000 O   0  0  0  0  0  0  0  0  0  0  0  0
    8.9962    2.4330    0.0000 O   0  0  0  0  0  0  0  0  0  0  0  0
    8.9962   -0.5670    0.0000 O   0  0  0  0  0  0  0  0  0  0  0  0
    6.3981   -0.0670    0.0000 O   0  0  0  0  0  0  0  0  0  0  0  0
   12.4603   -0.5670    0.0000 N   0  0  3  0  0  0  0  0  0  0  0  0
   11.5942   -3.0670    0.0000 N   0  0  0  0  0  0  0  0  0  0  0  0
    9.8622    0.9330    0.0000 N   0  0  0  0  0  0  0  0  0  0  0  0
    7.2641    1.4330    0.0000 N   0  0  0  0  0  0  0  0  0  0  0  0
    4.6660    0.9330    0.0000 N   0  0  0  0  0  0  0  0  0  0  0  0
   14.1923   -1.5670    0.0000 C   0  0  1  0  0  0  0  0  0  0  0  0
   12.4603   -1.5670    0.0000 C   0  0  1  0  0  0  0  0  0  0  0  0
   13.3263   -2.0670    0.0000 C   0  0  0  0  0  0  0  0  0  0  0  0
   14.1923   -0.5670    0.0000 C   0  0  0  0  0  0  0  0  0  0  0  0
   13.3263   -0.0670    0.0000 C   0  0  0  0  0  0  0  0  0  0  0  0
   11.5942   -0.0670    0.0000 C   0  0  0  0  0  0  0  0  0  0  0  0
   11.5942    0.9330    0.0000 C   0  0  2  0  0  0  0  0  0  0  0  0
   11.5942   -2.0670    0.0000 C   0  0  0  0  0  0  0  0  0  0  0  0
   10.7282    1.4330    0.0000 C   0  0  2  0  0  0  0  0  0  0  0  0
   15.9244   -2.5670    0.0000 C   0  0  0  0  0  0  0  0  0  0  0  0
   10.7282   -3.5670    0.0000 C   0  0  0  0  0  0  0  0  0  0  0  0
   10.7282    2.4330    0.0000 C   0  0  0  0  0  0  0  0  0  0  0  0
   16.7904   -2.0670    0.0000 C   0  0  0  0  0  0  0  0  0  0  0  0
   15.9244   -3.5670    0.0000 C   0  0  0  0  0  0  0  0  0  0  0  0
    9.8622   -4.0670    0.0000 C   0  0  0  0  0  0  0  0  0  0  0  0
   11.2282   -4.4330    0.0000 C   0  0  0  0  0  0  0  0  0  0  0  0
   10.2282   -2.7010    0.0000 C   0  0  0  0  0  0  0  0  0  0  0  0
   11.5942    2.9330    0.0000 C   0  0  0  0  0  0  0  0  0  0  0  0
    8.9962    1.4330    0.0000 C   0  0  0  0  0  0  0  0  0  0  0  0
   17.6564   -2.5670    0.0000 C   0  0  0  0  0  0  0  0  0  0  0  0
   16.7904   -4.0670    0.0000 C   0  0  0  0  0  0  0  0  0  0  0  0
    8.1301    0.9330    0.0000 C   0  0  2  0  0  0  0  0  0  0  0  0
   17.6564   -3.5670    0.0000 C   0  0  0  0  0  0  0  0  0  0  0  0
   11.5942    3.9330    0.0000 C   0  0  0  0  0  0  0  0  0  0  0  0
   12.4603    2.4330    0.0000 C   0  0  0  0  0  0  0  0  0  0  0  0
    8.1301   -0.0670    0.0000 C   0  0  1  0  0  0  0  0  0  0  0  0
   12.4603    4.4330    0.0000 C   0  0  0  0  0  0  0  0  0  0  0  0
   13.3263    2.9330    0.0000 C   0  0  0  0  0  0  0  0  0  0  0  0
    7.2641   -0.5670    0.0000 C   0  0  0  0  0  0  0  0  0  0  0  0
   13.3263    3.9330    0.0000 C   0  0  0  0  0  0  0  0  0  0  0  0
    6.3981    0.9330    0.0000 C   0  0  0  0  0  0  0  0  0  0  0  0
    5.5321    1.4330    0.0000 C   0  0  0  0  0  0  0  0  0  0  0  0
    5.5321    2.4330    0.0000 C   0  0  0  0  0  0  0  0  0  0  0  0
    3.8000    1.4330    0.0000 C   0  0  0  0  0  0  0  0  0  0  0  0
    4.6660    2.9330    0.0000 C   0  0  0  0  0  0  0  0  0  0  0  0
    3.8000    2.4330    0.0000 C   0  0  0  0  0  0  0  0  0  0  0  0
    2.9061    0.8984    0.0000 C   0  0  0  0  0  0  0  0  0  0  0  0
    2.9061    2.9677    0.0000 C   0  0  0  0  0  0  0  0  0  0  0  0
    2.0000    1.4122    0.0000 C   0  0  0  0  0  0  0  0  0  0  0  0
    2.0000    2.4538    0.0000 C   0  0  0  0  0  0  0  0  0  0  0  0
   14.1923   -2.1870    0.0000 H   0  0  0  0  0  0  0  0  0  0  0  0
   11.9233   -1.2570    0.0000 H   0  0  0  0  0  0  0  0  0  0  0  0
   12.9278   -2.5419    0.0000 H   0  0  0  0  0  0  0  0  0  0  0  0
   13.7248   -2.5419    0.0000 H   0  0  0  0  0  0  0  0  0  0  0  0
   14.8029   -0.6746    0.0000 H   0  0  0  0  0  0  0  0  0  0  0  0
   14.4044    0.0156    0.0000 H   0  0  0  0  0  0  0  0  0  0  0  0
   13.7248    0.4080    0.0000 H   0  0  0  0  0  0  0  0  0  0  0  0
   12.9278    0.4080    0.0000 H   0  0  0  0  0  0  0  0  0  0  0  0
   10.9837    0.0407    0.0000 H   0  0  0  0  0  0  0  0  0  0  0  0
   11.3822   -0.6496    0.0000 H   0  0  0  0  0  0  0  0  0  0  0  0
   11.5942    1.5530    0.0000 H   0  0  0  0  0  0  0  0  0  0  0  0
   10.7282    0.8130    0.0000 H   0  0  0  0  0  0  0  0  0  0  0  0
   12.1312   -3.3770    0.0000 H   0  0  0  0  0  0  0  0  0  0  0  0
   10.5162    3.0156    0.0000 H   0  0  0  0  0  0  0  0  0  0  0  0
   10.1176    2.3253    0.0000 H   0  0  0  0  0  0  0  0  0  0  0  0
    9.8622    0.3130    0.0000 H   0  0  0  0  0  0  0  0  0  0  0  0
   12.9972    1.1230    0.0000 H   0  0  0  0  0  0  0  0  0  0  0  0
   16.7904   -1.4470    0.0000 H   0  0  0  0  0  0  0  0  0  0  0  0
   15.3874   -3.8770    0.0000 H   0  0  0  0  0  0  0  0  0  0  0  0
    9.5522   -3.5300    0.0000 H   0  0  0  0  0  0  0  0  0  0  0  0
    9.3252   -4.3770    0.0000 H   0  0  0  0  0  0  0  0  0  0  0  0
   10.1722   -4.6039    0.0000 H   0  0  0  0  0  0  0  0  0  0  0  0
   10.6913   -4.7430    0.0000 H   0  0  0  0  0  0  0  0  0  0  0  0
   11.5382   -4.9700    0.0000 H   0  0  0  0  0  0  0  0  0  0  0  0
   11.7651   -4.1230    0.0000 H   0  0  0  0  0  0  0  0  0  0  0  0
   10.7651   -2.3910    0.0000 H   0  0  0  0  0  0  0  0  0  0  0  0
    9.9182   -2.1640    0.0000 H   0  0  0  0  0  0  0  0  0  0  0  0
    9.6913   -3.0110    0.0000 H   0  0  0  0  0  0  0  0  0  0  0  0
   18.1934   -2.2570    0.0000 H   0  0  0  0  0  0  0  0  0  0  0  0
   16.7904   -4.6870    0.0000 H   0  0  0  0  0  0  0  0  0  0  0  0
    7.5932    0.6230    0.0000 H   0  0  0  0  0  0  0  0  0  0  0  0
   18.1934   -3.8770    0.0000 H   0  0  0  0  0  0  0  0  0  0  0  0
   11.0573    4.2430    0.0000 H   0  0  0  0  0  0  0  0  0  0  0  0
   12.4603    1.8130    0.0000 H   0  0  0  0  0  0  0  0  0  0  0  0
    8.1301   -0.6870    0.0000 H   0  0  0  0  0  0  0  0  0  0  0  0
    7.2641    2.0530    0.0000 H   0  0  0  0  0  0  0  0  0  0  0  0
   12.4603    5.0530    0.0000 H   0  0  0  0  0  0  0  0  0  0  0  0
   13.8632    2.6230    0.0000 H   0  0  0  0  0  0  0  0  0  0  0  0
    6.9541   -0.0301    0.0000 H   0  0  0  0  0  0  0  0  0  0  0  0
    6.7272   -0.8770    0.0000 H   0  0  0  0  0  0  0  0  0  0  0  0
    7.5741   -1.1039    0.0000 H   0  0  0  0  0  0  0  0  0  0  0  0
   13.8632    4.2430    0.0000 H   0  0  0  0  0  0  0  0  0  0  0  0
    8.9962   -1.1870    0.0000 H   0  0  0  0  0  0  0  0  0  0  0  0
    6.0690    2.7430    0.0000 H   0  0  0  0  0  0  0  0  0  0  0  0
    4.6660    3.5530    0.0000 H   0  0  0  0  0  0  0  0  0  0  0  0
    2.9132    0.2784    0.0000 H   0  0  0  0  0  0  0  0  0  0  0  0
    2.9132    3.5876    0.0000 H   0  0  0  0  0  0  0  0  0  0  0  0
    1.4643    1.1001    0.0000 H   0  0  0  0  0  0  0  0  0  0  0  0
    1.4643    2.7659    0.0000 H   0  0  0  0  0  0  0  0  0  0  0  0
  1  2  2  0  0  0  0
  1  3  2  0  0  0  0
 14  1  1  1  0  0  0
  1 23  1  0  0  0  0
 20  4  1  6  0  0  0
  4 70  1  0  0  0  0
  5 21  2  0  0  0  0
  6 32  2  0  0  0  0
 39  7  1  6  0  0  0
  7 96  1  0  0  0  0
  8 44  2  0  0  0  0
  9 15  1  0  0  0  0
  9 18  1  0  0  0  0
  9 19  1  0  0  0  0
 10 21  1  0  0  0  0
 10 24  1  0  0  0  0
 10 66  1  0  0  0  0
 22 11  1  1  0  0  0
 11 32  1  0  0  0  0
 11 69  1  0  0  0  0
 35 12  1  6  0  0  0
 12 44  1  0  0  0  0
 12 89  1  0  0  0  0
 13 45  2  0  0  0  0
 13 47  1  0  0  0  0
 14 16  1  0  0  0  0
 14 17  1  0  0  0  0
 14 54  1  0  0  0  0
 15 16  1  0  0  0  0
 15 21  1  1  0  0  0
 15 55  1  0  0  0  0
 16 56  1  0  0  0  0
 16 57  1  0  0  0  0
 17 18  1  0  0  0  0
 17 58  1  0  0  0  0
 17 59  1  0  0  0  0
 18 60  1  0  0  0  0
 18 61  1  0  0  0  0
 19 20  1  0  0  0  0
 19 62  1  0  0  0  0
 19 63  1  0  0  0  0
 20 22  1  0  0  0  0
 20 64  1  0  0  0  0
 22 25  1  0  0  0  0
 22 65  1  0  0  0  0
 23 26  2  0  0  0  0
 23 27  1  0  0  0  0
 24 28  1  0  0  0  0
 24 29  1  0  0  0  0
 24 30  1  0  0  0  0
 25 31  1  0  0  0  0
 25 67  1  0  0  0  0
 25 68  1  0  0  0  0
 26 33  1  0  0  0  0
 26 71  1  0  0  0  0
 27 34  2  0  0  0  0
 27 72  1  0  0  0  0
 28 73  1  0  0  0  0
 28 74  1  0  0  0  0
 28 75  1  0  0  0  0
 29 76  1  0  0  0  0
 29 77  1  0  0  0  0
 29 78  1  0  0  0  0
 30 79  1  0  0  0  0
 30 80  1  0  0  0  0
 30 81  1  0  0  0  0
 31 37  2  0  0  0  0
 31 38  1  0  0  0  0
 32 35  1  0  0  0  0
 33 36  2  0  0  0  0
 33 82  1  0  0  0  0
 34 36  1  0  0  0  0
 34 83  1  0  0  0  0
 35 39  1  0  0  0  0
 35 84  1  0  0  0  0
 36 85  1  0  0  0  0
 37 40  1  0  0  0  0
 37 86  1  0  0  0  0
 38 41  2  0  0  0  0
 38 87  1  0  0  0  0
 39 42  1  0  0  0  0
 39 88  1  0  0  0  0
 40 43  2  0  0  0  0
 40 90  1  0  0  0  0
 41 43  1  0  0  0  0
 41 91  1  0  0  0  0
 42 92  1  0  0  0  0
 42 93  1  0  0  0  0
 42 94  1  0  0  0  0
 43 95  1  0  0  0  0
 44 45  1  0  0  0  0
 45 46  1  0  0  0  0
 46 48  2  0  0  0  0
 46 97  1  0  0  0  0
 47 49  1  0  0  0  0
 47 50  2  0  0  0  0
 48 49  1  0  0  0  0
 48 98  1  0  0  0  0
 49 51  2  0  0  0  0
 50 52  1  0  0  0  0
 50 99  1  0  0  0  0
 51 53  1  0  0  0  0
 51100  1  0  0  0  0
 52 53  2  0  0  0  0
 52101  1  0  0  0  0
 53102  1  0  0  0  0
M  END
> <PUBCHEM_COMPOUND_CID>
503231
> <PUBCHEM_COMPOUND_CANONICALIZED>
1
> <PUBCHEM_CACTVS_COMPLEXITY>
1320
> <PUBCHEM_CACTVS_HBOND_ACCEPTOR>
9
> <PUBCHEM_CACTVS_HBOND_DONOR>
5
> <PUBCHEM_CACTVS_ROTATABLE_BOND>
14
> <PUBCHEM_CACTVS_SUBSKEYS>
AAADcfB/uABAAAAAAAAAAAAAAAAAAAAAAAA8eMECAAAAAACx9AAAHgQQCAAADLzl3gaywfPIEgqoAyVyVHDCgCAnCjAImLm4ZNgKcPbg1bGUYQhmtgD4yYeYyKCOAAAAAAACAAAAAAAAAAQAAAAAAAAAAA==
> <PUBCHEM_IUPAC_OPENEYE_NAME>
N-[(1S,2R)-1-[[(1S,2R)-3-[(2S,4R)-4-(benzenesulfonyl)-2-(tert-butylcarbamoyl)-1-piperidyl]-1-benzyl-2-hydroxy-propyl]carbamoyl]-2-hydroxy-propyl]quinoline-2-carboxamide
> <PUBCHEM_IUPAC_CAS_NAME>
N-[(2S,3R)-1-[[(2S,3R)-4-[(2S,4R)-4-(benzenesulfonyl)-2-[(tert-butylamino)-oxomethyl]-1-piperidinyl]-3-hydroxy-1-phenylbutan-2-yl]amino]-3-hydroxy-1-oxobutan-2-yl]-2-quinolinecarboxamide
> <PUBCHEM_IUPAC_NAME_MARKUP>
<I>N</I>-[(2<I>S</I>,3<I>R</I>)-1-[[(2<I>S</I>,3<I>R</I>)-4-[(2<I>S</I>,4<I>R</I>)-4-(benzenesulfonyl)-2-(<I>tert</I>-butylcarbamoyl)piperidin-1-yl]-3-hydroxy-1-phenylbutan-2-yl]amino]-3-hydroxy-1-oxobutan-2-yl]quinoline-2-carboxamide
> <PUBCHEM_IUPAC_NAME>
N-[(2S,3R)-1-[[(2S,3R)-4-[(2S,4R)-4-(benzenesulfonyl)-2-(tert-butylcarbamoyl)piperidin-1-yl]-3-hydroxy-1-phenylbutan-2-yl]amino]-3-hydroxy-1-oxobutan-2-yl]quinoline-2-carboxamide
> <PUBCHEM_IUPAC_SYSTEMATIC_NAME>
N-[(2S,3R)-1-[[(2S,3R)-4-[(2S,4R)-2-(tert-butylcarbamoyl)-4-(phenylsulfonyl)piperidin-1-yl]-3-oxidanyl-1-phenyl-butan-2-yl]amino]-3-oxidanyl-1-oxidanylidene-butan-2-yl]quinoline-2-carboxamide
> <PUBCHEM_IUPAC_TRADITIONAL_NAME>
N-[(1S,2R)-1-[[(1S,2R)-1-benzyl-3-[(2S,4R)-4-besyl-2-(tert-butylcarbamoyl)piperidino]-2-hydroxy-propyl]carbamoyl]-2-hydroxy-propyl]quinaldamide
> <PUBCHEM_IUPAC_INCHI>
InChI=1S/C40H49N5O7S/c1-26(46)36(43-37(48)32-20-19-28-15-11-12-18-31(28)41-32)39(50)42-33(23-27-13-7-5-8-14-27)35(47)25-45-22-21-30(24-34(45)38(49)44-40(2,3)4)53(51,52)29-16-9-6-10-17-29/h5-20,26,30,33-36,46-47H,21-25H2,1-4H3,(H,42,50)(H,43,48)(H,44,49)/t26-,30-,33+,34+,35-,36+/m1/s1
> <PUBCHEM_IUPAC_INCHIKEY>
RYDYWMLMAMWQEB-PALQLZNMSA-N
> <PUBCHEM_XLOGP3_AA>
4.2
> <PUBCHEM_EXACT_MASS>
743.33527009
> <PUBCHEM_MOLECULAR_FORMULA>
C40H49N5O7S
> <PUBCHEM_MOLECULAR_WEIGHT>
743.9
> <PUBCHEM_OPENEYE_CAN_SMILES>
CC(C(C(=O)NC(CC1=CC=CC=C1)C(CN2CCC(CC2C(=O)NC(C)(C)C)S(=O)(=O)C3=CC=CC=C3)O)NC(=O)C4=NC5=CC=CC=C5C=C4)O
> <PUBCHEM_OPENEYE_ISO_SMILES>
C[C@H]([C@@H](C(=O)N[C@@H](CC1=CC=CC=C1)[C@@H](CN2CC[C@H](C[C@H]2C(=O)NC(C)(C)C)S(=O)(=O)C3=CC=CC=C3)O)NC(=O)C4=NC5=CC=CC=C5C=C4)O
> <PUBCHEM_CACTVS_TPSA>
186
> <PUBCHEM_MONOISOTOPIC_WEIGHT>
743.33527009
> <PUBCHEM_TOTAL_CHARGE>
0
> <PUBCHEM_HEAVY_ATOM_COUNT>
53
> <PUBCHEM_ATOM_DEF_STEREO_COUNT>
6
> <PUBCHEM_ATOM_UDEF_STEREO_COUNT>
0
> <PUBCHEM_BOND_DEF_STEREO_COUNT>
0
> <PUBCHEM_BOND_UDEF_STEREO_COUNT>
0
> <PUBCHEM_ISOTOPIC_ATOM_COUNT>
0
> <PUBCHEM_COMPONENT_COUNT>
1
> <PUBCHEM_CACTVS_TAUTO_COUNT>
-1
> <PUBCHEM_COORDINATE_TYPE>
1
5
255
> <PUBCHEM_BONDANNOTATIONS>
14  1  5
22  11  5
35  12  6
13  45  8
13  47  8
15  21  5
23  26  8
23  27  8
26  33  8
27  34  8
31  37  8
31  38  8
33  36  8
34  36  8
37  40  8
38  41  8
20  4  6
40  43  8
41  43  8
45  46  8
46  48  8
47  49  8
47  50  8
48  49  8
49  51  8
50  52  8
51  53  8
52  53  8
39  7  6
$$$$
