503250
  -OEChem-10302200282D
 66 70  0     1  0  0  0  0  0999 V2000
    8.6942    3.1529    0.0000 O   0  0  0  0  0  0  0  0  0  0  0  0
    8.6827    0.0836    0.0000 O   0  0  0  0  0  0  0  0  0  0  0  0
   10.4644    1.0941    0.0000 O   0  0  0  0  0  0  0  0  0  0  0  0
   10.4644    3.1424    0.0000 O   0  0  0  0  0  0  0  0  0  0  0  0
    6.0682    2.6182    0.0000 O   0  0  0  0  0  0  0  0  0  0  0  0
    6.0682    0.6182    0.0000 O   0  0  0  0  0  0  0  0  0  0  0  0
   10.4146    0.0636    0.0000 O   0  0  0  0  0  0  0  0  0  0  0  0
    5.1804   -1.9132    0.0000 O   0  0  0  0  0  0  0  0  0  0  0  0
    6.9343    2.1182    0.0000 O   0  0  0  0  0  0  0  0  0  0  0  0
    8.7202   -1.9269    0.0000 O   0  0  0  0  0  0  0  0  0  0  0  0
    6.9464   -2.9510    0.0000 O   0  0  0  0  0  0  0  0  0  0  0  0
    4.3198   -1.4164    0.0000 O   0  0  0  0  0  0  0  0  0  0  0  0
    2.5381   -0.4059    0.0000 O   0  0  0  0  0  0  0  0  0  0  0  0
    2.5381    1.6424    0.0000 O   0  0  0  0  0  0  0  0  0  0  0  0
   13.0067   -0.4664    0.0000 O   0  0  0  0  0  0  0  0  0  0  0  0
   11.2401   -3.4462    0.0000 O   0  0  0  0  0  0  0  0  0  0  0  0
   12.9837   -2.4662    0.0000 O   0  0  0  0  0  0  0  0  0  0  0  0
    7.8003    1.6182    0.0000 C   0  0  1  0  0  0  0  0  0  0  0  0
    8.6942    1.0836    0.0000 C   0  0  2  0  0  0  0  0  0  0  0  0
    7.8003    2.6182    0.0000 C   0  0  1  0  0  0  0  0  0  0  0  0
    9.6003    1.5974    0.0000 C   0  0  2  0  0  0  0  0  0  0  0  0
    9.6003    2.6390    0.0000 C   0  0  3  0  0  0  0  0  0  0  0  0
    6.9343    1.1182    0.0000 C   0  0  0  0  0  0  0  0  0  0  0  0
    6.9343    3.1182    0.0000 C   0  0  0  0  0  0  0  0  0  0  0  0
    6.9343    0.1182    0.0000 C   0  0  0  0  0  0  0  0  0  0  0  0
    6.0682   -0.3818    0.0000 C   0  0  0  0  0  0  0  0  0  0  0  0
    7.8443   -0.3886    0.0000 C   0  0  0  0  0  0  0  0  0  0  0  0
    5.2022    0.1182    0.0000 C   0  0  0  0  0  0  0  0  0  0  0  0
    9.5429   -0.4264    0.0000 C   0  0  0  0  0  0  0  0  0  0  0  0
    5.2022    1.1182    0.0000 C   0  0  0  0  0  0  0  0  0  0  0  0
    6.0682    1.6182    0.0000 C   0  0  0  0  0  0  0  0  0  0  0  0
    6.0522   -1.4233    0.0000 C   0  0  0  0  0  0  0  0  0  0  0  0
    7.8523   -1.4302    0.0000 C   0  0  0  0  0  0  0  0  0  0  0  0
    6.9502   -1.9510    0.0000 C   0  0  0  0  0  0  0  0  0  0  0  0
    4.3083   -0.4165    0.0000 C   0  0  0  0  0  0  0  0  0  0  0  0
   10.4031   -0.9363    0.0000 C   0  0  0  0  0  0  0  0  0  0  0  0
    4.3083    1.6529    0.0000 C   0  0  0  0  0  0  0  0  0  0  0  0
    3.4022    0.0974    0.0000 C   0  0  0  0  0  0  0  0  0  0  0  0
    3.4022    1.1390    0.0000 C   0  0  0  0  0  0  0  0  0  0  0  0
   10.3915   -1.9363    0.0000 C   0  0  0  0  0  0  0  0  0  0  0  0
   11.2748   -0.4464    0.0000 C   0  0  0  0  0  0  0  0  0  0  0  0
   12.1350   -0.9564    0.0000 C   0  0  0  0  0  0  0  0  0  0  0  0
   11.2517   -2.4462    0.0000 C   0  0  0  0  0  0  0  0  0  0  0  0
   12.1235   -1.9562    0.0000 C   0  0  0  0  0  0  0  0  0  0  0  0
    7.7938    0.7682    0.0000 H   0  0  0  0  0  0  0  0  0  0  0  0
    9.2282    0.7684    0.0000 H   0  0  0  0  0  0  0  0  0  0  0  0
    7.7938    3.4682    0.0000 H   0  0  0  0  0  0  0  0  0  0  0  0
    9.5967    0.9774    0.0000 H   0  0  0  0  0  0  0  0  0  0  0  0
   10.1378    2.3301    0.0000 H   0  0  0  0  0  0  0  0  0  0  0  0
    7.3328    3.5932    0.0000 H   0  0  0  0  0  0  0  0  0  0  0  0
    6.5358    3.5932    0.0000 H   0  0  0  0  0  0  0  0  0  0  0  0
   11.0025    1.4020    0.0000 H   0  0  0  0  0  0  0  0  0  0  0  0
   10.4620    3.7624    0.0000 H   0  0  0  0  0  0  0  0  0  0  0  0
    8.3776   -0.0724    0.0000 H   0  0  0  0  0  0  0  0  0  0  0  0
    4.3154    2.2728    0.0000 H   0  0  0  0  0  0  0  0  0  0  0  0
    9.8510   -2.2400    0.0000 H   0  0  0  0  0  0  0  0  0  0  0  0
   11.2820    0.1736    0.0000 H   0  0  0  0  0  0  0  0  0  0  0  0
    5.1733   -2.5332    0.0000 H   0  0  0  0  0  0  0  0  0  0  0  0
    8.7226   -2.5469    0.0000 H   0  0  0  0  0  0  0  0  0  0  0  0
    6.4082   -3.2590    0.0000 H   0  0  0  0  0  0  0  0  0  0  0  0
    3.7865   -1.7326    0.0000 H   0  0  0  0  0  0  0  0  0  0  0  0
    2.0000   -0.0980    0.0000 H   0  0  0  0  0  0  0  0  0  0  0  0
    2.5405    2.2624    0.0000 H   0  0  0  0  0  0  0  0  0  0  0  0
   13.0139    0.1535    0.0000 H   0  0  0  0  0  0  0  0  0  0  0  0
   11.7735   -3.7624    0.0000 H   0  0  0  0  0  0  0  0  0  0  0  0
   13.5241   -2.1625    0.0000 H   0  0  0  0  0  0  0  0  0  0  0  0
  1 20  1  0  0  0  0
  1 22  1  0  0  0  0
 19  2  1  6  0  0  0
  2 29  1  0  0  0  0
 21  3  1  6  0  0  0
  3 52  1  0  0  0  0
  4 22  1  0  0  0  0
  4 53  1  0  0  0  0
  5 24  1  0  0  0  0
  5 31  1  0  0  0  0
  6 23  2  0  0  0  0
  7 29  2  0  0  0  0
  8 32  1  0  0  0  0
  8 58  1  0  0  0  0
  9 31  2  0  0  0  0
 10 33  1  0  0  0  0
 10 59  1  0  0  0  0
 11 34  1  0  0  0  0
 11 60  1  0  0  0  0
 12 35  1  0  0  0  0
 12 61  1  0  0  0  0
 13 38  1  0  0  0  0
 13 62  1  0  0  0  0
 14 39  1  0  0  0  0
 14 63  1  0  0  0  0
 15 42  1  0  0  0  0
 15 64  1  0  0  0  0
 16 43  1  0  0  0  0
 16 65  1  0  0  0  0
 17 44  1  0  0  0  0
 17 66  1  0  0  0  0
 18 19  1  0  0  0  0
 18 20  1  0  0  0  0
 18 23  1  0  0  0  0
 18 45  1  1  0  0  0
 19 21  1  0  0  0  0
 19 46  1  0  0  0  0
 20 24  1  0  0  0  0
 20 47  1  6  0  0  0
 21 22  1  0  0  0  0
 21 48  1  0  0  0  0
 22 49  1  0  0  0  0
 23 25  1  0  0  0  0
 24 50  1  0  0  0  0
 24 51  1  0  0  0  0
 25 26  1  0  0  0  0
 25 27  2  0  0  0  0
 26 28  1  0  0  0  0
 26 32  2  0  0  0  0
 27 33  1  0  0  0  0
 27 54  1  0  0  0  0
 28 30  1  0  0  0  0
 28 35  2  0  0  0  0
 29 36  1  0  0  0  0
 30 31  1  0  0  0  0
 30 37  2  0  0  0  0
 32 34  1  0  0  0  0
 33 34  2  0  0  0  0
 35 38  1  0  0  0  0
 36 40  2  0  0  0  0
 36 41  1  0  0  0  0
 37 39  1  0  0  0  0
 37 55  1  0  0  0  0
 38 39  2  0  0  0  0
 40 43  1  0  0  0  0
 40 56  1  0  0  0  0
 41 42  2  0  0  0  0
 41 57  1  0  0  0  0
 42 44  1  0  0  0  0
 43 44  2  0  0  0  0
M  END
> <PUBCHEM_COMPOUND_CID>
503250
> <PUBCHEM_COMPOUND_CANONICALIZED>
1
> <PUBCHEM_CACTVS_COMPLEXITY>
1080
> <PUBCHEM_CACTVS_HBOND_ACCEPTOR>
17
> <PUBCHEM_CACTVS_HBOND_DONOR>
11
> <PUBCHEM_CACTVS_ROTATABLE_BOND>
3
> <PUBCHEM_CACTVS_SUBSKEYS>
AAADceB4PgAAAAAAAAAAAAAAAAAAAAAAAAA0YMEAAAAAAACRUAAAGgAACAAADRSwmAMwDoAABgCIAqDSCAACAAAkIAAAiAEGiMgZNzaCNRqCcQEl4BUPuYfK7PzOoAABCAAYQABAAAIQADCAAAAAAAAAAA==
> <PUBCHEM_IUPAC_OPENEYE_NAME>
[(9R,10R,11R,14S)-3,4,5,11,12,20,21,22-octahydroxy-8,17-dioxo-13,16-dioxatetracyclo[16.4.0.02,7.09,14]docosa-1(22),2,4,6,18,20-hexaen-10-yl] 3,4,5-trihydroxybenzoate
> <PUBCHEM_IUPAC_CAS_NAME>
3,4,5-trihydroxybenzoic acid [(9R,10R,11R,14S)-3,4,5,11,12,20,21,22-octahydroxy-8,17-dioxo-13,16-dioxatetracyclo[16.4.0.02,7.09,14]docosa-1(22),2,4,6,18,20-hexaen-10-yl] ester
> <PUBCHEM_IUPAC_NAME_MARKUP>
[(9<I>R</I>,10<I>R</I>,11<I>R</I>,14<I>S</I>)-3,4,5,11,12,20,21,22-octahydroxy-8,17-dioxo-13,16-dioxatetracyclo[16.4.0.0<SUP>2,7</SUP>.0<SUP>9,14</SUP>]docosa-1(22),2,4,6,18,20-hexaen-10-yl] 3,4,5-trihydroxybenzoate
> <PUBCHEM_IUPAC_NAME>
[(9R,10R,11R,14S)-3,4,5,11,12,20,21,22-octahydroxy-8,17-dioxo-13,16-dioxatetracyclo[16.4.0.02,7.09,14]docosa-1(22),2,4,6,18,20-hexaen-10-yl] 3,4,5-trihydroxybenzoate
> <PUBCHEM_IUPAC_SYSTEMATIC_NAME>
[(9R,10R,11R,14S)-3,4,5,11,12,20,21,22-octakis(oxidanyl)-8,17-bis(oxidanylidene)-13,16-dioxatetracyclo[16.4.0.02,7.09,14]docosa-1(22),2,4,6,18,20-hexaen-10-yl] 3,4,5-tris(oxidanyl)benzoate
> <PUBCHEM_IUPAC_TRADITIONAL_NAME>
3,4,5-trihydroxybenzoic acid [(9R,10R,11R,14S)-3,4,5,11,12,20,21,22-octahydroxy-8,17-diketo-13,16-dioxatetracyclo[16.4.0.02,7.09,14]docosa-1(22),2,4,6,18,20-hexaen-10-yl] ester
> <PUBCHEM_IUPAC_INCHI>
InChI=1S/C27H22O17/c28-9-1-6(2-10(29)18(9)33)25(39)44-24-16-13(43-27(41)23(24)38)5-42-26(40)8-4-12(31)20(35)22(37)15(8)14-7(17(16)32)3-11(30)19(34)21(14)36/h1-4,13,16,23-24,27-31,33-38,41H,5H2/t13-,16+,23-,24-,27?/m1/s1
> <PUBCHEM_IUPAC_INCHIKEY>
ALFKLXAJYUDWCJ-LVSZOMCKSA-N
> <PUBCHEM_XLOGP3_AA>
-0.1
> <PUBCHEM_EXACT_MASS>
618.08569923
> <PUBCHEM_MOLECULAR_FORMULA>
C27H22O17
> <PUBCHEM_MOLECULAR_WEIGHT>
618.5
> <PUBCHEM_OPENEYE_CAN_SMILES>
C1C2C(C(C(C(O2)O)O)OC(=O)C3=CC(=C(C(=C3)O)O)O)C(=O)C4=CC(=C(C(=C4C5=C(C(=C(C=C5C(=O)O1)O)O)O)O)O)O
> <PUBCHEM_OPENEYE_ISO_SMILES>
C1[C@@H]2[C@H]([C@H]([C@H](C(O2)O)O)OC(=O)C3=CC(=C(C(=C3)O)O)O)C(=O)C4=CC(=C(C(=C4C5=C(C(=C(C=C5C(=O)O1)O)O)O)O)O)O
> <PUBCHEM_CACTVS_TPSA>
301
> <PUBCHEM_MONOISOTOPIC_WEIGHT>
618.08569923
> <PUBCHEM_TOTAL_CHARGE>
0
> <PUBCHEM_HEAVY_ATOM_COUNT>
44
> <PUBCHEM_ATOM_DEF_STEREO_COUNT>
4
> <PUBCHEM_ATOM_UDEF_STEREO_COUNT>
1
> <PUBCHEM_BOND_DEF_STEREO_COUNT>
0
> <PUBCHEM_BOND_UDEF_STEREO_COUNT>
0
> <PUBCHEM_ISOTOPIC_ATOM_COUNT>
0
> <PUBCHEM_COMPONENT_COUNT>
1
> <PUBCHEM_CACTVS_TAUTO_COUNT>
-1
> <PUBCHEM_COORDINATE_TYPE>
1
5
255
> <PUBCHEM_BONDANNOTATIONS>
18  45  5
19  2  6
20  47  6
25  26  8
25  27  8
26  32  8
27  33  8
28  30  8
28  35  8
21  3  6
30  37  8
32  34  8
33  34  8
35  38  8
36  40  8
36  41  8
37  39  8
38  39  8
22  4  3
40  43  8
41  42  8
42  44  8
43  44  8
$$$$
