503259
  -OEChem-10302200282D
 36 36  0     1  0  0  0  0  0999 V2000
    6.7240   -0.5664    0.0000 O   0  0  0  0  0  0  0  0  0  0  0  0
    3.5398   -2.8799    0.0000 O   0  0  0  0  0  0  0  0  0  0  0  0
    6.1888    1.0809    0.0000 O   0  0  0  0  0  0  0  0  0  0  0  0
    2.1385   -1.8618    0.0000 O   0  0  0  0  0  0  0  0  0  0  0  0
    4.2208    3.3815    0.0000 O   0  0  0  0  0  0  0  0  0  0  0  0
    2.4608    0.1027    0.0000 N   0  0  0  0  0  0  0  0  0  0  0  0
    5.0868    1.8815    0.0000 N   0  0  0  0  0  0  0  0  0  0  0  0
    4.2208    0.3815    0.0000 C   0  0  3  0  0  0  0  0  0  0  0  0
    3.4118   -0.2063    0.0000 C   0  0  3  0  0  0  0  0  0  0  0  0
    5.0298   -0.2063    0.0000 C   0  0  3  0  0  0  0  0  0  0  0  0
    3.7208   -1.1573    0.0000 C   0  0  3  0  0  0  0  0  0  0  0  0
    4.7208   -1.1573    0.0000 C   0  0  0  0  0  0  0  0  0  0  0  0
    4.2208    1.3815    0.0000 C   0  0  0  0  0  0  0  0  0  0  0  0
    5.9809    0.1027    0.0000 C   0  0  0  0  0  0  0  0  0  0  0  0
    3.1330   -1.9664    0.0000 C   0  0  0  0  0  0  0  0  0  0  0  0
    5.0868    2.8815    0.0000 C   0  0  0  0  0  0  0  0  0  0  0  0
    7.6751   -0.2574    0.0000 C   0  0  0  0  0  0  0  0  0  0  0  0
    5.9529    3.3815    0.0000 C   0  0  0  0  0  0  0  0  0  0  0  0
    3.6684    0.6630    0.0000 H   0  0  0  0  0  0  0  0  0  0  0  0
    2.9734   -0.6447    0.0000 H   0  0  0  0  0  0  0  0  0  0  0  0
    5.4682   -0.6447    0.0000 H   0  0  0  0  0  0  0  0  0  0  0  0
    3.1085   -1.0603    0.0000 H   0  0  0  0  0  0  0  0  0  0  0  0
    4.6560   -1.7740    0.0000 H   0  0  0  0  0  0  0  0  0  0  0  0
    5.3273   -1.2862    0.0000 H   0  0  0  0  0  0  0  0  0  0  0  0
    4.0088    1.9641    0.0000 H   0  0  0  0  0  0  0  0  0  0  0  0
    3.6102    1.2738    0.0000 H   0  0  0  0  0  0  0  0  0  0  0  0
    2.3318    0.7092    0.0000 H   0  0  0  0  0  0  0  0  0  0  0  0
    2.0000   -0.3121    0.0000 H   0  0  0  0  0  0  0  0  0  0  0  0
    5.6238    1.5715    0.0000 H   0  0  0  0  0  0  0  0  0  0  0  0
    3.1754   -3.3815    0.0000 H   0  0  0  0  0  0  0  0  0  0  0  0
    7.8667   -0.8470    0.0000 H   0  0  0  0  0  0  0  0  0  0  0  0
    8.2648   -0.0658    0.0000 H   0  0  0  0  0  0  0  0  0  0  0  0
    7.4835    0.3323    0.0000 H   0  0  0  0  0  0  0  0  0  0  0  0
    6.2629    2.8446    0.0000 H   0  0  0  0  0  0  0  0  0  0  0  0
    6.4898    3.6915    0.0000 H   0  0  0  0  0  0  0  0  0  0  0  0
    5.6429    3.9184    0.0000 H   0  0  0  0  0  0  0  0  0  0  0  0
  1 14  1  0  0  0  0
  1 17  1  0  0  0  0
  2 15  1  0  0  0  0
  2 30  1  0  0  0  0
  3 14  2  0  0  0  0
  4 15  2  0  0  0  0
  5 16  2  0  0  0  0
  6  9  1  0  0  0  0
  6 27  1  0  0  0  0
  6 28  1  0  0  0  0
  7 13  1  0  0  0  0
  7 16  1  0  0  0  0
  7 29  1  0  0  0  0
  8  9  1  0  0  0  0
  8 10  1  0  0  0  0
  8 13  1  0  0  0  0
  8 19  1  0  0  0  0
  9 11  1  0  0  0  0
  9 20  1  0  0  0  0
 10 12  1  0  0  0  0
 10 14  1  0  0  0  0
 10 21  1  0  0  0  0
 11 12  1  0  0  0  0
 11 15  1  0  0  0  0
 11 22  1  0  0  0  0
 12 23  1  0  0  0  0
 12 24  1  0  0  0  0
 13 25  1  0  0  0  0
 13 26  1  0  0  0  0
 16 18  1  0  0  0  0
 17 31  1  0  0  0  0
 17 32  1  0  0  0  0
 17 33  1  0  0  0  0
 18 34  1  0  0  0  0
 18 35  1  0  0  0  0
 18 36  1  0  0  0  0
M  END
> <PUBCHEM_COMPOUND_CID>
503259
> <PUBCHEM_COMPOUND_CANONICALIZED>
1
> <PUBCHEM_CACTVS_COMPLEXITY>
357
> <PUBCHEM_CACTVS_HBOND_ACCEPTOR>
6
> <PUBCHEM_CACTVS_HBOND_DONOR>
3
> <PUBCHEM_CACTVS_ROTATABLE_BOND>
5
> <PUBCHEM_CACTVS_SUBSKEYS>
AAADceBzOAAAAAAAAAAAAAAAAAAAAYAAAAAAAAAAAAAAAAAAAAAAHgAQCAAADSjBgAYCCALABgAIAAGQGAAAAAAAAAAAAIEIAAAAABoAwAAEQAAGFgCAAAG8/zuegAAAAAAAAAAAAAAAAAAAASAACQAAAA==
> <PUBCHEM_IUPAC_OPENEYE_NAME>
3-(acetamidomethyl)-2-amino-4-methoxycarbonyl-cyclopentanecarboxylic acid
> <PUBCHEM_IUPAC_CAS_NAME>
3-(acetamidomethyl)-2-amino-4-methoxycarbonyl-1-cyclopentanecarboxylic acid
> <PUBCHEM_IUPAC_NAME_MARKUP>
3-(acetamidomethyl)-2-amino-4-methoxycarbonylcyclopentane-1-carboxylic acid
> <PUBCHEM_IUPAC_NAME>
3-(acetamidomethyl)-2-amino-4-methoxycarbonylcyclopentane-1-carboxylic acid
> <PUBCHEM_IUPAC_SYSTEMATIC_NAME>
3-(acetamidomethyl)-2-azanyl-4-methoxycarbonyl-cyclopentane-1-carboxylic acid
> <PUBCHEM_IUPAC_TRADITIONAL_NAME>
3-(acetamidomethyl)-2-amino-4-carbomethoxy-cyclopentanecarboxylic acid
> <PUBCHEM_IUPAC_INCHI>
InChI=1S/C11H18N2O5/c1-5(14)13-4-8-6(11(17)18-2)3-7(9(8)12)10(15)16/h6-9H,3-4,12H2,1-2H3,(H,13,14)(H,15,16)
> <PUBCHEM_IUPAC_INCHIKEY>
VTLBANQRGLTTFT-UHFFFAOYSA-N
> <PUBCHEM_XLOGP3_AA>
-3.3
> <PUBCHEM_EXACT_MASS>
258.12157168
> <PUBCHEM_MOLECULAR_FORMULA>
C11H18N2O5
> <PUBCHEM_MOLECULAR_WEIGHT>
258.27
> <PUBCHEM_OPENEYE_CAN_SMILES>
CC(=O)NCC1C(CC(C1N)C(=O)O)C(=O)OC
> <PUBCHEM_OPENEYE_ISO_SMILES>
CC(=O)NCC1C(CC(C1N)C(=O)O)C(=O)OC
> <PUBCHEM_CACTVS_TPSA>
119
> <PUBCHEM_MONOISOTOPIC_WEIGHT>
258.12157168
> <PUBCHEM_TOTAL_CHARGE>
0
> <PUBCHEM_HEAVY_ATOM_COUNT>
18
> <PUBCHEM_ATOM_DEF_STEREO_COUNT>
0
> <PUBCHEM_ATOM_UDEF_STEREO_COUNT>
4
> <PUBCHEM_BOND_DEF_STEREO_COUNT>
0
> <PUBCHEM_BOND_UDEF_STEREO_COUNT>
0
> <PUBCHEM_ISOTOPIC_ATOM_COUNT>
0
> <PUBCHEM_COMPONENT_COUNT>
1
> <PUBCHEM_CACTVS_TAUTO_COUNT>
-1
> <PUBCHEM_COORDINATE_TYPE>
1
5
255
> <PUBCHEM_BONDANNOTATIONS>
10  14  3
11  15  3
9  6  3
8  13  3
$$$$
