503226
  -OEChem-10302200282D
105109  0     1  0  0  0  0  0999 V2000
   15.0583   -1.7500    0.0000 S   0  0  0  0  0  0  0  0  0  0  0  0
   12.4603    1.7500    0.0000 O   0  0  0  0  0  0  0  0  0  0  0  0
   10.7282   -1.2500    0.0000 O   0  0  0  0  0  0  0  0  0  0  0  0
    8.9962    2.7500    0.0000 O   0  0  0  0  0  0  0  0  0  0  0  0
    6.3981    0.2500    0.0000 O   0  0  0  0  0  0  0  0  0  0  0  0
   12.4603   -0.2500    0.0000 N   0  0  3  0  0  0  0  0  0  0  0  0
   11.5942   -2.7500    0.0000 N   0  0  0  0  0  0  0  0  0  0  0  0
    9.8622    1.2500    0.0000 N   0  0  0  0  0  0  0  0  0  0  0  0
    7.2641    1.7500    0.0000 N   0  0  0  0  0  0  0  0  0  0  0  0
    4.6660    1.2500    0.0000 N   0  0  0  0  0  0  0  0  0  0  0  0
   12.4603   -1.2500    0.0000 C   0  0  1  0  0  0  0  0  0  0  0  0
   13.3263   -1.7500    0.0000 C   0  0  0  0  0  0  0  0  0  0  0  0
   14.1923   -1.2500    0.0000 C   0  0  1  0  0  0  0  0  0  0  0  0
   13.3263    0.2500    0.0000 C   0  0  0  0  0  0  0  0  0  0  0  0
   14.1923   -0.2500    0.0000 C   0  0  0  0  0  0  0  0  0  0  0  0
   11.5942    0.2500    0.0000 C   0  0  0  0  0  0  0  0  0  0  0  0
   11.5942    1.2500    0.0000 C   0  0  2  0  0  0  0  0  0  0  0  0
   10.7282    1.7500    0.0000 C   0  0  2  0  0  0  0  0  0  0  0  0
   11.5942   -1.7500    0.0000 C   0  0  0  0  0  0  0  0  0  0  0  0
   10.7282    2.7500    0.0000 C   0  0  0  0  0  0  0  0  0  0  0  0
   10.7282   -3.2500    0.0000 C   0  0  0  0  0  0  0  0  0  0  0  0
    8.1301    0.2500    0.0000 C   0  0  0  0  0  0  0  0  0  0  0  0
    8.1301    1.2500    0.0000 C   0  0  3  0  0  0  0  0  0  0  0  0
    8.9962    1.7500    0.0000 C   0  0  0  0  0  0  0  0  0  0  0  0
   11.5942    3.2500    0.0000 C   0  0  0  0  0  0  0  0  0  0  0  0
   15.0583   -2.7500    0.0000 C   0  0  0  0  0  0  0  0  0  0  0  0
    9.8622   -3.7500    0.0000 C   0  0  0  0  0  0  0  0  0  0  0  0
   11.2282   -4.1160    0.0000 C   0  0  0  0  0  0  0  0  0  0  0  0
   10.2282   -2.3840    0.0000 C   0  0  0  0  0  0  0  0  0  0  0  0
    8.1301   -0.7500    0.0000 C   0  0  0  0  0  0  0  0  0  0  0  0
    9.1301    0.2500    0.0000 C   0  0  0  0  0  0  0  0  0  0  0  0
    7.1301    0.2500    0.0000 C   0  0  0  0  0  0  0  0  0  0  0  0
   11.5942    4.2500    0.0000 C   0  0  0  0  0  0  0  0  0  0  0  0
   12.4603    2.7500    0.0000 C   0  0  0  0  0  0  0  0  0  0  0  0
   14.1923   -3.2500    0.0000 C   0  0  0  0  0  0  0  0  0  0  0  0
   15.9244   -3.2500    0.0000 C   0  0  0  0  0  0  0  0  0  0  0  0
    6.3981    1.2500    0.0000 C   0  0  0  0  0  0  0  0  0  0  0  0
   12.4603    4.7500    0.0000 C   0  0  0  0  0  0  0  0  0  0  0  0
   13.3263    3.2500    0.0000 C   0  0  0  0  0  0  0  0  0  0  0  0
   14.1923   -4.2500    0.0000 C   0  0  0  0  0  0  0  0  0  0  0  0
   15.9244   -4.2500    0.0000 C   0  0  0  0  0  0  0  0  0  0  0  0
   13.3263    4.2500    0.0000 C   0  0  0  0  0  0  0  0  0  0  0  0
   15.0583   -4.7500    0.0000 C   0  0  0  0  0  0  0  0  0  0  0  0
    5.5321    1.7500    0.0000 C   0  0  0  0  0  0  0  0  0  0  0  0
    5.5321    2.7500    0.0000 C   0  0  0  0  0  0  0  0  0  0  0  0
    3.8000    1.7500    0.0000 C   0  0  0  0  0  0  0  0  0  0  0  0
    4.6660    3.2500    0.0000 C   0  0  0  0  0  0  0  0  0  0  0  0
    3.8000    2.7500    0.0000 C   0  0  0  0  0  0  0  0  0  0  0  0
    2.9061    1.2153    0.0000 C   0  0  0  0  0  0  0  0  0  0  0  0
    2.9061    3.2847    0.0000 C   0  0  0  0  0  0  0  0  0  0  0  0
    2.0000    1.7292    0.0000 C   0  0  0  0  0  0  0  0  0  0  0  0
    2.0000    2.7708    0.0000 C   0  0  0  0  0  0  0  0  0  0  0  0
   11.9233   -0.9400    0.0000 H   0  0  0  0  0  0  0  0  0  0  0  0
   12.9278   -2.2250    0.0000 H   0  0  0  0  0  0  0  0  0  0  0  0
   13.7248   -2.2250    0.0000 H   0  0  0  0  0  0  0  0  0  0  0  0
   14.1923   -1.8700    0.0000 H   0  0  0  0  0  0  0  0  0  0  0  0
   13.7248    0.7249    0.0000 H   0  0  0  0  0  0  0  0  0  0  0  0
   12.9278    0.7249    0.0000 H   0  0  0  0  0  0  0  0  0  0  0  0
   14.8029   -0.3577    0.0000 H   0  0  0  0  0  0  0  0  0  0  0  0
   14.4044    0.3326    0.0000 H   0  0  0  0  0  0  0  0  0  0  0  0
   10.9837    0.3577    0.0000 H   0  0  0  0  0  0  0  0  0  0  0  0
   11.3822   -0.3326    0.0000 H   0  0  0  0  0  0  0  0  0  0  0  0
   11.5942    1.8700    0.0000 H   0  0  0  0  0  0  0  0  0  0  0  0
   10.7282    1.1300    0.0000 H   0  0  0  0  0  0  0  0  0  0  0  0
   10.5162    3.3326    0.0000 H   0  0  0  0  0  0  0  0  0  0  0  0
   10.1176    2.6423    0.0000 H   0  0  0  0  0  0  0  0  0  0  0  0
   12.1312   -3.0600    0.0000 H   0  0  0  0  0  0  0  0  0  0  0  0
    9.8622    0.6300    0.0000 H   0  0  0  0  0  0  0  0  0  0  0  0
    7.5932    0.9400    0.0000 H   0  0  0  0  0  0  0  0  0  0  0  0
   12.9972    1.4400    0.0000 H   0  0  0  0  0  0  0  0  0  0  0  0
    9.5522   -3.2131    0.0000 H   0  0  0  0  0  0  0  0  0  0  0  0
    9.3252   -4.0600    0.0000 H   0  0  0  0  0  0  0  0  0  0  0  0
   10.1722   -4.2869    0.0000 H   0  0  0  0  0  0  0  0  0  0  0  0
   10.6913   -4.4260    0.0000 H   0  0  0  0  0  0  0  0  0  0  0  0
   11.5382   -4.6530    0.0000 H   0  0  0  0  0  0  0  0  0  0  0  0
   11.7651   -3.8060    0.0000 H   0  0  0  0  0  0  0  0  0  0  0  0
   10.7651   -2.0740    0.0000 H   0  0  0  0  0  0  0  0  0  0  0  0
    9.9182   -1.8470    0.0000 H   0  0  0  0  0  0  0  0  0  0  0  0
    9.6913   -2.6940    0.0000 H   0  0  0  0  0  0  0  0  0  0  0  0
    7.5101   -0.7500    0.0000 H   0  0  0  0  0  0  0  0  0  0  0  0
    8.1301   -1.3700    0.0000 H   0  0  0  0  0  0  0  0  0  0  0  0
    8.7501   -0.7500    0.0000 H   0  0  0  0  0  0  0  0  0  0  0  0
    9.1301   -0.3700    0.0000 H   0  0  0  0  0  0  0  0  0  0  0  0
    9.7501    0.2500    0.0000 H   0  0  0  0  0  0  0  0  0  0  0  0
    9.1301    0.8700    0.0000 H   0  0  0  0  0  0  0  0  0  0  0  0
    7.1301    0.8700    0.0000 H   0  0  0  0  0  0  0  0  0  0  0  0
    6.5101    0.2500    0.0000 H   0  0  0  0  0  0  0  0  0  0  0  0
    7.1301   -0.3700    0.0000 H   0  0  0  0  0  0  0  0  0  0  0  0
    7.2641    2.3700    0.0000 H   0  0  0  0  0  0  0  0  0  0  0  0
   11.0573    4.5600    0.0000 H   0  0  0  0  0  0  0  0  0  0  0  0
   12.4603    2.1300    0.0000 H   0  0  0  0  0  0  0  0  0  0  0  0
   13.6554   -2.9400    0.0000 H   0  0  0  0  0  0  0  0  0  0  0  0
   16.4613   -2.9400    0.0000 H   0  0  0  0  0  0  0  0  0  0  0  0
   12.4603    5.3700    0.0000 H   0  0  0  0  0  0  0  0  0  0  0  0
   13.8632    2.9400    0.0000 H   0  0  0  0  0  0  0  0  0  0  0  0
   13.6554   -4.5600    0.0000 H   0  0  0  0  0  0  0  0  0  0  0  0
   16.4613   -4.5600    0.0000 H   0  0  0  0  0  0  0  0  0  0  0  0
   13.8632    4.5600    0.0000 H   0  0  0  0  0  0  0  0  0  0  0  0
   15.0583   -5.3700    0.0000 H   0  0  0  0  0  0  0  0  0  0  0  0
    6.0690    3.0600    0.0000 H   0  0  0  0  0  0  0  0  0  0  0  0
    4.6660    3.8700    0.0000 H   0  0  0  0  0  0  0  0  0  0  0  0
    2.9132    0.5954    0.0000 H   0  0  0  0  0  0  0  0  0  0  0  0
    2.9132    3.9046    0.0000 H   0  0  0  0  0  0  0  0  0  0  0  0
    1.4643    1.4171    0.0000 H   0  0  0  0  0  0  0  0  0  0  0  0
    1.4643    3.0829    0.0000 H   0  0  0  0  0  0  0  0  0  0  0  0
 13  1  1  1  0  0  0
  1 26  1  0  0  0  0
 17  2  1  6  0  0  0
  2 70  1  0  0  0  0
  3 19  2  0  0  0  0
  4 24  2  0  0  0  0
  5 37  2  0  0  0  0
  6 11  1  0  0  0  0
  6 14  1  0  0  0  0
  6 16  1  0  0  0  0
  7 19  1  0  0  0  0
  7 21  1  0  0  0  0
  7 67  1  0  0  0  0
 18  8  1  1  0  0  0
  8 24  1  0  0  0  0
  8 68  1  0  0  0  0
  9 23  1  0  0  0  0
  9 37  1  0  0  0  0
  9 89  1  0  0  0  0
 10 44  2  0  0  0  0
 10 46  1  0  0  0  0
 11 12  1  0  0  0  0
 11 19  1  1  0  0  0
 11 53  1  0  0  0  0
 12 13  1  0  0  0  0
 12 54  1  0  0  0  0
 12 55  1  0  0  0  0
 13 15  1  0  0  0  0
 13 56  1  0  0  0  0
 14 15  1  0  0  0  0
 14 57  1  0  0  0  0
 14 58  1  0  0  0  0
 15 59  1  0  0  0  0
 15 60  1  0  0  0  0
 16 17  1  0  0  0  0
 16 61  1  0  0  0  0
 16 62  1  0  0  0  0
 17 18  1  0  0  0  0
 17 63  1  0  0  0  0
 18 20  1  0  0  0  0
 18 64  1  0  0  0  0
 20 25  1  0  0  0  0
 20 65  1  0  0  0  0
 20 66  1  0  0  0  0
 21 27  1  0  0  0  0
 21 28  1  0  0  0  0
 21 29  1  0  0  0  0
 22 23  1  0  0  0  0
 22 30  1  0  0  0  0
 22 31  1  0  0  0  0
 22 32  1  0  0  0  0
 23 24  1  0  0  0  0
 23 69  1  0  0  0  0
 25 33  2  0  0  0  0
 25 34  1  0  0  0  0
 26 35  2  0  0  0  0
 26 36  1  0  0  0  0
 27 71  1  0  0  0  0
 27 72  1  0  0  0  0
 27 73  1  0  0  0  0
 28 74  1  0  0  0  0
 28 75  1  0  0  0  0
 28 76  1  0  0  0  0
 29 77  1  0  0  0  0
 29 78  1  0  0  0  0
 29 79  1  0  0  0  0
 30 80  1  0  0  0  0
 30 81  1  0  0  0  0
 30 82  1  0  0  0  0
 31 83  1  0  0  0  0
 31 84  1  0  0  0  0
 31 85  1  0  0  0  0
 32 86  1  0  0  0  0
 32 87  1  0  0  0  0
 32 88  1  0  0  0  0
 33 38  1  0  0  0  0
 33 90  1  0  0  0  0
 34 39  2  0  0  0  0
 34 91  1  0  0  0  0
 35 40  1  0  0  0  0
 35 92  1  0  0  0  0
 36 41  2  0  0  0  0
 36 93  1  0  0  0  0
 37 44  1  0  0  0  0
 38 42  2  0  0  0  0
 38 94  1  0  0  0  0
 39 42  1  0  0  0  0
 39 95  1  0  0  0  0
 40 43  2  0  0  0  0
 40 96  1  0  0  0  0
 41 43  1  0  0  0  0
 41 97  1  0  0  0  0
 42 98  1  0  0  0  0
 43 99  1  0  0  0  0
 44 45  1  0  0  0  0
 45 47  2  0  0  0  0
 45100  1  0  0  0  0
 46 48  1  0  0  0  0
 46 49  2  0  0  0  0
 47 48  1  0  0  0  0
 47101  1  0  0  0  0
 48 50  2  0  0  0  0
 49 51  1  0  0  0  0
 49102  1  0  0  0  0
 50 52  1  0  0  0  0
 50103  1  0  0  0  0
 51 52  2  0  0  0  0
 51104  1  0  0  0  0
 52105  1  0  0  0  0
M  END
> <PUBCHEM_COMPOUND_CID>
503226
> <PUBCHEM_COMPOUND_CANONICALIZED>
1
> <PUBCHEM_CACTVS_COMPLEXITY>
1160
> <PUBCHEM_CACTVS_HBOND_ACCEPTOR>
7
> <PUBCHEM_CACTVS_HBOND_DONOR>
4
> <PUBCHEM_CACTVS_ROTATABLE_BOND>
14
> <PUBCHEM_CACTVS_SUBSKEYS>
AAADcfB/uABAAAAAAAAAAAAAAAAAAAAAAAA8eMECAAAAAACx9AAAHgQQCAAADrzl3gaywfPIEgioAyVyVACCgCAnCjAImLm4ZNgKcPLg1bGUYQhklgD4yYeYyKCPAAAAAAACAAAAAAAAAAQAAAAAAAAAAA==
> <PUBCHEM_IUPAC_OPENEYE_NAME>
N-[1-[[(1S,2R)-1-benzyl-3-[(2S,4R)-2-(tert-butylcarbamoyl)-4-phenylsulfanyl-1-piperidyl]-2-hydroxy-propyl]carbamoyl]-2,2-dimethyl-propyl]quinoline-2-carboxamide
> <PUBCHEM_IUPAC_CAS_NAME>
N-[1-[[(2S,3R)-4-[(2S,4R)-2-[(tert-butylamino)-oxomethyl]-4-(phenylthio)-1-piperidinyl]-3-hydroxy-1-phenylbutan-2-yl]amino]-3,3-dimethyl-1-oxobutan-2-yl]-2-quinolinecarboxamide
> <PUBCHEM_IUPAC_NAME_MARKUP>
<I>N</I>-[1-[[(2<I>S</I>,3<I>R</I>)-4-[(2<I>S</I>,4<I>R</I>)-2-(<I>tert</I>-butylcarbamoyl)-4-phenylsulfanylpiperidin-1-yl]-3-hydroxy-1-phenylbutan-2-yl]amino]-3,3-dimethyl-1-oxobutan-2-yl]quinoline-2-carboxamide
> <PUBCHEM_IUPAC_NAME>
N-[1-[[(2S,3R)-4-[(2S,4R)-2-(tert-butylcarbamoyl)-4-phenylsulfanylpiperidin-1-yl]-3-hydroxy-1-phenylbutan-2-yl]amino]-3,3-dimethyl-1-oxobutan-2-yl]quinoline-2-carboxamide
> <PUBCHEM_IUPAC_SYSTEMATIC_NAME>
N-[1-[[(2S,3R)-4-[(2S,4R)-2-(tert-butylcarbamoyl)-4-phenylsulfanyl-piperidin-1-yl]-3-oxidanyl-1-phenyl-butan-2-yl]amino]-3,3-dimethyl-1-oxidanylidene-butan-2-yl]quinoline-2-carboxamide
> <PUBCHEM_IUPAC_TRADITIONAL_NAME>
N-[1-[[(1S,2R)-1-benzyl-3-[(2S,4R)-2-(tert-butylcarbamoyl)-4-(phenylthio)piperidino]-2-hydroxy-propyl]carbamoyl]-2,2-dimethyl-propyl]quinaldamide
> <PUBCHEM_IUPAC_INCHI>
InChI=1S/C42H53N5O4S/c1-41(2,3)37(45-38(49)33-22-21-29-17-13-14-20-32(29)43-33)40(51)44-34(25-28-15-9-7-10-16-28)36(48)27-47-24-23-31(52-30-18-11-8-12-19-30)26-35(47)39(50)46-42(4,5)6/h7-22,31,34-37,48H,23-27H2,1-6H3,(H,44,51)(H,45,49)(H,46,50)/t31-,34+,35+,36-,37?/m1/s1
> <PUBCHEM_IUPAC_INCHIKEY>
QMVDQRUKKBKLAY-SGIUYIQBSA-N
> <PUBCHEM_XLOGP3_AA>
7.5
> <PUBCHEM_EXACT_MASS>
723.38182636
> <PUBCHEM_MOLECULAR_FORMULA>
C42H53N5O4S
> <PUBCHEM_MOLECULAR_WEIGHT>
724.0
> <PUBCHEM_OPENEYE_CAN_SMILES>
CC(C)(C)C(C(=O)NC(CC1=CC=CC=C1)C(CN2CCC(CC2C(=O)NC(C)(C)C)SC3=CC=CC=C3)O)NC(=O)C4=NC5=CC=CC=C5C=C4
> <PUBCHEM_OPENEYE_ISO_SMILES>
CC(C)(C)C(C(=O)N[C@@H](CC1=CC=CC=C1)[C@@H](CN2CC[C@H](C[C@H]2C(=O)NC(C)(C)C)SC3=CC=CC=C3)O)NC(=O)C4=NC5=CC=CC=C5C=C4
> <PUBCHEM_CACTVS_TPSA>
149
> <PUBCHEM_MONOISOTOPIC_WEIGHT>
723.38182636
> <PUBCHEM_TOTAL_CHARGE>
0
> <PUBCHEM_HEAVY_ATOM_COUNT>
52
> <PUBCHEM_ATOM_DEF_STEREO_COUNT>
4
> <PUBCHEM_ATOM_UDEF_STEREO_COUNT>
1
> <PUBCHEM_BOND_DEF_STEREO_COUNT>
0
> <PUBCHEM_BOND_UDEF_STEREO_COUNT>
0
> <PUBCHEM_ISOTOPIC_ATOM_COUNT>
0
> <PUBCHEM_COMPONENT_COUNT>
1
> <PUBCHEM_CACTVS_TAUTO_COUNT>
-1
> <PUBCHEM_COORDINATE_TYPE>
1
5
255
> <PUBCHEM_BONDANNOTATIONS>
13  1  5
10  44  8
10  46  8
11  19  5
17  2  6
23  24  3
25  33  8
25  34  8
26  35  8
26  36  8
33  38  8
34  39  8
35  40  8
36  41  8
38  42  8
39  42  8
40  43  8
41  43  8
44  45  8
45  47  8
46  48  8
46  49  8
47  48  8
48  50  8
49  51  8
50  52  8
51  52  8
18  8  5
$$$$
