503272
  -OEChem-10302200282D
 44 46  0     1  0  0  0  0  0999 V2000
    6.3580   -0.9397    0.0000 O   0  0  0  0  0  0  0  0  0  0  0  0
    6.3465    2.1296    0.0000 O   0  0  0  0  0  0  0  0  0  0  0  0
    4.5981    2.0950    0.0000 O   0  0  0  0  0  0  0  0  0  0  0  0
    2.8660   -0.9050    0.0000 O   0  0  0  0  0  0  0  0  0  0  0  0
    8.1244    2.1191    0.0000 O   0  0  0  0  0  0  0  0  0  0  0  0
    3.7320   -2.4050    0.0000 O   0  0  0  0  0  0  0  0  0  0  0  0
    7.2641    0.6158    0.0000 C   0  0  1  0  0  0  0  0  0  0  0  0
    7.2641   -0.4258    0.0000 C   0  0  2  0  0  0  0  0  0  0  0  0
    6.3580    1.1297    0.0000 C   0  0  0  0  0  0  0  0  0  0  0  0
    5.4641    0.5950    0.0000 C   0  0  0  0  0  0  0  0  0  0  0  0
    5.4641   -0.4050    0.0000 C   0  0  0  0  0  0  0  0  0  0  0  0
    8.1282    1.1192    0.0000 C   0  0  0  0  0  0  0  0  0  0  0  0
    8.1282   -0.9292    0.0000 C   0  0  0  0  0  0  0  0  0  0  0  0
    4.5981    1.0950    0.0000 C   0  0  0  0  0  0  0  0  0  0  0  0
    4.5981   -0.9050    0.0000 C   0  0  0  0  0  0  0  0  0  0  0  0
    3.7320    0.5950    0.0000 C   0  0  0  0  0  0  0  0  0  0  0  0
    3.7320   -0.4050    0.0000 C   0  0  0  0  0  0  0  0  0  0  0  0
    8.9962    0.6225    0.0000 C   0  0  0  0  0  0  0  0  0  0  0  0
    2.8660    1.0950    0.0000 C   0  0  0  0  0  0  0  0  0  0  0  0
    4.5981   -1.9050    0.0000 C   0  0  0  0  0  0  0  0  0  0  0  0
    9.8602    1.1258    0.0000 C   0  0  0  0  0  0  0  0  0  0  0  0
    9.0000   -0.3775    0.0000 C   0  0  0  0  0  0  0  0  0  0  0  0
   10.7282    0.6292    0.0000 C   0  0  0  0  0  0  0  0  0  0  0  0
    9.8680   -0.8742    0.0000 C   0  0  0  0  0  0  0  0  0  0  0  0
   10.7320   -0.3708    0.0000 C   0  0  0  0  0  0  0  0  0  0  0  0
    2.0000   -0.4050    0.0000 C   0  0  0  0  0  0  0  0  0  0  0  0
    7.2605    1.2358    0.0000 H   0  0  0  0  0  0  0  0  0  0  0  0
    7.2605   -1.0458    0.0000 H   0  0  0  0  0  0  0  0  0  0  0  0
    7.8161   -1.4649    0.0000 H   0  0  0  0  0  0  0  0  0  0  0  0
    8.6639   -1.2412    0.0000 H   0  0  0  0  0  0  0  0  0  0  0  0
    8.4403   -0.3934    0.0000 H   0  0  0  0  0  0  0  0  0  0  0  0
    3.1760    1.6319    0.0000 H   0  0  0  0  0  0  0  0  0  0  0  0
    2.3291    1.4050    0.0000 H   0  0  0  0  0  0  0  0  0  0  0  0
    2.5560    0.5581    0.0000 H   0  0  0  0  0  0  0  0  0  0  0  0
    5.1350   -2.2150    0.0000 H   0  0  0  0  0  0  0  0  0  0  0  0
    9.8578    1.7458    0.0000 H   0  0  0  0  0  0  0  0  0  0  0  0
    8.4643   -0.6896    0.0000 H   0  0  0  0  0  0  0  0  0  0  0  0
    4.0611    2.4050    0.0000 H   0  0  0  0  0  0  0  0  0  0  0  0
   11.2639    0.9412    0.0000 H   0  0  0  0  0  0  0  0  0  0  0  0
    9.8703   -1.4942    0.0000 H   0  0  0  0  0  0  0  0  0  0  0  0
   11.2702   -0.6788    0.0000 H   0  0  0  0  0  0  0  0  0  0  0  0
    2.3100    0.1319    0.0000 H   0  0  0  0  0  0  0  0  0  0  0  0
    1.4631   -0.0950    0.0000 H   0  0  0  0  0  0  0  0  0  0  0  0
    1.6900   -0.9419    0.0000 H   0  0  0  0  0  0  0  0  0  0  0  0
  1  8  1  0  0  0  0
  1 11  1  0  0  0  0
  2  9  2  0  0  0  0
  3 14  1  0  0  0  0
  3 38  1  0  0  0  0
  4 17  1  0  0  0  0
  4 26  1  0  0  0  0
  5 12  2  0  0  0  0
  6 20  2  0  0  0  0
  7  8  1  0  0  0  0
  7  9  1  0  0  0  0
  7 12  1  1  0  0  0
  7 27  1  0  0  0  0
  8 13  1  6  0  0  0
  8 28  1  0  0  0  0
  9 10  1  0  0  0  0
 10 11  2  0  0  0  0
 10 14  1  0  0  0  0
 11 15  1  0  0  0  0
 12 18  1  0  0  0  0
 13 29  1  0  0  0  0
 13 30  1  0  0  0  0
 13 31  1  0  0  0  0
 14 16  2  0  0  0  0
 15 17  2  0  0  0  0
 15 20  1  0  0  0  0
 16 17  1  0  0  0  0
 16 19  1  0  0  0  0
 18 21  2  0  0  0  0
 18 22  1  0  0  0  0
 19 32  1  0  0  0  0
 19 33  1  0  0  0  0
 19 34  1  0  0  0  0
 20 35  1  0  0  0  0
 21 23  1  0  0  0  0
 21 36  1  0  0  0  0
 22 24  2  0  0  0  0
 22 37  1  0  0  0  0
 23 25  2  0  0  0  0
 23 39  1  0  0  0  0
 24 25  1  0  0  0  0
 24 40  1  0  0  0  0
 25 41  1  0  0  0  0
 26 42  1  0  0  0  0
 26 43  1  0  0  0  0
 26 44  1  0  0  0  0
M  END
> <PUBCHEM_COMPOUND_CID>
503272
> <PUBCHEM_COMPOUND_CANONICALIZED>
1
> <PUBCHEM_CACTVS_COMPLEXITY>
555
> <PUBCHEM_CACTVS_HBOND_ACCEPTOR>
6
> <PUBCHEM_CACTVS_HBOND_DONOR>
1
> <PUBCHEM_CACTVS_ROTATABLE_BOND>
4
> <PUBCHEM_CACTVS_SUBSKEYS>
AAADceB4OAAAAAAAAAAAAAAAAAAAAAAAAAA0YIAAAAAAAACRQAAAGgAACAAADRSgmAIyBoAABgCIAqhSgAACCAAkIAAIiAEECMgMJzaONRqCeWCl4BUIuYeI7uzuIAACCAAIAABAAAQQABAAAAAAAAAAAA==
> <PUBCHEM_IUPAC_OPENEYE_NAME>
(2S,3R)-3-benzoyl-5-hydroxy-7-methoxy-2,6-dimethyl-4-oxo-chromane-8-carbaldehyde
> <PUBCHEM_IUPAC_CAS_NAME>
(2S,3R)-3-benzoyl-5-hydroxy-7-methoxy-2,6-dimethyl-4-oxo-3,4-dihydro-2H-1-benzopyran-8-carboxaldehyde
> <PUBCHEM_IUPAC_NAME_MARKUP>
(2<I>S</I>,3<I>R</I>)-3-benzoyl-5-hydroxy-7-methoxy-2,6-dimethyl-4-oxo-2,3-dihydrochromene-8-carbaldehyde
> <PUBCHEM_IUPAC_NAME>
(2S,3R)-3-benzoyl-5-hydroxy-7-methoxy-2,6-dimethyl-4-oxo-2,3-dihydrochromene-8-carbaldehyde
> <PUBCHEM_IUPAC_SYSTEMATIC_NAME>
(2S,3R)-7-methoxy-2,6-dimethyl-5-oxidanyl-4-oxidanylidene-3-(phenylcarbonyl)-2,3-dihydrochromene-8-carbaldehyde
> <PUBCHEM_IUPAC_TRADITIONAL_NAME>
(2S,3R)-3-benzoyl-5-hydroxy-4-keto-7-methoxy-2,6-dimethyl-chroman-8-carbaldehyde
> <PUBCHEM_IUPAC_INCHI>
InChI=1S/C20H18O6/c1-10-16(22)15-18(24)14(17(23)12-7-5-4-6-8-12)11(2)26-20(15)13(9-21)19(10)25-3/h4-9,11,14,22H,1-3H3/t11-,14+/m0/s1
> <PUBCHEM_IUPAC_INCHIKEY>
XOYBHGIKQQOETF-SMDDNHRTSA-N
> <PUBCHEM_XLOGP3_AA>
3.4
> <PUBCHEM_EXACT_MASS>
354.11033829
> <PUBCHEM_MOLECULAR_FORMULA>
C20H18O6
> <PUBCHEM_MOLECULAR_WEIGHT>
354.4
> <PUBCHEM_OPENEYE_CAN_SMILES>
CC1C(C(=O)C2=C(O1)C(=C(C(=C2O)C)OC)C=O)C(=O)C3=CC=CC=C3
> <PUBCHEM_OPENEYE_ISO_SMILES>
C[C@H]1[C@@H](C(=O)C2=C(O1)C(=C(C(=C2O)C)OC)C=O)C(=O)C3=CC=CC=C3
> <PUBCHEM_CACTVS_TPSA>
89.9
> <PUBCHEM_MONOISOTOPIC_WEIGHT>
354.11033829
> <PUBCHEM_TOTAL_CHARGE>
0
> <PUBCHEM_HEAVY_ATOM_COUNT>
26
> <PUBCHEM_ATOM_DEF_STEREO_COUNT>
2
> <PUBCHEM_ATOM_UDEF_STEREO_COUNT>
0
> <PUBCHEM_BOND_DEF_STEREO_COUNT>
0
> <PUBCHEM_BOND_UDEF_STEREO_COUNT>
0
> <PUBCHEM_ISOTOPIC_ATOM_COUNT>
0
> <PUBCHEM_COMPONENT_COUNT>
1
> <PUBCHEM_CACTVS_TAUTO_COUNT>
-1
> <PUBCHEM_COORDINATE_TYPE>
1
5
255
> <PUBCHEM_BONDANNOTATIONS>
10  11  8
10  14  8
11  15  8
14  16  8
15  17  8
16  17  8
18  21  8
18  22  8
21  23  8
22  24  8
23  25  8
24  25  8
7  12  5
8  13  6
$$$$
