503300
  -OEChem-10302200282D
 35 38  0     1  0  0  0  0  0999 V2000
    2.6730    0.9107    0.0000 O   0  0  0  0  0  0  0  0  0  0  0  0
    4.6241    0.6017    0.0000 O   0  0  0  0  0  0  0  0  0  0  0  0
    2.3640    1.8617    0.0000 N   0  0  0  0  0  0  0  0  0  0  0  0
    3.6730   -0.0893    0.0000 C   0  0  0  0  0  0  0  0  0  0  0  0
    4.5092   -1.5376    0.0000 C   0  0  0  0  0  0  0  0  0  0  0  0
    2.8368   -1.5376    0.0000 C   0  0  0  0  0  0  0  0  0  0  0  0
    2.9819   -1.9727    0.0000 C   0  0  0  0  0  0  0  0  0  0  0  0
    4.5092   -0.5721    0.0000 C   0  0  0  0  0  0  0  0  0  0  0  0
    2.8368   -0.5721    0.0000 C   0  0  0  0  0  0  0  0  0  0  0  0
    2.9819   -0.9274    0.0000 C   0  0  0  0  0  0  0  0  0  0  0  0
    3.6730   -1.8404    0.0000 C   0  0  0  0  0  0  0  0  0  0  0  0
    3.8876   -2.4495    0.0000 C   0  0  0  0  0  0  0  0  0  0  0  0
    2.0000   -2.0204    0.0000 C   0  0  0  0  0  0  0  0  0  0  0  0
    3.6730    0.9107    0.0000 C   0  0  3  0  0  0  0  0  0  0  0  0
    3.9820    1.8618    0.0000 C   0  0  0  0  0  0  0  0  0  0  0  0
    3.1730    2.4495    0.0000 C   0  0  0  0  0  0  0  0  0  0  0  0
    5.1016   -1.7204    0.0000 H   0  0  0  0  0  0  0  0  0  0  0  0
    3.3444   -1.1816    0.0000 H   0  0  0  0  0  0  0  0  0  0  0  0
    2.8478   -2.5780    0.0000 H   0  0  0  0  0  0  0  0  0  0  0  0
    5.1198   -0.6798    0.0000 H   0  0  0  0  0  0  0  0  0  0  0  0
    4.7212    0.0105    0.0000 H   0  0  0  0  0  0  0  0  0  0  0  0
    2.6247    0.0105    0.0000 H   0  0  0  0  0  0  0  0  0  0  0  0
    2.2262   -0.6798    0.0000 H   0  0  0  0  0  0  0  0  0  0  0  0
    2.6383   -0.4114    0.0000 H   0  0  0  0  0  0  0  0  0  0  0  0
    2.3885   -1.1070    0.0000 H   0  0  0  0  0  0  0  0  0  0  0  0
    3.3030   -2.3379    0.0000 H   0  0  0  0  0  0  0  0  0  0  0  0
    4.0430   -2.3379    0.0000 H   0  0  0  0  0  0  0  0  0  0  0  0
    3.5782   -2.9868    0.0000 H   0  0  0  0  0  0  0  0  0  0  0  0
    4.4127   -2.7791    0.0000 H   0  0  0  0  0  0  0  0  0  0  0  0
    1.5188   -1.6295    0.0000 H   0  0  0  0  0  0  0  0  0  0  0  0
    1.8068   -2.6095    0.0000 H   0  0  0  0  0  0  0  0  0  0  0  0
    4.5484    1.6096    0.0000 H   0  0  0  0  0  0  0  0  0  0  0  0
    4.2920    2.3987    0.0000 H   0  0  0  0  0  0  0  0  0  0  0  0
    5.0848    1.0165    0.0000 H   0  0  0  0  0  0  0  0  0  0  0  0
    3.1730    3.0695    0.0000 H   0  0  0  0  0  0  0  0  0  0  0  0
  1  3  1  0  0  0  0
  1 14  1  0  0  0  0
  2 14  1  0  0  0  0
  2 34  1  0  0  0  0
  3 16  2  0  0  0  0
  4  8  1  0  0  0  0
  4  9  1  0  0  0  0
  4 10  1  0  0  0  0
  4 14  1  0  0  0  0
  5  8  1  0  0  0  0
  5 11  1  0  0  0  0
  5 12  1  0  0  0  0
  5 17  1  0  0  0  0
  6  9  1  0  0  0  0
  6 11  1  0  0  0  0
  6 13  1  0  0  0  0
  6 18  1  0  0  0  0
  7 10  1  0  0  0  0
  7 12  1  0  0  0  0
  7 13  1  0  0  0  0
  7 19  1  0  0  0  0
  8 20  1  0  0  0  0
  8 21  1  0  0  0  0
  9 22  1  0  0  0  0
  9 23  1  0  0  0  0
 10 24  1  0  0  0  0
 10 25  1  0  0  0  0
 11 26  1  0  0  0  0
 11 27  1  0  0  0  0
 12 28  1  0  0  0  0
 12 29  1  0  0  0  0
 13 30  1  0  0  0  0
 13 31  1  0  0  0  0
 14 15  1  0  0  0  0
 15 16  1  0  0  0  0
 15 32  1  0  0  0  0
 15 33  1  0  0  0  0
 16 35  1  0  0  0  0
M  END
> <PUBCHEM_COMPOUND_CID>
503300
> <PUBCHEM_COMPOUND_CANONICALIZED>
1
> <PUBCHEM_CACTVS_COMPLEXITY>
311
> <PUBCHEM_CACTVS_HBOND_ACCEPTOR>
3
> <PUBCHEM_CACTVS_HBOND_DONOR>
1
> <PUBCHEM_CACTVS_ROTATABLE_BOND>
1
> <PUBCHEM_CACTVS_SUBSKEYS>
AAADceByMAAAAAAAAAAAAAAAAAAAAQAAAAAwYMGAAAAAAAAAAAAAHgAECAAADwTBgAQACAAQAgAgABAhAAAAAAAAAAAAAAAwAAAAAAIAAAAAQAAEAAAAAAGAwOAPAAAAAAAAAAAAAAQAAAAAAAAAAAAAAA==
> <PUBCHEM_IUPAC_OPENEYE_NAME>
5-(1-adamantyl)-4H-isoxazol-5-ol
> <PUBCHEM_IUPAC_CAS_NAME>
5-(1-adamantyl)-4H-isoxazol-5-ol
> <PUBCHEM_IUPAC_NAME_MARKUP>
5-(1-adamantyl)-4<I>H</I>-1,2-oxazol-5-ol
> <PUBCHEM_IUPAC_NAME>
5-(1-adamantyl)-4H-1,2-oxazol-5-ol
> <PUBCHEM_IUPAC_SYSTEMATIC_NAME>
5-(1-adamantyl)-4H-1,2-oxazol-5-ol
> <PUBCHEM_IUPAC_TRADITIONAL_NAME>
5-(1-adamantyl)-2-isoxazolin-5-ol
> <PUBCHEM_IUPAC_INCHI>
InChI=1S/C13H19NO2/c15-13(1-2-14-16-13)12-6-9-3-10(7-12)5-11(4-9)8-12/h2,9-11,15H,1,3-8H2
> <PUBCHEM_IUPAC_INCHIKEY>
SHZDROAHTCMEHM-UHFFFAOYSA-N
> <PUBCHEM_XLOGP3_AA>
2
> <PUBCHEM_EXACT_MASS>
221.141578849
> <PUBCHEM_MOLECULAR_FORMULA>
C13H19NO2
> <PUBCHEM_MOLECULAR_WEIGHT>
221.29
> <PUBCHEM_OPENEYE_CAN_SMILES>
C1C=NOC1(C23CC4CC(C2)CC(C4)C3)O
> <PUBCHEM_OPENEYE_ISO_SMILES>
C1C=NOC1(C23CC4CC(C2)CC(C4)C3)O
> <PUBCHEM_CACTVS_TPSA>
41.8
> <PUBCHEM_MONOISOTOPIC_WEIGHT>
221.141578849
> <PUBCHEM_TOTAL_CHARGE>
0
> <PUBCHEM_HEAVY_ATOM_COUNT>
16
> <PUBCHEM_ATOM_DEF_STEREO_COUNT>
0
> <PUBCHEM_ATOM_UDEF_STEREO_COUNT>
1
> <PUBCHEM_BOND_DEF_STEREO_COUNT>
0
> <PUBCHEM_BOND_UDEF_STEREO_COUNT>
0
> <PUBCHEM_ISOTOPIC_ATOM_COUNT>
0
> <PUBCHEM_COMPONENT_COUNT>
1
> <PUBCHEM_CACTVS_TAUTO_COUNT>
-1
> <PUBCHEM_COORDINATE_TYPE>
1
5
255
> <PUBCHEM_BONDANNOTATIONS>
14  2  3
$$$$
