503327
  -OEChem-10302200282D
 30 32  0     1  0  0  0  0  0999 V2000
    5.5321   -1.7673    0.0000 Cl  0  0  0  0  0  0  0  0  0  0  0  0
    8.9962   -1.7673    0.0000 Cl  0  0  0  0  0  0  0  0  0  0  0  0
    4.6660   -0.2673    0.0000 O   0  0  0  0  0  0  0  0  0  0  0  0
    5.5321    0.2327    0.0000 C   0  0  3  0  0  0  0  0  0  0  0  0
    5.5321    1.2327    0.0000 C   0  0  0  0  0  0  0  0  0  0  0  0
    4.6660    1.7327    0.0000 C   0  0  0  0  0  0  0  0  0  0  0  0
    3.8000    1.2327    0.0000 C   0  0  0  0  0  0  0  0  0  0  0  0
    6.3981   -0.2673    0.0000 C   0  0  0  0  0  0  0  0  0  0  0  0
    3.8000    0.2327    0.0000 C   0  0  0  0  0  0  0  0  0  0  0  0
    2.9061    1.7673    0.0000 C   0  0  0  0  0  0  0  0  0  0  0  0
    2.9061   -0.3020    0.0000 C   0  0  0  0  0  0  0  0  0  0  0  0
    6.3981   -1.2673    0.0000 C   0  0  0  0  0  0  0  0  0  0  0  0
    7.2641    0.2327    0.0000 C   0  0  0  0  0  0  0  0  0  0  0  0
    2.0000    1.2535    0.0000 C   0  0  0  0  0  0  0  0  0  0  0  0
    2.0000    0.2119    0.0000 C   0  0  0  0  0  0  0  0  0  0  0  0
    7.2641   -1.7673    0.0000 C   0  0  0  0  0  0  0  0  0  0  0  0
    8.1301   -0.2673    0.0000 C   0  0  0  0  0  0  0  0  0  0  0  0
    8.1301   -1.2673    0.0000 C   0  0  0  0  0  0  0  0  0  0  0  0
    5.5321   -0.3873    0.0000 H   0  0  0  0  0  0  0  0  0  0  0  0
    6.1426    1.1250    0.0000 H   0  0  0  0  0  0  0  0  0  0  0  0
    5.7441    1.8153    0.0000 H   0  0  0  0  0  0  0  0  0  0  0  0
    5.0646    2.2076    0.0000 H   0  0  0  0  0  0  0  0  0  0  0  0
    4.2675    2.2076    0.0000 H   0  0  0  0  0  0  0  0  0  0  0  0
    2.9132    2.3873    0.0000 H   0  0  0  0  0  0  0  0  0  0  0  0
    2.9132   -0.9220    0.0000 H   0  0  0  0  0  0  0  0  0  0  0  0
    7.2641    0.8527    0.0000 H   0  0  0  0  0  0  0  0  0  0  0  0
    1.4643    1.5656    0.0000 H   0  0  0  0  0  0  0  0  0  0  0  0
    1.4643   -0.1002    0.0000 H   0  0  0  0  0  0  0  0  0  0  0  0
    7.2641   -2.3873    0.0000 H   0  0  0  0  0  0  0  0  0  0  0  0
    8.6671    0.0427    0.0000 H   0  0  0  0  0  0  0  0  0  0  0  0
  1 12  1  0  0  0  0
  2 18  1  0  0  0  0
  3  4  1  0  0  0  0
  3  9  1  0  0  0  0
  4  5  1  0  0  0  0
  4  8  1  0  0  0  0
  4 19  1  0  0  0  0
  5  6  1  0  0  0  0
  5 20  1  0  0  0  0
  5 21  1  0  0  0  0
  6  7  1  0  0  0  0
  6 22  1  0  0  0  0
  6 23  1  0  0  0  0
  7  9  1  0  0  0  0
  7 10  2  0  0  0  0
  8 12  2  0  0  0  0
  8 13  1  0  0  0  0
  9 11  2  0  0  0  0
 10 14  1  0  0  0  0
 10 24  1  0  0  0  0
 11 15  1  0  0  0  0
 11 25  1  0  0  0  0
 12 16  1  0  0  0  0
 13 17  2  0  0  0  0
 13 26  1  0  0  0  0
 14 15  2  0  0  0  0
 14 27  1  0  0  0  0
 15 28  1  0  0  0  0
 16 18  2  0  0  0  0
 16 29  1  0  0  0  0
 17 18  1  0  0  0  0
 17 30  1  0  0  0  0
M  END
> <PUBCHEM_COMPOUND_CID>
503327
> <PUBCHEM_COMPOUND_CANONICALIZED>
1
> <PUBCHEM_CACTVS_COMPLEXITY>
284
> <PUBCHEM_CACTVS_HBOND_ACCEPTOR>
1
> <PUBCHEM_CACTVS_HBOND_DONOR>
0
> <PUBCHEM_CACTVS_ROTATABLE_BOND>
1
> <PUBCHEM_CACTVS_SUBSKEYS>
AAADccBwIAAGAAAAAAAAAAAAAAAAAAAAAAA0YIAAAAAAAACRQAAAGgIAAAAADBagmCIwBoAABACAAiBCAAACCAAgJQAIiAAGCogMJiKFMxqCOCCkwBEIqAeAwOAOBAAAAACJAAAIAAAAARIAAAAAAAAAAA==
> <PUBCHEM_IUPAC_OPENEYE_NAME>
2-(2,4-dichlorophenyl)chromane
> <PUBCHEM_IUPAC_CAS_NAME>
2-(2,4-dichlorophenyl)-3,4-dihydro-2H-1-benzopyran
> <PUBCHEM_IUPAC_NAME_MARKUP>
2-(2,4-dichlorophenyl)-3,4-dihydro-2<I>H</I>-chromene
> <PUBCHEM_IUPAC_NAME>
2-(2,4-dichlorophenyl)-3,4-dihydro-2H-chromene
> <PUBCHEM_IUPAC_SYSTEMATIC_NAME>
2-(2,4-dichlorophenyl)-3,4-dihydro-2H-chromene
> <PUBCHEM_IUPAC_TRADITIONAL_NAME>
2-(2,4-dichlorophenyl)chroman
> <PUBCHEM_IUPAC_INCHI>
InChI=1S/C15H12Cl2O/c16-11-6-7-12(13(17)9-11)15-8-5-10-3-1-2-4-14(10)18-15/h1-4,6-7,9,15H,5,8H2
> <PUBCHEM_IUPAC_INCHIKEY>
URVXCMAGSWSNLS-UHFFFAOYSA-N
> <PUBCHEM_XLOGP3_AA>
5.1
> <PUBCHEM_EXACT_MASS>
278.0265204
> <PUBCHEM_MOLECULAR_FORMULA>
C15H12Cl2O
> <PUBCHEM_MOLECULAR_WEIGHT>
279.2
> <PUBCHEM_OPENEYE_CAN_SMILES>
C1CC2=CC=CC=C2OC1C3=C(C=C(C=C3)Cl)Cl
> <PUBCHEM_OPENEYE_ISO_SMILES>
C1CC2=CC=CC=C2OC1C3=C(C=C(C=C3)Cl)Cl
> <PUBCHEM_CACTVS_TPSA>
9.2
> <PUBCHEM_MONOISOTOPIC_WEIGHT>
278.0265204
> <PUBCHEM_TOTAL_CHARGE>
0
> <PUBCHEM_HEAVY_ATOM_COUNT>
18
> <PUBCHEM_ATOM_DEF_STEREO_COUNT>
0
> <PUBCHEM_ATOM_UDEF_STEREO_COUNT>
1
> <PUBCHEM_BOND_DEF_STEREO_COUNT>
0
> <PUBCHEM_BOND_UDEF_STEREO_COUNT>
0
> <PUBCHEM_ISOTOPIC_ATOM_COUNT>
0
> <PUBCHEM_COMPONENT_COUNT>
1
> <PUBCHEM_CACTVS_TAUTO_COUNT>
-1
> <PUBCHEM_COORDINATE_TYPE>
1
5
255
> <PUBCHEM_BONDANNOTATIONS>
10  14  8
11  15  8
12  16  8
13  17  8
14  15  8
16  18  8
17  18  8
4  8  3
7  10  8
7  9  8
8  12  8
8  13  8
9  11  8
$$$$
