503312
  -OEChem-10302200282D
 30 31  0     1  0  0  0  0  0999 V2000
    4.5981    0.8815    0.0000 S   0  0  0  0  0  0  0  0  0  0  0  0
    3.6750   -0.7063    0.0000 O   0  0  0  0  0  0  0  0  0  0  0  0
    3.5471   -3.3799    0.0000 O   0  0  0  0  0  0  0  0  0  0  0  0
    2.8660    3.8815    0.0000 O   0  0  0  0  0  0  0  0  0  0  0  0
    2.8660    0.8815    0.0000 N   0  0  0  0  0  0  0  0  0  0  0  0
    3.7320    2.3815    0.0000 N   0  0  0  0  0  0  0  0  0  0  0  0
    2.8660   -0.1185    0.0000 C   0  0  1  0  0  0  0  0  0  0  0  0
    2.0570   -0.7063    0.0000 C   0  0  0  0  0  0  0  0  0  0  0  0
    2.3660   -1.6573    0.0000 C   0  0  0  0  0  0  0  0  0  0  0  0
    3.3660   -1.6573    0.0000 C   0  0  1  0  0  0  0  0  0  0  0  0
    3.9538   -2.4664    0.0000 C   0  0  0  0  0  0  0  0  0  0  0  0
    3.7320    1.3815    0.0000 C   0  0  0  0  0  0  0  0  0  0  0  0
    2.0000    1.3815    0.0000 C   0  0  0  0  0  0  0  0  0  0  0  0
    2.0000    2.3815    0.0000 C   0  0  0  0  0  0  0  0  0  0  0  0
    2.8660    2.8815    0.0000 C   0  0  0  0  0  0  0  0  0  0  0  0
    5.4641    1.3815    0.0000 C   0  0  0  0  0  0  0  0  0  0  0  0
    3.4184    0.1630    0.0000 H   0  0  0  0  0  0  0  0  0  0  0  0
    1.7470   -0.1694    0.0000 H   0  0  0  0  0  0  0  0  0  0  0  0
    1.4906   -0.9585    0.0000 H   0  0  0  0  0  0  0  0  0  0  0  0
    1.7596   -1.7862    0.0000 H   0  0  0  0  0  0  0  0  0  0  0  0
    2.4308   -2.2740    0.0000 H   0  0  0  0  0  0  0  0  0  0  0  0
    3.9784   -1.5603    0.0000 H   0  0  0  0  0  0  0  0  0  0  0  0
    4.4678   -2.8131    0.0000 H   0  0  0  0  0  0  0  0  0  0  0  0
    4.3845   -2.0204    0.0000 H   0  0  0  0  0  0  0  0  0  0  0  0
    1.4631    1.0715    0.0000 H   0  0  0  0  0  0  0  0  0  0  0  0
    3.9115   -3.8815    0.0000 H   0  0  0  0  0  0  0  0  0  0  0  0
    1.4631    2.6915    0.0000 H   0  0  0  0  0  0  0  0  0  0  0  0
    5.7741    0.8446    0.0000 H   0  0  0  0  0  0  0  0  0  0  0  0
    6.0010    1.6915    0.0000 H   0  0  0  0  0  0  0  0  0  0  0  0
    5.1541    1.9184    0.0000 H   0  0  0  0  0  0  0  0  0  0  0  0
  1 12  1  0  0  0  0
  1 16  1  0  0  0  0
  2  7  1  0  0  0  0
  2 10  1  0  0  0  0
  3 11  1  0  0  0  0
  3 26  1  0  0  0  0
  4 15  2  0  0  0  0
  7  5  1  6  0  0  0
  5 12  1  0  0  0  0
  5 13  1  0  0  0  0
  6 12  2  0  0  0  0
  6 15  1  0  0  0  0
  7  8  1  0  0  0  0
  7 17  1  0  0  0  0
  8  9  1  0  0  0  0
  8 18  1  0  0  0  0
  8 19  1  0  0  0  0
  9 10  1  0  0  0  0
  9 20  1  0  0  0  0
  9 21  1  0  0  0  0
 10 11  1  6  0  0  0
 10 22  1  0  0  0  0
 11 23  1  0  0  0  0
 11 24  1  0  0  0  0
 13 14  2  0  0  0  0
 13 25  1  0  0  0  0
 14 15  1  0  0  0  0
 14 27  1  0  0  0  0
 16 28  1  0  0  0  0
 16 29  1  0  0  0  0
 16 30  1  0  0  0  0
M  END
> <PUBCHEM_COMPOUND_CID>
503312
> <PUBCHEM_COMPOUND_CANONICALIZED>
1
> <PUBCHEM_CACTVS_COMPLEXITY>
343
> <PUBCHEM_CACTVS_HBOND_ACCEPTOR>
4
> <PUBCHEM_CACTVS_HBOND_DONOR>
1
> <PUBCHEM_CACTVS_ROTATABLE_BOND>
3
> <PUBCHEM_CACTVS_SUBSKEYS>
AAADccBzMABAAAAAAAAAAAAAAAAAASAAAAAgAAAAAAAAAAAAAAAAHgQACAAACBThgAaDAAMABgioACFWdACAEAFAAgAJAAAIAEABEAIAiAAOQAAEAAADAMCwMAIAAAAAAAAAAAAAAAAAAAAAAAAAAAAAAA==
> <PUBCHEM_IUPAC_OPENEYE_NAME>
1-[(2R,5S)-5-(hydroxymethyl)tetrahydrofuran-2-yl]-2-methylsulfanyl-pyrimidin-4-one
> <PUBCHEM_IUPAC_CAS_NAME>
1-[(2R,5S)-5-(hydroxymethyl)-2-oxolanyl]-2-(methylthio)-4-pyrimidinone
> <PUBCHEM_IUPAC_NAME_MARKUP>
1-[(2<I>R</I>,5<I>S</I>)-5-(hydroxymethyl)oxolan-2-yl]-2-methylsulfanylpyrimidin-4-one
> <PUBCHEM_IUPAC_NAME>
1-[(2R,5S)-5-(hydroxymethyl)oxolan-2-yl]-2-methylsulfanylpyrimidin-4-one
> <PUBCHEM_IUPAC_SYSTEMATIC_NAME>
1-[(2R,5S)-5-(hydroxymethyl)oxolan-2-yl]-2-methylsulfanyl-pyrimidin-4-one
> <PUBCHEM_IUPAC_TRADITIONAL_NAME>
1-[(2R,5S)-5-methyloltetrahydrofuran-2-yl]-2-(methylthio)pyrimidin-4-one
> <PUBCHEM_IUPAC_INCHI>
InChI=1S/C10H14N2O3S/c1-16-10-11-8(14)4-5-12(10)9-3-2-7(6-13)15-9/h4-5,7,9,13H,2-3,6H2,1H3/t7-,9+/m0/s1
> <PUBCHEM_IUPAC_INCHIKEY>
YSNNFCPVWGDQJY-IONNQARKSA-N
> <PUBCHEM_XLOGP3>
0.2
> <PUBCHEM_EXACT_MASS>
242.07251349
> <PUBCHEM_MOLECULAR_FORMULA>
C10H14N2O3S
> <PUBCHEM_MOLECULAR_WEIGHT>
242.30
> <PUBCHEM_OPENEYE_CAN_SMILES>
CSC1=NC(=O)C=CN1C2CCC(O2)CO
> <PUBCHEM_OPENEYE_ISO_SMILES>
CSC1=NC(=O)C=CN1[C@H]2CC[C@H](O2)CO
> <PUBCHEM_CACTVS_TPSA>
87.4
> <PUBCHEM_MONOISOTOPIC_WEIGHT>
242.07251349
> <PUBCHEM_TOTAL_CHARGE>
0
> <PUBCHEM_HEAVY_ATOM_COUNT>
16
> <PUBCHEM_ATOM_DEF_STEREO_COUNT>
2
> <PUBCHEM_ATOM_UDEF_STEREO_COUNT>
0
> <PUBCHEM_BOND_DEF_STEREO_COUNT>
0
> <PUBCHEM_BOND_UDEF_STEREO_COUNT>
0
> <PUBCHEM_ISOTOPIC_ATOM_COUNT>
0
> <PUBCHEM_COMPONENT_COUNT>
1
> <PUBCHEM_CACTVS_TAUTO_COUNT>
-1
> <PUBCHEM_COORDINATE_TYPE>
1
5
255
> <PUBCHEM_BONDANNOTATIONS>
10  11  6
13  14  8
14  15  8
5  12  8
5  13  8
7  5  6
6  12  8
6  15  8
$$$$
