503314
  -OEChem-10302200282D
 39 40  0     1  0  0  0  0  0999 V2000
    7.1962    0.8815    0.0000 S   0  0  0  0  0  0  0  0  0  0  0  0
    4.6551   -0.7063    0.0000 O   0  0  0  0  0  0  0  0  0  0  0  0
    4.7830   -3.3799    0.0000 O   0  0  0  0  0  0  0  0  0  0  0  0
    5.4641    3.8815    0.0000 O   0  0  0  0  0  0  0  0  0  0  0  0
    5.4641    0.8815    0.0000 N   0  0  0  0  0  0  0  0  0  0  0  0
    6.3301    2.3815    0.0000 N   0  0  0  0  0  0  0  0  0  0  0  0
    5.4641   -0.1185    0.0000 C   0  0  1  0  0  0  0  0  0  0  0  0
    6.2731   -0.7063    0.0000 C   0  0  0  0  0  0  0  0  0  0  0  0
    5.9641   -1.6573    0.0000 C   0  0  0  0  0  0  0  0  0  0  0  0
    4.9641   -1.6573    0.0000 C   0  0  1  0  0  0  0  0  0  0  0  0
    4.3763   -2.4664    0.0000 C   0  0  0  0  0  0  0  0  0  0  0  0
    4.5981    1.3815    0.0000 C   0  0  0  0  0  0  0  0  0  0  0  0
    3.7320    0.8815    0.0000 C   0  0  0  0  0  0  0  0  0  0  0  0
    6.3301    1.3815    0.0000 C   0  0  0  0  0  0  0  0  0  0  0  0
    4.5981    2.3815    0.0000 C   0  0  0  0  0  0  0  0  0  0  0  0
    2.8660    1.3815    0.0000 C   0  0  0  0  0  0  0  0  0  0  0  0
    5.4641    2.8815    0.0000 C   0  0  0  0  0  0  0  0  0  0  0  0
    2.0000    0.8815    0.0000 C   0  0  0  0  0  0  0  0  0  0  0  0
    8.0622    1.3815    0.0000 C   0  0  0  0  0  0  0  0  0  0  0  0
    6.0165    0.1630    0.0000 H   0  0  0  0  0  0  0  0  0  0  0  0
    6.8395   -0.9585    0.0000 H   0  0  0  0  0  0  0  0  0  0  0  0
    6.5831   -0.1694    0.0000 H   0  0  0  0  0  0  0  0  0  0  0  0
    5.8993   -2.2740    0.0000 H   0  0  0  0  0  0  0  0  0  0  0  0
    6.5706   -1.7862    0.0000 H   0  0  0  0  0  0  0  0  0  0  0  0
    4.3517   -1.5604    0.0000 H   0  0  0  0  0  0  0  0  0  0  0  0
    3.9456   -2.0204    0.0000 H   0  0  0  0  0  0  0  0  0  0  0  0
    3.8623   -2.8131    0.0000 H   0  0  0  0  0  0  0  0  0  0  0  0
    3.3335    0.4066    0.0000 H   0  0  0  0  0  0  0  0  0  0  0  0
    4.1306    0.4066    0.0000 H   0  0  0  0  0  0  0  0  0  0  0  0
    4.0611    2.6915    0.0000 H   0  0  0  0  0  0  0  0  0  0  0  0
    3.2646    1.8564    0.0000 H   0  0  0  0  0  0  0  0  0  0  0  0
    2.4675    1.8564    0.0000 H   0  0  0  0  0  0  0  0  0  0  0  0
    4.4186   -3.8815    0.0000 H   0  0  0  0  0  0  0  0  0  0  0  0
    1.6900    1.4184    0.0000 H   0  0  0  0  0  0  0  0  0  0  0  0
    1.4631    0.5715    0.0000 H   0  0  0  0  0  0  0  0  0  0  0  0
    2.3100    0.3446    0.0000 H   0  0  0  0  0  0  0  0  0  0  0  0
    8.3722    0.8446    0.0000 H   0  0  0  0  0  0  0  0  0  0  0  0
    8.5991    1.6915    0.0000 H   0  0  0  0  0  0  0  0  0  0  0  0
    7.7522    1.9184    0.0000 H   0  0  0  0  0  0  0  0  0  0  0  0
  1 14  1  0  0  0  0
  1 19  1  0  0  0  0
  2  7  1  0  0  0  0
  2 10  1  0  0  0  0
  3 11  1  0  0  0  0
  3 33  1  0  0  0  0
  4 17  2  0  0  0  0
  7  5  1  1  0  0  0
  5 12  1  0  0  0  0
  5 14  1  0  0  0  0
  6 14  2  0  0  0  0
  6 17  1  0  0  0  0
  7  8  1  0  0  0  0
  7 20  1  0  0  0  0
  8  9  1  0  0  0  0
  8 21  1  0  0  0  0
  8 22  1  0  0  0  0
  9 10  1  0  0  0  0
  9 23  1  0  0  0  0
  9 24  1  0  0  0  0
 10 11  1  1  0  0  0
 10 25  1  0  0  0  0
 11 26  1  0  0  0  0
 11 27  1  0  0  0  0
 12 13  1  0  0  0  0
 12 15  2  0  0  0  0
 13 16  1  0  0  0  0
 13 28  1  0  0  0  0
 13 29  1  0  0  0  0
 15 17  1  0  0  0  0
 15 30  1  0  0  0  0
 16 18  1  0  0  0  0
 16 31  1  0  0  0  0
 16 32  1  0  0  0  0
 18 34  1  0  0  0  0
 18 35  1  0  0  0  0
 18 36  1  0  0  0  0
 19 37  1  0  0  0  0
 19 38  1  0  0  0  0
 19 39  1  0  0  0  0
M  END
> <PUBCHEM_COMPOUND_CID>
503314
> <PUBCHEM_COMPOUND_CANONICALIZED>
1
> <PUBCHEM_CACTVS_COMPLEXITY>
409
> <PUBCHEM_CACTVS_HBOND_ACCEPTOR>
4
> <PUBCHEM_CACTVS_HBOND_DONOR>
1
> <PUBCHEM_CACTVS_ROTATABLE_BOND>
5
> <PUBCHEM_CACTVS_SUBSKEYS>
AAADceBzMABAAAAAAAAAAAAAAAAAASAAAAAgAAAAAAAAAAAAAAAAHgQACAAACBzhgAaDAAMABgioACVSdACAEAFgAgABCAAIAEgBEAIAiQAOQAAEgACLAUKwMAIAAAAAAAAAAAAAAAAAAAAAAAAAAAAAAA==
> <PUBCHEM_IUPAC_OPENEYE_NAME>
1-[(2R,5S)-5-(hydroxymethyl)tetrahydrofuran-2-yl]-2-methylsulfanyl-6-propyl-pyrimidin-4-one
> <PUBCHEM_IUPAC_CAS_NAME>
1-[(2R,5S)-5-(hydroxymethyl)-2-oxolanyl]-2-(methylthio)-6-propyl-4-pyrimidinone
> <PUBCHEM_IUPAC_NAME_MARKUP>
1-[(2<I>R</I>,5<I>S</I>)-5-(hydroxymethyl)oxolan-2-yl]-2-methylsulfanyl-6-propylpyrimidin-4-one
> <PUBCHEM_IUPAC_NAME>
1-[(2R,5S)-5-(hydroxymethyl)oxolan-2-yl]-2-methylsulfanyl-6-propylpyrimidin-4-one
> <PUBCHEM_IUPAC_SYSTEMATIC_NAME>
1-[(2R,5S)-5-(hydroxymethyl)oxolan-2-yl]-2-methylsulfanyl-6-propyl-pyrimidin-4-one
> <PUBCHEM_IUPAC_TRADITIONAL_NAME>
1-[(2R,5S)-5-methyloltetrahydrofuran-2-yl]-2-(methylthio)-6-propyl-pyrimidin-4-one
> <PUBCHEM_IUPAC_INCHI>
InChI=1S/C13H20N2O3S/c1-3-4-9-7-11(17)14-13(19-2)15(9)12-6-5-10(8-16)18-12/h7,10,12,16H,3-6,8H2,1-2H3/t10-,12+/m0/s1
> <PUBCHEM_IUPAC_INCHIKEY>
SFROEOKQLGJNMJ-CMPLNLGQSA-N
> <PUBCHEM_XLOGP3_AA>
1.5
> <PUBCHEM_EXACT_MASS>
284.11946368
> <PUBCHEM_MOLECULAR_FORMULA>
C13H20N2O3S
> <PUBCHEM_MOLECULAR_WEIGHT>
284.38
> <PUBCHEM_OPENEYE_CAN_SMILES>
CCCC1=CC(=O)N=C(N1C2CCC(O2)CO)SC
> <PUBCHEM_OPENEYE_ISO_SMILES>
CCCC1=CC(=O)N=C(N1[C@H]2CC[C@H](O2)CO)SC
> <PUBCHEM_CACTVS_TPSA>
87.4
> <PUBCHEM_MONOISOTOPIC_WEIGHT>
284.11946368
> <PUBCHEM_TOTAL_CHARGE>
0
> <PUBCHEM_HEAVY_ATOM_COUNT>
19
> <PUBCHEM_ATOM_DEF_STEREO_COUNT>
2
> <PUBCHEM_ATOM_UDEF_STEREO_COUNT>
0
> <PUBCHEM_BOND_DEF_STEREO_COUNT>
0
> <PUBCHEM_BOND_UDEF_STEREO_COUNT>
0
> <PUBCHEM_ISOTOPIC_ATOM_COUNT>
0
> <PUBCHEM_COMPONENT_COUNT>
1
> <PUBCHEM_CACTVS_TAUTO_COUNT>
-1
> <PUBCHEM_COORDINATE_TYPE>
1
5
255
> <PUBCHEM_BONDANNOTATIONS>
10  11  5
12  15  8
15  17  8
5  12  8
5  14  8
7  5  5
6  14  8
6  17  8
$$$$
