503320
  -OEChem-10302200282D
 97 99  0     1  0  0  0  0  0999 V2000
    8.0622    0.2849    0.0000 S   0  0  0  0  0  0  0  0  0  0  0  0
    9.7372    3.3727    0.0000 O   0  0  0  0  0  0  0  0  0  0  0  0
    7.1681    3.0637    0.0000 O   0  0  0  0  0  0  0  0  0  0  0  0
    7.8404    5.1328    0.0000 O   0  0  0  0  0  0  0  0  0  0  0  0
    5.4641   -2.2151    0.0000 O   0  0  0  0  0  0  0  0  0  0  0  0
    8.0622    1.2849    0.0000 O   0  0  0  0  0  0  0  0  0  0  0  0
    5.4641   -5.2151    0.0000 O   0  0  0  0  0  0  0  0  0  0  0  0
    3.7320   -4.2151    0.0000 O   0  0  0  0  0  0  0  0  0  0  0  0
    7.1962   -2.2151    0.0000 O   0  0  0  0  0  0  0  0  0  0  0  0
    3.7320   -1.2151    0.0000 O   0  0  0  0  0  0  0  0  0  0  0  0
   11.0462    3.1482    0.0000 O   0  0  0  0  0  0  0  0  0  0  0  0
    9.0622    0.2849    0.0000 O   0  0  0  0  0  0  0  0  0  0  0  0
    7.0622    0.2849    0.0000 O   0  0  0  0  0  0  0  0  0  0  0  0
    8.0622   -2.7151    0.0000 O   0  0  0  0  0  0  0  0  0  0  0  0
    6.3301   -0.7151    0.0000 O   0  0  0  0  0  0  0  0  0  0  0  0
    3.7320   -5.2151    0.0000 O   0  0  0  0  0  0  0  0  0  0  0  0
   13.0824    5.9507    0.0000 O   0  0  0  0  0  0  0  0  0  0  0  0
    2.8660   -2.7151    0.0000 O   0  0  0  0  0  0  0  0  0  0  0  0
    2.0000   -1.2151    0.0000 O   0  0  0  0  0  0  0  0  0  0  0  0
   10.3417    4.7305    0.0000 N   0  0  0  0  0  0  0  0  0  0  0  0
    7.1962   -4.2151    0.0000 N   0  0  0  0  0  0  0  0  0  0  0  0
   12.0643    4.5494    0.0000 N   0  0  0  0  0  0  0  0  0  0  0  0
    8.0622   -0.7151    0.0000 N   0  0  0  0  0  0  0  0  0  0  0  0
    8.1192    3.3727    0.0000 C   0  0  1  0  0  0  0  0  0  0  0  0
    8.4282    4.3238    0.0000 C   0  0  2  0  0  0  0  0  0  0  0  0
    8.9282    2.7849    0.0000 C   0  0  1  0  0  0  0  0  0  0  0  0
    9.4282    4.3238    0.0000 C   0  0  1  0  0  0  0  0  0  0  0  0
    5.4641   -4.2151    0.0000 C   0  0  2  0  0  0  0  0  0  0  0  0
    6.3301   -3.7151    0.0000 C   0  0  2  0  0  0  0  0  0  0  0  0
    4.5981   -3.7151    0.0000 C   0  0  1  0  0  0  0  0  0  0  0  0
    8.9282    1.7849    0.0000 C   0  0  0  0  0  0  0  0  0  0  0  0
    4.5981   -2.7151    0.0000 C   0  0  1  0  0  0  0  0  0  0  0  0
    6.3301   -2.7151    0.0000 C   0  0  2  0  0  0  0  0  0  0  0  0
    6.4250    3.7328    0.0000 C   0  0  0  0  0  0  0  0  0  0  0  0
    7.7359    6.1273    0.0000 C   0  0  0  0  0  0  0  0  0  0  0  0
    3.7320   -2.2151    0.0000 C   0  0  0  0  0  0  0  0  0  0  0  0
   11.1508    4.1427    0.0000 C   0  0  0  0  0  0  0  0  0  0  0  0
   10.4463    5.7250    0.0000 C   0  0  0  0  0  0  0  0  0  0  0  0
    5.4739    3.4238    0.0000 C   0  0  0  0  0  0  0  0  0  0  0  0
    6.6329    4.7110    0.0000 C   0  0  0  0  0  0  0  0  0  0  0  0
    6.8223    6.5340    0.0000 C   0  0  0  0  0  0  0  0  0  0  0  0
    8.5449    6.7151    0.0000 C   0  0  0  0  0  0  0  0  0  0  0  0
   11.3598    6.1318    0.0000 C   0  0  0  0  0  0  0  0  0  0  0  0
    8.0622   -3.7151    0.0000 C   0  0  0  0  0  0  0  0  0  0  0  0
    7.1962   -1.2151    0.0000 C   0  0  0  0  0  0  0  0  0  0  0  0
    4.5981   -5.7151    0.0000 C   0  0  0  0  0  0  0  0  0  0  0  0
   12.1688    5.5440    0.0000 C   0  0  0  0  0  0  0  0  0  0  0  0
    2.8660   -3.7151    0.0000 C   0  0  0  0  0  0  0  0  0  0  0  0
    8.9282   -4.2151    0.0000 C   0  0  0  0  0  0  0  0  0  0  0  0
    4.5981   -6.7151    0.0000 C   0  0  0  0  0  0  0  0  0  0  0  0
    2.0000   -4.2151    0.0000 C   0  0  0  0  0  0  0  0  0  0  0  0
    2.8660   -0.7151    0.0000 C   0  0  0  0  0  0  0  0  0  0  0  0
    2.8660    0.2849    0.0000 C   0  0  0  0  0  0  0  0  0  0  0  0
    7.6808    3.8111    0.0000 H   0  0  0  0  0  0  0  0  0  0  0  0
    8.7097    4.8762    0.0000 H   0  0  0  0  0  0  0  0  0  0  0  0
    9.4806    2.5034    0.0000 H   0  0  0  0  0  0  0  0  0  0  0  0
    9.2993    4.9302    0.0000 H   0  0  0  0  0  0  0  0  0  0  0  0
    6.0010   -4.5251    0.0000 H   0  0  0  0  0  0  0  0  0  0  0  0
    6.8671   -3.4051    0.0000 H   0  0  0  0  0  0  0  0  0  0  0  0
    4.0611   -3.4051    0.0000 H   0  0  0  0  0  0  0  0  0  0  0  0
    9.1403    1.2023    0.0000 H   0  0  0  0  0  0  0  0  0  0  0  0
    9.5388    1.8926    0.0000 H   0  0  0  0  0  0  0  0  0  0  0  0
    4.5981   -2.0951    0.0000 H   0  0  0  0  0  0  0  0  0  0  0  0
    6.3301   -2.0951    0.0000 H   0  0  0  0  0  0  0  0  0  0  0  0
    7.0146    3.9244    0.0000 H   0  0  0  0  0  0  0  0  0  0  0  0
    8.3023    5.8751    0.0000 H   0  0  0  0  0  0  0  0  0  0  0  0
    3.1215   -2.1074    0.0000 H   0  0  0  0  0  0  0  0  0  0  0  0
    3.5200   -2.7977    0.0000 H   0  0  0  0  0  0  0  0  0  0  0  0
    7.1962   -4.8351    0.0000 H   0  0  0  0  0  0  0  0  0  0  0  0
    9.9447    6.0894    0.0000 H   0  0  0  0  0  0  0  0  0  0  0  0
    5.2823    4.0134    0.0000 H   0  0  0  0  0  0  0  0  0  0  0  0
    4.8843    3.2322    0.0000 H   0  0  0  0  0  0  0  0  0  0  0  0
    5.6655    2.8341    0.0000 H   0  0  0  0  0  0  0  0  0  0  0  0
    7.2394    4.5821    0.0000 H   0  0  0  0  0  0  0  0  0  0  0  0
    6.7618    5.3174    0.0000 H   0  0  0  0  0  0  0  0  0  0  0  0
    6.0264    4.8399    0.0000 H   0  0  0  0  0  0  0  0  0  0  0  0
    7.0745    7.1004    0.0000 H   0  0  0  0  0  0  0  0  0  0  0  0
    6.2560    6.7862    0.0000 H   0  0  0  0  0  0  0  0  0  0  0  0
    6.5702    5.9676    0.0000 H   0  0  0  0  0  0  0  0  0  0  0  0
    8.9093    6.2135    0.0000 H   0  0  0  0  0  0  0  0  0  0  0  0
    9.0465    7.0795    0.0000 H   0  0  0  0  0  0  0  0  0  0  0  0
    8.1805    7.2167    0.0000 H   0  0  0  0  0  0  0  0  0  0  0  0
   12.5659    4.1850    0.0000 H   0  0  0  0  0  0  0  0  0  0  0  0
   11.4246    6.7484    0.0000 H   0  0  0  0  0  0  0  0  0  0  0  0
    8.5991   -1.0251    0.0000 H   0  0  0  0  0  0  0  0  0  0  0  0
    8.6182   -4.7520    0.0000 H   0  0  0  0  0  0  0  0  0  0  0  0
    9.4651   -4.5251    0.0000 H   0  0  0  0  0  0  0  0  0  0  0  0
    9.2382   -3.6782    0.0000 H   0  0  0  0  0  0  0  0  0  0  0  0
    3.9781   -6.7151    0.0000 H   0  0  0  0  0  0  0  0  0  0  0  0
    4.5981   -7.3351    0.0000 H   0  0  0  0  0  0  0  0  0  0  0  0
    5.2181   -6.7151    0.0000 H   0  0  0  0  0  0  0  0  0  0  0  0
    1.6900   -3.6782    0.0000 H   0  0  0  0  0  0  0  0  0  0  0  0
    1.4631   -4.5251    0.0000 H   0  0  0  0  0  0  0  0  0  0  0  0
    2.3100   -4.7520    0.0000 H   0  0  0  0  0  0  0  0  0  0  0  0
    3.4860    0.2849    0.0000 H   0  0  0  0  0  0  0  0  0  0  0  0
    2.8660    0.9049    0.0000 H   0  0  0  0  0  0  0  0  0  0  0  0
    2.2460    0.2849    0.0000 H   0  0  0  0  0  0  0  0  0  0  0  0
  1  6  1  0  0  0  0
  1 12  2  0  0  0  0
  1 13  2  0  0  0  0
  1 23  1  0  0  0  0
  2 26  1  0  0  0  0
  2 27  1  0  0  0  0
 24  3  1  1  0  0  0
  3 34  1  0  0  0  0
 25  4  1  1  0  0  0
  4 35  1  0  0  0  0
  5 32  1  0  0  0  0
  5 33  1  0  0  0  0
  6 31  1  0  0  0  0
 28  7  1  1  0  0  0
  7 46  1  0  0  0  0
 30  8  1  6  0  0  0
  8 48  1  0  0  0  0
 33  9  1  6  0  0  0
  9 45  1  0  0  0  0
 10 36  1  0  0  0  0
 10 52  1  0  0  0  0
 11 37  2  0  0  0  0
 14 44  2  0  0  0  0
 15 45  2  0  0  0  0
 16 46  2  0  0  0  0
 17 47  2  0  0  0  0
 18 48  2  0  0  0  0
 19 52  2  0  0  0  0
 27 20  1  6  0  0  0
 20 37  1  0  0  0  0
 20 38  1  0  0  0  0
 29 21  1  6  0  0  0
 21 44  1  0  0  0  0
 21 69  1  0  0  0  0
 22 37  1  0  0  0  0
 22 47  1  0  0  0  0
 22 83  1  0  0  0  0
 23 45  1  0  0  0  0
 23 85  1  0  0  0  0
 24 25  1  0  0  0  0
 24 26  1  0  0  0  0
 24 54  1  0  0  0  0
 25 27  1  0  0  0  0
 25 55  1  0  0  0  0
 26 31  1  6  0  0  0
 26 56  1  0  0  0  0
 27 57  1  0  0  0  0
 28 29  1  0  0  0  0
 28 30  1  0  0  0  0
 28 58  1  0  0  0  0
 29 33  1  0  0  0  0
 29 59  1  0  0  0  0
 30 32  1  0  0  0  0
 30 60  1  0  0  0  0
 31 61  1  0  0  0  0
 31 62  1  0  0  0  0
 32 36  1  1  0  0  0
 32 63  1  0  0  0  0
 33 64  1  0  0  0  0
 34 39  1  0  0  0  0
 34 40  1  0  0  0  0
 34 65  1  0  0  0  0
 35 41  1  0  0  0  0
 35 42  1  0  0  0  0
 35 66  1  0  0  0  0
 36 67  1  0  0  0  0
 36 68  1  0  0  0  0
 38 43  2  0  0  0  0
 38 70  1  0  0  0  0
 39 71  1  0  0  0  0
 39 72  1  0  0  0  0
 39 73  1  0  0  0  0
 40 74  1  0  0  0  0
 40 75  1  0  0  0  0
 40 76  1  0  0  0  0
 41 77  1  0  0  0  0
 41 78  1  0  0  0  0
 41 79  1  0  0  0  0
 42 80  1  0  0  0  0
 42 81  1  0  0  0  0
 42 82  1  0  0  0  0
 43 47  1  0  0  0  0
 43 84  1  0  0  0  0
 44 49  1  0  0  0  0
 46 50  1  0  0  0  0
 48 51  1  0  0  0  0
 49 86  1  0  0  0  0
 49 87  1  0  0  0  0
 49 88  1  0  0  0  0
 50 89  1  0  0  0  0
 50 90  1  0  0  0  0
 50 91  1  0  0  0  0
 51 92  1  0  0  0  0
 51 93  1  0  0  0  0
 51 94  1  0  0  0  0
 52 53  1  0  0  0  0
 53 95  1  0  0  0  0
 53 96  1  0  0  0  0
 53 97  1  0  0  0  0
M  END
> <PUBCHEM_COMPOUND_CID>
503320
> <PUBCHEM_COMPOUND_CANONICALIZED>
1
> <PUBCHEM_CACTVS_COMPLEXITY>
1530
> <PUBCHEM_CACTVS_HBOND_ACCEPTOR>
18
> <PUBCHEM_CACTVS_HBOND_DONOR>
3
> <PUBCHEM_CACTVS_ROTATABLE_BOND>
19
> <PUBCHEM_CACTVS_SUBSKEYS>
AAADcfB7vgBAAAAAAAAAAAAAAAAAASAAAAAkQAAAAAAAAAAAAAAAHgAQQAAACDzxgAcDCAPABACIACHWWDCAAAAAAgAIAIAIAEGTAAIAgAAvAAAPFyKWAMHwcA8AAAAAAAAAAAAAAAAAAAAAAAAAAAAAAA==
> <PUBCHEM_IUPAC_OPENEYE_NAME>
[(2R,3S,4R,5R,6R)-5-acetamido-3,4-diacetoxy-6-[[(2R,3R,4R,5R)-5-(2,4-dioxopyrimidin-1-yl)-3,4-diisopropoxy-tetrahydrofuran-2-yl]methoxysulfonylcarbamoyloxy]tetrahydropyran-2-yl]methyl acetate
> <PUBCHEM_IUPAC_CAS_NAME>
acetic acid [(2R,3S,4R,5R,6R)-5-acetamido-3,4-diacetyloxy-6-[[[(2R,3R,4R,5R)-5-(2,4-dioxo-1-pyrimidinyl)-3,4-di(propan-2-yloxy)-2-oxolanyl]methoxysulfonylamino]-oxomethoxy]-2-oxanyl]methyl ester
> <PUBCHEM_IUPAC_NAME_MARKUP>
[(2<I>R</I>,3<I>S</I>,4<I>R</I>,5<I>R</I>,6<I>R</I>)-5-acetamido-3,4-diacetyloxy-6-[[(2<I>R</I>,3<I>R</I>,4<I>R</I>,5<I>R</I>)-5-(2,4-dioxopyrimidin-1-yl)-3,4-di(propan-2-yloxy)oxolan-2-yl]methoxysulfonylcarbamoyloxy]oxan-2-yl]methyl acetate
> <PUBCHEM_IUPAC_NAME>
[(2R,3S,4R,5R,6R)-5-acetamido-3,4-diacetyloxy-6-[[(2R,3R,4R,5R)-5-(2,4-dioxopyrimidin-1-yl)-3,4-di(propan-2-yloxy)oxolan-2-yl]methoxysulfonylcarbamoyloxy]oxan-2-yl]methyl acetate
> <PUBCHEM_IUPAC_SYSTEMATIC_NAME>
[(2R,3S,4R,5R,6R)-5-acetamido-3,4-diacetyloxy-6-[[(2R,3R,4R,5R)-5-[2,4-bis(oxidanylidene)pyrimidin-1-yl]-3,4-di(propan-2-yloxy)oxolan-2-yl]methoxysulfonylcarbamoyloxy]oxan-2-yl]methyl ethanoate
> <PUBCHEM_IUPAC_TRADITIONAL_NAME>
acetic acid [(2R,3S,4R,5R,6R)-5-acetamido-3,4-diacetoxy-6-[[(2R,3R,4R,5R)-5-(2,4-diketopyrimidin-1-yl)-3,4-diisopropoxy-tetrahydrofuran-2-yl]methoxysulfonylcarbamoyloxy]tetrahydropyran-2-yl]methyl ester
> <PUBCHEM_IUPAC_INCHI>
InChI=1S/C30H44N4O18S/c1-13(2)46-24-20(50-27(26(24)47-14(3)4)34-10-9-21(39)32-29(34)40)12-45-53(42,43)33-30(41)52-28-22(31-15(5)35)25(49-18(8)38)23(48-17(7)37)19(51-28)11-44-16(6)36/h9-10,13-14,19-20,22-28H,11-12H2,1-8H3,(H,31,35)(H,33,41)(H,32,39,40)/t19-,20-,22-,23-,24-,25-,26-,27-,28-/m1/s1
> <PUBCHEM_IUPAC_INCHIKEY>
KPCNPXWNYPQKFP-RNVXOSBASA-N
> <PUBCHEM_XLOGP3_AA>
-1.1
> <PUBCHEM_EXACT_MASS>
780.23713174
> <PUBCHEM_MOLECULAR_FORMULA>
C30H44N4O18S
> <PUBCHEM_MOLECULAR_WEIGHT>
780.8
> <PUBCHEM_OPENEYE_CAN_SMILES>
CC(C)OC1C(OC(C1OC(C)C)N2C=CC(=O)NC2=O)COS(=O)(=O)NC(=O)OC3C(C(C(C(O3)COC(=O)C)OC(=O)C)OC(=O)C)NC(=O)C
> <PUBCHEM_OPENEYE_ISO_SMILES>
CC(C)O[C@@H]1[C@H](O[C@H]([C@@H]1OC(C)C)N2C=CC(=O)NC2=O)COS(=O)(=O)NC(=O)O[C@@H]3[C@@H]([C@H]([C@@H]([C@H](O3)COC(=O)C)OC(=O)C)OC(=O)C)NC(=O)C
> <PUBCHEM_CACTVS_TPSA>
284
> <PUBCHEM_MONOISOTOPIC_WEIGHT>
780.23713174
> <PUBCHEM_TOTAL_CHARGE>
0
> <PUBCHEM_HEAVY_ATOM_COUNT>
53
> <PUBCHEM_ATOM_DEF_STEREO_COUNT>
9
> <PUBCHEM_ATOM_UDEF_STEREO_COUNT>
0
> <PUBCHEM_BOND_DEF_STEREO_COUNT>
0
> <PUBCHEM_BOND_UDEF_STEREO_COUNT>
0
> <PUBCHEM_ISOTOPIC_ATOM_COUNT>
0
> <PUBCHEM_COMPONENT_COUNT>
1
> <PUBCHEM_CACTVS_TAUTO_COUNT>
-1
> <PUBCHEM_COORDINATE_TYPE>
1
5
255
> <PUBCHEM_BONDANNOTATIONS>
27  20  6
20  37  8
20  38  8
29  21  6
22  37  8
22  47  8
26  31  6
24  3  5
32  36  5
38  43  8
25  4  5
43  47  8
28  7  5
30  8  6
33  9  6
$$$$
