503313
  -OEChem-10302200282D
 33 34  0     1  0  0  0  0  0999 V2000
    5.4641    0.8815    0.0000 S   0  0  0  0  0  0  0  0  0  0  0  0
    4.5411   -0.7063    0.0000 O   0  0  0  0  0  0  0  0  0  0  0  0
    4.4131   -3.3799    0.0000 O   0  0  0  0  0  0  0  0  0  0  0  0
    3.7320    3.8815    0.0000 O   0  0  0  0  0  0  0  0  0  0  0  0
    3.7320    0.8815    0.0000 N   0  0  0  0  0  0  0  0  0  0  0  0
    4.5981    2.3815    0.0000 N   0  0  0  0  0  0  0  0  0  0  0  0
    3.7320   -0.1185    0.0000 C   0  0  1  0  0  0  0  0  0  0  0  0
    2.9230   -0.7063    0.0000 C   0  0  0  0  0  0  0  0  0  0  0  0
    3.2320   -1.6573    0.0000 C   0  0  0  0  0  0  0  0  0  0  0  0
    4.2320   -1.6573    0.0000 C   0  0  1  0  0  0  0  0  0  0  0  0
    4.8198   -2.4664    0.0000 C   0  0  0  0  0  0  0  0  0  0  0  0
    2.8660    1.3815    0.0000 C   0  0  0  0  0  0  0  0  0  0  0  0
    4.5981    1.3815    0.0000 C   0  0  0  0  0  0  0  0  0  0  0  0
    2.8660    2.3815    0.0000 C   0  0  0  0  0  0  0  0  0  0  0  0
    2.0000    0.8815    0.0000 C   0  0  0  0  0  0  0  0  0  0  0  0
    3.7320    2.8815    0.0000 C   0  0  0  0  0  0  0  0  0  0  0  0
    6.3301    1.3815    0.0000 C   0  0  0  0  0  0  0  0  0  0  0  0
    4.2845    0.1630    0.0000 H   0  0  0  0  0  0  0  0  0  0  0  0
    2.6130   -0.1694    0.0000 H   0  0  0  0  0  0  0  0  0  0  0  0
    2.3566   -0.9585    0.0000 H   0  0  0  0  0  0  0  0  0  0  0  0
    2.6256   -1.7862    0.0000 H   0  0  0  0  0  0  0  0  0  0  0  0
    3.2969   -2.2740    0.0000 H   0  0  0  0  0  0  0  0  0  0  0  0
    4.8444   -1.5603    0.0000 H   0  0  0  0  0  0  0  0  0  0  0  0
    5.3338   -2.8131    0.0000 H   0  0  0  0  0  0  0  0  0  0  0  0
    5.2505   -2.0204    0.0000 H   0  0  0  0  0  0  0  0  0  0  0  0
    2.3291    2.6915    0.0000 H   0  0  0  0  0  0  0  0  0  0  0  0
    1.6900    1.4184    0.0000 H   0  0  0  0  0  0  0  0  0  0  0  0
    1.4631    0.5715    0.0000 H   0  0  0  0  0  0  0  0  0  0  0  0
    2.3100    0.3446    0.0000 H   0  0  0  0  0  0  0  0  0  0  0  0
    4.7775   -3.8815    0.0000 H   0  0  0  0  0  0  0  0  0  0  0  0
    6.6401    0.8446    0.0000 H   0  0  0  0  0  0  0  0  0  0  0  0
    6.8671    1.6915    0.0000 H   0  0  0  0  0  0  0  0  0  0  0  0
    6.0201    1.9184    0.0000 H   0  0  0  0  0  0  0  0  0  0  0  0
  1 13  1  0  0  0  0
  1 17  1  0  0  0  0
  2  7  1  0  0  0  0
  2 10  1  0  0  0  0
  3 11  1  0  0  0  0
  3 30  1  0  0  0  0
  4 16  2  0  0  0  0
  7  5  1  6  0  0  0
  5 12  1  0  0  0  0
  5 13  1  0  0  0  0
  6 13  2  0  0  0  0
  6 16  1  0  0  0  0
  7  8  1  0  0  0  0
  7 18  1  0  0  0  0
  8  9  1  0  0  0  0
  8 19  1  0  0  0  0
  8 20  1  0  0  0  0
  9 10  1  0  0  0  0
  9 21  1  0  0  0  0
  9 22  1  0  0  0  0
 10 11  1  6  0  0  0
 10 23  1  0  0  0  0
 11 24  1  0  0  0  0
 11 25  1  0  0  0  0
 12 14  2  0  0  0  0
 12 15  1  0  0  0  0
 14 16  1  0  0  0  0
 14 26  1  0  0  0  0
 15 27  1  0  0  0  0
 15 28  1  0  0  0  0
 15 29  1  0  0  0  0
 17 31  1  0  0  0  0
 17 32  1  0  0  0  0
 17 33  1  0  0  0  0
M  END
> <PUBCHEM_COMPOUND_CID>
503313
> <PUBCHEM_COMPOUND_CANONICALIZED>
1
> <PUBCHEM_CACTVS_COMPLEXITY>
381
> <PUBCHEM_CACTVS_HBOND_ACCEPTOR>
4
> <PUBCHEM_CACTVS_HBOND_DONOR>
1
> <PUBCHEM_CACTVS_ROTATABLE_BOND>
3
> <PUBCHEM_CACTVS_SUBSKEYS>
AAADceBzMABAAAAAAAAAAAAAAAAAASAAAAAgAAAAAAAAAAAAAAAAHgQACAAACBzhgAaDAAMABgioACVSdACAEAFAAgABCAAIAEABEAIAiQAOQAAEAACDAUCwMAIAAAAAAAAAAAAAAAAAAAAAAAAAAAAAAA==
> <PUBCHEM_IUPAC_OPENEYE_NAME>
1-[(2R,5S)-5-(hydroxymethyl)tetrahydrofuran-2-yl]-6-methyl-2-methylsulfanyl-pyrimidin-4-one
> <PUBCHEM_IUPAC_CAS_NAME>
1-[(2R,5S)-5-(hydroxymethyl)-2-oxolanyl]-6-methyl-2-(methylthio)-4-pyrimidinone
> <PUBCHEM_IUPAC_NAME_MARKUP>
1-[(2<I>R</I>,5<I>S</I>)-5-(hydroxymethyl)oxolan-2-yl]-6-methyl-2-methylsulfanylpyrimidin-4-one
> <PUBCHEM_IUPAC_NAME>
1-[(2R,5S)-5-(hydroxymethyl)oxolan-2-yl]-6-methyl-2-methylsulfanylpyrimidin-4-one
> <PUBCHEM_IUPAC_SYSTEMATIC_NAME>
1-[(2R,5S)-5-(hydroxymethyl)oxolan-2-yl]-6-methyl-2-methylsulfanyl-pyrimidin-4-one
> <PUBCHEM_IUPAC_TRADITIONAL_NAME>
6-methyl-1-[(2R,5S)-5-methyloltetrahydrofuran-2-yl]-2-(methylthio)pyrimidin-4-one
> <PUBCHEM_IUPAC_INCHI>
InChI=1S/C11H16N2O3S/c1-7-5-9(15)12-11(17-2)13(7)10-4-3-8(6-14)16-10/h5,8,10,14H,3-4,6H2,1-2H3/t8-,10+/m0/s1
> <PUBCHEM_IUPAC_INCHIKEY>
RDBXPJKAQKENNT-WCBMZHEXSA-N
> <PUBCHEM_XLOGP3_AA>
0.7
> <PUBCHEM_EXACT_MASS>
256.08816355
> <PUBCHEM_MOLECULAR_FORMULA>
C11H16N2O3S
> <PUBCHEM_MOLECULAR_WEIGHT>
256.32
> <PUBCHEM_OPENEYE_CAN_SMILES>
CC1=CC(=O)N=C(N1C2CCC(O2)CO)SC
> <PUBCHEM_OPENEYE_ISO_SMILES>
CC1=CC(=O)N=C(N1[C@H]2CC[C@H](O2)CO)SC
> <PUBCHEM_CACTVS_TPSA>
87.4
> <PUBCHEM_MONOISOTOPIC_WEIGHT>
256.08816355
> <PUBCHEM_TOTAL_CHARGE>
0
> <PUBCHEM_HEAVY_ATOM_COUNT>
17
> <PUBCHEM_ATOM_DEF_STEREO_COUNT>
2
> <PUBCHEM_ATOM_UDEF_STEREO_COUNT>
0
> <PUBCHEM_BOND_DEF_STEREO_COUNT>
0
> <PUBCHEM_BOND_UDEF_STEREO_COUNT>
0
> <PUBCHEM_ISOTOPIC_ATOM_COUNT>
0
> <PUBCHEM_COMPONENT_COUNT>
1
> <PUBCHEM_CACTVS_TAUTO_COUNT>
-1
> <PUBCHEM_COORDINATE_TYPE>
1
5
255
> <PUBCHEM_BONDANNOTATIONS>
10  11  6
12  14  8
14  16  8
5  12  8
5  13  8
7  5  6
6  13  8
6  16  8
$$$$
