503418
  -OEChem-10302200282D
 42 44  0     1  0  0  0  0  0999 V2000
    7.5748   -0.9404    0.0000 O   0  0  0  0  0  0  0  0  0  0  0  0
    5.0344   -1.4321    0.0000 O   0  0  0  0  0  0  0  0  0  0  0  0
    6.3074   -3.1963    0.0000 O   0  0  0  0  0  0  0  0  0  0  0  0
    9.2936   -2.1270    0.0000 O   0  0  0  0  0  0  0  0  0  0  0  0
    4.8278    3.2344    0.0000 O   0  0  0  0  0  0  0  0  0  0  0  0
    6.3189    0.3238    0.0000 N   0  0  0  0  0  0  0  0  0  0  0  0
    4.5893    0.0137    0.0000 N   0  0  0  0  0  0  0  0  0  0  0  0
    6.3269    1.9333    0.0000 N   0  0  0  0  0  0  0  0  0  0  0  0
    3.1861    1.1442    0.0000 N   0  0  0  0  0  0  0  0  0  0  0  0
    6.6248   -0.6282    0.0000 C   0  0  2  0  0  0  0  0  0  0  0  0
    6.0344   -1.4353    0.0000 C   0  0  2  0  0  0  0  0  0  0  0  0
    6.6195   -2.2463    0.0000 C   0  0  2  0  0  0  0  0  0  0  0  0
    7.5716   -1.9404    0.0000 C   0  0  2  0  0  0  0  0  0  0  0  0
    5.3742    0.6333    0.0000 C   0  0  0  0  0  0  0  0  0  0  0  0
    8.3787   -2.5308    0.0000 C   0  0  0  0  0  0  0  0  0  0  0  0
    5.3792    1.6332    0.0000 C   0  0  0  0  0  0  0  0  0  0  0  0
    6.9065    1.1256    0.0000 C   0  0  0  0  0  0  0  0  0  0  0  0
    4.6005    2.2606    0.0000 C   0  0  1  0  0  0  0  0  0  0  0  0
    3.6244    2.0430    0.0000 C   0  0  0  0  0  0  0  0  0  0  0  0
    3.6155    0.2411    0.0000 C   0  0  0  0  0  0  0  0  0  0  0  0
    2.9881   -0.5377    0.0000 C   0  0  0  0  0  0  0  0  0  0  0  0
    2.0000   -0.3837    0.0000 C   0  0  0  0  0  0  0  0  0  0  0  0
    7.0646   -0.1913    0.0000 H   0  0  0  0  0  0  0  0  0  0  0  0
    5.7511   -1.9868    0.0000 H   0  0  0  0  0  0  0  0  0  0  0  0
    7.0565   -2.6861    0.0000 H   0  0  0  0  0  0  0  0  0  0  0  0
    8.1249   -1.6607    0.0000 H   0  0  0  0  0  0  0  0  0  0  0  0
    7.9313   -2.9600    0.0000 H   0  0  0  0  0  0  0  0  0  0  0  0
    8.7237   -3.0459    0.0000 H   0  0  0  0  0  0  0  0  0  0  0  0
    7.5265    1.1225    0.0000 H   0  0  0  0  0  0  0  0  0  0  0  0
    4.7226   -1.9680    0.0000 H   0  0  0  0  0  0  0  0  0  0  0  0
    4.1642    2.7012    0.0000 H   0  0  0  0  0  0  0  0  0  0  0  0
    6.7208   -3.6584    0.0000 H   0  0  0  0  0  0  0  0  0  0  0  0
    4.7242   -0.5915    0.0000 H   0  0  0  0  0  0  0  0  0  0  0  0
    3.6275    2.6630    0.0000 H   0  0  0  0  0  0  0  0  0  0  0  0
    3.0207    2.1840    0.0000 H   0  0  0  0  0  0  0  0  0  0  0  0
    9.7940   -2.4931    0.0000 H   0  0  0  0  0  0  0  0  0  0  0  0
    2.7877   -1.1244    0.0000 H   0  0  0  0  0  0  0  0  0  0  0  0
    3.5311   -0.8369    0.0000 H   0  0  0  0  0  0  0  0  0  0  0  0
    4.3755    3.6584    0.0000 H   0  0  0  0  0  0  0  0  0  0  0  0
    2.0955    0.2289    0.0000 H   0  0  0  0  0  0  0  0  0  0  0  0
    1.3874   -0.2882    0.0000 H   0  0  0  0  0  0  0  0  0  0  0  0
    1.9045   -0.9963    0.0000 H   0  0  0  0  0  0  0  0  0  0  0  0
  1 10  1  0  0  0  0
  1 13  1  0  0  0  0
 11  2  1  6  0  0  0
  2 30  1  0  0  0  0
 12  3  1  6  0  0  0
  3 32  1  0  0  0  0
  4 15  1  0  0  0  0
  4 36  1  0  0  0  0
 18  5  1  1  0  0  0
  5 39  1  0  0  0  0
 10  6  1  1  0  0  0
  6 14  1  0  0  0  0
  6 17  1  0  0  0  0
  7 14  1  0  0  0  0
  7 20  1  0  0  0  0
  7 33  1  0  0  0  0
  8 16  1  0  0  0  0
  8 17  2  0  0  0  0
  9 19  1  0  0  0  0
  9 20  2  0  0  0  0
 10 11  1  0  0  0  0
 10 23  1  0  0  0  0
 11 12  1  0  0  0  0
 11 24  1  0  0  0  0
 12 13  1  0  0  0  0
 12 25  1  0  0  0  0
 13 15  1  1  0  0  0
 13 26  1  0  0  0  0
 14 16  2  0  0  0  0
 15 27  1  0  0  0  0
 15 28  1  0  0  0  0
 16 18  1  0  0  0  0
 17 29  1  0  0  0  0
 18 19  1  0  0  0  0
 18 31  1  0  0  0  0
 19 34  1  0  0  0  0
 19 35  1  0  0  0  0
 20 21  1  0  0  0  0
 21 22  1  0  0  0  0
 21 37  1  0  0  0  0
 21 38  1  0  0  0  0
 22 40  1  0  0  0  0
 22 41  1  0  0  0  0
 22 42  1  0  0  0  0
M  END
> <PUBCHEM_COMPOUND_CID>
503418
> <PUBCHEM_COMPOUND_CANONICALIZED>
1
> <PUBCHEM_CACTVS_COMPLEXITY>
437
> <PUBCHEM_CACTVS_HBOND_ACCEPTOR>
7
> <PUBCHEM_CACTVS_HBOND_DONOR>
5
> <PUBCHEM_CACTVS_ROTATABLE_BOND>
3
> <PUBCHEM_CACTVS_SUBSKEYS>
AAADceBzuAAAAAAAAAAAAAAAAAAAAWJAAAAAAAAABAAAAACBgAAAHgAQCAAACBzhlgYHsBfMFgCgAQZhZAQAgC0xEKABUAA4WAiDfAJAyAEeQAAPEALTUCDwMAIAAAAAAAAAAAAAAAAAAAAAAAAAAAAAAA==
> <PUBCHEM_IUPAC_OPENEYE_NAME>
(2S,3S,4R,5S)-2-[(8R)-5-ethyl-8-hydroxy-7,8-dihydro-4H-imidazo[4,5-d][1,3]diazepin-3-yl]-5-(hydroxymethyl)tetrahydrofuran-3,4-diol
> <PUBCHEM_IUPAC_CAS_NAME>
(2S,3S,4R,5S)-2-[(8R)-5-ethyl-8-hydroxy-7,8-dihydro-4H-imidazo[4,5-d][1,3]diazepin-3-yl]-5-(hydroxymethyl)oxolane-3,4-diol
> <PUBCHEM_IUPAC_NAME_MARKUP>
(2<I>S</I>,3<I>S</I>,4<I>R</I>,5<I>S</I>)-2-[(8<I>R</I>)-5-ethyl-8-hydroxy-7,8-dihydro-4<I>H</I>-imidazo[4,5-d][1,3]diazepin-3-yl]-5-(hydroxymethyl)oxolane-3,4-diol
> <PUBCHEM_IUPAC_NAME>
(2S,3S,4R,5S)-2-[(8R)-5-ethyl-8-hydroxy-7,8-dihydro-4H-imidazo[4,5-d][1,3]diazepin-3-yl]-5-(hydroxymethyl)oxolane-3,4-diol
> <PUBCHEM_IUPAC_SYSTEMATIC_NAME>
(2S,3S,4R,5S)-2-[(8R)-5-ethyl-8-oxidanyl-7,8-dihydro-4H-imidazo[4,5-d][1,3]diazepin-3-yl]-5-(hydroxymethyl)oxolane-3,4-diol
> <PUBCHEM_IUPAC_TRADITIONAL_NAME>
(2S,3S,4R,5S)-2-[(8R)-5-ethyl-8-hydroxy-7,8-dihydro-4H-imidazo[4,5-d][1,3]diazepin-3-yl]-5-methylol-tetrahydrofuran-3,4-diol
> <PUBCHEM_IUPAC_INCHI>
InChI=1S/C13H20N4O5/c1-2-8-14-3-6(19)9-12(16-8)17(5-15-9)13-11(21)10(20)7(4-18)22-13/h5-7,10-11,13,18-21H,2-4H2,1H3,(H,14,16)/t6-,7+,10+,11+,13+/m1/s1
> <PUBCHEM_IUPAC_INCHIKEY>
CJSIKVBNBHYYQK-KUXIJVSFSA-N
> <PUBCHEM_XLOGP3_AA>
-2.7
> <PUBCHEM_EXACT_MASS>
312.14336975
> <PUBCHEM_MOLECULAR_FORMULA>
C13H20N4O5
> <PUBCHEM_MOLECULAR_WEIGHT>
312.32
> <PUBCHEM_OPENEYE_CAN_SMILES>
CCC1=NCC(C2=C(N1)N(C=N2)C3C(C(C(O3)CO)O)O)O
> <PUBCHEM_OPENEYE_ISO_SMILES>
CCC1=NC[C@H](C2=C(N1)N(C=N2)[C@@H]3[C@H]([C@H]([C@@H](O3)CO)O)O)O
> <PUBCHEM_CACTVS_TPSA>
132
> <PUBCHEM_MONOISOTOPIC_WEIGHT>
312.14336975
> <PUBCHEM_TOTAL_CHARGE>
0
> <PUBCHEM_HEAVY_ATOM_COUNT>
22
> <PUBCHEM_ATOM_DEF_STEREO_COUNT>
5
> <PUBCHEM_ATOM_UDEF_STEREO_COUNT>
0
> <PUBCHEM_BOND_DEF_STEREO_COUNT>
0
> <PUBCHEM_BOND_UDEF_STEREO_COUNT>
0
> <PUBCHEM_ISOTOPIC_ATOM_COUNT>
0
> <PUBCHEM_COMPONENT_COUNT>
1
> <PUBCHEM_CACTVS_TAUTO_COUNT>
-1
> <PUBCHEM_COORDINATE_TYPE>
1
5
255
> <PUBCHEM_BONDANNOTATIONS>
13  15  5
14  16  8
11  2  6
12  3  6
18  5  5
10  6  5
6  14  8
6  17  8
8  16  8
8  17  8
$$$$
