503419
  -OEChem-10302200282D
 36 38  0     1  0  0  0  0  0999 V2000
    3.8483   -1.4321    0.0000 O   0  0  0  0  0  0  0  0  0  0  0  0
    5.1213   -3.1963    0.0000 O   0  0  0  0  0  0  0  0  0  0  0  0
    8.1075   -2.1270    0.0000 O   0  0  0  0  0  0  0  0  0  0  0  0
    3.6418    3.2344    0.0000 O   0  0  0  0  0  0  0  0  0  0  0  0
    5.1328    0.3238    0.0000 N   0  0  0  0  0  0  0  0  0  0  0  0
    5.1408    1.9333    0.0000 N   0  0  0  0  0  0  0  0  0  0  0  0
    3.4032    0.0137    0.0000 N   0  0  0  0  0  0  0  0  0  0  0  0
    2.0000    1.1442    0.0000 N   0  0  0  0  0  0  0  0  0  0  0  0
    5.4387   -0.6282    0.0000 C   0  0  1  0  0  0  0  0  0  0  0  0
    4.8483   -1.4353    0.0000 C   0  0  1  0  0  0  0  0  0  0  0  0
    5.4335   -2.2463    0.0000 C   0  0  1  0  0  0  0  0  0  0  0  0
    6.3855   -1.9404    0.0000 C   0  0  0  0  0  0  0  0  0  0  0  0
    6.3888   -0.9404    0.0000 C   0  0  0  0  0  0  0  0  0  0  0  0
    4.1881    0.6333    0.0000 C   0  0  0  0  0  0  0  0  0  0  0  0
    4.1931    1.6332    0.0000 C   0  0  0  0  0  0  0  0  0  0  0  0
    5.7204    1.1256    0.0000 C   0  0  0  0  0  0  0  0  0  0  0  0
    7.1926   -2.5308    0.0000 C   0  0  0  0  0  0  0  0  0  0  0  0
    3.4144    2.2606    0.0000 C   0  0  3  0  0  0  0  0  0  0  0  0
    2.4384    2.0430    0.0000 C   0  0  0  0  0  0  0  0  0  0  0  0
    2.4294    0.2411    0.0000 C   0  0  0  0  0  0  0  0  0  0  0  0
    5.8786   -0.1913    0.0000 H   0  0  0  0  0  0  0  0  0  0  0  0
    4.5650   -1.9868    0.0000 H   0  0  0  0  0  0  0  0  0  0  0  0
    5.8704   -2.6861    0.0000 H   0  0  0  0  0  0  0  0  0  0  0  0
    6.8916   -0.5776    0.0000 H   0  0  0  0  0  0  0  0  0  0  0  0
    6.3404    1.1225    0.0000 H   0  0  0  0  0  0  0  0  0  0  0  0
    6.7452   -2.9600    0.0000 H   0  0  0  0  0  0  0  0  0  0  0  0
    7.5376   -3.0459    0.0000 H   0  0  0  0  0  0  0  0  0  0  0  0
    2.9782    2.7012    0.0000 H   0  0  0  0  0  0  0  0  0  0  0  0
    3.5366   -1.9680    0.0000 H   0  0  0  0  0  0  0  0  0  0  0  0
    5.5347   -3.6584    0.0000 H   0  0  0  0  0  0  0  0  0  0  0  0
    3.5381   -0.5915    0.0000 H   0  0  0  0  0  0  0  0  0  0  0  0
    2.4415    2.6630    0.0000 H   0  0  0  0  0  0  0  0  0  0  0  0
    1.8346    2.1840    0.0000 H   0  0  0  0  0  0  0  0  0  0  0  0
    2.0404   -0.2417    0.0000 H   0  0  0  0  0  0  0  0  0  0  0  0
    8.6079   -2.4931    0.0000 H   0  0  0  0  0  0  0  0  0  0  0  0
    3.1894    3.6584    0.0000 H   0  0  0  0  0  0  0  0  0  0  0  0
 10  1  1  1  0  0  0
  1 29  1  0  0  0  0
 11  2  1  1  0  0  0
  2 30  1  0  0  0  0
  3 17  1  0  0  0  0
  3 35  1  0  0  0  0
  4 18  1  0  0  0  0
  4 36  1  0  0  0  0
  9  5  1  6  0  0  0
  5 14  1  0  0  0  0
  5 16  1  0  0  0  0
  6 15  1  0  0  0  0
  6 16  2  0  0  0  0
  7 14  1  0  0  0  0
  7 20  1  0  0  0  0
  7 31  1  0  0  0  0
  8 19  1  0  0  0  0
  8 20  2  0  0  0  0
  9 10  1  0  0  0  0
  9 13  1  0  0  0  0
  9 21  1  0  0  0  0
 10 11  1  0  0  0  0
 10 22  1  0  0  0  0
 11 12  1  0  0  0  0
 11 23  1  0  0  0  0
 12 13  2  0  0  0  0
 12 17  1  0  0  0  0
 13 24  1  0  0  0  0
 14 15  2  0  0  0  0
 15 18  1  0  0  0  0
 16 25  1  0  0  0  0
 17 26  1  0  0  0  0
 17 27  1  0  0  0  0
 18 19  1  0  0  0  0
 18 28  1  0  0  0  0
 19 32  1  0  0  0  0
 19 33  1  0  0  0  0
 20 34  1  0  0  0  0
M  END
> <PUBCHEM_COMPOUND_CID>
503419
> <PUBCHEM_COMPOUND_CANONICALIZED>
1
> <PUBCHEM_CACTVS_COMPLEXITY>
430
> <PUBCHEM_CACTVS_HBOND_ACCEPTOR>
6
> <PUBCHEM_CACTVS_HBOND_DONOR>
5
> <PUBCHEM_CACTVS_ROTATABLE_BOND>
2
> <PUBCHEM_CACTVS_SUBSKEYS>
AAADceBzuAAAAAAAAAAAAAAAAAAAAWIAAAAAAAAABAAAAACBgAAAHgAQCAAADDzhlgYFsBfMEgCgAyZjZASAgC0xEKABWIA4WAiDfAJAyQEUUAAPwALZUCPQUAMAAAAAAAAAAAAAAAAAAAAAAAAAAAAAAA==
> <PUBCHEM_IUPAC_OPENEYE_NAME>
(1S,2R,5R)-5-(8-hydroxy-7,8-dihydro-4H-imidazo[4,5-d][1,3]diazepin-3-yl)-3-(hydroxymethyl)cyclopent-3-ene-1,2-diol
> <PUBCHEM_IUPAC_CAS_NAME>
(1S,2R,5R)-5-(8-hydroxy-7,8-dihydro-4H-imidazo[4,5-d][1,3]diazepin-3-yl)-3-(hydroxymethyl)cyclopent-3-ene-1,2-diol
> <PUBCHEM_IUPAC_NAME_MARKUP>
(1<I>S</I>,2<I>R</I>,5<I>R</I>)-5-(8-hydroxy-7,8-dihydro-4<I>H</I>-imidazo[4,5-d][1,3]diazepin-3-yl)-3-(hydroxymethyl)cyclopent-3-ene-1,2-diol
> <PUBCHEM_IUPAC_NAME>
(1S,2R,5R)-5-(8-hydroxy-7,8-dihydro-4H-imidazo[4,5-d][1,3]diazepin-3-yl)-3-(hydroxymethyl)cyclopent-3-ene-1,2-diol
> <PUBCHEM_IUPAC_SYSTEMATIC_NAME>
(1S,2R,5R)-3-(hydroxymethyl)-5-(8-oxidanyl-7,8-dihydro-4H-imidazo[4,5-d][1,3]diazepin-3-yl)cyclopent-3-ene-1,2-diol
> <PUBCHEM_IUPAC_TRADITIONAL_NAME>
(1S,2R,5R)-5-(8-hydroxy-7,8-dihydro-4H-imidazo[4,5-d][1,3]diazepin-3-yl)-3-methylol-cyclopent-3-ene-1,2-diol
> <PUBCHEM_IUPAC_INCHI>
InChI=1S/C12H16N4O4/c17-3-6-1-7(11(20)10(6)19)16-5-15-9-8(18)2-13-4-14-12(9)16/h1,4-5,7-8,10-11,17-20H,2-3H2,(H,13,14)/t7-,8?,10-,11+/m1/s1
> <PUBCHEM_IUPAC_INCHIKEY>
WJSAFKJWCOMTLH-IKBIKEAHSA-N
> <PUBCHEM_XLOGP3_AA>
-3.3
> <PUBCHEM_EXACT_MASS>
280.11715500
> <PUBCHEM_MOLECULAR_FORMULA>
C12H16N4O4
> <PUBCHEM_MOLECULAR_WEIGHT>
280.28
> <PUBCHEM_OPENEYE_CAN_SMILES>
C1C(C2=C(NC=N1)N(C=N2)C3C=C(C(C3O)O)CO)O
> <PUBCHEM_OPENEYE_ISO_SMILES>
C1C(C2=C(NC=N1)N(C=N2)[C@@H]3C=C([C@H]([C@H]3O)O)CO)O
> <PUBCHEM_CACTVS_TPSA>
123
> <PUBCHEM_MONOISOTOPIC_WEIGHT>
280.11715500
> <PUBCHEM_TOTAL_CHARGE>
0
> <PUBCHEM_HEAVY_ATOM_COUNT>
20
> <PUBCHEM_ATOM_DEF_STEREO_COUNT>
3
> <PUBCHEM_ATOM_UDEF_STEREO_COUNT>
1
> <PUBCHEM_BOND_DEF_STEREO_COUNT>
0
> <PUBCHEM_BOND_UDEF_STEREO_COUNT>
0
> <PUBCHEM_ISOTOPIC_ATOM_COUNT>
0
> <PUBCHEM_COMPONENT_COUNT>
1
> <PUBCHEM_CACTVS_TAUTO_COUNT>
-1
> <PUBCHEM_COORDINATE_TYPE>
1
5
255
> <PUBCHEM_BONDANNOTATIONS>
10  1  5
14  15  8
11  2  5
18  4  3
5  14  8
5  16  8
9  5  6
6  15  8
6  16  8
$$$$
