503407
  -OEChem-10302200282D
 32 33  0     1  0  0  0  0  0999 V2000
    5.6103   -2.3792    0.0000 O   0  0  0  0  0  0  0  0  0  0  0  0
    8.5458   -2.9978    0.0000 O   0  0  0  0  0  0  0  0  0  0  0  0
    4.6783    0.4724    0.0000 N   0  0  0  0  0  0  0  0  0  0  0  0
    4.6783    2.0819    0.0000 N   0  0  0  0  0  0  0  0  0  0  0  0
    2.8660    0.2771    0.0000 N   0  0  0  0  0  0  0  0  0  0  0  0
    2.0000    1.7771    0.0000 N   0  0  0  0  0  0  0  0  0  0  0  0
    2.8660    3.2771    0.0000 N   0  0  0  0  0  0  0  0  0  0  0  0
    5.9674   -0.6843    0.0000 C   0  0  0  0  0  0  0  0  0  0  0  0
    6.2781   -1.6349    0.0000 C   0  0  1  0  0  0  0  0  0  0  0  0
    4.9889   -0.4781    0.0000 C   0  0  0  0  0  0  0  0  0  0  0  0
    7.2566   -1.8411    0.0000 C   0  0  0  0  0  0  0  0  0  0  0  0
    3.7320    0.7771    0.0000 C   0  0  0  0  0  0  0  0  0  0  0  0
    7.5673   -2.7916    0.0000 C   0  0  0  0  0  0  0  0  0  0  0  0
    5.2619    1.2771    0.0000 C   0  0  0  0  0  0  0  0  0  0  0  0
    3.7320    1.7771    0.0000 C   0  0  0  0  0  0  0  0  0  0  0  0
    2.8660    2.2771    0.0000 C   0  0  0  0  0  0  0  0  0  0  0  0
    2.0000    0.7771    0.0000 C   0  0  0  0  0  0  0  0  0  0  0  0
    6.5812   -0.5970    0.0000 H   0  0  0  0  0  0  0  0  0  0  0  0
    5.9880   -0.0647    0.0000 H   0  0  0  0  0  0  0  0  0  0  0  0
    5.6714   -1.5070    0.0000 H   0  0  0  0  0  0  0  0  0  0  0  0
    4.3751   -0.5655    0.0000 H   0  0  0  0  0  0  0  0  0  0  0  0
    4.9684   -1.0978    0.0000 H   0  0  0  0  0  0  0  0  0  0  0  0
    7.8704   -1.7537    0.0000 H   0  0  0  0  0  0  0  0  0  0  0  0
    7.2772   -1.2214    0.0000 H   0  0  0  0  0  0  0  0  0  0  0  0
    6.9534   -2.8789    0.0000 H   0  0  0  0  0  0  0  0  0  0  0  0
    7.5467   -3.4112    0.0000 H   0  0  0  0  0  0  0  0  0  0  0  0
    5.8819    1.2771    0.0000 H   0  0  0  0  0  0  0  0  0  0  0  0
    5.8029   -2.9685    0.0000 H   0  0  0  0  0  0  0  0  0  0  0  0
    1.4631    0.4671    0.0000 H   0  0  0  0  0  0  0  0  0  0  0  0
    8.7384   -3.5871    0.0000 H   0  0  0  0  0  0  0  0  0  0  0  0
    2.3291    3.5871    0.0000 H   0  0  0  0  0  0  0  0  0  0  0  0
    3.4030    3.5871    0.0000 H   0  0  0  0  0  0  0  0  0  0  0  0
  9  1  1  1  0  0  0
  1 28  1  0  0  0  0
  2 13  1  0  0  0  0
  2 30  1  0  0  0  0
  3 10  1  0  0  0  0
  3 12  1  0  0  0  0
  3 14  1  0  0  0  0
  4 14  2  0  0  0  0
  4 15  1  0  0  0  0
  5 12  2  0  0  0  0
  5 17  1  0  0  0  0
  6 16  1  0  0  0  0
  6 17  2  0  0  0  0
  7 16  1  0  0  0  0
  7 31  1  0  0  0  0
  7 32  1  0  0  0  0
  8  9  1  0  0  0  0
  8 10  1  0  0  0  0
  8 18  1  0  0  0  0
  8 19  1  0  0  0  0
  9 11  1  0  0  0  0
  9 20  1  0  0  0  0
 10 21  1  0  0  0  0
 10 22  1  0  0  0  0
 11 13  1  0  0  0  0
 11 23  1  0  0  0  0
 11 24  1  0  0  0  0
 12 15  1  0  0  0  0
 13 25  1  0  0  0  0
 13 26  1  0  0  0  0
 14 27  1  0  0  0  0
 15 16  2  0  0  0  0
 17 29  1  0  0  0  0
M  END
> <PUBCHEM_COMPOUND_CID>
503407
> <PUBCHEM_COMPOUND_CANONICALIZED>
1
> <PUBCHEM_CACTVS_COMPLEXITY>
243
> <PUBCHEM_CACTVS_HBOND_ACCEPTOR>
6
> <PUBCHEM_CACTVS_HBOND_DONOR>
3
> <PUBCHEM_CACTVS_ROTATABLE_BOND>
5
> <PUBCHEM_CACTVS_SUBSKEYS>
AAADccBzsAAAAAAAAAAAAAAAAAAAAWAAAAAsAAAAAAAAAFgB+AAAHgAQCAAACBzhlwYF8L9MEgCgAQZhZACAgC0REKABUCAoVBCAWAJAyEAURAgPAALAACCQEAIAAAAAAAAAAAAAAAAAAAAAAAAAAAAAAA==
> <PUBCHEM_IUPAC_OPENEYE_NAME>
(3S)-5-(6-aminopurin-9-yl)pentane-1,3-diol
> <PUBCHEM_IUPAC_CAS_NAME>
(3S)-5-(6-aminopurin-9-yl)pentane-1,3-diol
> <PUBCHEM_IUPAC_NAME_MARKUP>
(3<I>S</I>)-5-(6-aminopurin-9-yl)pentane-1,3-diol
> <PUBCHEM_IUPAC_NAME>
(3S)-5-(6-aminopurin-9-yl)pentane-1,3-diol
> <PUBCHEM_IUPAC_SYSTEMATIC_NAME>
(3S)-5-(6-aminopurin-9-yl)pentane-1,3-diol
> <PUBCHEM_IUPAC_TRADITIONAL_NAME>
(3S)-5-adenin-9-ylpentane-1,3-diol
> <PUBCHEM_IUPAC_INCHI>
InChI=1S/C10H15N5O2/c11-9-8-10(13-5-12-9)15(6-14-8)3-1-7(17)2-4-16/h5-7,16-17H,1-4H2,(H2,11,12,13)/t7-/m0/s1
> <PUBCHEM_IUPAC_INCHIKEY>
UTJYYNFDADPPHB-ZETCQYMHSA-N
> <PUBCHEM_XLOGP3>
-0.7
> <PUBCHEM_EXACT_MASS>
237.12257474
> <PUBCHEM_MOLECULAR_FORMULA>
C10H15N5O2
> <PUBCHEM_MOLECULAR_WEIGHT>
237.26
> <PUBCHEM_OPENEYE_CAN_SMILES>
C1=NC(=C2C(=N1)N(C=N2)CCC(CCO)O)N
> <PUBCHEM_OPENEYE_ISO_SMILES>
C1=NC(=C2C(=N1)N(C=N2)CC[C@@H](CCO)O)N
> <PUBCHEM_CACTVS_TPSA>
110
> <PUBCHEM_MONOISOTOPIC_WEIGHT>
237.12257474
> <PUBCHEM_TOTAL_CHARGE>
0
> <PUBCHEM_HEAVY_ATOM_COUNT>
17
> <PUBCHEM_ATOM_DEF_STEREO_COUNT>
1
> <PUBCHEM_ATOM_UDEF_STEREO_COUNT>
0
> <PUBCHEM_BOND_DEF_STEREO_COUNT>
0
> <PUBCHEM_BOND_UDEF_STEREO_COUNT>
0
> <PUBCHEM_ISOTOPIC_ATOM_COUNT>
0
> <PUBCHEM_COMPONENT_COUNT>
1
> <PUBCHEM_CACTVS_TAUTO_COUNT>
-1
> <PUBCHEM_COORDINATE_TYPE>
1
5
255
> <PUBCHEM_BONDANNOTATIONS>
9  1  5
12  15  8
15  16  8
3  12  8
3  14  8
4  14  8
4  15  8
5  12  8
5  17  8
6  16  8
6  17  8
$$$$
