503476
  -OEChem-10302200282D
142145  0     1  0  0  0  0  0999 V2000
   11.5263    3.8100    0.0000 S   0  0  0  0  0  0  0  0  0  0  0  0
   12.3923    1.3100    0.0000 O   0  0  0  0  0  0  0  0  0  0  0  0
   11.5263   -2.1900    0.0000 O   0  0  0  0  0  0  0  0  0  0  0  0
    8.0622   -3.1900    0.0000 O   0  0  0  0  0  0  0  0  0  0  0  0
    8.9282    2.3100    0.0000 O   0  0  0  0  0  0  0  0  0  0  0  0
    8.0622    0.8100    0.0000 O   0  0  0  0  0  0  0  0  0  0  0  0
   10.6603    4.3100    0.0000 O   0  0  0  0  0  0  0  0  0  0  0  0
    7.1962   -0.6900    0.0000 O   0  0  0  0  0  0  0  0  0  0  0  0
    7.1962   -3.6900    0.0000 O   0  0  0  0  0  0  0  0  0  0  0  0
    4.5981   -6.1900    0.0000 O   0  0  0  0  0  0  0  0  0  0  0  0
    4.5981   -8.1900    0.0000 O   0  0  0  0  0  0  0  0  0  0  0  0
    6.3301   -8.1900    0.0000 O   0  0  0  0  0  0  0  0  0  0  0  0
    2.8660   -2.1900    0.0000 O   0  0  0  0  0  0  0  0  0  0  0  0
    2.0000   -3.6900    0.0000 O   0  0  0  0  0  0  0  0  0  0  0  0
    3.7320   -6.6900    0.0000 O   0  0  0  0  0  0  0  0  0  0  0  0
   10.6603   -0.6900    0.0000 N   0  0  0  0  0  0  0  0  0  0  0  0
   10.6603    1.3100    0.0000 N   0  0  0  0  0  0  0  0  0  0  0  0
    9.7942   -3.1900    0.0000 N   0  0  0  0  0  0  0  0  0  0  0  0
    8.0622   -5.1900    0.0000 N   0  0  0  0  0  0  0  0  0  0  0  0
    8.9282    4.3100    0.0000 N   0  0  0  0  0  0  0  0  0  0  0  0
    5.4641   -4.6900    0.0000 N   0  0  0  0  0  0  0  0  0  0  0  0
    2.8660   -5.1900    0.0000 N   0  0  0  0  0  0  0  0  0  0  0  0
   13.2583   -0.1900    0.0000 C   0  0  0  0  0  0  0  0  0  0  0  0
   13.2583    0.8100    0.0000 C   0  0  0  0  0  0  0  0  0  0  0  0
   14.1244   -0.6900    0.0000 C   0  0  0  0  0  0  0  0  0  0  0  0
   14.1244    1.3100    0.0000 C   0  0  0  0  0  0  0  0  0  0  0  0
   14.9904   -0.1900    0.0000 C   0  0  0  0  0  0  0  0  0  0  0  0
   12.3923   -0.6900    0.0000 C   0  0  0  0  0  0  0  0  0  0  0  0
   14.9904    0.8100    0.0000 C   0  0  0  0  0  0  0  0  0  0  0  0
   11.5263   -0.1900    0.0000 C   0  0  1  0  0  0  0  0  0  0  0  0
   11.5263    0.8100    0.0000 C   0  0  0  0  0  0  0  0  0  0  0  0
   10.6603   -1.6900    0.0000 C   0  0  0  0  0  0  0  0  0  0  0  0
    9.7942   -2.1900    0.0000 C   0  0  2  0  0  0  0  0  0  0  0  0
   10.6603    2.3100    0.0000 C   0  0  1  0  0  0  0  0  0  0  0  0
    8.9282   -1.6900    0.0000 C   0  0  0  0  0  0  0  0  0  0  0  0
   11.5263    2.8100    0.0000 C   0  0  0  0  0  0  0  0  0  0  0  0
    8.9282   -4.6900    0.0000 C   0  0  2  0  0  0  0  0  0  0  0  0
    8.9282   -0.6900    0.0000 C   0  0  0  0  0  0  0  0  0  0  0  0
    8.9282   -3.6900    0.0000 C   0  0  0  0  0  0  0  0  0  0  0  0
    9.7942    2.8100    0.0000 C   0  0  0  0  0  0  0  0  0  0  0  0
    9.7942   -5.1900    0.0000 C   0  0  0  0  0  0  0  0  0  0  0  0
    9.7942   -6.1900    0.0000 C   0  0  0  0  0  0  0  0  0  0  0  0
   10.7942   -5.1900    0.0000 C   0  0  0  0  0  0  0  0  0  0  0  0
    9.7942    3.8100    0.0000 C   0  0  0  0  0  0  0  0  0  0  0  0
    8.0622   -0.1900    0.0000 C   0  0  0  0  0  0  0  0  0  0  0  0
    7.1962   -4.6900    0.0000 C   0  0  0  0  0  0  0  0  0  0  0  0
    6.3301   -5.1900    0.0000 C   0  0  2  0  0  0  0  0  0  0  0  0
   10.6603   -6.6900    0.0000 C   0  0  0  0  0  0  0  0  0  0  0  0
   11.2942   -4.3240    0.0000 C   0  0  0  0  0  0  0  0  0  0  0  0
    8.9282   -6.6900    0.0000 C   0  0  0  0  0  0  0  0  0  0  0  0
   11.2942   -6.0560    0.0000 C   0  0  0  0  0  0  0  0  0  0  0  0
    6.3301   -6.1900    0.0000 C   0  0  0  0  0  0  0  0  0  0  0  0
    8.9282    5.3100    0.0000 C   0  0  0  0  0  0  0  0  0  0  0  0
   10.6603   -7.6900    0.0000 C   0  0  0  0  0  0  0  0  0  0  0  0
   12.2942   -4.3240    0.0000 C   0  0  0  0  0  0  0  0  0  0  0  0
    8.9282   -7.6900    0.0000 C   0  0  0  0  0  0  0  0  0  0  0  0
   12.2942   -6.0560    0.0000 C   0  0  0  0  0  0  0  0  0  0  0  0
    5.4641   -6.6900    0.0000 C   0  0  0  0  0  0  0  0  0  0  0  0
    9.7942   -8.1900    0.0000 C   0  0  0  0  0  0  0  0  0  0  0  0
   12.7942   -5.1900    0.0000 C   0  0  0  0  0  0  0  0  0  0  0  0
    4.5981   -5.1900    0.0000 C   0  0  0  0  0  0  0  0  0  0  0  0
    8.0622    5.8100    0.0000 C   0  0  0  0  0  0  0  0  0  0  0  0
    3.7320   -4.6900    0.0000 C   0  0  2  0  0  0  0  0  0  0  0  0
    8.0622    6.8100    0.0000 C   0  0  0  0  0  0  0  0  0  0  0  0
    5.4641   -7.6900    0.0000 C   0  0  0  0  0  0  0  0  0  0  0  0
    3.7320   -3.6900    0.0000 C   0  0  0  0  0  0  0  0  0  0  0  0
    7.1962    7.3100    0.0000 C   0  0  0  0  0  0  0  0  0  0  0  0
    2.8660   -3.1900    0.0000 C   0  0  0  0  0  0  0  0  0  0  0  0
    2.8660   -6.1900    0.0000 C   0  0  0  0  0  0  0  0  0  0  0  0
    7.1962    8.3100    0.0000 C   0  0  0  0  0  0  0  0  0  0  0  0
    6.3301    6.8100    0.0000 C   0  0  0  0  0  0  0  0  0  0  0  0
    2.0000   -6.6900    0.0000 C   0  0  0  0  0  0  0  0  0  0  0  0
    6.3301    8.8100    0.0000 C   0  0  0  0  0  0  0  0  0  0  0  0
    5.4641    7.3100    0.0000 C   0  0  0  0  0  0  0  0  0  0  0  0
    5.4641    8.3100    0.0000 C   0  0  0  0  0  0  0  0  0  0  0  0
   13.2583   -0.8100    0.0000 H   0  0  0  0  0  0  0  0  0  0  0  0
   13.0463    1.3926    0.0000 H   0  0  0  0  0  0  0  0  0  0  0  0
   12.6477    0.7023    0.0000 H   0  0  0  0  0  0  0  0  0  0  0  0
   13.7258   -1.1650    0.0000 H   0  0  0  0  0  0  0  0  0  0  0  0
   14.5229   -1.1650    0.0000 H   0  0  0  0  0  0  0  0  0  0  0  0
   14.5229    1.7850    0.0000 H   0  0  0  0  0  0  0  0  0  0  0  0
   13.7258    1.7850    0.0000 H   0  0  0  0  0  0  0  0  0  0  0  0
   15.2024   -0.7726    0.0000 H   0  0  0  0  0  0  0  0  0  0  0  0
   15.6010   -0.0823    0.0000 H   0  0  0  0  0  0  0  0  0  0  0  0
   11.9938   -1.1650    0.0000 H   0  0  0  0  0  0  0  0  0  0  0  0
   12.7908   -1.1650    0.0000 H   0  0  0  0  0  0  0  0  0  0  0  0
   15.6010    0.7023    0.0000 H   0  0  0  0  0  0  0  0  0  0  0  0
   15.2024    1.3926    0.0000 H   0  0  0  0  0  0  0  0  0  0  0  0
   10.9893    0.1200    0.0000 H   0  0  0  0  0  0  0  0  0  0  0  0
   10.1233   -0.3800    0.0000 H   0  0  0  0  0  0  0  0  0  0  0  0
   10.1233    1.0000    0.0000 H   0  0  0  0  0  0  0  0  0  0  0  0
    9.2573   -2.5000    0.0000 H   0  0  0  0  0  0  0  0  0  0  0  0
   11.1972    2.0000    0.0000 H   0  0  0  0  0  0  0  0  0  0  0  0
    8.3176   -1.5823    0.0000 H   0  0  0  0  0  0  0  0  0  0  0  0
    8.7162   -2.2726    0.0000 H   0  0  0  0  0  0  0  0  0  0  0  0
   10.3312   -3.5000    0.0000 H   0  0  0  0  0  0  0  0  0  0  0  0
    8.9282   -5.3100    0.0000 H   0  0  0  0  0  0  0  0  0  0  0  0
   11.7383    2.2274    0.0000 H   0  0  0  0  0  0  0  0  0  0  0  0
   12.1369    2.9177    0.0000 H   0  0  0  0  0  0  0  0  0  0  0  0
    9.5388   -0.7977    0.0000 H   0  0  0  0  0  0  0  0  0  0  0  0
    9.1403   -0.1074    0.0000 H   0  0  0  0  0  0  0  0  0  0  0  0
    9.9547   -4.5911    0.0000 H   0  0  0  0  0  0  0  0  0  0  0  0
    8.0622   -5.8100    0.0000 H   0  0  0  0  0  0  0  0  0  0  0  0
   12.0632    4.1200    0.0000 H   0  0  0  0  0  0  0  0  0  0  0  0
    5.7932   -5.5000    0.0000 H   0  0  0  0  0  0  0  0  0  0  0  0
   11.1972   -6.3800    0.0000 H   0  0  0  0  0  0  0  0  0  0  0  0
   10.9842   -3.7870    0.0000 H   0  0  0  0  0  0  0  0  0  0  0  0
    8.3913   -6.3800    0.0000 H   0  0  0  0  0  0  0  0  0  0  0  0
   10.9842   -6.5930    0.0000 H   0  0  0  0  0  0  0  0  0  0  0  0
    6.5422   -6.7726    0.0000 H   0  0  0  0  0  0  0  0  0  0  0  0
    6.9407   -6.0823    0.0000 H   0  0  0  0  0  0  0  0  0  0  0  0
    8.3913    4.0000    0.0000 H   0  0  0  0  0  0  0  0  0  0  0  0
    5.4641   -4.0700    0.0000 H   0  0  0  0  0  0  0  0  0  0  0  0
    9.5388    5.2023    0.0000 H   0  0  0  0  0  0  0  0  0  0  0  0
    9.1403    5.8926    0.0000 H   0  0  0  0  0  0  0  0  0  0  0  0
   11.1972   -8.0000    0.0000 H   0  0  0  0  0  0  0  0  0  0  0  0
   12.6042   -3.7870    0.0000 H   0  0  0  0  0  0  0  0  0  0  0  0
    8.3913   -8.0000    0.0000 H   0  0  0  0  0  0  0  0  0  0  0  0
   12.6042   -6.5930    0.0000 H   0  0  0  0  0  0  0  0  0  0  0  0
    5.2520   -6.1074    0.0000 H   0  0  0  0  0  0  0  0  0  0  0  0
    4.8535   -6.7977    0.0000 H   0  0  0  0  0  0  0  0  0  0  0  0
    7.5252    1.1200    0.0000 H   0  0  0  0  0  0  0  0  0  0  0  0
    9.7942   -8.8100    0.0000 H   0  0  0  0  0  0  0  0  0  0  0  0
   13.4142   -5.1900    0.0000 H   0  0  0  0  0  0  0  0  0  0  0  0
    7.4516    5.9177    0.0000 H   0  0  0  0  0  0  0  0  0  0  0  0
    7.8501    5.2274    0.0000 H   0  0  0  0  0  0  0  0  0  0  0  0
    3.7320   -5.3100    0.0000 H   0  0  0  0  0  0  0  0  0  0  0  0
    8.6728    6.7023    0.0000 H   0  0  0  0  0  0  0  0  0  0  0  0
    8.2742    7.3926    0.0000 H   0  0  0  0  0  0  0  0  0  0  0  0
    4.3426   -3.7977    0.0000 H   0  0  0  0  0  0  0  0  0  0  0  0
    3.9441   -3.1074    0.0000 H   0  0  0  0  0  0  0  0  0  0  0  0
    2.3291   -4.8800    0.0000 H   0  0  0  0  0  0  0  0  0  0  0  0
    4.5981   -8.8100    0.0000 H   0  0  0  0  0  0  0  0  0  0  0  0
    7.7331    8.6200    0.0000 H   0  0  0  0  0  0  0  0  0  0  0  0
    6.3301    6.1900    0.0000 H   0  0  0  0  0  0  0  0  0  0  0  0
    1.6900   -6.1531    0.0000 H   0  0  0  0  0  0  0  0  0  0  0  0
    1.4631   -7.0000    0.0000 H   0  0  0  0  0  0  0  0  0  0  0  0
    2.3100   -7.2269    0.0000 H   0  0  0  0  0  0  0  0  0  0  0  0
    6.3301    9.4300    0.0000 H   0  0  0  0  0  0  0  0  0  0  0  0
    4.9272    7.0000    0.0000 H   0  0  0  0  0  0  0  0  0  0  0  0
    2.3291   -1.8800    0.0000 H   0  0  0  0  0  0  0  0  0  0  0  0
    4.9272    8.6200    0.0000 H   0  0  0  0  0  0  0  0  0  0  0  0
  1 36  1  0  0  0  0
  1104  1  0  0  0  0
  2 31  2  0  0  0  0
  3 32  2  0  0  0  0
  4 39  2  0  0  0  0
  5 40  2  0  0  0  0
  6 45  1  0  0  0  0
  6122  1  0  0  0  0
  7 44  2  0  0  0  0
  8 45  2  0  0  0  0
  9 46  2  0  0  0  0
 10 61  2  0  0  0  0
 11 65  1  0  0  0  0
 11133  1  0  0  0  0
 12 65  2  0  0  0  0
 13 68  1  0  0  0  0
 13141  1  0  0  0  0
 14 68  2  0  0  0  0
 15 69  2  0  0  0  0
 30 16  1  6  0  0  0
 16 32  1  0  0  0  0
 16 90  1  0  0  0  0
 17 31  1  0  0  0  0
 34 17  1  6  0  0  0
 17 91  1  0  0  0  0
 33 18  1  1  0  0  0
 18 39  1  0  0  0  0
 18 96  1  0  0  0  0
 37 19  1  6  0  0  0
 19 46  1  0  0  0  0
 19103  1  0  0  0  0
 20 44  1  0  0  0  0
 20 53  1  0  0  0  0
 20112  1  0  0  0  0
 47 21  1  6  0  0  0
 21 61  1  0  0  0  0
 21113  1  0  0  0  0
 63 22  1  1  0  0  0
 22 69  1  0  0  0  0
 22132  1  0  0  0  0
 23 24  1  0  0  0  0
 23 25  1  0  0  0  0
 23 28  1  0  0  0  0
 23 76  1  0  0  0  0
 24 26  1  0  0  0  0
 24 77  1  0  0  0  0
 24 78  1  0  0  0  0
 25 27  1  0  0  0  0
 25 79  1  0  0  0  0
 25 80  1  0  0  0  0
 26 29  1  0  0  0  0
 26 81  1  0  0  0  0
 26 82  1  0  0  0  0
 27 29  1  0  0  0  0
 27 83  1  0  0  0  0
 27 84  1  0  0  0  0
 28 30  1  0  0  0  0
 28 85  1  0  0  0  0
 28 86  1  0  0  0  0
 29 87  1  0  0  0  0
 29 88  1  0  0  0  0
 30 31  1  0  0  0  0
 30 89  1  0  0  0  0
 32 33  1  0  0  0  0
 33 35  1  0  0  0  0
 33 92  1  0  0  0  0
 34 36  1  0  0  0  0
 34 40  1  0  0  0  0
 34 93  1  0  0  0  0
 35 38  1  0  0  0  0
 35 94  1  0  0  0  0
 35 95  1  0  0  0  0
 36 98  1  0  0  0  0
 36 99  1  0  0  0  0
 37 39  1  0  0  0  0
 37 41  1  0  0  0  0
 37 97  1  0  0  0  0
 38 45  1  0  0  0  0
 38100  1  0  0  0  0
 38101  1  0  0  0  0
 40 44  1  0  0  0  0
 41 42  1  0  0  0  0
 41 43  1  0  0  0  0
 41102  1  0  0  0  0
 42 48  2  0  0  0  0
 42 50  1  0  0  0  0
 43 49  2  0  0  0  0
 43 51  1  0  0  0  0
 46 47  1  0  0  0  0
 47 52  1  0  0  0  0
 47105  1  0  0  0  0
 48 54  1  0  0  0  0
 48106  1  0  0  0  0
 49 55  1  0  0  0  0
 49107  1  0  0  0  0
 50 56  2  0  0  0  0
 50108  1  0  0  0  0
 51 57  2  0  0  0  0
 51109  1  0  0  0  0
 52 58  1  0  0  0  0
 52110  1  0  0  0  0
 52111  1  0  0  0  0
 53 62  1  0  0  0  0
 53114  1  0  0  0  0
 53115  1  0  0  0  0
 54 59  2  0  0  0  0
 54116  1  0  0  0  0
 55 60  2  0  0  0  0
 55117  1  0  0  0  0
 56 59  1  0  0  0  0
 56118  1  0  0  0  0
 57 60  1  0  0  0  0
 57119  1  0  0  0  0
 58 65  1  0  0  0  0
 58120  1  0  0  0  0
 58121  1  0  0  0  0
 59123  1  0  0  0  0
 60124  1  0  0  0  0
 61 63  1  0  0  0  0
 62 64  1  0  0  0  0
 62125  1  0  0  0  0
 62126  1  0  0  0  0
 63 66  1  0  0  0  0
 63127  1  0  0  0  0
 64 67  1  0  0  0  0
 64128  1  0  0  0  0
 64129  1  0  0  0  0
 66 68  1  0  0  0  0
 66130  1  0  0  0  0
 66131  1  0  0  0  0
 67 70  2  0  0  0  0
 67 71  1  0  0  0  0
 69 72  1  0  0  0  0
 70 73  1  0  0  0  0
 70134  1  0  0  0  0
 71 74  2  0  0  0  0
 71135  1  0  0  0  0
 72136  1  0  0  0  0
 72137  1  0  0  0  0
 72138  1  0  0  0  0
 73 75  2  0  0  0  0
 73139  1  0  0  0  0
 74 75  1  0  0  0  0
 74140  1  0  0  0  0
 75142  1  0  0  0  0
M  END
> <PUBCHEM_COMPOUND_CID>
503476
> <PUBCHEM_COMPOUND_CANONICALIZED>
1
> <PUBCHEM_CACTVS_COMPLEXITY>
1930
> <PUBCHEM_CACTVS_HBOND_ACCEPTOR>
15
> <PUBCHEM_CACTVS_HBOND_DONOR>
11
> <PUBCHEM_CACTVS_ROTATABLE_BOND>
31
> <PUBCHEM_CACTVS_SUBSKEYS>
AAADcfB/vABAAAAAAAAAAAAAAAAAAAAAAAAwYMGAAAAAAAABUAAAHgQQCAAADSzF2ASyCILAAgSIAqHSGAACAAAgAAAIiIGIAIgIYDqA0TGUYAAmlgCIiAe/n8KOgAAAAAAAAAAAAAAAAAAAAAAAAAAAAA==
> <PUBCHEM_IUPAC_OPENEYE_NAME>
(4S)-4-[[(2S)-2-acetamido-3-carboxy-propanoyl]amino]-5-[[(1S)-1-benzhydryl-2-[[(1S)-3-carboxy-1-[[(1S)-1-(cyclohexylmethyl)-2-[[(1R)-2,3-dioxo-3-(3-phenylpropylamino)-1-(sulfanylmethyl)propyl]amino]-2-oxo-ethyl]carbamoyl]propyl]amino]-2-oxo-ethyl]amino]-5-oxo-pentanoic acid
> <PUBCHEM_IUPAC_CAS_NAME>
(4S)-4-[[(2S)-2-acetamido-3-carboxy-1-oxopropyl]amino]-5-[[(2S)-1-[[(2S)-4-carboxy-1-[[(2S)-3-cyclohexyl-1-[[(2R)-1-mercapto-3,4-dioxo-4-(3-phenylpropylamino)butan-2-yl]amino]-1-oxopropan-2-yl]amino]-1-oxobutan-2-yl]amino]-1-oxo-3,3-diphenylpropan-2-yl]amino]-5-oxopentanoic acid
> <PUBCHEM_IUPAC_NAME_MARKUP>
(4<I>S</I>)-4-[[(2<I>S</I>)-2-acetamido-3-carboxypropanoyl]amino]-5-[[(2<I>S</I>)-1-[[(2<I>S</I>)-4-carboxy-1-[[(2<I>S</I>)-3-cyclohexyl-1-[[(2<I>R</I>)-3,4-dioxo-4-(3-phenylpropylamino)-1-sulfanylbutan-2-yl]amino]-1-oxopropan-2-yl]amino]-1-oxobutan-2-yl]amino]-1-oxo-3,3-diphenylpropan-2-yl]amino]-5-oxopentanoic acid
> <PUBCHEM_IUPAC_NAME>
(4S)-4-[[(2S)-2-acetamido-3-carboxypropanoyl]amino]-5-[[(2S)-1-[[(2S)-4-carboxy-1-[[(2S)-3-cyclohexyl-1-[[(2R)-3,4-dioxo-4-(3-phenylpropylamino)-1-sulfanylbutan-2-yl]amino]-1-oxopropan-2-yl]amino]-1-oxobutan-2-yl]amino]-1-oxo-3,3-diphenylpropan-2-yl]amino]-5-oxopentanoic acid
> <PUBCHEM_IUPAC_SYSTEMATIC_NAME>
(4S)-4-[[(2S)-2-acetamido-4-oxidanyl-4-oxidanylidene-butanoyl]amino]-5-[[(2S)-1-[[(2S)-1-[[(2S)-1-[[(2R)-3,4-bis(oxidanylidene)-4-(3-phenylpropylamino)-1-sulfanyl-butan-2-yl]amino]-3-cyclohexyl-1-oxidanylidene-propan-2-yl]amino]-5-oxidanyl-1,5-bis(oxidanylidene)pentan-2-yl]amino]-1-oxidanylidene-3,3-diphenyl-propan-2-yl]amino]-5-oxidanylidene-pentanoic acid
> <PUBCHEM_IUPAC_TRADITIONAL_NAME>
(4S)-4-[[(2S)-2-acetamido-3-carboxy-propanoyl]amino]-5-[[(1S)-1-benzhydryl-2-[[(1S)-3-carboxy-1-[[(1S)-1-(cyclohexylmethyl)-2-[[(1R)-2,3-diketo-1-(mercaptomethyl)-3-(3-phenylpropylamino)propyl]amino]-2-keto-ethyl]carbamoyl]propyl]amino]-2-keto-ethyl]amino]-5-keto-valeric acid
> <PUBCHEM_IUPAC_INCHI>
InChI=1S/C53H67N7O14S/c1-32(61)55-40(30-44(66)67)51(72)56-38(25-27-43(64)65)49(70)60-46(45(35-20-10-4-11-21-35)36-22-12-5-13-23-36)52(73)57-37(24-26-42(62)63)48(69)58-39(29-34-17-8-3-9-18-34)50(71)59-41(31-75)47(68)53(74)54-28-14-19-33-15-6-2-7-16-33/h2,4-7,10-13,15-16,20-23,34,37-41,45-46,75H,3,8-9,14,17-19,24-31H2,1H3,(H,54,74)(H,55,61)(H,56,72)(H,57,73)(H,58,69)(H,59,71)(H,60,70)(H,62,63)(H,64,65)(H,66,67)/t37-,38-,39-,40-,41-,46-/m0/s1
> <PUBCHEM_IUPAC_INCHIKEY>
CZAVXBFNQCCDNU-HWEVAMLISA-N
> <PUBCHEM_XLOGP3_AA>
4
> <PUBCHEM_EXACT_MASS>
1057.44667101
> <PUBCHEM_MOLECULAR_FORMULA>
C53H67N7O14S
> <PUBCHEM_MOLECULAR_WEIGHT>
1058.2
> <PUBCHEM_OPENEYE_CAN_SMILES>
CC(=O)NC(CC(=O)O)C(=O)NC(CCC(=O)O)C(=O)NC(C(C1=CC=CC=C1)C2=CC=CC=C2)C(=O)NC(CCC(=O)O)C(=O)NC(CC3CCCCC3)C(=O)NC(CS)C(=O)C(=O)NCCCC4=CC=CC=C4
> <PUBCHEM_OPENEYE_ISO_SMILES>
CC(=O)N[C@@H](CC(=O)O)C(=O)N[C@@H](CCC(=O)O)C(=O)N[C@@H](C(C1=CC=CC=C1)C2=CC=CC=C2)C(=O)N[C@@H](CCC(=O)O)C(=O)N[C@@H](CC3CCCCC3)C(=O)N[C@@H](CS)C(=O)C(=O)NCCCC4=CC=CC=C4
> <PUBCHEM_CACTVS_TPSA>
334
> <PUBCHEM_MONOISOTOPIC_WEIGHT>
1057.44667101
> <PUBCHEM_TOTAL_CHARGE>
0
> <PUBCHEM_HEAVY_ATOM_COUNT>
75
> <PUBCHEM_ATOM_DEF_STEREO_COUNT>
6
> <PUBCHEM_ATOM_UDEF_STEREO_COUNT>
0
> <PUBCHEM_BOND_DEF_STEREO_COUNT>
0
> <PUBCHEM_BOND_UDEF_STEREO_COUNT>
0
> <PUBCHEM_ISOTOPIC_ATOM_COUNT>
0
> <PUBCHEM_COMPONENT_COUNT>
1
> <PUBCHEM_CACTVS_TAUTO_COUNT>
-1
> <PUBCHEM_COORDINATE_TYPE>
1
5
255
> <PUBCHEM_BONDANNOTATIONS>
30  16  6
34  17  6
33  18  5
37  19  6
47  21  6
63  22  5
42  48  8
42  50  8
43  49  8
43  51  8
48  54  8
49  55  8
50  56  8
51  57  8
54  59  8
55  60  8
56  59  8
57  60  8
67  70  8
67  71  8
70  73  8
71  74  8
73  75  8
74  75  8
$$$$
