503498
  -OEChem-10302200282D
 86 86  0     1  0  0  0  0  0999 V2000
    2.0000    1.4400    0.0000 Cl  0  0  0  0  0  0  0  0  0  0  0  0
    3.7320   -4.5600    0.0000 F   0  0  0  0  0  0  0  0  0  0  0  0
    5.4641   -4.5600    0.0000 F   0  0  0  0  0  0  0  0  0  0  0  0
    7.1962   -1.5600    0.0000 O   0  0  0  0  0  0  0  0  0  0  0  0
    8.0622   -1.0600    0.0000 O   0  0  0  0  0  0  0  0  0  0  0  0
    6.3301   -1.0600    0.0000 O   0  0  0  0  0  0  0  0  0  0  0  0
   10.6603    1.4400    0.0000 O   0  0  0  0  0  0  0  0  0  0  0  0
   13.2583   -1.0600    0.0000 O   0  0  0  0  0  0  0  0  0  0  0  0
   11.5263   -0.0600    0.0000 O   0  0  0  0  0  0  0  0  0  0  0  0
   12.3923   -2.5600    0.0000 O   0  0  0  0  0  0  0  0  0  0  0  0
    4.5981    4.9400    0.0000 O   0  0  0  0  0  0  0  0  0  0  0  0
    2.8660    4.9400    0.0000 O   0  0  0  0  0  0  0  0  0  0  0  0
    8.9282   -2.5600    0.0000 N   0  0  0  0  0  0  0  0  0  0  0  0
    6.3301   -3.0600    0.0000 N   0  0  0  0  0  0  0  0  0  0  0  0
    9.7942   -0.0600    0.0000 N   0  0  0  0  0  0  0  0  0  0  0  0
    4.5981   -1.0600    0.0000 N   0  0  0  0  0  0  0  0  0  0  0  0
    8.0622   -3.0600    0.0000 C   0  0  1  0  0  0  0  0  0  0  0  0
    8.0622   -4.0600    0.0000 C   0  0  0  0  0  0  0  0  0  0  0  0
    8.9282   -4.5600    0.0000 C   0  0  0  0  0  0  0  0  0  0  0  0
    7.1962   -2.5600    0.0000 C   0  0  0  0  0  0  0  0  0  0  0  0
    5.4641   -2.5600    0.0000 C   0  0  1  0  0  0  0  0  0  0  0  0
    9.7942   -1.0600    0.0000 C   0  0  2  0  0  0  0  0  0  0  0  0
    8.9282   -5.5600    0.0000 C   0  0  0  0  0  0  0  0  0  0  0  0
    9.7942   -4.0600    0.0000 C   0  0  0  0  0  0  0  0  0  0  0  0
    8.9282   -1.5600    0.0000 C   0  0  0  0  0  0  0  0  0  0  0  0
   10.6603   -1.5600    0.0000 C   0  0  0  0  0  0  0  0  0  0  0  0
    4.5981   -3.0600    0.0000 C   0  0  0  0  0  0  0  0  0  0  0  0
    5.4641   -1.5600    0.0000 C   0  0  0  0  0  0  0  0  0  0  0  0
   11.5263   -1.0600    0.0000 C   0  0  0  0  0  0  0  0  0  0  0  0
    4.5981   -4.0600    0.0000 C   0  0  0  0  0  0  0  0  0  0  0  0
    4.5981   -0.0600    0.0000 C   0  0  0  0  0  0  0  0  0  0  0  0
    3.7320    0.4400    0.0000 C   0  0  0  0  0  0  0  0  0  0  0  0
   10.6603    0.4400    0.0000 C   0  0  0  0  0  0  0  0  0  0  0  0
   12.3923   -1.5600    0.0000 C   0  0  0  0  0  0  0  0  0  0  0  0
   11.5263    2.9400    0.0000 C   0  0  0  0  0  0  0  0  0  0  0  0
   11.5263    1.9400    0.0000 C   0  0  0  0  0  0  0  0  0  0  0  0
    3.7320    1.4400    0.0000 C   0  0  0  0  0  0  0  0  0  0  0  0
   12.3923    3.4400    0.0000 C   0  0  0  0  0  0  0  0  0  0  0  0
   10.6603    3.4400    0.0000 C   0  0  0  0  0  0  0  0  0  0  0  0
    2.8660    1.9400    0.0000 C   0  0  0  0  0  0  0  0  0  0  0  0
    4.5981    1.9400    0.0000 C   0  0  0  0  0  0  0  0  0  0  0  0
    2.8660    2.9400    0.0000 C   0  0  0  0  0  0  0  0  0  0  0  0
    4.5981    2.9400    0.0000 C   0  0  0  0  0  0  0  0  0  0  0  0
    3.7320    3.4400    0.0000 C   0  0  0  0  0  0  0  0  0  0  0  0
    3.7320    4.4400    0.0000 C   0  0  0  0  0  0  0  0  0  0  0  0
    8.0622   -2.4400    0.0000 H   0  0  0  0  0  0  0  0  0  0  0  0
    7.4516   -3.9523    0.0000 H   0  0  0  0  0  0  0  0  0  0  0  0
    7.8501   -4.6426    0.0000 H   0  0  0  0  0  0  0  0  0  0  0  0
    9.4651   -4.8700    0.0000 H   0  0  0  0  0  0  0  0  0  0  0  0
    9.4651   -2.8700    0.0000 H   0  0  0  0  0  0  0  0  0  0  0  0
    5.4641   -3.1800    0.0000 H   0  0  0  0  0  0  0  0  0  0  0  0
    9.2573   -0.7500    0.0000 H   0  0  0  0  0  0  0  0  0  0  0  0
    8.3082   -5.5600    0.0000 H   0  0  0  0  0  0  0  0  0  0  0  0
    8.9282   -6.1800    0.0000 H   0  0  0  0  0  0  0  0  0  0  0  0
    9.5482   -5.5600    0.0000 H   0  0  0  0  0  0  0  0  0  0  0  0
   10.1042   -4.5969    0.0000 H   0  0  0  0  0  0  0  0  0  0  0  0
   10.3312   -3.7500    0.0000 H   0  0  0  0  0  0  0  0  0  0  0  0
    9.4842   -3.5231    0.0000 H   0  0  0  0  0  0  0  0  0  0  0  0
    6.3301   -3.6800    0.0000 H   0  0  0  0  0  0  0  0  0  0  0  0
   10.2617   -2.0349    0.0000 H   0  0  0  0  0  0  0  0  0  0  0  0
   11.0588   -2.0349    0.0000 H   0  0  0  0  0  0  0  0  0  0  0  0
    4.3860   -2.4774    0.0000 H   0  0  0  0  0  0  0  0  0  0  0  0
    3.9875   -3.1677    0.0000 H   0  0  0  0  0  0  0  0  0  0  0  0
    9.2573    0.2500    0.0000 H   0  0  0  0  0  0  0  0  0  0  0  0
   11.9248   -0.5851    0.0000 H   0  0  0  0  0  0  0  0  0  0  0  0
   11.1278   -0.5851    0.0000 H   0  0  0  0  0  0  0  0  0  0  0  0
    4.5981   -4.6800    0.0000 H   0  0  0  0  0  0  0  0  0  0  0  0
    4.0611   -1.3700    0.0000 H   0  0  0  0  0  0  0  0  0  0  0  0
    5.2087   -0.1677    0.0000 H   0  0  0  0  0  0  0  0  0  0  0  0
    4.8101    0.5226    0.0000 H   0  0  0  0  0  0  0  0  0  0  0  0
    3.1215    0.5477    0.0000 H   0  0  0  0  0  0  0  0  0  0  0  0
    3.5200   -0.1426    0.0000 H   0  0  0  0  0  0  0  0  0  0  0  0
   12.0632    2.6300    0.0000 H   0  0  0  0  0  0  0  0  0  0  0  0
   11.7383    1.3574    0.0000 H   0  0  0  0  0  0  0  0  0  0  0  0
   12.1369    2.0477    0.0000 H   0  0  0  0  0  0  0  0  0  0  0  0
   12.7023    2.9031    0.0000 H   0  0  0  0  0  0  0  0  0  0  0  0
   12.9292    3.7500    0.0000 H   0  0  0  0  0  0  0  0  0  0  0  0
   12.0823    3.9769    0.0000 H   0  0  0  0  0  0  0  0  0  0  0  0
   10.9703    3.9769    0.0000 H   0  0  0  0  0  0  0  0  0  0  0  0
   10.1233    3.7500    0.0000 H   0  0  0  0  0  0  0  0  0  0  0  0
   10.3503    2.9031    0.0000 H   0  0  0  0  0  0  0  0  0  0  0  0
    5.1350    1.6300    0.0000 H   0  0  0  0  0  0  0  0  0  0  0  0
   13.7953   -1.3700    0.0000 H   0  0  0  0  0  0  0  0  0  0  0  0
    2.3291    3.2500    0.0000 H   0  0  0  0  0  0  0  0  0  0  0  0
    5.1350    3.2500    0.0000 H   0  0  0  0  0  0  0  0  0  0  0  0
    4.5981    5.5600    0.0000 H   0  0  0  0  0  0  0  0  0  0  0  0
  1 40  1  0  0  0  0
  2 30  1  0  0  0  0
  3 30  1  0  0  0  0
  4 20  2  0  0  0  0
  5 25  2  0  0  0  0
  6 28  2  0  0  0  0
  7 33  1  0  0  0  0
  7 36  1  0  0  0  0
  8 34  1  0  0  0  0
  8 83  1  0  0  0  0
  9 33  2  0  0  0  0
 10 34  2  0  0  0  0
 11 45  1  0  0  0  0
 11 86  1  0  0  0  0
 12 45  2  0  0  0  0
 17 13  1  1  0  0  0
 13 25  1  0  0  0  0
 13 50  1  0  0  0  0
 14 20  1  0  0  0  0
 21 14  1  1  0  0  0
 14 59  1  0  0  0  0
 22 15  1  1  0  0  0
 15 33  1  0  0  0  0
 15 64  1  0  0  0  0
 16 28  1  0  0  0  0
 16 31  1  0  0  0  0
 16 68  1  0  0  0  0
 17 18  1  0  0  0  0
 17 20  1  0  0  0  0
 17 46  1  0  0  0  0
 18 19  1  0  0  0  0
 18 47  1  0  0  0  0
 18 48  1  0  0  0  0
 19 23  1  0  0  0  0
 19 24  1  0  0  0  0
 19 49  1  0  0  0  0
 21 27  1  0  0  0  0
 21 28  1  0  0  0  0
 21 51  1  0  0  0  0
 22 25  1  0  0  0  0
 22 26  1  0  0  0  0
 22 52  1  0  0  0  0
 23 53  1  0  0  0  0
 23 54  1  0  0  0  0
 23 55  1  0  0  0  0
 24 56  1  0  0  0  0
 24 57  1  0  0  0  0
 24 58  1  0  0  0  0
 26 29  1  0  0  0  0
 26 60  1  0  0  0  0
 26 61  1  0  0  0  0
 27 30  1  0  0  0  0
 27 62  1  0  0  0  0
 27 63  1  0  0  0  0
 29 34  1  0  0  0  0
 29 65  1  0  0  0  0
 29 66  1  0  0  0  0
 30 67  1  0  0  0  0
 31 32  1  0  0  0  0
 31 69  1  0  0  0  0
 31 70  1  0  0  0  0
 32 37  1  0  0  0  0
 32 71  1  0  0  0  0
 32 72  1  0  0  0  0
 35 36  1  0  0  0  0
 35 38  1  0  0  0  0
 35 39  1  0  0  0  0
 35 73  1  0  0  0  0
 36 74  1  0  0  0  0
 36 75  1  0  0  0  0
 37 40  2  0  0  0  0
 37 41  1  0  0  0  0
 38 76  1  0  0  0  0
 38 77  1  0  0  0  0
 38 78  1  0  0  0  0
 39 79  1  0  0  0  0
 39 80  1  0  0  0  0
 39 81  1  0  0  0  0
 40 42  1  0  0  0  0
 41 43  2  0  0  0  0
 41 82  1  0  0  0  0
 42 44  2  0  0  0  0
 42 84  1  0  0  0  0
 43 44  1  0  0  0  0
 43 85  1  0  0  0  0
 44 45  1  0  0  0  0
M  END
> <PUBCHEM_COMPOUND_CID>
503498
> <PUBCHEM_COMPOUND_CANONICALIZED>
1
> <PUBCHEM_CACTVS_COMPLEXITY>
1020
> <PUBCHEM_CACTVS_HBOND_ACCEPTOR>
11
> <PUBCHEM_CACTVS_HBOND_DONOR>
6
> <PUBCHEM_CACTVS_ROTATABLE_BOND>
20
> <PUBCHEM_CACTVS_SUBSKEYS>
AAADcfB7vYAEAAAAAAAAAAAAAAAAAAAAAAAwAAAAAAAAAAABAAAAHwIQCAAADSrhmDYyCILABgCIAiHSGAACAAAkBQAIiIGICskIZjKBlzGccQAk1gGImYe83/KOQAAAIAABAACAAABAAAIAAAAAAAAAAA==
> <PUBCHEM_IUPAC_OPENEYE_NAME>
4-[2-[[(2S)-2-[[(2S)-2-[[(2S)-4-carboxy-2-(isobutoxycarbonylamino)butanoyl]amino]-4-methyl-pentanoyl]amino]-4,4-difluoro-butanoyl]amino]ethyl]-3-chloro-benzoic acid
> <PUBCHEM_IUPAC_CAS_NAME>
4-[2-[[(2S)-2-[[(2S)-2-[[(2S)-4-carboxy-2-[[2-methylpropoxy(oxo)methyl]amino]-1-oxobutyl]amino]-4-methyl-1-oxopentyl]amino]-4,4-difluoro-1-oxobutyl]amino]ethyl]-3-chlorobenzoic acid
> <PUBCHEM_IUPAC_NAME_MARKUP>
4-[2-[[(2<I>S</I>)-2-[[(2<I>S</I>)-2-[[(2<I>S</I>)-4-carboxy-2-(2-methylpropoxycarbonylamino)butanoyl]amino]-4-methylpentanoyl]amino]-4,4-difluorobutanoyl]amino]ethyl]-3-chlorobenzoic acid
> <PUBCHEM_IUPAC_NAME>
4-[2-[[(2S)-2-[[(2S)-2-[[(2S)-4-carboxy-2-(2-methylpropoxycarbonylamino)butanoyl]amino]-4-methylpentanoyl]amino]-4,4-difluorobutanoyl]amino]ethyl]-3-chlorobenzoic acid
> <PUBCHEM_IUPAC_SYSTEMATIC_NAME>
4-[2-[[(2S)-4,4-bis(fluoranyl)-2-[[(2S)-4-methyl-2-[[(2S)-2-(2-methylpropoxycarbonylamino)-5-oxidanyl-5-oxidanylidene-pentanoyl]amino]pentanoyl]amino]butanoyl]amino]ethyl]-3-chloranyl-benzoic acid
> <PUBCHEM_IUPAC_TRADITIONAL_NAME>
4-[2-[[(2S)-2-[[(2S)-2-[[(2S)-4-carboxy-2-(isobutoxycarbonylamino)butanoyl]amino]-4-methyl-pentanoyl]amino]-4,4-difluoro-butanoyl]amino]ethyl]-3-chloro-benzoic acid
> <PUBCHEM_IUPAC_INCHI>
InChI=1S/C29H41ClF2N4O9/c1-15(2)11-21(34-26(40)20(7-8-24(37)38)36-29(44)45-14-16(3)4)27(41)35-22(13-23(31)32)25(39)33-10-9-17-5-6-18(28(42)43)12-19(17)30/h5-6,12,15-16,20-23H,7-11,13-14H2,1-4H3,(H,33,39)(H,34,40)(H,35,41)(H,36,44)(H,37,38)(H,42,43)/t20-,21-,22-/m0/s1
> <PUBCHEM_IUPAC_INCHIKEY>
YXLKUMXBZZUGHU-FKBYEOEOSA-N
> <PUBCHEM_XLOGP3_AA>
4.3
> <PUBCHEM_EXACT_MASS>
662.2530129
> <PUBCHEM_MOLECULAR_FORMULA>
C29H41ClF2N4O9
> <PUBCHEM_MOLECULAR_WEIGHT>
663.1
> <PUBCHEM_OPENEYE_CAN_SMILES>
CC(C)CC(C(=O)NC(CC(F)F)C(=O)NCCC1=C(C=C(C=C1)C(=O)O)Cl)NC(=O)C(CCC(=O)O)NC(=O)OCC(C)C
> <PUBCHEM_OPENEYE_ISO_SMILES>
CC(C)C[C@@H](C(=O)N[C@@H](CC(F)F)C(=O)NCCC1=C(C=C(C=C1)C(=O)O)Cl)NC(=O)[C@H](CCC(=O)O)NC(=O)OCC(C)C
> <PUBCHEM_CACTVS_TPSA>
200
> <PUBCHEM_MONOISOTOPIC_WEIGHT>
662.2530129
> <PUBCHEM_TOTAL_CHARGE>
0
> <PUBCHEM_HEAVY_ATOM_COUNT>
45
> <PUBCHEM_ATOM_DEF_STEREO_COUNT>
3
> <PUBCHEM_ATOM_UDEF_STEREO_COUNT>
0
> <PUBCHEM_BOND_DEF_STEREO_COUNT>
0
> <PUBCHEM_BOND_UDEF_STEREO_COUNT>
0
> <PUBCHEM_ISOTOPIC_ATOM_COUNT>
0
> <PUBCHEM_COMPONENT_COUNT>
1
> <PUBCHEM_CACTVS_TAUTO_COUNT>
-1
> <PUBCHEM_COORDINATE_TYPE>
1
5
255
> <PUBCHEM_BONDANNOTATIONS>
17  13  5
21  14  5
22  15  5
37  40  8
37  41  8
40  42  8
41  43  8
42  44  8
43  44  8
$$$$
