503477
  -OEChem-10302200282D
145148  0     1  0  0  0  0  0999 V2000
   11.5263    3.8100    0.0000 S   0  0  0  0  0  0  0  0  0  0  0  0
   12.3923    1.3100    0.0000 O   0  0  0  0  0  0  0  0  0  0  0  0
   11.5263   -2.1900    0.0000 O   0  0  0  0  0  0  0  0  0  0  0  0
    8.9282    2.3100    0.0000 O   0  0  0  0  0  0  0  0  0  0  0  0
   10.6603    4.3100    0.0000 O   0  0  0  0  0  0  0  0  0  0  0  0
    8.0622   -3.1900    0.0000 O   0  0  0  0  0  0  0  0  0  0  0  0
    8.0622    0.8100    0.0000 O   0  0  0  0  0  0  0  0  0  0  0  0
    7.1962   -0.6900    0.0000 O   0  0  0  0  0  0  0  0  0  0  0  0
    7.1962   -3.6900    0.0000 O   0  0  0  0  0  0  0  0  0  0  0  0
    4.5981   -6.1900    0.0000 O   0  0  0  0  0  0  0  0  0  0  0  0
    4.5981   -8.1900    0.0000 O   0  0  0  0  0  0  0  0  0  0  0  0
    6.3301   -8.1900    0.0000 O   0  0  0  0  0  0  0  0  0  0  0  0
    2.8660   -2.1900    0.0000 O   0  0  0  0  0  0  0  0  0  0  0  0
    2.0000   -3.6900    0.0000 O   0  0  0  0  0  0  0  0  0  0  0  0
    3.7320   -6.6900    0.0000 O   0  0  0  0  0  0  0  0  0  0  0  0
   10.6603   -0.6900    0.0000 N   0  0  0  0  0  0  0  0  0  0  0  0
   10.6603    1.3100    0.0000 N   0  0  0  0  0  0  0  0  0  0  0  0
    8.9282    4.3100    0.0000 N   0  0  0  0  0  0  0  0  0  0  0  0
    9.7942   -3.1900    0.0000 N   0  0  0  0  0  0  0  0  0  0  0  0
    8.0622   -5.1900    0.0000 N   0  0  0  0  0  0  0  0  0  0  0  0
    5.4641   -4.6900    0.0000 N   0  0  0  0  0  0  0  0  0  0  0  0
    2.8660   -5.1900    0.0000 N   0  0  0  0  0  0  0  0  0  0  0  0
   13.2583   -0.1900    0.0000 C   0  0  0  0  0  0  0  0  0  0  0  0
   13.2583    0.8100    0.0000 C   0  0  0  0  0  0  0  0  0  0  0  0
   14.1244   -0.6900    0.0000 C   0  0  0  0  0  0  0  0  0  0  0  0
   12.3923   -0.6900    0.0000 C   0  0  0  0  0  0  0  0  0  0  0  0
   14.1244    1.3100    0.0000 C   0  0  0  0  0  0  0  0  0  0  0  0
   14.9904   -0.1900    0.0000 C   0  0  0  0  0  0  0  0  0  0  0  0
   14.9904    0.8100    0.0000 C   0  0  0  0  0  0  0  0  0  0  0  0
    8.0622    6.8100    0.0000 C   0  0  0  0  0  0  0  0  0  0  0  0
   11.5263   -0.1900    0.0000 C   0  0  1  0  0  0  0  0  0  0  0  0
    7.1962    7.3100    0.0000 C   0  0  0  0  0  0  0  0  0  0  0  0
    8.9282    7.3100    0.0000 C   0  0  0  0  0  0  0  0  0  0  0  0
    7.1962    8.3100    0.0000 C   0  0  0  0  0  0  0  0  0  0  0  0
    8.9282    8.3100    0.0000 C   0  0  0  0  0  0  0  0  0  0  0  0
    8.0622    8.8100    0.0000 C   0  0  0  0  0  0  0  0  0  0  0  0
    8.0622    5.8100    0.0000 C   0  0  0  0  0  0  0  0  0  0  0  0
   11.5263    0.8100    0.0000 C   0  0  0  0  0  0  0  0  0  0  0  0
    8.9282    5.3100    0.0000 C   0  0  0  0  0  0  0  0  0  0  0  0
   10.6603   -1.6900    0.0000 C   0  0  0  0  0  0  0  0  0  0  0  0
    9.7942   -2.1900    0.0000 C   0  0  2  0  0  0  0  0  0  0  0  0
   10.6603    2.3100    0.0000 C   0  0  2  0  0  0  0  0  0  0  0  0
    8.9282   -1.6900    0.0000 C   0  0  0  0  0  0  0  0  0  0  0  0
    9.7942    2.8100    0.0000 C   0  0  0  0  0  0  0  0  0  0  0  0
    9.7942    3.8100    0.0000 C   0  0  0  0  0  0  0  0  0  0  0  0
   11.5263    2.8100    0.0000 C   0  0  0  0  0  0  0  0  0  0  0  0
    8.9282   -4.6900    0.0000 C   0  0  2  0  0  0  0  0  0  0  0  0
    8.9282   -0.6900    0.0000 C   0  0  0  0  0  0  0  0  0  0  0  0
    8.9282   -3.6900    0.0000 C   0  0  0  0  0  0  0  0  0  0  0  0
    9.7942   -5.1900    0.0000 C   0  0  0  0  0  0  0  0  0  0  0  0
    9.7942   -6.1900    0.0000 C   0  0  0  0  0  0  0  0  0  0  0  0
   10.7942   -5.1900    0.0000 C   0  0  0  0  0  0  0  0  0  0  0  0
    8.0622   -0.1900    0.0000 C   0  0  0  0  0  0  0  0  0  0  0  0
    7.1962   -4.6900    0.0000 C   0  0  0  0  0  0  0  0  0  0  0  0
    6.3301   -5.1900    0.0000 C   0  0  2  0  0  0  0  0  0  0  0  0
   10.6603   -6.6900    0.0000 C   0  0  0  0  0  0  0  0  0  0  0  0
   11.2942   -6.0560    0.0000 C   0  0  0  0  0  0  0  0  0  0  0  0
    8.9282   -6.6900    0.0000 C   0  0  0  0  0  0  0  0  0  0  0  0
   11.2942   -4.3240    0.0000 C   0  0  0  0  0  0  0  0  0  0  0  0
    6.3301   -6.1900    0.0000 C   0  0  0  0  0  0  0  0  0  0  0  0
   10.6603   -7.6900    0.0000 C   0  0  0  0  0  0  0  0  0  0  0  0
   12.2942   -6.0560    0.0000 C   0  0  0  0  0  0  0  0  0  0  0  0
    8.9282   -7.6900    0.0000 C   0  0  0  0  0  0  0  0  0  0  0  0
   12.2942   -4.3240    0.0000 C   0  0  0  0  0  0  0  0  0  0  0  0
    5.4641   -6.6900    0.0000 C   0  0  0  0  0  0  0  0  0  0  0  0
    9.7942   -8.1900    0.0000 C   0  0  0  0  0  0  0  0  0  0  0  0
   12.7942   -5.1900    0.0000 C   0  0  0  0  0  0  0  0  0  0  0  0
    4.5981   -5.1900    0.0000 C   0  0  0  0  0  0  0  0  0  0  0  0
    3.7320   -4.6900    0.0000 C   0  0  2  0  0  0  0  0  0  0  0  0
    5.4641   -7.6900    0.0000 C   0  0  0  0  0  0  0  0  0  0  0  0
    3.7320   -3.6900    0.0000 C   0  0  0  0  0  0  0  0  0  0  0  0
    2.8660   -3.1900    0.0000 C   0  0  0  0  0  0  0  0  0  0  0  0
    2.8660   -6.1900    0.0000 C   0  0  0  0  0  0  0  0  0  0  0  0
    2.0000   -6.6900    0.0000 C   0  0  0  0  0  0  0  0  0  0  0  0
   13.2583   -0.8100    0.0000 H   0  0  0  0  0  0  0  0  0  0  0  0
   13.0463    1.3926    0.0000 H   0  0  0  0  0  0  0  0  0  0  0  0
   12.6477    0.7023    0.0000 H   0  0  0  0  0  0  0  0  0  0  0  0
   13.7258   -1.1650    0.0000 H   0  0  0  0  0  0  0  0  0  0  0  0
   14.5229   -1.1650    0.0000 H   0  0  0  0  0  0  0  0  0  0  0  0
   11.9938   -1.1650    0.0000 H   0  0  0  0  0  0  0  0  0  0  0  0
   12.7908   -1.1650    0.0000 H   0  0  0  0  0  0  0  0  0  0  0  0
   14.5229    1.7850    0.0000 H   0  0  0  0  0  0  0  0  0  0  0  0
   13.7258    1.7850    0.0000 H   0  0  0  0  0  0  0  0  0  0  0  0
   15.2024   -0.7726    0.0000 H   0  0  0  0  0  0  0  0  0  0  0  0
   15.6010   -0.0823    0.0000 H   0  0  0  0  0  0  0  0  0  0  0  0
   15.6010    0.7023    0.0000 H   0  0  0  0  0  0  0  0  0  0  0  0
   15.2024    1.3926    0.0000 H   0  0  0  0  0  0  0  0  0  0  0  0
    7.5252    6.5000    0.0000 H   0  0  0  0  0  0  0  0  0  0  0  0
   10.9893    0.1200    0.0000 H   0  0  0  0  0  0  0  0  0  0  0  0
    6.5856    7.4177    0.0000 H   0  0  0  0  0  0  0  0  0  0  0  0
    6.9841    6.7274    0.0000 H   0  0  0  0  0  0  0  0  0  0  0  0
    9.1403    6.7274    0.0000 H   0  0  0  0  0  0  0  0  0  0  0  0
    9.5388    7.4177    0.0000 H   0  0  0  0  0  0  0  0  0  0  0  0
    6.9841    8.8926    0.0000 H   0  0  0  0  0  0  0  0  0  0  0  0
    6.5856    8.2023    0.0000 H   0  0  0  0  0  0  0  0  0  0  0  0
    9.5388    8.2023    0.0000 H   0  0  0  0  0  0  0  0  0  0  0  0
    9.1403    8.8926    0.0000 H   0  0  0  0  0  0  0  0  0  0  0  0
    8.4607    9.2850    0.0000 H   0  0  0  0  0  0  0  0  0  0  0  0
    7.6636    9.2850    0.0000 H   0  0  0  0  0  0  0  0  0  0  0  0
    7.4516    5.9177    0.0000 H   0  0  0  0  0  0  0  0  0  0  0  0
    7.8501    5.2274    0.0000 H   0  0  0  0  0  0  0  0  0  0  0  0
   10.1233   -0.3800    0.0000 H   0  0  0  0  0  0  0  0  0  0  0  0
    9.5388    5.2023    0.0000 H   0  0  0  0  0  0  0  0  0  0  0  0
    9.1403    5.8926    0.0000 H   0  0  0  0  0  0  0  0  0  0  0  0
   10.1233    1.0000    0.0000 H   0  0  0  0  0  0  0  0  0  0  0  0
    9.2573   -2.5000    0.0000 H   0  0  0  0  0  0  0  0  0  0  0  0
   11.1972    2.0000    0.0000 H   0  0  0  0  0  0  0  0  0  0  0  0
    8.3913    4.0000    0.0000 H   0  0  0  0  0  0  0  0  0  0  0  0
    8.3176   -1.5823    0.0000 H   0  0  0  0  0  0  0  0  0  0  0  0
    8.7162   -2.2726    0.0000 H   0  0  0  0  0  0  0  0  0  0  0  0
   11.7383    2.2274    0.0000 H   0  0  0  0  0  0  0  0  0  0  0  0
   12.1369    2.9177    0.0000 H   0  0  0  0  0  0  0  0  0  0  0  0
   10.3312   -3.5000    0.0000 H   0  0  0  0  0  0  0  0  0  0  0  0
    8.9282   -5.3100    0.0000 H   0  0  0  0  0  0  0  0  0  0  0  0
    9.5388   -0.7977    0.0000 H   0  0  0  0  0  0  0  0  0  0  0  0
    9.1403   -0.1074    0.0000 H   0  0  0  0  0  0  0  0  0  0  0  0
    9.9547   -4.5911    0.0000 H   0  0  0  0  0  0  0  0  0  0  0  0
    8.0622   -5.8100    0.0000 H   0  0  0  0  0  0  0  0  0  0  0  0
   12.0632    4.1200    0.0000 H   0  0  0  0  0  0  0  0  0  0  0  0
    5.7932   -5.5000    0.0000 H   0  0  0  0  0  0  0  0  0  0  0  0
   11.1972   -6.3800    0.0000 H   0  0  0  0  0  0  0  0  0  0  0  0
   10.9842   -6.5930    0.0000 H   0  0  0  0  0  0  0  0  0  0  0  0
    8.3913   -6.3800    0.0000 H   0  0  0  0  0  0  0  0  0  0  0  0
   10.9842   -3.7870    0.0000 H   0  0  0  0  0  0  0  0  0  0  0  0
    6.5422   -6.7726    0.0000 H   0  0  0  0  0  0  0  0  0  0  0  0
    6.9407   -6.0823    0.0000 H   0  0  0  0  0  0  0  0  0  0  0  0
    5.4641   -4.0700    0.0000 H   0  0  0  0  0  0  0  0  0  0  0  0
    7.5252    1.1200    0.0000 H   0  0  0  0  0  0  0  0  0  0  0  0
   11.1972   -8.0000    0.0000 H   0  0  0  0  0  0  0  0  0  0  0  0
   12.6042   -6.5930    0.0000 H   0  0  0  0  0  0  0  0  0  0  0  0
    8.3913   -8.0000    0.0000 H   0  0  0  0  0  0  0  0  0  0  0  0
   12.6042   -3.7870    0.0000 H   0  0  0  0  0  0  0  0  0  0  0  0
    5.2520   -6.1074    0.0000 H   0  0  0  0  0  0  0  0  0  0  0  0
    4.8535   -6.7977    0.0000 H   0  0  0  0  0  0  0  0  0  0  0  0
    9.7942   -8.8100    0.0000 H   0  0  0  0  0  0  0  0  0  0  0  0
   13.4142   -5.1900    0.0000 H   0  0  0  0  0  0  0  0  0  0  0  0
    3.7320   -5.3100    0.0000 H   0  0  0  0  0  0  0  0  0  0  0  0
    4.3426   -3.7977    0.0000 H   0  0  0  0  0  0  0  0  0  0  0  0
    3.9441   -3.1074    0.0000 H   0  0  0  0  0  0  0  0  0  0  0  0
    2.3291   -4.8800    0.0000 H   0  0  0  0  0  0  0  0  0  0  0  0
    4.5981   -8.8100    0.0000 H   0  0  0  0  0  0  0  0  0  0  0  0
    1.6900   -6.1531    0.0000 H   0  0  0  0  0  0  0  0  0  0  0  0
    1.4631   -7.0000    0.0000 H   0  0  0  0  0  0  0  0  0  0  0  0
    2.3100   -7.2269    0.0000 H   0  0  0  0  0  0  0  0  0  0  0  0
    2.3291   -1.8800    0.0000 H   0  0  0  0  0  0  0  0  0  0  0  0
  1 46  1  0  0  0  0
  1119  1  0  0  0  0
  2 38  2  0  0  0  0
  3 40  2  0  0  0  0
  4 44  2  0  0  0  0
  5 45  2  0  0  0  0
  6 49  2  0  0  0  0
  7 53  1  0  0  0  0
  7128  1  0  0  0  0
  8 53  2  0  0  0  0
  9 54  2  0  0  0  0
 10 68  2  0  0  0  0
 11 70  1  0  0  0  0
 11141  1  0  0  0  0
 12 70  2  0  0  0  0
 13 72  1  0  0  0  0
 13145  1  0  0  0  0
 14 72  2  0  0  0  0
 15 73  2  0  0  0  0
 31 16  1  6  0  0  0
 16 40  1  0  0  0  0
 16102  1  0  0  0  0
 17 38  1  0  0  0  0
 42 17  1  6  0  0  0
 17105  1  0  0  0  0
 18 39  1  0  0  0  0
 18 45  1  0  0  0  0
 18108  1  0  0  0  0
 41 19  1  1  0  0  0
 19 49  1  0  0  0  0
 19113  1  0  0  0  0
 47 20  1  6  0  0  0
 20 54  1  0  0  0  0
 20118  1  0  0  0  0
 55 21  1  6  0  0  0
 21 68  1  0  0  0  0
 21127  1  0  0  0  0
 69 22  1  1  0  0  0
 22 73  1  0  0  0  0
 22140  1  0  0  0  0
 23 24  1  0  0  0  0
 23 25  1  0  0  0  0
 23 26  1  0  0  0  0
 23 75  1  0  0  0  0
 24 27  1  0  0  0  0
 24 76  1  0  0  0  0
 24 77  1  0  0  0  0
 25 28  1  0  0  0  0
 25 78  1  0  0  0  0
 25 79  1  0  0  0  0
 26 31  1  0  0  0  0
 26 80  1  0  0  0  0
 26 81  1  0  0  0  0
 27 29  1  0  0  0  0
 27 82  1  0  0  0  0
 27 83  1  0  0  0  0
 28 29  1  0  0  0  0
 28 84  1  0  0  0  0
 28 85  1  0  0  0  0
 29 86  1  0  0  0  0
 29 87  1  0  0  0  0
 30 32  1  0  0  0  0
 30 33  1  0  0  0  0
 30 37  1  0  0  0  0
 30 88  1  0  0  0  0
 31 38  1  0  0  0  0
 31 89  1  0  0  0  0
 32 34  1  0  0  0  0
 32 90  1  0  0  0  0
 32 91  1  0  0  0  0
 33 35  1  0  0  0  0
 33 92  1  0  0  0  0
 33 93  1  0  0  0  0
 34 36  1  0  0  0  0
 34 94  1  0  0  0  0
 34 95  1  0  0  0  0
 35 36  1  0  0  0  0
 35 96  1  0  0  0  0
 35 97  1  0  0  0  0
 36 98  1  0  0  0  0
 36 99  1  0  0  0  0
 37 39  1  0  0  0  0
 37100  1  0  0  0  0
 37101  1  0  0  0  0
 39103  1  0  0  0  0
 39104  1  0  0  0  0
 40 41  1  0  0  0  0
 41 43  1  0  0  0  0
 41106  1  0  0  0  0
 42 44  1  0  0  0  0
 42 46  1  0  0  0  0
 42107  1  0  0  0  0
 43 48  1  0  0  0  0
 43109  1  0  0  0  0
 43110  1  0  0  0  0
 44 45  1  0  0  0  0
 46111  1  0  0  0  0
 46112  1  0  0  0  0
 47 49  1  0  0  0  0
 47 50  1  0  0  0  0
 47114  1  0  0  0  0
 48 53  1  0  0  0  0
 48115  1  0  0  0  0
 48116  1  0  0  0  0
 50 51  1  0  0  0  0
 50 52  1  0  0  0  0
 50117  1  0  0  0  0
 51 56  2  0  0  0  0
 51 58  1  0  0  0  0
 52 57  2  0  0  0  0
 52 59  1  0  0  0  0
 54 55  1  0  0  0  0
 55 60  1  0  0  0  0
 55120  1  0  0  0  0
 56 61  1  0  0  0  0
 56121  1  0  0  0  0
 57 62  1  0  0  0  0
 57122  1  0  0  0  0
 58 63  2  0  0  0  0
 58123  1  0  0  0  0
 59 64  2  0  0  0  0
 59124  1  0  0  0  0
 60 65  1  0  0  0  0
 60125  1  0  0  0  0
 60126  1  0  0  0  0
 61 66  2  0  0  0  0
 61129  1  0  0  0  0
 62 67  2  0  0  0  0
 62130  1  0  0  0  0
 63 66  1  0  0  0  0
 63131  1  0  0  0  0
 64 67  1  0  0  0  0
 64132  1  0  0  0  0
 65 70  1  0  0  0  0
 65133  1  0  0  0  0
 65134  1  0  0  0  0
 66135  1  0  0  0  0
 67136  1  0  0  0  0
 68 69  1  0  0  0  0
 69 71  1  0  0  0  0
 69137  1  0  0  0  0
 71 72  1  0  0  0  0
 71138  1  0  0  0  0
 71139  1  0  0  0  0
 73 74  1  0  0  0  0
 74142  1  0  0  0  0
 74143  1  0  0  0  0
 74144  1  0  0  0  0
M  END
> <PUBCHEM_COMPOUND_CID>
503477
> <PUBCHEM_COMPOUND_CANONICALIZED>
1
> <PUBCHEM_CACTVS_COMPLEXITY>
1910
> <PUBCHEM_CACTVS_HBOND_ACCEPTOR>
15
> <PUBCHEM_CACTVS_HBOND_DONOR>
11
> <PUBCHEM_CACTVS_ROTATABLE_BOND>
30
> <PUBCHEM_CACTVS_SUBSKEYS>
AAADcfB/vABAAAAAAAAAAAAAAAAAAAAAAAAwYMGAAAAAAAABQAAAHgQQCAAADSzF2ASyCILAAgSIAqHSGAACAAAgAAAIiIGIAIgIYDqA0TGUYAAmlgCIiAe/n8KOgAAAAAAAAAAAAAAAAAAAAAAAAAAAAA==
> <PUBCHEM_IUPAC_OPENEYE_NAME>
(4S)-4-[[(2S)-2-acetamido-3-carboxy-propanoyl]amino]-5-[[(1S)-1-benzhydryl-2-[[(1S)-3-carboxy-1-[[(1S)-2-[[(1R)-3-(2-cyclohexylethylamino)-2,3-dioxo-1-(sulfanylmethyl)propyl]amino]-1-(cyclohexylmethyl)-2-oxo-ethyl]carbamoyl]propyl]amino]-2-oxo-ethyl]amino]-5-oxo-pentanoic acid
> <PUBCHEM_IUPAC_CAS_NAME>
(4S)-4-[[(2S)-2-acetamido-3-carboxy-1-oxopropyl]amino]-5-[[(2S)-1-[[(2S)-4-carboxy-1-[[(2S)-3-cyclohexyl-1-[[(2R)-4-(2-cyclohexylethylamino)-1-mercapto-3,4-dioxobutan-2-yl]amino]-1-oxopropan-2-yl]amino]-1-oxobutan-2-yl]amino]-1-oxo-3,3-diphenylpropan-2-yl]amino]-5-oxopentanoic acid
> <PUBCHEM_IUPAC_NAME_MARKUP>
(4<I>S</I>)-4-[[(2<I>S</I>)-2-acetamido-3-carboxypropanoyl]amino]-5-[[(2<I>S</I>)-1-[[(2<I>S</I>)-4-carboxy-1-[[(2<I>S</I>)-3-cyclohexyl-1-[[(2<I>R</I>)-4-(2-cyclohexylethylamino)-3,4-dioxo-1-sulfanylbutan-2-yl]amino]-1-oxopropan-2-yl]amino]-1-oxobutan-2-yl]amino]-1-oxo-3,3-diphenylpropan-2-yl]amino]-5-oxopentanoic acid
> <PUBCHEM_IUPAC_NAME>
(4S)-4-[[(2S)-2-acetamido-3-carboxypropanoyl]amino]-5-[[(2S)-1-[[(2S)-4-carboxy-1-[[(2S)-3-cyclohexyl-1-[[(2R)-4-(2-cyclohexylethylamino)-3,4-dioxo-1-sulfanylbutan-2-yl]amino]-1-oxopropan-2-yl]amino]-1-oxobutan-2-yl]amino]-1-oxo-3,3-diphenylpropan-2-yl]amino]-5-oxopentanoic acid
> <PUBCHEM_IUPAC_SYSTEMATIC_NAME>
(4S)-4-[[(2S)-2-acetamido-4-oxidanyl-4-oxidanylidene-butanoyl]amino]-5-[[(2S)-1-[[(2S)-1-[[(2S)-3-cyclohexyl-1-[[(2R)-4-(2-cyclohexylethylamino)-3,4-bis(oxidanylidene)-1-sulfanyl-butan-2-yl]amino]-1-oxidanylidene-propan-2-yl]amino]-5-oxidanyl-1,5-bis(oxidanylidene)pentan-2-yl]amino]-1-oxidanylidene-3,3-diphenyl-propan-2-yl]amino]-5-oxidanylidene-pentanoic acid
> <PUBCHEM_IUPAC_TRADITIONAL_NAME>
(4S)-4-[[(2S)-2-acetamido-3-carboxy-propanoyl]amino]-5-[[(1S)-1-benzhydryl-2-[[(1S)-3-carboxy-1-[[(1S)-2-[[(1R)-3-(2-cyclohexylethylamino)-2,3-diketo-1-(mercaptomethyl)propyl]amino]-1-(cyclohexylmethyl)-2-keto-ethyl]carbamoyl]propyl]amino]-2-keto-ethyl]amino]-5-keto-valeric acid
> <PUBCHEM_IUPAC_INCHI>
InChI=1S/C52H71N7O14S/c1-31(60)54-39(29-43(65)66)50(71)55-37(23-25-42(63)64)48(69)59-45(44(34-18-10-4-11-19-34)35-20-12-5-13-21-35)51(72)56-36(22-24-41(61)62)47(68)57-38(28-33-16-8-3-9-17-33)49(70)58-40(30-74)46(67)52(73)53-27-26-32-14-6-2-7-15-32/h4-5,10-13,18-21,32-33,36-40,44-45,74H,2-3,6-9,14-17,22-30H2,1H3,(H,53,73)(H,54,60)(H,55,71)(H,56,72)(H,57,68)(H,58,70)(H,59,69)(H,61,62)(H,63,64)(H,65,66)/t36-,37-,38-,39-,40-,45-/m0/s1
> <PUBCHEM_IUPAC_INCHIKEY>
WHCDSTPBGQAZLG-VUKWIJDPSA-N
> <PUBCHEM_XLOGP3_AA>
4.8
> <PUBCHEM_EXACT_MASS>
1049.47797114
> <PUBCHEM_MOLECULAR_FORMULA>
C52H71N7O14S
> <PUBCHEM_MOLECULAR_WEIGHT>
1050.2
> <PUBCHEM_OPENEYE_CAN_SMILES>
CC(=O)NC(CC(=O)O)C(=O)NC(CCC(=O)O)C(=O)NC(C(C1=CC=CC=C1)C2=CC=CC=C2)C(=O)NC(CCC(=O)O)C(=O)NC(CC3CCCCC3)C(=O)NC(CS)C(=O)C(=O)NCCC4CCCCC4
> <PUBCHEM_OPENEYE_ISO_SMILES>
CC(=O)N[C@@H](CC(=O)O)C(=O)N[C@@H](CCC(=O)O)C(=O)N[C@@H](C(C1=CC=CC=C1)C2=CC=CC=C2)C(=O)N[C@@H](CCC(=O)O)C(=O)N[C@@H](CC3CCCCC3)C(=O)N[C@@H](CS)C(=O)C(=O)NCCC4CCCCC4
> <PUBCHEM_CACTVS_TPSA>
334
> <PUBCHEM_MONOISOTOPIC_WEIGHT>
1049.47797114
> <PUBCHEM_TOTAL_CHARGE>
0
> <PUBCHEM_HEAVY_ATOM_COUNT>
74
> <PUBCHEM_ATOM_DEF_STEREO_COUNT>
6
> <PUBCHEM_ATOM_UDEF_STEREO_COUNT>
0
> <PUBCHEM_BOND_DEF_STEREO_COUNT>
0
> <PUBCHEM_BOND_UDEF_STEREO_COUNT>
0
> <PUBCHEM_ISOTOPIC_ATOM_COUNT>
0
> <PUBCHEM_COMPONENT_COUNT>
1
> <PUBCHEM_CACTVS_TAUTO_COUNT>
-1
> <PUBCHEM_COORDINATE_TYPE>
1
5
255
> <PUBCHEM_BONDANNOTATIONS>
31  16  6
42  17  6
41  19  5
47  20  6
55  21  6
69  22  5
51  56  8
51  58  8
52  57  8
52  59  8
56  61  8
57  62  8
58  63  8
59  64  8
61  66  8
62  67  8
63  66  8
64  67  8
$$$$
