503485
  -OEChem-10302200282D
 78 78  0     1  0  0  0  0  0999 V2000
    6.3301   -0.8100    0.0000 S   0  0  0  0  0  0  0  0  0  0  0  0
    6.3301    0.1900    0.0000 O   0  0  0  0  0  0  0  0  0  0  0  0
   10.6603    1.6900    0.0000 O   0  0  0  0  0  0  0  0  0  0  0  0
    7.1962    0.6900    0.0000 O   0  0  0  0  0  0  0  0  0  0  0  0
    2.8660   -0.8100    0.0000 O   0  0  0  0  0  0  0  0  0  0  0  0
    9.7942    3.1900    0.0000 O   0  0  0  0  0  0  0  0  0  0  0  0
    9.7942    5.1900    0.0000 O   0  0  0  0  0  0  0  0  0  0  0  0
    8.0622    5.1900    0.0000 O   0  0  0  0  0  0  0  0  0  0  0  0
    6.3301    2.1900    0.0000 N   0  0  0  0  0  0  0  0  0  0  0  0
    4.5981    0.1900    0.0000 N   0  0  0  0  0  0  0  0  0  0  0  0
    8.9282    1.6900    0.0000 N   0  0  0  0  0  0  0  0  0  0  0  0
    3.7320   -2.3100    0.0000 N   0  0  0  0  0  0  0  0  0  0  0  0
    5.4641    1.6900    0.0000 C   0  0  1  0  0  0  0  0  0  0  0  0
    4.5981    2.1900    0.0000 C   0  0  0  0  0  0  0  0  0  0  0  0
    4.5981    3.1900    0.0000 C   0  0  0  0  0  0  0  0  0  0  0  0
    8.0622    2.1900    0.0000 C   0  0  2  0  0  0  0  0  0  0  0  0
    5.4641    0.6900    0.0000 C   0  0  0  0  0  0  0  0  0  0  0  0
    3.7320    3.6900    0.0000 C   0  0  0  0  0  0  0  0  0  0  0  0
    5.4641    3.6900    0.0000 C   0  0  0  0  0  0  0  0  0  0  0  0
    7.1962    1.6900    0.0000 C   0  0  0  0  0  0  0  0  0  0  0  0
    8.0622    3.1900    0.0000 C   0  0  0  0  0  0  0  0  0  0  0  0
    4.5981   -0.8100    0.0000 C   0  0  1  0  0  0  0  0  0  0  0  0
    8.9282    3.6900    0.0000 C   0  0  0  0  0  0  0  0  0  0  0  0
   11.5263    2.1900    0.0000 C   0  0  0  0  0  0  0  0  0  0  0  0
    5.4641   -1.3100    0.0000 C   0  0  0  0  0  0  0  0  0  0  0  0
    3.7320   -1.3100    0.0000 C   0  0  0  0  0  0  0  0  0  0  0  0
    9.7942    2.1900    0.0000 C   0  0  0  0  0  0  0  0  0  0  0  0
    8.9282    4.6900    0.0000 C   0  0  0  0  0  0  0  0  0  0  0  0
   12.3923    2.6900    0.0000 C   0  0  0  0  0  0  0  0  0  0  0  0
   12.0263    1.3240    0.0000 C   0  0  0  0  0  0  0  0  0  0  0  0
   11.0263    3.0560    0.0000 C   0  0  0  0  0  0  0  0  0  0  0  0
    2.8660   -2.8100    0.0000 C   0  0  0  0  0  0  0  0  0  0  0  0
    2.8660   -3.8100    0.0000 C   0  0  0  0  0  0  0  0  0  0  0  0
    3.7320   -4.3100    0.0000 C   0  0  0  0  0  0  0  0  0  0  0  0
    2.0000   -4.3100    0.0000 C   0  0  0  0  0  0  0  0  0  0  0  0
    3.7320   -5.3100    0.0000 C   0  0  0  0  0  0  0  0  0  0  0  0
    2.0000   -5.3100    0.0000 C   0  0  0  0  0  0  0  0  0  0  0  0
    2.8660   -5.8100    0.0000 C   0  0  0  0  0  0  0  0  0  0  0  0
    5.4641    2.3100    0.0000 H   0  0  0  0  0  0  0  0  0  0  0  0
    3.9875    2.2977    0.0000 H   0  0  0  0  0  0  0  0  0  0  0  0
    4.3860    1.6074    0.0000 H   0  0  0  0  0  0  0  0  0  0  0  0
    4.5981    3.8100    0.0000 H   0  0  0  0  0  0  0  0  0  0  0  0
    6.3301    2.8100    0.0000 H   0  0  0  0  0  0  0  0  0  0  0  0
    8.0622    1.5700    0.0000 H   0  0  0  0  0  0  0  0  0  0  0  0
    4.0420    4.2269    0.0000 H   0  0  0  0  0  0  0  0  0  0  0  0
    3.1951    4.0000    0.0000 H   0  0  0  0  0  0  0  0  0  0  0  0
    3.4220    3.1531    0.0000 H   0  0  0  0  0  0  0  0  0  0  0  0
    5.7741    3.1531    0.0000 H   0  0  0  0  0  0  0  0  0  0  0  0
    6.0010    4.0000    0.0000 H   0  0  0  0  0  0  0  0  0  0  0  0
    5.1541    4.2269    0.0000 H   0  0  0  0  0  0  0  0  0  0  0  0
    7.8501    3.7726    0.0000 H   0  0  0  0  0  0  0  0  0  0  0  0
    7.4516    3.0823    0.0000 H   0  0  0  0  0  0  0  0  0  0  0  0
    4.0611    0.5000    0.0000 H   0  0  0  0  0  0  0  0  0  0  0  0
    5.1350   -0.5000    0.0000 H   0  0  0  0  0  0  0  0  0  0  0  0
    8.9282    1.0700    0.0000 H   0  0  0  0  0  0  0  0  0  0  0  0
    9.1403    3.1074    0.0000 H   0  0  0  0  0  0  0  0  0  0  0  0
    9.5388    3.7977    0.0000 H   0  0  0  0  0  0  0  0  0  0  0  0
    5.0656   -1.7850    0.0000 H   0  0  0  0  0  0  0  0  0  0  0  0
    5.8626   -1.7850    0.0000 H   0  0  0  0  0  0  0  0  0  0  0  0
   12.7023    2.1531    0.0000 H   0  0  0  0  0  0  0  0  0  0  0  0
   12.9292    3.0000    0.0000 H   0  0  0  0  0  0  0  0  0  0  0  0
   12.0823    3.2269    0.0000 H   0  0  0  0  0  0  0  0  0  0  0  0
   11.4893    1.0140    0.0000 H   0  0  0  0  0  0  0  0  0  0  0  0
   12.3363    0.7870    0.0000 H   0  0  0  0  0  0  0  0  0  0  0  0
   12.5632    1.6340    0.0000 H   0  0  0  0  0  0  0  0  0  0  0  0
   11.5632    3.3660    0.0000 H   0  0  0  0  0  0  0  0  0  0  0  0
   10.7163    3.5930    0.0000 H   0  0  0  0  0  0  0  0  0  0  0  0
   10.4893    2.7460    0.0000 H   0  0  0  0  0  0  0  0  0  0  0  0
    4.2690   -2.6200    0.0000 H   0  0  0  0  0  0  0  0  0  0  0  0
    2.6540   -2.2274    0.0000 H   0  0  0  0  0  0  0  0  0  0  0  0
    2.2554   -2.9177    0.0000 H   0  0  0  0  0  0  0  0  0  0  0  0
    6.8671   -1.1200    0.0000 H   0  0  0  0  0  0  0  0  0  0  0  0
    9.7942    5.8100    0.0000 H   0  0  0  0  0  0  0  0  0  0  0  0
    4.2690   -4.0000    0.0000 H   0  0  0  0  0  0  0  0  0  0  0  0
    1.4631   -4.0000    0.0000 H   0  0  0  0  0  0  0  0  0  0  0  0
    4.2690   -5.6200    0.0000 H   0  0  0  0  0  0  0  0  0  0  0  0
    1.4631   -5.6200    0.0000 H   0  0  0  0  0  0  0  0  0  0  0  0
    2.8660   -6.4300    0.0000 H   0  0  0  0  0  0  0  0  0  0  0  0
  1 25  1  0  0  0  0
  1 72  1  0  0  0  0
  2 17  2  0  0  0  0
  3 24  1  0  0  0  0
  3 27  1  0  0  0  0
  4 20  2  0  0  0  0
  5 26  2  0  0  0  0
  6 27  2  0  0  0  0
  7 28  1  0  0  0  0
  7 73  1  0  0  0  0
  8 28  2  0  0  0  0
 13  9  1  6  0  0  0
  9 20  1  0  0  0  0
  9 43  1  0  0  0  0
 10 17  1  0  0  0  0
 22 10  1  1  0  0  0
 10 53  1  0  0  0  0
 16 11  1  6  0  0  0
 11 27  1  0  0  0  0
 11 55  1  0  0  0  0
 12 26  1  0  0  0  0
 12 32  1  0  0  0  0
 12 69  1  0  0  0  0
 13 14  1  0  0  0  0
 13 17  1  0  0  0  0
 13 39  1  0  0  0  0
 14 15  1  0  0  0  0
 14 40  1  0  0  0  0
 14 41  1  0  0  0  0
 15 18  1  0  0  0  0
 15 19  1  0  0  0  0
 15 42  1  0  0  0  0
 16 20  1  0  0  0  0
 16 21  1  0  0  0  0
 16 44  1  0  0  0  0
 18 45  1  0  0  0  0
 18 46  1  0  0  0  0
 18 47  1  0  0  0  0
 19 48  1  0  0  0  0
 19 49  1  0  0  0  0
 19 50  1  0  0  0  0
 21 23  1  0  0  0  0
 21 51  1  0  0  0  0
 21 52  1  0  0  0  0
 22 25  1  0  0  0  0
 22 26  1  0  0  0  0
 22 54  1  0  0  0  0
 23 28  1  0  0  0  0
 23 56  1  0  0  0  0
 23 57  1  0  0  0  0
 24 29  1  0  0  0  0
 24 30  1  0  0  0  0
 24 31  1  0  0  0  0
 25 58  1  0  0  0  0
 25 59  1  0  0  0  0
 29 60  1  0  0  0  0
 29 61  1  0  0  0  0
 29 62  1  0  0  0  0
 30 63  1  0  0  0  0
 30 64  1  0  0  0  0
 30 65  1  0  0  0  0
 31 66  1  0  0  0  0
 31 67  1  0  0  0  0
 31 68  1  0  0  0  0
 32 33  1  0  0  0  0
 32 70  1  0  0  0  0
 32 71  1  0  0  0  0
 33 34  2  0  0  0  0
 33 35  1  0  0  0  0
 34 36  1  0  0  0  0
 34 74  1  0  0  0  0
 35 37  2  0  0  0  0
 35 75  1  0  0  0  0
 36 38  2  0  0  0  0
 36 76  1  0  0  0  0
 37 38  1  0  0  0  0
 37 77  1  0  0  0  0
 38 78  1  0  0  0  0
M  END
> <PUBCHEM_COMPOUND_CID>
503485
> <PUBCHEM_COMPOUND_CANONICALIZED>
1
> <PUBCHEM_CACTVS_COMPLEXITY>
810
> <PUBCHEM_CACTVS_HBOND_ACCEPTOR>
8
> <PUBCHEM_CACTVS_HBOND_DONOR>
6
> <PUBCHEM_CACTVS_ROTATABLE_BOND>
16
> <PUBCHEM_CACTVS_SUBSKEYS>
AAADcfB7uABAAAAAAAAAAAAAAAAAAAAAAAAwAAAAAAAAAAABAAAAHgQQCAAADWzF2ASyCILABgSIAiHSGACCAAAgAAAIiIGIBIkIYDKAkTGcYAhklgCIiAe8lwIOAAAAAAAAAAAAAAAAAAAAAAAAAAAAAA==
> <PUBCHEM_IUPAC_OPENEYE_NAME>
(4S)-5-[[(1S)-1-[[(1R)-2-(benzylamino)-2-oxo-1-(sulfanylmethyl)ethyl]carbamoyl]-3-methyl-butyl]amino]-4-(tert-butoxycarbonylamino)-5-oxo-pentanoic acid
> <PUBCHEM_IUPAC_CAS_NAME>
(4S)-5-[[(2S)-1-[[(2R)-3-mercapto-1-oxo-1-[(phenylmethyl)amino]propan-2-yl]amino]-4-methyl-1-oxopentan-2-yl]amino]-4-[[(2-methylpropan-2-yl)oxy-oxomethyl]amino]-5-oxopentanoic acid
> <PUBCHEM_IUPAC_NAME_MARKUP>
(4<I>S</I>)-5-[[(2<I>S</I>)-1-[[(2<I>R</I>)-1-(benzylamino)-1-oxo-3-sulfanylpropan-2-yl]amino]-4-methyl-1-oxopentan-2-yl]amino]-4-[(2-methylpropan-2-yl)oxycarbonylamino]-5-oxopentanoic acid
> <PUBCHEM_IUPAC_NAME>
(4S)-5-[[(2S)-1-[[(2R)-1-(benzylamino)-1-oxo-3-sulfanylpropan-2-yl]amino]-4-methyl-1-oxopentan-2-yl]amino]-4-[(2-methylpropan-2-yl)oxycarbonylamino]-5-oxopentanoic acid
> <PUBCHEM_IUPAC_SYSTEMATIC_NAME>
(4S)-5-[[(2S)-4-methyl-1-oxidanylidene-1-[[(2R)-1-oxidanylidene-1-[(phenylmethyl)amino]-3-sulfanyl-propan-2-yl]amino]pentan-2-yl]amino]-4-[(2-methylpropan-2-yl)oxycarbonylamino]-5-oxidanylidene-pentanoic acid
> <PUBCHEM_IUPAC_TRADITIONAL_NAME>
(4S)-5-[[(1S)-1-[[(1R)-2-(benzylamino)-2-keto-1-(mercaptomethyl)ethyl]carbamoyl]-3-methyl-butyl]amino]-4-(tert-butoxycarbonylamino)-5-keto-valeric acid
> <PUBCHEM_IUPAC_INCHI>
InChI=1S/C26H40N4O7S/c1-16(2)13-19(24(35)29-20(15-38)22(33)27-14-17-9-7-6-8-10-17)28-23(34)18(11-12-21(31)32)30-25(36)37-26(3,4)5/h6-10,16,18-20,38H,11-15H2,1-5H3,(H,27,33)(H,28,34)(H,29,35)(H,30,36)(H,31,32)/t18-,19-,20-/m0/s1
> <PUBCHEM_IUPAC_INCHIKEY>
IVPGWQINJKEEMV-UFYCRDLUSA-N
> <PUBCHEM_XLOGP3_AA>
2.4
> <PUBCHEM_EXACT_MASS>
552.26177080
> <PUBCHEM_MOLECULAR_FORMULA>
C26H40N4O7S
> <PUBCHEM_MOLECULAR_WEIGHT>
552.7
> <PUBCHEM_OPENEYE_CAN_SMILES>
CC(C)CC(C(=O)NC(CS)C(=O)NCC1=CC=CC=C1)NC(=O)C(CCC(=O)O)NC(=O)OC(C)(C)C
> <PUBCHEM_OPENEYE_ISO_SMILES>
CC(C)C[C@@H](C(=O)N[C@@H](CS)C(=O)NCC1=CC=CC=C1)NC(=O)[C@H](CCC(=O)O)NC(=O)OC(C)(C)C
> <PUBCHEM_CACTVS_TPSA>
164
> <PUBCHEM_MONOISOTOPIC_WEIGHT>
552.26177080
> <PUBCHEM_TOTAL_CHARGE>
0
> <PUBCHEM_HEAVY_ATOM_COUNT>
38
> <PUBCHEM_ATOM_DEF_STEREO_COUNT>
3
> <PUBCHEM_ATOM_UDEF_STEREO_COUNT>
0
> <PUBCHEM_BOND_DEF_STEREO_COUNT>
0
> <PUBCHEM_BOND_UDEF_STEREO_COUNT>
0
> <PUBCHEM_ISOTOPIC_ATOM_COUNT>
0
> <PUBCHEM_COMPONENT_COUNT>
1
> <PUBCHEM_CACTVS_TAUTO_COUNT>
-1
> <PUBCHEM_COORDINATE_TYPE>
1
5
255
> <PUBCHEM_BONDANNOTATIONS>
22  10  5
16  11  6
33  34  8
33  35  8
34  36  8
35  37  8
36  38  8
37  38  8
13  9  6
$$$$
