503473
  -OEChem-10302200282D
140143  0     1  0  0  0  0  0999 V2000
   11.5263    4.5420    0.0000 F   0  0  0  0  0  0  0  0  0  0  0  0
   13.0263    3.6760    0.0000 F   0  0  0  0  0  0  0  0  0  0  0  0
   12.3923    1.3100    0.0000 O   0  0  0  0  0  0  0  0  0  0  0  0
   11.5263   -2.1900    0.0000 O   0  0  0  0  0  0  0  0  0  0  0  0
    8.0622   -3.1900    0.0000 O   0  0  0  0  0  0  0  0  0  0  0  0
    8.9282    2.3100    0.0000 O   0  0  0  0  0  0  0  0  0  0  0  0
    8.9282    4.3100    0.0000 O   0  0  0  0  0  0  0  0  0  0  0  0
    8.0622    0.8100    0.0000 O   0  0  0  0  0  0  0  0  0  0  0  0
    7.1962   -0.6900    0.0000 O   0  0  0  0  0  0  0  0  0  0  0  0
    7.1962   -3.6900    0.0000 O   0  0  0  0  0  0  0  0  0  0  0  0
    4.5981   -6.1900    0.0000 O   0  0  0  0  0  0  0  0  0  0  0  0
    4.5981   -8.1900    0.0000 O   0  0  0  0  0  0  0  0  0  0  0  0
    6.3301   -8.1900    0.0000 O   0  0  0  0  0  0  0  0  0  0  0  0
    2.8660   -2.1900    0.0000 O   0  0  0  0  0  0  0  0  0  0  0  0
    2.0000   -3.6900    0.0000 O   0  0  0  0  0  0  0  0  0  0  0  0
    3.7320   -6.6900    0.0000 O   0  0  0  0  0  0  0  0  0  0  0  0
   10.6603   -0.6900    0.0000 N   0  0  0  0  0  0  0  0  0  0  0  0
   10.6603    1.3100    0.0000 N   0  0  0  0  0  0  0  0  0  0  0  0
    9.7942   -3.1900    0.0000 N   0  0  0  0  0  0  0  0  0  0  0  0
    8.0622   -5.1900    0.0000 N   0  0  0  0  0  0  0  0  0  0  0  0
    9.7942    3.8100    0.0000 N   0  0  0  0  0  0  0  0  0  0  0  0
    5.4641   -4.6900    0.0000 N   0  0  0  0  0  0  0  0  0  0  0  0
    2.8660   -5.1900    0.0000 N   0  0  0  0  0  0  0  0  0  0  0  0
   13.2583   -0.1900    0.0000 C   0  0  0  0  0  0  0  0  0  0  0  0
   13.2583    0.8100    0.0000 C   0  0  0  0  0  0  0  0  0  0  0  0
   14.1244   -0.6900    0.0000 C   0  0  0  0  0  0  0  0  0  0  0  0
   12.3923   -0.6900    0.0000 C   0  0  0  0  0  0  0  0  0  0  0  0
   14.1244    1.3100    0.0000 C   0  0  0  0  0  0  0  0  0  0  0  0
   14.9904   -0.1900    0.0000 C   0  0  0  0  0  0  0  0  0  0  0  0
   14.9904    0.8100    0.0000 C   0  0  0  0  0  0  0  0  0  0  0  0
   11.5263   -0.1900    0.0000 C   0  0  1  0  0  0  0  0  0  0  0  0
   11.5263    0.8100    0.0000 C   0  0  0  0  0  0  0  0  0  0  0  0
   10.6603   -1.6900    0.0000 C   0  0  0  0  0  0  0  0  0  0  0  0
    9.7942   -2.1900    0.0000 C   0  0  2  0  0  0  0  0  0  0  0  0
   10.6603    2.3100    0.0000 C   0  0  1  0  0  0  0  0  0  0  0  0
    8.9282   -1.6900    0.0000 C   0  0  0  0  0  0  0  0  0  0  0  0
   11.5263    2.8100    0.0000 C   0  0  0  0  0  0  0  0  0  0  0  0
    8.9282   -4.6900    0.0000 C   0  0  2  0  0  0  0  0  0  0  0  0
    8.9282   -0.6900    0.0000 C   0  0  0  0  0  0  0  0  0  0  0  0
    8.9282   -3.6900    0.0000 C   0  0  0  0  0  0  0  0  0  0  0  0
    9.7942    2.8100    0.0000 C   0  0  0  0  0  0  0  0  0  0  0  0
    9.7942   -5.1900    0.0000 C   0  0  0  0  0  0  0  0  0  0  0  0
   12.0263    3.6760    0.0000 C   0  0  0  0  0  0  0  0  0  0  0  0
    9.7942   -6.1900    0.0000 C   0  0  0  0  0  0  0  0  0  0  0  0
   10.7942   -5.1900    0.0000 C   0  0  0  0  0  0  0  0  0  0  0  0
    8.0622   -0.1900    0.0000 C   0  0  0  0  0  0  0  0  0  0  0  0
    7.1962   -4.6900    0.0000 C   0  0  0  0  0  0  0  0  0  0  0  0
    6.3301   -5.1900    0.0000 C   0  0  2  0  0  0  0  0  0  0  0  0
   10.6603   -6.6900    0.0000 C   0  0  0  0  0  0  0  0  0  0  0  0
   11.2942   -4.3240    0.0000 C   0  0  0  0  0  0  0  0  0  0  0  0
    8.9282   -6.6900    0.0000 C   0  0  0  0  0  0  0  0  0  0  0  0
   11.2942   -6.0560    0.0000 C   0  0  0  0  0  0  0  0  0  0  0  0
    6.3301   -6.1900    0.0000 C   0  0  0  0  0  0  0  0  0  0  0  0
   10.6603   -7.6900    0.0000 C   0  0  0  0  0  0  0  0  0  0  0  0
   12.2942   -4.3240    0.0000 C   0  0  0  0  0  0  0  0  0  0  0  0
    8.9282   -7.6900    0.0000 C   0  0  0  0  0  0  0  0  0  0  0  0
   12.2942   -6.0560    0.0000 C   0  0  0  0  0  0  0  0  0  0  0  0
    5.4641   -6.6900    0.0000 C   0  0  0  0  0  0  0  0  0  0  0  0
    9.7942   -8.1900    0.0000 C   0  0  0  0  0  0  0  0  0  0  0  0
   12.7942   -5.1900    0.0000 C   0  0  0  0  0  0  0  0  0  0  0  0
    8.9282    5.3100    0.0000 C   0  0  0  0  0  0  0  0  0  0  0  0
    4.5981   -5.1900    0.0000 C   0  0  0  0  0  0  0  0  0  0  0  0
    3.7320   -4.6900    0.0000 C   0  0  2  0  0  0  0  0  0  0  0  0
    8.0622    5.8100    0.0000 C   0  0  0  0  0  0  0  0  0  0  0  0
    5.4641   -7.6900    0.0000 C   0  0  0  0  0  0  0  0  0  0  0  0
    3.7320   -3.6900    0.0000 C   0  0  0  0  0  0  0  0  0  0  0  0
    8.0622    6.8100    0.0000 C   0  0  0  0  0  0  0  0  0  0  0  0
    2.8660   -3.1900    0.0000 C   0  0  0  0  0  0  0  0  0  0  0  0
    2.8660   -6.1900    0.0000 C   0  0  0  0  0  0  0  0  0  0  0  0
    8.9282    7.3100    0.0000 C   0  0  0  0  0  0  0  0  0  0  0  0
    7.1962    7.3100    0.0000 C   0  0  0  0  0  0  0  0  0  0  0  0
    2.0000   -6.6900    0.0000 C   0  0  0  0  0  0  0  0  0  0  0  0
    8.9282    8.3100    0.0000 C   0  0  0  0  0  0  0  0  0  0  0  0
    7.1962    8.3100    0.0000 C   0  0  0  0  0  0  0  0  0  0  0  0
    8.0622    8.8100    0.0000 C   0  0  0  0  0  0  0  0  0  0  0  0
   13.2583   -0.8100    0.0000 H   0  0  0  0  0  0  0  0  0  0  0  0
   13.0463    1.3926    0.0000 H   0  0  0  0  0  0  0  0  0  0  0  0
   12.6477    0.7023    0.0000 H   0  0  0  0  0  0  0  0  0  0  0  0
   13.7258   -1.1650    0.0000 H   0  0  0  0  0  0  0  0  0  0  0  0
   14.5229   -1.1650    0.0000 H   0  0  0  0  0  0  0  0  0  0  0  0
   11.9938   -1.1650    0.0000 H   0  0  0  0  0  0  0  0  0  0  0  0
   12.7908   -1.1650    0.0000 H   0  0  0  0  0  0  0  0  0  0  0  0
   14.5229    1.7850    0.0000 H   0  0  0  0  0  0  0  0  0  0  0  0
   13.7258    1.7850    0.0000 H   0  0  0  0  0  0  0  0  0  0  0  0
   15.2024   -0.7726    0.0000 H   0  0  0  0  0  0  0  0  0  0  0  0
   15.6010   -0.0823    0.0000 H   0  0  0  0  0  0  0  0  0  0  0  0
   15.6010    0.7023    0.0000 H   0  0  0  0  0  0  0  0  0  0  0  0
   15.2024    1.3926    0.0000 H   0  0  0  0  0  0  0  0  0  0  0  0
   10.9893    0.1200    0.0000 H   0  0  0  0  0  0  0  0  0  0  0  0
   10.1233   -0.3800    0.0000 H   0  0  0  0  0  0  0  0  0  0  0  0
   10.1233    1.0000    0.0000 H   0  0  0  0  0  0  0  0  0  0  0  0
    9.2573   -2.5000    0.0000 H   0  0  0  0  0  0  0  0  0  0  0  0
   11.1972    2.0000    0.0000 H   0  0  0  0  0  0  0  0  0  0  0  0
    8.3176   -1.5823    0.0000 H   0  0  0  0  0  0  0  0  0  0  0  0
    8.7162   -2.2726    0.0000 H   0  0  0  0  0  0  0  0  0  0  0  0
   10.3312   -3.5000    0.0000 H   0  0  0  0  0  0  0  0  0  0  0  0
   11.6339    2.1994    0.0000 H   0  0  0  0  0  0  0  0  0  0  0  0
   11.0879    3.2484    0.0000 H   0  0  0  0  0  0  0  0  0  0  0  0
    8.9282   -5.3100    0.0000 H   0  0  0  0  0  0  0  0  0  0  0  0
    9.5388   -0.7977    0.0000 H   0  0  0  0  0  0  0  0  0  0  0  0
    9.1403   -0.1074    0.0000 H   0  0  0  0  0  0  0  0  0  0  0  0
    9.9547   -4.5911    0.0000 H   0  0  0  0  0  0  0  0  0  0  0  0
   11.4063    3.6760    0.0000 H   0  0  0  0  0  0  0  0  0  0  0  0
    8.0622   -5.8100    0.0000 H   0  0  0  0  0  0  0  0  0  0  0  0
   10.1042    4.3469    0.0000 H   0  0  0  0  0  0  0  0  0  0  0  0
    5.7932   -5.5000    0.0000 H   0  0  0  0  0  0  0  0  0  0  0  0
   11.1972   -6.3800    0.0000 H   0  0  0  0  0  0  0  0  0  0  0  0
   10.9842   -3.7870    0.0000 H   0  0  0  0  0  0  0  0  0  0  0  0
    8.3913   -6.3800    0.0000 H   0  0  0  0  0  0  0  0  0  0  0  0
   10.9842   -6.5930    0.0000 H   0  0  0  0  0  0  0  0  0  0  0  0
    6.5422   -6.7726    0.0000 H   0  0  0  0  0  0  0  0  0  0  0  0
    6.9407   -6.0823    0.0000 H   0  0  0  0  0  0  0  0  0  0  0  0
    5.4641   -4.0700    0.0000 H   0  0  0  0  0  0  0  0  0  0  0  0
   11.1972   -8.0000    0.0000 H   0  0  0  0  0  0  0  0  0  0  0  0
   12.6042   -3.7870    0.0000 H   0  0  0  0  0  0  0  0  0  0  0  0
    8.3913   -8.0000    0.0000 H   0  0  0  0  0  0  0  0  0  0  0  0
   12.6042   -6.5930    0.0000 H   0  0  0  0  0  0  0  0  0  0  0  0
    5.2520   -6.1074    0.0000 H   0  0  0  0  0  0  0  0  0  0  0  0
    4.8535   -6.7977    0.0000 H   0  0  0  0  0  0  0  0  0  0  0  0
    7.5252    1.1200    0.0000 H   0  0  0  0  0  0  0  0  0  0  0  0
    9.7942   -8.8100    0.0000 H   0  0  0  0  0  0  0  0  0  0  0  0
   13.4142   -5.1900    0.0000 H   0  0  0  0  0  0  0  0  0  0  0  0
    9.5388    5.2023    0.0000 H   0  0  0  0  0  0  0  0  0  0  0  0
    9.1403    5.8926    0.0000 H   0  0  0  0  0  0  0  0  0  0  0  0
    3.7320   -5.3100    0.0000 H   0  0  0  0  0  0  0  0  0  0  0  0
    7.4516    5.9177    0.0000 H   0  0  0  0  0  0  0  0  0  0  0  0
    7.8501    5.2274    0.0000 H   0  0  0  0  0  0  0  0  0  0  0  0
    4.3426   -3.7977    0.0000 H   0  0  0  0  0  0  0  0  0  0  0  0
    3.9441   -3.1074    0.0000 H   0  0  0  0  0  0  0  0  0  0  0  0
    2.3291   -4.8800    0.0000 H   0  0  0  0  0  0  0  0  0  0  0  0
    4.5981   -8.8100    0.0000 H   0  0  0  0  0  0  0  0  0  0  0  0
    9.4651    7.0000    0.0000 H   0  0  0  0  0  0  0  0  0  0  0  0
    6.6592    7.0000    0.0000 H   0  0  0  0  0  0  0  0  0  0  0  0
    1.6900   -6.1531    0.0000 H   0  0  0  0  0  0  0  0  0  0  0  0
    1.4631   -7.0000    0.0000 H   0  0  0  0  0  0  0  0  0  0  0  0
    2.3100   -7.2269    0.0000 H   0  0  0  0  0  0  0  0  0  0  0  0
    9.4651    8.6200    0.0000 H   0  0  0  0  0  0  0  0  0  0  0  0
    6.6592    8.6200    0.0000 H   0  0  0  0  0  0  0  0  0  0  0  0
    2.3291   -1.8800    0.0000 H   0  0  0  0  0  0  0  0  0  0  0  0
    8.0622    9.4300    0.0000 H   0  0  0  0  0  0  0  0  0  0  0  0
  1 43  1  0  0  0  0
  2 43  1  0  0  0  0
  3 32  2  0  0  0  0
  4 33  2  0  0  0  0
  5 40  2  0  0  0  0
  6 41  2  0  0  0  0
  7 21  1  0  0  0  0
  7 61  1  0  0  0  0
  8 46  1  0  0  0  0
  8120  1  0  0  0  0
  9 46  2  0  0  0  0
 10 47  2  0  0  0  0
 11 62  2  0  0  0  0
 12 65  1  0  0  0  0
 12131  1  0  0  0  0
 13 65  2  0  0  0  0
 14 68  1  0  0  0  0
 14139  1  0  0  0  0
 15 68  2  0  0  0  0
 16 69  2  0  0  0  0
 31 17  1  6  0  0  0
 17 33  1  0  0  0  0
 17 90  1  0  0  0  0
 18 32  1  0  0  0  0
 35 18  1  6  0  0  0
 18 91  1  0  0  0  0
 34 19  1  1  0  0  0
 19 40  1  0  0  0  0
 19 96  1  0  0  0  0
 38 20  1  6  0  0  0
 20 47  1  0  0  0  0
 20104  1  0  0  0  0
 21 41  1  0  0  0  0
 21105  1  0  0  0  0
 48 22  1  6  0  0  0
 22 62  1  0  0  0  0
 22113  1  0  0  0  0
 63 23  1  1  0  0  0
 23 69  1  0  0  0  0
 23130  1  0  0  0  0
 24 25  1  0  0  0  0
 24 26  1  0  0  0  0
 24 27  1  0  0  0  0
 24 76  1  0  0  0  0
 25 28  1  0  0  0  0
 25 77  1  0  0  0  0
 25 78  1  0  0  0  0
 26 29  1  0  0  0  0
 26 79  1  0  0  0  0
 26 80  1  0  0  0  0
 27 31  1  0  0  0  0
 27 81  1  0  0  0  0
 27 82  1  0  0  0  0
 28 30  1  0  0  0  0
 28 83  1  0  0  0  0
 28 84  1  0  0  0  0
 29 30  1  0  0  0  0
 29 85  1  0  0  0  0
 29 86  1  0  0  0  0
 30 87  1  0  0  0  0
 30 88  1  0  0  0  0
 31 32  1  0  0  0  0
 31 89  1  0  0  0  0
 33 34  1  0  0  0  0
 34 36  1  0  0  0  0
 34 92  1  0  0  0  0
 35 37  1  0  0  0  0
 35 41  1  0  0  0  0
 35 93  1  0  0  0  0
 36 39  1  0  0  0  0
 36 94  1  0  0  0  0
 36 95  1  0  0  0  0
 37 43  1  0  0  0  0
 37 97  1  0  0  0  0
 37 98  1  0  0  0  0
 38 40  1  0  0  0  0
 38 42  1  0  0  0  0
 38 99  1  0  0  0  0
 39 46  1  0  0  0  0
 39100  1  0  0  0  0
 39101  1  0  0  0  0
 42 44  1  0  0  0  0
 42 45  1  0  0  0  0
 42102  1  0  0  0  0
 43103  1  0  0  0  0
 44 49  2  0  0  0  0
 44 51  1  0  0  0  0
 45 50  2  0  0  0  0
 45 52  1  0  0  0  0
 47 48  1  0  0  0  0
 48 53  1  0  0  0  0
 48106  1  0  0  0  0
 49 54  1  0  0  0  0
 49107  1  0  0  0  0
 50 55  1  0  0  0  0
 50108  1  0  0  0  0
 51 56  2  0  0  0  0
 51109  1  0  0  0  0
 52 57  2  0  0  0  0
 52110  1  0  0  0  0
 53 58  1  0  0  0  0
 53111  1  0  0  0  0
 53112  1  0  0  0  0
 54 59  2  0  0  0  0
 54114  1  0  0  0  0
 55 60  2  0  0  0  0
 55115  1  0  0  0  0
 56 59  1  0  0  0  0
 56116  1  0  0  0  0
 57 60  1  0  0  0  0
 57117  1  0  0  0  0
 58 65  1  0  0  0  0
 58118  1  0  0  0  0
 58119  1  0  0  0  0
 59121  1  0  0  0  0
 60122  1  0  0  0  0
 61 64  1  0  0  0  0
 61123  1  0  0  0  0
 61124  1  0  0  0  0
 62 63  1  0  0  0  0
 63 66  1  0  0  0  0
 63125  1  0  0  0  0
 64 67  1  0  0  0  0
 64126  1  0  0  0  0
 64127  1  0  0  0  0
 66 68  1  0  0  0  0
 66128  1  0  0  0  0
 66129  1  0  0  0  0
 67 70  2  0  0  0  0
 67 71  1  0  0  0  0
 69 72  1  0  0  0  0
 70 73  1  0  0  0  0
 70132  1  0  0  0  0
 71 74  2  0  0  0  0
 71133  1  0  0  0  0
 72134  1  0  0  0  0
 72135  1  0  0  0  0
 72136  1  0  0  0  0
 73 75  2  0  0  0  0
 73137  1  0  0  0  0
 74 75  1  0  0  0  0
 74138  1  0  0  0  0
 75140  1  0  0  0  0
M  END
> <PUBCHEM_COMPOUND_CID>
503473
> <PUBCHEM_COMPOUND_CANONICALIZED>
1
> <PUBCHEM_CACTVS_COMPLEXITY>
1890
> <PUBCHEM_CACTVS_HBOND_ACCEPTOR>
16
> <PUBCHEM_CACTVS_HBOND_DONOR>
10
> <PUBCHEM_CACTVS_ROTATABLE_BOND>
31
> <PUBCHEM_CACTVS_SUBSKEYS>
AAADcfB/vYAAAAAAAAAAAAAAAAAAAAAAAAAwYMGAAAAAAAABUAAAHwAUCAAADSjhmBYyCILQAgCIAiHSGAACAAAgAAAoiIGIAIgIYDqAkTGUYAAm1gGIiAe/3+KOgAAAAAAAAAAAAAAAAAAAAAAAAAAAAA==
> <PUBCHEM_IUPAC_OPENEYE_NAME>
(4S)-4-[[(2S)-2-acetamido-3-carboxy-propanoyl]amino]-5-[[(1S)-1-benzhydryl-2-[[(1S)-3-carboxy-1-[[(1S)-1-(cyclohexylmethyl)-2-[[(1S)-3,3-difluoro-1-(2-phenylethoxycarbamoyl)propyl]amino]-2-oxo-ethyl]carbamoyl]propyl]amino]-2-oxo-ethyl]amino]-5-oxo-pentanoic acid
> <PUBCHEM_IUPAC_CAS_NAME>
(4S)-4-[[(2S)-2-acetamido-3-carboxy-1-oxopropyl]amino]-5-[[(2S)-1-[[(2S)-4-carboxy-1-[[(2S)-3-cyclohexyl-1-[[(2S)-4,4-difluoro-1-oxo-1-(2-phenylethoxyamino)butan-2-yl]amino]-1-oxopropan-2-yl]amino]-1-oxobutan-2-yl]amino]-1-oxo-3,3-diphenylpropan-2-yl]amino]-5-oxopentanoic acid
> <PUBCHEM_IUPAC_NAME_MARKUP>
(4<I>S</I>)-4-[[(2<I>S</I>)-2-acetamido-3-carboxypropanoyl]amino]-5-[[(2<I>S</I>)-1-[[(2<I>S</I>)-4-carboxy-1-[[(2<I>S</I>)-3-cyclohexyl-1-[[(2<I>S</I>)-4,4-difluoro-1-oxo-1-(2-phenylethoxyamino)butan-2-yl]amino]-1-oxopropan-2-yl]amino]-1-oxobutan-2-yl]amino]-1-oxo-3,3-diphenylpropan-2-yl]amino]-5-oxopentanoic acid
> <PUBCHEM_IUPAC_NAME>
(4S)-4-[[(2S)-2-acetamido-3-carboxypropanoyl]amino]-5-[[(2S)-1-[[(2S)-4-carboxy-1-[[(2S)-3-cyclohexyl-1-[[(2S)-4,4-difluoro-1-oxo-1-(2-phenylethoxyamino)butan-2-yl]amino]-1-oxopropan-2-yl]amino]-1-oxobutan-2-yl]amino]-1-oxo-3,3-diphenylpropan-2-yl]amino]-5-oxopentanoic acid
> <PUBCHEM_IUPAC_SYSTEMATIC_NAME>
(4S)-4-[[(2S)-2-acetamido-4-oxidanyl-4-oxidanylidene-butanoyl]amino]-5-[[(2S)-1-[[(2S)-1-[[(2S)-1-[[(2S)-4,4-bis(fluoranyl)-1-oxidanylidene-1-(2-phenylethoxyamino)butan-2-yl]amino]-3-cyclohexyl-1-oxidanylidene-propan-2-yl]amino]-5-oxidanyl-1,5-bis(oxidanylidene)pentan-2-yl]amino]-1-oxidanylidene-3,3-diphenyl-propan-2-yl]amino]-5-oxidanylidene-pentanoic acid
> <PUBCHEM_IUPAC_TRADITIONAL_NAME>
(4S)-4-[[(2S)-2-acetamido-3-carboxy-propanoyl]amino]-5-[[(1S)-1-benzhydryl-2-[[(1S)-3-carboxy-1-[[(1S)-1-(cyclohexylmethyl)-2-[[(1S)-3,3-difluoro-1-(phenethoxycarbamoyl)propyl]amino]-2-keto-ethyl]carbamoyl]propyl]amino]-2-keto-ethyl]amino]-5-keto-valeric acid
> <PUBCHEM_IUPAC_INCHI>
InChI=1S/C52H65F2N7O14/c1-31(62)55-40(30-44(67)68)50(72)56-37(23-25-43(65)66)48(70)60-46(45(34-18-10-4-11-19-34)35-20-12-5-13-21-35)52(74)57-36(22-24-42(63)64)47(69)58-38(28-33-16-8-3-9-17-33)49(71)59-39(29-41(53)54)51(73)61-75-27-26-32-14-6-2-7-15-32/h2,4-7,10-15,18-21,33,36-41,45-46H,3,8-9,16-17,22-30H2,1H3,(H,55,62)(H,56,72)(H,57,74)(H,58,69)(H,59,71)(H,60,70)(H,61,73)(H,63,64)(H,65,66)(H,67,68)/t36-,37-,38-,39-,40-,46-/m0/s1
> <PUBCHEM_IUPAC_INCHIKEY>
CUDOKBXYKFIUBJ-ZVNYPHDXSA-N
> <PUBCHEM_XLOGP3_AA>
4.7
> <PUBCHEM_EXACT_MASS>
1049.45575610
> <PUBCHEM_MOLECULAR_FORMULA>
C52H65F2N7O14
> <PUBCHEM_MOLECULAR_WEIGHT>
1050.1
> <PUBCHEM_OPENEYE_CAN_SMILES>
CC(=O)NC(CC(=O)O)C(=O)NC(CCC(=O)O)C(=O)NC(C(C1=CC=CC=C1)C2=CC=CC=C2)C(=O)NC(CCC(=O)O)C(=O)NC(CC3CCCCC3)C(=O)NC(CC(F)F)C(=O)NOCCC4=CC=CC=C4
> <PUBCHEM_OPENEYE_ISO_SMILES>
CC(=O)N[C@@H](CC(=O)O)C(=O)N[C@@H](CCC(=O)O)C(=O)N[C@@H](C(C1=CC=CC=C1)C2=CC=CC=C2)C(=O)N[C@@H](CCC(=O)O)C(=O)N[C@@H](CC3CCCCC3)C(=O)N[C@@H](CC(F)F)C(=O)NOCCC4=CC=CC=C4
> <PUBCHEM_CACTVS_TPSA>
325
> <PUBCHEM_MONOISOTOPIC_WEIGHT>
1049.45575610
> <PUBCHEM_TOTAL_CHARGE>
0
> <PUBCHEM_HEAVY_ATOM_COUNT>
75
> <PUBCHEM_ATOM_DEF_STEREO_COUNT>
6
> <PUBCHEM_ATOM_UDEF_STEREO_COUNT>
0
> <PUBCHEM_BOND_DEF_STEREO_COUNT>
0
> <PUBCHEM_BOND_UDEF_STEREO_COUNT>
0
> <PUBCHEM_ISOTOPIC_ATOM_COUNT>
0
> <PUBCHEM_COMPONENT_COUNT>
1
> <PUBCHEM_CACTVS_TAUTO_COUNT>
-1
> <PUBCHEM_COORDINATE_TYPE>
1
5
255
> <PUBCHEM_BONDANNOTATIONS>
31  17  6
35  18  6
34  19  5
38  20  6
48  22  6
63  23  5
44  49  8
44  51  8
45  50  8
45  52  8
49  54  8
50  55  8
51  56  8
52  57  8
54  59  8
55  60  8
56  59  8
57  60  8
67  70  8
67  71  8
70  73  8
71  74  8
73  75  8
74  75  8
$$$$
