503461
  -OEChem-10302200282D
 45 48  0     1  0  0  0  0  0999 V2000
    2.3176   -3.8034    0.0000 F   0  0  0  0  0  0  0  0  0  0  0  0
    4.6783    0.1243    0.0000 N   0  0  0  0  0  0  0  0  0  0  0  0
    5.9674    2.8906    0.0000 N   0  0  0  0  0  0  0  0  0  0  0  0
    7.3701    3.6971    0.0000 N   0  0  0  0  0  0  0  0  0  0  0  0
    4.6783    1.7338    0.0000 C   0  0  0  0  0  0  0  0  0  0  0  0
    4.9889    2.6843    0.0000 C   0  0  3  0  0  0  0  0  0  0  0  0
    5.2619    0.9291    0.0000 C   0  0  0  0  0  0  0  0  0  0  0  0
    3.7320    1.4291    0.0000 C   0  0  0  0  0  0  0  0  0  0  0  0
    3.7320    0.4291    0.0000 C   0  0  0  0  0  0  0  0  0  0  0  0
    4.9889   -0.8262    0.0000 C   0  0  0  0  0  0  0  0  0  0  0  0
    4.3211    3.4286    0.0000 C   0  0  0  0  0  0  0  0  0  0  0  0
    6.2619    0.9291    0.0000 C   0  0  0  0  0  0  0  0  0  0  0  0
    2.8660    1.9291    0.0000 C   0  0  0  0  0  0  0  0  0  0  0  0
    2.8660   -0.0709    0.0000 C   0  0  0  0  0  0  0  0  0  0  0  0
    4.3211   -1.5705    0.0000 C   0  0  0  0  0  0  0  0  0  0  0  0
    2.0000    1.4291    0.0000 C   0  0  0  0  0  0  0  0  0  0  0  0
    2.0000    0.4291    0.0000 C   0  0  0  0  0  0  0  0  0  0  0  0
    6.7094    2.2201    0.0000 C   0  0  0  0  0  0  0  0  0  0  0  0
    6.3758    3.8034    0.0000 C   0  0  0  0  0  0  0  0  0  0  0  0
    3.3426   -1.3643    0.0000 C   0  0  0  0  0  0  0  0  0  0  0  0
    4.6318   -2.5210    0.0000 C   0  0  0  0  0  0  0  0  0  0  0  0
    7.5763    2.7186    0.0000 C   0  0  0  0  0  0  0  0  0  0  0  0
    2.6747   -2.1086    0.0000 C   0  0  0  0  0  0  0  0  0  0  0  0
    3.9639   -3.2653    0.0000 C   0  0  0  0  0  0  0  0  0  0  0  0
    2.9854   -3.0591    0.0000 C   0  0  0  0  0  0  0  0  0  0  0  0
    5.1815    3.2736    0.0000 H   0  0  0  0  0  0  0  0  0  0  0  0
    5.3715   -1.3141    0.0000 H   0  0  0  0  0  0  0  0  0  0  0  0
    5.5359   -0.5342    0.0000 H   0  0  0  0  0  0  0  0  0  0  0  0
    4.7826    3.8427    0.0000 H   0  0  0  0  0  0  0  0  0  0  0  0
    3.9070    3.8901    0.0000 H   0  0  0  0  0  0  0  0  0  0  0  0
    3.8596    3.0146    0.0000 H   0  0  0  0  0  0  0  0  0  0  0  0
    6.2619    0.3091    0.0000 H   0  0  0  0  0  0  0  0  0  0  0  0
    6.8819    0.9291    0.0000 H   0  0  0  0  0  0  0  0  0  0  0  0
    6.2619    1.5491    0.0000 H   0  0  0  0  0  0  0  0  0  0  0  0
    2.8660    2.5491    0.0000 H   0  0  0  0  0  0  0  0  0  0  0  0
    2.8660   -0.6909    0.0000 H   0  0  0  0  0  0  0  0  0  0  0  0
    1.4631    1.7391    0.0000 H   0  0  0  0  0  0  0  0  0  0  0  0
    1.4631    0.1191    0.0000 H   0  0  0  0  0  0  0  0  0  0  0  0
    6.6436    1.6036    0.0000 H   0  0  0  0  0  0  0  0  0  0  0  0
    6.0667    4.3409    0.0000 H   0  0  0  0  0  0  0  0  0  0  0  0
    3.1500   -0.7749    0.0000 H   0  0  0  0  0  0  0  0  0  0  0  0
    5.2384   -2.6489    0.0000 H   0  0  0  0  0  0  0  0  0  0  0  0
    8.1423    2.4655    0.0000 H   0  0  0  0  0  0  0  0  0  0  0  0
    2.0681   -1.9807    0.0000 H   0  0  0  0  0  0  0  0  0  0  0  0
    4.1565   -3.8546    0.0000 H   0  0  0  0  0  0  0  0  0  0  0  0
  1 25  1  0  0  0  0
  2  7  1  0  0  0  0
  2  9  1  0  0  0  0
  2 10  1  0  0  0  0
  3  6  1  0  0  0  0
  3 18  1  0  0  0  0
  3 19  1  0  0  0  0
  4 19  2  0  0  0  0
  4 22  1  0  0  0  0
  5  6  1  0  0  0  0
  5  7  2  0  0  0  0
  5  8  1  0  0  0  0
  6 11  1  0  0  0  0
  6 26  1  0  0  0  0
  7 12  1  0  0  0  0
  8  9  1  0  0  0  0
  8 13  2  0  0  0  0
  9 14  2  0  0  0  0
 10 15  1  0  0  0  0
 10 27  1  0  0  0  0
 10 28  1  0  0  0  0
 11 29  1  0  0  0  0
 11 30  1  0  0  0  0
 11 31  1  0  0  0  0
 12 32  1  0  0  0  0
 12 33  1  0  0  0  0
 12 34  1  0  0  0  0
 13 16  1  0  0  0  0
 13 35  1  0  0  0  0
 14 17  1  0  0  0  0
 14 36  1  0  0  0  0
 15 20  2  0  0  0  0
 15 21  1  0  0  0  0
 16 17  2  0  0  0  0
 16 37  1  0  0  0  0
 17 38  1  0  0  0  0
 18 22  2  0  0  0  0
 18 39  1  0  0  0  0
 19 40  1  0  0  0  0
 20 23  1  0  0  0  0
 20 41  1  0  0  0  0
 21 24  2  0  0  0  0
 21 42  1  0  0  0  0
 22 43  1  0  0  0  0
 23 25  2  0  0  0  0
 23 44  1  0  0  0  0
 24 25  1  0  0  0  0
 24 45  1  0  0  0  0
M  END
> <PUBCHEM_COMPOUND_CID>
503461
> <PUBCHEM_COMPOUND_CANONICALIZED>
1
> <PUBCHEM_CACTVS_COMPLEXITY>
437
> <PUBCHEM_CACTVS_HBOND_ACCEPTOR>
2
> <PUBCHEM_CACTVS_HBOND_DONOR>
0
> <PUBCHEM_CACTVS_ROTATABLE_BOND>
4
> <PUBCHEM_CACTVS_SUBSKEYS>
AAADceB7AQAAAAAAAAAAAAAAAAAAAWLAAAAwYAAAAAAAAFgB/AAAHQAAAAAADCjBHgw/0PcMEACgAzRnZACCgC0xEqAJ2CA4dJiIaOLA2ZGUIAhogALIyCcQgMAOgAAAAAACAAAAAAAAAAQAAAAAAAAAAA==
> <PUBCHEM_IUPAC_OPENEYE_NAME>
1-[(4-fluorophenyl)methyl]-3-(1-imidazol-1-ylethyl)-2-methyl-indole
> <PUBCHEM_IUPAC_CAS_NAME>
1-[(4-fluorophenyl)methyl]-3-[1-(1-imidazolyl)ethyl]-2-methylindole
> <PUBCHEM_IUPAC_NAME_MARKUP>
1-[(4-fluorophenyl)methyl]-3-(1-imidazol-1-ylethyl)-2-methylindole
> <PUBCHEM_IUPAC_NAME>
1-[(4-fluorophenyl)methyl]-3-(1-imidazol-1-ylethyl)-2-methylindole
> <PUBCHEM_IUPAC_SYSTEMATIC_NAME>
1-[(4-fluorophenyl)methyl]-3-(1-imidazol-1-ylethyl)-2-methyl-indole
> <PUBCHEM_IUPAC_TRADITIONAL_NAME>
1-(4-fluorobenzyl)-3-(1-imidazol-1-ylethyl)-2-methyl-indole
> <PUBCHEM_IUPAC_INCHI>
InChI=1S/C21H20FN3/c1-15(24-12-11-23-14-24)21-16(2)25(20-6-4-3-5-19(20)21)13-17-7-9-18(22)10-8-17/h3-12,14-15H,13H2,1-2H3
> <PUBCHEM_IUPAC_INCHIKEY>
ZSJJFARPZVXXQF-UHFFFAOYSA-N
> <PUBCHEM_XLOGP3_AA>
4.2
> <PUBCHEM_EXACT_MASS>
333.16412581
> <PUBCHEM_MOLECULAR_FORMULA>
C21H20FN3
> <PUBCHEM_MOLECULAR_WEIGHT>
333.4
> <PUBCHEM_OPENEYE_CAN_SMILES>
CC1=C(C2=CC=CC=C2N1CC3=CC=C(C=C3)F)C(C)N4C=CN=C4
> <PUBCHEM_OPENEYE_ISO_SMILES>
CC1=C(C2=CC=CC=C2N1CC3=CC=C(C=C3)F)C(C)N4C=CN=C4
> <PUBCHEM_CACTVS_TPSA>
22.8
> <PUBCHEM_MONOISOTOPIC_WEIGHT>
333.16412581
> <PUBCHEM_TOTAL_CHARGE>
0
> <PUBCHEM_HEAVY_ATOM_COUNT>
25
> <PUBCHEM_ATOM_DEF_STEREO_COUNT>
0
> <PUBCHEM_ATOM_UDEF_STEREO_COUNT>
1
> <PUBCHEM_BOND_DEF_STEREO_COUNT>
0
> <PUBCHEM_BOND_UDEF_STEREO_COUNT>
0
> <PUBCHEM_ISOTOPIC_ATOM_COUNT>
0
> <PUBCHEM_COMPONENT_COUNT>
1
> <PUBCHEM_CACTVS_TAUTO_COUNT>
-1
> <PUBCHEM_COORDINATE_TYPE>
1
5
255
> <PUBCHEM_BONDANNOTATIONS>
13  16  8
14  17  8
15  20  8
15  21  8
16  17  8
18  22  8
2  7  8
2  9  8
20  23  8
21  24  8
23  25  8
24  25  8
3  18  8
3  19  8
4  19  8
4  22  8
5  7  8
5  8  8
6  11  3
8  13  8
8  9  8
9  14  8
$$$$
