503470
  -OEChem-10302200282D
 48 51  0     1  0  0  0  0  0999 V2000
    2.0000    0.4619    0.0000 Br  0  0  0  0  0  0  0  0  0  0  0  0
    9.7690   -3.1182    0.0000 Cl  0  0  0  0  0  0  0  0  0  0  0  0
    5.5443   -1.3428    0.0000 N   0  0  0  0  0  0  0  0  0  0  0  0
    6.8335    1.4234    0.0000 N   0  0  0  0  0  0  0  0  0  0  0  0
    8.4423    1.2515    0.0000 N   0  0  0  0  0  0  0  0  0  0  0  0
    5.8550    1.2172    0.0000 C   0  0  3  0  0  0  0  0  0  0  0  0
    5.5443    0.2666    0.0000 C   0  0  0  0  0  0  0  0  0  0  0  0
    5.1871    1.9615    0.0000 C   0  0  0  0  0  0  0  0  0  0  0  0
    4.5981   -0.0381    0.0000 C   0  0  0  0  0  0  0  0  0  0  0  0
    4.5981   -1.0381    0.0000 C   0  0  0  0  0  0  0  0  0  0  0  0
    6.1279   -0.5381    0.0000 C   0  0  0  0  0  0  0  0  0  0  0  0
    5.4978    2.9120    0.0000 C   0  0  0  0  0  0  0  0  0  0  0  0
    5.8550   -2.2933    0.0000 C   0  0  0  0  0  0  0  0  0  0  0  0
    3.7320    0.4619    0.0000 C   0  0  0  0  0  0  0  0  0  0  0  0
    3.7320   -1.5381    0.0000 C   0  0  0  0  0  0  0  0  0  0  0  0
    7.2418    2.3362    0.0000 C   0  0  0  0  0  0  0  0  0  0  0  0
    7.5754    0.7530    0.0000 C   0  0  0  0  0  0  0  0  0  0  0  0
    4.8299    3.6563    0.0000 C   0  0  0  0  0  0  0  0  0  0  0  0
    6.8335   -2.4996    0.0000 C   0  0  0  0  0  0  0  0  0  0  0  0
    2.8660   -0.0381    0.0000 C   0  0  0  0  0  0  0  0  0  0  0  0
    2.8660   -1.0381    0.0000 C   0  0  0  0  0  0  0  0  0  0  0  0
    8.2361    2.2300    0.0000 C   0  0  0  0  0  0  0  0  0  0  0  0
    7.5013   -1.7552    0.0000 C   0  0  0  0  0  0  0  0  0  0  0  0
    7.1441   -3.4501    0.0000 C   0  0  0  0  0  0  0  0  0  0  0  0
    8.4798   -1.9615    0.0000 C   0  0  0  0  0  0  0  0  0  0  0  0
    8.1226   -3.6563    0.0000 C   0  0  0  0  0  0  0  0  0  0  0  0
    8.7905   -2.9120    0.0000 C   0  0  0  0  0  0  0  0  0  0  0  0
    6.0476    1.8065    0.0000 H   0  0  0  0  0  0  0  0  0  0  0  0
    4.6402    2.2535    0.0000 H   0  0  0  0  0  0  0  0  0  0  0  0
    4.8046    1.4736    0.0000 H   0  0  0  0  0  0  0  0  0  0  0  0
    6.7479   -0.5381    0.0000 H   0  0  0  0  0  0  0  0  0  0  0  0
    6.0447    2.6200    0.0000 H   0  0  0  0  0  0  0  0  0  0  0  0
    5.8803    3.3999    0.0000 H   0  0  0  0  0  0  0  0  0  0  0  0
    5.2411   -2.3807    0.0000 H   0  0  0  0  0  0  0  0  0  0  0  0
    5.8344   -2.9130    0.0000 H   0  0  0  0  0  0  0  0  0  0  0  0
    3.7320    1.0819    0.0000 H   0  0  0  0  0  0  0  0  0  0  0  0
    3.7320   -2.1581    0.0000 H   0  0  0  0  0  0  0  0  0  0  0  0
    6.9327    2.8737    0.0000 H   0  0  0  0  0  0  0  0  0  0  0  0
    7.5096    0.1365    0.0000 H   0  0  0  0  0  0  0  0  0  0  0  0
    5.2914    4.0704    0.0000 H   0  0  0  0  0  0  0  0  0  0  0  0
    4.4159    4.1178    0.0000 H   0  0  0  0  0  0  0  0  0  0  0  0
    4.3685    3.2422    0.0000 H   0  0  0  0  0  0  0  0  0  0  0  0
    2.3291   -1.3481    0.0000 H   0  0  0  0  0  0  0  0  0  0  0  0
    8.6518    2.6900    0.0000 H   0  0  0  0  0  0  0  0  0  0  0  0
    7.3087   -1.1659    0.0000 H   0  0  0  0  0  0  0  0  0  0  0  0
    6.7301   -3.9115    0.0000 H   0  0  0  0  0  0  0  0  0  0  0  0
    8.8939   -1.5000    0.0000 H   0  0  0  0  0  0  0  0  0  0  0  0
    8.3152   -4.2456    0.0000 H   0  0  0  0  0  0  0  0  0  0  0  0
  1 20  1  0  0  0  0
  2 27  1  0  0  0  0
  3 10  1  0  0  0  0
  3 11  1  0  0  0  0
  3 13  1  0  0  0  0
  4  6  1  0  0  0  0
  4 16  1  0  0  0  0
  4 17  1  0  0  0  0
  5 17  2  0  0  0  0
  5 22  1  0  0  0  0
  6  7  1  0  0  0  0
  6  8  1  0  0  0  0
  6 28  1  0  0  0  0
  7  9  1  0  0  0  0
  7 11  2  0  0  0  0
  8 12  1  0  0  0  0
  8 29  1  0  0  0  0
  8 30  1  0  0  0  0
  9 10  2  0  0  0  0
  9 14  1  0  0  0  0
 10 15  1  0  0  0  0
 11 31  1  0  0  0  0
 12 18  1  0  0  0  0
 12 32  1  0  0  0  0
 12 33  1  0  0  0  0
 13 19  1  0  0  0  0
 13 34  1  0  0  0  0
 13 35  1  0  0  0  0
 14 20  2  0  0  0  0
 14 36  1  0  0  0  0
 15 21  2  0  0  0  0
 15 37  1  0  0  0  0
 16 22  2  0  0  0  0
 16 38  1  0  0  0  0
 17 39  1  0  0  0  0
 18 40  1  0  0  0  0
 18 41  1  0  0  0  0
 18 42  1  0  0  0  0
 19 23  2  0  0  0  0
 19 24  1  0  0  0  0
 20 21  1  0  0  0  0
 21 43  1  0  0  0  0
 22 44  1  0  0  0  0
 23 25  1  0  0  0  0
 23 45  1  0  0  0  0
 24 26  2  0  0  0  0
 24 46  1  0  0  0  0
 25 27  2  0  0  0  0
 25 47  1  0  0  0  0
 26 27  1  0  0  0  0
 26 48  1  0  0  0  0
M  END
> <PUBCHEM_COMPOUND_CID>
503470
> <PUBCHEM_COMPOUND_CANONICALIZED>
1
> <PUBCHEM_CACTVS_COMPLEXITY>
471
> <PUBCHEM_CACTVS_HBOND_ACCEPTOR>
1
> <PUBCHEM_CACTVS_HBOND_DONOR>
0
> <PUBCHEM_CACTVS_ROTATABLE_BOND>
6
> <PUBCHEM_CACTVS_SUBSKEYS>
AAADceB7AAAEEAAAAAAAAAAAAAAAAWLAAAAwYAAAAAAAAFgB/AAAHAJAAAABrCrBHiQ/0PcMEACgAzRnZACCgC0xF6QJ2CA4driIaOLB25GUIAhogALIyjcQgMAOhAAgEAACAAAIAEAgAAQAAAAAAAAAAA==
> <PUBCHEM_IUPAC_OPENEYE_NAME>
5-bromo-1-[(4-chlorophenyl)methyl]-3-(1-imidazol-1-ylbutyl)indole
> <PUBCHEM_IUPAC_CAS_NAME>
5-bromo-1-[(4-chlorophenyl)methyl]-3-[1-(1-imidazolyl)butyl]indole
> <PUBCHEM_IUPAC_NAME_MARKUP>
5-bromo-1-[(4-chlorophenyl)methyl]-3-(1-imidazol-1-ylbutyl)indole
> <PUBCHEM_IUPAC_NAME>
5-bromo-1-[(4-chlorophenyl)methyl]-3-(1-imidazol-1-ylbutyl)indole
> <PUBCHEM_IUPAC_SYSTEMATIC_NAME>
5-bromanyl-1-[(4-chlorophenyl)methyl]-3-(1-imidazol-1-ylbutyl)indole
> <PUBCHEM_IUPAC_TRADITIONAL_NAME>
5-bromo-1-(4-chlorobenzyl)-3-(1-imidazol-1-ylbutyl)indole
> <PUBCHEM_IUPAC_INCHI>
InChI=1S/C22H21BrClN3/c1-2-3-21(26-11-10-25-15-26)20-14-27(13-16-4-7-18(24)8-5-16)22-9-6-17(23)12-19(20)22/h4-12,14-15,21H,2-3,13H2,1H3
> <PUBCHEM_IUPAC_INCHIKEY>
CNOPOFJHRYKWEB-UHFFFAOYSA-N
> <PUBCHEM_XLOGP3_AA>
5.9
> <PUBCHEM_EXACT_MASS>
441.06074
> <PUBCHEM_MOLECULAR_FORMULA>
C22H21BrClN3
> <PUBCHEM_MOLECULAR_WEIGHT>
442.8
> <PUBCHEM_OPENEYE_CAN_SMILES>
CCCC(C1=CN(C2=C1C=C(C=C2)Br)CC3=CC=C(C=C3)Cl)N4C=CN=C4
> <PUBCHEM_OPENEYE_ISO_SMILES>
CCCC(C1=CN(C2=C1C=C(C=C2)Br)CC3=CC=C(C=C3)Cl)N4C=CN=C4
> <PUBCHEM_CACTVS_TPSA>
22.8
> <PUBCHEM_MONOISOTOPIC_WEIGHT>
441.06074
> <PUBCHEM_TOTAL_CHARGE>
0
> <PUBCHEM_HEAVY_ATOM_COUNT>
27
> <PUBCHEM_ATOM_DEF_STEREO_COUNT>
0
> <PUBCHEM_ATOM_UDEF_STEREO_COUNT>
1
> <PUBCHEM_BOND_DEF_STEREO_COUNT>
0
> <PUBCHEM_BOND_UDEF_STEREO_COUNT>
0
> <PUBCHEM_ISOTOPIC_ATOM_COUNT>
0
> <PUBCHEM_COMPONENT_COUNT>
1
> <PUBCHEM_CACTVS_TAUTO_COUNT>
-1
> <PUBCHEM_COORDINATE_TYPE>
1
5
255
> <PUBCHEM_BONDANNOTATIONS>
10  15  8
14  20  8
15  21  8
16  22  8
19  23  8
19  24  8
20  21  8
23  25  8
24  26  8
25  27  8
26  27  8
3  10  8
3  11  8
4  16  8
4  17  8
5  17  8
5  22  8
6  8  3
7  11  8
7  9  8
9  10  8
9  14  8
$$$$
