503587
  -OEChem-10302200282D
 57 59  0     1  0  0  0  0  0999 V2000
    2.0000    4.9654    0.0000 I   0  0  0  0  0  0  0  0  0  0  0  0
    6.5306   -0.4825    0.0000 P   0  0  3  0  0  0  0  0  0  0  0  0
    7.3967   -1.9824    0.0000 P   0  0  3  0  0  0  0  0  0  0  0  0
    4.8556    2.6053    0.0000 O   0  0  0  0  0  0  0  0  0  0  0  0
    9.9947   -3.4825    0.0000 O   0  0  0  0  0  0  0  0  0  0  0  0
    7.4247    2.2963    0.0000 O   0  0  0  0  0  0  0  0  0  0  0  0
    8.2627   -5.4824    0.0000 O   0  0  0  0  0  0  0  0  0  0  0  0
    9.9947   -6.4824    0.0000 O   0  0  0  0  0  0  0  0  0  0  0  0
   11.7268   -5.4824    0.0000 O   0  0  0  0  0  0  0  0  0  0  0  0
    6.5306    0.5175    0.0000 O   0  0  0  0  0  0  0  0  0  0  0  0
   11.7268   -3.4825    0.0000 O   0  0  0  0  0  0  0  0  0  0  0  0
    8.2627   -2.4825    0.0000 O   0  0  0  0  0  0  0  0  0  0  0  0
    6.5306   -1.4824    0.0000 O   0  0  0  0  0  0  0  0  0  0  0  0
    5.9781    5.3835    0.0000 O   0  0  0  0  0  0  0  0  0  0  0  0
    5.5306   -0.4825    0.0000 O   0  5  0  0  0  0  0  0  0  0  0  0
    7.5306   -0.4825    0.0000 O   0  0  0  0  0  0  0  0  0  0  0  0
    7.8967   -1.1164    0.0000 O   0  5  0  0  0  0  0  0  0  0  0  0
    6.8967   -2.8485    0.0000 O   0  0  0  0  0  0  0  0  0  0  0  0
    2.8135    6.7924    0.0000 O   0  0  0  0  0  0  0  0  0  0  0  0
    4.5768    4.3654    0.0000 N   0  0  0  0  0  0  0  0  0  0  0  0
    4.3958    6.0880    0.0000 N   0  0  0  0  0  0  0  0  0  0  0  0
    6.4736    2.6053    0.0000 C   0  0  2  0  0  0  0  0  0  0  0  0
    5.6646    2.0176    0.0000 C   0  0  1  0  0  0  0  0  0  0  0  0
    6.1646    3.5564    0.0000 C   0  0  0  0  0  0  0  0  0  0  0  0
    5.1646    3.5564    0.0000 C   0  0  1  0  0  0  0  0  0  0  0  0
    9.1287   -4.9824    0.0000 C   0  0  2  0  0  0  0  0  0  0  0  0
    9.9947   -5.4824    0.0000 C   0  0  2  0  0  0  0  0  0  0  0  0
    9.1287   -3.9825    0.0000 C   0  0  2  0  0  0  0  0  0  0  0  0
   10.8608   -4.9824    0.0000 C   0  0  2  0  0  0  0  0  0  0  0  0
   10.8608   -3.9825    0.0000 C   0  0  3  0  0  0  0  0  0  0  0  0
    5.6646    1.0176    0.0000 C   0  0  0  0  0  0  0  0  0  0  0  0
    8.2627   -3.4825    0.0000 C   0  0  0  0  0  0  0  0  0  0  0  0
    4.9836    5.2790    0.0000 C   0  0  0  0  0  0  0  0  0  0  0  0
    3.5823    4.2609    0.0000 C   0  0  0  0  0  0  0  0  0  0  0  0
    2.9945    5.0699    0.0000 C   0  0  0  0  0  0  0  0  0  0  0  0
    3.4013    5.9834    0.0000 C   0  0  0  0  0  0  0  0  0  0  0  0
    6.9120    3.0437    0.0000 H   0  0  0  0  0  0  0  0  0  0  0  0
    5.1122    1.7361    0.0000 H   0  0  0  0  0  0  0  0  0  0  0  0
    6.7711    3.6853    0.0000 H   0  0  0  0  0  0  0  0  0  0  0  0
    6.0998    4.1730    0.0000 H   0  0  0  0  0  0  0  0  0  0  0  0
    4.5522    3.4594    0.0000 H   0  0  0  0  0  0  0  0  0  0  0  0
    8.5918   -4.6725    0.0000 H   0  0  0  0  0  0  0  0  0  0  0  0
    9.4578   -5.7924    0.0000 H   0  0  0  0  0  0  0  0  0  0  0  0
    9.1287   -3.3625    0.0000 H   0  0  0  0  0  0  0  0  0  0  0  0
   10.8608   -5.6024    0.0000 H   0  0  0  0  0  0  0  0  0  0  0  0
   10.8608   -3.3625    0.0000 H   0  0  0  0  0  0  0  0  0  0  0  0
    5.0540    1.1252    0.0000 H   0  0  0  0  0  0  0  0  0  0  0  0
    5.4526    0.4349    0.0000 H   0  0  0  0  0  0  0  0  0  0  0  0
    7.6521   -3.3748    0.0000 H   0  0  0  0  0  0  0  0  0  0  0  0
    8.0506   -4.0651    0.0000 H   0  0  0  0  0  0  0  0  0  0  0  0
    7.8854    2.7112    0.0000 H   0  0  0  0  0  0  0  0  0  0  0  0
    7.7258   -5.1725    0.0000 H   0  0  0  0  0  0  0  0  0  0  0  0
   10.5317   -6.7924    0.0000 H   0  0  0  0  0  0  0  0  0  0  0  0
   12.2637   -5.1725    0.0000 H   0  0  0  0  0  0  0  0  0  0  0  0
    3.3301    3.6945    0.0000 H   0  0  0  0  0  0  0  0  0  0  0  0
   11.7268   -2.8624    0.0000 H   0  0  0  0  0  0  0  0  0  0  0  0
    4.6480    6.6544    0.0000 H   0  0  0  0  0  0  0  0  0  0  0  0
  1 35  1  0  0  0  0
  2 10  1  0  0  0  0
  2 13  1  0  0  0  0
  2 15  1  0  0  0  0
  2 16  2  0  0  0  0
  3 12  1  0  0  0  0
  3 13  1  0  0  0  0
  3 17  1  0  0  0  0
  3 18  2  0  0  0  0
  4 23  1  0  0  0  0
  4 25  1  0  0  0  0
  5 28  1  0  0  0  0
  5 30  1  0  0  0  0
 22  6  1  6  0  0  0
  6 51  1  0  0  0  0
 26  7  1  1  0  0  0
  7 52  1  0  0  0  0
 27  8  1  6  0  0  0
  8 53  1  0  0  0  0
 29  9  1  6  0  0  0
  9 54  1  0  0  0  0
 10 31  1  0  0  0  0
 11 30  1  0  0  0  0
 11 56  1  0  0  0  0
 12 32  1  0  0  0  0
 14 33  2  0  0  0  0
 19 36  2  0  0  0  0
 25 20  1  1  0  0  0
 20 33  1  0  0  0  0
 20 34  1  0  0  0  0
 21 33  1  0  0  0  0
 21 36  1  0  0  0  0
 21 57  1  0  0  0  0
 22 23  1  0  0  0  0
 22 24  1  0  0  0  0
 22 37  1  0  0  0  0
 23 31  1  1  0  0  0
 23 38  1  0  0  0  0
 24 25  1  0  0  0  0
 24 39  1  0  0  0  0
 24 40  1  0  0  0  0
 25 41  1  0  0  0  0
 26 27  1  0  0  0  0
 26 28  1  0  0  0  0
 26 42  1  0  0  0  0
 27 29  1  0  0  0  0
 27 43  1  0  0  0  0
 28 32  1  6  0  0  0
 28 44  1  0  0  0  0
 29 30  1  0  0  0  0
 29 45  1  0  0  0  0
 30 46  1  0  0  0  0
 31 47  1  0  0  0  0
 31 48  1  0  0  0  0
 32 49  1  0  0  0  0
 32 50  1  0  0  0  0
 34 35  2  0  0  0  0
 34 55  1  0  0  0  0
 35 36  1  0  0  0  0
M  CHG  2  15  -1  17  -1
M  END
> <PUBCHEM_COMPOUND_CID>
503587
> <PUBCHEM_COMPOUND_CANONICALIZED>
1
> <PUBCHEM_CACTVS_COMPLEXITY>
967
> <PUBCHEM_CACTVS_HBOND_ACCEPTOR>
16
> <PUBCHEM_CACTVS_HBOND_DONOR>
6
> <PUBCHEM_CACTVS_ROTATABLE_BOND>
9
> <PUBCHEM_CACTVS_SUBSKEYS>
AAADceBzPgMAAgAAAAAAAAAAAAAAASAAAAAkQAAAAAAAAAAAAAAAHgAwCCAACBTzgAcBCAPABxCIQAFWUICAAAAAAAAAAAAIAECREAIAgAAOQAAPByIHAMHwcAYAAAAAAAAAAAAAAAAAAAAAAAAAAAAAAA==
> <PUBCHEM_IUPAC_OPENEYE_NAME>
[[(2R,3S,5R)-3-hydroxy-5-(5-iodo-2,4-dioxo-pyrimidin-1-yl)tetrahydrofuran-2-yl]methoxy-oxido-phosphoryl] [(2S,3R,4R,5R)-3,4,5,6-tetrahydroxytetrahydropyran-2-yl]methyl phosphate
> <PUBCHEM_IUPAC_CAS_NAME>
[[(2R,3S,5R)-3-hydroxy-5-(5-iodo-2,4-dioxo-1-pyrimidinyl)-2-oxolanyl]methoxy-oxidophosphoryl] [(2S,3R,4R,5R)-3,4,5,6-tetrahydroxy-2-oxanyl]methyl phosphate
> <PUBCHEM_IUPAC_NAME_MARKUP>
[[(2<I>R</I>,3<I>S</I>,5<I>R</I>)-3-hydroxy-5-(5-iodo-2,4-dioxopyrimidin-1-yl)oxolan-2-yl]methoxy-oxidophosphoryl] [(2<I>S</I>,3<I>R</I>,4<I>R</I>,5<I>R</I>)-3,4,5,6-tetrahydroxyoxan-2-yl]methyl phosphate
> <PUBCHEM_IUPAC_NAME>
[[(2R,3S,5R)-3-hydroxy-5-(5-iodo-2,4-dioxopyrimidin-1-yl)oxolan-2-yl]methoxy-oxidophosphoryl] [(2S,3R,4R,5R)-3,4,5,6-tetrahydroxyoxan-2-yl]methyl phosphate
> <PUBCHEM_IUPAC_SYSTEMATIC_NAME>
[[(2R,3S,5R)-5-[5-iodanyl-2,4-bis(oxidanylidene)pyrimidin-1-yl]-3-oxidanyl-oxolan-2-yl]methoxy-oxidanidyl-phosphoryl] [(2S,3R,4R,5R)-3,4,5,6-tetrakis(oxidanyl)oxan-2-yl]methyl phosphate
> <PUBCHEM_IUPAC_TRADITIONAL_NAME>
[[(2R,3S,5R)-3-hydroxy-5-(5-iodo-2,4-diketo-pyrimidin-1-yl)tetrahydrofuran-2-yl]methoxy-oxido-phosphoryl] [(2S,3R,4R,5R)-3,4,5,6-tetrahydroxytetrahydropyran-2-yl]methyl phosphate
> <PUBCHEM_IUPAC_INCHI>
InChI=1S/C15H23IN2O16P2/c16-5-2-18(15(25)17-13(5)23)9-1-6(19)7(32-9)3-30-35(26,27)34-36(28,29)31-4-8-10(20)11(21)12(22)14(24)33-8/h2,6-12,14,19-22,24H,1,3-4H2,(H,26,27)(H,28,29)(H,17,23,25)/p-2/t6-,7+,8-,9+,10-,11+,12+,14?/m0/s1
> <PUBCHEM_IUPAC_INCHIKEY>
YVAQWJPRGBOLBQ-MYAYKELMSA-L
> <PUBCHEM_XLOGP3>
-6
> <PUBCHEM_EXACT_MASS>
673.94110
> <PUBCHEM_MOLECULAR_FORMULA>
C15H21IN2O16P2-2
> <PUBCHEM_MOLECULAR_WEIGHT>
674.18
> <PUBCHEM_OPENEYE_CAN_SMILES>
C1C(C(OC1N2C=C(C(=O)NC2=O)I)COP(=O)([O-])OP(=O)([O-])OCC3C(C(C(C(O3)O)O)O)O)O
> <PUBCHEM_OPENEYE_ISO_SMILES>
C1[C@@H]([C@H](O[C@H]1N2C=C(C(=O)NC2=O)I)COP(=O)([O-])OP(=O)([O-])OC[C@H]3[C@@H]([C@H]([C@H](C(O3)O)O)O)O)O
> <PUBCHEM_CACTVS_TPSA>
277
> <PUBCHEM_MONOISOTOPIC_WEIGHT>
673.94110
> <PUBCHEM_TOTAL_CHARGE>
-2
> <PUBCHEM_HEAVY_ATOM_COUNT>
36
> <PUBCHEM_ATOM_DEF_STEREO_COUNT>
7
> <PUBCHEM_ATOM_UDEF_STEREO_COUNT>
1
> <PUBCHEM_BOND_DEF_STEREO_COUNT>
0
> <PUBCHEM_BOND_UDEF_STEREO_COUNT>
0
> <PUBCHEM_ISOTOPIC_ATOM_COUNT>
0
> <PUBCHEM_COMPONENT_COUNT>
1
> <PUBCHEM_CACTVS_TAUTO_COUNT>
-1
> <PUBCHEM_COORDINATE_TYPE>
1
5
255
> <PUBCHEM_BONDANNOTATIONS>
30  11  3
25  20  5
20  33  8
20  34  8
21  33  8
21  36  8
23  31  5
28  32  6
34  35  8
35  36  8
22  6  6
26  7  5
27  8  6
29  9  6
$$$$
