503546
  -OEChem-10302200282D
113119  0     1  0  0  0  0  0999 V2000
    9.7942    0.8625    0.0000 S   0  0  0  0  0  0  0  0  0  0  0  0
    7.1962   -1.6374    0.0000 O   0  0  0  0  0  0  0  0  0  0  0  0
    9.8512    3.9503    0.0000 O   0  0  0  0  0  0  0  0  0  0  0  0
    7.1962   -4.6374    0.0000 O   0  0  0  0  0  0  0  0  0  0  0  0
    5.4641   -3.6374    0.0000 O   0  0  0  0  0  0  0  0  0  0  0  0
    8.9282   -3.6374    0.0000 O   0  0  0  0  0  0  0  0  0  0  0  0
   12.4203    3.6413    0.0000 O   0  0  0  0  0  0  0  0  0  0  0  0
    8.9282   -1.6374    0.0000 O   0  0  0  0  0  0  0  0  0  0  0  0
    9.7942    1.8626    0.0000 O   0  0  0  0  0  0  0  0  0  0  0  0
    5.4641   -0.6375    0.0000 O   0  0  0  0  0  0  0  0  0  0  0  0
   10.9737    6.7285    0.0000 O   0  0  0  0  0  0  0  0  0  0  0  0
    5.4641   -4.6374    0.0000 O   0  0  0  0  0  0  0  0  0  0  0  0
    4.5981   -2.1374    0.0000 O   0  0  0  0  0  0  0  0  0  0  0  0
   10.7942    0.8625    0.0000 O   0  0  0  0  0  0  0  0  0  0  0  0
    8.7942    0.8625    0.0000 O   0  0  0  0  0  0  0  0  0  0  0  0
    8.0622   -0.1375    0.0000 O   0  0  0  0  0  0  0  0  0  0  0  0
    9.7942   -2.1374    0.0000 O   0  0  0  0  0  0  0  0  0  0  0  0
   12.9556    5.2886    0.0000 O   0  0  0  0  0  0  0  0  0  0  0  0
    7.8091    8.1374    0.0000 O   0  0  0  0  0  0  0  0  0  0  0  0
    3.7320   -0.6375    0.0000 O   0  0  0  0  0  0  0  0  0  0  0  0
    9.5725    5.7104    0.0000 N   0  0  0  0  0  0  0  0  0  0  0  0
    9.7942   -0.1375    0.0000 N   0  0  0  0  0  0  0  0  0  0  0  0
    9.3914    7.4330    0.0000 N   0  0  0  0  0  0  0  0  0  0  0  0
    7.1962   -3.6374    0.0000 C   0  0  1  0  0  0  0  0  0  0  0  0
    6.3301   -3.1374    0.0000 C   0  0  1  0  0  0  0  0  0  0  0  0
    8.0622   -3.1374    0.0000 C   0  0  2  0  0  0  0  0  0  0  0  0
    6.3301   -2.1374    0.0000 C   0  0  1  0  0  0  0  0  0  0  0  0
   11.4693    3.9503    0.0000 C   0  0  2  0  0  0  0  0  0  0  0  0
   10.6603    3.3626    0.0000 C   0  0  1  0  0  0  0  0  0  0  0  0
   11.1603    4.9014    0.0000 C   0  0  0  0  0  0  0  0  0  0  0  0
   10.1603    4.9014    0.0000 C   0  0  1  0  0  0  0  0  0  0  0  0
    8.0622   -2.1374    0.0000 C   0  0  2  0  0  0  0  0  0  0  0  0
    5.4641   -1.6374    0.0000 C   0  0  0  0  0  0  0  0  0  0  0  0
   10.6603    2.3626    0.0000 C   0  0  0  0  0  0  0  0  0  0  0  0
    8.5780    5.6059    0.0000 C   0  0  0  0  0  0  0  0  0  0  0  0
    9.9792    6.6240    0.0000 C   0  0  0  0  0  0  0  0  0  0  0  0
    6.3301   -5.1374    0.0000 C   0  0  0  0  0  0  0  0  0  0  0  0
    4.5981   -3.1374    0.0000 C   0  0  0  0  0  0  0  0  0  0  0  0
    8.9282   -0.6375    0.0000 C   0  0  0  0  0  0  0  0  0  0  0  0
    9.7942   -3.1374    0.0000 C   0  0  0  0  0  0  0  0  0  0  0  0
    7.9902    6.4149    0.0000 C   0  0  0  0  0  0  0  0  0  0  0  0
   13.1635    4.3104    0.0000 C   0  0  0  0  0  0  0  0  0  0  0  0
    8.3969    7.3284    0.0000 C   0  0  0  0  0  0  0  0  0  0  0  0
    6.3301   -6.1374    0.0000 C   0  0  0  0  0  0  0  0  0  0  0  0
    3.7320   -3.6374    0.0000 C   0  0  0  0  0  0  0  0  0  0  0  0
    4.5981   -0.1375    0.0000 C   0  0  0  0  0  0  0  0  0  0  0  0
   10.6603   -3.6374    0.0000 C   0  0  0  0  0  0  0  0  0  0  0  0
    6.9956    6.3104    0.0000 C   0  0  0  0  0  0  0  0  0  0  0  0
   14.1145    4.0014    0.0000 C   0  0  0  0  0  0  0  0  0  0  0  0
    4.5981    0.8625    0.0000 C   0  0  0  0  0  0  0  0  0  0  0  0
    7.1962   -6.6374    0.0000 C   0  0  0  0  0  0  0  0  0  0  0  0
    5.4641   -6.6374    0.0000 C   0  0  0  0  0  0  0  0  0  0  0  0
    3.7320   -4.6374    0.0000 C   0  0  0  0  0  0  0  0  0  0  0  0
    2.8660   -3.1374    0.0000 C   0  0  0  0  0  0  0  0  0  0  0  0
   10.6603   -4.6374    0.0000 C   0  0  0  0  0  0  0  0  0  0  0  0
   11.5263   -3.1374    0.0000 C   0  0  0  0  0  0  0  0  0  0  0  0
    7.1962   -7.6374    0.0000 C   0  0  0  0  0  0  0  0  0  0  0  0
    5.4641   -7.6374    0.0000 C   0  0  0  0  0  0  0  0  0  0  0  0
    2.8660   -5.1374    0.0000 C   0  0  0  0  0  0  0  0  0  0  0  0
    2.0000   -3.6374    0.0000 C   0  0  0  0  0  0  0  0  0  0  0  0
   11.5263   -5.1374    0.0000 C   0  0  0  0  0  0  0  0  0  0  0  0
   12.3923   -3.6374    0.0000 C   0  0  0  0  0  0  0  0  0  0  0  0
    3.7320    1.3626    0.0000 C   0  0  0  0  0  0  0  0  0  0  0  0
    5.4641    1.3626    0.0000 C   0  0  0  0  0  0  0  0  0  0  0  0
    6.3301   -8.1374    0.0000 C   0  0  0  0  0  0  0  0  0  0  0  0
    2.0000   -4.6374    0.0000 C   0  0  0  0  0  0  0  0  0  0  0  0
   12.3923   -4.6374    0.0000 C   0  0  0  0  0  0  0  0  0  0  0  0
    3.7320    2.3626    0.0000 C   0  0  0  0  0  0  0  0  0  0  0  0
    5.4641    2.3626    0.0000 C   0  0  0  0  0  0  0  0  0  0  0  0
    4.5981    2.8626    0.0000 C   0  0  0  0  0  0  0  0  0  0  0  0
    6.6592   -3.9474    0.0000 H   0  0  0  0  0  0  0  0  0  0  0  0
    6.3301   -3.7574    0.0000 H   0  0  0  0  0  0  0  0  0  0  0  0
    8.0622   -3.7574    0.0000 H   0  0  0  0  0  0  0  0  0  0  0  0
    6.3301   -1.5174    0.0000 H   0  0  0  0  0  0  0  0  0  0  0  0
   11.5663    3.3380    0.0000 H   0  0  0  0  0  0  0  0  0  0  0  0
   10.1078    3.0811    0.0000 H   0  0  0  0  0  0  0  0  0  0  0  0
   11.7667    5.0303    0.0000 H   0  0  0  0  0  0  0  0  0  0  0  0
   11.0954    5.5180    0.0000 H   0  0  0  0  0  0  0  0  0  0  0  0
   10.4417    5.4538    0.0000 H   0  0  0  0  0  0  0  0  0  0  0  0
    8.5991   -2.4474    0.0000 H   0  0  0  0  0  0  0  0  0  0  0  0
    4.8535   -1.5298    0.0000 H   0  0  0  0  0  0  0  0  0  0  0  0
    5.2520   -2.2201    0.0000 H   0  0  0  0  0  0  0  0  0  0  0  0
   10.8723    1.7799    0.0000 H   0  0  0  0  0  0  0  0  0  0  0  0
   11.2708    2.4702    0.0000 H   0  0  0  0  0  0  0  0  0  0  0  0
    8.3258    5.0395    0.0000 H   0  0  0  0  0  0  0  0  0  0  0  0
   10.3312   -0.4475    0.0000 H   0  0  0  0  0  0  0  0  0  0  0  0
    9.6436    7.9994    0.0000 H   0  0  0  0  0  0  0  0  0  0  0  0
    6.9308    6.9270    0.0000 H   0  0  0  0  0  0  0  0  0  0  0  0
    6.3790    6.2456    0.0000 H   0  0  0  0  0  0  0  0  0  0  0  0
    7.0604    5.6938    0.0000 H   0  0  0  0  0  0  0  0  0  0  0  0
   13.9229    3.4118    0.0000 H   0  0  0  0  0  0  0  0  0  0  0  0
   14.7042    3.8098    0.0000 H   0  0  0  0  0  0  0  0  0  0  0  0
   14.3061    4.5911    0.0000 H   0  0  0  0  0  0  0  0  0  0  0  0
    7.7331   -6.3275    0.0000 H   0  0  0  0  0  0  0  0  0  0  0  0
    4.9272   -6.3275    0.0000 H   0  0  0  0  0  0  0  0  0  0  0  0
    4.2690   -4.9474    0.0000 H   0  0  0  0  0  0  0  0  0  0  0  0
    2.8660   -2.5175    0.0000 H   0  0  0  0  0  0  0  0  0  0  0  0
   10.1233   -4.9474    0.0000 H   0  0  0  0  0  0  0  0  0  0  0  0
   11.5263   -2.5175    0.0000 H   0  0  0  0  0  0  0  0  0  0  0  0
    7.7331   -7.9474    0.0000 H   0  0  0  0  0  0  0  0  0  0  0  0
    4.9272   -7.9474    0.0000 H   0  0  0  0  0  0  0  0  0  0  0  0
    2.8660   -5.7575    0.0000 H   0  0  0  0  0  0  0  0  0  0  0  0
    1.4631   -3.3275    0.0000 H   0  0  0  0  0  0  0  0  0  0  0  0
   11.5263   -5.7575    0.0000 H   0  0  0  0  0  0  0  0  0  0  0  0
   12.9292   -3.3274    0.0000 H   0  0  0  0  0  0  0  0  0  0  0  0
    3.1951    1.0526    0.0000 H   0  0  0  0  0  0  0  0  0  0  0  0
    6.0010    1.0526    0.0000 H   0  0  0  0  0  0  0  0  0  0  0  0
    6.3301   -8.7574    0.0000 H   0  0  0  0  0  0  0  0  0  0  0  0
    1.4631   -4.9474    0.0000 H   0  0  0  0  0  0  0  0  0  0  0  0
   12.9292   -4.9474    0.0000 H   0  0  0  0  0  0  0  0  0  0  0  0
    3.1951    2.6726    0.0000 H   0  0  0  0  0  0  0  0  0  0  0  0
    6.0010    2.6726    0.0000 H   0  0  0  0  0  0  0  0  0  0  0  0
    4.5981    3.4826    0.0000 H   0  0  0  0  0  0  0  0  0  0  0  0
  1  9  1  0  0  0  0
  1 14  2  0  0  0  0
  1 15  2  0  0  0  0
  1 22  1  0  0  0  0
  2 27  1  0  0  0  0
  2 32  1  0  0  0  0
  3 29  1  0  0  0  0
  3 31  1  0  0  0  0
 24  4  1  1  0  0  0
  4 37  1  0  0  0  0
 25  5  1  6  0  0  0
  5 38  1  0  0  0  0
 26  6  1  6  0  0  0
  6 40  1  0  0  0  0
 28  7  1  6  0  0  0
  7 42  1  0  0  0  0
 32  8  1  6  0  0  0
  8 39  1  0  0  0  0
  9 34  1  0  0  0  0
 10 33  1  0  0  0  0
 10 46  1  0  0  0  0
 11 36  2  0  0  0  0
 12 37  2  0  0  0  0
 13 38  2  0  0  0  0
 16 39  2  0  0  0  0
 17 40  2  0  0  0  0
 18 42  2  0  0  0  0
 19 43  2  0  0  0  0
 20 46  2  0  0  0  0
 31 21  1  1  0  0  0
 21 35  1  0  0  0  0
 21 36  1  0  0  0  0
 22 39  1  0  0  0  0
 22 86  1  0  0  0  0
 23 36  1  0  0  0  0
 23 43  1  0  0  0  0
 23 87  1  0  0  0  0
 24 25  1  0  0  0  0
 24 26  1  0  0  0  0
 24 71  1  0  0  0  0
 25 27  1  0  0  0  0
 25 72  1  0  0  0  0
 26 32  1  0  0  0  0
 26 73  1  0  0  0  0
 27 33  1  1  0  0  0
 27 74  1  0  0  0  0
 28 29  1  0  0  0  0
 28 30  1  0  0  0  0
 28 75  1  0  0  0  0
 29 34  1  1  0  0  0
 29 76  1  0  0  0  0
 30 31  1  0  0  0  0
 30 77  1  0  0  0  0
 30 78  1  0  0  0  0
 31 79  1  0  0  0  0
 32 80  1  0  0  0  0
 33 81  1  0  0  0  0
 33 82  1  0  0  0  0
 34 83  1  0  0  0  0
 34 84  1  0  0  0  0
 35 41  2  0  0  0  0
 35 85  1  0  0  0  0
 37 44  1  0  0  0  0
 38 45  1  0  0  0  0
 40 47  1  0  0  0  0
 41 43  1  0  0  0  0
 41 48  1  0  0  0  0
 42 49  1  0  0  0  0
 44 51  2  0  0  0  0
 44 52  1  0  0  0  0
 45 53  2  0  0  0  0
 45 54  1  0  0  0  0
 46 50  1  0  0  0  0
 47 55  2  0  0  0  0
 47 56  1  0  0  0  0
 48 88  1  0  0  0  0
 48 89  1  0  0  0  0
 48 90  1  0  0  0  0
 49 91  1  0  0  0  0
 49 92  1  0  0  0  0
 49 93  1  0  0  0  0
 50 63  2  0  0  0  0
 50 64  1  0  0  0  0
 51 57  1  0  0  0  0
 51 94  1  0  0  0  0
 52 58  2  0  0  0  0
 52 95  1  0  0  0  0
 53 59  1  0  0  0  0
 53 96  1  0  0  0  0
 54 60  2  0  0  0  0
 54 97  1  0  0  0  0
 55 61  1  0  0  0  0
 55 98  1  0  0  0  0
 56 62  2  0  0  0  0
 56 99  1  0  0  0  0
 57 65  2  0  0  0  0
 57100  1  0  0  0  0
 58 65  1  0  0  0  0
 58101  1  0  0  0  0
 59 66  2  0  0  0  0
 59102  1  0  0  0  0
 60 66  1  0  0  0  0
 60103  1  0  0  0  0
 61 67  2  0  0  0  0
 61104  1  0  0  0  0
 62 67  1  0  0  0  0
 62105  1  0  0  0  0
 63 68  1  0  0  0  0
 63106  1  0  0  0  0
 64 69  2  0  0  0  0
 64107  1  0  0  0  0
 65108  1  0  0  0  0
 66109  1  0  0  0  0
 67110  1  0  0  0  0
 68 70  2  0  0  0  0
 68111  1  0  0  0  0
 69 70  1  0  0  0  0
 69112  1  0  0  0  0
 70113  1  0  0  0  0
M  END
> <PUBCHEM_COMPOUND_CID>
503546
> <PUBCHEM_COMPOUND_CANONICALIZED>
1
> <PUBCHEM_CACTVS_COMPLEXITY>
2050
> <PUBCHEM_CACTVS_HBOND_ACCEPTOR>
19
> <PUBCHEM_CACTVS_HBOND_DONOR>
2
> <PUBCHEM_CACTVS_ROTATABLE_BOND>
22
> <PUBCHEM_CACTVS_SUBSKEYS>
AAADcfB/PgBAAAAAAAAAAAAAAAAAASAAAAA0YMGCAAAAAAABVAAAHgAQQAAADBTxmAczCIPABACIAiHWWDCCAAAkAAAIiAEICMmZJjKAtRiuMQAvxyMOqcf4+C6OAAAAAAAAAAAAAAAAAAAAAAAAAAAAAA==
> <PUBCHEM_IUPAC_OPENEYE_NAME>
[(2R,3R,4S,5R,6R)-6-[[(2R,3S,5R)-3-acetoxy-5-(5-methyl-2,4-dioxo-pyrimidin-1-yl)tetrahydrofuran-2-yl]methoxysulfonylcarbamoyloxy]-3,4,5-tribenzoyloxy-tetrahydropyran-2-yl]methyl benzoate
> <PUBCHEM_IUPAC_CAS_NAME>
benzoic acid [(2R,3R,4S,5R,6R)-6-[[[(2R,3S,5R)-3-acetyloxy-5-(5-methyl-2,4-dioxo-1-pyrimidinyl)-2-oxolanyl]methoxysulfonylamino]-oxomethoxy]-3,4,5-tribenzoyloxy-2-oxanyl]methyl ester
> <PUBCHEM_IUPAC_NAME_MARKUP>
[(2<I>R</I>,3<I>R</I>,4<I>S</I>,5<I>R</I>,6<I>R</I>)-6-[[(2<I>R</I>,3<I>S</I>,5<I>R</I>)-3-acetyloxy-5-(5-methyl-2,4-dioxopyrimidin-1-yl)oxolan-2-yl]methoxysulfonylcarbamoyloxy]-3,4,5-tribenzoyloxyoxan-2-yl]methyl benzoate
> <PUBCHEM_IUPAC_NAME>
[(2R,3R,4S,5R,6R)-6-[[(2R,3S,5R)-3-acetyloxy-5-(5-methyl-2,4-dioxopyrimidin-1-yl)oxolan-2-yl]methoxysulfonylcarbamoyloxy]-3,4,5-tribenzoyloxyoxan-2-yl]methyl benzoate
> <PUBCHEM_IUPAC_SYSTEMATIC_NAME>
[(2R,3R,4S,5R,6R)-6-[[(2R,3S,5R)-3-acetyloxy-5-[5-methyl-2,4-bis(oxidanylidene)pyrimidin-1-yl]oxolan-2-yl]methoxysulfonylcarbamoyloxy]-3,4,5-tris(phenylcarbonyloxy)oxan-2-yl]methyl benzoate
> <PUBCHEM_IUPAC_TRADITIONAL_NAME>
benzoic acid [(2R,3R,4S,5R,6R)-6-[[(2R,3S,5R)-3-acetoxy-5-(2,4-diketo-5-methyl-pyrimidin-1-yl)tetrahydrofuran-2-yl]methoxysulfonylcarbamoyloxy]-3,4,5-tribenzoyloxy-tetrahydropyran-2-yl]methyl ester
> <PUBCHEM_IUPAC_INCHI>
InChI=1S/C47H43N3O19S/c1-27-24-50(46(57)48-40(27)52)36-23-33(63-28(2)51)34(64-36)26-62-70(59,60)49-47(58)69-45-39(68-44(56)32-21-13-6-14-22-32)38(67-43(55)31-19-11-5-12-20-31)37(66-42(54)30-17-9-4-10-18-30)35(65-45)25-61-41(53)29-15-7-3-8-16-29/h3-22,24,33-39,45H,23,25-26H2,1-2H3,(H,49,58)(H,48,52,57)/t33-,34+,35+,36+,37+,38-,39+,45+/m0/s1
> <PUBCHEM_IUPAC_INCHIKEY>
HZILDABVOAXEQK-WOPSFZJZSA-N
> <PUBCHEM_XLOGP3_AA>
5.3
> <PUBCHEM_EXACT_MASS>
985.22114732
> <PUBCHEM_MOLECULAR_FORMULA>
C47H43N3O19S
> <PUBCHEM_MOLECULAR_WEIGHT>
985.9
> <PUBCHEM_OPENEYE_CAN_SMILES>
CC1=CN(C(=O)NC1=O)C2CC(C(O2)COS(=O)(=O)NC(=O)OC3C(C(C(C(O3)COC(=O)C4=CC=CC=C4)OC(=O)C5=CC=CC=C5)OC(=O)C6=CC=CC=C6)OC(=O)C7=CC=CC=C7)OC(=O)C
> <PUBCHEM_OPENEYE_ISO_SMILES>
CC1=CN(C(=O)NC1=O)[C@H]2C[C@@H]([C@H](O2)COS(=O)(=O)NC(=O)O[C@@H]3[C@@H]([C@H]([C@@H]([C@H](O3)COC(=O)C4=CC=CC=C4)OC(=O)C5=CC=CC=C5)OC(=O)C6=CC=CC=C6)OC(=O)C7=CC=CC=C7)OC(=O)C
> <PUBCHEM_CACTVS_TPSA>
289
> <PUBCHEM_MONOISOTOPIC_WEIGHT>
985.22114732
> <PUBCHEM_TOTAL_CHARGE>
0
> <PUBCHEM_HEAVY_ATOM_COUNT>
70
> <PUBCHEM_ATOM_DEF_STEREO_COUNT>
8
> <PUBCHEM_ATOM_UDEF_STEREO_COUNT>
0
> <PUBCHEM_BOND_DEF_STEREO_COUNT>
0
> <PUBCHEM_BOND_UDEF_STEREO_COUNT>
0
> <PUBCHEM_ISOTOPIC_ATOM_COUNT>
0
> <PUBCHEM_COMPONENT_COUNT>
1
> <PUBCHEM_CACTVS_TAUTO_COUNT>
-1
> <PUBCHEM_COORDINATE_TYPE>
1
5
255
> <PUBCHEM_BONDANNOTATIONS>
31  21  5
21  35  8
21  36  8
23  36  8
23  43  8
27  33  5
29  34  5
35  41  8
24  4  5
41  43  8
44  51  8
44  52  8
45  53  8
45  54  8
47  55  8
47  56  8
25  5  6
50  63  8
50  64  8
51  57  8
52  58  8
53  59  8
54  60  8
55  61  8
56  62  8
57  65  8
58  65  8
59  66  8
26  6  6
60  66  8
61  67  8
62  67  8
63  68  8
64  69  8
68  70  8
69  70  8
28  7  6
32  8  6
$$$$
