503500
  -OEChem-10302200282D
 78 78  0     1  0  0  0  0  0999 V2000
    8.9282    2.8450    0.0000 P   0  0  3  0  0  0  0  0  0  0  0  0
    7.1962   -1.1550    0.0000 O   0  0  0  0  0  0  0  0  0  0  0  0
    9.7942    4.3450    0.0000 O   0  0  0  0  0  0  0  0  0  0  0  0
    8.9282    1.8450    0.0000 O   0  0  0  0  0  0  0  0  0  0  0  0
    7.9282    2.8450    0.0000 O   0  0  0  0  0  0  0  0  0  0  0  0
    8.0622    5.3450    0.0000 O   0  0  0  0  0  0  0  0  0  0  0  0
    9.9282    2.8450    0.0000 O   0  0  0  0  0  0  0  0  0  0  0  0
   12.3923    6.8450    0.0000 O   0  0  0  0  0  0  0  0  0  0  0  0
   10.6603    6.8450    0.0000 N   0  0  0  0  0  0  0  0  0  0  0  0
   11.5263    8.3450    0.0000 N   0  0  0  0  0  0  0  0  0  0  0  0
   10.6603    9.8450    0.0000 N   0  0  0  0  0  0  0  0  0  0  0  0
    4.5981   -5.6550    0.0000 C   0  0  0  0  0  0  0  0  0  0  0  0
    4.5981   -4.6550    0.0000 C   0  0  0  0  0  0  0  0  0  0  0  0
    3.7320   -6.1550    0.0000 C   0  0  0  0  0  0  0  0  0  0  0  0
    5.4641   -4.1550    0.0000 C   0  0  0  0  0  0  0  0  0  0  0  0
    3.7320   -7.1550    0.0000 C   0  0  0  0  0  0  0  0  0  0  0  0
    5.4641   -3.1550    0.0000 C   0  0  0  0  0  0  0  0  0  0  0  0
    2.8660   -7.6550    0.0000 C   0  0  0  0  0  0  0  0  0  0  0  0
    2.8660   -8.6550    0.0000 C   0  0  0  0  0  0  0  0  0  0  0  0
    6.3301   -2.6550    0.0000 C   0  0  0  0  0  0  0  0  0  0  0  0
    2.0000   -9.1550    0.0000 C   0  0  0  0  0  0  0  0  0  0  0  0
    6.3301   -1.6550    0.0000 C   0  0  0  0  0  0  0  0  0  0  0  0
    2.0000  -10.1550    0.0000 C   0  0  0  0  0  0  0  0  0  0  0  0
    7.1962   -0.1550    0.0000 C   0  0  0  0  0  0  0  0  0  0  0  0
    9.7942    5.3450    0.0000 C   0  0  1  0  0  0  0  0  0  0  0  0
    8.0622    0.3450    0.0000 C   0  0  0  0  0  0  0  0  0  0  0  0
   10.6603    5.8450    0.0000 C   0  0  0  0  0  0  0  0  0  0  0  0
    8.0622    1.3450    0.0000 C   0  0  0  0  0  0  0  0  0  0  0  0
    8.9282    3.8450    0.0000 C   0  0  0  0  0  0  0  0  0  0  0  0
    8.9282    5.8450    0.0000 C   0  0  0  0  0  0  0  0  0  0  0  0
    9.7942    7.3450    0.0000 C   0  0  0  0  0  0  0  0  0  0  0  0
   11.5263    7.3450    0.0000 C   0  0  0  0  0  0  0  0  0  0  0  0
    9.7942    8.3450    0.0000 C   0  0  0  0  0  0  0  0  0  0  0  0
   10.6603    8.8450    0.0000 C   0  0  0  0  0  0  0  0  0  0  0  0
    4.8101   -6.2376    0.0000 H   0  0  0  0  0  0  0  0  0  0  0  0
    5.2087   -5.5473    0.0000 H   0  0  0  0  0  0  0  0  0  0  0  0
    4.3860   -4.0724    0.0000 H   0  0  0  0  0  0  0  0  0  0  0  0
    3.9875   -4.7627    0.0000 H   0  0  0  0  0  0  0  0  0  0  0  0
    3.5200   -5.5724    0.0000 H   0  0  0  0  0  0  0  0  0  0  0  0
    3.1215   -6.2627    0.0000 H   0  0  0  0  0  0  0  0  0  0  0  0
    5.6762   -4.7376    0.0000 H   0  0  0  0  0  0  0  0  0  0  0  0
    6.0747   -4.0473    0.0000 H   0  0  0  0  0  0  0  0  0  0  0  0
    3.9441   -7.7376    0.0000 H   0  0  0  0  0  0  0  0  0  0  0  0
    4.3426   -7.0473    0.0000 H   0  0  0  0  0  0  0  0  0  0  0  0
    5.2520   -2.5724    0.0000 H   0  0  0  0  0  0  0  0  0  0  0  0
    4.8535   -3.2627    0.0000 H   0  0  0  0  0  0  0  0  0  0  0  0
    2.6540   -7.0724    0.0000 H   0  0  0  0  0  0  0  0  0  0  0  0
    2.2554   -7.7627    0.0000 H   0  0  0  0  0  0  0  0  0  0  0  0
    6.5422   -3.2376    0.0000 H   0  0  0  0  0  0  0  0  0  0  0  0
    6.9407   -2.5473    0.0000 H   0  0  0  0  0  0  0  0  0  0  0  0
    3.0781   -9.2376    0.0000 H   0  0  0  0  0  0  0  0  0  0  0  0
    3.4766   -8.5473    0.0000 H   0  0  0  0  0  0  0  0  0  0  0  0
    1.7880   -8.5724    0.0000 H   0  0  0  0  0  0  0  0  0  0  0  0
    1.3894   -9.2627    0.0000 H   0  0  0  0  0  0  0  0  0  0  0  0
    6.1181   -1.0724    0.0000 H   0  0  0  0  0  0  0  0  0  0  0  0
    5.7196   -1.7627    0.0000 H   0  0  0  0  0  0  0  0  0  0  0  0
    1.3800  -10.1550    0.0000 H   0  0  0  0  0  0  0  0  0  0  0  0
    2.0000  -10.7750    0.0000 H   0  0  0  0  0  0  0  0  0  0  0  0
    2.6200  -10.1550    0.0000 H   0  0  0  0  0  0  0  0  0  0  0  0
    6.9841    0.4276    0.0000 H   0  0  0  0  0  0  0  0  0  0  0  0
    6.5856   -0.2627    0.0000 H   0  0  0  0  0  0  0  0  0  0  0  0
    9.2573    5.0350    0.0000 H   0  0  0  0  0  0  0  0  0  0  0  0
    8.2742   -0.2376    0.0000 H   0  0  0  0  0  0  0  0  0  0  0  0
    8.6728    0.4527    0.0000 H   0  0  0  0  0  0  0  0  0  0  0  0
   10.8723    5.2624    0.0000 H   0  0  0  0  0  0  0  0  0  0  0  0
   11.2708    5.9527    0.0000 H   0  0  0  0  0  0  0  0  0  0  0  0
    7.8501    1.9276    0.0000 H   0  0  0  0  0  0  0  0  0  0  0  0
    7.4516    1.2373    0.0000 H   0  0  0  0  0  0  0  0  0  0  0  0
    8.7162    4.4276    0.0000 H   0  0  0  0  0  0  0  0  0  0  0  0
    8.3176    3.7373    0.0000 H   0  0  0  0  0  0  0  0  0  0  0  0
    9.3267    6.3200    0.0000 H   0  0  0  0  0  0  0  0  0  0  0  0
    8.5297    6.3200    0.0000 H   0  0  0  0  0  0  0  0  0  0  0  0
    9.2573    7.0350    0.0000 H   0  0  0  0  0  0  0  0  0  0  0  0
    7.6182    3.3819    0.0000 H   0  0  0  0  0  0  0  0  0  0  0  0
    9.2573    8.6550    0.0000 H   0  0  0  0  0  0  0  0  0  0  0  0
    7.5252    5.6550    0.0000 H   0  0  0  0  0  0  0  0  0  0  0  0
   10.1233   10.1550    0.0000 H   0  0  0  0  0  0  0  0  0  0  0  0
   11.1972   10.1550    0.0000 H   0  0  0  0  0  0  0  0  0  0  0  0
  1  4  1  0  0  0  0
  1  5  1  0  0  0  0
  1  7  2  0  0  0  0
  1 29  1  0  0  0  0
  2 22  1  0  0  0  0
  2 24  1  0  0  0  0
 25  3  1  6  0  0  0
  3 29  1  0  0  0  0
  4 28  1  0  0  0  0
  5 74  1  0  0  0  0
  6 30  1  0  0  0  0
  6 76  1  0  0  0  0
  8 32  2  0  0  0  0
  9 27  1  0  0  0  0
  9 31  1  0  0  0  0
  9 32  1  0  0  0  0
 10 32  1  0  0  0  0
 10 34  2  0  0  0  0
 11 34  1  0  0  0  0
 11 77  1  0  0  0  0
 11 78  1  0  0  0  0
 12 13  1  0  0  0  0
 12 14  1  0  0  0  0
 12 35  1  0  0  0  0
 12 36  1  0  0  0  0
 13 15  1  0  0  0  0
 13 37  1  0  0  0  0
 13 38  1  0  0  0  0
 14 16  1  0  0  0  0
 14 39  1  0  0  0  0
 14 40  1  0  0  0  0
 15 17  1  0  0  0  0
 15 41  1  0  0  0  0
 15 42  1  0  0  0  0
 16 18  1  0  0  0  0
 16 43  1  0  0  0  0
 16 44  1  0  0  0  0
 17 20  1  0  0  0  0
 17 45  1  0  0  0  0
 17 46  1  0  0  0  0
 18 19  1  0  0  0  0
 18 47  1  0  0  0  0
 18 48  1  0  0  0  0
 19 21  1  0  0  0  0
 19 51  1  0  0  0  0
 19 52  1  0  0  0  0
 20 22  1  0  0  0  0
 20 49  1  0  0  0  0
 20 50  1  0  0  0  0
 21 23  1  0  0  0  0
 21 53  1  0  0  0  0
 21 54  1  0  0  0  0
 22 55  1  0  0  0  0
 22 56  1  0  0  0  0
 23 57  1  0  0  0  0
 23 58  1  0  0  0  0
 23 59  1  0  0  0  0
 24 26  1  0  0  0  0
 24 60  1  0  0  0  0
 24 61  1  0  0  0  0
 25 27  1  0  0  0  0
 25 30  1  0  0  0  0
 25 62  1  0  0  0  0
 26 28  1  0  0  0  0
 26 63  1  0  0  0  0
 26 64  1  0  0  0  0
 27 65  1  0  0  0  0
 27 66  1  0  0  0  0
 28 67  1  0  0  0  0
 28 68  1  0  0  0  0
 29 69  1  0  0  0  0
 29 70  1  0  0  0  0
 30 71  1  0  0  0  0
 30 72  1  0  0  0  0
 31 33  2  0  0  0  0
 31 73  1  0  0  0  0
 33 34  1  0  0  0  0
 33 75  1  0  0  0  0
M  END
> <PUBCHEM_COMPOUND_CID>
503500
> <PUBCHEM_COMPOUND_CANONICALIZED>
1
> <PUBCHEM_CACTVS_COMPLEXITY>
661
> <PUBCHEM_CACTVS_HBOND_ACCEPTOR>
7
> <PUBCHEM_CACTVS_HBOND_DONOR>
3
> <PUBCHEM_CACTVS_ROTATABLE_BOND>
22
> <PUBCHEM_CACTVS_SUBSKEYS>
AAADcfB7OAIAAAAAAAAAAAAAAAAAAAAAAAAgAAAAAAAAAAAAAAAAHggQCCAACBThgAYDAANABxCoQCJmdICAAAEAAgAIAAAYABCDEAIAAAAHQAAHFgITAAGAwKAAAAAAAAAAAAAAAAAAAAAAAAAAAAAAAA==
> <PUBCHEM_IUPAC_OPENEYE_NAME>
[(1S)-1-[(4-amino-2-oxo-pyrimidin-1-yl)methyl]-2-hydroxy-ethoxy]methyl-(3-dodecoxypropoxy)phosphinic acid
> <PUBCHEM_IUPAC_CAS_NAME>
[(2S)-1-(4-amino-2-oxo-1-pyrimidinyl)-3-hydroxypropan-2-yl]oxymethyl-(3-dodecoxypropoxy)phosphinic acid
> <PUBCHEM_IUPAC_NAME_MARKUP>
[(2<I>S</I>)-1-(4-amino-2-oxopyrimidin-1-yl)-3-hydroxypropan-2-yl]oxymethyl-(3-dodecoxypropoxy)phosphinic acid
> <PUBCHEM_IUPAC_NAME>
[(2S)-1-(4-amino-2-oxopyrimidin-1-yl)-3-hydroxypropan-2-yl]oxymethyl-(3-dodecoxypropoxy)phosphinic acid
> <PUBCHEM_IUPAC_SYSTEMATIC_NAME>
[(2S)-1-(4-azanyl-2-oxidanylidene-pyrimidin-1-yl)-3-oxidanyl-propan-2-yl]oxymethyl-(3-dodecoxypropoxy)phosphinic acid
> <PUBCHEM_IUPAC_TRADITIONAL_NAME>
[(1S)-1-[(4-amino-2-keto-pyrimidin-1-yl)methyl]-2-hydroxy-ethoxy]methyl-(3-lauryloxypropoxy)phosphinic acid
> <PUBCHEM_IUPAC_INCHI>
InChI=1S/C23H44N3O7P/c1-2-3-4-5-6-7-8-9-10-11-15-31-16-12-17-33-34(29,30)20-32-21(19-27)18-26-14-13-22(24)25-23(26)28/h13-14,21,27H,2-12,15-20H2,1H3,(H,29,30)(H2,24,25,28)/t21-/m0/s1
> <PUBCHEM_IUPAC_INCHIKEY>
WZLAXSONYZVYAN-NRFANRHFSA-N
> <PUBCHEM_XLOGP3_AA>
2.7
> <PUBCHEM_EXACT_MASS>
505.29168775
> <PUBCHEM_MOLECULAR_FORMULA>
C23H44N3O7P
> <PUBCHEM_MOLECULAR_WEIGHT>
505.6
> <PUBCHEM_OPENEYE_CAN_SMILES>
CCCCCCCCCCCCOCCCOP(=O)(COC(CN1C=CC(=NC1=O)N)CO)O
> <PUBCHEM_OPENEYE_ISO_SMILES>
CCCCCCCCCCCCOCCCOP(=O)(CO[C@@H](CN1C=CC(=NC1=O)N)CO)O
> <PUBCHEM_CACTVS_TPSA>
144
> <PUBCHEM_MONOISOTOPIC_WEIGHT>
505.29168775
> <PUBCHEM_TOTAL_CHARGE>
0
> <PUBCHEM_HEAVY_ATOM_COUNT>
34
> <PUBCHEM_ATOM_DEF_STEREO_COUNT>
1
> <PUBCHEM_ATOM_UDEF_STEREO_COUNT>
0
> <PUBCHEM_BOND_DEF_STEREO_COUNT>
0
> <PUBCHEM_BOND_UDEF_STEREO_COUNT>
0
> <PUBCHEM_ISOTOPIC_ATOM_COUNT>
0
> <PUBCHEM_COMPONENT_COUNT>
1
> <PUBCHEM_CACTVS_TAUTO_COUNT>
-1
> <PUBCHEM_COORDINATE_TYPE>
1
5
255
> <PUBCHEM_BONDANNOTATIONS>
10  32  8
10  34  8
25  3  6
31  33  8
33  34  8
9  31  8
9  32  8
$$$$
