503503
  -OEChem-10302200282D
 36 38  0     1  0  0  0  0  0999 V2000
    9.9673    1.7981    0.0000 O   0  0  0  0  0  0  0  0  0  0  0  0
    6.0812    1.4901    0.0000 N   0  0  0  0  0  0  0  0  0  0  0  0
    6.0812   -0.1194    0.0000 N   0  0  0  0  0  0  0  0  0  0  0  0
    4.2690    1.6853    0.0000 N   0  0  0  0  0  0  0  0  0  0  0  0
    4.2690   -1.3147    0.0000 N   0  0  0  0  0  0  0  0  0  0  0  0
    3.4030    0.1853    0.0000 N   0  0  0  0  0  0  0  0  0  0  0  0
    2.5369    1.6853    0.0000 N   0  0  0  0  0  0  0  0  0  0  0  0
    8.3209    2.3362    0.0000 C   0  0  1  0  0  0  0  0  0  0  0  0
    8.1147    3.3147    0.0000 C   0  0  0  0  0  0  0  0  0  0  0  0
    7.3704    2.6468    0.0000 C   0  0  0  0  0  0  0  0  0  0  0  0
    8.9888    1.5918    0.0000 C   0  0  0  0  0  0  0  0  0  0  0  0
    6.3919    2.4406    0.0000 C   0  0  0  0  0  0  0  0  0  0  0  0
    5.1350    1.1853    0.0000 C   0  0  0  0  0  0  0  0  0  0  0  0
    6.6648    0.6853    0.0000 C   0  0  0  0  0  0  0  0  0  0  0  0
    5.1350    0.1853    0.0000 C   0  0  0  0  0  0  0  0  0  0  0  0
    4.2690   -0.3147    0.0000 C   0  0  0  0  0  0  0  0  0  0  0  0
    3.4030    1.1853    0.0000 C   0  0  0  0  0  0  0  0  0  0  0  0
    3.4030   -1.8147    0.0000 C   0  0  0  0  0  0  0  0  0  0  0  0
    3.4030   -2.8147    0.0000 C   0  0  0  0  0  0  0  0  0  0  0  0
    2.5369   -3.3147    0.0000 C   0  0  0  0  0  0  0  0  0  0  0  0
    7.9823    1.8168    0.0000 H   0  0  0  0  0  0  0  0  0  0  0  0
    8.6900    3.5459    0.0000 H   0  0  0  0  0  0  0  0  0  0  0  0
    7.7871    3.8410    0.0000 H   0  0  0  0  0  0  0  0  0  0  0  0
    8.4624    1.2642    0.0000 H   0  0  0  0  0  0  0  0  0  0  0  0
    9.2200    1.0166    0.0000 H   0  0  0  0  0  0  0  0  0  0  0  0
    5.9778    2.9021    0.0000 H   0  0  0  0  0  0  0  0  0  0  0  0
   10.3813    1.3366    0.0000 H   0  0  0  0  0  0  0  0  0  0  0  0
    7.2848    0.6853    0.0000 H   0  0  0  0  0  0  0  0  0  0  0  0
    4.8059   -1.6247    0.0000 H   0  0  0  0  0  0  0  0  0  0  0  0
    3.1909   -1.2320    0.0000 H   0  0  0  0  0  0  0  0  0  0  0  0
    2.7924   -1.9223    0.0000 H   0  0  0  0  0  0  0  0  0  0  0  0
    2.0000    1.3753    0.0000 H   0  0  0  0  0  0  0  0  0  0  0  0
    2.5369    2.3053    0.0000 H   0  0  0  0  0  0  0  0  0  0  0  0
    3.9399   -3.1247    0.0000 H   0  0  0  0  0  0  0  0  0  0  0  0
    2.0000   -3.0047    0.0000 H   0  0  0  0  0  0  0  0  0  0  0  0
    2.5369   -3.9347    0.0000 H   0  0  0  0  0  0  0  0  0  0  0  0
  1 11  1  0  0  0  0
  1 27  1  0  0  0  0
  2 12  1  0  0  0  0
  2 13  1  0  0  0  0
  2 14  1  0  0  0  0
  3 14  2  0  0  0  0
  3 15  1  0  0  0  0
  4 13  2  0  0  0  0
  4 17  1  0  0  0  0
  5 16  1  0  0  0  0
  5 18  1  0  0  0  0
  5 29  1  0  0  0  0
  6 16  1  0  0  0  0
  6 17  2  0  0  0  0
  7 17  1  0  0  0  0
  7 32  1  0  0  0  0
  7 33  1  0  0  0  0
  8  9  1  0  0  0  0
  8 10  1  0  0  0  0
  8 11  1  6  0  0  0
  8 21  1  0  0  0  0
  9 10  1  0  0  0  0
  9 22  1  0  0  0  0
  9 23  1  0  0  0  0
 10 12  2  3  0  0  0
 11 24  1  0  0  0  0
 11 25  1  0  0  0  0
 12 26  1  0  0  0  0
 13 15  1  0  0  0  0
 14 28  1  0  0  0  0
 15 16  2  0  0  0  0
 18 19  1  0  0  0  0
 18 30  1  0  0  0  0
 18 31  1  0  0  0  0
 19 20  2  0  0  0  0
 19 34  1  0  0  0  0
 20 35  1  0  0  0  0
 20 36  1  0  0  0  0
M  END
> <PUBCHEM_COMPOUND_CID>
503503
> <PUBCHEM_COMPOUND_CANONICALIZED>
1
> <PUBCHEM_CACTVS_COMPLEXITY>
400
> <PUBCHEM_CACTVS_HBOND_ACCEPTOR>
6
> <PUBCHEM_CACTVS_HBOND_DONOR>
3
> <PUBCHEM_CACTVS_ROTATABLE_BOND>
5
> <PUBCHEM_CACTVS_SUBSKEYS>
AAADceBzoAAAAAAAAAAAAAAAGAAAAWAAAAAsAAAAAAAAAFgB+AAAHgAQCAAADQjhlwYF8L/MEgCgAyZnZACAgC0xEKAJUKAoVBiAWABASUAURAgM0ALAACAAAAAAAAAAAAAAAAAAAAAAAAAAAAAAAAAAAA==
> <PUBCHEM_IUPAC_OPENEYE_NAME>
[(1S)-2-[[6-(allylamino)-2-amino-purin-9-yl]methylene]cyclopropyl]methanol
> <PUBCHEM_IUPAC_CAS_NAME>
[(1S)-2-[[2-amino-6-(prop-2-enylamino)-9-purinyl]methylidene]cyclopropyl]methanol
> <PUBCHEM_IUPAC_NAME_MARKUP>
[(1<I>S</I>)-2-[[2-amino-6-(prop-2-enylamino)purin-9-yl]methylidene]cyclopropyl]methanol
> <PUBCHEM_IUPAC_NAME>
[(1S)-2-[[2-amino-6-(prop-2-enylamino)purin-9-yl]methylidene]cyclopropyl]methanol
> <PUBCHEM_IUPAC_SYSTEMATIC_NAME>
[(1S)-2-[[2-azanyl-6-(prop-2-enylamino)purin-9-yl]methylidene]cyclopropyl]methanol
> <PUBCHEM_IUPAC_TRADITIONAL_NAME>
[(1S)-2-[[6-(allylamino)-2-amino-purin-9-yl]methylene]cyclopropyl]methanol
> <PUBCHEM_IUPAC_INCHI>
InChI=1S/C13H16N6O/c1-2-3-15-11-10-12(18-13(14)17-11)19(7-16-10)5-8-4-9(8)6-20/h2,5,7,9,20H,1,3-4,6H2,(H3,14,15,17,18)/t9-/m1/s1
> <PUBCHEM_IUPAC_INCHIKEY>
JQWHYLCDVANNEX-SECBINFHSA-N
> <PUBCHEM_XLOGP3_AA>
0.2
> <PUBCHEM_EXACT_MASS>
272.13855916
> <PUBCHEM_MOLECULAR_FORMULA>
C13H16N6O
> <PUBCHEM_MOLECULAR_WEIGHT>
272.31
> <PUBCHEM_OPENEYE_CAN_SMILES>
C=CCNC1=C2C(=NC(=N1)N)N(C=N2)C=C3CC3CO
> <PUBCHEM_OPENEYE_ISO_SMILES>
C=CCNC1=C2C(=NC(=N1)N)N(C=N2)C=C3C[C@@H]3CO
> <PUBCHEM_CACTVS_TPSA>
102
> <PUBCHEM_MONOISOTOPIC_WEIGHT>
272.13855916
> <PUBCHEM_TOTAL_CHARGE>
0
> <PUBCHEM_HEAVY_ATOM_COUNT>
20
> <PUBCHEM_ATOM_DEF_STEREO_COUNT>
1
> <PUBCHEM_ATOM_UDEF_STEREO_COUNT>
0
> <PUBCHEM_BOND_DEF_STEREO_COUNT>
0
> <PUBCHEM_BOND_UDEF_STEREO_COUNT>
1
> <PUBCHEM_ISOTOPIC_ATOM_COUNT>
0
> <PUBCHEM_COMPONENT_COUNT>
1
> <PUBCHEM_CACTVS_TAUTO_COUNT>
-1
> <PUBCHEM_COORDINATE_TYPE>
1
5
255
> <PUBCHEM_BONDANNOTATIONS>
10  12  1
13  15  8
15  16  8
2  13  8
2  14  8
3  14  8
3  15  8
4  13  8
4  17  8
6  16  8
6  17  8
8  11  6
$$$$
