503508
  -OEChem-10302200282D
 37 39  0     1  0  0  0  0  0999 V2000
    4.2690   -1.3147    0.0000 S   0  0  0  0  0  0  0  0  0  0  0  0
    9.9673    1.7981    0.0000 O   0  0  0  0  0  0  0  0  0  0  0  0
    6.0812    1.4901    0.0000 N   0  0  0  0  0  0  0  0  0  0  0  0
    6.0812   -0.1194    0.0000 N   0  0  0  0  0  0  0  0  0  0  0  0
    4.2690    1.6853    0.0000 N   0  0  0  0  0  0  0  0  0  0  0  0
    3.4030    0.1853    0.0000 N   0  0  0  0  0  0  0  0  0  0  0  0
    2.5369    1.6853    0.0000 N   0  0  0  0  0  0  0  0  0  0  0  0
    8.3209    2.3362    0.0000 C   0  0  1  0  0  0  0  0  0  0  0  0
    8.1147    3.3147    0.0000 C   0  0  0  0  0  0  0  0  0  0  0  0
    7.3704    2.6468    0.0000 C   0  0  0  0  0  0  0  0  0  0  0  0
    8.9888    1.5918    0.0000 C   0  0  0  0  0  0  0  0  0  0  0  0
    6.3919    2.4406    0.0000 C   0  0  0  0  0  0  0  0  0  0  0  0
    5.1350    1.1853    0.0000 C   0  0  0  0  0  0  0  0  0  0  0  0
    6.6648    0.6853    0.0000 C   0  0  0  0  0  0  0  0  0  0  0  0
    5.1350    0.1853    0.0000 C   0  0  0  0  0  0  0  0  0  0  0  0
    4.2690   -0.3147    0.0000 C   0  0  0  0  0  0  0  0  0  0  0  0
    3.4030    1.1853    0.0000 C   0  0  0  0  0  0  0  0  0  0  0  0
    3.4030   -1.8147    0.0000 C   0  0  0  0  0  0  0  0  0  0  0  0
    3.4030   -2.8147    0.0000 C   0  0  0  0  0  0  0  0  0  0  0  0
    2.5369   -3.3147    0.0000 C   0  0  0  0  0  0  0  0  0  0  0  0
    7.9823    1.8168    0.0000 H   0  0  0  0  0  0  0  0  0  0  0  0
    8.6900    3.5459    0.0000 H   0  0  0  0  0  0  0  0  0  0  0  0
    7.7871    3.8410    0.0000 H   0  0  0  0  0  0  0  0  0  0  0  0
    8.4624    1.2642    0.0000 H   0  0  0  0  0  0  0  0  0  0  0  0
    9.2200    1.0166    0.0000 H   0  0  0  0  0  0  0  0  0  0  0  0
    5.9778    2.9021    0.0000 H   0  0  0  0  0  0  0  0  0  0  0  0
   10.3813    1.3366    0.0000 H   0  0  0  0  0  0  0  0  0  0  0  0
    7.2848    0.6853    0.0000 H   0  0  0  0  0  0  0  0  0  0  0  0
    3.1909   -1.2320    0.0000 H   0  0  0  0  0  0  0  0  0  0  0  0
    2.7924   -1.9223    0.0000 H   0  0  0  0  0  0  0  0  0  0  0  0
    3.6150   -3.3973    0.0000 H   0  0  0  0  0  0  0  0  0  0  0  0
    4.0135   -2.7070    0.0000 H   0  0  0  0  0  0  0  0  0  0  0  0
    2.2269   -2.7777    0.0000 H   0  0  0  0  0  0  0  0  0  0  0  0
    2.0000   -3.6247    0.0000 H   0  0  0  0  0  0  0  0  0  0  0  0
    2.8469   -3.8516    0.0000 H   0  0  0  0  0  0  0  0  0  0  0  0
    2.0000    1.3753    0.0000 H   0  0  0  0  0  0  0  0  0  0  0  0
    2.5369    2.3053    0.0000 H   0  0  0  0  0  0  0  0  0  0  0  0
  1 16  1  0  0  0  0
  1 18  1  0  0  0  0
  2 11  1  0  0  0  0
  2 27  1  0  0  0  0
  3 12  1  0  0  0  0
  3 13  1  0  0  0  0
  3 14  1  0  0  0  0
  4 14  2  0  0  0  0
  4 15  1  0  0  0  0
  5 13  1  0  0  0  0
  5 17  2  0  0  0  0
  6 16  2  0  0  0  0
  6 17  1  0  0  0  0
  7 17  1  0  0  0  0
  7 36  1  0  0  0  0
  7 37  1  0  0  0  0
  8  9  1  0  0  0  0
  8 10  1  0  0  0  0
  8 11  1  6  0  0  0
  8 21  1  0  0  0  0
  9 10  1  0  0  0  0
  9 22  1  0  0  0  0
  9 23  1  0  0  0  0
 10 12  2  3  0  0  0
 11 24  1  0  0  0  0
 11 25  1  0  0  0  0
 12 26  1  0  0  0  0
 13 15  2  0  0  0  0
 14 28  1  0  0  0  0
 15 16  1  0  0  0  0
 18 19  1  0  0  0  0
 18 29  1  0  0  0  0
 18 30  1  0  0  0  0
 19 20  1  0  0  0  0
 19 31  1  0  0  0  0
 19 32  1  0  0  0  0
 20 33  1  0  0  0  0
 20 34  1  0  0  0  0
 20 35  1  0  0  0  0
M  END
> <PUBCHEM_COMPOUND_CID>
503508
> <PUBCHEM_COMPOUND_CANONICALIZED>
1
> <PUBCHEM_CACTVS_COMPLEXITY>
380
> <PUBCHEM_CACTVS_HBOND_ACCEPTOR>
6
> <PUBCHEM_CACTVS_HBOND_DONOR>
2
> <PUBCHEM_CACTVS_ROTATABLE_BOND>
5
> <PUBCHEM_CACTVS_SUBSKEYS>
AAADceBzoABAAAAAAAAAAAAAGAAAAWAAAAAsAAAAAAAAAFgB+AAAHgQQCAAADQjl1waH8b9MEgigAwZnZACA0C1xGLABUDQoVBiAWABgSUAURAwMwAJgACAAAAAAAAAAAAAAAAAAAAAAAAAAAAAAAAAAAA==
> <PUBCHEM_IUPAC_OPENEYE_NAME>
[(1S)-2-[(2-amino-6-propylsulfanyl-purin-9-yl)methylene]cyclopropyl]methanol
> <PUBCHEM_IUPAC_CAS_NAME>
[(1S)-2-[[2-amino-6-(propylthio)-9-purinyl]methylidene]cyclopropyl]methanol
> <PUBCHEM_IUPAC_NAME_MARKUP>
[(1<I>S</I>)-2-[(2-amino-6-propylsulfanylpurin-9-yl)methylidene]cyclopropyl]methanol
> <PUBCHEM_IUPAC_NAME>
[(1S)-2-[(2-amino-6-propylsulfanylpurin-9-yl)methylidene]cyclopropyl]methanol
> <PUBCHEM_IUPAC_SYSTEMATIC_NAME>
[(1S)-2-[(2-azanyl-6-propylsulfanyl-purin-9-yl)methylidene]cyclopropyl]methanol
> <PUBCHEM_IUPAC_TRADITIONAL_NAME>
[(1S)-2-[[2-amino-6-(propylthio)purin-9-yl]methylene]cyclopropyl]methanol
> <PUBCHEM_IUPAC_INCHI>
InChI=1S/C13H17N5OS/c1-2-3-20-12-10-11(16-13(14)17-12)18(7-15-10)5-8-4-9(8)6-19/h5,7,9,19H,2-4,6H2,1H3,(H2,14,16,17)/t9-/m1/s1
> <PUBCHEM_IUPAC_INCHIKEY>
CVEIWILRVWHLNN-SECBINFHSA-N
> <PUBCHEM_XLOGP3_AA>
0.9
> <PUBCHEM_EXACT_MASS>
291.11538136
> <PUBCHEM_MOLECULAR_FORMULA>
C13H17N5OS
> <PUBCHEM_MOLECULAR_WEIGHT>
291.37
> <PUBCHEM_OPENEYE_CAN_SMILES>
CCCSC1=NC(=NC2=C1N=CN2C=C3CC3CO)N
> <PUBCHEM_OPENEYE_ISO_SMILES>
CCCSC1=NC(=NC2=C1N=CN2C=C3C[C@@H]3CO)N
> <PUBCHEM_CACTVS_TPSA>
115
> <PUBCHEM_MONOISOTOPIC_WEIGHT>
291.11538136
> <PUBCHEM_TOTAL_CHARGE>
0
> <PUBCHEM_HEAVY_ATOM_COUNT>
20
> <PUBCHEM_ATOM_DEF_STEREO_COUNT>
1
> <PUBCHEM_ATOM_UDEF_STEREO_COUNT>
0
> <PUBCHEM_BOND_DEF_STEREO_COUNT>
0
> <PUBCHEM_BOND_UDEF_STEREO_COUNT>
1
> <PUBCHEM_ISOTOPIC_ATOM_COUNT>
0
> <PUBCHEM_COMPONENT_COUNT>
1
> <PUBCHEM_CACTVS_TAUTO_COUNT>
-1
> <PUBCHEM_COORDINATE_TYPE>
1
5
255
> <PUBCHEM_BONDANNOTATIONS>
10  12  1
13  15  8
15  16  8
3  13  8
3  14  8
4  14  8
4  15  8
5  13  8
5  17  8
6  16  8
6  17  8
8  11  6
$$$$
