503540
  -OEChem-10302200282D
111116  0     1  0  0  0  0  0999 V2000
    9.7942    1.2849    0.0000 S   0  0  0  0  0  0  0  0  0  0  0  0
   11.4693    4.3727    0.0000 O   0  0  0  0  0  0  0  0  0  0  0  0
    8.9002    4.0637    0.0000 O   0  0  0  0  0  0  0  0  0  0  0  0
    9.5725    6.1328    0.0000 O   0  0  0  0  0  0  0  0  0  0  0  0
    9.7942    2.2849    0.0000 O   0  0  0  0  0  0  0  0  0  0  0  0
    7.1962   -1.2151    0.0000 O   0  0  0  0  0  0  0  0  0  0  0  0
    5.4641   -3.2151    0.0000 O   0  0  0  0  0  0  0  0  0  0  0  0
    7.1962   -4.2151    0.0000 O   0  0  0  0  0  0  0  0  0  0  0  0
    8.9282   -1.2151    0.0000 O   0  0  0  0  0  0  0  0  0  0  0  0
   12.7783    4.1482    0.0000 O   0  0  0  0  0  0  0  0  0  0  0  0
    5.4641   -0.2151    0.0000 O   0  0  0  0  0  0  0  0  0  0  0  0
   10.7942    1.2849    0.0000 O   0  0  0  0  0  0  0  0  0  0  0  0
    8.7942    1.2849    0.0000 O   0  0  0  0  0  0  0  0  0  0  0  0
   14.8144    6.9507    0.0000 O   0  0  0  0  0  0  0  0  0  0  0  0
    8.0622    0.2849    0.0000 O   0  0  0  0  0  0  0  0  0  0  0  0
    4.5981   -1.7151    0.0000 O   0  0  0  0  0  0  0  0  0  0  0  0
    8.9282   -4.2151    0.0000 O   0  0  0  0  0  0  0  0  0  0  0  0
    3.7320   -0.2151    0.0000 O   0  0  0  0  0  0  0  0  0  0  0  0
   12.0738    5.7305    0.0000 N   0  0  0  0  0  0  0  0  0  0  0  0
   13.7964    5.5494    0.0000 N   0  0  0  0  0  0  0  0  0  0  0  0
    9.7942    0.2849    0.0000 N   0  0  0  0  0  0  0  0  0  0  0  0
    9.8512    4.3727    0.0000 C   0  0  1  0  0  0  0  0  0  0  0  0
   10.1603    5.3238    0.0000 C   0  0  2  0  0  0  0  0  0  0  0  0
   10.6603    3.7849    0.0000 C   0  0  1  0  0  0  0  0  0  0  0  0
   11.1603    5.3238    0.0000 C   0  0  1  0  0  0  0  0  0  0  0  0
   10.6603    2.7849    0.0000 C   0  0  0  0  0  0  0  0  0  0  0  0
    8.1570    4.7328    0.0000 C   0  0  0  0  0  0  0  0  0  0  0  0
    9.4679    7.1273    0.0000 C   0  0  0  0  0  0  0  0  0  0  0  0
    6.3301   -2.7151    0.0000 C   0  0  1  0  0  0  0  0  0  0  0  0
    7.1962   -3.2151    0.0000 C   0  0  1  0  0  0  0  0  0  0  0  0
   12.8828    5.1427    0.0000 C   0  0  0  0  0  0  0  0  0  0  0  0
   12.1783    6.7250    0.0000 C   0  0  0  0  0  0  0  0  0  0  0  0
    6.3301   -1.7151    0.0000 C   0  0  1  0  0  0  0  0  0  0  0  0
    8.0622   -2.7151    0.0000 C   0  0  0  0  0  0  0  0  0  0  0  0
    8.0622   -1.7151    0.0000 C   0  0  1  0  0  0  0  0  0  0  0  0
    7.2060    4.4238    0.0000 C   0  0  0  0  0  0  0  0  0  0  0  0
    8.3650    5.7110    0.0000 C   0  0  0  0  0  0  0  0  0  0  0  0
    8.5544    7.5340    0.0000 C   0  0  0  0  0  0  0  0  0  0  0  0
   10.2770    7.7151    0.0000 C   0  0  0  0  0  0  0  0  0  0  0  0
    5.4641   -1.2151    0.0000 C   0  0  0  0  0  0  0  0  0  0  0  0
   13.0919    7.1318    0.0000 C   0  0  0  0  0  0  0  0  0  0  0  0
   13.9009    6.5440    0.0000 C   0  0  0  0  0  0  0  0  0  0  0  0
    8.9282   -0.2151    0.0000 C   0  0  0  0  0  0  0  0  0  0  0  0
    4.5981   -2.7151    0.0000 C   0  0  0  0  0  0  0  0  0  0  0  0
    8.0622   -4.7151    0.0000 C   0  0  0  0  0  0  0  0  0  0  0  0
    3.7320   -3.2151    0.0000 C   0  0  0  0  0  0  0  0  0  0  0  0
    8.0622   -5.7151    0.0000 C   0  0  0  0  0  0  0  0  0  0  0  0
    4.5981    0.2849    0.0000 C   0  0  0  0  0  0  0  0  0  0  0  0
    4.5981    1.2849    0.0000 C   0  0  0  0  0  0  0  0  0  0  0  0
    3.7320   -4.2151    0.0000 C   0  0  0  0  0  0  0  0  0  0  0  0
    2.8660   -2.7151    0.0000 C   0  0  0  0  0  0  0  0  0  0  0  0
    8.9282   -6.2151    0.0000 C   0  0  0  0  0  0  0  0  0  0  0  0
    7.1962   -6.2151    0.0000 C   0  0  0  0  0  0  0  0  0  0  0  0
    2.8660   -4.7151    0.0000 C   0  0  0  0  0  0  0  0  0  0  0  0
    2.0000   -3.2151    0.0000 C   0  0  0  0  0  0  0  0  0  0  0  0
    8.9282   -7.2151    0.0000 C   0  0  0  0  0  0  0  0  0  0  0  0
    7.1962   -7.2151    0.0000 C   0  0  0  0  0  0  0  0  0  0  0  0
    3.7320    1.7849    0.0000 C   0  0  0  0  0  0  0  0  0  0  0  0
    5.4641    1.7849    0.0000 C   0  0  0  0  0  0  0  0  0  0  0  0
    2.0000   -4.2151    0.0000 C   0  0  0  0  0  0  0  0  0  0  0  0
    8.0622   -7.7151    0.0000 C   0  0  0  0  0  0  0  0  0  0  0  0
    3.7320    2.7849    0.0000 C   0  0  0  0  0  0  0  0  0  0  0  0
    5.4641    2.7849    0.0000 C   0  0  0  0  0  0  0  0  0  0  0  0
    4.5981    3.2849    0.0000 C   0  0  0  0  0  0  0  0  0  0  0  0
    9.7543    3.7603    0.0000 H   0  0  0  0  0  0  0  0  0  0  0  0
   10.4417    5.8762    0.0000 H   0  0  0  0  0  0  0  0  0  0  0  0
   11.2127    3.5034    0.0000 H   0  0  0  0  0  0  0  0  0  0  0  0
   11.0313    5.9302    0.0000 H   0  0  0  0  0  0  0  0  0  0  0  0
   10.8723    2.2023    0.0000 H   0  0  0  0  0  0  0  0  0  0  0  0
   11.2708    2.8926    0.0000 H   0  0  0  0  0  0  0  0  0  0  0  0
    8.0281    4.1264    0.0000 H   0  0  0  0  0  0  0  0  0  0  0  0
   10.0343    6.8751    0.0000 H   0  0  0  0  0  0  0  0  0  0  0  0
    6.3301   -3.3351    0.0000 H   0  0  0  0  0  0  0  0  0  0  0  0
    7.7331   -3.5251    0.0000 H   0  0  0  0  0  0  0  0  0  0  0  0
    6.3301   -1.0951    0.0000 H   0  0  0  0  0  0  0  0  0  0  0  0
   11.6767    7.0894    0.0000 H   0  0  0  0  0  0  0  0  0  0  0  0
    8.2742   -3.2977    0.0000 H   0  0  0  0  0  0  0  0  0  0  0  0
    8.6728   -2.6074    0.0000 H   0  0  0  0  0  0  0  0  0  0  0  0
    8.0622   -1.0951    0.0000 H   0  0  0  0  0  0  0  0  0  0  0  0
    7.0144    5.0134    0.0000 H   0  0  0  0  0  0  0  0  0  0  0  0
    6.6163    4.2322    0.0000 H   0  0  0  0  0  0  0  0  0  0  0  0
    7.3976    3.8341    0.0000 H   0  0  0  0  0  0  0  0  0  0  0  0
    8.9714    5.5821    0.0000 H   0  0  0  0  0  0  0  0  0  0  0  0
    8.4938    6.3174    0.0000 H   0  0  0  0  0  0  0  0  0  0  0  0
    7.7585    5.8399    0.0000 H   0  0  0  0  0  0  0  0  0  0  0  0
    8.8066    8.1004    0.0000 H   0  0  0  0  0  0  0  0  0  0  0  0
    7.9880    7.7862    0.0000 H   0  0  0  0  0  0  0  0  0  0  0  0
    8.3022    6.9676    0.0000 H   0  0  0  0  0  0  0  0  0  0  0  0
   10.6414    7.2135    0.0000 H   0  0  0  0  0  0  0  0  0  0  0  0
   10.7785    8.0795    0.0000 H   0  0  0  0  0  0  0  0  0  0  0  0
    9.9125    8.2167    0.0000 H   0  0  0  0  0  0  0  0  0  0  0  0
    4.8535   -1.1074    0.0000 H   0  0  0  0  0  0  0  0  0  0  0  0
    5.2520   -1.7977    0.0000 H   0  0  0  0  0  0  0  0  0  0  0  0
   14.2980    5.1850    0.0000 H   0  0  0  0  0  0  0  0  0  0  0  0
   13.1567    7.7484    0.0000 H   0  0  0  0  0  0  0  0  0  0  0  0
   10.3312   -0.0251    0.0000 H   0  0  0  0  0  0  0  0  0  0  0  0
    4.2690   -4.5251    0.0000 H   0  0  0  0  0  0  0  0  0  0  0  0
    2.8660   -2.0951    0.0000 H   0  0  0  0  0  0  0  0  0  0  0  0
    9.4651   -5.9051    0.0000 H   0  0  0  0  0  0  0  0  0  0  0  0
    6.6592   -5.9051    0.0000 H   0  0  0  0  0  0  0  0  0  0  0  0
    2.8660   -5.3351    0.0000 H   0  0  0  0  0  0  0  0  0  0  0  0
    1.4631   -2.9051    0.0000 H   0  0  0  0  0  0  0  0  0  0  0  0
    9.4651   -7.5251    0.0000 H   0  0  0  0  0  0  0  0  0  0  0  0
    6.6592   -7.5251    0.0000 H   0  0  0  0  0  0  0  0  0  0  0  0
    3.1951    1.4749    0.0000 H   0  0  0  0  0  0  0  0  0  0  0  0
    6.0010    1.4749    0.0000 H   0  0  0  0  0  0  0  0  0  0  0  0
    1.4631   -4.5251    0.0000 H   0  0  0  0  0  0  0  0  0  0  0  0
    8.0622   -8.3351    0.0000 H   0  0  0  0  0  0  0  0  0  0  0  0
    3.1951    3.0949    0.0000 H   0  0  0  0  0  0  0  0  0  0  0  0
    6.0010    3.0949    0.0000 H   0  0  0  0  0  0  0  0  0  0  0  0
    4.5981    3.9049    0.0000 H   0  0  0  0  0  0  0  0  0  0  0  0
  1  5  1  0  0  0  0
  1 12  2  0  0  0  0
  1 13  2  0  0  0  0
  1 21  1  0  0  0  0
  2 24  1  0  0  0  0
  2 25  1  0  0  0  0
 22  3  1  1  0  0  0
  3 27  1  0  0  0  0
 23  4  1  1  0  0  0
  4 28  1  0  0  0  0
  5 26  1  0  0  0  0
  6 33  1  0  0  0  0
  6 35  1  0  0  0  0
 29  7  1  6  0  0  0
  7 44  1  0  0  0  0
 30  8  1  1  0  0  0
  8 45  1  0  0  0  0
 35  9  1  1  0  0  0
  9 43  1  0  0  0  0
 10 31  2  0  0  0  0
 11 40  1  0  0  0  0
 11 48  1  0  0  0  0
 14 42  2  0  0  0  0
 15 43  2  0  0  0  0
 16 44  2  0  0  0  0
 17 45  2  0  0  0  0
 18 48  2  0  0  0  0
 25 19  1  6  0  0  0
 19 31  1  0  0  0  0
 19 32  1  0  0  0  0
 20 31  1  0  0  0  0
 20 42  1  0  0  0  0
 20 94  1  0  0  0  0
 21 43  1  0  0  0  0
 21 96  1  0  0  0  0
 22 23  1  0  0  0  0
 22 24  1  0  0  0  0
 22 65  1  0  0  0  0
 23 25  1  0  0  0  0
 23 66  1  0  0  0  0
 24 26  1  6  0  0  0
 24 67  1  0  0  0  0
 25 68  1  0  0  0  0
 26 69  1  0  0  0  0
 26 70  1  0  0  0  0
 27 36  1  0  0  0  0
 27 37  1  0  0  0  0
 27 71  1  0  0  0  0
 28 38  1  0  0  0  0
 28 39  1  0  0  0  0
 28 72  1  0  0  0  0
 29 30  1  0  0  0  0
 29 33  1  0  0  0  0
 29 73  1  0  0  0  0
 30 34  1  0  0  0  0
 30 74  1  0  0  0  0
 32 41  2  0  0  0  0
 32 76  1  0  0  0  0
 33 40  1  1  0  0  0
 33 75  1  0  0  0  0
 34 35  1  0  0  0  0
 34 77  1  0  0  0  0
 34 78  1  0  0  0  0
 35 79  1  0  0  0  0
 36 80  1  0  0  0  0
 36 81  1  0  0  0  0
 36 82  1  0  0  0  0
 37 83  1  0  0  0  0
 37 84  1  0  0  0  0
 37 85  1  0  0  0  0
 38 86  1  0  0  0  0
 38 87  1  0  0  0  0
 38 88  1  0  0  0  0
 39 89  1  0  0  0  0
 39 90  1  0  0  0  0
 39 91  1  0  0  0  0
 40 92  1  0  0  0  0
 40 93  1  0  0  0  0
 41 42  1  0  0  0  0
 41 95  1  0  0  0  0
 44 46  1  0  0  0  0
 45 47  1  0  0  0  0
 46 50  2  0  0  0  0
 46 51  1  0  0  0  0
 47 52  2  0  0  0  0
 47 53  1  0  0  0  0
 48 49  1  0  0  0  0
 49 58  2  0  0  0  0
 49 59  1  0  0  0  0
 50 54  1  0  0  0  0
 50 97  1  0  0  0  0
 51 55  2  0  0  0  0
 51 98  1  0  0  0  0
 52 56  1  0  0  0  0
 52 99  1  0  0  0  0
 53 57  2  0  0  0  0
 53100  1  0  0  0  0
 54 60  2  0  0  0  0
 54101  1  0  0  0  0
 55 60  1  0  0  0  0
 55102  1  0  0  0  0
 56 61  2  0  0  0  0
 56103  1  0  0  0  0
 57 61  1  0  0  0  0
 57104  1  0  0  0  0
 58 62  1  0  0  0  0
 58105  1  0  0  0  0
 59 63  2  0  0  0  0
 59106  1  0  0  0  0
 60107  1  0  0  0  0
 61108  1  0  0  0  0
 62 64  2  0  0  0  0
 62109  1  0  0  0  0
 63 64  1  0  0  0  0
 63110  1  0  0  0  0
 64111  1  0  0  0  0
M  END
> <PUBCHEM_COMPOUND_CID>
503540
> <PUBCHEM_COMPOUND_CANONICALIZED>
1
> <PUBCHEM_CACTVS_COMPLEXITY>
1770
> <PUBCHEM_CACTVS_HBOND_ACCEPTOR>
17
> <PUBCHEM_CACTVS_HBOND_DONOR>
2
> <PUBCHEM_CACTVS_ROTATABLE_BOND>
21
> <PUBCHEM_CACTVS_SUBSKEYS>
AAADcfB/PgBAAAAAAAAAAAAAAAAAASAAAAA0YMECAAAAAAABUAAAHgAQQAAADBTxmAczCIPABACIAiHWWDCCAAAkAgAIiAEICMmbJjKAtRivMQAv1yMeqcf4+C6OAAAAAAAAAAAAAAAAAAAAAAAAAAAAAA==
> <PUBCHEM_IUPAC_OPENEYE_NAME>
[(2R,3S,4R,6S)-3,4-dibenzoyloxy-6-[[(2R,3R,4R,5R)-5-(2,4-dioxopyrimidin-1-yl)-3,4-diisopropoxy-tetrahydrofuran-2-yl]methoxysulfonylcarbamoyloxy]tetrahydropyran-2-yl]methyl benzoate
> <PUBCHEM_IUPAC_CAS_NAME>
benzoic acid [(2R,3S,4R,6S)-3,4-dibenzoyloxy-6-[[[(2R,3R,4R,5R)-5-(2,4-dioxo-1-pyrimidinyl)-3,4-di(propan-2-yloxy)-2-oxolanyl]methoxysulfonylamino]-oxomethoxy]-2-oxanyl]methyl ester
> <PUBCHEM_IUPAC_NAME_MARKUP>
[(2<I>R</I>,3<I>S</I>,4<I>R</I>,6<I>S</I>)-3,4-dibenzoyloxy-6-[[(2<I>R</I>,3<I>R</I>,4<I>R</I>,5<I>R</I>)-5-(2,4-dioxopyrimidin-1-yl)-3,4-di(propan-2-yloxy)oxolan-2-yl]methoxysulfonylcarbamoyloxy]oxan-2-yl]methyl benzoate
> <PUBCHEM_IUPAC_NAME>
[(2R,3S,4R,6S)-3,4-dibenzoyloxy-6-[[(2R,3R,4R,5R)-5-(2,4-dioxopyrimidin-1-yl)-3,4-di(propan-2-yloxy)oxolan-2-yl]methoxysulfonylcarbamoyloxy]oxan-2-yl]methyl benzoate
> <PUBCHEM_IUPAC_SYSTEMATIC_NAME>
[(2R,3S,4R,6S)-6-[[(2R,3R,4R,5R)-5-[2,4-bis(oxidanylidene)pyrimidin-1-yl]-3,4-di(propan-2-yloxy)oxolan-2-yl]methoxysulfonylcarbamoyloxy]-3,4-bis(phenylcarbonyloxy)oxan-2-yl]methyl benzoate
> <PUBCHEM_IUPAC_TRADITIONAL_NAME>
benzoic acid [(2R,3S,4R,6S)-3,4-dibenzoyloxy-6-[[(2R,3R,4R,5R)-5-(2,4-diketopyrimidin-1-yl)-3,4-diisopropoxy-tetrahydrofuran-2-yl]methoxysulfonylcarbamoyloxy]tetrahydropyran-2-yl]methyl ester
> <PUBCHEM_IUPAC_INCHI>
InChI=1S/C43H47N3O17S/c1-25(2)57-36-32(60-38(37(36)58-26(3)4)46-21-20-33(47)44-42(46)51)24-56-64(53,54)45-43(52)62-34-22-30(61-40(49)28-16-10-6-11-17-28)35(63-41(50)29-18-12-7-13-19-29)31(59-34)23-55-39(48)27-14-8-5-9-15-27/h5-21,25-26,30-32,34-38H,22-24H2,1-4H3,(H,45,52)(H,44,47,51)/t30-,31-,32-,34+,35+,36-,37-,38-/m1/s1
> <PUBCHEM_IUPAC_INCHIKEY>
PHCKBHQXMXVXKV-DKEIOATJSA-N
> <PUBCHEM_XLOGP3_AA>
4.8
> <PUBCHEM_EXACT_MASS>
909.26261821
> <PUBCHEM_MOLECULAR_FORMULA>
C43H47N3O17S
> <PUBCHEM_MOLECULAR_WEIGHT>
909.9
> <PUBCHEM_OPENEYE_CAN_SMILES>
CC(C)OC1C(OC(C1OC(C)C)N2C=CC(=O)NC2=O)COS(=O)(=O)NC(=O)OC3CC(C(C(O3)COC(=O)C4=CC=CC=C4)OC(=O)C5=CC=CC=C5)OC(=O)C6=CC=CC=C6
> <PUBCHEM_OPENEYE_ISO_SMILES>
CC(C)O[C@@H]1[C@H](O[C@H]([C@@H]1OC(C)C)N2C=CC(=O)NC2=O)COS(=O)(=O)NC(=O)O[C@H]3C[C@H]([C@@H]([C@H](O3)COC(=O)C4=CC=CC=C4)OC(=O)C5=CC=CC=C5)OC(=O)C6=CC=CC=C6
> <PUBCHEM_CACTVS_TPSA>
255
> <PUBCHEM_MONOISOTOPIC_WEIGHT>
909.26261821
> <PUBCHEM_TOTAL_CHARGE>
0
> <PUBCHEM_HEAVY_ATOM_COUNT>
64
> <PUBCHEM_ATOM_DEF_STEREO_COUNT>
8
> <PUBCHEM_ATOM_UDEF_STEREO_COUNT>
0
> <PUBCHEM_BOND_DEF_STEREO_COUNT>
0
> <PUBCHEM_BOND_UDEF_STEREO_COUNT>
0
> <PUBCHEM_ISOTOPIC_ATOM_COUNT>
0
> <PUBCHEM_COMPONENT_COUNT>
1
> <PUBCHEM_CACTVS_TAUTO_COUNT>
-1
> <PUBCHEM_COORDINATE_TYPE>
1
5
255
> <PUBCHEM_BONDANNOTATIONS>
25  19  6
19  31  8
19  32  8
20  31  8
20  42  8
24  26  6
22  3  5
32  41  8
33  40  5
23  4  5
41  42  8
46  50  8
46  51  8
47  52  8
47  53  8
49  58  8
49  59  8
50  54  8
51  55  8
52  56  8
53  57  8
54  60  8
55  60  8
56  61  8
57  61  8
58  62  8
59  63  8
62  64  8
63  64  8
29  7  6
30  8  5
35  9  5
$$$$
