503549
  -OEChem-10302200282D
104109  0     1  0  0  0  0  0999 V2000
    9.7942    1.5000    0.0000 S   0  0  0  0  0  0  0  0  0  0  0  0
    7.1962   -1.0000    0.0000 O   0  0  0  0  0  0  0  0  0  0  0  0
    7.1962   -4.0000    0.0000 O   0  0  0  0  0  0  0  0  0  0  0  0
    5.4641   -3.0000    0.0000 O   0  0  0  0  0  0  0  0  0  0  0  0
    8.9282   -3.0000    0.0000 O   0  0  0  0  0  0  0  0  0  0  0  0
    8.9282   -1.0000    0.0000 O   0  0  0  0  0  0  0  0  0  0  0  0
    5.4641   -0.0000    0.0000 O   0  0  0  0  0  0  0  0  0  0  0  0
    8.0622    0.5000    0.0000 O   0  0  0  0  0  0  0  0  0  0  0  0
    9.7942    2.5000    0.0000 O   0  0  0  0  0  0  0  0  0  0  0  0
   10.7942    1.5000    0.0000 O   0  0  0  0  0  0  0  0  0  0  0  0
    8.7942    1.5000    0.0000 O   0  0  0  0  0  0  0  0  0  0  0  0
   11.5263    4.5000    0.0000 O   0  0  0  0  0  0  0  0  0  0  0  0
   13.2583    4.5000    0.0000 O   0  0  0  0  0  0  0  0  0  0  0  0
   14.9904    7.5000    0.0000 O   0  0  0  0  0  0  0  0  0  0  0  0
    9.7942    0.5000    0.0000 N   0  0  0  0  0  0  0  0  0  0  0  0
   12.3923    6.0000    0.0000 N   0  0  0  0  0  0  0  0  0  0  0  0
   14.1244    6.0000    0.0000 N   0  0  0  0  0  0  0  0  0  0  0  0
    7.1962   -3.0000    0.0000 C   0  0  1  0  0  0  0  0  0  0  0  0
    6.3301   -2.5000    0.0000 C   0  0  1  0  0  0  0  0  0  0  0  0
    8.0622   -2.5000    0.0000 C   0  0  2  0  0  0  0  0  0  0  0  0
    6.3301   -1.5000    0.0000 C   0  0  1  0  0  0  0  0  0  0  0  0
    8.0622   -1.5000    0.0000 C   0  0  2  0  0  0  0  0  0  0  0  0
    5.4641   -1.0000    0.0000 C   0  0  0  0  0  0  0  0  0  0  0  0
    6.3301   -4.5000    0.0000 C   0  0  0  0  0  0  0  0  0  0  0  0
    4.5981   -2.5000    0.0000 C   0  0  0  0  0  0  0  0  0  0  0  0
    9.7942   -2.5000    0.0000 C   0  0  0  0  0  0  0  0  0  0  0  0
    6.3301   -5.5000    0.0000 C   0  0  0  0  0  0  0  0  0  0  0  0
    3.7320   -3.0000    0.0000 C   0  0  0  0  0  0  0  0  0  0  0  0
    4.5981    0.5000    0.0000 C   0  0  0  0  0  0  0  0  0  0  0  0
    8.9282   -0.0000    0.0000 C   0  0  0  0  0  0  0  0  0  0  0  0
   10.6603   -3.0000    0.0000 C   0  0  0  0  0  0  0  0  0  0  0  0
    4.5981    1.5000    0.0000 C   0  0  0  0  0  0  0  0  0  0  0  0
    7.1962   -6.0000    0.0000 C   0  0  0  0  0  0  0  0  0  0  0  0
    5.4641   -6.0000    0.0000 C   0  0  0  0  0  0  0  0  0  0  0  0
    3.7320   -4.0000    0.0000 C   0  0  0  0  0  0  0  0  0  0  0  0
    2.8660   -2.5000    0.0000 C   0  0  0  0  0  0  0  0  0  0  0  0
   11.5263   -2.5000    0.0000 C   0  0  0  0  0  0  0  0  0  0  0  0
   10.6603   -4.0000    0.0000 C   0  0  0  0  0  0  0  0  0  0  0  0
    7.1962   -7.0000    0.0000 C   0  0  0  0  0  0  0  0  0  0  0  0
    5.4641   -7.0000    0.0000 C   0  0  0  0  0  0  0  0  0  0  0  0
    2.8660   -4.5000    0.0000 C   0  0  0  0  0  0  0  0  0  0  0  0
    2.0000   -3.0000    0.0000 C   0  0  0  0  0  0  0  0  0  0  0  0
   12.3923   -3.0000    0.0000 C   0  0  0  0  0  0  0  0  0  0  0  0
   11.5263   -4.5000    0.0000 C   0  0  0  0  0  0  0  0  0  0  0  0
    3.7320    2.0000    0.0000 C   0  0  0  0  0  0  0  0  0  0  0  0
    5.4641    2.0000    0.0000 C   0  0  0  0  0  0  0  0  0  0  0  0
    6.3301   -7.5000    0.0000 C   0  0  0  0  0  0  0  0  0  0  0  0
    2.0000   -4.0000    0.0000 C   0  0  0  0  0  0  0  0  0  0  0  0
   12.3923   -4.0000    0.0000 C   0  0  0  0  0  0  0  0  0  0  0  0
    3.7320    3.0000    0.0000 C   0  0  0  0  0  0  0  0  0  0  0  0
    5.4641    3.0000    0.0000 C   0  0  0  0  0  0  0  0  0  0  0  0
    4.5981    3.5000    0.0000 C   0  0  0  0  0  0  0  0  0  0  0  0
   10.6603    3.0000    0.0000 C   0  0  0  0  0  0  0  0  0  0  0  0
   10.6603    4.0000    0.0000 C   0  0  0  0  0  0  0  0  0  0  0  0
   11.5263    5.5000    0.0000 C   0  0  0  0  0  0  0  0  0  0  0  0
   13.2583    5.5000    0.0000 C   0  0  0  0  0  0  0  0  0  0  0  0
   12.3923    7.0000    0.0000 C   0  0  0  0  0  0  0  0  0  0  0  0
   13.2583    7.5000    0.0000 C   0  0  0  0  0  0  0  0  0  0  0  0
   14.1244    7.0000    0.0000 C   0  0  0  0  0  0  0  0  0  0  0  0
    6.6592   -3.3100    0.0000 H   0  0  0  0  0  0  0  0  0  0  0  0
    6.3301   -3.1200    0.0000 H   0  0  0  0  0  0  0  0  0  0  0  0
    8.0622   -3.1200    0.0000 H   0  0  0  0  0  0  0  0  0  0  0  0
    6.3301   -0.8800    0.0000 H   0  0  0  0  0  0  0  0  0  0  0  0
    8.0622   -0.8800    0.0000 H   0  0  0  0  0  0  0  0  0  0  0  0
    4.8535   -0.8923    0.0000 H   0  0  0  0  0  0  0  0  0  0  0  0
    5.2520   -1.5826    0.0000 H   0  0  0  0  0  0  0  0  0  0  0  0
    6.1181   -3.9174    0.0000 H   0  0  0  0  0  0  0  0  0  0  0  0
    5.7196   -4.6077    0.0000 H   0  0  0  0  0  0  0  0  0  0  0  0
    4.9966   -2.0250    0.0000 H   0  0  0  0  0  0  0  0  0  0  0  0
    4.1996   -2.0250    0.0000 H   0  0  0  0  0  0  0  0  0  0  0  0
   10.1928   -2.0250    0.0000 H   0  0  0  0  0  0  0  0  0  0  0  0
    9.3957   -2.0250    0.0000 H   0  0  0  0  0  0  0  0  0  0  0  0
    3.9875    0.6077    0.0000 H   0  0  0  0  0  0  0  0  0  0  0  0
    4.3860   -0.0826    0.0000 H   0  0  0  0  0  0  0  0  0  0  0  0
    7.7331   -5.6900    0.0000 H   0  0  0  0  0  0  0  0  0  0  0  0
    4.9272   -5.6900    0.0000 H   0  0  0  0  0  0  0  0  0  0  0  0
    4.2690   -4.3100    0.0000 H   0  0  0  0  0  0  0  0  0  0  0  0
    2.8660   -1.8800    0.0000 H   0  0  0  0  0  0  0  0  0  0  0  0
   10.3312    0.1900    0.0000 H   0  0  0  0  0  0  0  0  0  0  0  0
   11.5263   -1.8800    0.0000 H   0  0  0  0  0  0  0  0  0  0  0  0
   10.1233   -4.3100    0.0000 H   0  0  0  0  0  0  0  0  0  0  0  0
    7.7331   -7.3100    0.0000 H   0  0  0  0  0  0  0  0  0  0  0  0
    4.9272   -7.3100    0.0000 H   0  0  0  0  0  0  0  0  0  0  0  0
    2.8660   -5.1200    0.0000 H   0  0  0  0  0  0  0  0  0  0  0  0
    1.4631   -2.6900    0.0000 H   0  0  0  0  0  0  0  0  0  0  0  0
   12.9292   -2.6900    0.0000 H   0  0  0  0  0  0  0  0  0  0  0  0
   11.5263   -5.1200    0.0000 H   0  0  0  0  0  0  0  0  0  0  0  0
    3.1951    1.6900    0.0000 H   0  0  0  0  0  0  0  0  0  0  0  0
    6.0010    1.6900    0.0000 H   0  0  0  0  0  0  0  0  0  0  0  0
    6.3301   -8.1200    0.0000 H   0  0  0  0  0  0  0  0  0  0  0  0
    1.4631   -4.3100    0.0000 H   0  0  0  0  0  0  0  0  0  0  0  0
   12.9292   -4.3100    0.0000 H   0  0  0  0  0  0  0  0  0  0  0  0
    3.1951    3.3100    0.0000 H   0  0  0  0  0  0  0  0  0  0  0  0
    6.0010    3.3100    0.0000 H   0  0  0  0  0  0  0  0  0  0  0  0
    4.5981    4.1200    0.0000 H   0  0  0  0  0  0  0  0  0  0  0  0
   10.8723    2.4174    0.0000 H   0  0  0  0  0  0  0  0  0  0  0  0
   11.2708    3.1077    0.0000 H   0  0  0  0  0  0  0  0  0  0  0  0
   10.4482    4.5826    0.0000 H   0  0  0  0  0  0  0  0  0  0  0  0
   10.0497    3.8923    0.0000 H   0  0  0  0  0  0  0  0  0  0  0  0
   11.3142    6.0826    0.0000 H   0  0  0  0  0  0  0  0  0  0  0  0
   10.9157    5.3923    0.0000 H   0  0  0  0  0  0  0  0  0  0  0  0
   11.8554    7.3100    0.0000 H   0  0  0  0  0  0  0  0  0  0  0  0
   14.6613    5.6900    0.0000 H   0  0  0  0  0  0  0  0  0  0  0  0
   13.2583    8.1200    0.0000 H   0  0  0  0  0  0  0  0  0  0  0  0
  1  9  1  0  0  0  0
  1 10  2  0  0  0  0
  1 11  2  0  0  0  0
  1 15  1  0  0  0  0
  2 21  1  0  0  0  0
  2 22  1  0  0  0  0
 18  3  1  1  0  0  0
  3 24  1  0  0  0  0
 19  4  1  6  0  0  0
  4 25  1  0  0  0  0
 20  5  1  6  0  0  0
  5 26  1  0  0  0  0
 22  6  1  6  0  0  0
  6 30  1  0  0  0  0
  7 23  1  0  0  0  0
  7 29  1  0  0  0  0
  8 30  2  0  0  0  0
  9 53  1  0  0  0  0
 12 54  1  0  0  0  0
 12 55  1  0  0  0  0
 13 56  2  0  0  0  0
 14 59  2  0  0  0  0
 15 30  1  0  0  0  0
 15 79  1  0  0  0  0
 16 55  1  0  0  0  0
 16 56  1  0  0  0  0
 16 57  1  0  0  0  0
 17 56  1  0  0  0  0
 17 59  1  0  0  0  0
 17103  1  0  0  0  0
 18 19  1  0  0  0  0
 18 20  1  0  0  0  0
 18 60  1  0  0  0  0
 19 21  1  0  0  0  0
 19 61  1  0  0  0  0
 20 22  1  0  0  0  0
 20 62  1  0  0  0  0
 21 23  1  1  0  0  0
 21 63  1  0  0  0  0
 22 64  1  0  0  0  0
 23 65  1  0  0  0  0
 23 66  1  0  0  0  0
 24 27  1  0  0  0  0
 24 67  1  0  0  0  0
 24 68  1  0  0  0  0
 25 28  1  0  0  0  0
 25 69  1  0  0  0  0
 25 70  1  0  0  0  0
 26 31  1  0  0  0  0
 26 71  1  0  0  0  0
 26 72  1  0  0  0  0
 27 33  2  0  0  0  0
 27 34  1  0  0  0  0
 28 35  2  0  0  0  0
 28 36  1  0  0  0  0
 29 32  1  0  0  0  0
 29 73  1  0  0  0  0
 29 74  1  0  0  0  0
 31 37  2  0  0  0  0
 31 38  1  0  0  0  0
 32 45  2  0  0  0  0
 32 46  1  0  0  0  0
 33 39  1  0  0  0  0
 33 75  1  0  0  0  0
 34 40  2  0  0  0  0
 34 76  1  0  0  0  0
 35 41  1  0  0  0  0
 35 77  1  0  0  0  0
 36 42  2  0  0  0  0
 36 78  1  0  0  0  0
 37 43  1  0  0  0  0
 37 80  1  0  0  0  0
 38 44  2  0  0  0  0
 38 81  1  0  0  0  0
 39 47  2  0  0  0  0
 39 82  1  0  0  0  0
 40 47  1  0  0  0  0
 40 83  1  0  0  0  0
 41 48  2  0  0  0  0
 41 84  1  0  0  0  0
 42 48  1  0  0  0  0
 42 85  1  0  0  0  0
 43 49  2  0  0  0  0
 43 86  1  0  0  0  0
 44 49  1  0  0  0  0
 44 87  1  0  0  0  0
 45 50  1  0  0  0  0
 45 88  1  0  0  0  0
 46 51  2  0  0  0  0
 46 89  1  0  0  0  0
 47 90  1  0  0  0  0
 48 91  1  0  0  0  0
 49 92  1  0  0  0  0
 50 52  2  0  0  0  0
 50 93  1  0  0  0  0
 51 52  1  0  0  0  0
 51 94  1  0  0  0  0
 52 95  1  0  0  0  0
 53 54  1  0  0  0  0
 53 96  1  0  0  0  0
 53 97  1  0  0  0  0
 54 98  1  0  0  0  0
 54 99  1  0  0  0  0
 55100  1  0  0  0  0
 55101  1  0  0  0  0
 57 58  2  0  0  0  0
 57102  1  0  0  0  0
 58 59  1  0  0  0  0
 58104  1  0  0  0  0
M  END
> <PUBCHEM_COMPOUND_CID>
503549
> <PUBCHEM_COMPOUND_CANONICALIZED>
1
> <PUBCHEM_CACTVS_COMPLEXITY>
1420
> <PUBCHEM_CACTVS_HBOND_ACCEPTOR>
13
> <PUBCHEM_CACTVS_HBOND_DONOR>
2
> <PUBCHEM_CACTVS_ROTATABLE_BOND>
22
> <PUBCHEM_CACTVS_SUBSKEYS>
AAADcfB/PABAAAAAAAAAAAAAAAAAAAAAAAA0YMGCAAAAAAABVAAAHgAQQAAADBTxmAcxCIPABACIAiFWWDCCAAAgAgAIiAAICMmZJiKAMRiqMAAt1yMOqMfA4CwOAAAAAAAAAAAAAAAAAAAAAAAAAAAAAA==
> <PUBCHEM_IUPAC_OPENEYE_NAME>
[(2R,3R,4S,5R,6R)-3,4,5-tribenzyloxy-6-(benzyloxymethyl)tetrahydropyran-2-yl] N-[2-[(2,4-dioxopyrimidin-1-yl)methoxy]ethoxysulfonyl]carbamate
> <PUBCHEM_IUPAC_CAS_NAME>
N-[2-[(2,4-dioxo-1-pyrimidinyl)methoxy]ethoxysulfonyl]carbamic acid [(2R,3R,4S,5R,6R)-3,4,5-tris(phenylmethoxy)-6-(phenylmethoxymethyl)-2-oxanyl] ester
> <PUBCHEM_IUPAC_NAME_MARKUP>
[(2<I>R</I>,3<I>R</I>,4<I>S</I>,5<I>R</I>,6<I>R</I>)-3,4,5-tris(phenylmethoxy)-6-(phenylmethoxymethyl)oxan-2-yl] <I>N</I>-[2-[(2,4-dioxopyrimidin-1-yl)methoxy]ethoxysulfonyl]carbamate
> <PUBCHEM_IUPAC_NAME>
[(2R,3R,4S,5R,6R)-3,4,5-tris(phenylmethoxy)-6-(phenylmethoxymethyl)oxan-2-yl] N-[2-[(2,4-dioxopyrimidin-1-yl)methoxy]ethoxysulfonyl]carbamate
> <PUBCHEM_IUPAC_SYSTEMATIC_NAME>
[(2R,3R,4S,5R,6R)-3,4,5-tris(phenylmethoxy)-6-(phenylmethoxymethyl)oxan-2-yl] N-[2-[[2,4-bis(oxidanylidene)pyrimidin-1-yl]methoxy]ethoxysulfonyl]carbamate
> <PUBCHEM_IUPAC_TRADITIONAL_NAME>
N-[2-[(2,4-diketopyrimidin-1-yl)methoxy]ethoxysulfonyl]carbamic acid [(2R,3R,4S,5R,6R)-3,4,5-tribenzoxy-6-(benzoxymethyl)tetrahydropyran-2-yl] ester
> <PUBCHEM_IUPAC_INCHI>
InChI=1S/C42H45N3O13S/c46-36-21-22-45(41(47)43-36)30-51-23-24-56-59(49,50)44-42(48)58-40-39(55-28-34-19-11-4-12-20-34)38(54-27-33-17-9-3-10-18-33)37(53-26-32-15-7-2-8-16-32)35(57-40)29-52-25-31-13-5-1-6-14-31/h1-22,35,37-40H,23-30H2,(H,44,48)(H,43,46,47)/t35-,37-,38+,39-,40-/m1/s1
> <PUBCHEM_IUPAC_INCHIKEY>
PMVMABVHZNIATQ-HRSAFRLBSA-N
> <PUBCHEM_XLOGP3_AA>
3.9
> <PUBCHEM_EXACT_MASS>
831.26730967
> <PUBCHEM_MOLECULAR_FORMULA>
C42H45N3O13S
> <PUBCHEM_MOLECULAR_WEIGHT>
831.9
> <PUBCHEM_OPENEYE_CAN_SMILES>
C1=CC=C(C=C1)COCC2C(C(C(C(O2)OC(=O)NS(=O)(=O)OCCOCN3C=CC(=O)NC3=O)OCC4=CC=CC=C4)OCC5=CC=CC=C5)OCC6=CC=CC=C6
> <PUBCHEM_OPENEYE_ISO_SMILES>
C1=CC=C(C=C1)COC[C@@H]2[C@H]([C@@H]([C@H]([C@H](O2)OC(=O)NS(=O)(=O)OCCOCN3C=CC(=O)NC3=O)OCC4=CC=CC=C4)OCC5=CC=CC=C5)OCC6=CC=CC=C6
> <PUBCHEM_CACTVS_TPSA>
195
> <PUBCHEM_MONOISOTOPIC_WEIGHT>
831.26730967
> <PUBCHEM_TOTAL_CHARGE>
0
> <PUBCHEM_HEAVY_ATOM_COUNT>
59
> <PUBCHEM_ATOM_DEF_STEREO_COUNT>
5
> <PUBCHEM_ATOM_UDEF_STEREO_COUNT>
0
> <PUBCHEM_BOND_DEF_STEREO_COUNT>
0
> <PUBCHEM_BOND_UDEF_STEREO_COUNT>
0
> <PUBCHEM_ISOTOPIC_ATOM_COUNT>
0
> <PUBCHEM_COMPONENT_COUNT>
1
> <PUBCHEM_CACTVS_TAUTO_COUNT>
-1
> <PUBCHEM_COORDINATE_TYPE>
1
5
255
> <PUBCHEM_BONDANNOTATIONS>
16  56  8
16  57  8
17  56  8
17  59  8
21  23  5
27  33  8
27  34  8
28  35  8
28  36  8
18  3  5
31  37  8
31  38  8
32  45  8
32  46  8
33  39  8
34  40  8
35  41  8
36  42  8
37  43  8
38  44  8
39  47  8
19  4  6
40  47  8
41  48  8
42  48  8
43  49  8
44  49  8
45  50  8
46  51  8
20  5  6
50  52  8
51  52  8
57  58  8
58  59  8
22  6  6
$$$$
