503661
  -OEChem-10302200282D
 46 48  0     1  0  0  0  0  0999 V2000
    7.1962   -3.0194    0.0000 Cl  0  0  0  0  0  0  0  0  0  0  0  0
    8.9852    2.0684    0.0000 S   0  0  0  0  0  0  0  0  0  0  0  0
    8.0622    1.4806    0.0000 S   0  0  0  0  0  0  0  0  0  0  0  0
    7.1962   -0.0194    0.0000 O   0  0  0  0  0  0  0  0  0  0  0  0
    4.5981    0.4806    0.0000 O   0  0  0  0  0  0  0  0  0  0  0  0
   10.6603   -0.0194    0.0000 O   0  0  0  0  0  0  0  0  0  0  0  0
    8.9282   -0.0194    0.0000 N   0  0  0  0  0  0  0  0  0  0  0  0
    6.3301    0.4806    0.0000 C   0  0  3  0  0  0  0  0  0  0  0  0
    5.4641   -0.0194    0.0000 C   0  0  0  0  0  0  0  0  0  0  0  0
    6.3301    1.4806    0.0000 C   0  0  0  0  0  0  0  0  0  0  0  0
    8.9282   -1.0194    0.0000 C   0  0  0  0  0  0  0  0  0  0  0  0
    8.0622    0.4806    0.0000 C   0  0  0  0  0  0  0  0  0  0  0  0
    9.7942    0.4806    0.0000 C   0  0  0  0  0  0  0  0  0  0  0  0
    3.7320   -0.0194    0.0000 C   0  0  0  0  0  0  0  0  0  0  0  0
    8.0622   -1.5194    0.0000 C   0  0  0  0  0  0  0  0  0  0  0  0
    9.7942   -1.5194    0.0000 C   0  0  0  0  0  0  0  0  0  0  0  0
    9.7942    1.4806    0.0000 C   0  0  0  0  0  0  0  0  0  0  0  0
    8.0622   -2.5194    0.0000 C   0  0  0  0  0  0  0  0  0  0  0  0
    9.7942   -2.5194    0.0000 C   0  0  0  0  0  0  0  0  0  0  0  0
    8.9282   -3.0194    0.0000 C   0  0  0  0  0  0  0  0  0  0  0  0
    3.7320   -1.0194    0.0000 C   0  0  0  0  0  0  0  0  0  0  0  0
    2.8660    0.4806    0.0000 C   0  0  0  0  0  0  0  0  0  0  0  0
   10.6032    2.0684    0.0000 C   0  0  0  0  0  0  0  0  0  0  0  0
    2.8660   -1.5194    0.0000 C   0  0  0  0  0  0  0  0  0  0  0  0
    2.0000   -0.0194    0.0000 C   0  0  0  0  0  0  0  0  0  0  0  0
   10.2942    3.0194    0.0000 C   0  0  0  0  0  0  0  0  0  0  0  0
    2.0000   -1.0194    0.0000 C   0  0  0  0  0  0  0  0  0  0  0  0
    9.2942    3.0194    0.0000 C   0  0  0  0  0  0  0  0  0  0  0  0
    6.8671    0.7906    0.0000 H   0  0  0  0  0  0  0  0  0  0  0  0
    5.0656   -0.4944    0.0000 H   0  0  0  0  0  0  0  0  0  0  0  0
    5.8626   -0.4944    0.0000 H   0  0  0  0  0  0  0  0  0  0  0  0
    6.9501    1.4806    0.0000 H   0  0  0  0  0  0  0  0  0  0  0  0
    6.3301    2.1006    0.0000 H   0  0  0  0  0  0  0  0  0  0  0  0
    5.7101    1.4806    0.0000 H   0  0  0  0  0  0  0  0  0  0  0  0
    7.5252   -1.2094    0.0000 H   0  0  0  0  0  0  0  0  0  0  0  0
   10.3312   -1.2094    0.0000 H   0  0  0  0  0  0  0  0  0  0  0  0
   10.3312   -2.8294    0.0000 H   0  0  0  0  0  0  0  0  0  0  0  0
    8.9282   -3.6394    0.0000 H   0  0  0  0  0  0  0  0  0  0  0  0
    4.2690   -1.3294    0.0000 H   0  0  0  0  0  0  0  0  0  0  0  0
    2.8660    1.1006    0.0000 H   0  0  0  0  0  0  0  0  0  0  0  0
   11.1929    1.8768    0.0000 H   0  0  0  0  0  0  0  0  0  0  0  0
    2.8660   -2.1394    0.0000 H   0  0  0  0  0  0  0  0  0  0  0  0
    1.4631    0.2906    0.0000 H   0  0  0  0  0  0  0  0  0  0  0  0
   10.6587    3.5210    0.0000 H   0  0  0  0  0  0  0  0  0  0  0  0
    1.4631   -1.3294    0.0000 H   0  0  0  0  0  0  0  0  0  0  0  0
    8.9298    3.5210    0.0000 H   0  0  0  0  0  0  0  0  0  0  0  0
  1 18  1  0  0  0  0
  2 17  1  0  0  0  0
  2 28  1  0  0  0  0
  3 12  2  0  0  0  0
  4  8  1  0  0  0  0
  4 12  1  0  0  0  0
  5  9  1  0  0  0  0
  5 14  1  0  0  0  0
  6 13  2  0  0  0  0
  7 11  1  0  0  0  0
  7 12  1  0  0  0  0
  7 13  1  0  0  0  0
  8  9  1  0  0  0  0
  8 10  1  0  0  0  0
  8 29  1  0  0  0  0
  9 30  1  0  0  0  0
  9 31  1  0  0  0  0
 10 32  1  0  0  0  0
 10 33  1  0  0  0  0
 10 34  1  0  0  0  0
 11 15  2  0  0  0  0
 11 16  1  0  0  0  0
 13 17  1  0  0  0  0
 14 21  2  0  0  0  0
 14 22  1  0  0  0  0
 15 18  1  0  0  0  0
 15 35  1  0  0  0  0
 16 19  2  0  0  0  0
 16 36  1  0  0  0  0
 17 23  2  0  0  0  0
 18 20  2  0  0  0  0
 19 20  1  0  0  0  0
 19 37  1  0  0  0  0
 20 38  1  0  0  0  0
 21 24  1  0  0  0  0
 21 39  1  0  0  0  0
 22 25  2  0  0  0  0
 22 40  1  0  0  0  0
 23 26  1  0  0  0  0
 23 41  1  0  0  0  0
 24 27  2  0  0  0  0
 24 42  1  0  0  0  0
 25 27  1  0  0  0  0
 25 43  1  0  0  0  0
 26 28  2  0  0  0  0
 26 44  1  0  0  0  0
 27 45  1  0  0  0  0
 28 46  1  0  0  0  0
M  END
> <PUBCHEM_COMPOUND_CID>
503661
> <PUBCHEM_COMPOUND_CANONICALIZED>
1
> <PUBCHEM_CACTVS_COMPLEXITY>
530
> <PUBCHEM_CACTVS_HBOND_ACCEPTOR>
5
> <PUBCHEM_CACTVS_HBOND_DONOR>
0
> <PUBCHEM_CACTVS_ROTATABLE_BOND>
7
> <PUBCHEM_CACTVS_SUBSKEYS>
AAADceB6MABkAAAAAAAAAAAAAAAAASAAAAAwYAAAAAAAAAAB0AAAHgYAAAAACB6l0CKyx4MABAiMACVSUACDCIAlLxhIiBkGbsgNJjLlt5uOOSjkxBHq6YeYQAAAAAAAAAIAAAAAAAAABAAAAAAAAAAAAA==
> <PUBCHEM_IUPAC_OPENEYE_NAME>
O-(1-methyl-2-phenoxy-ethyl) N-(3-chlorophenyl)-N-(thiophene-2-carbonyl)carbamothioate
> <PUBCHEM_IUPAC_CAS_NAME>
N-(3-chlorophenyl)-N-[oxo(thiophen-2-yl)methyl]carbamothioic acid O-(1-phenoxypropan-2-yl) ester
> <PUBCHEM_IUPAC_NAME_MARKUP>
<I>O</I>-(1-phenoxypropan-2-yl) <I>N</I>-(3-chlorophenyl)-<I>N</I>-(thiophene-2-carbonyl)carbamothioate
> <PUBCHEM_IUPAC_NAME>
O-(1-phenoxypropan-2-yl) N-(3-chlorophenyl)-N-(thiophene-2-carbonyl)carbamothioate
> <PUBCHEM_IUPAC_SYSTEMATIC_NAME>
O-(1-phenoxypropan-2-yl) N-(3-chlorophenyl)-N-thiophen-2-ylcarbonyl-carbamothioate
> <PUBCHEM_IUPAC_TRADITIONAL_NAME>
N-(3-chlorophenyl)-N-(2-thenoyl)thiocarbamic acid O-(1-methyl-2-phenoxy-ethyl) ester
> <PUBCHEM_IUPAC_INCHI>
InChI=1S/C21H18ClNO3S2/c1-15(14-25-18-9-3-2-4-10-18)26-21(27)23(17-8-5-7-16(22)13-17)20(24)19-11-6-12-28-19/h2-13,15H,14H2,1H3
> <PUBCHEM_IUPAC_INCHIKEY>
XZBNTBVEOKRIGA-UHFFFAOYSA-N
> <PUBCHEM_XLOGP3_AA>
6.5
> <PUBCHEM_EXACT_MASS>
431.0416635
> <PUBCHEM_MOLECULAR_FORMULA>
C21H18ClNO3S2
> <PUBCHEM_MOLECULAR_WEIGHT>
432.0
> <PUBCHEM_OPENEYE_CAN_SMILES>
CC(COC1=CC=CC=C1)OC(=S)N(C2=CC(=CC=C2)Cl)C(=O)C3=CC=CS3
> <PUBCHEM_OPENEYE_ISO_SMILES>
CC(COC1=CC=CC=C1)OC(=S)N(C2=CC(=CC=C2)Cl)C(=O)C3=CC=CS3
> <PUBCHEM_CACTVS_TPSA>
99.1
> <PUBCHEM_MONOISOTOPIC_WEIGHT>
431.0416635
> <PUBCHEM_TOTAL_CHARGE>
0
> <PUBCHEM_HEAVY_ATOM_COUNT>
28
> <PUBCHEM_ATOM_DEF_STEREO_COUNT>
0
> <PUBCHEM_ATOM_UDEF_STEREO_COUNT>
1
> <PUBCHEM_BOND_DEF_STEREO_COUNT>
0
> <PUBCHEM_BOND_UDEF_STEREO_COUNT>
0
> <PUBCHEM_ISOTOPIC_ATOM_COUNT>
0
> <PUBCHEM_COMPONENT_COUNT>
1
> <PUBCHEM_CACTVS_TAUTO_COUNT>
-1
> <PUBCHEM_COORDINATE_TYPE>
1
5
255
> <PUBCHEM_BONDANNOTATIONS>
11  15  8
11  16  8
14  21  8
14  22  8
15  18  8
16  19  8
17  23  8
18  20  8
19  20  8
2  17  8
2  28  8
21  24  8
22  25  8
23  26  8
24  27  8
25  27  8
26  28  8
8  10  3
$$$$
