503659
  -OEChem-10302200282D
 46 48  0     1  0  0  0  0  0999 V2000
    8.0622    1.4806    0.0000 S   0  0  0  0  0  0  0  0  0  0  0  0
    7.1962   -0.0194    0.0000 O   0  0  0  0  0  0  0  0  0  0  0  0
    4.5981    0.4806    0.0000 O   0  0  0  0  0  0  0  0  0  0  0  0
    8.9852    2.0684    0.0000 O   0  0  0  0  0  0  0  0  0  0  0  0
   10.6603   -0.0194    0.0000 O   0  0  0  0  0  0  0  0  0  0  0  0
    8.9282   -0.0194    0.0000 N   0  0  0  0  0  0  0  0  0  0  0  0
    6.3301    0.4806    0.0000 C   0  0  3  0  0  0  0  0  0  0  0  0
    5.4641   -0.0194    0.0000 C   0  0  0  0  0  0  0  0  0  0  0  0
    6.3301    1.4806    0.0000 C   0  0  0  0  0  0  0  0  0  0  0  0
    8.9282   -1.0194    0.0000 C   0  0  0  0  0  0  0  0  0  0  0  0
    8.0622    0.4806    0.0000 C   0  0  0  0  0  0  0  0  0  0  0  0
    9.7942    0.4806    0.0000 C   0  0  0  0  0  0  0  0  0  0  0  0
    3.7320   -0.0194    0.0000 C   0  0  0  0  0  0  0  0  0  0  0  0
    8.0622   -1.5194    0.0000 C   0  0  0  0  0  0  0  0  0  0  0  0
    9.7942   -1.5194    0.0000 C   0  0  0  0  0  0  0  0  0  0  0  0
    9.7942    1.4806    0.0000 C   0  0  0  0  0  0  0  0  0  0  0  0
    8.0622   -2.5194    0.0000 C   0  0  0  0  0  0  0  0  0  0  0  0
    9.7942   -2.5194    0.0000 C   0  0  0  0  0  0  0  0  0  0  0  0
    2.8660    0.4806    0.0000 C   0  0  0  0  0  0  0  0  0  0  0  0
    3.7320   -1.0194    0.0000 C   0  0  0  0  0  0  0  0  0  0  0  0
    8.9282   -3.0194    0.0000 C   0  0  0  0  0  0  0  0  0  0  0  0
   10.6032    2.0684    0.0000 C   0  0  0  0  0  0  0  0  0  0  0  0
    2.0000   -0.0194    0.0000 C   0  0  0  0  0  0  0  0  0  0  0  0
    2.8660   -1.5194    0.0000 C   0  0  0  0  0  0  0  0  0  0  0  0
   10.2942    3.0194    0.0000 C   0  0  0  0  0  0  0  0  0  0  0  0
    2.0000   -1.0194    0.0000 C   0  0  0  0  0  0  0  0  0  0  0  0
    9.2942    3.0194    0.0000 C   0  0  0  0  0  0  0  0  0  0  0  0
    6.8671    0.7906    0.0000 H   0  0  0  0  0  0  0  0  0  0  0  0
    5.0656   -0.4944    0.0000 H   0  0  0  0  0  0  0  0  0  0  0  0
    5.8626   -0.4944    0.0000 H   0  0  0  0  0  0  0  0  0  0  0  0
    6.9501    1.4806    0.0000 H   0  0  0  0  0  0  0  0  0  0  0  0
    6.3301    2.1006    0.0000 H   0  0  0  0  0  0  0  0  0  0  0  0
    5.7101    1.4806    0.0000 H   0  0  0  0  0  0  0  0  0  0  0  0
    7.5252   -1.2094    0.0000 H   0  0  0  0  0  0  0  0  0  0  0  0
   10.3312   -1.2094    0.0000 H   0  0  0  0  0  0  0  0  0  0  0  0
    7.5252   -2.8294    0.0000 H   0  0  0  0  0  0  0  0  0  0  0  0
   10.3312   -2.8294    0.0000 H   0  0  0  0  0  0  0  0  0  0  0  0
    2.8660    1.1006    0.0000 H   0  0  0  0  0  0  0  0  0  0  0  0
    4.2690   -1.3294    0.0000 H   0  0  0  0  0  0  0  0  0  0  0  0
    8.9282   -3.6394    0.0000 H   0  0  0  0  0  0  0  0  0  0  0  0
   11.1929    1.8768    0.0000 H   0  0  0  0  0  0  0  0  0  0  0  0
    1.4631    0.2906    0.0000 H   0  0  0  0  0  0  0  0  0  0  0  0
    2.8660   -2.1394    0.0000 H   0  0  0  0  0  0  0  0  0  0  0  0
   10.6587    3.5210    0.0000 H   0  0  0  0  0  0  0  0  0  0  0  0
    1.4631   -1.3294    0.0000 H   0  0  0  0  0  0  0  0  0  0  0  0
    8.9298    3.5210    0.0000 H   0  0  0  0  0  0  0  0  0  0  0  0
  1 11  2  0  0  0  0
  2  7  1  0  0  0  0
  2 11  1  0  0  0  0
  3  8  1  0  0  0  0
  3 13  1  0  0  0  0
  4 16  1  0  0  0  0
  4 27  1  0  0  0  0
  5 12  2  0  0  0  0
  6 10  1  0  0  0  0
  6 11  1  0  0  0  0
  6 12  1  0  0  0  0
  7  8  1  0  0  0  0
  7  9  1  0  0  0  0
  7 28  1  0  0  0  0
  8 29  1  0  0  0  0
  8 30  1  0  0  0  0
  9 31  1  0  0  0  0
  9 32  1  0  0  0  0
  9 33  1  0  0  0  0
 10 14  2  0  0  0  0
 10 15  1  0  0  0  0
 12 16  1  0  0  0  0
 13 19  2  0  0  0  0
 13 20  1  0  0  0  0
 14 17  1  0  0  0  0
 14 34  1  0  0  0  0
 15 18  2  0  0  0  0
 15 35  1  0  0  0  0
 16 22  2  0  0  0  0
 17 21  2  0  0  0  0
 17 36  1  0  0  0  0
 18 21  1  0  0  0  0
 18 37  1  0  0  0  0
 19 23  1  0  0  0  0
 19 38  1  0  0  0  0
 20 24  2  0  0  0  0
 20 39  1  0  0  0  0
 21 40  1  0  0  0  0
 22 25  1  0  0  0  0
 22 41  1  0  0  0  0
 23 26  2  0  0  0  0
 23 42  1  0  0  0  0
 24 26  1  0  0  0  0
 24 43  1  0  0  0  0
 25 27  2  0  0  0  0
 25 44  1  0  0  0  0
 26 45  1  0  0  0  0
 27 46  1  0  0  0  0
M  END
> <PUBCHEM_COMPOUND_CID>
503659
> <PUBCHEM_COMPOUND_CANONICALIZED>
1
> <PUBCHEM_CACTVS_COMPLEXITY>
489
> <PUBCHEM_CACTVS_HBOND_ACCEPTOR>
5
> <PUBCHEM_CACTVS_HBOND_DONOR>
0
> <PUBCHEM_CACTVS_ROTATABLE_BOND>
7
> <PUBCHEM_CACTVS_SUBSKEYS>
AAADceB6OABAAAAAAAAAAAAAAAAAASAAAAAwYAAAAAAAAAAB0AAAHgQAAAAACByhkAIyxoMABECMAK1S0AKCCAAlIggIiAHGbMgPJjLEtb+POSjkxBHa6YeYVwIAAAAAAAAAAAAAAAAAAAAAAAAAAAAAAA==
> <PUBCHEM_IUPAC_OPENEYE_NAME>
O-(1-methyl-2-phenoxy-ethyl) N-(furan-2-carbonyl)-N-phenyl-carbamothioate
> <PUBCHEM_IUPAC_CAS_NAME>
N-[2-furanyl(oxo)methyl]-N-phenylcarbamothioic acid O-(1-phenoxypropan-2-yl) ester
> <PUBCHEM_IUPAC_NAME_MARKUP>
<I>O</I>-(1-phenoxypropan-2-yl) <I>N</I>-(furan-2-carbonyl)-<I>N</I>-phenylcarbamothioate
> <PUBCHEM_IUPAC_NAME>
O-(1-phenoxypropan-2-yl) N-(furan-2-carbonyl)-N-phenylcarbamothioate
> <PUBCHEM_IUPAC_SYSTEMATIC_NAME>
O-(1-phenoxypropan-2-yl) N-(furan-2-ylcarbonyl)-N-phenyl-carbamothioate
> <PUBCHEM_IUPAC_TRADITIONAL_NAME>
N-(2-furoyl)-N-phenyl-thiocarbamic acid O-(1-methyl-2-phenoxy-ethyl) ester
> <PUBCHEM_IUPAC_INCHI>
InChI=1S/C21H19NO4S/c1-16(15-25-18-11-6-3-7-12-18)26-21(27)22(17-9-4-2-5-10-17)20(23)19-13-8-14-24-19/h2-14,16H,15H2,1H3
> <PUBCHEM_IUPAC_INCHIKEY>
KPDBUKLZFLLZDU-UHFFFAOYSA-N
> <PUBCHEM_XLOGP3_AA>
5.2
> <PUBCHEM_EXACT_MASS>
381.10347926
> <PUBCHEM_MOLECULAR_FORMULA>
C21H19NO4S
> <PUBCHEM_MOLECULAR_WEIGHT>
381.4
> <PUBCHEM_OPENEYE_CAN_SMILES>
CC(COC1=CC=CC=C1)OC(=S)N(C2=CC=CC=C2)C(=O)C3=CC=CO3
> <PUBCHEM_OPENEYE_ISO_SMILES>
CC(COC1=CC=CC=C1)OC(=S)N(C2=CC=CC=C2)C(=O)C3=CC=CO3
> <PUBCHEM_CACTVS_TPSA>
84
> <PUBCHEM_MONOISOTOPIC_WEIGHT>
381.10347926
> <PUBCHEM_TOTAL_CHARGE>
0
> <PUBCHEM_HEAVY_ATOM_COUNT>
27
> <PUBCHEM_ATOM_DEF_STEREO_COUNT>
0
> <PUBCHEM_ATOM_UDEF_STEREO_COUNT>
1
> <PUBCHEM_BOND_DEF_STEREO_COUNT>
0
> <PUBCHEM_BOND_UDEF_STEREO_COUNT>
0
> <PUBCHEM_ISOTOPIC_ATOM_COUNT>
0
> <PUBCHEM_COMPONENT_COUNT>
1
> <PUBCHEM_CACTVS_TAUTO_COUNT>
-1
> <PUBCHEM_COORDINATE_TYPE>
1
5
255
> <PUBCHEM_BONDANNOTATIONS>
10  14  8
10  15  8
13  19  8
13  20  8
14  17  8
15  18  8
16  22  8
17  21  8
18  21  8
19  23  8
20  24  8
22  25  8
23  26  8
24  26  8
25  27  8
4  16  8
4  27  8
7  9  3
$$$$
