503630
  -OEChem-10302200282D
 33 34  0     1  0  0  0  0  0999 V2000
    6.0010    2.0000    0.0000 O   0  0  0  0  0  0  0  0  0  0  0  0
    4.2690    2.0000    0.0000 O   0  0  0  0  0  0  0  0  0  0  0  0
    2.5369    1.0000    0.0000 O   0  0  0  0  0  0  0  0  0  0  0  0
    3.4030   -0.5000    0.0000 O   0  0  0  0  0  0  0  0  0  0  0  0
    9.8560    1.7552    0.0000 N   0  0  0  0  0  0  0  0  0  0  0  0
    9.8560   -1.7552    0.0000 N   0  0  0  0  0  0  0  0  0  0  0  0
   10.8345    1.9615    0.0000 N   0  3  0  0  0  0  0  0  0  0  0  0
   10.8345   -1.9615    0.0000 N   0  3  0  0  0  0  0  0  0  0  0  0
   11.8130    2.1677    0.0000 N   0  5  0  0  0  0  0  0  0  0  0  0
   11.8130   -2.1677    0.0000 N   0  5  0  0  0  0  0  0  0  0  0  0
    9.5453    0.8047    0.0000 C   0  0  3  0  0  0  0  0  0  0  0  0
   10.1289   -0.0000    0.0000 C   0  0  0  0  0  0  0  0  0  0  0  0
    9.5453   -0.8047    0.0000 C   0  0  3  0  0  0  0  0  0  0  0  0
    8.5991    0.5000    0.0000 C   0  0  0  0  0  0  0  0  0  0  0  0
    8.5991   -0.5000    0.0000 C   0  0  0  0  0  0  0  0  0  0  0  0
    7.7331    1.0000    0.0000 C   0  0  0  0  0  0  0  0  0  0  0  0
    7.7331   -1.0000    0.0000 C   0  0  0  0  0  0  0  0  0  0  0  0
    6.8671    0.5000    0.0000 C   0  0  0  0  0  0  0  0  0  0  0  0
    6.8671   -0.5000    0.0000 C   0  0  0  0  0  0  0  0  0  0  0  0
    6.0010    1.0000    0.0000 C   0  0  0  0  0  0  0  0  0  0  0  0
    5.1350    0.5000    0.0000 C   0  0  0  0  0  0  0  0  0  0  0  0
    4.2690    1.0000    0.0000 C   0  0  0  0  0  0  0  0  0  0  0  0
    3.4030    0.5000    0.0000 C   0  0  0  0  0  0  0  0  0  0  0  0
    9.1079    1.2441    0.0000 H   0  0  0  0  0  0  0  0  0  0  0  0
   10.5898   -0.4147    0.0000 H   0  0  0  0  0  0  0  0  0  0  0  0
   10.5898    0.4147    0.0000 H   0  0  0  0  0  0  0  0  0  0  0  0
    9.1079   -1.2441    0.0000 H   0  0  0  0  0  0  0  0  0  0  0  0
    7.7331    1.6200    0.0000 H   0  0  0  0  0  0  0  0  0  0  0  0
    7.7331   -1.6200    0.0000 H   0  0  0  0  0  0  0  0  0  0  0  0
    6.3301   -0.8100    0.0000 H   0  0  0  0  0  0  0  0  0  0  0  0
    4.7365    0.0251    0.0000 H   0  0  0  0  0  0  0  0  0  0  0  0
    5.5335    0.0251    0.0000 H   0  0  0  0  0  0  0  0  0  0  0  0
    2.0000    0.6900    0.0000 H   0  0  0  0  0  0  0  0  0  0  0  0
  1 20  2  0  0  0  0
  2 22  2  0  0  0  0
  3 23  1  0  0  0  0
  3 33  1  0  0  0  0
  4 23  2  0  0  0  0
  5  7  2  0  0  0  0
  5 11  1  0  0  0  0
  6  8  2  0  0  0  0
  6 13  1  0  0  0  0
  7  9  2  0  0  0  0
  8 10  2  0  0  0  0
 11 12  1  0  0  0  0
 11 14  1  0  0  0  0
 11 24  1  0  0  0  0
 12 13  1  0  0  0  0
 12 25  1  0  0  0  0
 12 26  1  0  0  0  0
 13 15  1  0  0  0  0
 13 27  1  0  0  0  0
 14 15  2  0  0  0  0
 14 16  1  0  0  0  0
 15 17  1  0  0  0  0
 16 18  2  0  0  0  0
 16 28  1  0  0  0  0
 17 19  2  0  0  0  0
 17 29  1  0  0  0  0
 18 19  1  0  0  0  0
 18 20  1  0  0  0  0
 19 30  1  0  0  0  0
 20 21  1  0  0  0  0
 21 22  1  0  0  0  0
 21 31  1  0  0  0  0
 21 32  1  0  0  0  0
 22 23  1  0  0  0  0
M  CHG  4   7   1   8   1   9  -1  10  -1
M  END
> <PUBCHEM_COMPOUND_CID>
503630
> <PUBCHEM_COMPOUND_CANONICALIZED>
1
> <PUBCHEM_CACTVS_COMPLEXITY>
622
> <PUBCHEM_CACTVS_HBOND_ACCEPTOR>
8
> <PUBCHEM_CACTVS_HBOND_DONOR>
1
> <PUBCHEM_CACTVS_ROTATABLE_BOND>
6
> <PUBCHEM_CACTVS_SUBSKEYS>
AAADccBzuAAAAAAAAAAAAAAAAAAAAYAAAAAwAAAAAAAAAGABAAAAHgAICAAADCzBmAQwCIAAAgCKAqDSCAKCAAAkAAAIiAFABMgIIDKI1RGAYQBkgAAIiYebyfCewAACAAAQAACAAAQAACAAACACCQAAAA==
> <PUBCHEM_IUPAC_OPENEYE_NAME>
4-(1,3-diazidoindan-5-yl)-2,4-dioxo-butanoic acid
> <PUBCHEM_IUPAC_CAS_NAME>
4-(1,3-diazido-2,3-dihydro-1H-inden-5-yl)-2,4-dioxobutanoic acid
> <PUBCHEM_IUPAC_NAME_MARKUP>
4-(1,3-diazido-2,3-dihydro-1<I>H</I>-inden-5-yl)-2,4-dioxobutanoic acid
> <PUBCHEM_IUPAC_NAME>
4-(1,3-diazido-2,3-dihydro-1H-inden-5-yl)-2,4-dioxobutanoic acid
> <PUBCHEM_IUPAC_SYSTEMATIC_NAME>
4-(1,3-diazido-2,3-dihydro-1H-inden-5-yl)-2,4-bis(oxidanylidene)butanoic acid
> <PUBCHEM_IUPAC_TRADITIONAL_NAME>
4-(1,3-diazidoindan-5-yl)-2,4-diketo-butyric acid
> <PUBCHEM_IUPAC_INCHI>
InChI=1S/C13H10N6O4/c14-18-16-9-4-10(17-19-15)8-3-6(1-2-7(8)9)11(20)5-12(21)13(22)23/h1-3,9-10H,4-5H2,(H,22,23)
> <PUBCHEM_IUPAC_INCHIKEY>
ZLYMOWNEEIAEFE-UHFFFAOYSA-N
> <PUBCHEM_XLOGP3_AA>
3.1
> <PUBCHEM_EXACT_MASS>
314.07635282
> <PUBCHEM_MOLECULAR_FORMULA>
C13H10N6O4
> <PUBCHEM_MOLECULAR_WEIGHT>
314.26
> <PUBCHEM_OPENEYE_CAN_SMILES>
C1C(C2=C(C1N=[N+]=[N-])C=C(C=C2)C(=O)CC(=O)C(=O)O)N=[N+]=[N-]
> <PUBCHEM_OPENEYE_ISO_SMILES>
C1C(C2=C(C1N=[N+]=[N-])C=C(C=C2)C(=O)CC(=O)C(=O)O)N=[N+]=[N-]
> <PUBCHEM_CACTVS_TPSA>
100
> <PUBCHEM_MONOISOTOPIC_WEIGHT>
314.07635282
> <PUBCHEM_TOTAL_CHARGE>
0
> <PUBCHEM_HEAVY_ATOM_COUNT>
23
> <PUBCHEM_ATOM_DEF_STEREO_COUNT>
0
> <PUBCHEM_ATOM_UDEF_STEREO_COUNT>
2
> <PUBCHEM_BOND_DEF_STEREO_COUNT>
0
> <PUBCHEM_BOND_UDEF_STEREO_COUNT>
0
> <PUBCHEM_ISOTOPIC_ATOM_COUNT>
0
> <PUBCHEM_COMPONENT_COUNT>
1
> <PUBCHEM_CACTVS_TAUTO_COUNT>
-1
> <PUBCHEM_COORDINATE_TYPE>
1
5
255
> <PUBCHEM_BONDANNOTATIONS>
14  15  8
14  16  8
15  17  8
16  18  8
17  19  8
18  19  8
11  5  3
13  6  3
$$$$
