503658
  -OEChem-10302200282D
 55 58  0     1  0  0  0  0  0999 V2000
    8.0622    1.2327    0.0000 S   0  0  0  0  0  0  0  0  0  0  0  0
    7.1962   -0.2673    0.0000 O   0  0  0  0  0  0  0  0  0  0  0  0
    4.5981    0.2327    0.0000 O   0  0  0  0  0  0  0  0  0  0  0  0
   10.6603   -0.2673    0.0000 O   0  0  0  0  0  0  0  0  0  0  0  0
    8.9282   -0.2673    0.0000 N   0  0  0  0  0  0  0  0  0  0  0  0
   10.6603    1.7327    0.0000 C   0  0  0  0  0  0  0  0  0  0  0  0
    9.7942    1.2327    0.0000 C   0  0  0  0  0  0  0  0  0  0  0  0
    6.3301    0.2327    0.0000 C   0  0  3  0  0  0  0  0  0  0  0  0
   10.6603    2.7327    0.0000 C   0  0  0  0  0  0  0  0  0  0  0  0
    9.7942    0.2327    0.0000 C   0  0  0  0  0  0  0  0  0  0  0  0
    5.4641   -0.2673    0.0000 C   0  0  0  0  0  0  0  0  0  0  0  0
    8.9282    1.7327    0.0000 C   0  0  0  0  0  0  0  0  0  0  0  0
    8.9282   -1.2673    0.0000 C   0  0  0  0  0  0  0  0  0  0  0  0
   11.5542    1.1980    0.0000 C   0  0  0  0  0  0  0  0  0  0  0  0
    9.7942    3.2327    0.0000 C   0  0  0  0  0  0  0  0  0  0  0  0
    8.0622    0.2327    0.0000 C   0  0  0  0  0  0  0  0  0  0  0  0
   11.5542    3.2673    0.0000 C   0  0  0  0  0  0  0  0  0  0  0  0
    8.9282    2.7327    0.0000 C   0  0  0  0  0  0  0  0  0  0  0  0
    6.3301    1.2327    0.0000 C   0  0  0  0  0  0  0  0  0  0  0  0
   12.4603    1.7118    0.0000 C   0  0  0  0  0  0  0  0  0  0  0  0
   12.4603    2.7535    0.0000 C   0  0  0  0  0  0  0  0  0  0  0  0
    8.0622   -1.7673    0.0000 C   0  0  0  0  0  0  0  0  0  0  0  0
    9.7942   -1.7673    0.0000 C   0  0  0  0  0  0  0  0  0  0  0  0
    3.7320   -0.2673    0.0000 C   0  0  0  0  0  0  0  0  0  0  0  0
    8.0622   -2.7673    0.0000 C   0  0  0  0  0  0  0  0  0  0  0  0
    9.7942   -2.7673    0.0000 C   0  0  0  0  0  0  0  0  0  0  0  0
    8.9282   -3.2673    0.0000 C   0  0  0  0  0  0  0  0  0  0  0  0
    2.8660    0.2327    0.0000 C   0  0  0  0  0  0  0  0  0  0  0  0
    3.7320   -1.2673    0.0000 C   0  0  0  0  0  0  0  0  0  0  0  0
    2.0000   -0.2673    0.0000 C   0  0  0  0  0  0  0  0  0  0  0  0
    2.8660   -1.7673    0.0000 C   0  0  0  0  0  0  0  0  0  0  0  0
    2.0000   -1.2673    0.0000 C   0  0  0  0  0  0  0  0  0  0  0  0
    6.8671    0.5427    0.0000 H   0  0  0  0  0  0  0  0  0  0  0  0
    5.0656   -0.7423    0.0000 H   0  0  0  0  0  0  0  0  0  0  0  0
    5.8626   -0.7423    0.0000 H   0  0  0  0  0  0  0  0  0  0  0  0
    8.3913    1.4227    0.0000 H   0  0  0  0  0  0  0  0  0  0  0  0
   11.5470    0.5780    0.0000 H   0  0  0  0  0  0  0  0  0  0  0  0
    9.7942    3.8527    0.0000 H   0  0  0  0  0  0  0  0  0  0  0  0
   11.5470    3.8873    0.0000 H   0  0  0  0  0  0  0  0  0  0  0  0
    8.3913    3.0427    0.0000 H   0  0  0  0  0  0  0  0  0  0  0  0
    6.9501    1.2327    0.0000 H   0  0  0  0  0  0  0  0  0  0  0  0
    6.3301    1.8527    0.0000 H   0  0  0  0  0  0  0  0  0  0  0  0
    5.7101    1.2327    0.0000 H   0  0  0  0  0  0  0  0  0  0  0  0
   12.9960    1.3998    0.0000 H   0  0  0  0  0  0  0  0  0  0  0  0
   12.9960    3.0656    0.0000 H   0  0  0  0  0  0  0  0  0  0  0  0
    7.5252   -1.4573    0.0000 H   0  0  0  0  0  0  0  0  0  0  0  0
   10.3312   -1.4573    0.0000 H   0  0  0  0  0  0  0  0  0  0  0  0
    7.5252   -3.0773    0.0000 H   0  0  0  0  0  0  0  0  0  0  0  0
   10.3312   -3.0773    0.0000 H   0  0  0  0  0  0  0  0  0  0  0  0
    8.9282   -3.8873    0.0000 H   0  0  0  0  0  0  0  0  0  0  0  0
    2.8660    0.8527    0.0000 H   0  0  0  0  0  0  0  0  0  0  0  0
    4.2690   -1.5773    0.0000 H   0  0  0  0  0  0  0  0  0  0  0  0
    1.4631    0.0427    0.0000 H   0  0  0  0  0  0  0  0  0  0  0  0
    2.8660   -2.3873    0.0000 H   0  0  0  0  0  0  0  0  0  0  0  0
    1.4631   -1.5773    0.0000 H   0  0  0  0  0  0  0  0  0  0  0  0
  1 16  2  0  0  0  0
  2  8  1  0  0  0  0
  2 16  1  0  0  0  0
  3 11  1  0  0  0  0
  3 24  1  0  0  0  0
  4 10  2  0  0  0  0
  5 10  1  0  0  0  0
  5 13  1  0  0  0  0
  5 16  1  0  0  0  0
  6  7  1  0  0  0  0
  6  9  1  0  0  0  0
  6 14  2  0  0  0  0
  7 10  1  0  0  0  0
  7 12  2  0  0  0  0
  8 11  1  0  0  0  0
  8 19  1  0  0  0  0
  8 33  1  0  0  0  0
  9 15  1  0  0  0  0
  9 17  2  0  0  0  0
 11 34  1  0  0  0  0
 11 35  1  0  0  0  0
 12 18  1  0  0  0  0
 12 36  1  0  0  0  0
 13 22  2  0  0  0  0
 13 23  1  0  0  0  0
 14 20  1  0  0  0  0
 14 37  1  0  0  0  0
 15 18  2  0  0  0  0
 15 38  1  0  0  0  0
 17 21  1  0  0  0  0
 17 39  1  0  0  0  0
 18 40  1  0  0  0  0
 19 41  1  0  0  0  0
 19 42  1  0  0  0  0
 19 43  1  0  0  0  0
 20 21  2  0  0  0  0
 20 44  1  0  0  0  0
 21 45  1  0  0  0  0
 22 25  1  0  0  0  0
 22 46  1  0  0  0  0
 23 26  2  0  0  0  0
 23 47  1  0  0  0  0
 24 28  2  0  0  0  0
 24 29  1  0  0  0  0
 25 27  2  0  0  0  0
 25 48  1  0  0  0  0
 26 27  1  0  0  0  0
 26 49  1  0  0  0  0
 27 50  1  0  0  0  0
 28 30  1  0  0  0  0
 28 51  1  0  0  0  0
 29 31  2  0  0  0  0
 29 52  1  0  0  0  0
 30 32  2  0  0  0  0
 30 53  1  0  0  0  0
 31 32  1  0  0  0  0
 31 54  1  0  0  0  0
 32 55  1  0  0  0  0
M  END
> <PUBCHEM_COMPOUND_CID>
503658
> <PUBCHEM_COMPOUND_CANONICALIZED>
1
> <PUBCHEM_CACTVS_COMPLEXITY>
614
> <PUBCHEM_CACTVS_HBOND_ACCEPTOR>
4
> <PUBCHEM_CACTVS_HBOND_DONOR>
0
> <PUBCHEM_CACTVS_ROTATABLE_BOND>
7
> <PUBCHEM_CACTVS_SUBSKEYS>
AAADceB6MABAAAAAAAAAAAAAAAAAAAAAAAAwYMGAAAAAAADBVAAAHgQAAAAADByhmAIyxsMABACMAiVSUACCCAAlIggIiAEGbMgNJjLEtZuOOSjkxBHK6YeYyMCOgAACAAAQAAAAAAQAACAAAAAAAAAAAA==
> <PUBCHEM_IUPAC_OPENEYE_NAME>
O-(1-methyl-2-phenoxy-ethyl) N-(naphthalene-1-carbonyl)-N-phenyl-carbamothioate
> <PUBCHEM_IUPAC_CAS_NAME>
N-[1-naphthalenyl(oxo)methyl]-N-phenylcarbamothioic acid O-(1-phenoxypropan-2-yl) ester
> <PUBCHEM_IUPAC_NAME_MARKUP>
<I>O</I>-(1-phenoxypropan-2-yl) <I>N</I>-(naphthalene-1-carbonyl)-<I>N</I>-phenylcarbamothioate
> <PUBCHEM_IUPAC_NAME>
O-(1-phenoxypropan-2-yl) N-(naphthalene-1-carbonyl)-N-phenylcarbamothioate
> <PUBCHEM_IUPAC_SYSTEMATIC_NAME>
O-(1-phenoxypropan-2-yl) N-naphthalen-1-ylcarbonyl-N-phenyl-carbamothioate
> <PUBCHEM_IUPAC_TRADITIONAL_NAME>
N-(1-naphthoyl)-N-phenyl-thiocarbamic acid O-(1-methyl-2-phenoxy-ethyl) ester
> <PUBCHEM_IUPAC_INCHI>
InChI=1S/C27H23NO3S/c1-20(19-30-23-15-6-3-7-16-23)31-27(32)28(22-13-4-2-5-14-22)26(29)25-18-10-12-21-11-8-9-17-24(21)25/h2-18,20H,19H2,1H3
> <PUBCHEM_IUPAC_INCHIKEY>
HXADKEIEPXJQRN-UHFFFAOYSA-N
> <PUBCHEM_XLOGP3_AA>
7.1
> <PUBCHEM_EXACT_MASS>
441.13986477
> <PUBCHEM_MOLECULAR_FORMULA>
C27H23NO3S
> <PUBCHEM_MOLECULAR_WEIGHT>
441.5
> <PUBCHEM_OPENEYE_CAN_SMILES>
CC(COC1=CC=CC=C1)OC(=S)N(C2=CC=CC=C2)C(=O)C3=CC=CC4=CC=CC=C43
> <PUBCHEM_OPENEYE_ISO_SMILES>
CC(COC1=CC=CC=C1)OC(=S)N(C2=CC=CC=C2)C(=O)C3=CC=CC4=CC=CC=C43
> <PUBCHEM_CACTVS_TPSA>
70.9
> <PUBCHEM_MONOISOTOPIC_WEIGHT>
441.13986477
> <PUBCHEM_TOTAL_CHARGE>
0
> <PUBCHEM_HEAVY_ATOM_COUNT>
32
> <PUBCHEM_ATOM_DEF_STEREO_COUNT>
0
> <PUBCHEM_ATOM_UDEF_STEREO_COUNT>
1
> <PUBCHEM_BOND_DEF_STEREO_COUNT>
0
> <PUBCHEM_BOND_UDEF_STEREO_COUNT>
0
> <PUBCHEM_ISOTOPIC_ATOM_COUNT>
0
> <PUBCHEM_COMPONENT_COUNT>
1
> <PUBCHEM_CACTVS_TAUTO_COUNT>
-1
> <PUBCHEM_COORDINATE_TYPE>
1
5
255
> <PUBCHEM_BONDANNOTATIONS>
12  18  8
13  22  8
13  23  8
14  20  8
15  18  8
17  21  8
20  21  8
22  25  8
23  26  8
24  28  8
24  29  8
25  27  8
26  27  8
28  30  8
29  31  8
30  32  8
31  32  8
6  14  8
6  7  8
6  9  8
7  12  8
8  19  3
9  15  8
9  17  8
$$$$
