503622
  -OEChem-10302200282D
 88 91  0     1  0  0  0  0  0999 V2000
    7.0628    2.0276    0.0000 O   0  0  0  0  0  0  0  0  0  0  0  0
    5.3307    1.0276    0.0000 O   0  0  0  0  0  0  0  0  0  0  0  0
    2.5357   -2.5247    0.0000 O   0  0  0  0  0  0  0  0  0  0  0  0
    2.5519   -0.4331    0.0000 O   0  0  0  0  0  0  0  0  0  0  0  0
    4.3500   -4.3026    0.0000 O   0  0  0  0  0  0  0  0  0  0  0  0
    5.3307    2.0276    0.0000 O   0  0  0  0  0  0  0  0  0  0  0  0
    5.2868   -0.9792    0.0000 C   0  0  1  0  0  0  0  0  0  0  0  0
    5.2787   -2.0208    0.0000 C   0  0  2  0  0  0  0  0  0  0  0  0
    4.3433   -2.5705    0.0000 C   0  0  1  0  0  0  0  0  0  0  0  0
    7.9288    0.5277    0.0000 C   0  0  2  0  0  0  0  0  0  0  0  0
    6.1968   -0.4723    0.0000 C   0  0  0  0  0  0  0  0  0  0  0  0
    4.3599   -0.4151    0.0000 C   0  0  0  0  0  0  0  0  0  0  0  0
    7.0628   -0.9723    0.0000 C   0  0  0  0  0  0  0  0  0  0  0  0
    6.1808   -2.5416    0.0000 C   0  0  0  0  0  0  0  0  0  0  0  0
    7.0628    1.0276    0.0000 C   0  0  2  0  0  0  0  0  0  0  0  0
    8.8750    0.8324    0.0000 C   0  0  2  0  0  0  0  0  0  0  0  0
    7.9288   -0.4723    0.0000 C   0  0  0  0  0  0  0  0  0  0  0  0
    6.1968    0.5277    0.0000 C   0  0  2  0  0  0  0  0  0  0  0  0
    3.4037   -2.0280    0.0000 C   0  0  2  0  0  0  0  0  0  0  0  0
    7.0789   -2.0139    0.0000 C   0  0  0  0  0  0  0  0  0  0  0  0
    3.4120   -0.9431    0.0000 C   0  0  2  0  0  0  0  0  0  0  0  0
    5.2945    0.0208    0.0000 C   0  0  0  0  0  0  0  0  0  0  0  0
    9.4586    0.0277    0.0000 C   0  0  0  0  0  0  0  0  0  0  0  0
    3.8467   -3.4385    0.0000 C   0  0  0  0  0  0  0  0  0  0  0  0
    4.8466   -3.4346    0.0000 C   0  0  0  0  0  0  0  0  0  0  0  0
    8.8750   -0.7771    0.0000 C   0  0  0  0  0  0  0  0  0  0  0  0
    9.1857    1.7829    0.0000 C   0  0  1  0  0  0  0  0  0  0  0  0
    7.9288    1.5276    0.0000 C   0  0  0  0  0  0  0  0  0  0  0  0
   10.1642    1.9891    0.0000 C   0  0  0  0  0  0  0  0  0  0  0  0
    8.5179    2.5272    0.0000 C   0  0  0  0  0  0  0  0  0  0  0  0
   10.4749    2.9396    0.0000 C   0  0  0  0  0  0  0  0  0  0  0  0
    6.1968    2.5276    0.0000 C   0  0  0  0  0  0  0  0  0  0  0  0
   11.4534    3.1459    0.0000 C   0  0  0  0  0  0  0  0  0  0  0  0
    6.1968    3.5276    0.0000 C   0  0  0  0  0  0  0  0  0  0  0  0
   11.7640    4.0964    0.0000 C   0  0  0  0  0  0  0  0  0  0  0  0
   12.1212    2.4016    0.0000 C   0  0  0  0  0  0  0  0  0  0  0  0
   12.7425    4.3026    0.0000 C   0  0  0  0  0  0  0  0  0  0  0  0
   11.0962    4.8407    0.0000 C   0  0  0  0  0  0  0  0  0  0  0  0
    5.2820   -2.8708    0.0000 H   0  0  0  0  0  0  0  0  0  0  0  0
    4.7681    0.0515    0.0000 H   0  0  0  0  0  0  0  0  0  0  0  0
    3.9700    0.0669    0.0000 H   0  0  0  0  0  0  0  0  0  0  0  0
    5.7835   -3.0176    0.0000 H   0  0  0  0  0  0  0  0  0  0  0  0
    6.5818   -3.0145    0.0000 H   0  0  0  0  0  0  0  0  0  0  0  0
    6.5259    1.3376    0.0000 H   0  0  0  0  0  0  0  0  0  0  0  0
    9.7148    0.9643    0.0000 H   0  0  0  0  0  0  0  0  0  0  0  0
    6.1968    1.1476    0.0000 H   0  0  0  0  0  0  0  0  0  0  0  0
    3.4025   -2.6480    0.0000 H   0  0  0  0  0  0  0  0  0  0  0  0
    7.2969   -2.5942    0.0000 H   0  0  0  0  0  0  0  0  0  0  0  0
    7.6880   -1.8984    0.0000 H   0  0  0  0  0  0  0  0  0  0  0  0
    2.8722   -1.2479    0.0000 H   0  0  0  0  0  0  0  0  0  0  0  0
    5.9145    0.0160    0.0000 H   0  0  0  0  0  0  0  0  0  0  0  0
    5.2993    0.6408    0.0000 H   0  0  0  0  0  0  0  0  0  0  0  0
    4.6745    0.0256    0.0000 H   0  0  0  0  0  0  0  0  0  0  0  0
    9.9195   -0.3871    0.0000 H   0  0  0  0  0  0  0  0  0  0  0  0
    9.9195    0.4424    0.0000 H   0  0  0  0  0  0  0  0  0  0  0  0
    3.3702   -3.0418    0.0000 H   0  0  0  0  0  0  0  0  0  0  0  0
    3.3732   -3.8388    0.0000 H   0  0  0  0  0  0  0  0  0  0  0  0
    4.3109   -3.7467    0.0000 H   0  0  0  0  0  0  0  0  0  0  0  0
    5.1587   -3.9704    0.0000 H   0  0  0  0  0  0  0  0  0  0  0  0
    5.3824   -3.1225    0.0000 H   0  0  0  0  0  0  0  0  0  0  0  0
    9.3783    2.3722    0.0000 H   0  0  0  0  0  0  0  0  0  0  0  0
    9.0676   -1.3664    0.0000 H   0  0  0  0  0  0  0  0  0  0  0  0
    8.5488    1.5276    0.0000 H   0  0  0  0  0  0  0  0  0  0  0  0
    7.9288    2.1476    0.0000 H   0  0  0  0  0  0  0  0  0  0  0  0
    7.3088    1.5276    0.0000 H   0  0  0  0  0  0  0  0  0  0  0  0
   10.1848    1.3695    0.0000 H   0  0  0  0  0  0  0  0  0  0  0  0
   10.7780    1.9018    0.0000 H   0  0  0  0  0  0  0  0  0  0  0  0
    4.7938    0.7177    0.0000 H   0  0  0  0  0  0  0  0  0  0  0  0
    2.0000   -2.2126    0.0000 H   0  0  0  0  0  0  0  0  0  0  0  0
    2.5590    0.1869    0.0000 H   0  0  0  0  0  0  0  0  0  0  0  0
    8.9793    2.9413    0.0000 H   0  0  0  0  0  0  0  0  0  0  0  0
    8.1038    2.9887    0.0000 H   0  0  0  0  0  0  0  0  0  0  0  0
    8.0564    2.1131    0.0000 H   0  0  0  0  0  0  0  0  0  0  0  0
    4.0421   -4.8407    0.0000 H   0  0  0  0  0  0  0  0  0  0  0  0
   10.4543    3.5593    0.0000 H   0  0  0  0  0  0  0  0  0  0  0  0
    9.8611    3.0270    0.0000 H   0  0  0  0  0  0  0  0  0  0  0  0
    6.8168    3.5276    0.0000 H   0  0  0  0  0  0  0  0  0  0  0  0
    6.1968    4.1476    0.0000 H   0  0  0  0  0  0  0  0  0  0  0  0
    5.5768    3.5276    0.0000 H   0  0  0  0  0  0  0  0  0  0  0  0
   12.1781    3.6349    0.0000 H   0  0  0  0  0  0  0  0  0  0  0  0
   11.9286    1.8122    0.0000 H   0  0  0  0  0  0  0  0  0  0  0  0
   12.7279    2.5294    0.0000 H   0  0  0  0  0  0  0  0  0  0  0  0
   12.8704    3.6959    0.0000 H   0  0  0  0  0  0  0  0  0  0  0  0
   13.3492    4.4305    0.0000 H   0  0  0  0  0  0  0  0  0  0  0  0
   12.6147    4.9093    0.0000 H   0  0  0  0  0  0  0  0  0  0  0  0
   11.5577    5.2547    0.0000 H   0  0  0  0  0  0  0  0  0  0  0  0
   10.6821    5.3022    0.0000 H   0  0  0  0  0  0  0  0  0  0  0  0
   10.6347    4.4266    0.0000 H   0  0  0  0  0  0  0  0  0  0  0  0
 15  1  1  6  0  0  0
  1 32  1  0  0  0  0
 18  2  1  1  0  0  0
  2 68  1  0  0  0  0
 19  3  1  1  0  0  0
  3 69  1  0  0  0  0
 21  4  1  6  0  0  0
  4 70  1  0  0  0  0
  5 24  1  0  0  0  0
  5 74  1  0  0  0  0
  6 32  2  0  0  0  0
  7  8  1  0  0  0  0
  7 11  1  0  0  0  0
  7 12  1  0  0  0  0
  7 22  1  1  0  0  0
  8  9  1  0  0  0  0
  8 14  1  0  0  0  0
  8 39  1  6  0  0  0
  9 19  1  0  0  0  0
  9 24  1  0  0  0  0
  9 25  1  1  0  0  0
 10 15  1  0  0  0  0
 10 16  1  0  0  0  0
 10 17  1  0  0  0  0
 10 28  1  1  0  0  0
 11 13  2  0  0  0  0
 11 18  1  0  0  0  0
 12 21  1  0  0  0  0
 12 40  1  0  0  0  0
 12 41  1  0  0  0  0
 13 17  1  0  0  0  0
 13 20  1  0  0  0  0
 14 20  1  0  0  0  0
 14 42  1  0  0  0  0
 14 43  1  0  0  0  0
 15 18  1  0  0  0  0
 15 44  1  0  0  0  0
 16 23  1  0  0  0  0
 16 27  1  0  0  0  0
 16 45  1  6  0  0  0
 17 26  2  0  0  0  0
 18 46  1  0  0  0  0
 19 21  1  0  0  0  0
 19 47  1  0  0  0  0
 20 48  1  0  0  0  0
 20 49  1  0  0  0  0
 21 50  1  0  0  0  0
 22 51  1  0  0  0  0
 22 52  1  0  0  0  0
 22 53  1  0  0  0  0
 23 26  1  0  0  0  0
 23 54  1  0  0  0  0
 23 55  1  0  0  0  0
 24 56  1  0  0  0  0
 24 57  1  0  0  0  0
 25 58  1  0  0  0  0
 25 59  1  0  0  0  0
 25 60  1  0  0  0  0
 26 62  1  0  0  0  0
 27 29  1  0  0  0  0
 27 30  1  6  0  0  0
 27 61  1  0  0  0  0
 28 63  1  0  0  0  0
 28 64  1  0  0  0  0
 28 65  1  0  0  0  0
 29 31  1  0  0  0  0
 29 66  1  0  0  0  0
 29 67  1  0  0  0  0
 30 71  1  0  0  0  0
 30 72  1  0  0  0  0
 30 73  1  0  0  0  0
 31 33  1  0  0  0  0
 31 75  1  0  0  0  0
 31 76  1  0  0  0  0
 32 34  1  0  0  0  0
 33 35  1  0  0  0  0
 33 36  2  0  0  0  0
 34 77  1  0  0  0  0
 34 78  1  0  0  0  0
 34 79  1  0  0  0  0
 35 37  1  0  0  0  0
 35 38  1  0  0  0  0
 35 80  1  0  0  0  0
 36 81  1  0  0  0  0
 36 82  1  0  0  0  0
 37 83  1  0  0  0  0
 37 84  1  0  0  0  0
 37 85  1  0  0  0  0
 38 86  1  0  0  0  0
 38 87  1  0  0  0  0
 38 88  1  0  0  0  0
M  END
> <PUBCHEM_COMPOUND_CID>
503622
> <PUBCHEM_COMPOUND_CANONICALIZED>
1
> <PUBCHEM_CACTVS_COMPLEXITY>
1030
> <PUBCHEM_CACTVS_HBOND_ACCEPTOR>
6
> <PUBCHEM_CACTVS_HBOND_DONOR>
4
> <PUBCHEM_CACTVS_ROTATABLE_BOND>
8
> <PUBCHEM_CACTVS_SUBSKEYS>
AAADcfB8OAAAAAAAAAAAAAAAAAAAAQAAAAAwQIAAAAAAAEDAAAAAGgAACAAADxSggAICCAAABgCIAiDSCAAAAAAgAAAACAAAAAgJFAIAAQACUAAFwAALkAPA4PQPgAAAAAAAAABAAAYAADCAAAAAAAAAAA==
> <PUBCHEM_IUPAC_OPENEYE_NAME>
[(2R,3R,4R,5R,10S,11R,12R,13R,17R)-17-[(1R)-1,5-dimethyl-4-methylene-hexyl]-2,3,11-trihydroxy-4-(hydroxymethyl)-4,10,13-trimethyl-1,2,3,5,6,7,11,12,16,17-decahydrocyclopenta[a]phenanthren-12-yl] acetate
> <PUBCHEM_IUPAC_CAS_NAME>
acetic acid [(2R,3R,4R,5R,10S,11R,12R,13R,17R)-2,3,11-trihydroxy-4-(hydroxymethyl)-4,10,13-trimethyl-17-[(2R)-6-methyl-5-methyleneheptan-2-yl]-1,2,3,5,6,7,11,12,16,17-decahydrocyclopenta[a]phenanthren-12-yl] ester
> <PUBCHEM_IUPAC_NAME_MARKUP>
[(2<I>R</I>,3<I>R</I>,4<I>R</I>,5<I>R</I>,10<I>S</I>,11<I>R</I>,12<I>R</I>,13<I>R</I>,17<I>R</I>)-2,3,11-trihydroxy-4-(hydroxymethyl)-4,10,13-trimethyl-17-[(2<I>R</I>)-6-methyl-5-methylideneheptan-2-yl]-1,2,3,5,6,7,11,12,16,17-decahydrocyclopenta[a]phenanthren-12-yl] acetate
> <PUBCHEM_IUPAC_NAME>
[(2R,3R,4R,5R,10S,11R,12R,13R,17R)-2,3,11-trihydroxy-4-(hydroxymethyl)-4,10,13-trimethyl-17-[(2R)-6-methyl-5-methylideneheptan-2-yl]-1,2,3,5,6,7,11,12,16,17-decahydrocyclopenta[a]phenanthren-12-yl] acetate
> <PUBCHEM_IUPAC_SYSTEMATIC_NAME>
[(2R,3R,4R,5R,10S,11R,12R,13R,17R)-4-(hydroxymethyl)-4,10,13-trimethyl-17-[(2R)-6-methyl-5-methylidene-heptan-2-yl]-2,3,11-tris(oxidanyl)-1,2,3,5,6,7,11,12,16,17-decahydrocyclopenta[a]phenanthren-12-yl] ethanoate
> <PUBCHEM_IUPAC_TRADITIONAL_NAME>
acetic acid [(2R,3R,4R,5R,10S,11R,12R,13R,17R)-2,3,11-trihydroxy-17-[(1R)-4-isopropyl-1-methyl-pent-4-enyl]-4,10,13-trimethyl-4-methylol-1,2,3,5,6,7,11,12,16,17-decahydrocyclopenta[a]phenanthren-12-yl] ester
> <PUBCHEM_IUPAC_INCHI>
InChI=1S/C32H50O6/c1-17(2)18(3)9-10-19(4)22-12-13-23-21-11-14-25-30(6,15-24(35)28(37)31(25,7)16-33)26(21)27(36)29(32(22,23)8)38-20(5)34/h13,17,19,22,24-25,27-29,33,35-37H,3,9-12,14-16H2,1-2,4-8H3/t19-,22-,24-,25-,27-,28+,29+,30+,31+,32-/m1/s1
> <PUBCHEM_IUPAC_INCHIKEY>
HKLCKRUCQROQGF-NZUNORJYSA-N
> <PUBCHEM_XLOGP3_AA>
5
> <PUBCHEM_EXACT_MASS>
530.36073931
> <PUBCHEM_MOLECULAR_FORMULA>
C32H50O6
> <PUBCHEM_MOLECULAR_WEIGHT>
530.7
> <PUBCHEM_OPENEYE_CAN_SMILES>
CC(C)C(=C)CCC(C)C1CC=C2C1(C(C(C3=C2CCC4C3(CC(C(C4(C)CO)O)O)C)O)OC(=O)C)C
> <PUBCHEM_OPENEYE_ISO_SMILES>
C[C@H](CCC(=C)C(C)C)[C@H]1CC=C2[C@@]1([C@H]([C@@H](C3=C2CC[C@@H]4[C@@]3(C[C@H]([C@@H]([C@@]4(C)CO)O)O)C)O)OC(=O)C)C
> <PUBCHEM_CACTVS_TPSA>
107
> <PUBCHEM_MONOISOTOPIC_WEIGHT>
530.36073931
> <PUBCHEM_TOTAL_CHARGE>
0
> <PUBCHEM_HEAVY_ATOM_COUNT>
38
> <PUBCHEM_ATOM_DEF_STEREO_COUNT>
10
> <PUBCHEM_ATOM_UDEF_STEREO_COUNT>
0
> <PUBCHEM_BOND_DEF_STEREO_COUNT>
0
> <PUBCHEM_BOND_UDEF_STEREO_COUNT>
0
> <PUBCHEM_ISOTOPIC_ATOM_COUNT>
0
> <PUBCHEM_COMPONENT_COUNT>
1
> <PUBCHEM_CACTVS_TAUTO_COUNT>
-1
> <PUBCHEM_COORDINATE_TYPE>
1
5
255
> <PUBCHEM_BONDANNOTATIONS>
15  1  6
10  28  5
16  45  6
18  2  5
27  30  6
19  3  5
21  4  6
7  22  5
8  39  6
9  25  5
$$$$
