503623
  -OEChem-10302200282D
102106  0     1  0  0  0  0  0999 V2000
    6.8671   -2.5223    0.0000 O   0  0  0  0  0  0  0  0  0  0  0  0
    9.0826   -0.2716    0.0000 O   0  0  0  0  0  0  0  0  0  0  0  0
    7.8650    5.5813    0.0000 O   0  0  0  0  0  0  0  0  0  0  0  0
    5.1350   -2.5223    0.0000 O   0  0  0  0  0  0  0  0  0  0  0  0
    6.8671   -4.5223    0.0000 O   0  0  0  0  0  0  0  0  0  0  0  0
    5.1350   -5.5223    0.0000 O   0  0  0  0  0  0  0  0  0  0  0  0
    3.4030   -4.5223    0.0000 O   0  0  0  0  0  0  0  0  0  0  0  0
    2.5369   -3.0223    0.0000 O   0  0  0  0  0  0  0  0  0  0  0  0
    7.5037    2.4466    0.0000 C   0  0  1  0  0  0  0  0  0  0  0  0
    6.6647    3.0639    0.0000 C   0  0  2  0  0  0  0  0  0  0  0  0
    7.1751   -0.5771    0.0000 C   0  0  2  0  0  0  0  0  0  0  0  0
    6.7679    4.1440    0.0000 C   0  0  0  0  0  0  0  0  0  0  0  0
    7.3807    1.4123    0.0000 C   0  0  0  0  0  0  0  0  0  0  0  0
    6.8671   -1.5223    0.0000 C   0  0  1  0  0  0  0  0  0  0  0  0
    6.4678    1.0040    0.0000 C   0  0  0  0  0  0  0  0  0  0  0  0
    6.3650    0.0093    0.0000 C   0  0  0  0  0  0  0  0  0  0  0  0
    8.0879   -0.1688    0.0000 C   0  0  1  0  0  0  0  0  0  0  0  0
    8.5041    2.8666    0.0000 C   0  0  0  0  0  0  0  0  0  0  0  0
    5.7139    2.6386    0.0000 C   0  0  0  0  0  0  0  0  0  0  0  0
    8.1907    0.8259    0.0000 C   0  0  0  0  0  0  0  0  0  0  0  0
    7.7584    4.5870    0.0000 C   0  0  2  0  0  0  0  0  0  0  0  0
    5.6148    1.6017    0.0000 C   0  0  0  0  0  0  0  0  0  0  0  0
    8.6323    3.9440    0.0000 C   0  0  0  0  0  0  0  0  0  0  0  0
    5.8730   -1.5231    0.0000 C   0  0  0  0  0  0  0  0  0  0  0  0
    7.8181   -1.8313    0.0000 C   0  0  1  0  0  0  0  0  0  0  0  0
    8.3092    1.8540    0.0000 C   0  0  0  0  0  0  0  0  0  0  0  0
    5.5633   -0.5785    0.0000 C   0  0  0  0  0  0  0  0  0  0  0  0
    7.9851   -1.1635    0.0000 C   0  0  0  0  0  0  0  0  0  0  0  0
    6.3561    5.0552    0.0000 C   0  0  0  0  0  0  0  0  0  0  0  0
    5.7728    4.2430    0.0000 C   0  0  0  0  0  0  0  0  0  0  0  0
    8.0260   -2.8094    0.0000 C   0  0  0  0  0  0  0  0  0  0  0  0
    8.7963   -1.6234    0.0000 C   0  0  0  0  0  0  0  0  0  0  0  0
    6.0010   -3.0223    0.0000 C   0  0  3  0  0  0  0  0  0  0  0  0
    8.9771   -3.1185    0.0000 C   0  0  0  0  0  0  0  0  0  0  0  0
    6.0010   -4.0223    0.0000 C   0  0  2  0  0  0  0  0  0  0  0  0
    5.1350   -4.5223    0.0000 C   0  0  2  0  0  0  0  0  0  0  0  0
    4.2690   -3.0223    0.0000 C   0  0  1  0  0  0  0  0  0  0  0  0
    4.2690   -4.0223    0.0000 C   0  0  1  0  0  0  0  0  0  0  0  0
    9.1850   -4.0966    0.0000 C   0  0  0  0  0  0  0  0  0  0  0  0
   10.1361   -4.4056    0.0000 C   0  0  0  0  0  0  0  0  0  0  0  0
    3.4030   -2.5223    0.0000 C   0  0  0  0  0  0  0  0  0  0  0  0
    8.4418   -4.7657    0.0000 C   0  0  0  0  0  0  0  0  0  0  0  0
   10.3440   -5.3838    0.0000 C   0  0  0  0  0  0  0  0  0  0  0  0
   10.8792   -3.7365    0.0000 C   0  0  0  0  0  0  0  0  0  0  0  0
    5.9743    3.5597    0.0000 H   0  0  0  0  0  0  0  0  0  0  0  0
    8.1860   -0.7810    0.0000 H   0  0  0  0  0  0  0  0  0  0  0  0
    8.6428    2.2623    0.0000 H   0  0  0  0  0  0  0  0  0  0  0  0
    9.1232    2.8998    0.0000 H   0  0  0  0  0  0  0  0  0  0  0  0
    5.5613    3.2395    0.0000 H   0  0  0  0  0  0  0  0  0  0  0  0
    5.0957    2.5911    0.0000 H   0  0  0  0  0  0  0  0  0  0  0  0
    8.7870    0.6560    0.0000 H   0  0  0  0  0  0  0  0  0  0  0  0
    8.4615    1.3836    0.0000 H   0  0  0  0  0  0  0  0  0  0  0  0
    7.2568    4.9515    0.0000 H   0  0  0  0  0  0  0  0  0  0  0  0
    5.0168    1.7654    0.0000 H   0  0  0  0  0  0  0  0  0  0  0  0
    5.3511    1.0405    0.0000 H   0  0  0  0  0  0  0  0  0  0  0  0
    9.2264    3.7665    0.0000 H   0  0  0  0  0  0  0  0  0  0  0  0
    8.9088    4.4989    0.0000 H   0  0  0  0  0  0  0  0  0  0  0  0
    5.2668   -1.6533    0.0000 H   0  0  0  0  0  0  0  0  0  0  0  0
    5.9387   -2.1396    0.0000 H   0  0  0  0  0  0  0  0  0  0  0  0
    7.8506   -1.2121    0.0000 H   0  0  0  0  0  0  0  0  0  0  0  0
    7.9418    1.3546    0.0000 H   0  0  0  0  0  0  0  0  0  0  0  0
    8.8086    1.4866    0.0000 H   0  0  0  0  0  0  0  0  0  0  0  0
    8.6766    2.3534    0.0000 H   0  0  0  0  0  0  0  0  0  0  0  0
    4.9730   -0.3890    0.0000 H   0  0  0  0  0  0  0  0  0  0  0  0
    7.6215   -1.6657    0.0000 H   0  0  0  0  0  0  0  0  0  0  0  0
    8.4873   -1.5271    0.0000 H   0  0  0  0  0  0  0  0  0  0  0  0
    8.3487   -0.6613    0.0000 H   0  0  0  0  0  0  0  0  0  0  0  0
    6.9211    5.3106    0.0000 H   0  0  0  0  0  0  0  0  0  0  0  0
    6.1008    5.6202    0.0000 H   0  0  0  0  0  0  0  0  0  0  0  0
    5.7911    4.7999    0.0000 H   0  0  0  0  0  0  0  0  0  0  0  0
    5.8342    4.8599    0.0000 H   0  0  0  0  0  0  0  0  0  0  0  0
    5.1559    4.3043    0.0000 H   0  0  0  0  0  0  0  0  0  0  0  0
    5.7115    3.6260    0.0000 H   0  0  0  0  0  0  0  0  0  0  0  0
    7.4064   -2.8311    0.0000 H   0  0  0  0  0  0  0  0  0  0  0  0
    7.9397   -3.4234    0.0000 H   0  0  0  0  0  0  0  0  0  0  0  0
    8.9252   -2.2298    0.0000 H   0  0  0  0  0  0  0  0  0  0  0  0
    9.4027   -1.4945    0.0000 H   0  0  0  0  0  0  0  0  0  0  0  0
    8.6674   -1.0169    0.0000 H   0  0  0  0  0  0  0  0  0  0  0  0
    9.4462    0.2306    0.0000 H   0  0  0  0  0  0  0  0  0  0  0  0
    8.4319    5.8323    0.0000 H   0  0  0  0  0  0  0  0  0  0  0  0
    6.0010   -2.4023    0.0000 H   0  0  0  0  0  0  0  0  0  0  0  0
    9.5967   -3.0968    0.0000 H   0  0  0  0  0  0  0  0  0  0  0  0
    9.0634   -2.5045    0.0000 H   0  0  0  0  0  0  0  0  0  0  0  0
    6.0010   -4.6423    0.0000 H   0  0  0  0  0  0  0  0  0  0  0  0
    4.5981   -4.8323    0.0000 H   0  0  0  0  0  0  0  0  0  0  0  0
    4.2690   -2.4023    0.0000 H   0  0  0  0  0  0  0  0  0  0  0  0
    4.2690   -4.6423    0.0000 H   0  0  0  0  0  0  0  0  0  0  0  0
    6.8671   -5.1423    0.0000 H   0  0  0  0  0  0  0  0  0  0  0  0
   10.7257   -4.5972    0.0000 H   0  0  0  0  0  0  0  0  0  0  0  0
    3.8015   -2.0473    0.0000 H   0  0  0  0  0  0  0  0  0  0  0  0
    3.0044   -2.0473    0.0000 H   0  0  0  0  0  0  0  0  0  0  0  0
    4.5981   -5.8323    0.0000 H   0  0  0  0  0  0  0  0  0  0  0  0
    7.8522   -4.5741    0.0000 H   0  0  0  0  0  0  0  0  0  0  0  0
    8.5708   -5.3722    0.0000 H   0  0  0  0  0  0  0  0  0  0  0  0
    3.4030   -5.1423    0.0000 H   0  0  0  0  0  0  0  0  0  0  0  0
    9.7375   -5.5127    0.0000 H   0  0  0  0  0  0  0  0  0  0  0  0
   10.4729   -5.9902    0.0000 H   0  0  0  0  0  0  0  0  0  0  0  0
   10.9504   -5.2549    0.0000 H   0  0  0  0  0  0  0  0  0  0  0  0
   11.2941   -4.1972    0.0000 H   0  0  0  0  0  0  0  0  0  0  0  0
   11.3400   -3.3216    0.0000 H   0  0  0  0  0  0  0  0  0  0  0  0
   10.4643   -3.2757    0.0000 H   0  0  0  0  0  0  0  0  0  0  0  0
    2.0000   -2.7123    0.0000 H   0  0  0  0  0  0  0  0  0  0  0  0
 14  1  1  6  0  0  0
  1 33  1  0  0  0  0
 17  2  1  1  0  0  0
  2 79  1  0  0  0  0
 21  3  1  1  0  0  0
  3 80  1  0  0  0  0
  4 33  1  0  0  0  0
  4 37  1  0  0  0  0
 35  5  1  1  0  0  0
  5 88  1  0  0  0  0
 36  6  1  1  0  0  0
  6 92  1  0  0  0  0
 38  7  1  6  0  0  0
  7 95  1  0  0  0  0
  8 41  1  0  0  0  0
  8102  1  0  0  0  0
  9 10  1  0  0  0  0
  9 13  1  0  0  0  0
  9 18  1  0  0  0  0
  9 26  1  1  0  0  0
 10 12  1  0  0  0  0
 10 19  1  0  0  0  0
 10 45  1  6  0  0  0
 11 14  1  0  0  0  0
 11 16  1  0  0  0  0
 11 17  1  0  0  0  0
 11 28  1  1  0  0  0
 12 21  1  0  0  0  0
 12 29  1  0  0  0  0
 12 30  1  0  0  0  0
 13 15  2  0  0  0  0
 13 20  1  0  0  0  0
 14 24  1  0  0  0  0
 14 25  1  0  0  0  0
 15 16  1  0  0  0  0
 15 22  1  0  0  0  0
 16 27  2  0  0  0  0
 17 20  1  0  0  0  0
 17 46  1  0  0  0  0
 18 23  1  0  0  0  0
 18 47  1  0  0  0  0
 18 48  1  0  0  0  0
 19 22  1  0  0  0  0
 19 49  1  0  0  0  0
 19 50  1  0  0  0  0
 20 51  1  0  0  0  0
 20 52  1  0  0  0  0
 21 23  1  0  0  0  0
 21 53  1  0  0  0  0
 22 54  1  0  0  0  0
 22 55  1  0  0  0  0
 23 56  1  0  0  0  0
 23 57  1  0  0  0  0
 24 27  1  0  0  0  0
 24 58  1  0  0  0  0
 24 59  1  0  0  0  0
 25 31  1  0  0  0  0
 25 32  1  6  0  0  0
 25 60  1  0  0  0  0
 26 61  1  0  0  0  0
 26 62  1  0  0  0  0
 26 63  1  0  0  0  0
 27 64  1  0  0  0  0
 28 65  1  0  0  0  0
 28 66  1  0  0  0  0
 28 67  1  0  0  0  0
 29 68  1  0  0  0  0
 29 69  1  0  0  0  0
 29 70  1  0  0  0  0
 30 71  1  0  0  0  0
 30 72  1  0  0  0  0
 30 73  1  0  0  0  0
 31 34  1  0  0  0  0
 31 74  1  0  0  0  0
 31 75  1  0  0  0  0
 32 76  1  0  0  0  0
 32 77  1  0  0  0  0
 32 78  1  0  0  0  0
 33 35  1  0  0  0  0
 33 81  1  0  0  0  0
 34 39  1  0  0  0  0
 34 82  1  0  0  0  0
 34 83  1  0  0  0  0
 35 36  1  0  0  0  0
 35 84  1  0  0  0  0
 36 38  1  0  0  0  0
 36 85  1  0  0  0  0
 37 38  1  0  0  0  0
 37 41  1  1  0  0  0
 37 86  1  0  0  0  0
 38 87  1  0  0  0  0
 39 40  1  0  0  0  0
 39 42  2  0  0  0  0
 40 43  1  0  0  0  0
 40 44  1  0  0  0  0
 40 89  1  0  0  0  0
 41 90  1  0  0  0  0
 41 91  1  0  0  0  0
 42 93  1  0  0  0  0
 42 94  1  0  0  0  0
 43 96  1  0  0  0  0
 43 97  1  0  0  0  0
 43 98  1  0  0  0  0
 44 99  1  0  0  0  0
 44100  1  0  0  0  0
 44101  1  0  0  0  0
M  END
> <PUBCHEM_COMPOUND_CID>
503623
> <PUBCHEM_COMPOUND_CANONICALIZED>
1
> <PUBCHEM_CACTVS_COMPLEXITY>
1170
> <PUBCHEM_CACTVS_HBOND_ACCEPTOR>
8
> <PUBCHEM_CACTVS_HBOND_DONOR>
6
> <PUBCHEM_CACTVS_ROTATABLE_BOND>
8
> <PUBCHEM_CACTVS_SUBSKEYS>
AAADcfB8PAAAAAAAAAAAAAAAAAAAAQAAAAA0QIEAAAAAAEDAAAAAGgAACAAAD1SwgAMCCAAABgCAAiBCAAAAAAAgAAAACAAAAAgZEAIAAQAiQAAFwAAPgAPA4PwPgAAAAAAAAABAAAYAADAAAAAAAAAAAA==
> <PUBCHEM_IUPAC_OPENEYE_NAME>
(3S,4S,5S,6R)-2-[[(3S,5R,10S,12R,13R,17S)-17-[(1R)-1,5-dimethyl-4-methylene-hexyl]-3,12-dihydroxy-4,4,10,13-tetramethyl-2,3,5,6,7,11,12,16-octahydro-1H-cyclopenta[a]phenanthren-17-yl]oxy]-6-(hydroxymethyl)tetrahydropyran-3,4,5-triol
> <PUBCHEM_IUPAC_CAS_NAME>
(3S,4S,5S,6R)-2-[[(3S,5R,10S,12R,13R,17S)-3,12-dihydroxy-4,4,10,13-tetramethyl-17-[(2R)-6-methyl-5-methyleneheptan-2-yl]-2,3,5,6,7,11,12,16-octahydro-1H-cyclopenta[a]phenanthren-17-yl]oxy]-6-(hydroxymethyl)oxane-3,4,5-triol
> <PUBCHEM_IUPAC_NAME_MARKUP>
(3<I>S</I>,4<I>S</I>,5<I>S</I>,6<I>R</I>)-2-[[(3<I>S</I>,5<I>R</I>,10<I>S</I>,12<I>R</I>,13<I>R</I>,17<I>S</I>)-3,12-dihydroxy-4,4,10,13-tetramethyl-17-[(2<I>R</I>)-6-methyl-5-methylideneheptan-2-yl]-2,3,5,6,7,11,12,16-octahydro-1<I>H</I>-cyclopenta[a]phenanthren-17-yl]oxy]-6-(hydroxymethyl)oxane-3,4,5-triol
> <PUBCHEM_IUPAC_NAME>
(3S,4S,5S,6R)-2-[[(3S,5R,10S,12R,13R,17S)-3,12-dihydroxy-4,4,10,13-tetramethyl-17-[(2R)-6-methyl-5-methylideneheptan-2-yl]-2,3,5,6,7,11,12,16-octahydro-1H-cyclopenta[a]phenanthren-17-yl]oxy]-6-(hydroxymethyl)oxane-3,4,5-triol
> <PUBCHEM_IUPAC_SYSTEMATIC_NAME>
(2R,3S,4S,5S)-2-(hydroxymethyl)-6-[[(3S,5R,10S,12R,13R,17S)-4,4,10,13-tetramethyl-17-[(2R)-6-methyl-5-methylidene-heptan-2-yl]-3,12-bis(oxidanyl)-2,3,5,6,7,11,12,16-octahydro-1H-cyclopenta[a]phenanthren-17-yl]oxy]oxane-3,4,5-triol
> <PUBCHEM_IUPAC_TRADITIONAL_NAME>
(3S,4S,5S,6R)-2-[[(3S,5R,10S,12R,13R,17S)-3,12-dihydroxy-17-[(1R)-4-isopropyl-1-methyl-pent-4-enyl]-4,4,10,13-tetramethyl-2,3,5,6,7,11,12,16-octahydro-1H-cyclopenta[a]phenanthren-17-yl]oxy]-6-methylol-tetrahydropyran-3,4,5-triol
> <PUBCHEM_IUPAC_INCHI>
InChI=1S/C36H58O8/c1-19(2)20(3)9-10-21(4)36(44-32-31(42)30(41)29(40)25(18-37)43-32)16-13-23-22-11-12-26-33(5,6)27(38)14-15-34(26,7)24(22)17-28(39)35(23,36)8/h13,19,21,25-32,37-42H,3,9-12,14-18H2,1-2,4-8H3/t21-,25-,26+,27+,28-,29-,30+,31+,32?,34-,35-,36+/m1/s1
> <PUBCHEM_IUPAC_INCHIKEY>
JJWUKNVFGMFZJI-OGCMLNSDSA-N
> <PUBCHEM_XLOGP3_AA>
4.3
> <PUBCHEM_EXACT_MASS>
618.41316880
> <PUBCHEM_MOLECULAR_FORMULA>
C36H58O8
> <PUBCHEM_MOLECULAR_WEIGHT>
618.8
> <PUBCHEM_OPENEYE_CAN_SMILES>
CC(C)C(=C)CCC(C)C1(CC=C2C1(C(CC3=C2CCC4C3(CCC(C4(C)C)O)C)O)C)OC5C(C(C(C(O5)CO)O)O)O
> <PUBCHEM_OPENEYE_ISO_SMILES>
C[C@H](CCC(=C)C(C)C)[C@]1(CC=C2[C@@]1([C@@H](CC3=C2CC[C@@H]4[C@@]3(CC[C@@H](C4(C)C)O)C)O)C)OC5[C@H]([C@H]([C@@H]([C@H](O5)CO)O)O)O
> <PUBCHEM_CACTVS_TPSA>
140
> <PUBCHEM_MONOISOTOPIC_WEIGHT>
618.41316880
> <PUBCHEM_TOTAL_CHARGE>
0
> <PUBCHEM_HEAVY_ATOM_COUNT>
44
> <PUBCHEM_ATOM_DEF_STEREO_COUNT>
11
> <PUBCHEM_ATOM_UDEF_STEREO_COUNT>
1
> <PUBCHEM_BOND_DEF_STEREO_COUNT>
0
> <PUBCHEM_BOND_UDEF_STEREO_COUNT>
0
> <PUBCHEM_ISOTOPIC_ATOM_COUNT>
0
> <PUBCHEM_COMPONENT_COUNT>
1
> <PUBCHEM_CACTVS_TAUTO_COUNT>
-1
> <PUBCHEM_COORDINATE_TYPE>
1
5
255
> <PUBCHEM_BONDANNOTATIONS>
14  1  6
33  1  3
10  45  6
11  28  5
17  2  5
25  32  6
21  3  5
37  41  5
35  5  5
36  6  5
38  7  6
9  26  5
$$$$
