503663
  -OEChem-10302200282D
 48 50  0     1  0  0  0  0  0999 V2000
   10.6032    2.8184    0.0000 S   0  0  0  0  0  0  0  0  0  0  0  0
    8.0622    2.2306    0.0000 S   0  0  0  0  0  0  0  0  0  0  0  0
    7.1962    0.7306    0.0000 O   0  0  0  0  0  0  0  0  0  0  0  0
    4.5981    1.2306    0.0000 O   0  0  0  0  0  0  0  0  0  0  0  0
   10.6603    0.7306    0.0000 O   0  0  0  0  0  0  0  0  0  0  0  0
    8.0622   -3.7694    0.0000 O   0  5  0  0  0  0  0  0  0  0  0  0
    9.7942   -3.7694    0.0000 O   0  0  0  0  0  0  0  0  0  0  0  0
    8.9282    0.7306    0.0000 N   0  0  0  0  0  0  0  0  0  0  0  0
    8.9282   -3.2694    0.0000 N   0  3  0  0  0  0  0  0  0  0  0  0
    6.3301    1.2306    0.0000 C   0  0  3  0  0  0  0  0  0  0  0  0
    5.4641    0.7306    0.0000 C   0  0  0  0  0  0  0  0  0  0  0  0
    6.3301    2.2306    0.0000 C   0  0  0  0  0  0  0  0  0  0  0  0
    8.9282   -0.2694    0.0000 C   0  0  0  0  0  0  0  0  0  0  0  0
    8.0622    1.2306    0.0000 C   0  0  0  0  0  0  0  0  0  0  0  0
    9.7942    1.2306    0.0000 C   0  0  0  0  0  0  0  0  0  0  0  0
    9.7942   -0.7694    0.0000 C   0  0  0  0  0  0  0  0  0  0  0  0
    8.0622   -0.7694    0.0000 C   0  0  0  0  0  0  0  0  0  0  0  0
    3.7320    0.7306    0.0000 C   0  0  0  0  0  0  0  0  0  0  0  0
    9.7942    2.2306    0.0000 C   0  0  0  0  0  0  0  0  0  0  0  0
    9.7942   -1.7694    0.0000 C   0  0  0  0  0  0  0  0  0  0  0  0
    8.0622   -1.7694    0.0000 C   0  0  0  0  0  0  0  0  0  0  0  0
    8.9282   -2.2694    0.0000 C   0  0  0  0  0  0  0  0  0  0  0  0
    2.8660    1.2306    0.0000 C   0  0  0  0  0  0  0  0  0  0  0  0
    3.7320   -0.2694    0.0000 C   0  0  0  0  0  0  0  0  0  0  0  0
    8.9852    2.8184    0.0000 C   0  0  0  0  0  0  0  0  0  0  0  0
    9.2942    3.7694    0.0000 C   0  0  0  0  0  0  0  0  0  0  0  0
    2.0000    0.7306    0.0000 C   0  0  0  0  0  0  0  0  0  0  0  0
    2.8660   -0.7694    0.0000 C   0  0  0  0  0  0  0  0  0  0  0  0
   10.2942    3.7694    0.0000 C   0  0  0  0  0  0  0  0  0  0  0  0
    2.0000   -0.2694    0.0000 C   0  0  0  0  0  0  0  0  0  0  0  0
    6.8671    1.5406    0.0000 H   0  0  0  0  0  0  0  0  0  0  0  0
    5.0656    0.2556    0.0000 H   0  0  0  0  0  0  0  0  0  0  0  0
    5.8626    0.2556    0.0000 H   0  0  0  0  0  0  0  0  0  0  0  0
    6.9501    2.2306    0.0000 H   0  0  0  0  0  0  0  0  0  0  0  0
    6.3301    2.8506    0.0000 H   0  0  0  0  0  0  0  0  0  0  0  0
    5.7101    2.2306    0.0000 H   0  0  0  0  0  0  0  0  0  0  0  0
   10.3312   -0.4594    0.0000 H   0  0  0  0  0  0  0  0  0  0  0  0
    7.5252   -0.4594    0.0000 H   0  0  0  0  0  0  0  0  0  0  0  0
   10.3312   -2.0794    0.0000 H   0  0  0  0  0  0  0  0  0  0  0  0
    7.5252   -2.0794    0.0000 H   0  0  0  0  0  0  0  0  0  0  0  0
    2.8660    1.8506    0.0000 H   0  0  0  0  0  0  0  0  0  0  0  0
    4.2690   -0.5794    0.0000 H   0  0  0  0  0  0  0  0  0  0  0  0
    8.3956    2.6268    0.0000 H   0  0  0  0  0  0  0  0  0  0  0  0
    8.9298    4.2710    0.0000 H   0  0  0  0  0  0  0  0  0  0  0  0
    1.4631    1.0406    0.0000 H   0  0  0  0  0  0  0  0  0  0  0  0
    2.8660   -1.3894    0.0000 H   0  0  0  0  0  0  0  0  0  0  0  0
   10.6587    4.2710    0.0000 H   0  0  0  0  0  0  0  0  0  0  0  0
    1.4631   -0.5794    0.0000 H   0  0  0  0  0  0  0  0  0  0  0  0
  1 19  1  0  0  0  0
  1 29  1  0  0  0  0
  2 14  2  0  0  0  0
  3 10  1  0  0  0  0
  3 14  1  0  0  0  0
  4 11  1  0  0  0  0
  4 18  1  0  0  0  0
  5 15  2  0  0  0  0
  6  9  1  0  0  0  0
  7  9  2  0  0  0  0
  8 13  1  0  0  0  0
  8 14  1  0  0  0  0
  8 15  1  0  0  0  0
  9 22  1  0  0  0  0
 10 11  1  0  0  0  0
 10 12  1  0  0  0  0
 10 31  1  0  0  0  0
 11 32  1  0  0  0  0
 11 33  1  0  0  0  0
 12 34  1  0  0  0  0
 12 35  1  0  0  0  0
 12 36  1  0  0  0  0
 13 16  2  0  0  0  0
 13 17  1  0  0  0  0
 15 19  1  0  0  0  0
 16 20  1  0  0  0  0
 16 37  1  0  0  0  0
 17 21  2  0  0  0  0
 17 38  1  0  0  0  0
 18 23  2  0  0  0  0
 18 24  1  0  0  0  0
 19 25  2  0  0  0  0
 20 22  2  0  0  0  0
 20 39  1  0  0  0  0
 21 22  1  0  0  0  0
 21 40  1  0  0  0  0
 23 27  1  0  0  0  0
 23 41  1  0  0  0  0
 24 28  2  0  0  0  0
 24 42  1  0  0  0  0
 25 26  1  0  0  0  0
 25 43  1  0  0  0  0
 26 29  2  0  0  0  0
 26 44  1  0  0  0  0
 27 30  2  0  0  0  0
 27 45  1  0  0  0  0
 28 30  1  0  0  0  0
 28 46  1  0  0  0  0
 29 47  1  0  0  0  0
 30 48  1  0  0  0  0
M  CHG  2   6  -1   9   1
M  END
> <PUBCHEM_COMPOUND_CID>
503663
> <PUBCHEM_COMPOUND_CANONICALIZED>
1
> <PUBCHEM_CACTVS_COMPLEXITY>
601
> <PUBCHEM_CACTVS_HBOND_ACCEPTOR>
7
> <PUBCHEM_CACTVS_HBOND_DONOR>
0
> <PUBCHEM_CACTVS_ROTATABLE_BOND>
7
> <PUBCHEM_CACTVS_SUBSKEYS>
AAADceB7OABgAAAAAAAAAAAAAAAAASAAAAAwYAAAAAAAAAAB0AAAHgQEAAAACByl0AKyx4MQRAiNACVSUwCDCIAlKhhoiBkGbMoNJjLktZuOOSjkxBHq6YeYQAAAAACAAAAAAAAAAQAAAAAAAAAAAAAAAA==
> <PUBCHEM_IUPAC_OPENEYE_NAME>
O-(1-methyl-2-phenoxy-ethyl) N-(4-nitrophenyl)-N-(thiophene-2-carbonyl)carbamothioate
> <PUBCHEM_IUPAC_CAS_NAME>
N-(4-nitrophenyl)-N-[oxo(thiophen-2-yl)methyl]carbamothioic acid O-(1-phenoxypropan-2-yl) ester
> <PUBCHEM_IUPAC_NAME_MARKUP>
<I>O</I>-(1-phenoxypropan-2-yl) <I>N</I>-(4-nitrophenyl)-<I>N</I>-(thiophene-2-carbonyl)carbamothioate
> <PUBCHEM_IUPAC_NAME>
O-(1-phenoxypropan-2-yl) N-(4-nitrophenyl)-N-(thiophene-2-carbonyl)carbamothioate
> <PUBCHEM_IUPAC_SYSTEMATIC_NAME>
O-(1-phenoxypropan-2-yl) N-(4-nitrophenyl)-N-thiophen-2-ylcarbonyl-carbamothioate
> <PUBCHEM_IUPAC_TRADITIONAL_NAME>
N-(4-nitrophenyl)-N-(2-thenoyl)thiocarbamic acid O-(1-methyl-2-phenoxy-ethyl) ester
> <PUBCHEM_IUPAC_INCHI>
InChI=1S/C21H18N2O5S2/c1-15(14-27-18-6-3-2-4-7-18)28-21(29)22(20(24)19-8-5-13-30-19)16-9-11-17(12-10-16)23(25)26/h2-13,15H,14H2,1H3
> <PUBCHEM_IUPAC_INCHIKEY>
LUEBFZCGHIJFKT-UHFFFAOYSA-N
> <PUBCHEM_XLOGP3_AA>
5.7
> <PUBCHEM_EXACT_MASS>
442.06571403
> <PUBCHEM_MOLECULAR_FORMULA>
C21H18N2O5S2
> <PUBCHEM_MOLECULAR_WEIGHT>
442.5
> <PUBCHEM_OPENEYE_CAN_SMILES>
CC(COC1=CC=CC=C1)OC(=S)N(C2=CC=C(C=C2)[N+](=O)[O-])C(=O)C3=CC=CS3
> <PUBCHEM_OPENEYE_ISO_SMILES>
CC(COC1=CC=CC=C1)OC(=S)N(C2=CC=C(C=C2)[N+](=O)[O-])C(=O)C3=CC=CS3
> <PUBCHEM_CACTVS_TPSA>
145
> <PUBCHEM_MONOISOTOPIC_WEIGHT>
442.06571403
> <PUBCHEM_TOTAL_CHARGE>
0
> <PUBCHEM_HEAVY_ATOM_COUNT>
30
> <PUBCHEM_ATOM_DEF_STEREO_COUNT>
0
> <PUBCHEM_ATOM_UDEF_STEREO_COUNT>
1
> <PUBCHEM_BOND_DEF_STEREO_COUNT>
0
> <PUBCHEM_BOND_UDEF_STEREO_COUNT>
0
> <PUBCHEM_ISOTOPIC_ATOM_COUNT>
0
> <PUBCHEM_COMPONENT_COUNT>
1
> <PUBCHEM_CACTVS_TAUTO_COUNT>
-1
> <PUBCHEM_COORDINATE_TYPE>
1
5
255
> <PUBCHEM_BONDANNOTATIONS>
1  19  8
1  29  8
10  12  3
13  16  8
13  17  8
16  20  8
17  21  8
18  23  8
18  24  8
19  25  8
20  22  8
21  22  8
23  27  8
24  28  8
25  26  8
26  29  8
27  30  8
28  30  8
$$$$
