503756
  -OEChem-10302200282D
 33 35  0     1  0  0  0  0  0999 V2000
    8.0935   -1.3244    0.0000 Cl  0  0  0  0  0  0  0  0  0  0  0  0
    7.1705    0.2634    0.0000 S   0  0  0  0  0  0  0  0  0  0  0  0
    4.4955   -1.8244    0.0000 F   0  0  0  0  0  0  0  0  0  0  0  0
    5.2737    2.0234    0.0000 O   0  0  0  0  0  0  0  0  0  0  0  0
    2.0000    2.7892    0.0000 O   0  5  0  0  0  0  0  0  0  0  0  0
    3.6473    3.3244    0.0000 O   0  0  0  0  0  0  0  0  0  0  0  0
    5.5525    0.2634    0.0000 N   0  0  0  0  0  0  0  0  0  0  0  0
    2.9782    2.5813    0.0000 N   0  3  0  0  0  0  0  0  0  0  0  0
    6.3615   -0.3244    0.0000 C   0  0  3  0  0  0  0  0  0  0  0  0
    6.3615   -1.3244    0.0000 C   0  0  0  0  0  0  0  0  0  0  0  0
    6.8615    1.2144    0.0000 C   0  0  0  0  0  0  0  0  0  0  0  0
    5.8615    1.2144    0.0000 C   0  0  0  0  0  0  0  0  0  0  0  0
    4.5743    0.4713    0.0000 C   0  0  0  0  0  0  0  0  0  0  0  0
    7.2275   -1.8244    0.0000 C   0  0  0  0  0  0  0  0  0  0  0  0
    5.4955   -1.8244    0.0000 C   0  0  0  0  0  0  0  0  0  0  0  0
    4.2653    1.4223    0.0000 C   0  0  0  0  0  0  0  0  0  0  0  0
    3.9052   -0.2719    0.0000 C   0  0  0  0  0  0  0  0  0  0  0  0
    3.2872    1.6302    0.0000 C   0  0  0  0  0  0  0  0  0  0  0  0
    7.2275   -2.8244    0.0000 C   0  0  0  0  0  0  0  0  0  0  0  0
    5.4955   -2.8244    0.0000 C   0  0  0  0  0  0  0  0  0  0  0  0
    2.9270   -0.0640    0.0000 C   0  0  0  0  0  0  0  0  0  0  0  0
    2.6181    0.8872    0.0000 C   0  0  0  0  0  0  0  0  0  0  0  0
    6.3615   -3.3244    0.0000 C   0  0  0  0  0  0  0  0  0  0  0  0
    5.8091   -0.6059    0.0000 H   0  0  0  0  0  0  0  0  0  0  0  0
    7.4680    1.3433    0.0000 H   0  0  0  0  0  0  0  0  0  0  0  0
    6.7967    1.8310    0.0000 H   0  0  0  0  0  0  0  0  0  0  0  0
    4.6802    1.8831    0.0000 H   0  0  0  0  0  0  0  0  0  0  0  0
    4.0968   -0.8615    0.0000 H   0  0  0  0  0  0  0  0  0  0  0  0
    7.7644   -3.1344    0.0000 H   0  0  0  0  0  0  0  0  0  0  0  0
    4.9585   -3.1344    0.0000 H   0  0  0  0  0  0  0  0  0  0  0  0
    2.5122   -0.5247    0.0000 H   0  0  0  0  0  0  0  0  0  0  0  0
    2.0116    1.0161    0.0000 H   0  0  0  0  0  0  0  0  0  0  0  0
    6.3615   -3.9444    0.0000 H   0  0  0  0  0  0  0  0  0  0  0  0
  1 14  1  0  0  0  0
  2  9  1  0  0  0  0
  2 11  1  0  0  0  0
  3 15  1  0  0  0  0
  4 12  2  0  0  0  0
  5  8  1  0  0  0  0
  6  8  2  0  0  0  0
  7  9  1  0  0  0  0
  7 12  1  0  0  0  0
  7 13  1  0  0  0  0
  8 18  1  0  0  0  0
  9 10  1  0  0  0  0
  9 24  1  0  0  0  0
 10 14  1  0  0  0  0
 10 15  2  0  0  0  0
 11 12  1  0  0  0  0
 11 25  1  0  0  0  0
 11 26  1  0  0  0  0
 13 16  2  0  0  0  0
 13 17  1  0  0  0  0
 14 19  2  0  0  0  0
 15 20  1  0  0  0  0
 16 18  1  0  0  0  0
 16 27  1  0  0  0  0
 17 21  2  0  0  0  0
 17 28  1  0  0  0  0
 18 22  2  0  0  0  0
 19 23  1  0  0  0  0
 19 29  1  0  0  0  0
 20 23  2  0  0  0  0
 20 30  1  0  0  0  0
 21 22  1  0  0  0  0
 21 31  1  0  0  0  0
 22 32  1  0  0  0  0
 23 33  1  0  0  0  0
M  CHG  2   5  -1   8   1
M  END
> <PUBCHEM_COMPOUND_CID>
503756
> <PUBCHEM_COMPOUND_CANONICALIZED>
1
> <PUBCHEM_CACTVS_COMPLEXITY>
478
> <PUBCHEM_CACTVS_HBOND_ACCEPTOR>
5
> <PUBCHEM_CACTVS_HBOND_DONOR>
0
> <PUBCHEM_CACTVS_ROTATABLE_BOND>
2
> <PUBCHEM_CACTVS_SUBSKEYS>
AAADccBzMQBEAAAAAAAAAAAAAAAAAWAAAAAwYAAAAAAAAAABQAAAHwYEAAAADArF2CywwIMQQAiJAiVSUwCCAABhBxAoiAAIZooIICLh09GEIAhghgDoyAcQgAAOAAAAAAQBAAAAAAAACAIAAAAAAAAAAA==
> <PUBCHEM_IUPAC_OPENEYE_NAME>
2-(2-chloro-6-fluoro-phenyl)-3-(3-nitrophenyl)thiazolidin-4-one
> <PUBCHEM_IUPAC_CAS_NAME>
2-(2-chloro-6-fluorophenyl)-3-(3-nitrophenyl)-4-thiazolidinone
> <PUBCHEM_IUPAC_NAME_MARKUP>
2-(2-chloro-6-fluorophenyl)-3-(3-nitrophenyl)-1,3-thiazolidin-4-one
> <PUBCHEM_IUPAC_NAME>
2-(2-chloro-6-fluorophenyl)-3-(3-nitrophenyl)-1,3-thiazolidin-4-one
> <PUBCHEM_IUPAC_SYSTEMATIC_NAME>
2-(2-chloranyl-6-fluoranyl-phenyl)-3-(3-nitrophenyl)-1,3-thiazolidin-4-one
> <PUBCHEM_IUPAC_TRADITIONAL_NAME>
2-(2-chloro-6-fluoro-phenyl)-3-(3-nitrophenyl)thiazolidin-4-one
> <PUBCHEM_IUPAC_INCHI>
InChI=1S/C15H10ClFN2O3S/c16-11-5-2-6-12(17)14(11)15-18(13(20)8-23-15)9-3-1-4-10(7-9)19(21)22/h1-7,15H,8H2
> <PUBCHEM_IUPAC_INCHIKEY>
GWOONTROZFGMOY-UHFFFAOYSA-N
> <PUBCHEM_XLOGP3_AA>
3.9
> <PUBCHEM_EXACT_MASS>
352.0084692
> <PUBCHEM_MOLECULAR_FORMULA>
C15H10ClFN2O3S
> <PUBCHEM_MOLECULAR_WEIGHT>
352.8
> <PUBCHEM_OPENEYE_CAN_SMILES>
C1C(=O)N(C(S1)C2=C(C=CC=C2Cl)F)C3=CC(=CC=C3)[N+](=O)[O-]
> <PUBCHEM_OPENEYE_ISO_SMILES>
C1C(=O)N(C(S1)C2=C(C=CC=C2Cl)F)C3=CC(=CC=C3)[N+](=O)[O-]
> <PUBCHEM_CACTVS_TPSA>
91.4
> <PUBCHEM_MONOISOTOPIC_WEIGHT>
352.0084692
> <PUBCHEM_TOTAL_CHARGE>
0
> <PUBCHEM_HEAVY_ATOM_COUNT>
23
> <PUBCHEM_ATOM_DEF_STEREO_COUNT>
0
> <PUBCHEM_ATOM_UDEF_STEREO_COUNT>
1
> <PUBCHEM_BOND_DEF_STEREO_COUNT>
0
> <PUBCHEM_BOND_UDEF_STEREO_COUNT>
0
> <PUBCHEM_ISOTOPIC_ATOM_COUNT>
0
> <PUBCHEM_COMPONENT_COUNT>
1
> <PUBCHEM_CACTVS_TAUTO_COUNT>
-1
> <PUBCHEM_COORDINATE_TYPE>
1
5
255
> <PUBCHEM_BONDANNOTATIONS>
10  14  8
10  15  8
13  16  8
13  17  8
14  19  8
15  20  8
16  18  8
17  21  8
18  22  8
19  23  8
20  23  8
21  22  8
9  10  3
$$$$
