503765
  -OEChem-10302200282D
 37 39  0     1  0  0  0  0  0999 V2000
    7.8356   -0.9529    0.0000 Cl  0  0  0  0  0  0  0  0  0  0  0  0
    6.9126    0.6349    0.0000 S   0  0  0  0  0  0  0  0  0  0  0  0
    4.2376   -1.4529    0.0000 F   0  0  0  0  0  0  0  0  0  0  0  0
    5.0158    2.3950    0.0000 O   0  0  0  0  0  0  0  0  0  0  0  0
    5.2946    0.6349    0.0000 N   0  0  0  0  0  0  0  0  0  0  0  0
    6.1036    0.0471    0.0000 C   0  0  3  0  0  0  0  0  0  0  0  0
    4.3164    0.8429    0.0000 C   0  0  0  0  0  0  0  0  0  0  0  0
    6.1036   -0.9529    0.0000 C   0  0  0  0  0  0  0  0  0  0  0  0
    5.6036    1.5860    0.0000 C   0  0  0  0  0  0  0  0  0  0  0  0
    6.6036    1.5860    0.0000 C   0  0  0  0  0  0  0  0  0  0  0  0
    4.0074    1.7939    0.0000 C   0  0  0  0  0  0  0  0  0  0  0  0
    3.6473    0.0997    0.0000 C   0  0  0  0  0  0  0  0  0  0  0  0
    3.0292    2.0018    0.0000 C   0  0  0  0  0  0  0  0  0  0  0  0
    2.6691    0.3076    0.0000 C   0  0  0  0  0  0  0  0  0  0  0  0
    6.9696   -1.4529    0.0000 C   0  0  0  0  0  0  0  0  0  0  0  0
    5.2376   -1.4529    0.0000 C   0  0  0  0  0  0  0  0  0  0  0  0
    2.3601    1.2587    0.0000 C   0  0  0  0  0  0  0  0  0  0  0  0
    6.9696   -2.4529    0.0000 C   0  0  0  0  0  0  0  0  0  0  0  0
    5.2376   -2.4529    0.0000 C   0  0  0  0  0  0  0  0  0  0  0  0
    2.7202    2.9529    0.0000 C   0  0  0  0  0  0  0  0  0  0  0  0
    2.0000   -0.4355    0.0000 C   0  0  0  0  0  0  0  0  0  0  0  0
    6.1036   -2.9529    0.0000 C   0  0  0  0  0  0  0  0  0  0  0  0
    5.5512   -0.2343    0.0000 H   0  0  0  0  0  0  0  0  0  0  0  0
    7.2100    1.7149    0.0000 H   0  0  0  0  0  0  0  0  0  0  0  0
    6.5388    2.2026    0.0000 H   0  0  0  0  0  0  0  0  0  0  0  0
    4.4222    2.2546    0.0000 H   0  0  0  0  0  0  0  0  0  0  0  0
    3.8389   -0.4900    0.0000 H   0  0  0  0  0  0  0  0  0  0  0  0
    1.7537    1.3876    0.0000 H   0  0  0  0  0  0  0  0  0  0  0  0
    7.5065   -2.7629    0.0000 H   0  0  0  0  0  0  0  0  0  0  0  0
    4.7006   -2.7629    0.0000 H   0  0  0  0  0  0  0  0  0  0  0  0
    3.3099    3.1444    0.0000 H   0  0  0  0  0  0  0  0  0  0  0  0
    2.5286    3.5425    0.0000 H   0  0  0  0  0  0  0  0  0  0  0  0
    2.1306    2.7613    0.0000 H   0  0  0  0  0  0  0  0  0  0  0  0
    1.5392   -0.0207    0.0000 H   0  0  0  0  0  0  0  0  0  0  0  0
    1.5852   -0.8963    0.0000 H   0  0  0  0  0  0  0  0  0  0  0  0
    2.4608   -0.8504    0.0000 H   0  0  0  0  0  0  0  0  0  0  0  0
    6.1036   -3.5729    0.0000 H   0  0  0  0  0  0  0  0  0  0  0  0
  1 15  1  0  0  0  0
  2  6  1  0  0  0  0
  2 10  1  0  0  0  0
  3 16  1  0  0  0  0
  4  9  2  0  0  0  0
  5  6  1  0  0  0  0
  5  7  1  0  0  0  0
  5  9  1  0  0  0  0
  6  8  1  0  0  0  0
  6 23  1  0  0  0  0
  7 11  2  0  0  0  0
  7 12  1  0  0  0  0
  8 15  1  0  0  0  0
  8 16  2  0  0  0  0
  9 10  1  0  0  0  0
 10 24  1  0  0  0  0
 10 25  1  0  0  0  0
 11 13  1  0  0  0  0
 11 26  1  0  0  0  0
 12 14  2  0  0  0  0
 12 27  1  0  0  0  0
 13 17  2  0  0  0  0
 13 20  1  0  0  0  0
 14 17  1  0  0  0  0
 14 21  1  0  0  0  0
 15 18  2  0  0  0  0
 16 19  1  0  0  0  0
 17 28  1  0  0  0  0
 18 22  1  0  0  0  0
 18 29  1  0  0  0  0
 19 22  2  0  0  0  0
 19 30  1  0  0  0  0
 20 31  1  0  0  0  0
 20 32  1  0  0  0  0
 20 33  1  0  0  0  0
 21 34  1  0  0  0  0
 21 35  1  0  0  0  0
 21 36  1  0  0  0  0
 22 37  1  0  0  0  0
M  END
> <PUBCHEM_COMPOUND_CID>
503765
> <PUBCHEM_COMPOUND_CANONICALIZED>
1
> <PUBCHEM_CACTVS_COMPLEXITY>
414
> <PUBCHEM_CACTVS_HBOND_ACCEPTOR>
3
> <PUBCHEM_CACTVS_HBOND_DONOR>
0
> <PUBCHEM_CACTVS_ROTATABLE_BOND>
2
> <PUBCHEM_CACTVS_SUBSKEYS>
AAADccB6IQBEAAAAAAAAAAAAAAAAAWAAAAAwYAAAAAAAAAABQAAAHwYAAAAADArF2CyywIMAAAiIAiVSUACCAABhBxAIiAAIZogIICLhk5GEIAhghgDoyAcQgEAOAAACQAABAAAAAASAAAIAAAAAAAAAAA==
> <PUBCHEM_IUPAC_OPENEYE_NAME>
2-(2-chloro-6-fluoro-phenyl)-3-(3,5-dimethylphenyl)thiazolidin-4-one
> <PUBCHEM_IUPAC_CAS_NAME>
2-(2-chloro-6-fluorophenyl)-3-(3,5-dimethylphenyl)-4-thiazolidinone
> <PUBCHEM_IUPAC_NAME_MARKUP>
2-(2-chloro-6-fluorophenyl)-3-(3,5-dimethylphenyl)-1,3-thiazolidin-4-one
> <PUBCHEM_IUPAC_NAME>
2-(2-chloro-6-fluorophenyl)-3-(3,5-dimethylphenyl)-1,3-thiazolidin-4-one
> <PUBCHEM_IUPAC_SYSTEMATIC_NAME>
2-(2-chloranyl-6-fluoranyl-phenyl)-3-(3,5-dimethylphenyl)-1,3-thiazolidin-4-one
> <PUBCHEM_IUPAC_TRADITIONAL_NAME>
2-(2-chloro-6-fluoro-phenyl)-3-(3,5-dimethylphenyl)thiazolidin-4-one
> <PUBCHEM_IUPAC_INCHI>
InChI=1S/C17H15ClFNOS/c1-10-6-11(2)8-12(7-10)20-15(21)9-22-17(20)16-13(18)4-3-5-14(16)19/h3-8,17H,9H2,1-2H3
> <PUBCHEM_IUPAC_INCHIKEY>
HSAYXNQOZWECCH-UHFFFAOYSA-N
> <PUBCHEM_XLOGP3_AA>
4.8
> <PUBCHEM_EXACT_MASS>
335.0546911
> <PUBCHEM_MOLECULAR_FORMULA>
C17H15ClFNOS
> <PUBCHEM_MOLECULAR_WEIGHT>
335.8
> <PUBCHEM_OPENEYE_CAN_SMILES>
CC1=CC(=CC(=C1)N2C(SCC2=O)C3=C(C=CC=C3Cl)F)C
> <PUBCHEM_OPENEYE_ISO_SMILES>
CC1=CC(=CC(=C1)N2C(SCC2=O)C3=C(C=CC=C3Cl)F)C
> <PUBCHEM_CACTVS_TPSA>
45.6
> <PUBCHEM_MONOISOTOPIC_WEIGHT>
335.0546911
> <PUBCHEM_TOTAL_CHARGE>
0
> <PUBCHEM_HEAVY_ATOM_COUNT>
22
> <PUBCHEM_ATOM_DEF_STEREO_COUNT>
0
> <PUBCHEM_ATOM_UDEF_STEREO_COUNT>
1
> <PUBCHEM_BOND_DEF_STEREO_COUNT>
0
> <PUBCHEM_BOND_UDEF_STEREO_COUNT>
0
> <PUBCHEM_ISOTOPIC_ATOM_COUNT>
0
> <PUBCHEM_COMPONENT_COUNT>
1
> <PUBCHEM_CACTVS_TAUTO_COUNT>
-1
> <PUBCHEM_COORDINATE_TYPE>
1
5
255
> <PUBCHEM_BONDANNOTATIONS>
11  13  8
12  14  8
13  17  8
14  17  8
15  18  8
16  19  8
18  22  8
19  22  8
6  8  3
7  11  8
7  12  8
8  15  8
8  16  8
$$$$
