503723
  -OEChem-10302200282D
 90 94  0     1  0  0  0  0  0999 V2000
   11.5743   -2.3407    0.0000 S   0  0  0  0  0  0  0  0  0  0  0  0
   13.2369   -2.9822    0.0000 S   0  0  0  0  0  0  0  0  0  0  0  0
    7.6138   -0.5202    0.0000 O   0  0  0  0  0  0  0  0  0  0  0  0
    6.2619   -1.9436    0.0000 O   0  0  0  0  0  0  0  0  0  0  0  0
   10.1921    1.7933    0.0000 O   0  0  0  0  0  0  0  0  0  0  0  0
   10.8300   -3.0085    0.0000 O   0  0  0  0  0  0  0  0  0  0  0  0
   12.3186   -1.6728    0.0000 O   0  0  0  0  0  0  0  0  0  0  0  0
    6.6353   -0.7264    0.0000 O   0  0  0  0  0  0  0  0  0  0  0  0
    9.5708   -0.1078    0.0000 N   0  0  3  0  0  0  0  0  0  0  0  0
   10.9065   -1.5964    0.0000 N   0  0  3  0  0  0  0  0  0  0  0  0
    4.9889   -0.1883    0.0000 N   0  0  0  0  0  0  0  0  0  0  0  0
   11.8385    1.2552    0.0000 N   0  0  0  0  0  0  0  0  0  0  0  0
   10.5493    0.0984    0.0000 C   0  0  1  0  0  0  0  0  0  0  0  0
   11.2171   -0.6459    0.0000 C   0  0  0  0  0  0  0  0  0  0  0  0
    9.2601   -1.0583    0.0000 C   0  0  0  0  0  0  0  0  0  0  0  0
    8.9030    0.6365    0.0000 C   0  0  0  0  0  0  0  0  0  0  0  0
    9.9280   -1.8026    0.0000 C   0  0  0  0  0  0  0  0  0  0  0  0
    7.9244    0.4303    0.0000 C   0  0  2  0  0  0  0  0  0  0  0  0
    7.2566    1.1746    0.0000 C   0  0  0  0  0  0  0  0  0  0  0  0
    6.2781    0.9684    0.0000 C   0  0  1  0  0  0  0  0  0  0  0  0
    4.6783   -1.1389    0.0000 C   0  0  2  0  0  0  0  0  0  0  0  0
   10.8600    1.0490    0.0000 C   0  0  0  0  0  0  0  0  0  0  0  0
    5.2619   -1.9436    0.0000 C   0  0  1  0  0  0  0  0  0  0  0  0
    4.6783   -2.7483    0.0000 C   0  0  0  0  0  0  0  0  0  0  0  0
    3.7320   -1.4436    0.0000 C   0  0  0  0  0  0  0  0  0  0  0  0
    5.9674    0.0179    0.0000 C   0  0  0  0  0  0  0  0  0  0  0  0
    5.6103    1.7127    0.0000 C   0  0  0  0  0  0  0  0  0  0  0  0
    3.7320   -2.4436    0.0000 C   0  0  0  0  0  0  0  0  0  0  0  0
   12.5063    0.5109    0.0000 C   0  0  0  0  0  0  0  0  0  0  0  0
   12.2422   -3.0850    0.0000 C   0  0  0  0  0  0  0  0  0  0  0  0
    2.8660   -0.9436    0.0000 C   0  0  0  0  0  0  0  0  0  0  0  0
    5.9209    2.6632    0.0000 C   0  0  0  0  0  0  0  0  0  0  0  0
    2.8660   -2.9436    0.0000 C   0  0  0  0  0  0  0  0  0  0  0  0
   13.1742   -0.2334    0.0000 C   0  0  0  0  0  0  0  0  0  0  0  0
   13.2506    1.1787    0.0000 C   0  0  0  0  0  0  0  0  0  0  0  0
   11.7620   -0.1570    0.0000 C   0  0  0  0  0  0  0  0  0  0  0  0
    2.0000   -1.4436    0.0000 C   0  0  0  0  0  0  0  0  0  0  0  0
    2.0000   -2.4436    0.0000 C   0  0  0  0  0  0  0  0  0  0  0  0
   12.0326   -4.0628    0.0000 C   0  0  0  0  0  0  0  0  0  0  0  0
    5.2531    3.4075    0.0000 C   0  0  0  0  0  0  0  0  0  0  0  0
    6.8994    2.8694    0.0000 C   0  0  0  0  0  0  0  0  0  0  0  0
   12.8977   -4.5643    0.0000 C   0  0  0  0  0  0  0  0  0  0  0  0
   13.6420   -3.8964    0.0000 C   0  0  0  0  0  0  0  0  0  0  0  0
    5.5637    4.3580    0.0000 C   0  0  0  0  0  0  0  0  0  0  0  0
    7.2101    3.8200    0.0000 C   0  0  0  0  0  0  0  0  0  0  0  0
    6.5422    4.5643    0.0000 C   0  0  0  0  0  0  0  0  0  0  0  0
   10.1352    0.5599    0.0000 H   0  0  0  0  0  0  0  0  0  0  0  0
   11.7641   -0.9379    0.0000 H   0  0  0  0  0  0  0  0  0  0  0  0
   11.5997   -0.1579    0.0000 H   0  0  0  0  0  0  0  0  0  0  0  0
    8.7132   -0.7663    0.0000 H   0  0  0  0  0  0  0  0  0  0  0  0
    8.8776   -1.5462    0.0000 H   0  0  0  0  0  0  0  0  0  0  0  0
    9.4293    0.9642    0.0000 H   0  0  0  0  0  0  0  0  0  0  0  0
    8.6717    1.2118    0.0000 H   0  0  0  0  0  0  0  0  0  0  0  0
    9.4016   -2.1302    0.0000 H   0  0  0  0  0  0  0  0  0  0  0  0
   10.1592   -2.3778    0.0000 H   0  0  0  0  0  0  0  0  0  0  0  0
    8.3385   -0.0312    0.0000 H   0  0  0  0  0  0  0  0  0  0  0  0
    7.7830    1.5023    0.0000 H   0  0  0  0  0  0  0  0  0  0  0  0
    7.0254    1.7499    0.0000 H   0  0  0  0  0  0  0  0  0  0  0  0
    6.4707    1.5577    0.0000 H   0  0  0  0  0  0  0  0  0  0  0  0
    5.2908   -1.0427    0.0000 H   0  0  0  0  0  0  0  0  0  0  0  0
    5.5436   -2.4959    0.0000 H   0  0  0  0  0  0  0  0  0  0  0  0
    4.4272   -3.3152    0.0000 H   0  0  0  0  0  0  0  0  0  0  0  0
    5.2156   -3.0576    0.0000 H   0  0  0  0  0  0  0  0  0  0  0  0
    5.0633    2.0047    0.0000 H   0  0  0  0  0  0  0  0  0  0  0  0
    5.2277    1.2248    0.0000 H   0  0  0  0  0  0  0  0  0  0  0  0
    4.5749    0.2731    0.0000 H   0  0  0  0  0  0  0  0  0  0  0  0
   12.0311    1.8445    0.0000 H   0  0  0  0  0  0  0  0  0  0  0  0
    8.0279   -0.9817    0.0000 H   0  0  0  0  0  0  0  0  0  0  0  0
    2.8660   -0.3236    0.0000 H   0  0  0  0  0  0  0  0  0  0  0  0
    2.8660   -3.5636    0.0000 H   0  0  0  0  0  0  0  0  0  0  0  0
   12.7127   -0.6475    0.0000 H   0  0  0  0  0  0  0  0  0  0  0  0
   13.5882   -0.6949    0.0000 H   0  0  0  0  0  0  0  0  0  0  0  0
   13.6356    0.1806    0.0000 H   0  0  0  0  0  0  0  0  0  0  0  0
   13.6647    0.7173    0.0000 H   0  0  0  0  0  0  0  0  0  0  0  0
   13.7121    1.5928    0.0000 H   0  0  0  0  0  0  0  0  0  0  0  0
   12.8366    1.6402    0.0000 H   0  0  0  0  0  0  0  0  0  0  0  0
   11.3480    0.3045    0.0000 H   0  0  0  0  0  0  0  0  0  0  0  0
   11.3005   -0.5710    0.0000 H   0  0  0  0  0  0  0  0  0  0  0  0
   12.1761   -0.6184    0.0000 H   0  0  0  0  0  0  0  0  0  0  0  0
    6.5719   -2.4805    0.0000 H   0  0  0  0  0  0  0  0  0  0  0  0
    1.4631   -1.1336    0.0000 H   0  0  0  0  0  0  0  0  0  0  0  0
    1.4631   -2.7536    0.0000 H   0  0  0  0  0  0  0  0  0  0  0  0
   11.4657   -4.3140    0.0000 H   0  0  0  0  0  0  0  0  0  0  0  0
    4.6464    3.2797    0.0000 H   0  0  0  0  0  0  0  0  0  0  0  0
    7.3135    2.4080    0.0000 H   0  0  0  0  0  0  0  0  0  0  0  0
   12.9615   -5.1810    0.0000 H   0  0  0  0  0  0  0  0  0  0  0  0
   14.2483   -4.0264    0.0000 H   0  0  0  0  0  0  0  0  0  0  0  0
    5.1497    4.8195    0.0000 H   0  0  0  0  0  0  0  0  0  0  0  0
    7.8168    3.9478    0.0000 H   0  0  0  0  0  0  0  0  0  0  0  0
    6.7349    5.1536    0.0000 H   0  0  0  0  0  0  0  0  0  0  0  0
  1  6  2  0  0  0  0
  1  7  2  0  0  0  0
  1 10  1  0  0  0  0
  1 30  1  0  0  0  0
  2 30  1  0  0  0  0
  2 43  1  0  0  0  0
 18  3  1  1  0  0  0
  3 68  1  0  0  0  0
 23  4  1  6  0  0  0
  4 80  1  0  0  0  0
  5 22  2  0  0  0  0
  8 26  2  0  0  0  0
  9 13  1  0  0  0  0
  9 15  1  0  0  0  0
  9 16  1  0  0  0  0
 10 14  1  0  0  0  0
 10 17  1  0  0  0  0
 21 11  1  6  0  0  0
 11 26  1  0  0  0  0
 11 66  1  0  0  0  0
 12 22  1  0  0  0  0
 12 29  1  0  0  0  0
 12 67  1  0  0  0  0
 13 14  1  0  0  0  0
 13 22  1  6  0  0  0
 13 47  1  0  0  0  0
 14 48  1  0  0  0  0
 14 49  1  0  0  0  0
 15 17  1  0  0  0  0
 15 50  1  0  0  0  0
 15 51  1  0  0  0  0
 16 18  1  0  0  0  0
 16 52  1  0  0  0  0
 16 53  1  0  0  0  0
 17 54  1  0  0  0  0
 17 55  1  0  0  0  0
 18 19  1  0  0  0  0
 18 56  1  0  0  0  0
 20 19  1  1  0  0  0
 19 57  1  0  0  0  0
 19 58  1  0  0  0  0
 20 26  1  0  0  0  0
 20 27  1  0  0  0  0
 20 59  1  0  0  0  0
 21 23  1  0  0  0  0
 21 25  1  0  0  0  0
 21 60  1  0  0  0  0
 23 24  1  0  0  0  0
 23 61  1  0  0  0  0
 24 28  1  0  0  0  0
 24 62  1  0  0  0  0
 24 63  1  0  0  0  0
 25 28  1  0  0  0  0
 25 31  2  0  0  0  0
 27 32  1  0  0  0  0
 27 64  1  0  0  0  0
 27 65  1  0  0  0  0
 28 33  2  0  0  0  0
 29 34  1  0  0  0  0
 29 35  1  0  0  0  0
 29 36  1  0  0  0  0
 30 39  2  0  0  0  0
 31 37  1  0  0  0  0
 31 69  1  0  0  0  0
 32 40  2  0  0  0  0
 32 41  1  0  0  0  0
 33 38  1  0  0  0  0
 33 70  1  0  0  0  0
 34 71  1  0  0  0  0
 34 72  1  0  0  0  0
 34 73  1  0  0  0  0
 35 74  1  0  0  0  0
 35 75  1  0  0  0  0
 35 76  1  0  0  0  0
 36 77  1  0  0  0  0
 36 78  1  0  0  0  0
 36 79  1  0  0  0  0
 37 38  2  0  0  0  0
 37 81  1  0  0  0  0
 38 82  1  0  0  0  0
 39 42  1  0  0  0  0
 39 83  1  0  0  0  0
 40 44  1  0  0  0  0
 40 84  1  0  0  0  0
 41 45  2  0  0  0  0
 41 85  1  0  0  0  0
 42 43  2  0  0  0  0
 42 86  1  0  0  0  0
 43 87  1  0  0  0  0
 44 46  2  0  0  0  0
 44 88  1  0  0  0  0
 45 46  1  0  0  0  0
 45 89  1  0  0  0  0
 46 90  1  0  0  0  0
M  END
> <PUBCHEM_COMPOUND_CID>
503723
> <PUBCHEM_COMPOUND_CANONICALIZED>
1
> <PUBCHEM_CACTVS_COMPLEXITY>
1140
> <PUBCHEM_CACTVS_HBOND_ACCEPTOR>
9
> <PUBCHEM_CACTVS_HBOND_DONOR>
4
> <PUBCHEM_CACTVS_ROTATABLE_BOND>
12
> <PUBCHEM_CACTVS_SUBSKEYS>
AAADcfB/uABgAAAAAAAAAAAAAAAAAaIAAAA8YIAAAAAAAGAB0AAAHgQQSAAADbzl2AayAYPAAgqMAiFSEHDDAZAgCBBIiJmIBIgKcDqg0TGUYAhk1gG4iAe62fKOgAAAAAAQAAAAAAAAACAAAKAACQgAAA==
> <PUBCHEM_IUPAC_OPENEYE_NAME>
(2S)-1-[(2S,4S)-4-benzyl-2-hydroxy-5-[[(1S,2R)-2-hydroxyindan-1-yl]amino]-5-oxo-pentyl]-N-tert-butyl-4-(2-thienylsulfonyl)piperazine-2-carboxamide
> <PUBCHEM_IUPAC_CAS_NAME>
(2S)-N-tert-butyl-1-[(2S,4S)-2-hydroxy-5-[[(1S,2R)-2-hydroxy-2,3-dihydro-1H-inden-1-yl]amino]-5-oxo-4-(phenylmethyl)pentyl]-4-thiophen-2-ylsulfonyl-2-piperazinecarboxamide
> <PUBCHEM_IUPAC_NAME_MARKUP>
(2<I>S</I>)-1-[(2<I>S</I>,4<I>S</I>)-4-benzyl-2-hydroxy-5-[[(1<I>S</I>,2<I>R</I>)-2-hydroxy-2,3-dihydro-1<I>H</I>-inden-1-yl]amino]-5-oxopentyl]-<I>N</I>-<I>tert</I>-butyl-4-thiophen-2-ylsulfonylpiperazine-2-carboxamide
> <PUBCHEM_IUPAC_NAME>
(2S)-1-[(2S,4S)-4-benzyl-2-hydroxy-5-[[(1S,2R)-2-hydroxy-2,3-dihydro-1H-inden-1-yl]amino]-5-oxopentyl]-N-tert-butyl-4-thiophen-2-ylsulfonylpiperazine-2-carboxamide
> <PUBCHEM_IUPAC_SYSTEMATIC_NAME>
(2S)-N-tert-butyl-1-[(2S,4S)-2-oxidanyl-5-[[(1S,2R)-2-oxidanyl-2,3-dihydro-1H-inden-1-yl]amino]-5-oxidanylidene-4-(phenylmethyl)pentyl]-4-thiophen-2-ylsulfonyl-piperazine-2-carboxamide
> <PUBCHEM_IUPAC_TRADITIONAL_NAME>
(2S)-1-[(2S,4S)-4-benzyl-2-hydroxy-5-[[(1S,2R)-2-hydroxyindan-1-yl]amino]-5-keto-pentyl]-N-tert-butyl-4-(2-thienylsulfonyl)piperazine-2-carboxamide
> <PUBCHEM_IUPAC_INCHI>
InChI=1S/C34H44N4O6S2/c1-34(2,3)36-33(42)28-22-38(46(43,44)30-14-9-17-45-30)16-15-37(28)21-26(39)19-25(18-23-10-5-4-6-11-23)32(41)35-31-27-13-8-7-12-24(27)20-29(31)40/h4-14,17,25-26,28-29,31,39-40H,15-16,18-22H2,1-3H3,(H,35,41)(H,36,42)/t25-,26-,28-,29+,31-/m0/s1
> <PUBCHEM_IUPAC_INCHIKEY>
DUBLLIBPEZQWQP-YUGWKFLNSA-N
> <PUBCHEM_XLOGP3_AA>
3.2
> <PUBCHEM_EXACT_MASS>
668.27022748
> <PUBCHEM_MOLECULAR_FORMULA>
C34H44N4O6S2
> <PUBCHEM_MOLECULAR_WEIGHT>
668.9
> <PUBCHEM_OPENEYE_CAN_SMILES>
CC(C)(C)NC(=O)C1CN(CCN1CC(CC(CC2=CC=CC=C2)C(=O)NC3C(CC4=CC=CC=C34)O)O)S(=O)(=O)C5=CC=CS5
> <PUBCHEM_OPENEYE_ISO_SMILES>
CC(C)(C)NC(=O)[C@@H]1CN(CCN1C[C@H](C[C@H](CC2=CC=CC=C2)C(=O)N[C@@H]3[C@@H](CC4=CC=CC=C34)O)O)S(=O)(=O)C5=CC=CS5
> <PUBCHEM_CACTVS_TPSA>
176
> <PUBCHEM_MONOISOTOPIC_WEIGHT>
668.27022748
> <PUBCHEM_TOTAL_CHARGE>
0
> <PUBCHEM_HEAVY_ATOM_COUNT>
46
> <PUBCHEM_ATOM_DEF_STEREO_COUNT>
5
> <PUBCHEM_ATOM_UDEF_STEREO_COUNT>
0
> <PUBCHEM_BOND_DEF_STEREO_COUNT>
0
> <PUBCHEM_BOND_UDEF_STEREO_COUNT>
0
> <PUBCHEM_ISOTOPIC_ATOM_COUNT>
0
> <PUBCHEM_COMPONENT_COUNT>
1
> <PUBCHEM_CACTVS_TAUTO_COUNT>
-1
> <PUBCHEM_COORDINATE_TYPE>
1
5
255
> <PUBCHEM_BONDANNOTATIONS>
21  11  6
13  22  6
20  19  5
2  30  8
2  43  8
25  28  8
25  31  8
28  33  8
18  3  5
30  39  8
31  37  8
32  40  8
32  41  8
33  38  8
37  38  8
39  42  8
23  4  6
40  44  8
41  45  8
42  43  8
44  46  8
45  46  8
$$$$
