503720
  -OEChem-10302200282D
109114  0     1  0  0  0  0  0999 V2000
   11.5263   -1.5768    0.0000 S   0  0  0  0  0  0  0  0  0  0  0  0
    7.1962   -1.0768    0.0000 O   0  0  0  0  0  0  0  0  0  0  0  0
   11.0263   -2.4429    0.0000 O   0  0  0  0  0  0  0  0  0  0  0  0
   12.0263   -0.7108    0.0000 O   0  0  0  0  0  0  0  0  0  0  0  0
   10.6603    1.9232    0.0000 O   0  0  0  0  0  0  0  0  0  0  0  0
    3.7320   -0.0769    0.0000 O   0  0  0  0  0  0  0  0  0  0  0  0
    3.7320    5.9232    0.0000 O   0  0  0  0  0  0  0  0  0  0  0  0
    8.9282   -0.0769    0.0000 N   0  0  3  0  0  0  0  0  0  0  0  0
   10.6603   -1.0768    0.0000 N   0  0  3  0  0  0  0  0  0  0  0  0
    8.9282    1.9232    0.0000 N   0  0  0  0  0  0  0  0  0  0  0  0
   15.0706   -3.3816    0.0000 N   0  0  0  0  0  0  0  0  0  0  0  0
    4.5981    1.4232    0.0000 N   0  0  0  0  0  0  0  0  0  0  0  0
   14.7134   -5.0764    0.0000 N   0  0  0  0  0  0  0  0  0  0  0  0
   16.3597   -4.5383    0.0000 N   0  0  0  0  0  0  0  0  0  0  0  0
    9.7942    0.4231    0.0000 C   0  0  1  0  0  0  0  0  0  0  0  0
   10.6603   -0.0769    0.0000 C   0  0  0  0  0  0  0  0  0  0  0  0
    8.9282   -1.0768    0.0000 C   0  0  0  0  0  0  0  0  0  0  0  0
    9.7942   -1.5768    0.0000 C   0  0  0  0  0  0  0  0  0  0  0  0
    8.0622    0.4231    0.0000 C   0  0  0  0  0  0  0  0  0  0  0  0
    7.1962   -0.0769    0.0000 C   0  0  2  0  0  0  0  0  0  0  0  0
    9.7942    1.4232    0.0000 C   0  0  0  0  0  0  0  0  0  0  0  0
    6.3301    0.4231    0.0000 C   0  0  0  0  0  0  0  0  0  0  0  0
    5.4641   -0.0769    0.0000 C   0  0  2  0  0  0  0  0  0  0  0  0
   12.3923   -2.0768    0.0000 C   0  0  0  0  0  0  0  0  0  0  0  0
    8.9282    2.9232    0.0000 C   0  0  0  0  0  0  0  0  0  0  0  0
    5.4641   -1.0768    0.0000 C   0  0  0  0  0  0  0  0  0  0  0  0
   14.1244   -2.0768    0.0000 C   0  0  0  0  0  0  0  0  0  0  0  0
   13.2583   -1.5768    0.0000 C   0  0  0  0  0  0  0  0  0  0  0  0
   14.1244   -3.0768    0.0000 C   0  0  0  0  0  0  0  0  0  0  0  0
   12.3923   -3.0768    0.0000 C   0  0  0  0  0  0  0  0  0  0  0  0
   15.0706   -1.7721    0.0000 C   0  0  0  0  0  0  0  0  0  0  0  0
    4.5981    0.4231    0.0000 C   0  0  0  0  0  0  0  0  0  0  0  0
   15.6542   -2.5768    0.0000 C   0  0  0  0  0  0  0  0  0  0  0  0
    8.9282    3.9232    0.0000 C   0  0  0  0  0  0  0  0  0  0  0  0
    7.9282    2.9232    0.0000 C   0  0  0  0  0  0  0  0  0  0  0  0
    9.9282    2.9232    0.0000 C   0  0  0  0  0  0  0  0  0  0  0  0
   13.2583   -3.5768    0.0000 C   0  0  0  0  0  0  0  0  0  0  0  0
    4.5981   -1.5768    0.0000 C   0  0  0  0  0  0  0  0  0  0  0  0
   15.3812   -4.3321    0.0000 C   0  0  0  0  0  0  0  0  0  0  0  0
    3.7320    1.9232    0.0000 C   0  0  0  0  0  0  0  0  0  0  0  0
    4.5981   -2.5768    0.0000 C   0  0  0  0  0  0  0  0  0  0  0  0
    3.7320   -1.0768    0.0000 C   0  0  0  0  0  0  0  0  0  0  0  0
    3.7320    2.9232    0.0000 C   0  0  0  0  0  0  0  0  0  0  0  0
    3.7320   -3.0768    0.0000 C   0  0  0  0  0  0  0  0  0  0  0  0
    2.8660   -1.5768    0.0000 C   0  0  0  0  0  0  0  0  0  0  0  0
    2.8660   -2.5768    0.0000 C   0  0  0  0  0  0  0  0  0  0  0  0
    2.8660    3.4232    0.0000 C   0  0  0  0  0  0  0  0  0  0  0  0
    4.5981    3.4232    0.0000 C   0  0  0  0  0  0  0  0  0  0  0  0
   15.0241   -6.0269    0.0000 C   0  0  0  0  0  0  0  0  0  0  0  0
   16.6704   -5.4888    0.0000 C   0  0  0  0  0  0  0  0  0  0  0  0
    2.8660    4.4232    0.0000 C   0  0  0  0  0  0  0  0  0  0  0  0
    4.5981    4.4232    0.0000 C   0  0  0  0  0  0  0  0  0  0  0  0
   16.0026   -6.2332    0.0000 C   0  0  0  0  0  0  0  0  0  0  0  0
    2.0000    2.9232    0.0000 C   0  0  0  0  0  0  0  0  0  0  0  0
    5.4641    2.9232    0.0000 C   0  0  0  0  0  0  0  0  0  0  0  0
    3.7320    4.9232    0.0000 C   0  0  0  0  0  0  0  0  0  0  0  0
    9.2573    0.7331    0.0000 H   0  0  0  0  0  0  0  0  0  0  0  0
   11.2708   -0.1845    0.0000 H   0  0  0  0  0  0  0  0  0  0  0  0
   10.8723    0.5058    0.0000 H   0  0  0  0  0  0  0  0  0  0  0  0
    8.3176   -0.9692    0.0000 H   0  0  0  0  0  0  0  0  0  0  0  0
    8.7162   -1.6595    0.0000 H   0  0  0  0  0  0  0  0  0  0  0  0
    9.3957   -2.0518    0.0000 H   0  0  0  0  0  0  0  0  0  0  0  0
   10.1928   -2.0518    0.0000 H   0  0  0  0  0  0  0  0  0  0  0  0
    8.4607    0.8981    0.0000 H   0  0  0  0  0  0  0  0  0  0  0  0
    7.6636    0.8981    0.0000 H   0  0  0  0  0  0  0  0  0  0  0  0
    6.6592   -0.3869    0.0000 H   0  0  0  0  0  0  0  0  0  0  0  0
    6.7287    0.8981    0.0000 H   0  0  0  0  0  0  0  0  0  0  0  0
    5.9316    0.8981    0.0000 H   0  0  0  0  0  0  0  0  0  0  0  0
    5.4641    0.5431    0.0000 H   0  0  0  0  0  0  0  0  0  0  0  0
    8.3913    1.6132    0.0000 H   0  0  0  0  0  0  0  0  0  0  0  0
    5.6762   -1.6595    0.0000 H   0  0  0  0  0  0  0  0  0  0  0  0
    6.0747   -0.9692    0.0000 H   0  0  0  0  0  0  0  0  0  0  0  0
   13.2583   -0.9569    0.0000 H   0  0  0  0  0  0  0  0  0  0  0  0
    6.6592   -1.3868    0.0000 H   0  0  0  0  0  0  0  0  0  0  0  0
   11.8554   -3.3868    0.0000 H   0  0  0  0  0  0  0  0  0  0  0  0
   15.6080   -1.4629    0.0000 H   0  0  0  0  0  0  0  0  0  0  0  0
   14.8195   -1.2052    0.0000 H   0  0  0  0  0  0  0  0  0  0  0  0
   16.1151   -2.9916    0.0000 H   0  0  0  0  0  0  0  0  0  0  0  0
   16.1151   -2.1621    0.0000 H   0  0  0  0  0  0  0  0  0  0  0  0
    9.5482    3.9232    0.0000 H   0  0  0  0  0  0  0  0  0  0  0  0
    8.9282    4.5432    0.0000 H   0  0  0  0  0  0  0  0  0  0  0  0
    8.3082    3.9232    0.0000 H   0  0  0  0  0  0  0  0  0  0  0  0
    7.9282    3.5432    0.0000 H   0  0  0  0  0  0  0  0  0  0  0  0
    7.3082    2.9232    0.0000 H   0  0  0  0  0  0  0  0  0  0  0  0
    7.9282    2.3032    0.0000 H   0  0  0  0  0  0  0  0  0  0  0  0
    9.9282    2.3032    0.0000 H   0  0  0  0  0  0  0  0  0  0  0  0
   10.5482    2.9232    0.0000 H   0  0  0  0  0  0  0  0  0  0  0  0
    9.9282    3.5432    0.0000 H   0  0  0  0  0  0  0  0  0  0  0  0
   13.2583   -4.1969    0.0000 H   0  0  0  0  0  0  0  0  0  0  0  0
    5.1350    1.7332    0.0000 H   0  0  0  0  0  0  0  0  0  0  0  0
    3.1215    2.0308    0.0000 H   0  0  0  0  0  0  0  0  0  0  0  0
    3.5200    1.3405    0.0000 H   0  0  0  0  0  0  0  0  0  0  0  0
    5.1350   -2.8868    0.0000 H   0  0  0  0  0  0  0  0  0  0  0  0
    3.7320   -0.4569    0.0000 H   0  0  0  0  0  0  0  0  0  0  0  0
    3.7320   -3.6968    0.0000 H   0  0  0  0  0  0  0  0  0  0  0  0
    2.3291   -1.2668    0.0000 H   0  0  0  0  0  0  0  0  0  0  0  0
    2.3291   -2.8868    0.0000 H   0  0  0  0  0  0  0  0  0  0  0  0
   14.6100   -6.4884    0.0000 H   0  0  0  0  0  0  0  0  0  0  0  0
   17.2771   -5.6167    0.0000 H   0  0  0  0  0  0  0  0  0  0  0  0
    2.3291    4.7332    0.0000 H   0  0  0  0  0  0  0  0  0  0  0  0
    5.1350    4.7332    0.0000 H   0  0  0  0  0  0  0  0  0  0  0  0
   16.1952   -6.8225    0.0000 H   0  0  0  0  0  0  0  0  0  0  0  0
    1.6900    3.4601    0.0000 H   0  0  0  0  0  0  0  0  0  0  0  0
    1.4631    2.6132    0.0000 H   0  0  0  0  0  0  0  0  0  0  0  0
    2.3100    2.3862    0.0000 H   0  0  0  0  0  0  0  0  0  0  0  0
    5.1541    2.3862    0.0000 H   0  0  0  0  0  0  0  0  0  0  0  0
    6.0010    2.6132    0.0000 H   0  0  0  0  0  0  0  0  0  0  0  0
    5.7741    3.4601    0.0000 H   0  0  0  0  0  0  0  0  0  0  0  0
    3.1951    6.2332    0.0000 H   0  0  0  0  0  0  0  0  0  0  0  0
  1  3  2  0  0  0  0
  1  4  2  0  0  0  0
  1  9  1  0  0  0  0
  1 24  1  0  0  0  0
 20  2  1  1  0  0  0
  2 74  1  0  0  0  0
  5 21  2  0  0  0  0
  6 32  2  0  0  0  0
  7 56  1  0  0  0  0
  7109  1  0  0  0  0
  8 15  1  0  0  0  0
  8 17  1  0  0  0  0
  8 19  1  0  0  0  0
  9 16  1  0  0  0  0
  9 18  1  0  0  0  0
 10 21  1  0  0  0  0
 10 25  1  0  0  0  0
 10 70  1  0  0  0  0
 11 29  1  0  0  0  0
 11 33  1  0  0  0  0
 11 39  1  0  0  0  0
 12 32  1  0  0  0  0
 12 40  1  0  0  0  0
 12 90  1  0  0  0  0
 13 39  2  0  0  0  0
 13 49  1  0  0  0  0
 14 39  1  0  0  0  0
 14 50  2  0  0  0  0
 15 16  1  0  0  0  0
 15 21  1  6  0  0  0
 15 57  1  0  0  0  0
 16 58  1  0  0  0  0
 16 59  1  0  0  0  0
 17 18  1  0  0  0  0
 17 60  1  0  0  0  0
 17 61  1  0  0  0  0
 18 62  1  0  0  0  0
 18 63  1  0  0  0  0
 19 20  1  0  0  0  0
 19 64  1  0  0  0  0
 19 65  1  0  0  0  0
 20 22  1  0  0  0  0
 20 66  1  0  0  0  0
 23 22  1  6  0  0  0
 22 67  1  0  0  0  0
 22 68  1  0  0  0  0
 23 26  1  0  0  0  0
 23 32  1  0  0  0  0
 23 69  1  0  0  0  0
 24 28  2  0  0  0  0
 24 30  1  0  0  0  0
 25 34  1  0  0  0  0
 25 35  1  0  0  0  0
 25 36  1  0  0  0  0
 26 38  1  0  0  0  0
 26 71  1  0  0  0  0
 26 72  1  0  0  0  0
 27 28  1  0  0  0  0
 27 29  2  0  0  0  0
 27 31  1  0  0  0  0
 28 73  1  0  0  0  0
 29 37  1  0  0  0  0
 30 37  2  0  0  0  0
 30 75  1  0  0  0  0
 31 33  1  0  0  0  0
 31 76  1  0  0  0  0
 31 77  1  0  0  0  0
 33 78  1  0  0  0  0
 33 79  1  0  0  0  0
 34 80  1  0  0  0  0
 34 81  1  0  0  0  0
 34 82  1  0  0  0  0
 35 83  1  0  0  0  0
 35 84  1  0  0  0  0
 35 85  1  0  0  0  0
 36 86  1  0  0  0  0
 36 87  1  0  0  0  0
 36 88  1  0  0  0  0
 37 89  1  0  0  0  0
 38 41  2  0  0  0  0
 38 42  1  0  0  0  0
 40 43  1  0  0  0  0
 40 91  1  0  0  0  0
 40 92  1  0  0  0  0
 41 44  1  0  0  0  0
 41 93  1  0  0  0  0
 42 45  2  0  0  0  0
 42 94  1  0  0  0  0
 43 47  2  0  0  0  0
 43 48  1  0  0  0  0
 44 46  2  0  0  0  0
 44 95  1  0  0  0  0
 45 46  1  0  0  0  0
 45 96  1  0  0  0  0
 46 97  1  0  0  0  0
 47 51  1  0  0  0  0
 47 54  1  0  0  0  0
 48 52  2  0  0  0  0
 48 55  1  0  0  0  0
 49 53  2  0  0  0  0
 49 98  1  0  0  0  0
 50 53  1  0  0  0  0
 50 99  1  0  0  0  0
 51 56  2  0  0  0  0
 51100  1  0  0  0  0
 52 56  1  0  0  0  0
 52101  1  0  0  0  0
 53102  1  0  0  0  0
 54103  1  0  0  0  0
 54104  1  0  0  0  0
 54105  1  0  0  0  0
 55106  1  0  0  0  0
 55107  1  0  0  0  0
 55108  1  0  0  0  0
M  END
> <PUBCHEM_COMPOUND_CID>
503720
> <PUBCHEM_COMPOUND_CANONICALIZED>
1
> <PUBCHEM_CACTVS_COMPLEXITY>
1380
> <PUBCHEM_CACTVS_HBOND_ACCEPTOR>
11
> <PUBCHEM_CACTVS_HBOND_DONOR>
4
> <PUBCHEM_CACTVS_ROTATABLE_BOND>
14
> <PUBCHEM_CACTVS_SUBSKEYS>
AAADcfB/uABAAAAAAAAAAAAAAAAAAWAAAAA8eMECAAAAAFgB1AAAHgQQSAAADbzh2gY/15fIEgKoAjV3dHDCgDkxIqAJ2Lm+bJiKfrrC2fOUdAhs1hPY2Ce62fKOoAQDgAASAABACAcAACQAAAAAAAAAAA==
> <PUBCHEM_IUPAC_OPENEYE_NAME>
(2S)-1-[(2S,4S)-4-benzyl-2-hydroxy-5-[(4-hydroxy-2,6-dimethyl-phenyl)methylamino]-5-oxo-pentyl]-N-tert-butyl-4-(1-pyrimidin-2-ylindolin-5-yl)sulfonyl-piperazine-2-carboxamide
> <PUBCHEM_IUPAC_CAS_NAME>
(2S)-N-tert-butyl-1-[(2S,4S)-2-hydroxy-5-[(4-hydroxy-2,6-dimethylphenyl)methylamino]-5-oxo-4-(phenylmethyl)pentyl]-4-[[1-(2-pyrimidinyl)-2,3-dihydroindol-5-yl]sulfonyl]-2-piperazinecarboxamide
> <PUBCHEM_IUPAC_NAME_MARKUP>
(2<I>S</I>)-1-[(2<I>S</I>,4<I>S</I>)-4-benzyl-2-hydroxy-5-[(4-hydroxy-2,6-dimethylphenyl)methylamino]-5-oxopentyl]-<I>N</I>-<I>tert</I>-butyl-4-[(1-pyrimidin-2-yl-2,3-dihydroindol-5-yl)sulfonyl]piperazine-2-carboxamide
> <PUBCHEM_IUPAC_NAME>
(2S)-1-[(2S,4S)-4-benzyl-2-hydroxy-5-[(4-hydroxy-2,6-dimethylphenyl)methylamino]-5-oxopentyl]-N-tert-butyl-4-[(1-pyrimidin-2-yl-2,3-dihydroindol-5-yl)sulfonyl]piperazine-2-carboxamide
> <PUBCHEM_IUPAC_SYSTEMATIC_NAME>
(2S)-N-tert-butyl-1-[(2S,4S)-5-[(2,6-dimethyl-4-oxidanyl-phenyl)methylamino]-2-oxidanyl-5-oxidanylidene-4-(phenylmethyl)pentyl]-4-[(1-pyrimidin-2-yl-2,3-dihydroindol-5-yl)sulfonyl]piperazine-2-carboxamide
> <PUBCHEM_IUPAC_TRADITIONAL_NAME>
(2S)-1-[(2S,4S)-4-benzyl-2-hydroxy-5-[(4-hydroxy-2,6-dimethyl-benzyl)amino]-5-keto-pentyl]-N-tert-butyl-4-[1-(2-pyrimidyl)indolin-5-yl]sulfonyl-piperazine-2-carboxamide
> <PUBCHEM_IUPAC_INCHI>
InChI=1S/C42H53N7O6S/c1-28-20-33(50)21-29(2)36(28)25-45-39(52)32(22-30-10-7-6-8-11-30)23-34(51)26-47-18-19-48(27-38(47)40(53)46-42(3,4)5)56(54,55)35-12-13-37-31(24-35)14-17-49(37)41-43-15-9-16-44-41/h6-13,15-16,20-21,24,32,34,38,50-51H,14,17-19,22-23,25-27H2,1-5H3,(H,45,52)(H,46,53)/t32-,34-,38-/m0/s1
> <PUBCHEM_IUPAC_INCHIKEY>
UPTRZAHECQTLFN-QRBHCBQLSA-N
> <PUBCHEM_XLOGP3_AA>
4.4
> <PUBCHEM_EXACT_MASS>
783.37780361
> <PUBCHEM_MOLECULAR_FORMULA>
C42H53N7O6S
> <PUBCHEM_MOLECULAR_WEIGHT>
784.0
> <PUBCHEM_OPENEYE_CAN_SMILES>
CC1=CC(=CC(=C1CNC(=O)C(CC2=CC=CC=C2)CC(CN3CCN(CC3C(=O)NC(C)(C)C)S(=O)(=O)C4=CC5=C(C=C4)N(CC5)C6=NC=CC=N6)O)C)O
> <PUBCHEM_OPENEYE_ISO_SMILES>
CC1=CC(=CC(=C1CNC(=O)[C@@H](CC2=CC=CC=C2)C[C@@H](CN3CCN(C[C@H]3C(=O)NC(C)(C)C)S(=O)(=O)C4=CC5=C(C=C4)N(CC5)C6=NC=CC=N6)O)C)O
> <PUBCHEM_CACTVS_TPSA>
177
> <PUBCHEM_MONOISOTOPIC_WEIGHT>
783.37780361
> <PUBCHEM_TOTAL_CHARGE>
0
> <PUBCHEM_HEAVY_ATOM_COUNT>
56
> <PUBCHEM_ATOM_DEF_STEREO_COUNT>
3
> <PUBCHEM_ATOM_UDEF_STEREO_COUNT>
0
> <PUBCHEM_BOND_DEF_STEREO_COUNT>
0
> <PUBCHEM_BOND_UDEF_STEREO_COUNT>
0
> <PUBCHEM_ISOTOPIC_ATOM_COUNT>
0
> <PUBCHEM_COMPONENT_COUNT>
1
> <PUBCHEM_CACTVS_TAUTO_COUNT>
-1
> <PUBCHEM_COORDINATE_TYPE>
1
5
255
> <PUBCHEM_BONDANNOTATIONS>
13  39  8
13  49  8
14  39  8
14  50  8
15  21  6
20  2  5
23  22  6
24  28  8
24  30  8
27  28  8
27  29  8
29  37  8
30  37  8
38  41  8
38  42  8
41  44  8
42  45  8
43  47  8
43  48  8
44  46  8
45  46  8
47  51  8
48  52  8
49  53  8
50  53  8
51  56  8
52  56  8
$$$$
