503721
  -OEChem-10302200282D
104108  0     1  0  0  0  0  0999 V2000
    6.3301   -3.0248    0.0000 S   0  0  0  0  0  0  0  0  0  0  0  0
    7.1391   -4.6126    0.0000 S   0  0  0  0  0  0  0  0  0  0  0  0
    9.9947   -6.9726    0.0000 S   0  0  0  0  0  0  0  0  0  0  0  0
    8.0622    0.9752    0.0000 O   0  0  0  0  0  0  0  0  0  0  0  0
    4.5981    0.9752    0.0000 O   0  0  0  0  0  0  0  0  0  0  0  0
    7.3301   -3.0248    0.0000 O   0  0  0  0  0  0  0  0  0  0  0  0
    5.3301   -3.0248    0.0000 O   0  0  0  0  0  0  0  0  0  0  0  0
    8.9282    4.4752    0.0000 O   0  0  0  0  0  0  0  0  0  0  0  0
    3.7320    7.4752    0.0000 O   0  0  0  0  0  0  0  0  0  0  0  0
    6.3301   -0.0248    0.0000 N   0  0  3  0  0  0  0  0  0  0  0  0
    6.3301   -2.0248    0.0000 N   0  0  3  0  0  0  0  0  0  0  0  0
    3.7320   -0.5248    0.0000 N   0  0  0  0  0  0  0  0  0  0  0  0
    7.1962    4.4752    0.0000 N   0  0  0  0  0  0  0  0  0  0  0  0
    8.4124   -6.2681    0.0000 N   0  0  0  0  0  0  0  0  0  0  0  0
    8.5935   -7.9907    0.0000 N   0  0  0  0  0  0  0  0  0  0  0  0
    5.4641   -0.5248    0.0000 C   0  0  1  0  0  0  0  0  0  0  0  0
    5.4641   -1.5248    0.0000 C   0  0  0  0  0  0  0  0  0  0  0  0
    7.1962   -0.5248    0.0000 C   0  0  0  0  0  0  0  0  0  0  0  0
    7.1962   -1.5248    0.0000 C   0  0  0  0  0  0  0  0  0  0  0  0
    6.3301    0.9752    0.0000 C   0  0  0  0  0  0  0  0  0  0  0  0
    7.1962    1.4752    0.0000 C   0  0  2  0  0  0  0  0  0  0  0  0
    4.5981   -0.0248    0.0000 C   0  0  0  0  0  0  0  0  0  0  0  0
    7.1962    2.4752    0.0000 C   0  0  0  0  0  0  0  0  0  0  0  0
    8.0622    2.9752    0.0000 C   0  0  1  0  0  0  0  0  0  0  0  0
    2.8660   -0.0248    0.0000 C   0  0  0  0  0  0  0  0  0  0  0  0
    8.9282    2.4752    0.0000 C   0  0  0  0  0  0  0  0  0  0  0  0
    6.3301   -4.0248    0.0000 C   0  0  0  0  0  0  0  0  0  0  0  0
    8.0622    3.9752    0.0000 C   0  0  0  0  0  0  0  0  0  0  0  0
    2.0000    0.4752    0.0000 C   0  0  0  0  0  0  0  0  0  0  0  0
    2.3660   -0.8908    0.0000 C   0  0  0  0  0  0  0  0  0  0  0  0
    3.3660    0.8412    0.0000 C   0  0  0  0  0  0  0  0  0  0  0  0
    9.7942    2.9752    0.0000 C   0  0  0  0  0  0  0  0  0  0  0  0
    5.5211   -4.6126    0.0000 C   0  0  0  0  0  0  0  0  0  0  0  0
    6.8301   -5.5636    0.0000 C   0  0  0  0  0  0  0  0  0  0  0  0
    5.8301   -5.5636    0.0000 C   0  0  0  0  0  0  0  0  0  0  0  0
    7.1962    5.4752    0.0000 C   0  0  0  0  0  0  0  0  0  0  0  0
    9.7942    3.9752    0.0000 C   0  0  0  0  0  0  0  0  0  0  0  0
   10.6603    2.4752    0.0000 C   0  0  0  0  0  0  0  0  0  0  0  0
    6.3301    5.9752    0.0000 C   0  0  0  0  0  0  0  0  0  0  0  0
    7.4179   -6.3726    0.0000 C   0  0  0  0  0  0  0  0  0  0  0  0
   10.6603    4.4752    0.0000 C   0  0  0  0  0  0  0  0  0  0  0  0
   11.5263    2.9752    0.0000 C   0  0  0  0  0  0  0  0  0  0  0  0
   11.5263    3.9752    0.0000 C   0  0  0  0  0  0  0  0  0  0  0  0
    5.4641    5.4752    0.0000 C   0  0  0  0  0  0  0  0  0  0  0  0
    6.3301    6.9752    0.0000 C   0  0  0  0  0  0  0  0  0  0  0  0
    7.0112   -7.2862    0.0000 C   0  0  0  0  0  0  0  0  0  0  0  0
    4.5981    5.9752    0.0000 C   0  0  0  0  0  0  0  0  0  0  0  0
    5.4641    7.4752    0.0000 C   0  0  0  0  0  0  0  0  0  0  0  0
    5.4641    4.4752    0.0000 C   0  0  0  0  0  0  0  0  0  0  0  0
    7.1962    7.4752    0.0000 C   0  0  0  0  0  0  0  0  0  0  0  0
    4.5981    6.9752    0.0000 C   0  0  0  0  0  0  0  0  0  0  0  0
    7.5990   -8.0952    0.0000 C   0  0  0  0  0  0  0  0  0  0  0  0
    9.0002   -7.0771    0.0000 C   0  0  0  0  0  0  0  0  0  0  0  0
   10.5825   -7.7816    0.0000 C   0  0  0  0  0  0  0  0  0  0  0  0
    5.4641    0.0952    0.0000 H   0  0  0  0  0  0  0  0  0  0  0  0
    4.8535   -1.4171    0.0000 H   0  0  0  0  0  0  0  0  0  0  0  0
    5.2520   -2.1074    0.0000 H   0  0  0  0  0  0  0  0  0  0  0  0
    7.8067   -0.6325    0.0000 H   0  0  0  0  0  0  0  0  0  0  0  0
    7.4082    0.0578    0.0000 H   0  0  0  0  0  0  0  0  0  0  0  0
    7.4082   -2.1074    0.0000 H   0  0  0  0  0  0  0  0  0  0  0  0
    7.8067   -1.4171    0.0000 H   0  0  0  0  0  0  0  0  0  0  0  0
    6.1181    1.5578    0.0000 H   0  0  0  0  0  0  0  0  0  0  0  0
    5.7196    0.8675    0.0000 H   0  0  0  0  0  0  0  0  0  0  0  0
    7.7331    1.7852    0.0000 H   0  0  0  0  0  0  0  0  0  0  0  0
    6.9841    3.0578    0.0000 H   0  0  0  0  0  0  0  0  0  0  0  0
    6.5856    2.3676    0.0000 H   0  0  0  0  0  0  0  0  0  0  0  0
    8.0622    2.3552    0.0000 H   0  0  0  0  0  0  0  0  0  0  0  0
    3.7320   -1.1448    0.0000 H   0  0  0  0  0  0  0  0  0  0  0  0
    8.5297    2.0003    0.0000 H   0  0  0  0  0  0  0  0  0  0  0  0
    9.3267    2.0003    0.0000 H   0  0  0  0  0  0  0  0  0  0  0  0
    8.5991    1.2852    0.0000 H   0  0  0  0  0  0  0  0  0  0  0  0
    2.3100    1.0122    0.0000 H   0  0  0  0  0  0  0  0  0  0  0  0
    1.4631    0.7852    0.0000 H   0  0  0  0  0  0  0  0  0  0  0  0
    1.6900   -0.0617    0.0000 H   0  0  0  0  0  0  0  0  0  0  0  0
    1.8291   -0.5808    0.0000 H   0  0  0  0  0  0  0  0  0  0  0  0
    2.0560   -1.4278    0.0000 H   0  0  0  0  0  0  0  0  0  0  0  0
    2.9030   -1.2008    0.0000 H   0  0  0  0  0  0  0  0  0  0  0  0
    3.9030    0.5312    0.0000 H   0  0  0  0  0  0  0  0  0  0  0  0
    3.6760    1.3782    0.0000 H   0  0  0  0  0  0  0  0  0  0  0  0
    2.8291    1.1512    0.0000 H   0  0  0  0  0  0  0  0  0  0  0  0
    4.9315   -4.4210    0.0000 H   0  0  0  0  0  0  0  0  0  0  0  0
    6.6592    4.1652    0.0000 H   0  0  0  0  0  0  0  0  0  0  0  0
    5.4657   -6.0652    0.0000 H   0  0  0  0  0  0  0  0  0  0  0  0
    7.8067    5.3675    0.0000 H   0  0  0  0  0  0  0  0  0  0  0  0
    7.4082    6.0578    0.0000 H   0  0  0  0  0  0  0  0  0  0  0  0
    9.2573    4.2852    0.0000 H   0  0  0  0  0  0  0  0  0  0  0  0
   10.6603    1.8552    0.0000 H   0  0  0  0  0  0  0  0  0  0  0  0
   10.6603    5.0952    0.0000 H   0  0  0  0  0  0  0  0  0  0  0  0
   12.0632    2.6652    0.0000 H   0  0  0  0  0  0  0  0  0  0  0  0
   12.0632    4.2852    0.0000 H   0  0  0  0  0  0  0  0  0  0  0  0
    6.3946   -7.3510    0.0000 H   0  0  0  0  0  0  0  0  0  0  0  0
    4.0611    5.6652    0.0000 H   0  0  0  0  0  0  0  0  0  0  0  0
    5.4641    8.0952    0.0000 H   0  0  0  0  0  0  0  0  0  0  0  0
    4.8441    4.4752    0.0000 H   0  0  0  0  0  0  0  0  0  0  0  0
    5.4641    3.8552    0.0000 H   0  0  0  0  0  0  0  0  0  0  0  0
    6.0841    4.4752    0.0000 H   0  0  0  0  0  0  0  0  0  0  0  0
    7.5062    6.9383    0.0000 H   0  0  0  0  0  0  0  0  0  0  0  0
    7.7331    7.7852    0.0000 H   0  0  0  0  0  0  0  0  0  0  0  0
    6.8862    8.0122    0.0000 H   0  0  0  0  0  0  0  0  0  0  0  0
    7.3468   -8.6616    0.0000 H   0  0  0  0  0  0  0  0  0  0  0  0
    3.7320    8.0952    0.0000 H   0  0  0  0  0  0  0  0  0  0  0  0
   10.0809   -8.1460    0.0000 H   0  0  0  0  0  0  0  0  0  0  0  0
   10.9470   -8.2832    0.0000 H   0  0  0  0  0  0  0  0  0  0  0  0
   11.0841   -7.4172    0.0000 H   0  0  0  0  0  0  0  0  0  0  0  0
  1  6  2  0  0  0  0
  1  7  2  0  0  0  0
  1 11  1  0  0  0  0
  1 27  1  0  0  0  0
  2 27  1  0  0  0  0
  2 34  1  0  0  0  0
  3 53  1  0  0  0  0
  3 54  1  0  0  0  0
 21  4  1  6  0  0  0
  4 71  1  0  0  0  0
  5 22  2  0  0  0  0
  8 28  2  0  0  0  0
  9 51  1  0  0  0  0
  9101  1  0  0  0  0
 10 16  1  0  0  0  0
 10 18  1  0  0  0  0
 10 20  1  0  0  0  0
 11 17  1  0  0  0  0
 11 19  1  0  0  0  0
 12 22  1  0  0  0  0
 12 25  1  0  0  0  0
 12 68  1  0  0  0  0
 13 28  1  0  0  0  0
 13 36  1  0  0  0  0
 13 82  1  0  0  0  0
 14 40  2  0  0  0  0
 14 53  1  0  0  0  0
 15 52  1  0  0  0  0
 15 53  2  0  0  0  0
 16 17  1  0  0  0  0
 16 22  1  1  0  0  0
 16 55  1  0  0  0  0
 17 56  1  0  0  0  0
 17 57  1  0  0  0  0
 18 19  1  0  0  0  0
 18 58  1  0  0  0  0
 18 59  1  0  0  0  0
 19 60  1  0  0  0  0
 19 61  1  0  0  0  0
 20 21  1  0  0  0  0
 20 62  1  0  0  0  0
 20 63  1  0  0  0  0
 21 23  1  0  0  0  0
 21 64  1  0  0  0  0
 24 23  1  6  0  0  0
 23 65  1  0  0  0  0
 23 66  1  0  0  0  0
 24 26  1  0  0  0  0
 24 28  1  0  0  0  0
 24 67  1  0  0  0  0
 25 29  1  0  0  0  0
 25 30  1  0  0  0  0
 25 31  1  0  0  0  0
 26 32  1  0  0  0  0
 26 69  1  0  0  0  0
 26 70  1  0  0  0  0
 27 33  2  0  0  0  0
 29 72  1  0  0  0  0
 29 73  1  0  0  0  0
 29 74  1  0  0  0  0
 30 75  1  0  0  0  0
 30 76  1  0  0  0  0
 30 77  1  0  0  0  0
 31 78  1  0  0  0  0
 31 79  1  0  0  0  0
 31 80  1  0  0  0  0
 32 37  2  0  0  0  0
 32 38  1  0  0  0  0
 33 35  1  0  0  0  0
 33 81  1  0  0  0  0
 34 35  2  0  0  0  0
 34 40  1  0  0  0  0
 35 83  1  0  0  0  0
 36 39  1  0  0  0  0
 36 84  1  0  0  0  0
 36 85  1  0  0  0  0
 37 41  1  0  0  0  0
 37 86  1  0  0  0  0
 38 42  2  0  0  0  0
 38 87  1  0  0  0  0
 39 44  2  0  0  0  0
 39 45  1  0  0  0  0
 40 46  1  0  0  0  0
 41 43  2  0  0  0  0
 41 88  1  0  0  0  0
 42 43  1  0  0  0  0
 42 89  1  0  0  0  0
 43 90  1  0  0  0  0
 44 47  1  0  0  0  0
 44 49  1  0  0  0  0
 45 48  2  0  0  0  0
 45 50  1  0  0  0  0
 46 52  2  0  0  0  0
 46 91  1  0  0  0  0
 47 51  2  0  0  0  0
 47 92  1  0  0  0  0
 48 51  1  0  0  0  0
 48 93  1  0  0  0  0
 49 94  1  0  0  0  0
 49 95  1  0  0  0  0
 49 96  1  0  0  0  0
 50 97  1  0  0  0  0
 50 98  1  0  0  0  0
 50 99  1  0  0  0  0
 52100  1  0  0  0  0
 54102  1  0  0  0  0
 54103  1  0  0  0  0
 54104  1  0  0  0  0
M  END
> <PUBCHEM_COMPOUND_CID>
503721
> <PUBCHEM_COMPOUND_CANONICALIZED>
1
> <PUBCHEM_CACTVS_COMPLEXITY>
1310
> <PUBCHEM_CACTVS_HBOND_ACCEPTOR>
12
> <PUBCHEM_CACTVS_HBOND_DONOR>
4
> <PUBCHEM_CACTVS_ROTATABLE_BOND>
15
> <PUBCHEM_CACTVS_SUBSKEYS>
AAADcfB/uABgAAAAAAAAAAAAAAAAASAAAAA8eIEAAAAAAAAB9AAAHgQQSAAADbzh3ga/l5fIEgqsAzV3dHDD0blxKrBJ2Lm+bJiKfrri2fOUdAhs1hP42Ce62fKOoAADAAAQAABAAAYAACAAAAAAAAAAAA==
> <PUBCHEM_IUPAC_OPENEYE_NAME>
(2S)-1-[(2S,4R)-4-benzyl-2-hydroxy-5-[(4-hydroxy-2,6-dimethyl-phenyl)methylamino]-5-oxo-pentyl]-N-tert-butyl-4-[[5-(2-methylsulfanylpyrimidin-4-yl)-2-thienyl]sulfonyl]piperazine-2-carboxamide
> <PUBCHEM_IUPAC_CAS_NAME>
(2S)-N-tert-butyl-1-[(2S,4R)-2-hydroxy-5-[(4-hydroxy-2,6-dimethylphenyl)methylamino]-5-oxo-4-(phenylmethyl)pentyl]-4-[[5-[2-(methylthio)-4-pyrimidinyl]-2-thiophenyl]sulfonyl]-2-piperazinecarboxamide
> <PUBCHEM_IUPAC_NAME_MARKUP>
(2<I>S</I>)-1-[(2<I>S</I>,4<I>R</I>)-4-benzyl-2-hydroxy-5-[(4-hydroxy-2,6-dimethylphenyl)methylamino]-5-oxopentyl]-<I>N</I>-<I>tert</I>-butyl-4-[5-(2-methylsulfanylpyrimidin-4-yl)thiophen-2-yl]sulfonylpiperazine-2-carboxamide
> <PUBCHEM_IUPAC_NAME>
(2S)-1-[(2S,4R)-4-benzyl-2-hydroxy-5-[(4-hydroxy-2,6-dimethylphenyl)methylamino]-5-oxopentyl]-N-tert-butyl-4-[5-(2-methylsulfanylpyrimidin-4-yl)thiophen-2-yl]sulfonylpiperazine-2-carboxamide
> <PUBCHEM_IUPAC_SYSTEMATIC_NAME>
(2S)-N-tert-butyl-1-[(2S,4R)-5-[(2,6-dimethyl-4-oxidanyl-phenyl)methylamino]-2-oxidanyl-5-oxidanylidene-4-(phenylmethyl)pentyl]-4-[5-(2-methylsulfanylpyrimidin-4-yl)thiophen-2-yl]sulfonyl-piperazine-2-carboxamide
> <PUBCHEM_IUPAC_TRADITIONAL_NAME>
(2S)-1-[(2S,4R)-4-benzyl-2-hydroxy-5-[(4-hydroxy-2,6-dimethyl-benzyl)amino]-5-keto-pentyl]-N-tert-butyl-4-[[5-[2-(methylthio)pyrimidin-4-yl]-2-thienyl]sulfonyl]piperazine-2-carboxamide
> <PUBCHEM_IUPAC_INCHI>
InChI=1S/C39H50N6O6S3/c1-25-18-29(46)19-26(2)31(25)22-41-36(48)28(20-27-10-8-7-9-11-27)21-30(47)23-44-16-17-45(24-33(44)37(49)43-39(3,4)5)54(50,51)35-13-12-34(53-35)32-14-15-40-38(42-32)52-6/h7-15,18-19,28,30,33,46-47H,16-17,20-24H2,1-6H3,(H,41,48)(H,43,49)/t28-,30+,33+/m1/s1
> <PUBCHEM_IUPAC_INCHIKEY>
VKURVJOVZNFUMU-CDTKPYNKSA-N
> <PUBCHEM_XLOGP3_AA>
4.9
> <PUBCHEM_EXACT_MASS>
794.29539686
> <PUBCHEM_MOLECULAR_FORMULA>
C39H50N6O6S3
> <PUBCHEM_MOLECULAR_WEIGHT>
795.1
> <PUBCHEM_OPENEYE_CAN_SMILES>
CC1=CC(=CC(=C1CNC(=O)C(CC2=CC=CC=C2)CC(CN3CCN(CC3C(=O)NC(C)(C)C)S(=O)(=O)C4=CC=C(S4)C5=NC(=NC=C5)SC)O)C)O
> <PUBCHEM_OPENEYE_ISO_SMILES>
CC1=CC(=CC(=C1CNC(=O)[C@H](CC2=CC=CC=C2)C[C@@H](CN3CCN(C[C@H]3C(=O)NC(C)(C)C)S(=O)(=O)C4=CC=C(S4)C5=NC(=NC=C5)SC)O)C)O
> <PUBCHEM_CACTVS_TPSA>
227
> <PUBCHEM_MONOISOTOPIC_WEIGHT>
794.29539686
> <PUBCHEM_TOTAL_CHARGE>
0
> <PUBCHEM_HEAVY_ATOM_COUNT>
54
> <PUBCHEM_ATOM_DEF_STEREO_COUNT>
3
> <PUBCHEM_ATOM_UDEF_STEREO_COUNT>
0
> <PUBCHEM_BOND_DEF_STEREO_COUNT>
0
> <PUBCHEM_BOND_UDEF_STEREO_COUNT>
0
> <PUBCHEM_ISOTOPIC_ATOM_COUNT>
0
> <PUBCHEM_COMPONENT_COUNT>
1
> <PUBCHEM_CACTVS_TAUTO_COUNT>
-1
> <PUBCHEM_COORDINATE_TYPE>
1
5
255
> <PUBCHEM_BONDANNOTATIONS>
14  40  8
14  53  8
15  52  8
15  53  8
16  22  5
2  27  8
2  34  8
24  23  6
27  33  8
32  37  8
32  38  8
33  35  8
34  35  8
37  41  8
38  42  8
39  44  8
39  45  8
21  4  6
40  46  8
41  43  8
42  43  8
44  47  8
45  48  8
46  52  8
47  51  8
48  51  8
$$$$
