503786
  -OEChem-10302200282D
 88 92  0     1  0  0  0  0  0999 V2000
   10.2264   -2.3974    0.0000 S   0  0  0  0  0  0  0  0  0  0  0  0
    6.2619   -2.7539    0.0000 O   0  0  0  0  0  0  0  0  0  0  0  0
    7.6138   -1.3305    0.0000 O   0  0  0  0  0  0  0  0  0  0  0  0
    9.2136    0.7767    0.0000 O   0  0  0  0  0  0  0  0  0  0  0  0
   10.5685    0.9168    0.0000 O   0  0  0  0  0  0  0  0  0  0  0  0
    6.6353   -1.5368    0.0000 O   0  0  0  0  0  0  0  0  0  0  0  0
    9.5708   -0.9181    0.0000 N   0  0  0  0  0  0  0  0  0  0  0  0
    4.9889   -0.9987    0.0000 N   0  0  0  0  0  0  0  0  0  0  0  0
   12.0670    0.0481    0.0000 N   0  0  0  0  0  0  0  0  0  0  0  0
   10.9707   -1.7295    0.0000 C   0  0  0  0  0  0  0  0  0  0  0  0
   10.5655   -0.8153    0.0000 C   0  0  1  0  0  0  0  0  0  0  0  0
    9.3612   -1.8959    0.0000 C   0  0  0  0  0  0  0  0  0  0  0  0
    4.6783   -1.9492    0.0000 C   0  0  2  0  0  0  0  0  0  0  0  0
    5.2619   -2.7539    0.0000 C   0  0  1  0  0  0  0  0  0  0  0  0
    6.2781    0.1581    0.0000 C   0  0  1  0  0  0  0  0  0  0  0  0
   11.6385   -2.4738    0.0000 C   0  0  0  0  0  0  0  0  0  0  0  0
   11.8849   -1.3244    0.0000 C   0  0  0  0  0  0  0  0  0  0  0  0
    7.9244   -0.3800    0.0000 C   0  0  2  0  0  0  0  0  0  0  0  0
    8.9030   -0.1738    0.0000 C   0  0  0  0  0  0  0  0  0  0  0  0
    7.2566    0.3643    0.0000 C   0  0  0  0  0  0  0  0  0  0  0  0
    4.6783   -3.5587    0.0000 C   0  0  0  0  0  0  0  0  0  0  0  0
    3.7320   -2.2539    0.0000 C   0  0  0  0  0  0  0  0  0  0  0  0
   11.0670    0.0499    0.0000 C   0  0  0  0  0  0  0  0  0  0  0  0
    3.7320   -3.2539    0.0000 C   0  0  0  0  0  0  0  0  0  0  0  0
    5.9674   -0.7925    0.0000 C   0  0  0  0  0  0  0  0  0  0  0  0
    5.6103    0.9024    0.0000 C   0  0  0  0  0  0  0  0  0  0  0  0
    2.8660   -1.7539    0.0000 C   0  0  0  0  0  0  0  0  0  0  0  0
    2.8660   -3.7539    0.0000 C   0  0  0  0  0  0  0  0  0  0  0  0
    5.9209    1.8529    0.0000 C   0  0  0  0  0  0  0  0  0  0  0  0
   12.5685    0.9133    0.0000 C   0  0  0  0  0  0  0  0  0  0  0  0
    2.0000   -2.2539    0.0000 C   0  0  0  0  0  0  0  0  0  0  0  0
    2.0000   -3.2539    0.0000 C   0  0  0  0  0  0  0  0  0  0  0  0
   13.5685    0.9116    0.0000 C   0  0  0  0  0  0  0  0  0  0  0  0
    5.2531    2.5972    0.0000 C   0  0  0  0  0  0  0  0  0  0  0  0
    6.8994    2.0591    0.0000 C   0  0  0  0  0  0  0  0  0  0  0  0
   14.0700    1.7767    0.0000 C   0  0  0  0  0  0  0  0  0  0  0  0
   14.0670    0.0447    0.0000 C   0  0  0  0  0  0  0  0  0  0  0  0
    5.5637    3.5477    0.0000 C   0  0  0  0  0  0  0  0  0  0  0  0
    7.2101    3.0096    0.0000 C   0  0  0  0  0  0  0  0  0  0  0  0
    6.5422    3.7539    0.0000 C   0  0  0  0  0  0  0  0  0  0  0  0
   15.0700    1.7750    0.0000 C   0  0  0  0  0  0  0  0  0  0  0  0
   15.0670    0.0429    0.0000 C   0  0  0  0  0  0  0  0  0  0  0  0
   13.5715    2.6436    0.0000 C   0  0  0  0  0  0  0  0  0  0  0  0
   13.5655   -0.8205    0.0000 C   0  0  0  0  0  0  0  0  0  0  0  0
   15.5685    0.9081    0.0000 C   0  0  0  0  0  0  0  0  0  0  0  0
   10.2287   -0.2947    0.0000 H   0  0  0  0  0  0  0  0  0  0  0  0
    8.7719   -1.7033    0.0000 H   0  0  0  0  0  0  0  0  0  0  0  0
    9.1080   -2.4618    0.0000 H   0  0  0  0  0  0  0  0  0  0  0  0
    5.2908   -1.8530    0.0000 H   0  0  0  0  0  0  0  0  0  0  0  0
    5.5436   -3.3062    0.0000 H   0  0  0  0  0  0  0  0  0  0  0  0
    6.6922   -0.3034    0.0000 H   0  0  0  0  0  0  0  0  0  0  0  0
   11.1770   -2.8879    0.0000 H   0  0  0  0  0  0  0  0  0  0  0  0
   12.0526   -2.9353    0.0000 H   0  0  0  0  0  0  0  0  0  0  0  0
   12.1000   -2.0598    0.0000 H   0  0  0  0  0  0  0  0  0  0  0  0
   12.1361   -1.8912    0.0000 H   0  0  0  0  0  0  0  0  0  0  0  0
   12.4517   -1.0732    0.0000 H   0  0  0  0  0  0  0  0  0  0  0  0
   11.6337   -0.7576    0.0000 H   0  0  0  0  0  0  0  0  0  0  0  0
    8.3385   -0.8415    0.0000 H   0  0  0  0  0  0  0  0  0  0  0  0
    7.7830    0.6919    0.0000 H   0  0  0  0  0  0  0  0  0  0  0  0
    7.0254    0.9395    0.0000 H   0  0  0  0  0  0  0  0  0  0  0  0
    4.4272   -4.1256    0.0000 H   0  0  0  0  0  0  0  0  0  0  0  0
    5.2156   -3.8679    0.0000 H   0  0  0  0  0  0  0  0  0  0  0  0
    4.5749   -0.5372    0.0000 H   0  0  0  0  0  0  0  0  0  0  0  0
    5.0633    1.1944    0.0000 H   0  0  0  0  0  0  0  0  0  0  0  0
    5.2277    0.4145    0.0000 H   0  0  0  0  0  0  0  0  0  0  0  0
   12.3761   -0.4893    0.0000 H   0  0  0  0  0  0  0  0  0  0  0  0
    2.8660   -1.1339    0.0000 H   0  0  0  0  0  0  0  0  0  0  0  0
    2.8660   -4.3739    0.0000 H   0  0  0  0  0  0  0  0  0  0  0  0
    6.5719   -3.2909    0.0000 H   0  0  0  0  0  0  0  0  0  0  0  0
    8.0279   -1.7920    0.0000 H   0  0  0  0  0  0  0  0  0  0  0  0
   12.6772    1.5237    0.0000 H   0  0  0  0  0  0  0  0  0  0  0  0
   11.9863    1.1264    0.0000 H   0  0  0  0  0  0  0  0  0  0  0  0
    1.4631   -1.9439    0.0000 H   0  0  0  0  0  0  0  0  0  0  0  0
    1.4631   -3.5639    0.0000 H   0  0  0  0  0  0  0  0  0  0  0  0
    4.6464    2.4693    0.0000 H   0  0  0  0  0  0  0  0  0  0  0  0
    7.3135    1.5976    0.0000 H   0  0  0  0  0  0  0  0  0  0  0  0
    5.1497    4.0092    0.0000 H   0  0  0  0  0  0  0  0  0  0  0  0
    7.8168    3.1375    0.0000 H   0  0  0  0  0  0  0  0  0  0  0  0
    6.7349    4.3432    0.0000 H   0  0  0  0  0  0  0  0  0  0  0  0
   15.3809    2.3114    0.0000 H   0  0  0  0  0  0  0  0  0  0  0  0
   15.3761   -0.4945    0.0000 H   0  0  0  0  0  0  0  0  0  0  0  0
   14.1090    2.9527    0.0000 H   0  0  0  0  0  0  0  0  0  0  0  0
   13.2624    3.1811    0.0000 H   0  0  0  0  0  0  0  0  0  0  0  0
   13.0340    2.3345    0.0000 H   0  0  0  0  0  0  0  0  0  0  0  0
   13.0291   -0.5096    0.0000 H   0  0  0  0  0  0  0  0  0  0  0  0
   13.2546   -1.3569    0.0000 H   0  0  0  0  0  0  0  0  0  0  0  0
   14.1019   -1.1314    0.0000 H   0  0  0  0  0  0  0  0  0  0  0  0
   16.1885    0.9070    0.0000 H   0  0  0  0  0  0  0  0  0  0  0  0
  1 10  1  0  0  0  0
  1 12  1  0  0  0  0
 14  2  1  6  0  0  0
  2 69  1  0  0  0  0
 18  3  1  1  0  0  0
  3 70  1  0  0  0  0
  4 19  2  0  0  0  0
  5 23  2  0  0  0  0
  6 25  2  0  0  0  0
  7 11  1  0  0  0  0
  7 12  1  0  0  0  0
  7 19  1  0  0  0  0
 13  8  1  6  0  0  0
  8 25  1  0  0  0  0
  8 63  1  0  0  0  0
  9 23  1  0  0  0  0
  9 30  1  0  0  0  0
  9 66  1  0  0  0  0
 10 11  1  0  0  0  0
 10 16  1  0  0  0  0
 10 17  1  0  0  0  0
 11 23  1  6  0  0  0
 11 46  1  0  0  0  0
 12 47  1  0  0  0  0
 12 48  1  0  0  0  0
 13 14  1  0  0  0  0
 13 22  1  0  0  0  0
 13 49  1  0  0  0  0
 14 21  1  0  0  0  0
 14 50  1  0  0  0  0
 15 20  1  1  0  0  0
 15 25  1  0  0  0  0
 15 26  1  0  0  0  0
 15 51  1  0  0  0  0
 16 52  1  0  0  0  0
 16 53  1  0  0  0  0
 16 54  1  0  0  0  0
 17 55  1  0  0  0  0
 17 56  1  0  0  0  0
 17 57  1  0  0  0  0
 18 19  1  0  0  0  0
 18 20  1  0  0  0  0
 18 58  1  0  0  0  0
 20 59  1  0  0  0  0
 20 60  1  0  0  0  0
 21 24  1  0  0  0  0
 21 61  1  0  0  0  0
 21 62  1  0  0  0  0
 22 24  1  0  0  0  0
 22 27  2  0  0  0  0
 24 28  2  0  0  0  0
 26 29  1  0  0  0  0
 26 64  1  0  0  0  0
 26 65  1  0  0  0  0
 27 31  1  0  0  0  0
 27 67  1  0  0  0  0
 28 32  1  0  0  0  0
 28 68  1  0  0  0  0
 29 34  2  0  0  0  0
 29 35  1  0  0  0  0
 30 33  1  0  0  0  0
 30 71  1  0  0  0  0
 30 72  1  0  0  0  0
 31 32  2  0  0  0  0
 31 73  1  0  0  0  0
 32 74  1  0  0  0  0
 33 36  2  0  0  0  0
 33 37  1  0  0  0  0
 34 38  1  0  0  0  0
 34 75  1  0  0  0  0
 35 39  2  0  0  0  0
 35 76  1  0  0  0  0
 36 41  1  0  0  0  0
 36 43  1  0  0  0  0
 37 42  2  0  0  0  0
 37 44  1  0  0  0  0
 38 40  2  0  0  0  0
 38 77  1  0  0  0  0
 39 40  1  0  0  0  0
 39 78  1  0  0  0  0
 40 79  1  0  0  0  0
 41 45  2  0  0  0  0
 41 80  1  0  0  0  0
 42 45  1  0  0  0  0
 42 81  1  0  0  0  0
 43 82  1  0  0  0  0
 43 83  1  0  0  0  0
 43 84  1  0  0  0  0
 44 85  1  0  0  0  0
 44 86  1  0  0  0  0
 44 87  1  0  0  0  0
 45 88  1  0  0  0  0
M  END
> <PUBCHEM_COMPOUND_CID>
503786
> <PUBCHEM_COMPOUND_CANONICALIZED>
1
> <PUBCHEM_CACTVS_COMPLEXITY>
1020
> <PUBCHEM_CACTVS_HBOND_ACCEPTOR>
6
> <PUBCHEM_CACTVS_HBOND_DONOR>
4
> <PUBCHEM_CACTVS_ROTATABLE_BOND>
10
> <PUBCHEM_CACTVS_SUBSKEYS>
AAADcfB/OABAAAAAAAAAAAAAAAAAAeIAAAAwYMAAAAAAAGABUAAAHgQQCAAADTzh2AayAIPAAgiIAiFSEAKCAABgABAIiIHIBIgKcDKgkTGUYAhk1gGYiAe62/KOgAACAAAQAAAAAAQAACAAAKAACQgAAA==
> <PUBCHEM_IUPAC_OPENEYE_NAME>
(4R)-3-[(2S,4S)-4-benzyl-2-hydroxy-5-[[(1S,2R)-2-hydroxyindan-1-yl]amino]-5-oxo-pentanoyl]-N-[(2,6-dimethylphenyl)methyl]-5,5-dimethyl-thiazolidine-4-carboxamide
> <PUBCHEM_IUPAC_CAS_NAME>
(4R)-N-[(2,6-dimethylphenyl)methyl]-3-[(2S,4S)-2-hydroxy-5-[[(1S,2R)-2-hydroxy-2,3-dihydro-1H-inden-1-yl]amino]-1,5-dioxo-4-(phenylmethyl)pentyl]-5,5-dimethyl-4-thiazolidinecarboxamide
> <PUBCHEM_IUPAC_NAME_MARKUP>
(4<I>R</I>)-3-[(2<I>S</I>,4<I>S</I>)-4-benzyl-2-hydroxy-5-[[(1<I>S</I>,2<I>R</I>)-2-hydroxy-2,3-dihydro-1<I>H</I>-inden-1-yl]amino]-5-oxopentanoyl]-<I>N</I>-[(2,6-dimethylphenyl)methyl]-5,5-dimethyl-1,3-thiazolidine-4-carboxamide
> <PUBCHEM_IUPAC_NAME>
(4R)-3-[(2S,4S)-4-benzyl-2-hydroxy-5-[[(1S,2R)-2-hydroxy-2,3-dihydro-1H-inden-1-yl]amino]-5-oxopentanoyl]-N-[(2,6-dimethylphenyl)methyl]-5,5-dimethyl-1,3-thiazolidine-4-carboxamide
> <PUBCHEM_IUPAC_SYSTEMATIC_NAME>
(4R)-N-[(2,6-dimethylphenyl)methyl]-5,5-dimethyl-3-[(2S,4S)-2-oxidanyl-5-[[(1S,2R)-2-oxidanyl-2,3-dihydro-1H-inden-1-yl]amino]-5-oxidanylidene-4-(phenylmethyl)pentanoyl]-1,3-thiazolidine-4-carboxamide
> <PUBCHEM_IUPAC_TRADITIONAL_NAME>
(4R)-3-[(2S,4S)-4-benzyl-2-hydroxy-5-[[(1S,2R)-2-hydroxyindan-1-yl]amino]-5-keto-pentanoyl]-N-(2,6-dimethylbenzyl)-5,5-dimethyl-thiazolidine-4-carboxamide
> <PUBCHEM_IUPAC_INCHI>
InChI=1S/C36H43N3O5S/c1-22-11-10-12-23(2)28(22)20-37-34(43)32-36(3,4)45-21-39(32)35(44)30(41)19-26(17-24-13-6-5-7-14-24)33(42)38-31-27-16-9-8-15-25(27)18-29(31)40/h5-16,26,29-32,40-41H,17-21H2,1-4H3,(H,37,43)(H,38,42)/t26-,29+,30-,31-,32+/m0/s1
> <PUBCHEM_IUPAC_INCHIKEY>
PLNSJJUTQRVZIK-HPVJBMGRSA-N
> <PUBCHEM_XLOGP3_AA>
4.4
> <PUBCHEM_EXACT_MASS>
629.29234265
> <PUBCHEM_MOLECULAR_FORMULA>
C36H43N3O5S
> <PUBCHEM_MOLECULAR_WEIGHT>
629.8
> <PUBCHEM_OPENEYE_CAN_SMILES>
CC1=C(C(=CC=C1)C)CNC(=O)C2C(SCN2C(=O)C(CC(CC3=CC=CC=C3)C(=O)NC4C(CC5=CC=CC=C45)O)O)(C)C
> <PUBCHEM_OPENEYE_ISO_SMILES>
CC1=C(C(=CC=C1)C)CNC(=O)[C@@H]2C(SCN2C(=O)[C@H](C[C@H](CC3=CC=CC=C3)C(=O)N[C@@H]4[C@@H](CC5=CC=CC=C45)O)O)(C)C
> <PUBCHEM_CACTVS_TPSA>
144
> <PUBCHEM_MONOISOTOPIC_WEIGHT>
629.29234265
> <PUBCHEM_TOTAL_CHARGE>
0
> <PUBCHEM_HEAVY_ATOM_COUNT>
45
> <PUBCHEM_ATOM_DEF_STEREO_COUNT>
5
> <PUBCHEM_ATOM_UDEF_STEREO_COUNT>
0
> <PUBCHEM_BOND_DEF_STEREO_COUNT>
0
> <PUBCHEM_BOND_UDEF_STEREO_COUNT>
0
> <PUBCHEM_ISOTOPIC_ATOM_COUNT>
0
> <PUBCHEM_COMPONENT_COUNT>
1
> <PUBCHEM_CACTVS_TAUTO_COUNT>
-1
> <PUBCHEM_COORDINATE_TYPE>
1
5
255
> <PUBCHEM_BONDANNOTATIONS>
11  23  6
15  20  5
14  2  6
22  24  8
22  27  8
24  28  8
27  31  8
28  32  8
29  34  8
29  35  8
18  3  5
31  32  8
33  36  8
33  37  8
34  38  8
35  39  8
36  41  8
37  42  8
38  40  8
39  40  8
41  45  8
42  45  8
13  8  6
$$$$
