503749
  -OEChem-10302200282D
 37 39  0     1  0  0  0  0  0999 V2000
    8.0935   -1.0568    0.0000 Cl  0  0  0  0  0  0  0  0  0  0  0  0
    4.4955   -1.5568    0.0000 Cl  0  0  0  0  0  0  0  0  0  0  0  0
    7.1705    0.5310    0.0000 S   0  0  0  0  0  0  0  0  0  0  0  0
    5.2737    2.2910    0.0000 O   0  0  0  0  0  0  0  0  0  0  0  0
    5.5525    0.5310    0.0000 N   0  0  0  0  0  0  0  0  0  0  0  0
    6.3615   -0.0568    0.0000 C   0  0  3  0  0  0  0  0  0  0  0  0
    4.5743    0.7389    0.0000 C   0  0  0  0  0  0  0  0  0  0  0  0
    6.3615   -1.0568    0.0000 C   0  0  0  0  0  0  0  0  0  0  0  0
    5.8615    1.4820    0.0000 C   0  0  0  0  0  0  0  0  0  0  0  0
    6.8615    1.4820    0.0000 C   0  0  0  0  0  0  0  0  0  0  0  0
    4.2653    1.6899    0.0000 C   0  0  0  0  0  0  0  0  0  0  0  0
    3.2872    1.8978    0.0000 C   0  0  0  0  0  0  0  0  0  0  0  0
    3.9052   -0.0043    0.0000 C   0  0  0  0  0  0  0  0  0  0  0  0
    7.2275   -1.5568    0.0000 C   0  0  0  0  0  0  0  0  0  0  0  0
    5.4955   -1.5568    0.0000 C   0  0  0  0  0  0  0  0  0  0  0  0
    2.9782    2.8489    0.0000 C   0  0  0  0  0  0  0  0  0  0  0  0
    2.6181    1.1548    0.0000 C   0  0  0  0  0  0  0  0  0  0  0  0
    2.9270    0.2037    0.0000 C   0  0  0  0  0  0  0  0  0  0  0  0
    7.2275   -2.5568    0.0000 C   0  0  0  0  0  0  0  0  0  0  0  0
    5.4955   -2.5568    0.0000 C   0  0  0  0  0  0  0  0  0  0  0  0
    6.3615   -3.0568    0.0000 C   0  0  0  0  0  0  0  0  0  0  0  0
    2.0000    3.0568    0.0000 C   0  0  0  0  0  0  0  0  0  0  0  0
    5.8091   -0.3383    0.0000 H   0  0  0  0  0  0  0  0  0  0  0  0
    7.4680    1.6109    0.0000 H   0  0  0  0  0  0  0  0  0  0  0  0
    6.7967    2.0986    0.0000 H   0  0  0  0  0  0  0  0  0  0  0  0
    4.6802    2.1507    0.0000 H   0  0  0  0  0  0  0  0  0  0  0  0
    4.0968   -0.5939    0.0000 H   0  0  0  0  0  0  0  0  0  0  0  0
    3.5921    2.9352    0.0000 H   0  0  0  0  0  0  0  0  0  0  0  0
    2.9998    3.4685    0.0000 H   0  0  0  0  0  0  0  0  0  0  0  0
    2.0116    1.2837    0.0000 H   0  0  0  0  0  0  0  0  0  0  0  0
    2.5122   -0.2571    0.0000 H   0  0  0  0  0  0  0  0  0  0  0  0
    7.7644   -2.8668    0.0000 H   0  0  0  0  0  0  0  0  0  0  0  0
    4.9585   -2.8668    0.0000 H   0  0  0  0  0  0  0  0  0  0  0  0
    6.3615   -3.6768    0.0000 H   0  0  0  0  0  0  0  0  0  0  0  0
    2.1289    3.6633    0.0000 H   0  0  0  0  0  0  0  0  0  0  0  0
    1.3936    3.1857    0.0000 H   0  0  0  0  0  0  0  0  0  0  0  0
    1.8711    2.4504    0.0000 H   0  0  0  0  0  0  0  0  0  0  0  0
  1 14  1  0  0  0  0
  2 15  1  0  0  0  0
  3  6  1  0  0  0  0
  3 10  1  0  0  0  0
  4  9  2  0  0  0  0
  5  6  1  0  0  0  0
  5  7  1  0  0  0  0
  5  9  1  0  0  0  0
  6  8  1  0  0  0  0
  6 23  1  0  0  0  0
  7 11  1  0  0  0  0
  7 13  2  0  0  0  0
  8 14  2  0  0  0  0
  8 15  1  0  0  0  0
  9 10  1  0  0  0  0
 10 24  1  0  0  0  0
 10 25  1  0  0  0  0
 11 12  2  0  0  0  0
 11 26  1  0  0  0  0
 12 16  1  0  0  0  0
 12 17  1  0  0  0  0
 13 18  1  0  0  0  0
 13 27  1  0  0  0  0
 14 19  1  0  0  0  0
 15 20  2  0  0  0  0
 16 22  1  0  0  0  0
 16 28  1  0  0  0  0
 16 29  1  0  0  0  0
 17 18  2  0  0  0  0
 17 30  1  0  0  0  0
 18 31  1  0  0  0  0
 19 21  2  0  0  0  0
 19 32  1  0  0  0  0
 20 21  1  0  0  0  0
 20 33  1  0  0  0  0
 21 34  1  0  0  0  0
 22 35  1  0  0  0  0
 22 36  1  0  0  0  0
 22 37  1  0  0  0  0
M  END
> <PUBCHEM_COMPOUND_CID>
503749
> <PUBCHEM_COMPOUND_CANONICALIZED>
1
> <PUBCHEM_CACTVS_COMPLEXITY>
398
> <PUBCHEM_CACTVS_HBOND_ACCEPTOR>
2
> <PUBCHEM_CACTVS_HBOND_DONOR>
0
> <PUBCHEM_CACTVS_ROTATABLE_BOND>
3
> <PUBCHEM_CACTVS_SUBSKEYS>
AAADccB6IABGAAAAAAAAAAAAAAAAAWAAAAAwYAAAAAAAAAABQAAAHgYAAAAADArF2CSywIMAAAiIAiVSUACCAABhBxAIiAAIZogIICLhk5GEIAhghgDoyAcQgIAOAAAAQACBAAAAAACAAQIAAAAAAAAAAA==
> <PUBCHEM_IUPAC_OPENEYE_NAME>
2-(2,6-dichlorophenyl)-3-(3-ethylphenyl)thiazolidin-4-one
> <PUBCHEM_IUPAC_CAS_NAME>
2-(2,6-dichlorophenyl)-3-(3-ethylphenyl)-4-thiazolidinone
> <PUBCHEM_IUPAC_NAME_MARKUP>
2-(2,6-dichlorophenyl)-3-(3-ethylphenyl)-1,3-thiazolidin-4-one
> <PUBCHEM_IUPAC_NAME>
2-(2,6-dichlorophenyl)-3-(3-ethylphenyl)-1,3-thiazolidin-4-one
> <PUBCHEM_IUPAC_SYSTEMATIC_NAME>
2-[2,6-bis(chloranyl)phenyl]-3-(3-ethylphenyl)-1,3-thiazolidin-4-one
> <PUBCHEM_IUPAC_TRADITIONAL_NAME>
2-(2,6-dichlorophenyl)-3-(3-ethylphenyl)thiazolidin-4-one
> <PUBCHEM_IUPAC_INCHI>
InChI=1S/C17H15Cl2NOS/c1-2-11-5-3-6-12(9-11)20-15(21)10-22-17(20)16-13(18)7-4-8-14(16)19/h3-9,17H,2,10H2,1H3
> <PUBCHEM_IUPAC_INCHIKEY>
HQHMRBTYSZTTAX-UHFFFAOYSA-N
> <PUBCHEM_XLOGP3_AA>
5.4
> <PUBCHEM_EXACT_MASS>
351.0251407
> <PUBCHEM_MOLECULAR_FORMULA>
C17H15Cl2NOS
> <PUBCHEM_MOLECULAR_WEIGHT>
352.3
> <PUBCHEM_OPENEYE_CAN_SMILES>
CCC1=CC(=CC=C1)N2C(SCC2=O)C3=C(C=CC=C3Cl)Cl
> <PUBCHEM_OPENEYE_ISO_SMILES>
CCC1=CC(=CC=C1)N2C(SCC2=O)C3=C(C=CC=C3Cl)Cl
> <PUBCHEM_CACTVS_TPSA>
45.6
> <PUBCHEM_MONOISOTOPIC_WEIGHT>
351.0251407
> <PUBCHEM_TOTAL_CHARGE>
0
> <PUBCHEM_HEAVY_ATOM_COUNT>
22
> <PUBCHEM_ATOM_DEF_STEREO_COUNT>
0
> <PUBCHEM_ATOM_UDEF_STEREO_COUNT>
1
> <PUBCHEM_BOND_DEF_STEREO_COUNT>
0
> <PUBCHEM_BOND_UDEF_STEREO_COUNT>
0
> <PUBCHEM_ISOTOPIC_ATOM_COUNT>
0
> <PUBCHEM_COMPONENT_COUNT>
1
> <PUBCHEM_CACTVS_TAUTO_COUNT>
-1
> <PUBCHEM_COORDINATE_TYPE>
1
5
255
> <PUBCHEM_BONDANNOTATIONS>
11  12  8
12  17  8
13  18  8
14  19  8
15  20  8
17  18  8
19  21  8
20  21  8
6  8  3
7  11  8
7  13  8
8  14  8
8  15  8
$$$$
