503726
  -OEChem-10302200282D
 63 65  0     1  0  0  0  0  0999 V2000
    3.3960    0.6225    0.0000 O   0  0  0  0  0  0  0  0  0  0  0  0
    4.2639    2.1742    0.0000 O   0  0  0  0  0  0  0  0  0  0  0  0
    6.0456    3.1846    0.0000 O   0  0  0  0  0  0  0  0  0  0  0  0
    7.7940    3.1500    0.0000 O   0  0  0  0  0  0  0  0  0  0  0  0
    5.1357   -1.3708    0.0000 O   0  0  0  0  0  0  0  0  0  0  0  0
    2.5357   -0.8808    0.0000 O   0  0  0  0  0  0  0  0  0  0  0  0
    9.5424    3.1846    0.0000 O   0  0  0  0  0  0  0  0  0  0  0  0
   11.3242    0.1259    0.0000 O   0  0  0  0  0  0  0  0  0  0  0  0
    2.5434   -2.8808    0.0000 O   0  0  0  0  0  0  0  0  0  0  0  0
    5.1280    0.6292    0.0000 C   0  0  3  0  0  0  0  0  0  0  0  0
    6.0341    0.1153    0.0000 C   0  0  0  0  0  0  0  0  0  0  0  0
    5.1280    1.6708    0.0000 C   0  0  3  0  0  0  0  0  0  0  0  0
    4.2639    0.1259    0.0000 C   0  0  3  0  0  0  0  0  0  0  0  0
    6.9280    0.6500    0.0000 C   0  0  0  0  0  0  0  0  0  0  0  0
    6.9280    1.6500    0.0000 C   0  0  0  0  0  0  0  0  0  0  0  0
    6.0341    2.1847    0.0000 C   0  0  0  0  0  0  0  0  0  0  0  0
    7.7940    0.1500    0.0000 C   0  0  0  0  0  0  0  0  0  0  0  0
    4.2678   -0.8741    0.0000 C   0  0  0  0  0  0  0  0  0  0  0  0
    7.7940    2.1500    0.0000 C   0  0  0  0  0  0  0  0  0  0  0  0
    8.6601    1.6500    0.0000 C   0  0  0  0  0  0  0  0  0  0  0  0
    8.6601    0.6500    0.0000 C   0  0  0  0  0  0  0  0  0  0  0  0
    3.4037   -1.3775    0.0000 C   0  0  3  0  0  0  0  0  0  0  0  0
    9.5540    2.1847    0.0000 C   0  0  0  0  0  0  0  0  0  0  0  0
   10.4601    1.6708    0.0000 C   0  0  0  0  0  0  0  0  0  0  0  0
   11.3242    2.1742    0.0000 C   0  0  3  0  0  0  0  0  0  0  0  0
    9.5540    0.1153    0.0000 C   0  0  0  0  0  0  0  0  0  0  0  0
   10.4601    0.6292    0.0000 C   0  0  0  0  0  0  0  0  0  0  0  0
    3.4075   -2.3775    0.0000 C   0  0  3  0  0  0  0  0  0  0  0  0
   12.1921    1.6775    0.0000 C   0  0  0  0  0  0  0  0  0  0  0  0
    2.5319    0.1192    0.0000 C   0  0  0  0  0  0  0  0  0  0  0  0
   11.3203    3.1742    0.0000 C   0  0  0  0  0  0  0  0  0  0  0  0
    4.2755   -2.8741    0.0000 C   0  0  0  0  0  0  0  0  0  0  0  0
   13.0562    2.1808    0.0000 C   0  0  0  0  0  0  0  0  0  0  0  0
    5.1316    0.0092    0.0000 H   0  0  0  0  0  0  0  0  0  0  0  0
    5.6405   -0.3637    0.0000 H   0  0  0  0  0  0  0  0  0  0  0  0
    6.4387   -0.3544    0.0000 H   0  0  0  0  0  0  0  0  0  0  0  0
    5.1316    2.2908    0.0000 H   0  0  0  0  0  0  0  0  0  0  0  0
    4.2615    0.7459    0.0000 H   0  0  0  0  0  0  0  0  0  0  0  0
    7.7940   -0.4700    0.0000 H   0  0  0  0  0  0  0  0  0  0  0  0
    3.4013   -0.7575    0.0000 H   0  0  0  0  0  0  0  0  0  0  0  0
    4.2663    2.7942    0.0000 H   0  0  0  0  0  0  0  0  0  0  0  0
   11.8599    2.4862    0.0000 H   0  0  0  0  0  0  0  0  0  0  0  0
    9.5468   -0.5046    0.0000 H   0  0  0  0  0  0  0  0  0  0  0  0
    2.8694   -2.0695    0.0000 H   0  0  0  0  0  0  0  0  0  0  0  0
   11.7954    1.2010    0.0000 H   0  0  0  0  0  0  0  0  0  0  0  0
   12.5925    1.2041    0.0000 H   0  0  0  0  0  0  0  0  0  0  0  0
    2.2198    0.6549    0.0000 H   0  0  0  0  0  0  0  0  0  0  0  0
    1.9962   -0.1929    0.0000 H   0  0  0  0  0  0  0  0  0  0  0  0
    2.8440   -0.4166    0.0000 H   0  0  0  0  0  0  0  0  0  0  0  0
    7.2571    3.4600    0.0000 H   0  0  0  0  0  0  0  0  0  0  0  0
   11.9403    3.1765    0.0000 H   0  0  0  0  0  0  0  0  0  0  0  0
   11.3179    3.7942    0.0000 H   0  0  0  0  0  0  0  0  0  0  0  0
   10.7003    3.1718    0.0000 H   0  0  0  0  0  0  0  0  0  0  0  0
    3.9676   -3.4122    0.0000 H   0  0  0  0  0  0  0  0  0  0  0  0
    4.8136   -3.1820    0.0000 H   0  0  0  0  0  0  0  0  0  0  0  0
    4.5834   -2.3360    0.0000 H   0  0  0  0  0  0  0  0  0  0  0  0
    2.0000   -1.1929    0.0000 H   0  0  0  0  0  0  0  0  0  0  0  0
   10.0758    3.5008    0.0000 H   0  0  0  0  0  0  0  0  0  0  0  0
   13.3683    1.6451    0.0000 H   0  0  0  0  0  0  0  0  0  0  0  0
   13.5919    2.4929    0.0000 H   0  0  0  0  0  0  0  0  0  0  0  0
   12.7441    2.7166    0.0000 H   0  0  0  0  0  0  0  0  0  0  0  0
   11.3218   -0.4941    0.0000 H   0  0  0  0  0  0  0  0  0  0  0  0
    2.5458   -3.5008    0.0000 H   0  0  0  0  0  0  0  0  0  0  0  0
  1 13  1  0  0  0  0
  1 30  1  0  0  0  0
  2 12  1  0  0  0  0
  2 41  1  0  0  0  0
  3 16  2  0  0  0  0
  4 19  1  0  0  0  0
  4 50  1  0  0  0  0
  5 18  2  0  0  0  0
  6 22  1  0  0  0  0
  6 57  1  0  0  0  0
  7 23  1  0  0  0  0
  7 58  1  0  0  0  0
  8 27  1  0  0  0  0
  8 62  1  0  0  0  0
  9 28  1  0  0  0  0
  9 63  1  0  0  0  0
 10 11  1  0  0  0  0
 10 12  1  0  0  0  0
 10 13  1  0  0  0  0
 10 34  1  0  0  0  0
 11 14  1  0  0  0  0
 11 35  1  0  0  0  0
 11 36  1  0  0  0  0
 12 16  1  0  0  0  0
 12 37  1  0  0  0  0
 13 18  1  0  0  0  0
 13 38  1  0  0  0  0
 14 15  2  0  0  0  0
 14 17  1  0  0  0  0
 15 16  1  0  0  0  0
 15 19  1  0  0  0  0
 17 21  2  0  0  0  0
 17 39  1  0  0  0  0
 18 22  1  0  0  0  0
 19 20  2  0  0  0  0
 20 21  1  0  0  0  0
 20 23  1  0  0  0  0
 21 26  1  0  0  0  0
 22 28  1  0  0  0  0
 22 40  1  0  0  0  0
 23 24  2  0  0  0  0
 24 25  1  0  0  0  0
 24 27  1  0  0  0  0
 25 29  1  0  0  0  0
 25 31  1  0  0  0  0
 25 42  1  0  0  0  0
 26 27  2  0  0  0  0
 26 43  1  0  0  0  0
 28 32  1  0  0  0  0
 28 44  1  0  0  0  0
 29 33  1  0  0  0  0
 29 45  1  0  0  0  0
 29 46  1  0  0  0  0
 30 47  1  0  0  0  0
 30 48  1  0  0  0  0
 30 49  1  0  0  0  0
 31 51  1  0  0  0  0
 31 52  1  0  0  0  0
 31 53  1  0  0  0  0
 32 54  1  0  0  0  0
 32 55  1  0  0  0  0
 32 56  1  0  0  0  0
 33 59  1  0  0  0  0
 33 60  1  0  0  0  0
 33 61  1  0  0  0  0
M  END
> <PUBCHEM_COMPOUND_CID>
503726
> <PUBCHEM_COMPOUND_CANONICALIZED>
1
> <PUBCHEM_CACTVS_COMPLEXITY>
714
> <PUBCHEM_CACTVS_HBOND_ACCEPTOR>
9
> <PUBCHEM_CACTVS_HBOND_DONOR>
6
> <PUBCHEM_CACTVS_ROTATABLE_BOND>
7
> <PUBCHEM_CACTVS_SUBSKEYS>
AAADceB4PAAAAAAAAAAAAAAAAAAAAAAAAAAwYMAAAAAAAADBUAAAGgAACAAADRSgmAIyBsAABgCIAqBSAAICAAAkIAAAiAFGCMgJNzaCFRaAcUAl4BUJmQfK7vTu4AADCAAYAADAAAYQADAAAAAAAAAAAA==
> <PUBCHEM_IUPAC_OPENEYE_NAME>
3-(3,4-dihydroxy-1-methoxy-2-oxo-pentyl)-2,6,8,9-tetrahydroxy-7-sec-butyl-3,4-dihydro-2H-anthracen-1-one
> <PUBCHEM_IUPAC_CAS_NAME>
7-butan-2-yl-3-(3,4-dihydroxy-1-methoxy-2-oxopentyl)-2,6,8,9-tetrahydroxy-3,4-dihydro-2H-anthracen-1-one
> <PUBCHEM_IUPAC_NAME_MARKUP>
7-butan-2-yl-3-(3,4-dihydroxy-1-methoxy-2-oxopentyl)-2,6,8,9-tetrahydroxy-3,4-dihydro-2<I>H</I>-anthracen-1-one
> <PUBCHEM_IUPAC_NAME>
7-butan-2-yl-3-(3,4-dihydroxy-1-methoxy-2-oxopentyl)-2,6,8,9-tetrahydroxy-3,4-dihydro-2H-anthracen-1-one
> <PUBCHEM_IUPAC_SYSTEMATIC_NAME>
7-butan-2-yl-3-[1-methoxy-3,4-bis(oxidanyl)-2-oxidanylidene-pentyl]-2,6,8,9-tetrakis(oxidanyl)-3,4-dihydro-2H-anthracen-1-one
> <PUBCHEM_IUPAC_TRADITIONAL_NAME>
3-(3,4-dihydroxy-2-keto-1-methoxy-pentyl)-2,6,8,9-tetrahydroxy-7-sec-butyl-3,4-dihydro-2H-anthracen-1-one
> <PUBCHEM_IUPAC_INCHI>
InChI=1S/C24H30O9/c1-5-9(2)15-14(26)8-12-6-11-7-13(24(33-4)23(32)18(27)10(3)25)19(28)22(31)17(11)21(30)16(12)20(15)29/h6,8-10,13,18-19,24-30H,5,7H2,1-4H3
> <PUBCHEM_IUPAC_INCHIKEY>
HKVWXVBVZUGSNU-UHFFFAOYSA-N
> <PUBCHEM_XLOGP3_AA>
2.5
> <PUBCHEM_EXACT_MASS>
462.18898253
> <PUBCHEM_MOLECULAR_FORMULA>
C24H30O9
> <PUBCHEM_MOLECULAR_WEIGHT>
462.5
> <PUBCHEM_OPENEYE_CAN_SMILES>
CCC(C)C1=C(C2=C(C3=C(CC(C(C3=O)O)C(C(=O)C(C(C)O)O)OC)C=C2C=C1O)O)O
> <PUBCHEM_OPENEYE_ISO_SMILES>
CCC(C)C1=C(C2=C(C3=C(CC(C(C3=O)O)C(C(=O)C(C(C)O)O)OC)C=C2C=C1O)O)O
> <PUBCHEM_CACTVS_TPSA>
165
> <PUBCHEM_MONOISOTOPIC_WEIGHT>
462.18898253
> <PUBCHEM_TOTAL_CHARGE>
0
> <PUBCHEM_HEAVY_ATOM_COUNT>
33
> <PUBCHEM_ATOM_DEF_STEREO_COUNT>
0
> <PUBCHEM_ATOM_UDEF_STEREO_COUNT>
6
> <PUBCHEM_BOND_DEF_STEREO_COUNT>
0
> <PUBCHEM_BOND_UDEF_STEREO_COUNT>
0
> <PUBCHEM_ISOTOPIC_ATOM_COUNT>
0
> <PUBCHEM_COMPONENT_COUNT>
1
> <PUBCHEM_CACTVS_TAUTO_COUNT>
-1
> <PUBCHEM_COORDINATE_TYPE>
1
5
255
> <PUBCHEM_BONDANNOTATIONS>
10  11  3
13  18  3
14  15  8
14  17  8
15  19  8
17  21  8
19  20  8
12  2  3
20  21  8
20  23  8
21  26  8
23  24  8
24  27  8
25  31  3
26  27  8
22  6  3
28  9  3
$$$$
