503711
  -OEChem-10302200282D
 27 27  0     1  0  0  0  0  0999 V2000
    2.8660   -1.1550    0.0000 O   0  0  0  0  0  0  0  0  0  0  0  0
    2.0000   -2.6550    0.0000 O   0  0  0  0  0  0  0  0  0  0  0  0
    5.4641    0.3450    0.0000 O   0  0  0  0  0  0  0  0  0  0  0  0
    3.7320    0.3450    0.0000 N   0  0  0  0  0  0  0  0  0  0  0  0
    4.5981    1.8450    0.0000 N   0  0  0  0  0  0  0  0  0  0  0  0
    3.7320    3.3450    0.0000 N   0  0  0  0  0  0  0  0  0  0  0  0
    2.8660   -2.1550    0.0000 C   0  0  2  0  0  0  0  0  0  0  0  0
    3.7320   -2.6550    0.0000 C   0  0  0  0  0  0  0  0  0  0  0  0
    3.7320   -0.6550    0.0000 C   0  0  0  0  0  0  0  0  0  0  0  0
    3.7320   -3.6550    0.0000 C   0  0  0  0  0  0  0  0  0  0  0  0
    2.8660    0.8450    0.0000 C   0  0  0  0  0  0  0  0  0  0  0  0
    4.5981    0.8450    0.0000 C   0  0  0  0  0  0  0  0  0  0  0  0
    2.8660    1.8450    0.0000 C   0  0  0  0  0  0  0  0  0  0  0  0
    3.7320    2.3450    0.0000 C   0  0  0  0  0  0  0  0  0  0  0  0
    2.8660   -2.7750    0.0000 H   0  0  0  0  0  0  0  0  0  0  0  0
    4.3426   -2.7627    0.0000 H   0  0  0  0  0  0  0  0  0  0  0  0
    3.9441   -2.0724    0.0000 H   0  0  0  0  0  0  0  0  0  0  0  0
    3.9441   -1.2376    0.0000 H   0  0  0  0  0  0  0  0  0  0  0  0
    4.3426   -0.5473    0.0000 H   0  0  0  0  0  0  0  0  0  0  0  0
    3.1120   -3.6550    0.0000 H   0  0  0  0  0  0  0  0  0  0  0  0
    3.7320   -4.2750    0.0000 H   0  0  0  0  0  0  0  0  0  0  0  0
    4.3520   -3.6550    0.0000 H   0  0  0  0  0  0  0  0  0  0  0  0
    2.3291    0.5350    0.0000 H   0  0  0  0  0  0  0  0  0  0  0  0
    2.3291    2.1550    0.0000 H   0  0  0  0  0  0  0  0  0  0  0  0
    2.0000   -3.2750    0.0000 H   0  0  0  0  0  0  0  0  0  0  0  0
    3.1951    3.6550    0.0000 H   0  0  0  0  0  0  0  0  0  0  0  0
    4.2690    3.6550    0.0000 H   0  0  0  0  0  0  0  0  0  0  0  0
  1  7  1  0  0  0  0
  1  9  1  0  0  0  0
  7  2  1  1  0  0  0
  2 25  1  0  0  0  0
  3 12  2  0  0  0  0
  4  9  1  0  0  0  0
  4 11  1  0  0  0  0
  4 12  1  0  0  0  0
  5 12  1  0  0  0  0
  5 14  2  0  0  0  0
  6 14  1  0  0  0  0
  6 26  1  0  0  0  0
  6 27  1  0  0  0  0
  7  8  1  0  0  0  0
  7 15  1  0  0  0  0
  8 10  1  0  0  0  0
  8 16  1  0  0  0  0
  8 17  1  0  0  0  0
  9 18  1  0  0  0  0
  9 19  1  0  0  0  0
 10 20  1  0  0  0  0
 10 21  1  0  0  0  0
 10 22  1  0  0  0  0
 11 13  2  0  0  0  0
 11 23  1  0  0  0  0
 13 14  1  0  0  0  0
 13 24  1  0  0  0  0
M  END
> <PUBCHEM_COMPOUND_CID>
503711
> <PUBCHEM_COMPOUND_CANONICALIZED>
1
> <PUBCHEM_CACTVS_COMPLEXITY>
275
> <PUBCHEM_CACTVS_HBOND_ACCEPTOR>
3
> <PUBCHEM_CACTVS_HBOND_DONOR>
2
> <PUBCHEM_CACTVS_ROTATABLE_BOND>
4
> <PUBCHEM_CACTVS_SUBSKEYS>
AAADccBzMAAAAAAAAAAAAAAAAAAAAAAAAAAgAAAAAAAAAAAAAAAAHgAQCAAACADxgAcDCANABgCoACJmdACAAAEAAgAIAAAYABCQEAAAAAAIQAAAEgAAAAAAAAAAAAAAAAAAAAAAAAAAAAAAAAAAAAAAAA==
> <PUBCHEM_IUPAC_OPENEYE_NAME>
4-amino-1-[[(1S)-1-hydroxypropoxy]methyl]pyrimidin-2-one
> <PUBCHEM_IUPAC_CAS_NAME>
4-amino-1-[[(1S)-1-hydroxypropoxy]methyl]-2-pyrimidinone
> <PUBCHEM_IUPAC_NAME_MARKUP>
4-amino-1-[[(1<I>S</I>)-1-hydroxypropoxy]methyl]pyrimidin-2-one
> <PUBCHEM_IUPAC_NAME>
4-amino-1-[[(1S)-1-hydroxypropoxy]methyl]pyrimidin-2-one
> <PUBCHEM_IUPAC_SYSTEMATIC_NAME>
4-azanyl-1-[[(1S)-1-oxidanylpropoxy]methyl]pyrimidin-2-one
> <PUBCHEM_IUPAC_TRADITIONAL_NAME>
4-amino-1-[[(1S)-1-hydroxypropoxy]methyl]pyrimidin-2-one
> <PUBCHEM_IUPAC_INCHI>
InChI=1S/C8H13N3O3/c1-2-7(12)14-5-11-4-3-6(9)10-8(11)13/h3-4,7,12H,2,5H2,1H3,(H2,9,10,13)/t7-/m0/s1
> <PUBCHEM_IUPAC_INCHIKEY>
HHRCKLMAGFIMGZ-ZETCQYMHSA-N
> <PUBCHEM_XLOGP3_AA>
-0.8
> <PUBCHEM_EXACT_MASS>
199.09569129
> <PUBCHEM_MOLECULAR_FORMULA>
C8H13N3O3
> <PUBCHEM_MOLECULAR_WEIGHT>
199.21
> <PUBCHEM_OPENEYE_CAN_SMILES>
CCC(O)OCN1C=CC(=NC1=O)N
> <PUBCHEM_OPENEYE_ISO_SMILES>
CC[C@@H](O)OCN1C=CC(=NC1=O)N
> <PUBCHEM_CACTVS_TPSA>
88.2
> <PUBCHEM_MONOISOTOPIC_WEIGHT>
199.09569129
> <PUBCHEM_TOTAL_CHARGE>
0
> <PUBCHEM_HEAVY_ATOM_COUNT>
14
> <PUBCHEM_ATOM_DEF_STEREO_COUNT>
1
> <PUBCHEM_ATOM_UDEF_STEREO_COUNT>
0
> <PUBCHEM_BOND_DEF_STEREO_COUNT>
0
> <PUBCHEM_BOND_UDEF_STEREO_COUNT>
0
> <PUBCHEM_ISOTOPIC_ATOM_COUNT>
0
> <PUBCHEM_COMPONENT_COUNT>
1
> <PUBCHEM_CACTVS_TAUTO_COUNT>
-1
> <PUBCHEM_COORDINATE_TYPE>
1
5
255
> <PUBCHEM_BONDANNOTATIONS>
11  13  8
13  14  8
7  2  5
4  11  8
4  12  8
5  12  8
5  14  8
$$$$
