503736
  -OEChem-10302200282D
 52 54  0     1  0  0  0  0  0999 V2000
    5.1350   -0.8013    0.0000 O   0  0  0  0  0  0  0  0  0  0  0  0
    6.8671   -0.8013    0.0000 O   0  0  0  0  0  0  0  0  0  0  0  0
    5.1350   -3.8013    0.0000 O   0  0  0  0  0  0  0  0  0  0  0  0
    3.4030   -2.8013    0.0000 O   0  0  0  0  0  0  0  0  0  0  0  0
    6.8671   -2.8013    0.0000 O   0  0  0  0  0  0  0  0  0  0  0  0
    5.0910    2.2056    0.0000 O   0  0  0  0  0  0  0  0  0  0  0  0
    2.5369   -1.3013    0.0000 O   0  0  0  0  0  0  0  0  0  0  0  0
    8.5991    2.1987    0.0000 O   0  0  0  0  0  0  0  0  0  0  0  0
    9.4651    0.6987    0.0000 O   0  0  0  0  0  0  0  0  0  0  0  0
    5.1350   -2.8013    0.0000 C   0  0  1  0  0  0  0  0  0  0  0  0
    4.2690   -2.3013    0.0000 C   0  0  1  0  0  0  0  0  0  0  0  0
    6.0010   -2.3013    0.0000 C   0  0  2  0  0  0  0  0  0  0  0  0
    4.2690   -1.3013    0.0000 C   0  0  1  0  0  0  0  0  0  0  0  0
    6.0010   -1.3013    0.0000 C   0  0  1  0  0  0  0  0  0  0  0  0
    3.4030   -0.8013    0.0000 C   0  0  0  0  0  0  0  0  0  0  0  0
    6.8671    0.1987    0.0000 C   0  0  0  0  0  0  0  0  0  0  0  0
    6.0010    0.6987    0.0000 C   0  0  0  0  0  0  0  0  0  0  0  0
    5.0830    3.2472    0.0000 C   0  0  0  0  0  0  0  0  0  0  0  0
    6.0010    1.6987    0.0000 C   0  0  0  0  0  0  0  0  0  0  0  0
    6.8671    2.1987    0.0000 C   0  0  0  0  0  0  0  0  0  0  0  0
    7.7331    0.6987    0.0000 C   0  0  0  0  0  0  0  0  0  0  0  0
    7.7331    1.6987    0.0000 C   0  0  0  0  0  0  0  0  0  0  0  0
    5.9851    3.7680    0.0000 C   0  0  0  0  0  0  0  0  0  0  0  0
    6.8831    3.2402    0.0000 C   0  0  0  0  0  0  0  0  0  0  0  0
    4.5797    4.1113    0.0000 C   0  0  0  0  0  0  0  0  0  0  0  0
    4.0830    3.2433    0.0000 C   0  0  0  0  0  0  0  0  0  0  0  0
    5.1350    0.1987    0.0000 C   0  0  0  0  0  0  0  0  0  0  0  0
    8.5991    0.1987    0.0000 C   0  0  0  0  0  0  0  0  0  0  0  0
    4.5981   -3.1113    0.0000 H   0  0  0  0  0  0  0  0  0  0  0  0
    4.2690   -2.9213    0.0000 H   0  0  0  0  0  0  0  0  0  0  0  0
    6.0010   -2.9213    0.0000 H   0  0  0  0  0  0  0  0  0  0  0  0
    4.2690   -0.6813    0.0000 H   0  0  0  0  0  0  0  0  0  0  0  0
    6.5380   -1.6113    0.0000 H   0  0  0  0  0  0  0  0  0  0  0  0
    3.8015   -0.3263    0.0000 H   0  0  0  0  0  0  0  0  0  0  0  0
    3.0044   -0.3263    0.0000 H   0  0  0  0  0  0  0  0  0  0  0  0
    4.5981   -4.1113    0.0000 H   0  0  0  0  0  0  0  0  0  0  0  0
    3.4030   -3.4213    0.0000 H   0  0  0  0  0  0  0  0  0  0  0  0
    6.8671   -3.4213    0.0000 H   0  0  0  0  0  0  0  0  0  0  0  0
    5.9875    4.3880    0.0000 H   0  0  0  0  0  0  0  0  0  0  0  0
    7.4236    3.5440    0.0000 H   0  0  0  0  0  0  0  0  0  0  0  0
    2.0000   -0.9913    0.0000 H   0  0  0  0  0  0  0  0  0  0  0  0
    5.1154    4.4233    0.0000 H   0  0  0  0  0  0  0  0  0  0  0  0
    4.2676    4.6470    0.0000 H   0  0  0  0  0  0  0  0  0  0  0  0
    4.0439    3.7992    0.0000 H   0  0  0  0  0  0  0  0  0  0  0  0
    4.0806    3.8633    0.0000 H   0  0  0  0  0  0  0  0  0  0  0  0
    3.4630    3.2409    0.0000 H   0  0  0  0  0  0  0  0  0  0  0  0
    4.0854    2.6233    0.0000 H   0  0  0  0  0  0  0  0  0  0  0  0
    4.8250    0.7357    0.0000 H   0  0  0  0  0  0  0  0  0  0  0  0
    4.5981   -0.1113    0.0000 H   0  0  0  0  0  0  0  0  0  0  0  0
    5.4450   -0.3382    0.0000 H   0  0  0  0  0  0  0  0  0  0  0  0
    8.5991   -0.4213    0.0000 H   0  0  0  0  0  0  0  0  0  0  0  0
    8.5991    2.8187    0.0000 H   0  0  0  0  0  0  0  0  0  0  0  0
  1 13  1  0  0  0  0
  1 14  1  0  0  0  0
 14  2  1  1  0  0  0
  2 16  1  0  0  0  0
 10  3  1  1  0  0  0
  3 36  1  0  0  0  0
 11  4  1  6  0  0  0
  4 37  1  0  0  0  0
 12  5  1  6  0  0  0
  5 38  1  0  0  0  0
  6 18  1  0  0  0  0
  6 19  1  0  0  0  0
  7 15  1  0  0  0  0
  7 41  1  0  0  0  0
  8 22  1  0  0  0  0
  8 52  1  0  0  0  0
  9 28  2  0  0  0  0
 10 11  1  0  0  0  0
 10 12  1  0  0  0  0
 10 29  1  0  0  0  0
 11 13  1  0  0  0  0
 11 30  1  0  0  0  0
 12 14  1  0  0  0  0
 12 31  1  0  0  0  0
 13 15  1  1  0  0  0
 13 32  1  0  0  0  0
 14 33  1  0  0  0  0
 15 34  1  0  0  0  0
 15 35  1  0  0  0  0
 16 17  1  0  0  0  0
 16 21  2  0  0  0  0
 17 19  2  0  0  0  0
 17 27  1  0  0  0  0
 18 23  1  0  0  0  0
 18 25  1  0  0  0  0
 18 26  1  0  0  0  0
 19 20  1  0  0  0  0
 20 22  2  0  0  0  0
 20 24  1  0  0  0  0
 21 22  1  0  0  0  0
 21 28  1  0  0  0  0
 23 24  2  0  0  0  0
 23 39  1  0  0  0  0
 24 40  1  0  0  0  0
 25 42  1  0  0  0  0
 25 43  1  0  0  0  0
 25 44  1  0  0  0  0
 26 45  1  0  0  0  0
 26 46  1  0  0  0  0
 26 47  1  0  0  0  0
 27 48  1  0  0  0  0
 27 49  1  0  0  0  0
 27 50  1  0  0  0  0
 28 51  1  0  0  0  0
M  END
> <PUBCHEM_COMPOUND_CID>
503736
> <PUBCHEM_COMPOUND_CANONICALIZED>
1
> <PUBCHEM_CACTVS_COMPLEXITY>
594
> <PUBCHEM_CACTVS_HBOND_ACCEPTOR>
9
> <PUBCHEM_CACTVS_HBOND_DONOR>
5
> <PUBCHEM_CACTVS_ROTATABLE_BOND>
4
> <PUBCHEM_CACTVS_SUBSKEYS>
AAADceB4PAAAAAAAAAAAAAAAAAAAAAAAAAA0QIAAAAAAAACBAAAAGgAACAAADFSwmAMCDoAABgCIAihSgAACCAAkIAAIiAEECMgdNzaGNBqieWCl4BUPuQfI7GzOIAACCAAIAABAAAQQABAAAAAAAAAAAA==
> <PUBCHEM_IUPAC_OPENEYE_NAME>
5-hydroxy-2,2,8-trimethyl-7-[(2S,3R,4S,5S,6R)-3,4,5-trihydroxy-6-(hydroxymethyl)tetrahydropyran-2-yl]oxy-chromene-6-carbaldehyde
> <PUBCHEM_IUPAC_CAS_NAME>
5-hydroxy-2,2,8-trimethyl-7-[[(2S,3R,4S,5S,6R)-3,4,5-trihydroxy-6-(hydroxymethyl)-2-oxanyl]oxy]-1-benzopyran-6-carboxaldehyde
> <PUBCHEM_IUPAC_NAME_MARKUP>
5-hydroxy-2,2,8-trimethyl-7-[(2<I>S</I>,3<I>R</I>,4<I>S</I>,5<I>S</I>,6<I>R</I>)-3,4,5-trihydroxy-6-(hydroxymethyl)oxan-2-yl]oxychromene-6-carbaldehyde
> <PUBCHEM_IUPAC_NAME>
5-hydroxy-2,2,8-trimethyl-7-[(2S,3R,4S,5S,6R)-3,4,5-trihydroxy-6-(hydroxymethyl)oxan-2-yl]oxychromene-6-carbaldehyde
> <PUBCHEM_IUPAC_SYSTEMATIC_NAME>
7-[(2S,3R,4S,5S,6R)-6-(hydroxymethyl)-3,4,5-tris(oxidanyl)oxan-2-yl]oxy-2,2,8-trimethyl-5-oxidanyl-chromene-6-carbaldehyde
> <PUBCHEM_IUPAC_TRADITIONAL_NAME>
5-hydroxy-2,2,8-trimethyl-7-[(2S,3R,4S,5S,6R)-3,4,5-trihydroxy-6-methylol-tetrahydropyran-2-yl]oxy-chromene-6-carbaldehyde
> <PUBCHEM_IUPAC_INCHI>
InChI=1S/C19H24O9/c1-8-16(27-18-15(25)14(24)13(23)11(7-21)26-18)10(6-20)12(22)9-4-5-19(2,3)28-17(8)9/h4-6,11,13-15,18,21-25H,7H2,1-3H3/t11-,13-,14+,15-,18+/m1/s1
> <PUBCHEM_IUPAC_INCHIKEY>
AGBSYAOZFIUAOO-YYZLIPTLSA-N
> <PUBCHEM_XLOGP3_AA>
0.7
> <PUBCHEM_EXACT_MASS>
396.14203234
> <PUBCHEM_MOLECULAR_FORMULA>
C19H24O9
> <PUBCHEM_MOLECULAR_WEIGHT>
396.4
> <PUBCHEM_OPENEYE_CAN_SMILES>
CC1=C2C(=C(C(=C1OC3C(C(C(C(O3)CO)O)O)O)C=O)O)C=CC(O2)(C)C
> <PUBCHEM_OPENEYE_ISO_SMILES>
CC1=C2C(=C(C(=C1O[C@H]3[C@@H]([C@H]([C@@H]([C@H](O3)CO)O)O)O)C=O)O)C=CC(O2)(C)C
> <PUBCHEM_CACTVS_TPSA>
146
> <PUBCHEM_MONOISOTOPIC_WEIGHT>
396.14203234
> <PUBCHEM_TOTAL_CHARGE>
0
> <PUBCHEM_HEAVY_ATOM_COUNT>
28
> <PUBCHEM_ATOM_DEF_STEREO_COUNT>
5
> <PUBCHEM_ATOM_UDEF_STEREO_COUNT>
0
> <PUBCHEM_BOND_DEF_STEREO_COUNT>
0
> <PUBCHEM_BOND_UDEF_STEREO_COUNT>
0
> <PUBCHEM_ISOTOPIC_ATOM_COUNT>
0
> <PUBCHEM_COMPONENT_COUNT>
1
> <PUBCHEM_CACTVS_TAUTO_COUNT>
-1
> <PUBCHEM_COORDINATE_TYPE>
1
5
255
> <PUBCHEM_BONDANNOTATIONS>
13  15  5
16  17  8
16  21  8
17  19  8
19  20  8
14  2  5
20  22  8
21  22  8
10  3  5
11  4  6
12  5  6
$$$$
