503752
  -OEChem-10302200282D
 35 37  0     1  0  0  0  0  0999 V2000
    8.0935   -1.0568    0.0000 Cl  0  0  0  0  0  0  0  0  0  0  0  0
    4.4955   -1.5568    0.0000 Cl  0  0  0  0  0  0  0  0  0  0  0  0
    7.1705    0.5310    0.0000 S   0  0  0  0  0  0  0  0  0  0  0  0
    5.2737    2.2910    0.0000 O   0  0  0  0  0  0  0  0  0  0  0  0
    2.9782    2.8489    0.0000 O   0  0  0  0  0  0  0  0  0  0  0  0
    5.5525    0.5310    0.0000 N   0  0  0  0  0  0  0  0  0  0  0  0
    6.3615   -0.0568    0.0000 C   0  0  3  0  0  0  0  0  0  0  0  0
    6.3615   -1.0568    0.0000 C   0  0  0  0  0  0  0  0  0  0  0  0
    6.8615    1.4820    0.0000 C   0  0  0  0  0  0  0  0  0  0  0  0
    5.8615    1.4820    0.0000 C   0  0  0  0  0  0  0  0  0  0  0  0
    4.5743    0.7389    0.0000 C   0  0  0  0  0  0  0  0  0  0  0  0
    7.2275   -1.5568    0.0000 C   0  0  0  0  0  0  0  0  0  0  0  0
    5.4955   -1.5568    0.0000 C   0  0  0  0  0  0  0  0  0  0  0  0
    4.2653    1.6899    0.0000 C   0  0  0  0  0  0  0  0  0  0  0  0
    3.9052   -0.0043    0.0000 C   0  0  0  0  0  0  0  0  0  0  0  0
    3.2872    1.8978    0.0000 C   0  0  0  0  0  0  0  0  0  0  0  0
    7.2275   -2.5568    0.0000 C   0  0  0  0  0  0  0  0  0  0  0  0
    5.4955   -2.5568    0.0000 C   0  0  0  0  0  0  0  0  0  0  0  0
    2.9270    0.2037    0.0000 C   0  0  0  0  0  0  0  0  0  0  0  0
    2.6181    1.1548    0.0000 C   0  0  0  0  0  0  0  0  0  0  0  0
    6.3615   -3.0568    0.0000 C   0  0  0  0  0  0  0  0  0  0  0  0
    2.0000    3.0568    0.0000 C   0  0  0  0  0  0  0  0  0  0  0  0
    5.8091   -0.3383    0.0000 H   0  0  0  0  0  0  0  0  0  0  0  0
    7.4680    1.6109    0.0000 H   0  0  0  0  0  0  0  0  0  0  0  0
    6.7967    2.0986    0.0000 H   0  0  0  0  0  0  0  0  0  0  0  0
    4.6802    2.1507    0.0000 H   0  0  0  0  0  0  0  0  0  0  0  0
    4.0968   -0.5939    0.0000 H   0  0  0  0  0  0  0  0  0  0  0  0
    7.7644   -2.8668    0.0000 H   0  0  0  0  0  0  0  0  0  0  0  0
    4.9585   -2.8668    0.0000 H   0  0  0  0  0  0  0  0  0  0  0  0
    2.5122   -0.2571    0.0000 H   0  0  0  0  0  0  0  0  0  0  0  0
    2.0116    1.2837    0.0000 H   0  0  0  0  0  0  0  0  0  0  0  0
    6.3615   -3.6768    0.0000 H   0  0  0  0  0  0  0  0  0  0  0  0
    2.1289    3.6633    0.0000 H   0  0  0  0  0  0  0  0  0  0  0  0
    1.3936    3.1857    0.0000 H   0  0  0  0  0  0  0  0  0  0  0  0
    1.8711    2.4504    0.0000 H   0  0  0  0  0  0  0  0  0  0  0  0
  1 12  1  0  0  0  0
  2 13  1  0  0  0  0
  3  7  1  0  0  0  0
  3  9  1  0  0  0  0
  4 10  2  0  0  0  0
  5 16  1  0  0  0  0
  5 22  1  0  0  0  0
  6  7  1  0  0  0  0
  6 10  1  0  0  0  0
  6 11  1  0  0  0  0
  7  8  1  0  0  0  0
  7 23  1  0  0  0  0
  8 12  2  0  0  0  0
  8 13  1  0  0  0  0
  9 10  1  0  0  0  0
  9 24  1  0  0  0  0
  9 25  1  0  0  0  0
 11 14  2  0  0  0  0
 11 15  1  0  0  0  0
 12 17  1  0  0  0  0
 13 18  2  0  0  0  0
 14 16  1  0  0  0  0
 14 26  1  0  0  0  0
 15 19  2  0  0  0  0
 15 27  1  0  0  0  0
 16 20  2  0  0  0  0
 17 21  2  0  0  0  0
 17 28  1  0  0  0  0
 18 21  1  0  0  0  0
 18 29  1  0  0  0  0
 19 20  1  0  0  0  0
 19 30  1  0  0  0  0
 20 31  1  0  0  0  0
 21 32  1  0  0  0  0
 22 33  1  0  0  0  0
 22 34  1  0  0  0  0
 22 35  1  0  0  0  0
M  END
> <PUBCHEM_COMPOUND_CID>
503752
> <PUBCHEM_COMPOUND_CANONICALIZED>
1
> <PUBCHEM_CACTVS_COMPLEXITY>
402
> <PUBCHEM_CACTVS_HBOND_ACCEPTOR>
3
> <PUBCHEM_CACTVS_HBOND_DONOR>
0
> <PUBCHEM_CACTVS_ROTATABLE_BOND>
3
> <PUBCHEM_CACTVS_SUBSKEYS>
AAADccB6MABGAAAAAAAAAAAAAAAAAWAAAAAwYAAAAAAAAAABQAAAHgYAAAAADA7F2CayxoMABAiIAiVSUACCCABhJxAIiAAObogMJiLls5uEMChmxhno6AeQ0AMOAAAAAgCBAAAAAAAEAQIAAAAAAAAAAA==
> <PUBCHEM_IUPAC_OPENEYE_NAME>
2-(2,6-dichlorophenyl)-3-(3-methoxyphenyl)thiazolidin-4-one
> <PUBCHEM_IUPAC_CAS_NAME>
2-(2,6-dichlorophenyl)-3-(3-methoxyphenyl)-4-thiazolidinone
> <PUBCHEM_IUPAC_NAME_MARKUP>
2-(2,6-dichlorophenyl)-3-(3-methoxyphenyl)-1,3-thiazolidin-4-one
> <PUBCHEM_IUPAC_NAME>
2-(2,6-dichlorophenyl)-3-(3-methoxyphenyl)-1,3-thiazolidin-4-one
> <PUBCHEM_IUPAC_SYSTEMATIC_NAME>
2-[2,6-bis(chloranyl)phenyl]-3-(3-methoxyphenyl)-1,3-thiazolidin-4-one
> <PUBCHEM_IUPAC_TRADITIONAL_NAME>
2-(2,6-dichlorophenyl)-3-(3-methoxyphenyl)thiazolidin-4-one
> <PUBCHEM_IUPAC_INCHI>
InChI=1S/C16H13Cl2NO2S/c1-21-11-5-2-4-10(8-11)19-14(20)9-22-16(19)15-12(17)6-3-7-13(15)18/h2-8,16H,9H2,1H3
> <PUBCHEM_IUPAC_INCHIKEY>
SAGHDGPCIBITSC-UHFFFAOYSA-N
> <PUBCHEM_XLOGP3_AA>
4.6
> <PUBCHEM_EXACT_MASS>
353.0044052
> <PUBCHEM_MOLECULAR_FORMULA>
C16H13Cl2NO2S
> <PUBCHEM_MOLECULAR_WEIGHT>
354.2
> <PUBCHEM_OPENEYE_CAN_SMILES>
COC1=CC=CC(=C1)N2C(SCC2=O)C3=C(C=CC=C3Cl)Cl
> <PUBCHEM_OPENEYE_ISO_SMILES>
COC1=CC=CC(=C1)N2C(SCC2=O)C3=C(C=CC=C3Cl)Cl
> <PUBCHEM_CACTVS_TPSA>
54.8
> <PUBCHEM_MONOISOTOPIC_WEIGHT>
353.0044052
> <PUBCHEM_TOTAL_CHARGE>
0
> <PUBCHEM_HEAVY_ATOM_COUNT>
22
> <PUBCHEM_ATOM_DEF_STEREO_COUNT>
0
> <PUBCHEM_ATOM_UDEF_STEREO_COUNT>
1
> <PUBCHEM_BOND_DEF_STEREO_COUNT>
0
> <PUBCHEM_BOND_UDEF_STEREO_COUNT>
0
> <PUBCHEM_ISOTOPIC_ATOM_COUNT>
0
> <PUBCHEM_COMPONENT_COUNT>
1
> <PUBCHEM_CACTVS_TAUTO_COUNT>
-1
> <PUBCHEM_COORDINATE_TYPE>
1
5
255
> <PUBCHEM_BONDANNOTATIONS>
11  14  8
11  15  8
12  17  8
13  18  8
14  16  8
15  19  8
16  20  8
17  21  8
18  21  8
19  20  8
7  8  3
8  12  8
8  13  8
$$$$
