503700
  -OEChem-10302200282D
 20 20  0     1  0  0  0  0  0999 V2000
    5.4641   -1.1900    0.0000 O   0  0  0  0  0  0  0  0  0  0  0  0
    2.0000   -1.1900    0.0000 O   0  0  0  0  0  0  0  0  0  0  0  0
    4.5981    0.3100    0.0000 N   0  0  0  0  0  0  0  0  0  0  0  0
    3.7320   -1.1900    0.0000 N   0  0  0  0  0  0  0  0  0  0  0  0
    3.7320    0.8100    0.0000 C   0  0  3  0  0  0  0  0  0  0  0  0
    2.8660    0.3100    0.0000 C   0  0  0  0  0  0  0  0  0  0  0  0
    3.7320    1.8100    0.0000 C   0  0  0  0  0  0  0  0  0  0  0  0
    2.8660   -0.6900    0.0000 C   0  0  0  0  0  0  0  0  0  0  0  0
    4.5981   -0.6900    0.0000 C   0  0  0  0  0  0  0  0  0  0  0  0
    6.3301   -0.6900    0.0000 C   0  0  0  0  0  0  0  0  0  0  0  0
    4.2690    1.1200    0.0000 H   0  0  0  0  0  0  0  0  0  0  0  0
    2.6540    0.8926    0.0000 H   0  0  0  0  0  0  0  0  0  0  0  0
    2.2554    0.2023    0.0000 H   0  0  0  0  0  0  0  0  0  0  0  0
    4.3520    1.8100    0.0000 H   0  0  0  0  0  0  0  0  0  0  0  0
    3.7320    2.4300    0.0000 H   0  0  0  0  0  0  0  0  0  0  0  0
    3.1120    1.8100    0.0000 H   0  0  0  0  0  0  0  0  0  0  0  0
    3.7320   -1.8100    0.0000 H   0  0  0  0  0  0  0  0  0  0  0  0
    6.6401   -1.2269    0.0000 H   0  0  0  0  0  0  0  0  0  0  0  0
    6.8671   -0.3800    0.0000 H   0  0  0  0  0  0  0  0  0  0  0  0
    6.0201   -0.1531    0.0000 H   0  0  0  0  0  0  0  0  0  0  0  0
  1  9  1  0  0  0  0
  1 10  1  0  0  0  0
  2  8  2  0  0  0  0
  3  5  1  0  0  0  0
  3  9  2  0  0  0  0
  4  8  1  0  0  0  0
  4  9  1  0  0  0  0
  4 17  1  0  0  0  0
  5  6  1  0  0  0  0
  5  7  1  0  0  0  0
  5 11  1  0  0  0  0
  6  8  1  0  0  0  0
  6 12  1  0  0  0  0
  6 13  1  0  0  0  0
  7 14  1  0  0  0  0
  7 15  1  0  0  0  0
  7 16  1  0  0  0  0
 10 18  1  0  0  0  0
 10 19  1  0  0  0  0
 10 20  1  0  0  0  0
M  END
> <PUBCHEM_COMPOUND_CID>
503700
> <PUBCHEM_COMPOUND_CANONICALIZED>
1
> <PUBCHEM_CACTVS_COMPLEXITY>
177
> <PUBCHEM_CACTVS_HBOND_ACCEPTOR>
3
> <PUBCHEM_CACTVS_HBOND_DONOR>
1
> <PUBCHEM_CACTVS_ROTATABLE_BOND>
1
> <PUBCHEM_CACTVS_SUBSKEYS>
AAADccBjMAAAAAAAAAAAAAAAAAAAAAAAAAAgAAAAAAAAAAAAAAAAHgAQAAAACCjBgAYDAALABAAoAAEQNAAAAAEAAAABAAEAAAEAABgAyAAEAAAAEAAAAAAAAAAAAAAAAAAAAAAAAAAAAAAAAAAAAAAAAA==
> <PUBCHEM_IUPAC_OPENEYE_NAME>
2-methoxy-4-methyl-4,5-dihydro-1H-pyrimidin-6-one
> <PUBCHEM_IUPAC_CAS_NAME>
2-methoxy-4-methyl-4,5-dihydro-1H-pyrimidin-6-one
> <PUBCHEM_IUPAC_NAME_MARKUP>
2-methoxy-4-methyl-4,5-dihydro-1<I>H</I>-pyrimidin-6-one
> <PUBCHEM_IUPAC_NAME>
2-methoxy-4-methyl-4,5-dihydro-1H-pyrimidin-6-one
> <PUBCHEM_IUPAC_SYSTEMATIC_NAME>
2-methoxy-4-methyl-4,5-dihydro-1H-pyrimidin-6-one
> <PUBCHEM_IUPAC_TRADITIONAL_NAME>
2-methoxy-4-methyl-4,5-dihydro-1H-pyrimidin-6-one
> <PUBCHEM_IUPAC_INCHI>
InChI=1S/C6H10N2O2/c1-4-3-5(9)8-6(7-4)10-2/h4H,3H2,1-2H3,(H,7,8,9)
> <PUBCHEM_IUPAC_INCHIKEY>
YQZORBXQQJPEKP-UHFFFAOYSA-N
> <PUBCHEM_XLOGP3_AA>
-0.3
> <PUBCHEM_EXACT_MASS>
142.074227566
> <PUBCHEM_MOLECULAR_FORMULA>
C6H10N2O2
> <PUBCHEM_MOLECULAR_WEIGHT>
142.16
> <PUBCHEM_OPENEYE_CAN_SMILES>
CC1CC(=O)NC(=N1)OC
> <PUBCHEM_OPENEYE_ISO_SMILES>
CC1CC(=O)NC(=N1)OC
> <PUBCHEM_CACTVS_TPSA>
50.7
> <PUBCHEM_MONOISOTOPIC_WEIGHT>
142.074227566
> <PUBCHEM_TOTAL_CHARGE>
0
> <PUBCHEM_HEAVY_ATOM_COUNT>
10
> <PUBCHEM_ATOM_DEF_STEREO_COUNT>
0
> <PUBCHEM_ATOM_UDEF_STEREO_COUNT>
1
> <PUBCHEM_BOND_DEF_STEREO_COUNT>
0
> <PUBCHEM_BOND_UDEF_STEREO_COUNT>
0
> <PUBCHEM_ISOTOPIC_ATOM_COUNT>
0
> <PUBCHEM_COMPONENT_COUNT>
1
> <PUBCHEM_CACTVS_TAUTO_COUNT>
-1
> <PUBCHEM_COORDINATE_TYPE>
1
5
255
> <PUBCHEM_BONDANNOTATIONS>
5  7  3
$$$$
