503815
  -OEChem-10302200282D
140145  0     1  0  0  0  0  0999 V2000
    6.9699   -0.6067    0.0000 O   0  0  0  0  0  0  0  0  0  0  0  0
    4.3719   -1.1067    0.0000 O   0  0  0  0  0  0  0  0  0  0  0  0
    8.4699   -1.7406    0.0000 O   0  0  0  0  0  0  0  0  0  0  0  0
    5.5948    2.4638    0.0000 O   0  0  0  0  0  0  0  0  0  0  0  0
   10.9359   -4.5975    0.0000 O   0  0  0  0  0  0  0  0  0  0  0  0
    5.5330    3.3559    0.0000 O   0  0  0  0  0  0  0  0  0  0  0  0
    6.2628   -7.2955    0.0000 O   0  0  0  0  0  0  0  0  0  0  0  0
    4.7263    3.3822    0.0000 O   0  0  0  0  0  0  0  0  0  0  0  0
   11.6448   -6.9198    0.0000 O   0  0  0  0  0  0  0  0  0  0  0  0
    8.4170    6.5776    0.0000 O   0  0  0  0  0  0  0  0  0  0  0  0
   11.4188   -5.2025    0.0000 O   0  0  0  0  0  0  0  0  0  0  0  0
    6.7027    6.8247    0.0000 O   0  0  0  0  0  0  0  0  0  0  0  0
    6.9699   -2.6067    0.0000 N   0  0  0  0  0  0  0  0  0  0  0  0
    6.1100    0.8827    0.0000 N   0  0  0  0  0  0  0  0  0  0  0  0
    9.4359   -3.7315    0.0000 N   0  0  0  0  0  0  0  0  0  0  0  0
    7.2650    3.3346    0.0000 N   0  0  0  0  0  0  0  0  0  0  0  0
    6.9699   -5.5884    0.0000 N   0  0  0  0  0  0  0  0  0  0  0  0
    3.5103    4.1042    0.0000 N   0  0  0  0  0  0  0  0  0  0  0  0
   10.0446   -6.2569    0.0000 N   0  0  0  0  0  0  0  0  0  0  0  0
    7.3459    5.2165    0.0000 N   0  0  0  0  0  0  0  0  0  0  0  0
    6.1039   -1.1067    0.0000 C   0  0  1  0  0  0  0  0  0  0  0  0
    5.2379   -0.6067    0.0000 C   0  0  1  0  0  0  0  0  0  0  0  0
    6.1039   -2.1067    0.0000 C   0  0  2  0  0  0  0  0  0  0  0  0
    5.2379    0.3933    0.0000 C   0  0  2  0  0  0  0  0  0  0  0  0
    5.2379   -2.5884    0.0000 C   0  0  0  0  0  0  0  0  0  0  0  0
    4.3658    0.7474    0.0000 C   0  0  0  0  0  0  0  0  0  0  0  0
    8.4699   -3.4727    0.0000 C   0  0  2  0  0  0  0  0  0  0  0  0
    7.2527    2.3347    0.0000 C   0  0  2  0  0  0  0  0  0  0  0  0
    7.9699   -2.6067    0.0000 C   0  0  0  0  0  0  0  0  0  0  0  0
    6.3806    1.8454    0.0000 C   0  0  0  0  0  0  0  0  0  0  0  0
    5.2379   -3.5884    0.0000 C   0  0  0  0  0  0  0  0  0  0  0  0
    3.6674    1.4632    0.0000 C   0  0  0  0  0  0  0  0  0  0  0  0
    7.8612   -4.2660    0.0000 C   0  0  0  0  0  0  0  0  0  0  0  0
    8.1125    1.8242    0.0000 C   0  0  0  0  0  0  0  0  0  0  0  0
    5.2379   -4.5884    0.0000 C   0  0  0  0  0  0  0  0  0  0  0  0
    3.9380    2.4258    0.0000 C   0  0  0  0  0  0  0  0  0  0  0  0
    6.1039   -3.0884    0.0000 C   0  0  0  0  0  0  0  0  0  0  0  0
    2.6984    1.2162    0.0000 C   0  0  0  0  0  0  0  0  0  0  0  0
    8.6545   -4.8748    0.0000 C   0  0  0  0  0  0  0  0  0  0  0  0
    6.7210   -4.1159    0.0000 C   0  0  0  0  0  0  0  0  0  0  0  0
    8.9846    2.3135    0.0000 C   0  0  0  0  0  0  0  0  0  0  0  0
    8.1003    0.8242    0.0000 C   0  0  0  0  0  0  0  0  0  0  0  0
    9.4359   -5.4636    0.0000 C   0  0  2  0  0  0  0  0  0  0  0  0
    6.4174    4.8451    0.0000 C   0  0  2  0  0  0  0  0  0  0  0  0
    9.9359   -4.5975    0.0000 C   0  0  0  0  0  0  0  0  0  0  0  0
    6.4051    3.8452    0.0000 C   0  0  0  0  0  0  0  0  0  0  0  0
    6.1039   -5.0884    0.0000 C   0  0  0  0  0  0  0  0  0  0  0  0
    3.2397    3.1416    0.0000 C   0  0  0  0  0  0  0  0  0  0  0  0
    8.4699   -5.7224    0.0000 C   0  0  0  0  0  0  0  0  0  0  0  0
    5.7190    5.5609    0.0000 C   0  0  0  0  0  0  0  0  0  0  0  0
    6.9699   -3.5884    0.0000 C   0  0  0  0  0  0  0  0  0  0  0  0
    2.0000    1.9319    0.0000 C   0  0  0  0  0  0  0  0  0  0  0  0
    6.9699   -4.5884    0.0000 C   0  0  0  0  0  0  0  0  0  0  0  0
    2.2706    2.8946    0.0000 C   0  0  0  0  0  0  0  0  0  0  0  0
    7.9699   -6.5884    0.0000 C   0  0  0  0  0  0  0  0  0  0  0  0
    4.7499    5.3139    0.0000 C   0  0  0  0  0  0  0  0  0  0  0  0
    6.9699   -6.5884    0.0000 C   0  0  0  0  0  0  0  0  0  0  0  0
    4.4793    4.3512    0.0000 C   0  0  0  0  0  0  0  0  0  0  0  0
   11.0361   -6.1264    0.0000 C   0  0  0  0  0  0  0  0  0  0  0  0
    7.4885    6.2062    0.0000 C   0  0  0  0  0  0  0  0  0  0  0  0
   12.6363   -6.7892    0.0000 C   0  0  0  0  0  0  0  0  0  0  0  0
    8.5597    7.5674    0.0000 C   0  0  0  0  0  0  0  0  0  0  0  0
   13.2450   -7.5826    0.0000 C   0  0  0  0  0  0  0  0  0  0  0  0
    9.4882    7.9387    0.0000 C   0  0  0  0  0  0  0  0  0  0  0  0
   14.2365   -7.4520    0.0000 C   0  0  0  0  0  0  0  0  0  0  0  0
   12.8624   -8.5064    0.0000 C   0  0  0  0  0  0  0  0  0  0  0  0
    9.6308    8.9285    0.0000 C   0  0  0  0  0  0  0  0  0  0  0  0
   10.2740    7.3203    0.0000 C   0  0  0  0  0  0  0  0  0  0  0  0
   14.8453   -8.2454    0.0000 C   0  0  0  0  0  0  0  0  0  0  0  0
   13.4711   -9.2998    0.0000 C   0  0  0  0  0  0  0  0  0  0  0  0
   10.5593    9.2998    0.0000 C   0  0  0  0  0  0  0  0  0  0  0  0
   11.2025    7.6916    0.0000 C   0  0  0  0  0  0  0  0  0  0  0  0
   14.4626   -9.1693    0.0000 C   0  0  0  0  0  0  0  0  0  0  0  0
   11.3452    8.6814    0.0000 C   0  0  0  0  0  0  0  0  0  0  0  0
    6.6408   -1.4167    0.0000 H   0  0  0  0  0  0  0  0  0  0  0  0
    4.7010   -0.2967    0.0000 H   0  0  0  0  0  0  0  0  0  0  0  0
    6.8400   -1.6817    0.0000 H   0  0  0  0  0  0  0  0  0  0  0  0
    5.9714   -0.0362    0.0000 H   0  0  0  0  0  0  0  0  0  0  0  0
    5.0320   -2.0036    0.0000 H   0  0  0  0  0  0  0  0  0  0  0  0
    4.6268   -2.6928    0.0000 H   0  0  0  0  0  0  0  0  0  0  0  0
    3.7916    0.5135    0.0000 H   0  0  0  0  0  0  0  0  0  0  0  0
    4.7116    1.2620    0.0000 H   0  0  0  0  0  0  0  0  0  0  0  0
    6.6144   -3.1146    0.0000 H   0  0  0  0  0  0  0  0  0  0  0  0
    6.5972    0.4993    0.0000 H   0  0  0  0  0  0  0  0  0  0  0  0
    8.6692   -4.0598    0.0000 H   0  0  0  0  0  0  0  0  0  0  0  0
    7.7934    2.6381    0.0000 H   0  0  0  0  0  0  0  0  0  0  0  0
    7.6239   -4.8388    0.0000 H   0  0  0  0  0  0  0  0  0  0  0  0
    8.1201    2.4441    0.0000 H   0  0  0  0  0  0  0  0  0  0  0  0
    6.9699    0.0133    0.0000 H   0  0  0  0  0  0  0  0  0  0  0  0
    3.8349   -0.7967    0.0000 H   0  0  0  0  0  0  0  0  0  0  0  0
    9.8133   -3.2396    0.0000 H   0  0  0  0  0  0  0  0  0  0  0  0
    7.8056    3.6380    0.0000 H   0  0  0  0  0  0  0  0  0  0  0  0
    4.7010   -4.8984    0.0000 H   0  0  0  0  0  0  0  0  0  0  0  0
    4.5388    2.5790    0.0000 H   0  0  0  0  0  0  0  0  0  0  0  0
    6.1039   -2.4684    0.0000 H   0  0  0  0  0  0  0  0  0  0  0  0
    2.5306    0.6193    0.0000 H   0  0  0  0  0  0  0  0  0  0  0  0
    8.2771   -5.3667    0.0000 H   0  0  0  0  0  0  0  0  0  0  0  0
    9.1464   -5.2522    0.0000 H   0  0  0  0  0  0  0  0  0  0  0  0
    9.0320   -4.3829    0.0000 H   0  0  0  0  0  0  0  0  0  0  0  0
    6.8020   -3.5012    0.0000 H   0  0  0  0  0  0  0  0  0  0  0  0
    6.1063   -4.0350    0.0000 H   0  0  0  0  0  0  0  0  0  0  0  0
    6.6401   -4.7306    0.0000 H   0  0  0  0  0  0  0  0  0  0  0  0
    9.2880    1.7728    0.0000 H   0  0  0  0  0  0  0  0  0  0  0  0
    9.5253    2.6169    0.0000 H   0  0  0  0  0  0  0  0  0  0  0  0
    8.6812    2.8542    0.0000 H   0  0  0  0  0  0  0  0  0  0  0  0
    7.4803    0.8318    0.0000 H   0  0  0  0  0  0  0  0  0  0  0  0
    8.0927    0.2043    0.0000 H   0  0  0  0  0  0  0  0  0  0  0  0
    8.7202    0.8166    0.0000 H   0  0  0  0  0  0  0  0  0  0  0  0
    9.2366   -6.0507    0.0000 H   0  0  0  0  0  0  0  0  0  0  0  0
    6.5458    5.4517    0.0000 H   0  0  0  0  0  0  0  0  0  0  0  0
    8.4699   -5.1024    0.0000 H   0  0  0  0  0  0  0  0  0  0  0  0
    7.8711   -5.5619    0.0000 H   0  0  0  0  0  0  0  0  0  0  0  0
    6.2312    5.9102    0.0000 H   0  0  0  0  0  0  0  0  0  0  0  0
    5.4638    6.1259    0.0000 H   0  0  0  0  0  0  0  0  0  0  0  0
    7.5069   -3.2784    0.0000 H   0  0  0  0  0  0  0  0  0  0  0  0
    1.3992    1.7788    0.0000 H   0  0  0  0  0  0  0  0  0  0  0  0
    7.5069   -4.8984    0.0000 H   0  0  0  0  0  0  0  0  0  0  0  0
    1.8376    3.3383    0.0000 H   0  0  0  0  0  0  0  0  0  0  0  0
    7.8623   -7.1990    0.0000 H   0  0  0  0  0  0  0  0  0  0  0  0
    8.5526   -6.8005    0.0000 H   0  0  0  0  0  0  0  0  0  0  0  0
    4.7035    5.9322    0.0000 H   0  0  0  0  0  0  0  0  0  0  0  0
    4.1330    5.3755    0.0000 H   0  0  0  0  0  0  0  0  0  0  0  0
    7.5069   -5.2784    0.0000 H   0  0  0  0  0  0  0  0  0  0  0  0
    3.0773    4.5480    0.0000 H   0  0  0  0  0  0  0  0  0  0  0  0
    9.8074   -6.8297    0.0000 H   0  0  0  0  0  0  0  0  0  0  0  0
    7.8331    4.8330    0.0000 H   0  0  0  0  0  0  0  0  0  0  0  0
   13.1862   -6.5029    0.0000 H   0  0  0  0  0  0  0  0  0  0  0  0
   12.4498   -6.1979    0.0000 H   0  0  0  0  0  0  0  0  0  0  0  0
    8.4329    8.1743    0.0000 H   0  0  0  0  0  0  0  0  0  0  0  0
    7.9400    7.5479    0.0000 H   0  0  0  0  0  0  0  0  0  0  0  0
   14.4738   -6.8792    0.0000 H   0  0  0  0  0  0  0  0  0  0  0  0
   12.2477   -8.5874    0.0000 H   0  0  0  0  0  0  0  0  0  0  0  0
    9.1436    9.3119    0.0000 H   0  0  0  0  0  0  0  0  0  0  0  0
   10.1856    6.7066    0.0000 H   0  0  0  0  0  0  0  0  0  0  0  0
   15.4599   -8.1645    0.0000 H   0  0  0  0  0  0  0  0  0  0  0  0
   13.2339   -9.8726    0.0000 H   0  0  0  0  0  0  0  0  0  0  0  0
   10.6478    9.9135    0.0000 H   0  0  0  0  0  0  0  0  0  0  0  0
   11.6897    7.3082    0.0000 H   0  0  0  0  0  0  0  0  0  0  0  0
   14.8400   -9.6612    0.0000 H   0  0  0  0  0  0  0  0  0  0  0  0
   11.9208    8.9116    0.0000 H   0  0  0  0  0  0  0  0  0  0  0  0
 21  1  1  6  0  0  0
  1 89  1  0  0  0  0
 22  2  1  6  0  0  0
  2 90  1  0  0  0  0
  3 29  2  0  0  0  0
  4 30  2  0  0  0  0
  5 45  2  0  0  0  0
  6 46  2  0  0  0  0
  7 57  2  0  0  0  0
  8 58  2  0  0  0  0
  9 59  1  0  0  0  0
  9 61  1  0  0  0  0
 10 60  1  0  0  0  0
 10 62  1  0  0  0  0
 11 59  2  0  0  0  0
 12 60  2  0  0  0  0
 13 23  1  0  0  0  0
 13 29  1  0  0  0  0
 13 83  1  0  0  0  0
 14 24  1  0  0  0  0
 14 30  1  0  0  0  0
 14 84  1  0  0  0  0
 15 27  1  0  0  0  0
 15 45  1  0  0  0  0
 15 91  1  0  0  0  0
 16 28  1  0  0  0  0
 16 46  1  0  0  0  0
 16 92  1  0  0  0  0
 17 47  1  0  0  0  0
 17 57  1  0  0  0  0
 17123  1  0  0  0  0
 18 48  1  0  0  0  0
 18 58  1  0  0  0  0
 18124  1  0  0  0  0
 43 19  1  1  0  0  0
 19 59  1  0  0  0  0
 19125  1  0  0  0  0
 44 20  1  6  0  0  0
 20 60  1  0  0  0  0
 20126  1  0  0  0  0
 21 22  1  0  0  0  0
 21 23  1  0  0  0  0
 21 75  1  0  0  0  0
 22 24  1  0  0  0  0
 22 76  1  0  0  0  0
 23 25  1  0  0  0  0
 23 77  1  6  0  0  0
 24 26  1  0  0  0  0
 24 78  1  1  0  0  0
 25 31  1  0  0  0  0
 25 79  1  0  0  0  0
 25 80  1  0  0  0  0
 26 32  1  0  0  0  0
 26 81  1  0  0  0  0
 26 82  1  0  0  0  0
 27 29  1  0  0  0  0
 27 33  1  1  0  0  0
 27 85  1  0  0  0  0
 28 30  1  0  0  0  0
 28 34  1  1  0  0  0
 28 86  1  0  0  0  0
 31 35  2  0  0  0  0
 31 37  1  0  0  0  0
 32 36  2  0  0  0  0
 32 38  1  0  0  0  0
 33 39  1  0  0  0  0
 33 40  1  0  0  0  0
 33 87  1  0  0  0  0
 34 41  1  0  0  0  0
 34 42  1  0  0  0  0
 34 88  1  0  0  0  0
 35 47  1  0  0  0  0
 35 93  1  0  0  0  0
 36 48  1  0  0  0  0
 36 94  1  0  0  0  0
 37 51  2  0  0  0  0
 37 95  1  0  0  0  0
 38 52  2  0  0  0  0
 38 96  1  0  0  0  0
 39 97  1  0  0  0  0
 39 98  1  0  0  0  0
 39 99  1  0  0  0  0
 40100  1  0  0  0  0
 40101  1  0  0  0  0
 40102  1  0  0  0  0
 41103  1  0  0  0  0
 41104  1  0  0  0  0
 41105  1  0  0  0  0
 42106  1  0  0  0  0
 42107  1  0  0  0  0
 42108  1  0  0  0  0
 43 45  1  0  0  0  0
 43 49  1  0  0  0  0
 43109  1  0  0  0  0
 44 46  1  0  0  0  0
 44 50  1  0  0  0  0
 44110  1  0  0  0  0
 47 53  2  0  0  0  0
 48 54  2  0  0  0  0
 49 55  1  0  0  0  0
 49111  1  0  0  0  0
 49112  1  0  0  0  0
 50 56  1  0  0  0  0
 50113  1  0  0  0  0
 50114  1  0  0  0  0
 51 53  1  0  0  0  0
 51115  1  0  0  0  0
 52 54  1  0  0  0  0
 52116  1  0  0  0  0
 53117  1  0  0  0  0
 54118  1  0  0  0  0
 55 57  1  0  0  0  0
 55119  1  0  0  0  0
 55120  1  0  0  0  0
 56 58  1  0  0  0  0
 56121  1  0  0  0  0
 56122  1  0  0  0  0
 61 63  1  0  0  0  0
 61127  1  0  0  0  0
 61128  1  0  0  0  0
 62 64  1  0  0  0  0
 62129  1  0  0  0  0
 62130  1  0  0  0  0
 63 65  2  0  0  0  0
 63 66  1  0  0  0  0
 64 67  2  0  0  0  0
 64 68  1  0  0  0  0
 65 69  1  0  0  0  0
 65131  1  0  0  0  0
 66 70  2  0  0  0  0
 66132  1  0  0  0  0
 67 71  1  0  0  0  0
 67133  1  0  0  0  0
 68 72  2  0  0  0  0
 68134  1  0  0  0  0
 69 73  2  0  0  0  0
 69135  1  0  0  0  0
 70 73  1  0  0  0  0
 70136  1  0  0  0  0
 71 74  2  0  0  0  0
 71137  1  0  0  0  0
 72 74  1  0  0  0  0
 72138  1  0  0  0  0
 73139  1  0  0  0  0
 74140  1  0  0  0  0
M  END
> <PUBCHEM_COMPOUND_CID>
503815
> <PUBCHEM_COMPOUND_CANONICALIZED>
1
> <PUBCHEM_CACTVS_COMPLEXITY>
1760
> <PUBCHEM_CACTVS_HBOND_ACCEPTOR>
12
> <PUBCHEM_CACTVS_HBOND_DONOR>
10
> <PUBCHEM_CACTVS_ROTATABLE_BOND>
13
> <PUBCHEM_CACTVS_SUBSKEYS>
AAADcfB//AAAAAAAAAAAAAAAAAAAAAAAAAAwYMGAAAAAAAABVAAAHgAQCAAADTzhmAYyyILABgCIAiVSWACCAAAhAgAIiIGIbIkLdjLAsbmccAhm1gHZ6Aecw/AOAAAAQAAAAAAAAACAAAAAAAAAAAAAAA==
> <PUBCHEM_IUPAC_OPENEYE_NAME>
benzyl N-[(6S,9S,12S)-12-[(1R,2R)-2-[(6S,9S,12S)-6-(benzyloxycarbonylamino)-9-isopropyl-3,7,10-trioxo-2,8,11-triazabicyclo[12.3.1]octadeca-1(17),14(18),15-trien-12-yl]-1,2-dihydroxy-ethyl]-9-isopropyl-3,7,10-trioxo-2,8,11-triazabicyclo[12.3.1]octadeca-1(17),14(18),15-trien-6-yl]carbamate
> <PUBCHEM_IUPAC_CAS_NAME>
N-[(6S,9S,12S)-12-[(1R,2R)-1,2-dihydroxy-2-[(6S,9S,12S)-3,7,10-trioxo-6-(phenylmethoxycarbonylamino)-9-propan-2-yl-2,8,11-triazabicyclo[12.3.1]octadeca-1(17),14(18),15-trien-12-yl]ethyl]-3,7,10-trioxo-9-propan-2-yl-2,8,11-triazabicyclo[12.3.1]octadeca-1(17),14(18),15-trien-6-yl]carbamic acid (phenylmethyl) ester
> <PUBCHEM_IUPAC_NAME_MARKUP>
benzyl <I>N</I>-[(6<I>S</I>,9<I>S</I>,12<I>S</I>)-12-[(1<I>R</I>,2<I>R</I>)-1,2-dihydroxy-2-[(6<I>S</I>,9<I>S</I>,12<I>S</I>)-3,7,10-trioxo-6-(phenylmethoxycarbonylamino)-9-propan-2-yl-2,8,11-triazabicyclo[12.3.1]octadeca-1(17),14(18),15-trien-12-yl]ethyl]-3,7,10-trioxo-9-propan-2-yl-2,8,11-triazabicyclo[12.3.1]octadeca-1(17),14(18),15-trien-6-yl]carbamate
> <PUBCHEM_IUPAC_NAME>
benzyl N-[(6S,9S,12S)-12-[(1R,2R)-1,2-dihydroxy-2-[(6S,9S,12S)-3,7,10-trioxo-6-(phenylmethoxycarbonylamino)-9-propan-2-yl-2,8,11-triazabicyclo[12.3.1]octadeca-1(17),14(18),15-trien-12-yl]ethyl]-3,7,10-trioxo-9-propan-2-yl-2,8,11-triazabicyclo[12.3.1]octadeca-1(17),14(18),15-trien-6-yl]carbamate
> <PUBCHEM_IUPAC_SYSTEMATIC_NAME>
(phenylmethyl) N-[(6S,9S,12S)-12-[(1R,2R)-1,2-bis(oxidanyl)-2-[(6S,9S,12S)-3,7,10-tris(oxidanylidene)-6-(phenylmethoxycarbonylamino)-9-propan-2-yl-2,8,11-triazabicyclo[12.3.1]octadeca-1(17),14(18),15-trien-12-yl]ethyl]-3,7,10-tris(oxidanylidene)-9-propan-2-yl-2,8,11-triazabicyclo[12.3.1]octadeca-1(17),14(18),15-trien-6-yl]carbamate
> <PUBCHEM_IUPAC_TRADITIONAL_NAME>
N-[(6S,9S,12S)-12-[(1R,2R)-2-[(6S,9S,12S)-6-(benzyloxycarbonylamino)-9-isopropyl-3,7,10-triketo-2,8,11-triazabicyclo[12.3.1]octadeca-1(17),14(18),15-trien-12-yl]-1,2-dihydroxy-ethyl]-9-isopropyl-3,7,10-triketo-2,8,11-triazabicyclo[12.3.1]octadeca-1(17),14(18),15-trien-6-yl]carbamic acid benzyl ester
> <PUBCHEM_IUPAC_INCHI>
InChI=1S/C54H66N8O12/c1-31(2)45-51(69)57-41(27-35-17-11-19-37(25-35)55-43(63)23-21-39(49(67)61-45)59-53(71)73-29-33-13-7-5-8-14-33)47(65)48(66)42-28-36-18-12-20-38(26-36)56-44(64)24-22-40(50(68)62-46(32(3)4)52(70)58-42)60-54(72)74-30-34-15-9-6-10-16-34/h5-20,25-26,31-32,39-42,45-48,65-66H,21-24,27-30H2,1-4H3,(H,55,63)(H,56,64)(H,57,69)(H,58,70)(H,59,71)(H,60,72)(H,61,67)(H,62,68)/t39-,40-,41-,42-,45-,46-,47+,48+/m0/s1
> <PUBCHEM_IUPAC_INCHIKEY>
IKQSBEABIWOQNE-PXRJHXIUSA-N
> <PUBCHEM_XLOGP3_AA>
4.1
> <PUBCHEM_EXACT_MASS>
1018.48001957
> <PUBCHEM_MOLECULAR_FORMULA>
C54H66N8O12
> <PUBCHEM_MOLECULAR_WEIGHT>
1019.1
> <PUBCHEM_OPENEYE_CAN_SMILES>
CC(C)C1C(=O)NC(CC2=CC(=CC=C2)NC(=O)CCC(C(=O)N1)NC(=O)OCC3=CC=CC=C3)C(C(C4CC5=CC(=CC=C5)NC(=O)CCC(C(=O)NC(C(=O)N4)C(C)C)NC(=O)OCC6=CC=CC=C6)O)O
> <PUBCHEM_OPENEYE_ISO_SMILES>
CC(C)[C@H]1C(=O)N[C@@H](CC2=CC(=CC=C2)NC(=O)CC[C@@H](C(=O)N1)NC(=O)OCC3=CC=CC=C3)[C@H]([C@@H]([C@@H]4CC5=CC(=CC=C5)NC(=O)CC[C@@H](C(=O)N[C@H](C(=O)N4)C(C)C)NC(=O)OCC6=CC=CC=C6)O)O
> <PUBCHEM_CACTVS_TPSA>
292
> <PUBCHEM_MONOISOTOPIC_WEIGHT>
1018.48001957
> <PUBCHEM_TOTAL_CHARGE>
0
> <PUBCHEM_HEAVY_ATOM_COUNT>
74
> <PUBCHEM_ATOM_DEF_STEREO_COUNT>
8
> <PUBCHEM_ATOM_UDEF_STEREO_COUNT>
0
> <PUBCHEM_BOND_DEF_STEREO_COUNT>
0
> <PUBCHEM_BOND_UDEF_STEREO_COUNT>
0
> <PUBCHEM_ISOTOPIC_ATOM_COUNT>
0
> <PUBCHEM_COMPONENT_COUNT>
1
> <PUBCHEM_CACTVS_TAUTO_COUNT>
-1
> <PUBCHEM_COORDINATE_TYPE>
1
5
255
> <PUBCHEM_BONDANNOTATIONS>
21  1  6
43  19  5
22  2  6
44  20  6
23  77  6
24  78  5
27  33  5
28  34  5
31  35  8
31  37  8
32  36  8
32  38  8
35  47  8
36  48  8
37  51  8
38  52  8
47  53  8
48  54  8
51  53  8
52  54  8
63  65  8
63  66  8
64  67  8
64  68  8
65  69  8
66  70  8
67  71  8
68  72  8
69  73  8
70  73  8
71  74  8
72  74  8
$$$$
