503821
  -OEChem-10302200282D
110113  0     1  0  0  0  0  0999 V2000
    6.1808   -0.4354    0.0000 O   0  0  0  0  0  0  0  0  0  0  0  0
    6.1808   -1.4353    0.0000 O   0  0  0  0  0  0  0  0  0  0  0  0
    7.9128    1.5647    0.0000 O   0  0  0  0  0  0  0  0  0  0  0  0
    5.0783    2.0858    0.0000 O   0  0  0  0  0  0  0  0  0  0  0  0
    7.0468   -4.9354    0.0000 O   0  0  0  0  0  0  0  0  0  0  0  0
    3.3618    5.0288    0.0000 O   0  0  0  0  0  0  0  0  0  0  0  0
    7.0244    6.9483    0.0000 O   0  0  0  0  0  0  0  0  0  0  0  0
    7.0468   -5.9354    0.0000 O   0  0  0  0  0  0  0  0  0  0  0  0
    7.9128   -1.4353    0.0000 N   0  0  0  0  0  0  0  0  0  0  0  0
    6.1808   -3.4354    0.0000 N   0  0  0  0  0  0  0  0  0  0  0  0
    6.1808    1.5647    0.0000 N   0  0  0  0  0  0  0  0  0  0  0  0
    4.3630    3.0517    0.0000 N   0  0  0  0  0  0  0  0  0  0  0  0
    3.8759    6.1046    0.0000 N   0  0  0  0  0  0  0  0  0  0  0  0
    5.3147   -5.9354    0.0000 N   0  0  0  0  0  0  0  0  0  0  0  0
    2.6691   -4.5286    0.0000 N   0  0  0  0  0  0  0  0  0  0  0  0
    2.5000   -6.1378    0.0000 N   0  0  0  0  0  0  0  0  0  0  0  0
    7.9128   -0.4353    0.0000 C   0  0  2  0  0  0  0  0  0  0  0  0
    7.0468   -2.9354    0.0000 C   0  0  1  0  0  0  0  0  0  0  0  0
    7.0468    0.0647    0.0000 C   0  0  2  0  0  0  0  0  0  0  0  0
    7.9128   -3.4354    0.0000 C   0  0  0  0  0  0  0  0  0  0  0  0
    8.7788    0.0647    0.0000 C   0  0  0  0  0  0  0  0  0  0  0  0
    6.1807    2.5646    0.0000 C   0  0  1  0  0  0  0  0  0  0  0  0
    7.0468   -1.9354    0.0000 C   0  0  0  0  0  0  0  0  0  0  0  0
    3.8759    3.8954    0.0000 C   0  0  1  0  0  0  0  0  0  0  0  0
    2.8835    3.7724    0.0000 C   0  0  0  0  0  0  0  0  0  0  0  0
    7.0468    1.0647    0.0000 C   0  0  0  0  0  0  0  0  0  0  0  0
    7.0244    3.0517    0.0000 C   0  0  0  0  0  0  0  0  0  0  0  0
    7.9128   -4.4354    0.0000 C   0  0  0  0  0  0  0  0  0  0  0  0
    8.7788   -2.9354    0.0000 C   0  0  0  0  0  0  0  0  0  0  0  0
    5.3371    3.0517    0.0000 C   0  0  0  0  0  0  0  0  0  0  0  0
    9.6448   -0.4353    0.0000 C   0  0  0  0  0  0  0  0  0  0  0  0
    5.3147   -4.9354    0.0000 C   0  0  2  0  0  0  0  0  0  0  0  0
    6.1808   -4.4354    0.0000 C   0  0  0  0  0  0  0  0  0  0  0  0
    4.3617    5.0433    0.0000 C   0  0  0  0  0  0  0  0  0  0  0  0
    7.0244    4.0259    0.0000 C   0  0  0  0  0  0  0  0  0  0  0  0
    2.4938    2.8515    0.0000 C   0  0  0  0  0  0  0  0  0  0  0  0
    2.2808    4.5704    0.0000 C   0  0  0  0  0  0  0  0  0  0  0  0
    4.4487   -4.4354    0.0000 C   0  0  0  0  0  0  0  0  0  0  0  0
   10.5109    0.0647    0.0000 C   0  0  0  0  0  0  0  0  0  0  0  0
    9.6448   -1.4353    0.0000 C   0  0  0  0  0  0  0  0  0  0  0  0
    4.3630    6.9483    0.0000 C   0  0  0  0  0  0  0  0  0  0  0  0
    7.8680    4.5129    0.0000 C   0  0  0  0  0  0  0  0  0  0  0  0
    6.1807    4.5129    0.0000 C   0  0  0  0  0  0  0  0  0  0  0  0
    5.3371    6.9483    0.0000 C   0  0  0  0  0  0  0  0  0  0  0  0
    3.5827   -4.9354    0.0000 C   0  0  0  0  0  0  0  0  0  0  0  0
   11.3769   -0.4353    0.0000 C   0  0  0  0  0  0  0  0  0  0  0  0
   10.5109   -1.9354    0.0000 C   0  0  0  0  0  0  0  0  0  0  0  0
    6.1807    7.4354    0.0000 C   0  0  0  0  0  0  0  0  0  0  0  0
    7.0244    5.9741    0.0000 C   0  0  0  0  0  0  0  0  0  0  0  0
    7.8680    5.4871    0.0000 C   0  0  0  0  0  0  0  0  0  0  0  0
    6.1807    5.4871    0.0000 C   0  0  0  0  0  0  0  0  0  0  0  0
   11.3769   -1.4353    0.0000 C   0  0  0  0  0  0  0  0  0  0  0  0
    6.1808   -6.4354    0.0000 C   0  0  0  0  0  0  0  0  0  0  0  0
    3.4782   -5.9299    0.0000 C   0  0  0  0  0  0  0  0  0  0  0  0
    2.0000   -5.2718    0.0000 C   0  0  0  0  0  0  0  0  0  0  0  0
    6.1808   -7.4354    0.0000 C   0  0  0  0  0  0  0  0  0  0  0  0
    7.3759   -0.7453    0.0000 H   0  0  0  0  0  0  0  0  0  0  0  0
    7.0468   -3.5554    0.0000 H   0  0  0  0  0  0  0  0  0  0  0  0
    6.5098    0.3746    0.0000 H   0  0  0  0  0  0  0  0  0  0  0  0
    8.4497   -3.7454    0.0000 H   0  0  0  0  0  0  0  0  0  0  0  0
    9.1774    0.5396    0.0000 H   0  0  0  0  0  0  0  0  0  0  0  0
    8.3803    0.5396    0.0000 H   0  0  0  0  0  0  0  0  0  0  0  0
    8.4497   -1.7454    0.0000 H   0  0  0  0  0  0  0  0  0  0  0  0
    5.6438    2.2546    0.0000 H   0  0  0  0  0  0  0  0  0  0  0  0
    3.5996    3.3403    0.0000 H   0  0  0  0  0  0  0  0  0  0  0  0
    2.2682    3.6962    0.0000 H   0  0  0  0  0  0  0  0  0  0  0  0
    5.6438   -3.1254    0.0000 H   0  0  0  0  0  0  0  0  0  0  0  0
    7.2364    2.4691    0.0000 H   0  0  0  0  0  0  0  0  0  0  0  0
    7.6350    3.1594    0.0000 H   0  0  0  0  0  0  0  0  0  0  0  0
    5.6438    1.2546    0.0000 H   0  0  0  0  0  0  0  0  0  0  0  0
    7.2928   -4.4354    0.0000 H   0  0  0  0  0  0  0  0  0  0  0  0
    7.9128   -5.0554    0.0000 H   0  0  0  0  0  0  0  0  0  0  0  0
    8.5328   -4.4354    0.0000 H   0  0  0  0  0  0  0  0  0  0  0  0
    9.0888   -3.4723    0.0000 H   0  0  0  0  0  0  0  0  0  0  0  0
    9.3158   -2.6254    0.0000 H   0  0  0  0  0  0  0  0  0  0  0  0
    8.4688   -2.3984    0.0000 H   0  0  0  0  0  0  0  0  0  0  0  0
    4.0530    2.5148    0.0000 H   0  0  0  0  0  0  0  0  0  0  0  0
    4.7778   -5.2454    0.0000 H   0  0  0  0  0  0  0  0  0  0  0  0
    1.9228    3.0931    0.0000 H   0  0  0  0  0  0  0  0  0  0  0  0
    2.2521    2.2805    0.0000 H   0  0  0  0  0  0  0  0  0  0  0  0
    3.0647    2.6098    0.0000 H   0  0  0  0  0  0  0  0  0  0  0  0
    2.7756    4.9441    0.0000 H   0  0  0  0  0  0  0  0  0  0  0  0
    1.9072    5.0652    0.0000 H   0  0  0  0  0  0  0  0  0  0  0  0
    1.7861    4.1968    0.0000 H   0  0  0  0  0  0  0  0  0  0  0  0
    5.6438   -0.1254    0.0000 H   0  0  0  0  0  0  0  0  0  0  0  0
    4.8472   -3.9604    0.0000 H   0  0  0  0  0  0  0  0  0  0  0  0
    4.0502   -3.9604    0.0000 H   0  0  0  0  0  0  0  0  0  0  0  0
   10.5109    0.6847    0.0000 H   0  0  0  0  0  0  0  0  0  0  0  0
    9.1079   -1.7454    0.0000 H   0  0  0  0  0  0  0  0  0  0  0  0
    3.2587    6.1630    0.0000 H   0  0  0  0  0  0  0  0  0  0  0  0
    4.4706    7.5589    0.0000 H   0  0  0  0  0  0  0  0  0  0  0  0
    3.7804    7.1603    0.0000 H   0  0  0  0  0  0  0  0  0  0  0  0
    4.7778   -6.2454    0.0000 H   0  0  0  0  0  0  0  0  0  0  0  0
    8.4049    4.2029    0.0000 H   0  0  0  0  0  0  0  0  0  0  0  0
    5.6438    4.2029    0.0000 H   0  0  0  0  0  0  0  0  0  0  0  0
    5.1251    6.3657    0.0000 H   0  0  0  0  0  0  0  0  0  0  0  0
    5.1767    7.5472    0.0000 H   0  0  0  0  0  0  0  0  0  0  0  0
   11.9138   -0.1253    0.0000 H   0  0  0  0  0  0  0  0  0  0  0  0
   10.5109   -2.5553    0.0000 H   0  0  0  0  0  0  0  0  0  0  0  0
    6.5793    7.9103    0.0000 H   0  0  0  0  0  0  0  0  0  0  0  0
    5.7822    7.9103    0.0000 H   0  0  0  0  0  0  0  0  0  0  0  0
    8.4049    5.7971    0.0000 H   0  0  0  0  0  0  0  0  0  0  0  0
    5.6438    5.7971    0.0000 H   0  0  0  0  0  0  0  0  0  0  0  0
   11.9138   -1.7453    0.0000 H   0  0  0  0  0  0  0  0  0  0  0  0
    2.5402   -3.9222    0.0000 H   0  0  0  0  0  0  0  0  0  0  0  0
    3.9389   -6.3447    0.0000 H   0  0  0  0  0  0  0  0  0  0  0  0
    1.3834   -5.2070    0.0000 H   0  0  0  0  0  0  0  0  0  0  0  0
    5.5608   -7.4354    0.0000 H   0  0  0  0  0  0  0  0  0  0  0  0
    6.1808   -8.0554    0.0000 H   0  0  0  0  0  0  0  0  0  0  0  0
    6.8008   -7.4354    0.0000 H   0  0  0  0  0  0  0  0  0  0  0  0
 19  1  1  1  0  0  0
  1 85  1  0  0  0  0
  2 23  2  0  0  0  0
  3 26  2  0  0  0  0
  4 30  2  0  0  0  0
  5 33  2  0  0  0  0
  6 34  2  0  0  0  0
  7 48  1  0  0  0  0
  7 49  1  0  0  0  0
  8 53  2  0  0  0  0
 17  9  1  6  0  0  0
  9 23  1  0  0  0  0
  9 63  1  0  0  0  0
 18 10  1  6  0  0  0
 10 33  1  0  0  0  0
 10 67  1  0  0  0  0
 22 11  1  6  0  0  0
 11 26  1  0  0  0  0
 11 70  1  0  0  0  0
 12 24  1  0  0  0  0
 12 30  1  0  0  0  0
 12 77  1  0  0  0  0
 13 34  1  0  0  0  0
 13 41  1  0  0  0  0
 13 90  1  0  0  0  0
 32 14  1  1  0  0  0
 14 53  1  0  0  0  0
 14 93  1  0  0  0  0
 15 45  1  0  0  0  0
 15 55  1  0  0  0  0
 15105  1  0  0  0  0
 16 54  1  0  0  0  0
 16 55  2  0  0  0  0
 17 19  1  0  0  0  0
 17 21  1  0  0  0  0
 17 57  1  0  0  0  0
 18 20  1  0  0  0  0
 18 23  1  0  0  0  0
 18 58  1  0  0  0  0
 19 26  1  0  0  0  0
 19 59  1  0  0  0  0
 20 28  1  0  0  0  0
 20 29  1  0  0  0  0
 20 60  1  0  0  0  0
 21 31  1  0  0  0  0
 21 61  1  0  0  0  0
 21 62  1  0  0  0  0
 22 27  1  0  0  0  0
 22 30  1  0  0  0  0
 22 64  1  0  0  0  0
 24 25  1  1  0  0  0
 24 34  1  0  0  0  0
 24 65  1  0  0  0  0
 25 36  1  0  0  0  0
 25 37  1  0  0  0  0
 25 66  1  0  0  0  0
 27 35  1  0  0  0  0
 27 68  1  0  0  0  0
 27 69  1  0  0  0  0
 28 71  1  0  0  0  0
 28 72  1  0  0  0  0
 28 73  1  0  0  0  0
 29 74  1  0  0  0  0
 29 75  1  0  0  0  0
 29 76  1  0  0  0  0
 31 39  2  0  0  0  0
 31 40  1  0  0  0  0
 32 33  1  0  0  0  0
 32 38  1  0  0  0  0
 32 78  1  0  0  0  0
 35 42  2  0  0  0  0
 35 43  1  0  0  0  0
 36 79  1  0  0  0  0
 36 80  1  0  0  0  0
 36 81  1  0  0  0  0
 37 82  1  0  0  0  0
 37 83  1  0  0  0  0
 37 84  1  0  0  0  0
 38 45  1  0  0  0  0
 38 86  1  0  0  0  0
 38 87  1  0  0  0  0
 39 46  1  0  0  0  0
 39 88  1  0  0  0  0
 40 47  2  0  0  0  0
 40 89  1  0  0  0  0
 41 44  1  0  0  0  0
 41 91  1  0  0  0  0
 41 92  1  0  0  0  0
 42 50  1  0  0  0  0
 42 94  1  0  0  0  0
 43 51  2  0  0  0  0
 43 95  1  0  0  0  0
 44 48  1  0  0  0  0
 44 96  1  0  0  0  0
 44 97  1  0  0  0  0
 45 54  2  0  0  0  0
 46 52  2  0  0  0  0
 46 98  1  0  0  0  0
 47 52  1  0  0  0  0
 47 99  1  0  0  0  0
 48100  1  0  0  0  0
 48101  1  0  0  0  0
 49 50  2  0  0  0  0
 49 51  1  0  0  0  0
 50102  1  0  0  0  0
 51103  1  0  0  0  0
 52104  1  0  0  0  0
 53 56  1  0  0  0  0
 54106  1  0  0  0  0
 55107  1  0  0  0  0
 56108  1  0  0  0  0
 56109  1  0  0  0  0
 56110  1  0  0  0  0
M  END
> <PUBCHEM_COMPOUND_CID>
503821
> <PUBCHEM_COMPOUND_CANONICALIZED>
1
> <PUBCHEM_CACTVS_COMPLEXITY>
1320
> <PUBCHEM_CACTVS_HBOND_ACCEPTOR>
9
> <PUBCHEM_CACTVS_HBOND_DONOR>
8
> <PUBCHEM_CACTVS_ROTATABLE_BOND>
14
> <PUBCHEM_CACTVS_SUBSKEYS>
AAADcfB//AAAAAAAAAAAAAAAAAAAAWAAAAAwYAAAAAAAAAAB0AAAHgAQCAAADTzhngY/lpbJlgCoAzV3dAICiC2xMqAJ2YH+eIiOfjrE+TuWeCCu1hPY6CecyaCOIAAAAAAAAABAAAAAAAAAAAAAAAAAAA==
> <PUBCHEM_IUPAC_OPENEYE_NAME>
(2S)-2-[[(2S)-2-acetamido-3-(1H-imidazol-5-yl)propanoyl]amino]-N-[(1S,2R)-1-benzyl-2-hydroxy-3-[[(8S,11S)-8-isopropyl-7,10-dioxo-2-oxa-6,9-diazabicyclo[11.2.2]heptadeca-1(15),13,16-trien-11-yl]amino]-3-oxo-propyl]-3-methyl-butanamide
> <PUBCHEM_IUPAC_CAS_NAME>
(2S)-2-[[(2S)-2-acetamido-3-(1H-imidazol-5-yl)-1-oxopropyl]amino]-N-[(2S,3R)-4-[[(8S,11S)-7,10-dioxo-8-propan-2-yl-2-oxa-6,9-diazabicyclo[11.2.2]heptadeca-1(15),13,16-trien-11-yl]amino]-3-hydroxy-4-oxo-1-phenylbutan-2-yl]-3-methylbutanamide
> <PUBCHEM_IUPAC_NAME_MARKUP>
(2<I>S</I>)-2-[[(2<I>S</I>)-2-acetamido-3-(1<I>H</I>-imidazol-5-yl)propanoyl]amino]-<I>N</I>-[(2<I>S</I>,3<I>R</I>)-4-[[(8<I>S</I>,11<I>S</I>)-7,10-dioxo-8-propan-2-yl-2-oxa-6,9-diazabicyclo[11.2.2]heptadeca-1(15),13,16-trien-11-yl]amino]-3-hydroxy-4-oxo-1-phenylbutan-2-yl]-3-methylbutanamide
> <PUBCHEM_IUPAC_NAME>
(2S)-2-[[(2S)-2-acetamido-3-(1H-imidazol-5-yl)propanoyl]amino]-N-[(2S,3R)-4-[[(8S,11S)-7,10-dioxo-8-propan-2-yl-2-oxa-6,9-diazabicyclo[11.2.2]heptadeca-1(15),13,16-trien-11-yl]amino]-3-hydroxy-4-oxo-1-phenylbutan-2-yl]-3-methylbutanamide
> <PUBCHEM_IUPAC_SYSTEMATIC_NAME>
(2S)-2-[[(2S)-2-acetamido-3-(1H-imidazol-5-yl)propanoyl]amino]-N-[(2S,3R)-4-[[(8S,11S)-7,10-bis(oxidanylidene)-8-propan-2-yl-2-oxa-6,9-diazabicyclo[11.2.2]heptadeca-1(15),13,16-trien-11-yl]amino]-3-oxidanyl-4-oxidanylidene-1-phenyl-butan-2-yl]-3-methyl-butanamide
> <PUBCHEM_IUPAC_TRADITIONAL_NAME>
(2S)-2-[[(2S)-2-acetamido-3-(1H-imidazol-5-yl)propanoyl]amino]-N-[(1S,2R)-1-benzyl-2-hydroxy-3-[[(8S,11S)-8-isopropyl-7,10-diketo-2-oxa-6,9-diazabicyclo[11.2.2]heptadeca-1(15),13,16-trien-11-yl]amino]-3-keto-propyl]-3-methyl-butyramide
> <PUBCHEM_IUPAC_INCHI>
InChI=1S/C40H54N8O8/c1-23(2)33-38(53)42-16-9-17-56-29-14-12-27(13-15-29)19-31(36(51)47-33)46-40(55)35(50)30(18-26-10-7-6-8-11-26)45-39(54)34(24(3)4)48-37(52)32(44-25(5)49)20-28-21-41-22-43-28/h6-8,10-15,21-24,30-35,50H,9,16-20H2,1-5H3,(H,41,43)(H,42,53)(H,44,49)(H,45,54)(H,46,55)(H,47,51)(H,48,52)/t30-,31-,32-,33-,34-,35+/m0/s1
> <PUBCHEM_IUPAC_INCHIKEY>
RCIIRFNVEONHOH-ULWXFTFZSA-N
> <PUBCHEM_XLOGP3_AA>
2.6
> <PUBCHEM_EXACT_MASS>
774.40646071
> <PUBCHEM_MOLECULAR_FORMULA>
C40H54N8O8
> <PUBCHEM_MOLECULAR_WEIGHT>
774.9
> <PUBCHEM_OPENEYE_CAN_SMILES>
CC(C)C1C(=O)NCCCOC2=CC=C(CC(C(=O)N1)NC(=O)C(C(CC3=CC=CC=C3)NC(=O)C(C(C)C)NC(=O)C(CC4=CN=CN4)NC(=O)C)O)C=C2
> <PUBCHEM_OPENEYE_ISO_SMILES>
CC(C)[C@H]1C(=O)NCCCOC2=CC=C(C[C@@H](C(=O)N1)NC(=O)[C@@H]([C@H](CC3=CC=CC=C3)NC(=O)[C@H](C(C)C)NC(=O)[C@H](CC4=CN=CN4)NC(=O)C)O)C=C2
> <PUBCHEM_CACTVS_TPSA>
233
> <PUBCHEM_MONOISOTOPIC_WEIGHT>
774.40646071
> <PUBCHEM_TOTAL_CHARGE>
0
> <PUBCHEM_HEAVY_ATOM_COUNT>
56
> <PUBCHEM_ATOM_DEF_STEREO_COUNT>
6
> <PUBCHEM_ATOM_UDEF_STEREO_COUNT>
0
> <PUBCHEM_BOND_DEF_STEREO_COUNT>
0
> <PUBCHEM_BOND_UDEF_STEREO_COUNT>
0
> <PUBCHEM_ISOTOPIC_ATOM_COUNT>
0
> <PUBCHEM_COMPONENT_COUNT>
1
> <PUBCHEM_CACTVS_TAUTO_COUNT>
-1
> <PUBCHEM_COORDINATE_TYPE>
1
5
255
> <PUBCHEM_BONDANNOTATIONS>
19  1  5
18  10  6
22  11  6
32  14  5
15  45  8
15  55  8
16  54  8
16  55  8
24  25  5
31  39  8
31  40  8
35  42  8
35  43  8
39  46  8
40  47  8
42  50  8
43  51  8
45  54  8
46  52  8
47  52  8
49  50  8
49  51  8
17  9  6
$$$$
