503822
  -OEChem-10302200282D
121125  0     1  0  0  0  0  0999 V2000
    7.1962    0.2718    0.0000 O   0  0  0  0  0  0  0  0  0  0  0  0
    7.1962   -0.7282    0.0000 O   0  0  0  0  0  0  0  0  0  0  0  0
    5.4641    2.2718    0.0000 O   0  0  0  0  0  0  0  0  0  0  0  0
    6.3301   -4.2282    0.0000 O   0  0  0  0  0  0  0  0  0  0  0  0
    7.9316    4.7633    0.0000 O   0  0  0  0  0  0  0  0  0  0  0  0
    8.5105    5.4449    0.0000 O   0  0  0  0  0  0  0  0  0  0  0  0
    6.3301    7.7718    0.0000 O   0  0  0  0  0  0  0  0  0  0  0  0
    9.0586    8.3591    0.0000 O   0  0  0  0  0  0  0  0  0  0  0  0
    9.7942   -5.2282    0.0000 O   0  0  0  0  0  0  0  0  0  0  0  0
    5.4641   -0.7282    0.0000 N   0  0  0  0  0  0  0  0  0  0  0  0
    7.1962   -2.7282    0.0000 N   0  0  0  0  0  0  0  0  0  0  0  0
    7.1962    2.2718    0.0000 N   0  0  0  0  0  0  0  0  0  0  0  0
    9.0281    3.5130    0.0000 N   0  0  0  0  0  0  0  0  0  0  0  0
    8.9282   -3.7282    0.0000 N   0  0  0  0  0  0  0  0  0  0  0  0
    5.6213   -6.0601    0.0000 N   0  0  0  0  0  0  0  0  0  0  0  0
   10.1835    5.8932    0.0000 N   0  0  0  0  0  0  0  0  0  0  0  0
    5.4641    0.2718    0.0000 C   0  0  2  0  0  0  0  0  0  0  0  0
    6.3301   -2.2282    0.0000 C   0  0  1  0  0  0  0  0  0  0  0  0
    5.4641   -2.7282    0.0000 C   0  0  0  0  0  0  0  0  0  0  0  0
    6.3301    0.7718    0.0000 C   0  0  2  0  0  0  0  0  0  0  0  0
    4.5981    0.7718    0.0000 C   0  0  0  0  0  0  0  0  0  0  0  0
    6.3301   -1.2282    0.0000 C   0  0  0  0  0  0  0  0  0  0  0  0
    7.1962    3.2718    0.0000 C   0  0  1  0  0  0  0  0  0  0  0  0
    8.0622   -4.2282    0.0000 C   0  0  2  0  0  0  0  0  0  0  0  0
    6.3301    1.7718    0.0000 C   0  0  0  0  0  0  0  0  0  0  0  0
    9.7352    4.2201    0.0000 C   0  0  1  0  0  0  0  0  0  0  0  0
    5.4641   -3.7282    0.0000 C   0  0  0  0  0  0  0  0  0  0  0  0
    4.5981   -2.2282    0.0000 C   0  0  0  0  0  0  0  0  0  0  0  0
   10.7011    3.9613    0.0000 C   0  0  0  0  0  0  0  0  0  0  0  0
    7.1962   -3.7282    0.0000 C   0  0  0  0  0  0  0  0  0  0  0  0
    8.0622   -5.2282    0.0000 C   0  0  0  0  0  0  0  0  0  0  0  0
    3.7320    0.2718    0.0000 C   0  0  0  0  0  0  0  0  0  0  0  0
    6.3301    3.7718    0.0000 C   0  0  0  0  0  0  0  0  0  0  0  0
    8.0622    3.7718    0.0000 C   0  0  0  0  0  0  0  0  0  0  0  0
    7.1962   -5.7282    0.0000 C   0  0  0  0  0  0  0  0  0  0  0  0
    6.3301    4.7718    0.0000 C   0  0  0  0  0  0  0  0  0  0  0  0
    9.4764    5.1861    0.0000 C   0  0  0  0  0  0  0  0  0  0  0  0
    7.0931   -6.7169    0.0000 C   0  0  0  0  0  0  0  0  0  0  0  0
   10.9600    2.9954    0.0000 C   0  0  0  0  0  0  0  0  0  0  0  0
   11.4082    4.6684    0.0000 C   0  0  0  0  0  0  0  0  0  0  0  0
    3.7320   -0.7282    0.0000 C   0  0  0  0  0  0  0  0  0  0  0  0
    2.8660    0.7718    0.0000 C   0  0  0  0  0  0  0  0  0  0  0  0
    6.2884   -5.3230    0.0000 C   0  0  0  0  0  0  0  0  0  0  0  0
    6.1146   -6.9231    0.0000 C   0  0  0  0  0  0  0  0  0  0  0  0
    7.1962    5.2718    0.0000 C   0  0  0  0  0  0  0  0  0  0  0  0
    5.4641    5.2718    0.0000 C   0  0  0  0  0  0  0  0  0  0  0  0
    7.7609   -7.4612    0.0000 C   0  0  0  0  0  0  0  0  0  0  0  0
    2.8660   -1.2282    0.0000 C   0  0  0  0  0  0  0  0  0  0  0  0
    2.0000    0.2718    0.0000 C   0  0  0  0  0  0  0  0  0  0  0  0
    9.7942   -4.2282    0.0000 C   0  0  0  0  0  0  0  0  0  0  0  0
   10.1835    6.8932    0.0000 C   0  0  0  0  0  0  0  0  0  0  0  0
    5.8039   -7.8736    0.0000 C   0  0  0  0  0  0  0  0  0  0  0  0
    2.0000   -0.7282    0.0000 C   0  0  0  0  0  0  0  0  0  0  0  0
    7.1962    6.2718    0.0000 C   0  0  0  0  0  0  0  0  0  0  0  0
    5.4641    6.2718    0.0000 C   0  0  0  0  0  0  0  0  0  0  0  0
    7.4503   -8.4117    0.0000 C   0  0  0  0  0  0  0  0  0  0  0  0
    6.3301    6.7718    0.0000 C   0  0  0  0  0  0  0  0  0  0  0  0
    6.4718   -8.6179    0.0000 C   0  0  0  0  0  0  0  0  0  0  0  0
    9.3175    7.3932    0.0000 C   0  0  0  0  0  0  0  0  0  0  0  0
   10.6603   -3.7282    0.0000 C   0  0  0  0  0  0  0  0  0  0  0  0
    7.3856    7.9108    0.0000 C   0  0  0  0  0  0  0  0  0  0  0  0
    8.0927    8.6179    0.0000 C   0  0  0  0  0  0  0  0  0  0  0  0
    6.0010   -0.0382    0.0000 H   0  0  0  0  0  0  0  0  0  0  0  0
    6.8671   -1.9182    0.0000 H   0  0  0  0  0  0  0  0  0  0  0  0
    5.4641   -2.1082    0.0000 H   0  0  0  0  0  0  0  0  0  0  0  0
    6.8671    1.0818    0.0000 H   0  0  0  0  0  0  0  0  0  0  0  0
    4.9966    1.2468    0.0000 H   0  0  0  0  0  0  0  0  0  0  0  0
    4.1996    1.2468    0.0000 H   0  0  0  0  0  0  0  0  0  0  0  0
    4.9272   -1.0381    0.0000 H   0  0  0  0  0  0  0  0  0  0  0  0
    6.6592    2.9618    0.0000 H   0  0  0  0  0  0  0  0  0  0  0  0
    7.7331   -2.4181    0.0000 H   0  0  0  0  0  0  0  0  0  0  0  0
    8.5991   -4.5382    0.0000 H   0  0  0  0  0  0  0  0  0  0  0  0
    9.8957    3.6213    0.0000 H   0  0  0  0  0  0  0  0  0  0  0  0
    4.8441   -3.7282    0.0000 H   0  0  0  0  0  0  0  0  0  0  0  0
    5.4641   -4.3482    0.0000 H   0  0  0  0  0  0  0  0  0  0  0  0
    6.0841   -3.7282    0.0000 H   0  0  0  0  0  0  0  0  0  0  0  0
    4.9081   -1.6912    0.0000 H   0  0  0  0  0  0  0  0  0  0  0  0
    4.0611   -1.9182    0.0000 H   0  0  0  0  0  0  0  0  0  0  0  0
    4.2881   -2.7651    0.0000 H   0  0  0  0  0  0  0  0  0  0  0  0
   11.3000    3.8008    0.0000 H   0  0  0  0  0  0  0  0  0  0  0  0
    8.2742   -5.8108    0.0000 H   0  0  0  0  0  0  0  0  0  0  0  0
    8.6728   -5.1205    0.0000 H   0  0  0  0  0  0  0  0  0  0  0  0
    7.7331    1.9618    0.0000 H   0  0  0  0  0  0  0  0  0  0  0  0
    5.7196    3.8795    0.0000 H   0  0  0  0  0  0  0  0  0  0  0  0
    6.1181    3.1892    0.0000 H   0  0  0  0  0  0  0  0  0  0  0  0
    9.1886    2.9142    0.0000 H   0  0  0  0  0  0  0  0  0  0  0  0
    7.7331    0.5818    0.0000 H   0  0  0  0  0  0  0  0  0  0  0  0
    8.9282   -3.1082    0.0000 H   0  0  0  0  0  0  0  0  0  0  0  0
   10.3611    2.8349    0.0000 H   0  0  0  0  0  0  0  0  0  0  0  0
   11.1204    2.3965    0.0000 H   0  0  0  0  0  0  0  0  0  0  0  0
   11.5588    3.1559    0.0000 H   0  0  0  0  0  0  0  0  0  0  0  0
   11.8466    4.2300    0.0000 H   0  0  0  0  0  0  0  0  0  0  0  0
   11.8466    5.1068    0.0000 H   0  0  0  0  0  0  0  0  0  0  0  0
   10.9698    5.1068    0.0000 H   0  0  0  0  0  0  0  0  0  0  0  0
    4.2690   -1.0381    0.0000 H   0  0  0  0  0  0  0  0  0  0  0  0
    2.8660    1.3918    0.0000 H   0  0  0  0  0  0  0  0  0  0  0  0
    6.1605   -4.7164    0.0000 H   0  0  0  0  0  0  0  0  0  0  0  0
    5.0049   -5.9931    0.0000 H   0  0  0  0  0  0  0  0  0  0  0  0
   10.7563    5.6559    0.0000 H   0  0  0  0  0  0  0  0  0  0  0  0
    7.7331    4.9618    0.0000 H   0  0  0  0  0  0  0  0  0  0  0  0
    4.9272    4.9618    0.0000 H   0  0  0  0  0  0  0  0  0  0  0  0
    8.3676   -7.3333    0.0000 H   0  0  0  0  0  0  0  0  0  0  0  0
    2.8660   -1.8482    0.0000 H   0  0  0  0  0  0  0  0  0  0  0  0
    1.4631    0.5818    0.0000 H   0  0  0  0  0  0  0  0  0  0  0  0
   10.7941    6.7855    0.0000 H   0  0  0  0  0  0  0  0  0  0  0  0
   10.3956    7.4758    0.0000 H   0  0  0  0  0  0  0  0  0  0  0  0
    5.1973   -8.0015    0.0000 H   0  0  0  0  0  0  0  0  0  0  0  0
    1.4631   -1.0381    0.0000 H   0  0  0  0  0  0  0  0  0  0  0  0
    7.7331    6.5818    0.0000 H   0  0  0  0  0  0  0  0  0  0  0  0
    4.9272    6.5818    0.0000 H   0  0  0  0  0  0  0  0  0  0  0  0
    7.8643   -8.8732    0.0000 H   0  0  0  0  0  0  0  0  0  0  0  0
    6.2792   -9.2072    0.0000 H   0  0  0  0  0  0  0  0  0  0  0  0
    8.6975    7.3932    0.0000 H   0  0  0  0  0  0  0  0  0  0  0  0
    9.1570    6.7943    0.0000 H   0  0  0  0  0  0  0  0  0  0  0  0
   10.9703   -4.2651    0.0000 H   0  0  0  0  0  0  0  0  0  0  0  0
   11.1972   -3.4182    0.0000 H   0  0  0  0  0  0  0  0  0  0  0  0
   10.3503   -3.1912    0.0000 H   0  0  0  0  0  0  0  0  0  0  0  0
    7.2780    7.3002    0.0000 H   0  0  0  0  0  0  0  0  0  0  0  0
    7.9356    7.6245    0.0000 H   0  0  0  0  0  0  0  0  0  0  0  0
    8.3547    9.1798    0.0000 H   0  0  0  0  0  0  0  0  0  0  0  0
    7.5848    8.9735    0.0000 H   0  0  0  0  0  0  0  0  0  0  0  0
 20  1  1  6  0  0  0
  1 87  1  0  0  0  0
  2 22  2  0  0  0  0
  3 25  2  0  0  0  0
  4 30  2  0  0  0  0
  5 34  2  0  0  0  0
  6 37  2  0  0  0  0
  7 57  1  0  0  0  0
  7 61  1  0  0  0  0
  8 59  1  0  0  0  0
  8 62  1  0  0  0  0
  9 50  2  0  0  0  0
 17 10  1  1  0  0  0
 10 22  1  0  0  0  0
 10 69  1  0  0  0  0
 18 11  1  1  0  0  0
 11 30  1  0  0  0  0
 11 71  1  0  0  0  0
 23 12  1  1  0  0  0
 12 25  1  0  0  0  0
 12 83  1  0  0  0  0
 13 26  1  0  0  0  0
 13 34  1  0  0  0  0
 13 86  1  0  0  0  0
 24 14  1  1  0  0  0
 14 50  1  0  0  0  0
 14 88  1  0  0  0  0
 15 43  1  0  0  0  0
 15 44  1  0  0  0  0
 15 98  1  0  0  0  0
 16 37  1  0  0  0  0
 16 51  1  0  0  0  0
 16 99  1  0  0  0  0
 17 20  1  0  0  0  0
 17 21  1  0  0  0  0
 17 63  1  0  0  0  0
 18 19  1  0  0  0  0
 18 22  1  0  0  0  0
 18 64  1  0  0  0  0
 19 27  1  0  0  0  0
 19 28  1  0  0  0  0
 19 65  1  0  0  0  0
 20 25  1  0  0  0  0
 20 66  1  0  0  0  0
 21 32  1  0  0  0  0
 21 67  1  0  0  0  0
 21 68  1  0  0  0  0
 23 33  1  0  0  0  0
 23 34  1  0  0  0  0
 23 70  1  0  0  0  0
 24 30  1  0  0  0  0
 24 31  1  0  0  0  0
 24 72  1  0  0  0  0
 26 29  1  6  0  0  0
 26 37  1  0  0  0  0
 26 73  1  0  0  0  0
 27 74  1  0  0  0  0
 27 75  1  0  0  0  0
 27 76  1  0  0  0  0
 28 77  1  0  0  0  0
 28 78  1  0  0  0  0
 28 79  1  0  0  0  0
 29 39  1  0  0  0  0
 29 40  1  0  0  0  0
 29 80  1  0  0  0  0
 31 35  1  0  0  0  0
 31 81  1  0  0  0  0
 31 82  1  0  0  0  0
 32 41  2  0  0  0  0
 32 42  1  0  0  0  0
 33 36  1  0  0  0  0
 33 84  1  0  0  0  0
 33 85  1  0  0  0  0
 35 38  1  0  0  0  0
 35 43  2  0  0  0  0
 36 45  2  0  0  0  0
 36 46  1  0  0  0  0
 38 44  1  0  0  0  0
 38 47  2  0  0  0  0
 39 89  1  0  0  0  0
 39 90  1  0  0  0  0
 39 91  1  0  0  0  0
 40 92  1  0  0  0  0
 40 93  1  0  0  0  0
 40 94  1  0  0  0  0
 41 48  1  0  0  0  0
 41 95  1  0  0  0  0
 42 49  2  0  0  0  0
 42 96  1  0  0  0  0
 43 97  1  0  0  0  0
 44 52  2  0  0  0  0
 45 54  1  0  0  0  0
 45100  1  0  0  0  0
 46 55  2  0  0  0  0
 46101  1  0  0  0  0
 47 56  1  0  0  0  0
 47102  1  0  0  0  0
 48 53  2  0  0  0  0
 48103  1  0  0  0  0
 49 53  1  0  0  0  0
 49104  1  0  0  0  0
 50 60  1  0  0  0  0
 51 59  1  0  0  0  0
 51105  1  0  0  0  0
 51106  1  0  0  0  0
 52 58  1  0  0  0  0
 52107  1  0  0  0  0
 53108  1  0  0  0  0
 54 57  2  0  0  0  0
 54109  1  0  0  0  0
 55 57  1  0  0  0  0
 55110  1  0  0  0  0
 56 58  2  0  0  0  0
 56111  1  0  0  0  0
 58112  1  0  0  0  0
 59113  1  0  0  0  0
 59114  1  0  0  0  0
 60115  1  0  0  0  0
 60116  1  0  0  0  0
 60117  1  0  0  0  0
 61 62  1  0  0  0  0
 61118  1  0  0  0  0
 61119  1  0  0  0  0
 62120  1  0  0  0  0
 62121  1  0  0  0  0
M  END
> <PUBCHEM_COMPOUND_CID>
503822
> <PUBCHEM_COMPOUND_CANONICALIZED>
1
> <PUBCHEM_CACTVS_COMPLEXITY>
1480
> <PUBCHEM_CACTVS_HBOND_ACCEPTOR>
9
> <PUBCHEM_CACTVS_HBOND_DONOR>
8
> <PUBCHEM_CACTVS_ROTATABLE_BOND>
14
> <PUBCHEM_CACTVS_SUBSKEYS>
AAADcfB/vAAAAAAAAAAAAAAAAAAAAWAAAAAwYMAAAAAAAFgB9AAAHgAQCAAADTzhngY+xvLJlgCoAzV3VAKCiCAxIiAI2aH+bJgPdvrE8buXeCjk1hHa6AeYyeCOoAAAAAACAABAAAAAAAQAAAAAAAAAAA==
> <PUBCHEM_IUPAC_OPENEYE_NAME>
(2S)-2-[[(2S)-2-acetamido-3-(1H-indol-3-yl)propanoyl]amino]-N-[(1S,2R)-1-benzyl-2-hydroxy-3-[[(10S,13S)-10-isopropyl-9,12-dioxo-2,5-dioxa-8,11-diazabicyclo[13.2.2]nonadeca-1(17),15,18-trien-13-yl]amino]-3-oxo-propyl]-3-methyl-butanamide
> <PUBCHEM_IUPAC_CAS_NAME>
(2S)-2-[[(2S)-2-acetamido-3-(1H-indol-3-yl)-1-oxopropyl]amino]-N-[(2S,3R)-4-[[(10S,13S)-9,12-dioxo-10-propan-2-yl-2,5-dioxa-8,11-diazabicyclo[13.2.2]nonadeca-1(17),15,18-trien-13-yl]amino]-3-hydroxy-4-oxo-1-phenylbutan-2-yl]-3-methylbutanamide
> <PUBCHEM_IUPAC_NAME_MARKUP>
(2<I>S</I>)-2-[[(2<I>S</I>)-2-acetamido-3-(1<I>H</I>-indol-3-yl)propanoyl]amino]-<I>N</I>-[(2<I>S</I>,3<I>R</I>)-4-[[(10<I>S</I>,13<I>S</I>)-9,12-dioxo-10-propan-2-yl-2,5-dioxa-8,11-diazabicyclo[13.2.2]nonadeca-1(17),15,18-trien-13-yl]amino]-3-hydroxy-4-oxo-1-phenylbutan-2-yl]-3-methylbutanamide
> <PUBCHEM_IUPAC_NAME>
(2S)-2-[[(2S)-2-acetamido-3-(1H-indol-3-yl)propanoyl]amino]-N-[(2S,3R)-4-[[(10S,13S)-9,12-dioxo-10-propan-2-yl-2,5-dioxa-8,11-diazabicyclo[13.2.2]nonadeca-1(17),15,18-trien-13-yl]amino]-3-hydroxy-4-oxo-1-phenylbutan-2-yl]-3-methylbutanamide
> <PUBCHEM_IUPAC_SYSTEMATIC_NAME>
(2S)-2-[[(2S)-2-acetamido-3-(1H-indol-3-yl)propanoyl]amino]-N-[(2S,3R)-4-[[(10S,13S)-9,12-bis(oxidanylidene)-10-propan-2-yl-2,5-dioxa-8,11-diazabicyclo[13.2.2]nonadeca-1(17),15,18-trien-13-yl]amino]-3-oxidanyl-4-oxidanylidene-1-phenyl-butan-2-yl]-3-methyl-butanamide
> <PUBCHEM_IUPAC_TRADITIONAL_NAME>
(2S)-2-[[(2S)-2-acetamido-3-(1H-indol-3-yl)propanoyl]amino]-N-[(1S,2R)-1-benzyl-2-hydroxy-3-[[(10S,13S)-10-isopropyl-9,12-diketo-2,5-dioxa-8,11-diazabicyclo[13.2.2]nonadeca-1(17),15,18-trien-13-yl]amino]-3-keto-propyl]-3-methyl-butyramide
> <PUBCHEM_IUPAC_INCHI>
InChI=1S/C46H59N7O9/c1-27(2)39-44(58)47-19-20-61-21-22-62-33-17-15-31(16-18-33)24-37(42(56)52-39)51-46(60)41(55)36(23-30-11-7-6-8-12-30)50-45(59)40(28(3)4)53-43(57)38(49-29(5)54)25-32-26-48-35-14-10-9-13-34(32)35/h6-18,26-28,36-41,48,55H,19-25H2,1-5H3,(H,47,58)(H,49,54)(H,50,59)(H,51,60)(H,52,56)(H,53,57)/t36-,37-,38-,39-,40-,41+/m0/s1
> <PUBCHEM_IUPAC_INCHIKEY>
MKHZNIFTLIOFGP-CXPNOJHDSA-N
> <PUBCHEM_XLOGP3_AA>
4.1
> <PUBCHEM_EXACT_MASS>
853.43742649
> <PUBCHEM_MOLECULAR_FORMULA>
C46H59N7O9
> <PUBCHEM_MOLECULAR_WEIGHT>
854.0
> <PUBCHEM_OPENEYE_CAN_SMILES>
CC(C)C1C(=O)NCCOCCOC2=CC=C(CC(C(=O)N1)NC(=O)C(C(CC3=CC=CC=C3)NC(=O)C(C(C)C)NC(=O)C(CC4=CNC5=CC=CC=C54)NC(=O)C)O)C=C2
> <PUBCHEM_OPENEYE_ISO_SMILES>
CC(C)[C@H]1C(=O)NCCOCCOC2=CC=C(C[C@@H](C(=O)N1)NC(=O)[C@@H]([C@H](CC3=CC=CC=C3)NC(=O)[C@H](C(C)C)NC(=O)[C@H](CC4=CNC5=CC=CC=C54)NC(=O)C)O)C=C2
> <PUBCHEM_CACTVS_TPSA>
229
> <PUBCHEM_MONOISOTOPIC_WEIGHT>
853.43742649
> <PUBCHEM_TOTAL_CHARGE>
0
> <PUBCHEM_HEAVY_ATOM_COUNT>
62
> <PUBCHEM_ATOM_DEF_STEREO_COUNT>
6
> <PUBCHEM_ATOM_UDEF_STEREO_COUNT>
0
> <PUBCHEM_BOND_DEF_STEREO_COUNT>
0
> <PUBCHEM_BOND_UDEF_STEREO_COUNT>
0
> <PUBCHEM_ISOTOPIC_ATOM_COUNT>
0
> <PUBCHEM_COMPONENT_COUNT>
1
> <PUBCHEM_CACTVS_TAUTO_COUNT>
-1
> <PUBCHEM_COORDINATE_TYPE>
1
5
255
> <PUBCHEM_BONDANNOTATIONS>
20  1  6
17  10  5
18  11  5
23  12  5
24  14  5
15  43  8
15  44  8
26  29  6
32  41  8
32  42  8
35  38  8
35  43  8
36  45  8
36  46  8
38  44  8
38  47  8
41  48  8
42  49  8
44  52  8
45  54  8
46  55  8
47  56  8
48  53  8
49  53  8
52  58  8
54  57  8
55  57  8
56  58  8
$$$$
