503823
  -OEChem-10302200282D
117120  0     1  0  0  0  0  0999 V2000
    4.7169    6.1181    0.0000 F   0  0  0  0  0  0  0  0  0  0  0  0
    8.4095   -1.4634    0.0000 O   0  0  0  0  0  0  0  0  0  0  0  0
    7.6382   -0.4748    0.0000 O   0  0  0  0  0  0  0  0  0  0  0  0
   10.2837   -3.6886    0.0000 O   0  0  0  0  0  0  0  0  0  0  0  0
   12.1893   -4.7039    0.0000 O   0  0  0  0  0  0  0  0  0  0  0  0
    4.0530   -0.0915    0.0000 O   0  0  0  0  0  0  0  0  0  0  0  0
    8.2410   -3.3486    0.0000 O   0  0  0  0  0  0  0  0  0  0  0  0
   12.1893    1.2961    0.0000 O   0  0  0  0  0  0  0  0  0  0  0  0
   10.3573   -0.2812    0.0000 O   0  0  0  0  0  0  0  0  0  0  0  0
    3.1133    0.2505    0.0000 O   0  0  0  0  0  0  0  0  0  0  0  0
    7.0458   -2.1023    0.0000 N   0  0  0  0  0  0  0  0  0  0  0  0
    5.7588    0.2093    0.0000 N   0  0  0  0  0  0  0  0  0  0  0  0
   10.4572   -2.7039    0.0000 N   0  0  0  0  0  0  0  0  0  0  0  0
   10.4572   -4.7039    0.0000 N   0  0  0  0  0  0  0  0  0  0  0  0
    3.7057    1.8781    0.0000 N   0  0  0  0  0  0  0  0  0  0  0  0
    9.7325   -2.6131    0.0000 N   0  0  0  0  0  0  0  0  0  0  0  0
    7.8118   -2.7451    0.0000 C   0  0  2  0  0  0  0  0  0  0  0  0
    5.9324   -0.7755    0.0000 C   0  0  1  0  0  0  0  0  0  0  0  0
    5.1664   -1.4183    0.0000 C   0  0  0  0  0  0  0  0  0  0  0  0
    8.7515   -2.4030    0.0000 C   0  0  2  0  0  0  0  0  0  0  0  0
    7.6381   -3.7299    0.0000 C   0  0  0  0  0  0  0  0  0  0  0  0
    6.8721   -1.1176    0.0000 C   0  0  0  0  0  0  0  0  0  0  0  0
   11.3233   -3.2039    0.0000 C   0  0  1  0  0  0  0  0  0  0  0  0
    9.4913   -4.4451    0.0000 C   0  0  1  0  0  0  0  0  0  0  0  0
    9.5175   -3.0459    0.0000 C   0  0  0  0  0  0  0  0  0  0  0  0
    8.7842   -5.1522    0.0000 C   0  0  0  0  0  0  0  0  0  0  0  0
    4.2267   -1.0763    0.0000 C   0  0  0  0  0  0  0  0  0  0  0  0
    5.3400   -2.4030    0.0000 C   0  0  0  0  0  0  0  0  0  0  0  0
   12.1893   -2.7039    0.0000 C   0  0  0  0  0  0  0  0  0  0  0  0
    6.6984   -4.0720    0.0000 C   0  0  0  0  0  0  0  0  0  0  0  0
   11.3233   -4.2039    0.0000 C   0  0  0  0  0  0  0  0  0  0  0  0
    4.6454    1.5361    0.0000 C   0  0  2  0  0  0  0  0  0  0  0  0
    4.8191    0.5513    0.0000 C   0  0  0  0  0  0  0  0  0  0  0  0
    9.2325   -3.4792    0.0000 C   0  0  0  0  0  0  0  0  0  0  0  0
   12.1893   -1.7039    0.0000 C   0  0  0  0  0  0  0  0  0  0  0  0
    9.0430   -6.1181    0.0000 C   0  0  0  0  0  0  0  0  0  0  0  0
    7.8183   -4.8934    0.0000 C   0  0  0  0  0  0  0  0  0  0  0  0
    5.4115    2.1789    0.0000 C   0  0  0  0  0  0  0  0  0  0  0  0
    6.5248   -5.0568    0.0000 C   0  0  0  0  0  0  0  0  0  0  0  0
    5.9324   -3.4291    0.0000 C   0  0  0  0  0  0  0  0  0  0  0  0
    5.2378    3.1637    0.0000 C   0  0  0  0  0  0  0  0  0  0  0  0
   11.3233   -1.2039    0.0000 C   0  0  0  0  0  0  0  0  0  0  0  0
   13.0553   -1.2039    0.0000 C   0  0  0  0  0  0  0  0  0  0  0  0
    5.5851   -5.3988    0.0000 C   0  0  0  0  0  0  0  0  0  0  0  0
    4.9927   -3.7712    0.0000 C   0  0  0  0  0  0  0  0  0  0  0  0
    9.2325   -1.7471    0.0000 C   0  0  0  0  0  0  0  0  0  0  0  0
    4.8191   -4.7560    0.0000 C   0  0  0  0  0  0  0  0  0  0  0  0
   11.3233   -0.2039    0.0000 C   0  0  0  0  0  0  0  0  0  0  0  0
   13.0553   -0.2039    0.0000 C   0  0  0  0  0  0  0  0  0  0  0  0
   12.1893    0.2961    0.0000 C   0  0  0  0  0  0  0  0  0  0  0  0
    9.4913   -0.7812    0.0000 C   0  0  0  0  0  0  0  0  0  0  0  0
    2.9397    1.2353    0.0000 C   0  0  0  0  0  0  0  0  0  0  0  0
    4.2981    3.5057    0.0000 C   0  0  0  0  0  0  0  0  0  0  0  0
    6.0039    3.8065    0.0000 C   0  0  0  0  0  0  0  0  0  0  0  0
   11.2234    1.2188    0.0000 C   0  0  0  0  0  0  0  0  0  0  0  0
   10.3573    0.7188    0.0000 C   0  0  0  0  0  0  0  0  0  0  0  0
    4.1245    4.4905    0.0000 C   0  0  0  0  0  0  0  0  0  0  0  0
    5.8302    4.7913    0.0000 C   0  0  0  0  0  0  0  0  0  0  0  0
    2.0000    1.5774    0.0000 C   0  0  0  0  0  0  0  0  0  0  0  0
    4.8905    5.1333    0.0000 C   0  0  0  0  0  0  0  0  0  0  0  0
    7.2292   -2.9571    0.0000 H   0  0  0  0  0  0  0  0  0  0  0  0
    6.4074   -0.3770    0.0000 H   0  0  0  0  0  0  0  0  0  0  0  0
    4.6914   -1.8169    0.0000 H   0  0  0  0  0  0  0  0  0  0  0  0
    9.2594   -2.0474    0.0000 H   0  0  0  0  0  0  0  0  0  0  0  0
    7.7458   -4.3405    0.0000 H   0  0  0  0  0  0  0  0  0  0  0  0
    8.2581   -3.7299    0.0000 H   0  0  0  0  0  0  0  0  0  0  0  0
    6.4632   -2.3143    0.0000 H   0  0  0  0  0  0  0  0  0  0  0  0
   11.3233   -2.5839    0.0000 H   0  0  0  0  0  0  0  0  0  0  0  0
    9.6518   -5.0440    0.0000 H   0  0  0  0  0  0  0  0  0  0  0  0
    6.2337    0.6078    0.0000 H   0  0  0  0  0  0  0  0  0  0  0  0
    8.3458   -5.5906    0.0000 H   0  0  0  0  0  0  0  0  0  0  0  0
   10.7672   -2.1670    0.0000 H   0  0  0  0  0  0  0  0  0  0  0  0
    4.4387   -0.4937    0.0000 H   0  0  0  0  0  0  0  0  0  0  0  0
    3.6441   -0.8643    0.0000 H   0  0  0  0  0  0  0  0  0  0  0  0
    4.0146   -1.6589    0.0000 H   0  0  0  0  0  0  0  0  0  0  0  0
    4.7294   -2.5106    0.0000 H   0  0  0  0  0  0  0  0  0  0  0  0
    5.4477   -3.0135    0.0000 H   0  0  0  0  0  0  0  0  0  0  0  0
    5.9506   -2.2953    0.0000 H   0  0  0  0  0  0  0  0  0  0  0  0
   12.4013   -3.2865    0.0000 H   0  0  0  0  0  0  0  0  0  0  0  0
   12.7999   -2.5962    0.0000 H   0  0  0  0  0  0  0  0  0  0  0  0
   10.5382   -5.3186    0.0000 H   0  0  0  0  0  0  0  0  0  0  0  0
    4.1705    1.1376    0.0000 H   0  0  0  0  0  0  0  0  0  0  0  0
    8.4442   -6.2786    0.0000 H   0  0  0  0  0  0  0  0  0  0  0  0
    9.2035   -6.7170    0.0000 H   0  0  0  0  0  0  0  0  0  0  0  0
    9.6419   -5.9576    0.0000 H   0  0  0  0  0  0  0  0  0  0  0  0
    7.9787   -4.2945    0.0000 H   0  0  0  0  0  0  0  0  0  0  0  0
    7.2194   -4.7329    0.0000 H   0  0  0  0  0  0  0  0  0  0  0  0
    7.6578   -5.4922    0.0000 H   0  0  0  0  0  0  0  0  0  0  0  0
    7.8726   -1.1534    0.0000 H   0  0  0  0  0  0  0  0  0  0  0  0
    5.7215    1.6420    0.0000 H   0  0  0  0  0  0  0  0  0  0  0  0
    5.9941    2.3909    0.0000 H   0  0  0  0  0  0  0  0  0  0  0  0
    6.9998   -5.4553    0.0000 H   0  0  0  0  0  0  0  0  0  0  0  0
    6.0401   -2.8186    0.0000 H   0  0  0  0  0  0  0  0  0  0  0  0
    3.5981    2.4887    0.0000 H   0  0  0  0  0  0  0  0  0  0  0  0
   10.0425   -2.0762    0.0000 H   0  0  0  0  0  0  0  0  0  0  0  0
   10.7863   -1.5139    0.0000 H   0  0  0  0  0  0  0  0  0  0  0  0
   13.5922   -1.5139    0.0000 H   0  0  0  0  0  0  0  0  0  0  0  0
    5.4774   -6.0094    0.0000 H   0  0  0  0  0  0  0  0  0  0  0  0
    4.5178   -3.3726    0.0000 H   0  0  0  0  0  0  0  0  0  0  0  0
    8.6956   -1.4371    0.0000 H   0  0  0  0  0  0  0  0  0  0  0  0
    8.7941   -2.1855    0.0000 H   0  0  0  0  0  0  0  0  0  0  0  0
    4.2364   -4.9680    0.0000 H   0  0  0  0  0  0  0  0  0  0  0  0
   10.7863    0.1061    0.0000 H   0  0  0  0  0  0  0  0  0  0  0  0
   13.5922    0.1061    0.0000 H   0  0  0  0  0  0  0  0  0  0  0  0
    9.3308   -0.1823    0.0000 H   0  0  0  0  0  0  0  0  0  0  0  0
    8.8713   -0.7812    0.0000 H   0  0  0  0  0  0  0  0  0  0  0  0
    3.8232    3.1072    0.0000 H   0  0  0  0  0  0  0  0  0  0  0  0
    6.5865    3.5944    0.0000 H   0  0  0  0  0  0  0  0  0  0  0  0
   11.4041    1.8119    0.0000 H   0  0  0  0  0  0  0  0  0  0  0  0
   11.4076    0.6268    0.0000 H   0  0  0  0  0  0  0  0  0  0  0  0
   10.1453    1.3014    0.0000 H   0  0  0  0  0  0  0  0  0  0  0  0
    9.7468    0.6112    0.0000 H   0  0  0  0  0  0  0  0  0  0  0  0
    3.5419    4.7026    0.0000 H   0  0  0  0  0  0  0  0  0  0  0  0
    6.3052    5.1898    0.0000 H   0  0  0  0  0  0  0  0  0  0  0  0
    2.2120    2.1600    0.0000 H   0  0  0  0  0  0  0  0  0  0  0  0
    1.4174    1.7894    0.0000 H   0  0  0  0  0  0  0  0  0  0  0  0
    1.7880    0.9947    0.0000 H   0  0  0  0  0  0  0  0  0  0  0  0
  1 60  1  0  0  0  0
 20  2  1  1  0  0  0
  2 89  1  0  0  0  0
  3 22  2  0  0  0  0
  4 25  2  0  0  0  0
  5 31  2  0  0  0  0
  6 33  2  0  0  0  0
  7 34  2  0  0  0  0
  8 50  1  0  0  0  0
  8 55  1  0  0  0  0
  9 51  1  0  0  0  0
  9 56  1  0  0  0  0
 10 52  2  0  0  0  0
 17 11  1  6  0  0  0
 11 22  1  0  0  0  0
 11 67  1  0  0  0  0
 18 12  1  6  0  0  0
 12 33  1  0  0  0  0
 12 70  1  0  0  0  0
 23 13  1  1  0  0  0
 13 25  1  0  0  0  0
 13 72  1  0  0  0  0
 14 24  1  0  0  0  0
 14 31  1  0  0  0  0
 14 81  1  0  0  0  0
 32 15  1  1  0  0  0
 15 52  1  0  0  0  0
 15 94  1  0  0  0  0
 16 34  1  0  0  0  0
 16 46  1  0  0  0  0
 16 95  1  0  0  0  0
 17 20  1  0  0  0  0
 17 21  1  0  0  0  0
 17 61  1  0  0  0  0
 18 19  1  0  0  0  0
 18 22  1  0  0  0  0
 18 62  1  0  0  0  0
 19 27  1  0  0  0  0
 19 28  1  0  0  0  0
 19 63  1  0  0  0  0
 20 25  1  0  0  0  0
 20 64  1  0  0  0  0
 21 30  1  0  0  0  0
 21 65  1  0  0  0  0
 21 66  1  0  0  0  0
 23 29  1  0  0  0  0
 23 31  1  0  0  0  0
 23 68  1  0  0  0  0
 24 26  1  1  0  0  0
 24 34  1  0  0  0  0
 24 69  1  0  0  0  0
 26 36  1  0  0  0  0
 26 37  1  0  0  0  0
 26 71  1  0  0  0  0
 27 73  1  0  0  0  0
 27 74  1  0  0  0  0
 27 75  1  0  0  0  0
 28 76  1  0  0  0  0
 28 77  1  0  0  0  0
 28 78  1  0  0  0  0
 29 35  1  0  0  0  0
 29 79  1  0  0  0  0
 29 80  1  0  0  0  0
 30 39  2  0  0  0  0
 30 40  1  0  0  0  0
 32 33  1  0  0  0  0
 32 38  1  0  0  0  0
 32 82  1  0  0  0  0
 35 42  2  0  0  0  0
 35 43  1  0  0  0  0
 36 83  1  0  0  0  0
 36 84  1  0  0  0  0
 36 85  1  0  0  0  0
 37 86  1  0  0  0  0
 37 87  1  0  0  0  0
 37 88  1  0  0  0  0
 38 41  1  0  0  0  0
 38 90  1  0  0  0  0
 38 91  1  0  0  0  0
 39 44  1  0  0  0  0
 39 92  1  0  0  0  0
 40 45  2  0  0  0  0
 40 93  1  0  0  0  0
 41 53  2  0  0  0  0
 41 54  1  0  0  0  0
 42 48  1  0  0  0  0
 42 96  1  0  0  0  0
 43 49  2  0  0  0  0
 43 97  1  0  0  0  0
 44 47  2  0  0  0  0
 44 98  1  0  0  0  0
 45 47  1  0  0  0  0
 45 99  1  0  0  0  0
 46 51  1  0  0  0  0
 46100  1  0  0  0  0
 46101  1  0  0  0  0
 47102  1  0  0  0  0
 48 50  2  0  0  0  0
 48103  1  0  0  0  0
 49 50  1  0  0  0  0
 49104  1  0  0  0  0
 51105  1  0  0  0  0
 51106  1  0  0  0  0
 52 59  1  0  0  0  0
 53 57  1  0  0  0  0
 53107  1  0  0  0  0
 54 58  2  0  0  0  0
 54108  1  0  0  0  0
 55 56  1  0  0  0  0
 55109  1  0  0  0  0
 55110  1  0  0  0  0
 56111  1  0  0  0  0
 56112  1  0  0  0  0
 57 60  2  0  0  0  0
 57113  1  0  0  0  0
 58 60  1  0  0  0  0
 58114  1  0  0  0  0
 59115  1  0  0  0  0
 59116  1  0  0  0  0
 59117  1  0  0  0  0
M  END
> <PUBCHEM_COMPOUND_CID>
503823
> <PUBCHEM_COMPOUND_CANONICALIZED>
1
> <PUBCHEM_CACTVS_COMPLEXITY>
1400
> <PUBCHEM_CACTVS_HBOND_ACCEPTOR>
10
> <PUBCHEM_CACTVS_HBOND_DONOR>
7
> <PUBCHEM_CACTVS_ROTATABLE_BOND>
14
> <PUBCHEM_CACTVS_SUBSKEYS>
AAADcfB/vQAAAAAAAAAAAAAAAAAAAAAAAAAwYMAAAAAAAAABUAAAHwAQCAAADTzhmA4yBoLABgCIAiFSEAICCAAgIAAIiIHOCIgPdjqE8TuXeCCk1hGaqAeYyKCOIAAAAAAAAABAAAAAAAAAAAAAAAAAAA==
> <PUBCHEM_IUPAC_OPENEYE_NAME>
(2S)-2-[[(2S)-2-acetamido-3-(4-fluorophenyl)propanoyl]amino]-N-[(1S,2R)-1-benzyl-2-hydroxy-3-[[(10S,13S)-10-isopropyl-9,12-dioxo-2,5-dioxa-8,11-diazabicyclo[13.2.2]nonadeca-1(17),15,18-trien-13-yl]amino]-3-oxo-propyl]-3-methyl-butanamide
> <PUBCHEM_IUPAC_CAS_NAME>
(2S)-2-[[(2S)-2-acetamido-3-(4-fluorophenyl)-1-oxopropyl]amino]-N-[(2S,3R)-4-[[(10S,13S)-9,12-dioxo-10-propan-2-yl-2,5-dioxa-8,11-diazabicyclo[13.2.2]nonadeca-1(17),15,18-trien-13-yl]amino]-3-hydroxy-4-oxo-1-phenylbutan-2-yl]-3-methylbutanamide
> <PUBCHEM_IUPAC_NAME_MARKUP>
(2<I>S</I>)-2-[[(2<I>S</I>)-2-acetamido-3-(4-fluorophenyl)propanoyl]amino]-<I>N</I>-[(2<I>S</I>,3<I>R</I>)-4-[[(10<I>S</I>,13<I>S</I>)-9,12-dioxo-10-propan-2-yl-2,5-dioxa-8,11-diazabicyclo[13.2.2]nonadeca-1(17),15,18-trien-13-yl]amino]-3-hydroxy-4-oxo-1-phenylbutan-2-yl]-3-methylbutanamide
> <PUBCHEM_IUPAC_NAME>
(2S)-2-[[(2S)-2-acetamido-3-(4-fluorophenyl)propanoyl]amino]-N-[(2S,3R)-4-[[(10S,13S)-9,12-dioxo-10-propan-2-yl-2,5-dioxa-8,11-diazabicyclo[13.2.2]nonadeca-1(17),15,18-trien-13-yl]amino]-3-hydroxy-4-oxo-1-phenylbutan-2-yl]-3-methylbutanamide
> <PUBCHEM_IUPAC_SYSTEMATIC_NAME>
(2S)-2-[[(2S)-2-acetamido-3-(4-fluorophenyl)propanoyl]amino]-N-[(2S,3R)-4-[[(10S,13S)-9,12-bis(oxidanylidene)-10-propan-2-yl-2,5-dioxa-8,11-diazabicyclo[13.2.2]nonadeca-1(17),15,18-trien-13-yl]amino]-3-oxidanyl-4-oxidanylidene-1-phenyl-butan-2-yl]-3-methyl-butanamide
> <PUBCHEM_IUPAC_TRADITIONAL_NAME>
(2S)-2-[[(2S)-2-acetamido-3-(4-fluorophenyl)propanoyl]amino]-N-[(1S,2R)-1-benzyl-2-hydroxy-3-[[(10S,13S)-10-isopropyl-9,12-diketo-2,5-dioxa-8,11-diazabicyclo[13.2.2]nonadeca-1(17),15,18-trien-13-yl]amino]-3-keto-propyl]-3-methyl-butyramide
> <PUBCHEM_IUPAC_INCHI>
InChI=1S/C44H57FN6O9/c1-26(2)37-42(56)46-19-20-59-21-22-60-33-17-13-31(14-18-33)25-36(41(55)50-37)49-44(58)39(53)34(23-29-9-7-6-8-10-29)48-43(57)38(27(3)4)51-40(54)35(47-28(5)52)24-30-11-15-32(45)16-12-30/h6-18,26-27,34-39,53H,19-25H2,1-5H3,(H,46,56)(H,47,52)(H,48,57)(H,49,58)(H,50,55)(H,51,54)/t34-,35-,36-,37-,38-,39+/m0/s1
> <PUBCHEM_IUPAC_INCHIKEY>
ADQDYVLWNKXJBA-HBRWQXLPSA-N
> <PUBCHEM_XLOGP3_AA>
4.1
> <PUBCHEM_EXACT_MASS>
832.41710558
> <PUBCHEM_MOLECULAR_FORMULA>
C44H57FN6O9
> <PUBCHEM_MOLECULAR_WEIGHT>
833.0
> <PUBCHEM_OPENEYE_CAN_SMILES>
CC(C)C1C(=O)NCCOCCOC2=CC=C(CC(C(=O)N1)NC(=O)C(C(CC3=CC=CC=C3)NC(=O)C(C(C)C)NC(=O)C(CC4=CC=C(C=C4)F)NC(=O)C)O)C=C2
> <PUBCHEM_OPENEYE_ISO_SMILES>
CC(C)[C@H]1C(=O)NCCOCCOC2=CC=C(C[C@@H](C(=O)N1)NC(=O)[C@@H]([C@H](CC3=CC=CC=C3)NC(=O)[C@H](C(C)C)NC(=O)[C@H](CC4=CC=C(C=C4)F)NC(=O)C)O)C=C2
> <PUBCHEM_CACTVS_TPSA>
213
> <PUBCHEM_MONOISOTOPIC_WEIGHT>
832.41710558
> <PUBCHEM_TOTAL_CHARGE>
0
> <PUBCHEM_HEAVY_ATOM_COUNT>
60
> <PUBCHEM_ATOM_DEF_STEREO_COUNT>
6
> <PUBCHEM_ATOM_UDEF_STEREO_COUNT>
0
> <PUBCHEM_BOND_DEF_STEREO_COUNT>
0
> <PUBCHEM_BOND_UDEF_STEREO_COUNT>
0
> <PUBCHEM_ISOTOPIC_ATOM_COUNT>
0
> <PUBCHEM_COMPONENT_COUNT>
1
> <PUBCHEM_CACTVS_TAUTO_COUNT>
-1
> <PUBCHEM_COORDINATE_TYPE>
1
5
255
> <PUBCHEM_BONDANNOTATIONS>
17  11  6
18  12  6
23  13  5
32  15  5
20  2  5
24  26  5
30  39  8
30  40  8
35  42  8
35  43  8
39  44  8
40  45  8
41  53  8
41  54  8
42  48  8
43  49  8
44  47  8
45  47  8
48  50  8
49  50  8
53  57  8
54  58  8
57  60  8
58  60  8
$$$$
