503820
  -OEChem-10302200282D
143149  0     1  0  0  0  0  0999 V2000
    8.8281    0.7430    0.0000 O   0  0  0  0  0  0  0  0  0  0  0  0
    8.8281   -0.2570    0.0000 O   0  0  0  0  0  0  0  0  0  0  0  0
    9.6942   -3.7570    0.0000 O   0  0  0  0  0  0  0  0  0  0  0  0
   10.5602    2.7430    0.0000 O   0  0  0  0  0  0  0  0  0  0  0  0
    7.7257    3.2641    0.0000 O   0  0  0  0  0  0  0  0  0  0  0  0
    6.0092    6.2071    0.0000 O   0  0  0  0  0  0  0  0  0  0  0  0
    9.6718    8.1266    0.0000 O   0  0  0  0  0  0  0  0  0  0  0  0
    9.6942   -4.7570    0.0000 O   0  0  0  0  0  0  0  0  0  0  0  0
    5.1474   -4.9595    0.0000 N   0  0  0  0  0  0  0  0  0  0  0  0
   10.5602   -0.2570    0.0000 N   0  0  0  0  0  0  0  0  0  0  0  0
    8.8281   -2.2570    0.0000 N   0  0  0  0  0  0  0  0  0  0  0  0
    5.3165   -3.3503    0.0000 N   0  0  0  0  0  0  0  0  0  0  0  0
    8.8281    2.7430    0.0000 N   0  0  0  0  0  0  0  0  0  0  0  0
    7.9621   -4.7570    0.0000 N   0  0  0  0  0  0  0  0  0  0  0  0
    7.0104    4.2300    0.0000 N   0  0  0  0  0  0  0  0  0  0  0  0
    6.5233    7.2830    0.0000 N   0  0  0  0  0  0  0  0  0  0  0  0
    4.7406   -5.8730    0.0000 C   0  0  0  0  0  0  0  0  0  0  0  0
    9.6942   -1.7570    0.0000 C   0  0  1  0  0  0  0  0  0  0  0  0
   10.5602    0.7430    0.0000 C   0  0  2  0  0  0  0  0  0  0  0  0
   10.5602   -2.2570    0.0000 C   0  0  0  0  0  0  0  0  0  0  0  0
    4.3339   -6.7866    0.0000 C   0  0  0  0  0  0  0  0  0  0  0  0
    3.8271   -5.4663    0.0000 C   0  0  0  0  0  0  0  0  0  0  0  0
    5.6542   -6.2798    0.0000 C   0  0  0  0  0  0  0  0  0  0  0  0
    7.9621   -3.7570    0.0000 C   0  0  1  0  0  0  0  0  0  0  0  0
    7.0961   -3.2570    0.0000 C   0  0  0  0  0  0  0  0  0  0  0  0
    9.6941    1.2430    0.0000 C   0  0  2  0  0  0  0  0  0  0  0  0
    6.2300   -3.7570    0.0000 C   0  0  0  0  0  0  0  0  0  0  0  0
    6.1255   -4.7516    0.0000 C   0  0  0  0  0  0  0  0  0  0  0  0
    9.6942   -0.7570    0.0000 C   0  0  0  0  0  0  0  0  0  0  0  0
   11.4262    1.2430    0.0000 C   0  0  0  0  0  0  0  0  0  0  0  0
    4.6474   -4.0934    0.0000 C   0  0  0  0  0  0  0  0  0  0  0  0
    8.8281   -3.2570    0.0000 C   0  0  0  0  0  0  0  0  0  0  0  0
    8.8281    3.7430    0.0000 C   0  0  1  0  0  0  0  0  0  0  0  0
   10.5602   -3.2570    0.0000 C   0  0  0  0  0  0  0  0  0  0  0  0
   11.4262   -1.7570    0.0000 C   0  0  0  0  0  0  0  0  0  0  0  0
    9.6941    2.2430    0.0000 C   0  0  0  0  0  0  0  0  0  0  0  0
    6.5233    5.0737    0.0000 C   0  0  1  0  0  0  0  0  0  0  0  0
    4.9217   -7.5956    0.0000 C   0  0  0  0  0  0  0  0  0  0  0  0
    3.7226   -4.4718    0.0000 C   0  0  0  0  0  0  0  0  0  0  0  0
    5.7587   -7.2743    0.0000 C   0  0  0  0  0  0  0  0  0  0  0  0
    3.3394   -6.8911    0.0000 C   0  0  0  0  0  0  0  0  0  0  0  0
    3.0181   -6.0541    0.0000 C   0  0  0  0  0  0  0  0  0  0  0  0
    6.4632   -5.6920    0.0000 C   0  0  0  0  0  0  0  0  0  0  0  0
    5.5309    4.9507    0.0000 C   0  0  0  0  0  0  0  0  0  0  0  0
   12.2922    0.7430    0.0000 C   0  0  0  0  0  0  0  0  0  0  0  0
    9.6718    4.2300    0.0000 C   0  0  0  0  0  0  0  0  0  0  0  0
    7.9845    4.2300    0.0000 C   0  0  0  0  0  0  0  0  0  0  0  0
    4.5150   -8.5091    0.0000 C   0  0  0  0  0  0  0  0  0  0  0  0
    2.8090   -4.0650    0.0000 C   0  0  0  0  0  0  0  0  0  0  0  0
    6.6723   -7.6810    0.0000 C   0  0  0  0  0  0  0  0  0  0  0  0
    2.9326   -7.8046    0.0000 C   0  0  0  0  0  0  0  0  0  0  0  0
    2.1045   -5.6473    0.0000 C   0  0  0  0  0  0  0  0  0  0  0  0
    7.3768   -6.0987    0.0000 C   0  0  0  0  0  0  0  0  0  0  0  0
    7.0091    6.2216    0.0000 C   0  0  0  0  0  0  0  0  0  0  0  0
    9.6718    5.2042    0.0000 C   0  0  0  0  0  0  0  0  0  0  0  0
    5.1411    4.0298    0.0000 C   0  0  0  0  0  0  0  0  0  0  0  0
    4.9282    5.7487    0.0000 C   0  0  0  0  0  0  0  0  0  0  0  0
    3.5204   -8.6137    0.0000 C   0  0  0  0  0  0  0  0  0  0  0  0
    2.0000   -4.6528    0.0000 C   0  0  0  0  0  0  0  0  0  0  0  0
    7.4813   -7.0932    0.0000 C   0  0  0  0  0  0  0  0  0  0  0  0
   13.1582    1.2430    0.0000 C   0  0  0  0  0  0  0  0  0  0  0  0
   12.2922   -0.2570    0.0000 C   0  0  0  0  0  0  0  0  0  0  0  0
    8.8281   -5.2570    0.0000 C   0  0  0  0  0  0  0  0  0  0  0  0
    7.0104    8.1266    0.0000 C   0  0  0  0  0  0  0  0  0  0  0  0
   10.5154    5.6912    0.0000 C   0  0  0  0  0  0  0  0  0  0  0  0
    8.8281    5.6912    0.0000 C   0  0  0  0  0  0  0  0  0  0  0  0
    7.9845    8.1266    0.0000 C   0  0  0  0  0  0  0  0  0  0  0  0
   14.0243    0.7430    0.0000 C   0  0  0  0  0  0  0  0  0  0  0  0
   13.1582   -0.7570    0.0000 C   0  0  0  0  0  0  0  0  0  0  0  0
   14.0243   -0.2570    0.0000 C   0  0  0  0  0  0  0  0  0  0  0  0
    9.6718    7.1524    0.0000 C   0  0  0  0  0  0  0  0  0  0  0  0
    8.8281   -6.2570    0.0000 C   0  0  0  0  0  0  0  0  0  0  0  0
    8.8281    8.6137    0.0000 C   0  0  0  0  0  0  0  0  0  0  0  0
   10.5154    6.6654    0.0000 C   0  0  0  0  0  0  0  0  0  0  0  0
    8.8281    6.6654    0.0000 C   0  0  0  0  0  0  0  0  0  0  0  0
    9.6942   -2.3770    0.0000 H   0  0  0  0  0  0  0  0  0  0  0  0
   10.0232    0.4330    0.0000 H   0  0  0  0  0  0  0  0  0  0  0  0
   11.0971   -2.5670    0.0000 H   0  0  0  0  0  0  0  0  0  0  0  0
    8.4990   -4.0670    0.0000 H   0  0  0  0  0  0  0  0  0  0  0  0
    9.1572    1.5530    0.0000 H   0  0  0  0  0  0  0  0  0  0  0  0
    7.4946   -2.7821    0.0000 H   0  0  0  0  0  0  0  0  0  0  0  0
    6.6975   -2.7821    0.0000 H   0  0  0  0  0  0  0  0  0  0  0  0
    6.5863   -5.1664    0.0000 H   0  0  0  0  0  0  0  0  0  0  0  0
   11.8247    1.7179    0.0000 H   0  0  0  0  0  0  0  0  0  0  0  0
   11.0277    1.7179    0.0000 H   0  0  0  0  0  0  0  0  0  0  0  0
   11.0971   -0.5670    0.0000 H   0  0  0  0  0  0  0  0  0  0  0  0
    8.2912   -1.9470    0.0000 H   0  0  0  0  0  0  0  0  0  0  0  0
    4.0308   -4.0286    0.0000 H   0  0  0  0  0  0  0  0  0  0  0  0
    8.2912    3.4330    0.0000 H   0  0  0  0  0  0  0  0  0  0  0  0
    9.9402   -3.2570    0.0000 H   0  0  0  0  0  0  0  0  0  0  0  0
   10.5602   -3.8770    0.0000 H   0  0  0  0  0  0  0  0  0  0  0  0
   11.1802   -3.2570    0.0000 H   0  0  0  0  0  0  0  0  0  0  0  0
   11.7362   -2.2940    0.0000 H   0  0  0  0  0  0  0  0  0  0  0  0
   11.9631   -1.4470    0.0000 H   0  0  0  0  0  0  0  0  0  0  0  0
   11.1162   -1.2201    0.0000 H   0  0  0  0  0  0  0  0  0  0  0  0
    6.2469    4.5186    0.0000 H   0  0  0  0  0  0  0  0  0  0  0  0
    5.5383   -7.5308    0.0000 H   0  0  0  0  0  0  0  0  0  0  0  0
    4.2242   -4.1073    0.0000 H   0  0  0  0  0  0  0  0  0  0  0  0
    5.2571   -7.6387    0.0000 H   0  0  0  0  0  0  0  0  0  0  0  0
    2.9750   -6.3895    0.0000 H   0  0  0  0  0  0  0  0  0  0  0  0
    3.0829   -6.6707    0.0000 H   0  0  0  0  0  0  0  0  0  0  0  0
    6.3984   -5.0754    0.0000 H   0  0  0  0  0  0  0  0  0  0  0  0
    5.7725    5.5217    0.0000 H   0  0  0  0  0  0  0  0  0  0  0  0
    8.2912    2.4330    0.0000 H   0  0  0  0  0  0  0  0  0  0  0  0
    9.8838    3.6474    0.0000 H   0  0  0  0  0  0  0  0  0  0  0  0
   10.2823    4.3377    0.0000 H   0  0  0  0  0  0  0  0  0  0  0  0
    7.4252   -5.0670    0.0000 H   0  0  0  0  0  0  0  0  0  0  0  0
    6.7004    3.6931    0.0000 H   0  0  0  0  0  0  0  0  0  0  0  0
    4.8794   -9.0107    0.0000 H   0  0  0  0  0  0  0  0  0  0  0  0
    2.7442   -3.4484    0.0000 H   0  0  0  0  0  0  0  0  0  0  0  0
    6.7371   -8.2976    0.0000 H   0  0  0  0  0  0  0  0  0  0  0  0
    2.3160   -7.8694    0.0000 H   0  0  0  0  0  0  0  0  0  0  0  0
    1.6029   -6.0118    0.0000 H   0  0  0  0  0  0  0  0  0  0  0  0
    7.8783   -5.7343    0.0000 H   0  0  0  0  0  0  0  0  0  0  0  0
    8.2912    1.0530    0.0000 H   0  0  0  0  0  0  0  0  0  0  0  0
    4.5702    4.2714    0.0000 H   0  0  0  0  0  0  0  0  0  0  0  0
    4.8995    3.4588    0.0000 H   0  0  0  0  0  0  0  0  0  0  0  0
    5.7121    3.7882    0.0000 H   0  0  0  0  0  0  0  0  0  0  0  0
    5.4229    6.1224    0.0000 H   0  0  0  0  0  0  0  0  0  0  0  0
    4.5545    6.2435    0.0000 H   0  0  0  0  0  0  0  0  0  0  0  0
    4.4334    5.3751    0.0000 H   0  0  0  0  0  0  0  0  0  0  0  0
    3.2682   -9.1801    0.0000 H   0  0  0  0  0  0  0  0  0  0  0  0
    1.4336   -4.4006    0.0000 H   0  0  0  0  0  0  0  0  0  0  0  0
    8.0477   -7.3454    0.0000 H   0  0  0  0  0  0  0  0  0  0  0  0
   13.1582    1.8630    0.0000 H   0  0  0  0  0  0  0  0  0  0  0  0
   11.7553   -0.5670    0.0000 H   0  0  0  0  0  0  0  0  0  0  0  0
    5.9060    7.3414    0.0000 H   0  0  0  0  0  0  0  0  0  0  0  0
    7.1180    8.7372    0.0000 H   0  0  0  0  0  0  0  0  0  0  0  0
    6.4277    8.3386    0.0000 H   0  0  0  0  0  0  0  0  0  0  0  0
   11.0523    5.3812    0.0000 H   0  0  0  0  0  0  0  0  0  0  0  0
    8.2912    5.3812    0.0000 H   0  0  0  0  0  0  0  0  0  0  0  0
    7.7724    7.5440    0.0000 H   0  0  0  0  0  0  0  0  0  0  0  0
    7.8240    8.7255    0.0000 H   0  0  0  0  0  0  0  0  0  0  0  0
   14.5612    1.0530    0.0000 H   0  0  0  0  0  0  0  0  0  0  0  0
   13.1582   -1.3770    0.0000 H   0  0  0  0  0  0  0  0  0  0  0  0
   14.5612   -0.5670    0.0000 H   0  0  0  0  0  0  0  0  0  0  0  0
    8.2081   -6.2570    0.0000 H   0  0  0  0  0  0  0  0  0  0  0  0
    8.8281   -6.8770    0.0000 H   0  0  0  0  0  0  0  0  0  0  0  0
    9.4481   -6.2570    0.0000 H   0  0  0  0  0  0  0  0  0  0  0  0
    9.2266    9.0886    0.0000 H   0  0  0  0  0  0  0  0  0  0  0  0
    8.4296    9.0886    0.0000 H   0  0  0  0  0  0  0  0  0  0  0  0
   11.0523    6.9754    0.0000 H   0  0  0  0  0  0  0  0  0  0  0  0
    8.2912    6.9754    0.0000 H   0  0  0  0  0  0  0  0  0  0  0  0
 26  1  1  1  0  0  0
  1115  1  0  0  0  0
  2 29  2  0  0  0  0
  3 32  2  0  0  0  0
  4 36  2  0  0  0  0
  5 47  2  0  0  0  0
  6 54  2  0  0  0  0
  7 71  1  0  0  0  0
  7 73  1  0  0  0  0
  8 63  2  0  0  0  0
  9 17  1  0  0  0  0
  9 28  1  0  0  0  0
  9 31  1  0  0  0  0
 19 10  1  6  0  0  0
 10 29  1  0  0  0  0
 10 86  1  0  0  0  0
 18 11  1  6  0  0  0
 11 32  1  0  0  0  0
 11 87  1  0  0  0  0
 12 27  1  0  0  0  0
 12 31  2  0  0  0  0
 33 13  1  6  0  0  0
 13 36  1  0  0  0  0
 13104  1  0  0  0  0
 24 14  1  1  0  0  0
 14 63  1  0  0  0  0
 14107  1  0  0  0  0
 15 37  1  0  0  0  0
 15 47  1  0  0  0  0
 15108  1  0  0  0  0
 16 54  1  0  0  0  0
 16 64  1  0  0  0  0
 16127  1  0  0  0  0
 17 21  1  0  0  0  0
 17 22  1  0  0  0  0
 17 23  1  0  0  0  0
 18 20  1  0  0  0  0
 18 29  1  0  0  0  0
 18 76  1  0  0  0  0
 19 26  1  0  0  0  0
 19 30  1  0  0  0  0
 19 77  1  0  0  0  0
 20 34  1  0  0  0  0
 20 35  1  0  0  0  0
 20 78  1  0  0  0  0
 21 38  2  0  0  0  0
 21 41  1  0  0  0  0
 22 39  2  0  0  0  0
 22 42  1  0  0  0  0
 23 40  2  0  0  0  0
 23 43  1  0  0  0  0
 24 25  1  0  0  0  0
 24 32  1  0  0  0  0
 24 79  1  0  0  0  0
 25 27  1  0  0  0  0
 25 81  1  0  0  0  0
 25 82  1  0  0  0  0
 26 36  1  0  0  0  0
 26 80  1  0  0  0  0
 27 28  2  0  0  0  0
 28 83  1  0  0  0  0
 30 45  1  0  0  0  0
 30 84  1  0  0  0  0
 30 85  1  0  0  0  0
 31 88  1  0  0  0  0
 33 46  1  0  0  0  0
 33 47  1  0  0  0  0
 33 89  1  0  0  0  0
 34 90  1  0  0  0  0
 34 91  1  0  0  0  0
 34 92  1  0  0  0  0
 35 93  1  0  0  0  0
 35 94  1  0  0  0  0
 35 95  1  0  0  0  0
 37 44  1  1  0  0  0
 37 54  1  0  0  0  0
 37 96  1  0  0  0  0
 38 48  1  0  0  0  0
 38 97  1  0  0  0  0
 39 49  1  0  0  0  0
 39 98  1  0  0  0  0
 40 50  1  0  0  0  0
 40 99  1  0  0  0  0
 41 51  2  0  0  0  0
 41100  1  0  0  0  0
 42 52  2  0  0  0  0
 42101  1  0  0  0  0
 43 53  2  0  0  0  0
 43102  1  0  0  0  0
 44 56  1  0  0  0  0
 44 57  1  0  0  0  0
 44103  1  0  0  0  0
 45 61  2  0  0  0  0
 45 62  1  0  0  0  0
 46 55  1  0  0  0  0
 46105  1  0  0  0  0
 46106  1  0  0  0  0
 48 58  2  0  0  0  0
 48109  1  0  0  0  0
 49 59  2  0  0  0  0
 49110  1  0  0  0  0
 50 60  2  0  0  0  0
 50111  1  0  0  0  0
 51 58  1  0  0  0  0
 51112  1  0  0  0  0
 52 59  1  0  0  0  0
 52113  1  0  0  0  0
 53 60  1  0  0  0  0
 53114  1  0  0  0  0
 55 65  2  0  0  0  0
 55 66  1  0  0  0  0
 56116  1  0  0  0  0
 56117  1  0  0  0  0
 56118  1  0  0  0  0
 57119  1  0  0  0  0
 57120  1  0  0  0  0
 57121  1  0  0  0  0
 58122  1  0  0  0  0
 59123  1  0  0  0  0
 60124  1  0  0  0  0
 61 68  1  0  0  0  0
 61125  1  0  0  0  0
 62 69  2  0  0  0  0
 62126  1  0  0  0  0
 63 72  1  0  0  0  0
 64 67  1  0  0  0  0
 64128  1  0  0  0  0
 64129  1  0  0  0  0
 65 74  1  0  0  0  0
 65130  1  0  0  0  0
 66 75  2  0  0  0  0
 66131  1  0  0  0  0
 67 73  1  0  0  0  0
 67132  1  0  0  0  0
 67133  1  0  0  0  0
 68 70  2  0  0  0  0
 68134  1  0  0  0  0
 69 70  1  0  0  0  0
 69135  1  0  0  0  0
 70136  1  0  0  0  0
 71 74  2  0  0  0  0
 71 75  1  0  0  0  0
 72137  1  0  0  0  0
 72138  1  0  0  0  0
 72139  1  0  0  0  0
 73140  1  0  0  0  0
 73141  1  0  0  0  0
 74142  1  0  0  0  0
 75143  1  0  0  0  0
M  END
> <PUBCHEM_COMPOUND_CID>
503820
> <PUBCHEM_COMPOUND_CANONICALIZED>
1
> <PUBCHEM_CACTVS_COMPLEXITY>
1790
> <PUBCHEM_CACTVS_HBOND_ACCEPTOR>
9
> <PUBCHEM_CACTVS_HBOND_DONOR>
7
> <PUBCHEM_CACTVS_ROTATABLE_BOND>
18
> <PUBCHEM_CACTVS_SUBSKEYS>
AAADcfB//AAAAAAAAAAAAAAAAAAAAWAAAAAwYMGDAAAAAAAB1AAAHgAQCAAADbzhngY/lpfMFgCoAzV3dAKCiC0xMqAJ2IH+fIiOfjrE+TuWeCju1hPY6CecyeCOoAAAAAAAAABAAAAAAAAAAAAAAAAAAA==
> <PUBCHEM_IUPAC_OPENEYE_NAME>
(2S)-2-[[(2S)-2-acetamido-3-(1-tritylimidazol-4-yl)propanoyl]amino]-N-[(1S,2R)-1-benzyl-2-hydroxy-3-[[(8S,11S)-8-isopropyl-7,10-dioxo-2-oxa-6,9-diazabicyclo[11.2.2]heptadeca-1(15),13,16-trien-11-yl]amino]-3-oxo-propyl]-3-methyl-butanamide
> <PUBCHEM_IUPAC_CAS_NAME>
(2S)-2-[[(2S)-2-acetamido-1-oxo-3-[1-(triphenylmethyl)-4-imidazolyl]propyl]amino]-N-[(2S,3R)-4-[[(8S,11S)-7,10-dioxo-8-propan-2-yl-2-oxa-6,9-diazabicyclo[11.2.2]heptadeca-1(15),13,16-trien-11-yl]amino]-3-hydroxy-4-oxo-1-phenylbutan-2-yl]-3-methylbutanamide
> <PUBCHEM_IUPAC_NAME_MARKUP>
(2<I>S</I>)-2-[[(2<I>S</I>)-2-acetamido-3-(1-tritylimidazol-4-yl)propanoyl]amino]-<I>N</I>-[(2<I>S</I>,3<I>R</I>)-4-[[(8<I>S</I>,11<I>S</I>)-7,10-dioxo-8-propan-2-yl-2-oxa-6,9-diazabicyclo[11.2.2]heptadeca-1(15),13,16-trien-11-yl]amino]-3-hydroxy-4-oxo-1-phenylbutan-2-yl]-3-methylbutanamide
> <PUBCHEM_IUPAC_NAME>
(2S)-2-[[(2S)-2-acetamido-3-(1-tritylimidazol-4-yl)propanoyl]amino]-N-[(2S,3R)-4-[[(8S,11S)-7,10-dioxo-8-propan-2-yl-2-oxa-6,9-diazabicyclo[11.2.2]heptadeca-1(15),13,16-trien-11-yl]amino]-3-hydroxy-4-oxo-1-phenylbutan-2-yl]-3-methylbutanamide
> <PUBCHEM_IUPAC_SYSTEMATIC_NAME>
(2S)-2-[[(2S)-2-acetamido-3-[1-(triphenylmethyl)imidazol-4-yl]propanoyl]amino]-N-[(2S,3R)-4-[[(8S,11S)-7,10-bis(oxidanylidene)-8-propan-2-yl-2-oxa-6,9-diazabicyclo[11.2.2]heptadeca-1(15),13,16-trien-11-yl]amino]-3-oxidanyl-4-oxidanylidene-1-phenyl-butan-2-yl]-3-methyl-butanamide
> <PUBCHEM_IUPAC_TRADITIONAL_NAME>
(2S)-2-[[(2S)-2-acetamido-3-(1-tritylimidazol-4-yl)propanoyl]amino]-N-[(1S,2R)-1-benzyl-2-hydroxy-3-[[(8S,11S)-8-isopropyl-7,10-diketo-2-oxa-6,9-diazabicyclo[11.2.2]heptadeca-1(15),13,16-trien-11-yl]amino]-3-keto-propyl]-3-methyl-butyramide
> <PUBCHEM_IUPAC_INCHI>
InChI=1S/C59H68N8O8/c1-38(2)51-56(72)60-31-18-32-75-47-29-27-42(28-30-47)34-49(54(70)65-51)64-58(74)53(69)48(33-41-19-10-6-11-20-41)63-57(73)52(39(3)4)66-55(71)50(62-40(5)68)35-46-36-67(37-61-46)59(43-21-12-7-13-22-43,44-23-14-8-15-24-44)45-25-16-9-17-26-45/h6-17,19-30,36-39,48-53,69H,18,31-35H2,1-5H3,(H,60,72)(H,62,68)(H,63,73)(H,64,74)(H,65,70)(H,66,71)/t48-,49-,50-,51-,52-,53+/m0/s1
> <PUBCHEM_IUPAC_INCHIKEY>
VJQDNUUFVYCSMC-SDPHCHFUSA-N
> <PUBCHEM_XLOGP3_AA>
7.4
> <PUBCHEM_EXACT_MASS>
1016.51601116
> <PUBCHEM_MOLECULAR_FORMULA>
C59H68N8O8
> <PUBCHEM_MOLECULAR_WEIGHT>
1017.2
> <PUBCHEM_OPENEYE_CAN_SMILES>
CC(C)C1C(=O)NCCCOC2=CC=C(CC(C(=O)N1)NC(=O)C(C(CC3=CC=CC=C3)NC(=O)C(C(C)C)NC(=O)C(CC4=CN(C=N4)C(C5=CC=CC=C5)(C6=CC=CC=C6)C7=CC=CC=C7)NC(=O)C)O)C=C2
> <PUBCHEM_OPENEYE_ISO_SMILES>
CC(C)[C@H]1C(=O)NCCCOC2=CC=C(C[C@@H](C(=O)N1)NC(=O)[C@@H]([C@H](CC3=CC=CC=C3)NC(=O)[C@H](C(C)C)NC(=O)[C@H](CC4=CN(C=N4)C(C5=CC=CC=C5)(C6=CC=CC=C6)C7=CC=CC=C7)NC(=O)C)O)C=C2
> <PUBCHEM_CACTVS_TPSA>
222
> <PUBCHEM_MONOISOTOPIC_WEIGHT>
1016.51601116
> <PUBCHEM_TOTAL_CHARGE>
0
> <PUBCHEM_HEAVY_ATOM_COUNT>
75
> <PUBCHEM_ATOM_DEF_STEREO_COUNT>
6
> <PUBCHEM_ATOM_UDEF_STEREO_COUNT>
0
> <PUBCHEM_BOND_DEF_STEREO_COUNT>
0
> <PUBCHEM_BOND_UDEF_STEREO_COUNT>
0
> <PUBCHEM_ISOTOPIC_ATOM_COUNT>
0
> <PUBCHEM_COMPONENT_COUNT>
1
> <PUBCHEM_CACTVS_TAUTO_COUNT>
-1
> <PUBCHEM_COORDINATE_TYPE>
1
5
255
> <PUBCHEM_BONDANNOTATIONS>
26  1  5
19  10  6
18  11  6
12  27  8
12  31  8
33  13  6
24  14  5
21  38  8
21  41  8
22  39  8
22  42  8
23  40  8
23  43  8
27  28  8
37  44  5
38  48  8
39  49  8
40  50  8
41  51  8
42  52  8
43  53  8
45  61  8
45  62  8
48  58  8
49  59  8
50  60  8
51  58  8
52  59  8
53  60  8
55  65  8
55  66  8
61  68  8
62  69  8
65  74  8
66  75  8
68  70  8
69  70  8
71  74  8
71  75  8
9  28  8
9  31  8
$$$$
