503996
  -OEChem-10302200282D
 42 45  0     1  0  0  0  0  0999 V2000
    5.1043   -1.2346    0.0000 O   0  0  0  0  0  0  0  0  0  0  0  0
    6.2633    0.0526    0.0000 N   0  0  0  0  0  0  0  0  0  0  0  0
    6.5723    1.0036    0.0000 N   0  0  0  0  0  0  0  0  0  0  0  0
    3.6180    0.1037    0.0000 N   0  0  0  0  0  0  0  0  0  0  0  0
    7.7534    2.7262    0.0000 N   0  0  0  0  0  0  0  0  0  0  0  0
    2.3090   -0.8474    0.0000 N   0  0  0  0  0  0  0  0  0  0  0  0
    7.0723   -0.5352    0.0000 C   0  0  3  0  0  0  0  0  0  0  0  0
    7.8813    0.0526    0.0000 C   0  0  0  0  0  0  0  0  0  0  0  0
    7.5723    1.0036    0.0000 C   0  0  0  0  0  0  0  0  0  0  0  0
    7.0723   -1.5352    0.0000 C   0  0  0  0  0  0  0  0  0  0  0  0
    5.3122   -0.2564    0.0000 C   0  0  0  0  0  0  0  0  0  0  0  0
    8.1601    1.8126    0.0000 C   0  0  0  0  0  0  0  0  0  0  0  0
    4.5691    0.4127    0.0000 C   0  0  0  0  0  0  0  0  0  0  0  0
    6.2063   -2.0352    0.0000 C   0  0  0  0  0  0  0  0  0  0  0  0
    7.9383   -2.0352    0.0000 C   0  0  0  0  0  0  0  0  0  0  0  0
    6.2063   -3.0352    0.0000 C   0  0  0  0  0  0  0  0  0  0  0  0
    7.9383   -3.0352    0.0000 C   0  0  0  0  0  0  0  0  0  0  0  0
    9.1546    1.7081    0.0000 C   0  0  0  0  0  0  0  0  0  0  0  0
    7.0723   -3.5352    0.0000 C   0  0  0  0  0  0  0  0  0  0  0  0
    2.8090    0.6915    0.0000 C   0  0  0  0  0  0  0  0  0  0  0  0
    3.3090   -0.8474    0.0000 C   0  0  0  0  0  0  0  0  0  0  0  0
    9.7424    2.5171    0.0000 C   0  0  0  0  0  0  0  0  0  0  0  0
    8.3411    3.5352    0.0000 C   0  0  0  0  0  0  0  0  0  0  0  0
    9.3357    3.4307    0.0000 C   0  0  0  0  0  0  0  0  0  0  0  0
    2.0000    0.1037    0.0000 C   0  0  0  0  0  0  0  0  0  0  0  0
    7.6247   -0.8167    0.0000 H   0  0  0  0  0  0  0  0  0  0  0  0
    8.1913   -0.4844    0.0000 H   0  0  0  0  0  0  0  0  0  0  0  0
    8.4477    0.3048    0.0000 H   0  0  0  0  0  0  0  0  0  0  0  0
    5.0577    0.7944    0.0000 H   0  0  0  0  0  0  0  0  0  0  0  0
    4.2780    0.9601    0.0000 H   0  0  0  0  0  0  0  0  0  0  0  0
    5.6694   -1.7252    0.0000 H   0  0  0  0  0  0  0  0  0  0  0  0
    8.4753   -1.7252    0.0000 H   0  0  0  0  0  0  0  0  0  0  0  0
    5.6694   -3.3452    0.0000 H   0  0  0  0  0  0  0  0  0  0  0  0
    8.4753   -3.3452    0.0000 H   0  0  0  0  0  0  0  0  0  0  0  0
    9.4068    1.1417    0.0000 H   0  0  0  0  0  0  0  0  0  0  0  0
    7.0723   -4.1552    0.0000 H   0  0  0  0  0  0  0  0  0  0  0  0
    2.8090    1.3115    0.0000 H   0  0  0  0  0  0  0  0  0  0  0  0
    3.6734   -1.3490    0.0000 H   0  0  0  0  0  0  0  0  0  0  0  0
   10.3590    2.4523    0.0000 H   0  0  0  0  0  0  0  0  0  0  0  0
    8.0890    4.1016    0.0000 H   0  0  0  0  0  0  0  0  0  0  0  0
    9.7001    3.9323    0.0000 H   0  0  0  0  0  0  0  0  0  0  0  0
    1.4103    0.2953    0.0000 H   0  0  0  0  0  0  0  0  0  0  0  0
  1 11  2  0  0  0  0
  2  3  1  0  0  0  0
  2  7  1  0  0  0  0
  2 11  1  0  0  0  0
  3  9  2  0  0  0  0
  4 13  1  0  0  0  0
  4 20  1  0  0  0  0
  4 21  1  0  0  0  0
  5 12  1  0  0  0  0
  5 23  2  0  0  0  0
  6 21  2  0  0  0  0
  6 25  1  0  0  0  0
  7  8  1  0  0  0  0
  7 10  1  0  0  0  0
  7 26  1  0  0  0  0
  8  9  1  0  0  0  0
  8 27  1  0  0  0  0
  8 28  1  0  0  0  0
  9 12  1  0  0  0  0
 10 14  2  0  0  0  0
 10 15  1  0  0  0  0
 11 13  1  0  0  0  0
 12 18  2  0  0  0  0
 13 29  1  0  0  0  0
 13 30  1  0  0  0  0
 14 16  1  0  0  0  0
 14 31  1  0  0  0  0
 15 17  2  0  0  0  0
 15 32  1  0  0  0  0
 16 19  2  0  0  0  0
 16 33  1  0  0  0  0
 17 19  1  0  0  0  0
 17 34  1  0  0  0  0
 18 22  1  0  0  0  0
 18 35  1  0  0  0  0
 19 36  1  0  0  0  0
 20 25  2  0  0  0  0
 20 37  1  0  0  0  0
 21 38  1  0  0  0  0
 22 24  2  0  0  0  0
 22 39  1  0  0  0  0
 23 24  1  0  0  0  0
 23 40  1  0  0  0  0
 24 41  1  0  0  0  0
 25 42  1  0  0  0  0
M  END
> <PUBCHEM_COMPOUND_CID>
503996
> <PUBCHEM_COMPOUND_CANONICALIZED>
1
> <PUBCHEM_CACTVS_COMPLEXITY>
502
> <PUBCHEM_CACTVS_HBOND_ACCEPTOR>
4
> <PUBCHEM_CACTVS_HBOND_DONOR>
0
> <PUBCHEM_CACTVS_ROTATABLE_BOND>
4
> <PUBCHEM_CACTVS_SUBSKEYS>
AAADceB7oAAAAAAAAAAAAAAAAAAAAWIAAAA8QAAAAAAAAAAB8AAAHgAIAAAADCjBngQ9kJcMEACoAzV3dACSgC0xEqAb2CC4dJiIaOLAmbGUIAhojgLIyCcQgMAOAAAAAAAAAAAAAAAAAAAAAAAAAAAAAA==
> <PUBCHEM_IUPAC_OPENEYE_NAME>
2-imidazol-1-yl-1-[3-phenyl-5-(2-pyridyl)-3,4-dihydropyrazol-2-yl]ethanone
> <PUBCHEM_IUPAC_CAS_NAME>
2-(1-imidazolyl)-1-[3-phenyl-5-(2-pyridinyl)-3,4-dihydropyrazol-2-yl]ethanone
> <PUBCHEM_IUPAC_NAME_MARKUP>
2-imidazol-1-yl-1-(3-phenyl-5-pyridin-2-yl-3,4-dihydropyrazol-2-yl)ethanone
> <PUBCHEM_IUPAC_NAME>
2-imidazol-1-yl-1-(3-phenyl-5-pyridin-2-yl-3,4-dihydropyrazol-2-yl)ethanone
> <PUBCHEM_IUPAC_SYSTEMATIC_NAME>
2-imidazol-1-yl-1-(3-phenyl-5-pyridin-2-yl-3,4-dihydropyrazol-2-yl)ethanone
> <PUBCHEM_IUPAC_TRADITIONAL_NAME>
2-imidazol-1-yl-1-[5-phenyl-3-(2-pyridyl)-2-pyrazolin-1-yl]ethanone
> <PUBCHEM_IUPAC_INCHI>
InChI=1S/C19H17N5O/c25-19(13-23-11-10-20-14-23)24-18(15-6-2-1-3-7-15)12-17(22-24)16-8-4-5-9-21-16/h1-11,14,18H,12-13H2
> <PUBCHEM_IUPAC_INCHIKEY>
WBQPAWGTCABRHW-UHFFFAOYSA-N
> <PUBCHEM_XLOGP3_AA>
1.9
> <PUBCHEM_EXACT_MASS>
331.14331018
> <PUBCHEM_MOLECULAR_FORMULA>
C19H17N5O
> <PUBCHEM_MOLECULAR_WEIGHT>
331.4
> <PUBCHEM_OPENEYE_CAN_SMILES>
C1C(N(N=C1C2=CC=CC=N2)C(=O)CN3C=CN=C3)C4=CC=CC=C4
> <PUBCHEM_OPENEYE_ISO_SMILES>
C1C(N(N=C1C2=CC=CC=N2)C(=O)CN3C=CN=C3)C4=CC=CC=C4
> <PUBCHEM_CACTVS_TPSA>
63.4
> <PUBCHEM_MONOISOTOPIC_WEIGHT>
331.14331018
> <PUBCHEM_TOTAL_CHARGE>
0
> <PUBCHEM_HEAVY_ATOM_COUNT>
25
> <PUBCHEM_ATOM_DEF_STEREO_COUNT>
0
> <PUBCHEM_ATOM_UDEF_STEREO_COUNT>
1
> <PUBCHEM_BOND_DEF_STEREO_COUNT>
0
> <PUBCHEM_BOND_UDEF_STEREO_COUNT>
0
> <PUBCHEM_ISOTOPIC_ATOM_COUNT>
0
> <PUBCHEM_COMPONENT_COUNT>
1
> <PUBCHEM_CACTVS_TAUTO_COUNT>
-1
> <PUBCHEM_COORDINATE_TYPE>
1
5
255
> <PUBCHEM_BONDANNOTATIONS>
10  14  8
10  15  8
12  18  8
14  16  8
15  17  8
16  19  8
17  19  8
18  22  8
20  25  8
22  24  8
23  24  8
4  20  8
4  21  8
5  12  8
5  23  8
6  21  8
6  25  8
7  10  3
$$$$
