503976
  -OEChem-10302200282D
 57 57  0     1  0  0  0  0  0999 V2000
    8.0622    3.7780    0.0000 O   0  0  0  0  0  0  0  0  0  0  0  0
    6.3301    4.7780    0.0000 O   0  0  0  0  0  0  0  0  0  0  0  0
    4.5981    3.7780    0.0000 O   0  0  0  0  0  0  0  0  0  0  0  0
    8.9282    2.2780    0.0000 O   0  0  0  0  0  0  0  0  0  0  0  0
    6.3301    1.7780    0.0000 N   0  0  3  0  0  0  0  0  0  0  0  0
    7.1962    2.2780    0.0000 C   0  0  1  0  0  0  0  0  0  0  0  0
    7.1962    3.2780    0.0000 C   0  0  2  0  0  0  0  0  0  0  0  0
    6.3301    3.7780    0.0000 C   0  0  1  0  0  0  0  0  0  0  0  0
    5.4641    2.2780    0.0000 C   0  0  0  0  0  0  0  0  0  0  0  0
    5.4641    3.2780    0.0000 C   0  0  2  0  0  0  0  0  0  0  0  0
    6.3301    0.7780    0.0000 C   0  0  0  0  0  0  0  0  0  0  0  0
    8.0622    1.7780    0.0000 C   0  0  0  0  0  0  0  0  0  0  0  0
    5.4641    0.2780    0.0000 C   0  0  0  0  0  0  0  0  0  0  0  0
    5.4641   -0.7220    0.0000 C   0  0  0  0  0  0  0  0  0  0  0  0
    4.5981   -1.2220    0.0000 C   0  0  0  0  0  0  0  0  0  0  0  0
    2.8660   -4.2220    0.0000 C   0  0  0  0  0  0  0  0  0  0  0  0
    4.5981   -2.2220    0.0000 C   0  0  0  0  0  0  0  0  0  0  0  0
    3.7320   -3.7220    0.0000 C   0  0  0  0  0  0  0  0  0  0  0  0
    3.7320   -2.7220    0.0000 C   0  0  0  0  0  0  0  0  0  0  0  0
    2.0000   -4.7220    0.0000 C   0  0  0  0  0  0  0  0  0  0  0  0
    3.3660   -5.0880    0.0000 C   0  0  0  0  0  0  0  0  0  0  0  0
    2.3660   -3.3560    0.0000 C   0  0  0  0  0  0  0  0  0  0  0  0
    7.1962    1.6580    0.0000 H   0  0  0  0  0  0  0  0  0  0  0  0
    7.7331    2.9680    0.0000 H   0  0  0  0  0  0  0  0  0  0  0  0
    6.8671    4.0880    0.0000 H   0  0  0  0  0  0  0  0  0  0  0  0
    4.8535    2.3857    0.0000 H   0  0  0  0  0  0  0  0  0  0  0  0
    5.2520    1.6954    0.0000 H   0  0  0  0  0  0  0  0  0  0  0  0
    5.4641    3.8980    0.0000 H   0  0  0  0  0  0  0  0  0  0  0  0
    6.5422    0.1954    0.0000 H   0  0  0  0  0  0  0  0  0  0  0  0
    6.9407    0.8857    0.0000 H   0  0  0  0  0  0  0  0  0  0  0  0
    7.6636    1.3031    0.0000 H   0  0  0  0  0  0  0  0  0  0  0  0
    8.4607    1.3031    0.0000 H   0  0  0  0  0  0  0  0  0  0  0  0
    5.2520    0.8606    0.0000 H   0  0  0  0  0  0  0  0  0  0  0  0
    4.8535    0.1704    0.0000 H   0  0  0  0  0  0  0  0  0  0  0  0
    5.6762   -1.3046    0.0000 H   0  0  0  0  0  0  0  0  0  0  0  0
    6.0747   -0.6143    0.0000 H   0  0  0  0  0  0  0  0  0  0  0  0
    4.3860   -0.6394    0.0000 H   0  0  0  0  0  0  0  0  0  0  0  0
    3.9875   -1.3296    0.0000 H   0  0  0  0  0  0  0  0  0  0  0  0
    4.8101   -2.8046    0.0000 H   0  0  0  0  0  0  0  0  0  0  0  0
    5.2087   -2.1143    0.0000 H   0  0  0  0  0  0  0  0  0  0  0  0
    3.9441   -4.3046    0.0000 H   0  0  0  0  0  0  0  0  0  0  0  0
    4.3426   -3.6143    0.0000 H   0  0  0  0  0  0  0  0  0  0  0  0
    3.5200   -2.1394    0.0000 H   0  0  0  0  0  0  0  0  0  0  0  0
    3.1215   -2.8296    0.0000 H   0  0  0  0  0  0  0  0  0  0  0  0
    8.0622    4.3980    0.0000 H   0  0  0  0  0  0  0  0  0  0  0  0
    5.7932    5.0880    0.0000 H   0  0  0  0  0  0  0  0  0  0  0  0
    4.0611    3.4680    0.0000 H   0  0  0  0  0  0  0  0  0  0  0  0
    1.6900   -4.1851    0.0000 H   0  0  0  0  0  0  0  0  0  0  0  0
    1.4631   -5.0320    0.0000 H   0  0  0  0  0  0  0  0  0  0  0  0
    2.3100   -5.2589    0.0000 H   0  0  0  0  0  0  0  0  0  0  0  0
    2.8291   -5.3980    0.0000 H   0  0  0  0  0  0  0  0  0  0  0  0
    3.6760   -5.6250    0.0000 H   0  0  0  0  0  0  0  0  0  0  0  0
    3.9030   -4.7780    0.0000 H   0  0  0  0  0  0  0  0  0  0  0  0
    2.9030   -3.0460    0.0000 H   0  0  0  0  0  0  0  0  0  0  0  0
    2.0560   -2.8190    0.0000 H   0  0  0  0  0  0  0  0  0  0  0  0
    1.8291   -3.6660    0.0000 H   0  0  0  0  0  0  0  0  0  0  0  0
    9.4651    1.9680    0.0000 H   0  0  0  0  0  0  0  0  0  0  0  0
  7  1  1  6  0  0  0
  1 45  1  0  0  0  0
  8  2  1  1  0  0  0
  2 46  1  0  0  0  0
 10  3  1  6  0  0  0
  3 47  1  0  0  0  0
  4 12  1  0  0  0  0
  4 57  1  0  0  0  0
  5  6  1  0  0  0  0
  5  9  1  0  0  0  0
  5 11  1  0  0  0  0
  6  7  1  0  0  0  0
  6 12  1  1  0  0  0
  6 23  1  0  0  0  0
  7  8  1  0  0  0  0
  7 24  1  0  0  0  0
  8 10  1  0  0  0  0
  8 25  1  0  0  0  0
  9 10  1  0  0  0  0
  9 26  1  0  0  0  0
  9 27  1  0  0  0  0
 10 28  1  0  0  0  0
 11 13  1  0  0  0  0
 11 29  1  0  0  0  0
 11 30  1  0  0  0  0
 12 31  1  0  0  0  0
 12 32  1  0  0  0  0
 13 14  1  0  0  0  0
 13 33  1  0  0  0  0
 13 34  1  0  0  0  0
 14 15  1  0  0  0  0
 14 35  1  0  0  0  0
 14 36  1  0  0  0  0
 15 17  1  0  0  0  0
 15 37  1  0  0  0  0
 15 38  1  0  0  0  0
 16 18  1  0  0  0  0
 16 20  1  0  0  0  0
 16 21  1  0  0  0  0
 16 22  1  0  0  0  0
 17 19  1  0  0  0  0
 17 39  1  0  0  0  0
 17 40  1  0  0  0  0
 18 19  1  0  0  0  0
 18 41  1  0  0  0  0
 18 42  1  0  0  0  0
 19 43  1  0  0  0  0
 19 44  1  0  0  0  0
 20 48  1  0  0  0  0
 20 49  1  0  0  0  0
 20 50  1  0  0  0  0
 21 51  1  0  0  0  0
 21 52  1  0  0  0  0
 21 53  1  0  0  0  0
 22 54  1  0  0  0  0
 22 55  1  0  0  0  0
 22 56  1  0  0  0  0
M  END
> <PUBCHEM_COMPOUND_CID>
503976
> <PUBCHEM_COMPOUND_CANONICALIZED>
1
> <PUBCHEM_CACTVS_COMPLEXITY>
306
> <PUBCHEM_CACTVS_HBOND_ACCEPTOR>
5
> <PUBCHEM_CACTVS_HBOND_DONOR>
4
> <PUBCHEM_CACTVS_ROTATABLE_BOND>
9
> <PUBCHEM_CACTVS_SUBSKEYS>
AAADcfB6OAAAAAAAAAAAAAAAAAAAAAAAAAAsAAAAAAAAAAAAAAAAHgAACAAADjzhgAYCAAMAAgAAAAAAAAAAAAAAAAAAAAAIAAADEAIAgAAEQAAHAACRAAHw4MQNAAAAAAAAAAAAAAAAAAAAAAAAAAAAAA==
> <PUBCHEM_IUPAC_OPENEYE_NAME>
(2R,3R,4R,5S)-1-(8,8-dimethylnonyl)-2-(hydroxymethyl)piperidine-3,4,5-triol
> <PUBCHEM_IUPAC_CAS_NAME>
(2R,3R,4R,5S)-1-(8,8-dimethylnonyl)-2-(hydroxymethyl)piperidine-3,4,5-triol
> <PUBCHEM_IUPAC_NAME_MARKUP>
(2<I>R</I>,3<I>R</I>,4<I>R</I>,5<I>S</I>)-1-(8,8-dimethylnonyl)-2-(hydroxymethyl)piperidine-3,4,5-triol
> <PUBCHEM_IUPAC_NAME>
(2R,3R,4R,5S)-1-(8,8-dimethylnonyl)-2-(hydroxymethyl)piperidine-3,4,5-triol
> <PUBCHEM_IUPAC_SYSTEMATIC_NAME>
(2R,3R,4R,5S)-1-(8,8-dimethylnonyl)-2-(hydroxymethyl)piperidine-3,4,5-triol
> <PUBCHEM_IUPAC_TRADITIONAL_NAME>
(2R,3R,4R,5S)-1-(8,8-dimethylnonyl)-2-methylol-piperidine-3,4,5-triol
> <PUBCHEM_IUPAC_INCHI>
InChI=1S/C17H35NO4/c1-17(2,3)9-7-5-4-6-8-10-18-11-14(20)16(22)15(21)13(18)12-19/h13-16,19-22H,4-12H2,1-3H3/t13-,14+,15-,16-/m1/s1
> <PUBCHEM_IUPAC_INCHIKEY>
QLQCQBQVNINKEE-QKPAOTATSA-N
> <PUBCHEM_XLOGP3_AA>
2.7
> <PUBCHEM_EXACT_MASS>
317.25660860
> <PUBCHEM_MOLECULAR_FORMULA>
C17H35NO4
> <PUBCHEM_MOLECULAR_WEIGHT>
317.5
> <PUBCHEM_OPENEYE_CAN_SMILES>
CC(C)(C)CCCCCCCN1CC(C(C(C1CO)O)O)O
> <PUBCHEM_OPENEYE_ISO_SMILES>
CC(C)(C)CCCCCCCN1C[C@@H]([C@H]([C@@H]([C@H]1CO)O)O)O
> <PUBCHEM_CACTVS_TPSA>
84.2
> <PUBCHEM_MONOISOTOPIC_WEIGHT>
317.25660860
> <PUBCHEM_TOTAL_CHARGE>
0
> <PUBCHEM_HEAVY_ATOM_COUNT>
22
> <PUBCHEM_ATOM_DEF_STEREO_COUNT>
4
> <PUBCHEM_ATOM_UDEF_STEREO_COUNT>
0
> <PUBCHEM_BOND_DEF_STEREO_COUNT>
0
> <PUBCHEM_BOND_UDEF_STEREO_COUNT>
0
> <PUBCHEM_ISOTOPIC_ATOM_COUNT>
0
> <PUBCHEM_COMPONENT_COUNT>
1
> <PUBCHEM_CACTVS_TAUTO_COUNT>
-1
> <PUBCHEM_COORDINATE_TYPE>
1
5
255
> <PUBCHEM_BONDANNOTATIONS>
7  1  6
8  2  5
10  3  6
6  12  5
$$$$
