503954
  -OEChem-10302200282D
102105  0     1  0  0  0  0  0999 V2000
    9.1559    1.1184    0.0000 S   0  0  0  0  0  0  0  0  0  0  0  0
    7.7469   -2.0462    0.0000 P   0  0  3  0  0  0  0  0  0  0  0  0
   13.4006   -4.7849    0.0000 O   0  0  0  0  0  0  0  0  0  0  0  0
    5.8858    0.4184    0.0000 O   0  0  0  0  0  0  0  0  0  0  0  0
   15.4829   -2.5416    0.0000 O   0  0  0  0  0  0  0  0  0  0  0  0
    7.1591   -1.2372    0.0000 O   0  0  0  0  0  0  0  0  0  0  0  0
   14.0816   -1.5235    0.0000 O   0  0  0  0  0  0  0  0  0  0  0  0
    8.3347   -2.8552    0.0000 O   0  0  0  0  0  0  0  0  0  0  0  0
    8.5559   -1.4584    0.0000 O   0  0  0  0  0  0  0  0  0  0  0  0
    6.8089    2.0062    0.0000 O   0  0  0  0  0  0  0  0  0  0  0  0
    6.9379   -2.6340    0.0000 O   0  0  0  0  0  0  0  0  0  0  0  0
    5.0768    5.0062    0.0000 O   0  0  0  0  0  0  0  0  0  0  0  0
   10.8785    1.2995    0.0000 O   0  0  0  0  0  0  0  0  0  0  0  0
   13.9006   -3.2461    0.0000 N   0  0  0  0  0  0  0  0  0  0  0  0
    5.0768    2.0062    0.0000 N   0  0  0  0  0  0  0  0  0  0  0  0
    3.9890   -1.3417    0.0000 N   0  0  0  0  0  0  0  0  0  0  0  0
    5.9428    3.5062    0.0000 N   0  0  0  0  0  0  0  0  0  0  0  0
    2.9945   -1.2372    0.0000 N   0  3  0  0  0  0  0  0  0  0  0  0
    2.0000   -1.1326    0.0000 N   0  5  0  0  0  0  0  0  0  0  0  0
   12.9006   -3.2461    0.0000 C   0  0  2  0  0  0  0  0  0  0  0  0
   14.2096   -4.1972    0.0000 C   0  0  0  0  0  0  0  0  0  0  0  0
   12.5916   -4.1972    0.0000 C   0  0  0  0  0  0  0  0  0  0  0  0
   12.3128   -2.4371    0.0000 C   0  0  0  0  0  0  0  0  0  0  0  0
    4.5768   -0.5327    0.0000 C   0  0  2  0  0  0  0  0  0  0  0  0
    5.5768   -0.5327    0.0000 C   0  0  1  0  0  0  0  0  0  0  0  0
    4.2678    0.4184    0.0000 C   0  0  0  0  0  0  0  0  0  0  0  0
    5.0768    1.0062    0.0000 C   0  0  1  0  0  0  0  0  0  0  0  0
   14.7974   -5.0062    0.0000 C   0  0  0  0  0  0  0  0  0  0  0  0
   15.1607   -3.8881    0.0000 C   0  0  0  0  0  0  0  0  0  0  0  0
   14.4884   -2.4371    0.0000 C   0  0  0  0  0  0  0  0  0  0  0  0
    6.1646   -1.3417    0.0000 C   0  0  0  0  0  0  0  0  0  0  0  0
   11.3183   -2.5416    0.0000 C   0  0  0  0  0  0  0  0  0  0  0  0
   16.0707   -1.7326    0.0000 C   0  0  0  0  0  0  0  0  0  0  0  0
   10.9115   -3.4552    0.0000 C   0  0  0  0  0  0  0  0  0  0  0  0
   10.7305   -1.7326    0.0000 C   0  0  0  0  0  0  0  0  0  0  0  0
    4.2108    2.5062    0.0000 C   0  0  0  0  0  0  0  0  0  0  0  0
    5.9428    2.5062    0.0000 C   0  0  0  0  0  0  0  0  0  0  0  0
    9.9170   -3.5597    0.0000 C   0  0  0  0  0  0  0  0  0  0  0  0
    9.7360   -1.8371    0.0000 C   0  0  0  0  0  0  0  0  0  0  0  0
    9.3292   -2.7507    0.0000 C   0  0  0  0  0  0  0  0  0  0  0  0
    4.2108    3.5062    0.0000 C   0  0  0  0  0  0  0  0  0  0  0  0
   16.6585   -0.9236    0.0000 C   0  0  0  0  0  0  0  0  0  0  0  0
   16.8797   -2.3204    0.0000 C   0  0  0  0  0  0  0  0  0  0  0  0
   15.2617   -1.1448    0.0000 C   0  0  0  0  0  0  0  0  0  0  0  0
    5.0768    4.0062    0.0000 C   0  0  0  0  0  0  0  0  0  0  0  0
    3.3448    4.0062    0.0000 C   0  0  0  0  0  0  0  0  0  0  0  0
    8.4514   -0.4639    0.0000 C   0  0  0  0  0  0  0  0  0  0  0  0
    9.2604    0.1239    0.0000 C   0  0  0  0  0  0  0  0  0  0  0  0
    9.8604    2.7007    0.0000 C   0  0  0  0  0  0  0  0  0  0  0  0
    9.9649    1.7062    0.0000 C   0  0  0  0  0  0  0  0  0  0  0  0
    9.7559    3.6953    0.0000 C   0  0  0  0  0  0  0  0  0  0  0  0
   10.8549    2.8053    0.0000 C   0  0  0  0  0  0  0  0  0  0  0  0
    8.8659    2.5962    0.0000 C   0  0  0  0  0  0  0  0  0  0  0  0
   13.1821   -2.6937    0.0000 H   0  0  0  0  0  0  0  0  0  0  0  0
   12.0252   -3.9450    0.0000 H   0  0  0  0  0  0  0  0  0  0  0  0
   12.2816   -4.7341    0.0000 H   0  0  0  0  0  0  0  0  0  0  0  0
   12.8700   -2.1653    0.0000 H   0  0  0  0  0  0  0  0  0  0  0  0
   12.1419   -1.8411    0.0000 H   0  0  0  0  0  0  0  0  0  0  0  0
    3.9645   -0.4357    0.0000 H   0  0  0  0  0  0  0  0  0  0  0  0
    6.1892   -0.4357    0.0000 H   0  0  0  0  0  0  0  0  0  0  0  0
    3.9578    0.9553    0.0000 H   0  0  0  0  0  0  0  0  0  0  0  0
    3.7014    0.1662    0.0000 H   0  0  0  0  0  0  0  0  0  0  0  0
    4.5244    1.2876    0.0000 H   0  0  0  0  0  0  0  0  0  0  0  0
   14.2958   -5.3706    0.0000 H   0  0  0  0  0  0  0  0  0  0  0  0
   15.1618   -5.5078    0.0000 H   0  0  0  0  0  0  0  0  0  0  0  0
   15.2990   -4.6417    0.0000 H   0  0  0  0  0  0  0  0  0  0  0  0
   15.3522   -4.4778    0.0000 H   0  0  0  0  0  0  0  0  0  0  0  0
   15.7503   -3.6966    0.0000 H   0  0  0  0  0  0  0  0  0  0  0  0
   14.9691   -3.2985    0.0000 H   0  0  0  0  0  0  0  0  0  0  0  0
    5.6074   -1.6135    0.0000 H   0  0  0  0  0  0  0  0  0  0  0  0
    6.3355   -1.9377    0.0000 H   0  0  0  0  0  0  0  0  0  0  0  0
   11.2760   -3.9567    0.0000 H   0  0  0  0  0  0  0  0  0  0  0  0
   10.9827   -1.1662    0.0000 H   0  0  0  0  0  0  0  0  0  0  0  0
    3.6739    2.1962    0.0000 H   0  0  0  0  0  0  0  0  0  0  0  0
    9.6648   -4.1261    0.0000 H   0  0  0  0  0  0  0  0  0  0  0  0
    9.3715   -1.3355    0.0000 H   0  0  0  0  0  0  0  0  0  0  0  0
   17.1600   -1.2880    0.0000 H   0  0  0  0  0  0  0  0  0  0  0  0
   17.0229   -0.4220    0.0000 H   0  0  0  0  0  0  0  0  0  0  0  0
   16.1569   -0.5591    0.0000 H   0  0  0  0  0  0  0  0  0  0  0  0
   16.5153   -2.8220    0.0000 H   0  0  0  0  0  0  0  0  0  0  0  0
   17.3813   -2.6848    0.0000 H   0  0  0  0  0  0  0  0  0  0  0  0
   17.2441   -1.8188    0.0000 H   0  0  0  0  0  0  0  0  0  0  0  0
   15.6261   -0.6432    0.0000 H   0  0  0  0  0  0  0  0  0  0  0  0
   14.7601   -0.7804    0.0000 H   0  0  0  0  0  0  0  0  0  0  0  0
   14.8972   -1.6464    0.0000 H   0  0  0  0  0  0  0  0  0  0  0  0
    6.4798    3.8162    0.0000 H   0  0  0  0  0  0  0  0  0  0  0  0
    3.6548    4.5431    0.0000 H   0  0  0  0  0  0  0  0  0  0  0  0
    2.8078    4.3162    0.0000 H   0  0  0  0  0  0  0  0  0  0  0  0
    3.0348    3.4692    0.0000 H   0  0  0  0  0  0  0  0  0  0  0  0
    8.1796    0.0934    0.0000 H   0  0  0  0  0  0  0  0  0  0  0  0
    7.8554   -0.6348    0.0000 H   0  0  0  0  0  0  0  0  0  0  0  0
    9.5322   -0.4333    0.0000 H   0  0  0  0  0  0  0  0  0  0  0  0
    9.8564    0.2948    0.0000 H   0  0  0  0  0  0  0  0  0  0  0  0
   10.3725    3.7601    0.0000 H   0  0  0  0  0  0  0  0  0  0  0  0
    9.6910    4.3119    0.0000 H   0  0  0  0  0  0  0  0  0  0  0  0
    9.1392    3.6305    0.0000 H   0  0  0  0  0  0  0  0  0  0  0  0
   10.9197    2.1887    0.0000 H   0  0  0  0  0  0  0  0  0  0  0  0
   11.4715    2.8701    0.0000 H   0  0  0  0  0  0  0  0  0  0  0  0
   10.7901    3.4219    0.0000 H   0  0  0  0  0  0  0  0  0  0  0  0
    8.8011    3.2128    0.0000 H   0  0  0  0  0  0  0  0  0  0  0  0
    8.2493    2.5314    0.0000 H   0  0  0  0  0  0  0  0  0  0  0  0
    8.9307    1.9796    0.0000 H   0  0  0  0  0  0  0  0  0  0  0  0
  1 48  1  0  0  0  0
  1 50  1  0  0  0  0
  2  6  1  0  0  0  0
  2  8  1  0  0  0  0
  2  9  1  0  0  0  0
  2 11  2  0  0  0  0
  3 21  1  0  0  0  0
  3 22  1  0  0  0  0
  4 25  1  0  0  0  0
  4 27  1  0  0  0  0
  5 30  1  0  0  0  0
  5 33  1  0  0  0  0
  6 31  1  0  0  0  0
  7 30  2  0  0  0  0
  8 40  1  0  0  0  0
  9 47  1  0  0  0  0
 10 37  2  0  0  0  0
 12 45  2  0  0  0  0
 13 50  2  0  0  0  0
 14 20  1  0  0  0  0
 14 21  1  0  0  0  0
 14 30  1  0  0  0  0
 27 15  1  6  0  0  0
 15 36  1  0  0  0  0
 15 37  1  0  0  0  0
 16 18  2  0  0  0  0
 24 16  1  1  0  0  0
 17 37  1  0  0  0  0
 17 45  1  0  0  0  0
 17 86  1  0  0  0  0
 18 19  2  0  0  0  0
 20 22  1  0  0  0  0
 20 23  1  6  0  0  0
 20 54  1  0  0  0  0
 21 28  1  0  0  0  0
 21 29  1  0  0  0  0
 22 55  1  0  0  0  0
 22 56  1  0  0  0  0
 23 32  1  0  0  0  0
 23 57  1  0  0  0  0
 23 58  1  0  0  0  0
 24 25  1  0  0  0  0
 24 26  1  0  0  0  0
 24 59  1  0  0  0  0
 25 31  1  6  0  0  0
 25 60  1  0  0  0  0
 26 27  1  0  0  0  0
 26 61  1  0  0  0  0
 26 62  1  0  0  0  0
 27 63  1  0  0  0  0
 28 64  1  0  0  0  0
 28 65  1  0  0  0  0
 28 66  1  0  0  0  0
 29 67  1  0  0  0  0
 29 68  1  0  0  0  0
 29 69  1  0  0  0  0
 31 70  1  0  0  0  0
 31 71  1  0  0  0  0
 32 34  2  0  0  0  0
 32 35  1  0  0  0  0
 33 42  1  0  0  0  0
 33 43  1  0  0  0  0
 33 44  1  0  0  0  0
 34 38  1  0  0  0  0
 34 72  1  0  0  0  0
 35 39  2  0  0  0  0
 35 73  1  0  0  0  0
 36 41  2  0  0  0  0
 36 74  1  0  0  0  0
 38 40  2  0  0  0  0
 38 75  1  0  0  0  0
 39 40  1  0  0  0  0
 39 76  1  0  0  0  0
 41 45  1  0  0  0  0
 41 46  1  0  0  0  0
 42 77  1  0  0  0  0
 42 78  1  0  0  0  0
 42 79  1  0  0  0  0
 43 80  1  0  0  0  0
 43 81  1  0  0  0  0
 43 82  1  0  0  0  0
 44 83  1  0  0  0  0
 44 84  1  0  0  0  0
 44 85  1  0  0  0  0
 46 87  1  0  0  0  0
 46 88  1  0  0  0  0
 46 89  1  0  0  0  0
 47 48  1  0  0  0  0
 47 90  1  0  0  0  0
 47 91  1  0  0  0  0
 48 92  1  0  0  0  0
 48 93  1  0  0  0  0
 49 50  1  0  0  0  0
 49 51  1  0  0  0  0
 49 52  1  0  0  0  0
 49 53  1  0  0  0  0
 51 94  1  0  0  0  0
 51 95  1  0  0  0  0
 51 96  1  0  0  0  0
 52 97  1  0  0  0  0
 52 98  1  0  0  0  0
 52 99  1  0  0  0  0
 53100  1  0  0  0  0
 53101  1  0  0  0  0
 53102  1  0  0  0  0
M  CHG  2  18   1  19  -1
M  END
> <PUBCHEM_COMPOUND_CID>
503954
> <PUBCHEM_COMPOUND_CANONICALIZED>
1
> <PUBCHEM_CACTVS_COMPLEXITY>
1500
> <PUBCHEM_CACTVS_HBOND_ACCEPTOR>
14
> <PUBCHEM_CACTVS_HBOND_DONOR>
1
> <PUBCHEM_CACTVS_ROTATABLE_BOND>
17
> <PUBCHEM_CACTVS_SUBSKEYS>
AAADcfB/vAJAAAAAAAAAAAAAAAAAAWJAAAAwQAAAAAAAAAABAAAAHgQYACAADnzl2AazDoPABRiKQiFWWICCAAAgIBAIiAEOCMiLJiKg0ROPMAAuxzO6iMew8KIOIAAAAAAAAABAAAAAAAAAAAAAAAAAAA==
> <PUBCHEM_IUPAC_OPENEYE_NAME>
tert-butyl (4S)-4-[[4-[[(2S,3S,5R)-3-azido-5-(5-methyl-2,4-dioxo-pyrimidin-1-yl)tetrahydrofuran-2-yl]methoxy-[2-(2,2-dimethylpropanoylsulfanyl)ethoxy]phosphoryl]oxyphenyl]methyl]-2,2-dimethyl-oxazolidine-3-carboxylate
> <PUBCHEM_IUPAC_CAS_NAME>
(4S)-4-[[4-[[(2S,3S,5R)-3-azido-5-(5-methyl-2,4-dioxo-1-pyrimidinyl)-2-oxolanyl]methoxy-[2-[(2,2-dimethyl-1-oxopropyl)thio]ethoxy]phosphoryl]oxyphenyl]methyl]-2,2-dimethyl-3-oxazolidinecarboxylic acid tert-butyl ester
> <PUBCHEM_IUPAC_NAME_MARKUP>
<I>tert</I>-butyl (4<I>S</I>)-4-[[4-[[(2<I>S</I>,3<I>S</I>,5<I>R</I>)-3-azido-5-(5-methyl-2,4-dioxopyrimidin-1-yl)oxolan-2-yl]methoxy-[2-(2,2-dimethylpropanoylsulfanyl)ethoxy]phosphoryl]oxyphenyl]methyl]-2,2-dimethyl-1,3-oxazolidine-3-carboxylate
> <PUBCHEM_IUPAC_NAME>
tert-butyl (4S)-4-[[4-[[(2S,3S,5R)-3-azido-5-(5-methyl-2,4-dioxopyrimidin-1-yl)oxolan-2-yl]methoxy-[2-(2,2-dimethylpropanoylsulfanyl)ethoxy]phosphoryl]oxyphenyl]methyl]-2,2-dimethyl-1,3-oxazolidine-3-carboxylate
> <PUBCHEM_IUPAC_SYSTEMATIC_NAME>
tert-butyl (4S)-4-[[4-[[(2S,3S,5R)-3-azido-5-[5-methyl-2,4-bis(oxidanylidene)pyrimidin-1-yl]oxolan-2-yl]methoxy-[2-(2,2-dimethylpropanoylsulfanyl)ethoxy]phosphoryl]oxyphenyl]methyl]-2,2-dimethyl-1,3-oxazolidine-3-carboxylate
> <PUBCHEM_IUPAC_TRADITIONAL_NAME>
(4S)-4-[4-[[(2S,3S,5R)-3-azido-5-(2,4-diketo-5-methyl-pyrimidin-1-yl)tetrahydrofuran-2-yl]methoxy-[2-(pivaloylthio)ethoxy]phosphoryl]oxybenzyl]-2,2-dimethyl-oxazolidine-3-carboxylic acid tert-butyl ester
> <PUBCHEM_IUPAC_INCHI>
InChI=1S/C34H49N6O11PS/c1-21-18-39(30(43)36-28(21)41)27-17-25(37-38-35)26(49-27)20-48-52(45,47-14-15-53-29(42)32(2,3)4)51-24-12-10-22(11-13-24)16-23-19-46-34(8,9)40(23)31(44)50-33(5,6)7/h10-13,18,23,25-27H,14-17,19-20H2,1-9H3,(H,36,41,43)/t23-,25-,26+,27+,52?/m0/s1
> <PUBCHEM_IUPAC_INCHIKEY>
FKAKKZJPUKFLLV-ATTAIJTDSA-N
> <PUBCHEM_XLOGP3_AA>
5.2
> <PUBCHEM_EXACT_MASS>
780.29176457
> <PUBCHEM_MOLECULAR_FORMULA>
C34H49N6O11PS
> <PUBCHEM_MOLECULAR_WEIGHT>
780.8
> <PUBCHEM_OPENEYE_CAN_SMILES>
CC1=CN(C(=O)NC1=O)C2CC(C(O2)COP(=O)(OCCSC(=O)C(C)(C)C)OC3=CC=C(C=C3)CC4COC(N4C(=O)OC(C)(C)C)(C)C)N=[N+]=[N-]
> <PUBCHEM_OPENEYE_ISO_SMILES>
CC1=CN(C(=O)NC1=O)[C@H]2C[C@@H]([C@H](O2)COP(=O)(OCCSC(=O)C(C)(C)C)OC3=CC=C(C=C3)C[C@H]4COC(N4C(=O)OC(C)(C)C)(C)C)N=[N+]=[N-]
> <PUBCHEM_CACTVS_TPSA>
199
> <PUBCHEM_MONOISOTOPIC_WEIGHT>
780.29176457
> <PUBCHEM_TOTAL_CHARGE>
0
> <PUBCHEM_HEAVY_ATOM_COUNT>
53
> <PUBCHEM_ATOM_DEF_STEREO_COUNT>
4
> <PUBCHEM_ATOM_UDEF_STEREO_COUNT>
1
> <PUBCHEM_BOND_DEF_STEREO_COUNT>
0
> <PUBCHEM_BOND_UDEF_STEREO_COUNT>
0
> <PUBCHEM_ISOTOPIC_ATOM_COUNT>
0
> <PUBCHEM_COMPONENT_COUNT>
1
> <PUBCHEM_CACTVS_TAUTO_COUNT>
-1
> <PUBCHEM_COORDINATE_TYPE>
1
5
255
> <PUBCHEM_BONDANNOTATIONS>
27  15  6
15  36  8
15  37  8
24  16  5
17  37  8
17  45  8
2  9  3
20  23  6
25  31  6
32  34  8
32  35  8
34  38  8
35  39  8
36  41  8
38  40  8
39  40  8
41  45  8
$$$$
