503961
  -OEChem-10302200282D
 85 86  0     1  0  0  0  0  0999 V2000
    9.1559    1.2042    0.0000 S   0  0  0  0  0  0  0  0  0  0  0  0
   10.9115   -3.3694    0.0000 S   0  0  0  0  0  0  0  0  0  0  0  0
    7.7469   -1.9604    0.0000 P   0  0  0  0  0  0  0  0  0  0  0  0
    5.8858    0.5042    0.0000 O   0  0  0  0  0  0  0  0  0  0  0  0
    7.1591   -1.1514    0.0000 O   0  0  0  0  0  0  0  0  0  0  0  0
    8.5559   -1.3726    0.0000 O   0  0  0  0  0  0  0  0  0  0  0  0
    8.3347   -2.7694    0.0000 O   0  0  0  0  0  0  0  0  0  0  0  0
    6.8089    2.0919    0.0000 O   0  0  0  0  0  0  0  0  0  0  0  0
    6.9379   -2.5482    0.0000 O   0  0  0  0  0  0  0  0  0  0  0  0
    5.0768    5.0919    0.0000 O   0  0  0  0  0  0  0  0  0  0  0  0
   10.8785    1.3853    0.0000 O   0  0  0  0  0  0  0  0  0  0  0  0
   11.0926   -5.0919    0.0000 O   0  0  0  0  0  0  0  0  0  0  0  0
    5.0768    2.0919    0.0000 N   0  0  0  0  0  0  0  0  0  0  0  0
    3.9890   -1.2559    0.0000 N   0  0  0  0  0  0  0  0  0  0  0  0
    5.9428    3.5919    0.0000 N   0  0  0  0  0  0  0  0  0  0  0  0
    2.9945   -1.1514    0.0000 N   0  3  0  0  0  0  0  0  0  0  0  0
    2.0000   -1.0469    0.0000 N   0  5  0  0  0  0  0  0  0  0  0  0
    4.5768   -0.4469    0.0000 C   0  0  2  0  0  0  0  0  0  0  0  0
    5.5768   -0.4469    0.0000 C   0  0  1  0  0  0  0  0  0  0  0  0
    4.2678    0.5042    0.0000 C   0  0  0  0  0  0  0  0  0  0  0  0
    5.0768    1.0919    0.0000 C   0  0  1  0  0  0  0  0  0  0  0  0
    6.1646   -1.2559    0.0000 C   0  0  0  0  0  0  0  0  0  0  0  0
    4.2108    2.5919    0.0000 C   0  0  0  0  0  0  0  0  0  0  0  0
    5.9428    2.5919    0.0000 C   0  0  0  0  0  0  0  0  0  0  0  0
    4.2108    3.5919    0.0000 C   0  0  0  0  0  0  0  0  0  0  0  0
    5.0768    4.0919    0.0000 C   0  0  0  0  0  0  0  0  0  0  0  0
    3.3448    4.0919    0.0000 C   0  0  0  0  0  0  0  0  0  0  0  0
    8.4514   -0.3781    0.0000 C   0  0  3  0  0  0  0  0  0  0  0  0
    9.3292   -2.6649    0.0000 C   0  0  3  0  0  0  0  0  0  0  0  0
    9.2604    0.2097    0.0000 C   0  0  0  0  0  0  0  0  0  0  0  0
    9.9170   -3.4739    0.0000 C   0  0  0  0  0  0  0  0  0  0  0  0
    9.8604    2.7865    0.0000 C   0  0  0  0  0  0  0  0  0  0  0  0
   12.4938   -4.0739    0.0000 C   0  0  0  0  0  0  0  0  0  0  0  0
    7.5379    0.0286    0.0000 C   0  0  0  0  0  0  0  0  0  0  0  0
    9.7360   -1.7514    0.0000 C   0  0  0  0  0  0  0  0  0  0  0  0
    9.9649    1.7920    0.0000 C   0  0  0  0  0  0  0  0  0  0  0  0
   11.4993   -4.1784    0.0000 C   0  0  0  0  0  0  0  0  0  0  0  0
    9.7559    3.7810    0.0000 C   0  0  0  0  0  0  0  0  0  0  0  0
   10.8549    2.8910    0.0000 C   0  0  0  0  0  0  0  0  0  0  0  0
    8.8659    2.6820    0.0000 C   0  0  0  0  0  0  0  0  0  0  0  0
   13.4884   -3.9693    0.0000 C   0  0  0  0  0  0  0  0  0  0  0  0
   12.5984   -5.0684    0.0000 C   0  0  0  0  0  0  0  0  0  0  0  0
   12.3893   -3.0793    0.0000 C   0  0  0  0  0  0  0  0  0  0  0  0
    3.9645   -0.3499    0.0000 H   0  0  0  0  0  0  0  0  0  0  0  0
    6.1892   -0.3499    0.0000 H   0  0  0  0  0  0  0  0  0  0  0  0
    3.9578    1.0411    0.0000 H   0  0  0  0  0  0  0  0  0  0  0  0
    3.7014    0.2520    0.0000 H   0  0  0  0  0  0  0  0  0  0  0  0
    4.5244    1.3734    0.0000 H   0  0  0  0  0  0  0  0  0  0  0  0
    5.6074   -1.5277    0.0000 H   0  0  0  0  0  0  0  0  0  0  0  0
    6.3355   -1.8519    0.0000 H   0  0  0  0  0  0  0  0  0  0  0  0
    3.6739    2.2819    0.0000 H   0  0  0  0  0  0  0  0  0  0  0  0
    6.4798    3.9019    0.0000 H   0  0  0  0  0  0  0  0  0  0  0  0
    9.0178   -0.6303    0.0000 H   0  0  0  0  0  0  0  0  0  0  0  0
    9.0770   -3.2313    0.0000 H   0  0  0  0  0  0  0  0  0  0  0  0
    3.6548    4.6289    0.0000 H   0  0  0  0  0  0  0  0  0  0  0  0
    2.8078    4.4019    0.0000 H   0  0  0  0  0  0  0  0  0  0  0  0
    3.0348    3.5550    0.0000 H   0  0  0  0  0  0  0  0  0  0  0  0
    9.5322   -0.3476    0.0000 H   0  0  0  0  0  0  0  0  0  0  0  0
    9.8564    0.3806    0.0000 H   0  0  0  0  0  0  0  0  0  0  0  0
    9.3598   -3.7457    0.0000 H   0  0  0  0  0  0  0  0  0  0  0  0
   10.0879   -4.0699    0.0000 H   0  0  0  0  0  0  0  0  0  0  0  0
    7.7900    0.5950    0.0000 H   0  0  0  0  0  0  0  0  0  0  0  0
    6.9715    0.2808    0.0000 H   0  0  0  0  0  0  0  0  0  0  0  0
    7.2857   -0.5378    0.0000 H   0  0  0  0  0  0  0  0  0  0  0  0
   10.3024   -2.0035    0.0000 H   0  0  0  0  0  0  0  0  0  0  0  0
    9.9881   -1.1850    0.0000 H   0  0  0  0  0  0  0  0  0  0  0  0
    9.1696   -1.4992    0.0000 H   0  0  0  0  0  0  0  0  0  0  0  0
   10.3725    3.8458    0.0000 H   0  0  0  0  0  0  0  0  0  0  0  0
    9.6910    4.3976    0.0000 H   0  0  0  0  0  0  0  0  0  0  0  0
    9.1392    3.7162    0.0000 H   0  0  0  0  0  0  0  0  0  0  0  0
   10.9197    2.2744    0.0000 H   0  0  0  0  0  0  0  0  0  0  0  0
   11.4715    2.9558    0.0000 H   0  0  0  0  0  0  0  0  0  0  0  0
   10.7901    3.5076    0.0000 H   0  0  0  0  0  0  0  0  0  0  0  0
    8.8011    3.2986    0.0000 H   0  0  0  0  0  0  0  0  0  0  0  0
    8.2493    2.6172    0.0000 H   0  0  0  0  0  0  0  0  0  0  0  0
    8.9307    2.0654    0.0000 H   0  0  0  0  0  0  0  0  0  0  0  0
   13.5532   -4.5859    0.0000 H   0  0  0  0  0  0  0  0  0  0  0  0
   14.1050   -3.9045    0.0000 H   0  0  0  0  0  0  0  0  0  0  0  0
   13.4236   -3.3527    0.0000 H   0  0  0  0  0  0  0  0  0  0  0  0
   11.9818   -5.1332    0.0000 H   0  0  0  0  0  0  0  0  0  0  0  0
   12.6632   -5.6850    0.0000 H   0  0  0  0  0  0  0  0  0  0  0  0
   13.2150   -5.0036    0.0000 H   0  0  0  0  0  0  0  0  0  0  0  0
   13.0059   -3.0145    0.0000 H   0  0  0  0  0  0  0  0  0  0  0  0
   12.3245   -2.4627    0.0000 H   0  0  0  0  0  0  0  0  0  0  0  0
   11.7727   -3.1442    0.0000 H   0  0  0  0  0  0  0  0  0  0  0  0
  1 30  1  0  0  0  0
  1 36  1  0  0  0  0
  2 31  1  0  0  0  0
  2 37  1  0  0  0  0
  3  5  1  0  0  0  0
  3  6  1  0  0  0  0
  3  7  1  0  0  0  0
  3  9  2  0  0  0  0
  4 19  1  0  0  0  0
  4 21  1  0  0  0  0
  5 22  1  0  0  0  0
  6 28  1  0  0  0  0
  7 29  1  0  0  0  0
  8 24  2  0  0  0  0
 10 26  2  0  0  0  0
 11 36  2  0  0  0  0
 12 37  2  0  0  0  0
 21 13  1  6  0  0  0
 13 23  1  0  0  0  0
 13 24  1  0  0  0  0
 14 16  2  0  0  0  0
 18 14  1  1  0  0  0
 15 24  1  0  0  0  0
 15 26  1  0  0  0  0
 15 52  1  0  0  0  0
 16 17  2  0  0  0  0
 18 19  1  0  0  0  0
 18 20  1  0  0  0  0
 18 44  1  0  0  0  0
 19 22  1  6  0  0  0
 19 45  1  0  0  0  0
 20 21  1  0  0  0  0
 20 46  1  0  0  0  0
 20 47  1  0  0  0  0
 21 48  1  0  0  0  0
 22 49  1  0  0  0  0
 22 50  1  0  0  0  0
 23 25  2  0  0  0  0
 23 51  1  0  0  0  0
 25 26  1  0  0  0  0
 25 27  1  0  0  0  0
 27 55  1  0  0  0  0
 27 56  1  0  0  0  0
 27 57  1  0  0  0  0
 28 30  1  0  0  0  0
 28 34  1  0  0  0  0
 28 53  1  0  0  0  0
 29 31  1  0  0  0  0
 29 35  1  0  0  0  0
 29 54  1  0  0  0  0
 30 58  1  0  0  0  0
 30 59  1  0  0  0  0
 31 60  1  0  0  0  0
 31 61  1  0  0  0  0
 32 36  1  0  0  0  0
 32 38  1  0  0  0  0
 32 39  1  0  0  0  0
 32 40  1  0  0  0  0
 33 37  1  0  0  0  0
 33 41  1  0  0  0  0
 33 42  1  0  0  0  0
 33 43  1  0  0  0  0
 34 62  1  0  0  0  0
 34 63  1  0  0  0  0
 34 64  1  0  0  0  0
 35 65  1  0  0  0  0
 35 66  1  0  0  0  0
 35 67  1  0  0  0  0
 38 68  1  0  0  0  0
 38 69  1  0  0  0  0
 38 70  1  0  0  0  0
 39 71  1  0  0  0  0
 39 72  1  0  0  0  0
 39 73  1  0  0  0  0
 40 74  1  0  0  0  0
 40 75  1  0  0  0  0
 40 76  1  0  0  0  0
 41 77  1  0  0  0  0
 41 78  1  0  0  0  0
 41 79  1  0  0  0  0
 42 80  1  0  0  0  0
 42 81  1  0  0  0  0
 42 82  1  0  0  0  0
 43 83  1  0  0  0  0
 43 84  1  0  0  0  0
 43 85  1  0  0  0  0
M  CHG  2  16   1  17  -1
M  END
> <PUBCHEM_COMPOUND_CID>
503961
> <PUBCHEM_COMPOUND_CANONICALIZED>
1
> <PUBCHEM_CACTVS_COMPLEXITY>
1150
> <PUBCHEM_CACTVS_HBOND_ACCEPTOR>
13
> <PUBCHEM_CACTVS_HBOND_DONOR>
1
> <PUBCHEM_CACTVS_ROTATABLE_BOND>
17
> <PUBCHEM_CACTVS_SUBSKEYS>
AAADcfB7vAJgAAAAAAAAAAAAAAAAASAAAAAgAAAAAAAAAAAAAAAAHgQYACAADjzlwAaDAAPABRiKQgFWUICAAAAAABAAAAEIAECDAAIgwQAPAAAOByIiAMCwMAIAAAAAAAAAAAAAAAAAAAAAAAAAAAAAAA==
> <PUBCHEM_IUPAC_OPENEYE_NAME>
S-[2-[[(2S,3S,5R)-3-azido-5-(5-methyl-2,4-dioxo-pyrimidin-1-yl)tetrahydrofuran-2-yl]methoxy-[2-(2,2-dimethylpropanoylsulfanyl)-1-methyl-ethoxy]phosphoryl]oxypropyl] 2,2-dimethylpropanethioate
> <PUBCHEM_IUPAC_CAS_NAME>
2,2-dimethylpropanethioic acid S-[2-[[(2S,3S,5R)-3-azido-5-(5-methyl-2,4-dioxo-1-pyrimidinyl)-2-oxolanyl]methoxy-[1-[(2,2-dimethyl-1-oxopropyl)thio]propan-2-yloxy]phosphoryl]oxypropyl] ester
> <PUBCHEM_IUPAC_NAME_MARKUP>
<I>S</I>-[2-[[(2<I>S</I>,3<I>S</I>,5<I>R</I>)-3-azido-5-(5-methyl-2,4-dioxopyrimidin-1-yl)oxolan-2-yl]methoxy-[1-(2,2-dimethylpropanoylsulfanyl)propan-2-yloxy]phosphoryl]oxypropyl] 2,2-dimethylpropanethioate
> <PUBCHEM_IUPAC_NAME>
S-[2-[[(2S,3S,5R)-3-azido-5-(5-methyl-2,4-dioxopyrimidin-1-yl)oxolan-2-yl]methoxy-[1-(2,2-dimethylpropanoylsulfanyl)propan-2-yloxy]phosphoryl]oxypropyl] 2,2-dimethylpropanethioate
> <PUBCHEM_IUPAC_SYSTEMATIC_NAME>
S-[2-[[(2S,3S,5R)-3-azido-5-[5-methyl-2,4-bis(oxidanylidene)pyrimidin-1-yl]oxolan-2-yl]methoxy-[1-(2,2-dimethylpropanoylsulfanyl)propan-2-yloxy]phosphoryl]oxypropyl] 2,2-dimethylpropanethioate
> <PUBCHEM_IUPAC_TRADITIONAL_NAME>
2,2-dimethylpropanethioic acid S-[2-[[(2S,3S,5R)-3-azido-5-(2,4-diketo-5-methyl-pyrimidin-1-yl)tetrahydrofuran-2-yl]methoxy-[1-methyl-2-(pivaloylthio)ethoxy]phosphoryl]oxypropyl] ester
> <PUBCHEM_IUPAC_INCHI>
InChI=1S/C26H42N5O9PS2/c1-15-11-31(24(35)28-21(15)32)20-10-18(29-30-27)19(38-20)12-37-41(36,39-16(2)13-42-22(33)25(4,5)6)40-17(3)14-43-23(34)26(7,8)9/h11,16-20H,10,12-14H2,1-9H3,(H,28,32,35)/t16?,17?,18-,19+,20+,41?/m0/s1
> <PUBCHEM_IUPAC_INCHIKEY>
AHCAPGWMXCHZIA-BZXWRPQXSA-N
> <PUBCHEM_XLOGP3>
4.6
> <PUBCHEM_EXACT_MASS>
663.21615728
> <PUBCHEM_MOLECULAR_FORMULA>
C26H42N5O9PS2
> <PUBCHEM_MOLECULAR_WEIGHT>
663.7
> <PUBCHEM_OPENEYE_CAN_SMILES>
CC1=CN(C(=O)NC1=O)C2CC(C(O2)COP(=O)(OC(C)CSC(=O)C(C)(C)C)OC(C)CSC(=O)C(C)(C)C)N=[N+]=[N-]
> <PUBCHEM_OPENEYE_ISO_SMILES>
CC1=CN(C(=O)NC1=O)[C@H]2C[C@@H]([C@H](O2)COP(=O)(OC(C)CSC(=O)C(C)(C)C)OC(C)CSC(=O)C(C)(C)C)N=[N+]=[N-]
> <PUBCHEM_CACTVS_TPSA>
203
> <PUBCHEM_MONOISOTOPIC_WEIGHT>
663.21615728
> <PUBCHEM_TOTAL_CHARGE>
0
> <PUBCHEM_HEAVY_ATOM_COUNT>
43
> <PUBCHEM_ATOM_DEF_STEREO_COUNT>
3
> <PUBCHEM_ATOM_UDEF_STEREO_COUNT>
2
> <PUBCHEM_BOND_DEF_STEREO_COUNT>
0
> <PUBCHEM_BOND_UDEF_STEREO_COUNT>
0
> <PUBCHEM_ISOTOPIC_ATOM_COUNT>
0
> <PUBCHEM_COMPONENT_COUNT>
1
> <PUBCHEM_CACTVS_TAUTO_COUNT>
-1
> <PUBCHEM_COORDINATE_TYPE>
1
5
255
> <PUBCHEM_BONDANNOTATIONS>
21  13  6
13  23  8
13  24  8
18  14  5
15  24  8
15  26  8
19  22  6
23  25  8
25  26  8
28  34  3
29  35  3
$$$$
