503959
  -OEChem-10302200282D
 80 82  0     1  0  0  0  0  0999 V2000
    9.1559    0.9460    0.0000 S   0  0  0  0  0  0  0  0  0  0  0  0
    7.7469   -2.2186    0.0000 P   0  0  3  0  0  0  0  0  0  0  0  0
    5.8858    0.2459    0.0000 O   0  0  0  0  0  0  0  0  0  0  0  0
    7.1591   -1.4096    0.0000 O   0  0  0  0  0  0  0  0  0  0  0  0
    6.8089    1.8337    0.0000 O   0  0  0  0  0  0  0  0  0  0  0  0
    8.5559   -1.6309    0.0000 O   0  0  0  0  0  0  0  0  0  0  0  0
    8.3347   -3.0277    0.0000 O   0  0  0  0  0  0  0  0  0  0  0  0
    6.9379   -2.8064    0.0000 O   0  0  0  0  0  0  0  0  0  0  0  0
    5.0768    4.8337    0.0000 O   0  0  0  0  0  0  0  0  0  0  0  0
   10.8785    1.1270    0.0000 O   0  0  0  0  0  0  0  0  0  0  0  0
   14.3018   -2.4005    0.0000 O   0  0  0  0  0  0  0  0  0  0  0  0
    5.0768    1.8337    0.0000 N   0  0  0  0  0  0  0  0  0  0  0  0
    3.9890   -1.5142    0.0000 N   0  0  0  0  0  0  0  0  0  0  0  0
    5.9428    3.3337    0.0000 N   0  0  0  0  0  0  0  0  0  0  0  0
    2.9945   -1.4096    0.0000 N   0  3  0  0  0  0  0  0  0  0  0  0
    2.0000   -1.3051    0.0000 N   0  5  0  0  0  0  0  0  0  0  0  0
   12.4938   -4.3321    0.0000 N   0  0  0  0  0  0  0  0  0  0  0  0
   14.4829   -4.1230    0.0000 N   0  0  0  0  0  0  0  0  0  0  0  0
    4.5768   -0.7051    0.0000 C   0  0  2  0  0  0  0  0  0  0  0  0
    5.5768   -0.7051    0.0000 C   0  0  1  0  0  0  0  0  0  0  0  0
    4.2678    0.2459    0.0000 C   0  0  0  0  0  0  0  0  0  0  0  0
    5.0768    0.8337    0.0000 C   0  0  1  0  0  0  0  0  0  0  0  0
    6.1646   -1.5142    0.0000 C   0  0  0  0  0  0  0  0  0  0  0  0
    4.2108    2.3337    0.0000 C   0  0  0  0  0  0  0  0  0  0  0  0
    5.9428    2.3337    0.0000 C   0  0  0  0  0  0  0  0  0  0  0  0
    4.2108    3.3337    0.0000 C   0  0  0  0  0  0  0  0  0  0  0  0
    5.0768    3.8337    0.0000 C   0  0  0  0  0  0  0  0  0  0  0  0
    3.3448    3.8337    0.0000 C   0  0  0  0  0  0  0  0  0  0  0  0
    8.4514   -0.6363    0.0000 C   0  0  0  0  0  0  0  0  0  0  0  0
    9.8604    2.5283    0.0000 C   0  0  0  0  0  0  0  0  0  0  0  0
    9.3292   -2.9231    0.0000 C   0  0  0  0  0  0  0  0  0  0  0  0
    9.2604   -0.0486    0.0000 C   0  0  0  0  0  0  0  0  0  0  0  0
    9.9649    1.5338    0.0000 C   0  0  0  0  0  0  0  0  0  0  0  0
    9.7559    3.5228    0.0000 C   0  0  0  0  0  0  0  0  0  0  0  0
   10.8549    2.6328    0.0000 C   0  0  0  0  0  0  0  0  0  0  0  0
    8.8659    2.4238    0.0000 C   0  0  0  0  0  0  0  0  0  0  0  0
    9.9170   -3.7322    0.0000 C   0  0  0  0  0  0  0  0  0  0  0  0
    9.7360   -2.0096    0.0000 C   0  0  0  0  0  0  0  0  0  0  0  0
   11.3183   -2.7141    0.0000 C   0  0  0  0  0  0  0  0  0  0  0  0
   12.3128   -2.6096    0.0000 C   0  0  0  0  0  0  0  0  0  0  0  0
   10.9115   -3.6276    0.0000 C   0  0  0  0  0  0  0  0  0  0  0  0
   10.7305   -1.9051    0.0000 C   0  0  0  0  0  0  0  0  0  0  0  0
   12.9006   -3.4186    0.0000 C   0  0  1  0  0  0  0  0  0  0  0  0
   13.8951   -3.3140    0.0000 C   0  0  0  0  0  0  0  0  0  0  0  0
    3.9645   -0.6082    0.0000 H   0  0  0  0  0  0  0  0  0  0  0  0
    6.1892   -0.6082    0.0000 H   0  0  0  0  0  0  0  0  0  0  0  0
    3.9578    0.7829    0.0000 H   0  0  0  0  0  0  0  0  0  0  0  0
    3.7014   -0.0063    0.0000 H   0  0  0  0  0  0  0  0  0  0  0  0
    4.5244    1.1152    0.0000 H   0  0  0  0  0  0  0  0  0  0  0  0
    5.6074   -1.7860    0.0000 H   0  0  0  0  0  0  0  0  0  0  0  0
    6.3355   -2.1101    0.0000 H   0  0  0  0  0  0  0  0  0  0  0  0
    3.6739    2.0237    0.0000 H   0  0  0  0  0  0  0  0  0  0  0  0
    6.4798    3.6437    0.0000 H   0  0  0  0  0  0  0  0  0  0  0  0
    3.6548    4.3706    0.0000 H   0  0  0  0  0  0  0  0  0  0  0  0
    2.8078    4.1437    0.0000 H   0  0  0  0  0  0  0  0  0  0  0  0
    3.0348    3.2968    0.0000 H   0  0  0  0  0  0  0  0  0  0  0  0
    8.1796   -0.0791    0.0000 H   0  0  0  0  0  0  0  0  0  0  0  0
    7.8554   -0.8072    0.0000 H   0  0  0  0  0  0  0  0  0  0  0  0
    9.5322   -0.6058    0.0000 H   0  0  0  0  0  0  0  0  0  0  0  0
    9.8564    0.1223    0.0000 H   0  0  0  0  0  0  0  0  0  0  0  0
   10.3725    3.5876    0.0000 H   0  0  0  0  0  0  0  0  0  0  0  0
    9.6910    4.1394    0.0000 H   0  0  0  0  0  0  0  0  0  0  0  0
    9.1392    3.4580    0.0000 H   0  0  0  0  0  0  0  0  0  0  0  0
   10.9197    2.0162    0.0000 H   0  0  0  0  0  0  0  0  0  0  0  0
   11.4715    2.6976    0.0000 H   0  0  0  0  0  0  0  0  0  0  0  0
   10.7901    3.2494    0.0000 H   0  0  0  0  0  0  0  0  0  0  0  0
    8.8011    3.0404    0.0000 H   0  0  0  0  0  0  0  0  0  0  0  0
    8.2493    2.3589    0.0000 H   0  0  0  0  0  0  0  0  0  0  0  0
    8.9307    1.8071    0.0000 H   0  0  0  0  0  0  0  0  0  0  0  0
    9.6648   -4.2986    0.0000 H   0  0  0  0  0  0  0  0  0  0  0  0
    9.3715   -1.5080    0.0000 H   0  0  0  0  0  0  0  0  0  0  0  0
   12.8700   -2.3378    0.0000 H   0  0  0  0  0  0  0  0  0  0  0  0
   12.1419   -2.0136    0.0000 H   0  0  0  0  0  0  0  0  0  0  0  0
   11.2760   -4.1292    0.0000 H   0  0  0  0  0  0  0  0  0  0  0  0
   10.9827   -1.3387    0.0000 H   0  0  0  0  0  0  0  0  0  0  0  0
   12.2840   -3.4834    0.0000 H   0  0  0  0  0  0  0  0  0  0  0  0
   12.8583   -4.8337    0.0000 H   0  0  0  0  0  0  0  0  0  0  0  0
   11.8772   -4.3969    0.0000 H   0  0  0  0  0  0  0  0  0  0  0  0
   15.0995   -4.0582    0.0000 H   0  0  0  0  0  0  0  0  0  0  0  0
   14.2307   -4.6894    0.0000 H   0  0  0  0  0  0  0  0  0  0  0  0
  1 32  1  0  0  0  0
  1 33  1  0  0  0  0
  2  4  1  0  0  0  0
  2  6  1  0  0  0  0
  2  7  1  0  0  0  0
  2  8  2  0  0  0  0
  3 20  1  0  0  0  0
  3 22  1  0  0  0  0
  4 23  1  0  0  0  0
  5 25  2  0  0  0  0
  6 29  1  0  0  0  0
  7 31  1  0  0  0  0
  9 27  2  0  0  0  0
 10 33  2  0  0  0  0
 11 44  2  0  0  0  0
 22 12  1  6  0  0  0
 12 24  1  0  0  0  0
 12 25  1  0  0  0  0
 13 15  2  0  0  0  0
 19 13  1  1  0  0  0
 14 25  1  0  0  0  0
 14 27  1  0  0  0  0
 14 53  1  0  0  0  0
 15 16  2  0  0  0  0
 43 17  1  1  0  0  0
 17 77  1  0  0  0  0
 17 78  1  0  0  0  0
 18 44  1  0  0  0  0
 18 79  1  0  0  0  0
 18 80  1  0  0  0  0
 19 20  1  0  0  0  0
 19 21  1  0  0  0  0
 19 45  1  0  0  0  0
 20 23  1  6  0  0  0
 20 46  1  0  0  0  0
 21 22  1  0  0  0  0
 21 47  1  0  0  0  0
 21 48  1  0  0  0  0
 22 49  1  0  0  0  0
 23 50  1  0  0  0  0
 23 51  1  0  0  0  0
 24 26  2  0  0  0  0
 24 52  1  0  0  0  0
 26 27  1  0  0  0  0
 26 28  1  0  0  0  0
 28 54  1  0  0  0  0
 28 55  1  0  0  0  0
 28 56  1  0  0  0  0
 29 32  1  0  0  0  0
 29 57  1  0  0  0  0
 29 58  1  0  0  0  0
 30 33  1  0  0  0  0
 30 34  1  0  0  0  0
 30 35  1  0  0  0  0
 30 36  1  0  0  0  0
 31 37  2  0  0  0  0
 31 38  1  0  0  0  0
 32 59  1  0  0  0  0
 32 60  1  0  0  0  0
 34 61  1  0  0  0  0
 34 62  1  0  0  0  0
 34 63  1  0  0  0  0
 35 64  1  0  0  0  0
 35 65  1  0  0  0  0
 35 66  1  0  0  0  0
 36 67  1  0  0  0  0
 36 68  1  0  0  0  0
 36 69  1  0  0  0  0
 37 41  1  0  0  0  0
 37 70  1  0  0  0  0
 38 42  2  0  0  0  0
 38 71  1  0  0  0  0
 39 40  1  0  0  0  0
 39 41  2  0  0  0  0
 39 42  1  0  0  0  0
 40 43  1  0  0  0  0
 40 72  1  0  0  0  0
 40 73  1  0  0  0  0
 41 74  1  0  0  0  0
 42 75  1  0  0  0  0
 43 44  1  0  0  0  0
 43 76  1  0  0  0  0
M  CHG  2  15   1  16  -1
M  END
> <PUBCHEM_COMPOUND_CID>
503959
> <PUBCHEM_COMPOUND_CANONICALIZED>
1
> <PUBCHEM_CACTVS_COMPLEXITY>
1210
> <PUBCHEM_CACTVS_HBOND_ACCEPTOR>
13
> <PUBCHEM_CACTVS_HBOND_DONOR>
3
> <PUBCHEM_CACTVS_ROTATABLE_BOND>
16
> <PUBCHEM_CACTVS_SUBSKEYS>
AAADcfB7vAJAAAAAAAAAAAAAAAAAASAAAAAwQAAAAAAAAAABAAAAHgQYACAADjzl2AazBoPABRiKQiFWUICCAAAgIBAIiIGOCMiLZjKg0ROPMAAu1zMqiMe4+KKOIAAAAAAAAABAAAAAAAAAAAAAAAAAAA==
> <PUBCHEM_IUPAC_OPENEYE_NAME>
S-[2-[[(2S,3S,5R)-3-azido-5-(5-methyl-2,4-dioxo-pyrimidin-1-yl)tetrahydrofuran-2-yl]methoxy-[4-[(2S)-2,3-diamino-3-oxo-propyl]phenoxy]phosphoryl]oxyethyl] 2,2-dimethylpropanethioate
> <PUBCHEM_IUPAC_CAS_NAME>
2,2-dimethylpropanethioic acid S-[2-[[(2S,3S,5R)-3-azido-5-(5-methyl-2,4-dioxo-1-pyrimidinyl)-2-oxolanyl]methoxy-[4-[(2S)-2,3-diamino-3-oxopropyl]phenoxy]phosphoryl]oxyethyl] ester
> <PUBCHEM_IUPAC_NAME_MARKUP>
<I>S</I>-[2-[[(2<I>S</I>,3<I>S</I>,5<I>R</I>)-3-azido-5-(5-methyl-2,4-dioxopyrimidin-1-yl)oxolan-2-yl]methoxy-[4-[(2<I>S</I>)-2,3-diamino-3-oxopropyl]phenoxy]phosphoryl]oxyethyl] 2,2-dimethylpropanethioate
> <PUBCHEM_IUPAC_NAME>
S-[2-[[(2S,3S,5R)-3-azido-5-(5-methyl-2,4-dioxopyrimidin-1-yl)oxolan-2-yl]methoxy-[4-[(2S)-2,3-diamino-3-oxopropyl]phenoxy]phosphoryl]oxyethyl] 2,2-dimethylpropanethioate
> <PUBCHEM_IUPAC_SYSTEMATIC_NAME>
S-[2-[[(2S,3S,5R)-3-azido-5-[5-methyl-2,4-bis(oxidanylidene)pyrimidin-1-yl]oxolan-2-yl]methoxy-[4-[(2S)-2,3-bis(azanyl)-3-oxidanylidene-propyl]phenoxy]phosphoryl]oxyethyl] 2,2-dimethylpropanethioate
> <PUBCHEM_IUPAC_TRADITIONAL_NAME>
2,2-dimethylpropanethioic acid S-[2-[[(2S,3S,5R)-3-azido-5-(2,4-diketo-5-methyl-pyrimidin-1-yl)tetrahydrofuran-2-yl]methoxy-[4-[(2S)-2,3-diamino-3-keto-propyl]phenoxy]phosphoryl]oxyethyl] ester
> <PUBCHEM_IUPAC_INCHI>
InChI=1S/C26H36N7O9PS/c1-15-13-33(25(37)30-23(15)35)21-12-19(31-32-29)20(41-21)14-40-43(38,39-9-10-44-24(36)26(2,3)4)42-17-7-5-16(6-8-17)11-18(27)22(28)34/h5-8,13,18-21H,9-12,14,27H2,1-4H3,(H2,28,34)(H,30,35,37)/t18-,19-,20+,21+,43?/m0/s1
> <PUBCHEM_IUPAC_INCHIKEY>
IKZTZZUXEFZBAZ-UYMFWQTJSA-N
> <PUBCHEM_XLOGP3>
2
> <PUBCHEM_EXACT_MASS>
653.20328392
> <PUBCHEM_MOLECULAR_FORMULA>
C26H36N7O9PS
> <PUBCHEM_MOLECULAR_WEIGHT>
653.6
> <PUBCHEM_OPENEYE_CAN_SMILES>
CC1=CN(C(=O)NC1=O)C2CC(C(O2)COP(=O)(OCCSC(=O)C(C)(C)C)OC3=CC=C(C=C3)CC(C(=O)N)N)N=[N+]=[N-]
> <PUBCHEM_OPENEYE_ISO_SMILES>
CC1=CN(C(=O)NC1=O)[C@H]2C[C@@H]([C@H](O2)COP(=O)(OCCSC(=O)C(C)(C)C)OC3=CC=C(C=C3)C[C@@H](C(=O)N)N)N=[N+]=[N-]
> <PUBCHEM_CACTVS_TPSA>
229
> <PUBCHEM_MONOISOTOPIC_WEIGHT>
653.20328392
> <PUBCHEM_TOTAL_CHARGE>
0
> <PUBCHEM_HEAVY_ATOM_COUNT>
44
> <PUBCHEM_ATOM_DEF_STEREO_COUNT>
4
> <PUBCHEM_ATOM_UDEF_STEREO_COUNT>
1
> <PUBCHEM_BOND_DEF_STEREO_COUNT>
0
> <PUBCHEM_BOND_UDEF_STEREO_COUNT>
0
> <PUBCHEM_ISOTOPIC_ATOM_COUNT>
0
> <PUBCHEM_COMPONENT_COUNT>
1
> <PUBCHEM_CACTVS_TAUTO_COUNT>
-1
> <PUBCHEM_COORDINATE_TYPE>
1
5
255
> <PUBCHEM_BONDANNOTATIONS>
22  12  6
12  24  8
12  25  8
19  13  5
14  25  8
14  27  8
43  17  5
2  6  3
20  23  6
24  26  8
26  27  8
31  37  8
31  38  8
37  41  8
38  42  8
39  41  8
39  42  8
$$$$
