503978
  -OEChem-10302200282D
 47 49  0     1  0  0  0  0  0999 V2000
    3.4653   -2.3214    0.0000 O   0  0  0  0  0  0  0  0  0  0  0  0
    6.9273   -2.2005    0.0000 O   0  0  0  0  0  0  0  0  0  0  0  0
    5.2312   -3.2604    0.0000 O   0  0  0  0  0  0  0  0  0  0  0  0
    2.5474   -0.8525    0.0000 O   0  0  0  0  0  0  0  0  0  0  0  0
    5.1265   -0.2622    0.0000 N   0  0  3  0  0  0  0  0  0  0  0  0
    6.3126    1.6029    0.0000 C   0  0  3  0  0  0  0  0  0  0  0  0
    7.7115    1.6117    0.0000 C   0  0  0  0  0  0  0  0  0  0  0  0
    6.5714    2.5688    0.0000 C   0  0  3  0  0  0  0  0  0  0  0  0
    5.8348    3.5514    0.0000 C   0  0  0  0  0  0  0  0  0  0  0  0
    5.0916    0.7372    0.0000 C   0  0  3  0  0  0  0  0  0  0  0  0
    4.5382    2.2577    0.0000 C   0  0  0  0  0  0  0  0  0  0  0  0
    4.2625    1.2964    0.0000 C   0  0  0  0  0  0  0  0  0  0  0  0
    8.5776    2.1117    0.0000 C   0  0  0  0  0  0  0  0  0  0  0  0
    8.2115    0.7457    0.0000 C   0  0  0  0  0  0  0  0  0  0  0  0
    4.2784   -0.7921    0.0000 C   0  0  1  0  0  0  0  0  0  0  0  0
    6.0094   -0.7316    0.0000 C   0  0  0  0  0  0  0  0  0  0  0  0
    4.3133   -1.7915    0.0000 C   0  0  2  0  0  0  0  0  0  0  0  0
    6.0443   -1.7310    0.0000 C   0  0  1  0  0  0  0  0  0  0  0  0
    5.1963   -2.2610    0.0000 C   0  0  1  0  0  0  0  0  0  0  0  0
    3.3955   -0.3226    0.0000 C   0  0  0  0  0  0  0  0  0  0  0  0
    6.5026    1.0127    0.0000 H   0  0  0  0  0  0  0  0  0  0  0  0
    7.0217    2.9950    0.0000 H   0  0  0  0  0  0  0  0  0  0  0  0
    6.1526    4.0838    0.0000 H   0  0  0  0  0  0  0  0  0  0  0  0
    5.2217    3.6434    0.0000 H   0  0  0  0  0  0  0  0  0  0  0  0
    4.5493    0.4366    0.0000 H   0  0  0  0  0  0  0  0  0  0  0  0
    4.5331    2.8776    0.0000 H   0  0  0  0  0  0  0  0  0  0  0  0
    3.9239    2.3415    0.0000 H   0  0  0  0  0  0  0  0  0  0  0  0
    3.6877    1.5287    0.0000 H   0  0  0  0  0  0  0  0  0  0  0  0
    3.9715    0.7490    0.0000 H   0  0  0  0  0  0  0  0  0  0  0  0
    8.8876    1.5748    0.0000 H   0  0  0  0  0  0  0  0  0  0  0  0
    9.1145    2.4217    0.0000 H   0  0  0  0  0  0  0  0  0  0  0  0
    8.2676    2.6486    0.0000 H   0  0  0  0  0  0  0  0  0  0  0  0
    7.6746    0.4357    0.0000 H   0  0  0  0  0  0  0  0  0  0  0  0
    8.5215    0.2087    0.0000 H   0  0  0  0  0  0  0  0  0  0  0  0
    8.7485    1.0557    0.0000 H   0  0  0  0  0  0  0  0  0  0  0  0
    4.2568   -0.1725    0.0000 H   0  0  0  0  0  0  0  0  0  0  0  0
    6.6234   -0.8179    0.0000 H   0  0  0  0  0  0  0  0  0  0  0  0
    6.2010   -0.1420    0.0000 H   0  0  0  0  0  0  0  0  0  0  0  0
    3.7659   -1.5004    0.0000 H   0  0  0  0  0  0  0  0  0  0  0  0
    6.5701   -1.4025    0.0000 H   0  0  0  0  0  0  0  0  0  0  0  0
    5.7437   -2.5520    0.0000 H   0  0  0  0  0  0  0  0  0  0  0  0
    3.7772    0.1659    0.0000 H   0  0  0  0  0  0  0  0  0  0  0  0
    2.9806    0.1381    0.0000 H   0  0  0  0  0  0  0  0  0  0  0  0
    3.4869   -2.9410    0.0000 H   0  0  0  0  0  0  0  0  0  0  0  0
    7.4531   -1.8720    0.0000 H   0  0  0  0  0  0  0  0  0  0  0  0
    5.7786   -3.5514    0.0000 H   0  0  0  0  0  0  0  0  0  0  0  0
    2.0000   -0.5615    0.0000 H   0  0  0  0  0  0  0  0  0  0  0  0
 17  1  1  6  0  0  0
  1 44  1  0  0  0  0
 18  2  1  6  0  0  0
  2 45  1  0  0  0  0
 19  3  1  1  0  0  0
  3 46  1  0  0  0  0
  4 20  1  0  0  0  0
  4 47  1  0  0  0  0
  5 10  1  0  0  0  0
  5 15  1  0  0  0  0
  5 16  1  0  0  0  0
  6  7  1  0  0  0  0
  6  9  1  0  0  0  0
  6 10  1  0  0  0  0
  6 21  1  0  0  0  0
  7  8  1  0  0  0  0
  7 13  1  0  0  0  0
  7 14  1  0  0  0  0
  8  9  1  0  0  0  0
  8 11  1  0  0  0  0
  8 22  1  0  0  0  0
  9 23  1  0  0  0  0
  9 24  1  0  0  0  0
 10 12  1  0  0  0  0
 10 25  1  0  0  0  0
 11 12  1  0  0  0  0
 11 26  1  0  0  0  0
 11 27  1  0  0  0  0
 12 28  1  0  0  0  0
 12 29  1  0  0  0  0
 13 30  1  0  0  0  0
 13 31  1  0  0  0  0
 13 32  1  0  0  0  0
 14 33  1  0  0  0  0
 14 34  1  0  0  0  0
 14 35  1  0  0  0  0
 15 17  1  0  0  0  0
 15 20  1  1  0  0  0
 15 36  1  0  0  0  0
 16 18  1  0  0  0  0
 16 37  1  0  0  0  0
 16 38  1  0  0  0  0
 17 19  1  0  0  0  0
 17 39  1  0  0  0  0
 18 19  1  0  0  0  0
 18 40  1  0  0  0  0
 19 41  1  0  0  0  0
 20 42  1  0  0  0  0
 20 43  1  0  0  0  0
M  END
> <PUBCHEM_COMPOUND_CID>
503978
> <PUBCHEM_COMPOUND_CANONICALIZED>
1
> <PUBCHEM_CACTVS_COMPLEXITY>
375
> <PUBCHEM_CACTVS_HBOND_ACCEPTOR>
5
> <PUBCHEM_CACTVS_HBOND_DONOR>
4
> <PUBCHEM_CACTVS_ROTATABLE_BOND>
2
> <PUBCHEM_CACTVS_SUBSKEYS>
AAADceByOAAAAAAAAAAAAAAAAABgAAAAAAA8YIAAAAAAAAAAAAAAHgAACAAADzzhgAYCAAMAAgAAAAAAAAAAAAAAAAAAAAAIAAADEAIAgAAEQAAHAACRAAHw4MQPgAAAAAAAAAAQAACAACQAAAAAAAAAAA==
> <PUBCHEM_IUPAC_OPENEYE_NAME>
(2R,3R,4R,5S)-1-(6,6-dimethylnorpinan-2-yl)-2-(hydroxymethyl)piperidine-3,4,5-triol
> <PUBCHEM_IUPAC_CAS_NAME>
(2R,3R,4R,5S)-1-(6,6-dimethyl-2-bicyclo[3.1.1]heptanyl)-2-(hydroxymethyl)piperidine-3,4,5-triol
> <PUBCHEM_IUPAC_NAME_MARKUP>
(2<I>R</I>,3<I>R</I>,4<I>R</I>,5<I>S</I>)-1-(6,6-dimethyl-2-bicyclo[3.1.1]heptanyl)-2-(hydroxymethyl)piperidine-3,4,5-triol
> <PUBCHEM_IUPAC_NAME>
(2R,3R,4R,5S)-1-(6,6-dimethyl-2-bicyclo[3.1.1]heptanyl)-2-(hydroxymethyl)piperidine-3,4,5-triol
> <PUBCHEM_IUPAC_SYSTEMATIC_NAME>
(2R,3R,4R,5S)-1-(6,6-dimethyl-2-bicyclo[3.1.1]heptanyl)-2-(hydroxymethyl)piperidine-3,4,5-triol
> <PUBCHEM_IUPAC_TRADITIONAL_NAME>
(2R,3R,4R,5S)-1-(6,6-dimethylnorpinan-2-yl)-2-methylol-piperidine-3,4,5-triol
> <PUBCHEM_IUPAC_INCHI>
InChI=1S/C15H27NO4/c1-15(2)8-3-4-10(9(15)5-8)16-6-12(18)14(20)13(19)11(16)7-17/h8-14,17-20H,3-7H2,1-2H3/t8?,9?,10?,11-,12+,13-,14-/m1/s1
> <PUBCHEM_IUPAC_INCHIKEY>
JTBYQCFOBZAWPG-LSJIOULJSA-N
> <PUBCHEM_XLOGP3_AA>
0.5
> <PUBCHEM_EXACT_MASS>
285.19400834
> <PUBCHEM_MOLECULAR_FORMULA>
C15H27NO4
> <PUBCHEM_MOLECULAR_WEIGHT>
285.38
> <PUBCHEM_OPENEYE_CAN_SMILES>
CC1(C2CCC(C1C2)N3CC(C(C(C3CO)O)O)O)C
> <PUBCHEM_OPENEYE_ISO_SMILES>
CC1(C2CCC(C1C2)N3C[C@@H]([C@H]([C@@H]([C@H]3CO)O)O)O)C
> <PUBCHEM_CACTVS_TPSA>
84.2
> <PUBCHEM_MONOISOTOPIC_WEIGHT>
285.19400834
> <PUBCHEM_TOTAL_CHARGE>
0
> <PUBCHEM_HEAVY_ATOM_COUNT>
20
> <PUBCHEM_ATOM_DEF_STEREO_COUNT>
4
> <PUBCHEM_ATOM_UDEF_STEREO_COUNT>
3
> <PUBCHEM_BOND_DEF_STEREO_COUNT>
0
> <PUBCHEM_BOND_UDEF_STEREO_COUNT>
0
> <PUBCHEM_ISOTOPIC_ATOM_COUNT>
0
> <PUBCHEM_COMPONENT_COUNT>
1
> <PUBCHEM_CACTVS_TAUTO_COUNT>
-1
> <PUBCHEM_COORDINATE_TYPE>
1
5
255
> <PUBCHEM_BONDANNOTATIONS>
17  1  6
15  20  5
18  2  6
19  3  5
10  5  3
6  9  3
8  11  3
$$$$
