503981
  -OEChem-10302200282D
 76 77  0     1  0  0  0  0  0999 V2000
   11.1972    6.2500    0.0000 O   0  0  0  0  0  0  0  0  0  0  0  0
    3.4030   -6.2500    0.0000 O   0  0  0  0  0  0  0  0  0  0  0  0
    9.4651    7.2500    0.0000 O   0  0  0  0  0  0  0  0  0  0  0  0
    5.1350   -7.2500    0.0000 O   0  0  0  0  0  0  0  0  0  0  0  0
    7.7331    6.2500    0.0000 O   0  0  0  0  0  0  0  0  0  0  0  0
    6.8671   -6.2500    0.0000 O   0  0  0  0  0  0  0  0  0  0  0  0
   12.0632    4.7500    0.0000 O   0  0  0  0  0  0  0  0  0  0  0  0
    2.5369   -4.7500    0.0000 O   0  0  0  0  0  0  0  0  0  0  0  0
    9.4651    4.2500    0.0000 N   0  0  3  0  0  0  0  0  0  0  0  0
    5.1350   -4.2500    0.0000 N   0  0  3  0  0  0  0  0  0  0  0  0
   10.3312    4.7500    0.0000 C   0  0  1  0  0  0  0  0  0  0  0  0
    4.2690   -4.7500    0.0000 C   0  0  1  0  0  0  0  0  0  0  0  0
   10.3312    5.7500    0.0000 C   0  0  2  0  0  0  0  0  0  0  0  0
    4.2690   -5.7500    0.0000 C   0  0  2  0  0  0  0  0  0  0  0  0
    9.4651    6.2500    0.0000 C   0  0  1  0  0  0  0  0  0  0  0  0
    5.1350   -6.2500    0.0000 C   0  0  1  0  0  0  0  0  0  0  0  0
    8.5991    4.7500    0.0000 C   0  0  0  0  0  0  0  0  0  0  0  0
    6.0010   -4.7500    0.0000 C   0  0  0  0  0  0  0  0  0  0  0  0
    8.5991    5.7500    0.0000 C   0  0  2  0  0  0  0  0  0  0  0  0
    6.0010   -5.7500    0.0000 C   0  0  2  0  0  0  0  0  0  0  0  0
    9.4651    3.2500    0.0000 C   0  0  0  0  0  0  0  0  0  0  0  0
    5.1350   -3.2500    0.0000 C   0  0  0  0  0  0  0  0  0  0  0  0
   11.1972    4.2500    0.0000 C   0  0  0  0  0  0  0  0  0  0  0  0
    3.4030   -4.2500    0.0000 C   0  0  0  0  0  0  0  0  0  0  0  0
    8.5991    2.7500    0.0000 C   0  0  0  0  0  0  0  0  0  0  0  0
    6.0010   -2.7500    0.0000 C   0  0  0  0  0  0  0  0  0  0  0  0
    8.5991    1.7500    0.0000 C   0  0  0  0  0  0  0  0  0  0  0  0
    6.0010   -1.7500    0.0000 C   0  0  0  0  0  0  0  0  0  0  0  0
    7.7331    1.2500    0.0000 C   0  0  0  0  0  0  0  0  0  0  0  0
    6.8671   -1.2500    0.0000 C   0  0  0  0  0  0  0  0  0  0  0  0
    7.7331    0.2500    0.0000 C   0  0  0  0  0  0  0  0  0  0  0  0
    6.8671   -0.2500    0.0000 C   0  0  0  0  0  0  0  0  0  0  0  0
   10.3312    4.1300    0.0000 H   0  0  0  0  0  0  0  0  0  0  0  0
    4.2690   -4.1300    0.0000 H   0  0  0  0  0  0  0  0  0  0  0  0
   10.8681    5.4400    0.0000 H   0  0  0  0  0  0  0  0  0  0  0  0
    4.2690   -6.3700    0.0000 H   0  0  0  0  0  0  0  0  0  0  0  0
   10.0021    6.5600    0.0000 H   0  0  0  0  0  0  0  0  0  0  0  0
    5.6720   -6.5600    0.0000 H   0  0  0  0  0  0  0  0  0  0  0  0
    7.9885    4.8577    0.0000 H   0  0  0  0  0  0  0  0  0  0  0  0
    8.3871    4.1674    0.0000 H   0  0  0  0  0  0  0  0  0  0  0  0
    6.6116   -4.8577    0.0000 H   0  0  0  0  0  0  0  0  0  0  0  0
    6.2131   -4.1674    0.0000 H   0  0  0  0  0  0  0  0  0  0  0  0
    8.5991    6.3700    0.0000 H   0  0  0  0  0  0  0  0  0  0  0  0
    6.5380   -5.4400    0.0000 H   0  0  0  0  0  0  0  0  0  0  0  0
    9.6772    2.6674    0.0000 H   0  0  0  0  0  0  0  0  0  0  0  0
   10.0757    3.3577    0.0000 H   0  0  0  0  0  0  0  0  0  0  0  0
    4.9230   -2.6674    0.0000 H   0  0  0  0  0  0  0  0  0  0  0  0
    4.5244   -3.3577    0.0000 H   0  0  0  0  0  0  0  0  0  0  0  0
   10.7987    3.7750    0.0000 H   0  0  0  0  0  0  0  0  0  0  0  0
   11.5957    3.7750    0.0000 H   0  0  0  0  0  0  0  0  0  0  0  0
    3.8015   -3.7750    0.0000 H   0  0  0  0  0  0  0  0  0  0  0  0
    3.0044   -3.7750    0.0000 H   0  0  0  0  0  0  0  0  0  0  0  0
    8.3871    3.3326    0.0000 H   0  0  0  0  0  0  0  0  0  0  0  0
    7.9885    2.6423    0.0000 H   0  0  0  0  0  0  0  0  0  0  0  0
    6.2131   -3.3326    0.0000 H   0  0  0  0  0  0  0  0  0  0  0  0
    6.6116   -2.6423    0.0000 H   0  0  0  0  0  0  0  0  0  0  0  0
    8.8112    1.1674    0.0000 H   0  0  0  0  0  0  0  0  0  0  0  0
    9.2097    1.8577    0.0000 H   0  0  0  0  0  0  0  0  0  0  0  0
    5.7890   -1.1674    0.0000 H   0  0  0  0  0  0  0  0  0  0  0  0
    5.3905   -1.8577    0.0000 H   0  0  0  0  0  0  0  0  0  0  0  0
    7.5210    1.8326    0.0000 H   0  0  0  0  0  0  0  0  0  0  0  0
    7.1225    1.1423    0.0000 H   0  0  0  0  0  0  0  0  0  0  0  0
    7.0791   -1.8326    0.0000 H   0  0  0  0  0  0  0  0  0  0  0  0
    7.4776   -1.1423    0.0000 H   0  0  0  0  0  0  0  0  0  0  0  0
    7.9451   -0.3326    0.0000 H   0  0  0  0  0  0  0  0  0  0  0  0
    8.3437    0.3577    0.0000 H   0  0  0  0  0  0  0  0  0  0  0  0
    6.6550    0.3326    0.0000 H   0  0  0  0  0  0  0  0  0  0  0  0
    6.2565   -0.3577    0.0000 H   0  0  0  0  0  0  0  0  0  0  0  0
   11.1972    6.8700    0.0000 H   0  0  0  0  0  0  0  0  0  0  0  0
    3.4030   -6.8700    0.0000 H   0  0  0  0  0  0  0  0  0  0  0  0
    8.9282    7.5600    0.0000 H   0  0  0  0  0  0  0  0  0  0  0  0
    5.6720   -7.5600    0.0000 H   0  0  0  0  0  0  0  0  0  0  0  0
    7.1962    5.9400    0.0000 H   0  0  0  0  0  0  0  0  0  0  0  0
    7.4040   -5.9400    0.0000 H   0  0  0  0  0  0  0  0  0  0  0  0
   12.6002    4.4400    0.0000 H   0  0  0  0  0  0  0  0  0  0  0  0
    2.0000   -4.4400    0.0000 H   0  0  0  0  0  0  0  0  0  0  0  0
 13  1  1  6  0  0  0
  1 69  1  0  0  0  0
 14  2  1  6  0  0  0
  2 70  1  0  0  0  0
 15  3  1  1  0  0  0
  3 71  1  0  0  0  0
 16  4  1  1  0  0  0
  4 72  1  0  0  0  0
 19  5  1  6  0  0  0
  5 73  1  0  0  0  0
 20  6  1  6  0  0  0
  6 74  1  0  0  0  0
  7 23  1  0  0  0  0
  7 75  1  0  0  0  0
  8 24  1  0  0  0  0
  8 76  1  0  0  0  0
  9 11  1  0  0  0  0
  9 17  1  0  0  0  0
  9 21  1  0  0  0  0
 10 12  1  0  0  0  0
 10 18  1  0  0  0  0
 10 22  1  0  0  0  0
 11 13  1  0  0  0  0
 11 23  1  1  0  0  0
 11 33  1  0  0  0  0
 12 14  1  0  0  0  0
 12 24  1  1  0  0  0
 12 34  1  0  0  0  0
 13 15  1  0  0  0  0
 13 35  1  0  0  0  0
 14 16  1  0  0  0  0
 14 36  1  0  0  0  0
 15 19  1  0  0  0  0
 15 37  1  0  0  0  0
 16 20  1  0  0  0  0
 16 38  1  0  0  0  0
 17 19  1  0  0  0  0
 17 39  1  0  0  0  0
 17 40  1  0  0  0  0
 18 20  1  0  0  0  0
 18 41  1  0  0  0  0
 18 42  1  0  0  0  0
 19 43  1  0  0  0  0
 20 44  1  0  0  0  0
 21 25  1  0  0  0  0
 21 45  1  0  0  0  0
 21 46  1  0  0  0  0
 22 26  1  0  0  0  0
 22 47  1  0  0  0  0
 22 48  1  0  0  0  0
 23 49  1  0  0  0  0
 23 50  1  0  0  0  0
 24 51  1  0  0  0  0
 24 52  1  0  0  0  0
 25 27  1  0  0  0  0
 25 53  1  0  0  0  0
 25 54  1  0  0  0  0
 26 28  1  0  0  0  0
 26 55  1  0  0  0  0
 26 56  1  0  0  0  0
 27 29  1  0  0  0  0
 27 57  1  0  0  0  0
 27 58  1  0  0  0  0
 28 30  1  0  0  0  0
 28 59  1  0  0  0  0
 28 60  1  0  0  0  0
 29 31  1  0  0  0  0
 29 61  1  0  0  0  0
 29 62  1  0  0  0  0
 30 32  1  0  0  0  0
 30 63  1  0  0  0  0
 30 64  1  0  0  0  0
 31 32  1  0  0  0  0
 31 65  1  0  0  0  0
 31 66  1  0  0  0  0
 32 67  1  0  0  0  0
 32 68  1  0  0  0  0
M  END
> <PUBCHEM_COMPOUND_CID>
503981
> <PUBCHEM_COMPOUND_CANONICALIZED>
1
> <PUBCHEM_CACTVS_COMPLEXITY>
472
> <PUBCHEM_CACTVS_HBOND_ACCEPTOR>
10
> <PUBCHEM_CACTVS_HBOND_DONOR>
8
> <PUBCHEM_CACTVS_ROTATABLE_BOND>
13
> <PUBCHEM_CACTVS_SUBSKEYS>
AAADcfB7PAAAAAAAAAAAAAAAAAAAAAAAAAAsWAAAAAAAAAAAAAAAHgAACAAACDzhgAYAAAMAAgAAAAAAAAAAAAAAAAAAAAAIAAADEAIAgAAEQAAHAACRAAHw4IQAAAAAAAAAAAAAAAAAAAAAAAAAAAAAAA==
> <PUBCHEM_IUPAC_OPENEYE_NAME>
(2R,3R,4R,5S)-2-(hydroxymethyl)-1-[10-[(2R,3R,4R,5S)-3,4,5-trihydroxy-2-(hydroxymethyl)-1-piperidyl]decyl]piperidine-3,4,5-triol
> <PUBCHEM_IUPAC_CAS_NAME>
(2R,3R,4R,5S)-2-(hydroxymethyl)-1-[10-[(2R,3R,4R,5S)-3,4,5-trihydroxy-2-(hydroxymethyl)-1-piperidinyl]decyl]piperidine-3,4,5-triol
> <PUBCHEM_IUPAC_NAME_MARKUP>
(2<I>R</I>,3<I>R</I>,4<I>R</I>,5<I>S</I>)-2-(hydroxymethyl)-1-[10-[(2<I>R</I>,3<I>R</I>,4<I>R</I>,5<I>S</I>)-3,4,5-trihydroxy-2-(hydroxymethyl)piperidin-1-yl]decyl]piperidine-3,4,5-triol
> <PUBCHEM_IUPAC_NAME>
(2R,3R,4R,5S)-2-(hydroxymethyl)-1-[10-[(2R,3R,4R,5S)-3,4,5-trihydroxy-2-(hydroxymethyl)piperidin-1-yl]decyl]piperidine-3,4,5-triol
> <PUBCHEM_IUPAC_SYSTEMATIC_NAME>
(2R,3R,4R,5S)-2-(hydroxymethyl)-1-[10-[(2R,3R,4R,5S)-2-(hydroxymethyl)-3,4,5-tris(oxidanyl)piperidin-1-yl]decyl]piperidine-3,4,5-triol
> <PUBCHEM_IUPAC_TRADITIONAL_NAME>
(2R,3R,4R,5S)-2-methylol-1-[10-[(2R,3R,4R,5S)-3,4,5-trihydroxy-2-methylol-piperidino]decyl]piperidine-3,4,5-triol
> <PUBCHEM_IUPAC_INCHI>
InChI=1S/C22H44N2O8/c25-13-15-19(29)21(31)17(27)11-23(15)9-7-5-3-1-2-4-6-8-10-24-12-18(28)22(32)20(30)16(24)14-26/h15-22,25-32H,1-14H2/t15-,16-,17+,18+,19-,20-,21-,22-/m1/s1
> <PUBCHEM_IUPAC_INCHIKEY>
JGHMYHIWMLQPCG-NBWOUMIXSA-N
> <PUBCHEM_XLOGP3_AA>
-0.4
> <PUBCHEM_EXACT_MASS>
464.30976637
> <PUBCHEM_MOLECULAR_FORMULA>
C22H44N2O8
> <PUBCHEM_MOLECULAR_WEIGHT>
464.6
> <PUBCHEM_OPENEYE_CAN_SMILES>
C1C(C(C(C(N1CCCCCCCCCCN2CC(C(C(C2CO)O)O)O)CO)O)O)O
> <PUBCHEM_OPENEYE_ISO_SMILES>
C1[C@@H]([C@H]([C@@H]([C@H](N1CCCCCCCCCCN2C[C@@H]([C@H]([C@@H]([C@H]2CO)O)O)O)CO)O)O)O
> <PUBCHEM_CACTVS_TPSA>
168
> <PUBCHEM_MONOISOTOPIC_WEIGHT>
464.30976637
> <PUBCHEM_TOTAL_CHARGE>
0
> <PUBCHEM_HEAVY_ATOM_COUNT>
32
> <PUBCHEM_ATOM_DEF_STEREO_COUNT>
8
> <PUBCHEM_ATOM_UDEF_STEREO_COUNT>
0
> <PUBCHEM_BOND_DEF_STEREO_COUNT>
0
> <PUBCHEM_BOND_UDEF_STEREO_COUNT>
0
> <PUBCHEM_ISOTOPIC_ATOM_COUNT>
0
> <PUBCHEM_COMPONENT_COUNT>
1
> <PUBCHEM_CACTVS_TAUTO_COUNT>
-1
> <PUBCHEM_COORDINATE_TYPE>
1
5
255
> <PUBCHEM_BONDANNOTATIONS>
13  1  6
11  23  5
12  24  5
14  2  6
15  3  5
16  4  5
19  5  6
20  6  6
$$$$
