503973
  -OEChem-10302200282D
162166  0     1  0  0  0  0  0999 V2000
   18.0000    0.8971    0.0000 P   0  0  3  0  0  0  0  0  0  0  0  0
   18.0000    1.8971    0.0000 O   0  0  0  0  0  0  0  0  0  0  0  0
   19.7320    4.8971    0.0000 O   0  0  0  0  0  0  0  0  0  0  0  0
   17.0000    0.8971    0.0000 O   0  0  0  0  0  0  0  0  0  0  0  0
   18.0000   -0.1029    0.0000 O   0  0  0  0  0  0  0  0  0  0  0  0
   19.0000    0.8971    0.0000 O   0  0  0  0  0  0  0  0  0  0  0  0
   19.7320    3.8971    0.0000 O   0  0  0  0  0  0  0  0  0  0  0  0
   23.1962    4.8971    0.0000 O   0  0  0  0  0  0  0  0  0  0  0  0
   14.0000   -0.8349    0.0000 O   0  0  0  0  0  0  0  0  0  0  0  0
   22.3302    1.6651    0.0000 O   0  0  0  0  0  0  0  0  0  0  0  0
   18.0000    3.8971    0.0000 N   0  0  3  0  0  0  0  0  0  0  0  0
   18.8660    6.3971    0.0000 N   0  0  0  0  0  0  0  0  0  0  0  0
   20.5981    2.3971    0.0000 N   0  0  0  0  0  0  0  0  0  0  0  0
   22.3301    3.3971    0.0000 N   0  0  0  0  0  0  0  0  0  0  0  0
   22.3301    6.3971    0.0000 N   0  0  0  0  0  0  0  0  0  0  0  0
   24.3301    1.6651    0.0000 N   0  0  0  0  0  0  0  0  0  0  0  0
   16.2680    4.8971    0.0000 C   0  0  2  0  0  0  0  0  0  0  0  0
   16.2680    3.8971    0.0000 C   0  0  1  0  0  0  0  0  0  0  0  0
   17.1340    5.3971    0.0000 C   0  0  0  0  0  0  0  0  0  0  0  0
   17.1340    3.3971    0.0000 C   0  0  0  0  0  0  0  0  0  0  0  0
   15.3740    5.4318    0.0000 C   0  0  0  0  0  0  0  0  0  0  0  0
   15.3740    3.3624    0.0000 C   0  0  0  0  0  0  0  0  0  0  0  0
   18.0000    4.8971    0.0000 C   0  0  1  0  0  0  0  0  0  0  0  0
   14.4679    4.9179    0.0000 C   0  0  0  0  0  0  0  0  0  0  0  0
   14.4679    3.8763    0.0000 C   0  0  0  0  0  0  0  0  0  0  0  0
   18.8660    3.3971    0.0000 C   0  0  0  0  0  0  0  0  0  0  0  0
   18.8660    5.3971    0.0000 C   0  0  0  0  0  0  0  0  0  0  0  0
   18.8660    2.3971    0.0000 C   0  0  2  0  0  0  0  0  0  0  0  0
   19.7320    1.8971    0.0000 C   0  0  2  0  0  0  0  0  0  0  0  0
   19.7320    6.8971    0.0000 C   0  0  0  0  0  0  0  0  0  0  0  0
   19.7320    0.8971    0.0000 C   0  0  0  0  0  0  0  0  0  0  0  0
   20.5981    7.3971    0.0000 C   0  0  0  0  0  0  0  0  0  0  0  0
   19.2320    7.7631    0.0000 C   0  0  0  0  0  0  0  0  0  0  0  0
   20.2320    6.0311    0.0000 C   0  0  0  0  0  0  0  0  0  0  0  0
   20.5981    0.3971    0.0000 C   0  0  0  0  0  0  0  0  0  0  0  0
   20.5981    3.3971    0.0000 C   0  0  0  0  0  0  0  0  0  0  0  0
   21.4641    3.8971    0.0000 C   0  0  2  0  0  0  0  0  0  0  0  0
   21.4641    0.8971    0.0000 C   0  0  0  0  0  0  0  0  0  0  0  0
   20.5981   -0.6029    0.0000 C   0  0  0  0  0  0  0  0  0  0  0  0
   21.4641    4.8971    0.0000 C   0  0  0  0  0  0  0  0  0  0  0  0
   16.5000    0.0311    0.0000 C   0  0  0  0  0  0  0  0  0  0  0  0
   22.3301    0.3971    0.0000 C   0  0  0  0  0  0  0  0  0  0  0  0
   21.4641   -1.1029    0.0000 C   0  0  0  0  0  0  0  0  0  0  0  0
   22.3301   -0.6029    0.0000 C   0  0  0  0  0  0  0  0  0  0  0  0
   15.5000    0.0311    0.0000 C   0  0  0  0  0  0  0  0  0  0  0  0
   22.3301    5.3971    0.0000 C   0  0  0  0  0  0  0  0  0  0  0  0
   22.8302    2.5311    0.0000 C   0  0  0  0  0  0  0  0  0  0  0  0
   15.0000   -0.8349    0.0000 C   0  0  0  0  0  0  0  0  0  0  0  0
   23.8301    2.5311    0.0000 C   0  0  0  0  0  0  0  0  0  0  0  0
   24.3301    3.3971    0.0000 C   0  0  0  0  0  0  0  0  0  0  0  0
   13.5000   -1.7010    0.0000 C   0  0  0  0  0  0  0  0  0  0  0  0
   12.5000   -1.7010    0.0000 C   0  0  0  0  0  0  0  0  0  0  0  0
   25.3301    3.3971    0.0000 C   0  0  0  0  0  0  0  0  0  0  0  0
   25.3301    1.6651    0.0000 C   0  0  0  0  0  0  0  0  0  0  0  0
   12.0000   -2.5670    0.0000 C   0  0  0  0  0  0  0  0  0  0  0  0
   25.8301    2.5311    0.0000 C   0  0  0  0  0  0  0  0  0  0  0  0
   11.0000   -2.5670    0.0000 C   0  0  0  0  0  0  0  0  0  0  0  0
   10.5000   -3.4330    0.0000 C   0  0  0  0  0  0  0  0  0  0  0  0
   25.8370    0.7551    0.0000 C   0  0  0  0  0  0  0  0  0  0  0  0
    9.5000   -3.4330    0.0000 C   0  0  0  0  0  0  0  0  0  0  0  0
    9.0000   -4.2990    0.0000 C   0  0  0  0  0  0  0  0  0  0  0  0
   26.8716    2.5471    0.0000 C   0  0  0  0  0  0  0  0  0  0  0  0
    8.0000   -4.2990    0.0000 C   0  0  0  0  0  0  0  0  0  0  0  0
    7.5000   -5.1651    0.0000 C   0  0  0  0  0  0  0  0  0  0  0  0
    6.5000   -5.1651    0.0000 C   0  0  0  0  0  0  0  0  0  0  0  0
    6.0000   -6.0311    0.0000 C   0  0  0  0  0  0  0  0  0  0  0  0
   26.8786    0.7470    0.0000 C   0  0  0  0  0  0  0  0  0  0  0  0
   27.3994    1.6491    0.0000 C   0  0  0  0  0  0  0  0  0  0  0  0
    5.0000   -6.0311    0.0000 C   0  0  0  0  0  0  0  0  0  0  0  0
    4.5000   -6.8971    0.0000 C   0  0  0  0  0  0  0  0  0  0  0  0
    3.5000   -6.8971    0.0000 C   0  0  0  0  0  0  0  0  0  0  0  0
    3.0000   -7.7631    0.0000 C   0  0  0  0  0  0  0  0  0  0  0  0
    2.0000   -7.7631    0.0000 C   0  0  0  0  0  0  0  0  0  0  0  0
   16.2745    5.7471    0.0000 H   0  0  0  0  0  0  0  0  0  0  0  0
   16.2745    3.0471    0.0000 H   0  0  0  0  0  0  0  0  0  0  0  0
   17.5325    5.8721    0.0000 H   0  0  0  0  0  0  0  0  0  0  0  0
   16.7354    5.8721    0.0000 H   0  0  0  0  0  0  0  0  0  0  0  0
   16.7354    2.9222    0.0000 H   0  0  0  0  0  0  0  0  0  0  0  0
   17.5325    2.9222    0.0000 H   0  0  0  0  0  0  0  0  0  0  0  0
   15.7786    5.9016    0.0000 H   0  0  0  0  0  0  0  0  0  0  0  0
   14.9804    5.9108    0.0000 H   0  0  0  0  0  0  0  0  0  0  0  0
   14.9804    2.8834    0.0000 H   0  0  0  0  0  0  0  0  0  0  0  0
   15.7786    2.8927    0.0000 H   0  0  0  0  0  0  0  0  0  0  0  0
   18.5369    4.5871    0.0000 H   0  0  0  0  0  0  0  0  0  0  0  0
   14.2589    5.5016    0.0000 H   0  0  0  0  0  0  0  0  0  0  0  0
   13.8571    4.8118    0.0000 H   0  0  0  0  0  0  0  0  0  0  0  0
   13.8571    3.9824    0.0000 H   0  0  0  0  0  0  0  0  0  0  0  0
   14.2589    3.2926    0.0000 H   0  0  0  0  0  0  0  0  0  0  0  0
   19.4766    3.2894    0.0000 H   0  0  0  0  0  0  0  0  0  0  0  0
   19.0781    3.9797    0.0000 H   0  0  0  0  0  0  0  0  0  0  0  0
   18.3291    2.7071    0.0000 H   0  0  0  0  0  0  0  0  0  0  0  0
   20.2690    1.5871    0.0000 H   0  0  0  0  0  0  0  0  0  0  0  0
   18.3291    6.7071    0.0000 H   0  0  0  0  0  0  0  0  0  0  0  0
   19.1215    1.0048    0.0000 H   0  0  0  0  0  0  0  0  0  0  0  0
   19.5200    0.3145    0.0000 H   0  0  0  0  0  0  0  0  0  0  0  0
   21.1350    2.0871    0.0000 H   0  0  0  0  0  0  0  0  0  0  0  0
   20.9081    6.8602    0.0000 H   0  0  0  0  0  0  0  0  0  0  0  0
   21.1350    7.7071    0.0000 H   0  0  0  0  0  0  0  0  0  0  0  0
   20.2881    7.9340    0.0000 H   0  0  0  0  0  0  0  0  0  0  0  0
   19.7690    8.0731    0.0000 H   0  0  0  0  0  0  0  0  0  0  0  0
   18.9221    8.3001    0.0000 H   0  0  0  0  0  0  0  0  0  0  0  0
   18.6951    7.4531    0.0000 H   0  0  0  0  0  0  0  0  0  0  0  0
   19.6951    5.7211    0.0000 H   0  0  0  0  0  0  0  0  0  0  0  0
   20.5420    5.4942    0.0000 H   0  0  0  0  0  0  0  0  0  0  0  0
   20.7690    6.3411    0.0000 H   0  0  0  0  0  0  0  0  0  0  0  0
   21.4641    3.2771    0.0000 H   0  0  0  0  0  0  0  0  0  0  0  0
   21.4641    1.5171    0.0000 H   0  0  0  0  0  0  0  0  0  0  0  0
   20.0611   -0.9129    0.0000 H   0  0  0  0  0  0  0  0  0  0  0  0
   17.4631   -0.4129    0.0000 H   0  0  0  0  0  0  0  0  0  0  0  0
   21.2520    5.4797    0.0000 H   0  0  0  0  0  0  0  0  0  0  0  0
   20.8535    4.7895    0.0000 H   0  0  0  0  0  0  0  0  0  0  0  0
   16.3923   -0.5795    0.0000 H   0  0  0  0  0  0  0  0  0  0  0  0
   17.0826   -0.1810    0.0000 H   0  0  0  0  0  0  0  0  0  0  0  0
   22.8671    0.7071    0.0000 H   0  0  0  0  0  0  0  0  0  0  0  0
   21.4641   -1.7229    0.0000 H   0  0  0  0  0  0  0  0  0  0  0  0
   22.8671    3.7071    0.0000 H   0  0  0  0  0  0  0  0  0  0  0  0
   22.8671   -0.9129    0.0000 H   0  0  0  0  0  0  0  0  0  0  0  0
   15.6077    0.6417    0.0000 H   0  0  0  0  0  0  0  0  0  0  0  0
   14.9174    0.2431    0.0000 H   0  0  0  0  0  0  0  0  0  0  0  0
   14.8923   -1.4455    0.0000 H   0  0  0  0  0  0  0  0  0  0  0  0
   15.5826   -1.0470    0.0000 H   0  0  0  0  0  0  0  0  0  0  0  0
   22.8671    6.7071    0.0000 H   0  0  0  0  0  0  0  0  0  0  0  0
   21.7932    6.7071    0.0000 H   0  0  0  0  0  0  0  0  0  0  0  0
   24.0201    3.9340    0.0000 H   0  0  0  0  0  0  0  0  0  0  0  0
   13.3923   -2.3115    0.0000 H   0  0  0  0  0  0  0  0  0  0  0  0
   14.0826   -1.9130    0.0000 H   0  0  0  0  0  0  0  0  0  0  0  0
   12.6077   -1.0904    0.0000 H   0  0  0  0  0  0  0  0  0  0  0  0
   11.9174   -1.4889    0.0000 H   0  0  0  0  0  0  0  0  0  0  0  0
   25.6401    3.9340    0.0000 H   0  0  0  0  0  0  0  0  0  0  0  0
   11.8923   -3.1776    0.0000 H   0  0  0  0  0  0  0  0  0  0  0  0
   12.5826   -2.7790    0.0000 H   0  0  0  0  0  0  0  0  0  0  0  0
   11.1077   -1.9564    0.0000 H   0  0  0  0  0  0  0  0  0  0  0  0
   10.4174   -2.3549    0.0000 H   0  0  0  0  0  0  0  0  0  0  0  0
   10.3923   -4.0436    0.0000 H   0  0  0  0  0  0  0  0  0  0  0  0
   11.0826   -3.6451    0.0000 H   0  0  0  0  0  0  0  0  0  0  0  0
    9.6077   -2.8224    0.0000 H   0  0  0  0  0  0  0  0  0  0  0  0
    8.9174   -3.2210    0.0000 H   0  0  0  0  0  0  0  0  0  0  0  0
   25.5208    0.2217    0.0000 H   0  0  0  0  0  0  0  0  0  0  0  0
    8.8923   -4.9096    0.0000 H   0  0  0  0  0  0  0  0  0  0  0  0
    9.5826   -4.5111    0.0000 H   0  0  0  0  0  0  0  0  0  0  0  0
   27.1754    3.0876    0.0000 H   0  0  0  0  0  0  0  0  0  0  0  0
    8.1077   -3.6885    0.0000 H   0  0  0  0  0  0  0  0  0  0  0  0
    7.4174   -4.0870    0.0000 H   0  0  0  0  0  0  0  0  0  0  0  0
    7.3923   -5.7756    0.0000 H   0  0  0  0  0  0  0  0  0  0  0  0
    8.0826   -5.3771    0.0000 H   0  0  0  0  0  0  0  0  0  0  0  0
    6.6077   -4.5545    0.0000 H   0  0  0  0  0  0  0  0  0  0  0  0
    5.9174   -4.9530    0.0000 H   0  0  0  0  0  0  0  0  0  0  0  0
    5.8923   -6.6417    0.0000 H   0  0  0  0  0  0  0  0  0  0  0  0
    6.5826   -6.2431    0.0000 H   0  0  0  0  0  0  0  0  0  0  0  0
   27.1865    0.2089    0.0000 H   0  0  0  0  0  0  0  0  0  0  0  0
    5.1077   -5.4205    0.0000 H   0  0  0  0  0  0  0  0  0  0  0  0
    4.4174   -5.8190    0.0000 H   0  0  0  0  0  0  0  0  0  0  0  0
   28.0194    1.6515    0.0000 H   0  0  0  0  0  0  0  0  0  0  0  0
    4.3923   -7.5077    0.0000 H   0  0  0  0  0  0  0  0  0  0  0  0
    5.0826   -7.1092    0.0000 H   0  0  0  0  0  0  0  0  0  0  0  0
    3.6077   -6.2865    0.0000 H   0  0  0  0  0  0  0  0  0  0  0  0
    2.9174   -6.6851    0.0000 H   0  0  0  0  0  0  0  0  0  0  0  0
    2.8923   -8.3737    0.0000 H   0  0  0  0  0  0  0  0  0  0  0  0
    3.5826   -7.9752    0.0000 H   0  0  0  0  0  0  0  0  0  0  0  0
    2.0000   -7.1431    0.0000 H   0  0  0  0  0  0  0  0  0  0  0  0
    1.3800   -7.7631    0.0000 H   0  0  0  0  0  0  0  0  0  0  0  0
    2.0000   -8.3831    0.0000 H   0  0  0  0  0  0  0  0  0  0  0  0
  1  2  1  0  0  0  0
  1  4  1  0  0  0  0
  1  5  1  0  0  0  0
  1  6  2  0  0  0  0
 28  2  1  6  0  0  0
  3 27  2  0  0  0  0
  4 41  1  0  0  0  0
  5109  1  0  0  0  0
  7 36  2  0  0  0  0
  8 46  2  0  0  0  0
  9 48  1  0  0  0  0
  9 51  1  0  0  0  0
 10 47  2  0  0  0  0
 11 20  1  0  0  0  0
 11 23  1  0  0  0  0
 11 26  1  0  0  0  0
 12 27  1  0  0  0  0
 12 30  1  0  0  0  0
 12 93  1  0  0  0  0
 29 13  1  1  0  0  0
 13 36  1  0  0  0  0
 13 96  1  0  0  0  0
 37 14  1  6  0  0  0
 14 47  1  0  0  0  0
 14116  1  0  0  0  0
 15 46  1  0  0  0  0
 15122  1  0  0  0  0
 15123  1  0  0  0  0
 16 49  2  0  0  0  0
 16 54  1  0  0  0  0
 17 18  1  0  0  0  0
 17 19  1  0  0  0  0
 17 21  1  0  0  0  0
 17 74  1  6  0  0  0
 18 20  1  0  0  0  0
 18 22  1  0  0  0  0
 18 75  1  6  0  0  0
 19 23  1  0  0  0  0
 19 76  1  0  0  0  0
 19 77  1  0  0  0  0
 20 78  1  0  0  0  0
 20 79  1  0  0  0  0
 21 24  1  0  0  0  0
 21 80  1  0  0  0  0
 21 81  1  0  0  0  0
 22 25  1  0  0  0  0
 22 82  1  0  0  0  0
 22 83  1  0  0  0  0
 23 27  1  1  0  0  0
 23 84  1  0  0  0  0
 24 25  1  0  0  0  0
 24 85  1  0  0  0  0
 24 86  1  0  0  0  0
 25 87  1  0  0  0  0
 25 88  1  0  0  0  0
 26 28  1  0  0  0  0
 26 89  1  0  0  0  0
 26 90  1  0  0  0  0
 28 29  1  0  0  0  0
 28 91  1  0  0  0  0
 29 31  1  0  0  0  0
 29 92  1  0  0  0  0
 30 32  1  0  0  0  0
 30 33  1  0  0  0  0
 30 34  1  0  0  0  0
 31 35  1  0  0  0  0
 31 94  1  0  0  0  0
 31 95  1  0  0  0  0
 32 97  1  0  0  0  0
 32 98  1  0  0  0  0
 32 99  1  0  0  0  0
 33100  1  0  0  0  0
 33101  1  0  0  0  0
 33102  1  0  0  0  0
 34103  1  0  0  0  0
 34104  1  0  0  0  0
 34105  1  0  0  0  0
 35 38  2  0  0  0  0
 35 39  1  0  0  0  0
 36 37  1  0  0  0  0
 37 40  1  0  0  0  0
 37106  1  0  0  0  0
 38 42  1  0  0  0  0
 38107  1  0  0  0  0
 39 43  2  0  0  0  0
 39108  1  0  0  0  0
 40 46  1  0  0  0  0
 40110  1  0  0  0  0
 40111  1  0  0  0  0
 41 45  1  0  0  0  0
 41112  1  0  0  0  0
 41113  1  0  0  0  0
 42 44  2  0  0  0  0
 42114  1  0  0  0  0
 43 44  1  0  0  0  0
 43115  1  0  0  0  0
 44117  1  0  0  0  0
 45 48  1  0  0  0  0
 45118  1  0  0  0  0
 45119  1  0  0  0  0
 47 49  1  0  0  0  0
 48120  1  0  0  0  0
 48121  1  0  0  0  0
 49 50  1  0  0  0  0
 50 53  2  0  0  0  0
 50124  1  0  0  0  0
 51 52  1  0  0  0  0
 51125  1  0  0  0  0
 51126  1  0  0  0  0
 52 55  1  0  0  0  0
 52127  1  0  0  0  0
 52128  1  0  0  0  0
 53 56  1  0  0  0  0
 53129  1  0  0  0  0
 54 56  1  0  0  0  0
 54 59  2  0  0  0  0
 55 57  1  0  0  0  0
 55130  1  0  0  0  0
 55131  1  0  0  0  0
 56 62  2  0  0  0  0
 57 58  1  0  0  0  0
 57132  1  0  0  0  0
 57133  1  0  0  0  0
 58 60  1  0  0  0  0
 58134  1  0  0  0  0
 58135  1  0  0  0  0
 59 67  1  0  0  0  0
 59138  1  0  0  0  0
 60 61  1  0  0  0  0
 60136  1  0  0  0  0
 60137  1  0  0  0  0
 61 63  1  0  0  0  0
 61139  1  0  0  0  0
 61140  1  0  0  0  0
 62 68  1  0  0  0  0
 62141  1  0  0  0  0
 63 64  1  0  0  0  0
 63142  1  0  0  0  0
 63143  1  0  0  0  0
 64 65  1  0  0  0  0
 64144  1  0  0  0  0
 64145  1  0  0  0  0
 65 66  1  0  0  0  0
 65146  1  0  0  0  0
 65147  1  0  0  0  0
 66 69  1  0  0  0  0
 66148  1  0  0  0  0
 66149  1  0  0  0  0
 67 68  2  0  0  0  0
 67150  1  0  0  0  0
 68153  1  0  0  0  0
 69 70  1  0  0  0  0
 69151  1  0  0  0  0
 69152  1  0  0  0  0
 70 71  1  0  0  0  0
 70154  1  0  0  0  0
 70155  1  0  0  0  0
 71 72  1  0  0  0  0
 71156  1  0  0  0  0
 71157  1  0  0  0  0
 72 73  1  0  0  0  0
 72158  1  0  0  0  0
 72159  1  0  0  0  0
 73160  1  0  0  0  0
 73161  1  0  0  0  0
 73162  1  0  0  0  0
M  END
> <PUBCHEM_COMPOUND_CID>
503973
> <PUBCHEM_COMPOUND_CANONICALIZED>
1
> <PUBCHEM_CACTVS_COMPLEXITY>
1660
> <PUBCHEM_CACTVS_HBOND_ACCEPTOR>
11
> <PUBCHEM_CACTVS_HBOND_DONOR>
5
> <PUBCHEM_CACTVS_ROTATABLE_BOND>
35
> <PUBCHEM_CACTVS_SUBSKEYS>
AAADcfB/vAIAAAAAAAAAAAAAAAAAAAAAAAA8eMECAAAAAACx9AAAHgAQCCAADbzhngYywPPIFRCoQyVyVICCgCAnAiAImKG4ZNgKYPrA1bGWIQhllgDYyYedyKCOgAAAAAACAAAAAAAAACQAAAAAAAAAAA==
> <PUBCHEM_IUPAC_OPENEYE_NAME>
[(1R,2S)-1-[[(3S,4aS,8aS)-3-(tert-butylcarbamoyl)-3,4,4a,5,6,7,8,8a-octahydro-1H-isoquinolin-2-yl]methyl]-2-[[(2S)-4-amino-4-oxo-2-(quinoline-2-carbonylamino)butanoyl]amino]-3-phenyl-propyl] 3-hexadecoxypropyl hydrogen phosphate
> <PUBCHEM_IUPAC_CAS_NAME>
[(2R,3S)-1-[(3S,4aS,8aS)-3-[(tert-butylamino)-oxomethyl]-3,4,4a,5,6,7,8,8a-octahydro-1H-isoquinolin-2-yl]-3-[[(2S)-4-amino-1,4-dioxo-2-[[oxo(2-quinolinyl)methyl]amino]butyl]amino]-4-phenylbutan-2-yl] 3-hexadecoxypropyl hydrogen phosphate
> <PUBCHEM_IUPAC_NAME_MARKUP>
[(2<I>R</I>,3<I>S</I>)-1-[(3<I>S</I>,4<I>a</I><I>S</I>,8<I>a</I><I>S</I>)-3-(<I>tert</I>-butylcarbamoyl)-3,4,4<I>a</I>,5,6,7,8,8<I>a</I>-octahydro-1<I>H</I>-isoquinolin-2-yl]-3-[[(2<I>S</I>)-4-amino-4-oxo-2-(quinoline-2-carbonylamino)butanoyl]amino]-4-phenylbutan-2-yl] 3-hexadecoxypropyl hydrogen phosphate
> <PUBCHEM_IUPAC_NAME>
[(2R,3S)-1-[(3S,4aS,8aS)-3-(tert-butylcarbamoyl)-3,4,4a,5,6,7,8,8a-octahydro-1H-isoquinolin-2-yl]-3-[[(2S)-4-amino-4-oxo-2-(quinoline-2-carbonylamino)butanoyl]amino]-4-phenylbutan-2-yl] 3-hexadecoxypropyl hydrogen phosphate
> <PUBCHEM_IUPAC_SYSTEMATIC_NAME>
[(2R,3S)-1-[(3S,4aS,8aS)-3-(tert-butylcarbamoyl)-3,4,4a,5,6,7,8,8a-octahydro-1H-isoquinolin-2-yl]-3-[[(2S)-4-azanyl-4-oxidanylidene-2-(quinolin-2-ylcarbonylamino)butanoyl]amino]-4-phenyl-butan-2-yl] 3-hexadecoxypropyl hydrogen phosphate
> <PUBCHEM_IUPAC_TRADITIONAL_NAME>
[(1R,2S)-1-[[(3S,4aS,8aS)-3-(tert-butylcarbamoyl)-3,4,4a,5,6,7,8,8a-octahydro-1H-isoquinolin-2-yl]methyl]-2-[[(2S)-4-amino-4-keto-2-(quinaldoylamino)butanoyl]amino]-3-phenyl-propyl] 3-cetyloxypropyl hydrogen phosphate
> <PUBCHEM_IUPAC_INCHI>
InChI=1S/C57H89N6O9P/c1-5-6-7-8-9-10-11-12-13-14-15-16-17-25-35-70-36-26-37-71-73(68,69)72-52(42-63-41-46-31-22-21-30-45(46)39-51(63)56(67)62-57(2,3)4)49(38-43-27-19-18-20-28-43)60-55(66)50(40-53(58)64)61-54(65)48-34-33-44-29-23-24-32-47(44)59-48/h18-20,23-24,27-29,32-34,45-46,49-52H,5-17,21-22,25-26,30-31,35-42H2,1-4H3,(H2,58,64)(H,60,66)(H,61,65)(H,62,67)(H,68,69)/t45-,46+,49-,50-,51-,52+/m0/s1
> <PUBCHEM_IUPAC_INCHIKEY>
MDNWTXDUPQXERH-AKEJILISSA-N
> <PUBCHEM_XLOGP3_AA>
9.4
> <PUBCHEM_EXACT_MASS>
1032.64286544
> <PUBCHEM_MOLECULAR_FORMULA>
C57H89N6O9P
> <PUBCHEM_MOLECULAR_WEIGHT>
1033.3
> <PUBCHEM_OPENEYE_CAN_SMILES>
CCCCCCCCCCCCCCCCOCCCOP(=O)(O)OC(CN1CC2CCCCC2CC1C(=O)NC(C)(C)C)C(CC3=CC=CC=C3)NC(=O)C(CC(=O)N)NC(=O)C4=NC5=CC=CC=C5C=C4
> <PUBCHEM_OPENEYE_ISO_SMILES>
CCCCCCCCCCCCCCCCOCCCOP(=O)(O)O[C@H](CN1C[C@H]2CCCC[C@H]2C[C@H]1C(=O)NC(C)(C)C)[C@H](CC3=CC=CC=C3)NC(=O)[C@H](CC(=O)N)NC(=O)C4=NC5=CC=CC=C5C=C4
> <PUBCHEM_CACTVS_TPSA>
212
> <PUBCHEM_MONOISOTOPIC_WEIGHT>
1032.64286544
> <PUBCHEM_TOTAL_CHARGE>
0
> <PUBCHEM_HEAVY_ATOM_COUNT>
73
> <PUBCHEM_ATOM_DEF_STEREO_COUNT>
6
> <PUBCHEM_ATOM_UDEF_STEREO_COUNT>
0
> <PUBCHEM_BOND_DEF_STEREO_COUNT>
0
> <PUBCHEM_BOND_UDEF_STEREO_COUNT>
0
> <PUBCHEM_ISOTOPIC_ATOM_COUNT>
0
> <PUBCHEM_COMPONENT_COUNT>
1
> <PUBCHEM_CACTVS_TAUTO_COUNT>
-1
> <PUBCHEM_COORDINATE_TYPE>
1
5
255
> <PUBCHEM_BONDANNOTATIONS>
29  13  5
37  14  6
16  49  8
16  54  8
17  74  6
18  75  6
28  2  6
23  27  5
35  38  8
35  39  8
38  42  8
39  43  8
42  44  8
43  44  8
49  50  8
50  53  8
53  56  8
54  56  8
54  59  8
56  62  8
59  67  8
62  68  8
67  68  8
$$$$
