504063
  -OEChem-10302200282D
 52 52  0     1  0  0  0  0  0999 V2000
    9.1360    4.3100    0.0000 S   0  0  0  0  0  0  0  0  0  0  0  0
    3.4641    5.7150    0.0000 O   0  0  0  0  0  0  0  0  0  0  0  0
    2.5981    3.2150    0.0000 O   0  0  0  0  0  0  0  0  0  0  0  0
    5.1962    4.7150    0.0000 O   0  0  0  0  0  0  0  0  0  0  0  0
    1.7320    5.7150    0.0000 O   0  0  0  0  0  0  0  0  0  0  0  0
    0.0000    4.7150    0.0000 O   0  0  0  0  0  0  0  0  0  0  0  0
   10.1360    4.3100    0.0000 O   0  0  0  0  0  0  0  0  0  0  0  0
    8.1360    4.3100    0.0000 O   0  0  0  0  0  0  0  0  0  0  0  0
    9.1360    0.3100    0.0000 N   0  0  0  0  0  0  0  0  0  0  0  0
    9.1360    8.3100    0.0000 N   0  0  0  0  0  0  0  0  0  0  0  0
    3.4641    4.7150    0.0000 C   0  0  2  0  0  0  0  0  0  0  0  0
    2.5981    4.2150    0.0000 C   0  0  1  0  0  0  0  0  0  0  0  0
    4.3301    4.2150    0.0000 C   0  0  1  0  0  0  0  0  0  0  0  0
    1.7320    4.7150    0.0000 C   0  0  2  0  0  0  0  0  0  0  0  0
    4.3301    3.2150    0.0000 C   0  0  0  0  0  0  0  0  0  0  0  0
    0.8660    4.2150    0.0000 C   0  0  0  0  0  0  0  0  0  0  0  0
    9.1360    3.3100    0.0000 C   0  0  0  0  0  0  0  0  0  0  0  0
    9.1360    5.3100    0.0000 C   0  0  0  0  0  0  0  0  0  0  0  0
    8.2700    2.8100    0.0000 C   0  0  0  0  0  0  0  0  0  0  0  0
   10.0021    5.8100    0.0000 C   0  0  0  0  0  0  0  0  0  0  0  0
   10.0021    2.8100    0.0000 C   0  0  0  0  0  0  0  0  0  0  0  0
    8.2700    5.8100    0.0000 C   0  0  0  0  0  0  0  0  0  0  0  0
    8.2700    1.8100    0.0000 C   0  0  0  0  0  0  0  0  0  0  0  0
   10.0021    6.8100    0.0000 C   0  0  0  0  0  0  0  0  0  0  0  0
   10.0021    1.8100    0.0000 C   0  0  0  0  0  0  0  0  0  0  0  0
    8.2700    6.8100    0.0000 C   0  0  0  0  0  0  0  0  0  0  0  0
    9.1360    1.3100    0.0000 C   0  0  0  0  0  0  0  0  0  0  0  0
    9.1360    7.3100    0.0000 C   0  0  0  0  0  0  0  0  0  0  0  0
    4.0010    5.0250    0.0000 H   0  0  0  0  0  0  0  0  0  0  0  0
    2.0611    3.9050    0.0000 H   0  0  0  0  0  0  0  0  0  0  0  0
    4.8671    3.9050    0.0000 H   0  0  0  0  0  0  0  0  0  0  0  0
    2.2690    5.0250    0.0000 H   0  0  0  0  0  0  0  0  0  0  0  0
    3.7101    3.2150    0.0000 H   0  0  0  0  0  0  0  0  0  0  0  0
    4.3301    2.5950    0.0000 H   0  0  0  0  0  0  0  0  0  0  0  0
    4.9501    3.2150    0.0000 H   0  0  0  0  0  0  0  0  0  0  0  0
    4.0010    6.0250    0.0000 H   0  0  0  0  0  0  0  0  0  0  0  0
    2.0611    2.9050    0.0000 H   0  0  0  0  0  0  0  0  0  0  0  0
    0.8660    3.5950    0.0000 H   0  0  0  0  0  0  0  0  0  0  0  0
    5.7331    4.4050    0.0000 H   0  0  0  0  0  0  0  0  0  0  0  0
    1.1951    6.0250    0.0000 H   0  0  0  0  0  0  0  0  0  0  0  0
    7.7331    3.1200    0.0000 H   0  0  0  0  0  0  0  0  0  0  0  0
   10.5390    5.5000    0.0000 H   0  0  0  0  0  0  0  0  0  0  0  0
   10.5390    3.1200    0.0000 H   0  0  0  0  0  0  0  0  0  0  0  0
    7.7331    5.5000    0.0000 H   0  0  0  0  0  0  0  0  0  0  0  0
    7.7331    1.5000    0.0000 H   0  0  0  0  0  0  0  0  0  0  0  0
   10.5390    7.1200    0.0000 H   0  0  0  0  0  0  0  0  0  0  0  0
   10.5390    1.5000    0.0000 H   0  0  0  0  0  0  0  0  0  0  0  0
    7.7331    7.1200    0.0000 H   0  0  0  0  0  0  0  0  0  0  0  0
    8.5991    0.0000    0.0000 H   0  0  0  0  0  0  0  0  0  0  0  0
    9.6730    0.0000    0.0000 H   0  0  0  0  0  0  0  0  0  0  0  0
    9.6730    8.6200    0.0000 H   0  0  0  0  0  0  0  0  0  0  0  0
    8.5991    8.6200    0.0000 H   0  0  0  0  0  0  0  0  0  0  0  0
  1  7  2  0  0  0  0
  1  8  2  0  0  0  0
  1 17  1  0  0  0  0
  1 18  1  0  0  0  0
 11  2  1  1  0  0  0
  2 36  1  0  0  0  0
 12  3  1  6  0  0  0
  3 37  1  0  0  0  0
 13  4  1  6  0  0  0
  4 39  1  0  0  0  0
 14  5  1  6  0  0  0
  5 40  1  0  0  0  0
  6 16  2  0  0  0  0
  9 27  1  0  0  0  0
  9 49  1  0  0  0  0
  9 50  1  0  0  0  0
 10 28  1  0  0  0  0
 10 51  1  0  0  0  0
 10 52  1  0  0  0  0
 11 12  1  0  0  0  0
 11 13  1  0  0  0  0
 11 29  1  0  0  0  0
 12 14  1  0  0  0  0
 12 30  1  0  0  0  0
 13 15  1  0  0  0  0
 13 31  1  0  0  0  0
 14 16  1  0  0  0  0
 14 32  1  0  0  0  0
 15 33  1  0  0  0  0
 15 34  1  0  0  0  0
 15 35  1  0  0  0  0
 16 38  1  0  0  0  0
 17 19  2  0  0  0  0
 17 21  1  0  0  0  0
 18 20  2  0  0  0  0
 18 22  1  0  0  0  0
 19 23  1  0  0  0  0
 19 41  1  0  0  0  0
 20 24  1  0  0  0  0
 20 42  1  0  0  0  0
 21 25  2  0  0  0  0
 21 43  1  0  0  0  0
 22 26  2  0  0  0  0
 22 44  1  0  0  0  0
 23 27  2  0  0  0  0
 23 45  1  0  0  0  0
 24 28  2  0  0  0  0
 24 46  1  0  0  0  0
 25 27  1  0  0  0  0
 25 47  1  0  0  0  0
 26 28  1  0  0  0  0
 26 48  1  0  0  0  0
M  END
> <PUBCHEM_COMPOUND_CID>
504063
> <PUBCHEM_COMPOUND_CANONICALIZED>
1
> <PUBCHEM_CACTVS_COMPLEXITY>
432
> <PUBCHEM_CACTVS_HBOND_ACCEPTOR>
9
> <PUBCHEM_CACTVS_HBOND_DONOR>
6
> <PUBCHEM_CACTVS_ROTATABLE_BOND>
6
> <PUBCHEM_CACTVS_SUBSKEYS>
AAADceB7OABAAAAAAAAAAAAAAAAAAAAAAAAwYAAAAAAAAAABQAAAHgQQCAAACByh0AIywYBAAgqIACxSwHLCAAAgChAIiBlAZIgJMDagkZGAYABlsAApyAfaDABAAAQAAAAAAAAACAAAAAAAAAAAAAAAAA==
> <PUBCHEM_IUPAC_OPENEYE_NAME>
4-(4-aminophenyl)sulfonylaniline;(2R,3S,4S,5R)-2,3,4,5-tetrahydroxyhexanal
> <PUBCHEM_IUPAC_CAS_NAME>
4-(4-aminophenyl)sulfonylaniline;(2R,3S,4S,5R)-2,3,4,5-tetrahydroxyhexanal
> <PUBCHEM_IUPAC_NAME_MARKUP>
4-(4-aminophenyl)sulfonylaniline;(2<I>R</I>,3<I>S</I>,4<I>S</I>,5<I>R</I>)-2,3,4,5-tetrahydroxyhexanal
> <PUBCHEM_IUPAC_NAME>
4-(4-aminophenyl)sulfonylaniline;(2R,3S,4S,5R)-2,3,4,5-tetrahydroxyhexanal
> <PUBCHEM_IUPAC_SYSTEMATIC_NAME>
4-(4-aminophenyl)sulfonylaniline;(2R,3S,4S,5R)-2,3,4,5-tetrakis(oxidanyl)hexanal
> <PUBCHEM_IUPAC_TRADITIONAL_NAME>
(4-sulfanilylphenyl)amine;(2R,3S,4S,5R)-2,3,4,5-tetrahydroxyhexanal
> <PUBCHEM_IUPAC_INCHI>
InChI=1S/C12H12N2O2S.C6H12O5/c13-9-1-5-11(6-2-9)17(15,16)12-7-3-10(14)4-8-12;1-3(8)5(10)6(11)4(9)2-7/h1-8H,13-14H2;2-6,8-11H,1H3/t;3-,4+,5+,6-/m.1/s1
> <PUBCHEM_IUPAC_INCHIKEY>
PJOWJYVYVZYPTQ-MCTYFEDTSA-N
> <PUBCHEM_EXACT_MASS>
412.13042228
> <PUBCHEM_MOLECULAR_FORMULA>
C18H24N2O7S
> <PUBCHEM_MOLECULAR_WEIGHT>
412.5
> <PUBCHEM_OPENEYE_CAN_SMILES>
CC(C(C(C(C=O)O)O)O)O.C1=CC(=CC=C1N)S(=O)(=O)C2=CC=C(C=C2)N
> <PUBCHEM_OPENEYE_ISO_SMILES>
C[C@H]([C@@H]([C@@H]([C@H](C=O)O)O)O)O.C1=CC(=CC=C1N)S(=O)(=O)C2=CC=C(C=C2)N
> <PUBCHEM_CACTVS_TPSA>
193
> <PUBCHEM_MONOISOTOPIC_WEIGHT>
412.13042228
> <PUBCHEM_TOTAL_CHARGE>
0
> <PUBCHEM_HEAVY_ATOM_COUNT>
28
> <PUBCHEM_ATOM_DEF_STEREO_COUNT>
4
> <PUBCHEM_ATOM_UDEF_STEREO_COUNT>
0
> <PUBCHEM_BOND_DEF_STEREO_COUNT>
0
> <PUBCHEM_BOND_UDEF_STEREO_COUNT>
0
> <PUBCHEM_ISOTOPIC_ATOM_COUNT>
0
> <PUBCHEM_COMPONENT_COUNT>
2
> <PUBCHEM_CACTVS_TAUTO_COUNT>
-1
> <PUBCHEM_COORDINATE_TYPE>
1
5
255
> <PUBCHEM_BONDANNOTATIONS>
17  19  8
17  21  8
18  20  8
18  22  8
19  23  8
11  2  5
20  24  8
21  25  8
22  26  8
23  27  8
24  28  8
25  27  8
26  28  8
12  3  6
13  4  6
14  5  6
$$$$
