504019
  -OEChem-10302200282D
 26 27  0     1  0  0  0  0  0999 V2000
    4.6456    0.0345    0.0000 O   0  0  0  0  0  0  0  0  0  0  0  0
    3.0934    2.1049    0.0000 O   0  0  0  0  0  0  0  0  0  0  0  0
    3.7320    0.4412    0.0000 N   0  0  0  0  0  0  0  0  0  0  0  0
    5.2215    2.5572    0.0000 N   0  0  0  0  0  0  0  0  0  0  0  0
    4.8147    1.6436    0.0000 C   0  0  3  0  0  0  0  0  0  0  0  0
    5.3147    0.7776    0.0000 C   0  0  0  0  0  0  0  0  0  0  0  0
    3.8366    1.4357    0.0000 C   0  0  0  0  0  0  0  0  0  0  0  0
    2.8660   -0.0588    0.0000 C   0  0  0  0  0  0  0  0  0  0  0  0
    2.8660   -1.0588    0.0000 C   0  0  0  0  0  0  0  0  0  0  0  0
    2.0000   -1.5588    0.0000 C   0  0  0  0  0  0  0  0  0  0  0  0
    3.7320   -1.5588    0.0000 C   0  0  0  0  0  0  0  0  0  0  0  0
    2.0000   -2.5588    0.0000 C   0  0  0  0  0  0  0  0  0  0  0  0
    3.7320   -2.5588    0.0000 C   0  0  0  0  0  0  0  0  0  0  0  0
    2.8660   -3.0588    0.0000 C   0  0  0  0  0  0  0  0  0  0  0  0
    4.4246    2.1255    0.0000 H   0  0  0  0  0  0  0  0  0  0  0  0
    5.7296    0.3169    0.0000 H   0  0  0  0  0  0  0  0  0  0  0  0
    5.8163    1.1420    0.0000 H   0  0  0  0  0  0  0  0  0  0  0  0
    2.6540    0.5238    0.0000 H   0  0  0  0  0  0  0  0  0  0  0  0
    2.2554   -0.1664    0.0000 H   0  0  0  0  0  0  0  0  0  0  0  0
    5.8381    2.6220    0.0000 H   0  0  0  0  0  0  0  0  0  0  0  0
    4.8570    3.0588    0.0000 H   0  0  0  0  0  0  0  0  0  0  0  0
    1.4631   -1.2488    0.0000 H   0  0  0  0  0  0  0  0  0  0  0  0
    4.2690   -1.2488    0.0000 H   0  0  0  0  0  0  0  0  0  0  0  0
    1.4631   -2.8688    0.0000 H   0  0  0  0  0  0  0  0  0  0  0  0
    4.2690   -2.8688    0.0000 H   0  0  0  0  0  0  0  0  0  0  0  0
    2.8660   -3.6788    0.0000 H   0  0  0  0  0  0  0  0  0  0  0  0
  1  3  1  0  0  0  0
  1  6  1  0  0  0  0
  2  7  2  0  0  0  0
  3  7  1  0  0  0  0
  3  8  1  0  0  0  0
  4  5  1  0  0  0  0
  4 20  1  0  0  0  0
  4 21  1  0  0  0  0
  5  6  1  0  0  0  0
  5  7  1  0  0  0  0
  5 15  1  0  0  0  0
  6 16  1  0  0  0  0
  6 17  1  0  0  0  0
  8  9  1  0  0  0  0
  8 18  1  0  0  0  0
  8 19  1  0  0  0  0
  9 10  2  0  0  0  0
  9 11  1  0  0  0  0
 10 12  1  0  0  0  0
 10 22  1  0  0  0  0
 11 13  2  0  0  0  0
 11 23  1  0  0  0  0
 12 14  2  0  0  0  0
 12 24  1  0  0  0  0
 13 14  1  0  0  0  0
 13 25  1  0  0  0  0
 14 26  1  0  0  0  0
M  END
> <PUBCHEM_COMPOUND_CID>
504019
> <PUBCHEM_COMPOUND_CANONICALIZED>
1
> <PUBCHEM_CACTVS_COMPLEXITY>
214
> <PUBCHEM_CACTVS_HBOND_ACCEPTOR>
3
> <PUBCHEM_CACTVS_HBOND_DONOR>
1
> <PUBCHEM_CACTVS_ROTATABLE_BOND>
2
> <PUBCHEM_CACTVS_SUBSKEYS>
AAADccBzMAAAAAAAAAAAAAAAAAAAAWAAAAAwAAAAAAAAAAABAAAAHgAUAAAADCjhmAYwAIJQAACIAiFSEACCAAAgAAAoiIGIBIgKYCaAkRGUIAhitgCIiAcQgAAOAAAAAAAAAAAAAAAAAAAAAAAAAAAAAA==
> <PUBCHEM_IUPAC_OPENEYE_NAME>
4-amino-2-benzyl-isoxazolidin-3-one
> <PUBCHEM_IUPAC_CAS_NAME>
4-amino-2-(phenylmethyl)-3-isoxazolidinone
> <PUBCHEM_IUPAC_NAME_MARKUP>
4-amino-2-benzyl-1,2-oxazolidin-3-one
> <PUBCHEM_IUPAC_NAME>
4-amino-2-benzyl-1,2-oxazolidin-3-one
> <PUBCHEM_IUPAC_SYSTEMATIC_NAME>
4-azanyl-2-(phenylmethyl)-1,2-oxazolidin-3-one
> <PUBCHEM_IUPAC_TRADITIONAL_NAME>
4-amino-2-benzyl-isoxazolidin-3-one
> <PUBCHEM_IUPAC_INCHI>
InChI=1S/C10H12N2O2/c11-9-7-14-12(10(9)13)6-8-4-2-1-3-5-8/h1-5,9H,6-7,11H2
> <PUBCHEM_IUPAC_INCHIKEY>
NSUMIHXJWJGUJE-UHFFFAOYSA-N
> <PUBCHEM_XLOGP3_AA>
0.2
> <PUBCHEM_EXACT_MASS>
192.089877630
> <PUBCHEM_MOLECULAR_FORMULA>
C10H12N2O2
> <PUBCHEM_MOLECULAR_WEIGHT>
192.21
> <PUBCHEM_OPENEYE_CAN_SMILES>
C1C(C(=O)N(O1)CC2=CC=CC=C2)N
> <PUBCHEM_OPENEYE_ISO_SMILES>
C1C(C(=O)N(O1)CC2=CC=CC=C2)N
> <PUBCHEM_CACTVS_TPSA>
55.6
> <PUBCHEM_MONOISOTOPIC_WEIGHT>
192.089877630
> <PUBCHEM_TOTAL_CHARGE>
0
> <PUBCHEM_HEAVY_ATOM_COUNT>
14
> <PUBCHEM_ATOM_DEF_STEREO_COUNT>
0
> <PUBCHEM_ATOM_UDEF_STEREO_COUNT>
1
> <PUBCHEM_BOND_DEF_STEREO_COUNT>
0
> <PUBCHEM_BOND_UDEF_STEREO_COUNT>
0
> <PUBCHEM_ISOTOPIC_ATOM_COUNT>
0
> <PUBCHEM_COMPONENT_COUNT>
1
> <PUBCHEM_CACTVS_TAUTO_COUNT>
-1
> <PUBCHEM_COORDINATE_TYPE>
1
5
255
> <PUBCHEM_BONDANNOTATIONS>
10  12  8
11  13  8
12  14  8
13  14  8
5  4  3
9  10  8
9  11  8
$$$$
