504169
  -OEChem-10302200282D
 96100  0     1  0  0  0  0  0999 V2000
    9.9737    4.6542    0.0000 O   0  0  0  0  0  0  0  0  0  0  0  0
   10.1548    2.9316    0.0000 O   0  0  0  0  0  0  0  0  0  0  0  0
    6.3981   -0.7024    0.0000 O   0  0  0  0  0  0  0  0  0  0  0  0
    9.7480    2.0181    0.0000 O   0  0  0  0  0  0  0  0  0  0  0  0
   10.4291    0.8385    0.0000 O   0  0  0  0  0  0  0  0  0  0  0  0
   11.0615   -2.7112    0.0000 O   0  0  0  0  0  0  0  0  0  0  0  0
   14.6329   -2.2158    0.0000 O   0  0  0  0  0  0  0  0  0  0  0  0
    2.8680   -3.7266    0.0000 O   0  0  0  0  0  0  0  0  0  0  0  0
    8.1657    2.7226    0.0000 N   0  0  0  0  0  0  0  0  0  0  0  0
    8.8468    0.1340    0.0000 N   0  0  0  0  0  0  0  0  0  0  0  0
   11.2426   -0.9886    0.0000 N   0  0  0  0  0  0  0  0  0  0  0  0
   13.2316   -1.1977    0.0000 N   0  0  0  0  0  0  0  0  0  0  0  0
    6.3981   -3.7024    0.0000 N   0  0  0  0  0  0  0  0  0  0  0  0
    8.5725    3.6361    0.0000 C   0  0  3  0  0  0  0  0  0  0  0  0
    7.6589    4.0428    0.0000 C   0  0  1  0  0  0  0  0  0  0  0  0
    8.4679    4.6306    0.0000 C   0  0  0  0  0  0  0  0  0  0  0  0
    9.5670    3.7406    0.0000 C   0  0  0  0  0  0  0  0  0  0  0  0
    6.6644    3.9383    0.0000 C   0  0  0  0  0  0  0  0  0  0  0  0
    8.3468    1.0000    0.0000 C   0  0  2  0  0  0  0  0  0  0  0  0
    8.7535    1.9136    0.0000 C   0  0  0  0  0  0  0  0  0  0  0  0
    7.3686    0.7921    0.0000 C   0  0  0  0  0  0  0  0  0  0  0  0
    7.2641   -0.2024    0.0000 C   0  0  2  0  0  0  0  0  0  0  0  0
    8.1776   -0.6092    0.0000 C   0  0  0  0  0  0  0  0  0  0  0  0
    9.8413    0.0294    0.0000 C   0  0  0  0  0  0  0  0  0  0  0  0
   13.0505   -2.9202    0.0000 C   0  0  0  0  0  0  0  0  0  0  0  0
    6.0766    4.7473    0.0000 C   0  0  0  0  0  0  0  0  0  0  0  0
   10.2480   -0.8841    0.0000 C   0  0  2  0  0  0  0  0  0  0  0  0
   12.4628   -3.7293    0.0000 C   0  0  0  0  0  0  0  0  0  0  0  0
   14.0451   -3.0248    0.0000 C   0  0  0  0  0  0  0  0  0  0  0  0
   12.6438   -2.0067    0.0000 C   0  0  1  0  0  0  0  0  0  0  0  0
   12.8695   -4.6428    0.0000 C   0  0  0  0  0  0  0  0  0  0  0  0
   14.4518   -3.9383    0.0000 C   0  0  0  0  0  0  0  0  0  0  0  0
    9.6602   -1.6931    0.0000 C   0  0  0  0  0  0  0  0  0  0  0  0
   13.8640   -4.7473    0.0000 C   0  0  0  0  0  0  0  0  0  0  0  0
   11.6493   -1.9022    0.0000 C   0  0  0  0  0  0  0  0  0  0  0  0
   10.0670   -2.6067    0.0000 C   0  0  0  0  0  0  0  0  0  0  0  0
    8.6657   -1.5886    0.0000 C   0  0  0  0  0  0  0  0  0  0  0  0
    6.3981   -1.7024    0.0000 C   0  0  0  0  0  0  0  0  0  0  0  0
    5.5320   -2.2024    0.0000 C   0  0  0  0  0  0  0  0  0  0  0  0
   14.2261   -1.3022    0.0000 C   0  0  0  0  0  0  0  0  0  0  0  0
    7.2641   -2.2024    0.0000 C   0  0  0  0  0  0  0  0  0  0  0  0
    5.5320   -3.2024    0.0000 C   0  0  0  0  0  0  0  0  0  0  0  0
   14.8139   -0.4932    0.0000 C   0  0  0  0  0  0  0  0  0  0  0  0
    4.6381   -1.6678    0.0000 C   0  0  0  0  0  0  0  0  0  0  0  0
    7.2641   -3.2024    0.0000 C   0  0  0  0  0  0  0  0  0  0  0  0
    4.6381   -3.7371    0.0000 C   0  0  0  0  0  0  0  0  0  0  0  0
    3.7320   -2.1816    0.0000 C   0  0  0  0  0  0  0  0  0  0  0  0
    3.7320   -3.2232    0.0000 C   0  0  0  0  0  0  0  0  0  0  0  0
    2.0000   -3.2299    0.0000 C   0  0  0  0  0  0  0  0  0  0  0  0
    7.4367    4.6217    0.0000 H   0  0  0  0  0  0  0  0  0  0  0  0
    9.0639    4.8015    0.0000 H   0  0  0  0  0  0  0  0  0  0  0  0
    8.1961    5.1879    0.0000 H   0  0  0  0  0  0  0  0  0  0  0  0
    7.5491    2.6578    0.0000 H   0  0  0  0  0  0  0  0  0  0  0  0
    6.4122    3.3719    0.0000 H   0  0  0  0  0  0  0  0  0  0  0  0
    8.9659    1.0324    0.0000 H   0  0  0  0  0  0  0  0  0  0  0  0
    7.3038    1.4087    0.0000 H   0  0  0  0  0  0  0  0  0  0  0  0
    6.7486    0.7921    0.0000 H   0  0  0  0  0  0  0  0  0  0  0  0
    6.7441    0.1352    0.0000 H   0  0  0  0  0  0  0  0  0  0  0  0
    7.8676   -1.1461    0.0000 H   0  0  0  0  0  0  0  0  0  0  0  0
    8.6792   -0.9736    0.0000 H   0  0  0  0  0  0  0  0  0  0  0  0
   13.4150   -2.4186    0.0000 H   0  0  0  0  0  0  0  0  0  0  0  0
    6.3288    5.3137    0.0000 H   0  0  0  0  0  0  0  0  0  0  0  0
    5.4600    4.6825    0.0000 H   0  0  0  0  0  0  0  0  0  0  0  0
   10.6125   -0.3825    0.0000 H   0  0  0  0  0  0  0  0  0  0  0  0
   10.5903    4.7190    0.0000 H   0  0  0  0  0  0  0  0  0  0  0  0
   12.0321   -3.2833    0.0000 H   0  0  0  0  0  0  0  0  0  0  0  0
   11.9488   -4.0760    0.0000 H   0  0  0  0  0  0  0  0  0  0  0  0
   14.6467   -2.8748    0.0000 H   0  0  0  0  0  0  0  0  0  0  0  0
   14.0018   -2.4063    0.0000 H   0  0  0  0  0  0  0  0  0  0  0  0
   12.3916   -1.4403    0.0000 H   0  0  0  0  0  0  0  0  0  0  0  0
   12.2679   -4.7928    0.0000 H   0  0  0  0  0  0  0  0  0  0  0  0
   12.9127   -5.2613    0.0000 H   0  0  0  0  0  0  0  0  0  0  0  0
   14.8825   -4.3843    0.0000 H   0  0  0  0  0  0  0  0  0  0  0  0
   14.9658   -3.5916    0.0000 H   0  0  0  0  0  0  0  0  0  0  0  0
    9.4081   -1.1267    0.0000 H   0  0  0  0  0  0  0  0  0  0  0  0
   13.6931   -5.3433    0.0000 H   0  0  0  0  0  0  0  0  0  0  0  0
   14.4213   -5.0191    0.0000 H   0  0  0  0  0  0  0  0  0  0  0  0
   11.6070   -0.4870    0.0000 H   0  0  0  0  0  0  0  0  0  0  0  0
   12.9794   -0.6313    0.0000 H   0  0  0  0  0  0  0  0  0  0  0  0
    9.5006   -2.8588    0.0000 H   0  0  0  0  0  0  0  0  0  0  0  0
   10.3192   -3.1731    0.0000 H   0  0  0  0  0  0  0  0  0  0  0  0
   10.6334   -2.3545    0.0000 H   0  0  0  0  0  0  0  0  0  0  0  0
    8.7305   -0.9720    0.0000 H   0  0  0  0  0  0  0  0  0  0  0  0
    8.0491   -1.5238    0.0000 H   0  0  0  0  0  0  0  0  0  0  0  0
    8.6009   -2.2052    0.0000 H   0  0  0  0  0  0  0  0  0  0  0  0
    7.8010   -1.8924    0.0000 H   0  0  0  0  0  0  0  0  0  0  0  0
   15.3155   -0.8576    0.0000 H   0  0  0  0  0  0  0  0  0  0  0  0
   15.1783    0.0084    0.0000 H   0  0  0  0  0  0  0  0  0  0  0  0
   14.3123   -0.1288    0.0000 H   0  0  0  0  0  0  0  0  0  0  0  0
    4.6453   -1.0478    0.0000 H   0  0  0  0  0  0  0  0  0  0  0  0
    7.8010   -3.5124    0.0000 H   0  0  0  0  0  0  0  0  0  0  0  0
    4.6453   -4.3570    0.0000 H   0  0  0  0  0  0  0  0  0  0  0  0
    3.1963   -1.8696    0.0000 H   0  0  0  0  0  0  0  0  0  0  0  0
    2.3079   -2.6918    0.0000 H   0  0  0  0  0  0  0  0  0  0  0  0
    1.4619   -2.9220    0.0000 H   0  0  0  0  0  0  0  0  0  0  0  0
    1.6921   -3.7680    0.0000 H   0  0  0  0  0  0  0  0  0  0  0  0
  1 17  1  0  0  0  0
  1 65  1  0  0  0  0
  2 17  2  0  0  0  0
 22  3  1  6  0  0  0
  3 38  1  0  0  0  0
  4 20  2  0  0  0  0
  5 24  2  0  0  0  0
  6 35  2  0  0  0  0
  7 40  2  0  0  0  0
  8 48  1  0  0  0  0
  8 49  1  0  0  0  0
  9 14  1  0  0  0  0
  9 20  1  0  0  0  0
  9 53  1  0  0  0  0
 10 19  1  0  0  0  0
 10 23  1  0  0  0  0
 10 24  1  0  0  0  0
 27 11  1  1  0  0  0
 11 35  1  0  0  0  0
 11 78  1  0  0  0  0
 30 12  1  1  0  0  0
 12 40  1  0  0  0  0
 12 79  1  0  0  0  0
 13 42  2  0  0  0  0
 13 45  1  0  0  0  0
 14 15  1  0  0  0  0
 14 16  1  0  0  0  0
 14 17  1  0  0  0  0
 15 16  1  0  0  0  0
 15 18  1  6  0  0  0
 15 50  1  0  0  0  0
 16 51  1  0  0  0  0
 16 52  1  0  0  0  0
 18 26  2  0  0  0  0
 18 54  1  0  0  0  0
 19 20  1  1  0  0  0
 19 21  1  0  0  0  0
 19 55  1  0  0  0  0
 21 22  1  0  0  0  0
 21 56  1  0  0  0  0
 21 57  1  0  0  0  0
 22 23  1  0  0  0  0
 22 58  1  0  0  0  0
 23 59  1  0  0  0  0
 23 60  1  0  0  0  0
 24 27  1  0  0  0  0
 25 28  1  0  0  0  0
 25 29  1  0  0  0  0
 25 30  1  0  0  0  0
 25 61  1  0  0  0  0
 26 62  1  0  0  0  0
 26 63  1  0  0  0  0
 27 33  1  0  0  0  0
 27 64  1  0  0  0  0
 28 31  1  0  0  0  0
 28 66  1  0  0  0  0
 28 67  1  0  0  0  0
 29 32  1  0  0  0  0
 29 68  1  0  0  0  0
 29 69  1  0  0  0  0
 30 35  1  0  0  0  0
 30 70  1  0  0  0  0
 31 34  1  0  0  0  0
 31 71  1  0  0  0  0
 31 72  1  0  0  0  0
 32 34  1  0  0  0  0
 32 73  1  0  0  0  0
 32 74  1  0  0  0  0
 33 36  1  0  0  0  0
 33 37  1  0  0  0  0
 33 75  1  0  0  0  0
 34 76  1  0  0  0  0
 34 77  1  0  0  0  0
 36 80  1  0  0  0  0
 36 81  1  0  0  0  0
 36 82  1  0  0  0  0
 37 83  1  0  0  0  0
 37 84  1  0  0  0  0
 37 85  1  0  0  0  0
 38 39  2  0  0  0  0
 38 41  1  0  0  0  0
 39 42  1  0  0  0  0
 39 44  1  0  0  0  0
 40 43  1  0  0  0  0
 41 45  2  0  0  0  0
 41 86  1  0  0  0  0
 42 46  1  0  0  0  0
 43 87  1  0  0  0  0
 43 88  1  0  0  0  0
 43 89  1  0  0  0  0
 44 47  2  0  0  0  0
 44 90  1  0  0  0  0
 45 91  1  0  0  0  0
 46 48  2  0  0  0  0
 46 92  1  0  0  0  0
 47 48  1  0  0  0  0
 47 93  1  0  0  0  0
 49 94  1  0  0  0  0
 49 95  1  0  0  0  0
 49 96  1  0  0  0  0
M  END
> <PUBCHEM_COMPOUND_CID>
504169
> <PUBCHEM_COMPOUND_CANONICALIZED>
1
> <PUBCHEM_CACTVS_COMPLEXITY>
1260
> <PUBCHEM_CACTVS_HBOND_ACCEPTOR>
9
> <PUBCHEM_CACTVS_HBOND_DONOR>
4
> <PUBCHEM_CACTVS_ROTATABLE_BOND>
13
> <PUBCHEM_CACTVS_SUBSKEYS>
AAADcfB/vAAAAAAAAAAAAAAAGAAAAWAAAAA8YIAAAAAAAACx8AAAHgAQCAAADbzhngY+zvPIFgCoAzX3XACCiCAxIiAI2KG+bJgOZvLEsbuXeCjm1hnY6Ae6+a+OIAAAAgACAABAAAAEAAQAAAAAAAAAAA==
> <PUBCHEM_IUPAC_OPENEYE_NAME>
(2S)-1-[[(2S,4R)-1-[(2S)-2-[[(2S)-2-acetamido-2-cyclohexyl-acetyl]amino]-3-methyl-butanoyl]-4-[(7-methoxy-4-quinolyl)oxy]pyrrolidine-2-carbonyl]amino]-2-vinyl-cyclopropanecarboxylic acid
> <PUBCHEM_IUPAC_CAS_NAME>
(2S)-1-[[[(2S,4R)-1-[(2S)-2-[[(2S)-2-acetamido-2-cyclohexyl-1-oxoethyl]amino]-3-methyl-1-oxobutyl]-4-[(7-methoxy-4-quinolinyl)oxy]-2-pyrrolidinyl]-oxomethyl]amino]-2-ethenyl-1-cyclopropanecarboxylic acid
> <PUBCHEM_IUPAC_NAME_MARKUP>
(2<I>S</I>)-1-[[(2<I>S</I>,4<I>R</I>)-1-[(2<I>S</I>)-2-[[(2<I>S</I>)-2-acetamido-2-cyclohexylacetyl]amino]-3-methylbutanoyl]-4-(7-methoxyquinolin-4-yl)oxypyrrolidine-2-carbonyl]amino]-2-ethenylcyclopropane-1-carboxylic acid
> <PUBCHEM_IUPAC_NAME>
(2S)-1-[[(2S,4R)-1-[(2S)-2-[[(2S)-2-acetamido-2-cyclohexylacetyl]amino]-3-methylbutanoyl]-4-(7-methoxyquinolin-4-yl)oxypyrrolidine-2-carbonyl]amino]-2-ethenylcyclopropane-1-carboxylic acid
> <PUBCHEM_IUPAC_SYSTEMATIC_NAME>
(2S)-1-[[(2S,4R)-1-[(2S)-2-[[(2S)-2-acetamido-2-cyclohexyl-ethanoyl]amino]-3-methyl-butanoyl]-4-(7-methoxyquinolin-4-yl)oxy-pyrrolidin-2-yl]carbonylamino]-2-ethenyl-cyclopropane-1-carboxylic acid
> <PUBCHEM_IUPAC_TRADITIONAL_NAME>
(2S)-1-[[(2S,4R)-1-[(2S)-2-[[(2S)-2-acetamido-2-cyclohexyl-acetyl]amino]-3-methyl-butanoyl]-4-[(7-methoxy-4-quinolyl)oxy]prolyl]amino]-2-vinyl-cyclopropanecarboxylic acid
> <PUBCHEM_IUPAC_INCHI>
InChI=1S/C36H47N5O8/c1-6-23-18-36(23,35(46)47)40-32(43)28-17-25(49-29-14-15-37-27-16-24(48-5)12-13-26(27)29)19-41(28)34(45)30(20(2)3)39-33(44)31(38-21(4)42)22-10-8-7-9-11-22/h6,12-16,20,22-23,25,28,30-31H,1,7-11,17-19H2,2-5H3,(H,38,42)(H,39,44)(H,40,43)(H,46,47)/t23-,25-,28+,30+,31+,36?/m1/s1
> <PUBCHEM_IUPAC_INCHIKEY>
VIPSTOFSCYQRRG-PYCXCUTISA-N
> <PUBCHEM_XLOGP3_AA>
4.1
> <PUBCHEM_EXACT_MASS>
677.34246347
> <PUBCHEM_MOLECULAR_FORMULA>
C36H47N5O8
> <PUBCHEM_MOLECULAR_WEIGHT>
677.8
> <PUBCHEM_OPENEYE_CAN_SMILES>
CC(C)C(C(=O)N1CC(CC1C(=O)NC2(CC2C=C)C(=O)O)OC3=C4C=CC(=CC4=NC=C3)OC)NC(=O)C(C5CCCCC5)NC(=O)C
> <PUBCHEM_OPENEYE_ISO_SMILES>
CC(C)[C@@H](C(=O)N1C[C@@H](C[C@H]1C(=O)NC2(C[C@H]2C=C)C(=O)O)OC3=C4C=CC(=CC4=NC=C3)OC)NC(=O)[C@H](C5CCCCC5)NC(=O)C
> <PUBCHEM_CACTVS_TPSA>
176
> <PUBCHEM_MONOISOTOPIC_WEIGHT>
677.34246347
> <PUBCHEM_TOTAL_CHARGE>
0
> <PUBCHEM_HEAVY_ATOM_COUNT>
49
> <PUBCHEM_ATOM_DEF_STEREO_COUNT>
5
> <PUBCHEM_ATOM_UDEF_STEREO_COUNT>
1
> <PUBCHEM_BOND_DEF_STEREO_COUNT>
0
> <PUBCHEM_BOND_UDEF_STEREO_COUNT>
0
> <PUBCHEM_ISOTOPIC_ATOM_COUNT>
0
> <PUBCHEM_COMPONENT_COUNT>
1
> <PUBCHEM_CACTVS_TAUTO_COUNT>
-1
> <PUBCHEM_COORDINATE_TYPE>
1
5
255
> <PUBCHEM_BONDANNOTATIONS>
27  11  5
30  12  5
13  42  8
13  45  8
14  17  3
15  18  6
19  20  5
22  3  6
38  39  8
38  41  8
39  42  8
39  44  8
41  45  8
42  46  8
44  47  8
46  48  8
47  48  8
$$$$
