504193
  -OEChem-10302200282D
102103  0     1  0  0  0  0  0999 V2000
    9.4651    3.2500    0.0000 O   0  0  0  0  0  0  0  0  0  0  0  0
   12.0632    0.7500    0.0000 O   0  0  0  0  0  0  0  0  0  0  0  0
   11.1972   -2.7500    0.0000 O   0  0  0  0  0  0  0  0  0  0  0  0
    6.8671    0.7500    0.0000 O   0  0  0  0  0  0  0  0  0  0  0  0
    6.0010    3.2500    0.0000 O   0  0  0  0  0  0  0  0  0  0  0  0
   14.6613   -3.7500    0.0000 O   0  0  0  0  0  0  0  0  0  0  0  0
    2.5369    2.2500    0.0000 O   0  0  0  0  0  0  0  0  0  0  0  0
    3.4030    0.7500    0.0000 O   0  0  0  0  0  0  0  0  0  0  0  0
   10.3312    0.7500    0.0000 N   0  0  0  0  0  0  0  0  0  0  0  0
    8.5991    1.7500    0.0000 N   0  0  0  0  0  0  0  0  0  0  0  0
   12.0632   -1.2500    0.0000 N   0  0  0  0  0  0  0  0  0  0  0  0
   13.7953   -2.2500    0.0000 N   0  0  0  0  0  0  0  0  0  0  0  0
    5.1350    1.7500    0.0000 N   0  0  0  0  0  0  0  0  0  0  0  0
   16.3933   -2.7500    0.0000 N   0  0  0  0  0  0  0  0  0  0  0  0
   16.3933   -0.7500    0.0000 N   0  0  0  0  0  0  0  0  0  0  0  0
   11.1972    3.2500    0.0000 C   0  0  0  0  0  0  0  0  0  0  0  0
   10.3312    3.7500    0.0000 C   0  0  0  0  0  0  0  0  0  0  0  0
   12.0632    3.7500    0.0000 C   0  0  0  0  0  0  0  0  0  0  0  0
   11.1972    2.2500    0.0000 C   0  0  0  0  0  0  0  0  0  0  0  0
   10.3312    4.7500    0.0000 C   0  0  0  0  0  0  0  0  0  0  0  0
   12.0632    4.7500    0.0000 C   0  0  0  0  0  0  0  0  0  0  0  0
   11.1972    5.2500    0.0000 C   0  0  0  0  0  0  0  0  0  0  0  0
   10.3312    1.7500    0.0000 C   0  0  1  0  0  0  0  0  0  0  0  0
    9.4651    2.2500    0.0000 C   0  0  0  0  0  0  0  0  0  0  0  0
   11.1972   -0.7500    0.0000 C   0  0  2  0  0  0  0  0  0  0  0  0
   11.1972    0.2500    0.0000 C   0  0  0  0  0  0  0  0  0  0  0  0
   10.3312   -1.2500    0.0000 C   0  0  2  0  0  0  0  0  0  0  0  0
    9.4651   -0.7500    0.0000 C   0  0  0  0  0  0  0  0  0  0  0  0
    7.7331    2.2500    0.0000 C   0  0  1  0  0  0  0  0  0  0  0  0
   10.3312   -2.2500    0.0000 C   0  0  0  0  0  0  0  0  0  0  0  0
   12.9292   -2.7500    0.0000 C   0  0  2  0  0  0  0  0  0  0  0  0
   12.0632   -2.2500    0.0000 C   0  0  0  0  0  0  0  0  0  0  0  0
    7.7331    3.2500    0.0000 C   0  0  0  0  0  0  0  0  0  0  0  0
   12.9292   -3.7500    0.0000 C   0  0  0  0  0  0  0  0  0  0  0  0
    8.5991   -1.2500    0.0000 C   0  0  0  0  0  0  0  0  0  0  0  0
   12.0632   -4.2500    0.0000 C   0  0  0  0  0  0  0  0  0  0  0  0
    6.8671    1.7500    0.0000 C   0  0  0  0  0  0  0  0  0  0  0  0
    6.8671    3.7500    0.0000 C   0  0  0  0  0  0  0  0  0  0  0  0
   12.0632   -5.2500    0.0000 C   0  0  0  0  0  0  0  0  0  0  0  0
   11.1972   -3.7500    0.0000 C   0  0  0  0  0  0  0  0  0  0  0  0
    6.0010    2.2500    0.0000 C   0  0  0  0  0  0  0  0  0  0  0  0
   14.6613   -2.7500    0.0000 C   0  0  0  0  0  0  0  0  0  0  0  0
    4.2690    2.2500    0.0000 C   0  0  2  0  0  0  0  0  0  0  0  0
   15.5273   -2.2500    0.0000 C   0  0  0  0  0  0  0  0  0  0  0  0
    4.2690    3.2500    0.0000 C   0  0  0  0  0  0  0  0  0  0  0  0
   15.5273   -1.2500    0.0000 C   0  0  0  0  0  0  0  0  0  0  0  0
    3.4030    1.7500    0.0000 C   0  0  0  0  0  0  0  0  0  0  0  0
   17.2594   -2.2500    0.0000 C   0  0  0  0  0  0  0  0  0  0  0  0
   17.2594   -1.2500    0.0000 C   0  0  0  0  0  0  0  0  0  0  0  0
   10.6603    2.9400    0.0000 H   0  0  0  0  0  0  0  0  0  0  0  0
    9.7206    3.8577    0.0000 H   0  0  0  0  0  0  0  0  0  0  0  0
   10.1191    3.1674    0.0000 H   0  0  0  0  0  0  0  0  0  0  0  0
   12.2753    3.1674    0.0000 H   0  0  0  0  0  0  0  0  0  0  0  0
   12.6738    3.8577    0.0000 H   0  0  0  0  0  0  0  0  0  0  0  0
   11.4092    1.6674    0.0000 H   0  0  0  0  0  0  0  0  0  0  0  0
   11.8078    2.3577    0.0000 H   0  0  0  0  0  0  0  0  0  0  0  0
   10.1191    5.3326    0.0000 H   0  0  0  0  0  0  0  0  0  0  0  0
    9.7206    4.6423    0.0000 H   0  0  0  0  0  0  0  0  0  0  0  0
   12.6738    4.6423    0.0000 H   0  0  0  0  0  0  0  0  0  0  0  0
   12.2753    5.3326    0.0000 H   0  0  0  0  0  0  0  0  0  0  0  0
   11.5957    5.7250    0.0000 H   0  0  0  0  0  0  0  0  0  0  0  0
   10.7987    5.7250    0.0000 H   0  0  0  0  0  0  0  0  0  0  0  0
   10.8681    1.4400    0.0000 H   0  0  0  0  0  0  0  0  0  0  0  0
    9.7942    0.4400    0.0000 H   0  0  0  0  0  0  0  0  0  0  0  0
   11.7341   -0.4400    0.0000 H   0  0  0  0  0  0  0  0  0  0  0  0
   10.8681   -1.5600    0.0000 H   0  0  0  0  0  0  0  0  0  0  0  0
    8.5991    1.1300    0.0000 H   0  0  0  0  0  0  0  0  0  0  0  0
    9.8637   -0.2751    0.0000 H   0  0  0  0  0  0  0  0  0  0  0  0
    9.0666   -0.2751    0.0000 H   0  0  0  0  0  0  0  0  0  0  0  0
   12.6002   -0.9400    0.0000 H   0  0  0  0  0  0  0  0  0  0  0  0
    7.7331    1.6300    0.0000 H   0  0  0  0  0  0  0  0  0  0  0  0
    9.7112   -2.2500    0.0000 H   0  0  0  0  0  0  0  0  0  0  0  0
   10.3312   -2.8700    0.0000 H   0  0  0  0  0  0  0  0  0  0  0  0
   10.9512   -2.2500    0.0000 H   0  0  0  0  0  0  0  0  0  0  0  0
   12.9292   -2.1300    0.0000 H   0  0  0  0  0  0  0  0  0  0  0  0
    8.3437    3.1423    0.0000 H   0  0  0  0  0  0  0  0  0  0  0  0
    7.9451    3.8326    0.0000 H   0  0  0  0  0  0  0  0  0  0  0  0
   13.1413   -4.3326    0.0000 H   0  0  0  0  0  0  0  0  0  0  0  0
   13.5398   -3.6423    0.0000 H   0  0  0  0  0  0  0  0  0  0  0  0
    8.2891   -0.7131    0.0000 H   0  0  0  0  0  0  0  0  0  0  0  0
    8.0622   -1.5600    0.0000 H   0  0  0  0  0  0  0  0  0  0  0  0
    8.9091   -1.7869    0.0000 H   0  0  0  0  0  0  0  0  0  0  0  0
   12.6002   -4.5600    0.0000 H   0  0  0  0  0  0  0  0  0  0  0  0
   13.7953   -1.6300    0.0000 H   0  0  0  0  0  0  0  0  0  0  0  0
    7.1771    4.2869    0.0000 H   0  0  0  0  0  0  0  0  0  0  0  0
    6.3301    4.0600    0.0000 H   0  0  0  0  0  0  0  0  0  0  0  0
    6.5571    3.2131    0.0000 H   0  0  0  0  0  0  0  0  0  0  0  0
   11.4432   -5.2500    0.0000 H   0  0  0  0  0  0  0  0  0  0  0  0
   12.0632   -5.8700    0.0000 H   0  0  0  0  0  0  0  0  0  0  0  0
   12.6832   -5.2500    0.0000 H   0  0  0  0  0  0  0  0  0  0  0  0
   11.5072   -3.2131    0.0000 H   0  0  0  0  0  0  0  0  0  0  0  0
   10.6603   -3.4400    0.0000 H   0  0  0  0  0  0  0  0  0  0  0  0
   10.8872   -4.2869    0.0000 H   0  0  0  0  0  0  0  0  0  0  0  0
    5.1350    1.1300    0.0000 H   0  0  0  0  0  0  0  0  0  0  0  0
    4.2690    1.6300    0.0000 H   0  0  0  0  0  0  0  0  0  0  0  0
    4.8890    3.2500    0.0000 H   0  0  0  0  0  0  0  0  0  0  0  0
    4.2690    3.8700    0.0000 H   0  0  0  0  0  0  0  0  0  0  0  0
    3.6490    3.2500    0.0000 H   0  0  0  0  0  0  0  0  0  0  0  0
   14.9904   -0.9400    0.0000 H   0  0  0  0  0  0  0  0  0  0  0  0
   17.7963   -2.5600    0.0000 H   0  0  0  0  0  0  0  0  0  0  0  0
   17.7963   -0.9400    0.0000 H   0  0  0  0  0  0  0  0  0  0  0  0
    2.0000    1.9400    0.0000 H   0  0  0  0  0  0  0  0  0  0  0  0
  1 24  2  0  0  0  0
  2 26  2  0  0  0  0
  3 32  2  0  0  0  0
  4 37  2  0  0  0  0
  5 41  2  0  0  0  0
  6 42  2  0  0  0  0
  7 47  1  0  0  0  0
  7102  1  0  0  0  0
  8 47  2  0  0  0  0
 23  9  1  6  0  0  0
  9 26  1  0  0  0  0
  9 64  1  0  0  0  0
 10 24  1  0  0  0  0
 29 10  1  6  0  0  0
 10 67  1  0  0  0  0
 25 11  1  1  0  0  0
 11 32  1  0  0  0  0
 11 70  1  0  0  0  0
 31 12  1  1  0  0  0
 12 42  1  0  0  0  0
 12 84  1  0  0  0  0
 13 41  1  0  0  0  0
 43 13  1  1  0  0  0
 13 94  1  0  0  0  0
 14 44  2  0  0  0  0
 14 48  1  0  0  0  0
 15 46  2  0  0  0  0
 15 49  1  0  0  0  0
 16 17  1  0  0  0  0
 16 18  1  0  0  0  0
 16 19  1  0  0  0  0
 16 50  1  0  0  0  0
 17 20  1  0  0  0  0
 17 51  1  0  0  0  0
 17 52  1  0  0  0  0
 18 21  1  0  0  0  0
 18 53  1  0  0  0  0
 18 54  1  0  0  0  0
 19 23  1  0  0  0  0
 19 55  1  0  0  0  0
 19 56  1  0  0  0  0
 20 22  1  0  0  0  0
 20 57  1  0  0  0  0
 20 58  1  0  0  0  0
 21 22  1  0  0  0  0
 21 59  1  0  0  0  0
 21 60  1  0  0  0  0
 22 61  1  0  0  0  0
 22 62  1  0  0  0  0
 23 24  1  0  0  0  0
 23 63  1  0  0  0  0
 25 26  1  0  0  0  0
 25 27  1  0  0  0  0
 25 65  1  0  0  0  0
 27 28  1  0  0  0  0
 27 30  1  1  0  0  0
 27 66  1  0  0  0  0
 28 35  1  0  0  0  0
 28 68  1  0  0  0  0
 28 69  1  0  0  0  0
 29 33  1  0  0  0  0
 29 37  1  0  0  0  0
 29 71  1  0  0  0  0
 30 72  1  0  0  0  0
 30 73  1  0  0  0  0
 30 74  1  0  0  0  0
 31 32  1  0  0  0  0
 31 34  1  0  0  0  0
 31 75  1  0  0  0  0
 33 38  1  0  0  0  0
 33 76  1  0  0  0  0
 33 77  1  0  0  0  0
 34 36  1  0  0  0  0
 34 78  1  0  0  0  0
 34 79  1  0  0  0  0
 35 80  1  0  0  0  0
 35 81  1  0  0  0  0
 35 82  1  0  0  0  0
 36 39  1  0  0  0  0
 36 40  1  0  0  0  0
 36 83  1  0  0  0  0
 37 41  1  0  0  0  0
 38 85  1  0  0  0  0
 38 86  1  0  0  0  0
 38 87  1  0  0  0  0
 39 88  1  0  0  0  0
 39 89  1  0  0  0  0
 39 90  1  0  0  0  0
 40 91  1  0  0  0  0
 40 92  1  0  0  0  0
 40 93  1  0  0  0  0
 42 44  1  0  0  0  0
 43 45  1  0  0  0  0
 43 47  1  0  0  0  0
 43 95  1  0  0  0  0
 44 46  1  0  0  0  0
 45 96  1  0  0  0  0
 45 97  1  0  0  0  0
 45 98  1  0  0  0  0
 46 99  1  0  0  0  0
 48 49  2  0  0  0  0
 48100  1  0  0  0  0
 49101  1  0  0  0  0
M  END
> <PUBCHEM_COMPOUND_CID>
504193
> <PUBCHEM_COMPOUND_CANONICALIZED>
1
> <PUBCHEM_CACTVS_COMPLEXITY>
1160
> <PUBCHEM_CACTVS_HBOND_ACCEPTOR>
10
> <PUBCHEM_CACTVS_HBOND_DONOR>
6
> <PUBCHEM_CACTVS_ROTATABLE_BOND>
19
> <PUBCHEM_CACTVS_SUBSKEYS>
AAADcfB/vAAAAAAAAAAAAAAAAAAAAAAAAAA8QAAAAAAAAAABgAAAHgAQCAAADSzBlgQuiBLIEgCoAZX3XACAgCQXEiAIUIG4dEACQFpAwCAUQIgAFgDQAMEYiICOAAAAAAAAAAAAAAAAAAAAAAAAAAAAAA==
> <PUBCHEM_IUPAC_OPENEYE_NAME>
(2R)-2-[[(3S)-3-[[(2S)-3-cyclohexyl-2-[[(2S,3S)-3-methyl-2-[[(2S)-4-methyl-2-(pyrazine-2-carbonylamino)pentanoyl]amino]pentanoyl]amino]propanoyl]amino]-2-oxo-pentanoyl]amino]propanoic acid
> <PUBCHEM_IUPAC_CAS_NAME>
(2R)-2-[[(3S)-3-[[(2S)-3-cyclohexyl-2-[[(2S,3S)-3-methyl-2-[[(2S)-4-methyl-1-oxo-2-[[oxo(2-pyrazinyl)methyl]amino]pentyl]amino]-1-oxopentyl]amino]-1-oxopropyl]amino]-1,2-dioxopentyl]amino]propanoic acid
> <PUBCHEM_IUPAC_NAME_MARKUP>
(2<I>R</I>)-2-[[(3<I>S</I>)-3-[[(2<I>S</I>)-3-cyclohexyl-2-[[(2<I>S</I>,3<I>S</I>)-3-methyl-2-[[(2<I>S</I>)-4-methyl-2-(pyrazine-2-carbonylamino)pentanoyl]amino]pentanoyl]amino]propanoyl]amino]-2-oxopentanoyl]amino]propanoic acid
> <PUBCHEM_IUPAC_NAME>
(2R)-2-[[(3S)-3-[[(2S)-3-cyclohexyl-2-[[(2S,3S)-3-methyl-2-[[(2S)-4-methyl-2-(pyrazine-2-carbonylamino)pentanoyl]amino]pentanoyl]amino]propanoyl]amino]-2-oxopentanoyl]amino]propanoic acid
> <PUBCHEM_IUPAC_SYSTEMATIC_NAME>
(2R)-2-[[(3S)-3-[[(2S)-3-cyclohexyl-2-[[(2S,3S)-3-methyl-2-[[(2S)-4-methyl-2-(pyrazin-2-ylcarbonylamino)pentanoyl]amino]pentanoyl]amino]propanoyl]amino]-2-oxidanylidene-pentanoyl]amino]propanoic acid
> <PUBCHEM_IUPAC_TRADITIONAL_NAME>
(2R)-2-[[(3S)-3-[[(2S)-3-cyclohexyl-2-[[(2S,3S)-3-methyl-2-[[(2S)-4-methyl-2-(pyrazinoylamino)pentanoyl]amino]pentanoyl]amino]propanoyl]amino]-2-keto-pentanoyl]amino]propionic acid
> <PUBCHEM_IUPAC_INCHI>
InChI=1S/C34H53N7O8/c1-7-20(5)27(41-30(44)24(16-19(3)4)39-31(45)26-18-35-14-15-36-26)32(46)40-25(17-22-12-10-9-11-13-22)29(43)38-23(8-2)28(42)33(47)37-21(6)34(48)49/h14-15,18-25,27H,7-13,16-17H2,1-6H3,(H,37,47)(H,38,43)(H,39,45)(H,40,46)(H,41,44)(H,48,49)/t20-,21+,23-,24-,25-,27-/m0/s1
> <PUBCHEM_IUPAC_INCHIKEY>
CNRGVYWCIDQFHH-HEPLQEIASA-N
> <PUBCHEM_XLOGP3_AA>
4.2
> <PUBCHEM_EXACT_MASS>
687.39556167
> <PUBCHEM_MOLECULAR_FORMULA>
C34H53N7O8
> <PUBCHEM_MOLECULAR_WEIGHT>
687.8
> <PUBCHEM_OPENEYE_CAN_SMILES>
CCC(C)C(C(=O)NC(CC1CCCCC1)C(=O)NC(CC)C(=O)C(=O)NC(C)C(=O)O)NC(=O)C(CC(C)C)NC(=O)C2=NC=CN=C2
> <PUBCHEM_OPENEYE_ISO_SMILES>
CC[C@H](C)[C@@H](C(=O)N[C@@H](CC1CCCCC1)C(=O)N[C@@H](CC)C(=O)C(=O)N[C@H](C)C(=O)O)NC(=O)[C@H](CC(C)C)NC(=O)C2=NC=CN=C2
> <PUBCHEM_CACTVS_TPSA>
226
> <PUBCHEM_MONOISOTOPIC_WEIGHT>
687.39556167
> <PUBCHEM_TOTAL_CHARGE>
0
> <PUBCHEM_HEAVY_ATOM_COUNT>
49
> <PUBCHEM_ATOM_DEF_STEREO_COUNT>
6
> <PUBCHEM_ATOM_UDEF_STEREO_COUNT>
0
> <PUBCHEM_BOND_DEF_STEREO_COUNT>
0
> <PUBCHEM_BOND_UDEF_STEREO_COUNT>
0
> <PUBCHEM_ISOTOPIC_ATOM_COUNT>
0
> <PUBCHEM_COMPONENT_COUNT>
1
> <PUBCHEM_CACTVS_TAUTO_COUNT>
-1
> <PUBCHEM_COORDINATE_TYPE>
1
5
255
> <PUBCHEM_BONDANNOTATIONS>
29  10  6
25  11  5
31  12  5
43  13  5
14  44  8
14  48  8
15  46  8
15  49  8
27  30  5
44  46  8
48  49  8
23  9  6
$$$$
