504161
  -OEChem-10302200282D
 32 33  0     1  0  0  0  0  0999 V2000
    2.1340   -1.0981    0.0000 Br  0  0  0  0  0  0  0  0  0  0  0  0
    3.5000   -0.7321    0.0000 S   0  0  0  0  0  0  0  0  0  0  0  0
    2.6340   -0.2321    0.0000 O   0  0  0  0  0  0  0  0  0  0  0  0
    4.3660   -1.2320    0.0000 O   0  0  0  0  0  0  0  0  0  0  0  0
    4.0000    0.1340    0.0000 N   0  0  0  0  0  0  0  0  0  0  0  0
    3.0000   -1.5981    0.0000 C   0  0  3  0  0  0  0  0  0  0  0  0
    2.1340   -2.0981    0.0000 C   0  0  0  0  0  0  0  0  0  0  0  0
    3.8660   -2.0981    0.0000 C   0  0  0  0  0  0  0  0  0  0  0  0
    2.1340   -3.0981    0.0000 C   0  0  0  0  0  0  0  0  0  0  0  0
    3.8660   -3.0981    0.0000 C   0  0  0  0  0  0  0  0  0  0  0  0
    3.5000    1.0000    0.0000 C   0  0  0  0  0  0  0  0  0  0  0  0
    3.0000   -3.5981    0.0000 C   0  0  0  0  0  0  0  0  0  0  0  0
    2.5000    1.0000    0.0000 C   0  0  0  0  0  0  0  0  0  0  0  0
    4.0000    1.8660    0.0000 C   0  0  0  0  0  0  0  0  0  0  0  0
    2.5000    2.7320    0.0000 C   0  0  0  0  0  0  0  0  0  0  0  0
    2.0000    1.8660    0.0000 C   0  0  0  0  0  0  0  0  0  0  0  0
    3.5000    2.7320    0.0000 C   0  0  0  0  0  0  0  0  0  0  0  0
    2.0000    3.5981    0.0000 C   0  0  0  0  0  0  0  0  0  0  0  0
    1.9219   -1.5155    0.0000 H   0  0  0  0  0  0  0  0  0  0  0  0
    1.5234   -2.2057    0.0000 H   0  0  0  0  0  0  0  0  0  0  0  0
    4.4030   -1.7881    0.0000 H   0  0  0  0  0  0  0  0  0  0  0  0
    4.6200    0.1340    0.0000 H   0  0  0  0  0  0  0  0  0  0  0  0
    1.5970   -3.4081    0.0000 H   0  0  0  0  0  0  0  0  0  0  0  0
    4.4030   -3.4081    0.0000 H   0  0  0  0  0  0  0  0  0  0  0  0
    3.0000   -4.2181    0.0000 H   0  0  0  0  0  0  0  0  0  0  0  0
    2.1900    0.4631    0.0000 H   0  0  0  0  0  0  0  0  0  0  0  0
    4.6200    1.8660    0.0000 H   0  0  0  0  0  0  0  0  0  0  0  0
    1.3800    1.8660    0.0000 H   0  0  0  0  0  0  0  0  0  0  0  0
    3.8100    3.2690    0.0000 H   0  0  0  0  0  0  0  0  0  0  0  0
    2.5369    3.9081    0.0000 H   0  0  0  0  0  0  0  0  0  0  0  0
    1.6900    4.1350    0.0000 H   0  0  0  0  0  0  0  0  0  0  0  0
    1.4631    3.2881    0.0000 H   0  0  0  0  0  0  0  0  0  0  0  0
  1  6  1  0  0  0  0
  2  3  2  0  0  0  0
  2  4  2  0  0  0  0
  2  5  1  0  0  0  0
  2  6  1  0  0  0  0
  5 11  1  0  0  0  0
  5 22  1  0  0  0  0
  6  7  1  0  0  0  0
  6  8  1  0  0  0  0
  7  9  1  0  0  0  0
  7 19  1  0  0  0  0
  7 20  1  0  0  0  0
  8 10  2  0  0  0  0
  8 21  1  0  0  0  0
  9 12  2  0  0  0  0
  9 23  1  0  0  0  0
 10 12  1  0  0  0  0
 10 24  1  0  0  0  0
 11 13  2  0  0  0  0
 11 14  1  0  0  0  0
 12 25  1  0  0  0  0
 13 16  1  0  0  0  0
 13 26  1  0  0  0  0
 14 17  2  0  0  0  0
 14 27  1  0  0  0  0
 15 16  2  0  0  0  0
 15 17  1  0  0  0  0
 15 18  1  0  0  0  0
 16 28  1  0  0  0  0
 17 29  1  0  0  0  0
 18 30  1  0  0  0  0
 18 31  1  0  0  0  0
 18 32  1  0  0  0  0
M  END
> <PUBCHEM_COMPOUND_CID>
504161
> <PUBCHEM_COMPOUND_CANONICALIZED>
1
> <PUBCHEM_CACTVS_COMPLEXITY>
444
> <PUBCHEM_CACTVS_HBOND_ACCEPTOR>
3
> <PUBCHEM_CACTVS_HBOND_DONOR>
1
> <PUBCHEM_CACTVS_ROTATABLE_BOND>
3
> <PUBCHEM_CACTVS_SUBSKEYS>
AAADccByMABAEAAAAAAAAAAAAAAAAAAAAAAwQAAAAAAAAAABAAAAHARQQAABjAiBWAAywIBAAAKAAiRCQHDCAAAgAgAIiAAAZKgIICKAkZGAIABgkAAIyAcQgAAOCAAAAAAAAAAQAAAAAAAAAAAAAAAAAA==
> <PUBCHEM_IUPAC_OPENEYE_NAME>
1-bromo-N-(p-tolyl)cyclohexa-2,4-diene-1-sulfonamide
> <PUBCHEM_IUPAC_CAS_NAME>
1-bromo-N-(4-methylphenyl)-1-cyclohexa-2,4-dienesulfonamide
> <PUBCHEM_IUPAC_NAME_MARKUP>
1-bromo-<I>N</I>-(4-methylphenyl)cyclohexa-2,4-diene-1-sulfonamide
> <PUBCHEM_IUPAC_NAME>
1-bromo-N-(4-methylphenyl)cyclohexa-2,4-diene-1-sulfonamide
> <PUBCHEM_IUPAC_SYSTEMATIC_NAME>
1-bromanyl-N-(4-methylphenyl)cyclohexa-2,4-diene-1-sulfonamide
> <PUBCHEM_IUPAC_TRADITIONAL_NAME>
1-bromo-N-(p-tolyl)cyclohexa-2,4-diene-1-sulfonamide
> <PUBCHEM_IUPAC_INCHI>
InChI=1S/C13H14BrNO2S/c1-11-5-7-12(8-6-11)15-18(16,17)13(14)9-3-2-4-10-13/h2-9,15H,10H2,1H3
> <PUBCHEM_IUPAC_INCHIKEY>
XULHRZSOSUXOLB-UHFFFAOYSA-N
> <PUBCHEM_XLOGP3_AA>
3.4
> <PUBCHEM_EXACT_MASS>
326.99286
> <PUBCHEM_MOLECULAR_FORMULA>
C13H14BrNO2S
> <PUBCHEM_MOLECULAR_WEIGHT>
328.23
> <PUBCHEM_OPENEYE_CAN_SMILES>
CC1=CC=C(C=C1)NS(=O)(=O)C2(CC=CC=C2)Br
> <PUBCHEM_OPENEYE_ISO_SMILES>
CC1=CC=C(C=C1)NS(=O)(=O)C2(CC=CC=C2)Br
> <PUBCHEM_CACTVS_TPSA>
54.6
> <PUBCHEM_MONOISOTOPIC_WEIGHT>
326.99286
> <PUBCHEM_TOTAL_CHARGE>
0
> <PUBCHEM_HEAVY_ATOM_COUNT>
18
> <PUBCHEM_ATOM_DEF_STEREO_COUNT>
0
> <PUBCHEM_ATOM_UDEF_STEREO_COUNT>
1
> <PUBCHEM_BOND_DEF_STEREO_COUNT>
0
> <PUBCHEM_BOND_UDEF_STEREO_COUNT>
0
> <PUBCHEM_ISOTOPIC_ATOM_COUNT>
0
> <PUBCHEM_COMPONENT_COUNT>
1
> <PUBCHEM_CACTVS_TAUTO_COUNT>
-1
> <PUBCHEM_COORDINATE_TYPE>
1
5
255
> <PUBCHEM_BONDANNOTATIONS>
6  1  3
11  13  8
11  14  8
13  16  8
14  17  8
15  16  8
15  17  8
$$$$
