504128
  -OEChem-10302200282D
 54 57  0     1  0  0  0  0  0999 V2000
    6.4560    0.5810    0.0000 O   0  0  0  0  0  0  0  0  0  0  0  0
    7.9014    0.2846    0.0000 O   0  0  0  0  0  0  0  0  0  0  0  0
    5.3033   -1.2154    0.0000 O   0  0  0  0  0  0  0  0  0  0  0  0
    7.5354    1.6507    0.0000 O   0  0  0  0  0  0  0  0  0  0  0  0
    3.9194   -1.6218    0.0000 O   0  0  0  0  0  0  0  0  0  0  0  0
    6.1694    2.2846    0.0000 O   0  0  0  0  0  0  0  0  0  0  0  0
    6.1694   -0.7154    0.0000 C   0  0  3  0  0  0  0  0  0  0  0  0
    7.0354   -0.2154    0.0000 C   0  0  1  0  0  0  0  0  0  0  0  0
    5.3033   -0.2154    0.0000 C   0  0  1  0  0  0  0  0  0  0  0  0
    7.9454   -0.7222    0.0000 C   0  0  0  0  0  0  0  0  0  0  0  0
    7.0354    0.7846    0.0000 C   0  0  2  0  0  0  0  0  0  0  0  0
    6.1533   -1.7569    0.0000 C   0  0  0  0  0  0  0  0  0  0  0  0
    6.0560   -0.1118    0.0000 C   0  0  0  0  0  0  0  0  0  0  0  0
    7.9534   -1.7638    0.0000 C   0  0  0  0  0  0  0  0  0  0  0  0
    5.3033    0.7846    0.0000 C   0  0  0  0  0  0  0  0  0  0  0  0
    7.0513   -2.2846    0.0000 C   0  0  0  0  0  0  0  0  0  0  0  0
    4.4094   -0.7500    0.0000 C   0  0  1  0  0  0  0  0  0  0  0  0
    6.1694    1.2846    0.0000 C   0  0  0  0  0  0  0  0  0  0  0  0
    8.9453   -0.7107    0.0000 C   0  0  0  0  0  0  0  0  0  0  0  0
    8.7040   -0.0706    0.0000 C   0  0  0  0  0  0  0  0  0  0  0  0
    3.5033   -0.2362    0.0000 C   0  0  0  0  0  0  0  0  0  0  0  0
    3.5033    0.8054    0.0000 C   0  0  2  0  0  0  0  0  0  0  0  0
    4.4094    1.3193    0.0000 C   0  0  0  0  0  0  0  0  0  0  0  0
    3.0067    1.6734    0.0000 C   0  0  0  0  0  0  0  0  0  0  0  0
    2.5033    0.8093    0.0000 C   0  0  0  0  0  0  0  0  0  0  0  0
    2.0000   -0.0548    0.0000 C   0  0  0  0  0  0  0  0  0  0  0  0
    5.5442   -1.6414    0.0000 H   0  0  0  0  0  0  0  0  0  0  0  0
    5.9353   -2.3373    0.0000 H   0  0  0  0  0  0  0  0  0  0  0  0
    5.6288    0.3376    0.0000 H   0  0  0  0  0  0  0  0  0  0  0  0
    5.5040   -0.3942    0.0000 H   0  0  0  0  0  0  0  0  0  0  0  0
    8.1670   -2.3459    0.0000 H   0  0  0  0  0  0  0  0  0  0  0  0
    8.5634   -1.6530    0.0000 H   0  0  0  0  0  0  0  0  0  0  0  0
    6.6504   -2.7575    0.0000 H   0  0  0  0  0  0  0  0  0  0  0  0
    7.4486   -2.7606    0.0000 H   0  0  0  0  0  0  0  0  0  0  0  0
    4.8537   -1.1825    0.0000 H   0  0  0  0  0  0  0  0  0  0  0  0
    8.9525   -1.3306    0.0000 H   0  0  0  0  0  0  0  0  0  0  0  0
    9.5653   -0.7035    0.0000 H   0  0  0  0  0  0  0  0  0  0  0  0
    8.9382   -0.0907    0.0000 H   0  0  0  0  0  0  0  0  0  0  0  0
    9.1079   -0.5409    0.0000 H   0  0  0  0  0  0  0  0  0  0  0  0
    9.1743    0.3334    0.0000 H   0  0  0  0  0  0  0  0  0  0  0  0
    8.3000    0.3997    0.0000 H   0  0  0  0  0  0  0  0  0  0  0  0
    2.8925   -0.1301    0.0000 H   0  0  0  0  0  0  0  0  0  0  0  0
    3.2943   -0.8199    0.0000 H   0  0  0  0  0  0  0  0  0  0  0  0
    7.9014    0.9046    0.0000 H   0  0  0  0  0  0  0  0  0  0  0  0
    4.4166    1.9392    0.0000 H   0  0  0  0  0  0  0  0  0  0  0  0
    4.9933   -1.7523    0.0000 H   0  0  0  0  0  0  0  0  0  0  0  0
    8.1554    1.6507    0.0000 H   0  0  0  0  0  0  0  0  0  0  0  0
    3.2995   -1.6290    0.0000 H   0  0  0  0  0  0  0  0  0  0  0  0
    3.5448    1.9813    0.0000 H   0  0  0  0  0  0  0  0  0  0  0  0
    2.6987    2.2115    0.0000 H   0  0  0  0  0  0  0  0  0  0  0  0
    2.4685    1.3655    0.0000 H   0  0  0  0  0  0  0  0  0  0  0  0
    2.1954    1.3474    0.0000 H   0  0  0  0  0  0  0  0  0  0  0  0
    1.3800   -0.0524    0.0000 H   0  0  0  0  0  0  0  0  0  0  0  0
    2.3079   -0.5929    0.0000 H   0  0  0  0  0  0  0  0  0  0  0  0
  1 11  1  0  0  0  0
  1 13  1  0  0  0  0
  8  2  1  6  0  0  0
  2 44  1  0  0  0  0
  9  3  1  6  0  0  0
  3 46  1  0  0  0  0
 11  4  1  6  0  0  0
  4 47  1  0  0  0  0
 17  5  1  6  0  0  0
  5 48  1  0  0  0  0
  6 18  2  0  0  0  0
  7  8  1  0  0  0  0
  7  9  1  0  0  0  0
  7 12  1  0  0  0  0
  7 13  1  0  0  0  0
  8 10  1  0  0  0  0
  8 11  1  0  0  0  0
  9 15  1  0  0  0  0
  9 17  1  0  0  0  0
 10 14  1  0  0  0  0
 10 19  1  0  0  0  0
 10 20  1  0  0  0  0
 11 18  1  0  0  0  0
 12 16  1  0  0  0  0
 12 27  1  0  0  0  0
 12 28  1  0  0  0  0
 13 29  1  0  0  0  0
 13 30  1  0  0  0  0
 14 16  1  0  0  0  0
 14 31  1  0  0  0  0
 14 32  1  0  0  0  0
 15 18  1  0  0  0  0
 15 23  2  0  0  0  0
 16 33  1  0  0  0  0
 16 34  1  0  0  0  0
 17 21  1  0  0  0  0
 17 35  1  0  0  0  0
 19 36  1  0  0  0  0
 19 37  1  0  0  0  0
 19 38  1  0  0  0  0
 20 39  1  0  0  0  0
 20 40  1  0  0  0  0
 20 41  1  0  0  0  0
 21 22  1  0  0  0  0
 21 42  1  0  0  0  0
 21 43  1  0  0  0  0
 22 23  1  0  0  0  0
 22 24  1  1  0  0  0
 22 25  1  0  0  0  0
 23 45  1  0  0  0  0
 24 49  1  0  0  0  0
 24 50  1  0  0  0  0
 24 51  1  0  0  0  0
 25 26  2  0  0  0  0
 25 52  1  0  0  0  0
 26 53  1  0  0  0  0
 26 54  1  0  0  0  0
M  END
> <PUBCHEM_COMPOUND_CID>
504128
> <PUBCHEM_COMPOUND_CANONICALIZED>
1
> <PUBCHEM_CACTVS_COMPLEXITY>
743
> <PUBCHEM_CACTVS_HBOND_ACCEPTOR>
6
> <PUBCHEM_CACTVS_HBOND_DONOR>
4
> <PUBCHEM_CACTVS_ROTATABLE_BOND>
1
> <PUBCHEM_CACTVS_SUBSKEYS>
AAADceB4OAAAAAAAAAAAAAAAAAAAASAAAAAwYIAABIAAAEjAAAAAGgAACAAADlSggAICCAAABgCIAqBSAAIAAAAgAAAICAFAAEgRFBYAAAQCUAAF4AAPEYPK7PzPgAAAAAAAAABCAAYQADCAAAAAAAAAAA==
> <PUBCHEM_IUPAC_OPENEYE_NAME>
(2S,3R,5R,9R,10R)-2,3,9,10-tetrahydroxy-5,11,11-trimethyl-5-vinyl-16-oxatetracyclo[7.5.2.01,10.02,7]hexadec-6-en-8-one
> <PUBCHEM_IUPAC_CAS_NAME>
(2S,3R,5R,9R,10R)-5-ethenyl-2,3,9,10-tetrahydroxy-5,11,11-trimethyl-16-oxatetracyclo[7.5.2.01,10.02,7]hexadec-6-en-8-one
> <PUBCHEM_IUPAC_NAME_MARKUP>
(2<I>S</I>,3<I>R</I>,5<I>R</I>,9<I>R</I>,10<I>R</I>)-5-ethenyl-2,3,9,10-tetrahydroxy-5,11,11-trimethyl-16-oxatetracyclo[7.5.2.0<SUP>1,10</SUP>.0<SUP>2,7</SUP>]hexadec-6-en-8-one
> <PUBCHEM_IUPAC_NAME>
(2S,3R,5R,9R,10R)-5-ethenyl-2,3,9,10-tetrahydroxy-5,11,11-trimethyl-16-oxatetracyclo[7.5.2.01,10.02,7]hexadec-6-en-8-one
> <PUBCHEM_IUPAC_SYSTEMATIC_NAME>
(2S,3R,5R,9R,10R)-5-ethenyl-5,11,11-trimethyl-2,3,9,10-tetrakis(oxidanyl)-16-oxatetracyclo[7.5.2.01,10.02,7]hexadec-6-en-8-one
> <PUBCHEM_IUPAC_TRADITIONAL_NAME>
(2S,3R,5R,9R,10R)-2,3,9,10-tetrahydroxy-5,11,11-trimethyl-5-vinyl-16-oxatetracyclo[7.5.2.01,10.02,7]hexadec-6-en-8-one
> <PUBCHEM_IUPAC_INCHI>
InChI=1S/C20H28O6/c1-5-16(4)9-12-14(22)19(24)20(25)15(2,3)7-6-8-17(20,11-26-19)18(12,23)13(21)10-16/h5,9,13,21,23-25H,1,6-8,10-11H2,2-4H3/t13-,16-,17?,18+,19+,20-/m1/s1
> <PUBCHEM_IUPAC_INCHIKEY>
FVYIOIBMUVNZMQ-MVXPOASXSA-N
> <PUBCHEM_XLOGP3_AA>
0.7
> <PUBCHEM_EXACT_MASS>
364.18858861
> <PUBCHEM_MOLECULAR_FORMULA>
C20H28O6
> <PUBCHEM_MOLECULAR_WEIGHT>
364.4
> <PUBCHEM_OPENEYE_CAN_SMILES>
CC1(CCCC23C1(C(C(=O)C4=CC(CC(C42O)O)(C)C=C)(OC3)O)O)C
> <PUBCHEM_OPENEYE_ISO_SMILES>
C[C@@]1(C[C@H]([C@]2(C(=C1)C(=O)[C@]3([C@@]4(C2(CCCC4(C)C)CO3)O)O)O)O)C=C
> <PUBCHEM_CACTVS_TPSA>
107
> <PUBCHEM_MONOISOTOPIC_WEIGHT>
364.18858861
> <PUBCHEM_TOTAL_CHARGE>
0
> <PUBCHEM_HEAVY_ATOM_COUNT>
26
> <PUBCHEM_ATOM_DEF_STEREO_COUNT>
5
> <PUBCHEM_ATOM_UDEF_STEREO_COUNT>
1
> <PUBCHEM_BOND_DEF_STEREO_COUNT>
0
> <PUBCHEM_BOND_UDEF_STEREO_COUNT>
0
> <PUBCHEM_ISOTOPIC_ATOM_COUNT>
0
> <PUBCHEM_COMPONENT_COUNT>
1
> <PUBCHEM_CACTVS_TAUTO_COUNT>
-1
> <PUBCHEM_COORDINATE_TYPE>
1
5
255
> <PUBCHEM_BONDANNOTATIONS>
8  2  6
22  24  5
9  3  6
11  4  6
17  5  6
7  12  3
$$$$
