504187
  -OEChem-10302200282D
104106  0     1  0  0  0  0  0999 V2000
    8.0622    3.2500    0.0000 O   0  0  0  0  0  0  0  0  0  0  0  0
   10.6603    0.7500    0.0000 O   0  0  0  0  0  0  0  0  0  0  0  0
    9.7942   -2.7500    0.0000 O   0  0  0  0  0  0  0  0  0  0  0  0
    5.4641    0.7500    0.0000 O   0  0  0  0  0  0  0  0  0  0  0  0
    2.0000    0.7500    0.0000 O   0  0  0  0  0  0  0  0  0  0  0  0
    4.5981    3.2500    0.0000 O   0  0  0  0  0  0  0  0  0  0  0  0
   13.2583   -3.7500    0.0000 O   0  0  0  0  0  0  0  0  0  0  0  0
    8.9282    0.7500    0.0000 N   0  0  0  0  0  0  0  0  0  0  0  0
    7.1962    1.7500    0.0000 N   0  0  0  0  0  0  0  0  0  0  0  0
   10.6603   -1.2500    0.0000 N   0  0  0  0  0  0  0  0  0  0  0  0
   12.3923   -2.2500    0.0000 N   0  0  0  0  0  0  0  0  0  0  0  0
    3.7320    1.7500    0.0000 N   0  0  0  0  0  0  0  0  0  0  0  0
   14.9904   -2.7500    0.0000 N   0  0  0  0  0  0  0  0  0  0  0  0
   14.9904   -0.7500    0.0000 N   0  0  0  0  0  0  0  0  0  0  0  0
    9.7942    3.2500    0.0000 C   0  0  0  0  0  0  0  0  0  0  0  0
    8.9282    3.7500    0.0000 C   0  0  0  0  0  0  0  0  0  0  0  0
   10.6603    3.7500    0.0000 C   0  0  0  0  0  0  0  0  0  0  0  0
    9.7942    2.2500    0.0000 C   0  0  0  0  0  0  0  0  0  0  0  0
    8.9282    4.7500    0.0000 C   0  0  0  0  0  0  0  0  0  0  0  0
   10.6603    4.7500    0.0000 C   0  0  0  0  0  0  0  0  0  0  0  0
    9.7942    5.2500    0.0000 C   0  0  0  0  0  0  0  0  0  0  0  0
    8.9282    1.7500    0.0000 C   0  0  1  0  0  0  0  0  0  0  0  0
    8.0622    2.2500    0.0000 C   0  0  0  0  0  0  0  0  0  0  0  0
    9.7942   -0.7500    0.0000 C   0  0  2  0  0  0  0  0  0  0  0  0
    9.7942    0.2500    0.0000 C   0  0  0  0  0  0  0  0  0  0  0  0
    8.9282   -1.2500    0.0000 C   0  0  2  0  0  0  0  0  0  0  0  0
    6.3301    2.2500    0.0000 C   0  0  1  0  0  0  0  0  0  0  0  0
    8.0622   -0.7500    0.0000 C   0  0  0  0  0  0  0  0  0  0  0  0
    8.9282   -2.2500    0.0000 C   0  0  0  0  0  0  0  0  0  0  0  0
    6.3301    3.2500    0.0000 C   0  0  0  0  0  0  0  0  0  0  0  0
   11.5263   -2.7500    0.0000 C   0  0  2  0  0  0  0  0  0  0  0  0
   10.6603   -2.2500    0.0000 C   0  0  0  0  0  0  0  0  0  0  0  0
   11.5263   -3.7500    0.0000 C   0  0  0  0  0  0  0  0  0  0  0  0
    5.4641    1.7500    0.0000 C   0  0  0  0  0  0  0  0  0  0  0  0
    7.1962   -1.2500    0.0000 C   0  0  0  0  0  0  0  0  0  0  0  0
   10.6603   -4.2500    0.0000 C   0  0  0  0  0  0  0  0  0  0  0  0
    5.4641    3.7500    0.0000 C   0  0  0  0  0  0  0  0  0  0  0  0
    4.5981    2.2500    0.0000 C   0  0  0  0  0  0  0  0  0  0  0  0
   10.6603   -5.2500    0.0000 C   0  0  0  0  0  0  0  0  0  0  0  0
    9.7942   -3.7500    0.0000 C   0  0  0  0  0  0  0  0  0  0  0  0
    2.8660    2.2500    0.0000 C   0  0  0  0  0  0  0  0  0  0  0  0
    3.7320    0.7500    0.0000 C   0  0  0  0  0  0  0  0  0  0  0  0
   13.2583   -2.7500    0.0000 C   0  0  0  0  0  0  0  0  0  0  0  0
    2.0000    1.7500    0.0000 C   0  0  0  0  0  0  0  0  0  0  0  0
    2.8660    0.2500    0.0000 C   0  0  0  0  0  0  0  0  0  0  0  0
   14.1244   -2.2500    0.0000 C   0  0  0  0  0  0  0  0  0  0  0  0
   14.1244   -1.2500    0.0000 C   0  0  0  0  0  0  0  0  0  0  0  0
   15.8564   -2.2500    0.0000 C   0  0  0  0  0  0  0  0  0  0  0  0
   15.8564   -1.2500    0.0000 C   0  0  0  0  0  0  0  0  0  0  0  0
    9.2573    2.9400    0.0000 H   0  0  0  0  0  0  0  0  0  0  0  0
    8.3176    3.8577    0.0000 H   0  0  0  0  0  0  0  0  0  0  0  0
    8.7162    3.1674    0.0000 H   0  0  0  0  0  0  0  0  0  0  0  0
   10.8723    3.1674    0.0000 H   0  0  0  0  0  0  0  0  0  0  0  0
   11.2708    3.8577    0.0000 H   0  0  0  0  0  0  0  0  0  0  0  0
   10.0063    1.6674    0.0000 H   0  0  0  0  0  0  0  0  0  0  0  0
   10.4048    2.3577    0.0000 H   0  0  0  0  0  0  0  0  0  0  0  0
    8.7162    5.3326    0.0000 H   0  0  0  0  0  0  0  0  0  0  0  0
    8.3176    4.6423    0.0000 H   0  0  0  0  0  0  0  0  0  0  0  0
   11.2708    4.6423    0.0000 H   0  0  0  0  0  0  0  0  0  0  0  0
   10.8723    5.3326    0.0000 H   0  0  0  0  0  0  0  0  0  0  0  0
   10.1928    5.7250    0.0000 H   0  0  0  0  0  0  0  0  0  0  0  0
    9.3957    5.7250    0.0000 H   0  0  0  0  0  0  0  0  0  0  0  0
    9.4651    1.4400    0.0000 H   0  0  0  0  0  0  0  0  0  0  0  0
    8.3913    0.4400    0.0000 H   0  0  0  0  0  0  0  0  0  0  0  0
   10.3312   -0.4400    0.0000 H   0  0  0  0  0  0  0  0  0  0  0  0
    9.4651   -1.5600    0.0000 H   0  0  0  0  0  0  0  0  0  0  0  0
    7.1962    1.1300    0.0000 H   0  0  0  0  0  0  0  0  0  0  0  0
    6.8671    2.5600    0.0000 H   0  0  0  0  0  0  0  0  0  0  0  0
    8.4607   -0.2751    0.0000 H   0  0  0  0  0  0  0  0  0  0  0  0
    7.6636   -0.2751    0.0000 H   0  0  0  0  0  0  0  0  0  0  0  0
   11.1972   -0.9400    0.0000 H   0  0  0  0  0  0  0  0  0  0  0  0
    8.3082   -2.2500    0.0000 H   0  0  0  0  0  0  0  0  0  0  0  0
    8.9282   -2.8700    0.0000 H   0  0  0  0  0  0  0  0  0  0  0  0
    9.5482   -2.2500    0.0000 H   0  0  0  0  0  0  0  0  0  0  0  0
    6.9407    3.1423    0.0000 H   0  0  0  0  0  0  0  0  0  0  0  0
    6.5422    3.8326    0.0000 H   0  0  0  0  0  0  0  0  0  0  0  0
   12.0632   -3.0600    0.0000 H   0  0  0  0  0  0  0  0  0  0  0  0
   11.7383   -4.3326    0.0000 H   0  0  0  0  0  0  0  0  0  0  0  0
   12.1369   -3.6423    0.0000 H   0  0  0  0  0  0  0  0  0  0  0  0
    6.8862   -0.7131    0.0000 H   0  0  0  0  0  0  0  0  0  0  0  0
    6.6592   -1.5600    0.0000 H   0  0  0  0  0  0  0  0  0  0  0  0
    7.5062   -1.7869    0.0000 H   0  0  0  0  0  0  0  0  0  0  0  0
   11.1972   -4.5600    0.0000 H   0  0  0  0  0  0  0  0  0  0  0  0
    5.7741    4.2869    0.0000 H   0  0  0  0  0  0  0  0  0  0  0  0
    4.9272    4.0600    0.0000 H   0  0  0  0  0  0  0  0  0  0  0  0
    5.1541    3.2131    0.0000 H   0  0  0  0  0  0  0  0  0  0  0  0
   12.3923   -1.6300    0.0000 H   0  0  0  0  0  0  0  0  0  0  0  0
   10.0403   -5.2500    0.0000 H   0  0  0  0  0  0  0  0  0  0  0  0
   10.6603   -5.8700    0.0000 H   0  0  0  0  0  0  0  0  0  0  0  0
   11.2803   -5.2500    0.0000 H   0  0  0  0  0  0  0  0  0  0  0  0
   10.1042   -3.2131    0.0000 H   0  0  0  0  0  0  0  0  0  0  0  0
    9.2573   -3.4400    0.0000 H   0  0  0  0  0  0  0  0  0  0  0  0
    9.4842   -4.2869    0.0000 H   0  0  0  0  0  0  0  0  0  0  0  0
    3.2646    2.7250    0.0000 H   0  0  0  0  0  0  0  0  0  0  0  0
    2.4675    2.7250    0.0000 H   0  0  0  0  0  0  0  0  0  0  0  0
    3.9441    0.1674    0.0000 H   0  0  0  0  0  0  0  0  0  0  0  0
    4.3426    0.8577    0.0000 H   0  0  0  0  0  0  0  0  0  0  0  0
    1.7880    2.3326    0.0000 H   0  0  0  0  0  0  0  0  0  0  0  0
    1.3894    1.6423    0.0000 H   0  0  0  0  0  0  0  0  0  0  0  0
    2.4675   -0.2249    0.0000 H   0  0  0  0  0  0  0  0  0  0  0  0
    3.2646   -0.2249    0.0000 H   0  0  0  0  0  0  0  0  0  0  0  0
   13.5874   -0.9400    0.0000 H   0  0  0  0  0  0  0  0  0  0  0  0
   16.3933   -2.5600    0.0000 H   0  0  0  0  0  0  0  0  0  0  0  0
   16.3933   -0.9400    0.0000 H   0  0  0  0  0  0  0  0  0  0  0  0
  1 23  2  0  0  0  0
  2 25  2  0  0  0  0
  3 32  2  0  0  0  0
  4 34  2  0  0  0  0
  5 44  1  0  0  0  0
  5 45  1  0  0  0  0
  6 38  2  0  0  0  0
  7 43  2  0  0  0  0
 22  8  1  6  0  0  0
  8 25  1  0  0  0  0
  8 64  1  0  0  0  0
  9 23  1  0  0  0  0
 27  9  1  6  0  0  0
  9 67  1  0  0  0  0
 24 10  1  1  0  0  0
 10 32  1  0  0  0  0
 10 71  1  0  0  0  0
 31 11  1  1  0  0  0
 11 43  1  0  0  0  0
 11 87  1  0  0  0  0
 12 38  1  0  0  0  0
 12 41  1  0  0  0  0
 12 42  1  0  0  0  0
 13 46  2  0  0  0  0
 13 48  1  0  0  0  0
 14 47  2  0  0  0  0
 14 49  1  0  0  0  0
 15 16  1  0  0  0  0
 15 17  1  0  0  0  0
 15 18  1  0  0  0  0
 15 50  1  0  0  0  0
 16 19  1  0  0  0  0
 16 51  1  0  0  0  0
 16 52  1  0  0  0  0
 17 20  1  0  0  0  0
 17 53  1  0  0  0  0
 17 54  1  0  0  0  0
 18 22  1  0  0  0  0
 18 55  1  0  0  0  0
 18 56  1  0  0  0  0
 19 21  1  0  0  0  0
 19 57  1  0  0  0  0
 19 58  1  0  0  0  0
 20 21  1  0  0  0  0
 20 59  1  0  0  0  0
 20 60  1  0  0  0  0
 21 61  1  0  0  0  0
 21 62  1  0  0  0  0
 22 23  1  0  0  0  0
 22 63  1  0  0  0  0
 24 25  1  0  0  0  0
 24 26  1  0  0  0  0
 24 65  1  0  0  0  0
 26 28  1  0  0  0  0
 26 29  1  1  0  0  0
 26 66  1  0  0  0  0
 27 30  1  0  0  0  0
 27 34  1  0  0  0  0
 27 68  1  0  0  0  0
 28 35  1  0  0  0  0
 28 69  1  0  0  0  0
 28 70  1  0  0  0  0
 29 72  1  0  0  0  0
 29 73  1  0  0  0  0
 29 74  1  0  0  0  0
 30 37  1  0  0  0  0
 30 75  1  0  0  0  0
 30 76  1  0  0  0  0
 31 32  1  0  0  0  0
 31 33  1  0  0  0  0
 31 77  1  0  0  0  0
 33 36  1  0  0  0  0
 33 78  1  0  0  0  0
 33 79  1  0  0  0  0
 34 38  1  0  0  0  0
 35 80  1  0  0  0  0
 35 81  1  0  0  0  0
 35 82  1  0  0  0  0
 36 39  1  0  0  0  0
 36 40  1  0  0  0  0
 36 83  1  0  0  0  0
 37 84  1  0  0  0  0
 37 85  1  0  0  0  0
 37 86  1  0  0  0  0
 39 88  1  0  0  0  0
 39 89  1  0  0  0  0
 39 90  1  0  0  0  0
 40 91  1  0  0  0  0
 40 92  1  0  0  0  0
 40 93  1  0  0  0  0
 41 44  1  0  0  0  0
 41 94  1  0  0  0  0
 41 95  1  0  0  0  0
 42 45  1  0  0  0  0
 42 96  1  0  0  0  0
 42 97  1  0  0  0  0
 43 46  1  0  0  0  0
 44 98  1  0  0  0  0
 44 99  1  0  0  0  0
 45100  1  0  0  0  0
 45101  1  0  0  0  0
 46 47  1  0  0  0  0
 47102  1  0  0  0  0
 48 49  2  0  0  0  0
 48103  1  0  0  0  0
 49104  1  0  0  0  0
M  END
> <PUBCHEM_COMPOUND_CID>
504187
> <PUBCHEM_COMPOUND_CANONICALIZED>
1
> <PUBCHEM_CACTVS_COMPLEXITY>
1120
> <PUBCHEM_CACTVS_HBOND_ACCEPTOR>
9
> <PUBCHEM_CACTVS_HBOND_DONOR>
4
> <PUBCHEM_CACTVS_ROTATABLE_BOND>
17
> <PUBCHEM_CACTVS_SUBSKEYS>
AAADcfB/uAAAAAAAAAAAAAAAAAAAAAAAAAA8WIAAAAAAAAABgAAAHgAQAAAADSzhlgYugBPIFACoAZV3VACAgCQXEiAIUIG4dEACQFpAwCAXAIgAFgDQAMEYiICOAAAAAAAAAAAAAAAAAAAAAAAAAAAAAA==
> <PUBCHEM_IUPAC_OPENEYE_NAME>
N-[(1S)-1-[[(1S,2S)-1-[[(1S)-1-(cyclohexylmethyl)-2-[[(1S)-1-ethyl-3-morpholino-2,3-dioxo-propyl]amino]-2-oxo-ethyl]carbamoyl]-2-methyl-butyl]carbamoyl]-3-methyl-butyl]pyrazine-2-carboxamide
> <PUBCHEM_IUPAC_CAS_NAME>
N-[(2S)-1-[[(2S,3S)-1-[[(2S)-3-cyclohexyl-1-[[(3S)-1-(4-morpholinyl)-1,2-dioxopentan-3-yl]amino]-1-oxopropan-2-yl]amino]-3-methyl-1-oxopentan-2-yl]amino]-4-methyl-1-oxopentan-2-yl]-2-pyrazinecarboxamide
> <PUBCHEM_IUPAC_NAME_MARKUP>
<I>N</I>-[(2<I>S</I>)-1-[[(2<I>S</I>,3<I>S</I>)-1-[[(2<I>S</I>)-3-cyclohexyl-1-[[(3<I>S</I>)-1-morpholin-4-yl-1,2-dioxopentan-3-yl]amino]-1-oxopropan-2-yl]amino]-3-methyl-1-oxopentan-2-yl]amino]-4-methyl-1-oxopentan-2-yl]pyrazine-2-carboxamide
> <PUBCHEM_IUPAC_NAME>
N-[(2S)-1-[[(2S,3S)-1-[[(2S)-3-cyclohexyl-1-[[(3S)-1-morpholin-4-yl-1,2-dioxopentan-3-yl]amino]-1-oxopropan-2-yl]amino]-3-methyl-1-oxopentan-2-yl]amino]-4-methyl-1-oxopentan-2-yl]pyrazine-2-carboxamide
> <PUBCHEM_IUPAC_SYSTEMATIC_NAME>
N-[(2S)-1-[[(2S,3S)-1-[[(2S)-3-cyclohexyl-1-[[(3S)-1-morpholin-4-yl-1,2-bis(oxidanylidene)pentan-3-yl]amino]-1-oxidanylidene-propan-2-yl]amino]-3-methyl-1-oxidanylidene-pentan-2-yl]amino]-4-methyl-1-oxidanylidene-pentan-2-yl]pyrazine-2-carboxamide
> <PUBCHEM_IUPAC_TRADITIONAL_NAME>
N-[(1S)-1-[[(1S,2S)-1-[[(1S)-1-(cyclohexylmethyl)-2-[[(1S)-1-ethyl-2,3-diketo-3-morpholino-propyl]amino]-2-keto-ethyl]carbamoyl]-2-methyl-butyl]carbamoyl]-3-methyl-butyl]pyrazinamide
> <PUBCHEM_IUPAC_INCHI>
InChI=1S/C35H55N7O7/c1-6-23(5)29(41-32(45)26(19-22(3)4)39-33(46)28-21-36-13-14-37-28)34(47)40-27(20-24-11-9-8-10-12-24)31(44)38-25(7-2)30(43)35(48)42-15-17-49-18-16-42/h13-14,21-27,29H,6-12,15-20H2,1-5H3,(H,38,44)(H,39,46)(H,40,47)(H,41,45)/t23-,25-,26-,27-,29-/m0/s1
> <PUBCHEM_IUPAC_INCHIKEY>
MJOSVPMNXBRLFF-YZXAOCOMSA-N
> <PUBCHEM_XLOGP3_AA>
4
> <PUBCHEM_EXACT_MASS>
685.41629712
> <PUBCHEM_MOLECULAR_FORMULA>
C35H55N7O7
> <PUBCHEM_MOLECULAR_WEIGHT>
685.9
> <PUBCHEM_OPENEYE_CAN_SMILES>
CCC(C)C(C(=O)NC(CC1CCCCC1)C(=O)NC(CC)C(=O)C(=O)N2CCOCC2)NC(=O)C(CC(C)C)NC(=O)C3=NC=CN=C3
> <PUBCHEM_OPENEYE_ISO_SMILES>
CC[C@H](C)[C@@H](C(=O)N[C@@H](CC1CCCCC1)C(=O)N[C@@H](CC)C(=O)C(=O)N2CCOCC2)NC(=O)[C@H](CC(C)C)NC(=O)C3=NC=CN=C3
> <PUBCHEM_CACTVS_TPSA>
189
> <PUBCHEM_MONOISOTOPIC_WEIGHT>
685.41629712
> <PUBCHEM_TOTAL_CHARGE>
0
> <PUBCHEM_HEAVY_ATOM_COUNT>
49
> <PUBCHEM_ATOM_DEF_STEREO_COUNT>
5
> <PUBCHEM_ATOM_UDEF_STEREO_COUNT>
0
> <PUBCHEM_BOND_DEF_STEREO_COUNT>
0
> <PUBCHEM_BOND_UDEF_STEREO_COUNT>
0
> <PUBCHEM_ISOTOPIC_ATOM_COUNT>
0
> <PUBCHEM_COMPONENT_COUNT>
1
> <PUBCHEM_CACTVS_TAUTO_COUNT>
-1
> <PUBCHEM_COORDINATE_TYPE>
1
5
255
> <PUBCHEM_BONDANNOTATIONS>
24  10  5
31  11  5
13  46  8
13  48  8
14  47  8
14  49  8
26  29  5
46  47  8
48  49  8
22  8  6
27  9  6
$$$$
