504167
  -OEChem-10302200282D
 74 78  0     1  0  0  0  0  0999 V2000
    6.3301   -0.3795    0.0000 O   0  0  0  0  0  0  0  0  0  0  0  0
    4.5981   -0.3795    0.0000 O   0  0  0  0  0  0  0  0  0  0  0  0
    4.5602    0.6515    0.0000 O   0  0  0  0  0  0  0  0  0  0  0  0
    6.3301   -2.3795    0.0000 O   0  0  0  0  0  0  0  0  0  0  0  0
    4.9555    3.0600    0.0000 O   0  0  0  0  0  0  0  0  0  0  0  0
    2.8660   -2.3795    0.0000 O   0  0  0  0  0  0  0  0  0  0  0  0
    4.5981   -3.3795    0.0000 O   0  0  0  0  0  0  0  0  0  0  0  0
    6.3772    3.6895    0.0000 O   0  0  0  0  0  0  0  0  0  0  0  0
    8.0788   -0.3651    0.0000 O   0  0  0  0  0  0  0  0  0  0  0  0
    9.8267   -0.4199    0.0000 O   0  0  0  0  0  0  0  0  0  0  0  0
    9.8738    3.6490    0.0000 O   0  0  0  0  0  0  0  0  0  0  0  0
   11.6633   -0.4842    0.0000 O   0  0  0  0  0  0  0  0  0  0  0  0
   13.5187    2.6180    0.0000 O   0  0  0  0  0  0  0  0  0  0  0  0
    6.3301    0.6205    0.0000 C   0  0  3  0  0  0  0  0  0  0  0  0
    5.4301    1.1448    0.0000 C   0  0  3  0  0  0  0  0  0  0  0  0
    5.4421    2.1864    0.0000 C   0  0  3  0  0  0  0  0  0  0  0  0
    5.4641   -0.8795    0.0000 C   0  0  2  0  0  0  0  0  0  0  0  0
    5.4641   -1.8795    0.0000 C   0  0  1  0  0  0  0  0  0  0  0  0
    4.5981   -2.3795    0.0000 C   0  0  1  0  0  0  0  0  0  0  0  0
    3.7320   -1.8795    0.0000 C   0  0  2  0  0  0  0  0  0  0  0  0
    7.2302    1.1448    0.0000 C   0  0  0  0  0  0  0  0  0  0  0  0
    3.7320   -0.8795    0.0000 C   0  0  2  0  0  0  0  0  0  0  0  0
    7.2418    2.1448    0.0000 C   0  0  0  0  0  0  0  0  0  0  0  0
    6.3541    2.6897    0.0000 C   0  0  0  0  0  0  0  0  0  0  0  0
    4.4422    2.2018    0.0000 C   0  0  0  0  0  0  0  0  0  0  0  0
    8.0904    0.6348    0.0000 C   0  0  0  0  0  0  0  0  0  0  0  0
    8.1135    2.6347    0.0000 C   0  0  0  0  0  0  0  0  0  0  0  0
    2.8660   -0.3795    0.0000 C   0  0  0  0  0  0  0  0  0  0  0  0
    8.9621    1.1248    0.0000 C   0  0  0  0  0  0  0  0  0  0  0  0
    8.9737    2.1247    0.0000 C   0  0  0  0  0  0  0  0  0  0  0  0
    9.8498    0.5798    0.0000 C   0  0  0  0  0  0  0  0  0  0  0  0
    9.8738    2.6490    0.0000 C   0  0  0  0  0  0  0  0  0  0  0  0
    3.6981    1.1582    0.0000 C   0  0  0  0  0  0  0  0  0  0  0  0
    6.3301   -3.3795    0.0000 C   0  0  0  0  0  0  0  0  0  0  0  0
   10.7618    1.0832    0.0000 C   0  0  0  0  0  0  0  0  0  0  0  0
   10.7738    2.1247    0.0000 C   0  0  0  0  0  0  0  0  0  0  0  0
    2.0000   -1.8795    0.0000 C   0  0  0  0  0  0  0  0  0  0  0  0
   11.6864    0.5155    0.0000 C   0  0  0  0  0  0  0  0  0  0  0  0
   11.7114    2.6708    0.0000 C   0  0  0  0  0  0  0  0  0  0  0  0
   12.6489    2.1247    0.0000 C   0  0  0  0  0  0  0  0  0  0  0  0
   12.6363    1.0398    0.0000 C   0  0  0  0  0  0  0  0  0  0  0  0
   14.3809    2.1114    0.0000 C   0  0  0  0  0  0  0  0  0  0  0  0
    6.8677    0.3116    0.0000 H   0  0  0  0  0  0  0  0  0  0  0  0
    4.8961    1.4600    0.0000 H   0  0  0  0  0  0  0  0  0  0  0  0
    5.4641   -0.2595    0.0000 H   0  0  0  0  0  0  0  0  0  0  0  0
    5.4641   -2.4995    0.0000 H   0  0  0  0  0  0  0  0  0  0  0  0
    4.0611   -2.6895    0.0000 H   0  0  0  0  0  0  0  0  0  0  0  0
    3.7320   -2.4995    0.0000 H   0  0  0  0  0  0  0  0  0  0  0  0
    3.7320   -0.2595    0.0000 H   0  0  0  0  0  0  0  0  0  0  0  0
    4.4518    2.8217    0.0000 H   0  0  0  0  0  0  0  0  0  0  0  0
    3.8223    2.2114    0.0000 H   0  0  0  0  0  0  0  0  0  0  0  0
    4.4327    1.5819    0.0000 H   0  0  0  0  0  0  0  0  0  0  0  0
    8.1207    3.2547    0.0000 H   0  0  0  0  0  0  0  0  0  0  0  0
    3.1760    0.1575    0.0000 H   0  0  0  0  0  0  0  0  0  0  0  0
    2.3291   -0.0695    0.0000 H   0  0  0  0  0  0  0  0  0  0  0  0
    2.5560   -0.9164    0.0000 H   0  0  0  0  0  0  0  0  0  0  0  0
    4.3356    3.0696    0.0000 H   0  0  0  0  0  0  0  0  0  0  0  0
    4.0611   -3.6895    0.0000 H   0  0  0  0  0  0  0  0  0  0  0  0
    4.0122    1.6927    0.0000 H   0  0  0  0  0  0  0  0  0  0  0  0
    3.1635    1.4723    0.0000 H   0  0  0  0  0  0  0  0  0  0  0  0
    3.3839    0.6237    0.0000 H   0  0  0  0  0  0  0  0  0  0  0  0
    5.7101   -3.3795    0.0000 H   0  0  0  0  0  0  0  0  0  0  0  0
    6.3301   -3.9995    0.0000 H   0  0  0  0  0  0  0  0  0  0  0  0
    6.9501   -3.3795    0.0000 H   0  0  0  0  0  0  0  0  0  0  0  0
    2.3100   -1.3425    0.0000 H   0  0  0  0  0  0  0  0  0  0  0  0
    1.4631   -1.5695    0.0000 H   0  0  0  0  0  0  0  0  0  0  0  0
    1.6900   -2.4164    0.0000 H   0  0  0  0  0  0  0  0  0  0  0  0
    8.6121   -0.6813    0.0000 H   0  0  0  0  0  0  0  0  0  0  0  0
   11.7114    3.2908    0.0000 H   0  0  0  0  0  0  0  0  0  0  0  0
   13.1684    0.7216    0.0000 H   0  0  0  0  0  0  0  0  0  0  0  0
   12.1929   -0.8065    0.0000 H   0  0  0  0  0  0  0  0  0  0  0  0
   14.0668    1.5768    0.0000 H   0  0  0  0  0  0  0  0  0  0  0  0
   14.9154    1.7972    0.0000 H   0  0  0  0  0  0  0  0  0  0  0  0
   14.6950    2.6459    0.0000 H   0  0  0  0  0  0  0  0  0  0  0  0
  1 14  1  0  0  0  0
 17  1  1  1  0  0  0
  2 17  1  0  0  0  0
  2 22  1  0  0  0  0
  3 15  1  0  0  0  0
  3 33  1  0  0  0  0
 18  4  1  6  0  0  0
  4 34  1  0  0  0  0
  5 16  1  0  0  0  0
  5 57  1  0  0  0  0
 20  6  1  1  0  0  0
  6 37  1  0  0  0  0
 19  7  1  6  0  0  0
  7 58  1  0  0  0  0
  8 24  2  0  0  0  0
  9 26  1  0  0  0  0
  9 68  1  0  0  0  0
 10 31  2  0  0  0  0
 11 32  2  0  0  0  0
 12 38  1  0  0  0  0
 12 71  1  0  0  0  0
 13 40  1  0  0  0  0
 13 42  1  0  0  0  0
 14 15  1  0  0  0  0
 14 21  1  0  0  0  0
 14 43  1  0  0  0  0
 15 16  1  0  0  0  0
 15 44  1  0  0  0  0
 16 24  1  0  0  0  0
 16 25  1  0  0  0  0
 17 18  1  0  0  0  0
 17 45  1  0  0  0  0
 18 19  1  0  0  0  0
 18 46  1  0  0  0  0
 19 20  1  0  0  0  0
 19 47  1  0  0  0  0
 20 22  1  0  0  0  0
 20 48  1  0  0  0  0
 21 23  1  0  0  0  0
 21 26  2  0  0  0  0
 22 28  1  6  0  0  0
 22 49  1  0  0  0  0
 23 24  1  0  0  0  0
 23 27  2  0  0  0  0
 25 50  1  0  0  0  0
 25 51  1  0  0  0  0
 25 52  1  0  0  0  0
 26 29  1  0  0  0  0
 27 30  1  0  0  0  0
 27 53  1  0  0  0  0
 28 54  1  0  0  0  0
 28 55  1  0  0  0  0
 28 56  1  0  0  0  0
 29 30  2  0  0  0  0
 29 31  1  0  0  0  0
 30 32  1  0  0  0  0
 31 35  1  0  0  0  0
 32 36  1  0  0  0  0
 33 59  1  0  0  0  0
 33 60  1  0  0  0  0
 33 61  1  0  0  0  0
 34 62  1  0  0  0  0
 34 63  1  0  0  0  0
 34 64  1  0  0  0  0
 35 36  2  0  0  0  0
 35 38  1  0  0  0  0
 36 39  1  0  0  0  0
 37 65  1  0  0  0  0
 37 66  1  0  0  0  0
 37 67  1  0  0  0  0
 38 41  2  0  0  0  0
 39 40  2  0  0  0  0
 39 69  1  0  0  0  0
 40 41  1  0  0  0  0
 41 70  1  0  0  0  0
 42 72  1  0  0  0  0
 42 73  1  0  0  0  0
 42 74  1  0  0  0  0
M  END
> <PUBCHEM_COMPOUND_CID>
504167
> <PUBCHEM_COMPOUND_CANONICALIZED>
1
> <PUBCHEM_CACTVS_COMPLEXITY>
1050
> <PUBCHEM_CACTVS_HBOND_ACCEPTOR>
13
> <PUBCHEM_CACTVS_HBOND_DONOR>
4
> <PUBCHEM_CACTVS_ROTATABLE_BOND>
6
> <PUBCHEM_CACTVS_SUBSKEYS>
AAADcfB4PAAAAAAAAAAAAAAAAAAAAAAAAAA0YMGCAAAAAADBQAAAGgAACAAADFSwmAMyDoAABgCIAqBSAAICCAAkIAAAiAFGCMgdNzaGNRqicWAl4BUPuYfL7vzu4AADCAAYAADAAAYQADCAAAAAAAAAAA==
> <PUBCHEM_IUPAC_OPENEYE_NAME>
2,5,7-trihydroxy-4-[(2S,3R,4R,5R,6S)-4-hydroxy-3,5-dimethoxy-6-methyl-tetrahydropyran-2-yl]oxy-3,9-dimethoxy-2-methyl-3,4-dihydrotetracene-1,6,11-trione
> <PUBCHEM_IUPAC_CAS_NAME>
2,5,7-trihydroxy-4-[[(2S,3R,4R,5R,6S)-4-hydroxy-3,5-dimethoxy-6-methyl-2-oxanyl]oxy]-3,9-dimethoxy-2-methyl-3,4-dihydrotetracene-1,6,11-trione
> <PUBCHEM_IUPAC_NAME_MARKUP>
2,5,7-trihydroxy-4-[(2<I>S</I>,3<I>R</I>,4<I>R</I>,5<I>R</I>,6<I>S</I>)-4-hydroxy-3,5-dimethoxy-6-methyloxan-2-yl]oxy-3,9-dimethoxy-2-methyl-3,4-dihydrotetracene-1,6,11-trione
> <PUBCHEM_IUPAC_NAME>
2,5,7-trihydroxy-4-[(2S,3R,4R,5R,6S)-4-hydroxy-3,5-dimethoxy-6-methyloxan-2-yl]oxy-3,9-dimethoxy-2-methyl-3,4-dihydrotetracene-1,6,11-trione
> <PUBCHEM_IUPAC_SYSTEMATIC_NAME>
4-[(2S,3R,4R,5R,6S)-3,5-dimethoxy-6-methyl-4-oxidanyl-oxan-2-yl]oxy-3,9-dimethoxy-2-methyl-2,5,7-tris(oxidanyl)-3,4-dihydrotetracene-1,6,11-trione
> <PUBCHEM_IUPAC_TRADITIONAL_NAME>
2,5,7-trihydroxy-4-[(2S,3R,4R,5R,6S)-4-hydroxy-3,5-dimethoxy-6-methyl-tetrahydropyran-2-yl]oxy-3,9-dimethoxy-2-methyl-3,4-dihydrotetracene-1,6,11-trione
> <PUBCHEM_IUPAC_INCHI>
InChI=1S/C29H32O13/c1-10-23(38-4)22(34)25(39-5)28(41-10)42-24-18-14(26(35)29(2,36)27(24)40-6)9-13-17(21(18)33)20(32)16-12(19(13)31)7-11(37-3)8-15(16)30/h7-10,22-25,27-28,30,33-34,36H,1-6H3/t10-,22+,23-,24?,25+,27?,28-,29?/m0/s1
> <PUBCHEM_IUPAC_INCHIKEY>
VHJWDTPKSIFZBV-NIVUTRQNSA-N
> <PUBCHEM_XLOGP3_AA>
0.8
> <PUBCHEM_EXACT_MASS>
588.18429107
> <PUBCHEM_MOLECULAR_FORMULA>
C29H32O13
> <PUBCHEM_MOLECULAR_WEIGHT>
588.6
> <PUBCHEM_OPENEYE_CAN_SMILES>
CC1C(C(C(C(O1)OC2C(C(C(=O)C3=CC4=C(C(=C23)O)C(=O)C5=C(C4=O)C=C(C=C5O)OC)(C)O)OC)OC)O)OC
> <PUBCHEM_OPENEYE_ISO_SMILES>
C[C@H]1[C@@H]([C@H]([C@H]([C@@H](O1)OC2C(C(C(=O)C3=CC4=C(C(=C23)O)C(=O)C5=C(C4=O)C=C(C=C5O)OC)(C)O)OC)OC)O)OC
> <PUBCHEM_CACTVS_TPSA>
188
> <PUBCHEM_MONOISOTOPIC_WEIGHT>
588.18429107
> <PUBCHEM_TOTAL_CHARGE>
0
> <PUBCHEM_HEAVY_ATOM_COUNT>
42
> <PUBCHEM_ATOM_DEF_STEREO_COUNT>
5
> <PUBCHEM_ATOM_UDEF_STEREO_COUNT>
3
> <PUBCHEM_BOND_DEF_STEREO_COUNT>
0
> <PUBCHEM_BOND_UDEF_STEREO_COUNT>
0
> <PUBCHEM_ISOTOPIC_ATOM_COUNT>
0
> <PUBCHEM_COMPONENT_COUNT>
1
> <PUBCHEM_CACTVS_TAUTO_COUNT>
24
> <PUBCHEM_COORDINATE_TYPE>
1
5
255
> <PUBCHEM_BONDANNOTATIONS>
14  1  3
17  1  5
21  23  8
21  26  8
22  28  6
23  27  8
26  29  8
27  30  8
29  30  8
15  3  3
35  36  8
35  38  8
36  39  8
38  41  8
39  40  8
18  4  6
40  41  8
16  5  3
20  6  5
19  7  6
$$$$
