504127
  -OEChem-10302200282D
 56 59  0     1  0  0  0  0  0999 V2000
    6.4560    0.4260    0.0000 O   0  0  0  0  0  0  0  0  0  0  0  0
    7.9014    0.1296    0.0000 O   0  0  0  0  0  0  0  0  0  0  0  0
    5.3033   -1.3704    0.0000 O   0  0  0  0  0  0  0  0  0  0  0  0
    7.5354    1.4957    0.0000 O   0  0  0  0  0  0  0  0  0  0  0  0
    6.1694    2.1296    0.0000 O   0  0  0  0  0  0  0  0  0  0  0  0
    3.9194   -1.7768    0.0000 O   0  0  0  0  0  0  0  0  0  0  0  0
    6.1694   -0.8704    0.0000 C   0  0  3  0  0  0  0  0  0  0  0  0
    7.0354   -0.3704    0.0000 C   0  0  2  0  0  0  0  0  0  0  0  0
    5.3033   -0.3704    0.0000 C   0  0  1  0  0  0  0  0  0  0  0  0
    7.0354    0.6296    0.0000 C   0  0  2  0  0  0  0  0  0  0  0  0
    7.9454   -0.8772    0.0000 C   0  0  0  0  0  0  0  0  0  0  0  0
    6.1533   -1.9119    0.0000 C   0  0  0  0  0  0  0  0  0  0  0  0
    6.0560   -0.2668    0.0000 C   0  0  0  0  0  0  0  0  0  0  0  0
    6.1694    1.1296    0.0000 C   0  0  3  0  0  0  0  0  0  0  0  0
    5.3033    0.6296    0.0000 C   0  0  0  0  0  0  0  0  0  0  0  0
    7.9534   -1.9188    0.0000 C   0  0  0  0  0  0  0  0  0  0  0  0
    7.0513   -2.4396    0.0000 C   0  0  0  0  0  0  0  0  0  0  0  0
    4.4094   -0.9050    0.0000 C   0  0  1  0  0  0  0  0  0  0  0  0
    8.9453   -0.8657    0.0000 C   0  0  0  0  0  0  0  0  0  0  0  0
    8.7040   -0.2256    0.0000 C   0  0  0  0  0  0  0  0  0  0  0  0
    3.5033   -0.3912    0.0000 C   0  0  0  0  0  0  0  0  0  0  0  0
    3.5033    0.6504    0.0000 C   0  0  2  0  0  0  0  0  0  0  0  0
    4.4094    1.1643    0.0000 C   0  0  0  0  0  0  0  0  0  0  0  0
    3.0067    1.5184    0.0000 C   0  0  0  0  0  0  0  0  0  0  0  0
    2.5033    0.6543    0.0000 C   0  0  0  0  0  0  0  0  0  0  0  0
    2.0000   -0.2098    0.0000 C   0  0  0  0  0  0  0  0  0  0  0  0
    5.5442   -1.7964    0.0000 H   0  0  0  0  0  0  0  0  0  0  0  0
    5.9353   -2.4923    0.0000 H   0  0  0  0  0  0  0  0  0  0  0  0
    5.6288    0.1826    0.0000 H   0  0  0  0  0  0  0  0  0  0  0  0
    5.5040   -0.5492    0.0000 H   0  0  0  0  0  0  0  0  0  0  0  0
    6.7063    1.4396    0.0000 H   0  0  0  0  0  0  0  0  0  0  0  0
    8.1670   -2.5009    0.0000 H   0  0  0  0  0  0  0  0  0  0  0  0
    8.5634   -1.8080    0.0000 H   0  0  0  0  0  0  0  0  0  0  0  0
    6.6504   -2.9125    0.0000 H   0  0  0  0  0  0  0  0  0  0  0  0
    7.4486   -2.9156    0.0000 H   0  0  0  0  0  0  0  0  0  0  0  0
    4.8537   -1.3375    0.0000 H   0  0  0  0  0  0  0  0  0  0  0  0
    8.9525   -1.4856    0.0000 H   0  0  0  0  0  0  0  0  0  0  0  0
    9.5653   -0.8585    0.0000 H   0  0  0  0  0  0  0  0  0  0  0  0
    8.9382   -0.2457    0.0000 H   0  0  0  0  0  0  0  0  0  0  0  0
    9.1079   -0.6959    0.0000 H   0  0  0  0  0  0  0  0  0  0  0  0
    9.1743    0.1784    0.0000 H   0  0  0  0  0  0  0  0  0  0  0  0
    8.3000    0.2447    0.0000 H   0  0  0  0  0  0  0  0  0  0  0  0
    2.8925   -0.2851    0.0000 H   0  0  0  0  0  0  0  0  0  0  0  0
    3.2943   -0.9749    0.0000 H   0  0  0  0  0  0  0  0  0  0  0  0
    7.9014    0.7496    0.0000 H   0  0  0  0  0  0  0  0  0  0  0  0
    4.4166    1.7842    0.0000 H   0  0  0  0  0  0  0  0  0  0  0  0
    4.9933   -1.9073    0.0000 H   0  0  0  0  0  0  0  0  0  0  0  0
    8.1554    1.4957    0.0000 H   0  0  0  0  0  0  0  0  0  0  0  0
    5.6324    2.4396    0.0000 H   0  0  0  0  0  0  0  0  0  0  0  0
    3.2995   -1.7840    0.0000 H   0  0  0  0  0  0  0  0  0  0  0  0
    3.5448    1.8263    0.0000 H   0  0  0  0  0  0  0  0  0  0  0  0
    2.6987    2.0565    0.0000 H   0  0  0  0  0  0  0  0  0  0  0  0
    2.4685    1.2105    0.0000 H   0  0  0  0  0  0  0  0  0  0  0  0
    2.1954    1.1924    0.0000 H   0  0  0  0  0  0  0  0  0  0  0  0
    1.3800   -0.2074    0.0000 H   0  0  0  0  0  0  0  0  0  0  0  0
    2.3079   -0.7479    0.0000 H   0  0  0  0  0  0  0  0  0  0  0  0
  1 10  1  0  0  0  0
  1 13  1  0  0  0  0
  8  2  1  6  0  0  0
  2 45  1  0  0  0  0
  9  3  1  6  0  0  0
  3 47  1  0  0  0  0
 10  4  1  6  0  0  0
  4 48  1  0  0  0  0
  5 14  1  0  0  0  0
  5 49  1  0  0  0  0
 18  6  1  6  0  0  0
  6 50  1  0  0  0  0
  7  8  1  0  0  0  0
  7  9  1  0  0  0  0
  7 12  1  0  0  0  0
  7 13  1  0  0  0  0
  8 10  1  0  0  0  0
  8 11  1  0  0  0  0
  9 15  1  0  0  0  0
  9 18  1  0  0  0  0
 10 14  1  0  0  0  0
 11 16  1  0  0  0  0
 11 19  1  0  0  0  0
 11 20  1  0  0  0  0
 12 17  1  0  0  0  0
 12 27  1  0  0  0  0
 12 28  1  0  0  0  0
 13 29  1  0  0  0  0
 13 30  1  0  0  0  0
 14 15  1  0  0  0  0
 14 31  1  0  0  0  0
 15 23  2  0  0  0  0
 16 17  1  0  0  0  0
 16 32  1  0  0  0  0
 16 33  1  0  0  0  0
 17 34  1  0  0  0  0
 17 35  1  0  0  0  0
 18 21  1  0  0  0  0
 18 36  1  0  0  0  0
 19 37  1  0  0  0  0
 19 38  1  0  0  0  0
 19 39  1  0  0  0  0
 20 40  1  0  0  0  0
 20 41  1  0  0  0  0
 20 42  1  0  0  0  0
 21 22  1  0  0  0  0
 21 43  1  0  0  0  0
 21 44  1  0  0  0  0
 22 23  1  0  0  0  0
 22 24  1  1  0  0  0
 22 25  1  0  0  0  0
 23 46  1  0  0  0  0
 24 51  1  0  0  0  0
 24 52  1  0  0  0  0
 24 53  1  0  0  0  0
 25 26  2  0  0  0  0
 25 54  1  0  0  0  0
 26 55  1  0  0  0  0
 26 56  1  0  0  0  0
M  END
> <PUBCHEM_COMPOUND_CID>
504127
> <PUBCHEM_COMPOUND_CANONICALIZED>
1
> <PUBCHEM_CACTVS_COMPLEXITY>
702
> <PUBCHEM_CACTVS_HBOND_ACCEPTOR>
6
> <PUBCHEM_CACTVS_HBOND_DONOR>
5
> <PUBCHEM_CACTVS_ROTATABLE_BOND>
1
> <PUBCHEM_CACTVS_SUBSKEYS>
AAADceB4OAAAAAAAAAAAAAAAAAAAASAAAAAwYIAABIAAAEjAAAAAGgAACAAADlSggAICCAAABgCAAiBCAAAAAAAgAAAICAAAAAgRFAIAAQACUAAFwAAPEAPA4PwPgAAAAAAAAABCAAYQADCAAAAAAAAAAA==
> <PUBCHEM_IUPAC_OPENEYE_NAME>
(2R,3R,5R,9S,10R)-5,11,11-trimethyl-5-vinyl-16-oxatetracyclo[7.5.2.01,10.02,7]hexadec-6-ene-2,3,8,9,10-pentol
> <PUBCHEM_IUPAC_CAS_NAME>
(2R,3R,5R,9S,10R)-5-ethenyl-5,11,11-trimethyl-16-oxatetracyclo[7.5.2.01,10.02,7]hexadec-6-ene-2,3,8,9,10-pentol
> <PUBCHEM_IUPAC_NAME_MARKUP>
(2<I>R</I>,3<I>R</I>,5<I>R</I>,9<I>S</I>,10<I>R</I>)-5-ethenyl-5,11,11-trimethyl-16-oxatetracyclo[7.5.2.0<SUP>1,10</SUP>.0<SUP>2,7</SUP>]hexadec-6-ene-2,3,8,9,10-pentol
> <PUBCHEM_IUPAC_NAME>
(2R,3R,5R,9S,10R)-5-ethenyl-5,11,11-trimethyl-16-oxatetracyclo[7.5.2.01,10.02,7]hexadec-6-ene-2,3,8,9,10-pentol
> <PUBCHEM_IUPAC_SYSTEMATIC_NAME>
(2R,3R,5R,9S,10R)-5-ethenyl-5,11,11-trimethyl-16-oxatetracyclo[7.5.2.01,10.02,7]hexadec-6-ene-2,3,8,9,10-pentol
> <PUBCHEM_IUPAC_TRADITIONAL_NAME>
(2R,3R,5R,9S,10R)-5,11,11-trimethyl-5-vinyl-16-oxatetracyclo[7.5.2.01,10.02,7]hexadec-6-ene-2,3,8,9,10-pentol
> <PUBCHEM_IUPAC_INCHI>
InChI=1S/C20H30O6/c1-5-16(4)9-12-14(22)19(24)20(25)15(2,3)7-6-8-17(20,11-26-19)18(12,23)13(21)10-16/h5,9,13-14,21-25H,1,6-8,10-11H2,2-4H3/t13-,14?,16-,17?,18+,19+,20-/m1/s1
> <PUBCHEM_IUPAC_INCHIKEY>
NKAJJQQELXJQCL-KFOOOSROSA-N
> <PUBCHEM_XLOGP3_AA>
-0.1
> <PUBCHEM_EXACT_MASS>
366.20423867
> <PUBCHEM_MOLECULAR_FORMULA>
C20H30O6
> <PUBCHEM_MOLECULAR_WEIGHT>
366.4
> <PUBCHEM_OPENEYE_CAN_SMILES>
CC1(CCCC23C1(C(C(C4=CC(CC(C42O)O)(C)C=C)O)(OC3)O)O)C
> <PUBCHEM_OPENEYE_ISO_SMILES>
C[C@@]1(C[C@H]([C@]2(C(=C1)C([C@]3([C@@]4(C2(CCCC4(C)C)CO3)O)O)O)O)O)C=C
> <PUBCHEM_CACTVS_TPSA>
110
> <PUBCHEM_MONOISOTOPIC_WEIGHT>
366.20423867
> <PUBCHEM_TOTAL_CHARGE>
0
> <PUBCHEM_HEAVY_ATOM_COUNT>
26
> <PUBCHEM_ATOM_DEF_STEREO_COUNT>
5
> <PUBCHEM_ATOM_UDEF_STEREO_COUNT>
2
> <PUBCHEM_BOND_DEF_STEREO_COUNT>
0
> <PUBCHEM_BOND_UDEF_STEREO_COUNT>
0
> <PUBCHEM_ISOTOPIC_ATOM_COUNT>
0
> <PUBCHEM_COMPONENT_COUNT>
1
> <PUBCHEM_CACTVS_TAUTO_COUNT>
-1
> <PUBCHEM_COORDINATE_TYPE>
1
5
255
> <PUBCHEM_BONDANNOTATIONS>
8  2  6
22  24  5
9  3  6
10  4  6
14  5  3
18  6  6
7  12  3
$$$$
