504178
  -OEChem-10302200282D
 35 34  0     1  0  0  0  0  0999 V2000
    2.5369    0.0000    0.0000 O   0  0  0  0  0  0  0  0  0  0  0  0
   10.3312    0.5000    0.0000 O   0  0  0  0  0  0  0  0  0  0  0  0
    5.1350    0.5000    0.0000 N   0  0  0  0  0  0  0  0  0  0  0  0
    7.7331   -0.0000    0.0000 N   0  0  0  0  0  0  0  0  0  0  0  0
    4.2690    0.0000    0.0000 C   0  0  3  0  0  0  0  0  0  0  0  0
    6.0010    0.0000    0.0000 C   0  0  0  0  0  0  0  0  0  0  0  0
    6.8671    0.5000    0.0000 C   0  0  0  0  0  0  0  0  0  0  0  0
    4.2690   -1.0000    0.0000 C   0  0  0  0  0  0  0  0  0  0  0  0
    8.5991    0.5000    0.0000 C   0  0  3  0  0  0  0  0  0  0  0  0
    3.4030    0.5000    0.0000 C   0  0  0  0  0  0  0  0  0  0  0  0
    9.4651   -0.0000    0.0000 C   0  0  0  0  0  0  0  0  0  0  0  0
    3.4030   -1.5000    0.0000 C   0  0  0  0  0  0  0  0  0  0  0  0
    8.5991    1.5000    0.0000 C   0  0  0  0  0  0  0  0  0  0  0  0
    4.2690    0.6200    0.0000 H   0  0  0  0  0  0  0  0  0  0  0  0
    5.6025   -0.4749    0.0000 H   0  0  0  0  0  0  0  0  0  0  0  0
    6.3996   -0.4749    0.0000 H   0  0  0  0  0  0  0  0  0  0  0  0
    7.2656    0.9749    0.0000 H   0  0  0  0  0  0  0  0  0  0  0  0
    6.4685    0.9749    0.0000 H   0  0  0  0  0  0  0  0  0  0  0  0
    5.1350    1.1200    0.0000 H   0  0  0  0  0  0  0  0  0  0  0  0
    4.4810   -1.5826    0.0000 H   0  0  0  0  0  0  0  0  0  0  0  0
    4.8796   -0.8923    0.0000 H   0  0  0  0  0  0  0  0  0  0  0  0
    8.5991   -0.1200    0.0000 H   0  0  0  0  0  0  0  0  0  0  0  0
    7.7331   -0.6200    0.0000 H   0  0  0  0  0  0  0  0  0  0  0  0
    3.8015    0.9749    0.0000 H   0  0  0  0  0  0  0  0  0  0  0  0
    3.0044    0.9749    0.0000 H   0  0  0  0  0  0  0  0  0  0  0  0
    9.0666   -0.4749    0.0000 H   0  0  0  0  0  0  0  0  0  0  0  0
    9.8637   -0.4749    0.0000 H   0  0  0  0  0  0  0  0  0  0  0  0
    3.0930   -0.9631    0.0000 H   0  0  0  0  0  0  0  0  0  0  0  0
    2.8660   -1.8100    0.0000 H   0  0  0  0  0  0  0  0  0  0  0  0
    3.7130   -2.0369    0.0000 H   0  0  0  0  0  0  0  0  0  0  0  0
    9.2191    1.5000    0.0000 H   0  0  0  0  0  0  0  0  0  0  0  0
    8.5991    2.1200    0.0000 H   0  0  0  0  0  0  0  0  0  0  0  0
    7.9791    1.5000    0.0000 H   0  0  0  0  0  0  0  0  0  0  0  0
    2.0000    0.3100    0.0000 H   0  0  0  0  0  0  0  0  0  0  0  0
   10.8681    0.1900    0.0000 H   0  0  0  0  0  0  0  0  0  0  0  0
  1 10  1  0  0  0  0
  1 34  1  0  0  0  0
  2 11  1  0  0  0  0
  2 35  1  0  0  0  0
  3  5  1  0  0  0  0
  3  6  1  0  0  0  0
  3 19  1  0  0  0  0
  4  7  1  0  0  0  0
  4  9  1  0  0  0  0
  4 23  1  0  0  0  0
  5  8  1  0  0  0  0
  5 10  1  0  0  0  0
  5 14  1  0  0  0  0
  6  7  1  0  0  0  0
  6 15  1  0  0  0  0
  6 16  1  0  0  0  0
  7 17  1  0  0  0  0
  7 18  1  0  0  0  0
  8 12  1  0  0  0  0
  8 20  1  0  0  0  0
  8 21  1  0  0  0  0
  9 11  1  0  0  0  0
  9 13  1  0  0  0  0
  9 22  1  0  0  0  0
 10 24  1  0  0  0  0
 10 25  1  0  0  0  0
 11 26  1  0  0  0  0
 11 27  1  0  0  0  0
 12 28  1  0  0  0  0
 12 29  1  0  0  0  0
 12 30  1  0  0  0  0
 13 31  1  0  0  0  0
 13 32  1  0  0  0  0
 13 33  1  0  0  0  0
M  END
> <PUBCHEM_COMPOUND_CID>
504178
> <PUBCHEM_COMPOUND_CANONICALIZED>
1
> <PUBCHEM_CACTVS_COMPLEXITY>
112
> <PUBCHEM_CACTVS_HBOND_ACCEPTOR>
4
> <PUBCHEM_CACTVS_HBOND_DONOR>
4
> <PUBCHEM_CACTVS_ROTATABLE_BOND>
8
> <PUBCHEM_CACTVS_SUBSKEYS>
AAADceBzMAAAAAAAAAAAAAAAAAAAAAAAAAAAAAAAAAAAAAAAAAAAHgAQCAAACCjhgAYCAALAAgAAAAAAAAAAAAAAAAAAAIAIAAACUAAAAAAUQAAEEACQAAAAAAAAAAAAAAAAAAAAAAAAAAAAAAAAAAAAAA==
> <PUBCHEM_IUPAC_OPENEYE_NAME>
2-[2-[(2-hydroxy-1-methyl-ethyl)amino]ethylamino]butan-1-ol
> <PUBCHEM_IUPAC_CAS_NAME>
2-[2-(1-hydroxypropan-2-ylamino)ethylamino]-1-butanol
> <PUBCHEM_IUPAC_NAME_MARKUP>
2-[2-(1-hydroxypropan-2-ylamino)ethylamino]butan-1-ol
> <PUBCHEM_IUPAC_NAME>
2-[2-(1-hydroxypropan-2-ylamino)ethylamino]butan-1-ol
> <PUBCHEM_IUPAC_SYSTEMATIC_NAME>
2-[2-(1-oxidanylpropan-2-ylamino)ethylamino]butan-1-ol
> <PUBCHEM_IUPAC_TRADITIONAL_NAME>
2-[2-[(2-hydroxy-1-methyl-ethyl)amino]ethylamino]butan-1-ol
> <PUBCHEM_IUPAC_INCHI>
InChI=1S/C9H22N2O2/c1-3-9(7-13)11-5-4-10-8(2)6-12/h8-13H,3-7H2,1-2H3
> <PUBCHEM_IUPAC_INCHIKEY>
RWYZFXHQVKQJFO-UHFFFAOYSA-N
> <PUBCHEM_XLOGP3_AA>
-0.6
> <PUBCHEM_EXACT_MASS>
190.168127949
> <PUBCHEM_MOLECULAR_FORMULA>
C9H22N2O2
> <PUBCHEM_MOLECULAR_WEIGHT>
190.28
> <PUBCHEM_OPENEYE_CAN_SMILES>
CCC(CO)NCCNC(C)CO
> <PUBCHEM_OPENEYE_ISO_SMILES>
CCC(CO)NCCNC(C)CO
> <PUBCHEM_CACTVS_TPSA>
64.5
> <PUBCHEM_MONOISOTOPIC_WEIGHT>
190.168127949
> <PUBCHEM_TOTAL_CHARGE>
0
> <PUBCHEM_HEAVY_ATOM_COUNT>
13
> <PUBCHEM_ATOM_DEF_STEREO_COUNT>
0
> <PUBCHEM_ATOM_UDEF_STEREO_COUNT>
2
> <PUBCHEM_BOND_DEF_STEREO_COUNT>
0
> <PUBCHEM_BOND_UDEF_STEREO_COUNT>
0
> <PUBCHEM_ISOTOPIC_ATOM_COUNT>
0
> <PUBCHEM_COMPONENT_COUNT>
1
> <PUBCHEM_CACTVS_TAUTO_COUNT>
-1
> <PUBCHEM_COORDINATE_TYPE>
1
5
255
> <PUBCHEM_BONDANNOTATIONS>
5  8  3
9  13  3
$$$$
