504237
  -OEChem-10302200282D
 44 44  0     1  0  0  0  0  0999 V2000
    2.0000   -5.0600    0.0000 Br  0  0  0  0  0  0  0  0  0  0  0  0
    5.4641   -5.0600    0.0000 Br  0  0  0  0  0  0  0  0  0  0  0  0
    4.5981   -1.5600    0.0000 S   0  0  0  0  0  0  0  0  0  0  0  0
    8.0622    1.4400    0.0000 O   0  0  0  0  0  0  0  0  0  0  0  0
    8.0622    4.4400    0.0000 O   0  0  0  0  0  0  0  0  0  0  0  0
    5.4641    1.9400    0.0000 O   0  0  0  0  0  0  0  0  0  0  0  0
    4.0981   -0.6940    0.0000 O   0  0  0  0  0  0  0  0  0  0  0  0
    5.0981   -2.4260    0.0000 O   0  0  0  0  0  0  0  0  0  0  0  0
    6.3301    0.4400    0.0000 N   0  0  0  0  0  0  0  0  0  0  0  0
    3.7320   -2.0600    0.0000 N   0  0  0  0  0  0  0  0  0  0  0  0
    7.1962    2.9400    0.0000 C   0  0  0  0  0  0  0  0  0  0  0  0
    7.1962    1.9400    0.0000 C   0  0  3  0  0  0  0  0  0  0  0  0
    7.1962    3.9400    0.0000 C   0  0  0  0  0  0  0  0  0  0  0  0
    8.1962    2.9400    0.0000 C   0  0  0  0  0  0  0  0  0  0  0  0
    6.1962    2.9400    0.0000 C   0  0  0  0  0  0  0  0  0  0  0  0
    6.3301    1.4400    0.0000 C   0  0  0  0  0  0  0  0  0  0  0  0
    5.4641   -0.0600    0.0000 C   0  0  0  0  0  0  0  0  0  0  0  0
    5.4641   -1.0600    0.0000 C   0  0  0  0  0  0  0  0  0  0  0  0
    3.7320   -3.0600    0.0000 C   0  0  0  0  0  0  0  0  0  0  0  0
    4.5981   -3.5600    0.0000 C   0  0  0  0  0  0  0  0  0  0  0  0
    2.8660   -3.5600    0.0000 C   0  0  0  0  0  0  0  0  0  0  0  0
    2.8660   -4.5600    0.0000 C   0  0  0  0  0  0  0  0  0  0  0  0
    4.5981   -4.5600    0.0000 C   0  0  0  0  0  0  0  0  0  0  0  0
    3.7320   -5.0600    0.0000 C   0  0  0  0  0  0  0  0  0  0  0  0
    7.7331    2.2500    0.0000 H   0  0  0  0  0  0  0  0  0  0  0  0
    6.9841    4.5226    0.0000 H   0  0  0  0  0  0  0  0  0  0  0  0
    6.5856    3.8323    0.0000 H   0  0  0  0  0  0  0  0  0  0  0  0
    8.1962    2.3200    0.0000 H   0  0  0  0  0  0  0  0  0  0  0  0
    8.8162    2.9400    0.0000 H   0  0  0  0  0  0  0  0  0  0  0  0
    8.1962    3.5600    0.0000 H   0  0  0  0  0  0  0  0  0  0  0  0
    6.1962    3.5600    0.0000 H   0  0  0  0  0  0  0  0  0  0  0  0
    5.5762    2.9400    0.0000 H   0  0  0  0  0  0  0  0  0  0  0  0
    6.1962    2.3200    0.0000 H   0  0  0  0  0  0  0  0  0  0  0  0
    5.2520    0.5226    0.0000 H   0  0  0  0  0  0  0  0  0  0  0  0
    4.8535   -0.1677    0.0000 H   0  0  0  0  0  0  0  0  0  0  0  0
    6.8671    0.1300    0.0000 H   0  0  0  0  0  0  0  0  0  0  0  0
    5.6762   -1.6426    0.0000 H   0  0  0  0  0  0  0  0  0  0  0  0
    6.0747   -0.9523    0.0000 H   0  0  0  0  0  0  0  0  0  0  0  0
    8.5991    1.7500    0.0000 H   0  0  0  0  0  0  0  0  0  0  0  0
    8.0622    5.0600    0.0000 H   0  0  0  0  0  0  0  0  0  0  0  0
    3.1951   -1.7500    0.0000 H   0  0  0  0  0  0  0  0  0  0  0  0
    5.1350   -3.2500    0.0000 H   0  0  0  0  0  0  0  0  0  0  0  0
    2.3291   -3.2500    0.0000 H   0  0  0  0  0  0  0  0  0  0  0  0
    3.7320   -5.6800    0.0000 H   0  0  0  0  0  0  0  0  0  0  0  0
  1 22  1  0  0  0  0
  2 23  1  0  0  0  0
  3  7  2  0  0  0  0
  3  8  2  0  0  0  0
  3 10  1  0  0  0  0
  3 18  1  0  0  0  0
  4 12  1  0  0  0  0
  4 39  1  0  0  0  0
  5 13  1  0  0  0  0
  5 40  1  0  0  0  0
  6 16  2  0  0  0  0
  9 16  1  0  0  0  0
  9 17  1  0  0  0  0
  9 36  1  0  0  0  0
 10 19  1  0  0  0  0
 10 41  1  0  0  0  0
 11 12  1  0  0  0  0
 11 13  1  0  0  0  0
 11 14  1  0  0  0  0
 11 15  1  0  0  0  0
 12 16  1  0  0  0  0
 12 25  1  0  0  0  0
 13 26  1  0  0  0  0
 13 27  1  0  0  0  0
 14 28  1  0  0  0  0
 14 29  1  0  0  0  0
 14 30  1  0  0  0  0
 15 31  1  0  0  0  0
 15 32  1  0  0  0  0
 15 33  1  0  0  0  0
 17 18  1  0  0  0  0
 17 34  1  0  0  0  0
 17 35  1  0  0  0  0
 18 37  1  0  0  0  0
 18 38  1  0  0  0  0
 19 20  2  0  0  0  0
 19 21  1  0  0  0  0
 20 23  1  0  0  0  0
 20 42  1  0  0  0  0
 21 22  2  0  0  0  0
 21 43  1  0  0  0  0
 22 24  1  0  0  0  0
 23 24  2  0  0  0  0
 24 44  1  0  0  0  0
M  END
> <PUBCHEM_COMPOUND_CID>
504237
> <PUBCHEM_COMPOUND_CANONICALIZED>
1
> <PUBCHEM_CACTVS_COMPLEXITY>
514
> <PUBCHEM_CACTVS_HBOND_ACCEPTOR>
6
> <PUBCHEM_CACTVS_HBOND_DONOR>
4
> <PUBCHEM_CACTVS_ROTATABLE_BOND>
8
> <PUBCHEM_CACTVS_SUBSKEYS>
AAADceBzOABAGAAAAAAAAAAAAAAAAAAAAAAwAAAAAAAAAAABAAAAHgRQSAABrhzl0AaywILAAgKIACVSUHLCAAAgAgQAiIFIZKgKMDKAkZGEYABllgCYyhcyAAAJAAAAAAEgAAAAAAAAAkAAAAAAAAAAAA==
> <PUBCHEM_IUPAC_OPENEYE_NAME>
N-[2-[(3,5-dibromophenyl)sulfamoyl]ethyl]-2,4-dihydroxy-3,3-dimethyl-butanamide
> <PUBCHEM_IUPAC_CAS_NAME>
N-[2-[(3,5-dibromophenyl)sulfamoyl]ethyl]-2,4-dihydroxy-3,3-dimethylbutanamide
> <PUBCHEM_IUPAC_NAME_MARKUP>
<I>N</I>-[2-[(3,5-dibromophenyl)sulfamoyl]ethyl]-2,4-dihydroxy-3,3-dimethylbutanamide
> <PUBCHEM_IUPAC_NAME>
N-[2-[(3,5-dibromophenyl)sulfamoyl]ethyl]-2,4-dihydroxy-3,3-dimethylbutanamide
> <PUBCHEM_IUPAC_SYSTEMATIC_NAME>
N-[2-[[3,5-bis(bromanyl)phenyl]sulfamoyl]ethyl]-3,3-dimethyl-2,4-bis(oxidanyl)butanamide
> <PUBCHEM_IUPAC_TRADITIONAL_NAME>
N-[2-[(3,5-dibromophenyl)sulfamoyl]ethyl]-2,4-dihydroxy-3,3-dimethyl-butyramide
> <PUBCHEM_IUPAC_INCHI>
InChI=1S/C14H20Br2N2O5S/c1-14(2,8-19)12(20)13(21)17-3-4-24(22,23)18-11-6-9(15)5-10(16)7-11/h5-7,12,18-20H,3-4,8H2,1-2H3,(H,17,21)
> <PUBCHEM_IUPAC_INCHIKEY>
AXBBDDXNDUEQJE-UHFFFAOYSA-N
> <PUBCHEM_XLOGP3_AA>
1.5
> <PUBCHEM_EXACT_MASS>
487.94392
> <PUBCHEM_MOLECULAR_FORMULA>
C14H20Br2N2O5S
> <PUBCHEM_MOLECULAR_WEIGHT>
488.2
> <PUBCHEM_OPENEYE_CAN_SMILES>
CC(C)(CO)C(C(=O)NCCS(=O)(=O)NC1=CC(=CC(=C1)Br)Br)O
> <PUBCHEM_OPENEYE_ISO_SMILES>
CC(C)(CO)C(C(=O)NCCS(=O)(=O)NC1=CC(=CC(=C1)Br)Br)O
> <PUBCHEM_CACTVS_TPSA>
124
> <PUBCHEM_MONOISOTOPIC_WEIGHT>
485.94597
> <PUBCHEM_TOTAL_CHARGE>
0
> <PUBCHEM_HEAVY_ATOM_COUNT>
24
> <PUBCHEM_ATOM_DEF_STEREO_COUNT>
0
> <PUBCHEM_ATOM_UDEF_STEREO_COUNT>
1
> <PUBCHEM_BOND_DEF_STEREO_COUNT>
0
> <PUBCHEM_BOND_UDEF_STEREO_COUNT>
0
> <PUBCHEM_ISOTOPIC_ATOM_COUNT>
0
> <PUBCHEM_COMPONENT_COUNT>
1
> <PUBCHEM_CACTVS_TAUTO_COUNT>
-1
> <PUBCHEM_COORDINATE_TYPE>
1
5
255
> <PUBCHEM_BONDANNOTATIONS>
19  20  8
19  21  8
20  23  8
21  22  8
22  24  8
23  24  8
12  4  3
$$$$
