504288
  -OEChem-10302200282D
 32 32  0     1  0  0  0  0  0999 V2000
    3.1377   -0.2736    0.0000 O   0  0  0  0  0  0  0  0  0  0  0  0
    4.4467   -1.2247    0.0000 O   0  0  0  0  0  0  0  0  0  0  0  0
    2.3644    1.0186    0.0000 O   0  0  0  0  0  0  0  0  0  0  0  0
    5.9358    0.1051    0.0000 O   0  0  0  0  0  0  0  0  0  0  0  0
    7.1114    1.7231    0.0000 O   0  0  0  0  0  0  0  0  0  0  0  0
    3.9467    0.3141    0.0000 C   0  0  3  0  0  0  0  0  0  0  0  0
    4.5345    1.1232    0.0000 C   0  0  0  0  0  0  0  0  0  0  0  0
    4.7558   -0.2736    0.0000 C   0  0  0  0  0  0  0  0  0  0  0  0
    3.4467   -1.2247    0.0000 C   0  0  0  0  0  0  0  0  0  0  0  0
    3.3590    1.1232    0.0000 C   0  0  0  0  0  0  0  0  0  0  0  0
    5.5290    1.0186    0.0000 C   0  0  3  0  0  0  0  0  0  0  0  0
    3.4467   -2.2247    0.0000 C   0  0  0  0  0  0  0  0  0  0  0  0
    2.4957   -1.5337    0.0000 C   0  0  0  0  0  0  0  0  0  0  0  0
    6.1168    1.8276    0.0000 C   0  0  0  0  0  0  0  0  0  0  0  0
    4.7054    1.7191    0.0000 H   0  0  0  0  0  0  0  0  0  0  0  0
    3.9773    1.3949    0.0000 H   0  0  0  0  0  0  0  0  0  0  0  0
    5.3222   -0.5258    0.0000 H   0  0  0  0  0  0  0  0  0  0  0  0
    5.0658    0.2633    0.0000 H   0  0  0  0  0  0  0  0  0  0  0  0
    3.9162    1.3949    0.0000 H   0  0  0  0  0  0  0  0  0  0  0  0
    3.1880    1.7191    0.0000 H   0  0  0  0  0  0  0  0  0  0  0  0
    6.1456    0.9538    0.0000 H   0  0  0  0  0  0  0  0  0  0  0  0
    2.8267   -2.2247    0.0000 H   0  0  0  0  0  0  0  0  0  0  0  0
    3.4467   -2.8447    0.0000 H   0  0  0  0  0  0  0  0  0  0  0  0
    4.0667   -2.2247    0.0000 H   0  0  0  0  0  0  0  0  0  0  0  0
    2.3041   -0.9441    0.0000 H   0  0  0  0  0  0  0  0  0  0  0  0
    1.9060   -1.7253    0.0000 H   0  0  0  0  0  0  0  0  0  0  0  0
    2.6873   -2.1234    0.0000 H   0  0  0  0  0  0  0  0  0  0  0  0
    6.2877    2.4236    0.0000 H   0  0  0  0  0  0  0  0  0  0  0  0
    5.5596    2.0994    0.0000 H   0  0  0  0  0  0  0  0  0  0  0  0
    2.0000    1.5202    0.0000 H   0  0  0  0  0  0  0  0  0  0  0  0
    6.5524    0.0403    0.0000 H   0  0  0  0  0  0  0  0  0  0  0  0
    7.4758    2.2247    0.0000 H   0  0  0  0  0  0  0  0  0  0  0  0
  1  6  1  0  0  0  0
  1  9  1  0  0  0  0
  2  8  1  0  0  0  0
  2  9  1  0  0  0  0
  3 10  1  0  0  0  0
  3 30  1  0  0  0  0
  4 11  1  0  0  0  0
  4 31  1  0  0  0  0
  5 14  1  0  0  0  0
  5 32  1  0  0  0  0
  6  7  1  0  0  0  0
  6  8  1  0  0  0  0
  6 10  1  0  0  0  0
  7 11  1  0  0  0  0
  7 15  1  0  0  0  0
  7 16  1  0  0  0  0
  8 17  1  0  0  0  0
  8 18  1  0  0  0  0
  9 12  1  0  0  0  0
  9 13  1  0  0  0  0
 10 19  1  0  0  0  0
 10 20  1  0  0  0  0
 11 14  1  0  0  0  0
 11 21  1  0  0  0  0
 12 22  1  0  0  0  0
 12 23  1  0  0  0  0
 12 24  1  0  0  0  0
 13 25  1  0  0  0  0
 13 26  1  0  0  0  0
 13 27  1  0  0  0  0
 14 28  1  0  0  0  0
 14 29  1  0  0  0  0
M  END
> <PUBCHEM_COMPOUND_CID>
504288
> <PUBCHEM_COMPOUND_CANONICALIZED>
1
> <PUBCHEM_CACTVS_COMPLEXITY>
194
> <PUBCHEM_CACTVS_HBOND_ACCEPTOR>
5
> <PUBCHEM_CACTVS_HBOND_DONOR>
3
> <PUBCHEM_CACTVS_ROTATABLE_BOND>
4
> <PUBCHEM_CACTVS_SUBSKEYS>
AAADceBwOAAAAAAAAAAAAAAAAAAAASAAAAAAAAAAAAAAAAAAAAAAGgAACAAADFSggAICCAAABgAAAAAAAAAAAAAAAAAAAAAAAAAREAIAAAAiQAAFAAAHAADAIAgMAAAAAAAAAAAAAAAAAAAAAAAAAAAAAA==
> <PUBCHEM_IUPAC_OPENEYE_NAME>
3-[4-(hydroxymethyl)-2,2-dimethyl-1,3-dioxolan-4-yl]propane-1,2-diol
> <PUBCHEM_IUPAC_CAS_NAME>
3-[4-(hydroxymethyl)-2,2-dimethyl-1,3-dioxolan-4-yl]propane-1,2-diol
> <PUBCHEM_IUPAC_NAME_MARKUP>
3-[4-(hydroxymethyl)-2,2-dimethyl-1,3-dioxolan-4-yl]propane-1,2-diol
> <PUBCHEM_IUPAC_NAME>
3-[4-(hydroxymethyl)-2,2-dimethyl-1,3-dioxolan-4-yl]propane-1,2-diol
> <PUBCHEM_IUPAC_SYSTEMATIC_NAME>
3-[4-(hydroxymethyl)-2,2-dimethyl-1,3-dioxolan-4-yl]propane-1,2-diol
> <PUBCHEM_IUPAC_TRADITIONAL_NAME>
3-(2,2-dimethyl-4-methylol-1,3-dioxolan-4-yl)propane-1,2-diol
> <PUBCHEM_IUPAC_INCHI>
InChI=1S/C9H18O5/c1-8(2)13-6-9(5-11,14-8)3-7(12)4-10/h7,10-12H,3-6H2,1-2H3
> <PUBCHEM_IUPAC_INCHIKEY>
GMIRDBQPODKBHV-UHFFFAOYSA-N
> <PUBCHEM_XLOGP3_AA>
-1.3
> <PUBCHEM_EXACT_MASS>
206.11542367
> <PUBCHEM_MOLECULAR_FORMULA>
C9H18O5
> <PUBCHEM_MOLECULAR_WEIGHT>
206.24
> <PUBCHEM_OPENEYE_CAN_SMILES>
CC1(OCC(O1)(CC(CO)O)CO)C
> <PUBCHEM_OPENEYE_ISO_SMILES>
CC1(OCC(O1)(CC(CO)O)CO)C
> <PUBCHEM_CACTVS_TPSA>
79.2
> <PUBCHEM_MONOISOTOPIC_WEIGHT>
206.11542367
> <PUBCHEM_TOTAL_CHARGE>
0
> <PUBCHEM_HEAVY_ATOM_COUNT>
14
> <PUBCHEM_ATOM_DEF_STEREO_COUNT>
0
> <PUBCHEM_ATOM_UDEF_STEREO_COUNT>
2
> <PUBCHEM_BOND_DEF_STEREO_COUNT>
0
> <PUBCHEM_BOND_UDEF_STEREO_COUNT>
0
> <PUBCHEM_ISOTOPIC_ATOM_COUNT>
0
> <PUBCHEM_COMPONENT_COUNT>
1
> <PUBCHEM_CACTVS_TAUTO_COUNT>
-1
> <PUBCHEM_COORDINATE_TYPE>
1
5
255
> <PUBCHEM_BONDANNOTATIONS>
11  4  3
6  7  3
$$$$
