504216
  -OEChem-10302200282D
 90 96  0     1  0  0  0  0  0999 V2000
    3.9234   -1.7276    0.0000 Cl  0  0  0  0  0  0  0  0  0  0  0  0
   11.3108    0.4488    0.0000 O   0  0  0  0  0  0  0  0  0  0  0  0
    9.9765    1.3488    0.0000 O   0  0  0  0  0  0  0  0  0  0  0  0
    8.6398   -2.0722    0.0000 O   0  0  0  0  0  0  0  0  0  0  0  0
    7.6295   -3.2324    0.0000 O   0  0  0  0  0  0  0  0  0  0  0  0
    8.7606   -0.3443    0.0000 N   0  0  0  0  0  0  0  0  0  0  0  0
    6.5655   -1.8657    0.0000 N   0  0  0  0  0  0  0  0  0  0  0  0
    4.9873   -3.0943    0.0000 N   0  0  0  0  0  0  0  0  0  0  0  0
    6.0513   -4.4610    0.0000 N   0  0  0  0  0  0  0  0  0  0  0  0
   12.8083    2.2693    0.0000 C   0  0  3  0  0  0  0  0  0  0  0  0
   14.2073    2.2781    0.0000 C   0  0  0  0  0  0  0  0  0  0  0  0
   13.0672    3.2352    0.0000 C   0  0  3  0  0  0  0  0  0  0  0  0
   11.5873    1.4036    0.0000 C   0  0  2  0  0  0  0  0  0  0  0  0
   12.3305    4.2178    0.0000 C   0  0  0  0  0  0  0  0  0  0  0  0
   11.0339    2.9241    0.0000 C   0  0  0  0  0  0  0  0  0  0  0  0
   10.7583    1.9628    0.0000 C   0  0  3  0  0  0  0  0  0  0  0  0
   15.0733    2.7781    0.0000 C   0  0  0  0  0  0  0  0  0  0  0  0
   14.7073    1.4121    0.0000 C   0  0  0  0  0  0  0  0  0  0  0  0
   12.4164    0.8444    0.0000 C   0  0  0  0  0  0  0  0  0  0  0  0
    9.7581   -0.4141    0.0000 C   0  0  1  0  0  0  0  0  0  0  0  0
   10.1965   -1.3129    0.0000 C   0  0  0  0  0  0  0  0  0  0  0  0
    8.2014   -1.1734    0.0000 C   0  0  0  0  0  0  0  0  0  0  0  0
    9.6373   -2.1419    0.0000 C   0  0  0  0  0  0  0  0  0  0  0  0
    7.2038   -1.1036    0.0000 C   0  0  2  0  0  0  0  0  0  0  0  0
    6.6778   -0.2601    0.0000 C   0  0  0  0  0  0  0  0  0  0  0  0
    5.7126   -0.4981    0.0000 C   0  0  2  0  0  0  0  0  0  0  0  0
    5.6390   -1.4895    0.0000 C   0  0  0  0  0  0  0  0  0  0  0  0
   10.0757   -3.0407    0.0000 C   0  0  0  0  0  0  0  0  0  0  0  0
    4.9488    0.1473    0.0000 C   0  0  0  0  0  0  0  0  0  0  0  0
    6.7030   -2.8562    0.0000 C   0  0  0  0  0  0  0  0  0  0  0  0
    4.8499   -2.1038    0.0000 C   0  0  0  0  0  0  0  0  0  0  0  0
    5.1258    1.1315    0.0000 C   0  0  0  0  0  0  0  0  0  0  0  0
    5.9139   -3.4705    0.0000 C   0  0  0  0  0  0  0  0  0  0  0  0
    4.3620    1.7770    0.0000 C   0  0  0  0  0  0  0  0  0  0  0  0
    4.5391    2.7612    0.0000 C   0  0  0  0  0  0  0  0  0  0  0  0
    3.7753    3.4066    0.0000 C   0  0  0  0  0  0  0  0  0  0  0  0
    5.2623   -5.0753    0.0000 C   0  0  0  0  0  0  0  0  0  0  0  0
    5.4799    3.0999    0.0000 C   0  0  0  0  0  0  0  0  0  0  0  0
    3.9523    4.3908    0.0000 C   0  0  0  0  0  0  0  0  0  0  0  0
    5.6570    4.0841    0.0000 C   0  0  0  0  0  0  0  0  0  0  0  0
    2.8008    3.0386    0.0000 C   0  0  0  0  0  0  0  0  0  0  0  0
    4.8932    4.7296    0.0000 C   0  0  0  0  0  0  0  0  0  0  0  0
    3.1672    5.0753    0.0000 C   0  0  0  0  0  0  0  0  0  0  0  0
    2.0000    3.7048    0.0000 C   0  0  0  0  0  0  0  0  0  0  0  0
    2.1844    4.7300    0.0000 C   0  0  0  0  0  0  0  0  0  0  0  0
   10.3173    0.4149    0.0000 B   0  0  0  0  0  0  0  0  0  0  0  0
   12.9984    1.6791    0.0000 H   0  0  0  0  0  0  0  0  0  0  0  0
   13.5175    3.6614    0.0000 H   0  0  0  0  0  0  0  0  0  0  0  0
   12.6483    4.7502    0.0000 H   0  0  0  0  0  0  0  0  0  0  0  0
   11.7174    4.3098    0.0000 H   0  0  0  0  0  0  0  0  0  0  0  0
   11.0289    3.5441    0.0000 H   0  0  0  0  0  0  0  0  0  0  0  0
   10.4196    3.0079    0.0000 H   0  0  0  0  0  0  0  0  0  0  0  0
   10.2438    2.3089    0.0000 H   0  0  0  0  0  0  0  0  0  0  0  0
   15.3833    2.2412    0.0000 H   0  0  0  0  0  0  0  0  0  0  0  0
   15.6102    3.0881    0.0000 H   0  0  0  0  0  0  0  0  0  0  0  0
   14.7633    3.3150    0.0000 H   0  0  0  0  0  0  0  0  0  0  0  0
   14.1703    1.1021    0.0000 H   0  0  0  0  0  0  0  0  0  0  0  0
   15.0173    0.8752    0.0000 H   0  0  0  0  0  0  0  0  0  0  0  0
   15.2442    1.7221    0.0000 H   0  0  0  0  0  0  0  0  0  0  0  0
   12.0697    0.3304    0.0000 H   0  0  0  0  0  0  0  0  0  0  0  0
   12.9304    0.4977    0.0000 H   0  0  0  0  0  0  0  0  0  0  0  0
   12.7631    1.3584    0.0000 H   0  0  0  0  0  0  0  0  0  0  0  0
    9.4864    0.1432    0.0000 H   0  0  0  0  0  0  0  0  0  0  0  0
   10.6425   -1.7436    0.0000 H   0  0  0  0  0  0  0  0  0  0  0  0
   10.6981   -0.9485    0.0000 H   0  0  0  0  0  0  0  0  0  0  0  0
    8.4888    0.2129    0.0000 H   0  0  0  0  0  0  0  0  0  0  0  0
    9.0188   -2.0987    0.0000 H   0  0  0  0  0  0  0  0  0  0  0  0
    7.4463   -1.6742    0.0000 H   0  0  0  0  0  0  0  0  0  0  0  0
    7.2354    0.0109    0.0000 H   0  0  0  0  0  0  0  0  0  0  0  0
    6.4669    0.3229    0.0000 H   0  0  0  0  0  0  0  0  0  0  0  0
    5.1409   -0.7381    0.0000 H   0  0  0  0  0  0  0  0  0  0  0  0
    9.7290   -3.5547    0.0000 H   0  0  0  0  0  0  0  0  0  0  0  0
   10.6942   -3.0840    0.0000 H   0  0  0  0  0  0  0  0  0  0  0  0
    4.3669    0.3614    0.0000 H   0  0  0  0  0  0  0  0  0  0  0  0
    4.6369   -0.3885    0.0000 H   0  0  0  0  0  0  0  0  0  0  0  0
    5.7077    0.9175    0.0000 H   0  0  0  0  0  0  0  0  0  0  0  0
    5.4377    1.6674    0.0000 H   0  0  0  0  0  0  0  0  0  0  0  0
    3.7801    1.9910    0.0000 H   0  0  0  0  0  0  0  0  0  0  0  0
    4.0502    1.2411    0.0000 H   0  0  0  0  0  0  0  0  0  0  0  0
    6.6258   -4.6942    0.0000 H   0  0  0  0  0  0  0  0  0  0  0  0
    4.8814   -4.5861    0.0000 H   0  0  0  0  0  0  0  0  0  0  0  0
    4.7730   -5.4562    0.0000 H   0  0  0  0  0  0  0  0  0  0  0  0
    5.6431   -5.5645    0.0000 H   0  0  0  0  0  0  0  0  0  0  0  0
    5.9535    2.6998    0.0000 H   0  0  0  0  0  0  0  0  0  0  0  0
    6.2403    4.2942    0.0000 H   0  0  0  0  0  0  0  0  0  0  0  0
    2.6981    2.4272    0.0000 H   0  0  0  0  0  0  0  0  0  0  0  0
    5.0030    5.3398    0.0000 H   0  0  0  0  0  0  0  0  0  0  0  0
    3.2840    5.6842    0.0000 H   0  0  0  0  0  0  0  0  0  0  0  0
    1.4175    3.4925    0.0000 H   0  0  0  0  0  0  0  0  0  0  0  0
    1.7124    5.1320    0.0000 H   0  0  0  0  0  0  0  0  0  0  0  0
  1 31  1  0  0  0  0
  2 13  1  0  0  0  0
  2 46  1  0  0  0  0
  3 16  1  0  0  0  0
  3 46  1  0  0  0  0
  4 22  2  0  0  0  0
  5 30  2  0  0  0  0
 20  6  1  6  0  0  0
  6 22  1  0  0  0  0
  6 66  1  0  0  0  0
  7 24  1  0  0  0  0
  7 27  1  0  0  0  0
  7 30  1  0  0  0  0
  8 31  1  0  0  0  0
  8 33  2  0  0  0  0
  9 33  1  0  0  0  0
  9 37  1  0  0  0  0
  9 80  1  0  0  0  0
 10 11  1  0  0  0  0
 10 13  1  0  0  0  0
 10 14  1  0  0  0  0
 10 47  1  0  0  0  0
 11 12  1  0  0  0  0
 11 17  1  0  0  0  0
 11 18  1  0  0  0  0
 12 14  1  0  0  0  0
 12 15  1  0  0  0  0
 12 48  1  0  0  0  0
 13 16  1  0  0  0  0
 13 19  1  6  0  0  0
 14 49  1  0  0  0  0
 14 50  1  0  0  0  0
 15 16  1  0  0  0  0
 15 51  1  0  0  0  0
 15 52  1  0  0  0  0
 16 53  1  0  0  0  0
 17 54  1  0  0  0  0
 17 55  1  0  0  0  0
 17 56  1  0  0  0  0
 18 57  1  0  0  0  0
 18 58  1  0  0  0  0
 18 59  1  0  0  0  0
 19 60  1  0  0  0  0
 19 61  1  0  0  0  0
 19 62  1  0  0  0  0
 20 21  1  0  0  0  0
 20 46  1  0  0  0  0
 20 63  1  0  0  0  0
 21 23  1  0  0  0  0
 21 64  1  0  0  0  0
 21 65  1  0  0  0  0
 24 22  1  1  0  0  0
 23 28  2  0  0  0  0
 23 67  1  0  0  0  0
 24 25  1  0  0  0  0
 24 68  1  0  0  0  0
 25 26  1  0  0  0  0
 25 69  1  0  0  0  0
 25 70  1  0  0  0  0
 26 27  1  0  0  0  0
 26 29  1  6  0  0  0
 26 71  1  0  0  0  0
 27 31  2  0  0  0  0
 28 72  1  0  0  0  0
 28 73  1  0  0  0  0
 29 32  1  0  0  0  0
 29 74  1  0  0  0  0
 29 75  1  0  0  0  0
 30 33  1  0  0  0  0
 32 34  1  0  0  0  0
 32 76  1  0  0  0  0
 32 77  1  0  0  0  0
 34 35  1  0  0  0  0
 34 78  1  0  0  0  0
 34 79  1  0  0  0  0
 35 36  1  0  0  0  0
 35 38  2  0  0  0  0
 36 39  1  0  0  0  0
 36 41  2  0  0  0  0
 37 81  1  0  0  0  0
 37 82  1  0  0  0  0
 37 83  1  0  0  0  0
 38 40  1  0  0  0  0
 38 84  1  0  0  0  0
 39 42  1  0  0  0  0
 39 43  2  0  0  0  0
 40 42  2  0  0  0  0
 40 85  1  0  0  0  0
 41 44  1  0  0  0  0
 41 86  1  0  0  0  0
 42 87  1  0  0  0  0
 43 45  1  0  0  0  0
 43 88  1  0  0  0  0
 44 45  2  0  0  0  0
 44 89  1  0  0  0  0
 45 90  1  0  0  0  0
M  END
> <PUBCHEM_COMPOUND_CID>
504216
> <PUBCHEM_COMPOUND_CANONICALIZED>
1
> <PUBCHEM_CACTVS_COMPLEXITY>
1300
> <PUBCHEM_CACTVS_HBOND_ACCEPTOR>
5
> <PUBCHEM_CACTVS_HBOND_DONOR>
2
> <PUBCHEM_CACTVS_ROTATABLE_BOND>
10
> <PUBCHEM_CACTVS_SUBSKEYS>
AAADcfJ/uAAEAAAAAAAAAAAAAABgAWJAAAAwYMGCAAAAAEjBUAAoHgIQAAAAD37hmAYzAMPAAACoAidydAACAAEgAAAJiIGIAIgJYDKAkTCUIAAklgCIiAeYyfCPgAACAAAQAADAAAYAADCAAAAAAAAAAA==
> <PUBCHEM_IUPAC_OPENEYE_NAME>
(6S,8R)-1-chloro-3-(methylamino)-8-[3-(1-naphthyl)propyl]-4-oxo-N-[(1R)-1-[(2R)-2,9,9-trimethyl-3,5-dioxa-4-boratricyclo[6.1.1.02,6]decan-4-yl]but-3-enyl]-7,8-dihydro-6H-pyrrolo[1,2-a]pyrazine-6-carboxamide
> <PUBCHEM_IUPAC_CAS_NAME>
(6S,8R)-1-chloro-3-(methylamino)-8-[3-(1-naphthalenyl)propyl]-4-oxo-N-[(1R)-1-[(2R)-2,9,9-trimethyl-3,5-dioxa-4-boratricyclo[6.1.1.02,6]decan-4-yl]but-3-enyl]-7,8-dihydro-6H-pyrrolo[1,2-a]pyrazine-6-carboxamide
> <PUBCHEM_IUPAC_NAME_MARKUP>
(6<I>S</I>,8<I>R</I>)-1-chloro-3-(methylamino)-8-(3-naphthalen-1-ylpropyl)-4-oxo-<I>N</I>-[(1<I>R</I>)-1-[(2<I>R</I>)-2,9,9-trimethyl-3,5-dioxa-4-boratricyclo[6.1.1.0<SUP>2,6</SUP>]decan-4-yl]but-3-enyl]-7,8-dihydro-6<I>H</I>-pyrrolo[1,2-a]pyrazine-6-carboxamide
> <PUBCHEM_IUPAC_NAME>
(6S,8R)-1-chloro-3-(methylamino)-8-(3-naphthalen-1-ylpropyl)-4-oxo-N-[(1R)-1-[(2R)-2,9,9-trimethyl-3,5-dioxa-4-boratricyclo[6.1.1.02,6]decan-4-yl]but-3-enyl]-7,8-dihydro-6H-pyrrolo[1,2-a]pyrazine-6-carboxamide
> <PUBCHEM_IUPAC_SYSTEMATIC_NAME>
(6S,8R)-1-chloranyl-3-(methylamino)-8-(3-naphthalen-1-ylpropyl)-4-oxidanylidene-N-[(1R)-1-[(2R)-2,9,9-trimethyl-3,5-dioxa-4-boratricyclo[6.1.1.02,6]decan-4-yl]but-3-enyl]-7,8-dihydro-6H-pyrrolo[1,2-a]pyrazine-6-carboxamide
> <PUBCHEM_IUPAC_TRADITIONAL_NAME>
(6S,8R)-1-chloro-4-keto-3-(methylamino)-8-[3-(1-naphthyl)propyl]-N-[(1R)-1-[(2R)-2,9,9-trimethyl-3,5-dioxa-4-boratricyclo[6.1.1.02,6]decan-4-yl]but-3-enyl]-7,8-dihydro-6H-pyrrolo[1,2-a]pyrazine-6-carboxamide
> <PUBCHEM_IUPAC_INCHI>
InChI=1S/C36H44BClN4O4/c1-6-11-29(37-45-28-20-24-19-27(35(24,2)3)36(28,4)46-37)40-33(43)26-18-23(30-31(38)41-32(39-5)34(44)42(26)30)16-10-15-22-14-9-13-21-12-7-8-17-25(21)22/h6-9,12-14,17,23-24,26-29H,1,10-11,15-16,18-20H2,2-5H3,(H,39,41)(H,40,43)/t23-,24?,26+,27?,28?,29+,36-/m1/s1
> <PUBCHEM_IUPAC_INCHIKEY>
OWUFFYRXVGYHLM-UEBUVQAKSA-N
> <PUBCHEM_EXACT_MASS>
642.3144138
> <PUBCHEM_MOLECULAR_FORMULA>
C36H44BClN4O4
> <PUBCHEM_MOLECULAR_WEIGHT>
643.0
> <PUBCHEM_OPENEYE_CAN_SMILES>
B1(OC2CC3CC(C3(C)C)C2(O1)C)C(CC=C)NC(=O)C4CC(C5=C(N=C(C(=O)N45)NC)Cl)CCCC6=CC=CC7=CC=CC=C76
> <PUBCHEM_OPENEYE_ISO_SMILES>
B1(OC2CC3CC([C@]2(O1)C)C3(C)C)[C@H](CC=C)NC(=O)[C@@H]4C[C@H](C5=C(N=C(C(=O)N45)NC)Cl)CCCC6=CC=CC7=CC=CC=C76
> <PUBCHEM_CACTVS_TPSA>
92.3
> <PUBCHEM_MONOISOTOPIC_WEIGHT>
642.3144138
> <PUBCHEM_TOTAL_CHARGE>
0
> <PUBCHEM_HEAVY_ATOM_COUNT>
46
> <PUBCHEM_ATOM_DEF_STEREO_COUNT>
4
> <PUBCHEM_ATOM_UDEF_STEREO_COUNT>
3
> <PUBCHEM_BOND_DEF_STEREO_COUNT>
0
> <PUBCHEM_BOND_UDEF_STEREO_COUNT>
0
> <PUBCHEM_ISOTOPIC_ATOM_COUNT>
0
> <PUBCHEM_COMPONENT_COUNT>
1
> <PUBCHEM_CACTVS_TAUTO_COUNT>
-1
> <PUBCHEM_COORDINATE_TYPE>
1
5
255
> <PUBCHEM_BONDANNOTATIONS>
10  14  3
12  14  3
13  19  6
16  15  3
24  22  5
26  29  6
27  31  8
30  33  8
35  36  8
35  38  8
36  39  8
36  41  8
38  40  8
39  42  8
39  43  8
40  42  8
41  44  8
43  45  8
44  45  8
20  6  6
7  27  8
7  30  8
8  31  8
8  33  8
$$$$
