504297
  -OEChem-10302200282D
 48 51  0     1  0  0  0  0  0999 V2000
    8.8248   -2.9193    0.0000 O   0  0  0  0  0  0  0  0  0  0  0  0
    8.5158   -0.7927    0.0000 O   0  0  0  0  0  0  0  0  0  0  0  0
    7.5158   -3.8704    0.0000 O   0  0  0  0  0  0  0  0  0  0  0  0
    8.3292    1.0344    0.0000 O   0  0  0  0  0  0  0  0  0  0  0  0
    3.7634    1.4253    0.0000 O   0  0  0  0  0  0  0  0  0  0  0  0
    6.9280    0.0163    0.0000 N   0  0  0  0  0  0  0  0  0  0  0  0
    6.7469    1.7389    0.0000 N   0  0  0  0  0  0  0  0  0  0  0  0
    5.1646    2.4434    0.0000 N   0  0  0  0  0  0  0  0  0  0  0  0
    8.0158   -2.3316    0.0000 C   0  0  3  0  0  0  0  0  0  0  0  0
    7.2067   -1.7438    0.0000 C   0  0  0  0  0  0  0  0  0  0  0  0
    8.8248   -1.7438    0.0000 C   0  0  0  0  0  0  0  0  0  0  0  0
    7.2067   -2.9193    0.0000 C   0  0  0  0  0  0  0  0  0  0  0  0
    7.5158   -0.7927    0.0000 C   0  0  1  0  0  0  0  0  0  0  0  0
    8.5158   -3.8704    0.0000 C   0  0  0  0  0  0  0  0  0  0  0  0
    8.5158   -4.8704    0.0000 C   0  0  0  0  0  0  0  0  0  0  0  0
    9.4668   -4.1794    0.0000 C   0  0  0  0  0  0  0  0  0  0  0  0
    5.9334   -0.0882    0.0000 C   0  0  0  0  0  0  0  0  0  0  0  0
    7.3347    0.9298    0.0000 C   0  0  0  0  0  0  0  0  0  0  0  0
    5.3457    0.7208    0.0000 C   0  0  0  0  0  0  0  0  0  0  0  0
    5.7524    1.6343    0.0000 C   0  0  0  0  0  0  0  0  0  0  0  0
    4.1701    2.3388    0.0000 C   0  0  0  0  0  0  0  0  0  0  0  0
    3.5823    3.1478    0.0000 C   0  0  0  0  0  0  0  0  0  0  0  0
    2.5878    3.0433    0.0000 C   0  0  0  0  0  0  0  0  0  0  0  0
    3.9890    4.0614    0.0000 C   0  0  0  0  0  0  0  0  0  0  0  0
    2.0000    3.8523    0.0000 C   0  0  0  0  0  0  0  0  0  0  0  0
    3.4013    4.8704    0.0000 C   0  0  0  0  0  0  0  0  0  0  0  0
    2.4067    4.7659    0.0000 C   0  0  0  0  0  0  0  0  0  0  0  0
    6.6403   -1.4916    0.0000 H   0  0  0  0  0  0  0  0  0  0  0  0
    6.8967   -2.2807    0.0000 H   0  0  0  0  0  0  0  0  0  0  0  0
    9.1348   -2.2807    0.0000 H   0  0  0  0  0  0  0  0  0  0  0  0
    9.3912   -1.4916    0.0000 H   0  0  0  0  0  0  0  0  0  0  0  0
    6.8967   -2.3824    0.0000 H   0  0  0  0  0  0  0  0  0  0  0  0
    6.6403   -3.1715    0.0000 H   0  0  0  0  0  0  0  0  0  0  0  0
    6.9034   -0.8897    0.0000 H   0  0  0  0  0  0  0  0  0  0  0  0
    7.8958   -4.8704    0.0000 H   0  0  0  0  0  0  0  0  0  0  0  0
    8.5158   -5.4904    0.0000 H   0  0  0  0  0  0  0  0  0  0  0  0
    9.1358   -4.8704    0.0000 H   0  0  0  0  0  0  0  0  0  0  0  0
    9.2752   -4.7691    0.0000 H   0  0  0  0  0  0  0  0  0  0  0  0
   10.0565   -4.3710    0.0000 H   0  0  0  0  0  0  0  0  0  0  0  0
    9.6584   -3.5898    0.0000 H   0  0  0  0  0  0  0  0  0  0  0  0
    5.6813   -0.6546    0.0000 H   0  0  0  0  0  0  0  0  0  0  0  0
    4.7291    0.6560    0.0000 H   0  0  0  0  0  0  0  0  0  0  0  0
    5.4168    3.0098    0.0000 H   0  0  0  0  0  0  0  0  0  0  0  0
    2.3356    2.4769    0.0000 H   0  0  0  0  0  0  0  0  0  0  0  0
    4.6056    4.1262    0.0000 H   0  0  0  0  0  0  0  0  0  0  0  0
    1.3834    3.7875    0.0000 H   0  0  0  0  0  0  0  0  0  0  0  0
    3.6534    5.4368    0.0000 H   0  0  0  0  0  0  0  0  0  0  0  0
    2.0423    5.2675    0.0000 H   0  0  0  0  0  0  0  0  0  0  0  0
  1  9  1  0  0  0  0
  1 14  1  0  0  0  0
  2 11  1  0  0  0  0
  2 13  1  0  0  0  0
  3 12  1  0  0  0  0
  3 14  1  0  0  0  0
  4 18  2  0  0  0  0
  5 21  2  0  0  0  0
 13  6  1  6  0  0  0
  6 17  1  0  0  0  0
  6 18  1  0  0  0  0
  7 18  1  0  0  0  0
  7 20  2  0  0  0  0
  8 20  1  0  0  0  0
  8 21  1  0  0  0  0
  8 43  1  0  0  0  0
  9 10  1  0  0  0  0
  9 11  1  0  0  0  0
  9 12  1  0  0  0  0
 10 13  1  0  0  0  0
 10 28  1  0  0  0  0
 10 29  1  0  0  0  0
 11 30  1  0  0  0  0
 11 31  1  0  0  0  0
 12 32  1  0  0  0  0
 12 33  1  0  0  0  0
 13 34  1  0  0  0  0
 14 15  1  0  0  0  0
 14 16  1  0  0  0  0
 15 35  1  0  0  0  0
 15 36  1  0  0  0  0
 15 37  1  0  0  0  0
 16 38  1  0  0  0  0
 16 39  1  0  0  0  0
 16 40  1  0  0  0  0
 17 19  2  0  0  0  0
 17 41  1  0  0  0  0
 19 20  1  0  0  0  0
 19 42  1  0  0  0  0
 21 22  1  0  0  0  0
 22 23  2  0  0  0  0
 22 24  1  0  0  0  0
 23 25  1  0  0  0  0
 23 44  1  0  0  0  0
 24 26  2  0  0  0  0
 24 45  1  0  0  0  0
 25 27  2  0  0  0  0
 25 46  1  0  0  0  0
 26 27  1  0  0  0  0
 26 47  1  0  0  0  0
 27 48  1  0  0  0  0
M  END
> <PUBCHEM_COMPOUND_CID>
504297
> <PUBCHEM_COMPOUND_CANONICALIZED>
1
> <PUBCHEM_CACTVS_COMPLEXITY>
683
> <PUBCHEM_CACTVS_HBOND_ACCEPTOR>
5
> <PUBCHEM_CACTVS_HBOND_DONOR>
1
> <PUBCHEM_CACTVS_ROTATABLE_BOND>
3
> <PUBCHEM_CACTVS_SUBSKEYS>
AAADceB7OAAAAAAAAAAAAAAAAAAAASJAAAAwQAAAAAAAAAABAAAAHgAQAAAADEThmAYzCIPABACoAiN2dACCAAEkAgAJiAEYBNiZIDKAnRGuIQhnlgKOiYd4iACOAAAAAAAAAAAAAAAAAAAAAAAAAAAAAA==
> <PUBCHEM_IUPAC_OPENEYE_NAME>
N-[1-[(8R)-2,2-dimethyl-1,3,7-trioxaspiro[4.4]nonan-8-yl]-2-oxo-pyrimidin-4-yl]benzamide
> <PUBCHEM_IUPAC_CAS_NAME>
N-[1-[(8R)-2,2-dimethyl-1,3,7-trioxaspiro[4.4]nonan-8-yl]-2-oxo-4-pyrimidinyl]benzamide
> <PUBCHEM_IUPAC_NAME_MARKUP>
<I>N</I>-[1-[(8<I>R</I>)-2,2-dimethyl-1,3,7-trioxaspiro[4.4]nonan-8-yl]-2-oxopyrimidin-4-yl]benzamide
> <PUBCHEM_IUPAC_NAME>
N-[1-[(8R)-2,2-dimethyl-1,3,7-trioxaspiro[4.4]nonan-8-yl]-2-oxopyrimidin-4-yl]benzamide
> <PUBCHEM_IUPAC_SYSTEMATIC_NAME>
N-[1-[(8R)-2,2-dimethyl-1,3,7-trioxaspiro[4.4]nonan-8-yl]-2-oxidanylidene-pyrimidin-4-yl]benzamide
> <PUBCHEM_IUPAC_TRADITIONAL_NAME>
N-[1-[(8R)-2,2-dimethyl-1,3,7-trioxaspiro[4.4]nonan-8-yl]-2-keto-pyrimidin-4-yl]benzamide
> <PUBCHEM_IUPAC_INCHI>
InChI=1S/C19H21N3O5/c1-18(2)26-12-19(27-18)10-15(25-11-19)22-9-8-14(21-17(22)24)20-16(23)13-6-4-3-5-7-13/h3-9,15H,10-12H2,1-2H3,(H,20,21,23,24)/t15-,19?/m1/s1
> <PUBCHEM_IUPAC_INCHIKEY>
JSVVUJZKVCURAU-NYRJJRHWSA-N
> <PUBCHEM_XLOGP3_AA>
0.9
> <PUBCHEM_EXACT_MASS>
371.14812078
> <PUBCHEM_MOLECULAR_FORMULA>
C19H21N3O5
> <PUBCHEM_MOLECULAR_WEIGHT>
371.4
> <PUBCHEM_OPENEYE_CAN_SMILES>
CC1(OCC2(O1)CC(OC2)N3C=CC(=NC3=O)NC(=O)C4=CC=CC=C4)C
> <PUBCHEM_OPENEYE_ISO_SMILES>
CC1(OCC2(O1)C[C@@H](OC2)N3C=CC(=NC3=O)NC(=O)C4=CC=CC=C4)C
> <PUBCHEM_CACTVS_TPSA>
89.5
> <PUBCHEM_MONOISOTOPIC_WEIGHT>
371.14812078
> <PUBCHEM_TOTAL_CHARGE>
0
> <PUBCHEM_HEAVY_ATOM_COUNT>
27
> <PUBCHEM_ATOM_DEF_STEREO_COUNT>
1
> <PUBCHEM_ATOM_UDEF_STEREO_COUNT>
1
> <PUBCHEM_BOND_DEF_STEREO_COUNT>
0
> <PUBCHEM_BOND_UDEF_STEREO_COUNT>
0
> <PUBCHEM_ISOTOPIC_ATOM_COUNT>
0
> <PUBCHEM_COMPONENT_COUNT>
1
> <PUBCHEM_CACTVS_TAUTO_COUNT>
-1
> <PUBCHEM_COORDINATE_TYPE>
1
5
255
> <PUBCHEM_BONDANNOTATIONS>
17  19  8
19  20  8
22  23  8
22  24  8
23  25  8
24  26  8
25  27  8
26  27  8
13  6  6
6  17  8
6  18  8
7  18  8
7  20  8
9  10  3
$$$$
