504251
  -OEChem-10302200282D
 21 21  0     1  0  0  0  0  0999 V2000
    2.8090    0.6113    0.0000 O   0  0  0  0  0  0  0  0  0  0  0  0
    4.2418   -1.7353    0.0000 O   0  0  0  0  0  0  0  0  0  0  0  0
    5.9360   -1.3752    0.0000 O   0  0  0  0  0  0  0  0  0  0  0  0
    6.4712    0.2721    0.0000 O   0  0  0  0  0  0  0  0  0  0  0  0
    4.5691    0.8901    0.0000 N   0  0  0  0  0  0  0  0  0  0  0  0
    4.7770   -0.0880    0.0000 C   0  0  1  0  0  0  0  0  0  0  0  0
    4.0339   -0.7572    0.0000 C   0  0  0  0  0  0  0  0  0  0  0  0
    3.6180    1.1991    0.0000 C   0  0  0  0  0  0  0  0  0  0  0  0
    5.7281   -0.3971    0.0000 C   0  0  0  0  0  0  0  0  0  0  0  0
    3.3090    2.1502    0.0000 C   0  0  0  0  0  0  0  0  0  0  0  0
    2.3090    2.1502    0.0000 C   0  0  0  0  0  0  0  0  0  0  0  0
    2.0000    1.1991    0.0000 C   0  0  0  0  0  0  0  0  0  0  0  0
    5.2378    0.3268    0.0000 H   0  0  0  0  0  0  0  0  0  0  0  0
    5.0298    1.3050    0.0000 H   0  0  0  0  0  0  0  0  0  0  0  0
    3.7053   -0.2314    0.0000 H   0  0  0  0  0  0  0  0  0  0  0  0
    3.4590   -0.9894    0.0000 H   0  0  0  0  0  0  0  0  0  0  0  0
    3.6734    2.6518    0.0000 H   0  0  0  0  0  0  0  0  0  0  0  0
    1.9446    2.6518    0.0000 H   0  0  0  0  0  0  0  0  0  0  0  0
    1.4103    1.0075    0.0000 H   0  0  0  0  0  0  0  0  0  0  0  0
    3.7810   -2.1502    0.0000 H   0  0  0  0  0  0  0  0  0  0  0  0
    6.5256   -1.5668    0.0000 H   0  0  0  0  0  0  0  0  0  0  0  0
  1  8  1  0  0  0  0
  1 12  1  0  0  0  0
  2  7  1  0  0  0  0
  2 20  1  0  0  0  0
  3  9  1  0  0  0  0
  3 21  1  0  0  0  0
  4  9  2  0  0  0  0
  6  5  1  6  0  0  0
  5  8  1  0  0  0  0
  5 14  1  0  0  0  0
  6  7  1  0  0  0  0
  6  9  1  0  0  0  0
  6 13  1  0  0  0  0
  7 15  1  0  0  0  0
  7 16  1  0  0  0  0
  8 10  2  0  0  0  0
 10 11  1  0  0  0  0
 10 17  1  0  0  0  0
 11 12  2  0  0  0  0
 11 18  1  0  0  0  0
 12 19  1  0  0  0  0
M  END
> <PUBCHEM_COMPOUND_CID>
504251
> <PUBCHEM_COMPOUND_CANONICALIZED>
1
> <PUBCHEM_CACTVS_COMPLEXITY>
162
> <PUBCHEM_CACTVS_HBOND_ACCEPTOR>
5
> <PUBCHEM_CACTVS_HBOND_DONOR>
3
> <PUBCHEM_CACTVS_ROTATABLE_BOND>
4
> <PUBCHEM_CACTVS_SUBSKEYS>
AAADccBiOAAAAAAAAAAAAAAAAAAAASAAAAAAAAAAAAAAAAABgAAAHgAQCAAACCjhkAYwjILABkCIACnS2ACCCAAtIgAIiIGObMkONhREpasOWSjFdhHQYYAkAAAAAAAAAAAAAAAAAAAAAAAAAAAAAAAAAA==
> <PUBCHEM_IUPAC_OPENEYE_NAME>
(2S)-2-(2-furylamino)-3-hydroxy-propanoic acid
> <PUBCHEM_IUPAC_CAS_NAME>
(2S)-2-(2-furanylamino)-3-hydroxypropanoic acid
> <PUBCHEM_IUPAC_NAME_MARKUP>
(2<I>S</I>)-2-(furan-2-ylamino)-3-hydroxypropanoic acid
> <PUBCHEM_IUPAC_NAME>
(2S)-2-(furan-2-ylamino)-3-hydroxypropanoic acid
> <PUBCHEM_IUPAC_SYSTEMATIC_NAME>
(2S)-2-(furan-2-ylamino)-3-oxidanyl-propanoic acid
> <PUBCHEM_IUPAC_TRADITIONAL_NAME>
(2S)-2-(2-furylamino)-3-hydroxy-propionic acid
> <PUBCHEM_IUPAC_INCHI>
InChI=1S/C7H9NO4/c9-4-5(7(10)11)8-6-2-1-3-12-6/h1-3,5,8-9H,4H2,(H,10,11)/t5-/m0/s1
> <PUBCHEM_IUPAC_INCHIKEY>
JJRNTGNTJHYEHG-YFKPBYRVSA-N
> <PUBCHEM_XLOGP3_AA>
0.2
> <PUBCHEM_EXACT_MASS>
171.05315777
> <PUBCHEM_MOLECULAR_FORMULA>
C7H9NO4
> <PUBCHEM_MOLECULAR_WEIGHT>
171.15
> <PUBCHEM_OPENEYE_CAN_SMILES>
C1=COC(=C1)NC(CO)C(=O)O
> <PUBCHEM_OPENEYE_ISO_SMILES>
C1=COC(=C1)N[C@@H](CO)C(=O)O
> <PUBCHEM_CACTVS_TPSA>
82.7
> <PUBCHEM_MONOISOTOPIC_WEIGHT>
171.05315777
> <PUBCHEM_TOTAL_CHARGE>
0
> <PUBCHEM_HEAVY_ATOM_COUNT>
12
> <PUBCHEM_ATOM_DEF_STEREO_COUNT>
1
> <PUBCHEM_ATOM_UDEF_STEREO_COUNT>
0
> <PUBCHEM_BOND_DEF_STEREO_COUNT>
0
> <PUBCHEM_BOND_UDEF_STEREO_COUNT>
0
> <PUBCHEM_ISOTOPIC_ATOM_COUNT>
0
> <PUBCHEM_COMPONENT_COUNT>
1
> <PUBCHEM_CACTVS_TAUTO_COUNT>
-1
> <PUBCHEM_COORDINATE_TYPE>
1
5
255
> <PUBCHEM_BONDANNOTATIONS>
1  12  8
1  8  8
10  11  8
11  12  8
6  5  6
8  10  8
$$$$
