504275
  -OEChem-10302200282D
 60 62  0     1  0  0  0  0  0999 V2000
    4.5092    0.8566    0.0000 N   0  0  0  0  0  0  0  0  0  0  0  0
    3.7310   -1.6721    0.0000 N   0  0  0  0  0  0  0  0  0  0  0  0
    7.9424    3.2604    0.0000 C   0  0  0  0  0  0  0  0  0  0  0  0
    6.5434    3.2516    0.0000 C   0  0  1  0  0  0  0  0  0  0  0  0
    6.8022    4.2175    0.0000 C   0  0  2  0  0  0  0  0  0  0  0  0
    6.0656    5.2002    0.0000 C   0  0  0  0  0  0  0  0  0  0  0  0
    5.3224    2.3859    0.0000 C   0  0  1  0  0  0  0  0  0  0  0  0
    4.7690    3.9064    0.0000 C   0  0  0  0  0  0  0  0  0  0  0  0
    4.4934    2.9451    0.0000 C   0  0  0  0  0  0  0  0  0  0  0  0
    8.8084    3.7604    0.0000 C   0  0  0  0  0  0  0  0  0  0  0  0
    8.4424    2.3944    0.0000 C   0  0  0  0  0  0  0  0  0  0  0  0
    5.3573    1.3866    0.0000 C   0  0  0  0  0  0  0  0  0  0  0  0
    4.5441   -0.1427    0.0000 C   0  0  0  0  0  0  0  0  0  0  0  0
    3.6961   -0.6727    0.0000 C   0  0  0  0  0  0  0  0  0  0  0  0
    2.9178   -3.2014    0.0000 C   0  0  0  0  0  0  0  0  0  0  0  0
    2.8830   -2.2020    0.0000 C   0  0  2  0  0  0  0  0  0  0  0  0
    2.0698   -3.7313    0.0000 C   0  0  0  0  0  0  0  0  0  0  0  0
    3.8008   -3.6708    0.0000 C   0  0  0  0  0  0  0  0  0  0  0  0
    2.1047   -4.7307    0.0000 C   0  0  0  0  0  0  0  0  0  0  0  0
    3.8357   -4.6702    0.0000 C   0  0  0  0  0  0  0  0  0  0  0  0
    2.9876   -5.2002    0.0000 C   0  0  0  0  0  0  0  0  0  0  0  0
    2.0000   -1.7325    0.0000 C   0  0  0  0  0  0  0  0  0  0  0  0
    6.3234    2.4306    0.0000 H   0  0  0  0  0  0  0  0  0  0  0  0
    7.0222    5.0386    0.0000 H   0  0  0  0  0  0  0  0  0  0  0  0
    6.3834    5.7325    0.0000 H   0  0  0  0  0  0  0  0  0  0  0  0
    5.4525    5.2921    0.0000 H   0  0  0  0  0  0  0  0  0  0  0  0
    4.7801    2.0854    0.0000 H   0  0  0  0  0  0  0  0  0  0  0  0
    4.7639    4.5264    0.0000 H   0  0  0  0  0  0  0  0  0  0  0  0
    4.1547    3.9902    0.0000 H   0  0  0  0  0  0  0  0  0  0  0  0
    3.9185    3.1774    0.0000 H   0  0  0  0  0  0  0  0  0  0  0  0
    4.2023    2.3977    0.0000 H   0  0  0  0  0  0  0  0  0  0  0  0
    9.1184    3.2235    0.0000 H   0  0  0  0  0  0  0  0  0  0  0  0
    9.3453    4.0704    0.0000 H   0  0  0  0  0  0  0  0  0  0  0  0
    8.4984    4.2974    0.0000 H   0  0  0  0  0  0  0  0  0  0  0  0
    7.9054    2.0844    0.0000 H   0  0  0  0  0  0  0  0  0  0  0  0
    8.7524    1.8575    0.0000 H   0  0  0  0  0  0  0  0  0  0  0  0
    8.9793    2.7044    0.0000 H   0  0  0  0  0  0  0  0  0  0  0  0
    5.5896    0.8117    0.0000 H   0  0  0  0  0  0  0  0  0  0  0  0
    5.9637    1.5155    0.0000 H   0  0  0  0  0  0  0  0  0  0  0  0
    3.9618    1.1477    0.0000 H   0  0  0  0  0  0  0  0  0  0  0  0
    4.7764   -0.7176    0.0000 H   0  0  0  0  0  0  0  0  0  0  0  0
    5.1506   -0.0138    0.0000 H   0  0  0  0  0  0  0  0  0  0  0  0
    3.4638   -0.0978    0.0000 H   0  0  0  0  0  0  0  0  0  0  0  0
    3.0896   -0.8016    0.0000 H   0  0  0  0  0  0  0  0  0  0  0  0
    2.3704   -2.9103    0.0000 H   0  0  0  0  0  0  0  0  0  0  0  0
    3.4304   -2.4931    0.0000 H   0  0  0  0  0  0  0  0  0  0  0  0
    1.8375   -3.1564    0.0000 H   0  0  0  0  0  0  0  0  0  0  0  0
    1.4634   -3.8602    0.0000 H   0  0  0  0  0  0  0  0  0  0  0  0
    4.4148   -3.7571    0.0000 H   0  0  0  0  0  0  0  0  0  0  0  0
    3.9924   -3.0812    0.0000 H   0  0  0  0  0  0  0  0  0  0  0  0
    4.2784   -1.9631    0.0000 H   0  0  0  0  0  0  0  0  0  0  0  0
    1.4907   -4.6444    0.0000 H   0  0  0  0  0  0  0  0  0  0  0  0
    1.9131   -5.3203    0.0000 H   0  0  0  0  0  0  0  0  0  0  0  0
    4.0680   -5.2451    0.0000 H   0  0  0  0  0  0  0  0  0  0  0  0
    4.4422   -4.5413    0.0000 H   0  0  0  0  0  0  0  0  0  0  0  0
    2.6059   -5.6887    0.0000 H   0  0  0  0  0  0  0  0  0  0  0  0
    3.4025   -5.6609    0.0000 H   0  0  0  0  0  0  0  0  0  0  0  0
    2.2911   -1.1851    0.0000 H   0  0  0  0  0  0  0  0  0  0  0  0
    1.4526   -1.4414    0.0000 H   0  0  0  0  0  0  0  0  0  0  0  0
    1.7089   -2.2799    0.0000 H   0  0  0  0  0  0  0  0  0  0  0  0
  1 12  1  0  0  0  0
  1 13  1  0  0  0  0
  1 40  1  0  0  0  0
  2 14  1  0  0  0  0
 16  2  1  6  0  0  0
  2 51  1  0  0  0  0
  3  4  1  0  0  0  0
  3  5  1  0  0  0  0
  3 10  1  0  0  0  0
  3 11  1  0  0  0  0
  4  6  1  0  0  0  0
  4  7  1  0  0  0  0
  4 23  1  1  0  0  0
  5  6  1  0  0  0  0
  5  8  1  0  0  0  0
  5 24  1  6  0  0  0
  6 25  1  0  0  0  0
  6 26  1  0  0  0  0
  7  9  1  0  0  0  0
  7 12  1  6  0  0  0
  7 27  1  0  0  0  0
  8  9  1  0  0  0  0
  8 28  1  0  0  0  0
  8 29  1  0  0  0  0
  9 30  1  0  0  0  0
  9 31  1  0  0  0  0
 10 32  1  0  0  0  0
 10 33  1  0  0  0  0
 10 34  1  0  0  0  0
 11 35  1  0  0  0  0
 11 36  1  0  0  0  0
 11 37  1  0  0  0  0
 12 38  1  0  0  0  0
 12 39  1  0  0  0  0
 13 14  1  0  0  0  0
 13 41  1  0  0  0  0
 13 42  1  0  0  0  0
 14 43  1  0  0  0  0
 14 44  1  0  0  0  0
 15 16  1  0  0  0  0
 15 17  1  0  0  0  0
 15 18  1  0  0  0  0
 15 45  1  0  0  0  0
 16 22  1  0  0  0  0
 16 46  1  0  0  0  0
 17 19  1  0  0  0  0
 17 47  1  0  0  0  0
 17 48  1  0  0  0  0
 18 20  1  0  0  0  0
 18 49  1  0  0  0  0
 18 50  1  0  0  0  0
 19 21  1  0  0  0  0
 19 52  1  0  0  0  0
 19 53  1  0  0  0  0
 20 21  1  0  0  0  0
 20 54  1  0  0  0  0
 20 55  1  0  0  0  0
 21 56  1  0  0  0  0
 21 57  1  0  0  0  0
 22 58  1  0  0  0  0
 22 59  1  0  0  0  0
 22 60  1  0  0  0  0
M  END
> <PUBCHEM_COMPOUND_CID>
504275
> <PUBCHEM_COMPOUND_CANONICALIZED>
1
> <PUBCHEM_CACTVS_COMPLEXITY>
346
> <PUBCHEM_CACTVS_HBOND_ACCEPTOR>
2
> <PUBCHEM_CACTVS_HBOND_DONOR>
2
> <PUBCHEM_CACTVS_ROTATABLE_BOND>
7
> <PUBCHEM_CACTVS_SUBSKEYS>
AAADcfB7AAAAAAAAAAAAAAAAAABgAAAAAAAwYMAAAAAAAAAAAAAAHAAQAAAADyjBAAQCAALAAAAAAAAAAAAAAAAAAAAAAIAIAAAAQAIAgAAUAAAAEACAAAEQgMAPgAAAAAAAAACAAAQAACAAAAAAAAAAAA==
> <PUBCHEM_IUPAC_OPENEYE_NAME>
N'-[(1S)-1-cyclohexylethyl]-N-[[(1S,2R,5S)-6,6-dimethylnorpinan-2-yl]methyl]ethane-1,2-diamine
> <PUBCHEM_IUPAC_CAS_NAME>
N'-[(1S)-1-cyclohexylethyl]-N-[[(1S,2R,5S)-6,6-dimethyl-2-bicyclo[3.1.1]heptanyl]methyl]ethane-1,2-diamine
> <PUBCHEM_IUPAC_NAME_MARKUP>
<I>N</I>&apos;-[(1<I>S</I>)-1-cyclohexylethyl]-<I>N</I>-[[(1<I>S</I>,2<I>R</I>,5<I>S</I>)-6,6-dimethyl-2-bicyclo[3.1.1]heptanyl]methyl]ethane-1,2-diamine
> <PUBCHEM_IUPAC_NAME>
N'-[(1S)-1-cyclohexylethyl]-N-[[(1S,2R,5S)-6,6-dimethyl-2-bicyclo[3.1.1]heptanyl]methyl]ethane-1,2-diamine
> <PUBCHEM_IUPAC_SYSTEMATIC_NAME>
N'-[(1S)-1-cyclohexylethyl]-N-[[(1S,2R,5S)-6,6-dimethyl-2-bicyclo[3.1.1]heptanyl]methyl]ethane-1,2-diamine
> <PUBCHEM_IUPAC_TRADITIONAL_NAME>
[(1S)-1-cyclohexylethyl]-[2-[[(1S,2R,5S)-6,6-dimethylnorpinan-2-yl]methylamino]ethyl]amine
> <PUBCHEM_IUPAC_INCHI>
InChI=1S/C20H38N2/c1-15(16-7-5-4-6-8-16)22-12-11-21-14-17-9-10-18-13-19(17)20(18,2)3/h15-19,21-22H,4-14H2,1-3H3/t15-,17-,18-,19-/m0/s1
> <PUBCHEM_IUPAC_INCHIKEY>
WYDJGOJEGQFSAX-WNHJNPCNSA-N
> <PUBCHEM_XLOGP3_AA>
5.1
> <PUBCHEM_EXACT_MASS>
306.303499221
> <PUBCHEM_MOLECULAR_FORMULA>
C20H38N2
> <PUBCHEM_MOLECULAR_WEIGHT>
306.5
> <PUBCHEM_OPENEYE_CAN_SMILES>
CC(C1CCCCC1)NCCNCC2CCC3CC2C3(C)C
> <PUBCHEM_OPENEYE_ISO_SMILES>
C[C@@H](C1CCCCC1)NCCNC[C@@H]2CC[C@H]3C[C@@H]2C3(C)C
> <PUBCHEM_CACTVS_TPSA>
24.1
> <PUBCHEM_MONOISOTOPIC_WEIGHT>
306.303499221
> <PUBCHEM_TOTAL_CHARGE>
0
> <PUBCHEM_HEAVY_ATOM_COUNT>
22
> <PUBCHEM_ATOM_DEF_STEREO_COUNT>
4
> <PUBCHEM_ATOM_UDEF_STEREO_COUNT>
0
> <PUBCHEM_BOND_DEF_STEREO_COUNT>
0
> <PUBCHEM_BOND_UDEF_STEREO_COUNT>
0
> <PUBCHEM_ISOTOPIC_ATOM_COUNT>
0
> <PUBCHEM_COMPONENT_COUNT>
1
> <PUBCHEM_CACTVS_TAUTO_COUNT>
-1
> <PUBCHEM_COORDINATE_TYPE>
1
5
255
> <PUBCHEM_BONDANNOTATIONS>
16  2  6
4  23  5
5  24  6
7  12  6
$$$$
