504217
  -OEChem-10302200282D
 93 99  0     1  0  0  0  0  0999 V2000
    3.9234   -1.2323    0.0000 Cl  0  0  0  0  0  0  0  0  0  0  0  0
   11.3108    0.9440    0.0000 O   0  0  0  0  0  0  0  0  0  0  0  0
    9.9765    1.8440    0.0000 O   0  0  0  0  0  0  0  0  0  0  0  0
    8.6398   -1.5769    0.0000 O   0  0  0  0  0  0  0  0  0  0  0  0
    7.6295   -2.7371    0.0000 O   0  0  0  0  0  0  0  0  0  0  0  0
    8.7606    0.1509    0.0000 N   0  0  0  0  0  0  0  0  0  0  0  0
    6.5655   -1.3704    0.0000 N   0  0  0  0  0  0  0  0  0  0  0  0
    4.9873   -2.5990    0.0000 N   0  0  0  0  0  0  0  0  0  0  0  0
    6.0513   -3.9657    0.0000 N   0  0  0  0  0  0  0  0  0  0  0  0
   12.8083    2.7646    0.0000 C   0  0  3  0  0  0  0  0  0  0  0  0
   14.2073    2.7734    0.0000 C   0  0  0  0  0  0  0  0  0  0  0  0
   13.0672    3.7305    0.0000 C   0  0  3  0  0  0  0  0  0  0  0  0
   11.5873    1.8989    0.0000 C   0  0  2  0  0  0  0  0  0  0  0  0
   12.3305    4.7131    0.0000 C   0  0  0  0  0  0  0  0  0  0  0  0
   11.0339    3.4194    0.0000 C   0  0  0  0  0  0  0  0  0  0  0  0
   10.7583    2.4581    0.0000 C   0  0  3  0  0  0  0  0  0  0  0  0
   15.0733    3.2734    0.0000 C   0  0  0  0  0  0  0  0  0  0  0  0
   14.7073    1.9074    0.0000 C   0  0  0  0  0  0  0  0  0  0  0  0
   12.4164    1.3397    0.0000 C   0  0  0  0  0  0  0  0  0  0  0  0
    9.7581    0.0812    0.0000 C   0  0  1  0  0  0  0  0  0  0  0  0
   10.1965   -0.8176    0.0000 C   0  0  0  0  0  0  0  0  0  0  0  0
    8.2014   -0.6781    0.0000 C   0  0  0  0  0  0  0  0  0  0  0  0
    9.6373   -1.6467    0.0000 C   0  0  0  0  0  0  0  0  0  0  0  0
    7.2038   -0.6084    0.0000 C   0  0  2  0  0  0  0  0  0  0  0  0
    6.6778    0.2351    0.0000 C   0  0  0  0  0  0  0  0  0  0  0  0
    5.7126   -0.0029    0.0000 C   0  0  2  0  0  0  0  0  0  0  0  0
    5.6390   -0.9942    0.0000 C   0  0  0  0  0  0  0  0  0  0  0  0
   10.0757   -2.5455    0.0000 C   0  0  0  0  0  0  0  0  0  0  0  0
    4.9488    0.6426    0.0000 C   0  0  0  0  0  0  0  0  0  0  0  0
    6.7030   -2.3609    0.0000 C   0  0  0  0  0  0  0  0  0  0  0  0
    4.8499   -1.6085    0.0000 C   0  0  0  0  0  0  0  0  0  0  0  0
    5.1258    1.6268    0.0000 C   0  0  0  0  0  0  0  0  0  0  0  0
    5.9139   -2.9752    0.0000 C   0  0  0  0  0  0  0  0  0  0  0  0
    4.3620    2.2722    0.0000 C   0  0  0  0  0  0  0  0  0  0  0  0
    4.5391    3.2564    0.0000 C   0  0  0  0  0  0  0  0  0  0  0  0
    5.2623   -4.5800    0.0000 C   0  0  0  0  0  0  0  0  0  0  0  0
    3.7753    3.9018    0.0000 C   0  0  0  0  0  0  0  0  0  0  0  0
    5.4799    3.5952    0.0000 C   0  0  0  0  0  0  0  0  0  0  0  0
    3.9523    4.8860    0.0000 C   0  0  0  0  0  0  0  0  0  0  0  0
    5.3997   -5.5705    0.0000 C   0  0  0  0  0  0  0  0  0  0  0  0
    5.6570    4.5794    0.0000 C   0  0  0  0  0  0  0  0  0  0  0  0
    2.8008    3.5339    0.0000 C   0  0  0  0  0  0  0  0  0  0  0  0
    4.8932    5.2248    0.0000 C   0  0  0  0  0  0  0  0  0  0  0  0
    3.1672    5.5705    0.0000 C   0  0  0  0  0  0  0  0  0  0  0  0
    2.0000    4.2001    0.0000 C   0  0  0  0  0  0  0  0  0  0  0  0
    2.1844    5.2252    0.0000 C   0  0  0  0  0  0  0  0  0  0  0  0
   10.3173    0.9102    0.0000 B   0  0  0  0  0  0  0  0  0  0  0  0
   12.9984    2.1744    0.0000 H   0  0  0  0  0  0  0  0  0  0  0  0
   13.5175    4.1566    0.0000 H   0  0  0  0  0  0  0  0  0  0  0  0
   12.6483    5.2454    0.0000 H   0  0  0  0  0  0  0  0  0  0  0  0
   11.7174    4.8050    0.0000 H   0  0  0  0  0  0  0  0  0  0  0  0
   11.0289    4.0393    0.0000 H   0  0  0  0  0  0  0  0  0  0  0  0
   10.4196    3.5031    0.0000 H   0  0  0  0  0  0  0  0  0  0  0  0
   10.2438    2.8041    0.0000 H   0  0  0  0  0  0  0  0  0  0  0  0
   15.3833    2.7364    0.0000 H   0  0  0  0  0  0  0  0  0  0  0  0
   15.6102    3.5834    0.0000 H   0  0  0  0  0  0  0  0  0  0  0  0
   14.7633    3.8103    0.0000 H   0  0  0  0  0  0  0  0  0  0  0  0
   14.1703    1.5974    0.0000 H   0  0  0  0  0  0  0  0  0  0  0  0
   15.0173    1.3704    0.0000 H   0  0  0  0  0  0  0  0  0  0  0  0
   15.2442    2.2174    0.0000 H   0  0  0  0  0  0  0  0  0  0  0  0
   12.0697    0.8257    0.0000 H   0  0  0  0  0  0  0  0  0  0  0  0
   12.9304    0.9930    0.0000 H   0  0  0  0  0  0  0  0  0  0  0  0
   12.7631    1.8537    0.0000 H   0  0  0  0  0  0  0  0  0  0  0  0
    9.4864    0.6384    0.0000 H   0  0  0  0  0  0  0  0  0  0  0  0
   10.6425   -1.2483    0.0000 H   0  0  0  0  0  0  0  0  0  0  0  0
   10.6981   -0.4532    0.0000 H   0  0  0  0  0  0  0  0  0  0  0  0
    8.4888    0.7082    0.0000 H   0  0  0  0  0  0  0  0  0  0  0  0
    9.0188   -1.6034    0.0000 H   0  0  0  0  0  0  0  0  0  0  0  0
    7.4463   -1.1790    0.0000 H   0  0  0  0  0  0  0  0  0  0  0  0
    7.2354    0.5061    0.0000 H   0  0  0  0  0  0  0  0  0  0  0  0
    6.4669    0.8182    0.0000 H   0  0  0  0  0  0  0  0  0  0  0  0
    5.1409   -0.2429    0.0000 H   0  0  0  0  0  0  0  0  0  0  0  0
    9.7290   -3.0595    0.0000 H   0  0  0  0  0  0  0  0  0  0  0  0
   10.6942   -2.5887    0.0000 H   0  0  0  0  0  0  0  0  0  0  0  0
    4.3669    0.8566    0.0000 H   0  0  0  0  0  0  0  0  0  0  0  0
    4.6369    0.1067    0.0000 H   0  0  0  0  0  0  0  0  0  0  0  0
    5.7077    1.4127    0.0000 H   0  0  0  0  0  0  0  0  0  0  0  0
    5.4377    2.1626    0.0000 H   0  0  0  0  0  0  0  0  0  0  0  0
    3.7801    2.4863    0.0000 H   0  0  0  0  0  0  0  0  0  0  0  0
    4.0502    1.7364    0.0000 H   0  0  0  0  0  0  0  0  0  0  0  0
    6.6258   -4.1990    0.0000 H   0  0  0  0  0  0  0  0  0  0  0  0
    4.9721   -4.0321    0.0000 H   0  0  0  0  0  0  0  0  0  0  0  0
    4.6723   -4.7706    0.0000 H   0  0  0  0  0  0  0  0  0  0  0  0
    5.9535    3.1950    0.0000 H   0  0  0  0  0  0  0  0  0  0  0  0
    4.7856   -5.6558    0.0000 H   0  0  0  0  0  0  0  0  0  0  0  0
    5.4849   -6.1847    0.0000 H   0  0  0  0  0  0  0  0  0  0  0  0
    6.0138   -5.4853    0.0000 H   0  0  0  0  0  0  0  0  0  0  0  0
    6.2403    4.7894    0.0000 H   0  0  0  0  0  0  0  0  0  0  0  0
    2.6981    2.9225    0.0000 H   0  0  0  0  0  0  0  0  0  0  0  0
    5.0030    5.8350    0.0000 H   0  0  0  0  0  0  0  0  0  0  0  0
    3.2840    6.1794    0.0000 H   0  0  0  0  0  0  0  0  0  0  0  0
    1.4175    3.9878    0.0000 H   0  0  0  0  0  0  0  0  0  0  0  0
    1.7124    5.6272    0.0000 H   0  0  0  0  0  0  0  0  0  0  0  0
  1 31  1  0  0  0  0
  2 13  1  0  0  0  0
  2 47  1  0  0  0  0
  3 16  1  0  0  0  0
  3 47  1  0  0  0  0
  4 22  2  0  0  0  0
  5 30  2  0  0  0  0
 20  6  1  6  0  0  0
  6 22  1  0  0  0  0
  6 67  1  0  0  0  0
  7 24  1  0  0  0  0
  7 27  1  0  0  0  0
  7 30  1  0  0  0  0
  8 31  1  0  0  0  0
  8 33  2  0  0  0  0
  9 33  1  0  0  0  0
  9 36  1  0  0  0  0
  9 81  1  0  0  0  0
 10 11  1  0  0  0  0
 10 13  1  0  0  0  0
 10 14  1  0  0  0  0
 10 48  1  0  0  0  0
 11 12  1  0  0  0  0
 11 17  1  0  0  0  0
 11 18  1  0  0  0  0
 12 14  1  0  0  0  0
 12 15  1  0  0  0  0
 12 49  1  0  0  0  0
 13 16  1  0  0  0  0
 13 19  1  6  0  0  0
 14 50  1  0  0  0  0
 14 51  1  0  0  0  0
 15 16  1  0  0  0  0
 15 52  1  0  0  0  0
 15 53  1  0  0  0  0
 16 54  1  0  0  0  0
 17 55  1  0  0  0  0
 17 56  1  0  0  0  0
 17 57  1  0  0  0  0
 18 58  1  0  0  0  0
 18 59  1  0  0  0  0
 18 60  1  0  0  0  0
 19 61  1  0  0  0  0
 19 62  1  0  0  0  0
 19 63  1  0  0  0  0
 20 21  1  0  0  0  0
 20 47  1  0  0  0  0
 20 64  1  0  0  0  0
 21 23  1  0  0  0  0
 21 65  1  0  0  0  0
 21 66  1  0  0  0  0
 24 22  1  1  0  0  0
 23 28  2  0  0  0  0
 23 68  1  0  0  0  0
 24 25  1  0  0  0  0
 24 69  1  0  0  0  0
 25 26  1  0  0  0  0
 25 70  1  0  0  0  0
 25 71  1  0  0  0  0
 26 27  1  0  0  0  0
 26 29  1  6  0  0  0
 26 72  1  0  0  0  0
 27 31  2  0  0  0  0
 28 73  1  0  0  0  0
 28 74  1  0  0  0  0
 29 32  1  0  0  0  0
 29 75  1  0  0  0  0
 29 76  1  0  0  0  0
 30 33  1  0  0  0  0
 32 34  1  0  0  0  0
 32 77  1  0  0  0  0
 32 78  1  0  0  0  0
 34 35  1  0  0  0  0
 34 79  1  0  0  0  0
 34 80  1  0  0  0  0
 35 37  1  0  0  0  0
 35 38  2  0  0  0  0
 36 40  1  0  0  0  0
 36 82  1  0  0  0  0
 36 83  1  0  0  0  0
 37 39  1  0  0  0  0
 37 42  2  0  0  0  0
 38 41  1  0  0  0  0
 38 84  1  0  0  0  0
 39 43  1  0  0  0  0
 39 44  2  0  0  0  0
 40 85  1  0  0  0  0
 40 86  1  0  0  0  0
 40 87  1  0  0  0  0
 41 43  2  0  0  0  0
 41 88  1  0  0  0  0
 42 45  1  0  0  0  0
 42 89  1  0  0  0  0
 43 90  1  0  0  0  0
 44 46  1  0  0  0  0
 44 91  1  0  0  0  0
 45 46  2  0  0  0  0
 45 92  1  0  0  0  0
 46 93  1  0  0  0  0
M  END
> <PUBCHEM_COMPOUND_CID>
504217
> <PUBCHEM_COMPOUND_CANONICALIZED>
1
> <PUBCHEM_CACTVS_COMPLEXITY>
1320
> <PUBCHEM_CACTVS_HBOND_ACCEPTOR>
5
> <PUBCHEM_CACTVS_HBOND_DONOR>
2
> <PUBCHEM_CACTVS_ROTATABLE_BOND>
11
> <PUBCHEM_CACTVS_SUBSKEYS>
AAADcfJ/uAAEAAAAAAAAAAAAAABgAWJAAAAwYMGCAAAAAEjBUAAoHgIQAAAAD37hmAYzAMPAAACoAidydAACAAEgAAAJiIGIAIgJYDKAmTCUIAAklgCIiAeYyfCPgAACAAAQAADAAAYAADCAAAAAAAAAAA==
> <PUBCHEM_IUPAC_OPENEYE_NAME>
(6S,8R)-1-chloro-3-(ethylamino)-8-[3-(1-naphthyl)propyl]-4-oxo-N-[(1R)-1-[(2R)-2,9,9-trimethyl-3,5-dioxa-4-boratricyclo[6.1.1.02,6]decan-4-yl]but-3-enyl]-7,8-dihydro-6H-pyrrolo[1,2-a]pyrazine-6-carboxamide
> <PUBCHEM_IUPAC_CAS_NAME>
(6S,8R)-1-chloro-3-(ethylamino)-8-[3-(1-naphthalenyl)propyl]-4-oxo-N-[(1R)-1-[(2R)-2,9,9-trimethyl-3,5-dioxa-4-boratricyclo[6.1.1.02,6]decan-4-yl]but-3-enyl]-7,8-dihydro-6H-pyrrolo[1,2-a]pyrazine-6-carboxamide
> <PUBCHEM_IUPAC_NAME_MARKUP>
(6<I>S</I>,8<I>R</I>)-1-chloro-3-(ethylamino)-8-(3-naphthalen-1-ylpropyl)-4-oxo-<I>N</I>-[(1<I>R</I>)-1-[(2<I>R</I>)-2,9,9-trimethyl-3,5-dioxa-4-boratricyclo[6.1.1.0<SUP>2,6</SUP>]decan-4-yl]but-3-enyl]-7,8-dihydro-6<I>H</I>-pyrrolo[1,2-a]pyrazine-6-carboxamide
> <PUBCHEM_IUPAC_NAME>
(6S,8R)-1-chloro-3-(ethylamino)-8-(3-naphthalen-1-ylpropyl)-4-oxo-N-[(1R)-1-[(2R)-2,9,9-trimethyl-3,5-dioxa-4-boratricyclo[6.1.1.02,6]decan-4-yl]but-3-enyl]-7,8-dihydro-6H-pyrrolo[1,2-a]pyrazine-6-carboxamide
> <PUBCHEM_IUPAC_SYSTEMATIC_NAME>
(6S,8R)-1-chloranyl-3-(ethylamino)-8-(3-naphthalen-1-ylpropyl)-4-oxidanylidene-N-[(1R)-1-[(2R)-2,9,9-trimethyl-3,5-dioxa-4-boratricyclo[6.1.1.02,6]decan-4-yl]but-3-enyl]-7,8-dihydro-6H-pyrrolo[1,2-a]pyrazine-6-carboxamide
> <PUBCHEM_IUPAC_TRADITIONAL_NAME>
(6S,8R)-1-chloro-3-(ethylamino)-4-keto-8-[3-(1-naphthyl)propyl]-N-[(1R)-1-[(2R)-2,9,9-trimethyl-3,5-dioxa-4-boratricyclo[6.1.1.02,6]decan-4-yl]but-3-enyl]-7,8-dihydro-6H-pyrrolo[1,2-a]pyrazine-6-carboxamide
> <PUBCHEM_IUPAC_INCHI>
InChI=1S/C37H46BClN4O4/c1-6-12-30(38-46-29-21-25-20-28(36(25,3)4)37(29,5)47-38)41-34(44)27-19-24(31-32(39)42-33(40-7-2)35(45)43(27)31)17-11-16-23-15-10-14-22-13-8-9-18-26(22)23/h6,8-10,13-15,18,24-25,27-30H,1,7,11-12,16-17,19-21H2,2-5H3,(H,40,42)(H,41,44)/t24-,25?,27+,28?,29?,30+,37-/m1/s1
> <PUBCHEM_IUPAC_INCHIKEY>
HHHDOOVBXIRKHB-SQOSPONPSA-N
> <PUBCHEM_EXACT_MASS>
656.3300638
> <PUBCHEM_MOLECULAR_FORMULA>
C37H46BClN4O4
> <PUBCHEM_MOLECULAR_WEIGHT>
657.0
> <PUBCHEM_OPENEYE_CAN_SMILES>
B1(OC2CC3CC(C3(C)C)C2(O1)C)C(CC=C)NC(=O)C4CC(C5=C(N=C(C(=O)N45)NCC)Cl)CCCC6=CC=CC7=CC=CC=C76
> <PUBCHEM_OPENEYE_ISO_SMILES>
B1(OC2CC3CC([C@]2(O1)C)C3(C)C)[C@H](CC=C)NC(=O)[C@@H]4C[C@H](C5=C(N=C(C(=O)N45)NCC)Cl)CCCC6=CC=CC7=CC=CC=C76
> <PUBCHEM_CACTVS_TPSA>
92.3
> <PUBCHEM_MONOISOTOPIC_WEIGHT>
656.3300638
> <PUBCHEM_TOTAL_CHARGE>
0
> <PUBCHEM_HEAVY_ATOM_COUNT>
47
> <PUBCHEM_ATOM_DEF_STEREO_COUNT>
4
> <PUBCHEM_ATOM_UDEF_STEREO_COUNT>
3
> <PUBCHEM_BOND_DEF_STEREO_COUNT>
0
> <PUBCHEM_BOND_UDEF_STEREO_COUNT>
0
> <PUBCHEM_ISOTOPIC_ATOM_COUNT>
0
> <PUBCHEM_COMPONENT_COUNT>
1
> <PUBCHEM_CACTVS_TAUTO_COUNT>
-1
> <PUBCHEM_COORDINATE_TYPE>
1
5
255
> <PUBCHEM_BONDANNOTATIONS>
10  14  3
12  14  3
13  19  6
16  15  3
24  22  5
26  29  6
27  31  8
30  33  8
35  37  8
35  38  8
37  39  8
37  42  8
38  41  8
39  43  8
39  44  8
41  43  8
42  45  8
44  46  8
45  46  8
20  6  6
7  27  8
7  30  8
8  31  8
8  33  8
$$$$
