504212
  -OEChem-10302200282D
102109  0     1  0  0  0  0  0999 V2000
    2.7769   -0.5750    0.0000 Cl  0  0  0  0  0  0  0  0  0  0  0  0
    7.1704   -7.0324    0.0000 F   0  0  0  0  0  0  0  0  0  0  0  0
    5.8676   -7.5827    0.0000 F   0  0  0  0  0  0  0  0  0  0  0  0
    6.6200   -5.7296    0.0000 F   0  0  0  0  0  0  0  0  0  0  0  0
   10.1644    1.6013    0.0000 O   0  0  0  0  0  0  0  0  0  0  0  0
    8.8301    2.5013    0.0000 O   0  0  0  0  0  0  0  0  0  0  0  0
    7.4933   -0.9196    0.0000 O   0  0  0  0  0  0  0  0  0  0  0  0
    6.4831   -2.0799    0.0000 O   0  0  0  0  0  0  0  0  0  0  0  0
    7.6141    0.8082    0.0000 N   0  0  0  0  0  0  0  0  0  0  0  0
    5.4191   -0.7131    0.0000 N   0  0  0  0  0  0  0  0  0  0  0  0
    3.8409   -1.9417    0.0000 N   0  0  0  0  0  0  0  0  0  0  0  0
    4.9049   -3.3084    0.0000 N   0  0  0  0  0  0  0  0  0  0  0  0
   11.6619    3.4218    0.0000 C   0  0  3  0  0  0  0  0  0  0  0  0
   13.0609    3.4306    0.0000 C   0  0  0  0  0  0  0  0  0  0  0  0
   11.9207    4.3878    0.0000 C   0  0  3  0  0  0  0  0  0  0  0  0
   10.4409    2.5562    0.0000 C   0  0  2  0  0  0  0  0  0  0  0  0
   11.1841    5.3704    0.0000 C   0  0  0  0  0  0  0  0  0  0  0  0
    9.8875    4.0766    0.0000 C   0  0  0  0  0  0  0  0  0  0  0  0
    9.6118    3.1154    0.0000 C   0  0  3  0  0  0  0  0  0  0  0  0
   13.9269    3.9306    0.0000 C   0  0  0  0  0  0  0  0  0  0  0  0
   13.5609    2.5646    0.0000 C   0  0  0  0  0  0  0  0  0  0  0  0
   11.2699    1.9970    0.0000 C   0  0  0  0  0  0  0  0  0  0  0  0
    8.6117    0.7384    0.0000 C   0  0  1  0  0  0  0  0  0  0  0  0
    9.0501   -0.1603    0.0000 C   0  0  0  0  0  0  0  0  0  0  0  0
    8.4909   -0.9894    0.0000 C   0  0  0  0  0  0  0  0  0  0  0  0
    7.0550   -0.0208    0.0000 C   0  0  0  0  0  0  0  0  0  0  0  0
    6.0574    0.0489    0.0000 C   0  0  2  0  0  0  0  0  0  0  0  0
    5.5313    0.8924    0.0000 C   0  0  0  0  0  0  0  0  0  0  0  0
    4.5662    0.6544    0.0000 C   0  0  2  0  0  0  0  0  0  0  0  0
    4.4925   -0.3369    0.0000 C   0  0  0  0  0  0  0  0  0  0  0  0
    3.8024    1.2998    0.0000 C   0  0  0  0  0  0  0  0  0  0  0  0
    5.5565   -1.7036    0.0000 C   0  0  0  0  0  0  0  0  0  0  0  0
    3.7035   -0.9512    0.0000 C   0  0  0  0  0  0  0  0  0  0  0  0
    3.9794    2.2840    0.0000 C   0  0  0  0  0  0  0  0  0  0  0  0
    4.7674   -2.3179    0.0000 C   0  0  0  0  0  0  0  0  0  0  0  0
    3.2156    2.9295    0.0000 C   0  0  0  0  0  0  0  0  0  0  0  0
    3.3926    3.9137    0.0000 C   0  0  0  0  0  0  0  0  0  0  0  0
    4.1158   -3.9228    0.0000 C   0  0  0  0  0  0  0  0  0  0  0  0
    2.6288    4.5591    0.0000 C   0  0  0  0  0  0  0  0  0  0  0  0
    4.3335    4.2525    0.0000 C   0  0  0  0  0  0  0  0  0  0  0  0
    4.2533   -4.9133    0.0000 C   0  0  0  0  0  0  0  0  0  0  0  0
    2.8059    5.5433    0.0000 C   0  0  0  0  0  0  0  0  0  0  0  0
    4.5106    5.2367    0.0000 C   0  0  0  0  0  0  0  0  0  0  0  0
    3.7468    5.8821    0.0000 C   0  0  0  0  0  0  0  0  0  0  0  0
    5.1798   -5.2895    0.0000 C   0  0  0  0  0  0  0  0  0  0  0  0
    3.4642   -5.5276    0.0000 C   0  0  0  0  0  0  0  0  0  0  0  0
    2.0000    6.2033    0.0000 C   0  0  0  0  0  0  0  0  0  0  0  0
    3.9470    6.9043    0.0000 C   0  0  0  0  0  0  0  0  0  0  0  0
    5.3173   -6.2800    0.0000 C   0  0  0  0  0  0  0  0  0  0  0  0
    2.1765    7.2298    0.0000 C   0  0  0  0  0  0  0  0  0  0  0  0
    3.6017   -6.5181    0.0000 C   0  0  0  0  0  0  0  0  0  0  0  0
    3.1566    7.5827    0.0000 C   0  0  0  0  0  0  0  0  0  0  0  0
    4.5282   -6.8943    0.0000 C   0  0  0  0  0  0  0  0  0  0  0  0
    6.2438   -6.6562    0.0000 C   0  0  0  0  0  0  0  0  0  0  0  0
    9.1709    1.5675    0.0000 B   0  0  0  0  0  0  0  0  0  0  0  0
   11.8519    2.8317    0.0000 H   0  0  0  0  0  0  0  0  0  0  0  0
   12.3710    4.8139    0.0000 H   0  0  0  0  0  0  0  0  0  0  0  0
   11.5019    5.9027    0.0000 H   0  0  0  0  0  0  0  0  0  0  0  0
   10.5710    5.4623    0.0000 H   0  0  0  0  0  0  0  0  0  0  0  0
    9.8824    4.6966    0.0000 H   0  0  0  0  0  0  0  0  0  0  0  0
    9.2732    4.1604    0.0000 H   0  0  0  0  0  0  0  0  0  0  0  0
    9.0974    3.4614    0.0000 H   0  0  0  0  0  0  0  0  0  0  0  0
   14.2369    3.3937    0.0000 H   0  0  0  0  0  0  0  0  0  0  0  0
   14.4638    4.2406    0.0000 H   0  0  0  0  0  0  0  0  0  0  0  0
   13.6169    4.4676    0.0000 H   0  0  0  0  0  0  0  0  0  0  0  0
   13.0239    2.2546    0.0000 H   0  0  0  0  0  0  0  0  0  0  0  0
   13.8709    2.0277    0.0000 H   0  0  0  0  0  0  0  0  0  0  0  0
   14.0978    2.8746    0.0000 H   0  0  0  0  0  0  0  0  0  0  0  0
   10.9232    1.4830    0.0000 H   0  0  0  0  0  0  0  0  0  0  0  0
   11.7839    1.6503    0.0000 H   0  0  0  0  0  0  0  0  0  0  0  0
   11.6166    2.5110    0.0000 H   0  0  0  0  0  0  0  0  0  0  0  0
    8.3399    1.2957    0.0000 H   0  0  0  0  0  0  0  0  0  0  0  0
    9.4961   -0.5910    0.0000 H   0  0  0  0  0  0  0  0  0  0  0  0
    9.5517    0.2041    0.0000 H   0  0  0  0  0  0  0  0  0  0  0  0
    7.3424    1.3654    0.0000 H   0  0  0  0  0  0  0  0  0  0  0  0
    7.9769   -0.6427    0.0000 H   0  0  0  0  0  0  0  0  0  0  0  0
    8.1442   -1.5034    0.0000 H   0  0  0  0  0  0  0  0  0  0  0  0
    9.0049   -1.3361    0.0000 H   0  0  0  0  0  0  0  0  0  0  0  0
    6.2999   -0.5217    0.0000 H   0  0  0  0  0  0  0  0  0  0  0  0
    6.0890    1.1634    0.0000 H   0  0  0  0  0  0  0  0  0  0  0  0
    5.3205    1.4754    0.0000 H   0  0  0  0  0  0  0  0  0  0  0  0
    3.9945    0.4144    0.0000 H   0  0  0  0  0  0  0  0  0  0  0  0
    3.2205    1.5139    0.0000 H   0  0  0  0  0  0  0  0  0  0  0  0
    3.4905    0.7640    0.0000 H   0  0  0  0  0  0  0  0  0  0  0  0
    4.5613    2.0700    0.0000 H   0  0  0  0  0  0  0  0  0  0  0  0
    4.2913    2.8199    0.0000 H   0  0  0  0  0  0  0  0  0  0  0  0
    2.6337    3.1436    0.0000 H   0  0  0  0  0  0  0  0  0  0  0  0
    2.9037    2.3936    0.0000 H   0  0  0  0  0  0  0  0  0  0  0  0
    5.4794   -3.5417    0.0000 H   0  0  0  0  0  0  0  0  0  0  0  0
    3.8257   -3.3748    0.0000 H   0  0  0  0  0  0  0  0  0  0  0  0
    3.5258   -4.1133    0.0000 H   0  0  0  0  0  0  0  0  0  0  0  0
    2.0455    4.3491    0.0000 H   0  0  0  0  0  0  0  0  0  0  0  0
    4.8071    3.8523    0.0000 H   0  0  0  0  0  0  0  0  0  0  0  0
    5.0939    5.4467    0.0000 H   0  0  0  0  0  0  0  0  0  0  0  0
    5.6691   -4.9086    0.0000 H   0  0  0  0  0  0  0  0  0  0  0  0
    2.8898   -5.2943    0.0000 H   0  0  0  0  0  0  0  0  0  0  0  0
    1.4191    5.9865    0.0000 H   0  0  0  0  0  0  0  0  0  0  0  0
    4.5327    7.1076    0.0000 H   0  0  0  0  0  0  0  0  0  0  0  0
    1.7014    7.6282    0.0000 H   0  0  0  0  0  0  0  0  0  0  0  0
    3.1124   -6.8989    0.0000 H   0  0  0  0  0  0  0  0  0  0  0  0
    3.2687    8.1925    0.0000 H   0  0  0  0  0  0  0  0  0  0  0  0
    4.6134   -7.5084    0.0000 H   0  0  0  0  0  0  0  0  0  0  0  0
  1 33  1  0  0  0  0
  2 54  1  0  0  0  0
  3 54  1  0  0  0  0
  4 54  1  0  0  0  0
  5 16  1  0  0  0  0
  5 55  1  0  0  0  0
  6 19  1  0  0  0  0
  6 55  1  0  0  0  0
  7 26  2  0  0  0  0
  8 32  2  0  0  0  0
 23  9  1  6  0  0  0
  9 26  1  0  0  0  0
  9 75  1  0  0  0  0
 10 27  1  0  0  0  0
 10 30  1  0  0  0  0
 10 32  1  0  0  0  0
 11 33  1  0  0  0  0
 11 35  2  0  0  0  0
 12 35  1  0  0  0  0
 12 38  1  0  0  0  0
 12 89  1  0  0  0  0
 13 14  1  0  0  0  0
 13 16  1  0  0  0  0
 13 17  1  0  0  0  0
 13 56  1  0  0  0  0
 14 15  1  0  0  0  0
 14 20  1  0  0  0  0
 14 21  1  0  0  0  0
 15 17  1  0  0  0  0
 15 18  1  0  0  0  0
 15 57  1  0  0  0  0
 16 19  1  0  0  0  0
 16 22  1  6  0  0  0
 17 58  1  0  0  0  0
 17 59  1  0  0  0  0
 18 19  1  0  0  0  0
 18 60  1  0  0  0  0
 18 61  1  0  0  0  0
 19 62  1  0  0  0  0
 20 63  1  0  0  0  0
 20 64  1  0  0  0  0
 20 65  1  0  0  0  0
 21 66  1  0  0  0  0
 21 67  1  0  0  0  0
 21 68  1  0  0  0  0
 22 69  1  0  0  0  0
 22 70  1  0  0  0  0
 22 71  1  0  0  0  0
 23 24  1  0  0  0  0
 23 55  1  0  0  0  0
 23 72  1  0  0  0  0
 24 25  1  0  0  0  0
 24 73  1  0  0  0  0
 24 74  1  0  0  0  0
 25 76  1  0  0  0  0
 25 77  1  0  0  0  0
 25 78  1  0  0  0  0
 27 26  1  1  0  0  0
 27 28  1  0  0  0  0
 27 79  1  0  0  0  0
 28 29  1  0  0  0  0
 28 80  1  0  0  0  0
 28 81  1  0  0  0  0
 29 30  1  0  0  0  0
 29 31  1  6  0  0  0
 29 82  1  0  0  0  0
 30 33  2  0  0  0  0
 31 34  1  0  0  0  0
 31 83  1  0  0  0  0
 31 84  1  0  0  0  0
 32 35  1  0  0  0  0
 34 36  1  0  0  0  0
 34 85  1  0  0  0  0
 34 86  1  0  0  0  0
 36 37  1  0  0  0  0
 36 87  1  0  0  0  0
 36 88  1  0  0  0  0
 37 39  2  0  0  0  0
 37 40  1  0  0  0  0
 38 41  1  0  0  0  0
 38 90  1  0  0  0  0
 38 91  1  0  0  0  0
 39 42  1  0  0  0  0
 39 92  1  0  0  0  0
 40 43  2  0  0  0  0
 40 93  1  0  0  0  0
 41 45  2  0  0  0  0
 41 46  1  0  0  0  0
 42 44  1  0  0  0  0
 42 47  2  0  0  0  0
 43 44  1  0  0  0  0
 43 94  1  0  0  0  0
 44 48  2  0  0  0  0
 45 49  1  0  0  0  0
 45 95  1  0  0  0  0
 46 51  2  0  0  0  0
 46 96  1  0  0  0  0
 47 50  1  0  0  0  0
 47 97  1  0  0  0  0
 48 52  1  0  0  0  0
 48 98  1  0  0  0  0
 49 53  2  0  0  0  0
 49 54  1  0  0  0  0
 50 52  2  0  0  0  0
 50 99  1  0  0  0  0
 51 53  1  0  0  0  0
 51100  1  0  0  0  0
 52101  1  0  0  0  0
 53102  1  0  0  0  0
M  END
> <PUBCHEM_COMPOUND_CID>
504212
> <PUBCHEM_COMPOUND_CANONICALIZED>
1
> <PUBCHEM_CACTVS_COMPLEXITY>
1540
> <PUBCHEM_CACTVS_HBOND_ACCEPTOR>
8
> <PUBCHEM_CACTVS_HBOND_DONOR>
2
> <PUBCHEM_CACTVS_ROTATABLE_BOND>
11
> <PUBCHEM_CACTVS_SUBSKEYS>
AAADcfJ/uYAEAAAAAAAAAAAAAABgAWJAAAAwYMGDAAAAAEjBVAAoHwIQAAAAD37hmBYzAMPAAACoAidydACCAAEgAAAJiIGIBIgJYDKAmTGUIAhklgCIiAeYyfCPwAACAAAQAADAAAYAADCAAAAAAAAAAA==
> <PUBCHEM_IUPAC_OPENEYE_NAME>
(6S,8R)-1-chloro-8-[3-(2-naphthyl)propyl]-4-oxo-3-[[3-(trifluoromethyl)phenyl]methylamino]-N-[(1R)-1-[(2R)-2,9,9-trimethyl-3,5-dioxa-4-boratricyclo[6.1.1.02,6]decan-4-yl]propyl]-7,8-dihydro-6H-pyrrolo[1,2-a]pyrazine-6-carboxamide
> <PUBCHEM_IUPAC_CAS_NAME>
(6S,8R)-1-chloro-8-[3-(2-naphthalenyl)propyl]-4-oxo-3-[[3-(trifluoromethyl)phenyl]methylamino]-N-[(1R)-1-[(2R)-2,9,9-trimethyl-3,5-dioxa-4-boratricyclo[6.1.1.02,6]decan-4-yl]propyl]-7,8-dihydro-6H-pyrrolo[1,2-a]pyrazine-6-carboxamide
> <PUBCHEM_IUPAC_NAME_MARKUP>
(6<I>S</I>,8<I>R</I>)-1-chloro-8-(3-naphthalen-2-ylpropyl)-4-oxo-3-[[3-(trifluoromethyl)phenyl]methylamino]-<I>N</I>-[(1<I>R</I>)-1-[(2<I>R</I>)-2,9,9-trimethyl-3,5-dioxa-4-boratricyclo[6.1.1.0<SUP>2,6</SUP>]decan-4-yl]propyl]-7,8-dihydro-6<I>H</I>-pyrrolo[1,2-a]pyrazine-6-carboxamide
> <PUBCHEM_IUPAC_NAME>
(6S,8R)-1-chloro-8-(3-naphthalen-2-ylpropyl)-4-oxo-3-[[3-(trifluoromethyl)phenyl]methylamino]-N-[(1R)-1-[(2R)-2,9,9-trimethyl-3,5-dioxa-4-boratricyclo[6.1.1.02,6]decan-4-yl]propyl]-7,8-dihydro-6H-pyrrolo[1,2-a]pyrazine-6-carboxamide
> <PUBCHEM_IUPAC_SYSTEMATIC_NAME>
(6S,8R)-1-chloranyl-8-(3-naphthalen-2-ylpropyl)-4-oxidanylidene-3-[[3-(trifluoromethyl)phenyl]methylamino]-N-[(1R)-1-[(2R)-2,9,9-trimethyl-3,5-dioxa-4-boratricyclo[6.1.1.02,6]decan-4-yl]propyl]-7,8-dihydro-6H-pyrrolo[1,2-a]pyrazine-6-carboxamide
> <PUBCHEM_IUPAC_TRADITIONAL_NAME>
(6S,8R)-1-chloro-4-keto-8-[3-(2-naphthyl)propyl]-3-[[3-(trifluoromethyl)benzyl]amino]-N-[(1R)-1-[(2R)-2,9,9-trimethyl-3,5-dioxa-4-boratricyclo[6.1.1.02,6]decan-4-yl]propyl]-7,8-dihydro-6H-pyrrolo[1,2-a]pyrazine-6-carboxamide
> <PUBCHEM_IUPAC_INCHI>
InChI=1S/C42H47BClF3N4O4/c1-5-34(43-54-33-22-30-21-32(40(30,2)3)41(33,4)55-43)49-38(52)31-20-28(14-8-10-24-16-17-26-12-6-7-13-27(26)18-24)35-36(44)50-37(39(53)51(31)35)48-23-25-11-9-15-29(19-25)42(45,46)47/h6-7,9,11-13,15-19,28,30-34H,5,8,10,14,20-23H2,1-4H3,(H,48,50)(H,49,52)/t28-,30?,31+,32?,33?,34+,41-/m1/s1
> <PUBCHEM_IUPAC_INCHIKEY>
ULSHAQNGNKYAIK-UOAQHXDISA-N
> <PUBCHEM_EXACT_MASS>
774.3330983
> <PUBCHEM_MOLECULAR_FORMULA>
C42H47BClF3N4O4
> <PUBCHEM_MOLECULAR_WEIGHT>
775.1
> <PUBCHEM_OPENEYE_CAN_SMILES>
B1(OC2CC3CC(C3(C)C)C2(O1)C)C(CC)NC(=O)C4CC(C5=C(N=C(C(=O)N45)NCC6=CC(=CC=C6)C(F)(F)F)Cl)CCCC7=CC8=CC=CC=C8C=C7
> <PUBCHEM_OPENEYE_ISO_SMILES>
B1(OC2CC3CC([C@]2(O1)C)C3(C)C)[C@H](CC)NC(=O)[C@@H]4C[C@H](C5=C(N=C(C(=O)N45)NCC6=CC(=CC=C6)C(F)(F)F)Cl)CCCC7=CC8=CC=CC=C8C=C7
> <PUBCHEM_CACTVS_TPSA>
92.3
> <PUBCHEM_MONOISOTOPIC_WEIGHT>
774.3330983
> <PUBCHEM_TOTAL_CHARGE>
0
> <PUBCHEM_HEAVY_ATOM_COUNT>
55
> <PUBCHEM_ATOM_DEF_STEREO_COUNT>
4
> <PUBCHEM_ATOM_UDEF_STEREO_COUNT>
3
> <PUBCHEM_BOND_DEF_STEREO_COUNT>
0
> <PUBCHEM_BOND_UDEF_STEREO_COUNT>
0
> <PUBCHEM_ISOTOPIC_ATOM_COUNT>
0
> <PUBCHEM_COMPONENT_COUNT>
1
> <PUBCHEM_CACTVS_TAUTO_COUNT>
-1
> <PUBCHEM_COORDINATE_TYPE>
1
5
255
> <PUBCHEM_BONDANNOTATIONS>
10  30  8
10  32  8
11  33  8
11  35  8
13  17  3
15  17  3
16  22  6
19  18  3
27  26  5
29  31  6
30  33  8
32  35  8
37  39  8
37  40  8
39  42  8
40  43  8
41  45  8
41  46  8
42  44  8
42  47  8
43  44  8
44  48  8
45  49  8
46  51  8
47  50  8
48  52  8
49  53  8
50  52  8
51  53  8
23  9  6
$$$$
