504219
  -OEChem-10302200282D
 99105  0     1  0  0  0  0  0999 V2000
    3.9234   -0.4299    0.0000 Cl  0  0  0  0  0  0  0  0  0  0  0  0
   11.3108    1.7464    0.0000 O   0  0  0  0  0  0  0  0  0  0  0  0
    9.9765    2.6464    0.0000 O   0  0  0  0  0  0  0  0  0  0  0  0
    8.6398   -0.7745    0.0000 O   0  0  0  0  0  0  0  0  0  0  0  0
    7.6295   -1.9347    0.0000 O   0  0  0  0  0  0  0  0  0  0  0  0
    8.7606    0.9533    0.0000 N   0  0  0  0  0  0  0  0  0  0  0  0
    6.5655   -0.5680    0.0000 N   0  0  0  0  0  0  0  0  0  0  0  0
    4.9873   -1.7966    0.0000 N   0  0  0  0  0  0  0  0  0  0  0  0
    6.0513   -3.1633    0.0000 N   0  0  0  0  0  0  0  0  0  0  0  0
   12.8083    3.5670    0.0000 C   0  0  3  0  0  0  0  0  0  0  0  0
   14.2073    3.5758    0.0000 C   0  0  0  0  0  0  0  0  0  0  0  0
   13.0672    4.5329    0.0000 C   0  0  3  0  0  0  0  0  0  0  0  0
   12.3305    5.5155    0.0000 C   0  0  0  0  0  0  0  0  0  0  0  0
   11.5873    2.7013    0.0000 C   0  0  2  0  0  0  0  0  0  0  0  0
   11.0339    4.2218    0.0000 C   0  0  0  0  0  0  0  0  0  0  0  0
   10.7583    3.2605    0.0000 C   0  0  3  0  0  0  0  0  0  0  0  0
   15.0733    4.0758    0.0000 C   0  0  0  0  0  0  0  0  0  0  0  0
   14.7073    2.7098    0.0000 C   0  0  0  0  0  0  0  0  0  0  0  0
   12.4164    2.1421    0.0000 C   0  0  0  0  0  0  0  0  0  0  0  0
    9.7581    0.8836    0.0000 C   0  0  1  0  0  0  0  0  0  0  0  0
   10.1965   -0.0152    0.0000 C   0  0  0  0  0  0  0  0  0  0  0  0
    8.2014    0.1243    0.0000 C   0  0  0  0  0  0  0  0  0  0  0  0
    9.6373   -0.8443    0.0000 C   0  0  0  0  0  0  0  0  0  0  0  0
    7.2038    0.1940    0.0000 C   0  0  2  0  0  0  0  0  0  0  0  0
    6.6778    1.0375    0.0000 C   0  0  0  0  0  0  0  0  0  0  0  0
    5.7126    0.7995    0.0000 C   0  0  2  0  0  0  0  0  0  0  0  0
   10.0757   -1.7431    0.0000 C   0  0  0  0  0  0  0  0  0  0  0  0
    5.6390   -0.1918    0.0000 C   0  0  0  0  0  0  0  0  0  0  0  0
    4.9488    1.4450    0.0000 C   0  0  0  0  0  0  0  0  0  0  0  0
    6.7030   -1.5585    0.0000 C   0  0  0  0  0  0  0  0  0  0  0  0
    4.8499   -0.8061    0.0000 C   0  0  0  0  0  0  0  0  0  0  0  0
    5.1258    2.4292    0.0000 C   0  0  0  0  0  0  0  0  0  0  0  0
    5.9139   -2.1728    0.0000 C   0  0  0  0  0  0  0  0  0  0  0  0
    4.3620    3.0746    0.0000 C   0  0  0  0  0  0  0  0  0  0  0  0
    4.5391    4.0588    0.0000 C   0  0  0  0  0  0  0  0  0  0  0  0
    5.2623   -3.7776    0.0000 C   0  0  0  0  0  0  0  0  0  0  0  0
    3.7753    4.7042    0.0000 C   0  0  0  0  0  0  0  0  0  0  0  0
    5.4799    4.3976    0.0000 C   0  0  0  0  0  0  0  0  0  0  0  0
    5.3997   -4.7681    0.0000 C   0  0  0  0  0  0  0  0  0  0  0  0
    3.9523    5.6884    0.0000 C   0  0  0  0  0  0  0  0  0  0  0  0
    5.6570    5.3818    0.0000 C   0  0  0  0  0  0  0  0  0  0  0  0
    2.8008    4.3363    0.0000 C   0  0  0  0  0  0  0  0  0  0  0  0
    4.6106   -5.3824    0.0000 C   0  0  0  0  0  0  0  0  0  0  0  0
    4.8932    6.0272    0.0000 C   0  0  0  0  0  0  0  0  0  0  0  0
    3.1672    6.3729    0.0000 C   0  0  0  0  0  0  0  0  0  0  0  0
    2.0000    5.0025    0.0000 C   0  0  0  0  0  0  0  0  0  0  0  0
    2.1844    6.0276    0.0000 C   0  0  0  0  0  0  0  0  0  0  0  0
    4.7481   -6.3729    0.0000 C   0  0  0  0  0  0  0  0  0  0  0  0
   10.3173    1.7126    0.0000 B   0  0  0  0  0  0  0  0  0  0  0  0
   12.9984    2.9768    0.0000 H   0  0  0  0  0  0  0  0  0  0  0  0
   13.5175    4.9591    0.0000 H   0  0  0  0  0  0  0  0  0  0  0  0
   12.6483    6.0479    0.0000 H   0  0  0  0  0  0  0  0  0  0  0  0
   11.7174    5.6074    0.0000 H   0  0  0  0  0  0  0  0  0  0  0  0
   11.0289    4.8417    0.0000 H   0  0  0  0  0  0  0  0  0  0  0  0
   10.4196    4.3055    0.0000 H   0  0  0  0  0  0  0  0  0  0  0  0
   10.2438    3.6065    0.0000 H   0  0  0  0  0  0  0  0  0  0  0  0
   15.3833    3.5388    0.0000 H   0  0  0  0  0  0  0  0  0  0  0  0
   15.6102    4.3858    0.0000 H   0  0  0  0  0  0  0  0  0  0  0  0
   14.7633    4.6127    0.0000 H   0  0  0  0  0  0  0  0  0  0  0  0
   14.1703    2.3998    0.0000 H   0  0  0  0  0  0  0  0  0  0  0  0
   15.0173    2.1728    0.0000 H   0  0  0  0  0  0  0  0  0  0  0  0
   15.2442    3.0198    0.0000 H   0  0  0  0  0  0  0  0  0  0  0  0
   12.0697    1.6281    0.0000 H   0  0  0  0  0  0  0  0  0  0  0  0
   12.9304    1.7954    0.0000 H   0  0  0  0  0  0  0  0  0  0  0  0
   12.7631    2.6561    0.0000 H   0  0  0  0  0  0  0  0  0  0  0  0
    9.4864    1.4408    0.0000 H   0  0  0  0  0  0  0  0  0  0  0  0
   10.6425   -0.4459    0.0000 H   0  0  0  0  0  0  0  0  0  0  0  0
   10.6981    0.3492    0.0000 H   0  0  0  0  0  0  0  0  0  0  0  0
    8.4888    1.5106    0.0000 H   0  0  0  0  0  0  0  0  0  0  0  0
    9.0188   -0.8010    0.0000 H   0  0  0  0  0  0  0  0  0  0  0  0
    7.4463   -0.3766    0.0000 H   0  0  0  0  0  0  0  0  0  0  0  0
    7.2354    1.3085    0.0000 H   0  0  0  0  0  0  0  0  0  0  0  0
    6.4669    1.6206    0.0000 H   0  0  0  0  0  0  0  0  0  0  0  0
    5.1409    0.5595    0.0000 H   0  0  0  0  0  0  0  0  0  0  0  0
    9.7290   -2.2571    0.0000 H   0  0  0  0  0  0  0  0  0  0  0  0
   10.6942   -1.7863    0.0000 H   0  0  0  0  0  0  0  0  0  0  0  0
    4.3669    1.6590    0.0000 H   0  0  0  0  0  0  0  0  0  0  0  0
    4.6369    0.9091    0.0000 H   0  0  0  0  0  0  0  0  0  0  0  0
    5.7077    2.2151    0.0000 H   0  0  0  0  0  0  0  0  0  0  0  0
    5.4377    2.9650    0.0000 H   0  0  0  0  0  0  0  0  0  0  0  0
    3.7801    3.2887    0.0000 H   0  0  0  0  0  0  0  0  0  0  0  0
    4.0502    2.5388    0.0000 H   0  0  0  0  0  0  0  0  0  0  0  0
    6.6258   -3.3966    0.0000 H   0  0  0  0  0  0  0  0  0  0  0  0
    4.9721   -3.2297    0.0000 H   0  0  0  0  0  0  0  0  0  0  0  0
    4.6723   -3.9682    0.0000 H   0  0  0  0  0  0  0  0  0  0  0  0
    5.9535    3.9974    0.0000 H   0  0  0  0  0  0  0  0  0  0  0  0
    5.6898   -5.3161    0.0000 H   0  0  0  0  0  0  0  0  0  0  0  0
    5.9897   -4.5776    0.0000 H   0  0  0  0  0  0  0  0  0  0  0  0
    6.2403    5.5918    0.0000 H   0  0  0  0  0  0  0  0  0  0  0  0
    2.6981    3.7249    0.0000 H   0  0  0  0  0  0  0  0  0  0  0  0
    4.3205   -4.8345    0.0000 H   0  0  0  0  0  0  0  0  0  0  0  0
    4.0207   -5.5730    0.0000 H   0  0  0  0  0  0  0  0  0  0  0  0
    5.0030    6.6374    0.0000 H   0  0  0  0  0  0  0  0  0  0  0  0
    3.2840    6.9818    0.0000 H   0  0  0  0  0  0  0  0  0  0  0  0
    1.4175    4.7902    0.0000 H   0  0  0  0  0  0  0  0  0  0  0  0
    1.7124    6.4296    0.0000 H   0  0  0  0  0  0  0  0  0  0  0  0
    4.1340   -6.4582    0.0000 H   0  0  0  0  0  0  0  0  0  0  0  0
    4.8333   -6.9870    0.0000 H   0  0  0  0  0  0  0  0  0  0  0  0
    5.3622   -6.2877    0.0000 H   0  0  0  0  0  0  0  0  0  0  0  0
  1 31  1  0  0  0  0
  2 14  1  0  0  0  0
  2 49  1  0  0  0  0
  3 16  1  0  0  0  0
  3 49  1  0  0  0  0
  4 22  2  0  0  0  0
  5 30  2  0  0  0  0
 20  6  1  6  0  0  0
  6 22  1  0  0  0  0
  6 69  1  0  0  0  0
  7 24  1  0  0  0  0
  7 28  1  0  0  0  0
  7 30  1  0  0  0  0
  8 31  1  0  0  0  0
  8 33  2  0  0  0  0
  9 33  1  0  0  0  0
  9 36  1  0  0  0  0
  9 83  1  0  0  0  0
 10 11  1  0  0  0  0
 10 13  1  0  0  0  0
 10 14  1  0  0  0  0
 10 50  1  0  0  0  0
 11 12  1  0  0  0  0
 11 17  1  0  0  0  0
 11 18  1  0  0  0  0
 12 13  1  0  0  0  0
 12 15  1  0  0  0  0
 12 51  1  0  0  0  0
 13 52  1  0  0  0  0
 13 53  1  0  0  0  0
 14 16  1  0  0  0  0
 14 19  1  6  0  0  0
 15 16  1  0  0  0  0
 15 54  1  0  0  0  0
 15 55  1  0  0  0  0
 16 56  1  0  0  0  0
 17 57  1  0  0  0  0
 17 58  1  0  0  0  0
 17 59  1  0  0  0  0
 18 60  1  0  0  0  0
 18 61  1  0  0  0  0
 18 62  1  0  0  0  0
 19 63  1  0  0  0  0
 19 64  1  0  0  0  0
 19 65  1  0  0  0  0
 20 21  1  0  0  0  0
 20 49  1  0  0  0  0
 20 66  1  0  0  0  0
 21 23  1  0  0  0  0
 21 67  1  0  0  0  0
 21 68  1  0  0  0  0
 24 22  1  1  0  0  0
 23 27  2  0  0  0  0
 23 70  1  0  0  0  0
 24 25  1  0  0  0  0
 24 71  1  0  0  0  0
 25 26  1  0  0  0  0
 25 72  1  0  0  0  0
 25 73  1  0  0  0  0
 26 28  1  0  0  0  0
 26 29  1  6  0  0  0
 26 74  1  0  0  0  0
 27 75  1  0  0  0  0
 27 76  1  0  0  0  0
 28 31  2  0  0  0  0
 29 32  1  0  0  0  0
 29 77  1  0  0  0  0
 29 78  1  0  0  0  0
 30 33  1  0  0  0  0
 32 34  1  0  0  0  0
 32 79  1  0  0  0  0
 32 80  1  0  0  0  0
 34 35  1  0  0  0  0
 34 81  1  0  0  0  0
 34 82  1  0  0  0  0
 35 37  1  0  0  0  0
 35 38  2  0  0  0  0
 36 39  1  0  0  0  0
 36 84  1  0  0  0  0
 36 85  1  0  0  0  0
 37 40  1  0  0  0  0
 37 42  2  0  0  0  0
 38 41  1  0  0  0  0
 38 86  1  0  0  0  0
 39 43  1  0  0  0  0
 39 87  1  0  0  0  0
 39 88  1  0  0  0  0
 40 44  1  0  0  0  0
 40 45  2  0  0  0  0
 41 44  2  0  0  0  0
 41 89  1  0  0  0  0
 42 46  1  0  0  0  0
 42 90  1  0  0  0  0
 43 48  1  0  0  0  0
 43 91  1  0  0  0  0
 43 92  1  0  0  0  0
 44 93  1  0  0  0  0
 45 47  1  0  0  0  0
 45 94  1  0  0  0  0
 46 47  2  0  0  0  0
 46 95  1  0  0  0  0
 47 96  1  0  0  0  0
 48 97  1  0  0  0  0
 48 98  1  0  0  0  0
 48 99  1  0  0  0  0
M  END
> <PUBCHEM_COMPOUND_CID>
504219
> <PUBCHEM_COMPOUND_CANONICALIZED>
1
> <PUBCHEM_CACTVS_COMPLEXITY>
1350
> <PUBCHEM_CACTVS_HBOND_ACCEPTOR>
5
> <PUBCHEM_CACTVS_HBOND_DONOR>
2
> <PUBCHEM_CACTVS_ROTATABLE_BOND>
13
> <PUBCHEM_CACTVS_SUBSKEYS>
AAADcfJ/uAAEAAAAAAAAAAAAAABgAWJAAAAwYMGCAAAAAEjBUAAoHgIQAAAAD37hmAYzAMPAAACoAidydAACAAEgAAAJiIGIAIgJYDKAmTCUIAAklgCIiAeYyfCPgAACAAAQAADAAAYAADCAAAAAAAAAAA==
> <PUBCHEM_IUPAC_OPENEYE_NAME>
(6S,8R)-3-(butylamino)-1-chloro-8-[3-(1-naphthyl)propyl]-4-oxo-N-[(1R)-1-[(2R)-2,9,9-trimethyl-3,5-dioxa-4-boratricyclo[6.1.1.02,6]decan-4-yl]but-3-enyl]-7,8-dihydro-6H-pyrrolo[1,2-a]pyrazine-6-carboxamide
> <PUBCHEM_IUPAC_CAS_NAME>
(6S,8R)-3-(butylamino)-1-chloro-8-[3-(1-naphthalenyl)propyl]-4-oxo-N-[(1R)-1-[(2R)-2,9,9-trimethyl-3,5-dioxa-4-boratricyclo[6.1.1.02,6]decan-4-yl]but-3-enyl]-7,8-dihydro-6H-pyrrolo[1,2-a]pyrazine-6-carboxamide
> <PUBCHEM_IUPAC_NAME_MARKUP>
(6<I>S</I>,8<I>R</I>)-3-(butylamino)-1-chloro-8-(3-naphthalen-1-ylpropyl)-4-oxo-<I>N</I>-[(1<I>R</I>)-1-[(2<I>R</I>)-2,9,9-trimethyl-3,5-dioxa-4-boratricyclo[6.1.1.0<SUP>2,6</SUP>]decan-4-yl]but-3-enyl]-7,8-dihydro-6<I>H</I>-pyrrolo[1,2-a]pyrazine-6-carboxamide
> <PUBCHEM_IUPAC_NAME>
(6S,8R)-3-(butylamino)-1-chloro-8-(3-naphthalen-1-ylpropyl)-4-oxo-N-[(1R)-1-[(2R)-2,9,9-trimethyl-3,5-dioxa-4-boratricyclo[6.1.1.02,6]decan-4-yl]but-3-enyl]-7,8-dihydro-6H-pyrrolo[1,2-a]pyrazine-6-carboxamide
> <PUBCHEM_IUPAC_SYSTEMATIC_NAME>
(6S,8R)-3-(butylamino)-1-chloranyl-8-(3-naphthalen-1-ylpropyl)-4-oxidanylidene-N-[(1R)-1-[(2R)-2,9,9-trimethyl-3,5-dioxa-4-boratricyclo[6.1.1.02,6]decan-4-yl]but-3-enyl]-7,8-dihydro-6H-pyrrolo[1,2-a]pyrazine-6-carboxamide
> <PUBCHEM_IUPAC_TRADITIONAL_NAME>
(6S,8R)-3-(butylamino)-1-chloro-4-keto-8-[3-(1-naphthyl)propyl]-N-[(1R)-1-[(2R)-2,9,9-trimethyl-3,5-dioxa-4-boratricyclo[6.1.1.02,6]decan-4-yl]but-3-enyl]-7,8-dihydro-6H-pyrrolo[1,2-a]pyrazine-6-carboxamide
> <PUBCHEM_IUPAC_INCHI>
InChI=1S/C39H50BClN4O4/c1-6-8-20-42-35-37(47)45-29(21-26(33(45)34(41)44-35)18-12-17-25-16-11-15-24-14-9-10-19-28(24)25)36(46)43-32(13-7-2)40-48-31-23-27-22-30(38(27,3)4)39(31,5)49-40/h7,9-11,14-16,19,26-27,29-32H,2,6,8,12-13,17-18,20-23H2,1,3-5H3,(H,42,44)(H,43,46)/t26-,27?,29+,30?,31?,32+,39-/m1/s1
> <PUBCHEM_IUPAC_INCHIKEY>
UTPHTCPCSMJKFB-AJEBJPKRSA-N
> <PUBCHEM_EXACT_MASS>
684.3613639
> <PUBCHEM_MOLECULAR_FORMULA>
C39H50BClN4O4
> <PUBCHEM_MOLECULAR_WEIGHT>
685.1
> <PUBCHEM_OPENEYE_CAN_SMILES>
B1(OC2CC3CC(C3(C)C)C2(O1)C)C(CC=C)NC(=O)C4CC(C5=C(N=C(C(=O)N45)NCCCC)Cl)CCCC6=CC=CC7=CC=CC=C76
> <PUBCHEM_OPENEYE_ISO_SMILES>
B1(OC2CC3CC([C@]2(O1)C)C3(C)C)[C@H](CC=C)NC(=O)[C@@H]4C[C@H](C5=C(N=C(C(=O)N45)NCCCC)Cl)CCCC6=CC=CC7=CC=CC=C76
> <PUBCHEM_CACTVS_TPSA>
92.3
> <PUBCHEM_MONOISOTOPIC_WEIGHT>
684.3613639
> <PUBCHEM_TOTAL_CHARGE>
0
> <PUBCHEM_HEAVY_ATOM_COUNT>
49
> <PUBCHEM_ATOM_DEF_STEREO_COUNT>
4
> <PUBCHEM_ATOM_UDEF_STEREO_COUNT>
3
> <PUBCHEM_BOND_DEF_STEREO_COUNT>
0
> <PUBCHEM_BOND_UDEF_STEREO_COUNT>
0
> <PUBCHEM_ISOTOPIC_ATOM_COUNT>
0
> <PUBCHEM_COMPONENT_COUNT>
1
> <PUBCHEM_CACTVS_TAUTO_COUNT>
-1
> <PUBCHEM_COORDINATE_TYPE>
1
5
255
> <PUBCHEM_BONDANNOTATIONS>
10  13  3
12  13  3
14  19  6
16  15  3
24  22  5
26  29  6
28  31  8
30  33  8
35  37  8
35  38  8
37  40  8
37  42  8
38  41  8
40  44  8
40  45  8
41  44  8
42  46  8
45  47  8
46  47  8
20  6  6
7  28  8
7  30  8
8  31  8
8  33  8
$$$$
