504287
  -OEChem-10302200282D
 28 29  0     1  0  0  0  0  0999 V2000
    2.6420    1.1999    0.0000 O   0  0  0  0  0  0  0  0  0  0  0  0
    3.9511    2.1509    0.0000 O   0  0  0  0  0  0  0  0  0  0  0  0
    3.9511   -0.9268    0.0000 O   0  0  0  0  0  0  0  0  0  0  0  0
    5.2111    0.3333    0.0000 O   0  0  0  0  0  0  0  0  0  0  0  0
    2.7700   -2.6493    0.0000 O   0  0  0  0  0  0  0  0  0  0  0  0
    3.4511    0.6121    0.0000 C   0  0  3  0  0  0  0  0  0  0  0  0
    2.6420    0.0243    0.0000 C   0  0  0  0  0  0  0  0  0  0  0  0
    4.2601    1.1999    0.0000 C   0  0  0  0  0  0  0  0  0  0  0  0
    2.9511   -0.9268    0.0000 C   0  0  3  0  0  0  0  0  0  0  0  0
    2.9511    2.1509    0.0000 C   0  0  0  0  0  0  0  0  0  0  0  0
    4.2601    0.0243    0.0000 C   0  0  0  0  0  0  0  0  0  0  0  0
    2.3633   -1.7358    0.0000 C   0  0  0  0  0  0  0  0  0  0  0  0
    2.9511    3.1509    0.0000 C   0  0  0  0  0  0  0  0  0  0  0  0
    2.0000    2.4599    0.0000 C   0  0  0  0  0  0  0  0  0  0  0  0
    2.3320    0.5612    0.0000 H   0  0  0  0  0  0  0  0  0  0  0  0
    2.0756   -0.2279    0.0000 H   0  0  0  0  0  0  0  0  0  0  0  0
    4.5701    0.6629    0.0000 H   0  0  0  0  0  0  0  0  0  0  0  0
    4.8265    1.4520    0.0000 H   0  0  0  0  0  0  0  0  0  0  0  0
    3.2325   -1.4792    0.0000 H   0  0  0  0  0  0  0  0  0  0  0  0
    1.9326   -1.2898    0.0000 H   0  0  0  0  0  0  0  0  0  0  0  0
    1.8493   -2.0825    0.0000 H   0  0  0  0  0  0  0  0  0  0  0  0
    3.5711    3.1509    0.0000 H   0  0  0  0  0  0  0  0  0  0  0  0
    2.9511    3.7709    0.0000 H   0  0  0  0  0  0  0  0  0  0  0  0
    2.3311    3.1509    0.0000 H   0  0  0  0  0  0  0  0  0  0  0  0
    2.1916    3.0496    0.0000 H   0  0  0  0  0  0  0  0  0  0  0  0
    1.4103    2.6515    0.0000 H   0  0  0  0  0  0  0  0  0  0  0  0
    1.8084    1.8703    0.0000 H   0  0  0  0  0  0  0  0  0  0  0  0
    2.4056   -3.1509    0.0000 H   0  0  0  0  0  0  0  0  0  0  0  0
  1  6  1  0  0  0  0
  1 10  1  0  0  0  0
  2  8  1  0  0  0  0
  2 10  1  0  0  0  0
  3  9  1  0  0  0  0
  3 11  1  0  0  0  0
  4 11  2  0  0  0  0
  5 12  1  0  0  0  0
  5 28  1  0  0  0  0
  6  7  1  0  0  0  0
  6  8  1  0  0  0  0
  6 11  1  0  0  0  0
  7  9  1  0  0  0  0
  7 15  1  0  0  0  0
  7 16  1  0  0  0  0
  8 17  1  0  0  0  0
  8 18  1  0  0  0  0
  9 12  1  0  0  0  0
  9 19  1  0  0  0  0
 10 13  1  0  0  0  0
 10 14  1  0  0  0  0
 12 20  1  0  0  0  0
 12 21  1  0  0  0  0
 13 22  1  0  0  0  0
 13 23  1  0  0  0  0
 13 24  1  0  0  0  0
 14 25  1  0  0  0  0
 14 26  1  0  0  0  0
 14 27  1  0  0  0  0
M  END
> <PUBCHEM_COMPOUND_CID>
504287
> <PUBCHEM_COMPOUND_CANONICALIZED>
1
> <PUBCHEM_CACTVS_COMPLEXITY>
262
> <PUBCHEM_CACTVS_HBOND_ACCEPTOR>
5
> <PUBCHEM_CACTVS_HBOND_DONOR>
1
> <PUBCHEM_CACTVS_ROTATABLE_BOND>
1
> <PUBCHEM_CACTVS_SUBSKEYS>
AAADccBwOAAAAAAAAAAAAAAAAAAAASJAAAAAAAAAAAAAAAAAAAAAGgAACAAADFSggAICCAAABgAIAACQCAIAAAAAAAAAAAFAAAAREBYAAAQiQAAFIAAHAADKJAgMAAAAAAAAAAAAAAAAAAAAAAAAAAAAAA==
> <PUBCHEM_IUPAC_OPENEYE_NAME>
8-(hydroxymethyl)-2,2-dimethyl-1,3,7-trioxaspiro[4.4]nonan-6-one
> <PUBCHEM_IUPAC_CAS_NAME>
8-(hydroxymethyl)-2,2-dimethyl-1,3,7-trioxaspiro[4.4]nonan-6-one
> <PUBCHEM_IUPAC_NAME_MARKUP>
8-(hydroxymethyl)-2,2-dimethyl-1,3,7-trioxaspiro[4.4]nonan-6-one
> <PUBCHEM_IUPAC_NAME>
8-(hydroxymethyl)-2,2-dimethyl-1,3,7-trioxaspiro[4.4]nonan-6-one
> <PUBCHEM_IUPAC_SYSTEMATIC_NAME>
8-(hydroxymethyl)-2,2-dimethyl-1,3,7-trioxaspiro[4.4]nonan-6-one
> <PUBCHEM_IUPAC_TRADITIONAL_NAME>
2,2-dimethyl-8-methylol-1,3,7-trioxaspiro[4.4]nonan-6-one
> <PUBCHEM_IUPAC_INCHI>
InChI=1S/C9H14O5/c1-8(2)12-5-9(14-8)3-6(4-10)13-7(9)11/h6,10H,3-5H2,1-2H3
> <PUBCHEM_IUPAC_INCHIKEY>
MKEDFKXWXPRDIO-UHFFFAOYSA-N
> <PUBCHEM_XLOGP3_AA>
-0.3
> <PUBCHEM_EXACT_MASS>
202.08412354
> <PUBCHEM_MOLECULAR_FORMULA>
C9H14O5
> <PUBCHEM_MOLECULAR_WEIGHT>
202.20
> <PUBCHEM_OPENEYE_CAN_SMILES>
CC1(OCC2(O1)CC(OC2=O)CO)C
> <PUBCHEM_OPENEYE_ISO_SMILES>
CC1(OCC2(O1)CC(OC2=O)CO)C
> <PUBCHEM_CACTVS_TPSA>
65
> <PUBCHEM_MONOISOTOPIC_WEIGHT>
202.08412354
> <PUBCHEM_TOTAL_CHARGE>
0
> <PUBCHEM_HEAVY_ATOM_COUNT>
14
> <PUBCHEM_ATOM_DEF_STEREO_COUNT>
0
> <PUBCHEM_ATOM_UDEF_STEREO_COUNT>
2
> <PUBCHEM_BOND_DEF_STEREO_COUNT>
0
> <PUBCHEM_BOND_UDEF_STEREO_COUNT>
0
> <PUBCHEM_ISOTOPIC_ATOM_COUNT>
0
> <PUBCHEM_COMPONENT_COUNT>
1
> <PUBCHEM_CACTVS_TAUTO_COUNT>
-1
> <PUBCHEM_COORDINATE_TYPE>
1
5
255
> <PUBCHEM_BONDANNOTATIONS>
6  7  3
9  12  3
$$$$
