504207
  -OEChem-10302200282D
 95101  0     1  0  0  0  0  0999 V2000
    2.0000    0.2753    0.0000 Cl  0  0  0  0  0  0  0  0  0  0  0  0
    6.3934   -6.1821    0.0000 F   0  0  0  0  0  0  0  0  0  0  0  0
    5.0907   -6.7324    0.0000 F   0  0  0  0  0  0  0  0  0  0  0  0
    5.8431   -4.8793    0.0000 F   0  0  0  0  0  0  0  0  0  0  0  0
    9.3875    2.4516    0.0000 O   0  0  0  0  0  0  0  0  0  0  0  0
    8.0532    3.3516    0.0000 O   0  0  0  0  0  0  0  0  0  0  0  0
    6.7164   -0.0693    0.0000 O   0  0  0  0  0  0  0  0  0  0  0  0
    5.7061   -1.2295    0.0000 O   0  0  0  0  0  0  0  0  0  0  0  0
    3.7336    6.0870    0.0000 O   0  0  0  0  0  0  0  0  0  0  0  0
    6.8372    1.6585    0.0000 N   0  0  0  0  0  0  0  0  0  0  0  0
    4.6421    0.1372    0.0000 N   0  0  0  0  0  0  0  0  0  0  0  0
    3.0640   -1.0914    0.0000 N   0  0  0  0  0  0  0  0  0  0  0  0
    4.1280   -2.4581    0.0000 N   0  0  0  0  0  0  0  0  0  0  0  0
   10.8850    4.2722    0.0000 C   0  0  3  0  0  0  0  0  0  0  0  0
   12.2839    4.2810    0.0000 C   0  0  0  0  0  0  0  0  0  0  0  0
   11.1438    5.2381    0.0000 C   0  0  3  0  0  0  0  0  0  0  0  0
   10.4072    6.2207    0.0000 C   0  0  0  0  0  0  0  0  0  0  0  0
    9.6640    3.4065    0.0000 C   0  0  2  0  0  0  0  0  0  0  0  0
    9.1106    4.9269    0.0000 C   0  0  0  0  0  0  0  0  0  0  0  0
    8.8349    3.9657    0.0000 C   0  0  3  0  0  0  0  0  0  0  0  0
   13.1500    4.7810    0.0000 C   0  0  0  0  0  0  0  0  0  0  0  0
   12.7839    3.4149    0.0000 C   0  0  0  0  0  0  0  0  0  0  0  0
   10.4930    2.8473    0.0000 C   0  0  0  0  0  0  0  0  0  0  0  0
    7.8348    1.5888    0.0000 C   0  0  1  0  0  0  0  0  0  0  0  0
    8.2732    0.6900    0.0000 C   0  0  0  0  0  0  0  0  0  0  0  0
    6.2780    0.8295    0.0000 C   0  0  0  0  0  0  0  0  0  0  0  0
    7.7140   -0.1391    0.0000 C   0  0  0  0  0  0  0  0  0  0  0  0
    5.2805    0.8992    0.0000 C   0  0  2  0  0  0  0  0  0  0  0  0
    4.7544    1.7427    0.0000 C   0  0  0  0  0  0  0  0  0  0  0  0
    3.7892    1.5047    0.0000 C   0  0  2  0  0  0  0  0  0  0  0  0
    8.1523   -1.0379    0.0000 C   0  0  0  0  0  0  0  0  0  0  0  0
    3.7156    0.5134    0.0000 C   0  0  0  0  0  0  0  0  0  0  0  0
    3.0254    2.1502    0.0000 C   0  0  0  0  0  0  0  0  0  0  0  0
    4.7796   -0.8533    0.0000 C   0  0  0  0  0  0  0  0  0  0  0  0
    2.9265   -0.1009    0.0000 C   0  0  0  0  0  0  0  0  0  0  0  0
    3.9905   -1.4676    0.0000 C   0  0  0  0  0  0  0  0  0  0  0  0
    3.2025    3.1344    0.0000 C   0  0  0  0  0  0  0  0  0  0  0  0
    2.4387    3.7798    0.0000 C   0  0  0  0  0  0  0  0  0  0  0  0
    4.1434    3.4731    0.0000 C   0  0  0  0  0  0  0  0  0  0  0  0
    3.3389   -3.0724    0.0000 C   0  0  0  0  0  0  0  0  0  0  0  0
    2.6157    4.7640    0.0000 C   0  0  0  0  0  0  0  0  0  0  0  0
    4.3204    4.4573    0.0000 C   0  0  0  0  0  0  0  0  0  0  0  0
    3.5566    5.1028    0.0000 C   0  0  0  0  0  0  0  0  0  0  0  0
    3.4764   -4.0629    0.0000 C   0  0  0  0  0  0  0  0  0  0  0  0
    4.4029   -4.4392    0.0000 C   0  0  0  0  0  0  0  0  0  0  0  0
    2.6873   -4.6772    0.0000 C   0  0  0  0  0  0  0  0  0  0  0  0
    4.5404   -5.4297    0.0000 C   0  0  0  0  0  0  0  0  0  0  0  0
    2.9698    6.7324    0.0000 C   0  0  0  0  0  0  0  0  0  0  0  0
    2.8248   -5.6678    0.0000 C   0  0  0  0  0  0  0  0  0  0  0  0
    3.7513   -6.0440    0.0000 C   0  0  0  0  0  0  0  0  0  0  0  0
    5.4669   -5.8059    0.0000 C   0  0  0  0  0  0  0  0  0  0  0  0
    8.3940    2.4178    0.0000 B   0  0  0  0  0  0  0  0  0  0  0  0
   11.0750    3.6820    0.0000 H   0  0  0  0  0  0  0  0  0  0  0  0
   11.5941    5.6642    0.0000 H   0  0  0  0  0  0  0  0  0  0  0  0
   10.7250    6.7530    0.0000 H   0  0  0  0  0  0  0  0  0  0  0  0
    9.7940    6.3126    0.0000 H   0  0  0  0  0  0  0  0  0  0  0  0
    9.1055    5.5469    0.0000 H   0  0  0  0  0  0  0  0  0  0  0  0
    8.4963    5.0107    0.0000 H   0  0  0  0  0  0  0  0  0  0  0  0
    8.3205    4.3117    0.0000 H   0  0  0  0  0  0  0  0  0  0  0  0
   13.4600    4.2440    0.0000 H   0  0  0  0  0  0  0  0  0  0  0  0
   13.6869    5.0910    0.0000 H   0  0  0  0  0  0  0  0  0  0  0  0
   12.8400    5.3179    0.0000 H   0  0  0  0  0  0  0  0  0  0  0  0
   12.2470    3.1049    0.0000 H   0  0  0  0  0  0  0  0  0  0  0  0
   13.0939    2.8780    0.0000 H   0  0  0  0  0  0  0  0  0  0  0  0
   13.3209    3.7249    0.0000 H   0  0  0  0  0  0  0  0  0  0  0  0
   10.1463    2.3333    0.0000 H   0  0  0  0  0  0  0  0  0  0  0  0
   11.0070    2.5006    0.0000 H   0  0  0  0  0  0  0  0  0  0  0  0
   10.8397    3.3613    0.0000 H   0  0  0  0  0  0  0  0  0  0  0  0
    7.5630    2.1460    0.0000 H   0  0  0  0  0  0  0  0  0  0  0  0
    8.7192    0.2593    0.0000 H   0  0  0  0  0  0  0  0  0  0  0  0
    8.7747    1.0544    0.0000 H   0  0  0  0  0  0  0  0  0  0  0  0
    6.5654    2.2158    0.0000 H   0  0  0  0  0  0  0  0  0  0  0  0
    7.0955   -0.0958    0.0000 H   0  0  0  0  0  0  0  0  0  0  0  0
    5.5230    0.3286    0.0000 H   0  0  0  0  0  0  0  0  0  0  0  0
    5.3121    2.0137    0.0000 H   0  0  0  0  0  0  0  0  0  0  0  0
    4.5435    2.3258    0.0000 H   0  0  0  0  0  0  0  0  0  0  0  0
    3.2176    1.2647    0.0000 H   0  0  0  0  0  0  0  0  0  0  0  0
    7.8056   -1.5519    0.0000 H   0  0  0  0  0  0  0  0  0  0  0  0
    8.7708   -1.0811    0.0000 H   0  0  0  0  0  0  0  0  0  0  0  0
    2.4436    2.3642    0.0000 H   0  0  0  0  0  0  0  0  0  0  0  0
    2.7136    1.6143    0.0000 H   0  0  0  0  0  0  0  0  0  0  0  0
    4.7024   -2.6914    0.0000 H   0  0  0  0  0  0  0  0  0  0  0  0
    1.8553    3.5698    0.0000 H   0  0  0  0  0  0  0  0  0  0  0  0
    4.6169    3.0730    0.0000 H   0  0  0  0  0  0  0  0  0  0  0  0
    3.0488   -2.5245    0.0000 H   0  0  0  0  0  0  0  0  0  0  0  0
    2.7489   -3.2630    0.0000 H   0  0  0  0  0  0  0  0  0  0  0  0
    2.1422    5.1642    0.0000 H   0  0  0  0  0  0  0  0  0  0  0  0
    4.9037    4.6674    0.0000 H   0  0  0  0  0  0  0  0  0  0  0  0
    4.8921   -4.0583    0.0000 H   0  0  0  0  0  0  0  0  0  0  0  0
    2.1128   -4.4440    0.0000 H   0  0  0  0  0  0  0  0  0  0  0  0
    3.3700    7.2060    0.0000 H   0  0  0  0  0  0  0  0  0  0  0  0
    2.4963    7.1326    0.0000 H   0  0  0  0  0  0  0  0  0  0  0  0
    2.5697    6.2588    0.0000 H   0  0  0  0  0  0  0  0  0  0  0  0
    2.3355   -6.0486    0.0000 H   0  0  0  0  0  0  0  0  0  0  0  0
    3.8365   -6.6581    0.0000 H   0  0  0  0  0  0  0  0  0  0  0  0
  1 35  1  0  0  0  0
  2 51  1  0  0  0  0
  3 51  1  0  0  0  0
  4 51  1  0  0  0  0
  5 18  1  0  0  0  0
  5 52  1  0  0  0  0
  6 20  1  0  0  0  0
  6 52  1  0  0  0  0
  7 26  2  0  0  0  0
  8 34  2  0  0  0  0
  9 43  1  0  0  0  0
  9 48  1  0  0  0  0
 24 10  1  6  0  0  0
 10 26  1  0  0  0  0
 10 72  1  0  0  0  0
 11 28  1  0  0  0  0
 11 32  1  0  0  0  0
 11 34  1  0  0  0  0
 12 35  1  0  0  0  0
 12 36  2  0  0  0  0
 13 36  1  0  0  0  0
 13 40  1  0  0  0  0
 13 82  1  0  0  0  0
 14 15  1  0  0  0  0
 14 17  1  0  0  0  0
 14 18  1  0  0  0  0
 14 53  1  0  0  0  0
 15 16  1  0  0  0  0
 15 21  1  0  0  0  0
 15 22  1  0  0  0  0
 16 17  1  0  0  0  0
 16 19  1  0  0  0  0
 16 54  1  0  0  0  0
 17 55  1  0  0  0  0
 17 56  1  0  0  0  0
 18 20  1  0  0  0  0
 18 23  1  6  0  0  0
 19 20  1  0  0  0  0
 19 57  1  0  0  0  0
 19 58  1  0  0  0  0
 20 59  1  0  0  0  0
 21 60  1  0  0  0  0
 21 61  1  0  0  0  0
 21 62  1  0  0  0  0
 22 63  1  0  0  0  0
 22 64  1  0  0  0  0
 22 65  1  0  0  0  0
 23 66  1  0  0  0  0
 23 67  1  0  0  0  0
 23 68  1  0  0  0  0
 24 25  1  0  0  0  0
 24 52  1  0  0  0  0
 24 69  1  0  0  0  0
 25 27  1  0  0  0  0
 25 70  1  0  0  0  0
 25 71  1  0  0  0  0
 28 26  1  1  0  0  0
 27 31  2  0  0  0  0
 27 73  1  0  0  0  0
 28 29  1  0  0  0  0
 28 74  1  0  0  0  0
 29 30  1  0  0  0  0
 29 75  1  0  0  0  0
 29 76  1  0  0  0  0
 30 32  1  0  0  0  0
 30 33  1  6  0  0  0
 30 77  1  0  0  0  0
 31 78  1  0  0  0  0
 31 79  1  0  0  0  0
 32 35  2  0  0  0  0
 33 37  1  0  0  0  0
 33 80  1  0  0  0  0
 33 81  1  0  0  0  0
 34 36  1  0  0  0  0
 37 38  2  0  0  0  0
 37 39  1  0  0  0  0
 38 41  1  0  0  0  0
 38 83  1  0  0  0  0
 39 42  2  0  0  0  0
 39 84  1  0  0  0  0
 40 44  1  0  0  0  0
 40 85  1  0  0  0  0
 40 86  1  0  0  0  0
 41 43  2  0  0  0  0
 41 87  1  0  0  0  0
 42 43  1  0  0  0  0
 42 88  1  0  0  0  0
 44 45  2  0  0  0  0
 44 46  1  0  0  0  0
 45 47  1  0  0  0  0
 45 89  1  0  0  0  0
 46 49  2  0  0  0  0
 46 90  1  0  0  0  0
 47 50  2  0  0  0  0
 47 51  1  0  0  0  0
 48 91  1  0  0  0  0
 48 92  1  0  0  0  0
 48 93  1  0  0  0  0
 49 50  1  0  0  0  0
 49 94  1  0  0  0  0
 50 95  1  0  0  0  0
M  END
> <PUBCHEM_COMPOUND_CID>
504207
> <PUBCHEM_COMPOUND_CANONICALIZED>
1
> <PUBCHEM_CACTVS_COMPLEXITY>
1470
> <PUBCHEM_CACTVS_HBOND_ACCEPTOR>
9
> <PUBCHEM_CACTVS_HBOND_DONOR>
2
> <PUBCHEM_CACTVS_ROTATABLE_BOND>
11
> <PUBCHEM_CACTVS_SUBSKEYS>
AAADcfJ/uYAEAAAAAAAAAAAAAABgAWJAAAAwYMGCAAAAAEgBQAAoHwIQAAAAD37hmBYzBoPABACoAidydACCCAEgIAAJiIGODIgNZjKEuTuUMChk1hGIqAeYyfCPoAACAAAAAADAAAYAADCAAAAAAAAAAA==
> <PUBCHEM_IUPAC_OPENEYE_NAME>
(6S,8R)-1-chloro-8-[(4-methoxyphenyl)methyl]-4-oxo-3-[[3-(trifluoromethyl)phenyl]methylamino]-N-[(1R)-1-[(2R)-2,9,9-trimethyl-3,5-dioxa-4-boratricyclo[6.1.1.02,6]decan-4-yl]but-3-enyl]-7,8-dihydro-6H-pyrrolo[1,2-a]pyrazine-6-carboxamide
> <PUBCHEM_IUPAC_CAS_NAME>
(6S,8R)-1-chloro-8-[(4-methoxyphenyl)methyl]-4-oxo-3-[[3-(trifluoromethyl)phenyl]methylamino]-N-[(1R)-1-[(2R)-2,9,9-trimethyl-3,5-dioxa-4-boratricyclo[6.1.1.02,6]decan-4-yl]but-3-enyl]-7,8-dihydro-6H-pyrrolo[1,2-a]pyrazine-6-carboxamide
> <PUBCHEM_IUPAC_NAME_MARKUP>
(6<I>S</I>,8<I>R</I>)-1-chloro-8-[(4-methoxyphenyl)methyl]-4-oxo-3-[[3-(trifluoromethyl)phenyl]methylamino]-<I>N</I>-[(1<I>R</I>)-1-[(2<I>R</I>)-2,9,9-trimethyl-3,5-dioxa-4-boratricyclo[6.1.1.0<SUP>2,6</SUP>]decan-4-yl]but-3-enyl]-7,8-dihydro-6<I>H</I>-pyrrolo[1,2-a]pyrazine-6-carboxamide
> <PUBCHEM_IUPAC_NAME>
(6S,8R)-1-chloro-8-[(4-methoxyphenyl)methyl]-4-oxo-3-[[3-(trifluoromethyl)phenyl]methylamino]-N-[(1R)-1-[(2R)-2,9,9-trimethyl-3,5-dioxa-4-boratricyclo[6.1.1.02,6]decan-4-yl]but-3-enyl]-7,8-dihydro-6H-pyrrolo[1,2-a]pyrazine-6-carboxamide
> <PUBCHEM_IUPAC_SYSTEMATIC_NAME>
(6S,8R)-1-chloranyl-8-[(4-methoxyphenyl)methyl]-4-oxidanylidene-3-[[3-(trifluoromethyl)phenyl]methylamino]-N-[(1R)-1-[(2R)-2,9,9-trimethyl-3,5-dioxa-4-boratricyclo[6.1.1.02,6]decan-4-yl]but-3-enyl]-7,8-dihydro-6H-pyrrolo[1,2-a]pyrazine-6-carboxamide
> <PUBCHEM_IUPAC_TRADITIONAL_NAME>
(6S,8R)-1-chloro-4-keto-8-p-anisyl-3-[[3-(trifluoromethyl)benzyl]amino]-N-[(1R)-1-[(2R)-2,9,9-trimethyl-3,5-dioxa-4-boratricyclo[6.1.1.02,6]decan-4-yl]but-3-enyl]-7,8-dihydro-6H-pyrrolo[1,2-a]pyrazine-6-carboxamide
> <PUBCHEM_IUPAC_INCHI>
InChI=1S/C38H43BClF3N4O5/c1-6-8-30(39-51-29-19-25-18-28(36(25,2)3)37(29,4)52-39)45-34(48)27-17-23(15-21-11-13-26(50-5)14-12-21)31-32(40)46-33(35(49)47(27)31)44-20-22-9-7-10-24(16-22)38(41,42)43/h6-7,9-14,16,23,25,27-30H,1,8,15,17-20H2,2-5H3,(H,44,46)(H,45,48)/t23-,25?,27+,28?,29?,30+,37-/m1/s1
> <PUBCHEM_IUPAC_INCHIKEY>
NUDRCFFRFVAZHB-DTDIWWSVSA-N
> <PUBCHEM_EXACT_MASS>
738.2967128
> <PUBCHEM_MOLECULAR_FORMULA>
C38H43BClF3N4O5
> <PUBCHEM_MOLECULAR_WEIGHT>
739.0
> <PUBCHEM_OPENEYE_CAN_SMILES>
B1(OC2CC3CC(C3(C)C)C2(O1)C)C(CC=C)NC(=O)C4CC(C5=C(N=C(C(=O)N45)NCC6=CC(=CC=C6)C(F)(F)F)Cl)CC7=CC=C(C=C7)OC
> <PUBCHEM_OPENEYE_ISO_SMILES>
B1(OC2CC3CC([C@]2(O1)C)C3(C)C)[C@H](CC=C)NC(=O)[C@@H]4C[C@H](C5=C(N=C(C(=O)N45)NCC6=CC(=CC=C6)C(F)(F)F)Cl)CC7=CC=C(C=C7)OC
> <PUBCHEM_CACTVS_TPSA>
102
> <PUBCHEM_MONOISOTOPIC_WEIGHT>
738.2967128
> <PUBCHEM_TOTAL_CHARGE>
0
> <PUBCHEM_HEAVY_ATOM_COUNT>
52
> <PUBCHEM_ATOM_DEF_STEREO_COUNT>
4
> <PUBCHEM_ATOM_UDEF_STEREO_COUNT>
3
> <PUBCHEM_BOND_DEF_STEREO_COUNT>
0
> <PUBCHEM_BOND_UDEF_STEREO_COUNT>
0
> <PUBCHEM_ISOTOPIC_ATOM_COUNT>
0
> <PUBCHEM_COMPONENT_COUNT>
1
> <PUBCHEM_CACTVS_TAUTO_COUNT>
-1
> <PUBCHEM_COORDINATE_TYPE>
1
5
255
> <PUBCHEM_BONDANNOTATIONS>
24  10  6
11  32  8
11  34  8
12  35  8
12  36  8
14  17  3
16  17  3
18  23  6
20  19  3
28  26  5
30  33  6
32  35  8
34  36  8
37  38  8
37  39  8
38  41  8
39  42  8
41  43  8
42  43  8
44  45  8
44  46  8
45  47  8
46  49  8
47  50  8
49  50  8
$$$$
