504202
  -OEChem-10302200282D
 36 38  0     1  0  0  0  0  0999 V2000
    9.9673    2.1081    0.0000 O   0  0  0  0  0  0  0  0  0  0  0  0
    2.5369   -3.0047    0.0000 O   0  0  0  0  0  0  0  0  0  0  0  0
    6.0812    1.8001    0.0000 N   0  0  0  0  0  0  0  0  0  0  0  0
    6.0812    0.1906    0.0000 N   0  0  0  0  0  0  0  0  0  0  0  0
    4.2690    1.9953    0.0000 N   0  0  0  0  0  0  0  0  0  0  0  0
    4.2690   -1.0047    0.0000 N   0  0  0  0  0  0  0  0  0  0  0  0
    3.4030    0.4953    0.0000 N   0  0  0  0  0  0  0  0  0  0  0  0
    2.5369    1.9953    0.0000 N   0  0  0  0  0  0  0  0  0  0  0  0
    8.3209    2.6462    0.0000 C   0  0  1  0  0  0  0  0  0  0  0  0
    8.1147    3.6247    0.0000 C   0  0  0  0  0  0  0  0  0  0  0  0
    7.3704    2.9568    0.0000 C   0  0  0  0  0  0  0  0  0  0  0  0
    8.9888    1.9018    0.0000 C   0  0  0  0  0  0  0  0  0  0  0  0
    6.3919    2.7506    0.0000 C   0  0  0  0  0  0  0  0  0  0  0  0
    5.1350    1.4953    0.0000 C   0  0  0  0  0  0  0  0  0  0  0  0
    5.1350    0.4953    0.0000 C   0  0  0  0  0  0  0  0  0  0  0  0
    6.6648    0.9953    0.0000 C   0  0  0  0  0  0  0  0  0  0  0  0
    4.2690   -0.0047    0.0000 C   0  0  0  0  0  0  0  0  0  0  0  0
    3.4030    1.4953    0.0000 C   0  0  0  0  0  0  0  0  0  0  0  0
    3.4030   -1.5047    0.0000 C   0  0  0  0  0  0  0  0  0  0  0  0
    3.4030   -2.5047    0.0000 C   0  0  0  0  0  0  0  0  0  0  0  0
    7.9823    2.1268    0.0000 H   0  0  0  0  0  0  0  0  0  0  0  0
    8.6900    3.8559    0.0000 H   0  0  0  0  0  0  0  0  0  0  0  0
    7.7871    4.1510    0.0000 H   0  0  0  0  0  0  0  0  0  0  0  0
    8.4624    1.5742    0.0000 H   0  0  0  0  0  0  0  0  0  0  0  0
    9.2200    1.3266    0.0000 H   0  0  0  0  0  0  0  0  0  0  0  0
    5.9778    3.2121    0.0000 H   0  0  0  0  0  0  0  0  0  0  0  0
   10.3813    1.6466    0.0000 H   0  0  0  0  0  0  0  0  0  0  0  0
    7.2848    0.9953    0.0000 H   0  0  0  0  0  0  0  0  0  0  0  0
    4.8059   -1.3147    0.0000 H   0  0  0  0  0  0  0  0  0  0  0  0
    3.1909   -0.9220    0.0000 H   0  0  0  0  0  0  0  0  0  0  0  0
    2.7924   -1.6123    0.0000 H   0  0  0  0  0  0  0  0  0  0  0  0
    3.6150   -3.0873    0.0000 H   0  0  0  0  0  0  0  0  0  0  0  0
    4.0135   -2.3970    0.0000 H   0  0  0  0  0  0  0  0  0  0  0  0
    2.0000    1.6853    0.0000 H   0  0  0  0  0  0  0  0  0  0  0  0
    2.5369    2.6153    0.0000 H   0  0  0  0  0  0  0  0  0  0  0  0
    2.5369   -3.6247    0.0000 H   0  0  0  0  0  0  0  0  0  0  0  0
  1 12  1  0  0  0  0
  1 27  1  0  0  0  0
  2 20  1  0  0  0  0
  2 36  1  0  0  0  0
  3 13  1  0  0  0  0
  3 14  1  0  0  0  0
  3 16  1  0  0  0  0
  4 15  1  0  0  0  0
  4 16  2  0  0  0  0
  5 14  2  0  0  0  0
  5 18  1  0  0  0  0
  6 17  1  0  0  0  0
  6 19  1  0  0  0  0
  6 29  1  0  0  0  0
  7 17  1  0  0  0  0
  7 18  2  0  0  0  0
  8 18  1  0  0  0  0
  8 34  1  0  0  0  0
  8 35  1  0  0  0  0
  9 10  1  0  0  0  0
  9 11  1  0  0  0  0
  9 12  1  6  0  0  0
  9 21  1  0  0  0  0
 10 11  1  0  0  0  0
 10 22  1  0  0  0  0
 10 23  1  0  0  0  0
 11 13  2  3  0  0  0
 12 24  1  0  0  0  0
 12 25  1  0  0  0  0
 13 26  1  0  0  0  0
 14 15  1  0  0  0  0
 15 17  2  0  0  0  0
 16 28  1  0  0  0  0
 19 20  1  0  0  0  0
 19 30  1  0  0  0  0
 19 31  1  0  0  0  0
 20 32  1  0  0  0  0
 20 33  1  0  0  0  0
M  END
> <PUBCHEM_COMPOUND_CID>
504202
> <PUBCHEM_COMPOUND_CANONICALIZED>
1
> <PUBCHEM_CACTVS_COMPLEXITY>
379
> <PUBCHEM_CACTVS_HBOND_ACCEPTOR>
7
> <PUBCHEM_CACTVS_HBOND_DONOR>
4
> <PUBCHEM_CACTVS_ROTATABLE_BOND>
5
> <PUBCHEM_CACTVS_SUBSKEYS>
AAADceBzsAAAAAAAAAAAAAAAGAAAAWAAAAAsAAAAAAAAAFgB+AAAHgAQCAAADQjhlwYF8L/MEgCgAwZnZACAgC0xEKABUKAoVBiCWABASUAURAgM0ALQACAAAAAAAAAAAAAAAAAAAAAAAAAAAAAAAAAAAA==
> <PUBCHEM_IUPAC_OPENEYE_NAME>
2-[[2-amino-9-[[(2S)-2-(hydroxymethyl)cyclopropylidene]methyl]purin-6-yl]amino]ethanol
> <PUBCHEM_IUPAC_CAS_NAME>
2-[[2-amino-9-[[(2S)-2-(hydroxymethyl)cyclopropylidene]methyl]-6-purinyl]amino]ethanol
> <PUBCHEM_IUPAC_NAME_MARKUP>
2-[[2-amino-9-[[(2<I>S</I>)-2-(hydroxymethyl)cyclopropylidene]methyl]purin-6-yl]amino]ethanol
> <PUBCHEM_IUPAC_NAME>
2-[[2-amino-9-[[(2S)-2-(hydroxymethyl)cyclopropylidene]methyl]purin-6-yl]amino]ethanol
> <PUBCHEM_IUPAC_SYSTEMATIC_NAME>
2-[[2-azanyl-9-[[(2S)-2-(hydroxymethyl)cyclopropylidene]methyl]purin-6-yl]amino]ethanol
> <PUBCHEM_IUPAC_TRADITIONAL_NAME>
2-[[2-amino-9-[[(2S)-2-methylolcyclopropylidene]methyl]purin-6-yl]amino]ethanol
> <PUBCHEM_IUPAC_INCHI>
InChI=1S/C12H16N6O2/c13-12-16-10(14-1-2-19)9-11(17-12)18(6-15-9)4-7-3-8(7)5-20/h4,6,8,19-20H,1-3,5H2,(H3,13,14,16,17)/t8-/m1/s1
> <PUBCHEM_IUPAC_INCHIKEY>
VMSVNTLPFLTPEK-MRVPVSSYSA-N
> <PUBCHEM_XLOGP3_AA>
-1.2
> <PUBCHEM_EXACT_MASS>
276.13347377
> <PUBCHEM_MOLECULAR_FORMULA>
C12H16N6O2
> <PUBCHEM_MOLECULAR_WEIGHT>
276.29
> <PUBCHEM_OPENEYE_CAN_SMILES>
C1C(C1=CN2C=NC3=C(N=C(N=C32)N)NCCO)CO
> <PUBCHEM_OPENEYE_ISO_SMILES>
C1[C@@H](C1=CN2C=NC3=C(N=C(N=C32)N)NCCO)CO
> <PUBCHEM_CACTVS_TPSA>
122
> <PUBCHEM_MONOISOTOPIC_WEIGHT>
276.13347377
> <PUBCHEM_TOTAL_CHARGE>
0
> <PUBCHEM_HEAVY_ATOM_COUNT>
20
> <PUBCHEM_ATOM_DEF_STEREO_COUNT>
1
> <PUBCHEM_ATOM_UDEF_STEREO_COUNT>
0
> <PUBCHEM_BOND_DEF_STEREO_COUNT>
0
> <PUBCHEM_BOND_UDEF_STEREO_COUNT>
1
> <PUBCHEM_ISOTOPIC_ATOM_COUNT>
0
> <PUBCHEM_COMPONENT_COUNT>
1
> <PUBCHEM_CACTVS_TAUTO_COUNT>
-1
> <PUBCHEM_COORDINATE_TYPE>
1
5
255
> <PUBCHEM_BONDANNOTATIONS>
11  13  1
14  15  8
15  17  8
3  14  8
3  16  8
4  15  8
4  16  8
5  14  8
5  18  8
7  17  8
7  18  8
9  12  6
$$$$
