504269
  -OEChem-10302200282D
 61 64  0     1  0  0  0  0  0999 V2000
    9.0411   -2.1645    0.0000 N   0  0  0  0  0  0  0  0  0  0  0  0
    6.5693   -1.2210    0.0000 N   0  0  0  0  0  0  0  0  0  0  0  0
    2.8660    1.9091    0.0000 C   0  0  0  0  0  0  0  0  0  0  0  0
    3.5731    0.7020    0.0000 C   0  0  1  0  0  0  0  0  0  0  0  0
    2.6072    0.4432    0.0000 C   0  0  2  0  0  0  0  0  0  0  0  0
   13.4298   -1.5072    0.0000 C   0  0  0  0  0  0  0  0  0  0  0  0
   12.0308   -1.5160    0.0000 C   0  0  1  0  0  0  0  0  0  0  0  0
   12.2897   -0.5501    0.0000 C   0  0  2  0  0  0  0  0  0  0  0  0
    2.1245   -0.6861    0.0000 C   0  0  0  0  0  0  0  0  0  0  0  0
   11.5530    0.4325    0.0000 C   0  0  0  0  0  0  0  0  0  0  0  0
    4.9333    0.0774    0.0000 C   0  0  0  0  0  0  0  0  0  0  0  0
    3.8933   -1.1621    0.0000 C   0  0  0  0  0  0  0  0  0  0  0  0
    4.8636   -0.9202    0.0000 C   0  0  0  0  0  0  0  0  0  0  0  0
   10.8098   -2.3817    0.0000 C   0  0  0  0  0  0  0  0  0  0  0  0
   10.2564   -0.8612    0.0000 C   0  0  0  0  0  0  0  0  0  0  0  0
    9.9808   -1.8225    0.0000 C   0  0  0  0  0  0  0  0  0  0  0  0
    2.0000    2.4091    0.0000 C   0  0  0  0  0  0  0  0  0  0  0  0
    3.3660    2.7751    0.0000 C   0  0  0  0  0  0  0  0  0  0  0  0
   13.9298   -2.3732    0.0000 C   0  0  0  0  0  0  0  0  0  0  0  0
   14.2958   -1.0072    0.0000 C   0  0  0  0  0  0  0  0  0  0  0  0
    5.6296   -1.5630    0.0000 C   0  0  0  0  0  0  0  0  0  0  0  0
    8.2750   -1.5217    0.0000 C   0  0  0  0  0  0  0  0  0  0  0  0
    7.3354   -1.8638    0.0000 C   0  0  0  0  0  0  0  0  0  0  0  0
    4.3942    0.9220    0.0000 H   0  0  0  0  0  0  0  0  0  0  0  0
    1.7862    0.2232    0.0000 H   0  0  0  0  0  0  0  0  0  0  0  0
   11.8108   -2.3371    0.0000 H   0  0  0  0  0  0  0  0  0  0  0  0
   12.5097    0.2709    0.0000 H   0  0  0  0  0  0  0  0  0  0  0  0
    1.5046   -0.6770    0.0000 H   0  0  0  0  0  0  0  0  0  0  0  0
    2.3515   -1.2631    0.0000 H   0  0  0  0  0  0  0  0  0  0  0  0
   11.8709    0.9649    0.0000 H   0  0  0  0  0  0  0  0  0  0  0  0
   10.9399    0.5245    0.0000 H   0  0  0  0  0  0  0  0  0  0  0  0
    5.5422   -0.0398    0.0000 H   0  0  0  0  0  0  0  0  0  0  0  0
    5.1226    0.6678    0.0000 H   0  0  0  0  0  0  0  0  0  0  0  0
    3.3589   -1.4765    0.0000 H   0  0  0  0  0  0  0  0  0  0  0  0
    4.1279   -1.7360    0.0000 H   0  0  0  0  0  0  0  0  0  0  0  0
    4.7241   -1.5243    0.0000 H   0  0  0  0  0  0  0  0  0  0  0  0
   10.4040   -2.8504    0.0000 H   0  0  0  0  0  0  0  0  0  0  0  0
   11.2265   -2.8408    0.0000 H   0  0  0  0  0  0  0  0  0  0  0  0
   10.2514   -0.2413    0.0000 H   0  0  0  0  0  0  0  0  0  0  0  0
    9.6421   -0.7775    0.0000 H   0  0  0  0  0  0  0  0  0  0  0  0
    9.5273   -1.3997    0.0000 H   0  0  0  0  0  0  0  0  0  0  0  0
    2.3100    2.9460    0.0000 H   0  0  0  0  0  0  0  0  0  0  0  0
    1.4631    2.7191    0.0000 H   0  0  0  0  0  0  0  0  0  0  0  0
    1.6900    1.8721    0.0000 H   0  0  0  0  0  0  0  0  0  0  0  0
    3.9030    2.4651    0.0000 H   0  0  0  0  0  0  0  0  0  0  0  0
    3.6760    3.3120    0.0000 H   0  0  0  0  0  0  0  0  0  0  0  0
    2.8291    3.0851    0.0000 H   0  0  0  0  0  0  0  0  0  0  0  0
   13.3928   -2.6832    0.0000 H   0  0  0  0  0  0  0  0  0  0  0  0
   14.2398   -2.9102    0.0000 H   0  0  0  0  0  0  0  0  0  0  0  0
   14.4667   -2.0632    0.0000 H   0  0  0  0  0  0  0  0  0  0  0  0
   14.6058   -1.5442    0.0000 H   0  0  0  0  0  0  0  0  0  0  0  0
   14.8327   -0.6972    0.0000 H   0  0  0  0  0  0  0  0  0  0  0  0
   13.9858   -0.4703    0.0000 H   0  0  0  0  0  0  0  0  0  0  0  0
    5.1547   -1.9615    0.0000 H   0  0  0  0  0  0  0  0  0  0  0  0
    5.9396   -2.0999    0.0000 H   0  0  0  0  0  0  0  0  0  0  0  0
    8.9334   -2.7751    0.0000 H   0  0  0  0  0  0  0  0  0  0  0  0
    8.7500   -1.1232    0.0000 H   0  0  0  0  0  0  0  0  0  0  0  0
    7.9650   -0.9848    0.0000 H   0  0  0  0  0  0  0  0  0  0  0  0
    6.6770   -0.6104    0.0000 H   0  0  0  0  0  0  0  0  0  0  0  0
    6.8604   -2.2623    0.0000 H   0  0  0  0  0  0  0  0  0  0  0  0
    7.6454   -2.4007    0.0000 H   0  0  0  0  0  0  0  0  0  0  0  0
  1 16  1  0  0  0  0
  1 22  1  0  0  0  0
  1 56  1  0  0  0  0
  2 21  1  0  0  0  0
  2 23  1  0  0  0  0
  2 59  1  0  0  0  0
  3  4  1  0  0  0  0
  3  5  1  0  0  0  0
  3 17  1  0  0  0  0
  3 18  1  0  0  0  0
  4  9  1  0  0  0  0
  4 11  1  0  0  0  0
  4 24  1  1  0  0  0
  5  9  1  0  0  0  0
  5 12  1  0  0  0  0
  5 25  1  6  0  0  0
  6  7  1  0  0  0  0
  6  8  1  0  0  0  0
  6 19  1  0  0  0  0
  6 20  1  0  0  0  0
  7 10  1  0  0  0  0
  7 14  1  0  0  0  0
  7 26  1  1  0  0  0
  8 10  1  0  0  0  0
  8 15  1  0  0  0  0
  8 27  1  6  0  0  0
  9 28  1  0  0  0  0
  9 29  1  0  0  0  0
 10 30  1  0  0  0  0
 10 31  1  0  0  0  0
 11 13  1  0  0  0  0
 11 32  1  0  0  0  0
 11 33  1  0  0  0  0
 12 13  1  0  0  0  0
 12 34  1  0  0  0  0
 12 35  1  0  0  0  0
 13 21  1  0  0  0  0
 13 36  1  0  0  0  0
 14 16  1  0  0  0  0
 14 37  1  0  0  0  0
 14 38  1  0  0  0  0
 15 16  1  0  0  0  0
 15 39  1  0  0  0  0
 15 40  1  0  0  0  0
 16 41  1  0  0  0  0
 17 42  1  0  0  0  0
 17 43  1  0  0  0  0
 17 44  1  0  0  0  0
 18 45  1  0  0  0  0
 18 46  1  0  0  0  0
 18 47  1  0  0  0  0
 19 48  1  0  0  0  0
 19 49  1  0  0  0  0
 19 50  1  0  0  0  0
 20 51  1  0  0  0  0
 20 52  1  0  0  0  0
 20 53  1  0  0  0  0
 21 54  1  0  0  0  0
 21 55  1  0  0  0  0
 22 23  1  0  0  0  0
 22 57  1  0  0  0  0
 22 58  1  0  0  0  0
 23 60  1  0  0  0  0
 23 61  1  0  0  0  0
M  END
> <PUBCHEM_COMPOUND_CID>
504269
> <PUBCHEM_COMPOUND_CANONICALIZED>
1
> <PUBCHEM_CACTVS_COMPLEXITY>
413
> <PUBCHEM_CACTVS_HBOND_ACCEPTOR>
2
> <PUBCHEM_CACTVS_HBOND_DONOR>
2
> <PUBCHEM_CACTVS_ROTATABLE_BOND>
6
> <PUBCHEM_CACTVS_SUBSKEYS>
AAADcfB7AAAAAAAAAAAAAAAAAABgwAAAAAAwYMGAAAAAAAAAAAAAHAAQAAAADyjBAAQCAALAAAAAAAAAAAAAAAAAAAAAAIAIAAAAQAIAgAAUAAAAEACAAAEQgMAPgAAAAAAAAACQAASAACAAAAAAAAAAAA==
> <PUBCHEM_IUPAC_OPENEYE_NAME>
N'-[(1S,5R)-6,6-dimethylnorpinan-3-yl]-N-[[(1S,5R)-6,6-dimethylnorpinan-3-yl]methyl]ethane-1,2-diamine
> <PUBCHEM_IUPAC_CAS_NAME>
N'-[(1S,5R)-6,6-dimethyl-3-bicyclo[3.1.1]heptanyl]-N-[[(1S,5R)-6,6-dimethyl-3-bicyclo[3.1.1]heptanyl]methyl]ethane-1,2-diamine
> <PUBCHEM_IUPAC_NAME_MARKUP>
<I>N</I>&apos;-[(1<I>S</I>,5<I>R</I>)-6,6-dimethyl-3-bicyclo[3.1.1]heptanyl]-<I>N</I>-[[(1<I>S</I>,5<I>R</I>)-6,6-dimethyl-3-bicyclo[3.1.1]heptanyl]methyl]ethane-1,2-diamine
> <PUBCHEM_IUPAC_NAME>
N'-[(1S,5R)-6,6-dimethyl-3-bicyclo[3.1.1]heptanyl]-N-[[(1S,5R)-6,6-dimethyl-3-bicyclo[3.1.1]heptanyl]methyl]ethane-1,2-diamine
> <PUBCHEM_IUPAC_SYSTEMATIC_NAME>
N'-[(1S,5R)-6,6-dimethyl-3-bicyclo[3.1.1]heptanyl]-N-[[(1S,5R)-6,6-dimethyl-3-bicyclo[3.1.1]heptanyl]methyl]ethane-1,2-diamine
> <PUBCHEM_IUPAC_TRADITIONAL_NAME>
[(1S,5R)-6,6-dimethylnorpinan-3-yl]-[2-[[(1S,5R)-6,6-dimethylnorpinan-3-yl]methylamino]ethyl]amine
> <PUBCHEM_IUPAC_INCHI>
InChI=1S/C21H38N2/c1-20(2)15-7-14(8-16(20)9-15)13-22-5-6-23-19-11-17-10-18(12-19)21(17,3)4/h14-19,22-23H,5-13H2,1-4H3/t14?,15-,16+,17-,18+,19?
> <PUBCHEM_IUPAC_INCHIKEY>
HNONBJIYRZIAEY-VZGHEAIFSA-N
> <PUBCHEM_XLOGP3_AA>
4.7
> <PUBCHEM_EXACT_MASS>
318.303499221
> <PUBCHEM_MOLECULAR_FORMULA>
C21H38N2
> <PUBCHEM_MOLECULAR_WEIGHT>
318.5
> <PUBCHEM_OPENEYE_CAN_SMILES>
CC1(C2CC(CC1C2)CNCCNC3CC4CC(C3)C4(C)C)C
> <PUBCHEM_OPENEYE_ISO_SMILES>
CC1([C@@H]2C[C@H]1CC(C2)CNCCNC3C[C@H]4C[C@@H](C3)C4(C)C)C
> <PUBCHEM_CACTVS_TPSA>
24.1
> <PUBCHEM_MONOISOTOPIC_WEIGHT>
318.303499221
> <PUBCHEM_TOTAL_CHARGE>
0
> <PUBCHEM_HEAVY_ATOM_COUNT>
23
> <PUBCHEM_ATOM_DEF_STEREO_COUNT>
4
> <PUBCHEM_ATOM_UDEF_STEREO_COUNT>
0
> <PUBCHEM_BOND_DEF_STEREO_COUNT>
0
> <PUBCHEM_BOND_UDEF_STEREO_COUNT>
0
> <PUBCHEM_ISOTOPIC_ATOM_COUNT>
0
> <PUBCHEM_COMPONENT_COUNT>
1
> <PUBCHEM_CACTVS_TAUTO_COUNT>
-1
> <PUBCHEM_COORDINATE_TYPE>
1
5
255
> <PUBCHEM_BONDANNOTATIONS>
4  24  5
5  25  6
7  26  5
8  27  6
$$$$
