504218
  -OEChem-10302200282D
 96102  0     1  0  0  0  0  0999 V2000
    3.9234   -0.9251    0.0000 Cl  0  0  0  0  0  0  0  0  0  0  0  0
   11.3108    1.2512    0.0000 O   0  0  0  0  0  0  0  0  0  0  0  0
    9.9765    2.1512    0.0000 O   0  0  0  0  0  0  0  0  0  0  0  0
    8.6398   -1.2698    0.0000 O   0  0  0  0  0  0  0  0  0  0  0  0
    7.6295   -2.4300    0.0000 O   0  0  0  0  0  0  0  0  0  0  0  0
    8.7606    0.4581    0.0000 N   0  0  0  0  0  0  0  0  0  0  0  0
    6.5655   -1.0633    0.0000 N   0  0  0  0  0  0  0  0  0  0  0  0
    4.9873   -2.2919    0.0000 N   0  0  0  0  0  0  0  0  0  0  0  0
    6.0513   -3.6586    0.0000 N   0  0  0  0  0  0  0  0  0  0  0  0
   12.8083    3.0717    0.0000 C   0  0  3  0  0  0  0  0  0  0  0  0
   14.2073    3.0805    0.0000 C   0  0  0  0  0  0  0  0  0  0  0  0
   13.0672    4.0376    0.0000 C   0  0  3  0  0  0  0  0  0  0  0  0
   11.5873    2.2060    0.0000 C   0  0  2  0  0  0  0  0  0  0  0  0
   12.3305    5.0202    0.0000 C   0  0  0  0  0  0  0  0  0  0  0  0
   11.0339    3.7265    0.0000 C   0  0  0  0  0  0  0  0  0  0  0  0
   10.7583    2.7652    0.0000 C   0  0  3  0  0  0  0  0  0  0  0  0
   15.0733    3.5805    0.0000 C   0  0  0  0  0  0  0  0  0  0  0  0
   14.7073    2.2145    0.0000 C   0  0  0  0  0  0  0  0  0  0  0  0
   12.4164    1.6468    0.0000 C   0  0  0  0  0  0  0  0  0  0  0  0
    9.7581    0.3883    0.0000 C   0  0  1  0  0  0  0  0  0  0  0  0
   10.1965   -0.5105    0.0000 C   0  0  0  0  0  0  0  0  0  0  0  0
    8.2014   -0.3710    0.0000 C   0  0  0  0  0  0  0  0  0  0  0  0
    9.6373   -1.3395    0.0000 C   0  0  0  0  0  0  0  0  0  0  0  0
    7.2038   -0.3012    0.0000 C   0  0  2  0  0  0  0  0  0  0  0  0
    6.6778    0.5423    0.0000 C   0  0  0  0  0  0  0  0  0  0  0  0
    5.7126    0.3043    0.0000 C   0  0  2  0  0  0  0  0  0  0  0  0
    5.6390   -0.6871    0.0000 C   0  0  0  0  0  0  0  0  0  0  0  0
   10.0757   -2.2383    0.0000 C   0  0  0  0  0  0  0  0  0  0  0  0
    4.9488    0.9497    0.0000 C   0  0  0  0  0  0  0  0  0  0  0  0
    6.7030   -2.0538    0.0000 C   0  0  0  0  0  0  0  0  0  0  0  0
    4.8499   -1.3014    0.0000 C   0  0  0  0  0  0  0  0  0  0  0  0
    5.1258    1.9339    0.0000 C   0  0  0  0  0  0  0  0  0  0  0  0
    5.9139   -2.6681    0.0000 C   0  0  0  0  0  0  0  0  0  0  0  0
    4.3620    2.5794    0.0000 C   0  0  0  0  0  0  0  0  0  0  0  0
    4.5391    3.5636    0.0000 C   0  0  0  0  0  0  0  0  0  0  0  0
    5.2623   -4.2729    0.0000 C   0  0  0  0  0  0  0  0  0  0  0  0
    3.7753    4.2090    0.0000 C   0  0  0  0  0  0  0  0  0  0  0  0
    5.4799    3.9023    0.0000 C   0  0  0  0  0  0  0  0  0  0  0  0
    5.3997   -5.2634    0.0000 C   0  0  0  0  0  0  0  0  0  0  0  0
    3.9523    5.1932    0.0000 C   0  0  0  0  0  0  0  0  0  0  0  0
    5.6570    4.8865    0.0000 C   0  0  0  0  0  0  0  0  0  0  0  0
    2.8008    3.8411    0.0000 C   0  0  0  0  0  0  0  0  0  0  0  0
    4.8932    5.5320    0.0000 C   0  0  0  0  0  0  0  0  0  0  0  0
    4.6106   -5.8777    0.0000 C   0  0  0  0  0  0  0  0  0  0  0  0
    3.1672    5.8777    0.0000 C   0  0  0  0  0  0  0  0  0  0  0  0
    2.0000    4.5072    0.0000 C   0  0  0  0  0  0  0  0  0  0  0  0
    2.1844    5.5324    0.0000 C   0  0  0  0  0  0  0  0  0  0  0  0
   10.3173    1.2174    0.0000 B   0  0  0  0  0  0  0  0  0  0  0  0
   12.9984    2.4815    0.0000 H   0  0  0  0  0  0  0  0  0  0  0  0
   13.5175    4.4638    0.0000 H   0  0  0  0  0  0  0  0  0  0  0  0
   12.6483    5.5526    0.0000 H   0  0  0  0  0  0  0  0  0  0  0  0
   11.7174    5.1122    0.0000 H   0  0  0  0  0  0  0  0  0  0  0  0
   11.0289    4.3465    0.0000 H   0  0  0  0  0  0  0  0  0  0  0  0
   10.4196    3.8103    0.0000 H   0  0  0  0  0  0  0  0  0  0  0  0
   10.2438    3.1113    0.0000 H   0  0  0  0  0  0  0  0  0  0  0  0
   15.3833    3.0436    0.0000 H   0  0  0  0  0  0  0  0  0  0  0  0
   15.6102    3.8905    0.0000 H   0  0  0  0  0  0  0  0  0  0  0  0
   14.7633    4.1175    0.0000 H   0  0  0  0  0  0  0  0  0  0  0  0
   14.1703    1.9045    0.0000 H   0  0  0  0  0  0  0  0  0  0  0  0
   15.0173    1.6776    0.0000 H   0  0  0  0  0  0  0  0  0  0  0  0
   15.2442    2.5245    0.0000 H   0  0  0  0  0  0  0  0  0  0  0  0
   12.0697    1.1328    0.0000 H   0  0  0  0  0  0  0  0  0  0  0  0
   12.9304    1.3002    0.0000 H   0  0  0  0  0  0  0  0  0  0  0  0
   12.7631    2.1608    0.0000 H   0  0  0  0  0  0  0  0  0  0  0  0
    9.4864    0.9456    0.0000 H   0  0  0  0  0  0  0  0  0  0  0  0
   10.6425   -0.9412    0.0000 H   0  0  0  0  0  0  0  0  0  0  0  0
   10.6981   -0.1461    0.0000 H   0  0  0  0  0  0  0  0  0  0  0  0
    8.4888    1.0153    0.0000 H   0  0  0  0  0  0  0  0  0  0  0  0
    9.0188   -1.2963    0.0000 H   0  0  0  0  0  0  0  0  0  0  0  0
    7.4463   -0.8718    0.0000 H   0  0  0  0  0  0  0  0  0  0  0  0
    7.2354    0.8133    0.0000 H   0  0  0  0  0  0  0  0  0  0  0  0
    6.4669    1.1253    0.0000 H   0  0  0  0  0  0  0  0  0  0  0  0
    5.1409    0.0643    0.0000 H   0  0  0  0  0  0  0  0  0  0  0  0
    9.7290   -2.7523    0.0000 H   0  0  0  0  0  0  0  0  0  0  0  0
   10.6942   -2.2816    0.0000 H   0  0  0  0  0  0  0  0  0  0  0  0
    4.3669    1.1638    0.0000 H   0  0  0  0  0  0  0  0  0  0  0  0
    4.6369    0.4139    0.0000 H   0  0  0  0  0  0  0  0  0  0  0  0
    5.7077    1.7198    0.0000 H   0  0  0  0  0  0  0  0  0  0  0  0
    5.4377    2.4698    0.0000 H   0  0  0  0  0  0  0  0  0  0  0  0
    3.7801    2.7934    0.0000 H   0  0  0  0  0  0  0  0  0  0  0  0
    4.0502    2.0435    0.0000 H   0  0  0  0  0  0  0  0  0  0  0  0
    6.6258   -3.8918    0.0000 H   0  0  0  0  0  0  0  0  0  0  0  0
    4.9721   -3.7250    0.0000 H   0  0  0  0  0  0  0  0  0  0  0  0
    4.6723   -4.4634    0.0000 H   0  0  0  0  0  0  0  0  0  0  0  0
    5.9535    3.5022    0.0000 H   0  0  0  0  0  0  0  0  0  0  0  0
    5.6898   -5.8113    0.0000 H   0  0  0  0  0  0  0  0  0  0  0  0
    5.9897   -5.0728    0.0000 H   0  0  0  0  0  0  0  0  0  0  0  0
    6.2403    5.0966    0.0000 H   0  0  0  0  0  0  0  0  0  0  0  0
    2.6981    3.2296    0.0000 H   0  0  0  0  0  0  0  0  0  0  0  0
    5.0030    6.1422    0.0000 H   0  0  0  0  0  0  0  0  0  0  0  0
    4.2298   -5.3885    0.0000 H   0  0  0  0  0  0  0  0  0  0  0  0
    4.1214   -6.2585    0.0000 H   0  0  0  0  0  0  0  0  0  0  0  0
    4.9915   -6.3669    0.0000 H   0  0  0  0  0  0  0  0  0  0  0  0
    3.2840    6.4866    0.0000 H   0  0  0  0  0  0  0  0  0  0  0  0
    1.4175    4.2949    0.0000 H   0  0  0  0  0  0  0  0  0  0  0  0
    1.7124    5.9344    0.0000 H   0  0  0  0  0  0  0  0  0  0  0  0
  1 31  1  0  0  0  0
  2 13  1  0  0  0  0
  2 48  1  0  0  0  0
  3 16  1  0  0  0  0
  3 48  1  0  0  0  0
  4 22  2  0  0  0  0
  5 30  2  0  0  0  0
 20  6  1  6  0  0  0
  6 22  1  0  0  0  0
  6 68  1  0  0  0  0
  7 24  1  0  0  0  0
  7 27  1  0  0  0  0
  7 30  1  0  0  0  0
  8 31  1  0  0  0  0
  8 33  2  0  0  0  0
  9 33  1  0  0  0  0
  9 36  1  0  0  0  0
  9 82  1  0  0  0  0
 10 11  1  0  0  0  0
 10 13  1  0  0  0  0
 10 14  1  0  0  0  0
 10 49  1  0  0  0  0
 11 12  1  0  0  0  0
 11 17  1  0  0  0  0
 11 18  1  0  0  0  0
 12 14  1  0  0  0  0
 12 15  1  0  0  0  0
 12 50  1  0  0  0  0
 13 16  1  0  0  0  0
 13 19  1  6  0  0  0
 14 51  1  0  0  0  0
 14 52  1  0  0  0  0
 15 16  1  0  0  0  0
 15 53  1  0  0  0  0
 15 54  1  0  0  0  0
 16 55  1  0  0  0  0
 17 56  1  0  0  0  0
 17 57  1  0  0  0  0
 17 58  1  0  0  0  0
 18 59  1  0  0  0  0
 18 60  1  0  0  0  0
 18 61  1  0  0  0  0
 19 62  1  0  0  0  0
 19 63  1  0  0  0  0
 19 64  1  0  0  0  0
 20 21  1  0  0  0  0
 20 48  1  0  0  0  0
 20 65  1  0  0  0  0
 21 23  1  0  0  0  0
 21 66  1  0  0  0  0
 21 67  1  0  0  0  0
 24 22  1  1  0  0  0
 23 28  2  0  0  0  0
 23 69  1  0  0  0  0
 24 25  1  0  0  0  0
 24 70  1  0  0  0  0
 25 26  1  0  0  0  0
 25 71  1  0  0  0  0
 25 72  1  0  0  0  0
 26 27  1  0  0  0  0
 26 29  1  6  0  0  0
 26 73  1  0  0  0  0
 27 31  2  0  0  0  0
 28 74  1  0  0  0  0
 28 75  1  0  0  0  0
 29 32  1  0  0  0  0
 29 76  1  0  0  0  0
 29 77  1  0  0  0  0
 30 33  1  0  0  0  0
 32 34  1  0  0  0  0
 32 78  1  0  0  0  0
 32 79  1  0  0  0  0
 34 35  1  0  0  0  0
 34 80  1  0  0  0  0
 34 81  1  0  0  0  0
 35 37  1  0  0  0  0
 35 38  2  0  0  0  0
 36 39  1  0  0  0  0
 36 83  1  0  0  0  0
 36 84  1  0  0  0  0
 37 40  1  0  0  0  0
 37 42  2  0  0  0  0
 38 41  1  0  0  0  0
 38 85  1  0  0  0  0
 39 44  1  0  0  0  0
 39 86  1  0  0  0  0
 39 87  1  0  0  0  0
 40 43  1  0  0  0  0
 40 45  2  0  0  0  0
 41 43  2  0  0  0  0
 41 88  1  0  0  0  0
 42 46  1  0  0  0  0
 42 89  1  0  0  0  0
 43 90  1  0  0  0  0
 44 91  1  0  0  0  0
 44 92  1  0  0  0  0
 44 93  1  0  0  0  0
 45 47  1  0  0  0  0
 45 94  1  0  0  0  0
 46 47  2  0  0  0  0
 46 95  1  0  0  0  0
 47 96  1  0  0  0  0
M  END
> <PUBCHEM_COMPOUND_CID>
504218
> <PUBCHEM_COMPOUND_CANONICALIZED>
1
> <PUBCHEM_CACTVS_COMPLEXITY>
1340
> <PUBCHEM_CACTVS_HBOND_ACCEPTOR>
5
> <PUBCHEM_CACTVS_HBOND_DONOR>
2
> <PUBCHEM_CACTVS_ROTATABLE_BOND>
12
> <PUBCHEM_CACTVS_SUBSKEYS>
AAADcfJ/uAAEAAAAAAAAAAAAAABgAWJAAAAwYMGCAAAAAEjBUAAoHgIQAAAAD37hmAYzAMPAAACoAidydAACAAEgAAAJiIGIAIgJYDKAmTCUIAAklgCIiAeYyfCPgAACAAAQAADAAAYAADCAAAAAAAAAAA==
> <PUBCHEM_IUPAC_OPENEYE_NAME>
(6S,8R)-1-chloro-8-[3-(1-naphthyl)propyl]-4-oxo-3-(propylamino)-N-[(1R)-1-[(2R)-2,9,9-trimethyl-3,5-dioxa-4-boratricyclo[6.1.1.02,6]decan-4-yl]but-3-enyl]-7,8-dihydro-6H-pyrrolo[1,2-a]pyrazine-6-carboxamide
> <PUBCHEM_IUPAC_CAS_NAME>
(6S,8R)-1-chloro-8-[3-(1-naphthalenyl)propyl]-4-oxo-3-(propylamino)-N-[(1R)-1-[(2R)-2,9,9-trimethyl-3,5-dioxa-4-boratricyclo[6.1.1.02,6]decan-4-yl]but-3-enyl]-7,8-dihydro-6H-pyrrolo[1,2-a]pyrazine-6-carboxamide
> <PUBCHEM_IUPAC_NAME_MARKUP>
(6<I>S</I>,8<I>R</I>)-1-chloro-8-(3-naphthalen-1-ylpropyl)-4-oxo-3-(propylamino)-<I>N</I>-[(1<I>R</I>)-1-[(2<I>R</I>)-2,9,9-trimethyl-3,5-dioxa-4-boratricyclo[6.1.1.0<SUP>2,6</SUP>]decan-4-yl]but-3-enyl]-7,8-dihydro-6<I>H</I>-pyrrolo[1,2-a]pyrazine-6-carboxamide
> <PUBCHEM_IUPAC_NAME>
(6S,8R)-1-chloro-8-(3-naphthalen-1-ylpropyl)-4-oxo-3-(propylamino)-N-[(1R)-1-[(2R)-2,9,9-trimethyl-3,5-dioxa-4-boratricyclo[6.1.1.02,6]decan-4-yl]but-3-enyl]-7,8-dihydro-6H-pyrrolo[1,2-a]pyrazine-6-carboxamide
> <PUBCHEM_IUPAC_SYSTEMATIC_NAME>
(6S,8R)-1-chloranyl-8-(3-naphthalen-1-ylpropyl)-4-oxidanylidene-3-(propylamino)-N-[(1R)-1-[(2R)-2,9,9-trimethyl-3,5-dioxa-4-boratricyclo[6.1.1.02,6]decan-4-yl]but-3-enyl]-7,8-dihydro-6H-pyrrolo[1,2-a]pyrazine-6-carboxamide
> <PUBCHEM_IUPAC_TRADITIONAL_NAME>
(6S,8R)-1-chloro-4-keto-8-[3-(1-naphthyl)propyl]-3-(propylamino)-N-[(1R)-1-[(2R)-2,9,9-trimethyl-3,5-dioxa-4-boratricyclo[6.1.1.02,6]decan-4-yl]but-3-enyl]-7,8-dihydro-6H-pyrrolo[1,2-a]pyrazine-6-carboxamide
> <PUBCHEM_IUPAC_INCHI>
InChI=1S/C38H48BClN4O4/c1-6-12-31(39-47-30-22-26-21-29(37(26,3)4)38(30,5)48-39)42-35(45)28-20-25(32-33(40)43-34(41-19-7-2)36(46)44(28)32)17-11-16-24-15-10-14-23-13-8-9-18-27(23)24/h6,8-10,13-15,18,25-26,28-31H,1,7,11-12,16-17,19-22H2,2-5H3,(H,41,43)(H,42,45)/t25-,26?,28+,29?,30?,31+,38-/m1/s1
> <PUBCHEM_IUPAC_INCHIKEY>
JDLUQLOIECPIFX-XRIYMHTPSA-N
> <PUBCHEM_EXACT_MASS>
670.3457139
> <PUBCHEM_MOLECULAR_FORMULA>
C38H48BClN4O4
> <PUBCHEM_MOLECULAR_WEIGHT>
671.1
> <PUBCHEM_OPENEYE_CAN_SMILES>
B1(OC2CC3CC(C3(C)C)C2(O1)C)C(CC=C)NC(=O)C4CC(C5=C(N=C(C(=O)N45)NCCC)Cl)CCCC6=CC=CC7=CC=CC=C76
> <PUBCHEM_OPENEYE_ISO_SMILES>
B1(OC2CC3CC([C@]2(O1)C)C3(C)C)[C@H](CC=C)NC(=O)[C@@H]4C[C@H](C5=C(N=C(C(=O)N45)NCCC)Cl)CCCC6=CC=CC7=CC=CC=C76
> <PUBCHEM_CACTVS_TPSA>
92.3
> <PUBCHEM_MONOISOTOPIC_WEIGHT>
670.3457139
> <PUBCHEM_TOTAL_CHARGE>
0
> <PUBCHEM_HEAVY_ATOM_COUNT>
48
> <PUBCHEM_ATOM_DEF_STEREO_COUNT>
4
> <PUBCHEM_ATOM_UDEF_STEREO_COUNT>
3
> <PUBCHEM_BOND_DEF_STEREO_COUNT>
0
> <PUBCHEM_BOND_UDEF_STEREO_COUNT>
0
> <PUBCHEM_ISOTOPIC_ATOM_COUNT>
0
> <PUBCHEM_COMPONENT_COUNT>
1
> <PUBCHEM_CACTVS_TAUTO_COUNT>
-1
> <PUBCHEM_COORDINATE_TYPE>
1
5
255
> <PUBCHEM_BONDANNOTATIONS>
10  14  3
12  14  3
13  19  6
16  15  3
24  22  5
26  29  6
27  31  8
30  33  8
35  37  8
35  38  8
37  40  8
37  42  8
38  41  8
40  43  8
40  45  8
41  43  8
42  46  8
45  47  8
46  47  8
20  6  6
7  27  8
7  30  8
8  31  8
8  33  8
$$$$
