504266
  -OEChem-10302200282D
 64 67  0     1  0  0  0  0  0999 V2000
    6.1704    0.8869    0.0000 N   0  0  0  0  0  0  0  0  0  0  0  0
    5.3922   -1.6418    0.0000 N   0  0  0  0  0  0  0  0  0  0  0  0
    9.6036    3.2906    0.0000 C   0  0  0  0  0  0  0  0  0  0  0  0
    8.2046    3.2818    0.0000 C   0  0  1  0  0  0  0  0  0  0  0  0
    8.4634    4.2478    0.0000 C   0  0  2  0  0  0  0  0  0  0  0  0
    7.7268    5.2304    0.0000 C   0  0  0  0  0  0  0  0  0  0  0  0
    6.9836    2.4162    0.0000 C   0  0  1  0  0  0  0  0  0  0  0  0
    6.4302    3.9366    0.0000 C   0  0  0  0  0  0  0  0  0  0  0  0
    6.1546    2.9754    0.0000 C   0  0  0  0  0  0  0  0  0  0  0  0
   10.4696    3.7906    0.0000 C   0  0  0  0  0  0  0  0  0  0  0  0
   10.1036    2.4246    0.0000 C   0  0  0  0  0  0  0  0  0  0  0  0
    7.0185    1.4168    0.0000 C   0  0  0  0  0  0  0  0  0  0  0  0
    6.2053   -0.1125    0.0000 C   0  0  0  0  0  0  0  0  0  0  0  0
    5.3573   -0.6424    0.0000 C   0  0  0  0  0  0  0  0  0  0  0  0
    4.5441   -2.1718    0.0000 C   0  0  0  0  0  0  0  0  0  0  0  0
    4.5790   -3.1712    0.0000 C   0  0  0  0  0  0  0  0  0  0  0  0
    3.7310   -3.7011    0.0000 C   0  0  0  0  0  0  0  0  0  0  0  0
    5.4620   -3.6406    0.0000 C   0  0  0  0  0  0  0  0  0  0  0  0
    2.8481   -3.2316    0.0000 C   0  0  0  0  0  0  0  0  0  0  0  0
    5.4969   -4.6400    0.0000 C   0  0  0  0  0  0  0  0  0  0  0  0
    3.7659   -4.7005    0.0000 C   0  0  0  0  0  0  0  0  0  0  0  0
    6.3100   -3.1107    0.0000 C   0  0  0  0  0  0  0  0  0  0  0  0
    2.0000   -3.7615    0.0000 C   0  0  0  0  0  0  0  0  0  0  0  0
    6.3798   -5.1095    0.0000 C   0  0  0  0  0  0  0  0  0  0  0  0
    2.9178   -5.2304    0.0000 C   0  0  0  0  0  0  0  0  0  0  0  0
    7.1930   -3.5802    0.0000 C   0  0  0  0  0  0  0  0  0  0  0  0
    2.0349   -4.7609    0.0000 C   0  0  0  0  0  0  0  0  0  0  0  0
    7.2279   -4.5796    0.0000 C   0  0  0  0  0  0  0  0  0  0  0  0
    7.9846    2.4608    0.0000 H   0  0  0  0  0  0  0  0  0  0  0  0
    8.6834    5.0688    0.0000 H   0  0  0  0  0  0  0  0  0  0  0  0
    8.0446    5.7627    0.0000 H   0  0  0  0  0  0  0  0  0  0  0  0
    7.1137    5.3223    0.0000 H   0  0  0  0  0  0  0  0  0  0  0  0
    6.4413    2.1156    0.0000 H   0  0  0  0  0  0  0  0  0  0  0  0
    6.4251    4.5566    0.0000 H   0  0  0  0  0  0  0  0  0  0  0  0
    5.8159    4.0204    0.0000 H   0  0  0  0  0  0  0  0  0  0  0  0
    5.5797    3.2076    0.0000 H   0  0  0  0  0  0  0  0  0  0  0  0
    5.8635    2.4279    0.0000 H   0  0  0  0  0  0  0  0  0  0  0  0
   10.7796    3.2537    0.0000 H   0  0  0  0  0  0  0  0  0  0  0  0
   11.0065    4.1006    0.0000 H   0  0  0  0  0  0  0  0  0  0  0  0
   10.1596    4.3276    0.0000 H   0  0  0  0  0  0  0  0  0  0  0  0
    9.5666    2.1146    0.0000 H   0  0  0  0  0  0  0  0  0  0  0  0
   10.4136    1.8877    0.0000 H   0  0  0  0  0  0  0  0  0  0  0  0
   10.6405    2.7346    0.0000 H   0  0  0  0  0  0  0  0  0  0  0  0
    7.2508    0.8419    0.0000 H   0  0  0  0  0  0  0  0  0  0  0  0
    7.6249    1.5457    0.0000 H   0  0  0  0  0  0  0  0  0  0  0  0
    5.6230    1.1779    0.0000 H   0  0  0  0  0  0  0  0  0  0  0  0
    6.4376   -0.6874    0.0000 H   0  0  0  0  0  0  0  0  0  0  0  0
    6.8118    0.0164    0.0000 H   0  0  0  0  0  0  0  0  0  0  0  0
    5.1250   -0.0676    0.0000 H   0  0  0  0  0  0  0  0  0  0  0  0
    4.7508   -0.7714    0.0000 H   0  0  0  0  0  0  0  0  0  0  0  0
    5.9396   -1.9329    0.0000 H   0  0  0  0  0  0  0  0  0  0  0  0
    4.3119   -1.5969    0.0000 H   0  0  0  0  0  0  0  0  0  0  0  0
    3.9377   -2.3007    0.0000 H   0  0  0  0  0  0  0  0  0  0  0  0
    5.1048   -2.8426    0.0000 H   0  0  0  0  0  0  0  0  0  0  0  0
    2.8264   -2.6120    0.0000 H   0  0  0  0  0  0  0  0  0  0  0  0
    4.9711   -4.9686    0.0000 H   0  0  0  0  0  0  0  0  0  0  0  0
    4.3133   -4.9915    0.0000 H   0  0  0  0  0  0  0  0  0  0  0  0
    6.2884   -2.4911    0.0000 H   0  0  0  0  0  0  0  0  0  0  0  0
    1.4526   -3.4704    0.0000 H   0  0  0  0  0  0  0  0  0  0  0  0
    6.4015   -5.7291    0.0000 H   0  0  0  0  0  0  0  0  0  0  0  0
    2.9395   -5.8500    0.0000 H   0  0  0  0  0  0  0  0  0  0  0  0
    7.7188   -3.2516    0.0000 H   0  0  0  0  0  0  0  0  0  0  0  0
    1.5091   -5.0894    0.0000 H   0  0  0  0  0  0  0  0  0  0  0  0
    7.7753   -4.8706    0.0000 H   0  0  0  0  0  0  0  0  0  0  0  0
  1 12  1  0  0  0  0
  1 13  1  0  0  0  0
  1 46  1  0  0  0  0
  2 14  1  0  0  0  0
  2 15  1  0  0  0  0
  2 51  1  0  0  0  0
  3  4  1  0  0  0  0
  3  5  1  0  0  0  0
  3 10  1  0  0  0  0
  3 11  1  0  0  0  0
  4  6  1  0  0  0  0
  4  7  1  0  0  0  0
  4 29  1  1  0  0  0
  5  6  1  0  0  0  0
  5  8  1  0  0  0  0
  5 30  1  6  0  0  0
  6 31  1  0  0  0  0
  6 32  1  0  0  0  0
  7  9  1  0  0  0  0
  7 12  1  6  0  0  0
  7 33  1  0  0  0  0
  8  9  1  0  0  0  0
  8 34  1  0  0  0  0
  8 35  1  0  0  0  0
  9 36  1  0  0  0  0
  9 37  1  0  0  0  0
 10 38  1  0  0  0  0
 10 39  1  0  0  0  0
 10 40  1  0  0  0  0
 11 41  1  0  0  0  0
 11 42  1  0  0  0  0
 11 43  1  0  0  0  0
 12 44  1  0  0  0  0
 12 45  1  0  0  0  0
 13 14  1  0  0  0  0
 13 47  1  0  0  0  0
 13 48  1  0  0  0  0
 14 49  1  0  0  0  0
 14 50  1  0  0  0  0
 15 16  1  0  0  0  0
 15 52  1  0  0  0  0
 15 53  1  0  0  0  0
 16 17  1  0  0  0  0
 16 18  1  0  0  0  0
 16 54  1  0  0  0  0
 17 19  2  0  0  0  0
 17 21  1  0  0  0  0
 18 20  2  0  0  0  0
 18 22  1  0  0  0  0
 19 23  1  0  0  0  0
 19 55  1  0  0  0  0
 20 24  1  0  0  0  0
 20 56  1  0  0  0  0
 21 25  2  0  0  0  0
 21 57  1  0  0  0  0
 22 26  2  0  0  0  0
 22 58  1  0  0  0  0
 23 27  2  0  0  0  0
 23 59  1  0  0  0  0
 24 28  2  0  0  0  0
 24 60  1  0  0  0  0
 25 27  1  0  0  0  0
 25 61  1  0  0  0  0
 26 28  1  0  0  0  0
 26 62  1  0  0  0  0
 27 63  1  0  0  0  0
 28 64  1  0  0  0  0
M  END
> <PUBCHEM_COMPOUND_CID>
504266
> <PUBCHEM_COMPOUND_CANONICALIZED>
1
> <PUBCHEM_CACTVS_COMPLEXITY>
443
> <PUBCHEM_CACTVS_HBOND_ACCEPTOR>
2
> <PUBCHEM_CACTVS_HBOND_DONOR>
2
> <PUBCHEM_CACTVS_ROTATABLE_BOND>
9
> <PUBCHEM_CACTVS_SUBSKEYS>
AAADcfB7AAAAAAAAAAAAAAAAAABgAAAAAAAwYMGAAAAAAAABQAAAHAAQAAAADwDBGAQyAILAAACAAiBCAAACAAAgAAAIiIAIAIgIYCKAkRGUIAAgkACIiAcQgMAPgAAAAAAAAACAAAQAACAAAAAAAAAAAA==
> <PUBCHEM_IUPAC_OPENEYE_NAME>
N-[[(1S,2R,5S)-6,6-dimethylnorpinan-2-yl]methyl]-N'-(2,2-diphenylethyl)ethane-1,2-diamine
> <PUBCHEM_IUPAC_CAS_NAME>
N-[[(1S,2R,5S)-6,6-dimethyl-2-bicyclo[3.1.1]heptanyl]methyl]-N'-(2,2-diphenylethyl)ethane-1,2-diamine
> <PUBCHEM_IUPAC_NAME_MARKUP>
<I>N</I>-[[(1<I>S</I>,2<I>R</I>,5<I>S</I>)-6,6-dimethyl-2-bicyclo[3.1.1]heptanyl]methyl]-<I>N</I>&apos;-(2,2-diphenylethyl)ethane-1,2-diamine
> <PUBCHEM_IUPAC_NAME>
N-[[(1S,2R,5S)-6,6-dimethyl-2-bicyclo[3.1.1]heptanyl]methyl]-N'-(2,2-diphenylethyl)ethane-1,2-diamine
> <PUBCHEM_IUPAC_SYSTEMATIC_NAME>
N-[[(1S,2R,5S)-6,6-dimethyl-2-bicyclo[3.1.1]heptanyl]methyl]-N'-(2,2-diphenylethyl)ethane-1,2-diamine
> <PUBCHEM_IUPAC_TRADITIONAL_NAME>
[(1S,2R,5S)-6,6-dimethylnorpinan-2-yl]methyl-[2-(2,2-diphenylethylamino)ethyl]amine
> <PUBCHEM_IUPAC_INCHI>
InChI=1S/C26H36N2/c1-26(2)23-14-13-22(25(26)17-23)18-27-15-16-28-19-24(20-9-5-3-6-10-20)21-11-7-4-8-12-21/h3-12,22-25,27-28H,13-19H2,1-2H3/t22-,23-,25-/m0/s1
> <PUBCHEM_IUPAC_INCHIKEY>
KSCNTPLQWNRUME-LSQMVHIFSA-N
> <PUBCHEM_XLOGP3_AA>
5.7
> <PUBCHEM_EXACT_MASS>
376.287849157
> <PUBCHEM_MOLECULAR_FORMULA>
C26H36N2
> <PUBCHEM_MOLECULAR_WEIGHT>
376.6
> <PUBCHEM_OPENEYE_CAN_SMILES>
CC1(C2CCC(C1C2)CNCCNCC(C3=CC=CC=C3)C4=CC=CC=C4)C
> <PUBCHEM_OPENEYE_ISO_SMILES>
CC1([C@H]2CC[C@H]([C@@H]1C2)CNCCNCC(C3=CC=CC=C3)C4=CC=CC=C4)C
> <PUBCHEM_CACTVS_TPSA>
24.1
> <PUBCHEM_MONOISOTOPIC_WEIGHT>
376.287849157
> <PUBCHEM_TOTAL_CHARGE>
0
> <PUBCHEM_HEAVY_ATOM_COUNT>
28
> <PUBCHEM_ATOM_DEF_STEREO_COUNT>
3
> <PUBCHEM_ATOM_UDEF_STEREO_COUNT>
0
> <PUBCHEM_BOND_DEF_STEREO_COUNT>
0
> <PUBCHEM_BOND_UDEF_STEREO_COUNT>
0
> <PUBCHEM_ISOTOPIC_ATOM_COUNT>
0
> <PUBCHEM_COMPONENT_COUNT>
1
> <PUBCHEM_CACTVS_TAUTO_COUNT>
-1
> <PUBCHEM_COORDINATE_TYPE>
1
5
255
> <PUBCHEM_BONDANNOTATIONS>
17  19  8
17  21  8
18  20  8
18  22  8
19  23  8
20  24  8
21  25  8
22  26  8
23  27  8
24  28  8
25  27  8
26  28  8
4  29  5
5  30  6
7  12  6
$$$$
