504261
  -OEChem-10302200282D
 67 70  0     1  0  0  0  0  0999 V2000
    7.0883    1.6213    0.0000 N   0  0  0  0  0  0  0  0  0  0  0  0
    6.3100   -0.9074    0.0000 N   0  0  0  0  0  0  0  0  0  0  0  0
   10.5214    4.0251    0.0000 C   0  0  0  0  0  0  0  0  0  0  0  0
    9.1225    4.0163    0.0000 C   0  0  3  0  0  0  0  0  0  0  0  0
    9.3813    4.9822    0.0000 C   0  0  3  0  0  0  0  0  0  0  0  0
    8.6447    5.9648    0.0000 C   0  0  0  0  0  0  0  0  0  0  0  0
    7.9014    3.1506    0.0000 C   0  0  1  0  0  0  0  0  0  0  0  0
    7.3480    4.6711    0.0000 C   0  0  0  0  0  0  0  0  0  0  0  0
    7.0724    3.7098    0.0000 C   0  0  0  0  0  0  0  0  0  0  0  0
   11.0214    3.1591    0.0000 C   0  0  0  0  0  0  0  0  0  0  0  0
   11.3874    4.5251    0.0000 C   0  0  0  0  0  0  0  0  0  0  0  0
    7.9363    2.1512    0.0000 C   0  0  0  0  0  0  0  0  0  0  0  0
    7.1232    0.6219    0.0000 C   0  0  0  0  0  0  0  0  0  0  0  0
    6.2751    0.0920    0.0000 C   0  0  0  0  0  0  0  0  0  0  0  0
    5.4620   -1.4373    0.0000 C   0  0  0  0  0  0  0  0  0  0  0  0
    5.4969   -2.4367    0.0000 C   0  0  0  0  0  0  0  0  0  0  0  0
    4.6488   -2.9666    0.0000 C   0  0  0  0  0  0  0  0  0  0  0  0
    4.6837   -3.9660    0.0000 C   0  0  0  0  0  0  0  0  0  0  0  0
    3.7659   -2.4972    0.0000 C   0  0  0  0  0  0  0  0  0  0  0  0
    5.5667   -4.4355    0.0000 C   0  0  0  0  0  0  0  0  0  0  0  0
    3.7310   -1.4978    0.0000 C   0  0  0  0  0  0  0  0  0  0  0  0
    3.8357   -4.4959    0.0000 C   0  0  0  0  0  0  0  0  0  0  0  0
    2.9178   -3.0271    0.0000 C   0  0  0  0  0  0  0  0  0  0  0  0
    5.6016   -5.4349    0.0000 C   0  0  0  0  0  0  0  0  0  0  0  0
    2.8481   -1.0283    0.0000 C   0  0  0  0  0  0  0  0  0  0  0  0
    3.8706   -5.4953    0.0000 C   0  0  0  0  0  0  0  0  0  0  0  0
    2.0349   -2.5576    0.0000 C   0  0  0  0  0  0  0  0  0  0  0  0
    4.7535   -5.9648    0.0000 C   0  0  0  0  0  0  0  0  0  0  0  0
    2.0000   -1.5582    0.0000 C   0  0  0  0  0  0  0  0  0  0  0  0
    9.3125    3.4261    0.0000 H   0  0  0  0  0  0  0  0  0  0  0  0
    9.8316    5.4084    0.0000 H   0  0  0  0  0  0  0  0  0  0  0  0
    8.9625    6.4972    0.0000 H   0  0  0  0  0  0  0  0  0  0  0  0
    8.0315    6.0568    0.0000 H   0  0  0  0  0  0  0  0  0  0  0  0
    7.3592    2.8500    0.0000 H   0  0  0  0  0  0  0  0  0  0  0  0
    7.3430    5.2910    0.0000 H   0  0  0  0  0  0  0  0  0  0  0  0
    6.7337    4.7548    0.0000 H   0  0  0  0  0  0  0  0  0  0  0  0
    6.4976    3.9420    0.0000 H   0  0  0  0  0  0  0  0  0  0  0  0
    6.7813    3.1624    0.0000 H   0  0  0  0  0  0  0  0  0  0  0  0
   10.4845    2.8491    0.0000 H   0  0  0  0  0  0  0  0  0  0  0  0
   11.3314    2.6221    0.0000 H   0  0  0  0  0  0  0  0  0  0  0  0
   11.5583    3.4691    0.0000 H   0  0  0  0  0  0  0  0  0  0  0  0
   11.6974    3.9882    0.0000 H   0  0  0  0  0  0  0  0  0  0  0  0
   11.9244    4.8351    0.0000 H   0  0  0  0  0  0  0  0  0  0  0  0
   11.0774    5.0620    0.0000 H   0  0  0  0  0  0  0  0  0  0  0  0
    8.1686    1.5764    0.0000 H   0  0  0  0  0  0  0  0  0  0  0  0
    8.5428    2.2801    0.0000 H   0  0  0  0  0  0  0  0  0  0  0  0
    6.5409    1.9124    0.0000 H   0  0  0  0  0  0  0  0  0  0  0  0
    7.3554    0.0471    0.0000 H   0  0  0  0  0  0  0  0  0  0  0  0
    7.7296    0.7508    0.0000 H   0  0  0  0  0  0  0  0  0  0  0  0
    6.0429    0.6668    0.0000 H   0  0  0  0  0  0  0  0  0  0  0  0
    5.6687   -0.0369    0.0000 H   0  0  0  0  0  0  0  0  0  0  0  0
    6.8575   -1.1985    0.0000 H   0  0  0  0  0  0  0  0  0  0  0  0
    5.2297   -0.8625    0.0000 H   0  0  0  0  0  0  0  0  0  0  0  0
    4.8555   -1.5662    0.0000 H   0  0  0  0  0  0  0  0  0  0  0  0
    5.7292   -3.0116    0.0000 H   0  0  0  0  0  0  0  0  0  0  0  0
    6.1033   -2.3078    0.0000 H   0  0  0  0  0  0  0  0  0  0  0  0
    5.1963   -3.2577    0.0000 H   0  0  0  0  0  0  0  0  0  0  0  0
    6.0925   -4.1070    0.0000 H   0  0  0  0  0  0  0  0  0  0  0  0
    4.2568   -1.1692    0.0000 H   0  0  0  0  0  0  0  0  0  0  0  0
    3.2883   -4.2049    0.0000 H   0  0  0  0  0  0  0  0  0  0  0  0
    2.9395   -3.6467    0.0000 H   0  0  0  0  0  0  0  0  0  0  0  0
    6.1490   -5.7260    0.0000 H   0  0  0  0  0  0  0  0  0  0  0  0
    2.8264   -0.4087    0.0000 H   0  0  0  0  0  0  0  0  0  0  0  0
    3.3448   -5.8239    0.0000 H   0  0  0  0  0  0  0  0  0  0  0  0
    1.5091   -2.8862    0.0000 H   0  0  0  0  0  0  0  0  0  0  0  0
    4.7752   -6.5844    0.0000 H   0  0  0  0  0  0  0  0  0  0  0  0
    1.4526   -1.2672    0.0000 H   0  0  0  0  0  0  0  0  0  0  0  0
  1 12  1  0  0  0  0
  1 13  1  0  0  0  0
  1 47  1  0  0  0  0
  2 14  1  0  0  0  0
  2 15  1  0  0  0  0
  2 52  1  0  0  0  0
  3  4  1  0  0  0  0
  3  5  1  0  0  0  0
  3 10  1  0  0  0  0
  3 11  1  0  0  0  0
  4  6  1  0  0  0  0
  4  7  1  0  0  0  0
  4 30  1  0  0  0  0
  5  6  1  0  0  0  0
  5  8  1  0  0  0  0
  5 31  1  0  0  0  0
  6 32  1  0  0  0  0
  6 33  1  0  0  0  0
  7  9  1  0  0  0  0
  7 12  1  6  0  0  0
  7 34  1  0  0  0  0
  8  9  1  0  0  0  0
  8 35  1  0  0  0  0
  8 36  1  0  0  0  0
  9 37  1  0  0  0  0
  9 38  1  0  0  0  0
 10 39  1  0  0  0  0
 10 40  1  0  0  0  0
 10 41  1  0  0  0  0
 11 42  1  0  0  0  0
 11 43  1  0  0  0  0
 11 44  1  0  0  0  0
 12 45  1  0  0  0  0
 12 46  1  0  0  0  0
 13 14  1  0  0  0  0
 13 48  1  0  0  0  0
 13 49  1  0  0  0  0
 14 50  1  0  0  0  0
 14 51  1  0  0  0  0
 15 16  1  0  0  0  0
 15 53  1  0  0  0  0
 15 54  1  0  0  0  0
 16 17  1  0  0  0  0
 16 55  1  0  0  0  0
 16 56  1  0  0  0  0
 17 18  1  0  0  0  0
 17 19  1  0  0  0  0
 17 57  1  0  0  0  0
 18 20  2  0  0  0  0
 18 22  1  0  0  0  0
 19 21  2  0  0  0  0
 19 23  1  0  0  0  0
 20 24  1  0  0  0  0
 20 58  1  0  0  0  0
 21 25  1  0  0  0  0
 21 59  1  0  0  0  0
 22 26  2  0  0  0  0
 22 60  1  0  0  0  0
 23 27  2  0  0  0  0
 23 61  1  0  0  0  0
 24 28  2  0  0  0  0
 24 62  1  0  0  0  0
 25 29  2  0  0  0  0
 25 63  1  0  0  0  0
 26 28  1  0  0  0  0
 26 64  1  0  0  0  0
 27 29  1  0  0  0  0
 27 65  1  0  0  0  0
 28 66  1  0  0  0  0
 29 67  1  0  0  0  0
M  END
> <PUBCHEM_COMPOUND_CID>
504261
> <PUBCHEM_COMPOUND_CANONICALIZED>
1
> <PUBCHEM_CACTVS_COMPLEXITY>
457
> <PUBCHEM_CACTVS_HBOND_ACCEPTOR>
2
> <PUBCHEM_CACTVS_HBOND_DONOR>
2
> <PUBCHEM_CACTVS_ROTATABLE_BOND>
10
> <PUBCHEM_CACTVS_SUBSKEYS>
AAADcfB7AAAAAAAAAAAAAAAAAABgAAAAAAAwYMGAAAAAAAABQAAAHAAQAAAADwDBGAQyAILAAACAAiBCAAACAAAgAAAIiIAIAIgIYCKAkRCUIAAgkACIiAcQgMAPgAAAAAAAAACAAAQAACAAAAAAAAAAAA==
> <PUBCHEM_IUPAC_OPENEYE_NAME>
N'-[[(2R)-6,6-dimethylnorpinan-2-yl]methyl]-N-(3,3-diphenylpropyl)ethane-1,2-diamine
> <PUBCHEM_IUPAC_CAS_NAME>
N'-[[(2R)-6,6-dimethyl-2-bicyclo[3.1.1]heptanyl]methyl]-N-(3,3-diphenylpropyl)ethane-1,2-diamine
> <PUBCHEM_IUPAC_NAME_MARKUP>
<I>N</I>&apos;-[[(2<I>R</I>)-6,6-dimethyl-2-bicyclo[3.1.1]heptanyl]methyl]-<I>N</I>-(3,3-diphenylpropyl)ethane-1,2-diamine
> <PUBCHEM_IUPAC_NAME>
N'-[[(2R)-6,6-dimethyl-2-bicyclo[3.1.1]heptanyl]methyl]-N-(3,3-diphenylpropyl)ethane-1,2-diamine
> <PUBCHEM_IUPAC_SYSTEMATIC_NAME>
N'-[[(2R)-6,6-dimethyl-2-bicyclo[3.1.1]heptanyl]methyl]-N-(3,3-diphenylpropyl)ethane-1,2-diamine
> <PUBCHEM_IUPAC_TRADITIONAL_NAME>
[(2R)-6,6-dimethylnorpinan-2-yl]methyl-[2-(3,3-diphenylpropylamino)ethyl]amine
> <PUBCHEM_IUPAC_INCHI>
InChI=1S/C27H38N2/c1-27(2)24-14-13-23(26(27)19-24)20-29-18-17-28-16-15-25(21-9-5-3-6-10-21)22-11-7-4-8-12-22/h3-12,23-26,28-29H,13-20H2,1-2H3/t23-,24?,26?/m0/s1
> <PUBCHEM_IUPAC_INCHIKEY>
YDCXBJQMSRNYCP-JHUWLELGSA-N
> <PUBCHEM_XLOGP3_AA>
6.1
> <PUBCHEM_EXACT_MASS>
390.303499221
> <PUBCHEM_MOLECULAR_FORMULA>
C27H38N2
> <PUBCHEM_MOLECULAR_WEIGHT>
390.6
> <PUBCHEM_OPENEYE_CAN_SMILES>
CC1(C2CCC(C1C2)CNCCNCCC(C3=CC=CC=C3)C4=CC=CC=C4)C
> <PUBCHEM_OPENEYE_ISO_SMILES>
CC1(C2CC[C@H](C1C2)CNCCNCCC(C3=CC=CC=C3)C4=CC=CC=C4)C
> <PUBCHEM_CACTVS_TPSA>
24.1
> <PUBCHEM_MONOISOTOPIC_WEIGHT>
390.303499221
> <PUBCHEM_TOTAL_CHARGE>
0
> <PUBCHEM_HEAVY_ATOM_COUNT>
29
> <PUBCHEM_ATOM_DEF_STEREO_COUNT>
1
> <PUBCHEM_ATOM_UDEF_STEREO_COUNT>
2
> <PUBCHEM_BOND_DEF_STEREO_COUNT>
0
> <PUBCHEM_BOND_UDEF_STEREO_COUNT>
0
> <PUBCHEM_ISOTOPIC_ATOM_COUNT>
0
> <PUBCHEM_COMPONENT_COUNT>
1
> <PUBCHEM_CACTVS_TAUTO_COUNT>
-1
> <PUBCHEM_COORDINATE_TYPE>
1
5
255
> <PUBCHEM_BONDANNOTATIONS>
18  20  8
18  22  8
19  21  8
19  23  8
20  24  8
21  25  8
22  26  8
23  27  8
24  28  8
25  29  8
26  28  8
27  29  8
4  6  3
5  8  3
7  12  6
$$$$
