504332
  -OEChem-10302200282D
 42 45  0     1  0  0  0  0  0999 V2000
    5.2619   -1.8236    0.0000 O   0  0  0  0  0  0  0  0  0  0  0  0
    6.6353   -0.6064    0.0000 O   0  0  0  0  0  0  0  0  0  0  0  0
    3.3426    0.4698    0.0000 O   0  0  0  0  0  0  0  0  0  0  0  0
    5.9209    2.7833    0.0000 O   0  0  0  0  0  0  0  0  0  0  0  0
    4.9889   -3.5788    0.0000 O   0  0  0  0  0  0  0  0  0  0  0  0
    6.8994    2.9895    0.0000 O   0  0  0  0  0  0  0  0  0  0  0  0
    7.6138   -0.4002    0.0000 O   0  0  0  0  0  0  0  0  0  0  0  0
   10.1921    1.9133    0.0000 O   0  0  0  0  0  0  0  0  0  0  0  0
    4.6783   -1.0188    0.0000 C   0  0  3  0  0  0  0  0  0  0  0  0
    4.9889   -0.0683    0.0000 C   0  0  0  0  0  0  0  0  0  0  0  0
    3.7320   -1.3236    0.0000 C   0  0  0  0  0  0  0  0  0  0  0  0
    3.7320   -2.3236    0.0000 C   0  0  0  0  0  0  0  0  0  0  0  0
    5.9674    0.1379    0.0000 C   0  0  0  0  0  0  0  0  0  0  0  0
    6.2781    1.0884    0.0000 C   0  0  0  0  0  0  0  0  0  0  0  0
    4.3211    0.6760    0.0000 C   0  0  0  0  0  0  0  0  0  0  0  0
    4.6783   -2.6283    0.0000 C   0  0  0  0  0  0  0  0  0  0  0  0
    2.8660   -0.8236    0.0000 C   0  0  0  0  0  0  0  0  0  0  0  0
    5.6103    1.8327    0.0000 C   0  0  0  0  0  0  0  0  0  0  0  0
    7.2566    1.2947    0.0000 C   0  0  0  0  0  0  0  0  0  0  0  0
    4.6318    1.6265    0.0000 C   0  0  0  0  0  0  0  0  0  0  0  0
    2.8660   -2.8236    0.0000 C   0  0  0  0  0  0  0  0  0  0  0  0
    2.0000   -1.3236    0.0000 C   0  0  0  0  0  0  0  0  0  0  0  0
    2.0000   -2.3236    0.0000 C   0  0  0  0  0  0  0  0  0  0  0  0
    7.5673    2.2452    0.0000 C   0  0  0  0  0  0  0  0  0  0  0  0
    7.9244    0.5504    0.0000 C   0  0  0  0  0  0  0  0  0  0  0  0
    8.5458    2.4514    0.0000 C   0  0  0  0  0  0  0  0  0  0  0  0
    8.9030    0.7566    0.0000 C   0  0  0  0  0  0  0  0  0  0  0  0
    9.2136    1.7071    0.0000 C   0  0  0  0  0  0  0  0  0  0  0  0
    5.2908   -0.9226    0.0000 H   0  0  0  0  0  0  0  0  0  0  0  0
    2.8660   -0.2036    0.0000 H   0  0  0  0  0  0  0  0  0  0  0  0
    4.2177    2.0880    0.0000 H   0  0  0  0  0  0  0  0  0  0  0  0
    2.8660   -3.4436    0.0000 H   0  0  0  0  0  0  0  0  0  0  0  0
    1.4631   -1.0136    0.0000 H   0  0  0  0  0  0  0  0  0  0  0  0
    1.4631   -2.6336    0.0000 H   0  0  0  0  0  0  0  0  0  0  0  0
    6.4427   -1.1957    0.0000 H   0  0  0  0  0  0  0  0  0  0  0  0
    8.7384    3.0407    0.0000 H   0  0  0  0  0  0  0  0  0  0  0  0
    9.3170    0.2951    0.0000 H   0  0  0  0  0  0  0  0  0  0  0  0
    2.9285    0.9313    0.0000 H   0  0  0  0  0  0  0  0  0  0  0  0
    5.5069    3.2447    0.0000 H   0  0  0  0  0  0  0  0  0  0  0  0
    7.0920    3.5788    0.0000 H   0  0  0  0  0  0  0  0  0  0  0  0
    8.0279   -0.8616    0.0000 H   0  0  0  0  0  0  0  0  0  0  0  0
   10.3847    2.5026    0.0000 H   0  0  0  0  0  0  0  0  0  0  0  0
  1  9  1  0  0  0  0
  1 16  1  0  0  0  0
  2 13  1  0  0  0  0
  2 35  1  0  0  0  0
  3 15  1  0  0  0  0
  3 38  1  0  0  0  0
  4 18  1  0  0  0  0
  4 39  1  0  0  0  0
  5 16  2  0  0  0  0
  6 24  1  0  0  0  0
  6 40  1  0  0  0  0
  7 25  1  0  0  0  0
  7 41  1  0  0  0  0
  8 28  1  0  0  0  0
  8 42  1  0  0  0  0
  9 10  1  0  0  0  0
  9 11  1  0  0  0  0
  9 29  1  0  0  0  0
 10 13  1  0  0  0  0
 10 15  2  0  0  0  0
 11 12  1  0  0  0  0
 11 17  2  0  0  0  0
 12 16  1  0  0  0  0
 12 21  2  0  0  0  0
 13 14  2  0  0  0  0
 14 18  1  0  0  0  0
 14 19  1  0  0  0  0
 15 20  1  0  0  0  0
 17 22  1  0  0  0  0
 17 30  1  0  0  0  0
 18 20  2  0  0  0  0
 19 24  2  0  0  0  0
 19 25  1  0  0  0  0
 20 31  1  0  0  0  0
 21 23  1  0  0  0  0
 21 32  1  0  0  0  0
 22 23  2  0  0  0  0
 22 33  1  0  0  0  0
 23 34  1  0  0  0  0
 24 26  1  0  0  0  0
 25 27  2  0  0  0  0
 26 28  2  0  0  0  0
 26 36  1  0  0  0  0
 27 28  1  0  0  0  0
 27 37  1  0  0  0  0
M  END
> <PUBCHEM_COMPOUND_CID>
504332
> <PUBCHEM_COMPOUND_CANONICALIZED>
1
> <PUBCHEM_CACTVS_COMPLEXITY>
573
> <PUBCHEM_CACTVS_HBOND_ACCEPTOR>
8
> <PUBCHEM_CACTVS_HBOND_DONOR>
6
> <PUBCHEM_CACTVS_ROTATABLE_BOND>
2
> <PUBCHEM_CACTVS_SUBSKEYS>
AAADccB4PAAAAAAAAAAAAAAAAAAAASAAAAAwYMAAAAAAAEgBUAAAGgAACAAADBSgmAIwDoAABgCIAiDSCAACAAAkIAAIiAEGCMgIJzKCNRqCcQAlwBUIuYfK6PyOoAACCAAYAABAAAQQADAAAAAAAAAAAA==
> <PUBCHEM_IUPAC_OPENEYE_NAME>
3-[2,4,6-trihydroxy-3-(2,4,6-trihydroxyphenyl)phenyl]-3H-isobenzofuran-1-one
> <PUBCHEM_IUPAC_CAS_NAME>
3-[2,4,6-trihydroxy-3-(2,4,6-trihydroxyphenyl)phenyl]-3H-isobenzofuran-1-one
> <PUBCHEM_IUPAC_NAME_MARKUP>
3-[2,4,6-trihydroxy-3-(2,4,6-trihydroxyphenyl)phenyl]-3<I>H</I>-2-benzofuran-1-one
> <PUBCHEM_IUPAC_NAME>
3-[2,4,6-trihydroxy-3-(2,4,6-trihydroxyphenyl)phenyl]-3H-2-benzofuran-1-one
> <PUBCHEM_IUPAC_SYSTEMATIC_NAME>
3-[2,4,6-tris(oxidanyl)-3-[2,4,6-tris(oxidanyl)phenyl]phenyl]-3H-2-benzofuran-1-one
> <PUBCHEM_IUPAC_TRADITIONAL_NAME>
3-[2,4,6-trihydroxy-3-(2,4,6-trihydroxyphenyl)phenyl]phthalide
> <PUBCHEM_IUPAC_INCHI>
InChI=1S/C20H14O8/c21-8-5-11(22)15(12(23)6-8)16-13(24)7-14(25)17(18(16)26)19-9-3-1-2-4-10(9)20(27)28-19/h1-7,19,21-26H
> <PUBCHEM_IUPAC_INCHIKEY>
BGZZGEKATVQIFF-UHFFFAOYSA-N
> <PUBCHEM_XLOGP3>
2.1
> <PUBCHEM_EXACT_MASS>
382.06886740
> <PUBCHEM_MOLECULAR_FORMULA>
C20H14O8
> <PUBCHEM_MOLECULAR_WEIGHT>
382.3
> <PUBCHEM_OPENEYE_CAN_SMILES>
C1=CC=C2C(=C1)C(OC2=O)C3=C(C=C(C(=C3O)C4=C(C=C(C=C4O)O)O)O)O
> <PUBCHEM_OPENEYE_ISO_SMILES>
C1=CC=C2C(=C1)C(OC2=O)C3=C(C=C(C(=C3O)C4=C(C=C(C=C4O)O)O)O)O
> <PUBCHEM_CACTVS_TPSA>
148
> <PUBCHEM_MONOISOTOPIC_WEIGHT>
382.06886740
> <PUBCHEM_TOTAL_CHARGE>
0
> <PUBCHEM_HEAVY_ATOM_COUNT>
28
> <PUBCHEM_ATOM_DEF_STEREO_COUNT>
0
> <PUBCHEM_ATOM_UDEF_STEREO_COUNT>
1
> <PUBCHEM_BOND_DEF_STEREO_COUNT>
0
> <PUBCHEM_BOND_UDEF_STEREO_COUNT>
0
> <PUBCHEM_ISOTOPIC_ATOM_COUNT>
0
> <PUBCHEM_COMPONENT_COUNT>
1
> <PUBCHEM_CACTVS_TAUTO_COUNT>
-1
> <PUBCHEM_COORDINATE_TYPE>
1
5
255
> <PUBCHEM_BONDANNOTATIONS>
10  13  8
10  15  8
11  12  8
11  17  8
12  21  8
13  14  8
14  18  8
15  20  8
17  22  8
18  20  8
19  24  8
19  25  8
21  23  8
22  23  8
24  26  8
25  27  8
26  28  8
27  28  8
9  10  3
$$$$
