504382
  -OEChem-10302200282D
172173  0     1  0  0  0  0  0999 V2000
    5.1724    3.4969    0.0000 O   0  0  0  0  0  0  0  0  0  0  0  0
    5.3147    2.1423    0.0000 O   0  0  0  0  0  0  0  0  0  0  0  0
    3.5976    6.7404    0.0000 O   0  0  0  0  0  0  0  0  0  0  0  0
    4.4487   -1.3577    0.0000 O   0  0  0  0  0  0  0  0  0  0  0  0
    6.7780    8.4387    0.0000 O   0  0  0  0  0  0  0  0  0  0  0  0
    7.0468   -0.8577    0.0000 O   0  0  0  0  0  0  0  0  0  0  0  0
    5.2033   11.6822    0.0000 O   0  0  0  0  0  0  0  0  0  0  0  0
    3.3011   12.3002    0.0000 O   0  0  0  0  0  0  0  0  0  0  0  0
    2.7659   10.6530    0.0000 O   0  0  0  0  0  0  0  0  0  0  0  0
    6.1808   -4.3577    0.0000 O   0  0  0  0  0  0  0  0  0  0  0  0
    8.3837   13.3806    0.0000 O   0  0  0  0  0  0  0  0  0  0  0  0
    9.6448   -5.3577    0.0000 O   0  0  0  0  0  0  0  0  0  0  0  0
   10.2859   12.7625    0.0000 O   0  0  0  0  0  0  0  0  0  0  0  0
    9.7506   11.1153    0.0000 O   0  0  0  0  0  0  0  0  0  0  0  0
   10.5109   -5.8577    0.0000 O   0  0  0  0  0  0  0  0  0  0  0  0
    8.7788   -8.8577    0.0000 O   0  0  0  0  0  0  0  0  0  0  0  0
    5.3147   -6.8577    0.0000 O   0  0  0  0  0  0  0  0  0  0  0  0
   11.3769  -11.3577    0.0000 O   0  0  0  0  0  0  0  0  0  0  0  0
   13.9750  -11.8577    0.0000 O   0  0  0  0  0  0  0  0  0  0  0  0
    9.6448  -14.3577    0.0000 O   0  0  0  0  0  0  0  0  0  0  0  0
   13.9750   -8.8577    0.0000 O   0  0  0  0  0  0  0  0  0  0  0  0
    3.4782    3.1368    0.0000 N   0  0  0  0  0  0  0  0  0  0  0  0
    4.7565    5.4532    0.0000 N   0  0  0  0  0  0  0  0  0  0  0  0
    4.4487    0.6423    0.0000 N   0  0  0  0  0  0  0  0  0  0  0  0
    5.0838    8.0786    0.0000 N   0  0  0  0  0  0  0  0  0  0  0  0
    6.3622   10.3950    0.0000 N   0  0  0  0  0  0  0  0  0  0  0  0
    6.1808   -2.3577    0.0000 N   0  0  0  0  0  0  0  0  0  0  0  0
    6.6896   13.0205    0.0000 N   0  0  0  0  0  0  0  0  0  0  0  0
    7.9128   -4.3577    0.0000 N   0  0  0  0  0  0  0  0  0  0  0  0
    8.7788   -6.8577    0.0000 N   0  0  0  0  0  0  0  0  0  0  0  0
   10.5109   -8.8577    0.0000 N   0  0  0  0  0  0  0  0  0  0  0  0
   12.2429   -9.8577    0.0000 N   0  0  0  0  0  0  0  0  0  0  0  0
    4.4487   -5.3577    0.0000 N   0  0  0  0  0  0  0  0  0  0  0  0
   14.8410  -10.3577    0.0000 N   0  0  0  0  0  0  0  0  0  0  0  0
    3.5827    2.1423    0.0000 C   0  0  3  0  0  0  0  0  0  0  0  0
    2.6691    1.7355    0.0000 C   0  0  0  0  0  0  0  0  0  0  0  0
    2.0000    2.4787    0.0000 C   0  0  0  0  0  0  0  0  0  0  0  0
    2.5000    3.3447    0.0000 C   0  0  0  0  0  0  0  0  0  0  0  0
    4.0134    4.7841    0.0000 C   0  0  2  0  0  0  0  0  0  0  0  0
    4.2213    3.8059    0.0000 C   0  0  0  0  0  0  0  0  0  0  0  0
    4.4487    1.6423    0.0000 C   0  0  0  0  0  0  0  0  0  0  0  0
    3.0623    5.0931    0.0000 C   0  0  0  0  0  0  0  0  0  0  0  0
    5.3147    0.1423    0.0000 C   0  0  1  0  0  0  0  0  0  0  0  0
    2.8544    6.0712    0.0000 C   0  0  0  0  0  0  0  0  0  0  0  0
    2.3192    4.4239    0.0000 C   0  0  0  0  0  0  0  0  0  0  0  0
    5.2918    7.1005    0.0000 C   0  0  2  0  0  0  0  0  0  0  0  0
    4.5486    6.4313    0.0000 C   0  0  0  0  0  0  0  0  0  0  0  0
    6.1808    0.6423    0.0000 C   0  0  0  0  0  0  0  0  0  0  0  0
    6.2428    6.7915    0.0000 C   0  0  0  0  0  0  0  0  0  0  0  0
    5.3147   -0.8577    0.0000 C   0  0  0  0  0  0  0  0  0  0  0  0
    6.1808    1.6423    0.0000 C   0  0  0  0  0  0  0  0  0  0  0  0
    6.9860    7.4606    0.0000 C   0  0  0  0  0  0  0  0  0  0  0  0
    6.4507    5.8133    0.0000 C   0  0  0  0  0  0  0  0  0  0  0  0
    5.8270    8.7478    0.0000 C   0  0  0  0  0  0  0  0  0  0  0  0
    5.6191    9.7259    0.0000 C   0  0  2  0  0  0  0  0  0  0  0  0
    7.0468    2.1423    0.0000 C   0  0  0  0  0  0  0  0  0  0  0  0
    6.1808   -1.3577    0.0000 C   0  0  0  0  0  0  0  0  0  0  0  0
    4.6680   10.0349    0.0000 C   0  0  0  0  0  0  0  0  0  0  0  0
    4.4601   11.0131    0.0000 C   0  0  0  0  0  0  0  0  0  0  0  0
    6.1543   11.3732    0.0000 C   0  0  0  0  0  0  0  0  0  0  0  0
    7.0468   -2.8577    0.0000 C   0  0  0  0  0  0  0  0  0  0  0  0
    6.8975   12.0423    0.0000 C   0  0  2  0  0  0  0  0  0  0  0  0
    7.8485   11.7333    0.0000 C   0  0  0  0  0  0  0  0  0  0  0  0
    3.5091   11.3221    0.0000 C   0  0  0  0  0  0  0  0  0  0  0  0
    7.0468   -3.8577    0.0000 C   0  0  0  0  0  0  0  0  0  0  0  0
    8.5917   12.4024    0.0000 C   0  0  0  0  0  0  0  0  0  0  0  0
    7.9128   -5.3577    0.0000 C   0  0  2  0  0  0  0  0  0  0  0  0
    7.0468   -5.8577    0.0000 C   0  0  0  0  0  0  0  0  0  0  0  0
    7.4327   13.6896    0.0000 C   0  0  0  0  0  0  0  0  0  0  0  0
    8.7788   -5.8577    0.0000 C   0  0  0  0  0  0  0  0  0  0  0  0
    9.5427   12.0934    0.0000 C   0  0  0  0  0  0  0  0  0  0  0  0
    6.1808   -5.3577    0.0000 C   0  0  0  0  0  0  0  0  0  0  0  0
    9.6448   -7.3577    0.0000 C   0  0  1  0  0  0  0  0  0  0  0  0
    7.2248   14.6677    0.0000 C   0  0  0  0  0  0  0  0  0  0  0  0
   10.5109   -9.8577    0.0000 C   0  0  1  0  0  0  0  0  0  0  0  0
    9.6448   -8.3577    0.0000 C   0  0  0  0  0  0  0  0  0  0  0  0
   10.5109   -6.8577    0.0000 C   0  0  0  0  0  0  0  0  0  0  0  0
    9.6448  -10.3577    0.0000 C   0  0  0  0  0  0  0  0  0  0  0  0
    5.3147   -5.8577    0.0000 C   0  0  0  0  0  0  0  0  0  0  0  0
   11.3769  -10.3577    0.0000 C   0  0  0  0  0  0  0  0  0  0  0  0
    9.6448  -11.3577    0.0000 C   0  0  0  0  0  0  0  0  0  0  0  0
   13.1090  -10.3577    0.0000 C   0  0  1  0  0  0  0  0  0  0  0  0
    8.7788  -11.8577    0.0000 C   0  0  0  0  0  0  0  0  0  0  0  0
   10.5109  -11.8577    0.0000 C   0  0  0  0  0  0  0  0  0  0  0  0
   13.1090  -11.3577    0.0000 C   0  0  0  0  0  0  0  0  0  0  0  0
    8.7788  -12.8577    0.0000 C   0  0  0  0  0  0  0  0  0  0  0  0
   10.5109  -12.8577    0.0000 C   0  0  0  0  0  0  0  0  0  0  0  0
   13.9750   -9.8577    0.0000 C   0  0  0  0  0  0  0  0  0  0  0  0
    9.6448  -13.3577    0.0000 C   0  0  0  0  0  0  0  0  0  0  0  0
    4.1026    2.4799    0.0000 H   0  0  0  0  0  0  0  0  0  0  0  0
    2.1675    1.3711    0.0000 H   0  0  0  0  0  0  0  0  0  0  0  0
    2.9791    1.1986    0.0000 H   0  0  0  0  0  0  0  0  0  0  0  0
    1.4984    2.8431    0.0000 H   0  0  0  0  0  0  0  0  0  0  0  0
    1.5851    2.0179    0.0000 H   0  0  0  0  0  0  0  0  0  0  0  0
    2.6916    3.9344    0.0000 H   0  0  0  0  0  0  0  0  0  0  0  0
    1.9336    3.5969    0.0000 H   0  0  0  0  0  0  0  0  0  0  0  0
    4.6030    4.5925    0.0000 H   0  0  0  0  0  0  0  0  0  0  0  0
    3.5231    5.5079    0.0000 H   0  0  0  0  0  0  0  0  0  0  0  0
    5.3462    5.2616    0.0000 H   0  0  0  0  0  0  0  0  0  0  0  0
    3.9118    0.3323    0.0000 H   0  0  0  0  0  0  0  0  0  0  0  0
    5.3147    0.7623    0.0000 H   0  0  0  0  0  0  0  0  0  0  0  0
    3.4609    6.2001    0.0000 H   0  0  0  0  0  0  0  0  0  0  0  0
    2.7255    6.6777    0.0000 H   0  0  0  0  0  0  0  0  0  0  0  0
    2.2480    5.9423    0.0000 H   0  0  0  0  0  0  0  0  0  0  0  0
    1.9043    4.8847    0.0000 H   0  0  0  0  0  0  0  0  0  0  0  0
    1.8584    4.0091    0.0000 H   0  0  0  0  0  0  0  0  0  0  0  0
    2.7340    3.9632    0.0000 H   0  0  0  0  0  0  0  0  0  0  0  0
    4.7021    7.2921    0.0000 H   0  0  0  0  0  0  0  0  0  0  0  0
    6.3928    0.0597    0.0000 H   0  0  0  0  0  0  0  0  0  0  0  0
    6.7913    0.7499    0.0000 H   0  0  0  0  0  0  0  0  0  0  0  0
    5.7821    6.3766    0.0000 H   0  0  0  0  0  0  0  0  0  0  0  0
    5.9687    2.2249    0.0000 H   0  0  0  0  0  0  0  0  0  0  0  0
    5.5702    1.5346    0.0000 H   0  0  0  0  0  0  0  0  0  0  0  0
    4.4942    8.2702    0.0000 H   0  0  0  0  0  0  0  0  0  0  0  0
    7.4008    6.9998    0.0000 H   0  0  0  0  0  0  0  0  0  0  0  0
    7.4467    7.8754    0.0000 H   0  0  0  0  0  0  0  0  0  0  0  0
    6.5711    7.9213    0.0000 H   0  0  0  0  0  0  0  0  0  0  0  0
    5.8443    5.6844    0.0000 H   0  0  0  0  0  0  0  0  0  0  0  0
    6.5796    5.2069    0.0000 H   0  0  0  0  0  0  0  0  0  0  0  0
    7.0572    5.9422    0.0000 H   0  0  0  0  0  0  0  0  0  0  0  0
    6.2087    9.5343    0.0000 H   0  0  0  0  0  0  0  0  0  0  0  0
    7.3568    1.6053    0.0000 H   0  0  0  0  0  0  0  0  0  0  0  0
    7.5837    2.4523    0.0000 H   0  0  0  0  0  0  0  0  0  0  0  0
    6.7368    2.6792    0.0000 H   0  0  0  0  0  0  0  0  0  0  0  0
    4.0484   10.0133    0.0000 H   0  0  0  0  0  0  0  0  0  0  0  0
    4.5817    9.4210    0.0000 H   0  0  0  0  0  0  0  0  0  0  0  0
    6.9519   10.2034    0.0000 H   0  0  0  0  0  0  0  0  0  0  0  0
    5.6438   -2.6677    0.0000 H   0  0  0  0  0  0  0  0  0  0  0  0
    5.0797   11.0347    0.0000 H   0  0  0  0  0  0  0  0  0  0  0  0
    4.5464   11.6270    0.0000 H   0  0  0  0  0  0  0  0  0  0  0  0
    7.6574   -2.9654    0.0000 H   0  0  0  0  0  0  0  0  0  0  0  0
    7.2588   -2.2751    0.0000 H   0  0  0  0  0  0  0  0  0  0  0  0
    7.3582   12.4572    0.0000 H   0  0  0  0  0  0  0  0  0  0  0  0
    7.5574   11.1859    0.0000 H   0  0  0  0  0  0  0  0  0  0  0  0
    8.3371   11.3516    0.0000 H   0  0  0  0  0  0  0  0  0  0  0  0
    6.0999   13.2120    0.0000 H   0  0  0  0  0  0  0  0  0  0  0  0
    8.8827   12.9499    0.0000 H   0  0  0  0  0  0  0  0  0  0  0  0
    8.1031   12.7841    0.0000 H   0  0  0  0  0  0  0  0  0  0  0  0
    8.4497   -5.0477    0.0000 H   0  0  0  0  0  0  0  0  0  0  0  0
    8.4497   -4.0477    0.0000 H   0  0  0  0  0  0  0  0  0  0  0  0
    6.6482   -6.3327    0.0000 H   0  0  0  0  0  0  0  0  0  0  0  0
    7.4453   -6.3327    0.0000 H   0  0  0  0  0  0  0  0  0  0  0  0
    2.7115   12.4918    0.0000 H   0  0  0  0  0  0  0  0  0  0  0  0
    6.5793   -4.8828    0.0000 H   0  0  0  0  0  0  0  0  0  0  0  0
    5.7822   -4.8828    0.0000 H   0  0  0  0  0  0  0  0  0  0  0  0
    9.1079   -7.6677    0.0000 H   0  0  0  0  0  0  0  0  0  0  0  0
    8.2419   -7.1677    0.0000 H   0  0  0  0  0  0  0  0  0  0  0  0
    7.8312   14.7966    0.0000 H   0  0  0  0  0  0  0  0  0  0  0  0
    7.0959   15.2742    0.0000 H   0  0  0  0  0  0  0  0  0  0  0  0
    6.6183   14.5388    0.0000 H   0  0  0  0  0  0  0  0  0  0  0  0
   11.0478   -9.5477    0.0000 H   0  0  0  0  0  0  0  0  0  0  0  0
   10.7229   -7.4403    0.0000 H   0  0  0  0  0  0  0  0  0  0  0  0
   11.1215   -6.7501    0.0000 H   0  0  0  0  0  0  0  0  0  0  0  0
   11.0478   -8.5477    0.0000 H   0  0  0  0  0  0  0  0  0  0  0  0
    9.4328   -9.7751    0.0000 H   0  0  0  0  0  0  0  0  0  0  0  0
    9.0343  -10.4654    0.0000 H   0  0  0  0  0  0  0  0  0  0  0  0
   10.8755   12.5709    0.0000 H   0  0  0  0  0  0  0  0  0  0  0  0
   12.2429   -9.2377    0.0000 H   0  0  0  0  0  0  0  0  0  0  0  0
   12.5720  -10.6677    0.0000 H   0  0  0  0  0  0  0  0  0  0  0  0
    3.9118   -5.6677    0.0000 H   0  0  0  0  0  0  0  0  0  0  0  0
    4.4487   -4.7377    0.0000 H   0  0  0  0  0  0  0  0  0  0  0  0
    8.2419  -11.5477    0.0000 H   0  0  0  0  0  0  0  0  0  0  0  0
   11.0478  -11.5477    0.0000 H   0  0  0  0  0  0  0  0  0  0  0  0
   11.0478   -5.5477    0.0000 H   0  0  0  0  0  0  0  0  0  0  0  0
   12.4984  -11.2501    0.0000 H   0  0  0  0  0  0  0  0  0  0  0  0
   12.8969  -11.9403    0.0000 H   0  0  0  0  0  0  0  0  0  0  0  0
    8.2419  -13.1677    0.0000 H   0  0  0  0  0  0  0  0  0  0  0  0
   11.0478  -13.1677    0.0000 H   0  0  0  0  0  0  0  0  0  0  0  0
   13.9750  -12.4777    0.0000 H   0  0  0  0  0  0  0  0  0  0  0  0
   15.3779  -10.0477    0.0000 H   0  0  0  0  0  0  0  0  0  0  0  0
   14.8410  -10.9777    0.0000 H   0  0  0  0  0  0  0  0  0  0  0  0
    9.1079  -14.6677    0.0000 H   0  0  0  0  0  0  0  0  0  0  0  0
  1 40  2  0  0  0  0
  2 41  2  0  0  0  0
  3 47  2  0  0  0  0
  4 50  2  0  0  0  0
  5 54  2  0  0  0  0
  6 57  2  0  0  0  0
  7 60  2  0  0  0  0
  8 64  1  0  0  0  0
  8143  1  0  0  0  0
  9 64  2  0  0  0  0
 10 65  2  0  0  0  0
 11 69  2  0  0  0  0
 12 70  2  0  0  0  0
 13 71  1  0  0  0  0
 13157  1  0  0  0  0
 14 71  2  0  0  0  0
 15 77  1  0  0  0  0
 15164  1  0  0  0  0
 16 76  2  0  0  0  0
 17 79  2  0  0  0  0
 18 80  2  0  0  0  0
 19 85  1  0  0  0  0
 19169  1  0  0  0  0
 20 89  1  0  0  0  0
 20172  1  0  0  0  0
 21 88  2  0  0  0  0
 22 35  1  0  0  0  0
 22 38  1  0  0  0  0
 22 40  1  0  0  0  0
 39 23  1  6  0  0  0
 23 47  1  0  0  0  0
 23 99  1  0  0  0  0
 24 41  1  0  0  0  0
 43 24  1  1  0  0  0
 24100  1  0  0  0  0
 46 25  1  1  0  0  0
 25 54  1  0  0  0  0
 25114  1  0  0  0  0
 55 26  1  6  0  0  0
 26 60  1  0  0  0  0
 26127  1  0  0  0  0
 27 57  1  0  0  0  0
 27 61  1  0  0  0  0
 27128  1  0  0  0  0
 62 28  1  1  0  0  0
 28 69  1  0  0  0  0
 28136  1  0  0  0  0
 29 65  1  0  0  0  0
 67 29  1  1  0  0  0
 29140  1  0  0  0  0
 30 70  1  0  0  0  0
 73 30  1  6  0  0  0
 30147  1  0  0  0  0
 75 31  1  6  0  0  0
 31 76  1  0  0  0  0
 31154  1  0  0  0  0
 32 80  1  0  0  0  0
 82 32  1  6  0  0  0
 32158  1  0  0  0  0
 33 79  1  0  0  0  0
 33160  1  0  0  0  0
 33161  1  0  0  0  0
 34 88  1  0  0  0  0
 34170  1  0  0  0  0
 34171  1  0  0  0  0
 35 36  1  0  0  0  0
 35 41  1  0  0  0  0
 35 90  1  0  0  0  0
 36 37  1  0  0  0  0
 36 91  1  0  0  0  0
 36 92  1  0  0  0  0
 37 38  1  0  0  0  0
 37 93  1  0  0  0  0
 37 94  1  0  0  0  0
 38 95  1  0  0  0  0
 38 96  1  0  0  0  0
 39 40  1  0  0  0  0
 39 42  1  0  0  0  0
 39 97  1  0  0  0  0
 42 44  1  0  0  0  0
 42 45  1  0  0  0  0
 42 98  1  0  0  0  0
 43 48  1  0  0  0  0
 43 50  1  0  0  0  0
 43101  1  0  0  0  0
 44102  1  0  0  0  0
 44103  1  0  0  0  0
 44104  1  0  0  0  0
 45105  1  0  0  0  0
 45106  1  0  0  0  0
 45107  1  0  0  0  0
 46 47  1  0  0  0  0
 46 49  1  0  0  0  0
 46108  1  0  0  0  0
 48 51  1  0  0  0  0
 48109  1  0  0  0  0
 48110  1  0  0  0  0
 49 52  1  0  0  0  0
 49 53  1  0  0  0  0
 49111  1  0  0  0  0
 50 57  1  0  0  0  0
 51 56  1  0  0  0  0
 51112  1  0  0  0  0
 51113  1  0  0  0  0
 52115  1  0  0  0  0
 52116  1  0  0  0  0
 52117  1  0  0  0  0
 53118  1  0  0  0  0
 53119  1  0  0  0  0
 53120  1  0  0  0  0
 54 55  1  0  0  0  0
 55 58  1  0  0  0  0
 55121  1  0  0  0  0
 56122  1  0  0  0  0
 56123  1  0  0  0  0
 56124  1  0  0  0  0
 58 59  1  0  0  0  0
 58125  1  0  0  0  0
 58126  1  0  0  0  0
 59 64  1  0  0  0  0
 59129  1  0  0  0  0
 59130  1  0  0  0  0
 60 62  1  0  0  0  0
 61 65  1  0  0  0  0
 61131  1  0  0  0  0
 61132  1  0  0  0  0
 62 63  1  0  0  0  0
 62133  1  0  0  0  0
 63 66  1  0  0  0  0
 63134  1  0  0  0  0
 63135  1  0  0  0  0
 66 71  1  0  0  0  0
 66137  1  0  0  0  0
 66138  1  0  0  0  0
 67 68  1  0  0  0  0
 67 70  1  0  0  0  0
 67139  1  0  0  0  0
 68 72  1  0  0  0  0
 68141  1  0  0  0  0
 68142  1  0  0  0  0
 69 74  1  0  0  0  0
 72 79  1  0  0  0  0
 72144  1  0  0  0  0
 72145  1  0  0  0  0
 73 76  1  0  0  0  0
 73 77  1  0  0  0  0
 73146  1  0  0  0  0
 74148  1  0  0  0  0
 74149  1  0  0  0  0
 74150  1  0  0  0  0
 75 78  1  0  0  0  0
 75 80  1  0  0  0  0
 75151  1  0  0  0  0
 77152  1  0  0  0  0
 77153  1  0  0  0  0
 78 81  1  0  0  0  0
 78155  1  0  0  0  0
 78156  1  0  0  0  0
 81 83  2  0  0  0  0
 81 84  1  0  0  0  0
 82 85  1  0  0  0  0
 82 88  1  0  0  0  0
 82159  1  0  0  0  0
 83 86  1  0  0  0  0
 83162  1  0  0  0  0
 84 87  2  0  0  0  0
 84163  1  0  0  0  0
 85165  1  0  0  0  0
 85166  1  0  0  0  0
 86 89  2  0  0  0  0
 86167  1  0  0  0  0
 87 89  1  0  0  0  0
 87168  1  0  0  0  0
M  END
> <PUBCHEM_COMPOUND_CID>
504382
> <PUBCHEM_COMPOUND_CANONICALIZED>
1
> <PUBCHEM_CACTVS_COMPLEXITY>
2560
> <PUBCHEM_CACTVS_HBOND_ACCEPTOR>
21
> <PUBCHEM_CACTVS_HBOND_DONOR>
17
> <PUBCHEM_CACTVS_ROTATABLE_BOND>
39
> <PUBCHEM_CACTVS_SUBSKEYS>
AAADcfB//gAAAAAAAAAAAAAAAAAAAWAAAAAwAAAAAAAAAAABAAAAHgAQCAAADSzhmAYyDoPAAgCIAqHSGAACAAAgIAAIiIGOCIgKdj6C0TOUcAAm9hGYmAe836KOIAAAAAAAAABAAAAAAAAAAAAAAAAAAA==
> <PUBCHEM_IUPAC_OPENEYE_NAME>
(4S)-4-acetamido-5-[[(1S)-1-[[(1S)-1-[[(1S)-1-[2-[[(1S)-1-[2-[[2-[[(1R)-4-amino-1-[[(1R)-2-[[(1S)-2-[[(1S)-2-amino-1-(hydroxymethyl)-2-oxo-ethyl]amino]-1-[(4-hydroxyphenyl)methyl]-2-oxo-ethyl]amino]-1-(hydroxymethyl)-2-oxo-ethyl]carbamoyl]-4-oxo-butyl]amino]-2-oxo-ethyl]amino]-2-oxo-acetyl]butyl]carbamoyl]pyrrolidine-1-carbonyl]-2-methyl-propyl]carbamoyl]-2-methyl-propyl]carbamoyl]-3-carboxy-propyl]amino]-5-oxo-pentanoic acid
> <PUBCHEM_IUPAC_CAS_NAME>
(4S)-4-acetamido-5-[[(2S)-1-[[(2S)-1-[[(2S)-1-[2-[[[(3S)-1-[[2-[[(2R)-5-amino-1-[[(2R)-1-[[(2S)-1-[[(2S)-1-amino-3-hydroxy-1-oxopropan-2-yl]amino]-3-(4-hydroxyphenyl)-1-oxopropan-2-yl]amino]-3-hydroxy-1-oxopropan-2-yl]amino]-1,5-dioxopentan-2-yl]amino]-2-oxoethyl]amino]-1,2-dioxohexan-3-yl]amino]-oxomethyl]-1-pyrrolidinyl]-3-methyl-1-oxobutan-2-yl]amino]-3-methyl-1-oxobutan-2-yl]amino]-4-carboxy-1-oxobutan-2-yl]amino]-5-oxopentanoic acid
> <PUBCHEM_IUPAC_NAME_MARKUP>
(4<I>S</I>)-4-acetamido-5-[[(2<I>S</I>)-1-[[(2<I>S</I>)-1-[[(2<I>S</I>)-1-[2-[[(3<I>S</I>)-1-[[2-[[(2<I>R</I>)-5-amino-1-[[(2<I>R</I>)-1-[[(2<I>S</I>)-1-[[(2<I>S</I>)-1-amino-3-hydroxy-1-oxopropan-2-yl]amino]-3-(4-hydroxyphenyl)-1-oxopropan-2-yl]amino]-3-hydroxy-1-oxopropan-2-yl]amino]-1,5-dioxopentan-2-yl]amino]-2-oxoethyl]amino]-1,2-dioxohexan-3-yl]carbamoyl]pyrrolidin-1-yl]-3-methyl-1-oxobutan-2-yl]amino]-3-methyl-1-oxobutan-2-yl]amino]-4-carboxy-1-oxobutan-2-yl]amino]-5-oxopentanoic acid
> <PUBCHEM_IUPAC_NAME>
(4S)-4-acetamido-5-[[(2S)-1-[[(2S)-1-[[(2S)-1-[2-[[(3S)-1-[[2-[[(2R)-5-amino-1-[[(2R)-1-[[(2S)-1-[[(2S)-1-amino-3-hydroxy-1-oxopropan-2-yl]amino]-3-(4-hydroxyphenyl)-1-oxopropan-2-yl]amino]-3-hydroxy-1-oxopropan-2-yl]amino]-1,5-dioxopentan-2-yl]amino]-2-oxoethyl]amino]-1,2-dioxohexan-3-yl]carbamoyl]pyrrolidin-1-yl]-3-methyl-1-oxobutan-2-yl]amino]-3-methyl-1-oxobutan-2-yl]amino]-4-carboxy-1-oxobutan-2-yl]amino]-5-oxopentanoic acid
> <PUBCHEM_IUPAC_SYSTEMATIC_NAME>
(4S)-4-acetamido-5-[[(2S)-1-[[(2S)-1-[[(2S)-1-[2-[[(3S)-1-[[2-[[(2R)-5-azanyl-1-[[(2R)-1-[[(2S)-1-[[(2S)-1-azanyl-3-oxidanyl-1-oxidanylidene-propan-2-yl]amino]-3-(4-hydroxyphenyl)-1-oxidanylidene-propan-2-yl]amino]-3-oxidanyl-1-oxidanylidene-propan-2-yl]amino]-1,5-bis(oxidanylidene)pentan-2-yl]amino]-2-oxidanylidene-ethyl]amino]-1,2-bis(oxidanylidene)hexan-3-yl]carbamoyl]pyrrolidin-1-yl]-3-methyl-1-oxidanylidene-butan-2-yl]amino]-3-methyl-1-oxidanylidene-butan-2-yl]amino]-5-oxidanyl-1,5-bis(oxidanylidene)pentan-2-yl]amino]-5-oxidanylidene-pentanoic acid
> <PUBCHEM_IUPAC_TRADITIONAL_NAME>
(4S)-4-acetamido-5-[[(1S)-1-[[(1S)-1-[[(1S)-1-[2-[[(1S)-1-[2-[[2-[[(1R)-4-amino-1-[[(1R)-2-[[(1S)-2-[[(1S)-2-amino-2-keto-1-methylol-ethyl]amino]-1-(4-hydroxybenzyl)-2-keto-ethyl]amino]-2-keto-1-methylol-ethyl]carbamoyl]-4-keto-butyl]amino]-2-keto-ethyl]amino]-2-keto-acetyl]butyl]carbamoyl]pyrrolidine-1-carbonyl]-2-methyl-propyl]carbamoyl]-2-methyl-propyl]carbamoyl]-3-carboxy-propyl]amino]-5-keto-valeric acid
> <PUBCHEM_IUPAC_INCHI>
InChI=1S/C55H83N13O21/c1-7-9-31(45(79)54(88)58-23-40(74)60-33(15-18-39(56)73)48(82)65-37(25-70)51(85)63-35(22-29-11-13-30(72)14-12-29)50(84)64-36(24-69)46(57)80)61-52(86)38-10-8-21-68(38)55(89)44(27(4)5)67-53(87)43(26(2)3)66-49(83)34(17-20-42(77)78)62-47(81)32(59-28(6)71)16-19-41(75)76/h11-14,26-27,31-38,43-44,69-70,72H,7-10,15-25H2,1-6H3,(H2,56,73)(H2,57,80)(H,58,88)(H,59,71)(H,60,74)(H,61,86)(H,62,81)(H,63,85)(H,64,84)(H,65,82)(H,66,83)(H,67,87)(H,75,76)(H,77,78)/t31-,32-,33+,34-,35-,36-,37+,38?,43-,44-/m0/s1
> <PUBCHEM_IUPAC_INCHIKEY>
NSSXPPDBRCJALC-PZOVPUFUSA-N
> <PUBCHEM_XLOGP3_AA>
-4.1
> <PUBCHEM_EXACT_MASS>
1261.58264671
> <PUBCHEM_MOLECULAR_FORMULA>
C55H83N13O21
> <PUBCHEM_MOLECULAR_WEIGHT>
1262.3
> <PUBCHEM_OPENEYE_CAN_SMILES>
CCCC(C(=O)C(=O)NCC(=O)NC(CCC(=O)N)C(=O)NC(CO)C(=O)NC(CC1=CC=C(C=C1)O)C(=O)NC(CO)C(=O)N)NC(=O)C2CCCN2C(=O)C(C(C)C)NC(=O)C(C(C)C)NC(=O)C(CCC(=O)O)NC(=O)C(CCC(=O)O)NC(=O)C
> <PUBCHEM_OPENEYE_ISO_SMILES>
CCC[C@@H](C(=O)C(=O)NCC(=O)N[C@H](CCC(=O)N)C(=O)N[C@H](CO)C(=O)N[C@@H](CC1=CC=C(C=C1)O)C(=O)N[C@@H](CO)C(=O)N)NC(=O)C2CCCN2C(=O)[C@H](C(C)C)NC(=O)[C@H](C(C)C)NC(=O)[C@H](CCC(=O)O)NC(=O)[C@H](CCC(=O)O)NC(=O)C
> <PUBCHEM_CACTVS_TPSA>
550
> <PUBCHEM_MONOISOTOPIC_WEIGHT>
1261.58264671
> <PUBCHEM_TOTAL_CHARGE>
0
> <PUBCHEM_HEAVY_ATOM_COUNT>
89
> <PUBCHEM_ATOM_DEF_STEREO_COUNT>
9
> <PUBCHEM_ATOM_UDEF_STEREO_COUNT>
1
> <PUBCHEM_BOND_DEF_STEREO_COUNT>
0
> <PUBCHEM_BOND_UDEF_STEREO_COUNT>
0
> <PUBCHEM_ISOTOPIC_ATOM_COUNT>
0
> <PUBCHEM_COMPONENT_COUNT>
1
> <PUBCHEM_CACTVS_TAUTO_COUNT>
-1
> <PUBCHEM_COORDINATE_TYPE>
1
5
255
> <PUBCHEM_BONDANNOTATIONS>
39  23  6
43  24  5
46  25  5
55  26  6
62  28  5
67  29  5
73  30  6
75  31  6
82  32  6
35  41  3
81  83  8
81  84  8
83  86  8
84  87  8
86  89  8
87  89  8
$$$$
