504326
  -OEChem-10302200282D
 43 45  0     1  0  0  0  0  0999 V2000
    5.2426   -2.2320    0.0000 O   0  0  0  0  0  0  0  0  0  0  0  0
    2.9855    1.1220    0.0000 O   0  0  0  0  0  0  0  0  0  0  0  0
    3.7327   -1.3834    0.0000 O   0  0  0  0  0  0  0  0  0  0  0  0
    2.6912   -0.5850    0.0000 O   0  0  0  0  0  0  0  0  0  0  0  0
    5.2226   -0.5001    0.0000 C   0  0  2  0  0  0  0  0  0  0  0  0
    4.3165    0.0137    0.0000 C   0  0  1  0  0  0  0  0  0  0  0  0
    4.3165    1.0554    0.0000 C   0  0  0  0  0  0  0  0  0  0  0  0
    6.1166    0.0345    0.0000 C   0  0  0  0  0  0  0  0  0  0  0  0
    5.2226    1.5692    0.0000 C   0  0  0  0  0  0  0  0  0  0  0  0
    6.1166    1.0345    0.0000 C   0  0  0  0  0  0  0  0  0  0  0  0
    5.7326   -1.3603    0.0000 C   0  0  0  0  0  0  0  0  0  0  0  0
    4.7327   -1.3719    0.0000 C   0  0  0  0  0  0  0  0  0  0  0  0
    6.9826    1.5345    0.0000 C   0  0  0  0  0  0  0  0  0  0  0  0
    3.3311    0.1836    0.0000 C   0  0  0  0  0  0  0  0  0  0  0  0
    6.9826   -0.4655    0.0000 C   0  0  0  0  0  0  0  0  0  0  0  0
    7.8486    1.0345    0.0000 C   0  0  0  0  0  0  0  0  0  0  0  0
    7.8486    0.0345    0.0000 C   0  0  0  0  0  0  0  0  0  0  0  0
    6.9665    2.5760    0.0000 C   0  0  0  0  0  0  0  0  0  0  0  0
    8.7586    1.5414    0.0000 C   0  0  0  0  0  0  0  0  0  0  0  0
    7.8646    3.1038    0.0000 C   0  0  0  0  0  0  0  0  0  0  0  0
    8.7666    2.5830    0.0000 C   0  0  0  0  0  0  0  0  0  0  0  0
    4.7527   -3.1038    0.0000 C   0  0  0  0  0  0  0  0  0  0  0  0
    2.0000    1.2919    0.0000 C   0  0  0  0  0  0  0  0  0  0  0  0
    4.1078   -0.5701    0.0000 H   0  0  0  0  0  0  0  0  0  0  0  0
    4.1075    1.6390    0.0000 H   0  0  0  0  0  0  0  0  0  0  0  0
    3.7057    0.9493    0.0000 H   0  0  0  0  0  0  0  0  0  0  0  0
    5.6272    2.0390    0.0000 H   0  0  0  0  0  0  0  0  0  0  0  0
    4.8290    2.0482    0.0000 H   0  0  0  0  0  0  0  0  0  0  0  0
    5.1993   -1.6765    0.0000 H   0  0  0  0  0  0  0  0  0  0  0  0
    6.0488   -1.8936    0.0000 H   0  0  0  0  0  0  0  0  0  0  0  0
    6.2659   -1.0441    0.0000 H   0  0  0  0  0  0  0  0  0  0  0  0
    6.9826   -1.0855    0.0000 H   0  0  0  0  0  0  0  0  0  0  0  0
    8.3855   -0.2755    0.0000 H   0  0  0  0  0  0  0  0  0  0  0  0
    6.4260    2.8798    0.0000 H   0  0  0  0  0  0  0  0  0  0  0  0
    9.2919    1.2252    0.0000 H   0  0  0  0  0  0  0  0  0  0  0  0
    7.8622    3.7238    0.0000 H   0  0  0  0  0  0  0  0  0  0  0  0
    9.3048    2.8909    0.0000 H   0  0  0  0  0  0  0  0  0  0  0  0
    4.2122   -2.8000    0.0000 H   0  0  0  0  0  0  0  0  0  0  0  0
    4.4489   -3.6443    0.0000 H   0  0  0  0  0  0  0  0  0  0  0  0
    5.2932   -3.4076    0.0000 H   0  0  0  0  0  0  0  0  0  0  0  0
    2.1053    1.9029    0.0000 H   0  0  0  0  0  0  0  0  0  0  0  0
    1.3890    1.3972    0.0000 H   0  0  0  0  0  0  0  0  0  0  0  0
    1.8947    0.6809    0.0000 H   0  0  0  0  0  0  0  0  0  0  0  0
  1 12  1  0  0  0  0
  1 22  1  0  0  0  0
  2 14  1  0  0  0  0
  2 23  1  0  0  0  0
  3 12  2  0  0  0  0
  4 14  2  0  0  0  0
  5  6  1  0  0  0  0
  5  8  1  0  0  0  0
  5 11  1  6  0  0  0
  5 12  1  0  0  0  0
  6  7  1  0  0  0  0
  6 14  1  6  0  0  0
  6 24  1  0  0  0  0
  7  9  1  0  0  0  0
  7 25  1  0  0  0  0
  7 26  1  0  0  0  0
  8 10  2  0  0  0  0
  8 15  1  0  0  0  0
  9 10  1  0  0  0  0
  9 27  1  0  0  0  0
  9 28  1  0  0  0  0
 10 13  1  0  0  0  0
 11 29  1  0  0  0  0
 11 30  1  0  0  0  0
 11 31  1  0  0  0  0
 13 16  1  0  0  0  0
 13 18  2  0  0  0  0
 15 17  2  0  0  0  0
 15 32  1  0  0  0  0
 16 17  1  0  0  0  0
 16 19  2  0  0  0  0
 17 33  1  0  0  0  0
 18 20  1  0  0  0  0
 18 34  1  0  0  0  0
 19 21  1  0  0  0  0
 19 35  1  0  0  0  0
 20 21  2  0  0  0  0
 20 36  1  0  0  0  0
 21 37  1  0  0  0  0
 22 38  1  0  0  0  0
 22 39  1  0  0  0  0
 22 40  1  0  0  0  0
 23 41  1  0  0  0  0
 23 42  1  0  0  0  0
 23 43  1  0  0  0  0
M  END
> <PUBCHEM_COMPOUND_CID>
504326
> <PUBCHEM_COMPOUND_CANONICALIZED>
1
> <PUBCHEM_CACTVS_COMPLEXITY>
474
> <PUBCHEM_CACTVS_HBOND_ACCEPTOR>
4
> <PUBCHEM_CACTVS_HBOND_DONOR>
0
> <PUBCHEM_CACTVS_ROTATABLE_BOND>
4
> <PUBCHEM_CACTVS_SUBSKEYS>
AAADceB4OAAAAAAAAAAAAAAAAAAAAAAAAAAwYMAAAAAAAADBUAAAGgAAAAAADwCAmAIyCMAABACIAiDSCAACAAAgAAAIiAEAAIgIIDKAFRCAIAAkwAEIiAfLyPCPwAACAAAQAACAAAQAACAAAAAAAAAAAA==
> <PUBCHEM_IUPAC_OPENEYE_NAME>
dimethyl (1S,2R)-1-methyl-3,4-dihydro-2H-phenanthrene-1,2-dicarboxylate
> <PUBCHEM_IUPAC_CAS_NAME>
(1S,2R)-1-methyl-3,4-dihydro-2H-phenanthrene-1,2-dicarboxylic acid dimethyl ester
> <PUBCHEM_IUPAC_NAME_MARKUP>
dimethyl (1<I>S</I>,2<I>R</I>)-1-methyl-3,4-dihydro-2<I>H</I>-phenanthrene-1,2-dicarboxylate
> <PUBCHEM_IUPAC_NAME>
dimethyl (1S,2R)-1-methyl-3,4-dihydro-2H-phenanthrene-1,2-dicarboxylate
> <PUBCHEM_IUPAC_SYSTEMATIC_NAME>
dimethyl (1S,2R)-1-methyl-3,4-dihydro-2H-phenanthrene-1,2-dicarboxylate
> <PUBCHEM_IUPAC_TRADITIONAL_NAME>
(1S,2R)-1-methyl-3,4-dihydro-2H-phenanthrene-1,2-dicarboxylic acid dimethyl ester
> <PUBCHEM_IUPAC_INCHI>
InChI=1S/C19H20O4/c1-19(18(21)23-3)15-10-8-12-6-4-5-7-13(12)14(15)9-11-16(19)17(20)22-2/h4-8,10,16H,9,11H2,1-3H3/t16-,19+/m0/s1
> <PUBCHEM_IUPAC_INCHIKEY>
ZULZZCBJZLNOKY-QFBILLFUSA-N
> <PUBCHEM_XLOGP3_AA>
3.6
> <PUBCHEM_EXACT_MASS>
312.13615911
> <PUBCHEM_MOLECULAR_FORMULA>
C19H20O4
> <PUBCHEM_MOLECULAR_WEIGHT>
312.4
> <PUBCHEM_OPENEYE_CAN_SMILES>
CC1(C(CCC2=C1C=CC3=CC=CC=C23)C(=O)OC)C(=O)OC
> <PUBCHEM_OPENEYE_ISO_SMILES>
C[C@@]1([C@@H](CCC2=C1C=CC3=CC=CC=C23)C(=O)OC)C(=O)OC
> <PUBCHEM_CACTVS_TPSA>
52.6
> <PUBCHEM_MONOISOTOPIC_WEIGHT>
312.13615911
> <PUBCHEM_TOTAL_CHARGE>
0
> <PUBCHEM_HEAVY_ATOM_COUNT>
23
> <PUBCHEM_ATOM_DEF_STEREO_COUNT>
2
> <PUBCHEM_ATOM_UDEF_STEREO_COUNT>
0
> <PUBCHEM_BOND_DEF_STEREO_COUNT>
0
> <PUBCHEM_BOND_UDEF_STEREO_COUNT>
0
> <PUBCHEM_ISOTOPIC_ATOM_COUNT>
0
> <PUBCHEM_COMPONENT_COUNT>
1
> <PUBCHEM_CACTVS_TAUTO_COUNT>
-1
> <PUBCHEM_COORDINATE_TYPE>
1
5
255
> <PUBCHEM_BONDANNOTATIONS>
10  13  8
13  16  8
13  18  8
15  17  8
16  17  8
16  19  8
18  20  8
19  21  8
20  21  8
5  11  6
6  14  6
8  10  8
8  15  8
$$$$
