504408
  -OEChem-10302200282D
169170  0     1  0  0  0  0  0999 V2000
    5.3147   -5.8577    0.0000 S   0  0  0  0  0  0  0  0  0  0  0  0
    5.1724    3.4969    0.0000 O   0  0  0  0  0  0  0  0  0  0  0  0
    5.3147    2.1423    0.0000 O   0  0  0  0  0  0  0  0  0  0  0  0
    3.5976    6.7404    0.0000 O   0  0  0  0  0  0  0  0  0  0  0  0
    4.4487   -1.3577    0.0000 O   0  0  0  0  0  0  0  0  0  0  0  0
    6.7780    8.4387    0.0000 O   0  0  0  0  0  0  0  0  0  0  0  0
    7.0468   -0.8577    0.0000 O   0  0  0  0  0  0  0  0  0  0  0  0
    5.2033   11.6822    0.0000 O   0  0  0  0  0  0  0  0  0  0  0  0
    3.3011   12.3002    0.0000 O   0  0  0  0  0  0  0  0  0  0  0  0
    2.7659   10.6530    0.0000 O   0  0  0  0  0  0  0  0  0  0  0  0
    6.1808   -4.3577    0.0000 O   0  0  0  0  0  0  0  0  0  0  0  0
    8.3837   13.3806    0.0000 O   0  0  0  0  0  0  0  0  0  0  0  0
   10.2859   12.7625    0.0000 O   0  0  0  0  0  0  0  0  0  0  0  0
    9.6448   -5.3577    0.0000 O   0  0  0  0  0  0  0  0  0  0  0  0
    9.7506   11.1153    0.0000 O   0  0  0  0  0  0  0  0  0  0  0  0
   10.5109   -5.8577    0.0000 O   0  0  0  0  0  0  0  0  0  0  0  0
    8.7788   -8.8577    0.0000 O   0  0  0  0  0  0  0  0  0  0  0  0
   11.3769  -11.3577    0.0000 O   0  0  0  0  0  0  0  0  0  0  0  0
   13.9750  -11.8577    0.0000 O   0  0  0  0  0  0  0  0  0  0  0  0
    9.6448  -14.3577    0.0000 O   0  0  0  0  0  0  0  0  0  0  0  0
   13.9750   -8.8577    0.0000 O   0  0  0  0  0  0  0  0  0  0  0  0
    3.4782    3.1368    0.0000 N   0  0  0  0  0  0  0  0  0  0  0  0
    4.7565    5.4532    0.0000 N   0  0  0  0  0  0  0  0  0  0  0  0
    4.4487    0.6423    0.0000 N   0  0  0  0  0  0  0  0  0  0  0  0
    5.0838    8.0786    0.0000 N   0  0  0  0  0  0  0  0  0  0  0  0
    6.3622   10.3950    0.0000 N   0  0  0  0  0  0  0  0  0  0  0  0
    6.1808   -2.3577    0.0000 N   0  0  0  0  0  0  0  0  0  0  0  0
    6.6896   13.0205    0.0000 N   0  0  0  0  0  0  0  0  0  0  0  0
    7.9128   -4.3577    0.0000 N   0  0  0  0  0  0  0  0  0  0  0  0
    8.7788   -6.8577    0.0000 N   0  0  0  0  0  0  0  0  0  0  0  0
   10.5109   -8.8577    0.0000 N   0  0  0  0  0  0  0  0  0  0  0  0
   12.2429   -9.8577    0.0000 N   0  0  0  0  0  0  0  0  0  0  0  0
   14.8410  -10.3577    0.0000 N   0  0  0  0  0  0  0  0  0  0  0  0
    3.5827    2.1423    0.0000 C   0  0  3  0  0  0  0  0  0  0  0  0
    2.6691    1.7355    0.0000 C   0  0  0  0  0  0  0  0  0  0  0  0
    2.0000    2.4787    0.0000 C   0  0  0  0  0  0  0  0  0  0  0  0
    2.5000    3.3447    0.0000 C   0  0  0  0  0  0  0  0  0  0  0  0
    4.0134    4.7841    0.0000 C   0  0  2  0  0  0  0  0  0  0  0  0
    4.2213    3.8059    0.0000 C   0  0  0  0  0  0  0  0  0  0  0  0
    4.4487    1.6423    0.0000 C   0  0  0  0  0  0  0  0  0  0  0  0
    3.0623    5.0931    0.0000 C   0  0  0  0  0  0  0  0  0  0  0  0
    2.8544    6.0712    0.0000 C   0  0  0  0  0  0  0  0  0  0  0  0
    2.3192    4.4239    0.0000 C   0  0  0  0  0  0  0  0  0  0  0  0
    5.3147    0.1423    0.0000 C   0  0  1  0  0  0  0  0  0  0  0  0
    5.2918    7.1005    0.0000 C   0  0  2  0  0  0  0  0  0  0  0  0
    4.5486    6.4313    0.0000 C   0  0  0  0  0  0  0  0  0  0  0  0
    6.2428    6.7915    0.0000 C   0  0  0  0  0  0  0  0  0  0  0  0
    6.1808    0.6423    0.0000 C   0  0  0  0  0  0  0  0  0  0  0  0
    5.3147   -0.8577    0.0000 C   0  0  0  0  0  0  0  0  0  0  0  0
    6.9860    7.4606    0.0000 C   0  0  0  0  0  0  0  0  0  0  0  0
    6.4507    5.8133    0.0000 C   0  0  0  0  0  0  0  0  0  0  0  0
    6.1808    1.6423    0.0000 C   0  0  0  0  0  0  0  0  0  0  0  0
    5.8270    8.7478    0.0000 C   0  0  0  0  0  0  0  0  0  0  0  0
    5.6191    9.7259    0.0000 C   0  0  2  0  0  0  0  0  0  0  0  0
    6.1808   -1.3577    0.0000 C   0  0  0  0  0  0  0  0  0  0  0  0
    4.6680   10.0349    0.0000 C   0  0  0  0  0  0  0  0  0  0  0  0
    4.4601   11.0131    0.0000 C   0  0  0  0  0  0  0  0  0  0  0  0
    6.1543   11.3732    0.0000 C   0  0  0  0  0  0  0  0  0  0  0  0
    6.8975   12.0423    0.0000 C   0  0  2  0  0  0  0  0  0  0  0  0
    7.0468   -2.8577    0.0000 C   0  0  0  0  0  0  0  0  0  0  0  0
    7.8485   11.7333    0.0000 C   0  0  0  0  0  0  0  0  0  0  0  0
    3.5091   11.3221    0.0000 C   0  0  0  0  0  0  0  0  0  0  0  0
    7.0468   -3.8577    0.0000 C   0  0  0  0  0  0  0  0  0  0  0  0
    8.5917   12.4024    0.0000 C   0  0  0  0  0  0  0  0  0  0  0  0
    7.9128   -5.3577    0.0000 C   0  0  1  0  0  0  0  0  0  0  0  0
    7.0468   -5.8577    0.0000 C   0  0  0  0  0  0  0  0  0  0  0  0
    7.4327   13.6896    0.0000 C   0  0  0  0  0  0  0  0  0  0  0  0
    8.7788   -5.8577    0.0000 C   0  0  0  0  0  0  0  0  0  0  0  0
    9.5427   12.0934    0.0000 C   0  0  0  0  0  0  0  0  0  0  0  0
    9.6448   -7.3577    0.0000 C   0  0  2  0  0  0  0  0  0  0  0  0
    6.1808   -5.3577    0.0000 C   0  0  0  0  0  0  0  0  0  0  0  0
    7.2248   14.6677    0.0000 C   0  0  0  0  0  0  0  0  0  0  0  0
   10.5109   -9.8577    0.0000 C   0  0  1  0  0  0  0  0  0  0  0  0
    9.6448   -8.3577    0.0000 C   0  0  0  0  0  0  0  0  0  0  0  0
    9.6448  -10.3577    0.0000 C   0  0  0  0  0  0  0  0  0  0  0  0
   10.5109   -6.8577    0.0000 C   0  0  0  0  0  0  0  0  0  0  0  0
   11.3769  -10.3577    0.0000 C   0  0  0  0  0  0  0  0  0  0  0  0
    9.6448  -11.3577    0.0000 C   0  0  0  0  0  0  0  0  0  0  0  0
   13.1090  -10.3577    0.0000 C   0  0  1  0  0  0  0  0  0  0  0  0
    8.7788  -11.8577    0.0000 C   0  0  0  0  0  0  0  0  0  0  0  0
   10.5109  -11.8577    0.0000 C   0  0  0  0  0  0  0  0  0  0  0  0
    4.4487   -5.3577    0.0000 C   0  0  0  0  0  0  0  0  0  0  0  0
   13.1090  -11.3577    0.0000 C   0  0  0  0  0  0  0  0  0  0  0  0
    8.7788  -12.8577    0.0000 C   0  0  0  0  0  0  0  0  0  0  0  0
   10.5109  -12.8577    0.0000 C   0  0  0  0  0  0  0  0  0  0  0  0
   13.9750   -9.8577    0.0000 C   0  0  0  0  0  0  0  0  0  0  0  0
    9.6448  -13.3577    0.0000 C   0  0  0  0  0  0  0  0  0  0  0  0
    4.1026    2.4799    0.0000 H   0  0  0  0  0  0  0  0  0  0  0  0
    2.1675    1.3711    0.0000 H   0  0  0  0  0  0  0  0  0  0  0  0
    2.9791    1.1986    0.0000 H   0  0  0  0  0  0  0  0  0  0  0  0
    1.4984    2.8431    0.0000 H   0  0  0  0  0  0  0  0  0  0  0  0
    1.5851    2.0179    0.0000 H   0  0  0  0  0  0  0  0  0  0  0  0
    2.6916    3.9344    0.0000 H   0  0  0  0  0  0  0  0  0  0  0  0
    1.9336    3.5969    0.0000 H   0  0  0  0  0  0  0  0  0  0  0  0
    4.6030    4.5925    0.0000 H   0  0  0  0  0  0  0  0  0  0  0  0
    3.5231    5.5079    0.0000 H   0  0  0  0  0  0  0  0  0  0  0  0
    5.3462    5.2616    0.0000 H   0  0  0  0  0  0  0  0  0  0  0  0
    3.9118    0.3323    0.0000 H   0  0  0  0  0  0  0  0  0  0  0  0
    3.4609    6.2001    0.0000 H   0  0  0  0  0  0  0  0  0  0  0  0
    2.7255    6.6777    0.0000 H   0  0  0  0  0  0  0  0  0  0  0  0
    2.2480    5.9423    0.0000 H   0  0  0  0  0  0  0  0  0  0  0  0
    1.9043    4.8847    0.0000 H   0  0  0  0  0  0  0  0  0  0  0  0
    1.8584    4.0091    0.0000 H   0  0  0  0  0  0  0  0  0  0  0  0
    2.7340    3.9632    0.0000 H   0  0  0  0  0  0  0  0  0  0  0  0
    5.3147    0.7623    0.0000 H   0  0  0  0  0  0  0  0  0  0  0  0
    4.7021    7.2921    0.0000 H   0  0  0  0  0  0  0  0  0  0  0  0
    5.7821    6.3766    0.0000 H   0  0  0  0  0  0  0  0  0  0  0  0
    6.3928    0.0597    0.0000 H   0  0  0  0  0  0  0  0  0  0  0  0
    6.7913    0.7499    0.0000 H   0  0  0  0  0  0  0  0  0  0  0  0
    4.4942    8.2702    0.0000 H   0  0  0  0  0  0  0  0  0  0  0  0
    7.4008    6.9998    0.0000 H   0  0  0  0  0  0  0  0  0  0  0  0
    7.4467    7.8754    0.0000 H   0  0  0  0  0  0  0  0  0  0  0  0
    6.5711    7.9213    0.0000 H   0  0  0  0  0  0  0  0  0  0  0  0
    5.8443    5.6844    0.0000 H   0  0  0  0  0  0  0  0  0  0  0  0
    6.5796    5.2069    0.0000 H   0  0  0  0  0  0  0  0  0  0  0  0
    7.0572    5.9422    0.0000 H   0  0  0  0  0  0  0  0  0  0  0  0
    6.8008    1.6423    0.0000 H   0  0  0  0  0  0  0  0  0  0  0  0
    6.1808    2.2623    0.0000 H   0  0  0  0  0  0  0  0  0  0  0  0
    5.5608    1.6423    0.0000 H   0  0  0  0  0  0  0  0  0  0  0  0
    6.2087    9.5343    0.0000 H   0  0  0  0  0  0  0  0  0  0  0  0
    4.0484   10.0133    0.0000 H   0  0  0  0  0  0  0  0  0  0  0  0
    4.5817    9.4210    0.0000 H   0  0  0  0  0  0  0  0  0  0  0  0
    6.9519   10.2034    0.0000 H   0  0  0  0  0  0  0  0  0  0  0  0
    5.6438   -2.6677    0.0000 H   0  0  0  0  0  0  0  0  0  0  0  0
    5.0797   11.0347    0.0000 H   0  0  0  0  0  0  0  0  0  0  0  0
    4.5464   11.6270    0.0000 H   0  0  0  0  0  0  0  0  0  0  0  0
    7.3582   12.4572    0.0000 H   0  0  0  0  0  0  0  0  0  0  0  0
    7.6574   -2.9654    0.0000 H   0  0  0  0  0  0  0  0  0  0  0  0
    7.2588   -2.2751    0.0000 H   0  0  0  0  0  0  0  0  0  0  0  0
    7.5574   11.1859    0.0000 H   0  0  0  0  0  0  0  0  0  0  0  0
    8.3371   11.3516    0.0000 H   0  0  0  0  0  0  0  0  0  0  0  0
    6.0999   13.2120    0.0000 H   0  0  0  0  0  0  0  0  0  0  0  0
    8.8827   12.9499    0.0000 H   0  0  0  0  0  0  0  0  0  0  0  0
    8.1031   12.7841    0.0000 H   0  0  0  0  0  0  0  0  0  0  0  0
    8.4497   -5.0477    0.0000 H   0  0  0  0  0  0  0  0  0  0  0  0
    8.4497   -4.0477    0.0000 H   0  0  0  0  0  0  0  0  0  0  0  0
    6.6482   -6.3327    0.0000 H   0  0  0  0  0  0  0  0  0  0  0  0
    7.4453   -6.3327    0.0000 H   0  0  0  0  0  0  0  0  0  0  0  0
    2.7115   12.4918    0.0000 H   0  0  0  0  0  0  0  0  0  0  0  0
    9.1079   -7.6677    0.0000 H   0  0  0  0  0  0  0  0  0  0  0  0
    6.5793   -4.8828    0.0000 H   0  0  0  0  0  0  0  0  0  0  0  0
    5.7822   -4.8828    0.0000 H   0  0  0  0  0  0  0  0  0  0  0  0
    8.2419   -7.1677    0.0000 H   0  0  0  0  0  0  0  0  0  0  0  0
    7.8312   14.7966    0.0000 H   0  0  0  0  0  0  0  0  0  0  0  0
    7.0959   15.2742    0.0000 H   0  0  0  0  0  0  0  0  0  0  0  0
    6.6183   14.5388    0.0000 H   0  0  0  0  0  0  0  0  0  0  0  0
   11.0478   -9.5477    0.0000 H   0  0  0  0  0  0  0  0  0  0  0  0
    9.4328   -9.7751    0.0000 H   0  0  0  0  0  0  0  0  0  0  0  0
    9.0343  -10.4654    0.0000 H   0  0  0  0  0  0  0  0  0  0  0  0
   11.0478   -8.5477    0.0000 H   0  0  0  0  0  0  0  0  0  0  0  0
   10.7229   -7.4403    0.0000 H   0  0  0  0  0  0  0  0  0  0  0  0
   11.1215   -6.7501    0.0000 H   0  0  0  0  0  0  0  0  0  0  0  0
   10.8755   12.5709    0.0000 H   0  0  0  0  0  0  0  0  0  0  0  0
   12.2429   -9.2377    0.0000 H   0  0  0  0  0  0  0  0  0  0  0  0
   12.5720  -10.6677    0.0000 H   0  0  0  0  0  0  0  0  0  0  0  0
    8.2419  -11.5477    0.0000 H   0  0  0  0  0  0  0  0  0  0  0  0
   11.0478  -11.5477    0.0000 H   0  0  0  0  0  0  0  0  0  0  0  0
   11.0478   -5.5477    0.0000 H   0  0  0  0  0  0  0  0  0  0  0  0
    4.7587   -4.8208    0.0000 H   0  0  0  0  0  0  0  0  0  0  0  0
    3.9118   -5.0477    0.0000 H   0  0  0  0  0  0  0  0  0  0  0  0
    4.1387   -5.8947    0.0000 H   0  0  0  0  0  0  0  0  0  0  0  0
   12.4984  -11.2501    0.0000 H   0  0  0  0  0  0  0  0  0  0  0  0
   12.8969  -11.9403    0.0000 H   0  0  0  0  0  0  0  0  0  0  0  0
    8.2419  -13.1677    0.0000 H   0  0  0  0  0  0  0  0  0  0  0  0
   11.0478  -13.1677    0.0000 H   0  0  0  0  0  0  0  0  0  0  0  0
   13.9750  -12.4777    0.0000 H   0  0  0  0  0  0  0  0  0  0  0  0
   15.3779  -10.0477    0.0000 H   0  0  0  0  0  0  0  0  0  0  0  0
   14.8410  -10.9777    0.0000 H   0  0  0  0  0  0  0  0  0  0  0  0
    9.1079  -14.6677    0.0000 H   0  0  0  0  0  0  0  0  0  0  0  0
  1 71  1  0  0  0  0
  1 82  1  0  0  0  0
  2 39  2  0  0  0  0
  3 40  2  0  0  0  0
  4 46  2  0  0  0  0
  5 49  2  0  0  0  0
  6 53  2  0  0  0  0
  7 55  2  0  0  0  0
  8 58  2  0  0  0  0
  9 62  1  0  0  0  0
  9139  1  0  0  0  0
 10 62  2  0  0  0  0
 11 63  2  0  0  0  0
 12 67  2  0  0  0  0
 13 69  1  0  0  0  0
 13153  1  0  0  0  0
 14 68  2  0  0  0  0
 15 69  2  0  0  0  0
 16 76  1  0  0  0  0
 16158  1  0  0  0  0
 17 74  2  0  0  0  0
 18 77  2  0  0  0  0
 19 83  1  0  0  0  0
 19166  1  0  0  0  0
 20 87  1  0  0  0  0
 20169  1  0  0  0  0
 21 86  2  0  0  0  0
 22 34  1  0  0  0  0
 22 37  1  0  0  0  0
 22 39  1  0  0  0  0
 38 23  1  6  0  0  0
 23 46  1  0  0  0  0
 23 97  1  0  0  0  0
 24 40  1  0  0  0  0
 44 24  1  1  0  0  0
 24 98  1  0  0  0  0
 45 25  1  1  0  0  0
 25 53  1  0  0  0  0
 25110  1  0  0  0  0
 54 26  1  6  0  0  0
 26 58  1  0  0  0  0
 26123  1  0  0  0  0
 27 55  1  0  0  0  0
 27 60  1  0  0  0  0
 27124  1  0  0  0  0
 59 28  1  1  0  0  0
 28 67  1  0  0  0  0
 28132  1  0  0  0  0
 29 63  1  0  0  0  0
 65 29  1  6  0  0  0
 29136  1  0  0  0  0
 30 68  1  0  0  0  0
 70 30  1  1  0  0  0
 30143  1  0  0  0  0
 73 31  1  6  0  0  0
 31 74  1  0  0  0  0
 31150  1  0  0  0  0
 32 77  1  0  0  0  0
 79 32  1  6  0  0  0
 32154  1  0  0  0  0
 33 86  1  0  0  0  0
 33167  1  0  0  0  0
 33168  1  0  0  0  0
 34 35  1  0  0  0  0
 34 40  1  0  0  0  0
 34 88  1  0  0  0  0
 35 36  1  0  0  0  0
 35 89  1  0  0  0  0
 35 90  1  0  0  0  0
 36 37  1  0  0  0  0
 36 91  1  0  0  0  0
 36 92  1  0  0  0  0
 37 93  1  0  0  0  0
 37 94  1  0  0  0  0
 38 39  1  0  0  0  0
 38 41  1  0  0  0  0
 38 95  1  0  0  0  0
 41 42  1  0  0  0  0
 41 43  1  0  0  0  0
 41 96  1  0  0  0  0
 42 99  1  0  0  0  0
 42100  1  0  0  0  0
 42101  1  0  0  0  0
 43102  1  0  0  0  0
 43103  1  0  0  0  0
 43104  1  0  0  0  0
 44 48  1  0  0  0  0
 44 49  1  0  0  0  0
 44105  1  0  0  0  0
 45 46  1  0  0  0  0
 45 47  1  0  0  0  0
 45106  1  0  0  0  0
 47 50  1  0  0  0  0
 47 51  1  0  0  0  0
 47107  1  0  0  0  0
 48 52  1  0  0  0  0
 48108  1  0  0  0  0
 48109  1  0  0  0  0
 49 55  1  0  0  0  0
 50111  1  0  0  0  0
 50112  1  0  0  0  0
 50113  1  0  0  0  0
 51114  1  0  0  0  0
 51115  1  0  0  0  0
 51116  1  0  0  0  0
 52117  1  0  0  0  0
 52118  1  0  0  0  0
 52119  1  0  0  0  0
 53 54  1  0  0  0  0
 54 56  1  0  0  0  0
 54120  1  0  0  0  0
 56 57  1  0  0  0  0
 56121  1  0  0  0  0
 56122  1  0  0  0  0
 57 62  1  0  0  0  0
 57125  1  0  0  0  0
 57126  1  0  0  0  0
 58 59  1  0  0  0  0
 59 61  1  0  0  0  0
 59127  1  0  0  0  0
 60 63  1  0  0  0  0
 60128  1  0  0  0  0
 60129  1  0  0  0  0
 61 64  1  0  0  0  0
 61130  1  0  0  0  0
 61131  1  0  0  0  0
 64 69  1  0  0  0  0
 64133  1  0  0  0  0
 64134  1  0  0  0  0
 65 66  1  0  0  0  0
 65 68  1  0  0  0  0
 65135  1  0  0  0  0
 66 71  1  0  0  0  0
 66137  1  0  0  0  0
 66138  1  0  0  0  0
 67 72  1  0  0  0  0
 70 74  1  0  0  0  0
 70 76  1  0  0  0  0
 70140  1  0  0  0  0
 71141  1  0  0  0  0
 71142  1  0  0  0  0
 72144  1  0  0  0  0
 72145  1  0  0  0  0
 72146  1  0  0  0  0
 73 75  1  0  0  0  0
 73 77  1  0  0  0  0
 73147  1  0  0  0  0
 75 78  1  0  0  0  0
 75148  1  0  0  0  0
 75149  1  0  0  0  0
 76151  1  0  0  0  0
 76152  1  0  0  0  0
 78 80  2  0  0  0  0
 78 81  1  0  0  0  0
 79 83  1  0  0  0  0
 79 86  1  0  0  0  0
 79155  1  0  0  0  0
 80 84  1  0  0  0  0
 80156  1  0  0  0  0
 81 85  2  0  0  0  0
 81157  1  0  0  0  0
 82159  1  0  0  0  0
 82160  1  0  0  0  0
 82161  1  0  0  0  0
 83162  1  0  0  0  0
 83163  1  0  0  0  0
 84 87  2  0  0  0  0
 84164  1  0  0  0  0
 85 87  1  0  0  0  0
 85165  1  0  0  0  0
M  END
> <PUBCHEM_COMPOUND_CID>
504408
> <PUBCHEM_COMPOUND_CANONICALIZED>
1
> <PUBCHEM_CACTVS_COMPLEXITY>
2460
> <PUBCHEM_CACTVS_HBOND_ACCEPTOR>
21
> <PUBCHEM_CACTVS_HBOND_DONOR>
16
> <PUBCHEM_CACTVS_ROTATABLE_BOND>
38
> <PUBCHEM_CACTVS_SUBSKEYS>
AAADcfB//gBAAAAAAAAAAAAAAAAAAWAAAAAwAAAAAAAAAAABAAAAHgQQCAAADSzl2AayDoPAAgiIAqHSGAACAAAgIBAIiIGOCIgKdj6i0TOUcAAm9hGYmAe836KOIAAAAAAAAABAAAAAAAAAAAAAAAAAAA==
> <PUBCHEM_IUPAC_OPENEYE_NAME>
(4S)-4-acetamido-5-[[(1S)-1-[[(1S)-1-[[(1S)-1-[2-[[(1S)-3-[[2-[[(1S)-1-[[(1S)-2-[[(1S)-2-[[(1S)-2-amino-1-(hydroxymethyl)-2-oxo-ethyl]amino]-1-[(4-hydroxyphenyl)methyl]-2-oxo-ethyl]amino]-1-(hydroxymethyl)-2-oxo-ethyl]carbamoyl]-3-methylsulfanyl-propyl]amino]-2-oxo-ethyl]amino]-1-ethyl-2,3-dioxo-propyl]carbamoyl]pyrrolidine-1-carbonyl]-2-methyl-propyl]carbamoyl]-2-methyl-propyl]carbamoyl]-3-carboxy-propyl]amino]-5-oxo-pentanoic acid
> <PUBCHEM_IUPAC_CAS_NAME>
(4S)-4-acetamido-5-[[(2S)-1-[[(2S)-1-[[(2S)-1-[2-[[[(3S)-1-[[2-[[(2S)-1-[[(2S)-1-[[(2S)-1-[[(2S)-1-amino-3-hydroxy-1-oxopropan-2-yl]amino]-3-(4-hydroxyphenyl)-1-oxopropan-2-yl]amino]-3-hydroxy-1-oxopropan-2-yl]amino]-4-(methylthio)-1-oxobutan-2-yl]amino]-2-oxoethyl]amino]-1,2-dioxopentan-3-yl]amino]-oxomethyl]-1-pyrrolidinyl]-3-methyl-1-oxobutan-2-yl]amino]-3-methyl-1-oxobutan-2-yl]amino]-4-carboxy-1-oxobutan-2-yl]amino]-5-oxopentanoic acid
> <PUBCHEM_IUPAC_NAME_MARKUP>
(4<I>S</I>)-4-acetamido-5-[[(2<I>S</I>)-1-[[(2<I>S</I>)-1-[[(2<I>S</I>)-1-[2-[[(3<I>S</I>)-1-[[2-[[(2<I>S</I>)-1-[[(2<I>S</I>)-1-[[(2<I>S</I>)-1-[[(2<I>S</I>)-1-amino-3-hydroxy-1-oxopropan-2-yl]amino]-3-(4-hydroxyphenyl)-1-oxopropan-2-yl]amino]-3-hydroxy-1-oxopropan-2-yl]amino]-4-methylsulfanyl-1-oxobutan-2-yl]amino]-2-oxoethyl]amino]-1,2-dioxopentan-3-yl]carbamoyl]pyrrolidin-1-yl]-3-methyl-1-oxobutan-2-yl]amino]-3-methyl-1-oxobutan-2-yl]amino]-4-carboxy-1-oxobutan-2-yl]amino]-5-oxopentanoic acid
> <PUBCHEM_IUPAC_NAME>
(4S)-4-acetamido-5-[[(2S)-1-[[(2S)-1-[[(2S)-1-[2-[[(3S)-1-[[2-[[(2S)-1-[[(2S)-1-[[(2S)-1-[[(2S)-1-amino-3-hydroxy-1-oxopropan-2-yl]amino]-3-(4-hydroxyphenyl)-1-oxopropan-2-yl]amino]-3-hydroxy-1-oxopropan-2-yl]amino]-4-methylsulfanyl-1-oxobutan-2-yl]amino]-2-oxoethyl]amino]-1,2-dioxopentan-3-yl]carbamoyl]pyrrolidin-1-yl]-3-methyl-1-oxobutan-2-yl]amino]-3-methyl-1-oxobutan-2-yl]amino]-4-carboxy-1-oxobutan-2-yl]amino]-5-oxopentanoic acid
> <PUBCHEM_IUPAC_SYSTEMATIC_NAME>
(4S)-4-acetamido-5-[[(2S)-1-[[(2S)-1-[[(2S)-1-[2-[[(3S)-1-[[2-[[(2S)-1-[[(2S)-1-[[(2S)-1-[[(2S)-1-azanyl-3-oxidanyl-1-oxidanylidene-propan-2-yl]amino]-3-(4-hydroxyphenyl)-1-oxidanylidene-propan-2-yl]amino]-3-oxidanyl-1-oxidanylidene-propan-2-yl]amino]-4-methylsulfanyl-1-oxidanylidene-butan-2-yl]amino]-2-oxidanylidene-ethyl]amino]-1,2-bis(oxidanylidene)pentan-3-yl]carbamoyl]pyrrolidin-1-yl]-3-methyl-1-oxidanylidene-butan-2-yl]amino]-3-methyl-1-oxidanylidene-butan-2-yl]amino]-5-oxidanyl-1,5-bis(oxidanylidene)pentan-2-yl]amino]-5-oxidanylidene-pentanoic acid
> <PUBCHEM_IUPAC_TRADITIONAL_NAME>
(4S)-4-acetamido-5-[[(1S)-1-[[(1S)-1-[[(1S)-1-[2-[[(1S)-3-[[2-[[(1S)-1-[[(1S)-2-[[(1S)-2-[[(1S)-2-amino-2-keto-1-methylol-ethyl]amino]-1-(4-hydroxybenzyl)-2-keto-ethyl]amino]-2-keto-1-methylol-ethyl]carbamoyl]-3-(methylthio)propyl]amino]-2-keto-ethyl]amino]-1-ethyl-2,3-diketo-propyl]carbamoyl]pyrrolidine-1-carbonyl]-2-methyl-propyl]carbamoyl]-2-methyl-propyl]carbamoyl]-3-carboxy-propyl]amino]-5-keto-valeric acid
> <PUBCHEM_IUPAC_INCHI>
InChI=1S/C54H82N12O20S/c1-8-31(44(76)53(85)56-23-39(71)58-34(19-21-87-7)47(79)63-37(25-68)50(82)61-35(22-29-11-13-30(70)14-12-29)49(81)62-36(24-67)45(55)77)59-51(83)38-10-9-20-66(38)54(86)43(27(4)5)65-52(84)42(26(2)3)64-48(80)33(16-18-41(74)75)60-46(78)32(57-28(6)69)15-17-40(72)73/h11-14,26-27,31-38,42-43,67-68,70H,8-10,15-25H2,1-7H3,(H2,55,77)(H,56,85)(H,57,69)(H,58,71)(H,59,83)(H,60,78)(H,61,82)(H,62,81)(H,63,79)(H,64,80)(H,65,84)(H,72,73)(H,74,75)/t31-,32-,33-,34-,35-,36-,37-,38?,42-,43-/m0/s1
> <PUBCHEM_IUPAC_INCHIKEY>
SVXKERCPMLWLCR-OZUBOMRUSA-N
> <PUBCHEM_XLOGP3_AA>
-2.7
> <PUBCHEM_EXACT_MASS>
1250.54890423
> <PUBCHEM_MOLECULAR_FORMULA>
C54H82N12O20S
> <PUBCHEM_MOLECULAR_WEIGHT>
1251.4
> <PUBCHEM_OPENEYE_CAN_SMILES>
CCC(C(=O)C(=O)NCC(=O)NC(CCSC)C(=O)NC(CO)C(=O)NC(CC1=CC=C(C=C1)O)C(=O)NC(CO)C(=O)N)NC(=O)C2CCCN2C(=O)C(C(C)C)NC(=O)C(C(C)C)NC(=O)C(CCC(=O)O)NC(=O)C(CCC(=O)O)NC(=O)C
> <PUBCHEM_OPENEYE_ISO_SMILES>
CC[C@@H](C(=O)C(=O)NCC(=O)N[C@@H](CCSC)C(=O)N[C@@H](CO)C(=O)N[C@@H](CC1=CC=C(C=C1)O)C(=O)N[C@@H](CO)C(=O)N)NC(=O)C2CCCN2C(=O)[C@H](C(C)C)NC(=O)[C@H](C(C)C)NC(=O)[C@H](CCC(=O)O)NC(=O)[C@H](CCC(=O)O)NC(=O)C
> <PUBCHEM_CACTVS_TPSA>
532
> <PUBCHEM_MONOISOTOPIC_WEIGHT>
1250.54890423
> <PUBCHEM_TOTAL_CHARGE>
0
> <PUBCHEM_HEAVY_ATOM_COUNT>
87
> <PUBCHEM_ATOM_DEF_STEREO_COUNT>
9
> <PUBCHEM_ATOM_UDEF_STEREO_COUNT>
1
> <PUBCHEM_BOND_DEF_STEREO_COUNT>
0
> <PUBCHEM_BOND_UDEF_STEREO_COUNT>
0
> <PUBCHEM_ISOTOPIC_ATOM_COUNT>
0
> <PUBCHEM_COMPONENT_COUNT>
1
> <PUBCHEM_CACTVS_TAUTO_COUNT>
-1
> <PUBCHEM_COORDINATE_TYPE>
1
5
255
> <PUBCHEM_BONDANNOTATIONS>
38  23  6
44  24  5
45  25  5
54  26  6
59  28  5
65  29  6
70  30  5
73  31  6
79  32  6
34  40  3
78  80  8
78  81  8
80  84  8
81  85  8
84  87  8
85  87  8
$$$$
