504425
  -OEChem-10302200282D
 69 74  0     1  0  0  0  0  0999 V2000
   12.1292    1.1682    0.0000 F   0  0  0  0  0  0  0  0  0  0  0  0
    8.6651    3.2299    0.0000 F   0  0  0  0  0  0  0  0  0  0  0  0
    3.4030    0.2058    0.0000 F   0  0  0  0  0  0  0  0  0  0  0  0
    5.1350   -2.7942    0.0000 F   0  0  0  0  0  0  0  0  0  0  0  0
   14.9277   -3.0450    0.0000 O   0  0  0  0  0  0  0  0  0  0  0  0
   16.8362   -1.1682    0.0000 O   0  0  0  0  0  0  0  0  0  0  0  0
   13.2047   -3.4996    0.0000 O   0  0  0  0  0  0  0  0  0  0  0  0
    5.1350    4.2058    0.0000 O   0  0  0  0  0  0  0  0  0  0  0  0
    2.5369    2.7058    0.0000 O   0  0  0  0  0  0  0  0  0  0  0  0
    3.4030    4.2058    0.0000 O   0  0  0  0  0  0  0  0  0  0  0  0
   10.3933    0.1749    0.0000 N   0  0  0  0  0  0  0  0  0  0  0  0
    8.6651    1.1816    0.0000 N   0  0  0  0  0  0  0  0  0  0  0  0
   13.8497   -1.8384    0.0000 N   0  0  0  0  0  0  0  0  0  0  0  0
    6.8950    1.1711    0.0000 N   0  0  0  0  0  0  0  0  0  0  0  0
    5.1350    1.2058    0.0000 N   0  0  0  0  0  0  0  0  0  0  0  0
    9.5254   -0.3217    0.0000 C   0  0  0  0  0  0  0  0  0  0  0  0
   10.3972    1.1749    0.0000 C   0  0  0  0  0  0  0  0  0  0  0  0
    8.6613    0.1816    0.0000 C   0  0  0  0  0  0  0  0  0  0  0  0
    9.5331    1.6783    0.0000 C   0  0  0  0  0  0  0  0  0  0  0  0
   11.2574   -0.3284    0.0000 C   0  0  0  0  0  0  0  0  0  0  0  0
    7.8010    1.6849    0.0000 C   0  0  0  0  0  0  0  0  0  0  0  0
   14.7648   -1.4352    0.0000 C   0  0  0  0  0  0  0  0  0  0  0  0
   15.4311   -2.1809    0.0000 C   0  0  2  0  0  0  0  0  0  0  0  0
   12.9856   -1.3351    0.0000 C   0  0  0  0  0  0  0  0  0  0  0  0
   12.1254    0.1683    0.0000 C   0  0  0  0  0  0  0  0  0  0  0  0
   11.2536   -1.3284    0.0000 C   0  0  0  0  0  0  0  0  0  0  0  0
   12.9895   -0.3351    0.0000 C   0  0  0  0  0  0  0  0  0  0  0  0
   12.1177   -1.8317    0.0000 C   0  0  0  0  0  0  0  0  0  0  0  0
    7.8010    2.7266    0.0000 C   0  0  0  0  0  0  0  0  0  0  0  0
    6.0010    1.7058    0.0000 C   0  0  0  0  0  0  0  0  0  0  0  0
   13.9504   -2.8333    0.0000 C   0  0  0  0  0  0  0  0  0  0  0  0
   16.4260   -2.0802    0.0000 C   0  0  3  0  0  0  0  0  0  0  0  0
    6.0010    2.7058    0.0000 C   0  0  0  0  0  0  0  0  0  0  0  0
    6.8950    3.2404    0.0000 C   0  0  0  0  0  0  0  0  0  0  0  0
    5.1350    3.2058    0.0000 C   0  0  0  0  0  0  0  0  0  0  0  0
    4.2690    1.7058    0.0000 C   0  0  0  0  0  0  0  0  0  0  0  0
    4.2690    2.7058    0.0000 C   0  0  0  0  0  0  0  0  0  0  0  0
    5.1350    0.2058    0.0000 C   0  0  0  0  0  0  0  0  0  0  0  0
   17.0106   -2.8915    0.0000 C   0  0  0  0  0  0  0  0  0  0  0  0
    4.2690   -0.2942    0.0000 C   0  0  0  0  0  0  0  0  0  0  0  0
    6.0010   -0.2942    0.0000 C   0  0  0  0  0  0  0  0  0  0  0  0
    3.4030    3.2058    0.0000 C   0  0  0  0  0  0  0  0  0  0  0  0
    4.2690   -1.2942    0.0000 C   0  0  0  0  0  0  0  0  0  0  0  0
    6.0010   -1.2942    0.0000 C   0  0  0  0  0  0  0  0  0  0  0  0
    5.1350   -1.7942    0.0000 C   0  0  0  0  0  0  0  0  0  0  0  0
   17.5953   -3.7028    0.0000 C   0  0  0  0  0  0  0  0  0  0  0  0
    9.1250   -0.7951    0.0000 H   0  0  0  0  0  0  0  0  0  0  0  0
    9.9221   -0.7982    0.0000 H   0  0  0  0  0  0  0  0  0  0  0  0
   11.0073    1.0649    0.0000 H   0  0  0  0  0  0  0  0  0  0  0  0
   10.6115    1.7567    0.0000 H   0  0  0  0  0  0  0  0  0  0  0  0
    8.0511    0.2916    0.0000 H   0  0  0  0  0  0  0  0  0  0  0  0
    8.4470   -0.4002    0.0000 H   0  0  0  0  0  0  0  0  0  0  0  0
    9.9334    2.1517    0.0000 H   0  0  0  0  0  0  0  0  0  0  0  0
    9.1364    2.1547    0.0000 H   0  0  0  0  0  0  0  0  0  0  0  0
   15.2678   -1.0727    0.0000 H   0  0  0  0  0  0  0  0  0  0  0  0
   14.4569   -0.8971    0.0000 H   0  0  0  0  0  0  0  0  0  0  0  0
   15.7667   -2.7022    0.0000 H   0  0  0  0  0  0  0  0  0  0  0  0
   10.7154   -1.6363    0.0000 H   0  0  0  0  0  0  0  0  0  0  0  0
   13.5276   -0.0271    0.0000 H   0  0  0  0  0  0  0  0  0  0  0  0
   12.1153   -2.4517    0.0000 H   0  0  0  0  0  0  0  0  0  0  0  0
   17.0428   -2.0178    0.0000 H   0  0  0  0  0  0  0  0  0  0  0  0
    6.8878    3.8604    0.0000 H   0  0  0  0  0  0  0  0  0  0  0  0
    3.7320    1.3958    0.0000 H   0  0  0  0  0  0  0  0  0  0  0  0
   17.4531   -1.1058    0.0000 H   0  0  0  0  0  0  0  0  0  0  0  0
    6.5380    0.0158    0.0000 H   0  0  0  0  0  0  0  0  0  0  0  0
    3.7320   -1.6042    0.0000 H   0  0  0  0  0  0  0  0  0  0  0  0
    6.5380   -1.6042    0.0000 H   0  0  0  0  0  0  0  0  0  0  0  0
   17.9578   -4.2058    0.0000 H   0  0  0  0  0  0  0  0  0  0  0  0
    2.0000    3.0158    0.0000 H   0  0  0  0  0  0  0  0  0  0  0  0
  1 25  1  0  0  0  0
  2 29  1  0  0  0  0
  3 40  1  0  0  0  0
  4 45  1  0  0  0  0
  5 23  1  0  0  0  0
  5 31  1  0  0  0  0
  6 32  1  0  0  0  0
  6 64  1  0  0  0  0
  7 31  2  0  0  0  0
  8 35  2  0  0  0  0
  9 42  1  0  0  0  0
  9 69  1  0  0  0  0
 10 42  2  0  0  0  0
 11 16  1  0  0  0  0
 11 17  1  0  0  0  0
 11 20  1  0  0  0  0
 12 18  1  0  0  0  0
 12 19  1  0  0  0  0
 12 21  1  0  0  0  0
 13 22  1  0  0  0  0
 13 24  1  0  0  0  0
 13 31  1  0  0  0  0
 14 21  1  0  0  0  0
 14 30  2  0  0  0  0
 15 30  1  0  0  0  0
 15 36  1  0  0  0  0
 15 38  1  0  0  0  0
 16 18  1  0  0  0  0
 16 47  1  0  0  0  0
 16 48  1  0  0  0  0
 17 19  1  0  0  0  0
 17 49  1  0  0  0  0
 17 50  1  0  0  0  0
 18 51  1  0  0  0  0
 18 52  1  0  0  0  0
 19 53  1  0  0  0  0
 19 54  1  0  0  0  0
 20 25  2  0  0  0  0
 20 26  1  0  0  0  0
 21 29  2  0  0  0  0
 22 23  1  0  0  0  0
 22 55  1  0  0  0  0
 22 56  1  0  0  0  0
 23 32  1  6  0  0  0
 23 57  1  0  0  0  0
 24 27  2  0  0  0  0
 24 28  1  0  0  0  0
 25 27  1  0  0  0  0
 26 28  2  0  0  0  0
 26 58  1  0  0  0  0
 27 59  1  0  0  0  0
 28 60  1  0  0  0  0
 29 34  1  0  0  0  0
 30 33  1  0  0  0  0
 32 39  1  0  0  0  0
 32 61  1  0  0  0  0
 33 34  2  0  0  0  0
 33 35  1  0  0  0  0
 34 62  1  0  0  0  0
 35 37  1  0  0  0  0
 36 37  2  0  0  0  0
 36 63  1  0  0  0  0
 37 42  1  0  0  0  0
 38 40  2  0  0  0  0
 38 41  1  0  0  0  0
 39 46  3  0  0  0  0
 40 43  1  0  0  0  0
 41 44  2  0  0  0  0
 41 65  1  0  0  0  0
 43 45  2  0  0  0  0
 43 66  1  0  0  0  0
 44 45  1  0  0  0  0
 44 67  1  0  0  0  0
 46 68  1  0  0  0  0
M  END
> <PUBCHEM_COMPOUND_CID>
504425
> <PUBCHEM_COMPOUND_CANONICALIZED>
1
> <PUBCHEM_CACTVS_COMPLEXITY>
1270
> <PUBCHEM_CACTVS_HBOND_ACCEPTOR>
14
> <PUBCHEM_CACTVS_HBOND_DONOR>
2
> <PUBCHEM_CACTVS_ROTATABLE_BOND>
6
> <PUBCHEM_CACTVS_SUBSKEYS>
AAADceB7ucAAAAAAAAAAAAAAAAAAAWAAAAA8eIECAAAAAACB0AAAHwAACAAADBzhmg4x+JMIFgDoGqb2fAiCgCklAiAJmCEoZNiLdP7InZGdYYhupgLb2eeY2SKOAACAAAAAAAAAAQAAAAAAAAAAAAAAAA==
> <PUBCHEM_IUPAC_OPENEYE_NAME>
1-(2,4-difluorophenyl)-6-fluoro-7-[4-[2-fluoro-4-[(5R)-5-(1-hydroxyprop-2-ynyl)-2-oxo-oxazolidin-3-yl]phenyl]piperazin-1-yl]-4-oxo-1,8-naphthyridine-3-carboxylic acid
> <PUBCHEM_IUPAC_CAS_NAME>
1-(2,4-difluorophenyl)-6-fluoro-7-[4-[2-fluoro-4-[(5R)-5-(1-hydroxyprop-2-ynyl)-2-oxo-3-oxazolidinyl]phenyl]-1-piperazinyl]-4-oxo-1,8-naphthyridine-3-carboxylic acid
> <PUBCHEM_IUPAC_NAME_MARKUP>
1-(2,4-difluorophenyl)-6-fluoro-7-[4-[2-fluoro-4-[(5<I>R</I>)-5-(1-hydroxyprop-2-ynyl)-2-oxo-1,3-oxazolidin-3-yl]phenyl]piperazin-1-yl]-4-oxo-1,8-naphthyridine-3-carboxylic acid
> <PUBCHEM_IUPAC_NAME>
1-(2,4-difluorophenyl)-6-fluoro-7-[4-[2-fluoro-4-[(5R)-5-(1-hydroxyprop-2-ynyl)-2-oxo-1,3-oxazolidin-3-yl]phenyl]piperazin-1-yl]-4-oxo-1,8-naphthyridine-3-carboxylic acid
> <PUBCHEM_IUPAC_SYSTEMATIC_NAME>
1-[2,4-bis(fluoranyl)phenyl]-6-fluoranyl-7-[4-[2-fluoranyl-4-[(5R)-2-oxidanylidene-5-(1-oxidanylprop-2-ynyl)-1,3-oxazolidin-3-yl]phenyl]piperazin-1-yl]-4-oxidanylidene-1,8-naphthyridine-3-carboxylic acid
> <PUBCHEM_IUPAC_TRADITIONAL_NAME>
1-(2,4-difluorophenyl)-6-fluoro-7-[4-[2-fluoro-4-[(5R)-5-(1-hydroxyprop-2-ynyl)-2-keto-oxazolidin-3-yl]phenyl]piperazino]-4-keto-1,8-naphthyridine-3-carboxylic acid
> <PUBCHEM_IUPAC_INCHI>
InChI=1S/C31H23F4N5O6/c1-2-25(41)26-15-39(31(45)46-26)17-4-6-23(21(34)12-17)37-7-9-38(10-8-37)29-22(35)13-18-27(42)19(30(43)44)14-40(28(18)36-29)24-5-3-16(32)11-20(24)33/h1,3-6,11-14,25-26,41H,7-10,15H2,(H,43,44)/t25?,26-/m1/s1
> <PUBCHEM_IUPAC_INCHIKEY>
LKWOWBLSVQBJOD-FXDYGKIASA-N
> <PUBCHEM_XLOGP3>
4.2
> <PUBCHEM_EXACT_MASS>
637.15844612
> <PUBCHEM_MOLECULAR_FORMULA>
C31H23F4N5O6
> <PUBCHEM_MOLECULAR_WEIGHT>
637.5
> <PUBCHEM_OPENEYE_CAN_SMILES>
C#CC(C1CN(C(=O)O1)C2=CC(=C(C=C2)N3CCN(CC3)C4=C(C=C5C(=O)C(=CN(C5=N4)C6=C(C=C(C=C6)F)F)C(=O)O)F)F)O
> <PUBCHEM_OPENEYE_ISO_SMILES>
C#CC([C@H]1CN(C(=O)O1)C2=CC(=C(C=C2)N3CCN(CC3)C4=C(C=C5C(=O)C(=CN(C5=N4)C6=C(C=C(C=C6)F)F)C(=O)O)F)F)O
> <PUBCHEM_CACTVS_TPSA>
127
> <PUBCHEM_MONOISOTOPIC_WEIGHT>
637.15844612
> <PUBCHEM_TOTAL_CHARGE>
0
> <PUBCHEM_HEAVY_ATOM_COUNT>
46
> <PUBCHEM_ATOM_DEF_STEREO_COUNT>
1
> <PUBCHEM_ATOM_UDEF_STEREO_COUNT>
1
> <PUBCHEM_BOND_DEF_STEREO_COUNT>
0
> <PUBCHEM_BOND_UDEF_STEREO_COUNT>
0
> <PUBCHEM_ISOTOPIC_ATOM_COUNT>
0
> <PUBCHEM_COMPONENT_COUNT>
1
> <PUBCHEM_CACTVS_TAUTO_COUNT>
-1
> <PUBCHEM_COORDINATE_TYPE>
1
5
255
> <PUBCHEM_BONDANNOTATIONS>
14  21  8
14  30  8
15  30  8
15  36  8
20  25  8
20  26  8
21  29  8
23  32  6
24  27  8
24  28  8
25  27  8
26  28  8
29  34  8
30  33  8
33  34  8
33  35  8
35  37  8
36  37  8
38  40  8
38  41  8
40  43  8
41  44  8
43  45  8
44  45  8
32  6  3
$$$$
