504426
  -OEChem-10302200282D
 73 78  0     1  0  0  0  0  0999 V2000
   10.3856   -2.1269    0.0000 F   0  0  0  0  0  0  0  0  0  0  0  0
    8.6651    2.9281    0.0000 F   0  0  0  0  0  0  0  0  0  0  0  0
    3.4030   -0.0961    0.0000 F   0  0  0  0  0  0  0  0  0  0  0  0
    5.1350   -3.0961    0.0000 F   0  0  0  0  0  0  0  0  0  0  0  0
   14.9277   -3.3468    0.0000 O   0  0  0  0  0  0  0  0  0  0  0  0
   13.2047   -3.8014    0.0000 O   0  0  0  0  0  0  0  0  0  0  0  0
    5.1350    3.9039    0.0000 O   0  0  0  0  0  0  0  0  0  0  0  0
   18.4158   -2.1807    0.0000 O   0  0  0  0  0  0  0  0  0  0  0  0
    2.5369    2.4039    0.0000 O   0  0  0  0  0  0  0  0  0  0  0  0
    3.4030    3.9039    0.0000 O   0  0  0  0  0  0  0  0  0  0  0  0
   10.3933   -0.1269    0.0000 N   0  0  0  0  0  0  0  0  0  0  0  0
    8.6651    0.8798    0.0000 N   0  0  0  0  0  0  0  0  0  0  0  0
   13.8497   -2.1402    0.0000 N   0  0  0  0  0  0  0  0  0  0  0  0
    6.8950    0.8693    0.0000 N   0  0  0  0  0  0  0  0  0  0  0  0
    5.1350    0.9039    0.0000 N   0  0  0  0  0  0  0  0  0  0  0  0
   17.0106   -3.1933    0.0000 N   0  0  0  0  0  0  0  0  0  0  0  0
   10.3972    0.8731    0.0000 C   0  0  0  0  0  0  0  0  0  0  0  0
    9.5254   -0.6236    0.0000 C   0  0  0  0  0  0  0  0  0  0  0  0
    9.5331    1.3764    0.0000 C   0  0  0  0  0  0  0  0  0  0  0  0
    8.6613   -0.1202    0.0000 C   0  0  0  0  0  0  0  0  0  0  0  0
   11.2574   -0.6302    0.0000 C   0  0  0  0  0  0  0  0  0  0  0  0
    7.8010    1.3831    0.0000 C   0  0  0  0  0  0  0  0  0  0  0  0
   15.4311   -2.4827    0.0000 C   0  0  2  0  0  0  0  0  0  0  0  0
   14.7648   -1.7370    0.0000 C   0  0  0  0  0  0  0  0  0  0  0  0
   12.9856   -1.6369    0.0000 C   0  0  0  0  0  0  0  0  0  0  0  0
   11.2536   -1.6302    0.0000 C   0  0  0  0  0  0  0  0  0  0  0  0
   12.1254   -0.1336    0.0000 C   0  0  0  0  0  0  0  0  0  0  0  0
   12.1177   -2.1336    0.0000 C   0  0  0  0  0  0  0  0  0  0  0  0
   12.9895   -0.6369    0.0000 C   0  0  0  0  0  0  0  0  0  0  0  0
   16.4260   -2.3820    0.0000 C   0  0  0  0  0  0  0  0  0  0  0  0
    7.8010    2.4247    0.0000 C   0  0  0  0  0  0  0  0  0  0  0  0
   13.9504   -3.1352    0.0000 C   0  0  0  0  0  0  0  0  0  0  0  0
    6.0010    1.4039    0.0000 C   0  0  0  0  0  0  0  0  0  0  0  0
    6.0010    2.4039    0.0000 C   0  0  0  0  0  0  0  0  0  0  0  0
    6.8950    2.9386    0.0000 C   0  0  0  0  0  0  0  0  0  0  0  0
    5.1350    2.9039    0.0000 C   0  0  0  0  0  0  0  0  0  0  0  0
    4.2690    1.4039    0.0000 C   0  0  0  0  0  0  0  0  0  0  0  0
    4.2690    2.4039    0.0000 C   0  0  0  0  0  0  0  0  0  0  0  0
    5.1350   -0.0961    0.0000 C   0  0  0  0  0  0  0  0  0  0  0  0
   18.0056   -3.0926    0.0000 C   0  0  0  0  0  0  0  0  0  0  0  0
    4.2690   -0.5961    0.0000 C   0  0  0  0  0  0  0  0  0  0  0  0
    6.0010   -0.5961    0.0000 C   0  0  0  0  0  0  0  0  0  0  0  0
    3.4030    2.9039    0.0000 C   0  0  0  0  0  0  0  0  0  0  0  0
   18.5902   -3.9039    0.0000 C   0  0  0  0  0  0  0  0  0  0  0  0
    4.2690   -1.5961    0.0000 C   0  0  0  0  0  0  0  0  0  0  0  0
    6.0010   -1.5961    0.0000 C   0  0  0  0  0  0  0  0  0  0  0  0
    5.1350   -2.0961    0.0000 C   0  0  0  0  0  0  0  0  0  0  0  0
   11.0073    0.7631    0.0000 H   0  0  0  0  0  0  0  0  0  0  0  0
   10.6115    1.4549    0.0000 H   0  0  0  0  0  0  0  0  0  0  0  0
    9.1250   -1.0970    0.0000 H   0  0  0  0  0  0  0  0  0  0  0  0
    9.9221   -1.1000    0.0000 H   0  0  0  0  0  0  0  0  0  0  0  0
    9.9334    1.8498    0.0000 H   0  0  0  0  0  0  0  0  0  0  0  0
    9.1364    1.8529    0.0000 H   0  0  0  0  0  0  0  0  0  0  0  0
    8.0511   -0.0102    0.0000 H   0  0  0  0  0  0  0  0  0  0  0  0
    8.4470   -0.7020    0.0000 H   0  0  0  0  0  0  0  0  0  0  0  0
   15.7667   -3.0040    0.0000 H   0  0  0  0  0  0  0  0  0  0  0  0
   15.2678   -1.3745    0.0000 H   0  0  0  0  0  0  0  0  0  0  0  0
   14.4569   -1.1989    0.0000 H   0  0  0  0  0  0  0  0  0  0  0  0
   12.1277    0.4864    0.0000 H   0  0  0  0  0  0  0  0  0  0  0  0
   12.1153   -2.7536    0.0000 H   0  0  0  0  0  0  0  0  0  0  0  0
   13.5276   -0.3290    0.0000 H   0  0  0  0  0  0  0  0  0  0  0  0
   16.9843   -2.1124    0.0000 H   0  0  0  0  0  0  0  0  0  0  0  0
   16.2574   -1.7854    0.0000 H   0  0  0  0  0  0  0  0  0  0  0  0
    6.8878    3.5585    0.0000 H   0  0  0  0  0  0  0  0  0  0  0  0
   16.7563   -3.7588    0.0000 H   0  0  0  0  0  0  0  0  0  0  0  0
    3.7320    1.0939    0.0000 H   0  0  0  0  0  0  0  0  0  0  0  0
    6.5380   -0.2861    0.0000 H   0  0  0  0  0  0  0  0  0  0  0  0
   18.0872   -4.2664    0.0000 H   0  0  0  0  0  0  0  0  0  0  0  0
   18.9527   -4.4069    0.0000 H   0  0  0  0  0  0  0  0  0  0  0  0
   19.0932   -3.5414    0.0000 H   0  0  0  0  0  0  0  0  0  0  0  0
    3.7320   -1.9061    0.0000 H   0  0  0  0  0  0  0  0  0  0  0  0
    6.5380   -1.9061    0.0000 H   0  0  0  0  0  0  0  0  0  0  0  0
    2.0000    2.7139    0.0000 H   0  0  0  0  0  0  0  0  0  0  0  0
  1 26  1  0  0  0  0
  2 31  1  0  0  0  0
  3 41  1  0  0  0  0
  4 47  1  0  0  0  0
  5 23  1  0  0  0  0
  5 32  1  0  0  0  0
  6 32  2  0  0  0  0
  7 36  2  0  0  0  0
  8 40  2  0  0  0  0
  9 43  1  0  0  0  0
  9 73  1  0  0  0  0
 10 43  2  0  0  0  0
 11 17  1  0  0  0  0
 11 18  1  0  0  0  0
 11 21  1  0  0  0  0
 12 19  1  0  0  0  0
 12 20  1  0  0  0  0
 12 22  1  0  0  0  0
 13 24  1  0  0  0  0
 13 25  1  0  0  0  0
 13 32  1  0  0  0  0
 14 22  1  0  0  0  0
 14 33  2  0  0  0  0
 15 33  1  0  0  0  0
 15 37  1  0  0  0  0
 15 39  1  0  0  0  0
 16 30  1  0  0  0  0
 16 40  1  0  0  0  0
 16 65  1  0  0  0  0
 17 19  1  0  0  0  0
 17 48  1  0  0  0  0
 17 49  1  0  0  0  0
 18 20  1  0  0  0  0
 18 50  1  0  0  0  0
 18 51  1  0  0  0  0
 19 52  1  0  0  0  0
 19 53  1  0  0  0  0
 20 54  1  0  0  0  0
 20 55  1  0  0  0  0
 21 26  2  0  0  0  0
 21 27  1  0  0  0  0
 22 31  2  0  0  0  0
 23 24  1  0  0  0  0
 23 30  1  6  0  0  0
 23 56  1  0  0  0  0
 24 57  1  0  0  0  0
 24 58  1  0  0  0  0
 25 28  2  0  0  0  0
 25 29  1  0  0  0  0
 26 28  1  0  0  0  0
 27 29  2  0  0  0  0
 27 59  1  0  0  0  0
 28 60  1  0  0  0  0
 29 61  1  0  0  0  0
 30 62  1  0  0  0  0
 30 63  1  0  0  0  0
 31 35  1  0  0  0  0
 33 34  1  0  0  0  0
 34 35  2  0  0  0  0
 34 36  1  0  0  0  0
 35 64  1  0  0  0  0
 36 38  1  0  0  0  0
 37 38  2  0  0  0  0
 37 66  1  0  0  0  0
 38 43  1  0  0  0  0
 39 41  2  0  0  0  0
 39 42  1  0  0  0  0
 40 44  1  0  0  0  0
 41 45  1  0  0  0  0
 42 46  2  0  0  0  0
 42 67  1  0  0  0  0
 44 68  1  0  0  0  0
 44 69  1  0  0  0  0
 44 70  1  0  0  0  0
 45 47  2  0  0  0  0
 45 71  1  0  0  0  0
 46 47  1  0  0  0  0
 46 72  1  0  0  0  0
M  END
> <PUBCHEM_COMPOUND_CID>
504426
> <PUBCHEM_COMPOUND_CANONICALIZED>
1
> <PUBCHEM_CACTVS_COMPLEXITY>
1250
> <PUBCHEM_CACTVS_HBOND_ACCEPTOR>
14
> <PUBCHEM_CACTVS_HBOND_DONOR>
2
> <PUBCHEM_CACTVS_ROTATABLE_BOND>
7
> <PUBCHEM_CACTVS_SUBSKEYS>
AAADceB7ucAAAAAAAAAAAAAAAAAAAWAAAAA8eIECAAAAAACB0AAAHwAQCAAADBzhmg4z+JPIFgCoAqf2fACCgCklAiAJmKEoZNiKZP7I3ZGdYYhstgLY2eeY2SKOAACAAAAAAAAAAQAAAAAAAAAAAAAAAA==
> <PUBCHEM_IUPAC_OPENEYE_NAME>
7-[4-[4-[(5S)-5-(acetamidomethyl)-2-oxo-oxazolidin-3-yl]-2-fluoro-phenyl]piperazin-1-yl]-1-(2,4-difluorophenyl)-6-fluoro-4-oxo-1,8-naphthyridine-3-carboxylic acid
> <PUBCHEM_IUPAC_CAS_NAME>
7-[4-[4-[(5S)-5-(acetamidomethyl)-2-oxo-3-oxazolidinyl]-2-fluorophenyl]-1-piperazinyl]-1-(2,4-difluorophenyl)-6-fluoro-4-oxo-1,8-naphthyridine-3-carboxylic acid
> <PUBCHEM_IUPAC_NAME_MARKUP>
7-[4-[4-[(5<I>S</I>)-5-(acetamidomethyl)-2-oxo-1,3-oxazolidin-3-yl]-2-fluorophenyl]piperazin-1-yl]-1-(2,4-difluorophenyl)-6-fluoro-4-oxo-1,8-naphthyridine-3-carboxylic acid
> <PUBCHEM_IUPAC_NAME>
7-[4-[4-[(5S)-5-(acetamidomethyl)-2-oxo-1,3-oxazolidin-3-yl]-2-fluorophenyl]piperazin-1-yl]-1-(2,4-difluorophenyl)-6-fluoro-4-oxo-1,8-naphthyridine-3-carboxylic acid
> <PUBCHEM_IUPAC_SYSTEMATIC_NAME>
7-[4-[4-[(5S)-5-(acetamidomethyl)-2-oxidanylidene-1,3-oxazolidin-3-yl]-2-fluoranyl-phenyl]piperazin-1-yl]-1-[2,4-bis(fluoranyl)phenyl]-6-fluoranyl-4-oxidanylidene-1,8-naphthyridine-3-carboxylic acid
> <PUBCHEM_IUPAC_TRADITIONAL_NAME>
7-[4-[4-[(5S)-5-(acetamidomethyl)-2-keto-oxazolidin-3-yl]-2-fluoro-phenyl]piperazino]-1-(2,4-difluorophenyl)-6-fluoro-4-keto-1,8-naphthyridine-3-carboxylic acid
> <PUBCHEM_IUPAC_INCHI>
InChI=1S/C31H26F4N6O6/c1-16(42)36-13-19-14-40(31(46)47-19)18-3-5-25(23(34)11-18)38-6-8-39(9-7-38)29-24(35)12-20-27(43)21(30(44)45)15-41(28(20)37-29)26-4-2-17(32)10-22(26)33/h2-5,10-12,15,19H,6-9,13-14H2,1H3,(H,36,42)(H,44,45)/t19-/m0/s1
> <PUBCHEM_IUPAC_INCHIKEY>
ZLHMOHCATOASEB-IBGZPJMESA-N
> <PUBCHEM_XLOGP3>
4
> <PUBCHEM_EXACT_MASS>
654.18499522
> <PUBCHEM_MOLECULAR_FORMULA>
C31H26F4N6O6
> <PUBCHEM_MOLECULAR_WEIGHT>
654.6
> <PUBCHEM_OPENEYE_CAN_SMILES>
CC(=O)NCC1CN(C(=O)O1)C2=CC(=C(C=C2)N3CCN(CC3)C4=C(C=C5C(=O)C(=CN(C5=N4)C6=C(C=C(C=C6)F)F)C(=O)O)F)F
> <PUBCHEM_OPENEYE_ISO_SMILES>
CC(=O)NC[C@H]1CN(C(=O)O1)C2=CC(=C(C=C2)N3CCN(CC3)C4=C(C=C5C(=O)C(=CN(C5=N4)C6=C(C=C(C=C6)F)F)C(=O)O)F)F
> <PUBCHEM_CACTVS_TPSA>
136
> <PUBCHEM_MONOISOTOPIC_WEIGHT>
654.18499522
> <PUBCHEM_TOTAL_CHARGE>
0
> <PUBCHEM_HEAVY_ATOM_COUNT>
47
> <PUBCHEM_ATOM_DEF_STEREO_COUNT>
1
> <PUBCHEM_ATOM_UDEF_STEREO_COUNT>
0
> <PUBCHEM_BOND_DEF_STEREO_COUNT>
0
> <PUBCHEM_BOND_UDEF_STEREO_COUNT>
0
> <PUBCHEM_ISOTOPIC_ATOM_COUNT>
0
> <PUBCHEM_COMPONENT_COUNT>
1
> <PUBCHEM_CACTVS_TAUTO_COUNT>
-1
> <PUBCHEM_COORDINATE_TYPE>
1
5
255
> <PUBCHEM_BONDANNOTATIONS>
14  22  8
14  33  8
15  33  8
15  37  8
21  26  8
21  27  8
22  31  8
23  30  6
25  28  8
25  29  8
26  28  8
27  29  8
31  35  8
33  34  8
34  35  8
34  36  8
36  38  8
37  38  8
39  41  8
39  42  8
41  45  8
42  46  8
45  47  8
46  47  8
$$$$
