504495
  -OEChem-10302200282D
 53 55  0     1  0  0  0  0  0999 V2000
    2.0000   -1.6378    0.0000 O   0  0  0  0  0  0  0  0  0  0  0  0
    5.0424    0.7614    0.0000 N   0  0  3  0  0  0  0  0  0  0  0  0
    3.6414   -0.9953    0.0000 N   0  0  0  0  0  0  0  0  0  0  0  0
    3.4701   -2.6104    0.0000 N   0  0  0  0  0  0  0  0  0  0  0  0
    6.4735    1.7371    0.0000 C   0  0  0  0  0  0  0  0  0  0  0  0
    5.4763    1.6624    0.0000 C   0  0  0  0  0  0  0  0  0  0  0  0
    4.0424    0.7614    0.0000 C   0  0  2  0  0  0  0  0  0  0  0  0
    5.6659   -0.0204    0.0000 C   0  0  0  0  0  0  0  0  0  0  0  0
    3.4189   -0.0204    0.0000 C   0  0  0  0  0  0  0  0  0  0  0  0
    7.4707    1.8118    0.0000 C   0  0  0  0  0  0  0  0  0  0  0  0
    6.3988    2.7343    0.0000 C   0  0  0  0  0  0  0  0  0  0  0  0
    5.4434   -0.9953    0.0000 C   0  0  0  0  0  0  0  0  0  0  0  0
    4.5424   -1.4292    0.0000 C   0  0  0  0  0  0  0  0  0  0  0  0
    3.6085    1.6624    0.0000 C   0  0  0  0  0  0  0  0  0  0  0  0
    6.5482    0.7399    0.0000 C   0  0  0  0  0  0  0  0  0  0  0  0
    4.4485   -2.4666    0.0000 C   0  0  0  0  0  0  0  0  0  0  0  0
    2.9944   -1.7433    0.0000 C   0  0  0  0  0  0  0  0  0  0  0  0
    6.3129   -1.5688    0.0000 C   0  0  0  0  0  0  0  0  0  0  0  0
    7.9046    2.7128    0.0000 C   0  0  0  0  0  0  0  0  0  0  0  0
    5.4978    3.1682    0.0000 C   0  0  0  0  0  0  0  0  0  0  0  0
    5.3046   -3.0600    0.0000 C   0  0  0  0  0  0  0  0  0  0  0  0
    6.2431   -2.6081    0.0000 C   0  0  0  0  0  0  0  0  0  0  0  0
    7.4492    0.3060    0.0000 C   0  0  0  0  0  0  0  0  0  0  0  0
    7.0715   -3.1682    0.0000 C   0  0  0  0  0  0  0  0  0  0  0  0
    5.5380    2.2793    0.0000 H   0  0  0  0  0  0  0  0  0  0  0  0
    4.8794    1.8303    0.0000 H   0  0  0  0  0  0  0  0  0  0  0  0
    4.3722    1.2864    0.0000 H   0  0  0  0  0  0  0  0  0  0  0  0
    6.2245   -0.2894    0.0000 H   0  0  0  0  0  0  0  0  0  0  0  0
    6.0524    0.4643    0.0000 H   0  0  0  0  0  0  0  0  0  0  0  0
    3.0323    0.4643    0.0000 H   0  0  0  0  0  0  0  0  0  0  0  0
    2.8603   -0.2894    0.0000 H   0  0  0  0  0  0  0  0  0  0  0  0
    7.4090    1.1949    0.0000 H   0  0  0  0  0  0  0  0  0  0  0  0
    8.0675    1.6439    0.0000 H   0  0  0  0  0  0  0  0  0  0  0  0
    7.0157    2.6726    0.0000 H   0  0  0  0  0  0  0  0  0  0  0  0
    6.5667    3.3311    0.0000 H   0  0  0  0  0  0  0  0  0  0  0  0
    4.1671    1.9314    0.0000 H   0  0  0  0  0  0  0  0  0  0  0  0
    3.3395    2.2210    0.0000 H   0  0  0  0  0  0  0  0  0  0  0  0
    3.0499    1.3934    0.0000 H   0  0  0  0  0  0  0  0  0  0  0  0
    6.0359    0.3906    0.0000 H   0  0  0  0  0  0  0  0  0  0  0  0
    6.8684   -1.2933    0.0000 H   0  0  0  0  0  0  0  0  0  0  0  0
    8.4632    2.4438    0.0000 H   0  0  0  0  0  0  0  0  0  0  0  0
    8.1736    3.2714    0.0000 H   0  0  0  0  0  0  0  0  0  0  0  0
    7.3460    2.9818    0.0000 H   0  0  0  0  0  0  0  0  0  0  0  0
    5.7668    3.7268    0.0000 H   0  0  0  0  0  0  0  0  0  0  0  0
    4.9392    3.4372    0.0000 H   0  0  0  0  0  0  0  0  0  0  0  0
    5.2288    2.6096    0.0000 H   0  0  0  0  0  0  0  0  0  0  0  0
    3.1940   -3.1655    0.0000 H   0  0  0  0  0  0  0  0  0  0  0  0
    5.2559   -3.6781    0.0000 H   0  0  0  0  0  0  0  0  0  0  0  0
    7.4955   -0.3122    0.0000 H   0  0  0  0  0  0  0  0  0  0  0  0
    7.9614    0.6553    0.0000 H   0  0  0  0  0  0  0  0  0  0  0  0
    6.7242   -3.6818    0.0000 H   0  0  0  0  0  0  0  0  0  0  0  0
    7.5851   -3.5155    0.0000 H   0  0  0  0  0  0  0  0  0  0  0  0
    7.4188   -2.6546    0.0000 H   0  0  0  0  0  0  0  0  0  0  0  0
  1 17  2  0  0  0  0
  2  6  1  0  0  0  0
  2  7  1  0  0  0  0
  2  8  1  0  0  0  0
  3  9  1  0  0  0  0
  3 13  1  0  0  0  0
  3 17  1  0  0  0  0
  4 16  1  0  0  0  0
  4 17  1  0  0  0  0
  4 47  1  0  0  0  0
  5  6  1  0  0  0  0
  5 10  1  0  0  0  0
  5 11  1  0  0  0  0
  5 15  1  0  0  0  0
  6 25  1  0  0  0  0
  6 26  1  0  0  0  0
  7  9  1  0  0  0  0
  7 14  1  6  0  0  0
  7 27  1  0  0  0  0
  8 12  1  0  0  0  0
  8 28  1  0  0  0  0
  8 29  1  0  0  0  0
  9 30  1  0  0  0  0
  9 31  1  0  0  0  0
 10 19  1  0  0  0  0
 10 32  1  0  0  0  0
 10 33  1  0  0  0  0
 11 20  1  0  0  0  0
 11 34  1  0  0  0  0
 11 35  1  0  0  0  0
 12 13  2  0  0  0  0
 12 18  1  0  0  0  0
 13 16  1  0  0  0  0
 14 36  1  0  0  0  0
 14 37  1  0  0  0  0
 14 38  1  0  0  0  0
 15 23  2  0  0  0  0
 15 39  1  0  0  0  0
 16 21  2  0  0  0  0
 18 22  2  0  0  0  0
 18 40  1  0  0  0  0
 19 41  1  0  0  0  0
 19 42  1  0  0  0  0
 19 43  1  0  0  0  0
 20 44  1  0  0  0  0
 20 45  1  0  0  0  0
 20 46  1  0  0  0  0
 21 22  1  0  0  0  0
 21 48  1  0  0  0  0
 22 24  1  0  0  0  0
 23 49  1  0  0  0  0
 23 50  1  0  0  0  0
 24 51  1  0  0  0  0
 24 52  1  0  0  0  0
 24 53  1  0  0  0  0
M  END
> <PUBCHEM_COMPOUND_CID>
504495
> <PUBCHEM_COMPOUND_CANONICALIZED>
1
> <PUBCHEM_CACTVS_COMPLEXITY>
487
> <PUBCHEM_CACTVS_HBOND_ACCEPTOR>
2
> <PUBCHEM_CACTVS_HBOND_DONOR>
1
> <PUBCHEM_CACTVS_ROTATABLE_BOND>
5
> <PUBCHEM_CACTVS_SUBSKEYS>
AAADceB7IAAAAAAAAAAAAAAAAAAAAWAAAAAwAAAABYAAAFixAAAAHgAQAAAADijBGAQzwIPAAACIAiRCUACCAAAhAgAIiAAIdIiIYCLA0ZGUIAholgLIyCcQgEAPCAACQAACACAQAASAAAQAQAAAAAAAAA==
> <PUBCHEM_IUPAC_OPENEYE_NAME>
(11S)-10-(2,2-diethylbut-3-enyl)-6,11-dimethyl-1,3,10-triazatricyclo[6.4.1.04,13]trideca-4,6,8(13)-trien-2-one
> <PUBCHEM_IUPAC_CAS_NAME>
(11S)-10-(2,2-diethylbut-3-enyl)-6,11-dimethyl-1,3,10-triazatricyclo[6.4.1.04,13]trideca-4,6,8(13)-trien-2-one
> <PUBCHEM_IUPAC_NAME_MARKUP>
(11<I>S</I>)-10-(2,2-diethylbut-3-enyl)-6,11-dimethyl-1,3,10-triazatricyclo[6.4.1.0<SUP>4,13</SUP>]trideca-4,6,8(13)-trien-2-one
> <PUBCHEM_IUPAC_NAME>
(11S)-10-(2,2-diethylbut-3-enyl)-6,11-dimethyl-1,3,10-triazatricyclo[6.4.1.04,13]trideca-4,6,8(13)-trien-2-one
> <PUBCHEM_IUPAC_SYSTEMATIC_NAME>
(11S)-10-(2,2-diethylbut-3-enyl)-6,11-dimethyl-1,3,10-triazatricyclo[6.4.1.04,13]trideca-4,6,8(13)-trien-2-one
> <PUBCHEM_IUPAC_TRADITIONAL_NAME>
(11S)-10-(2,2-diethylbut-3-enyl)-6,11-dimethyl-1,3,10-triazatricyclo[6.4.1.04,13]trideca-4,6,8(13)-trien-2-one
> <PUBCHEM_IUPAC_INCHI>
InChI=1S/C20H29N3O/c1-6-20(7-2,8-3)13-22-12-16-9-14(4)10-17-18(16)23(11-15(22)5)19(24)21-17/h6,9-10,15H,1,7-8,11-13H2,2-5H3,(H,21,24)/t15-/m0/s1
> <PUBCHEM_IUPAC_INCHIKEY>
NJKWLISZXUVHAP-HNNXBMFYSA-N
> <PUBCHEM_XLOGP3_AA>
3.8
> <PUBCHEM_EXACT_MASS>
327.231062557
> <PUBCHEM_MOLECULAR_FORMULA>
C20H29N3O
> <PUBCHEM_MOLECULAR_WEIGHT>
327.5
> <PUBCHEM_OPENEYE_CAN_SMILES>
CCC(CC)(CN1CC2=C3C(=CC(=C2)C)NC(=O)N3CC1C)C=C
> <PUBCHEM_OPENEYE_ISO_SMILES>
CCC(CC)(CN1CC2=C3C(=CC(=C2)C)NC(=O)N3C[C@@H]1C)C=C
> <PUBCHEM_CACTVS_TPSA>
35.6
> <PUBCHEM_MONOISOTOPIC_WEIGHT>
327.231062557
> <PUBCHEM_TOTAL_CHARGE>
0
> <PUBCHEM_HEAVY_ATOM_COUNT>
24
> <PUBCHEM_ATOM_DEF_STEREO_COUNT>
1
> <PUBCHEM_ATOM_UDEF_STEREO_COUNT>
0
> <PUBCHEM_BOND_DEF_STEREO_COUNT>
0
> <PUBCHEM_BOND_UDEF_STEREO_COUNT>
0
> <PUBCHEM_ISOTOPIC_ATOM_COUNT>
0
> <PUBCHEM_COMPONENT_COUNT>
1
> <PUBCHEM_CACTVS_TAUTO_COUNT>
-1
> <PUBCHEM_COORDINATE_TYPE>
1
5
255
> <PUBCHEM_BONDANNOTATIONS>
12  13  8
12  18  8
13  16  8
16  21  8
18  22  8
21  22  8
3  13  8
3  17  8
4  16  8
4  17  8
7  14  6
$$$$
