504423
  -OEChem-10302200282D
 76 81  0     1  0  0  0  0  0999 V2000
    9.8602    2.9281    0.0000 F   0  0  0  0  0  0  0  0  0  0  0  0
   11.5807   -2.1269    0.0000 F   0  0  0  0  0  0  0  0  0  0  0  0
    6.3301    3.9039    0.0000 O   0  0  0  0  0  0  0  0  0  0  0  0
    3.7320    2.4039    0.0000 O   0  0  0  0  0  0  0  0  0  0  0  0
   16.1228   -3.3468    0.0000 O   0  0  0  0  0  0  0  0  0  0  0  0
    4.5981    3.9039    0.0000 O   0  0  0  0  0  0  0  0  0  0  0  0
   14.3998   -3.8014    0.0000 O   0  0  0  0  0  0  0  0  0  0  0  0
   19.6109   -2.1807    0.0000 O   0  0  0  0  0  0  0  0  0  0  0  0
    6.3301    0.9039    0.0000 N   0  0  0  0  0  0  0  0  0  0  0  0
    9.8602    0.8798    0.0000 N   0  0  0  0  0  0  0  0  0  0  0  0
    8.0901    0.8693    0.0000 N   0  0  0  0  0  0  0  0  0  0  0  0
   11.5884   -0.1269    0.0000 N   0  0  0  0  0  0  0  0  0  0  0  0
   15.0448   -2.1402    0.0000 N   0  0  0  0  0  0  0  0  0  0  0  0
   18.2058   -3.1933    0.0000 N   0  0  0  0  0  0  0  0  0  0  0  0
    6.3301   -0.0961    0.0000 C   0  0  0  0  0  0  0  0  0  0  0  0
    5.8301   -0.9621    0.0000 C   0  0  0  0  0  0  0  0  0  0  0  0
    6.8301   -0.9621    0.0000 C   0  0  0  0  0  0  0  0  0  0  0  0
    7.1962    1.4039    0.0000 C   0  0  0  0  0  0  0  0  0  0  0  0
    5.4641    1.4039    0.0000 C   0  0  0  0  0  0  0  0  0  0  0  0
    7.1962    2.4039    0.0000 C   0  0  0  0  0  0  0  0  0  0  0  0
    5.4641    2.4039    0.0000 C   0  0  0  0  0  0  0  0  0  0  0  0
    8.9962    1.3831    0.0000 C   0  0  0  0  0  0  0  0  0  0  0  0
    6.3301    2.9039    0.0000 C   0  0  0  0  0  0  0  0  0  0  0  0
    9.8564   -0.1202    0.0000 C   0  0  0  0  0  0  0  0  0  0  0  0
   10.7282    1.3764    0.0000 C   0  0  0  0  0  0  0  0  0  0  0  0
   10.7205   -0.6236    0.0000 C   0  0  0  0  0  0  0  0  0  0  0  0
   11.5923    0.8731    0.0000 C   0  0  0  0  0  0  0  0  0  0  0  0
    8.0901    2.9386    0.0000 C   0  0  0  0  0  0  0  0  0  0  0  0
    8.9962    2.4247    0.0000 C   0  0  0  0  0  0  0  0  0  0  0  0
   12.4525   -0.6302    0.0000 C   0  0  0  0  0  0  0  0  0  0  0  0
    4.5981    2.9039    0.0000 C   0  0  0  0  0  0  0  0  0  0  0  0
   15.9599   -1.7370    0.0000 C   0  0  0  0  0  0  0  0  0  0  0  0
   12.4487   -1.6302    0.0000 C   0  0  0  0  0  0  0  0  0  0  0  0
   13.3205   -0.1336    0.0000 C   0  0  0  0  0  0  0  0  0  0  0  0
   16.6262   -2.4827    0.0000 C   0  0  2  0  0  0  0  0  0  0  0  0
   14.1807   -1.6369    0.0000 C   0  0  0  0  0  0  0  0  0  0  0  0
   13.3128   -2.1336    0.0000 C   0  0  0  0  0  0  0  0  0  0  0  0
   14.1846   -0.6369    0.0000 C   0  0  0  0  0  0  0  0  0  0  0  0
   17.6211   -2.3820    0.0000 C   0  0  0  0  0  0  0  0  0  0  0  0
   15.1455   -3.1352    0.0000 C   0  0  0  0  0  0  0  0  0  0  0  0
    2.8660    2.9039    0.0000 C   0  0  0  0  0  0  0  0  0  0  0  0
    2.0000    2.4039    0.0000 C   0  0  0  0  0  0  0  0  0  0  0  0
   19.2007   -3.0926    0.0000 C   0  0  0  0  0  0  0  0  0  0  0  0
   19.7853   -3.9039    0.0000 C   0  0  0  0  0  0  0  0  0  0  0  0
    6.9290    0.0644    0.0000 H   0  0  0  0  0  0  0  0  0  0  0  0
    5.2475   -0.7501    0.0000 H   0  0  0  0  0  0  0  0  0  0  0  0
    5.7225   -1.5727    0.0000 H   0  0  0  0  0  0  0  0  0  0  0  0
    6.9378   -1.5727    0.0000 H   0  0  0  0  0  0  0  0  0  0  0  0
    7.4127   -0.7501    0.0000 H   0  0  0  0  0  0  0  0  0  0  0  0
    4.9272    1.0939    0.0000 H   0  0  0  0  0  0  0  0  0  0  0  0
    9.2462   -0.0102    0.0000 H   0  0  0  0  0  0  0  0  0  0  0  0
    9.6421   -0.7020    0.0000 H   0  0  0  0  0  0  0  0  0  0  0  0
   11.1286    1.8498    0.0000 H   0  0  0  0  0  0  0  0  0  0  0  0
   10.3315    1.8529    0.0000 H   0  0  0  0  0  0  0  0  0  0  0  0
   10.3201   -1.0970    0.0000 H   0  0  0  0  0  0  0  0  0  0  0  0
   11.1172   -1.1000    0.0000 H   0  0  0  0  0  0  0  0  0  0  0  0
   12.2025    0.7631    0.0000 H   0  0  0  0  0  0  0  0  0  0  0  0
   11.8066    1.4549    0.0000 H   0  0  0  0  0  0  0  0  0  0  0  0
    8.0829    3.5585    0.0000 H   0  0  0  0  0  0  0  0  0  0  0  0
   16.4629   -1.3745    0.0000 H   0  0  0  0  0  0  0  0  0  0  0  0
   15.6520   -1.1989    0.0000 H   0  0  0  0  0  0  0  0  0  0  0  0
   16.9618   -3.0040    0.0000 H   0  0  0  0  0  0  0  0  0  0  0  0
   13.3229    0.4864    0.0000 H   0  0  0  0  0  0  0  0  0  0  0  0
   13.3104   -2.7536    0.0000 H   0  0  0  0  0  0  0  0  0  0  0  0
   14.7227   -0.3290    0.0000 H   0  0  0  0  0  0  0  0  0  0  0  0
   18.1794   -2.1124    0.0000 H   0  0  0  0  0  0  0  0  0  0  0  0
   17.4525   -1.7854    0.0000 H   0  0  0  0  0  0  0  0  0  0  0  0
    3.2646    3.3789    0.0000 H   0  0  0  0  0  0  0  0  0  0  0  0
    2.4675    3.3789    0.0000 H   0  0  0  0  0  0  0  0  0  0  0  0
   17.9514   -3.7588    0.0000 H   0  0  0  0  0  0  0  0  0  0  0  0
    1.6900    2.9409    0.0000 H   0  0  0  0  0  0  0  0  0  0  0  0
    1.4631    2.0939    0.0000 H   0  0  0  0  0  0  0  0  0  0  0  0
    2.3100    1.8670    0.0000 H   0  0  0  0  0  0  0  0  0  0  0  0
   19.2823   -4.2664    0.0000 H   0  0  0  0  0  0  0  0  0  0  0  0
   20.1478   -4.4069    0.0000 H   0  0  0  0  0  0  0  0  0  0  0  0
   20.2883   -3.5414    0.0000 H   0  0  0  0  0  0  0  0  0  0  0  0
  1 29  1  0  0  0  0
  2 33  1  0  0  0  0
  3 23  2  0  0  0  0
  4 31  1  0  0  0  0
  4 41  1  0  0  0  0
  5 35  1  0  0  0  0
  5 40  1  0  0  0  0
  6 31  2  0  0  0  0
  7 40  2  0  0  0  0
  8 43  2  0  0  0  0
  9 15  1  0  0  0  0
  9 18  1  0  0  0  0
  9 19  1  0  0  0  0
 10 22  1  0  0  0  0
 10 24  1  0  0  0  0
 10 25  1  0  0  0  0
 11 18  2  0  0  0  0
 11 22  1  0  0  0  0
 12 26  1  0  0  0  0
 12 27  1  0  0  0  0
 12 30  1  0  0  0  0
 13 32  1  0  0  0  0
 13 36  1  0  0  0  0
 13 40  1  0  0  0  0
 14 39  1  0  0  0  0
 14 43  1  0  0  0  0
 14 70  1  0  0  0  0
 15 16  1  0  0  0  0
 15 17  1  0  0  0  0
 15 45  1  0  0  0  0
 16 17  1  0  0  0  0
 16 46  1  0  0  0  0
 16 47  1  0  0  0  0
 17 48  1  0  0  0  0
 17 49  1  0  0  0  0
 18 20  1  0  0  0  0
 19 21  2  0  0  0  0
 19 50  1  0  0  0  0
 20 23  1  0  0  0  0
 20 28  2  0  0  0  0
 21 23  1  0  0  0  0
 21 31  1  0  0  0  0
 22 29  2  0  0  0  0
 24 26  1  0  0  0  0
 24 51  1  0  0  0  0
 24 52  1  0  0  0  0
 25 27  1  0  0  0  0
 25 53  1  0  0  0  0
 25 54  1  0  0  0  0
 26 55  1  0  0  0  0
 26 56  1  0  0  0  0
 27 57  1  0  0  0  0
 27 58  1  0  0  0  0
 28 29  1  0  0  0  0
 28 59  1  0  0  0  0
 30 33  2  0  0  0  0
 30 34  1  0  0  0  0
 32 35  1  0  0  0  0
 32 60  1  0  0  0  0
 32 61  1  0  0  0  0
 33 37  1  0  0  0  0
 34 38  2  0  0  0  0
 34 63  1  0  0  0  0
 35 39  1  6  0  0  0
 35 62  1  0  0  0  0
 36 37  2  0  0  0  0
 36 38  1  0  0  0  0
 37 64  1  0  0  0  0
 38 65  1  0  0  0  0
 39 66  1  0  0  0  0
 39 67  1  0  0  0  0
 41 42  1  0  0  0  0
 41 68  1  0  0  0  0
 41 69  1  0  0  0  0
 42 71  1  0  0  0  0
 42 72  1  0  0  0  0
 42 73  1  0  0  0  0
 43 44  1  0  0  0  0
 44 74  1  0  0  0  0
 44 75  1  0  0  0  0
 44 76  1  0  0  0  0
M  END
> <PUBCHEM_COMPOUND_CID>
504423
> <PUBCHEM_COMPOUND_CANONICALIZED>
1
> <PUBCHEM_CACTVS_COMPLEXITY>
1160
> <PUBCHEM_CACTVS_HBOND_ACCEPTOR>
12
> <PUBCHEM_CACTVS_HBOND_DONOR>
1
> <PUBCHEM_CACTVS_ROTATABLE_BOND>
9
> <PUBCHEM_CACTVS_SUBSKEYS>
AAADcfB7uYAAAAAAAAAAAAAAGAAAAWAAAAA8WIEAAAAAAACBwAAAHwAQAAAADDzhmg4z+JPIFACoAqf2fACCgCklAiAJmKEoZNiKZP7I/ZGfIYhstgLY6eeY2SKOAACAAAAAAAAAAQAAAAAAAAAAAAAAAA==
> <PUBCHEM_IUPAC_OPENEYE_NAME>
ethyl 7-[4-[4-[(5S)-5-(acetamidomethyl)-2-oxo-oxazolidin-3-yl]-2-fluoro-phenyl]piperazin-1-yl]-1-cyclopropyl-6-fluoro-4-oxo-1,8-naphthyridine-3-carboxylate
> <PUBCHEM_IUPAC_CAS_NAME>
7-[4-[4-[(5S)-5-(acetamidomethyl)-2-oxo-3-oxazolidinyl]-2-fluorophenyl]-1-piperazinyl]-1-cyclopropyl-6-fluoro-4-oxo-1,8-naphthyridine-3-carboxylic acid ethyl ester
> <PUBCHEM_IUPAC_NAME_MARKUP>
ethyl 7-[4-[4-[(5<I>S</I>)-5-(acetamidomethyl)-2-oxo-1,3-oxazolidin-3-yl]-2-fluorophenyl]piperazin-1-yl]-1-cyclopropyl-6-fluoro-4-oxo-1,8-naphthyridine-3-carboxylate
> <PUBCHEM_IUPAC_NAME>
ethyl 7-[4-[4-[(5S)-5-(acetamidomethyl)-2-oxo-1,3-oxazolidin-3-yl]-2-fluorophenyl]piperazin-1-yl]-1-cyclopropyl-6-fluoro-4-oxo-1,8-naphthyridine-3-carboxylate
> <PUBCHEM_IUPAC_SYSTEMATIC_NAME>
ethyl 7-[4-[4-[(5S)-5-(acetamidomethyl)-2-oxidanylidene-1,3-oxazolidin-3-yl]-2-fluoranyl-phenyl]piperazin-1-yl]-1-cyclopropyl-6-fluoranyl-4-oxidanylidene-1,8-naphthyridine-3-carboxylate
> <PUBCHEM_IUPAC_TRADITIONAL_NAME>
7-[4-[4-[(5S)-5-(acetamidomethyl)-2-keto-oxazolidin-3-yl]-2-fluoro-phenyl]piperazino]-1-cyclopropyl-6-fluoro-4-keto-1,8-naphthyridine-3-carboxylic acid ethyl ester
> <PUBCHEM_IUPAC_INCHI>
InChI=1S/C30H32F2N6O6/c1-3-43-29(41)22-16-37(18-4-5-18)27-21(26(22)40)13-24(32)28(34-27)36-10-8-35(9-11-36)25-7-6-19(12-23(25)31)38-15-20(44-30(38)42)14-33-17(2)39/h6-7,12-13,16,18,20H,3-5,8-11,14-15H2,1-2H3,(H,33,39)/t20-/m0/s1
> <PUBCHEM_IUPAC_INCHIKEY>
IJUQHXNZGAQURA-FQEVSTJZSA-N
> <PUBCHEM_XLOGP3_AA>
3.1
> <PUBCHEM_EXACT_MASS>
610.23513909
> <PUBCHEM_MOLECULAR_FORMULA>
C30H32F2N6O6
> <PUBCHEM_MOLECULAR_WEIGHT>
610.6
> <PUBCHEM_OPENEYE_CAN_SMILES>
CCOC(=O)C1=CN(C2=NC(=C(C=C2C1=O)F)N3CCN(CC3)C4=C(C=C(C=C4)N5CC(OC5=O)CNC(=O)C)F)C6CC6
> <PUBCHEM_OPENEYE_ISO_SMILES>
CCOC(=O)C1=CN(C2=NC(=C(C=C2C1=O)F)N3CCN(CC3)C4=C(C=C(C=C4)N5C[C@@H](OC5=O)CNC(=O)C)F)C6CC6
> <PUBCHEM_CACTVS_TPSA>
125
> <PUBCHEM_MONOISOTOPIC_WEIGHT>
610.23513909
> <PUBCHEM_TOTAL_CHARGE>
0
> <PUBCHEM_HEAVY_ATOM_COUNT>
44
> <PUBCHEM_ATOM_DEF_STEREO_COUNT>
1
> <PUBCHEM_ATOM_UDEF_STEREO_COUNT>
0
> <PUBCHEM_BOND_DEF_STEREO_COUNT>
0
> <PUBCHEM_BOND_UDEF_STEREO_COUNT>
0
> <PUBCHEM_ISOTOPIC_ATOM_COUNT>
0
> <PUBCHEM_COMPONENT_COUNT>
1
> <PUBCHEM_CACTVS_TAUTO_COUNT>
-1
> <PUBCHEM_COORDINATE_TYPE>
1
5
255
> <PUBCHEM_BONDANNOTATIONS>
11  18  8
11  22  8
18  20  8
19  21  8
20  23  8
20  28  8
21  23  8
22  29  8
28  29  8
30  33  8
30  34  8
33  37  8
34  38  8
35  39  6
36  37  8
36  38  8
9  18  8
9  19  8
$$$$
