504415
  -OEChem-10302200282D
 70 74  0     1  0  0  0  0  0999 V2000
   12.8134    0.9542    0.0000 F   0  0  0  0  0  0  0  0  0  0  0  0
    7.6172    1.9542    0.0000 F   0  0  0  0  0  0  0  0  0  0  0  0
   11.0813    3.9542    0.0000 F   0  0  0  0  0  0  0  0  0  0  0  0
    4.3025   -1.3822    0.0000 O   0  0  0  0  0  0  0  0  0  0  0  0
    4.7637    0.3391    0.0000 O   0  0  0  0  0  0  0  0  0  0  0  0
   14.5618    4.9888    0.0000 O   0  0  0  0  0  0  0  0  0  0  0  0
   17.2115    3.4817    0.0000 O   0  0  0  0  0  0  0  0  0  0  0  0
   16.3397    4.9784    0.0000 O   0  0  0  0  0  0  0  0  0  0  0  0
    3.5823   -4.9888    0.0000 O   0  0  0  0  0  0  0  0  0  0  0  0
   11.0813    1.9542    0.0000 N   0  0  0  0  0  0  0  0  0  0  0  0
    9.3493    0.9542    0.0000 N   0  0  0  0  0  0  0  0  0  0  0  0
    5.8852   -1.0458    0.0000 N   0  0  0  0  0  0  0  0  0  0  0  0
   14.5734    1.9196    0.0000 N   0  0  0  0  0  0  0  0  0  0  0  0
    3.4013   -3.2663    0.0000 N   0  0  0  0  0  0  0  0  0  0  0  0
   10.2153    2.4542    0.0000 C   0  0  0  0  0  0  0  0  0  0  0  0
   11.0813    0.9542    0.0000 C   0  0  0  0  0  0  0  0  0  0  0  0
    9.3493    1.9542    0.0000 C   0  0  0  0  0  0  0  0  0  0  0  0
   10.2153    0.4542    0.0000 C   0  0  0  0  0  0  0  0  0  0  0  0
   11.9474    2.4542    0.0000 C   0  0  0  0  0  0  0  0  0  0  0  0
    8.4833    0.4542    0.0000 C   0  0  0  0  0  0  0  0  0  0  0  0
    4.8025   -2.2482    0.0000 C   0  0  2  0  0  0  0  0  0  0  0  0
    5.7807   -2.0403    0.0000 C   0  0  0  0  0  0  0  0  0  0  0  0
   12.8134    1.9542    0.0000 C   0  0  0  0  0  0  0  0  0  0  0  0
   13.6794    2.4542    0.0000 C   0  0  0  0  0  0  0  0  0  0  0  0
    6.7512   -0.5458    0.0000 C   0  0  0  0  0  0  0  0  0  0  0  0
    7.6172    0.9542    0.0000 C   0  0  0  0  0  0  0  0  0  0  0  0
    8.4833   -0.5458    0.0000 C   0  0  0  0  0  0  0  0  0  0  0  0
   11.9474    3.4542    0.0000 C   0  0  0  0  0  0  0  0  0  0  0  0
   13.6794    3.4542    0.0000 C   0  0  0  0  0  0  0  0  0  0  0  0
    6.7512    0.4542    0.0000 C   0  0  0  0  0  0  0  0  0  0  0  0
    7.6172   -1.0458    0.0000 C   0  0  0  0  0  0  0  0  0  0  0  0
   12.8134    3.9542    0.0000 C   0  0  0  0  0  0  0  0  0  0  0  0
    4.3958   -3.1617    0.0000 C   0  0  0  0  0  0  0  0  0  0  0  0
    4.9716   -0.6390    0.0000 C   0  0  0  0  0  0  0  0  0  0  0  0
   14.5734    3.9889    0.0000 C   0  0  0  0  0  0  0  0  0  0  0  0
   14.5618    0.9196    0.0000 C   0  0  0  0  0  0  0  0  0  0  0  0
   15.4794    2.4334    0.0000 C   0  0  0  0  0  0  0  0  0  0  0  0
   15.4794    3.4750    0.0000 C   0  0  0  0  0  0  0  0  0  0  0  0
   15.4220    0.4097    0.0000 C   0  0  0  0  0  0  0  0  0  0  0  0
   16.3435    3.9784    0.0000 C   0  0  0  0  0  0  0  0  0  0  0  0
    2.9945   -4.1798    0.0000 C   0  0  0  0  0  0  0  0  0  0  0  0
    2.0000   -4.2843    0.0000 C   0  0  0  0  0  0  0  0  0  0  0  0
   10.6138    2.9292    0.0000 H   0  0  0  0  0  0  0  0  0  0  0  0
    9.8168    2.9292    0.0000 H   0  0  0  0  0  0  0  0  0  0  0  0
   11.2934    0.3716    0.0000 H   0  0  0  0  0  0  0  0  0  0  0  0
   11.6919    1.0619    0.0000 H   0  0  0  0  0  0  0  0  0  0  0  0
    9.1372    2.5368    0.0000 H   0  0  0  0  0  0  0  0  0  0  0  0
    8.7387    1.8466    0.0000 H   0  0  0  0  0  0  0  0  0  0  0  0
    9.8168   -0.0207    0.0000 H   0  0  0  0  0  0  0  0  0  0  0  0
   10.6138   -0.0207    0.0000 H   0  0  0  0  0  0  0  0  0  0  0  0
    4.1834   -2.2806    0.0000 H   0  0  0  0  0  0  0  0  0  0  0  0
    5.8455   -2.6569    0.0000 H   0  0  0  0  0  0  0  0  0  0  0  0
    6.4007   -2.0403    0.0000 H   0  0  0  0  0  0  0  0  0  0  0  0
    9.0202   -0.8558    0.0000 H   0  0  0  0  0  0  0  0  0  0  0  0
    6.2143    0.7642    0.0000 H   0  0  0  0  0  0  0  0  0  0  0  0
    7.6172   -1.6658    0.0000 H   0  0  0  0  0  0  0  0  0  0  0  0
   12.8134    4.5742    0.0000 H   0  0  0  0  0  0  0  0  0  0  0  0
    4.3525   -3.7802    0.0000 H   0  0  0  0  0  0  0  0  0  0  0  0
    4.9974   -3.3117    0.0000 H   0  0  0  0  0  0  0  0  0  0  0  0
   13.9525    1.0344    0.0000 H   0  0  0  0  0  0  0  0  0  0  0  0
   14.3430    0.3395    0.0000 H   0  0  0  0  0  0  0  0  0  0  0  0
   16.0152    2.1214    0.0000 H   0  0  0  0  0  0  0  0  0  0  0  0
    3.0368   -2.7647    0.0000 H   0  0  0  0  0  0  0  0  0  0  0  0
   15.1058   -0.1237    0.0000 H   0  0  0  0  0  0  0  0  0  0  0  0
   15.9553    0.0935    0.0000 H   0  0  0  0  0  0  0  0  0  0  0  0
   15.7382    0.9430    0.0000 H   0  0  0  0  0  0  0  0  0  0  0  0
    1.9352   -3.6677    0.0000 H   0  0  0  0  0  0  0  0  0  0  0  0
    1.3834   -4.3492    0.0000 H   0  0  0  0  0  0  0  0  0  0  0  0
    2.0648   -4.9010    0.0000 H   0  0  0  0  0  0  0  0  0  0  0  0
   17.7472    3.7938    0.0000 H   0  0  0  0  0  0  0  0  0  0  0  0
  1 23  1  0  0  0  0
  2 26  1  0  0  0  0
  3 28  1  0  0  0  0
  4 21  1  0  0  0  0
  4 34  1  0  0  0  0
  5 34  2  0  0  0  0
  6 35  2  0  0  0  0
  7 40  1  0  0  0  0
  7 70  1  0  0  0  0
  8 40  2  0  0  0  0
  9 41  2  0  0  0  0
 10 15  1  0  0  0  0
 10 16  1  0  0  0  0
 10 19  1  0  0  0  0
 11 17  1  0  0  0  0
 11 18  1  0  0  0  0
 11 20  1  0  0  0  0
 12 22  1  0  0  0  0
 12 25  1  0  0  0  0
 12 34  1  0  0  0  0
 13 24  1  0  0  0  0
 13 36  1  0  0  0  0
 13 37  1  0  0  0  0
 14 33  1  0  0  0  0
 14 41  1  0  0  0  0
 14 63  1  0  0  0  0
 15 17  1  0  0  0  0
 15 43  1  0  0  0  0
 15 44  1  0  0  0  0
 16 18  1  0  0  0  0
 16 45  1  0  0  0  0
 16 46  1  0  0  0  0
 17 47  1  0  0  0  0
 17 48  1  0  0  0  0
 18 49  1  0  0  0  0
 18 50  1  0  0  0  0
 19 23  1  0  0  0  0
 19 28  2  0  0  0  0
 20 26  2  0  0  0  0
 20 27  1  0  0  0  0
 21 22  1  0  0  0  0
 21 33  1  6  0  0  0
 21 51  1  0  0  0  0
 22 52  1  0  0  0  0
 22 53  1  0  0  0  0
 23 24  2  0  0  0  0
 24 29  1  0  0  0  0
 25 30  2  0  0  0  0
 25 31  1  0  0  0  0
 26 30  1  0  0  0  0
 27 31  2  0  0  0  0
 27 54  1  0  0  0  0
 28 32  1  0  0  0  0
 29 32  2  0  0  0  0
 29 35  1  0  0  0  0
 30 55  1  0  0  0  0
 31 56  1  0  0  0  0
 32 57  1  0  0  0  0
 33 58  1  0  0  0  0
 33 59  1  0  0  0  0
 35 38  1  0  0  0  0
 36 39  1  0  0  0  0
 36 60  1  0  0  0  0
 36 61  1  0  0  0  0
 37 38  2  0  0  0  0
 37 62  1  0  0  0  0
 38 40  1  0  0  0  0
 39 64  1  0  0  0  0
 39 65  1  0  0  0  0
 39 66  1  0  0  0  0
 41 42  1  0  0  0  0
 42 67  1  0  0  0  0
 42 68  1  0  0  0  0
 42 69  1  0  0  0  0
M  END
> <PUBCHEM_COMPOUND_CID>
504415
> <PUBCHEM_COMPOUND_CANONICALIZED>
1
> <PUBCHEM_CACTVS_COMPLEXITY>
1100
> <PUBCHEM_CACTVS_HBOND_ACCEPTOR>
12
> <PUBCHEM_CACTVS_HBOND_DONOR>
2
> <PUBCHEM_CACTVS_ROTATABLE_BOND>
7
> <PUBCHEM_CACTVS_SUBSKEYS>
AAADceB7uYAAAAAAAAAAAAAAAAAAAWAAAAA8YIEAAAAAAACBQAAAHwAQCAAADBzhmA4yyIPABgCIAqXWWACCAAAlAgAIiIEIZMgKZD7I1dGdYYhktgDY2ceY2aOeCACAAAQCAAAQAQAACAQAAAAAAAAAAA==
> <PUBCHEM_IUPAC_OPENEYE_NAME>
7-[4-[4-[(5S)-5-(acetamidomethyl)-2-oxo-oxazolidin-3-yl]-2-fluoro-phenyl]piperazin-1-yl]-1-ethyl-6,8-difluoro-4-oxo-quinoline-3-carboxylic acid
> <PUBCHEM_IUPAC_CAS_NAME>
7-[4-[4-[(5S)-5-(acetamidomethyl)-2-oxo-3-oxazolidinyl]-2-fluorophenyl]-1-piperazinyl]-1-ethyl-6,8-difluoro-4-oxo-3-quinolinecarboxylic acid
> <PUBCHEM_IUPAC_NAME_MARKUP>
7-[4-[4-[(5<I>S</I>)-5-(acetamidomethyl)-2-oxo-1,3-oxazolidin-3-yl]-2-fluorophenyl]piperazin-1-yl]-1-ethyl-6,8-difluoro-4-oxoquinoline-3-carboxylic acid
> <PUBCHEM_IUPAC_NAME>
7-[4-[4-[(5S)-5-(acetamidomethyl)-2-oxo-1,3-oxazolidin-3-yl]-2-fluorophenyl]piperazin-1-yl]-1-ethyl-6,8-difluoro-4-oxoquinoline-3-carboxylic acid
> <PUBCHEM_IUPAC_SYSTEMATIC_NAME>
7-[4-[4-[(5S)-5-(acetamidomethyl)-2-oxidanylidene-1,3-oxazolidin-3-yl]-2-fluoranyl-phenyl]piperazin-1-yl]-1-ethyl-6,8-bis(fluoranyl)-4-oxidanylidene-quinoline-3-carboxylic acid
> <PUBCHEM_IUPAC_TRADITIONAL_NAME>
7-[4-[4-[(5S)-5-(acetamidomethyl)-2-keto-oxazolidin-3-yl]-2-fluoro-phenyl]piperazino]-1-ethyl-6,8-difluoro-4-keto-quinoline-3-carboxylic acid
> <PUBCHEM_IUPAC_INCHI>
InChI=1S/C28H28F3N5O6/c1-3-33-14-19(27(39)40)26(38)18-11-21(30)25(23(31)24(18)33)35-8-6-34(7-9-35)22-5-4-16(10-20(22)29)36-13-17(42-28(36)41)12-32-15(2)37/h4-5,10-11,14,17H,3,6-9,12-13H2,1-2H3,(H,32,37)(H,39,40)/t17-/m0/s1
> <PUBCHEM_IUPAC_INCHIKEY>
HMSYOQSBBWRFRO-KRWDZBQOSA-N
> <PUBCHEM_XLOGP3>
2.4
> <PUBCHEM_EXACT_MASS>
587.19916812
> <PUBCHEM_MOLECULAR_FORMULA>
C28H28F3N5O6
> <PUBCHEM_MOLECULAR_WEIGHT>
587.5
> <PUBCHEM_OPENEYE_CAN_SMILES>
CCN1C=C(C(=O)C2=CC(=C(C(=C21)F)N3CCN(CC3)C4=C(C=C(C=C4)N5CC(OC5=O)CNC(=O)C)F)F)C(=O)O
> <PUBCHEM_OPENEYE_ISO_SMILES>
CCN1C=C(C(=O)C2=CC(=C(C(=C21)F)N3CCN(CC3)C4=C(C=C(C=C4)N5C[C@@H](OC5=O)CNC(=O)C)F)F)C(=O)O
> <PUBCHEM_CACTVS_TPSA>
123
> <PUBCHEM_MONOISOTOPIC_WEIGHT>
587.19916812
> <PUBCHEM_TOTAL_CHARGE>
0
> <PUBCHEM_HEAVY_ATOM_COUNT>
42
> <PUBCHEM_ATOM_DEF_STEREO_COUNT>
1
> <PUBCHEM_ATOM_UDEF_STEREO_COUNT>
0
> <PUBCHEM_BOND_DEF_STEREO_COUNT>
0
> <PUBCHEM_BOND_UDEF_STEREO_COUNT>
0
> <PUBCHEM_ISOTOPIC_ATOM_COUNT>
0
> <PUBCHEM_COMPONENT_COUNT>
1
> <PUBCHEM_CACTVS_TAUTO_COUNT>
-1
> <PUBCHEM_COORDINATE_TYPE>
1
5
255
> <PUBCHEM_BONDANNOTATIONS>
13  24  8
13  37  8
19  23  8
19  28  8
20  26  8
20  27  8
21  33  6
23  24  8
24  29  8
25  30  8
25  31  8
26  30  8
27  31  8
28  32  8
29  32  8
29  35  8
35  38  8
37  38  8
$$$$
