504411
  -OEChem-10302200282D
110114  0     1  0  0  0  0  0999 V2000
    7.2641    1.4592    0.0000 O   0  0  0  0  0  0  0  0  0  0  0  0
   11.2951   -0.0817    0.0000 O   0  0  0  0  0  0  0  0  0  0  0  0
   10.6141   -1.2613    0.0000 O   0  0  0  0  0  0  0  0  0  0  0  0
   10.2520   -4.7064    0.0000 O   0  0  0  0  0  0  0  0  0  0  0  0
    7.8562   -3.5838    0.0000 O   0  0  0  0  0  0  0  0  0  0  0  0
    6.1738   -6.5222    0.0000 O   0  0  0  0  0  0  0  0  0  0  0  0
    6.3981   -0.0408    0.0000 O   0  0  0  0  0  0  0  0  0  0  0  0
    6.3549   -4.7996    0.0000 O   0  0  0  0  0  0  0  0  0  0  0  0
   11.9275    3.4679    0.0000 O   0  0  0  0  0  0  0  0  0  0  0  0
   15.4989    2.9725    0.0000 O   0  0  0  0  0  0  0  0  0  0  0  0
    9.7128    0.6228    0.0000 N   0  0  0  0  0  0  0  0  0  0  0  0
    8.6697   -5.4109    0.0000 N   0  0  0  0  0  0  0  0  0  0  0  0
    9.0318   -1.9658    0.0000 N   0  0  0  0  0  0  0  0  0  0  0  0
   12.1086    1.7454    0.0000 N   0  0  0  0  0  0  0  0  0  0  0  0
    5.5321    1.4592    0.0000 N   0  0  0  0  0  0  0  0  0  0  0  0
   13.9166    3.6770    0.0000 N   0  0  0  0  0  0  0  0  0  0  0  0
   14.7301    5.5041    0.0000 N   0  0  0  0  0  0  0  0  0  0  0  0
   16.7191    5.7132    0.0000 N   0  0  0  0  0  0  0  0  0  0  0  0
    9.2128   -0.2432    0.0000 C   0  0  3  0  0  0  0  0  0  0  0  0
    8.2347   -0.0353    0.0000 C   0  0  0  0  0  0  0  0  0  0  0  0
    8.1301    0.9592    0.0000 C   0  0  2  0  0  0  0  0  0  0  0  0
    9.0437    1.3659    0.0000 C   0  0  0  0  0  0  0  0  0  0  0  0
   10.7073    0.7273    0.0000 C   0  0  0  0  0  0  0  0  0  0  0  0
   11.1141    1.6408    0.0000 C   0  0  2  0  0  0  0  0  0  0  0  0
    9.6196   -1.1568    0.0000 C   0  0  0  0  0  0  0  0  0  0  0  0
   10.5263    2.4499    0.0000 C   0  0  0  0  0  0  0  0  0  0  0  0
    7.7561   -5.8177    0.0000 C   0  0  3  0  0  0  0  0  0  0  0  0
    8.5651   -6.4055    0.0000 C   0  0  0  0  0  0  0  0  0  0  0  0
    9.4385   -2.8794    0.0000 C   0  0  1  0  0  0  0  0  0  0  0  0
   10.4330   -2.9839    0.0000 C   0  0  0  0  0  0  0  0  0  0  0  0
    9.2574   -4.6019    0.0000 C   0  0  0  0  0  0  0  0  0  0  0  0
    8.8507   -3.6884    0.0000 C   0  0  0  0  0  0  0  0  0  0  0  0
    6.3981    0.9592    0.0000 C   0  0  0  0  0  0  0  0  0  0  0  0
   10.9330    3.3634    0.0000 C   0  0  0  0  0  0  0  0  0  0  0  0
    9.5318    2.3453    0.0000 C   0  0  0  0  0  0  0  0  0  0  0  0
    6.7616   -5.7132    0.0000 C   0  0  0  0  0  0  0  0  0  0  0  0
   12.5153    2.6589    0.0000 C   0  0  0  0  0  0  0  0  0  0  0  0
   13.5099    2.7635    0.0000 C   0  0  2  0  0  0  0  0  0  0  0  0
   10.8398   -3.8974    0.0000 C   0  0  0  0  0  0  0  0  0  0  0  0
    5.5321    2.4592    0.0000 C   0  0  0  0  0  0  0  0  0  0  0  0
    4.6660    0.9592    0.0000 C   0  0  0  0  0  0  0  0  0  0  0  0
    4.6660    2.9592    0.0000 C   0  0  0  0  0  0  0  0  0  0  0  0
   14.0976    1.9544    0.0000 C   0  0  0  0  0  0  0  0  0  0  0  0
    3.8000    1.4592    0.0000 C   0  0  0  0  0  0  0  0  0  0  0  0
    3.8000    2.4592    0.0000 C   0  0  0  0  0  0  0  0  0  0  0  0
   11.8343   -4.0020    0.0000 C   0  0  0  0  0  0  0  0  0  0  0  0
   15.0922    2.0590    0.0000 C   0  0  0  0  0  0  0  0  0  0  0  0
   13.6909    1.0409    0.0000 C   0  0  0  0  0  0  0  0  0  0  0  0
    2.9061    0.9245    0.0000 C   0  0  0  0  0  0  0  0  0  0  0  0
    2.9061    2.9938    0.0000 C   0  0  0  0  0  0  0  0  0  0  0  0
    2.0000    1.4384    0.0000 C   0  0  0  0  0  0  0  0  0  0  0  0
    2.0000    2.4800    0.0000 C   0  0  0  0  0  0  0  0  0  0  0  0
    5.1793   -6.4176    0.0000 C   0  0  0  0  0  0  0  0  0  0  0  0
   14.9111    3.7815    0.0000 C   0  0  0  0  0  0  0  0  0  0  0  0
   15.3178    4.6951    0.0000 C   0  0  0  0  0  0  0  0  0  0  0  0
   16.3124    4.7996    0.0000 C   0  0  0  0  0  0  0  0  0  0  0  0
   15.1368    6.4176    0.0000 C   0  0  0  0  0  0  0  0  0  0  0  0
   16.1313    6.5222    0.0000 C   0  0  0  0  0  0  0  0  0  0  0  0
    9.8320   -0.2757    0.0000 H   0  0  0  0  0  0  0  0  0  0  0  0
    7.6147   -0.0353    0.0000 H   0  0  0  0  0  0  0  0  0  0  0  0
    8.1699   -0.6519    0.0000 H   0  0  0  0  0  0  0  0  0  0  0  0
    7.6102    0.6215    0.0000 H   0  0  0  0  0  0  0  0  0  0  0  0
    9.5453    1.7304    0.0000 H   0  0  0  0  0  0  0  0  0  0  0  0
    8.7337    1.9029    0.0000 H   0  0  0  0  0  0  0  0  0  0  0  0
   11.4785    1.1393    0.0000 H   0  0  0  0  0  0  0  0  0  0  0  0
   10.2741    1.8835    0.0000 H   0  0  0  0  0  0  0  0  0  0  0  0
    7.6591   -5.2053    0.0000 H   0  0  0  0  0  0  0  0  0  0  0  0
    8.2934   -6.9627    0.0000 H   0  0  0  0  0  0  0  0  0  0  0  0
    9.1611   -6.5764    0.0000 H   0  0  0  0  0  0  0  0  0  0  0  0
    9.8029   -2.3778    0.0000 H   0  0  0  0  0  0  0  0  0  0  0  0
    8.4152   -1.9010    0.0000 H   0  0  0  0  0  0  0  0  0  0  0  0
   12.4730    1.2438    0.0000 H   0  0  0  0  0  0  0  0  0  0  0  0
   11.0346   -2.8339    0.0000 H   0  0  0  0  0  0  0  0  0  0  0  0
   10.3898   -2.3654    0.0000 H   0  0  0  0  0  0  0  0  0  0  0  0
   11.4994    3.1112    0.0000 H   0  0  0  0  0  0  0  0  0  0  0  0
   11.1852    3.9298    0.0000 H   0  0  0  0  0  0  0  0  0  0  0  0
   10.3666    3.6156    0.0000 H   0  0  0  0  0  0  0  0  0  0  0  0
    9.4670    2.9619    0.0000 H   0  0  0  0  0  0  0  0  0  0  0  0
    8.9152    2.2805    0.0000 H   0  0  0  0  0  0  0  0  0  0  0  0
    9.5966    1.7287    0.0000 H   0  0  0  0  0  0  0  0  0  0  0  0
   13.1454    3.2650    0.0000 H   0  0  0  0  0  0  0  0  0  0  0  0
   10.2382   -4.0474    0.0000 H   0  0  0  0  0  0  0  0  0  0  0  0
   10.8830   -4.5159    0.0000 H   0  0  0  0  0  0  0  0  0  0  0  0
    6.1426    2.3515    0.0000 H   0  0  0  0  0  0  0  0  0  0  0  0
    5.7441    3.0418    0.0000 H   0  0  0  0  0  0  0  0  0  0  0  0
    4.2675    0.4842    0.0000 H   0  0  0  0  0  0  0  0  0  0  0  0
    5.0646    0.4842    0.0000 H   0  0  0  0  0  0  0  0  0  0  0  0
    5.0646    3.4341    0.0000 H   0  0  0  0  0  0  0  0  0  0  0  0
    4.2675    3.4341    0.0000 H   0  0  0  0  0  0  0  0  0  0  0  0
   14.3498    2.5208    0.0000 H   0  0  0  0  0  0  0  0  0  0  0  0
   11.7695   -4.6186    0.0000 H   0  0  0  0  0  0  0  0  0  0  0  0
   12.4509   -4.0668    0.0000 H   0  0  0  0  0  0  0  0  0  0  0  0
   11.8991   -3.3854    0.0000 H   0  0  0  0  0  0  0  0  0  0  0  0
   13.5522    4.1786    0.0000 H   0  0  0  0  0  0  0  0  0  0  0  0
   15.1570    1.4424    0.0000 H   0  0  0  0  0  0  0  0  0  0  0  0
   15.7088    2.1238    0.0000 H   0  0  0  0  0  0  0  0  0  0  0  0
   15.0274    2.6756    0.0000 H   0  0  0  0  0  0  0  0  0  0  0  0
   13.1245    1.2931    0.0000 H   0  0  0  0  0  0  0  0  0  0  0  0
   13.4387    0.4745    0.0000 H   0  0  0  0  0  0  0  0  0  0  0  0
   14.2573    0.7887    0.0000 H   0  0  0  0  0  0  0  0  0  0  0  0
    2.9132    0.3046    0.0000 H   0  0  0  0  0  0  0  0  0  0  0  0
    2.9132    3.6138    0.0000 H   0  0  0  0  0  0  0  0  0  0  0  0
    1.4643    1.1263    0.0000 H   0  0  0  0  0  0  0  0  0  0  0  0
    1.4643    2.7921    0.0000 H   0  0  0  0  0  0  0  0  0  0  0  0
    5.2441   -5.8010    0.0000 H   0  0  0  0  0  0  0  0  0  0  0  0
    4.5627   -6.3528    0.0000 H   0  0  0  0  0  0  0  0  0  0  0  0
    5.1145   -7.0342    0.0000 H   0  0  0  0  0  0  0  0  0  0  0  0
   16.6768    4.2980    0.0000 H   0  0  0  0  0  0  0  0  0  0  0  0
   14.7724    6.9192    0.0000 H   0  0  0  0  0  0  0  0  0  0  0  0
   16.3835    7.0886    0.0000 H   0  0  0  0  0  0  0  0  0  0  0  0
 21  1  1  1  0  0  0
  1 33  1  0  0  0  0
  2 23  2  0  0  0  0
  3 25  2  0  0  0  0
  4 31  2  0  0  0  0
  5 32  2  0  0  0  0
  6 36  1  0  0  0  0
  6 53  1  0  0  0  0
  7 33  2  0  0  0  0
  8 36  2  0  0  0  0
  9 37  2  0  0  0  0
 10 54  2  0  0  0  0
 11 19  1  0  0  0  0
 11 22  1  0  0  0  0
 11 23  1  0  0  0  0
 12 27  1  0  0  0  0
 12 28  1  0  0  0  0
 12 31  1  0  0  0  0
 13 25  1  0  0  0  0
 29 13  1  1  0  0  0
 13 71  1  0  0  0  0
 24 14  1  6  0  0  0
 14 37  1  0  0  0  0
 14 72  1  0  0  0  0
 15 33  1  0  0  0  0
 15 40  1  0  0  0  0
 15 41  1  0  0  0  0
 38 16  1  1  0  0  0
 16 54  1  0  0  0  0
 16 94  1  0  0  0  0
 17 55  2  0  0  0  0
 17 57  1  0  0  0  0
 18 56  2  0  0  0  0
 18 58  1  0  0  0  0
 19 20  1  0  0  0  0
 19 25  1  0  0  0  0
 19 59  1  0  0  0  0
 20 21  1  0  0  0  0
 20 60  1  0  0  0  0
 20 61  1  0  0  0  0
 21 22  1  0  0  0  0
 21 62  1  0  0  0  0
 22 63  1  0  0  0  0
 22 64  1  0  0  0  0
 23 24  1  0  0  0  0
 24 26  1  0  0  0  0
 24 65  1  0  0  0  0
 26 34  1  0  0  0  0
 26 35  1  0  0  0  0
 26 66  1  0  0  0  0
 27 28  1  0  0  0  0
 27 36  1  0  0  0  0
 27 67  1  0  0  0  0
 28 68  1  0  0  0  0
 28 69  1  0  0  0  0
 29 30  1  0  0  0  0
 29 32  1  0  0  0  0
 29 70  1  0  0  0  0
 30 39  1  0  0  0  0
 30 73  1  0  0  0  0
 30 74  1  0  0  0  0
 31 32  1  0  0  0  0
 34 75  1  0  0  0  0
 34 76  1  0  0  0  0
 34 77  1  0  0  0  0
 35 78  1  0  0  0  0
 35 79  1  0  0  0  0
 35 80  1  0  0  0  0
 37 38  1  0  0  0  0
 38 43  1  0  0  0  0
 38 81  1  0  0  0  0
 39 46  1  0  0  0  0
 39 82  1  0  0  0  0
 39 83  1  0  0  0  0
 40 42  1  0  0  0  0
 40 84  1  0  0  0  0
 40 85  1  0  0  0  0
 41 44  1  0  0  0  0
 41 86  1  0  0  0  0
 41 87  1  0  0  0  0
 42 45  1  0  0  0  0
 42 88  1  0  0  0  0
 42 89  1  0  0  0  0
 43 47  1  0  0  0  0
 43 48  1  0  0  0  0
 43 90  1  0  0  0  0
 44 45  1  0  0  0  0
 44 49  2  0  0  0  0
 45 50  2  0  0  0  0
 46 91  1  0  0  0  0
 46 92  1  0  0  0  0
 46 93  1  0  0  0  0
 47 95  1  0  0  0  0
 47 96  1  0  0  0  0
 47 97  1  0  0  0  0
 48 98  1  0  0  0  0
 48 99  1  0  0  0  0
 48100  1  0  0  0  0
 49 51  1  0  0  0  0
 49101  1  0  0  0  0
 50 52  1  0  0  0  0
 50102  1  0  0  0  0
 51 52  2  0  0  0  0
 51103  1  0  0  0  0
 52104  1  0  0  0  0
 53105  1  0  0  0  0
 53106  1  0  0  0  0
 53107  1  0  0  0  0
 54 55  1  0  0  0  0
 55 56  1  0  0  0  0
 56108  1  0  0  0  0
 57 58  2  0  0  0  0
 57109  1  0  0  0  0
 58110  1  0  0  0  0
M  END
> <PUBCHEM_COMPOUND_CID>
504411
> <PUBCHEM_COMPOUND_CANONICALIZED>
1
> <PUBCHEM_CACTVS_COMPLEXITY>
1560
> <PUBCHEM_CACTVS_HBOND_ACCEPTOR>
12
> <PUBCHEM_CACTVS_HBOND_DONOR>
3
> <PUBCHEM_CACTVS_ROTATABLE_BOND>
17
> <PUBCHEM_CACTVS_SUBSKEYS>
AAADcfB//AAAAAAAAAAAAAAAFgAAAWAAAAA8WIAAAAAAAACxwAAAHgAQAAAADTzhngY+iJPIFACoA7X3XACCgCQ3EiAI2IG4dMgKYHrA0TGdIIhmlgDYiMc6iYAOgAAAAAAQAAAAAAAAACAAAAAAAAAAAA==
> <PUBCHEM_IUPAC_OPENEYE_NAME>
[(3R)-5-[[(1S)-1-[2-(2-methoxycarbonylaziridin-1-yl)-2-oxo-acetyl]butyl]carbamoyl]-1-[(2S)-3-methyl-2-[[(2S)-3-methyl-2-(pyrazine-2-carbonylamino)butanoyl]amino]butanoyl]pyrrolidin-3-yl] 3,4-dihydro-1H-isoquinoline-2-carboxylate
> <PUBCHEM_IUPAC_CAS_NAME>
3,4-dihydro-1H-isoquinoline-2-carboxylic acid [(3R)-5-[[[(3S)-1-(2-methoxycarbonyl-1-aziridinyl)-1,2-dioxohexan-3-yl]amino]-oxomethyl]-1-[(2S)-3-methyl-2-[[(2S)-3-methyl-1-oxo-2-[[oxo(2-pyrazinyl)methyl]amino]butyl]amino]-1-oxobutyl]-3-pyrrolidinyl] ester
> <PUBCHEM_IUPAC_NAME_MARKUP>
[(3<I>R</I>)-5-[[(3<I>S</I>)-1-(2-methoxycarbonylaziridin-1-yl)-1,2-dioxohexan-3-yl]carbamoyl]-1-[(2<I>S</I>)-3-methyl-2-[[(2<I>S</I>)-3-methyl-2-(pyrazine-2-carbonylamino)butanoyl]amino]butanoyl]pyrrolidin-3-yl] 3,4-dihydro-1<I>H</I>-isoquinoline-2-carboxylate
> <PUBCHEM_IUPAC_NAME>
[(3R)-5-[[(3S)-1-(2-methoxycarbonylaziridin-1-yl)-1,2-dioxohexan-3-yl]carbamoyl]-1-[(2S)-3-methyl-2-[[(2S)-3-methyl-2-(pyrazine-2-carbonylamino)butanoyl]amino]butanoyl]pyrrolidin-3-yl] 3,4-dihydro-1H-isoquinoline-2-carboxylate
> <PUBCHEM_IUPAC_SYSTEMATIC_NAME>
[(3R)-5-[[(3S)-1-(2-methoxycarbonylaziridin-1-yl)-1,2-bis(oxidanylidene)hexan-3-yl]carbamoyl]-1-[(2S)-3-methyl-2-[[(2S)-3-methyl-2-(pyrazin-2-ylcarbonylamino)butanoyl]amino]butanoyl]pyrrolidin-3-yl] 3,4-dihydro-1H-isoquinoline-2-carboxylate
> <PUBCHEM_IUPAC_TRADITIONAL_NAME>
3,4-dihydro-1H-isoquinoline-2-carboxylic acid [(3R)-5-[[(1S)-1-[2-(2-carbomethoxyethylenimin-1-yl)-2-keto-acetyl]butyl]carbamoyl]-1-[(2S)-3-methyl-2-[[(2S)-3-methyl-2-(pyrazinoylamino)butanoyl]amino]butanoyl]pyrrolidin-3-yl] ester
> <PUBCHEM_IUPAC_INCHI>
InChI=1S/C40H52N8O10/c1-7-10-27(33(49)38(54)48-21-30(48)39(55)57-6)43-35(51)29-17-26(58-40(56)46-16-13-24-11-8-9-12-25(24)19-46)20-47(29)37(53)32(23(4)5)45-36(52)31(22(2)3)44-34(50)28-18-41-14-15-42-28/h8-9,11-12,14-15,18,22-23,26-27,29-32H,7,10,13,16-17,19-21H2,1-6H3,(H,43,51)(H,44,50)(H,45,52)/t26-,27+,29?,30?,31+,32+,48?/m1/s1
> <PUBCHEM_IUPAC_INCHIKEY>
MDXZESINJMHDRB-AKGZQQJLSA-N
> <PUBCHEM_XLOGP3_AA>
2.4
> <PUBCHEM_EXACT_MASS>
804.38063989
> <PUBCHEM_MOLECULAR_FORMULA>
C40H52N8O10
> <PUBCHEM_MOLECULAR_WEIGHT>
804.9
> <PUBCHEM_OPENEYE_CAN_SMILES>
CCCC(C(=O)C(=O)N1CC1C(=O)OC)NC(=O)C2CC(CN2C(=O)C(C(C)C)NC(=O)C(C(C)C)NC(=O)C3=NC=CN=C3)OC(=O)N4CCC5=CC=CC=C5C4
> <PUBCHEM_OPENEYE_ISO_SMILES>
CCC[C@@H](C(=O)C(=O)N1CC1C(=O)OC)NC(=O)C2C[C@H](CN2C(=O)[C@H](C(C)C)NC(=O)[C@H](C(C)C)NC(=O)C3=NC=CN=C3)OC(=O)N4CCC5=CC=CC=C5C4
> <PUBCHEM_CACTVS_TPSA>
226
> <PUBCHEM_MONOISOTOPIC_WEIGHT>
804.38063989
> <PUBCHEM_TOTAL_CHARGE>
0
> <PUBCHEM_HEAVY_ATOM_COUNT>
58
> <PUBCHEM_ATOM_DEF_STEREO_COUNT>
4
> <PUBCHEM_ATOM_UDEF_STEREO_COUNT>
2
> <PUBCHEM_BOND_DEF_STEREO_COUNT>
0
> <PUBCHEM_BOND_UDEF_STEREO_COUNT>
0
> <PUBCHEM_ISOTOPIC_ATOM_COUNT>
0
> <PUBCHEM_COMPONENT_COUNT>
1
> <PUBCHEM_CACTVS_TAUTO_COUNT>
-1
> <PUBCHEM_COORDINATE_TYPE>
1
5
255
> <PUBCHEM_BONDANNOTATIONS>
21  1  5
29  13  5
24  14  6
38  16  5
17  55  8
17  57  8
18  56  8
18  58  8
19  25  3
27  36  3
44  45  8
44  49  8
45  50  8
49  51  8
50  52  8
51  52  8
55  56  8
57  58  8
$$$$
