504413
  -OEChem-10302200282D
118123  0     1  0  0  0  0  0999 V2000
    7.2641    3.2505    0.0000 O   0  0  0  0  0  0  0  0  0  0  0  0
   11.2951    1.7096    0.0000 O   0  0  0  0  0  0  0  0  0  0  0  0
   10.6141    0.5300    0.0000 O   0  0  0  0  0  0  0  0  0  0  0  0
    7.2506   -5.5728    0.0000 O   0  0  0  0  0  0  0  0  0  0  0  0
    6.3981    1.7505    0.0000 O   0  0  0  0  0  0  0  0  0  0  0  0
    7.8562   -1.7926    0.0000 O   0  0  0  0  0  0  0  0  0  0  0  0
   10.2520   -2.9152    0.0000 O   0  0  0  0  0  0  0  0  0  0  0  0
   11.9275    5.2592    0.0000 O   0  0  0  0  0  0  0  0  0  0  0  0
   15.4989    4.7638    0.0000 O   0  0  0  0  0  0  0  0  0  0  0  0
    9.7128    2.4140    0.0000 N   0  0  0  0  0  0  0  0  0  0  0  0
    9.0318   -0.1745    0.0000 N   0  0  0  0  0  0  0  0  0  0  0  0
   12.1086    3.5366    0.0000 N   0  0  0  0  0  0  0  0  0  0  0  0
    8.6697   -3.6197    0.0000 N   0  0  0  0  0  0  0  0  0  0  0  0
    5.5321    3.2505    0.0000 N   0  0  0  0  0  0  0  0  0  0  0  0
   13.9166    5.4683    0.0000 N   0  0  0  0  0  0  0  0  0  0  0  0
   16.3124    6.5909    0.0000 N   0  0  0  0  0  0  0  0  0  0  0  0
   15.1368    8.2089    0.0000 N   0  0  0  0  0  0  0  0  0  0  0  0
    9.2128    1.5480    0.0000 C   0  0  3  0  0  0  0  0  0  0  0  0
    8.2347    1.7559    0.0000 C   0  0  0  0  0  0  0  0  0  0  0  0
    8.1301    2.7505    0.0000 C   0  0  2  0  0  0  0  0  0  0  0  0
    9.0437    3.1572    0.0000 C   0  0  0  0  0  0  0  0  0  0  0  0
   10.7073    2.5186    0.0000 C   0  0  0  0  0  0  0  0  0  0  0  0
   11.1141    3.4321    0.0000 C   0  0  2  0  0  0  0  0  0  0  0  0
    9.6196    0.6345    0.0000 C   0  0  0  0  0  0  0  0  0  0  0  0
   10.5263    4.2411    0.0000 C   0  0  0  0  0  0  0  0  0  0  0  0
    9.4385   -1.0881    0.0000 C   0  0  1  0  0  0  0  0  0  0  0  0
    7.8384   -4.7638    0.0000 C   0  0  0  0  0  0  0  0  0  0  0  0
    7.6820   -3.7761    0.0000 C   0  0  0  0  0  0  0  0  0  0  0  0
    8.8261   -4.6074    0.0000 C   0  0  0  0  0  0  0  0  0  0  0  0
    6.3981    2.7505    0.0000 C   0  0  0  0  0  0  0  0  0  0  0  0
   10.4330   -1.1926    0.0000 C   0  0  0  0  0  0  0  0  0  0  0  0
   10.9330    5.1547    0.0000 C   0  0  0  0  0  0  0  0  0  0  0  0
    9.5318    4.1366    0.0000 C   0  0  0  0  0  0  0  0  0  0  0  0
    8.8507   -1.8971    0.0000 C   0  0  0  0  0  0  0  0  0  0  0  0
    9.2574   -2.8106    0.0000 C   0  0  0  0  0  0  0  0  0  0  0  0
   12.5153    4.4502    0.0000 C   0  0  0  0  0  0  0  0  0  0  0  0
   13.5099    4.5547    0.0000 C   0  0  2  0  0  0  0  0  0  0  0  0
    5.5321    4.2505    0.0000 C   0  0  0  0  0  0  0  0  0  0  0  0
    4.6660    2.7505    0.0000 C   0  0  0  0  0  0  0  0  0  0  0  0
   10.8398   -2.1062    0.0000 C   0  0  0  0  0  0  0  0  0  0  0  0
    4.6660    4.7505    0.0000 C   0  0  0  0  0  0  0  0  0  0  0  0
   14.0976    3.7457    0.0000 C   0  0  0  0  0  0  0  0  0  0  0  0
    3.8000    3.2505    0.0000 C   0  0  0  0  0  0  0  0  0  0  0  0
    3.8000    4.2505    0.0000 C   0  0  0  0  0  0  0  0  0  0  0  0
   11.8343   -2.2107    0.0000 C   0  0  0  0  0  0  0  0  0  0  0  0
   15.0922    3.8502    0.0000 C   0  0  0  0  0  0  0  0  0  0  0  0
   13.6909    2.8322    0.0000 C   0  0  0  0  0  0  0  0  0  0  0  0
    2.9061    2.7158    0.0000 C   0  0  0  0  0  0  0  0  0  0  0  0
    2.9061    4.7851    0.0000 C   0  0  0  0  0  0  0  0  0  0  0  0
    7.6574   -6.4864    0.0000 C   0  0  0  0  0  0  0  0  0  0  0  0
    2.0000    3.2296    0.0000 C   0  0  0  0  0  0  0  0  0  0  0  0
    2.0000    4.2713    0.0000 C   0  0  0  0  0  0  0  0  0  0  0  0
   14.9111    5.5728    0.0000 C   0  0  0  0  0  0  0  0  0  0  0  0
    8.6519   -6.5909    0.0000 C   0  0  0  0  0  0  0  0  0  0  0  0
    7.0696   -7.2954    0.0000 C   0  0  0  0  0  0  0  0  0  0  0  0
   15.3178    6.4864    0.0000 C   0  0  0  0  0  0  0  0  0  0  0  0
    9.0586   -7.5044    0.0000 C   0  0  0  0  0  0  0  0  0  0  0  0
    7.4763   -8.2089    0.0000 C   0  0  0  0  0  0  0  0  0  0  0  0
    8.4708   -8.3134    0.0000 C   0  0  0  0  0  0  0  0  0  0  0  0
   14.7301    7.2954    0.0000 C   0  0  0  0  0  0  0  0  0  0  0  0
   16.7191    7.5044    0.0000 C   0  0  0  0  0  0  0  0  0  0  0  0
   16.1313    8.3134    0.0000 C   0  0  0  0  0  0  0  0  0  0  0  0
    9.8320    1.5156    0.0000 H   0  0  0  0  0  0  0  0  0  0  0  0
    7.6147    1.7559    0.0000 H   0  0  0  0  0  0  0  0  0  0  0  0
    8.1699    1.1393    0.0000 H   0  0  0  0  0  0  0  0  0  0  0  0
    7.6102    2.4128    0.0000 H   0  0  0  0  0  0  0  0  0  0  0  0
    9.5453    3.5216    0.0000 H   0  0  0  0  0  0  0  0  0  0  0  0
    8.7337    3.6941    0.0000 H   0  0  0  0  0  0  0  0  0  0  0  0
   11.4785    2.9305    0.0000 H   0  0  0  0  0  0  0  0  0  0  0  0
   10.2741    3.6747    0.0000 H   0  0  0  0  0  0  0  0  0  0  0  0
    8.4152   -0.1097    0.0000 H   0  0  0  0  0  0  0  0  0  0  0  0
    9.8029   -0.5865    0.0000 H   0  0  0  0  0  0  0  0  0  0  0  0
   12.4730    3.0351    0.0000 H   0  0  0  0  0  0  0  0  0  0  0  0
    7.2355   -4.6190    0.0000 H   0  0  0  0  0  0  0  0  0  0  0  0
    7.5850   -3.1637    0.0000 H   0  0  0  0  0  0  0  0  0  0  0  0
    7.0696   -3.8731    0.0000 H   0  0  0  0  0  0  0  0  0  0  0  0
    8.9231   -5.2197    0.0000 H   0  0  0  0  0  0  0  0  0  0  0  0
    9.4385   -4.5104    0.0000 H   0  0  0  0  0  0  0  0  0  0  0  0
   11.0346   -1.0426    0.0000 H   0  0  0  0  0  0  0  0  0  0  0  0
   10.3898   -0.5741    0.0000 H   0  0  0  0  0  0  0  0  0  0  0  0
   11.4994    4.9025    0.0000 H   0  0  0  0  0  0  0  0  0  0  0  0
   11.1852    5.7211    0.0000 H   0  0  0  0  0  0  0  0  0  0  0  0
   10.3666    5.4069    0.0000 H   0  0  0  0  0  0  0  0  0  0  0  0
    9.4670    4.7532    0.0000 H   0  0  0  0  0  0  0  0  0  0  0  0
    8.9152    4.0718    0.0000 H   0  0  0  0  0  0  0  0  0  0  0  0
    9.5966    3.5200    0.0000 H   0  0  0  0  0  0  0  0  0  0  0  0
   13.1454    5.0563    0.0000 H   0  0  0  0  0  0  0  0  0  0  0  0
    6.1426    4.1428    0.0000 H   0  0  0  0  0  0  0  0  0  0  0  0
    5.7441    4.8331    0.0000 H   0  0  0  0  0  0  0  0  0  0  0  0
    4.2675    2.2755    0.0000 H   0  0  0  0  0  0  0  0  0  0  0  0
    5.0646    2.2755    0.0000 H   0  0  0  0  0  0  0  0  0  0  0  0
   10.2382   -2.2562    0.0000 H   0  0  0  0  0  0  0  0  0  0  0  0
   10.8830   -2.7246    0.0000 H   0  0  0  0  0  0  0  0  0  0  0  0
    5.0646    5.2254    0.0000 H   0  0  0  0  0  0  0  0  0  0  0  0
    4.2675    5.2254    0.0000 H   0  0  0  0  0  0  0  0  0  0  0  0
   14.3498    4.3121    0.0000 H   0  0  0  0  0  0  0  0  0  0  0  0
   13.5522    5.9699    0.0000 H   0  0  0  0  0  0  0  0  0  0  0  0
   11.7695   -2.8273    0.0000 H   0  0  0  0  0  0  0  0  0  0  0  0
   12.4509   -2.2755    0.0000 H   0  0  0  0  0  0  0  0  0  0  0  0
   11.8991   -1.5941    0.0000 H   0  0  0  0  0  0  0  0  0  0  0  0
   15.1570    3.2336    0.0000 H   0  0  0  0  0  0  0  0  0  0  0  0
   15.7088    3.9150    0.0000 H   0  0  0  0  0  0  0  0  0  0  0  0
   15.0274    4.4668    0.0000 H   0  0  0  0  0  0  0  0  0  0  0  0
   13.1245    3.0843    0.0000 H   0  0  0  0  0  0  0  0  0  0  0  0
   13.4387    2.2658    0.0000 H   0  0  0  0  0  0  0  0  0  0  0  0
   14.2573    2.5800    0.0000 H   0  0  0  0  0  0  0  0  0  0  0  0
    2.9132    2.0958    0.0000 H   0  0  0  0  0  0  0  0  0  0  0  0
    2.9132    5.4051    0.0000 H   0  0  0  0  0  0  0  0  0  0  0  0
    1.4643    2.9176    0.0000 H   0  0  0  0  0  0  0  0  0  0  0  0
    1.4643    4.5833    0.0000 H   0  0  0  0  0  0  0  0  0  0  0  0
    9.0163   -6.0893    0.0000 H   0  0  0  0  0  0  0  0  0  0  0  0
    6.4530   -7.2306    0.0000 H   0  0  0  0  0  0  0  0  0  0  0  0
    9.6752   -7.5692    0.0000 H   0  0  0  0  0  0  0  0  0  0  0  0
    7.1119   -8.7105    0.0000 H   0  0  0  0  0  0  0  0  0  0  0  0
    8.7230   -8.8798    0.0000 H   0  0  0  0  0  0  0  0  0  0  0  0
   14.1135    7.2306    0.0000 H   0  0  0  0  0  0  0  0  0  0  0  0
   17.3357    7.5692    0.0000 H   0  0  0  0  0  0  0  0  0  0  0  0
   16.3835    8.8798    0.0000 H   0  0  0  0  0  0  0  0  0  0  0  0
 20  1  1  1  0  0  0
  1 30  1  0  0  0  0
  2 22  2  0  0  0  0
  3 24  2  0  0  0  0
  4 27  1  0  0  0  0
  4 50  1  0  0  0  0
  5 30  2  0  0  0  0
  6 34  2  0  0  0  0
  7 35  2  0  0  0  0
  8 36  2  0  0  0  0
  9 53  2  0  0  0  0
 10 18  1  0  0  0  0
 10 21  1  0  0  0  0
 10 22  1  0  0  0  0
 11 24  1  0  0  0  0
 26 11  1  1  0  0  0
 11 71  1  0  0  0  0
 23 12  1  6  0  0  0
 12 36  1  0  0  0  0
 12 73  1  0  0  0  0
 13 28  1  0  0  0  0
 13 29  1  0  0  0  0
 13 35  1  0  0  0  0
 14 30  1  0  0  0  0
 14 38  1  0  0  0  0
 14 39  1  0  0  0  0
 37 15  1  1  0  0  0
 15 53  1  0  0  0  0
 15 97  1  0  0  0  0
 16 56  2  0  0  0  0
 16 61  1  0  0  0  0
 17 60  2  0  0  0  0
 17 62  1  0  0  0  0
 18 19  1  0  0  0  0
 18 24  1  0  0  0  0
 18 63  1  0  0  0  0
 19 20  1  0  0  0  0
 19 64  1  0  0  0  0
 19 65  1  0  0  0  0
 20 21  1  0  0  0  0
 20 66  1  0  0  0  0
 21 67  1  0  0  0  0
 21 68  1  0  0  0  0
 22 23  1  0  0  0  0
 23 25  1  0  0  0  0
 23 69  1  0  0  0  0
 25 32  1  0  0  0  0
 25 33  1  0  0  0  0
 25 70  1  0  0  0  0
 26 31  1  0  0  0  0
 26 34  1  0  0  0  0
 26 72  1  0  0  0  0
 27 28  1  0  0  0  0
 27 29  1  0  0  0  0
 27 74  1  0  0  0  0
 28 75  1  0  0  0  0
 28 76  1  0  0  0  0
 29 77  1  0  0  0  0
 29 78  1  0  0  0  0
 31 40  1  0  0  0  0
 31 79  1  0  0  0  0
 31 80  1  0  0  0  0
 32 81  1  0  0  0  0
 32 82  1  0  0  0  0
 32 83  1  0  0  0  0
 33 84  1  0  0  0  0
 33 85  1  0  0  0  0
 33 86  1  0  0  0  0
 34 35  1  0  0  0  0
 36 37  1  0  0  0  0
 37 42  1  0  0  0  0
 37 87  1  0  0  0  0
 38 41  1  0  0  0  0
 38 88  1  0  0  0  0
 38 89  1  0  0  0  0
 39 43  1  0  0  0  0
 39 90  1  0  0  0  0
 39 91  1  0  0  0  0
 40 45  1  0  0  0  0
 40 92  1  0  0  0  0
 40 93  1  0  0  0  0
 41 44  1  0  0  0  0
 41 94  1  0  0  0  0
 41 95  1  0  0  0  0
 42 46  1  0  0  0  0
 42 47  1  0  0  0  0
 42 96  1  0  0  0  0
 43 44  1  0  0  0  0
 43 48  2  0  0  0  0
 44 49  2  0  0  0  0
 45 98  1  0  0  0  0
 45 99  1  0  0  0  0
 45100  1  0  0  0  0
 46101  1  0  0  0  0
 46102  1  0  0  0  0
 46103  1  0  0  0  0
 47104  1  0  0  0  0
 47105  1  0  0  0  0
 47106  1  0  0  0  0
 48 51  1  0  0  0  0
 48107  1  0  0  0  0
 49 52  1  0  0  0  0
 49108  1  0  0  0  0
 50 54  2  0  0  0  0
 50 55  1  0  0  0  0
 51 52  2  0  0  0  0
 51109  1  0  0  0  0
 52110  1  0  0  0  0
 53 56  1  0  0  0  0
 54 57  1  0  0  0  0
 54111  1  0  0  0  0
 55 58  2  0  0  0  0
 55112  1  0  0  0  0
 56 60  1  0  0  0  0
 57 59  2  0  0  0  0
 57113  1  0  0  0  0
 58 59  1  0  0  0  0
 58114  1  0  0  0  0
 59115  1  0  0  0  0
 60116  1  0  0  0  0
 61 62  2  0  0  0  0
 61117  1  0  0  0  0
 62118  1  0  0  0  0
M  END
> <PUBCHEM_COMPOUND_CID>
504413
> <PUBCHEM_COMPOUND_CANONICALIZED>
1
> <PUBCHEM_CACTVS_COMPLEXITY>
1600
> <PUBCHEM_CACTVS_HBOND_ACCEPTOR>
11
> <PUBCHEM_CACTVS_HBOND_DONOR>
3
> <PUBCHEM_CACTVS_ROTATABLE_BOND>
17
> <PUBCHEM_CACTVS_SUBSKEYS>
AAADcfB//AAAAAAAAAAAAAAAAABYAWAAAAA8eIEAAAAAAACx0AAAHgAQAAAADTzhngY+jpPIFACoA7V3XACCiCQ3MiAI2IG+fMgOZnrE8TufOKjm1hHYqMe6yYAOgAAAAAAQAAAAAAAAACAAAAAAAAAAAA==
> <PUBCHEM_IUPAC_OPENEYE_NAME>
[(3R)-1-[(2S)-3-methyl-2-[[(2S)-3-methyl-2-(pyrazine-2-carbonylamino)butanoyl]amino]butanoyl]-5-[[(1S)-1-[2-oxo-2-(3-phenoxyazetidin-1-yl)acetyl]butyl]carbamoyl]pyrrolidin-3-yl] 3,4-dihydro-1H-isoquinoline-2-carboxylate
> <PUBCHEM_IUPAC_CAS_NAME>
3,4-dihydro-1H-isoquinoline-2-carboxylic acid [(3R)-5-[[[(3S)-1,2-dioxo-1-(3-phenoxy-1-azetidinyl)hexan-3-yl]amino]-oxomethyl]-1-[(2S)-3-methyl-2-[[(2S)-3-methyl-1-oxo-2-[[oxo(2-pyrazinyl)methyl]amino]butyl]amino]-1-oxobutyl]-3-pyrrolidinyl] ester
> <PUBCHEM_IUPAC_NAME_MARKUP>
[(3<I>R</I>)-5-[[(3<I>S</I>)-1,2-dioxo-1-(3-phenoxyazetidin-1-yl)hexan-3-yl]carbamoyl]-1-[(2<I>S</I>)-3-methyl-2-[[(2<I>S</I>)-3-methyl-2-(pyrazine-2-carbonylamino)butanoyl]amino]butanoyl]pyrrolidin-3-yl] 3,4-dihydro-1<I>H</I>-isoquinoline-2-carboxylate
> <PUBCHEM_IUPAC_NAME>
[(3R)-5-[[(3S)-1,2-dioxo-1-(3-phenoxyazetidin-1-yl)hexan-3-yl]carbamoyl]-1-[(2S)-3-methyl-2-[[(2S)-3-methyl-2-(pyrazine-2-carbonylamino)butanoyl]amino]butanoyl]pyrrolidin-3-yl] 3,4-dihydro-1H-isoquinoline-2-carboxylate
> <PUBCHEM_IUPAC_SYSTEMATIC_NAME>
[(3R)-5-[[(3S)-1,2-bis(oxidanylidene)-1-(3-phenoxyazetidin-1-yl)hexan-3-yl]carbamoyl]-1-[(2S)-3-methyl-2-[[(2S)-3-methyl-2-(pyrazin-2-ylcarbonylamino)butanoyl]amino]butanoyl]pyrrolidin-3-yl] 3,4-dihydro-1H-isoquinoline-2-carboxylate
> <PUBCHEM_IUPAC_TRADITIONAL_NAME>
3,4-dihydro-1H-isoquinoline-2-carboxylic acid [(3R)-5-[[(1S)-1-[2-keto-2-(3-phenoxyazetidin-1-yl)acetyl]butyl]carbamoyl]-1-[(2S)-3-methyl-2-[[(2S)-3-methyl-2-(pyrazinoylamino)butanoyl]amino]butanoyl]pyrrolidin-3-yl] ester
> <PUBCHEM_IUPAC_INCHI>
InChI=1S/C45H56N8O9/c1-6-12-34(39(54)44(59)52-24-33(25-52)61-31-15-8-7-9-16-31)48-41(56)36-21-32(62-45(60)51-20-17-29-13-10-11-14-30(29)23-51)26-53(36)43(58)38(28(4)5)50-42(57)37(27(2)3)49-40(55)35-22-46-18-19-47-35/h7-11,13-16,18-19,22,27-28,32-34,36-38H,6,12,17,20-21,23-26H2,1-5H3,(H,48,56)(H,49,55)(H,50,57)/t32-,34+,36?,37+,38+/m1/s1
> <PUBCHEM_IUPAC_INCHIKEY>
PSWMWDPNLZLFDB-QBKLWTTESA-N
> <PUBCHEM_XLOGP3_AA>
4.2
> <PUBCHEM_EXACT_MASS>
852.41702539
> <PUBCHEM_MOLECULAR_FORMULA>
C45H56N8O9
> <PUBCHEM_MOLECULAR_WEIGHT>
853.0
> <PUBCHEM_OPENEYE_CAN_SMILES>
CCCC(C(=O)C(=O)N1CC(C1)OC2=CC=CC=C2)NC(=O)C3CC(CN3C(=O)C(C(C)C)NC(=O)C(C(C)C)NC(=O)C4=NC=CN=C4)OC(=O)N5CCC6=CC=CC=C6C5
> <PUBCHEM_OPENEYE_ISO_SMILES>
CCC[C@@H](C(=O)C(=O)N1CC(C1)OC2=CC=CC=C2)NC(=O)C3C[C@H](CN3C(=O)[C@H](C(C)C)NC(=O)[C@H](C(C)C)NC(=O)C4=NC=CN=C4)OC(=O)N5CCC6=CC=CC=C6C5
> <PUBCHEM_CACTVS_TPSA>
210
> <PUBCHEM_MONOISOTOPIC_WEIGHT>
852.41702539
> <PUBCHEM_TOTAL_CHARGE>
0
> <PUBCHEM_HEAVY_ATOM_COUNT>
62
> <PUBCHEM_ATOM_DEF_STEREO_COUNT>
4
> <PUBCHEM_ATOM_UDEF_STEREO_COUNT>
1
> <PUBCHEM_BOND_DEF_STEREO_COUNT>
0
> <PUBCHEM_BOND_UDEF_STEREO_COUNT>
0
> <PUBCHEM_ISOTOPIC_ATOM_COUNT>
0
> <PUBCHEM_COMPONENT_COUNT>
1
> <PUBCHEM_CACTVS_TAUTO_COUNT>
-1
> <PUBCHEM_COORDINATE_TYPE>
1
5
255
> <PUBCHEM_BONDANNOTATIONS>
20  1  5
26  11  5
23  12  6
37  15  5
16  56  8
16  61  8
17  60  8
17  62  8
18  24  3
43  44  8
43  48  8
44  49  8
48  51  8
49  52  8
50  54  8
50  55  8
51  52  8
54  57  8
55  58  8
56  60  8
57  59  8
58  59  8
61  62  8
$$$$
