504502
  -OEChem-10302200282D
 47 49  0     1  0  0  0  0  0999 V2000
    7.6316   -1.7086    0.0000 F   0  0  0  0  0  0  0  0  0  0  0  0
    7.8999   -3.0972    0.0000 F   0  0  0  0  0  0  0  0  0  0  0  0
    6.5114   -3.3655    0.0000 F   0  0  0  0  0  0  0  0  0  0  0  0
    2.0000   -1.0067    0.0000 O   0  0  0  0  0  0  0  0  0  0  0  0
    5.0424    1.3926    0.0000 N   0  0  3  0  0  0  0  0  0  0  0  0
    3.6414   -0.3642    0.0000 N   0  0  0  0  0  0  0  0  0  0  0  0
    3.4701   -1.9792    0.0000 N   0  0  0  0  0  0  0  0  0  0  0  0
    4.0424    1.3926    0.0000 C   0  0  2  0  0  0  0  0  0  0  0  0
    5.4763    2.2935    0.0000 C   0  0  0  0  0  0  0  0  0  0  0  0
    3.4189    0.6107    0.0000 C   0  0  0  0  0  0  0  0  0  0  0  0
    5.6659    0.6107    0.0000 C   0  0  0  0  0  0  0  0  0  0  0  0
    6.4735    2.3683    0.0000 C   0  0  0  0  0  0  0  0  0  0  0  0
    4.5424   -0.7981    0.0000 C   0  0  0  0  0  0  0  0  0  0  0  0
    5.4434   -0.3642    0.0000 C   0  0  0  0  0  0  0  0  0  0  0  0
    3.6085    2.2935    0.0000 C   0  0  0  0  0  0  0  0  0  0  0  0
    4.4485   -1.8355    0.0000 C   0  0  0  0  0  0  0  0  0  0  0  0
    2.9944   -1.1122    0.0000 C   0  0  0  0  0  0  0  0  0  0  0  0
    6.3129   -0.9376    0.0000 C   0  0  0  0  0  0  0  0  0  0  0  0
    6.3988    3.3655    0.0000 C   0  0  0  0  0  0  0  0  0  0  0  0
    6.5482    1.3711    0.0000 C   0  0  0  0  0  0  0  0  0  0  0  0
    7.4707    2.4430    0.0000 C   0  0  0  0  0  0  0  0  0  0  0  0
    5.3046   -2.4289    0.0000 C   0  0  0  0  0  0  0  0  0  0  0  0
    6.2431   -1.9769    0.0000 C   0  0  0  0  0  0  0  0  0  0  0  0
    7.0715   -2.5370    0.0000 C   0  0  0  0  0  0  0  0  0  0  0  0
    7.9046    3.3440    0.0000 C   0  0  0  0  0  0  0  0  0  0  0  0
    4.3722    1.9175    0.0000 H   0  0  0  0  0  0  0  0  0  0  0  0
    5.5380    2.9104    0.0000 H   0  0  0  0  0  0  0  0  0  0  0  0
    4.8794    2.4614    0.0000 H   0  0  0  0  0  0  0  0  0  0  0  0
    3.0323    1.0955    0.0000 H   0  0  0  0  0  0  0  0  0  0  0  0
    2.8603    0.3417    0.0000 H   0  0  0  0  0  0  0  0  0  0  0  0
    6.2245    0.3417    0.0000 H   0  0  0  0  0  0  0  0  0  0  0  0
    6.0524    1.0955    0.0000 H   0  0  0  0  0  0  0  0  0  0  0  0
    4.1671    2.5625    0.0000 H   0  0  0  0  0  0  0  0  0  0  0  0
    3.3395    2.8521    0.0000 H   0  0  0  0  0  0  0  0  0  0  0  0
    3.0499    2.0245    0.0000 H   0  0  0  0  0  0  0  0  0  0  0  0
    6.8684   -0.6622    0.0000 H   0  0  0  0  0  0  0  0  0  0  0  0
    7.0170    3.4118    0.0000 H   0  0  0  0  0  0  0  0  0  0  0  0
    6.3524    3.9837    0.0000 H   0  0  0  0  0  0  0  0  0  0  0  0
    5.7805    3.3191    0.0000 H   0  0  0  0  0  0  0  0  0  0  0  0
    5.9299    1.3247    0.0000 H   0  0  0  0  0  0  0  0  0  0  0  0
    6.5945    0.7528    0.0000 H   0  0  0  0  0  0  0  0  0  0  0  0
    7.1665    1.4174    0.0000 H   0  0  0  0  0  0  0  0  0  0  0  0
    3.1940   -2.5343    0.0000 H   0  0  0  0  0  0  0  0  0  0  0  0
    7.8199    1.9307    0.0000 H   0  0  0  0  0  0  0  0  0  0  0  0
    5.2559   -3.0470    0.0000 H   0  0  0  0  0  0  0  0  0  0  0  0
    8.5228    3.3903    0.0000 H   0  0  0  0  0  0  0  0  0  0  0  0
    7.5553    3.8562    0.0000 H   0  0  0  0  0  0  0  0  0  0  0  0
  1 24  1  0  0  0  0
  2 24  1  0  0  0  0
  3 24  1  0  0  0  0
  4 17  2  0  0  0  0
  5  8  1  0  0  0  0
  5  9  1  0  0  0  0
  5 11  1  0  0  0  0
  6 10  1  0  0  0  0
  6 13  1  0  0  0  0
  6 17  1  0  0  0  0
  7 16  1  0  0  0  0
  7 17  1  0  0  0  0
  7 43  1  0  0  0  0
  8 10  1  0  0  0  0
  8 15  1  6  0  0  0
  8 26  1  0  0  0  0
  9 12  1  0  0  0  0
  9 27  1  0  0  0  0
  9 28  1  0  0  0  0
 10 29  1  0  0  0  0
 10 30  1  0  0  0  0
 11 14  1  0  0  0  0
 11 31  1  0  0  0  0
 11 32  1  0  0  0  0
 12 19  1  0  0  0  0
 12 20  1  0  0  0  0
 12 21  1  0  0  0  0
 13 14  2  0  0  0  0
 13 16  1  0  0  0  0
 14 18  1  0  0  0  0
 15 33  1  0  0  0  0
 15 34  1  0  0  0  0
 15 35  1  0  0  0  0
 16 22  2  0  0  0  0
 18 23  2  0  0  0  0
 18 36  1  0  0  0  0
 19 37  1  0  0  0  0
 19 38  1  0  0  0  0
 19 39  1  0  0  0  0
 20 40  1  0  0  0  0
 20 41  1  0  0  0  0
 20 42  1  0  0  0  0
 21 25  2  0  0  0  0
 21 44  1  0  0  0  0
 22 23  1  0  0  0  0
 22 45  1  0  0  0  0
 23 24  1  0  0  0  0
 25 46  1  0  0  0  0
 25 47  1  0  0  0  0
M  END
> <PUBCHEM_COMPOUND_CID>
504502
> <PUBCHEM_COMPOUND_CANONICALIZED>
1
> <PUBCHEM_CACTVS_COMPLEXITY>
548
> <PUBCHEM_CACTVS_HBOND_ACCEPTOR>
5
> <PUBCHEM_CACTVS_HBOND_DONOR>
1
> <PUBCHEM_CACTVS_ROTATABLE_BOND>
3
> <PUBCHEM_CACTVS_SUBSKEYS>
AAADceB7IYAAAAAAAAAAAAAAAAAAAWAAAAAwAAAABYAAAFixAAAAHwAQAAAADijBGBQzwIPAAACIAiRCUACCAAAhAgAIiAAIdIiIYCLA0ZGUIAholgLIyCcQgEAOCAACQAACACAQAASAAAQAQAAAAAAAAA==
> <PUBCHEM_IUPAC_OPENEYE_NAME>
(11S)-10-(2,2-dimethylbut-3-enyl)-11-methyl-6-(trifluoromethyl)-1,3,10-triazatricyclo[6.4.1.04,13]trideca-4,6,8(13)-trien-2-one
> <PUBCHEM_IUPAC_CAS_NAME>
(11S)-10-(2,2-dimethylbut-3-enyl)-11-methyl-6-(trifluoromethyl)-1,3,10-triazatricyclo[6.4.1.04,13]trideca-4,6,8(13)-trien-2-one
> <PUBCHEM_IUPAC_NAME_MARKUP>
(11<I>S</I>)-10-(2,2-dimethylbut-3-enyl)-11-methyl-6-(trifluoromethyl)-1,3,10-triazatricyclo[6.4.1.0<SUP>4,13</SUP>]trideca-4,6,8(13)-trien-2-one
> <PUBCHEM_IUPAC_NAME>
(11S)-10-(2,2-dimethylbut-3-enyl)-11-methyl-6-(trifluoromethyl)-1,3,10-triazatricyclo[6.4.1.04,13]trideca-4,6,8(13)-trien-2-one
> <PUBCHEM_IUPAC_SYSTEMATIC_NAME>
(11S)-10-(2,2-dimethylbut-3-enyl)-11-methyl-6-(trifluoromethyl)-1,3,10-triazatricyclo[6.4.1.04,13]trideca-4,6,8(13)-trien-2-one
> <PUBCHEM_IUPAC_TRADITIONAL_NAME>
(11S)-10-(2,2-dimethylbut-3-enyl)-11-methyl-6-(trifluoromethyl)-1,3,10-triazatricyclo[6.4.1.04,13]trideca-4,6,8(13)-trien-2-one
> <PUBCHEM_IUPAC_INCHI>
InChI=1S/C18H22F3N3O/c1-5-17(3,4)10-23-9-12-6-13(18(19,20)21)7-14-15(12)24(8-11(23)2)16(25)22-14/h5-7,11H,1,8-10H2,2-4H3,(H,22,25)/t11-/m0/s1
> <PUBCHEM_IUPAC_INCHIKEY>
JYJVNBPVSDSZNI-NSHDSACASA-N
> <PUBCHEM_XLOGP3_AA>
3.7
> <PUBCHEM_EXACT_MASS>
353.17149682
> <PUBCHEM_MOLECULAR_FORMULA>
C18H22F3N3O
> <PUBCHEM_MOLECULAR_WEIGHT>
353.4
> <PUBCHEM_OPENEYE_CAN_SMILES>
CC1CN2C3=C(CN1CC(C)(C)C=C)C=C(C=C3NC2=O)C(F)(F)F
> <PUBCHEM_OPENEYE_ISO_SMILES>
C[C@H]1CN2C3=C(CN1CC(C)(C)C=C)C=C(C=C3NC2=O)C(F)(F)F
> <PUBCHEM_CACTVS_TPSA>
35.6
> <PUBCHEM_MONOISOTOPIC_WEIGHT>
353.17149682
> <PUBCHEM_TOTAL_CHARGE>
0
> <PUBCHEM_HEAVY_ATOM_COUNT>
25
> <PUBCHEM_ATOM_DEF_STEREO_COUNT>
1
> <PUBCHEM_ATOM_UDEF_STEREO_COUNT>
0
> <PUBCHEM_BOND_DEF_STEREO_COUNT>
0
> <PUBCHEM_BOND_UDEF_STEREO_COUNT>
0
> <PUBCHEM_ISOTOPIC_ATOM_COUNT>
0
> <PUBCHEM_COMPONENT_COUNT>
1
> <PUBCHEM_CACTVS_TAUTO_COUNT>
-1
> <PUBCHEM_COORDINATE_TYPE>
1
5
255
> <PUBCHEM_BONDANNOTATIONS>
13  14  8
13  16  8
14  18  8
16  22  8
18  23  8
22  23  8
6  13  8
6  17  8
7  16  8
7  17  8
8  15  6
$$$$
