504551
  -OEChem-10302200282D
 20 20  0     1  0  0  0  0  0999 V2000
    3.3090   -2.0194    0.0000 S   0  0  0  0  0  0  0  0  0  0  0  0
    4.5411    0.5194    0.0000 O   0  0  0  0  0  0  0  0  0  0  0  0
    2.8090    0.5194    0.0000 N   0  0  0  0  0  0  0  0  0  0  0  0
    2.8090   -0.4806    0.0000 C   0  0  3  0  0  0  0  0  0  0  0  0
    2.0000   -1.0684    0.0000 C   0  0  0  0  0  0  0  0  0  0  0  0
    3.6180   -1.0684    0.0000 C   0  0  0  0  0  0  0  0  0  0  0  0
    2.3090   -2.0194    0.0000 C   0  0  0  0  0  0  0  0  0  0  0  0
    3.6750    1.0194    0.0000 C   0  0  0  0  0  0  0  0  0  0  0  0
    3.6750    2.0194    0.0000 C   0  0  0  0  0  0  0  0  0  0  0  0
    3.3614   -0.1991    0.0000 H   0  0  0  0  0  0  0  0  0  0  0  0
    1.6900   -0.5314    0.0000 H   0  0  0  0  0  0  0  0  0  0  0  0
    1.4336   -1.3205    0.0000 H   0  0  0  0  0  0  0  0  0  0  0  0
    4.1844   -1.3205    0.0000 H   0  0  0  0  0  0  0  0  0  0  0  0
    3.9280   -0.5314    0.0000 H   0  0  0  0  0  0  0  0  0  0  0  0
    1.7026   -2.1483    0.0000 H   0  0  0  0  0  0  0  0  0  0  0  0
    2.3738   -2.6360    0.0000 H   0  0  0  0  0  0  0  0  0  0  0  0
    2.2721    0.8294    0.0000 H   0  0  0  0  0  0  0  0  0  0  0  0
    4.2950    2.0194    0.0000 H   0  0  0  0  0  0  0  0  0  0  0  0
    3.6750    2.6394    0.0000 H   0  0  0  0  0  0  0  0  0  0  0  0
    3.0550    2.0194    0.0000 H   0  0  0  0  0  0  0  0  0  0  0  0
  1  6  1  0  0  0  0
  1  7  1  0  0  0  0
  2  8  2  0  0  0  0
  3  4  1  0  0  0  0
  3  8  1  0  0  0  0
  3 17  1  0  0  0  0
  4  5  1  0  0  0  0
  4  6  1  0  0  0  0
  4 10  1  0  0  0  0
  5  7  1  0  0  0  0
  5 11  1  0  0  0  0
  5 12  1  0  0  0  0
  6 13  1  0  0  0  0
  6 14  1  0  0  0  0
  7 15  1  0  0  0  0
  7 16  1  0  0  0  0
  8  9  1  0  0  0  0
  9 18  1  0  0  0  0
  9 19  1  0  0  0  0
  9 20  1  0  0  0  0
M  END
> <PUBCHEM_COMPOUND_CID>
504551
> <PUBCHEM_COMPOUND_CANONICALIZED>
1
> <PUBCHEM_CACTVS_COMPLEXITY>
116
> <PUBCHEM_CACTVS_HBOND_ACCEPTOR>
2
> <PUBCHEM_CACTVS_HBOND_DONOR>
1
> <PUBCHEM_CACTVS_ROTATABLE_BOND>
1
> <PUBCHEM_CACTVS_SUBSKEYS>
AAADccBiIABAAAAAAAAAAAAAAAAAASAAAAAAAAAAAAAAAAAAAAAAHgQQAAAACCjFwASCAALAAAgIAAEQEAAAAAAAABAAAIAIAAAAAAAgAAAEAAAAFgCgAAAAAAAAAAAAAAAAAAAAAAAAAAAAAAAAAAAAAA==
> <PUBCHEM_IUPAC_OPENEYE_NAME>
N-tetrahydrothiophen-3-ylacetamide
> <PUBCHEM_IUPAC_CAS_NAME>
N-(3-thiolanyl)acetamide
> <PUBCHEM_IUPAC_NAME_MARKUP>
<I>N</I>-(thiolan-3-yl)acetamide
> <PUBCHEM_IUPAC_NAME>
N-(thiolan-3-yl)acetamide
> <PUBCHEM_IUPAC_SYSTEMATIC_NAME>
N-(thiolan-3-yl)ethanamide
> <PUBCHEM_IUPAC_TRADITIONAL_NAME>
N-tetrahydrothiophen-3-ylacetamide
> <PUBCHEM_IUPAC_INCHI>
InChI=1S/C6H11NOS/c1-5(8)7-6-2-3-9-4-6/h6H,2-4H2,1H3,(H,7,8)
> <PUBCHEM_IUPAC_INCHIKEY>
VLMYQTZGRRSFJB-UHFFFAOYSA-N
> <PUBCHEM_XLOGP3_AA>
0.4
> <PUBCHEM_EXACT_MASS>
145.05613515
> <PUBCHEM_MOLECULAR_FORMULA>
C6H11NOS
> <PUBCHEM_MOLECULAR_WEIGHT>
145.23
> <PUBCHEM_OPENEYE_CAN_SMILES>
CC(=O)NC1CCSC1
> <PUBCHEM_OPENEYE_ISO_SMILES>
CC(=O)NC1CCSC1
> <PUBCHEM_CACTVS_TPSA>
54.4
> <PUBCHEM_MONOISOTOPIC_WEIGHT>
145.05613515
> <PUBCHEM_TOTAL_CHARGE>
0
> <PUBCHEM_HEAVY_ATOM_COUNT>
9
> <PUBCHEM_ATOM_DEF_STEREO_COUNT>
0
> <PUBCHEM_ATOM_UDEF_STEREO_COUNT>
1
> <PUBCHEM_BOND_DEF_STEREO_COUNT>
0
> <PUBCHEM_BOND_UDEF_STEREO_COUNT>
0
> <PUBCHEM_ISOTOPIC_ATOM_COUNT>
0
> <PUBCHEM_COMPONENT_COUNT>
1
> <PUBCHEM_CACTVS_TAUTO_COUNT>
-1
> <PUBCHEM_COORDINATE_TYPE>
1
5
255
> <PUBCHEM_BONDANNOTATIONS>
4  3  3
$$$$
