504548
  -OEChem-10302200282D
 43 43  0     1  0  0  0  0  0999 V2000
    5.6270    1.4172    0.0000 S   0  0  0  0  0  0  0  0  0  0  0  0
    3.1590   -0.8210    0.0000 O   0  0  0  0  0  0  0  0  0  0  0  0
    2.6237    0.8263    0.0000 O   0  0  0  0  0  0  0  0  0  0  0  0
    8.0460   -1.1300    0.0000 O   0  0  0  0  0  0  0  0  0  0  0  0
    6.3518   -1.4902    0.0000 O   0  0  0  0  0  0  0  0  0  0  0  0
    9.3244    1.1864    0.0000 O   0  0  0  0  0  0  0  0  0  0  0  0
    5.1270   -0.1216    0.0000 N   0  0  0  0  0  0  0  0  0  0  0  0
    7.6302    0.8263    0.0000 N   0  0  0  0  0  0  0  0  0  0  0  0
    4.6270    1.4172    0.0000 C   0  0  0  0  0  0  0  0  0  0  0  0
    4.3179    0.4661    0.0000 C   0  0  3  0  0  0  0  0  0  0  0  0
    5.9360    0.4661    0.0000 C   0  0  3  0  0  0  0  0  0  0  0  0
    6.8870    0.1571    0.0000 C   0  0  3  0  0  0  0  0  0  0  0  0
    4.6270    2.4172    0.0000 C   0  0  0  0  0  0  0  0  0  0  0  0
    3.6759    1.7262    0.0000 C   0  0  0  0  0  0  0  0  0  0  0  0
    3.3669    0.1571    0.0000 C   0  0  0  0  0  0  0  0  0  0  0  0
    7.0949   -0.8210    0.0000 C   0  0  0  0  0  0  0  0  0  0  0  0
    2.2079   -1.1300    0.0000 C   0  0  0  0  0  0  0  0  0  0  0  0
    8.5812    0.5172    0.0000 C   0  0  0  0  0  0  0  0  0  0  0  0
    8.2539   -2.1082    0.0000 C   0  0  0  0  0  0  0  0  0  0  0  0
    2.0000   -2.1082    0.0000 C   0  0  0  0  0  0  0  0  0  0  0  0
    9.2050   -2.4172    0.0000 C   0  0  0  0  0  0  0  0  0  0  0  0
    4.2210   -0.1462    0.0000 H   0  0  0  0  0  0  0  0  0  0  0  0
    6.0330   -0.1462    0.0000 H   0  0  0  0  0  0  0  0  0  0  0  0
    5.1270   -0.7416    0.0000 H   0  0  0  0  0  0  0  0  0  0  0  0
    6.7581    0.7636    0.0000 H   0  0  0  0  0  0  0  0  0  0  0  0
    5.2470    2.4172    0.0000 H   0  0  0  0  0  0  0  0  0  0  0  0
    4.6270    3.0372    0.0000 H   0  0  0  0  0  0  0  0  0  0  0  0
    4.0070    2.4172    0.0000 H   0  0  0  0  0  0  0  0  0  0  0  0
    3.8675    2.3159    0.0000 H   0  0  0  0  0  0  0  0  0  0  0  0
    3.0862    1.9178    0.0000 H   0  0  0  0  0  0  0  0  0  0  0  0
    3.4843    1.1366    0.0000 H   0  0  0  0  0  0  0  0  0  0  0  0
    7.5013    1.4327    0.0000 H   0  0  0  0  0  0  0  0  0  0  0  0
    2.1216   -0.5161    0.0000 H   0  0  0  0  0  0  0  0  0  0  0  0
    1.5883   -1.1084    0.0000 H   0  0  0  0  0  0  0  0  0  0  0  0
    8.7101   -0.0892    0.0000 H   0  0  0  0  0  0  0  0  0  0  0  0
    7.6343   -2.1298    0.0000 H   0  0  0  0  0  0  0  0  0  0  0  0
    8.1676   -2.7222    0.0000 H   0  0  0  0  0  0  0  0  0  0  0  0
    1.3936   -1.9793    0.0000 H   0  0  0  0  0  0  0  0  0  0  0  0
    1.8711   -2.7146    0.0000 H   0  0  0  0  0  0  0  0  0  0  0  0
    2.6064   -2.2371    0.0000 H   0  0  0  0  0  0  0  0  0  0  0  0
    9.0134   -3.0069    0.0000 H   0  0  0  0  0  0  0  0  0  0  0  0
    9.7946   -2.6088    0.0000 H   0  0  0  0  0  0  0  0  0  0  0  0
    9.3966   -1.8276    0.0000 H   0  0  0  0  0  0  0  0  0  0  0  0
  1  9  1  0  0  0  0
  1 11  1  0  0  0  0
  2 15  1  0  0  0  0
  2 17  1  0  0  0  0
  3 15  2  0  0  0  0
  4 16  1  0  0  0  0
  4 19  1  0  0  0  0
  5 16  2  0  0  0  0
  6 18  2  0  0  0  0
  7 10  1  0  0  0  0
  7 11  1  0  0  0  0
  7 24  1  0  0  0  0
  8 12  1  0  0  0  0
  8 18  1  0  0  0  0
  8 32  1  0  0  0  0
  9 10  1  0  0  0  0
  9 13  1  0  0  0  0
  9 14  1  0  0  0  0
 10 15  1  0  0  0  0
 10 22  1  0  0  0  0
 11 12  1  0  0  0  0
 11 23  1  0  0  0  0
 12 16  1  0  0  0  0
 12 25  1  0  0  0  0
 13 26  1  0  0  0  0
 13 27  1  0  0  0  0
 13 28  1  0  0  0  0
 14 29  1  0  0  0  0
 14 30  1  0  0  0  0
 14 31  1  0  0  0  0
 17 20  1  0  0  0  0
 17 33  1  0  0  0  0
 17 34  1  0  0  0  0
 18 35  1  0  0  0  0
 19 21  1  0  0  0  0
 19 36  1  0  0  0  0
 19 37  1  0  0  0  0
 20 38  1  0  0  0  0
 20 39  1  0  0  0  0
 20 40  1  0  0  0  0
 21 41  1  0  0  0  0
 21 42  1  0  0  0  0
 21 43  1  0  0  0  0
M  END
> <PUBCHEM_COMPOUND_CID>
504548
> <PUBCHEM_COMPOUND_CANONICALIZED>
1
> <PUBCHEM_CACTVS_COMPLEXITY>
402
> <PUBCHEM_CACTVS_HBOND_ACCEPTOR>
7
> <PUBCHEM_CACTVS_HBOND_DONOR>
2
> <PUBCHEM_CACTVS_ROTATABLE_BOND>
8
> <PUBCHEM_CACTVS_SUBSKEYS>
AAADceBzOABAAAAAAAAAAAAAAAAAAWAAAAAAAAAAAAAAAAAAAAAAHgQQAAAADCjlwAaCCALABAgIAACQmAAAAABAABAAAIGIAAACQBggACAXAAAGFgCwAAAAAAAIAAAAAAAAAAAAAAAAAAAAAAAAAAAAAA==
> <PUBCHEM_IUPAC_OPENEYE_NAME>
ethyl 2-(2-ethoxy-1-formamido-2-oxo-ethyl)-5,5-dimethyl-thiazolidine-4-carboxylate
> <PUBCHEM_IUPAC_CAS_NAME>
2-(2-ethoxy-1-formamido-2-oxoethyl)-5,5-dimethyl-4-thiazolidinecarboxylic acid ethyl ester
> <PUBCHEM_IUPAC_NAME_MARKUP>
ethyl 2-(2-ethoxy-1-formamido-2-oxoethyl)-5,5-dimethyl-1,3-thiazolidine-4-carboxylate
> <PUBCHEM_IUPAC_NAME>
ethyl 2-(2-ethoxy-1-formamido-2-oxoethyl)-5,5-dimethyl-1,3-thiazolidine-4-carboxylate
> <PUBCHEM_IUPAC_SYSTEMATIC_NAME>
ethyl 2-(2-ethoxy-1-formamido-2-oxidanylidene-ethyl)-5,5-dimethyl-1,3-thiazolidine-4-carboxylate
> <PUBCHEM_IUPAC_TRADITIONAL_NAME>
2-(2-ethoxy-1-formamido-2-keto-ethyl)-5,5-dimethyl-thiazolidine-4-carboxylic acid ethyl ester
> <PUBCHEM_IUPAC_INCHI>
InChI=1S/C13H22N2O5S/c1-5-19-11(17)8(14-7-16)10-15-9(12(18)20-6-2)13(3,4)21-10/h7-10,15H,5-6H2,1-4H3,(H,14,16)
> <PUBCHEM_IUPAC_INCHIKEY>
MXIQGNBBQIJFIZ-UHFFFAOYSA-N
> <PUBCHEM_XLOGP3_AA>
1
> <PUBCHEM_EXACT_MASS>
318.12494298
> <PUBCHEM_MOLECULAR_FORMULA>
C13H22N2O5S
> <PUBCHEM_MOLECULAR_WEIGHT>
318.39
> <PUBCHEM_OPENEYE_CAN_SMILES>
CCOC(=O)C1C(SC(N1)C(C(=O)OCC)NC=O)(C)C
> <PUBCHEM_OPENEYE_ISO_SMILES>
CCOC(=O)C1C(SC(N1)C(C(=O)OCC)NC=O)(C)C
> <PUBCHEM_CACTVS_TPSA>
119
> <PUBCHEM_MONOISOTOPIC_WEIGHT>
318.12494298
> <PUBCHEM_TOTAL_CHARGE>
0
> <PUBCHEM_HEAVY_ATOM_COUNT>
21
> <PUBCHEM_ATOM_DEF_STEREO_COUNT>
0
> <PUBCHEM_ATOM_UDEF_STEREO_COUNT>
3
> <PUBCHEM_BOND_DEF_STEREO_COUNT>
0
> <PUBCHEM_BOND_UDEF_STEREO_COUNT>
0
> <PUBCHEM_ISOTOPIC_ATOM_COUNT>
0
> <PUBCHEM_COMPONENT_COUNT>
1
> <PUBCHEM_CACTVS_TAUTO_COUNT>
-1
> <PUBCHEM_COORDINATE_TYPE>
1
5
255
> <PUBCHEM_BONDANNOTATIONS>
10  15  3
12  16  3
11  7  3
$$$$
