504599
  -OEChem-10302200282D
 33 36  0     1  0  0  0  0  0999 V2000
    3.2601    0.9366    0.0000 O   0  0  0  0  0  0  0  0  0  0  0  0
    2.0000   -0.3234    0.0000 O   0  0  0  0  0  0  0  0  0  0  0  0
    4.5691   -0.0144    0.0000 N   0  0  0  0  0  0  0  0  0  0  0  0
    3.7601   -0.6022    0.0000 C   0  0  3  0  0  0  0  0  0  0  0  0
    4.2601   -1.4682    0.0000 C   0  0  2  0  0  0  0  0  0  0  0  0
    3.2601   -1.4682    0.0000 C   0  0  0  0  0  0  0  0  0  0  0  0
    5.1261   -1.9682    0.0000 C   0  0  0  0  0  0  0  0  0  0  0  0
    2.9511   -0.0144    0.0000 C   0  0  0  0  0  0  0  0  0  0  0  0
    4.2601    0.9366    0.0000 C   0  0  0  0  0  0  0  0  0  0  0  0
    5.1261   -2.9682    0.0000 C   0  0  0  0  0  0  0  0  0  0  0  0
    5.9921   -1.4682    0.0000 C   0  0  0  0  0  0  0  0  0  0  0  0
    4.8479    1.7457    0.0000 C   0  0  0  0  0  0  0  0  0  0  0  0
    5.9921   -3.4682    0.0000 C   0  0  0  0  0  0  0  0  0  0  0  0
    6.8582   -1.9682    0.0000 C   0  0  0  0  0  0  0  0  0  0  0  0
    6.8582   -2.9682    0.0000 C   0  0  0  0  0  0  0  0  0  0  0  0
    5.8424    1.6411    0.0000 C   0  0  0  0  0  0  0  0  0  0  0  0
    4.4411    2.6592    0.0000 C   0  0  0  0  0  0  0  0  0  0  0  0
    6.4302    2.4502    0.0000 C   0  0  0  0  0  0  0  0  0  0  0  0
    5.0289    3.4682    0.0000 C   0  0  0  0  0  0  0  0  0  0  0  0
    6.0234    3.3637    0.0000 C   0  0  0  0  0  0  0  0  0  0  0  0
    4.0996   -2.0671    0.0000 H   0  0  0  0  0  0  0  0  0  0  0  0
    2.6775   -1.2562    0.0000 H   0  0  0  0  0  0  0  0  0  0  0  0
    3.1524   -2.0788    0.0000 H   0  0  0  0  0  0  0  0  0  0  0  0
    4.5892   -3.2782    0.0000 H   0  0  0  0  0  0  0  0  0  0  0  0
    5.9921   -0.8482    0.0000 H   0  0  0  0  0  0  0  0  0  0  0  0
    5.9921   -4.0882    0.0000 H   0  0  0  0  0  0  0  0  0  0  0  0
    7.3951   -1.6582    0.0000 H   0  0  0  0  0  0  0  0  0  0  0  0
    7.3951   -3.2782    0.0000 H   0  0  0  0  0  0  0  0  0  0  0  0
    6.0946    1.0747    0.0000 H   0  0  0  0  0  0  0  0  0  0  0  0
    3.8245    2.7240    0.0000 H   0  0  0  0  0  0  0  0  0  0  0  0
    7.0468    2.3853    0.0000 H   0  0  0  0  0  0  0  0  0  0  0  0
    4.7767    4.0346    0.0000 H   0  0  0  0  0  0  0  0  0  0  0  0
    6.3879    3.8653    0.0000 H   0  0  0  0  0  0  0  0  0  0  0  0
  1  8  1  0  0  0  0
  1  9  1  0  0  0  0
  2  8  2  0  0  0  0
  3  4  1  0  0  0  0
  3  9  2  0  0  0  0
  4  5  1  0  0  0  0
  4  6  1  0  0  0  0
  4  8  1  0  0  0  0
  5  6  1  0  0  0  0
  5  7  1  1  0  0  0
  5 21  1  0  0  0  0
  6 22  1  0  0  0  0
  6 23  1  0  0  0  0
  7 10  2  0  0  0  0
  7 11  1  0  0  0  0
  9 12  1  0  0  0  0
 10 13  1  0  0  0  0
 10 24  1  0  0  0  0
 11 14  2  0  0  0  0
 11 25  1  0  0  0  0
 12 16  2  0  0  0  0
 12 17  1  0  0  0  0
 13 15  2  0  0  0  0
 13 26  1  0  0  0  0
 14 15  1  0  0  0  0
 14 27  1  0  0  0  0
 15 28  1  0  0  0  0
 16 18  1  0  0  0  0
 16 29  1  0  0  0  0
 17 19  2  0  0  0  0
 17 30  1  0  0  0  0
 18 20  2  0  0  0  0
 18 31  1  0  0  0  0
 19 20  1  0  0  0  0
 19 32  1  0  0  0  0
 20 33  1  0  0  0  0
M  END
> <PUBCHEM_COMPOUND_CID>
504599
> <PUBCHEM_COMPOUND_CANONICALIZED>
1
> <PUBCHEM_CACTVS_COMPLEXITY>
432
> <PUBCHEM_CACTVS_HBOND_ACCEPTOR>
3
> <PUBCHEM_CACTVS_HBOND_DONOR>
0
> <PUBCHEM_CACTVS_ROTATABLE_BOND>
2
> <PUBCHEM_CACTVS_SUBSKEYS>
AAADccB6MAAAAAAAAAAAAAAAGAAAAQAAAAAwYAAAAAAAAAABQAAAHgAAAAAADYiBmAAwCIIABACoAiDyDAACAAAgAAAIiAGgCJgKJrKAsRmDMAAkwAEIqAeYyPCOgAAAAAAAAAAAAAAAAAAAAAAAAAAAAA==
> <PUBCHEM_IUPAC_OPENEYE_NAME>
(2R)-2,5-diphenyl-6-oxa-4-azaspiro[2.4]hept-4-en-7-one
> <PUBCHEM_IUPAC_CAS_NAME>
(2R)-2,5-diphenyl-6-oxa-4-azaspiro[2.4]hept-4-en-7-one
> <PUBCHEM_IUPAC_NAME_MARKUP>
(2<I>R</I>)-2,5-diphenyl-6-oxa-4-azaspiro[2.4]hept-4-en-7-one
> <PUBCHEM_IUPAC_NAME>
(2R)-2,5-diphenyl-6-oxa-4-azaspiro[2.4]hept-4-en-7-one
> <PUBCHEM_IUPAC_SYSTEMATIC_NAME>
(2R)-2,5-diphenyl-6-oxa-4-azaspiro[2.4]hept-4-en-7-one
> <PUBCHEM_IUPAC_TRADITIONAL_NAME>
(2R)-2,5-diphenyl-6-oxa-4-azaspiro[2.4]hept-4-en-7-one
> <PUBCHEM_IUPAC_INCHI>
InChI=1S/C17H13NO2/c19-16-17(11-14(17)12-7-3-1-4-8-12)18-15(20-16)13-9-5-2-6-10-13/h1-10,14H,11H2/t14-,17?/m1/s1
> <PUBCHEM_IUPAC_INCHIKEY>
ULXGGSMQBXPSTH-XPCCGILXSA-N
> <PUBCHEM_XLOGP3_AA>
3.2
> <PUBCHEM_EXACT_MASS>
263.094628657
> <PUBCHEM_MOLECULAR_FORMULA>
C17H13NO2
> <PUBCHEM_MOLECULAR_WEIGHT>
263.29
> <PUBCHEM_OPENEYE_CAN_SMILES>
C1C(C12C(=O)OC(=N2)C3=CC=CC=C3)C4=CC=CC=C4
> <PUBCHEM_OPENEYE_ISO_SMILES>
C1[C@@H](C12C(=O)OC(=N2)C3=CC=CC=C3)C4=CC=CC=C4
> <PUBCHEM_CACTVS_TPSA>
38.7
> <PUBCHEM_MONOISOTOPIC_WEIGHT>
263.094628657
> <PUBCHEM_TOTAL_CHARGE>
0
> <PUBCHEM_HEAVY_ATOM_COUNT>
20
> <PUBCHEM_ATOM_DEF_STEREO_COUNT>
1
> <PUBCHEM_ATOM_UDEF_STEREO_COUNT>
1
> <PUBCHEM_BOND_DEF_STEREO_COUNT>
0
> <PUBCHEM_BOND_UDEF_STEREO_COUNT>
0
> <PUBCHEM_ISOTOPIC_ATOM_COUNT>
0
> <PUBCHEM_COMPONENT_COUNT>
1
> <PUBCHEM_CACTVS_TAUTO_COUNT>
-1
> <PUBCHEM_COORDINATE_TYPE>
1
5
255
> <PUBCHEM_BONDANNOTATIONS>
10  13  8
11  14  8
12  16  8
12  17  8
13  15  8
14  15  8
16  18  8
17  19  8
18  20  8
19  20  8
4  6  3
5  7  5
7  10  8
7  11  8
$$$$
