504581
  -OEChem-10302200282D
 65 69  0     1  0  0  0  0  0999 V2000
    7.3564    1.3975    0.0000 P   0  0  3  0  0  0  0  0  0  0  0  0
    4.4618    2.3923    0.0000 O   0  0  0  0  0  0  0  0  0  0  0  0
    7.0490    2.3491    0.0000 O   0  0  0  0  0  0  0  0  0  0  0  0
    8.3597   -1.5233    0.0000 O   0  0  0  0  0  0  0  0  0  0  0  0
    6.1676    4.3381    0.0000 O   0  0  0  0  0  0  0  0  0  0  0  0
    7.6638    0.4459    0.0000 O   0  0  0  0  0  0  0  0  0  0  0  0
   10.7095   -0.4396    0.0000 O   0  0  0  0  0  0  0  0  0  0  0  0
    4.6197    0.3098    0.0000 O   0  0  0  0  0  0  0  0  0  0  0  0
    6.4048    1.0901    0.0000 O   0  0  0  0  0  0  0  0  0  0  0  0
    8.3080    1.7049    0.0000 O   0  0  0  0  0  0  0  0  0  0  0  0
    5.2927    5.2712    0.0000 O   0  0  0  0  0  0  0  0  0  0  0  0
    2.0000    6.3473    0.0000 O   0  0  0  0  0  0  0  0  0  0  0  0
    4.0035    4.1144    0.0000 N   0  0  0  0  0  0  0  0  0  0  0  0
    8.6354   -3.2838    0.0000 N   0  0  0  0  0  0  0  0  0  0  0  0
    3.6464    5.8092    0.0000 N   0  0  0  0  0  0  0  0  0  0  0  0
    8.6354   -4.8933    0.0000 N   0  0  0  0  0  0  0  0  0  0  0  0
    6.8232   -3.0886    0.0000 N   0  0  0  0  0  0  0  0  0  0  0  0
    5.9572   -4.5886    0.0000 N   0  0  0  0  0  0  0  0  0  0  0  0
    6.8232   -6.0886    0.0000 N   0  0  0  0  0  0  0  0  0  0  0  0
    6.0712    2.5587    0.0000 C   0  0  1  0  0  0  0  0  0  0  0  0
    5.6661    3.4729    0.0000 C   0  0  2  0  0  0  0  0  0  0  0  0
    5.3269    1.8908    0.0000 C   0  0  1  0  0  0  0  0  0  0  0  0
    4.6714    3.3701    0.0000 C   0  0  1  0  0  0  0  0  0  0  0  0
    8.9489   -0.7153    0.0000 C   0  0  1  0  0  0  0  0  0  0  0  0
    9.8994   -1.0260    0.0000 C   0  0  2  0  0  0  0  0  0  0  0  0
    9.8977   -2.0260    0.0000 C   0  0  0  0  0  0  0  0  0  0  0  0
    8.9461   -2.3333    0.0000 C   0  0  1  0  0  0  0  0  0  0  0  0
    5.4297    0.8961    0.0000 C   0  0  0  0  0  0  0  0  0  0  0  0
    8.6416    0.2363    0.0000 C   0  0  0  0  0  0  0  0  0  0  0  0
    4.3142    5.0649    0.0000 C   0  0  0  0  0  0  0  0  0  0  0  0
    3.0250    3.9082    0.0000 C   0  0  0  0  0  0  0  0  0  0  0  0
    7.6892   -3.5886    0.0000 C   0  0  0  0  0  0  0  0  0  0  0  0
    7.1676    4.3364    0.0000 C   0  0  0  0  0  0  0  0  0  0  0  0
    9.2191   -4.0886    0.0000 C   0  0  0  0  0  0  0  0  0  0  0  0
    7.6892   -4.5886    0.0000 C   0  0  0  0  0  0  0  0  0  0  0  0
    2.3572    4.6525    0.0000 C   0  0  0  0  0  0  0  0  0  0  0  0
    2.6678    5.6030    0.0000 C   0  0  0  0  0  0  0  0  0  0  0  0
    6.8232   -5.0886    0.0000 C   0  0  0  0  0  0  0  0  0  0  0  0
    5.9572   -3.5886    0.0000 C   0  0  0  0  0  0  0  0  0  0  0  0
    6.2307    1.9595    0.0000 H   0  0  0  0  0  0  0  0  0  0  0  0
    6.2852    3.4394    0.0000 H   0  0  0  0  0  0  0  0  0  0  0  0
    4.8064    1.5541    0.0000 H   0  0  0  0  0  0  0  0  0  0  0  0
    4.0722    3.2107    0.0000 H   0  0  0  0  0  0  0  0  0  0  0  0
    8.3367   -0.6172    0.0000 H   0  0  0  0  0  0  0  0  0  0  0  0
    9.8035   -0.4134    0.0000 H   0  0  0  0  0  0  0  0  0  0  0  0
   10.0256   -2.6326    0.0000 H   0  0  0  0  0  0  0  0  0  0  0  0
   10.5144   -1.9622    0.0000 H   0  0  0  0  0  0  0  0  0  0  0  0
    8.3336   -2.4292    0.0000 H   0  0  0  0  0  0  0  0  0  0  0  0
    5.7006    0.3384    0.0000 H   0  0  0  0  0  0  0  0  0  0  0  0
    6.0260    1.0660    0.0000 H   0  0  0  0  0  0  0  0  0  0  0  0
    9.2557    0.3215    0.0000 H   0  0  0  0  0  0  0  0  0  0  0  0
    8.6643    0.8559    0.0000 H   0  0  0  0  0  0  0  0  0  0  0  0
    2.8324    3.3189    0.0000 H   0  0  0  0  0  0  0  0  0  0  0  0
   11.2754   -0.6927    0.0000 H   0  0  0  0  0  0  0  0  0  0  0  0
    7.1665    3.7164    0.0000 H   0  0  0  0  0  0  0  0  0  0  0  0
    7.7876    4.3353    0.0000 H   0  0  0  0  0  0  0  0  0  0  0  0
    7.1686    4.9564    0.0000 H   0  0  0  0  0  0  0  0  0  0  0  0
    9.8391   -4.0886    0.0000 H   0  0  0  0  0  0  0  0  0  0  0  0
    4.6834   -0.3070    0.0000 H   0  0  0  0  0  0  0  0  0  0  0  0
    3.8390    6.3986    0.0000 H   0  0  0  0  0  0  0  0  0  0  0  0
    1.7505    4.5247    0.0000 H   0  0  0  0  0  0  0  0  0  0  0  0
    6.2748    0.4839    0.0000 H   0  0  0  0  0  0  0  0  0  0  0  0
    5.4202   -3.2786    0.0000 H   0  0  0  0  0  0  0  0  0  0  0  0
    6.2863   -6.3986    0.0000 H   0  0  0  0  0  0  0  0  0  0  0  0
    7.3601   -6.3986    0.0000 H   0  0  0  0  0  0  0  0  0  0  0  0
  1  3  1  0  0  0  0
  1  6  1  0  0  0  0
  1  9  1  0  0  0  0
  1 10  2  0  0  0  0
  2 22  1  0  0  0  0
  2 23  1  0  0  0  0
 20  3  1  6  0  0  0
  4 24  1  0  0  0  0
  4 27  1  0  0  0  0
 21  5  1  6  0  0  0
  5 33  1  0  0  0  0
  6 29  1  0  0  0  0
 25  7  1  1  0  0  0
  7 54  1  0  0  0  0
  8 28  1  0  0  0  0
  8 59  1  0  0  0  0
  9 62  1  0  0  0  0
 11 30  2  0  0  0  0
 12 37  2  0  0  0  0
 23 13  1  1  0  0  0
 13 30  1  0  0  0  0
 13 31  1  0  0  0  0
 27 14  1  6  0  0  0
 14 32  1  0  0  0  0
 14 34  1  0  0  0  0
 15 30  1  0  0  0  0
 15 37  1  0  0  0  0
 15 60  1  0  0  0  0
 16 34  2  0  0  0  0
 16 35  1  0  0  0  0
 17 32  2  0  0  0  0
 17 39  1  0  0  0  0
 18 38  1  0  0  0  0
 18 39  2  0  0  0  0
 19 38  1  0  0  0  0
 19 64  1  0  0  0  0
 19 65  1  0  0  0  0
 20 21  1  0  0  0  0
 20 22  1  0  0  0  0
 20 40  1  0  0  0  0
 21 23  1  0  0  0  0
 21 41  1  0  0  0  0
 22 28  1  1  0  0  0
 22 42  1  0  0  0  0
 23 43  1  0  0  0  0
 24 25  1  0  0  0  0
 24 29  1  6  0  0  0
 24 44  1  0  0  0  0
 25 26  1  0  0  0  0
 25 45  1  0  0  0  0
 26 27  1  0  0  0  0
 26 46  1  0  0  0  0
 26 47  1  0  0  0  0
 27 48  1  0  0  0  0
 28 49  1  0  0  0  0
 28 50  1  0  0  0  0
 29 51  1  0  0  0  0
 29 52  1  0  0  0  0
 31 36  2  0  0  0  0
 31 53  1  0  0  0  0
 32 35  1  0  0  0  0
 33 55  1  0  0  0  0
 33 56  1  0  0  0  0
 33 57  1  0  0  0  0
 34 58  1  0  0  0  0
 35 38  2  0  0  0  0
 36 37  1  0  0  0  0
 36 61  1  0  0  0  0
 39 63  1  0  0  0  0
M  END
> <PUBCHEM_COMPOUND_CID>
504581
> <PUBCHEM_COMPOUND_CANONICALIZED>
1
> <PUBCHEM_CACTVS_COMPLEXITY>
1010
> <PUBCHEM_CACTVS_HBOND_ACCEPTOR>
15
> <PUBCHEM_CACTVS_HBOND_DONOR>
5
> <PUBCHEM_CACTVS_ROTATABLE_BOND>
9
> <PUBCHEM_CACTVS_SUBSKEYS>
AAADceB7vAIAAAAAAAAAAAAAAAAAAWJEgAAsQAAAAAAAAFgB+AAAHgAQCCAACBzhlwYH8L/MFxCoQSd3dICAgC0REqAJUCAoVFCDWAJAyEAfRAgPFyLTAODwMAIAAAAAAAAAAAAAAAAAAAAAAAAAAAAAAA==
> <PUBCHEM_IUPAC_OPENEYE_NAME>
[(2R,3S,5R)-5-(6-aminopurin-9-yl)-3-hydroxy-tetrahydrofuran-2-yl]methyl [(2R,3R,4R,5R)-5-(2,4-dioxopyrimidin-1-yl)-2-(hydroxymethyl)-4-methoxy-tetrahydrofuran-3-yl] hydrogen phosphate
> <PUBCHEM_IUPAC_CAS_NAME>
[(2R,3S,5R)-5-(6-aminopurin-9-yl)-3-hydroxy-2-oxolanyl]methyl [(2R,3R,4R,5R)-5-(2,4-dioxo-1-pyrimidinyl)-2-(hydroxymethyl)-4-methoxy-3-oxolanyl] hydrogen phosphate
> <PUBCHEM_IUPAC_NAME_MARKUP>
[(2<I>R</I>,3<I>S</I>,5<I>R</I>)-5-(6-aminopurin-9-yl)-3-hydroxyoxolan-2-yl]methyl [(2<I>R</I>,3<I>R</I>,4<I>R</I>,5<I>R</I>)-5-(2,4-dioxopyrimidin-1-yl)-2-(hydroxymethyl)-4-methoxyoxolan-3-yl] hydrogen phosphate
> <PUBCHEM_IUPAC_NAME>
[(2R,3S,5R)-5-(6-aminopurin-9-yl)-3-hydroxyoxolan-2-yl]methyl [(2R,3R,4R,5R)-5-(2,4-dioxopyrimidin-1-yl)-2-(hydroxymethyl)-4-methoxyoxolan-3-yl] hydrogen phosphate
> <PUBCHEM_IUPAC_SYSTEMATIC_NAME>
[(2R,3S,5R)-5-(6-aminopurin-9-yl)-3-oxidanyl-oxolan-2-yl]methyl [(2R,3R,4R,5R)-5-[2,4-bis(oxidanylidene)pyrimidin-1-yl]-2-(hydroxymethyl)-4-methoxy-oxolan-3-yl] hydrogen phosphate
> <PUBCHEM_IUPAC_TRADITIONAL_NAME>
[(2R,3S,5R)-5-adenin-9-yl-3-hydroxy-tetrahydrofuran-2-yl]methyl [(2R,3R,4R,5R)-5-(2,4-diketopyrimidin-1-yl)-4-methoxy-2-methylol-tetrahydrofuran-3-yl] hydrogen phosphate
> <PUBCHEM_IUPAC_INCHI>
InChI=1S/C20H26N7O11P/c1-34-16-15(10(5-28)37-19(16)26-3-2-12(30)25-20(26)31)38-39(32,33)35-6-11-9(29)4-13(36-11)27-8-24-14-17(21)22-7-23-18(14)27/h2-3,7-11,13,15-16,19,28-29H,4-6H2,1H3,(H,32,33)(H2,21,22,23)(H,25,30,31)/t9-,10+,11+,13+,15+,16+,19+/m0/s1
> <PUBCHEM_IUPAC_INCHIKEY>
MWKYEOGPKCULOQ-LTONJGMGSA-N
> <PUBCHEM_XLOGP3>
-3.5
> <PUBCHEM_EXACT_MASS>
571.14279167
> <PUBCHEM_MOLECULAR_FORMULA>
C20H26N7O11P
> <PUBCHEM_MOLECULAR_WEIGHT>
571.4
> <PUBCHEM_OPENEYE_CAN_SMILES>
COC1C(C(OC1N2C=CC(=O)NC2=O)CO)OP(=O)(O)OCC3C(CC(O3)N4C=NC5=C(N=CN=C54)N)O
> <PUBCHEM_OPENEYE_ISO_SMILES>
CO[C@@H]1[C@@H]([C@H](O[C@H]1N2C=CC(=O)NC2=O)CO)OP(=O)(O)OC[C@@H]3[C@H](C[C@@H](O3)N4C=NC5=C(N=CN=C54)N)O
> <PUBCHEM_CACTVS_TPSA>
243
> <PUBCHEM_MONOISOTOPIC_WEIGHT>
571.14279167
> <PUBCHEM_TOTAL_CHARGE>
0
> <PUBCHEM_HEAVY_ATOM_COUNT>
39
> <PUBCHEM_ATOM_DEF_STEREO_COUNT>
7
> <PUBCHEM_ATOM_UDEF_STEREO_COUNT>
0
> <PUBCHEM_BOND_DEF_STEREO_COUNT>
0
> <PUBCHEM_BOND_UDEF_STEREO_COUNT>
0
> <PUBCHEM_ISOTOPIC_ATOM_COUNT>
0
> <PUBCHEM_COMPONENT_COUNT>
1
> <PUBCHEM_CACTVS_TAUTO_COUNT>
-1
> <PUBCHEM_COORDINATE_TYPE>
1
5
255
> <PUBCHEM_BONDANNOTATIONS>
23  13  5
13  30  8
13  31  8
27  14  6
14  32  8
14  34  8
15  30  8
15  37  8
16  34  8
16  35  8
17  32  8
17  39  8
18  38  8
18  39  8
22  28  5
24  29  6
20  3  6
31  36  8
32  35  8
35  38  8
36  37  8
21  5  6
25  7  5
$$$$
