504543
  -OEChem-10302200282D
 63 66  0     1  0  0  0  0  0999 V2000
    8.9282    4.0000    0.0000 Cl  0  0  0  0  0  0  0  0  0  0  0  0
    3.7320   -5.0000    0.0000 Cl  0  0  0  0  0  0  0  0  0  0  0  0
    5.4641   -0.0000    0.0000 S   0  0  0  0  0  0  0  0  0  0  0  0
    4.5981    1.5000    0.0000 O   0  5  0  0  0  0  0  0  0  0  0  0
    3.7320    0.0000    0.0000 O   0  5  0  0  0  0  0  0  0  0  0  0
    5.4641    3.0000    0.0000 O   0  0  0  0  0  0  0  0  0  0  0  0
    2.8660   -1.5000    0.0000 O   0  0  0  0  0  0  0  0  0  0  0  0
    9.7942    1.5000    0.0000 O   0  5  0  0  0  0  0  0  0  0  0  0
    6.3301   -4.5000    0.0000 O   0  5  0  0  0  0  0  0  0  0  0  0
    9.7942    2.5000    0.0000 O   0  0  0  0  0  0  0  0  0  0  0  0
    5.4641   -5.0000    0.0000 O   0  0  0  0  0  0  0  0  0  0  0  0
    5.4641    2.0000    0.0000 N   0  3  0  0  0  0  0  0  0  0  0  0
    3.7320   -1.0000    0.0000 N   0  3  0  0  0  0  0  0  0  0  0  0
    8.9282    2.0000    0.0000 N   0  3  0  0  0  0  0  0  0  0  0  0
    5.4641   -4.0000    0.0000 N   0  3  0  0  0  0  0  0  0  0  0  0
    7.1962    3.0000    0.0000 C   0  0  3  0  0  0  0  0  0  0  0  0
    3.7320   -3.0000    0.0000 C   0  0  3  0  0  0  0  0  0  0  0  0
    8.0622    3.5000    0.0000 C   0  0  3  0  0  0  0  0  0  0  0  0
    3.7320   -4.0000    0.0000 C   0  0  3  0  0  0  0  0  0  0  0  0
    6.3301    3.5000    0.0000 C   0  0  0  0  0  0  0  0  0  0  0  0
    2.8660   -2.5000    0.0000 C   0  0  0  0  0  0  0  0  0  0  0  0
    8.0622    4.5000    0.0000 C   0  0  0  0  0  0  0  0  0  0  0  0
    2.8660   -4.5000    0.0000 C   0  0  0  0  0  0  0  0  0  0  0  0
    6.3301    4.5000    0.0000 C   0  0  0  0  0  0  0  0  0  0  0  0
    2.0000   -3.0000    0.0000 C   0  0  0  0  0  0  0  0  0  0  0  0
    7.1962    5.0000    0.0000 C   0  0  0  0  0  0  0  0  0  0  0  0
    2.0000   -4.0000    0.0000 C   0  0  0  0  0  0  0  0  0  0  0  0
    7.1962    2.0000    0.0000 C   0  0  0  0  0  0  0  0  0  0  0  0
    4.5981   -2.5000    0.0000 C   0  0  0  0  0  0  0  0  0  0  0  0
    6.3301    1.5000    0.0000 C   0  0  0  0  0  0  0  0  0  0  0  0
    4.5981   -1.5000    0.0000 C   0  0  0  0  0  0  0  0  0  0  0  0
    8.0622    1.5000    0.0000 C   0  0  0  0  0  0  0  0  0  0  0  0
    5.4641   -3.0000    0.0000 C   0  0  0  0  0  0  0  0  0  0  0  0
    6.3301    0.5000    0.0000 C   0  0  0  0  0  0  0  0  0  0  0  0
    5.4641   -1.0000    0.0000 C   0  0  0  0  0  0  0  0  0  0  0  0
    8.0622    0.5000    0.0000 C   0  0  0  0  0  0  0  0  0  0  0  0
    6.3301   -2.5000    0.0000 C   0  0  0  0  0  0  0  0  0  0  0  0
    7.1962   -0.0000    0.0000 C   0  0  0  0  0  0  0  0  0  0  0  0
    6.3301   -1.5000    0.0000 C   0  0  0  0  0  0  0  0  0  0  0  0
    6.6592    2.6900    0.0000 H   0  0  0  0  0  0  0  0  0  0  0  0
    3.7320   -2.3800    0.0000 H   0  0  0  0  0  0  0  0  0  0  0  0
    8.3722    2.9631    0.0000 H   0  0  0  0  0  0  0  0  0  0  0  0
    4.3520   -4.0000    0.0000 H   0  0  0  0  0  0  0  0  0  0  0  0
    5.7196    3.6077    0.0000 H   0  0  0  0  0  0  0  0  0  0  0  0
    6.1181    2.9174    0.0000 H   0  0  0  0  0  0  0  0  0  0  0  0
    3.2646   -2.0250    0.0000 H   0  0  0  0  0  0  0  0  0  0  0  0
    2.4675   -2.0250    0.0000 H   0  0  0  0  0  0  0  0  0  0  0  0
    8.6728    4.3923    0.0000 H   0  0  0  0  0  0  0  0  0  0  0  0
    8.2742    5.0826    0.0000 H   0  0  0  0  0  0  0  0  0  0  0  0
    2.4675   -4.9750    0.0000 H   0  0  0  0  0  0  0  0  0  0  0  0
    3.2646   -4.9750    0.0000 H   0  0  0  0  0  0  0  0  0  0  0  0
    6.1181    5.0826    0.0000 H   0  0  0  0  0  0  0  0  0  0  0  0
    5.7196    4.3923    0.0000 H   0  0  0  0  0  0  0  0  0  0  0  0
    1.7880   -2.4174    0.0000 H   0  0  0  0  0  0  0  0  0  0  0  0
    1.3894   -3.1077    0.0000 H   0  0  0  0  0  0  0  0  0  0  0  0
    7.5947    5.4750    0.0000 H   0  0  0  0  0  0  0  0  0  0  0  0
    6.7976    5.4750    0.0000 H   0  0  0  0  0  0  0  0  0  0  0  0
    1.3894   -3.8923    0.0000 H   0  0  0  0  0  0  0  0  0  0  0  0
    1.7880   -4.5826    0.0000 H   0  0  0  0  0  0  0  0  0  0  0  0
    8.5991    0.1900    0.0000 H   0  0  0  0  0  0  0  0  0  0  0  0
    6.8671   -2.8100    0.0000 H   0  0  0  0  0  0  0  0  0  0  0  0
    7.1962   -0.6200    0.0000 H   0  0  0  0  0  0  0  0  0  0  0  0
    6.8671   -1.1900    0.0000 H   0  0  0  0  0  0  0  0  0  0  0  0
  1 18  1  0  0  0  0
  2 19  1  0  0  0  0
  3 34  1  0  0  0  0
  3 35  1  0  0  0  0
  4 12  1  0  0  0  0
  5 13  1  0  0  0  0
  6 12  2  0  0  0  0
  7 13  2  0  0  0  0
  8 14  1  0  0  0  0
  9 15  1  0  0  0  0
 10 14  2  0  0  0  0
 11 15  2  0  0  0  0
 12 30  1  0  0  0  0
 13 31  1  0  0  0  0
 14 32  1  0  0  0  0
 15 33  1  0  0  0  0
 16 18  1  0  0  0  0
 16 20  1  0  0  0  0
 16 28  1  0  0  0  0
 16 40  1  0  0  0  0
 17 19  1  0  0  0  0
 17 21  1  0  0  0  0
 17 29  1  0  0  0  0
 17 41  1  0  0  0  0
 18 22  1  0  0  0  0
 18 42  1  0  0  0  0
 19 23  1  0  0  0  0
 19 43  1  0  0  0  0
 20 24  1  0  0  0  0
 20 44  1  0  0  0  0
 20 45  1  0  0  0  0
 21 25  1  0  0  0  0
 21 46  1  0  0  0  0
 21 47  1  0  0  0  0
 22 26  1  0  0  0  0
 22 48  1  0  0  0  0
 22 49  1  0  0  0  0
 23 27  1  0  0  0  0
 23 50  1  0  0  0  0
 23 51  1  0  0  0  0
 24 26  1  0  0  0  0
 24 52  1  0  0  0  0
 24 53  1  0  0  0  0
 25 27  1  0  0  0  0
 25 54  1  0  0  0  0
 25 55  1  0  0  0  0
 26 56  1  0  0  0  0
 26 57  1  0  0  0  0
 27 58  1  0  0  0  0
 27 59  1  0  0  0  0
 28 30  1  0  0  0  0
 28 32  2  0  0  0  0
 29 31  1  0  0  0  0
 29 33  2  0  0  0  0
 30 34  2  0  0  0  0
 31 35  2  0  0  0  0
 32 36  1  0  0  0  0
 33 37  1  0  0  0  0
 34 38  1  0  0  0  0
 35 39  1  0  0  0  0
 36 38  2  0  0  0  0
 36 60  1  0  0  0  0
 37 39  2  0  0  0  0
 37 61  1  0  0  0  0
 38 62  1  0  0  0  0
 39 63  1  0  0  0  0
M  CHG  8   4  -1   5  -1   8  -1   9  -1  12   1  13   1  14   1  15   1
M  END
> <PUBCHEM_COMPOUND_CID>
504543
> <PUBCHEM_COMPOUND_CANONICALIZED>
1
> <PUBCHEM_CACTVS_COMPLEXITY>
856
> <PUBCHEM_CACTVS_HBOND_ACCEPTOR>
9
> <PUBCHEM_CACTVS_HBOND_DONOR>
0
> <PUBCHEM_CACTVS_ROTATABLE_BOND>
4
> <PUBCHEM_CACTVS_SUBSKEYS>
AAADceB7vABGAAAAAAAAAAAAAAAAAAAAAAAwYMGAAAAAAAABQAAAHAYEAAAADQuBWEAwwYAQQAiBAiRCQwCCAAAgChAoiBwAZooIICKh0NGAIABggAAoyAcQgMAOgAQAgAQCAQAACAEACAYCAAAAAAAAAA==
> <PUBCHEM_IUPAC_OPENEYE_NAME>
3-(2-chlorocyclohexyl)-1-[3-(2-chlorocyclohexyl)-2,4-dinitro-phenyl]sulfanyl-2,4-dinitro-benzene
> <PUBCHEM_IUPAC_CAS_NAME>
3-(2-chlorocyclohexyl)-1-[[3-(2-chlorocyclohexyl)-2,4-dinitrophenyl]thio]-2,4-dinitrobenzene
> <PUBCHEM_IUPAC_NAME_MARKUP>
3-(2-chlorocyclohexyl)-1-[3-(2-chlorocyclohexyl)-2,4-dinitrophenyl]sulfanyl-2,4-dinitrobenzene
> <PUBCHEM_IUPAC_NAME>
3-(2-chlorocyclohexyl)-1-[3-(2-chlorocyclohexyl)-2,4-dinitrophenyl]sulfanyl-2,4-dinitrobenzene
> <PUBCHEM_IUPAC_SYSTEMATIC_NAME>
3-(2-chloranylcyclohexyl)-1-[3-(2-chloranylcyclohexyl)-2,4-dinitro-phenyl]sulfanyl-2,4-dinitro-benzene
> <PUBCHEM_IUPAC_TRADITIONAL_NAME>
3-(2-chlorocyclohexyl)-1-[[3-(2-chlorocyclohexyl)-2,4-dinitro-phenyl]thio]-2,4-dinitro-benzene
> <PUBCHEM_IUPAC_INCHI>
InChI=1S/C24H24Cl2N4O8S/c25-15-7-3-1-5-13(15)21-17(27(31)32)9-11-19(23(21)29(35)36)39-20-12-10-18(28(33)34)22(24(20)30(37)38)14-6-2-4-8-16(14)26/h9-16H,1-8H2
> <PUBCHEM_IUPAC_INCHIKEY>
YHRNNQJCTXKZBY-UHFFFAOYSA-N
> <PUBCHEM_XLOGP3_AA>
7.5
> <PUBCHEM_EXACT_MASS>
598.0691903
> <PUBCHEM_MOLECULAR_FORMULA>
C24H24Cl2N4O8S
> <PUBCHEM_MOLECULAR_WEIGHT>
599.4
> <PUBCHEM_OPENEYE_CAN_SMILES>
C1CCC(C(C1)C2=C(C=CC(=C2[N+](=O)[O-])SC3=C(C(=C(C=C3)[N+](=O)[O-])C4CCCCC4Cl)[N+](=O)[O-])[N+](=O)[O-])Cl
> <PUBCHEM_OPENEYE_ISO_SMILES>
C1CCC(C(C1)C2=C(C=CC(=C2[N+](=O)[O-])SC3=C(C(=C(C=C3)[N+](=O)[O-])C4CCCCC4Cl)[N+](=O)[O-])[N+](=O)[O-])Cl
> <PUBCHEM_CACTVS_TPSA>
209
> <PUBCHEM_MONOISOTOPIC_WEIGHT>
598.0691903
> <PUBCHEM_TOTAL_CHARGE>
0
> <PUBCHEM_HEAVY_ATOM_COUNT>
39
> <PUBCHEM_ATOM_DEF_STEREO_COUNT>
0
> <PUBCHEM_ATOM_UDEF_STEREO_COUNT>
4
> <PUBCHEM_BOND_DEF_STEREO_COUNT>
0
> <PUBCHEM_BOND_UDEF_STEREO_COUNT>
0
> <PUBCHEM_ISOTOPIC_ATOM_COUNT>
0
> <PUBCHEM_COMPONENT_COUNT>
1
> <PUBCHEM_CACTVS_TAUTO_COUNT>
-1
> <PUBCHEM_COORDINATE_TYPE>
1
5
255
> <PUBCHEM_BONDANNOTATIONS>
18  1  3
16  28  3
17  29  3
19  2  3
28  30  8
28  32  8
29  31  8
29  33  8
30  34  8
31  35  8
32  36  8
33  37  8
34  38  8
35  39  8
36  38  8
37  39  8
$$$$
