504526
  -OEChem-10302200282D
 93 95  0     1  0  0  0  0  0999 V2000
    3.3676    0.5338    0.0000 S   0  0  0  0  0  0  0  0  0  0  0  0
    4.9952   -0.0586    0.0000 O   0  0  0  0  0  0  0  0  0  0  0  0
    7.6488    2.1681    0.0000 O   0  0  0  0  0  0  0  0  0  0  0  0
    7.8308   -1.2113    0.0000 O   0  0  0  0  0  0  0  0  0  0  0  0
    4.7357    4.2926    0.0000 O   0  0  0  0  0  0  0  0  0  0  0  0
   10.4289   -1.7113    0.0000 O   0  0  0  0  0  0  0  0  0  0  0  0
    8.6968   -1.7113    0.0000 O   0  0  0  0  0  0  0  0  0  0  0  0
    6.9648    0.2887    0.0000 N   0  0  0  0  0  0  0  0  0  0  0  0
    6.0212    2.7605    0.0000 N   0  0  0  0  0  0  0  0  0  0  0  0
    3.4088    3.1792    0.0000 N   0  0  0  0  0  0  0  0  0  0  0  0
    9.5629   -0.2113    0.0000 N   0  0  0  0  0  0  0  0  0  0  0  0
    6.3220    1.0547    0.0000 C   0  0  2  0  0  0  0  0  0  0  0  0
    5.0364    2.5868    0.0000 C   0  0  1  0  0  0  0  0  0  0  0  0
    2.7660    3.9453    0.0000 C   0  0  0  0  0  0  0  0  0  0  0  0
    8.6968    0.2887    0.0000 C   0  0  2  0  0  0  0  0  0  0  0  0
    6.6640    1.9944    0.0000 C   0  0  0  0  0  0  0  0  0  0  0  0
    7.8308   -0.2113    0.0000 C   0  0  0  0  0  0  0  0  0  0  0  0
    6.0988   -0.2113    0.0000 C   0  0  0  0  0  0  0  0  0  0  0  0
    4.6944    1.6471    0.0000 C   0  0  0  0  0  0  0  0  0  0  0  0
    4.3936    3.3529    0.0000 C   0  0  0  0  0  0  0  0  0  0  0  0
    5.3372    0.8811    0.0000 C   0  0  0  0  0  0  0  0  0  0  0  0
    8.6968    1.2887    0.0000 C   0  0  0  0  0  0  0  0  0  0  0  0
    2.1233    4.7113    0.0000 C   0  0  0  0  0  0  0  0  0  0  0  0
    2.0000    3.3025    0.0000 C   0  0  0  0  0  0  0  0  0  0  0  0
    3.5321    4.5880    0.0000 C   0  0  0  0  0  0  0  0  0  0  0  0
    6.0988   -1.2113    0.0000 C   0  0  0  0  0  0  0  0  0  0  0  0
    3.7096    1.4735    0.0000 C   0  0  0  0  0  0  0  0  0  0  0  0
    9.5629    1.7887    0.0000 C   0  0  0  0  0  0  0  0  0  0  0  0
    5.2327   -1.7113    0.0000 C   0  0  0  0  0  0  0  0  0  0  0  0
    6.9648   -1.7113    0.0000 C   0  0  0  0  0  0  0  0  0  0  0  0
    9.5629    2.7887    0.0000 C   0  0  0  0  0  0  0  0  0  0  0  0
   10.4289    1.2887    0.0000 C   0  0  0  0  0  0  0  0  0  0  0  0
    9.5629   -1.2113    0.0000 C   0  0  0  0  0  0  0  0  0  0  0  0
    5.2327   -2.7113    0.0000 C   0  0  0  0  0  0  0  0  0  0  0  0
    6.9648   -2.7113    0.0000 C   0  0  0  0  0  0  0  0  0  0  0  0
    6.0988   -3.2113    0.0000 C   0  0  0  0  0  0  0  0  0  0  0  0
   10.4289    3.2887    0.0000 C   0  0  0  0  0  0  0  0  0  0  0  0
   11.2949    1.7887    0.0000 C   0  0  0  0  0  0  0  0  0  0  0  0
   11.2949    2.7887    0.0000 C   0  0  0  0  0  0  0  0  0  0  0  0
    2.3828    0.3601    0.0000 C   0  0  0  0  0  0  0  0  0  0  0  0
   10.4289   -2.7113    0.0000 C   0  0  0  0  0  0  0  0  0  0  0  0
   11.2949   -3.2113    0.0000 C   0  0  0  0  0  0  0  0  0  0  0  0
   11.2949   -4.2113    0.0000 C   0  0  0  0  0  0  0  0  0  0  0  0
   12.1609   -2.7113    0.0000 C   0  0  0  0  0  0  0  0  0  0  0  0
   12.1609   -4.7113    0.0000 C   0  0  0  0  0  0  0  0  0  0  0  0
   13.0270   -3.2113    0.0000 C   0  0  0  0  0  0  0  0  0  0  0  0
   13.0270   -4.2113    0.0000 C   0  0  0  0  0  0  0  0  0  0  0  0
    6.1100    0.4721    0.0000 H   0  0  0  0  0  0  0  0  0  0  0  0
    5.2485    3.1694    0.0000 H   0  0  0  0  0  0  0  0  0  0  0  0
    9.2338    0.5987    0.0000 H   0  0  0  0  0  0  0  0  0  0  0  0
    5.8867    0.3713    0.0000 H   0  0  0  0  0  0  0  0  0  0  0  0
    5.4882   -0.3190    0.0000 H   0  0  0  0  0  0  0  0  0  0  0  0
    4.6944    1.0271    0.0000 H   0  0  0  0  0  0  0  0  0  0  0  0
    5.3050    1.5395    0.0000 H   0  0  0  0  0  0  0  0  0  0  0  0
    6.2333    3.3431    0.0000 H   0  0  0  0  0  0  0  0  0  0  0  0
    5.3372    1.5011    0.0000 H   0  0  0  0  0  0  0  0  0  0  0  0
    4.7266    0.9887    0.0000 H   0  0  0  0  0  0  0  0  0  0  0  0
    3.1968    2.5966    0.0000 H   0  0  0  0  0  0  0  0  0  0  0  0
    8.4848    1.8713    0.0000 H   0  0  0  0  0  0  0  0  0  0  0  0
    8.0863    1.1810    0.0000 H   0  0  0  0  0  0  0  0  0  0  0  0
    2.5982    5.1098    0.0000 H   0  0  0  0  0  0  0  0  0  0  0  0
    1.7247    5.1863    0.0000 H   0  0  0  0  0  0  0  0  0  0  0  0
    1.6483    4.3128    0.0000 H   0  0  0  0  0  0  0  0  0  0  0  0
    1.6015    3.7774    0.0000 H   0  0  0  0  0  0  0  0  0  0  0  0
    1.5250    2.9040    0.0000 H   0  0  0  0  0  0  0  0  0  0  0  0
    2.3985    2.8275    0.0000 H   0  0  0  0  0  0  0  0  0  0  0  0
    3.9306    4.1131    0.0000 H   0  0  0  0  0  0  0  0  0  0  0  0
    4.0070    4.9866    0.0000 H   0  0  0  0  0  0  0  0  0  0  0  0
    3.1336    5.0630    0.0000 H   0  0  0  0  0  0  0  0  0  0  0  0
    3.7096    2.0935    0.0000 H   0  0  0  0  0  0  0  0  0  0  0  0
    3.0990    1.5812    0.0000 H   0  0  0  0  0  0  0  0  0  0  0  0
   10.0998    0.0987    0.0000 H   0  0  0  0  0  0  0  0  0  0  0  0
    4.6958   -1.4013    0.0000 H   0  0  0  0  0  0  0  0  0  0  0  0
    7.5017   -1.4013    0.0000 H   0  0  0  0  0  0  0  0  0  0  0  0
    4.3846   -0.1663    0.0000 H   0  0  0  0  0  0  0  0  0  0  0  0
    9.0259    3.0987    0.0000 H   0  0  0  0  0  0  0  0  0  0  0  0
   10.4289    0.6687    0.0000 H   0  0  0  0  0  0  0  0  0  0  0  0
    4.6958   -3.0213    0.0000 H   0  0  0  0  0  0  0  0  0  0  0  0
    7.5017   -3.0213    0.0000 H   0  0  0  0  0  0  0  0  0  0  0  0
    6.0988   -3.8313    0.0000 H   0  0  0  0  0  0  0  0  0  0  0  0
   10.4289    3.9087    0.0000 H   0  0  0  0  0  0  0  0  0  0  0  0
   11.8319    1.4787    0.0000 H   0  0  0  0  0  0  0  0  0  0  0  0
   11.8319    3.0987    0.0000 H   0  0  0  0  0  0  0  0  0  0  0  0
    2.2751    0.9707    0.0000 H   0  0  0  0  0  0  0  0  0  0  0  0
    1.7722    0.2525    0.0000 H   0  0  0  0  0  0  0  0  0  0  0  0
    2.4904   -0.2504    0.0000 H   0  0  0  0  0  0  0  0  0  0  0  0
    9.8183   -2.6036    0.0000 H   0  0  0  0  0  0  0  0  0  0  0  0
   10.2168   -3.2939    0.0000 H   0  0  0  0  0  0  0  0  0  0  0  0
   10.7580   -4.5213    0.0000 H   0  0  0  0  0  0  0  0  0  0  0  0
   12.1609   -2.0913    0.0000 H   0  0  0  0  0  0  0  0  0  0  0  0
   12.1609   -5.3313    0.0000 H   0  0  0  0  0  0  0  0  0  0  0  0
   13.5639   -2.9013    0.0000 H   0  0  0  0  0  0  0  0  0  0  0  0
   13.5639   -4.5213    0.0000 H   0  0  0  0  0  0  0  0  0  0  0  0
  1 27  1  0  0  0  0
  1 40  1  0  0  0  0
  2 21  1  0  0  0  0
  2 75  1  0  0  0  0
  3 16  2  0  0  0  0
  4 17  2  0  0  0  0
  5 20  2  0  0  0  0
  6 33  1  0  0  0  0
  6 41  1  0  0  0  0
  7 33  2  0  0  0  0
 12  8  1  1  0  0  0
  8 17  1  0  0  0  0
  8 18  1  0  0  0  0
 13  9  1  1  0  0  0
  9 16  1  0  0  0  0
  9 55  1  0  0  0  0
 10 14  1  0  0  0  0
 10 20  1  0  0  0  0
 10 58  1  0  0  0  0
 15 11  1  6  0  0  0
 11 33  1  0  0  0  0
 11 72  1  0  0  0  0
 12 16  1  0  0  0  0
 12 21  1  0  0  0  0
 12 48  1  0  0  0  0
 13 19  1  0  0  0  0
 13 20  1  0  0  0  0
 13 49  1  0  0  0  0
 14 23  1  0  0  0  0
 14 24  1  0  0  0  0
 14 25  1  0  0  0  0
 15 17  1  0  0  0  0
 15 22  1  0  0  0  0
 15 50  1  0  0  0  0
 18 26  1  0  0  0  0
 18 51  1  0  0  0  0
 18 52  1  0  0  0  0
 19 27  1  0  0  0  0
 19 53  1  0  0  0  0
 19 54  1  0  0  0  0
 21 56  1  0  0  0  0
 21 57  1  0  0  0  0
 22 28  1  0  0  0  0
 22 59  1  0  0  0  0
 22 60  1  0  0  0  0
 23 61  1  0  0  0  0
 23 62  1  0  0  0  0
 23 63  1  0  0  0  0
 24 64  1  0  0  0  0
 24 65  1  0  0  0  0
 24 66  1  0  0  0  0
 25 67  1  0  0  0  0
 25 68  1  0  0  0  0
 25 69  1  0  0  0  0
 26 29  2  0  0  0  0
 26 30  1  0  0  0  0
 27 70  1  0  0  0  0
 27 71  1  0  0  0  0
 28 31  2  0  0  0  0
 28 32  1  0  0  0  0
 29 34  1  0  0  0  0
 29 73  1  0  0  0  0
 30 35  2  0  0  0  0
 30 74  1  0  0  0  0
 31 37  1  0  0  0  0
 31 76  1  0  0  0  0
 32 38  2  0  0  0  0
 32 77  1  0  0  0  0
 34 36  2  0  0  0  0
 34 78  1  0  0  0  0
 35 36  1  0  0  0  0
 35 79  1  0  0  0  0
 36 80  1  0  0  0  0
 37 39  2  0  0  0  0
 37 81  1  0  0  0  0
 38 39  1  0  0  0  0
 38 82  1  0  0  0  0
 39 83  1  0  0  0  0
 40 84  1  0  0  0  0
 40 85  1  0  0  0  0
 40 86  1  0  0  0  0
 41 42  1  0  0  0  0
 41 87  1  0  0  0  0
 41 88  1  0  0  0  0
 42 43  2  0  0  0  0
 42 44  1  0  0  0  0
 43 45  1  0  0  0  0
 43 89  1  0  0  0  0
 44 46  2  0  0  0  0
 44 90  1  0  0  0  0
 45 47  2  0  0  0  0
 45 91  1  0  0  0  0
 46 47  1  0  0  0  0
 46 92  1  0  0  0  0
 47 93  1  0  0  0  0
M  END
> <PUBCHEM_COMPOUND_CID>
504526
> <PUBCHEM_COMPOUND_CANONICALIZED>
1
> <PUBCHEM_CACTVS_COMPLEXITY>
973
> <PUBCHEM_CACTVS_HBOND_ACCEPTOR>
7
> <PUBCHEM_CACTVS_HBOND_DONOR>
4
> <PUBCHEM_CACTVS_ROTATABLE_BOND>
18
> <PUBCHEM_CACTVS_SUBSKEYS>
AAADcfB/uABAAAAAAAAAAAAAAAAAAAAAAAAwYMAAAAAAAAABUAAAHgQQCAAADKjl2AayCIPABgiIAiFSGACCAAAgABAIiIGIDIkKdjagsTmccAhm9gGYqAeYyKCOAAAAAAAAAAAAAAAAAAAAAAAAAAAAAA==
> <PUBCHEM_IUPAC_OPENEYE_NAME>
benzyl N-[(1S)-1-benzyl-2-[benzyl-[(1S)-2-[[(1S)-1-(tert-butylcarbamoyl)-3-methylsulfanyl-propyl]amino]-1-(hydroxymethyl)-2-oxo-ethyl]amino]-2-oxo-ethyl]carbamate
> <PUBCHEM_IUPAC_CAS_NAME>
N-[(2S)-1-[[(2S)-1-[[(2S)-1-(tert-butylamino)-4-(methylthio)-1-oxobutan-2-yl]amino]-3-hydroxy-1-oxopropan-2-yl]-(phenylmethyl)amino]-1-oxo-3-phenylpropan-2-yl]carbamic acid (phenylmethyl) ester
> <PUBCHEM_IUPAC_NAME_MARKUP>
benzyl <I>N</I>-[(2<I>S</I>)-1-[benzyl-[(2<I>S</I>)-1-[[(2<I>S</I>)-1-(<I>tert</I>-butylamino)-4-methylsulfanyl-1-oxobutan-2-yl]amino]-3-hydroxy-1-oxopropan-2-yl]amino]-1-oxo-3-phenylpropan-2-yl]carbamate
> <PUBCHEM_IUPAC_NAME>
benzyl N-[(2S)-1-[benzyl-[(2S)-1-[[(2S)-1-(tert-butylamino)-4-methylsulfanyl-1-oxobutan-2-yl]amino]-3-hydroxy-1-oxopropan-2-yl]amino]-1-oxo-3-phenylpropan-2-yl]carbamate
> <PUBCHEM_IUPAC_SYSTEMATIC_NAME>
(phenylmethyl) N-[(2S)-1-[[(2S)-1-[[(2S)-1-(tert-butylamino)-4-methylsulfanyl-1-oxidanylidene-butan-2-yl]amino]-3-oxidanyl-1-oxidanylidene-propan-2-yl]-(phenylmethyl)amino]-1-oxidanylidene-3-phenyl-propan-2-yl]carbamate
> <PUBCHEM_IUPAC_TRADITIONAL_NAME>
N-[(1S)-1-benzyl-2-[benzyl-[(1S)-2-[[(1S)-1-(tert-butylcarbamoyl)-3-(methylthio)propyl]amino]-2-keto-1-methylol-ethyl]amino]-2-keto-ethyl]carbamic acid benzyl ester
> <PUBCHEM_IUPAC_INCHI>
InChI=1S/C36H46N4O6S/c1-36(2,3)39-32(42)29(20-21-47-4)37-33(43)31(24-41)40(23-27-16-10-6-11-17-27)34(44)30(22-26-14-8-5-9-15-26)38-35(45)46-25-28-18-12-7-13-19-28/h5-19,29-31,41H,20-25H2,1-4H3,(H,37,43)(H,38,45)(H,39,42)/t29-,30-,31-/m0/s1
> <PUBCHEM_IUPAC_INCHIKEY>
MGPYLPLQCNOVBV-CHQNGUEUSA-N
> <PUBCHEM_XLOGP3_AA>
4.5
> <PUBCHEM_EXACT_MASS>
662.31380637
> <PUBCHEM_MOLECULAR_FORMULA>
C36H46N4O6S
> <PUBCHEM_MOLECULAR_WEIGHT>
662.8
> <PUBCHEM_OPENEYE_CAN_SMILES>
CC(C)(C)NC(=O)C(CCSC)NC(=O)C(CO)N(CC1=CC=CC=C1)C(=O)C(CC2=CC=CC=C2)NC(=O)OCC3=CC=CC=C3
> <PUBCHEM_OPENEYE_ISO_SMILES>
CC(C)(C)NC(=O)[C@H](CCSC)NC(=O)[C@H](CO)N(CC1=CC=CC=C1)C(=O)[C@H](CC2=CC=CC=C2)NC(=O)OCC3=CC=CC=C3
> <PUBCHEM_CACTVS_TPSA>
162
> <PUBCHEM_MONOISOTOPIC_WEIGHT>
662.31380637
> <PUBCHEM_TOTAL_CHARGE>
0
> <PUBCHEM_HEAVY_ATOM_COUNT>
47
> <PUBCHEM_ATOM_DEF_STEREO_COUNT>
3
> <PUBCHEM_ATOM_UDEF_STEREO_COUNT>
0
> <PUBCHEM_BOND_DEF_STEREO_COUNT>
0
> <PUBCHEM_BOND_UDEF_STEREO_COUNT>
0
> <PUBCHEM_ISOTOPIC_ATOM_COUNT>
0
> <PUBCHEM_COMPONENT_COUNT>
1
> <PUBCHEM_CACTVS_TAUTO_COUNT>
-1
> <PUBCHEM_COORDINATE_TYPE>
1
5
255
> <PUBCHEM_BONDANNOTATIONS>
15  11  6
26  29  8
26  30  8
28  31  8
28  32  8
29  34  8
30  35  8
31  37  8
32  38  8
34  36  8
35  36  8
37  39  8
38  39  8
42  43  8
42  44  8
43  45  8
44  46  8
45  47  8
46  47  8
12  8  5
13  9  5
$$$$
