504503
  -OEChem-10302200282D
 42 42  0     1  0  0  0  0  0999 V2000
    6.3301   -1.1550    0.0000 S   0  0  0  0  0  0  0  0  0  0  0  0
    4.5981   -1.1550    0.0000 O   0  0  0  0  0  0  0  0  0  0  0  0
    7.1962    0.3450    0.0000 O   0  0  0  0  0  0  0  0  0  0  0  0
   10.6603    1.3450    0.0000 O   0  0  0  0  0  0  0  0  0  0  0  0
    5.4641   -2.6550    0.0000 O   0  0  0  0  0  0  0  0  0  0  0  0
    8.9282    0.3450    0.0000 N   0  0  0  0  0  0  0  0  0  0  0  0
    9.7942    2.8450    0.0000 N   0  0  0  0  0  0  0  0  0  0  0  0
    2.8660   -1.1550    0.0000 C   0  0  0  0  0  0  0  0  0  0  0  0
    3.7320   -1.6550    0.0000 C   0  0  0  0  0  0  0  0  0  0  0  0
    2.0000   -1.6550    0.0000 C   0  0  0  0  0  0  0  0  0  0  0  0
    2.8660   -0.1550    0.0000 C   0  0  0  0  0  0  0  0  0  0  0  0
    8.9282    1.3450    0.0000 C   0  0  1  0  0  0  0  0  0  0  0  0
    8.0622   -1.1550    0.0000 C   0  0  0  0  0  0  0  0  0  0  0  0
    8.0622   -0.1550    0.0000 C   0  0  0  0  0  0  0  0  0  0  0  0
    7.1962   -1.6550    0.0000 C   0  0  0  0  0  0  0  0  0  0  0  0
    8.0622    1.8450    0.0000 C   0  0  0  0  0  0  0  0  0  0  0  0
    9.7942    1.8450    0.0000 C   0  0  0  0  0  0  0  0  0  0  0  0
    8.9282   -1.6550    0.0000 C   0  0  0  0  0  0  0  0  0  0  0  0
    7.1962   -2.6550    0.0000 C   0  0  0  0  0  0  0  0  0  0  0  0
    5.4641   -1.6550    0.0000 C   0  0  0  0  0  0  0  0  0  0  0  0
    8.9282   -2.6550    0.0000 C   0  0  0  0  0  0  0  0  0  0  0  0
    8.0622   -3.1550    0.0000 C   0  0  0  0  0  0  0  0  0  0  0  0
    2.8660   -1.7750    0.0000 H   0  0  0  0  0  0  0  0  0  0  0  0
    3.3335   -2.1300    0.0000 H   0  0  0  0  0  0  0  0  0  0  0  0
    4.1306   -2.1300    0.0000 H   0  0  0  0  0  0  0  0  0  0  0  0
    1.6900   -1.1181    0.0000 H   0  0  0  0  0  0  0  0  0  0  0  0
    1.4631   -1.9650    0.0000 H   0  0  0  0  0  0  0  0  0  0  0  0
    2.3100   -2.1919    0.0000 H   0  0  0  0  0  0  0  0  0  0  0  0
    3.4860   -0.1550    0.0000 H   0  0  0  0  0  0  0  0  0  0  0  0
    2.8660    0.4650    0.0000 H   0  0  0  0  0  0  0  0  0  0  0  0
    2.2460   -0.1550    0.0000 H   0  0  0  0  0  0  0  0  0  0  0  0
    9.4651    1.0350    0.0000 H   0  0  0  0  0  0  0  0  0  0  0  0
    9.4651    0.0350    0.0000 H   0  0  0  0  0  0  0  0  0  0  0  0
    8.3722    2.3819    0.0000 H   0  0  0  0  0  0  0  0  0  0  0  0
    7.5252    2.1550    0.0000 H   0  0  0  0  0  0  0  0  0  0  0  0
    7.7522    1.3081    0.0000 H   0  0  0  0  0  0  0  0  0  0  0  0
    9.4651   -1.3450    0.0000 H   0  0  0  0  0  0  0  0  0  0  0  0
    6.6592   -2.9650    0.0000 H   0  0  0  0  0  0  0  0  0  0  0  0
    9.4651   -2.9650    0.0000 H   0  0  0  0  0  0  0  0  0  0  0  0
    8.0622   -3.7750    0.0000 H   0  0  0  0  0  0  0  0  0  0  0  0
   10.3312    3.1550    0.0000 H   0  0  0  0  0  0  0  0  0  0  0  0
    9.2573    3.1550    0.0000 H   0  0  0  0  0  0  0  0  0  0  0  0
  1 15  1  0  0  0  0
  1 20  1  0  0  0  0
  2  9  1  0  0  0  0
  2 20  1  0  0  0  0
  3 14  2  0  0  0  0
  4 17  2  0  0  0  0
  5 20  2  0  0  0  0
 12  6  1  1  0  0  0
  6 14  1  0  0  0  0
  6 33  1  0  0  0  0
  7 17  1  0  0  0  0
  7 41  1  0  0  0  0
  7 42  1  0  0  0  0
  8  9  1  0  0  0  0
  8 10  1  0  0  0  0
  8 11  1  0  0  0  0
  8 23  1  0  0  0  0
  9 24  1  0  0  0  0
  9 25  1  0  0  0  0
 10 26  1  0  0  0  0
 10 27  1  0  0  0  0
 10 28  1  0  0  0  0
 11 29  1  0  0  0  0
 11 30  1  0  0  0  0
 11 31  1  0  0  0  0
 12 16  1  0  0  0  0
 12 17  1  0  0  0  0
 12 32  1  0  0  0  0
 13 14  1  0  0  0  0
 13 15  1  0  0  0  0
 13 18  2  0  0  0  0
 15 19  2  0  0  0  0
 16 34  1  0  0  0  0
 16 35  1  0  0  0  0
 16 36  1  0  0  0  0
 18 21  1  0  0  0  0
 18 37  1  0  0  0  0
 19 22  1  0  0  0  0
 19 38  1  0  0  0  0
 21 22  2  0  0  0  0
 21 39  1  0  0  0  0
 22 40  1  0  0  0  0
M  END
> <PUBCHEM_COMPOUND_CID>
504503
> <PUBCHEM_COMPOUND_CANONICALIZED>
1
> <PUBCHEM_CACTVS_COMPLEXITY>
414
> <PUBCHEM_CACTVS_HBOND_ACCEPTOR>
5
> <PUBCHEM_CACTVS_HBOND_DONOR>
2
> <PUBCHEM_CACTVS_ROTATABLE_BOND>
8
> <PUBCHEM_CACTVS_SUBSKEYS>
AAADceBzOABAAAAAAAAAAAAAAAAAAAAAAAAwAAAAAAAAAAABAAAAHgQQAAAADSjh2AYyCYLABAiIAiFSGACCAAAkCBAIiJmIBMgIYDKglTGUIQhglgCIiYcYiACOAAAAAAAEAAAAAAAAAAgAAAAAAAAAAA==
> <PUBCHEM_IUPAC_OPENEYE_NAME>
isobutyl [2-[[(1S)-2-amino-1-methyl-2-oxo-ethyl]carbamoyl]phenyl]sulfanylformate
> <PUBCHEM_IUPAC_CAS_NAME>
[[2-[[[(2S)-1-amino-1-oxopropan-2-yl]amino]-oxomethyl]phenyl]thio]formic acid 2-methylpropyl ester
> <PUBCHEM_IUPAC_NAME_MARKUP>
2-methylpropyl [2-[[(2<I>S</I>)-1-amino-1-oxopropan-2-yl]carbamoyl]phenyl]sulfanylformate
> <PUBCHEM_IUPAC_NAME>
2-methylpropyl [2-[[(2S)-1-amino-1-oxopropan-2-yl]carbamoyl]phenyl]sulfanylformate
> <PUBCHEM_IUPAC_SYSTEMATIC_NAME>
2-methylpropyl [2-[[(2S)-1-azanyl-1-oxidanylidene-propan-2-yl]carbamoyl]phenyl]sulfanylmethanoate
> <PUBCHEM_IUPAC_TRADITIONAL_NAME>
[[2-[[(1S)-2-amino-2-keto-1-methyl-ethyl]carbamoyl]phenyl]thio]formic acid isobutyl ester
> <PUBCHEM_IUPAC_INCHI>
InChI=1S/C15H20N2O4S/c1-9(2)8-21-15(20)22-12-7-5-4-6-11(12)14(19)17-10(3)13(16)18/h4-7,9-10H,8H2,1-3H3,(H2,16,18)(H,17,19)/t10-/m0/s1
> <PUBCHEM_IUPAC_INCHIKEY>
RJJUAMAIEISIHM-JTQLQIEISA-N
> <PUBCHEM_XLOGP3_AA>
2.6
> <PUBCHEM_EXACT_MASS>
324.11437830
> <PUBCHEM_MOLECULAR_FORMULA>
C15H20N2O4S
> <PUBCHEM_MOLECULAR_WEIGHT>
324.4
> <PUBCHEM_OPENEYE_CAN_SMILES>
CC(C)COC(=O)SC1=CC=CC=C1C(=O)NC(C)C(=O)N
> <PUBCHEM_OPENEYE_ISO_SMILES>
C[C@@H](C(=O)N)NC(=O)C1=CC=CC=C1SC(=O)OCC(C)C
> <PUBCHEM_CACTVS_TPSA>
124
> <PUBCHEM_MONOISOTOPIC_WEIGHT>
324.11437830
> <PUBCHEM_TOTAL_CHARGE>
0
> <PUBCHEM_HEAVY_ATOM_COUNT>
22
> <PUBCHEM_ATOM_DEF_STEREO_COUNT>
1
> <PUBCHEM_ATOM_UDEF_STEREO_COUNT>
0
> <PUBCHEM_BOND_DEF_STEREO_COUNT>
0
> <PUBCHEM_BOND_UDEF_STEREO_COUNT>
0
> <PUBCHEM_ISOTOPIC_ATOM_COUNT>
0
> <PUBCHEM_COMPONENT_COUNT>
1
> <PUBCHEM_CACTVS_TAUTO_COUNT>
-1
> <PUBCHEM_COORDINATE_TYPE>
1
5
255
> <PUBCHEM_BONDANNOTATIONS>
13  15  8
13  18  8
15  19  8
18  21  8
19  22  8
21  22  8
12  6  5
$$$$
