504601
  -OEChem-10302200282D
 39 42  0     1  0  0  0  0  0999 V2000
    3.2601    1.6866    0.0000 O   0  0  0  0  0  0  0  0  0  0  0  0
    2.0000    0.4266    0.0000 O   0  0  0  0  0  0  0  0  0  0  0  0
    7.7242   -2.7182    0.0000 O   0  0  0  0  0  0  0  0  0  0  0  0
    6.8582   -4.2182    0.0000 O   0  0  0  0  0  0  0  0  0  0  0  0
    4.5691    0.7356    0.0000 N   0  0  0  0  0  0  0  0  0  0  0  0
    3.7601    0.1478    0.0000 C   0  0  3  0  0  0  0  0  0  0  0  0
    4.2601   -0.7182    0.0000 C   0  0  2  0  0  0  0  0  0  0  0  0
    3.2601   -0.7182    0.0000 C   0  0  0  0  0  0  0  0  0  0  0  0
    5.1261   -1.2182    0.0000 C   0  0  0  0  0  0  0  0  0  0  0  0
    2.9511    0.7356    0.0000 C   0  0  0  0  0  0  0  0  0  0  0  0
    4.2601    1.6866    0.0000 C   0  0  0  0  0  0  0  0  0  0  0  0
    5.1261   -2.2182    0.0000 C   0  0  0  0  0  0  0  0  0  0  0  0
    5.9921   -0.7182    0.0000 C   0  0  0  0  0  0  0  0  0  0  0  0
    4.8479    2.4957    0.0000 C   0  0  0  0  0  0  0  0  0  0  0  0
    5.9921   -2.7182    0.0000 C   0  0  0  0  0  0  0  0  0  0  0  0
    6.8582   -1.2182    0.0000 C   0  0  0  0  0  0  0  0  0  0  0  0
    6.8582   -2.2182    0.0000 C   0  0  0  0  0  0  0  0  0  0  0  0
    5.8424    2.3911    0.0000 C   0  0  0  0  0  0  0  0  0  0  0  0
    4.4411    3.4092    0.0000 C   0  0  0  0  0  0  0  0  0  0  0  0
    6.4302    3.2002    0.0000 C   0  0  0  0  0  0  0  0  0  0  0  0
    5.0289    4.2182    0.0000 C   0  0  0  0  0  0  0  0  0  0  0  0
    6.0234    4.1137    0.0000 C   0  0  0  0  0  0  0  0  0  0  0  0
    7.7242   -3.7182    0.0000 C   0  0  0  0  0  0  0  0  0  0  0  0
    8.5902   -4.2182    0.0000 C   0  0  0  0  0  0  0  0  0  0  0  0
    4.0996   -1.3171    0.0000 H   0  0  0  0  0  0  0  0  0  0  0  0
    2.6775   -0.5062    0.0000 H   0  0  0  0  0  0  0  0  0  0  0  0
    3.1524   -1.3288    0.0000 H   0  0  0  0  0  0  0  0  0  0  0  0
    4.5892   -2.5282    0.0000 H   0  0  0  0  0  0  0  0  0  0  0  0
    5.9921   -0.0982    0.0000 H   0  0  0  0  0  0  0  0  0  0  0  0
    5.9921   -3.3382    0.0000 H   0  0  0  0  0  0  0  0  0  0  0  0
    7.3951   -0.9082    0.0000 H   0  0  0  0  0  0  0  0  0  0  0  0
    6.0946    1.8247    0.0000 H   0  0  0  0  0  0  0  0  0  0  0  0
    3.8245    3.4740    0.0000 H   0  0  0  0  0  0  0  0  0  0  0  0
    7.0468    3.1353    0.0000 H   0  0  0  0  0  0  0  0  0  0  0  0
    4.7767    4.7846    0.0000 H   0  0  0  0  0  0  0  0  0  0  0  0
    6.3879    4.6153    0.0000 H   0  0  0  0  0  0  0  0  0  0  0  0
    8.2802   -4.7552    0.0000 H   0  0  0  0  0  0  0  0  0  0  0  0
    9.1271   -4.5282    0.0000 H   0  0  0  0  0  0  0  0  0  0  0  0
    8.9002   -3.6813    0.0000 H   0  0  0  0  0  0  0  0  0  0  0  0
  1 10  1  0  0  0  0
  1 11  1  0  0  0  0
  2 10  2  0  0  0  0
  3 17  1  0  0  0  0
  3 23  1  0  0  0  0
  4 23  2  0  0  0  0
  5  6  1  0  0  0  0
  5 11  2  0  0  0  0
  6  7  1  0  0  0  0
  6  8  1  0  0  0  0
  6 10  1  0  0  0  0
  7  8  1  0  0  0  0
  7  9  1  1  0  0  0
  7 25  1  0  0  0  0
  8 26  1  0  0  0  0
  8 27  1  0  0  0  0
  9 12  2  0  0  0  0
  9 13  1  0  0  0  0
 11 14  1  0  0  0  0
 12 15  1  0  0  0  0
 12 28  1  0  0  0  0
 13 16  2  0  0  0  0
 13 29  1  0  0  0  0
 14 18  2  0  0  0  0
 14 19  1  0  0  0  0
 15 17  2  0  0  0  0
 15 30  1  0  0  0  0
 16 17  1  0  0  0  0
 16 31  1  0  0  0  0
 18 20  1  0  0  0  0
 18 32  1  0  0  0  0
 19 21  2  0  0  0  0
 19 33  1  0  0  0  0
 20 22  2  0  0  0  0
 20 34  1  0  0  0  0
 21 22  1  0  0  0  0
 21 35  1  0  0  0  0
 22 36  1  0  0  0  0
 23 24  1  0  0  0  0
 24 37  1  0  0  0  0
 24 38  1  0  0  0  0
 24 39  1  0  0  0  0
M  END
> <PUBCHEM_COMPOUND_CID>
504601
> <PUBCHEM_COMPOUND_CANONICALIZED>
1
> <PUBCHEM_CACTVS_COMPLEXITY>
558
> <PUBCHEM_CACTVS_HBOND_ACCEPTOR>
5
> <PUBCHEM_CACTVS_HBOND_DONOR>
0
> <PUBCHEM_CACTVS_ROTATABLE_BOND>
4
> <PUBCHEM_CACTVS_SUBSKEYS>
AAADccB6OAAAAAAAAAAAAAAAGAAAAQAAAAAwYAAAAAAAAAABQAAAHgAAAAAADYyBmAAyDoIABACoAiDyDAACCAAgIAAIiAGmCJgOJrKEsRuDOiCkwBEIqAeYyPCOoAAAAAAAAABAAAAAAAAAAAAAAAAAAA==
> <PUBCHEM_IUPAC_OPENEYE_NAME>
[4-[(2R)-7-oxo-5-phenyl-6-oxa-4-azaspiro[2.4]hept-4-en-2-yl]phenyl] acetate
> <PUBCHEM_IUPAC_CAS_NAME>
acetic acid [4-[(2R)-7-oxo-5-phenyl-6-oxa-4-azaspiro[2.4]hept-4-en-2-yl]phenyl] ester
> <PUBCHEM_IUPAC_NAME_MARKUP>
[4-[(2<I>R</I>)-7-oxo-5-phenyl-6-oxa-4-azaspiro[2.4]hept-4-en-2-yl]phenyl] acetate
> <PUBCHEM_IUPAC_NAME>
[4-[(2R)-7-oxo-5-phenyl-6-oxa-4-azaspiro[2.4]hept-4-en-2-yl]phenyl] acetate
> <PUBCHEM_IUPAC_SYSTEMATIC_NAME>
[4-[(2R)-7-oxidanylidene-5-phenyl-6-oxa-4-azaspiro[2.4]hept-4-en-2-yl]phenyl] ethanoate
> <PUBCHEM_IUPAC_TRADITIONAL_NAME>
acetic acid [4-[(2R)-7-keto-5-phenyl-6-oxa-4-azaspiro[2.4]hept-4-en-2-yl]phenyl] ester
> <PUBCHEM_IUPAC_INCHI>
InChI=1S/C19H15NO4/c1-12(21)23-15-9-7-13(8-10-15)16-11-19(16)18(22)24-17(20-19)14-5-3-2-4-6-14/h2-10,16H,11H2,1H3/t16-,19?/m1/s1
> <PUBCHEM_IUPAC_INCHIKEY>
SQBOOCYVYLXNLK-VTBWFHPJSA-N
> <PUBCHEM_XLOGP3_AA>
2.9
> <PUBCHEM_EXACT_MASS>
321.10010796
> <PUBCHEM_MOLECULAR_FORMULA>
C19H15NO4
> <PUBCHEM_MOLECULAR_WEIGHT>
321.3
> <PUBCHEM_OPENEYE_CAN_SMILES>
CC(=O)OC1=CC=C(C=C1)C2CC23C(=O)OC(=N3)C4=CC=CC=C4
> <PUBCHEM_OPENEYE_ISO_SMILES>
CC(=O)OC1=CC=C(C=C1)[C@H]2CC23C(=O)OC(=N3)C4=CC=CC=C4
> <PUBCHEM_CACTVS_TPSA>
65
> <PUBCHEM_MONOISOTOPIC_WEIGHT>
321.10010796
> <PUBCHEM_TOTAL_CHARGE>
0
> <PUBCHEM_HEAVY_ATOM_COUNT>
24
> <PUBCHEM_ATOM_DEF_STEREO_COUNT>
1
> <PUBCHEM_ATOM_UDEF_STEREO_COUNT>
1
> <PUBCHEM_BOND_DEF_STEREO_COUNT>
0
> <PUBCHEM_BOND_UDEF_STEREO_COUNT>
0
> <PUBCHEM_ISOTOPIC_ATOM_COUNT>
0
> <PUBCHEM_COMPONENT_COUNT>
1
> <PUBCHEM_CACTVS_TAUTO_COUNT>
-1
> <PUBCHEM_COORDINATE_TYPE>
1
5
255
> <PUBCHEM_BONDANNOTATIONS>
12  15  8
13  16  8
14  18  8
14  19  8
15  17  8
16  17  8
18  20  8
19  21  8
20  22  8
21  22  8
6  8  3
7  9  5
9  12  8
9  13  8
$$$$
