504695
  -OEChem-10302200282D
115118  0     1  0  0  0  0  0999 V2000
   14.1035    0.8796    0.0000 O   0  0  0  0  0  0  0  0  0  0  0  0
   11.5114    5.2458    0.0000 O   0  0  0  0  0  0  0  0  0  0  0  0
   13.2056    4.8857    0.0000 O   0  0  0  0  0  0  0  0  0  0  0  0
    9.9366    2.0024    0.0000 O   0  0  0  0  0  0  0  0  0  0  0  0
    9.7942    0.6477    0.0000 O   0  0  0  0  0  0  0  0  0  0  0  0
   10.6603   -2.8523    0.0000 O   0  0  0  0  0  0  0  0  0  0  0  0
    7.1962   -3.8523    0.0000 O   0  0  0  0  0  0  0  0  0  0  0  0
    4.5981   -1.3523    0.0000 O   0  0  0  0  0  0  0  0  0  0  0  0
    4.5981    0.6477    0.0000 O   0  0  0  0  0  0  0  0  0  0  0  0
    6.3301    0.6477    0.0000 O   0  0  0  0  0  0  0  0  0  0  0  0
    2.8660   -5.3523    0.0000 O   0  0  0  0  0  0  0  0  0  0  0  0
    2.0000   -3.8523    0.0000 O   0  0  0  0  0  0  0  0  0  0  0  0
    3.7320   -0.8523    0.0000 O   0  0  0  0  0  0  0  0  0  0  0  0
   11.0956    3.2895    0.0000 N   0  0  0  0  0  0  0  0  0  0  0  0
   11.5263    0.6477    0.0000 N   0  0  0  0  0  0  0  0  0  0  0  0
    9.7942   -1.3523    0.0000 N   0  0  0  0  0  0  0  0  0  0  0  0
    8.0622   -2.3523    0.0000 N   0  0  0  0  0  0  0  0  0  0  0  0
    5.4641   -2.8523    0.0000 N   0  0  0  0  0  0  0  0  0  0  0  0
    2.8660   -2.3523    0.0000 N   0  0  0  0  0  0  0  0  0  0  0  0
   12.0466    3.5985    0.0000 C   0  0  0  0  0  0  0  0  0  0  0  0
   13.0248    3.3906    0.0000 C   0  0  0  0  0  0  0  0  0  0  0  0
   12.3556    2.6475    0.0000 C   0  0  0  0  0  0  0  0  0  0  0  0
   11.6308    1.6422    0.0000 C   0  0  1  0  0  0  0  0  0  0  0  0
   12.6090    1.8502    0.0000 C   0  0  0  0  0  0  0  0  0  0  0  0
   12.2545    4.5767    0.0000 C   0  0  0  0  0  0  0  0  0  0  0  0
   10.8877    2.3114    0.0000 C   0  0  0  0  0  0  0  0  0  0  0  0
   13.1090    0.9841    0.0000 C   0  0  2  0  0  0  0  0  0  0  0  0
   12.4398    0.2410    0.0000 C   0  0  0  0  0  0  0  0  0  0  0  0
    8.9282   -3.8523    0.0000 C   0  0  0  0  0  0  0  0  0  0  0  0
   10.6603    0.1477    0.0000 C   0  0  0  0  0  0  0  0  0  0  0  0
    8.0622   -4.3523    0.0000 C   0  0  0  0  0  0  0  0  0  0  0  0
    9.7942   -4.3523    0.0000 C   0  0  0  0  0  0  0  0  0  0  0  0
   10.6603   -0.8523    0.0000 C   0  0  2  0  0  0  0  0  0  0  0  0
    8.9282   -2.8523    0.0000 C   0  0  1  0  0  0  0  0  0  0  0  0
    8.0622   -5.3523    0.0000 C   0  0  0  0  0  0  0  0  0  0  0  0
    9.7942   -5.3523    0.0000 C   0  0  0  0  0  0  0  0  0  0  0  0
    8.9282   -5.8523    0.0000 C   0  0  0  0  0  0  0  0  0  0  0  0
   11.5263   -1.3523    0.0000 C   0  0  0  0  0  0  0  0  0  0  0  0
    9.7942   -2.3523    0.0000 C   0  0  0  0  0  0  0  0  0  0  0  0
   14.6913    1.6886    0.0000 C   0  0  0  0  0  0  0  0  0  0  0  0
   12.3923   -0.8523    0.0000 C   0  0  0  0  0  0  0  0  0  0  0  0
   11.5263   -2.3523    0.0000 C   0  0  0  0  0  0  0  0  0  0  0  0
    7.1962   -2.8523    0.0000 C   0  0  0  0  0  0  0  0  0  0  0  0
    6.3301   -2.3523    0.0000 C   0  0  2  0  0  0  0  0  0  0  0  0
   15.6858    1.5841    0.0000 C   0  0  0  0  0  0  0  0  0  0  0  0
    6.3301   -1.3523    0.0000 C   0  0  0  0  0  0  0  0  0  0  0  0
   16.0925    0.6705    0.0000 C   0  0  0  0  0  0  0  0  0  0  0  0
   16.2736    2.3931    0.0000 C   0  0  0  0  0  0  0  0  0  0  0  0
    5.4641   -0.8523    0.0000 C   0  0  0  0  0  0  0  0  0  0  0  0
    4.5981   -2.3523    0.0000 C   0  0  0  0  0  0  0  0  0  0  0  0
   17.0870    0.5660    0.0000 C   0  0  0  0  0  0  0  0  0  0  0  0
   17.2681    2.2886    0.0000 C   0  0  0  0  0  0  0  0  0  0  0  0
    3.7320   -2.8523    0.0000 C   0  0  2  0  0  0  0  0  0  0  0  0
   17.6748    1.3750    0.0000 C   0  0  0  0  0  0  0  0  0  0  0  0
    5.4641    0.1477    0.0000 C   0  0  0  0  0  0  0  0  0  0  0  0
    3.7320   -3.8523    0.0000 C   0  0  0  0  0  0  0  0  0  0  0  0
    2.8660   -4.3523    0.0000 C   0  0  0  0  0  0  0  0  0  0  0  0
    2.8660   -1.3523    0.0000 C   0  0  0  0  0  0  0  0  0  0  0  0
    2.0000   -0.8523    0.0000 C   0  0  0  0  0  0  0  0  0  0  0  0
   13.5506    3.0621    0.0000 H   0  0  0  0  0  0  0  0  0  0  0  0
   13.2570    3.9655    0.0000 H   0  0  0  0  0  0  0  0  0  0  0  0
   11.8082    2.3564    0.0000 H   0  0  0  0  0  0  0  0  0  0  0  0
   12.7374    2.1589    0.0000 H   0  0  0  0  0  0  0  0  0  0  0  0
   10.6348    3.7044    0.0000 H   0  0  0  0  0  0  0  0  0  0  0  0
   11.0520    1.4201    0.0000 H   0  0  0  0  0  0  0  0  0  0  0  0
   13.1754    2.1023    0.0000 H   0  0  0  0  0  0  0  0  0  0  0  0
   12.4174    2.4398    0.0000 H   0  0  0  0  0  0  0  0  0  0  0  0
   13.4466    1.5041    0.0000 H   0  0  0  0  0  0  0  0  0  0  0  0
   12.1298   -0.2959    0.0000 H   0  0  0  0  0  0  0  0  0  0  0  0
   12.9414   -0.1234    0.0000 H   0  0  0  0  0  0  0  0  0  0  0  0
    9.4651   -3.5423    0.0000 H   0  0  0  0  0  0  0  0  0  0  0  0
    7.8501   -3.7697    0.0000 H   0  0  0  0  0  0  0  0  0  0  0  0
    7.4516   -4.4599    0.0000 H   0  0  0  0  0  0  0  0  0  0  0  0
   10.4048   -4.4599    0.0000 H   0  0  0  0  0  0  0  0  0  0  0  0
   10.0063   -3.7697    0.0000 H   0  0  0  0  0  0  0  0  0  0  0  0
    8.9282   -2.2323    0.0000 H   0  0  0  0  0  0  0  0  0  0  0  0
   10.1233   -0.5423    0.0000 H   0  0  0  0  0  0  0  0  0  0  0  0
    7.4516   -5.2446    0.0000 H   0  0  0  0  0  0  0  0  0  0  0  0
    7.8501   -5.9349    0.0000 H   0  0  0  0  0  0  0  0  0  0  0  0
   10.0063   -5.9349    0.0000 H   0  0  0  0  0  0  0  0  0  0  0  0
   10.4048   -5.2446    0.0000 H   0  0  0  0  0  0  0  0  0  0  0  0
    8.5297   -6.3272    0.0000 H   0  0  0  0  0  0  0  0  0  0  0  0
    9.3267   -6.3272    0.0000 H   0  0  0  0  0  0  0  0  0  0  0  0
   10.9893   -1.6623    0.0000 H   0  0  0  0  0  0  0  0  0  0  0  0
    9.2573   -1.0423    0.0000 H   0  0  0  0  0  0  0  0  0  0  0  0
   11.6403    5.8523    0.0000 H   0  0  0  0  0  0  0  0  0  0  0  0
    8.0622   -1.7323    0.0000 H   0  0  0  0  0  0  0  0  0  0  0  0
   14.8622    2.2846    0.0000 H   0  0  0  0  0  0  0  0  0  0  0  0
   14.1340    1.9604    0.0000 H   0  0  0  0  0  0  0  0  0  0  0  0
   12.7023   -1.3892    0.0000 H   0  0  0  0  0  0  0  0  0  0  0  0
   12.9292   -0.5423    0.0000 H   0  0  0  0  0  0  0  0  0  0  0  0
   12.0823   -0.3153    0.0000 H   0  0  0  0  0  0  0  0  0  0  0  0
   10.9063   -2.3523    0.0000 H   0  0  0  0  0  0  0  0  0  0  0  0
   11.5263   -2.9723    0.0000 H   0  0  0  0  0  0  0  0  0  0  0  0
   12.1463   -2.3523    0.0000 H   0  0  0  0  0  0  0  0  0  0  0  0
    5.7932   -2.0423    0.0000 H   0  0  0  0  0  0  0  0  0  0  0  0
    6.9407   -1.4599    0.0000 H   0  0  0  0  0  0  0  0  0  0  0  0
    6.5422   -0.7697    0.0000 H   0  0  0  0  0  0  0  0  0  0  0  0
    5.4641   -3.4723    0.0000 H   0  0  0  0  0  0  0  0  0  0  0  0
   15.7281    0.1690    0.0000 H   0  0  0  0  0  0  0  0  0  0  0  0
   16.0214    2.9595    0.0000 H   0  0  0  0  0  0  0  0  0  0  0  0
    4.8535   -0.7446    0.0000 H   0  0  0  0  0  0  0  0  0  0  0  0
    5.2520   -1.4349    0.0000 H   0  0  0  0  0  0  0  0  0  0  0  0
   17.3392   -0.0004    0.0000 H   0  0  0  0  0  0  0  0  0  0  0  0
   17.6325    2.7902    0.0000 H   0  0  0  0  0  0  0  0  0  0  0  0
    3.7320   -2.2323    0.0000 H   0  0  0  0  0  0  0  0  0  0  0  0
   18.2914    1.3102    0.0000 H   0  0  0  0  0  0  0  0  0  0  0  0
    3.9441   -4.4349    0.0000 H   0  0  0  0  0  0  0  0  0  0  0  0
    4.3426   -3.7446    0.0000 H   0  0  0  0  0  0  0  0  0  0  0  0
    2.3291   -2.6623    0.0000 H   0  0  0  0  0  0  0  0  0  0  0  0
    4.5981    1.2677    0.0000 H   0  0  0  0  0  0  0  0  0  0  0  0
    2.3100   -0.3153    0.0000 H   0  0  0  0  0  0  0  0  0  0  0  0
    1.4631   -0.5423    0.0000 H   0  0  0  0  0  0  0  0  0  0  0  0
    1.6900   -1.3892    0.0000 H   0  0  0  0  0  0  0  0  0  0  0  0
    2.3291   -5.6623    0.0000 H   0  0  0  0  0  0  0  0  0  0  0  0
 27  1  1  1  0  0  0
  1 40  1  0  0  0  0
  2 25  1  0  0  0  0
  2 86  1  0  0  0  0
  3 25  2  0  0  0  0
  4 26  2  0  0  0  0
  5 30  2  0  0  0  0
  6 39  2  0  0  0  0
  7 43  2  0  0  0  0
  8 50  2  0  0  0  0
  9 55  1  0  0  0  0
  9111  1  0  0  0  0
 10 55  2  0  0  0  0
 11 57  1  0  0  0  0
 11115  1  0  0  0  0
 12 57  2  0  0  0  0
 13 58  2  0  0  0  0
 14 20  1  0  0  0  0
 14 26  1  0  0  0  0
 14 64  1  0  0  0  0
 15 23  1  0  0  0  0
 15 28  1  0  0  0  0
 15 30  1  0  0  0  0
 33 16  1  6  0  0  0
 16 39  1  0  0  0  0
 16 85  1  0  0  0  0
 34 17  1  6  0  0  0
 17 43  1  0  0  0  0
 17 87  1  0  0  0  0
 44 18  1  1  0  0  0
 18 50  1  0  0  0  0
 18 99  1  0  0  0  0
 53 19  1  6  0  0  0
 19 58  1  0  0  0  0
 19110  1  0  0  0  0
 20 21  1  0  0  0  0
 20 22  1  0  0  0  0
 20 25  1  0  0  0  0
 21 22  1  0  0  0  0
 21 60  1  0  0  0  0
 21 61  1  0  0  0  0
 22 62  1  0  0  0  0
 22 63  1  0  0  0  0
 23 24  1  0  0  0  0
 23 26  1  6  0  0  0
 23 65  1  0  0  0  0
 24 27  1  0  0  0  0
 24 66  1  0  0  0  0
 24 67  1  0  0  0  0
 27 28  1  0  0  0  0
 27 68  1  0  0  0  0
 28 69  1  0  0  0  0
 28 70  1  0  0  0  0
 29 31  1  0  0  0  0
 29 32  1  0  0  0  0
 29 34  1  0  0  0  0
 29 71  1  0  0  0  0
 30 33  1  0  0  0  0
 31 35  1  0  0  0  0
 31 72  1  0  0  0  0
 31 73  1  0  0  0  0
 32 36  1  0  0  0  0
 32 74  1  0  0  0  0
 32 75  1  0  0  0  0
 33 38  1  0  0  0  0
 33 77  1  0  0  0  0
 34 39  1  0  0  0  0
 34 76  1  0  0  0  0
 35 37  1  0  0  0  0
 35 78  1  0  0  0  0
 35 79  1  0  0  0  0
 36 37  1  0  0  0  0
 36 80  1  0  0  0  0
 36 81  1  0  0  0  0
 37 82  1  0  0  0  0
 37 83  1  0  0  0  0
 38 41  1  0  0  0  0
 38 42  1  0  0  0  0
 38 84  1  0  0  0  0
 40 45  1  0  0  0  0
 40 88  1  0  0  0  0
 40 89  1  0  0  0  0
 41 90  1  0  0  0  0
 41 91  1  0  0  0  0
 41 92  1  0  0  0  0
 42 93  1  0  0  0  0
 42 94  1  0  0  0  0
 42 95  1  0  0  0  0
 43 44  1  0  0  0  0
 44 46  1  0  0  0  0
 44 96  1  0  0  0  0
 45 47  2  0  0  0  0
 45 48  1  0  0  0  0
 46 49  1  0  0  0  0
 46 97  1  0  0  0  0
 46 98  1  0  0  0  0
 47 51  1  0  0  0  0
 47100  1  0  0  0  0
 48 52  2  0  0  0  0
 48101  1  0  0  0  0
 49 55  1  0  0  0  0
 49102  1  0  0  0  0
 49103  1  0  0  0  0
 50 53  1  0  0  0  0
 51 54  2  0  0  0  0
 51104  1  0  0  0  0
 52 54  1  0  0  0  0
 52105  1  0  0  0  0
 53 56  1  0  0  0  0
 53106  1  0  0  0  0
 54107  1  0  0  0  0
 56 57  1  0  0  0  0
 56108  1  0  0  0  0
 56109  1  0  0  0  0
 58 59  1  0  0  0  0
 59112  1  0  0  0  0
 59113  1  0  0  0  0
 59114  1  0  0  0  0
M  END
> <PUBCHEM_COMPOUND_CID>
504695
> <PUBCHEM_COMPOUND_CANONICALIZED>
1
> <PUBCHEM_CACTVS_COMPLEXITY>
1570
> <PUBCHEM_CACTVS_HBOND_ACCEPTOR>
13
> <PUBCHEM_CACTVS_HBOND_DONOR>
8
> <PUBCHEM_CACTVS_ROTATABLE_BOND>
21
> <PUBCHEM_CACTVS_SUBSKEYS>
AAADcfB/vAAAAAAAAAAAAAAAGAAAAWAAAAAwYAAAAAAAAAABAAAAHgAQCAAADbzhmAYyCIPABgCIAiHSGAACAAAgAAAIiIGICIgKZjqAsTiXcAAm1gGYqAe/36KOAAAAAAAAAAAAAAAAAAAAAAAAAAAAAA==
> <PUBCHEM_IUPAC_OPENEYE_NAME>
1-[[(2S,4R)-1-[(2S)-2-[[(2S)-2-[[(2S)-2-[[(2S)-2-acetamido-3-carboxy-propanoyl]amino]-4-carboxy-butanoyl]amino]-2-cyclohexyl-acetyl]amino]-3-methyl-butanoyl]-4-benzyloxy-pyrrolidine-2-carbonyl]amino]cyclopropanecarboxylic acid
> <PUBCHEM_IUPAC_CAS_NAME>
1-[[[(2S,4R)-1-[(2S)-2-[[(2S)-2-[[(2S)-2-[[(2S)-2-acetamido-3-carboxy-1-oxopropyl]amino]-4-carboxy-1-oxobutyl]amino]-2-cyclohexyl-1-oxoethyl]amino]-3-methyl-1-oxobutyl]-4-phenylmethoxy-2-pyrrolidinyl]-oxomethyl]amino]-1-cyclopropanecarboxylic acid
> <PUBCHEM_IUPAC_NAME_MARKUP>
1-[[(2<I>S</I>,4<I>R</I>)-1-[(2<I>S</I>)-2-[[(2<I>S</I>)-2-[[(2<I>S</I>)-2-[[(2<I>S</I>)-2-acetamido-3-carboxypropanoyl]amino]-4-carboxybutanoyl]amino]-2-cyclohexylacetyl]amino]-3-methylbutanoyl]-4-phenylmethoxypyrrolidine-2-carbonyl]amino]cyclopropane-1-carboxylic acid
> <PUBCHEM_IUPAC_NAME>
1-[[(2S,4R)-1-[(2S)-2-[[(2S)-2-[[(2S)-2-[[(2S)-2-acetamido-3-carboxypropanoyl]amino]-4-carboxybutanoyl]amino]-2-cyclohexylacetyl]amino]-3-methylbutanoyl]-4-phenylmethoxypyrrolidine-2-carbonyl]amino]cyclopropane-1-carboxylic acid
> <PUBCHEM_IUPAC_SYSTEMATIC_NAME>
1-[[(2S,4R)-1-[(2S)-2-[[(2S)-2-[[(2S)-2-[[(2S)-2-acetamido-4-oxidanyl-4-oxidanylidene-butanoyl]amino]-5-oxidanyl-5-oxidanylidene-pentanoyl]amino]-2-cyclohexyl-ethanoyl]amino]-3-methyl-butanoyl]-4-phenylmethoxy-pyrrolidin-2-yl]carbonylamino]cyclopropane-1-carboxylic acid
> <PUBCHEM_IUPAC_TRADITIONAL_NAME>
1-[[(2S,4R)-1-[(2S)-2-[[(2S)-2-[[(2S)-2-[[(2S)-2-acetamido-3-carboxy-propanoyl]amino]-4-carboxy-butanoyl]amino]-2-cyclohexyl-acetyl]amino]-3-methyl-butanoyl]-4-benzoxy-prolyl]amino]cyclopropanecarboxylic acid
> <PUBCHEM_IUPAC_INCHI>
InChI=1S/C40H56N6O13/c1-22(2)32(38(56)46-20-26(59-21-24-10-6-4-7-11-24)18-29(46)36(54)45-40(16-17-40)39(57)58)43-37(55)33(25-12-8-5-9-13-25)44-34(52)27(14-15-30(48)49)42-35(53)28(19-31(50)51)41-23(3)47/h4,6-7,10-11,22,25-29,32-33H,5,8-9,12-21H2,1-3H3,(H,41,47)(H,42,53)(H,43,55)(H,44,52)(H,45,54)(H,48,49)(H,50,51)(H,57,58)/t26-,27+,28+,29+,32+,33+/m1/s1
> <PUBCHEM_IUPAC_INCHIKEY>
RWSIOICCQWFGGX-CAKYENHOSA-N
> <PUBCHEM_XLOGP3_AA>
1.2
> <PUBCHEM_EXACT_MASS>
828.39053586
> <PUBCHEM_MOLECULAR_FORMULA>
C40H56N6O13
> <PUBCHEM_MOLECULAR_WEIGHT>
828.9
> <PUBCHEM_OPENEYE_CAN_SMILES>
CC(C)C(C(=O)N1CC(CC1C(=O)NC2(CC2)C(=O)O)OCC3=CC=CC=C3)NC(=O)C(C4CCCCC4)NC(=O)C(CCC(=O)O)NC(=O)C(CC(=O)O)NC(=O)C
> <PUBCHEM_OPENEYE_ISO_SMILES>
CC(C)[C@@H](C(=O)N1C[C@@H](C[C@H]1C(=O)NC2(CC2)C(=O)O)OCC3=CC=CC=C3)NC(=O)[C@H](C4CCCCC4)NC(=O)[C@H](CCC(=O)O)NC(=O)[C@H](CC(=O)O)NC(=O)C
> <PUBCHEM_CACTVS_TPSA>
287
> <PUBCHEM_MONOISOTOPIC_WEIGHT>
828.39053586
> <PUBCHEM_TOTAL_CHARGE>
0
> <PUBCHEM_HEAVY_ATOM_COUNT>
59
> <PUBCHEM_ATOM_DEF_STEREO_COUNT>
6
> <PUBCHEM_ATOM_UDEF_STEREO_COUNT>
0
> <PUBCHEM_BOND_DEF_STEREO_COUNT>
0
> <PUBCHEM_BOND_UDEF_STEREO_COUNT>
0
> <PUBCHEM_ISOTOPIC_ATOM_COUNT>
0
> <PUBCHEM_COMPONENT_COUNT>
1
> <PUBCHEM_CACTVS_TAUTO_COUNT>
-1
> <PUBCHEM_COORDINATE_TYPE>
1
5
255
> <PUBCHEM_BONDANNOTATIONS>
27  1  5
33  16  6
34  17  6
44  18  5
53  19  6
23  26  6
45  47  8
45  48  8
47  51  8
48  52  8
51  54  8
52  54  8
$$$$
