504628
  -OEChem-10302200282D
 50 53  0     1  0  0  0  0  0999 V2000
    4.6870   -0.3495    0.0000 O   0  0  0  0  0  0  0  0  0  0  0  0
    4.1111    2.1732    0.0000 O   0  0  0  0  0  0  0  0  0  0  0  0
    2.6166   -0.6244    0.0000 O   0  0  0  0  0  0  0  0  0  0  0  0
    9.1448   -1.7475    0.0000 O   0  0  0  0  0  0  0  0  0  0  0  0
    5.6005   -1.9428    0.0000 O   0  0  0  0  0  0  0  0  0  0  0  0
   13.7284   -0.9428    0.0000 O   0  0  0  0  0  0  0  0  0  0  0  0
    6.4666   -0.4428    0.0000 N   0  0  0  0  0  0  0  0  0  0  0  0
    7.3326   -1.9428    0.0000 N   0  0  0  0  0  0  0  0  0  0  0  0
    4.5179    1.2597    0.0000 C   0  0  1  0  0  0  0  0  0  0  0  0
    5.6005    0.0572    0.0000 C   0  0  1  0  0  0  0  0  0  0  0  0
    5.4960    1.0518    0.0000 C   0  0  0  0  0  0  0  0  0  0  0  0
    4.0179    0.3936    0.0000 C   0  0  1  0  0  0  0  0  0  0  0  0
    3.0233    0.2891    0.0000 C   0  0  0  0  0  0  0  0  0  0  0  0
    7.3326    0.0572    0.0000 C   0  0  0  0  0  0  0  0  0  0  0  0
    6.4666   -1.4428    0.0000 C   0  0  0  0  0  0  0  0  0  0  0  0
    8.1986   -0.4428    0.0000 C   0  0  0  0  0  0  0  0  0  0  0  0
    8.1986   -1.4428    0.0000 C   0  0  0  0  0  0  0  0  0  0  0  0
    9.1448   -0.1380    0.0000 C   0  0  0  0  0  0  0  0  0  0  0  0
    9.7284   -0.9428    0.0000 C   0  0  0  0  0  0  0  0  0  0  0  0
   10.7284   -0.9428    0.0000 C   0  0  0  0  0  0  0  0  0  0  0  0
   11.2284   -1.8088    0.0000 C   0  0  0  0  0  0  0  0  0  0  0  0
   11.2284   -0.0767    0.0000 C   0  0  0  0  0  0  0  0  0  0  0  0
   12.7284   -0.9428    0.0000 C   0  0  0  0  0  0  0  0  0  0  0  0
   12.2284   -1.8088    0.0000 C   0  0  0  0  0  0  0  0  0  0  0  0
   12.2284   -0.0767    0.0000 C   0  0  0  0  0  0  0  0  0  0  0  0
   14.2284   -1.8088    0.0000 C   0  0  0  0  0  0  0  0  0  0  0  0
   15.2284   -1.8088    0.0000 C   0  0  0  0  0  0  0  0  0  0  0  0
   15.7284   -2.6748    0.0000 C   0  0  0  0  0  0  0  0  0  0  0  0
    4.9080    1.7415    0.0000 H   0  0  0  0  0  0  0  0  0  0  0  0
    5.5681   -0.5619    0.0000 H   0  0  0  0  0  0  0  0  0  0  0  0
    6.1160    1.0518    0.0000 H   0  0  0  0  0  0  0  0  0  0  0  0
    5.5608    1.6684    0.0000 H   0  0  0  0  0  0  0  0  0  0  0  0
    3.7957   -0.1852    0.0000 H   0  0  0  0  0  0  0  0  0  0  0  0
    3.0666    0.9076    0.0000 H   0  0  0  0  0  0  0  0  0  0  0  0
    2.4218    0.4391    0.0000 H   0  0  0  0  0  0  0  0  0  0  0  0
    7.3326    0.6772    0.0000 H   0  0  0  0  0  0  0  0  0  0  0  0
    4.4756    2.6748    0.0000 H   0  0  0  0  0  0  0  0  0  0  0  0
    2.0000   -0.6892    0.0000 H   0  0  0  0  0  0  0  0  0  0  0  0
    9.3374    0.4513    0.0000 H   0  0  0  0  0  0  0  0  0  0  0  0
   10.9184   -2.3457    0.0000 H   0  0  0  0  0  0  0  0  0  0  0  0
   10.9184    0.4602    0.0000 H   0  0  0  0  0  0  0  0  0  0  0  0
   12.5384   -2.3457    0.0000 H   0  0  0  0  0  0  0  0  0  0  0  0
   12.5384    0.4602    0.0000 H   0  0  0  0  0  0  0  0  0  0  0  0
   13.6458   -2.0208    0.0000 H   0  0  0  0  0  0  0  0  0  0  0  0
   14.3361   -2.4194    0.0000 H   0  0  0  0  0  0  0  0  0  0  0  0
   15.8111   -1.5967    0.0000 H   0  0  0  0  0  0  0  0  0  0  0  0
   15.1208   -1.1982    0.0000 H   0  0  0  0  0  0  0  0  0  0  0  0
   15.1915   -2.9848    0.0000 H   0  0  0  0  0  0  0  0  0  0  0  0
   16.0384   -3.2118    0.0000 H   0  0  0  0  0  0  0  0  0  0  0  0
   16.2654   -2.3648    0.0000 H   0  0  0  0  0  0  0  0  0  0  0  0
  1 10  1  0  0  0  0
  1 12  1  0  0  0  0
  9  2  1  1  0  0  0
  2 37  1  0  0  0  0
  3 13  1  0  0  0  0
  3 38  1  0  0  0  0
  4 17  1  0  0  0  0
  4 19  1  0  0  0  0
  5 15  2  0  0  0  0
  6 23  1  0  0  0  0
  6 26  1  0  0  0  0
 10  7  1  6  0  0  0
  7 14  1  0  0  0  0
  7 15  1  0  0  0  0
  8 15  1  0  0  0  0
  8 17  2  0  0  0  0
  9 11  1  0  0  0  0
  9 12  1  0  0  0  0
  9 29  1  0  0  0  0
 10 11  1  0  0  0  0
 10 30  1  0  0  0  0
 11 31  1  0  0  0  0
 11 32  1  0  0  0  0
 12 13  1  6  0  0  0
 12 33  1  0  0  0  0
 13 34  1  0  0  0  0
 13 35  1  0  0  0  0
 14 16  2  0  0  0  0
 14 36  1  0  0  0  0
 16 17  1  0  0  0  0
 16 18  1  0  0  0  0
 18 19  2  0  0  0  0
 18 39  1  0  0  0  0
 19 20  1  0  0  0  0
 20 21  2  0  0  0  0
 20 22  1  0  0  0  0
 21 24  1  0  0  0  0
 21 40  1  0  0  0  0
 22 25  2  0  0  0  0
 22 41  1  0  0  0  0
 23 24  2  0  0  0  0
 23 25  1  0  0  0  0
 24 42  1  0  0  0  0
 25 43  1  0  0  0  0
 26 27  1  0  0  0  0
 26 44  1  0  0  0  0
 26 45  1  0  0  0  0
 27 28  1  0  0  0  0
 27 46  1  0  0  0  0
 27 47  1  0  0  0  0
 28 48  1  0  0  0  0
 28 49  1  0  0  0  0
 28 50  1  0  0  0  0
M  END
> <PUBCHEM_COMPOUND_CID>
504628
> <PUBCHEM_COMPOUND_CANONICALIZED>
1
> <PUBCHEM_CACTVS_COMPLEXITY>
695
> <PUBCHEM_CACTVS_HBOND_ACCEPTOR>
6
> <PUBCHEM_CACTVS_HBOND_DONOR>
2
> <PUBCHEM_CACTVS_ROTATABLE_BOND>
6
> <PUBCHEM_CACTVS_SUBSKEYS>
AAADceB7OAAAAAAAAAAAAAAAAAAAASIAAAAwQAAAAAAAAEABAAAAHgAACAAADBThmAYzBoMABgCoAiBmVAACCAAgIAAIiAAuCJiNNiKEsRqOeCCnxhMLqAew8C4OIAAAAAAAAABAAAAAAAAAAAAAAAAAAA==
> <PUBCHEM_IUPAC_OPENEYE_NAME>
3-[(2R,4S,5R)-4-hydroxy-5-(hydroxymethyl)tetrahydrofuran-2-yl]-6-(4-propoxyphenyl)furo[2,3-d]pyrimidin-2-one
> <PUBCHEM_IUPAC_CAS_NAME>
3-[(2R,4S,5R)-4-hydroxy-5-(hydroxymethyl)-2-oxolanyl]-6-(4-propoxyphenyl)-2-furo[2,3-d]pyrimidinone
> <PUBCHEM_IUPAC_NAME_MARKUP>
3-[(2<I>R</I>,4<I>S</I>,5<I>R</I>)-4-hydroxy-5-(hydroxymethyl)oxolan-2-yl]-6-(4-propoxyphenyl)furo[2,3-d]pyrimidin-2-one
> <PUBCHEM_IUPAC_NAME>
3-[(2R,4S,5R)-4-hydroxy-5-(hydroxymethyl)oxolan-2-yl]-6-(4-propoxyphenyl)furo[2,3-d]pyrimidin-2-one
> <PUBCHEM_IUPAC_SYSTEMATIC_NAME>
3-[(2R,4S,5R)-5-(hydroxymethyl)-4-oxidanyl-oxolan-2-yl]-6-(4-propoxyphenyl)furo[2,3-d]pyrimidin-2-one
> <PUBCHEM_IUPAC_TRADITIONAL_NAME>
3-[(2R,4S,5R)-4-hydroxy-5-methylol-tetrahydrofuran-2-yl]-6-(4-propoxyphenyl)furo[2,3-d]pyrimidin-2-one
> <PUBCHEM_IUPAC_INCHI>
InChI=1S/C20H22N2O6/c1-2-7-26-14-5-3-12(4-6-14)16-8-13-10-22(20(25)21-19(13)28-16)18-9-15(24)17(11-23)27-18/h3-6,8,10,15,17-18,23-24H,2,7,9,11H2,1H3/t15-,17+,18+/m0/s1
> <PUBCHEM_IUPAC_INCHIKEY>
UVWWOJMBQXOSFY-CGTJXYLNSA-N
> <PUBCHEM_XLOGP3_AA>
2
> <PUBCHEM_EXACT_MASS>
386.14778643
> <PUBCHEM_MOLECULAR_FORMULA>
C20H22N2O6
> <PUBCHEM_MOLECULAR_WEIGHT>
386.4
> <PUBCHEM_OPENEYE_CAN_SMILES>
CCCOC1=CC=C(C=C1)C2=CC3=CN(C(=O)N=C3O2)C4CC(C(O4)CO)O
> <PUBCHEM_OPENEYE_ISO_SMILES>
CCCOC1=CC=C(C=C1)C2=CC3=CN(C(=O)N=C3O2)[C@H]4C[C@@H]([C@H](O4)CO)O
> <PUBCHEM_CACTVS_TPSA>
101
> <PUBCHEM_MONOISOTOPIC_WEIGHT>
386.14778643
> <PUBCHEM_TOTAL_CHARGE>
0
> <PUBCHEM_HEAVY_ATOM_COUNT>
28
> <PUBCHEM_ATOM_DEF_STEREO_COUNT>
3
> <PUBCHEM_ATOM_UDEF_STEREO_COUNT>
0
> <PUBCHEM_BOND_DEF_STEREO_COUNT>
0
> <PUBCHEM_BOND_UDEF_STEREO_COUNT>
0
> <PUBCHEM_ISOTOPIC_ATOM_COUNT>
0
> <PUBCHEM_COMPONENT_COUNT>
1
> <PUBCHEM_CACTVS_TAUTO_COUNT>
-1
> <PUBCHEM_COORDINATE_TYPE>
1
5
255
> <PUBCHEM_BONDANNOTATIONS>
12  13  6
14  16  8
16  17  8
16  18  8
18  19  8
9  2  5
20  21  8
20  22  8
21  24  8
22  25  8
23  24  8
23  25  8
4  17  8
4  19  8
10  7  6
7  14  8
7  15  8
8  15  8
8  17  8
$$$$
