504617
  -OEChem-10302200282D
 36 37  0     1  0  0  0  0  0999 V2000
    9.8744   -0.8047    0.0000 S   0  0  0  0  0  0  0  0  0  0  0  0
    3.7320    0.5000    0.0000 O   0  0  0  0  0  0  0  0  0  0  0  0
    7.1962   -0.5000    0.0000 O   0  0  0  0  0  0  0  0  0  0  0  0
    4.5981    2.0000    0.0000 O   0  0  0  0  0  0  0  0  0  0  0  0
    8.0622   -2.0000    0.0000 O   0  0  0  0  0  0  0  0  0  0  0  0
    5.4641    0.5000    0.0000 N   0  0  0  0  0  0  0  0  0  0  0  0
    8.0622    1.0000    0.0000 N   0  0  0  0  0  0  0  0  0  0  0  0
    2.8660    1.0000    0.0000 C   0  0  0  0  0  0  0  0  0  0  0  0
    6.3301    1.0000    0.0000 C   0  0  2  0  0  0  0  0  0  0  0  0
    2.0000    1.5000    0.0000 C   0  0  0  0  0  0  0  0  0  0  0  0
    2.3660    0.1340    0.0000 C   0  0  0  0  0  0  0  0  0  0  0  0
    3.3660    1.8660    0.0000 C   0  0  0  0  0  0  0  0  0  0  0  0
    7.1962    0.5000    0.0000 C   0  0  0  0  0  0  0  0  0  0  0  0
    6.3301    2.0000    0.0000 C   0  0  0  0  0  0  0  0  0  0  0  0
    4.5981    1.0000    0.0000 C   0  0  0  0  0  0  0  0  0  0  0  0
    8.9282    0.5000    0.0000 C   0  0  0  0  0  0  0  0  0  0  0  0
    8.9282   -0.5000    0.0000 C   0  0  0  0  0  0  0  0  0  0  0  0
    8.0622   -1.0000    0.0000 C   0  0  0  0  0  0  0  0  0  0  0  0
    9.8744    0.8047    0.0000 C   0  0  0  0  0  0  0  0  0  0  0  0
   10.4580   -0.0000    0.0000 C   0  0  0  0  0  0  0  0  0  0  0  0
    5.7932    1.3100    0.0000 H   0  0  0  0  0  0  0  0  0  0  0  0
    2.3100    2.0369    0.0000 H   0  0  0  0  0  0  0  0  0  0  0  0
    1.4631    1.8100    0.0000 H   0  0  0  0  0  0  0  0  0  0  0  0
    1.6900    0.9631    0.0000 H   0  0  0  0  0  0  0  0  0  0  0  0
    1.8291    0.4440    0.0000 H   0  0  0  0  0  0  0  0  0  0  0  0
    2.0560   -0.4030    0.0000 H   0  0  0  0  0  0  0  0  0  0  0  0
    2.9030   -0.1760    0.0000 H   0  0  0  0  0  0  0  0  0  0  0  0
    3.9030    1.5560    0.0000 H   0  0  0  0  0  0  0  0  0  0  0  0
    3.6760    2.4030    0.0000 H   0  0  0  0  0  0  0  0  0  0  0  0
    2.8291    2.1760    0.0000 H   0  0  0  0  0  0  0  0  0  0  0  0
    5.4641   -0.1200    0.0000 H   0  0  0  0  0  0  0  0  0  0  0  0
    6.9501    2.0000    0.0000 H   0  0  0  0  0  0  0  0  0  0  0  0
    6.3301    2.6200    0.0000 H   0  0  0  0  0  0  0  0  0  0  0  0
    5.7101    2.0000    0.0000 H   0  0  0  0  0  0  0  0  0  0  0  0
   10.0670    1.3940    0.0000 H   0  0  0  0  0  0  0  0  0  0  0  0
   11.0780   -0.0000    0.0000 H   0  0  0  0  0  0  0  0  0  0  0  0
  1 17  1  0  0  0  0
  1 20  1  0  0  0  0
  2  8  1  0  0  0  0
  2 15  1  0  0  0  0
  3 13  1  0  0  0  0
  3 18  1  0  0  0  0
  4 15  2  0  0  0  0
  5 18  2  0  0  0  0
  9  6  1  1  0  0  0
  6 15  1  0  0  0  0
  6 31  1  0  0  0  0
  7 13  2  0  0  0  0
  7 16  1  0  0  0  0
  8 10  1  0  0  0  0
  8 11  1  0  0  0  0
  8 12  1  0  0  0  0
  9 13  1  0  0  0  0
  9 14  1  0  0  0  0
  9 21  1  0  0  0  0
 10 22  1  0  0  0  0
 10 23  1  0  0  0  0
 10 24  1  0  0  0  0
 11 25  1  0  0  0  0
 11 26  1  0  0  0  0
 11 27  1  0  0  0  0
 12 28  1  0  0  0  0
 12 29  1  0  0  0  0
 12 30  1  0  0  0  0
 14 32  1  0  0  0  0
 14 33  1  0  0  0  0
 14 34  1  0  0  0  0
 16 17  2  0  0  0  0
 16 19  1  0  0  0  0
 17 18  1  0  0  0  0
 19 20  2  0  0  0  0
 19 35  1  0  0  0  0
 20 36  1  0  0  0  0
M  END
> <PUBCHEM_COMPOUND_CID>
504617
> <PUBCHEM_COMPOUND_CANONICALIZED>
1
> <PUBCHEM_CACTVS_COMPLEXITY>
444
> <PUBCHEM_CACTVS_HBOND_ACCEPTOR>
6
> <PUBCHEM_CACTVS_HBOND_DONOR>
1
> <PUBCHEM_CACTVS_ROTATABLE_BOND>
4
> <PUBCHEM_CACTVS_SUBSKEYS>
AAADceBzOABAAAAAAAAAAAAAAAAAASAAAAAgAAAAAAAAAEABgAAAHgQQAAAADGzF0ASyyYLABAisACTyXACDAIAkChBIiJ04bMkKJjqgNBiLEYQm1gE4qUaIAAAAAAAAAAAAAAAAAAAAAAAAAAAAAAAAAA==
> <PUBCHEM_IUPAC_OPENEYE_NAME>
tert-butyl N-[(1S)-1-(4-oxothieno[3,2-d][1,3]oxazin-2-yl)ethyl]carbamate
> <PUBCHEM_IUPAC_CAS_NAME>
N-[(1S)-1-(4-oxo-2-thieno[3,2-d][1,3]oxazinyl)ethyl]carbamic acid tert-butyl ester
> <PUBCHEM_IUPAC_NAME_MARKUP>
<I>tert</I>-butyl <I>N</I>-[(1<I>S</I>)-1-(4-oxothieno[3,2-d][1,3]oxazin-2-yl)ethyl]carbamate
> <PUBCHEM_IUPAC_NAME>
tert-butyl N-[(1S)-1-(4-oxothieno[3,2-d][1,3]oxazin-2-yl)ethyl]carbamate
> <PUBCHEM_IUPAC_SYSTEMATIC_NAME>
tert-butyl N-[(1S)-1-(4-oxidanylidenethieno[3,2-d][1,3]oxazin-2-yl)ethyl]carbamate
> <PUBCHEM_IUPAC_TRADITIONAL_NAME>
N-[(1S)-1-(4-ketothieno[3,2-d][1,3]oxazin-2-yl)ethyl]carbamic acid tert-butyl ester
> <PUBCHEM_IUPAC_INCHI>
InChI=1S/C13H16N2O4S/c1-7(14-12(17)19-13(2,3)4)10-15-8-5-6-20-9(8)11(16)18-10/h5-7H,1-4H3,(H,14,17)/t7-/m0/s1
> <PUBCHEM_IUPAC_INCHIKEY>
MXAWMPBWIUONHQ-ZETCQYMHSA-N
> <PUBCHEM_XLOGP3_AA>
2.4
> <PUBCHEM_EXACT_MASS>
296.08307817
> <PUBCHEM_MOLECULAR_FORMULA>
C13H16N2O4S
> <PUBCHEM_MOLECULAR_WEIGHT>
296.34
> <PUBCHEM_OPENEYE_CAN_SMILES>
CC(C1=NC2=C(C(=O)O1)SC=C2)NC(=O)OC(C)(C)C
> <PUBCHEM_OPENEYE_ISO_SMILES>
C[C@@H](C1=NC2=C(C(=O)O1)SC=C2)NC(=O)OC(C)(C)C
> <PUBCHEM_CACTVS_TPSA>
105
> <PUBCHEM_MONOISOTOPIC_WEIGHT>
296.08307817
> <PUBCHEM_TOTAL_CHARGE>
0
> <PUBCHEM_HEAVY_ATOM_COUNT>
20
> <PUBCHEM_ATOM_DEF_STEREO_COUNT>
1
> <PUBCHEM_ATOM_UDEF_STEREO_COUNT>
0
> <PUBCHEM_BOND_DEF_STEREO_COUNT>
0
> <PUBCHEM_BOND_UDEF_STEREO_COUNT>
0
> <PUBCHEM_ISOTOPIC_ATOM_COUNT>
0
> <PUBCHEM_COMPONENT_COUNT>
1
> <PUBCHEM_CACTVS_TAUTO_COUNT>
-1
> <PUBCHEM_COORDINATE_TYPE>
1
5
255
> <PUBCHEM_BONDANNOTATIONS>
1  17  8
1  20  8
16  17  8
16  19  8
17  18  8
19  20  8
3  13  8
3  18  8
9  6  5
7  13  8
7  16  8
$$$$
