504791
  -OEChem-10302200282D
 87 91  0     1  0  0  0  0  0999 V2000
    5.0981    0.9229    0.0000 O   0  0  0  0  0  0  0  0  0  0  0  0
    8.5622    0.9229    0.0000 O   0  0  0  0  0  0  0  0  0  0  0  0
    5.9641   -1.5770    0.0000 O   0  0  0  0  0  0  0  0  0  0  0  0
   13.7583   -0.0771    0.0000 O   0  0  0  0  0  0  0  0  0  0  0  0
    6.8301   -6.0770    0.0000 O   0  0  0  0  0  0  0  0  0  0  0  0
   13.7583   -2.0770    0.0000 O   0  0  0  0  0  0  0  0  0  0  0  0
    4.2320   -4.5770    0.0000 O   0  5  0  0  0  0  0  0  0  0  0  0
    5.0981   -6.0770    0.0000 O   0  0  0  0  0  0  0  0  0  0  0  0
    5.9641    2.4230    0.0000 N   0  0  0  0  0  0  0  0  0  0  0  0
    7.6962   -1.5770    0.0000 N   0  0  0  0  0  0  0  0  0  0  0  0
    9.4282   -0.5771    0.0000 N   0  0  0  0  0  0  0  0  0  0  0  0
    5.0981   -5.0770    0.0000 N   0  3  0  0  0  0  0  0  0  0  0  0
    4.5981    3.7890    0.0000 C   0  0  0  0  0  0  0  0  0  0  0  0
    5.0981    2.9230    0.0000 C   0  0  0  0  0  0  0  0  0  0  0  0
    4.0981    4.6550    0.0000 C   0  0  0  0  0  0  0  0  0  0  0  0
    3.7320    3.2890    0.0000 C   0  0  0  0  0  0  0  0  0  0  0  0
    5.4641    4.2890    0.0000 C   0  0  0  0  0  0  0  0  0  0  0  0
    4.5981    5.5210    0.0000 C   0  0  0  0  0  0  0  0  0  0  0  0
    3.7320    2.2890    0.0000 C   0  0  0  0  0  0  0  0  0  0  0  0
    6.3301    3.7890    0.0000 C   0  0  0  0  0  0  0  0  0  0  0  0
    3.0981    4.6550    0.0000 C   0  0  0  0  0  0  0  0  0  0  0  0
    2.8660    3.7890    0.0000 C   0  0  0  0  0  0  0  0  0  0  0  0
    5.4641    5.2890    0.0000 C   0  0  0  0  0  0  0  0  0  0  0  0
    5.9641    1.4230    0.0000 C   0  0  0  0  0  0  0  0  0  0  0  0
    6.8301    0.9229    0.0000 C   0  0  0  0  0  0  0  0  0  0  0  0
    6.8301   -0.0771    0.0000 C   0  0  0  0  0  0  0  0  0  0  0  0
    7.6962   -0.5771    0.0000 C   0  0  1  0  0  0  0  0  0  0  0  0
    4.0981    6.3870    0.0000 C   0  0  0  0  0  0  0  0  0  0  0  0
    2.8660    1.7890    0.0000 C   0  0  0  0  0  0  0  0  0  0  0  0
    7.1962    4.2890    0.0000 C   0  0  0  0  0  0  0  0  0  0  0  0
    2.5981    5.5210    0.0000 C   0  0  0  0  0  0  0  0  0  0  0  0
    2.0000    3.2890    0.0000 C   0  0  0  0  0  0  0  0  0  0  0  0
    6.3301    5.7890    0.0000 C   0  0  0  0  0  0  0  0  0  0  0  0
    3.0981    6.3870    0.0000 C   0  0  0  0  0  0  0  0  0  0  0  0
    2.0000    2.2890    0.0000 C   0  0  0  0  0  0  0  0  0  0  0  0
    7.1962    5.2890    0.0000 C   0  0  0  0  0  0  0  0  0  0  0  0
    8.5622   -0.0771    0.0000 C   0  0  0  0  0  0  0  0  0  0  0  0
    6.8301   -2.0770    0.0000 C   0  0  0  0  0  0  0  0  0  0  0  0
   10.2942   -0.0771    0.0000 C   0  0  0  0  0  0  0  0  0  0  0  0
    6.8301   -3.0770    0.0000 C   0  0  0  0  0  0  0  0  0  0  0  0
   11.1603   -0.5771    0.0000 C   0  0  0  0  0  0  0  0  0  0  0  0
    5.9641   -3.5770    0.0000 C   0  0  0  0  0  0  0  0  0  0  0  0
    7.6962   -3.5770    0.0000 C   0  0  0  0  0  0  0  0  0  0  0  0
   12.0263   -0.0771    0.0000 C   0  0  0  0  0  0  0  0  0  0  0  0
   11.1603   -1.5770    0.0000 C   0  0  0  0  0  0  0  0  0  0  0  0
    5.9641   -4.5770    0.0000 C   0  0  0  0  0  0  0  0  0  0  0  0
    7.6962   -4.5770    0.0000 C   0  0  0  0  0  0  0  0  0  0  0  0
   12.8923   -0.5771    0.0000 C   0  0  0  0  0  0  0  0  0  0  0  0
    6.8301   -5.0770    0.0000 C   0  0  0  0  0  0  0  0  0  0  0  0
   12.0263   -2.0770    0.0000 C   0  0  0  0  0  0  0  0  0  0  0  0
   12.8923   -1.5770    0.0000 C   0  0  0  0  0  0  0  0  0  0  0  0
    4.4875    2.8153    0.0000 H   0  0  0  0  0  0  0  0  0  0  0  0
    5.5365    3.3614    0.0000 H   0  0  0  0  0  0  0  0  0  0  0  0
    6.5841    2.4230    0.0000 H   0  0  0  0  0  0  0  0  0  0  0  0
    5.2181    5.5210    0.0000 H   0  0  0  0  0  0  0  0  0  0  0  0
    4.2690    1.9790    0.0000 H   0  0  0  0  0  0  0  0  0  0  0  0
    6.3301    3.1690    0.0000 H   0  0  0  0  0  0  0  0  0  0  0  0
    2.7881    4.1181    0.0000 H   0  0  0  0  0  0  0  0  0  0  0  0
    2.8660    4.4090    0.0000 H   0  0  0  0  0  0  0  0  0  0  0  0
    4.9272    5.5990    0.0000 H   0  0  0  0  0  0  0  0  0  0  0  0
    7.4407    0.8153    0.0000 H   0  0  0  0  0  0  0  0  0  0  0  0
    7.0422    1.5056    0.0000 H   0  0  0  0  0  0  0  0  0  0  0  0
    6.2196    0.0306    0.0000 H   0  0  0  0  0  0  0  0  0  0  0  0
    6.6181   -0.6597    0.0000 H   0  0  0  0  0  0  0  0  0  0  0  0
    7.1592   -0.8871    0.0000 H   0  0  0  0  0  0  0  0  0  0  0  0
    4.4081    6.9240    0.0000 H   0  0  0  0  0  0  0  0  0  0  0  0
    2.8660    1.1690    0.0000 H   0  0  0  0  0  0  0  0  0  0  0  0
    7.7331    3.9790    0.0000 H   0  0  0  0  0  0  0  0  0  0  0  0
    1.9781    5.5210    0.0000 H   0  0  0  0  0  0  0  0  0  0  0  0
    1.4631    3.5990    0.0000 H   0  0  0  0  0  0  0  0  0  0  0  0
    6.3301    6.4090    0.0000 H   0  0  0  0  0  0  0  0  0  0  0  0
    2.7881    6.9240    0.0000 H   0  0  0  0  0  0  0  0  0  0  0  0
    1.4631    1.9790    0.0000 H   0  0  0  0  0  0  0  0  0  0  0  0
    7.7331    5.5990    0.0000 H   0  0  0  0  0  0  0  0  0  0  0  0
    8.2331   -1.8870    0.0000 H   0  0  0  0  0  0  0  0  0  0  0  0
    9.4282   -1.1970    0.0000 H   0  0  0  0  0  0  0  0  0  0  0  0
   10.6928    0.3979    0.0000 H   0  0  0  0  0  0  0  0  0  0  0  0
    9.8957    0.3979    0.0000 H   0  0  0  0  0  0  0  0  0  0  0  0
    5.4272   -3.2670    0.0000 H   0  0  0  0  0  0  0  0  0  0  0  0
    8.2331   -3.2670    0.0000 H   0  0  0  0  0  0  0  0  0  0  0  0
   12.0263    0.5429    0.0000 H   0  0  0  0  0  0  0  0  0  0  0  0
   10.6233   -1.8870    0.0000 H   0  0  0  0  0  0  0  0  0  0  0  0
    8.2331   -4.8870    0.0000 H   0  0  0  0  0  0  0  0  0  0  0  0
   12.0263   -2.6970    0.0000 H   0  0  0  0  0  0  0  0  0  0  0  0
   13.7583    0.5429    0.0000 H   0  0  0  0  0  0  0  0  0  0  0  0
    7.3671   -6.3870    0.0000 H   0  0  0  0  0  0  0  0  0  0  0  0
   13.7583   -2.6970    0.0000 H   0  0  0  0  0  0  0  0  0  0  0  0
  1 24  2  0  0  0  0
  2 37  2  0  0  0  0
  3 38  2  0  0  0  0
  4 48  1  0  0  0  0
  4 85  1  0  0  0  0
  5 49  1  0  0  0  0
  5 86  1  0  0  0  0
  6 51  1  0  0  0  0
  6 87  1  0  0  0  0
  7 12  1  0  0  0  0
  8 12  2  0  0  0  0
  9 14  1  0  0  0  0
  9 24  1  0  0  0  0
  9 54  1  0  0  0  0
 27 10  1  1  0  0  0
 10 38  1  0  0  0  0
 10 75  1  0  0  0  0
 11 37  1  0  0  0  0
 11 39  1  0  0  0  0
 11 76  1  0  0  0  0
 12 46  1  0  0  0  0
 13 14  1  0  0  0  0
 13 15  1  0  0  0  0
 13 16  1  0  0  0  0
 13 17  1  0  0  0  0
 14 52  1  0  0  0  0
 14 53  1  0  0  0  0
 15 18  2  0  0  0  0
 15 21  1  0  0  0  0
 16 19  2  0  0  0  0
 16 22  1  0  0  0  0
 17 20  2  0  0  0  0
 17 23  1  0  0  0  0
 18 28  1  0  0  0  0
 18 55  1  0  0  0  0
 19 29  1  0  0  0  0
 19 56  1  0  0  0  0
 20 30  1  0  0  0  0
 20 57  1  0  0  0  0
 21 31  2  0  0  0  0
 21 58  1  0  0  0  0
 22 32  2  0  0  0  0
 22 59  1  0  0  0  0
 23 33  2  0  0  0  0
 23 60  1  0  0  0  0
 24 25  1  0  0  0  0
 25 26  1  0  0  0  0
 25 61  1  0  0  0  0
 25 62  1  0  0  0  0
 26 27  1  0  0  0  0
 26 63  1  0  0  0  0
 26 64  1  0  0  0  0
 27 37  1  0  0  0  0
 27 65  1  0  0  0  0
 28 34  2  0  0  0  0
 28 66  1  0  0  0  0
 29 35  2  0  0  0  0
 29 67  1  0  0  0  0
 30 36  2  0  0  0  0
 30 68  1  0  0  0  0
 31 34  1  0  0  0  0
 31 69  1  0  0  0  0
 32 35  1  0  0  0  0
 32 70  1  0  0  0  0
 33 36  1  0  0  0  0
 33 71  1  0  0  0  0
 34 72  1  0  0  0  0
 35 73  1  0  0  0  0
 36 74  1  0  0  0  0
 38 40  1  0  0  0  0
 39 41  1  0  0  0  0
 39 77  1  0  0  0  0
 39 78  1  0  0  0  0
 40 42  2  0  0  0  0
 40 43  1  0  0  0  0
 41 44  2  0  0  0  0
 41 45  1  0  0  0  0
 42 46  1  0  0  0  0
 42 79  1  0  0  0  0
 43 47  2  0  0  0  0
 43 80  1  0  0  0  0
 44 48  1  0  0  0  0
 44 81  1  0  0  0  0
 45 50  2  0  0  0  0
 45 82  1  0  0  0  0
 46 49  2  0  0  0  0
 47 49  1  0  0  0  0
 47 83  1  0  0  0  0
 48 51  2  0  0  0  0
 50 51  1  0  0  0  0
 50 84  1  0  0  0  0
M  CHG  2   7  -1  12   1
M  END
> <PUBCHEM_COMPOUND_CID>
504791
> <PUBCHEM_COMPOUND_CANONICALIZED>
1
> <PUBCHEM_CACTVS_COMPLEXITY>
1100
> <PUBCHEM_CACTVS_HBOND_ACCEPTOR>
8
> <PUBCHEM_CACTVS_HBOND_DONOR>
6
> <PUBCHEM_CACTVS_ROTATABLE_BOND>
13
> <PUBCHEM_CACTVS_SUBSKEYS>
AAADcfB/vAAAAAAAAAAAAAAAAAAAAAAAAAAwYMGDAAAAAAABVAAAHgAUCAAADizBmAQwxoLQQgCJAiVSUwCCAAAkIgAoiIGP7MoLZjKSlbOUcQlk1lGJ2Ye839LPoAABQAAAUABAAAKAAACgAAAAAAAAAA==
> <PUBCHEM_IUPAC_OPENEYE_NAME>
(2S)-N-[(3,4-dihydroxyphenyl)methyl]-2-[(4-hydroxy-3-nitro-benzoyl)amino]-N'-(2,2,2-triphenylethyl)pentanediamide
> <PUBCHEM_IUPAC_CAS_NAME>
(2S)-N-[(3,4-dihydroxyphenyl)methyl]-2-[[(4-hydroxy-3-nitrophenyl)-oxomethyl]amino]-N'-(2,2,2-triphenylethyl)pentanediamide
> <PUBCHEM_IUPAC_NAME_MARKUP>
(2<I>S</I>)-<I>N</I>-[(3,4-dihydroxyphenyl)methyl]-2-[(4-hydroxy-3-nitrobenzoyl)amino]-<I>N</I>&apos;-(2,2,2-triphenylethyl)pentanediamide
> <PUBCHEM_IUPAC_NAME>
(2S)-N-[(3,4-dihydroxyphenyl)methyl]-2-[(4-hydroxy-3-nitrobenzoyl)amino]-N'-(2,2,2-triphenylethyl)pentanediamide
> <PUBCHEM_IUPAC_SYSTEMATIC_NAME>
(2S)-N-[[3,4-bis(oxidanyl)phenyl]methyl]-2-[(3-nitro-4-oxidanyl-phenyl)carbonylamino]-N'-(2,2,2-triphenylethyl)pentanediamide
> <PUBCHEM_IUPAC_TRADITIONAL_NAME>
(2S)-2-[(4-hydroxy-3-nitro-benzoyl)amino]-N-protocatechuyl-N'-(2,2,2-triphenylethyl)glutaramide
> <PUBCHEM_IUPAC_INCHI>
InChI=1S/C39H36N4O8/c44-33-20-17-27(23-32(33)43(50)51)37(48)42-31(38(49)40-24-26-16-19-34(45)35(46)22-26)18-21-36(47)41-25-39(28-10-4-1-5-11-28,29-12-6-2-7-13-29)30-14-8-3-9-15-30/h1-17,19-20,22-23,31,44-46H,18,21,24-25H2,(H,40,49)(H,41,47)(H,42,48)/t31-/m0/s1
> <PUBCHEM_IUPAC_INCHIKEY>
GXITXERUZNIEFZ-HKBQPEDESA-N
> <PUBCHEM_XLOGP3_AA>
6.1
> <PUBCHEM_EXACT_MASS>
688.25331412
> <PUBCHEM_MOLECULAR_FORMULA>
C39H36N4O8
> <PUBCHEM_MOLECULAR_WEIGHT>
688.7
> <PUBCHEM_OPENEYE_CAN_SMILES>
C1=CC=C(C=C1)C(CNC(=O)CCC(C(=O)NCC2=CC(=C(C=C2)O)O)NC(=O)C3=CC(=C(C=C3)O)[N+](=O)[O-])(C4=CC=CC=C4)C5=CC=CC=C5
> <PUBCHEM_OPENEYE_ISO_SMILES>
C1=CC=C(C=C1)C(CNC(=O)CC[C@@H](C(=O)NCC2=CC(=C(C=C2)O)O)NC(=O)C3=CC(=C(C=C3)O)[N+](=O)[O-])(C4=CC=CC=C4)C5=CC=CC=C5
> <PUBCHEM_CACTVS_TPSA>
194
> <PUBCHEM_MONOISOTOPIC_WEIGHT>
688.25331412
> <PUBCHEM_TOTAL_CHARGE>
0
> <PUBCHEM_HEAVY_ATOM_COUNT>
51
> <PUBCHEM_ATOM_DEF_STEREO_COUNT>
1
> <PUBCHEM_ATOM_UDEF_STEREO_COUNT>
0
> <PUBCHEM_BOND_DEF_STEREO_COUNT>
0
> <PUBCHEM_BOND_UDEF_STEREO_COUNT>
0
> <PUBCHEM_ISOTOPIC_ATOM_COUNT>
0
> <PUBCHEM_COMPONENT_COUNT>
1
> <PUBCHEM_CACTVS_TAUTO_COUNT>
-1
> <PUBCHEM_COORDINATE_TYPE>
1
5
255
> <PUBCHEM_BONDANNOTATIONS>
27  10  5
15  18  8
15  21  8
16  19  8
16  22  8
17  20  8
17  23  8
18  28  8
19  29  8
20  30  8
21  31  8
22  32  8
23  33  8
28  34  8
29  35  8
30  36  8
31  34  8
32  35  8
33  36  8
40  42  8
40  43  8
41  44  8
41  45  8
42  46  8
43  47  8
44  48  8
45  50  8
46  49  8
47  49  8
48  51  8
50  51  8
$$$$
