504762
  -OEChem-10302200282D
 90 93  0     1  0  0  0  0  0999 V2000
    7.1962    2.3730    0.0000 S   0  0  0  0  0  0  0  0  0  0  0  0
    6.3301   -4.1270    0.0000 S   0  0  0  0  0  0  0  0  0  0  0  0
    8.9282   -2.6270    0.0000 S   0  0  3  0  0  0  0  0  0  0  0  0
    4.5981    0.8730    0.0000 O   0  0  0  0  0  0  0  0  0  0  0  0
    6.6962    3.2390    0.0000 O   0  0  0  0  0  0  0  0  0  0  0  0
    7.6962    1.5070    0.0000 O   0  0  0  0  0  0  0  0  0  0  0  0
    5.4641   -2.6270    0.0000 O   0  0  0  0  0  0  0  0  0  0  0  0
    6.8301   -4.9930    0.0000 O   0  0  0  0  0  0  0  0  0  0  0  0
    5.8301   -3.2610    0.0000 O   0  0  0  0  0  0  0  0  0  0  0  0
    8.9282   -3.6270    0.0000 O   0  0  0  0  0  0  0  0  0  0  0  0
    6.3301    1.8730    0.0000 N   0  0  3  0  0  0  0  0  0  0  0  0
    6.3301   -1.1270    0.0000 N   0  0  0  0  0  0  0  0  0  0  0  0
    7.1962   -3.6270    0.0000 N   0  0  0  0  0  0  0  0  0  0  0  0
   10.6603    4.3730    0.0000 N   0  0  0  0  0  0  0  0  0  0  0  0
    5.4641   -0.6270    0.0000 C   0  0  2  0  0  0  0  0  0  0  0  0
    5.4641    0.3730    0.0000 C   0  0  1  0  0  0  0  0  0  0  0  0
    6.3301    0.8730    0.0000 C   0  0  0  0  0  0  0  0  0  0  0  0
    5.4641    2.3730    0.0000 C   0  0  0  0  0  0  0  0  0  0  0  0
    4.5981   -1.1270    0.0000 C   0  0  0  0  0  0  0  0  0  0  0  0
    5.4641    3.3730    0.0000 C   0  0  0  0  0  0  0  0  0  0  0  0
    3.7320   -0.6270    0.0000 C   0  0  0  0  0  0  0  0  0  0  0  0
    7.1962   -2.6270    0.0000 C   0  0  1  0  0  0  0  0  0  0  0  0
    6.3301   -2.1270    0.0000 C   0  0  0  0  0  0  0  0  0  0  0  0
    4.5981    3.8730    0.0000 C   0  0  0  0  0  0  0  0  0  0  0  0
    6.3301    3.8730    0.0000 C   0  0  0  0  0  0  0  0  0  0  0  0
    8.0622    2.8730    0.0000 C   0  0  0  0  0  0  0  0  0  0  0  0
    8.0622   -2.1270    0.0000 C   0  0  0  0  0  0  0  0  0  0  0  0
    3.7320    0.3730    0.0000 C   0  0  0  0  0  0  0  0  0  0  0  0
    2.8660   -1.1270    0.0000 C   0  0  0  0  0  0  0  0  0  0  0  0
    8.9282    2.3730    0.0000 C   0  0  0  0  0  0  0  0  0  0  0  0
    8.0622    3.8730    0.0000 C   0  0  0  0  0  0  0  0  0  0  0  0
    2.8660    0.8730    0.0000 C   0  0  0  0  0  0  0  0  0  0  0  0
    2.0000   -0.6270    0.0000 C   0  0  0  0  0  0  0  0  0  0  0  0
    9.7942    2.8730    0.0000 C   0  0  0  0  0  0  0  0  0  0  0  0
    8.9282    4.3730    0.0000 C   0  0  0  0  0  0  0  0  0  0  0  0
    2.0000    0.3730    0.0000 C   0  0  0  0  0  0  0  0  0  0  0  0
    9.7942   -2.1270    0.0000 C   0  0  0  0  0  0  0  0  0  0  0  0
    9.7942    3.8730    0.0000 C   0  0  0  0  0  0  0  0  0  0  0  0
    5.4641   -4.6270    0.0000 C   0  0  0  0  0  0  0  0  0  0  0  0
   10.6603   -2.6270    0.0000 C   0  0  0  0  0  0  0  0  0  0  0  0
    9.7942   -1.1270    0.0000 C   0  0  0  0  0  0  0  0  0  0  0  0
   11.5263   -2.1270    0.0000 C   0  0  0  0  0  0  0  0  0  0  0  0
   11.5263   -1.1270    0.0000 C   0  0  0  0  0  0  0  0  0  0  0  0
   10.6603   -0.6270    0.0000 C   0  0  0  0  0  0  0  0  0  0  0  0
   12.4202   -2.6616    0.0000 C   0  0  0  0  0  0  0  0  0  0  0  0
   12.4202   -0.5923    0.0000 C   0  0  0  0  0  0  0  0  0  0  0  0
   13.3263   -2.1478    0.0000 C   0  0  0  0  0  0  0  0  0  0  0  0
   13.3263   -1.1062    0.0000 C   0  0  0  0  0  0  0  0  0  0  0  0
    6.0010   -0.3170    0.0000 H   0  0  0  0  0  0  0  0  0  0  0  0
    5.4641    0.9930    0.0000 H   0  0  0  0  0  0  0  0  0  0  0  0
    6.5422    0.2904    0.0000 H   0  0  0  0  0  0  0  0  0  0  0  0
    6.9407    0.9807    0.0000 H   0  0  0  0  0  0  0  0  0  0  0  0
    4.8535    2.4807    0.0000 H   0  0  0  0  0  0  0  0  0  0  0  0
    5.2520    1.7904    0.0000 H   0  0  0  0  0  0  0  0  0  0  0  0
    4.1996   -1.6019    0.0000 H   0  0  0  0  0  0  0  0  0  0  0  0
    4.9966   -1.6019    0.0000 H   0  0  0  0  0  0  0  0  0  0  0  0
    5.4641    3.9930    0.0000 H   0  0  0  0  0  0  0  0  0  0  0  0
    6.8671   -0.8170    0.0000 H   0  0  0  0  0  0  0  0  0  0  0  0
    6.6592   -2.9370    0.0000 H   0  0  0  0  0  0  0  0  0  0  0  0
    4.5981    1.4930    0.0000 H   0  0  0  0  0  0  0  0  0  0  0  0
    4.9081    4.4100    0.0000 H   0  0  0  0  0  0  0  0  0  0  0  0
    4.0611    4.1830    0.0000 H   0  0  0  0  0  0  0  0  0  0  0  0
    4.2881    3.3361    0.0000 H   0  0  0  0  0  0  0  0  0  0  0  0
    6.6401    3.3361    0.0000 H   0  0  0  0  0  0  0  0  0  0  0  0
    6.8671    4.1830    0.0000 H   0  0  0  0  0  0  0  0  0  0  0  0
    6.0201    4.4100    0.0000 H   0  0  0  0  0  0  0  0  0  0  0  0
    8.4607   -1.6520    0.0000 H   0  0  0  0  0  0  0  0  0  0  0  0
    7.6636   -1.6520    0.0000 H   0  0  0  0  0  0  0  0  0  0  0  0
    7.7331   -3.9370    0.0000 H   0  0  0  0  0  0  0  0  0  0  0  0
    4.2690    0.6830    0.0000 H   0  0  0  0  0  0  0  0  0  0  0  0
    2.8660   -1.7470    0.0000 H   0  0  0  0  0  0  0  0  0  0  0  0
    8.9282    1.7530    0.0000 H   0  0  0  0  0  0  0  0  0  0  0  0
    7.5252    4.1830    0.0000 H   0  0  0  0  0  0  0  0  0  0  0  0
    2.8660    1.4930    0.0000 H   0  0  0  0  0  0  0  0  0  0  0  0
    1.4631   -0.9370    0.0000 H   0  0  0  0  0  0  0  0  0  0  0  0
   10.3312    2.5630    0.0000 H   0  0  0  0  0  0  0  0  0  0  0  0
    8.9282    4.9930    0.0000 H   0  0  0  0  0  0  0  0  0  0  0  0
    1.4631    0.6830    0.0000 H   0  0  0  0  0  0  0  0  0  0  0  0
    5.1541   -4.0900    0.0000 H   0  0  0  0  0  0  0  0  0  0  0  0
    4.9272   -4.9370    0.0000 H   0  0  0  0  0  0  0  0  0  0  0  0
    5.7741   -5.1639    0.0000 H   0  0  0  0  0  0  0  0  0  0  0  0
   10.6603   -3.2470    0.0000 H   0  0  0  0  0  0  0  0  0  0  0  0
    9.2573   -0.8170    0.0000 H   0  0  0  0  0  0  0  0  0  0  0  0
   10.6603   -0.0070    0.0000 H   0  0  0  0  0  0  0  0  0  0  0  0
   10.6603    4.9930    0.0000 H   0  0  0  0  0  0  0  0  0  0  0  0
   11.1972    4.0630    0.0000 H   0  0  0  0  0  0  0  0  0  0  0  0
   12.4131   -3.2816    0.0000 H   0  0  0  0  0  0  0  0  0  0  0  0
   12.4131    0.0276    0.0000 H   0  0  0  0  0  0  0  0  0  0  0  0
   13.8620   -2.4599    0.0000 H   0  0  0  0  0  0  0  0  0  0  0  0
   13.8620   -0.7941    0.0000 H   0  0  0  0  0  0  0  0  0  0  0  0
  1  5  2  0  0  0  0
  1  6  2  0  0  0  0
  1 11  1  0  0  0  0
  1 26  1  0  0  0  0
  2  8  2  0  0  0  0
  2  9  2  0  0  0  0
  2 13  1  0  0  0  0
  2 39  1  0  0  0  0
  3 10  2  0  0  0  0
  3 27  1  0  0  0  0
  3 37  1  0  0  0  0
 16  4  1  6  0  0  0
  4 60  1  0  0  0  0
  7 23  2  0  0  0  0
 11 17  1  0  0  0  0
 11 18  1  0  0  0  0
 15 12  1  1  0  0  0
 12 23  1  0  0  0  0
 12 58  1  0  0  0  0
 22 13  1  1  0  0  0
 13 69  1  0  0  0  0
 14 38  1  0  0  0  0
 14 85  1  0  0  0  0
 14 86  1  0  0  0  0
 15 16  1  0  0  0  0
 15 19  1  0  0  0  0
 15 49  1  0  0  0  0
 16 17  1  0  0  0  0
 16 50  1  0  0  0  0
 17 51  1  0  0  0  0
 17 52  1  0  0  0  0
 18 20  1  0  0  0  0
 18 53  1  0  0  0  0
 18 54  1  0  0  0  0
 19 21  1  0  0  0  0
 19 55  1  0  0  0  0
 19 56  1  0  0  0  0
 20 24  1  0  0  0  0
 20 25  1  0  0  0  0
 20 57  1  0  0  0  0
 21 28  2  0  0  0  0
 21 29  1  0  0  0  0
 22 23  1  0  0  0  0
 22 27  1  0  0  0  0
 22 59  1  0  0  0  0
 24 61  1  0  0  0  0
 24 62  1  0  0  0  0
 24 63  1  0  0  0  0
 25 64  1  0  0  0  0
 25 65  1  0  0  0  0
 25 66  1  0  0  0  0
 26 30  2  0  0  0  0
 26 31  1  0  0  0  0
 27 67  1  0  0  0  0
 27 68  1  0  0  0  0
 28 32  1  0  0  0  0
 28 70  1  0  0  0  0
 29 33  2  0  0  0  0
 29 71  1  0  0  0  0
 30 34  1  0  0  0  0
 30 72  1  0  0  0  0
 31 35  2  0  0  0  0
 31 73  1  0  0  0  0
 32 36  2  0  0  0  0
 32 74  1  0  0  0  0
 33 36  1  0  0  0  0
 33 75  1  0  0  0  0
 34 38  2  0  0  0  0
 34 76  1  0  0  0  0
 35 38  1  0  0  0  0
 35 77  1  0  0  0  0
 36 78  1  0  0  0  0
 37 40  2  0  0  0  0
 37 41  1  0  0  0  0
 39 79  1  0  0  0  0
 39 80  1  0  0  0  0
 39 81  1  0  0  0  0
 40 42  1  0  0  0  0
 40 82  1  0  0  0  0
 41 44  2  0  0  0  0
 41 83  1  0  0  0  0
 42 43  1  0  0  0  0
 42 45  2  0  0  0  0
 43 44  1  0  0  0  0
 43 46  2  0  0  0  0
 44 84  1  0  0  0  0
 45 47  1  0  0  0  0
 45 87  1  0  0  0  0
 46 48  1  0  0  0  0
 46 88  1  0  0  0  0
 47 48  2  0  0  0  0
 47 89  1  0  0  0  0
 48 90  1  0  0  0  0
M  END
> <PUBCHEM_COMPOUND_CID>
504762
> <PUBCHEM_COMPOUND_CANONICALIZED>
1
> <PUBCHEM_CACTVS_COMPLEXITY>
1260
> <PUBCHEM_CACTVS_HBOND_ACCEPTOR>
11
> <PUBCHEM_CACTVS_HBOND_DONOR>
4
> <PUBCHEM_CACTVS_ROTATABLE_BOND>
16
> <PUBCHEM_CACTVS_SUBSKEYS>
AAADcfB/uABgAAAAAAAAAAAAAAAAAAAAAAAwYMGAAAAAAADBVAAAHgQQSAAADTzl2AaywcLAAgqIAiVSUHDCABAgChAIiJmIZIgKcCKg0ZGUYABklgC4yAeQwKAOkAQAgAAQAAAgCAEAACAAAAAAAAAAAA==
> <PUBCHEM_IUPAC_OPENEYE_NAME>
(2S)-N-[(1S,2R)-3-[(4-aminophenyl)sulfonyl-isobutyl-amino]-1-benzyl-2-hydroxy-propyl]-2-(methanesulfonamido)-3-(2-naphthylsulfinyl)propanamide
> <PUBCHEM_IUPAC_CAS_NAME>
(2S)-N-[(2S,3R)-4-[(4-aminophenyl)sulfonyl-(2-methylpropyl)amino]-3-hydroxy-1-phenylbutan-2-yl]-2-(methanesulfonamido)-3-(2-naphthalenylsulfinyl)propanamide
> <PUBCHEM_IUPAC_NAME_MARKUP>
(2<I>S</I>)-<I>N</I>-[(2<I>S</I>,3<I>R</I>)-4-[(4-aminophenyl)sulfonyl-(2-methylpropyl)amino]-3-hydroxy-1-phenylbutan-2-yl]-2-(methanesulfonamido)-3-naphthalen-2-ylsulfinylpropanamide
> <PUBCHEM_IUPAC_NAME>
(2S)-N-[(2S,3R)-4-[(4-aminophenyl)sulfonyl-(2-methylpropyl)amino]-3-hydroxy-1-phenylbutan-2-yl]-2-(methanesulfonamido)-3-naphthalen-2-ylsulfinylpropanamide
> <PUBCHEM_IUPAC_SYSTEMATIC_NAME>
(2S)-N-[(2S,3R)-4-[(4-aminophenyl)sulfonyl-(2-methylpropyl)amino]-3-oxidanyl-1-phenyl-butan-2-yl]-2-(methylsulfonylamino)-3-naphthalen-2-ylsulfinyl-propanamide
> <PUBCHEM_IUPAC_TRADITIONAL_NAME>
(2S)-N-[(1S,2R)-1-benzyl-2-hydroxy-3-[isobutyl(sulfanilyl)amino]propyl]-2-(methanesulfonamido)-3-(2-naphthylsulfinyl)propionamide
> <PUBCHEM_IUPAC_INCHI>
InChI=1S/C34H42N4O7S3/c1-24(2)21-38(48(44,45)30-17-14-28(35)15-18-30)22-33(39)31(19-25-9-5-4-6-10-25)36-34(40)32(37-47(3,42)43)23-46(41)29-16-13-26-11-7-8-12-27(26)20-29/h4-18,20,24,31-33,37,39H,19,21-23,35H2,1-3H3,(H,36,40)/t31-,32+,33+,46?/m0/s1
> <PUBCHEM_IUPAC_INCHIKEY>
IFTQDGRYVXWWMV-YEAPKVKFSA-N
> <PUBCHEM_XLOGP3_AA>
3.6
> <PUBCHEM_EXACT_MASS>
714.22156321
> <PUBCHEM_MOLECULAR_FORMULA>
C34H42N4O7S3
> <PUBCHEM_MOLECULAR_WEIGHT>
714.9
> <PUBCHEM_OPENEYE_CAN_SMILES>
CC(C)CN(CC(C(CC1=CC=CC=C1)NC(=O)C(CS(=O)C2=CC3=CC=CC=C3C=C2)NS(=O)(=O)C)O)S(=O)(=O)C4=CC=C(C=C4)N
> <PUBCHEM_OPENEYE_ISO_SMILES>
CC(C)CN(C[C@H]([C@H](CC1=CC=CC=C1)NC(=O)[C@@H](CS(=O)C2=CC3=CC=CC=C3C=C2)NS(=O)(=O)C)O)S(=O)(=O)C4=CC=C(C=C4)N
> <PUBCHEM_CACTVS_TPSA>
212
> <PUBCHEM_MONOISOTOPIC_WEIGHT>
714.22156321
> <PUBCHEM_TOTAL_CHARGE>
0
> <PUBCHEM_HEAVY_ATOM_COUNT>
48
> <PUBCHEM_ATOM_DEF_STEREO_COUNT>
3
> <PUBCHEM_ATOM_UDEF_STEREO_COUNT>
1
> <PUBCHEM_BOND_DEF_STEREO_COUNT>
0
> <PUBCHEM_BOND_UDEF_STEREO_COUNT>
0
> <PUBCHEM_ISOTOPIC_ATOM_COUNT>
0
> <PUBCHEM_COMPONENT_COUNT>
1
> <PUBCHEM_CACTVS_TAUTO_COUNT>
-1
> <PUBCHEM_COORDINATE_TYPE>
1
5
255
> <PUBCHEM_BONDANNOTATIONS>
15  12  5
22  13  5
21  28  8
21  29  8
26  30  8
26  31  8
28  32  8
29  33  8
3  27  3
30  34  8
31  35  8
32  36  8
33  36  8
34  38  8
35  38  8
37  40  8
37  41  8
16  4  6
40  42  8
41  44  8
42  43  8
42  45  8
43  44  8
43  46  8
45  47  8
46  48  8
47  48  8
$$$$
