504786
  -OEChem-10302200282D
 67 70  0     1  0  0  0  0  0999 V2000
    5.9423    0.3117    0.0000 O   0  0  0  0  0  0  0  0  0  0  0  0
    7.5171   -2.9317    0.0000 O   0  0  0  0  0  0  0  0  0  0  0  0
    9.2422    5.6137    0.0000 O   0  0  0  0  0  0  0  0  0  0  0  0
    2.0000   -3.4233    0.0000 O   0  5  0  0  0  0  0  0  0  0  0  0
    2.8660   -1.9233    0.0000 O   0  0  0  0  0  0  0  0  0  0  0  0
    7.3401    6.2317    0.0000 O   0  0  0  0  0  0  0  0  0  0  0  0
   11.6487   -1.5424    0.0000 O   0  0  0  0  0  0  0  0  0  0  0  0
   12.0645   -3.4986    0.0000 O   0  0  0  0  0  0  0  0  0  0  0  0
    5.4641   -6.4233    0.0000 O   0  5  0  0  0  0  0  0  0  0  0  0
    3.7320   -6.4233    0.0000 O   0  0  0  0  0  0  0  0  0  0  0  0
    4.5981   -1.9233    0.0000 N   0  0  0  0  0  0  0  0  0  0  0  0
    8.0524   -1.2844    0.0000 N   0  0  0  0  0  0  0  0  0  0  0  0
    7.6365    0.6719    0.0000 N   0  0  0  0  0  0  0  0  0  0  0  0
    4.0981   -0.3845    0.0000 N   0  0  0  0  0  0  0  0  0  0  0  0
    2.8660   -2.9233    0.0000 N   0  3  0  0  0  0  0  0  0  0  0  0
    4.5981   -5.9233    0.0000 N   0  3  0  0  0  0  0  0  0  0  0  0
    7.1013   -0.9754    0.0000 C   0  0  1  0  0  0  0  0  0  0  0  0
    6.3582   -1.6446    0.0000 C   0  0  0  0  0  0  0  0  0  0  0  0
    5.4071   -1.3355    0.0000 C   0  0  0  0  0  0  0  0  0  0  0  0
    6.8934    0.0027    0.0000 C   0  0  0  0  0  0  0  0  0  0  0  0
    4.5981   -2.9233    0.0000 C   0  0  0  0  0  0  0  0  0  0  0  0
    7.4286    1.6500    0.0000 C   0  0  0  0  0  0  0  0  0  0  0  0
    5.0981   -0.3845    0.0000 C   0  0  0  0  0  0  0  0  0  0  0  0
    8.1718    2.3191    0.0000 C   0  0  0  0  0  0  0  0  0  0  0  0
    3.7891   -1.3355    0.0000 C   0  0  0  0  0  0  0  0  0  0  0  0
    8.2603   -2.2626    0.0000 C   0  0  0  0  0  0  0  0  0  0  0  0
    3.7320   -3.4233    0.0000 C   0  0  0  0  0  0  0  0  0  0  0  0
    7.9638    3.2973    0.0000 C   0  0  0  0  0  0  0  0  0  0  0  0
    5.4641   -3.4233    0.0000 C   0  0  0  0  0  0  0  0  0  0  0  0
    9.2113   -2.5716    0.0000 C   0  0  0  0  0  0  0  0  0  0  0  0
    3.7320   -4.4233    0.0000 C   0  0  0  0  0  0  0  0  0  0  0  0
    5.4641   -4.4233    0.0000 C   0  0  0  0  0  0  0  0  0  0  0  0
    4.5981   -4.9233    0.0000 C   0  0  0  0  0  0  0  0  0  0  0  0
    8.7070    3.9664    0.0000 C   0  0  0  0  0  0  0  0  0  0  0  0
    7.0128    3.6063    0.0000 C   0  0  0  0  0  0  0  0  0  0  0  0
    9.9545   -1.9025    0.0000 C   0  0  0  0  0  0  0  0  0  0  0  0
    9.4192   -3.5498    0.0000 C   0  0  0  0  0  0  0  0  0  0  0  0
    8.4991    4.9446    0.0000 C   0  0  0  0  0  0  0  0  0  0  0  0
    6.8049    4.5844    0.0000 C   0  0  0  0  0  0  0  0  0  0  0  0
    7.5480    5.2536    0.0000 C   0  0  0  0  0  0  0  0  0  0  0  0
   10.9055   -2.2115    0.0000 C   0  0  0  0  0  0  0  0  0  0  0  0
   10.3703   -3.8588    0.0000 C   0  0  0  0  0  0  0  0  0  0  0  0
   11.1134   -3.1896    0.0000 C   0  0  0  0  0  0  0  0  0  0  0  0
    7.2302   -1.5819    0.0000 H   0  0  0  0  0  0  0  0  0  0  0  0
    6.0671   -2.1920    0.0000 H   0  0  0  0  0  0  0  0  0  0  0  0
    6.8467   -2.0263    0.0000 H   0  0  0  0  0  0  0  0  0  0  0  0
    8.5131   -0.8696    0.0000 H   0  0  0  0  0  0  0  0  0  0  0  0
    7.1001    2.1758    0.0000 H   0  0  0  0  0  0  0  0  0  0  0  0
    6.8538    1.4178    0.0000 H   0  0  0  0  0  0  0  0  0  0  0  0
    8.2262    0.4803    0.0000 H   0  0  0  0  0  0  0  0  0  0  0  0
    5.4625    0.1171    0.0000 H   0  0  0  0  0  0  0  0  0  0  0  0
    8.5003    1.7934    0.0000 H   0  0  0  0  0  0  0  0  0  0  0  0
    8.7466    2.5514    0.0000 H   0  0  0  0  0  0  0  0  0  0  0  0
    3.1994   -1.5271    0.0000 H   0  0  0  0  0  0  0  0  0  0  0  0
    6.0010   -3.1133    0.0000 H   0  0  0  0  0  0  0  0  0  0  0  0
    3.1951   -4.7333    0.0000 H   0  0  0  0  0  0  0  0  0  0  0  0
    6.0010   -4.7333    0.0000 H   0  0  0  0  0  0  0  0  0  0  0  0
    9.2966    3.7748    0.0000 H   0  0  0  0  0  0  0  0  0  0  0  0
    6.5520    3.1914    0.0000 H   0  0  0  0  0  0  0  0  0  0  0  0
    9.8256   -1.2960    0.0000 H   0  0  0  0  0  0  0  0  0  0  0  0
    8.9585   -3.9646    0.0000 H   0  0  0  0  0  0  0  0  0  0  0  0
    6.2152    4.7760    0.0000 H   0  0  0  0  0  0  0  0  0  0  0  0
   10.4992   -4.4652    0.0000 H   0  0  0  0  0  0  0  0  0  0  0  0
    9.8319    5.4221    0.0000 H   0  0  0  0  0  0  0  0  0  0  0  0
    6.7505    6.4233    0.0000 H   0  0  0  0  0  0  0  0  0  0  0  0
   12.2383   -1.7340    0.0000 H   0  0  0  0  0  0  0  0  0  0  0  0
   12.1934   -4.1051    0.0000 H   0  0  0  0  0  0  0  0  0  0  0  0
  1 20  2  0  0  0  0
  2 26  2  0  0  0  0
  3 38  1  0  0  0  0
  3 64  1  0  0  0  0
  4 15  1  0  0  0  0
  5 15  2  0  0  0  0
  6 40  1  0  0  0  0
  6 65  1  0  0  0  0
  7 41  1  0  0  0  0
  7 66  1  0  0  0  0
  8 43  1  0  0  0  0
  8 67  1  0  0  0  0
  9 16  1  0  0  0  0
 10 16  2  0  0  0  0
 11 19  1  0  0  0  0
 11 21  1  0  0  0  0
 11 25  1  0  0  0  0
 17 12  1  1  0  0  0
 12 26  1  0  0  0  0
 12 47  1  0  0  0  0
 13 20  1  0  0  0  0
 13 22  1  0  0  0  0
 13 50  1  0  0  0  0
 14 23  1  0  0  0  0
 14 25  2  0  0  0  0
 15 27  1  0  0  0  0
 16 33  1  0  0  0  0
 17 18  1  0  0  0  0
 17 20  1  0  0  0  0
 17 44  1  0  0  0  0
 18 19  1  0  0  0  0
 18 45  1  0  0  0  0
 18 46  1  0  0  0  0
 19 23  2  0  0  0  0
 21 27  2  0  0  0  0
 21 29  1  0  0  0  0
 22 24  1  0  0  0  0
 22 48  1  0  0  0  0
 22 49  1  0  0  0  0
 23 51  1  0  0  0  0
 24 28  1  0  0  0  0
 24 52  1  0  0  0  0
 24 53  1  0  0  0  0
 25 54  1  0  0  0  0
 26 30  1  0  0  0  0
 27 31  1  0  0  0  0
 28 34  2  0  0  0  0
 28 35  1  0  0  0  0
 29 32  2  0  0  0  0
 29 55  1  0  0  0  0
 30 36  2  0  0  0  0
 30 37  1  0  0  0  0
 31 33  2  0  0  0  0
 31 56  1  0  0  0  0
 32 33  1  0  0  0  0
 32 57  1  0  0  0  0
 34 38  1  0  0  0  0
 34 58  1  0  0  0  0
 35 39  2  0  0  0  0
 35 59  1  0  0  0  0
 36 41  1  0  0  0  0
 36 60  1  0  0  0  0
 37 42  2  0  0  0  0
 37 61  1  0  0  0  0
 38 40  2  0  0  0  0
 39 40  1  0  0  0  0
 39 62  1  0  0  0  0
 41 43  2  0  0  0  0
 42 43  1  0  0  0  0
 42 63  1  0  0  0  0
M  CHG  4   4  -1   9  -1  15   1  16   1
M  END
> <PUBCHEM_COMPOUND_CID>
504786
> <PUBCHEM_COMPOUND_CANONICALIZED>
1
> <PUBCHEM_CACTVS_COMPLEXITY>
994
> <PUBCHEM_CACTVS_HBOND_ACCEPTOR>
11
> <PUBCHEM_CACTVS_HBOND_DONOR>
6
> <PUBCHEM_CACTVS_ROTATABLE_BOND>
9
> <PUBCHEM_CACTVS_SUBSKEYS>
AAADceB7vAAAAAAAAAAAAAAAAAAAAWAAAAAwYMAAAAAAAAAB1AAAHgAUCAAADCzBngQ91pfcUgCpAzV3dwCCgC01MqAp2IG+/MqJbnLC3fOUcQls1pPJ2ae+3bLOIACBAAQAQCBAAQIACACAQAAAAAAAAA==
> <PUBCHEM_IUPAC_OPENEYE_NAME>
N-[(1S)-2-[2-(3,4-dihydroxyphenyl)ethylamino]-1-[[3-(2,4-dinitrophenyl)imidazol-4-yl]methyl]-2-oxo-ethyl]-3,4-dihydroxy-benzamide
> <PUBCHEM_IUPAC_CAS_NAME>
N-[(2S)-1-[2-(3,4-dihydroxyphenyl)ethylamino]-3-[3-(2,4-dinitrophenyl)-4-imidazolyl]-1-oxopropan-2-yl]-3,4-dihydroxybenzamide
> <PUBCHEM_IUPAC_NAME_MARKUP>
<I>N</I>-[(2<I>S</I>)-1-[2-(3,4-dihydroxyphenyl)ethylamino]-3-[3-(2,4-dinitrophenyl)imidazol-4-yl]-1-oxopropan-2-yl]-3,4-dihydroxybenzamide
> <PUBCHEM_IUPAC_NAME>
N-[(2S)-1-[2-(3,4-dihydroxyphenyl)ethylamino]-3-[3-(2,4-dinitrophenyl)imidazol-4-yl]-1-oxopropan-2-yl]-3,4-dihydroxybenzamide
> <PUBCHEM_IUPAC_SYSTEMATIC_NAME>
N-[(2S)-1-[2-[3,4-bis(oxidanyl)phenyl]ethylamino]-3-[3-(2,4-dinitrophenyl)imidazol-4-yl]-1-oxidanylidene-propan-2-yl]-3,4-bis(oxidanyl)benzamide
> <PUBCHEM_IUPAC_TRADITIONAL_NAME>
N-[(1S)-2-[2-(3,4-dihydroxyphenyl)ethylamino]-1-[[3-(2,4-dinitrophenyl)imidazol-4-yl]methyl]-2-keto-ethyl]-3,4-dihydroxy-benzamide
> <PUBCHEM_IUPAC_INCHI>
InChI=1S/C27H24N6O10/c34-22-5-1-15(9-24(22)36)7-8-29-27(39)19(30-26(38)16-2-6-23(35)25(37)10-16)11-18-13-28-14-31(18)20-4-3-17(32(40)41)12-21(20)33(42)43/h1-6,9-10,12-14,19,34-37H,7-8,11H2,(H,29,39)(H,30,38)/t19-/m0/s1
> <PUBCHEM_IUPAC_INCHIKEY>
LNNNGNDKFHVZRS-IBGZPJMESA-N
> <PUBCHEM_XLOGP3_AA>
2.5
> <PUBCHEM_EXACT_MASS>
592.15539098
> <PUBCHEM_MOLECULAR_FORMULA>
C27H24N6O10
> <PUBCHEM_MOLECULAR_WEIGHT>
592.5
> <PUBCHEM_OPENEYE_CAN_SMILES>
C1=CC(=C(C=C1CCNC(=O)C(CC2=CN=CN2C3=C(C=C(C=C3)[N+](=O)[O-])[N+](=O)[O-])NC(=O)C4=CC(=C(C=C4)O)O)O)O
> <PUBCHEM_OPENEYE_ISO_SMILES>
C1=CC(=C(C=C1CCNC(=O)[C@H](CC2=CN=CN2C3=C(C=C(C=C3)[N+](=O)[O-])[N+](=O)[O-])NC(=O)C4=CC(=C(C=C4)O)O)O)O
> <PUBCHEM_CACTVS_TPSA>
249
> <PUBCHEM_MONOISOTOPIC_WEIGHT>
592.15539098
> <PUBCHEM_TOTAL_CHARGE>
0
> <PUBCHEM_HEAVY_ATOM_COUNT>
43
> <PUBCHEM_ATOM_DEF_STEREO_COUNT>
1
> <PUBCHEM_ATOM_UDEF_STEREO_COUNT>
0
> <PUBCHEM_BOND_DEF_STEREO_COUNT>
0
> <PUBCHEM_BOND_UDEF_STEREO_COUNT>
0
> <PUBCHEM_ISOTOPIC_ATOM_COUNT>
0
> <PUBCHEM_COMPONENT_COUNT>
1
> <PUBCHEM_CACTVS_TAUTO_COUNT>
-1
> <PUBCHEM_COORDINATE_TYPE>
1
5
255
> <PUBCHEM_BONDANNOTATIONS>
11  19  8
11  25  8
17  12  5
14  23  8
14  25  8
19  23  8
21  27  8
21  29  8
27  31  8
28  34  8
28  35  8
29  32  8
30  36  8
30  37  8
31  33  8
32  33  8
34  38  8
35  39  8
36  41  8
37  42  8
38  40  8
39  40  8
41  43  8
42  43  8
$$$$
