504749
  -OEChem-10302200282D
 37 40  0     1  0  0  0  0  0999 V2000
    4.7320   -3.8284    0.0000 Cl  0  0  0  0  0  0  0  0  0  0  0  0
    6.2686    0.7369    0.0000 O   0  0  0  0  0  0  0  0  0  0  0  0
    8.6146   -0.3550    0.0000 O   0  0  0  0  0  0  0  0  0  0  0  0
    8.6183    1.8206    0.0000 O   0  0  0  0  0  0  0  0  0  0  0  0
    7.2208    3.2384    0.0000 O   0  0  0  0  0  0  0  0  0  0  0  0
    6.5443   -1.0237    0.0000 N   0  0  0  0  0  0  0  0  0  0  0  0
    4.7320   -0.8284    0.0000 N   0  0  0  0  0  0  0  0  0  0  0  0
    3.8660   -2.3284    0.0000 N   0  0  0  0  0  0  0  0  0  0  0  0
    6.5443   -2.6332    0.0000 N   0  0  0  0  0  0  0  0  0  0  0  0
    3.0000   -0.8284    0.0000 C   0  0  0  0  0  0  0  0  0  0  0  0
    2.5000    0.0376    0.0000 C   0  0  0  0  0  0  0  0  0  0  0  0
    2.0000   -0.8284    0.0000 C   0  0  0  0  0  0  0  0  0  0  0  0
    6.8550   -0.0732    0.0000 C   0  0  1  0  0  0  0  0  0  0  0  0
    7.8066    0.2342    0.0000 C   0  0  1  0  0  0  0  0  0  0  0  0
    7.8083    1.2342    0.0000 C   0  0  1  0  0  0  0  0  0  0  0  0
    6.8578    1.5449    0.0000 C   0  0  1  0  0  0  0  0  0  0  0  0
    3.8660   -1.3284    0.0000 C   0  0  0  0  0  0  0  0  0  0  0  0
    5.5981   -1.3284    0.0000 C   0  0  0  0  0  0  0  0  0  0  0  0
    6.5504    2.4964    0.0000 C   0  0  0  0  0  0  0  0  0  0  0  0
    5.5981   -2.3284    0.0000 C   0  0  0  0  0  0  0  0  0  0  0  0
    7.1279   -1.8284    0.0000 C   0  0  0  0  0  0  0  0  0  0  0  0
    4.7320   -2.8284    0.0000 C   0  0  0  0  0  0  0  0  0  0  0  0
    2.8395   -1.4273    0.0000 H   0  0  0  0  0  0  0  0  0  0  0  0
    2.9750    0.4361    0.0000 H   0  0  0  0  0  0  0  0  0  0  0  0
    2.0250    0.4361    0.0000 H   0  0  0  0  0  0  0  0  0  0  0  0
    1.4174   -0.6164    0.0000 H   0  0  0  0  0  0  0  0  0  0  0  0
    1.8923   -1.4390    0.0000 H   0  0  0  0  0  0  0  0  0  0  0  0
    7.2926   -0.5123    0.0000 H   0  0  0  0  0  0  0  0  0  0  0  0
    8.3595    0.5147    0.0000 H   0  0  0  0  0  0  0  0  0  0  0  0
    7.7124    1.8467    0.0000 H   0  0  0  0  0  0  0  0  0  0  0  0
    6.2456    1.6429    0.0000 H   0  0  0  0  0  0  0  0  0  0  0  0
    6.1695    2.9857    0.0000 H   0  0  0  0  0  0  0  0  0  0  0  0
    6.0025    2.2063    0.0000 H   0  0  0  0  0  0  0  0  0  0  0  0
    7.7479   -1.8284    0.0000 H   0  0  0  0  0  0  0  0  0  0  0  0
    9.1814   -0.1038    0.0000 H   0  0  0  0  0  0  0  0  0  0  0  0
    9.1843    1.5674    0.0000 H   0  0  0  0  0  0  0  0  0  0  0  0
    7.0302    3.8284    0.0000 H   0  0  0  0  0  0  0  0  0  0  0  0
  1 22  1  0  0  0  0
  2 13  1  0  0  0  0
  2 16  1  0  0  0  0
 14  3  1  1  0  0  0
  3 35  1  0  0  0  0
 15  4  1  1  0  0  0
  4 36  1  0  0  0  0
  5 19  1  0  0  0  0
  5 37  1  0  0  0  0
 13  6  1  6  0  0  0
  6 18  1  0  0  0  0
  6 21  1  0  0  0  0
  7 17  2  0  0  0  0
  7 18  1  0  0  0  0
  8 17  1  0  0  0  0
  8 22  2  0  0  0  0
  9 20  1  0  0  0  0
  9 21  2  0  0  0  0
 10 11  1  0  0  0  0
 10 12  1  0  0  0  0
 10 17  1  0  0  0  0
 10 23  1  0  0  0  0
 11 12  1  0  0  0  0
 11 24  1  0  0  0  0
 11 25  1  0  0  0  0
 12 26  1  0  0  0  0
 12 27  1  0  0  0  0
 13 14  1  0  0  0  0
 13 28  1  0  0  0  0
 14 15  1  0  0  0  0
 14 29  1  0  0  0  0
 15 16  1  0  0  0  0
 15 30  1  0  0  0  0
 16 19  1  6  0  0  0
 16 31  1  0  0  0  0
 18 20  2  0  0  0  0
 19 32  1  0  0  0  0
 19 33  1  0  0  0  0
 20 22  1  0  0  0  0
 21 34  1  0  0  0  0
M  END
> <PUBCHEM_COMPOUND_CID>
504749
> <PUBCHEM_COMPOUND_CANONICALIZED>
1
> <PUBCHEM_CACTVS_COMPLEXITY>
429
> <PUBCHEM_CACTVS_HBOND_ACCEPTOR>
7
> <PUBCHEM_CACTVS_HBOND_DONOR>
3
> <PUBCHEM_CACTVS_ROTATABLE_BOND>
3
> <PUBCHEM_CACTVS_SUBSKEYS>
AAADccBzuAAEAAAAAAAAAAAAGAAAAWJAAAAsAAAAAAAAAFgB+AAAHgIACAAADR7hlyYF8L8MFgCgAQZhZACAgC0RFKABUCA4VhCDWAJAyEBeRAgPAALTACDwMAIAAAAAAAAAAAAAAAAAAAAAAAAAAAAAAA==
> <PUBCHEM_IUPAC_OPENEYE_NAME>
(2R,3R,4S,5R)-2-(6-chloro-2-cyclopropyl-purin-9-yl)-5-(hydroxymethyl)tetrahydrofuran-3,4-diol
> <PUBCHEM_IUPAC_CAS_NAME>
(2R,3R,4S,5R)-2-(6-chloro-2-cyclopropyl-9-purinyl)-5-(hydroxymethyl)oxolane-3,4-diol
> <PUBCHEM_IUPAC_NAME_MARKUP>
(2<I>R</I>,3<I>R</I>,4<I>S</I>,5<I>R</I>)-2-(6-chloro-2-cyclopropylpurin-9-yl)-5-(hydroxymethyl)oxolane-3,4-diol
> <PUBCHEM_IUPAC_NAME>
(2R,3R,4S,5R)-2-(6-chloro-2-cyclopropylpurin-9-yl)-5-(hydroxymethyl)oxolane-3,4-diol
> <PUBCHEM_IUPAC_SYSTEMATIC_NAME>
(2R,3R,4S,5R)-2-(6-chloranyl-2-cyclopropyl-purin-9-yl)-5-(hydroxymethyl)oxolane-3,4-diol
> <PUBCHEM_IUPAC_TRADITIONAL_NAME>
(2R,3R,4S,5R)-2-(6-chloro-2-cyclopropyl-purin-9-yl)-5-methylol-tetrahydrofuran-3,4-diol
> <PUBCHEM_IUPAC_INCHI>
InChI=1S/C13H15ClN4O4/c14-10-7-12(17-11(16-10)5-1-2-5)18(4-15-7)13-9(21)8(20)6(3-19)22-13/h4-6,8-9,13,19-21H,1-3H2/t6-,8-,9-,13-/m1/s1
> <PUBCHEM_IUPAC_INCHIKEY>
IOILJPNEPKHGPW-HTVVRFAVSA-N
> <PUBCHEM_XLOGP3>
0.8
> <PUBCHEM_EXACT_MASS>
326.0781827
> <PUBCHEM_MOLECULAR_FORMULA>
C13H15ClN4O4
> <PUBCHEM_MOLECULAR_WEIGHT>
326.73
> <PUBCHEM_OPENEYE_CAN_SMILES>
C1CC1C2=NC3=C(C(=N2)Cl)N=CN3C4C(C(C(O4)CO)O)O
> <PUBCHEM_OPENEYE_ISO_SMILES>
C1CC1C2=NC3=C(C(=N2)Cl)N=CN3[C@H]4[C@@H]([C@@H]([C@H](O4)CO)O)O
> <PUBCHEM_CACTVS_TPSA>
114
> <PUBCHEM_MONOISOTOPIC_WEIGHT>
326.0781827
> <PUBCHEM_TOTAL_CHARGE>
0
> <PUBCHEM_HEAVY_ATOM_COUNT>
22
> <PUBCHEM_ATOM_DEF_STEREO_COUNT>
4
> <PUBCHEM_ATOM_UDEF_STEREO_COUNT>
0
> <PUBCHEM_BOND_DEF_STEREO_COUNT>
0
> <PUBCHEM_BOND_UDEF_STEREO_COUNT>
0
> <PUBCHEM_ISOTOPIC_ATOM_COUNT>
0
> <PUBCHEM_COMPONENT_COUNT>
1
> <PUBCHEM_CACTVS_TAUTO_COUNT>
-1
> <PUBCHEM_COORDINATE_TYPE>
1
5
255
> <PUBCHEM_BONDANNOTATIONS>
16  19  6
18  20  8
20  22  8
14  3  5
15  4  5
13  6  6
6  18  8
6  21  8
7  17  8
7  18  8
8  17  8
8  22  8
9  20  8
9  21  8
$$$$
