504767
  -OEChem-10302200282D
106109  0     1  0  0  0  0  0999 V2000
    7.9915    5.1618    0.0000 S   0  0  0  0  0  0  0  0  0  0  0  0
    5.3934   -2.3382    0.0000 O   0  0  0  0  0  0  0  0  0  0  0  0
    7.1254    1.6618    0.0000 O   0  0  0  0  0  0  0  0  0  0  0  0
    7.9915    2.1618    0.0000 O   0  0  0  0  0  0  0  0  0  0  0  0
   11.4556    0.1618    0.0000 O   0  0  0  0  0  0  0  0  0  0  0  0
    4.5274   -0.8382    0.0000 O   0  0  0  0  0  0  0  0  0  0  0  0
   11.4556    3.1618    0.0000 O   0  0  0  0  0  0  0  0  0  0  0  0
    7.9915    0.1618    0.0000 N   0  0  0  0  0  0  0  0  0  0  0  0
    6.2594   -0.8382    0.0000 N   0  0  0  0  0  0  0  0  0  0  0  0
    9.7235    2.1618    0.0000 N   0  0  0  0  0  0  0  0  0  0  0  0
   10.5895    4.6618    0.0000 N   0  0  0  0  0  0  0  0  0  0  0  0
    4.5274   -3.8382    0.0000 C   0  0  0  0  0  0  0  0  0  0  0  0
    6.2594    0.1618    0.0000 C   0  0  1  0  0  0  0  0  0  0  0  0
    8.8575    0.6618    0.0000 C   0  0  1  0  0  0  0  0  0  0  0  0
    5.3934    0.6618    0.0000 C   0  0  0  0  0  0  0  0  0  0  0  0
    5.3364   -4.4260    0.0000 C   0  0  0  0  0  0  0  0  0  0  0  0
    3.7183   -4.4260    0.0000 C   0  0  0  0  0  0  0  0  0  0  0  0
    5.3934    1.6618    0.0000 C   0  0  0  0  0  0  0  0  0  0  0  0
    7.1254    0.6618    0.0000 C   0  0  0  0  0  0  0  0  0  0  0  0
    5.0274   -5.3770    0.0000 C   0  0  0  0  0  0  0  0  0  0  0  0
    4.0274   -5.3770    0.0000 C   0  0  0  0  0  0  0  0  0  0  0  0
    4.5274   -2.8382    0.0000 C   0  0  0  0  0  0  0  0  0  0  0  0
    9.7235    0.1618    0.0000 C   0  0  0  0  0  0  0  0  0  0  0  0
    7.9915   -0.8382    0.0000 C   0  0  0  0  0  0  0  0  0  0  0  0
    8.8575    1.6618    0.0000 C   0  0  0  0  0  0  0  0  0  0  0  0
    9.7235    3.1618    0.0000 C   0  0  1  0  0  0  0  0  0  0  0  0
    6.3518   -4.1938    0.0000 C   0  0  0  0  0  0  0  0  0  0  0  0
    2.7029   -4.1938    0.0000 C   0  0  0  0  0  0  0  0  0  0  0  0
    4.5274    2.1618    0.0000 C   0  0  0  0  0  0  0  0  0  0  0  0
    6.2594    2.1618    0.0000 C   0  0  0  0  0  0  0  0  0  0  0  0
    5.7123   -6.1618    0.0000 C   0  0  0  0  0  0  0  0  0  0  0  0
    3.3424   -6.1618    0.0000 C   0  0  0  0  0  0  0  0  0  0  0  0
   10.5895    0.6618    0.0000 C   0  0  0  0  0  0  0  0  0  0  0  0
    8.8575    3.6618    0.0000 C   0  0  0  0  0  0  0  0  0  0  0  0
   11.4556    5.1618    0.0000 C   0  0  0  0  0  0  0  0  0  0  0  0
    5.3934   -1.3382    0.0000 C   0  0  0  0  0  0  0  0  0  0  0  0
    8.8575   -1.3382    0.0000 C   0  0  0  0  0  0  0  0  0  0  0  0
   10.5895    3.6618    0.0000 C   0  0  0  0  0  0  0  0  0  0  0  0
    7.0547   -4.9624    0.0000 C   0  0  0  0  0  0  0  0  0  0  0  0
    2.0000   -4.9624    0.0000 C   0  0  0  0  0  0  0  0  0  0  0  0
    6.7328   -5.9531    0.0000 C   0  0  0  0  0  0  0  0  0  0  0  0
    2.3219   -5.9531    0.0000 C   0  0  0  0  0  0  0  0  0  0  0  0
    8.8575    4.6618    0.0000 C   0  0  0  0  0  0  0  0  0  0  0  0
   12.3216    5.6618    0.0000 C   0  0  0  0  0  0  0  0  0  0  0  0
   10.9556    6.0278    0.0000 C   0  0  0  0  0  0  0  0  0  0  0  0
   11.9556    4.2958    0.0000 C   0  0  0  0  0  0  0  0  0  0  0  0
    9.7235   -0.8382    0.0000 C   0  0  0  0  0  0  0  0  0  0  0  0
    8.8575   -2.3382    0.0000 C   0  0  0  0  0  0  0  0  0  0  0  0
   10.5895   -1.3382    0.0000 C   0  0  0  0  0  0  0  0  0  0  0  0
    9.7235   -2.8382    0.0000 C   0  0  0  0  0  0  0  0  0  0  0  0
   10.5895   -2.3382    0.0000 C   0  0  0  0  0  0  0  0  0  0  0  0
    7.9915    6.1618    0.0000 C   0  0  0  0  0  0  0  0  0  0  0  0
    5.0798   -3.5567    0.0000 H   0  0  0  0  0  0  0  0  0  0  0  0
    6.7964   -0.1482    0.0000 H   0  0  0  0  0  0  0  0  0  0  0  0
    8.3206    0.9718    0.0000 H   0  0  0  0  0  0  0  0  0  0  0  0
    4.7828    0.7695    0.0000 H   0  0  0  0  0  0  0  0  0  0  0  0
    5.1813    0.0792    0.0000 H   0  0  0  0  0  0  0  0  0  0  0  0
    5.3934    2.2818    0.0000 H   0  0  0  0  0  0  0  0  0  0  0  0
    4.3153   -2.2556    0.0000 H   0  0  0  0  0  0  0  0  0  0  0  0
    3.9168   -2.9459    0.0000 H   0  0  0  0  0  0  0  0  0  0  0  0
    9.3250   -0.3132    0.0000 H   0  0  0  0  0  0  0  0  0  0  0  0
   10.1220   -0.3132    0.0000 H   0  0  0  0  0  0  0  0  0  0  0  0
    7.3809   -0.7305    0.0000 H   0  0  0  0  0  0  0  0  0  0  0  0
    7.7794   -1.4208    0.0000 H   0  0  0  0  0  0  0  0  0  0  0  0
    6.7964   -1.1482    0.0000 H   0  0  0  0  0  0  0  0  0  0  0  0
    9.1866    2.8518    0.0000 H   0  0  0  0  0  0  0  0  0  0  0  0
    6.5365   -3.6019    0.0000 H   0  0  0  0  0  0  0  0  0  0  0  0
    2.5182   -3.6019    0.0000 H   0  0  0  0  0  0  0  0  0  0  0  0
   10.2604    1.8518    0.0000 H   0  0  0  0  0  0  0  0  0  0  0  0
    4.8374    2.6987    0.0000 H   0  0  0  0  0  0  0  0  0  0  0  0
    3.9904    2.4718    0.0000 H   0  0  0  0  0  0  0  0  0  0  0  0
    4.2174    1.6248    0.0000 H   0  0  0  0  0  0  0  0  0  0  0  0
    6.5694    1.6248    0.0000 H   0  0  0  0  0  0  0  0  0  0  0  0
    6.7964    2.4718    0.0000 H   0  0  0  0  0  0  0  0  0  0  0  0
    5.9494    2.6987    0.0000 H   0  0  0  0  0  0  0  0  0  0  0  0
    5.5139   -6.7492    0.0000 H   0  0  0  0  0  0  0  0  0  0  0  0
    3.5408   -6.7492    0.0000 H   0  0  0  0  0  0  0  0  0  0  0  0
    8.2469    3.7694    0.0000 H   0  0  0  0  0  0  0  0  0  0  0  0
    8.6454    3.0792    0.0000 H   0  0  0  0  0  0  0  0  0  0  0  0
   10.9881    1.1367    0.0000 H   0  0  0  0  0  0  0  0  0  0  0  0
   10.1910    1.1367    0.0000 H   0  0  0  0  0  0  0  0  0  0  0  0
    7.6607   -4.8312    0.0000 H   0  0  0  0  0  0  0  0  0  0  0  0
    1.3940   -4.8312    0.0000 H   0  0  0  0  0  0  0  0  0  0  0  0
   10.0526    4.9718    0.0000 H   0  0  0  0  0  0  0  0  0  0  0  0
    7.1459   -6.4154    0.0000 H   0  0  0  0  0  0  0  0  0  0  0  0
    1.9088   -6.4154    0.0000 H   0  0  0  0  0  0  0  0  0  0  0  0
    9.4681    4.5541    0.0000 H   0  0  0  0  0  0  0  0  0  0  0  0
    9.0695    5.2444    0.0000 H   0  0  0  0  0  0  0  0  0  0  0  0
   12.6316    5.1248    0.0000 H   0  0  0  0  0  0  0  0  0  0  0  0
   12.8585    5.9718    0.0000 H   0  0  0  0  0  0  0  0  0  0  0  0
   12.0116    6.1987    0.0000 H   0  0  0  0  0  0  0  0  0  0  0  0
   11.4925    6.3378    0.0000 H   0  0  0  0  0  0  0  0  0  0  0  0
   10.6456    6.5648    0.0000 H   0  0  0  0  0  0  0  0  0  0  0  0
   10.4186    5.7178    0.0000 H   0  0  0  0  0  0  0  0  0  0  0  0
   11.4186    3.9858    0.0000 H   0  0  0  0  0  0  0  0  0  0  0  0
   12.2656    3.7588    0.0000 H   0  0  0  0  0  0  0  0  0  0  0  0
   12.4925    4.6058    0.0000 H   0  0  0  0  0  0  0  0  0  0  0  0
    9.7235   -0.2182    0.0000 H   0  0  0  0  0  0  0  0  0  0  0  0
    8.3206   -2.6482    0.0000 H   0  0  0  0  0  0  0  0  0  0  0  0
   11.9925    0.4718    0.0000 H   0  0  0  0  0  0  0  0  0  0  0  0
   11.1265   -1.0282    0.0000 H   0  0  0  0  0  0  0  0  0  0  0  0
    9.7235   -3.4582    0.0000 H   0  0  0  0  0  0  0  0  0  0  0  0
   11.1265   -2.6482    0.0000 H   0  0  0  0  0  0  0  0  0  0  0  0
    8.6115    6.1618    0.0000 H   0  0  0  0  0  0  0  0  0  0  0  0
    7.9915    6.7818    0.0000 H   0  0  0  0  0  0  0  0  0  0  0  0
    7.3715    6.1618    0.0000 H   0  0  0  0  0  0  0  0  0  0  0  0
  1 43  1  0  0  0  0
  1 52  1  0  0  0  0
  2 22  1  0  0  0  0
  2 36  1  0  0  0  0
  3 19  2  0  0  0  0
  4 25  2  0  0  0  0
  5 33  1  0  0  0  0
  5100  1  0  0  0  0
  6 36  2  0  0  0  0
  7 38  2  0  0  0  0
 14  8  1  6  0  0  0
  8 19  1  0  0  0  0
  8 24  1  0  0  0  0
 13  9  1  1  0  0  0
  9 36  1  0  0  0  0
  9 65  1  0  0  0  0
 10 25  1  0  0  0  0
 26 10  1  1  0  0  0
 10 69  1  0  0  0  0
 11 35  1  0  0  0  0
 11 38  1  0  0  0  0
 11 84  1  0  0  0  0
 12 16  1  0  0  0  0
 12 17  1  0  0  0  0
 12 22  1  0  0  0  0
 12 53  1  0  0  0  0
 13 15  1  0  0  0  0
 13 19  1  0  0  0  0
 13 54  1  0  0  0  0
 14 23  1  0  0  0  0
 14 25  1  0  0  0  0
 14 55  1  0  0  0  0
 15 18  1  0  0  0  0
 15 56  1  0  0  0  0
 15 57  1  0  0  0  0
 16 20  1  0  0  0  0
 16 27  2  0  0  0  0
 17 21  1  0  0  0  0
 17 28  2  0  0  0  0
 18 29  1  0  0  0  0
 18 30  1  0  0  0  0
 18 58  1  0  0  0  0
 20 21  1  0  0  0  0
 20 31  2  0  0  0  0
 21 32  2  0  0  0  0
 22 59  1  0  0  0  0
 22 60  1  0  0  0  0
 23 33  1  0  0  0  0
 23 61  1  0  0  0  0
 23 62  1  0  0  0  0
 24 37  1  0  0  0  0
 24 63  1  0  0  0  0
 24 64  1  0  0  0  0
 26 34  1  0  0  0  0
 26 38  1  0  0  0  0
 26 66  1  0  0  0  0
 27 39  1  0  0  0  0
 27 67  1  0  0  0  0
 28 40  1  0  0  0  0
 28 68  1  0  0  0  0
 29 70  1  0  0  0  0
 29 71  1  0  0  0  0
 29 72  1  0  0  0  0
 30 73  1  0  0  0  0
 30 74  1  0  0  0  0
 30 75  1  0  0  0  0
 31 41  1  0  0  0  0
 31 76  1  0  0  0  0
 32 42  1  0  0  0  0
 32 77  1  0  0  0  0
 33 80  1  0  0  0  0
 33 81  1  0  0  0  0
 34 43  1  0  0  0  0
 34 78  1  0  0  0  0
 34 79  1  0  0  0  0
 35 44  1  0  0  0  0
 35 45  1  0  0  0  0
 35 46  1  0  0  0  0
 37 47  2  0  0  0  0
 37 48  1  0  0  0  0
 39 41  2  0  0  0  0
 39 82  1  0  0  0  0
 40 42  2  0  0  0  0
 40 83  1  0  0  0  0
 41 85  1  0  0  0  0
 42 86  1  0  0  0  0
 43 87  1  0  0  0  0
 43 88  1  0  0  0  0
 44 89  1  0  0  0  0
 44 90  1  0  0  0  0
 44 91  1  0  0  0  0
 45 92  1  0  0  0  0
 45 93  1  0  0  0  0
 45 94  1  0  0  0  0
 46 95  1  0  0  0  0
 46 96  1  0  0  0  0
 46 97  1  0  0  0  0
 47 49  1  0  0  0  0
 47 98  1  0  0  0  0
 48 50  2  0  0  0  0
 48 99  1  0  0  0  0
 49 51  2  0  0  0  0
 49101  1  0  0  0  0
 50 51  1  0  0  0  0
 50102  1  0  0  0  0
 51103  1  0  0  0  0
 52104  1  0  0  0  0
 52105  1  0  0  0  0
 52106  1  0  0  0  0
M  END
> <PUBCHEM_COMPOUND_CID>
504767
> <PUBCHEM_COMPOUND_CANONICALIZED>
1
> <PUBCHEM_CACTVS_COMPLEXITY>
1130
> <PUBCHEM_CACTVS_HBOND_ACCEPTOR>
7
> <PUBCHEM_CACTVS_HBOND_DONOR>
4
> <PUBCHEM_CACTVS_ROTATABLE_BOND>
19
> <PUBCHEM_CACTVS_SUBSKEYS>
AAADcfB/uABAAAAAAAAAAAAAAAAAAYAAAAAwYMAAAAAAAGABUAAAHgQQCAAADajl2AayCIPABgiIAiFSGACCAAAgABAIiIGIBIkIcDKgkTGcYAhm1gGIiAe6wPAOgAAAAAAQAAAAAAAAACAAAQAACAAAAA==
> <PUBCHEM_IUPAC_OPENEYE_NAME>
9H-fluoren-9-ylmethyl N-[(1S)-1-[benzyl-[(1S)-1-[[(1S)-1-(tert-butylcarbamoyl)-3-methylsulfanyl-propyl]carbamoyl]-3-hydroxy-propyl]carbamoyl]-3-methyl-butyl]carbamate
> <PUBCHEM_IUPAC_CAS_NAME>
N-[(2S)-1-[[(2S)-1-[[(2S)-1-(tert-butylamino)-4-(methylthio)-1-oxobutan-2-yl]amino]-4-hydroxy-1-oxobutan-2-yl]-(phenylmethyl)amino]-4-methyl-1-oxopentan-2-yl]carbamic acid 9H-fluoren-9-ylmethyl ester
> <PUBCHEM_IUPAC_NAME_MARKUP>
9<I>H</I>-fluoren-9-ylmethyl <I>N</I>-[(2<I>S</I>)-1-[benzyl-[(2<I>S</I>)-1-[[(2<I>S</I>)-1-(<I>tert</I>-butylamino)-4-methylsulfanyl-1-oxobutan-2-yl]amino]-4-hydroxy-1-oxobutan-2-yl]amino]-4-methyl-1-oxopentan-2-yl]carbamate
> <PUBCHEM_IUPAC_NAME>
9H-fluoren-9-ylmethyl N-[(2S)-1-[benzyl-[(2S)-1-[[(2S)-1-(tert-butylamino)-4-methylsulfanyl-1-oxobutan-2-yl]amino]-4-hydroxy-1-oxobutan-2-yl]amino]-4-methyl-1-oxopentan-2-yl]carbamate
> <PUBCHEM_IUPAC_SYSTEMATIC_NAME>
9H-fluoren-9-ylmethyl N-[(2S)-1-[[(2S)-1-[[(2S)-1-(tert-butylamino)-4-methylsulfanyl-1-oxidanylidene-butan-2-yl]amino]-4-oxidanyl-1-oxidanylidene-butan-2-yl]-(phenylmethyl)amino]-4-methyl-1-oxidanylidene-pentan-2-yl]carbamate
> <PUBCHEM_IUPAC_TRADITIONAL_NAME>
N-[(1S)-1-[benzyl-[(1S)-1-[[(1S)-1-(tert-butylcarbamoyl)-3-(methylthio)propyl]carbamoyl]-3-hydroxy-propyl]carbamoyl]-3-methyl-butyl]carbamic acid 9H-fluoren-9-ylmethyl ester
> <PUBCHEM_IUPAC_INCHI>
InChI=1S/C41H54N4O6S/c1-27(2)24-35(43-40(50)51-26-33-31-18-12-10-16-29(31)30-17-11-13-19-32(30)33)39(49)45(25-28-14-8-7-9-15-28)36(20-22-46)38(48)42-34(21-23-52-6)37(47)44-41(3,4)5/h7-19,27,33-36,46H,20-26H2,1-6H3,(H,42,48)(H,43,50)(H,44,47)/t34-,35-,36-/m0/s1
> <PUBCHEM_IUPAC_INCHIKEY>
YOJOAJOMTSIJCW-KVBYWJEESA-N
> <PUBCHEM_XLOGP3_AA>
6.2
> <PUBCHEM_EXACT_MASS>
730.37640663
> <PUBCHEM_MOLECULAR_FORMULA>
C41H54N4O6S
> <PUBCHEM_MOLECULAR_WEIGHT>
731.0
> <PUBCHEM_OPENEYE_CAN_SMILES>
CC(C)CC(C(=O)N(CC1=CC=CC=C1)C(CCO)C(=O)NC(CCSC)C(=O)NC(C)(C)C)NC(=O)OCC2C3=CC=CC=C3C4=CC=CC=C24
> <PUBCHEM_OPENEYE_ISO_SMILES>
CC(C)C[C@@H](C(=O)N(CC1=CC=CC=C1)[C@@H](CCO)C(=O)N[C@@H](CCSC)C(=O)NC(C)(C)C)NC(=O)OCC2C3=CC=CC=C3C4=CC=CC=C24
> <PUBCHEM_CACTVS_TPSA>
162
> <PUBCHEM_MONOISOTOPIC_WEIGHT>
730.37640663
> <PUBCHEM_TOTAL_CHARGE>
0
> <PUBCHEM_HEAVY_ATOM_COUNT>
52
> <PUBCHEM_ATOM_DEF_STEREO_COUNT>
3
> <PUBCHEM_ATOM_UDEF_STEREO_COUNT>
0
> <PUBCHEM_BOND_DEF_STEREO_COUNT>
0
> <PUBCHEM_BOND_UDEF_STEREO_COUNT>
0
> <PUBCHEM_ISOTOPIC_ATOM_COUNT>
0
> <PUBCHEM_COMPONENT_COUNT>
1
> <PUBCHEM_CACTVS_TAUTO_COUNT>
-1
> <PUBCHEM_COORDINATE_TYPE>
1
5
255
> <PUBCHEM_BONDANNOTATIONS>
26  10  5
16  20  8
16  27  8
17  21  8
17  28  8
20  31  8
21  32  8
27  39  8
28  40  8
31  41  8
32  42  8
37  47  8
37  48  8
39  41  8
40  42  8
47  49  8
48  50  8
49  51  8
50  51  8
14  8  6
13  9  5
$$$$
