504779
  -OEChem-10302200282D
 84 88  0     1  0  0  0  0  0999 V2000
    9.4651    0.5000    0.0000 S   0  0  0  0  0  0  0  0  0  0  0  0
    6.0010    0.5000    0.0000 O   0  0  0  0  0  0  0  0  0  0  0  0
    9.4651   -0.5000    0.0000 O   0  0  0  0  0  0  0  0  0  0  0  0
    4.2690    6.5000    0.0000 O   0  0  0  0  0  0  0  0  0  0  0  0
    2.5369    5.5000    0.0000 O   0  0  0  0  0  0  0  0  0  0  0  0
    6.0010   -5.5000    0.0000 O   0  0  0  0  0  0  0  0  0  0  0  0
    7.7331   -6.5000    0.0000 O   0  0  0  0  0  0  0  0  0  0  0  0
    7.7331   -0.5000    0.0000 N   0  0  0  0  0  0  0  0  0  0  0  0
    6.8671    2.0000    0.0000 N   0  0  0  0  0  0  0  0  0  0  0  0
   10.3312    1.0000    0.0000 C   0  0  0  0  0  0  0  0  0  0  0  0
   11.1972    1.5000    0.0000 C   0  0  0  0  0  0  0  0  0  0  0  0
   10.8312    0.1340    0.0000 C   0  0  0  0  0  0  0  0  0  0  0  0
    9.8312    1.8660    0.0000 C   0  0  0  0  0  0  0  0  0  0  0  0
    8.5991    1.0000    0.0000 C   0  0  0  0  0  0  0  0  0  0  0  0
    7.7331    0.5000    0.0000 C   0  0  1  0  0  0  0  0  0  0  0  0
   11.1972    2.5000    0.0000 C   0  0  0  0  0  0  0  0  0  0  0  0
   11.8312    0.1340    0.0000 C   0  0  0  0  0  0  0  0  0  0  0  0
    8.8312    1.8660    0.0000 C   0  0  0  0  0  0  0  0  0  0  0  0
   12.0632    1.0000    0.0000 C   0  0  0  0  0  0  0  0  0  0  0  0
   10.3312   -0.7321    0.0000 C   0  0  0  0  0  0  0  0  0  0  0  0
   10.3312    2.7320    0.0000 C   0  0  0  0  0  0  0  0  0  0  0  0
    6.8671    1.0000    0.0000 C   0  0  0  0  0  0  0  0  0  0  0  0
   12.0632    3.0000    0.0000 C   0  0  0  0  0  0  0  0  0  0  0  0
   12.3312   -0.7321    0.0000 C   0  0  0  0  0  0  0  0  0  0  0  0
    8.3312    2.7320    0.0000 C   0  0  0  0  0  0  0  0  0  0  0  0
   12.9292    1.5000    0.0000 C   0  0  0  0  0  0  0  0  0  0  0  0
   10.8312   -1.5981    0.0000 C   0  0  0  0  0  0  0  0  0  0  0  0
    9.8312    3.5981    0.0000 C   0  0  0  0  0  0  0  0  0  0  0  0
    6.0010    2.5000    0.0000 C   0  0  0  0  0  0  0  0  0  0  0  0
   12.9292    2.5000    0.0000 C   0  0  0  0  0  0  0  0  0  0  0  0
   11.8312   -1.5981    0.0000 C   0  0  0  0  0  0  0  0  0  0  0  0
    8.8312    3.5981    0.0000 C   0  0  0  0  0  0  0  0  0  0  0  0
    6.0010    3.5000    0.0000 C   0  0  0  0  0  0  0  0  0  0  0  0
    8.5991   -1.0000    0.0000 C   0  0  0  0  0  0  0  0  0  0  0  0
    5.1350    4.0000    0.0000 C   0  0  0  0  0  0  0  0  0  0  0  0
    8.5991   -2.0000    0.0000 C   0  0  0  0  0  0  0  0  0  0  0  0
    5.1350    5.0000    0.0000 C   0  0  0  0  0  0  0  0  0  0  0  0
    4.2690    3.5000    0.0000 C   0  0  0  0  0  0  0  0  0  0  0  0
    4.2690    5.5000    0.0000 C   0  0  0  0  0  0  0  0  0  0  0  0
    3.4030    4.0000    0.0000 C   0  0  0  0  0  0  0  0  0  0  0  0
    7.7331   -2.5000    0.0000 C   0  0  0  0  0  0  0  0  0  0  0  0
    3.4030    5.0000    0.0000 C   0  0  0  0  0  0  0  0  0  0  0  0
    7.7331   -3.5000    0.0000 C   0  0  0  0  0  0  0  0  0  0  0  0
    6.8671   -4.0000    0.0000 C   0  0  0  0  0  0  0  0  0  0  0  0
    8.5991   -4.0000    0.0000 C   0  0  0  0  0  0  0  0  0  0  0  0
    6.8671   -5.0000    0.0000 C   0  0  0  0  0  0  0  0  0  0  0  0
    8.5991   -5.0000    0.0000 C   0  0  0  0  0  0  0  0  0  0  0  0
    7.7331   -5.5000    0.0000 C   0  0  0  0  0  0  0  0  0  0  0  0
    8.9976    1.4750    0.0000 H   0  0  0  0  0  0  0  0  0  0  0  0
    8.2006    1.4750    0.0000 H   0  0  0  0  0  0  0  0  0  0  0  0
    8.2700    0.1900    0.0000 H   0  0  0  0  0  0  0  0  0  0  0  0
   10.6603    2.8100    0.0000 H   0  0  0  0  0  0  0  0  0  0  0  0
   12.1412    0.6709    0.0000 H   0  0  0  0  0  0  0  0  0  0  0  0
    8.5212    1.3291    0.0000 H   0  0  0  0  0  0  0  0  0  0  0  0
   12.0632    0.3800    0.0000 H   0  0  0  0  0  0  0  0  0  0  0  0
    9.7112   -0.7321    0.0000 H   0  0  0  0  0  0  0  0  0  0  0  0
   10.9512    2.7320    0.0000 H   0  0  0  0  0  0  0  0  0  0  0  0
    7.1962   -0.8100    0.0000 H   0  0  0  0  0  0  0  0  0  0  0  0
   12.0632    3.6200    0.0000 H   0  0  0  0  0  0  0  0  0  0  0  0
   12.9512   -0.7321    0.0000 H   0  0  0  0  0  0  0  0  0  0  0  0
    7.7112    2.7320    0.0000 H   0  0  0  0  0  0  0  0  0  0  0  0
   13.4662    1.1900    0.0000 H   0  0  0  0  0  0  0  0  0  0  0  0
   10.5212   -2.1350    0.0000 H   0  0  0  0  0  0  0  0  0  0  0  0
   10.1412    4.1350    0.0000 H   0  0  0  0  0  0  0  0  0  0  0  0
    7.4040    2.3100    0.0000 H   0  0  0  0  0  0  0  0  0  0  0  0
    5.3905    2.6077    0.0000 H   0  0  0  0  0  0  0  0  0  0  0  0
    5.7890    1.9174    0.0000 H   0  0  0  0  0  0  0  0  0  0  0  0
   13.4662    2.8100    0.0000 H   0  0  0  0  0  0  0  0  0  0  0  0
   12.1412   -2.1350    0.0000 H   0  0  0  0  0  0  0  0  0  0  0  0
    8.5212    4.1350    0.0000 H   0  0  0  0  0  0  0  0  0  0  0  0
    6.6116    3.3923    0.0000 H   0  0  0  0  0  0  0  0  0  0  0  0
    6.2131    4.0826    0.0000 H   0  0  0  0  0  0  0  0  0  0  0  0
    9.1360   -2.3100    0.0000 H   0  0  0  0  0  0  0  0  0  0  0  0
    5.6720    5.3100    0.0000 H   0  0  0  0  0  0  0  0  0  0  0  0
    4.2690    2.8800    0.0000 H   0  0  0  0  0  0  0  0  0  0  0  0
    2.8660    3.6900    0.0000 H   0  0  0  0  0  0  0  0  0  0  0  0
    7.1962   -2.1900    0.0000 H   0  0  0  0  0  0  0  0  0  0  0  0
    6.3301   -3.6900    0.0000 H   0  0  0  0  0  0  0  0  0  0  0  0
    9.1360   -3.6900    0.0000 H   0  0  0  0  0  0  0  0  0  0  0  0
    4.8059    6.8100    0.0000 H   0  0  0  0  0  0  0  0  0  0  0  0
    2.0000    5.1900    0.0000 H   0  0  0  0  0  0  0  0  0  0  0  0
    9.1360   -5.3100    0.0000 H   0  0  0  0  0  0  0  0  0  0  0  0
    5.4641   -5.1900    0.0000 H   0  0  0  0  0  0  0  0  0  0  0  0
    8.2700   -6.8100    0.0000 H   0  0  0  0  0  0  0  0  0  0  0  0
  1 10  1  0  0  0  0
  1 14  1  0  0  0  0
  2 22  2  0  0  0  0
  3 34  2  0  0  0  0
  4 39  1  0  0  0  0
  4 80  1  0  0  0  0
  5 42  1  0  0  0  0
  5 81  1  0  0  0  0
  6 46  1  0  0  0  0
  6 83  1  0  0  0  0
  7 48  1  0  0  0  0
  7 84  1  0  0  0  0
 15  8  1  6  0  0  0
  8 34  1  0  0  0  0
  8 58  1  0  0  0  0
  9 22  1  0  0  0  0
  9 29  1  0  0  0  0
  9 65  1  0  0  0  0
 10 11  1  0  0  0  0
 10 12  1  0  0  0  0
 10 13  1  0  0  0  0
 11 16  2  0  0  0  0
 11 19  1  0  0  0  0
 12 17  2  0  0  0  0
 12 20  1  0  0  0  0
 13 18  2  0  0  0  0
 13 21  1  0  0  0  0
 14 15  1  0  0  0  0
 14 49  1  0  0  0  0
 14 50  1  0  0  0  0
 15 22  1  0  0  0  0
 15 51  1  0  0  0  0
 16 23  1  0  0  0  0
 16 52  1  0  0  0  0
 17 24  1  0  0  0  0
 17 53  1  0  0  0  0
 18 25  1  0  0  0  0
 18 54  1  0  0  0  0
 19 26  2  0  0  0  0
 19 55  1  0  0  0  0
 20 27  2  0  0  0  0
 20 56  1  0  0  0  0
 21 28  2  0  0  0  0
 21 57  1  0  0  0  0
 23 30  2  0  0  0  0
 23 59  1  0  0  0  0
 24 31  2  0  0  0  0
 24 60  1  0  0  0  0
 25 32  2  0  0  0  0
 25 61  1  0  0  0  0
 26 30  1  0  0  0  0
 26 62  1  0  0  0  0
 27 31  1  0  0  0  0
 27 63  1  0  0  0  0
 28 32  1  0  0  0  0
 28 64  1  0  0  0  0
 29 33  1  0  0  0  0
 29 66  1  0  0  0  0
 29 67  1  0  0  0  0
 30 68  1  0  0  0  0
 31 69  1  0  0  0  0
 32 70  1  0  0  0  0
 33 35  1  0  0  0  0
 33 71  1  0  0  0  0
 33 72  1  0  0  0  0
 34 36  1  0  0  0  0
 35 37  2  0  0  0  0
 35 38  1  0  0  0  0
 36 41  2  3  0  0  0
 36 73  1  0  0  0  0
 37 39  1  0  0  0  0
 37 74  1  0  0  0  0
 38 40  2  0  0  0  0
 38 75  1  0  0  0  0
 39 42  2  0  0  0  0
 40 42  1  0  0  0  0
 40 76  1  0  0  0  0
 41 43  1  0  0  0  0
 41 77  1  0  0  0  0
 43 44  2  0  0  0  0
 43 45  1  0  0  0  0
 44 46  1  0  0  0  0
 44 78  1  0  0  0  0
 45 47  2  0  0  0  0
 45 79  1  0  0  0  0
 46 48  2  0  0  0  0
 47 48  1  0  0  0  0
 47 82  1  0  0  0  0
M  END
> <PUBCHEM_COMPOUND_CID>
504779
> <PUBCHEM_COMPOUND_CANONICALIZED>
1
> <PUBCHEM_CACTVS_COMPLEXITY>
978
> <PUBCHEM_CACTVS_HBOND_ACCEPTOR>
7
> <PUBCHEM_CACTVS_HBOND_DONOR>
6
> <PUBCHEM_CACTVS_ROTATABLE_BOND>
13
> <PUBCHEM_CACTVS_SUBSKEYS>
AAADcfB/OABAAAAAAAAAAAAAAAAAAAAAAAAwYMGDAAAAAAABVAAAHgQQCAAADCzF2ASwBoLAAgiIAiFSEACCAAAgIBAIiIGOiMgJZiKikTOUcAEk1hGpmYeQ0PIOoAABAAAAQABAAAIAAACAAAAAAAAAAA==
> <PUBCHEM_IUPAC_OPENEYE_NAME>
(2R)-N-[2-(3,4-dihydroxyphenyl)ethyl]-2-[3-(3,4-dihydroxyphenyl)prop-2-enoylamino]-3-tritylsulfanyl-propanamide
> <PUBCHEM_IUPAC_CAS_NAME>
(2R)-N-[2-(3,4-dihydroxyphenyl)ethyl]-2-[[3-(3,4-dihydroxyphenyl)-1-oxoprop-2-enyl]amino]-3-[(triphenylmethyl)thio]propanamide
> <PUBCHEM_IUPAC_NAME_MARKUP>
(2<I>R</I>)-<I>N</I>-[2-(3,4-dihydroxyphenyl)ethyl]-2-[3-(3,4-dihydroxyphenyl)prop-2-enoylamino]-3-tritylsulfanylpropanamide
> <PUBCHEM_IUPAC_NAME>
(2R)-N-[2-(3,4-dihydroxyphenyl)ethyl]-2-[3-(3,4-dihydroxyphenyl)prop-2-enoylamino]-3-tritylsulfanylpropanamide
> <PUBCHEM_IUPAC_SYSTEMATIC_NAME>
(2R)-N-[2-[3,4-bis(oxidanyl)phenyl]ethyl]-2-[3-[3,4-bis(oxidanyl)phenyl]prop-2-enoylamino]-3-(triphenylmethyl)sulfanyl-propanamide
> <PUBCHEM_IUPAC_TRADITIONAL_NAME>
(2R)-2-(caffeoylamino)-N-[2-(3,4-dihydroxyphenyl)ethyl]-3-(tritylthio)propionamide
> <PUBCHEM_IUPAC_INCHI>
InChI=1S/C39H36N2O6S/c42-33-19-16-27(24-35(33)44)18-21-37(46)41-32(38(47)40-23-22-28-17-20-34(43)36(45)25-28)26-48-39(29-10-4-1-5-11-29,30-12-6-2-7-13-30)31-14-8-3-9-15-31/h1-21,24-25,32,42-45H,22-23,26H2,(H,40,47)(H,41,46)/t32-/m0/s1
> <PUBCHEM_IUPAC_INCHIKEY>
VRUBQYSGMNTYMV-YTTGMZPUSA-N
> <PUBCHEM_XLOGP3_AA>
6.9
> <PUBCHEM_EXACT_MASS>
660.22940805
> <PUBCHEM_MOLECULAR_FORMULA>
C39H36N2O6S
> <PUBCHEM_MOLECULAR_WEIGHT>
660.8
> <PUBCHEM_OPENEYE_CAN_SMILES>
C1=CC=C(C=C1)C(C2=CC=CC=C2)(C3=CC=CC=C3)SCC(C(=O)NCCC4=CC(=C(C=C4)O)O)NC(=O)C=CC5=CC(=C(C=C5)O)O
> <PUBCHEM_OPENEYE_ISO_SMILES>
C1=CC=C(C=C1)C(C2=CC=CC=C2)(C3=CC=CC=C3)SC[C@@H](C(=O)NCCC4=CC(=C(C=C4)O)O)NC(=O)C=CC5=CC(=C(C=C5)O)O
> <PUBCHEM_CACTVS_TPSA>
164
> <PUBCHEM_MONOISOTOPIC_WEIGHT>
660.22940805
> <PUBCHEM_TOTAL_CHARGE>
0
> <PUBCHEM_HEAVY_ATOM_COUNT>
48
> <PUBCHEM_ATOM_DEF_STEREO_COUNT>
1
> <PUBCHEM_ATOM_UDEF_STEREO_COUNT>
0
> <PUBCHEM_BOND_DEF_STEREO_COUNT>
0
> <PUBCHEM_BOND_UDEF_STEREO_COUNT>
1
> <PUBCHEM_ISOTOPIC_ATOM_COUNT>
0
> <PUBCHEM_COMPONENT_COUNT>
1
> <PUBCHEM_CACTVS_TAUTO_COUNT>
-1
> <PUBCHEM_COORDINATE_TYPE>
1
5
255
> <PUBCHEM_BONDANNOTATIONS>
11  16  8
11  19  8
12  17  8
12  20  8
13  18  8
13  21  8
16  23  8
17  24  8
18  25  8
19  26  8
20  27  8
21  28  8
23  30  8
24  31  8
25  32  8
26  30  8
27  31  8
28  32  8
35  37  8
35  38  8
36  41  1
37  39  8
38  40  8
39  42  8
40  42  8
43  44  8
43  45  8
44  46  8
45  47  8
46  48  8
47  48  8
15  8  6
$$$$
