504738
  -OEChem-10302200282D
 35 37  0     1  0  0  0  0  0999 V2000
    6.1346    0.7369    0.0000 O   0  0  0  0  0  0  0  0  0  0  0  0
    8.4806   -0.3550    0.0000 O   0  0  0  0  0  0  0  0  0  0  0  0
    8.4843    1.8206    0.0000 O   0  0  0  0  0  0  0  0  0  0  0  0
    7.0868    3.2384    0.0000 O   0  0  0  0  0  0  0  0  0  0  0  0
    4.5981   -3.8284    0.0000 O   0  0  0  0  0  0  0  0  0  0  0  0
    2.0000   -1.3284    0.0000 O   0  0  0  0  0  0  0  0  0  0  0  0
    6.4103   -1.0237    0.0000 N   0  0  0  0  0  0  0  0  0  0  0  0
    4.5981   -0.8284    0.0000 N   0  0  0  0  0  0  0  0  0  0  0  0
    6.4103   -2.6332    0.0000 N   0  0  0  0  0  0  0  0  0  0  0  0
    3.7320   -2.3284    0.0000 N   0  0  0  0  0  0  0  0  0  0  0  0
    6.7210   -0.0732    0.0000 C   0  0  1  0  0  0  0  0  0  0  0  0
    7.6726    0.2342    0.0000 C   0  0  1  0  0  0  0  0  0  0  0  0
    7.6743    1.2342    0.0000 C   0  0  1  0  0  0  0  0  0  0  0  0
    6.7238    1.5449    0.0000 C   0  0  1  0  0  0  0  0  0  0  0  0
    6.4164    2.4964    0.0000 C   0  0  0  0  0  0  0  0  0  0  0  0
    5.4641   -1.3284    0.0000 C   0  0  0  0  0  0  0  0  0  0  0  0
    6.9939   -1.8284    0.0000 C   0  0  0  0  0  0  0  0  0  0  0  0
    5.4641   -2.3284    0.0000 C   0  0  0  0  0  0  0  0  0  0  0  0
    3.7320   -1.3284    0.0000 C   0  0  3  0  0  0  0  0  0  0  0  0
    4.5981   -2.8284    0.0000 C   0  0  0  0  0  0  0  0  0  0  0  0
    2.8660   -0.8284    0.0000 C   0  0  0  0  0  0  0  0  0  0  0  0
    6.1085   -0.1691    0.0000 H   0  0  0  0  0  0  0  0  0  0  0  0
    8.2255    0.5147    0.0000 H   0  0  0  0  0  0  0  0  0  0  0  0
    7.5784    1.8467    0.0000 H   0  0  0  0  0  0  0  0  0  0  0  0
    6.1116    1.6429    0.0000 H   0  0  0  0  0  0  0  0  0  0  0  0
    6.0356    2.9857    0.0000 H   0  0  0  0  0  0  0  0  0  0  0  0
    5.8685    2.2063    0.0000 H   0  0  0  0  0  0  0  0  0  0  0  0
    7.6139   -1.8284    0.0000 H   0  0  0  0  0  0  0  0  0  0  0  0
    9.0474   -0.1038    0.0000 H   0  0  0  0  0  0  0  0  0  0  0  0
    9.0503    1.5674    0.0000 H   0  0  0  0  0  0  0  0  0  0  0  0
    4.5981   -0.2084    0.0000 H   0  0  0  0  0  0  0  0  0  0  0  0
    3.7320   -0.7084    0.0000 H   0  0  0  0  0  0  0  0  0  0  0  0
    3.1951   -2.6384    0.0000 H   0  0  0  0  0  0  0  0  0  0  0  0
    6.8963    3.8284    0.0000 H   0  0  0  0  0  0  0  0  0  0  0  0
    2.8660   -0.2084    0.0000 H   0  0  0  0  0  0  0  0  0  0  0  0
  1 11  1  0  0  0  0
  1 14  1  0  0  0  0
 12  2  1  1  0  0  0
  2 29  1  0  0  0  0
 13  3  1  1  0  0  0
  3 30  1  0  0  0  0
  4 15  1  0  0  0  0
  4 34  1  0  0  0  0
  5 20  2  0  0  0  0
  6 21  2  0  0  0  0
 11  7  1  6  0  0  0
  7 16  1  0  0  0  0
  7 17  1  0  0  0  0
  8 16  1  0  0  0  0
  8 19  1  0  0  0  0
  8 31  1  0  0  0  0
  9 17  2  0  0  0  0
  9 18  1  0  0  0  0
 10 19  1  0  0  0  0
 10 20  1  0  0  0  0
 10 33  1  0  0  0  0
 11 12  1  0  0  0  0
 11 22  1  0  0  0  0
 12 13  1  0  0  0  0
 12 23  1  0  0  0  0
 13 14  1  0  0  0  0
 13 24  1  0  0  0  0
 14 15  1  6  0  0  0
 14 25  1  0  0  0  0
 15 26  1  0  0  0  0
 15 27  1  0  0  0  0
 16 18  2  0  0  0  0
 17 28  1  0  0  0  0
 18 20  1  0  0  0  0
 19 21  1  0  0  0  0
 19 32  1  0  0  0  0
 21 35  1  0  0  0  0
M  END
> <PUBCHEM_COMPOUND_CID>
504738
> <PUBCHEM_COMPOUND_CANONICALIZED>
1
> <PUBCHEM_CACTVS_COMPLEXITY>
437
> <PUBCHEM_CACTVS_HBOND_ACCEPTOR>
8
> <PUBCHEM_CACTVS_HBOND_DONOR>
5
> <PUBCHEM_CACTVS_ROTATABLE_BOND>
3
> <PUBCHEM_CACTVS_SUBSKEYS>
AAADccBzuAAAAAAAAAAAAAAAAAAAAWJAAAAsAAAAAAAAAFgBgAAAHgAQCAAACBzhlgYFsBfMFgCoAQ9x9ACAgC0XEKABUIGoVECDWApAyCAeQIgPFwLTAGDwMAIAAAAAAAAAAAAAAAAAAAAAAAAAAAAAAA==
> <PUBCHEM_IUPAC_OPENEYE_NAME>
9-[(2R,3R,4S,5R)-3,4-dihydroxy-5-(hydroxymethyl)tetrahydrofuran-2-yl]-6-oxo-2,3-dihydro-1H-purine-2-carbaldehyde
> <PUBCHEM_IUPAC_CAS_NAME>
9-[(2R,3R,4S,5R)-3,4-dihydroxy-5-(hydroxymethyl)-2-oxolanyl]-6-oxo-2,3-dihydro-1H-purine-2-carboxaldehyde
> <PUBCHEM_IUPAC_NAME_MARKUP>
9-[(2<I>R</I>,3<I>R</I>,4<I>S</I>,5<I>R</I>)-3,4-dihydroxy-5-(hydroxymethyl)oxolan-2-yl]-6-oxo-2,3-dihydro-1<I>H</I>-purine-2-carbaldehyde
> <PUBCHEM_IUPAC_NAME>
9-[(2R,3R,4S,5R)-3,4-dihydroxy-5-(hydroxymethyl)oxolan-2-yl]-6-oxo-2,3-dihydro-1H-purine-2-carbaldehyde
> <PUBCHEM_IUPAC_SYSTEMATIC_NAME>
9-[(2R,3R,4S,5R)-5-(hydroxymethyl)-3,4-bis(oxidanyl)oxolan-2-yl]-6-oxidanylidene-2,3-dihydro-1H-purine-2-carbaldehyde
> <PUBCHEM_IUPAC_TRADITIONAL_NAME>
9-[(2R,3R,4S,5R)-3,4-dihydroxy-5-methylol-tetrahydrofuran-2-yl]-6-keto-2,3-dihydro-1H-purine-2-carbaldehyde
> <PUBCHEM_IUPAC_INCHI>
InChI=1S/C11H14N4O6/c16-1-4-7(18)8(19)11(21-4)15-3-12-6-9(15)13-5(2-17)14-10(6)20/h2-5,7-8,11,13,16,18-19H,1H2,(H,14,20)/t4-,5?,7-,8-,11-/m1/s1
> <PUBCHEM_IUPAC_INCHIKEY>
CNIMQBVFONMXNY-VXSOYKKHSA-N
> <PUBCHEM_XLOGP3>
-1.4
> <PUBCHEM_EXACT_MASS>
298.09133418
> <PUBCHEM_MOLECULAR_FORMULA>
C11H14N4O6
> <PUBCHEM_MOLECULAR_WEIGHT>
298.25
> <PUBCHEM_OPENEYE_CAN_SMILES>
C1=NC2=C(N1C3C(C(C(O3)CO)O)O)NC(NC2=O)C=O
> <PUBCHEM_OPENEYE_ISO_SMILES>
C1=NC2=C(N1[C@H]3[C@@H]([C@@H]([C@H](O3)CO)O)O)NC(NC2=O)C=O
> <PUBCHEM_CACTVS_TPSA>
146
> <PUBCHEM_MONOISOTOPIC_WEIGHT>
298.09133418
> <PUBCHEM_TOTAL_CHARGE>
0
> <PUBCHEM_HEAVY_ATOM_COUNT>
21
> <PUBCHEM_ATOM_DEF_STEREO_COUNT>
4
> <PUBCHEM_ATOM_UDEF_STEREO_COUNT>
1
> <PUBCHEM_BOND_DEF_STEREO_COUNT>
0
> <PUBCHEM_BOND_UDEF_STEREO_COUNT>
0
> <PUBCHEM_ISOTOPIC_ATOM_COUNT>
0
> <PUBCHEM_COMPONENT_COUNT>
1
> <PUBCHEM_CACTVS_TAUTO_COUNT>
-1
> <PUBCHEM_COORDINATE_TYPE>
1
5
255
> <PUBCHEM_BONDANNOTATIONS>
14  15  6
16  18  8
19  21  3
12  2  5
13  3  5
11  7  6
7  16  8
7  17  8
9  17  8
9  18  8
$$$$
