504713
  -OEChem-10302200282D
 44 43  0     1  0  0  0  0  0999 V2000
    4.5981   -0.2390    0.0000 P   0  0  0  0  0  0  0  0  0  0  0  0
    8.0622   -1.2390    0.0000 O   0  0  0  0  0  0  0  0  0  0  0  0
    8.9282    1.2610    0.0000 O   0  0  0  0  0  0  0  0  0  0  0  0
    7.1962    1.2610    0.0000 O   0  0  0  0  0  0  0  0  0  0  0  0
    5.4641    0.2610    0.0000 O   0  0  0  0  0  0  0  0  0  0  0  0
   10.6603   -1.7390    0.0000 O   0  0  0  0  0  0  0  0  0  0  0  0
    3.7320   -0.7390    0.0000 O   0  0  0  0  0  0  0  0  0  0  0  0
    4.0981    0.6270    0.0000 O   0  0  0  0  0  0  0  0  0  0  0  0
    5.0981   -1.1051    0.0000 O   0  0  0  0  0  0  0  0  0  0  0  0
   10.6603    0.2610    0.0000 N   0  0  0  0  0  0  0  0  0  0  0  0
    8.9282    0.2610    0.0000 C   0  0  1  0  0  0  0  0  0  0  0  0
    8.0622   -0.2390    0.0000 C   0  0  1  0  0  0  0  0  0  0  0  0
    9.7942   -0.2390    0.0000 C   0  0  2  0  0  0  0  0  0  0  0  0
    7.1962    0.2610    0.0000 C   0  0  1  0  0  0  0  0  0  0  0  0
    6.3301   -0.2390    0.0000 C   0  0  0  0  0  0  0  0  0  0  0  0
    9.7942   -1.2390    0.0000 C   0  0  0  0  0  0  0  0  0  0  0  0
    2.8660   -0.2390    0.0000 C   0  0  0  0  0  0  0  0  0  0  0  0
    4.5981    1.4930    0.0000 C   0  0  0  0  0  0  0  0  0  0  0  0
    2.0000   -0.7390    0.0000 C   0  0  0  0  0  0  0  0  0  0  0  0
    4.0981    2.3590    0.0000 C   0  0  0  0  0  0  0  0  0  0  0  0
    7.5252   -0.5490    0.0000 H   0  0  0  0  0  0  0  0  0  0  0  0
    9.4651    0.5710    0.0000 H   0  0  0  0  0  0  0  0  0  0  0  0
   10.3312   -0.5490    0.0000 H   0  0  0  0  0  0  0  0  0  0  0  0
    6.6592    0.5710    0.0000 H   0  0  0  0  0  0  0  0  0  0  0  0
    5.9316   -0.7140    0.0000 H   0  0  0  0  0  0  0  0  0  0  0  0
    6.7287   -0.7140    0.0000 H   0  0  0  0  0  0  0  0  0  0  0  0
    9.1836   -1.1314    0.0000 H   0  0  0  0  0  0  0  0  0  0  0  0
    9.5822   -1.8216    0.0000 H   0  0  0  0  0  0  0  0  0  0  0  0
   11.1972   -0.0490    0.0000 H   0  0  0  0  0  0  0  0  0  0  0  0
   10.6603    0.8810    0.0000 H   0  0  0  0  0  0  0  0  0  0  0  0
    8.5991   -1.5490    0.0000 H   0  0  0  0  0  0  0  0  0  0  0  0
    9.4651    1.5710    0.0000 H   0  0  0  0  0  0  0  0  0  0  0  0
    7.7331    1.5710    0.0000 H   0  0  0  0  0  0  0  0  0  0  0  0
   10.6603   -2.3590    0.0000 H   0  0  0  0  0  0  0  0  0  0  0  0
    3.2646    0.2359    0.0000 H   0  0  0  0  0  0  0  0  0  0  0  0
    2.4675    0.2359    0.0000 H   0  0  0  0  0  0  0  0  0  0  0  0
    5.0730    1.0945    0.0000 H   0  0  0  0  0  0  0  0  0  0  0  0
    5.0730    1.8915    0.0000 H   0  0  0  0  0  0  0  0  0  0  0  0
    1.6900   -0.2021    0.0000 H   0  0  0  0  0  0  0  0  0  0  0  0
    1.4631   -1.0490    0.0000 H   0  0  0  0  0  0  0  0  0  0  0  0
    2.3100   -1.2760    0.0000 H   0  0  0  0  0  0  0  0  0  0  0  0
    4.6350    2.6690    0.0000 H   0  0  0  0  0  0  0  0  0  0  0  0
    3.7881    2.8960    0.0000 H   0  0  0  0  0  0  0  0  0  0  0  0
    3.5611    2.0490    0.0000 H   0  0  0  0  0  0  0  0  0  0  0  0
  1  5  1  0  0  0  0
  1  7  1  0  0  0  0
  1  8  1  0  0  0  0
  1  9  2  0  0  0  0
 12  2  1  6  0  0  0
  2 31  1  0  0  0  0
 11  3  1  6  0  0  0
  3 32  1  0  0  0  0
 14  4  1  1  0  0  0
  4 33  1  0  0  0  0
  5 15  1  0  0  0  0
  6 16  1  0  0  0  0
  6 34  1  0  0  0  0
  7 17  1  0  0  0  0
  8 18  1  0  0  0  0
 13 10  1  1  0  0  0
 10 29  1  0  0  0  0
 10 30  1  0  0  0  0
 11 12  1  0  0  0  0
 11 13  1  0  0  0  0
 11 22  1  0  0  0  0
 12 14  1  0  0  0  0
 12 21  1  0  0  0  0
 13 16  1  0  0  0  0
 13 23  1  0  0  0  0
 14 15  1  0  0  0  0
 14 24  1  0  0  0  0
 15 25  1  0  0  0  0
 15 26  1  0  0  0  0
 16 27  1  0  0  0  0
 16 28  1  0  0  0  0
 17 19  1  0  0  0  0
 17 35  1  0  0  0  0
 17 36  1  0  0  0  0
 18 20  1  0  0  0  0
 18 37  1  0  0  0  0
 18 38  1  0  0  0  0
 19 39  1  0  0  0  0
 19 40  1  0  0  0  0
 19 41  1  0  0  0  0
 20 42  1  0  0  0  0
 20 43  1  0  0  0  0
 20 44  1  0  0  0  0
M  END
> <PUBCHEM_COMPOUND_CID>
504713
> <PUBCHEM_COMPOUND_CANONICALIZED>
1
> <PUBCHEM_CACTVS_COMPLEXITY>
295
> <PUBCHEM_CACTVS_HBOND_ACCEPTOR>
9
> <PUBCHEM_CACTVS_HBOND_DONOR>
5
> <PUBCHEM_CACTVS_ROTATABLE_BOND>
11
> <PUBCHEM_CACTVS_SUBSKEYS>
AAADceByPAIAAAAAAAAAAAAAAAAAAAAAAAAAAAAAAAAAAAAAAAAAHgAQCCAACDzhgAYCAABAAxAAQAAAAIAAAAAAAAAAAIAAAAADEAIAgAAAQAAHEAABAAHwcAUAAAAAAAAAAAAAAAAAAAAAAAAAAAAAAA==
> <PUBCHEM_IUPAC_OPENEYE_NAME>
[(2R,3S,4R,5S)-5-amino-2,3,4,6-tetrahydroxy-hexyl] diethyl phosphate
> <PUBCHEM_IUPAC_CAS_NAME>
phosphoric acid [(2R,3S,4R,5S)-5-amino-2,3,4,6-tetrahydroxyhexyl] diethyl ester
> <PUBCHEM_IUPAC_NAME_MARKUP>
[(2<I>R</I>,3<I>S</I>,4<I>R</I>,5<I>S</I>)-5-amino-2,3,4,6-tetrahydroxyhexyl] diethyl phosphate
> <PUBCHEM_IUPAC_NAME>
[(2R,3S,4R,5S)-5-amino-2,3,4,6-tetrahydroxyhexyl] diethyl phosphate
> <PUBCHEM_IUPAC_SYSTEMATIC_NAME>
[(2R,3S,4R,5S)-5-azanyl-2,3,4,6-tetrakis(oxidanyl)hexyl] diethyl phosphate
> <PUBCHEM_IUPAC_TRADITIONAL_NAME>
phosphoric acid [(2R,3S,4R,5S)-5-amino-2,3,4,6-tetrahydroxy-hexyl] diethyl ester
> <PUBCHEM_IUPAC_INCHI>
InChI=1S/C10H24NO8P/c1-3-17-20(16,18-4-2)19-6-8(13)10(15)9(14)7(11)5-12/h7-10,12-15H,3-6,11H2,1-2H3/t7-,8+,9+,10+/m0/s1
> <PUBCHEM_IUPAC_INCHIKEY>
KDHXVLVNKUAFDN-SGIHWFKDSA-N
> <PUBCHEM_XLOGP3_AA>
-3.2
> <PUBCHEM_EXACT_MASS>
317.12395372
> <PUBCHEM_MOLECULAR_FORMULA>
C10H24NO8P
> <PUBCHEM_MOLECULAR_WEIGHT>
317.27
> <PUBCHEM_OPENEYE_CAN_SMILES>
CCOP(=O)(OCC)OCC(C(C(C(CO)N)O)O)O
> <PUBCHEM_OPENEYE_ISO_SMILES>
CCOP(=O)(OCC)OC[C@H]([C@H]([C@@H]([C@H](CO)N)O)O)O
> <PUBCHEM_CACTVS_TPSA>
152
> <PUBCHEM_MONOISOTOPIC_WEIGHT>
317.12395372
> <PUBCHEM_TOTAL_CHARGE>
0
> <PUBCHEM_HEAVY_ATOM_COUNT>
20
> <PUBCHEM_ATOM_DEF_STEREO_COUNT>
4
> <PUBCHEM_ATOM_UDEF_STEREO_COUNT>
0
> <PUBCHEM_BOND_DEF_STEREO_COUNT>
0
> <PUBCHEM_BOND_UDEF_STEREO_COUNT>
0
> <PUBCHEM_ISOTOPIC_ATOM_COUNT>
0
> <PUBCHEM_COMPONENT_COUNT>
1
> <PUBCHEM_CACTVS_TAUTO_COUNT>
-1
> <PUBCHEM_COORDINATE_TYPE>
1
5
255
> <PUBCHEM_BONDANNOTATIONS>
13  10  5
12  2  6
11  3  6
14  4  5
$$$$
