504769
  -OEChem-10302200282D
 87 92  0     1  0  0  0  0  0999 V2000
    6.0010   -0.2500    0.0000 O   0  0  0  0  0  0  0  0  0  0  0  0
    6.0010   -1.2500    0.0000 O   0  0  0  0  0  0  0  0  0  0  0  0
    6.8671   -5.7500    0.0000 O   0  0  0  0  0  0  0  0  0  0  0  0
    4.2690    5.7500    0.0000 O   0  0  0  0  0  0  0  0  0  0  0  0
    2.5369    4.7500    0.0000 O   0  0  0  0  0  0  0  0  0  0  0  0
   10.0936    1.2206    0.0000 N   0  0  0  0  0  0  0  0  0  0  0  0
    9.4355    2.6987    0.0000 N   0  0  0  0  0  0  0  0  0  0  0  0
    7.7331   -1.2500    0.0000 N   0  0  0  0  0  0  0  0  0  0  0  0
    6.8671    1.2500    0.0000 N   0  0  0  0  0  0  0  0  0  0  0  0
    5.1350   -4.7500    0.0000 N   0  0  0  0  0  0  0  0  0  0  0  0
   11.0447    0.9115    0.0000 C   0  0  0  0  0  0  0  0  0  0  0  0
   11.9957    0.6025    0.0000 C   0  0  0  0  0  0  0  0  0  0  0  0
   11.5142    1.7945    0.0000 C   0  0  0  0  0  0  0  0  0  0  0  0
   10.7357   -0.0395    0.0000 C   0  0  0  0  0  0  0  0  0  0  0  0
    9.0991    1.1160    0.0000 C   0  0  0  0  0  0  0  0  0  0  0  0
    8.5991    0.2500    0.0000 C   0  0  0  0  0  0  0  0  0  0  0  0
    7.7331   -0.2500    0.0000 C   0  0  2  0  0  0  0  0  0  0  0  0
   10.3015    2.1987    0.0000 C   0  0  0  0  0  0  0  0  0  0  0  0
    8.6924    2.0296    0.0000 C   0  0  0  0  0  0  0  0  0  0  0  0
   12.2037   -0.3756    0.0000 C   0  0  0  0  0  0  0  0  0  0  0  0
   10.9842    2.6425    0.0000 C   0  0  0  0  0  0  0  0  0  0  0  0
   11.4048   -0.7827    0.0000 C   0  0  0  0  0  0  0  0  0  0  0  0
   12.7389    1.2716    0.0000 C   0  0  0  0  0  0  0  0  0  0  0  0
   12.5136    1.8294    0.0000 C   0  0  0  0  0  0  0  0  0  0  0  0
    9.7576   -0.2474    0.0000 C   0  0  0  0  0  0  0  0  0  0  0  0
    6.8671    0.2500    0.0000 C   0  0  0  0  0  0  0  0  0  0  0  0
   13.1547   -0.6846    0.0000 C   0  0  0  0  0  0  0  0  0  0  0  0
   11.4537    3.5255    0.0000 C   0  0  0  0  0  0  0  0  0  0  0  0
   11.0958   -1.7337    0.0000 C   0  0  0  0  0  0  0  0  0  0  0  0
   13.6899    0.9626    0.0000 C   0  0  0  0  0  0  0  0  0  0  0  0
   12.9830    2.7123    0.0000 C   0  0  0  0  0  0  0  0  0  0  0  0
    9.4486   -1.1985    0.0000 C   0  0  0  0  0  0  0  0  0  0  0  0
   13.8979   -0.0155    0.0000 C   0  0  0  0  0  0  0  0  0  0  0  0
   12.4531    3.5604    0.0000 C   0  0  0  0  0  0  0  0  0  0  0  0
   10.1176   -1.9416    0.0000 C   0  0  0  0  0  0  0  0  0  0  0  0
    6.0010    1.7500    0.0000 C   0  0  0  0  0  0  0  0  0  0  0  0
    6.8671   -1.7500    0.0000 C   0  0  0  0  0  0  0  0  0  0  0  0
    6.0010    2.7500    0.0000 C   0  0  0  0  0  0  0  0  0  0  0  0
    6.8671   -2.7500    0.0000 C   0  0  0  0  0  0  0  0  0  0  0  0
    5.1350    3.2500    0.0000 C   0  0  0  0  0  0  0  0  0  0  0  0
    6.0010   -3.2500    0.0000 C   0  0  0  0  0  0  0  0  0  0  0  0
    7.7331   -3.2500    0.0000 C   0  0  0  0  0  0  0  0  0  0  0  0
    5.1350    4.2500    0.0000 C   0  0  0  0  0  0  0  0  0  0  0  0
    4.2690    2.7500    0.0000 C   0  0  0  0  0  0  0  0  0  0  0  0
    6.0010   -4.2500    0.0000 C   0  0  0  0  0  0  0  0  0  0  0  0
    7.7331   -4.2500    0.0000 C   0  0  0  0  0  0  0  0  0  0  0  0
    6.8671   -4.7500    0.0000 C   0  0  0  0  0  0  0  0  0  0  0  0
    4.2690    4.7500    0.0000 C   0  0  0  0  0  0  0  0  0  0  0  0
    3.4030    3.2500    0.0000 C   0  0  0  0  0  0  0  0  0  0  0  0
    3.4030    4.2500    0.0000 C   0  0  0  0  0  0  0  0  0  0  0  0
    8.7068   -0.3606    0.0000 H   0  0  0  0  0  0  0  0  0  0  0  0
    8.1607    0.6884    0.0000 H   0  0  0  0  0  0  0  0  0  0  0  0
    8.2700   -0.5600    0.0000 H   0  0  0  0  0  0  0  0  0  0  0  0
   10.8679    2.4509    0.0000 H   0  0  0  0  0  0  0  0  0  0  0  0
    8.0859    2.1585    0.0000 H   0  0  0  0  0  0  0  0  0  0  0  0
   11.7429   -0.7905    0.0000 H   0  0  0  0  0  0  0  0  0  0  0  0
   10.3646    2.6209    0.0000 H   0  0  0  0  0  0  0  0  0  0  0  0
   12.0113   -0.6538    0.0000 H   0  0  0  0  0  0  0  0  0  0  0  0
   12.6100    1.8781    0.0000 H   0  0  0  0  0  0  0  0  0  0  0  0
   12.8421    1.3036    0.0000 H   0  0  0  0  0  0  0  0  0  0  0  0
    9.3427    0.2133    0.0000 H   0  0  0  0  0  0  0  0  0  0  0  0
    8.2700   -1.5600    0.0000 H   0  0  0  0  0  0  0  0  0  0  0  0
   13.2836   -1.2911    0.0000 H   0  0  0  0  0  0  0  0  0  0  0  0
   11.1252    4.0513    0.0000 H   0  0  0  0  0  0  0  0  0  0  0  0
   11.5106   -2.1945    0.0000 H   0  0  0  0  0  0  0  0  0  0  0  0
   14.1507    1.3775    0.0000 H   0  0  0  0  0  0  0  0  0  0  0  0
   13.6026    2.7340    0.0000 H   0  0  0  0  0  0  0  0  0  0  0  0
    8.8421   -1.3274    0.0000 H   0  0  0  0  0  0  0  0  0  0  0  0
   14.4875   -0.2071    0.0000 H   0  0  0  0  0  0  0  0  0  0  0  0
   12.7442    4.1078    0.0000 H   0  0  0  0  0  0  0  0  0  0  0  0
    9.9260   -2.5313    0.0000 H   0  0  0  0  0  0  0  0  0  0  0  0
    7.4040    1.5600    0.0000 H   0  0  0  0  0  0  0  0  0  0  0  0
    5.3905    1.8577    0.0000 H   0  0  0  0  0  0  0  0  0  0  0  0
    5.7890    1.1674    0.0000 H   0  0  0  0  0  0  0  0  0  0  0  0
    6.6116    2.6423    0.0000 H   0  0  0  0  0  0  0  0  0  0  0  0
    6.2131    3.3326    0.0000 H   0  0  0  0  0  0  0  0  0  0  0  0
    5.4641   -2.9400    0.0000 H   0  0  0  0  0  0  0  0  0  0  0  0
    8.2700   -2.9400    0.0000 H   0  0  0  0  0  0  0  0  0  0  0  0
    5.6720    4.5600    0.0000 H   0  0  0  0  0  0  0  0  0  0  0  0
    4.2690    2.1300    0.0000 H   0  0  0  0  0  0  0  0  0  0  0  0
    8.2700   -4.5600    0.0000 H   0  0  0  0  0  0  0  0  0  0  0  0
    2.8660    2.9400    0.0000 H   0  0  0  0  0  0  0  0  0  0  0  0
    4.5981   -4.4400    0.0000 H   0  0  0  0  0  0  0  0  0  0  0  0
    5.1350   -5.3700    0.0000 H   0  0  0  0  0  0  0  0  0  0  0  0
    7.4040   -6.0600    0.0000 H   0  0  0  0  0  0  0  0  0  0  0  0
    4.8059    6.0600    0.0000 H   0  0  0  0  0  0  0  0  0  0  0  0
    2.0000    4.4400    0.0000 H   0  0  0  0  0  0  0  0  0  0  0  0
  1 26  2  0  0  0  0
  2 37  2  0  0  0  0
  3 47  1  0  0  0  0
  3 85  1  0  0  0  0
  4 48  1  0  0  0  0
  4 86  1  0  0  0  0
  5 50  1  0  0  0  0
  5 87  1  0  0  0  0
  6 11  1  0  0  0  0
  6 15  1  0  0  0  0
  6 18  1  0  0  0  0
  7 18  2  0  0  0  0
  7 19  1  0  0  0  0
 17  8  1  1  0  0  0
  8 37  1  0  0  0  0
  8 62  1  0  0  0  0
  9 26  1  0  0  0  0
  9 36  1  0  0  0  0
  9 72  1  0  0  0  0
 10 45  1  0  0  0  0
 10 83  1  0  0  0  0
 10 84  1  0  0  0  0
 11 12  1  0  0  0  0
 11 13  1  0  0  0  0
 11 14  1  0  0  0  0
 12 20  2  0  0  0  0
 12 23  1  0  0  0  0
 13 21  2  0  0  0  0
 13 24  1  0  0  0  0
 14 22  2  0  0  0  0
 14 25  1  0  0  0  0
 15 16  1  0  0  0  0
 15 19  2  0  0  0  0
 16 17  1  0  0  0  0
 16 51  1  0  0  0  0
 16 52  1  0  0  0  0
 17 26  1  0  0  0  0
 17 53  1  0  0  0  0
 18 54  1  0  0  0  0
 19 55  1  0  0  0  0
 20 27  1  0  0  0  0
 20 56  1  0  0  0  0
 21 28  1  0  0  0  0
 21 57  1  0  0  0  0
 22 29  1  0  0  0  0
 22 58  1  0  0  0  0
 23 30  2  0  0  0  0
 23 59  1  0  0  0  0
 24 31  2  0  0  0  0
 24 60  1  0  0  0  0
 25 32  2  0  0  0  0
 25 61  1  0  0  0  0
 27 33  2  0  0  0  0
 27 63  1  0  0  0  0
 28 34  2  0  0  0  0
 28 64  1  0  0  0  0
 29 35  2  0  0  0  0
 29 65  1  0  0  0  0
 30 33  1  0  0  0  0
 30 66  1  0  0  0  0
 31 34  1  0  0  0  0
 31 67  1  0  0  0  0
 32 35  1  0  0  0  0
 32 68  1  0  0  0  0
 33 69  1  0  0  0  0
 34 70  1  0  0  0  0
 35 71  1  0  0  0  0
 36 38  1  0  0  0  0
 36 73  1  0  0  0  0
 36 74  1  0  0  0  0
 37 39  1  0  0  0  0
 38 40  1  0  0  0  0
 38 75  1  0  0  0  0
 38 76  1  0  0  0  0
 39 41  2  0  0  0  0
 39 42  1  0  0  0  0
 40 43  2  0  0  0  0
 40 44  1  0  0  0  0
 41 45  1  0  0  0  0
 41 77  1  0  0  0  0
 42 46  2  0  0  0  0
 42 78  1  0  0  0  0
 43 48  1  0  0  0  0
 43 79  1  0  0  0  0
 44 49  2  0  0  0  0
 44 80  1  0  0  0  0
 45 47  2  0  0  0  0
 46 47  1  0  0  0  0
 46 81  1  0  0  0  0
 48 50  2  0  0  0  0
 49 50  1  0  0  0  0
 49 82  1  0  0  0  0
M  END
> <PUBCHEM_COMPOUND_CID>
504769
> <PUBCHEM_COMPOUND_CANONICALIZED>
1
> <PUBCHEM_CACTVS_COMPLEXITY>
1030
> <PUBCHEM_CACTVS_HBOND_ACCEPTOR>
7
> <PUBCHEM_CACTVS_HBOND_DONOR>
6
> <PUBCHEM_CACTVS_ROTATABLE_BOND>
12
> <PUBCHEM_CACTVS_SUBSKEYS>
AAADcfB/uAAAAAAAAAAAAAAAAAAAAWAAAAAwYMGDAAAAAAAB1AAAHgAQCAAADKzBngQ91pfMEgCoAzV3dACCgC01MqAJ2IG//MiLbjLS3bOUcQls1hPJ2aec3fLOoAABQAAAUABAAAKAAACgAAAAAAAAAA==
> <PUBCHEM_IUPAC_OPENEYE_NAME>
3-amino-N-[(1R)-2-[2-(3,4-dihydroxyphenyl)ethylamino]-2-oxo-1-[(3-tritylimidazol-4-yl)methyl]ethyl]-4-hydroxy-benzamide
> <PUBCHEM_IUPAC_CAS_NAME>
3-amino-N-[(2R)-1-[2-(3,4-dihydroxyphenyl)ethylamino]-1-oxo-3-[3-(triphenylmethyl)-4-imidazolyl]propan-2-yl]-4-hydroxybenzamide
> <PUBCHEM_IUPAC_NAME_MARKUP>
3-amino-<I>N</I>-[(2<I>R</I>)-1-[2-(3,4-dihydroxyphenyl)ethylamino]-1-oxo-3-(3-tritylimidazol-4-yl)propan-2-yl]-4-hydroxybenzamide
> <PUBCHEM_IUPAC_NAME>
3-amino-N-[(2R)-1-[2-(3,4-dihydroxyphenyl)ethylamino]-1-oxo-3-(3-tritylimidazol-4-yl)propan-2-yl]-4-hydroxybenzamide
> <PUBCHEM_IUPAC_SYSTEMATIC_NAME>
3-azanyl-N-[(2R)-1-[2-[3,4-bis(oxidanyl)phenyl]ethylamino]-1-oxidanylidene-3-[3-(triphenylmethyl)imidazol-4-yl]propan-2-yl]-4-oxidanyl-benzamide
> <PUBCHEM_IUPAC_TRADITIONAL_NAME>
3-amino-N-[(1R)-2-[2-(3,4-dihydroxyphenyl)ethylamino]-2-keto-1-[(3-tritylimidazol-4-yl)methyl]ethyl]-4-hydroxy-benzamide
> <PUBCHEM_IUPAC_INCHI>
InChI=1S/C40H37N5O5/c41-33-23-28(17-19-35(33)46)38(49)44-34(39(50)43-21-20-27-16-18-36(47)37(48)22-27)24-32-25-42-26-45(32)40(29-10-4-1-5-11-29,30-12-6-2-7-13-30)31-14-8-3-9-15-31/h1-19,22-23,25-26,34,46-48H,20-21,24,41H2,(H,43,50)(H,44,49)/t34-/m1/s1
> <PUBCHEM_IUPAC_INCHIKEY>
ODEFFVDVKZBLMO-UUWRZZSWSA-N
> <PUBCHEM_XLOGP3_AA>
5.6
> <PUBCHEM_EXACT_MASS>
667.27946930
> <PUBCHEM_MOLECULAR_FORMULA>
C40H37N5O5
> <PUBCHEM_MOLECULAR_WEIGHT>
667.8
> <PUBCHEM_OPENEYE_CAN_SMILES>
C1=CC=C(C=C1)C(C2=CC=CC=C2)(C3=CC=CC=C3)N4C=NC=C4CC(C(=O)NCCC5=CC(=C(C=C5)O)O)NC(=O)C6=CC(=C(C=C6)O)N
> <PUBCHEM_OPENEYE_ISO_SMILES>
C1=CC=C(C=C1)C(C2=CC=CC=C2)(C3=CC=CC=C3)N4C=NC=C4C[C@H](C(=O)NCCC5=CC(=C(C=C5)O)O)NC(=O)C6=CC(=C(C=C6)O)N
> <PUBCHEM_CACTVS_TPSA>
163
> <PUBCHEM_MONOISOTOPIC_WEIGHT>
667.27946930
> <PUBCHEM_TOTAL_CHARGE>
0
> <PUBCHEM_HEAVY_ATOM_COUNT>
50
> <PUBCHEM_ATOM_DEF_STEREO_COUNT>
1
> <PUBCHEM_ATOM_UDEF_STEREO_COUNT>
0
> <PUBCHEM_BOND_DEF_STEREO_COUNT>
0
> <PUBCHEM_BOND_UDEF_STEREO_COUNT>
0
> <PUBCHEM_ISOTOPIC_ATOM_COUNT>
0
> <PUBCHEM_COMPONENT_COUNT>
1
> <PUBCHEM_CACTVS_TAUTO_COUNT>
-1
> <PUBCHEM_COORDINATE_TYPE>
1
5
255
> <PUBCHEM_BONDANNOTATIONS>
12  20  8
12  23  8
13  21  8
13  24  8
14  22  8
14  25  8
15  19  8
20  27  8
21  28  8
22  29  8
23  30  8
24  31  8
25  32  8
27  33  8
28  34  8
29  35  8
30  33  8
31  34  8
32  35  8
39  41  8
39  42  8
40  43  8
40  44  8
41  45  8
42  46  8
43  48  8
44  49  8
45  47  8
46  47  8
48  50  8
49  50  8
6  15  8
6  18  8
7  18  8
7  19  8
17  8  5
$$$$
