504775
  -OEChem-10302200282D
 83 87  0     1  0  0  0  0  0999 V2000
    6.8466    2.2861    0.0000 O   0  0  0  0  0  0  0  0  0  0  0  0
    7.7126    1.7861    0.0000 O   0  0  0  0  0  0  0  0  0  0  0  0
    5.1146   -0.7139    0.0000 O   0  0  0  0  0  0  0  0  0  0  0  0
   12.0428    3.2861    0.0000 O   0  0  0  0  0  0  0  0  0  0  0  0
   13.7748    2.2861    0.0000 O   0  0  0  0  0  0  0  0  0  0  0  0
    4.2485   -4.2139    0.0000 O   0  0  0  0  0  0  0  0  0  0  0  0
    5.9806   -5.2139    0.0000 O   0  0  0  0  0  0  0  0  0  0  0  0
    5.1146    2.2861    0.0000 N   0  0  0  0  0  0  0  0  0  0  0  0
    6.8466   -0.7139    0.0000 N   0  0  0  0  0  0  0  0  0  0  0  0
    8.5787    0.2861    0.0000 N   0  0  0  0  0  0  0  0  0  0  0  0
    4.4718    3.0521    0.0000 C   0  0  0  0  0  0  0  0  0  0  0  0
    3.8290    3.8182    0.0000 C   0  0  0  0  0  0  0  0  0  0  0  0
    3.7057    2.4093    0.0000 C   0  0  0  0  0  0  0  0  0  0  0  0
    5.2378    3.6949    0.0000 C   0  0  0  0  0  0  0  0  0  0  0  0
    5.9806    0.7861    0.0000 C   0  0  0  0  0  0  0  0  0  0  0  0
    5.9806    1.7861    0.0000 C   0  0  0  0  0  0  0  0  0  0  0  0
    6.8466    0.2861    0.0000 C   0  0  1  0  0  0  0  0  0  0  0  0
    2.8442    3.6445    0.0000 C   0  0  0  0  0  0  0  0  0  0  0  0
    3.8794    1.4245    0.0000 C   0  0  0  0  0  0  0  0  0  0  0  0
    5.0642    4.6797    0.0000 C   0  0  0  0  0  0  0  0  0  0  0  0
    4.1710    4.7579    0.0000 C   0  0  0  0  0  0  0  0  0  0  0  0
    2.7660    2.7514    0.0000 C   0  0  0  0  0  0  0  0  0  0  0  0
    6.1775    3.3529    0.0000 C   0  0  0  0  0  0  0  0  0  0  0  0
    7.7126    0.7861    0.0000 C   0  0  0  0  0  0  0  0  0  0  0  0
    2.2014    4.4106    0.0000 C   0  0  0  0  0  0  0  0  0  0  0  0
    3.1133    0.7817    0.0000 C   0  0  0  0  0  0  0  0  0  0  0  0
    5.8302    5.3225    0.0000 C   0  0  0  0  0  0  0  0  0  0  0  0
    3.5282    5.5239    0.0000 C   0  0  0  0  0  0  0  0  0  0  0  0
    2.0000    2.1086    0.0000 C   0  0  0  0  0  0  0  0  0  0  0  0
    6.9436    3.9957    0.0000 C   0  0  0  0  0  0  0  0  0  0  0  0
    2.5434    5.3503    0.0000 C   0  0  0  0  0  0  0  0  0  0  0  0
    2.1736    1.1238    0.0000 C   0  0  0  0  0  0  0  0  0  0  0  0
    6.7699    4.9805    0.0000 C   0  0  0  0  0  0  0  0  0  0  0  0
    9.4447    0.7861    0.0000 C   0  0  0  0  0  0  0  0  0  0  0  0
   10.3107    0.2861    0.0000 C   0  0  0  0  0  0  0  0  0  0  0  0
    5.9806   -1.2139    0.0000 C   0  0  0  0  0  0  0  0  0  0  0  0
   11.1767    0.7861    0.0000 C   0  0  0  0  0  0  0  0  0  0  0  0
    5.9806   -2.2139    0.0000 C   0  0  0  0  0  0  0  0  0  0  0  0
   11.1767    1.7861    0.0000 C   0  0  0  0  0  0  0  0  0  0  0  0
   12.0428    0.2861    0.0000 C   0  0  0  0  0  0  0  0  0  0  0  0
    5.1146   -2.7139    0.0000 C   0  0  0  0  0  0  0  0  0  0  0  0
    6.8466   -2.7139    0.0000 C   0  0  0  0  0  0  0  0  0  0  0  0
   12.0428    2.2861    0.0000 C   0  0  0  0  0  0  0  0  0  0  0  0
   12.9088    0.7861    0.0000 C   0  0  0  0  0  0  0  0  0  0  0  0
   12.9088    1.7861    0.0000 C   0  0  0  0  0  0  0  0  0  0  0  0
    5.1146   -3.7139    0.0000 C   0  0  0  0  0  0  0  0  0  0  0  0
    6.8466   -3.7139    0.0000 C   0  0  0  0  0  0  0  0  0  0  0  0
    5.9806   -4.2139    0.0000 C   0  0  0  0  0  0  0  0  0  0  0  0
    4.5776    1.9761    0.0000 H   0  0  0  0  0  0  0  0  0  0  0  0
    5.3700    0.8937    0.0000 H   0  0  0  0  0  0  0  0  0  0  0  0
    5.7685    0.2035    0.0000 H   0  0  0  0  0  0  0  0  0  0  0  0
    7.3836   -0.0239    0.0000 H   0  0  0  0  0  0  0  0  0  0  0  0
    2.6321    3.0619    0.0000 H   0  0  0  0  0  0  0  0  0  0  0  0
    4.4620    1.2125    0.0000 H   0  0  0  0  0  0  0  0  0  0  0  0
    4.4816    4.8918    0.0000 H   0  0  0  0  0  0  0  0  0  0  0  0
    4.7816    4.8655    0.0000 H   0  0  0  0  0  0  0  0  0  0  0  0
    2.6584    3.3619    0.0000 H   0  0  0  0  0  0  0  0  0  0  0  0
    6.2852    2.7423    0.0000 H   0  0  0  0  0  0  0  0  0  0  0  0
    1.5908    4.3029    0.0000 H   0  0  0  0  0  0  0  0  0  0  0  0
    3.2210    0.1712    0.0000 H   0  0  0  0  0  0  0  0  0  0  0  0
    5.7226    5.9331    0.0000 H   0  0  0  0  0  0  0  0  0  0  0  0
    3.7403    6.1065    0.0000 H   0  0  0  0  0  0  0  0  0  0  0  0
    1.4174    2.3206    0.0000 H   0  0  0  0  0  0  0  0  0  0  0  0
    7.5262    3.7836    0.0000 H   0  0  0  0  0  0  0  0  0  0  0  0
    7.3836   -1.0239    0.0000 H   0  0  0  0  0  0  0  0  0  0  0  0
    2.1449    5.8252    0.0000 H   0  0  0  0  0  0  0  0  0  0  0  0
    1.6987    0.7252    0.0000 H   0  0  0  0  0  0  0  0  0  0  0  0
    7.2449    5.3790    0.0000 H   0  0  0  0  0  0  0  0  0  0  0  0
    8.5787   -0.3339    0.0000 H   0  0  0  0  0  0  0  0  0  0  0  0
    9.8432    1.2610    0.0000 H   0  0  0  0  0  0  0  0  0  0  0  0
    9.0462    1.2610    0.0000 H   0  0  0  0  0  0  0  0  0  0  0  0
    9.9122   -0.1889    0.0000 H   0  0  0  0  0  0  0  0  0  0  0  0
   10.7092   -0.1889    0.0000 H   0  0  0  0  0  0  0  0  0  0  0  0
   10.6398    2.0961    0.0000 H   0  0  0  0  0  0  0  0  0  0  0  0
   12.0428   -0.3339    0.0000 H   0  0  0  0  0  0  0  0  0  0  0  0
    4.5776   -2.4039    0.0000 H   0  0  0  0  0  0  0  0  0  0  0  0
    7.3836   -2.4039    0.0000 H   0  0  0  0  0  0  0  0  0  0  0  0
   13.4457    0.4761    0.0000 H   0  0  0  0  0  0  0  0  0  0  0  0
    7.3836   -4.0239    0.0000 H   0  0  0  0  0  0  0  0  0  0  0  0
   12.5797    3.5961    0.0000 H   0  0  0  0  0  0  0  0  0  0  0  0
   14.3118    1.9761    0.0000 H   0  0  0  0  0  0  0  0  0  0  0  0
    3.7116   -3.9039    0.0000 H   0  0  0  0  0  0  0  0  0  0  0  0
    6.5175   -5.5239    0.0000 H   0  0  0  0  0  0  0  0  0  0  0  0
  1 16  2  0  0  0  0
  2 24  2  0  0  0  0
  3 36  2  0  0  0  0
  4 43  1  0  0  0  0
  4 80  1  0  0  0  0
  5 45  1  0  0  0  0
  5 81  1  0  0  0  0
  6 46  1  0  0  0  0
  6 82  1  0  0  0  0
  7 48  1  0  0  0  0
  7 83  1  0  0  0  0
  8 11  1  0  0  0  0
  8 16  1  0  0  0  0
  8 49  1  0  0  0  0
 17  9  1  1  0  0  0
  9 36  1  0  0  0  0
  9 65  1  0  0  0  0
 10 24  1  0  0  0  0
 10 34  1  0  0  0  0
 10 69  1  0  0  0  0
 11 12  1  0  0  0  0
 11 13  1  0  0  0  0
 11 14  1  0  0  0  0
 12 18  2  0  0  0  0
 12 21  1  0  0  0  0
 13 19  2  0  0  0  0
 13 22  1  0  0  0  0
 14 20  2  0  0  0  0
 14 23  1  0  0  0  0
 15 16  1  0  0  0  0
 15 17  1  0  0  0  0
 15 50  1  0  0  0  0
 15 51  1  0  0  0  0
 17 24  1  0  0  0  0
 17 52  1  0  0  0  0
 18 25  1  0  0  0  0
 18 53  1  0  0  0  0
 19 26  1  0  0  0  0
 19 54  1  0  0  0  0
 20 27  1  0  0  0  0
 20 55  1  0  0  0  0
 21 28  2  0  0  0  0
 21 56  1  0  0  0  0
 22 29  2  0  0  0  0
 22 57  1  0  0  0  0
 23 30  2  0  0  0  0
 23 58  1  0  0  0  0
 25 31  2  0  0  0  0
 25 59  1  0  0  0  0
 26 32  2  0  0  0  0
 26 60  1  0  0  0  0
 27 33  2  0  0  0  0
 27 61  1  0  0  0  0
 28 31  1  0  0  0  0
 28 62  1  0  0  0  0
 29 32  1  0  0  0  0
 29 63  1  0  0  0  0
 30 33  1  0  0  0  0
 30 64  1  0  0  0  0
 31 66  1  0  0  0  0
 32 67  1  0  0  0  0
 33 68  1  0  0  0  0
 34 35  1  0  0  0  0
 34 70  1  0  0  0  0
 34 71  1  0  0  0  0
 35 37  1  0  0  0  0
 35 72  1  0  0  0  0
 35 73  1  0  0  0  0
 36 38  1  0  0  0  0
 37 39  2  0  0  0  0
 37 40  1  0  0  0  0
 38 41  2  0  0  0  0
 38 42  1  0  0  0  0
 39 43  1  0  0  0  0
 39 74  1  0  0  0  0
 40 44  2  0  0  0  0
 40 75  1  0  0  0  0
 41 46  1  0  0  0  0
 41 76  1  0  0  0  0
 42 47  2  0  0  0  0
 42 77  1  0  0  0  0
 43 45  2  0  0  0  0
 44 45  1  0  0  0  0
 44 78  1  0  0  0  0
 46 48  2  0  0  0  0
 47 48  1  0  0  0  0
 47 79  1  0  0  0  0
M  END
> <PUBCHEM_COMPOUND_CID>
504775
> <PUBCHEM_COMPOUND_CANONICALIZED>
1
> <PUBCHEM_CACTVS_COMPLEXITY>
994
> <PUBCHEM_CACTVS_HBOND_ACCEPTOR>
7
> <PUBCHEM_CACTVS_HBOND_DONOR>
7
> <PUBCHEM_CACTVS_ROTATABLE_BOND>
12
> <PUBCHEM_CACTVS_SUBSKEYS>
AAADcfB/OAAAAAAAAAAAAAAAAAAAAAAAAAAwYMGDAAAAAAABVAAAHgAQCAAADKzBmAQwBoLAAgCIAiFSEACCAAAkIAAIiIGOjMgJZjqC1TOUcQlk1hGJmYe/3PLOoAABAAAAQABAAAIAAACAAAAAAAAAAA==
> <PUBCHEM_IUPAC_OPENEYE_NAME>
(2S)-2-[(3,4-dihydroxybenzoyl)amino]-N-[2-(3,4-dihydroxyphenyl)ethyl]-N'-trityl-butanediamide
> <PUBCHEM_IUPAC_CAS_NAME>
(2S)-N-[2-(3,4-dihydroxyphenyl)ethyl]-2-[[(3,4-dihydroxyphenyl)-oxomethyl]amino]-N'-(triphenylmethyl)butanediamide
> <PUBCHEM_IUPAC_NAME_MARKUP>
(2<I>S</I>)-2-[(3,4-dihydroxybenzoyl)amino]-<I>N</I>-[2-(3,4-dihydroxyphenyl)ethyl]-<I>N</I>&apos;-tritylbutanediamide
> <PUBCHEM_IUPAC_NAME>
(2S)-2-[(3,4-dihydroxybenzoyl)amino]-N-[2-(3,4-dihydroxyphenyl)ethyl]-N'-tritylbutanediamide
> <PUBCHEM_IUPAC_SYSTEMATIC_NAME>
(2S)-2-[[3,4-bis(oxidanyl)phenyl]carbonylamino]-N-[2-[3,4-bis(oxidanyl)phenyl]ethyl]-N'-(triphenylmethyl)butanediamide
> <PUBCHEM_IUPAC_TRADITIONAL_NAME>
(2S)-N-[2-(3,4-dihydroxyphenyl)ethyl]-2-(protocatechuoylamino)-N'-trityl-succinamide
> <PUBCHEM_IUPAC_INCHI>
InChI=1S/C38H35N3O7/c42-31-18-16-25(22-33(31)44)20-21-39-37(48)30(40-36(47)26-17-19-32(43)34(45)23-26)24-35(46)41-38(27-10-4-1-5-11-27,28-12-6-2-7-13-28)29-14-8-3-9-15-29/h1-19,22-23,30,42-45H,20-21,24H2,(H,39,48)(H,40,47)(H,41,46)/t30-/m0/s1
> <PUBCHEM_IUPAC_INCHIKEY>
MIMXPCYKQKCOCC-PMERELPUSA-N
> <PUBCHEM_XLOGP3_AA>
5
> <PUBCHEM_EXACT_MASS>
645.24750046
> <PUBCHEM_MOLECULAR_FORMULA>
C38H35N3O7
> <PUBCHEM_MOLECULAR_WEIGHT>
645.7
> <PUBCHEM_OPENEYE_CAN_SMILES>
C1=CC=C(C=C1)C(C2=CC=CC=C2)(C3=CC=CC=C3)NC(=O)CC(C(=O)NCCC4=CC(=C(C=C4)O)O)NC(=O)C5=CC(=C(C=C5)O)O
> <PUBCHEM_OPENEYE_ISO_SMILES>
C1=CC=C(C=C1)C(C2=CC=CC=C2)(C3=CC=CC=C3)NC(=O)C[C@@H](C(=O)NCCC4=CC(=C(C=C4)O)O)NC(=O)C5=CC(=C(C=C5)O)O
> <PUBCHEM_CACTVS_TPSA>
168
> <PUBCHEM_MONOISOTOPIC_WEIGHT>
645.24750046
> <PUBCHEM_TOTAL_CHARGE>
0
> <PUBCHEM_HEAVY_ATOM_COUNT>
48
> <PUBCHEM_ATOM_DEF_STEREO_COUNT>
1
> <PUBCHEM_ATOM_UDEF_STEREO_COUNT>
0
> <PUBCHEM_BOND_DEF_STEREO_COUNT>
0
> <PUBCHEM_BOND_UDEF_STEREO_COUNT>
0
> <PUBCHEM_ISOTOPIC_ATOM_COUNT>
0
> <PUBCHEM_COMPONENT_COUNT>
1
> <PUBCHEM_CACTVS_TAUTO_COUNT>
-1
> <PUBCHEM_COORDINATE_TYPE>
1
5
255
> <PUBCHEM_BONDANNOTATIONS>
12  18  8
12  21  8
13  19  8
13  22  8
14  20  8
14  23  8
18  25  8
19  26  8
20  27  8
21  28  8
22  29  8
23  30  8
25  31  8
26  32  8
27  33  8
28  31  8
29  32  8
30  33  8
37  39  8
37  40  8
38  41  8
38  42  8
39  43  8
40  44  8
41  46  8
42  47  8
43  45  8
44  45  8
46  48  8
47  48  8
17  9  5
$$$$
