504861
  -OEChem-10302200282D
 85 88  0     1  0  0  0  0  0999 V2000
    2.0000   -4.1550    0.0000 F   0  0  0  0  0  0  0  0  0  0  0  0
    8.9282   -8.1550    0.0000 F   0  0  0  0  0  0  0  0  0  0  0  0
    8.0622    3.3450    0.0000 O   0  0  0  0  0  0  0  0  0  0  0  0
   10.6603    1.8450    0.0000 O   0  0  0  0  0  0  0  0  0  0  0  0
    7.1962    0.8450    0.0000 O   0  0  0  0  0  0  0  0  0  0  0  0
    6.3301   -2.6550    0.0000 O   0  0  0  0  0  0  0  0  0  0  0  0
    8.0622   -3.6550    0.0000 O   0  0  0  0  0  0  0  0  0  0  0  0
   12.3923    7.8450    0.0000 O   0  0  0  0  0  0  0  0  0  0  0  0
   14.1244    6.8450    0.0000 O   0  0  0  0  0  0  0  0  0  0  0  0
    8.9282    0.8450    0.0000 N   0  0  0  0  0  0  0  0  0  0  0  0
    9.7942    3.3450    0.0000 N   0  0  0  0  0  0  0  0  0  0  0  0
    7.1962    3.8450    0.0000 C   0  0  0  0  0  0  0  0  0  0  0  0
    8.9282    1.8450    0.0000 C   0  0  1  0  0  0  0  0  0  0  0  0
    8.0622    2.3450    0.0000 C   0  0  0  0  0  0  0  0  0  0  0  0
    6.3301    4.3450    0.0000 C   0  0  0  0  0  0  0  0  0  0  0  0
    7.6962    4.7110    0.0000 C   0  0  0  0  0  0  0  0  0  0  0  0
    6.6962    2.9790    0.0000 C   0  0  0  0  0  0  0  0  0  0  0  0
    9.7942    2.3450    0.0000 C   0  0  0  0  0  0  0  0  0  0  0  0
   10.6603    3.8450    0.0000 C   0  0  0  0  0  0  0  0  0  0  0  0
   10.6603    4.8450    0.0000 C   0  0  0  0  0  0  0  0  0  0  0  0
    8.0622    0.3450    0.0000 C   0  0  0  0  0  0  0  0  0  0  0  0
    8.0622   -0.6550    0.0000 C   0  0  0  0  0  0  0  0  0  0  0  0
   11.5263    5.3450    0.0000 C   0  0  0  0  0  0  0  0  0  0  0  0
    7.1962   -1.1550    0.0000 C   0  0  0  0  0  0  0  0  0  0  0  0
    8.9282   -1.1550    0.0000 C   0  0  0  0  0  0  0  0  0  0  0  0
    7.1962   -2.1550    0.0000 C   0  0  0  0  0  0  0  0  0  0  0  0
   11.5263    6.3450    0.0000 C   0  0  0  0  0  0  0  0  0  0  0  0
   12.3923    4.8450    0.0000 C   0  0  0  0  0  0  0  0  0  0  0  0
    8.0622   -2.6550    0.0000 C   0  0  0  0  0  0  0  0  0  0  0  0
    8.9282   -2.1550    0.0000 C   0  0  0  0  0  0  0  0  0  0  0  0
   12.3923    6.8450    0.0000 C   0  0  0  0  0  0  0  0  0  0  0  0
   13.2583    5.3450    0.0000 C   0  0  0  0  0  0  0  0  0  0  0  0
   13.2583    6.3450    0.0000 C   0  0  0  0  0  0  0  0  0  0  0  0
    5.4641   -2.1550    0.0000 C   0  0  0  0  0  0  0  0  0  0  0  0
    8.9282   -4.1550    0.0000 C   0  0  0  0  0  0  0  0  0  0  0  0
    4.5981   -2.6550    0.0000 C   0  0  0  0  0  0  0  0  0  0  0  0
    8.9282   -5.1550    0.0000 C   0  0  0  0  0  0  0  0  0  0  0  0
    4.5981   -3.6550    0.0000 C   0  0  0  0  0  0  0  0  0  0  0  0
    3.7320   -2.1550    0.0000 C   0  0  0  0  0  0  0  0  0  0  0  0
    9.7942   -5.6550    0.0000 C   0  0  0  0  0  0  0  0  0  0  0  0
    8.0622   -5.6550    0.0000 C   0  0  0  0  0  0  0  0  0  0  0  0
    3.7320   -4.1550    0.0000 C   0  0  0  0  0  0  0  0  0  0  0  0
    2.8660   -2.6550    0.0000 C   0  0  0  0  0  0  0  0  0  0  0  0
    9.7942   -6.6550    0.0000 C   0  0  0  0  0  0  0  0  0  0  0  0
    8.0622   -6.6550    0.0000 C   0  0  0  0  0  0  0  0  0  0  0  0
    2.8660   -3.6550    0.0000 C   0  0  0  0  0  0  0  0  0  0  0  0
    8.9282   -7.1550    0.0000 C   0  0  0  0  0  0  0  0  0  0  0  0
    9.4651    1.5350    0.0000 H   0  0  0  0  0  0  0  0  0  0  0  0
    7.4516    2.4527    0.0000 H   0  0  0  0  0  0  0  0  0  0  0  0
    7.8501    1.7624    0.0000 H   0  0  0  0  0  0  0  0  0  0  0  0
    6.6401    4.8819    0.0000 H   0  0  0  0  0  0  0  0  0  0  0  0
    5.7932    4.6550    0.0000 H   0  0  0  0  0  0  0  0  0  0  0  0
    6.0201    3.8081    0.0000 H   0  0  0  0  0  0  0  0  0  0  0  0
    8.2331    4.4010    0.0000 H   0  0  0  0  0  0  0  0  0  0  0  0
    8.0062    5.2480    0.0000 H   0  0  0  0  0  0  0  0  0  0  0  0
    7.1592    5.0210    0.0000 H   0  0  0  0  0  0  0  0  0  0  0  0
    6.1592    3.2890    0.0000 H   0  0  0  0  0  0  0  0  0  0  0  0
    6.3862    2.4420    0.0000 H   0  0  0  0  0  0  0  0  0  0  0  0
    7.2331    2.6690    0.0000 H   0  0  0  0  0  0  0  0  0  0  0  0
    9.4651    0.5350    0.0000 H   0  0  0  0  0  0  0  0  0  0  0  0
   10.8723    3.2624    0.0000 H   0  0  0  0  0  0  0  0  0  0  0  0
   11.2708    3.9527    0.0000 H   0  0  0  0  0  0  0  0  0  0  0  0
    9.2573    3.6550    0.0000 H   0  0  0  0  0  0  0  0  0  0  0  0
   10.4482    5.4276    0.0000 H   0  0  0  0  0  0  0  0  0  0  0  0
   10.0497    4.7373    0.0000 H   0  0  0  0  0  0  0  0  0  0  0  0
    6.6592   -0.8450    0.0000 H   0  0  0  0  0  0  0  0  0  0  0  0
    9.4651   -0.8450    0.0000 H   0  0  0  0  0  0  0  0  0  0  0  0
   10.9893    6.6550    0.0000 H   0  0  0  0  0  0  0  0  0  0  0  0
   12.3923    4.2250    0.0000 H   0  0  0  0  0  0  0  0  0  0  0  0
    9.4651   -2.4650    0.0000 H   0  0  0  0  0  0  0  0  0  0  0  0
   13.7953    5.0350    0.0000 H   0  0  0  0  0  0  0  0  0  0  0  0
    5.8626   -1.6800    0.0000 H   0  0  0  0  0  0  0  0  0  0  0  0
    5.0656   -1.6800    0.0000 H   0  0  0  0  0  0  0  0  0  0  0  0
    9.5388   -4.2627    0.0000 H   0  0  0  0  0  0  0  0  0  0  0  0
    9.1403   -3.5724    0.0000 H   0  0  0  0  0  0  0  0  0  0  0  0
   11.8554    8.1550    0.0000 H   0  0  0  0  0  0  0  0  0  0  0  0
    5.1350   -3.9650    0.0000 H   0  0  0  0  0  0  0  0  0  0  0  0
    3.7320   -1.5350    0.0000 H   0  0  0  0  0  0  0  0  0  0  0  0
   10.3312   -5.3450    0.0000 H   0  0  0  0  0  0  0  0  0  0  0  0
    7.5252   -5.3450    0.0000 H   0  0  0  0  0  0  0  0  0  0  0  0
   14.6613    6.5350    0.0000 H   0  0  0  0  0  0  0  0  0  0  0  0
    3.7320   -4.7750    0.0000 H   0  0  0  0  0  0  0  0  0  0  0  0
    2.3291   -2.3450    0.0000 H   0  0  0  0  0  0  0  0  0  0  0  0
   10.3312   -6.9650    0.0000 H   0  0  0  0  0  0  0  0  0  0  0  0
    7.5252   -6.9650    0.0000 H   0  0  0  0  0  0  0  0  0  0  0  0
  1 46  1  0  0  0  0
  2 47  1  0  0  0  0
  3 12  1  0  0  0  0
  3 14  1  0  0  0  0
  4 18  2  0  0  0  0
  5 21  2  0  0  0  0
  6 26  1  0  0  0  0
  6 34  1  0  0  0  0
  7 29  1  0  0  0  0
  7 35  1  0  0  0  0
  8 31  1  0  0  0  0
  8 76  1  0  0  0  0
  9 33  1  0  0  0  0
  9 81  1  0  0  0  0
 13 10  1  1  0  0  0
 10 21  1  0  0  0  0
 10 60  1  0  0  0  0
 11 18  1  0  0  0  0
 11 19  1  0  0  0  0
 11 63  1  0  0  0  0
 12 15  1  0  0  0  0
 12 16  1  0  0  0  0
 12 17  1  0  0  0  0
 13 14  1  0  0  0  0
 13 18  1  0  0  0  0
 13 48  1  0  0  0  0
 14 49  1  0  0  0  0
 14 50  1  0  0  0  0
 15 51  1  0  0  0  0
 15 52  1  0  0  0  0
 15 53  1  0  0  0  0
 16 54  1  0  0  0  0
 16 55  1  0  0  0  0
 16 56  1  0  0  0  0
 17 57  1  0  0  0  0
 17 58  1  0  0  0  0
 17 59  1  0  0  0  0
 19 20  1  0  0  0  0
 19 61  1  0  0  0  0
 19 62  1  0  0  0  0
 20 23  1  0  0  0  0
 20 64  1  0  0  0  0
 20 65  1  0  0  0  0
 21 22  1  0  0  0  0
 22 24  2  0  0  0  0
 22 25  1  0  0  0  0
 23 27  2  0  0  0  0
 23 28  1  0  0  0  0
 24 26  1  0  0  0  0
 24 66  1  0  0  0  0
 25 30  2  0  0  0  0
 25 67  1  0  0  0  0
 26 29  2  0  0  0  0
 27 31  1  0  0  0  0
 27 68  1  0  0  0  0
 28 32  2  0  0  0  0
 28 69  1  0  0  0  0
 29 30  1  0  0  0  0
 30 70  1  0  0  0  0
 31 33  2  0  0  0  0
 32 33  1  0  0  0  0
 32 71  1  0  0  0  0
 34 36  1  0  0  0  0
 34 72  1  0  0  0  0
 34 73  1  0  0  0  0
 35 37  1  0  0  0  0
 35 74  1  0  0  0  0
 35 75  1  0  0  0  0
 36 38  2  0  0  0  0
 36 39  1  0  0  0  0
 37 40  2  0  0  0  0
 37 41  1  0  0  0  0
 38 42  1  0  0  0  0
 38 77  1  0  0  0  0
 39 43  2  0  0  0  0
 39 78  1  0  0  0  0
 40 44  1  0  0  0  0
 40 79  1  0  0  0  0
 41 45  2  0  0  0  0
 41 80  1  0  0  0  0
 42 46  2  0  0  0  0
 42 82  1  0  0  0  0
 43 46  1  0  0  0  0
 43 83  1  0  0  0  0
 44 47  2  0  0  0  0
 44 84  1  0  0  0  0
 45 47  1  0  0  0  0
 45 85  1  0  0  0  0
M  END
> <PUBCHEM_COMPOUND_CID>
504861
> <PUBCHEM_COMPOUND_CANONICALIZED>
1
> <PUBCHEM_CACTVS_COMPLEXITY>
952
> <PUBCHEM_CACTVS_HBOND_ACCEPTOR>
9
> <PUBCHEM_CACTVS_HBOND_DONOR>
4
> <PUBCHEM_CACTVS_ROTATABLE_BOND>
15
> <PUBCHEM_CACTVS_SUBSKEYS>
AAADcfB/OYAAAAAAAAAAAAAAAAAAAAAAAAAwYMGAAAAAAAABVAAAHwAQCAAADGzhmA4yBoLABgCIAiFSEACCCAAkIAAIiIGOjMgPZjaGtTuXeSvm9hGbuYe63LLOIAABAAAAQABAAAIAAACAAAAAAAAAAA==
> <PUBCHEM_IUPAC_OPENEYE_NAME>
N-[(1S)-1-(tert-butoxymethyl)-2-[2-(3,4-dihydroxyphenyl)ethylamino]-2-oxo-ethyl]-3,4-bis[(4-fluorophenyl)methoxy]benzamide
> <PUBCHEM_IUPAC_CAS_NAME>
N-[(2S)-1-[2-(3,4-dihydroxyphenyl)ethylamino]-3-[(2-methylpropan-2-yl)oxy]-1-oxopropan-2-yl]-3,4-bis[(4-fluorophenyl)methoxy]benzamide
> <PUBCHEM_IUPAC_NAME_MARKUP>
<I>N</I>-[(2<I>S</I>)-1-[2-(3,4-dihydroxyphenyl)ethylamino]-3-[(2-methylpropan-2-yl)oxy]-1-oxopropan-2-yl]-3,4-bis[(4-fluorophenyl)methoxy]benzamide
> <PUBCHEM_IUPAC_NAME>
N-[(2S)-1-[2-(3,4-dihydroxyphenyl)ethylamino]-3-[(2-methylpropan-2-yl)oxy]-1-oxopropan-2-yl]-3,4-bis[(4-fluorophenyl)methoxy]benzamide
> <PUBCHEM_IUPAC_SYSTEMATIC_NAME>
N-[(2S)-1-[2-[3,4-bis(oxidanyl)phenyl]ethylamino]-3-[(2-methylpropan-2-yl)oxy]-1-oxidanylidene-propan-2-yl]-3,4-bis[(4-fluorophenyl)methoxy]benzamide
> <PUBCHEM_IUPAC_TRADITIONAL_NAME>
N-[(1S)-1-(tert-butoxymethyl)-2-[2-(3,4-dihydroxyphenyl)ethylamino]-2-keto-ethyl]-3,4-bis[(4-fluorobenzyl)oxy]benzamide
> <PUBCHEM_IUPAC_INCHI>
InChI=1S/C36H38F2N2O7/c1-36(2,3)47-22-29(35(44)39-17-16-23-8-14-30(41)31(42)18-23)40-34(43)26-9-15-32(45-20-24-4-10-27(37)11-5-24)33(19-26)46-21-25-6-12-28(38)13-7-25/h4-15,18-19,29,41-42H,16-17,20-22H2,1-3H3,(H,39,44)(H,40,43)/t29-/m0/s1
> <PUBCHEM_IUPAC_INCHIKEY>
RPVAGMJXFKMQJD-LJAQVGFWSA-N
> <PUBCHEM_XLOGP3_AA>
5.8
> <PUBCHEM_EXACT_MASS>
648.26470788
> <PUBCHEM_MOLECULAR_FORMULA>
C36H38F2N2O7
> <PUBCHEM_MOLECULAR_WEIGHT>
648.7
> <PUBCHEM_OPENEYE_CAN_SMILES>
CC(C)(C)OCC(C(=O)NCCC1=CC(=C(C=C1)O)O)NC(=O)C2=CC(=C(C=C2)OCC3=CC=C(C=C3)F)OCC4=CC=C(C=C4)F
> <PUBCHEM_OPENEYE_ISO_SMILES>
CC(C)(C)OC[C@@H](C(=O)NCCC1=CC(=C(C=C1)O)O)NC(=O)C2=CC(=C(C=C2)OCC3=CC=C(C=C3)F)OCC4=CC=C(C=C4)F
> <PUBCHEM_CACTVS_TPSA>
126
> <PUBCHEM_MONOISOTOPIC_WEIGHT>
648.26470788
> <PUBCHEM_TOTAL_CHARGE>
0
> <PUBCHEM_HEAVY_ATOM_COUNT>
47
> <PUBCHEM_ATOM_DEF_STEREO_COUNT>
1
> <PUBCHEM_ATOM_UDEF_STEREO_COUNT>
0
> <PUBCHEM_BOND_DEF_STEREO_COUNT>
0
> <PUBCHEM_BOND_UDEF_STEREO_COUNT>
0
> <PUBCHEM_ISOTOPIC_ATOM_COUNT>
0
> <PUBCHEM_COMPONENT_COUNT>
1
> <PUBCHEM_CACTVS_TAUTO_COUNT>
-1
> <PUBCHEM_COORDINATE_TYPE>
1
5
255
> <PUBCHEM_BONDANNOTATIONS>
13  10  5
22  24  8
22  25  8
23  27  8
23  28  8
24  26  8
25  30  8
26  29  8
27  31  8
28  32  8
29  30  8
31  33  8
32  33  8
36  38  8
36  39  8
37  40  8
37  41  8
38  42  8
39  43  8
40  44  8
41  45  8
42  46  8
43  46  8
44  47  8
45  47  8
$$$$
