504802
  -OEChem-10302200282D
 74 76  0     1  0  0  0  0  0999 V2000
    9.7942   -1.0950    0.0000 O   0  0  0  0  0  0  0  0  0  0  0  0
    6.3301   -2.0950    0.0000 O   0  0  0  0  0  0  0  0  0  0  0  0
    4.5981    3.9050    0.0000 O   0  0  0  0  0  0  0  0  0  0  0  0
    8.9282   -3.5950    0.0000 O   0  0  0  0  0  0  0  0  0  0  0  0
    5.4641   -3.5950    0.0000 O   0  0  0  0  0  0  0  0  0  0  0  0
    6.3301    3.9050    0.0000 O   0  0  0  0  0  0  0  0  0  0  0  0
   13.2583    1.9050    0.0000 O   0  0  0  0  0  0  0  0  0  0  0  0
   13.2583    3.9050    0.0000 O   0  0  0  0  0  0  0  0  0  0  0  0
    7.1962   -6.5950    0.0000 O   0  0  0  0  0  0  0  0  0  0  0  0
    8.0622   -2.0950    0.0000 N   0  0  0  0  0  0  0  0  0  0  0  0
    8.9282    0.4050    0.0000 N   0  0  0  0  0  0  0  0  0  0  0  0
    5.4641    2.4050    0.0000 N   0  0  0  0  0  0  0  0  0  0  0  0
    7.1962   -0.5950    0.0000 C   0  0  0  0  0  0  0  0  0  0  0  0
    8.0622   -1.0950    0.0000 C   0  0  1  0  0  0  0  0  0  0  0  0
    7.1962    0.4050    0.0000 C   0  0  0  0  0  0  0  0  0  0  0  0
    6.3301    0.9050    0.0000 C   0  0  0  0  0  0  0  0  0  0  0  0
    8.9282   -0.5950    0.0000 C   0  0  0  0  0  0  0  0  0  0  0  0
    6.3301    1.9050    0.0000 C   0  0  0  0  0  0  0  0  0  0  0  0
    9.7942    0.9050    0.0000 C   0  0  0  0  0  0  0  0  0  0  0  0
    9.7942    1.9050    0.0000 C   0  0  0  0  0  0  0  0  0  0  0  0
    7.1962   -2.5950    0.0000 C   0  0  0  0  0  0  0  0  0  0  0  0
   10.6603    2.4050    0.0000 C   0  0  0  0  0  0  0  0  0  0  0  0
    7.1962   -3.5950    0.0000 C   0  0  0  0  0  0  0  0  0  0  0  0
    5.4641    3.4050    0.0000 C   0  0  0  0  0  0  0  0  0  0  0  0
   11.5263    1.9050    0.0000 C   0  0  0  0  0  0  0  0  0  0  0  0
    8.0622   -4.0950    0.0000 C   0  0  0  0  0  0  0  0  0  0  0  0
    6.3301   -4.0950    0.0000 C   0  0  0  0  0  0  0  0  0  0  0  0
   10.6603    3.4050    0.0000 C   0  0  0  0  0  0  0  0  0  0  0  0
   12.3923    2.4050    0.0000 C   0  0  0  0  0  0  0  0  0  0  0  0
   11.5263    3.9050    0.0000 C   0  0  0  0  0  0  0  0  0  0  0  0
    8.0622   -5.0950    0.0000 C   0  0  0  0  0  0  0  0  0  0  0  0
    6.3301   -5.0950    0.0000 C   0  0  0  0  0  0  0  0  0  0  0  0
   12.3923    3.4050    0.0000 C   0  0  0  0  0  0  0  0  0  0  0  0
    7.1962   -5.5950    0.0000 C   0  0  0  0  0  0  0  0  0  0  0  0
    4.5981    4.9050    0.0000 C   0  0  0  0  0  0  0  0  0  0  0  0
    3.7320    5.4050    0.0000 C   0  0  0  0  0  0  0  0  0  0  0  0
    2.8660    4.9050    0.0000 C   0  0  0  0  0  0  0  0  0  0  0  0
    3.7320    6.4050    0.0000 C   0  0  0  0  0  0  0  0  0  0  0  0
    2.0000    5.4050    0.0000 C   0  0  0  0  0  0  0  0  0  0  0  0
    2.8660    6.9050    0.0000 C   0  0  0  0  0  0  0  0  0  0  0  0
    2.0000    6.4050    0.0000 C   0  0  0  0  0  0  0  0  0  0  0  0
    6.5856   -0.4873    0.0000 H   0  0  0  0  0  0  0  0  0  0  0  0
    6.9841   -1.1776    0.0000 H   0  0  0  0  0  0  0  0  0  0  0  0
    7.5252   -1.4050    0.0000 H   0  0  0  0  0  0  0  0  0  0  0  0
    7.8067    0.2973    0.0000 H   0  0  0  0  0  0  0  0  0  0  0  0
    7.4082    0.9876    0.0000 H   0  0  0  0  0  0  0  0  0  0  0  0
    5.7196    1.0127    0.0000 H   0  0  0  0  0  0  0  0  0  0  0  0
    6.1181    0.3224    0.0000 H   0  0  0  0  0  0  0  0  0  0  0  0
    6.9407    1.7973    0.0000 H   0  0  0  0  0  0  0  0  0  0  0  0
    6.5422    2.4876    0.0000 H   0  0  0  0  0  0  0  0  0  0  0  0
    8.5991   -2.4050    0.0000 H   0  0  0  0  0  0  0  0  0  0  0  0
    8.3913    0.7150    0.0000 H   0  0  0  0  0  0  0  0  0  0  0  0
   10.0063    0.3224    0.0000 H   0  0  0  0  0  0  0  0  0  0  0  0
   10.4048    1.0127    0.0000 H   0  0  0  0  0  0  0  0  0  0  0  0
    9.5822    2.4876    0.0000 H   0  0  0  0  0  0  0  0  0  0  0  0
    9.1836    1.7973    0.0000 H   0  0  0  0  0  0  0  0  0  0  0  0
    4.9272    2.0950    0.0000 H   0  0  0  0  0  0  0  0  0  0  0  0
   11.5263    1.2850    0.0000 H   0  0  0  0  0  0  0  0  0  0  0  0
   10.1233    3.7150    0.0000 H   0  0  0  0  0  0  0  0  0  0  0  0
   11.5263    4.5250    0.0000 H   0  0  0  0  0  0  0  0  0  0  0  0
    8.5991   -5.4050    0.0000 H   0  0  0  0  0  0  0  0  0  0  0  0
    5.7932   -5.4050    0.0000 H   0  0  0  0  0  0  0  0  0  0  0  0
    5.2087    4.7973    0.0000 H   0  0  0  0  0  0  0  0  0  0  0  0
    4.8101    5.4876    0.0000 H   0  0  0  0  0  0  0  0  0  0  0  0
    9.4651   -3.9050    0.0000 H   0  0  0  0  0  0  0  0  0  0  0  0
    4.9272   -3.9050    0.0000 H   0  0  0  0  0  0  0  0  0  0  0  0
   13.7953    2.2150    0.0000 H   0  0  0  0  0  0  0  0  0  0  0  0
   13.2583    4.5250    0.0000 H   0  0  0  0  0  0  0  0  0  0  0  0
    6.6592   -6.9050    0.0000 H   0  0  0  0  0  0  0  0  0  0  0  0
    2.8660    4.2850    0.0000 H   0  0  0  0  0  0  0  0  0  0  0  0
    4.2690    6.7150    0.0000 H   0  0  0  0  0  0  0  0  0  0  0  0
    1.4631    5.0950    0.0000 H   0  0  0  0  0  0  0  0  0  0  0  0
    2.8660    7.5250    0.0000 H   0  0  0  0  0  0  0  0  0  0  0  0
    1.4631    6.7150    0.0000 H   0  0  0  0  0  0  0  0  0  0  0  0
  1 17  2  0  0  0  0
  2 21  2  0  0  0  0
  3 24  1  0  0  0  0
  3 35  1  0  0  0  0
  4 26  1  0  0  0  0
  4 65  1  0  0  0  0
  5 27  1  0  0  0  0
  5 66  1  0  0  0  0
  6 24  2  0  0  0  0
  7 29  1  0  0  0  0
  7 67  1  0  0  0  0
  8 33  1  0  0  0  0
  8 68  1  0  0  0  0
  9 34  1  0  0  0  0
  9 69  1  0  0  0  0
 14 10  1  1  0  0  0
 10 21  1  0  0  0  0
 10 51  1  0  0  0  0
 11 17  1  0  0  0  0
 11 19  1  0  0  0  0
 11 52  1  0  0  0  0
 12 18  1  0  0  0  0
 12 24  1  0  0  0  0
 12 57  1  0  0  0  0
 13 14  1  0  0  0  0
 13 15  1  0  0  0  0
 13 42  1  0  0  0  0
 13 43  1  0  0  0  0
 14 17  1  0  0  0  0
 14 44  1  0  0  0  0
 15 16  1  0  0  0  0
 15 45  1  0  0  0  0
 15 46  1  0  0  0  0
 16 18  1  0  0  0  0
 16 47  1  0  0  0  0
 16 48  1  0  0  0  0
 18 49  1  0  0  0  0
 18 50  1  0  0  0  0
 19 20  1  0  0  0  0
 19 53  1  0  0  0  0
 19 54  1  0  0  0  0
 20 22  1  0  0  0  0
 20 55  1  0  0  0  0
 20 56  1  0  0  0  0
 21 23  1  0  0  0  0
 22 25  2  0  0  0  0
 22 28  1  0  0  0  0
 23 26  2  0  0  0  0
 23 27  1  0  0  0  0
 25 29  1  0  0  0  0
 25 58  1  0  0  0  0
 26 31  1  0  0  0  0
 27 32  2  0  0  0  0
 28 30  2  0  0  0  0
 28 59  1  0  0  0  0
 29 33  2  0  0  0  0
 30 33  1  0  0  0  0
 30 60  1  0  0  0  0
 31 34  2  0  0  0  0
 31 61  1  0  0  0  0
 32 34  1  0  0  0  0
 32 62  1  0  0  0  0
 35 36  1  0  0  0  0
 35 63  1  0  0  0  0
 35 64  1  0  0  0  0
 36 37  2  0  0  0  0
 36 38  1  0  0  0  0
 37 39  1  0  0  0  0
 37 70  1  0  0  0  0
 38 40  2  0  0  0  0
 38 71  1  0  0  0  0
 39 41  2  0  0  0  0
 39 72  1  0  0  0  0
 40 41  1  0  0  0  0
 40 73  1  0  0  0  0
 41 74  1  0  0  0  0
M  END
> <PUBCHEM_COMPOUND_CID>
504802
> <PUBCHEM_COMPOUND_CANONICALIZED>
1
> <PUBCHEM_CACTVS_COMPLEXITY>
813
> <PUBCHEM_CACTVS_HBOND_ACCEPTOR>
9
> <PUBCHEM_CACTVS_HBOND_DONOR>
8
> <PUBCHEM_CACTVS_ROTATABLE_BOND>
14
> <PUBCHEM_CACTVS_SUBSKEYS>
AAADcfB7PAAAAAAAAAAAAAAAAAAAAAAAAAAwYMAAAAAAAAABUAAAHgAQCAAADCzhmAYwDoLABgCIAiFSGACCAAAkIAAIiIGOjMkJZzaCtTuccUln9hWJuQeY/LbOIAABCAAIQABAAAIQABCAAAAAAAAAAA==
> <PUBCHEM_IUPAC_OPENEYE_NAME>
benzyl N-[(5S)-6-[2-(3,4-dihydroxyphenyl)ethylamino]-6-oxo-5-[(2,4,6-trihydroxybenzoyl)amino]hexyl]carbamate
> <PUBCHEM_IUPAC_CAS_NAME>
N-[(5S)-6-[2-(3,4-dihydroxyphenyl)ethylamino]-6-oxo-5-[[oxo-(2,4,6-trihydroxyphenyl)methyl]amino]hexyl]carbamic acid (phenylmethyl) ester
> <PUBCHEM_IUPAC_NAME_MARKUP>
benzyl <I>N</I>-[(5<I>S</I>)-6-[2-(3,4-dihydroxyphenyl)ethylamino]-6-oxo-5-[(2,4,6-trihydroxybenzoyl)amino]hexyl]carbamate
> <PUBCHEM_IUPAC_NAME>
benzyl N-[(5S)-6-[2-(3,4-dihydroxyphenyl)ethylamino]-6-oxo-5-[(2,4,6-trihydroxybenzoyl)amino]hexyl]carbamate
> <PUBCHEM_IUPAC_SYSTEMATIC_NAME>
(phenylmethyl) N-[(5S)-6-[2-[3,4-bis(oxidanyl)phenyl]ethylamino]-6-oxidanylidene-5-[[2,4,6-tris(oxidanyl)phenyl]carbonylamino]hexyl]carbamate
> <PUBCHEM_IUPAC_TRADITIONAL_NAME>
N-[(5S)-6-[2-(3,4-dihydroxyphenyl)ethylamino]-6-keto-5-[(2,4,6-trihydroxybenzoyl)amino]hexyl]carbamic acid benzyl ester
> <PUBCHEM_IUPAC_INCHI>
InChI=1S/C29H33N3O9/c33-20-15-24(36)26(25(37)16-20)28(39)32-21(27(38)30-13-11-18-9-10-22(34)23(35)14-18)8-4-5-12-31-29(40)41-17-19-6-2-1-3-7-19/h1-3,6-7,9-10,14-16,21,33-37H,4-5,8,11-13,17H2,(H,30,38)(H,31,40)(H,32,39)/t21-/m0/s1
> <PUBCHEM_IUPAC_INCHIKEY>
OMDWESKUUMDBBU-NRFANRHFSA-N
> <PUBCHEM_XLOGP3_AA>
4.1
> <PUBCHEM_EXACT_MASS>
567.22167964
> <PUBCHEM_MOLECULAR_FORMULA>
C29H33N3O9
> <PUBCHEM_MOLECULAR_WEIGHT>
567.6
> <PUBCHEM_OPENEYE_CAN_SMILES>
C1=CC=C(C=C1)COC(=O)NCCCCC(C(=O)NCCC2=CC(=C(C=C2)O)O)NC(=O)C3=C(C=C(C=C3O)O)O
> <PUBCHEM_OPENEYE_ISO_SMILES>
C1=CC=C(C=C1)COC(=O)NCCCC[C@@H](C(=O)NCCC2=CC(=C(C=C2)O)O)NC(=O)C3=C(C=C(C=C3O)O)O
> <PUBCHEM_CACTVS_TPSA>
198
> <PUBCHEM_MONOISOTOPIC_WEIGHT>
567.22167964
> <PUBCHEM_TOTAL_CHARGE>
0
> <PUBCHEM_HEAVY_ATOM_COUNT>
41
> <PUBCHEM_ATOM_DEF_STEREO_COUNT>
1
> <PUBCHEM_ATOM_UDEF_STEREO_COUNT>
0
> <PUBCHEM_BOND_DEF_STEREO_COUNT>
0
> <PUBCHEM_BOND_UDEF_STEREO_COUNT>
0
> <PUBCHEM_ISOTOPIC_ATOM_COUNT>
0
> <PUBCHEM_COMPONENT_COUNT>
1
> <PUBCHEM_CACTVS_TAUTO_COUNT>
-1
> <PUBCHEM_COORDINATE_TYPE>
1
5
255
> <PUBCHEM_BONDANNOTATIONS>
14  10  5
22  25  8
22  28  8
23  26  8
23  27  8
25  29  8
26  31  8
27  32  8
28  30  8
29  33  8
30  33  8
31  34  8
32  34  8
36  37  8
36  38  8
37  39  8
38  40  8
39  41  8
40  41  8
$$$$
