504843
  -OEChem-10302200282D
 67 70  0     1  0  0  0  0  0999 V2000
    8.9962    3.3100    0.0000 O   0  0  0  0  0  0  0  0  0  0  0  0
    9.8622   -1.1900    0.0000 O   0  0  0  0  0  0  0  0  0  0  0  0
    6.3981    0.8100    0.0000 O   0  0  0  0  0  0  0  0  0  0  0  0
    8.1301   -1.1900    0.0000 O   0  0  0  0  0  0  0  0  0  0  0  0
    2.9176    0.7754    0.0000 O   0  0  0  0  0  0  0  0  0  0  0  0
    4.6660    4.8100    0.0000 O   0  0  0  0  0  0  0  0  0  0  0  0
   11.5942    0.8100    0.0000 O   0  0  0  0  0  0  0  0  0  0  0  0
    8.9962   -2.6900    0.0000 O   0  0  0  0  0  0  0  0  0  0  0  0
   13.3263    0.8100    0.0000 O   0  0  0  0  0  0  0  0  0  0  0  0
    9.8622   -4.1900    0.0000 O   0  0  0  0  0  0  0  0  0  0  0  0
    7.2641    2.3100    0.0000 N   0  0  0  0  0  0  0  0  0  0  0  0
    4.6660    1.8100    0.0000 N   0  0  0  0  0  0  0  0  0  0  0  0
    9.8622    1.8100    0.0000 N   0  0  0  0  0  0  0  0  0  0  0  0
   10.7282    2.3100    0.0000 N   0  0  0  0  0  0  0  0  0  0  0  0
    8.1301    1.8100    0.0000 C   0  0  1  0  0  0  0  0  0  0  0  0
    8.1301    0.8100    0.0000 C   0  0  0  0  0  0  0  0  0  0  0  0
    8.9962    0.3100    0.0000 C   0  0  0  0  0  0  0  0  0  0  0  0
    8.9962    2.3100    0.0000 C   0  0  0  0  0  0  0  0  0  0  0  0
    6.3981    1.8100    0.0000 C   0  0  0  0  0  0  0  0  0  0  0  0
    5.5321    2.3100    0.0000 C   0  0  0  0  0  0  0  0  0  0  0  0
    3.8000    2.3100    0.0000 C   0  0  0  0  0  0  0  0  0  0  0  0
    3.8000    3.3100    0.0000 C   0  0  0  0  0  0  0  0  0  0  0  0
    8.9962   -0.6900    0.0000 C   0  0  0  0  0  0  0  0  0  0  0  0
    5.5321    3.3100    0.0000 C   0  0  0  0  0  0  0  0  0  0  0  0
    4.6660    3.8100    0.0000 C   0  0  0  0  0  0  0  0  0  0  0  0
    2.9061    1.7753    0.0000 C   0  0  0  0  0  0  0  0  0  0  0  0
    2.9061    3.8447    0.0000 C   0  0  0  0  0  0  0  0  0  0  0  0
    2.0000    2.2892    0.0000 C   0  0  0  0  0  0  0  0  0  0  0  0
    2.0000    3.3308    0.0000 C   0  0  0  0  0  0  0  0  0  0  0  0
   11.5942    1.8100    0.0000 C   0  0  0  0  0  0  0  0  0  0  0  0
   12.4603    2.3100    0.0000 C   0  0  0  0  0  0  0  0  0  0  0  0
    9.8622   -2.1900    0.0000 C   0  0  0  0  0  0  0  0  0  0  0  0
   10.7282   -2.6900    0.0000 C   0  0  0  0  0  0  0  0  0  0  0  0
   13.3263    1.8100    0.0000 C   0  0  0  0  0  0  0  0  0  0  0  0
   12.4603    3.3100    0.0000 C   0  0  0  0  0  0  0  0  0  0  0  0
   10.7282   -3.6900    0.0000 C   0  0  0  0  0  0  0  0  0  0  0  0
   11.5942   -2.1900    0.0000 C   0  0  0  0  0  0  0  0  0  0  0  0
   14.1923    2.3100    0.0000 C   0  0  0  0  0  0  0  0  0  0  0  0
   13.3263    3.8100    0.0000 C   0  0  0  0  0  0  0  0  0  0  0  0
   14.1923    3.3100    0.0000 C   0  0  0  0  0  0  0  0  0  0  0  0
   11.5942   -4.1900    0.0000 C   0  0  0  0  0  0  0  0  0  0  0  0
   12.4603   -2.6900    0.0000 C   0  0  0  0  0  0  0  0  0  0  0  0
   12.4603   -3.6900    0.0000 C   0  0  0  0  0  0  0  0  0  0  0  0
    7.5932    1.5000    0.0000 H   0  0  0  0  0  0  0  0  0  0  0  0
    7.5196    0.9177    0.0000 H   0  0  0  0  0  0  0  0  0  0  0  0
    7.9181    0.2274    0.0000 H   0  0  0  0  0  0  0  0  0  0  0  0
    9.6067    0.2023    0.0000 H   0  0  0  0  0  0  0  0  0  0  0  0
    9.2082    0.8926    0.0000 H   0  0  0  0  0  0  0  0  0  0  0  0
    7.2641    2.9300    0.0000 H   0  0  0  0  0  0  0  0  0  0  0  0
    4.6660    1.1900    0.0000 H   0  0  0  0  0  0  0  0  0  0  0  0
    6.0690    3.6200    0.0000 H   0  0  0  0  0  0  0  0  0  0  0  0
    9.8622    1.1900    0.0000 H   0  0  0  0  0  0  0  0  0  0  0  0
    2.9132    4.4646    0.0000 H   0  0  0  0  0  0  0  0  0  0  0  0
    1.4643    1.9771    0.0000 H   0  0  0  0  0  0  0  0  0  0  0  0
    1.4643    3.6429    0.0000 H   0  0  0  0  0  0  0  0  0  0  0  0
   10.7282    2.9300    0.0000 H   0  0  0  0  0  0  0  0  0  0  0  0
    2.3843    0.4592    0.0000 H   0  0  0  0  0  0  0  0  0  0  0  0
   11.9233    3.6200    0.0000 H   0  0  0  0  0  0  0  0  0  0  0  0
   11.5942   -1.5700    0.0000 H   0  0  0  0  0  0  0  0  0  0  0  0
   14.7292    2.0000    0.0000 H   0  0  0  0  0  0  0  0  0  0  0  0
   13.3263    4.4300    0.0000 H   0  0  0  0  0  0  0  0  0  0  0  0
   14.7292    3.6200    0.0000 H   0  0  0  0  0  0  0  0  0  0  0  0
   11.5942   -4.8100    0.0000 H   0  0  0  0  0  0  0  0  0  0  0  0
   12.9972   -2.3800    0.0000 H   0  0  0  0  0  0  0  0  0  0  0  0
   12.9972   -4.0000    0.0000 H   0  0  0  0  0  0  0  0  0  0  0  0
   13.8632    0.5000    0.0000 H   0  0  0  0  0  0  0  0  0  0  0  0
    9.8622   -4.8100    0.0000 H   0  0  0  0  0  0  0  0  0  0  0  0
  1 18  2  0  0  0  0
  2 23  1  0  0  0  0
  2 32  1  0  0  0  0
  3 19  2  0  0  0  0
  4 23  2  0  0  0  0
  5 26  1  0  0  0  0
  5 57  1  0  0  0  0
  6 25  2  0  0  0  0
  7 30  2  0  0  0  0
  8 32  2  0  0  0  0
  9 34  1  0  0  0  0
  9 66  1  0  0  0  0
 10 36  1  0  0  0  0
 10 67  1  0  0  0  0
 15 11  1  6  0  0  0
 11 19  1  0  0  0  0
 11 49  1  0  0  0  0
 12 20  1  0  0  0  0
 12 21  1  0  0  0  0
 12 50  1  0  0  0  0
 13 14  1  0  0  0  0
 13 18  1  0  0  0  0
 13 52  1  0  0  0  0
 14 30  1  0  0  0  0
 14 56  1  0  0  0  0
 15 16  1  0  0  0  0
 15 18  1  0  0  0  0
 15 44  1  0  0  0  0
 16 17  1  0  0  0  0
 16 45  1  0  0  0  0
 16 46  1  0  0  0  0
 17 23  1  0  0  0  0
 17 47  1  0  0  0  0
 17 48  1  0  0  0  0
 19 20  1  0  0  0  0
 20 24  2  0  0  0  0
 21 22  2  0  0  0  0
 21 26  1  0  0  0  0
 22 25  1  0  0  0  0
 22 27  1  0  0  0  0
 24 25  1  0  0  0  0
 24 51  1  0  0  0  0
 26 28  2  0  0  0  0
 27 29  2  0  0  0  0
 27 53  1  0  0  0  0
 28 29  1  0  0  0  0
 28 54  1  0  0  0  0
 29 55  1  0  0  0  0
 30 31  1  0  0  0  0
 31 34  1  0  0  0  0
 31 35  2  0  0  0  0
 32 33  1  0  0  0  0
 33 36  1  0  0  0  0
 33 37  2  0  0  0  0
 34 38  2  0  0  0  0
 35 39  1  0  0  0  0
 35 58  1  0  0  0  0
 36 41  2  0  0  0  0
 37 42  1  0  0  0  0
 37 59  1  0  0  0  0
 38 40  1  0  0  0  0
 38 60  1  0  0  0  0
 39 40  2  0  0  0  0
 39 61  1  0  0  0  0
 40 62  1  0  0  0  0
 41 43  1  0  0  0  0
 41 63  1  0  0  0  0
 42 43  2  0  0  0  0
 42 64  1  0  0  0  0
 43 65  1  0  0  0  0
M  END
> <PUBCHEM_COMPOUND_CID>
504843
> <PUBCHEM_COMPOUND_CANONICALIZED>
1
> <PUBCHEM_CACTVS_COMPLEXITY>
1130
> <PUBCHEM_CACTVS_HBOND_ACCEPTOR>
11
> <PUBCHEM_CACTVS_HBOND_DONOR>
7
> <PUBCHEM_CACTVS_ROTATABLE_BOND>
10
> <PUBCHEM_CACTVS_SUBSKEYS>
AAADceB7vAAAAAAAAAAAAAAAAAAAAAAAAAAwYMEAAAAAAACBUAAAHgAYCAAADCzBmAQwzoLiBgCIAqXSWACCAAAlIgIaqIGPTMgKZz7StbuWcchn9hHY+ce+37COAAABAAAKEAAAAAIAABQgAAAAAAAAAA==
> <PUBCHEM_IUPAC_OPENEYE_NAME>
[(4S)-5-[2-(2-hydroxybenzoyl)hydrazino]-4-[(8-hydroxy-4-oxo-1H-quinoline-2-carbonyl)amino]-5-oxo-pentanoyl] 2-hydroxybenzoate
> <PUBCHEM_IUPAC_CAS_NAME>
2-hydroxybenzoic acid [(4S)-4-[[(8-hydroxy-4-oxo-1H-quinolin-2-yl)-oxomethyl]amino]-5-[[(2-hydroxyphenyl)-oxomethyl]hydrazo]-1,5-dioxopentyl] ester
> <PUBCHEM_IUPAC_NAME_MARKUP>
[(4<I>S</I>)-5-[2-(2-hydroxybenzoyl)hydrazinyl]-4-[(8-hydroxy-4-oxo-1<I>H</I>-quinoline-2-carbonyl)amino]-5-oxopentanoyl] 2-hydroxybenzoate
> <PUBCHEM_IUPAC_NAME>
[(4S)-5-[2-(2-hydroxybenzoyl)hydrazinyl]-4-[(8-hydroxy-4-oxo-1H-quinoline-2-carbonyl)amino]-5-oxopentanoyl] 2-hydroxybenzoate
> <PUBCHEM_IUPAC_SYSTEMATIC_NAME>
[(4S)-5-[2-(2-hydroxyphenyl)carbonylhydrazinyl]-5-oxidanylidene-4-[(8-oxidanyl-4-oxidanylidene-1H-quinolin-2-yl)carbonylamino]pentanoyl] 2-oxidanylbenzoate
> <PUBCHEM_IUPAC_TRADITIONAL_NAME>
2-hydroxybenzoic acid [(4S)-4-[(8-hydroxy-4-keto-1H-quinoline-2-carbonyl)amino]-5-keto-5-(N'-salicyloylhydrazino)pentanoyl] ester
> <PUBCHEM_IUPAC_INCHI>
InChI=1S/C29H24N4O10/c34-20-9-3-1-6-16(20)26(39)32-33-28(41)18(12-13-24(38)43-29(42)17-7-2-4-10-21(17)35)31-27(40)19-14-23(37)15-8-5-11-22(36)25(15)30-19/h1-11,14,18,34-36H,12-13H2,(H,30,37)(H,31,40)(H,32,39)(H,33,41)/t18-/m0/s1
> <PUBCHEM_IUPAC_INCHIKEY>
MIPPUQQGTOZOHL-SFHVURJKSA-N
> <PUBCHEM_XLOGP3_AA>
3.2
> <PUBCHEM_EXACT_MASS>
588.14924298
> <PUBCHEM_MOLECULAR_FORMULA>
C29H24N4O10
> <PUBCHEM_MOLECULAR_WEIGHT>
588.5
> <PUBCHEM_OPENEYE_CAN_SMILES>
C1=CC=C(C(=C1)C(=O)NNC(=O)C(CCC(=O)OC(=O)C2=CC=CC=C2O)NC(=O)C3=CC(=O)C4=C(N3)C(=CC=C4)O)O
> <PUBCHEM_OPENEYE_ISO_SMILES>
C1=CC=C(C(=C1)C(=O)NNC(=O)[C@H](CCC(=O)OC(=O)C2=CC=CC=C2O)NC(=O)C3=CC(=O)C4=C(N3)C(=CC=C4)O)O
> <PUBCHEM_CACTVS_TPSA>
221
> <PUBCHEM_MONOISOTOPIC_WEIGHT>
588.14924298
> <PUBCHEM_TOTAL_CHARGE>
0
> <PUBCHEM_HEAVY_ATOM_COUNT>
43
> <PUBCHEM_ATOM_DEF_STEREO_COUNT>
1
> <PUBCHEM_ATOM_UDEF_STEREO_COUNT>
0
> <PUBCHEM_BOND_DEF_STEREO_COUNT>
0
> <PUBCHEM_BOND_UDEF_STEREO_COUNT>
0
> <PUBCHEM_ISOTOPIC_ATOM_COUNT>
0
> <PUBCHEM_COMPONENT_COUNT>
1
> <PUBCHEM_CACTVS_TAUTO_COUNT>
-1
> <PUBCHEM_COORDINATE_TYPE>
1
5
255
> <PUBCHEM_BONDANNOTATIONS>
15  11  6
12  20  8
12  21  8
20  24  8
21  22  8
21  26  8
22  25  8
22  27  8
24  25  8
26  28  8
27  29  8
28  29  8
31  34  8
31  35  8
33  36  8
33  37  8
34  38  8
35  39  8
36  41  8
37  42  8
38  40  8
39  40  8
41  43  8
42  43  8
$$$$
