504832
  -OEChem-10302200282D
 55 57  0     1  0  0  0  0  0999 V2000
    9.8622   -1.7500    0.0000 O   0  0  0  0  0  0  0  0  0  0  0  0
    6.3981   -2.7500    0.0000 O   0  0  0  0  0  0  0  0  0  0  0  0
    2.9176   -2.7846    0.0000 O   0  0  0  0  0  0  0  0  0  0  0  0
    9.8622   -2.7500    0.0000 O   0  0  0  0  0  0  0  0  0  0  0  0
    4.6660    1.2500    0.0000 O   0  0  0  0  0  0  0  0  0  0  0  0
   11.5942    4.2500    0.0000 O   0  0  0  0  0  0  0  0  0  0  0  0
   13.3263    3.2500    0.0000 O   0  0  0  0  0  0  0  0  0  0  0  0
    7.2641   -1.2500    0.0000 N   0  0  0  0  0  0  0  0  0  0  0  0
    8.9962   -0.2500    0.0000 N   0  0  0  0  0  0  0  0  0  0  0  0
    4.6660   -1.7500    0.0000 N   0  0  0  0  0  0  0  0  0  0  0  0
    8.9962   -4.2500    0.0000 N   0  0  0  0  0  0  0  0  0  0  0  0
    8.1301   -1.7500    0.0000 C   0  0  1  0  0  0  0  0  0  0  0  0
    8.1301   -2.7500    0.0000 C   0  0  0  0  0  0  0  0  0  0  0  0
    8.9962   -1.2500    0.0000 C   0  0  0  0  0  0  0  0  0  0  0  0
    9.8622    0.2500    0.0000 C   0  0  0  0  0  0  0  0  0  0  0  0
    9.8622    1.2500    0.0000 C   0  0  0  0  0  0  0  0  0  0  0  0
    5.5321   -1.2500    0.0000 C   0  0  0  0  0  0  0  0  0  0  0  0
    6.3981   -1.7500    0.0000 C   0  0  0  0  0  0  0  0  0  0  0  0
   10.7282    1.7500    0.0000 C   0  0  0  0  0  0  0  0  0  0  0  0
    3.8000   -1.2500    0.0000 C   0  0  0  0  0  0  0  0  0  0  0  0
    3.8000   -0.2500    0.0000 C   0  0  0  0  0  0  0  0  0  0  0  0
    5.5321   -0.2500    0.0000 C   0  0  0  0  0  0  0  0  0  0  0  0
    8.9962   -3.2500    0.0000 C   0  0  0  0  0  0  0  0  0  0  0  0
    4.6660    0.2500    0.0000 C   0  0  0  0  0  0  0  0  0  0  0  0
    2.9061   -1.7847    0.0000 C   0  0  0  0  0  0  0  0  0  0  0  0
   10.7282    2.7500    0.0000 C   0  0  0  0  0  0  0  0  0  0  0  0
   11.5942    1.2500    0.0000 C   0  0  0  0  0  0  0  0  0  0  0  0
    2.9061    0.2847    0.0000 C   0  0  0  0  0  0  0  0  0  0  0  0
    2.0000   -1.2708    0.0000 C   0  0  0  0  0  0  0  0  0  0  0  0
   11.5942    3.2500    0.0000 C   0  0  0  0  0  0  0  0  0  0  0  0
    2.0000   -0.2292    0.0000 C   0  0  0  0  0  0  0  0  0  0  0  0
   12.4603    1.7500    0.0000 C   0  0  0  0  0  0  0  0  0  0  0  0
   12.4603    2.7500    0.0000 C   0  0  0  0  0  0  0  0  0  0  0  0
    7.5932   -2.0600    0.0000 H   0  0  0  0  0  0  0  0  0  0  0  0
    7.5196   -2.6423    0.0000 H   0  0  0  0  0  0  0  0  0  0  0  0
    7.9181   -3.3326    0.0000 H   0  0  0  0  0  0  0  0  0  0  0  0
   10.0742   -0.3326    0.0000 H   0  0  0  0  0  0  0  0  0  0  0  0
   10.4728    0.3577    0.0000 H   0  0  0  0  0  0  0  0  0  0  0  0
    9.6501    1.8326    0.0000 H   0  0  0  0  0  0  0  0  0  0  0  0
    9.2516    1.1423    0.0000 H   0  0  0  0  0  0  0  0  0  0  0  0
    7.2641   -0.6300    0.0000 H   0  0  0  0  0  0  0  0  0  0  0  0
    8.4592    0.0600    0.0000 H   0  0  0  0  0  0  0  0  0  0  0  0
    4.6660   -2.3700    0.0000 H   0  0  0  0  0  0  0  0  0  0  0  0
    6.0690    0.0600    0.0000 H   0  0  0  0  0  0  0  0  0  0  0  0
   10.1913    3.0600    0.0000 H   0  0  0  0  0  0  0  0  0  0  0  0
   11.5942    0.6300    0.0000 H   0  0  0  0  0  0  0  0  0  0  0  0
    2.9132    0.9046    0.0000 H   0  0  0  0  0  0  0  0  0  0  0  0
    1.4643   -1.5829    0.0000 H   0  0  0  0  0  0  0  0  0  0  0  0
    1.4643    0.0829    0.0000 H   0  0  0  0  0  0  0  0  0  0  0  0
   12.9972    1.4400    0.0000 H   0  0  0  0  0  0  0  0  0  0  0  0
    9.5331   -4.5600    0.0000 H   0  0  0  0  0  0  0  0  0  0  0  0
    8.4592   -4.5600    0.0000 H   0  0  0  0  0  0  0  0  0  0  0  0
    2.3843   -3.1008    0.0000 H   0  0  0  0  0  0  0  0  0  0  0  0
   11.0573    4.5600    0.0000 H   0  0  0  0  0  0  0  0  0  0  0  0
   13.8632    2.9400    0.0000 H   0  0  0  0  0  0  0  0  0  0  0  0
  1 14  2  0  0  0  0
  2 18  2  0  0  0  0
  3 25  1  0  0  0  0
  3 53  1  0  0  0  0
  4 23  2  0  0  0  0
  5 24  2  0  0  0  0
  6 30  1  0  0  0  0
  6 54  1  0  0  0  0
  7 33  1  0  0  0  0
  7 55  1  0  0  0  0
 12  8  1  6  0  0  0
  8 18  1  0  0  0  0
  8 41  1  0  0  0  0
  9 14  1  0  0  0  0
  9 15  1  0  0  0  0
  9 42  1  0  0  0  0
 10 17  1  0  0  0  0
 10 20  1  0  0  0  0
 10 43  1  0  0  0  0
 11 23  1  0  0  0  0
 11 51  1  0  0  0  0
 11 52  1  0  0  0  0
 12 13  1  0  0  0  0
 12 14  1  0  0  0  0
 12 34  1  0  0  0  0
 13 23  1  0  0  0  0
 13 35  1  0  0  0  0
 13 36  1  0  0  0  0
 15 16  1  0  0  0  0
 15 37  1  0  0  0  0
 15 38  1  0  0  0  0
 16 19  1  0  0  0  0
 16 39  1  0  0  0  0
 16 40  1  0  0  0  0
 17 18  1  0  0  0  0
 17 22  2  0  0  0  0
 19 26  2  0  0  0  0
 19 27  1  0  0  0  0
 20 21  2  0  0  0  0
 20 25  1  0  0  0  0
 21 24  1  0  0  0  0
 21 28  1  0  0  0  0
 22 24  1  0  0  0  0
 22 44  1  0  0  0  0
 25 29  2  0  0  0  0
 26 30  1  0  0  0  0
 26 45  1  0  0  0  0
 27 32  2  0  0  0  0
 27 46  1  0  0  0  0
 28 31  2  0  0  0  0
 28 47  1  0  0  0  0
 29 31  1  0  0  0  0
 29 48  1  0  0  0  0
 30 33  2  0  0  0  0
 31 49  1  0  0  0  0
 32 33  1  0  0  0  0
 32 50  1  0  0  0  0
M  END
> <PUBCHEM_COMPOUND_CID>
504832
> <PUBCHEM_COMPOUND_CANONICALIZED>
1
> <PUBCHEM_CACTVS_COMPLEXITY>
802
> <PUBCHEM_CACTVS_HBOND_ACCEPTOR>
8
> <PUBCHEM_CACTVS_HBOND_DONOR>
7
> <PUBCHEM_CACTVS_ROTATABLE_BOND>
8
> <PUBCHEM_CACTVS_SUBSKEYS>
AAADceB7uAAAAAAAAAAAAAAAAAAAAAAAAAAwYIAAAAAAAACBQAAAHgAQCAAADCzBmAQwxoLAAgCIAqVSUACCAAAlIgAIiIGPzMgLZjrS1bOUcYlk1hHZ2cef2LKOIAABAAACUABAAAIAAASgAAAAAAAAAA==
> <PUBCHEM_IUPAC_OPENEYE_NAME>
(2S)-N-[2-(3,4-dihydroxyphenyl)ethyl]-2-[(8-hydroxy-4-oxo-1H-quinoline-2-carbonyl)amino]butanediamide
> <PUBCHEM_IUPAC_CAS_NAME>
(2S)-N-[2-(3,4-dihydroxyphenyl)ethyl]-2-[[(8-hydroxy-4-oxo-1H-quinolin-2-yl)-oxomethyl]amino]butanediamide
> <PUBCHEM_IUPAC_NAME_MARKUP>
(2<I>S</I>)-<I>N</I>-[2-(3,4-dihydroxyphenyl)ethyl]-2-[(8-hydroxy-4-oxo-1<I>H</I>-quinoline-2-carbonyl)amino]butanediamide
> <PUBCHEM_IUPAC_NAME>
(2S)-N-[2-(3,4-dihydroxyphenyl)ethyl]-2-[(8-hydroxy-4-oxo-1H-quinoline-2-carbonyl)amino]butanediamide
> <PUBCHEM_IUPAC_SYSTEMATIC_NAME>
(2S)-N-[2-[3,4-bis(oxidanyl)phenyl]ethyl]-2-[(8-oxidanyl-4-oxidanylidene-1H-quinolin-2-yl)carbonylamino]butanediamide
> <PUBCHEM_IUPAC_TRADITIONAL_NAME>
(2S)-N-[2-(3,4-dihydroxyphenyl)ethyl]-2-[(8-hydroxy-4-keto-1H-quinoline-2-carbonyl)amino]succinamide
> <PUBCHEM_IUPAC_INCHI>
InChI=1S/C22H22N4O7/c23-19(31)10-14(21(32)24-7-6-11-4-5-15(27)18(30)8-11)26-22(33)13-9-17(29)12-2-1-3-16(28)20(12)25-13/h1-5,8-9,14,27-28,30H,6-7,10H2,(H2,23,31)(H,24,32)(H,25,29)(H,26,33)/t14-/m0/s1
> <PUBCHEM_IUPAC_INCHIKEY>
OXIVRKZLZLFMGQ-AWEZNQCLSA-N
> <PUBCHEM_XLOGP3_AA>
0.2
> <PUBCHEM_EXACT_MASS>
454.14884905
> <PUBCHEM_MOLECULAR_FORMULA>
C22H22N4O7
> <PUBCHEM_MOLECULAR_WEIGHT>
454.4
> <PUBCHEM_OPENEYE_CAN_SMILES>
C1=CC2=C(C(=C1)O)NC(=CC2=O)C(=O)NC(CC(=O)N)C(=O)NCCC3=CC(=C(C=C3)O)O
> <PUBCHEM_OPENEYE_ISO_SMILES>
C1=CC2=C(C(=C1)O)NC(=CC2=O)C(=O)N[C@@H](CC(=O)N)C(=O)NCCC3=CC(=C(C=C3)O)O
> <PUBCHEM_CACTVS_TPSA>
191
> <PUBCHEM_MONOISOTOPIC_WEIGHT>
454.14884905
> <PUBCHEM_TOTAL_CHARGE>
0
> <PUBCHEM_HEAVY_ATOM_COUNT>
33
> <PUBCHEM_ATOM_DEF_STEREO_COUNT>
1
> <PUBCHEM_ATOM_UDEF_STEREO_COUNT>
0
> <PUBCHEM_BOND_DEF_STEREO_COUNT>
0
> <PUBCHEM_BOND_UDEF_STEREO_COUNT>
0
> <PUBCHEM_ISOTOPIC_ATOM_COUNT>
0
> <PUBCHEM_COMPONENT_COUNT>
1
> <PUBCHEM_CACTVS_TAUTO_COUNT>
-1
> <PUBCHEM_COORDINATE_TYPE>
1
5
255
> <PUBCHEM_BONDANNOTATIONS>
10  17  8
10  20  8
17  22  8
19  26  8
19  27  8
20  21  8
20  25  8
21  24  8
21  28  8
22  24  8
25  29  8
26  30  8
27  32  8
28  31  8
29  31  8
30  33  8
32  33  8
12  8  6
$$$$
