504842
  -OEChem-10302200282D
 62 66  0     1  0  0  0  0  0999 V2000
    9.8622   -0.6151    0.0000 O   0  0  0  0  0  0  0  0  0  0  0  0
    6.3981   -1.6151    0.0000 O   0  0  0  0  0  0  0  0  0  0  0  0
    2.9176   -1.6497    0.0000 O   0  0  0  0  0  0  0  0  0  0  0  0
    4.6660    2.3849    0.0000 O   0  0  0  0  0  0  0  0  0  0  0  0
    8.9962    2.8849    0.0000 O   0  0  0  0  0  0  0  0  0  0  0  0
    9.8622    4.3849    0.0000 O   0  0  0  0  0  0  0  0  0  0  0  0
    7.2641   -0.1151    0.0000 N   0  0  0  0  0  0  0  0  0  0  0  0
   10.5710   -2.4470    0.0000 N   0  0  0  0  0  0  0  0  0  0  0  0
    8.9962    0.8849    0.0000 N   0  0  0  0  0  0  0  0  0  0  0  0
    4.6660   -0.6151    0.0000 N   0  0  0  0  0  0  0  0  0  0  0  0
    9.8622    1.3849    0.0000 N   0  0  0  0  0  0  0  0  0  0  0  0
    8.1301   -1.6151    0.0000 C   0  0  0  0  0  0  0  0  0  0  0  0
    8.1301   -0.6151    0.0000 C   0  0  1  0  0  0  0  0  0  0  0  0
    8.9962   -2.1151    0.0000 C   0  0  0  0  0  0  0  0  0  0  0  0
    9.0992   -3.1038    0.0000 C   0  0  0  0  0  0  0  0  0  0  0  0
   10.0777   -3.3101    0.0000 C   0  0  0  0  0  0  0  0  0  0  0  0
    9.9040   -1.7100    0.0000 C   0  0  0  0  0  0  0  0  0  0  0  0
    8.9962   -0.1151    0.0000 C   0  0  0  0  0  0  0  0  0  0  0  0
    8.4314   -3.8481    0.0000 C   0  0  0  0  0  0  0  0  0  0  0  0
   10.3884   -4.2606    0.0000 C   0  0  0  0  0  0  0  0  0  0  0  0
    6.3981   -0.6151    0.0000 C   0  0  0  0  0  0  0  0  0  0  0  0
    5.5321   -0.1151    0.0000 C   0  0  0  0  0  0  0  0  0  0  0  0
    8.7420   -4.7987    0.0000 C   0  0  0  0  0  0  0  0  0  0  0  0
    9.7205   -5.0049    0.0000 C   0  0  0  0  0  0  0  0  0  0  0  0
    3.8000   -0.1151    0.0000 C   0  0  0  0  0  0  0  0  0  0  0  0
    3.8000    0.8849    0.0000 C   0  0  0  0  0  0  0  0  0  0  0  0
    5.5321    0.8849    0.0000 C   0  0  0  0  0  0  0  0  0  0  0  0
    4.6660    1.3849    0.0000 C   0  0  0  0  0  0  0  0  0  0  0  0
    2.9061   -0.6498    0.0000 C   0  0  0  0  0  0  0  0  0  0  0  0
    2.9061    1.4195    0.0000 C   0  0  0  0  0  0  0  0  0  0  0  0
    2.0000   -0.1359    0.0000 C   0  0  0  0  0  0  0  0  0  0  0  0
    2.0000    0.9057    0.0000 C   0  0  0  0  0  0  0  0  0  0  0  0
    9.8622    2.3849    0.0000 C   0  0  0  0  0  0  0  0  0  0  0  0
   10.7282    2.8849    0.0000 C   0  0  0  0  0  0  0  0  0  0  0  0
   10.7282    3.8849    0.0000 C   0  0  0  0  0  0  0  0  0  0  0  0
   11.5942    2.3849    0.0000 C   0  0  0  0  0  0  0  0  0  0  0  0
   11.5942    4.3849    0.0000 C   0  0  0  0  0  0  0  0  0  0  0  0
   12.4603    2.8849    0.0000 C   0  0  0  0  0  0  0  0  0  0  0  0
   12.4603    3.8849    0.0000 C   0  0  0  0  0  0  0  0  0  0  0  0
    7.5196   -1.5075    0.0000 H   0  0  0  0  0  0  0  0  0  0  0  0
    7.9181   -2.1977    0.0000 H   0  0  0  0  0  0  0  0  0  0  0  0
    7.5932   -0.9251    0.0000 H   0  0  0  0  0  0  0  0  0  0  0  0
   10.0318   -1.1033    0.0000 H   0  0  0  0  0  0  0  0  0  0  0  0
    7.2641    0.5049    0.0000 H   0  0  0  0  0  0  0  0  0  0  0  0
   11.1874   -2.3801    0.0000 H   0  0  0  0  0  0  0  0  0  0  0  0
    7.8247   -3.7203    0.0000 H   0  0  0  0  0  0  0  0  0  0  0  0
   10.9951   -4.3884    0.0000 H   0  0  0  0  0  0  0  0  0  0  0  0
    8.3280   -5.2601    0.0000 H   0  0  0  0  0  0  0  0  0  0  0  0
    9.9132   -5.5942    0.0000 H   0  0  0  0  0  0  0  0  0  0  0  0
    8.4592    1.1949    0.0000 H   0  0  0  0  0  0  0  0  0  0  0  0
    4.6660   -1.2351    0.0000 H   0  0  0  0  0  0  0  0  0  0  0  0
    6.0690    1.1949    0.0000 H   0  0  0  0  0  0  0  0  0  0  0  0
    2.9132    2.0395    0.0000 H   0  0  0  0  0  0  0  0  0  0  0  0
   10.3991    1.0749    0.0000 H   0  0  0  0  0  0  0  0  0  0  0  0
    1.4643   -0.4480    0.0000 H   0  0  0  0  0  0  0  0  0  0  0  0
    1.4643    1.2178    0.0000 H   0  0  0  0  0  0  0  0  0  0  0  0
    2.3843   -1.9659    0.0000 H   0  0  0  0  0  0  0  0  0  0  0  0
   11.5942    1.7649    0.0000 H   0  0  0  0  0  0  0  0  0  0  0  0
   11.5942    5.0049    0.0000 H   0  0  0  0  0  0  0  0  0  0  0  0
   12.9972    2.5749    0.0000 H   0  0  0  0  0  0  0  0  0  0  0  0
   12.9972    4.1949    0.0000 H   0  0  0  0  0  0  0  0  0  0  0  0
    9.8622    5.0049    0.0000 H   0  0  0  0  0  0  0  0  0  0  0  0
  1 18  2  0  0  0  0
  2 21  2  0  0  0  0
  3 29  1  0  0  0  0
  3 57  1  0  0  0  0
  4 28  2  0  0  0  0
  5 33  2  0  0  0  0
  6 35  1  0  0  0  0
  6 62  1  0  0  0  0
 13  7  1  6  0  0  0
  7 21  1  0  0  0  0
  7 44  1  0  0  0  0
  8 16  1  0  0  0  0
  8 17  1  0  0  0  0
  8 45  1  0  0  0  0
  9 11  1  0  0  0  0
  9 18  1  0  0  0  0
  9 50  1  0  0  0  0
 10 22  1  0  0  0  0
 10 25  1  0  0  0  0
 10 51  1  0  0  0  0
 11 33  1  0  0  0  0
 11 54  1  0  0  0  0
 12 13  1  0  0  0  0
 12 14  1  0  0  0  0
 12 40  1  0  0  0  0
 12 41  1  0  0  0  0
 13 18  1  0  0  0  0
 13 42  1  0  0  0  0
 14 15  1  0  0  0  0
 14 17  2  0  0  0  0
 15 16  1  0  0  0  0
 15 19  2  0  0  0  0
 16 20  2  0  0  0  0
 17 43  1  0  0  0  0
 19 23  1  0  0  0  0
 19 46  1  0  0  0  0
 20 24  1  0  0  0  0
 20 47  1  0  0  0  0
 21 22  1  0  0  0  0
 22 27  2  0  0  0  0
 23 24  2  0  0  0  0
 23 48  1  0  0  0  0
 24 49  1  0  0  0  0
 25 26  2  0  0  0  0
 25 29  1  0  0  0  0
 26 28  1  0  0  0  0
 26 30  1  0  0  0  0
 27 28  1  0  0  0  0
 27 52  1  0  0  0  0
 29 31  2  0  0  0  0
 30 32  2  0  0  0  0
 30 53  1  0  0  0  0
 31 32  1  0  0  0  0
 31 55  1  0  0  0  0
 32 56  1  0  0  0  0
 33 34  1  0  0  0  0
 34 35  1  0  0  0  0
 34 36  2  0  0  0  0
 35 37  2  0  0  0  0
 36 38  1  0  0  0  0
 36 58  1  0  0  0  0
 37 39  1  0  0  0  0
 37 59  1  0  0  0  0
 38 39  2  0  0  0  0
 38 60  1  0  0  0  0
 39 61  1  0  0  0  0
M  END
> <PUBCHEM_COMPOUND_CID>
504842
> <PUBCHEM_COMPOUND_CANONICALIZED>
1
> <PUBCHEM_CACTVS_COMPLEXITY>
988
> <PUBCHEM_CACTVS_HBOND_ACCEPTOR>
7
> <PUBCHEM_CACTVS_HBOND_DONOR>
7
> <PUBCHEM_CACTVS_ROTATABLE_BOND>
6
> <PUBCHEM_CACTVS_SUBSKEYS>
AAADceB7uAAAAAAAAAAAAAAAAAAAAWAAAAAwYMEAAAAAAFiB9AAAHgAYCAAADCzBngQ8xvLrkgCoA7V3VACCgCA1IiIa+aG/bNgKZv7SlbOUcchm9hHY2ceayfCOgAABAAAKEAAAAAIAABQgAAAAAAAAAA==
> <PUBCHEM_IUPAC_OPENEYE_NAME>
8-hydroxy-N-[(1S)-2-[2-(2-hydroxybenzoyl)hydrazino]-1-(1H-indol-3-ylmethyl)-2-oxo-ethyl]-4-oxo-1H-quinoline-2-carboxamide
> <PUBCHEM_IUPAC_CAS_NAME>
8-hydroxy-N-[(2S)-1-[[(2-hydroxyphenyl)-oxomethyl]hydrazo]-3-(1H-indol-3-yl)-1-oxopropan-2-yl]-4-oxo-1H-quinoline-2-carboxamide
> <PUBCHEM_IUPAC_NAME_MARKUP>
8-hydroxy-<I>N</I>-[(2<I>S</I>)-1-[2-(2-hydroxybenzoyl)hydrazinyl]-3-(1<I>H</I>-indol-3-yl)-1-oxopropan-2-yl]-4-oxo-1<I>H</I>-quinoline-2-carboxamide
> <PUBCHEM_IUPAC_NAME>
8-hydroxy-N-[(2S)-1-[2-(2-hydroxybenzoyl)hydrazinyl]-3-(1H-indol-3-yl)-1-oxopropan-2-yl]-4-oxo-1H-quinoline-2-carboxamide
> <PUBCHEM_IUPAC_SYSTEMATIC_NAME>
N-[(2S)-1-[2-(2-hydroxyphenyl)carbonylhydrazinyl]-3-(1H-indol-3-yl)-1-oxidanylidene-propan-2-yl]-8-oxidanyl-4-oxidanylidene-1H-quinoline-2-carboxamide
> <PUBCHEM_IUPAC_TRADITIONAL_NAME>
8-hydroxy-N-[(1S)-1-(1H-indol-3-ylmethyl)-2-keto-2-(N'-salicyloylhydrazino)ethyl]-4-keto-1H-quinoline-2-carboxamide
> <PUBCHEM_IUPAC_INCHI>
InChI=1S/C28H23N5O6/c34-22-10-4-2-7-18(22)26(37)32-33-28(39)20(12-15-14-29-19-9-3-1-6-16(15)19)31-27(38)21-13-24(36)17-8-5-11-23(35)25(17)30-21/h1-11,13-14,20,29,34-35H,12H2,(H,30,36)(H,31,38)(H,32,37)(H,33,39)/t20-/m0/s1
> <PUBCHEM_IUPAC_INCHIKEY>
QCCOYYHMUHNNLY-FQEVSTJZSA-N
> <PUBCHEM_XLOGP3_AA>
3.5
> <PUBCHEM_EXACT_MASS>
525.16483347
> <PUBCHEM_MOLECULAR_FORMULA>
C28H23N5O6
> <PUBCHEM_MOLECULAR_WEIGHT>
525.5
> <PUBCHEM_OPENEYE_CAN_SMILES>
C1=CC=C2C(=C1)C(=CN2)CC(C(=O)NNC(=O)C3=CC=CC=C3O)NC(=O)C4=CC(=O)C5=C(N4)C(=CC=C5)O
> <PUBCHEM_OPENEYE_ISO_SMILES>
C1=CC=C2C(=C1)C(=CN2)C[C@@H](C(=O)NNC(=O)C3=CC=CC=C3O)NC(=O)C4=CC(=O)C5=C(N4)C(=CC=C5)O
> <PUBCHEM_CACTVS_TPSA>
173
> <PUBCHEM_MONOISOTOPIC_WEIGHT>
525.16483347
> <PUBCHEM_TOTAL_CHARGE>
0
> <PUBCHEM_HEAVY_ATOM_COUNT>
39
> <PUBCHEM_ATOM_DEF_STEREO_COUNT>
1
> <PUBCHEM_ATOM_UDEF_STEREO_COUNT>
0
> <PUBCHEM_BOND_DEF_STEREO_COUNT>
0
> <PUBCHEM_BOND_UDEF_STEREO_COUNT>
0
> <PUBCHEM_ISOTOPIC_ATOM_COUNT>
0
> <PUBCHEM_COMPONENT_COUNT>
1
> <PUBCHEM_CACTVS_TAUTO_COUNT>
-1
> <PUBCHEM_COORDINATE_TYPE>
1
5
255
> <PUBCHEM_BONDANNOTATIONS>
10  22  8
10  25  8
14  15  8
14  17  8
15  16  8
15  19  8
16  20  8
19  23  8
20  24  8
22  27  8
23  24  8
25  26  8
25  29  8
26  28  8
26  30  8
27  28  8
29  31  8
30  32  8
31  32  8
34  35  8
34  36  8
35  37  8
36  38  8
37  39  8
38  39  8
13  7  6
8  16  8
8  17  8
$$$$
