504831
  -OEChem-10302200282D
 83 87  0     1  0  0  0  0  0999 V2000
    6.0010    1.4003    0.0000 O   0  0  0  0  0  0  0  0  0  0  0  0
    9.4651    2.4003    0.0000 O   0  0  0  0  0  0  0  0  0  0  0  0
    9.4651   -3.5997    0.0000 O   0  0  0  0  0  0  0  0  0  0  0  0
    6.8671    5.9003    0.0000 O   0  0  0  0  0  0  0  0  0  0  0  0
   10.3475    6.9349    0.0000 O   0  0  0  0  0  0  0  0  0  0  0  0
   13.7953   -3.0997    0.0000 O   0  0  0  0  0  0  0  0  0  0  0  0
   12.9510   -6.6311    0.0000 O   0  0  0  0  0  0  0  0  0  0  0  0
    2.5369   -1.5997    0.0000 O   0  0  0  0  0  0  0  0  0  0  0  0
    2.5369   -3.5997    0.0000 O   0  0  0  0  0  0  0  0  0  0  0  0
    7.7331    2.4003    0.0000 N   0  0  0  0  0  0  0  0  0  0  0  0
    6.8671   -0.0997    0.0000 N   0  0  0  0  0  0  0  0  0  0  0  0
   10.3312   -2.0997    0.0000 N   0  0  0  0  0  0  0  0  0  0  0  0
    8.5991    0.9003    0.0000 C   0  0  0  0  0  0  0  0  0  0  0  0
    7.7331    1.4003    0.0000 C   0  0  1  0  0  0  0  0  0  0  0  0
    8.5991   -0.0997    0.0000 C   0  0  0  0  0  0  0  0  0  0  0  0
    9.4651   -0.5997    0.0000 C   0  0  0  0  0  0  0  0  0  0  0  0
    9.4651   -1.5997    0.0000 C   0  0  0  0  0  0  0  0  0  0  0  0
    6.8671    0.9003    0.0000 C   0  0  0  0  0  0  0  0  0  0  0  0
    8.5991    2.9003    0.0000 C   0  0  0  0  0  0  0  0  0  0  0  0
    6.0010   -0.5997    0.0000 C   0  0  0  0  0  0  0  0  0  0  0  0
    8.5991    3.9003    0.0000 C   0  0  0  0  0  0  0  0  0  0  0  0
    6.0010   -1.5997    0.0000 C   0  0  0  0  0  0  0  0  0  0  0  0
    9.4651    4.4003    0.0000 C   0  0  0  0  0  0  0  0  0  0  0  0
   10.3312   -3.0997    0.0000 C   0  0  0  0  0  0  0  0  0  0  0  0
    9.4651    5.4003    0.0000 C   0  0  0  0  0  0  0  0  0  0  0  0
   11.1972   -3.5997    0.0000 C   0  0  0  0  0  0  0  0  0  0  0  0
    5.1350   -2.0997    0.0000 C   0  0  0  0  0  0  0  0  0  0  0  0
    7.7331    4.4003    0.0000 C   0  0  0  0  0  0  0  0  0  0  0  0
   11.1972   -4.5997    0.0000 C   0  0  0  0  0  0  0  0  0  0  0  0
    8.5991    5.9003    0.0000 C   0  0  0  0  0  0  0  0  0  0  0  0
   10.3591    3.8657    0.0000 C   0  0  0  0  0  0  0  0  0  0  0  0
    7.7331    5.4003    0.0000 C   0  0  0  0  0  0  0  0  0  0  0  0
   12.0632   -5.0997    0.0000 C   0  0  0  0  0  0  0  0  0  0  0  0
   10.3591    5.9350    0.0000 C   0  0  0  0  0  0  0  0  0  0  0  0
   12.0632   -3.0997    0.0000 C   0  0  0  0  0  0  0  0  0  0  0  0
    4.2690   -1.5997    0.0000 C   0  0  0  0  0  0  0  0  0  0  0  0
    5.1350   -3.0997    0.0000 C   0  0  0  0  0  0  0  0  0  0  0  0
   12.9292   -4.5997    0.0000 C   0  0  0  0  0  0  0  0  0  0  0  0
   10.2872   -5.1065    0.0000 C   0  0  0  0  0  0  0  0  0  0  0  0
   11.2651    4.3795    0.0000 C   0  0  0  0  0  0  0  0  0  0  0  0
   12.9292   -3.5997    0.0000 C   0  0  0  0  0  0  0  0  0  0  0  0
   11.2651    5.4211    0.0000 C   0  0  0  0  0  0  0  0  0  0  0  0
   12.0793   -6.1412    0.0000 C   0  0  0  0  0  0  0  0  0  0  0  0
    3.4030   -2.0997    0.0000 C   0  0  0  0  0  0  0  0  0  0  0  0
   10.2792   -6.1481    0.0000 C   0  0  0  0  0  0  0  0  0  0  0  0
    4.2690   -3.5997    0.0000 C   0  0  0  0  0  0  0  0  0  0  0  0
   11.1812   -6.6689    0.0000 C   0  0  0  0  0  0  0  0  0  0  0  0
    3.4030   -3.0997    0.0000 C   0  0  0  0  0  0  0  0  0  0  0  0
    9.2097    0.7927    0.0000 H   0  0  0  0  0  0  0  0  0  0  0  0
    8.8112    1.4829    0.0000 H   0  0  0  0  0  0  0  0  0  0  0  0
    8.2700    1.7103    0.0000 H   0  0  0  0  0  0  0  0  0  0  0  0
    7.9885    0.0080    0.0000 H   0  0  0  0  0  0  0  0  0  0  0  0
    8.3871   -0.6823    0.0000 H   0  0  0  0  0  0  0  0  0  0  0  0
   10.0757   -0.7073    0.0000 H   0  0  0  0  0  0  0  0  0  0  0  0
    9.6772   -0.0171    0.0000 H   0  0  0  0  0  0  0  0  0  0  0  0
    8.8546   -1.4920    0.0000 H   0  0  0  0  0  0  0  0  0  0  0  0
    9.2531   -2.1823    0.0000 H   0  0  0  0  0  0  0  0  0  0  0  0
    7.1962    2.7103    0.0000 H   0  0  0  0  0  0  0  0  0  0  0  0
    7.4040   -0.4097    0.0000 H   0  0  0  0  0  0  0  0  0  0  0  0
    5.7890   -0.0171    0.0000 H   0  0  0  0  0  0  0  0  0  0  0  0
    5.3905   -0.7073    0.0000 H   0  0  0  0  0  0  0  0  0  0  0  0
   10.8681   -1.7897    0.0000 H   0  0  0  0  0  0  0  0  0  0  0  0
    6.2131   -2.1823    0.0000 H   0  0  0  0  0  0  0  0  0  0  0  0
    6.6116   -1.4920    0.0000 H   0  0  0  0  0  0  0  0  0  0  0  0
    7.1962    4.0903    0.0000 H   0  0  0  0  0  0  0  0  0  0  0  0
    8.5991    6.5203    0.0000 H   0  0  0  0  0  0  0  0  0  0  0  0
   10.3519    3.2457    0.0000 H   0  0  0  0  0  0  0  0  0  0  0  0
   12.0632   -2.4797    0.0000 H   0  0  0  0  0  0  0  0  0  0  0  0
    4.2690   -0.9797    0.0000 H   0  0  0  0  0  0  0  0  0  0  0  0
    5.6720   -3.4097    0.0000 H   0  0  0  0  0  0  0  0  0  0  0  0
   13.4662   -4.9097    0.0000 H   0  0  0  0  0  0  0  0  0  0  0  0
    9.7539   -4.7903    0.0000 H   0  0  0  0  0  0  0  0  0  0  0  0
   11.8009    4.0674    0.0000 H   0  0  0  0  0  0  0  0  0  0  0  0
   11.8009    5.7332    0.0000 H   0  0  0  0  0  0  0  0  0  0  0  0
    9.7410   -6.4561    0.0000 H   0  0  0  0  0  0  0  0  0  0  0  0
    4.2690   -4.2197    0.0000 H   0  0  0  0  0  0  0  0  0  0  0  0
   11.1836   -7.2889    0.0000 H   0  0  0  0  0  0  0  0  0  0  0  0
    6.3301    5.5903    0.0000 H   0  0  0  0  0  0  0  0  0  0  0  0
   10.8808    7.2511    0.0000 H   0  0  0  0  0  0  0  0  0  0  0  0
   14.3322   -3.4097    0.0000 H   0  0  0  0  0  0  0  0  0  0  0  0
   12.9582   -7.2511    0.0000 H   0  0  0  0  0  0  0  0  0  0  0  0
    2.0000   -1.9097    0.0000 H   0  0  0  0  0  0  0  0  0  0  0  0
    2.5369   -4.2197    0.0000 H   0  0  0  0  0  0  0  0  0  0  0  0
  1 18  2  0  0  0  0
  2 19  2  0  0  0  0
  3 24  2  0  0  0  0
  4 32  1  0  0  0  0
  4 78  1  0  0  0  0
  5 34  1  0  0  0  0
  5 79  1  0  0  0  0
  6 41  1  0  0  0  0
  6 80  1  0  0  0  0
  7 43  1  0  0  0  0
  7 81  1  0  0  0  0
  8 44  1  0  0  0  0
  8 82  1  0  0  0  0
  9 48  1  0  0  0  0
  9 83  1  0  0  0  0
 14 10  1  1  0  0  0
 10 19  1  0  0  0  0
 10 58  1  0  0  0  0
 11 18  1  0  0  0  0
 11 20  1  0  0  0  0
 11 59  1  0  0  0  0
 12 17  1  0  0  0  0
 12 24  1  0  0  0  0
 12 62  1  0  0  0  0
 13 14  1  0  0  0  0
 13 15  1  0  0  0  0
 13 49  1  0  0  0  0
 13 50  1  0  0  0  0
 14 18  1  0  0  0  0
 14 51  1  0  0  0  0
 15 16  1  0  0  0  0
 15 52  1  0  0  0  0
 15 53  1  0  0  0  0
 16 17  1  0  0  0  0
 16 54  1  0  0  0  0
 16 55  1  0  0  0  0
 17 56  1  0  0  0  0
 17 57  1  0  0  0  0
 19 21  1  0  0  0  0
 20 22  1  0  0  0  0
 20 60  1  0  0  0  0
 20 61  1  0  0  0  0
 21 23  1  0  0  0  0
 21 28  2  0  0  0  0
 22 27  1  0  0  0  0
 22 63  1  0  0  0  0
 22 64  1  0  0  0  0
 23 25  2  0  0  0  0
 23 31  1  0  0  0  0
 24 26  1  0  0  0  0
 25 30  1  0  0  0  0
 25 34  1  0  0  0  0
 26 29  1  0  0  0  0
 26 35  2  0  0  0  0
 27 36  2  0  0  0  0
 27 37  1  0  0  0  0
 28 32  1  0  0  0  0
 28 65  1  0  0  0  0
 29 33  2  0  0  0  0
 29 39  1  0  0  0  0
 30 32  2  0  0  0  0
 30 66  1  0  0  0  0
 31 40  2  0  0  0  0
 31 67  1  0  0  0  0
 33 38  1  0  0  0  0
 33 43  1  0  0  0  0
 34 42  2  0  0  0  0
 35 41  1  0  0  0  0
 35 68  1  0  0  0  0
 36 44  1  0  0  0  0
 36 69  1  0  0  0  0
 37 46  2  0  0  0  0
 37 70  1  0  0  0  0
 38 41  2  0  0  0  0
 38 71  1  0  0  0  0
 39 45  2  0  0  0  0
 39 72  1  0  0  0  0
 40 42  1  0  0  0  0
 40 73  1  0  0  0  0
 42 74  1  0  0  0  0
 43 47  2  0  0  0  0
 44 48  2  0  0  0  0
 45 47  1  0  0  0  0
 45 75  1  0  0  0  0
 46 48  1  0  0  0  0
 46 76  1  0  0  0  0
 47 77  1  0  0  0  0
M  END
> <PUBCHEM_COMPOUND_CID>
504831
> <PUBCHEM_COMPOUND_CANONICALIZED>
1
> <PUBCHEM_CACTVS_COMPLEXITY>
1080
> <PUBCHEM_CACTVS_HBOND_ACCEPTOR>
9
> <PUBCHEM_CACTVS_HBOND_DONOR>
9
> <PUBCHEM_CACTVS_ROTATABLE_BOND>
12
> <PUBCHEM_CACTVS_SUBSKEYS>
AAADcfB/PAAAAAAAAAAAAAAAAAAAAAAAAAAwYMGDAAAAAADBVAAAHgAQCAAADCzBmAQwBsLAAgCIAiFSEACCAAAkIAAIiIGOjMgJZjKClTOUcQlk1hGJmYf63PLOoAADAAAYQABAAAYAADCAAAAAAAAAAA==
> <PUBCHEM_IUPAC_OPENEYE_NAME>
N-[(5S)-5-[(3,5-dihydroxynaphthalene-1-carbonyl)amino]-6-[2-(3,4-dihydroxyphenyl)ethylamino]-6-oxo-hexyl]-3,5-dihydroxy-naphthalene-1-carboxamide
> <PUBCHEM_IUPAC_CAS_NAME>
N-[(5S)-5-[[(3,5-dihydroxy-1-naphthalenyl)-oxomethyl]amino]-6-[2-(3,4-dihydroxyphenyl)ethylamino]-6-oxohexyl]-3,5-dihydroxy-1-naphthalenecarboxamide
> <PUBCHEM_IUPAC_NAME_MARKUP>
<I>N</I>-[(5<I>S</I>)-5-[(3,5-dihydroxynaphthalene-1-carbonyl)amino]-6-[2-(3,4-dihydroxyphenyl)ethylamino]-6-oxohexyl]-3,5-dihydroxynaphthalene-1-carboxamide
> <PUBCHEM_IUPAC_NAME>
N-[(5S)-5-[(3,5-dihydroxynaphthalene-1-carbonyl)amino]-6-[2-(3,4-dihydroxyphenyl)ethylamino]-6-oxohexyl]-3,5-dihydroxynaphthalene-1-carboxamide
> <PUBCHEM_IUPAC_SYSTEMATIC_NAME>
N-[(5S)-5-[[3,5-bis(oxidanyl)naphthalen-1-yl]carbonylamino]-6-[2-[3,4-bis(oxidanyl)phenyl]ethylamino]-6-oxidanylidene-hexyl]-3,5-bis(oxidanyl)naphthalene-1-carboxamide
> <PUBCHEM_IUPAC_TRADITIONAL_NAME>
N-[(5S)-5-[(3,5-dihydroxy-1-naphthoyl)amino]-6-[2-(3,4-dihydroxyphenyl)ethylamino]-6-keto-hexyl]-3,5-dihydroxy-1-naphthamide
> <PUBCHEM_IUPAC_INCHI>
InChI=1S/C36H35N3O9/c40-21-16-25-23(5-3-8-30(25)42)27(18-21)34(46)37-13-2-1-7-29(36(48)38-14-12-20-10-11-32(44)33(45)15-20)39-35(47)28-19-22(41)17-26-24(28)6-4-9-31(26)43/h3-6,8-11,15-19,29,40-45H,1-2,7,12-14H2,(H,37,46)(H,38,48)(H,39,47)/t29-/m0/s1
> <PUBCHEM_IUPAC_INCHIKEY>
ODFDZMALEBCVQZ-LJAQVGFWSA-N
> <PUBCHEM_XLOGP3_AA>
4.9
> <PUBCHEM_EXACT_MASS>
653.23732970
> <PUBCHEM_MOLECULAR_FORMULA>
C36H35N3O9
> <PUBCHEM_MOLECULAR_WEIGHT>
653.7
> <PUBCHEM_OPENEYE_CAN_SMILES>
C1=CC2=C(C=C(C=C2C(=O)NCCCCC(C(=O)NCCC3=CC(=C(C=C3)O)O)NC(=O)C4=CC(=CC5=C4C=CC=C5O)O)O)C(=C1)O
> <PUBCHEM_OPENEYE_ISO_SMILES>
C1=CC2=C(C=C(C=C2C(=O)NCCCC[C@@H](C(=O)NCCC3=CC(=C(C=C3)O)O)NC(=O)C4=CC(=CC5=C4C=CC=C5O)O)O)C(=C1)O
> <PUBCHEM_CACTVS_TPSA>
209
> <PUBCHEM_MONOISOTOPIC_WEIGHT>
653.23732970
> <PUBCHEM_TOTAL_CHARGE>
0
> <PUBCHEM_HEAVY_ATOM_COUNT>
48
> <PUBCHEM_ATOM_DEF_STEREO_COUNT>
1
> <PUBCHEM_ATOM_UDEF_STEREO_COUNT>
0
> <PUBCHEM_BOND_DEF_STEREO_COUNT>
0
> <PUBCHEM_BOND_UDEF_STEREO_COUNT>
0
> <PUBCHEM_ISOTOPIC_ATOM_COUNT>
0
> <PUBCHEM_COMPONENT_COUNT>
1
> <PUBCHEM_CACTVS_TAUTO_COUNT>
-1
> <PUBCHEM_COORDINATE_TYPE>
1
5
255
> <PUBCHEM_BONDANNOTATIONS>
14  10  5
21  23  8
21  28  8
23  25  8
23  31  8
25  30  8
25  34  8
26  29  8
26  35  8
27  36  8
27  37  8
28  32  8
29  33  8
29  39  8
30  32  8
31  40  8
33  38  8
33  43  8
34  42  8
35  41  8
36  44  8
37  46  8
38  41  8
39  45  8
40  42  8
43  47  8
44  48  8
45  47  8
46  48  8
$$$$
