504823
  -OEChem-10302200282D
 62 65  0     1  0  0  0  0  0999 V2000
    9.8622   -1.0000    0.0000 O   0  0  0  0  0  0  0  0  0  0  0  0
    6.3981   -2.0000    0.0000 O   0  0  0  0  0  0  0  0  0  0  0  0
    2.9176   -2.0346    0.0000 O   0  0  0  0  0  0  0  0  0  0  0  0
    4.6660    2.0000    0.0000 O   0  0  0  0  0  0  0  0  0  0  0  0
   11.5942   -4.0000    0.0000 O   0  0  0  0  0  0  0  0  0  0  0  0
   13.3263    2.0000    0.0000 O   0  0  0  0  0  0  0  0  0  0  0  0
   13.3263    4.0000    0.0000 O   0  0  0  0  0  0  0  0  0  0  0  0
    7.2641   -0.5000    0.0000 N   0  0  0  0  0  0  0  0  0  0  0  0
    8.9962    0.5000    0.0000 N   0  0  0  0  0  0  0  0  0  0  0  0
    4.6660   -1.0000    0.0000 N   0  0  0  0  0  0  0  0  0  0  0  0
    8.1301   -1.0000    0.0000 C   0  0  1  0  0  0  0  0  0  0  0  0
    8.1301   -2.0000    0.0000 C   0  0  0  0  0  0  0  0  0  0  0  0
    8.9962   -0.5000    0.0000 C   0  0  0  0  0  0  0  0  0  0  0  0
    8.9962   -2.5000    0.0000 C   0  0  0  0  0  0  0  0  0  0  0  0
    9.8622    1.0000    0.0000 C   0  0  0  0  0  0  0  0  0  0  0  0
    9.8622    2.0000    0.0000 C   0  0  0  0  0  0  0  0  0  0  0  0
    6.3981   -1.0000    0.0000 C   0  0  0  0  0  0  0  0  0  0  0  0
    5.5321   -0.5000    0.0000 C   0  0  0  0  0  0  0  0  0  0  0  0
   10.7282    2.5000    0.0000 C   0  0  0  0  0  0  0  0  0  0  0  0
    9.8622   -2.0000    0.0000 C   0  0  0  0  0  0  0  0  0  0  0  0
    8.9962   -3.5000    0.0000 C   0  0  0  0  0  0  0  0  0  0  0  0
    3.8000   -0.5000    0.0000 C   0  0  0  0  0  0  0  0  0  0  0  0
    3.8000    0.5000    0.0000 C   0  0  0  0  0  0  0  0  0  0  0  0
    5.5321    0.5000    0.0000 C   0  0  0  0  0  0  0  0  0  0  0  0
    4.6660    1.0000    0.0000 C   0  0  0  0  0  0  0  0  0  0  0  0
   10.7282   -2.5000    0.0000 C   0  0  0  0  0  0  0  0  0  0  0  0
    9.8622   -4.0000    0.0000 C   0  0  0  0  0  0  0  0  0  0  0  0
    2.9061   -1.0347    0.0000 C   0  0  0  0  0  0  0  0  0  0  0  0
   11.5942    2.0000    0.0000 C   0  0  0  0  0  0  0  0  0  0  0  0
   10.7282    3.5000    0.0000 C   0  0  0  0  0  0  0  0  0  0  0  0
   10.7282   -3.5000    0.0000 C   0  0  0  0  0  0  0  0  0  0  0  0
    2.9061    1.0347    0.0000 C   0  0  0  0  0  0  0  0  0  0  0  0
    2.0000   -0.5208    0.0000 C   0  0  0  0  0  0  0  0  0  0  0  0
   12.4603    2.5000    0.0000 C   0  0  0  0  0  0  0  0  0  0  0  0
    2.0000    0.5208    0.0000 C   0  0  0  0  0  0  0  0  0  0  0  0
   11.5942    4.0000    0.0000 C   0  0  0  0  0  0  0  0  0  0  0  0
   12.4603    3.5000    0.0000 C   0  0  0  0  0  0  0  0  0  0  0  0
    7.5932   -1.3100    0.0000 H   0  0  0  0  0  0  0  0  0  0  0  0
    7.5196   -1.8923    0.0000 H   0  0  0  0  0  0  0  0  0  0  0  0
    7.9181   -2.5826    0.0000 H   0  0  0  0  0  0  0  0  0  0  0  0
    7.2641    0.1200    0.0000 H   0  0  0  0  0  0  0  0  0  0  0  0
   10.0742    0.4174    0.0000 H   0  0  0  0  0  0  0  0  0  0  0  0
   10.4728    1.1077    0.0000 H   0  0  0  0  0  0  0  0  0  0  0  0
    8.4592    0.8100    0.0000 H   0  0  0  0  0  0  0  0  0  0  0  0
    9.6501    2.5826    0.0000 H   0  0  0  0  0  0  0  0  0  0  0  0
    9.2516    1.8923    0.0000 H   0  0  0  0  0  0  0  0  0  0  0  0
    9.8622   -1.3800    0.0000 H   0  0  0  0  0  0  0  0  0  0  0  0
    8.4592   -3.8100    0.0000 H   0  0  0  0  0  0  0  0  0  0  0  0
    4.6660   -1.6200    0.0000 H   0  0  0  0  0  0  0  0  0  0  0  0
    6.0690    0.8100    0.0000 H   0  0  0  0  0  0  0  0  0  0  0  0
   11.2651   -2.1900    0.0000 H   0  0  0  0  0  0  0  0  0  0  0  0
    9.8622   -4.6200    0.0000 H   0  0  0  0  0  0  0  0  0  0  0  0
   11.5942    1.3800    0.0000 H   0  0  0  0  0  0  0  0  0  0  0  0
   10.1913    3.8100    0.0000 H   0  0  0  0  0  0  0  0  0  0  0  0
    2.9132    1.6546    0.0000 H   0  0  0  0  0  0  0  0  0  0  0  0
    1.4643   -0.8329    0.0000 H   0  0  0  0  0  0  0  0  0  0  0  0
    1.4643    0.8329    0.0000 H   0  0  0  0  0  0  0  0  0  0  0  0
   11.5942    4.6200    0.0000 H   0  0  0  0  0  0  0  0  0  0  0  0
    2.3843   -2.3508    0.0000 H   0  0  0  0  0  0  0  0  0  0  0  0
   11.5942   -4.6200    0.0000 H   0  0  0  0  0  0  0  0  0  0  0  0
   13.8632    2.3100    0.0000 H   0  0  0  0  0  0  0  0  0  0  0  0
   13.3263    4.6200    0.0000 H   0  0  0  0  0  0  0  0  0  0  0  0
  1 13  2  0  0  0  0
  2 17  2  0  0  0  0
  3 28  1  0  0  0  0
  3 59  1  0  0  0  0
  4 25  2  0  0  0  0
  5 31  1  0  0  0  0
  5 60  1  0  0  0  0
  6 34  1  0  0  0  0
  6 61  1  0  0  0  0
  7 37  1  0  0  0  0
  7 62  1  0  0  0  0
 11  8  1  6  0  0  0
  8 17  1  0  0  0  0
  8 41  1  0  0  0  0
  9 13  1  0  0  0  0
  9 15  1  0  0  0  0
  9 44  1  0  0  0  0
 10 18  1  0  0  0  0
 10 22  1  0  0  0  0
 10 49  1  0  0  0  0
 11 12  1  0  0  0  0
 11 13  1  0  0  0  0
 11 38  1  0  0  0  0
 12 14  1  0  0  0  0
 12 39  1  0  0  0  0
 12 40  1  0  0  0  0
 14 20  2  0  0  0  0
 14 21  1  0  0  0  0
 15 16  1  0  0  0  0
 15 42  1  0  0  0  0
 15 43  1  0  0  0  0
 16 19  1  0  0  0  0
 16 45  1  0  0  0  0
 16 46  1  0  0  0  0
 17 18  1  0  0  0  0
 18 24  2  0  0  0  0
 19 29  2  0  0  0  0
 19 30  1  0  0  0  0
 20 26  1  0  0  0  0
 20 47  1  0  0  0  0
 21 27  2  0  0  0  0
 21 48  1  0  0  0  0
 22 23  2  0  0  0  0
 22 28  1  0  0  0  0
 23 25  1  0  0  0  0
 23 32  1  0  0  0  0
 24 25  1  0  0  0  0
 24 50  1  0  0  0  0
 26 31  2  0  0  0  0
 26 51  1  0  0  0  0
 27 31  1  0  0  0  0
 27 52  1  0  0  0  0
 28 33  2  0  0  0  0
 29 34  1  0  0  0  0
 29 53  1  0  0  0  0
 30 36  2  0  0  0  0
 30 54  1  0  0  0  0
 32 35  2  0  0  0  0
 32 55  1  0  0  0  0
 33 35  1  0  0  0  0
 33 56  1  0  0  0  0
 34 37  2  0  0  0  0
 35 57  1  0  0  0  0
 36 37  1  0  0  0  0
 36 58  1  0  0  0  0
M  END
> <PUBCHEM_COMPOUND_CID>
504823
> <PUBCHEM_COMPOUND_CANONICALIZED>
1
> <PUBCHEM_CACTVS_COMPLEXITY>
857
> <PUBCHEM_CACTVS_HBOND_ACCEPTOR>
8
> <PUBCHEM_CACTVS_HBOND_DONOR>
7
> <PUBCHEM_CACTVS_ROTATABLE_BOND>
8
> <PUBCHEM_CACTVS_SUBSKEYS>
AAADceB7OAAAAAAAAAAAAAAAAAAAAAAAAAAwYMEAAAAAAACBUAAAHgAQCAAADCzBmAQwxoLAAgCIAqVSUACCAAAlIgAIiIGPzMgLZjrSlbOUcYlk1hHZ2cea2LKOIAABAAACUABAAAIAAASgAAAAAAAAAA==
> <PUBCHEM_IUPAC_OPENEYE_NAME>
N-[(1S)-2-[2-(3,4-dihydroxyphenyl)ethylamino]-1-[(4-hydroxyphenyl)methyl]-2-oxo-ethyl]-8-hydroxy-4-oxo-1H-quinoline-2-carboxamide
> <PUBCHEM_IUPAC_CAS_NAME>
N-[(2S)-1-[2-(3,4-dihydroxyphenyl)ethylamino]-3-(4-hydroxyphenyl)-1-oxopropan-2-yl]-8-hydroxy-4-oxo-1H-quinoline-2-carboxamide
> <PUBCHEM_IUPAC_NAME_MARKUP>
<I>N</I>-[(2<I>S</I>)-1-[2-(3,4-dihydroxyphenyl)ethylamino]-3-(4-hydroxyphenyl)-1-oxopropan-2-yl]-8-hydroxy-4-oxo-1<I>H</I>-quinoline-2-carboxamide
> <PUBCHEM_IUPAC_NAME>
N-[(2S)-1-[2-(3,4-dihydroxyphenyl)ethylamino]-3-(4-hydroxyphenyl)-1-oxopropan-2-yl]-8-hydroxy-4-oxo-1H-quinoline-2-carboxamide
> <PUBCHEM_IUPAC_SYSTEMATIC_NAME>
N-[(2S)-1-[2-[3,4-bis(oxidanyl)phenyl]ethylamino]-3-(4-hydroxyphenyl)-1-oxidanylidene-propan-2-yl]-8-oxidanyl-4-oxidanylidene-1H-quinoline-2-carboxamide
> <PUBCHEM_IUPAC_TRADITIONAL_NAME>
N-[(1S)-2-[2-(3,4-dihydroxyphenyl)ethylamino]-1-(4-hydroxybenzyl)-2-keto-ethyl]-8-hydroxy-4-keto-1H-quinoline-2-carboxamide
> <PUBCHEM_IUPAC_INCHI>
InChI=1S/C27H25N3O7/c31-17-7-4-15(5-8-17)12-19(26(36)28-11-10-16-6-9-21(32)24(35)13-16)30-27(37)20-14-23(34)18-2-1-3-22(33)25(18)29-20/h1-9,13-14,19,31-33,35H,10-12H2,(H,28,36)(H,29,34)(H,30,37)/t19-/m0/s1
> <PUBCHEM_IUPAC_INCHIKEY>
LSBVAHQJIXHLNC-IBGZPJMESA-N
> <PUBCHEM_XLOGP3_AA>
2.9
> <PUBCHEM_EXACT_MASS>
503.16925015
> <PUBCHEM_MOLECULAR_FORMULA>
C27H25N3O7
> <PUBCHEM_MOLECULAR_WEIGHT>
503.5
> <PUBCHEM_OPENEYE_CAN_SMILES>
C1=CC2=C(C(=C1)O)NC(=CC2=O)C(=O)NC(CC3=CC=C(C=C3)O)C(=O)NCCC4=CC(=C(C=C4)O)O
> <PUBCHEM_OPENEYE_ISO_SMILES>
C1=CC2=C(C(=C1)O)NC(=CC2=O)C(=O)N[C@@H](CC3=CC=C(C=C3)O)C(=O)NCCC4=CC(=C(C=C4)O)O
> <PUBCHEM_CACTVS_TPSA>
168
> <PUBCHEM_MONOISOTOPIC_WEIGHT>
503.16925015
> <PUBCHEM_TOTAL_CHARGE>
0
> <PUBCHEM_HEAVY_ATOM_COUNT>
37
> <PUBCHEM_ATOM_DEF_STEREO_COUNT>
1
> <PUBCHEM_ATOM_UDEF_STEREO_COUNT>
0
> <PUBCHEM_BOND_DEF_STEREO_COUNT>
0
> <PUBCHEM_BOND_UDEF_STEREO_COUNT>
0
> <PUBCHEM_ISOTOPIC_ATOM_COUNT>
0
> <PUBCHEM_COMPONENT_COUNT>
1
> <PUBCHEM_CACTVS_TAUTO_COUNT>
-1
> <PUBCHEM_COORDINATE_TYPE>
1
5
255
> <PUBCHEM_BONDANNOTATIONS>
10  18  8
10  22  8
14  20  8
14  21  8
18  24  8
19  29  8
19  30  8
20  26  8
21  27  8
22  23  8
22  28  8
23  25  8
23  32  8
24  25  8
26  31  8
27  31  8
28  33  8
29  34  8
30  36  8
32  35  8
33  35  8
34  37  8
36  37  8
11  8  6
$$$$
