504866
  -OEChem-10302200282D
 78 81  0     1  0  0  0  0  0999 V2000
   12.7619    2.3662    0.0000 S   0  0  0  0  0  0  0  0  0  0  0  0
    2.3176   -4.9643    0.0000 F   0  0  0  0  0  0  0  0  0  0  0  0
   10.7619   -1.0979    0.0000 O   0  0  0  0  0  0  0  0  0  0  0  0
    6.7619   -1.0979    0.0000 O   0  0  0  0  0  0  0  0  0  0  0  0
    7.7619    2.3662    0.0000 O   0  0  0  0  0  0  0  0  0  0  0  0
    9.2619   -1.9639    0.0000 O   0  0  0  0  0  0  0  0  0  0  0  0
    4.6783   -1.0366    0.0000 N   0  0  0  0  0  0  0  0  0  0  0  0
    6.7619    0.6342    0.0000 N   0  0  0  0  0  0  0  0  0  0  0  0
    9.2619    1.5002    0.0000 N   0  0  0  0  0  0  0  0  0  0  0  0
    7.7619    0.6342    0.0000 C   0  0  1  0  0  0  0  0  0  0  0  0
    8.2619   -0.2318    0.0000 C   0  0  0  0  0  0  0  0  0  0  0  0
    5.2619   -0.2318    0.0000 C   0  0  0  0  0  0  0  0  0  0  0  0
    3.7320   -0.7318    0.0000 C   0  0  0  0  0  0  0  0  0  0  0  0
    3.7320    0.2682    0.0000 C   0  0  0  0  0  0  0  0  0  0  0  0
    9.2619   -0.2318    0.0000 C   0  0  0  0  0  0  0  0  0  0  0  0
    4.9889   -1.9871    0.0000 C   0  0  0  0  0  0  0  0  0  0  0  0
    4.6783    0.5729    0.0000 C   0  0  0  0  0  0  0  0  0  0  0  0
    6.2619   -0.2318    0.0000 C   0  0  0  0  0  0  0  0  0  0  0  0
    8.2619    1.5002    0.0000 C   0  0  0  0  0  0  0  0  0  0  0  0
   11.2619   -1.9639    0.0000 C   0  0  0  0  0  0  0  0  0  0  0  0
    2.8660   -1.2318    0.0000 C   0  0  0  0  0  0  0  0  0  0  0  0
    4.3211   -2.7314    0.0000 C   0  0  0  0  0  0  0  0  0  0  0  0
    9.7619    2.3662    0.0000 C   0  0  0  0  0  0  0  0  0  0  0  0
    9.7619   -1.0979    0.0000 C   0  0  0  0  0  0  0  0  0  0  0  0
    2.8660    0.7682    0.0000 C   0  0  0  0  0  0  0  0  0  0  0  0
   10.7619    2.3662    0.0000 C   0  0  0  0  0  0  0  0  0  0  0  0
    2.0000   -0.7318    0.0000 C   0  0  0  0  0  0  0  0  0  0  0  0
    2.0000    0.2682    0.0000 C   0  0  0  0  0  0  0  0  0  0  0  0
   11.7619   -2.8299    0.0000 C   0  0  0  0  0  0  0  0  0  0  0  0
   12.1279   -1.4639    0.0000 C   0  0  0  0  0  0  0  0  0  0  0  0
   10.3959   -2.4639    0.0000 C   0  0  0  0  0  0  0  0  0  0  0  0
   11.2619    3.2322    0.0000 C   0  0  0  0  0  0  0  0  0  0  0  0
    3.3426   -2.5252    0.0000 C   0  0  0  0  0  0  0  0  0  0  0  0
    4.6318   -3.6819    0.0000 C   0  0  0  0  0  0  0  0  0  0  0  0
   12.2619    3.2322    0.0000 C   0  0  0  0  0  0  0  0  0  0  0  0
   10.7619    4.0983    0.0000 C   0  0  0  0  0  0  0  0  0  0  0  0
   12.7619    4.0983    0.0000 C   0  0  0  0  0  0  0  0  0  0  0  0
    2.6747   -3.2695    0.0000 C   0  0  0  0  0  0  0  0  0  0  0  0
    3.9639   -4.4262    0.0000 C   0  0  0  0  0  0  0  0  0  0  0  0
    2.9854   -4.2200    0.0000 C   0  0  0  0  0  0  0  0  0  0  0  0
   11.2619    4.9643    0.0000 C   0  0  0  0  0  0  0  0  0  0  0  0
   12.2619    4.9643    0.0000 C   0  0  0  0  0  0  0  0  0  0  0  0
    7.4519    0.0972    0.0000 H   0  0  0  0  0  0  0  0  0  0  0  0
    7.6793   -0.4439    0.0000 H   0  0  0  0  0  0  0  0  0  0  0  0
    8.3695   -0.8424    0.0000 H   0  0  0  0  0  0  0  0  0  0  0  0
    6.4519    1.1711    0.0000 H   0  0  0  0  0  0  0  0  0  0  0  0
    9.8445   -0.0198    0.0000 H   0  0  0  0  0  0  0  0  0  0  0  0
    9.1542    0.3787    0.0000 H   0  0  0  0  0  0  0  0  0  0  0  0
    5.3715   -2.4750    0.0000 H   0  0  0  0  0  0  0  0  0  0  0  0
    5.5359   -1.6951    0.0000 H   0  0  0  0  0  0  0  0  0  0  0  0
    4.8709    1.1622    0.0000 H   0  0  0  0  0  0  0  0  0  0  0  0
    2.8660   -1.8518    0.0000 H   0  0  0  0  0  0  0  0  0  0  0  0
    9.5719    0.9633    0.0000 H   0  0  0  0  0  0  0  0  0  0  0  0
    9.8695    2.9768    0.0000 H   0  0  0  0  0  0  0  0  0  0  0  0
    9.1793    2.5783    0.0000 H   0  0  0  0  0  0  0  0  0  0  0  0
    2.8660    1.3882    0.0000 H   0  0  0  0  0  0  0  0  0  0  0  0
   10.6542    1.7556    0.0000 H   0  0  0  0  0  0  0  0  0  0  0  0
   11.3445    2.1542    0.0000 H   0  0  0  0  0  0  0  0  0  0  0  0
    1.4631   -1.0418    0.0000 H   0  0  0  0  0  0  0  0  0  0  0  0
    1.4631    0.5782    0.0000 H   0  0  0  0  0  0  0  0  0  0  0  0
   11.2249   -3.1399    0.0000 H   0  0  0  0  0  0  0  0  0  0  0  0
   12.0719   -3.3669    0.0000 H   0  0  0  0  0  0  0  0  0  0  0  0
   12.2988   -2.5199    0.0000 H   0  0  0  0  0  0  0  0  0  0  0  0
   12.4379   -2.0008    0.0000 H   0  0  0  0  0  0  0  0  0  0  0  0
   12.6648   -1.1539    0.0000 H   0  0  0  0  0  0  0  0  0  0  0  0
   11.8179   -0.9270    0.0000 H   0  0  0  0  0  0  0  0  0  0  0  0
   10.0859   -1.9270    0.0000 H   0  0  0  0  0  0  0  0  0  0  0  0
    9.8589   -2.7739    0.0000 H   0  0  0  0  0  0  0  0  0  0  0  0
   10.7059   -3.0008    0.0000 H   0  0  0  0  0  0  0  0  0  0  0  0
    3.1500   -1.9359    0.0000 H   0  0  0  0  0  0  0  0  0  0  0  0
    5.2384   -3.8098    0.0000 H   0  0  0  0  0  0  0  0  0  0  0  0
   10.1419    4.0983    0.0000 H   0  0  0  0  0  0  0  0  0  0  0  0
   13.2368    3.6998    0.0000 H   0  0  0  0  0  0  0  0  0  0  0  0
   13.2368    4.4968    0.0000 H   0  0  0  0  0  0  0  0  0  0  0  0
    2.0681   -3.1416    0.0000 H   0  0  0  0  0  0  0  0  0  0  0  0
    4.1565   -5.0156    0.0000 H   0  0  0  0  0  0  0  0  0  0  0  0
   10.9519    5.5012    0.0000 H   0  0  0  0  0  0  0  0  0  0  0  0
   12.5719    5.5012    0.0000 H   0  0  0  0  0  0  0  0  0  0  0  0
  1 35  2  0  0  0  0
  2 40  1  0  0  0  0
  3 20  1  0  0  0  0
  3 24  1  0  0  0  0
  4 18  2  0  0  0  0
  5 19  2  0  0  0  0
  6 24  2  0  0  0  0
  7 12  1  0  0  0  0
  7 13  1  0  0  0  0
  7 16  1  0  0  0  0
 10  8  1  6  0  0  0
  8 18  1  0  0  0  0
  8 46  1  0  0  0  0
  9 19  1  0  0  0  0
  9 23  1  0  0  0  0
  9 53  1  0  0  0  0
 10 11  1  0  0  0  0
 10 19  1  0  0  0  0
 10 43  1  0  0  0  0
 11 15  1  0  0  0  0
 11 44  1  0  0  0  0
 11 45  1  0  0  0  0
 12 17  2  0  0  0  0
 12 18  1  0  0  0  0
 13 14  1  0  0  0  0
 13 21  2  0  0  0  0
 14 17  1  0  0  0  0
 14 25  2  0  0  0  0
 15 24  1  0  0  0  0
 15 47  1  0  0  0  0
 15 48  1  0  0  0  0
 16 22  1  0  0  0  0
 16 49  1  0  0  0  0
 16 50  1  0  0  0  0
 17 51  1  0  0  0  0
 20 29  1  0  0  0  0
 20 30  1  0  0  0  0
 20 31  1  0  0  0  0
 21 27  1  0  0  0  0
 21 52  1  0  0  0  0
 22 33  2  0  0  0  0
 22 34  1  0  0  0  0
 23 26  1  0  0  0  0
 23 54  1  0  0  0  0
 23 55  1  0  0  0  0
 25 28  1  0  0  0  0
 25 56  1  0  0  0  0
 26 32  1  0  0  0  0
 26 57  1  0  0  0  0
 26 58  1  0  0  0  0
 27 28  2  0  0  0  0
 27 59  1  0  0  0  0
 28 60  1  0  0  0  0
 29 61  1  0  0  0  0
 29 62  1  0  0  0  0
 29 63  1  0  0  0  0
 30 64  1  0  0  0  0
 30 65  1  0  0  0  0
 30 66  1  0  0  0  0
 31 67  1  0  0  0  0
 31 68  1  0  0  0  0
 31 69  1  0  0  0  0
 32 35  1  0  0  0  0
 32 36  2  0  0  0  0
 33 38  1  0  0  0  0
 33 70  1  0  0  0  0
 34 39  2  0  0  0  0
 34 71  1  0  0  0  0
 35 37  1  0  0  0  0
 36 41  1  0  0  0  0
 36 72  1  0  0  0  0
 37 42  1  0  0  0  0
 37 73  1  0  0  0  0
 37 74  1  0  0  0  0
 38 40  2  0  0  0  0
 38 75  1  0  0  0  0
 39 40  1  0  0  0  0
 39 76  1  0  0  0  0
 41 42  2  0  0  0  0
 41 77  1  0  0  0  0
 42 78  1  0  0  0  0
M  END
> <PUBCHEM_COMPOUND_CID>
504866
> <PUBCHEM_COMPOUND_CANONICALIZED>
1
> <PUBCHEM_CACTVS_COMPLEXITY>
1050
> <PUBCHEM_CACTVS_HBOND_ACCEPTOR>
6
> <PUBCHEM_CACTVS_HBOND_DONOR>
2
> <PUBCHEM_CACTVS_ROTATABLE_BOND>
13
> <PUBCHEM_CACTVS_SUBSKEYS>
AAADcfB/OQBAAAAAAAAAAAAAAAAAAWAAAAAwYIAAAAAAAFgB9AAAHwQQAAAADGzB3gwyyPPMFACsAyXyXACCgCAnAiAI2KG4ZNgIYPLAlbGWIQhklgDIyYe8n4KeAAAAAAACAAAAAAAAAAQAAAAAAAAAAA==
> <PUBCHEM_IUPAC_OPENEYE_NAME>
tert-butyl (4S)-4-[[1-[(4-fluorophenyl)methyl]indole-2-carbonyl]amino]-5-oxo-5-[2-(6-thioxocyclohexa-1,3-dien-1-yl)ethylamino]pentanoate
> <PUBCHEM_IUPAC_CAS_NAME>
(4S)-4-[[[1-[(4-fluorophenyl)methyl]-2-indolyl]-oxomethyl]amino]-5-oxo-5-[2-(6-sulfanylidene-1-cyclohexa-1,3-dienyl)ethylamino]pentanoic acid tert-butyl ester
> <PUBCHEM_IUPAC_NAME_MARKUP>
<I>tert</I>-butyl (4<I>S</I>)-4-[[1-[(4-fluorophenyl)methyl]indole-2-carbonyl]amino]-5-oxo-5-[2-(6-sulfanylidenecyclohexa-1,3-dien-1-yl)ethylamino]pentanoate
> <PUBCHEM_IUPAC_NAME>
tert-butyl (4S)-4-[[1-[(4-fluorophenyl)methyl]indole-2-carbonyl]amino]-5-oxo-5-[2-(6-sulfanylidenecyclohexa-1,3-dien-1-yl)ethylamino]pentanoate
> <PUBCHEM_IUPAC_SYSTEMATIC_NAME>
tert-butyl (4S)-4-[[1-[(4-fluorophenyl)methyl]indol-2-yl]carbonylamino]-5-oxidanylidene-5-[2-(6-sulfanylidenecyclohexa-1,3-dien-1-yl)ethylamino]pentanoate
> <PUBCHEM_IUPAC_TRADITIONAL_NAME>
(4S)-4-[[1-(4-fluorobenzyl)indole-2-carbonyl]amino]-5-keto-5-[2-(6-thioxocyclohexa-1,3-dien-1-yl)ethylamino]valeric acid tert-butyl ester
> <PUBCHEM_IUPAC_INCHI>
InChI=1S/C33H36FN3O4S/c1-33(2,3)41-30(38)17-16-26(31(39)35-19-18-23-8-5-7-11-29(23)42)36-32(40)28-20-24-9-4-6-10-27(24)37(28)21-22-12-14-25(34)15-13-22/h4-10,12-15,20,26H,11,16-19,21H2,1-3H3,(H,35,39)(H,36,40)/t26-/m0/s1
> <PUBCHEM_IUPAC_INCHIKEY>
IGXFIARYUIGPSC-SANMLTNESA-N
> <PUBCHEM_XLOGP3_AA>
5.5
> <PUBCHEM_EXACT_MASS>
589.24105597
> <PUBCHEM_MOLECULAR_FORMULA>
C33H36FN3O4S
> <PUBCHEM_MOLECULAR_WEIGHT>
589.7
> <PUBCHEM_OPENEYE_CAN_SMILES>
CC(C)(C)OC(=O)CCC(C(=O)NCCC1=CC=CCC1=S)NC(=O)C2=CC3=CC=CC=C3N2CC4=CC=C(C=C4)F
> <PUBCHEM_OPENEYE_ISO_SMILES>
CC(C)(C)OC(=O)CC[C@@H](C(=O)NCCC1=CC=CCC1=S)NC(=O)C2=CC3=CC=CC=C3N2CC4=CC=C(C=C4)F
> <PUBCHEM_CACTVS_TPSA>
122
> <PUBCHEM_MONOISOTOPIC_WEIGHT>
589.24105597
> <PUBCHEM_TOTAL_CHARGE>
0
> <PUBCHEM_HEAVY_ATOM_COUNT>
42
> <PUBCHEM_ATOM_DEF_STEREO_COUNT>
1
> <PUBCHEM_ATOM_UDEF_STEREO_COUNT>
0
> <PUBCHEM_BOND_DEF_STEREO_COUNT>
0
> <PUBCHEM_BOND_UDEF_STEREO_COUNT>
0
> <PUBCHEM_ISOTOPIC_ATOM_COUNT>
0
> <PUBCHEM_COMPONENT_COUNT>
1
> <PUBCHEM_CACTVS_TAUTO_COUNT>
-1
> <PUBCHEM_COORDINATE_TYPE>
1
5
255
> <PUBCHEM_BONDANNOTATIONS>
12  17  8
13  14  8
13  21  8
14  17  8
14  25  8
21  27  8
22  33  8
22  34  8
25  28  8
27  28  8
33  38  8
34  39  8
38  40  8
39  40  8
7  12  8
7  13  8
10  8  6
$$$$
