504807
  -OEChem-10302200282D
 63 64  0     1  0  0  0  0  0999 V2000
    9.4651    0.5000    0.0000 O   0  0  0  0  0  0  0  0  0  0  0  0
    6.0010    0.5000    0.0000 O   0  0  0  0  0  0  0  0  0  0  0  0
    9.4651   -0.5000    0.0000 O   0  0  0  0  0  0  0  0  0  0  0  0
    4.2690    6.5000    0.0000 O   0  0  0  0  0  0  0  0  0  0  0  0
    2.5369    5.5000    0.0000 O   0  0  0  0  0  0  0  0  0  0  0  0
    7.7331   -5.5000    0.0000 O   0  0  0  0  0  0  0  0  0  0  0  0
    9.4651   -6.5000    0.0000 O   0  0  0  0  0  0  0  0  0  0  0  0
    7.7331   -0.5000    0.0000 N   0  0  0  0  0  0  0  0  0  0  0  0
    6.8671    2.0000    0.0000 N   0  0  0  0  0  0  0  0  0  0  0  0
   10.3312    1.0000    0.0000 C   0  0  0  0  0  0  0  0  0  0  0  0
    7.7331    0.5000    0.0000 C   0  0  1  0  0  0  0  0  0  0  0  0
    8.5991    1.0000    0.0000 C   0  0  0  0  0  0  0  0  0  0  0  0
   11.1972    1.5000    0.0000 C   0  0  0  0  0  0  0  0  0  0  0  0
   10.8312    0.1340    0.0000 C   0  0  0  0  0  0  0  0  0  0  0  0
    9.8312    1.8660    0.0000 C   0  0  0  0  0  0  0  0  0  0  0  0
    6.8671    1.0000    0.0000 C   0  0  0  0  0  0  0  0  0  0  0  0
    6.0010    2.5000    0.0000 C   0  0  0  0  0  0  0  0  0  0  0  0
    6.0010    3.5000    0.0000 C   0  0  0  0  0  0  0  0  0  0  0  0
    5.1350    4.0000    0.0000 C   0  0  0  0  0  0  0  0  0  0  0  0
    8.5991   -1.0000    0.0000 C   0  0  0  0  0  0  0  0  0  0  0  0
    5.1350    5.0000    0.0000 C   0  0  0  0  0  0  0  0  0  0  0  0
    4.2690    3.5000    0.0000 C   0  0  0  0  0  0  0  0  0  0  0  0
    8.5991   -2.0000    0.0000 C   0  0  0  0  0  0  0  0  0  0  0  0
    4.2690    5.5000    0.0000 C   0  0  0  0  0  0  0  0  0  0  0  0
    3.4030    4.0000    0.0000 C   0  0  0  0  0  0  0  0  0  0  0  0
    3.4030    5.0000    0.0000 C   0  0  0  0  0  0  0  0  0  0  0  0
    9.4651   -2.5000    0.0000 C   0  0  0  0  0  0  0  0  0  0  0  0
    9.4651   -3.5000    0.0000 C   0  0  0  0  0  0  0  0  0  0  0  0
    8.5991   -4.0000    0.0000 C   0  0  0  0  0  0  0  0  0  0  0  0
   10.3312   -4.0000    0.0000 C   0  0  0  0  0  0  0  0  0  0  0  0
    8.5991   -5.0000    0.0000 C   0  0  0  0  0  0  0  0  0  0  0  0
   10.3312   -5.0000    0.0000 C   0  0  0  0  0  0  0  0  0  0  0  0
    9.4651   -5.5000    0.0000 C   0  0  0  0  0  0  0  0  0  0  0  0
    8.2700    0.1900    0.0000 H   0  0  0  0  0  0  0  0  0  0  0  0
    8.9976    1.4750    0.0000 H   0  0  0  0  0  0  0  0  0  0  0  0
    8.2006    1.4750    0.0000 H   0  0  0  0  0  0  0  0  0  0  0  0
   11.5072    0.9631    0.0000 H   0  0  0  0  0  0  0  0  0  0  0  0
   11.7341    1.8100    0.0000 H   0  0  0  0  0  0  0  0  0  0  0  0
   10.8872    2.0369    0.0000 H   0  0  0  0  0  0  0  0  0  0  0  0
   10.2942   -0.1760    0.0000 H   0  0  0  0  0  0  0  0  0  0  0  0
   11.1412   -0.4030    0.0000 H   0  0  0  0  0  0  0  0  0  0  0  0
   11.3681    0.4440    0.0000 H   0  0  0  0  0  0  0  0  0  0  0  0
   10.3681    2.1760    0.0000 H   0  0  0  0  0  0  0  0  0  0  0  0
    9.5212    2.4030    0.0000 H   0  0  0  0  0  0  0  0  0  0  0  0
    9.2942    1.5560    0.0000 H   0  0  0  0  0  0  0  0  0  0  0  0
    5.3905    2.6077    0.0000 H   0  0  0  0  0  0  0  0  0  0  0  0
    5.7890    1.9174    0.0000 H   0  0  0  0  0  0  0  0  0  0  0  0
    7.1962   -0.8100    0.0000 H   0  0  0  0  0  0  0  0  0  0  0  0
    7.4040    2.3100    0.0000 H   0  0  0  0  0  0  0  0  0  0  0  0
    6.6116    3.3923    0.0000 H   0  0  0  0  0  0  0  0  0  0  0  0
    6.2131    4.0826    0.0000 H   0  0  0  0  0  0  0  0  0  0  0  0
    5.6720    5.3100    0.0000 H   0  0  0  0  0  0  0  0  0  0  0  0
    4.2690    2.8800    0.0000 H   0  0  0  0  0  0  0  0  0  0  0  0
    8.0622   -2.3100    0.0000 H   0  0  0  0  0  0  0  0  0  0  0  0
    2.8660    3.6900    0.0000 H   0  0  0  0  0  0  0  0  0  0  0  0
   10.0021   -2.1900    0.0000 H   0  0  0  0  0  0  0  0  0  0  0  0
    8.0622   -3.6900    0.0000 H   0  0  0  0  0  0  0  0  0  0  0  0
   10.8681   -3.6900    0.0000 H   0  0  0  0  0  0  0  0  0  0  0  0
    4.8059    6.8100    0.0000 H   0  0  0  0  0  0  0  0  0  0  0  0
    2.0000    5.1900    0.0000 H   0  0  0  0  0  0  0  0  0  0  0  0
   10.8681   -5.3100    0.0000 H   0  0  0  0  0  0  0  0  0  0  0  0
    7.7331   -6.1200    0.0000 H   0  0  0  0  0  0  0  0  0  0  0  0
   10.0021   -6.8100    0.0000 H   0  0  0  0  0  0  0  0  0  0  0  0
  1 10  1  0  0  0  0
  1 12  1  0  0  0  0
  2 16  2  0  0  0  0
  3 20  2  0  0  0  0
  4 24  1  0  0  0  0
  4 59  1  0  0  0  0
  5 26  1  0  0  0  0
  5 60  1  0  0  0  0
  6 31  1  0  0  0  0
  6 62  1  0  0  0  0
  7 33  1  0  0  0  0
  7 63  1  0  0  0  0
 11  8  1  6  0  0  0
  8 20  1  0  0  0  0
  8 48  1  0  0  0  0
  9 16  1  0  0  0  0
  9 17  1  0  0  0  0
  9 49  1  0  0  0  0
 10 13  1  0  0  0  0
 10 14  1  0  0  0  0
 10 15  1  0  0  0  0
 11 12  1  0  0  0  0
 11 16  1  0  0  0  0
 11 34  1  0  0  0  0
 12 35  1  0  0  0  0
 12 36  1  0  0  0  0
 13 37  1  0  0  0  0
 13 38  1  0  0  0  0
 13 39  1  0  0  0  0
 14 40  1  0  0  0  0
 14 41  1  0  0  0  0
 14 42  1  0  0  0  0
 15 43  1  0  0  0  0
 15 44  1  0  0  0  0
 15 45  1  0  0  0  0
 17 18  1  0  0  0  0
 17 46  1  0  0  0  0
 17 47  1  0  0  0  0
 18 19  1  0  0  0  0
 18 50  1  0  0  0  0
 18 51  1  0  0  0  0
 19 21  2  0  0  0  0
 19 22  1  0  0  0  0
 20 23  1  0  0  0  0
 21 24  1  0  0  0  0
 21 52  1  0  0  0  0
 22 25  2  0  0  0  0
 22 53  1  0  0  0  0
 23 27  2  3  0  0  0
 23 54  1  0  0  0  0
 24 26  2  0  0  0  0
 25 26  1  0  0  0  0
 25 55  1  0  0  0  0
 27 28  1  0  0  0  0
 27 56  1  0  0  0  0
 28 29  2  0  0  0  0
 28 30  1  0  0  0  0
 29 31  1  0  0  0  0
 29 57  1  0  0  0  0
 30 32  2  0  0  0  0
 30 58  1  0  0  0  0
 31 33  2  0  0  0  0
 32 33  1  0  0  0  0
 32 61  1  0  0  0  0
M  END
> <PUBCHEM_COMPOUND_CID>
504807
> <PUBCHEM_COMPOUND_CANONICALIZED>
1
> <PUBCHEM_CACTVS_COMPLEXITY>
664
> <PUBCHEM_CACTVS_HBOND_ACCEPTOR>
7
> <PUBCHEM_CACTVS_HBOND_DONOR>
6
> <PUBCHEM_CACTVS_ROTATABLE_BOND>
10
> <PUBCHEM_CACTVS_SUBSKEYS>
AAADceB7OAAAAAAAAAAAAAAAAAAAAAAAAAAwYAAAAAAAAAABQAAAHgAQCAAADGzhmAYyBoLABgCIAiFSEACCAAAgIAAIiIGOiMgLZiaCkTOXcAEm9hGZmYeQ0LIOIAABAAAAQABAAAIAAACAAAAAAAAAAA==
> <PUBCHEM_IUPAC_OPENEYE_NAME>
(2S)-3-tert-butoxy-N-[2-(3,4-dihydroxyphenyl)ethyl]-2-[3-(3,4-dihydroxyphenyl)prop-2-enoylamino]propanamide
> <PUBCHEM_IUPAC_CAS_NAME>
(2S)-N-[2-(3,4-dihydroxyphenyl)ethyl]-2-[[3-(3,4-dihydroxyphenyl)-1-oxoprop-2-enyl]amino]-3-[(2-methylpropan-2-yl)oxy]propanamide
> <PUBCHEM_IUPAC_NAME_MARKUP>
(2<I>S</I>)-<I>N</I>-[2-(3,4-dihydroxyphenyl)ethyl]-2-[3-(3,4-dihydroxyphenyl)prop-2-enoylamino]-3-[(2-methylpropan-2-yl)oxy]propanamide
> <PUBCHEM_IUPAC_NAME>
(2S)-N-[2-(3,4-dihydroxyphenyl)ethyl]-2-[3-(3,4-dihydroxyphenyl)prop-2-enoylamino]-3-[(2-methylpropan-2-yl)oxy]propanamide
> <PUBCHEM_IUPAC_SYSTEMATIC_NAME>
(2S)-N-[2-[3,4-bis(oxidanyl)phenyl]ethyl]-2-[3-[3,4-bis(oxidanyl)phenyl]prop-2-enoylamino]-3-[(2-methylpropan-2-yl)oxy]propanamide
> <PUBCHEM_IUPAC_TRADITIONAL_NAME>
(2S)-3-tert-butoxy-2-(caffeoylamino)-N-[2-(3,4-dihydroxyphenyl)ethyl]propionamide
> <PUBCHEM_IUPAC_INCHI>
InChI=1S/C24H30N2O7/c1-24(2,3)33-14-17(23(32)25-11-10-16-5-8-19(28)21(30)13-16)26-22(31)9-6-15-4-7-18(27)20(29)12-15/h4-9,12-13,17,27-30H,10-11,14H2,1-3H3,(H,25,32)(H,26,31)/t17-/m0/s1
> <PUBCHEM_IUPAC_INCHIKEY>
ULWYNQBFZCTTAE-KRWDZBQOSA-N
> <PUBCHEM_XLOGP3_AA>
2.4
> <PUBCHEM_EXACT_MASS>
458.20530130
> <PUBCHEM_MOLECULAR_FORMULA>
C24H30N2O7
> <PUBCHEM_MOLECULAR_WEIGHT>
458.5
> <PUBCHEM_OPENEYE_CAN_SMILES>
CC(C)(C)OCC(C(=O)NCCC1=CC(=C(C=C1)O)O)NC(=O)C=CC2=CC(=C(C=C2)O)O
> <PUBCHEM_OPENEYE_ISO_SMILES>
CC(C)(C)OC[C@@H](C(=O)NCCC1=CC(=C(C=C1)O)O)NC(=O)C=CC2=CC(=C(C=C2)O)O
> <PUBCHEM_CACTVS_TPSA>
148
> <PUBCHEM_MONOISOTOPIC_WEIGHT>
458.20530130
> <PUBCHEM_TOTAL_CHARGE>
0
> <PUBCHEM_HEAVY_ATOM_COUNT>
33
> <PUBCHEM_ATOM_DEF_STEREO_COUNT>
1
> <PUBCHEM_ATOM_UDEF_STEREO_COUNT>
0
> <PUBCHEM_BOND_DEF_STEREO_COUNT>
0
> <PUBCHEM_BOND_UDEF_STEREO_COUNT>
1
> <PUBCHEM_ISOTOPIC_ATOM_COUNT>
0
> <PUBCHEM_COMPONENT_COUNT>
1
> <PUBCHEM_CACTVS_TAUTO_COUNT>
-1
> <PUBCHEM_COORDINATE_TYPE>
1
5
255
> <PUBCHEM_BONDANNOTATIONS>
19  21  8
19  22  8
21  24  8
22  25  8
23  27  1
24  26  8
25  26  8
28  29  8
28  30  8
29  31  8
30  32  8
31  33  8
32  33  8
11  8  6
$$$$
