504817
  -OEChem-10302200282D
 85 90  0     1  0  0  0  0  0999 V2000
    6.0010   -0.2500    0.0000 O   0  0  0  0  0  0  0  0  0  0  0  0
    6.0010   -1.2500    0.0000 O   0  0  0  0  0  0  0  0  0  0  0  0
    4.2690    5.7500    0.0000 O   0  0  0  0  0  0  0  0  0  0  0  0
    6.8671   -5.7500    0.0000 O   0  0  0  0  0  0  0  0  0  0  0  0
    2.5369    4.7500    0.0000 O   0  0  0  0  0  0  0  0  0  0  0  0
   10.0936    1.2206    0.0000 N   0  0  0  0  0  0  0  0  0  0  0  0
    9.4355    2.6987    0.0000 N   0  0  0  0  0  0  0  0  0  0  0  0
    7.7331   -1.2500    0.0000 N   0  0  0  0  0  0  0  0  0  0  0  0
    6.8671    1.2500    0.0000 N   0  0  0  0  0  0  0  0  0  0  0  0
   11.0447    0.9115    0.0000 C   0  0  0  0  0  0  0  0  0  0  0  0
   11.9957    0.6025    0.0000 C   0  0  0  0  0  0  0  0  0  0  0  0
   11.5142    1.7945    0.0000 C   0  0  0  0  0  0  0  0  0  0  0  0
   10.7357   -0.0395    0.0000 C   0  0  0  0  0  0  0  0  0  0  0  0
    9.0991    1.1160    0.0000 C   0  0  0  0  0  0  0  0  0  0  0  0
    8.5991    0.2500    0.0000 C   0  0  0  0  0  0  0  0  0  0  0  0
    7.7331   -0.2500    0.0000 C   0  0  1  0  0  0  0  0  0  0  0  0
   10.3015    2.1987    0.0000 C   0  0  0  0  0  0  0  0  0  0  0  0
    8.6924    2.0296    0.0000 C   0  0  0  0  0  0  0  0  0  0  0  0
   12.2037   -0.3756    0.0000 C   0  0  0  0  0  0  0  0  0  0  0  0
   10.9842    2.6425    0.0000 C   0  0  0  0  0  0  0  0  0  0  0  0
    9.7576   -0.2474    0.0000 C   0  0  0  0  0  0  0  0  0  0  0  0
   12.7389    1.2716    0.0000 C   0  0  0  0  0  0  0  0  0  0  0  0
   12.5136    1.8294    0.0000 C   0  0  0  0  0  0  0  0  0  0  0  0
   11.4048   -0.7827    0.0000 C   0  0  0  0  0  0  0  0  0  0  0  0
    6.8671    0.2500    0.0000 C   0  0  0  0  0  0  0  0  0  0  0  0
   13.1547   -0.6846    0.0000 C   0  0  0  0  0  0  0  0  0  0  0  0
   11.4537    3.5255    0.0000 C   0  0  0  0  0  0  0  0  0  0  0  0
    9.4486   -1.1985    0.0000 C   0  0  0  0  0  0  0  0  0  0  0  0
   13.6899    0.9626    0.0000 C   0  0  0  0  0  0  0  0  0  0  0  0
   12.9830    2.7123    0.0000 C   0  0  0  0  0  0  0  0  0  0  0  0
   11.0958   -1.7337    0.0000 C   0  0  0  0  0  0  0  0  0  0  0  0
   13.8979   -0.0155    0.0000 C   0  0  0  0  0  0  0  0  0  0  0  0
   12.4531    3.5604    0.0000 C   0  0  0  0  0  0  0  0  0  0  0  0
   10.1176   -1.9416    0.0000 C   0  0  0  0  0  0  0  0  0  0  0  0
    6.0010    1.7500    0.0000 C   0  0  0  0  0  0  0  0  0  0  0  0
    6.8671   -1.7500    0.0000 C   0  0  0  0  0  0  0  0  0  0  0  0
    6.0010    2.7500    0.0000 C   0  0  0  0  0  0  0  0  0  0  0  0
    6.8671   -2.7500    0.0000 C   0  0  0  0  0  0  0  0  0  0  0  0
    5.1350    3.2500    0.0000 C   0  0  0  0  0  0  0  0  0  0  0  0
    7.7331   -3.2500    0.0000 C   0  0  0  0  0  0  0  0  0  0  0  0
    6.0010   -3.2500    0.0000 C   0  0  0  0  0  0  0  0  0  0  0  0
    5.1350    4.2500    0.0000 C   0  0  0  0  0  0  0  0  0  0  0  0
    4.2690    2.7500    0.0000 C   0  0  0  0  0  0  0  0  0  0  0  0
    7.7331   -4.2500    0.0000 C   0  0  0  0  0  0  0  0  0  0  0  0
    6.0010   -4.2500    0.0000 C   0  0  0  0  0  0  0  0  0  0  0  0
    4.2690    4.7500    0.0000 C   0  0  0  0  0  0  0  0  0  0  0  0
    3.4030    3.2500    0.0000 C   0  0  0  0  0  0  0  0  0  0  0  0
    6.8671   -4.7500    0.0000 C   0  0  0  0  0  0  0  0  0  0  0  0
    3.4030    4.2500    0.0000 C   0  0  0  0  0  0  0  0  0  0  0  0
    8.7068   -0.3606    0.0000 H   0  0  0  0  0  0  0  0  0  0  0  0
    8.1607    0.6884    0.0000 H   0  0  0  0  0  0  0  0  0  0  0  0
    8.2700   -0.5600    0.0000 H   0  0  0  0  0  0  0  0  0  0  0  0
   10.8679    2.4509    0.0000 H   0  0  0  0  0  0  0  0  0  0  0  0
    8.0859    2.1585    0.0000 H   0  0  0  0  0  0  0  0  0  0  0  0
   11.7429   -0.7905    0.0000 H   0  0  0  0  0  0  0  0  0  0  0  0
   10.3646    2.6209    0.0000 H   0  0  0  0  0  0  0  0  0  0  0  0
    9.3427    0.2133    0.0000 H   0  0  0  0  0  0  0  0  0  0  0  0
   12.6100    1.8781    0.0000 H   0  0  0  0  0  0  0  0  0  0  0  0
   12.8421    1.3036    0.0000 H   0  0  0  0  0  0  0  0  0  0  0  0
   12.0113   -0.6538    0.0000 H   0  0  0  0  0  0  0  0  0  0  0  0
    8.2700   -1.5600    0.0000 H   0  0  0  0  0  0  0  0  0  0  0  0
   13.2836   -1.2911    0.0000 H   0  0  0  0  0  0  0  0  0  0  0  0
   11.1252    4.0513    0.0000 H   0  0  0  0  0  0  0  0  0  0  0  0
    8.8421   -1.3274    0.0000 H   0  0  0  0  0  0  0  0  0  0  0  0
   14.1507    1.3775    0.0000 H   0  0  0  0  0  0  0  0  0  0  0  0
   13.6026    2.7340    0.0000 H   0  0  0  0  0  0  0  0  0  0  0  0
   11.5106   -2.1945    0.0000 H   0  0  0  0  0  0  0  0  0  0  0  0
   14.4875   -0.2071    0.0000 H   0  0  0  0  0  0  0  0  0  0  0  0
   12.7442    4.1078    0.0000 H   0  0  0  0  0  0  0  0  0  0  0  0
    9.9260   -2.5313    0.0000 H   0  0  0  0  0  0  0  0  0  0  0  0
    7.4040    1.5600    0.0000 H   0  0  0  0  0  0  0  0  0  0  0  0
    5.3905    1.8577    0.0000 H   0  0  0  0  0  0  0  0  0  0  0  0
    5.7890    1.1674    0.0000 H   0  0  0  0  0  0  0  0  0  0  0  0
    6.6116    2.6423    0.0000 H   0  0  0  0  0  0  0  0  0  0  0  0
    6.2131    3.3326    0.0000 H   0  0  0  0  0  0  0  0  0  0  0  0
    8.2700   -2.9400    0.0000 H   0  0  0  0  0  0  0  0  0  0  0  0
    5.4641   -2.9400    0.0000 H   0  0  0  0  0  0  0  0  0  0  0  0
    5.6720    4.5600    0.0000 H   0  0  0  0  0  0  0  0  0  0  0  0
    4.2690    2.1300    0.0000 H   0  0  0  0  0  0  0  0  0  0  0  0
    8.2700   -4.5600    0.0000 H   0  0  0  0  0  0  0  0  0  0  0  0
    5.4641   -4.5600    0.0000 H   0  0  0  0  0  0  0  0  0  0  0  0
    2.8660    2.9400    0.0000 H   0  0  0  0  0  0  0  0  0  0  0  0
    4.8059    6.0600    0.0000 H   0  0  0  0  0  0  0  0  0  0  0  0
    6.3301   -6.0600    0.0000 H   0  0  0  0  0  0  0  0  0  0  0  0
    2.0000    4.4400    0.0000 H   0  0  0  0  0  0  0  0  0  0  0  0
  1 25  2  0  0  0  0
  2 36  2  0  0  0  0
  3 46  1  0  0  0  0
  3 83  1  0  0  0  0
  4 48  1  0  0  0  0
  4 84  1  0  0  0  0
  5 49  1  0  0  0  0
  5 85  1  0  0  0  0
  6 10  1  0  0  0  0
  6 14  1  0  0  0  0
  6 17  1  0  0  0  0
  7 17  2  0  0  0  0
  7 18  1  0  0  0  0
 16  8  1  6  0  0  0
  8 36  1  0  0  0  0
  8 61  1  0  0  0  0
  9 25  1  0  0  0  0
  9 35  1  0  0  0  0
  9 71  1  0  0  0  0
 10 11  1  0  0  0  0
 10 12  1  0  0  0  0
 10 13  1  0  0  0  0
 11 19  2  0  0  0  0
 11 22  1  0  0  0  0
 12 20  2  0  0  0  0
 12 23  1  0  0  0  0
 13 21  2  0  0  0  0
 13 24  1  0  0  0  0
 14 15  1  0  0  0  0
 14 18  2  0  0  0  0
 15 16  1  0  0  0  0
 15 50  1  0  0  0  0
 15 51  1  0  0  0  0
 16 25  1  0  0  0  0
 16 52  1  0  0  0  0
 17 53  1  0  0  0  0
 18 54  1  0  0  0  0
 19 26  1  0  0  0  0
 19 55  1  0  0  0  0
 20 27  1  0  0  0  0
 20 56  1  0  0  0  0
 21 28  1  0  0  0  0
 21 57  1  0  0  0  0
 22 29  2  0  0  0  0
 22 58  1  0  0  0  0
 23 30  2  0  0  0  0
 23 59  1  0  0  0  0
 24 31  2  0  0  0  0
 24 60  1  0  0  0  0
 26 32  2  0  0  0  0
 26 62  1  0  0  0  0
 27 33  2  0  0  0  0
 27 63  1  0  0  0  0
 28 34  2  0  0  0  0
 28 64  1  0  0  0  0
 29 32  1  0  0  0  0
 29 65  1  0  0  0  0
 30 33  1  0  0  0  0
 30 66  1  0  0  0  0
 31 34  1  0  0  0  0
 31 67  1  0  0  0  0
 32 68  1  0  0  0  0
 33 69  1  0  0  0  0
 34 70  1  0  0  0  0
 35 37  1  0  0  0  0
 35 72  1  0  0  0  0
 35 73  1  0  0  0  0
 36 38  1  0  0  0  0
 37 39  1  0  0  0  0
 37 74  1  0  0  0  0
 37 75  1  0  0  0  0
 38 40  2  0  0  0  0
 38 41  1  0  0  0  0
 39 42  2  0  0  0  0
 39 43  1  0  0  0  0
 40 44  1  0  0  0  0
 40 76  1  0  0  0  0
 41 45  2  0  0  0  0
 41 77  1  0  0  0  0
 42 46  1  0  0  0  0
 42 78  1  0  0  0  0
 43 47  2  0  0  0  0
 43 79  1  0  0  0  0
 44 48  2  0  0  0  0
 44 80  1  0  0  0  0
 45 48  1  0  0  0  0
 45 81  1  0  0  0  0
 46 49  2  0  0  0  0
 47 49  1  0  0  0  0
 47 82  1  0  0  0  0
M  END
> <PUBCHEM_COMPOUND_CID>
504817
> <PUBCHEM_COMPOUND_CANONICALIZED>
1
> <PUBCHEM_CACTVS_COMPLEXITY>
988
> <PUBCHEM_CACTVS_HBOND_ACCEPTOR>
6
> <PUBCHEM_CACTVS_HBOND_DONOR>
5
> <PUBCHEM_CACTVS_ROTATABLE_BOND>
12
> <PUBCHEM_CACTVS_SUBSKEYS>
AAADcfB/uAAAAAAAAAAAAAAAAAAAAWAAAAAwYMGDAAAAAAAB1AAAHgAQCAAADKzBngQ9lpfMEgCoAzV3dACCgC01MqAJ2IG+/MiJbjLC3TOUcQls1hPJ2aec3fLOoAABAAAAQABAAAIAAACAAAAAAAAAAA==
> <PUBCHEM_IUPAC_OPENEYE_NAME>
N-[(1S)-2-[2-(3,4-dihydroxyphenyl)ethylamino]-2-oxo-1-[(3-tritylimidazol-4-yl)methyl]ethyl]-4-hydroxy-benzamide
> <PUBCHEM_IUPAC_CAS_NAME>
N-[(2S)-1-[2-(3,4-dihydroxyphenyl)ethylamino]-1-oxo-3-[3-(triphenylmethyl)-4-imidazolyl]propan-2-yl]-4-hydroxybenzamide
> <PUBCHEM_IUPAC_NAME_MARKUP>
<I>N</I>-[(2<I>S</I>)-1-[2-(3,4-dihydroxyphenyl)ethylamino]-1-oxo-3-(3-tritylimidazol-4-yl)propan-2-yl]-4-hydroxybenzamide
> <PUBCHEM_IUPAC_NAME>
N-[(2S)-1-[2-(3,4-dihydroxyphenyl)ethylamino]-1-oxo-3-(3-tritylimidazol-4-yl)propan-2-yl]-4-hydroxybenzamide
> <PUBCHEM_IUPAC_SYSTEMATIC_NAME>
N-[(2S)-1-[2-[3,4-bis(oxidanyl)phenyl]ethylamino]-1-oxidanylidene-3-[3-(triphenylmethyl)imidazol-4-yl]propan-2-yl]-4-oxidanyl-benzamide
> <PUBCHEM_IUPAC_TRADITIONAL_NAME>
N-[(1S)-2-[2-(3,4-dihydroxyphenyl)ethylamino]-2-keto-1-[(3-tritylimidazol-4-yl)methyl]ethyl]-4-hydroxy-benzamide
> <PUBCHEM_IUPAC_INCHI>
InChI=1S/C40H36N4O5/c45-34-19-17-29(18-20-34)38(48)43-35(39(49)42-23-22-28-16-21-36(46)37(47)24-28)25-33-26-41-27-44(33)40(30-10-4-1-5-11-30,31-12-6-2-7-13-31)32-14-8-3-9-15-32/h1-21,24,26-27,35,45-47H,22-23,25H2,(H,42,49)(H,43,48)/t35-/m0/s1
> <PUBCHEM_IUPAC_INCHIKEY>
DCPIQVURZAUCKW-DHUJRADRSA-N
> <PUBCHEM_XLOGP3_AA>
6.3
> <PUBCHEM_EXACT_MASS>
652.26857026
> <PUBCHEM_MOLECULAR_FORMULA>
C40H36N4O5
> <PUBCHEM_MOLECULAR_WEIGHT>
652.7
> <PUBCHEM_OPENEYE_CAN_SMILES>
C1=CC=C(C=C1)C(C2=CC=CC=C2)(C3=CC=CC=C3)N4C=NC=C4CC(C(=O)NCCC5=CC(=C(C=C5)O)O)NC(=O)C6=CC=C(C=C6)O
> <PUBCHEM_OPENEYE_ISO_SMILES>
C1=CC=C(C=C1)C(C2=CC=CC=C2)(C3=CC=CC=C3)N4C=NC=C4C[C@@H](C(=O)NCCC5=CC(=C(C=C5)O)O)NC(=O)C6=CC=C(C=C6)O
> <PUBCHEM_CACTVS_TPSA>
137
> <PUBCHEM_MONOISOTOPIC_WEIGHT>
652.26857026
> <PUBCHEM_TOTAL_CHARGE>
0
> <PUBCHEM_HEAVY_ATOM_COUNT>
49
> <PUBCHEM_ATOM_DEF_STEREO_COUNT>
1
> <PUBCHEM_ATOM_UDEF_STEREO_COUNT>
0
> <PUBCHEM_BOND_DEF_STEREO_COUNT>
0
> <PUBCHEM_BOND_UDEF_STEREO_COUNT>
0
> <PUBCHEM_ISOTOPIC_ATOM_COUNT>
0
> <PUBCHEM_COMPONENT_COUNT>
1
> <PUBCHEM_CACTVS_TAUTO_COUNT>
-1
> <PUBCHEM_COORDINATE_TYPE>
1
5
255
> <PUBCHEM_BONDANNOTATIONS>
11  19  8
11  22  8
12  20  8
12  23  8
13  21  8
13  24  8
14  18  8
19  26  8
20  27  8
21  28  8
22  29  8
23  30  8
24  31  8
26  32  8
27  33  8
28  34  8
29  32  8
30  33  8
31  34  8
38  40  8
38  41  8
39  42  8
39  43  8
40  44  8
41  45  8
42  46  8
43  47  8
44  48  8
45  48  8
46  49  8
47  49  8
6  14  8
6  17  8
7  17  8
7  18  8
16  8  6
$$$$
