504847
  -OEChem-10302200282D
 90 94  0     1  0  0  0  0  0999 V2000
    4.4718    0.8651    0.0000 O   0  0  0  0  0  0  0  0  0  0  0  0
    7.7126   -1.8689    0.0000 O   0  0  0  0  0  0  0  0  0  0  0  0
    6.8466    1.6311    0.0000 O   0  0  0  0  0  0  0  0  0  0  0  0
    4.2486   -2.8689    0.0000 O   0  0  0  0  0  0  0  0  0  0  0  0
    7.7126   -4.8689    0.0000 O   0  0  0  0  0  0  0  0  0  0  0  0
   12.0428    2.6311    0.0000 O   0  0  0  0  0  0  0  0  0  0  0  0
   12.0428    4.6311    0.0000 O   0  0  0  0  0  0  0  0  0  0  0  0
    5.1146    2.6311    0.0000 N   0  0  0  0  0  0  0  0  0  0  0  0
    7.7126    0.1311    0.0000 N   0  0  0  0  0  0  0  0  0  0  0  0
    5.9806   -1.8689    0.0000 N   0  0  0  0  0  0  0  0  0  0  0  0
    4.4718    3.3971    0.0000 C   0  0  0  0  0  0  0  0  0  0  0  0
    3.8290    4.1632    0.0000 C   0  0  0  0  0  0  0  0  0  0  0  0
    5.2378    4.0399    0.0000 C   0  0  0  0  0  0  0  0  0  0  0  0
    3.7058    2.7544    0.0000 C   0  0  0  0  0  0  0  0  0  0  0  0
    5.9806    1.1311    0.0000 C   0  0  0  0  0  0  0  0  0  0  0  0
    5.1146    1.6311    0.0000 C   0  0  0  0  0  0  0  0  0  0  0  0
    5.9806    0.1311    0.0000 C   0  0  0  0  0  0  0  0  0  0  0  0
    6.8466   -0.3689    0.0000 C   0  0  1  0  0  0  0  0  0  0  0  0
    4.1710    5.1029    0.0000 C   0  0  0  0  0  0  0  0  0  0  0  0
    6.1775    3.6979    0.0000 C   0  0  0  0  0  0  0  0  0  0  0  0
    2.7661    3.0964    0.0000 C   0  0  0  0  0  0  0  0  0  0  0  0
    2.8442    3.9895    0.0000 C   0  0  0  0  0  0  0  0  0  0  0  0
    5.0642    5.0247    0.0000 C   0  0  0  0  0  0  0  0  0  0  0  0
    3.8794    1.7695    0.0000 C   0  0  0  0  0  0  0  0  0  0  0  0
    3.5282    5.8689    0.0000 C   0  0  0  0  0  0  0  0  0  0  0  0
    6.9436    4.3407    0.0000 C   0  0  0  0  0  0  0  0  0  0  0  0
    2.0000    2.4536    0.0000 C   0  0  0  0  0  0  0  0  0  0  0  0
    2.2014    4.7556    0.0000 C   0  0  0  0  0  0  0  0  0  0  0  0
    5.8302    5.6675    0.0000 C   0  0  0  0  0  0  0  0  0  0  0  0
    3.1134    1.1267    0.0000 C   0  0  0  0  0  0  0  0  0  0  0  0
    6.8466   -1.3689    0.0000 C   0  0  0  0  0  0  0  0  0  0  0  0
    2.5434    5.6953    0.0000 C   0  0  0  0  0  0  0  0  0  0  0  0
    6.7699    5.3255    0.0000 C   0  0  0  0  0  0  0  0  0  0  0  0
    2.1736    1.4688    0.0000 C   0  0  0  0  0  0  0  0  0  0  0  0
    7.7126    1.1311    0.0000 C   0  0  0  0  0  0  0  0  0  0  0  0
    5.9806   -2.8689    0.0000 C   0  0  0  0  0  0  0  0  0  0  0  0
    8.5787    1.6311    0.0000 C   0  0  0  0  0  0  0  0  0  0  0  0
    5.1146   -3.3689    0.0000 C   0  0  0  0  0  0  0  0  0  0  0  0
    6.8466   -3.3689    0.0000 C   0  0  0  0  0  0  0  0  0  0  0  0
    6.8466   -4.3689    0.0000 C   0  0  0  0  0  0  0  0  0  0  0  0
    5.1146   -4.3689    0.0000 C   0  0  0  0  0  0  0  0  0  0  0  0
    8.5787    2.6311    0.0000 C   0  0  0  0  0  0  0  0  0  0  0  0
    5.9806   -4.8689    0.0000 C   0  0  0  0  0  0  0  0  0  0  0  0
    9.4447    3.1311    0.0000 C   0  0  0  0  0  0  0  0  0  0  0  0
    3.3825   -3.3689    0.0000 C   0  0  0  0  0  0  0  0  0  0  0  0
   10.3107    2.6311    0.0000 C   0  0  0  0  0  0  0  0  0  0  0  0
    9.4447    4.1311    0.0000 C   0  0  0  0  0  0  0  0  0  0  0  0
   11.1768    3.1311    0.0000 C   0  0  0  0  0  0  0  0  0  0  0  0
    7.7126   -5.8689    0.0000 C   0  0  0  0  0  0  0  0  0  0  0  0
   10.3107    4.6311    0.0000 C   0  0  0  0  0  0  0  0  0  0  0  0
   11.1768    4.1311    0.0000 C   0  0  0  0  0  0  0  0  0  0  0  0
    5.6515    2.9411    0.0000 H   0  0  0  0  0  0  0  0  0  0  0  0
    6.5912    1.0234    0.0000 H   0  0  0  0  0  0  0  0  0  0  0  0
    6.1927    1.7137    0.0000 H   0  0  0  0  0  0  0  0  0  0  0  0
    5.3700    0.2387    0.0000 H   0  0  0  0  0  0  0  0  0  0  0  0
    5.7686   -0.4515    0.0000 H   0  0  0  0  0  0  0  0  0  0  0  0
    6.8466    0.2511    0.0000 H   0  0  0  0  0  0  0  0  0  0  0  0
    4.7816    5.2105    0.0000 H   0  0  0  0  0  0  0  0  0  0  0  0
    6.2852    3.0873    0.0000 H   0  0  0  0  0  0  0  0  0  0  0  0
    2.6584    3.7070    0.0000 H   0  0  0  0  0  0  0  0  0  0  0  0
    2.6321    3.4069    0.0000 H   0  0  0  0  0  0  0  0  0  0  0  0
    4.4816    5.2368    0.0000 H   0  0  0  0  0  0  0  0  0  0  0  0
    4.4620    1.5575    0.0000 H   0  0  0  0  0  0  0  0  0  0  0  0
    3.7403    6.4515    0.0000 H   0  0  0  0  0  0  0  0  0  0  0  0
    7.5262    4.1286    0.0000 H   0  0  0  0  0  0  0  0  0  0  0  0
    1.4174    2.6657    0.0000 H   0  0  0  0  0  0  0  0  0  0  0  0
    1.5908    4.6479    0.0000 H   0  0  0  0  0  0  0  0  0  0  0  0
    5.7226    6.2781    0.0000 H   0  0  0  0  0  0  0  0  0  0  0  0
    3.2210    0.5161    0.0000 H   0  0  0  0  0  0  0  0  0  0  0  0
    8.2496   -0.1789    0.0000 H   0  0  0  0  0  0  0  0  0  0  0  0
    2.1449    6.1702    0.0000 H   0  0  0  0  0  0  0  0  0  0  0  0
    7.2449    5.7240    0.0000 H   0  0  0  0  0  0  0  0  0  0  0  0
    1.6987    1.0703    0.0000 H   0  0  0  0  0  0  0  0  0  0  0  0
    5.4437   -1.5589    0.0000 H   0  0  0  0  0  0  0  0  0  0  0  0
    9.1156    1.3211    0.0000 H   0  0  0  0  0  0  0  0  0  0  0  0
    7.3836   -3.0589    0.0000 H   0  0  0  0  0  0  0  0  0  0  0  0
    4.5776   -4.6789    0.0000 H   0  0  0  0  0  0  0  0  0  0  0  0
    8.0417    2.9411    0.0000 H   0  0  0  0  0  0  0  0  0  0  0  0
    5.9806   -5.4889    0.0000 H   0  0  0  0  0  0  0  0  0  0  0  0
   10.3107    2.0111    0.0000 H   0  0  0  0  0  0  0  0  0  0  0  0
    3.0725   -2.8320    0.0000 H   0  0  0  0  0  0  0  0  0  0  0  0
    2.8456   -3.6789    0.0000 H   0  0  0  0  0  0  0  0  0  0  0  0
    3.6925   -3.9058    0.0000 H   0  0  0  0  0  0  0  0  0  0  0  0
    8.9078    4.4411    0.0000 H   0  0  0  0  0  0  0  0  0  0  0  0
    7.0926   -5.8689    0.0000 H   0  0  0  0  0  0  0  0  0  0  0  0
    7.7126   -6.4889    0.0000 H   0  0  0  0  0  0  0  0  0  0  0  0
    8.3326   -5.8689    0.0000 H   0  0  0  0  0  0  0  0  0  0  0  0
   10.3107    5.2511    0.0000 H   0  0  0  0  0  0  0  0  0  0  0  0
   12.5797    2.9411    0.0000 H   0  0  0  0  0  0  0  0  0  0  0  0
   12.0428    5.2511    0.0000 H   0  0  0  0  0  0  0  0  0  0  0  0
  1 16  2  0  0  0  0
  2 31  2  0  0  0  0
  3 35  2  0  0  0  0
  4 38  1  0  0  0  0
  4 45  1  0  0  0  0
  5 40  1  0  0  0  0
  5 49  1  0  0  0  0
  6 48  1  0  0  0  0
  6 89  1  0  0  0  0
  7 51  1  0  0  0  0
  7 90  1  0  0  0  0
  8 11  1  0  0  0  0
  8 16  1  0  0  0  0
  8 52  1  0  0  0  0
 18  9  1  6  0  0  0
  9 35  1  0  0  0  0
  9 70  1  0  0  0  0
 10 31  1  0  0  0  0
 10 36  1  0  0  0  0
 10 74  1  0  0  0  0
 11 12  1  0  0  0  0
 11 13  1  0  0  0  0
 11 14  1  0  0  0  0
 12 19  2  0  0  0  0
 12 22  1  0  0  0  0
 13 20  2  0  0  0  0
 13 23  1  0  0  0  0
 14 21  2  0  0  0  0
 14 24  1  0  0  0  0
 15 16  1  0  0  0  0
 15 17  1  0  0  0  0
 15 53  1  0  0  0  0
 15 54  1  0  0  0  0
 17 18  1  0  0  0  0
 17 55  1  0  0  0  0
 17 56  1  0  0  0  0
 18 31  1  0  0  0  0
 18 57  1  0  0  0  0
 19 25  1  0  0  0  0
 19 58  1  0  0  0  0
 20 26  1  0  0  0  0
 20 59  1  0  0  0  0
 21 27  1  0  0  0  0
 21 60  1  0  0  0  0
 22 28  2  0  0  0  0
 22 61  1  0  0  0  0
 23 29  2  0  0  0  0
 23 62  1  0  0  0  0
 24 30  2  0  0  0  0
 24 63  1  0  0  0  0
 25 32  2  0  0  0  0
 25 64  1  0  0  0  0
 26 33  2  0  0  0  0
 26 65  1  0  0  0  0
 27 34  2  0  0  0  0
 27 66  1  0  0  0  0
 28 32  1  0  0  0  0
 28 67  1  0  0  0  0
 29 33  1  0  0  0  0
 29 68  1  0  0  0  0
 30 34  1  0  0  0  0
 30 69  1  0  0  0  0
 32 71  1  0  0  0  0
 33 72  1  0  0  0  0
 34 73  1  0  0  0  0
 35 37  1  0  0  0  0
 36 38  2  0  0  0  0
 36 39  1  0  0  0  0
 37 42  2  3  0  0  0
 37 75  1  0  0  0  0
 38 41  1  0  0  0  0
 39 40  2  0  0  0  0
 39 76  1  0  0  0  0
 40 43  1  0  0  0  0
 41 43  2  0  0  0  0
 41 77  1  0  0  0  0
 42 44  1  0  0  0  0
 42 78  1  0  0  0  0
 43 79  1  0  0  0  0
 44 46  2  0  0  0  0
 44 47  1  0  0  0  0
 45 81  1  0  0  0  0
 45 82  1  0  0  0  0
 45 83  1  0  0  0  0
 46 48  1  0  0  0  0
 46 80  1  0  0  0  0
 47 50  2  0  0  0  0
 47 84  1  0  0  0  0
 48 51  2  0  0  0  0
 49 85  1  0  0  0  0
 49 86  1  0  0  0  0
 49 87  1  0  0  0  0
 50 51  1  0  0  0  0
 50 88  1  0  0  0  0
M  END
> <PUBCHEM_COMPOUND_CID>
504847
> <PUBCHEM_COMPOUND_CANONICALIZED>
1
> <PUBCHEM_CACTVS_COMPLEXITY>
1080
> <PUBCHEM_CACTVS_HBOND_ACCEPTOR>
7
> <PUBCHEM_CACTVS_HBOND_DONOR>
5
> <PUBCHEM_CACTVS_ROTATABLE_BOND>
14
> <PUBCHEM_CACTVS_SUBSKEYS>
AAADcfB/OAAAAAAAAAAAAAAAAAAAAAAAAAAwYMGDAAAAAAABVAAAHgAQCAAADKzBmAYyxoLABgCIAiVSUACCCAAhIgAIiIGP7MgPZjLGsbuVcClm1hnZ+Yfc09MOoQABAgAAUABCAAIEAACgAAAAAAAAAA==
> <PUBCHEM_IUPAC_OPENEYE_NAME>
(2S)-2-[3-(3,4-dihydroxyphenyl)prop-2-enoylamino]-N-(2,5-dimethoxyphenyl)-N'-trityl-pentanediamide
> <PUBCHEM_IUPAC_CAS_NAME>
(2S)-2-[[3-(3,4-dihydroxyphenyl)-1-oxoprop-2-enyl]amino]-N-(2,5-dimethoxyphenyl)-N'-(triphenylmethyl)pentanediamide
> <PUBCHEM_IUPAC_NAME_MARKUP>
(2<I>S</I>)-2-[3-(3,4-dihydroxyphenyl)prop-2-enoylamino]-<I>N</I>-(2,5-dimethoxyphenyl)-<I>N</I>&apos;-tritylpentanediamide
> <PUBCHEM_IUPAC_NAME>
(2S)-2-[3-(3,4-dihydroxyphenyl)prop-2-enoylamino]-N-(2,5-dimethoxyphenyl)-N'-tritylpentanediamide
> <PUBCHEM_IUPAC_SYSTEMATIC_NAME>
(2S)-2-[3-[3,4-bis(oxidanyl)phenyl]prop-2-enoylamino]-N-(2,5-dimethoxyphenyl)-N'-(triphenylmethyl)pentanediamide
> <PUBCHEM_IUPAC_TRADITIONAL_NAME>
(2S)-2-(caffeoylamino)-N-(2,5-dimethoxyphenyl)-N'-trityl-glutaramide
> <PUBCHEM_IUPAC_INCHI>
InChI=1S/C41H39N3O7/c1-50-32-20-23-37(51-2)34(27-32)43-40(49)33(42-38(47)24-19-28-18-22-35(45)36(46)26-28)21-25-39(48)44-41(29-12-6-3-7-13-29,30-14-8-4-9-15-30)31-16-10-5-11-17-31/h3-20,22-24,26-27,33,45-46H,21,25H2,1-2H3,(H,42,47)(H,43,49)(H,44,48)/t33-/m0/s1
> <PUBCHEM_IUPAC_INCHIKEY>
FKGVRXKBZHBASR-XIFFEERXSA-N
> <PUBCHEM_XLOGP3_AA>
6.1
> <PUBCHEM_EXACT_MASS>
685.27880059
> <PUBCHEM_MOLECULAR_FORMULA>
C41H39N3O7
> <PUBCHEM_MOLECULAR_WEIGHT>
685.8
> <PUBCHEM_OPENEYE_CAN_SMILES>
COC1=CC(=C(C=C1)OC)NC(=O)C(CCC(=O)NC(C2=CC=CC=C2)(C3=CC=CC=C3)C4=CC=CC=C4)NC(=O)C=CC5=CC(=C(C=C5)O)O
> <PUBCHEM_OPENEYE_ISO_SMILES>
COC1=CC(=C(C=C1)OC)NC(=O)[C@H](CCC(=O)NC(C2=CC=CC=C2)(C3=CC=CC=C3)C4=CC=CC=C4)NC(=O)C=CC5=CC(=C(C=C5)O)O
> <PUBCHEM_CACTVS_TPSA>
146
> <PUBCHEM_MONOISOTOPIC_WEIGHT>
685.27880059
> <PUBCHEM_TOTAL_CHARGE>
0
> <PUBCHEM_HEAVY_ATOM_COUNT>
51
> <PUBCHEM_ATOM_DEF_STEREO_COUNT>
1
> <PUBCHEM_ATOM_UDEF_STEREO_COUNT>
0
> <PUBCHEM_BOND_DEF_STEREO_COUNT>
0
> <PUBCHEM_BOND_UDEF_STEREO_COUNT>
1
> <PUBCHEM_ISOTOPIC_ATOM_COUNT>
0
> <PUBCHEM_COMPONENT_COUNT>
1
> <PUBCHEM_CACTVS_TAUTO_COUNT>
-1
> <PUBCHEM_COORDINATE_TYPE>
1
5
255
> <PUBCHEM_BONDANNOTATIONS>
12  19  8
12  22  8
13  20  8
13  23  8
14  21  8
14  24  8
19  25  8
20  26  8
21  27  8
22  28  8
23  29  8
24  30  8
25  32  8
26  33  8
27  34  8
28  32  8
29  33  8
30  34  8
36  38  8
36  39  8
37  42  1
38  41  8
39  40  8
40  43  8
41  43  8
44  46  8
44  47  8
46  48  8
47  50  8
48  51  8
50  51  8
18  9  6
$$$$
