504860
  -OEChem-10302200282D
 62 65  0     1  0  0  0  0  0999 V2000
    2.3176   -5.6658    0.0000 F   0  0  0  0  0  0  0  0  0  0  0  0
    6.7619   -1.7994    0.0000 O   0  0  0  0  0  0  0  0  0  0  0  0
    9.2619   -0.9333    0.0000 O   0  0  0  0  0  0  0  0  0  0  0  0
    7.7619    1.6648    0.0000 O   0  0  0  0  0  0  0  0  0  0  0  0
   13.7619    3.3968    0.0000 O   0  0  0  0  0  0  0  0  0  0  0  0
   12.7619    5.1288    0.0000 O   0  0  0  0  0  0  0  0  0  0  0  0
    4.6783   -1.7381    0.0000 N   0  0  0  0  0  0  0  0  0  0  0  0
    6.7619   -0.0673    0.0000 N   0  0  0  0  0  0  0  0  0  0  0  0
    9.2619    0.7987    0.0000 N   0  0  0  0  0  0  0  0  0  0  0  0
    3.7320   -1.4333    0.0000 C   0  0  0  0  0  0  0  0  0  0  0  0
    5.2619   -0.9333    0.0000 C   0  0  0  0  0  0  0  0  0  0  0  0
    3.7320   -0.4333    0.0000 C   0  0  0  0  0  0  0  0  0  0  0  0
    4.9889   -2.6886    0.0000 C   0  0  0  0  0  0  0  0  0  0  0  0
    4.6783   -0.1286    0.0000 C   0  0  0  0  0  0  0  0  0  0  0  0
    7.7619   -0.0673    0.0000 C   0  0  2  0  0  0  0  0  0  0  0  0
    6.2619   -0.9333    0.0000 C   0  0  0  0  0  0  0  0  0  0  0  0
    4.3211   -3.4329    0.0000 C   0  0  0  0  0  0  0  0  0  0  0  0
    2.8660   -1.9333    0.0000 C   0  0  0  0  0  0  0  0  0  0  0  0
    2.8660    0.0667    0.0000 C   0  0  0  0  0  0  0  0  0  0  0  0
    8.2619    0.7987    0.0000 C   0  0  0  0  0  0  0  0  0  0  0  0
    8.2619   -0.9333    0.0000 C   0  0  0  0  0  0  0  0  0  0  0  0
    2.0000   -1.4333    0.0000 C   0  0  0  0  0  0  0  0  0  0  0  0
    2.0000   -0.4333    0.0000 C   0  0  0  0  0  0  0  0  0  0  0  0
    9.7619    1.6648    0.0000 C   0  0  0  0  0  0  0  0  0  0  0  0
   10.7619    1.6648    0.0000 C   0  0  0  0  0  0  0  0  0  0  0  0
    4.6318   -4.3834    0.0000 C   0  0  0  0  0  0  0  0  0  0  0  0
    3.3426   -3.2267    0.0000 C   0  0  0  0  0  0  0  0  0  0  0  0
   11.2619    2.5308    0.0000 C   0  0  0  0  0  0  0  0  0  0  0  0
    3.9639   -5.1277    0.0000 C   0  0  0  0  0  0  0  0  0  0  0  0
    2.6747   -3.9710    0.0000 C   0  0  0  0  0  0  0  0  0  0  0  0
    2.9854   -4.9215    0.0000 C   0  0  0  0  0  0  0  0  0  0  0  0
   12.2619    2.5308    0.0000 C   0  0  0  0  0  0  0  0  0  0  0  0
   10.7619    3.3968    0.0000 C   0  0  0  0  0  0  0  0  0  0  0  0
   12.7619    3.3968    0.0000 C   0  0  0  0  0  0  0  0  0  0  0  0
   11.2619    4.2628    0.0000 C   0  0  0  0  0  0  0  0  0  0  0  0
   12.2619    4.2628    0.0000 C   0  0  0  0  0  0  0  0  0  0  0  0
    5.3715   -3.1765    0.0000 H   0  0  0  0  0  0  0  0  0  0  0  0
    5.5359   -2.3966    0.0000 H   0  0  0  0  0  0  0  0  0  0  0  0
    4.8709    0.4607    0.0000 H   0  0  0  0  0  0  0  0  0  0  0  0
    7.4519    0.4696    0.0000 H   0  0  0  0  0  0  0  0  0  0  0  0
    2.8660   -2.5533    0.0000 H   0  0  0  0  0  0  0  0  0  0  0  0
    6.4519    0.4696    0.0000 H   0  0  0  0  0  0  0  0  0  0  0  0
    2.8660    0.6867    0.0000 H   0  0  0  0  0  0  0  0  0  0  0  0
    7.6793   -1.1454    0.0000 H   0  0  0  0  0  0  0  0  0  0  0  0
    8.3695   -1.5439    0.0000 H   0  0  0  0  0  0  0  0  0  0  0  0
    1.4631   -1.7433    0.0000 H   0  0  0  0  0  0  0  0  0  0  0  0
    1.4631   -0.1233    0.0000 H   0  0  0  0  0  0  0  0  0  0  0  0
    9.8695    2.2753    0.0000 H   0  0  0  0  0  0  0  0  0  0  0  0
    9.1793    1.8768    0.0000 H   0  0  0  0  0  0  0  0  0  0  0  0
   10.6542    1.0542    0.0000 H   0  0  0  0  0  0  0  0  0  0  0  0
   11.3445    1.4527    0.0000 H   0  0  0  0  0  0  0  0  0  0  0  0
    9.5719    0.2618    0.0000 H   0  0  0  0  0  0  0  0  0  0  0  0
    5.2384   -4.5113    0.0000 H   0  0  0  0  0  0  0  0  0  0  0  0
    3.1500   -2.6373    0.0000 H   0  0  0  0  0  0  0  0  0  0  0  0
    4.1565   -5.7170    0.0000 H   0  0  0  0  0  0  0  0  0  0  0  0
    2.0681   -3.8431    0.0000 H   0  0  0  0  0  0  0  0  0  0  0  0
   12.5719    1.9938    0.0000 H   0  0  0  0  0  0  0  0  0  0  0  0
   10.1419    3.3968    0.0000 H   0  0  0  0  0  0  0  0  0  0  0  0
    9.5719   -1.4703    0.0000 H   0  0  0  0  0  0  0  0  0  0  0  0
   10.9519    4.7998    0.0000 H   0  0  0  0  0  0  0  0  0  0  0  0
   14.0719    2.8599    0.0000 H   0  0  0  0  0  0  0  0  0  0  0  0
   12.4519    5.6658    0.0000 H   0  0  0  0  0  0  0  0  0  0  0  0
  1 31  1  0  0  0  0
  2 16  2  0  0  0  0
  3 21  1  0  0  0  0
  3 59  1  0  0  0  0
  4 20  2  0  0  0  0
  5 34  1  0  0  0  0
  5 61  1  0  0  0  0
  6 36  1  0  0  0  0
  6 62  1  0  0  0  0
  7 10  1  0  0  0  0
  7 11  1  0  0  0  0
  7 13  1  0  0  0  0
 15  8  1  6  0  0  0
  8 16  1  0  0  0  0
  8 42  1  0  0  0  0
  9 20  1  0  0  0  0
  9 24  1  0  0  0  0
  9 52  1  0  0  0  0
 10 12  1  0  0  0  0
 10 18  2  0  0  0  0
 11 14  2  0  0  0  0
 11 16  1  0  0  0  0
 12 14  1  0  0  0  0
 12 19  2  0  0  0  0
 13 17  1  0  0  0  0
 13 37  1  0  0  0  0
 13 38  1  0  0  0  0
 14 39  1  0  0  0  0
 15 20  1  0  0  0  0
 15 21  1  0  0  0  0
 15 40  1  0  0  0  0
 17 26  2  0  0  0  0
 17 27  1  0  0  0  0
 18 22  1  0  0  0  0
 18 41  1  0  0  0  0
 19 23  1  0  0  0  0
 19 43  1  0  0  0  0
 21 44  1  0  0  0  0
 21 45  1  0  0  0  0
 22 23  2  0  0  0  0
 22 46  1  0  0  0  0
 23 47  1  0  0  0  0
 24 25  1  0  0  0  0
 24 48  1  0  0  0  0
 24 49  1  0  0  0  0
 25 28  1  0  0  0  0
 25 50  1  0  0  0  0
 25 51  1  0  0  0  0
 26 29  1  0  0  0  0
 26 53  1  0  0  0  0
 27 30  2  0  0  0  0
 27 54  1  0  0  0  0
 28 32  2  0  0  0  0
 28 33  1  0  0  0  0
 29 31  2  0  0  0  0
 29 55  1  0  0  0  0
 30 31  1  0  0  0  0
 30 56  1  0  0  0  0
 32 34  1  0  0  0  0
 32 57  1  0  0  0  0
 33 35  2  0  0  0  0
 33 58  1  0  0  0  0
 34 36  2  0  0  0  0
 35 36  1  0  0  0  0
 35 60  1  0  0  0  0
M  END
> <PUBCHEM_COMPOUND_CID>
504860
> <PUBCHEM_COMPOUND_CANONICALIZED>
1
> <PUBCHEM_CACTVS_COMPLEXITY>
734
> <PUBCHEM_CACTVS_HBOND_ACCEPTOR>
6
> <PUBCHEM_CACTVS_HBOND_DONOR>
5
> <PUBCHEM_CACTVS_ROTATABLE_BOND>
9
> <PUBCHEM_CACTVS_SUBSKEYS>
AAADceB7OQAAAAAAAAAAAAAAAAAAAWAAAAAwYMAAAAAAAFgB9AAAHwAQCAAADCzhng4wxvPMEgCoAyVyVACCgCAnIiAI2KG+7NgLdvbClbOUcQlm9hHZ2YeY2bKeIAABAAACQABAAAIAAASAAAAAAAAAAA==
> <PUBCHEM_IUPAC_OPENEYE_NAME>
N-[(1S)-2-[2-(3,4-dihydroxyphenyl)ethylamino]-1-(hydroxymethyl)-2-oxo-ethyl]-1-[(4-fluorophenyl)methyl]indole-2-carboxamide
> <PUBCHEM_IUPAC_CAS_NAME>
N-[(2S)-1-[2-(3,4-dihydroxyphenyl)ethylamino]-3-hydroxy-1-oxopropan-2-yl]-1-[(4-fluorophenyl)methyl]-2-indolecarboxamide
> <PUBCHEM_IUPAC_NAME_MARKUP>
<I>N</I>-[(2<I>S</I>)-1-[2-(3,4-dihydroxyphenyl)ethylamino]-3-hydroxy-1-oxopropan-2-yl]-1-[(4-fluorophenyl)methyl]indole-2-carboxamide
> <PUBCHEM_IUPAC_NAME>
N-[(2S)-1-[2-(3,4-dihydroxyphenyl)ethylamino]-3-hydroxy-1-oxopropan-2-yl]-1-[(4-fluorophenyl)methyl]indole-2-carboxamide
> <PUBCHEM_IUPAC_SYSTEMATIC_NAME>
N-[(2S)-1-[2-[3,4-bis(oxidanyl)phenyl]ethylamino]-3-oxidanyl-1-oxidanylidene-propan-2-yl]-1-[(4-fluorophenyl)methyl]indole-2-carboxamide
> <PUBCHEM_IUPAC_TRADITIONAL_NAME>
N-[(1S)-2-[2-(3,4-dihydroxyphenyl)ethylamino]-2-keto-1-methylol-ethyl]-1-(4-fluorobenzyl)indole-2-carboxamide
> <PUBCHEM_IUPAC_INCHI>
InChI=1S/C27H26FN3O5/c28-20-8-5-18(6-9-20)15-31-22-4-2-1-3-19(22)14-23(31)27(36)30-21(16-32)26(35)29-12-11-17-7-10-24(33)25(34)13-17/h1-10,13-14,21,32-34H,11-12,15-16H2,(H,29,35)(H,30,36)/t21-/m0/s1
> <PUBCHEM_IUPAC_INCHIKEY>
CPGXGXAUPQJSDI-NRFANRHFSA-N
> <PUBCHEM_XLOGP3_AA>
3.2
> <PUBCHEM_EXACT_MASS>
491.18564910
> <PUBCHEM_MOLECULAR_FORMULA>
C27H26FN3O5
> <PUBCHEM_MOLECULAR_WEIGHT>
491.5
> <PUBCHEM_OPENEYE_CAN_SMILES>
C1=CC=C2C(=C1)C=C(N2CC3=CC=C(C=C3)F)C(=O)NC(CO)C(=O)NCCC4=CC(=C(C=C4)O)O
> <PUBCHEM_OPENEYE_ISO_SMILES>
C1=CC=C2C(=C1)C=C(N2CC3=CC=C(C=C3)F)C(=O)N[C@@H](CO)C(=O)NCCC4=CC(=C(C=C4)O)O
> <PUBCHEM_CACTVS_TPSA>
124
> <PUBCHEM_MONOISOTOPIC_WEIGHT>
491.18564910
> <PUBCHEM_TOTAL_CHARGE>
0
> <PUBCHEM_HEAVY_ATOM_COUNT>
36
> <PUBCHEM_ATOM_DEF_STEREO_COUNT>
1
> <PUBCHEM_ATOM_UDEF_STEREO_COUNT>
0
> <PUBCHEM_BOND_DEF_STEREO_COUNT>
0
> <PUBCHEM_BOND_UDEF_STEREO_COUNT>
0
> <PUBCHEM_ISOTOPIC_ATOM_COUNT>
0
> <PUBCHEM_COMPONENT_COUNT>
1
> <PUBCHEM_CACTVS_TAUTO_COUNT>
-1
> <PUBCHEM_COORDINATE_TYPE>
1
5
255
> <PUBCHEM_BONDANNOTATIONS>
10  12  8
10  18  8
11  14  8
12  14  8
12  19  8
17  26  8
17  27  8
18  22  8
19  23  8
22  23  8
26  29  8
27  30  8
28  32  8
28  33  8
29  31  8
30  31  8
32  34  8
33  35  8
34  36  8
35  36  8
7  10  8
7  11  8
15  8  6
$$$$
