504809
  -OEChem-10302200282D
 69 70  0     1  0  0  0  0  0999 V2000
    5.4641    2.1900    0.0000 O   0  0  0  0  0  0  0  0  0  0  0  0
    8.0622    0.6900    0.0000 O   0  0  0  0  0  0  0  0  0  0  0  0
    4.5981   -0.3100    0.0000 O   0  0  0  0  0  0  0  0  0  0  0  0
   11.5263    3.6900    0.0000 O   0  0  0  0  0  0  0  0  0  0  0  0
   11.5263    5.6900    0.0000 O   0  0  0  0  0  0  0  0  0  0  0  0
    2.8660   -3.3100    0.0000 O   0  0  0  0  0  0  0  0  0  0  0  0
    6.3301   -5.3100    0.0000 O   0  0  0  0  0  0  0  0  0  0  0  0
    6.3301   -0.3100    0.0000 N   0  0  0  0  0  0  0  0  0  0  0  0
    7.1962    2.1900    0.0000 N   0  0  0  0  0  0  0  0  0  0  0  0
    4.5981    2.6900    0.0000 C   0  0  0  0  0  0  0  0  0  0  0  0
    6.3301    0.6900    0.0000 C   0  0  1  0  0  0  0  0  0  0  0  0
    5.4641    1.1900    0.0000 C   0  0  0  0  0  0  0  0  0  0  0  0
    3.7320    3.1900    0.0000 C   0  0  0  0  0  0  0  0  0  0  0  0
    5.0981    3.5560    0.0000 C   0  0  0  0  0  0  0  0  0  0  0  0
    4.0981    1.8240    0.0000 C   0  0  0  0  0  0  0  0  0  0  0  0
    7.1962    1.1900    0.0000 C   0  0  0  0  0  0  0  0  0  0  0  0
    8.0622    2.6900    0.0000 C   0  0  0  0  0  0  0  0  0  0  0  0
    8.0622    3.6900    0.0000 C   0  0  0  0  0  0  0  0  0  0  0  0
    8.9282    4.1900    0.0000 C   0  0  0  0  0  0  0  0  0  0  0  0
    5.4641   -0.8100    0.0000 C   0  0  0  0  0  0  0  0  0  0  0  0
    9.7942    3.6900    0.0000 C   0  0  0  0  0  0  0  0  0  0  0  0
    8.9282    5.1900    0.0000 C   0  0  0  0  0  0  0  0  0  0  0  0
    5.4641   -1.8100    0.0000 C   0  0  0  0  0  0  0  0  0  0  0  0
   10.6603    4.1900    0.0000 C   0  0  0  0  0  0  0  0  0  0  0  0
    9.7942    5.6900    0.0000 C   0  0  0  0  0  0  0  0  0  0  0  0
   10.6603    5.1900    0.0000 C   0  0  0  0  0  0  0  0  0  0  0  0
    4.5981   -2.3100    0.0000 C   0  0  0  0  0  0  0  0  0  0  0  0
    4.5981   -3.3100    0.0000 C   0  0  0  0  0  0  0  0  0  0  0  0
    3.7320   -3.8100    0.0000 C   0  0  0  0  0  0  0  0  0  0  0  0
    5.4641   -3.8100    0.0000 C   0  0  0  0  0  0  0  0  0  0  0  0
    5.4641   -4.8100    0.0000 C   0  0  0  0  0  0  0  0  0  0  0  0
    3.7320   -4.8100    0.0000 C   0  0  0  0  0  0  0  0  0  0  0  0
    4.5981   -5.3100    0.0000 C   0  0  0  0  0  0  0  0  0  0  0  0
    2.0000   -3.8100    0.0000 C   0  0  0  0  0  0  0  0  0  0  0  0
    6.3301   -6.3100    0.0000 C   0  0  0  0  0  0  0  0  0  0  0  0
    6.8671    0.3800    0.0000 H   0  0  0  0  0  0  0  0  0  0  0  0
    4.8535    1.2977    0.0000 H   0  0  0  0  0  0  0  0  0  0  0  0
    5.2520    0.6074    0.0000 H   0  0  0  0  0  0  0  0  0  0  0  0
    4.0420    3.7269    0.0000 H   0  0  0  0  0  0  0  0  0  0  0  0
    3.1951    3.5000    0.0000 H   0  0  0  0  0  0  0  0  0  0  0  0
    3.4220    2.6531    0.0000 H   0  0  0  0  0  0  0  0  0  0  0  0
    5.6350    3.2460    0.0000 H   0  0  0  0  0  0  0  0  0  0  0  0
    5.4081    4.0930    0.0000 H   0  0  0  0  0  0  0  0  0  0  0  0
    4.5611    3.8660    0.0000 H   0  0  0  0  0  0  0  0  0  0  0  0
    3.5611    2.1340    0.0000 H   0  0  0  0  0  0  0  0  0  0  0  0
    3.7881    1.2870    0.0000 H   0  0  0  0  0  0  0  0  0  0  0  0
    4.6350    1.5140    0.0000 H   0  0  0  0  0  0  0  0  0  0  0  0
    6.8671   -0.6200    0.0000 H   0  0  0  0  0  0  0  0  0  0  0  0
    8.2742    2.1074    0.0000 H   0  0  0  0  0  0  0  0  0  0  0  0
    8.6728    2.7977    0.0000 H   0  0  0  0  0  0  0  0  0  0  0  0
    6.6592    2.5000    0.0000 H   0  0  0  0  0  0  0  0  0  0  0  0
    7.8501    4.2726    0.0000 H   0  0  0  0  0  0  0  0  0  0  0  0
    7.4516    3.5823    0.0000 H   0  0  0  0  0  0  0  0  0  0  0  0
    9.7942    3.0700    0.0000 H   0  0  0  0  0  0  0  0  0  0  0  0
    8.3913    5.5000    0.0000 H   0  0  0  0  0  0  0  0  0  0  0  0
    6.0010   -2.1200    0.0000 H   0  0  0  0  0  0  0  0  0  0  0  0
    9.7942    6.3100    0.0000 H   0  0  0  0  0  0  0  0  0  0  0  0
    4.0611   -2.0000    0.0000 H   0  0  0  0  0  0  0  0  0  0  0  0
    6.0010   -3.5000    0.0000 H   0  0  0  0  0  0  0  0  0  0  0  0
    3.1951   -5.1200    0.0000 H   0  0  0  0  0  0  0  0  0  0  0  0
   12.0632    4.0000    0.0000 H   0  0  0  0  0  0  0  0  0  0  0  0
    4.5981   -5.9300    0.0000 H   0  0  0  0  0  0  0  0  0  0  0  0
   11.5263    6.3100    0.0000 H   0  0  0  0  0  0  0  0  0  0  0  0
    1.6900   -3.2731    0.0000 H   0  0  0  0  0  0  0  0  0  0  0  0
    1.4631   -4.1200    0.0000 H   0  0  0  0  0  0  0  0  0  0  0  0
    2.3100   -4.3469    0.0000 H   0  0  0  0  0  0  0  0  0  0  0  0
    5.7101   -6.3100    0.0000 H   0  0  0  0  0  0  0  0  0  0  0  0
    6.3301   -6.9300    0.0000 H   0  0  0  0  0  0  0  0  0  0  0  0
    6.9501   -6.3100    0.0000 H   0  0  0  0  0  0  0  0  0  0  0  0
  1 10  1  0  0  0  0
  1 12  1  0  0  0  0
  2 16  2  0  0  0  0
  3 20  2  0  0  0  0
  4 24  1  0  0  0  0
  4 61  1  0  0  0  0
  5 26  1  0  0  0  0
  5 63  1  0  0  0  0
  6 29  1  0  0  0  0
  6 34  1  0  0  0  0
  7 31  1  0  0  0  0
  7 35  1  0  0  0  0
 11  8  1  1  0  0  0
  8 20  1  0  0  0  0
  8 48  1  0  0  0  0
  9 16  1  0  0  0  0
  9 17  1  0  0  0  0
  9 51  1  0  0  0  0
 10 13  1  0  0  0  0
 10 14  1  0  0  0  0
 10 15  1  0  0  0  0
 11 12  1  0  0  0  0
 11 16  1  0  0  0  0
 11 36  1  0  0  0  0
 12 37  1  0  0  0  0
 12 38  1  0  0  0  0
 13 39  1  0  0  0  0
 13 40  1  0  0  0  0
 13 41  1  0  0  0  0
 14 42  1  0  0  0  0
 14 43  1  0  0  0  0
 14 44  1  0  0  0  0
 15 45  1  0  0  0  0
 15 46  1  0  0  0  0
 15 47  1  0  0  0  0
 17 18  1  0  0  0  0
 17 49  1  0  0  0  0
 17 50  1  0  0  0  0
 18 19  1  0  0  0  0
 18 52  1  0  0  0  0
 18 53  1  0  0  0  0
 19 21  2  0  0  0  0
 19 22  1  0  0  0  0
 20 23  1  0  0  0  0
 21 24  1  0  0  0  0
 21 54  1  0  0  0  0
 22 25  2  0  0  0  0
 22 55  1  0  0  0  0
 23 27  2  3  0  0  0
 23 56  1  0  0  0  0
 24 26  2  0  0  0  0
 25 26  1  0  0  0  0
 25 57  1  0  0  0  0
 27 28  1  0  0  0  0
 27 58  1  0  0  0  0
 28 29  2  0  0  0  0
 28 30  1  0  0  0  0
 29 32  1  0  0  0  0
 30 31  2  0  0  0  0
 30 59  1  0  0  0  0
 31 33  1  0  0  0  0
 32 33  2  0  0  0  0
 32 60  1  0  0  0  0
 33 62  1  0  0  0  0
 34 64  1  0  0  0  0
 34 65  1  0  0  0  0
 34 66  1  0  0  0  0
 35 67  1  0  0  0  0
 35 68  1  0  0  0  0
 35 69  1  0  0  0  0
M  END
> <PUBCHEM_COMPOUND_CID>
504809
> <PUBCHEM_COMPOUND_CANONICALIZED>
1
> <PUBCHEM_CACTVS_COMPLEXITY>
694
> <PUBCHEM_CACTVS_HBOND_ACCEPTOR>
7
> <PUBCHEM_CACTVS_HBOND_DONOR>
4
> <PUBCHEM_CACTVS_ROTATABLE_BOND>
12
> <PUBCHEM_CACTVS_SUBSKEYS>
AAADcfB7OAAAAAAAAAAAAAAAAAAAAAAAAAAwYAAAAAAAAAABQAAAHgAQCAAADGzhmAYyBoLABgCIAiFSEACCCAAgIAAIiIGOiMgPZiaGsTuXcCEm9hGZuYfQ0LIOIQABAAAIQABCAAIAABCAAAAAAAAAAA==
> <PUBCHEM_IUPAC_OPENEYE_NAME>
(2S)-3-tert-butoxy-N-[2-(3,4-dihydroxyphenyl)ethyl]-2-[3-(2,5-dimethoxyphenyl)prop-2-enoylamino]propanamide
> <PUBCHEM_IUPAC_CAS_NAME>
(2S)-N-[2-(3,4-dihydroxyphenyl)ethyl]-2-[[3-(2,5-dimethoxyphenyl)-1-oxoprop-2-enyl]amino]-3-[(2-methylpropan-2-yl)oxy]propanamide
> <PUBCHEM_IUPAC_NAME_MARKUP>
(2<I>S</I>)-<I>N</I>-[2-(3,4-dihydroxyphenyl)ethyl]-2-[3-(2,5-dimethoxyphenyl)prop-2-enoylamino]-3-[(2-methylpropan-2-yl)oxy]propanamide
> <PUBCHEM_IUPAC_NAME>
(2S)-N-[2-(3,4-dihydroxyphenyl)ethyl]-2-[3-(2,5-dimethoxyphenyl)prop-2-enoylamino]-3-[(2-methylpropan-2-yl)oxy]propanamide
> <PUBCHEM_IUPAC_SYSTEMATIC_NAME>
(2S)-N-[2-[3,4-bis(oxidanyl)phenyl]ethyl]-2-[3-(2,5-dimethoxyphenyl)prop-2-enoylamino]-3-[(2-methylpropan-2-yl)oxy]propanamide
> <PUBCHEM_IUPAC_TRADITIONAL_NAME>
(2S)-3-tert-butoxy-N-[2-(3,4-dihydroxyphenyl)ethyl]-2-[[3-(2,5-dimethoxyphenyl)acryloyl]amino]propionamide
> <PUBCHEM_IUPAC_INCHI>
InChI=1S/C26H34N2O7/c1-26(2,3)35-16-20(25(32)27-13-12-17-6-9-21(29)22(30)14-17)28-24(31)11-7-18-15-19(33-4)8-10-23(18)34-5/h6-11,14-15,20,29-30H,12-13,16H2,1-5H3,(H,27,32)(H,28,31)/t20-/m0/s1
> <PUBCHEM_IUPAC_INCHIKEY>
UMFIRYCSOOELEM-FQEVSTJZSA-N
> <PUBCHEM_XLOGP3_AA>
3
> <PUBCHEM_EXACT_MASS>
486.23660143
> <PUBCHEM_MOLECULAR_FORMULA>
C26H34N2O7
> <PUBCHEM_MOLECULAR_WEIGHT>
486.6
> <PUBCHEM_OPENEYE_CAN_SMILES>
CC(C)(C)OCC(C(=O)NCCC1=CC(=C(C=C1)O)O)NC(=O)C=CC2=C(C=CC(=C2)OC)OC
> <PUBCHEM_OPENEYE_ISO_SMILES>
CC(C)(C)OC[C@@H](C(=O)NCCC1=CC(=C(C=C1)O)O)NC(=O)C=CC2=C(C=CC(=C2)OC)OC
> <PUBCHEM_CACTVS_TPSA>
126
> <PUBCHEM_MONOISOTOPIC_WEIGHT>
486.23660143
> <PUBCHEM_TOTAL_CHARGE>
0
> <PUBCHEM_HEAVY_ATOM_COUNT>
35
> <PUBCHEM_ATOM_DEF_STEREO_COUNT>
1
> <PUBCHEM_ATOM_UDEF_STEREO_COUNT>
0
> <PUBCHEM_BOND_DEF_STEREO_COUNT>
0
> <PUBCHEM_BOND_UDEF_STEREO_COUNT>
1
> <PUBCHEM_ISOTOPIC_ATOM_COUNT>
0
> <PUBCHEM_COMPONENT_COUNT>
1
> <PUBCHEM_CACTVS_TAUTO_COUNT>
-1
> <PUBCHEM_COORDINATE_TYPE>
1
5
255
> <PUBCHEM_BONDANNOTATIONS>
19  21  8
19  22  8
21  24  8
22  25  8
23  27  1
24  26  8
25  26  8
28  29  8
28  30  8
29  32  8
30  31  8
31  33  8
32  33  8
11  8  5
$$$$
