504859
  -OEChem-10302200282D
 74 77  0     1  0  0  0  0  0999 V2000
    2.3176   -5.6658    0.0000 F   0  0  0  0  0  0  0  0  0  0  0  0
    9.2619   -0.9333    0.0000 O   0  0  0  0  0  0  0  0  0  0  0  0
    6.7619   -1.7994    0.0000 O   0  0  0  0  0  0  0  0  0  0  0  0
    7.7619    1.6648    0.0000 O   0  0  0  0  0  0  0  0  0  0  0  0
   10.7619    5.1288    0.0000 O   0  0  0  0  0  0  0  0  0  0  0  0
   12.7619    5.1288    0.0000 O   0  0  0  0  0  0  0  0  0  0  0  0
    4.6783   -1.7381    0.0000 N   0  0  0  0  0  0  0  0  0  0  0  0
    6.7619   -0.0673    0.0000 N   0  0  0  0  0  0  0  0  0  0  0  0
    9.2619    0.7987    0.0000 N   0  0  0  0  0  0  0  0  0  0  0  0
    7.7619   -0.0673    0.0000 C   0  0  1  0  0  0  0  0  0  0  0  0
    9.7619   -1.7994    0.0000 C   0  0  0  0  0  0  0  0  0  0  0  0
    5.2619   -0.9333    0.0000 C   0  0  0  0  0  0  0  0  0  0  0  0
    3.7320   -1.4333    0.0000 C   0  0  0  0  0  0  0  0  0  0  0  0
    8.2619   -0.9333    0.0000 C   0  0  0  0  0  0  0  0  0  0  0  0
    3.7320   -0.4333    0.0000 C   0  0  0  0  0  0  0  0  0  0  0  0
    4.9889   -2.6886    0.0000 C   0  0  0  0  0  0  0  0  0  0  0  0
    4.6783   -0.1286    0.0000 C   0  0  0  0  0  0  0  0  0  0  0  0
    6.2619   -0.9333    0.0000 C   0  0  0  0  0  0  0  0  0  0  0  0
    8.2619    0.7987    0.0000 C   0  0  0  0  0  0  0  0  0  0  0  0
   10.2619   -2.6654    0.0000 C   0  0  0  0  0  0  0  0  0  0  0  0
   10.6279   -1.2994    0.0000 C   0  0  0  0  0  0  0  0  0  0  0  0
    8.8958   -2.2994    0.0000 C   0  0  0  0  0  0  0  0  0  0  0  0
    2.8660   -1.9333    0.0000 C   0  0  0  0  0  0  0  0  0  0  0  0
    4.3211   -3.4329    0.0000 C   0  0  0  0  0  0  0  0  0  0  0  0
    2.8660    0.0667    0.0000 C   0  0  0  0  0  0  0  0  0  0  0  0
    9.7619    1.6648    0.0000 C   0  0  0  0  0  0  0  0  0  0  0  0
    2.0000   -1.4333    0.0000 C   0  0  0  0  0  0  0  0  0  0  0  0
   10.7619    1.6648    0.0000 C   0  0  0  0  0  0  0  0  0  0  0  0
    2.0000   -0.4333    0.0000 C   0  0  0  0  0  0  0  0  0  0  0  0
    3.3426   -3.2267    0.0000 C   0  0  0  0  0  0  0  0  0  0  0  0
    4.6318   -4.3834    0.0000 C   0  0  0  0  0  0  0  0  0  0  0  0
   11.2619    2.5308    0.0000 C   0  0  0  0  0  0  0  0  0  0  0  0
    2.6747   -3.9710    0.0000 C   0  0  0  0  0  0  0  0  0  0  0  0
    3.9639   -5.1277    0.0000 C   0  0  0  0  0  0  0  0  0  0  0  0
    2.9854   -4.9215    0.0000 C   0  0  0  0  0  0  0  0  0  0  0  0
   10.7619    3.3968    0.0000 C   0  0  0  0  0  0  0  0  0  0  0  0
   12.2619    2.5308    0.0000 C   0  0  0  0  0  0  0  0  0  0  0  0
   11.2619    4.2628    0.0000 C   0  0  0  0  0  0  0  0  0  0  0  0
   12.7619    3.3968    0.0000 C   0  0  0  0  0  0  0  0  0  0  0  0
   12.2619    4.2628    0.0000 C   0  0  0  0  0  0  0  0  0  0  0  0
    7.4519    0.4696    0.0000 H   0  0  0  0  0  0  0  0  0  0  0  0
    7.6793   -1.1454    0.0000 H   0  0  0  0  0  0  0  0  0  0  0  0
    8.3695   -1.5439    0.0000 H   0  0  0  0  0  0  0  0  0  0  0  0
    5.3715   -3.1765    0.0000 H   0  0  0  0  0  0  0  0  0  0  0  0
    5.5359   -2.3966    0.0000 H   0  0  0  0  0  0  0  0  0  0  0  0
    6.4519    0.4696    0.0000 H   0  0  0  0  0  0  0  0  0  0  0  0
    4.8709    0.4607    0.0000 H   0  0  0  0  0  0  0  0  0  0  0  0
    9.7249   -2.9754    0.0000 H   0  0  0  0  0  0  0  0  0  0  0  0
   10.5719   -3.2023    0.0000 H   0  0  0  0  0  0  0  0  0  0  0  0
   10.7988   -2.3554    0.0000 H   0  0  0  0  0  0  0  0  0  0  0  0
   10.9379   -1.8363    0.0000 H   0  0  0  0  0  0  0  0  0  0  0  0
   11.1648   -0.9894    0.0000 H   0  0  0  0  0  0  0  0  0  0  0  0
   10.3179   -0.7624    0.0000 H   0  0  0  0  0  0  0  0  0  0  0  0
    8.5858   -1.7624    0.0000 H   0  0  0  0  0  0  0  0  0  0  0  0
    8.3589   -2.6094    0.0000 H   0  0  0  0  0  0  0  0  0  0  0  0
    9.2058   -2.8363    0.0000 H   0  0  0  0  0  0  0  0  0  0  0  0
    2.8660   -2.5533    0.0000 H   0  0  0  0  0  0  0  0  0  0  0  0
    2.8660    0.6867    0.0000 H   0  0  0  0  0  0  0  0  0  0  0  0
    9.5719    0.2618    0.0000 H   0  0  0  0  0  0  0  0  0  0  0  0
    9.8695    2.2753    0.0000 H   0  0  0  0  0  0  0  0  0  0  0  0
    9.1793    1.8768    0.0000 H   0  0  0  0  0  0  0  0  0  0  0  0
    1.4631   -1.7433    0.0000 H   0  0  0  0  0  0  0  0  0  0  0  0
   10.6542    1.0542    0.0000 H   0  0  0  0  0  0  0  0  0  0  0  0
   11.3445    1.4527    0.0000 H   0  0  0  0  0  0  0  0  0  0  0  0
    1.4631   -0.1233    0.0000 H   0  0  0  0  0  0  0  0  0  0  0  0
    3.1500   -2.6373    0.0000 H   0  0  0  0  0  0  0  0  0  0  0  0
    5.2384   -4.5113    0.0000 H   0  0  0  0  0  0  0  0  0  0  0  0
    2.0681   -3.8431    0.0000 H   0  0  0  0  0  0  0  0  0  0  0  0
    4.1565   -5.7170    0.0000 H   0  0  0  0  0  0  0  0  0  0  0  0
   10.1419    3.3968    0.0000 H   0  0  0  0  0  0  0  0  0  0  0  0
   12.5719    1.9938    0.0000 H   0  0  0  0  0  0  0  0  0  0  0  0
   13.3819    3.3968    0.0000 H   0  0  0  0  0  0  0  0  0  0  0  0
   11.0719    5.6658    0.0000 H   0  0  0  0  0  0  0  0  0  0  0  0
   13.3819    5.1288    0.0000 H   0  0  0  0  0  0  0  0  0  0  0  0
  1 35  1  0  0  0  0
  2 11  1  0  0  0  0
  2 14  1  0  0  0  0
  3 18  2  0  0  0  0
  4 19  2  0  0  0  0
  5 38  1  0  0  0  0
  5 73  1  0  0  0  0
  6 40  1  0  0  0  0
  6 74  1  0  0  0  0
  7 12  1  0  0  0  0
  7 13  1  0  0  0  0
  7 16  1  0  0  0  0
 10  8  1  6  0  0  0
  8 18  1  0  0  0  0
  8 46  1  0  0  0  0
  9 19  1  0  0  0  0
  9 26  1  0  0  0  0
  9 59  1  0  0  0  0
 10 14  1  0  0  0  0
 10 19  1  0  0  0  0
 10 41  1  0  0  0  0
 11 20  1  0  0  0  0
 11 21  1  0  0  0  0
 11 22  1  0  0  0  0
 12 17  2  0  0  0  0
 12 18  1  0  0  0  0
 13 15  1  0  0  0  0
 13 23  2  0  0  0  0
 14 42  1  0  0  0  0
 14 43  1  0  0  0  0
 15 17  1  0  0  0  0
 15 25  2  0  0  0  0
 16 24  1  0  0  0  0
 16 44  1  0  0  0  0
 16 45  1  0  0  0  0
 17 47  1  0  0  0  0
 20 48  1  0  0  0  0
 20 49  1  0  0  0  0
 20 50  1  0  0  0  0
 21 51  1  0  0  0  0
 21 52  1  0  0  0  0
 21 53  1  0  0  0  0
 22 54  1  0  0  0  0
 22 55  1  0  0  0  0
 22 56  1  0  0  0  0
 23 27  1  0  0  0  0
 23 57  1  0  0  0  0
 24 30  2  0  0  0  0
 24 31  1  0  0  0  0
 25 29  1  0  0  0  0
 25 58  1  0  0  0  0
 26 28  1  0  0  0  0
 26 60  1  0  0  0  0
 26 61  1  0  0  0  0
 27 29  2  0  0  0  0
 27 62  1  0  0  0  0
 28 32  1  0  0  0  0
 28 63  1  0  0  0  0
 28 64  1  0  0  0  0
 29 65  1  0  0  0  0
 30 33  1  0  0  0  0
 30 66  1  0  0  0  0
 31 34  2  0  0  0  0
 31 67  1  0  0  0  0
 32 36  2  0  0  0  0
 32 37  1  0  0  0  0
 33 35  2  0  0  0  0
 33 68  1  0  0  0  0
 34 35  1  0  0  0  0
 34 69  1  0  0  0  0
 36 38  1  0  0  0  0
 36 70  1  0  0  0  0
 37 39  2  0  0  0  0
 37 71  1  0  0  0  0
 38 40  2  0  0  0  0
 39 40  1  0  0  0  0
 39 72  1  0  0  0  0
M  END
> <PUBCHEM_COMPOUND_CID>
504859
> <PUBCHEM_COMPOUND_CANONICALIZED>
1
> <PUBCHEM_CACTVS_COMPLEXITY>
830
> <PUBCHEM_CACTVS_HBOND_ACCEPTOR>
6
> <PUBCHEM_CACTVS_HBOND_DONOR>
4
> <PUBCHEM_CACTVS_ROTATABLE_BOND>
11
> <PUBCHEM_CACTVS_SUBSKEYS>
AAADcfB7OQAAAAAAAAAAAAAAAAAAAWAAAAAwYMAAAAAAAFgB9AAAHwAQCAAADGzhng4yxvPMFgCoAyVyVACCgCAnIiAI2KG+7NgLZvbClbOXcQlm9hHZ2YeY2bKeIAABAAACQABAAAIAAASAAAAAAAAAAA==
> <PUBCHEM_IUPAC_OPENEYE_NAME>
N-[(1S)-1-(tert-butoxymethyl)-2-[2-(3,4-dihydroxyphenyl)ethylamino]-2-oxo-ethyl]-1-[(4-fluorophenyl)methyl]indole-2-carboxamide
> <PUBCHEM_IUPAC_CAS_NAME>
N-[(2S)-1-[2-(3,4-dihydroxyphenyl)ethylamino]-3-[(2-methylpropan-2-yl)oxy]-1-oxopropan-2-yl]-1-[(4-fluorophenyl)methyl]-2-indolecarboxamide
> <PUBCHEM_IUPAC_NAME_MARKUP>
<I>N</I>-[(2<I>S</I>)-1-[2-(3,4-dihydroxyphenyl)ethylamino]-3-[(2-methylpropan-2-yl)oxy]-1-oxopropan-2-yl]-1-[(4-fluorophenyl)methyl]indole-2-carboxamide
> <PUBCHEM_IUPAC_NAME>
N-[(2S)-1-[2-(3,4-dihydroxyphenyl)ethylamino]-3-[(2-methylpropan-2-yl)oxy]-1-oxopropan-2-yl]-1-[(4-fluorophenyl)methyl]indole-2-carboxamide
> <PUBCHEM_IUPAC_SYSTEMATIC_NAME>
N-[(2S)-1-[2-[3,4-bis(oxidanyl)phenyl]ethylamino]-3-[(2-methylpropan-2-yl)oxy]-1-oxidanylidene-propan-2-yl]-1-[(4-fluorophenyl)methyl]indole-2-carboxamide
> <PUBCHEM_IUPAC_TRADITIONAL_NAME>
N-[(1S)-1-(tert-butoxymethyl)-2-[2-(3,4-dihydroxyphenyl)ethylamino]-2-keto-ethyl]-1-(4-fluorobenzyl)indole-2-carboxamide
> <PUBCHEM_IUPAC_INCHI>
InChI=1S/C31H34FN3O5/c1-31(2,3)40-19-24(29(38)33-15-14-20-10-13-27(36)28(37)16-20)34-30(39)26-17-22-6-4-5-7-25(22)35(26)18-21-8-11-23(32)12-9-21/h4-13,16-17,24,36-37H,14-15,18-19H2,1-3H3,(H,33,38)(H,34,39)/t24-/m0/s1
> <PUBCHEM_IUPAC_INCHIKEY>
MLXPGQTYSRWCHL-DEOSSOPVSA-N
> <PUBCHEM_XLOGP3_AA>
4.8
> <PUBCHEM_EXACT_MASS>
547.24824936
> <PUBCHEM_MOLECULAR_FORMULA>
C31H34FN3O5
> <PUBCHEM_MOLECULAR_WEIGHT>
547.6
> <PUBCHEM_OPENEYE_CAN_SMILES>
CC(C)(C)OCC(C(=O)NCCC1=CC(=C(C=C1)O)O)NC(=O)C2=CC3=CC=CC=C3N2CC4=CC=C(C=C4)F
> <PUBCHEM_OPENEYE_ISO_SMILES>
CC(C)(C)OC[C@@H](C(=O)NCCC1=CC(=C(C=C1)O)O)NC(=O)C2=CC3=CC=CC=C3N2CC4=CC=C(C=C4)F
> <PUBCHEM_CACTVS_TPSA>
113
> <PUBCHEM_MONOISOTOPIC_WEIGHT>
547.24824936
> <PUBCHEM_TOTAL_CHARGE>
0
> <PUBCHEM_HEAVY_ATOM_COUNT>
40
> <PUBCHEM_ATOM_DEF_STEREO_COUNT>
1
> <PUBCHEM_ATOM_UDEF_STEREO_COUNT>
0
> <PUBCHEM_BOND_DEF_STEREO_COUNT>
0
> <PUBCHEM_BOND_UDEF_STEREO_COUNT>
0
> <PUBCHEM_ISOTOPIC_ATOM_COUNT>
0
> <PUBCHEM_COMPONENT_COUNT>
1
> <PUBCHEM_CACTVS_TAUTO_COUNT>
-1
> <PUBCHEM_COORDINATE_TYPE>
1
5
255
> <PUBCHEM_BONDANNOTATIONS>
12  17  8
13  15  8
13  23  8
15  17  8
15  25  8
23  27  8
24  30  8
24  31  8
25  29  8
27  29  8
30  33  8
31  34  8
32  36  8
32  37  8
33  35  8
34  35  8
36  38  8
37  39  8
38  40  8
39  40  8
7  12  8
7  13  8
10  8  6
$$$$
