504873
  -OEChem-10302200282D
 98104  0     1  0  0  0  0  0999 V2000
    2.3176   -5.3973    0.0000 F   0  0  0  0  0  0  0  0  0  0  0  0
    8.9959   -2.1737    0.0000 O   0  0  0  0  0  0  0  0  0  0  0  0
    6.7619   -1.5309    0.0000 O   0  0  0  0  0  0  0  0  0  0  0  0
    7.7619    1.9332    0.0000 O   0  0  0  0  0  0  0  0  0  0  0  0
   11.2619    4.5313    0.0000 O   0  0  0  0  0  0  0  0  0  0  0  0
   12.2619    2.7992    0.0000 O   0  0  0  0  0  0  0  0  0  0  0  0
   10.7619   -1.5309    0.0000 N   0  0  0  0  0  0  0  0  0  0  0  0
    4.6783   -1.4696    0.0000 N   0  0  0  0  0  0  0  0  0  0  0  0
    6.7619    0.2012    0.0000 N   0  0  0  0  0  0  0  0  0  0  0  0
    9.2619    1.0672    0.0000 N   0  0  0  0  0  0  0  0  0  0  0  0
   11.5279   -2.1737    0.0000 C   0  0  0  0  0  0  0  0  0  0  0  0
   12.2940   -2.8165    0.0000 C   0  0  0  0  0  0  0  0  0  0  0  0
   12.1707   -1.4076    0.0000 C   0  0  0  0  0  0  0  0  0  0  0  0
   10.8852   -2.9397    0.0000 C   0  0  0  0  0  0  0  0  0  0  0  0
    8.2619   -0.6649    0.0000 C   0  0  0  0  0  0  0  0  0  0  0  0
    7.7619    0.2012    0.0000 C   0  0  1  0  0  0  0  0  0  0  0  0
    9.2619   -0.6649    0.0000 C   0  0  0  0  0  0  0  0  0  0  0  0
    9.7619   -1.5309    0.0000 C   0  0  0  0  0  0  0  0  0  0  0  0
    5.2619   -0.6649    0.0000 C   0  0  0  0  0  0  0  0  0  0  0  0
   13.2337   -2.4744    0.0000 C   0  0  0  0  0  0  0  0  0  0  0  0
   11.8287   -0.4679    0.0000 C   0  0  0  0  0  0  0  0  0  0  0  0
    9.9003   -2.7660    0.0000 C   0  0  0  0  0  0  0  0  0  0  0  0
   12.1203   -3.8013    0.0000 C   0  0  0  0  0  0  0  0  0  0  0  0
   13.1555   -1.5813    0.0000 C   0  0  0  0  0  0  0  0  0  0  0  0
   11.2272   -3.8794    0.0000 C   0  0  0  0  0  0  0  0  0  0  0  0
    3.7320   -1.1649    0.0000 C   0  0  0  0  0  0  0  0  0  0  0  0
    3.7320   -0.1649    0.0000 C   0  0  0  0  0  0  0  0  0  0  0  0
    6.2619   -0.6649    0.0000 C   0  0  0  0  0  0  0  0  0  0  0  0
    4.9889   -2.4201    0.0000 C   0  0  0  0  0  0  0  0  0  0  0  0
    8.2619    1.0672    0.0000 C   0  0  0  0  0  0  0  0  0  0  0  0
    4.6783    0.1399    0.0000 C   0  0  0  0  0  0  0  0  0  0  0  0
   13.9997   -3.1172    0.0000 C   0  0  0  0  0  0  0  0  0  0  0  0
   12.4715    0.2981    0.0000 C   0  0  0  0  0  0  0  0  0  0  0  0
    9.2575   -3.5321    0.0000 C   0  0  0  0  0  0  0  0  0  0  0  0
   12.8864   -4.4441    0.0000 C   0  0  0  0  0  0  0  0  0  0  0  0
   13.7983   -0.8152    0.0000 C   0  0  0  0  0  0  0  0  0  0  0  0
   10.5844   -4.6455    0.0000 C   0  0  0  0  0  0  0  0  0  0  0  0
    2.8660   -1.6649    0.0000 C   0  0  0  0  0  0  0  0  0  0  0  0
    4.3211   -3.1644    0.0000 C   0  0  0  0  0  0  0  0  0  0  0  0
    2.8660    0.3351    0.0000 C   0  0  0  0  0  0  0  0  0  0  0  0
   13.8261   -4.1020    0.0000 C   0  0  0  0  0  0  0  0  0  0  0  0
   13.4563    0.1245    0.0000 C   0  0  0  0  0  0  0  0  0  0  0  0
    9.5996   -4.4718    0.0000 C   0  0  0  0  0  0  0  0  0  0  0  0
    2.0000   -1.1649    0.0000 C   0  0  0  0  0  0  0  0  0  0  0  0
    2.0000   -0.1649    0.0000 C   0  0  0  0  0  0  0  0  0  0  0  0
    3.3426   -2.9582    0.0000 C   0  0  0  0  0  0  0  0  0  0  0  0
    4.6318   -4.1149    0.0000 C   0  0  0  0  0  0  0  0  0  0  0  0
    9.7619    1.9332    0.0000 C   0  0  0  0  0  0  0  0  0  0  0  0
    2.6747   -3.7025    0.0000 C   0  0  0  0  0  0  0  0  0  0  0  0
    3.9639   -4.8592    0.0000 C   0  0  0  0  0  0  0  0  0  0  0  0
   10.7619    1.9332    0.0000 C   0  0  0  0  0  0  0  0  0  0  0  0
    9.2619    2.7992    0.0000 C   0  0  0  0  0  0  0  0  0  0  0  0
    2.9854   -4.6530    0.0000 C   0  0  0  0  0  0  0  0  0  0  0  0
   11.2619    2.7992    0.0000 C   0  0  0  0  0  0  0  0  0  0  0  0
    9.7619    3.6653    0.0000 C   0  0  0  0  0  0  0  0  0  0  0  0
   10.7619    3.6653    0.0000 C   0  0  0  0  0  0  0  0  0  0  0  0
   10.7619    5.3973    0.0000 C   0  0  0  0  0  0  0  0  0  0  0  0
   11.0719   -0.9939    0.0000 H   0  0  0  0  0  0  0  0  0  0  0  0
    7.6793   -0.8769    0.0000 H   0  0  0  0  0  0  0  0  0  0  0  0
    8.3695   -1.2754    0.0000 H   0  0  0  0  0  0  0  0  0  0  0  0
    7.4519    0.7381    0.0000 H   0  0  0  0  0  0  0  0  0  0  0  0
    9.8445   -0.4528    0.0000 H   0  0  0  0  0  0  0  0  0  0  0  0
    9.1542   -0.0543    0.0000 H   0  0  0  0  0  0  0  0  0  0  0  0
    6.4519    0.7381    0.0000 H   0  0  0  0  0  0  0  0  0  0  0  0
   13.3413   -1.8639    0.0000 H   0  0  0  0  0  0  0  0  0  0  0  0
   11.2181   -0.3603    0.0000 H   0  0  0  0  0  0  0  0  0  0  0  0
    9.6883   -2.1834    0.0000 H   0  0  0  0  0  0  0  0  0  0  0  0
   11.5377   -4.0133    0.0000 H   0  0  0  0  0  0  0  0  0  0  0  0
   13.3676   -2.1639    0.0000 H   0  0  0  0  0  0  0  0  0  0  0  0
   11.8378   -3.9870    0.0000 H   0  0  0  0  0  0  0  0  0  0  0  0
    5.3715   -2.9080    0.0000 H   0  0  0  0  0  0  0  0  0  0  0  0
    5.5359   -2.1281    0.0000 H   0  0  0  0  0  0  0  0  0  0  0  0
    4.8709    0.7292    0.0000 H   0  0  0  0  0  0  0  0  0  0  0  0
   14.5823   -2.9052    0.0000 H   0  0  0  0  0  0  0  0  0  0  0  0
   12.2594    0.8807    0.0000 H   0  0  0  0  0  0  0  0  0  0  0  0
    8.6469   -3.4244    0.0000 H   0  0  0  0  0  0  0  0  0  0  0  0
   12.7787   -5.0546    0.0000 H   0  0  0  0  0  0  0  0  0  0  0  0
   14.4089   -0.9229    0.0000 H   0  0  0  0  0  0  0  0  0  0  0  0
   10.7965   -5.2281    0.0000 H   0  0  0  0  0  0  0  0  0  0  0  0
    2.8660   -2.2849    0.0000 H   0  0  0  0  0  0  0  0  0  0  0  0
    2.8660    0.9551    0.0000 H   0  0  0  0  0  0  0  0  0  0  0  0
   14.3010   -4.5006    0.0000 H   0  0  0  0  0  0  0  0  0  0  0  0
   13.8548    0.5994    0.0000 H   0  0  0  0  0  0  0  0  0  0  0  0
    9.2010   -4.9468    0.0000 H   0  0  0  0  0  0  0  0  0  0  0  0
    9.5719    0.5303    0.0000 H   0  0  0  0  0  0  0  0  0  0  0  0
    1.4631   -1.4749    0.0000 H   0  0  0  0  0  0  0  0  0  0  0  0
    1.4631    0.1451    0.0000 H   0  0  0  0  0  0  0  0  0  0  0  0
    3.1500   -2.3689    0.0000 H   0  0  0  0  0  0  0  0  0  0  0  0
    5.2384   -4.2428    0.0000 H   0  0  0  0  0  0  0  0  0  0  0  0
    2.0681   -3.5746    0.0000 H   0  0  0  0  0  0  0  0  0  0  0  0
    4.1565   -5.4486    0.0000 H   0  0  0  0  0  0  0  0  0  0  0  0
   11.0719    1.3963    0.0000 H   0  0  0  0  0  0  0  0  0  0  0  0
    8.6419    2.7992    0.0000 H   0  0  0  0  0  0  0  0  0  0  0  0
    9.4519    4.2022    0.0000 H   0  0  0  0  0  0  0  0  0  0  0  0
   12.5719    3.3362    0.0000 H   0  0  0  0  0  0  0  0  0  0  0  0
   11.2988    5.7073    0.0000 H   0  0  0  0  0  0  0  0  0  0  0  0
   10.4519    5.9342    0.0000 H   0  0  0  0  0  0  0  0  0  0  0  0
   10.2249    5.0873    0.0000 H   0  0  0  0  0  0  0  0  0  0  0  0
  1 53  1  0  0  0  0
  2 18  2  0  0  0  0
  3 28  2  0  0  0  0
  4 30  2  0  0  0  0
  5 56  1  0  0  0  0
  5 57  1  0  0  0  0
  6 54  1  0  0  0  0
  6 95  1  0  0  0  0
  7 11  1  0  0  0  0
  7 18  1  0  0  0  0
  7 58  1  0  0  0  0
  8 19  1  0  0  0  0
  8 26  1  0  0  0  0
  8 29  1  0  0  0  0
 16  9  1  6  0  0  0
  9 28  1  0  0  0  0
  9 64  1  0  0  0  0
 10 30  1  0  0  0  0
 10 48  1  0  0  0  0
 10 85  1  0  0  0  0
 11 12  1  0  0  0  0
 11 13  1  0  0  0  0
 11 14  1  0  0  0  0
 12 20  2  0  0  0  0
 12 23  1  0  0  0  0
 13 21  2  0  0  0  0
 13 24  1  0  0  0  0
 14 22  2  0  0  0  0
 14 25  1  0  0  0  0
 15 16  1  0  0  0  0
 15 17  1  0  0  0  0
 15 59  1  0  0  0  0
 15 60  1  0  0  0  0
 16 30  1  0  0  0  0
 16 61  1  0  0  0  0
 17 18  1  0  0  0  0
 17 62  1  0  0  0  0
 17 63  1  0  0  0  0
 19 28  1  0  0  0  0
 19 31  2  0  0  0  0
 20 32  1  0  0  0  0
 20 65  1  0  0  0  0
 21 33  1  0  0  0  0
 21 66  1  0  0  0  0
 22 34  1  0  0  0  0
 22 67  1  0  0  0  0
 23 35  2  0  0  0  0
 23 68  1  0  0  0  0
 24 36  2  0  0  0  0
 24 69  1  0  0  0  0
 25 37  2  0  0  0  0
 25 70  1  0  0  0  0
 26 27  1  0  0  0  0
 26 38  2  0  0  0  0
 27 31  1  0  0  0  0
 27 40  2  0  0  0  0
 29 39  1  0  0  0  0
 29 71  1  0  0  0  0
 29 72  1  0  0  0  0
 31 73  1  0  0  0  0
 32 41  2  0  0  0  0
 32 74  1  0  0  0  0
 33 42  2  0  0  0  0
 33 75  1  0  0  0  0
 34 43  2  0  0  0  0
 34 76  1  0  0  0  0
 35 41  1  0  0  0  0
 35 77  1  0  0  0  0
 36 42  1  0  0  0  0
 36 78  1  0  0  0  0
 37 43  1  0  0  0  0
 37 79  1  0  0  0  0
 38 44  1  0  0  0  0
 38 80  1  0  0  0  0
 39 46  2  0  0  0  0
 39 47  1  0  0  0  0
 40 45  1  0  0  0  0
 40 81  1  0  0  0  0
 41 82  1  0  0  0  0
 42 83  1  0  0  0  0
 43 84  1  0  0  0  0
 44 45  2  0  0  0  0
 44 86  1  0  0  0  0
 45 87  1  0  0  0  0
 46 49  1  0  0  0  0
 46 88  1  0  0  0  0
 47 50  2  0  0  0  0
 47 89  1  0  0  0  0
 48 51  2  0  0  0  0
 48 52  1  0  0  0  0
 49 53  2  0  0  0  0
 49 90  1  0  0  0  0
 50 53  1  0  0  0  0
 50 91  1  0  0  0  0
 51 54  1  0  0  0  0
 51 92  1  0  0  0  0
 52 55  2  0  0  0  0
 52 93  1  0  0  0  0
 54 56  2  0  0  0  0
 55 56  1  0  0  0  0
 55 94  1  0  0  0  0
 57 96  1  0  0  0  0
 57 97  1  0  0  0  0
 57 98  1  0  0  0  0
M  END
> <PUBCHEM_COMPOUND_CID>
504873
> <PUBCHEM_COMPOUND_CANONICALIZED>
1
> <PUBCHEM_CACTVS_COMPLEXITY>
1250
> <PUBCHEM_CACTVS_HBOND_ACCEPTOR>
6
> <PUBCHEM_CACTVS_HBOND_DONOR>
4
> <PUBCHEM_CACTVS_ROTATABLE_BOND>
14
> <PUBCHEM_CACTVS_SUBSKEYS>
AAADcfB/uQAAAAAAAAAAAAAAAAAAAWAAAAAwYMGDAAAAAFgB9AAAHwAQCAAADKzBng4yxvPMFgCoAyVyVACCiCAnIiAI2KG+7NgNZvLGtbuUcStm1hnL+Ye828OegEAAAgACQAAAgAAEAASAAAAAAAAAAA==
> <PUBCHEM_IUPAC_OPENEYE_NAME>
(2S)-2-[[1-[(4-fluorophenyl)methyl]indole-2-carbonyl]amino]-N-(3-hydroxy-4-methoxy-phenyl)-N'-trityl-pentanediamide
> <PUBCHEM_IUPAC_CAS_NAME>
(2S)-2-[[[1-[(4-fluorophenyl)methyl]-2-indolyl]-oxomethyl]amino]-N-(3-hydroxy-4-methoxyphenyl)-N'-(triphenylmethyl)pentanediamide
> <PUBCHEM_IUPAC_NAME_MARKUP>
(2<I>S</I>)-2-[[1-[(4-fluorophenyl)methyl]indole-2-carbonyl]amino]-<I>N</I>-(3-hydroxy-4-methoxyphenyl)-<I>N</I>&apos;-tritylpentanediamide
> <PUBCHEM_IUPAC_NAME>
(2S)-2-[[1-[(4-fluorophenyl)methyl]indole-2-carbonyl]amino]-N-(3-hydroxy-4-methoxyphenyl)-N'-tritylpentanediamide
> <PUBCHEM_IUPAC_SYSTEMATIC_NAME>
(2S)-2-[[1-[(4-fluorophenyl)methyl]indol-2-yl]carbonylamino]-N-(4-methoxy-3-oxidanyl-phenyl)-N'-(triphenylmethyl)pentanediamide
> <PUBCHEM_IUPAC_TRADITIONAL_NAME>
(2S)-2-[[1-(4-fluorobenzyl)indole-2-carbonyl]amino]-N-(3-hydroxy-4-methoxy-phenyl)-N'-trityl-glutaramide
> <PUBCHEM_IUPAC_INCHI>
InChI=1S/C47H41FN4O5/c1-57-43-27-25-38(30-42(43)53)49-45(55)39(50-46(56)41-29-33-13-11-12-20-40(33)52(41)31-32-21-23-37(48)24-22-32)26-28-44(54)51-47(34-14-5-2-6-15-34,35-16-7-3-8-17-35)36-18-9-4-10-19-36/h2-25,27,29-30,39,53H,26,28,31H2,1H3,(H,49,55)(H,50,56)(H,51,54)/t39-/m0/s1
> <PUBCHEM_IUPAC_INCHIKEY>
HUDFMYSWXIUUPB-KDXMTYKHSA-N
> <PUBCHEM_XLOGP3_AA>
8.1
> <PUBCHEM_EXACT_MASS>
760.30609858
> <PUBCHEM_MOLECULAR_FORMULA>
C47H41FN4O5
> <PUBCHEM_MOLECULAR_WEIGHT>
760.8
> <PUBCHEM_OPENEYE_CAN_SMILES>
COC1=C(C=C(C=C1)NC(=O)C(CCC(=O)NC(C2=CC=CC=C2)(C3=CC=CC=C3)C4=CC=CC=C4)NC(=O)C5=CC6=CC=CC=C6N5CC7=CC=C(C=C7)F)O
> <PUBCHEM_OPENEYE_ISO_SMILES>
COC1=C(C=C(C=C1)NC(=O)[C@H](CCC(=O)NC(C2=CC=CC=C2)(C3=CC=CC=C3)C4=CC=CC=C4)NC(=O)C5=CC6=CC=CC=C6N5CC7=CC=C(C=C7)F)O
> <PUBCHEM_CACTVS_TPSA>
122
> <PUBCHEM_MONOISOTOPIC_WEIGHT>
760.30609858
> <PUBCHEM_TOTAL_CHARGE>
0
> <PUBCHEM_HEAVY_ATOM_COUNT>
57
> <PUBCHEM_ATOM_DEF_STEREO_COUNT>
1
> <PUBCHEM_ATOM_UDEF_STEREO_COUNT>
0
> <PUBCHEM_BOND_DEF_STEREO_COUNT>
0
> <PUBCHEM_BOND_UDEF_STEREO_COUNT>
0
> <PUBCHEM_ISOTOPIC_ATOM_COUNT>
0
> <PUBCHEM_COMPONENT_COUNT>
1
> <PUBCHEM_CACTVS_TAUTO_COUNT>
-1
> <PUBCHEM_COORDINATE_TYPE>
1
5
255
> <PUBCHEM_BONDANNOTATIONS>
12  20  8
12  23  8
13  21  8
13  24  8
14  22  8
14  25  8
19  31  8
20  32  8
21  33  8
22  34  8
23  35  8
24  36  8
25  37  8
26  27  8
26  38  8
27  31  8
27  40  8
32  41  8
33  42  8
34  43  8
35  41  8
36  42  8
37  43  8
38  44  8
39  46  8
39  47  8
40  45  8
44  45  8
46  49  8
47  50  8
48  51  8
48  52  8
49  53  8
50  53  8
51  54  8
52  55  8
54  56  8
55  56  8
8  19  8
8  26  8
16  9  6
$$$$
