504833
  -OEChem-10302200282D
 59 62  0     1  0  0  0  0  0999 V2000
    9.8622   -1.3450    0.0000 O   0  0  0  0  0  0  0  0  0  0  0  0
    6.3981   -2.3450    0.0000 O   0  0  0  0  0  0  0  0  0  0  0  0
    2.9176   -2.3796    0.0000 O   0  0  0  0  0  0  0  0  0  0  0  0
    4.6660    1.6550    0.0000 O   0  0  0  0  0  0  0  0  0  0  0  0
   11.5942   -4.3450    0.0000 O   0  0  0  0  0  0  0  0  0  0  0  0
    8.1301    3.6550    0.0000 O   0  0  0  0  0  0  0  0  0  0  0  0
    9.8622    4.6550    0.0000 O   0  0  0  0  0  0  0  0  0  0  0  0
    7.2641   -0.8450    0.0000 N   0  0  0  0  0  0  0  0  0  0  0  0
    8.9962    0.1550    0.0000 N   0  0  0  0  0  0  0  0  0  0  0  0
    4.6660   -1.3450    0.0000 N   0  0  0  0  0  0  0  0  0  0  0  0
    8.1301   -1.3450    0.0000 C   0  0  1  0  0  0  0  0  0  0  0  0
    8.1301   -2.3450    0.0000 C   0  0  0  0  0  0  0  0  0  0  0  0
    8.9962   -2.8450    0.0000 C   0  0  0  0  0  0  0  0  0  0  0  0
    8.9962   -0.8450    0.0000 C   0  0  0  0  0  0  0  0  0  0  0  0
    6.3981   -1.3450    0.0000 C   0  0  0  0  0  0  0  0  0  0  0  0
    5.5321   -0.8450    0.0000 C   0  0  0  0  0  0  0  0  0  0  0  0
    9.8622    0.6550    0.0000 C   0  0  0  0  0  0  0  0  0  0  0  0
    3.8000   -0.8450    0.0000 C   0  0  0  0  0  0  0  0  0  0  0  0
    9.8622   -2.3450    0.0000 C   0  0  0  0  0  0  0  0  0  0  0  0
    8.9962   -3.8450    0.0000 C   0  0  0  0  0  0  0  0  0  0  0  0
    3.8000    0.1550    0.0000 C   0  0  0  0  0  0  0  0  0  0  0  0
    5.5321    0.1550    0.0000 C   0  0  0  0  0  0  0  0  0  0  0  0
    9.8622    1.6550    0.0000 C   0  0  0  0  0  0  0  0  0  0  0  0
    4.6660    0.6550    0.0000 C   0  0  0  0  0  0  0  0  0  0  0  0
   10.7282   -2.8450    0.0000 C   0  0  0  0  0  0  0  0  0  0  0  0
    9.8622   -4.3450    0.0000 C   0  0  0  0  0  0  0  0  0  0  0  0
    2.9061   -1.3797    0.0000 C   0  0  0  0  0  0  0  0  0  0  0  0
    2.9061    0.6897    0.0000 C   0  0  0  0  0  0  0  0  0  0  0  0
   10.7282   -3.8450    0.0000 C   0  0  0  0  0  0  0  0  0  0  0  0
    8.9962    2.1550    0.0000 C   0  0  0  0  0  0  0  0  0  0  0  0
   10.7282    2.1550    0.0000 C   0  0  0  0  0  0  0  0  0  0  0  0
    2.0000   -0.8658    0.0000 C   0  0  0  0  0  0  0  0  0  0  0  0
    2.0000    0.1758    0.0000 C   0  0  0  0  0  0  0  0  0  0  0  0
    8.9962    3.1550    0.0000 C   0  0  0  0  0  0  0  0  0  0  0  0
   10.7282    3.1550    0.0000 C   0  0  0  0  0  0  0  0  0  0  0  0
    9.8622    3.6550    0.0000 C   0  0  0  0  0  0  0  0  0  0  0  0
    7.5932   -1.6550    0.0000 H   0  0  0  0  0  0  0  0  0  0  0  0
    7.5196   -2.2373    0.0000 H   0  0  0  0  0  0  0  0  0  0  0  0
    7.9181   -2.9276    0.0000 H   0  0  0  0  0  0  0  0  0  0  0  0
    7.2641   -0.2250    0.0000 H   0  0  0  0  0  0  0  0  0  0  0  0
    8.4592    0.4650    0.0000 H   0  0  0  0  0  0  0  0  0  0  0  0
   10.0742    0.0724    0.0000 H   0  0  0  0  0  0  0  0  0  0  0  0
   10.4728    0.7627    0.0000 H   0  0  0  0  0  0  0  0  0  0  0  0
    9.8622   -1.7250    0.0000 H   0  0  0  0  0  0  0  0  0  0  0  0
    8.4592   -4.1550    0.0000 H   0  0  0  0  0  0  0  0  0  0  0  0
    4.6660   -1.9650    0.0000 H   0  0  0  0  0  0  0  0  0  0  0  0
    6.0690    0.4650    0.0000 H   0  0  0  0  0  0  0  0  0  0  0  0
   11.2651   -2.5350    0.0000 H   0  0  0  0  0  0  0  0  0  0  0  0
    9.8622   -4.9650    0.0000 H   0  0  0  0  0  0  0  0  0  0  0  0
    2.9132    1.3096    0.0000 H   0  0  0  0  0  0  0  0  0  0  0  0
    8.4592    1.8450    0.0000 H   0  0  0  0  0  0  0  0  0  0  0  0
   11.2651    1.8450    0.0000 H   0  0  0  0  0  0  0  0  0  0  0  0
    1.4643   -1.1779    0.0000 H   0  0  0  0  0  0  0  0  0  0  0  0
    1.4643    0.4879    0.0000 H   0  0  0  0  0  0  0  0  0  0  0  0
   11.2651    3.4650    0.0000 H   0  0  0  0  0  0  0  0  0  0  0  0
    2.3843   -2.6958    0.0000 H   0  0  0  0  0  0  0  0  0  0  0  0
   11.5942   -4.9650    0.0000 H   0  0  0  0  0  0  0  0  0  0  0  0
    8.1301    4.2750    0.0000 H   0  0  0  0  0  0  0  0  0  0  0  0
   10.3991    4.9650    0.0000 H   0  0  0  0  0  0  0  0  0  0  0  0
  1 14  2  0  0  0  0
  2 15  2  0  0  0  0
  3 27  1  0  0  0  0
  3 56  1  0  0  0  0
  4 24  2  0  0  0  0
  5 29  1  0  0  0  0
  5 57  1  0  0  0  0
  6 34  1  0  0  0  0
  6 58  1  0  0  0  0
  7 36  1  0  0  0  0
  7 59  1  0  0  0  0
 11  8  1  6  0  0  0
  8 15  1  0  0  0  0
  8 40  1  0  0  0  0
  9 14  1  0  0  0  0
  9 17  1  0  0  0  0
  9 41  1  0  0  0  0
 10 16  1  0  0  0  0
 10 18  1  0  0  0  0
 10 46  1  0  0  0  0
 11 12  1  0  0  0  0
 11 14  1  0  0  0  0
 11 37  1  0  0  0  0
 12 13  1  0  0  0  0
 12 38  1  0  0  0  0
 12 39  1  0  0  0  0
 13 19  2  0  0  0  0
 13 20  1  0  0  0  0
 15 16  1  0  0  0  0
 16 22  2  0  0  0  0
 17 23  1  0  0  0  0
 17 42  1  0  0  0  0
 17 43  1  0  0  0  0
 18 21  2  0  0  0  0
 18 27  1  0  0  0  0
 19 25  1  0  0  0  0
 19 44  1  0  0  0  0
 20 26  2  0  0  0  0
 20 45  1  0  0  0  0
 21 24  1  0  0  0  0
 21 28  1  0  0  0  0
 22 24  1  0  0  0  0
 22 47  1  0  0  0  0
 23 30  2  0  0  0  0
 23 31  1  0  0  0  0
 25 29  2  0  0  0  0
 25 48  1  0  0  0  0
 26 29  1  0  0  0  0
 26 49  1  0  0  0  0
 27 32  2  0  0  0  0
 28 33  2  0  0  0  0
 28 50  1  0  0  0  0
 30 34  1  0  0  0  0
 30 51  1  0  0  0  0
 31 35  2  0  0  0  0
 31 52  1  0  0  0  0
 32 33  1  0  0  0  0
 32 53  1  0  0  0  0
 33 54  1  0  0  0  0
 34 36  2  0  0  0  0
 35 36  1  0  0  0  0
 35 55  1  0  0  0  0
M  END
> <PUBCHEM_COMPOUND_CID>
504833
> <PUBCHEM_COMPOUND_CANONICALIZED>
1
> <PUBCHEM_CACTVS_COMPLEXITY>
841
> <PUBCHEM_CACTVS_HBOND_ACCEPTOR>
8
> <PUBCHEM_CACTVS_HBOND_DONOR>
7
> <PUBCHEM_CACTVS_ROTATABLE_BOND>
7
> <PUBCHEM_CACTVS_SUBSKEYS>
AAADceB7OAAAAAAAAAAAAAAAAAAAAAAAAAAwYMEAAAAAAACBUAAAHgAQCAAADCzBmAQwxoLAAgCIAqVSUACCAAAlIgAIiIGPzMgLZjrSlbOUcYlk1hHZ2ce62LKOIAABAAACUABAAAIAAASgAAAAAAAAAA==
> <PUBCHEM_IUPAC_OPENEYE_NAME>
N-[(1S)-2-[(3,4-dihydroxyphenyl)methylamino]-1-[(4-hydroxyphenyl)methyl]-2-oxo-ethyl]-8-hydroxy-4-oxo-1H-quinoline-2-carboxamide
> <PUBCHEM_IUPAC_CAS_NAME>
N-[(2S)-1-[(3,4-dihydroxyphenyl)methylamino]-3-(4-hydroxyphenyl)-1-oxopropan-2-yl]-8-hydroxy-4-oxo-1H-quinoline-2-carboxamide
> <PUBCHEM_IUPAC_NAME_MARKUP>
<I>N</I>-[(2<I>S</I>)-1-[(3,4-dihydroxyphenyl)methylamino]-3-(4-hydroxyphenyl)-1-oxopropan-2-yl]-8-hydroxy-4-oxo-1<I>H</I>-quinoline-2-carboxamide
> <PUBCHEM_IUPAC_NAME>
N-[(2S)-1-[(3,4-dihydroxyphenyl)methylamino]-3-(4-hydroxyphenyl)-1-oxopropan-2-yl]-8-hydroxy-4-oxo-1H-quinoline-2-carboxamide
> <PUBCHEM_IUPAC_SYSTEMATIC_NAME>
N-[(2S)-1-[[3,4-bis(oxidanyl)phenyl]methylamino]-3-(4-hydroxyphenyl)-1-oxidanylidene-propan-2-yl]-8-oxidanyl-4-oxidanylidene-1H-quinoline-2-carboxamide
> <PUBCHEM_IUPAC_TRADITIONAL_NAME>
8-hydroxy-N-[(1S)-1-(4-hydroxybenzyl)-2-keto-2-(protocatechuylamino)ethyl]-4-keto-1H-quinoline-2-carboxamide
> <PUBCHEM_IUPAC_INCHI>
InChI=1S/C26H23N3O7/c30-16-7-4-14(5-8-16)10-18(25(35)27-13-15-6-9-20(31)23(34)11-15)29-26(36)19-12-22(33)17-2-1-3-21(32)24(17)28-19/h1-9,11-12,18,30-32,34H,10,13H2,(H,27,35)(H,28,33)(H,29,36)/t18-/m0/s1
> <PUBCHEM_IUPAC_INCHIKEY>
VRJDKRQCSYCWOD-SFHVURJKSA-N
> <PUBCHEM_XLOGP3_AA>
2.5
> <PUBCHEM_EXACT_MASS>
489.15360008
> <PUBCHEM_MOLECULAR_FORMULA>
C26H23N3O7
> <PUBCHEM_MOLECULAR_WEIGHT>
489.5
> <PUBCHEM_OPENEYE_CAN_SMILES>
C1=CC2=C(C(=C1)O)NC(=CC2=O)C(=O)NC(CC3=CC=C(C=C3)O)C(=O)NCC4=CC(=C(C=C4)O)O
> <PUBCHEM_OPENEYE_ISO_SMILES>
C1=CC2=C(C(=C1)O)NC(=CC2=O)C(=O)N[C@@H](CC3=CC=C(C=C3)O)C(=O)NCC4=CC(=C(C=C4)O)O
> <PUBCHEM_CACTVS_TPSA>
168
> <PUBCHEM_MONOISOTOPIC_WEIGHT>
489.15360008
> <PUBCHEM_TOTAL_CHARGE>
0
> <PUBCHEM_HEAVY_ATOM_COUNT>
36
> <PUBCHEM_ATOM_DEF_STEREO_COUNT>
1
> <PUBCHEM_ATOM_UDEF_STEREO_COUNT>
0
> <PUBCHEM_BOND_DEF_STEREO_COUNT>
0
> <PUBCHEM_BOND_UDEF_STEREO_COUNT>
0
> <PUBCHEM_ISOTOPIC_ATOM_COUNT>
0
> <PUBCHEM_COMPONENT_COUNT>
1
> <PUBCHEM_CACTVS_TAUTO_COUNT>
-1
> <PUBCHEM_COORDINATE_TYPE>
1
5
255
> <PUBCHEM_BONDANNOTATIONS>
10  16  8
10  18  8
13  19  8
13  20  8
16  22  8
18  21  8
18  27  8
19  25  8
20  26  8
21  24  8
21  28  8
22  24  8
23  30  8
23  31  8
25  29  8
26  29  8
27  32  8
28  33  8
30  34  8
31  35  8
32  33  8
34  36  8
35  36  8
11  8  6
$$$$
