504819
  -OEChem-10302200282D
 70 71  0     1  0  0  0  0  0999 V2000
    3.7320    4.4720    0.0000 O   0  0  0  0  0  0  0  0  0  0  0  0
    8.0622   -0.0280    0.0000 O   0  0  0  0  0  0  0  0  0  0  0  0
    4.5981   -1.0280    0.0000 O   0  0  0  0  0  0  0  0  0  0  0  0
    2.8660    2.9720    0.0000 O   0  0  0  0  0  0  0  0  0  0  0  0
   11.5263    2.9720    0.0000 O   0  0  0  0  0  0  0  0  0  0  0  0
    3.7320   -4.5280    0.0000 O   0  0  0  0  0  0  0  0  0  0  0  0
    7.1962   -4.5280    0.0000 O   0  0  0  0  0  0  0  0  0  0  0  0
   11.5263    4.9720    0.0000 O   0  0  0  0  0  0  0  0  0  0  0  0
    5.4641   -5.5280    0.0000 O   0  0  0  0  0  0  0  0  0  0  0  0
    6.3301   -1.0280    0.0000 N   0  0  0  0  0  0  0  0  0  0  0  0
    7.1962    1.4720    0.0000 N   0  0  0  0  0  0  0  0  0  0  0  0
    4.5981    2.9720    0.0000 N   0  0  0  0  0  0  0  0  0  0  0  0
    6.3301   -0.0280    0.0000 C   0  0  1  0  0  0  0  0  0  0  0  0
    5.4641    0.4720    0.0000 C   0  0  0  0  0  0  0  0  0  0  0  0
    5.4641    1.4720    0.0000 C   0  0  0  0  0  0  0  0  0  0  0  0
    4.5981    1.9720    0.0000 C   0  0  0  0  0  0  0  0  0  0  0  0
    7.1962    0.4720    0.0000 C   0  0  0  0  0  0  0  0  0  0  0  0
    8.0622    1.9720    0.0000 C   0  0  0  0  0  0  0  0  0  0  0  0
    2.8660    4.9720    0.0000 C   0  0  0  0  0  0  0  0  0  0  0  0
    8.0622    2.9720    0.0000 C   0  0  0  0  0  0  0  0  0  0  0  0
    5.4641   -1.5280    0.0000 C   0  0  0  0  0  0  0  0  0  0  0  0
    3.7320    3.4720    0.0000 C   0  0  0  0  0  0  0  0  0  0  0  0
    8.9282    3.4720    0.0000 C   0  0  0  0  0  0  0  0  0  0  0  0
    2.0000    5.4720    0.0000 C   0  0  0  0  0  0  0  0  0  0  0  0
    3.3660    5.8380    0.0000 C   0  0  0  0  0  0  0  0  0  0  0  0
    2.3660    4.1060    0.0000 C   0  0  0  0  0  0  0  0  0  0  0  0
    5.4641   -2.5280    0.0000 C   0  0  0  0  0  0  0  0  0  0  0  0
    9.7942    2.9720    0.0000 C   0  0  0  0  0  0  0  0  0  0  0  0
    8.9282    4.4720    0.0000 C   0  0  0  0  0  0  0  0  0  0  0  0
    6.3301   -3.0280    0.0000 C   0  0  0  0  0  0  0  0  0  0  0  0
    4.5981   -3.0280    0.0000 C   0  0  0  0  0  0  0  0  0  0  0  0
   10.6603    3.4720    0.0000 C   0  0  0  0  0  0  0  0  0  0  0  0
    9.7942    4.9720    0.0000 C   0  0  0  0  0  0  0  0  0  0  0  0
    4.5981   -4.0280    0.0000 C   0  0  0  0  0  0  0  0  0  0  0  0
    6.3301   -4.0280    0.0000 C   0  0  0  0  0  0  0  0  0  0  0  0
   10.6603    4.4720    0.0000 C   0  0  0  0  0  0  0  0  0  0  0  0
    5.4641   -4.5280    0.0000 C   0  0  0  0  0  0  0  0  0  0  0  0
    6.8671   -0.3380    0.0000 H   0  0  0  0  0  0  0  0  0  0  0  0
    4.8535    0.5796    0.0000 H   0  0  0  0  0  0  0  0  0  0  0  0
    5.2520   -0.1106    0.0000 H   0  0  0  0  0  0  0  0  0  0  0  0
    6.0747    1.3643    0.0000 H   0  0  0  0  0  0  0  0  0  0  0  0
    5.6762    2.0546    0.0000 H   0  0  0  0  0  0  0  0  0  0  0  0
    3.9875    2.0796    0.0000 H   0  0  0  0  0  0  0  0  0  0  0  0
    4.3860    1.3894    0.0000 H   0  0  0  0  0  0  0  0  0  0  0  0
    6.8671   -1.3380    0.0000 H   0  0  0  0  0  0  0  0  0  0  0  0
    6.6592    1.7820    0.0000 H   0  0  0  0  0  0  0  0  0  0  0  0
    8.2742    1.3894    0.0000 H   0  0  0  0  0  0  0  0  0  0  0  0
    8.6728    2.0796    0.0000 H   0  0  0  0  0  0  0  0  0  0  0  0
    5.1350    3.2820    0.0000 H   0  0  0  0  0  0  0  0  0  0  0  0
    7.8501    3.5546    0.0000 H   0  0  0  0  0  0  0  0  0  0  0  0
    7.4516    2.8643    0.0000 H   0  0  0  0  0  0  0  0  0  0  0  0
    2.3100    6.0089    0.0000 H   0  0  0  0  0  0  0  0  0  0  0  0
    1.4631    5.7820    0.0000 H   0  0  0  0  0  0  0  0  0  0  0  0
    1.6900    4.9351    0.0000 H   0  0  0  0  0  0  0  0  0  0  0  0
    3.9030    5.5280    0.0000 H   0  0  0  0  0  0  0  0  0  0  0  0
    3.6760    6.3750    0.0000 H   0  0  0  0  0  0  0  0  0  0  0  0
    2.8291    6.1480    0.0000 H   0  0  0  0  0  0  0  0  0  0  0  0
    1.8291    4.4160    0.0000 H   0  0  0  0  0  0  0  0  0  0  0  0
    2.0560    3.5690    0.0000 H   0  0  0  0  0  0  0  0  0  0  0  0
    2.9030    3.7960    0.0000 H   0  0  0  0  0  0  0  0  0  0  0  0
    9.7942    2.3520    0.0000 H   0  0  0  0  0  0  0  0  0  0  0  0
    8.3913    4.7820    0.0000 H   0  0  0  0  0  0  0  0  0  0  0  0
    6.8671   -2.7180    0.0000 H   0  0  0  0  0  0  0  0  0  0  0  0
    4.0611   -2.7180    0.0000 H   0  0  0  0  0  0  0  0  0  0  0  0
    9.7942    5.5920    0.0000 H   0  0  0  0  0  0  0  0  0  0  0  0
   12.0632    3.2820    0.0000 H   0  0  0  0  0  0  0  0  0  0  0  0
    3.1951   -4.2180    0.0000 H   0  0  0  0  0  0  0  0  0  0  0  0
    7.7331   -4.2180    0.0000 H   0  0  0  0  0  0  0  0  0  0  0  0
   11.5263    5.5920    0.0000 H   0  0  0  0  0  0  0  0  0  0  0  0
    4.9272   -5.8380    0.0000 H   0  0  0  0  0  0  0  0  0  0  0  0
  1 19  1  0  0  0  0
  1 22  1  0  0  0  0
  2 17  2  0  0  0  0
  3 21  2  0  0  0  0
  4 22  2  0  0  0  0
  5 32  1  0  0  0  0
  5 66  1  0  0  0  0
  6 34  1  0  0  0  0
  6 67  1  0  0  0  0
  7 35  1  0  0  0  0
  7 68  1  0  0  0  0
  8 36  1  0  0  0  0
  8 69  1  0  0  0  0
  9 37  1  0  0  0  0
  9 70  1  0  0  0  0
 13 10  1  1  0  0  0
 10 21  1  0  0  0  0
 10 45  1  0  0  0  0
 11 17  1  0  0  0  0
 11 18  1  0  0  0  0
 11 46  1  0  0  0  0
 12 16  1  0  0  0  0
 12 22  1  0  0  0  0
 12 49  1  0  0  0  0
 13 14  1  0  0  0  0
 13 17  1  0  0  0  0
 13 38  1  0  0  0  0
 14 15  1  0  0  0  0
 14 39  1  0  0  0  0
 14 40  1  0  0  0  0
 15 16  1  0  0  0  0
 15 41  1  0  0  0  0
 15 42  1  0  0  0  0
 16 43  1  0  0  0  0
 16 44  1  0  0  0  0
 18 20  1  0  0  0  0
 18 47  1  0  0  0  0
 18 48  1  0  0  0  0
 19 24  1  0  0  0  0
 19 25  1  0  0  0  0
 19 26  1  0  0  0  0
 20 23  1  0  0  0  0
 20 50  1  0  0  0  0
 20 51  1  0  0  0  0
 21 27  1  0  0  0  0
 23 28  2  0  0  0  0
 23 29  1  0  0  0  0
 24 52  1  0  0  0  0
 24 53  1  0  0  0  0
 24 54  1  0  0  0  0
 25 55  1  0  0  0  0
 25 56  1  0  0  0  0
 25 57  1  0  0  0  0
 26 58  1  0  0  0  0
 26 59  1  0  0  0  0
 26 60  1  0  0  0  0
 27 30  2  0  0  0  0
 27 31  1  0  0  0  0
 28 32  1  0  0  0  0
 28 61  1  0  0  0  0
 29 33  2  0  0  0  0
 29 62  1  0  0  0  0
 30 35  1  0  0  0  0
 30 63  1  0  0  0  0
 31 34  2  0  0  0  0
 31 64  1  0  0  0  0
 32 36  2  0  0  0  0
 33 36  1  0  0  0  0
 33 65  1  0  0  0  0
 34 37  1  0  0  0  0
 35 37  2  0  0  0  0
M  END
> <PUBCHEM_COMPOUND_CID>
504819
> <PUBCHEM_COMPOUND_CANONICALIZED>
1
> <PUBCHEM_CACTVS_COMPLEXITY>
748
> <PUBCHEM_CACTVS_HBOND_ACCEPTOR>
9
> <PUBCHEM_CACTVS_HBOND_DONOR>
8
> <PUBCHEM_CACTVS_ROTATABLE_BOND>
12
> <PUBCHEM_CACTVS_SUBSKEYS>
AAADcfB7PAAAAAAAAAAAAAAAAAAAAAAAAAAwYAAAAAAAAAABQAAAHgAQCAAADGzBmAQyDoLABgCIAiFSGACCAAAkIAAIiIGOjMkJZzKClTOccQll1hWJmYe6/bbOIAABCAAAQABAAAIQAACAAAAAAAAAAA==
> <PUBCHEM_IUPAC_OPENEYE_NAME>
tert-butyl N-[(4S)-5-[2-(3,4-dihydroxyphenyl)ethylamino]-5-oxo-4-[(3,4,5-trihydroxybenzoyl)amino]pentyl]carbamate
> <PUBCHEM_IUPAC_CAS_NAME>
N-[(4S)-5-[2-(3,4-dihydroxyphenyl)ethylamino]-5-oxo-4-[[oxo-(3,4,5-trihydroxyphenyl)methyl]amino]pentyl]carbamic acid tert-butyl ester
> <PUBCHEM_IUPAC_NAME_MARKUP>
<I>tert</I>-butyl <I>N</I>-[(4<I>S</I>)-5-[2-(3,4-dihydroxyphenyl)ethylamino]-5-oxo-4-[(3,4,5-trihydroxybenzoyl)amino]pentyl]carbamate
> <PUBCHEM_IUPAC_NAME>
tert-butyl N-[(4S)-5-[2-(3,4-dihydroxyphenyl)ethylamino]-5-oxo-4-[(3,4,5-trihydroxybenzoyl)amino]pentyl]carbamate
> <PUBCHEM_IUPAC_SYSTEMATIC_NAME>
tert-butyl N-[(4S)-5-[2-[3,4-bis(oxidanyl)phenyl]ethylamino]-5-oxidanylidene-4-[[3,4,5-tris(oxidanyl)phenyl]carbonylamino]pentyl]carbamate
> <PUBCHEM_IUPAC_TRADITIONAL_NAME>
N-[(4S)-5-[2-(3,4-dihydroxyphenyl)ethylamino]-4-(galloylamino)-5-keto-pentyl]carbamic acid tert-butyl ester
> <PUBCHEM_IUPAC_INCHI>
InChI=1S/C25H33N3O9/c1-25(2,3)37-24(36)27-9-4-5-16(28-22(34)15-12-19(31)21(33)20(32)13-15)23(35)26-10-8-14-6-7-17(29)18(30)11-14/h6-7,11-13,16,29-33H,4-5,8-10H2,1-3H3,(H,26,35)(H,27,36)(H,28,34)/t16-/m0/s1
> <PUBCHEM_IUPAC_INCHIKEY>
BZBXPUZGNDVJSM-INIZCTEOSA-N
> <PUBCHEM_XLOGP3_AA>
2.2
> <PUBCHEM_EXACT_MASS>
519.22167964
> <PUBCHEM_MOLECULAR_FORMULA>
C25H33N3O9
> <PUBCHEM_MOLECULAR_WEIGHT>
519.5
> <PUBCHEM_OPENEYE_CAN_SMILES>
CC(C)(C)OC(=O)NCCCC(C(=O)NCCC1=CC(=C(C=C1)O)O)NC(=O)C2=CC(=C(C(=C2)O)O)O
> <PUBCHEM_OPENEYE_ISO_SMILES>
CC(C)(C)OC(=O)NCCC[C@@H](C(=O)NCCC1=CC(=C(C=C1)O)O)NC(=O)C2=CC(=C(C(=C2)O)O)O
> <PUBCHEM_CACTVS_TPSA>
198
> <PUBCHEM_MONOISOTOPIC_WEIGHT>
519.22167964
> <PUBCHEM_TOTAL_CHARGE>
0
> <PUBCHEM_HEAVY_ATOM_COUNT>
37
> <PUBCHEM_ATOM_DEF_STEREO_COUNT>
1
> <PUBCHEM_ATOM_UDEF_STEREO_COUNT>
0
> <PUBCHEM_BOND_DEF_STEREO_COUNT>
0
> <PUBCHEM_BOND_UDEF_STEREO_COUNT>
0
> <PUBCHEM_ISOTOPIC_ATOM_COUNT>
0
> <PUBCHEM_COMPONENT_COUNT>
1
> <PUBCHEM_CACTVS_TAUTO_COUNT>
-1
> <PUBCHEM_COORDINATE_TYPE>
1
5
255
> <PUBCHEM_BONDANNOTATIONS>
13  10  5
23  28  8
23  29  8
27  30  8
27  31  8
28  32  8
29  33  8
30  35  8
31  34  8
32  36  8
33  36  8
34  37  8
35  37  8
$$$$
