504820
  -OEChem-10302200282D
 79 83  0     1  0  0  0  0  0999 V2000
    3.7320   -0.0997    0.0000 O   0  0  0  0  0  0  0  0  0  0  0  0
    2.8660    1.4003    0.0000 O   0  0  0  0  0  0  0  0  0  0  0  0
    6.3301    2.4003    0.0000 O   0  0  0  0  0  0  0  0  0  0  0  0
    6.3301   -3.5997    0.0000 O   0  0  0  0  0  0  0  0  0  0  0  0
    3.7320    5.9003    0.0000 O   0  0  0  0  0  0  0  0  0  0  0  0
    9.8160   -6.6311    0.0000 O   0  0  0  0  0  0  0  0  0  0  0  0
    7.2125    6.9349    0.0000 O   0  0  0  0  0  0  0  0  0  0  0  0
    4.5981    2.4003    0.0000 N   0  0  0  0  0  0  0  0  0  0  0  0
    7.1962   -2.0997    0.0000 N   0  0  0  0  0  0  0  0  0  0  0  0
    5.4641    0.9003    0.0000 C   0  0  0  0  0  0  0  0  0  0  0  0
    5.4641   -0.0997    0.0000 C   0  0  0  0  0  0  0  0  0  0  0  0
    4.5981    1.4003    0.0000 C   0  0  1  0  0  0  0  0  0  0  0  0
    6.3301   -0.5997    0.0000 C   0  0  0  0  0  0  0  0  0  0  0  0
    6.3301   -1.5997    0.0000 C   0  0  0  0  0  0  0  0  0  0  0  0
    3.7320    0.9003    0.0000 C   0  0  0  0  0  0  0  0  0  0  0  0
    5.4641    2.9003    0.0000 C   0  0  0  0  0  0  0  0  0  0  0  0
    5.4641    3.9003    0.0000 C   0  0  0  0  0  0  0  0  0  0  0  0
    8.0622   -3.5997    0.0000 C   0  0  0  0  0  0  0  0  0  0  0  0
    7.1962   -3.0997    0.0000 C   0  0  0  0  0  0  0  0  0  0  0  0
    6.3301    4.4003    0.0000 C   0  0  0  0  0  0  0  0  0  0  0  0
    8.0622   -4.5997    0.0000 C   0  0  0  0  0  0  0  0  0  0  0  0
    8.9282   -5.0997    0.0000 C   0  0  0  0  0  0  0  0  0  0  0  0
    6.3301    5.4003    0.0000 C   0  0  0  0  0  0  0  0  0  0  0  0
    8.9282   -3.0997    0.0000 C   0  0  0  0  0  0  0  0  0  0  0  0
    9.7942   -3.5997    0.0000 C   0  0  0  0  0  0  0  0  0  0  0  0
    4.5981    4.4003    0.0000 C   0  0  0  0  0  0  0  0  0  0  0  0
    9.7942   -4.5997    0.0000 C   0  0  0  0  0  0  0  0  0  0  0  0
    2.8660   -0.5997    0.0000 C   0  0  0  0  0  0  0  0  0  0  0  0
    7.1522   -5.1065    0.0000 C   0  0  0  0  0  0  0  0  0  0  0  0
    5.4641    5.9003    0.0000 C   0  0  0  0  0  0  0  0  0  0  0  0
    7.2241    3.8657    0.0000 C   0  0  0  0  0  0  0  0  0  0  0  0
    4.5981    5.4003    0.0000 C   0  0  0  0  0  0  0  0  0  0  0  0
    8.9443   -6.1412    0.0000 C   0  0  0  0  0  0  0  0  0  0  0  0
    7.2241    5.9350    0.0000 C   0  0  0  0  0  0  0  0  0  0  0  0
    7.1442   -6.1481    0.0000 C   0  0  0  0  0  0  0  0  0  0  0  0
   10.6603   -3.0997    0.0000 C   0  0  0  0  0  0  0  0  0  0  0  0
    8.0462   -6.6689    0.0000 C   0  0  0  0  0  0  0  0  0  0  0  0
    8.1301    4.3795    0.0000 C   0  0  0  0  0  0  0  0  0  0  0  0
    2.8660   -1.5997    0.0000 C   0  0  0  0  0  0  0  0  0  0  0  0
    8.1301    5.4211    0.0000 C   0  0  0  0  0  0  0  0  0  0  0  0
    3.7320   -2.0997    0.0000 C   0  0  0  0  0  0  0  0  0  0  0  0
    2.0000   -2.0997    0.0000 C   0  0  0  0  0  0  0  0  0  0  0  0
    3.7320   -3.0997    0.0000 C   0  0  0  0  0  0  0  0  0  0  0  0
    2.0000   -3.0997    0.0000 C   0  0  0  0  0  0  0  0  0  0  0  0
    2.8660   -3.5997    0.0000 C   0  0  0  0  0  0  0  0  0  0  0  0
    6.0747    0.7927    0.0000 H   0  0  0  0  0  0  0  0  0  0  0  0
    5.6762    1.4829    0.0000 H   0  0  0  0  0  0  0  0  0  0  0  0
    4.8535    0.0080    0.0000 H   0  0  0  0  0  0  0  0  0  0  0  0
    5.2520   -0.6823    0.0000 H   0  0  0  0  0  0  0  0  0  0  0  0
    5.1350    1.7103    0.0000 H   0  0  0  0  0  0  0  0  0  0  0  0
    6.9407   -0.7073    0.0000 H   0  0  0  0  0  0  0  0  0  0  0  0
    6.5422   -0.0171    0.0000 H   0  0  0  0  0  0  0  0  0  0  0  0
    5.7196   -1.4920    0.0000 H   0  0  0  0  0  0  0  0  0  0  0  0
    6.1181   -2.1823    0.0000 H   0  0  0  0  0  0  0  0  0  0  0  0
    4.0611    2.7103    0.0000 H   0  0  0  0  0  0  0  0  0  0  0  0
    7.7331   -1.7897    0.0000 H   0  0  0  0  0  0  0  0  0  0  0  0
    8.9282   -2.4797    0.0000 H   0  0  0  0  0  0  0  0  0  0  0  0
    4.0611    4.0903    0.0000 H   0  0  0  0  0  0  0  0  0  0  0  0
   10.3312   -4.9097    0.0000 H   0  0  0  0  0  0  0  0  0  0  0  0
    2.6540   -0.0171    0.0000 H   0  0  0  0  0  0  0  0  0  0  0  0
    2.2554   -0.7073    0.0000 H   0  0  0  0  0  0  0  0  0  0  0  0
    6.6189   -4.7903    0.0000 H   0  0  0  0  0  0  0  0  0  0  0  0
    5.4641    6.5203    0.0000 H   0  0  0  0  0  0  0  0  0  0  0  0
    7.2169    3.2457    0.0000 H   0  0  0  0  0  0  0  0  0  0  0  0
    6.6060   -6.4561    0.0000 H   0  0  0  0  0  0  0  0  0  0  0  0
   10.9703   -3.6366    0.0000 H   0  0  0  0  0  0  0  0  0  0  0  0
   11.1972   -2.7897    0.0000 H   0  0  0  0  0  0  0  0  0  0  0  0
   10.3503   -2.5628    0.0000 H   0  0  0  0  0  0  0  0  0  0  0  0
    8.0486   -7.2889    0.0000 H   0  0  0  0  0  0  0  0  0  0  0  0
    8.6659    4.0674    0.0000 H   0  0  0  0  0  0  0  0  0  0  0  0
    8.6659    5.7332    0.0000 H   0  0  0  0  0  0  0  0  0  0  0  0
    4.2690   -1.7897    0.0000 H   0  0  0  0  0  0  0  0  0  0  0  0
    1.4631   -1.7897    0.0000 H   0  0  0  0  0  0  0  0  0  0  0  0
    3.1951    5.5903    0.0000 H   0  0  0  0  0  0  0  0  0  0  0  0
    9.8232   -7.2511    0.0000 H   0  0  0  0  0  0  0  0  0  0  0  0
    7.7458    7.2511    0.0000 H   0  0  0  0  0  0  0  0  0  0  0  0
    4.2690   -3.4097    0.0000 H   0  0  0  0  0  0  0  0  0  0  0  0
    1.4631   -3.4097    0.0000 H   0  0  0  0  0  0  0  0  0  0  0  0
    2.8660   -4.2197    0.0000 H   0  0  0  0  0  0  0  0  0  0  0  0
  1 15  1  0  0  0  0
  1 28  1  0  0  0  0
  2 15  2  0  0  0  0
  3 16  2  0  0  0  0
  4 19  2  0  0  0  0
  5 32  1  0  0  0  0
  5 74  1  0  0  0  0
  6 33  1  0  0  0  0
  6 75  1  0  0  0  0
  7 34  1  0  0  0  0
  7 76  1  0  0  0  0
 12  8  1  1  0  0  0
  8 16  1  0  0  0  0
  8 55  1  0  0  0  0
  9 14  1  0  0  0  0
  9 19  1  0  0  0  0
  9 56  1  0  0  0  0
 10 11  1  0  0  0  0
 10 12  1  0  0  0  0
 10 46  1  0  0  0  0
 10 47  1  0  0  0  0
 11 13  1  0  0  0  0
 11 48  1  0  0  0  0
 11 49  1  0  0  0  0
 12 15  1  0  0  0  0
 12 50  1  0  0  0  0
 13 14  1  0  0  0  0
 13 51  1  0  0  0  0
 13 52  1  0  0  0  0
 14 53  1  0  0  0  0
 14 54  1  0  0  0  0
 16 17  1  0  0  0  0
 17 20  1  0  0  0  0
 17 26  2  0  0  0  0
 18 19  1  0  0  0  0
 18 21  1  0  0  0  0
 18 24  2  0  0  0  0
 20 23  2  0  0  0  0
 20 31  1  0  0  0  0
 21 22  2  0  0  0  0
 21 29  1  0  0  0  0
 22 27  1  0  0  0  0
 22 33  1  0  0  0  0
 23 30  1  0  0  0  0
 23 34  1  0  0  0  0
 24 25  1  0  0  0  0
 24 57  1  0  0  0  0
 25 27  2  0  0  0  0
 25 36  1  0  0  0  0
 26 32  1  0  0  0  0
 26 58  1  0  0  0  0
 27 59  1  0  0  0  0
 28 39  1  0  0  0  0
 28 60  1  0  0  0  0
 28 61  1  0  0  0  0
 29 35  2  0  0  0  0
 29 62  1  0  0  0  0
 30 32  2  0  0  0  0
 30 63  1  0  0  0  0
 31 38  2  0  0  0  0
 31 64  1  0  0  0  0
 33 37  2  0  0  0  0
 34 40  2  0  0  0  0
 35 37  1  0  0  0  0
 35 65  1  0  0  0  0
 36 66  1  0  0  0  0
 36 67  1  0  0  0  0
 36 68  1  0  0  0  0
 37 69  1  0  0  0  0
 38 40  1  0  0  0  0
 38 70  1  0  0  0  0
 39 41  2  0  0  0  0
 39 42  1  0  0  0  0
 40 71  1  0  0  0  0
 41 43  1  0  0  0  0
 41 72  1  0  0  0  0
 42 44  2  0  0  0  0
 42 73  1  0  0  0  0
 43 45  2  0  0  0  0
 43 77  1  0  0  0  0
 44 45  1  0  0  0  0
 44 78  1  0  0  0  0
 45 79  1  0  0  0  0
M  END
> <PUBCHEM_COMPOUND_CID>
504820
> <PUBCHEM_COMPOUND_CANONICALIZED>
1
> <PUBCHEM_CACTVS_COMPLEXITY>
986
> <PUBCHEM_CACTVS_HBOND_ACCEPTOR>
7
> <PUBCHEM_CACTVS_HBOND_DONOR>
5
> <PUBCHEM_CACTVS_ROTATABLE_BOND>
12
> <PUBCHEM_CACTVS_SUBSKEYS>
AAADcfB/OAAAAAAAAAAAAAAAAAAAAAAAAAAwYMGDAAAAAADBVAAAHgAQCAAADCzhmAYyDsLABgCIAiHSGACCAAAkIAAIiIGODMgKJjKCtTuHcQhk1hGYuYf63PLO4AADAAAYAADAAAYAADAAAAAAAAAAAA==
> <PUBCHEM_IUPAC_OPENEYE_NAME>
benzyl (2S)-2-[(3,5-dihydroxynaphthalene-1-carbonyl)amino]-6-[(5-hydroxy-3-methyl-naphthalene-1-carbonyl)amino]hexanoate
> <PUBCHEM_IUPAC_CAS_NAME>
(2S)-2-[[(3,5-dihydroxy-1-naphthalenyl)-oxomethyl]amino]-6-[[(5-hydroxy-3-methyl-1-naphthalenyl)-oxomethyl]amino]hexanoic acid (phenylmethyl) ester
> <PUBCHEM_IUPAC_NAME_MARKUP>
benzyl (2<I>S</I>)-2-[(3,5-dihydroxynaphthalene-1-carbonyl)amino]-6-[(5-hydroxy-3-methylnaphthalene-1-carbonyl)amino]hexanoate
> <PUBCHEM_IUPAC_NAME>
benzyl (2S)-2-[(3,5-dihydroxynaphthalene-1-carbonyl)amino]-6-[(5-hydroxy-3-methylnaphthalene-1-carbonyl)amino]hexanoate
> <PUBCHEM_IUPAC_SYSTEMATIC_NAME>
(phenylmethyl) (2S)-2-[[3,5-bis(oxidanyl)naphthalen-1-yl]carbonylamino]-6-[(3-methyl-5-oxidanyl-naphthalen-1-yl)carbonylamino]hexanoate
> <PUBCHEM_IUPAC_TRADITIONAL_NAME>
(2S)-2-[(3,5-dihydroxy-1-naphthoyl)amino]-6-[(5-hydroxy-3-methyl-1-naphthoyl)amino]hexanoic acid benzyl ester
> <PUBCHEM_IUPAC_INCHI>
InChI=1S/C36H34N2O7/c1-22-17-27-25(11-7-14-32(27)40)29(18-22)34(42)37-16-6-5-13-31(36(44)45-21-23-9-3-2-4-10-23)38-35(43)30-20-24(39)19-28-26(30)12-8-15-33(28)41/h2-4,7-12,14-15,17-20,31,39-41H,5-6,13,16,21H2,1H3,(H,37,42)(H,38,43)/t31-/m0/s1
> <PUBCHEM_IUPAC_INCHIKEY>
HRDNUEZDBZZDCS-HKBQPEDESA-N
> <PUBCHEM_XLOGP3_AA>
6.5
> <PUBCHEM_EXACT_MASS>
606.23660143
> <PUBCHEM_MOLECULAR_FORMULA>
C36H34N2O7
> <PUBCHEM_MOLECULAR_WEIGHT>
606.7
> <PUBCHEM_OPENEYE_CAN_SMILES>
CC1=CC2=C(C=CC=C2O)C(=C1)C(=O)NCCCCC(C(=O)OCC3=CC=CC=C3)NC(=O)C4=CC(=CC5=C4C=CC=C5O)O
> <PUBCHEM_OPENEYE_ISO_SMILES>
CC1=CC2=C(C=CC=C2O)C(=C1)C(=O)NCCCC[C@@H](C(=O)OCC3=CC=CC=C3)NC(=O)C4=CC(=CC5=C4C=CC=C5O)O
> <PUBCHEM_CACTVS_TPSA>
145
> <PUBCHEM_MONOISOTOPIC_WEIGHT>
606.23660143
> <PUBCHEM_TOTAL_CHARGE>
0
> <PUBCHEM_HEAVY_ATOM_COUNT>
45
> <PUBCHEM_ATOM_DEF_STEREO_COUNT>
1
> <PUBCHEM_ATOM_UDEF_STEREO_COUNT>
0
> <PUBCHEM_BOND_DEF_STEREO_COUNT>
0
> <PUBCHEM_BOND_UDEF_STEREO_COUNT>
0
> <PUBCHEM_ISOTOPIC_ATOM_COUNT>
0
> <PUBCHEM_COMPONENT_COUNT>
1
> <PUBCHEM_CACTVS_TAUTO_COUNT>
-1
> <PUBCHEM_COORDINATE_TYPE>
1
5
255
> <PUBCHEM_BONDANNOTATIONS>
17  20  8
17  26  8
18  21  8
18  24  8
20  23  8
20  31  8
21  22  8
21  29  8
22  27  8
22  33  8
23  30  8
23  34  8
24  25  8
25  27  8
26  32  8
29  35  8
30  32  8
31  38  8
33  37  8
34  40  8
35  37  8
38  40  8
39  41  8
39  42  8
41  43  8
42  44  8
43  45  8
44  45  8
12  8  5
$$$$
