504825
  -OEChem-10302200282D
 64 67  0     1  0  0  0  0  0999 V2000
    8.0622   -2.0204    0.0000 O   0  0  0  0  0  0  0  0  0  0  0  0
   10.6603    0.4796    0.0000 O   0  0  0  0  0  0  0  0  0  0  0  0
    8.0622    3.9796    0.0000 O   0  0  0  0  0  0  0  0  0  0  0  0
    8.0622   -4.0204    0.0000 O   0  0  0  0  0  0  0  0  0  0  0  0
   11.5426    5.0142    0.0000 O   0  0  0  0  0  0  0  0  0  0  0  0
    9.7942   -5.0204    0.0000 O   0  0  0  0  0  0  0  0  0  0  0  0
    2.0000   -0.5204    0.0000 O   0  0  0  0  0  0  0  0  0  0  0  0
    2.0000   -2.5204    0.0000 O   0  0  0  0  0  0  0  0  0  0  0  0
    8.9282    0.4796    0.0000 N   0  0  0  0  0  0  0  0  0  0  0  0
    7.1962   -0.5204    0.0000 N   0  0  0  0  0  0  0  0  0  0  0  0
    8.9282   -0.5204    0.0000 C   0  0  1  0  0  0  0  0  0  0  0  0
    9.7942   -1.0204    0.0000 C   0  0  0  0  0  0  0  0  0  0  0  0
    8.0622   -1.0204    0.0000 C   0  0  0  0  0  0  0  0  0  0  0  0
    9.7942   -2.0204    0.0000 C   0  0  0  0  0  0  0  0  0  0  0  0
    6.3301   -1.0204    0.0000 C   0  0  0  0  0  0  0  0  0  0  0  0
    9.7942    1.9796    0.0000 C   0  0  0  0  0  0  0  0  0  0  0  0
    9.7942    0.9796    0.0000 C   0  0  0  0  0  0  0  0  0  0  0  0
    5.4641   -0.5204    0.0000 C   0  0  0  0  0  0  0  0  0  0  0  0
   10.6603    2.4796    0.0000 C   0  0  0  0  0  0  0  0  0  0  0  0
   10.6603    3.4796    0.0000 C   0  0  0  0  0  0  0  0  0  0  0  0
    8.9282   -2.5204    0.0000 C   0  0  0  0  0  0  0  0  0  0  0  0
   10.6603   -2.5204    0.0000 C   0  0  0  0  0  0  0  0  0  0  0  0
    4.5981   -1.0204    0.0000 C   0  0  0  0  0  0  0  0  0  0  0  0
    8.9282    2.4796    0.0000 C   0  0  0  0  0  0  0  0  0  0  0  0
    9.7942    3.9796    0.0000 C   0  0  0  0  0  0  0  0  0  0  0  0
   11.5542    1.9450    0.0000 C   0  0  0  0  0  0  0  0  0  0  0  0
    8.9282    3.4796    0.0000 C   0  0  0  0  0  0  0  0  0  0  0  0
    8.9282   -3.5204    0.0000 C   0  0  0  0  0  0  0  0  0  0  0  0
   11.5542    4.0143    0.0000 C   0  0  0  0  0  0  0  0  0  0  0  0
   10.6603   -3.5204    0.0000 C   0  0  0  0  0  0  0  0  0  0  0  0
    9.7942   -4.0204    0.0000 C   0  0  0  0  0  0  0  0  0  0  0  0
    3.7320   -0.5204    0.0000 C   0  0  0  0  0  0  0  0  0  0  0  0
    4.5981   -2.0204    0.0000 C   0  0  0  0  0  0  0  0  0  0  0  0
   12.4603    2.4588    0.0000 C   0  0  0  0  0  0  0  0  0  0  0  0
   12.4603    3.5004    0.0000 C   0  0  0  0  0  0  0  0  0  0  0  0
    2.8660   -1.0204    0.0000 C   0  0  0  0  0  0  0  0  0  0  0  0
    3.7320   -2.5204    0.0000 C   0  0  0  0  0  0  0  0  0  0  0  0
    2.8660   -2.0204    0.0000 C   0  0  0  0  0  0  0  0  0  0  0  0
    9.4651   -0.2104    0.0000 H   0  0  0  0  0  0  0  0  0  0  0  0
   10.4048   -1.1280    0.0000 H   0  0  0  0  0  0  0  0  0  0  0  0
   10.0063   -0.4378    0.0000 H   0  0  0  0  0  0  0  0  0  0  0  0
    8.3913    0.7896    0.0000 H   0  0  0  0  0  0  0  0  0  0  0  0
    5.9316   -1.4953    0.0000 H   0  0  0  0  0  0  0  0  0  0  0  0
    6.7287   -1.4953    0.0000 H   0  0  0  0  0  0  0  0  0  0  0  0
    7.1962    0.0996    0.0000 H   0  0  0  0  0  0  0  0  0  0  0  0
    5.8626   -0.0454    0.0000 H   0  0  0  0  0  0  0  0  0  0  0  0
    5.0656   -0.0454    0.0000 H   0  0  0  0  0  0  0  0  0  0  0  0
    8.3913   -2.2104    0.0000 H   0  0  0  0  0  0  0  0  0  0  0  0
   11.1972   -2.2104    0.0000 H   0  0  0  0  0  0  0  0  0  0  0  0
    8.3913    2.1696    0.0000 H   0  0  0  0  0  0  0  0  0  0  0  0
    9.7942    4.5996    0.0000 H   0  0  0  0  0  0  0  0  0  0  0  0
   11.5470    1.3250    0.0000 H   0  0  0  0  0  0  0  0  0  0  0  0
   11.1972   -3.8304    0.0000 H   0  0  0  0  0  0  0  0  0  0  0  0
    3.7320    0.0996    0.0000 H   0  0  0  0  0  0  0  0  0  0  0  0
    5.1350   -2.3304    0.0000 H   0  0  0  0  0  0  0  0  0  0  0  0
   12.9960    2.1467    0.0000 H   0  0  0  0  0  0  0  0  0  0  0  0
   12.9960    3.8125    0.0000 H   0  0  0  0  0  0  0  0  0  0  0  0
    3.7320   -3.1404    0.0000 H   0  0  0  0  0  0  0  0  0  0  0  0
    7.5252    3.6696    0.0000 H   0  0  0  0  0  0  0  0  0  0  0  0
    8.0622   -4.6404    0.0000 H   0  0  0  0  0  0  0  0  0  0  0  0
   12.0759    5.3304    0.0000 H   0  0  0  0  0  0  0  0  0  0  0  0
   10.3312   -5.3304    0.0000 H   0  0  0  0  0  0  0  0  0  0  0  0
    2.0000    0.0996    0.0000 H   0  0  0  0  0  0  0  0  0  0  0  0
    2.0000   -3.1404    0.0000 H   0  0  0  0  0  0  0  0  0  0  0  0
  1 13  2  0  0  0  0
  2 17  2  0  0  0  0
  3 27  1  0  0  0  0
  3 59  1  0  0  0  0
  4 28  1  0  0  0  0
  4 60  1  0  0  0  0
  5 29  1  0  0  0  0
  5 61  1  0  0  0  0
  6 31  1  0  0  0  0
  6 62  1  0  0  0  0
  7 36  1  0  0  0  0
  7 63  1  0  0  0  0
  8 38  1  0  0  0  0
  8 64  1  0  0  0  0
 11  9  1  1  0  0  0
  9 17  1  0  0  0  0
  9 42  1  0  0  0  0
 10 13  1  0  0  0  0
 10 15  1  0  0  0  0
 10 45  1  0  0  0  0
 11 12  1  0  0  0  0
 11 13  1  0  0  0  0
 11 39  1  0  0  0  0
 12 14  1  0  0  0  0
 12 40  1  0  0  0  0
 12 41  1  0  0  0  0
 14 21  2  0  0  0  0
 14 22  1  0  0  0  0
 15 18  1  0  0  0  0
 15 43  1  0  0  0  0
 15 44  1  0  0  0  0
 16 17  1  0  0  0  0
 16 19  1  0  0  0  0
 16 24  2  0  0  0  0
 18 23  1  0  0  0  0
 18 46  1  0  0  0  0
 18 47  1  0  0  0  0
 19 20  2  0  0  0  0
 19 26  1  0  0  0  0
 20 25  1  0  0  0  0
 20 29  1  0  0  0  0
 21 28  1  0  0  0  0
 21 48  1  0  0  0  0
 22 30  2  0  0  0  0
 22 49  1  0  0  0  0
 23 32  2  0  0  0  0
 23 33  1  0  0  0  0
 24 27  1  0  0  0  0
 24 50  1  0  0  0  0
 25 27  2  0  0  0  0
 25 51  1  0  0  0  0
 26 34  2  0  0  0  0
 26 52  1  0  0  0  0
 28 31  2  0  0  0  0
 29 35  2  0  0  0  0
 30 31  1  0  0  0  0
 30 53  1  0  0  0  0
 32 36  1  0  0  0  0
 32 54  1  0  0  0  0
 33 37  2  0  0  0  0
 33 55  1  0  0  0  0
 34 35  1  0  0  0  0
 34 56  1  0  0  0  0
 35 57  1  0  0  0  0
 36 38  2  0  0  0  0
 37 38  1  0  0  0  0
 37 58  1  0  0  0  0
M  END
> <PUBCHEM_COMPOUND_CID>
504825
> <PUBCHEM_COMPOUND_CANONICALIZED>
1
> <PUBCHEM_CACTVS_COMPLEXITY>
799
> <PUBCHEM_CACTVS_HBOND_ACCEPTOR>
8
> <PUBCHEM_CACTVS_HBOND_DONOR>
8
> <PUBCHEM_CACTVS_ROTATABLE_BOND>
8
> <PUBCHEM_CACTVS_SUBSKEYS>
AAADceB7PAAAAAAAAAAAAAAAAAAAAAAAAAAwYMGAAAAAAADBVAAAHgAQCAAADCzBmAQwBsLAAgCIAiFSEACCAAAkIAAIiIGOjMgJZjKClTOUcQlk1hGJmYf63PPOoAADAAAYQABAAAYAADCAAAAAAAAAAA==
> <PUBCHEM_IUPAC_OPENEYE_NAME>
N-[(1S)-2-[2-(3,4-dihydroxyphenyl)ethylamino]-1-[(3,4-dihydroxyphenyl)methyl]-2-oxo-ethyl]-3,5-dihydroxy-naphthalene-1-carboxamide
> <PUBCHEM_IUPAC_CAS_NAME>
N-[(2S)-3-(3,4-dihydroxyphenyl)-1-[2-(3,4-dihydroxyphenyl)ethylamino]-1-oxopropan-2-yl]-3,5-dihydroxy-1-naphthalenecarboxamide
> <PUBCHEM_IUPAC_NAME_MARKUP>
<I>N</I>-[(2<I>S</I>)-3-(3,4-dihydroxyphenyl)-1-[2-(3,4-dihydroxyphenyl)ethylamino]-1-oxopropan-2-yl]-3,5-dihydroxynaphthalene-1-carboxamide
> <PUBCHEM_IUPAC_NAME>
N-[(2S)-3-(3,4-dihydroxyphenyl)-1-[2-(3,4-dihydroxyphenyl)ethylamino]-1-oxopropan-2-yl]-3,5-dihydroxynaphthalene-1-carboxamide
> <PUBCHEM_IUPAC_SYSTEMATIC_NAME>
N-[(2S)-3-[3,4-bis(oxidanyl)phenyl]-1-[2-[3,4-bis(oxidanyl)phenyl]ethylamino]-1-oxidanylidene-propan-2-yl]-3,5-bis(oxidanyl)naphthalene-1-carboxamide
> <PUBCHEM_IUPAC_TRADITIONAL_NAME>
N-[(1S)-2-[2-(3,4-dihydroxyphenyl)ethylamino]-2-keto-1-protocatechuyl-ethyl]-3,5-dihydroxy-1-naphthamide
> <PUBCHEM_IUPAC_INCHI>
InChI=1S/C28H26N2O8/c31-17-13-19-18(2-1-3-22(19)32)20(14-17)27(37)30-21(10-16-5-7-24(34)26(36)12-16)28(38)29-9-8-15-4-6-23(33)25(35)11-15/h1-7,11-14,21,31-36H,8-10H2,(H,29,38)(H,30,37)/t21-/m0/s1
> <PUBCHEM_IUPAC_INCHIKEY>
VZOHVCZWRGEZSP-NRFANRHFSA-N
> <PUBCHEM_XLOGP3_AA>
3.6
> <PUBCHEM_EXACT_MASS>
518.16891579
> <PUBCHEM_MOLECULAR_FORMULA>
C28H26N2O8
> <PUBCHEM_MOLECULAR_WEIGHT>
518.5
> <PUBCHEM_OPENEYE_CAN_SMILES>
C1=CC2=C(C=C(C=C2C(=O)NC(CC3=CC(=C(C=C3)O)O)C(=O)NCCC4=CC(=C(C=C4)O)O)O)C(=C1)O
> <PUBCHEM_OPENEYE_ISO_SMILES>
C1=CC2=C(C=C(C=C2C(=O)N[C@@H](CC3=CC(=C(C=C3)O)O)C(=O)NCCC4=CC(=C(C=C4)O)O)O)C(=C1)O
> <PUBCHEM_CACTVS_TPSA>
180
> <PUBCHEM_MONOISOTOPIC_WEIGHT>
518.16891579
> <PUBCHEM_TOTAL_CHARGE>
0
> <PUBCHEM_HEAVY_ATOM_COUNT>
38
> <PUBCHEM_ATOM_DEF_STEREO_COUNT>
1
> <PUBCHEM_ATOM_UDEF_STEREO_COUNT>
0
> <PUBCHEM_BOND_DEF_STEREO_COUNT>
0
> <PUBCHEM_BOND_UDEF_STEREO_COUNT>
0
> <PUBCHEM_ISOTOPIC_ATOM_COUNT>
0
> <PUBCHEM_COMPONENT_COUNT>
1
> <PUBCHEM_CACTVS_TAUTO_COUNT>
-1
> <PUBCHEM_COORDINATE_TYPE>
1
5
255
> <PUBCHEM_BONDANNOTATIONS>
14  21  8
14  22  8
16  19  8
16  24  8
19  20  8
19  26  8
20  25  8
20  29  8
21  28  8
22  30  8
23  32  8
23  33  8
24  27  8
25  27  8
26  34  8
28  31  8
29  35  8
30  31  8
32  36  8
33  37  8
34  35  8
36  38  8
37  38  8
11  9  5
$$$$
