504834
  -OEChem-10302200282D
 91 96  0     1  0  0  0  0  0999 V2000
    8.1301   -2.4230    0.0000 O   0  0  0  0  0  0  0  0  0  0  0  0
    9.8622    0.5771    0.0000 O   0  0  0  0  0  0  0  0  0  0  0  0
    6.3981   -0.4229    0.0000 O   0  0  0  0  0  0  0  0  0  0  0  0
    4.6660    3.5770    0.0000 O   0  0  0  0  0  0  0  0  0  0  0  0
    2.9176   -0.4575    0.0000 O   0  0  0  0  0  0  0  0  0  0  0  0
    8.1301    5.5770    0.0000 O   0  0  0  0  0  0  0  0  0  0  0  0
    9.8622    6.5770    0.0000 O   0  0  0  0  0  0  0  0  0  0  0  0
    9.8622   -2.4230    0.0000 N   0  0  0  0  0  0  0  0  0  0  0  0
    7.2641    1.0770    0.0000 N   0  0  0  0  0  0  0  0  0  0  0  0
    8.9962    2.0770    0.0000 N   0  0  0  0  0  0  0  0  0  0  0  0
    4.6660    0.5771    0.0000 N   0  0  0  0  0  0  0  0  0  0  0  0
   10.3622   -4.2890    0.0000 C   0  0  0  0  0  0  0  0  0  0  0  0
    9.8622   -3.4230    0.0000 C   0  0  0  0  0  0  0  0  0  0  0  0
   10.8622   -5.1550    0.0000 C   0  0  0  0  0  0  0  0  0  0  0  0
    9.4962   -4.7890    0.0000 C   0  0  0  0  0  0  0  0  0  0  0  0
   11.2282   -3.7890    0.0000 C   0  0  0  0  0  0  0  0  0  0  0  0
   11.8622   -5.1550    0.0000 C   0  0  0  0  0  0  0  0  0  0  0  0
    9.4962   -5.7890    0.0000 C   0  0  0  0  0  0  0  0  0  0  0  0
   11.2282   -2.7890    0.0000 C   0  0  0  0  0  0  0  0  0  0  0  0
   10.3622   -6.0210    0.0000 C   0  0  0  0  0  0  0  0  0  0  0  0
    8.6302   -4.2890    0.0000 C   0  0  0  0  0  0  0  0  0  0  0  0
   12.0942   -4.2890    0.0000 C   0  0  0  0  0  0  0  0  0  0  0  0
    8.9962   -0.9229    0.0000 C   0  0  0  0  0  0  0  0  0  0  0  0
    8.9962   -1.9230    0.0000 C   0  0  0  0  0  0  0  0  0  0  0  0
    8.1301   -0.4229    0.0000 C   0  0  0  0  0  0  0  0  0  0  0  0
    8.1301    0.5771    0.0000 C   0  0  1  0  0  0  0  0  0  0  0  0
   12.3622   -6.0210    0.0000 C   0  0  0  0  0  0  0  0  0  0  0  0
    8.6301   -6.2890    0.0000 C   0  0  0  0  0  0  0  0  0  0  0  0
   12.0942   -2.2890    0.0000 C   0  0  0  0  0  0  0  0  0  0  0  0
   10.8622   -6.8870    0.0000 C   0  0  0  0  0  0  0  0  0  0  0  0
    7.7641   -4.7890    0.0000 C   0  0  0  0  0  0  0  0  0  0  0  0
   12.9603   -3.7890    0.0000 C   0  0  0  0  0  0  0  0  0  0  0  0
   11.8622   -6.8870    0.0000 C   0  0  0  0  0  0  0  0  0  0  0  0
    7.7642   -5.7890    0.0000 C   0  0  0  0  0  0  0  0  0  0  0  0
   12.9603   -2.7890    0.0000 C   0  0  0  0  0  0  0  0  0  0  0  0
    8.9962    1.0770    0.0000 C   0  0  0  0  0  0  0  0  0  0  0  0
    6.3981    0.5771    0.0000 C   0  0  0  0  0  0  0  0  0  0  0  0
    9.8622    2.5770    0.0000 C   0  0  0  0  0  0  0  0  0  0  0  0
    5.5321    1.0770    0.0000 C   0  0  0  0  0  0  0  0  0  0  0  0
    9.8622    3.5770    0.0000 C   0  0  0  0  0  0  0  0  0  0  0  0
    3.8000    1.0770    0.0000 C   0  0  0  0  0  0  0  0  0  0  0  0
    5.5321    2.0770    0.0000 C   0  0  0  0  0  0  0  0  0  0  0  0
    3.8000    2.0770    0.0000 C   0  0  0  0  0  0  0  0  0  0  0  0
    4.6660    2.5770    0.0000 C   0  0  0  0  0  0  0  0  0  0  0  0
    2.9061    0.5424    0.0000 C   0  0  0  0  0  0  0  0  0  0  0  0
    8.9962    4.0770    0.0000 C   0  0  0  0  0  0  0  0  0  0  0  0
   10.7282    4.0770    0.0000 C   0  0  0  0  0  0  0  0  0  0  0  0
    2.9061    2.6117    0.0000 C   0  0  0  0  0  0  0  0  0  0  0  0
    2.0000    1.0562    0.0000 C   0  0  0  0  0  0  0  0  0  0  0  0
    2.0000    2.0979    0.0000 C   0  0  0  0  0  0  0  0  0  0  0  0
    8.9962    5.0770    0.0000 C   0  0  0  0  0  0  0  0  0  0  0  0
   10.7282    5.0770    0.0000 C   0  0  0  0  0  0  0  0  0  0  0  0
    9.8622    5.5770    0.0000 C   0  0  0  0  0  0  0  0  0  0  0  0
    9.2796   -3.2109    0.0000 H   0  0  0  0  0  0  0  0  0  0  0  0
   10.4611   -3.2625    0.0000 H   0  0  0  0  0  0  0  0  0  0  0  0
   10.1722   -1.8860    0.0000 H   0  0  0  0  0  0  0  0  0  0  0  0
   12.1722   -4.6181    0.0000 H   0  0  0  0  0  0  0  0  0  0  0  0
   10.0331   -6.0990    0.0000 H   0  0  0  0  0  0  0  0  0  0  0  0
   10.6913   -2.4790    0.0000 H   0  0  0  0  0  0  0  0  0  0  0  0
    9.7422   -6.0210    0.0000 H   0  0  0  0  0  0  0  0  0  0  0  0
    8.6302   -3.6690    0.0000 H   0  0  0  0  0  0  0  0  0  0  0  0
   12.0942   -4.9090    0.0000 H   0  0  0  0  0  0  0  0  0  0  0  0
    9.6067   -1.0306    0.0000 H   0  0  0  0  0  0  0  0  0  0  0  0
    9.2082   -0.3403    0.0000 H   0  0  0  0  0  0  0  0  0  0  0  0
    7.5196   -0.3153    0.0000 H   0  0  0  0  0  0  0  0  0  0  0  0
    7.9181   -1.0056    0.0000 H   0  0  0  0  0  0  0  0  0  0  0  0
    7.5932    0.2671    0.0000 H   0  0  0  0  0  0  0  0  0  0  0  0
   12.9822   -6.0210    0.0000 H   0  0  0  0  0  0  0  0  0  0  0  0
    8.6301   -6.9090    0.0000 H   0  0  0  0  0  0  0  0  0  0  0  0
   12.0942   -1.6690    0.0000 H   0  0  0  0  0  0  0  0  0  0  0  0
   10.5522   -7.4240    0.0000 H   0  0  0  0  0  0  0  0  0  0  0  0
    7.2272   -4.4790    0.0000 H   0  0  0  0  0  0  0  0  0  0  0  0
   13.4972   -4.0990    0.0000 H   0  0  0  0  0  0  0  0  0  0  0  0
   12.1722   -7.4240    0.0000 H   0  0  0  0  0  0  0  0  0  0  0  0
    7.2272   -6.0990    0.0000 H   0  0  0  0  0  0  0  0  0  0  0  0
   13.4972   -2.4790    0.0000 H   0  0  0  0  0  0  0  0  0  0  0  0
    7.2641    1.6970    0.0000 H   0  0  0  0  0  0  0  0  0  0  0  0
    8.4592    2.3870    0.0000 H   0  0  0  0  0  0  0  0  0  0  0  0
   10.0742    1.9944    0.0000 H   0  0  0  0  0  0  0  0  0  0  0  0
   10.4728    2.6847    0.0000 H   0  0  0  0  0  0  0  0  0  0  0  0
    4.6660   -0.0429    0.0000 H   0  0  0  0  0  0  0  0  0  0  0  0
    6.0690    2.3870    0.0000 H   0  0  0  0  0  0  0  0  0  0  0  0
    8.4592    3.7670    0.0000 H   0  0  0  0  0  0  0  0  0  0  0  0
   11.2651    3.7670    0.0000 H   0  0  0  0  0  0  0  0  0  0  0  0
    2.9132    3.2317    0.0000 H   0  0  0  0  0  0  0  0  0  0  0  0
    1.4643    0.7442    0.0000 H   0  0  0  0  0  0  0  0  0  0  0  0
    1.4643    2.4099    0.0000 H   0  0  0  0  0  0  0  0  0  0  0  0
   11.2651    5.3870    0.0000 H   0  0  0  0  0  0  0  0  0  0  0  0
    2.3843   -0.7737    0.0000 H   0  0  0  0  0  0  0  0  0  0  0  0
    8.1301    6.1970    0.0000 H   0  0  0  0  0  0  0  0  0  0  0  0
   10.3991    6.8870    0.0000 H   0  0  0  0  0  0  0  0  0  0  0  0
  1 24  2  0  0  0  0
  2 36  2  0  0  0  0
  3 37  2  0  0  0  0
  4 44  2  0  0  0  0
  5 45  1  0  0  0  0
  5 89  1  0  0  0  0
  6 51  1  0  0  0  0
  6 90  1  0  0  0  0
  7 53  1  0  0  0  0
  7 91  1  0  0  0  0
  8 13  1  0  0  0  0
  8 24  1  0  0  0  0
  8 56  1  0  0  0  0
 26  9  1  6  0  0  0
  9 37  1  0  0  0  0
  9 77  1  0  0  0  0
 10 36  1  0  0  0  0
 10 38  1  0  0  0  0
 10 78  1  0  0  0  0
 11 39  1  0  0  0  0
 11 41  1  0  0  0  0
 11 81  1  0  0  0  0
 12 13  1  0  0  0  0
 12 14  1  0  0  0  0
 12 15  1  0  0  0  0
 12 16  1  0  0  0  0
 13 54  1  0  0  0  0
 13 55  1  0  0  0  0
 14 17  2  0  0  0  0
 14 20  1  0  0  0  0
 15 18  2  0  0  0  0
 15 21  1  0  0  0  0
 16 19  2  0  0  0  0
 16 22  1  0  0  0  0
 17 27  1  0  0  0  0
 17 57  1  0  0  0  0
 18 28  1  0  0  0  0
 18 58  1  0  0  0  0
 19 29  1  0  0  0  0
 19 59  1  0  0  0  0
 20 30  2  0  0  0  0
 20 60  1  0  0  0  0
 21 31  2  0  0  0  0
 21 61  1  0  0  0  0
 22 32  2  0  0  0  0
 22 62  1  0  0  0  0
 23 24  1  0  0  0  0
 23 25  1  0  0  0  0
 23 63  1  0  0  0  0
 23 64  1  0  0  0  0
 25 26  1  0  0  0  0
 25 65  1  0  0  0  0
 25 66  1  0  0  0  0
 26 36  1  0  0  0  0
 26 67  1  0  0  0  0
 27 33  2  0  0  0  0
 27 68  1  0  0  0  0
 28 34  2  0  0  0  0
 28 69  1  0  0  0  0
 29 35  2  0  0  0  0
 29 70  1  0  0  0  0
 30 33  1  0  0  0  0
 30 71  1  0  0  0  0
 31 34  1  0  0  0  0
 31 72  1  0  0  0  0
 32 35  1  0  0  0  0
 32 73  1  0  0  0  0
 33 74  1  0  0  0  0
 34 75  1  0  0  0  0
 35 76  1  0  0  0  0
 37 39  1  0  0  0  0
 38 40  1  0  0  0  0
 38 79  1  0  0  0  0
 38 80  1  0  0  0  0
 39 42  2  0  0  0  0
 40 46  2  0  0  0  0
 40 47  1  0  0  0  0
 41 43  2  0  0  0  0
 41 45  1  0  0  0  0
 42 44  1  0  0  0  0
 42 82  1  0  0  0  0
 43 44  1  0  0  0  0
 43 48  1  0  0  0  0
 45 49  2  0  0  0  0
 46 51  1  0  0  0  0
 46 83  1  0  0  0  0
 47 52  2  0  0  0  0
 47 84  1  0  0  0  0
 48 50  2  0  0  0  0
 48 85  1  0  0  0  0
 49 50  1  0  0  0  0
 49 86  1  0  0  0  0
 50 87  1  0  0  0  0
 51 53  2  0  0  0  0
 52 53  1  0  0  0  0
 52 88  1  0  0  0  0
M  END
> <PUBCHEM_COMPOUND_CID>
504834
> <PUBCHEM_COMPOUND_CANONICALIZED>
1
> <PUBCHEM_CACTVS_COMPLEXITY>
1240
> <PUBCHEM_CACTVS_HBOND_ACCEPTOR>
8
> <PUBCHEM_CACTVS_HBOND_DONOR>
7
> <PUBCHEM_CACTVS_ROTATABLE_BOND>
13
> <PUBCHEM_CACTVS_SUBSKEYS>
AAADcfB/uAAAAAAAAAAAAAAAAAAAAAAAAAAwYMGDAAAAAACBVAAAHgAQCAAADizBmAQwxoLAAgCIAqVSUACCAAAlIgAIiIGPzMgLZjrSlbOUcYlk1hHZ2ce+2/KPoAABAAACUABAAAIAAASgAAAAAAAAAA==
> <PUBCHEM_IUPAC_OPENEYE_NAME>
(2S)-N-[(3,4-dihydroxyphenyl)methyl]-2-[(8-hydroxy-4-oxo-1H-quinoline-2-carbonyl)amino]-N'-(2,2,2-triphenylethyl)pentanediamide
> <PUBCHEM_IUPAC_CAS_NAME>
(2S)-N-[(3,4-dihydroxyphenyl)methyl]-2-[[(8-hydroxy-4-oxo-1H-quinolin-2-yl)-oxomethyl]amino]-N'-(2,2,2-triphenylethyl)pentanediamide
> <PUBCHEM_IUPAC_NAME_MARKUP>
(2<I>S</I>)-<I>N</I>-[(3,4-dihydroxyphenyl)methyl]-2-[(8-hydroxy-4-oxo-1<I>H</I>-quinoline-2-carbonyl)amino]-<I>N</I>&apos;-(2,2,2-triphenylethyl)pentanediamide
> <PUBCHEM_IUPAC_NAME>
(2S)-N-[(3,4-dihydroxyphenyl)methyl]-2-[(8-hydroxy-4-oxo-1H-quinoline-2-carbonyl)amino]-N'-(2,2,2-triphenylethyl)pentanediamide
> <PUBCHEM_IUPAC_SYSTEMATIC_NAME>
(2S)-N-[[3,4-bis(oxidanyl)phenyl]methyl]-2-[(8-oxidanyl-4-oxidanylidene-1H-quinolin-2-yl)carbonylamino]-N'-(2,2,2-triphenylethyl)pentanediamide
> <PUBCHEM_IUPAC_TRADITIONAL_NAME>
(2S)-2-[(8-hydroxy-4-keto-1H-quinoline-2-carbonyl)amino]-N-protocatechuyl-N'-(2,2,2-triphenylethyl)glutaramide
> <PUBCHEM_IUPAC_INCHI>
InChI=1S/C42H38N4O7/c47-34-21-19-27(23-37(34)50)25-43-40(52)32(46-41(53)33-24-36(49)31-17-10-18-35(48)39(31)45-33)20-22-38(51)44-26-42(28-11-4-1-5-12-28,29-13-6-2-7-14-29)30-15-8-3-9-16-30/h1-19,21,23-24,32,47-48,50H,20,22,25-26H2,(H,43,52)(H,44,51)(H,45,49)(H,46,53)/t32-/m0/s1
> <PUBCHEM_IUPAC_INCHIKEY>
YIEIGDWRLTVDDX-YTTGMZPUSA-N
> <PUBCHEM_XLOGP3_AA>
5.5
> <PUBCHEM_EXACT_MASS>
710.27404956
> <PUBCHEM_MOLECULAR_FORMULA>
C42H38N4O7
> <PUBCHEM_MOLECULAR_WEIGHT>
710.8
> <PUBCHEM_OPENEYE_CAN_SMILES>
C1=CC=C(C=C1)C(CNC(=O)CCC(C(=O)NCC2=CC(=C(C=C2)O)O)NC(=O)C3=CC(=O)C4=C(N3)C(=CC=C4)O)(C5=CC=CC=C5)C6=CC=CC=C6
> <PUBCHEM_OPENEYE_ISO_SMILES>
C1=CC=C(C=C1)C(CNC(=O)CC[C@@H](C(=O)NCC2=CC(=C(C=C2)O)O)NC(=O)C3=CC(=O)C4=C(N3)C(=CC=C4)O)(C5=CC=CC=C5)C6=CC=CC=C6
> <PUBCHEM_CACTVS_TPSA>
177
> <PUBCHEM_MONOISOTOPIC_WEIGHT>
710.27404956
> <PUBCHEM_TOTAL_CHARGE>
0
> <PUBCHEM_HEAVY_ATOM_COUNT>
53
> <PUBCHEM_ATOM_DEF_STEREO_COUNT>
1
> <PUBCHEM_ATOM_UDEF_STEREO_COUNT>
0
> <PUBCHEM_BOND_DEF_STEREO_COUNT>
0
> <PUBCHEM_BOND_UDEF_STEREO_COUNT>
0
> <PUBCHEM_ISOTOPIC_ATOM_COUNT>
0
> <PUBCHEM_COMPONENT_COUNT>
1
> <PUBCHEM_CACTVS_TAUTO_COUNT>
-1
> <PUBCHEM_COORDINATE_TYPE>
1
5
255
> <PUBCHEM_BONDANNOTATIONS>
11  39  8
11  41  8
14  17  8
14  20  8
15  18  8
15  21  8
16  19  8
16  22  8
17  27  8
18  28  8
19  29  8
20  30  8
21  31  8
22  32  8
27  33  8
28  34  8
29  35  8
30  33  8
31  34  8
32  35  8
39  42  8
40  46  8
40  47  8
41  43  8
41  45  8
42  44  8
43  44  8
43  48  8
45  49  8
46  51  8
47  52  8
48  50  8
49  50  8
51  53  8
52  53  8
26  9  6
$$$$
