504858
  -OEChem-10302200282D
 62 65  0     1  0  0  0  0  0999 V2000
    2.3176   -4.0983    0.0000 F   0  0  0  0  0  0  0  0  0  0  0  0
    6.7619   -0.2318    0.0000 O   0  0  0  0  0  0  0  0  0  0  0  0
    7.7619    3.2322    0.0000 O   0  0  0  0  0  0  0  0  0  0  0  0
   10.7619   -0.2318    0.0000 O   0  0  0  0  0  0  0  0  0  0  0  0
    9.2619   -1.0979    0.0000 O   0  0  0  0  0  0  0  0  0  0  0  0
    4.6783   -0.1706    0.0000 N   0  0  0  0  0  0  0  0  0  0  0  0
    6.7619    1.5002    0.0000 N   0  0  0  0  0  0  0  0  0  0  0  0
    9.2619    2.3662    0.0000 N   0  0  0  0  0  0  0  0  0  0  0  0
    5.2619    0.6342    0.0000 C   0  0  0  0  0  0  0  0  0  0  0  0
    3.7320    0.1342    0.0000 C   0  0  0  0  0  0  0  0  0  0  0  0
    7.7619    1.5002    0.0000 C   0  0  1  0  0  0  0  0  0  0  0  0
    3.7320    1.1342    0.0000 C   0  0  0  0  0  0  0  0  0  0  0  0
    4.9889   -1.1211    0.0000 C   0  0  0  0  0  0  0  0  0  0  0  0
    4.6783    1.4389    0.0000 C   0  0  0  0  0  0  0  0  0  0  0  0
    8.2619    0.6342    0.0000 C   0  0  0  0  0  0  0  0  0  0  0  0
    6.2619    0.6342    0.0000 C   0  0  0  0  0  0  0  0  0  0  0  0
    2.8660   -0.3658    0.0000 C   0  0  0  0  0  0  0  0  0  0  0  0
    4.3211   -1.8654    0.0000 C   0  0  0  0  0  0  0  0  0  0  0  0
    8.2619    2.3662    0.0000 C   0  0  0  0  0  0  0  0  0  0  0  0
    9.2619    0.6342    0.0000 C   0  0  0  0  0  0  0  0  0  0  0  0
    2.8660    1.6342    0.0000 C   0  0  0  0  0  0  0  0  0  0  0  0
    2.0000    0.1342    0.0000 C   0  0  0  0  0  0  0  0  0  0  0  0
    2.0000    1.1342    0.0000 C   0  0  0  0  0  0  0  0  0  0  0  0
    3.3426   -1.6592    0.0000 C   0  0  0  0  0  0  0  0  0  0  0  0
    4.6318   -2.8159    0.0000 C   0  0  0  0  0  0  0  0  0  0  0  0
    9.7619    3.2322    0.0000 C   0  0  0  0  0  0  0  0  0  0  0  0
    9.7619   -0.2318    0.0000 C   0  0  0  0  0  0  0  0  0  0  0  0
   10.7619    3.2322    0.0000 C   0  0  0  0  0  0  0  0  0  0  0  0
    2.6747   -2.4035    0.0000 C   0  0  0  0  0  0  0  0  0  0  0  0
    3.9639   -3.5602    0.0000 C   0  0  0  0  0  0  0  0  0  0  0  0
    2.9854   -3.3540    0.0000 C   0  0  0  0  0  0  0  0  0  0  0  0
   11.2619    4.0983    0.0000 C   0  0  0  0  0  0  0  0  0  0  0  0
   11.2619    2.3662    0.0000 C   0  0  0  0  0  0  0  0  0  0  0  0
   12.2619    4.0983    0.0000 C   0  0  0  0  0  0  0  0  0  0  0  0
   12.2619    2.3662    0.0000 C   0  0  0  0  0  0  0  0  0  0  0  0
   12.7619    3.2322    0.0000 C   0  0  0  0  0  0  0  0  0  0  0  0
    7.4519    2.0371    0.0000 H   0  0  0  0  0  0  0  0  0  0  0  0
    5.3715   -1.6090    0.0000 H   0  0  0  0  0  0  0  0  0  0  0  0
    5.5359   -0.8291    0.0000 H   0  0  0  0  0  0  0  0  0  0  0  0
    7.6793    0.4221    0.0000 H   0  0  0  0  0  0  0  0  0  0  0  0
    8.3695    0.0236    0.0000 H   0  0  0  0  0  0  0  0  0  0  0  0
    4.8709    2.0282    0.0000 H   0  0  0  0  0  0  0  0  0  0  0  0
    6.4519    2.0371    0.0000 H   0  0  0  0  0  0  0  0  0  0  0  0
    2.8660   -0.9858    0.0000 H   0  0  0  0  0  0  0  0  0  0  0  0
    9.8445    0.8462    0.0000 H   0  0  0  0  0  0  0  0  0  0  0  0
    9.1542    1.2448    0.0000 H   0  0  0  0  0  0  0  0  0  0  0  0
    2.8660    2.2542    0.0000 H   0  0  0  0  0  0  0  0  0  0  0  0
    1.4631   -0.1758    0.0000 H   0  0  0  0  0  0  0  0  0  0  0  0
    1.4631    1.4442    0.0000 H   0  0  0  0  0  0  0  0  0  0  0  0
    9.5719    1.8293    0.0000 H   0  0  0  0  0  0  0  0  0  0  0  0
    3.1500   -1.0698    0.0000 H   0  0  0  0  0  0  0  0  0  0  0  0
    5.2384   -2.9438    0.0000 H   0  0  0  0  0  0  0  0  0  0  0  0
    9.8695    3.8428    0.0000 H   0  0  0  0  0  0  0  0  0  0  0  0
    9.1793    3.4443    0.0000 H   0  0  0  0  0  0  0  0  0  0  0  0
    2.0681   -2.2756    0.0000 H   0  0  0  0  0  0  0  0  0  0  0  0
    4.1565   -4.1495    0.0000 H   0  0  0  0  0  0  0  0  0  0  0  0
   10.9519    4.6352    0.0000 H   0  0  0  0  0  0  0  0  0  0  0  0
   10.9519    1.8293    0.0000 H   0  0  0  0  0  0  0  0  0  0  0  0
   11.0719   -0.7688    0.0000 H   0  0  0  0  0  0  0  0  0  0  0  0
   12.5719    4.6352    0.0000 H   0  0  0  0  0  0  0  0  0  0  0  0
   12.5719    1.8293    0.0000 H   0  0  0  0  0  0  0  0  0  0  0  0
   13.3819    3.2322    0.0000 H   0  0  0  0  0  0  0  0  0  0  0  0
  1 31  1  0  0  0  0
  2 16  2  0  0  0  0
  3 19  2  0  0  0  0
  4 27  1  0  0  0  0
  4 59  1  0  0  0  0
  5 27  2  0  0  0  0
  6  9  1  0  0  0  0
  6 10  1  0  0  0  0
  6 13  1  0  0  0  0
 11  7  1  6  0  0  0
  7 16  1  0  0  0  0
  7 43  1  0  0  0  0
  8 19  1  0  0  0  0
  8 26  1  0  0  0  0
  8 50  1  0  0  0  0
  9 14  2  0  0  0  0
  9 16  1  0  0  0  0
 10 12  1  0  0  0  0
 10 17  2  0  0  0  0
 11 15  1  0  0  0  0
 11 19  1  0  0  0  0
 11 37  1  0  0  0  0
 12 14  1  0  0  0  0
 12 21  2  0  0  0  0
 13 18  1  0  0  0  0
 13 38  1  0  0  0  0
 13 39  1  0  0  0  0
 14 42  1  0  0  0  0
 15 20  1  0  0  0  0
 15 40  1  0  0  0  0
 15 41  1  0  0  0  0
 17 22  1  0  0  0  0
 17 44  1  0  0  0  0
 18 24  2  0  0  0  0
 18 25  1  0  0  0  0
 20 27  1  0  0  0  0
 20 45  1  0  0  0  0
 20 46  1  0  0  0  0
 21 23  1  0  0  0  0
 21 47  1  0  0  0  0
 22 23  2  0  0  0  0
 22 48  1  0  0  0  0
 23 49  1  0  0  0  0
 24 29  1  0  0  0  0
 24 51  1  0  0  0  0
 25 30  2  0  0  0  0
 25 52  1  0  0  0  0
 26 28  1  0  0  0  0
 26 53  1  0  0  0  0
 26 54  1  0  0  0  0
 28 32  2  0  0  0  0
 28 33  1  0  0  0  0
 29 31  2  0  0  0  0
 29 55  1  0  0  0  0
 30 31  1  0  0  0  0
 30 56  1  0  0  0  0
 32 34  1  0  0  0  0
 32 57  1  0  0  0  0
 33 35  2  0  0  0  0
 33 58  1  0  0  0  0
 34 36  2  0  0  0  0
 34 60  1  0  0  0  0
 35 36  1  0  0  0  0
 35 61  1  0  0  0  0
 36 62  1  0  0  0  0
M  END
> <PUBCHEM_COMPOUND_CID>
504858
> <PUBCHEM_COMPOUND_CANONICALIZED>
1
> <PUBCHEM_CACTVS_COMPLEXITY>
751
> <PUBCHEM_CACTVS_HBOND_ACCEPTOR>
5
> <PUBCHEM_CACTVS_HBOND_DONOR>
3
> <PUBCHEM_CACTVS_ROTATABLE_BOND>
10
> <PUBCHEM_CACTVS_SUBSKEYS>
AAADceB7OQAAAAAAAAAAAAAAAAAAAWAAAAAwYMAAAAAAAFgB9AAAHwAQCAAADCjBngwwyPPMEgCoAyXyXACCgCAnAiAI2KG4ZNgIYPLAlbGUYQhklgDIyYe8n4KeAAAAAAACAAAAAAAAAAQAAAAAAAAAAA==
> <PUBCHEM_IUPAC_OPENEYE_NAME>
(4S)-5-(benzylamino)-4-[[1-[(4-fluorophenyl)methyl]indole-2-carbonyl]amino]-5-oxo-pentanoic acid
> <PUBCHEM_IUPAC_CAS_NAME>
(4S)-4-[[[1-[(4-fluorophenyl)methyl]-2-indolyl]-oxomethyl]amino]-5-oxo-5-[(phenylmethyl)amino]pentanoic acid
> <PUBCHEM_IUPAC_NAME_MARKUP>
(4<I>S</I>)-5-(benzylamino)-4-[[1-[(4-fluorophenyl)methyl]indole-2-carbonyl]amino]-5-oxopentanoic acid
> <PUBCHEM_IUPAC_NAME>
(4S)-5-(benzylamino)-4-[[1-[(4-fluorophenyl)methyl]indole-2-carbonyl]amino]-5-oxopentanoic acid
> <PUBCHEM_IUPAC_SYSTEMATIC_NAME>
(4S)-4-[[1-[(4-fluorophenyl)methyl]indol-2-yl]carbonylamino]-5-oxidanylidene-5-[(phenylmethyl)amino]pentanoic acid
> <PUBCHEM_IUPAC_TRADITIONAL_NAME>
(4S)-5-(benzylamino)-4-[[1-(4-fluorobenzyl)indole-2-carbonyl]amino]-5-keto-valeric acid
> <PUBCHEM_IUPAC_INCHI>
InChI=1S/C28H26FN3O4/c29-22-12-10-20(11-13-22)18-32-24-9-5-4-8-21(24)16-25(32)28(36)31-23(14-15-26(33)34)27(35)30-17-19-6-2-1-3-7-19/h1-13,16,23H,14-15,17-18H2,(H,30,35)(H,31,36)(H,33,34)/t23-/m0/s1
> <PUBCHEM_IUPAC_INCHIKEY>
DPTUCTDUABIVEF-QHCPKHFHSA-N
> <PUBCHEM_XLOGP3_AA>
4
> <PUBCHEM_EXACT_MASS>
487.19073448
> <PUBCHEM_MOLECULAR_FORMULA>
C28H26FN3O4
> <PUBCHEM_MOLECULAR_WEIGHT>
487.5
> <PUBCHEM_OPENEYE_CAN_SMILES>
C1=CC=C(C=C1)CNC(=O)C(CCC(=O)O)NC(=O)C2=CC3=CC=CC=C3N2CC4=CC=C(C=C4)F
> <PUBCHEM_OPENEYE_ISO_SMILES>
C1=CC=C(C=C1)CNC(=O)[C@H](CCC(=O)O)NC(=O)C2=CC3=CC=CC=C3N2CC4=CC=C(C=C4)F
> <PUBCHEM_CACTVS_TPSA>
100
> <PUBCHEM_MONOISOTOPIC_WEIGHT>
487.19073448
> <PUBCHEM_TOTAL_CHARGE>
0
> <PUBCHEM_HEAVY_ATOM_COUNT>
36
> <PUBCHEM_ATOM_DEF_STEREO_COUNT>
1
> <PUBCHEM_ATOM_UDEF_STEREO_COUNT>
0
> <PUBCHEM_BOND_DEF_STEREO_COUNT>
0
> <PUBCHEM_BOND_UDEF_STEREO_COUNT>
0
> <PUBCHEM_ISOTOPIC_ATOM_COUNT>
0
> <PUBCHEM_COMPONENT_COUNT>
1
> <PUBCHEM_CACTVS_TAUTO_COUNT>
-1
> <PUBCHEM_COORDINATE_TYPE>
1
5
255
> <PUBCHEM_BONDANNOTATIONS>
10  12  8
10  17  8
12  14  8
12  21  8
17  22  8
18  24  8
18  25  8
21  23  8
22  23  8
24  29  8
25  30  8
28  32  8
28  33  8
29  31  8
30  31  8
32  34  8
33  35  8
34  36  8
35  36  8
6  10  8
6  9  8
11  7  6
9  14  8
$$$$
