504812
  -OEChem-10302200282D
 59 60  0     1  0  0  0  0  0999 V2000
    4.2690    1.5950    0.0000 O   0  0  0  0  0  0  0  0  0  0  0  0
    6.8671    0.0950    0.0000 O   0  0  0  0  0  0  0  0  0  0  0  0
    3.4030   -0.9050    0.0000 O   0  0  0  0  0  0  0  0  0  0  0  0
   10.3312    3.0950    0.0000 O   0  0  0  0  0  0  0  0  0  0  0  0
   10.3312    5.0950    0.0000 O   0  0  0  0  0  0  0  0  0  0  0  0
    2.5369   -4.4050    0.0000 O   0  0  0  0  0  0  0  0  0  0  0  0
    4.2690   -5.4050    0.0000 O   0  0  0  0  0  0  0  0  0  0  0  0
    5.1350   -0.9050    0.0000 N   0  0  0  0  0  0  0  0  0  0  0  0
    6.0010    1.5950    0.0000 N   0  0  0  0  0  0  0  0  0  0  0  0
    3.4030    2.0950    0.0000 C   0  0  0  0  0  0  0  0  0  0  0  0
    5.1350    0.0950    0.0000 C   0  0  1  0  0  0  0  0  0  0  0  0
    4.2690    0.5950    0.0000 C   0  0  0  0  0  0  0  0  0  0  0  0
    2.5369    2.5950    0.0000 C   0  0  0  0  0  0  0  0  0  0  0  0
    3.9030    2.9610    0.0000 C   0  0  0  0  0  0  0  0  0  0  0  0
    2.9030    1.2290    0.0000 C   0  0  0  0  0  0  0  0  0  0  0  0
    6.0010    0.5950    0.0000 C   0  0  0  0  0  0  0  0  0  0  0  0
    6.8671    2.0950    0.0000 C   0  0  0  0  0  0  0  0  0  0  0  0
    6.8671    3.0950    0.0000 C   0  0  0  0  0  0  0  0  0  0  0  0
    7.7331    3.5950    0.0000 C   0  0  0  0  0  0  0  0  0  0  0  0
    4.2690   -1.4050    0.0000 C   0  0  0  0  0  0  0  0  0  0  0  0
    4.2690   -2.4050    0.0000 C   0  0  0  0  0  0  0  0  0  0  0  0
    8.5991    3.0950    0.0000 C   0  0  0  0  0  0  0  0  0  0  0  0
    7.7331    4.5950    0.0000 C   0  0  0  0  0  0  0  0  0  0  0  0
    9.4651    3.5950    0.0000 C   0  0  0  0  0  0  0  0  0  0  0  0
    3.4030   -2.9050    0.0000 C   0  0  0  0  0  0  0  0  0  0  0  0
    5.1350   -2.9050    0.0000 C   0  0  0  0  0  0  0  0  0  0  0  0
    8.5991    5.0950    0.0000 C   0  0  0  0  0  0  0  0  0  0  0  0
    9.4651    4.5950    0.0000 C   0  0  0  0  0  0  0  0  0  0  0  0
    3.4030   -3.9050    0.0000 C   0  0  0  0  0  0  0  0  0  0  0  0
    5.1350   -3.9050    0.0000 C   0  0  0  0  0  0  0  0  0  0  0  0
    4.2690   -4.4050    0.0000 C   0  0  0  0  0  0  0  0  0  0  0  0
    5.6720   -0.2150    0.0000 H   0  0  0  0  0  0  0  0  0  0  0  0
    3.6584    0.7027    0.0000 H   0  0  0  0  0  0  0  0  0  0  0  0
    4.0569    0.0124    0.0000 H   0  0  0  0  0  0  0  0  0  0  0  0
    2.8469    3.1319    0.0000 H   0  0  0  0  0  0  0  0  0  0  0  0
    2.0000    2.9050    0.0000 H   0  0  0  0  0  0  0  0  0  0  0  0
    2.2269    2.0581    0.0000 H   0  0  0  0  0  0  0  0  0  0  0  0
    4.4399    2.6510    0.0000 H   0  0  0  0  0  0  0  0  0  0  0  0
    4.2130    3.4980    0.0000 H   0  0  0  0  0  0  0  0  0  0  0  0
    3.3660    3.2710    0.0000 H   0  0  0  0  0  0  0  0  0  0  0  0
    2.3660    1.5390    0.0000 H   0  0  0  0  0  0  0  0  0  0  0  0
    2.5930    0.6920    0.0000 H   0  0  0  0  0  0  0  0  0  0  0  0
    3.4399    0.9190    0.0000 H   0  0  0  0  0  0  0  0  0  0  0  0
    5.6720   -1.2150    0.0000 H   0  0  0  0  0  0  0  0  0  0  0  0
    7.0791    1.5124    0.0000 H   0  0  0  0  0  0  0  0  0  0  0  0
    7.4776    2.2027    0.0000 H   0  0  0  0  0  0  0  0  0  0  0  0
    5.4641    1.9050    0.0000 H   0  0  0  0  0  0  0  0  0  0  0  0
    6.6550    3.6776    0.0000 H   0  0  0  0  0  0  0  0  0  0  0  0
    6.2565    2.9873    0.0000 H   0  0  0  0  0  0  0  0  0  0  0  0
    8.5991    2.4750    0.0000 H   0  0  0  0  0  0  0  0  0  0  0  0
    7.1962    4.9050    0.0000 H   0  0  0  0  0  0  0  0  0  0  0  0
    2.8660   -2.5950    0.0000 H   0  0  0  0  0  0  0  0  0  0  0  0
    8.5991    5.7150    0.0000 H   0  0  0  0  0  0  0  0  0  0  0  0
    5.6720   -2.5950    0.0000 H   0  0  0  0  0  0  0  0  0  0  0  0
    5.6720   -4.2150    0.0000 H   0  0  0  0  0  0  0  0  0  0  0  0
   10.8681    3.4050    0.0000 H   0  0  0  0  0  0  0  0  0  0  0  0
   10.3312    5.7150    0.0000 H   0  0  0  0  0  0  0  0  0  0  0  0
    2.0000   -4.0950    0.0000 H   0  0  0  0  0  0  0  0  0  0  0  0
    4.8059   -5.7150    0.0000 H   0  0  0  0  0  0  0  0  0  0  0  0
  1 10  1  0  0  0  0
  1 12  1  0  0  0  0
  2 16  2  0  0  0  0
  3 20  2  0  0  0  0
  4 24  1  0  0  0  0
  4 56  1  0  0  0  0
  5 28  1  0  0  0  0
  5 57  1  0  0  0  0
  6 29  1  0  0  0  0
  6 58  1  0  0  0  0
  7 31  1  0  0  0  0
  7 59  1  0  0  0  0
 11  8  1  1  0  0  0
  8 20  1  0  0  0  0
  8 44  1  0  0  0  0
  9 16  1  0  0  0  0
  9 17  1  0  0  0  0
  9 47  1  0  0  0  0
 10 13  1  0  0  0  0
 10 14  1  0  0  0  0
 10 15  1  0  0  0  0
 11 12  1  0  0  0  0
 11 16  1  0  0  0  0
 11 32  1  0  0  0  0
 12 33  1  0  0  0  0
 12 34  1  0  0  0  0
 13 35  1  0  0  0  0
 13 36  1  0  0  0  0
 13 37  1  0  0  0  0
 14 38  1  0  0  0  0
 14 39  1  0  0  0  0
 14 40  1  0  0  0  0
 15 41  1  0  0  0  0
 15 42  1  0  0  0  0
 15 43  1  0  0  0  0
 17 18  1  0  0  0  0
 17 45  1  0  0  0  0
 17 46  1  0  0  0  0
 18 19  1  0  0  0  0
 18 48  1  0  0  0  0
 18 49  1  0  0  0  0
 19 22  2  0  0  0  0
 19 23  1  0  0  0  0
 20 21  1  0  0  0  0
 21 25  2  0  0  0  0
 21 26  1  0  0  0  0
 22 24  1  0  0  0  0
 22 50  1  0  0  0  0
 23 27  2  0  0  0  0
 23 51  1  0  0  0  0
 24 28  2  0  0  0  0
 25 29  1  0  0  0  0
 25 52  1  0  0  0  0
 26 30  2  0  0  0  0
 26 54  1  0  0  0  0
 27 28  1  0  0  0  0
 27 53  1  0  0  0  0
 29 31  2  0  0  0  0
 30 31  1  0  0  0  0
 30 55  1  0  0  0  0
M  END
> <PUBCHEM_COMPOUND_CID>
504812
> <PUBCHEM_COMPOUND_CANONICALIZED>
1
> <PUBCHEM_CACTVS_COMPLEXITY>
595
> <PUBCHEM_CACTVS_HBOND_ACCEPTOR>
7
> <PUBCHEM_CACTVS_HBOND_DONOR>
6
> <PUBCHEM_CACTVS_ROTATABLE_BOND>
9
> <PUBCHEM_CACTVS_SUBSKEYS>
AAADceB7OAAAAAAAAAAAAAAAAAAAAAAAAAAwYAAAAAAAAAABQAAAHgAQCAAADGzhmAYyBoLABgCIAiFSEACCAAAkIAAIiIGOjMgLZjaClTOXcQlm9hGZmYe63LLOIAABAAAAQABAAAIAAACAAAAAAAAAAA==
> <PUBCHEM_IUPAC_OPENEYE_NAME>
N-[(1S)-1-(tert-butoxymethyl)-2-[2-(3,4-dihydroxyphenyl)ethylamino]-2-oxo-ethyl]-3,4-dihydroxy-benzamide
> <PUBCHEM_IUPAC_CAS_NAME>
N-[(2S)-1-[2-(3,4-dihydroxyphenyl)ethylamino]-3-[(2-methylpropan-2-yl)oxy]-1-oxopropan-2-yl]-3,4-dihydroxybenzamide
> <PUBCHEM_IUPAC_NAME_MARKUP>
<I>N</I>-[(2<I>S</I>)-1-[2-(3,4-dihydroxyphenyl)ethylamino]-3-[(2-methylpropan-2-yl)oxy]-1-oxopropan-2-yl]-3,4-dihydroxybenzamide
> <PUBCHEM_IUPAC_NAME>
N-[(2S)-1-[2-(3,4-dihydroxyphenyl)ethylamino]-3-[(2-methylpropan-2-yl)oxy]-1-oxopropan-2-yl]-3,4-dihydroxybenzamide
> <PUBCHEM_IUPAC_SYSTEMATIC_NAME>
N-[(2S)-1-[2-[3,4-bis(oxidanyl)phenyl]ethylamino]-3-[(2-methylpropan-2-yl)oxy]-1-oxidanylidene-propan-2-yl]-3,4-bis(oxidanyl)benzamide
> <PUBCHEM_IUPAC_TRADITIONAL_NAME>
N-[(1S)-1-(tert-butoxymethyl)-2-[2-(3,4-dihydroxyphenyl)ethylamino]-2-keto-ethyl]-3,4-dihydroxy-benzamide
> <PUBCHEM_IUPAC_INCHI>
InChI=1S/C22H28N2O7/c1-22(2,3)31-12-15(24-20(29)14-5-7-17(26)19(28)11-14)21(30)23-9-8-13-4-6-16(25)18(27)10-13/h4-7,10-11,15,25-28H,8-9,12H2,1-3H3,(H,23,30)(H,24,29)/t15-/m0/s1
> <PUBCHEM_IUPAC_INCHIKEY>
XHFORKXFOCYOHP-HNNXBMFYSA-N
> <PUBCHEM_XLOGP3_AA>
2
> <PUBCHEM_EXACT_MASS>
432.18965124
> <PUBCHEM_MOLECULAR_FORMULA>
C22H28N2O7
> <PUBCHEM_MOLECULAR_WEIGHT>
432.5
> <PUBCHEM_OPENEYE_CAN_SMILES>
CC(C)(C)OCC(C(=O)NCCC1=CC(=C(C=C1)O)O)NC(=O)C2=CC(=C(C=C2)O)O
> <PUBCHEM_OPENEYE_ISO_SMILES>
CC(C)(C)OC[C@@H](C(=O)NCCC1=CC(=C(C=C1)O)O)NC(=O)C2=CC(=C(C=C2)O)O
> <PUBCHEM_CACTVS_TPSA>
148
> <PUBCHEM_MONOISOTOPIC_WEIGHT>
432.18965124
> <PUBCHEM_TOTAL_CHARGE>
0
> <PUBCHEM_HEAVY_ATOM_COUNT>
31
> <PUBCHEM_ATOM_DEF_STEREO_COUNT>
1
> <PUBCHEM_ATOM_UDEF_STEREO_COUNT>
0
> <PUBCHEM_BOND_DEF_STEREO_COUNT>
0
> <PUBCHEM_BOND_UDEF_STEREO_COUNT>
0
> <PUBCHEM_ISOTOPIC_ATOM_COUNT>
0
> <PUBCHEM_COMPONENT_COUNT>
1
> <PUBCHEM_CACTVS_TAUTO_COUNT>
-1
> <PUBCHEM_COORDINATE_TYPE>
1
5
255
> <PUBCHEM_BONDANNOTATIONS>
19  22  8
19  23  8
21  25  8
21  26  8
22  24  8
23  27  8
24  28  8
25  29  8
26  30  8
27  28  8
29  31  8
30  31  8
11  8  5
$$$$
