504947
  -OEChem-10302200282D
 43 45  0     1  0  0  0  0  0999 V2000
    2.8660   -0.1550    0.0000 F   0  0  0  0  0  0  0  0  0  0  0  0
    5.4641    0.3450    0.0000 O   0  0  0  0  0  0  0  0  0  0  0  0
    4.5981    1.8450    0.0000 O   0  0  0  0  0  0  0  0  0  0  0  0
    2.8660    2.8450    0.0000 O   0  0  0  0  0  0  0  0  0  0  0  0
    2.0000    1.3450    0.0000 O   0  0  0  0  0  0  0  0  0  0  0  0
    4.5981   -1.1550    0.0000 N   0  0  0  0  0  0  0  0  0  0  0  0
    5.4641   -1.6550    0.0000 C   0  0  0  0  0  0  0  0  0  0  0  0
    6.3301   -1.1550    0.0000 C   0  0  0  0  0  0  0  0  0  0  0  0
    8.0622   -1.1550    0.0000 C   0  0  0  0  0  0  0  0  0  0  0  0
    7.1962   -1.6550    0.0000 C   0  0  0  0  0  0  0  0  0  0  0  0
    8.0622   -0.1550    0.0000 C   0  0  0  0  0  0  0  0  0  0  0  0
    3.7320   -1.6550    0.0000 C   0  0  0  0  0  0  0  0  0  0  0  0
    6.3301   -0.1550    0.0000 C   0  0  0  0  0  0  0  0  0  0  0  0
    7.1962    0.3450    0.0000 C   0  0  0  0  0  0  0  0  0  0  0  0
    4.5981   -0.1550    0.0000 C   0  0  0  0  0  0  0  0  0  0  0  0
    8.9561   -1.6897    0.0000 C   0  0  0  0  0  0  0  0  0  0  0  0
    3.7320    0.3450    0.0000 C   0  0  3  0  0  0  0  0  0  0  0  0
    8.9561    0.3797    0.0000 C   0  0  0  0  0  0  0  0  0  0  0  0
    3.7320   -2.6550    0.0000 C   0  0  0  0  0  0  0  0  0  0  0  0
    2.8660   -1.1550    0.0000 C   0  0  0  0  0  0  0  0  0  0  0  0
    9.8622   -1.1758    0.0000 C   0  0  0  0  0  0  0  0  0  0  0  0
    9.8622   -0.1342    0.0000 C   0  0  0  0  0  0  0  0  0  0  0  0
    2.8660   -3.1550    0.0000 C   0  0  0  0  0  0  0  0  0  0  0  0
    2.0000   -1.6550    0.0000 C   0  0  0  0  0  0  0  0  0  0  0  0
    2.0000   -2.6550    0.0000 C   0  0  0  0  0  0  0  0  0  0  0  0
    3.7320    1.3450    0.0000 C   0  0  0  0  0  0  0  0  0  0  0  0
    2.8660    1.8450    0.0000 C   0  0  0  0  0  0  0  0  0  0  0  0
    5.0656   -2.1300    0.0000 H   0  0  0  0  0  0  0  0  0  0  0  0
    5.8626   -2.1300    0.0000 H   0  0  0  0  0  0  0  0  0  0  0  0
    7.1962   -2.2750    0.0000 H   0  0  0  0  0  0  0  0  0  0  0  0
    5.7932    0.1550    0.0000 H   0  0  0  0  0  0  0  0  0  0  0  0
    7.1962    0.9650    0.0000 H   0  0  0  0  0  0  0  0  0  0  0  0
    8.9490   -2.3096    0.0000 H   0  0  0  0  0  0  0  0  0  0  0  0
    3.7320   -0.2750    0.0000 H   0  0  0  0  0  0  0  0  0  0  0  0
    8.9490    0.9996    0.0000 H   0  0  0  0  0  0  0  0  0  0  0  0
    4.2690   -2.9650    0.0000 H   0  0  0  0  0  0  0  0  0  0  0  0
    2.8660   -0.5350    0.0000 H   0  0  0  0  0  0  0  0  0  0  0  0
   10.3979   -1.4879    0.0000 H   0  0  0  0  0  0  0  0  0  0  0  0
   10.3979    0.1779    0.0000 H   0  0  0  0  0  0  0  0  0  0  0  0
    2.8660   -3.7750    0.0000 H   0  0  0  0  0  0  0  0  0  0  0  0
    1.4631   -1.3450    0.0000 H   0  0  0  0  0  0  0  0  0  0  0  0
    1.4631   -2.9650    0.0000 H   0  0  0  0  0  0  0  0  0  0  0  0
    2.3291    3.1550    0.0000 H   0  0  0  0  0  0  0  0  0  0  0  0
  1 17  1  0  0  0  0
  2 15  2  0  0  0  0
  3 26  2  0  0  0  0
  4 27  1  0  0  0  0
  4 43  1  0  0  0  0
  5 27  2  0  0  0  0
  6  7  1  0  0  0  0
  6 12  1  0  0  0  0
  6 15  1  0  0  0  0
  7  8  1  0  0  0  0
  7 28  1  0  0  0  0
  7 29  1  0  0  0  0
  8 10  2  0  0  0  0
  8 13  1  0  0  0  0
  9 10  1  0  0  0  0
  9 11  1  0  0  0  0
  9 16  2  0  0  0  0
 10 30  1  0  0  0  0
 11 14  1  0  0  0  0
 11 18  2  0  0  0  0
 12 19  2  0  0  0  0
 12 20  1  0  0  0  0
 13 14  2  0  0  0  0
 13 31  1  0  0  0  0
 14 32  1  0  0  0  0
 15 17  1  0  0  0  0
 16 21  1  0  0  0  0
 16 33  1  0  0  0  0
 17 26  1  0  0  0  0
 17 34  1  0  0  0  0
 18 22  1  0  0  0  0
 18 35  1  0  0  0  0
 19 23  1  0  0  0  0
 19 36  1  0  0  0  0
 20 24  2  0  0  0  0
 20 37  1  0  0  0  0
 21 22  2  0  0  0  0
 21 38  1  0  0  0  0
 22 39  1  0  0  0  0
 23 25  2  0  0  0  0
 23 40  1  0  0  0  0
 24 25  1  0  0  0  0
 24 41  1  0  0  0  0
 25 42  1  0  0  0  0
 26 27  1  0  0  0  0
M  END
> <PUBCHEM_COMPOUND_CID>
504947
> <PUBCHEM_COMPOUND_CANONICALIZED>
1
> <PUBCHEM_CACTVS_COMPLEXITY>
560
> <PUBCHEM_CACTVS_HBOND_ACCEPTOR>
5
> <PUBCHEM_CACTVS_HBOND_DONOR>
1
> <PUBCHEM_CACTVS_ROTATABLE_BOND>
6
> <PUBCHEM_CACTVS_SUBSKEYS>
AAADceB6OQAAAAAAAAAAAAAAAAAAAAAAAAAwYMAAAAAAAADBVAAAHwAACAAADAzBmAQwyMMAAgCIAqXSWAKCAAAhAgAIiAFIZIgIIDrIkZGEYAhkhgDIyAc3gMAOwAACAAAQAACAAAQAACAAAAAAAAAAAA==
> <PUBCHEM_IUPAC_OPENEYE_NAME>
3-fluoro-4-[N-(2-naphthylmethyl)anilino]-2,4-dioxo-butanoic acid
> <PUBCHEM_IUPAC_CAS_NAME>
3-fluoro-4-[N-(2-naphthalenylmethyl)anilino]-2,4-dioxobutanoic acid
> <PUBCHEM_IUPAC_NAME_MARKUP>
3-fluoro-4-[<I>N</I>-(naphthalen-2-ylmethyl)anilino]-2,4-dioxobutanoic acid
> <PUBCHEM_IUPAC_NAME>
3-fluoro-4-[N-(naphthalen-2-ylmethyl)anilino]-2,4-dioxobutanoic acid
> <PUBCHEM_IUPAC_SYSTEMATIC_NAME>
3-fluoranyl-4-[naphthalen-2-ylmethyl(phenyl)amino]-2,4-bis(oxidanylidene)butanoic acid
> <PUBCHEM_IUPAC_TRADITIONAL_NAME>
3-fluoro-2,4-diketo-4-[N-(2-naphthylmethyl)anilino]butyric acid
> <PUBCHEM_IUPAC_INCHI>
InChI=1S/C21H16FNO4/c22-18(19(24)21(26)27)20(25)23(17-8-2-1-3-9-17)13-14-10-11-15-6-4-5-7-16(15)12-14/h1-12,18H,13H2,(H,26,27)
> <PUBCHEM_IUPAC_INCHIKEY>
HEHMYICZNUUUNR-UHFFFAOYSA-N
> <PUBCHEM_XLOGP3_AA>
4.1
> <PUBCHEM_EXACT_MASS>
365.10633615
> <PUBCHEM_MOLECULAR_FORMULA>
C21H16FNO4
> <PUBCHEM_MOLECULAR_WEIGHT>
365.4
> <PUBCHEM_OPENEYE_CAN_SMILES>
C1=CC=C(C=C1)N(CC2=CC3=CC=CC=C3C=C2)C(=O)C(C(=O)C(=O)O)F
> <PUBCHEM_OPENEYE_ISO_SMILES>
C1=CC=C(C=C1)N(CC2=CC3=CC=CC=C3C=C2)C(=O)C(C(=O)C(=O)O)F
> <PUBCHEM_CACTVS_TPSA>
74.7
> <PUBCHEM_MONOISOTOPIC_WEIGHT>
365.10633615
> <PUBCHEM_TOTAL_CHARGE>
0
> <PUBCHEM_HEAVY_ATOM_COUNT>
27
> <PUBCHEM_ATOM_DEF_STEREO_COUNT>
0
> <PUBCHEM_ATOM_UDEF_STEREO_COUNT>
1
> <PUBCHEM_BOND_DEF_STEREO_COUNT>
0
> <PUBCHEM_BOND_UDEF_STEREO_COUNT>
0
> <PUBCHEM_ISOTOPIC_ATOM_COUNT>
0
> <PUBCHEM_COMPONENT_COUNT>
1
> <PUBCHEM_CACTVS_TAUTO_COUNT>
-1
> <PUBCHEM_COORDINATE_TYPE>
1
5
255
> <PUBCHEM_BONDANNOTATIONS>
17  1  3
11  14  8
11  18  8
12  19  8
12  20  8
13  14  8
16  21  8
18  22  8
19  23  8
20  24  8
21  22  8
23  25  8
24  25  8
8  10  8
8  13  8
9  10  8
9  11  8
9  16  8
$$$$
