504989
  -OEChem-10302200282D
 54 56  0     1  0  0  0  0  0999 V2000
    4.5981   -5.1307    0.0000 F   0  0  0  0  0  0  0  0  0  0  0  0
    5.5211    2.4571    0.0000 O   0  0  0  0  0  0  0  0  0  0  0  0
    6.3301   -1.1307    0.0000 O   0  0  0  0  0  0  0  0  0  0  0  0
    7.1962    0.3693    0.0000 O   0  0  0  0  0  0  0  0  0  0  0  0
    4.5981   -1.1307    0.0000 N   0  0  0  0  0  0  0  0  0  0  0  0
    7.1391    2.4571    0.0000 N   0  0  0  0  0  0  0  0  0  0  0  0
    5.8301    3.4081    0.0000 C   0  0  3  0  0  0  0  0  0  0  0  0
    3.7320   -0.6307    0.0000 C   0  0  0  0  0  0  0  0  0  0  0  0
    3.7320    0.3693    0.0000 C   0  0  0  0  0  0  0  0  0  0  0  0
    6.8301    3.4081    0.0000 C   0  0  0  0  0  0  0  0  0  0  0  0
    5.2423    4.2172    0.0000 C   0  0  0  0  0  0  0  0  0  0  0  0
    2.8660    0.8693    0.0000 C   0  0  0  0  0  0  0  0  0  0  0  0
    6.3301    1.8693    0.0000 C   0  0  0  0  0  0  0  0  0  0  0  0
    5.4641    0.3693    0.0000 C   0  0  0  0  0  0  0  0  0  0  0  0
    5.4641   -0.6307    0.0000 C   0  0  0  0  0  0  0  0  0  0  0  0
    4.5981   -2.1307    0.0000 C   0  0  0  0  0  0  0  0  0  0  0  0
    6.3301    0.8693    0.0000 C   0  0  0  0  0  0  0  0  0  0  0  0
    2.8660    1.8693    0.0000 C   0  0  0  0  0  0  0  0  0  0  0  0
    5.6491    5.1307    0.0000 C   0  0  0  0  0  0  0  0  0  0  0  0
    5.4641   -2.6307    0.0000 C   0  0  0  0  0  0  0  0  0  0  0  0
    3.7320   -2.6307    0.0000 C   0  0  0  0  0  0  0  0  0  0  0  0
    2.0000    2.3693    0.0000 C   0  0  0  0  0  0  0  0  0  0  0  0
    3.7320    2.3693    0.0000 C   0  0  0  0  0  0  0  0  0  0  0  0
    5.4641   -3.6307    0.0000 C   0  0  0  0  0  0  0  0  0  0  0  0
    3.7320   -3.6307    0.0000 C   0  0  0  0  0  0  0  0  0  0  0  0
    2.0000    3.3693    0.0000 C   0  0  0  0  0  0  0  0  0  0  0  0
    3.7320    3.3693    0.0000 C   0  0  0  0  0  0  0  0  0  0  0  0
    4.5981   -4.1307    0.0000 C   0  0  0  0  0  0  0  0  0  0  0  0
    2.8660    3.8693    0.0000 C   0  0  0  0  0  0  0  0  0  0  0  0
    5.2178    3.3112    0.0000 H   0  0  0  0  0  0  0  0  0  0  0  0
    3.1215   -0.5230    0.0000 H   0  0  0  0  0  0  0  0  0  0  0  0
    3.5200   -1.2133    0.0000 H   0  0  0  0  0  0  0  0  0  0  0  0
    4.3426    0.2616    0.0000 H   0  0  0  0  0  0  0  0  0  0  0  0
    3.9441    0.9519    0.0000 H   0  0  0  0  0  0  0  0  0  0  0  0
    7.4366    3.5370    0.0000 H   0  0  0  0  0  0  0  0  0  0  0  0
    6.7653    4.0247    0.0000 H   0  0  0  0  0  0  0  0  0  0  0  0
    4.7283    4.5639    0.0000 H   0  0  0  0  0  0  0  0  0  0  0  0
    4.8116    3.7712    0.0000 H   0  0  0  0  0  0  0  0  0  0  0  0
    2.2554    0.9770    0.0000 H   0  0  0  0  0  0  0  0  0  0  0  0
    2.6540    0.2867    0.0000 H   0  0  0  0  0  0  0  0  0  0  0  0
    5.2520    0.9519    0.0000 H   0  0  0  0  0  0  0  0  0  0  0  0
    4.8535    0.2616    0.0000 H   0  0  0  0  0  0  0  0  0  0  0  0
    6.2155    4.8785    0.0000 H   0  0  0  0  0  0  0  0  0  0  0  0
    5.9013    5.6971    0.0000 H   0  0  0  0  0  0  0  0  0  0  0  0
    5.0827    5.3829    0.0000 H   0  0  0  0  0  0  0  0  0  0  0  0
    6.0010   -2.3207    0.0000 H   0  0  0  0  0  0  0  0  0  0  0  0
    3.1951   -2.3207    0.0000 H   0  0  0  0  0  0  0  0  0  0  0  0
    1.4631    2.0593    0.0000 H   0  0  0  0  0  0  0  0  0  0  0  0
    4.2690    2.0593    0.0000 H   0  0  0  0  0  0  0  0  0  0  0  0
    6.0010   -3.9407    0.0000 H   0  0  0  0  0  0  0  0  0  0  0  0
    3.1951   -3.9407    0.0000 H   0  0  0  0  0  0  0  0  0  0  0  0
    1.4631    3.6793    0.0000 H   0  0  0  0  0  0  0  0  0  0  0  0
    4.2690    3.6793    0.0000 H   0  0  0  0  0  0  0  0  0  0  0  0
    2.8660    4.4893    0.0000 H   0  0  0  0  0  0  0  0  0  0  0  0
  1 28  1  0  0  0  0
  2  7  1  0  0  0  0
  2 13  1  0  0  0  0
  3 15  2  0  0  0  0
  4 17  2  0  0  0  0
  5  8  1  0  0  0  0
  5 15  1  0  0  0  0
  5 16  1  0  0  0  0
  6 10  1  0  0  0  0
  6 13  2  0  0  0  0
  7 10  1  0  0  0  0
  7 11  1  0  0  0  0
  7 30  1  0  0  0  0
  8  9  1  0  0  0  0
  8 31  1  0  0  0  0
  8 32  1  0  0  0  0
  9 12  1  0  0  0  0
  9 33  1  0  0  0  0
  9 34  1  0  0  0  0
 10 35  1  0  0  0  0
 10 36  1  0  0  0  0
 11 19  1  0  0  0  0
 11 37  1  0  0  0  0
 11 38  1  0  0  0  0
 12 18  1  0  0  0  0
 12 39  1  0  0  0  0
 12 40  1  0  0  0  0
 13 17  1  0  0  0  0
 14 15  1  0  0  0  0
 14 17  1  0  0  0  0
 14 41  1  0  0  0  0
 14 42  1  0  0  0  0
 16 20  2  0  0  0  0
 16 21  1  0  0  0  0
 18 22  2  0  0  0  0
 18 23  1  0  0  0  0
 19 43  1  0  0  0  0
 19 44  1  0  0  0  0
 19 45  1  0  0  0  0
 20 24  1  0  0  0  0
 20 46  1  0  0  0  0
 21 25  2  0  0  0  0
 21 47  1  0  0  0  0
 22 26  1  0  0  0  0
 22 48  1  0  0  0  0
 23 27  2  0  0  0  0
 23 49  1  0  0  0  0
 24 28  2  0  0  0  0
 24 50  1  0  0  0  0
 25 28  1  0  0  0  0
 25 51  1  0  0  0  0
 26 29  2  0  0  0  0
 26 52  1  0  0  0  0
 27 29  1  0  0  0  0
 27 53  1  0  0  0  0
 29 54  1  0  0  0  0
M  END
> <PUBCHEM_COMPOUND_CID>
504989
> <PUBCHEM_COMPOUND_CANONICALIZED>
1
> <PUBCHEM_CACTVS_COMPLEXITY>
581
> <PUBCHEM_CACTVS_HBOND_ACCEPTOR>
5
> <PUBCHEM_CACTVS_HBOND_DONOR>
0
> <PUBCHEM_CACTVS_ROTATABLE_BOND>
9
> <PUBCHEM_CACTVS_SUBSKEYS>
AAADceB7MQAAAAAAAAAAAAAAAAAAAQAAAAAwYAAAAAAAAAABQAAAHwAAAAAADBzhmA4ywIMABACoAqVyVAKCAAAhAgAIiAFoZIgKIDrIkZWHIAhkhgDIyAcygIAOAAAAAAAAAAAAAAAAAAAAAAAAAAAAAA==
> <PUBCHEM_IUPAC_OPENEYE_NAME>
3-(5-ethyl-4,5-dihydrooxazol-2-yl)-N-(4-fluorophenyl)-3-oxo-N-(3-phenylpropyl)propanamide
> <PUBCHEM_IUPAC_CAS_NAME>
3-(5-ethyl-4,5-dihydrooxazol-2-yl)-N-(4-fluorophenyl)-3-oxo-N-(3-phenylpropyl)propanamide
> <PUBCHEM_IUPAC_NAME_MARKUP>
3-(5-ethyl-4,5-dihydro-1,3-oxazol-2-yl)-<I>N</I>-(4-fluorophenyl)-3-oxo-<I>N</I>-(3-phenylpropyl)propanamide
> <PUBCHEM_IUPAC_NAME>
3-(5-ethyl-4,5-dihydro-1,3-oxazol-2-yl)-N-(4-fluorophenyl)-3-oxo-N-(3-phenylpropyl)propanamide
> <PUBCHEM_IUPAC_SYSTEMATIC_NAME>
3-(5-ethyl-4,5-dihydro-1,3-oxazol-2-yl)-N-(4-fluorophenyl)-3-oxidanylidene-N-(3-phenylpropyl)propanamide
> <PUBCHEM_IUPAC_TRADITIONAL_NAME>
3-(5-ethyl-2-oxazolin-2-yl)-N-(4-fluorophenyl)-3-keto-N-(3-phenylpropyl)propionamide
> <PUBCHEM_IUPAC_INCHI>
InChI=1S/C23H25FN2O3/c1-2-20-16-25-23(29-20)21(27)15-22(28)26(19-12-10-18(24)11-13-19)14-6-9-17-7-4-3-5-8-17/h3-5,7-8,10-13,20H,2,6,9,14-16H2,1H3
> <PUBCHEM_IUPAC_INCHIKEY>
KHUUJOYXGIDRLD-UHFFFAOYSA-N
> <PUBCHEM_XLOGP3_AA>
4.2
> <PUBCHEM_EXACT_MASS>
396.18492083
> <PUBCHEM_MOLECULAR_FORMULA>
C23H25FN2O3
> <PUBCHEM_MOLECULAR_WEIGHT>
396.5
> <PUBCHEM_OPENEYE_CAN_SMILES>
CCC1CN=C(O1)C(=O)CC(=O)N(CCCC2=CC=CC=C2)C3=CC=C(C=C3)F
> <PUBCHEM_OPENEYE_ISO_SMILES>
CCC1CN=C(O1)C(=O)CC(=O)N(CCCC2=CC=CC=C2)C3=CC=C(C=C3)F
> <PUBCHEM_CACTVS_TPSA>
59
> <PUBCHEM_MONOISOTOPIC_WEIGHT>
396.18492083
> <PUBCHEM_TOTAL_CHARGE>
0
> <PUBCHEM_HEAVY_ATOM_COUNT>
29
> <PUBCHEM_ATOM_DEF_STEREO_COUNT>
0
> <PUBCHEM_ATOM_UDEF_STEREO_COUNT>
1
> <PUBCHEM_BOND_DEF_STEREO_COUNT>
0
> <PUBCHEM_BOND_UDEF_STEREO_COUNT>
0
> <PUBCHEM_ISOTOPIC_ATOM_COUNT>
0
> <PUBCHEM_COMPONENT_COUNT>
1
> <PUBCHEM_CACTVS_TAUTO_COUNT>
-1
> <PUBCHEM_COORDINATE_TYPE>
1
5
255
> <PUBCHEM_BONDANNOTATIONS>
16  20  8
16  21  8
18  22  8
18  23  8
20  24  8
21  25  8
22  26  8
23  27  8
24  28  8
25  28  8
26  29  8
27  29  8
7  11  3
$$$$
