504991
  -OEChem-10302200282D
 63 65  0     1  0  0  0  0  0999 V2000
    5.5211    3.2071    0.0000 O   0  0  0  0  0  0  0  0  0  0  0  0
    6.3301   -0.3807    0.0000 O   0  0  0  0  0  0  0  0  0  0  0  0
    7.1962    1.1193    0.0000 O   0  0  0  0  0  0  0  0  0  0  0  0
    4.5981   -0.3807    0.0000 N   0  0  0  0  0  0  0  0  0  0  0  0
    7.1391    3.2071    0.0000 N   0  0  0  0  0  0  0  0  0  0  0  0
    3.7320    0.1193    0.0000 C   0  0  0  0  0  0  0  0  0  0  0  0
    5.8301    4.1581    0.0000 C   0  0  3  0  0  0  0  0  0  0  0  0
    3.7320    1.1193    0.0000 C   0  0  0  0  0  0  0  0  0  0  0  0
    2.8660    1.6193    0.0000 C   0  0  0  0  0  0  0  0  0  0  0  0
    6.8301    4.1581    0.0000 C   0  0  0  0  0  0  0  0  0  0  0  0
    4.5981   -1.3807    0.0000 C   0  0  0  0  0  0  0  0  0  0  0  0
    5.2423    4.9672    0.0000 C   0  0  0  0  0  0  0  0  0  0  0  0
    5.4641    0.1193    0.0000 C   0  0  0  0  0  0  0  0  0  0  0  0
    5.4641    1.1193    0.0000 C   0  0  0  0  0  0  0  0  0  0  0  0
    6.3301    2.6193    0.0000 C   0  0  0  0  0  0  0  0  0  0  0  0
    6.3301    1.6193    0.0000 C   0  0  0  0  0  0  0  0  0  0  0  0
    4.5981   -3.3807    0.0000 C   0  0  0  0  0  0  0  0  0  0  0  0
    2.8660    2.6193    0.0000 C   0  0  0  0  0  0  0  0  0  0  0  0
    3.7320   -1.8807    0.0000 C   0  0  0  0  0  0  0  0  0  0  0  0
    5.4641   -1.8807    0.0000 C   0  0  0  0  0  0  0  0  0  0  0  0
    4.5981   -4.3807    0.0000 C   0  0  0  0  0  0  0  0  0  0  0  0
    5.6491    5.8807    0.0000 C   0  0  0  0  0  0  0  0  0  0  0  0
    3.7320   -2.8807    0.0000 C   0  0  0  0  0  0  0  0  0  0  0  0
    5.4641   -2.8807    0.0000 C   0  0  0  0  0  0  0  0  0  0  0  0
    3.7320   -4.8807    0.0000 C   0  0  0  0  0  0  0  0  0  0  0  0
    3.7320    3.1193    0.0000 C   0  0  0  0  0  0  0  0  0  0  0  0
    2.0000    3.1193    0.0000 C   0  0  0  0  0  0  0  0  0  0  0  0
    3.7320   -5.8807    0.0000 C   0  0  0  0  0  0  0  0  0  0  0  0
    3.7320    4.1193    0.0000 C   0  0  0  0  0  0  0  0  0  0  0  0
    2.0000    4.1193    0.0000 C   0  0  0  0  0  0  0  0  0  0  0  0
    2.8660    4.6193    0.0000 C   0  0  0  0  0  0  0  0  0  0  0  0
    3.1215    0.2270    0.0000 H   0  0  0  0  0  0  0  0  0  0  0  0
    3.5200   -0.4633    0.0000 H   0  0  0  0  0  0  0  0  0  0  0  0
    5.2178    4.0611    0.0000 H   0  0  0  0  0  0  0  0  0  0  0  0
    4.3426    1.0116    0.0000 H   0  0  0  0  0  0  0  0  0  0  0  0
    3.9441    1.7019    0.0000 H   0  0  0  0  0  0  0  0  0  0  0  0
    2.2554    1.7270    0.0000 H   0  0  0  0  0  0  0  0  0  0  0  0
    2.6540    1.0367    0.0000 H   0  0  0  0  0  0  0  0  0  0  0  0
    7.4366    4.2870    0.0000 H   0  0  0  0  0  0  0  0  0  0  0  0
    6.7653    4.7747    0.0000 H   0  0  0  0  0  0  0  0  0  0  0  0
    4.7283    5.3139    0.0000 H   0  0  0  0  0  0  0  0  0  0  0  0
    4.8116    4.5212    0.0000 H   0  0  0  0  0  0  0  0  0  0  0  0
    5.2520    1.7019    0.0000 H   0  0  0  0  0  0  0  0  0  0  0  0
    4.8535    1.0116    0.0000 H   0  0  0  0  0  0  0  0  0  0  0  0
    3.1951   -1.5707    0.0000 H   0  0  0  0  0  0  0  0  0  0  0  0
    6.0010   -1.5707    0.0000 H   0  0  0  0  0  0  0  0  0  0  0  0
    4.8101   -4.9633    0.0000 H   0  0  0  0  0  0  0  0  0  0  0  0
    5.2087   -4.2730    0.0000 H   0  0  0  0  0  0  0  0  0  0  0  0
    6.2155    5.6285    0.0000 H   0  0  0  0  0  0  0  0  0  0  0  0
    5.9013    6.4471    0.0000 H   0  0  0  0  0  0  0  0  0  0  0  0
    5.0827    6.1329    0.0000 H   0  0  0  0  0  0  0  0  0  0  0  0
    3.1951   -3.1907    0.0000 H   0  0  0  0  0  0  0  0  0  0  0  0
    6.0010   -3.1907    0.0000 H   0  0  0  0  0  0  0  0  0  0  0  0
    3.5200   -4.2981    0.0000 H   0  0  0  0  0  0  0  0  0  0  0  0
    3.1215   -4.9884    0.0000 H   0  0  0  0  0  0  0  0  0  0  0  0
    4.2690    2.8093    0.0000 H   0  0  0  0  0  0  0  0  0  0  0  0
    1.4631    2.8093    0.0000 H   0  0  0  0  0  0  0  0  0  0  0  0
    3.1120   -5.8807    0.0000 H   0  0  0  0  0  0  0  0  0  0  0  0
    3.7320   -6.5007    0.0000 H   0  0  0  0  0  0  0  0  0  0  0  0
    4.3520   -5.8807    0.0000 H   0  0  0  0  0  0  0  0  0  0  0  0
    4.2690    4.4293    0.0000 H   0  0  0  0  0  0  0  0  0  0  0  0
    1.4631    4.4293    0.0000 H   0  0  0  0  0  0  0  0  0  0  0  0
    2.8660    5.2393    0.0000 H   0  0  0  0  0  0  0  0  0  0  0  0
  1  7  1  0  0  0  0
  1 15  1  0  0  0  0
  2 13  2  0  0  0  0
  3 16  2  0  0  0  0
  4  6  1  0  0  0  0
  4 11  1  0  0  0  0
  4 13  1  0  0  0  0
  5 10  1  0  0  0  0
  5 15  2  0  0  0  0
  6  8  1  0  0  0  0
  6 32  1  0  0  0  0
  6 33  1  0  0  0  0
  7 10  1  0  0  0  0
  7 12  1  0  0  0  0
  7 34  1  0  0  0  0
  8  9  1  0  0  0  0
  8 35  1  0  0  0  0
  8 36  1  0  0  0  0
  9 18  1  0  0  0  0
  9 37  1  0  0  0  0
  9 38  1  0  0  0  0
 10 39  1  0  0  0  0
 10 40  1  0  0  0  0
 11 19  2  0  0  0  0
 11 20  1  0  0  0  0
 12 22  1  0  0  0  0
 12 41  1  0  0  0  0
 12 42  1  0  0  0  0
 13 14  1  0  0  0  0
 14 16  1  0  0  0  0
 14 43  1  0  0  0  0
 14 44  1  0  0  0  0
 15 16  1  0  0  0  0
 17 21  1  0  0  0  0
 17 23  2  0  0  0  0
 17 24  1  0  0  0  0
 18 26  2  0  0  0  0
 18 27  1  0  0  0  0
 19 23  1  0  0  0  0
 19 45  1  0  0  0  0
 20 24  2  0  0  0  0
 20 46  1  0  0  0  0
 21 25  1  0  0  0  0
 21 47  1  0  0  0  0
 21 48  1  0  0  0  0
 22 49  1  0  0  0  0
 22 50  1  0  0  0  0
 22 51  1  0  0  0  0
 23 52  1  0  0  0  0
 24 53  1  0  0  0  0
 25 28  1  0  0  0  0
 25 54  1  0  0  0  0
 25 55  1  0  0  0  0
 26 29  1  0  0  0  0
 26 56  1  0  0  0  0
 27 30  2  0  0  0  0
 27 57  1  0  0  0  0
 28 58  1  0  0  0  0
 28 59  1  0  0  0  0
 28 60  1  0  0  0  0
 29 31  2  0  0  0  0
 29 61  1  0  0  0  0
 30 31  1  0  0  0  0
 30 62  1  0  0  0  0
 31 63  1  0  0  0  0
M  END
> <PUBCHEM_COMPOUND_CID>
504991
> <PUBCHEM_COMPOUND_CANONICALIZED>
1
> <PUBCHEM_CACTVS_COMPLEXITY>
604
> <PUBCHEM_CACTVS_HBOND_ACCEPTOR>
4
> <PUBCHEM_CACTVS_HBOND_DONOR>
0
> <PUBCHEM_CACTVS_ROTATABLE_BOND>
11
> <PUBCHEM_CACTVS_SUBSKEYS>
AAADcfB7MAAAAAAAAAAAAAAAAAAAAQAAAAAwYAAAAAAAAAABQAAAHgAAAAAADBzhmAYywIMABACoAqVyVAKCAAAhAgAIiAFoZIgKIDrIkZWHIAhkhgDIyAcygIAOCAAAAAAAAAAQAAAAAAAAAAAAAAAAAA==
> <PUBCHEM_IUPAC_OPENEYE_NAME>
3-(5-ethyl-4,5-dihydrooxazol-2-yl)-3-oxo-N-(3-phenylpropyl)-N-(4-propylphenyl)propanamide
> <PUBCHEM_IUPAC_CAS_NAME>
3-(5-ethyl-4,5-dihydrooxazol-2-yl)-3-oxo-N-(3-phenylpropyl)-N-(4-propylphenyl)propanamide
> <PUBCHEM_IUPAC_NAME_MARKUP>
3-(5-ethyl-4,5-dihydro-1,3-oxazol-2-yl)-3-oxo-<I>N</I>-(3-phenylpropyl)-<I>N</I>-(4-propylphenyl)propanamide
> <PUBCHEM_IUPAC_NAME>
3-(5-ethyl-4,5-dihydro-1,3-oxazol-2-yl)-3-oxo-N-(3-phenylpropyl)-N-(4-propylphenyl)propanamide
> <PUBCHEM_IUPAC_SYSTEMATIC_NAME>
3-(5-ethyl-4,5-dihydro-1,3-oxazol-2-yl)-3-oxidanylidene-N-(3-phenylpropyl)-N-(4-propylphenyl)propanamide
> <PUBCHEM_IUPAC_TRADITIONAL_NAME>
3-(5-ethyl-2-oxazolin-2-yl)-3-keto-N-(3-phenylpropyl)-N-(4-propylphenyl)propionamide
> <PUBCHEM_IUPAC_INCHI>
InChI=1S/C26H32N2O3/c1-3-9-20-13-15-22(16-14-20)28(17-8-12-21-10-6-5-7-11-21)25(30)18-24(29)26-27-19-23(4-2)31-26/h5-7,10-11,13-16,23H,3-4,8-9,12,17-19H2,1-2H3
> <PUBCHEM_IUPAC_INCHIKEY>
WCDOJMMWPLVTES-UHFFFAOYSA-N
> <PUBCHEM_XLOGP3_AA>
5.5
> <PUBCHEM_EXACT_MASS>
420.24129289
> <PUBCHEM_MOLECULAR_FORMULA>
C26H32N2O3
> <PUBCHEM_MOLECULAR_WEIGHT>
420.5
> <PUBCHEM_OPENEYE_CAN_SMILES>
CCCC1=CC=C(C=C1)N(CCCC2=CC=CC=C2)C(=O)CC(=O)C3=NCC(O3)CC
> <PUBCHEM_OPENEYE_ISO_SMILES>
CCCC1=CC=C(C=C1)N(CCCC2=CC=CC=C2)C(=O)CC(=O)C3=NCC(O3)CC
> <PUBCHEM_CACTVS_TPSA>
59
> <PUBCHEM_MONOISOTOPIC_WEIGHT>
420.24129289
> <PUBCHEM_TOTAL_CHARGE>
0
> <PUBCHEM_HEAVY_ATOM_COUNT>
31
> <PUBCHEM_ATOM_DEF_STEREO_COUNT>
0
> <PUBCHEM_ATOM_UDEF_STEREO_COUNT>
1
> <PUBCHEM_BOND_DEF_STEREO_COUNT>
0
> <PUBCHEM_BOND_UDEF_STEREO_COUNT>
0
> <PUBCHEM_ISOTOPIC_ATOM_COUNT>
0
> <PUBCHEM_COMPONENT_COUNT>
1
> <PUBCHEM_CACTVS_TAUTO_COUNT>
-1
> <PUBCHEM_COORDINATE_TYPE>
1
5
255
> <PUBCHEM_BONDANNOTATIONS>
11  19  8
11  20  8
17  23  8
17  24  8
18  26  8
18  27  8
19  23  8
20  24  8
26  29  8
27  30  8
29  31  8
30  31  8
7  12  3
$$$$
