504967
  -OEChem-10302200282D
 51 52  0     1  0  0  0  0  0999 V2000
    4.5981    3.8100    0.0000 Cl  0  0  0  0  0  0  0  0  0  0  0  0
    2.8660    4.8100    0.0000 Cl  0  0  0  0  0  0  0  0  0  0  0  0
    7.1962   -0.6900    0.0000 O   0  0  0  0  0  0  0  0  0  0  0  0
    4.5981    1.8100    0.0000 O   0  0  0  0  0  0  0  0  0  0  0  0
    6.3301    1.8100    0.0000 O   0  0  0  0  0  0  0  0  0  0  0  0
    2.8660   -4.1900    0.0000 O   0  0  0  0  0  0  0  0  0  0  0  0
    4.5981   -4.1900    0.0000 O   0  0  0  0  0  0  0  0  0  0  0  0
    3.7320    0.3100    0.0000 N   0  0  0  0  0  0  0  0  0  0  0  0
    8.0622    0.8100    0.0000 C   0  0  3  0  0  0  0  0  0  0  0  0
    8.9282    0.3100    0.0000 C   0  0  0  0  0  0  0  0  0  0  0  0
    2.8660    0.8100    0.0000 C   0  0  0  0  0  0  0  0  0  0  0  0
    7.1962    0.3100    0.0000 C   0  0  0  0  0  0  0  0  0  0  0  0
    5.4641    0.3100    0.0000 C   0  0  0  0  0  0  0  0  0  0  0  0
    8.0622    1.8100    0.0000 C   0  0  0  0  0  0  0  0  0  0  0  0
    4.5981    0.8100    0.0000 C   0  0  0  0  0  0  0  0  0  0  0  0
    3.7320   -0.6900    0.0000 C   0  0  0  0  0  0  0  0  0  0  0  0
    6.3301    0.8100    0.0000 C   0  0  0  0  0  0  0  0  0  0  0  0
    2.8660    1.8100    0.0000 C   0  0  0  0  0  0  0  0  0  0  0  0
    9.7942    0.8100    0.0000 C   0  0  0  0  0  0  0  0  0  0  0  0
    2.8660   -1.1900    0.0000 C   0  0  0  0  0  0  0  0  0  0  0  0
    4.5981   -1.1900    0.0000 C   0  0  0  0  0  0  0  0  0  0  0  0
    3.7320    2.3100    0.0000 C   0  0  0  0  0  0  0  0  0  0  0  0
    2.0000    2.3100    0.0000 C   0  0  0  0  0  0  0  0  0  0  0  0
    2.8660   -2.1900    0.0000 C   0  0  0  0  0  0  0  0  0  0  0  0
    4.5981   -2.1900    0.0000 C   0  0  0  0  0  0  0  0  0  0  0  0
    3.7320   -2.6900    0.0000 C   0  0  0  0  0  0  0  0  0  0  0  0
    3.7320    3.3100    0.0000 C   0  0  0  0  0  0  0  0  0  0  0  0
    2.0000    3.3100    0.0000 C   0  0  0  0  0  0  0  0  0  0  0  0
    2.8660    3.8100    0.0000 C   0  0  0  0  0  0  0  0  0  0  0  0
    3.7320   -3.6900    0.0000 C   0  0  0  0  0  0  0  0  0  0  0  0
    7.5252    1.1200    0.0000 H   0  0  0  0  0  0  0  0  0  0  0  0
    8.5297   -0.1649    0.0000 H   0  0  0  0  0  0  0  0  0  0  0  0
    9.3267   -0.1649    0.0000 H   0  0  0  0  0  0  0  0  0  0  0  0
    2.2554    0.9177    0.0000 H   0  0  0  0  0  0  0  0  0  0  0  0
    2.6540    0.2274    0.0000 H   0  0  0  0  0  0  0  0  0  0  0  0
    5.0656   -0.1649    0.0000 H   0  0  0  0  0  0  0  0  0  0  0  0
    5.8626   -0.1649    0.0000 H   0  0  0  0  0  0  0  0  0  0  0  0
    8.6822    1.8100    0.0000 H   0  0  0  0  0  0  0  0  0  0  0  0
    8.0622    2.4300    0.0000 H   0  0  0  0  0  0  0  0  0  0  0  0
    7.4422    1.8100    0.0000 H   0  0  0  0  0  0  0  0  0  0  0  0
   10.1042    0.2731    0.0000 H   0  0  0  0  0  0  0  0  0  0  0  0
   10.3312    1.1200    0.0000 H   0  0  0  0  0  0  0  0  0  0  0  0
    9.4842    1.3469    0.0000 H   0  0  0  0  0  0  0  0  0  0  0  0
    2.3291   -0.8800    0.0000 H   0  0  0  0  0  0  0  0  0  0  0  0
    5.1350   -0.8800    0.0000 H   0  0  0  0  0  0  0  0  0  0  0  0
    4.2690    2.0000    0.0000 H   0  0  0  0  0  0  0  0  0  0  0  0
    1.4631    2.0000    0.0000 H   0  0  0  0  0  0  0  0  0  0  0  0
    2.3291   -2.5000    0.0000 H   0  0  0  0  0  0  0  0  0  0  0  0
    5.1350   -2.5000    0.0000 H   0  0  0  0  0  0  0  0  0  0  0  0
    1.4631    3.6200    0.0000 H   0  0  0  0  0  0  0  0  0  0  0  0
    2.8660   -4.8100    0.0000 H   0  0  0  0  0  0  0  0  0  0  0  0
  1 27  1  0  0  0  0
  2 29  1  0  0  0  0
  3 12  2  0  0  0  0
  4 15  2  0  0  0  0
  5 17  2  0  0  0  0
  6 30  1  0  0  0  0
  6 51  1  0  0  0  0
  7 30  2  0  0  0  0
  8 11  1  0  0  0  0
  8 15  1  0  0  0  0
  8 16  1  0  0  0  0
  9 10  1  0  0  0  0
  9 12  1  0  0  0  0
  9 14  1  0  0  0  0
  9 31  1  0  0  0  0
 10 19  1  0  0  0  0
 10 32  1  0  0  0  0
 10 33  1  0  0  0  0
 11 18  1  0  0  0  0
 11 34  1  0  0  0  0
 11 35  1  0  0  0  0
 12 17  1  0  0  0  0
 13 15  1  0  0  0  0
 13 17  1  0  0  0  0
 13 36  1  0  0  0  0
 13 37  1  0  0  0  0
 14 38  1  0  0  0  0
 14 39  1  0  0  0  0
 14 40  1  0  0  0  0
 16 20  2  0  0  0  0
 16 21  1  0  0  0  0
 18 22  2  0  0  0  0
 18 23  1  0  0  0  0
 19 41  1  0  0  0  0
 19 42  1  0  0  0  0
 19 43  1  0  0  0  0
 20 24  1  0  0  0  0
 20 44  1  0  0  0  0
 21 25  2  0  0  0  0
 21 45  1  0  0  0  0
 22 27  1  0  0  0  0
 22 46  1  0  0  0  0
 23 28  2  0  0  0  0
 23 47  1  0  0  0  0
 24 26  2  0  0  0  0
 24 48  1  0  0  0  0
 25 26  1  0  0  0  0
 25 49  1  0  0  0  0
 26 30  1  0  0  0  0
 27 29  2  0  0  0  0
 28 29  1  0  0  0  0
 28 50  1  0  0  0  0
M  END
> <PUBCHEM_COMPOUND_CID>
504967
> <PUBCHEM_COMPOUND_CANONICALIZED>
1
> <PUBCHEM_CACTVS_COMPLEXITY>
647
> <PUBCHEM_CACTVS_HBOND_ACCEPTOR>
5
> <PUBCHEM_CACTVS_HBOND_DONOR>
1
> <PUBCHEM_CACTVS_ROTATABLE_BOND>
9
> <PUBCHEM_CACTVS_SUBSKEYS>
AAADceB6OAAGAAAAAAAAAAAAAAAAAAAAAAAwYAAAAAAAAAABQAAAHgIACAAADQ7BmCQyyIMAAgCIAqXSWACCAAAlBwAIikEIbsgIJjrJl5GEcQhkxgHI2Yed2SOeDAAAIAAAAAQYAABAAAAACAAAAAAAAA==
> <PUBCHEM_IUPAC_OPENEYE_NAME>
4-[(3,4-dichlorophenyl)methyl-(5-methyl-3,4-dioxo-heptanoyl)amino]benzoic acid
> <PUBCHEM_IUPAC_CAS_NAME>
4-[(3,4-dichlorophenyl)methyl-(5-methyl-1,3,4-trioxoheptyl)amino]benzoic acid
> <PUBCHEM_IUPAC_NAME_MARKUP>
4-[(3,4-dichlorophenyl)methyl-(5-methyl-3,4-dioxoheptanoyl)amino]benzoic acid
> <PUBCHEM_IUPAC_NAME>
4-[(3,4-dichlorophenyl)methyl-(5-methyl-3,4-dioxoheptanoyl)amino]benzoic acid
> <PUBCHEM_IUPAC_SYSTEMATIC_NAME>
4-[(3,4-dichlorophenyl)methyl-[5-methyl-3,4-bis(oxidanylidene)heptanoyl]amino]benzoic acid
> <PUBCHEM_IUPAC_TRADITIONAL_NAME>
4-[(3,4-dichlorobenzyl)-(3,4-diketo-5-methyl-heptanoyl)amino]benzoic acid
> <PUBCHEM_IUPAC_INCHI>
InChI=1S/C22H21Cl2NO5/c1-3-13(2)21(28)19(26)11-20(27)25(12-14-4-9-17(23)18(24)10-14)16-7-5-15(6-8-16)22(29)30/h4-10,13H,3,11-12H2,1-2H3,(H,29,30)
> <PUBCHEM_IUPAC_INCHIKEY>
HJCNZHAIJLBECT-UHFFFAOYSA-N
> <PUBCHEM_XLOGP3_AA>
4.5
> <PUBCHEM_EXACT_MASS>
449.0796782
> <PUBCHEM_MOLECULAR_FORMULA>
C22H21Cl2NO5
> <PUBCHEM_MOLECULAR_WEIGHT>
450.3
> <PUBCHEM_OPENEYE_CAN_SMILES>
CCC(C)C(=O)C(=O)CC(=O)N(CC1=CC(=C(C=C1)Cl)Cl)C2=CC=C(C=C2)C(=O)O
> <PUBCHEM_OPENEYE_ISO_SMILES>
CCC(C)C(=O)C(=O)CC(=O)N(CC1=CC(=C(C=C1)Cl)Cl)C2=CC=C(C=C2)C(=O)O
> <PUBCHEM_CACTVS_TPSA>
91.8
> <PUBCHEM_MONOISOTOPIC_WEIGHT>
449.0796782
> <PUBCHEM_TOTAL_CHARGE>
0
> <PUBCHEM_HEAVY_ATOM_COUNT>
30
> <PUBCHEM_ATOM_DEF_STEREO_COUNT>
0
> <PUBCHEM_ATOM_UDEF_STEREO_COUNT>
1
> <PUBCHEM_BOND_DEF_STEREO_COUNT>
0
> <PUBCHEM_BOND_UDEF_STEREO_COUNT>
0
> <PUBCHEM_ISOTOPIC_ATOM_COUNT>
0
> <PUBCHEM_COMPONENT_COUNT>
1
> <PUBCHEM_CACTVS_TAUTO_COUNT>
-1
> <PUBCHEM_COORDINATE_TYPE>
1
5
255
> <PUBCHEM_BONDANNOTATIONS>
16  20  8
16  21  8
18  22  8
18  23  8
20  24  8
21  25  8
22  27  8
23  28  8
24  26  8
25  26  8
27  29  8
28  29  8
9  14  3
$$$$
