504990
  -OEChem-10302200282D
 63 65  0     1  0  0  0  0  0999 V2000
    5.5211    2.4571    0.0000 O   0  0  0  0  0  0  0  0  0  0  0  0
    6.3301   -1.1307    0.0000 O   0  0  0  0  0  0  0  0  0  0  0  0
    7.1962    0.3693    0.0000 O   0  0  0  0  0  0  0  0  0  0  0  0
    4.5981   -1.1307    0.0000 N   0  0  0  0  0  0  0  0  0  0  0  0
    7.1391    2.4571    0.0000 N   0  0  0  0  0  0  0  0  0  0  0  0
    3.7320   -0.6307    0.0000 C   0  0  0  0  0  0  0  0  0  0  0  0
    3.7320    0.3693    0.0000 C   0  0  0  0  0  0  0  0  0  0  0  0
    5.8301    3.4081    0.0000 C   0  0  3  0  0  0  0  0  0  0  0  0
    4.5981   -2.1307    0.0000 C   0  0  0  0  0  0  0  0  0  0  0  0
    2.8660   -4.1307    0.0000 C   0  0  0  0  0  0  0  0  0  0  0  0
    2.8660    0.8693    0.0000 C   0  0  0  0  0  0  0  0  0  0  0  0
    3.7320   -3.6307    0.0000 C   0  0  0  0  0  0  0  0  0  0  0  0
    6.8301    3.4081    0.0000 C   0  0  0  0  0  0  0  0  0  0  0  0
    5.2423    4.2172    0.0000 C   0  0  0  0  0  0  0  0  0  0  0  0
    5.4641   -0.6307    0.0000 C   0  0  0  0  0  0  0  0  0  0  0  0
    3.7320   -2.6307    0.0000 C   0  0  0  0  0  0  0  0  0  0  0  0
    5.4641    0.3693    0.0000 C   0  0  0  0  0  0  0  0  0  0  0  0
    6.3301    1.8693    0.0000 C   0  0  0  0  0  0  0  0  0  0  0  0
    5.4641   -2.6307    0.0000 C   0  0  0  0  0  0  0  0  0  0  0  0
    6.3301    0.8693    0.0000 C   0  0  0  0  0  0  0  0  0  0  0  0
    2.8660    1.8693    0.0000 C   0  0  0  0  0  0  0  0  0  0  0  0
    4.5981   -4.1307    0.0000 C   0  0  0  0  0  0  0  0  0  0  0  0
    2.8660   -5.1307    0.0000 C   0  0  0  0  0  0  0  0  0  0  0  0
    2.0000   -3.6307    0.0000 C   0  0  0  0  0  0  0  0  0  0  0  0
    5.4641   -3.6307    0.0000 C   0  0  0  0  0  0  0  0  0  0  0  0
    5.6491    5.1307    0.0000 C   0  0  0  0  0  0  0  0  0  0  0  0
    3.7320    2.3693    0.0000 C   0  0  0  0  0  0  0  0  0  0  0  0
    2.0000    2.3693    0.0000 C   0  0  0  0  0  0  0  0  0  0  0  0
    3.7320    3.3693    0.0000 C   0  0  0  0  0  0  0  0  0  0  0  0
    2.0000    3.3693    0.0000 C   0  0  0  0  0  0  0  0  0  0  0  0
    2.8660    3.8693    0.0000 C   0  0  0  0  0  0  0  0  0  0  0  0
    3.1215   -0.5230    0.0000 H   0  0  0  0  0  0  0  0  0  0  0  0
    3.5200   -1.2133    0.0000 H   0  0  0  0  0  0  0  0  0  0  0  0
    4.3426    0.2616    0.0000 H   0  0  0  0  0  0  0  0  0  0  0  0
    3.9441    0.9519    0.0000 H   0  0  0  0  0  0  0  0  0  0  0  0
    5.2178    3.3112    0.0000 H   0  0  0  0  0  0  0  0  0  0  0  0
    2.8660   -3.5107    0.0000 H   0  0  0  0  0  0  0  0  0  0  0  0
    2.2554    0.9770    0.0000 H   0  0  0  0  0  0  0  0  0  0  0  0
    2.6540    0.2867    0.0000 H   0  0  0  0  0  0  0  0  0  0  0  0
    7.4366    3.5370    0.0000 H   0  0  0  0  0  0  0  0  0  0  0  0
    6.7653    4.0247    0.0000 H   0  0  0  0  0  0  0  0  0  0  0  0
    4.7283    4.5639    0.0000 H   0  0  0  0  0  0  0  0  0  0  0  0
    4.8116    3.7712    0.0000 H   0  0  0  0  0  0  0  0  0  0  0  0
    3.1951   -2.3207    0.0000 H   0  0  0  0  0  0  0  0  0  0  0  0
    5.2520    0.9519    0.0000 H   0  0  0  0  0  0  0  0  0  0  0  0
    4.8535    0.2616    0.0000 H   0  0  0  0  0  0  0  0  0  0  0  0
    6.0010   -2.3207    0.0000 H   0  0  0  0  0  0  0  0  0  0  0  0
    4.5981   -4.7507    0.0000 H   0  0  0  0  0  0  0  0  0  0  0  0
    2.2460   -5.1307    0.0000 H   0  0  0  0  0  0  0  0  0  0  0  0
    2.8660   -5.7507    0.0000 H   0  0  0  0  0  0  0  0  0  0  0  0
    3.4860   -5.1307    0.0000 H   0  0  0  0  0  0  0  0  0  0  0  0
    2.3100   -3.0938    0.0000 H   0  0  0  0  0  0  0  0  0  0  0  0
    1.4631   -3.3207    0.0000 H   0  0  0  0  0  0  0  0  0  0  0  0
    1.6900   -4.1676    0.0000 H   0  0  0  0  0  0  0  0  0  0  0  0
    6.0010   -3.9407    0.0000 H   0  0  0  0  0  0  0  0  0  0  0  0
    6.2155    4.8785    0.0000 H   0  0  0  0  0  0  0  0  0  0  0  0
    5.9013    5.6971    0.0000 H   0  0  0  0  0  0  0  0  0  0  0  0
    5.0827    5.3829    0.0000 H   0  0  0  0  0  0  0  0  0  0  0  0
    4.2690    2.0593    0.0000 H   0  0  0  0  0  0  0  0  0  0  0  0
    1.4631    2.0593    0.0000 H   0  0  0  0  0  0  0  0  0  0  0  0
    4.2690    3.6793    0.0000 H   0  0  0  0  0  0  0  0  0  0  0  0
    1.4631    3.6793    0.0000 H   0  0  0  0  0  0  0  0  0  0  0  0
    2.8660    4.4893    0.0000 H   0  0  0  0  0  0  0  0  0  0  0  0
  1  8  1  0  0  0  0
  1 18  1  0  0  0  0
  2 15  2  0  0  0  0
  3 20  2  0  0  0  0
  4  6  1  0  0  0  0
  4  9  1  0  0  0  0
  4 15  1  0  0  0  0
  5 13  1  0  0  0  0
  5 18  2  0  0  0  0
  6  7  1  0  0  0  0
  6 32  1  0  0  0  0
  6 33  1  0  0  0  0
  7 11  1  0  0  0  0
  7 34  1  0  0  0  0
  7 35  1  0  0  0  0
  8 13  1  0  0  0  0
  8 14  1  0  0  0  0
  8 36  1  0  0  0  0
  9 16  1  0  0  0  0
  9 19  2  0  0  0  0
 10 12  1  0  0  0  0
 10 23  1  0  0  0  0
 10 24  1  0  0  0  0
 10 37  1  0  0  0  0
 11 21  1  0  0  0  0
 11 38  1  0  0  0  0
 11 39  1  0  0  0  0
 12 16  2  0  0  0  0
 12 22  1  0  0  0  0
 13 40  1  0  0  0  0
 13 41  1  0  0  0  0
 14 26  1  0  0  0  0
 14 42  1  0  0  0  0
 14 43  1  0  0  0  0
 15 17  1  0  0  0  0
 16 44  1  0  0  0  0
 17 20  1  0  0  0  0
 17 45  1  0  0  0  0
 17 46  1  0  0  0  0
 18 20  1  0  0  0  0
 19 25  1  0  0  0  0
 19 47  1  0  0  0  0
 21 27  2  0  0  0  0
 21 28  1  0  0  0  0
 22 25  2  0  0  0  0
 22 48  1  0  0  0  0
 23 49  1  0  0  0  0
 23 50  1  0  0  0  0
 23 51  1  0  0  0  0
 24 52  1  0  0  0  0
 24 53  1  0  0  0  0
 24 54  1  0  0  0  0
 25 55  1  0  0  0  0
 26 56  1  0  0  0  0
 26 57  1  0  0  0  0
 26 58  1  0  0  0  0
 27 29  1  0  0  0  0
 27 59  1  0  0  0  0
 28 30  2  0  0  0  0
 28 60  1  0  0  0  0
 29 31  2  0  0  0  0
 29 61  1  0  0  0  0
 30 31  1  0  0  0  0
 30 62  1  0  0  0  0
 31 63  1  0  0  0  0
M  END
> <PUBCHEM_COMPOUND_CID>
504990
> <PUBCHEM_COMPOUND_CANONICALIZED>
1
> <PUBCHEM_CACTVS_COMPLEXITY>
624
> <PUBCHEM_CACTVS_HBOND_ACCEPTOR>
4
> <PUBCHEM_CACTVS_HBOND_DONOR>
0
> <PUBCHEM_CACTVS_ROTATABLE_BOND>
10
> <PUBCHEM_CACTVS_SUBSKEYS>
AAADcfB7MAAAAAAAAAAAAAAAAAAAAQAAAAAwYAAAAAAAAAABQAAAHgAAAAAADRzhmAYywIMABACoAqVyVAKCAAAhAgAIiAFoZIgKIDrIkZWHIAhkhgDIyAcygMAOgAAAQAAAAAAAAACAAAAAAAAAAAAAAA==
> <PUBCHEM_IUPAC_OPENEYE_NAME>
3-(5-ethyl-4,5-dihydrooxazol-2-yl)-N-(3-isopropylphenyl)-3-oxo-N-(3-phenylpropyl)propanamide
> <PUBCHEM_IUPAC_CAS_NAME>
3-(5-ethyl-4,5-dihydrooxazol-2-yl)-3-oxo-N-(3-phenylpropyl)-N-(3-propan-2-ylphenyl)propanamide
> <PUBCHEM_IUPAC_NAME_MARKUP>
3-(5-ethyl-4,5-dihydro-1,3-oxazol-2-yl)-3-oxo-<I>N</I>-(3-phenylpropyl)-<I>N</I>-(3-propan-2-ylphenyl)propanamide
> <PUBCHEM_IUPAC_NAME>
3-(5-ethyl-4,5-dihydro-1,3-oxazol-2-yl)-3-oxo-N-(3-phenylpropyl)-N-(3-propan-2-ylphenyl)propanamide
> <PUBCHEM_IUPAC_SYSTEMATIC_NAME>
3-(5-ethyl-4,5-dihydro-1,3-oxazol-2-yl)-3-oxidanylidene-N-(3-phenylpropyl)-N-(3-propan-2-ylphenyl)propanamide
> <PUBCHEM_IUPAC_TRADITIONAL_NAME>
3-(5-ethyl-2-oxazolin-2-yl)-3-keto-N-m-cumenyl-N-(3-phenylpropyl)propionamide
> <PUBCHEM_IUPAC_INCHI>
InChI=1S/C26H32N2O3/c1-4-23-18-27-26(31-23)24(29)17-25(30)28(15-9-12-20-10-6-5-7-11-20)22-14-8-13-21(16-22)19(2)3/h5-8,10-11,13-14,16,19,23H,4,9,12,15,17-18H2,1-3H3
> <PUBCHEM_IUPAC_INCHIKEY>
IEXKLMSMYUKLAZ-UHFFFAOYSA-N
> <PUBCHEM_XLOGP3_AA>
5.3
> <PUBCHEM_EXACT_MASS>
420.24129289
> <PUBCHEM_MOLECULAR_FORMULA>
C26H32N2O3
> <PUBCHEM_MOLECULAR_WEIGHT>
420.5
> <PUBCHEM_OPENEYE_CAN_SMILES>
CCC1CN=C(O1)C(=O)CC(=O)N(CCCC2=CC=CC=C2)C3=CC=CC(=C3)C(C)C
> <PUBCHEM_OPENEYE_ISO_SMILES>
CCC1CN=C(O1)C(=O)CC(=O)N(CCCC2=CC=CC=C2)C3=CC=CC(=C3)C(C)C
> <PUBCHEM_CACTVS_TPSA>
59
> <PUBCHEM_MONOISOTOPIC_WEIGHT>
420.24129289
> <PUBCHEM_TOTAL_CHARGE>
0
> <PUBCHEM_HEAVY_ATOM_COUNT>
31
> <PUBCHEM_ATOM_DEF_STEREO_COUNT>
0
> <PUBCHEM_ATOM_UDEF_STEREO_COUNT>
1
> <PUBCHEM_BOND_DEF_STEREO_COUNT>
0
> <PUBCHEM_BOND_UDEF_STEREO_COUNT>
0
> <PUBCHEM_ISOTOPIC_ATOM_COUNT>
0
> <PUBCHEM_COMPONENT_COUNT>
1
> <PUBCHEM_CACTVS_TAUTO_COUNT>
-1
> <PUBCHEM_COORDINATE_TYPE>
1
5
255
> <PUBCHEM_BONDANNOTATIONS>
12  16  8
12  22  8
19  25  8
21  27  8
21  28  8
22  25  8
27  29  8
28  30  8
29  31  8
30  31  8
8  14  3
9  16  8
9  19  8
$$$$
