505084
  -OEChem-10302200282D
 54 56  0     1  0  0  0  0  0999 V2000
    5.5211    1.9571    0.0000 O   0  0  0  0  0  0  0  0  0  0  0  0
    6.3301   -1.6307    0.0000 O   0  0  0  0  0  0  0  0  0  0  0  0
    7.1962   -0.1307    0.0000 O   0  0  0  0  0  0  0  0  0  0  0  0
    4.5981   -1.6307    0.0000 N   0  0  0  0  0  0  0  0  0  0  0  0
    7.1391    1.9571    0.0000 N   0  0  0  0  0  0  0  0  0  0  0  0
    5.8301    2.9081    0.0000 C   0  0  3  0  0  0  0  0  0  0  0  0
    3.7320   -1.1307    0.0000 C   0  0  0  0  0  0  0  0  0  0  0  0
    3.7320   -0.1307    0.0000 C   0  0  0  0  0  0  0  0  0  0  0  0
    6.8301    2.9081    0.0000 C   0  0  0  0  0  0  0  0  0  0  0  0
    5.2423    3.7172    0.0000 C   0  0  0  0  0  0  0  0  0  0  0  0
    2.8660    0.3693    0.0000 C   0  0  0  0  0  0  0  0  0  0  0  0
    6.3301    1.3693    0.0000 C   0  0  0  0  0  0  0  0  0  0  0  0
    5.4641   -0.1307    0.0000 C   0  0  0  0  0  0  0  0  0  0  0  0
    5.4641   -1.1307    0.0000 C   0  0  0  0  0  0  0  0  0  0  0  0
    4.5981   -2.6307    0.0000 C   0  0  0  0  0  0  0  0  0  0  0  0
    6.3301    0.3693    0.0000 C   0  0  0  0  0  0  0  0  0  0  0  0
    2.8660    1.3693    0.0000 C   0  0  0  0  0  0  0  0  0  0  0  0
    5.6491    4.6307    0.0000 C   0  0  0  0  0  0  0  0  0  0  0  0
    3.7320   -3.1307    0.0000 C   0  0  0  0  0  0  0  0  0  0  0  0
    5.4641   -3.1307    0.0000 C   0  0  0  0  0  0  0  0  0  0  0  0
    2.0000    1.8693    0.0000 C   0  0  0  0  0  0  0  0  0  0  0  0
    3.7320    1.8693    0.0000 C   0  0  0  0  0  0  0  0  0  0  0  0
    3.7320   -4.1307    0.0000 C   0  0  0  0  0  0  0  0  0  0  0  0
    5.4641   -4.1307    0.0000 C   0  0  0  0  0  0  0  0  0  0  0  0
    2.0000    2.8693    0.0000 C   0  0  0  0  0  0  0  0  0  0  0  0
    3.7320    2.8693    0.0000 C   0  0  0  0  0  0  0  0  0  0  0  0
    4.5981   -4.6307    0.0000 C   0  0  0  0  0  0  0  0  0  0  0  0
    2.8660    3.3693    0.0000 C   0  0  0  0  0  0  0  0  0  0  0  0
    5.2178    2.8112    0.0000 H   0  0  0  0  0  0  0  0  0  0  0  0
    3.1215   -1.0230    0.0000 H   0  0  0  0  0  0  0  0  0  0  0  0
    3.5200   -1.7133    0.0000 H   0  0  0  0  0  0  0  0  0  0  0  0
    4.3426   -0.2384    0.0000 H   0  0  0  0  0  0  0  0  0  0  0  0
    3.9441    0.4519    0.0000 H   0  0  0  0  0  0  0  0  0  0  0  0
    7.4366    3.0370    0.0000 H   0  0  0  0  0  0  0  0  0  0  0  0
    6.7653    3.5247    0.0000 H   0  0  0  0  0  0  0  0  0  0  0  0
    4.7283    4.0639    0.0000 H   0  0  0  0  0  0  0  0  0  0  0  0
    4.8116    3.2712    0.0000 H   0  0  0  0  0  0  0  0  0  0  0  0
    2.2554    0.4770    0.0000 H   0  0  0  0  0  0  0  0  0  0  0  0
    2.6540   -0.2133    0.0000 H   0  0  0  0  0  0  0  0  0  0  0  0
    5.2520    0.4519    0.0000 H   0  0  0  0  0  0  0  0  0  0  0  0
    4.8535   -0.2384    0.0000 H   0  0  0  0  0  0  0  0  0  0  0  0
    6.2155    4.3785    0.0000 H   0  0  0  0  0  0  0  0  0  0  0  0
    5.9013    5.1971    0.0000 H   0  0  0  0  0  0  0  0  0  0  0  0
    5.0827    4.8829    0.0000 H   0  0  0  0  0  0  0  0  0  0  0  0
    3.1951   -2.8207    0.0000 H   0  0  0  0  0  0  0  0  0  0  0  0
    6.0010   -2.8207    0.0000 H   0  0  0  0  0  0  0  0  0  0  0  0
    1.4631    1.5593    0.0000 H   0  0  0  0  0  0  0  0  0  0  0  0
    4.2690    1.5593    0.0000 H   0  0  0  0  0  0  0  0  0  0  0  0
    3.1951   -4.4407    0.0000 H   0  0  0  0  0  0  0  0  0  0  0  0
    6.0010   -4.4407    0.0000 H   0  0  0  0  0  0  0  0  0  0  0  0
    1.4631    3.1793    0.0000 H   0  0  0  0  0  0  0  0  0  0  0  0
    4.2690    3.1793    0.0000 H   0  0  0  0  0  0  0  0  0  0  0  0
    4.5981   -5.2507    0.0000 H   0  0  0  0  0  0  0  0  0  0  0  0
    2.8660    3.9893    0.0000 H   0  0  0  0  0  0  0  0  0  0  0  0
  1  6  1  0  0  0  0
  1 12  1  0  0  0  0
  2 14  2  0  0  0  0
  3 16  2  0  0  0  0
  4  7  1  0  0  0  0
  4 14  1  0  0  0  0
  4 15  1  0  0  0  0
  5  9  1  0  0  0  0
  5 12  2  0  0  0  0
  6  9  1  0  0  0  0
  6 10  1  0  0  0  0
  6 29  1  0  0  0  0
  7  8  1  0  0  0  0
  7 30  1  0  0  0  0
  7 31  1  0  0  0  0
  8 11  1  0  0  0  0
  8 32  1  0  0  0  0
  8 33  1  0  0  0  0
  9 34  1  0  0  0  0
  9 35  1  0  0  0  0
 10 18  1  0  0  0  0
 10 36  1  0  0  0  0
 10 37  1  0  0  0  0
 11 17  1  0  0  0  0
 11 38  1  0  0  0  0
 11 39  1  0  0  0  0
 12 16  1  0  0  0  0
 13 14  1  0  0  0  0
 13 16  1  0  0  0  0
 13 40  1  0  0  0  0
 13 41  1  0  0  0  0
 15 19  2  0  0  0  0
 15 20  1  0  0  0  0
 17 21  2  0  0  0  0
 17 22  1  0  0  0  0
 18 42  1  0  0  0  0
 18 43  1  0  0  0  0
 18 44  1  0  0  0  0
 19 23  1  0  0  0  0
 19 45  1  0  0  0  0
 20 24  2  0  0  0  0
 20 46  1  0  0  0  0
 21 25  1  0  0  0  0
 21 47  1  0  0  0  0
 22 26  2  0  0  0  0
 22 48  1  0  0  0  0
 23 27  2  0  0  0  0
 23 49  1  0  0  0  0
 24 27  1  0  0  0  0
 24 50  1  0  0  0  0
 25 28  2  0  0  0  0
 25 51  1  0  0  0  0
 26 28  1  0  0  0  0
 26 52  1  0  0  0  0
 27 53  1  0  0  0  0
 28 54  1  0  0  0  0
M  END
> <PUBCHEM_COMPOUND_CID>
505084
> <PUBCHEM_COMPOUND_CANONICALIZED>
1
> <PUBCHEM_CACTVS_COMPLEXITY>
548
> <PUBCHEM_CACTVS_HBOND_ACCEPTOR>
4
> <PUBCHEM_CACTVS_HBOND_DONOR>
0
> <PUBCHEM_CACTVS_ROTATABLE_BOND>
9
> <PUBCHEM_CACTVS_SUBSKEYS>
AAADceB7MAAAAAAAAAAAAAAAAAAAAQAAAAAwYAAAAAAAAAABQAAAHgAAAAAADBzhmAYywIMABACoAqVyVAKCAAAhAgAIiAFoZIgKIDrIkZWHIAhkhgDIyAcygIAOAAAAAAAAAAAAAAAAAAAAAAAAAAAAAA==
> <PUBCHEM_IUPAC_OPENEYE_NAME>
3-(5-ethyl-4,5-dihydrooxazol-2-yl)-3-oxo-N-phenyl-N-(3-phenylpropyl)propanamide
> <PUBCHEM_IUPAC_CAS_NAME>
3-(5-ethyl-4,5-dihydrooxazol-2-yl)-3-oxo-N-phenyl-N-(3-phenylpropyl)propanamide
> <PUBCHEM_IUPAC_NAME_MARKUP>
3-(5-ethyl-4,5-dihydro-1,3-oxazol-2-yl)-3-oxo-<I>N</I>-phenyl-<I>N</I>-(3-phenylpropyl)propanamide
> <PUBCHEM_IUPAC_NAME>
3-(5-ethyl-4,5-dihydro-1,3-oxazol-2-yl)-3-oxo-N-phenyl-N-(3-phenylpropyl)propanamide
> <PUBCHEM_IUPAC_SYSTEMATIC_NAME>
3-(5-ethyl-4,5-dihydro-1,3-oxazol-2-yl)-3-oxidanylidene-N-phenyl-N-(3-phenylpropyl)propanamide
> <PUBCHEM_IUPAC_TRADITIONAL_NAME>
3-(5-ethyl-2-oxazolin-2-yl)-3-keto-N-phenyl-N-(3-phenylpropyl)propionamide
> <PUBCHEM_IUPAC_INCHI>
InChI=1S/C23H26N2O3/c1-2-20-17-24-23(28-20)21(26)16-22(27)25(19-13-7-4-8-14-19)15-9-12-18-10-5-3-6-11-18/h3-8,10-11,13-14,20H,2,9,12,15-17H2,1H3
> <PUBCHEM_IUPAC_INCHIKEY>
YURQLOBHZYUSBD-UHFFFAOYSA-N
> <PUBCHEM_XLOGP3_AA>
4.1
> <PUBCHEM_EXACT_MASS>
378.19434270
> <PUBCHEM_MOLECULAR_FORMULA>
C23H26N2O3
> <PUBCHEM_MOLECULAR_WEIGHT>
378.5
> <PUBCHEM_OPENEYE_CAN_SMILES>
CCC1CN=C(O1)C(=O)CC(=O)N(CCCC2=CC=CC=C2)C3=CC=CC=C3
> <PUBCHEM_OPENEYE_ISO_SMILES>
CCC1CN=C(O1)C(=O)CC(=O)N(CCCC2=CC=CC=C2)C3=CC=CC=C3
> <PUBCHEM_CACTVS_TPSA>
59
> <PUBCHEM_MONOISOTOPIC_WEIGHT>
378.19434270
> <PUBCHEM_TOTAL_CHARGE>
0
> <PUBCHEM_HEAVY_ATOM_COUNT>
28
> <PUBCHEM_ATOM_DEF_STEREO_COUNT>
0
> <PUBCHEM_ATOM_UDEF_STEREO_COUNT>
1
> <PUBCHEM_BOND_DEF_STEREO_COUNT>
0
> <PUBCHEM_BOND_UDEF_STEREO_COUNT>
0
> <PUBCHEM_ISOTOPIC_ATOM_COUNT>
0
> <PUBCHEM_COMPONENT_COUNT>
1
> <PUBCHEM_CACTVS_TAUTO_COUNT>
-1
> <PUBCHEM_COORDINATE_TYPE>
1
5
255
> <PUBCHEM_BONDANNOTATIONS>
15  19  8
15  20  8
17  21  8
17  22  8
19  23  8
20  24  8
21  25  8
22  26  8
23  27  8
24  27  8
25  28  8
26  28  8
6  10  3
$$$$
