505081
  -OEChem-10302200282D
 70 74  0     1  0  0  0  0  0999 V2000
    5.4641   -1.5000    0.0000 S   0  0  0  0  0  0  0  0  0  0  0  0
    5.9641   -2.3660    0.0000 O   0  0  0  0  0  0  0  0  0  0  0  0
    4.9641   -0.6340    0.0000 O   0  0  0  0  0  0  0  0  0  0  0  0
    9.7942    2.0000    0.0000 O   0  0  0  0  0  0  0  0  0  0  0  0
    8.9282    3.5000    0.0000 O   0  0  0  0  0  0  0  0  0  0  0  0
    8.9282    0.5000    0.0000 N   0  0  0  0  0  0  0  0  0  0  0  0
    7.1962    4.5000    0.0000 N   0  0  0  0  0  0  0  0  0  0  0  0
    6.3301    3.0000    0.0000 N   0  0  0  0  0  0  0  0  0  0  0  0
    4.5981   -2.0000    0.0000 C   0  0  3  0  0  0  0  0  0  0  0  0
    4.5981   -3.0000    0.0000 C   0  0  0  0  0  0  0  0  0  0  0  0
    6.3301   -1.0000    0.0000 C   0  0  0  0  0  0  0  0  0  0  0  0
    3.7320   -1.5000    0.0000 C   0  0  0  0  0  0  0  0  0  0  0  0
    3.7320   -3.5000    0.0000 C   0  0  0  0  0  0  0  0  0  0  0  0
    8.0622   -0.0000    0.0000 C   0  0  0  0  0  0  0  0  0  0  0  0
    6.3301    0.0000    0.0000 C   0  0  0  0  0  0  0  0  0  0  0  0
    7.1962   -1.5000    0.0000 C   0  0  0  0  0  0  0  0  0  0  0  0
    9.7942   -0.0000    0.0000 C   0  0  0  0  0  0  0  0  0  0  0  0
    7.1962    0.5000    0.0000 C   0  0  0  0  0  0  0  0  0  0  0  0
    8.0622   -1.0000    0.0000 C   0  0  0  0  0  0  0  0  0  0  0  0
   10.6603    0.5000    0.0000 C   0  0  0  0  0  0  0  0  0  0  0  0
    3.7320   -4.5000    0.0000 C   0  0  0  0  0  0  0  0  0  0  0  0
    2.8660   -3.0000    0.0000 C   0  0  0  0  0  0  0  0  0  0  0  0
    8.9282    1.5000    0.0000 C   0  0  0  0  0  0  0  0  0  0  0  0
   11.5263   -0.0000    0.0000 C   0  0  0  0  0  0  0  0  0  0  0  0
   12.3923    0.5000    0.0000 C   0  0  0  0  0  0  0  0  0  0  0  0
   10.6603    1.5000    0.0000 C   0  0  0  0  0  0  0  0  0  0  0  0
    2.8660   -5.0000    0.0000 C   0  0  0  0  0  0  0  0  0  0  0  0
    2.0000   -3.5000    0.0000 C   0  0  0  0  0  0  0  0  0  0  0  0
   12.3923    1.5000    0.0000 C   0  0  0  0  0  0  0  0  0  0  0  0
    8.0622    2.0000    0.0000 C   0  0  0  0  0  0  0  0  0  0  0  0
   11.5263    2.0000    0.0000 C   0  0  0  0  0  0  0  0  0  0  0  0
    2.0000   -4.5000    0.0000 C   0  0  0  0  0  0  0  0  0  0  0  0
   13.2862   -0.0347    0.0000 C   0  0  0  0  0  0  0  0  0  0  0  0
   13.2862    2.0347    0.0000 C   0  0  0  0  0  0  0  0  0  0  0  0
    8.0622    3.0000    0.0000 C   0  0  0  0  0  0  0  0  0  0  0  0
   14.1923    0.4792    0.0000 C   0  0  0  0  0  0  0  0  0  0  0  0
   14.1923    1.5208    0.0000 C   0  0  0  0  0  0  0  0  0  0  0  0
    7.1962    3.5000    0.0000 C   0  0  0  0  0  0  0  0  0  0  0  0
    6.3301    5.0000    0.0000 C   0  0  0  0  0  0  0  0  0  0  0  0
    5.4641    3.5000    0.0000 C   0  0  0  0  0  0  0  0  0  0  0  0
    5.4641    4.5000    0.0000 C   0  0  0  0  0  0  0  0  0  0  0  0
    4.5981   -1.3800    0.0000 H   0  0  0  0  0  0  0  0  0  0  0  0
    4.8101   -3.5826    0.0000 H   0  0  0  0  0  0  0  0  0  0  0  0
    5.2087   -2.8923    0.0000 H   0  0  0  0  0  0  0  0  0  0  0  0
    4.0420   -0.9631    0.0000 H   0  0  0  0  0  0  0  0  0  0  0  0
    3.1951   -1.1900    0.0000 H   0  0  0  0  0  0  0  0  0  0  0  0
    3.4220   -2.0369    0.0000 H   0  0  0  0  0  0  0  0  0  0  0  0
    5.7932    0.3100    0.0000 H   0  0  0  0  0  0  0  0  0  0  0  0
    7.1962   -2.1200    0.0000 H   0  0  0  0  0  0  0  0  0  0  0  0
    9.3957   -0.4749    0.0000 H   0  0  0  0  0  0  0  0  0  0  0  0
   10.1928   -0.4749    0.0000 H   0  0  0  0  0  0  0  0  0  0  0  0
    7.1962    1.1200    0.0000 H   0  0  0  0  0  0  0  0  0  0  0  0
    8.5991   -1.3100    0.0000 H   0  0  0  0  0  0  0  0  0  0  0  0
    4.2690   -4.8100    0.0000 H   0  0  0  0  0  0  0  0  0  0  0  0
    2.8660   -2.3800    0.0000 H   0  0  0  0  0  0  0  0  0  0  0  0
   11.5263   -0.6200    0.0000 H   0  0  0  0  0  0  0  0  0  0  0  0
   10.1233    1.8100    0.0000 H   0  0  0  0  0  0  0  0  0  0  0  0
    2.8660   -5.6200    0.0000 H   0  0  0  0  0  0  0  0  0  0  0  0
    1.4631   -3.1900    0.0000 H   0  0  0  0  0  0  0  0  0  0  0  0
    7.4516    2.1077    0.0000 H   0  0  0  0  0  0  0  0  0  0  0  0
    7.8501    1.4174    0.0000 H   0  0  0  0  0  0  0  0  0  0  0  0
   11.5263    2.6200    0.0000 H   0  0  0  0  0  0  0  0  0  0  0  0
    1.4631   -4.8100    0.0000 H   0  0  0  0  0  0  0  0  0  0  0  0
   13.2791   -0.6546    0.0000 H   0  0  0  0  0  0  0  0  0  0  0  0
   13.2791    2.6546    0.0000 H   0  0  0  0  0  0  0  0  0  0  0  0
   14.7281    0.1671    0.0000 H   0  0  0  0  0  0  0  0  0  0  0  0
   14.7281    1.8329    0.0000 H   0  0  0  0  0  0  0  0  0  0  0  0
    6.3301    5.6200    0.0000 H   0  0  0  0  0  0  0  0  0  0  0  0
    4.9272    3.1900    0.0000 H   0  0  0  0  0  0  0  0  0  0  0  0
    4.9272    4.8100    0.0000 H   0  0  0  0  0  0  0  0  0  0  0  0
  1  2  2  0  0  0  0
  1  3  2  0  0  0  0
  1  9  1  0  0  0  0
  1 11  1  0  0  0  0
  4 23  2  0  0  0  0
  5 35  2  0  0  0  0
  6 14  1  0  0  0  0
  6 17  1  0  0  0  0
  6 23  1  0  0  0  0
  7 38  2  0  0  0  0
  7 39  1  0  0  0  0
  8 38  1  0  0  0  0
  8 40  2  0  0  0  0
  9 10  1  0  0  0  0
  9 12  1  0  0  0  0
  9 42  1  0  0  0  0
 10 13  1  0  0  0  0
 10 43  1  0  0  0  0
 10 44  1  0  0  0  0
 11 15  2  0  0  0  0
 11 16  1  0  0  0  0
 12 45  1  0  0  0  0
 12 46  1  0  0  0  0
 12 47  1  0  0  0  0
 13 21  2  0  0  0  0
 13 22  1  0  0  0  0
 14 18  2  0  0  0  0
 14 19  1  0  0  0  0
 15 18  1  0  0  0  0
 15 48  1  0  0  0  0
 16 19  2  0  0  0  0
 16 49  1  0  0  0  0
 17 20  1  0  0  0  0
 17 50  1  0  0  0  0
 17 51  1  0  0  0  0
 18 52  1  0  0  0  0
 19 53  1  0  0  0  0
 20 24  2  0  0  0  0
 20 26  1  0  0  0  0
 21 27  1  0  0  0  0
 21 54  1  0  0  0  0
 22 28  2  0  0  0  0
 22 55  1  0  0  0  0
 23 30  1  0  0  0  0
 24 25  1  0  0  0  0
 24 56  1  0  0  0  0
 25 29  1  0  0  0  0
 25 33  2  0  0  0  0
 26 31  2  0  0  0  0
 26 57  1  0  0  0  0
 27 32  2  0  0  0  0
 27 58  1  0  0  0  0
 28 32  1  0  0  0  0
 28 59  1  0  0  0  0
 29 31  1  0  0  0  0
 29 34  2  0  0  0  0
 30 35  1  0  0  0  0
 30 60  1  0  0  0  0
 30 61  1  0  0  0  0
 31 62  1  0  0  0  0
 32 63  1  0  0  0  0
 33 36  1  0  0  0  0
 33 64  1  0  0  0  0
 34 37  1  0  0  0  0
 34 65  1  0  0  0  0
 35 38  1  0  0  0  0
 36 37  2  0  0  0  0
 36 66  1  0  0  0  0
 37 67  1  0  0  0  0
 39 41  2  0  0  0  0
 39 68  1  0  0  0  0
 40 41  1  0  0  0  0
 40 69  1  0  0  0  0
 41 70  1  0  0  0  0
M  END
> <PUBCHEM_COMPOUND_CID>
505081
> <PUBCHEM_COMPOUND_CANONICALIZED>
1
> <PUBCHEM_CACTVS_COMPLEXITY>
962
> <PUBCHEM_CACTVS_HBOND_ACCEPTOR>
6
> <PUBCHEM_CACTVS_HBOND_DONOR>
0
> <PUBCHEM_CACTVS_ROTATABLE_BOND>
10
> <PUBCHEM_CACTVS_SUBSKEYS>
AAADceB/OABAAAAAAAAAAAAAAAAAAAAAAAA8YMGCAAAAAADB1AAAHgQAAAAADAzF2wS/0dcIEAqoArd3dHDCgCkzCrAJ2Dm4ZJiIKLro2fGEJAhohgLoyCcUgMAOwAQCAAAQAACACAQAACAAAAAAAAAAAA==
> <PUBCHEM_IUPAC_OPENEYE_NAME>
N-[4-(1-methyl-2-phenyl-ethyl)sulfonylphenyl]-N-(2-naphthylmethyl)-3-oxo-3-pyrimidin-2-yl-propanamide
> <PUBCHEM_IUPAC_CAS_NAME>
N-(2-naphthalenylmethyl)-3-oxo-N-[4-(1-phenylpropan-2-ylsulfonyl)phenyl]-3-(2-pyrimidinyl)propanamide
> <PUBCHEM_IUPAC_NAME_MARKUP>
<I>N</I>-(naphthalen-2-ylmethyl)-3-oxo-<I>N</I>-[4-(1-phenylpropan-2-ylsulfonyl)phenyl]-3-pyrimidin-2-ylpropanamide
> <PUBCHEM_IUPAC_NAME>
N-(naphthalen-2-ylmethyl)-3-oxo-N-[4-(1-phenylpropan-2-ylsulfonyl)phenyl]-3-pyrimidin-2-ylpropanamide
> <PUBCHEM_IUPAC_SYSTEMATIC_NAME>
N-(naphthalen-2-ylmethyl)-3-oxidanylidene-N-[4-(1-phenylpropan-2-ylsulfonyl)phenyl]-3-pyrimidin-2-yl-propanamide
> <PUBCHEM_IUPAC_TRADITIONAL_NAME>
3-keto-N-[4-(1-methyl-2-phenyl-ethyl)sulfonylphenyl]-N-(2-naphthylmethyl)-3-(2-pyrimidyl)propionamide
> <PUBCHEM_IUPAC_INCHI>
InChI=1S/C33H29N3O4S/c1-24(20-25-8-3-2-4-9-25)41(39,40)30-16-14-29(15-17-30)36(32(38)22-31(37)33-34-18-7-19-35-33)23-26-12-13-27-10-5-6-11-28(27)21-26/h2-19,21,24H,20,22-23H2,1H3
> <PUBCHEM_IUPAC_INCHIKEY>
ZKZHEKYCGBYSSH-UHFFFAOYSA-N
> <PUBCHEM_XLOGP3_AA>
5.8
> <PUBCHEM_EXACT_MASS>
563.18787759
> <PUBCHEM_MOLECULAR_FORMULA>
C33H29N3O4S
> <PUBCHEM_MOLECULAR_WEIGHT>
563.7
> <PUBCHEM_OPENEYE_CAN_SMILES>
CC(CC1=CC=CC=C1)S(=O)(=O)C2=CC=C(C=C2)N(CC3=CC4=CC=CC=C4C=C3)C(=O)CC(=O)C5=NC=CC=N5
> <PUBCHEM_OPENEYE_ISO_SMILES>
CC(CC1=CC=CC=C1)S(=O)(=O)C2=CC=C(C=C2)N(CC3=CC4=CC=CC=C4C=C3)C(=O)CC(=O)C5=NC=CC=N5
> <PUBCHEM_CACTVS_TPSA>
106
> <PUBCHEM_MONOISOTOPIC_WEIGHT>
563.18787759
> <PUBCHEM_TOTAL_CHARGE>
0
> <PUBCHEM_HEAVY_ATOM_COUNT>
41
> <PUBCHEM_ATOM_DEF_STEREO_COUNT>
0
> <PUBCHEM_ATOM_UDEF_STEREO_COUNT>
1
> <PUBCHEM_BOND_DEF_STEREO_COUNT>
0
> <PUBCHEM_BOND_UDEF_STEREO_COUNT>
0
> <PUBCHEM_ISOTOPIC_ATOM_COUNT>
0
> <PUBCHEM_COMPONENT_COUNT>
1
> <PUBCHEM_CACTVS_TAUTO_COUNT>
-1
> <PUBCHEM_COORDINATE_TYPE>
1
5
255
> <PUBCHEM_BONDANNOTATIONS>
11  15  8
11  16  8
13  21  8
13  22  8
14  18  8
14  19  8
15  18  8
16  19  8
20  24  8
20  26  8
21  27  8
22  28  8
24  25  8
25  29  8
25  33  8
26  31  8
27  32  8
28  32  8
29  31  8
29  34  8
33  36  8
34  37  8
36  37  8
39  41  8
40  41  8
7  38  8
7  39  8
8  38  8
8  40  8
9  12  3
$$$$
