505085
  -OEChem-10302200282D
 58 60  0     1  0  0  0  0  0999 V2000
    5.5211    2.7071    0.0000 O   0  0  0  0  0  0  0  0  0  0  0  0
    6.3301   -0.8807    0.0000 O   0  0  0  0  0  0  0  0  0  0  0  0
    7.1962    0.6193    0.0000 O   0  0  0  0  0  0  0  0  0  0  0  0
    4.5981   -4.8807    0.0000 O   0  0  0  0  0  0  0  0  0  0  0  0
    4.5981   -0.8807    0.0000 N   0  0  0  0  0  0  0  0  0  0  0  0
    7.1391    2.7071    0.0000 N   0  0  0  0  0  0  0  0  0  0  0  0
    5.8301    3.6581    0.0000 C   0  0  3  0  0  0  0  0  0  0  0  0
    3.7320   -0.3807    0.0000 C   0  0  0  0  0  0  0  0  0  0  0  0
    3.7320    0.6193    0.0000 C   0  0  0  0  0  0  0  0  0  0  0  0
    6.8301    3.6581    0.0000 C   0  0  0  0  0  0  0  0  0  0  0  0
    5.2423    4.4672    0.0000 C   0  0  0  0  0  0  0  0  0  0  0  0
    2.8660    1.1193    0.0000 C   0  0  0  0  0  0  0  0  0  0  0  0
    6.3301    2.1193    0.0000 C   0  0  0  0  0  0  0  0  0  0  0  0
    5.4641    0.6193    0.0000 C   0  0  0  0  0  0  0  0  0  0  0  0
    5.4641   -0.3807    0.0000 C   0  0  0  0  0  0  0  0  0  0  0  0
    4.5981   -1.8807    0.0000 C   0  0  0  0  0  0  0  0  0  0  0  0
    6.3301    1.1193    0.0000 C   0  0  0  0  0  0  0  0  0  0  0  0
    2.8660    2.1193    0.0000 C   0  0  0  0  0  0  0  0  0  0  0  0
    5.6491    5.3807    0.0000 C   0  0  0  0  0  0  0  0  0  0  0  0
    5.4641   -2.3807    0.0000 C   0  0  0  0  0  0  0  0  0  0  0  0
    3.7320   -2.3807    0.0000 C   0  0  0  0  0  0  0  0  0  0  0  0
    2.0000    2.6193    0.0000 C   0  0  0  0  0  0  0  0  0  0  0  0
    3.7320    2.6193    0.0000 C   0  0  0  0  0  0  0  0  0  0  0  0
    5.4641   -3.3807    0.0000 C   0  0  0  0  0  0  0  0  0  0  0  0
    3.7320   -3.3807    0.0000 C   0  0  0  0  0  0  0  0  0  0  0  0
    4.5981   -3.8807    0.0000 C   0  0  0  0  0  0  0  0  0  0  0  0
    2.0000    3.6193    0.0000 C   0  0  0  0  0  0  0  0  0  0  0  0
    3.7320    3.6193    0.0000 C   0  0  0  0  0  0  0  0  0  0  0  0
    2.8660    4.1193    0.0000 C   0  0  0  0  0  0  0  0  0  0  0  0
    3.7320   -5.3807    0.0000 C   0  0  0  0  0  0  0  0  0  0  0  0
    5.2178    3.5612    0.0000 H   0  0  0  0  0  0  0  0  0  0  0  0
    3.1215   -0.2730    0.0000 H   0  0  0  0  0  0  0  0  0  0  0  0
    3.5200   -0.9633    0.0000 H   0  0  0  0  0  0  0  0  0  0  0  0
    4.3426    0.5116    0.0000 H   0  0  0  0  0  0  0  0  0  0  0  0
    3.9441    1.2019    0.0000 H   0  0  0  0  0  0  0  0  0  0  0  0
    7.4366    3.7870    0.0000 H   0  0  0  0  0  0  0  0  0  0  0  0
    6.7653    4.2747    0.0000 H   0  0  0  0  0  0  0  0  0  0  0  0
    4.7283    4.8139    0.0000 H   0  0  0  0  0  0  0  0  0  0  0  0
    4.8116    4.0212    0.0000 H   0  0  0  0  0  0  0  0  0  0  0  0
    2.2554    1.2270    0.0000 H   0  0  0  0  0  0  0  0  0  0  0  0
    2.6540    0.5367    0.0000 H   0  0  0  0  0  0  0  0  0  0  0  0
    5.2520    1.2019    0.0000 H   0  0  0  0  0  0  0  0  0  0  0  0
    4.8535    0.5116    0.0000 H   0  0  0  0  0  0  0  0  0  0  0  0
    6.2155    5.1285    0.0000 H   0  0  0  0  0  0  0  0  0  0  0  0
    5.9013    5.9471    0.0000 H   0  0  0  0  0  0  0  0  0  0  0  0
    5.0827    5.6329    0.0000 H   0  0  0  0  0  0  0  0  0  0  0  0
    6.0010   -2.0707    0.0000 H   0  0  0  0  0  0  0  0  0  0  0  0
    3.1951   -2.0707    0.0000 H   0  0  0  0  0  0  0  0  0  0  0  0
    1.4631    2.3093    0.0000 H   0  0  0  0  0  0  0  0  0  0  0  0
    4.2690    2.3093    0.0000 H   0  0  0  0  0  0  0  0  0  0  0  0
    6.0010   -3.6907    0.0000 H   0  0  0  0  0  0  0  0  0  0  0  0
    3.1951   -3.6907    0.0000 H   0  0  0  0  0  0  0  0  0  0  0  0
    1.4631    3.9293    0.0000 H   0  0  0  0  0  0  0  0  0  0  0  0
    4.2690    3.9293    0.0000 H   0  0  0  0  0  0  0  0  0  0  0  0
    2.8660    4.7393    0.0000 H   0  0  0  0  0  0  0  0  0  0  0  0
    3.4220   -4.8438    0.0000 H   0  0  0  0  0  0  0  0  0  0  0  0
    3.1951   -5.6907    0.0000 H   0  0  0  0  0  0  0  0  0  0  0  0
    4.0420   -5.9176    0.0000 H   0  0  0  0  0  0  0  0  0  0  0  0
  1  7  1  0  0  0  0
  1 13  1  0  0  0  0
  2 15  2  0  0  0  0
  3 17  2  0  0  0  0
  4 26  1  0  0  0  0
  4 30  1  0  0  0  0
  5  8  1  0  0  0  0
  5 15  1  0  0  0  0
  5 16  1  0  0  0  0
  6 10  1  0  0  0  0
  6 13  2  0  0  0  0
  7 10  1  0  0  0  0
  7 11  1  0  0  0  0
  7 31  1  0  0  0  0
  8  9  1  0  0  0  0
  8 32  1  0  0  0  0
  8 33  1  0  0  0  0
  9 12  1  0  0  0  0
  9 34  1  0  0  0  0
  9 35  1  0  0  0  0
 10 36  1  0  0  0  0
 10 37  1  0  0  0  0
 11 19  1  0  0  0  0
 11 38  1  0  0  0  0
 11 39  1  0  0  0  0
 12 18  1  0  0  0  0
 12 40  1  0  0  0  0
 12 41  1  0  0  0  0
 13 17  1  0  0  0  0
 14 15  1  0  0  0  0
 14 17  1  0  0  0  0
 14 42  1  0  0  0  0
 14 43  1  0  0  0  0
 16 20  2  0  0  0  0
 16 21  1  0  0  0  0
 18 22  2  0  0  0  0
 18 23  1  0  0  0  0
 19 44  1  0  0  0  0
 19 45  1  0  0  0  0
 19 46  1  0  0  0  0
 20 24  1  0  0  0  0
 20 47  1  0  0  0  0
 21 25  2  0  0  0  0
 21 48  1  0  0  0  0
 22 27  1  0  0  0  0
 22 49  1  0  0  0  0
 23 28  2  0  0  0  0
 23 50  1  0  0  0  0
 24 26  2  0  0  0  0
 24 51  1  0  0  0  0
 25 26  1  0  0  0  0
 25 52  1  0  0  0  0
 27 29  2  0  0  0  0
 27 53  1  0  0  0  0
 28 29  1  0  0  0  0
 28 54  1  0  0  0  0
 29 55  1  0  0  0  0
 30 56  1  0  0  0  0
 30 57  1  0  0  0  0
 30 58  1  0  0  0  0
M  END
> <PUBCHEM_COMPOUND_CID>
505085
> <PUBCHEM_COMPOUND_CANONICALIZED>
1
> <PUBCHEM_CACTVS_COMPLEXITY>
592
> <PUBCHEM_CACTVS_HBOND_ACCEPTOR>
5
> <PUBCHEM_CACTVS_HBOND_DONOR>
0
> <PUBCHEM_CACTVS_ROTATABLE_BOND>
10
> <PUBCHEM_CACTVS_SUBSKEYS>
AAADceB7OAAAAAAAAAAAAAAAAAAAAQAAAAAwYAAAAAAAAAABQAAAHgAAAAAADBzhmAYyxoMABACoAqVyVAKCCAAhIgAIiAFubIgOJjrMsZ+HMChkxhHI6AeywIAOAEAAAAAAAAAAgAAAAAAAAAAAAAAAAA==
> <PUBCHEM_IUPAC_OPENEYE_NAME>
3-(5-ethyl-4,5-dihydrooxazol-2-yl)-N-(4-methoxyphenyl)-3-oxo-N-(3-phenylpropyl)propanamide
> <PUBCHEM_IUPAC_CAS_NAME>
3-(5-ethyl-4,5-dihydrooxazol-2-yl)-N-(4-methoxyphenyl)-3-oxo-N-(3-phenylpropyl)propanamide
> <PUBCHEM_IUPAC_NAME_MARKUP>
3-(5-ethyl-4,5-dihydro-1,3-oxazol-2-yl)-<I>N</I>-(4-methoxyphenyl)-3-oxo-<I>N</I>-(3-phenylpropyl)propanamide
> <PUBCHEM_IUPAC_NAME>
3-(5-ethyl-4,5-dihydro-1,3-oxazol-2-yl)-N-(4-methoxyphenyl)-3-oxo-N-(3-phenylpropyl)propanamide
> <PUBCHEM_IUPAC_SYSTEMATIC_NAME>
3-(5-ethyl-4,5-dihydro-1,3-oxazol-2-yl)-N-(4-methoxyphenyl)-3-oxidanylidene-N-(3-phenylpropyl)propanamide
> <PUBCHEM_IUPAC_TRADITIONAL_NAME>
3-(5-ethyl-2-oxazolin-2-yl)-3-keto-N-(4-methoxyphenyl)-N-(3-phenylpropyl)propionamide
> <PUBCHEM_IUPAC_INCHI>
InChI=1S/C24H28N2O4/c1-3-20-17-25-24(30-20)22(27)16-23(28)26(19-11-13-21(29-2)14-12-19)15-7-10-18-8-5-4-6-9-18/h4-6,8-9,11-14,20H,3,7,10,15-17H2,1-2H3
> <PUBCHEM_IUPAC_INCHIKEY>
MUXUEYJPZNUWBN-UHFFFAOYSA-N
> <PUBCHEM_XLOGP3_AA>
4.1
> <PUBCHEM_EXACT_MASS>
408.20490738
> <PUBCHEM_MOLECULAR_FORMULA>
C24H28N2O4
> <PUBCHEM_MOLECULAR_WEIGHT>
408.5
> <PUBCHEM_OPENEYE_CAN_SMILES>
CCC1CN=C(O1)C(=O)CC(=O)N(CCCC2=CC=CC=C2)C3=CC=C(C=C3)OC
> <PUBCHEM_OPENEYE_ISO_SMILES>
CCC1CN=C(O1)C(=O)CC(=O)N(CCCC2=CC=CC=C2)C3=CC=C(C=C3)OC
> <PUBCHEM_CACTVS_TPSA>
68.2
> <PUBCHEM_MONOISOTOPIC_WEIGHT>
408.20490738
> <PUBCHEM_TOTAL_CHARGE>
0
> <PUBCHEM_HEAVY_ATOM_COUNT>
30
> <PUBCHEM_ATOM_DEF_STEREO_COUNT>
0
> <PUBCHEM_ATOM_UDEF_STEREO_COUNT>
1
> <PUBCHEM_BOND_DEF_STEREO_COUNT>
0
> <PUBCHEM_BOND_UDEF_STEREO_COUNT>
0
> <PUBCHEM_ISOTOPIC_ATOM_COUNT>
0
> <PUBCHEM_COMPONENT_COUNT>
1
> <PUBCHEM_CACTVS_TAUTO_COUNT>
-1
> <PUBCHEM_COORDINATE_TYPE>
1
5
255
> <PUBCHEM_BONDANNOTATIONS>
16  20  8
16  21  8
18  22  8
18  23  8
20  24  8
21  25  8
22  27  8
23  28  8
24  26  8
25  26  8
27  29  8
28  29  8
7  11  3
$$$$
