505090
  -OEChem-10302200282D
 56 59  0     1  0  0  0  0  0999 V2000
    4.6783    1.4129    0.0000 S   0  0  0  0  0  0  0  0  0  0  0  0
    9.8497   -1.9329    0.0000 O   0  0  0  0  0  0  0  0  0  0  0  0
    6.2619   -1.1239    0.0000 O   0  0  0  0  0  0  0  0  0  0  0  0
    7.7619   -1.9899    0.0000 O   0  0  0  0  0  0  0  0  0  0  0  0
    6.2619    0.6081    0.0000 N   0  0  0  0  0  0  0  0  0  0  0  0
    9.8497   -0.3149    0.0000 N   0  0  0  0  0  0  0  0  0  0  0  0
    4.6783   -0.1966    0.0000 N   0  0  0  0  0  0  0  0  0  0  0  0
   10.8007   -1.6239    0.0000 C   0  0  3  0  0  0  0  0  0  0  0  0
    6.7619    1.4742    0.0000 C   0  0  0  0  0  0  0  0  0  0  0  0
    7.7619    1.4742    0.0000 C   0  0  0  0  0  0  0  0  0  0  0  0
   10.8007   -0.6239    0.0000 C   0  0  0  0  0  0  0  0  0  0  0  0
   11.6097   -2.2117    0.0000 C   0  0  0  0  0  0  0  0  0  0  0  0
    8.2619    2.3402    0.0000 C   0  0  0  0  0  0  0  0  0  0  0  0
    9.2619   -1.1239    0.0000 C   0  0  0  0  0  0  0  0  0  0  0  0
    7.7619   -0.2579    0.0000 C   0  0  0  0  0  0  0  0  0  0  0  0
    6.7619   -0.2579    0.0000 C   0  0  0  0  0  0  0  0  0  0  0  0
    5.2619    0.6081    0.0000 C   0  0  0  0  0  0  0  0  0  0  0  0
    8.2619   -1.1239    0.0000 C   0  0  0  0  0  0  0  0  0  0  0  0
    9.2619    2.3402    0.0000 C   0  0  0  0  0  0  0  0  0  0  0  0
   11.5052   -3.2062    0.0000 C   0  0  0  0  0  0  0  0  0  0  0  0
    3.7320    1.1081    0.0000 C   0  0  0  0  0  0  0  0  0  0  0  0
    3.7320    0.1081    0.0000 C   0  0  0  0  0  0  0  0  0  0  0  0
    9.7619    3.2062    0.0000 C   0  0  0  0  0  0  0  0  0  0  0  0
    9.7619    1.4742    0.0000 C   0  0  0  0  0  0  0  0  0  0  0  0
    2.8660    1.6081    0.0000 C   0  0  0  0  0  0  0  0  0  0  0  0
    2.8660   -0.3919    0.0000 C   0  0  0  0  0  0  0  0  0  0  0  0
   10.7619    3.2062    0.0000 C   0  0  0  0  0  0  0  0  0  0  0  0
   10.7619    1.4742    0.0000 C   0  0  0  0  0  0  0  0  0  0  0  0
   11.2619    2.3402    0.0000 C   0  0  0  0  0  0  0  0  0  0  0  0
    2.0000    1.1081    0.0000 C   0  0  0  0  0  0  0  0  0  0  0  0
    2.0000    0.1081    0.0000 C   0  0  0  0  0  0  0  0  0  0  0  0
   10.7037   -2.2363    0.0000 H   0  0  0  0  0  0  0  0  0  0  0  0
    6.8695    2.0848    0.0000 H   0  0  0  0  0  0  0  0  0  0  0  0
    6.1793    1.6862    0.0000 H   0  0  0  0  0  0  0  0  0  0  0  0
    7.6542    0.8636    0.0000 H   0  0  0  0  0  0  0  0  0  0  0  0
    8.3445    1.2621    0.0000 H   0  0  0  0  0  0  0  0  0  0  0  0
   11.4173   -0.6887    0.0000 H   0  0  0  0  0  0  0  0  0  0  0  0
   10.9296   -0.0175    0.0000 H   0  0  0  0  0  0  0  0  0  0  0  0
   12.2057   -2.3826    0.0000 H   0  0  0  0  0  0  0  0  0  0  0  0
   11.8815   -1.6544    0.0000 H   0  0  0  0  0  0  0  0  0  0  0  0
    8.3695    2.9508    0.0000 H   0  0  0  0  0  0  0  0  0  0  0  0
    7.6793    2.5522    0.0000 H   0  0  0  0  0  0  0  0  0  0  0  0
    8.3445   -0.0458    0.0000 H   0  0  0  0  0  0  0  0  0  0  0  0
    7.6542    0.3527    0.0000 H   0  0  0  0  0  0  0  0  0  0  0  0
   10.8886   -3.1414    0.0000 H   0  0  0  0  0  0  0  0  0  0  0  0
   11.4404   -3.8228    0.0000 H   0  0  0  0  0  0  0  0  0  0  0  0
   12.1218   -3.2710    0.0000 H   0  0  0  0  0  0  0  0  0  0  0  0
    9.4519    3.7432    0.0000 H   0  0  0  0  0  0  0  0  0  0  0  0
    9.4519    0.9372    0.0000 H   0  0  0  0  0  0  0  0  0  0  0  0
    2.8660    2.2281    0.0000 H   0  0  0  0  0  0  0  0  0  0  0  0
    2.8660   -1.0119    0.0000 H   0  0  0  0  0  0  0  0  0  0  0  0
   11.0719    3.7432    0.0000 H   0  0  0  0  0  0  0  0  0  0  0  0
   11.0719    0.9372    0.0000 H   0  0  0  0  0  0  0  0  0  0  0  0
   11.8819    2.3402    0.0000 H   0  0  0  0  0  0  0  0  0  0  0  0
    1.4631    1.4181    0.0000 H   0  0  0  0  0  0  0  0  0  0  0  0
    1.4631   -0.2019    0.0000 H   0  0  0  0  0  0  0  0  0  0  0  0
  1 17  1  0  0  0  0
  1 21  1  0  0  0  0
  2  8  1  0  0  0  0
  2 14  1  0  0  0  0
  3 16  2  0  0  0  0
  4 18  2  0  0  0  0
  5  9  1  0  0  0  0
  5 16  1  0  0  0  0
  5 17  1  0  0  0  0
  6 11  1  0  0  0  0
  6 14  2  0  0  0  0
  7 17  2  0  0  0  0
  7 22  1  0  0  0  0
  8 11  1  0  0  0  0
  8 12  1  0  0  0  0
  8 32  1  0  0  0  0
  9 10  1  0  0  0  0
  9 33  1  0  0  0  0
  9 34  1  0  0  0  0
 10 13  1  0  0  0  0
 10 35  1  0  0  0  0
 10 36  1  0  0  0  0
 11 37  1  0  0  0  0
 11 38  1  0  0  0  0
 12 20  1  0  0  0  0
 12 39  1  0  0  0  0
 12 40  1  0  0  0  0
 13 19  1  0  0  0  0
 13 41  1  0  0  0  0
 13 42  1  0  0  0  0
 14 18  1  0  0  0  0
 15 16  1  0  0  0  0
 15 18  1  0  0  0  0
 15 43  1  0  0  0  0
 15 44  1  0  0  0  0
 19 23  2  0  0  0  0
 19 24  1  0  0  0  0
 20 45  1  0  0  0  0
 20 46  1  0  0  0  0
 20 47  1  0  0  0  0
 21 22  1  0  0  0  0
 21 25  2  0  0  0  0
 22 26  2  0  0  0  0
 23 27  1  0  0  0  0
 23 48  1  0  0  0  0
 24 28  2  0  0  0  0
 24 49  1  0  0  0  0
 25 30  1  0  0  0  0
 25 50  1  0  0  0  0
 26 31  1  0  0  0  0
 26 51  1  0  0  0  0
 27 29  2  0  0  0  0
 27 52  1  0  0  0  0
 28 29  1  0  0  0  0
 28 53  1  0  0  0  0
 29 54  1  0  0  0  0
 30 31  2  0  0  0  0
 30 55  1  0  0  0  0
 31 56  1  0  0  0  0
M  END
> <PUBCHEM_COMPOUND_CID>
505090
> <PUBCHEM_COMPOUND_CANONICALIZED>
1
> <PUBCHEM_CACTVS_COMPLEXITY>
665
> <PUBCHEM_CACTVS_HBOND_ACCEPTOR>
6
> <PUBCHEM_CACTVS_HBOND_DONOR>
0
> <PUBCHEM_CACTVS_ROTATABLE_BOND>
9
> <PUBCHEM_CACTVS_SUBSKEYS>
AAADceB7MABAAAAAAAAAAAAAAAAAAWIAAAAwYAAAAAAAAFgB9AAAHgQAAAAADBzh3gYz0bMIFAisA6VydAKD8KlhCjhJmD14ZJiKILromZWHIAhshwLIyCcygIAOAAAAAAAAAQAAAAAAAAACAAAAAAAAAA==
> <PUBCHEM_IUPAC_OPENEYE_NAME>
N-(1,3-benzothiazol-2-yl)-3-(5-ethyl-4,5-dihydrooxazol-2-yl)-3-oxo-N-(3-phenylpropyl)propanamide
> <PUBCHEM_IUPAC_CAS_NAME>
N-(1,3-benzothiazol-2-yl)-3-(5-ethyl-4,5-dihydrooxazol-2-yl)-3-oxo-N-(3-phenylpropyl)propanamide
> <PUBCHEM_IUPAC_NAME_MARKUP>
<I>N</I>-(1,3-benzothiazol-2-yl)-3-(5-ethyl-4,5-dihydro-1,3-oxazol-2-yl)-3-oxo-<I>N</I>-(3-phenylpropyl)propanamide
> <PUBCHEM_IUPAC_NAME>
N-(1,3-benzothiazol-2-yl)-3-(5-ethyl-4,5-dihydro-1,3-oxazol-2-yl)-3-oxo-N-(3-phenylpropyl)propanamide
> <PUBCHEM_IUPAC_SYSTEMATIC_NAME>
N-(1,3-benzothiazol-2-yl)-3-(5-ethyl-4,5-dihydro-1,3-oxazol-2-yl)-3-oxidanylidene-N-(3-phenylpropyl)propanamide
> <PUBCHEM_IUPAC_TRADITIONAL_NAME>
N-(1,3-benzothiazol-2-yl)-3-(5-ethyl-2-oxazolin-2-yl)-3-keto-N-(3-phenylpropyl)propionamide
> <PUBCHEM_IUPAC_INCHI>
InChI=1S/C24H25N3O3S/c1-2-18-16-25-23(30-18)20(28)15-22(29)27(14-8-11-17-9-4-3-5-10-17)24-26-19-12-6-7-13-21(19)31-24/h3-7,9-10,12-13,18H,2,8,11,14-16H2,1H3
> <PUBCHEM_IUPAC_INCHIKEY>
OQPMMHUYFXYYNJ-UHFFFAOYSA-N
> <PUBCHEM_XLOGP3_AA>
4.9
> <PUBCHEM_EXACT_MASS>
435.16166284
> <PUBCHEM_MOLECULAR_FORMULA>
C24H25N3O3S
> <PUBCHEM_MOLECULAR_WEIGHT>
435.5
> <PUBCHEM_OPENEYE_CAN_SMILES>
CCC1CN=C(O1)C(=O)CC(=O)N(CCCC2=CC=CC=C2)C3=NC4=CC=CC=C4S3
> <PUBCHEM_OPENEYE_ISO_SMILES>
CCC1CN=C(O1)C(=O)CC(=O)N(CCCC2=CC=CC=C2)C3=NC4=CC=CC=C4S3
> <PUBCHEM_CACTVS_TPSA>
100
> <PUBCHEM_MONOISOTOPIC_WEIGHT>
435.16166284
> <PUBCHEM_TOTAL_CHARGE>
0
> <PUBCHEM_HEAVY_ATOM_COUNT>
31
> <PUBCHEM_ATOM_DEF_STEREO_COUNT>
0
> <PUBCHEM_ATOM_UDEF_STEREO_COUNT>
1
> <PUBCHEM_BOND_DEF_STEREO_COUNT>
0
> <PUBCHEM_BOND_UDEF_STEREO_COUNT>
0
> <PUBCHEM_ISOTOPIC_ATOM_COUNT>
0
> <PUBCHEM_COMPONENT_COUNT>
1
> <PUBCHEM_CACTVS_TAUTO_COUNT>
-1
> <PUBCHEM_COORDINATE_TYPE>
1
5
255
> <PUBCHEM_BONDANNOTATIONS>
1  17  8
1  21  8
19  23  8
19  24  8
21  22  8
21  25  8
22  26  8
23  27  8
24  28  8
25  30  8
26  31  8
27  29  8
28  29  8
30  31  8
7  17  8
7  22  8
8  12  3
$$$$
