505071
  -OEChem-10302200282D
 71 74  0     1  0  0  0  0  0999 V2000
    6.3301   -3.0000    0.0000 S   0  0  0  0  0  0  0  0  0  0  0  0
    8.9282    1.5000    0.0000 O   0  0  0  0  0  0  0  0  0  0  0  0
    5.3301   -3.0000    0.0000 O   0  0  0  0  0  0  0  0  0  0  0  0
    7.3301   -3.0000    0.0000 O   0  0  0  0  0  0  0  0  0  0  0  0
    8.0622    3.0000    0.0000 O   0  0  0  0  0  0  0  0  0  0  0  0
    8.0622   -0.0000    0.0000 N   0  0  0  0  0  0  0  0  0  0  0  0
    6.3301   -4.0000    0.0000 N   0  0  0  0  0  0  0  0  0  0  0  0
    5.4641    2.5000    0.0000 N   0  0  0  0  0  0  0  0  0  0  0  0
    6.3301    4.0000    0.0000 N   0  0  0  0  0  0  0  0  0  0  0  0
    8.9282   -0.5000    0.0000 C   0  0  0  0  0  0  0  0  0  0  0  0
    3.7320    2.5000    0.0000 C   0  0  3  0  0  0  0  0  0  0  0  0
    7.1962   -0.5000    0.0000 C   0  0  0  0  0  0  0  0  0  0  0  0
    9.7942   -0.0000    0.0000 C   0  0  0  0  0  0  0  0  0  0  0  0
    2.8660    3.0000    0.0000 C   0  0  0  0  0  0  0  0  0  0  0  0
    6.3301   -2.0000    0.0000 C   0  0  0  0  0  0  0  0  0  0  0  0
    7.1962   -1.5000    0.0000 C   0  0  0  0  0  0  0  0  0  0  0  0
    8.0622    1.0000    0.0000 C   0  0  0  0  0  0  0  0  0  0  0  0
    4.5981    3.0000    0.0000 C   0  0  0  0  0  0  0  0  0  0  0  0
   10.6603   -0.5000    0.0000 C   0  0  0  0  0  0  0  0  0  0  0  0
    7.1962    1.5000    0.0000 C   0  0  0  0  0  0  0  0  0  0  0  0
   11.5263   -0.0000    0.0000 C   0  0  0  0  0  0  0  0  0  0  0  0
    3.7320    1.5000    0.0000 C   0  0  0  0  0  0  0  0  0  0  0  0
    6.3301   -0.0000    0.0000 C   0  0  0  0  0  0  0  0  0  0  0  0
    9.7942    1.0000    0.0000 C   0  0  0  0  0  0  0  0  0  0  0  0
   11.5263    1.0000    0.0000 C   0  0  0  0  0  0  0  0  0  0  0  0
    5.4641   -1.5000    0.0000 C   0  0  0  0  0  0  0  0  0  0  0  0
   10.6603    1.5000    0.0000 C   0  0  0  0  0  0  0  0  0  0  0  0
    5.4641   -0.5000    0.0000 C   0  0  0  0  0  0  0  0  0  0  0  0
    2.0000    2.5000    0.0000 C   0  0  0  0  0  0  0  0  0  0  0  0
    7.1962    2.5000    0.0000 C   0  0  0  0  0  0  0  0  0  0  0  0
    6.3301    3.0000    0.0000 C   0  0  0  0  0  0  0  0  0  0  0  0
    4.5981    4.0000    0.0000 C   0  0  0  0  0  0  0  0  0  0  0  0
   12.4202   -0.5347    0.0000 C   0  0  0  0  0  0  0  0  0  0  0  0
   12.4202    1.5347    0.0000 C   0  0  0  0  0  0  0  0  0  0  0  0
    5.4641   -4.5000    0.0000 C   0  0  0  0  0  0  0  0  0  0  0  0
    7.1962   -4.5000    0.0000 C   0  0  0  0  0  0  0  0  0  0  0  0
    5.4641    4.5000    0.0000 C   0  0  0  0  0  0  0  0  0  0  0  0
   13.3263   -0.0208    0.0000 C   0  0  0  0  0  0  0  0  0  0  0  0
   13.3263    1.0208    0.0000 C   0  0  0  0  0  0  0  0  0  0  0  0
    8.5297   -0.9749    0.0000 H   0  0  0  0  0  0  0  0  0  0  0  0
    9.3267   -0.9749    0.0000 H   0  0  0  0  0  0  0  0  0  0  0  0
    4.2690    2.1900    0.0000 H   0  0  0  0  0  0  0  0  0  0  0  0
    3.2646    3.4750    0.0000 H   0  0  0  0  0  0  0  0  0  0  0  0
    2.4675    3.4750    0.0000 H   0  0  0  0  0  0  0  0  0  0  0  0
    7.7331   -1.8100    0.0000 H   0  0  0  0  0  0  0  0  0  0  0  0
   10.6603   -1.1200    0.0000 H   0  0  0  0  0  0  0  0  0  0  0  0
    6.5856    1.6077    0.0000 H   0  0  0  0  0  0  0  0  0  0  0  0
    6.9841    0.9174    0.0000 H   0  0  0  0  0  0  0  0  0  0  0  0
    3.1120    1.5000    0.0000 H   0  0  0  0  0  0  0  0  0  0  0  0
    3.7320    0.8800    0.0000 H   0  0  0  0  0  0  0  0  0  0  0  0
    4.3520    1.5000    0.0000 H   0  0  0  0  0  0  0  0  0  0  0  0
    6.3301    0.6200    0.0000 H   0  0  0  0  0  0  0  0  0  0  0  0
    9.2573    1.3100    0.0000 H   0  0  0  0  0  0  0  0  0  0  0  0
    4.9272   -1.8100    0.0000 H   0  0  0  0  0  0  0  0  0  0  0  0
   10.6603    2.1200    0.0000 H   0  0  0  0  0  0  0  0  0  0  0  0
    4.9272   -0.1900    0.0000 H   0  0  0  0  0  0  0  0  0  0  0  0
    1.6900    3.0369    0.0000 H   0  0  0  0  0  0  0  0  0  0  0  0
    1.4631    2.1900    0.0000 H   0  0  0  0  0  0  0  0  0  0  0  0
    2.3100    1.9631    0.0000 H   0  0  0  0  0  0  0  0  0  0  0  0
    4.0611    4.3100    0.0000 H   0  0  0  0  0  0  0  0  0  0  0  0
   12.4131   -1.1546    0.0000 H   0  0  0  0  0  0  0  0  0  0  0  0
   12.4131    2.1546    0.0000 H   0  0  0  0  0  0  0  0  0  0  0  0
    5.1541   -3.9631    0.0000 H   0  0  0  0  0  0  0  0  0  0  0  0
    4.9272   -4.8100    0.0000 H   0  0  0  0  0  0  0  0  0  0  0  0
    5.7741   -5.0369    0.0000 H   0  0  0  0  0  0  0  0  0  0  0  0
    6.8862   -5.0369    0.0000 H   0  0  0  0  0  0  0  0  0  0  0  0
    7.7331   -4.8100    0.0000 H   0  0  0  0  0  0  0  0  0  0  0  0
    7.5062   -3.9631    0.0000 H   0  0  0  0  0  0  0  0  0  0  0  0
    5.4641    5.1200    0.0000 H   0  0  0  0  0  0  0  0  0  0  0  0
   13.8620   -0.3329    0.0000 H   0  0  0  0  0  0  0  0  0  0  0  0
   13.8620    1.3329    0.0000 H   0  0  0  0  0  0  0  0  0  0  0  0
  1  3  2  0  0  0  0
  1  4  2  0  0  0  0
  1  7  1  0  0  0  0
  1 15  1  0  0  0  0
  2 17  2  0  0  0  0
  5 30  2  0  0  0  0
  6 10  1  0  0  0  0
  6 12  1  0  0  0  0
  6 17  1  0  0  0  0
  7 35  1  0  0  0  0
  7 36  1  0  0  0  0
  8 18  2  0  0  0  0
  8 31  1  0  0  0  0
  9 31  2  0  0  0  0
  9 37  1  0  0  0  0
 10 13  1  0  0  0  0
 10 40  1  0  0  0  0
 10 41  1  0  0  0  0
 11 14  1  0  0  0  0
 11 18  1  0  0  0  0
 11 22  1  0  0  0  0
 11 42  1  0  0  0  0
 12 16  2  0  0  0  0
 12 23  1  0  0  0  0
 13 19  2  0  0  0  0
 13 24  1  0  0  0  0
 14 29  1  0  0  0  0
 14 43  1  0  0  0  0
 14 44  1  0  0  0  0
 15 16  1  0  0  0  0
 15 26  2  0  0  0  0
 16 45  1  0  0  0  0
 17 20  1  0  0  0  0
 18 32  1  0  0  0  0
 19 21  1  0  0  0  0
 19 46  1  0  0  0  0
 20 30  1  0  0  0  0
 20 47  1  0  0  0  0
 20 48  1  0  0  0  0
 21 25  1  0  0  0  0
 21 33  2  0  0  0  0
 22 49  1  0  0  0  0
 22 50  1  0  0  0  0
 22 51  1  0  0  0  0
 23 28  2  0  0  0  0
 23 52  1  0  0  0  0
 24 27  2  0  0  0  0
 24 53  1  0  0  0  0
 25 27  1  0  0  0  0
 25 34  2  0  0  0  0
 26 28  1  0  0  0  0
 26 54  1  0  0  0  0
 27 55  1  0  0  0  0
 28 56  1  0  0  0  0
 29 57  1  0  0  0  0
 29 58  1  0  0  0  0
 29 59  1  0  0  0  0
 30 31  1  0  0  0  0
 32 37  2  0  0  0  0
 32 60  1  0  0  0  0
 33 38  1  0  0  0  0
 33 61  1  0  0  0  0
 34 39  1  0  0  0  0
 34 62  1  0  0  0  0
 35 63  1  0  0  0  0
 35 64  1  0  0  0  0
 35 65  1  0  0  0  0
 36 66  1  0  0  0  0
 36 67  1  0  0  0  0
 36 68  1  0  0  0  0
 37 69  1  0  0  0  0
 38 39  2  0  0  0  0
 38 70  1  0  0  0  0
 39 71  1  0  0  0  0
M  END
> <PUBCHEM_COMPOUND_CID>
505071
> <PUBCHEM_COMPOUND_CANONICALIZED>
1
> <PUBCHEM_CACTVS_COMPLEXITY>
936
> <PUBCHEM_CACTVS_HBOND_ACCEPTOR>
7
> <PUBCHEM_CACTVS_HBOND_DONOR>
0
> <PUBCHEM_CACTVS_ROTATABLE_BOND>
10
> <PUBCHEM_CACTVS_SUBSKEYS>
AAADcfB7uABAAAAAAAAAAAAAAAAAAAAAAAA8YMEAAAAAAADB1AAAHgQAQAAADQzB3wQ/0dcIEAKoA7d3dHDCgDkzAqAJ2Dm4ZJiIKLrI2fGEJAxohgLIyCcUgMAOwAACACAQAACAAAQAQCAAAAAAAAAAAA==
> <PUBCHEM_IUPAC_OPENEYE_NAME>
N-[3-(dimethylsulfamoyl)phenyl]-N-(2-naphthylmethyl)-3-oxo-3-(4-sec-butylpyrimidin-2-yl)propanamide
> <PUBCHEM_IUPAC_CAS_NAME>
3-(4-butan-2-yl-2-pyrimidinyl)-N-[3-(dimethylsulfamoyl)phenyl]-N-(2-naphthalenylmethyl)-3-oxopropanamide
> <PUBCHEM_IUPAC_NAME_MARKUP>
3-(4-butan-2-ylpyrimidin-2-yl)-<I>N</I>-[3-(dimethylsulfamoyl)phenyl]-<I>N</I>-(naphthalen-2-ylmethyl)-3-oxopropanamide
> <PUBCHEM_IUPAC_NAME>
3-(4-butan-2-ylpyrimidin-2-yl)-N-[3-(dimethylsulfamoyl)phenyl]-N-(naphthalen-2-ylmethyl)-3-oxopropanamide
> <PUBCHEM_IUPAC_SYSTEMATIC_NAME>
3-(4-butan-2-ylpyrimidin-2-yl)-N-[3-(dimethylsulfamoyl)phenyl]-N-(naphthalen-2-ylmethyl)-3-oxidanylidene-propanamide
> <PUBCHEM_IUPAC_TRADITIONAL_NAME>
N-[3-(dimethylsulfamoyl)phenyl]-3-keto-N-(2-naphthylmethyl)-3-(4-sec-butylpyrimidin-2-yl)propionamide
> <PUBCHEM_IUPAC_INCHI>
InChI=1S/C30H32N4O4S/c1-5-21(2)27-15-16-31-30(32-27)28(35)19-29(36)34(20-22-13-14-23-9-6-7-10-24(23)17-22)25-11-8-12-26(18-25)39(37,38)33(3)4/h6-18,21H,5,19-20H2,1-4H3
> <PUBCHEM_IUPAC_INCHIKEY>
YIZILDYUXZMBEL-UHFFFAOYSA-N
> <PUBCHEM_XLOGP3_AA>
4.8
> <PUBCHEM_EXACT_MASS>
544.21442669
> <PUBCHEM_MOLECULAR_FORMULA>
C30H32N4O4S
> <PUBCHEM_MOLECULAR_WEIGHT>
544.7
> <PUBCHEM_OPENEYE_CAN_SMILES>
CCC(C)C1=NC(=NC=C1)C(=O)CC(=O)N(CC2=CC3=CC=CC=C3C=C2)C4=CC(=CC=C4)S(=O)(=O)N(C)C
> <PUBCHEM_OPENEYE_ISO_SMILES>
CCC(C)C1=NC(=NC=C1)C(=O)CC(=O)N(CC2=CC3=CC=CC=C3C=C2)C4=CC(=CC=C4)S(=O)(=O)N(C)C
> <PUBCHEM_CACTVS_TPSA>
109
> <PUBCHEM_MONOISOTOPIC_WEIGHT>
544.21442669
> <PUBCHEM_TOTAL_CHARGE>
0
> <PUBCHEM_HEAVY_ATOM_COUNT>
39
> <PUBCHEM_ATOM_DEF_STEREO_COUNT>
0
> <PUBCHEM_ATOM_UDEF_STEREO_COUNT>
1
> <PUBCHEM_BOND_DEF_STEREO_COUNT>
0
> <PUBCHEM_BOND_UDEF_STEREO_COUNT>
0
> <PUBCHEM_ISOTOPIC_ATOM_COUNT>
0
> <PUBCHEM_COMPONENT_COUNT>
1
> <PUBCHEM_CACTVS_TAUTO_COUNT>
-1
> <PUBCHEM_COORDINATE_TYPE>
1
5
255
> <PUBCHEM_BONDANNOTATIONS>
11  22  3
12  16  8
12  23  8
13  19  8
13  24  8
15  16  8
15  26  8
18  32  8
19  21  8
21  25  8
21  33  8
23  28  8
24  27  8
25  27  8
25  34  8
26  28  8
32  37  8
33  38  8
34  39  8
38  39  8
8  18  8
8  31  8
9  31  8
9  37  8
$$$$
