505027
  -OEChem-10302200282D
 55 58  0     1  0  0  0  0  0999 V2000
    2.8660   -3.6900    0.0000 O   0  0  0  0  0  0  0  0  0  0  0  0
    6.3301    1.3100    0.0000 O   0  0  0  0  0  0  0  0  0  0  0  0
    5.4641    2.8100    0.0000 O   0  0  0  0  0  0  0  0  0  0  0  0
    5.4641   -0.1900    0.0000 N   0  0  0  0  0  0  0  0  0  0  0  0
    3.7320    3.8100    0.0000 N   0  0  0  0  0  0  0  0  0  0  0  0
    2.8660    2.3100    0.0000 N   0  0  0  0  0  0  0  0  0  0  0  0
    6.3301   -0.6900    0.0000 C   0  0  0  0  0  0  0  0  0  0  0  0
    7.1962   -0.1900    0.0000 C   0  0  0  0  0  0  0  0  0  0  0  0
    4.5981   -0.6900    0.0000 C   0  0  0  0  0  0  0  0  0  0  0  0
    3.7320   -2.1900    0.0000 C   0  0  0  0  0  0  0  0  0  0  0  0
    4.5981   -1.6900    0.0000 C   0  0  0  0  0  0  0  0  0  0  0  0
    8.0622   -0.6900    0.0000 C   0  0  0  0  0  0  0  0  0  0  0  0
    8.9282   -0.1900    0.0000 C   0  0  0  0  0  0  0  0  0  0  0  0
    5.4641    0.8100    0.0000 C   0  0  0  0  0  0  0  0  0  0  0  0
    8.9282    0.8100    0.0000 C   0  0  0  0  0  0  0  0  0  0  0  0
    7.1962    0.8100    0.0000 C   0  0  0  0  0  0  0  0  0  0  0  0
    3.7320   -3.1900    0.0000 C   0  0  3  0  0  0  0  0  0  0  0  0
    3.7320   -0.1900    0.0000 C   0  0  0  0  0  0  0  0  0  0  0  0
    8.0622    1.3100    0.0000 C   0  0  0  0  0  0  0  0  0  0  0  0
    2.8660   -1.6900    0.0000 C   0  0  0  0  0  0  0  0  0  0  0  0
    4.5981    1.3100    0.0000 C   0  0  0  0  0  0  0  0  0  0  0  0
    2.8660   -0.6900    0.0000 C   0  0  0  0  0  0  0  0  0  0  0  0
    9.8222   -0.7247    0.0000 C   0  0  0  0  0  0  0  0  0  0  0  0
    9.8222    1.3447    0.0000 C   0  0  0  0  0  0  0  0  0  0  0  0
    4.5981   -3.6900    0.0000 C   0  0  0  0  0  0  0  0  0  0  0  0
   10.7282   -0.2108    0.0000 C   0  0  0  0  0  0  0  0  0  0  0  0
   10.7282    0.8308    0.0000 C   0  0  0  0  0  0  0  0  0  0  0  0
    4.5981    2.3100    0.0000 C   0  0  0  0  0  0  0  0  0  0  0  0
    3.7320    2.8100    0.0000 C   0  0  0  0  0  0  0  0  0  0  0  0
    2.8660    4.3100    0.0000 C   0  0  0  0  0  0  0  0  0  0  0  0
    2.0000    2.8100    0.0000 C   0  0  0  0  0  0  0  0  0  0  0  0
    2.0000    3.8100    0.0000 C   0  0  0  0  0  0  0  0  0  0  0  0
    5.9316   -1.1650    0.0000 H   0  0  0  0  0  0  0  0  0  0  0  0
    6.7287   -1.1650    0.0000 H   0  0  0  0  0  0  0  0  0  0  0  0
    5.1350   -2.0000    0.0000 H   0  0  0  0  0  0  0  0  0  0  0  0
    8.0622   -1.3100    0.0000 H   0  0  0  0  0  0  0  0  0  0  0  0
    6.6592    1.1200    0.0000 H   0  0  0  0  0  0  0  0  0  0  0  0
    3.7320   -3.8100    0.0000 H   0  0  0  0  0  0  0  0  0  0  0  0
    3.7320    0.4300    0.0000 H   0  0  0  0  0  0  0  0  0  0  0  0
    8.0622    1.9300    0.0000 H   0  0  0  0  0  0  0  0  0  0  0  0
    2.3291   -2.0000    0.0000 H   0  0  0  0  0  0  0  0  0  0  0  0
    3.9875    1.4177    0.0000 H   0  0  0  0  0  0  0  0  0  0  0  0
    4.3860    0.7274    0.0000 H   0  0  0  0  0  0  0  0  0  0  0  0
    2.3291   -0.3800    0.0000 H   0  0  0  0  0  0  0  0  0  0  0  0
    9.8150   -1.3446    0.0000 H   0  0  0  0  0  0  0  0  0  0  0  0
    9.8150    1.9646    0.0000 H   0  0  0  0  0  0  0  0  0  0  0  0
    4.2881   -4.2269    0.0000 H   0  0  0  0  0  0  0  0  0  0  0  0
    5.1350   -4.0000    0.0000 H   0  0  0  0  0  0  0  0  0  0  0  0
    4.9081   -3.1531    0.0000 H   0  0  0  0  0  0  0  0  0  0  0  0
   11.2639   -0.5229    0.0000 H   0  0  0  0  0  0  0  0  0  0  0  0
   11.2639    1.1429    0.0000 H   0  0  0  0  0  0  0  0  0  0  0  0
    2.8660   -4.3100    0.0000 H   0  0  0  0  0  0  0  0  0  0  0  0
    2.8660    4.9300    0.0000 H   0  0  0  0  0  0  0  0  0  0  0  0
    1.4631    2.5000    0.0000 H   0  0  0  0  0  0  0  0  0  0  0  0
    1.4631    4.1200    0.0000 H   0  0  0  0  0  0  0  0  0  0  0  0
  1 17  1  0  0  0  0
  1 52  1  0  0  0  0
  2 14  2  0  0  0  0
  3 28  2  0  0  0  0
  4  7  1  0  0  0  0
  4  9  1  0  0  0  0
  4 14  1  0  0  0  0
  5 29  2  0  0  0  0
  5 30  1  0  0  0  0
  6 29  1  0  0  0  0
  6 31  2  0  0  0  0
  7  8  1  0  0  0  0
  7 33  1  0  0  0  0
  7 34  1  0  0  0  0
  8 12  2  0  0  0  0
  8 16  1  0  0  0  0
  9 11  1  0  0  0  0
  9 18  2  0  0  0  0
 10 11  2  0  0  0  0
 10 17  1  0  0  0  0
 10 20  1  0  0  0  0
 11 35  1  0  0  0  0
 12 13  1  0  0  0  0
 12 36  1  0  0  0  0
 13 15  1  0  0  0  0
 13 23  2  0  0  0  0
 14 21  1  0  0  0  0
 15 19  1  0  0  0  0
 15 24  2  0  0  0  0
 16 19  2  0  0  0  0
 16 37  1  0  0  0  0
 17 25  1  0  0  0  0
 17 38  1  0  0  0  0
 18 22  1  0  0  0  0
 18 39  1  0  0  0  0
 19 40  1  0  0  0  0
 20 22  2  0  0  0  0
 20 41  1  0  0  0  0
 21 28  1  0  0  0  0
 21 42  1  0  0  0  0
 21 43  1  0  0  0  0
 22 44  1  0  0  0  0
 23 26  1  0  0  0  0
 23 45  1  0  0  0  0
 24 27  1  0  0  0  0
 24 46  1  0  0  0  0
 25 47  1  0  0  0  0
 25 48  1  0  0  0  0
 25 49  1  0  0  0  0
 26 27  2  0  0  0  0
 26 50  1  0  0  0  0
 27 51  1  0  0  0  0
 28 29  1  0  0  0  0
 30 32  2  0  0  0  0
 30 53  1  0  0  0  0
 31 32  1  0  0  0  0
 31 54  1  0  0  0  0
 32 55  1  0  0  0  0
M  END
> <PUBCHEM_COMPOUND_CID>
505027
> <PUBCHEM_COMPOUND_CANONICALIZED>
1
> <PUBCHEM_CACTVS_COMPLEXITY>
636
> <PUBCHEM_CACTVS_HBOND_ACCEPTOR>
5
> <PUBCHEM_CACTVS_HBOND_DONOR>
1
> <PUBCHEM_CACTVS_ROTATABLE_BOND>
7
> <PUBCHEM_CACTVS_SUBSKEYS>
AAADceB7MAAAAAAAAAAAAAAAAAAAAAAAAAA8YMEAAAAAAADB1AAAHgAACAAADBzhmwY/0NcIEgCoArd3dACCgCkzAqAJ2CG4bJiIPrrI2fGEdAhsxgPI2Ce0wOAOwAACQAAQAACAAASAACAAAAAAAAAAAA==
> <PUBCHEM_IUPAC_OPENEYE_NAME>
N-[3-(1-hydroxyethyl)phenyl]-N-(2-naphthylmethyl)-3-oxo-3-pyrimidin-2-yl-propanamide
> <PUBCHEM_IUPAC_CAS_NAME>
N-[3-(1-hydroxyethyl)phenyl]-N-(2-naphthalenylmethyl)-3-oxo-3-(2-pyrimidinyl)propanamide
> <PUBCHEM_IUPAC_NAME_MARKUP>
<I>N</I>-[3-(1-hydroxyethyl)phenyl]-<I>N</I>-(naphthalen-2-ylmethyl)-3-oxo-3-pyrimidin-2-ylpropanamide
> <PUBCHEM_IUPAC_NAME>
N-[3-(1-hydroxyethyl)phenyl]-N-(naphthalen-2-ylmethyl)-3-oxo-3-pyrimidin-2-ylpropanamide
> <PUBCHEM_IUPAC_SYSTEMATIC_NAME>
N-[3-(1-hydroxyethyl)phenyl]-N-(naphthalen-2-ylmethyl)-3-oxidanylidene-3-pyrimidin-2-yl-propanamide
> <PUBCHEM_IUPAC_TRADITIONAL_NAME>
N-[3-(1-hydroxyethyl)phenyl]-3-keto-N-(2-naphthylmethyl)-3-(2-pyrimidyl)propionamide
> <PUBCHEM_IUPAC_INCHI>
InChI=1S/C26H23N3O3/c1-18(30)21-8-4-9-23(15-21)29(25(32)16-24(31)26-27-12-5-13-28-26)17-19-10-11-20-6-2-3-7-22(20)14-19/h2-15,18,30H,16-17H2,1H3
> <PUBCHEM_IUPAC_INCHIKEY>
VFDHBQUZFRWDMY-UHFFFAOYSA-N
> <PUBCHEM_XLOGP3_AA>
3.7
> <PUBCHEM_EXACT_MASS>
425.17394160
> <PUBCHEM_MOLECULAR_FORMULA>
C26H23N3O3
> <PUBCHEM_MOLECULAR_WEIGHT>
425.5
> <PUBCHEM_OPENEYE_CAN_SMILES>
CC(C1=CC(=CC=C1)N(CC2=CC3=CC=CC=C3C=C2)C(=O)CC(=O)C4=NC=CC=N4)O
> <PUBCHEM_OPENEYE_ISO_SMILES>
CC(C1=CC(=CC=C1)N(CC2=CC3=CC=CC=C3C=C2)C(=O)CC(=O)C4=NC=CC=N4)O
> <PUBCHEM_CACTVS_TPSA>
83.4
> <PUBCHEM_MONOISOTOPIC_WEIGHT>
425.17394160
> <PUBCHEM_TOTAL_CHARGE>
0
> <PUBCHEM_HEAVY_ATOM_COUNT>
32
> <PUBCHEM_ATOM_DEF_STEREO_COUNT>
0
> <PUBCHEM_ATOM_UDEF_STEREO_COUNT>
1
> <PUBCHEM_BOND_DEF_STEREO_COUNT>
0
> <PUBCHEM_BOND_UDEF_STEREO_COUNT>
0
> <PUBCHEM_ISOTOPIC_ATOM_COUNT>
0
> <PUBCHEM_COMPONENT_COUNT>
1
> <PUBCHEM_CACTVS_TAUTO_COUNT>
-1
> <PUBCHEM_COORDINATE_TYPE>
1
5
255
> <PUBCHEM_BONDANNOTATIONS>
17  1  3
10  11  8
10  20  8
12  13  8
13  15  8
13  23  8
15  19  8
15  24  8
16  19  8
18  22  8
20  22  8
23  26  8
24  27  8
26  27  8
30  32  8
31  32  8
5  29  8
5  30  8
6  29  8
6  31  8
8  12  8
8  16  8
9  11  8
9  18  8
$$$$
