505139
  -OEChem-10302200282D
 61 64  0     1  0  0  0  0  0999 V2000
    2.0000   -1.0000    0.0000 Cl  0  0  0  0  0  0  0  0  0  0  0  0
    2.0000   -3.0000    0.0000 Cl  0  0  0  0  0  0  0  0  0  0  0  0
    8.0622    1.5000    0.0000 S   0  0  0  0  0  0  0  0  0  0  0  0
    9.0622    1.5000    0.0000 O   0  0  0  0  0  0  0  0  0  0  0  0
    7.0622    1.5000    0.0000 O   0  0  0  0  0  0  0  0  0  0  0  0
    9.7942    2.5000    0.0000 O   0  0  0  0  0  0  0  0  0  0  0  0
    5.4641   -3.0000    0.0000 O   0  0  0  0  0  0  0  0  0  0  0  0
    6.3301   -4.5000    0.0000 O   0  0  0  0  0  0  0  0  0  0  0  0
    6.3301   -1.5000    0.0000 N   0  0  0  0  0  0  0  0  0  0  0  0
    9.7942    4.5000    0.0000 N   0  0  0  0  0  0  0  0  0  0  0  0
    8.0622    4.5000    0.0000 N   0  0  0  0  0  0  0  0  0  0  0  0
    8.9282   -4.0000    0.0000 N   0  0  0  0  0  0  0  0  0  0  0  0
    8.0622   -5.5000    0.0000 N   0  0  0  0  0  0  0  0  0  0  0  0
    8.0622    2.5000    0.0000 C   0  0  3  0  0  0  0  0  0  0  0  0
    8.0622    0.5000    0.0000 C   0  0  0  0  0  0  0  0  0  0  0  0
    7.1962   -1.0000    0.0000 C   0  0  0  0  0  0  0  0  0  0  0  0
    7.1962    0.0000    0.0000 C   0  0  0  0  0  0  0  0  0  0  0  0
    7.1962    3.0000    0.0000 C   0  0  0  0  0  0  0  0  0  0  0  0
    5.4641   -1.0000    0.0000 C   0  0  0  0  0  0  0  0  0  0  0  0
    8.9282    0.0000    0.0000 C   0  0  0  0  0  0  0  0  0  0  0  0
    8.9282    3.0000    0.0000 C   0  0  0  0  0  0  0  0  0  0  0  0
    8.0622   -1.5000    0.0000 C   0  0  0  0  0  0  0  0  0  0  0  0
    8.9282   -1.0000    0.0000 C   0  0  0  0  0  0  0  0  0  0  0  0
    6.3301   -2.5000    0.0000 C   0  0  0  0  0  0  0  0  0  0  0  0
    4.5981   -1.5000    0.0000 C   0  0  0  0  0  0  0  0  0  0  0  0
    7.1962   -3.0000    0.0000 C   0  0  0  0  0  0  0  0  0  0  0  0
    8.9282    4.0000    0.0000 C   0  0  0  0  0  0  0  0  0  0  0  0
    3.7320   -1.0000    0.0000 C   0  0  0  0  0  0  0  0  0  0  0  0
    4.5981   -2.5000    0.0000 C   0  0  0  0  0  0  0  0  0  0  0  0
    7.1962   -4.0000    0.0000 C   0  0  0  0  0  0  0  0  0  0  0  0
    2.8660   -1.5000    0.0000 C   0  0  0  0  0  0  0  0  0  0  0  0
    3.7320   -3.0000    0.0000 C   0  0  0  0  0  0  0  0  0  0  0  0
    2.8660   -2.5000    0.0000 C   0  0  0  0  0  0  0  0  0  0  0  0
    8.0622   -4.5000    0.0000 C   0  0  0  0  0  0  0  0  0  0  0  0
    9.7942    5.5000    0.0000 C   0  0  0  0  0  0  0  0  0  0  0  0
    8.0622    5.5000    0.0000 C   0  0  0  0  0  0  0  0  0  0  0  0
    8.9282    6.0000    0.0000 C   0  0  0  0  0  0  0  0  0  0  0  0
    9.7942   -4.5000    0.0000 C   0  0  0  0  0  0  0  0  0  0  0  0
    8.9282   -6.0000    0.0000 C   0  0  0  0  0  0  0  0  0  0  0  0
    9.7942   -5.5000    0.0000 C   0  0  0  0  0  0  0  0  0  0  0  0
    7.5252    2.1900    0.0000 H   0  0  0  0  0  0  0  0  0  0  0  0
    6.6592    0.3100    0.0000 H   0  0  0  0  0  0  0  0  0  0  0  0
    7.5062    3.5369    0.0000 H   0  0  0  0  0  0  0  0  0  0  0  0
    6.6592    3.3100    0.0000 H   0  0  0  0  0  0  0  0  0  0  0  0
    6.8862    2.4631    0.0000 H   0  0  0  0  0  0  0  0  0  0  0  0
    5.8626   -0.5251    0.0000 H   0  0  0  0  0  0  0  0  0  0  0  0
    5.0656   -0.5251    0.0000 H   0  0  0  0  0  0  0  0  0  0  0  0
    9.4651    0.3100    0.0000 H   0  0  0  0  0  0  0  0  0  0  0  0
    8.0622   -2.1200    0.0000 H   0  0  0  0  0  0  0  0  0  0  0  0
    9.4651   -1.3100    0.0000 H   0  0  0  0  0  0  0  0  0  0  0  0
    7.8067   -3.1077    0.0000 H   0  0  0  0  0  0  0  0  0  0  0  0
    7.4082   -2.4174    0.0000 H   0  0  0  0  0  0  0  0  0  0  0  0
    3.7320   -0.3800    0.0000 H   0  0  0  0  0  0  0  0  0  0  0  0
    5.1350   -2.8100    0.0000 H   0  0  0  0  0  0  0  0  0  0  0  0
    3.7320   -3.6200    0.0000 H   0  0  0  0  0  0  0  0  0  0  0  0
   10.3312    5.8100    0.0000 H   0  0  0  0  0  0  0  0  0  0  0  0
    7.5252    5.8100    0.0000 H   0  0  0  0  0  0  0  0  0  0  0  0
    8.9282    6.6200    0.0000 H   0  0  0  0  0  0  0  0  0  0  0  0
   10.3312   -4.1900    0.0000 H   0  0  0  0  0  0  0  0  0  0  0  0
    8.9282   -6.6200    0.0000 H   0  0  0  0  0  0  0  0  0  0  0  0
   10.3312   -5.8100    0.0000 H   0  0  0  0  0  0  0  0  0  0  0  0
  1 31  1  0  0  0  0
  2 33  1  0  0  0  0
  3  4  2  0  0  0  0
  3  5  2  0  0  0  0
  3 14  1  0  0  0  0
  3 15  1  0  0  0  0
  6 21  2  0  0  0  0
  7 24  2  0  0  0  0
  8 30  2  0  0  0  0
  9 16  1  0  0  0  0
  9 19  1  0  0  0  0
  9 24  1  0  0  0  0
 10 27  2  0  0  0  0
 10 35  1  0  0  0  0
 11 27  1  0  0  0  0
 11 36  2  0  0  0  0
 12 34  2  0  0  0  0
 12 38  1  0  0  0  0
 13 34  1  0  0  0  0
 13 39  2  0  0  0  0
 14 18  1  0  0  0  0
 14 21  1  0  0  0  0
 14 41  1  0  0  0  0
 15 17  1  0  0  0  0
 15 20  2  0  0  0  0
 16 17  2  0  0  0  0
 16 22  1  0  0  0  0
 17 42  1  0  0  0  0
 18 43  1  0  0  0  0
 18 44  1  0  0  0  0
 18 45  1  0  0  0  0
 19 25  1  0  0  0  0
 19 46  1  0  0  0  0
 19 47  1  0  0  0  0
 20 23  1  0  0  0  0
 20 48  1  0  0  0  0
 21 27  1  0  0  0  0
 22 23  2  0  0  0  0
 22 49  1  0  0  0  0
 23 50  1  0  0  0  0
 24 26  1  0  0  0  0
 25 28  2  0  0  0  0
 25 29  1  0  0  0  0
 26 30  1  0  0  0  0
 26 51  1  0  0  0  0
 26 52  1  0  0  0  0
 28 31  1  0  0  0  0
 28 53  1  0  0  0  0
 29 32  2  0  0  0  0
 29 54  1  0  0  0  0
 30 34  1  0  0  0  0
 31 33  2  0  0  0  0
 32 33  1  0  0  0  0
 32 55  1  0  0  0  0
 35 37  2  0  0  0  0
 35 56  1  0  0  0  0
 36 37  1  0  0  0  0
 36 57  1  0  0  0  0
 37 58  1  0  0  0  0
 38 40  2  0  0  0  0
 38 59  1  0  0  0  0
 39 40  1  0  0  0  0
 39 60  1  0  0  0  0
 40 61  1  0  0  0  0
M  END
> <PUBCHEM_COMPOUND_CID>
505139
> <PUBCHEM_COMPOUND_CANONICALIZED>
1
> <PUBCHEM_CACTVS_COMPLEXITY>
1000
> <PUBCHEM_CACTVS_HBOND_ACCEPTOR>
9
> <PUBCHEM_CACTVS_HBOND_DONOR>
0
> <PUBCHEM_CACTVS_ROTATABLE_BOND>
10
> <PUBCHEM_CACTVS_SUBSKEYS>
AAADceB7uABGAAAAAAAAAAAAAAAAAAAAAAA8eIEAAAAAAAAB9AAAHgYAAAAADA7F2yS/0ZcIEAqoArd3dHDCgCkzD7AJ2nm4ZpiIKLrp2/GEJAxohgLoyCcUgAAOBAAAICAAAAQIAABAQAAACAAAAAAAAA==
> <PUBCHEM_IUPAC_OPENEYE_NAME>
N-[(3,4-dichlorophenyl)methyl]-N-[3-(1-methyl-2-oxo-2-pyrimidin-2-yl-ethyl)sulfonylphenyl]-3-oxo-3-pyrimidin-2-yl-propanamide
> <PUBCHEM_IUPAC_CAS_NAME>
N-[(3,4-dichlorophenyl)methyl]-3-oxo-N-[3-[1-oxo-1-(2-pyrimidinyl)propan-2-yl]sulfonylphenyl]-3-(2-pyrimidinyl)propanamide
> <PUBCHEM_IUPAC_NAME_MARKUP>
<I>N</I>-[(3,4-dichlorophenyl)methyl]-3-oxo-<I>N</I>-[3-(1-oxo-1-pyrimidin-2-ylpropan-2-yl)sulfonylphenyl]-3-pyrimidin-2-ylpropanamide
> <PUBCHEM_IUPAC_NAME>
N-[(3,4-dichlorophenyl)methyl]-3-oxo-N-[3-(1-oxo-1-pyrimidin-2-ylpropan-2-yl)sulfonylphenyl]-3-pyrimidin-2-ylpropanamide
> <PUBCHEM_IUPAC_SYSTEMATIC_NAME>
N-[(3,4-dichlorophenyl)methyl]-3-oxidanylidene-N-[3-(1-oxidanylidene-1-pyrimidin-2-yl-propan-2-yl)sulfonylphenyl]-3-pyrimidin-2-yl-propanamide
> <PUBCHEM_IUPAC_TRADITIONAL_NAME>
N-(3,4-dichlorobenzyl)-3-keto-N-[3-[2-keto-1-methyl-2-(2-pyrimidyl)ethyl]sulfonylphenyl]-3-(2-pyrimidyl)propionamide
> <PUBCHEM_IUPAC_INCHI>
InChI=1S/C27H21Cl2N5O5S/c1-17(25(37)27-32-11-4-12-33-27)40(38,39)20-6-2-5-19(14-20)34(16-18-7-8-21(28)22(29)13-18)24(36)15-23(35)26-30-9-3-10-31-26/h2-14,17H,15-16H2,1H3
> <PUBCHEM_IUPAC_INCHIKEY>
MELYRDLCSANXKL-UHFFFAOYSA-N
> <PUBCHEM_XLOGP3_AA>
3.8
> <PUBCHEM_EXACT_MASS>
597.0640453
> <PUBCHEM_MOLECULAR_FORMULA>
C27H21Cl2N5O5S
> <PUBCHEM_MOLECULAR_WEIGHT>
598.5
> <PUBCHEM_OPENEYE_CAN_SMILES>
CC(C(=O)C1=NC=CC=N1)S(=O)(=O)C2=CC=CC(=C2)N(CC3=CC(=C(C=C3)Cl)Cl)C(=O)CC(=O)C4=NC=CC=N4
> <PUBCHEM_OPENEYE_ISO_SMILES>
CC(C(=O)C1=NC=CC=N1)S(=O)(=O)C2=CC=CC(=C2)N(CC3=CC(=C(C=C3)Cl)Cl)C(=O)CC(=O)C4=NC=CC=N4
> <PUBCHEM_CACTVS_TPSA>
149
> <PUBCHEM_MONOISOTOPIC_WEIGHT>
597.0640453
> <PUBCHEM_TOTAL_CHARGE>
0
> <PUBCHEM_HEAVY_ATOM_COUNT>
40
> <PUBCHEM_ATOM_DEF_STEREO_COUNT>
0
> <PUBCHEM_ATOM_UDEF_STEREO_COUNT>
1
> <PUBCHEM_BOND_DEF_STEREO_COUNT>
0
> <PUBCHEM_BOND_UDEF_STEREO_COUNT>
0
> <PUBCHEM_ISOTOPIC_ATOM_COUNT>
0
> <PUBCHEM_COMPONENT_COUNT>
1
> <PUBCHEM_CACTVS_TAUTO_COUNT>
-1
> <PUBCHEM_COORDINATE_TYPE>
1
5
255
> <PUBCHEM_BONDANNOTATIONS>
10  27  8
10  35  8
11  27  8
11  36  8
12  34  8
12  38  8
13  34  8
13  39  8
14  18  3
15  17  8
15  20  8
16  17  8
16  22  8
20  23  8
22  23  8
25  28  8
25  29  8
28  31  8
29  32  8
31  33  8
32  33  8
35  37  8
36  37  8
38  40  8
39  40  8
$$$$
