505253
  -OEChem-10302200282D
 64 67  0     1  0  0  0  0  0999 V2000
    3.9696    3.1084    0.0000 Cl  0  0  0  0  0  0  0  0  0  0  0  0
    2.0000    2.7611    0.0000 Cl  0  0  0  0  0  0  0  0  0  0  0  0
    5.2552    1.5764    0.0000 O   0  0  0  0  0  0  0  0  0  0  0  0
    7.1836   -0.7218    0.0000 O   0  0  0  0  0  0  0  0  0  0  0  0
    8.2096    2.0973    0.0000 O   0  0  0  0  0  0  0  0  0  0  0  0
    3.6007   -2.3954    0.0000 O   0  0  0  0  0  0  0  0  0  0  0  0
    5.5560   -0.1294    0.0000 N   0  0  0  0  0  0  0  0  0  0  0  0
    4.4667   -3.8954    0.0000 N   0  0  0  0  0  0  0  0  0  0  0  0
    5.5972    2.5160    0.0000 N   0  0  0  0  0  0  0  0  0  0  0  0
    6.9240    3.6294    0.0000 N   0  0  0  0  0  0  0  0  0  0  0  0
    6.8828    0.9840    0.0000 C   0  0  3  0  0  0  0  0  0  0  0  0
    4.5712   -0.3030    0.0000 C   0  0  0  0  0  0  0  0  0  0  0  0
    5.8980    0.8103    0.0000 C   0  0  0  0  0  0  0  0  0  0  0  0
    6.1988   -0.8954    0.0000 C   0  0  0  0  0  0  0  0  0  0  0  0
    3.9284    0.4630    0.0000 C   0  0  0  0  0  0  0  0  0  0  0  0
    7.5256    0.2179    0.0000 C   0  0  0  0  0  0  0  0  0  0  0  0
    5.3327   -1.3954    0.0000 C   0  0  0  0  0  0  0  0  0  0  0  0
    7.0648   -1.3954    0.0000 C   0  0  0  0  0  0  0  0  0  0  0  0
    7.2248    1.9236    0.0000 C   0  0  0  0  0  0  0  0  0  0  0  0
    5.3327   -2.3954    0.0000 C   0  0  0  0  0  0  0  0  0  0  0  0
    8.5104    0.3916    0.0000 C   0  0  0  0  0  0  0  0  0  0  0  0
    4.2704    1.4027    0.0000 C   0  0  0  0  0  0  0  0  0  0  0  0
    2.9436    0.2894    0.0000 C   0  0  0  0  0  0  0  0  0  0  0  0
    7.0648   -2.3954    0.0000 C   0  0  0  0  0  0  0  0  0  0  0  0
    6.1988   -2.8954    0.0000 C   0  0  0  0  0  0  0  0  0  0  0  0
    4.4667   -2.8954    0.0000 C   0  0  0  0  0  0  0  0  0  0  0  0
    6.5820    2.6897    0.0000 C   0  0  0  0  0  0  0  0  0  0  0  0
    3.6276    2.1688    0.0000 C   0  0  0  0  0  0  0  0  0  0  0  0
    2.3008    1.0554    0.0000 C   0  0  0  0  0  0  0  0  0  0  0  0
    8.8524    1.3312    0.0000 C   0  0  0  0  0  0  0  0  0  0  0  0
    9.1532   -0.3745    0.0000 C   0  0  0  0  0  0  0  0  0  0  0  0
    2.6428    1.9951    0.0000 C   0  0  0  0  0  0  0  0  0  0  0  0
    9.8372    1.5049    0.0000 C   0  0  0  0  0  0  0  0  0  0  0  0
   10.1380   -0.2008    0.0000 C   0  0  0  0  0  0  0  0  0  0  0  0
   10.4800    0.7389    0.0000 C   0  0  0  0  0  0  0  0  0  0  0  0
    3.6007   -4.3954    0.0000 C   0  0  0  0  0  0  0  0  0  0  0  0
    5.3327   -4.3954    0.0000 C   0  0  0  0  0  0  0  0  0  0  0  0
    4.9544    3.2821    0.0000 C   0  0  0  0  0  0  0  0  0  0  0  0
    6.2812    4.3954    0.0000 C   0  0  0  0  0  0  0  0  0  0  0  0
    5.2964    4.2218    0.0000 C   0  0  0  0  0  0  0  0  0  0  0  0
    7.4934    1.0916    0.0000 H   0  0  0  0  0  0  0  0  0  0  0  0
    4.0342   -0.6130    0.0000 H   0  0  0  0  0  0  0  0  0  0  0  0
    4.7832   -0.8856    0.0000 H   0  0  0  0  0  0  0  0  0  0  0  0
    4.7958   -1.0854    0.0000 H   0  0  0  0  0  0  0  0  0  0  0  0
    7.6017   -1.0854    0.0000 H   0  0  0  0  0  0  0  0  0  0  0  0
    4.8810    1.5104    0.0000 H   0  0  0  0  0  0  0  0  0  0  0  0
    2.7315   -0.2932    0.0000 H   0  0  0  0  0  0  0  0  0  0  0  0
    7.6017   -2.7054    0.0000 H   0  0  0  0  0  0  0  0  0  0  0  0
    6.1988   -3.5154    0.0000 H   0  0  0  0  0  0  0  0  0  0  0  0
    1.6902    0.9477    0.0000 H   0  0  0  0  0  0  0  0  0  0  0  0
    8.4539    1.8062    0.0000 H   0  0  0  0  0  0  0  0  0  0  0  0
    8.9411   -0.9571    0.0000 H   0  0  0  0  0  0  0  0  0  0  0  0
   10.0493    2.0875    0.0000 H   0  0  0  0  0  0  0  0  0  0  0  0
   10.5365   -0.6758    0.0000 H   0  0  0  0  0  0  0  0  0  0  0  0
   11.0906    0.8465    0.0000 H   0  0  0  0  0  0  0  0  0  0  0  0
    3.2907   -3.8585    0.0000 H   0  0  0  0  0  0  0  0  0  0  0  0
    3.0637   -4.7054    0.0000 H   0  0  0  0  0  0  0  0  0  0  0  0
    3.9107   -4.9324    0.0000 H   0  0  0  0  0  0  0  0  0  0  0  0
    5.0227   -4.9324    0.0000 H   0  0  0  0  0  0  0  0  0  0  0  0
    5.8697   -4.7054    0.0000 H   0  0  0  0  0  0  0  0  0  0  0  0
    5.6427   -3.8585    0.0000 H   0  0  0  0  0  0  0  0  0  0  0  0
    4.3438    3.1744    0.0000 H   0  0  0  0  0  0  0  0  0  0  0  0
    6.4933    4.9780    0.0000 H   0  0  0  0  0  0  0  0  0  0  0  0
    4.8979    4.6967    0.0000 H   0  0  0  0  0  0  0  0  0  0  0  0
  1 28  1  0  0  0  0
  2 32  1  0  0  0  0
  3 13  2  0  0  0  0
  4 16  2  0  0  0  0
  5 19  2  0  0  0  0
  6 26  2  0  0  0  0
  7 12  1  0  0  0  0
  7 13  1  0  0  0  0
  7 14  1  0  0  0  0
  8 26  1  0  0  0  0
  8 36  1  0  0  0  0
  8 37  1  0  0  0  0
  9 27  2  0  0  0  0
  9 38  1  0  0  0  0
 10 27  1  0  0  0  0
 10 39  2  0  0  0  0
 11 13  1  0  0  0  0
 11 16  1  0  0  0  0
 11 19  1  0  0  0  0
 11 41  1  0  0  0  0
 12 15  1  0  0  0  0
 12 42  1  0  0  0  0
 12 43  1  0  0  0  0
 14 17  1  0  0  0  0
 14 18  2  0  0  0  0
 15 22  2  0  0  0  0
 15 23  1  0  0  0  0
 16 21  1  0  0  0  0
 17 20  2  0  0  0  0
 17 44  1  0  0  0  0
 18 24  1  0  0  0  0
 18 45  1  0  0  0  0
 19 27  1  0  0  0  0
 20 25  1  0  0  0  0
 20 26  1  0  0  0  0
 21 30  2  0  0  0  0
 21 31  1  0  0  0  0
 22 28  1  0  0  0  0
 22 46  1  0  0  0  0
 23 29  2  0  0  0  0
 23 47  1  0  0  0  0
 24 25  2  0  0  0  0
 24 48  1  0  0  0  0
 25 49  1  0  0  0  0
 28 32  2  0  0  0  0
 29 32  1  0  0  0  0
 29 50  1  0  0  0  0
 30 33  1  0  0  0  0
 30 51  1  0  0  0  0
 31 34  2  0  0  0  0
 31 52  1  0  0  0  0
 33 35  2  0  0  0  0
 33 53  1  0  0  0  0
 34 35  1  0  0  0  0
 34 54  1  0  0  0  0
 35 55  1  0  0  0  0
 36 56  1  0  0  0  0
 36 57  1  0  0  0  0
 36 58  1  0  0  0  0
 37 59  1  0  0  0  0
 37 60  1  0  0  0  0
 37 61  1  0  0  0  0
 38 40  2  0  0  0  0
 38 62  1  0  0  0  0
 39 40  1  0  0  0  0
 39 63  1  0  0  0  0
 40 64  1  0  0  0  0
M  END
> <PUBCHEM_COMPOUND_CID>
505253
> <PUBCHEM_COMPOUND_CANONICALIZED>
1
> <PUBCHEM_CACTVS_COMPLEXITY>
906
> <PUBCHEM_CACTVS_HBOND_ACCEPTOR>
6
> <PUBCHEM_CACTVS_HBOND_DONOR>
0
> <PUBCHEM_CACTVS_ROTATABLE_BOND>
9
> <PUBCHEM_CACTVS_SUBSKEYS>
AAADceB7uAAGAAAAAAAAAAAAAAAAAAAAAAA8YMEAAAAAAAAB1AAAHgIAAAAADQ7BmyQ/0JcIEACoArd3dACCgCk3B6AJ2mG4ZtiIKLrJ3/GEJQhohgLIyacciMCOBAAAYAAAAAQIAADAAAAACAAAAAAAAA==
> <PUBCHEM_IUPAC_OPENEYE_NAME>
3-[(2-benzoyl-3-oxo-3-pyrimidin-2-yl-propanoyl)-[(3,4-dichlorophenyl)methyl]amino]-N,N-dimethyl-benzamide
> <PUBCHEM_IUPAC_CAS_NAME>
3-[[2-benzoyl-1,3-dioxo-3-(2-pyrimidinyl)propyl]-[(3,4-dichlorophenyl)methyl]amino]-N,N-dimethylbenzamide
> <PUBCHEM_IUPAC_NAME_MARKUP>
3-[(2-benzoyl-3-oxo-3-pyrimidin-2-ylpropanoyl)-[(3,4-dichlorophenyl)methyl]amino]-<I>N</I>,<I>N</I>-dimethylbenzamide
> <PUBCHEM_IUPAC_NAME>
3-[(2-benzoyl-3-oxo-3-pyrimidin-2-ylpropanoyl)-[(3,4-dichlorophenyl)methyl]amino]-N,N-dimethylbenzamide
> <PUBCHEM_IUPAC_SYSTEMATIC_NAME>
3-[(3,4-dichlorophenyl)methyl-[3-oxidanylidene-2-(phenylcarbonyl)-3-pyrimidin-2-yl-propanoyl]amino]-N,N-dimethyl-benzamide
> <PUBCHEM_IUPAC_TRADITIONAL_NAME>
3-[[2-benzoyl-3-keto-3-(2-pyrimidyl)propanoyl]-(3,4-dichlorobenzyl)amino]-N,N-dimethyl-benzamide
> <PUBCHEM_IUPAC_INCHI>
InChI=1S/C30H24Cl2N4O4/c1-35(2)29(39)21-10-6-11-22(17-21)36(18-19-12-13-23(31)24(32)16-19)30(40)25(26(37)20-8-4-3-5-9-20)27(38)28-33-14-7-15-34-28/h3-17,25H,18H2,1-2H3
> <PUBCHEM_IUPAC_INCHIKEY>
UAIVCXQIPPRXCL-UHFFFAOYSA-N
> <PUBCHEM_XLOGP3_AA>
5.2
> <PUBCHEM_EXACT_MASS>
574.1174606
> <PUBCHEM_MOLECULAR_FORMULA>
C30H24Cl2N4O4
> <PUBCHEM_MOLECULAR_WEIGHT>
575.4
> <PUBCHEM_OPENEYE_CAN_SMILES>
CN(C)C(=O)C1=CC(=CC=C1)N(CC2=CC(=C(C=C2)Cl)Cl)C(=O)C(C(=O)C3=CC=CC=C3)C(=O)C4=NC=CC=N4
> <PUBCHEM_OPENEYE_ISO_SMILES>
CN(C)C(=O)C1=CC(=CC=C1)N(CC2=CC(=C(C=C2)Cl)Cl)C(=O)C(C(=O)C3=CC=CC=C3)C(=O)C4=NC=CC=N4
> <PUBCHEM_CACTVS_TPSA>
101
> <PUBCHEM_MONOISOTOPIC_WEIGHT>
574.1174606
> <PUBCHEM_TOTAL_CHARGE>
0
> <PUBCHEM_HEAVY_ATOM_COUNT>
40
> <PUBCHEM_ATOM_DEF_STEREO_COUNT>
0
> <PUBCHEM_ATOM_UDEF_STEREO_COUNT>
1
> <PUBCHEM_BOND_DEF_STEREO_COUNT>
0
> <PUBCHEM_BOND_UDEF_STEREO_COUNT>
0
> <PUBCHEM_ISOTOPIC_ATOM_COUNT>
0
> <PUBCHEM_COMPONENT_COUNT>
1
> <PUBCHEM_CACTVS_TAUTO_COUNT>
-1
> <PUBCHEM_COORDINATE_TYPE>
1
5
255
> <PUBCHEM_BONDANNOTATIONS>
10  27  8
10  39  8
11  16  3
14  17  8
14  18  8
15  22  8
15  23  8
17  20  8
18  24  8
20  25  8
21  30  8
21  31  8
22  28  8
23  29  8
24  25  8
28  32  8
29  32  8
30  33  8
31  34  8
33  35  8
34  35  8
38  40  8
39  40  8
9  27  8
9  38  8
$$$$
