505362
  -OEChem-10302200282D
173174  0     1  0  0  0  0  0999 V2000
   21.5895   -6.8100    0.0000 O   0  0  0  0  0  0  0  0  0  0  0  0
   20.8658   -3.9554    0.0000 O   0  0  0  0  0  0  0  0  0  0  0  0
   18.9914   -4.3100    0.0000 O   0  0  0  0  0  0  0  0  0  0  0  0
   16.3933   -6.8100    0.0000 O   0  0  0  0  0  0  0  0  0  0  0  0
   13.7953   -4.3100    0.0000 O   0  0  0  0  0  0  0  0  0  0  0  0
   12.9292   -3.8100    0.0000 O   0  0  0  0  0  0  0  0  0  0  0  0
    9.4651   -2.8100    0.0000 O   0  0  0  0  0  0  0  0  0  0  0  0
    7.7331   -0.8100    0.0000 O   0  0  0  0  0  0  0  0  0  0  0  0
   10.3312    0.6900    0.0000 O   0  0  0  0  0  0  0  0  0  0  0  0
    6.8671    1.6900    0.0000 O   0  0  0  0  0  0  0  0  0  0  0  0
    7.7331    5.1900    0.0000 O   0  0  0  0  0  0  0  0  0  0  0  0
    5.1350    7.6900    0.0000 O   0  0  0  0  0  0  0  0  0  0  0  0
    6.0010    8.1900    0.0000 O   0  0  0  0  0  0  0  0  0  0  0  0
   22.5600   -4.3155    0.0000 N   0  0  0  0  0  0  0  0  0  0  0  0
   20.7235   -5.3100    0.0000 N   0  0  0  0  0  0  0  0  0  0  0  0
   18.1254   -5.8100    0.0000 N   0  0  0  0  0  0  0  0  0  0  0  0
   15.5273   -5.3100    0.0000 N   0  0  0  0  0  0  0  0  0  0  0  0
   12.9292   -5.8100    0.0000 N   0  0  0  0  0  0  0  0  0  0  0  0
   11.1972   -3.8100    0.0000 N   0  0  0  0  0  0  0  0  0  0  0  0
   10.3312   -1.3100    0.0000 N   0  0  0  0  0  0  0  0  0  0  0  0
    8.5991    0.6900    0.0000 N   0  0  0  0  0  0  0  0  0  0  0  0
    7.7331    3.1900    0.0000 N   0  0  0  0  0  0  0  0  0  0  0  0
    6.0010    5.1900    0.0000 N   0  0  0  0  0  0  0  0  0  0  0  0
   10.3312    4.6900    0.0000 N   0  0  0  0  0  0  0  0  0  0  0  0
    2.5369    3.1900    0.0000 N   0  0  0  0  0  0  0  0  0  0  0  0
    4.2690    6.1900    0.0000 N   0  0  0  0  0  0  0  0  0  0  0  0
    7.7331    8.1900    0.0000 N   0  0  0  0  0  0  0  0  0  0  0  0
   11.1972    6.1900    0.0000 N   0  0  0  0  0  0  0  0  0  0  0  0
   12.0632    4.6900    0.0000 N   0  0  0  0  0  0  0  0  0  0  0  0
   22.4555   -5.3100    0.0000 C   0  0  1  0  0  0  0  0  0  0  0  0
   23.3691   -5.7167    0.0000 C   0  0  0  0  0  0  0  0  0  0  0  0
   24.0382   -4.9736    0.0000 C   0  0  0  0  0  0  0  0  0  0  0  0
   23.5382   -4.1076    0.0000 C   0  0  0  0  0  0  0  0  0  0  0  0
   21.5895   -5.8100    0.0000 C   0  0  0  0  0  0  0  0  0  0  0  0
   21.8169   -3.6464    0.0000 C   0  0  0  0  0  0  0  0  0  0  0  0
   19.8574   -5.8100    0.0000 C   0  0  2  0  0  0  0  0  0  0  0  0
   22.0248   -2.6682    0.0000 C   0  0  0  0  0  0  0  0  0  0  0  0
   17.2594   -5.3100    0.0000 C   0  0  1  0  0  0  0  0  0  0  0  0
   17.2594   -4.3100    0.0000 C   0  0  0  0  0  0  0  0  0  0  0  0
   18.9914   -5.3100    0.0000 C   0  0  0  0  0  0  0  0  0  0  0  0
   14.6613   -5.8100    0.0000 C   0  0  1  0  0  0  0  0  0  0  0  0
   19.8574   -6.8100    0.0000 C   0  0  0  0  0  0  0  0  0  0  0  0
   14.6613   -6.8100    0.0000 C   0  0  0  0  0  0  0  0  0  0  0  0
   16.3933   -5.8100    0.0000 C   0  0  0  0  0  0  0  0  0  0  0  0
   11.1972   -2.8100    0.0000 C   0  0  1  0  0  0  0  0  0  0  0  0
   12.0632   -5.3100    0.0000 C   0  0  1  0  0  0  0  0  0  0  0  0
   13.7953   -5.3100    0.0000 C   0  0  0  0  0  0  0  0  0  0  0  0
   12.0632   -2.3100    0.0000 C   0  0  0  0  0  0  0  0  0  0  0  0
   18.1254   -3.8100    0.0000 C   0  0  0  0  0  0  0  0  0  0  0  0
   16.3933   -3.8100    0.0000 C   0  0  0  0  0  0  0  0  0  0  0  0
   15.5273   -7.3100    0.0000 C   0  0  0  0  0  0  0  0  0  0  0  0
   13.7953   -7.3100    0.0000 C   0  0  0  0  0  0  0  0  0  0  0  0
    9.4651   -0.8100    0.0000 C   0  0  1  0  0  0  0  0  0  0  0  0
   11.1972   -5.8100    0.0000 C   0  0  0  0  0  0  0  0  0  0  0  0
   12.0632   -4.3100    0.0000 C   0  0  0  0  0  0  0  0  0  0  0  0
   10.3312   -2.3100    0.0000 C   0  0  0  0  0  0  0  0  0  0  0  0
    8.5991    1.6900    0.0000 C   0  0  1  0  0  0  0  0  0  0  0  0
    8.5991   -1.3100    0.0000 C   0  0  1  0  0  0  0  0  0  0  0  0
   12.0632   -1.3100    0.0000 C   0  0  0  0  0  0  0  0  0  0  0  0
   12.9292   -2.8100    0.0000 C   0  0  0  0  0  0  0  0  0  0  0  0
    9.4651    2.1900    0.0000 C   0  0  0  0  0  0  0  0  0  0  0  0
    6.8671    3.6900    0.0000 C   0  0  1  0  0  0  0  0  0  0  0  0
    9.4651    0.1900    0.0000 C   0  0  0  0  0  0  0  0  0  0  0  0
    6.0010    3.1900    0.0000 C   0  0  0  0  0  0  0  0  0  0  0  0
    7.7331    2.1900    0.0000 C   0  0  0  0  0  0  0  0  0  0  0  0
   11.1972   -6.8100    0.0000 C   0  0  0  0  0  0  0  0  0  0  0  0
    9.4651    3.1900    0.0000 C   0  0  0  0  0  0  0  0  0  0  0  0
    5.1350    3.6900    0.0000 C   0  0  0  0  0  0  0  0  0  0  0  0
    8.5991   -2.3100    0.0000 C   0  0  0  0  0  0  0  0  0  0  0  0
    6.8671    4.6900    0.0000 C   0  0  0  0  0  0  0  0  0  0  0  0
    4.2690    3.1900    0.0000 C   0  0  0  0  0  0  0  0  0  0  0  0
   10.3312    3.6900    0.0000 C   0  0  0  0  0  0  0  0  0  0  0  0
   10.3312   -7.3100    0.0000 C   0  0  0  0  0  0  0  0  0  0  0  0
   12.0632   -7.3100    0.0000 C   0  0  0  0  0  0  0  0  0  0  0  0
    3.4030    3.6900    0.0000 C   0  0  0  0  0  0  0  0  0  0  0  0
    6.0010    6.1900    0.0000 C   0  0  1  0  0  0  0  0  0  0  0  0
   10.3312   -8.3100    0.0000 C   0  0  0  0  0  0  0  0  0  0  0  0
   12.0632   -8.3100    0.0000 C   0  0  0  0  0  0  0  0  0  0  0  0
    6.8671    6.6900    0.0000 C   0  0  0  0  0  0  0  0  0  0  0  0
   11.1972   -8.8100    0.0000 C   0  0  0  0  0  0  0  0  0  0  0  0
    5.1350    6.6900    0.0000 C   0  0  0  0  0  0  0  0  0  0  0  0
    6.8671    7.6900    0.0000 C   0  0  0  0  0  0  0  0  0  0  0  0
   11.1972    5.1900    0.0000 C   0  0  0  0  0  0  0  0  0  0  0  0
   21.9355   -4.9723    0.0000 H   0  0  0  0  0  0  0  0  0  0  0  0
   23.0591   -6.2537    0.0000 H   0  0  0  0  0  0  0  0  0  0  0  0
   23.8707   -6.0812    0.0000 H   0  0  0  0  0  0  0  0  0  0  0  0
   24.4531   -5.4343    0.0000 H   0  0  0  0  0  0  0  0  0  0  0  0
   24.5398   -4.6092    0.0000 H   0  0  0  0  0  0  0  0  0  0  0  0
   24.1046   -3.8554    0.0000 H   0  0  0  0  0  0  0  0  0  0  0  0
   23.3466   -3.5179    0.0000 H   0  0  0  0  0  0  0  0  0  0  0  0
   20.7235   -4.6900    0.0000 H   0  0  0  0  0  0  0  0  0  0  0  0
   20.3944   -6.1200    0.0000 H   0  0  0  0  0  0  0  0  0  0  0  0
   22.6313   -2.7971    0.0000 H   0  0  0  0  0  0  0  0  0  0  0  0
   22.1537   -2.0618    0.0000 H   0  0  0  0  0  0  0  0  0  0  0  0
   21.4184   -2.5393    0.0000 H   0  0  0  0  0  0  0  0  0  0  0  0
   17.7963   -5.0000    0.0000 H   0  0  0  0  0  0  0  0  0  0  0  0
   16.7224   -4.6200    0.0000 H   0  0  0  0  0  0  0  0  0  0  0  0
   14.6613   -5.1900    0.0000 H   0  0  0  0  0  0  0  0  0  0  0  0
   18.1254   -6.4300    0.0000 H   0  0  0  0  0  0  0  0  0  0  0  0
   19.2374   -6.8100    0.0000 H   0  0  0  0  0  0  0  0  0  0  0  0
   19.8574   -7.4300    0.0000 H   0  0  0  0  0  0  0  0  0  0  0  0
   20.4774   -6.8100    0.0000 H   0  0  0  0  0  0  0  0  0  0  0  0
   14.1244   -6.5000    0.0000 H   0  0  0  0  0  0  0  0  0  0  0  0
   15.5273   -4.6900    0.0000 H   0  0  0  0  0  0  0  0  0  0  0  0
   10.6603   -3.1200    0.0000 H   0  0  0  0  0  0  0  0  0  0  0  0
   12.6002   -5.0000    0.0000 H   0  0  0  0  0  0  0  0  0  0  0  0
   12.6002   -2.0000    0.0000 H   0  0  0  0  0  0  0  0  0  0  0  0
   18.4354   -4.3469    0.0000 H   0  0  0  0  0  0  0  0  0  0  0  0
   18.6623   -3.5000    0.0000 H   0  0  0  0  0  0  0  0  0  0  0  0
   17.8154   -3.2731    0.0000 H   0  0  0  0  0  0  0  0  0  0  0  0
   16.7033   -3.2731    0.0000 H   0  0  0  0  0  0  0  0  0  0  0  0
   15.8564   -3.5000    0.0000 H   0  0  0  0  0  0  0  0  0  0  0  0
   16.0833   -4.3469    0.0000 H   0  0  0  0  0  0  0  0  0  0  0  0
   12.9292   -6.4300    0.0000 H   0  0  0  0  0  0  0  0  0  0  0  0
   15.2173   -7.8469    0.0000 H   0  0  0  0  0  0  0  0  0  0  0  0
   16.0643   -7.6200    0.0000 H   0  0  0  0  0  0  0  0  0  0  0  0
   15.8373   -6.7731    0.0000 H   0  0  0  0  0  0  0  0  0  0  0  0
   13.4853   -6.7731    0.0000 H   0  0  0  0  0  0  0  0  0  0  0  0
   13.2583   -7.6200    0.0000 H   0  0  0  0  0  0  0  0  0  0  0  0
   14.1053   -7.8469    0.0000 H   0  0  0  0  0  0  0  0  0  0  0  0
   10.0021   -0.5000    0.0000 H   0  0  0  0  0  0  0  0  0  0  0  0
   10.6603   -4.1200    0.0000 H   0  0  0  0  0  0  0  0  0  0  0  0
   10.9851   -5.2274    0.0000 H   0  0  0  0  0  0  0  0  0  0  0  0
   10.5866   -5.9177    0.0000 H   0  0  0  0  0  0  0  0  0  0  0  0
    8.0622    1.3800    0.0000 H   0  0  0  0  0  0  0  0  0  0  0  0
   10.8681   -1.0000    0.0000 H   0  0  0  0  0  0  0  0  0  0  0  0
    8.5991   -0.6900    0.0000 H   0  0  0  0  0  0  0  0  0  0  0  0
   12.6832   -1.3100    0.0000 H   0  0  0  0  0  0  0  0  0  0  0  0
   12.0632   -0.6900    0.0000 H   0  0  0  0  0  0  0  0  0  0  0  0
   11.4432   -1.3100    0.0000 H   0  0  0  0  0  0  0  0  0  0  0  0
   12.6192   -3.3469    0.0000 H   0  0  0  0  0  0  0  0  0  0  0  0
   13.4662   -3.1200    0.0000 H   0  0  0  0  0  0  0  0  0  0  0  0
   13.2392   -2.2731    0.0000 H   0  0  0  0  0  0  0  0  0  0  0  0
    9.6772    1.6074    0.0000 H   0  0  0  0  0  0  0  0  0  0  0  0
   10.0757    2.2977    0.0000 H   0  0  0  0  0  0  0  0  0  0  0  0
    7.4040    4.0000    0.0000 H   0  0  0  0  0  0  0  0  0  0  0  0
    8.0622    0.3800    0.0000 H   0  0  0  0  0  0  0  0  0  0  0  0
    5.6025    2.7151    0.0000 H   0  0  0  0  0  0  0  0  0  0  0  0
    6.3996    2.7151    0.0000 H   0  0  0  0  0  0  0  0  0  0  0  0
    8.2700    3.5000    0.0000 H   0  0  0  0  0  0  0  0  0  0  0  0
    9.2531    3.7726    0.0000 H   0  0  0  0  0  0  0  0  0  0  0  0
    8.8546    3.0823    0.0000 H   0  0  0  0  0  0  0  0  0  0  0  0
    5.5335    4.1650    0.0000 H   0  0  0  0  0  0  0  0  0  0  0  0
    4.7365    4.1650    0.0000 H   0  0  0  0  0  0  0  0  0  0  0  0
    7.9791   -2.3100    0.0000 H   0  0  0  0  0  0  0  0  0  0  0  0
    8.5991   -2.9300    0.0000 H   0  0  0  0  0  0  0  0  0  0  0  0
    9.2191   -2.3100    0.0000 H   0  0  0  0  0  0  0  0  0  0  0  0
    3.8705    2.7151    0.0000 H   0  0  0  0  0  0  0  0  0  0  0  0
    4.6675    2.7151    0.0000 H   0  0  0  0  0  0  0  0  0  0  0  0
   10.5432    3.1074    0.0000 H   0  0  0  0  0  0  0  0  0  0  0  0
   10.9417    3.7977    0.0000 H   0  0  0  0  0  0  0  0  0  0  0  0
    9.7942   -7.0000    0.0000 H   0  0  0  0  0  0  0  0  0  0  0  0
   12.6002   -7.0000    0.0000 H   0  0  0  0  0  0  0  0  0  0  0  0
    5.4641    4.8800    0.0000 H   0  0  0  0  0  0  0  0  0  0  0  0
    7.1962   -1.1200    0.0000 H   0  0  0  0  0  0  0  0  0  0  0  0
    3.8015    4.1650    0.0000 H   0  0  0  0  0  0  0  0  0  0  0  0
    3.0044    4.1650    0.0000 H   0  0  0  0  0  0  0  0  0  0  0  0
    6.5380    5.8800    0.0000 H   0  0  0  0  0  0  0  0  0  0  0  0
    9.7942   -8.6200    0.0000 H   0  0  0  0  0  0  0  0  0  0  0  0
   12.6002   -8.6200    0.0000 H   0  0  0  0  0  0  0  0  0  0  0  0
    7.0791    6.1074    0.0000 H   0  0  0  0  0  0  0  0  0  0  0  0
    7.4776    6.7977    0.0000 H   0  0  0  0  0  0  0  0  0  0  0  0
   11.1972   -9.4300    0.0000 H   0  0  0  0  0  0  0  0  0  0  0  0
    2.0000    3.5000    0.0000 H   0  0  0  0  0  0  0  0  0  0  0  0
    2.5369    2.5700    0.0000 H   0  0  0  0  0  0  0  0  0  0  0  0
    3.7320    6.5000    0.0000 H   0  0  0  0  0  0  0  0  0  0  0  0
    4.2690    5.5700    0.0000 H   0  0  0  0  0  0  0  0  0  0  0  0
    7.7331    8.8100    0.0000 H   0  0  0  0  0  0  0  0  0  0  0  0
    8.2700    7.8800    0.0000 H   0  0  0  0  0  0  0  0  0  0  0  0
   11.7341    6.5000    0.0000 H   0  0  0  0  0  0  0  0  0  0  0  0
   10.6603    6.5000    0.0000 H   0  0  0  0  0  0  0  0  0  0  0  0
   12.6002    5.0000    0.0000 H   0  0  0  0  0  0  0  0  0  0  0  0
   12.0632    4.0700    0.0000 H   0  0  0  0  0  0  0  0  0  0  0  0
  1 34  2  0  0  0  0
  2 35  2  0  0  0  0
  3 40  2  0  0  0  0
  4 44  2  0  0  0  0
  5 47  2  0  0  0  0
  6 55  2  0  0  0  0
  7 56  2  0  0  0  0
 58  8  1  1  0  0  0
  8155  1  0  0  0  0
  9 63  2  0  0  0  0
 10 65  2  0  0  0  0
 11 70  2  0  0  0  0
 12 81  2  0  0  0  0
 13 82  2  0  0  0  0
 14 30  1  0  0  0  0
 14 33  1  0  0  0  0
 14 35  1  0  0  0  0
 15 34  1  0  0  0  0
 36 15  1  1  0  0  0
 15 91  1  0  0  0  0
 38 16  1  6  0  0  0
 16 40  1  0  0  0  0
 16 99  1  0  0  0  0
 41 17  1  1  0  0  0
 17 44  1  0  0  0  0
 17104  1  0  0  0  0
 46 18  1  1  0  0  0
 18 47  1  0  0  0  0
 18114  1  0  0  0  0
 45 19  1  6  0  0  0
 19 55  1  0  0  0  0
 19122  1  0  0  0  0
 53 20  1  1  0  0  0
 20 56  1  0  0  0  0
 20126  1  0  0  0  0
 57 21  1  6  0  0  0
 21 63  1  0  0  0  0
 21137  1  0  0  0  0
 62 22  1  1  0  0  0
 22 65  1  0  0  0  0
 22140  1  0  0  0  0
 23 70  1  0  0  0  0
 76 23  1  6  0  0  0
 23154  1  0  0  0  0
 24 72  1  0  0  0  0
 24 83  2  0  0  0  0
 25 75  1  0  0  0  0
 25164  1  0  0  0  0
 25165  1  0  0  0  0
 26 81  1  0  0  0  0
 26166  1  0  0  0  0
 26167  1  0  0  0  0
 27 82  1  0  0  0  0
 27168  1  0  0  0  0
 27169  1  0  0  0  0
 28 83  1  0  0  0  0
 28170  1  0  0  0  0
 28171  1  0  0  0  0
 29 83  1  0  0  0  0
 29172  1  0  0  0  0
 29173  1  0  0  0  0
 30 31  1  0  0  0  0
 30 34  1  1  0  0  0
 30 84  1  0  0  0  0
 31 32  1  0  0  0  0
 31 85  1  0  0  0  0
 31 86  1  0  0  0  0
 32 33  1  0  0  0  0
 32 87  1  0  0  0  0
 32 88  1  0  0  0  0
 33 89  1  0  0  0  0
 33 90  1  0  0  0  0
 35 37  1  0  0  0  0
 36 40  1  0  0  0  0
 36 42  1  0  0  0  0
 36 92  1  0  0  0  0
 37 93  1  0  0  0  0
 37 94  1  0  0  0  0
 37 95  1  0  0  0  0
 38 39  1  0  0  0  0
 38 44  1  0  0  0  0
 38 96  1  0  0  0  0
 39 49  1  0  0  0  0
 39 50  1  0  0  0  0
 39 97  1  0  0  0  0
 41 43  1  0  0  0  0
 41 47  1  0  0  0  0
 41 98  1  0  0  0  0
 42100  1  0  0  0  0
 42101  1  0  0  0  0
 42102  1  0  0  0  0
 43 51  1  0  0  0  0
 43 52  1  0  0  0  0
 43103  1  0  0  0  0
 45 48  1  0  0  0  0
 45 56  1  0  0  0  0
 45105  1  0  0  0  0
 46 54  1  0  0  0  0
 46 55  1  0  0  0  0
 46106  1  0  0  0  0
 48 59  1  0  0  0  0
 48 60  1  0  0  0  0
 48107  1  0  0  0  0
 49108  1  0  0  0  0
 49109  1  0  0  0  0
 49110  1  0  0  0  0
 50111  1  0  0  0  0
 50112  1  0  0  0  0
 50113  1  0  0  0  0
 51115  1  0  0  0  0
 51116  1  0  0  0  0
 51117  1  0  0  0  0
 52118  1  0  0  0  0
 52119  1  0  0  0  0
 52120  1  0  0  0  0
 53 58  1  0  0  0  0
 53 63  1  0  0  0  0
 53121  1  0  0  0  0
 54 66  1  0  0  0  0
 54123  1  0  0  0  0
 54124  1  0  0  0  0
 57 61  1  0  0  0  0
 57 65  1  0  0  0  0
 57125  1  0  0  0  0
 58 69  1  0  0  0  0
 58127  1  0  0  0  0
 59128  1  0  0  0  0
 59129  1  0  0  0  0
 59130  1  0  0  0  0
 60131  1  0  0  0  0
 60132  1  0  0  0  0
 60133  1  0  0  0  0
 61 67  1  0  0  0  0
 61134  1  0  0  0  0
 61135  1  0  0  0  0
 62 64  1  0  0  0  0
 62 70  1  0  0  0  0
 62136  1  0  0  0  0
 64 68  1  0  0  0  0
 64138  1  0  0  0  0
 64139  1  0  0  0  0
 66 73  2  0  0  0  0
 66 74  1  0  0  0  0
 67 72  1  0  0  0  0
 67141  1  0  0  0  0
 67142  1  0  0  0  0
 68 71  1  0  0  0  0
 68143  1  0  0  0  0
 68144  1  0  0  0  0
 69145  1  0  0  0  0
 69146  1  0  0  0  0
 69147  1  0  0  0  0
 71 75  1  0  0  0  0
 71148  1  0  0  0  0
 71149  1  0  0  0  0
 72150  1  0  0  0  0
 72151  1  0  0  0  0
 73 77  1  0  0  0  0
 73152  1  0  0  0  0
 74 78  2  0  0  0  0
 74153  1  0  0  0  0
 75156  1  0  0  0  0
 75157  1  0  0  0  0
 76 79  1  0  0  0  0
 76 81  1  0  0  0  0
 76158  1  0  0  0  0
 77 80  2  0  0  0  0
 77159  1  0  0  0  0
 78 80  1  0  0  0  0
 78160  1  0  0  0  0
 79 82  1  0  0  0  0
 79161  1  0  0  0  0
 79162  1  0  0  0  0
 80163  1  0  0  0  0
M  END
> <PUBCHEM_COMPOUND_CID>
505362
> <PUBCHEM_COMPOUND_CANONICALIZED>
1
> <PUBCHEM_CACTVS_COMPLEXITY>
2270
> <PUBCHEM_CACTVS_HBOND_ACCEPTOR>
15
> <PUBCHEM_CACTVS_HBOND_DONOR>
15
> <PUBCHEM_CACTVS_ROTATABLE_BOND>
35
> <PUBCHEM_CACTVS_SUBSKEYS>
AAADcfB//AAAAAAAAAAAAAAAAAAAAWAAAAAwAAAAAAAAAAABAAAAHgAQCAAADTzhmAYzAIPAAgCoAiFSNAACAAEgAAAIiIGIAIgKcD6A0TGUYAAitgCYiAcdiYCOAAAAAAAAAAAAAAAAAAAAAAAAAAAAAA==
> <PUBCHEM_IUPAC_OPENEYE_NAME>
(2S)-2-[[(2S)-2-[[(2S)-2-[[(2S,3R)-2-[[(2S)-2-[[(2S)-2-[[(2S)-2-[[(2S)-2-[[(2S)-2-[[(2S)-1-acetylpyrrolidine-2-carbonyl]amino]propanoyl]amino]-3-methyl-butanoyl]amino]-3-methyl-butanoyl]amino]-3-phenyl-propanoyl]amino]-3-methyl-butanoyl]amino]-3-hydroxy-butanoyl]amino]-5-guanidino-pentanoyl]amino]-6-amino-hexanoyl]amino]butanediamide
> <PUBCHEM_IUPAC_CAS_NAME>
(2S)-2-[[(2S)-2-[[(2S)-2-[[(2S,3R)-2-[[(2S)-2-[[(2S)-2-[[(2S)-2-[[(2S)-2-[[(2S)-2-[[[(2S)-1-acetyl-2-pyrrolidinyl]-oxomethyl]amino]-1-oxopropyl]amino]-3-methyl-1-oxobutyl]amino]-3-methyl-1-oxobutyl]amino]-1-oxo-3-phenylpropyl]amino]-3-methyl-1-oxobutyl]amino]-3-hydroxy-1-oxobutyl]amino]-5-(diaminomethylideneamino)-1-oxopentyl]amino]-6-amino-1-oxohexyl]amino]butanediamide
> <PUBCHEM_IUPAC_NAME_MARKUP>
(2<I>S</I>)-2-[[(2<I>S</I>)-2-[[(2<I>S</I>)-2-[[(2<I>S</I>,3<I>R</I>)-2-[[(2<I>S</I>)-2-[[(2<I>S</I>)-2-[[(2<I>S</I>)-2-[[(2<I>S</I>)-2-[[(2<I>S</I>)-2-[[(2<I>S</I>)-1-acetylpyrrolidine-2-carbonyl]amino]propanoyl]amino]-3-methylbutanoyl]amino]-3-methylbutanoyl]amino]-3-phenylpropanoyl]amino]-3-methylbutanoyl]amino]-3-hydroxybutanoyl]amino]-5-(diaminomethylideneamino)pentanoyl]amino]-6-aminohexanoyl]amino]butanediamide
> <PUBCHEM_IUPAC_NAME>
(2S)-2-[[(2S)-2-[[(2S)-2-[[(2S,3R)-2-[[(2S)-2-[[(2S)-2-[[(2S)-2-[[(2S)-2-[[(2S)-2-[[(2S)-1-acetylpyrrolidine-2-carbonyl]amino]propanoyl]amino]-3-methylbutanoyl]amino]-3-methylbutanoyl]amino]-3-phenylpropanoyl]amino]-3-methylbutanoyl]amino]-3-hydroxybutanoyl]amino]-5-(diaminomethylideneamino)pentanoyl]amino]-6-aminohexanoyl]amino]butanediamide
> <PUBCHEM_IUPAC_SYSTEMATIC_NAME>
(2S)-2-[[(2S)-6-azanyl-2-[[(2S)-5-[bis(azanyl)methylideneamino]-2-[[(2S,3R)-2-[[(2S)-2-[[(2S)-2-[[(2S)-2-[[(2S)-2-[[(2S)-2-[[(2S)-1-ethanoylpyrrolidin-2-yl]carbonylamino]propanoyl]amino]-3-methyl-butanoyl]amino]-3-methyl-butanoyl]amino]-3-phenyl-propanoyl]amino]-3-methyl-butanoyl]amino]-3-oxidanyl-butanoyl]amino]pentanoyl]amino]hexanoyl]amino]butanediamide
> <PUBCHEM_IUPAC_TRADITIONAL_NAME>
(2S)-2-[[(2S)-2-[[(2S)-2-[[(2S,3R)-2-[[(2S)-2-[[(2S)-2-[[(2S)-2-[[(2S)-2-[[(2S)-2-[[(2S)-1-acetylprolyl]amino]propanoyl]amino]-3-methyl-butanoyl]amino]-3-methyl-butanoyl]amino]-3-phenyl-propanoyl]amino]-3-methyl-butanoyl]amino]-3-hydroxy-butanoyl]amino]-5-guanidino-pentanoyl]amino]-6-amino-hexanoyl]amino]succinamide
> <PUBCHEM_IUPAC_INCHI>
InChI=1S/C54H90N16O13/c1-27(2)40(68-51(81)41(28(3)4)66-45(75)30(7)61-49(79)38-21-16-24-70(38)32(9)72)50(80)65-37(25-33-17-11-10-12-18-33)48(78)67-42(29(5)6)52(82)69-43(31(8)71)53(83)63-35(20-15-23-60-54(58)59)46(76)62-34(19-13-14-22-55)47(77)64-36(44(57)74)26-39(56)73/h10-12,17-18,27-31,34-38,40-43,71H,13-16,19-26,55H2,1-9H3,(H2,56,73)(H2,57,74)(H,61,79)(H,62,76)(H,63,83)(H,64,77)(H,65,80)(H,66,75)(H,67,78)(H,68,81)(H,69,82)(H4,58,59,60)/t30-,31+,34-,35-,36-,37-,38-,40-,41-,42-,43-/m0/s1
> <PUBCHEM_IUPAC_INCHIKEY>
XSWKRSABEBUFIY-BGAKPTBYSA-N
> <PUBCHEM_XLOGP3_AA>
-2.2
> <PUBCHEM_EXACT_MASS>
1170.68732699
> <PUBCHEM_MOLECULAR_FORMULA>
C54H90N16O13
> <PUBCHEM_MOLECULAR_WEIGHT>
1171.4
> <PUBCHEM_OPENEYE_CAN_SMILES>
CC(C)C(C(=O)NC(C(C)C)C(=O)NC(CC1=CC=CC=C1)C(=O)NC(C(C)C)C(=O)NC(C(C)O)C(=O)NC(CCCN=C(N)N)C(=O)NC(CCCCN)C(=O)NC(CC(=O)N)C(=O)N)NC(=O)C(C)NC(=O)C2CCCN2C(=O)C
> <PUBCHEM_OPENEYE_ISO_SMILES>
C[C@H]([C@@H](C(=O)N[C@@H](CCCN=C(N)N)C(=O)N[C@@H](CCCCN)C(=O)N[C@@H](CC(=O)N)C(=O)N)NC(=O)[C@H](C(C)C)NC(=O)[C@H](CC1=CC=CC=C1)NC(=O)[C@H](C(C)C)NC(=O)[C@H](C(C)C)NC(=O)[C@H](C)NC(=O)[C@@H]2CCCN2C(=O)C)O
> <PUBCHEM_CACTVS_TPSA>
479
> <PUBCHEM_MONOISOTOPIC_WEIGHT>
1170.68732699
> <PUBCHEM_TOTAL_CHARGE>
0
> <PUBCHEM_HEAVY_ATOM_COUNT>
83
> <PUBCHEM_ATOM_DEF_STEREO_COUNT>
11
> <PUBCHEM_ATOM_UDEF_STEREO_COUNT>
0
> <PUBCHEM_BOND_DEF_STEREO_COUNT>
0
> <PUBCHEM_BOND_UDEF_STEREO_COUNT>
0
> <PUBCHEM_ISOTOPIC_ATOM_COUNT>
0
> <PUBCHEM_COMPONENT_COUNT>
1
> <PUBCHEM_CACTVS_TAUTO_COUNT>
-1
> <PUBCHEM_COORDINATE_TYPE>
1
5
255
> <PUBCHEM_BONDANNOTATIONS>
36  15  5
38  16  6
41  17  5
46  18  5
45  19  6
53  20  5
57  21  6
62  22  5
76  23  6
30  34  5
66  73  8
66  74  8
73  77  8
74  78  8
77  80  8
78  80  8
58  8  5
$$$$
