505372
  -OEChem-10302200282D
119124  0     1  0  0  0  0  0999 V2000
    7.9288   -2.8647    0.0000 O   0  0  0  0  0  0  0  0  0  0  0  0
    9.1857   -3.1200    0.0000 O   0  0  0  0  0  0  0  0  0  0  0  0
    6.1847   -4.9340    0.0000 O   0  0  0  0  0  0  0  0  0  0  0  0
    4.3472   -4.9629    0.0000 O   0  0  0  0  0  0  0  0  0  0  0  0
    2.5357   -3.9170    0.0000 O   0  0  0  0  0  0  0  0  0  0  0  0
   13.0532    3.8608    0.0000 O   0  0  0  0  0  0  0  0  0  0  0  0
   14.3424    5.0175    0.0000 O   0  0  0  0  0  0  0  0  0  0  0  0
   14.3889    2.3722    0.0000 O   0  0  0  0  0  0  0  0  0  0  0  0
   16.3459    2.7846    0.0000 O   0  0  0  0  0  0  0  0  0  0  0  0
   16.9672    4.6856    0.0000 O   0  0  0  0  0  0  0  0  0  0  0  0
   16.0352    1.8341    0.0000 O   0  0  0  0  0  0  0  0  0  0  0  0
   13.7676    0.4711    0.0000 O   0  0  0  0  0  0  0  0  0  0  0  0
   15.1033   -1.0175    0.0000 O   0  0  0  0  0  0  0  0  0  0  0  0
   17.0603   -0.6051    0.0000 O   0  0  0  0  0  0  0  0  0  0  0  0
    7.0628   -2.3647    0.0000 C   0  0  2  0  0  0  0  0  0  0  0  0
    7.9288   -1.8647    0.0000 C   0  0  1  0  0  0  0  0  0  0  0  0
    7.9288   -0.8647    0.0000 C   0  0  1  0  0  0  0  0  0  0  0  0
    6.1968   -1.8647    0.0000 C   0  0  1  0  0  0  0  0  0  0  0  0
    5.2868   -2.3716    0.0000 C   0  0  2  0  0  0  0  0  0  0  0  0
    8.8750   -0.5600    0.0000 C   0  0  2  0  0  0  0  0  0  0  0  0
    5.2787   -3.4132    0.0000 C   0  0  1  0  0  0  0  0  0  0  0  0
    7.0628   -0.3647    0.0000 C   0  0  0  0  0  0  0  0  0  0  0  0
    6.1968   -0.8647    0.0000 C   0  0  0  0  0  0  0  0  0  0  0  0
    8.8750   -2.1694    0.0000 C   0  0  1  0  0  0  0  0  0  0  0  0
    7.0789   -3.4062    0.0000 C   0  0  0  0  0  0  0  0  0  0  0  0
    9.4586   -1.3647    0.0000 C   0  0  0  0  0  0  0  0  0  0  0  0
    6.1808   -3.9340    0.0000 C   0  0  2  0  0  0  0  0  0  0  0  0
    4.3599   -1.8075    0.0000 C   0  0  0  0  0  0  0  0  0  0  0  0
    7.9288    0.1353    0.0000 C   0  0  0  0  0  0  0  0  0  0  0  0
    4.3433   -3.9629    0.0000 C   0  0  2  0  0  0  0  0  0  0  0  0
    9.1857    0.3905    0.0000 C   0  0  1  0  0  0  0  0  0  0  0  0
    5.2945   -1.3716    0.0000 C   0  0  0  0  0  0  0  0  0  0  0  0
    3.4120   -2.3354    0.0000 C   0  0  0  0  0  0  0  0  0  0  0  0
    3.4037   -3.4204    0.0000 C   0  0  2  0  0  0  0  0  0  0  0  0
   10.1642    0.5968    0.0000 C   0  0  0  0  0  0  0  0  0  0  0  0
    8.5179    1.1348    0.0000 C   0  0  0  0  0  0  0  0  0  0  0  0
   10.4749    1.5473    0.0000 C   0  0  0  0  0  0  0  0  0  0  0  0
   11.4534    1.7535    0.0000 C   0  0  0  0  0  0  0  0  0  0  0  0
   11.7640    2.7040    0.0000 C   0  0  3  0  0  0  0  0  0  0  0  0
   12.1212    1.0092    0.0000 C   0  0  0  0  0  0  0  0  0  0  0  0
   12.7425    2.9102    0.0000 C   0  0  0  0  0  0  0  0  0  0  0  0
   11.0962    3.4483    0.0000 C   0  0  0  0  0  0  0  0  0  0  0  0
   14.0317    4.0670    0.0000 C   0  0  2  0  0  0  0  0  0  0  0  0
   14.6996    3.3227    0.0000 C   0  0  1  0  0  0  0  0  0  0  0  0
   15.6781    3.5289    0.0000 C   0  0  2  0  0  0  0  0  0  0  0  0
   15.9887    4.4794    0.0000 C   0  0  1  0  0  0  0  0  0  0  0  0
   15.3209    5.2237    0.0000 C   0  0  0  0  0  0  0  0  0  0  0  0
   15.0567    1.6278    0.0000 C   0  0  2  0  0  0  0  0  0  0  0  0
   14.7461    0.6773    0.0000 C   0  0  1  0  0  0  0  0  0  0  0  0
   15.4139   -0.0670    0.0000 C   0  0  2  0  0  0  0  0  0  0  0  0
   16.3924    0.1392    0.0000 C   0  0  1  0  0  0  0  0  0  0  0  0
   16.7031    1.0898    0.0000 C   0  0  0  0  0  0  0  0  0  0  0  0
   13.4569   -0.4794    0.0000 C   0  0  0  0  0  0  0  0  0  0  0  0
    8.6158   -1.3642    0.0000 H   0  0  0  0  0  0  0  0  0  0  0  0
    6.9329   -1.4397    0.0000 H   0  0  0  0  0  0  0  0  0  0  0  0
    9.7148   -0.4281    0.0000 H   0  0  0  0  0  0  0  0  0  0  0  0
    5.2820   -4.2632    0.0000 H   0  0  0  0  0  0  0  0  0  0  0  0
    7.4613    0.1102    0.0000 H   0  0  0  0  0  0  0  0  0  0  0  0
    6.6643    0.1102    0.0000 H   0  0  0  0  0  0  0  0  0  0  0  0
    5.9847   -0.2821    0.0000 H   0  0  0  0  0  0  0  0  0  0  0  0
    5.5862   -0.9724    0.0000 H   0  0  0  0  0  0  0  0  0  0  0  0
    9.4875   -2.2656    0.0000 H   0  0  0  0  0  0  0  0  0  0  0  0
    7.2969   -3.9866    0.0000 H   0  0  0  0  0  0  0  0  0  0  0  0
    7.6880   -3.2907    0.0000 H   0  0  0  0  0  0  0  0  0  0  0  0
    9.9195   -1.7794    0.0000 H   0  0  0  0  0  0  0  0  0  0  0  0
    9.9195   -0.9500    0.0000 H   0  0  0  0  0  0  0  0  0  0  0  0
    6.7195   -4.2409    0.0000 H   0  0  0  0  0  0  0  0  0  0  0  0
    4.7681   -1.3408    0.0000 H   0  0  0  0  0  0  0  0  0  0  0  0
    3.9700   -1.3254    0.0000 H   0  0  0  0  0  0  0  0  0  0  0  0
    8.5488    0.1353    0.0000 H   0  0  0  0  0  0  0  0  0  0  0  0
    7.9288    0.7553    0.0000 H   0  0  0  0  0  0  0  0  0  0  0  0
    7.3088    0.1353    0.0000 H   0  0  0  0  0  0  0  0  0  0  0  0
    3.8070   -4.2739    0.0000 H   0  0  0  0  0  0  0  0  0  0  0  0
    9.3783    0.9799    0.0000 H   0  0  0  0  0  0  0  0  0  0  0  0
    5.9145   -1.3764    0.0000 H   0  0  0  0  0  0  0  0  0  0  0  0
    5.2993   -0.7516    0.0000 H   0  0  0  0  0  0  0  0  0  0  0  0
    4.6745   -1.3668    0.0000 H   0  0  0  0  0  0  0  0  0  0  0  0
    3.2075   -1.7501    0.0000 H   0  0  0  0  0  0  0  0  0  0  0  0
    2.8004   -2.4368    0.0000 H   0  0  0  0  0  0  0  0  0  0  0  0
    2.8686   -3.1073    0.0000 H   0  0  0  0  0  0  0  0  0  0  0  0
    7.9288   -3.4847    0.0000 H   0  0  0  0  0  0  0  0  0  0  0  0
    9.7924   -3.2478    0.0000 H   0  0  0  0  0  0  0  0  0  0  0  0
   10.1848   -0.0229    0.0000 H   0  0  0  0  0  0  0  0  0  0  0  0
   10.7780    0.5094    0.0000 H   0  0  0  0  0  0  0  0  0  0  0  0
    8.9793    1.5489    0.0000 H   0  0  0  0  0  0  0  0  0  0  0  0
    8.1038    1.5963    0.0000 H   0  0  0  0  0  0  0  0  0  0  0  0
    8.0564    0.7208    0.0000 H   0  0  0  0  0  0  0  0  0  0  0  0
    6.7228   -5.2419    0.0000 H   0  0  0  0  0  0  0  0  0  0  0  0
    3.8114   -5.2749    0.0000 H   0  0  0  0  0  0  0  0  0  0  0  0
    2.0000   -3.6050    0.0000 H   0  0  0  0  0  0  0  0  0  0  0  0
   10.4543    2.1669    0.0000 H   0  0  0  0  0  0  0  0  0  0  0  0
    9.8611    1.6346    0.0000 H   0  0  0  0  0  0  0  0  0  0  0  0
   11.9567    3.2933    0.0000 H   0  0  0  0  0  0  0  0  0  0  0  0
   11.9286    0.4199    0.0000 H   0  0  0  0  0  0  0  0  0  0  0  0
   12.7279    1.1370    0.0000 H   0  0  0  0  0  0  0  0  0  0  0  0
   12.7631    2.2906    0.0000 H   0  0  0  0  0  0  0  0  0  0  0  0
   13.3564    2.8229    0.0000 H   0  0  0  0  0  0  0  0  0  0  0  0
   11.5577    3.8624    0.0000 H   0  0  0  0  0  0  0  0  0  0  0  0
   10.6821    3.9098    0.0000 H   0  0  0  0  0  0  0  0  0  0  0  0
   10.6347    3.0342    0.0000 H   0  0  0  0  0  0  0  0  0  0  0  0
   13.8391    3.4776    0.0000 H   0  0  0  0  0  0  0  0  0  0  0  0
   15.1136    2.8612    0.0000 H   0  0  0  0  0  0  0  0  0  0  0  0
   16.2847    3.6567    0.0000 H   0  0  0  0  0  0  0  0  0  0  0  0
   16.1813    5.0687    0.0000 H   0  0  0  0  0  0  0  0  0  0  0  0
   15.8472    5.5514    0.0000 H   0  0  0  0  0  0  0  0  0  0  0  0
   15.0896    5.7990    0.0000 H   0  0  0  0  0  0  0  0  0  0  0  0
   15.2493    2.2172    0.0000 H   0  0  0  0  0  0  0  0  0  0  0  0
   16.9526    2.9124    0.0000 H   0  0  0  0  0  0  0  0  0  0  0  0
   14.5535    0.0880    0.0000 H   0  0  0  0  0  0  0  0  0  0  0  0
   17.1598    5.2749    0.0000 H   0  0  0  0  0  0  0  0  0  0  0  0
   15.8280   -0.5284    0.0000 H   0  0  0  0  0  0  0  0  0  0  0  0
   16.9991    0.2671    0.0000 H   0  0  0  0  0  0  0  0  0  0  0  0
   17.2500    0.7977    0.0000 H   0  0  0  0  0  0  0  0  0  0  0  0
   17.0856    1.5777    0.0000 H   0  0  0  0  0  0  0  0  0  0  0  0
   15.5173   -1.4790    0.0000 H   0  0  0  0  0  0  0  0  0  0  0  0
   17.6669   -0.4772    0.0000 H   0  0  0  0  0  0  0  0  0  0  0  0
   12.8676   -0.2868    0.0000 H   0  0  0  0  0  0  0  0  0  0  0  0
   13.2643   -1.0687    0.0000 H   0  0  0  0  0  0  0  0  0  0  0  0
   14.0462   -0.6720    0.0000 H   0  0  0  0  0  0  0  0  0  0  0  0
 15  1  1  1  0  0  0
  1 81  1  0  0  0  0
 24  2  1  1  0  0  0
  2 82  1  0  0  0  0
 27  3  1  6  0  0  0
  3 88  1  0  0  0  0
 30  4  1  1  0  0  0
  4 89  1  0  0  0  0
 34  5  1  1  0  0  0
  5 90  1  0  0  0  0
  6 41  1  0  0  0  0
 43  6  1  6  0  0  0
  7 43  1  0  0  0  0
  7 47  1  0  0  0  0
 44  8  1  1  0  0  0
 48  8  1  6  0  0  0
 45  9  1  6  0  0  0
  9108  1  0  0  0  0
 46 10  1  1  0  0  0
 10110  1  0  0  0  0
 11 48  1  0  0  0  0
 11 52  1  0  0  0  0
 49 12  1  1  0  0  0
 12 53  1  0  0  0  0
 50 13  1  6  0  0  0
 13115  1  0  0  0  0
 51 14  1  1  0  0  0
 14116  1  0  0  0  0
 15 16  1  0  0  0  0
 15 18  1  0  0  0  0
 15 25  1  0  0  0  0
 16 17  1  0  0  0  0
 16 24  1  0  0  0  0
 16 54  1  6  0  0  0
 17 20  1  0  0  0  0
 17 22  1  0  0  0  0
 17 29  1  1  0  0  0
 18 19  1  0  0  0  0
 18 23  1  0  0  0  0
 18 55  1  6  0  0  0
 19 21  1  0  0  0  0
 19 28  1  0  0  0  0
 19 32  1  1  0  0  0
 20 26  1  0  0  0  0
 20 31  1  0  0  0  0
 20 56  1  6  0  0  0
 21 27  1  0  0  0  0
 21 30  1  0  0  0  0
 21 57  1  6  0  0  0
 22 23  1  0  0  0  0
 22 58  1  0  0  0  0
 22 59  1  0  0  0  0
 23 60  1  0  0  0  0
 23 61  1  0  0  0  0
 24 26  1  0  0  0  0
 24 62  1  0  0  0  0
 25 27  1  0  0  0  0
 25 63  1  0  0  0  0
 25 64  1  0  0  0  0
 26 65  1  0  0  0  0
 26 66  1  0  0  0  0
 27 67  1  0  0  0  0
 28 33  1  0  0  0  0
 28 68  1  0  0  0  0
 28 69  1  0  0  0  0
 29 70  1  0  0  0  0
 29 71  1  0  0  0  0
 29 72  1  0  0  0  0
 30 34  1  0  0  0  0
 30 73  1  0  0  0  0
 31 35  1  0  0  0  0
 31 36  1  6  0  0  0
 31 74  1  0  0  0  0
 32 75  1  0  0  0  0
 32 76  1  0  0  0  0
 32 77  1  0  0  0  0
 33 34  1  0  0  0  0
 33 78  1  0  0  0  0
 33 79  1  0  0  0  0
 34 80  1  0  0  0  0
 35 37  1  0  0  0  0
 35 83  1  0  0  0  0
 35 84  1  0  0  0  0
 36 85  1  0  0  0  0
 36 86  1  0  0  0  0
 36 87  1  0  0  0  0
 37 38  1  0  0  0  0
 37 91  1  0  0  0  0
 37 92  1  0  0  0  0
 38 39  1  0  0  0  0
 38 40  2  0  0  0  0
 39 41  1  0  0  0  0
 39 42  1  0  0  0  0
 39 93  1  0  0  0  0
 40 94  1  0  0  0  0
 40 95  1  0  0  0  0
 41 96  1  0  0  0  0
 41 97  1  0  0  0  0
 42 98  1  0  0  0  0
 42 99  1  0  0  0  0
 42100  1  0  0  0  0
 43 44  1  0  0  0  0
 43101  1  0  0  0  0
 44 45  1  0  0  0  0
 44102  1  0  0  0  0
 45 46  1  0  0  0  0
 45103  1  0  0  0  0
 46 47  1  0  0  0  0
 46104  1  0  0  0  0
 47105  1  0  0  0  0
 47106  1  0  0  0  0
 48 49  1  0  0  0  0
 48107  1  0  0  0  0
 49 50  1  0  0  0  0
 49109  1  0  0  0  0
 50 51  1  0  0  0  0
 50111  1  0  0  0  0
 51 52  1  0  0  0  0
 51112  1  0  0  0  0
 52113  1  0  0  0  0
 52114  1  0  0  0  0
 53117  1  0  0  0  0
 53118  1  0  0  0  0
 53119  1  0  0  0  0
M  END
> <PUBCHEM_COMPOUND_CID>
505372
> <PUBCHEM_COMPOUND_CANONICALIZED>
1
> <PUBCHEM_CACTVS_COMPLEXITY>
1270
> <PUBCHEM_CACTVS_HBOND_ACCEPTOR>
14
> <PUBCHEM_CACTVS_HBOND_DONOR>
9
> <PUBCHEM_CACTVS_ROTATABLE_BOND>
11
> <PUBCHEM_CACTVS_SUBSKEYS>
AAADcfB8PAAAAAAAAAAAAAAAAAAAAYAAAAA0aMECAAAAAGDAAAAAGgAACAAAD1SwgAMCCAAABgCAAgBCAAAAAAAgAAAAAAAAAAgREAIAAQAiQAAFwAAHAAHA4PwPgAAAAAAAAADAAAYQADCAAYAADAAAAA==
> <PUBCHEM_IUPAC_OPENEYE_NAME>
(3S,4R,5S,6S,8S,9R,10S,13R,14S,15R,17R)-17-[(1R)-6-[(2R,3R,4S,5R)-3-[(2S,3R,4S,5R)-4,5-dihydroxy-3-methoxy-tetrahydropyran-2-yl]oxy-4,5-dihydroxy-tetrahydropyran-2-yl]oxy-1,5-dimethyl-4-methylene-hexyl]-10,13-dimethyl-1,2,3,4,5,6,7,9,11,12,14,15,16,17-tetradecahydrocyclopenta[a]phenanthrene-3,4,6,8,15-pentol
> <PUBCHEM_IUPAC_CAS_NAME>
(3S,4R,5S,6S,8S,9R,10S,13R,14S,15R,17R)-17-[(2R)-7-[[(2R,3R,4S,5R)-3-[[(2S,3R,4S,5R)-4,5-dihydroxy-3-methoxy-2-oxanyl]oxy]-4,5-dihydroxy-2-oxanyl]oxy]-6-methyl-5-methyleneheptan-2-yl]-10,13-dimethyl-1,2,3,4,5,6,7,9,11,12,14,15,16,17-tetradecahydrocyclopenta[a]phenanthrene-3,4,6,8,15-pentol
> <PUBCHEM_IUPAC_NAME_MARKUP>
(3<I>S</I>,4<I>R</I>,5<I>S</I>,6<I>S</I>,8<I>S</I>,9<I>R</I>,10<I>S</I>,13<I>R</I>,14<I>S</I>,15<I>R</I>,17<I>R</I>)-17-[(2<I>R</I>)-7-[(2<I>R</I>,3<I>R</I>,4<I>S</I>,5<I>R</I>)-3-[(2<I>S</I>,3<I>R</I>,4<I>S</I>,5<I>R</I>)-4,5-dihydroxy-3-methoxyoxan-2-yl]oxy-4,5-dihydroxyoxan-2-yl]oxy-6-methyl-5-methylideneheptan-2-yl]-10,13-dimethyl-1,2,3,4,5,6,7,9,11,12,14,15,16,17-tetradecahydrocyclopenta[a]phenanthrene-3,4,6,8,15-pentol
> <PUBCHEM_IUPAC_NAME>
(3S,4R,5S,6S,8S,9R,10S,13R,14S,15R,17R)-17-[(2R)-7-[(2R,3R,4S,5R)-3-[(2S,3R,4S,5R)-4,5-dihydroxy-3-methoxyoxan-2-yl]oxy-4,5-dihydroxyoxan-2-yl]oxy-6-methyl-5-methylideneheptan-2-yl]-10,13-dimethyl-1,2,3,4,5,6,7,9,11,12,14,15,16,17-tetradecahydrocyclopenta[a]phenanthrene-3,4,6,8,15-pentol
> <PUBCHEM_IUPAC_SYSTEMATIC_NAME>
(3S,4R,5S,6S,8S,9R,10S,13R,14S,15R,17R)-17-[(2R)-7-[(2R,3R,4S,5R)-3-[(2S,3R,4S,5R)-3-methoxy-4,5-bis(oxidanyl)oxan-2-yl]oxy-4,5-bis(oxidanyl)oxan-2-yl]oxy-6-methyl-5-methylidene-heptan-2-yl]-10,13-dimethyl-1,2,3,4,5,6,7,9,11,12,14,15,16,17-tetradecahydrocyclopenta[a]phenanthrene-3,4,6,8,15-pentol
> <PUBCHEM_IUPAC_TRADITIONAL_NAME>
(3S,4R,5S,6S,8S,9R,10S,13R,14S,15R,17R)-17-[(1R)-4-[2-[(2R,3R,4S,5R)-3-[(2S,3R,4S,5R)-4,5-dihydroxy-3-methoxy-tetrahydropyran-2-yl]oxy-4,5-dihydroxy-tetrahydropyran-2-yl]oxy-1-methyl-ethyl]-1-methyl-pent-4-enyl]-10,13-dimethyl-1,2,3,4,5,6,7,9,11,12,14,15,16,17-tetradecahydrocyclopenta[a]phenanthrene-3,4,6,8,15-pentol
> <PUBCHEM_IUPAC_INCHI>
InChI=1S/C39H66O14/c1-18(20(3)15-50-35-33(31(47)26(44)16-51-35)53-36-32(49-6)30(46)25(43)17-52-36)7-8-19(2)21-13-23(41)34-37(21,4)12-10-27-38(5)11-9-22(40)29(45)28(38)24(42)14-39(27,34)48/h19-36,40-48H,1,7-17H2,2-6H3/t19-,20?,21-,22+,23-,24+,25-,26-,27-,28+,29+,30+,31+,32-,33-,34-,35-,36+,37-,38-,39+/m1/s1
> <PUBCHEM_IUPAC_INCHIKEY>
MXKSWBGGFMZJOH-DRVGXLBBSA-N
> <PUBCHEM_XLOGP3_AA>
0.8
> <PUBCHEM_EXACT_MASS>
758.44525677
> <PUBCHEM_MOLECULAR_FORMULA>
C39H66O14
> <PUBCHEM_MOLECULAR_WEIGHT>
758.9
> <PUBCHEM_OPENEYE_CAN_SMILES>
CC(CCC(=C)C(C)COC1C(C(C(CO1)O)O)OC2C(C(C(CO2)O)O)OC)C3CC(C4C3(CCC5C4(CC(C6C5(CCC(C6O)O)C)O)O)C)O
> <PUBCHEM_OPENEYE_ISO_SMILES>
C[C@H](CCC(=C)C(C)CO[C@H]1[C@@H]([C@H]([C@@H](CO1)O)O)O[C@H]2[C@@H]([C@H]([C@@H](CO2)O)O)OC)[C@H]3C[C@H]([C@@H]4[C@@]3(CC[C@H]5[C@]4(C[C@@H]([C@@H]6[C@@]5(CC[C@@H]([C@@H]6O)O)C)O)O)C)O
> <PUBCHEM_CACTVS_TPSA>
228
> <PUBCHEM_MONOISOTOPIC_WEIGHT>
758.44525677
> <PUBCHEM_TOTAL_CHARGE>
0
> <PUBCHEM_HEAVY_ATOM_COUNT>
53
> <PUBCHEM_ATOM_DEF_STEREO_COUNT>
20
> <PUBCHEM_ATOM_UDEF_STEREO_COUNT>
1
> <PUBCHEM_BOND_DEF_STEREO_COUNT>
0
> <PUBCHEM_BOND_UDEF_STEREO_COUNT>
0
> <PUBCHEM_ISOTOPIC_ATOM_COUNT>
0
> <PUBCHEM_COMPONENT_COUNT>
1
> <PUBCHEM_CACTVS_TAUTO_COUNT>
-1
> <PUBCHEM_COORDINATE_TYPE>
1
5
255
> <PUBCHEM_BONDANNOTATIONS>
15  1  5
46  10  5
49  12  5
50  13  6
51  14  5
16  54  6
17  29  5
18  55  6
19  32  5
24  2  5
20  56  6
21  57  6
27  3  6
31  36  6
39  42  3
30  4  5
34  5  5
43  6  6
44  8  5
48  8  6
45  9  6
$$$$
