505370
  -OEChem-10302200282D
156155  0     1  0  0  0  0  0999 V2000
   15.5273    6.9050    0.0000 O   0  0  0  0  0  0  0  0  0  0  0  0
    8.5991    2.9050    0.0000 O   0  0  0  0  0  0  0  0  0  0  0  0
   12.0632    3.9050    0.0000 O   0  0  0  0  0  0  0  0  0  0  0  0
   12.9292    4.4050    0.0000 O   0  0  0  0  0  0  0  0  0  0  0  0
   18.1254    4.4050    0.0000 O   0  0  0  0  0  0  0  0  0  0  0  0
    9.4651   -0.5950    0.0000 O   0  0  0  0  0  0  0  0  0  0  0  0
    6.0010   -1.5950    0.0000 O   0  0  0  0  0  0  0  0  0  0  0  0
   11.1972    8.4050    0.0000 O   0  0  0  0  0  0  0  0  0  0  0  0
   10.3312    6.9050    0.0000 O   0  0  0  0  0  0  0  0  0  0  0  0
   20.7235    6.9050    0.0000 O   0  0  0  0  0  0  0  0  0  0  0  0
    6.8671   -5.0950    0.0000 O   0  0  0  0  0  0  0  0  0  0  0  0
    8.5991   -6.0950    0.0000 O   0  0  0  0  0  0  0  0  0  0  0  0
    9.4651   -4.5950    0.0000 O   0  0  0  0  0  0  0  0  0  0  0  0
    3.4030   -6.0950    0.0000 O   0  0  0  0  0  0  0  0  0  0  0  0
   16.3933    5.4050    0.0000 N   0  0  0  0  0  0  0  0  0  0  0  0
   13.7953    5.9050    0.0000 N   0  0  0  0  0  0  0  0  0  0  0  0
   10.3312    2.9050    0.0000 N   0  0  0  0  0  0  0  0  0  0  0  0
    8.5991    0.9050    0.0000 N   0  0  0  0  0  0  0  0  0  0  0  0
   11.1972    5.4050    0.0000 N   0  0  0  0  0  0  0  0  0  0  0  0
    7.7331   -1.5950    0.0000 N   0  0  0  0  0  0  0  0  0  0  0  0
   18.9914    5.9050    0.0000 N   0  0  0  0  0  0  0  0  0  0  0  0
    6.0010   -3.5950    0.0000 N   0  0  0  0  0  0  0  0  0  0  0  0
    4.2690   -0.5950    0.0000 N   0  0  0  0  0  0  0  0  0  0  0  0
   21.5895    5.4050    0.0000 N   0  0  0  0  0  0  0  0  0  0  0  0
    5.1350   -6.0950    0.0000 N   0  0  0  0  0  0  0  0  0  0  0  0
    2.5369   -0.5950    0.0000 N   0  0  0  0  0  0  0  0  0  0  0  0
    3.4030    0.9050    0.0000 N   0  0  0  0  0  0  0  0  0  0  0  0
    3.4030   -8.0950    0.0000 N   0  0  0  0  0  0  0  0  0  0  0  0
   14.6613    5.4050    0.0000 C   0  0  1  0  0  0  0  0  0  0  0  0
   14.6613    4.4050    0.0000 C   0  0  2  0  0  0  0  0  0  0  0  0
    9.4651    1.4050    0.0000 C   0  0  1  0  0  0  0  0  0  0  0  0
   10.3312    0.9050    0.0000 C   0  0  2  0  0  0  0  0  0  0  0  0
   17.2594    5.9050    0.0000 C   0  0  1  0  0  0  0  0  0  0  0  0
   17.2594    6.9050    0.0000 C   0  0  2  0  0  0  0  0  0  0  0  0
   10.3312    3.9050    0.0000 C   0  0  1  0  0  0  0  0  0  0  0  0
    9.4651    4.4050    0.0000 C   0  0  0  0  0  0  0  0  0  0  0  0
   13.7953    3.9050    0.0000 C   0  0  0  0  0  0  0  0  0  0  0  0
   15.5273    5.9050    0.0000 C   0  0  0  0  0  0  0  0  0  0  0  0
   10.3312   -0.0950    0.0000 C   0  0  0  0  0  0  0  0  0  0  0  0
    9.4651    2.4050    0.0000 C   0  0  0  0  0  0  0  0  0  0  0  0
   12.0632    5.9050    0.0000 C   0  0  2  0  0  0  0  0  0  0  0  0
   18.1254    7.4050    0.0000 C   0  0  0  0  0  0  0  0  0  0  0  0
   15.5273    3.9050    0.0000 C   0  0  0  0  0  0  0  0  0  0  0  0
   11.1972    1.4050    0.0000 C   0  0  0  0  0  0  0  0  0  0  0  0
   11.1972    4.4050    0.0000 C   0  0  0  0  0  0  0  0  0  0  0  0
    7.7331   -0.5950    0.0000 C   0  0  2  0  0  0  0  0  0  0  0  0
   12.9292    5.4050    0.0000 C   0  0  0  0  0  0  0  0  0  0  0  0
   16.3933    7.4050    0.0000 C   0  0  0  0  0  0  0  0  0  0  0  0
   18.1254    5.4050    0.0000 C   0  0  0  0  0  0  0  0  0  0  0  0
    8.5991   -0.0950    0.0000 C   0  0  0  0  0  0  0  0  0  0  0  0
    8.5991    3.9050    0.0000 C   0  0  0  0  0  0  0  0  0  0  0  0
    9.4651    5.4050    0.0000 C   0  0  0  0  0  0  0  0  0  0  0  0
    6.8671   -0.0950    0.0000 C   0  0  0  0  0  0  0  0  0  0  0  0
   13.7953    2.9050    0.0000 C   0  0  0  0  0  0  0  0  0  0  0  0
   11.1972   -0.5950    0.0000 C   0  0  0  0  0  0  0  0  0  0  0  0
   12.0632    6.9050    0.0000 C   0  0  0  0  0  0  0  0  0  0  0  0
   18.1254    8.4050    0.0000 C   0  0  0  0  0  0  0  0  0  0  0  0
    6.0010   -0.5950    0.0000 C   0  0  0  0  0  0  0  0  0  0  0  0
   19.8574    5.4050    0.0000 C   0  0  1  0  0  0  0  0  0  0  0  0
    6.8671   -3.0950    0.0000 C   0  0  2  0  0  0  0  0  0  0  0  0
    6.8671   -2.0950    0.0000 C   0  0  0  0  0  0  0  0  0  0  0  0
    5.1350   -0.0950    0.0000 C   0  0  0  0  0  0  0  0  0  0  0  0
   11.1972    7.4050    0.0000 C   0  0  0  0  0  0  0  0  0  0  0  0
    7.7331   -3.5950    0.0000 C   0  0  0  0  0  0  0  0  0  0  0  0
   19.8574    4.4050    0.0000 C   0  0  0  0  0  0  0  0  0  0  0  0
   20.7235    5.9050    0.0000 C   0  0  0  0  0  0  0  0  0  0  0  0
    7.7331   -4.5950    0.0000 C   0  0  0  0  0  0  0  0  0  0  0  0
    6.0010   -4.5950    0.0000 C   0  0  0  0  0  0  0  0  0  0  0  0
    8.5991   -5.0950    0.0000 C   0  0  0  0  0  0  0  0  0  0  0  0
    5.1350   -5.0950    0.0000 C   0  0  0  0  0  0  0  0  0  0  0  0
    3.4030   -0.0950    0.0000 C   0  0  0  0  0  0  0  0  0  0  0  0
    4.2690   -6.5950    0.0000 C   0  0  0  0  0  0  0  0  0  0  0  0
    4.2690   -7.5950    0.0000 C   0  0  2  0  0  0  0  0  0  0  0  0
    5.1350   -8.0950    0.0000 C   0  0  0  0  0  0  0  0  0  0  0  0
   14.1244    5.0950    0.0000 H   0  0  0  0  0  0  0  0  0  0  0  0
   15.1982    4.7150    0.0000 H   0  0  0  0  0  0  0  0  0  0  0  0
    9.4651    0.7850    0.0000 H   0  0  0  0  0  0  0  0  0  0  0  0
   10.8681    0.5950    0.0000 H   0  0  0  0  0  0  0  0  0  0  0  0
   17.7963    5.5950    0.0000 H   0  0  0  0  0  0  0  0  0  0  0  0
   16.7224    6.5950    0.0000 H   0  0  0  0  0  0  0  0  0  0  0  0
   10.8681    3.5950    0.0000 H   0  0  0  0  0  0  0  0  0  0  0  0
   10.0021    4.7150    0.0000 H   0  0  0  0  0  0  0  0  0  0  0  0
   13.5832    4.4876    0.0000 H   0  0  0  0  0  0  0  0  0  0  0  0
   13.1847    3.7973    0.0000 H   0  0  0  0  0  0  0  0  0  0  0  0
    9.7206    0.0127    0.0000 H   0  0  0  0  0  0  0  0  0  0  0  0
   10.1191   -0.6776    0.0000 H   0  0  0  0  0  0  0  0  0  0  0  0
   16.3933    4.7850    0.0000 H   0  0  0  0  0  0  0  0  0  0  0  0
   13.7953    6.5250    0.0000 H   0  0  0  0  0  0  0  0  0  0  0  0
   10.8681    2.5950    0.0000 H   0  0  0  0  0  0  0  0  0  0  0  0
   12.0632    5.2850    0.0000 H   0  0  0  0  0  0  0  0  0  0  0  0
   18.3374    6.8224    0.0000 H   0  0  0  0  0  0  0  0  0  0  0  0
   18.7360    7.5127    0.0000 H   0  0  0  0  0  0  0  0  0  0  0  0
    8.0622    1.2150    0.0000 H   0  0  0  0  0  0  0  0  0  0  0  0
   15.2173    3.3681    0.0000 H   0  0  0  0  0  0  0  0  0  0  0  0
   16.0643    3.5950    0.0000 H   0  0  0  0  0  0  0  0  0  0  0  0
   15.8373    4.4419    0.0000 H   0  0  0  0  0  0  0  0  0  0  0  0
   11.5072    0.8681    0.0000 H   0  0  0  0  0  0  0  0  0  0  0  0
   11.7341    1.7150    0.0000 H   0  0  0  0  0  0  0  0  0  0  0  0
   10.8872    1.9419    0.0000 H   0  0  0  0  0  0  0  0  0  0  0  0
    8.2700   -0.9050    0.0000 H   0  0  0  0  0  0  0  0  0  0  0  0
   16.7033    7.9419    0.0000 H   0  0  0  0  0  0  0  0  0  0  0  0
   15.8564    7.7150    0.0000 H   0  0  0  0  0  0  0  0  0  0  0  0
   16.0833    6.8681    0.0000 H   0  0  0  0  0  0  0  0  0  0  0  0
   10.6603    5.7150    0.0000 H   0  0  0  0  0  0  0  0  0  0  0  0
    8.2891    4.4419    0.0000 H   0  0  0  0  0  0  0  0  0  0  0  0
    8.0622    3.5950    0.0000 H   0  0  0  0  0  0  0  0  0  0  0  0
    8.9091    3.3681    0.0000 H   0  0  0  0  0  0  0  0  0  0  0  0
   10.0851    5.4050    0.0000 H   0  0  0  0  0  0  0  0  0  0  0  0
    9.4651    6.0250    0.0000 H   0  0  0  0  0  0  0  0  0  0  0  0
    8.8451    5.4050    0.0000 H   0  0  0  0  0  0  0  0  0  0  0  0
    7.2656    0.3799    0.0000 H   0  0  0  0  0  0  0  0  0  0  0  0
    6.4685    0.3799    0.0000 H   0  0  0  0  0  0  0  0  0  0  0  0
   13.1753    2.9050    0.0000 H   0  0  0  0  0  0  0  0  0  0  0  0
   13.7953    2.2850    0.0000 H   0  0  0  0  0  0  0  0  0  0  0  0
   14.4153    2.9050    0.0000 H   0  0  0  0  0  0  0  0  0  0  0  0
   10.8872   -1.1319    0.0000 H   0  0  0  0  0  0  0  0  0  0  0  0
   11.7341   -0.9050    0.0000 H   0  0  0  0  0  0  0  0  0  0  0  0
   11.5072   -0.0581    0.0000 H   0  0  0  0  0  0  0  0  0  0  0  0
   12.6738    6.7973    0.0000 H   0  0  0  0  0  0  0  0  0  0  0  0
   12.2753    7.4876    0.0000 H   0  0  0  0  0  0  0  0  0  0  0  0
   18.7454    8.4050    0.0000 H   0  0  0  0  0  0  0  0  0  0  0  0
   18.1254    9.0250    0.0000 H   0  0  0  0  0  0  0  0  0  0  0  0
   17.5054    8.4050    0.0000 H   0  0  0  0  0  0  0  0  0  0  0  0
    8.2700   -1.9050    0.0000 H   0  0  0  0  0  0  0  0  0  0  0  0
    5.6025   -1.0700    0.0000 H   0  0  0  0  0  0  0  0  0  0  0  0
    6.3996   -1.0700    0.0000 H   0  0  0  0  0  0  0  0  0  0  0  0
   18.9914    6.5250    0.0000 H   0  0  0  0  0  0  0  0  0  0  0  0
   19.3205    5.0950    0.0000 H   0  0  0  0  0  0  0  0  0  0  0  0
    6.3301   -2.7850    0.0000 H   0  0  0  0  0  0  0  0  0  0  0  0
    5.5335    0.3799    0.0000 H   0  0  0  0  0  0  0  0  0  0  0  0
    4.7365    0.3799    0.0000 H   0  0  0  0  0  0  0  0  0  0  0  0
    8.3437   -3.7027    0.0000 H   0  0  0  0  0  0  0  0  0  0  0  0
    7.9451   -3.0124    0.0000 H   0  0  0  0  0  0  0  0  0  0  0  0
   19.2374    4.4050    0.0000 H   0  0  0  0  0  0  0  0  0  0  0  0
   19.8574    3.7850    0.0000 H   0  0  0  0  0  0  0  0  0  0  0  0
   20.4774    4.4050    0.0000 H   0  0  0  0  0  0  0  0  0  0  0  0
    5.4641   -3.2850    0.0000 H   0  0  0  0  0  0  0  0  0  0  0  0
    7.1225   -4.4873    0.0000 H   0  0  0  0  0  0  0  0  0  0  0  0
    7.5210   -5.1776    0.0000 H   0  0  0  0  0  0  0  0  0  0  0  0
   10.6603    8.7150    0.0000 H   0  0  0  0  0  0  0  0  0  0  0  0
   22.1264    5.7150    0.0000 H   0  0  0  0  0  0  0  0  0  0  0  0
   21.5895    4.7850    0.0000 H   0  0  0  0  0  0  0  0  0  0  0  0
    4.9230   -4.5124    0.0000 H   0  0  0  0  0  0  0  0  0  0  0  0
    4.5244   -5.2027    0.0000 H   0  0  0  0  0  0  0  0  0  0  0  0
    5.6720   -6.4050    0.0000 H   0  0  0  0  0  0  0  0  0  0  0  0
    2.0000   -0.2850    0.0000 H   0  0  0  0  0  0  0  0  0  0  0  0
    2.5369   -1.2150    0.0000 H   0  0  0  0  0  0  0  0  0  0  0  0
    2.8660    1.2150    0.0000 H   0  0  0  0  0  0  0  0  0  0  0  0
    3.9399    1.2150    0.0000 H   0  0  0  0  0  0  0  0  0  0  0  0
    9.1360   -6.4050    0.0000 H   0  0  0  0  0  0  0  0  0  0  0  0
    3.7320   -7.2850    0.0000 H   0  0  0  0  0  0  0  0  0  0  0  0
    4.8250   -8.6319    0.0000 H   0  0  0  0  0  0  0  0  0  0  0  0
    5.6720   -8.4050    0.0000 H   0  0  0  0  0  0  0  0  0  0  0  0
    5.4450   -7.5581    0.0000 H   0  0  0  0  0  0  0  0  0  0  0  0
    3.4030   -8.7150    0.0000 H   0  0  0  0  0  0  0  0  0  0  0  0
    2.8660   -7.7850    0.0000 H   0  0  0  0  0  0  0  0  0  0  0  0
  1 38  2  0  0  0  0
  2 40  2  0  0  0  0
  3 45  2  0  0  0  0
  4 47  2  0  0  0  0
  5 49  2  0  0  0  0
  6 50  2  0  0  0  0
  7 61  2  0  0  0  0
  8 63  1  0  0  0  0
  8140  1  0  0  0  0
  9 63  2  0  0  0  0
 10 66  2  0  0  0  0
 11 68  2  0  0  0  0
 12 69  1  0  0  0  0
 12150  1  0  0  0  0
 13 69  2  0  0  0  0
 14 72  2  0  0  0  0
 33 15  1  1  0  0  0
 15 38  1  0  0  0  0
 15 87  1  0  0  0  0
 29 16  1  6  0  0  0
 16 47  1  0  0  0  0
 16 88  1  0  0  0  0
 35 17  1  1  0  0  0
 17 40  1  0  0  0  0
 17 89  1  0  0  0  0
 31 18  1  6  0  0  0
 18 50  1  0  0  0  0
 18 93  1  0  0  0  0
 41 19  1  1  0  0  0
 19 45  1  0  0  0  0
 19104  1  0  0  0  0
 46 20  1  1  0  0  0
 20 61  1  0  0  0  0
 20124  1  0  0  0  0
 21 49  1  0  0  0  0
 59 21  1  6  0  0  0
 21127  1  0  0  0  0
 60 22  1  6  0  0  0
 22 68  1  0  0  0  0
 22137  1  0  0  0  0
 23 62  1  0  0  0  0
 23 71  2  0  0  0  0
 24 66  1  0  0  0  0
 24141  1  0  0  0  0
 24142  1  0  0  0  0
 25 70  1  0  0  0  0
 25 72  1  0  0  0  0
 25145  1  0  0  0  0
 26 71  1  0  0  0  0
 26146  1  0  0  0  0
 26147  1  0  0  0  0
 27 71  1  0  0  0  0
 27148  1  0  0  0  0
 27149  1  0  0  0  0
 73 28  1  6  0  0  0
 28155  1  0  0  0  0
 28156  1  0  0  0  0
 29 30  1  0  0  0  0
 29 38  1  0  0  0  0
 29 75  1  0  0  0  0
 30 37  1  0  0  0  0
 30 43  1  1  0  0  0
 30 76  1  0  0  0  0
 31 32  1  0  0  0  0
 31 40  1  0  0  0  0
 31 77  1  0  0  0  0
 32 39  1  0  0  0  0
 32 44  1  1  0  0  0
 32 78  1  0  0  0  0
 33 34  1  0  0  0  0
 33 49  1  0  0  0  0
 33 79  1  0  0  0  0
 34 42  1  0  0  0  0
 34 48  1  1  0  0  0
 34 80  1  0  0  0  0
 35 36  1  0  0  0  0
 35 45  1  0  0  0  0
 35 81  1  0  0  0  0
 36 51  1  0  0  0  0
 36 52  1  0  0  0  0
 36 82  1  0  0  0  0
 37 54  1  0  0  0  0
 37 83  1  0  0  0  0
 37 84  1  0  0  0  0
 39 55  1  0  0  0  0
 39 85  1  0  0  0  0
 39 86  1  0  0  0  0
 41 47  1  0  0  0  0
 41 56  1  0  0  0  0
 41 90  1  0  0  0  0
 42 57  1  0  0  0  0
 42 91  1  0  0  0  0
 42 92  1  0  0  0  0
 43 94  1  0  0  0  0
 43 95  1  0  0  0  0
 43 96  1  0  0  0  0
 44 97  1  0  0  0  0
 44 98  1  0  0  0  0
 44 99  1  0  0  0  0
 46 50  1  0  0  0  0
 46 53  1  0  0  0  0
 46100  1  0  0  0  0
 48101  1  0  0  0  0
 48102  1  0  0  0  0
 48103  1  0  0  0  0
 51105  1  0  0  0  0
 51106  1  0  0  0  0
 51107  1  0  0  0  0
 52108  1  0  0  0  0
 52109  1  0  0  0  0
 52110  1  0  0  0  0
 53 58  1  0  0  0  0
 53111  1  0  0  0  0
 53112  1  0  0  0  0
 54113  1  0  0  0  0
 54114  1  0  0  0  0
 54115  1  0  0  0  0
 55116  1  0  0  0  0
 55117  1  0  0  0  0
 55118  1  0  0  0  0
 56 63  1  0  0  0  0
 56119  1  0  0  0  0
 56120  1  0  0  0  0
 57121  1  0  0  0  0
 57122  1  0  0  0  0
 57123  1  0  0  0  0
 58 62  1  0  0  0  0
 58125  1  0  0  0  0
 58126  1  0  0  0  0
 59 65  1  0  0  0  0
 59 66  1  0  0  0  0
 59128  1  0  0  0  0
 60 61  1  0  0  0  0
 60 64  1  0  0  0  0
 60129  1  0  0  0  0
 62130  1  0  0  0  0
 62131  1  0  0  0  0
 64 67  1  0  0  0  0
 64132  1  0  0  0  0
 64133  1  0  0  0  0
 65134  1  0  0  0  0
 65135  1  0  0  0  0
 65136  1  0  0  0  0
 67 69  1  0  0  0  0
 67138  1  0  0  0  0
 67139  1  0  0  0  0
 68 70  1  0  0  0  0
 70143  1  0  0  0  0
 70144  1  0  0  0  0
 72 73  1  0  0  0  0
 73 74  1  0  0  0  0
 73151  1  0  0  0  0
 74152  1  0  0  0  0
 74153  1  0  0  0  0
 74154  1  0  0  0  0
M  END
> <PUBCHEM_COMPOUND_CID>
505370
> <PUBCHEM_COMPOUND_CANONICALIZED>
1
> <PUBCHEM_CACTVS_COMPLEXITY>
2000
> <PUBCHEM_CACTVS_HBOND_ACCEPTOR>
16
> <PUBCHEM_CACTVS_HBOND_DONOR>
15
> <PUBCHEM_CACTVS_ROTATABLE_BOND>
35
> <PUBCHEM_CACTVS_SUBSKEYS>
AAADcfB//AAAAAAAAAAAAAAAAAAAAAAAAAAAAAAAAAAAAAAAAAAAHgAQCAAADSjBgAQDCALAAgAoAAGQPAAAAAEAAAAAAIGIAAAAQBoAgCAUQAAGFgCAAAC/FwIKAAAAAAAAAAAAAAAAAAAAAAAAAAAAAA==
> <PUBCHEM_IUPAC_OPENEYE_NAME>
(4S)-5-[[(1S)-1-[[(1S,2S)-1-[[(1S)-1-[[(1S)-2-[[(1S,2S)-1-[[(1S,2S)-1-[[(1S)-2-amino-1-methyl-2-oxo-ethyl]carbamoyl]-2-methyl-butyl]carbamoyl]-2-methyl-butyl]amino]-1-(carboxymethyl)-2-oxo-ethyl]carbamoyl]-2-methyl-propyl]carbamoyl]-2-methyl-butyl]carbamoyl]-4-guanidino-butyl]amino]-4-[[2-[[(2S)-2-aminopropanoyl]amino]acetyl]amino]-5-oxo-pentanoic acid
> <PUBCHEM_IUPAC_CAS_NAME>
(4S)-5-[[(2S)-1-[[(2S,3S)-1-[[(2S)-1-[[(2S)-1-[[(2S,3S)-1-[[(2S,3S)-1-[[(2S)-1-amino-1-oxopropan-2-yl]amino]-3-methyl-1-oxopentan-2-yl]amino]-3-methyl-1-oxopentan-2-yl]amino]-3-carboxy-1-oxopropan-2-yl]amino]-3-methyl-1-oxobutan-2-yl]amino]-3-methyl-1-oxopentan-2-yl]amino]-5-(diaminomethylideneamino)-1-oxopentan-2-yl]amino]-4-[[2-[[(2S)-2-amino-1-oxopropyl]amino]-1-oxoethyl]amino]-5-oxopentanoic acid
> <PUBCHEM_IUPAC_NAME_MARKUP>
(4<I>S</I>)-5-[[(2<I>S</I>)-1-[[(2<I>S</I>,3<I>S</I>)-1-[[(2<I>S</I>)-1-[[(2<I>S</I>)-1-[[(2<I>S</I>,3<I>S</I>)-1-[[(2<I>S</I>,3<I>S</I>)-1-[[(2<I>S</I>)-1-amino-1-oxopropan-2-yl]amino]-3-methyl-1-oxopentan-2-yl]amino]-3-methyl-1-oxopentan-2-yl]amino]-3-carboxy-1-oxopropan-2-yl]amino]-3-methyl-1-oxobutan-2-yl]amino]-3-methyl-1-oxopentan-2-yl]amino]-5-(diaminomethylideneamino)-1-oxopentan-2-yl]amino]-4-[[2-[[(2<I>S</I>)-2-aminopropanoyl]amino]acetyl]amino]-5-oxopentanoic acid
> <PUBCHEM_IUPAC_NAME>
(4S)-5-[[(2S)-1-[[(2S,3S)-1-[[(2S)-1-[[(2S)-1-[[(2S,3S)-1-[[(2S,3S)-1-[[(2S)-1-amino-1-oxopropan-2-yl]amino]-3-methyl-1-oxopentan-2-yl]amino]-3-methyl-1-oxopentan-2-yl]amino]-3-carboxy-1-oxopropan-2-yl]amino]-3-methyl-1-oxobutan-2-yl]amino]-3-methyl-1-oxopentan-2-yl]amino]-5-(diaminomethylideneamino)-1-oxopentan-2-yl]amino]-4-[[2-[[(2S)-2-aminopropanoyl]amino]acetyl]amino]-5-oxopentanoic acid
> <PUBCHEM_IUPAC_SYSTEMATIC_NAME>
(4S)-5-[[(2S)-1-[[(2S,3S)-1-[[(2S)-1-[[(2S)-1-[[(2S,3S)-1-[[(2S,3S)-1-[[(2S)-1-azanyl-1-oxidanylidene-propan-2-yl]amino]-3-methyl-1-oxidanylidene-pentan-2-yl]amino]-3-methyl-1-oxidanylidene-pentan-2-yl]amino]-4-oxidanyl-1,4-bis(oxidanylidene)butan-2-yl]amino]-3-methyl-1-oxidanylidene-butan-2-yl]amino]-3-methyl-1-oxidanylidene-pentan-2-yl]amino]-5-[bis(azanyl)methylideneamino]-1-oxidanylidene-pentan-2-yl]amino]-4-[2-[[(2S)-2-azanylpropanoyl]amino]ethanoylamino]-5-oxidanylidene-pentanoic acid
> <PUBCHEM_IUPAC_TRADITIONAL_NAME>
(4S)-5-[[(1S)-1-[[(1S,2S)-1-[[(1S)-1-[[(1S)-2-[[(1S,2S)-1-[[(1S,2S)-1-[[(1S)-2-amino-2-keto-1-methyl-ethyl]carbamoyl]-2-methyl-butyl]carbamoyl]-2-methyl-butyl]amino]-1-(carboxymethyl)-2-keto-ethyl]carbamoyl]-2-methyl-propyl]carbamoyl]-2-methyl-butyl]carbamoyl]-4-guanidino-butyl]amino]-4-[[2-[[(2S)-2-aminopropanoyl]amino]acetyl]amino]-5-keto-valeric acid
> <PUBCHEM_IUPAC_INCHI>
InChI=1S/C46H82N14O14/c1-11-22(6)34(43(72)53-26(10)37(48)66)60-45(74)36(24(8)13-3)59-41(70)29(19-32(64)65)56-42(71)33(21(4)5)57-44(73)35(23(7)12-2)58-40(69)27(15-14-18-51-46(49)50)55-39(68)28(16-17-31(62)63)54-30(61)20-52-38(67)25(9)47/h21-29,33-36H,11-20,47H2,1-10H3,(H2,48,66)(H,52,67)(H,53,72)(H,54,61)(H,55,68)(H,56,71)(H,57,73)(H,58,69)(H,59,70)(H,60,74)(H,62,63)(H,64,65)(H4,49,50,51)/t22-,23-,24-,25-,26-,27-,28-,29-,33-,34-,35-,36-/m0/s1
> <PUBCHEM_IUPAC_INCHIKEY>
LBOUNWQQSAJUDN-BOQMMMTLSA-N
> <PUBCHEM_XLOGP3_AA>
-4
> <PUBCHEM_EXACT_MASS>
1054.61349334
> <PUBCHEM_MOLECULAR_FORMULA>
C46H82N14O14
> <PUBCHEM_MOLECULAR_WEIGHT>
1055.2
> <PUBCHEM_OPENEYE_CAN_SMILES>
CCC(C)C(C(=O)NC(C(C)C)C(=O)NC(CC(=O)O)C(=O)NC(C(C)CC)C(=O)NC(C(C)CC)C(=O)NC(C)C(=O)N)NC(=O)C(CCCN=C(N)N)NC(=O)C(CCC(=O)O)NC(=O)CNC(=O)C(C)N
> <PUBCHEM_OPENEYE_ISO_SMILES>
CC[C@H](C)[C@@H](C(=O)N[C@@H](C(C)C)C(=O)N[C@@H](CC(=O)O)C(=O)N[C@@H]([C@@H](C)CC)C(=O)N[C@@H]([C@@H](C)CC)C(=O)N[C@@H](C)C(=O)N)NC(=O)[C@H](CCCN=C(N)N)NC(=O)[C@H](CCC(=O)O)NC(=O)CNC(=O)[C@H](C)N
> <PUBCHEM_CACTVS_TPSA>
470
> <PUBCHEM_MONOISOTOPIC_WEIGHT>
1054.61349334
> <PUBCHEM_TOTAL_CHARGE>
0
> <PUBCHEM_HEAVY_ATOM_COUNT>
74
> <PUBCHEM_ATOM_DEF_STEREO_COUNT>
12
> <PUBCHEM_ATOM_UDEF_STEREO_COUNT>
0
> <PUBCHEM_BOND_DEF_STEREO_COUNT>
0
> <PUBCHEM_BOND_UDEF_STEREO_COUNT>
0
> <PUBCHEM_ISOTOPIC_ATOM_COUNT>
0
> <PUBCHEM_COMPONENT_COUNT>
1
> <PUBCHEM_CACTVS_TAUTO_COUNT>
-1
> <PUBCHEM_COORDINATE_TYPE>
1
5
255
> <PUBCHEM_BONDANNOTATIONS>
33  15  5
29  16  6
35  17  5
31  18  6
41  19  5
46  20  5
59  21  6
60  22  6
73  28  6
30  43  5
32  44  5
34  48  5
$$$$
