505349
  -OEChem-10302200282D
 62 64  0     1  0  0  0  0  0999 V2000
    3.9696    3.1084    0.0000 Cl  0  0  0  0  0  0  0  0  0  0  0  0
    2.0000    2.7611    0.0000 Cl  0  0  0  0  0  0  0  0  0  0  0  0
    5.2552    1.5764    0.0000 O   0  0  0  0  0  0  0  0  0  0  0  0
    7.1836   -0.7218    0.0000 O   0  0  0  0  0  0  0  0  0  0  0  0
    8.2096    2.0973    0.0000 O   0  0  0  0  0  0  0  0  0  0  0  0
    3.6007   -2.3954    0.0000 O   0  0  0  0  0  0  0  0  0  0  0  0
    5.5560   -0.1294    0.0000 N   0  0  0  0  0  0  0  0  0  0  0  0
    8.5104    0.3916    0.0000 N   0  0  0  0  0  0  0  0  0  0  0  0
    4.4667   -3.8954    0.0000 N   0  0  0  0  0  0  0  0  0  0  0  0
    5.5972    2.5160    0.0000 N   0  0  0  0  0  0  0  0  0  0  0  0
    6.9240    3.6294    0.0000 N   0  0  0  0  0  0  0  0  0  0  0  0
    6.8828    0.9840    0.0000 C   0  0  3  0  0  0  0  0  0  0  0  0
    4.5712   -0.3030    0.0000 C   0  0  0  0  0  0  0  0  0  0  0  0
    5.8980    0.8103    0.0000 C   0  0  0  0  0  0  0  0  0  0  0  0
    6.1988   -0.8954    0.0000 C   0  0  0  0  0  0  0  0  0  0  0  0
    3.9284    0.4630    0.0000 C   0  0  0  0  0  0  0  0  0  0  0  0
    7.5256    0.2179    0.0000 C   0  0  0  0  0  0  0  0  0  0  0  0
    5.3327   -1.3954    0.0000 C   0  0  0  0  0  0  0  0  0  0  0  0
    7.2248    1.9236    0.0000 C   0  0  0  0  0  0  0  0  0  0  0  0
    7.0648   -1.3954    0.0000 C   0  0  0  0  0  0  0  0  0  0  0  0
    5.3327   -2.3954    0.0000 C   0  0  0  0  0  0  0  0  0  0  0  0
    4.2704    1.4027    0.0000 C   0  0  0  0  0  0  0  0  0  0  0  0
    2.9436    0.2894    0.0000 C   0  0  0  0  0  0  0  0  0  0  0  0
    7.0648   -2.3954    0.0000 C   0  0  0  0  0  0  0  0  0  0  0  0
    6.1988   -2.8954    0.0000 C   0  0  0  0  0  0  0  0  0  0  0  0
    4.4667   -2.8954    0.0000 C   0  0  0  0  0  0  0  0  0  0  0  0
    6.5820    2.6897    0.0000 C   0  0  0  0  0  0  0  0  0  0  0  0
    9.1532   -0.3745    0.0000 C   0  0  0  0  0  0  0  0  0  0  0  0
    8.8524    1.3312    0.0000 C   0  0  0  0  0  0  0  0  0  0  0  0
    3.6276    2.1688    0.0000 C   0  0  0  0  0  0  0  0  0  0  0  0
    2.3008    1.0554    0.0000 C   0  0  0  0  0  0  0  0  0  0  0  0
    2.6428    1.9951    0.0000 C   0  0  0  0  0  0  0  0  0  0  0  0
    3.6007   -4.3954    0.0000 C   0  0  0  0  0  0  0  0  0  0  0  0
    5.3327   -4.3954    0.0000 C   0  0  0  0  0  0  0  0  0  0  0  0
    4.9544    3.2821    0.0000 C   0  0  0  0  0  0  0  0  0  0  0  0
    6.2812    4.3954    0.0000 C   0  0  0  0  0  0  0  0  0  0  0  0
    5.2964    4.2218    0.0000 C   0  0  0  0  0  0  0  0  0  0  0  0
    7.4934    1.0916    0.0000 H   0  0  0  0  0  0  0  0  0  0  0  0
    4.0342   -0.6130    0.0000 H   0  0  0  0  0  0  0  0  0  0  0  0
    4.7832   -0.8856    0.0000 H   0  0  0  0  0  0  0  0  0  0  0  0
    4.7958   -1.0854    0.0000 H   0  0  0  0  0  0  0  0  0  0  0  0
    7.6017   -1.0854    0.0000 H   0  0  0  0  0  0  0  0  0  0  0  0
    4.8810    1.5104    0.0000 H   0  0  0  0  0  0  0  0  0  0  0  0
    2.7315   -0.2932    0.0000 H   0  0  0  0  0  0  0  0  0  0  0  0
    7.6017   -2.7054    0.0000 H   0  0  0  0  0  0  0  0  0  0  0  0
    6.1988   -3.5154    0.0000 H   0  0  0  0  0  0  0  0  0  0  0  0
    8.6782   -0.7730    0.0000 H   0  0  0  0  0  0  0  0  0  0  0  0
    9.5517   -0.8494    0.0000 H   0  0  0  0  0  0  0  0  0  0  0  0
    9.6281    0.0240    0.0000 H   0  0  0  0  0  0  0  0  0  0  0  0
    9.4350    1.1192    0.0000 H   0  0  0  0  0  0  0  0  0  0  0  0
    9.0645    1.9139    0.0000 H   0  0  0  0  0  0  0  0  0  0  0  0
    8.2698    1.5433    0.0000 H   0  0  0  0  0  0  0  0  0  0  0  0
    1.6902    0.9477    0.0000 H   0  0  0  0  0  0  0  0  0  0  0  0
    3.2907   -3.8585    0.0000 H   0  0  0  0  0  0  0  0  0  0  0  0
    3.0637   -4.7054    0.0000 H   0  0  0  0  0  0  0  0  0  0  0  0
    3.9107   -4.9324    0.0000 H   0  0  0  0  0  0  0  0  0  0  0  0
    5.0227   -4.9324    0.0000 H   0  0  0  0  0  0  0  0  0  0  0  0
    5.8697   -4.7054    0.0000 H   0  0  0  0  0  0  0  0  0  0  0  0
    5.6427   -3.8585    0.0000 H   0  0  0  0  0  0  0  0  0  0  0  0
    4.3438    3.1744    0.0000 H   0  0  0  0  0  0  0  0  0  0  0  0
    6.4933    4.9780    0.0000 H   0  0  0  0  0  0  0  0  0  0  0  0
    4.8979    4.6967    0.0000 H   0  0  0  0  0  0  0  0  0  0  0  0
  1 30  1  0  0  0  0
  2 32  1  0  0  0  0
  3 14  2  0  0  0  0
  4 17  2  0  0  0  0
  5 19  2  0  0  0  0
  6 26  2  0  0  0  0
  7 13  1  0  0  0  0
  7 14  1  0  0  0  0
  7 15  1  0  0  0  0
  8 17  1  0  0  0  0
  8 28  1  0  0  0  0
  8 29  1  0  0  0  0
  9 26  1  0  0  0  0
  9 33  1  0  0  0  0
  9 34  1  0  0  0  0
 10 27  2  0  0  0  0
 10 35  1  0  0  0  0
 11 27  1  0  0  0  0
 11 36  2  0  0  0  0
 12 14  1  0  0  0  0
 12 17  1  0  0  0  0
 12 19  1  0  0  0  0
 12 38  1  0  0  0  0
 13 16  1  0  0  0  0
 13 39  1  0  0  0  0
 13 40  1  0  0  0  0
 15 18  1  0  0  0  0
 15 20  2  0  0  0  0
 16 22  2  0  0  0  0
 16 23  1  0  0  0  0
 18 21  2  0  0  0  0
 18 41  1  0  0  0  0
 19 27  1  0  0  0  0
 20 24  1  0  0  0  0
 20 42  1  0  0  0  0
 21 25  1  0  0  0  0
 21 26  1  0  0  0  0
 22 30  1  0  0  0  0
 22 43  1  0  0  0  0
 23 31  2  0  0  0  0
 23 44  1  0  0  0  0
 24 25  2  0  0  0  0
 24 45  1  0  0  0  0
 25 46  1  0  0  0  0
 28 47  1  0  0  0  0
 28 48  1  0  0  0  0
 28 49  1  0  0  0  0
 29 50  1  0  0  0  0
 29 51  1  0  0  0  0
 29 52  1  0  0  0  0
 30 32  2  0  0  0  0
 31 32  1  0  0  0  0
 31 53  1  0  0  0  0
 33 54  1  0  0  0  0
 33 55  1  0  0  0  0
 33 56  1  0  0  0  0
 34 57  1  0  0  0  0
 34 58  1  0  0  0  0
 34 59  1  0  0  0  0
 35 37  2  0  0  0  0
 35 60  1  0  0  0  0
 36 37  1  0  0  0  0
 36 61  1  0  0  0  0
 37 62  1  0  0  0  0
M  END
> <PUBCHEM_COMPOUND_CID>
505349
> <PUBCHEM_COMPOUND_CANONICALIZED>
1
> <PUBCHEM_CACTVS_COMPLEXITY>
836
> <PUBCHEM_CACTVS_HBOND_ACCEPTOR>
6
> <PUBCHEM_CACTVS_HBOND_DONOR>
0
> <PUBCHEM_CACTVS_ROTATABLE_BOND>
8
> <PUBCHEM_CACTVS_SUBSKEYS>
AAADceB7uAAGAAAAAAAAAAAAAAAAAAAAAAA8YIAAAAAAAAAB0AAAHgIAAAAADQ7BmyQ/0JcIEACoArd3dACCgCk3B6AJ2mG4ZtiIKLrJ3/GEJQhohgLIyacciACOBAAAYAAAAAQIAADAAAAACAAAAAAAAA==
> <PUBCHEM_IUPAC_OPENEYE_NAME>
N-[(3,4-dichlorophenyl)methyl]-N-[3-(dimethylcarbamoyl)phenyl]-N',N'-dimethyl-2-(pyrimidine-2-carbonyl)propanediamide
> <PUBCHEM_IUPAC_CAS_NAME>
N-[(3,4-dichlorophenyl)methyl]-N-[3-[dimethylamino(oxo)methyl]phenyl]-N',N'-dimethyl-2-[oxo(2-pyrimidinyl)methyl]propanediamide
> <PUBCHEM_IUPAC_NAME_MARKUP>
<I>N</I>-[(3,4-dichlorophenyl)methyl]-<I>N</I>-[3-(dimethylcarbamoyl)phenyl]-<I>N</I>&apos;,<I>N</I>&apos;-dimethyl-2-(pyrimidine-2-carbonyl)propanediamide
> <PUBCHEM_IUPAC_NAME>
N-[(3,4-dichlorophenyl)methyl]-N-[3-(dimethylcarbamoyl)phenyl]-N',N'-dimethyl-2-(pyrimidine-2-carbonyl)propanediamide
> <PUBCHEM_IUPAC_SYSTEMATIC_NAME>
N-[(3,4-dichlorophenyl)methyl]-N-[3-(dimethylcarbamoyl)phenyl]-N',N'-dimethyl-2-pyrimidin-2-ylcarbonyl-propanediamide
> <PUBCHEM_IUPAC_TRADITIONAL_NAME>
N-(3,4-dichlorobenzyl)-N-[3-(dimethylcarbamoyl)phenyl]-N',N'-dimethyl-2-(pyrimidine-2-carbonyl)malonamide
> <PUBCHEM_IUPAC_INCHI>
InChI=1S/C26H25Cl2N5O4/c1-31(2)24(35)17-7-5-8-18(14-17)33(15-16-9-10-19(27)20(28)13-16)26(37)21(25(36)32(3)4)22(34)23-29-11-6-12-30-23/h5-14,21H,15H2,1-4H3
> <PUBCHEM_IUPAC_INCHIKEY>
CMKRKVNIZPHFLD-UHFFFAOYSA-N
> <PUBCHEM_XLOGP3_AA>
3.3
> <PUBCHEM_EXACT_MASS>
541.1283597
> <PUBCHEM_MOLECULAR_FORMULA>
C26H25Cl2N5O4
> <PUBCHEM_MOLECULAR_WEIGHT>
542.4
> <PUBCHEM_OPENEYE_CAN_SMILES>
CN(C)C(=O)C1=CC(=CC=C1)N(CC2=CC(=C(C=C2)Cl)Cl)C(=O)C(C(=O)C3=NC=CC=N3)C(=O)N(C)C
> <PUBCHEM_OPENEYE_ISO_SMILES>
CN(C)C(=O)C1=CC(=CC=C1)N(CC2=CC(=C(C=C2)Cl)Cl)C(=O)C(C(=O)C3=NC=CC=N3)C(=O)N(C)C
> <PUBCHEM_CACTVS_TPSA>
104
> <PUBCHEM_MONOISOTOPIC_WEIGHT>
541.1283597
> <PUBCHEM_TOTAL_CHARGE>
0
> <PUBCHEM_HEAVY_ATOM_COUNT>
37
> <PUBCHEM_ATOM_DEF_STEREO_COUNT>
0
> <PUBCHEM_ATOM_UDEF_STEREO_COUNT>
1
> <PUBCHEM_BOND_DEF_STEREO_COUNT>
0
> <PUBCHEM_BOND_UDEF_STEREO_COUNT>
0
> <PUBCHEM_ISOTOPIC_ATOM_COUNT>
0
> <PUBCHEM_COMPONENT_COUNT>
1
> <PUBCHEM_CACTVS_TAUTO_COUNT>
-1
> <PUBCHEM_COORDINATE_TYPE>
1
5
255
> <PUBCHEM_BONDANNOTATIONS>
10  27  8
10  35  8
11  27  8
11  36  8
12  19  3
15  18  8
15  20  8
16  22  8
16  23  8
18  21  8
20  24  8
21  25  8
22  30  8
23  31  8
24  25  8
30  32  8
31  32  8
35  37  8
36  37  8
$$$$
