505365
  -OEChem-10302200282D
171173  0     1  0  0  0  0  0999 V2000
   14.5564   -2.6653    0.0000 O   0  0  0  0  0  0  0  0  0  0  0  0
   15.5670   -3.5784    0.0000 O   0  0  0  0  0  0  0  0  0  0  0  0
   12.8635    0.5182    0.0000 O   0  0  0  0  0  0  0  0  0  0  0  0
   18.9053   -4.9408    0.0000 O   0  0  0  0  0  0  0  0  0  0  0  0
   15.4608   -4.5728    0.0000 O   0  0  0  0  0  0  0  0  0  0  0  0
    9.6173   -1.0510    0.0000 O   0  0  0  0  0  0  0  0  0  0  0  0
   13.9350   -4.5663    0.0000 O   0  0  0  0  0  0  0  0  0  0  0  0
   12.2887   -4.0282    0.0000 O   0  0  0  0  0  0  0  0  0  0  0  0
    7.9244    2.1324    0.0000 O   0  0  0  0  0  0  0  0  0  0  0  0
   21.7543   -2.7310    0.0000 O   0  0  0  0  0  0  0  0  0  0  0  0
    7.2566    2.8767    0.0000 O   0  0  0  0  0  0  0  0  0  0  0  0
    4.2746    4.9034    0.0000 O   0  0  0  0  0  0  0  0  0  0  0  0
   24.0720   -5.4929    0.0000 O   0  0  0  0  0  0  0  0  0  0  0  0
   26.9210   -3.2831    0.0000 O   0  0  0  0  0  0  0  0  0  0  0  0
   16.5875   -2.1790    0.0000 N   0  0  0  0  0  0  0  0  0  0  0  0
   14.1992   -0.9704    0.0000 N   0  0  0  0  0  0  0  0  0  0  0  0
   18.2035   -3.3573    0.0000 N   0  0  0  0  0  0  0  0  0  0  0  0
   11.5743   -0.6386    0.0000 N   0  0  0  0  0  0  0  0  0  0  0  0
    9.2601    0.6438    0.0000 N   0  0  0  0  0  0  0  0  0  0  0  0
   16.1625   -6.1563    0.0000 N   0  0  0  0  0  0  0  0  0  0  0  0
   20.7338   -4.1305    0.0000 N   0  0  0  0  0  0  0  0  0  0  0  0
    6.6353    0.9757    0.0000 N   0  0  0  0  0  0  0  0  0  0  0  0
    5.6103    3.4148    0.0000 N   0  0  0  0  0  0  0  0  0  0  0  0
   23.3703   -3.9094    0.0000 N   0  0  0  0  0  0  0  0  0  0  0  0
   13.7955    3.3697    0.0000 N   0  0  0  0  0  0  0  0  0  0  0  0
    4.6783   -1.0462    0.0000 N   0  0  0  0  0  0  0  0  0  0  0  0
    8.6853   -3.9026    0.0000 N   0  0  0  0  0  0  0  0  0  0  0  0
   25.9005   -4.6826    0.0000 N   0  0  0  0  0  0  0  0  0  0  0  0
    5.5637    6.0601    0.0000 N   0  0  0  0  0  0  0  0  0  0  0  0
   15.8455   -1.5085    0.0000 C   0  0  1  0  0  0  0  0  0  0  0  0
   16.2539   -0.5957    0.0000 C   0  0  0  0  0  0  0  0  0  0  0  0
   17.2482   -0.7019    0.0000 C   0  0  0  0  0  0  0  0  0  0  0  0
   17.4544   -1.6804    0.0000 C   0  0  0  0  0  0  0  0  0  0  0  0
   14.8670   -1.7148    0.0000 C   0  0  0  0  0  0  0  0  0  0  0  0
   16.4813   -3.1733    0.0000 C   0  0  0  0  0  0  0  0  0  0  0  0
   17.2893   -3.7625    0.0000 C   0  0  2  0  0  0  0  0  0  0  0  0
   13.2207   -1.1767    0.0000 C   0  0  1  0  0  0  0  0  0  0  0  0
   17.1830   -4.7568    0.0000 C   0  0  0  0  0  0  0  0  0  0  0  0
   12.9100   -2.1272    0.0000 C   0  0  0  0  0  0  0  0  0  0  0  0
   12.5528   -0.4324    0.0000 C   0  0  0  0  0  0  0  0  0  0  0  0
   10.9065    0.1057    0.0000 C   0  0  1  0  0  0  0  0  0  0  0  0
   13.5779   -2.8715    0.0000 C   0  0  0  0  0  0  0  0  0  0  0  0
   19.0115   -3.9465    0.0000 C   0  0  0  0  0  0  0  0  0  0  0  0
   16.2688   -5.1620    0.0000 C   0  0  0  0  0  0  0  0  0  0  0  0
   11.2171    1.0562    0.0000 C   0  0  0  0  0  0  0  0  0  0  0  0
   19.9258   -3.5413    0.0000 C   0  0  2  0  0  0  0  0  0  0  0  0
    9.9280   -0.1005    0.0000 C   0  0  0  0  0  0  0  0  0  0  0  0
   12.1957    1.2625    0.0000 C   0  0  0  0  0  0  0  0  0  0  0  0
    8.2816    0.4376    0.0000 C   0  0  1  0  0  0  0  0  0  0  0  0
    7.9710   -0.5129    0.0000 C   0  0  0  0  0  0  0  0  0  0  0  0
   13.2672   -3.8220    0.0000 C   0  0  0  0  0  0  0  0  0  0  0  0
   12.5063    2.2130    0.0000 C   0  0  0  0  0  0  0  0  0  0  0  0
   20.0320   -2.5470    0.0000 C   0  0  0  0  0  0  0  0  0  0  0  0
    8.6388   -1.2572    0.0000 C   0  0  0  0  0  0  0  0  0  0  0  0
    7.6138    1.1819    0.0000 C   0  0  0  0  0  0  0  0  0  0  0  0
    5.9674    1.7200    0.0000 C   0  0  1  0  0  0  0  0  0  0  0  0
    4.9889    1.5138    0.0000 C   0  0  0  0  0  0  0  0  0  0  0  0
    8.3282   -2.2078    0.0000 C   0  0  0  0  0  0  0  0  0  0  0  0
   13.4848    2.4192    0.0000 C   0  0  0  0  0  0  0  0  0  0  0  0
   21.6480   -3.7254    0.0000 C   0  0  0  0  0  0  0  0  0  0  0  0
    4.6783    0.5632    0.0000 C   0  0  0  0  0  0  0  0  0  0  0  0
    6.2781    2.6705    0.0000 C   0  0  0  0  0  0  0  0  0  0  0  0
    5.9209    4.3653    0.0000 C   0  0  1  0  0  0  0  0  0  0  0  0
   22.4560   -4.3146    0.0000 C   0  0  2  0  0  0  0  0  0  0  0  0
    6.8994    4.5715    0.0000 C   0  0  0  0  0  0  0  0  0  0  0  0
    8.9960   -2.9521    0.0000 C   0  0  0  0  0  0  0  0  0  0  0  0
    3.7320    0.2585    0.0000 C   0  0  0  0  0  0  0  0  0  0  0  0
    5.2619   -0.2415    0.0000 C   0  0  0  0  0  0  0  0  0  0  0  0
    3.7320   -0.7415    0.0000 C   0  0  0  0  0  0  0  0  0  0  0  0
   22.3498   -5.3089    0.0000 C   0  0  0  0  0  0  0  0  0  0  0  0
    7.2101    5.5220    0.0000 C   0  0  0  0  0  0  0  0  0  0  0  0
    7.5673    3.8272    0.0000 C   0  0  0  0  0  0  0  0  0  0  0  0
   25.0925   -4.0934    0.0000 C   0  0  1  0  0  0  0  0  0  0  0  0
    5.2531    5.1096    0.0000 C   0  0  0  0  0  0  0  0  0  0  0  0
    2.8660    0.7585    0.0000 C   0  0  0  0  0  0  0  0  0  0  0  0
   25.1988   -3.0991    0.0000 C   0  0  0  0  0  0  0  0  0  0  0  0
   24.1783   -4.4986    0.0000 C   0  0  0  0  0  0  0  0  0  0  0  0
    2.8660   -1.2415    0.0000 C   0  0  0  0  0  0  0  0  0  0  0  0
    2.0000    0.2585    0.0000 C   0  0  0  0  0  0  0  0  0  0  0  0
    2.0000   -0.7415    0.0000 C   0  0  0  0  0  0  0  0  0  0  0  0
   26.1130   -2.6939    0.0000 C   0  0  0  0  0  0  0  0  0  0  0  0
   24.3908   -2.5099    0.0000 C   0  0  0  0  0  0  0  0  0  0  0  0
   26.8148   -4.2775    0.0000 C   0  0  0  0  0  0  0  0  0  0  0  0
   27.6228   -4.8666    0.0000 C   0  0  0  0  0  0  0  0  0  0  0  0
   15.6840   -2.1071    0.0000 H   0  0  0  0  0  0  0  0  0  0  0  0
   16.3838    0.0105    0.0000 H   0  0  0  0  0  0  0  0  0  0  0  0
   15.6645   -0.4031    0.0000 H   0  0  0  0  0  0  0  0  0  0  0  0
   17.8649   -0.6382    0.0000 H   0  0  0  0  0  0  0  0  0  0  0  0
   17.2493   -0.0819    0.0000 H   0  0  0  0  0  0  0  0  0  0  0  0
   17.7056   -2.2473    0.0000 H   0  0  0  0  0  0  0  0  0  0  0  0
   18.0444   -1.4899    0.0000 H   0  0  0  0  0  0  0  0  0  0  0  0
   17.3551   -3.1460    0.0000 H   0  0  0  0  0  0  0  0  0  0  0  0
   14.3918   -0.3811    0.0000 H   0  0  0  0  0  0  0  0  0  0  0  0
   13.6347   -1.6381    0.0000 H   0  0  0  0  0  0  0  0  0  0  0  0
   17.3320   -5.3586    0.0000 H   0  0  0  0  0  0  0  0  0  0  0  0
   17.8016   -4.7146    0.0000 H   0  0  0  0  0  0  0  0  0  0  0  0
   12.3631   -1.8352    0.0000 H   0  0  0  0  0  0  0  0  0  0  0  0
   12.5275   -2.6151    0.0000 H   0  0  0  0  0  0  0  0  0  0  0  0
   18.2694   -2.7408    0.0000 H   0  0  0  0  0  0  0  0  0  0  0  0
   10.7139   -0.4836    0.0000 H   0  0  0  0  0  0  0  0  0  0  0  0
   14.1248   -3.1635    0.0000 H   0  0  0  0  0  0  0  0  0  0  0  0
   13.9604   -2.3836    0.0000 H   0  0  0  0  0  0  0  0  0  0  0  0
   11.3817   -1.2279    0.0000 H   0  0  0  0  0  0  0  0  0  0  0  0
   11.1966    1.6759    0.0000 H   0  0  0  0  0  0  0  0  0  0  0  0
   10.6033    1.1436    0.0000 H   0  0  0  0  0  0  0  0  0  0  0  0
   20.4926   -3.2902    0.0000 H   0  0  0  0  0  0  0  0  0  0  0  0
   12.2162    0.6428    0.0000 H   0  0  0  0  0  0  0  0  0  0  0  0
   12.8095    1.1751    0.0000 H   0  0  0  0  0  0  0  0  0  0  0  0
    8.6957   -0.0239    0.0000 H   0  0  0  0  0  0  0  0  0  0  0  0
    9.4528    1.2331    0.0000 H   0  0  0  0  0  0  0  0  0  0  0  0
    7.4240   -0.2209    0.0000 H   0  0  0  0  0  0  0  0  0  0  0  0
    7.5884   -1.0008    0.0000 H   0  0  0  0  0  0  0  0  0  0  0  0
   12.4858    2.8326    0.0000 H   0  0  0  0  0  0  0  0  0  0  0  0
   11.8925    2.3003    0.0000 H   0  0  0  0  0  0  0  0  0  0  0  0
   20.6485   -2.6129    0.0000 H   0  0  0  0  0  0  0  0  0  0  0  0
   20.0979   -1.9305    0.0000 H   0  0  0  0  0  0  0  0  0  0  0  0
   19.4155   -2.4811    0.0000 H   0  0  0  0  0  0  0  0  0  0  0  0
   15.5957   -6.4075    0.0000 H   0  0  0  0  0  0  0  0  0  0  0  0
   16.6635   -6.5216    0.0000 H   0  0  0  0  0  0  0  0  0  0  0  0
   20.6679   -4.7470    0.0000 H   0  0  0  0  0  0  0  0  0  0  0  0
    9.1857   -1.5493    0.0000 H   0  0  0  0  0  0  0  0  0  0  0  0
    9.0214   -0.7693    0.0000 H   0  0  0  0  0  0  0  0  0  0  0  0
    5.7748    1.1306    0.0000 H   0  0  0  0  0  0  0  0  0  0  0  0
    6.4427    0.3863    0.0000 H   0  0  0  0  0  0  0  0  0  0  0  0
    4.9684    2.1334    0.0000 H   0  0  0  0  0  0  0  0  0  0  0  0
    4.3751    1.6011    0.0000 H   0  0  0  0  0  0  0  0  0  0  0  0
    7.7812   -1.9157    0.0000 H   0  0  0  0  0  0  0  0  0  0  0  0
    7.9456   -2.6957    0.0000 H   0  0  0  0  0  0  0  0  0  0  0  0
   13.5054    1.7995    0.0000 H   0  0  0  0  0  0  0  0  0  0  0  0
   14.0986    2.3319    0.0000 H   0  0  0  0  0  0  0  0  0  0  0  0
    5.3142    4.2374    0.0000 H   0  0  0  0  0  0  0  0  0  0  0  0
   22.9570   -4.6798    0.0000 H   0  0  0  0  0  0  0  0  0  0  0  0
    7.5061    4.6994    0.0000 H   0  0  0  0  0  0  0  0  0  0  0  0
    5.0036    3.2869    0.0000 H   0  0  0  0  0  0  0  0  0  0  0  0
    9.5429   -3.2441    0.0000 H   0  0  0  0  0  0  0  0  0  0  0  0
    9.3786   -2.4642    0.0000 H   0  0  0  0  0  0  0  0  0  0  0  0
   13.7424   -5.1556    0.0000 H   0  0  0  0  0  0  0  0  0  0  0  0
    5.8819   -0.2415    0.0000 H   0  0  0  0  0  0  0  0  0  0  0  0
   23.4361   -3.2929    0.0000 H   0  0  0  0  0  0  0  0  0  0  0  0
   14.4022    3.4976    0.0000 H   0  0  0  0  0  0  0  0  0  0  0  0
   13.3814    3.8312    0.0000 H   0  0  0  0  0  0  0  0  0  0  0  0
    4.8709   -1.6356    0.0000 H   0  0  0  0  0  0  0  0  0  0  0  0
   21.7333   -5.2430    0.0000 H   0  0  0  0  0  0  0  0  0  0  0  0
   22.2839   -5.9254    0.0000 H   0  0  0  0  0  0  0  0  0  0  0  0
   22.9663   -5.3748    0.0000 H   0  0  0  0  0  0  0  0  0  0  0  0
    7.7994    5.3294    0.0000 H   0  0  0  0  0  0  0  0  0  0  0  0
    7.4027    6.1114    0.0000 H   0  0  0  0  0  0  0  0  0  0  0  0
    6.6208    5.7147    0.0000 H   0  0  0  0  0  0  0  0  0  0  0  0
    7.1058    3.4132    0.0000 H   0  0  0  0  0  0  0  0  0  0  0  0
    7.9813    3.3658    0.0000 H   0  0  0  0  0  0  0  0  0  0  0  0
    8.0287    4.2413    0.0000 H   0  0  0  0  0  0  0  0  0  0  0  0
   25.0266   -4.7099    0.0000 H   0  0  0  0  0  0  0  0  0  0  0  0
    2.8660    1.3785    0.0000 H   0  0  0  0  0  0  0  0  0  0  0  0
   25.6997   -3.4644    0.0000 H   0  0  0  0  0  0  0  0  0  0  0  0
    2.8660   -1.8615    0.0000 H   0  0  0  0  0  0  0  0  0  0  0  0
    9.0994   -4.3640    0.0000 H   0  0  0  0  0  0  0  0  0  0  0  0
    8.0787   -4.0304    0.0000 H   0  0  0  0  0  0  0  0  0  0  0  0
    1.4631    0.5685    0.0000 H   0  0  0  0  0  0  0  0  0  0  0  0
    1.4631   -1.0515    0.0000 H   0  0  0  0  0  0  0  0  0  0  0  0
   25.8346   -5.2991    0.0000 H   0  0  0  0  0  0  0  0  0  0  0  0
   26.3642   -3.2608    0.0000 H   0  0  0  0  0  0  0  0  0  0  0  0
   26.6798   -2.4427    0.0000 H   0  0  0  0  0  0  0  0  0  0  0  0
   25.8618   -2.1271    0.0000 H   0  0  0  0  0  0  0  0  0  0  0  0
   24.7561   -2.0090    0.0000 H   0  0  0  0  0  0  0  0  0  0  0  0
   23.8898   -2.1446    0.0000 H   0  0  0  0  0  0  0  0  0  0  0  0
   24.0255   -3.0109    0.0000 H   0  0  0  0  0  0  0  0  0  0  0  0
    5.1497    6.5216    0.0000 H   0  0  0  0  0  0  0  0  0  0  0  0
    6.1704    6.1880    0.0000 H   0  0  0  0  0  0  0  0  0  0  0  0
   27.2575   -5.3676    0.0000 H   0  0  0  0  0  0  0  0  0  0  0  0
   28.1237   -5.2319    0.0000 H   0  0  0  0  0  0  0  0  0  0  0  0
   27.9880   -4.3657    0.0000 H   0  0  0  0  0  0  0  0  0  0  0  0
  1 34  2  0  0  0  0
  2 35  2  0  0  0  0
  3 40  2  0  0  0  0
  4 43  2  0  0  0  0
  5 44  2  0  0  0  0
  6 47  2  0  0  0  0
  7 51  1  0  0  0  0
  7137  1  0  0  0  0
  8 51  2  0  0  0  0
  9 55  2  0  0  0  0
 10 60  2  0  0  0  0
 11 62  2  0  0  0  0
 12 74  2  0  0  0  0
 13 77  2  0  0  0  0
 14 83  2  0  0  0  0
 15 30  1  0  0  0  0
 15 33  1  0  0  0  0
 15 35  1  0  0  0  0
 16 34  1  0  0  0  0
 37 16  1  1  0  0  0
 16 93  1  0  0  0  0
 36 17  1  1  0  0  0
 17 43  1  0  0  0  0
 17 99  1  0  0  0  0
 18 40  1  0  0  0  0
 41 18  1  6  0  0  0
 18103  1  0  0  0  0
 19 47  1  0  0  0  0
 49 19  1  1  0  0  0
 19110  1  0  0  0  0
 20 44  1  0  0  0  0
 20118  1  0  0  0  0
 20119  1  0  0  0  0
 46 21  1  6  0  0  0
 21 60  1  0  0  0  0
 21120  1  0  0  0  0
 22 55  1  0  0  0  0
 56 22  1  1  0  0  0
 22124  1  0  0  0  0
 23 62  1  0  0  0  0
 63 23  1  6  0  0  0
 23134  1  0  0  0  0
 64 24  1  1  0  0  0
 24 77  1  0  0  0  0
 24139  1  0  0  0  0
 25 59  1  0  0  0  0
 25140  1  0  0  0  0
 25141  1  0  0  0  0
 26 68  1  0  0  0  0
 26 69  1  0  0  0  0
 26142  1  0  0  0  0
 27 66  1  0  0  0  0
 27156  1  0  0  0  0
 27157  1  0  0  0  0
 73 28  1  6  0  0  0
 28 83  1  0  0  0  0
 28160  1  0  0  0  0
 29 74  1  0  0  0  0
 29167  1  0  0  0  0
 29168  1  0  0  0  0
 30 31  1  0  0  0  0
 30 34  1  6  0  0  0
 30 85  1  0  0  0  0
 31 32  1  0  0  0  0
 31 86  1  0  0  0  0
 31 87  1  0  0  0  0
 32 33  1  0  0  0  0
 32 88  1  0  0  0  0
 32 89  1  0  0  0  0
 33 90  1  0  0  0  0
 33 91  1  0  0  0  0
 35 36  1  0  0  0  0
 36 38  1  0  0  0  0
 36 92  1  0  0  0  0
 37 39  1  0  0  0  0
 37 40  1  0  0  0  0
 37 94  1  0  0  0  0
 38 44  1  0  0  0  0
 38 95  1  0  0  0  0
 38 96  1  0  0  0  0
 39 42  1  0  0  0  0
 39 97  1  0  0  0  0
 39 98  1  0  0  0  0
 41 45  1  0  0  0  0
 41 47  1  0  0  0  0
 41100  1  0  0  0  0
 42 51  1  0  0  0  0
 42101  1  0  0  0  0
 42102  1  0  0  0  0
 43 46  1  0  0  0  0
 45 48  1  0  0  0  0
 45104  1  0  0  0  0
 45105  1  0  0  0  0
 46 53  1  0  0  0  0
 46106  1  0  0  0  0
 48 52  1  0  0  0  0
 48107  1  0  0  0  0
 48108  1  0  0  0  0
 49 50  1  0  0  0  0
 49 55  1  0  0  0  0
 49109  1  0  0  0  0
 50 54  1  0  0  0  0
 50111  1  0  0  0  0
 50112  1  0  0  0  0
 52 59  1  0  0  0  0
 52113  1  0  0  0  0
 52114  1  0  0  0  0
 53115  1  0  0  0  0
 53116  1  0  0  0  0
 53117  1  0  0  0  0
 54 58  1  0  0  0  0
 54121  1  0  0  0  0
 54122  1  0  0  0  0
 56 57  1  0  0  0  0
 56 62  1  0  0  0  0
 56123  1  0  0  0  0
 57 61  1  0  0  0  0
 57125  1  0  0  0  0
 57126  1  0  0  0  0
 58 66  1  0  0  0  0
 58127  1  0  0  0  0
 58128  1  0  0  0  0
 59129  1  0  0  0  0
 59130  1  0  0  0  0
 60 64  1  0  0  0  0
 61 67  1  0  0  0  0
 61 68  2  0  0  0  0
 63 65  1  0  0  0  0
 63 74  1  0  0  0  0
 63131  1  0  0  0  0
 64 70  1  0  0  0  0
 64132  1  0  0  0  0
 65 71  1  0  0  0  0
 65 72  1  0  0  0  0
 65133  1  0  0  0  0
 66135  1  0  0  0  0
 66136  1  0  0  0  0
 67 69  1  0  0  0  0
 67 75  2  0  0  0  0
 68138  1  0  0  0  0
 69 78  2  0  0  0  0
 70143  1  0  0  0  0
 70144  1  0  0  0  0
 70145  1  0  0  0  0
 71146  1  0  0  0  0
 71147  1  0  0  0  0
 71148  1  0  0  0  0
 72149  1  0  0  0  0
 72150  1  0  0  0  0
 72151  1  0  0  0  0
 73 76  1  0  0  0  0
 73 77  1  0  0  0  0
 73152  1  0  0  0  0
 75 79  1  0  0  0  0
 75153  1  0  0  0  0
 76 81  1  0  0  0  0
 76 82  1  0  0  0  0
 76154  1  0  0  0  0
 78 80  1  0  0  0  0
 78155  1  0  0  0  0
 79 80  2  0  0  0  0
 79158  1  0  0  0  0
 80159  1  0  0  0  0
 81161  1  0  0  0  0
 81162  1  0  0  0  0
 81163  1  0  0  0  0
 82164  1  0  0  0  0
 82165  1  0  0  0  0
 82166  1  0  0  0  0
 83 84  1  0  0  0  0
 84169  1  0  0  0  0
 84170  1  0  0  0  0
 84171  1  0  0  0  0
M  END
> <PUBCHEM_COMPOUND_CID>
505365
> <PUBCHEM_COMPOUND_CANONICALIZED>
1
> <PUBCHEM_CACTVS_COMPLEXITY>
2320
> <PUBCHEM_CACTVS_HBOND_ACCEPTOR>
16
> <PUBCHEM_CACTVS_HBOND_DONOR>
15
> <PUBCHEM_CACTVS_ROTATABLE_BOND>
36
> <PUBCHEM_CACTVS_SUBSKEYS>
AAADcfB//AAAAAAAAAAAAAAAAAAAAWLAAAAwAAAAAAAAAFgB8AAAHgAQCAAADSjBngQ+yPPJkgCoAzX3XACCgCAxAiAI2aG4ZJgIYPrA0bGUYAhklgDIyAe9n8KOgAAAAAACAAAAAAAAAAQAAAAAAAAAAA==
> <PUBCHEM_IUPAC_OPENEYE_NAME>
(4S)-4-[[(2S)-1-[(2S)-2-[[(2S)-2-[[(2S)-2-[[(2S)-2-acetamido-3-methyl-butanoyl]amino]propanoyl]amino]propanoyl]amino]-4-amino-4-oxo-butanoyl]pyrrolidine-2-carbonyl]amino]-5-[[(1S)-5-amino-1-[[(1S)-5-amino-1-[[(1S)-2-[[(1S)-1-carbamoyl-2-methyl-propyl]amino]-1-(1H-indol-3-ylmethyl)-2-oxo-ethyl]carbamoyl]pentyl]carbamoyl]pentyl]amino]-5-oxo-pentanoic acid
> <PUBCHEM_IUPAC_CAS_NAME>
(4S)-4-[[[(2S)-1-[(2S)-2-[[(2S)-2-[[(2S)-2-[[(2S)-2-acetamido-3-methyl-1-oxobutyl]amino]-1-oxopropyl]amino]-1-oxopropyl]amino]-4-amino-1,4-dioxobutyl]-2-pyrrolidinyl]-oxomethyl]amino]-5-[[(2S)-6-amino-1-[[(2S)-6-amino-1-[[(2S)-1-[[(2S)-1-amino-3-methyl-1-oxobutan-2-yl]amino]-3-(1H-indol-3-yl)-1-oxopropan-2-yl]amino]-1-oxohexan-2-yl]amino]-1-oxohexan-2-yl]amino]-5-oxopentanoic acid
> <PUBCHEM_IUPAC_NAME_MARKUP>
(4<I>S</I>)-4-[[(2<I>S</I>)-1-[(2<I>S</I>)-2-[[(2<I>S</I>)-2-[[(2<I>S</I>)-2-[[(2<I>S</I>)-2-acetamido-3-methylbutanoyl]amino]propanoyl]amino]propanoyl]amino]-4-amino-4-oxobutanoyl]pyrrolidine-2-carbonyl]amino]-5-[[(2<I>S</I>)-6-amino-1-[[(2<I>S</I>)-6-amino-1-[[(2<I>S</I>)-1-[[(2<I>S</I>)-1-amino-3-methyl-1-oxobutan-2-yl]amino]-3-(1<I>H</I>-indol-3-yl)-1-oxopropan-2-yl]amino]-1-oxohexan-2-yl]amino]-1-oxohexan-2-yl]amino]-5-oxopentanoic acid
> <PUBCHEM_IUPAC_NAME>
(4S)-4-[[(2S)-1-[(2S)-2-[[(2S)-2-[[(2S)-2-[[(2S)-2-acetamido-3-methylbutanoyl]amino]propanoyl]amino]propanoyl]amino]-4-amino-4-oxobutanoyl]pyrrolidine-2-carbonyl]amino]-5-[[(2S)-6-amino-1-[[(2S)-6-amino-1-[[(2S)-1-[[(2S)-1-amino-3-methyl-1-oxobutan-2-yl]amino]-3-(1H-indol-3-yl)-1-oxopropan-2-yl]amino]-1-oxohexan-2-yl]amino]-1-oxohexan-2-yl]amino]-5-oxopentanoic acid
> <PUBCHEM_IUPAC_SYSTEMATIC_NAME>
(4S)-4-[[(2S)-1-[(2S)-2-[[(2S)-2-[[(2S)-2-[[(2S)-2-acetamido-3-methyl-butanoyl]amino]propanoyl]amino]propanoyl]amino]-4-azanyl-4-oxidanylidene-butanoyl]pyrrolidin-2-yl]carbonylamino]-5-[[(2S)-6-azanyl-1-[[(2S)-6-azanyl-1-[[(2S)-1-[[(2S)-1-azanyl-3-methyl-1-oxidanylidene-butan-2-yl]amino]-3-(1H-indol-3-yl)-1-oxidanylidene-propan-2-yl]amino]-1-oxidanylidene-hexan-2-yl]amino]-1-oxidanylidene-hexan-2-yl]amino]-5-oxidanylidene-pentanoic acid
> <PUBCHEM_IUPAC_TRADITIONAL_NAME>
(4S)-4-[[(2S)-1-[(2S)-2-[[(2S)-2-[[(2S)-2-[[(2S)-2-acetamido-3-methyl-butanoyl]amino]propanoyl]amino]propanoyl]amino]-4-amino-4-keto-butanoyl]prolyl]amino]-5-[[(1S)-5-amino-1-[[(1S)-5-amino-1-[[(1S)-2-[[(1S)-1-carbamoyl-2-methyl-propyl]amino]-1-(1H-indol-3-ylmethyl)-2-keto-ethyl]carbamoyl]pentyl]carbamoyl]pentyl]amino]-5-keto-valeric acid
> <PUBCHEM_IUPAC_INCHI>
InChI=1S/C55H87N15O14/c1-28(2)44(46(59)75)69-52(81)39(25-33-27-60-35-16-9-8-15-34(33)35)67-50(79)37(18-11-13-23-57)64-49(78)36(17-10-12-22-56)65-51(80)38(20-21-43(73)74)66-53(82)41-19-14-24-70(41)55(84)40(26-42(58)72)68-48(77)31(6)61-47(76)30(5)62-54(83)45(29(3)4)63-32(7)71/h8-9,15-16,27-31,36-41,44-45,60H,10-14,17-26,56-57H2,1-7H3,(H2,58,72)(H2,59,75)(H,61,76)(H,62,83)(H,63,71)(H,64,78)(H,65,80)(H,66,82)(H,67,79)(H,68,77)(H,69,81)(H,73,74)/t30-,31-,36-,37-,38-,39-,40-,41-,44-,45-/m0/s1
> <PUBCHEM_IUPAC_INCHIKEY>
UVQIVZDHYZSYMG-GCBVITCMSA-N
> <PUBCHEM_XLOGP3_AA>
-4.2
> <PUBCHEM_EXACT_MASS>
1181.65569251
> <PUBCHEM_MOLECULAR_FORMULA>
C55H87N15O14
> <PUBCHEM_MOLECULAR_WEIGHT>
1182.4
> <PUBCHEM_OPENEYE_CAN_SMILES>
CC(C)C(C(=O)N)NC(=O)C(CC1=CNC2=CC=CC=C21)NC(=O)C(CCCCN)NC(=O)C(CCCCN)NC(=O)C(CCC(=O)O)NC(=O)C3CCCN3C(=O)C(CC(=O)N)NC(=O)C(C)NC(=O)C(C)NC(=O)C(C(C)C)NC(=O)C
> <PUBCHEM_OPENEYE_ISO_SMILES>
C[C@@H](C(=O)N[C@@H](CC(=O)N)C(=O)N1CCC[C@H]1C(=O)N[C@@H](CCC(=O)O)C(=O)N[C@@H](CCCCN)C(=O)N[C@@H](CCCCN)C(=O)N[C@@H](CC2=CNC3=CC=CC=C32)C(=O)N[C@@H](C(C)C)C(=O)N)NC(=O)[C@H](C)NC(=O)[C@H](C(C)C)NC(=O)C
> <PUBCHEM_CACTVS_TPSA>
474
> <PUBCHEM_MONOISOTOPIC_WEIGHT>
1181.65569251
> <PUBCHEM_TOTAL_CHARGE>
0
> <PUBCHEM_HEAVY_ATOM_COUNT>
84
> <PUBCHEM_ATOM_DEF_STEREO_COUNT>
10
> <PUBCHEM_ATOM_UDEF_STEREO_COUNT>
0
> <PUBCHEM_BOND_DEF_STEREO_COUNT>
0
> <PUBCHEM_BOND_UDEF_STEREO_COUNT>
0
> <PUBCHEM_ISOTOPIC_ATOM_COUNT>
0
> <PUBCHEM_COMPONENT_COUNT>
1
> <PUBCHEM_CACTVS_TAUTO_COUNT>
-1
> <PUBCHEM_COORDINATE_TYPE>
1
5
255
> <PUBCHEM_BONDANNOTATIONS>
37  16  5
36  17  5
41  18  6
49  19  5
46  21  6
56  22  5
63  23  6
64  24  5
26  68  8
26  69  8
73  28  6
30  34  6
61  67  8
61  68  8
67  69  8
67  75  8
69  78  8
75  79  8
78  80  8
79  80  8
$$$$
