505376
  -OEChem-10302200282D
125130  0     1  0  0  0  0  0999 V2000
    7.2869    6.2030    0.0000 S   0  0  0  0  0  0  0  0  0  0  0  0
    6.7581    3.5436    0.0000 O   0  0  0  0  0  0  0  0  0  0  0  0
    7.9735    3.1341    0.0000 O   0  0  0  0  0  0  0  0  0  0  0  0
    6.2869    6.2085    0.0000 O   0  0  0  0  0  0  0  0  0  0  0  0
    4.7117    7.1550    0.0000 O   0  0  0  0  0  0  0  0  0  0  0  0
    2.6200    7.1587    0.0000 O   0  0  0  0  0  0  0  0  0  0  0  0
    8.2869    6.1974    0.0000 O   0  0  0  0  0  0  0  0  0  0  0  0
    7.2925    7.2029    0.0000 O   0  0  0  0  0  0  0  0  0  0  0  0
    7.2813    5.2030    0.0000 O   0  0  0  0  0  0  0  0  0  0  0  0
    7.2835   -3.1976    0.0000 O   0  0  0  0  0  0  0  0  0  0  0  0
    5.5234   -2.9188    0.0000 O   0  0  0  0  0  0  0  0  0  0  0  0
    6.6112   -5.2667    0.0000 O   0  0  0  0  0  0  0  0  0  0  0  0
    4.4356   -5.2667    0.0000 O   0  0  0  0  0  0  0  0  0  0  0  0
    3.5554   -2.2194    0.0000 O   0  0  0  0  0  0  0  0  0  0  0  0
    8.0125   -4.2486    0.0000 O   0  0  0  0  0  0  0  0  0  0  0  0
    7.7868   -6.8847    0.0000 O   0  0  0  0  0  0  0  0  0  0  0  0
    9.7758   -6.6756    0.0000 O   0  0  0  0  0  0  0  0  0  0  0  0
   10.5893   -4.8486    0.0000 O   0  0  0  0  0  0  0  0  0  0  0  0
    5.7581    3.5454    0.0000 C   0  0  2  0  0  0  0  0  0  0  0  0
    6.2566    2.6785    0.0000 C   0  0  1  0  0  0  0  0  0  0  0  0
    5.7551    1.8133    0.0000 C   0  0  1  0  0  0  0  0  0  0  0  0
    4.7581    3.5471    0.0000 C   0  0  1  0  0  0  0  0  0  0  0  0
    4.2250    4.4420    0.0000 C   0  0  2  0  0  0  0  0  0  0  0  0
    6.4209    1.0751    0.0000 C   0  0  2  0  0  0  0  0  0  0  0  0
    4.7404    5.3471    0.0000 C   0  0  1  0  0  0  0  0  0  0  0  0
    4.7551    1.8150    0.0000 C   0  0  0  0  0  0  0  0  0  0  0  0
    4.2566    2.6819    0.0000 C   0  0  0  0  0  0  0  0  0  0  0  0
    7.2281    2.4676    0.0000 C   0  0  1  0  0  0  0  0  0  0  0  0
    6.2943    4.4384    0.0000 C   0  0  0  0  0  0  0  0  0  0  0  0
    7.3294    1.4787    0.0000 C   0  0  0  0  0  0  0  0  0  0  0  0
    5.7821    5.3453    0.0000 C   0  0  2  0  0  0  0  0  0  0  0  0
    3.1403    4.4187    0.0000 C   0  0  0  0  0  0  0  0  0  0  0  0
    5.2536    0.9481    0.0000 C   0  0  0  0  0  0  0  0  0  0  0  0
    4.2068    6.2918    0.0000 C   0  0  2  0  0  0  0  0  0  0  0  0
    6.2130    0.0970    0.0000 C   0  0  1  0  0  0  0  0  0  0  0  0
    3.7302    3.5730    0.0000 C   0  0  0  0  0  0  0  0  0  0  0  0
    2.5850    5.3508    0.0000 C   0  0  0  0  0  0  0  0  0  0  0  0
    3.1218    6.2937    0.0000 C   0  0  2  0  0  0  0  0  0  0  0  0
    6.9562   -0.5721    0.0000 C   0  0  0  0  0  0  0  0  0  0  0  0
    5.2620   -0.2120    0.0000 C   0  0  0  0  0  0  0  0  0  0  0  0
    6.7483   -1.5503    0.0000 C   0  0  0  0  0  0  0  0  0  0  0  0
    7.4914   -2.2194    0.0000 C   0  0  1  0  0  0  0  0  0  0  0  0
    8.4425   -1.9104    0.0000 C   0  0  0  0  0  0  0  0  0  0  0  0
    8.6504   -0.9323    0.0000 C   0  0  0  0  0  0  0  0  0  0  0  0
    9.1856   -2.5795    0.0000 C   0  0  0  0  0  0  0  0  0  0  0  0
    6.3324   -3.5066    0.0000 C   0  0  2  0  0  0  0  0  0  0  0  0
    6.0234   -4.4576    0.0000 C   0  0  1  0  0  0  0  0  0  0  0  0
    5.0234   -4.4576    0.0000 C   0  0  2  0  0  0  0  0  0  0  0  0
    4.7144   -3.5066    0.0000 C   0  0  1  0  0  0  0  0  0  0  0  0
    3.7634   -3.1976    0.0000 C   0  0  0  0  0  0  0  0  0  0  0  0
    7.6057   -5.1621    0.0000 C   0  0  2  0  0  0  0  0  0  0  0  0
    8.1935   -5.9712    0.0000 C   0  0  1  0  0  0  0  0  0  0  0  0
    9.1880   -5.8666    0.0000 C   0  0  2  0  0  0  0  0  0  0  0  0
    9.5948   -4.9531    0.0000 C   0  0  1  0  0  0  0  0  0  0  0  0
    9.0070   -4.1441    0.0000 C   0  0  0  0  0  0  0  0  0  0  0  0
    8.3746   -7.6937    0.0000 C   0  0  0  0  0  0  0  0  0  0  0  0
   10.9960   -3.9350    0.0000 C   0  0  0  0  0  0  0  0  0  0  0  0
    6.7583    3.3646    0.0000 H   0  0  0  0  0  0  0  0  0  0  0  0
    5.1787    4.2857    0.0000 H   0  0  0  0  0  0  0  0  0  0  0  0
    7.0813    0.5399    0.0000 H   0  0  0  0  0  0  0  0  0  0  0  0
    5.1695    6.0809    0.0000 H   0  0  0  0  0  0  0  0  0  0  0  0
    4.1722    1.6040    0.0000 H   0  0  0  0  0  0  0  0  0  0  0  0
    4.8617    1.2043    0.0000 H   0  0  0  0  0  0  0  0  0  0  0  0
    3.7824    3.0813    0.0000 H   0  0  0  0  0  0  0  0  0  0  0  0
    3.7810    2.2842    0.0000 H   0  0  0  0  0  0  0  0  0  0  0  0
    7.0700    3.0671    0.0000 H   0  0  0  0  0  0  0  0  0  0  0  0
    6.7634    4.0330    0.0000 H   0  0  0  0  0  0  0  0  0  0  0  0
    6.7740    4.8312    0.0000 H   0  0  0  0  0  0  0  0  0  0  0  0
    7.5202    0.8887    0.0000 H   0  0  0  0  0  0  0  0  0  0  0  0
    7.9361    1.6064    0.0000 H   0  0  0  0  0  0  0  0  0  0  0  0
    5.4740    5.8834    0.0000 H   0  0  0  0  0  0  0  0  0  0  0  0
    2.5612    4.1972    0.0000 H   0  0  0  0  0  0  0  0  0  0  0  0
    3.2594    3.8103    0.0000 H   0  0  0  0  0  0  0  0  0  0  0  0
    4.7172    1.2591    0.0000 H   0  0  0  0  0  0  0  0  0  0  0  0
    4.9427    0.4117    0.0000 H   0  0  0  0  0  0  0  0  0  0  0  0
    5.7900    0.6372    0.0000 H   0  0  0  0  0  0  0  0  0  0  0  0
    4.8268    6.2872    0.0000 H   0  0  0  0  0  0  0  0  0  0  0  0
    5.7523    0.5118    0.0000 H   0  0  0  0  0  0  0  0  0  0  0  0
    3.1914    3.8797    0.0000 H   0  0  0  0  0  0  0  0  0  0  0  0
    3.4234    3.0342    0.0000 H   0  0  0  0  0  0  0  0  0  0  0  0
    4.2690    3.2662    0.0000 H   0  0  0  0  0  0  0  0  0  0  0  0
    2.1066    5.7453    0.0000 H   0  0  0  0  0  0  0  0  0  0  0  0
    2.1145    4.9471    0.0000 H   0  0  0  0  0  0  0  0  0  0  0  0
    3.4317    6.8307    0.0000 H   0  0  0  0  0  0  0  0  0  0  0  0
    7.0691    4.0800    0.0000 H   0  0  0  0  0  0  0  0  0  0  0  0
    7.5310   -0.8044    0.0000 H   0  0  0  0  0  0  0  0  0  0  0  0
    7.2847   -0.0464    0.0000 H   0  0  0  0  0  0  0  0  0  0  0  0
    8.5625    2.9405    0.0000 H   0  0  0  0  0  0  0  0  0  0  0  0
    5.0704    0.3776    0.0000 H   0  0  0  0  0  0  0  0  0  0  0  0
    4.6723   -0.4036    0.0000 H   0  0  0  0  0  0  0  0  0  0  0  0
    5.4536   -0.8017    0.0000 H   0  0  0  0  0  0  0  0  0  0  0  0
    4.4047    7.6937    0.0000 H   0  0  0  0  0  0  0  0  0  0  0  0
    6.1734   -1.3180    0.0000 H   0  0  0  0  0  0  0  0  0  0  0  0
    6.4197   -2.0761    0.0000 H   0  0  0  0  0  0  0  0  0  0  0  0
    2.0000    7.1574    0.0000 H   0  0  0  0  0  0  0  0  0  0  0  0
    6.9018   -2.4110    0.0000 H   0  0  0  0  0  0  0  0  0  0  0  0
    8.3136   -2.5169    0.0000 H   0  0  0  0  0  0  0  0  0  0  0  0
    8.5998    6.7326    0.0000 H   0  0  0  0  0  0  0  0  0  0  0  0
    9.2568   -1.0612    0.0000 H   0  0  0  0  0  0  0  0  0  0  0  0
    8.7793   -0.3258    0.0000 H   0  0  0  0  0  0  0  0  0  0  0  0
    8.0439   -0.8034    0.0000 H   0  0  0  0  0  0  0  0  0  0  0  0
    8.7708   -3.0403    0.0000 H   0  0  0  0  0  0  0  0  0  0  0  0
    9.6464   -2.9944    0.0000 H   0  0  0  0  0  0  0  0  0  0  0  0
    9.6005   -2.1188    0.0000 H   0  0  0  0  0  0  0  0  0  0  0  0
    6.4294   -2.8942    0.0000 H   0  0  0  0  0  0  0  0  0  0  0  0
    5.7420   -5.0101    0.0000 H   0  0  0  0  0  0  0  0  0  0  0  0
    4.4111   -4.3607    0.0000 H   0  0  0  0  0  0  0  0  0  0  0  0
    4.6174   -2.8942    0.0000 H   0  0  0  0  0  0  0  0  0  0  0  0
    3.1437   -3.2192    0.0000 H   0  0  0  0  0  0  0  0  0  0  0  0
    3.6771   -3.8115    0.0000 H   0  0  0  0  0  0  0  0  0  0  0  0
    3.8190   -5.2018    0.0000 H   0  0  0  0  0  0  0  0  0  0  0  0
    7.3536   -5.7285    0.0000 H   0  0  0  0  0  0  0  0  0  0  0  0
    8.5579   -6.4727    0.0000 H   0  0  0  0  0  0  0  0  0  0  0  0
    2.9658   -2.0278    0.0000 H   0  0  0  0  0  0  0  0  0  0  0  0
    9.8046   -5.8018    0.0000 H   0  0  0  0  0  0  0  0  0  0  0  0
    9.8470   -4.3867    0.0000 H   0  0  0  0  0  0  0  0  0  0  0  0
    9.5642   -3.8723    0.0000 H   0  0  0  0  0  0  0  0  0  0  0  0
    8.8361   -3.5481    0.0000 H   0  0  0  0  0  0  0  0  0  0  0  0
   10.3924   -6.6108    0.0000 H   0  0  0  0  0  0  0  0  0  0  0  0
    7.8730   -8.0581    0.0000 H   0  0  0  0  0  0  0  0  0  0  0  0
    8.7390   -8.1953    0.0000 H   0  0  0  0  0  0  0  0  0  0  0  0
    8.8762   -7.3293    0.0000 H   0  0  0  0  0  0  0  0  0  0  0  0
   11.5624   -4.1872    0.0000 H   0  0  0  0  0  0  0  0  0  0  0  0
   11.2482   -3.3686    0.0000 H   0  0  0  0  0  0  0  0  0  0  0  0
   10.4296   -3.6828    0.0000 H   0  0  0  0  0  0  0  0  0  0  0  0
  1  4  1  0  0  0  0
  1  7  1  0  0  0  0
  1  8  2  0  0  0  0
  1  9  2  0  0  0  0
 19  2  1  6  0  0  0
  2 85  1  0  0  0  0
 28  3  1  6  0  0  0
  3 88  1  0  0  0  0
 31  4  1  1  0  0  0
 34  5  1  6  0  0  0
  5 92  1  0  0  0  0
 38  6  1  6  0  0  0
  6 95  1  0  0  0  0
  7 98  1  0  0  0  0
 42 10  1  1  0  0  0
 46 10  1  1  0  0  0
 11 46  1  0  0  0  0
 11 49  1  0  0  0  0
 47 12  1  6  0  0  0
 51 12  1  6  0  0  0
 48 13  1  1  0  0  0
 13111  1  0  0  0  0
 14 50  1  0  0  0  0
 14114  1  0  0  0  0
 15 51  1  0  0  0  0
 15 55  1  0  0  0  0
 52 16  1  1  0  0  0
 16 56  1  0  0  0  0
 53 17  1  6  0  0  0
 17119  1  0  0  0  0
 54 18  1  1  0  0  0
 18 57  1  0  0  0  0
 19 20  1  0  0  0  0
 19 22  1  0  0  0  0
 19 29  1  0  0  0  0
 20 21  1  0  0  0  0
 20 28  1  0  0  0  0
 20 58  1  1  0  0  0
 21 24  1  0  0  0  0
 21 26  1  0  0  0  0
 21 33  1  6  0  0  0
 22 23  1  0  0  0  0
 22 27  1  0  0  0  0
 22 59  1  1  0  0  0
 23 25  1  0  0  0  0
 23 32  1  0  0  0  0
 23 36  1  6  0  0  0
 24 30  1  0  0  0  0
 24 35  1  0  0  0  0
 24 60  1  1  0  0  0
 25 31  1  0  0  0  0
 25 34  1  0  0  0  0
 25 61  1  1  0  0  0
 26 27  1  0  0  0  0
 26 62  1  0  0  0  0
 26 63  1  0  0  0  0
 27 64  1  0  0  0  0
 27 65  1  0  0  0  0
 28 30  1  0  0  0  0
 28 66  1  0  0  0  0
 29 31  1  0  0  0  0
 29 67  1  0  0  0  0
 29 68  1  0  0  0  0
 30 69  1  0  0  0  0
 30 70  1  0  0  0  0
 31 71  1  0  0  0  0
 32 37  1  0  0  0  0
 32 72  1  0  0  0  0
 32 73  1  0  0  0  0
 33 74  1  0  0  0  0
 33 75  1  0  0  0  0
 33 76  1  0  0  0  0
 34 38  1  0  0  0  0
 34 77  1  0  0  0  0
 35 39  1  0  0  0  0
 35 40  1  1  0  0  0
 35 78  1  0  0  0  0
 36 79  1  0  0  0  0
 36 80  1  0  0  0  0
 36 81  1  0  0  0  0
 37 38  1  0  0  0  0
 37 82  1  0  0  0  0
 37 83  1  0  0  0  0
 38 84  1  0  0  0  0
 39 41  1  0  0  0  0
 39 86  1  0  0  0  0
 39 87  1  0  0  0  0
 40 89  1  0  0  0  0
 40 90  1  0  0  0  0
 40 91  1  0  0  0  0
 41 42  1  0  0  0  0
 41 93  1  0  0  0  0
 41 94  1  0  0  0  0
 42 43  1  0  0  0  0
 42 96  1  0  0  0  0
 43 44  1  0  0  0  0
 43 45  1  0  0  0  0
 43 97  1  0  0  0  0
 44 99  1  0  0  0  0
 44100  1  0  0  0  0
 44101  1  0  0  0  0
 45102  1  0  0  0  0
 45103  1  0  0  0  0
 45104  1  0  0  0  0
 46 47  1  0  0  0  0
 46105  1  0  0  0  0
 47 48  1  0  0  0  0
 47106  1  0  0  0  0
 48 49  1  0  0  0  0
 48107  1  0  0  0  0
 49 50  1  1  0  0  0
 49108  1  0  0  0  0
 50109  1  0  0  0  0
 50110  1  0  0  0  0
 51 52  1  0  0  0  0
 51112  1  0  0  0  0
 52 53  1  0  0  0  0
 52113  1  0  0  0  0
 53 54  1  0  0  0  0
 53115  1  0  0  0  0
 54 55  1  0  0  0  0
 54116  1  0  0  0  0
 55117  1  0  0  0  0
 55118  1  0  0  0  0
 56120  1  0  0  0  0
 56121  1  0  0  0  0
 56122  1  0  0  0  0
 57123  1  0  0  0  0
 57124  1  0  0  0  0
 57125  1  0  0  0  0
M  END
> <PUBCHEM_COMPOUND_CID>
505376
> <PUBCHEM_COMPOUND_CANONICALIZED>
1
> <PUBCHEM_CACTVS_COMPLEXITY>
1470
> <PUBCHEM_CACTVS_HBOND_ACCEPTOR>
17
> <PUBCHEM_CACTVS_HBOND_DONOR>
8
> <PUBCHEM_CACTVS_ROTATABLE_BOND>
14
> <PUBCHEM_CACTVS_SUBSKEYS>
AAADcfB8PgBAAAAAAAAAAAAAAAAAAaIAAAA0YMEAAAAAAGDAAAAAGgAACAAAD1SwgAMCCAAABoAAAAAAADAAAAAAAAAAAAAAAAAREAIAAAAiQAAFAAAHAAHA4PwPgAAAAAAAAADAAAYQADCAAYAADAAAAA==
> <PUBCHEM_IUPAC_OPENEYE_NAME>
[(3S,4R,5R,6S,8S,9R,10S,13R,14S,15R,17R)-3,4,8,15-tetrahydroxy-17-[(1R,4S)-4-[(2R,3R,4S,5R)-4-hydroxy-3-[(2S,3R,4S,5R)-4-hydroxy-3,5-dimethoxy-tetrahydropyran-2-yl]oxy-5-(hydroxymethyl)tetrahydrofuran-2-yl]oxy-1,5-dimethyl-hexyl]-10,13-dimethyl-1,2,3,4,5,6,7,9,11,12,14,15,16,17-tetradecahydrocyclopenta[a]phenanthren-6-yl] hydrogen sulfate
> <PUBCHEM_IUPAC_CAS_NAME>
sulfuric acid [(3S,4R,5R,6S,8S,9R,10S,13R,14S,15R,17R)-3,4,8,15-tetrahydroxy-17-[(2R,5S)-5-[[(2R,3R,4S,5R)-4-hydroxy-3-[[(2S,3R,4S,5R)-4-hydroxy-3,5-dimethoxy-2-oxanyl]oxy]-5-(hydroxymethyl)-2-oxolanyl]oxy]-6-methylheptan-2-yl]-10,13-dimethyl-1,2,3,4,5,6,7,9,11,12,14,15,16,17-tetradecahydrocyclopenta[a]phenanthren-6-yl] ester
> <PUBCHEM_IUPAC_NAME_MARKUP>
[(3<I>S</I>,4<I>R</I>,5<I>R</I>,6<I>S</I>,8<I>S</I>,9<I>R</I>,10<I>S</I>,13<I>R</I>,14<I>S</I>,15<I>R</I>,17<I>R</I>)-3,4,8,15-tetrahydroxy-17-[(2<I>R</I>,5<I>S</I>)-5-[(2<I>R</I>,3<I>R</I>,4<I>S</I>,5<I>R</I>)-4-hydroxy-3-[(2<I>S</I>,3<I>R</I>,4<I>S</I>,5<I>R</I>)-4-hydroxy-3,5-dimethoxyoxan-2-yl]oxy-5-(hydroxymethyl)oxolan-2-yl]oxy-6-methylheptan-2-yl]-10,13-dimethyl-1,2,3,4,5,6,7,9,11,12,14,15,16,17-tetradecahydrocyclopenta[a]phenanthren-6-yl] hydrogen sulfate
> <PUBCHEM_IUPAC_NAME>
[(3S,4R,5R,6S,8S,9R,10S,13R,14S,15R,17R)-3,4,8,15-tetrahydroxy-17-[(2R,5S)-5-[(2R,3R,4S,5R)-4-hydroxy-3-[(2S,3R,4S,5R)-4-hydroxy-3,5-dimethoxyoxan-2-yl]oxy-5-(hydroxymethyl)oxolan-2-yl]oxy-6-methylheptan-2-yl]-10,13-dimethyl-1,2,3,4,5,6,7,9,11,12,14,15,16,17-tetradecahydrocyclopenta[a]phenanthren-6-yl] hydrogen sulfate
> <PUBCHEM_IUPAC_SYSTEMATIC_NAME>
[(3S,4R,5R,6S,8S,9R,10S,13R,14S,15R,17R)-17-[(2R,5S)-5-[(2R,3R,4S,5R)-3-[(2S,3R,4S,5R)-3,5-dimethoxy-4-oxidanyl-oxan-2-yl]oxy-5-(hydroxymethyl)-4-oxidanyl-oxolan-2-yl]oxy-6-methyl-heptan-2-yl]-10,13-dimethyl-3,4,8,15-tetrakis(oxidanyl)-1,2,3,4,5,6,7,9,11,12,14,15,16,17-tetradecahydrocyclopenta[a]phenanthren-6-yl] hydrogen sulfate
> <PUBCHEM_IUPAC_TRADITIONAL_NAME>
sulfuric acid [(3S,4R,5R,6S,8S,9R,10S,13R,14S,15R,17R)-3,4,8,15-tetrahydroxy-17-[(1R,4S)-4-[(2R,3R,4S,5R)-4-hydroxy-3-[(2S,3R,4S,5R)-4-hydroxy-3,5-dimethoxy-tetrahydropyran-2-yl]oxy-5-methylol-tetrahydrofuran-2-yl]oxy-1,5-dimethyl-hexyl]-10,13-dimethyl-1,2,3,4,5,6,7,9,11,12,14,15,16,17-tetradecahydrocyclopenta[a]phenanthren-6-yl] ester
> <PUBCHEM_IUPAC_INCHI>
InChI=1S/C39H68O17S/c1-18(2)23(53-36-33(30(44)25(16-40)54-36)55-35-32(51-7)31(45)26(50-6)17-52-35)9-8-19(3)20-14-22(42)34-37(20,4)13-11-27-38(5)12-10-21(41)29(43)28(38)24(15-39(27,34)46)56-57(47,48)49/h18-36,40-46H,8-17H2,1-7H3,(H,47,48,49)/t19-,20-,21+,22-,23+,24+,25-,26-,27-,28+,29+,30+,31+,32-,33-,34-,35+,36-,37-,38-,39+/m1/s1
> <PUBCHEM_IUPAC_INCHIKEY>
SBUYWVKFMQFUOY-HPWQZGQYSA-N
> <PUBCHEM_XLOGP3_AA>
1.1
> <PUBCHEM_EXACT_MASS>
840.41772187
> <PUBCHEM_MOLECULAR_FORMULA>
C39H68O17S
> <PUBCHEM_MOLECULAR_WEIGHT>
841.0
> <PUBCHEM_OPENEYE_CAN_SMILES>
CC(C)C(CCC(C)C1CC(C2C1(CCC3C2(CC(C4C3(CCC(C4O)O)C)OS(=O)(=O)O)O)C)O)OC5C(C(C(O5)CO)O)OC6C(C(C(CO6)OC)O)OC
> <PUBCHEM_OPENEYE_ISO_SMILES>
C[C@H](CC[C@@H](C(C)C)O[C@H]1[C@@H]([C@H]([C@H](O1)CO)O)O[C@H]2[C@@H]([C@H]([C@@H](CO2)OC)O)OC)[C@H]3C[C@H]([C@@H]4[C@@]3(CC[C@H]5[C@]4(C[C@@H]([C@@H]6[C@@]5(CC[C@@H]([C@@H]6O)O)C)OS(=O)(=O)O)O)C)O
> <PUBCHEM_CACTVS_TPSA>
269
> <PUBCHEM_MONOISOTOPIC_WEIGHT>
840.41772187
> <PUBCHEM_TOTAL_CHARGE>
0
> <PUBCHEM_HEAVY_ATOM_COUNT>
57
> <PUBCHEM_ATOM_DEF_STEREO_COUNT>
21
> <PUBCHEM_ATOM_UDEF_STEREO_COUNT>
0
> <PUBCHEM_BOND_DEF_STEREO_COUNT>
0
> <PUBCHEM_BOND_UDEF_STEREO_COUNT>
0
> <PUBCHEM_ISOTOPIC_ATOM_COUNT>
0
> <PUBCHEM_COMPONENT_COUNT>
1
> <PUBCHEM_CACTVS_TAUTO_COUNT>
-1
> <PUBCHEM_COORDINATE_TYPE>
1
5
255
> <PUBCHEM_BONDANNOTATIONS>
42  10  5
46  10  5
47  12  6
51  12  6
48  13  5
52  16  5
53  17  6
54  18  5
19  2  6
20  58  5
21  33  6
22  59  5
23  36  6
24  60  5
25  61  5
28  3  6
35  40  5
31  4  5
49  50  5
34  5  6
38  6  6
$$$$
