505601
  -OEChem-10302200282D
 55 57  0     1  0  0  0  0  0999 V2000
    3.7320   -0.6830    0.0000 F   0  0  0  0  0  0  0  0  0  0  0  0
    3.7320    2.3170    0.0000 O   0  0  0  0  0  0  0  0  0  0  0  0
    6.3301   -0.1830    0.0000 O   0  0  0  0  0  0  0  0  0  0  0  0
    5.4641    1.3170    0.0000 O   0  0  0  0  0  0  0  0  0  0  0  0
    2.8660    0.8170    0.0000 O   0  0  0  0  0  0  0  0  0  0  0  0
    5.4641   -1.6830    0.0000 N   0  0  0  0  0  0  0  0  0  0  0  0
    6.3301   -2.1830    0.0000 C   0  0  0  0  0  0  0  0  0  0  0  0
    2.8660    2.8170    0.0000 C   0  0  0  0  0  0  0  0  0  0  0  0
    7.1962   -1.6830    0.0000 C   0  0  0  0  0  0  0  0  0  0  0  0
    8.9282   -1.6830    0.0000 C   0  0  0  0  0  0  0  0  0  0  0  0
    8.0622   -2.1830    0.0000 C   0  0  0  0  0  0  0  0  0  0  0  0
    4.5981   -2.1830    0.0000 C   0  0  0  0  0  0  0  0  0  0  0  0
    8.9282   -0.6830    0.0000 C   0  0  0  0  0  0  0  0  0  0  0  0
    5.4641   -0.6830    0.0000 C   0  0  0  0  0  0  0  0  0  0  0  0
    7.1962   -0.6830    0.0000 C   0  0  0  0  0  0  0  0  0  0  0  0
    2.0000    3.3170    0.0000 C   0  0  0  0  0  0  0  0  0  0  0  0
    3.3660    3.6830    0.0000 C   0  0  0  0  0  0  0  0  0  0  0  0
    2.3660    1.9510    0.0000 C   0  0  0  0  0  0  0  0  0  0  0  0
    4.5981   -0.1830    0.0000 C   0  0  3  0  0  0  0  0  0  0  0  0
    8.0622   -0.1830    0.0000 C   0  0  0  0  0  0  0  0  0  0  0  0
    9.8222   -2.2177    0.0000 C   0  0  0  0  0  0  0  0  0  0  0  0
    4.5981    0.8170    0.0000 C   0  0  0  0  0  0  0  0  0  0  0  0
    9.8222   -0.1484    0.0000 C   0  0  0  0  0  0  0  0  0  0  0  0
    4.5981   -3.1830    0.0000 C   0  0  0  0  0  0  0  0  0  0  0  0
    3.7320   -1.6830    0.0000 C   0  0  0  0  0  0  0  0  0  0  0  0
    3.7320    1.3170    0.0000 C   0  0  0  0  0  0  0  0  0  0  0  0
   10.7282   -1.7038    0.0000 C   0  0  0  0  0  0  0  0  0  0  0  0
   10.7282   -0.6622    0.0000 C   0  0  0  0  0  0  0  0  0  0  0  0
    3.7320   -3.6830    0.0000 C   0  0  0  0  0  0  0  0  0  0  0  0
    2.8660   -2.1830    0.0000 C   0  0  0  0  0  0  0  0  0  0  0  0
    2.8660   -3.1830    0.0000 C   0  0  0  0  0  0  0  0  0  0  0  0
    5.9316   -2.6580    0.0000 H   0  0  0  0  0  0  0  0  0  0  0  0
    6.7287   -2.6580    0.0000 H   0  0  0  0  0  0  0  0  0  0  0  0
    8.0622   -2.8030    0.0000 H   0  0  0  0  0  0  0  0  0  0  0  0
    6.6592   -0.3730    0.0000 H   0  0  0  0  0  0  0  0  0  0  0  0
    2.3100    3.8539    0.0000 H   0  0  0  0  0  0  0  0  0  0  0  0
    1.4631    3.6270    0.0000 H   0  0  0  0  0  0  0  0  0  0  0  0
    1.6900    2.7800    0.0000 H   0  0  0  0  0  0  0  0  0  0  0  0
    3.9030    3.3730    0.0000 H   0  0  0  0  0  0  0  0  0  0  0  0
    3.6760    4.2200    0.0000 H   0  0  0  0  0  0  0  0  0  0  0  0
    2.8291    3.9930    0.0000 H   0  0  0  0  0  0  0  0  0  0  0  0
    1.8291    2.2610    0.0000 H   0  0  0  0  0  0  0  0  0  0  0  0
    2.0560    1.4140    0.0000 H   0  0  0  0  0  0  0  0  0  0  0  0
    2.9030    1.6410    0.0000 H   0  0  0  0  0  0  0  0  0  0  0  0
    4.5981   -0.8030    0.0000 H   0  0  0  0  0  0  0  0  0  0  0  0
    8.0622    0.4370    0.0000 H   0  0  0  0  0  0  0  0  0  0  0  0
    9.8150   -2.8376    0.0000 H   0  0  0  0  0  0  0  0  0  0  0  0
    9.8150    0.4716    0.0000 H   0  0  0  0  0  0  0  0  0  0  0  0
    5.1350   -3.4930    0.0000 H   0  0  0  0  0  0  0  0  0  0  0  0
    3.7320   -1.0630    0.0000 H   0  0  0  0  0  0  0  0  0  0  0  0
   11.2639   -2.0159    0.0000 H   0  0  0  0  0  0  0  0  0  0  0  0
   11.2639   -0.3501    0.0000 H   0  0  0  0  0  0  0  0  0  0  0  0
    3.7320   -4.3030    0.0000 H   0  0  0  0  0  0  0  0  0  0  0  0
    2.3291   -1.8730    0.0000 H   0  0  0  0  0  0  0  0  0  0  0  0
    2.3291   -3.4930    0.0000 H   0  0  0  0  0  0  0  0  0  0  0  0
  1 19  1  0  0  0  0
  2  8  1  0  0  0  0
  2 26  1  0  0  0  0
  3 14  2  0  0  0  0
  4 22  2  0  0  0  0
  5 26  2  0  0  0  0
  6  7  1  0  0  0  0
  6 12  1  0  0  0  0
  6 14  1  0  0  0  0
  7  9  1  0  0  0  0
  7 32  1  0  0  0  0
  7 33  1  0  0  0  0
  8 16  1  0  0  0  0
  8 17  1  0  0  0  0
  8 18  1  0  0  0  0
  9 11  2  0  0  0  0
  9 15  1  0  0  0  0
 10 11  1  0  0  0  0
 10 13  1  0  0  0  0
 10 21  2  0  0  0  0
 11 34  1  0  0  0  0
 12 24  2  0  0  0  0
 12 25  1  0  0  0  0
 13 20  1  0  0  0  0
 13 23  2  0  0  0  0
 14 19  1  0  0  0  0
 15 20  2  0  0  0  0
 15 35  1  0  0  0  0
 16 36  1  0  0  0  0
 16 37  1  0  0  0  0
 16 38  1  0  0  0  0
 17 39  1  0  0  0  0
 17 40  1  0  0  0  0
 17 41  1  0  0  0  0
 18 42  1  0  0  0  0
 18 43  1  0  0  0  0
 18 44  1  0  0  0  0
 19 22  1  0  0  0  0
 19 45  1  0  0  0  0
 20 46  1  0  0  0  0
 21 27  1  0  0  0  0
 21 47  1  0  0  0  0
 22 26  1  0  0  0  0
 23 28  1  0  0  0  0
 23 48  1  0  0  0  0
 24 29  1  0  0  0  0
 24 49  1  0  0  0  0
 25 30  2  0  0  0  0
 25 50  1  0  0  0  0
 27 28  2  0  0  0  0
 27 51  1  0  0  0  0
 28 52  1  0  0  0  0
 29 31  2  0  0  0  0
 29 53  1  0  0  0  0
 30 31  1  0  0  0  0
 30 54  1  0  0  0  0
 31 55  1  0  0  0  0
M  END
> <PUBCHEM_COMPOUND_CID>
505601
> <PUBCHEM_COMPOUND_CANONICALIZED>
1
> <PUBCHEM_CACTVS_COMPLEXITY>
652
> <PUBCHEM_CACTVS_HBOND_ACCEPTOR>
5
> <PUBCHEM_CACTVS_HBOND_DONOR>
0
> <PUBCHEM_CACTVS_ROTATABLE_BOND>
8
> <PUBCHEM_CACTVS_SUBSKEYS>
AAADceB6OQAAAAAAAAAAAAAAAAAAAAAAAAAwYMAAAAAAAADBVAAAHwAAAAAADEzBmAQyyMMABACIAqXSWAKCAAAhAgAIiAFIZIgIIDrIkZWGIAhkhgDIyAc3gMAOwAACAAAQAACAAAQAACAAAAAAAAAAAA==
> <PUBCHEM_IUPAC_OPENEYE_NAME>
tert-butyl 3-fluoro-4-[N-(2-naphthylmethyl)anilino]-2,4-dioxo-butanoate
> <PUBCHEM_IUPAC_CAS_NAME>
3-fluoro-4-[N-(2-naphthalenylmethyl)anilino]-2,4-dioxobutanoic acid tert-butyl ester
> <PUBCHEM_IUPAC_NAME_MARKUP>
<I>tert</I>-butyl 3-fluoro-4-[<I>N</I>-(naphthalen-2-ylmethyl)anilino]-2,4-dioxobutanoate
> <PUBCHEM_IUPAC_NAME>
tert-butyl 3-fluoro-4-[N-(naphthalen-2-ylmethyl)anilino]-2,4-dioxobutanoate
> <PUBCHEM_IUPAC_SYSTEMATIC_NAME>
tert-butyl 3-fluoranyl-4-[naphthalen-2-ylmethyl(phenyl)amino]-2,4-bis(oxidanylidene)butanoate
> <PUBCHEM_IUPAC_TRADITIONAL_NAME>
3-fluoro-2,4-diketo-4-[N-(2-naphthylmethyl)anilino]butyric acid tert-butyl ester
> <PUBCHEM_IUPAC_INCHI>
InChI=1S/C25H24FNO4/c1-25(2,3)31-24(30)22(28)21(26)23(29)27(20-11-5-4-6-12-20)16-17-13-14-18-9-7-8-10-19(18)15-17/h4-15,21H,16H2,1-3H3
> <PUBCHEM_IUPAC_INCHIKEY>
JXMPBPHISZFGGS-UHFFFAOYSA-N
> <PUBCHEM_XLOGP3_AA>
5.4
> <PUBCHEM_EXACT_MASS>
421.16893641
> <PUBCHEM_MOLECULAR_FORMULA>
C25H24FNO4
> <PUBCHEM_MOLECULAR_WEIGHT>
421.5
> <PUBCHEM_OPENEYE_CAN_SMILES>
CC(C)(C)OC(=O)C(=O)C(C(=O)N(CC1=CC2=CC=CC=C2C=C1)C3=CC=CC=C3)F
> <PUBCHEM_OPENEYE_ISO_SMILES>
CC(C)(C)OC(=O)C(=O)C(C(=O)N(CC1=CC2=CC=CC=C2C=C1)C3=CC=CC=C3)F
> <PUBCHEM_CACTVS_TPSA>
63.7
> <PUBCHEM_MONOISOTOPIC_WEIGHT>
421.16893641
> <PUBCHEM_TOTAL_CHARGE>
0
> <PUBCHEM_HEAVY_ATOM_COUNT>
31
> <PUBCHEM_ATOM_DEF_STEREO_COUNT>
0
> <PUBCHEM_ATOM_UDEF_STEREO_COUNT>
1
> <PUBCHEM_BOND_DEF_STEREO_COUNT>
0
> <PUBCHEM_BOND_UDEF_STEREO_COUNT>
0
> <PUBCHEM_ISOTOPIC_ATOM_COUNT>
0
> <PUBCHEM_COMPONENT_COUNT>
1
> <PUBCHEM_CACTVS_TAUTO_COUNT>
-1
> <PUBCHEM_COORDINATE_TYPE>
1
5
255
> <PUBCHEM_BONDANNOTATIONS>
19  1  3
10  11  8
10  13  8
10  21  8
12  24  8
12  25  8
13  20  8
13  23  8
15  20  8
21  27  8
23  28  8
24  29  8
25  30  8
27  28  8
29  31  8
30  31  8
9  11  8
9  15  8
$$$$
