505798
  -OEChem-10302200282D
 59 63  0     1  0  0  0  0  0999 V2000
    2.0000    0.1238    0.0000 I   0  0  0  0  0  0  0  0  0  0  0  0
   10.0052   -2.3622    0.0000 F   0  0  0  0  0  0  0  0  0  0  0  0
   13.8756    1.1732    0.0000 O   0  0  0  0  0  0  0  0  0  0  0  0
   14.2422   -0.5196    0.0000 O   0  0  0  0  0  0  0  0  0  0  0  0
    6.3463   -2.1994    0.0000 O   0  0  0  0  0  0  0  0  0  0  0  0
    5.4878    2.0281    0.0000 O   0  0  0  0  0  0  0  0  0  0  0  0
   10.6382   -0.4141    0.0000 N   0  0  3  0  0  0  0  0  0  0  0  0
   12.5929    0.0092    0.0000 N   0  0  0  0  0  0  0  0  0  0  0  0
    5.9862   -0.5052    0.0000 N   0  0  0  0  0  0  0  0  0  0  0  0
    7.2734    0.6538    0.0000 N   0  0  0  0  0  0  0  0  0  0  0  0
   11.3102   -1.1547    0.0000 C   0  0  3  0  0  0  0  0  0  0  0  0
   12.2875   -0.9430    0.0000 C   0  0  0  0  0  0  0  0  0  0  0  0
   10.9436    0.5381    0.0000 C   0  0  0  0  0  0  0  0  0  0  0  0
   11.9209    0.7498    0.0000 C   0  0  0  0  0  0  0  0  0  0  0  0
    9.6609   -0.6258    0.0000 C   0  0  0  0  0  0  0  0  0  0  0  0
   11.0048   -2.1069    0.0000 C   0  0  0  0  0  0  0  0  0  0  0  0
   13.5702    0.2209    0.0000 C   0  0  0  0  0  0  0  0  0  0  0  0
    8.9579    0.1429    0.0000 C   0  0  0  0  0  0  0  0  0  0  0  0
    9.3390   -1.6165    0.0000 C   0  0  0  0  0  0  0  0  0  0  0  0
    7.9425   -0.0894    0.0000 C   0  0  0  0  0  0  0  0  0  0  0  0
    7.6335   -1.0404    0.0000 C   0  0  0  0  0  0  0  0  0  0  0  0
   14.8529    1.3848    0.0000 C   0  0  0  0  0  0  0  0  0  0  0  0
    8.3185   -1.8252    0.0000 C   0  0  0  0  0  0  0  0  0  0  0  0
    6.6554   -1.2483    0.0000 C   0  0  0  0  0  0  0  0  0  0  0  0
    6.2952    0.4459    0.0000 C   0  0  0  0  0  0  0  0  0  0  0  0
    4.9922   -0.5026    0.0000 C   0  0  0  0  0  0  0  0  0  0  0  0
    4.6858    0.4431    0.0000 C   0  0  0  0  0  0  0  0  0  0  0  0
    5.4895    1.0281    0.0000 C   0  0  0  0  0  0  0  0  0  0  0  0
   15.8302    1.5965    0.0000 C   0  0  0  0  0  0  0  0  0  0  0  0
   14.6412    2.3622    0.0000 C   0  0  0  0  0  0  0  0  0  0  0  0
   15.0646    0.4075    0.0000 C   0  0  0  0  0  0  0  0  0  0  0  0
    4.3106   -1.2821    0.0000 C   0  0  0  0  0  0  0  0  0  0  0  0
    3.6766    0.6748    0.0000 C   0  0  0  0  0  0  0  0  0  0  0  0
    3.2963   -1.0738    0.0000 C   0  0  0  0  0  0  0  0  0  0  0  0
    2.9772   -0.0887    0.0000 C   0  0  0  0  0  0  0  0  0  0  0  0
   10.7042   -1.2859    0.0000 H   0  0  0  0  0  0  0  0  0  0  0  0
   12.3116   -1.5625    0.0000 H   0  0  0  0  0  0  0  0  0  0  0  0
   12.9018   -1.0269    0.0000 H   0  0  0  0  0  0  0  0  0  0  0  0
   10.9195    1.1576    0.0000 H   0  0  0  0  0  0  0  0  0  0  0  0
   10.3293    0.6220    0.0000 H   0  0  0  0  0  0  0  0  0  0  0  0
   12.4454    1.0804    0.0000 H   0  0  0  0  0  0  0  0  0  0  0  0
   11.6864    1.3238    0.0000 H   0  0  0  0  0  0  0  0  0  0  0  0
   10.4145   -1.9176    0.0000 H   0  0  0  0  0  0  0  0  0  0  0  0
   10.8155   -2.6973    0.0000 H   0  0  0  0  0  0  0  0  0  0  0  0
   11.5952   -2.2962    0.0000 H   0  0  0  0  0  0  0  0  0  0  0  0
    9.1427    0.7347    0.0000 H   0  0  0  0  0  0  0  0  0  0  0  0
    8.1201   -2.4126    0.0000 H   0  0  0  0  0  0  0  0  0  0  0  0
   15.9615    0.9906    0.0000 H   0  0  0  0  0  0  0  0  0  0  0  0
   16.4362    1.7278    0.0000 H   0  0  0  0  0  0  0  0  0  0  0  0
   15.6990    2.2025    0.0000 H   0  0  0  0  0  0  0  0  0  0  0  0
   15.2472    2.4934    0.0000 H   0  0  0  0  0  0  0  0  0  0  0  0
   14.5100    2.9681    0.0000 H   0  0  0  0  0  0  0  0  0  0  0  0
   14.0353    2.2309    0.0000 H   0  0  0  0  0  0  0  0  0  0  0  0
   14.4586    0.2763    0.0000 H   0  0  0  0  0  0  0  0  0  0  0  0
   15.1958   -0.1985    0.0000 H   0  0  0  0  0  0  0  0  0  0  0  0
   15.6705    0.5387    0.0000 H   0  0  0  0  0  0  0  0  0  0  0  0
    4.5084   -1.8697    0.0000 H   0  0  0  0  0  0  0  0  0  0  0  0
    3.4923    1.2668    0.0000 H   0  0  0  0  0  0  0  0  0  0  0  0
    2.8828   -1.5358    0.0000 H   0  0  0  0  0  0  0  0  0  0  0  0
  1 35  1  0  0  0  0
  2 19  1  0  0  0  0
  3 17  1  0  0  0  0
  3 22  1  0  0  0  0
  4 17  2  0  0  0  0
  5 24  2  0  0  0  0
  6 28  2  0  0  0  0
  7 11  1  0  0  0  0
  7 13  1  0  0  0  0
  7 15  1  0  0  0  0
  8 12  1  0  0  0  0
  8 14  1  0  0  0  0
  8 17  1  0  0  0  0
  9 24  1  0  0  0  0
  9 25  1  0  0  0  0
  9 26  1  0  0  0  0
 10 20  1  0  0  0  0
 10 25  2  0  0  0  0
 11 12  1  0  0  0  0
 11 16  1  0  0  0  0
 11 36  1  0  0  0  0
 12 37  1  0  0  0  0
 12 38  1  0  0  0  0
 13 14  1  0  0  0  0
 13 39  1  0  0  0  0
 13 40  1  0  0  0  0
 14 41  1  0  0  0  0
 14 42  1  0  0  0  0
 15 18  1  0  0  0  0
 15 19  2  0  0  0  0
 16 43  1  0  0  0  0
 16 44  1  0  0  0  0
 16 45  1  0  0  0  0
 18 20  2  0  0  0  0
 18 46  1  0  0  0  0
 19 23  1  0  0  0  0
 20 21  1  0  0  0  0
 21 23  2  0  0  0  0
 21 24  1  0  0  0  0
 22 29  1  0  0  0  0
 22 30  1  0  0  0  0
 22 31  1  0  0  0  0
 23 47  1  0  0  0  0
 25 28  1  0  0  0  0
 26 27  2  0  0  0  0
 26 32  1  0  0  0  0
 27 28  1  0  0  0  0
 27 33  1  0  0  0  0
 29 48  1  0  0  0  0
 29 49  1  0  0  0  0
 29 50  1  0  0  0  0
 30 51  1  0  0  0  0
 30 52  1  0  0  0  0
 30 53  1  0  0  0  0
 31 54  1  0  0  0  0
 31 55  1  0  0  0  0
 31 56  1  0  0  0  0
 32 34  2  0  0  0  0
 32 57  1  0  0  0  0
 33 35  2  0  0  0  0
 33 58  1  0  0  0  0
 34 35  1  0  0  0  0
 34 59  1  0  0  0  0
M  END
> <PUBCHEM_COMPOUND_CID>
505798
> <PUBCHEM_COMPOUND_CANONICALIZED>
1
> <PUBCHEM_CACTVS_COMPLEXITY>
939
> <PUBCHEM_CACTVS_HBOND_ACCEPTOR>
7
> <PUBCHEM_CACTVS_HBOND_DONOR>
0
> <PUBCHEM_CACTVS_ROTATABLE_BOND>
3
> <PUBCHEM_CACTVS_SUBSKEYS>
AAADceB7uQAAAgAAAAAAAAAAAAAAAWAAAAA8YIEAAAAAAFiBQAAAHwAgAAAADGzDmAwzyIMABACoAqdyfACCAAElAgAJiAGoZMgIYDrA3fGcIYhghgDIyccYiYCeCAAAAAQCAAAQAAAACAQAAAAAAAAAAA==
> <PUBCHEM_IUPAC_OPENEYE_NAME>
tert-butyl 4-(2-fluoro-8-iodo-6,12-dioxo-indolo[2,1-b]quinazolin-3-yl)-3-methyl-piperazine-1-carboxylate
> <PUBCHEM_IUPAC_CAS_NAME>
4-(2-fluoro-8-iodo-6,12-dioxo-3-indolo[2,1-b]quinazolinyl)-3-methyl-1-piperazinecarboxylic acid tert-butyl ester
> <PUBCHEM_IUPAC_NAME_MARKUP>
<I>tert</I>-butyl 4-(2-fluoro-8-iodo-6,12-dioxoindolo[2,1-b]quinazolin-3-yl)-3-methylpiperazine-1-carboxylate
> <PUBCHEM_IUPAC_NAME>
tert-butyl 4-(2-fluoro-8-iodo-6,12-dioxoindolo[2,1-b]quinazolin-3-yl)-3-methylpiperazine-1-carboxylate
> <PUBCHEM_IUPAC_SYSTEMATIC_NAME>
tert-butyl 4-[2-fluoranyl-8-iodanyl-6,12-bis(oxidanylidene)indolo[2,1-b]quinazolin-3-yl]-3-methyl-piperazine-1-carboxylate
> <PUBCHEM_IUPAC_TRADITIONAL_NAME>
4-(2-fluoro-8-iodo-6,12-diketo-indolo[2,1-b]quinazolin-3-yl)-3-methyl-piperazine-1-carboxylic acid tert-butyl ester
> <PUBCHEM_IUPAC_INCHI>
InChI=1S/C25H24FIN4O4/c1-13-12-29(24(34)35-25(2,3)4)7-8-30(13)20-11-18-15(10-17(20)26)23(33)31-19-6-5-14(27)9-16(19)21(32)22(31)28-18/h5-6,9-11,13H,7-8,12H2,1-4H3
> <PUBCHEM_IUPAC_INCHIKEY>
LFZBHWBORAJOKV-UHFFFAOYSA-N
> <PUBCHEM_XLOGP3_AA>
4
> <PUBCHEM_EXACT_MASS>
590.08263
> <PUBCHEM_MOLECULAR_FORMULA>
C25H24FIN4O4
> <PUBCHEM_MOLECULAR_WEIGHT>
590.4
> <PUBCHEM_OPENEYE_CAN_SMILES>
CC1CN(CCN1C2=C(C=C3C(=C2)N=C4C(=O)C5=C(N4C3=O)C=CC(=C5)I)F)C(=O)OC(C)(C)C
> <PUBCHEM_OPENEYE_ISO_SMILES>
CC1CN(CCN1C2=C(C=C3C(=C2)N=C4C(=O)C5=C(N4C3=O)C=CC(=C5)I)F)C(=O)OC(C)(C)C
> <PUBCHEM_CACTVS_TPSA>
82.5
> <PUBCHEM_MONOISOTOPIC_WEIGHT>
590.08263
> <PUBCHEM_TOTAL_CHARGE>
0
> <PUBCHEM_HEAVY_ATOM_COUNT>
35
> <PUBCHEM_ATOM_DEF_STEREO_COUNT>
0
> <PUBCHEM_ATOM_UDEF_STEREO_COUNT>
1
> <PUBCHEM_BOND_DEF_STEREO_COUNT>
0
> <PUBCHEM_BOND_UDEF_STEREO_COUNT>
0
> <PUBCHEM_ISOTOPIC_ATOM_COUNT>
0
> <PUBCHEM_COMPONENT_COUNT>
1
> <PUBCHEM_CACTVS_TAUTO_COUNT>
-1
> <PUBCHEM_COORDINATE_TYPE>
1
5
255
> <PUBCHEM_BONDANNOTATIONS>
10  20  8
10  25  8
11  16  3
15  18  8
15  19  8
18  20  8
19  23  8
20  21  8
21  23  8
21  24  8
26  27  8
26  32  8
27  33  8
32  34  8
33  35  8
34  35  8
9  24  8
9  25  8
$$$$
