505875
  -OEChem-10302200282D
 77 81  0     1  0  0  0  0  0999 V2000
    3.7634   -0.9129    0.0000 O   0  0  0  0  0  0  0  0  0  0  0  0
    5.1646   -1.9309    0.0000 N   0  0  0  0  0  0  0  0  0  0  0  0
    7.6133   -0.0945    0.0000 N   0  0  0  0  0  0  0  0  0  0  0  0
    7.6133    2.9055    0.0000 N   0  0  3  0  0  0  0  0  0  0  0  0
    8.4793    4.4055    0.0000 N   0  0  0  0  0  0  0  0  0  0  0  0
    9.3454    2.9055    0.0000 N   0  0  0  0  0  0  0  0  0  0  0  0
    6.7473   -1.5945    0.0000 C   0  0  2  0  0  0  0  0  0  0  0  0
    6.6428   -2.5891    0.0000 C   0  0  2  0  0  0  0  0  0  0  0  0
    5.8338   -1.1878    0.0000 C   0  0  0  0  0  0  0  0  0  0  0  0
    5.6646   -2.7970    0.0000 C   0  0  0  0  0  0  0  0  0  0  0  0
    7.6133   -1.0945    0.0000 C   0  0  0  0  0  0  0  0  0  0  0  0
    3.5823   -2.6354    0.0000 C   0  0  0  0  0  0  0  0  0  0  0  0
    6.7473    0.4055    0.0000 C   0  0  0  0  0  0  0  0  0  0  0  0
    8.4793    0.4055    0.0000 C   0  0  0  0  0  0  0  0  0  0  0  0
    7.6133    1.9055    0.0000 C   0  0  0  0  0  0  0  0  0  0  0  0
    4.1701   -1.8264    0.0000 C   0  0  0  0  0  0  0  0  0  0  0  0
    7.3859   -3.2582    0.0000 C   0  0  0  0  0  0  0  0  0  0  0  0
    6.7473    1.4055    0.0000 C   0  0  0  0  0  0  0  0  0  0  0  0
    8.4793    1.4055    0.0000 C   0  0  0  0  0  0  0  0  0  0  0  0
    2.5878   -2.5309    0.0000 C   0  0  0  0  0  0  0  0  0  0  0  0
    3.9890   -3.5490    0.0000 C   0  0  0  0  0  0  0  0  0  0  0  0
    2.0000   -3.3399    0.0000 C   0  0  0  0  0  0  0  0  0  0  0  0
    3.4013   -4.3580    0.0000 C   0  0  0  0  0  0  0  0  0  0  0  0
    2.4067   -4.2535    0.0000 C   0  0  0  0  0  0  0  0  0  0  0  0
    8.3370   -2.9492    0.0000 C   0  0  0  0  0  0  0  0  0  0  0  0
    7.1780   -4.2363    0.0000 C   0  0  0  0  0  0  0  0  0  0  0  0
    6.7473    3.4055    0.0000 C   0  0  0  0  0  0  0  0  0  0  0  0
    9.0801   -3.6183    0.0000 C   0  0  0  0  0  0  0  0  0  0  0  0
    7.9211   -4.9055    0.0000 C   0  0  0  0  0  0  0  0  0  0  0  0
    8.4793    3.4055    0.0000 C   0  0  0  0  0  0  0  0  0  0  0  0
    8.8722   -4.5964    0.0000 C   0  0  0  0  0  0  0  0  0  0  0  0
    6.7473    4.4055    0.0000 C   0  0  0  0  0  0  0  0  0  0  0  0
    5.8813    4.9055    0.0000 C   0  0  0  0  0  0  0  0  0  0  0  0
    9.3454    4.9055    0.0000 C   0  0  0  0  0  0  0  0  0  0  0  0
   10.2114    3.4055    0.0000 C   0  0  0  0  0  0  0  0  0  0  0  0
   10.2114    4.4055    0.0000 C   0  0  0  0  0  0  0  0  0  0  0  0
    7.2673   -1.9322    0.0000 H   0  0  0  0  0  0  0  0  0  0  0  0
    6.4823   -3.1879    0.0000 H   0  0  0  0  0  0  0  0  0  0  0  0
    6.1437   -0.6509    0.0000 H   0  0  0  0  0  0  0  0  0  0  0  0
    5.3322   -0.8234    0.0000 H   0  0  0  0  0  0  0  0  0  0  0  0
    5.0982   -3.0491    0.0000 H   0  0  0  0  0  0  0  0  0  0  0  0
    5.8562   -3.3866    0.0000 H   0  0  0  0  0  0  0  0  0  0  0  0
    7.8254   -1.6771    0.0000 H   0  0  0  0  0  0  0  0  0  0  0  0
    8.2239   -0.9869    0.0000 H   0  0  0  0  0  0  0  0  0  0  0  0
    3.3301   -2.0690    0.0000 H   0  0  0  0  0  0  0  0  0  0  0  0
    6.1367    0.5131    0.0000 H   0  0  0  0  0  0  0  0  0  0  0  0
    6.5352   -0.1771    0.0000 H   0  0  0  0  0  0  0  0  0  0  0  0
    8.6914   -0.1771    0.0000 H   0  0  0  0  0  0  0  0  0  0  0  0
    9.0899    0.5131    0.0000 H   0  0  0  0  0  0  0  0  0  0  0  0
    7.0764    2.2155    0.0000 H   0  0  0  0  0  0  0  0  0  0  0  0
    6.5352    1.9881    0.0000 H   0  0  0  0  0  0  0  0  0  0  0  0
    6.1367    1.2978    0.0000 H   0  0  0  0  0  0  0  0  0  0  0  0
    9.0899    1.2978    0.0000 H   0  0  0  0  0  0  0  0  0  0  0  0
    8.6914    1.9881    0.0000 H   0  0  0  0  0  0  0  0  0  0  0  0
    2.7587   -1.9349    0.0000 H   0  0  0  0  0  0  0  0  0  0  0  0
    2.0305   -2.2591    0.0000 H   0  0  0  0  0  0  0  0  0  0  0  0
    4.4197   -3.9950    0.0000 H   0  0  0  0  0  0  0  0  0  0  0  0
    4.5030   -3.2023    0.0000 H   0  0  0  0  0  0  0  0  0  0  0  0
    1.5693   -2.8939    0.0000 H   0  0  0  0  0  0  0  0  0  0  0  0
    1.4860   -3.6866    0.0000 H   0  0  0  0  0  0  0  0  0  0  0  0
    3.2304   -4.9540    0.0000 H   0  0  0  0  0  0  0  0  0  0  0  0
    3.9585   -4.6298    0.0000 H   0  0  0  0  0  0  0  0  0  0  0  0
    1.8052   -4.4035    0.0000 H   0  0  0  0  0  0  0  0  0  0  0  0
    2.4500   -4.8720    0.0000 H   0  0  0  0  0  0  0  0  0  0  0  0
    8.4659   -2.3427    0.0000 H   0  0  0  0  0  0  0  0  0  0  0  0
    6.5883   -4.4279    0.0000 H   0  0  0  0  0  0  0  0  0  0  0  0
    6.1367    3.5131    0.0000 H   0  0  0  0  0  0  0  0  0  0  0  0
    6.5352    2.8229    0.0000 H   0  0  0  0  0  0  0  0  0  0  0  0
    9.6698   -3.4267    0.0000 H   0  0  0  0  0  0  0  0  0  0  0  0
    7.7922   -5.5119    0.0000 H   0  0  0  0  0  0  0  0  0  0  0  0
    9.3330   -5.0113    0.0000 H   0  0  0  0  0  0  0  0  0  0  0  0
    7.2842    4.7155    0.0000 H   0  0  0  0  0  0  0  0  0  0  0  0
    5.8813    5.5255    0.0000 H   0  0  0  0  0  0  0  0  0  0  0  0
    5.3443    4.5955    0.0000 H   0  0  0  0  0  0  0  0  0  0  0  0
    9.3454    5.5255    0.0000 H   0  0  0  0  0  0  0  0  0  0  0  0
   10.7483    3.0955    0.0000 H   0  0  0  0  0  0  0  0  0  0  0  0
   10.7483    4.7155    0.0000 H   0  0  0  0  0  0  0  0  0  0  0  0
  1 16  2  0  0  0  0
  2  9  1  0  0  0  0
  2 10  1  0  0  0  0
  2 16  1  0  0  0  0
  3 11  1  0  0  0  0
  3 13  1  0  0  0  0
  3 14  1  0  0  0  0
  4 15  1  0  0  0  0
  4 27  1  0  0  0  0
  4 30  1  0  0  0  0
  5 30  2  0  0  0  0
  5 34  1  0  0  0  0
  6 30  1  0  0  0  0
  6 35  2  0  0  0  0
  7  8  1  0  0  0  0
  7  9  1  0  0  0  0
  7 11  1  6  0  0  0
  7 37  1  0  0  0  0
  8 10  1  0  0  0  0
  8 17  1  1  0  0  0
  8 38  1  0  0  0  0
  9 39  1  0  0  0  0
  9 40  1  0  0  0  0
 10 41  1  0  0  0  0
 10 42  1  0  0  0  0
 11 43  1  0  0  0  0
 11 44  1  0  0  0  0
 12 16  1  0  0  0  0
 12 20  1  0  0  0  0
 12 21  1  0  0  0  0
 12 45  1  0  0  0  0
 13 18  1  0  0  0  0
 13 46  1  0  0  0  0
 13 47  1  0  0  0  0
 14 19  1  0  0  0  0
 14 48  1  0  0  0  0
 14 49  1  0  0  0  0
 15 18  1  0  0  0  0
 15 19  1  0  0  0  0
 15 50  1  0  0  0  0
 17 25  2  0  0  0  0
 17 26  1  0  0  0  0
 18 51  1  0  0  0  0
 18 52  1  0  0  0  0
 19 53  1  0  0  0  0
 19 54  1  0  0  0  0
 20 22  1  0  0  0  0
 20 55  1  0  0  0  0
 20 56  1  0  0  0  0
 21 23  1  0  0  0  0
 21 57  1  0  0  0  0
 21 58  1  0  0  0  0
 22 24  1  0  0  0  0
 22 59  1  0  0  0  0
 22 60  1  0  0  0  0
 23 24  1  0  0  0  0
 23 61  1  0  0  0  0
 23 62  1  0  0  0  0
 24 63  1  0  0  0  0
 24 64  1  0  0  0  0
 25 28  1  0  0  0  0
 25 65  1  0  0  0  0
 26 29  2  0  0  0  0
 26 66  1  0  0  0  0
 27 32  1  0  0  0  0
 27 67  1  0  0  0  0
 27 68  1  0  0  0  0
 28 31  2  0  0  0  0
 28 69  1  0  0  0  0
 29 31  1  0  0  0  0
 29 70  1  0  0  0  0
 31 71  1  0  0  0  0
 32 33  2  0  0  0  0
 32 72  1  0  0  0  0
 33 73  1  0  0  0  0
 33 74  1  0  0  0  0
 34 36  2  0  0  0  0
 34 75  1  0  0  0  0
 35 36  1  0  0  0  0
 35 76  1  0  0  0  0
 36 77  1  0  0  0  0
M  END
> <PUBCHEM_COMPOUND_CID>
505875
> <PUBCHEM_COMPOUND_CANONICALIZED>
1
> <PUBCHEM_CACTVS_COMPLEXITY>
690
> <PUBCHEM_CACTVS_HBOND_ACCEPTOR>
5
> <PUBCHEM_CACTVS_HBOND_DONOR>
0
> <PUBCHEM_CACTVS_ROTATABLE_BOND>
8
> <PUBCHEM_CACTVS_SUBSKEYS>
AAADcfB7oAAAAAAAAAAAAAAAAAAAAWAAAAA8eIEAAAAAAAABwAAAHgAAAAAADSjBmgQ9kJcIEACoAjF3dACCgCkxAqAJ2CE4ZJiIKLLA2VGEJAgohgLIiCcYiMCOgAAAAAAAAAAAAAAAAAAAAAAAAAAAAA==
> <PUBCHEM_IUPAC_OPENEYE_NAME>
[(3S,4S)-3-[[4-[allyl(pyrimidin-2-yl)amino]-1-piperidyl]methyl]-4-phenyl-pyrrolidin-1-yl]-cyclohexyl-methanone
> <PUBCHEM_IUPAC_CAS_NAME>
cyclohexyl-[(3S,4S)-3-phenyl-4-[[4-[prop-2-enyl(2-pyrimidinyl)amino]-1-piperidinyl]methyl]-1-pyrrolidinyl]methanone
> <PUBCHEM_IUPAC_NAME_MARKUP>
cyclohexyl-[(3<I>S</I>,4<I>S</I>)-3-phenyl-4-[[4-[prop-2-enyl(pyrimidin-2-yl)amino]piperidin-1-yl]methyl]pyrrolidin-1-yl]methanone
> <PUBCHEM_IUPAC_NAME>
cyclohexyl-[(3S,4S)-3-phenyl-4-[[4-[prop-2-enyl(pyrimidin-2-yl)amino]piperidin-1-yl]methyl]pyrrolidin-1-yl]methanone
> <PUBCHEM_IUPAC_SYSTEMATIC_NAME>
cyclohexyl-[(3S,4S)-3-phenyl-4-[[4-[prop-2-enyl(pyrimidin-2-yl)amino]piperidin-1-yl]methyl]pyrrolidin-1-yl]methanone
> <PUBCHEM_IUPAC_TRADITIONAL_NAME>
[(3S,4S)-3-[[4-[allyl(2-pyrimidyl)amino]piperidino]methyl]-4-phenyl-pyrrolidino]-cyclohexyl-methanone
> <PUBCHEM_IUPAC_INCHI>
InChI=1S/C30H41N5O/c1-2-18-35(30-31-16-9-17-32-30)27-14-19-33(20-15-27)21-26-22-34(29(36)25-12-7-4-8-13-25)23-28(26)24-10-5-3-6-11-24/h2-3,5-6,9-11,16-17,25-28H,1,4,7-8,12-15,18-23H2/t26-,28+/m0/s1
> <PUBCHEM_IUPAC_INCHIKEY>
PDHAEKCRTLZPTQ-XTEPFMGCSA-N
> <PUBCHEM_XLOGP3_AA>
5.3
> <PUBCHEM_EXACT_MASS>
487.33111095
> <PUBCHEM_MOLECULAR_FORMULA>
C30H41N5O
> <PUBCHEM_MOLECULAR_WEIGHT>
487.7
> <PUBCHEM_OPENEYE_CAN_SMILES>
C=CCN(C1CCN(CC1)CC2CN(CC2C3=CC=CC=C3)C(=O)C4CCCCC4)C5=NC=CC=N5
> <PUBCHEM_OPENEYE_ISO_SMILES>
C=CCN(C1CCN(CC1)C[C@H]2CN(C[C@@H]2C3=CC=CC=C3)C(=O)C4CCCCC4)C5=NC=CC=N5
> <PUBCHEM_CACTVS_TPSA>
52.6
> <PUBCHEM_MONOISOTOPIC_WEIGHT>
487.33111095
> <PUBCHEM_TOTAL_CHARGE>
0
> <PUBCHEM_HEAVY_ATOM_COUNT>
36
> <PUBCHEM_ATOM_DEF_STEREO_COUNT>
2
> <PUBCHEM_ATOM_UDEF_STEREO_COUNT>
0
> <PUBCHEM_BOND_DEF_STEREO_COUNT>
0
> <PUBCHEM_BOND_UDEF_STEREO_COUNT>
0
> <PUBCHEM_ISOTOPIC_ATOM_COUNT>
0
> <PUBCHEM_COMPONENT_COUNT>
1
> <PUBCHEM_CACTVS_TAUTO_COUNT>
-1
> <PUBCHEM_COORDINATE_TYPE>
1
5
255
> <PUBCHEM_BONDANNOTATIONS>
17  25  8
17  26  8
25  28  8
26  29  8
28  31  8
29  31  8
34  36  8
35  36  8
5  30  8
5  34  8
6  30  8
6  35  8
7  11  6
8  17  5
$$$$
