505888
  -OEChem-10302200282D
 80 84  0     1  0  0  0  0  0999 V2000
   13.8917    3.4805    0.0000 F   0  0  0  0  0  0  0  0  0  0  0  0
    2.0000    1.4995    0.0000 F   0  0  0  0  0  0  0  0  0  0  0  0
    2.3660    0.1335    0.0000 F   0  0  0  0  0  0  0  0  0  0  0  0
    3.3660    1.8655    0.0000 F   0  0  0  0  0  0  0  0  0  0  0  0
   11.9686   -3.3391    0.0000 O   0  0  0  0  0  0  0  0  0  0  0  0
   10.5674   -2.3210    0.0000 O   0  0  0  0  0  0  0  0  0  0  0  0
   11.7429   -0.7030    0.0000 N   0  0  3  0  0  0  0  0  0  0  0  0
    8.9282    0.4995    0.0000 N   0  0  0  0  0  0  0  0  0  0  0  0
    6.3301   -1.0005    0.0000 N   0  0  3  0  0  0  0  0  0  0  0  0
    5.4641    0.4995    0.0000 N   0  0  0  0  0  0  0  0  0  0  0  0
    4.5981   -1.0005    0.0000 N   0  0  0  0  0  0  0  0  0  0  0  0
   10.6603    0.4995    0.0000 C   0  0  2  0  0  0  0  0  0  0  0  0
   13.1442   -1.7210    0.0000 C   0  0  0  0  0  0  0  0  0  0  0  0
   11.5738    0.9062    0.0000 C   0  0  2  0  0  0  0  0  0  0  0  0
   12.1497   -1.6165    0.0000 C   0  0  2  0  0  0  0  0  0  0  0  0
   10.7648   -0.4950    0.0000 C   0  0  0  0  0  0  0  0  0  0  0  0
   12.2429    0.1631    0.0000 C   0  0  0  0  0  0  0  0  0  0  0  0
   13.7735   -2.4982    0.0000 C   0  0  0  0  0  0  0  0  0  0  0  0
   13.9213   -1.0917    0.0000 C   0  0  0  0  0  0  0  0  0  0  0  0
    9.7942    0.9995    0.0000 C   0  0  0  0  0  0  0  0  0  0  0  0
   14.5507   -1.8689    0.0000 C   0  0  0  0  0  0  0  0  0  0  0  0
   11.7817    1.8844    0.0000 C   0  0  0  0  0  0  0  0  0  0  0  0
    8.0622    0.9995    0.0000 C   0  0  0  0  0  0  0  0  0  0  0  0
    8.9282   -0.5005    0.0000 C   0  0  0  0  0  0  0  0  0  0  0  0
   11.5619   -2.4255    0.0000 C   0  0  0  0  0  0  0  0  0  0  0  0
    7.1962   -0.5005    0.0000 C   0  0  0  0  0  0  0  0  0  0  0  0
    7.1962    0.4995    0.0000 C   0  0  0  0  0  0  0  0  0  0  0  0
    8.0622   -1.0005    0.0000 C   0  0  0  0  0  0  0  0  0  0  0  0
   12.7328    2.1934    0.0000 C   0  0  0  0  0  0  0  0  0  0  0  0
   11.0386    2.5535    0.0000 C   0  0  0  0  0  0  0  0  0  0  0  0
    6.3301   -2.0005    0.0000 C   0  0  0  0  0  0  0  0  0  0  0  0
   12.9407    3.1715    0.0000 C   0  0  0  0  0  0  0  0  0  0  0  0
   11.2465    3.5316    0.0000 C   0  0  0  0  0  0  0  0  0  0  0  0
    5.4641   -0.5005    0.0000 C   0  0  0  0  0  0  0  0  0  0  0  0
   12.1975    3.8407    0.0000 C   0  0  0  0  0  0  0  0  0  0  0  0
    7.1962   -2.5005    0.0000 C   0  0  0  0  0  0  0  0  0  0  0  0
    7.1962   -3.5005    0.0000 C   0  0  0  0  0  0  0  0  0  0  0  0
    4.5981    0.9995    0.0000 C   0  0  0  0  0  0  0  0  0  0  0  0
    3.7320   -0.5005    0.0000 C   0  0  0  0  0  0  0  0  0  0  0  0
    3.7320    0.4995    0.0000 C   0  0  0  0  0  0  0  0  0  0  0  0
    2.8660    0.9995    0.0000 C   0  0  0  0  0  0  0  0  0  0  0  0
   10.6927    1.1186    0.0000 H   0  0  0  0  0  0  0  0  0  0  0  0
   12.9681   -1.1266    0.0000 H   0  0  0  0  0  0  0  0  0  0  0  0
   11.0920    1.2964    0.0000 H   0  0  0  0  0  0  0  0  0  0  0  0
   11.5331   -1.5517    0.0000 H   0  0  0  0  0  0  0  0  0  0  0  0
   10.1448   -0.4950    0.0000 H   0  0  0  0  0  0  0  0  0  0  0  0
   10.7000   -1.1116    0.0000 H   0  0  0  0  0  0  0  0  0  0  0  0
   12.7445   -0.2014    0.0000 H   0  0  0  0  0  0  0  0  0  0  0  0
   12.6578    0.6238    0.0000 H   0  0  0  0  0  0  0  0  0  0  0  0
   13.2917   -2.8884    0.0000 H   0  0  0  0  0  0  0  0  0  0  0  0
   14.1637   -2.9800    0.0000 H   0  0  0  0  0  0  0  0  0  0  0  0
   14.4032   -0.7015    0.0000 H   0  0  0  0  0  0  0  0  0  0  0  0
   13.5312   -0.6099    0.0000 H   0  0  0  0  0  0  0  0  0  0  0  0
   10.1928    1.4744    0.0000 H   0  0  0  0  0  0  0  0  0  0  0  0
    9.3957    1.4744    0.0000 H   0  0  0  0  0  0  0  0  0  0  0  0
   14.9408   -2.3507    0.0000 H   0  0  0  0  0  0  0  0  0  0  0  0
   15.0325   -1.4787    0.0000 H   0  0  0  0  0  0  0  0  0  0  0  0
    8.4607    1.4744    0.0000 H   0  0  0  0  0  0  0  0  0  0  0  0
    7.6636    1.4744    0.0000 H   0  0  0  0  0  0  0  0  0  0  0  0
    9.1403   -1.0831    0.0000 H   0  0  0  0  0  0  0  0  0  0  0  0
    9.5388   -0.3929    0.0000 H   0  0  0  0  0  0  0  0  0  0  0  0
    6.6592   -0.1905    0.0000 H   0  0  0  0  0  0  0  0  0  0  0  0
    6.9841    1.0821    0.0000 H   0  0  0  0  0  0  0  0  0  0  0  0
    6.5856    0.3918    0.0000 H   0  0  0  0  0  0  0  0  0  0  0  0
    7.6636   -1.4755    0.0000 H   0  0  0  0  0  0  0  0  0  0  0  0
    8.4607   -1.4755    0.0000 H   0  0  0  0  0  0  0  0  0  0  0  0
   13.1935    1.7785    0.0000 H   0  0  0  0  0  0  0  0  0  0  0  0
   10.4489    2.3619    0.0000 H   0  0  0  0  0  0  0  0  0  0  0  0
   11.6042   -3.8407    0.0000 H   0  0  0  0  0  0  0  0  0  0  0  0
    5.7196   -1.8929    0.0000 H   0  0  0  0  0  0  0  0  0  0  0  0
    6.1181   -2.5831    0.0000 H   0  0  0  0  0  0  0  0  0  0  0  0
   10.7857    3.9465    0.0000 H   0  0  0  0  0  0  0  0  0  0  0  0
   12.3264    4.4471    0.0000 H   0  0  0  0  0  0  0  0  0  0  0  0
    7.8067   -2.6082    0.0000 H   0  0  0  0  0  0  0  0  0  0  0  0
    7.4082   -1.9179    0.0000 H   0  0  0  0  0  0  0  0  0  0  0  0
    6.5762   -3.5005    0.0000 H   0  0  0  0  0  0  0  0  0  0  0  0
    7.1962   -4.1205    0.0000 H   0  0  0  0  0  0  0  0  0  0  0  0
    7.8162   -3.5005    0.0000 H   0  0  0  0  0  0  0  0  0  0  0  0
    4.5981    1.6195    0.0000 H   0  0  0  0  0  0  0  0  0  0  0  0
    3.1951   -0.8105    0.0000 H   0  0  0  0  0  0  0  0  0  0  0  0
  1 32  1  0  0  0  0
  2 41  1  0  0  0  0
  3 41  1  0  0  0  0
  4 41  1  0  0  0  0
  5 25  1  0  0  0  0
  5 69  1  0  0  0  0
  6 25  2  0  0  0  0
  7 15  1  0  0  0  0
  7 16  1  0  0  0  0
  7 17  1  0  0  0  0
  8 20  1  0  0  0  0
  8 23  1  0  0  0  0
  8 24  1  0  0  0  0
  9 26  1  0  0  0  0
  9 31  1  0  0  0  0
  9 34  1  0  0  0  0
 10 34  2  0  0  0  0
 10 38  1  0  0  0  0
 11 34  1  0  0  0  0
 11 39  2  0  0  0  0
 12 14  1  0  0  0  0
 12 16  1  0  0  0  0
 12 20  1  6  0  0  0
 12 42  1  0  0  0  0
 13 15  1  0  0  0  0
 13 18  1  0  0  0  0
 13 19  1  0  0  0  0
 13 43  1  0  0  0  0
 14 17  1  0  0  0  0
 14 22  1  1  0  0  0
 14 44  1  0  0  0  0
 15 25  1  6  0  0  0
 15 45  1  0  0  0  0
 16 46  1  0  0  0  0
 16 47  1  0  0  0  0
 17 48  1  0  0  0  0
 17 49  1  0  0  0  0
 18 21  1  0  0  0  0
 18 50  1  0  0  0  0
 18 51  1  0  0  0  0
 19 21  1  0  0  0  0
 19 52  1  0  0  0  0
 19 53  1  0  0  0  0
 20 54  1  0  0  0  0
 20 55  1  0  0  0  0
 21 56  1  0  0  0  0
 21 57  1  0  0  0  0
 22 29  2  0  0  0  0
 22 30  1  0  0  0  0
 23 27  1  0  0  0  0
 23 58  1  0  0  0  0
 23 59  1  0  0  0  0
 24 28  1  0  0  0  0
 24 60  1  0  0  0  0
 24 61  1  0  0  0  0
 26 27  1  0  0  0  0
 26 28  1  0  0  0  0
 26 62  1  0  0  0  0
 27 63  1  0  0  0  0
 27 64  1  0  0  0  0
 28 65  1  0  0  0  0
 28 66  1  0  0  0  0
 29 32  1  0  0  0  0
 29 67  1  0  0  0  0
 30 33  2  0  0  0  0
 30 68  1  0  0  0  0
 31 36  1  0  0  0  0
 31 70  1  0  0  0  0
 31 71  1  0  0  0  0
 32 35  2  0  0  0  0
 33 35  1  0  0  0  0
 33 72  1  0  0  0  0
 35 73  1  0  0  0  0
 36 37  1  0  0  0  0
 36 74  1  0  0  0  0
 36 75  1  0  0  0  0
 37 76  1  0  0  0  0
 37 77  1  0  0  0  0
 37 78  1  0  0  0  0
 38 40  2  0  0  0  0
 38 79  1  0  0  0  0
 39 40  1  0  0  0  0
 39 80  1  0  0  0  0
 40 41  1  0  0  0  0
M  END
> <PUBCHEM_COMPOUND_CID>
505888
> <PUBCHEM_COMPOUND_CANONICALIZED>
1
> <PUBCHEM_CACTVS_COMPLEXITY>
845
> <PUBCHEM_CACTVS_HBOND_ACCEPTOR>
11
> <PUBCHEM_CACTVS_HBOND_DONOR>
1
> <PUBCHEM_CACTVS_ROTATABLE_BOND>
10
> <PUBCHEM_CACTVS_SUBSKEYS>
AAADcfB7scAAAAAAAAAAAAAAAABgAWAAAAA8WIAAAAAAAAABwAAAHwAACAAADSjBmhw/mJcIEgCoAjD3bACCgCkxAKAJ2CGoRJiKKLLA2XGEZAgsgALYiCeYyMAOgAAAAAAAAAAAAAAAAAAAAAAAAAAAAA==
> <PUBCHEM_IUPAC_OPENEYE_NAME>
(2R)-2-cyclobutyl-2-[(3S,4S)-3-(3-fluorophenyl)-4-[[4-[propyl-[5-(trifluoromethyl)pyrimidin-2-yl]amino]-1-piperidyl]methyl]pyrrolidin-1-yl]acetic acid
> <PUBCHEM_IUPAC_CAS_NAME>
(2R)-2-cyclobutyl-2-[(3S,4S)-3-(3-fluorophenyl)-4-[[4-[propyl-[5-(trifluoromethyl)-2-pyrimidinyl]amino]-1-piperidinyl]methyl]-1-pyrrolidinyl]acetic acid
> <PUBCHEM_IUPAC_NAME_MARKUP>
(2<I>R</I>)-2-cyclobutyl-2-[(3<I>S</I>,4<I>S</I>)-3-(3-fluorophenyl)-4-[[4-[propyl-[5-(trifluoromethyl)pyrimidin-2-yl]amino]piperidin-1-yl]methyl]pyrrolidin-1-yl]acetic acid
> <PUBCHEM_IUPAC_NAME>
(2R)-2-cyclobutyl-2-[(3S,4S)-3-(3-fluorophenyl)-4-[[4-[propyl-[5-(trifluoromethyl)pyrimidin-2-yl]amino]piperidin-1-yl]methyl]pyrrolidin-1-yl]acetic acid
> <PUBCHEM_IUPAC_SYSTEMATIC_NAME>
(2R)-2-cyclobutyl-2-[(3S,4S)-3-(3-fluorophenyl)-4-[[4-[propyl-[5-(trifluoromethyl)pyrimidin-2-yl]amino]piperidin-1-yl]methyl]pyrrolidin-1-yl]ethanoic acid
> <PUBCHEM_IUPAC_TRADITIONAL_NAME>
(2R)-2-cyclobutyl-2-[(3S,4S)-3-(3-fluorophenyl)-4-[[4-[propyl-[5-(trifluoromethyl)pyrimidin-2-yl]amino]piperidino]methyl]pyrrolidino]acetic acid
> <PUBCHEM_IUPAC_INCHI>
InChI=1S/C30H39F4N5O2/c1-2-11-39(29-35-15-23(16-36-29)30(32,33)34)25-9-12-37(13-10-25)17-22-18-38(27(28(40)41)20-5-3-6-20)19-26(22)21-7-4-8-24(31)14-21/h4,7-8,14-16,20,22,25-27H,2-3,5-6,9-13,17-19H2,1H3,(H,40,41)/t22-,26+,27+/m0/s1
> <PUBCHEM_IUPAC_INCHIKEY>
DEZCGRRFZWMTKN-ZDJNHPEVSA-N
> <PUBCHEM_XLOGP3_AA>
3.6
> <PUBCHEM_EXACT_MASS>
577.30398815
> <PUBCHEM_MOLECULAR_FORMULA>
C30H39F4N5O2
> <PUBCHEM_MOLECULAR_WEIGHT>
577.7
> <PUBCHEM_OPENEYE_CAN_SMILES>
CCCN(C1CCN(CC1)CC2CN(CC2C3=CC(=CC=C3)F)C(C4CCC4)C(=O)O)C5=NC=C(C=N5)C(F)(F)F
> <PUBCHEM_OPENEYE_ISO_SMILES>
CCCN(C1CCN(CC1)C[C@H]2CN(C[C@@H]2C3=CC(=CC=C3)F)[C@H](C4CCC4)C(=O)O)C5=NC=C(C=N5)C(F)(F)F
> <PUBCHEM_CACTVS_TPSA>
72.8
> <PUBCHEM_MONOISOTOPIC_WEIGHT>
577.30398815
> <PUBCHEM_TOTAL_CHARGE>
0
> <PUBCHEM_HEAVY_ATOM_COUNT>
41
> <PUBCHEM_ATOM_DEF_STEREO_COUNT>
3
> <PUBCHEM_ATOM_UDEF_STEREO_COUNT>
0
> <PUBCHEM_BOND_DEF_STEREO_COUNT>
0
> <PUBCHEM_BOND_UDEF_STEREO_COUNT>
0
> <PUBCHEM_ISOTOPIC_ATOM_COUNT>
0
> <PUBCHEM_COMPONENT_COUNT>
1
> <PUBCHEM_CACTVS_TAUTO_COUNT>
-1
> <PUBCHEM_COORDINATE_TYPE>
1
5
255
> <PUBCHEM_BONDANNOTATIONS>
10  34  8
10  38  8
11  34  8
11  39  8
12  20  6
14  22  5
15  25  6
22  29  8
22  30  8
29  32  8
30  33  8
32  35  8
33  35  8
38  40  8
39  40  8
$$$$
