505870
  -OEChem-10302200282D
 81 86  0     1  0  0  0  0  0999 V2000
    3.7634   -1.0959    0.0000 O   0  0  0  0  0  0  0  0  0  0  0  0
    7.6133   -0.2775    0.0000 N   0  0  0  0  0  0  0  0  0  0  0  0
    5.1646   -2.1140    0.0000 N   0  0  0  0  0  0  0  0  0  0  0  0
    7.6133    2.7224    0.0000 N   0  0  3  0  0  0  0  0  0  0  0  0
    8.4793    4.2224    0.0000 N   0  0  0  0  0  0  0  0  0  0  0  0
    6.7473   -1.7776    0.0000 C   0  0  1  0  0  0  0  0  0  0  0  0
    6.7473    4.2224    0.0000 C   0  0  0  0  0  0  0  0  0  0  0  0
    6.6428   -2.7721    0.0000 C   0  0  2  0  0  0  0  0  0  0  0  0
    7.2473    5.0885    0.0000 C   0  0  0  0  0  0  0  0  0  0  0  0
    6.2473    5.0885    0.0000 C   0  0  0  0  0  0  0  0  0  0  0  0
    7.6133    1.7224    0.0000 C   0  0  0  0  0  0  0  0  0  0  0  0
    7.6133   -1.2776    0.0000 C   0  0  0  0  0  0  0  0  0  0  0  0
    5.8338   -1.3708    0.0000 C   0  0  0  0  0  0  0  0  0  0  0  0
    6.7473    3.2224    0.0000 C   0  0  0  0  0  0  0  0  0  0  0  0
    5.6646   -2.9800    0.0000 C   0  0  0  0  0  0  0  0  0  0  0  0
    6.7473    1.2224    0.0000 C   0  0  0  0  0  0  0  0  0  0  0  0
    8.4793    1.2224    0.0000 C   0  0  0  0  0  0  0  0  0  0  0  0
    6.7473    0.2225    0.0000 C   0  0  0  0  0  0  0  0  0  0  0  0
    8.4793    0.2225    0.0000 C   0  0  0  0  0  0  0  0  0  0  0  0
    3.5823   -2.8184    0.0000 C   0  0  0  0  0  0  0  0  0  0  0  0
    7.3859   -3.4412    0.0000 C   0  0  0  0  0  0  0  0  0  0  0  0
    4.1701   -2.0094    0.0000 C   0  0  0  0  0  0  0  0  0  0  0  0
    2.5878   -2.7139    0.0000 C   0  0  0  0  0  0  0  0  0  0  0  0
    3.9890   -3.7320    0.0000 C   0  0  0  0  0  0  0  0  0  0  0  0
    8.4793    3.2224    0.0000 C   0  0  0  0  0  0  0  0  0  0  0  0
    2.0000   -3.5229    0.0000 C   0  0  0  0  0  0  0  0  0  0  0  0
    3.4013   -4.5410    0.0000 C   0  0  0  0  0  0  0  0  0  0  0  0
    2.4067   -4.4365    0.0000 C   0  0  0  0  0  0  0  0  0  0  0  0
    7.1780   -4.4194    0.0000 C   0  0  0  0  0  0  0  0  0  0  0  0
    8.3370   -3.1322    0.0000 C   0  0  0  0  0  0  0  0  0  0  0  0
    9.3454    2.7224    0.0000 C   0  0  0  0  0  0  0  0  0  0  0  0
    7.9211   -5.0885    0.0000 C   0  0  0  0  0  0  0  0  0  0  0  0
    9.0801   -3.8013    0.0000 C   0  0  0  0  0  0  0  0  0  0  0  0
    8.8722   -4.7795    0.0000 C   0  0  0  0  0  0  0  0  0  0  0  0
   10.2114    3.2224    0.0000 C   0  0  0  0  0  0  0  0  0  0  0  0
    9.3454    4.7224    0.0000 C   0  0  0  0  0  0  0  0  0  0  0  0
   10.2114    4.2224    0.0000 C   0  0  0  0  0  0  0  0  0  0  0  0
    7.2673   -2.1152    0.0000 H   0  0  0  0  0  0  0  0  0  0  0  0
    7.3462    4.0620    0.0000 H   0  0  0  0  0  0  0  0  0  0  0  0
    6.4823   -3.3709    0.0000 H   0  0  0  0  0  0  0  0  0  0  0  0
    7.8299    4.8764    0.0000 H   0  0  0  0  0  0  0  0  0  0  0  0
    7.3550    5.6991    0.0000 H   0  0  0  0  0  0  0  0  0  0  0  0
    6.1396    5.6991    0.0000 H   0  0  0  0  0  0  0  0  0  0  0  0
    5.6647    4.8764    0.0000 H   0  0  0  0  0  0  0  0  0  0  0  0
    7.0764    2.0324    0.0000 H   0  0  0  0  0  0  0  0  0  0  0  0
    7.8254   -1.8602    0.0000 H   0  0  0  0  0  0  0  0  0  0  0  0
    8.2239   -1.1699    0.0000 H   0  0  0  0  0  0  0  0  0  0  0  0
    6.1437   -0.8339    0.0000 H   0  0  0  0  0  0  0  0  0  0  0  0
    5.3322   -1.0064    0.0000 H   0  0  0  0  0  0  0  0  0  0  0  0
    6.1367    3.3301    0.0000 H   0  0  0  0  0  0  0  0  0  0  0  0
    6.5352    2.6398    0.0000 H   0  0  0  0  0  0  0  0  0  0  0  0
    5.0982   -3.2322    0.0000 H   0  0  0  0  0  0  0  0  0  0  0  0
    5.8562   -3.5696    0.0000 H   0  0  0  0  0  0  0  0  0  0  0  0
    6.5352    1.8051    0.0000 H   0  0  0  0  0  0  0  0  0  0  0  0
    6.1367    1.1148    0.0000 H   0  0  0  0  0  0  0  0  0  0  0  0
    9.0899    1.1148    0.0000 H   0  0  0  0  0  0  0  0  0  0  0  0
    8.6914    1.8051    0.0000 H   0  0  0  0  0  0  0  0  0  0  0  0
    6.1367    0.3301    0.0000 H   0  0  0  0  0  0  0  0  0  0  0  0
    6.5352   -0.3602    0.0000 H   0  0  0  0  0  0  0  0  0  0  0  0
    8.6914   -0.3602    0.0000 H   0  0  0  0  0  0  0  0  0  0  0  0
    9.0899    0.3301    0.0000 H   0  0  0  0  0  0  0  0  0  0  0  0
    3.3301   -2.2520    0.0000 H   0  0  0  0  0  0  0  0  0  0  0  0
    2.7587   -2.1179    0.0000 H   0  0  0  0  0  0  0  0  0  0  0  0
    2.0305   -2.4421    0.0000 H   0  0  0  0  0  0  0  0  0  0  0  0
    4.4197   -4.1780    0.0000 H   0  0  0  0  0  0  0  0  0  0  0  0
    4.5030   -3.3853    0.0000 H   0  0  0  0  0  0  0  0  0  0  0  0
    1.5693   -3.0769    0.0000 H   0  0  0  0  0  0  0  0  0  0  0  0
    1.4860   -3.8696    0.0000 H   0  0  0  0  0  0  0  0  0  0  0  0
    3.2304   -5.1370    0.0000 H   0  0  0  0  0  0  0  0  0  0  0  0
    3.9585   -4.8128    0.0000 H   0  0  0  0  0  0  0  0  0  0  0  0
    1.8052   -4.5865    0.0000 H   0  0  0  0  0  0  0  0  0  0  0  0
    2.4500   -5.0550    0.0000 H   0  0  0  0  0  0  0  0  0  0  0  0
    6.5883   -4.6109    0.0000 H   0  0  0  0  0  0  0  0  0  0  0  0
    8.4659   -2.5257    0.0000 H   0  0  0  0  0  0  0  0  0  0  0  0
    9.3454    2.1024    0.0000 H   0  0  0  0  0  0  0  0  0  0  0  0
    7.7922   -5.6949    0.0000 H   0  0  0  0  0  0  0  0  0  0  0  0
    9.6698   -3.6097    0.0000 H   0  0  0  0  0  0  0  0  0  0  0  0
    9.3330   -5.1943    0.0000 H   0  0  0  0  0  0  0  0  0  0  0  0
   10.7483    2.9125    0.0000 H   0  0  0  0  0  0  0  0  0  0  0  0
    9.3454    5.3425    0.0000 H   0  0  0  0  0  0  0  0  0  0  0  0
   10.7483    4.5324    0.0000 H   0  0  0  0  0  0  0  0  0  0  0  0
  1 22  2  0  0  0  0
  2 12  1  0  0  0  0
  2 18  1  0  0  0  0
  2 19  1  0  0  0  0
  3 13  1  0  0  0  0
  3 15  1  0  0  0  0
  3 22  1  0  0  0  0
  4 11  1  0  0  0  0
  4 14  1  0  0  0  0
  4 25  1  0  0  0  0
  5 25  1  0  0  0  0
  5 36  2  0  0  0  0
  6  8  1  0  0  0  0
  6 12  1  6  0  0  0
  6 13  1  0  0  0  0
  6 38  1  0  0  0  0
  7  9  1  0  0  0  0
  7 10  1  0  0  0  0
  7 14  1  0  0  0  0
  7 39  1  0  0  0  0
  8 15  1  0  0  0  0
  8 21  1  1  0  0  0
  8 40  1  0  0  0  0
  9 10  1  0  0  0  0
  9 41  1  0  0  0  0
  9 42  1  0  0  0  0
 10 43  1  0  0  0  0
 10 44  1  0  0  0  0
 11 16  1  0  0  0  0
 11 17  1  0  0  0  0
 11 45  1  0  0  0  0
 12 46  1  0  0  0  0
 12 47  1  0  0  0  0
 13 48  1  0  0  0  0
 13 49  1  0  0  0  0
 14 50  1  0  0  0  0
 14 51  1  0  0  0  0
 15 52  1  0  0  0  0
 15 53  1  0  0  0  0
 16 18  1  0  0  0  0
 16 54  1  0  0  0  0
 16 55  1  0  0  0  0
 17 19  1  0  0  0  0
 17 56  1  0  0  0  0
 17 57  1  0  0  0  0
 18 58  1  0  0  0  0
 18 59  1  0  0  0  0
 19 60  1  0  0  0  0
 19 61  1  0  0  0  0
 20 22  1  0  0  0  0
 20 23  1  0  0  0  0
 20 24  1  0  0  0  0
 20 62  1  0  0  0  0
 21 29  2  0  0  0  0
 21 30  1  0  0  0  0
 23 26  1  0  0  0  0
 23 63  1  0  0  0  0
 23 64  1  0  0  0  0
 24 27  1  0  0  0  0
 24 65  1  0  0  0  0
 24 66  1  0  0  0  0
 25 31  2  0  0  0  0
 26 28  1  0  0  0  0
 26 67  1  0  0  0  0
 26 68  1  0  0  0  0
 27 28  1  0  0  0  0
 27 69  1  0  0  0  0
 27 70  1  0  0  0  0
 28 71  1  0  0  0  0
 28 72  1  0  0  0  0
 29 32  1  0  0  0  0
 29 73  1  0  0  0  0
 30 33  2  0  0  0  0
 30 74  1  0  0  0  0
 31 35  1  0  0  0  0
 31 75  1  0  0  0  0
 32 34  2  0  0  0  0
 32 76  1  0  0  0  0
 33 34  1  0  0  0  0
 33 77  1  0  0  0  0
 34 78  1  0  0  0  0
 35 37  2  0  0  0  0
 35 79  1  0  0  0  0
 36 37  1  0  0  0  0
 36 80  1  0  0  0  0
 37 81  1  0  0  0  0
M  END
> <PUBCHEM_COMPOUND_CID>
505870
> <PUBCHEM_COMPOUND_CANONICALIZED>
1
> <PUBCHEM_CACTVS_COMPLEXITY>
720
> <PUBCHEM_CACTVS_HBOND_ACCEPTOR>
4
> <PUBCHEM_CACTVS_HBOND_DONOR>
0
> <PUBCHEM_CACTVS_ROTATABLE_BOND>
8
> <PUBCHEM_CACTVS_SUBSKEYS>
AAADcfB/oAAAAAAAAAAAAAAAGAAAAWAAAAA8eIEAAAAAAAABwAAAHgAAAAAADSjBmgQ9sJMIEACoAjN3dACCgCkxAiAJ2CE4ZJiIIPLA2ZGEIAhohgLIyCcYiMCOgAAAAAAAAAAAAAAAAAAAAAAAAAAAAA==
> <PUBCHEM_IUPAC_OPENEYE_NAME>
cyclohexyl-[(3S,4S)-3-[[4-[cyclopropylmethyl(2-pyridyl)amino]-1-piperidyl]methyl]-4-phenyl-pyrrolidin-1-yl]methanone
> <PUBCHEM_IUPAC_CAS_NAME>
cyclohexyl-[(3S,4S)-3-[[4-[cyclopropylmethyl(2-pyridinyl)amino]-1-piperidinyl]methyl]-4-phenyl-1-pyrrolidinyl]methanone
> <PUBCHEM_IUPAC_NAME_MARKUP>
cyclohexyl-[(3<I>S</I>,4<I>S</I>)-3-[[4-[cyclopropylmethyl(pyridin-2-yl)amino]piperidin-1-yl]methyl]-4-phenylpyrrolidin-1-yl]methanone
> <PUBCHEM_IUPAC_NAME>
cyclohexyl-[(3S,4S)-3-[[4-[cyclopropylmethyl(pyridin-2-yl)amino]piperidin-1-yl]methyl]-4-phenylpyrrolidin-1-yl]methanone
> <PUBCHEM_IUPAC_SYSTEMATIC_NAME>
cyclohexyl-[(3S,4S)-3-[[4-[cyclopropylmethyl(pyridin-2-yl)amino]piperidin-1-yl]methyl]-4-phenyl-pyrrolidin-1-yl]methanone
> <PUBCHEM_IUPAC_TRADITIONAL_NAME>
cyclohexyl-[(3S,4S)-3-[[4-[cyclopropylmethyl(2-pyridyl)amino]piperidino]methyl]-4-phenyl-pyrrolidino]methanone
> <PUBCHEM_IUPAC_INCHI>
InChI=1S/C32H44N4O/c37-32(27-11-5-2-6-12-27)35-23-28(30(24-35)26-9-3-1-4-10-26)22-34-19-16-29(17-20-34)36(21-25-14-15-25)31-13-7-8-18-33-31/h1,3-4,7-10,13,18,25,27-30H,2,5-6,11-12,14-17,19-24H2/t28-,30+/m0/s1
> <PUBCHEM_IUPAC_INCHIKEY>
DBYLVFWCKXCJGF-MFMCTBQISA-N
> <PUBCHEM_XLOGP3_AA>
6
> <PUBCHEM_EXACT_MASS>
500.35151204
> <PUBCHEM_MOLECULAR_FORMULA>
C32H44N4O
> <PUBCHEM_MOLECULAR_WEIGHT>
500.7
> <PUBCHEM_OPENEYE_CAN_SMILES>
C1CCC(CC1)C(=O)N2CC(C(C2)C3=CC=CC=C3)CN4CCC(CC4)N(CC5CC5)C6=CC=CC=N6
> <PUBCHEM_OPENEYE_ISO_SMILES>
C1CCC(CC1)C(=O)N2C[C@@H]([C@H](C2)C3=CC=CC=C3)CN4CCC(CC4)N(CC5CC5)C6=CC=CC=N6
> <PUBCHEM_CACTVS_TPSA>
39.7
> <PUBCHEM_MONOISOTOPIC_WEIGHT>
500.35151204
> <PUBCHEM_TOTAL_CHARGE>
0
> <PUBCHEM_HEAVY_ATOM_COUNT>
37
> <PUBCHEM_ATOM_DEF_STEREO_COUNT>
2
> <PUBCHEM_ATOM_UDEF_STEREO_COUNT>
0
> <PUBCHEM_BOND_DEF_STEREO_COUNT>
0
> <PUBCHEM_BOND_UDEF_STEREO_COUNT>
0
> <PUBCHEM_ISOTOPIC_ATOM_COUNT>
0
> <PUBCHEM_COMPONENT_COUNT>
1
> <PUBCHEM_CACTVS_TAUTO_COUNT>
-1
> <PUBCHEM_COORDINATE_TYPE>
1
5
255
> <PUBCHEM_BONDANNOTATIONS>
21  29  8
21  30  8
25  31  8
29  32  8
30  33  8
31  35  8
32  34  8
33  34  8
35  37  8
36  37  8
5  25  8
5  36  8
6  12  6
8  21  5
$$$$
