505899
  -OEChem-10302200282D
 50 52  0     1  0  0  0  0  0999 V2000
    8.6466   -0.6895    0.0000 O   0  0  0  0  0  0  0  0  0  0  0  0
    6.8671    0.4038    0.0000 O   0  0  0  0  0  0  0  0  0  0  0  0
    7.0945   -2.7599    0.0000 O   0  0  0  0  0  0  0  0  0  0  0  0
    9.2225   -3.2122    0.0000 O   0  0  0  0  0  0  0  0  0  0  0  0
    5.1350    0.4038    0.0000 O   0  0  0  0  0  0  0  0  0  0  0  0
    6.8671    2.4038    0.0000 O   0  0  0  0  0  0  0  0  0  0  0  0
    5.1350   -0.5962    0.0000 O   0  0  0  0  0  0  0  0  0  0  0  0
    5.1350    3.4038    0.0000 O   0  0  0  0  0  0  0  0  0  0  0  0
   10.4913   -3.0507    0.0000 O   0  0  0  0  0  0  0  0  0  0  0  0
   13.2939   -1.0145    0.0000 O   0  0  0  0  0  0  0  0  0  0  0  0
    2.5369    0.9038    0.0000 O   0  0  0  0  0  0  0  0  0  0  0  0
    3.4030   -0.5962    0.0000 O   0  0  0  0  0  0  0  0  0  0  0  0
   10.3103   -1.3281    0.0000 N   0  0  0  0  0  0  0  0  0  0  0  0
    6.0010   -2.0962    0.0000 N   0  0  0  0  0  0  0  0  0  0  0  0
   11.8926   -2.0326    0.0000 N   0  0  0  0  0  0  0  0  0  0  0  0
    7.7331   -1.0962    0.0000 C   0  0  1  0  0  0  0  0  0  0  0  0
    7.8376   -2.0907    0.0000 C   0  0  2  0  0  0  0  0  0  0  0  0
    8.8158   -2.2986    0.0000 C   0  0  2  0  0  0  0  0  0  0  0  0
    9.3158   -1.4326    0.0000 C   0  0  1  0  0  0  0  0  0  0  0  0
    6.8671   -0.5962    0.0000 C   0  0  1  0  0  0  0  0  0  0  0  0
    6.0010    0.9038    0.0000 C   0  0  1  0  0  0  0  0  0  0  0  0
    6.0010   -1.0962    0.0000 C   0  0  0  0  0  0  0  0  0  0  0  0
    6.0010    1.9038    0.0000 C   0  0  2  0  0  0  0  0  0  0  0  0
    5.1350    2.4038    0.0000 C   0  0  2  0  0  0  0  0  0  0  0  0
   10.8981   -2.1371    0.0000 C   0  0  0  0  0  0  0  0  0  0  0  0
   10.7170   -0.4145    0.0000 C   0  0  0  0  0  0  0  0  0  0  0  0
    4.2690    1.9038    0.0000 C   0  0  0  0  0  0  0  0  0  0  0  0
    4.2690    0.9038    0.0000 C   0  0  0  0  0  0  0  0  0  0  0  0
   11.7115   -0.3100    0.0000 C   0  0  0  0  0  0  0  0  0  0  0  0
   12.2993   -1.1190    0.0000 C   0  0  0  0  0  0  0  0  0  0  0  0
    3.4030    0.4038    0.0000 C   0  0  0  0  0  0  0  0  0  0  0  0
    7.7776   -0.2474    0.0000 H   0  0  0  0  0  0  0  0  0  0  0  0
    7.2588   -1.8686    0.0000 H   0  0  0  0  0  0  0  0  0  0  0  0
    9.4349   -2.3311    0.0000 H   0  0  0  0  0  0  0  0  0  0  0  0
    9.6534   -1.9526    0.0000 H   0  0  0  0  0  0  0  0  0  0  0  0
    6.3301   -0.2862    0.0000 H   0  0  0  0  0  0  0  0  0  0  0  0
    6.5380    1.2138    0.0000 H   0  0  0  0  0  0  0  0  0  0  0  0
    7.2234   -3.3663    0.0000 H   0  0  0  0  0  0  0  0  0  0  0  0
    6.0010    2.5238    0.0000 H   0  0  0  0  0  0  0  0  0  0  0  0
    8.8581   -3.7138    0.0000 H   0  0  0  0  0  0  0  0  0  0  0  0
    4.5981    2.7138    0.0000 H   0  0  0  0  0  0  0  0  0  0  0  0
   10.3526    0.0870    0.0000 H   0  0  0  0  0  0  0  0  0  0  0  0
    3.7320    2.2138    0.0000 H   0  0  0  0  0  0  0  0  0  0  0  0
    5.4641   -2.4062    0.0000 H   0  0  0  0  0  0  0  0  0  0  0  0
    6.5380   -2.4062    0.0000 H   0  0  0  0  0  0  0  0  0  0  0  0
   12.2570   -2.5342    0.0000 H   0  0  0  0  0  0  0  0  0  0  0  0
   11.9637    0.2564    0.0000 H   0  0  0  0  0  0  0  0  0  0  0  0
    6.8671    3.0238    0.0000 H   0  0  0  0  0  0  0  0  0  0  0  0
    4.5981    3.7138    0.0000 H   0  0  0  0  0  0  0  0  0  0  0  0
    2.0000    0.5938    0.0000 H   0  0  0  0  0  0  0  0  0  0  0  0
  1 16  1  0  0  0  0
  1 19  1  0  0  0  0
 20  2  1  1  0  0  0
 21  2  1  1  0  0  0
 17  3  1  6  0  0  0
  3 38  1  0  0  0  0
 18  4  1  6  0  0  0
  4 40  1  0  0  0  0
  5 21  1  0  0  0  0
  5 28  1  0  0  0  0
 23  6  1  6  0  0  0
  6 48  1  0  0  0  0
  7 22  2  0  0  0  0
 24  8  1  6  0  0  0
  8 49  1  0  0  0  0
  9 25  2  0  0  0  0
 10 30  2  0  0  0  0
 11 31  1  0  0  0  0
 11 50  1  0  0  0  0
 12 31  2  0  0  0  0
 19 13  1  1  0  0  0
 13 25  1  0  0  0  0
 13 26  1  0  0  0  0
 14 22  1  0  0  0  0
 14 44  1  0  0  0  0
 14 45  1  0  0  0  0
 15 25  1  0  0  0  0
 15 30  1  0  0  0  0
 15 46  1  0  0  0  0
 16 17  1  0  0  0  0
 16 20  1  0  0  0  0
 16 32  1  6  0  0  0
 17 18  1  0  0  0  0
 17 33  1  0  0  0  0
 18 19  1  0  0  0  0
 18 34  1  0  0  0  0
 19 35  1  0  0  0  0
 20 22  1  0  0  0  0
 20 36  1  0  0  0  0
 21 23  1  0  0  0  0
 21 37  1  0  0  0  0
 23 24  1  0  0  0  0
 23 39  1  0  0  0  0
 24 27  1  0  0  0  0
 24 41  1  0  0  0  0
 26 29  2  0  0  0  0
 26 42  1  0  0  0  0
 27 28  2  0  0  0  0
 27 43  1  0  0  0  0
 28 31  1  0  0  0  0
 29 30  1  0  0  0  0
 29 47  1  0  0  0  0
M  END
> <PUBCHEM_COMPOUND_CID>
505899
> <PUBCHEM_COMPOUND_CANONICALIZED>
1
> <PUBCHEM_CACTVS_COMPLEXITY>
844
> <PUBCHEM_CACTVS_HBOND_ACCEPTOR>
12
> <PUBCHEM_CACTVS_HBOND_DONOR>
7
> <PUBCHEM_CACTVS_ROTATABLE_BOND>
6
> <PUBCHEM_CACTVS_SUBSKEYS>
AAADceB7PAAAAAAAAAAAAAAAAAAAASAAAAAgQAAAAAAAAAAAAAAAHgAQCAAACBTxgAcBCAPABgCIACHWWAKACAAgIgAICAFIAEiTFBYAgAQvUAAP9yIfEcP6fA5AAAAAAAAAAAAAAAAAAAAAAAAAAAAAAA==
> <PUBCHEM_IUPAC_OPENEYE_NAME>
(2S,3S,4S)-2-[(1S)-2-amino-1-[(2S,3S,4R,5R)-5-(2,4-dioxopyrimidin-1-yl)-3,4-dihydroxy-tetrahydrofuran-2-yl]-2-oxo-ethoxy]-3,4-dihydroxy-3,4-dihydro-2H-pyran-6-carboxylic acid
> <PUBCHEM_IUPAC_CAS_NAME>
(2S,3S,4S)-2-[(1S)-2-amino-1-[(2S,3S,4R,5R)-5-(2,4-dioxo-1-pyrimidinyl)-3,4-dihydroxy-2-oxolanyl]-2-oxoethoxy]-3,4-dihydroxy-3,4-dihydro-2H-pyran-6-carboxylic acid
> <PUBCHEM_IUPAC_NAME_MARKUP>
(2<I>S</I>,3<I>S</I>,4<I>S</I>)-2-[(1<I>S</I>)-2-amino-1-[(2<I>S</I>,3<I>S</I>,4<I>R</I>,5<I>R</I>)-5-(2,4-dioxopyrimidin-1-yl)-3,4-dihydroxyoxolan-2-yl]-2-oxoethoxy]-3,4-dihydroxy-3,4-dihydro-2<I>H</I>-pyran-6-carboxylic acid
> <PUBCHEM_IUPAC_NAME>
(2S,3S,4S)-2-[(1S)-2-amino-1-[(2S,3S,4R,5R)-5-(2,4-dioxopyrimidin-1-yl)-3,4-dihydroxyoxolan-2-yl]-2-oxoethoxy]-3,4-dihydroxy-3,4-dihydro-2H-pyran-6-carboxylic acid
> <PUBCHEM_IUPAC_SYSTEMATIC_NAME>
(2S,3S,4S)-2-[(1S)-2-azanyl-1-[(2S,3S,4R,5R)-5-[2,4-bis(oxidanylidene)pyrimidin-1-yl]-3,4-bis(oxidanyl)oxolan-2-yl]-2-oxidanylidene-ethoxy]-3,4-bis(oxidanyl)-3,4-dihydro-2H-pyran-6-carboxylic acid
> <PUBCHEM_IUPAC_TRADITIONAL_NAME>
(2S,3S,4S)-2-[(1S)-2-amino-1-[(2S,3S,4R,5R)-5-(2,4-diketopyrimidin-1-yl)-3,4-dihydroxy-tetrahydrofuran-2-yl]-2-keto-ethoxy]-3,4-dihydroxy-3,4-dihydro-2H-pyran-6-carboxylic acid
> <PUBCHEM_IUPAC_INCHI>
InChI=1S/C16H19N3O12/c17-12(25)11(31-15-7(22)4(20)3-5(29-15)14(26)27)10-8(23)9(24)13(30-10)19-2-1-6(21)18-16(19)28/h1-4,7-11,13,15,20,22-24H,(H2,17,25)(H,26,27)(H,18,21,28)/t4-,7-,8-,9+,10-,11-,13+,15+/m0/s1
> <PUBCHEM_IUPAC_INCHIKEY>
IHFPUFPCUYMJRS-ZEDZFBBQSA-N
> <PUBCHEM_XLOGP3_AA>
-4.6
> <PUBCHEM_EXACT_MASS>
445.09687305
> <PUBCHEM_MOLECULAR_FORMULA>
C16H19N3O12
> <PUBCHEM_MOLECULAR_WEIGHT>
445.33
> <PUBCHEM_OPENEYE_CAN_SMILES>
C1=CN(C(=O)NC1=O)C2C(C(C(O2)C(C(=O)N)OC3C(C(C=C(O3)C(=O)O)O)O)O)O
> <PUBCHEM_OPENEYE_ISO_SMILES>
C1=CN(C(=O)NC1=O)[C@H]2[C@@H]([C@@H]([C@H](O2)[C@@H](C(=O)N)O[C@@H]3[C@H]([C@H](C=C(O3)C(=O)O)O)O)O)O
> <PUBCHEM_CACTVS_TPSA>
238
> <PUBCHEM_MONOISOTOPIC_WEIGHT>
445.09687305
> <PUBCHEM_TOTAL_CHARGE>
0
> <PUBCHEM_HEAVY_ATOM_COUNT>
31
> <PUBCHEM_ATOM_DEF_STEREO_COUNT>
8
> <PUBCHEM_ATOM_UDEF_STEREO_COUNT>
0
> <PUBCHEM_BOND_DEF_STEREO_COUNT>
0
> <PUBCHEM_BOND_UDEF_STEREO_COUNT>
0
> <PUBCHEM_ISOTOPIC_ATOM_COUNT>
0
> <PUBCHEM_COMPONENT_COUNT>
1
> <PUBCHEM_CACTVS_TAUTO_COUNT>
-1
> <PUBCHEM_COORDINATE_TYPE>
1
5
255
> <PUBCHEM_BONDANNOTATIONS>
19  13  5
13  25  8
13  26  8
15  25  8
15  30  8
16  32  6
20  2  5
21  2  5
26  29  8
29  30  8
17  3  6
18  4  6
23  6  6
24  8  6
$$$$
