505866
  -OEChem-10302200282D
 76 80  0     1  0  0  0  0  0999 V2000
    3.4901   -0.9129    0.0000 O   0  0  0  0  0  0  0  0  0  0  0  0
    7.3400   -0.0945    0.0000 N   0  0  0  0  0  0  0  0  0  0  0  0
    4.8913   -1.9309    0.0000 N   0  0  0  0  0  0  0  0  0  0  0  0
    7.3400    2.9055    0.0000 N   0  0  3  0  0  0  0  0  0  0  0  0
    3.3090   -2.6354    0.0000 N   0  0  0  0  0  0  0  0  0  0  0  0
    8.2060    4.4055    0.0000 N   0  0  0  0  0  0  0  0  0  0  0  0
    6.4740   -1.5945    0.0000 C   0  0  1  0  0  0  0  0  0  0  0  0
    6.3695   -2.5891    0.0000 C   0  0  2  0  0  0  0  0  0  0  0  0
    7.3400   -1.0945    0.0000 C   0  0  0  0  0  0  0  0  0  0  0  0
    5.5604   -1.1878    0.0000 C   0  0  0  0  0  0  0  0  0  0  0  0
    5.3913   -2.7970    0.0000 C   0  0  0  0  0  0  0  0  0  0  0  0
    7.3400    1.9055    0.0000 C   0  0  0  0  0  0  0  0  0  0  0  0
    6.4740    0.4055    0.0000 C   0  0  0  0  0  0  0  0  0  0  0  0
    8.2060    0.4055    0.0000 C   0  0  0  0  0  0  0  0  0  0  0  0
    6.4740    1.4055    0.0000 C   0  0  0  0  0  0  0  0  0  0  0  0
    8.2060    1.4055    0.0000 C   0  0  0  0  0  0  0  0  0  0  0  0
    7.1126   -3.2582    0.0000 C   0  0  0  0  0  0  0  0  0  0  0  0
    3.8968   -1.8264    0.0000 C   0  0  0  0  0  0  0  0  0  0  0  0
    2.3090   -2.6354    0.0000 C   0  0  0  0  0  0  0  0  0  0  0  0
    3.6180   -3.5865    0.0000 C   0  0  0  0  0  0  0  0  0  0  0  0
    8.0637   -2.9492    0.0000 C   0  0  0  0  0  0  0  0  0  0  0  0
    6.9047   -4.2363    0.0000 C   0  0  0  0  0  0  0  0  0  0  0  0
    2.0000   -3.5865    0.0000 C   0  0  0  0  0  0  0  0  0  0  0  0
    2.8090   -4.1743    0.0000 C   0  0  0  0  0  0  0  0  0  0  0  0
    6.4740    3.4055    0.0000 C   0  0  0  0  0  0  0  0  0  0  0  0
    8.2060    3.4055    0.0000 C   0  0  0  0  0  0  0  0  0  0  0  0
    8.8068   -3.6183    0.0000 C   0  0  0  0  0  0  0  0  0  0  0  0
    7.6478   -4.9055    0.0000 C   0  0  0  0  0  0  0  0  0  0  0  0
    6.4740    4.4055    0.0000 C   0  0  0  0  0  0  0  0  0  0  0  0
    8.5989   -4.5964    0.0000 C   0  0  0  0  0  0  0  0  0  0  0  0
    9.0721    2.9055    0.0000 C   0  0  0  0  0  0  0  0  0  0  0  0
    5.6080    4.9055    0.0000 C   0  0  0  0  0  0  0  0  0  0  0  0
    9.9381    3.4055    0.0000 C   0  0  0  0  0  0  0  0  0  0  0  0
    9.0721    4.9055    0.0000 C   0  0  0  0  0  0  0  0  0  0  0  0
    9.9381    4.4055    0.0000 C   0  0  0  0  0  0  0  0  0  0  0  0
    6.9940   -1.9322    0.0000 H   0  0  0  0  0  0  0  0  0  0  0  0
    6.2090   -3.1879    0.0000 H   0  0  0  0  0  0  0  0  0  0  0  0
    7.5521   -1.6771    0.0000 H   0  0  0  0  0  0  0  0  0  0  0  0
    7.9506   -0.9869    0.0000 H   0  0  0  0  0  0  0  0  0  0  0  0
    5.8704   -0.6509    0.0000 H   0  0  0  0  0  0  0  0  0  0  0  0
    5.0589   -0.8234    0.0000 H   0  0  0  0  0  0  0  0  0  0  0  0
    4.8249   -3.0491    0.0000 H   0  0  0  0  0  0  0  0  0  0  0  0
    5.5829   -3.3866    0.0000 H   0  0  0  0  0  0  0  0  0  0  0  0
    7.8770    2.2155    0.0000 H   0  0  0  0  0  0  0  0  0  0  0  0
    5.8634    0.5131    0.0000 H   0  0  0  0  0  0  0  0  0  0  0  0
    6.2620   -0.1771    0.0000 H   0  0  0  0  0  0  0  0  0  0  0  0
    8.4181   -0.1771    0.0000 H   0  0  0  0  0  0  0  0  0  0  0  0
    8.8166    0.5131    0.0000 H   0  0  0  0  0  0  0  0  0  0  0  0
    6.2620    1.9881    0.0000 H   0  0  0  0  0  0  0  0  0  0  0  0
    5.8634    1.2978    0.0000 H   0  0  0  0  0  0  0  0  0  0  0  0
    8.8166    1.2978    0.0000 H   0  0  0  0  0  0  0  0  0  0  0  0
    8.4181    1.9881    0.0000 H   0  0  0  0  0  0  0  0  0  0  0  0
    2.3738   -2.0188    0.0000 H   0  0  0  0  0  0  0  0  0  0  0  0
    1.7026   -2.5065    0.0000 H   0  0  0  0  0  0  0  0  0  0  0  0
    3.9280   -4.1234    0.0000 H   0  0  0  0  0  0  0  0  0  0  0  0
    4.1844   -3.3343    0.0000 H   0  0  0  0  0  0  0  0  0  0  0  0
    8.1926   -2.3427    0.0000 H   0  0  0  0  0  0  0  0  0  0  0  0
    6.3150   -4.4279    0.0000 H   0  0  0  0  0  0  0  0  0  0  0  0
    1.4336   -3.3343    0.0000 H   0  0  0  0  0  0  0  0  0  0  0  0
    1.6900   -4.1234    0.0000 H   0  0  0  0  0  0  0  0  0  0  0  0
    2.3942   -4.6350    0.0000 H   0  0  0  0  0  0  0  0  0  0  0  0
    3.2239   -4.6350    0.0000 H   0  0  0  0  0  0  0  0  0  0  0  0
    5.8634    3.5131    0.0000 H   0  0  0  0  0  0  0  0  0  0  0  0
    6.2620    2.8229    0.0000 H   0  0  0  0  0  0  0  0  0  0  0  0
    9.3965   -3.4267    0.0000 H   0  0  0  0  0  0  0  0  0  0  0  0
    7.5189   -5.5119    0.0000 H   0  0  0  0  0  0  0  0  0  0  0  0
    7.0846    4.2978    0.0000 H   0  0  0  0  0  0  0  0  0  0  0  0
    6.6860    4.9881    0.0000 H   0  0  0  0  0  0  0  0  0  0  0  0
    9.0597   -5.0113    0.0000 H   0  0  0  0  0  0  0  0  0  0  0  0
    9.0721    2.2855    0.0000 H   0  0  0  0  0  0  0  0  0  0  0  0
    5.9180    5.4424    0.0000 H   0  0  0  0  0  0  0  0  0  0  0  0
    5.0710    5.2155    0.0000 H   0  0  0  0  0  0  0  0  0  0  0  0
    5.2980    4.3685    0.0000 H   0  0  0  0  0  0  0  0  0  0  0  0
   10.4750    3.0955    0.0000 H   0  0  0  0  0  0  0  0  0  0  0  0
    9.0721    5.5255    0.0000 H   0  0  0  0  0  0  0  0  0  0  0  0
   10.4750    4.7155    0.0000 H   0  0  0  0  0  0  0  0  0  0  0  0
  1 18  2  0  0  0  0
  2  9  1  0  0  0  0
  2 13  1  0  0  0  0
  2 14  1  0  0  0  0
  3 10  1  0  0  0  0
  3 11  1  0  0  0  0
  3 18  1  0  0  0  0
  4 12  1  0  0  0  0
  4 25  1  0  0  0  0
  4 26  1  0  0  0  0
  5 18  1  0  0  0  0
  5 19  1  0  0  0  0
  5 20  1  0  0  0  0
  6 26  1  0  0  0  0
  6 34  2  0  0  0  0
  7  8  1  0  0  0  0
  7  9  1  6  0  0  0
  7 10  1  0  0  0  0
  7 36  1  0  0  0  0
  8 11  1  0  0  0  0
  8 17  1  1  0  0  0
  8 37  1  0  0  0  0
  9 38  1  0  0  0  0
  9 39  1  0  0  0  0
 10 40  1  0  0  0  0
 10 41  1  0  0  0  0
 11 42  1  0  0  0  0
 11 43  1  0  0  0  0
 12 15  1  0  0  0  0
 12 16  1  0  0  0  0
 12 44  1  0  0  0  0
 13 15  1  0  0  0  0
 13 45  1  0  0  0  0
 13 46  1  0  0  0  0
 14 16  1  0  0  0  0
 14 47  1  0  0  0  0
 14 48  1  0  0  0  0
 15 49  1  0  0  0  0
 15 50  1  0  0  0  0
 16 51  1  0  0  0  0
 16 52  1  0  0  0  0
 17 21  2  0  0  0  0
 17 22  1  0  0  0  0
 19 23  1  0  0  0  0
 19 53  1  0  0  0  0
 19 54  1  0  0  0  0
 20 24  1  0  0  0  0
 20 55  1  0  0  0  0
 20 56  1  0  0  0  0
 21 27  1  0  0  0  0
 21 57  1  0  0  0  0
 22 28  2  0  0  0  0
 22 58  1  0  0  0  0
 23 24  1  0  0  0  0
 23 59  1  0  0  0  0
 23 60  1  0  0  0  0
 24 61  1  0  0  0  0
 24 62  1  0  0  0  0
 25 29  1  0  0  0  0
 25 63  1  0  0  0  0
 25 64  1  0  0  0  0
 26 31  2  0  0  0  0
 27 30  2  0  0  0  0
 27 65  1  0  0  0  0
 28 30  1  0  0  0  0
 28 66  1  0  0  0  0
 29 32  1  0  0  0  0
 29 67  1  0  0  0  0
 29 68  1  0  0  0  0
 30 69  1  0  0  0  0
 31 33  1  0  0  0  0
 31 70  1  0  0  0  0
 32 71  1  0  0  0  0
 32 72  1  0  0  0  0
 32 73  1  0  0  0  0
 33 35  2  0  0  0  0
 33 74  1  0  0  0  0
 34 35  1  0  0  0  0
 34 75  1  0  0  0  0
 35 76  1  0  0  0  0
M  END
> <PUBCHEM_COMPOUND_CID>
505866
> <PUBCHEM_COMPOUND_CANONICALIZED>
1
> <PUBCHEM_CACTVS_COMPLEXITY>
654
> <PUBCHEM_CACTVS_HBOND_ACCEPTOR>
4
> <PUBCHEM_CACTVS_HBOND_DONOR>
0
> <PUBCHEM_CACTVS_ROTATABLE_BOND>
7
> <PUBCHEM_CACTVS_SUBSKEYS>
AAADcfB7oAAAAAAAAAAAAAAAAAAAAWLAAAA8WIAAAAAAAAABwAAAHgAAAAAADSjBGgQ/sJMIEACoAjJndACCgCkxAiAJ2CA4ZJiIIOLA2ZGEIAhohgLIyCcQgMAOgAAAAAAAAAAAAAAAAAAAAAAAAAAAAA==
> <PUBCHEM_IUPAC_OPENEYE_NAME>
[(3S,4S)-3-phenyl-4-[[4-[propyl(2-pyridyl)amino]-1-piperidyl]methyl]pyrrolidin-1-yl]-pyrrolidin-1-yl-methanone
> <PUBCHEM_IUPAC_CAS_NAME>
[(3S,4S)-3-phenyl-4-[[4-[propyl(2-pyridinyl)amino]-1-piperidinyl]methyl]-1-pyrrolidinyl]-(1-pyrrolidinyl)methanone
> <PUBCHEM_IUPAC_NAME_MARKUP>
[(3<I>S</I>,4<I>S</I>)-3-phenyl-4-[[4-[propyl(pyridin-2-yl)amino]piperidin-1-yl]methyl]pyrrolidin-1-yl]-pyrrolidin-1-ylmethanone
> <PUBCHEM_IUPAC_NAME>
[(3S,4S)-3-phenyl-4-[[4-[propyl(pyridin-2-yl)amino]piperidin-1-yl]methyl]pyrrolidin-1-yl]-pyrrolidin-1-ylmethanone
> <PUBCHEM_IUPAC_SYSTEMATIC_NAME>
[(3S,4S)-3-phenyl-4-[[4-[propyl(pyridin-2-yl)amino]piperidin-1-yl]methyl]pyrrolidin-1-yl]-pyrrolidin-1-yl-methanone
> <PUBCHEM_IUPAC_TRADITIONAL_NAME>
[(3S,4S)-3-phenyl-4-[[4-[propyl(2-pyridyl)amino]piperidino]methyl]pyrrolidino]-pyrrolidino-methanone
> <PUBCHEM_IUPAC_INCHI>
InChI=1S/C29H41N5O/c1-2-16-34(28-12-6-7-15-30-28)26-13-19-31(20-14-26)21-25-22-33(29(35)32-17-8-9-18-32)23-27(25)24-10-4-3-5-11-24/h3-7,10-12,15,25-27H,2,8-9,13-14,16-23H2,1H3/t25-,27+/m0/s1
> <PUBCHEM_IUPAC_INCHIKEY>
VFWZVVDVMDAVKC-AHKZPQOWSA-N
> <PUBCHEM_XLOGP3_AA>
4.6
> <PUBCHEM_EXACT_MASS>
475.33111095
> <PUBCHEM_MOLECULAR_FORMULA>
C29H41N5O
> <PUBCHEM_MOLECULAR_WEIGHT>
475.7
> <PUBCHEM_OPENEYE_CAN_SMILES>
CCCN(C1CCN(CC1)CC2CN(CC2C3=CC=CC=C3)C(=O)N4CCCC4)C5=CC=CC=N5
> <PUBCHEM_OPENEYE_ISO_SMILES>
CCCN(C1CCN(CC1)C[C@H]2CN(C[C@@H]2C3=CC=CC=C3)C(=O)N4CCCC4)C5=CC=CC=N5
> <PUBCHEM_CACTVS_TPSA>
42.9
> <PUBCHEM_MONOISOTOPIC_WEIGHT>
475.33111095
> <PUBCHEM_TOTAL_CHARGE>
0
> <PUBCHEM_HEAVY_ATOM_COUNT>
35
> <PUBCHEM_ATOM_DEF_STEREO_COUNT>
2
> <PUBCHEM_ATOM_UDEF_STEREO_COUNT>
0
> <PUBCHEM_BOND_DEF_STEREO_COUNT>
0
> <PUBCHEM_BOND_UDEF_STEREO_COUNT>
0
> <PUBCHEM_ISOTOPIC_ATOM_COUNT>
0
> <PUBCHEM_COMPONENT_COUNT>
1
> <PUBCHEM_CACTVS_TAUTO_COUNT>
-1
> <PUBCHEM_COORDINATE_TYPE>
1
5
255
> <PUBCHEM_BONDANNOTATIONS>
17  21  8
17  22  8
21  27  8
22  28  8
26  31  8
27  30  8
28  30  8
31  33  8
33  35  8
34  35  8
6  26  8
6  34  8
7  9  6
8  17  5
$$$$
