505890
  -OEChem-10302200282D
 81 85  0     1  0  0  0  0  0999 V2000
    7.1966   -6.1445    0.0000 F   0  0  0  0  0  0  0  0  0  0  0  0
    2.2522   -1.0693    0.0000 O   0  0  0  0  0  0  0  0  0  0  0  0
    3.8345   -0.3648    0.0000 O   0  0  0  0  0  0  0  0  0  0  0  0
    8.8287    5.6445    0.0000 O   0  0  0  0  0  0  0  0  0  0  0  0
    4.6480   -2.1919    0.0000 N   0  0  3  0  0  0  0  0  0  0  0  0
    7.0967   -0.3555    0.0000 N   0  0  0  0  0  0  0  0  0  0  0  0
    7.0967    2.6445    0.0000 N   0  0  3  0  0  0  0  0  0  0  0  0
    7.9627    4.1445    0.0000 N   0  0  0  0  0  0  0  0  0  0  0  0
    8.8287    2.6445    0.0000 N   0  0  0  0  0  0  0  0  0  0  0  0
    6.2306   -1.8555    0.0000 C   0  0  2  0  0  0  0  0  0  0  0  0
    3.0657   -2.8964    0.0000 C   0  0  0  0  0  0  0  0  0  0  0  0
    6.1261   -2.8500    0.0000 C   0  0  2  0  0  0  0  0  0  0  0  0
    3.6534   -2.0873    0.0000 C   0  0  2  0  0  0  0  0  0  0  0  0
    5.3171   -1.4487    0.0000 C   0  0  0  0  0  0  0  0  0  0  0  0
    5.1480   -3.0579    0.0000 C   0  0  0  0  0  0  0  0  0  0  0  0
    2.0780   -3.0528    0.0000 C   0  0  0  0  0  0  0  0  0  0  0  0
    3.2221   -3.8840    0.0000 C   0  0  0  0  0  0  0  0  0  0  0  0
    7.0967   -1.3555    0.0000 C   0  0  0  0  0  0  0  0  0  0  0  0
    2.2344   -4.0405    0.0000 C   0  0  0  0  0  0  0  0  0  0  0  0
    6.8692   -3.5191    0.0000 C   0  0  0  0  0  0  0  0  0  0  0  0
    6.2306    0.1445    0.0000 C   0  0  0  0  0  0  0  0  0  0  0  0
    7.9627    0.1445    0.0000 C   0  0  0  0  0  0  0  0  0  0  0  0
    3.2467   -1.1738    0.0000 C   0  0  0  0  0  0  0  0  0  0  0  0
    7.0967    1.6445    0.0000 C   0  0  0  0  0  0  0  0  0  0  0  0
    6.2306    1.1445    0.0000 C   0  0  0  0  0  0  0  0  0  0  0  0
    7.9627    1.1445    0.0000 C   0  0  0  0  0  0  0  0  0  0  0  0
    6.6613   -4.4973    0.0000 C   0  0  0  0  0  0  0  0  0  0  0  0
    7.8203   -3.2101    0.0000 C   0  0  0  0  0  0  0  0  0  0  0  0
    6.2306    3.1445    0.0000 C   0  0  0  0  0  0  0  0  0  0  0  0
    7.4045   -5.1664    0.0000 C   0  0  0  0  0  0  0  0  0  0  0  0
    8.5634   -3.8792    0.0000 C   0  0  0  0  0  0  0  0  0  0  0  0
    7.9627    3.1445    0.0000 C   0  0  0  0  0  0  0  0  0  0  0  0
    8.3555   -4.8574    0.0000 C   0  0  0  0  0  0  0  0  0  0  0  0
    6.2306    4.1445    0.0000 C   0  0  0  0  0  0  0  0  0  0  0  0
    5.3646    4.6445    0.0000 C   0  0  0  0  0  0  0  0  0  0  0  0
    8.8287    4.6445    0.0000 C   0  0  0  0  0  0  0  0  0  0  0  0
    9.6947    3.1445    0.0000 C   0  0  0  0  0  0  0  0  0  0  0  0
    9.6947    4.1445    0.0000 C   0  0  0  0  0  0  0  0  0  0  0  0
    9.6947    6.1445    0.0000 C   0  0  0  0  0  0  0  0  0  0  0  0
    6.1982   -1.2363    0.0000 H   0  0  0  0  0  0  0  0  0  0  0  0
    2.7417   -2.3677    0.0000 H   0  0  0  0  0  0  0  0  0  0  0  0
    6.7049   -2.6278    0.0000 H   0  0  0  0  0  0  0  0  0  0  0  0
    4.0179   -1.5858    0.0000 H   0  0  0  0  0  0  0  0  0  0  0  0
    5.6271   -0.9118    0.0000 H   0  0  0  0  0  0  0  0  0  0  0  0
    4.8155   -1.0843    0.0000 H   0  0  0  0  0  0  0  0  0  0  0  0
    4.5816   -3.3101    0.0000 H   0  0  0  0  0  0  0  0  0  0  0  0
    5.3396   -3.6476    0.0000 H   0  0  0  0  0  0  0  0  0  0  0  0
    1.9810   -2.4404    0.0000 H   0  0  0  0  0  0  0  0  0  0  0  0
    1.4656   -3.1498    0.0000 H   0  0  0  0  0  0  0  0  0  0  0  0
    3.3191   -4.4964    0.0000 H   0  0  0  0  0  0  0  0  0  0  0  0
    3.8344   -3.7871    0.0000 H   0  0  0  0  0  0  0  0  0  0  0  0
    7.3087   -1.9381    0.0000 H   0  0  0  0  0  0  0  0  0  0  0  0
    7.7072   -1.2478    0.0000 H   0  0  0  0  0  0  0  0  0  0  0  0
    1.6220   -4.1375    0.0000 H   0  0  0  0  0  0  0  0  0  0  0  0
    2.3314   -4.6528    0.0000 H   0  0  0  0  0  0  0  0  0  0  0  0
    5.6200    0.2522    0.0000 H   0  0  0  0  0  0  0  0  0  0  0  0
    6.0186   -0.4381    0.0000 H   0  0  0  0  0  0  0  0  0  0  0  0
    8.1747   -0.4381    0.0000 H   0  0  0  0  0  0  0  0  0  0  0  0
    8.5733    0.2522    0.0000 H   0  0  0  0  0  0  0  0  0  0  0  0
    7.6336    1.9545    0.0000 H   0  0  0  0  0  0  0  0  0  0  0  0
    6.0186    1.7272    0.0000 H   0  0  0  0  0  0  0  0  0  0  0  0
    5.6200    1.0369    0.0000 H   0  0  0  0  0  0  0  0  0  0  0  0
    8.5733    1.0369    0.0000 H   0  0  0  0  0  0  0  0  0  0  0  0
    8.1747    1.7272    0.0000 H   0  0  0  0  0  0  0  0  0  0  0  0
    6.0717   -4.6889    0.0000 H   0  0  0  0  0  0  0  0  0  0  0  0
    7.9492   -2.6036    0.0000 H   0  0  0  0  0  0  0  0  0  0  0  0
    2.0000   -0.5029    0.0000 H   0  0  0  0  0  0  0  0  0  0  0  0
    5.6200    3.2522    0.0000 H   0  0  0  0  0  0  0  0  0  0  0  0
    6.0186    2.5619    0.0000 H   0  0  0  0  0  0  0  0  0  0  0  0
    9.1531   -3.6876    0.0000 H   0  0  0  0  0  0  0  0  0  0  0  0
    8.8163   -5.2722    0.0000 H   0  0  0  0  0  0  0  0  0  0  0  0
    6.8412    4.0369    0.0000 H   0  0  0  0  0  0  0  0  0  0  0  0
    6.4427    4.7272    0.0000 H   0  0  0  0  0  0  0  0  0  0  0  0
    5.6746    5.1815    0.0000 H   0  0  0  0  0  0  0  0  0  0  0  0
    4.8277    4.9545    0.0000 H   0  0  0  0  0  0  0  0  0  0  0  0
    5.0546    4.1076    0.0000 H   0  0  0  0  0  0  0  0  0  0  0  0
   10.2317    2.8345    0.0000 H   0  0  0  0  0  0  0  0  0  0  0  0
   10.2317    4.4545    0.0000 H   0  0  0  0  0  0  0  0  0  0  0  0
   10.0047    5.6076    0.0000 H   0  0  0  0  0  0  0  0  0  0  0  0
   10.2317    6.4545    0.0000 H   0  0  0  0  0  0  0  0  0  0  0  0
    9.3847    6.6815    0.0000 H   0  0  0  0  0  0  0  0  0  0  0  0
  1 30  1  0  0  0  0
  2 23  1  0  0  0  0
  2 67  1  0  0  0  0
  3 23  2  0  0  0  0
  4 36  1  0  0  0  0
  4 39  1  0  0  0  0
  5 13  1  0  0  0  0
  5 14  1  0  0  0  0
  5 15  1  0  0  0  0
  6 18  1  0  0  0  0
  6 21  1  0  0  0  0
  6 22  1  0  0  0  0
  7 24  1  0  0  0  0
  7 29  1  0  0  0  0
  7 32  1  0  0  0  0
  8 32  1  0  0  0  0
  8 36  2  0  0  0  0
  9 32  2  0  0  0  0
  9 37  1  0  0  0  0
 10 12  1  0  0  0  0
 10 14  1  0  0  0  0
 10 18  1  6  0  0  0
 10 40  1  0  0  0  0
 11 13  1  0  0  0  0
 11 16  1  0  0  0  0
 11 17  1  0  0  0  0
 11 41  1  0  0  0  0
 12 15  1  0  0  0  0
 12 20  1  1  0  0  0
 12 42  1  0  0  0  0
 13 23  1  6  0  0  0
 13 43  1  0  0  0  0
 14 44  1  0  0  0  0
 14 45  1  0  0  0  0
 15 46  1  0  0  0  0
 15 47  1  0  0  0  0
 16 19  1  0  0  0  0
 16 48  1  0  0  0  0
 16 49  1  0  0  0  0
 17 19  1  0  0  0  0
 17 50  1  0  0  0  0
 17 51  1  0  0  0  0
 18 52  1  0  0  0  0
 18 53  1  0  0  0  0
 19 54  1  0  0  0  0
 19 55  1  0  0  0  0
 20 27  2  0  0  0  0
 20 28  1  0  0  0  0
 21 25  1  0  0  0  0
 21 56  1  0  0  0  0
 21 57  1  0  0  0  0
 22 26  1  0  0  0  0
 22 58  1  0  0  0  0
 22 59  1  0  0  0  0
 24 25  1  0  0  0  0
 24 26  1  0  0  0  0
 24 60  1  0  0  0  0
 25 61  1  0  0  0  0
 25 62  1  0  0  0  0
 26 63  1  0  0  0  0
 26 64  1  0  0  0  0
 27 30  1  0  0  0  0
 27 65  1  0  0  0  0
 28 31  2  0  0  0  0
 28 66  1  0  0  0  0
 29 34  1  0  0  0  0
 29 68  1  0  0  0  0
 29 69  1  0  0  0  0
 30 33  2  0  0  0  0
 31 33  1  0  0  0  0
 31 70  1  0  0  0  0
 33 71  1  0  0  0  0
 34 35  1  0  0  0  0
 34 72  1  0  0  0  0
 34 73  1  0  0  0  0
 35 74  1  0  0  0  0
 35 75  1  0  0  0  0
 35 76  1  0  0  0  0
 36 38  1  0  0  0  0
 37 38  2  0  0  0  0
 37 77  1  0  0  0  0
 38 78  1  0  0  0  0
 39 79  1  0  0  0  0
 39 80  1  0  0  0  0
 39 81  1  0  0  0  0
M  END
> <PUBCHEM_COMPOUND_CID>
505890
> <PUBCHEM_COMPOUND_CANONICALIZED>
1
> <PUBCHEM_CACTVS_COMPLEXITY>
780
> <PUBCHEM_CACTVS_HBOND_ACCEPTOR>
9
> <PUBCHEM_CACTVS_HBOND_DONOR>
1
> <PUBCHEM_CACTVS_ROTATABLE_BOND>
11
> <PUBCHEM_CACTVS_SUBSKEYS>
AAADcfB7sQAAAAAAAAAAAAAAAABgAWAAAAA8WIAAAAAAAAABwAAAHwAACAAADSjBmg4/nJcIFgCoAjD3bACCiCkxIqAJ2CG+bJiOLLLE+XmEZCgugArYqCeYyMAOgAAAAAAAAAAAAAAAAAAAAAAAAAAAAA==
> <PUBCHEM_IUPAC_OPENEYE_NAME>
(2R)-2-cyclobutyl-2-[(3S,4S)-3-(3-fluorophenyl)-4-[[4-[(4-methoxypyrimidin-2-yl)-propyl-amino]-1-piperidyl]methyl]pyrrolidin-1-yl]acetic acid
> <PUBCHEM_IUPAC_CAS_NAME>
(2R)-2-cyclobutyl-2-[(3S,4S)-3-(3-fluorophenyl)-4-[[4-[(4-methoxy-2-pyrimidinyl)-propylamino]-1-piperidinyl]methyl]-1-pyrrolidinyl]acetic acid
> <PUBCHEM_IUPAC_NAME_MARKUP>
(2<I>R</I>)-2-cyclobutyl-2-[(3<I>S</I>,4<I>S</I>)-3-(3-fluorophenyl)-4-[[4-[(4-methoxypyrimidin-2-yl)-propylamino]piperidin-1-yl]methyl]pyrrolidin-1-yl]acetic acid
> <PUBCHEM_IUPAC_NAME>
(2R)-2-cyclobutyl-2-[(3S,4S)-3-(3-fluorophenyl)-4-[[4-[(4-methoxypyrimidin-2-yl)-propylamino]piperidin-1-yl]methyl]pyrrolidin-1-yl]acetic acid
> <PUBCHEM_IUPAC_SYSTEMATIC_NAME>
(2R)-2-cyclobutyl-2-[(3S,4S)-3-(3-fluorophenyl)-4-[[4-[(4-methoxypyrimidin-2-yl)-propyl-amino]piperidin-1-yl]methyl]pyrrolidin-1-yl]ethanoic acid
> <PUBCHEM_IUPAC_TRADITIONAL_NAME>
(2R)-2-cyclobutyl-2-[(3S,4S)-3-(3-fluorophenyl)-4-[[4-[(4-methoxypyrimidin-2-yl)-propyl-amino]piperidino]methyl]pyrrolidino]acetic acid
> <PUBCHEM_IUPAC_INCHI>
InChI=1S/C30H42FN5O3/c1-3-14-36(30-32-13-10-27(33-30)39-2)25-11-15-34(16-12-25)18-23-19-35(28(29(37)38)21-6-4-7-21)20-26(23)22-8-5-9-24(31)17-22/h5,8-10,13,17,21,23,25-26,28H,3-4,6-7,11-12,14-16,18-20H2,1-2H3,(H,37,38)/t23-,26+,28+/m0/s1
> <PUBCHEM_IUPAC_INCHIKEY>
LMWZGWARHAVPNI-DANFDKMISA-N
> <PUBCHEM_XLOGP3_AA>
3
> <PUBCHEM_EXACT_MASS>
539.32716838
> <PUBCHEM_MOLECULAR_FORMULA>
C30H42FN5O3
> <PUBCHEM_MOLECULAR_WEIGHT>
539.7
> <PUBCHEM_OPENEYE_CAN_SMILES>
CCCN(C1CCN(CC1)CC2CN(CC2C3=CC(=CC=C3)F)C(C4CCC4)C(=O)O)C5=NC=CC(=N5)OC
> <PUBCHEM_OPENEYE_ISO_SMILES>
CCCN(C1CCN(CC1)C[C@H]2CN(C[C@@H]2C3=CC(=CC=C3)F)[C@H](C4CCC4)C(=O)O)C5=NC=CC(=N5)OC
> <PUBCHEM_CACTVS_TPSA>
82
> <PUBCHEM_MONOISOTOPIC_WEIGHT>
539.32716838
> <PUBCHEM_TOTAL_CHARGE>
0
> <PUBCHEM_HEAVY_ATOM_COUNT>
39
> <PUBCHEM_ATOM_DEF_STEREO_COUNT>
3
> <PUBCHEM_ATOM_UDEF_STEREO_COUNT>
0
> <PUBCHEM_BOND_DEF_STEREO_COUNT>
0
> <PUBCHEM_BOND_UDEF_STEREO_COUNT>
0
> <PUBCHEM_ISOTOPIC_ATOM_COUNT>
0
> <PUBCHEM_COMPONENT_COUNT>
1
> <PUBCHEM_CACTVS_TAUTO_COUNT>
-1
> <PUBCHEM_COORDINATE_TYPE>
1
5
255
> <PUBCHEM_BONDANNOTATIONS>
10  18  6
12  20  5
13  23  6
20  27  8
20  28  8
27  30  8
28  31  8
30  33  8
31  33  8
36  38  8
37  38  8
8  32  8
8  36  8
9  32  8
9  37  8
$$$$
