505887
  -OEChem-10302200282D
 77 81  0     1  0  0  0  0  0999 V2000
    7.1966   -5.3945    0.0000 F   0  0  0  0  0  0  0  0  0  0  0  0
   10.5608    5.3945    0.0000 F   0  0  0  0  0  0  0  0  0  0  0  0
    2.2522   -0.3193    0.0000 O   0  0  0  0  0  0  0  0  0  0  0  0
    3.8345    0.3852    0.0000 O   0  0  0  0  0  0  0  0  0  0  0  0
    4.6480   -1.4419    0.0000 N   0  0  3  0  0  0  0  0  0  0  0  0
    7.0967    0.3945    0.0000 N   0  0  0  0  0  0  0  0  0  0  0  0
    7.0967    3.3945    0.0000 N   0  0  3  0  0  0  0  0  0  0  0  0
    8.8287    3.3945    0.0000 N   0  0  0  0  0  0  0  0  0  0  0  0
    7.9627    4.8945    0.0000 N   0  0  0  0  0  0  0  0  0  0  0  0
    6.2306   -1.1055    0.0000 C   0  0  2  0  0  0  0  0  0  0  0  0
    3.0657   -2.1464    0.0000 C   0  0  0  0  0  0  0  0  0  0  0  0
    6.1261   -2.1000    0.0000 C   0  0  2  0  0  0  0  0  0  0  0  0
    3.6534   -1.3373    0.0000 C   0  0  2  0  0  0  0  0  0  0  0  0
    5.3171   -0.6987    0.0000 C   0  0  0  0  0  0  0  0  0  0  0  0
    5.1480   -2.3079    0.0000 C   0  0  0  0  0  0  0  0  0  0  0  0
    2.0780   -2.3028    0.0000 C   0  0  0  0  0  0  0  0  0  0  0  0
    3.2221   -3.1340    0.0000 C   0  0  0  0  0  0  0  0  0  0  0  0
    7.0967   -0.6055    0.0000 C   0  0  0  0  0  0  0  0  0  0  0  0
    2.2344   -3.2905    0.0000 C   0  0  0  0  0  0  0  0  0  0  0  0
    6.8692   -2.7691    0.0000 C   0  0  0  0  0  0  0  0  0  0  0  0
    6.2306    0.8945    0.0000 C   0  0  0  0  0  0  0  0  0  0  0  0
    7.9627    0.8945    0.0000 C   0  0  0  0  0  0  0  0  0  0  0  0
    3.2467   -0.4238    0.0000 C   0  0  0  0  0  0  0  0  0  0  0  0
    7.0967    2.3945    0.0000 C   0  0  0  0  0  0  0  0  0  0  0  0
    6.2306    1.8945    0.0000 C   0  0  0  0  0  0  0  0  0  0  0  0
    7.9627    1.8945    0.0000 C   0  0  0  0  0  0  0  0  0  0  0  0
    6.6613   -3.7473    0.0000 C   0  0  0  0  0  0  0  0  0  0  0  0
    7.8203   -2.4601    0.0000 C   0  0  0  0  0  0  0  0  0  0  0  0
    6.2306    3.8945    0.0000 C   0  0  0  0  0  0  0  0  0  0  0  0
    7.4045   -4.4164    0.0000 C   0  0  0  0  0  0  0  0  0  0  0  0
    8.5634   -3.1292    0.0000 C   0  0  0  0  0  0  0  0  0  0  0  0
    7.9627    3.8945    0.0000 C   0  0  0  0  0  0  0  0  0  0  0  0
    8.3555   -4.1074    0.0000 C   0  0  0  0  0  0  0  0  0  0  0  0
    6.2306    4.8945    0.0000 C   0  0  0  0  0  0  0  0  0  0  0  0
    5.3646    5.3945    0.0000 C   0  0  0  0  0  0  0  0  0  0  0  0
    9.6947    3.8945    0.0000 C   0  0  0  0  0  0  0  0  0  0  0  0
    8.8287    5.3945    0.0000 C   0  0  0  0  0  0  0  0  0  0  0  0
    9.6947    4.8945    0.0000 C   0  0  0  0  0  0  0  0  0  0  0  0
    6.1982   -0.4863    0.0000 H   0  0  0  0  0  0  0  0  0  0  0  0
    2.7417   -1.6177    0.0000 H   0  0  0  0  0  0  0  0  0  0  0  0
    6.7049   -1.8778    0.0000 H   0  0  0  0  0  0  0  0  0  0  0  0
    4.0179   -0.8358    0.0000 H   0  0  0  0  0  0  0  0  0  0  0  0
    5.6271   -0.1618    0.0000 H   0  0  0  0  0  0  0  0  0  0  0  0
    4.8155   -0.3343    0.0000 H   0  0  0  0  0  0  0  0  0  0  0  0
    4.5816   -2.5601    0.0000 H   0  0  0  0  0  0  0  0  0  0  0  0
    5.3396   -2.8976    0.0000 H   0  0  0  0  0  0  0  0  0  0  0  0
    1.9810   -1.6904    0.0000 H   0  0  0  0  0  0  0  0  0  0  0  0
    1.4656   -2.3998    0.0000 H   0  0  0  0  0  0  0  0  0  0  0  0
    3.3191   -3.7464    0.0000 H   0  0  0  0  0  0  0  0  0  0  0  0
    3.8344   -3.0371    0.0000 H   0  0  0  0  0  0  0  0  0  0  0  0
    7.3087   -1.1881    0.0000 H   0  0  0  0  0  0  0  0  0  0  0  0
    7.7072   -0.4978    0.0000 H   0  0  0  0  0  0  0  0  0  0  0  0
    1.6220   -3.3875    0.0000 H   0  0  0  0  0  0  0  0  0  0  0  0
    2.3314   -3.9028    0.0000 H   0  0  0  0  0  0  0  0  0  0  0  0
    5.6200    1.0022    0.0000 H   0  0  0  0  0  0  0  0  0  0  0  0
    6.0186    0.3119    0.0000 H   0  0  0  0  0  0  0  0  0  0  0  0
    8.1747    0.3119    0.0000 H   0  0  0  0  0  0  0  0  0  0  0  0
    8.5733    1.0022    0.0000 H   0  0  0  0  0  0  0  0  0  0  0  0
    7.6336    2.7045    0.0000 H   0  0  0  0  0  0  0  0  0  0  0  0
    6.0186    2.4772    0.0000 H   0  0  0  0  0  0  0  0  0  0  0  0
    5.6200    1.7869    0.0000 H   0  0  0  0  0  0  0  0  0  0  0  0
    8.5733    1.7869    0.0000 H   0  0  0  0  0  0  0  0  0  0  0  0
    8.1747    2.4772    0.0000 H   0  0  0  0  0  0  0  0  0  0  0  0
    6.0717   -3.9388    0.0000 H   0  0  0  0  0  0  0  0  0  0  0  0
    7.9492   -1.8536    0.0000 H   0  0  0  0  0  0  0  0  0  0  0  0
    2.0000    0.2471    0.0000 H   0  0  0  0  0  0  0  0  0  0  0  0
    5.6200    4.0022    0.0000 H   0  0  0  0  0  0  0  0  0  0  0  0
    6.0186    3.3119    0.0000 H   0  0  0  0  0  0  0  0  0  0  0  0
    9.1531   -2.9376    0.0000 H   0  0  0  0  0  0  0  0  0  0  0  0
    8.8163   -4.5222    0.0000 H   0  0  0  0  0  0  0  0  0  0  0  0
    6.8412    4.7869    0.0000 H   0  0  0  0  0  0  0  0  0  0  0  0
    6.4427    5.4772    0.0000 H   0  0  0  0  0  0  0  0  0  0  0  0
    5.6746    5.9315    0.0000 H   0  0  0  0  0  0  0  0  0  0  0  0
    4.8277    5.7045    0.0000 H   0  0  0  0  0  0  0  0  0  0  0  0
    5.0546    4.8576    0.0000 H   0  0  0  0  0  0  0  0  0  0  0  0
   10.2317    3.5845    0.0000 H   0  0  0  0  0  0  0  0  0  0  0  0
    8.8287    6.0145    0.0000 H   0  0  0  0  0  0  0  0  0  0  0  0
  1 30  1  0  0  0  0
  2 38  1  0  0  0  0
  3 23  1  0  0  0  0
  3 66  1  0  0  0  0
  4 23  2  0  0  0  0
  5 13  1  0  0  0  0
  5 14  1  0  0  0  0
  5 15  1  0  0  0  0
  6 18  1  0  0  0  0
  6 21  1  0  0  0  0
  6 22  1  0  0  0  0
  7 24  1  0  0  0  0
  7 29  1  0  0  0  0
  7 32  1  0  0  0  0
  8 32  2  0  0  0  0
  8 36  1  0  0  0  0
  9 32  1  0  0  0  0
  9 37  2  0  0  0  0
 10 12  1  0  0  0  0
 10 14  1  0  0  0  0
 10 18  1  6  0  0  0
 10 39  1  0  0  0  0
 11 13  1  0  0  0  0
 11 16  1  0  0  0  0
 11 17  1  0  0  0  0
 11 40  1  0  0  0  0
 12 15  1  0  0  0  0
 12 20  1  1  0  0  0
 12 41  1  0  0  0  0
 13 23  1  6  0  0  0
 13 42  1  0  0  0  0
 14 43  1  0  0  0  0
 14 44  1  0  0  0  0
 15 45  1  0  0  0  0
 15 46  1  0  0  0  0
 16 19  1  0  0  0  0
 16 47  1  0  0  0  0
 16 48  1  0  0  0  0
 17 19  1  0  0  0  0
 17 49  1  0  0  0  0
 17 50  1  0  0  0  0
 18 51  1  0  0  0  0
 18 52  1  0  0  0  0
 19 53  1  0  0  0  0
 19 54  1  0  0  0  0
 20 27  2  0  0  0  0
 20 28  1  0  0  0  0
 21 25  1  0  0  0  0
 21 55  1  0  0  0  0
 21 56  1  0  0  0  0
 22 26  1  0  0  0  0
 22 57  1  0  0  0  0
 22 58  1  0  0  0  0
 24 25  1  0  0  0  0
 24 26  1  0  0  0  0
 24 59  1  0  0  0  0
 25 60  1  0  0  0  0
 25 61  1  0  0  0  0
 26 62  1  0  0  0  0
 26 63  1  0  0  0  0
 27 30  1  0  0  0  0
 27 64  1  0  0  0  0
 28 31  2  0  0  0  0
 28 65  1  0  0  0  0
 29 34  1  0  0  0  0
 29 67  1  0  0  0  0
 29 68  1  0  0  0  0
 30 33  2  0  0  0  0
 31 33  1  0  0  0  0
 31 69  1  0  0  0  0
 33 70  1  0  0  0  0
 34 35  1  0  0  0  0
 34 71  1  0  0  0  0
 34 72  1  0  0  0  0
 35 73  1  0  0  0  0
 35 74  1  0  0  0  0
 35 75  1  0  0  0  0
 36 38  2  0  0  0  0
 36 76  1  0  0  0  0
 37 38  1  0  0  0  0
 37 77  1  0  0  0  0
M  END
> <PUBCHEM_COMPOUND_CID>
505887
> <PUBCHEM_COMPOUND_CANONICALIZED>
1
> <PUBCHEM_CACTVS_COMPLEXITY>
757
> <PUBCHEM_CACTVS_HBOND_ACCEPTOR>
9
> <PUBCHEM_CACTVS_HBOND_DONOR>
1
> <PUBCHEM_CACTVS_ROTATABLE_BOND>
10
> <PUBCHEM_CACTVS_SUBSKEYS>
AAADcfB7sYAAAAAAAAAAAAAAAABgAWAAAAA8WIAAAAAAAAABwAAAHwAACAAADSjBmgw/mJcIEgCoAjD3bACCgCkxAKAJ2CGoRJiKKLLA2XGEZAgsgALYiCeYyMAOgAAAAAAAAAAAAAAAAAAAAAAAAAAAAA==
> <PUBCHEM_IUPAC_OPENEYE_NAME>
(2R)-2-cyclobutyl-2-[(3S,4S)-3-(3-fluorophenyl)-4-[[4-[(5-fluoropyrimidin-2-yl)-propyl-amino]-1-piperidyl]methyl]pyrrolidin-1-yl]acetic acid
> <PUBCHEM_IUPAC_CAS_NAME>
(2R)-2-cyclobutyl-2-[(3S,4S)-3-(3-fluorophenyl)-4-[[4-[(5-fluoro-2-pyrimidinyl)-propylamino]-1-piperidinyl]methyl]-1-pyrrolidinyl]acetic acid
> <PUBCHEM_IUPAC_NAME_MARKUP>
(2<I>R</I>)-2-cyclobutyl-2-[(3<I>S</I>,4<I>S</I>)-3-(3-fluorophenyl)-4-[[4-[(5-fluoropyrimidin-2-yl)-propylamino]piperidin-1-yl]methyl]pyrrolidin-1-yl]acetic acid
> <PUBCHEM_IUPAC_NAME>
(2R)-2-cyclobutyl-2-[(3S,4S)-3-(3-fluorophenyl)-4-[[4-[(5-fluoropyrimidin-2-yl)-propylamino]piperidin-1-yl]methyl]pyrrolidin-1-yl]acetic acid
> <PUBCHEM_IUPAC_SYSTEMATIC_NAME>
(2R)-2-cyclobutyl-2-[(3S,4S)-3-[[4-[(5-fluoranylpyrimidin-2-yl)-propyl-amino]piperidin-1-yl]methyl]-4-(3-fluorophenyl)pyrrolidin-1-yl]ethanoic acid
> <PUBCHEM_IUPAC_TRADITIONAL_NAME>
(2R)-2-cyclobutyl-2-[(3S,4S)-3-(3-fluorophenyl)-4-[[4-[(5-fluoropyrimidin-2-yl)-propyl-amino]piperidino]methyl]pyrrolidino]acetic acid
> <PUBCHEM_IUPAC_INCHI>
InChI=1S/C29H39F2N5O2/c1-2-11-36(29-32-15-24(31)16-33-29)25-9-12-34(13-10-25)17-22-18-35(27(28(37)38)20-5-3-6-20)19-26(22)21-7-4-8-23(30)14-21/h4,7-8,14-16,20,22,25-27H,2-3,5-6,9-13,17-19H2,1H3,(H,37,38)/t22-,26+,27+/m0/s1
> <PUBCHEM_IUPAC_INCHIKEY>
UZRDOYRGDLVJSR-ZDJNHPEVSA-N
> <PUBCHEM_XLOGP3_AA>
2.8
> <PUBCHEM_EXACT_MASS>
527.30718183
> <PUBCHEM_MOLECULAR_FORMULA>
C29H39F2N5O2
> <PUBCHEM_MOLECULAR_WEIGHT>
527.6
> <PUBCHEM_OPENEYE_CAN_SMILES>
CCCN(C1CCN(CC1)CC2CN(CC2C3=CC(=CC=C3)F)C(C4CCC4)C(=O)O)C5=NC=C(C=N5)F
> <PUBCHEM_OPENEYE_ISO_SMILES>
CCCN(C1CCN(CC1)C[C@H]2CN(C[C@@H]2C3=CC(=CC=C3)F)[C@H](C4CCC4)C(=O)O)C5=NC=C(C=N5)F
> <PUBCHEM_CACTVS_TPSA>
72.8
> <PUBCHEM_MONOISOTOPIC_WEIGHT>
527.30718183
> <PUBCHEM_TOTAL_CHARGE>
0
> <PUBCHEM_HEAVY_ATOM_COUNT>
38
> <PUBCHEM_ATOM_DEF_STEREO_COUNT>
3
> <PUBCHEM_ATOM_UDEF_STEREO_COUNT>
0
> <PUBCHEM_BOND_DEF_STEREO_COUNT>
0
> <PUBCHEM_BOND_UDEF_STEREO_COUNT>
0
> <PUBCHEM_ISOTOPIC_ATOM_COUNT>
0
> <PUBCHEM_COMPONENT_COUNT>
1
> <PUBCHEM_CACTVS_TAUTO_COUNT>
-1
> <PUBCHEM_COORDINATE_TYPE>
1
5
255
> <PUBCHEM_BONDANNOTATIONS>
10  18  6
12  20  5
13  23  6
20  27  8
20  28  8
27  30  8
28  31  8
30  33  8
31  33  8
36  38  8
37  38  8
8  32  8
8  36  8
9  32  8
9  37  8
$$$$
