505877
  -OEChem-10302200282D
 82 86  0     1  0  0  0  0  0999 V2000
    2.7320   -5.5442    0.0000 F   0  0  0  0  0  0  0  0  0  0  0  0
    3.7320   -6.5442    0.0000 F   0  0  0  0  0  0  0  0  0  0  0  0
    4.7320   -5.5442    0.0000 F   0  0  0  0  0  0  0  0  0  0  0  0
    5.1138    3.6991    0.0000 O   0  0  0  0  0  0  0  0  0  0  0  0
    6.6962    2.9946    0.0000 N   0  0  0  0  0  0  0  0  0  0  0  0
    6.3301   -0.0442    0.0000 N   0  0  0  0  0  0  0  0  0  0  0  0
    3.7320   -1.5442    0.0000 N   0  0  3  0  0  0  0  0  0  0  0  0
    7.1962    1.4558    0.0000 C   0  0  2  0  0  0  0  0  0  0  0  0
    8.0052    2.0435    0.0000 C   0  0  2  0  0  0  0  0  0  0  0  0
    6.3871    2.0435    0.0000 C   0  0  0  0  0  0  0  0  0  0  0  0
    7.1962    0.4558    0.0000 C   0  0  0  0  0  0  0  0  0  0  0  0
    7.6962    2.9946    0.0000 C   0  0  0  0  0  0  0  0  0  0  0  0
    5.4641    0.4558    0.0000 C   0  0  0  0  0  0  0  0  0  0  0  0
    6.3301   -1.0442    0.0000 C   0  0  0  0  0  0  0  0  0  0  0  0
    6.5151    4.7172    0.0000 C   0  0  0  0  0  0  0  0  0  0  0  0
    4.5981   -1.0442    0.0000 C   0  0  0  0  0  0  0  0  0  0  0  0
    6.1084    3.8036    0.0000 C   0  0  0  0  0  0  0  0  0  0  0  0
    8.9562    1.7345    0.0000 C   0  0  0  0  0  0  0  0  0  0  0  0
    4.5981   -0.0442    0.0000 C   0  0  0  0  0  0  0  0  0  0  0  0
    5.4641   -1.5442    0.0000 C   0  0  0  0  0  0  0  0  0  0  0  0
    7.5096    4.8217    0.0000 C   0  0  0  0  0  0  0  0  0  0  0  0
    5.9273    5.5262    0.0000 C   0  0  0  0  0  0  0  0  0  0  0  0
    7.9164    5.7352    0.0000 C   0  0  0  0  0  0  0  0  0  0  0  0
    6.3341    6.4397    0.0000 C   0  0  0  0  0  0  0  0  0  0  0  0
    7.3286    6.5442    0.0000 C   0  0  0  0  0  0  0  0  0  0  0  0
    9.6994    2.4036    0.0000 C   0  0  0  0  0  0  0  0  0  0  0  0
    9.1641    0.7564    0.0000 C   0  0  0  0  0  0  0  0  0  0  0  0
    2.8660   -1.0442    0.0000 C   0  0  0  0  0  0  0  0  0  0  0  0
    3.7320   -2.5442    0.0000 C   0  0  0  0  0  0  0  0  0  0  0  0
   10.6504    2.0946    0.0000 C   0  0  0  0  0  0  0  0  0  0  0  0
   10.1152    0.4474    0.0000 C   0  0  0  0  0  0  0  0  0  0  0  0
   10.8583    1.1165    0.0000 C   0  0  0  0  0  0  0  0  0  0  0  0
    2.8660   -3.0442    0.0000 C   0  0  0  0  0  0  0  0  0  0  0  0
    4.5981   -3.0442    0.0000 C   0  0  0  0  0  0  0  0  0  0  0  0
    2.8660   -0.0442    0.0000 C   0  0  0  0  0  0  0  0  0  0  0  0
    2.8660   -4.0442    0.0000 C   0  0  0  0  0  0  0  0  0  0  0  0
    4.5981   -4.0442    0.0000 C   0  0  0  0  0  0  0  0  0  0  0  0
    3.7320   -4.5442    0.0000 C   0  0  0  0  0  0  0  0  0  0  0  0
    2.0000    0.4558    0.0000 C   0  0  0  0  0  0  0  0  0  0  0  0
    3.7320   -5.5442    0.0000 C   0  0  0  0  0  0  0  0  0  0  0  0
    6.6437    1.1743    0.0000 H   0  0  0  0  0  0  0  0  0  0  0  0
    8.4436    2.4819    0.0000 H   0  0  0  0  0  0  0  0  0  0  0  0
    5.8207    2.2957    0.0000 H   0  0  0  0  0  0  0  0  0  0  0  0
    6.0771    1.5066    0.0000 H   0  0  0  0  0  0  0  0  0  0  0  0
    7.4082   -0.1269    0.0000 H   0  0  0  0  0  0  0  0  0  0  0  0
    7.8067    0.5634    0.0000 H   0  0  0  0  0  0  0  0  0  0  0  0
    8.3026    3.1235    0.0000 H   0  0  0  0  0  0  0  0  0  0  0  0
    7.6313    3.6112    0.0000 H   0  0  0  0  0  0  0  0  0  0  0  0
    5.8626    0.9307    0.0000 H   0  0  0  0  0  0  0  0  0  0  0  0
    5.0656    0.9307    0.0000 H   0  0  0  0  0  0  0  0  0  0  0  0
    6.5422   -1.6269    0.0000 H   0  0  0  0  0  0  0  0  0  0  0  0
    6.9407   -0.9366    0.0000 H   0  0  0  0  0  0  0  0  0  0  0  0
    6.8795    4.2156    0.0000 H   0  0  0  0  0  0  0  0  0  0  0  0
    4.5981   -1.6642    0.0000 H   0  0  0  0  0  0  0  0  0  0  0  0
    4.3860    0.5384    0.0000 H   0  0  0  0  0  0  0  0  0  0  0  0
    3.9875   -0.1519    0.0000 H   0  0  0  0  0  0  0  0  0  0  0  0
    5.0656   -2.0192    0.0000 H   0  0  0  0  0  0  0  0  0  0  0  0
    5.8626   -2.0192    0.0000 H   0  0  0  0  0  0  0  0  0  0  0  0
    7.4664    4.2032    0.0000 H   0  0  0  0  0  0  0  0  0  0  0  0
    8.1112    4.6717    0.0000 H   0  0  0  0  0  0  0  0  0  0  0  0
    5.4133    5.8729    0.0000 H   0  0  0  0  0  0  0  0  0  0  0  0
    5.4966    5.0802    0.0000 H   0  0  0  0  0  0  0  0  0  0  0  0
    8.4304    5.3885    0.0000 H   0  0  0  0  0  0  0  0  0  0  0  0
    8.3470    6.1812    0.0000 H   0  0  0  0  0  0  0  0  0  0  0  0
    6.3773    7.0582    0.0000 H   0  0  0  0  0  0  0  0  0  0  0  0
    5.7325    6.5897    0.0000 H   0  0  0  0  0  0  0  0  0  0  0  0
    7.8858    6.8160    0.0000 H   0  0  0  0  0  0  0  0  0  0  0  0
    7.1577    7.1402    0.0000 H   0  0  0  0  0  0  0  0  0  0  0  0
    9.5705    3.0101    0.0000 H   0  0  0  0  0  0  0  0  0  0  0  0
    8.7034    0.3415    0.0000 H   0  0  0  0  0  0  0  0  0  0  0  0
    2.2554   -0.9366    0.0000 H   0  0  0  0  0  0  0  0  0  0  0  0
    2.6540   -1.6269    0.0000 H   0  0  0  0  0  0  0  0  0  0  0  0
   11.1112    2.5095    0.0000 H   0  0  0  0  0  0  0  0  0  0  0  0
   10.2441   -0.1591    0.0000 H   0  0  0  0  0  0  0  0  0  0  0  0
   11.4480    0.9249    0.0000 H   0  0  0  0  0  0  0  0  0  0  0  0
    2.3291   -2.7342    0.0000 H   0  0  0  0  0  0  0  0  0  0  0  0
    5.1350   -2.7342    0.0000 H   0  0  0  0  0  0  0  0  0  0  0  0
    3.4030    0.2658    0.0000 H   0  0  0  0  0  0  0  0  0  0  0  0
    2.3291   -4.3543    0.0000 H   0  0  0  0  0  0  0  0  0  0  0  0
    5.1350   -4.3543    0.0000 H   0  0  0  0  0  0  0  0  0  0  0  0
    2.0000    1.0758    0.0000 H   0  0  0  0  0  0  0  0  0  0  0  0
    1.4631    0.1458    0.0000 H   0  0  0  0  0  0  0  0  0  0  0  0
  1 40  1  0  0  0  0
  2 40  1  0  0  0  0
  3 40  1  0  0  0  0
  4 17  2  0  0  0  0
  5 10  1  0  0  0  0
  5 12  1  0  0  0  0
  5 17  1  0  0  0  0
  6 11  1  0  0  0  0
  6 13  1  0  0  0  0
  6 14  1  0  0  0  0
  7 16  1  0  0  0  0
  7 28  1  0  0  0  0
  7 29  1  0  0  0  0
  8  9  1  0  0  0  0
  8 10  1  0  0  0  0
  8 11  1  1  0  0  0
  8 41  1  0  0  0  0
  9 12  1  0  0  0  0
  9 18  1  6  0  0  0
  9 42  1  0  0  0  0
 10 43  1  0  0  0  0
 10 44  1  0  0  0  0
 11 45  1  0  0  0  0
 11 46  1  0  0  0  0
 12 47  1  0  0  0  0
 12 48  1  0  0  0  0
 13 19  1  0  0  0  0
 13 49  1  0  0  0  0
 13 50  1  0  0  0  0
 14 20  1  0  0  0  0
 14 51  1  0  0  0  0
 14 52  1  0  0  0  0
 15 17  1  0  0  0  0
 15 21  1  0  0  0  0
 15 22  1  0  0  0  0
 15 53  1  0  0  0  0
 16 19  1  0  0  0  0
 16 20  1  0  0  0  0
 16 54  1  0  0  0  0
 18 26  2  0  0  0  0
 18 27  1  0  0  0  0
 19 55  1  0  0  0  0
 19 56  1  0  0  0  0
 20 57  1  0  0  0  0
 20 58  1  0  0  0  0
 21 23  1  0  0  0  0
 21 59  1  0  0  0  0
 21 60  1  0  0  0  0
 22 24  1  0  0  0  0
 22 61  1  0  0  0  0
 22 62  1  0  0  0  0
 23 25  1  0  0  0  0
 23 63  1  0  0  0  0
 23 64  1  0  0  0  0
 24 25  1  0  0  0  0
 24 65  1  0  0  0  0
 24 66  1  0  0  0  0
 25 67  1  0  0  0  0
 25 68  1  0  0  0  0
 26 30  1  0  0  0  0
 26 69  1  0  0  0  0
 27 31  2  0  0  0  0
 27 70  1  0  0  0  0
 28 35  1  0  0  0  0
 28 71  1  0  0  0  0
 28 72  1  0  0  0  0
 29 33  2  0  0  0  0
 29 34  1  0  0  0  0
 30 32  2  0  0  0  0
 30 73  1  0  0  0  0
 31 32  1  0  0  0  0
 31 74  1  0  0  0  0
 32 75  1  0  0  0  0
 33 36  1  0  0  0  0
 33 76  1  0  0  0  0
 34 37  2  0  0  0  0
 34 77  1  0  0  0  0
 35 39  2  0  0  0  0
 35 78  1  0  0  0  0
 36 38  2  0  0  0  0
 36 79  1  0  0  0  0
 37 38  1  0  0  0  0
 37 80  1  0  0  0  0
 38 40  1  0  0  0  0
 39 81  1  0  0  0  0
 39 82  1  0  0  0  0
M  END
> <PUBCHEM_COMPOUND_CID>
505877
> <PUBCHEM_COMPOUND_CANONICALIZED>
1
> <PUBCHEM_CACTVS_COMPLEXITY>
806
> <PUBCHEM_CACTVS_HBOND_ACCEPTOR>
6
> <PUBCHEM_CACTVS_HBOND_DONOR>
0
> <PUBCHEM_CACTVS_ROTATABLE_BOND>
8
> <PUBCHEM_CACTVS_SUBSKEYS>
AAADcfB/IYAAAAAAAAAAAAAAAAAAAWAAAAA8YMEAAAAAAAABQAAAHwAAAAAADSjBmBQwwIMAAACIAiVSUACCAAAhAgAIiAEIZIgIIDLA0ZGEIAhghgDIyAcYiMCOiAAAAAAAAAAQAAAAAAAAAAAAAAAAAA==
> <PUBCHEM_IUPAC_OPENEYE_NAME>
[(3S,4S)-3-[[4-[N-allyl-4-(trifluoromethyl)anilino]-1-piperidyl]methyl]-4-phenyl-pyrrolidin-1-yl]-cyclohexyl-methanone
> <PUBCHEM_IUPAC_CAS_NAME>
cyclohexyl-[(3S,4S)-3-phenyl-4-[[4-[N-prop-2-enyl-4-(trifluoromethyl)anilino]-1-piperidinyl]methyl]-1-pyrrolidinyl]methanone
> <PUBCHEM_IUPAC_NAME_MARKUP>
cyclohexyl-[(3<I>S</I>,4<I>S</I>)-3-phenyl-4-[[4-[<I>N</I>-prop-2-enyl-4-(trifluoromethyl)anilino]piperidin-1-yl]methyl]pyrrolidin-1-yl]methanone
> <PUBCHEM_IUPAC_NAME>
cyclohexyl-[(3S,4S)-3-phenyl-4-[[4-[N-prop-2-enyl-4-(trifluoromethyl)anilino]piperidin-1-yl]methyl]pyrrolidin-1-yl]methanone
> <PUBCHEM_IUPAC_SYSTEMATIC_NAME>
cyclohexyl-[(3S,4S)-3-phenyl-4-[[4-[prop-2-enyl-[4-(trifluoromethyl)phenyl]amino]piperidin-1-yl]methyl]pyrrolidin-1-yl]methanone
> <PUBCHEM_IUPAC_TRADITIONAL_NAME>
[(3S,4S)-3-[[4-[N-allyl-4-(trifluoromethyl)anilino]piperidino]methyl]-4-phenyl-pyrrolidino]-cyclohexyl-methanone
> <PUBCHEM_IUPAC_INCHI>
InChI=1S/C33H42F3N3O/c1-2-19-39(29-15-13-28(14-16-29)33(34,35)36)30-17-20-37(21-18-30)22-27-23-38(32(40)26-11-7-4-8-12-26)24-31(27)25-9-5-3-6-10-25/h2-3,5-6,9-10,13-16,26-27,30-31H,1,4,7-8,11-12,17-24H2/t27-,31+/m0/s1
> <PUBCHEM_IUPAC_INCHIKEY>
DUNNFJOUILYYNG-JTSJOTPCSA-N
> <PUBCHEM_XLOGP3_AA>
7.5
> <PUBCHEM_EXACT_MASS>
553.32799746
> <PUBCHEM_MOLECULAR_FORMULA>
C33H42F3N3O
> <PUBCHEM_MOLECULAR_WEIGHT>
553.7
> <PUBCHEM_OPENEYE_CAN_SMILES>
C=CCN(C1CCN(CC1)CC2CN(CC2C3=CC=CC=C3)C(=O)C4CCCCC4)C5=CC=C(C=C5)C(F)(F)F
> <PUBCHEM_OPENEYE_ISO_SMILES>
C=CCN(C1CCN(CC1)C[C@H]2CN(C[C@@H]2C3=CC=CC=C3)C(=O)C4CCCCC4)C5=CC=C(C=C5)C(F)(F)F
> <PUBCHEM_CACTVS_TPSA>
26.8
> <PUBCHEM_MONOISOTOPIC_WEIGHT>
553.32799746
> <PUBCHEM_TOTAL_CHARGE>
0
> <PUBCHEM_HEAVY_ATOM_COUNT>
40
> <PUBCHEM_ATOM_DEF_STEREO_COUNT>
2
> <PUBCHEM_ATOM_UDEF_STEREO_COUNT>
0
> <PUBCHEM_BOND_DEF_STEREO_COUNT>
0
> <PUBCHEM_BOND_UDEF_STEREO_COUNT>
0
> <PUBCHEM_ISOTOPIC_ATOM_COUNT>
0
> <PUBCHEM_COMPONENT_COUNT>
1
> <PUBCHEM_CACTVS_TAUTO_COUNT>
-1
> <PUBCHEM_COORDINATE_TYPE>
1
5
255
> <PUBCHEM_BONDANNOTATIONS>
18  26  8
18  27  8
26  30  8
27  31  8
29  33  8
29  34  8
30  32  8
31  32  8
33  36  8
34  37  8
36  38  8
37  38  8
8  11  5
9  18  6
$$$$
