505871
  -OEChem-10302200282D
 89 93  0     1  0  0  0  0  0999 V2000
    3.7634   -2.1629    0.0000 O   0  0  0  0  0  0  0  0  0  0  0  0
    5.1646   -3.1809    0.0000 N   0  0  0  0  0  0  0  0  0  0  0  0
    7.6133   -1.3445    0.0000 N   0  0  0  0  0  0  0  0  0  0  0  0
    7.6133    1.6555    0.0000 N   0  0  3  0  0  0  0  0  0  0  0  0
    8.4793    3.1555    0.0000 N   0  0  0  0  0  0  0  0  0  0  0  0
    6.7473   -2.8445    0.0000 C   0  0  2  0  0  0  0  0  0  0  0  0
    6.6428   -3.8391    0.0000 C   0  0  2  0  0  0  0  0  0  0  0  0
    5.8338   -2.4378    0.0000 C   0  0  0  0  0  0  0  0  0  0  0  0
    7.6133   -2.3445    0.0000 C   0  0  0  0  0  0  0  0  0  0  0  0
    5.6646   -4.0470    0.0000 C   0  0  0  0  0  0  0  0  0  0  0  0
    7.6133    0.6555    0.0000 C   0  0  0  0  0  0  0  0  0  0  0  0
    6.7473   -0.8445    0.0000 C   0  0  0  0  0  0  0  0  0  0  0  0
    8.4793   -0.8445    0.0000 C   0  0  0  0  0  0  0  0  0  0  0  0
    3.5823   -3.8854    0.0000 C   0  0  0  0  0  0  0  0  0  0  0  0
    6.7473    0.1555    0.0000 C   0  0  0  0  0  0  0  0  0  0  0  0
    8.4793    0.1555    0.0000 C   0  0  0  0  0  0  0  0  0  0  0  0
    7.3859   -4.5082    0.0000 C   0  0  0  0  0  0  0  0  0  0  0  0
    4.1701   -3.0764    0.0000 C   0  0  0  0  0  0  0  0  0  0  0  0
    2.5878   -3.7809    0.0000 C   0  0  0  0  0  0  0  0  0  0  0  0
    3.9890   -4.7990    0.0000 C   0  0  0  0  0  0  0  0  0  0  0  0
    2.0000   -4.5899    0.0000 C   0  0  0  0  0  0  0  0  0  0  0  0
    3.4013   -5.6080    0.0000 C   0  0  0  0  0  0  0  0  0  0  0  0
    2.4067   -5.5035    0.0000 C   0  0  0  0  0  0  0  0  0  0  0  0
    8.3370   -4.1992    0.0000 C   0  0  0  0  0  0  0  0  0  0  0  0
    7.1780   -5.4863    0.0000 C   0  0  0  0  0  0  0  0  0  0  0  0
    6.7473    2.1555    0.0000 C   0  0  0  0  0  0  0  0  0  0  0  0
    8.4793    2.1555    0.0000 C   0  0  0  0  0  0  0  0  0  0  0  0
    6.7473    3.1555    0.0000 C   0  0  0  0  0  0  0  0  0  0  0  0
    9.0801   -4.8683    0.0000 C   0  0  0  0  0  0  0  0  0  0  0  0
    7.9211   -6.1555    0.0000 C   0  0  0  0  0  0  0  0  0  0  0  0
    8.8722   -5.8464    0.0000 C   0  0  0  0  0  0  0  0  0  0  0  0
    5.8813    3.6555    0.0000 C   0  0  0  0  0  0  0  0  0  0  0  0
    9.3454    1.6555    0.0000 C   0  0  0  0  0  0  0  0  0  0  0  0
    5.8813    4.6555    0.0000 C   0  0  0  0  0  0  0  0  0  0  0  0
   10.2114    2.1555    0.0000 C   0  0  0  0  0  0  0  0  0  0  0  0
    9.3454    3.6555    0.0000 C   0  0  0  0  0  0  0  0  0  0  0  0
    5.0152    5.1555    0.0000 C   0  0  0  0  0  0  0  0  0  0  0  0
   10.2114    3.1555    0.0000 C   0  0  0  0  0  0  0  0  0  0  0  0
    5.0152    6.1555    0.0000 C   0  0  0  0  0  0  0  0  0  0  0  0
    7.2673   -3.1822    0.0000 H   0  0  0  0  0  0  0  0  0  0  0  0
    7.2216   -3.6169    0.0000 H   0  0  0  0  0  0  0  0  0  0  0  0
    6.1437   -1.9009    0.0000 H   0  0  0  0  0  0  0  0  0  0  0  0
    5.3322   -2.0734    0.0000 H   0  0  0  0  0  0  0  0  0  0  0  0
    7.8254   -2.9271    0.0000 H   0  0  0  0  0  0  0  0  0  0  0  0
    8.2239   -2.2369    0.0000 H   0  0  0  0  0  0  0  0  0  0  0  0
    5.0982   -4.2992    0.0000 H   0  0  0  0  0  0  0  0  0  0  0  0
    5.8562   -4.6366    0.0000 H   0  0  0  0  0  0  0  0  0  0  0  0
    7.0764    0.9655    0.0000 H   0  0  0  0  0  0  0  0  0  0  0  0
    6.1367   -0.7369    0.0000 H   0  0  0  0  0  0  0  0  0  0  0  0
    6.5352   -1.4271    0.0000 H   0  0  0  0  0  0  0  0  0  0  0  0
    8.6914   -1.4271    0.0000 H   0  0  0  0  0  0  0  0  0  0  0  0
    9.0899   -0.7369    0.0000 H   0  0  0  0  0  0  0  0  0  0  0  0
    3.3301   -3.3190    0.0000 H   0  0  0  0  0  0  0  0  0  0  0  0
    6.5352    0.7381    0.0000 H   0  0  0  0  0  0  0  0  0  0  0  0
    6.1367    0.0478    0.0000 H   0  0  0  0  0  0  0  0  0  0  0  0
    9.0899    0.0478    0.0000 H   0  0  0  0  0  0  0  0  0  0  0  0
    8.6914    0.7381    0.0000 H   0  0  0  0  0  0  0  0  0  0  0  0
    2.7587   -3.1849    0.0000 H   0  0  0  0  0  0  0  0  0  0  0  0
    2.0305   -3.5091    0.0000 H   0  0  0  0  0  0  0  0  0  0  0  0
    4.4197   -5.2450    0.0000 H   0  0  0  0  0  0  0  0  0  0  0  0
    4.5030   -4.4523    0.0000 H   0  0  0  0  0  0  0  0  0  0  0  0
    1.5693   -4.1439    0.0000 H   0  0  0  0  0  0  0  0  0  0  0  0
    1.4860   -4.9366    0.0000 H   0  0  0  0  0  0  0  0  0  0  0  0
    3.2304   -6.2040    0.0000 H   0  0  0  0  0  0  0  0  0  0  0  0
    3.9585   -5.8798    0.0000 H   0  0  0  0  0  0  0  0  0  0  0  0
    1.8052   -5.6535    0.0000 H   0  0  0  0  0  0  0  0  0  0  0  0
    2.4500   -6.1220    0.0000 H   0  0  0  0  0  0  0  0  0  0  0  0
    8.4659   -3.5927    0.0000 H   0  0  0  0  0  0  0  0  0  0  0  0
    6.5883   -5.6779    0.0000 H   0  0  0  0  0  0  0  0  0  0  0  0
    6.1367    2.2631    0.0000 H   0  0  0  0  0  0  0  0  0  0  0  0
    6.5352    1.5729    0.0000 H   0  0  0  0  0  0  0  0  0  0  0  0
    7.3579    3.0478    0.0000 H   0  0  0  0  0  0  0  0  0  0  0  0
    6.9593    3.7381    0.0000 H   0  0  0  0  0  0  0  0  0  0  0  0
    9.6698   -4.6767    0.0000 H   0  0  0  0  0  0  0  0  0  0  0  0
    7.7922   -6.7619    0.0000 H   0  0  0  0  0  0  0  0  0  0  0  0
    9.3330   -6.2613    0.0000 H   0  0  0  0  0  0  0  0  0  0  0  0
    5.2707    3.7631    0.0000 H   0  0  0  0  0  0  0  0  0  0  0  0
    5.6692    3.0729    0.0000 H   0  0  0  0  0  0  0  0  0  0  0  0
    9.3454    1.0355    0.0000 H   0  0  0  0  0  0  0  0  0  0  0  0
    6.4918    4.5478    0.0000 H   0  0  0  0  0  0  0  0  0  0  0  0
    6.0933    5.2381    0.0000 H   0  0  0  0  0  0  0  0  0  0  0  0
   10.7483    1.8455    0.0000 H   0  0  0  0  0  0  0  0  0  0  0  0
    4.4047    5.2631    0.0000 H   0  0  0  0  0  0  0  0  0  0  0  0
    4.8032    4.5729    0.0000 H   0  0  0  0  0  0  0  0  0  0  0  0
    9.3454    4.2755    0.0000 H   0  0  0  0  0  0  0  0  0  0  0  0
   10.7483    3.4655    0.0000 H   0  0  0  0  0  0  0  0  0  0  0  0
    5.6352    6.1555    0.0000 H   0  0  0  0  0  0  0  0  0  0  0  0
    5.0152    6.7755    0.0000 H   0  0  0  0  0  0  0  0  0  0  0  0
    4.3952    6.1555    0.0000 H   0  0  0  0  0  0  0  0  0  0  0  0
  1 18  2  0  0  0  0
  2  8  1  0  0  0  0
  2 10  1  0  0  0  0
  2 18  1  0  0  0  0
  3  9  1  0  0  0  0
  3 12  1  0  0  0  0
  3 13  1  0  0  0  0
  4 11  1  0  0  0  0
  4 26  1  0  0  0  0
  4 27  1  0  0  0  0
  5 27  1  0  0  0  0
  5 36  2  0  0  0  0
  6  7  1  0  0  0  0
  6  8  1  0  0  0  0
  6  9  1  6  0  0  0
  6 40  1  0  0  0  0
  7 10  1  0  0  0  0
  7 17  1  1  0  0  0
  7 41  1  0  0  0  0
  8 42  1  0  0  0  0
  8 43  1  0  0  0  0
  9 44  1  0  0  0  0
  9 45  1  0  0  0  0
 10 46  1  0  0  0  0
 10 47  1  0  0  0  0
 11 15  1  0  0  0  0
 11 16  1  0  0  0  0
 11 48  1  0  0  0  0
 12 15  1  0  0  0  0
 12 49  1  0  0  0  0
 12 50  1  0  0  0  0
 13 16  1  0  0  0  0
 13 51  1  0  0  0  0
 13 52  1  0  0  0  0
 14 18  1  0  0  0  0
 14 19  1  0  0  0  0
 14 20  1  0  0  0  0
 14 53  1  0  0  0  0
 15 54  1  0  0  0  0
 15 55  1  0  0  0  0
 16 56  1  0  0  0  0
 16 57  1  0  0  0  0
 17 24  2  0  0  0  0
 17 25  1  0  0  0  0
 19 21  1  0  0  0  0
 19 58  1  0  0  0  0
 19 59  1  0  0  0  0
 20 22  1  0  0  0  0
 20 60  1  0  0  0  0
 20 61  1  0  0  0  0
 21 23  1  0  0  0  0
 21 62  1  0  0  0  0
 21 63  1  0  0  0  0
 22 23  1  0  0  0  0
 22 64  1  0  0  0  0
 22 65  1  0  0  0  0
 23 66  1  0  0  0  0
 23 67  1  0  0  0  0
 24 29  1  0  0  0  0
 24 68  1  0  0  0  0
 25 30  2  0  0  0  0
 25 69  1  0  0  0  0
 26 28  1  0  0  0  0
 26 70  1  0  0  0  0
 26 71  1  0  0  0  0
 27 33  2  0  0  0  0
 28 32  1  0  0  0  0
 28 72  1  0  0  0  0
 28 73  1  0  0  0  0
 29 31  2  0  0  0  0
 29 74  1  0  0  0  0
 30 31  1  0  0  0  0
 30 75  1  0  0  0  0
 31 76  1  0  0  0  0
 32 34  1  0  0  0  0
 32 77  1  0  0  0  0
 32 78  1  0  0  0  0
 33 35  1  0  0  0  0
 33 79  1  0  0  0  0
 34 37  1  0  0  0  0
 34 80  1  0  0  0  0
 34 81  1  0  0  0  0
 35 38  2  0  0  0  0
 35 82  1  0  0  0  0
 36 38  1  0  0  0  0
 36 85  1  0  0  0  0
 37 39  1  0  0  0  0
 37 83  1  0  0  0  0
 37 84  1  0  0  0  0
 38 86  1  0  0  0  0
 39 87  1  0  0  0  0
 39 88  1  0  0  0  0
 39 89  1  0  0  0  0
M  END
> <PUBCHEM_COMPOUND_CID>
505871
> <PUBCHEM_COMPOUND_CANONICALIZED>
1
> <PUBCHEM_CACTVS_COMPLEXITY>
710
> <PUBCHEM_CACTVS_HBOND_ACCEPTOR>
4
> <PUBCHEM_CACTVS_HBOND_DONOR>
0
> <PUBCHEM_CACTVS_ROTATABLE_BOND>
11
> <PUBCHEM_CACTVS_SUBSKEYS>
AAADcfB/oAAAAAAAAAAAAAAAAAAAAWAAAAA8eIEAAAAAAAABwAAAHgAAAAAADSjBmgQ/sJMIEACoAjN3dACCgCkxAiAJ2CE4ZJiIIPLA2ZGEIAhohgLIyCcYiMCOgAAAAAAAAAAAAAAAAAAAAAAAAAAAAA==
> <PUBCHEM_IUPAC_OPENEYE_NAME>
cyclohexyl-[(3S,4S)-3-[[4-[hexyl(2-pyridyl)amino]-1-piperidyl]methyl]-4-phenyl-pyrrolidin-1-yl]methanone
> <PUBCHEM_IUPAC_CAS_NAME>
cyclohexyl-[(3S,4S)-3-[[4-[hexyl(2-pyridinyl)amino]-1-piperidinyl]methyl]-4-phenyl-1-pyrrolidinyl]methanone
> <PUBCHEM_IUPAC_NAME_MARKUP>
cyclohexyl-[(3<I>S</I>,4<I>S</I>)-3-[[4-[hexyl(pyridin-2-yl)amino]piperidin-1-yl]methyl]-4-phenylpyrrolidin-1-yl]methanone
> <PUBCHEM_IUPAC_NAME>
cyclohexyl-[(3S,4S)-3-[[4-[hexyl(pyridin-2-yl)amino]piperidin-1-yl]methyl]-4-phenylpyrrolidin-1-yl]methanone
> <PUBCHEM_IUPAC_SYSTEMATIC_NAME>
cyclohexyl-[(3S,4S)-3-[[4-[hexyl(pyridin-2-yl)amino]piperidin-1-yl]methyl]-4-phenyl-pyrrolidin-1-yl]methanone
> <PUBCHEM_IUPAC_TRADITIONAL_NAME>
cyclohexyl-[(3S,4S)-3-[[4-[hexyl(2-pyridyl)amino]piperidino]methyl]-4-phenyl-pyrrolidino]methanone
> <PUBCHEM_IUPAC_INCHI>
InChI=1S/C34H50N4O/c1-2-3-4-13-22-38(33-18-11-12-21-35-33)31-19-23-36(24-20-31)25-30-26-37(34(39)29-16-9-6-10-17-29)27-32(30)28-14-7-5-8-15-28/h5,7-8,11-12,14-15,18,21,29-32H,2-4,6,9-10,13,16-17,19-20,22-27H2,1H3/t30-,32+/m0/s1
> <PUBCHEM_IUPAC_INCHIKEY>
GDPCVMWEZSDSNA-XDFJSJKPSA-N
> <PUBCHEM_XLOGP3_AA>
7.6
> <PUBCHEM_EXACT_MASS>
530.39846223
> <PUBCHEM_MOLECULAR_FORMULA>
C34H50N4O
> <PUBCHEM_MOLECULAR_WEIGHT>
530.8
> <PUBCHEM_OPENEYE_CAN_SMILES>
CCCCCCN(C1CCN(CC1)CC2CN(CC2C3=CC=CC=C3)C(=O)C4CCCCC4)C5=CC=CC=N5
> <PUBCHEM_OPENEYE_ISO_SMILES>
CCCCCCN(C1CCN(CC1)C[C@H]2CN(C[C@@H]2C3=CC=CC=C3)C(=O)C4CCCCC4)C5=CC=CC=N5
> <PUBCHEM_CACTVS_TPSA>
39.7
> <PUBCHEM_MONOISOTOPIC_WEIGHT>
530.39846223
> <PUBCHEM_TOTAL_CHARGE>
0
> <PUBCHEM_HEAVY_ATOM_COUNT>
39
> <PUBCHEM_ATOM_DEF_STEREO_COUNT>
2
> <PUBCHEM_ATOM_UDEF_STEREO_COUNT>
0
> <PUBCHEM_BOND_DEF_STEREO_COUNT>
0
> <PUBCHEM_BOND_UDEF_STEREO_COUNT>
0
> <PUBCHEM_ISOTOPIC_ATOM_COUNT>
0
> <PUBCHEM_COMPONENT_COUNT>
1
> <PUBCHEM_CACTVS_TAUTO_COUNT>
-1
> <PUBCHEM_COORDINATE_TYPE>
1
5
255
> <PUBCHEM_BONDANNOTATIONS>
17  24  8
17  25  8
24  29  8
25  30  8
27  33  8
29  31  8
30  31  8
33  35  8
35  38  8
36  38  8
5  27  8
5  36  8
6  9  6
7  17  5
$$$$
