505995
  -OEChem-10302200282D
 83 88  0     1  0  0  0  0  0999 V2000
    6.1844   -2.1242    0.0000 O   0  0  0  0  0  0  0  0  0  0  0  0
    8.0313   -2.4026    0.0000 O   0  0  0  0  0  0  0  0  0  0  0  0
    7.7176    1.7825    0.0000 O   0  0  0  0  0  0  0  0  0  0  0  0
    8.3948    0.2304    0.0000 N   0  0  0  0  0  0  0  0  0  0  0  0
    6.6130    0.4989    0.0000 N   0  0  0  0  0  0  0  0  0  0  0  0
   12.8052   -1.0744    0.0000 N   0  0  0  0  0  0  0  0  0  0  0  0
   13.3888   -0.2696    0.0000 N   0  0  0  0  0  0  0  0  0  0  0  0
   13.1158    1.4856    0.0000 N   0  0  0  0  0  0  0  0  0  0  0  0
    6.2477   -0.4320    0.0000 C   0  0  1  0  0  0  0  0  0  0  0  0
    8.4696   -0.7669    0.0000 C   0  0  1  0  0  0  0  0  0  0  0  0
    6.7477   -1.2980    0.0000 C   0  0  1  0  0  0  0  0  0  0  0  0
    7.7365   -1.4470    0.0000 C   0  0  1  0  0  0  0  0  0  0  0  0
    5.2505   -0.5067    0.0000 C   0  0  0  0  0  0  0  0  0  0  0  0
    9.4004   -1.1322    0.0000 C   0  0  0  0  0  0  0  0  0  0  0  0
    7.5686    0.7937    0.0000 C   0  0  0  0  0  0  0  0  0  0  0  0
    9.2609    0.7304    0.0000 C   0  0  0  0  0  0  0  0  0  0  0  0
    5.9329    1.2320    0.0000 C   0  0  0  0  0  0  0  0  0  0  0  0
    4.6872    0.3196    0.0000 C   0  0  0  0  0  0  0  0  0  0  0  0
    9.5495   -2.1210    0.0000 C   0  0  0  0  0  0  0  0  0  0  0  0
   10.1269    0.2304    0.0000 C   0  0  0  0  0  0  0  0  0  0  0  0
    6.2276    2.1875    0.0000 C   0  0  0  0  0  0  0  0  0  0  0  0
    5.1210    1.2205    0.0000 C   0  0  0  0  0  0  0  0  0  0  0  0
    3.6900    0.2448    0.0000 C   0  0  0  0  0  0  0  0  0  0  0  0
   10.4804   -2.4864    0.0000 C   0  0  0  0  0  0  0  0  0  0  0  0
    8.7677   -2.7445    0.0000 C   0  0  0  0  0  0  0  0  0  0  0  0
   10.9929    0.7304    0.0000 C   0  0  0  0  0  0  0  0  0  0  0  0
   10.1269   -0.7696    0.0000 C   0  0  0  0  0  0  0  0  0  0  0  0
    7.2025    2.4101    0.0000 C   0  0  0  0  0  0  0  0  0  0  0  0
    5.5474    2.9206    0.0000 C   0  0  0  0  0  0  0  0  0  0  0  0
    4.5577    2.0468    0.0000 C   0  0  0  0  0  0  0  0  0  0  0  0
    3.1266    1.0711    0.0000 C   0  0  0  0  0  0  0  0  0  0  0  0
   11.8589    0.2304    0.0000 C   0  0  0  0  0  0  0  0  0  0  0  0
    3.5605    1.9720    0.0000 C   0  0  0  0  0  0  0  0  0  0  0  0
   10.6294   -3.4752    0.0000 C   0  0  0  0  0  0  0  0  0  0  0  0
    8.9167   -3.7334    0.0000 C   0  0  0  0  0  0  0  0  0  0  0  0
   10.9929   -1.2696    0.0000 C   0  0  0  0  0  0  0  0  0  0  0  0
   11.8589   -0.7696    0.0000 C   0  0  0  0  0  0  0  0  0  0  0  0
    9.8476   -4.0987    0.0000 C   0  0  0  0  0  0  0  0  0  0  0  0
    7.4973    3.3656    0.0000 C   0  0  0  0  0  0  0  0  0  0  0  0
    5.8422    3.8762    0.0000 C   0  0  0  0  0  0  0  0  0  0  0  0
    2.9972    2.7983    0.0000 C   0  0  0  0  0  0  0  0  0  0  0  0
   12.8052    0.5351    0.0000 C   0  0  0  0  0  0  0  0  0  0  0  0
    6.8171    4.0987    0.0000 C   0  0  0  0  0  0  0  0  0  0  0  0
    2.0000    2.7235    0.0000 C   0  0  0  0  0  0  0  0  0  0  0  0
    5.8795    0.0669    0.0000 H   0  0  0  0  0  0  0  0  0  0  0  0
    8.9684   -0.3987    0.0000 H   0  0  0  0  0  0  0  0  0  0  0  0
    6.9956   -1.8662    0.0000 H   0  0  0  0  0  0  0  0  0  0  0  0
    8.3354   -1.6075    0.0000 H   0  0  0  0  0  0  0  0  0  0  0  0
    4.6854   -0.7617    0.0000 H   0  0  0  0  0  0  0  0  0  0  0  0
    5.4035   -1.1075    0.0000 H   0  0  0  0  0  0  0  0  0  0  0  0
   10.0203   -1.1476    0.0000 H   0  0  0  0  0  0  0  0  0  0  0  0
    9.5233   -0.5245    0.0000 H   0  0  0  0  0  0  0  0  0  0  0  0
    9.6594    1.2053    0.0000 H   0  0  0  0  0  0  0  0  0  0  0  0
    8.8623    1.2053    0.0000 H   0  0  0  0  0  0  0  0  0  0  0  0
    5.3811    1.5148    0.0000 H   0  0  0  0  0  0  0  0  0  0  0  0
    5.5585    0.7377    0.0000 H   0  0  0  0  0  0  0  0  0  0  0  0
    6.4534   -2.6828    0.0000 H   0  0  0  0  0  0  0  0  0  0  0  0
    7.6096   -2.8571    0.0000 H   0  0  0  0  0  0  0  0  0  0  0  0
    5.7393    1.2668    0.0000 H   0  0  0  0  0  0  0  0  0  0  0  0
    3.4210   -0.3138    0.0000 H   0  0  0  0  0  0  0  0  0  0  0  0
   10.9651   -2.0998    0.0000 H   0  0  0  0  0  0  0  0  0  0  0  0
    8.1905   -2.5180    0.0000 H   0  0  0  0  0  0  0  0  0  0  0  0
   10.9929    1.3504    0.0000 H   0  0  0  0  0  0  0  0  0  0  0  0
    9.5900   -1.0796    0.0000 H   0  0  0  0  0  0  0  0  0  0  0  0
    7.6242    1.9556    0.0000 H   0  0  0  0  0  0  0  0  0  0  0  0
    4.9430    2.7826    0.0000 H   0  0  0  0  0  0  0  0  0  0  0  0
    4.8267    2.6054    0.0000 H   0  0  0  0  0  0  0  0  0  0  0  0
    2.5084    1.0247    0.0000 H   0  0  0  0  0  0  0  0  0  0  0  0
   11.2065   -3.7017    0.0000 H   0  0  0  0  0  0  0  0  0  0  0  0
    8.4320   -4.1199    0.0000 H   0  0  0  0  0  0  0  0  0  0  0  0
   10.9929   -1.8896    0.0000 H   0  0  0  0  0  0  0  0  0  0  0  0
    9.9400   -4.7118    0.0000 H   0  0  0  0  0  0  0  0  0  0  0  0
    8.1017    3.5036    0.0000 H   0  0  0  0  0  0  0  0  0  0  0  0
    5.4205    4.3307    0.0000 H   0  0  0  0  0  0  0  0  0  0  0  0
    3.5623    3.0533    0.0000 H   0  0  0  0  0  0  0  0  0  0  0  0
    2.8442    3.3991    0.0000 H   0  0  0  0  0  0  0  0  0  0  0  0
    6.9999    4.6911    0.0000 H   0  0  0  0  0  0  0  0  0  0  0  0
   12.9978   -1.6637    0.0000 H   0  0  0  0  0  0  0  0  0  0  0  0
    1.9537    3.3418    0.0000 H   0  0  0  0  0  0  0  0  0  0  0  0
    1.3817    2.6772    0.0000 H   0  0  0  0  0  0  0  0  0  0  0  0
    2.0463    2.1053    0.0000 H   0  0  0  0  0  0  0  0  0  0  0  0
   13.7225    1.6135    0.0000 H   0  0  0  0  0  0  0  0  0  0  0  0
   12.7018    1.9471    0.0000 H   0  0  0  0  0  0  0  0  0  0  0  0
 11  1  1  1  0  0  0
  1 57  1  0  0  0  0
 12  2  1  6  0  0  0
  2 58  1  0  0  0  0
  3 15  2  0  0  0  0
  4 10  1  0  0  0  0
  4 15  1  0  0  0  0
  4 16  1  0  0  0  0
  5  9  1  0  0  0  0
  5 15  1  0  0  0  0
  5 17  1  0  0  0  0
  6  7  1  0  0  0  0
  6 37  1  0  0  0  0
  6 78  1  0  0  0  0
  7 42  2  0  0  0  0
  8 42  1  0  0  0  0
  8 82  1  0  0  0  0
  8 83  1  0  0  0  0
  9 11  1  0  0  0  0
  9 13  1  1  0  0  0
  9 45  1  0  0  0  0
 10 12  1  0  0  0  0
 10 14  1  6  0  0  0
 10 46  1  0  0  0  0
 11 12  1  0  0  0  0
 11 47  1  0  0  0  0
 12 48  1  0  0  0  0
 13 18  1  0  0  0  0
 13 49  1  0  0  0  0
 13 50  1  0  0  0  0
 14 19  1  0  0  0  0
 14 51  1  0  0  0  0
 14 52  1  0  0  0  0
 16 20  1  0  0  0  0
 16 53  1  0  0  0  0
 16 54  1  0  0  0  0
 17 21  1  0  0  0  0
 17 55  1  0  0  0  0
 17 56  1  0  0  0  0
 18 22  2  0  0  0  0
 18 23  1  0  0  0  0
 19 24  2  0  0  0  0
 19 25  1  0  0  0  0
 20 26  2  0  0  0  0
 20 27  1  0  0  0  0
 21 28  2  0  0  0  0
 21 29  1  0  0  0  0
 22 30  1  0  0  0  0
 22 59  1  0  0  0  0
 23 31  2  0  0  0  0
 23 60  1  0  0  0  0
 24 34  1  0  0  0  0
 24 61  1  0  0  0  0
 25 35  2  0  0  0  0
 25 62  1  0  0  0  0
 26 32  1  0  0  0  0
 26 63  1  0  0  0  0
 27 36  2  0  0  0  0
 27 64  1  0  0  0  0
 28 39  1  0  0  0  0
 28 65  1  0  0  0  0
 29 40  2  0  0  0  0
 29 66  1  0  0  0  0
 30 33  2  0  0  0  0
 30 67  1  0  0  0  0
 31 33  1  0  0  0  0
 31 68  1  0  0  0  0
 32 37  2  0  0  0  0
 32 42  1  0  0  0  0
 33 41  1  0  0  0  0
 34 38  2  0  0  0  0
 34 69  1  0  0  0  0
 35 38  1  0  0  0  0
 35 70  1  0  0  0  0
 36 37  1  0  0  0  0
 36 71  1  0  0  0  0
 38 72  1  0  0  0  0
 39 43  2  0  0  0  0
 39 73  1  0  0  0  0
 40 43  1  0  0  0  0
 40 74  1  0  0  0  0
 41 44  1  0  0  0  0
 41 75  1  0  0  0  0
 41 76  1  0  0  0  0
 43 77  1  0  0  0  0
 44 79  1  0  0  0  0
 44 80  1  0  0  0  0
 44 81  1  0  0  0  0
M  END
> <PUBCHEM_COMPOUND_CID>
505995
> <PUBCHEM_COMPOUND_CANONICALIZED>
1
> <PUBCHEM_CACTVS_COMPLEXITY>
902
> <PUBCHEM_CACTVS_HBOND_ACCEPTOR>
5
> <PUBCHEM_CACTVS_HBOND_DONOR>
4
> <PUBCHEM_CACTVS_ROTATABLE_BOND>
9
> <PUBCHEM_CACTVS_SUBSKEYS>
AAADcfB/sAAAAAAAAAAAAAAAAAAAAWAAAAAwYMGABYAAAFgB9AAAHgAYCAAADDzhngYz8PNjAgCqAyZicACSBAIgAgAcuSA4ZJiLMKKA0dGE5Ah+ngKZyAeQwPAOSAACAAACAACQAAQAAAQAAAAAAAAAAA==
> <PUBCHEM_IUPAC_OPENEYE_NAME>
(4R,5S,6S,7R)-1-[(3-amino-1H-indazol-5-yl)methyl]-3,7-dibenzyl-4-[(4-ethylphenyl)methyl]-5,6-dihydroxy-1,3-diazepan-2-one
> <PUBCHEM_IUPAC_CAS_NAME>
(4R,5S,6S,7R)-1-[(3-amino-1H-indazol-5-yl)methyl]-4-[(4-ethylphenyl)methyl]-5,6-dihydroxy-3,7-bis(phenylmethyl)-1,3-diazepan-2-one
> <PUBCHEM_IUPAC_NAME_MARKUP>
(4<I>R</I>,5<I>S</I>,6<I>S</I>,7<I>R</I>)-1-[(3-amino-1<I>H</I>-indazol-5-yl)methyl]-3,7-dibenzyl-4-[(4-ethylphenyl)methyl]-5,6-dihydroxy-1,3-diazepan-2-one
> <PUBCHEM_IUPAC_NAME>
(4R,5S,6S,7R)-1-[(3-amino-1H-indazol-5-yl)methyl]-3,7-dibenzyl-4-[(4-ethylphenyl)methyl]-5,6-dihydroxy-1,3-diazepan-2-one
> <PUBCHEM_IUPAC_SYSTEMATIC_NAME>
(4R,5S,6S,7R)-1-[(3-azanyl-1H-indazol-5-yl)methyl]-4-[(4-ethylphenyl)methyl]-5,6-bis(oxidanyl)-3,7-bis(phenylmethyl)-1,3-diazepan-2-one
> <PUBCHEM_IUPAC_TRADITIONAL_NAME>
(4R,5S,6S,7R)-1-[(3-amino-1H-indazol-5-yl)methyl]-3,7-dibenzyl-4-(4-ethylbenzyl)-5,6-dihydroxy-1,3-diazepan-2-one
> <PUBCHEM_IUPAC_INCHI>
InChI=1S/C36H39N5O3/c1-2-24-13-15-26(16-14-24)21-32-34(43)33(42)31(20-25-9-5-3-6-10-25)41(36(44)40(32)22-27-11-7-4-8-12-27)23-28-17-18-30-29(19-28)35(37)39-38-30/h3-19,31-34,42-43H,2,20-23H2,1H3,(H3,37,38,39)/t31-,32-,33+,34+/m1/s1
> <PUBCHEM_IUPAC_INCHIKEY>
UKNKMCZDDBBRSN-WZJLIZBTSA-N
> <PUBCHEM_XLOGP3_AA>
5.4
> <PUBCHEM_EXACT_MASS>
589.30529012
> <PUBCHEM_MOLECULAR_FORMULA>
C36H39N5O3
> <PUBCHEM_MOLECULAR_WEIGHT>
589.7
> <PUBCHEM_OPENEYE_CAN_SMILES>
CCC1=CC=C(C=C1)CC2C(C(C(N(C(=O)N2CC3=CC=CC=C3)CC4=CC5=C(C=C4)NN=C5N)CC6=CC=CC=C6)O)O
> <PUBCHEM_OPENEYE_ISO_SMILES>
CCC1=CC=C(C=C1)C[C@@H]2[C@@H]([C@H]([C@H](N(C(=O)N2CC3=CC=CC=C3)CC4=CC5=C(C=C4)NN=C5N)CC6=CC=CC=C6)O)O
> <PUBCHEM_CACTVS_TPSA>
119
> <PUBCHEM_MONOISOTOPIC_WEIGHT>
589.30529012
> <PUBCHEM_TOTAL_CHARGE>
0
> <PUBCHEM_HEAVY_ATOM_COUNT>
44
> <PUBCHEM_ATOM_DEF_STEREO_COUNT>
4
> <PUBCHEM_ATOM_UDEF_STEREO_COUNT>
0
> <PUBCHEM_BOND_DEF_STEREO_COUNT>
0
> <PUBCHEM_BOND_UDEF_STEREO_COUNT>
0
> <PUBCHEM_ISOTOPIC_ATOM_COUNT>
0
> <PUBCHEM_COMPONENT_COUNT>
1
> <PUBCHEM_CACTVS_TAUTO_COUNT>
-1
> <PUBCHEM_COORDINATE_TYPE>
1
5
255
> <PUBCHEM_BONDANNOTATIONS>
11  1  5
10  14  6
18  22  8
18  23  8
19  24  8
19  25  8
12  2  6
20  26  8
20  27  8
21  28  8
21  29  8
22  30  8
23  31  8
24  34  8
25  35  8
26  32  8
27  36  8
28  39  8
29  40  8
30  33  8
31  33  8
32  37  8
32  42  8
34  38  8
35  38  8
36  37  8
39  43  8
40  43  8
6  37  8
6  7  8
7  42  8
9  13  5
$$$$
