505922
  -OEChem-10302200282D
 38 38  0     1  0  0  0  0  0999 V2000
    4.1350    2.8100    0.0000 F   0  0  0  0  0  0  0  0  0  0  0  0
    5.1350    3.8100    0.0000 F   0  0  0  0  0  0  0  0  0  0  0  0
    6.1350    2.8100    0.0000 F   0  0  0  0  0  0  0  0  0  0  0  0
    6.0010    0.3100    0.0000 O   0  0  0  0  0  0  0  0  0  0  0  0
    5.1350   -3.1900    0.0000 O   0  0  0  0  0  0  0  0  0  0  0  0
    3.4030   -3.1900    0.0000 O   0  0  0  0  0  0  0  0  0  0  0  0
    6.0010    1.3100    0.0000 O   0  0  0  0  0  0  0  0  0  0  0  0
    4.2690    1.3100    0.0000 N   0  0  0  0  0  0  0  0  0  0  0  0
    2.5369    0.3100    0.0000 N   0  0  0  0  0  0  0  0  0  0  0  0
    4.2690    0.3100    0.0000 C   0  0  2  0  0  0  0  0  0  0  0  0
    3.4030   -0.1900    0.0000 C   0  0  2  0  0  0  0  0  0  0  0  0
    5.1350   -0.1900    0.0000 C   0  0  1  0  0  0  0  0  0  0  0  0
    3.4030   -1.1900    0.0000 C   0  0  0  0  0  0  0  0  0  0  0  0
    5.1350   -1.1900    0.0000 C   0  0  0  0  0  0  0  0  0  0  0  0
    4.2690   -1.6900    0.0000 C   0  0  0  0  0  0  0  0  0  0  0  0
    6.8671   -0.1900    0.0000 C   0  0  0  0  0  0  0  0  0  0  0  0
    4.2690   -2.6900    0.0000 C   0  0  0  0  0  0  0  0  0  0  0  0
    5.1350    1.8100    0.0000 C   0  0  0  0  0  0  0  0  0  0  0  0
    7.7331    0.3100    0.0000 C   0  0  0  0  0  0  0  0  0  0  0  0
    5.1350    2.8100    0.0000 C   0  0  0  0  0  0  0  0  0  0  0  0
    8.5991   -0.1900    0.0000 C   0  0  0  0  0  0  0  0  0  0  0  0
    4.8059    0.6200    0.0000 H   0  0  0  0  0  0  0  0  0  0  0  0
    3.4030    0.4300    0.0000 H   0  0  0  0  0  0  0  0  0  0  0  0
    5.6720   -0.5000    0.0000 H   0  0  0  0  0  0  0  0  0  0  0  0
    2.7924   -1.0823    0.0000 H   0  0  0  0  0  0  0  0  0  0  0  0
    3.1909   -1.7726    0.0000 H   0  0  0  0  0  0  0  0  0  0  0  0
    5.6720   -1.5000    0.0000 H   0  0  0  0  0  0  0  0  0  0  0  0
    3.7320    1.6200    0.0000 H   0  0  0  0  0  0  0  0  0  0  0  0
    2.0000    0.0000    0.0000 H   0  0  0  0  0  0  0  0  0  0  0  0
    2.5369    0.9300    0.0000 H   0  0  0  0  0  0  0  0  0  0  0  0
    6.4685   -0.6649    0.0000 H   0  0  0  0  0  0  0  0  0  0  0  0
    7.2656   -0.6649    0.0000 H   0  0  0  0  0  0  0  0  0  0  0  0
    8.1316    0.7849    0.0000 H   0  0  0  0  0  0  0  0  0  0  0  0
    7.3346    0.7849    0.0000 H   0  0  0  0  0  0  0  0  0  0  0  0
    8.2891   -0.7269    0.0000 H   0  0  0  0  0  0  0  0  0  0  0  0
    9.1360   -0.5000    0.0000 H   0  0  0  0  0  0  0  0  0  0  0  0
    8.9091    0.3469    0.0000 H   0  0  0  0  0  0  0  0  0  0  0  0
    5.1350   -3.8100    0.0000 H   0  0  0  0  0  0  0  0  0  0  0  0
  1 20  1  0  0  0  0
  2 20  1  0  0  0  0
  3 20  1  0  0  0  0
 12  4  1  6  0  0  0
  4 16  1  0  0  0  0
  5 17  1  0  0  0  0
  5 38  1  0  0  0  0
  6 17  2  0  0  0  0
  7 18  2  0  0  0  0
 10  8  1  1  0  0  0
  8 18  1  0  0  0  0
  8 28  1  0  0  0  0
 11  9  1  6  0  0  0
  9 29  1  0  0  0  0
  9 30  1  0  0  0  0
 10 11  1  0  0  0  0
 10 12  1  0  0  0  0
 10 22  1  0  0  0  0
 11 13  1  0  0  0  0
 11 23  1  0  0  0  0
 12 14  1  0  0  0  0
 12 24  1  0  0  0  0
 13 15  1  0  0  0  0
 13 25  1  0  0  0  0
 13 26  1  0  0  0  0
 14 15  2  0  0  0  0
 14 27  1  0  0  0  0
 15 17  1  0  0  0  0
 16 19  1  0  0  0  0
 16 31  1  0  0  0  0
 16 32  1  0  0  0  0
 18 20  1  0  0  0  0
 19 21  1  0  0  0  0
 19 33  1  0  0  0  0
 19 34  1  0  0  0  0
 21 35  1  0  0  0  0
 21 36  1  0  0  0  0
 21 37  1  0  0  0  0
M  END
> <PUBCHEM_COMPOUND_CID>
505922
> <PUBCHEM_COMPOUND_CANONICALIZED>
1
> <PUBCHEM_CACTVS_COMPLEXITY>
437
> <PUBCHEM_CACTVS_HBOND_ACCEPTOR>
8
> <PUBCHEM_CACTVS_HBOND_DONOR>
3
> <PUBCHEM_CACTVS_ROTATABLE_BOND>
5
> <PUBCHEM_CACTVS_SUBSKEYS>
AAADceBzOYAAAAAAAAAAAAAAAAAAAAAAAAAgAAAAAAAAAAAAAAAAHwAQCAAADDzhgBYCCALABgCIAiHSGAAAAAAgAAAACIEIAEgCRBIAoQAXUAAGlgCYMYO82SOQAAAAAAAAAAAAAAAAAAAAAAAAAAAAAA==
> <PUBCHEM_IUPAC_OPENEYE_NAME>
(3R,4R,5S)-5-amino-3-propoxy-4-[(2,2,2-trifluoroacetyl)amino]cyclohexene-1-carboxylic acid
> <PUBCHEM_IUPAC_CAS_NAME>
(3R,4R,5S)-5-amino-3-propoxy-4-[(2,2,2-trifluoro-1-oxoethyl)amino]-1-cyclohexenecarboxylic acid
> <PUBCHEM_IUPAC_NAME_MARKUP>
(3<I>R</I>,4<I>R</I>,5<I>S</I>)-5-amino-3-propoxy-4-[(2,2,2-trifluoroacetyl)amino]cyclohexene-1-carboxylic acid
> <PUBCHEM_IUPAC_NAME>
(3R,4R,5S)-5-amino-3-propoxy-4-[(2,2,2-trifluoroacetyl)amino]cyclohexene-1-carboxylic acid
> <PUBCHEM_IUPAC_SYSTEMATIC_NAME>
(3R,4R,5S)-5-azanyl-3-propoxy-4-[2,2,2-tris(fluoranyl)ethanoylamino]cyclohexene-1-carboxylic acid
> <PUBCHEM_IUPAC_TRADITIONAL_NAME>
(3R,4R,5S)-5-amino-3-propoxy-4-[(2,2,2-trifluoroacetyl)amino]cyclohexene-1-carboxylic acid
> <PUBCHEM_IUPAC_INCHI>
InChI=1S/C12H17F3N2O4/c1-2-3-21-8-5-6(10(18)19)4-7(16)9(8)17-11(20)12(13,14)15/h5,7-9H,2-4,16H2,1H3,(H,17,20)(H,18,19)/t7-,8+,9+/m0/s1
> <PUBCHEM_IUPAC_INCHIKEY>
LSTDSHDWUMFIPV-DJLDLDEBSA-N
> <PUBCHEM_XLOGP3_AA>
-1.7
> <PUBCHEM_EXACT_MASS>
310.11404151
> <PUBCHEM_MOLECULAR_FORMULA>
C12H17F3N2O4
> <PUBCHEM_MOLECULAR_WEIGHT>
310.27
> <PUBCHEM_OPENEYE_CAN_SMILES>
CCCOC1C=C(CC(C1NC(=O)C(F)(F)F)N)C(=O)O
> <PUBCHEM_OPENEYE_ISO_SMILES>
CCCO[C@@H]1C=C(C[C@@H]([C@H]1NC(=O)C(F)(F)F)N)C(=O)O
> <PUBCHEM_CACTVS_TPSA>
102
> <PUBCHEM_MONOISOTOPIC_WEIGHT>
310.11404151
> <PUBCHEM_TOTAL_CHARGE>
0
> <PUBCHEM_HEAVY_ATOM_COUNT>
21
> <PUBCHEM_ATOM_DEF_STEREO_COUNT>
3
> <PUBCHEM_ATOM_UDEF_STEREO_COUNT>
0
> <PUBCHEM_BOND_DEF_STEREO_COUNT>
0
> <PUBCHEM_BOND_UDEF_STEREO_COUNT>
0
> <PUBCHEM_ISOTOPIC_ATOM_COUNT>
0
> <PUBCHEM_COMPONENT_COUNT>
1
> <PUBCHEM_CACTVS_TAUTO_COUNT>
-1
> <PUBCHEM_COORDINATE_TYPE>
1
5
255
> <PUBCHEM_BONDANNOTATIONS>
12  4  6
10  8  5
11  9  6
$$$$
