505916
  -OEChem-10302200282D
 46 46  0     1  0  0  0  0  0999 V2000
    3.7690    1.9330    0.0000 S   0  0  0  0  0  0  0  0  0  0  0  0
    5.1350   -1.4330    0.0000 O   0  0  0  0  0  0  0  0  0  0  0  0
    6.0010    1.0670    0.0000 O   0  0  0  0  0  0  0  0  0  0  0  0
    6.8671   -1.4330    0.0000 O   0  0  0  0  0  0  0  0  0  0  0  0
    3.2690    2.7990    0.0000 O   0  0  0  0  0  0  0  0  0  0  0  0
    2.9030    1.4331    0.0000 O   0  0  0  0  0  0  0  0  0  0  0  0
    8.5991   -0.4330    0.0000 O   0  0  0  0  0  0  0  0  0  0  0  0
    4.2690    1.0670    0.0000 N   0  0  0  0  0  0  0  0  0  0  0  0
    2.5369    0.0670    0.0000 N   0  0  0  0  0  0  0  0  0  0  0  0
    4.2690    0.0670    0.0000 C   0  0  1  0  0  0  0  0  0  0  0  0
    5.1350   -0.4330    0.0000 C   0  0  2  0  0  0  0  0  0  0  0  0
    3.4030   -0.4330    0.0000 C   0  0  2  0  0  0  0  0  0  0  0  0
    6.0010    0.0670    0.0000 C   0  0  1  0  0  0  0  0  0  0  0  0
    6.8671   -0.4330    0.0000 C   0  0  1  0  0  0  0  0  0  0  0  0
    3.4030   -1.4330    0.0000 C   0  0  0  0  0  0  0  0  0  0  0  0
    4.2690   -1.9330    0.0000 C   0  0  0  0  0  0  0  0  0  0  0  0
    7.7331    0.0670    0.0000 C   0  0  0  0  0  0  0  0  0  0  0  0
    4.6350    2.4330    0.0000 C   0  0  0  0  0  0  0  0  0  0  0  0
    4.2690   -2.9330    0.0000 C   0  0  0  0  0  0  0  0  0  0  0  0
    4.6350    3.4330    0.0000 C   0  0  0  0  0  0  0  0  0  0  0  0
    3.4030   -3.4330    0.0000 C   0  0  0  0  0  0  0  0  0  0  0  0
    5.1350   -3.4330    0.0000 C   0  0  0  0  0  0  0  0  0  0  0  0
    4.8059    0.3770    0.0000 H   0  0  0  0  0  0  0  0  0  0  0  0
    5.8711   -0.8580    0.0000 H   0  0  0  0  0  0  0  0  0  0  0  0
    3.4030    0.1870    0.0000 H   0  0  0  0  0  0  0  0  0  0  0  0
    6.5380    0.3770    0.0000 H   0  0  0  0  0  0  0  0  0  0  0  0
    4.8059    1.3770    0.0000 H   0  0  0  0  0  0  0  0  0  0  0  0
    6.3301   -0.7430    0.0000 H   0  0  0  0  0  0  0  0  0  0  0  0
    2.8660   -1.7430    0.0000 H   0  0  0  0  0  0  0  0  0  0  0  0
    2.0000   -0.2430    0.0000 H   0  0  0  0  0  0  0  0  0  0  0  0
    2.2269    0.6039    0.0000 H   0  0  0  0  0  0  0  0  0  0  0  0
    8.1316    0.5419    0.0000 H   0  0  0  0  0  0  0  0  0  0  0  0
    7.3346    0.5419    0.0000 H   0  0  0  0  0  0  0  0  0  0  0  0
    6.5380    1.3770    0.0000 H   0  0  0  0  0  0  0  0  0  0  0  0
    4.8471    1.8504    0.0000 H   0  0  0  0  0  0  0  0  0  0  0  0
    5.2456    2.5407    0.0000 H   0  0  0  0  0  0  0  0  0  0  0  0
    7.4040   -1.7430    0.0000 H   0  0  0  0  0  0  0  0  0  0  0  0
    5.2550    3.4330    0.0000 H   0  0  0  0  0  0  0  0  0  0  0  0
    4.6350    4.0530    0.0000 H   0  0  0  0  0  0  0  0  0  0  0  0
    4.0150    3.4330    0.0000 H   0  0  0  0  0  0  0  0  0  0  0  0
    3.0930   -2.8961    0.0000 H   0  0  0  0  0  0  0  0  0  0  0  0
    2.8660   -3.7430    0.0000 H   0  0  0  0  0  0  0  0  0  0  0  0
    3.7130   -3.9700    0.0000 H   0  0  0  0  0  0  0  0  0  0  0  0
    9.1360   -0.1230    0.0000 H   0  0  0  0  0  0  0  0  0  0  0  0
    5.1350   -4.0530    0.0000 H   0  0  0  0  0  0  0  0  0  0  0  0
    5.6720   -3.1230    0.0000 H   0  0  0  0  0  0  0  0  0  0  0  0
  1  5  2  0  0  0  0
  1  6  2  0  0  0  0
  1  8  1  0  0  0  0
  1 18  1  0  0  0  0
  2 11  1  0  0  0  0
  2 16  1  0  0  0  0
 13  3  1  6  0  0  0
  3 34  1  0  0  0  0
 14  4  1  1  0  0  0
  4 37  1  0  0  0  0
  7 17  1  0  0  0  0
  7 44  1  0  0  0  0
 10  8  1  1  0  0  0
  8 27  1  0  0  0  0
 12  9  1  6  0  0  0
  9 30  1  0  0  0  0
  9 31  1  0  0  0  0
 10 11  1  0  0  0  0
 10 12  1  0  0  0  0
 10 23  1  0  0  0  0
 11 13  1  0  0  0  0
 11 24  1  1  0  0  0
 12 15  1  0  0  0  0
 12 25  1  0  0  0  0
 13 14  1  0  0  0  0
 13 26  1  0  0  0  0
 14 17  1  0  0  0  0
 14 28  1  0  0  0  0
 15 16  2  0  0  0  0
 15 29  1  0  0  0  0
 16 19  1  0  0  0  0
 17 32  1  0  0  0  0
 17 33  1  0  0  0  0
 18 20  1  0  0  0  0
 18 35  1  0  0  0  0
 18 36  1  0  0  0  0
 19 21  1  0  0  0  0
 19 22  2  0  0  0  0
 20 38  1  0  0  0  0
 20 39  1  0  0  0  0
 20 40  1  0  0  0  0
 21 41  1  0  0  0  0
 21 42  1  0  0  0  0
 21 43  1  0  0  0  0
 22 45  1  0  0  0  0
 22 46  1  0  0  0  0
M  END
> <PUBCHEM_COMPOUND_CID>
505916
> <PUBCHEM_COMPOUND_CANONICALIZED>
1
> <PUBCHEM_CACTVS_COMPLEXITY>
527
> <PUBCHEM_CACTVS_HBOND_ACCEPTOR>
8
> <PUBCHEM_CACTVS_HBOND_DONOR>
5
> <PUBCHEM_CACTVS_ROTATABLE_BOND>
7
> <PUBCHEM_CACTVS_SUBSKEYS>
AAADceBzOABAAAAAAAAAAAAAAAAAAAAAAAAgAAAAAAAAAAAAAAAAHgQQSAAADDzlwAaCAABABgKAAiBCAHDACAAgIAAACIAAAAgLVAIAoQADQAAHkAALoAPw0CEAAAAAAAAAAAAAAAAAAAAAAAAAAAAAAA==
> <PUBCHEM_IUPAC_OPENEYE_NAME>
N-[(2R,3R,4S)-4-amino-6-isopropenyl-2-[(1R,2R)-1,2,3-trihydroxypropyl]-3,4-dihydro-2H-pyran-3-yl]ethanesulfonamide
> <PUBCHEM_IUPAC_CAS_NAME>
N-[(2R,3R,4S)-4-amino-6-(1-methylethenyl)-2-[(1R,2R)-1,2,3-trihydroxypropyl]-3,4-dihydro-2H-pyran-3-yl]ethanesulfonamide
> <PUBCHEM_IUPAC_NAME_MARKUP>
<I>N</I>-[(2<I>R</I>,3<I>R</I>,4<I>S</I>)-4-amino-6-prop-1-en-2-yl-2-[(1<I>R</I>,2<I>R</I>)-1,2,3-trihydroxypropyl]-3,4-dihydro-2<I>H</I>-pyran-3-yl]ethanesulfonamide
> <PUBCHEM_IUPAC_NAME>
N-[(2R,3R,4S)-4-amino-6-prop-1-en-2-yl-2-[(1R,2R)-1,2,3-trihydroxypropyl]-3,4-dihydro-2H-pyran-3-yl]ethanesulfonamide
> <PUBCHEM_IUPAC_SYSTEMATIC_NAME>
N-[(2R,3R,4S)-4-azanyl-6-prop-1-en-2-yl-2-[(1R,2R)-1,2,3-tris(oxidanyl)propyl]-3,4-dihydro-2H-pyran-3-yl]ethanesulfonamide
> <PUBCHEM_IUPAC_TRADITIONAL_NAME>
N-[(2R,3R,4S)-4-amino-6-isopropenyl-2-[(1R,2R)-1,2,3-trihydroxypropyl]-3,4-dihydro-2H-pyran-3-yl]ethanesulfonamide
> <PUBCHEM_IUPAC_INCHI>
InChI=1S/C13H24N2O6S/c1-4-22(19,20)15-11-8(14)5-10(7(2)3)21-13(11)12(18)9(17)6-16/h5,8-9,11-13,15-18H,2,4,6,14H2,1,3H3/t8-,9+,11+,12+,13+/m0/s1
> <PUBCHEM_IUPAC_INCHIKEY>
JFHDEZGZPPNPTG-IINAIABHSA-N
> <PUBCHEM_XLOGP3_AA>
-0.9
> <PUBCHEM_EXACT_MASS>
336.13550766
> <PUBCHEM_MOLECULAR_FORMULA>
C13H24N2O6S
> <PUBCHEM_MOLECULAR_WEIGHT>
336.41
> <PUBCHEM_OPENEYE_CAN_SMILES>
CCS(=O)(=O)NC1C(C=C(OC1C(C(CO)O)O)C(=C)C)N
> <PUBCHEM_OPENEYE_ISO_SMILES>
CCS(=O)(=O)N[C@@H]1[C@H](C=C(O[C@H]1[C@@H]([C@@H](CO)O)O)C(=C)C)N
> <PUBCHEM_CACTVS_TPSA>
151
> <PUBCHEM_MONOISOTOPIC_WEIGHT>
336.13550766
> <PUBCHEM_TOTAL_CHARGE>
0
> <PUBCHEM_HEAVY_ATOM_COUNT>
22
> <PUBCHEM_ATOM_DEF_STEREO_COUNT>
5
> <PUBCHEM_ATOM_UDEF_STEREO_COUNT>
0
> <PUBCHEM_BOND_DEF_STEREO_COUNT>
0
> <PUBCHEM_BOND_UDEF_STEREO_COUNT>
0
> <PUBCHEM_ISOTOPIC_ATOM_COUNT>
0
> <PUBCHEM_COMPONENT_COUNT>
1
> <PUBCHEM_CACTVS_TAUTO_COUNT>
-1
> <PUBCHEM_COORDINATE_TYPE>
1
5
255
> <PUBCHEM_BONDANNOTATIONS>
11  24  5
13  3  6
14  4  5
10  8  5
12  9  6
$$$$
