505901
  -OEChem-10302200282D
 72 75  0     1  0  0  0  0  0999 V2000
   11.1790   -2.8808    0.0000 S   0  0  0  0  0  0  0  0  0  0  0  0
    5.1856    1.8835    0.0000 O   0  0  0  0  0  0  0  0  0  0  0  0
    7.7316    2.3455    0.0000 O   0  0  0  0  0  0  0  0  0  0  0  0
    5.7465   -0.1283    0.0000 O   0  0  0  0  0  0  0  0  0  0  0  0
    6.4793    4.1245    0.0000 O   0  0  0  0  0  0  0  0  0  0  0  0
    7.0162   -1.3064    0.0000 O   0  0  0  0  0  0  0  0  0  0  0  0
    4.3861   -1.5944    0.0000 O   0  0  0  0  0  0  0  0  0  0  0  0
    7.6963   -0.5734    0.0000 O   0  0  0  0  0  0  0  0  0  0  0  0
    4.9756   -3.5056    0.0000 O   0  0  0  0  0  0  0  0  0  0  0  0
    5.4393    4.8691    0.0000 O   0  0  0  0  0  0  0  0  0  0  0  0
    2.0000    5.2827    0.0000 O   0  0  0  0  0  0  0  0  0  0  0  0
    8.9660   -1.7515    0.0000 O   0  0  0  0  0  0  0  0  0  0  0  0
    8.9962   -5.2610    0.0000 O   0  0  0  0  0  0  0  0  0  0  0  0
    4.4004    3.4832    0.0000 N   0  0  0  0  0  0  0  0  0  0  0  0
    8.0818    1.1152    0.0000 N   0  0  0  0  0  0  0  0  0  0  0  0
    3.7197    5.0759    0.0000 N   0  0  0  0  0  0  0  0  0  0  0  0
    8.5806   -3.4401    0.0000 N   0  0  0  0  0  0  0  0  0  0  0  0
   10.6790   -5.0714    0.0000 N   0  0  0  0  0  0  0  0  0  0  0  0
    6.1319    1.5603    0.0000 C   0  0  1  0  0  0  0  0  0  0  0  0
    6.7317    2.3604    0.0000 C   0  0  2  0  0  0  0  0  0  0  0  0
    6.1561    3.1781    0.0000 C   0  0  2  0  0  0  0  0  0  0  0  0
    5.2005    2.8834    0.0000 C   0  0  1  0  0  0  0  0  0  0  0  0
    6.4267    0.6047    0.0000 C   0  0  1  0  0  0  0  0  0  0  0  0
    6.0412   -1.0839    0.0000 C   0  0  1  0  0  0  0  0  0  0  0  0
    7.4016    0.3822    0.0000 C   0  0  0  0  0  0  0  0  0  0  0  0
    5.3611   -1.8170    0.0000 C   0  0  2  0  0  0  0  0  0  0  0  0
    4.5198    4.4760    0.0000 C   0  0  0  0  0  0  0  0  0  0  0  0
    3.4809    3.0902    0.0000 C   0  0  0  0  0  0  0  0  0  0  0  0
    5.6558   -2.7725    0.0000 C   0  0  2  0  0  0  0  0  0  0  0  0
    8.2445    3.2039    0.0000 C   0  0  0  0  0  0  0  0  0  0  0  0
    7.3109   -2.2620    0.0000 C   0  0  0  0  0  0  0  0  0  0  0  0
    6.6308   -2.9951    0.0000 C   0  0  0  0  0  0  0  0  0  0  0  0
    2.6807    3.6900    0.0000 C   0  0  0  0  0  0  0  0  0  0  0  0
    2.8001    4.6828    0.0000 C   0  0  0  0  0  0  0  0  0  0  0  0
    8.2858   -2.4845    0.0000 C   0  0  0  0  0  0  0  0  0  0  0  0
    9.5555   -3.6626    0.0000 C   0  0  1  0  0  0  0  0  0  0  0  0
   10.1790   -2.8808    0.0000 C   0  0  0  0  0  0  0  0  0  0  0  0
   11.5800   -4.6376    0.0000 C   0  0  1  0  0  0  0  0  0  0  0  0
    9.7781   -4.6376    0.0000 C   0  0  0  0  0  0  0  0  0  0  0  0
   11.8025   -3.6626    0.0000 C   0  0  0  0  0  0  0  0  0  0  0  0
   12.3618   -5.2610    0.0000 C   0  0  0  0  0  0  0  0  0  0  0  0
    6.9694    1.4148    0.0000 H   0  0  0  0  0  0  0  0  0  0  0  0
    7.0049    1.8038    0.0000 H   0  0  0  0  0  0  0  0  0  0  0  0
    5.7243    3.6230    0.0000 H   0  0  0  0  0  0  0  0  0  0  0  0
    4.6440    2.6102    0.0000 H   0  0  0  0  0  0  0  0  0  0  0  0
    5.8222    0.7427    0.0000 H   0  0  0  0  0  0  0  0  0  0  0  0
    5.4368   -0.9460    0.0000 H   0  0  0  0  0  0  0  0  0  0  0  0
    7.0876    4.2443    0.0000 H   0  0  0  0  0  0  0  0  0  0  0  0
    4.9394   -2.2715    0.0000 H   0  0  0  0  0  0  0  0  0  0  0  0
    3.4068    2.4746    0.0000 H   0  0  0  0  0  0  0  0  0  0  0  0
    5.8386   -3.3650    0.0000 H   0  0  0  0  0  0  0  0  0  0  0  0
    8.7768    2.8859    0.0000 H   0  0  0  0  0  0  0  0  0  0  0  0
    8.5625    3.7361    0.0000 H   0  0  0  0  0  0  0  0  0  0  0  0
    7.7123    3.5219    0.0000 H   0  0  0  0  0  0  0  0  0  0  0  0
    6.8135   -3.5875    0.0000 H   0  0  0  0  0  0  0  0  0  0  0  0
    8.6862    0.9773    0.0000 H   0  0  0  0  0  0  0  0  0  0  0  0
    7.8990    1.7077    0.0000 H   0  0  0  0  0  0  0  0  0  0  0  0
    3.7937    5.6914    0.0000 H   0  0  0  0  0  0  0  0  0  0  0  0
    2.1106    3.4463    0.0000 H   0  0  0  0  0  0  0  0  0  0  0  0
    3.9644   -2.0489    0.0000 H   0  0  0  0  0  0  0  0  0  0  0  0
    9.1171   -4.1010    0.0000 H   0  0  0  0  0  0  0  0  0  0  0  0
    5.1584   -4.0980    0.0000 H   0  0  0  0  0  0  0  0  0  0  0  0
    8.1589   -3.8946    0.0000 H   0  0  0  0  0  0  0  0  0  0  0  0
   10.3170   -2.2763    0.0000 H   0  0  0  0  0  0  0  0  0  0  0  0
    9.6204   -2.6118    0.0000 H   0  0  0  0  0  0  0  0  0  0  0  0
   11.5106   -5.2537    0.0000 H   0  0  0  0  0  0  0  0  0  0  0  0
   12.3611   -3.9316    0.0000 H   0  0  0  0  0  0  0  0  0  0  0  0
   12.1891   -3.1779    0.0000 H   0  0  0  0  0  0  0  0  0  0  0  0
   10.6790   -5.6914    0.0000 H   0  0  0  0  0  0  0  0  0  0  0  0
   11.9753   -5.7458    0.0000 H   0  0  0  0  0  0  0  0  0  0  0  0
   12.8466   -5.6476    0.0000 H   0  0  0  0  0  0  0  0  0  0  0  0
   12.7484   -4.7763    0.0000 H   0  0  0  0  0  0  0  0  0  0  0  0
  1 37  1  0  0  0  0
  1 40  1  0  0  0  0
  2 19  1  0  0  0  0
  2 22  1  0  0  0  0
 20  3  1  6  0  0  0
  3 30  1  0  0  0  0
 23  4  1  1  0  0  0
 24  4  1  1  0  0  0
 21  5  1  6  0  0  0
  5 48  1  0  0  0  0
  6 24  1  0  0  0  0
  6 31  1  0  0  0  0
 26  7  1  6  0  0  0
  7 60  1  0  0  0  0
  8 25  2  0  0  0  0
 29  9  1  6  0  0  0
  9 62  1  0  0  0  0
 10 27  2  0  0  0  0
 11 34  2  0  0  0  0
 12 35  2  0  0  0  0
 13 39  2  0  0  0  0
 22 14  1  1  0  0  0
 14 27  1  0  0  0  0
 14 28  1  0  0  0  0
 15 25  1  0  0  0  0
 15 56  1  0  0  0  0
 15 57  1  0  0  0  0
 16 27  1  0  0  0  0
 16 34  1  0  0  0  0
 16 58  1  0  0  0  0
 17 35  1  0  0  0  0
 36 17  1  1  0  0  0
 17 63  1  0  0  0  0
 18 38  1  0  0  0  0
 18 39  1  0  0  0  0
 18 69  1  0  0  0  0
 19 20  1  0  0  0  0
 19 23  1  0  0  0  0
 19 42  1  6  0  0  0
 20 21  1  0  0  0  0
 20 43  1  0  0  0  0
 21 22  1  0  0  0  0
 21 44  1  0  0  0  0
 22 45  1  0  0  0  0
 23 25  1  0  0  0  0
 23 46  1  0  0  0  0
 24 26  1  0  0  0  0
 24 47  1  0  0  0  0
 26 29  1  0  0  0  0
 26 49  1  0  0  0  0
 28 33  2  0  0  0  0
 28 50  1  0  0  0  0
 29 32  1  0  0  0  0
 29 51  1  0  0  0  0
 30 52  1  0  0  0  0
 30 53  1  0  0  0  0
 30 54  1  0  0  0  0
 31 32  2  0  0  0  0
 31 35  1  0  0  0  0
 32 55  1  0  0  0  0
 33 34  1  0  0  0  0
 33 59  1  0  0  0  0
 36 37  1  0  0  0  0
 36 39  1  0  0  0  0
 36 61  1  0  0  0  0
 37 64  1  0  0  0  0
 37 65  1  0  0  0  0
 38 40  1  0  0  0  0
 38 41  1  1  0  0  0
 38 66  1  0  0  0  0
 40 67  1  0  0  0  0
 40 68  1  0  0  0  0
 41 70  1  0  0  0  0
 41 71  1  0  0  0  0
 41 72  1  0  0  0  0
M  END
> <PUBCHEM_COMPOUND_CID>
505901
> <PUBCHEM_COMPOUND_CANONICALIZED>
1
> <PUBCHEM_CACTVS_COMPLEXITY>
1140
> <PUBCHEM_CACTVS_HBOND_ACCEPTOR>
13
> <PUBCHEM_CACTVS_HBOND_DONOR>
7
> <PUBCHEM_CACTVS_ROTATABLE_BOND>
8
> <PUBCHEM_CACTVS_SUBSKEYS>
AAADceB7vABAAAAAAAAAAAAAAAAAASAAAAAgQAAABYAAAAAAAAAAHgQQCAAACDz1wAeDCAPABgiIACFWUAKACAAgIhAICIHIAEiTVBYggCQ/UAAP9yK/EcP6fA5AAAAAAAAAAAAAAAAAAAAAAAAAAAAAAA==
> <PUBCHEM_IUPAC_OPENEYE_NAME>
(2S,3S,4S)-2-[(1S)-2-amino-1-[(2S,3S,4R,5R)-5-(2,4-dioxopyrimidin-1-yl)-4-hydroxy-3-methoxy-tetrahydrofuran-2-yl]-2-oxo-ethoxy]-3,4-dihydroxy-N-[(3R,6R)-3-methyl-5-oxo-1,4-thiazepan-6-yl]-3,4-dihydro-2H-pyran-6-carboxamide
> <PUBCHEM_IUPAC_CAS_NAME>
(2S,3S,4S)-2-[(1S)-2-amino-1-[(2S,3S,4R,5R)-5-(2,4-dioxo-1-pyrimidinyl)-4-hydroxy-3-methoxy-2-oxolanyl]-2-oxoethoxy]-3,4-dihydroxy-N-[(3R,6R)-3-methyl-5-oxo-1,4-thiazepan-6-yl]-3,4-dihydro-2H-pyran-6-carboxamide
> <PUBCHEM_IUPAC_NAME_MARKUP>
(2<I>S</I>,3<I>S</I>,4<I>S</I>)-2-[(1<I>S</I>)-2-amino-1-[(2<I>S</I>,3<I>S</I>,4<I>R</I>,5<I>R</I>)-5-(2,4-dioxopyrimidin-1-yl)-4-hydroxy-3-methoxyoxolan-2-yl]-2-oxoethoxy]-3,4-dihydroxy-<I>N</I>-[(3<I>R</I>,6<I>R</I>)-3-methyl-5-oxo-1,4-thiazepan-6-yl]-3,4-dihydro-2<I>H</I>-pyran-6-carboxamide
> <PUBCHEM_IUPAC_NAME>
(2S,3S,4S)-2-[(1S)-2-amino-1-[(2S,3S,4R,5R)-5-(2,4-dioxopyrimidin-1-yl)-4-hydroxy-3-methoxyoxolan-2-yl]-2-oxoethoxy]-3,4-dihydroxy-N-[(3R,6R)-3-methyl-5-oxo-1,4-thiazepan-6-yl]-3,4-dihydro-2H-pyran-6-carboxamide
> <PUBCHEM_IUPAC_SYSTEMATIC_NAME>
(2S,3S,4S)-2-[(1S)-2-azanyl-1-[(2S,3S,4R,5R)-5-[2,4-bis(oxidanylidene)pyrimidin-1-yl]-3-methoxy-4-oxidanyl-oxolan-2-yl]-2-oxidanylidene-ethoxy]-N-[(3R,6R)-3-methyl-5-oxidanylidene-1,4-thiazepan-6-yl]-3,4-bis(oxidanyl)-3,4-dihydro-2H-pyran-6-carboxamide
> <PUBCHEM_IUPAC_TRADITIONAL_NAME>
(2S,3S,4S)-2-[(1S)-2-amino-1-[(2S,3S,4R,5R)-5-(2,4-diketopyrimidin-1-yl)-4-hydroxy-3-methoxy-tetrahydrofuran-2-yl]-2-keto-ethoxy]-3,4-dihydroxy-N-[(3R,6R)-5-keto-3-methyl-1,4-thiazepan-6-yl]-3,4-dihydro-2H-pyran-6-carboxamide
> <PUBCHEM_IUPAC_INCHI>
InChI=1S/C23H31N5O12S/c1-8-6-41-7-9(19(34)25-8)26-20(35)11-5-10(29)13(31)22(38-11)40-17(18(24)33)16-15(37-2)14(32)21(39-16)28-4-3-12(30)27-23(28)36/h3-5,8-10,13-17,21-22,29,31-32H,6-7H2,1-2H3,(H2,24,33)(H,25,34)(H,26,35)(H,27,30,36)/t8-,9+,10+,13+,14-,15+,16+,17+,21-,22-/m1/s1
> <PUBCHEM_IUPAC_INCHIKEY>
CZGXONQQLSSPKM-UPPUPETESA-N
> <PUBCHEM_XLOGP3_AA>
-4.1
> <PUBCHEM_EXACT_MASS>
601.16899261
> <PUBCHEM_MOLECULAR_FORMULA>
C23H31N5O12S
> <PUBCHEM_MOLECULAR_WEIGHT>
601.6
> <PUBCHEM_OPENEYE_CAN_SMILES>
CC1CSCC(C(=O)N1)NC(=O)C2=CC(C(C(O2)OC(C3C(C(C(O3)N4C=CC(=O)NC4=O)O)OC)C(=O)N)O)O
> <PUBCHEM_OPENEYE_ISO_SMILES>
C[C@@H]1CSC[C@@H](C(=O)N1)NC(=O)C2=C[C@@H]([C@@H]([C@H](O2)O[C@@H]([C@@H]3[C@H]([C@H]([C@@H](O3)N4C=CC(=O)NC4=O)O)OC)C(=O)N)O)O
> <PUBCHEM_CACTVS_TPSA>
274
> <PUBCHEM_MONOISOTOPIC_WEIGHT>
601.16899261
> <PUBCHEM_TOTAL_CHARGE>
0
> <PUBCHEM_HEAVY_ATOM_COUNT>
41
> <PUBCHEM_ATOM_DEF_STEREO_COUNT>
10
> <PUBCHEM_ATOM_UDEF_STEREO_COUNT>
0
> <PUBCHEM_BOND_DEF_STEREO_COUNT>
0
> <PUBCHEM_BOND_UDEF_STEREO_COUNT>
0
> <PUBCHEM_ISOTOPIC_ATOM_COUNT>
0
> <PUBCHEM_COMPONENT_COUNT>
1
> <PUBCHEM_CACTVS_TAUTO_COUNT>
-1
> <PUBCHEM_COORDINATE_TYPE>
1
5
255
> <PUBCHEM_BONDANNOTATIONS>
22  14  5
14  27  8
14  28  8
16  27  8
16  34  8
36  17  5
19  42  6
28  33  8
20  3  6
33  34  8
38  41  5
23  4  5
24  4  5
21  5  6
26  7  6
29  9  6
$$$$
