505926
  -OEChem-10302200282D
 46 46  0     1  0  0  0  0  0999 V2000
    7.7331    0.8100    0.0000 O   0  0  0  0  0  0  0  0  0  0  0  0
    6.8671   -2.6900    0.0000 O   0  0  0  0  0  0  0  0  0  0  0  0
    5.1350   -2.6900    0.0000 O   0  0  0  0  0  0  0  0  0  0  0  0
    7.7331    1.8100    0.0000 O   0  0  0  0  0  0  0  0  0  0  0  0
    6.0010    1.8100    0.0000 N   0  0  0  0  0  0  0  0  0  0  0  0
    4.2690    0.8100    0.0000 N   0  0  0  0  0  0  0  0  0  0  0  0
    2.5369    0.8100    0.0000 N   0  0  0  0  0  0  0  0  0  0  0  0
    3.4030   -0.6900    0.0000 N   0  0  0  0  0  0  0  0  0  0  0  0
    6.0010    0.8100    0.0000 C   0  0  2  0  0  0  0  0  0  0  0  0
    5.1350    0.3100    0.0000 C   0  0  2  0  0  0  0  0  0  0  0  0
    6.8671    0.3100    0.0000 C   0  0  1  0  0  0  0  0  0  0  0  0
    5.1350   -0.6900    0.0000 C   0  0  0  0  0  0  0  0  0  0  0  0
    6.0010   -1.1900    0.0000 C   0  0  0  0  0  0  0  0  0  0  0  0
    6.8671   -0.6900    0.0000 C   0  0  0  0  0  0  0  0  0  0  0  0
    8.5991    0.3100    0.0000 C   0  0  0  0  0  0  0  0  0  0  0  0
    6.0010   -2.1900    0.0000 C   0  0  0  0  0  0  0  0  0  0  0  0
    6.8671    2.3100    0.0000 C   0  0  0  0  0  0  0  0  0  0  0  0
    3.4030    0.3100    0.0000 C   0  0  0  0  0  0  0  0  0  0  0  0
    9.4651    0.8100    0.0000 C   0  0  0  0  0  0  0  0  0  0  0  0
    6.8671    3.3100    0.0000 C   0  0  0  0  0  0  0  0  0  0  0  0
   10.3312    0.3100    0.0000 C   0  0  0  0  0  0  0  0  0  0  0  0
    2.5369   -1.1900    0.0000 C   0  0  0  0  0  0  0  0  0  0  0  0
    6.5380    1.1200    0.0000 H   0  0  0  0  0  0  0  0  0  0  0  0
    5.1350    0.9300    0.0000 H   0  0  0  0  0  0  0  0  0  0  0  0
    7.4040   -0.0000    0.0000 H   0  0  0  0  0  0  0  0  0  0  0  0
    4.5244   -0.5823    0.0000 H   0  0  0  0  0  0  0  0  0  0  0  0
    4.9230   -1.2726    0.0000 H   0  0  0  0  0  0  0  0  0  0  0  0
    7.4040   -1.0000    0.0000 H   0  0  0  0  0  0  0  0  0  0  0  0
    5.4641    2.1200    0.0000 H   0  0  0  0  0  0  0  0  0  0  0  0
    4.2690    1.4300    0.0000 H   0  0  0  0  0  0  0  0  0  0  0  0
    8.2006   -0.1649    0.0000 H   0  0  0  0  0  0  0  0  0  0  0  0
    8.9976   -0.1649    0.0000 H   0  0  0  0  0  0  0  0  0  0  0  0
    9.8637    1.2850    0.0000 H   0  0  0  0  0  0  0  0  0  0  0  0
    9.0666    1.2850    0.0000 H   0  0  0  0  0  0  0  0  0  0  0  0
    7.4871    3.3100    0.0000 H   0  0  0  0  0  0  0  0  0  0  0  0
    6.8671    3.9300    0.0000 H   0  0  0  0  0  0  0  0  0  0  0  0
    6.2471    3.3100    0.0000 H   0  0  0  0  0  0  0  0  0  0  0  0
   10.0212   -0.2269    0.0000 H   0  0  0  0  0  0  0  0  0  0  0  0
   10.8681   -0.0000    0.0000 H   0  0  0  0  0  0  0  0  0  0  0  0
   10.6412    0.8469    0.0000 H   0  0  0  0  0  0  0  0  0  0  0  0
    2.0000    0.5000    0.0000 H   0  0  0  0  0  0  0  0  0  0  0  0
    2.5369    1.4300    0.0000 H   0  0  0  0  0  0  0  0  0  0  0  0
    6.8671   -3.3100    0.0000 H   0  0  0  0  0  0  0  0  0  0  0  0
    2.2269   -0.6531    0.0000 H   0  0  0  0  0  0  0  0  0  0  0  0
    2.0000   -1.5000    0.0000 H   0  0  0  0  0  0  0  0  0  0  0  0
    2.8469   -1.7269    0.0000 H   0  0  0  0  0  0  0  0  0  0  0  0
 11  1  1  6  0  0  0
  1 15  1  0  0  0  0
  2 16  1  0  0  0  0
  2 43  1  0  0  0  0
  3 16  2  0  0  0  0
  4 17  2  0  0  0  0
  9  5  1  1  0  0  0
  5 17  1  0  0  0  0
  5 29  1  0  0  0  0
 10  6  1  6  0  0  0
  6 18  1  0  0  0  0
  6 30  1  0  0  0  0
  7 18  1  0  0  0  0
  7 41  1  0  0  0  0
  7 42  1  0  0  0  0
  8 18  2  0  0  0  0
  8 22  1  0  0  0  0
  9 10  1  0  0  0  0
  9 11  1  0  0  0  0
  9 23  1  0  0  0  0
 10 12  1  0  0  0  0
 10 24  1  0  0  0  0
 11 14  1  0  0  0  0
 11 25  1  0  0  0  0
 12 13  1  0  0  0  0
 12 26  1  0  0  0  0
 12 27  1  0  0  0  0
 13 14  2  0  0  0  0
 13 16  1  0  0  0  0
 14 28  1  0  0  0  0
 15 19  1  0  0  0  0
 15 31  1  0  0  0  0
 15 32  1  0  0  0  0
 17 20  1  0  0  0  0
 19 21  1  0  0  0  0
 19 33  1  0  0  0  0
 19 34  1  0  0  0  0
 20 35  1  0  0  0  0
 20 36  1  0  0  0  0
 20 37  1  0  0  0  0
 21 38  1  0  0  0  0
 21 39  1  0  0  0  0
 21 40  1  0  0  0  0
 22 44  1  0  0  0  0
 22 45  1  0  0  0  0
 22 46  1  0  0  0  0
M  END
> <PUBCHEM_COMPOUND_CID>
505926
> <PUBCHEM_COMPOUND_CANONICALIZED>
1
> <PUBCHEM_CACTVS_COMPLEXITY>
476
> <PUBCHEM_CACTVS_HBOND_ACCEPTOR>
5
> <PUBCHEM_CACTVS_HBOND_DONOR>
4
> <PUBCHEM_CACTVS_ROTATABLE_BOND>
7
> <PUBCHEM_CACTVS_SUBSKEYS>
AAADceBzuAAAAAAAAAAAAAAAAAAAAAAAAAAgAAAAAAAAAAAAAAAAHgAQCAAADDzhgAYDCALABgCoAiHSPAAAAAEgAAABCIEIAEiCRBIAqQAXUAAGlgKYMYO82SOQAAAAAAAAAAAAAAAAAAAAAAAAAAAAAA==
> <PUBCHEM_IUPAC_OPENEYE_NAME>
(3R,4R,5S)-4-acetamido-5-[(N'-methylcarbamimidoyl)amino]-3-propoxy-cyclohexene-1-carboxylic acid
> <PUBCHEM_IUPAC_CAS_NAME>
(3R,4R,5S)-4-acetamido-5-[[amino(methylimino)methyl]amino]-3-propoxy-1-cyclohexenecarboxylic acid
> <PUBCHEM_IUPAC_NAME_MARKUP>
(3<I>R</I>,4<I>R</I>,5<I>S</I>)-4-acetamido-5-[(<I>N</I>&apos;-methylcarbamimidoyl)amino]-3-propoxycyclohexene-1-carboxylic acid
> <PUBCHEM_IUPAC_NAME>
(3R,4R,5S)-4-acetamido-5-[(N'-methylcarbamimidoyl)amino]-3-propoxycyclohexene-1-carboxylic acid
> <PUBCHEM_IUPAC_SYSTEMATIC_NAME>
(3R,4R,5S)-4-acetamido-5-[(N'-methylcarbamimidoyl)amino]-3-propoxy-cyclohexene-1-carboxylic acid
> <PUBCHEM_IUPAC_TRADITIONAL_NAME>
(3R,4R,5S)-4-acetamido-5-[(N'-methylamidino)amino]-3-propoxy-cyclohexene-1-carboxylic acid
> <PUBCHEM_IUPAC_INCHI>
InChI=1S/C14H24N4O4/c1-4-5-22-11-7-9(13(20)21)6-10(18-14(15)16-3)12(11)17-8(2)19/h7,10-12H,4-6H2,1-3H3,(H,17,19)(H,20,21)(H3,15,16,18)/t10-,11+,12+/m0/s1
> <PUBCHEM_IUPAC_INCHIKEY>
ROGKFDGNMDXYMW-QJPTWQEYSA-N
> <PUBCHEM_XLOGP3_AA>
-0.7
> <PUBCHEM_EXACT_MASS>
312.17975526
> <PUBCHEM_MOLECULAR_FORMULA>
C14H24N4O4
> <PUBCHEM_MOLECULAR_WEIGHT>
312.36
> <PUBCHEM_OPENEYE_CAN_SMILES>
CCCOC1C=C(CC(C1NC(=O)C)NC(=NC)N)C(=O)O
> <PUBCHEM_OPENEYE_ISO_SMILES>
CCCO[C@@H]1C=C(C[C@@H]([C@H]1NC(=O)C)NC(=NC)N)C(=O)O
> <PUBCHEM_CACTVS_TPSA>
126
> <PUBCHEM_MONOISOTOPIC_WEIGHT>
312.17975526
> <PUBCHEM_TOTAL_CHARGE>
0
> <PUBCHEM_HEAVY_ATOM_COUNT>
22
> <PUBCHEM_ATOM_DEF_STEREO_COUNT>
3
> <PUBCHEM_ATOM_UDEF_STEREO_COUNT>
0
> <PUBCHEM_BOND_DEF_STEREO_COUNT>
0
> <PUBCHEM_BOND_UDEF_STEREO_COUNT>
0
> <PUBCHEM_ISOTOPIC_ATOM_COUNT>
0
> <PUBCHEM_COMPONENT_COUNT>
1
> <PUBCHEM_CACTVS_TAUTO_COUNT>
-1
> <PUBCHEM_COORDINATE_TYPE>
1
5
255
> <PUBCHEM_BONDANNOTATIONS>
11  1  6
9  5  5
10  6  6
$$$$
