505913
  -OEChem-10302200282D
 45 45  0     1  0  0  0  0  0999 V2000
    5.1350   -1.1160    0.0000 O   0  0  0  0  0  0  0  0  0  0  0  0
    6.0010    1.3840    0.0000 O   0  0  0  0  0  0  0  0  0  0  0  0
    6.8671   -1.1160    0.0000 O   0  0  0  0  0  0  0  0  0  0  0  0
    8.5991   -0.1160    0.0000 O   0  0  0  0  0  0  0  0  0  0  0  0
    2.7690    2.2501    0.0000 O   0  0  0  0  0  0  0  0  0  0  0  0
    4.2690    1.3840    0.0000 N   0  0  0  0  0  0  0  0  0  0  0  0
    2.5369    0.3840    0.0000 N   0  0  0  0  0  0  0  0  0  0  0  0
    4.2690    0.3840    0.0000 C   0  0  1  0  0  0  0  0  0  0  0  0
    5.1350   -0.1160    0.0000 C   0  0  2  0  0  0  0  0  0  0  0  0
    3.4030   -0.1160    0.0000 C   0  0  2  0  0  0  0  0  0  0  0  0
    6.0010    0.3840    0.0000 C   0  0  1  0  0  0  0  0  0  0  0  0
    6.8671   -0.1160    0.0000 C   0  0  1  0  0  0  0  0  0  0  0  0
    3.4030   -1.1160    0.0000 C   0  0  0  0  0  0  0  0  0  0  0  0
    4.2690   -1.6160    0.0000 C   0  0  0  0  0  0  0  0  0  0  0  0
    5.1350    1.8840    0.0000 C   0  0  0  0  0  0  0  0  0  0  0  0
    7.7331    0.3840    0.0000 C   0  0  0  0  0  0  0  0  0  0  0  0
    3.7690    2.2500    0.0000 C   0  0  0  0  0  0  0  0  0  0  0  0
    4.2690   -2.6160    0.0000 C   0  0  0  0  0  0  0  0  0  0  0  0
    4.2690    3.1160    0.0000 C   0  0  0  0  0  0  0  0  0  0  0  0
    3.4030   -3.1160    0.0000 C   0  0  0  0  0  0  0  0  0  0  0  0
    5.1350   -3.1160    0.0000 C   0  0  0  0  0  0  0  0  0  0  0  0
    4.8059    0.6940    0.0000 H   0  0  0  0  0  0  0  0  0  0  0  0
    5.8711   -0.5410    0.0000 H   0  0  0  0  0  0  0  0  0  0  0  0
    3.4030    0.5040    0.0000 H   0  0  0  0  0  0  0  0  0  0  0  0
    6.5380    0.6940    0.0000 H   0  0  0  0  0  0  0  0  0  0  0  0
    6.3301   -0.4260    0.0000 H   0  0  0  0  0  0  0  0  0  0  0  0
    2.8660   -1.4260    0.0000 H   0  0  0  0  0  0  0  0  0  0  0  0
    2.0000    0.0740    0.0000 H   0  0  0  0  0  0  0  0  0  0  0  0
    2.2269    0.9209    0.0000 H   0  0  0  0  0  0  0  0  0  0  0  0
    5.4450    1.3470    0.0000 H   0  0  0  0  0  0  0  0  0  0  0  0
    5.6720    2.1940    0.0000 H   0  0  0  0  0  0  0  0  0  0  0  0
    4.8250    2.4209    0.0000 H   0  0  0  0  0  0  0  0  0  0  0  0
    8.1316    0.8589    0.0000 H   0  0  0  0  0  0  0  0  0  0  0  0
    7.3346    0.8589    0.0000 H   0  0  0  0  0  0  0  0  0  0  0  0
    6.5380    1.6940    0.0000 H   0  0  0  0  0  0  0  0  0  0  0  0
    7.4040   -1.4260    0.0000 H   0  0  0  0  0  0  0  0  0  0  0  0
    4.8059    2.8060    0.0000 H   0  0  0  0  0  0  0  0  0  0  0  0
    4.5790    3.6530    0.0000 H   0  0  0  0  0  0  0  0  0  0  0  0
    3.7320    3.4260    0.0000 H   0  0  0  0  0  0  0  0  0  0  0  0
    3.0930   -2.5791    0.0000 H   0  0  0  0  0  0  0  0  0  0  0  0
    2.8660   -3.4260    0.0000 H   0  0  0  0  0  0  0  0  0  0  0  0
    3.7130   -3.6530    0.0000 H   0  0  0  0  0  0  0  0  0  0  0  0
    9.1360    0.1940    0.0000 H   0  0  0  0  0  0  0  0  0  0  0  0
    5.1350   -3.7360    0.0000 H   0  0  0  0  0  0  0  0  0  0  0  0
    5.6720   -2.8060    0.0000 H   0  0  0  0  0  0  0  0  0  0  0  0
  1  9  1  0  0  0  0
  1 14  1  0  0  0  0
 11  2  1  6  0  0  0
  2 35  1  0  0  0  0
 12  3  1  1  0  0  0
  3 36  1  0  0  0  0
  4 16  1  0  0  0  0
  4 43  1  0  0  0  0
  5 17  2  0  0  0  0
  8  6  1  1  0  0  0
  6 15  1  0  0  0  0
  6 17  1  0  0  0  0
 10  7  1  6  0  0  0
  7 28  1  0  0  0  0
  7 29  1  0  0  0  0
  8  9  1  0  0  0  0
  8 10  1  0  0  0  0
  8 22  1  0  0  0  0
  9 11  1  0  0  0  0
  9 23  1  1  0  0  0
 10 13  1  0  0  0  0
 10 24  1  0  0  0  0
 11 12  1  0  0  0  0
 11 25  1  0  0  0  0
 12 16  1  0  0  0  0
 12 26  1  0  0  0  0
 13 14  2  0  0  0  0
 13 27  1  0  0  0  0
 14 18  1  0  0  0  0
 15 30  1  0  0  0  0
 15 31  1  0  0  0  0
 15 32  1  0  0  0  0
 16 33  1  0  0  0  0
 16 34  1  0  0  0  0
 17 19  1  0  0  0  0
 18 20  1  0  0  0  0
 18 21  2  0  0  0  0
 19 37  1  0  0  0  0
 19 38  1  0  0  0  0
 19 39  1  0  0  0  0
 20 40  1  0  0  0  0
 20 41  1  0  0  0  0
 20 42  1  0  0  0  0
 21 44  1  0  0  0  0
 21 45  1  0  0  0  0
M  END
> <PUBCHEM_COMPOUND_CID>
505913
> <PUBCHEM_COMPOUND_CANONICALIZED>
1
> <PUBCHEM_CACTVS_COMPLEXITY>
437
> <PUBCHEM_CACTVS_HBOND_ACCEPTOR>
6
> <PUBCHEM_CACTVS_HBOND_DONOR>
4
> <PUBCHEM_CACTVS_ROTATABLE_BOND>
5
> <PUBCHEM_CACTVS_SUBSKEYS>
AAADceBzOAAAAAAAAAAAAAAAAAAAAAAAAAAgAAAAAAAAAAAAAAAAHgAQCAAADDzhgAYCAANABgCIAiFSEACACAAgIAAACIAIAAgLVAIAoQAXQAAHlgCboAPw0CMAAAAAAAAAAAAAAAAAAAAAAAAAAAAAAA==
> <PUBCHEM_IUPAC_OPENEYE_NAME>
N-[(2R,3R,4S)-4-amino-6-isopropenyl-2-[(1R,2R)-1,2,3-trihydroxypropyl]-3,4-dihydro-2H-pyran-3-yl]-N-methyl-acetamide
> <PUBCHEM_IUPAC_CAS_NAME>
N-[(2R,3R,4S)-4-amino-6-(1-methylethenyl)-2-[(1R,2R)-1,2,3-trihydroxypropyl]-3,4-dihydro-2H-pyran-3-yl]-N-methylacetamide
> <PUBCHEM_IUPAC_NAME_MARKUP>
<I>N</I>-[(2<I>R</I>,3<I>R</I>,4<I>S</I>)-4-amino-6-prop-1-en-2-yl-2-[(1<I>R</I>,2<I>R</I>)-1,2,3-trihydroxypropyl]-3,4-dihydro-2<I>H</I>-pyran-3-yl]-<I>N</I>-methylacetamide
> <PUBCHEM_IUPAC_NAME>
N-[(2R,3R,4S)-4-amino-6-prop-1-en-2-yl-2-[(1R,2R)-1,2,3-trihydroxypropyl]-3,4-dihydro-2H-pyran-3-yl]-N-methylacetamide
> <PUBCHEM_IUPAC_SYSTEMATIC_NAME>
N-[(2R,3R,4S)-4-azanyl-6-prop-1-en-2-yl-2-[(1R,2R)-1,2,3-tris(oxidanyl)propyl]-3,4-dihydro-2H-pyran-3-yl]-N-methyl-ethanamide
> <PUBCHEM_IUPAC_TRADITIONAL_NAME>
N-[(2R,3R,4S)-4-amino-6-isopropenyl-2-[(1R,2R)-1,2,3-trihydroxypropyl]-3,4-dihydro-2H-pyran-3-yl]-N-methyl-acetamide
> <PUBCHEM_IUPAC_INCHI>
InChI=1S/C14H24N2O5/c1-7(2)11-5-9(15)12(16(4)8(3)18)14(21-11)13(20)10(19)6-17/h5,9-10,12-14,17,19-20H,1,6,15H2,2-4H3/t9-,10+,12+,13+,14+/m0/s1
> <PUBCHEM_IUPAC_INCHIKEY>
AGAQOPWKHHVBQG-NRFQWKTPSA-N
> <PUBCHEM_XLOGP3_AA>
-1.4
> <PUBCHEM_EXACT_MASS>
300.16852187
> <PUBCHEM_MOLECULAR_FORMULA>
C14H24N2O5
> <PUBCHEM_MOLECULAR_WEIGHT>
300.35
> <PUBCHEM_OPENEYE_CAN_SMILES>
CC(=C)C1=CC(C(C(O1)C(C(CO)O)O)N(C)C(=O)C)N
> <PUBCHEM_OPENEYE_ISO_SMILES>
CC(=C)C1=C[C@@H]([C@H]([C@@H](O1)[C@@H]([C@@H](CO)O)O)N(C)C(=O)C)N
> <PUBCHEM_CACTVS_TPSA>
116
> <PUBCHEM_MONOISOTOPIC_WEIGHT>
300.16852187
> <PUBCHEM_TOTAL_CHARGE>
0
> <PUBCHEM_HEAVY_ATOM_COUNT>
21
> <PUBCHEM_ATOM_DEF_STEREO_COUNT>
5
> <PUBCHEM_ATOM_UDEF_STEREO_COUNT>
0
> <PUBCHEM_BOND_DEF_STEREO_COUNT>
0
> <PUBCHEM_BOND_UDEF_STEREO_COUNT>
0
> <PUBCHEM_ISOTOPIC_ATOM_COUNT>
0
> <PUBCHEM_COMPONENT_COUNT>
1
> <PUBCHEM_CACTVS_TAUTO_COUNT>
-1
> <PUBCHEM_COORDINATE_TYPE>
1
5
255
> <PUBCHEM_BONDANNOTATIONS>
11  2  6
12  3  5
8  6  5
10  7  6
9  23  5
$$$$
