505953
  -OEChem-10302200282D
 45 47  0     1  0  0  0  0  0999 V2000
    4.5981   -1.0427    0.0000 O   0  0  0  0  0  0  0  0  0  0  0  0
    4.5981    1.9573    0.0000 O   0  0  0  0  0  0  0  0  0  0  0  0
    8.0622   -1.0427    0.0000 N   0  0  3  0  0  0  0  0  0  0  0  0
    5.4641    0.4573    0.0000 N   0  0  0  0  0  0  0  0  0  0  0  0
    8.0622   -0.0427    0.0000 C   0  0  1  0  0  0  0  0  0  0  0  0
    8.9561   -1.5774    0.0000 C   0  0  1  0  0  0  0  0  0  0  0  0
    7.1962    0.4573    0.0000 C   0  0  0  0  0  0  0  0  0  0  0  0
    8.9561    0.4920    0.0000 C   0  0  0  0  0  0  0  0  0  0  0  0
    6.3301   -0.0427    0.0000 C   0  0  2  0  0  0  0  0  0  0  0  0
    7.1962   -1.5427    0.0000 C   0  0  0  0  0  0  0  0  0  0  0  0
    9.8622   -1.0635    0.0000 C   0  0  0  0  0  0  0  0  0  0  0  0
    6.3301   -1.0427    0.0000 C   0  0  0  0  0  0  0  0  0  0  0  0
    9.8622   -0.0219    0.0000 C   0  0  0  0  0  0  0  0  0  0  0  0
    8.9446   -2.5773    0.0000 C   0  0  0  0  0  0  0  0  0  0  0  0
    4.5981   -0.0427    0.0000 C   0  0  0  0  0  0  0  0  0  0  0  0
    3.7320    0.4573    0.0000 C   0  0  0  0  0  0  0  0  0  0  0  0
    3.7320    1.4573    0.0000 C   0  0  0  0  0  0  0  0  0  0  0  0
    2.8660   -0.0427    0.0000 C   0  0  0  0  0  0  0  0  0  0  0  0
    2.8660    1.9573    0.0000 C   0  0  0  0  0  0  0  0  0  0  0  0
    2.0000    0.4573    0.0000 C   0  0  0  0  0  0  0  0  0  0  0  0
    2.0000    1.4573    0.0000 C   0  0  0  0  0  0  0  0  0  0  0  0
    8.0556    0.8073    0.0000 H   0  0  0  0  0  0  0  0  0  0  0  0
    8.4151   -1.8801    0.0000 H   0  0  0  0  0  0  0  0  0  0  0  0
    7.5947    0.9322    0.0000 H   0  0  0  0  0  0  0  0  0  0  0  0
    6.7976    0.9322    0.0000 H   0  0  0  0  0  0  0  0  0  0  0  0
    9.3497    0.9710    0.0000 H   0  0  0  0  0  0  0  0  0  0  0  0
    8.5515    0.9617    0.0000 H   0  0  0  0  0  0  0  0  0  0  0  0
    5.7932   -0.3527    0.0000 H   0  0  0  0  0  0  0  0  0  0  0  0
    6.7976   -2.0176    0.0000 H   0  0  0  0  0  0  0  0  0  0  0  0
    7.5947   -2.0176    0.0000 H   0  0  0  0  0  0  0  0  0  0  0  0
   10.0712   -1.6472    0.0000 H   0  0  0  0  0  0  0  0  0  0  0  0
   10.4730   -0.9574    0.0000 H   0  0  0  0  0  0  0  0  0  0  0  0
    5.7196   -0.9350    0.0000 H   0  0  0  0  0  0  0  0  0  0  0  0
    6.1181   -1.6253    0.0000 H   0  0  0  0  0  0  0  0  0  0  0  0
   10.4730   -0.1280    0.0000 H   0  0  0  0  0  0  0  0  0  0  0  0
   10.0712    0.5618    0.0000 H   0  0  0  0  0  0  0  0  0  0  0  0
    8.3246   -2.5701    0.0000 H   0  0  0  0  0  0  0  0  0  0  0  0
    8.9374   -3.1973    0.0000 H   0  0  0  0  0  0  0  0  0  0  0  0
    9.5645   -2.5845    0.0000 H   0  0  0  0  0  0  0  0  0  0  0  0
    5.4641    1.0773    0.0000 H   0  0  0  0  0  0  0  0  0  0  0  0
    2.8660   -0.6627    0.0000 H   0  0  0  0  0  0  0  0  0  0  0  0
    2.8660    2.5773    0.0000 H   0  0  0  0  0  0  0  0  0  0  0  0
    1.4631    0.1473    0.0000 H   0  0  0  0  0  0  0  0  0  0  0  0
    1.4631    1.7673    0.0000 H   0  0  0  0  0  0  0  0  0  0  0  0
    4.5981    2.5773    0.0000 H   0  0  0  0  0  0  0  0  0  0  0  0
  1 15  2  0  0  0  0
  2 17  1  0  0  0  0
  2 45  1  0  0  0  0
  3  5  1  0  0  0  0
  3  6  1  0  0  0  0
  3 10  1  0  0  0  0
  9  4  1  6  0  0  0
  4 15  1  0  0  0  0
  4 40  1  0  0  0  0
  5  7  1  0  0  0  0
  5  8  1  0  0  0  0
  5 22  1  6  0  0  0
  6 11  1  0  0  0  0
  6 14  1  1  0  0  0
  6 23  1  0  0  0  0
  7  9  1  0  0  0  0
  7 24  1  0  0  0  0
  7 25  1  0  0  0  0
  8 13  1  0  0  0  0
  8 26  1  0  0  0  0
  8 27  1  0  0  0  0
  9 12  1  0  0  0  0
  9 28  1  0  0  0  0
 10 12  1  0  0  0  0
 10 29  1  0  0  0  0
 10 30  1  0  0  0  0
 11 13  1  0  0  0  0
 11 31  1  0  0  0  0
 11 32  1  0  0  0  0
 12 33  1  0  0  0  0
 12 34  1  0  0  0  0
 13 35  1  0  0  0  0
 13 36  1  0  0  0  0
 14 37  1  0  0  0  0
 14 38  1  0  0  0  0
 14 39  1  0  0  0  0
 15 16  1  0  0  0  0
 16 17  1  0  0  0  0
 16 18  2  0  0  0  0
 17 19  2  0  0  0  0
 18 20  1  0  0  0  0
 18 41  1  0  0  0  0
 19 21  1  0  0  0  0
 19 42  1  0  0  0  0
 20 21  2  0  0  0  0
 20 43  1  0  0  0  0
 21 44  1  0  0  0  0
M  END
> <PUBCHEM_COMPOUND_CID>
505953
> <PUBCHEM_COMPOUND_CANONICALIZED>
1
> <PUBCHEM_CACTVS_COMPLEXITY>
374
> <PUBCHEM_CACTVS_HBOND_ACCEPTOR>
3
> <PUBCHEM_CACTVS_HBOND_DONOR>
2
> <PUBCHEM_CACTVS_ROTATABLE_BOND>
2
> <PUBCHEM_CACTVS_SUBSKEYS>
AAADceB7MAAAAAAAAAAAAAAAAAAAAAAAAAA8WIAAAAAAAACxAAAAHgAQCAAADCzBmAQyBoPAAgCIAiFSEACCAAAkIAAIiIEODMgIJjaC1ROEcUhm9hGImYeYyKCOAAAAAAAIAAAAAAAAABAAAAAAAAAAAA==
> <PUBCHEM_IUPAC_OPENEYE_NAME>
N-[(2S,6R,9aR)-6-methyl-2,3,4,6,7,8,9,9a-octahydro-1H-quinolizin-2-yl]-2-hydroxy-benzamide
> <PUBCHEM_IUPAC_CAS_NAME>
N-[(2S,6R,9aR)-6-methyl-2,3,4,6,7,8,9,9a-octahydro-1H-quinolizin-2-yl]-2-hydroxybenzamide
> <PUBCHEM_IUPAC_NAME_MARKUP>
<I>N</I>-[(2<I>S</I>,6<I>R</I>,9<I>a</I><I>R</I>)-6-methyl-2,3,4,6,7,8,9,9<I>a</I>-octahydro-1<I>H</I>-quinolizin-2-yl]-2-hydroxybenzamide
> <PUBCHEM_IUPAC_NAME>
N-[(2S,6R,9aR)-6-methyl-2,3,4,6,7,8,9,9a-octahydro-1H-quinolizin-2-yl]-2-hydroxybenzamide
> <PUBCHEM_IUPAC_SYSTEMATIC_NAME>
N-[(2S,6R,9aR)-6-methyl-2,3,4,6,7,8,9,9a-octahydro-1H-quinolizin-2-yl]-2-oxidanyl-benzamide
> <PUBCHEM_IUPAC_TRADITIONAL_NAME>
N-[(2S,6R,9aR)-6-methylquinolizidin-2-yl]-2-hydroxy-benzamide
> <PUBCHEM_IUPAC_INCHI>
InChI=1S/C17H24N2O2/c1-12-5-4-6-14-11-13(9-10-19(12)14)18-17(21)15-7-2-3-8-16(15)20/h2-3,7-8,12-14,20H,4-6,9-11H2,1H3,(H,18,21)/t12-,13+,14-/m1/s1
> <PUBCHEM_IUPAC_INCHIKEY>
AVAGTMLUGRASBD-HZSPNIEDSA-N
> <PUBCHEM_XLOGP3_AA>
3.3
> <PUBCHEM_EXACT_MASS>
288.183778013
> <PUBCHEM_MOLECULAR_FORMULA>
C17H24N2O2
> <PUBCHEM_MOLECULAR_WEIGHT>
288.4
> <PUBCHEM_OPENEYE_CAN_SMILES>
CC1CCCC2N1CCC(C2)NC(=O)C3=CC=CC=C3O
> <PUBCHEM_OPENEYE_ISO_SMILES>
C[C@@H]1CCC[C@H]2N1CC[C@@H](C2)NC(=O)C3=CC=CC=C3O
> <PUBCHEM_CACTVS_TPSA>
52.6
> <PUBCHEM_MONOISOTOPIC_WEIGHT>
288.183778013
> <PUBCHEM_TOTAL_CHARGE>
0
> <PUBCHEM_HEAVY_ATOM_COUNT>
21
> <PUBCHEM_ATOM_DEF_STEREO_COUNT>
3
> <PUBCHEM_ATOM_UDEF_STEREO_COUNT>
0
> <PUBCHEM_BOND_DEF_STEREO_COUNT>
0
> <PUBCHEM_BOND_UDEF_STEREO_COUNT>
0
> <PUBCHEM_ISOTOPIC_ATOM_COUNT>
0
> <PUBCHEM_COMPONENT_COUNT>
1
> <PUBCHEM_CACTVS_TAUTO_COUNT>
-1
> <PUBCHEM_COORDINATE_TYPE>
1
5
255
> <PUBCHEM_BONDANNOTATIONS>
16  17  8
16  18  8
17  19  8
18  20  8
19  21  8
20  21  8
9  4  6
5  22  6
6  14  5
$$$$
