505996
  -OEChem-10302200282D
 83 88  0     1  0  0  0  0  0999 V2000
    5.7961   -2.1242    0.0000 O   0  0  0  0  0  0  0  0  0  0  0  0
    7.6430   -2.4026    0.0000 O   0  0  0  0  0  0  0  0  0  0  0  0
    7.3293    1.7825    0.0000 O   0  0  0  0  0  0  0  0  0  0  0  0
    8.0065    0.2304    0.0000 N   0  0  0  0  0  0  0  0  0  0  0  0
    6.2247    0.4989    0.0000 N   0  0  0  0  0  0  0  0  0  0  0  0
   12.4169   -1.0744    0.0000 N   0  0  0  0  0  0  0  0  0  0  0  0
   13.0005   -0.2696    0.0000 N   0  0  0  0  0  0  0  0  0  0  0  0
   12.7275    1.4856    0.0000 N   0  0  0  0  0  0  0  0  0  0  0  0
    5.8594   -0.4320    0.0000 C   0  0  1  0  0  0  0  0  0  0  0  0
    8.0813   -0.7669    0.0000 C   0  0  1  0  0  0  0  0  0  0  0  0
    6.3594   -1.2980    0.0000 C   0  0  1  0  0  0  0  0  0  0  0  0
    7.3482   -1.4470    0.0000 C   0  0  1  0  0  0  0  0  0  0  0  0
    4.8622   -0.5067    0.0000 C   0  0  0  0  0  0  0  0  0  0  0  0
    9.0121   -1.1322    0.0000 C   0  0  0  0  0  0  0  0  0  0  0  0
    7.1803    0.7937    0.0000 C   0  0  0  0  0  0  0  0  0  0  0  0
    8.8726    0.7304    0.0000 C   0  0  0  0  0  0  0  0  0  0  0  0
    5.5446    1.2320    0.0000 C   0  0  0  0  0  0  0  0  0  0  0  0
    4.4283   -1.4077    0.0000 C   0  0  0  0  0  0  0  0  0  0  0  0
    9.1612   -2.1210    0.0000 C   0  0  0  0  0  0  0  0  0  0  0  0
    9.7386    0.2304    0.0000 C   0  0  0  0  0  0  0  0  0  0  0  0
    5.8393    2.1875    0.0000 C   0  0  0  0  0  0  0  0  0  0  0  0
    3.4311   -1.4824    0.0000 C   0  0  0  0  0  0  0  0  0  0  0  0
    4.9916   -2.2339    0.0000 C   0  0  0  0  0  0  0  0  0  0  0  0
   10.0921   -2.4864    0.0000 C   0  0  0  0  0  0  0  0  0  0  0  0
    8.3794   -2.7445    0.0000 C   0  0  0  0  0  0  0  0  0  0  0  0
   10.6046    0.7304    0.0000 C   0  0  0  0  0  0  0  0  0  0  0  0
    9.7386   -0.7696    0.0000 C   0  0  0  0  0  0  0  0  0  0  0  0
    2.9972   -2.3834    0.0000 C   0  0  0  0  0  0  0  0  0  0  0  0
    4.5577   -3.1349    0.0000 C   0  0  0  0  0  0  0  0  0  0  0  0
    6.8142    2.4101    0.0000 C   0  0  0  0  0  0  0  0  0  0  0  0
    5.1591    2.9206    0.0000 C   0  0  0  0  0  0  0  0  0  0  0  0
   11.4706    0.2304    0.0000 C   0  0  0  0  0  0  0  0  0  0  0  0
    3.5605   -3.2096    0.0000 C   0  0  0  0  0  0  0  0  0  0  0  0
   10.2411   -3.4752    0.0000 C   0  0  0  0  0  0  0  0  0  0  0  0
    8.5284   -3.7334    0.0000 C   0  0  0  0  0  0  0  0  0  0  0  0
   10.6046   -1.2696    0.0000 C   0  0  0  0  0  0  0  0  0  0  0  0
   11.4706   -0.7696    0.0000 C   0  0  0  0  0  0  0  0  0  0  0  0
    9.4593   -4.0987    0.0000 C   0  0  0  0  0  0  0  0  0  0  0  0
    7.1090    3.3656    0.0000 C   0  0  0  0  0  0  0  0  0  0  0  0
    5.4539    3.8762    0.0000 C   0  0  0  0  0  0  0  0  0  0  0  0
    2.0000   -2.4581    0.0000 C   0  0  0  0  0  0  0  0  0  0  0  0
    5.1210   -3.9611    0.0000 C   0  0  0  0  0  0  0  0  0  0  0  0
   12.4169    0.5351    0.0000 C   0  0  0  0  0  0  0  0  0  0  0  0
    6.4288    4.0987    0.0000 C   0  0  0  0  0  0  0  0  0  0  0  0
    5.4912    0.0669    0.0000 H   0  0  0  0  0  0  0  0  0  0  0  0
    8.5801   -0.3987    0.0000 H   0  0  0  0  0  0  0  0  0  0  0  0
    6.6073   -1.8662    0.0000 H   0  0  0  0  0  0  0  0  0  0  0  0
    7.9471   -1.6075    0.0000 H   0  0  0  0  0  0  0  0  0  0  0  0
    4.9239    0.1102    0.0000 H   0  0  0  0  0  0  0  0  0  0  0  0
    4.2654   -0.3388    0.0000 H   0  0  0  0  0  0  0  0  0  0  0  0
    9.6319   -1.1476    0.0000 H   0  0  0  0  0  0  0  0  0  0  0  0
    9.1350   -0.5245    0.0000 H   0  0  0  0  0  0  0  0  0  0  0  0
    9.2711    1.2053    0.0000 H   0  0  0  0  0  0  0  0  0  0  0  0
    8.4740    1.2053    0.0000 H   0  0  0  0  0  0  0  0  0  0  0  0
    4.9928    1.5148    0.0000 H   0  0  0  0  0  0  0  0  0  0  0  0
    5.1702    0.7377    0.0000 H   0  0  0  0  0  0  0  0  0  0  0  0
    6.0651   -2.6828    0.0000 H   0  0  0  0  0  0  0  0  0  0  0  0
    7.2213   -2.8571    0.0000 H   0  0  0  0  0  0  0  0  0  0  0  0
    3.0818   -0.9701    0.0000 H   0  0  0  0  0  0  0  0  0  0  0  0
    5.6099   -2.1876    0.0000 H   0  0  0  0  0  0  0  0  0  0  0  0
   10.5768   -2.0998    0.0000 H   0  0  0  0  0  0  0  0  0  0  0  0
    7.8022   -2.5180    0.0000 H   0  0  0  0  0  0  0  0  0  0  0  0
   10.6046    1.3504    0.0000 H   0  0  0  0  0  0  0  0  0  0  0  0
    9.2017   -1.0796    0.0000 H   0  0  0  0  0  0  0  0  0  0  0  0
    7.2359    1.9556    0.0000 H   0  0  0  0  0  0  0  0  0  0  0  0
    4.5547    2.7826    0.0000 H   0  0  0  0  0  0  0  0  0  0  0  0
    3.2915   -3.7682    0.0000 H   0  0  0  0  0  0  0  0  0  0  0  0
   10.8182   -3.7017    0.0000 H   0  0  0  0  0  0  0  0  0  0  0  0
    8.0436   -4.1199    0.0000 H   0  0  0  0  0  0  0  0  0  0  0  0
   10.6046   -1.8896    0.0000 H   0  0  0  0  0  0  0  0  0  0  0  0
    9.5517   -4.7118    0.0000 H   0  0  0  0  0  0  0  0  0  0  0  0
    7.7134    3.5036    0.0000 H   0  0  0  0  0  0  0  0  0  0  0  0
    5.0322    4.3307    0.0000 H   0  0  0  0  0  0  0  0  0  0  0  0
    1.9537   -1.8398    0.0000 H   0  0  0  0  0  0  0  0  0  0  0  0
    1.3817   -2.5044    0.0000 H   0  0  0  0  0  0  0  0  0  0  0  0
    2.0463   -3.0764    0.0000 H   0  0  0  0  0  0  0  0  0  0  0  0
    4.6088   -4.3104    0.0000 H   0  0  0  0  0  0  0  0  0  0  0  0
    5.4703   -4.4734    0.0000 H   0  0  0  0  0  0  0  0  0  0  0  0
    5.6333   -3.6118    0.0000 H   0  0  0  0  0  0  0  0  0  0  0  0
    6.6116    4.6911    0.0000 H   0  0  0  0  0  0  0  0  0  0  0  0
   12.6095   -1.6637    0.0000 H   0  0  0  0  0  0  0  0  0  0  0  0
   13.3342    1.6135    0.0000 H   0  0  0  0  0  0  0  0  0  0  0  0
   12.3135    1.9471    0.0000 H   0  0  0  0  0  0  0  0  0  0  0  0
 11  1  1  1  0  0  0
  1 57  1  0  0  0  0
 12  2  1  6  0  0  0
  2 58  1  0  0  0  0
  3 15  2  0  0  0  0
  4 10  1  0  0  0  0
  4 15  1  0  0  0  0
  4 16  1  0  0  0  0
  5  9  1  0  0  0  0
  5 15  1  0  0  0  0
  5 17  1  0  0  0  0
  6  7  1  0  0  0  0
  6 37  1  0  0  0  0
  6 81  1  0  0  0  0
  7 43  2  0  0  0  0
  8 43  1  0  0  0  0
  8 82  1  0  0  0  0
  8 83  1  0  0  0  0
  9 11  1  0  0  0  0
  9 13  1  1  0  0  0
  9 45  1  0  0  0  0
 10 12  1  0  0  0  0
 10 14  1  6  0  0  0
 10 46  1  0  0  0  0
 11 12  1  0  0  0  0
 11 47  1  0  0  0  0
 12 48  1  0  0  0  0
 13 18  1  0  0  0  0
 13 49  1  0  0  0  0
 13 50  1  0  0  0  0
 14 19  1  0  0  0  0
 14 51  1  0  0  0  0
 14 52  1  0  0  0  0
 16 20  1  0  0  0  0
 16 53  1  0  0  0  0
 16 54  1  0  0  0  0
 17 21  1  0  0  0  0
 17 55  1  0  0  0  0
 17 56  1  0  0  0  0
 18 22  2  0  0  0  0
 18 23  1  0  0  0  0
 19 24  2  0  0  0  0
 19 25  1  0  0  0  0
 20 26  2  0  0  0  0
 20 27  1  0  0  0  0
 21 30  2  0  0  0  0
 21 31  1  0  0  0  0
 22 28  1  0  0  0  0
 22 59  1  0  0  0  0
 23 29  2  0  0  0  0
 23 60  1  0  0  0  0
 24 34  1  0  0  0  0
 24 61  1  0  0  0  0
 25 35  2  0  0  0  0
 25 62  1  0  0  0  0
 26 32  1  0  0  0  0
 26 63  1  0  0  0  0
 27 36  2  0  0  0  0
 27 64  1  0  0  0  0
 28 33  2  0  0  0  0
 28 41  1  0  0  0  0
 29 33  1  0  0  0  0
 29 42  1  0  0  0  0
 30 39  1  0  0  0  0
 30 65  1  0  0  0  0
 31 40  2  0  0  0  0
 31 66  1  0  0  0  0
 32 37  2  0  0  0  0
 32 43  1  0  0  0  0
 33 67  1  0  0  0  0
 34 38  2  0  0  0  0
 34 68  1  0  0  0  0
 35 38  1  0  0  0  0
 35 69  1  0  0  0  0
 36 37  1  0  0  0  0
 36 70  1  0  0  0  0
 38 71  1  0  0  0  0
 39 44  2  0  0  0  0
 39 72  1  0  0  0  0
 40 44  1  0  0  0  0
 40 73  1  0  0  0  0
 41 74  1  0  0  0  0
 41 75  1  0  0  0  0
 41 76  1  0  0  0  0
 42 77  1  0  0  0  0
 42 78  1  0  0  0  0
 42 79  1  0  0  0  0
 44 80  1  0  0  0  0
M  END
> <PUBCHEM_COMPOUND_CID>
505996
> <PUBCHEM_COMPOUND_CANONICALIZED>
1
> <PUBCHEM_CACTVS_COMPLEXITY>
915
> <PUBCHEM_CACTVS_HBOND_ACCEPTOR>
5
> <PUBCHEM_CACTVS_HBOND_DONOR>
4
> <PUBCHEM_CACTVS_ROTATABLE_BOND>
8
> <PUBCHEM_CACTVS_SUBSKEYS>
AAADcfB/sAAAAAAAAAAAAAAAAAAAAWAAAAAwYMGABYAAAFgB9AAAHgAYCAAADDzhngYz8PNjAgCqAyZicACSBAIgAgAcuSA4ZJiLMKKA0dGE5Ah+ngKZyAeQwPAOCAACAAACAAAQAAQAAAQAAAAAAAAAAA==
> <PUBCHEM_IUPAC_OPENEYE_NAME>
(4R,5S,6S,7R)-1-[(3-amino-1H-indazol-5-yl)methyl]-3,7-dibenzyl-4-[(3,5-dimethylphenyl)methyl]-5,6-dihydroxy-1,3-diazepan-2-one
> <PUBCHEM_IUPAC_CAS_NAME>
(4R,5S,6S,7R)-1-[(3-amino-1H-indazol-5-yl)methyl]-4-[(3,5-dimethylphenyl)methyl]-5,6-dihydroxy-3,7-bis(phenylmethyl)-1,3-diazepan-2-one
> <PUBCHEM_IUPAC_NAME_MARKUP>
(4<I>R</I>,5<I>S</I>,6<I>S</I>,7<I>R</I>)-1-[(3-amino-1<I>H</I>-indazol-5-yl)methyl]-3,7-dibenzyl-4-[(3,5-dimethylphenyl)methyl]-5,6-dihydroxy-1,3-diazepan-2-one
> <PUBCHEM_IUPAC_NAME>
(4R,5S,6S,7R)-1-[(3-amino-1H-indazol-5-yl)methyl]-3,7-dibenzyl-4-[(3,5-dimethylphenyl)methyl]-5,6-dihydroxy-1,3-diazepan-2-one
> <PUBCHEM_IUPAC_SYSTEMATIC_NAME>
(4R,5S,6S,7R)-1-[(3-azanyl-1H-indazol-5-yl)methyl]-4-[(3,5-dimethylphenyl)methyl]-5,6-bis(oxidanyl)-3,7-bis(phenylmethyl)-1,3-diazepan-2-one
> <PUBCHEM_IUPAC_TRADITIONAL_NAME>
(4R,5S,6S,7R)-1-[(3-amino-1H-indazol-5-yl)methyl]-3,7-dibenzyl-4-(3,5-dimethylbenzyl)-5,6-dihydroxy-1,3-diazepan-2-one
> <PUBCHEM_IUPAC_INCHI>
InChI=1S/C36H39N5O3/c1-23-15-24(2)17-28(16-23)20-32-34(43)33(42)31(19-25-9-5-3-6-10-25)41(36(44)40(32)21-26-11-7-4-8-12-26)22-27-13-14-30-29(18-27)35(37)39-38-30/h3-18,31-34,42-43H,19-22H2,1-2H3,(H3,37,38,39)/t31-,32-,33+,34+/m1/s1
> <PUBCHEM_IUPAC_INCHIKEY>
KEFCZHTZUCYPDK-WZJLIZBTSA-N
> <PUBCHEM_XLOGP3_AA>
5.3
> <PUBCHEM_EXACT_MASS>
589.30529012
> <PUBCHEM_MOLECULAR_FORMULA>
C36H39N5O3
> <PUBCHEM_MOLECULAR_WEIGHT>
589.7
> <PUBCHEM_OPENEYE_CAN_SMILES>
CC1=CC(=CC(=C1)CC2C(C(C(N(C(=O)N2CC3=CC=CC=C3)CC4=CC5=C(C=C4)NN=C5N)CC6=CC=CC=C6)O)O)C
> <PUBCHEM_OPENEYE_ISO_SMILES>
CC1=CC(=CC(=C1)C[C@@H]2[C@@H]([C@H]([C@H](N(C(=O)N2CC3=CC=CC=C3)CC4=CC5=C(C=C4)NN=C5N)CC6=CC=CC=C6)O)O)C
> <PUBCHEM_CACTVS_TPSA>
119
> <PUBCHEM_MONOISOTOPIC_WEIGHT>
589.30529012
> <PUBCHEM_TOTAL_CHARGE>
0
> <PUBCHEM_HEAVY_ATOM_COUNT>
44
> <PUBCHEM_ATOM_DEF_STEREO_COUNT>
4
> <PUBCHEM_ATOM_UDEF_STEREO_COUNT>
0
> <PUBCHEM_BOND_DEF_STEREO_COUNT>
0
> <PUBCHEM_BOND_UDEF_STEREO_COUNT>
0
> <PUBCHEM_ISOTOPIC_ATOM_COUNT>
0
> <PUBCHEM_COMPONENT_COUNT>
1
> <PUBCHEM_CACTVS_TAUTO_COUNT>
-1
> <PUBCHEM_COORDINATE_TYPE>
1
5
255
> <PUBCHEM_BONDANNOTATIONS>
11  1  5
10  14  6
18  22  8
18  23  8
19  24  8
19  25  8
12  2  6
20  26  8
20  27  8
21  30  8
21  31  8
22  28  8
23  29  8
24  34  8
25  35  8
26  32  8
27  36  8
28  33  8
29  33  8
30  39  8
31  40  8
32  37  8
32  43  8
34  38  8
35  38  8
36  37  8
39  44  8
40  44  8
6  37  8
6  7  8
7  43  8
9  13  5
$$$$
