505909
  -OEChem-10302200282D
 48 48  0     1  0  0  0  0  0999 V2000
    5.1350    2.0670    0.0000 S   0  0  0  0  0  0  0  0  0  0  0  0
    6.8671   -0.9330    0.0000 O   0  0  0  0  0  0  0  0  0  0  0  0
    7.7331    1.5670    0.0000 O   0  0  0  0  0  0  0  0  0  0  0  0
    8.5991   -0.9330    0.0000 O   0  0  0  0  0  0  0  0  0  0  0  0
   10.3312    0.0670    0.0000 O   0  0  0  0  0  0  0  0  0  0  0  0
    4.2690    2.5670    0.0000 O   0  0  0  0  0  0  0  0  0  0  0  0
    4.6350    1.2010    0.0000 O   0  0  0  0  0  0  0  0  0  0  0  0
    6.0010    1.5670    0.0000 N   0  0  0  0  0  0  0  0  0  0  0  0
    4.2690    0.5670    0.0000 N   0  0  0  0  0  0  0  0  0  0  0  0
    2.5369    0.5670    0.0000 N   0  0  0  0  0  0  0  0  0  0  0  0
    3.4030   -0.9330    0.0000 N   0  0  0  0  0  0  0  0  0  0  0  0
    6.0010    0.5670    0.0000 C   0  0  1  0  0  0  0  0  0  0  0  0
    6.8671    0.0670    0.0000 C   0  0  2  0  0  0  0  0  0  0  0  0
    7.7331    0.5670    0.0000 C   0  0  1  0  0  0  0  0  0  0  0  0
    5.1350    0.0670    0.0000 C   0  0  2  0  0  0  0  0  0  0  0  0
    8.5991    0.0670    0.0000 C   0  0  1  0  0  0  0  0  0  0  0  0
    5.1350   -0.9330    0.0000 C   0  0  0  0  0  0  0  0  0  0  0  0
    6.0010   -1.4330    0.0000 C   0  0  0  0  0  0  0  0  0  0  0  0
    9.4651    0.5670    0.0000 C   0  0  0  0  0  0  0  0  0  0  0  0
    6.0010   -2.4330    0.0000 C   0  0  0  0  0  0  0  0  0  0  0  0
    5.6350    2.9330    0.0000 C   0  0  0  0  0  0  0  0  0  0  0  0
    3.4030    0.0670    0.0000 C   0  0  0  0  0  0  0  0  0  0  0  0
    5.1350   -2.9330    0.0000 C   0  0  0  0  0  0  0  0  0  0  0  0
    6.8671   -2.9330    0.0000 C   0  0  0  0  0  0  0  0  0  0  0  0
    6.5380    0.8770    0.0000 H   0  0  0  0  0  0  0  0  0  0  0  0
    7.6032   -0.3580    0.0000 H   0  0  0  0  0  0  0  0  0  0  0  0
    8.2700    0.8770    0.0000 H   0  0  0  0  0  0  0  0  0  0  0  0
    5.1350    0.6870    0.0000 H   0  0  0  0  0  0  0  0  0  0  0  0
    8.0622   -0.2430    0.0000 H   0  0  0  0  0  0  0  0  0  0  0  0
    6.5380    1.8770    0.0000 H   0  0  0  0  0  0  0  0  0  0  0  0
    4.5981   -1.2430    0.0000 H   0  0  0  0  0  0  0  0  0  0  0  0
    9.8637    1.0419    0.0000 H   0  0  0  0  0  0  0  0  0  0  0  0
    9.0666    1.0419    0.0000 H   0  0  0  0  0  0  0  0  0  0  0  0
    8.2700    1.8770    0.0000 H   0  0  0  0  0  0  0  0  0  0  0  0
    6.1720    2.6230    0.0000 H   0  0  0  0  0  0  0  0  0  0  0  0
    5.9450    3.4700    0.0000 H   0  0  0  0  0  0  0  0  0  0  0  0
    5.0981    3.2430    0.0000 H   0  0  0  0  0  0  0  0  0  0  0  0
    9.1360   -1.2430    0.0000 H   0  0  0  0  0  0  0  0  0  0  0  0
    4.8250   -2.3961    0.0000 H   0  0  0  0  0  0  0  0  0  0  0  0
    4.5981   -3.2430    0.0000 H   0  0  0  0  0  0  0  0  0  0  0  0
    5.4450   -3.4700    0.0000 H   0  0  0  0  0  0  0  0  0  0  0  0
   10.8681    0.3770    0.0000 H   0  0  0  0  0  0  0  0  0  0  0  0
    6.8671   -3.5530    0.0000 H   0  0  0  0  0  0  0  0  0  0  0  0
    7.4040   -2.6230    0.0000 H   0  0  0  0  0  0  0  0  0  0  0  0
    2.0000    0.2570    0.0000 H   0  0  0  0  0  0  0  0  0  0  0  0
    2.5369    1.1870    0.0000 H   0  0  0  0  0  0  0  0  0  0  0  0
    2.8660   -1.2430    0.0000 H   0  0  0  0  0  0  0  0  0  0  0  0
    3.9399   -1.2430    0.0000 H   0  0  0  0  0  0  0  0  0  0  0  0
  1  6  2  0  0  0  0
  1  7  2  0  0  0  0
  1  8  1  0  0  0  0
  1 21  1  0  0  0  0
  2 13  1  0  0  0  0
  2 18  1  0  0  0  0
 14  3  1  6  0  0  0
  3 34  1  0  0  0  0
 16  4  1  1  0  0  0
  4 38  1  0  0  0  0
  5 19  1  0  0  0  0
  5 42  1  0  0  0  0
 12  8  1  1  0  0  0
  8 30  1  0  0  0  0
 15  9  1  6  0  0  0
  9 22  2  0  0  0  0
 10 22  1  0  0  0  0
 10 45  1  0  0  0  0
 10 46  1  0  0  0  0
 11 22  1  0  0  0  0
 11 47  1  0  0  0  0
 11 48  1  0  0  0  0
 12 13  1  0  0  0  0
 12 15  1  0  0  0  0
 12 25  1  0  0  0  0
 13 14  1  0  0  0  0
 13 26  1  1  0  0  0
 14 16  1  0  0  0  0
 14 27  1  0  0  0  0
 15 17  1  0  0  0  0
 15 28  1  0  0  0  0
 16 19  1  0  0  0  0
 16 29  1  0  0  0  0
 17 18  2  0  0  0  0
 17 31  1  0  0  0  0
 18 20  1  0  0  0  0
 19 32  1  0  0  0  0
 19 33  1  0  0  0  0
 20 23  1  0  0  0  0
 20 24  2  0  0  0  0
 21 35  1  0  0  0  0
 21 36  1  0  0  0  0
 21 37  1  0  0  0  0
 23 39  1  0  0  0  0
 23 40  1  0  0  0  0
 23 41  1  0  0  0  0
 24 43  1  0  0  0  0
 24 44  1  0  0  0  0
M  END
> <PUBCHEM_COMPOUND_CID>
505909
> <PUBCHEM_COMPOUND_CANONICALIZED>
1
> <PUBCHEM_CACTVS_COMPLEXITY>
623
> <PUBCHEM_CACTVS_HBOND_ACCEPTOR>
8
> <PUBCHEM_CACTVS_HBOND_DONOR>
6
> <PUBCHEM_CACTVS_ROTATABLE_BOND>
7
> <PUBCHEM_CACTVS_SUBSKEYS>
AAADceBzuABAAAAAAAAAAAAAAAAAAAAAAAAgAAAAAAAAAAAAAAAAHgQQSAAADDzhgAaDAAJABgKgAiBCJHCACAEgIAAACIAAAAgLVAIAoQADQAAHkAALoAPw0CEAAAAAAAAAAAAAAAAAAAAAAAAAAAAAAA==
> <PUBCHEM_IUPAC_OPENEYE_NAME>
2-[(2R,3R,4S)-6-isopropenyl-3-(methanesulfonamido)-2-[(1R,2R)-1,2,3-trihydroxypropyl]-3,4-dihydro-2H-pyran-4-yl]guanidine
> <PUBCHEM_IUPAC_CAS_NAME>
2-[(2R,3R,4S)-3-(methanesulfonamido)-6-(1-methylethenyl)-2-[(1R,2R)-1,2,3-trihydroxypropyl]-3,4-dihydro-2H-pyran-4-yl]guanidine
> <PUBCHEM_IUPAC_NAME_MARKUP>
2-[(2<I>R</I>,3<I>R</I>,4<I>S</I>)-3-(methanesulfonamido)-6-prop-1-en-2-yl-2-[(1<I>R</I>,2<I>R</I>)-1,2,3-trihydroxypropyl]-3,4-dihydro-2<I>H</I>-pyran-4-yl]guanidine
> <PUBCHEM_IUPAC_NAME>
2-[(2R,3R,4S)-3-(methanesulfonamido)-6-prop-1-en-2-yl-2-[(1R,2R)-1,2,3-trihydroxypropyl]-3,4-dihydro-2H-pyran-4-yl]guanidine
> <PUBCHEM_IUPAC_SYSTEMATIC_NAME>
2-[(2R,3R,4S)-3-(methylsulfonylamino)-6-prop-1-en-2-yl-2-[(1R,2R)-1,2,3-tris(oxidanyl)propyl]-3,4-dihydro-2H-pyran-4-yl]guanidine
> <PUBCHEM_IUPAC_TRADITIONAL_NAME>
2-[(2R,3R,4S)-6-isopropenyl-3-(methanesulfonamido)-2-[(1R,2R)-1,2,3-trihydroxypropyl]-3,4-dihydro-2H-pyran-4-yl]guanidine
> <PUBCHEM_IUPAC_INCHI>
InChI=1S/C13H24N4O6S/c1-6(2)9-4-7(16-13(14)15)10(17-24(3,21)22)12(23-9)11(20)8(19)5-18/h4,7-8,10-12,17-20H,1,5H2,2-3H3,(H4,14,15,16)/t7-,8+,10+,11+,12+/m0/s1
> <PUBCHEM_IUPAC_INCHIKEY>
NUCGXVGJMBPBKW-RULNCXCMSA-N
> <PUBCHEM_XLOGP3_AA>
-1.7
> <PUBCHEM_EXACT_MASS>
364.14165567
> <PUBCHEM_MOLECULAR_FORMULA>
C13H24N4O6S
> <PUBCHEM_MOLECULAR_WEIGHT>
364.42
> <PUBCHEM_OPENEYE_CAN_SMILES>
CC(=C)C1=CC(C(C(O1)C(C(CO)O)O)NS(=O)(=O)C)N=C(N)N
> <PUBCHEM_OPENEYE_ISO_SMILES>
CC(=C)C1=C[C@@H]([C@H]([C@@H](O1)[C@@H]([C@@H](CO)O)O)NS(=O)(=O)C)N=C(N)N
> <PUBCHEM_CACTVS_TPSA>
189
> <PUBCHEM_MONOISOTOPIC_WEIGHT>
364.14165567
> <PUBCHEM_TOTAL_CHARGE>
0
> <PUBCHEM_HEAVY_ATOM_COUNT>
24
> <PUBCHEM_ATOM_DEF_STEREO_COUNT>
5
> <PUBCHEM_ATOM_UDEF_STEREO_COUNT>
0
> <PUBCHEM_BOND_DEF_STEREO_COUNT>
0
> <PUBCHEM_BOND_UDEF_STEREO_COUNT>
0
> <PUBCHEM_ISOTOPIC_ATOM_COUNT>
0
> <PUBCHEM_COMPONENT_COUNT>
1
> <PUBCHEM_CACTVS_TAUTO_COUNT>
-1
> <PUBCHEM_COORDINATE_TYPE>
1
5
255
> <PUBCHEM_BONDANNOTATIONS>
13  26  5
14  3  6
16  4  5
12  8  5
15  9  6
$$$$
