505984
  -OEChem-10302200282D
 83 87  0     1  0  0  0  0  0999 V2000
   14.2619   -1.2990    0.0000 Cl  0  0  0  0  0  0  0  0  0  0  0  0
   11.2619   -3.0311    0.0000 F   0  0  0  0  0  0  0  0  0  0  0  0
    4.9889    3.9203    0.0000 O   0  0  0  0  0  0  0  0  0  0  0  0
    8.2619    2.1651    0.0000 O   0  0  0  0  0  0  0  0  0  0  0  0
    7.7619   -0.4330    0.0000 O   0  0  0  0  0  0  0  0  0  0  0  0
    9.7619    1.2990    0.0000 O   0  0  0  0  0  0  0  0  0  0  0  0
    6.2619    0.4330    0.0000 O   0  0  0  0  0  0  0  0  0  0  0  0
    9.2619   -1.2990    0.0000 O   0  0  0  0  0  0  0  0  0  0  0  0
   11.2619    0.4330    0.0000 O   0  0  0  0  0  0  0  0  0  0  0  0
    6.2619    2.1651    0.0000 N   0  0  0  0  0  0  0  0  0  0  0  0
   11.2619   -1.2990    0.0000 N   0  0  0  0  0  0  0  0  0  0  0  0
    5.2619    2.1651    0.0000 C   0  0  3  0  0  0  0  0  0  0  0  0
    4.6783    2.9698    0.0000 C   0  0  2  0  0  0  0  0  0  0  0  0
    4.6783    1.3603    0.0000 C   0  0  0  0  0  0  0  0  0  0  0  0
    3.7320    2.6651    0.0000 C   0  0  0  0  0  0  0  0  0  0  0  0
    3.7320    1.6651    0.0000 C   0  0  0  0  0  0  0  0  0  0  0  0
    7.7619    1.2990    0.0000 C   0  0  2  0  0  0  0  0  0  0  0  0
    8.2619    0.4330    0.0000 C   0  0  1  0  0  0  0  0  0  0  0  0
    6.7619    1.2990    0.0000 C   0  0  0  0  0  0  0  0  0  0  0  0
    2.8660    3.1651    0.0000 C   0  0  0  0  0  0  0  0  0  0  0  0
    2.8660    1.1651    0.0000 C   0  0  0  0  0  0  0  0  0  0  0  0
    9.2619    0.4330    0.0000 C   0  0  2  0  0  0  0  0  0  0  0  0
    9.7619   -0.4330    0.0000 C   0  0  2  0  0  0  0  0  0  0  0  0
    2.0000    2.6651    0.0000 C   0  0  0  0  0  0  0  0  0  0  0  0
    2.0000    1.6651    0.0000 C   0  0  0  0  0  0  0  0  0  0  0  0
   10.7619   -0.4330    0.0000 C   0  0  0  0  0  0  0  0  0  0  0  0
    9.2619    2.1651    0.0000 C   0  0  0  0  0  0  0  0  0  0  0  0
    9.7619   -2.1651    0.0000 C   0  0  0  0  0  0  0  0  0  0  0  0
    9.7619    3.0311    0.0000 C   0  0  0  0  0  0  0  0  0  0  0  0
   12.2619   -1.2990    0.0000 C   0  0  0  0  0  0  0  0  0  0  0  0
    9.2619   -3.0311    0.0000 C   0  0  0  0  0  0  0  0  0  0  0  0
    9.2619    3.8971    0.0000 C   0  0  0  0  0  0  0  0  0  0  0  0
   10.7619    3.0311    0.0000 C   0  0  0  0  0  0  0  0  0  0  0  0
   12.7619   -2.1651    0.0000 C   0  0  0  0  0  0  0  0  0  0  0  0
    8.2619   -3.0311    0.0000 C   0  0  0  0  0  0  0  0  0  0  0  0
    9.7619   -3.8971    0.0000 C   0  0  0  0  0  0  0  0  0  0  0  0
    9.7619    4.7631    0.0000 C   0  0  0  0  0  0  0  0  0  0  0  0
   11.2619    3.8971    0.0000 C   0  0  0  0  0  0  0  0  0  0  0  0
   10.7619    4.7631    0.0000 C   0  0  0  0  0  0  0  0  0  0  0  0
   13.7619   -2.1651    0.0000 C   0  0  0  0  0  0  0  0  0  0  0  0
   12.2619   -3.0311    0.0000 C   0  0  0  0  0  0  0  0  0  0  0  0
    7.7619   -3.8971    0.0000 C   0  0  0  0  0  0  0  0  0  0  0  0
    9.2619   -4.7631    0.0000 C   0  0  0  0  0  0  0  0  0  0  0  0
    8.2619   -4.7631    0.0000 C   0  0  0  0  0  0  0  0  0  0  0  0
   14.2619   -3.0311    0.0000 C   0  0  0  0  0  0  0  0  0  0  0  0
   12.7619   -3.8971    0.0000 C   0  0  0  0  0  0  0  0  0  0  0  0
   13.7619   -3.8971    0.0000 C   0  0  0  0  0  0  0  0  0  0  0  0
    5.5436    2.7174    0.0000 H   0  0  0  0  0  0  0  0  0  0  0  0
    5.2908    3.0660    0.0000 H   0  0  0  0  0  0  0  0  0  0  0  0
    4.4272    0.7934    0.0000 H   0  0  0  0  0  0  0  0  0  0  0  0
    5.2156    1.0511    0.0000 H   0  0  0  0  0  0  0  0  0  0  0  0
    6.5719    2.7020    0.0000 H   0  0  0  0  0  0  0  0  0  0  0  0
    7.4519    1.8360    0.0000 H   0  0  0  0  0  0  0  0  0  0  0  0
    8.5719   -0.1039    0.0000 H   0  0  0  0  0  0  0  0  0  0  0  0
    2.8660    3.7851    0.0000 H   0  0  0  0  0  0  0  0  0  0  0  0
    2.8660    0.5451    0.0000 H   0  0  0  0  0  0  0  0  0  0  0  0
    8.9519    0.9699    0.0000 H   0  0  0  0  0  0  0  0  0  0  0  0
    4.5749    4.3818    0.0000 H   0  0  0  0  0  0  0  0  0  0  0  0
   10.0719   -0.9699    0.0000 H   0  0  0  0  0  0  0  0  0  0  0  0
    1.4631    2.9751    0.0000 H   0  0  0  0  0  0  0  0  0  0  0  0
    1.4631    1.3551    0.0000 H   0  0  0  0  0  0  0  0  0  0  0  0
    8.0719   -0.9699    0.0000 H   0  0  0  0  0  0  0  0  0  0  0  0
    9.1542    1.5545    0.0000 H   0  0  0  0  0  0  0  0  0  0  0  0
    9.8445    1.9530    0.0000 H   0  0  0  0  0  0  0  0  0  0  0  0
   10.3819    1.2990    0.0000 H   0  0  0  0  0  0  0  0  0  0  0  0
   10.2368   -2.5636    0.0000 H   0  0  0  0  0  0  0  0  0  0  0  0
   10.2368   -1.7665    0.0000 H   0  0  0  0  0  0  0  0  0  0  0  0
   10.9519   -1.8360    0.0000 H   0  0  0  0  0  0  0  0  0  0  0  0
   12.8445   -1.0870    0.0000 H   0  0  0  0  0  0  0  0  0  0  0  0
   12.1542   -0.6885    0.0000 H   0  0  0  0  0  0  0  0  0  0  0  0
    8.6419    3.8971    0.0000 H   0  0  0  0  0  0  0  0  0  0  0  0
   11.0719    2.4942    0.0000 H   0  0  0  0  0  0  0  0  0  0  0  0
    7.9519   -2.4942    0.0000 H   0  0  0  0  0  0  0  0  0  0  0  0
   10.3819   -3.8971    0.0000 H   0  0  0  0  0  0  0  0  0  0  0  0
    9.4519    5.3001    0.0000 H   0  0  0  0  0  0  0  0  0  0  0  0
   11.8819    3.8971    0.0000 H   0  0  0  0  0  0  0  0  0  0  0  0
   11.0719    5.3001    0.0000 H   0  0  0  0  0  0  0  0  0  0  0  0
    7.1419   -3.8971    0.0000 H   0  0  0  0  0  0  0  0  0  0  0  0
    9.5719   -5.3001    0.0000 H   0  0  0  0  0  0  0  0  0  0  0  0
    7.9519   -5.3001    0.0000 H   0  0  0  0  0  0  0  0  0  0  0  0
   14.8819   -3.0311    0.0000 H   0  0  0  0  0  0  0  0  0  0  0  0
   12.4519   -4.4340    0.0000 H   0  0  0  0  0  0  0  0  0  0  0  0
   14.0719   -4.4340    0.0000 H   0  0  0  0  0  0  0  0  0  0  0  0
  1 40  1  0  0  0  0
  2 41  1  0  0  0  0
 13  3  1  6  0  0  0
  3 58  1  0  0  0  0
 17  4  1  6  0  0  0
  4 27  1  0  0  0  0
 18  5  1  1  0  0  0
  5 62  1  0  0  0  0
 22  6  1  1  0  0  0
  6 65  1  0  0  0  0
  7 19  2  0  0  0  0
 23  8  1  6  0  0  0
  8 28  1  0  0  0  0
  9 26  2  0  0  0  0
 10 12  1  0  0  0  0
 10 19  1  0  0  0  0
 10 52  1  0  0  0  0
 11 26  1  0  0  0  0
 11 30  1  0  0  0  0
 11 68  1  0  0  0  0
 12 13  1  0  0  0  0
 12 14  1  0  0  0  0
 12 48  1  0  0  0  0
 13 15  1  0  0  0  0
 13 49  1  0  0  0  0
 14 16  1  0  0  0  0
 14 50  1  0  0  0  0
 14 51  1  0  0  0  0
 15 16  1  0  0  0  0
 15 20  2  0  0  0  0
 16 21  2  0  0  0  0
 17 18  1  0  0  0  0
 17 19  1  0  0  0  0
 17 53  1  0  0  0  0
 18 22  1  0  0  0  0
 18 54  1  0  0  0  0
 20 24  1  0  0  0  0
 20 55  1  0  0  0  0
 21 25  1  0  0  0  0
 21 56  1  0  0  0  0
 22 23  1  0  0  0  0
 22 57  1  0  0  0  0
 23 26  1  0  0  0  0
 23 59  1  0  0  0  0
 24 25  2  0  0  0  0
 24 60  1  0  0  0  0
 25 61  1  0  0  0  0
 27 29  1  0  0  0  0
 27 63  1  0  0  0  0
 27 64  1  0  0  0  0
 28 31  1  0  0  0  0
 28 66  1  0  0  0  0
 28 67  1  0  0  0  0
 29 32  2  0  0  0  0
 29 33  1  0  0  0  0
 30 34  1  0  0  0  0
 30 69  1  0  0  0  0
 30 70  1  0  0  0  0
 31 35  2  0  0  0  0
 31 36  1  0  0  0  0
 32 37  1  0  0  0  0
 32 71  1  0  0  0  0
 33 38  2  0  0  0  0
 33 72  1  0  0  0  0
 34 40  1  0  0  0  0
 34 41  2  0  0  0  0
 35 42  1  0  0  0  0
 35 73  1  0  0  0  0
 36 43  2  0  0  0  0
 36 74  1  0  0  0  0
 37 39  2  0  0  0  0
 37 75  1  0  0  0  0
 38 39  1  0  0  0  0
 38 76  1  0  0  0  0
 39 77  1  0  0  0  0
 40 45  2  0  0  0  0
 41 46  1  0  0  0  0
 42 44  2  0  0  0  0
 42 78  1  0  0  0  0
 43 44  1  0  0  0  0
 43 79  1  0  0  0  0
 44 80  1  0  0  0  0
 45 47  1  0  0  0  0
 45 81  1  0  0  0  0
 46 47  2  0  0  0  0
 46 82  1  0  0  0  0
 47 83  1  0  0  0  0
M  END
> <PUBCHEM_COMPOUND_CID>
505984
> <PUBCHEM_COMPOUND_CANONICALIZED>
1
> <PUBCHEM_CACTVS_COMPLEXITY>
983
> <PUBCHEM_CACTVS_HBOND_ACCEPTOR>
8
> <PUBCHEM_CACTVS_HBOND_DONOR>
5
> <PUBCHEM_CACTVS_ROTATABLE_BOND>
14
> <PUBCHEM_CACTVS_SUBSKEYS>
AAADcfB/OQAEAAAAAAAAAAAAAAAAAYAAAAAwYMGAAAAAAGABVAAAHwIQCAAADD7hmC4wAILABgCIAiFSEAKCAAAgBQAIiIFIDogLNjaBsx2HcAhn9gGbuAf63KJOgAAAAAARAAAAAAAAACIAAKAADAgAAA==
> <PUBCHEM_IUPAC_OPENEYE_NAME>
(2R,3R,4R,5R)-2,5-dibenzyloxy-N-[(2-chloro-6-fluoro-phenyl)methyl]-3,4-dihydroxy-N'-[(1S)-1-hydroxyindan-2-yl]hexanediamide
> <PUBCHEM_IUPAC_CAS_NAME>
(2R,3R,4R,5R)-N-[(2-chloro-6-fluorophenyl)methyl]-3,4-dihydroxy-N'-[(1S)-1-hydroxy-2,3-dihydro-1H-inden-2-yl]-2,5-bis(phenylmethoxy)hexanediamide
> <PUBCHEM_IUPAC_NAME_MARKUP>
(2<I>R</I>,3<I>R</I>,4<I>R</I>,5<I>R</I>)-<I>N</I>-[(2-chloro-6-fluorophenyl)methyl]-3,4-dihydroxy-<I>N</I>&apos;-[(1<I>S</I>)-1-hydroxy-2,3-dihydro-1<I>H</I>-inden-2-yl]-2,5-bis(phenylmethoxy)hexanediamide
> <PUBCHEM_IUPAC_NAME>
(2R,3R,4R,5R)-N-[(2-chloro-6-fluorophenyl)methyl]-3,4-dihydroxy-N'-[(1S)-1-hydroxy-2,3-dihydro-1H-inden-2-yl]-2,5-bis(phenylmethoxy)hexanediamide
> <PUBCHEM_IUPAC_SYSTEMATIC_NAME>
(2R,3R,4R,5R)-N-[(2-chloranyl-6-fluoranyl-phenyl)methyl]-3,4-bis(oxidanyl)-N'-[(1S)-1-oxidanyl-2,3-dihydro-1H-inden-2-yl]-2,5-bis(phenylmethoxy)hexanediamide
> <PUBCHEM_IUPAC_TRADITIONAL_NAME>
(2R,3R,4R,5R)-2,5-dibenzoxy-N-(2-chloro-6-fluoro-benzyl)-3,4-dihydroxy-N'-[(1S)-1-hydroxyindan-2-yl]adipamide
> <PUBCHEM_IUPAC_INCHI>
InChI=1S/C36H36ClFN2O7/c37-27-16-9-17-28(38)26(27)19-39-35(44)33(46-20-22-10-3-1-4-11-22)31(42)32(43)34(47-21-23-12-5-2-6-13-23)36(45)40-29-18-24-14-7-8-15-25(24)30(29)41/h1-17,29-34,41-43H,18-21H2,(H,39,44)(H,40,45)/t29?,30-,31+,32+,33+,34+/m0/s1
> <PUBCHEM_IUPAC_INCHIKEY>
GYDBIPZCRMMYNA-ZAHXSODBSA-N
> <PUBCHEM_XLOGP3_AA>
4.2
> <PUBCHEM_EXACT_MASS>
662.2195073
> <PUBCHEM_MOLECULAR_FORMULA>
C36H36ClFN2O7
> <PUBCHEM_MOLECULAR_WEIGHT>
663.1
> <PUBCHEM_OPENEYE_CAN_SMILES>
C1C(C(C2=CC=CC=C21)O)NC(=O)C(C(C(C(C(=O)NCC3=C(C=CC=C3Cl)F)OCC4=CC=CC=C4)O)O)OCC5=CC=CC=C5
> <PUBCHEM_OPENEYE_ISO_SMILES>
C1C([C@H](C2=CC=CC=C21)O)NC(=O)[C@@H]([C@@H]([C@H]([C@H](C(=O)NCC3=C(C=CC=C3Cl)F)OCC4=CC=CC=C4)O)O)OCC5=CC=CC=C5
> <PUBCHEM_CACTVS_TPSA>
137
> <PUBCHEM_MONOISOTOPIC_WEIGHT>
662.2195073
> <PUBCHEM_TOTAL_CHARGE>
0
> <PUBCHEM_HEAVY_ATOM_COUNT>
47
> <PUBCHEM_ATOM_DEF_STEREO_COUNT>
5
> <PUBCHEM_ATOM_UDEF_STEREO_COUNT>
1
> <PUBCHEM_BOND_DEF_STEREO_COUNT>
0
> <PUBCHEM_BOND_UDEF_STEREO_COUNT>
0
> <PUBCHEM_ISOTOPIC_ATOM_COUNT>
0
> <PUBCHEM_COMPONENT_COUNT>
1
> <PUBCHEM_CACTVS_TAUTO_COUNT>
-1
> <PUBCHEM_COORDINATE_TYPE>
1
5
255
> <PUBCHEM_BONDANNOTATIONS>
12  10  3
15  16  8
15  20  8
16  21  8
20  24  8
21  25  8
24  25  8
29  32  8
29  33  8
13  3  6
31  35  8
31  36  8
32  37  8
33  38  8
34  40  8
34  41  8
35  42  8
36  43  8
37  39  8
38  39  8
17  4  6
40  45  8
41  46  8
42  44  8
43  44  8
45  47  8
46  47  8
18  5  5
22  6  5
23  8  6
$$$$
