505967
  -OEChem-10302200282D
 55 58  0     1  0  0  0  0  0999 V2000
    7.1962   -1.0427    0.0000 O   0  0  0  0  0  0  0  0  0  0  0  0
    7.1962    1.9573    0.0000 O   0  0  0  0  0  0  0  0  0  0  0  0
   10.6603   -1.0427    0.0000 N   0  0  3  0  0  0  0  0  0  0  0  0
    8.0622    0.4573    0.0000 N   0  0  0  0  0  0  0  0  0  0  0  0
   10.6603   -0.0427    0.0000 C   0  0  1  0  0  0  0  0  0  0  0  0
   11.5542   -1.5774    0.0000 C   0  0  1  0  0  0  0  0  0  0  0  0
    9.7942    0.4573    0.0000 C   0  0  0  0  0  0  0  0  0  0  0  0
   11.5542    0.4920    0.0000 C   0  0  0  0  0  0  0  0  0  0  0  0
    8.9282   -0.0427    0.0000 C   0  0  2  0  0  0  0  0  0  0  0  0
    9.7942   -1.5427    0.0000 C   0  0  0  0  0  0  0  0  0  0  0  0
   12.4603   -1.0635    0.0000 C   0  0  0  0  0  0  0  0  0  0  0  0
    8.9282   -1.0427    0.0000 C   0  0  0  0  0  0  0  0  0  0  0  0
   12.4603   -0.0219    0.0000 C   0  0  0  0  0  0  0  0  0  0  0  0
   11.5426   -2.5773    0.0000 C   0  0  0  0  0  0  0  0  0  0  0  0
    7.1962   -0.0427    0.0000 C   0  0  0  0  0  0  0  0  0  0  0  0
    6.3301    0.4573    0.0000 C   0  0  0  0  0  0  0  0  0  0  0  0
    5.4641   -0.0427    0.0000 C   0  0  0  0  0  0  0  0  0  0  0  0
    6.3301    1.4573    0.0000 C   0  0  0  0  0  0  0  0  0  0  0  0
    4.5981    0.4573    0.0000 C   0  0  0  0  0  0  0  0  0  0  0  0
    5.4641    1.9573    0.0000 C   0  0  0  0  0  0  0  0  0  0  0  0
    4.5981    1.4573    0.0000 C   0  0  0  0  0  0  0  0  0  0  0  0
    3.7320   -0.0427    0.0000 C   0  0  0  0  0  0  0  0  0  0  0  0
    3.7320   -1.0427    0.0000 C   0  0  0  0  0  0  0  0  0  0  0  0
    2.8660    0.4573    0.0000 C   0  0  0  0  0  0  0  0  0  0  0  0
    2.8660   -1.5427    0.0000 C   0  0  0  0  0  0  0  0  0  0  0  0
    2.0000   -0.0427    0.0000 C   0  0  0  0  0  0  0  0  0  0  0  0
    2.0000   -1.0427    0.0000 C   0  0  0  0  0  0  0  0  0  0  0  0
   10.6537    0.8073    0.0000 H   0  0  0  0  0  0  0  0  0  0  0  0
   11.0131   -1.8801    0.0000 H   0  0  0  0  0  0  0  0  0  0  0  0
   10.1928    0.9322    0.0000 H   0  0  0  0  0  0  0  0  0  0  0  0
    9.3957    0.9322    0.0000 H   0  0  0  0  0  0  0  0  0  0  0  0
   11.9478    0.9710    0.0000 H   0  0  0  0  0  0  0  0  0  0  0  0
   11.1496    0.9617    0.0000 H   0  0  0  0  0  0  0  0  0  0  0  0
    8.9282    0.5773    0.0000 H   0  0  0  0  0  0  0  0  0  0  0  0
    9.3957   -2.0176    0.0000 H   0  0  0  0  0  0  0  0  0  0  0  0
   10.1928   -2.0176    0.0000 H   0  0  0  0  0  0  0  0  0  0  0  0
   12.6693   -1.6472    0.0000 H   0  0  0  0  0  0  0  0  0  0  0  0
   13.0711   -0.9574    0.0000 H   0  0  0  0  0  0  0  0  0  0  0  0
    8.3176   -0.9350    0.0000 H   0  0  0  0  0  0  0  0  0  0  0  0
    8.7162   -1.6253    0.0000 H   0  0  0  0  0  0  0  0  0  0  0  0
   13.0711   -0.1280    0.0000 H   0  0  0  0  0  0  0  0  0  0  0  0
   12.6693    0.5618    0.0000 H   0  0  0  0  0  0  0  0  0  0  0  0
   10.9227   -2.5701    0.0000 H   0  0  0  0  0  0  0  0  0  0  0  0
   11.5355   -3.1973    0.0000 H   0  0  0  0  0  0  0  0  0  0  0  0
   12.1626   -2.5845    0.0000 H   0  0  0  0  0  0  0  0  0  0  0  0
    8.0622    1.0773    0.0000 H   0  0  0  0  0  0  0  0  0  0  0  0
    5.4641   -0.6627    0.0000 H   0  0  0  0  0  0  0  0  0  0  0  0
    5.4641    2.5773    0.0000 H   0  0  0  0  0  0  0  0  0  0  0  0
    4.0611    1.7673    0.0000 H   0  0  0  0  0  0  0  0  0  0  0  0
    7.1962    2.5773    0.0000 H   0  0  0  0  0  0  0  0  0  0  0  0
    4.2690   -1.3527    0.0000 H   0  0  0  0  0  0  0  0  0  0  0  0
    2.8660    1.0773    0.0000 H   0  0  0  0  0  0  0  0  0  0  0  0
    2.8660   -2.1627    0.0000 H   0  0  0  0  0  0  0  0  0  0  0  0
    1.4631    0.2673    0.0000 H   0  0  0  0  0  0  0  0  0  0  0  0
    1.4631   -1.3527    0.0000 H   0  0  0  0  0  0  0  0  0  0  0  0
  1 15  2  0  0  0  0
  2 18  1  0  0  0  0
  2 50  1  0  0  0  0
  3  5  1  0  0  0  0
  3  6  1  0  0  0  0
  3 10  1  0  0  0  0
  9  4  1  6  0  0  0
  4 15  1  0  0  0  0
  4 46  1  0  0  0  0
  5  7  1  0  0  0  0
  5  8  1  0  0  0  0
  5 28  1  6  0  0  0
  6 11  1  0  0  0  0
  6 14  1  1  0  0  0
  6 29  1  0  0  0  0
  7  9  1  0  0  0  0
  7 30  1  0  0  0  0
  7 31  1  0  0  0  0
  8 13  1  0  0  0  0
  8 32  1  0  0  0  0
  8 33  1  0  0  0  0
  9 12  1  0  0  0  0
  9 34  1  0  0  0  0
 10 12  1  0  0  0  0
 10 35  1  0  0  0  0
 10 36  1  0  0  0  0
 11 13  1  0  0  0  0
 11 37  1  0  0  0  0
 11 38  1  0  0  0  0
 12 39  1  0  0  0  0
 12 40  1  0  0  0  0
 13 41  1  0  0  0  0
 13 42  1  0  0  0  0
 14 43  1  0  0  0  0
 14 44  1  0  0  0  0
 14 45  1  0  0  0  0
 15 16  1  0  0  0  0
 16 17  1  0  0  0  0
 16 18  2  0  0  0  0
 17 19  2  0  0  0  0
 17 47  1  0  0  0  0
 18 20  1  0  0  0  0
 19 21  1  0  0  0  0
 19 22  1  0  0  0  0
 20 21  2  0  0  0  0
 20 48  1  0  0  0  0
 21 49  1  0  0  0  0
 22 23  2  0  0  0  0
 22 24  1  0  0  0  0
 23 25  1  0  0  0  0
 23 51  1  0  0  0  0
 24 26  2  0  0  0  0
 24 52  1  0  0  0  0
 25 27  2  0  0  0  0
 25 53  1  0  0  0  0
 26 27  1  0  0  0  0
 26 54  1  0  0  0  0
 27 55  1  0  0  0  0
M  END
> <PUBCHEM_COMPOUND_CID>
505967
> <PUBCHEM_COMPOUND_CANONICALIZED>
1
> <PUBCHEM_CACTVS_COMPLEXITY>
505
> <PUBCHEM_CACTVS_HBOND_ACCEPTOR>
3
> <PUBCHEM_CACTVS_HBOND_DONOR>
2
> <PUBCHEM_CACTVS_ROTATABLE_BOND>
3
> <PUBCHEM_CACTVS_SUBSKEYS>
AAADceB7MAAAAAAAAAAAAAAAAAAAAAAAAAA8eIEAAAAAAACxQAAAHgAQCAAADCzBmAQyBoPAAgCIAiFSEACCAAAkIAAIiIEODMgIJjaC1ROEcUhm9hGImYeYyPCOoAACAAAIAABAAAQAABAAAAAAAAAAAA==
> <PUBCHEM_IUPAC_OPENEYE_NAME>
N-[(2S,6R,9aR)-6-methyl-2,3,4,6,7,8,9,9a-octahydro-1H-quinolizin-2-yl]-2-hydroxy-5-phenyl-benzamide
> <PUBCHEM_IUPAC_CAS_NAME>
N-[(2S,6R,9aR)-6-methyl-2,3,4,6,7,8,9,9a-octahydro-1H-quinolizin-2-yl]-2-hydroxy-5-phenylbenzamide
> <PUBCHEM_IUPAC_NAME_MARKUP>
<I>N</I>-[(2<I>S</I>,6<I>R</I>,9<I>a</I><I>R</I>)-6-methyl-2,3,4,6,7,8,9,9<I>a</I>-octahydro-1<I>H</I>-quinolizin-2-yl]-2-hydroxy-5-phenylbenzamide
> <PUBCHEM_IUPAC_NAME>
N-[(2S,6R,9aR)-6-methyl-2,3,4,6,7,8,9,9a-octahydro-1H-quinolizin-2-yl]-2-hydroxy-5-phenylbenzamide
> <PUBCHEM_IUPAC_SYSTEMATIC_NAME>
N-[(2S,6R,9aR)-6-methyl-2,3,4,6,7,8,9,9a-octahydro-1H-quinolizin-2-yl]-2-oxidanyl-5-phenyl-benzamide
> <PUBCHEM_IUPAC_TRADITIONAL_NAME>
N-[(2S,6R,9aR)-6-methylquinolizidin-2-yl]-2-hydroxy-5-phenyl-benzamide
> <PUBCHEM_IUPAC_INCHI>
InChI=1S/C23H28N2O2/c1-16-6-5-9-20-15-19(12-13-25(16)20)24-23(27)21-14-18(10-11-22(21)26)17-7-3-2-4-8-17/h2-4,7-8,10-11,14,16,19-20,26H,5-6,9,12-13,15H2,1H3,(H,24,27)/t16-,19+,20-/m1/s1
> <PUBCHEM_IUPAC_INCHIKEY>
FLXDHJNYWWMCKF-LSTHTHJFSA-N
> <PUBCHEM_XLOGP3_AA>
5
> <PUBCHEM_EXACT_MASS>
364.215078140
> <PUBCHEM_MOLECULAR_FORMULA>
C23H28N2O2
> <PUBCHEM_MOLECULAR_WEIGHT>
364.5
> <PUBCHEM_OPENEYE_CAN_SMILES>
CC1CCCC2N1CCC(C2)NC(=O)C3=C(C=CC(=C3)C4=CC=CC=C4)O
> <PUBCHEM_OPENEYE_ISO_SMILES>
C[C@@H]1CCC[C@H]2N1CC[C@@H](C2)NC(=O)C3=C(C=CC(=C3)C4=CC=CC=C4)O
> <PUBCHEM_CACTVS_TPSA>
52.6
> <PUBCHEM_MONOISOTOPIC_WEIGHT>
364.215078140
> <PUBCHEM_TOTAL_CHARGE>
0
> <PUBCHEM_HEAVY_ATOM_COUNT>
27
> <PUBCHEM_ATOM_DEF_STEREO_COUNT>
3
> <PUBCHEM_ATOM_UDEF_STEREO_COUNT>
0
> <PUBCHEM_BOND_DEF_STEREO_COUNT>
0
> <PUBCHEM_BOND_UDEF_STEREO_COUNT>
0
> <PUBCHEM_ISOTOPIC_ATOM_COUNT>
0
> <PUBCHEM_COMPONENT_COUNT>
1
> <PUBCHEM_CACTVS_TAUTO_COUNT>
-1
> <PUBCHEM_COORDINATE_TYPE>
1
5
255
> <PUBCHEM_BONDANNOTATIONS>
16  17  8
16  18  8
17  19  8
18  20  8
19  21  8
20  21  8
22  23  8
22  24  8
23  25  8
24  26  8
25  27  8
26  27  8
9  4  6
5  28  6
6  14  5
$$$$
