505974
  -OEChem-10302200282D
 67 70  0     1  0  0  0  0  0999 V2000
    5.5022    1.3314    0.0000 O   0  0  0  0  0  0  0  0  0  0  0  0
    6.3683    2.8314    0.0000 O   0  0  0  0  0  0  0  0  0  0  0  0
    3.7702   -1.6686    0.0000 N   0  0  3  0  0  0  0  0  0  0  0  0
    6.3683   -0.1686    0.0000 N   0  0  0  0  0  0  0  0  0  0  0  0
    4.6362   -2.1686    0.0000 C   0  0  1  0  0  0  0  0  0  0  0  0
    5.5022   -1.6686    0.0000 C   0  0  0  0  0  0  0  0  0  0  0  0
    2.8602   -2.1754    0.0000 C   0  0  1  0  0  0  0  0  0  0  0  0
    5.5022   -0.6686    0.0000 C   0  0  2  0  0  0  0  0  0  0  0  0
    4.6523   -3.2101    0.0000 C   0  0  0  0  0  0  0  0  0  0  0  0
    3.7702   -0.6686    0.0000 C   0  0  0  0  0  0  0  0  0  0  0  0
    4.6362   -0.1686    0.0000 C   0  0  0  0  0  0  0  0  0  0  0  0
    2.8522   -3.2170    0.0000 C   0  0  0  0  0  0  0  0  0  0  0  0
    3.7542   -3.7378    0.0000 C   0  0  0  0  0  0  0  0  0  0  0  0
    9.8603    0.7968    0.0000 C   0  0  0  0  0  0  0  0  0  0  0  0
    9.8603    2.8661    0.0000 C   0  0  0  0  0  0  0  0  0  0  0  0
   10.7663    1.3106    0.0000 C   0  0  0  0  0  0  0  0  0  0  0  0
   10.7663    2.3522    0.0000 C   0  0  0  0  0  0  0  0  0  0  0  0
    8.9663    1.3314    0.0000 C   0  0  0  0  0  0  0  0  0  0  0  0
    8.9663    2.3314    0.0000 C   0  0  0  0  0  0  0  0  0  0  0  0
    2.0000   -1.6654    0.0000 C   0  0  0  0  0  0  0  0  0  0  0  0
   10.3502   -0.0750    0.0000 C   0  0  0  0  0  0  0  0  0  0  0  0
    9.3503   -0.0634    0.0000 C   0  0  0  0  0  0  0  0  0  0  0  0
   10.3502    3.7378    0.0000 C   0  0  0  0  0  0  0  0  0  0  0  0
    9.3503    3.7263    0.0000 C   0  0  0  0  0  0  0  0  0  0  0  0
    8.1003    0.8314    0.0000 C   0  0  0  0  0  0  0  0  0  0  0  0
    7.2343    1.3314    0.0000 C   0  0  0  0  0  0  0  0  0  0  0  0
    6.3683    0.8314    0.0000 C   0  0  0  0  0  0  0  0  0  0  0  0
    8.1003    2.8314    0.0000 C   0  0  0  0  0  0  0  0  0  0  0  0
    7.2343    2.3314    0.0000 C   0  0  0  0  0  0  0  0  0  0  0  0
    5.3756   -2.5879    0.0000 H   0  0  0  0  0  0  0  0  0  0  0  0
    5.7143   -2.2512    0.0000 H   0  0  0  0  0  0  0  0  0  0  0  0
    6.1128   -1.5609    0.0000 H   0  0  0  0  0  0  0  0  0  0  0  0
    2.8686   -1.5555    0.0000 H   0  0  0  0  0  0  0  0  0  0  0  0
    5.5022   -0.0486    0.0000 H   0  0  0  0  0  0  0  0  0  0  0  0
    4.8703   -3.7905    0.0000 H   0  0  0  0  0  0  0  0  0  0  0  0
    5.2614   -3.0946    0.0000 H   0  0  0  0  0  0  0  0  0  0  0  0
    3.5581   -0.0860    0.0000 H   0  0  0  0  0  0  0  0  0  0  0  0
    3.1596   -0.7762    0.0000 H   0  0  0  0  0  0  0  0  0  0  0  0
    5.0347    0.3064    0.0000 H   0  0  0  0  0  0  0  0  0  0  0  0
    4.2377    0.3064    0.0000 H   0  0  0  0  0  0  0  0  0  0  0  0
    2.2421   -3.1062    0.0000 H   0  0  0  0  0  0  0  0  0  0  0  0
    2.6386   -3.7991    0.0000 H   0  0  0  0  0  0  0  0  0  0  0  0
    3.3569   -4.2138    0.0000 H   0  0  0  0  0  0  0  0  0  0  0  0
    4.1552   -4.2107    0.0000 H   0  0  0  0  0  0  0  0  0  0  0  0
   10.9754    0.7269    0.0000 H   0  0  0  0  0  0  0  0  0  0  0  0
   11.3772    1.4167    0.0000 H   0  0  0  0  0  0  0  0  0  0  0  0
   11.3772    2.2462    0.0000 H   0  0  0  0  0  0  0  0  0  0  0  0
   10.9754    2.9359    0.0000 H   0  0  0  0  0  0  0  0  0  0  0  0
    2.3162   -1.1321    0.0000 H   0  0  0  0  0  0  0  0  0  0  0  0
    1.4667   -1.3492    0.0000 H   0  0  0  0  0  0  0  0  0  0  0  0
    1.6838   -2.1988    0.0000 H   0  0  0  0  0  0  0  0  0  0  0  0
    6.9052   -0.4786    0.0000 H   0  0  0  0  0  0  0  0  0  0  0  0
    9.8098   -0.3788    0.0000 H   0  0  0  0  0  0  0  0  0  0  0  0
   10.6540   -0.6155    0.0000 H   0  0  0  0  0  0  0  0  0  0  0  0
   10.8907    0.2288    0.0000 H   0  0  0  0  0  0  0  0  0  0  0  0
    8.8170    0.2528    0.0000 H   0  0  0  0  0  0  0  0  0  0  0  0
    9.0341   -0.5967    0.0000 H   0  0  0  0  0  0  0  0  0  0  0  0
    9.8836   -0.3796    0.0000 H   0  0  0  0  0  0  0  0  0  0  0  0
   10.8907    3.4341    0.0000 H   0  0  0  0  0  0  0  0  0  0  0  0
   10.6540    4.2783    0.0000 H   0  0  0  0  0  0  0  0  0  0  0  0
    9.8098    4.0416    0.0000 H   0  0  0  0  0  0  0  0  0  0  0  0
    9.8836    4.0425    0.0000 H   0  0  0  0  0  0  0  0  0  0  0  0
    9.0341    4.2596    0.0000 H   0  0  0  0  0  0  0  0  0  0  0  0
    8.8170    3.4101    0.0000 H   0  0  0  0  0  0  0  0  0  0  0  0
    8.1003    0.2114    0.0000 H   0  0  0  0  0  0  0  0  0  0  0  0
    8.1003    3.4514    0.0000 H   0  0  0  0  0  0  0  0  0  0  0  0
    6.3683    3.4514    0.0000 H   0  0  0  0  0  0  0  0  0  0  0  0
  1 27  2  0  0  0  0
  2 29  1  0  0  0  0
  2 67  1  0  0  0  0
  3  5  1  0  0  0  0
  3  7  1  0  0  0  0
  3 10  1  0  0  0  0
  8  4  1  6  0  0  0
  4 27  1  0  0  0  0
  4 52  1  0  0  0  0
  5  6  1  0  0  0  0
  5  9  1  0  0  0  0
  5 30  1  6  0  0  0
  6  8  1  0  0  0  0
  6 31  1  0  0  0  0
  6 32  1  0  0  0  0
  7 12  1  0  0  0  0
  7 20  1  1  0  0  0
  7 33  1  0  0  0  0
  8 11  1  0  0  0  0
  8 34  1  0  0  0  0
  9 13  1  0  0  0  0
  9 35  1  0  0  0  0
  9 36  1  0  0  0  0
 10 11  1  0  0  0  0
 10 37  1  0  0  0  0
 10 38  1  0  0  0  0
 11 39  1  0  0  0  0
 11 40  1  0  0  0  0
 12 13  1  0  0  0  0
 12 41  1  0  0  0  0
 12 42  1  0  0  0  0
 13 43  1  0  0  0  0
 13 44  1  0  0  0  0
 14 16  1  0  0  0  0
 14 18  1  0  0  0  0
 14 21  1  0  0  0  0
 14 22  1  0  0  0  0
 15 17  1  0  0  0  0
 15 19  1  0  0  0  0
 15 23  1  0  0  0  0
 15 24  1  0  0  0  0
 16 17  1  0  0  0  0
 16 45  1  0  0  0  0
 16 46  1  0  0  0  0
 17 47  1  0  0  0  0
 17 48  1  0  0  0  0
 18 19  2  0  0  0  0
 18 25  1  0  0  0  0
 19 28  1  0  0  0  0
 20 49  1  0  0  0  0
 20 50  1  0  0  0  0
 20 51  1  0  0  0  0
 21 53  1  0  0  0  0
 21 54  1  0  0  0  0
 21 55  1  0  0  0  0
 22 56  1  0  0  0  0
 22 57  1  0  0  0  0
 22 58  1  0  0  0  0
 23 59  1  0  0  0  0
 23 60  1  0  0  0  0
 23 61  1  0  0  0  0
 24 62  1  0  0  0  0
 24 63  1  0  0  0  0
 24 64  1  0  0  0  0
 25 26  2  0  0  0  0
 25 65  1  0  0  0  0
 26 27  1  0  0  0  0
 26 29  1  0  0  0  0
 28 29  2  0  0  0  0
 28 66  1  0  0  0  0
M  END
> <PUBCHEM_COMPOUND_CID>
505974
> <PUBCHEM_COMPOUND_CANONICALIZED>
1
> <PUBCHEM_CACTVS_COMPLEXITY>
616
> <PUBCHEM_CACTVS_HBOND_ACCEPTOR>
3
> <PUBCHEM_CACTVS_HBOND_DONOR>
2
> <PUBCHEM_CACTVS_ROTATABLE_BOND>
2
> <PUBCHEM_CACTVS_SUBSKEYS>
AAADcfB7MAAAAAAAAAAAAAAAAAAAAAAAAAA8eIEAAAAAAADxAAAAHgAQCAAADizBmAQyBoPAAgCIAiFSEACCAAAkIAAAiIEODMgIJjaC1BOEcUhm9hGImYeYyPCP4AADAAAYAADAAAYAADAAAAAAAAAAAA==
> <PUBCHEM_IUPAC_OPENEYE_NAME>
N-[(2S,6R,9aR)-6-methyl-2,3,4,6,7,8,9,9a-octahydro-1H-quinolizin-2-yl]-7-hydroxy-1,1,4,4-tetramethyl-tetralin-6-carboxamide
> <PUBCHEM_IUPAC_CAS_NAME>
N-[(2S,6R,9aR)-6-methyl-2,3,4,6,7,8,9,9a-octahydro-1H-quinolizin-2-yl]-3-hydroxy-5,5,8,8-tetramethyl-6,7-dihydronaphthalene-2-carboxamide
> <PUBCHEM_IUPAC_NAME_MARKUP>
<I>N</I>-[(2<I>S</I>,6<I>R</I>,9<I>a</I><I>R</I>)-6-methyl-2,3,4,6,7,8,9,9<I>a</I>-octahydro-1<I>H</I>-quinolizin-2-yl]-3-hydroxy-5,5,8,8-tetramethyl-6,7-dihydronaphthalene-2-carboxamide
> <PUBCHEM_IUPAC_NAME>
N-[(2S,6R,9aR)-6-methyl-2,3,4,6,7,8,9,9a-octahydro-1H-quinolizin-2-yl]-3-hydroxy-5,5,8,8-tetramethyl-6,7-dihydronaphthalene-2-carboxamide
> <PUBCHEM_IUPAC_SYSTEMATIC_NAME>
N-[(2S,6R,9aR)-6-methyl-2,3,4,6,7,8,9,9a-octahydro-1H-quinolizin-2-yl]-5,5,8,8-tetramethyl-3-oxidanyl-6,7-dihydronaphthalene-2-carboxamide
> <PUBCHEM_IUPAC_TRADITIONAL_NAME>
N-[(2S,6R,9aR)-6-methylquinolizidin-2-yl]-7-hydroxy-1,1,4,4-tetramethyl-tetralin-6-carboxamide
> <PUBCHEM_IUPAC_INCHI>
InChI=1S/C25H38N2O2/c1-16-7-6-8-18-13-17(9-12-27(16)18)26-23(29)19-14-20-21(15-22(19)28)25(4,5)11-10-24(20,2)3/h14-18,28H,6-13H2,1-5H3,(H,26,29)/t16-,17+,18-/m1/s1
> <PUBCHEM_IUPAC_INCHIKEY>
SQPKIVXQRFZKAR-FGTMMUONSA-N
> <PUBCHEM_XLOGP3_AA>
6.5
> <PUBCHEM_EXACT_MASS>
398.293328459
> <PUBCHEM_MOLECULAR_FORMULA>
C25H38N2O2
> <PUBCHEM_MOLECULAR_WEIGHT>
398.6
> <PUBCHEM_OPENEYE_CAN_SMILES>
CC1CCCC2N1CCC(C2)NC(=O)C3=CC4=C(C=C3O)C(CCC4(C)C)(C)C
> <PUBCHEM_OPENEYE_ISO_SMILES>
C[C@@H]1CCC[C@H]2N1CC[C@@H](C2)NC(=O)C3=CC4=C(C=C3O)C(CCC4(C)C)(C)C
> <PUBCHEM_CACTVS_TPSA>
52.6
> <PUBCHEM_MONOISOTOPIC_WEIGHT>
398.293328459
> <PUBCHEM_TOTAL_CHARGE>
0
> <PUBCHEM_HEAVY_ATOM_COUNT>
29
> <PUBCHEM_ATOM_DEF_STEREO_COUNT>
3
> <PUBCHEM_ATOM_UDEF_STEREO_COUNT>
0
> <PUBCHEM_BOND_DEF_STEREO_COUNT>
0
> <PUBCHEM_BOND_UDEF_STEREO_COUNT>
0
> <PUBCHEM_ISOTOPIC_ATOM_COUNT>
0
> <PUBCHEM_COMPONENT_COUNT>
1
> <PUBCHEM_CACTVS_TAUTO_COUNT>
-1
> <PUBCHEM_COORDINATE_TYPE>
1
5
255
> <PUBCHEM_BONDANNOTATIONS>
18  19  8
18  25  8
19  28  8
25  26  8
26  29  8
28  29  8
8  4  6
5  30  6
7  20  5
$$$$
