505997
  -OEChem-10302200282D
 79 83  0     1  0  0  0  0  0999 V2000
    5.0549   -0.1037    0.0000 O   0  0  0  0  0  0  0  0  0  0  0  0
    5.7373    1.6349    0.0000 O   0  0  0  0  0  0  0  0  0  0  0  0
    9.2049   -0.7292    0.0000 O   0  0  0  0  0  0  0  0  0  0  0  0
    7.5410   -1.0440    0.0000 N   0  0  0  0  0  0  0  0  0  0  0  0
    8.1993    0.6333    0.0000 N   0  0  0  0  0  0  0  0  0  0  0  0
   12.6096   -0.6714    0.0000 N   0  0  0  0  0  0  0  0  0  0  0  0
   13.1932    0.1333    0.0000 N   0  0  0  0  0  0  0  0  0  0  0  0
   12.9203    1.8886    0.0000 N   0  0  0  0  0  0  0  0  0  0  0  0
    6.5521   -0.8950    0.0000 C   0  0  1  0  0  0  0  0  0  0  0  0
    7.3730    1.1966    0.0000 C   0  0  1  0  0  0  0  0  0  0  0  0
    6.0521   -0.0290    0.0000 C   0  0  1  0  0  0  0  0  0  0  0  0
    6.4175    0.9019    0.0000 C   0  0  1  0  0  0  0  0  0  0  0  0
    5.9888   -1.7212    0.0000 C   0  0  0  0  0  0  0  0  0  0  0  0
    7.5221    2.1855    0.0000 C   0  0  0  0  0  0  0  0  0  0  0  0
    8.2740   -0.3639    0.0000 C   0  0  0  0  0  0  0  0  0  0  0  0
    7.8357   -1.9996    0.0000 C   0  0  0  0  0  0  0  0  0  0  0  0
    9.0653    1.1333    0.0000 C   0  0  0  0  0  0  0  0  0  0  0  0
    7.1556   -2.7327    0.0000 C   0  0  0  0  0  0  0  0  0  0  0  0
    4.9916   -1.6465    0.0000 C   0  0  0  0  0  0  0  0  0  0  0  0
    6.7403    2.8090    0.0000 C   0  0  0  0  0  0  0  0  0  0  0  0
    9.9313    0.6333    0.0000 C   0  0  0  0  0  0  0  0  0  0  0  0
    7.4503   -3.6882    0.0000 C   0  0  0  0  0  0  0  0  0  0  0  0
    4.5577   -0.7455    0.0000 C   0  0  0  0  0  0  0  0  0  0  0  0
    4.4283   -2.4728    0.0000 C   0  0  0  0  0  0  0  0  0  0  0  0
    5.8094    2.4436    0.0000 C   0  0  0  0  0  0  0  0  0  0  0  0
    6.8893    3.7978    0.0000 C   0  0  0  0  0  0  0  0  0  0  0  0
   10.7974    1.1333    0.0000 C   0  0  0  0  0  0  0  0  0  0  0  0
    9.9313   -0.3667    0.0000 C   0  0  0  0  0  0  0  0  0  0  0  0
    6.7701   -4.4213    0.0000 C   0  0  0  0  0  0  0  0  0  0  0  0
    3.5605   -0.6708    0.0000 C   0  0  0  0  0  0  0  0  0  0  0  0
    3.4311   -2.3980    0.0000 C   0  0  0  0  0  0  0  0  0  0  0  0
   11.6634    0.6333    0.0000 C   0  0  0  0  0  0  0  0  0  0  0  0
    2.9972   -1.4970    0.0000 C   0  0  0  0  0  0  0  0  0  0  0  0
    5.0276    3.0671    0.0000 C   0  0  0  0  0  0  0  0  0  0  0  0
    6.1075    4.4213    0.0000 C   0  0  0  0  0  0  0  0  0  0  0  0
   10.7974   -0.8667    0.0000 C   0  0  0  0  0  0  0  0  0  0  0  0
   11.6634   -0.3667    0.0000 C   0  0  0  0  0  0  0  0  0  0  0  0
    5.1766    4.0560    0.0000 C   0  0  0  0  0  0  0  0  0  0  0  0
   12.6096    0.9381    0.0000 C   0  0  0  0  0  0  0  0  0  0  0  0
    2.0000   -1.4223    0.0000 C   0  0  0  0  0  0  0  0  0  0  0  0
    6.8001   -1.4633    0.0000 H   0  0  0  0  0  0  0  0  0  0  0  0
    7.9413    1.4446    0.0000 H   0  0  0  0  0  0  0  0  0  0  0  0
    5.7624   -0.5771    0.0000 H   0  0  0  0  0  0  0  0  0  0  0  0
    5.8083    0.7866    0.0000 H   0  0  0  0  0  0  0  0  0  0  0  0
    5.8358   -2.3221    0.0000 H   0  0  0  0  0  0  0  0  0  0  0  0
    6.5540   -1.9762    0.0000 H   0  0  0  0  0  0  0  0  0  0  0  0
    8.1098    1.9880    0.0000 H   0  0  0  0  0  0  0  0  0  0  0  0
    7.8186    2.7300    0.0000 H   0  0  0  0  0  0  0  0  0  0  0  0
    8.2101   -2.4938    0.0000 H   0  0  0  0  0  0  0  0  0  0  0  0
    8.3874   -1.7168    0.0000 H   0  0  0  0  0  0  0  0  0  0  0  0
    9.4638    1.6083    0.0000 H   0  0  0  0  0  0  0  0  0  0  0  0
    8.6668    1.6083    0.0000 H   0  0  0  0  0  0  0  0  0  0  0  0
    6.7812   -2.2384    0.0000 H   0  0  0  0  0  0  0  0  0  0  0  0
    6.6038   -3.0155    0.0000 H   0  0  0  0  0  0  0  0  0  0  0  0
    4.7057    0.4086    0.0000 H   0  0  0  0  0  0  0  0  0  0  0  0
    5.1328    1.4970    0.0000 H   0  0  0  0  0  0  0  0  0  0  0  0
    7.8247   -4.1825    0.0000 H   0  0  0  0  0  0  0  0  0  0  0  0
    8.0020   -3.4054    0.0000 H   0  0  0  0  0  0  0  0  0  0  0  0
    4.9070   -0.2333    0.0000 H   0  0  0  0  0  0  0  0  0  0  0  0
    4.6973   -3.0314    0.0000 H   0  0  0  0  0  0  0  0  0  0  0  0
    5.7170    1.8306    0.0000 H   0  0  0  0  0  0  0  0  0  0  0  0
    7.4664    4.0243    0.0000 H   0  0  0  0  0  0  0  0  0  0  0  0
   10.7974    1.7533    0.0000 H   0  0  0  0  0  0  0  0  0  0  0  0
    9.3944   -0.6767    0.0000 H   0  0  0  0  0  0  0  0  0  0  0  0
    6.3156   -3.9996    0.0000 H   0  0  0  0  0  0  0  0  0  0  0  0
    6.3484   -4.8758    0.0000 H   0  0  0  0  0  0  0  0  0  0  0  0
    7.2246   -4.8430    0.0000 H   0  0  0  0  0  0  0  0  0  0  0  0
    3.2915   -0.1122    0.0000 H   0  0  0  0  0  0  0  0  0  0  0  0
    3.0818   -2.9103    0.0000 H   0  0  0  0  0  0  0  0  0  0  0  0
    4.4504    2.8406    0.0000 H   0  0  0  0  0  0  0  0  0  0  0  0
    6.1999    5.0344    0.0000 H   0  0  0  0  0  0  0  0  0  0  0  0
   10.7974   -1.4867    0.0000 H   0  0  0  0  0  0  0  0  0  0  0  0
    4.6919    4.4425    0.0000 H   0  0  0  0  0  0  0  0  0  0  0  0
    2.0463   -0.8041    0.0000 H   0  0  0  0  0  0  0  0  0  0  0  0
    1.3817   -1.3760    0.0000 H   0  0  0  0  0  0  0  0  0  0  0  0
    1.9537   -2.0406    0.0000 H   0  0  0  0  0  0  0  0  0  0  0  0
   12.8022   -1.2607    0.0000 H   0  0  0  0  0  0  0  0  0  0  0  0
   13.5269    2.0164    0.0000 H   0  0  0  0  0  0  0  0  0  0  0  0
   12.5062    2.3500    0.0000 H   0  0  0  0  0  0  0  0  0  0  0  0
 11  1  1  6  0  0  0
  1 55  1  0  0  0  0
 12  2  1  1  0  0  0
  2 56  1  0  0  0  0
  3 15  2  0  0  0  0
  4  9  1  0  0  0  0
  4 15  1  0  0  0  0
  4 16  1  0  0  0  0
  5 10  1  0  0  0  0
  5 15  1  0  0  0  0
  5 17  1  0  0  0  0
  6  7  1  0  0  0  0
  6 37  1  0  0  0  0
  6 77  1  0  0  0  0
  7 39  2  0  0  0  0
  8 39  1  0  0  0  0
  8 78  1  0  0  0  0
  8 79  1  0  0  0  0
  9 11  1  0  0  0  0
  9 13  1  6  0  0  0
  9 41  1  0  0  0  0
 10 12  1  0  0  0  0
 10 14  1  1  0  0  0
 10 42  1  0  0  0  0
 11 12  1  0  0  0  0
 11 43  1  0  0  0  0
 12 44  1  0  0  0  0
 13 19  1  0  0  0  0
 13 45  1  0  0  0  0
 13 46  1  0  0  0  0
 14 20  1  0  0  0  0
 14 47  1  0  0  0  0
 14 48  1  0  0  0  0
 16 18  1  0  0  0  0
 16 49  1  0  0  0  0
 16 50  1  0  0  0  0
 17 21  1  0  0  0  0
 17 51  1  0  0  0  0
 17 52  1  0  0  0  0
 18 22  1  0  0  0  0
 18 53  1  0  0  0  0
 18 54  1  0  0  0  0
 19 23  2  0  0  0  0
 19 24  1  0  0  0  0
 20 25  2  0  0  0  0
 20 26  1  0  0  0  0
 21 27  2  0  0  0  0
 21 28  1  0  0  0  0
 22 29  1  0  0  0  0
 22 57  1  0  0  0  0
 22 58  1  0  0  0  0
 23 30  1  0  0  0  0
 23 59  1  0  0  0  0
 24 31  2  0  0  0  0
 24 60  1  0  0  0  0
 25 34  1  0  0  0  0
 25 61  1  0  0  0  0
 26 35  2  0  0  0  0
 26 62  1  0  0  0  0
 27 32  1  0  0  0  0
 27 63  1  0  0  0  0
 28 36  2  0  0  0  0
 28 64  1  0  0  0  0
 29 65  1  0  0  0  0
 29 66  1  0  0  0  0
 29 67  1  0  0  0  0
 30 33  2  0  0  0  0
 30 68  1  0  0  0  0
 31 33  1  0  0  0  0
 31 69  1  0  0  0  0
 32 37  2  0  0  0  0
 32 39  1  0  0  0  0
 33 40  1  0  0  0  0
 34 38  2  0  0  0  0
 34 70  1  0  0  0  0
 35 38  1  0  0  0  0
 35 71  1  0  0  0  0
 36 37  1  0  0  0  0
 36 72  1  0  0  0  0
 38 73  1  0  0  0  0
 40 74  1  0  0  0  0
 40 75  1  0  0  0  0
 40 76  1  0  0  0  0
M  END
> <PUBCHEM_COMPOUND_CID>
505997
> <PUBCHEM_COMPOUND_CANONICALIZED>
1
> <PUBCHEM_CACTVS_COMPLEXITY>
801
> <PUBCHEM_CACTVS_HBOND_ACCEPTOR>
5
> <PUBCHEM_CACTVS_HBOND_DONOR>
4
> <PUBCHEM_CACTVS_ROTATABLE_BOND>
9
> <PUBCHEM_CACTVS_SUBSKEYS>
AAADcfB/sAAAAAAAAAAAAAAAAAAAAWAAAAAwYMAABYAAAFgB9AAAHgAYCAAADDzhngYz8PNjAgCqAyZicACSBAIgAgAcuSA4ZJiLMKKA0dGE5Ah+ngKZyAeQwPAOSAACAAACAACQAAQAAAQAAAAAAAAAAA==
> <PUBCHEM_IUPAC_OPENEYE_NAME>
(4R,5S,6S,7R)-1-[(3-amino-1H-indazol-5-yl)methyl]-7-benzyl-3-butyl-5,6-dihydroxy-4-(p-tolylmethyl)-1,3-diazepan-2-one
> <PUBCHEM_IUPAC_CAS_NAME>
(4R,5S,6S,7R)-1-[(3-amino-1H-indazol-5-yl)methyl]-3-butyl-5,6-dihydroxy-4-[(4-methylphenyl)methyl]-7-(phenylmethyl)-1,3-diazepan-2-one
> <PUBCHEM_IUPAC_NAME_MARKUP>
(4<I>R</I>,5<I>S</I>,6<I>S</I>,7<I>R</I>)-1-[(3-amino-1<I>H</I>-indazol-5-yl)methyl]-7-benzyl-3-butyl-5,6-dihydroxy-4-[(4-methylphenyl)methyl]-1,3-diazepan-2-one
> <PUBCHEM_IUPAC_NAME>
(4R,5S,6S,7R)-1-[(3-amino-1H-indazol-5-yl)methyl]-7-benzyl-3-butyl-5,6-dihydroxy-4-[(4-methylphenyl)methyl]-1,3-diazepan-2-one
> <PUBCHEM_IUPAC_SYSTEMATIC_NAME>
(4R,5S,6S,7R)-1-[(3-azanyl-1H-indazol-5-yl)methyl]-3-butyl-4-[(4-methylphenyl)methyl]-5,6-bis(oxidanyl)-7-(phenylmethyl)-1,3-diazepan-2-one
> <PUBCHEM_IUPAC_TRADITIONAL_NAME>
(4R,5S,6S,7R)-1-[(3-amino-1H-indazol-5-yl)methyl]-7-benzyl-3-butyl-5,6-dihydroxy-4-(4-methylbenzyl)-1,3-diazepan-2-one
> <PUBCHEM_IUPAC_INCHI>
InChI=1S/C32H39N5O3/c1-3-4-16-36-27(19-23-12-10-21(2)11-13-23)29(38)30(39)28(18-22-8-6-5-7-9-22)37(32(36)40)20-24-14-15-26-25(17-24)31(33)35-34-26/h5-15,17,27-30,38-39H,3-4,16,18-20H2,1-2H3,(H3,33,34,35)/t27-,28-,29+,30+/m1/s1
> <PUBCHEM_IUPAC_INCHIKEY>
SYAHBFYGEFUYJF-XAZDILKDSA-N
> <PUBCHEM_XLOGP3_AA>
4.7
> <PUBCHEM_EXACT_MASS>
541.30529012
> <PUBCHEM_MOLECULAR_FORMULA>
C32H39N5O3
> <PUBCHEM_MOLECULAR_WEIGHT>
541.7
> <PUBCHEM_OPENEYE_CAN_SMILES>
CCCCN1C(C(C(C(N(C1=O)CC2=CC3=C(C=C2)NN=C3N)CC4=CC=CC=C4)O)O)CC5=CC=C(C=C5)C
> <PUBCHEM_OPENEYE_ISO_SMILES>
CCCCN1[C@@H]([C@@H]([C@H]([C@H](N(C1=O)CC2=CC3=C(C=C2)NN=C3N)CC4=CC=CC=C4)O)O)CC5=CC=C(C=C5)C
> <PUBCHEM_CACTVS_TPSA>
119
> <PUBCHEM_MONOISOTOPIC_WEIGHT>
541.30529012
> <PUBCHEM_TOTAL_CHARGE>
0
> <PUBCHEM_HEAVY_ATOM_COUNT>
40
> <PUBCHEM_ATOM_DEF_STEREO_COUNT>
4
> <PUBCHEM_ATOM_UDEF_STEREO_COUNT>
0
> <PUBCHEM_BOND_DEF_STEREO_COUNT>
0
> <PUBCHEM_BOND_UDEF_STEREO_COUNT>
0
> <PUBCHEM_ISOTOPIC_ATOM_COUNT>
0
> <PUBCHEM_COMPONENT_COUNT>
1
> <PUBCHEM_CACTVS_TAUTO_COUNT>
-1
> <PUBCHEM_COORDINATE_TYPE>
1
5
255
> <PUBCHEM_BONDANNOTATIONS>
11  1  6
10  14  5
19  23  8
19  24  8
12  2  5
20  25  8
20  26  8
21  27  8
21  28  8
23  30  8
24  31  8
25  34  8
26  35  8
27  32  8
28  36  8
30  33  8
31  33  8
32  37  8
32  39  8
34  38  8
35  38  8
36  37  8
6  37  8
6  7  8
7  39  8
9  13  6
$$$$
