505960
  -OEChem-10302200282D
 49 51  0     1  0  0  0  0  0999 V2000
    6.3301   -1.0427    0.0000 O   0  0  0  0  0  0  0  0  0  0  0  0
    6.3301    1.9573    0.0000 O   0  0  0  0  0  0  0  0  0  0  0  0
    2.8660   -0.0427    0.0000 O   0  0  0  0  0  0  0  0  0  0  0  0
    9.7942   -1.0427    0.0000 N   0  0  3  0  0  0  0  0  0  0  0  0
    7.1962    0.4573    0.0000 N   0  0  0  0  0  0  0  0  0  0  0  0
    9.7942   -0.0427    0.0000 C   0  0  1  0  0  0  0  0  0  0  0  0
   10.6882   -1.5774    0.0000 C   0  0  1  0  0  0  0  0  0  0  0  0
    8.9282    0.4573    0.0000 C   0  0  0  0  0  0  0  0  0  0  0  0
   10.6882    0.4920    0.0000 C   0  0  0  0  0  0  0  0  0  0  0  0
    8.0622   -0.0427    0.0000 C   0  0  2  0  0  0  0  0  0  0  0  0
    8.9282   -1.5427    0.0000 C   0  0  0  0  0  0  0  0  0  0  0  0
   11.5942   -1.0635    0.0000 C   0  0  0  0  0  0  0  0  0  0  0  0
    8.0622   -1.0427    0.0000 C   0  0  0  0  0  0  0  0  0  0  0  0
   11.5942   -0.0219    0.0000 C   0  0  0  0  0  0  0  0  0  0  0  0
   10.6766   -2.5773    0.0000 C   0  0  0  0  0  0  0  0  0  0  0  0
    6.3301   -0.0427    0.0000 C   0  0  0  0  0  0  0  0  0  0  0  0
    5.4641    0.4573    0.0000 C   0  0  0  0  0  0  0  0  0  0  0  0
    5.4641    1.4573    0.0000 C   0  0  0  0  0  0  0  0  0  0  0  0
    4.5981   -0.0427    0.0000 C   0  0  0  0  0  0  0  0  0  0  0  0
    3.7320    0.4573    0.0000 C   0  0  0  0  0  0  0  0  0  0  0  0
    4.5981    1.9573    0.0000 C   0  0  0  0  0  0  0  0  0  0  0  0
    3.7320    1.4573    0.0000 C   0  0  0  0  0  0  0  0  0  0  0  0
    2.0000    0.4573    0.0000 C   0  0  0  0  0  0  0  0  0  0  0  0
    9.7877    0.8073    0.0000 H   0  0  0  0  0  0  0  0  0  0  0  0
   10.1471   -1.8801    0.0000 H   0  0  0  0  0  0  0  0  0  0  0  0
    9.3267    0.9322    0.0000 H   0  0  0  0  0  0  0  0  0  0  0  0
    8.5297    0.9322    0.0000 H   0  0  0  0  0  0  0  0  0  0  0  0
   11.0818    0.9710    0.0000 H   0  0  0  0  0  0  0  0  0  0  0  0
   10.2836    0.9617    0.0000 H   0  0  0  0  0  0  0  0  0  0  0  0
    8.0622    0.5773    0.0000 H   0  0  0  0  0  0  0  0  0  0  0  0
    8.5297   -2.0176    0.0000 H   0  0  0  0  0  0  0  0  0  0  0  0
    9.3267   -2.0176    0.0000 H   0  0  0  0  0  0  0  0  0  0  0  0
   11.8033   -1.6472    0.0000 H   0  0  0  0  0  0  0  0  0  0  0  0
   12.2051   -0.9574    0.0000 H   0  0  0  0  0  0  0  0  0  0  0  0
    7.4516   -0.9350    0.0000 H   0  0  0  0  0  0  0  0  0  0  0  0
    7.8501   -1.6253    0.0000 H   0  0  0  0  0  0  0  0  0  0  0  0
   12.2051   -0.1280    0.0000 H   0  0  0  0  0  0  0  0  0  0  0  0
   11.8033    0.5618    0.0000 H   0  0  0  0  0  0  0  0  0  0  0  0
   10.0566   -2.5701    0.0000 H   0  0  0  0  0  0  0  0  0  0  0  0
   10.6694   -3.1973    0.0000 H   0  0  0  0  0  0  0  0  0  0  0  0
   11.2966   -2.5845    0.0000 H   0  0  0  0  0  0  0  0  0  0  0  0
    7.1962    1.0773    0.0000 H   0  0  0  0  0  0  0  0  0  0  0  0
    4.5981   -0.6627    0.0000 H   0  0  0  0  0  0  0  0  0  0  0  0
    4.5981    2.5773    0.0000 H   0  0  0  0  0  0  0  0  0  0  0  0
    3.1951    1.7673    0.0000 H   0  0  0  0  0  0  0  0  0  0  0  0
    6.3301    2.5773    0.0000 H   0  0  0  0  0  0  0  0  0  0  0  0
    2.3100    0.9942    0.0000 H   0  0  0  0  0  0  0  0  0  0  0  0
    1.4631    0.7673    0.0000 H   0  0  0  0  0  0  0  0  0  0  0  0
    1.6900   -0.0796    0.0000 H   0  0  0  0  0  0  0  0  0  0  0  0
  1 16  2  0  0  0  0
  2 18  1  0  0  0  0
  2 46  1  0  0  0  0
  3 20  1  0  0  0  0
  3 23  1  0  0  0  0
  4  6  1  0  0  0  0
  4  7  1  0  0  0  0
  4 11  1  0  0  0  0
 10  5  1  6  0  0  0
  5 16  1  0  0  0  0
  5 42  1  0  0  0  0
  6  8  1  0  0  0  0
  6  9  1  0  0  0  0
  6 24  1  6  0  0  0
  7 12  1  0  0  0  0
  7 15  1  1  0  0  0
  7 25  1  0  0  0  0
  8 10  1  0  0  0  0
  8 26  1  0  0  0  0
  8 27  1  0  0  0  0
  9 14  1  0  0  0  0
  9 28  1  0  0  0  0
  9 29  1  0  0  0  0
 10 13  1  0  0  0  0
 10 30  1  0  0  0  0
 11 13  1  0  0  0  0
 11 31  1  0  0  0  0
 11 32  1  0  0  0  0
 12 14  1  0  0  0  0
 12 33  1  0  0  0  0
 12 34  1  0  0  0  0
 13 35  1  0  0  0  0
 13 36  1  0  0  0  0
 14 37  1  0  0  0  0
 14 38  1  0  0  0  0
 15 39  1  0  0  0  0
 15 40  1  0  0  0  0
 15 41  1  0  0  0  0
 16 17  1  0  0  0  0
 17 18  2  0  0  0  0
 17 19  1  0  0  0  0
 18 21  1  0  0  0  0
 19 20  2  0  0  0  0
 19 43  1  0  0  0  0
 20 22  1  0  0  0  0
 21 22  2  0  0  0  0
 21 44  1  0  0  0  0
 22 45  1  0  0  0  0
 23 47  1  0  0  0  0
 23 48  1  0  0  0  0
 23 49  1  0  0  0  0
M  END
> <PUBCHEM_COMPOUND_CID>
505960
> <PUBCHEM_COMPOUND_CANONICALIZED>
1
> <PUBCHEM_CACTVS_COMPLEXITY>
417
> <PUBCHEM_CACTVS_HBOND_ACCEPTOR>
4
> <PUBCHEM_CACTVS_HBOND_DONOR>
2
> <PUBCHEM_CACTVS_ROTATABLE_BOND>
3
> <PUBCHEM_CACTVS_SUBSKEYS>
AAADceB7MAAAAAAAAAAAAAAAAAAAAAAAAAA8WIAAAAAAAACxAAAAHgAQCAAADCzBmAYyBoPABgCIAiFSEACCCAAkIAAIiIEODMgMJjaG9RuEcWhm9hGIuYf6yLCOAQABAAAIAAACAAIAABAAAAAAAAAAAA==
> <PUBCHEM_IUPAC_OPENEYE_NAME>
N-[(2S,6R,9aR)-6-methyl-2,3,4,6,7,8,9,9a-octahydro-1H-quinolizin-2-yl]-2-hydroxy-5-methoxy-benzamide
> <PUBCHEM_IUPAC_CAS_NAME>
N-[(2S,6R,9aR)-6-methyl-2,3,4,6,7,8,9,9a-octahydro-1H-quinolizin-2-yl]-2-hydroxy-5-methoxybenzamide
> <PUBCHEM_IUPAC_NAME_MARKUP>
<I>N</I>-[(2<I>S</I>,6<I>R</I>,9<I>a</I><I>R</I>)-6-methyl-2,3,4,6,7,8,9,9<I>a</I>-octahydro-1<I>H</I>-quinolizin-2-yl]-2-hydroxy-5-methoxybenzamide
> <PUBCHEM_IUPAC_NAME>
N-[(2S,6R,9aR)-6-methyl-2,3,4,6,7,8,9,9a-octahydro-1H-quinolizin-2-yl]-2-hydroxy-5-methoxybenzamide
> <PUBCHEM_IUPAC_SYSTEMATIC_NAME>
N-[(2S,6R,9aR)-6-methyl-2,3,4,6,7,8,9,9a-octahydro-1H-quinolizin-2-yl]-5-methoxy-2-oxidanyl-benzamide
> <PUBCHEM_IUPAC_TRADITIONAL_NAME>
N-[(2S,6R,9aR)-6-methylquinolizidin-2-yl]-2-hydroxy-5-methoxy-benzamide
> <PUBCHEM_IUPAC_INCHI>
InChI=1S/C18H26N2O3/c1-12-4-3-5-14-10-13(8-9-20(12)14)19-18(22)16-11-15(23-2)6-7-17(16)21/h6-7,11-14,21H,3-5,8-10H2,1-2H3,(H,19,22)/t12-,13+,14-/m1/s1
> <PUBCHEM_IUPAC_INCHIKEY>
IKSBLKJYHRDOHD-HZSPNIEDSA-N
> <PUBCHEM_XLOGP3_AA>
3.3
> <PUBCHEM_EXACT_MASS>
318.19434270
> <PUBCHEM_MOLECULAR_FORMULA>
C18H26N2O3
> <PUBCHEM_MOLECULAR_WEIGHT>
318.4
> <PUBCHEM_OPENEYE_CAN_SMILES>
CC1CCCC2N1CCC(C2)NC(=O)C3=C(C=CC(=C3)OC)O
> <PUBCHEM_OPENEYE_ISO_SMILES>
C[C@@H]1CCC[C@H]2N1CC[C@@H](C2)NC(=O)C3=C(C=CC(=C3)OC)O
> <PUBCHEM_CACTVS_TPSA>
61.8
> <PUBCHEM_MONOISOTOPIC_WEIGHT>
318.19434270
> <PUBCHEM_TOTAL_CHARGE>
0
> <PUBCHEM_HEAVY_ATOM_COUNT>
23
> <PUBCHEM_ATOM_DEF_STEREO_COUNT>
3
> <PUBCHEM_ATOM_UDEF_STEREO_COUNT>
0
> <PUBCHEM_BOND_DEF_STEREO_COUNT>
0
> <PUBCHEM_BOND_UDEF_STEREO_COUNT>
0
> <PUBCHEM_ISOTOPIC_ATOM_COUNT>
0
> <PUBCHEM_COMPONENT_COUNT>
1
> <PUBCHEM_CACTVS_TAUTO_COUNT>
-1
> <PUBCHEM_COORDINATE_TYPE>
1
5
255
> <PUBCHEM_BONDANNOTATIONS>
17  18  8
17  19  8
18  21  8
19  20  8
20  22  8
21  22  8
10  5  6
6  24  6
7  15  5
$$$$
