506043
  -OEChem-10302200282D
 46 47  0     1  0  0  0  0  0999 V2000
    6.3301    0.4268    0.0000 O   0  0  0  0  0  0  0  0  0  0  0  0
    4.5981   -1.5732    0.0000 O   0  0  0  0  0  0  0  0  0  0  0  0
    2.8660    1.4268    0.0000 O   0  0  0  0  0  0  0  0  0  0  0  0
    7.1962    2.9268    0.0000 O   0  0  0  0  0  0  0  0  0  0  0  0
    8.0622    1.4268    0.0000 O   0  0  0  0  0  0  0  0  0  0  0  0
    6.3301   -1.5732    0.0000 N   0  0  0  0  0  0  0  0  0  0  0  0
    7.2437   -1.1664    0.0000 N   0  0  3  0  0  0  0  0  0  0  0  0
    3.7320   -0.0732    0.0000 N   0  0  0  0  0  0  0  0  0  0  0  0
    6.4347   -2.5677    0.0000 C   0  0  3  0  0  0  0  0  0  0  0  0
    4.5981    0.4268    0.0000 C   0  0  1  0  0  0  0  0  0  0  0  0
    5.4641   -0.0732    0.0000 C   0  0  2  0  0  0  0  0  0  0  0  0
    7.4128   -2.7756    0.0000 C   0  0  0  0  0  0  0  0  0  0  0  0
    7.9128   -1.9096    0.0000 C   0  0  0  0  0  0  0  0  0  0  0  0
    4.5981    1.4268    0.0000 C   0  0  2  0  0  0  0  0  0  0  0  0
    5.4641   -1.0732    0.0000 C   0  0  0  0  0  0  0  0  0  0  0  0
    5.6915   -3.2368    0.0000 C   0  0  0  0  0  0  0  0  0  0  0  0
    5.4641    1.9268    0.0000 C   0  0  0  0  0  0  0  0  0  0  0  0
    3.7320    1.9268    0.0000 C   0  0  0  0  0  0  0  0  0  0  0  0
    7.4516   -0.1883    0.0000 C   0  0  0  0  0  0  0  0  0  0  0  0
    6.3301    1.4268    0.0000 C   0  0  0  0  0  0  0  0  0  0  0  0
    2.8660    0.4268    0.0000 C   0  0  0  0  0  0  0  0  0  0  0  0
    7.1962    1.9268    0.0000 C   0  0  0  0  0  0  0  0  0  0  0  0
    2.0000   -0.0732    0.0000 C   0  0  0  0  0  0  0  0  0  0  0  0
    5.8558   -2.3455    0.0000 H   0  0  0  0  0  0  0  0  0  0  0  0
    4.5981   -0.1932    0.0000 H   0  0  0  0  0  0  0  0  0  0  0  0
    6.0010   -0.3832    0.0000 H   0  0  0  0  0  0  0  0  0  0  0  0
    7.2212   -3.3653    0.0000 H   0  0  0  0  0  0  0  0  0  0  0  0
    7.9792   -3.0278    0.0000 H   0  0  0  0  0  0  0  0  0  0  0  0
    8.4144   -2.2740    0.0000 H   0  0  0  0  0  0  0  0  0  0  0  0
    8.3277   -1.4488    0.0000 H   0  0  0  0  0  0  0  0  0  0  0  0
    4.5981    2.0468    0.0000 H   0  0  0  0  0  0  0  0  0  0  0  0
    5.2766   -2.7761    0.0000 H   0  0  0  0  0  0  0  0  0  0  0  0
    5.2308   -3.6517    0.0000 H   0  0  0  0  0  0  0  0  0  0  0  0
    6.1064   -3.6976    0.0000 H   0  0  0  0  0  0  0  0  0  0  0  0
    5.4641    2.5468    0.0000 H   0  0  0  0  0  0  0  0  0  0  0  0
    3.7320   -0.6932    0.0000 H   0  0  0  0  0  0  0  0  0  0  0  0
    4.0420    2.4638    0.0000 H   0  0  0  0  0  0  0  0  0  0  0  0
    3.1951    2.2368    0.0000 H   0  0  0  0  0  0  0  0  0  0  0  0
    3.4220    1.3899    0.0000 H   0  0  0  0  0  0  0  0  0  0  0  0
    8.0580   -0.3172    0.0000 H   0  0  0  0  0  0  0  0  0  0  0  0
    7.5805    0.4182    0.0000 H   0  0  0  0  0  0  0  0  0  0  0  0
    6.8451   -0.0594    0.0000 H   0  0  0  0  0  0  0  0  0  0  0  0
    1.6900    0.4638    0.0000 H   0  0  0  0  0  0  0  0  0  0  0  0
    1.4631   -0.3832    0.0000 H   0  0  0  0  0  0  0  0  0  0  0  0
    2.3100   -0.6101    0.0000 H   0  0  0  0  0  0  0  0  0  0  0  0
    7.7331    3.2368    0.0000 H   0  0  0  0  0  0  0  0  0  0  0  0
  1 11  1  0  0  0  0
  1 20  1  0  0  0  0
  2 15  2  0  0  0  0
  3 21  2  0  0  0  0
  4 22  1  0  0  0  0
  4 46  1  0  0  0  0
  5 22  2  0  0  0  0
  6  7  1  0  0  0  0
  6  9  1  0  0  0  0
  6 15  1  0  0  0  0
  7 13  1  0  0  0  0
  7 19  1  0  0  0  0
 10  8  1  6  0  0  0
  8 21  1  0  0  0  0
  8 36  1  0  0  0  0
  9 12  1  0  0  0  0
  9 16  1  0  0  0  0
  9 24  1  0  0  0  0
 10 11  1  0  0  0  0
 10 14  1  0  0  0  0
 10 25  1  0  0  0  0
 11 15  1  1  0  0  0
 11 26  1  0  0  0  0
 12 13  1  0  0  0  0
 12 27  1  0  0  0  0
 12 28  1  0  0  0  0
 13 29  1  0  0  0  0
 13 30  1  0  0  0  0
 14 17  1  0  0  0  0
 14 18  1  1  0  0  0
 14 31  1  0  0  0  0
 16 32  1  0  0  0  0
 16 33  1  0  0  0  0
 16 34  1  0  0  0  0
 17 20  2  0  0  0  0
 17 35  1  0  0  0  0
 18 37  1  0  0  0  0
 18 38  1  0  0  0  0
 18 39  1  0  0  0  0
 19 40  1  0  0  0  0
 19 41  1  0  0  0  0
 19 42  1  0  0  0  0
 20 22  1  0  0  0  0
 21 23  1  0  0  0  0
 23 43  1  0  0  0  0
 23 44  1  0  0  0  0
 23 45  1  0  0  0  0
M  END
> <PUBCHEM_COMPOUND_CID>
506043
> <PUBCHEM_COMPOUND_CANONICALIZED>
1
> <PUBCHEM_CACTVS_COMPLEXITY>
547
> <PUBCHEM_CACTVS_HBOND_ACCEPTOR>
6
> <PUBCHEM_CACTVS_HBOND_DONOR>
2
> <PUBCHEM_CACTVS_ROTATABLE_BOND>
3
> <PUBCHEM_CACTVS_SUBSKEYS>
AAADceBzOAAAAAAAAAAAAAAAAAAAAWAAAAAgAAAAAAAAAAAAAAAAHgAYCAAADTzhgAYCCALABgCIACHSGAIACAAgIAASCIFIAEgDBBoAwAQHEAAElgCbEYIYAAAMAAAAAAAAAAAAAAAAAAAAAAAAAAAAAA==
> <PUBCHEM_IUPAC_OPENEYE_NAME>
(2R,3R,4S)-3-acetamido-2-(2,5-dimethylpyrazolidine-1-carbonyl)-4-methyl-3,4-dihydro-2H-pyran-6-carboxylic acid
> <PUBCHEM_IUPAC_CAS_NAME>
(2R,3R,4S)-3-acetamido-2-[(2,5-dimethyl-1-pyrazolidinyl)-oxomethyl]-4-methyl-3,4-dihydro-2H-pyran-6-carboxylic acid
> <PUBCHEM_IUPAC_NAME_MARKUP>
(2<I>R</I>,3<I>R</I>,4<I>S</I>)-3-acetamido-2-(2,5-dimethylpyrazolidine-1-carbonyl)-4-methyl-3,4-dihydro-2<I>H</I>-pyran-6-carboxylic acid
> <PUBCHEM_IUPAC_NAME>
(2R,3R,4S)-3-acetamido-2-(2,5-dimethylpyrazolidine-1-carbonyl)-4-methyl-3,4-dihydro-2H-pyran-6-carboxylic acid
> <PUBCHEM_IUPAC_SYSTEMATIC_NAME>
(2R,3R,4S)-3-acetamido-2-(2,5-dimethylpyrazolidin-1-yl)carbonyl-4-methyl-3,4-dihydro-2H-pyran-6-carboxylic acid
> <PUBCHEM_IUPAC_TRADITIONAL_NAME>
(2R,3R,4S)-3-acetamido-2-(2,5-dimethylpyrazolidine-1-carbonyl)-4-methyl-3,4-dihydro-2H-pyran-6-carboxylic acid
> <PUBCHEM_IUPAC_INCHI>
InChI=1S/C15H23N3O5/c1-8-7-11(15(21)22)23-13(12(8)16-10(3)19)14(20)18-9(2)5-6-17(18)4/h7-9,12-13H,5-6H2,1-4H3,(H,16,19)(H,21,22)/t8-,9?,12+,13+/m0/s1
> <PUBCHEM_IUPAC_INCHIKEY>
FBEQMFXGGDANMX-NPJNEXAHSA-N
> <PUBCHEM_XLOGP3_AA>
-1.1
> <PUBCHEM_EXACT_MASS>
325.16377084
> <PUBCHEM_MOLECULAR_FORMULA>
C15H23N3O5
> <PUBCHEM_MOLECULAR_WEIGHT>
325.36
> <PUBCHEM_OPENEYE_CAN_SMILES>
CC1CCN(N1C(=O)C2C(C(C=C(O2)C(=O)O)C)NC(=O)C)C
> <PUBCHEM_OPENEYE_ISO_SMILES>
C[C@H]1C=C(O[C@H]([C@@H]1NC(=O)C)C(=O)N2C(CCN2C)C)C(=O)O
> <PUBCHEM_CACTVS_TPSA>
99.2
> <PUBCHEM_MONOISOTOPIC_WEIGHT>
325.16377084
> <PUBCHEM_TOTAL_CHARGE>
0
> <PUBCHEM_HEAVY_ATOM_COUNT>
23
> <PUBCHEM_ATOM_DEF_STEREO_COUNT>
3
> <PUBCHEM_ATOM_UDEF_STEREO_COUNT>
1
> <PUBCHEM_BOND_DEF_STEREO_COUNT>
0
> <PUBCHEM_BOND_UDEF_STEREO_COUNT>
0
> <PUBCHEM_ISOTOPIC_ATOM_COUNT>
0
> <PUBCHEM_COMPONENT_COUNT>
1
> <PUBCHEM_CACTVS_TAUTO_COUNT>
-1
> <PUBCHEM_COORDINATE_TYPE>
1
5
255
> <PUBCHEM_BONDANNOTATIONS>
11  15  5
14  18  5
10  8  6
9  16  3
$$$$
