506012
  -OEChem-10302200282D
 46 47  0     1  0  0  0  0  0999 V2000
    5.1350   -0.8060    0.0000 O   0  0  0  0  0  0  0  0  0  0  0  0
    6.0010    1.6940    0.0000 O   0  0  0  0  0  0  0  0  0  0  0  0
    2.7690    2.5601    0.0000 O   0  0  0  0  0  0  0  0  0  0  0  0
    3.4030   -2.8060    0.0000 O   0  0  0  0  0  0  0  0  0  0  0  0
    5.1350   -2.8060    0.0000 O   0  0  0  0  0  0  0  0  0  0  0  0
    6.8671    0.1940    0.0000 N   0  0  0  0  0  0  0  0  0  0  0  0
    4.2690    1.6940    0.0000 N   0  0  0  0  0  0  0  0  0  0  0  0
    2.5369    0.6940    0.0000 N   0  0  0  0  0  0  0  0  0  0  0  0
    6.9716   -0.8005    0.0000 C   0  0  3  0  0  0  0  0  0  0  0  0
    7.7806    0.6007    0.0000 C   0  0  3  0  0  0  0  0  0  0  0  0
    7.9497   -1.0085    0.0000 C   0  0  0  0  0  0  0  0  0  0  0  0
    8.4497   -0.1424    0.0000 C   0  0  0  0  0  0  0  0  0  0  0  0
    5.1350    0.1940    0.0000 C   0  0  1  0  0  0  0  0  0  0  0  0
    6.0010    0.6940    0.0000 C   0  0  0  0  0  0  0  0  0  0  0  0
    4.2690    0.6940    0.0000 C   0  0  1  0  0  0  0  0  0  0  0  0
    6.2284   -1.4697    0.0000 C   0  0  0  0  0  0  0  0  0  0  0  0
    7.9885    1.5789    0.0000 C   0  0  0  0  0  0  0  0  0  0  0  0
    3.4030    0.1940    0.0000 C   0  0  2  0  0  0  0  0  0  0  0  0
    3.4030   -0.8060    0.0000 C   0  0  0  0  0  0  0  0  0  0  0  0
    4.2690   -1.3060    0.0000 C   0  0  0  0  0  0  0  0  0  0  0  0
    3.7690    2.5600    0.0000 C   0  0  0  0  0  0  0  0  0  0  0  0
    4.2690   -2.3060    0.0000 C   0  0  0  0  0  0  0  0  0  0  0  0
    4.2690    3.4260    0.0000 C   0  0  0  0  0  0  0  0  0  0  0  0
    6.3928   -0.5784    0.0000 H   0  0  0  0  0  0  0  0  0  0  0  0
    7.2988    0.9909    0.0000 H   0  0  0  0  0  0  0  0  0  0  0  0
    7.7582   -1.5981    0.0000 H   0  0  0  0  0  0  0  0  0  0  0  0
    8.5161   -1.2606    0.0000 H   0  0  0  0  0  0  0  0  0  0  0  0
    8.9513   -0.5069    0.0000 H   0  0  0  0  0  0  0  0  0  0  0  0
    8.8646    0.3183    0.0000 H   0  0  0  0  0  0  0  0  0  0  0  0
    5.6720   -0.1160    0.0000 H   0  0  0  0  0  0  0  0  0  0  0  0
    4.8059    1.0040    0.0000 H   0  0  0  0  0  0  0  0  0  0  0  0
    5.8136   -1.0089    0.0000 H   0  0  0  0  0  0  0  0  0  0  0  0
    5.7677   -1.8845    0.0000 H   0  0  0  0  0  0  0  0  0  0  0  0
    6.6433   -1.9304    0.0000 H   0  0  0  0  0  0  0  0  0  0  0  0
    8.5950    1.4500    0.0000 H   0  0  0  0  0  0  0  0  0  0  0  0
    8.1174    2.1853    0.0000 H   0  0  0  0  0  0  0  0  0  0  0  0
    7.3821    1.7078    0.0000 H   0  0  0  0  0  0  0  0  0  0  0  0
    3.4030    0.8140    0.0000 H   0  0  0  0  0  0  0  0  0  0  0  0
    4.8059    2.0040    0.0000 H   0  0  0  0  0  0  0  0  0  0  0  0
    2.8660   -1.1160    0.0000 H   0  0  0  0  0  0  0  0  0  0  0  0
    2.0000    0.3840    0.0000 H   0  0  0  0  0  0  0  0  0  0  0  0
    2.2269    1.2309    0.0000 H   0  0  0  0  0  0  0  0  0  0  0  0
    4.8059    3.1160    0.0000 H   0  0  0  0  0  0  0  0  0  0  0  0
    4.5790    3.9630    0.0000 H   0  0  0  0  0  0  0  0  0  0  0  0
    3.7320    3.7360    0.0000 H   0  0  0  0  0  0  0  0  0  0  0  0
    3.4030   -3.4260    0.0000 H   0  0  0  0  0  0  0  0  0  0  0  0
  1 13  1  0  0  0  0
  1 20  1  0  0  0  0
  2 14  2  0  0  0  0
  3 21  2  0  0  0  0
  4 22  1  0  0  0  0
  4 46  1  0  0  0  0
  5 22  2  0  0  0  0
  6  9  1  0  0  0  0
  6 10  1  0  0  0  0
  6 14  1  0  0  0  0
 15  7  1  1  0  0  0
  7 21  1  0  0  0  0
  7 39  1  0  0  0  0
 18  8  1  6  0  0  0
  8 41  1  0  0  0  0
  8 42  1  0  0  0  0
  9 11  1  0  0  0  0
  9 16  1  0  0  0  0
  9 24  1  0  0  0  0
 10 12  1  0  0  0  0
 10 17  1  0  0  0  0
 10 25  1  0  0  0  0
 11 12  1  0  0  0  0
 11 26  1  0  0  0  0
 11 27  1  0  0  0  0
 12 28  1  0  0  0  0
 12 29  1  0  0  0  0
 13 14  1  6  0  0  0
 13 15  1  0  0  0  0
 13 30  1  0  0  0  0
 15 18  1  0  0  0  0
 15 31  1  0  0  0  0
 16 32  1  0  0  0  0
 16 33  1  0  0  0  0
 16 34  1  0  0  0  0
 17 35  1  0  0  0  0
 17 36  1  0  0  0  0
 17 37  1  0  0  0  0
 18 19  1  0  0  0  0
 18 38  1  0  0  0  0
 19 20  2  0  0  0  0
 19 40  1  0  0  0  0
 20 22  1  0  0  0  0
 21 23  1  0  0  0  0
 23 43  1  0  0  0  0
 23 44  1  0  0  0  0
 23 45  1  0  0  0  0
M  END
> <PUBCHEM_COMPOUND_CID>
506012
> <PUBCHEM_COMPOUND_CANONICALIZED>
1
> <PUBCHEM_CACTVS_COMPLEXITY>
537
> <PUBCHEM_CACTVS_HBOND_ACCEPTOR>
6
> <PUBCHEM_CACTVS_HBOND_DONOR>
3
> <PUBCHEM_CACTVS_ROTATABLE_BOND>
3
> <PUBCHEM_CACTVS_SUBSKEYS>
AAADceBzOAAAAAAAAAAAAAAAAAAAAWAAAAAgAAAAAAAAAAAAAAAAHgAQCAAACDzhgAYCCAPABgCIACHSGAKACAAgIAAACIFIAEgDRBoAwAQXEAAGlgCbEYMcAAAAAAAAAAAAAAAAAAAAAAAAAAAAAAAAAA==
> <PUBCHEM_IUPAC_OPENEYE_NAME>
(2R,3R,4S)-3-acetamido-4-amino-2-(2,5-dimethylpyrrolidine-1-carbonyl)-3,4-dihydro-2H-pyran-6-carboxylic acid
> <PUBCHEM_IUPAC_CAS_NAME>
(2R,3R,4S)-3-acetamido-4-amino-2-[(2,5-dimethyl-1-pyrrolidinyl)-oxomethyl]-3,4-dihydro-2H-pyran-6-carboxylic acid
> <PUBCHEM_IUPAC_NAME_MARKUP>
(2<I>R</I>,3<I>R</I>,4<I>S</I>)-3-acetamido-4-amino-2-(2,5-dimethylpyrrolidine-1-carbonyl)-3,4-dihydro-2<I>H</I>-pyran-6-carboxylic acid
> <PUBCHEM_IUPAC_NAME>
(2R,3R,4S)-3-acetamido-4-amino-2-(2,5-dimethylpyrrolidine-1-carbonyl)-3,4-dihydro-2H-pyran-6-carboxylic acid
> <PUBCHEM_IUPAC_SYSTEMATIC_NAME>
(2R,3R,4S)-3-acetamido-4-azanyl-2-(2,5-dimethylpyrrolidin-1-yl)carbonyl-3,4-dihydro-2H-pyran-6-carboxylic acid
> <PUBCHEM_IUPAC_TRADITIONAL_NAME>
(2R,3R,4S)-3-acetamido-4-amino-2-(2,5-dimethylpyrrolidine-1-carbonyl)-3,4-dihydro-2H-pyran-6-carboxylic acid
> <PUBCHEM_IUPAC_INCHI>
InChI=1S/C15H23N3O5/c1-7-4-5-8(2)18(7)14(20)13-12(17-9(3)19)10(16)6-11(23-13)15(21)22/h6-8,10,12-13H,4-5,16H2,1-3H3,(H,17,19)(H,21,22)/t7?,8?,10-,12+,13+/m0/s1
> <PUBCHEM_IUPAC_INCHIKEY>
PHYBFKLXQMCMNU-XFWWHTIISA-N
> <PUBCHEM_XLOGP3_AA>
-2.3
> <PUBCHEM_EXACT_MASS>
325.16377084
> <PUBCHEM_MOLECULAR_FORMULA>
C15H23N3O5
> <PUBCHEM_MOLECULAR_WEIGHT>
325.36
> <PUBCHEM_OPENEYE_CAN_SMILES>
CC1CCC(N1C(=O)C2C(C(C=C(O2)C(=O)O)N)NC(=O)C)C
> <PUBCHEM_OPENEYE_ISO_SMILES>
CC1CCC(N1C(=O)[C@H]2[C@@H]([C@H](C=C(O2)C(=O)O)N)NC(=O)C)C
> <PUBCHEM_CACTVS_TPSA>
122
> <PUBCHEM_MONOISOTOPIC_WEIGHT>
325.16377084
> <PUBCHEM_TOTAL_CHARGE>
0
> <PUBCHEM_HEAVY_ATOM_COUNT>
23
> <PUBCHEM_ATOM_DEF_STEREO_COUNT>
3
> <PUBCHEM_ATOM_UDEF_STEREO_COUNT>
2
> <PUBCHEM_BOND_DEF_STEREO_COUNT>
0
> <PUBCHEM_BOND_UDEF_STEREO_COUNT>
0
> <PUBCHEM_ISOTOPIC_ATOM_COUNT>
0
> <PUBCHEM_COMPONENT_COUNT>
1
> <PUBCHEM_CACTVS_TAUTO_COUNT>
-1
> <PUBCHEM_COORDINATE_TYPE>
1
5
255
> <PUBCHEM_BONDANNOTATIONS>
10  17  3
13  14  6
15  7  5
18  8  6
9  16  3
$$$$
