506030
  -OEChem-10302200282D
 59 60  0     1  0  0  0  0  0999 V2000
    5.1350   -0.9400    0.0000 O   0  0  0  0  0  0  0  0  0  0  0  0
    6.0010    1.5600    0.0000 O   0  0  0  0  0  0  0  0  0  0  0  0
    2.7690    2.4261    0.0000 O   0  0  0  0  0  0  0  0  0  0  0  0
    3.4030   -2.9400    0.0000 O   0  0  0  0  0  0  0  0  0  0  0  0
    5.1350   -2.9400    0.0000 O   0  0  0  0  0  0  0  0  0  0  0  0
   10.3312    3.0600    0.0000 O   0  0  0  0  0  0  0  0  0  0  0  0
    6.8671    0.0600    0.0000 N   0  0  0  0  0  0  0  0  0  0  0  0
    4.2690    1.5600    0.0000 N   0  0  0  0  0  0  0  0  0  0  0  0
    2.5369    0.5600    0.0000 N   0  0  0  0  0  0  0  0  0  0  0  0
    4.2690    0.5600    0.0000 C   0  0  1  0  0  0  0  0  0  0  0  0
    5.1350    0.0600    0.0000 C   0  0  2  0  0  0  0  0  0  0  0  0
    3.4030    0.0600    0.0000 C   0  0  2  0  0  0  0  0  0  0  0  0
    6.0010    0.5600    0.0000 C   0  0  0  0  0  0  0  0  0  0  0  0
    3.4030   -0.9400    0.0000 C   0  0  0  0  0  0  0  0  0  0  0  0
    7.7331    0.5600    0.0000 C   0  0  0  0  0  0  0  0  0  0  0  0
    6.8671   -0.9400    0.0000 C   0  0  0  0  0  0  0  0  0  0  0  0
    4.2690   -1.4400    0.0000 C   0  0  0  0  0  0  0  0  0  0  0  0
    8.5991    0.0600    0.0000 C   0  0  0  0  0  0  0  0  0  0  0  0
    7.7331   -1.4400    0.0000 C   0  0  0  0  0  0  0  0  0  0  0  0
    3.7690    2.4260    0.0000 C   0  0  0  0  0  0  0  0  0  0  0  0
    9.4651    0.5600    0.0000 C   0  0  0  0  0  0  0  0  0  0  0  0
    4.2690   -2.4400    0.0000 C   0  0  0  0  0  0  0  0  0  0  0  0
    7.7331   -2.4400    0.0000 C   0  0  0  0  0  0  0  0  0  0  0  0
    4.2690    3.2920    0.0000 C   0  0  0  0  0  0  0  0  0  0  0  0
    9.4651    1.5600    0.0000 C   0  0  0  0  0  0  0  0  0  0  0  0
   10.3312    0.0600    0.0000 C   0  0  0  0  0  0  0  0  0  0  0  0
   10.3312    2.0600    0.0000 C   0  0  0  0  0  0  0  0  0  0  0  0
   11.1972    0.5600    0.0000 C   0  0  0  0  0  0  0  0  0  0  0  0
   11.1972    1.5600    0.0000 C   0  0  0  0  0  0  0  0  0  0  0  0
   11.1972    3.5600    0.0000 C   0  0  0  0  0  0  0  0  0  0  0  0
    4.8059    0.8700    0.0000 H   0  0  0  0  0  0  0  0  0  0  0  0
    5.6720   -0.2500    0.0000 H   0  0  0  0  0  0  0  0  0  0  0  0
    3.4030    0.6800    0.0000 H   0  0  0  0  0  0  0  0  0  0  0  0
    2.8660   -1.2500    0.0000 H   0  0  0  0  0  0  0  0  0  0  0  0
    4.8059    1.8700    0.0000 H   0  0  0  0  0  0  0  0  0  0  0  0
    8.1316    1.0350    0.0000 H   0  0  0  0  0  0  0  0  0  0  0  0
    7.3346    1.0350    0.0000 H   0  0  0  0  0  0  0  0  0  0  0  0
    6.2565   -0.8323    0.0000 H   0  0  0  0  0  0  0  0  0  0  0  0
    6.6550   -1.5226    0.0000 H   0  0  0  0  0  0  0  0  0  0  0  0
    2.0000    0.2500    0.0000 H   0  0  0  0  0  0  0  0  0  0  0  0
    2.2269    1.0969    0.0000 H   0  0  0  0  0  0  0  0  0  0  0  0
    8.2006   -0.4149    0.0000 H   0  0  0  0  0  0  0  0  0  0  0  0
    8.9976   -0.4149    0.0000 H   0  0  0  0  0  0  0  0  0  0  0  0
    8.3437   -1.5477    0.0000 H   0  0  0  0  0  0  0  0  0  0  0  0
    7.9451   -0.8574    0.0000 H   0  0  0  0  0  0  0  0  0  0  0  0
    7.1131   -2.4400    0.0000 H   0  0  0  0  0  0  0  0  0  0  0  0
    7.7331   -3.0600    0.0000 H   0  0  0  0  0  0  0  0  0  0  0  0
    8.3531   -2.4400    0.0000 H   0  0  0  0  0  0  0  0  0  0  0  0
    4.8059    2.9820    0.0000 H   0  0  0  0  0  0  0  0  0  0  0  0
    4.5790    3.8290    0.0000 H   0  0  0  0  0  0  0  0  0  0  0  0
    3.7320    3.6020    0.0000 H   0  0  0  0  0  0  0  0  0  0  0  0
    8.9282    1.8700    0.0000 H   0  0  0  0  0  0  0  0  0  0  0  0
   10.3312   -0.5600    0.0000 H   0  0  0  0  0  0  0  0  0  0  0  0
   11.7341    0.2500    0.0000 H   0  0  0  0  0  0  0  0  0  0  0  0
    3.4030   -3.5600    0.0000 H   0  0  0  0  0  0  0  0  0  0  0  0
   11.7341    1.8700    0.0000 H   0  0  0  0  0  0  0  0  0  0  0  0
   11.5072    3.0231    0.0000 H   0  0  0  0  0  0  0  0  0  0  0  0
   11.7341    3.8700    0.0000 H   0  0  0  0  0  0  0  0  0  0  0  0
   10.8872    4.0969    0.0000 H   0  0  0  0  0  0  0  0  0  0  0  0
  1 11  1  0  0  0  0
  1 17  1  0  0  0  0
  2 13  2  0  0  0  0
  3 20  2  0  0  0  0
  4 22  1  0  0  0  0
  4 55  1  0  0  0  0
  5 22  2  0  0  0  0
  6 27  1  0  0  0  0
  6 30  1  0  0  0  0
  7 13  1  0  0  0  0
  7 15  1  0  0  0  0
  7 16  1  0  0  0  0
 10  8  1  1  0  0  0
  8 20  1  0  0  0  0
  8 35  1  0  0  0  0
 12  9  1  6  0  0  0
  9 40  1  0  0  0  0
  9 41  1  0  0  0  0
 10 11  1  0  0  0  0
 10 12  1  0  0  0  0
 10 31  1  0  0  0  0
 11 13  1  6  0  0  0
 11 32  1  0  0  0  0
 12 14  1  0  0  0  0
 12 33  1  0  0  0  0
 14 17  2  0  0  0  0
 14 34  1  0  0  0  0
 15 18  1  0  0  0  0
 15 36  1  0  0  0  0
 15 37  1  0  0  0  0
 16 19  1  0  0  0  0
 16 38  1  0  0  0  0
 16 39  1  0  0  0  0
 17 22  1  0  0  0  0
 18 21  1  0  0  0  0
 18 42  1  0  0  0  0
 18 43  1  0  0  0  0
 19 23  1  0  0  0  0
 19 44  1  0  0  0  0
 19 45  1  0  0  0  0
 20 24  1  0  0  0  0
 21 25  2  0  0  0  0
 21 26  1  0  0  0  0
 23 46  1  0  0  0  0
 23 47  1  0  0  0  0
 23 48  1  0  0  0  0
 24 49  1  0  0  0  0
 24 50  1  0  0  0  0
 24 51  1  0  0  0  0
 25 27  1  0  0  0  0
 25 52  1  0  0  0  0
 26 28  2  0  0  0  0
 26 53  1  0  0  0  0
 27 29  2  0  0  0  0
 28 29  1  0  0  0  0
 28 54  1  0  0  0  0
 29 56  1  0  0  0  0
 30 57  1  0  0  0  0
 30 58  1  0  0  0  0
 30 59  1  0  0  0  0
M  END
> <PUBCHEM_COMPOUND_CID>
506030
> <PUBCHEM_COMPOUND_CANONICALIZED>
1
> <PUBCHEM_CACTVS_COMPLEXITY>
653
> <PUBCHEM_CACTVS_HBOND_ACCEPTOR>
7
> <PUBCHEM_CACTVS_HBOND_DONOR>
3
> <PUBCHEM_CACTVS_ROTATABLE_BOND>
9
> <PUBCHEM_CACTVS_SUBSKEYS>
AAADceB7OAAAAAAAAAAAAAAAAAAAAAAAAAAwQAAAAAAAAAABAAAAHgAQCAAADDzhmAYyDoPABgCIAiHSGAKCCAAgIAAIiIFOCMgPZjqE8R+XMCAm1hGbuYec0LIOAAABAAAAAAAAAAIAAAAAAAAAAAAAAA==
> <PUBCHEM_IUPAC_OPENEYE_NAME>
(2R,3R,4S)-3-acetamido-4-amino-2-[2-(3-methoxyphenyl)ethyl-propyl-carbamoyl]-3,4-dihydro-2H-pyran-6-carboxylic acid
> <PUBCHEM_IUPAC_CAS_NAME>
(2R,3R,4S)-3-acetamido-4-amino-2-[[2-(3-methoxyphenyl)ethyl-propylamino]-oxomethyl]-3,4-dihydro-2H-pyran-6-carboxylic acid
> <PUBCHEM_IUPAC_NAME_MARKUP>
(2<I>R</I>,3<I>R</I>,4<I>S</I>)-3-acetamido-4-amino-2-[2-(3-methoxyphenyl)ethyl-propylcarbamoyl]-3,4-dihydro-2<I>H</I>-pyran-6-carboxylic acid
> <PUBCHEM_IUPAC_NAME>
(2R,3R,4S)-3-acetamido-4-amino-2-[2-(3-methoxyphenyl)ethyl-propylcarbamoyl]-3,4-dihydro-2H-pyran-6-carboxylic acid
> <PUBCHEM_IUPAC_SYSTEMATIC_NAME>
(2R,3R,4S)-3-acetamido-4-azanyl-2-[2-(3-methoxyphenyl)ethyl-propyl-carbamoyl]-3,4-dihydro-2H-pyran-6-carboxylic acid
> <PUBCHEM_IUPAC_TRADITIONAL_NAME>
(2R,3R,4S)-3-acetamido-4-amino-2-[2-(3-methoxyphenyl)ethyl-propyl-carbamoyl]-3,4-dihydro-2H-pyran-6-carboxylic acid
> <PUBCHEM_IUPAC_INCHI>
InChI=1S/C21H29N3O6/c1-4-9-24(10-8-14-6-5-7-15(11-14)29-3)20(26)19-18(23-13(2)25)16(22)12-17(30-19)21(27)28/h5-7,11-12,16,18-19H,4,8-10,22H2,1-3H3,(H,23,25)(H,27,28)/t16-,18+,19+/m0/s1
> <PUBCHEM_IUPAC_INCHIKEY>
BCFJLDKEDRAZBZ-QXAKKESOSA-N
> <PUBCHEM_XLOGP3_AA>
-0.8
> <PUBCHEM_EXACT_MASS>
419.20563565
> <PUBCHEM_MOLECULAR_FORMULA>
C21H29N3O6
> <PUBCHEM_MOLECULAR_WEIGHT>
419.5
> <PUBCHEM_OPENEYE_CAN_SMILES>
CCCN(CCC1=CC(=CC=C1)OC)C(=O)C2C(C(C=C(O2)C(=O)O)N)NC(=O)C
> <PUBCHEM_OPENEYE_ISO_SMILES>
CCCN(CCC1=CC(=CC=C1)OC)C(=O)[C@H]2[C@@H]([C@H](C=C(O2)C(=O)O)N)NC(=O)C
> <PUBCHEM_CACTVS_TPSA>
131
> <PUBCHEM_MONOISOTOPIC_WEIGHT>
419.20563565
> <PUBCHEM_TOTAL_CHARGE>
0
> <PUBCHEM_HEAVY_ATOM_COUNT>
30
> <PUBCHEM_ATOM_DEF_STEREO_COUNT>
3
> <PUBCHEM_ATOM_UDEF_STEREO_COUNT>
0
> <PUBCHEM_BOND_DEF_STEREO_COUNT>
0
> <PUBCHEM_BOND_UDEF_STEREO_COUNT>
0
> <PUBCHEM_ISOTOPIC_ATOM_COUNT>
0
> <PUBCHEM_COMPONENT_COUNT>
1
> <PUBCHEM_CACTVS_TAUTO_COUNT>
-1
> <PUBCHEM_COORDINATE_TYPE>
1
5
255
> <PUBCHEM_BONDANNOTATIONS>
11  13  6
21  25  8
21  26  8
25  27  8
26  28  8
27  29  8
28  29  8
10  8  5
12  9  6
$$$$
