506164
  -OEChem-10302200282D
 81 85  0     1  0  0  0  0  0999 V2000
    2.6504   -2.8231    0.0000 O   0  0  0  0  0  0  0  0  0  0  0  0
    4.5983   -5.3263    0.0000 O   0  0  0  0  0  0  0  0  0  0  0  0
    5.7783   -0.3235    0.0000 O   0  0  0  0  0  0  0  0  0  0  0  0
    9.0245    1.2457    0.0000 O   0  0  0  0  0  0  0  0  0  0  0  0
    9.3817   -0.4492    0.0000 O   0  0  0  0  0  0  0  0  0  0  0  0
    4.2382   -3.6321    0.0000 N   0  0  0  0  0  0  0  0  0  0  0  0
    6.1355   -2.0183    0.0000 N   0  0  0  0  0  0  0  0  0  0  0  0
    7.7353    0.0889    0.0000 N   0  0  0  0  0  0  0  0  0  0  0  0
   11.6028    3.5591    0.0000 N   0  0  0  0  0  0  0  0  0  0  0  0
    5.1893   -2.3231    0.0000 C   0  0  2  0  0  0  0  0  0  0  0  0
    4.2382   -2.0140    0.0000 C   0  0  3  0  0  0  0  0  0  0  0  0
    5.1893   -3.3231    0.0000 C   0  0  2  0  0  0  0  0  0  0  0  0
    3.9292   -1.0630    0.0000 C   0  0  0  0  0  0  0  0  0  0  0  0
    6.1355   -3.6278    0.0000 C   0  0  0  0  0  0  0  0  0  0  0  0
    4.3832   -0.1720    0.0000 C   0  0  0  0  0  0  0  0  0  0  0  0
    3.0382   -0.6090    0.0000 C   0  0  0  0  0  0  0  0  0  0  0  0
    3.6504   -2.8231    0.0000 C   0  0  0  0  0  0  0  0  0  0  0  0
    6.7191   -2.8231    0.0000 C   0  0  0  0  0  0  0  0  0  0  0  0
    3.4922    0.2820    0.0000 C   0  0  0  0  0  0  0  0  0  0  0  0
    2.9511   -4.7910    0.0000 C   0  0  0  0  0  0  0  0  0  0  0  0
    3.9292   -4.5831    0.0000 C   0  0  0  0  0  0  0  0  0  0  0  0
    2.0000   -4.4820    0.0000 C   0  0  0  0  0  0  0  0  0  0  0  0
    2.2079   -5.4602    0.0000 C   0  0  0  0  0  0  0  0  0  0  0  0
    6.4462   -1.0678    0.0000 C   0  0  0  0  0  0  0  0  0  0  0  0
    7.4247   -0.8616    0.0000 C   0  0  2  0  0  0  0  0  0  0  0  0
    8.0925   -1.6059    0.0000 C   0  0  0  0  0  0  0  0  0  0  0  0
    9.0710   -1.3997    0.0000 C   0  0  0  0  0  0  0  0  0  0  0  0
    7.7818   -2.5564    0.0000 C   0  0  0  0  0  0  0  0  0  0  0  0
    8.7138    0.2951    0.0000 C   0  0  0  0  0  0  0  0  0  0  0  0
   10.0030    1.4519    0.0000 C   0  0  0  0  0  0  0  0  0  0  0  0
   11.2922    2.6086    0.0000 C   0  0  0  0  0  0  0  0  0  0  0  0
   12.5813    3.7654    0.0000 C   0  0  0  0  0  0  0  0  0  0  0  0
   10.9350    4.3034    0.0000 C   0  0  0  0  0  0  0  0  0  0  0  0
   10.3137    2.4024    0.0000 C   0  0  0  0  0  0  0  0  0  0  0  0
   12.8920    4.7159    0.0000 C   0  0  0  0  0  0  0  0  0  0  0  0
   11.2457    5.2540    0.0000 C   0  0  0  0  0  0  0  0  0  0  0  0
   12.2242    5.4602    0.0000 C   0  0  0  0  0  0  0  0  0  0  0  0
    5.1904   -1.4731    0.0000 H   0  0  0  0  0  0  0  0  0  0  0  0
    3.6258   -1.9171    0.0000 H   0  0  0  0  0  0  0  0  0  0  0  0
    5.1904   -4.1731    0.0000 H   0  0  0  0  0  0  0  0  0  0  0  0
    4.5473   -1.1116    0.0000 H   0  0  0  0  0  0  0  0  0  0  0  0
    5.8845   -4.1947    0.0000 H   0  0  0  0  0  0  0  0  0  0  0  0
    6.6729   -3.9370    0.0000 H   0  0  0  0  0  0  0  0  0  0  0  0
    4.9356   -0.4535    0.0000 H   0  0  0  0  0  0  0  0  0  0  0  0
    4.6647    0.3804    0.0000 H   0  0  0  0  0  0  0  0  0  0  0  0
    2.4858   -0.3275    0.0000 H   0  0  0  0  0  0  0  0  0  0  0  0
    2.7567   -1.1614    0.0000 H   0  0  0  0  0  0  0  0  0  0  0  0
    7.1800   -3.2378    0.0000 H   0  0  0  0  0  0  0  0  0  0  0  0
    7.1800   -2.4083    0.0000 H   0  0  0  0  0  0  0  0  0  0  0  0
    3.7737    0.8344    0.0000 H   0  0  0  0  0  0  0  0  0  0  0  0
    2.9398    0.5635    0.0000 H   0  0  0  0  0  0  0  0  0  0  0  0
    2.9835   -4.1719    0.0000 H   0  0  0  0  0  0  0  0  0  0  0  0
    2.0863   -3.8681    0.0000 H   0  0  0  0  0  0  0  0  0  0  0  0
    1.3804   -4.5037    0.0000 H   0  0  0  0  0  0  0  0  0  0  0  0
    1.6331   -5.6924    0.0000 H   0  0  0  0  0  0  0  0  0  0  0  0
    2.5365   -5.9860    0.0000 H   0  0  0  0  0  0  0  0  0  0  0  0
    7.0106   -0.4001    0.0000 H   0  0  0  0  0  0  0  0  0  0  0  0
    8.2851   -1.0166    0.0000 H   0  0  0  0  0  0  0  0  0  0  0  0
    7.3213    0.5504    0.0000 H   0  0  0  0  0  0  0  0  0  0  0  0
    9.1989   -2.0064    0.0000 H   0  0  0  0  0  0  0  0  0  0  0  0
    9.6777   -1.2718    0.0000 H   0  0  0  0  0  0  0  0  0  0  0  0
    8.9432   -0.7930    0.0000 H   0  0  0  0  0  0  0  0  0  0  0  0
    7.1925   -2.3638    0.0000 H   0  0  0  0  0  0  0  0  0  0  0  0
    7.5892   -3.1457    0.0000 H   0  0  0  0  0  0  0  0  0  0  0  0
    8.3712   -2.7490    0.0000 H   0  0  0  0  0  0  0  0  0  0  0  0
   10.0236    0.8322    0.0000 H   0  0  0  0  0  0  0  0  0  0  0  0
   10.6168    1.3645    0.0000 H   0  0  0  0  0  0  0  0  0  0  0  0
   12.6019    3.1457    0.0000 H   0  0  0  0  0  0  0  0  0  0  0  0
   13.1952    3.6780    0.0000 H   0  0  0  0  0  0  0  0  0  0  0  0
   10.3881    4.5955    0.0000 H   0  0  0  0  0  0  0  0  0  0  0  0
   10.5524    3.8155    0.0000 H   0  0  0  0  0  0  0  0  0  0  0  0
   11.3127    1.9890    0.0000 H   0  0  0  0  0  0  0  0  0  0  0  0
   11.9060    2.5213    0.0000 H   0  0  0  0  0  0  0  0  0  0  0  0
   10.2931    3.0221    0.0000 H   0  0  0  0  0  0  0  0  0  0  0  0
    9.6998    2.4898    0.0000 H   0  0  0  0  0  0  0  0  0  0  0  0
   13.4389    4.4239    0.0000 H   0  0  0  0  0  0  0  0  0  0  0  0
   13.2746    5.2038    0.0000 H   0  0  0  0  0  0  0  0  0  0  0  0
   11.2251    5.8736    0.0000 H   0  0  0  0  0  0  0  0  0  0  0  0
   10.6318    5.3413    0.0000 H   0  0  0  0  0  0  0  0  0  0  0  0
   12.7505    5.7878    0.0000 H   0  0  0  0  0  0  0  0  0  0  0  0
   11.9929    6.0354    0.0000 H   0  0  0  0  0  0  0  0  0  0  0  0
  1 17  2  0  0  0  0
  2 21  2  0  0  0  0
  3 24  2  0  0  0  0
  4 29  1  0  0  0  0
  4 30  1  0  0  0  0
  5 29  2  0  0  0  0
  6 12  1  0  0  0  0
  6 17  1  0  0  0  0
  6 21  1  0  0  0  0
  7 10  1  0  0  0  0
  7 18  1  0  0  0  0
  7 24  1  0  0  0  0
 25  8  1  1  0  0  0
  8 29  1  0  0  0  0
  8 59  1  0  0  0  0
  9 31  1  0  0  0  0
  9 32  1  0  0  0  0
  9 33  1  0  0  0  0
 10 11  1  0  0  0  0
 10 12  1  0  0  0  0
 10 38  1  6  0  0  0
 11 13  1  0  0  0  0
 11 17  1  0  0  0  0
 11 39  1  0  0  0  0
 12 14  1  0  0  0  0
 12 40  1  1  0  0  0
 13 15  1  0  0  0  0
 13 16  1  0  0  0  0
 13 41  1  0  0  0  0
 14 18  1  0  0  0  0
 14 42  1  0  0  0  0
 14 43  1  0  0  0  0
 15 19  1  0  0  0  0
 15 44  1  0  0  0  0
 15 45  1  0  0  0  0
 16 19  1  0  0  0  0
 16 46  1  0  0  0  0
 16 47  1  0  0  0  0
 18 48  1  0  0  0  0
 18 49  1  0  0  0  0
 19 50  1  0  0  0  0
 19 51  1  0  0  0  0
 20 21  1  0  0  0  0
 20 22  1  0  0  0  0
 20 23  1  0  0  0  0
 20 52  1  0  0  0  0
 22 23  1  0  0  0  0
 22 53  1  0  0  0  0
 22 54  1  0  0  0  0
 23 55  1  0  0  0  0
 23 56  1  0  0  0  0
 24 25  1  0  0  0  0
 25 26  1  0  0  0  0
 25 57  1  0  0  0  0
 26 27  1  0  0  0  0
 26 28  1  0  0  0  0
 26 58  1  0  0  0  0
 27 60  1  0  0  0  0
 27 61  1  0  0  0  0
 27 62  1  0  0  0  0
 28 63  1  0  0  0  0
 28 64  1  0  0  0  0
 28 65  1  0  0  0  0
 30 34  1  0  0  0  0
 30 66  1  0  0  0  0
 30 67  1  0  0  0  0
 31 34  1  0  0  0  0
 31 72  1  0  0  0  0
 31 73  1  0  0  0  0
 32 35  1  0  0  0  0
 32 68  1  0  0  0  0
 32 69  1  0  0  0  0
 33 36  1  0  0  0  0
 33 70  1  0  0  0  0
 33 71  1  0  0  0  0
 34 74  1  0  0  0  0
 34 75  1  0  0  0  0
 35 37  1  0  0  0  0
 35 76  1  0  0  0  0
 35 77  1  0  0  0  0
 36 37  1  0  0  0  0
 36 78  1  0  0  0  0
 36 79  1  0  0  0  0
 37 80  1  0  0  0  0
 37 81  1  0  0  0  0
M  END
> <PUBCHEM_COMPOUND_CID>
506164
> <PUBCHEM_COMPOUND_CANONICALIZED>
1
> <PUBCHEM_CACTVS_COMPLEXITY>
880
> <PUBCHEM_CACTVS_HBOND_ACCEPTOR>
6
> <PUBCHEM_CACTVS_HBOND_DONOR>
1
> <PUBCHEM_CACTVS_ROTATABLE_BOND>
10
> <PUBCHEM_CACTVS_SUBSKEYS>
AAADcfB7uAAAAAAAAAAAAAAAGABgAWLAAAAsAAAAAAAWAAAAAAAAHgAQAAAADSjhgAYCCAPABAAIAAEQGAAAAAAAAAAAAIGIAAEAQBoAwCAcAAACFiCAAAEciMAOgAAAAAAAAAAAAAAAAAAAAAAAAAAAAA==
> <PUBCHEM_IUPAC_OPENEYE_NAME>
3-(1-piperidyl)propyl N-[(1S)-1-[(3aS,6aR)-6-cyclobutyl-4-(cyclopropanecarbonyl)-5-oxo-3,3a,6,6a-tetrahydro-2H-pyrrolo[3,2-b]pyrrole-1-carbonyl]-2-methyl-propyl]carbamate
> <PUBCHEM_IUPAC_CAS_NAME>
N-[(2S)-1-[(3aS,6aR)-6-cyclobutyl-4-[cyclopropyl(oxo)methyl]-5-oxo-3,3a,6,6a-tetrahydro-2H-pyrrolo[3,2-b]pyrrol-1-yl]-3-methyl-1-oxobutan-2-yl]carbamic acid 3-(1-piperidinyl)propyl ester
> <PUBCHEM_IUPAC_NAME_MARKUP>
3-piperidin-1-ylpropyl <I>N</I>-[(2<I>S</I>)-1-[(3<I>a</I><I>S</I>,6<I>a</I><I>R</I>)-6-cyclobutyl-4-(cyclopropanecarbonyl)-5-oxo-3,3<I>a</I>,6,6<I>a</I>-tetrahydro-2<I>H</I>-pyrrolo[3,2-b]pyrrol-1-yl]-3-methyl-1-oxobutan-2-yl]carbamate
> <PUBCHEM_IUPAC_NAME>
3-piperidin-1-ylpropyl N-[(2S)-1-[(3aS,6aR)-6-cyclobutyl-4-(cyclopropanecarbonyl)-5-oxo-3,3a,6,6a-tetrahydro-2H-pyrrolo[3,2-b]pyrrol-1-yl]-3-methyl-1-oxobutan-2-yl]carbamate
> <PUBCHEM_IUPAC_SYSTEMATIC_NAME>
3-piperidin-1-ylpropyl N-[(2S)-1-[(3aS,6aR)-6-cyclobutyl-4-cyclopropylcarbonyl-5-oxidanylidene-3,3a,6,6a-tetrahydro-2H-pyrrolo[3,2-b]pyrrol-1-yl]-3-methyl-1-oxidanylidene-butan-2-yl]carbamate
> <PUBCHEM_IUPAC_TRADITIONAL_NAME>
N-[(1S)-1-[(3aS,6aR)-6-cyclobutyl-4-(cyclopropanecarbonyl)-5-keto-3,3a,6,6a-tetrahydro-2H-pyrrolo[3,2-b]pyrrole-1-carbonyl]-2-methyl-propyl]carbamic acid 3-piperidinopropyl ester
> <PUBCHEM_IUPAC_INCHI>
InChI=1S/C28H44N4O5/c1-18(2)23(29-28(36)37-17-7-15-30-13-4-3-5-14-30)27(35)31-16-12-21-24(31)22(19-8-6-9-19)26(34)32(21)25(33)20-10-11-20/h18-24H,3-17H2,1-2H3,(H,29,36)/t21-,22?,23-,24-/m0/s1
> <PUBCHEM_IUPAC_INCHIKEY>
IQJYQDQZWOCVKO-CNTOOOFYSA-N
> <PUBCHEM_XLOGP3_AA>
3.5
> <PUBCHEM_EXACT_MASS>
516.33117052
> <PUBCHEM_MOLECULAR_FORMULA>
C28H44N4O5
> <PUBCHEM_MOLECULAR_WEIGHT>
516.7
> <PUBCHEM_OPENEYE_CAN_SMILES>
CC(C)C(C(=O)N1CCC2C1C(C(=O)N2C(=O)C3CC3)C4CCC4)NC(=O)OCCCN5CCCCC5
> <PUBCHEM_OPENEYE_ISO_SMILES>
CC(C)[C@@H](C(=O)N1CC[C@H]2[C@H]1C(C(=O)N2C(=O)C3CC3)C4CCC4)NC(=O)OCCCN5CCCCC5
> <PUBCHEM_CACTVS_TPSA>
99.3
> <PUBCHEM_MONOISOTOPIC_WEIGHT>
516.33117052
> <PUBCHEM_TOTAL_CHARGE>
0
> <PUBCHEM_HEAVY_ATOM_COUNT>
37
> <PUBCHEM_ATOM_DEF_STEREO_COUNT>
3
> <PUBCHEM_ATOM_UDEF_STEREO_COUNT>
1
> <PUBCHEM_BOND_DEF_STEREO_COUNT>
0
> <PUBCHEM_BOND_UDEF_STEREO_COUNT>
0
> <PUBCHEM_ISOTOPIC_ATOM_COUNT>
0
> <PUBCHEM_COMPONENT_COUNT>
1
> <PUBCHEM_CACTVS_TAUTO_COUNT>
-1
> <PUBCHEM_COORDINATE_TYPE>
1
5
255
> <PUBCHEM_BONDANNOTATIONS>
10  38  6
11  13  3
12  40  5
25  8  5
$$$$
