506123
  -OEChem-10302200282D
 48 48  0     1  0  0  0  0  0999 V2000
    4.5981   -2.0600    0.0000 O   0  0  0  0  0  0  0  0  0  0  0  0
    7.1962    2.4400    0.0000 O   0  0  0  0  0  0  0  0  0  0  0  0
    2.8660    0.9400    0.0000 O   0  0  0  0  0  0  0  0  0  0  0  0
    8.0622    0.9400    0.0000 O   0  0  0  0  0  0  0  0  0  0  0  0
    5.4641   -0.5600    0.0000 N   0  0  0  0  0  0  0  0  0  0  0  0
    3.7320   -0.5600    0.0000 N   0  0  0  0  0  0  0  0  0  0  0  0
    6.3301   -0.0600    0.0000 N   0  0  0  0  0  0  0  0  0  0  0  0
    3.7320    1.4400    0.0000 N   0  0  0  0  0  0  0  0  0  0  0  0
    2.8660    2.9400    0.0000 N   0  0  0  0  0  0  0  0  0  0  0  0
    4.5981    2.9400    0.0000 N   0  0  0  0  0  0  0  0  0  0  0  0
    4.5981   -0.0600    0.0000 C   0  0  2  0  0  0  0  0  0  0  0  0
    4.5981    0.9400    0.0000 C   0  0  2  0  0  0  0  0  0  0  0  0
    6.3301   -2.0600    0.0000 C   0  0  0  0  0  0  0  0  0  0  0  0
    5.4641    1.4400    0.0000 C   0  0  0  0  0  0  0  0  0  0  0  0
    5.4641   -1.5600    0.0000 C   0  0  0  0  0  0  0  0  0  0  0  0
    6.3301    0.9400    0.0000 C   0  0  0  0  0  0  0  0  0  0  0  0
    6.3301   -3.0600    0.0000 C   0  0  0  0  0  0  0  0  0  0  0  0
    7.1962   -1.5600    0.0000 C   0  0  0  0  0  0  0  0  0  0  0  0
    7.1962   -3.5600    0.0000 C   0  0  0  0  0  0  0  0  0  0  0  0
    8.0622   -2.0600    0.0000 C   0  0  0  0  0  0  0  0  0  0  0  0
    2.8660   -0.0600    0.0000 C   0  0  0  0  0  0  0  0  0  0  0  0
    7.1962    1.4400    0.0000 C   0  0  0  0  0  0  0  0  0  0  0  0
    3.7320    2.4400    0.0000 C   0  0  0  0  0  0  0  0  0  0  0  0
    2.0000   -0.5600    0.0000 C   0  0  0  0  0  0  0  0  0  0  0  0
    4.5981   -0.6800    0.0000 H   0  0  0  0  0  0  0  0  0  0  0  0
    4.0611    0.6300    0.0000 H   0  0  0  0  0  0  0  0  0  0  0  0
    6.8671   -2.3700    0.0000 H   0  0  0  0  0  0  0  0  0  0  0  0
    5.8626    1.9150    0.0000 H   0  0  0  0  0  0  0  0  0  0  0  0
    5.0656    1.9150    0.0000 H   0  0  0  0  0  0  0  0  0  0  0  0
    5.7196   -2.9523    0.0000 H   0  0  0  0  0  0  0  0  0  0  0  0
    6.1181   -3.6426    0.0000 H   0  0  0  0  0  0  0  0  0  0  0  0
    7.5947   -1.0850    0.0000 H   0  0  0  0  0  0  0  0  0  0  0  0
    6.7976   -1.0850    0.0000 H   0  0  0  0  0  0  0  0  0  0  0  0
    3.7320   -1.1800    0.0000 H   0  0  0  0  0  0  0  0  0  0  0  0
    6.8862   -4.0969    0.0000 H   0  0  0  0  0  0  0  0  0  0  0  0
    7.7331   -3.8700    0.0000 H   0  0  0  0  0  0  0  0  0  0  0  0
    7.5062   -3.0231    0.0000 H   0  0  0  0  0  0  0  0  0  0  0  0
    7.7522   -2.5969    0.0000 H   0  0  0  0  0  0  0  0  0  0  0  0
    8.5991   -2.3700    0.0000 H   0  0  0  0  0  0  0  0  0  0  0  0
    8.3722   -1.5231    0.0000 H   0  0  0  0  0  0  0  0  0  0  0  0
    1.6900   -0.0231    0.0000 H   0  0  0  0  0  0  0  0  0  0  0  0
    1.4631   -0.8700    0.0000 H   0  0  0  0  0  0  0  0  0  0  0  0
    2.3100   -1.0969    0.0000 H   0  0  0  0  0  0  0  0  0  0  0  0
    2.8660    3.5600    0.0000 H   0  0  0  0  0  0  0  0  0  0  0  0
    2.3291    2.6300    0.0000 H   0  0  0  0  0  0  0  0  0  0  0  0
    4.5981    3.5600    0.0000 H   0  0  0  0  0  0  0  0  0  0  0  0
    5.1350    2.6300    0.0000 H   0  0  0  0  0  0  0  0  0  0  0  0
    7.7331    2.7500    0.0000 H   0  0  0  0  0  0  0  0  0  0  0  0
  1 15  2  0  0  0  0
  2 22  1  0  0  0  0
  2 48  1  0  0  0  0
  3 21  2  0  0  0  0
  4 22  2  0  0  0  0
  5  7  1  0  0  0  0
  5 11  1  0  0  0  0
  5 15  1  0  0  0  0
 11  6  1  6  0  0  0
  6 21  1  0  0  0  0
  6 34  1  0  0  0  0
  7 16  2  0  0  0  0
 12  8  1  1  0  0  0
  8 23  2  0  0  0  0
  9 23  1  0  0  0  0
  9 44  1  0  0  0  0
  9 45  1  0  0  0  0
 10 23  1  0  0  0  0
 10 46  1  0  0  0  0
 10 47  1  0  0  0  0
 11 12  1  0  0  0  0
 11 25  1  0  0  0  0
 12 14  1  0  0  0  0
 12 26  1  0  0  0  0
 13 15  1  0  0  0  0
 13 17  1  0  0  0  0
 13 18  1  0  0  0  0
 13 27  1  0  0  0  0
 14 16  1  0  0  0  0
 14 28  1  0  0  0  0
 14 29  1  0  0  0  0
 16 22  1  0  0  0  0
 17 19  1  0  0  0  0
 17 30  1  0  0  0  0
 17 31  1  0  0  0  0
 18 20  1  0  0  0  0
 18 32  1  0  0  0  0
 18 33  1  0  0  0  0
 19 35  1  0  0  0  0
 19 36  1  0  0  0  0
 19 37  1  0  0  0  0
 20 38  1  0  0  0  0
 20 39  1  0  0  0  0
 20 40  1  0  0  0  0
 21 24  1  0  0  0  0
 24 41  1  0  0  0  0
 24 42  1  0  0  0  0
 24 43  1  0  0  0  0
M  END
> <PUBCHEM_COMPOUND_CID>
506123
> <PUBCHEM_COMPOUND_CANONICALIZED>
1
> <PUBCHEM_CACTVS_COMPLEXITY>
566
> <PUBCHEM_CACTVS_HBOND_ACCEPTOR>
6
> <PUBCHEM_CACTVS_HBOND_DONOR>
4
> <PUBCHEM_CACTVS_ROTATABLE_BOND>
6
> <PUBCHEM_CACTVS_SUBSKEYS>
AAADceBzuAAAAAAAAAAAAAAAAAAAAAAAAAAgAAAAAAAAAAAAAAAAHgAYCAAADSjBgAQDCALAAgAoAQGwPAQQAAEAAAAWAIE4AACAQBIAgAAUQAAcHwKAAAC8EQIKAAAAAAAAAAAAAAAAAAAAAAAAAAAAAA==
> <PUBCHEM_IUPAC_OPENEYE_NAME>
(3S,4S)-3-acetamido-2-(2-ethylbutanoyl)-4-guanidino-4,5-dihydro-3H-pyridazine-6-carboxylic acid
> <PUBCHEM_IUPAC_CAS_NAME>
(3S,4S)-3-acetamido-4-(diaminomethylideneamino)-2-(2-ethyl-1-oxobutyl)-4,5-dihydro-3H-pyridazine-6-carboxylic acid
> <PUBCHEM_IUPAC_NAME_MARKUP>
(3<I>S</I>,4<I>S</I>)-3-acetamido-4-(diaminomethylideneamino)-2-(2-ethylbutanoyl)-4,5-dihydro-3<I>H</I>-pyridazine-6-carboxylic acid
> <PUBCHEM_IUPAC_NAME>
(3S,4S)-3-acetamido-4-(diaminomethylideneamino)-2-(2-ethylbutanoyl)-4,5-dihydro-3H-pyridazine-6-carboxylic acid
> <PUBCHEM_IUPAC_SYSTEMATIC_NAME>
(3S,4S)-3-acetamido-4-[bis(azanyl)methylideneamino]-2-(2-ethylbutanoyl)-4,5-dihydro-3H-pyridazine-6-carboxylic acid
> <PUBCHEM_IUPAC_TRADITIONAL_NAME>
(3S,4S)-3-acetamido-2-(2-ethylbutanoyl)-4-guanidino-4,5-dihydro-3H-pyridazine-6-carboxylic acid
> <PUBCHEM_IUPAC_INCHI>
InChI=1S/C14H24N6O4/c1-4-8(5-2)12(22)20-11(17-7(3)21)9(18-14(15)16)6-10(19-20)13(23)24/h8-9,11H,4-6H2,1-3H3,(H,17,21)(H,23,24)(H4,15,16,18)/t9-,11-/m0/s1
> <PUBCHEM_IUPAC_INCHIKEY>
MGGCSOSTPBUNLV-ONGXEEELSA-N
> <PUBCHEM_XLOGP3_AA>
-0.6
> <PUBCHEM_EXACT_MASS>
340.18590327
> <PUBCHEM_MOLECULAR_FORMULA>
C14H24N6O4
> <PUBCHEM_MOLECULAR_WEIGHT>
340.38
> <PUBCHEM_OPENEYE_CAN_SMILES>
CCC(CC)C(=O)N1C(C(CC(=N1)C(=O)O)N=C(N)N)NC(=O)C
> <PUBCHEM_OPENEYE_ISO_SMILES>
CCC(CC)C(=O)N1[C@@H]([C@H](CC(=N1)C(=O)O)N=C(N)N)NC(=O)C
> <PUBCHEM_CACTVS_TPSA>
164
> <PUBCHEM_MONOISOTOPIC_WEIGHT>
340.18590327
> <PUBCHEM_TOTAL_CHARGE>
0
> <PUBCHEM_HEAVY_ATOM_COUNT>
24
> <PUBCHEM_ATOM_DEF_STEREO_COUNT>
2
> <PUBCHEM_ATOM_UDEF_STEREO_COUNT>
0
> <PUBCHEM_BOND_DEF_STEREO_COUNT>
0
> <PUBCHEM_BOND_UDEF_STEREO_COUNT>
0
> <PUBCHEM_ISOTOPIC_ATOM_COUNT>
0
> <PUBCHEM_COMPONENT_COUNT>
1
> <PUBCHEM_CACTVS_TAUTO_COUNT>
-1
> <PUBCHEM_COORDINATE_TYPE>
1
5
255
> <PUBCHEM_BONDANNOTATIONS>
11  6  6
12  8  5
$$$$
