506121
  -OEChem-10302200282D
 50 51  0     1  0  0  0  0  0999 V2000
    2.0924    1.2354    0.0000 O   0  0  0  0  0  0  0  0  0  0  0  0
    2.9740   -2.9403    0.0000 O   0  0  0  0  0  0  0  0  0  0  0  0
    2.1080   -1.4403    0.0000 O   0  0  0  0  0  0  0  0  0  0  0  0
    7.9381   -0.8063    0.0000 O   0  0  0  0  0  0  0  0  0  0  0  0
    4.7061    1.0597    0.0000 N   0  0  3  0  0  0  0  0  0  0  0  0
    6.4381    0.0597    0.0000 N   0  0  0  0  0  0  0  0  0  0  0  0
    6.4381   -1.9403    0.0000 N   0  0  0  0  0  0  0  0  0  0  0  0
    4.7061    0.0597    0.0000 C   0  0  1  0  0  0  0  0  0  0  0  0
    5.5721   -0.4403    0.0000 C   0  0  1  0  0  0  0  0  0  0  0  0
    3.8051    1.4936    0.0000 C   0  0  2  0  0  0  0  0  0  0  0  0
    5.5721   -1.4403    0.0000 C   0  0  2  0  0  0  0  0  0  0  0  0
    5.6070    1.4936    0.0000 C   0  0  0  0  0  0  0  0  0  0  0  0
    3.5826    2.4685    0.0000 C   0  0  0  0  0  0  0  0  0  0  0  0
    5.8296    2.4685    0.0000 C   0  0  0  0  0  0  0  0  0  0  0  0
    3.8400   -0.4403    0.0000 C   0  0  0  0  0  0  0  0  0  0  0  0
    4.7061   -1.9403    0.0000 C   0  0  0  0  0  0  0  0  0  0  0  0
    4.2061    3.2503    0.0000 C   0  0  0  0  0  0  0  0  0  0  0  0
    5.2061    3.2503    0.0000 C   0  0  0  0  0  0  0  0  0  0  0  0
    3.8400   -1.4403    0.0000 C   0  0  0  0  0  0  0  0  0  0  0  0
    3.0233    0.8701    0.0000 C   0  0  0  0  0  0  0  0  0  0  0  0
    2.9740   -1.9403    0.0000 C   0  0  0  0  0  0  0  0  0  0  0  0
    7.4381    0.0597    0.0000 C   0  0  0  0  0  0  0  0  0  0  0  0
    7.9381    0.9257    0.0000 C   0  0  0  0  0  0  0  0  0  0  0  0
    4.1691    0.3697    0.0000 H   0  0  0  0  0  0  0  0  0  0  0  0
    5.5721    0.1797    0.0000 H   0  0  0  0  0  0  0  0  0  0  0  0
    3.8745    0.8775    0.0000 H   0  0  0  0  0  0  0  0  0  0  0  0
    5.5721   -2.0603    0.0000 H   0  0  0  0  0  0  0  0  0  0  0  0
    5.7450    0.8891    0.0000 H   0  0  0  0  0  0  0  0  0  0  0  0
    6.2270    1.4936    0.0000 H   0  0  0  0  0  0  0  0  0  0  0  0
    3.1960    2.9532    0.0000 H   0  0  0  0  0  0  0  0  0  0  0  0
    3.0240    2.1995    0.0000 H   0  0  0  0  0  0  0  0  0  0  0  0
    6.3882    2.1995    0.0000 H   0  0  0  0  0  0  0  0  0  0  0  0
    6.2161    2.9532    0.0000 H   0  0  0  0  0  0  0  0  0  0  0  0
    3.3031   -0.1303    0.0000 H   0  0  0  0  0  0  0  0  0  0  0  0
    4.3076   -2.4153    0.0000 H   0  0  0  0  0  0  0  0  0  0  0  0
    5.1046   -2.4153    0.0000 H   0  0  0  0  0  0  0  0  0  0  0  0
    4.3440    3.8548    0.0000 H   0  0  0  0  0  0  0  0  0  0  0  0
    3.6475    3.5193    0.0000 H   0  0  0  0  0  0  0  0  0  0  0  0
    5.7647    3.5193    0.0000 H   0  0  0  0  0  0  0  0  0  0  0  0
    5.0681    3.8548    0.0000 H   0  0  0  0  0  0  0  0  0  0  0  0
    2.7000    0.3410    0.0000 H   0  0  0  0  0  0  0  0  0  0  0  0
    3.4881    0.4598    0.0000 H   0  0  0  0  0  0  0  0  0  0  0  0
    6.4381    0.6797    0.0000 H   0  0  0  0  0  0  0  0  0  0  0  0
    6.4381   -2.5603    0.0000 H   0  0  0  0  0  0  0  0  0  0  0  0
    7.0581   -1.9403    0.0000 H   0  0  0  0  0  0  0  0  0  0  0  0
    2.0000    1.8485    0.0000 H   0  0  0  0  0  0  0  0  0  0  0  0
    8.4751    0.6157    0.0000 H   0  0  0  0  0  0  0  0  0  0  0  0
    8.2481    1.4626    0.0000 H   0  0  0  0  0  0  0  0  0  0  0  0
    7.4012    1.2357    0.0000 H   0  0  0  0  0  0  0  0  0  0  0  0
    2.4371   -3.2503    0.0000 H   0  0  0  0  0  0  0  0  0  0  0  0
  1 20  1  0  0  0  0
  1 46  1  0  0  0  0
  2 21  1  0  0  0  0
  2 50  1  0  0  0  0
  3 21  2  0  0  0  0
  4 22  2  0  0  0  0
  8  5  1  1  0  0  0
  5 10  1  0  0  0  0
  5 12  1  0  0  0  0
  9  6  1  6  0  0  0
  6 22  1  0  0  0  0
  6 43  1  0  0  0  0
 11  7  1  1  0  0  0
  7 44  1  0  0  0  0
  7 45  1  0  0  0  0
  8  9  1  0  0  0  0
  8 15  1  0  0  0  0
  8 24  1  0  0  0  0
  9 11  1  0  0  0  0
  9 25  1  0  0  0  0
 10 13  1  0  0  0  0
 10 20  1  1  0  0  0
 10 26  1  0  0  0  0
 11 16  1  0  0  0  0
 11 27  1  0  0  0  0
 12 14  1  0  0  0  0
 12 28  1  0  0  0  0
 12 29  1  0  0  0  0
 13 17  1  0  0  0  0
 13 30  1  0  0  0  0
 13 31  1  0  0  0  0
 14 18  1  0  0  0  0
 14 32  1  0  0  0  0
 14 33  1  0  0  0  0
 15 19  2  0  0  0  0
 15 34  1  0  0  0  0
 16 19  1  0  0  0  0
 16 35  1  0  0  0  0
 16 36  1  0  0  0  0
 17 18  1  0  0  0  0
 17 37  1  0  0  0  0
 17 38  1  0  0  0  0
 18 39  1  0  0  0  0
 18 40  1  0  0  0  0
 19 21  1  0  0  0  0
 20 41  1  0  0  0  0
 20 42  1  0  0  0  0
 22 23  1  0  0  0  0
 23 47  1  0  0  0  0
 23 48  1  0  0  0  0
 23 49  1  0  0  0  0
M  END
> <PUBCHEM_COMPOUND_CID>
506121
> <PUBCHEM_COMPOUND_CANONICALIZED>
1
> <PUBCHEM_CACTVS_COMPLEXITY>
480
> <PUBCHEM_CACTVS_HBOND_ACCEPTOR>
6
> <PUBCHEM_CACTVS_HBOND_DONOR>
4
> <PUBCHEM_CACTVS_ROTATABLE_BOND>
4
> <PUBCHEM_CACTVS_SUBSKEYS>
AAADceB7OAAAAAAAAAAAAAAAAAAAAAAAAAAgAAAABYAAAAAAAAAAHgAQCAAADCjhgAYCCAPAAgCIAiHSGACAAAAgAAAACIEIAEgCVBIAwQAUUAAElgCYEYO82SOQAAAAAAAAAAAAAAAAAAAAAAAAAAAAAA==
> <PUBCHEM_IUPAC_OPENEYE_NAME>
(3R,4R,5S)-4-acetamido-5-amino-3-[(2R)-2-(hydroxymethyl)azepan-1-yl]cyclohexene-1-carboxylic acid
> <PUBCHEM_IUPAC_CAS_NAME>
(3R,4R,5S)-4-acetamido-5-amino-3-[(2R)-2-(hydroxymethyl)-1-azepanyl]-1-cyclohexenecarboxylic acid
> <PUBCHEM_IUPAC_NAME_MARKUP>
(3<I>R</I>,4<I>R</I>,5<I>S</I>)-4-acetamido-5-amino-3-[(2<I>R</I>)-2-(hydroxymethyl)azepan-1-yl]cyclohexene-1-carboxylic acid
> <PUBCHEM_IUPAC_NAME>
(3R,4R,5S)-4-acetamido-5-amino-3-[(2R)-2-(hydroxymethyl)azepan-1-yl]cyclohexene-1-carboxylic acid
> <PUBCHEM_IUPAC_SYSTEMATIC_NAME>
(3R,4R,5S)-4-acetamido-5-azanyl-3-[(2R)-2-(hydroxymethyl)azepan-1-yl]cyclohexene-1-carboxylic acid
> <PUBCHEM_IUPAC_TRADITIONAL_NAME>
(3R,4R,5S)-4-acetamido-5-amino-3-[(2R)-2-methylolazepan-1-yl]cyclohexene-1-carboxylic acid
> <PUBCHEM_IUPAC_INCHI>
InChI=1S/C16H27N3O4/c1-10(21)18-15-13(17)7-11(16(22)23)8-14(15)19-6-4-2-3-5-12(19)9-20/h8,12-15,20H,2-7,9,17H2,1H3,(H,18,21)(H,22,23)/t12-,13+,14-,15-/m1/s1
> <PUBCHEM_IUPAC_INCHIKEY>
IIIHFJUFPWPHFQ-LXTVHRRPSA-N
> <PUBCHEM_XLOGP3_AA>
-3
> <PUBCHEM_EXACT_MASS>
325.20015635
> <PUBCHEM_MOLECULAR_FORMULA>
C16H27N3O4
> <PUBCHEM_MOLECULAR_WEIGHT>
325.40
> <PUBCHEM_OPENEYE_CAN_SMILES>
CC(=O)NC1C(CC(=CC1N2CCCCCC2CO)C(=O)O)N
> <PUBCHEM_OPENEYE_ISO_SMILES>
CC(=O)N[C@@H]1[C@H](CC(=C[C@H]1N2CCCCC[C@@H]2CO)C(=O)O)N
> <PUBCHEM_CACTVS_TPSA>
116
> <PUBCHEM_MONOISOTOPIC_WEIGHT>
325.20015635
> <PUBCHEM_TOTAL_CHARGE>
0
> <PUBCHEM_HEAVY_ATOM_COUNT>
23
> <PUBCHEM_ATOM_DEF_STEREO_COUNT>
4
> <PUBCHEM_ATOM_UDEF_STEREO_COUNT>
0
> <PUBCHEM_BOND_DEF_STEREO_COUNT>
0
> <PUBCHEM_BOND_UDEF_STEREO_COUNT>
0
> <PUBCHEM_ISOTOPIC_ATOM_COUNT>
0
> <PUBCHEM_COMPONENT_COUNT>
1
> <PUBCHEM_CACTVS_TAUTO_COUNT>
-1
> <PUBCHEM_COORDINATE_TYPE>
1
5
255
> <PUBCHEM_BONDANNOTATIONS>
10  20  5
8  5  5
9  6  6
11  7  5
$$$$
