506113
  -OEChem-10302200282D
 52 53  0     1  0  0  0  0  0999 V2000
    8.8356    2.0491    0.0000 O   0  0  0  0  0  0  0  0  0  0  0  0
    7.3356    2.9151    0.0000 O   0  0  0  0  0  0  0  0  0  0  0  0
    6.7017   -2.9150    0.0000 O   0  0  0  0  0  0  0  0  0  0  0  0
    4.8356    0.3170    0.0000 N   0  0  0  0  0  0  0  0  0  0  0  0
    5.8356   -1.4150    0.0000 N   0  0  0  0  0  0  0  0  0  0  0  0
    7.8356   -1.4150    0.0000 N   0  0  0  0  0  0  0  0  0  0  0  0
    5.8356    0.3170    0.0000 C   0  0  1  0  0  0  0  0  0  0  0  0
    6.3356   -0.5490    0.0000 C   0  0  1  0  0  0  0  0  0  0  0  0
    7.3356   -0.5490    0.0000 C   0  0  2  0  0  0  0  0  0  0  0  0
    7.8356    0.3170    0.0000 C   0  0  0  0  0  0  0  0  0  0  0  0
    4.4936   -0.6227    0.0000 C   0  0  0  0  0  0  0  0  0  0  0  0
    4.4936    1.2567    0.0000 C   0  0  0  0  0  0  0  0  0  0  0  0
    6.3356    1.1830    0.0000 C   0  0  0  0  0  0  0  0  0  0  0  0
    7.3356    1.1830    0.0000 C   0  0  0  0  0  0  0  0  0  0  0  0
    3.6276   -1.1227    0.0000 C   0  0  0  0  0  0  0  0  0  0  0  0
    3.6276    1.7567    0.0000 C   0  0  0  0  0  0  0  0  0  0  0  0
    2.6428   -0.9490    0.0000 C   0  0  0  0  0  0  0  0  0  0  0  0
    2.6428    1.5831    0.0000 C   0  0  0  0  0  0  0  0  0  0  0  0
    2.0000   -0.1830    0.0000 C   0  0  0  0  0  0  0  0  0  0  0  0
    2.0000    0.8170    0.0000 C   0  0  0  0  0  0  0  0  0  0  0  0
    7.8356    2.0491    0.0000 C   0  0  0  0  0  0  0  0  0  0  0  0
    5.8356   -2.4150    0.0000 C   0  0  0  0  0  0  0  0  0  0  0  0
    4.9697   -2.9151    0.0000 C   0  0  0  0  0  0  0  0  0  0  0  0
    5.5256   -0.2199    0.0000 H   0  0  0  0  0  0  0  0  0  0  0  0
    6.6456   -1.0860    0.0000 H   0  0  0  0  0  0  0  0  0  0  0  0
    7.9556   -0.5490    0.0000 H   0  0  0  0  0  0  0  0  0  0  0  0
    8.3106   -0.0815    0.0000 H   0  0  0  0  0  0  0  0  0  0  0  0
    8.3106    0.7155    0.0000 H   0  0  0  0  0  0  0  0  0  0  0  0
    4.6366   -1.2260    0.0000 H   0  0  0  0  0  0  0  0  0  0  0  0
    5.1126   -0.6587    0.0000 H   0  0  0  0  0  0  0  0  0  0  0  0
    5.1126    1.2928    0.0000 H   0  0  0  0  0  0  0  0  0  0  0  0
    4.6366    1.8600    0.0000 H   0  0  0  0  0  0  0  0  0  0  0  0
    6.0256    1.7200    0.0000 H   0  0  0  0  0  0  0  0  0  0  0  0
    3.3493   -1.6767    0.0000 H   0  0  0  0  0  0  0  0  0  0  0  0
    4.0786   -1.5482    0.0000 H   0  0  0  0  0  0  0  0  0  0  0  0
    4.0786    2.1822    0.0000 H   0  0  0  0  0  0  0  0  0  0  0  0
    3.3493    2.3108    0.0000 H   0  0  0  0  0  0  0  0  0  0  0  0
    5.2156   -1.4150    0.0000 H   0  0  0  0  0  0  0  0  0  0  0  0
    2.0735   -1.1946    0.0000 H   0  0  0  0  0  0  0  0  0  0  0  0
    2.7148   -1.5648    0.0000 H   0  0  0  0  0  0  0  0  0  0  0  0
    2.7148    2.1989    0.0000 H   0  0  0  0  0  0  0  0  0  0  0  0
    2.0735    1.8286    0.0000 H   0  0  0  0  0  0  0  0  0  0  0  0
    1.4060   -0.0052    0.0000 H   0  0  0  0  0  0  0  0  0  0  0  0
    1.6593   -0.7010    0.0000 H   0  0  0  0  0  0  0  0  0  0  0  0
    1.6593    1.3350    0.0000 H   0  0  0  0  0  0  0  0  0  0  0  0
    1.4060    0.6392    0.0000 H   0  0  0  0  0  0  0  0  0  0  0  0
    8.4556   -1.4150    0.0000 H   0  0  0  0  0  0  0  0  0  0  0  0
    7.8357   -2.0350    0.0000 H   0  0  0  0  0  0  0  0  0  0  0  0
    4.6597   -2.3782    0.0000 H   0  0  0  0  0  0  0  0  0  0  0  0
    4.4328   -3.2251    0.0000 H   0  0  0  0  0  0  0  0  0  0  0  0
    5.2798   -3.4520    0.0000 H   0  0  0  0  0  0  0  0  0  0  0  0
    9.1456    2.5860    0.0000 H   0  0  0  0  0  0  0  0  0  0  0  0
  1 21  1  0  0  0  0
  1 52  1  0  0  0  0
  2 21  2  0  0  0  0
  3 22  2  0  0  0  0
  7  4  1  6  0  0  0
  4 11  1  0  0  0  0
  4 12  1  0  0  0  0
  8  5  1  1  0  0  0
  5 22  1  0  0  0  0
  5 38  1  0  0  0  0
  9  6  1  6  0  0  0
  6 47  1  0  0  0  0
  6 48  1  0  0  0  0
  7  8  1  0  0  0  0
  7 13  1  0  0  0  0
  7 24  1  0  0  0  0
  8  9  1  0  0  0  0
  8 25  1  0  0  0  0
  9 10  1  0  0  0  0
  9 26  1  0  0  0  0
 10 14  1  0  0  0  0
 10 27  1  0  0  0  0
 10 28  1  0  0  0  0
 11 15  1  0  0  0  0
 11 29  1  0  0  0  0
 11 30  1  0  0  0  0
 12 16  1  0  0  0  0
 12 31  1  0  0  0  0
 12 32  1  0  0  0  0
 13 14  2  0  0  0  0
 13 33  1  0  0  0  0
 14 21  1  0  0  0  0
 15 17  1  0  0  0  0
 15 34  1  0  0  0  0
 15 35  1  0  0  0  0
 16 18  1  0  0  0  0
 16 36  1  0  0  0  0
 16 37  1  0  0  0  0
 17 19  1  0  0  0  0
 17 39  1  0  0  0  0
 17 40  1  0  0  0  0
 18 20  1  0  0  0  0
 18 41  1  0  0  0  0
 18 42  1  0  0  0  0
 19 20  1  0  0  0  0
 19 43  1  0  0  0  0
 19 44  1  0  0  0  0
 20 45  1  0  0  0  0
 20 46  1  0  0  0  0
 22 23  1  0  0  0  0
 23 49  1  0  0  0  0
 23 50  1  0  0  0  0
 23 51  1  0  0  0  0
M  END
> <PUBCHEM_COMPOUND_CID>
506113
> <PUBCHEM_COMPOUND_CANONICALIZED>
1
> <PUBCHEM_CACTVS_COMPLEXITY>
454
> <PUBCHEM_CACTVS_HBOND_ACCEPTOR>
5
> <PUBCHEM_CACTVS_HBOND_DONOR>
3
> <PUBCHEM_CACTVS_ROTATABLE_BOND>
3
> <PUBCHEM_CACTVS_SUBSKEYS>
AAADceB7MAAAAAAAAAAAAAAAAAAAAAAAAAAgAAAAAAAAAFgAAAAAHgAQCAAADCjBgAQCCAPAAgCIAiHSGACAAAAgAAAACIEIAEgARBIAwQAUUAAElgCIEYO82aOQAAAAAAAAAAAAAAAAAAAAAAAAAAAAAA==
> <PUBCHEM_IUPAC_OPENEYE_NAME>
(3R,4R,5S)-4-acetamido-5-amino-3-(azonan-1-yl)cyclohexene-1-carboxylic acid
> <PUBCHEM_IUPAC_CAS_NAME>
(3R,4R,5S)-4-acetamido-5-amino-3-(1-azonanyl)-1-cyclohexenecarboxylic acid
> <PUBCHEM_IUPAC_NAME_MARKUP>
(3<I>R</I>,4<I>R</I>,5<I>S</I>)-4-acetamido-5-amino-3-(azonan-1-yl)cyclohexene-1-carboxylic acid
> <PUBCHEM_IUPAC_NAME>
(3R,4R,5S)-4-acetamido-5-amino-3-(azonan-1-yl)cyclohexene-1-carboxylic acid
> <PUBCHEM_IUPAC_SYSTEMATIC_NAME>
(3R,4R,5S)-4-acetamido-5-azanyl-3-(azonan-1-yl)cyclohexene-1-carboxylic acid
> <PUBCHEM_IUPAC_TRADITIONAL_NAME>
(3R,4R,5S)-4-acetamido-5-amino-3-(azonan-1-yl)cyclohexene-1-carboxylic acid
> <PUBCHEM_IUPAC_INCHI>
InChI=1S/C17H29N3O3/c1-12(21)19-16-14(18)10-13(17(22)23)11-15(16)20-8-6-4-2-3-5-7-9-20/h11,14-16H,2-10,18H2,1H3,(H,19,21)(H,22,23)/t14-,15+,16+/m0/s1
> <PUBCHEM_IUPAC_INCHIKEY>
MWQLSGCFGLUGJI-ARFHVFGLSA-N
> <PUBCHEM_XLOGP3_AA>
-1.3
> <PUBCHEM_EXACT_MASS>
323.22089180
> <PUBCHEM_MOLECULAR_FORMULA>
C17H29N3O3
> <PUBCHEM_MOLECULAR_WEIGHT>
323.4
> <PUBCHEM_OPENEYE_CAN_SMILES>
CC(=O)NC1C(CC(=CC1N2CCCCCCCC2)C(=O)O)N
> <PUBCHEM_OPENEYE_ISO_SMILES>
CC(=O)N[C@@H]1[C@H](CC(=C[C@H]1N2CCCCCCCC2)C(=O)O)N
> <PUBCHEM_CACTVS_TPSA>
95.7
> <PUBCHEM_MONOISOTOPIC_WEIGHT>
323.22089180
> <PUBCHEM_TOTAL_CHARGE>
0
> <PUBCHEM_HEAVY_ATOM_COUNT>
23
> <PUBCHEM_ATOM_DEF_STEREO_COUNT>
3
> <PUBCHEM_ATOM_UDEF_STEREO_COUNT>
0
> <PUBCHEM_BOND_DEF_STEREO_COUNT>
0
> <PUBCHEM_BOND_UDEF_STEREO_COUNT>
0
> <PUBCHEM_ISOTOPIC_ATOM_COUNT>
0
> <PUBCHEM_COMPONENT_COUNT>
1
> <PUBCHEM_CACTVS_TAUTO_COUNT>
-1
> <PUBCHEM_COORDINATE_TYPE>
1
5
255
> <PUBCHEM_BONDANNOTATIONS>
7  4  6
8  5  5
9  6  6
$$$$
