506167
  -OEChem-10302200282D
 79 82  0     1  0  0  0  0  0999 V2000
    2.6504   -1.9757    0.0000 O   0  0  0  0  0  0  0  0  0  0  0  0
    4.5983   -4.4789    0.0000 O   0  0  0  0  0  0  0  0  0  0  0  0
    5.7783    0.5239    0.0000 O   0  0  0  0  0  0  0  0  0  0  0  0
    9.3817    0.3983    0.0000 O   0  0  0  0  0  0  0  0  0  0  0  0
   11.2922    3.4560    0.0000 O   0  0  0  0  0  0  0  0  0  0  0  0
    9.6458    3.9941    0.0000 O   0  0  0  0  0  0  0  0  0  0  0  0
    4.2382   -2.7847    0.0000 N   0  0  0  0  0  0  0  0  0  0  0  0
    6.1355   -1.1709    0.0000 N   0  0  0  0  0  0  0  0  0  0  0  0
    7.7353    0.9363    0.0000 N   0  0  0  0  0  0  0  0  0  0  0  0
    9.0245    2.0931    0.0000 N   0  0  0  0  0  0  0  0  0  0  0  0
    5.1893   -1.4757    0.0000 C   0  0  2  0  0  0  0  0  0  0  0  0
    4.2382   -1.1666    0.0000 C   0  0  3  0  0  0  0  0  0  0  0  0
    5.1893   -2.4757    0.0000 C   0  0  2  0  0  0  0  0  0  0  0  0
    3.9292   -0.2156    0.0000 C   0  0  0  0  0  0  0  0  0  0  0  0
    6.1355   -2.7804    0.0000 C   0  0  0  0  0  0  0  0  0  0  0  0
    4.3832    0.6754    0.0000 C   0  0  0  0  0  0  0  0  0  0  0  0
    3.0382    0.2384    0.0000 C   0  0  0  0  0  0  0  0  0  0  0  0
    3.6504   -1.9757    0.0000 C   0  0  0  0  0  0  0  0  0  0  0  0
    6.7191   -1.9757    0.0000 C   0  0  0  0  0  0  0  0  0  0  0  0
    3.4922    1.1294    0.0000 C   0  0  0  0  0  0  0  0  0  0  0  0
    2.9511   -3.9436    0.0000 C   0  0  0  0  0  0  0  0  0  0  0  0
    3.9292   -3.7357    0.0000 C   0  0  0  0  0  0  0  0  0  0  0  0
    2.0000   -3.6346    0.0000 C   0  0  0  0  0  0  0  0  0  0  0  0
    2.2079   -4.6128    0.0000 C   0  0  0  0  0  0  0  0  0  0  0  0
    6.4462   -0.2204    0.0000 C   0  0  0  0  0  0  0  0  0  0  0  0
    7.4247   -0.0142    0.0000 C   0  0  2  0  0  0  0  0  0  0  0  0
    8.0925   -0.7585    0.0000 C   0  0  0  0  0  0  0  0  0  0  0  0
    9.0710   -0.5523    0.0000 C   0  0  0  0  0  0  0  0  0  0  0  0
    7.7818   -1.7090    0.0000 C   0  0  0  0  0  0  0  0  0  0  0  0
    8.7138    1.1426    0.0000 C   0  0  0  0  0  0  0  0  0  0  0  0
   10.0030    2.2993    0.0000 C   0  0  1  0  0  0  0  0  0  0  0  0
   10.6708    1.5550    0.0000 C   0  0  0  0  0  0  0  0  0  0  0  0
   10.3137    3.2498    0.0000 C   0  0  0  0  0  0  0  0  0  0  0  0
   11.6494    1.7612    0.0000 C   0  0  0  0  0  0  0  0  0  0  0  0
   10.3602    0.6045    0.0000 C   0  0  0  0  0  0  0  0  0  0  0  0
   11.6028    4.4066    0.0000 C   0  0  0  0  0  0  0  0  0  0  0  0
   12.5813    4.6128    0.0000 C   0  0  0  0  0  0  0  0  0  0  0  0
    5.1904   -0.6257    0.0000 H   0  0  0  0  0  0  0  0  0  0  0  0
    3.6258   -1.0696    0.0000 H   0  0  0  0  0  0  0  0  0  0  0  0
    5.1904   -3.3257    0.0000 H   0  0  0  0  0  0  0  0  0  0  0  0
    4.5473   -0.2642    0.0000 H   0  0  0  0  0  0  0  0  0  0  0  0
    5.8845   -3.3473    0.0000 H   0  0  0  0  0  0  0  0  0  0  0  0
    6.6729   -3.0896    0.0000 H   0  0  0  0  0  0  0  0  0  0  0  0
    4.9356    0.3940    0.0000 H   0  0  0  0  0  0  0  0  0  0  0  0
    4.6647    1.2279    0.0000 H   0  0  0  0  0  0  0  0  0  0  0  0
    2.4858    0.5199    0.0000 H   0  0  0  0  0  0  0  0  0  0  0  0
    2.7567   -0.3140    0.0000 H   0  0  0  0  0  0  0  0  0  0  0  0
    7.1800   -2.3904    0.0000 H   0  0  0  0  0  0  0  0  0  0  0  0
    7.1800   -1.5609    0.0000 H   0  0  0  0  0  0  0  0  0  0  0  0
    3.7737    1.6818    0.0000 H   0  0  0  0  0  0  0  0  0  0  0  0
    2.9398    1.4109    0.0000 H   0  0  0  0  0  0  0  0  0  0  0  0
    3.2325   -4.4961    0.0000 H   0  0  0  0  0  0  0  0  0  0  0  0
    2.0863   -3.0207    0.0000 H   0  0  0  0  0  0  0  0  0  0  0  0
    1.3804   -3.6563    0.0000 H   0  0  0  0  0  0  0  0  0  0  0  0
    1.6331   -4.8450    0.0000 H   0  0  0  0  0  0  0  0  0  0  0  0
    2.5365   -5.1386    0.0000 H   0  0  0  0  0  0  0  0  0  0  0  0
    7.0106    0.4473    0.0000 H   0  0  0  0  0  0  0  0  0  0  0  0
    8.2851   -0.1692    0.0000 H   0  0  0  0  0  0  0  0  0  0  0  0
    7.3213    1.3978    0.0000 H   0  0  0  0  0  0  0  0  0  0  0  0
    9.1989   -1.1589    0.0000 H   0  0  0  0  0  0  0  0  0  0  0  0
    9.6777   -0.4244    0.0000 H   0  0  0  0  0  0  0  0  0  0  0  0
    8.9432    0.0544    0.0000 H   0  0  0  0  0  0  0  0  0  0  0  0
    7.1925   -1.5164    0.0000 H   0  0  0  0  0  0  0  0  0  0  0  0
    7.5892   -2.2983    0.0000 H   0  0  0  0  0  0  0  0  0  0  0  0
    8.3712   -1.9016    0.0000 H   0  0  0  0  0  0  0  0  0  0  0  0
    8.6104    2.5545    0.0000 H   0  0  0  0  0  0  0  0  0  0  0  0
    9.8104    1.7100    0.0000 H   0  0  0  0  0  0  0  0  0  0  0  0
   10.8635    2.1443    0.0000 H   0  0  0  0  0  0  0  0  0  0  0  0
   11.7772    1.1545    0.0000 H   0  0  0  0  0  0  0  0  0  0  0  0
   12.2560    1.8891    0.0000 H   0  0  0  0  0  0  0  0  0  0  0  0
   11.5215    2.3679    0.0000 H   0  0  0  0  0  0  0  0  0  0  0  0
    9.7709    0.7971    0.0000 H   0  0  0  0  0  0  0  0  0  0  0  0
   10.1676    0.0151    0.0000 H   0  0  0  0  0  0  0  0  0  0  0  0
   10.9495    0.4119    0.0000 H   0  0  0  0  0  0  0  0  0  0  0  0
   11.5823    5.0262    0.0000 H   0  0  0  0  0  0  0  0  0  0  0  0
   10.9890    4.4939    0.0000 H   0  0  0  0  0  0  0  0  0  0  0  0
   12.7092    4.0061    0.0000 H   0  0  0  0  0  0  0  0  0  0  0  0
   13.1880    4.7406    0.0000 H   0  0  0  0  0  0  0  0  0  0  0  0
   12.4535    5.2194    0.0000 H   0  0  0  0  0  0  0  0  0  0  0  0
  1 18  2  0  0  0  0
  2 22  2  0  0  0  0
  3 25  2  0  0  0  0
  4 30  2  0  0  0  0
  5 33  1  0  0  0  0
  5 36  1  0  0  0  0
  6 33  2  0  0  0  0
  7 13  1  0  0  0  0
  7 18  1  0  0  0  0
  7 22  1  0  0  0  0
  8 11  1  0  0  0  0
  8 19  1  0  0  0  0
  8 25  1  0  0  0  0
 26  9  1  1  0  0  0
  9 30  1  0  0  0  0
  9 59  1  0  0  0  0
 10 30  1  0  0  0  0
 31 10  1  6  0  0  0
 10 66  1  0  0  0  0
 11 12  1  0  0  0  0
 11 13  1  0  0  0  0
 11 38  1  6  0  0  0
 12 14  1  0  0  0  0
 12 18  1  0  0  0  0
 12 39  1  0  0  0  0
 13 15  1  0  0  0  0
 13 40  1  1  0  0  0
 14 16  1  0  0  0  0
 14 17  1  0  0  0  0
 14 41  1  0  0  0  0
 15 19  1  0  0  0  0
 15 42  1  0  0  0  0
 15 43  1  0  0  0  0
 16 20  1  0  0  0  0
 16 44  1  0  0  0  0
 16 45  1  0  0  0  0
 17 20  1  0  0  0  0
 17 46  1  0  0  0  0
 17 47  1  0  0  0  0
 19 48  1  0  0  0  0
 19 49  1  0  0  0  0
 20 50  1  0  0  0  0
 20 51  1  0  0  0  0
 21 22  1  0  0  0  0
 21 23  1  0  0  0  0
 21 24  1  0  0  0  0
 21 52  1  0  0  0  0
 23 24  1  0  0  0  0
 23 53  1  0  0  0  0
 23 54  1  0  0  0  0
 24 55  1  0  0  0  0
 24 56  1  0  0  0  0
 25 26  1  0  0  0  0
 26 27  1  0  0  0  0
 26 57  1  0  0  0  0
 27 28  1  0  0  0  0
 27 29  1  0  0  0  0
 27 58  1  0  0  0  0
 28 60  1  0  0  0  0
 28 61  1  0  0  0  0
 28 62  1  0  0  0  0
 29 63  1  0  0  0  0
 29 64  1  0  0  0  0
 29 65  1  0  0  0  0
 31 32  1  0  0  0  0
 31 33  1  0  0  0  0
 31 67  1  0  0  0  0
 32 34  1  0  0  0  0
 32 35  1  0  0  0  0
 32 68  1  0  0  0  0
 34 69  1  0  0  0  0
 34 70  1  0  0  0  0
 34 71  1  0  0  0  0
 35 72  1  0  0  0  0
 35 73  1  0  0  0  0
 35 74  1  0  0  0  0
 36 37  1  0  0  0  0
 36 75  1  0  0  0  0
 36 76  1  0  0  0  0
 37 77  1  0  0  0  0
 37 78  1  0  0  0  0
 37 79  1  0  0  0  0
M  END
> <PUBCHEM_COMPOUND_CID>
506167
> <PUBCHEM_COMPOUND_CANONICALIZED>
1
> <PUBCHEM_CACTVS_COMPLEXITY>
928
> <PUBCHEM_CACTVS_HBOND_ACCEPTOR>
6
> <PUBCHEM_CACTVS_HBOND_DONOR>
2
> <PUBCHEM_CACTVS_ROTATABLE_BOND>
10
> <PUBCHEM_CACTVS_SUBSKEYS>
AAADcfB7uAAAAAAAAAAAAAAAGABgAWLAAAAAAAAAAAAWAAAAAAAAHgAQAAAADSjhgAYDCAPABAAIAAGQGAAAAAAAAAAAAIGIAACCQBoAwCAXAAAMFiKQAAEciMAOgAAAAAAAAAAAAAAAAAAAAAAAAAAAAA==
> <PUBCHEM_IUPAC_OPENEYE_NAME>
ethyl (2S)-2-[[(1S)-1-[(3aS,6aR)-6-cyclobutyl-4-(cyclopropanecarbonyl)-5-oxo-3,3a,6,6a-tetrahydro-2H-pyrrolo[3,2-b]pyrrole-1-carbonyl]-2-methyl-propyl]carbamoylamino]-3-methyl-butanoate
> <PUBCHEM_IUPAC_CAS_NAME>
(2S)-2-[[[[(2S)-1-[(3aS,6aR)-6-cyclobutyl-4-[cyclopropyl(oxo)methyl]-5-oxo-3,3a,6,6a-tetrahydro-2H-pyrrolo[3,2-b]pyrrol-1-yl]-3-methyl-1-oxobutan-2-yl]amino]-oxomethyl]amino]-3-methylbutanoic acid ethyl ester
> <PUBCHEM_IUPAC_NAME_MARKUP>
ethyl (2<I>S</I>)-2-[[(2<I>S</I>)-1-[(3<I>a</I><I>S</I>,6<I>a</I><I>R</I>)-6-cyclobutyl-4-(cyclopropanecarbonyl)-5-oxo-3,3<I>a</I>,6,6<I>a</I>-tetrahydro-2<I>H</I>-pyrrolo[3,2-b]pyrrol-1-yl]-3-methyl-1-oxobutan-2-yl]carbamoylamino]-3-methylbutanoate
> <PUBCHEM_IUPAC_NAME>
ethyl (2S)-2-[[(2S)-1-[(3aS,6aR)-6-cyclobutyl-4-(cyclopropanecarbonyl)-5-oxo-3,3a,6,6a-tetrahydro-2H-pyrrolo[3,2-b]pyrrol-1-yl]-3-methyl-1-oxobutan-2-yl]carbamoylamino]-3-methylbutanoate
> <PUBCHEM_IUPAC_SYSTEMATIC_NAME>
ethyl (2S)-2-[[(2S)-1-[(3aS,6aR)-6-cyclobutyl-4-cyclopropylcarbonyl-5-oxidanylidene-3,3a,6,6a-tetrahydro-2H-pyrrolo[3,2-b]pyrrol-1-yl]-3-methyl-1-oxidanylidene-butan-2-yl]carbamoylamino]-3-methyl-butanoate
> <PUBCHEM_IUPAC_TRADITIONAL_NAME>
(2S)-2-[[(1S)-1-[(3aS,6aR)-6-cyclobutyl-4-(cyclopropanecarbonyl)-5-keto-3,3a,6,6a-tetrahydro-2H-pyrrolo[3,2-b]pyrrole-1-carbonyl]-2-methyl-propyl]carbamoylamino]-3-methyl-butyric acid ethyl ester
> <PUBCHEM_IUPAC_INCHI>
InChI=1S/C27H42N4O6/c1-6-37-26(35)21(15(4)5)29-27(36)28-20(14(2)3)25(34)30-13-12-18-22(30)19(16-8-7-9-16)24(33)31(18)23(32)17-10-11-17/h14-22H,6-13H2,1-5H3,(H2,28,29,36)/t18-,19?,20-,21-,22-/m0/s1
> <PUBCHEM_IUPAC_INCHIKEY>
LKMVRJWOXGZHBV-USSJPZKSSA-N
> <PUBCHEM_XLOGP3_AA>
3.3
> <PUBCHEM_EXACT_MASS>
518.31043507
> <PUBCHEM_MOLECULAR_FORMULA>
C27H42N4O6
> <PUBCHEM_MOLECULAR_WEIGHT>
518.6
> <PUBCHEM_OPENEYE_CAN_SMILES>
CCOC(=O)C(C(C)C)NC(=O)NC(C(C)C)C(=O)N1CCC2C1C(C(=O)N2C(=O)C3CC3)C4CCC4
> <PUBCHEM_OPENEYE_ISO_SMILES>
CCOC(=O)[C@H](C(C)C)NC(=O)N[C@@H](C(C)C)C(=O)N1CC[C@H]2[C@H]1C(C(=O)N2C(=O)C3CC3)C4CCC4
> <PUBCHEM_CACTVS_TPSA>
125
> <PUBCHEM_MONOISOTOPIC_WEIGHT>
518.31043507
> <PUBCHEM_TOTAL_CHARGE>
0
> <PUBCHEM_HEAVY_ATOM_COUNT>
37
> <PUBCHEM_ATOM_DEF_STEREO_COUNT>
4
> <PUBCHEM_ATOM_UDEF_STEREO_COUNT>
1
> <PUBCHEM_BOND_DEF_STEREO_COUNT>
0
> <PUBCHEM_BOND_UDEF_STEREO_COUNT>
0
> <PUBCHEM_ISOTOPIC_ATOM_COUNT>
0
> <PUBCHEM_COMPONENT_COUNT>
1
> <PUBCHEM_CACTVS_TAUTO_COUNT>
-1
> <PUBCHEM_COORDINATE_TYPE>
1
5
255
> <PUBCHEM_BONDANNOTATIONS>
31  10  6
11  38  6
12  14  3
13  40  5
26  9  5
$$$$
