506119
  -OEChem-10302200282D
 52 53  0     1  0  0  0  0  0999 V2000
    8.9282   -2.8060    0.0000 O   0  0  0  0  0  0  0  0  0  0  0  0
    7.1962   -2.8060    0.0000 O   0  0  0  0  0  0  0  0  0  0  0  0
    9.5622    2.5600    0.0000 O   0  0  0  0  0  0  0  0  0  0  0  0
    6.3301    0.6940    0.0000 N   0  0  0  0  0  0  0  0  0  0  0  0
    8.0622    1.6940    0.0000 N   0  0  0  0  0  0  0  0  0  0  0  0
    9.7942    0.6940    0.0000 N   0  0  0  0  0  0  0  0  0  0  0  0
    7.1962    0.1940    0.0000 C   0  0  1  0  0  0  0  0  0  0  0  0
    4.5981    1.6940    0.0000 C   0  0  0  0  0  0  0  0  0  0  0  0
    8.0622    0.6940    0.0000 C   0  0  1  0  0  0  0  0  0  0  0  0
    6.3301    1.6940    0.0000 C   0  0  0  0  0  0  0  0  0  0  0  0
    5.4641    0.1940    0.0000 C   0  0  0  0  0  0  0  0  0  0  0  0
    5.4641    2.1940    0.0000 C   0  0  0  0  0  0  0  0  0  0  0  0
    4.5981    0.6940    0.0000 C   0  0  0  0  0  0  0  0  0  0  0  0
    8.9282    0.1940    0.0000 C   0  0  2  0  0  0  0  0  0  0  0  0
    3.7320    2.1940    0.0000 C   0  0  0  0  0  0  0  0  0  0  0  0
    7.1962   -0.8060    0.0000 C   0  0  0  0  0  0  0  0  0  0  0  0
    8.9282   -0.8060    0.0000 C   0  0  0  0  0  0  0  0  0  0  0  0
    8.0622   -1.3060    0.0000 C   0  0  0  0  0  0  0  0  0  0  0  0
    2.8660    1.6940    0.0000 C   0  0  0  0  0  0  0  0  0  0  0  0
    8.0622   -2.3060    0.0000 C   0  0  0  0  0  0  0  0  0  0  0  0
    8.5622    2.5600    0.0000 C   0  0  0  0  0  0  0  0  0  0  0  0
    2.0000    2.1940    0.0000 C   0  0  0  0  0  0  0  0  0  0  0  0
    8.0622    3.4260    0.0000 C   0  0  0  0  0  0  0  0  0  0  0  0
    6.6592   -0.1160    0.0000 H   0  0  0  0  0  0  0  0  0  0  0  0
    4.5981    2.3140    0.0000 H   0  0  0  0  0  0  0  0  0  0  0  0
    7.5252    1.0040    0.0000 H   0  0  0  0  0  0  0  0  0  0  0  0
    6.9407    1.5863    0.0000 H   0  0  0  0  0  0  0  0  0  0  0  0
    6.5422    2.2766    0.0000 H   0  0  0  0  0  0  0  0  0  0  0  0
    5.0656   -0.2810    0.0000 H   0  0  0  0  0  0  0  0  0  0  0  0
    5.8626   -0.2810    0.0000 H   0  0  0  0  0  0  0  0  0  0  0  0
    5.8626    2.6689    0.0000 H   0  0  0  0  0  0  0  0  0  0  0  0
    5.0656    2.6689    0.0000 H   0  0  0  0  0  0  0  0  0  0  0  0
    3.9875    0.8016    0.0000 H   0  0  0  0  0  0  0  0  0  0  0  0
    4.3860    0.1114    0.0000 H   0  0  0  0  0  0  0  0  0  0  0  0
    9.4651   -0.1160    0.0000 H   0  0  0  0  0  0  0  0  0  0  0  0
    4.1306    2.6689    0.0000 H   0  0  0  0  0  0  0  0  0  0  0  0
    3.3335    2.6689    0.0000 H   0  0  0  0  0  0  0  0  0  0  0  0
    6.6592   -1.1160    0.0000 H   0  0  0  0  0  0  0  0  0  0  0  0
    9.1403   -1.3886    0.0000 H   0  0  0  0  0  0  0  0  0  0  0  0
    9.5388   -0.6984    0.0000 H   0  0  0  0  0  0  0  0  0  0  0  0
    7.5252    2.0040    0.0000 H   0  0  0  0  0  0  0  0  0  0  0  0
    2.4675    1.2190    0.0000 H   0  0  0  0  0  0  0  0  0  0  0  0
    3.2646    1.2190    0.0000 H   0  0  0  0  0  0  0  0  0  0  0  0
   10.3312    0.3840    0.0000 H   0  0  0  0  0  0  0  0  0  0  0  0
   10.1042    1.2309    0.0000 H   0  0  0  0  0  0  0  0  0  0  0  0
    2.3100    2.7309    0.0000 H   0  0  0  0  0  0  0  0  0  0  0  0
    1.4631    2.5040    0.0000 H   0  0  0  0  0  0  0  0  0  0  0  0
    1.6900    1.6570    0.0000 H   0  0  0  0  0  0  0  0  0  0  0  0
    8.5991    3.7360    0.0000 H   0  0  0  0  0  0  0  0  0  0  0  0
    7.7522    3.9630    0.0000 H   0  0  0  0  0  0  0  0  0  0  0  0
    7.5252    3.1160    0.0000 H   0  0  0  0  0  0  0  0  0  0  0  0
    8.9282   -3.4260    0.0000 H   0  0  0  0  0  0  0  0  0  0  0  0
  1 20  1  0  0  0  0
  1 52  1  0  0  0  0
  2 20  2  0  0  0  0
  3 21  2  0  0  0  0
  7  4  1  1  0  0  0
  4 10  1  0  0  0  0
  4 11  1  0  0  0  0
  9  5  1  6  0  0  0
  5 21  1  0  0  0  0
  5 41  1  0  0  0  0
 14  6  1  1  0  0  0
  6 44  1  0  0  0  0
  6 45  1  0  0  0  0
  7  9  1  0  0  0  0
  7 16  1  0  0  0  0
  7 24  1  0  0  0  0
  8 12  1  0  0  0  0
  8 13  1  0  0  0  0
  8 15  1  0  0  0  0
  8 25  1  0  0  0  0
  9 14  1  0  0  0  0
  9 26  1  0  0  0  0
 10 12  1  0  0  0  0
 10 27  1  0  0  0  0
 10 28  1  0  0  0  0
 11 13  1  0  0  0  0
 11 29  1  0  0  0  0
 11 30  1  0  0  0  0
 12 31  1  0  0  0  0
 12 32  1  0  0  0  0
 13 33  1  0  0  0  0
 13 34  1  0  0  0  0
 14 17  1  0  0  0  0
 14 35  1  0  0  0  0
 15 19  1  0  0  0  0
 15 36  1  0  0  0  0
 15 37  1  0  0  0  0
 16 18  2  0  0  0  0
 16 38  1  0  0  0  0
 17 18  1  0  0  0  0
 17 39  1  0  0  0  0
 17 40  1  0  0  0  0
 18 20  1  0  0  0  0
 19 22  1  0  0  0  0
 19 42  1  0  0  0  0
 19 43  1  0  0  0  0
 21 23  1  0  0  0  0
 22 46  1  0  0  0  0
 22 47  1  0  0  0  0
 22 48  1  0  0  0  0
 23 49  1  0  0  0  0
 23 50  1  0  0  0  0
 23 51  1  0  0  0  0
M  END
> <PUBCHEM_COMPOUND_CID>
506119
> <PUBCHEM_COMPOUND_CANONICALIZED>
1
> <PUBCHEM_CACTVS_COMPLEXITY>
470
> <PUBCHEM_CACTVS_HBOND_ACCEPTOR>
5
> <PUBCHEM_CACTVS_HBOND_DONOR>
3
> <PUBCHEM_CACTVS_ROTATABLE_BOND>
5
> <PUBCHEM_CACTVS_SUBSKEYS>
AAADceB7MAAAAAAAAAAAAAAAAAAAAAAAAAAsQAAAAAAAAAAAAAAAHgAQCAAADSjBgAQCCAPAAgCIAiHSGACAAAAgAAAACIEIAEgARBIAwQAUUAAElgCIEYO82SOeAAAAAAAAAAAAAAAAAAAAAAAAAAAAAA==
> <PUBCHEM_IUPAC_OPENEYE_NAME>
(3R,4R,5S)-4-acetamido-5-amino-3-(4-propyl-1-piperidyl)cyclohexene-1-carboxylic acid
> <PUBCHEM_IUPAC_CAS_NAME>
(3R,4R,5S)-4-acetamido-5-amino-3-(4-propyl-1-piperidinyl)-1-cyclohexenecarboxylic acid
> <PUBCHEM_IUPAC_NAME_MARKUP>
(3<I>R</I>,4<I>R</I>,5<I>S</I>)-4-acetamido-5-amino-3-(4-propylpiperidin-1-yl)cyclohexene-1-carboxylic acid
> <PUBCHEM_IUPAC_NAME>
(3R,4R,5S)-4-acetamido-5-amino-3-(4-propylpiperidin-1-yl)cyclohexene-1-carboxylic acid
> <PUBCHEM_IUPAC_SYSTEMATIC_NAME>
(3R,4R,5S)-4-acetamido-5-azanyl-3-(4-propylpiperidin-1-yl)cyclohexene-1-carboxylic acid
> <PUBCHEM_IUPAC_TRADITIONAL_NAME>
(3R,4R,5S)-4-acetamido-5-amino-3-(4-propylpiperidino)cyclohexene-1-carboxylic acid
> <PUBCHEM_IUPAC_INCHI>
InChI=1S/C17H29N3O3/c1-3-4-12-5-7-20(8-6-12)15-10-13(17(22)23)9-14(18)16(15)19-11(2)21/h10,12,14-16H,3-9,18H2,1-2H3,(H,19,21)(H,22,23)/t14-,15+,16+/m0/s1
> <PUBCHEM_IUPAC_INCHIKEY>
RYUYQPZJUOKCMD-ARFHVFGLSA-N
> <PUBCHEM_XLOGP3_AA>
-1.2
> <PUBCHEM_EXACT_MASS>
323.22089180
> <PUBCHEM_MOLECULAR_FORMULA>
C17H29N3O3
> <PUBCHEM_MOLECULAR_WEIGHT>
323.4
> <PUBCHEM_OPENEYE_CAN_SMILES>
CCCC1CCN(CC1)C2C=C(CC(C2NC(=O)C)N)C(=O)O
> <PUBCHEM_OPENEYE_ISO_SMILES>
CCCC1CCN(CC1)[C@@H]2C=C(C[C@@H]([C@H]2NC(=O)C)N)C(=O)O
> <PUBCHEM_CACTVS_TPSA>
95.7
> <PUBCHEM_MONOISOTOPIC_WEIGHT>
323.22089180
> <PUBCHEM_TOTAL_CHARGE>
0
> <PUBCHEM_HEAVY_ATOM_COUNT>
23
> <PUBCHEM_ATOM_DEF_STEREO_COUNT>
3
> <PUBCHEM_ATOM_UDEF_STEREO_COUNT>
0
> <PUBCHEM_BOND_DEF_STEREO_COUNT>
0
> <PUBCHEM_BOND_UDEF_STEREO_COUNT>
0
> <PUBCHEM_ISOTOPIC_ATOM_COUNT>
0
> <PUBCHEM_COMPONENT_COUNT>
1
> <PUBCHEM_CACTVS_TAUTO_COUNT>
-1
> <PUBCHEM_COORDINATE_TYPE>
1
5
255
> <PUBCHEM_BONDANNOTATIONS>
7  4  5
9  5  6
14  6  5
$$$$
