506170
  -OEChem-10302200282D
 60 65  0     1  0  0  0  0  0999 V2000
    9.4465   -2.1719    0.0000 Cl  0  0  0  0  0  0  0  0  0  0  0  0
    6.8078    3.2406    0.0000 O   0  0  0  0  0  0  0  0  0  0  0  0
    7.5219   -5.2739    0.0000 O   0  0  0  0  0  0  0  0  0  0  0  0
    5.9418   -0.2594    0.0000 N   0  0  0  0  0  0  0  0  0  0  0  0
    5.9418    1.7406    0.0000 N   0  0  0  0  0  0  0  0  0  0  0  0
    8.8135   -4.1199    0.0000 N   0  0  0  0  0  0  0  0  0  0  0  0
    2.6067    4.9077    0.0000 N   0  0  0  0  0  0  0  0  0  0  0  0
    5.9418   -1.2594    0.0000 C   0  0  3  0  0  0  0  0  0  0  0  0
    6.8078    0.2406    0.0000 C   0  0  0  0  0  0  0  0  0  0  0  0
    5.0757    0.2406    0.0000 C   0  0  0  0  0  0  0  0  0  0  0  0
    6.7508   -1.8471    0.0000 C   0  0  0  0  0  0  0  0  0  0  0  0
    5.1328   -1.8471    0.0000 C   0  0  0  0  0  0  0  0  0  0  0  0
    6.8078    1.2406    0.0000 C   0  0  0  0  0  0  0  0  0  0  0  0
    5.0757    1.2406    0.0000 C   0  0  0  0  0  0  0  0  0  0  0  0
    6.4418   -2.7982    0.0000 C   0  0  0  0  0  0  0  0  0  0  0  0
    5.4418   -2.7982    0.0000 C   0  0  0  0  0  0  0  0  0  0  0  0
    7.7662   -1.6149    0.0000 C   0  0  0  0  0  0  0  0  0  0  0  0
    4.1173   -1.6149    0.0000 C   0  0  0  0  0  0  0  0  0  0  0  0
    7.1267   -3.5829    0.0000 C   0  0  0  0  0  0  0  0  0  0  0  0
    4.7568   -3.5829    0.0000 C   0  0  0  0  0  0  0  0  0  0  0  0
    5.9418    2.7406    0.0000 C   0  0  0  0  0  0  0  0  0  0  0  0
    8.1472   -3.3742    0.0000 C   0  0  0  0  0  0  0  0  0  0  0  0
    8.4691   -2.3836    0.0000 C   0  0  0  0  0  0  0  0  0  0  0  0
    3.4144   -2.3836    0.0000 C   0  0  0  0  0  0  0  0  0  0  0  0
    3.7363   -3.3742    0.0000 C   0  0  0  0  0  0  0  0  0  0  0  0
    5.0757    3.2406    0.0000 C   0  0  0  0  0  0  0  0  0  0  0  0
    5.0757    4.2406    0.0000 C   0  0  0  0  0  0  0  0  0  0  0  0
    4.2097    2.7406    0.0000 C   0  0  0  0  0  0  0  0  0  0  0  0
    4.2097    4.7406    0.0000 C   0  0  0  0  0  0  0  0  0  0  0  0
    3.3437    4.2406    0.0000 C   0  0  0  0  0  0  0  0  0  0  0  0
    3.3437    3.2406    0.0000 C   0  0  0  0  0  0  0  0  0  0  0  0
    8.5008   -5.0698    0.0000 C   0  0  0  0  0  0  0  0  0  0  0  0
    4.0005    5.7125    0.0000 C   0  0  0  0  0  0  0  0  0  0  0  0
    3.0118    5.8155    0.0000 C   0  0  0  0  0  0  0  0  0  0  0  0
    9.1671   -5.8155    0.0000 C   0  0  0  0  0  0  0  0  0  0  0  0
    6.4942   -0.9779    0.0000 H   0  0  0  0  0  0  0  0  0  0  0  0
    7.0198   -0.3420    0.0000 H   0  0  0  0  0  0  0  0  0  0  0  0
    7.4184    0.3483    0.0000 H   0  0  0  0  0  0  0  0  0  0  0  0
    4.4652    0.3483    0.0000 H   0  0  0  0  0  0  0  0  0  0  0  0
    4.8637   -0.3420    0.0000 H   0  0  0  0  0  0  0  0  0  0  0  0
    7.4184    1.1330    0.0000 H   0  0  0  0  0  0  0  0  0  0  0  0
    7.0198    1.8233    0.0000 H   0  0  0  0  0  0  0  0  0  0  0  0
    4.8637    1.8233    0.0000 H   0  0  0  0  0  0  0  0  0  0  0  0
    4.4652    1.1330    0.0000 H   0  0  0  0  0  0  0  0  0  0  0  0
    7.9510   -1.0231    0.0000 H   0  0  0  0  0  0  0  0  0  0  0  0
    3.9326   -1.0231    0.0000 H   0  0  0  0  0  0  0  0  0  0  0  0
    6.9283   -4.1703    0.0000 H   0  0  0  0  0  0  0  0  0  0  0  0
    4.9552   -4.1703    0.0000 H   0  0  0  0  0  0  0  0  0  0  0  0
    2.8085   -2.2523    0.0000 H   0  0  0  0  0  0  0  0  0  0  0  0
    3.3232   -3.8366    0.0000 H   0  0  0  0  0  0  0  0  0  0  0  0
    9.4204   -3.9934    0.0000 H   0  0  0  0  0  0  0  0  0  0  0  0
    5.6127    4.5506    0.0000 H   0  0  0  0  0  0  0  0  0  0  0  0
    4.2097    2.1206    0.0000 H   0  0  0  0  0  0  0  0  0  0  0  0
    2.8068    2.9306    0.0000 H   0  0  0  0  0  0  0  0  0  0  0  0
    4.4146    6.1739    0.0000 H   0  0  0  0  0  0  0  0  0  0  0  0
    2.0000    4.7799    0.0000 H   0  0  0  0  0  0  0  0  0  0  0  0
    2.7018    6.3524    0.0000 H   0  0  0  0  0  0  0  0  0  0  0  0
    8.7047   -6.2286    0.0000 H   0  0  0  0  0  0  0  0  0  0  0  0
    9.5802   -6.2779    0.0000 H   0  0  0  0  0  0  0  0  0  0  0  0
    9.6294   -5.4024    0.0000 H   0  0  0  0  0  0  0  0  0  0  0  0
  1 23  1  0  0  0  0
  2 21  2  0  0  0  0
  3 32  2  0  0  0  0
  4  8  1  0  0  0  0
  4  9  1  0  0  0  0
  4 10  1  0  0  0  0
  5 13  1  0  0  0  0
  5 14  1  0  0  0  0
  5 21  1  0  0  0  0
  6 22  1  0  0  0  0
  6 32  1  0  0  0  0
  6 51  1  0  0  0  0
  7 30  1  0  0  0  0
  7 34  1  0  0  0  0
  7 56  1  0  0  0  0
  8 11  1  0  0  0  0
  8 12  1  0  0  0  0
  8 36  1  0  0  0  0
  9 13  1  0  0  0  0
  9 37  1  0  0  0  0
  9 38  1  0  0  0  0
 10 14  1  0  0  0  0
 10 39  1  0  0  0  0
 10 40  1  0  0  0  0
 11 15  1  0  0  0  0
 11 17  2  0  0  0  0
 12 16  1  0  0  0  0
 12 18  2  0  0  0  0
 13 41  1  0  0  0  0
 13 42  1  0  0  0  0
 14 43  1  0  0  0  0
 14 44  1  0  0  0  0
 15 16  1  0  0  0  0
 15 19  2  0  0  0  0
 16 20  2  0  0  0  0
 17 23  1  0  0  0  0
 17 45  1  0  0  0  0
 18 24  1  0  0  0  0
 18 46  1  0  0  0  0
 19 22  1  0  0  0  0
 19 47  1  0  0  0  0
 20 25  1  0  0  0  0
 20 48  1  0  0  0  0
 21 26  1  0  0  0  0
 22 23  2  0  0  0  0
 24 25  2  0  0  0  0
 24 49  1  0  0  0  0
 25 50  1  0  0  0  0
 26 27  2  0  0  0  0
 26 28  1  0  0  0  0
 27 29  1  0  0  0  0
 27 52  1  0  0  0  0
 28 31  2  0  0  0  0
 28 53  1  0  0  0  0
 29 30  2  0  0  0  0
 29 33  1  0  0  0  0
 30 31  1  0  0  0  0
 31 54  1  0  0  0  0
 32 35  1  0  0  0  0
 33 34  2  0  0  0  0
 33 55  1  0  0  0  0
 34 57  1  0  0  0  0
 35 58  1  0  0  0  0
 35 59  1  0  0  0  0
 35 60  1  0  0  0  0
M  END
> <PUBCHEM_COMPOUND_CID>
506170
> <PUBCHEM_COMPOUND_CANONICALIZED>
1
> <PUBCHEM_CACTVS_COMPLEXITY>
802
> <PUBCHEM_CACTVS_HBOND_ACCEPTOR>
3
> <PUBCHEM_CACTVS_HBOND_DONOR>
2
> <PUBCHEM_CACTVS_ROTATABLE_BOND>
3
> <PUBCHEM_CACTVS_SUBSKEYS>
AAADceB7sAAEAAAAAAAAAAAAAAAAAeIAAAA8YMEAAAAAAHgB9AAAHgIQAAAADCrBniQ+wPPJkACoAzV3VACCgCA1ByAI2aE4ZtgIYPLBl5HUIQhglgDIyYcYicCejAACYAASABAYAATAACQAISAACQAAAA==
> <PUBCHEM_IUPAC_OPENEYE_NAME>
N-[2-chloro-9-[4-(1H-indole-5-carbonyl)piperazin-1-yl]-9H-fluoren-3-yl]acetamide
> <PUBCHEM_IUPAC_CAS_NAME>
N-[2-chloro-9-[4-[1H-indol-5-yl(oxo)methyl]-1-piperazinyl]-9H-fluoren-3-yl]acetamide
> <PUBCHEM_IUPAC_NAME_MARKUP>
<I>N</I>-[2-chloro-9-[4-(1<I>H</I>-indole-5-carbonyl)piperazin-1-yl]-9<I>H</I>-fluoren-3-yl]acetamide
> <PUBCHEM_IUPAC_NAME>
N-[2-chloro-9-[4-(1H-indole-5-carbonyl)piperazin-1-yl]-9H-fluoren-3-yl]acetamide
> <PUBCHEM_IUPAC_SYSTEMATIC_NAME>
N-[2-chloranyl-9-[4-(1H-indol-5-ylcarbonyl)piperazin-1-yl]-9H-fluoren-3-yl]ethanamide
> <PUBCHEM_IUPAC_TRADITIONAL_NAME>
N-[2-chloro-9-[4-(1H-indole-5-carbonyl)piperazino]-9H-fluoren-3-yl]acetamide
> <PUBCHEM_IUPAC_INCHI>
InChI=1S/C28H25ClN4O2/c1-17(34)31-26-16-22-20-4-2-3-5-21(20)27(23(22)15-24(26)29)32-10-12-33(13-11-32)28(35)19-6-7-25-18(14-19)8-9-30-25/h2-9,14-16,27,30H,10-13H2,1H3,(H,31,34)
> <PUBCHEM_IUPAC_INCHIKEY>
JSVCRXOOKBXPGX-UHFFFAOYSA-N
> <PUBCHEM_XLOGP3_AA>
4
> <PUBCHEM_EXACT_MASS>
484.1666037
> <PUBCHEM_MOLECULAR_FORMULA>
C28H25ClN4O2
> <PUBCHEM_MOLECULAR_WEIGHT>
485.0
> <PUBCHEM_OPENEYE_CAN_SMILES>
CC(=O)NC1=C(C=C2C(C3=CC=CC=C3C2=C1)N4CCN(CC4)C(=O)C5=CC6=C(C=C5)NC=C6)Cl
> <PUBCHEM_OPENEYE_ISO_SMILES>
CC(=O)NC1=C(C=C2C(C3=CC=CC=C3C2=C1)N4CCN(CC4)C(=O)C5=CC6=C(C=C5)NC=C6)Cl
> <PUBCHEM_CACTVS_TPSA>
68.4
> <PUBCHEM_MONOISOTOPIC_WEIGHT>
484.1666037
> <PUBCHEM_TOTAL_CHARGE>
0
> <PUBCHEM_HEAVY_ATOM_COUNT>
35
> <PUBCHEM_ATOM_DEF_STEREO_COUNT>
0
> <PUBCHEM_ATOM_UDEF_STEREO_COUNT>
1
> <PUBCHEM_BOND_DEF_STEREO_COUNT>
0
> <PUBCHEM_BOND_UDEF_STEREO_COUNT>
0
> <PUBCHEM_ISOTOPIC_ATOM_COUNT>
0
> <PUBCHEM_COMPONENT_COUNT>
1
> <PUBCHEM_CACTVS_TAUTO_COUNT>
-1
> <PUBCHEM_COORDINATE_TYPE>
1
5
255
> <PUBCHEM_BONDANNOTATIONS>
11  15  8
11  17  8
12  16  8
12  18  8
15  19  8
16  20  8
17  23  8
18  24  8
19  22  8
20  25  8
22  23  8
24  25  8
26  27  8
26  28  8
27  29  8
28  31  8
29  30  8
29  33  8
30  31  8
33  34  8
8  4  3
7  30  8
7  34  8
$$$$
