506180
  -OEChem-10302200282D
 58 63  0     1  0  0  0  0  0999 V2000
    6.8078    2.1244    0.0000 O   0  0  0  0  0  0  0  0  0  0  0  0
    5.9418   -1.3756    0.0000 N   0  0  0  0  0  0  0  0  0  0  0  0
    5.9418    0.6244    0.0000 N   0  0  0  0  0  0  0  0  0  0  0  0
    9.4465   -3.2882    0.0000 N   0  0  0  0  0  0  0  0  0  0  0  0
    2.6067    3.7914    0.0000 N   0  0  0  0  0  0  0  0  0  0  0  0
    5.9418   -2.3756    0.0000 C   0  0  3  0  0  0  0  0  0  0  0  0
    6.8078   -0.8756    0.0000 C   0  0  0  0  0  0  0  0  0  0  0  0
    5.0757   -0.8756    0.0000 C   0  0  0  0  0  0  0  0  0  0  0  0
    6.7508   -2.9634    0.0000 C   0  0  0  0  0  0  0  0  0  0  0  0
    5.1328   -2.9634    0.0000 C   0  0  0  0  0  0  0  0  0  0  0  0
    6.8078    0.1244    0.0000 C   0  0  0  0  0  0  0  0  0  0  0  0
    5.0757    0.1244    0.0000 C   0  0  0  0  0  0  0  0  0  0  0  0
    6.4418   -3.9145    0.0000 C   0  0  0  0  0  0  0  0  0  0  0  0
    5.4418   -3.9145    0.0000 C   0  0  0  0  0  0  0  0  0  0  0  0
    7.7662   -2.7312    0.0000 C   0  0  0  0  0  0  0  0  0  0  0  0
    4.1173   -2.7312    0.0000 C   0  0  0  0  0  0  0  0  0  0  0  0
    7.1267   -4.6992    0.0000 C   0  0  0  0  0  0  0  0  0  0  0  0
    4.7568   -4.6992    0.0000 C   0  0  0  0  0  0  0  0  0  0  0  0
    5.9418    1.6244    0.0000 C   0  0  0  0  0  0  0  0  0  0  0  0
    8.4691   -3.4999    0.0000 C   0  0  0  0  0  0  0  0  0  0  0  0
    8.1472   -4.4905    0.0000 C   0  0  0  0  0  0  0  0  0  0  0  0
    3.4144   -3.4999    0.0000 C   0  0  0  0  0  0  0  0  0  0  0  0
    3.7363   -4.4905    0.0000 C   0  0  0  0  0  0  0  0  0  0  0  0
    5.0757    2.1244    0.0000 C   0  0  0  0  0  0  0  0  0  0  0  0
    5.0757    3.1244    0.0000 C   0  0  0  0  0  0  0  0  0  0  0  0
    4.2097    1.6244    0.0000 C   0  0  0  0  0  0  0  0  0  0  0  0
    4.2097    3.6244    0.0000 C   0  0  0  0  0  0  0  0  0  0  0  0
    3.3437    3.1244    0.0000 C   0  0  0  0  0  0  0  0  0  0  0  0
    3.3437    2.1244    0.0000 C   0  0  0  0  0  0  0  0  0  0  0  0
   10.1185   -4.0287    0.0000 C   0  0  0  0  0  0  0  0  0  0  0  0
    4.0005    4.5962    0.0000 C   0  0  0  0  0  0  0  0  0  0  0  0
    3.0118    4.6992    0.0000 C   0  0  0  0  0  0  0  0  0  0  0  0
    6.4942   -2.0942    0.0000 H   0  0  0  0  0  0  0  0  0  0  0  0
    7.0198   -1.4583    0.0000 H   0  0  0  0  0  0  0  0  0  0  0  0
    7.4184   -0.7680    0.0000 H   0  0  0  0  0  0  0  0  0  0  0  0
    4.4652   -0.7680    0.0000 H   0  0  0  0  0  0  0  0  0  0  0  0
    4.8637   -1.4583    0.0000 H   0  0  0  0  0  0  0  0  0  0  0  0
    7.4184    0.0167    0.0000 H   0  0  0  0  0  0  0  0  0  0  0  0
    7.0198    0.7070    0.0000 H   0  0  0  0  0  0  0  0  0  0  0  0
    4.8637    0.7070    0.0000 H   0  0  0  0  0  0  0  0  0  0  0  0
    4.4652    0.0167    0.0000 H   0  0  0  0  0  0  0  0  0  0  0  0
    7.9510   -2.1394    0.0000 H   0  0  0  0  0  0  0  0  0  0  0  0
    3.9326   -2.1394    0.0000 H   0  0  0  0  0  0  0  0  0  0  0  0
    6.9283   -5.2866    0.0000 H   0  0  0  0  0  0  0  0  0  0  0  0
    4.9552   -5.2866    0.0000 H   0  0  0  0  0  0  0  0  0  0  0  0
    8.5603   -4.9529    0.0000 H   0  0  0  0  0  0  0  0  0  0  0  0
    2.8085   -3.3686    0.0000 H   0  0  0  0  0  0  0  0  0  0  0  0
    3.3232   -4.9529    0.0000 H   0  0  0  0  0  0  0  0  0  0  0  0
    9.6358   -2.6978    0.0000 H   0  0  0  0  0  0  0  0  0  0  0  0
    5.6127    3.4344    0.0000 H   0  0  0  0  0  0  0  0  0  0  0  0
    4.2097    1.0044    0.0000 H   0  0  0  0  0  0  0  0  0  0  0  0
    2.8068    1.8144    0.0000 H   0  0  0  0  0  0  0  0  0  0  0  0
    9.6593   -4.4454    0.0000 H   0  0  0  0  0  0  0  0  0  0  0  0
   10.5351   -4.4879    0.0000 H   0  0  0  0  0  0  0  0  0  0  0  0
   10.5776   -3.6121    0.0000 H   0  0  0  0  0  0  0  0  0  0  0  0
    4.4146    5.0576    0.0000 H   0  0  0  0  0  0  0  0  0  0  0  0
    2.0000    3.6636    0.0000 H   0  0  0  0  0  0  0  0  0  0  0  0
    2.7018    5.2362    0.0000 H   0  0  0  0  0  0  0  0  0  0  0  0
  1 19  2  0  0  0  0
  2  6  1  0  0  0  0
  2  7  1  0  0  0  0
  2  8  1  0  0  0  0
  3 11  1  0  0  0  0
  3 12  1  0  0  0  0
  3 19  1  0  0  0  0
  4 20  1  0  0  0  0
  4 30  1  0  0  0  0
  4 49  1  0  0  0  0
  5 28  1  0  0  0  0
  5 32  1  0  0  0  0
  5 57  1  0  0  0  0
  6  9  1  0  0  0  0
  6 10  1  0  0  0  0
  6 33  1  0  0  0  0
  7 11  1  0  0  0  0
  7 34  1  0  0  0  0
  7 35  1  0  0  0  0
  8 12  1  0  0  0  0
  8 36  1  0  0  0  0
  8 37  1  0  0  0  0
  9 13  2  0  0  0  0
  9 15  1  0  0  0  0
 10 14  1  0  0  0  0
 10 16  2  0  0  0  0
 11 38  1  0  0  0  0
 11 39  1  0  0  0  0
 12 40  1  0  0  0  0
 12 41  1  0  0  0  0
 13 14  1  0  0  0  0
 13 17  1  0  0  0  0
 14 18  2  0  0  0  0
 15 20  2  0  0  0  0
 15 42  1  0  0  0  0
 16 22  1  0  0  0  0
 16 43  1  0  0  0  0
 17 21  2  0  0  0  0
 17 44  1  0  0  0  0
 18 23  1  0  0  0  0
 18 45  1  0  0  0  0
 19 24  1  0  0  0  0
 20 21  1  0  0  0  0
 21 46  1  0  0  0  0
 22 23  2  0  0  0  0
 22 47  1  0  0  0  0
 23 48  1  0  0  0  0
 24 25  2  0  0  0  0
 24 26  1  0  0  0  0
 25 27  1  0  0  0  0
 25 50  1  0  0  0  0
 26 29  2  0  0  0  0
 26 51  1  0  0  0  0
 27 28  2  0  0  0  0
 27 31  1  0  0  0  0
 28 29  1  0  0  0  0
 29 52  1  0  0  0  0
 30 53  1  0  0  0  0
 30 54  1  0  0  0  0
 30 55  1  0  0  0  0
 31 32  2  0  0  0  0
 31 56  1  0  0  0  0
 32 58  1  0  0  0  0
M  END
> <PUBCHEM_COMPOUND_CID>
506180
> <PUBCHEM_COMPOUND_CANONICALIZED>
1
> <PUBCHEM_CACTVS_COMPLEXITY>
677
> <PUBCHEM_CACTVS_HBOND_ACCEPTOR>
3
> <PUBCHEM_CACTVS_HBOND_DONOR>
2
> <PUBCHEM_CACTVS_ROTATABLE_BOND>
3
> <PUBCHEM_CACTVS_SUBSKEYS>
AAADceB7oAAAAAAAAAAAAAAAAAAAAeIAAAA8YMEAAAAAAHgB9AAAHgAQAAAADCjBngQ+wPPJkACoAzV3VACCgCA1AiAI2aE4ZNgIYPLAlZGUIQhglgDIyYcYicCeiAACQAASAAAQAASAACQAASAACQAAAA==
> <PUBCHEM_IUPAC_OPENEYE_NAME>
1H-indol-5-yl-[4-[2-(methylamino)-9H-fluoren-9-yl]piperazin-1-yl]methanone
> <PUBCHEM_IUPAC_CAS_NAME>
1H-indol-5-yl-[4-[2-(methylamino)-9H-fluoren-9-yl]-1-piperazinyl]methanone
> <PUBCHEM_IUPAC_NAME_MARKUP>
1<I>H</I>-indol-5-yl-[4-[2-(methylamino)-9<I>H</I>-fluoren-9-yl]piperazin-1-yl]methanone
> <PUBCHEM_IUPAC_NAME>
1H-indol-5-yl-[4-[2-(methylamino)-9H-fluoren-9-yl]piperazin-1-yl]methanone
> <PUBCHEM_IUPAC_SYSTEMATIC_NAME>
1H-indol-5-yl-[4-[2-(methylamino)-9H-fluoren-9-yl]piperazin-1-yl]methanone
> <PUBCHEM_IUPAC_TRADITIONAL_NAME>
1H-indol-5-yl-[4-[2-(methylamino)-9H-fluoren-9-yl]piperazino]methanone
> <PUBCHEM_IUPAC_INCHI>
InChI=1S/C27H26N4O/c1-28-20-7-8-22-21-4-2-3-5-23(21)26(24(22)17-20)30-12-14-31(15-13-30)27(32)19-6-9-25-18(16-19)10-11-29-25/h2-11,16-17,26,28-29H,12-15H2,1H3
> <PUBCHEM_IUPAC_INCHIKEY>
MYPIPZRBSNEDEP-UHFFFAOYSA-N
> <PUBCHEM_XLOGP3_AA>
4.2
> <PUBCHEM_EXACT_MASS>
422.21066147
> <PUBCHEM_MOLECULAR_FORMULA>
C27H26N4O
> <PUBCHEM_MOLECULAR_WEIGHT>
422.5
> <PUBCHEM_OPENEYE_CAN_SMILES>
CNC1=CC2=C(C=C1)C3=CC=CC=C3C2N4CCN(CC4)C(=O)C5=CC6=C(C=C5)NC=C6
> <PUBCHEM_OPENEYE_ISO_SMILES>
CNC1=CC2=C(C=C1)C3=CC=CC=C3C2N4CCN(CC4)C(=O)C5=CC6=C(C=C5)NC=C6
> <PUBCHEM_CACTVS_TPSA>
51.4
> <PUBCHEM_MONOISOTOPIC_WEIGHT>
422.21066147
> <PUBCHEM_TOTAL_CHARGE>
0
> <PUBCHEM_HEAVY_ATOM_COUNT>
32
> <PUBCHEM_ATOM_DEF_STEREO_COUNT>
0
> <PUBCHEM_ATOM_UDEF_STEREO_COUNT>
1
> <PUBCHEM_BOND_DEF_STEREO_COUNT>
0
> <PUBCHEM_BOND_UDEF_STEREO_COUNT>
0
> <PUBCHEM_ISOTOPIC_ATOM_COUNT>
0
> <PUBCHEM_COMPONENT_COUNT>
1
> <PUBCHEM_CACTVS_TAUTO_COUNT>
-1
> <PUBCHEM_COORDINATE_TYPE>
1
5
255
> <PUBCHEM_BONDANNOTATIONS>
10  14  8
10  16  8
13  17  8
14  18  8
15  20  8
16  22  8
17  21  8
18  23  8
6  2  3
20  21  8
22  23  8
24  25  8
24  26  8
25  27  8
26  29  8
27  28  8
27  31  8
28  29  8
31  32  8
5  28  8
5  32  8
9  13  8
9  15  8
$$$$
