506133
  -OEChem-10302200282D
 39 39  0     1  0  0  0  0  0999 V2000
    7.1962   -2.8060    0.0000 O   0  0  0  0  0  0  0  0  0  0  0  0
    5.4641   -2.8060    0.0000 O   0  0  0  0  0  0  0  0  0  0  0  0
    7.8301    2.5600    0.0000 O   0  0  0  0  0  0  0  0  0  0  0  0
    4.5981    0.6940    0.0000 N   0  0  0  0  0  0  0  0  0  0  0  0
    6.3301    1.6940    0.0000 N   0  0  0  0  0  0  0  0  0  0  0  0
    8.0622    0.6940    0.0000 N   0  0  0  0  0  0  0  0  0  0  0  0
    6.3301    0.6940    0.0000 C   0  0  1  0  0  0  0  0  0  0  0  0
    5.4641    0.1940    0.0000 C   0  0  1  0  0  0  0  0  0  0  0  0
    7.1962    0.1940    0.0000 C   0  0  1  0  0  0  0  0  0  0  0  0
    7.1962   -0.8060    0.0000 C   0  0  0  0  0  0  0  0  0  0  0  0
    5.4641   -0.8060    0.0000 C   0  0  0  0  0  0  0  0  0  0  0  0
    6.3301   -1.3060    0.0000 C   0  0  0  0  0  0  0  0  0  0  0  0
    3.7320    0.1940    0.0000 C   0  0  0  0  0  0  0  0  0  0  0  0
    6.3301   -2.3060    0.0000 C   0  0  0  0  0  0  0  0  0  0  0  0
    2.8660    0.6940    0.0000 C   0  0  0  0  0  0  0  0  0  0  0  0
    6.8301    2.5600    0.0000 C   0  0  0  0  0  0  0  0  0  0  0  0
    2.0000    0.1940    0.0000 C   0  0  0  0  0  0  0  0  0  0  0  0
    6.3301    3.4260    0.0000 C   0  0  0  0  0  0  0  0  0  0  0  0
    6.8671    1.0040    0.0000 H   0  0  0  0  0  0  0  0  0  0  0  0
    5.4641    0.8140    0.0000 H   0  0  0  0  0  0  0  0  0  0  0  0
    7.7331   -0.1160    0.0000 H   0  0  0  0  0  0  0  0  0  0  0  0
    7.4082   -1.3886    0.0000 H   0  0  0  0  0  0  0  0  0  0  0  0
    7.8067   -0.6984    0.0000 H   0  0  0  0  0  0  0  0  0  0  0  0
    4.9272   -1.1160    0.0000 H   0  0  0  0  0  0  0  0  0  0  0  0
    4.5981    1.3140    0.0000 H   0  0  0  0  0  0  0  0  0  0  0  0
    5.7932    2.0040    0.0000 H   0  0  0  0  0  0  0  0  0  0  0  0
    8.5991    0.3840    0.0000 H   0  0  0  0  0  0  0  0  0  0  0  0
    8.3722    1.2309    0.0000 H   0  0  0  0  0  0  0  0  0  0  0  0
    3.3335   -0.2810    0.0000 H   0  0  0  0  0  0  0  0  0  0  0  0
    4.1306   -0.2810    0.0000 H   0  0  0  0  0  0  0  0  0  0  0  0
    3.2646    1.1689    0.0000 H   0  0  0  0  0  0  0  0  0  0  0  0
    2.4675    1.1689    0.0000 H   0  0  0  0  0  0  0  0  0  0  0  0
    1.6900    0.7309    0.0000 H   0  0  0  0  0  0  0  0  0  0  0  0
    1.4631   -0.1160    0.0000 H   0  0  0  0  0  0  0  0  0  0  0  0
    2.3100   -0.3430    0.0000 H   0  0  0  0  0  0  0  0  0  0  0  0
    6.8671    3.7360    0.0000 H   0  0  0  0  0  0  0  0  0  0  0  0
    6.0201    3.9630    0.0000 H   0  0  0  0  0  0  0  0  0  0  0  0
    5.7932    3.1160    0.0000 H   0  0  0  0  0  0  0  0  0  0  0  0
    7.1962   -3.4260    0.0000 H   0  0  0  0  0  0  0  0  0  0  0  0
  1 14  1  0  0  0  0
  1 39  1  0  0  0  0
  2 14  2  0  0  0  0
  3 16  2  0  0  0  0
  8  4  1  1  0  0  0
  4 13  1  0  0  0  0
  4 25  1  0  0  0  0
  7  5  1  6  0  0  0
  5 16  1  0  0  0  0
  5 26  1  0  0  0  0
  9  6  1  6  0  0  0
  6 27  1  0  0  0  0
  6 28  1  0  0  0  0
  7  8  1  0  0  0  0
  7  9  1  0  0  0  0
  7 19  1  0  0  0  0
  8 11  1  0  0  0  0
  8 20  1  0  0  0  0
  9 10  1  0  0  0  0
  9 21  1  0  0  0  0
 10 12  1  0  0  0  0
 10 22  1  0  0  0  0
 10 23  1  0  0  0  0
 11 12  2  0  0  0  0
 11 24  1  0  0  0  0
 12 14  1  0  0  0  0
 13 15  1  0  0  0  0
 13 29  1  0  0  0  0
 13 30  1  0  0  0  0
 15 17  1  0  0  0  0
 15 31  1  0  0  0  0
 15 32  1  0  0  0  0
 16 18  1  0  0  0  0
 17 33  1  0  0  0  0
 17 34  1  0  0  0  0
 17 35  1  0  0  0  0
 18 36  1  0  0  0  0
 18 37  1  0  0  0  0
 18 38  1  0  0  0  0
M  END
> <PUBCHEM_COMPOUND_CID>
506133
> <PUBCHEM_COMPOUND_CANONICALIZED>
1
> <PUBCHEM_CACTVS_COMPLEXITY>
355
> <PUBCHEM_CACTVS_HBOND_ACCEPTOR>
5
> <PUBCHEM_CACTVS_HBOND_DONOR>
4
> <PUBCHEM_CACTVS_ROTATABLE_BOND>
5
> <PUBCHEM_CACTVS_SUBSKEYS>
AAADceBzMAAAAAAAAAAAAAAAAAAAAAAAAAAgAAAAAAAAAAAAAAAAHgAQCAAADCjBgAQCCALAAgCIAiHSGACAAAAgAAAACIEIAEgARBIAwQAUUAAElgCIEYO82SOQAAAAAAAAAAAAAAAAAAAAAAAAAAAAAA==
> <PUBCHEM_IUPAC_OPENEYE_NAME>
(3R,4R,5R)-4-acetamido-5-amino-3-(propylamino)cyclohexene-1-carboxylic acid
> <PUBCHEM_IUPAC_CAS_NAME>
(3R,4R,5R)-4-acetamido-5-amino-3-(propylamino)-1-cyclohexenecarboxylic acid
> <PUBCHEM_IUPAC_NAME_MARKUP>
(3<I>R</I>,4<I>R</I>,5<I>R</I>)-4-acetamido-5-amino-3-(propylamino)cyclohexene-1-carboxylic acid
> <PUBCHEM_IUPAC_NAME>
(3R,4R,5R)-4-acetamido-5-amino-3-(propylamino)cyclohexene-1-carboxylic acid
> <PUBCHEM_IUPAC_SYSTEMATIC_NAME>
(3R,4R,5R)-4-acetamido-5-azanyl-3-(propylamino)cyclohexene-1-carboxylic acid
> <PUBCHEM_IUPAC_TRADITIONAL_NAME>
(3R,4R,5R)-4-acetamido-5-amino-3-(propylamino)cyclohexene-1-carboxylic acid
> <PUBCHEM_IUPAC_INCHI>
InChI=1S/C12H21N3O3/c1-3-4-14-10-6-8(12(17)18)5-9(13)11(10)15-7(2)16/h6,9-11,14H,3-5,13H2,1-2H3,(H,15,16)(H,17,18)/t9-,10-,11-/m1/s1
> <PUBCHEM_IUPAC_INCHIKEY>
FNCJWVGYTHJBEJ-GMTAPVOTSA-N
> <PUBCHEM_XLOGP3_AA>
-3.1
> <PUBCHEM_EXACT_MASS>
255.15829154
> <PUBCHEM_MOLECULAR_FORMULA>
C12H21N3O3
> <PUBCHEM_MOLECULAR_WEIGHT>
255.31
> <PUBCHEM_OPENEYE_CAN_SMILES>
CCCNC1C=C(CC(C1NC(=O)C)N)C(=O)O
> <PUBCHEM_OPENEYE_ISO_SMILES>
CCCN[C@@H]1C=C(C[C@H]([C@H]1NC(=O)C)N)C(=O)O
> <PUBCHEM_CACTVS_TPSA>
104
> <PUBCHEM_MONOISOTOPIC_WEIGHT>
255.15829154
> <PUBCHEM_TOTAL_CHARGE>
0
> <PUBCHEM_HEAVY_ATOM_COUNT>
18
> <PUBCHEM_ATOM_DEF_STEREO_COUNT>
3
> <PUBCHEM_ATOM_UDEF_STEREO_COUNT>
0
> <PUBCHEM_BOND_DEF_STEREO_COUNT>
0
> <PUBCHEM_BOND_UDEF_STEREO_COUNT>
0
> <PUBCHEM_ISOTOPIC_ATOM_COUNT>
0
> <PUBCHEM_COMPONENT_COUNT>
1
> <PUBCHEM_CACTVS_TAUTO_COUNT>
-1
> <PUBCHEM_COORDINATE_TYPE>
1
5
255
> <PUBCHEM_BONDANNOTATIONS>
8  4  5
7  5  6
9  6  6
$$$$
