506128
  -OEChem-10302200282D
 49 50  0     1  0  0  0  0  0999 V2000
    8.9282   -2.8060    0.0000 O   0  0  0  0  0  0  0  0  0  0  0  0
    7.1962   -2.8060    0.0000 O   0  0  0  0  0  0  0  0  0  0  0  0
    9.5622    2.5600    0.0000 O   0  0  0  0  0  0  0  0  0  0  0  0
    6.3301    0.6940    0.0000 N   0  0  3  0  0  0  0  0  0  0  0  0
    8.0622    1.6940    0.0000 N   0  0  0  0  0  0  0  0  0  0  0  0
    9.7942    0.6940    0.0000 N   0  0  0  0  0  0  0  0  0  0  0  0
    8.0622    0.6940    0.0000 C   0  0  1  0  0  0  0  0  0  0  0  0
    7.1962    0.1940    0.0000 C   0  0  1  0  0  0  0  0  0  0  0  0
    8.9282    0.1940    0.0000 C   0  0  1  0  0  0  0  0  0  0  0  0
    8.9282   -0.8060    0.0000 C   0  0  0  0  0  0  0  0  0  0  0  0
    7.1962   -0.8060    0.0000 C   0  0  0  0  0  0  0  0  0  0  0  0
    8.0622   -1.3060    0.0000 C   0  0  0  0  0  0  0  0  0  0  0  0
    5.4641    0.1940    0.0000 C   0  0  0  0  0  0  0  0  0  0  0  0
    6.3301    1.6940    0.0000 C   0  0  0  0  0  0  0  0  0  0  0  0
    4.5981    0.6940    0.0000 C   0  0  0  0  0  0  0  0  0  0  0  0
    8.0622   -2.3060    0.0000 C   0  0  0  0  0  0  0  0  0  0  0  0
    8.5622    2.5600    0.0000 C   0  0  0  0  0  0  0  0  0  0  0  0
    3.7320    0.1940    0.0000 C   0  0  0  0  0  0  0  0  0  0  0  0
    8.0622    3.4260    0.0000 C   0  0  0  0  0  0  0  0  0  0  0  0
    3.7320   -0.8060    0.0000 C   0  0  0  0  0  0  0  0  0  0  0  0
    2.8660    0.6940    0.0000 C   0  0  0  0  0  0  0  0  0  0  0  0
    2.8660   -1.3060    0.0000 C   0  0  0  0  0  0  0  0  0  0  0  0
    2.0000    0.1940    0.0000 C   0  0  0  0  0  0  0  0  0  0  0  0
    2.0000   -0.8060    0.0000 C   0  0  0  0  0  0  0  0  0  0  0  0
    7.5252    1.0040    0.0000 H   0  0  0  0  0  0  0  0  0  0  0  0
    6.6592   -0.1160    0.0000 H   0  0  0  0  0  0  0  0  0  0  0  0
    9.4651   -0.1160    0.0000 H   0  0  0  0  0  0  0  0  0  0  0  0
    9.1403   -1.3886    0.0000 H   0  0  0  0  0  0  0  0  0  0  0  0
    9.5388   -0.6984    0.0000 H   0  0  0  0  0  0  0  0  0  0  0  0
    6.6592   -1.1160    0.0000 H   0  0  0  0  0  0  0  0  0  0  0  0
    7.5252    2.0040    0.0000 H   0  0  0  0  0  0  0  0  0  0  0  0
    5.0656   -0.2810    0.0000 H   0  0  0  0  0  0  0  0  0  0  0  0
    5.8626   -0.2810    0.0000 H   0  0  0  0  0  0  0  0  0  0  0  0
   10.3312    0.3840    0.0000 H   0  0  0  0  0  0  0  0  0  0  0  0
   10.1042    1.2309    0.0000 H   0  0  0  0  0  0  0  0  0  0  0  0
    6.9501    1.6940    0.0000 H   0  0  0  0  0  0  0  0  0  0  0  0
    6.3301    2.3140    0.0000 H   0  0  0  0  0  0  0  0  0  0  0  0
    5.7101    1.6940    0.0000 H   0  0  0  0  0  0  0  0  0  0  0  0
    4.9966    1.1689    0.0000 H   0  0  0  0  0  0  0  0  0  0  0  0
    4.1996    1.1689    0.0000 H   0  0  0  0  0  0  0  0  0  0  0  0
    8.5991    3.7360    0.0000 H   0  0  0  0  0  0  0  0  0  0  0  0
    7.7522    3.9630    0.0000 H   0  0  0  0  0  0  0  0  0  0  0  0
    7.5252    3.1160    0.0000 H   0  0  0  0  0  0  0  0  0  0  0  0
    4.2690   -1.1160    0.0000 H   0  0  0  0  0  0  0  0  0  0  0  0
    2.8660    1.3140    0.0000 H   0  0  0  0  0  0  0  0  0  0  0  0
    8.9282   -3.4260    0.0000 H   0  0  0  0  0  0  0  0  0  0  0  0
    2.8660   -1.9260    0.0000 H   0  0  0  0  0  0  0  0  0  0  0  0
    1.4631    0.5040    0.0000 H   0  0  0  0  0  0  0  0  0  0  0  0
    1.4631   -1.1160    0.0000 H   0  0  0  0  0  0  0  0  0  0  0  0
  1 16  1  0  0  0  0
  1 46  1  0  0  0  0
  2 16  2  0  0  0  0
  3 17  2  0  0  0  0
  8  4  1  1  0  0  0
  4 13  1  0  0  0  0
  4 14  1  0  0  0  0
  7  5  1  6  0  0  0
  5 17  1  0  0  0  0
  5 31  1  0  0  0  0
  9  6  1  6  0  0  0
  6 34  1  0  0  0  0
  6 35  1  0  0  0  0
  7  8  1  0  0  0  0
  7  9  1  0  0  0  0
  7 25  1  0  0  0  0
  8 11  1  0  0  0  0
  8 26  1  0  0  0  0
  9 10  1  0  0  0  0
  9 27  1  0  0  0  0
 10 12  1  0  0  0  0
 10 28  1  0  0  0  0
 10 29  1  0  0  0  0
 11 12  2  0  0  0  0
 11 30  1  0  0  0  0
 12 16  1  0  0  0  0
 13 15  1  0  0  0  0
 13 32  1  0  0  0  0
 13 33  1  0  0  0  0
 14 36  1  0  0  0  0
 14 37  1  0  0  0  0
 14 38  1  0  0  0  0
 15 18  1  0  0  0  0
 15 39  1  0  0  0  0
 15 40  1  0  0  0  0
 17 19  1  0  0  0  0
 18 20  2  0  0  0  0
 18 21  1  0  0  0  0
 19 41  1  0  0  0  0
 19 42  1  0  0  0  0
 19 43  1  0  0  0  0
 20 22  1  0  0  0  0
 20 44  1  0  0  0  0
 21 23  2  0  0  0  0
 21 45  1  0  0  0  0
 22 24  2  0  0  0  0
 22 47  1  0  0  0  0
 23 24  1  0  0  0  0
 23 48  1  0  0  0  0
 24 49  1  0  0  0  0
M  END
> <PUBCHEM_COMPOUND_CID>
506128
> <PUBCHEM_COMPOUND_CANONICALIZED>
1
> <PUBCHEM_CACTVS_COMPLEXITY>
486
> <PUBCHEM_CACTVS_HBOND_ACCEPTOR>
5
> <PUBCHEM_CACTVS_HBOND_DONOR>
3
> <PUBCHEM_CACTVS_ROTATABLE_BOND>
6
> <PUBCHEM_CACTVS_SUBSKEYS>
AAADceB7MAAAAAAAAAAAAAAAAAAAAAAAAAAwQAAAAAAAAAABAAAAHgAQCAAADCjBmAQyCIPAAgCIAiHSGACCAAAgAAAIiIEIAMgIZDKA0RGUcAAklgCImYe82aOeAAAAAAAAAAAAAAAAAAAAAAAAAAAAAA==
> <PUBCHEM_IUPAC_OPENEYE_NAME>
(3R,4R,5R)-4-acetamido-5-amino-3-[methyl(2-phenylethyl)amino]cyclohexene-1-carboxylic acid
> <PUBCHEM_IUPAC_CAS_NAME>
(3R,4R,5R)-4-acetamido-5-amino-3-[methyl(2-phenylethyl)amino]-1-cyclohexenecarboxylic acid
> <PUBCHEM_IUPAC_NAME_MARKUP>
(3<I>R</I>,4<I>R</I>,5<I>R</I>)-4-acetamido-5-amino-3-[methyl(2-phenylethyl)amino]cyclohexene-1-carboxylic acid
> <PUBCHEM_IUPAC_NAME>
(3R,4R,5R)-4-acetamido-5-amino-3-[methyl(2-phenylethyl)amino]cyclohexene-1-carboxylic acid
> <PUBCHEM_IUPAC_SYSTEMATIC_NAME>
(3R,4R,5R)-4-acetamido-5-azanyl-3-[methyl(2-phenylethyl)amino]cyclohexene-1-carboxylic acid
> <PUBCHEM_IUPAC_TRADITIONAL_NAME>
(3R,4R,5R)-4-acetamido-5-amino-3-[methyl(phenethyl)amino]cyclohexene-1-carboxylic acid
> <PUBCHEM_IUPAC_INCHI>
InChI=1S/C18H25N3O3/c1-12(22)20-17-15(19)10-14(18(23)24)11-16(17)21(2)9-8-13-6-4-3-5-7-13/h3-7,11,15-17H,8-10,19H2,1-2H3,(H,20,22)(H,23,24)/t15-,16-,17-/m1/s1
> <PUBCHEM_IUPAC_INCHIKEY>
JGHGNWBFWJQGDZ-BRWVUGGUSA-N
> <PUBCHEM_XLOGP3_AA>
-1.6
> <PUBCHEM_EXACT_MASS>
331.18959167
> <PUBCHEM_MOLECULAR_FORMULA>
C18H25N3O3
> <PUBCHEM_MOLECULAR_WEIGHT>
331.4
> <PUBCHEM_OPENEYE_CAN_SMILES>
CC(=O)NC1C(CC(=CC1N(C)CCC2=CC=CC=C2)C(=O)O)N
> <PUBCHEM_OPENEYE_ISO_SMILES>
CC(=O)N[C@@H]1[C@@H](CC(=C[C@H]1N(C)CCC2=CC=CC=C2)C(=O)O)N
> <PUBCHEM_CACTVS_TPSA>
95.7
> <PUBCHEM_MONOISOTOPIC_WEIGHT>
331.18959167
> <PUBCHEM_TOTAL_CHARGE>
0
> <PUBCHEM_HEAVY_ATOM_COUNT>
24
> <PUBCHEM_ATOM_DEF_STEREO_COUNT>
3
> <PUBCHEM_ATOM_UDEF_STEREO_COUNT>
0
> <PUBCHEM_BOND_DEF_STEREO_COUNT>
0
> <PUBCHEM_BOND_UDEF_STEREO_COUNT>
0
> <PUBCHEM_ISOTOPIC_ATOM_COUNT>
0
> <PUBCHEM_COMPONENT_COUNT>
1
> <PUBCHEM_CACTVS_TAUTO_COUNT>
-1
> <PUBCHEM_COORDINATE_TYPE>
1
5
255
> <PUBCHEM_BONDANNOTATIONS>
18  20  8
18  21  8
20  22  8
21  23  8
22  24  8
23  24  8
8  4  5
7  5  6
9  6  6
$$$$
