506122
  -OEChem-10302200282D
 43 43  0     1  0  0  0  0  0999 V2000
    4.3661   -1.6550    0.0000 O   0  0  0  0  0  0  0  0  0  0  0  0
    6.9642    2.8450    0.0000 O   0  0  0  0  0  0  0  0  0  0  0  0
    2.0000    0.7110    0.0000 O   0  0  0  0  0  0  0  0  0  0  0  0
    7.8302    1.3450    0.0000 O   0  0  0  0  0  0  0  0  0  0  0  0
    5.2321   -0.1550    0.0000 N   0  0  0  0  0  0  0  0  0  0  0  0
    3.5000   -0.1550    0.0000 N   0  0  0  0  0  0  0  0  0  0  0  0
    6.0981    0.3450    0.0000 N   0  0  0  0  0  0  0  0  0  0  0  0
    3.5000    1.8450    0.0000 N   0  0  0  0  0  0  0  0  0  0  0  0
    4.3661    0.3450    0.0000 C   0  0  2  0  0  0  0  0  0  0  0  0
    4.3661    1.3450    0.0000 C   0  0  2  0  0  0  0  0  0  0  0  0
    5.2321    1.8450    0.0000 C   0  0  0  0  0  0  0  0  0  0  0  0
    6.0981   -1.6550    0.0000 C   0  0  0  0  0  0  0  0  0  0  0  0
    5.2321   -1.1550    0.0000 C   0  0  0  0  0  0  0  0  0  0  0  0
    6.0981    1.3450    0.0000 C   0  0  0  0  0  0  0  0  0  0  0  0
    6.0981   -2.6550    0.0000 C   0  0  0  0  0  0  0  0  0  0  0  0
    6.9642   -1.1550    0.0000 C   0  0  0  0  0  0  0  0  0  0  0  0
    6.9642   -3.1550    0.0000 C   0  0  0  0  0  0  0  0  0  0  0  0
    7.8302   -1.6550    0.0000 C   0  0  0  0  0  0  0  0  0  0  0  0
    2.5000   -0.1550    0.0000 C   0  0  0  0  0  0  0  0  0  0  0  0
    6.9642    1.8450    0.0000 C   0  0  0  0  0  0  0  0  0  0  0  0
    2.0000   -1.0209    0.0000 C   0  0  0  0  0  0  0  0  0  0  0  0
    4.3661   -0.2750    0.0000 H   0  0  0  0  0  0  0  0  0  0  0  0
    4.3661    1.9650    0.0000 H   0  0  0  0  0  0  0  0  0  0  0  0
    6.6351   -1.9650    0.0000 H   0  0  0  0  0  0  0  0  0  0  0  0
    5.6306    2.3200    0.0000 H   0  0  0  0  0  0  0  0  0  0  0  0
    4.8336    2.3200    0.0000 H   0  0  0  0  0  0  0  0  0  0  0  0
    5.4876   -2.5473    0.0000 H   0  0  0  0  0  0  0  0  0  0  0  0
    5.8861   -3.2376    0.0000 H   0  0  0  0  0  0  0  0  0  0  0  0
    7.3627   -0.6801    0.0000 H   0  0  0  0  0  0  0  0  0  0  0  0
    6.5656   -0.6801    0.0000 H   0  0  0  0  0  0  0  0  0  0  0  0
    3.5000   -0.7750    0.0000 H   0  0  0  0  0  0  0  0  0  0  0  0
    3.5000    2.4650    0.0000 H   0  0  0  0  0  0  0  0  0  0  0  0
    2.8801    1.8450    0.0000 H   0  0  0  0  0  0  0  0  0  0  0  0
    6.6542   -3.6919    0.0000 H   0  0  0  0  0  0  0  0  0  0  0  0
    7.5011   -3.4650    0.0000 H   0  0  0  0  0  0  0  0  0  0  0  0
    7.2742   -2.6181    0.0000 H   0  0  0  0  0  0  0  0  0  0  0  0
    7.5202   -2.1919    0.0000 H   0  0  0  0  0  0  0  0  0  0  0  0
    8.3671   -1.9650    0.0000 H   0  0  0  0  0  0  0  0  0  0  0  0
    8.1402   -1.1181    0.0000 H   0  0  0  0  0  0  0  0  0  0  0  0
    1.4631   -0.7109    0.0000 H   0  0  0  0  0  0  0  0  0  0  0  0
    1.6900   -1.5578    0.0000 H   0  0  0  0  0  0  0  0  0  0  0  0
    2.5369   -1.3310    0.0000 H   0  0  0  0  0  0  0  0  0  0  0  0
    7.5011    3.1550    0.0000 H   0  0  0  0  0  0  0  0  0  0  0  0
  1 13  2  0  0  0  0
  2 20  1  0  0  0  0
  2 43  1  0  0  0  0
  3 19  2  0  0  0  0
  4 20  2  0  0  0  0
  5  7  1  0  0  0  0
  5  9  1  0  0  0  0
  5 13  1  0  0  0  0
  9  6  1  6  0  0  0
  6 19  1  0  0  0  0
  6 31  1  0  0  0  0
  7 14  2  0  0  0  0
 10  8  1  1  0  0  0
  8 32  1  0  0  0  0
  8 33  1  0  0  0  0
  9 10  1  0  0  0  0
  9 22  1  0  0  0  0
 10 11  1  0  0  0  0
 10 23  1  0  0  0  0
 11 14  1  0  0  0  0
 11 25  1  0  0  0  0
 11 26  1  0  0  0  0
 12 13  1  0  0  0  0
 12 15  1  0  0  0  0
 12 16  1  0  0  0  0
 12 24  1  0  0  0  0
 14 20  1  0  0  0  0
 15 17  1  0  0  0  0
 15 27  1  0  0  0  0
 15 28  1  0  0  0  0
 16 18  1  0  0  0  0
 16 29  1  0  0  0  0
 16 30  1  0  0  0  0
 17 34  1  0  0  0  0
 17 35  1  0  0  0  0
 17 36  1  0  0  0  0
 18 37  1  0  0  0  0
 18 38  1  0  0  0  0
 18 39  1  0  0  0  0
 19 21  1  0  0  0  0
 21 40  1  0  0  0  0
 21 41  1  0  0  0  0
 21 42  1  0  0  0  0
M  END
> <PUBCHEM_COMPOUND_CID>
506122
> <PUBCHEM_COMPOUND_CANONICALIZED>
1
> <PUBCHEM_CACTVS_COMPLEXITY>
459
> <PUBCHEM_CACTVS_HBOND_ACCEPTOR>
6
> <PUBCHEM_CACTVS_HBOND_DONOR>
3
> <PUBCHEM_CACTVS_ROTATABLE_BOND>
5
> <PUBCHEM_CACTVS_SUBSKEYS>
AAADceBzuAAAAAAAAAAAAAAAAAAAAAAAAAAgAAAAAAAAAAAAAAAAHgAYCAAADSjBgAQDCALAAgAoAQGwGAQQAAAAAAAWAIE4AACAQBIAgAAUQAAcHwKAAAC8EQIKAAAAAAAAAAAAAAAAAAAAAAAAAAAAAA==
> <PUBCHEM_IUPAC_OPENEYE_NAME>
(3S,4S)-3-acetamido-4-amino-2-(2-ethylbutanoyl)-4,5-dihydro-3H-pyridazine-6-carboxylic acid
> <PUBCHEM_IUPAC_CAS_NAME>
(3S,4S)-3-acetamido-4-amino-2-(2-ethyl-1-oxobutyl)-4,5-dihydro-3H-pyridazine-6-carboxylic acid
> <PUBCHEM_IUPAC_NAME_MARKUP>
(3<I>S</I>,4<I>S</I>)-3-acetamido-4-amino-2-(2-ethylbutanoyl)-4,5-dihydro-3<I>H</I>-pyridazine-6-carboxylic acid
> <PUBCHEM_IUPAC_NAME>
(3S,4S)-3-acetamido-4-amino-2-(2-ethylbutanoyl)-4,5-dihydro-3H-pyridazine-6-carboxylic acid
> <PUBCHEM_IUPAC_SYSTEMATIC_NAME>
(3S,4S)-3-acetamido-4-azanyl-2-(2-ethylbutanoyl)-4,5-dihydro-3H-pyridazine-6-carboxylic acid
> <PUBCHEM_IUPAC_TRADITIONAL_NAME>
(3S,4S)-3-acetamido-4-amino-2-(2-ethylbutanoyl)-4,5-dihydro-3H-pyridazine-6-carboxylic acid
> <PUBCHEM_IUPAC_INCHI>
InChI=1S/C13H22N4O4/c1-4-8(5-2)12(19)17-11(15-7(3)18)9(14)6-10(16-17)13(20)21/h8-9,11H,4-6,14H2,1-3H3,(H,15,18)(H,20,21)/t9-,11-/m0/s1
> <PUBCHEM_IUPAC_INCHIKEY>
TWIKMSBUPNVIPQ-ONGXEEELSA-N
> <PUBCHEM_XLOGP3_AA>
-2.2
> <PUBCHEM_EXACT_MASS>
298.16410520
> <PUBCHEM_MOLECULAR_FORMULA>
C13H22N4O4
> <PUBCHEM_MOLECULAR_WEIGHT>
298.34
> <PUBCHEM_OPENEYE_CAN_SMILES>
CCC(CC)C(=O)N1C(C(CC(=N1)C(=O)O)N)NC(=O)C
> <PUBCHEM_OPENEYE_ISO_SMILES>
CCC(CC)C(=O)N1[C@@H]([C@H](CC(=N1)C(=O)O)N)NC(=O)C
> <PUBCHEM_CACTVS_TPSA>
125
> <PUBCHEM_MONOISOTOPIC_WEIGHT>
298.16410520
> <PUBCHEM_TOTAL_CHARGE>
0
> <PUBCHEM_HEAVY_ATOM_COUNT>
21
> <PUBCHEM_ATOM_DEF_STEREO_COUNT>
2
> <PUBCHEM_ATOM_UDEF_STEREO_COUNT>
0
> <PUBCHEM_BOND_DEF_STEREO_COUNT>
0
> <PUBCHEM_BOND_UDEF_STEREO_COUNT>
0
> <PUBCHEM_ISOTOPIC_ATOM_COUNT>
0
> <PUBCHEM_COMPONENT_COUNT>
1
> <PUBCHEM_CACTVS_TAUTO_COUNT>
-1
> <PUBCHEM_COORDINATE_TYPE>
1
5
255
> <PUBCHEM_BONDANNOTATIONS>
9  6  6
10  8  5
$$$$
