506148
  -OEChem-10302200282D
 39 42  0     1  0  0  0  0  0999 V2000
    4.8680   -0.0080    0.0000 O   0  0  0  0  0  0  0  0  0  0  0  0
    2.6166    1.4397    0.0000 O   0  0  0  0  0  0  0  0  0  0  0  0
    9.3259   -1.4060    0.0000 O   0  0  0  0  0  0  0  0  0  0  0  0
    5.7816   -1.6012    0.0000 O   0  0  0  0  0  0  0  0  0  0  0  0
    6.6476   -0.1012    0.0000 N   0  0  0  0  0  0  0  0  0  0  0  0
    7.5136   -1.6012    0.0000 N   0  0  0  0  0  0  0  0  0  0  0  0
    5.7816    0.3988    0.0000 C   0  0  3  0  0  0  0  0  0  0  0  0
    5.6771    1.3933    0.0000 C   0  0  0  0  0  0  0  0  0  0  0  0
    4.6989    1.6012    0.0000 C   0  0  0  0  0  0  0  0  0  0  0  0
    4.1989    0.7352    0.0000 C   0  0  1  0  0  0  0  0  0  0  0  0
    3.2044    0.6307    0.0000 C   0  0  0  0  0  0  0  0  0  0  0  0
    7.5136    0.3988    0.0000 C   0  0  0  0  0  0  0  0  0  0  0  0
    6.6476   -1.1012    0.0000 C   0  0  0  0  0  0  0  0  0  0  0  0
    8.3797   -0.1012    0.0000 C   0  0  0  0  0  0  0  0  0  0  0  0
    8.3797   -1.1012    0.0000 C   0  0  0  0  0  0  0  0  0  0  0  0
    9.3259    0.2035    0.0000 C   0  0  0  0  0  0  0  0  0  0  0  0
    9.9095   -0.6012    0.0000 C   0  0  0  0  0  0  0  0  0  0  0  0
   10.9095   -0.6012    0.0000 C   0  0  0  0  0  0  0  0  0  0  0  0
   11.4095   -1.4672    0.0000 C   0  0  0  0  0  0  0  0  0  0  0  0
   11.4095    0.2648    0.0000 C   0  0  0  0  0  0  0  0  0  0  0  0
   12.4095   -1.4672    0.0000 C   0  0  0  0  0  0  0  0  0  0  0  0
   12.4095    0.2648    0.0000 C   0  0  0  0  0  0  0  0  0  0  0  0
   12.9095   -0.6012    0.0000 C   0  0  0  0  0  0  0  0  0  0  0  0
    6.3016    0.7365    0.0000 H   0  0  0  0  0  0  0  0  0  0  0  0
    6.2971    1.3933    0.0000 H   0  0  0  0  0  0  0  0  0  0  0  0
    5.7419    2.0099    0.0000 H   0  0  0  0  0  0  0  0  0  0  0  0
    4.8905    2.1909    0.0000 H   0  0  0  0  0  0  0  0  0  0  0  0
    4.1325    1.8534    0.0000 H   0  0  0  0  0  0  0  0  0  0  0  0
    3.9767    0.1564    0.0000 H   0  0  0  0  0  0  0  0  0  0  0  0
    2.6471    0.3589    0.0000 H   0  0  0  0  0  0  0  0  0  0  0  0
    3.3753    0.0347    0.0000 H   0  0  0  0  0  0  0  0  0  0  0  0
    7.5136    1.0188    0.0000 H   0  0  0  0  0  0  0  0  0  0  0  0
    9.5185    0.7928    0.0000 H   0  0  0  0  0  0  0  0  0  0  0  0
    2.0000    1.3749    0.0000 H   0  0  0  0  0  0  0  0  0  0  0  0
   11.0995   -2.0042    0.0000 H   0  0  0  0  0  0  0  0  0  0  0  0
   11.0995    0.8017    0.0000 H   0  0  0  0  0  0  0  0  0  0  0  0
   12.7195   -2.0042    0.0000 H   0  0  0  0  0  0  0  0  0  0  0  0
   12.7195    0.8017    0.0000 H   0  0  0  0  0  0  0  0  0  0  0  0
   13.5295   -0.6012    0.0000 H   0  0  0  0  0  0  0  0  0  0  0  0
  1  7  1  0  0  0  0
  1 10  1  0  0  0  0
  2 11  1  0  0  0  0
  2 34  1  0  0  0  0
  3 15  1  0  0  0  0
  3 17  1  0  0  0  0
  4 13  2  0  0  0  0
  5  7  1  0  0  0  0
  5 12  1  0  0  0  0
  5 13  1  0  0  0  0
  6 13  1  0  0  0  0
  6 15  2  0  0  0  0
  7  8  1  0  0  0  0
  7 24  1  0  0  0  0
  8  9  1  0  0  0  0
  8 25  1  0  0  0  0
  8 26  1  0  0  0  0
  9 10  1  0  0  0  0
  9 27  1  0  0  0  0
  9 28  1  0  0  0  0
 10 11  1  6  0  0  0
 10 29  1  0  0  0  0
 11 30  1  0  0  0  0
 11 31  1  0  0  0  0
 12 14  2  0  0  0  0
 12 32  1  0  0  0  0
 14 15  1  0  0  0  0
 14 16  1  0  0  0  0
 16 17  2  0  0  0  0
 16 33  1  0  0  0  0
 17 18  1  0  0  0  0
 18 19  2  0  0  0  0
 18 20  1  0  0  0  0
 19 21  1  0  0  0  0
 19 35  1  0  0  0  0
 20 22  2  0  0  0  0
 20 36  1  0  0  0  0
 21 23  2  0  0  0  0
 21 37  1  0  0  0  0
 22 23  1  0  0  0  0
 22 38  1  0  0  0  0
 23 39  1  0  0  0  0
M  END
> <PUBCHEM_COMPOUND_CID>
506148
> <PUBCHEM_COMPOUND_CANONICALIZED>
1
> <PUBCHEM_CACTVS_COMPLEXITY>
589
> <PUBCHEM_CACTVS_HBOND_ACCEPTOR>
4
> <PUBCHEM_CACTVS_HBOND_DONOR>
1
> <PUBCHEM_CACTVS_ROTATABLE_BOND>
3
> <PUBCHEM_CACTVS_SUBSKEYS>
AAADceB7OAAAAAAAAAAAAAAAAAAAASIAAAAwQAAAAAAAAEABAAAAHgAACAAADBThmAYxAIMABgCoAiBmVAACCAAgIAAIiAAoCJiJNiKAsRiOcAAkxgMLqAew8CIOAAAAAAAAAAAAAAAAAAAAAAAAAAAAAA==
> <PUBCHEM_IUPAC_OPENEYE_NAME>
3-[(5S)-5-(hydroxymethyl)tetrahydrofuran-2-yl]-6-phenyl-furo[2,3-d]pyrimidin-2-one
> <PUBCHEM_IUPAC_CAS_NAME>
3-[(5S)-5-(hydroxymethyl)-2-oxolanyl]-6-phenyl-2-furo[2,3-d]pyrimidinone
> <PUBCHEM_IUPAC_NAME_MARKUP>
3-[(5<I>S</I>)-5-(hydroxymethyl)oxolan-2-yl]-6-phenylfuro[2,3-d]pyrimidin-2-one
> <PUBCHEM_IUPAC_NAME>
3-[(5S)-5-(hydroxymethyl)oxolan-2-yl]-6-phenylfuro[2,3-d]pyrimidin-2-one
> <PUBCHEM_IUPAC_SYSTEMATIC_NAME>
3-[(5S)-5-(hydroxymethyl)oxolan-2-yl]-6-phenyl-furo[2,3-d]pyrimidin-2-one
> <PUBCHEM_IUPAC_TRADITIONAL_NAME>
3-[(5S)-5-methyloltetrahydrofuran-2-yl]-6-phenyl-furo[2,3-d]pyrimidin-2-one
> <PUBCHEM_IUPAC_INCHI>
InChI=1S/C17H16N2O4/c20-10-13-6-7-15(22-13)19-9-12-8-14(11-4-2-1-3-5-11)23-16(12)18-17(19)21/h1-5,8-9,13,15,20H,6-7,10H2/t13-,15?/m0/s1
> <PUBCHEM_IUPAC_INCHIKEY>
HNUKGGFTHZQSOC-CFMCSPIPSA-N
> <PUBCHEM_XLOGP3_AA>
1.5
> <PUBCHEM_EXACT_MASS>
312.11100700
> <PUBCHEM_MOLECULAR_FORMULA>
C17H16N2O4
> <PUBCHEM_MOLECULAR_WEIGHT>
312.32
> <PUBCHEM_OPENEYE_CAN_SMILES>
C1CC(OC1CO)N2C=C3C=C(OC3=NC2=O)C4=CC=CC=C4
> <PUBCHEM_OPENEYE_ISO_SMILES>
C1CC(O[C@@H]1CO)N2C=C3C=C(OC3=NC2=O)C4=CC=CC=C4
> <PUBCHEM_CACTVS_TPSA>
71.4
> <PUBCHEM_MONOISOTOPIC_WEIGHT>
312.11100700
> <PUBCHEM_TOTAL_CHARGE>
0
> <PUBCHEM_HEAVY_ATOM_COUNT>
23
> <PUBCHEM_ATOM_DEF_STEREO_COUNT>
1
> <PUBCHEM_ATOM_UDEF_STEREO_COUNT>
1
> <PUBCHEM_BOND_DEF_STEREO_COUNT>
0
> <PUBCHEM_BOND_UDEF_STEREO_COUNT>
0
> <PUBCHEM_ISOTOPIC_ATOM_COUNT>
0
> <PUBCHEM_COMPONENT_COUNT>
1
> <PUBCHEM_CACTVS_TAUTO_COUNT>
-1
> <PUBCHEM_COORDINATE_TYPE>
1
5
255
> <PUBCHEM_BONDANNOTATIONS>
10  11  6
12  14  8
14  15  8
14  16  8
16  17  8
18  19  8
18  20  8
19  21  8
20  22  8
21  23  8
22  23  8
3  15  8
3  17  8
5  12  8
5  13  8
7  5  3
6  13  8
6  15  8
$$$$
