506115
  -OEChem-10302200282D
 41 42  0     1  0  0  0  0  0999 V2000
    2.0000    1.6940    0.0000 O   0  0  0  0  0  0  0  0  0  0  0  0
    6.3301   -2.8060    0.0000 O   0  0  0  0  0  0  0  0  0  0  0  0
    4.5981   -2.8060    0.0000 O   0  0  0  0  0  0  0  0  0  0  0  0
    6.9641    2.5600    0.0000 O   0  0  0  0  0  0  0  0  0  0  0  0
    3.7320    0.6940    0.0000 N   0  0  0  0  0  0  0  0  0  0  0  0
    5.4641    1.6940    0.0000 N   0  0  0  0  0  0  0  0  0  0  0  0
    7.1962    0.6940    0.0000 N   0  0  0  0  0  0  0  0  0  0  0  0
    4.5981    0.1940    0.0000 C   0  0  1  0  0  0  0  0  0  0  0  0
    5.4641    0.6940    0.0000 C   0  0  1  0  0  0  0  0  0  0  0  0
    6.3301    0.1940    0.0000 C   0  0  2  0  0  0  0  0  0  0  0  0
    6.3301   -0.8060    0.0000 C   0  0  0  0  0  0  0  0  0  0  0  0
    4.5981   -0.8060    0.0000 C   0  0  0  0  0  0  0  0  0  0  0  0
    2.8660    0.1940    0.0000 C   0  0  0  0  0  0  0  0  0  0  0  0
    3.7320    1.6940    0.0000 C   0  0  0  0  0  0  0  0  0  0  0  0
    5.4641   -1.3060    0.0000 C   0  0  0  0  0  0  0  0  0  0  0  0
    2.0000    0.6940    0.0000 C   0  0  0  0  0  0  0  0  0  0  0  0
    2.8660    2.1940    0.0000 C   0  0  0  0  0  0  0  0  0  0  0  0
    5.4641   -2.3060    0.0000 C   0  0  0  0  0  0  0  0  0  0  0  0
    5.9641    2.5600    0.0000 C   0  0  0  0  0  0  0  0  0  0  0  0
    5.4641    3.4260    0.0000 C   0  0  0  0  0  0  0  0  0  0  0  0
    4.5981    0.8140    0.0000 H   0  0  0  0  0  0  0  0  0  0  0  0
    6.0010    1.0040    0.0000 H   0  0  0  0  0  0  0  0  0  0  0  0
    6.8671   -0.1160    0.0000 H   0  0  0  0  0  0  0  0  0  0  0  0
    6.5422   -1.3886    0.0000 H   0  0  0  0  0  0  0  0  0  0  0  0
    6.9407   -0.6984    0.0000 H   0  0  0  0  0  0  0  0  0  0  0  0
    4.0611   -1.1160    0.0000 H   0  0  0  0  0  0  0  0  0  0  0  0
    2.4675   -0.2810    0.0000 H   0  0  0  0  0  0  0  0  0  0  0  0
    3.2646   -0.2810    0.0000 H   0  0  0  0  0  0  0  0  0  0  0  0
    4.3426    1.5863    0.0000 H   0  0  0  0  0  0  0  0  0  0  0  0
    3.9441    2.2766    0.0000 H   0  0  0  0  0  0  0  0  0  0  0  0
    4.9272    2.0040    0.0000 H   0  0  0  0  0  0  0  0  0  0  0  0
    1.3894    0.8016    0.0000 H   0  0  0  0  0  0  0  0  0  0  0  0
    1.7880    0.1114    0.0000 H   0  0  0  0  0  0  0  0  0  0  0  0
    3.2646    2.6689    0.0000 H   0  0  0  0  0  0  0  0  0  0  0  0
    2.4675    2.6689    0.0000 H   0  0  0  0  0  0  0  0  0  0  0  0
    7.7331    0.3840    0.0000 H   0  0  0  0  0  0  0  0  0  0  0  0
    7.5062    1.2309    0.0000 H   0  0  0  0  0  0  0  0  0  0  0  0
    6.0010    3.7360    0.0000 H   0  0  0  0  0  0  0  0  0  0  0  0
    5.1541    3.9630    0.0000 H   0  0  0  0  0  0  0  0  0  0  0  0
    4.9272    3.1160    0.0000 H   0  0  0  0  0  0  0  0  0  0  0  0
    6.3301   -3.4260    0.0000 H   0  0  0  0  0  0  0  0  0  0  0  0
  1 16  1  0  0  0  0
  1 17  1  0  0  0  0
  2 18  1  0  0  0  0
  2 41  1  0  0  0  0
  3 18  2  0  0  0  0
  4 19  2  0  0  0  0
  8  5  1  1  0  0  0
  5 13  1  0  0  0  0
  5 14  1  0  0  0  0
  9  6  1  6  0  0  0
  6 19  1  0  0  0  0
  6 31  1  0  0  0  0
 10  7  1  1  0  0  0
  7 36  1  0  0  0  0
  7 37  1  0  0  0  0
  8  9  1  0  0  0  0
  8 12  1  0  0  0  0
  8 21  1  0  0  0  0
  9 10  1  0  0  0  0
  9 22  1  0  0  0  0
 10 11  1  0  0  0  0
 10 23  1  0  0  0  0
 11 15  1  0  0  0  0
 11 24  1  0  0  0  0
 11 25  1  0  0  0  0
 12 15  2  0  0  0  0
 12 26  1  0  0  0  0
 13 16  1  0  0  0  0
 13 27  1  0  0  0  0
 13 28  1  0  0  0  0
 14 17  1  0  0  0  0
 14 29  1  0  0  0  0
 14 30  1  0  0  0  0
 15 18  1  0  0  0  0
 16 32  1  0  0  0  0
 16 33  1  0  0  0  0
 17 34  1  0  0  0  0
 17 35  1  0  0  0  0
 19 20  1  0  0  0  0
 20 38  1  0  0  0  0
 20 39  1  0  0  0  0
 20 40  1  0  0  0  0
M  END
> <PUBCHEM_COMPOUND_CID>
506115
> <PUBCHEM_COMPOUND_CANONICALIZED>
1
> <PUBCHEM_CACTVS_COMPLEXITY>
418
> <PUBCHEM_CACTVS_HBOND_ACCEPTOR>
6
> <PUBCHEM_CACTVS_HBOND_DONOR>
3
> <PUBCHEM_CACTVS_ROTATABLE_BOND>
3
> <PUBCHEM_CACTVS_SUBSKEYS>
AAADceBzOAAAAAAAAAAAAAAAAAAAAAAAAAAsQAAAAAAAAAAAAAAAHgAQCAAADCjhgAYCCAPABgCIAiHSGACAAAAgAAAACIEIAEgCRBIAwQAXUAAElgCYEYO82SOQAAAAAAAAAAAAAAAAAAAAAAAAAAAAAA==
> <PUBCHEM_IUPAC_OPENEYE_NAME>
(3R,4R,5S)-4-acetamido-5-amino-3-morpholino-cyclohexene-1-carboxylic acid
> <PUBCHEM_IUPAC_CAS_NAME>
(3R,4R,5S)-4-acetamido-5-amino-3-(4-morpholinyl)-1-cyclohexenecarboxylic acid
> <PUBCHEM_IUPAC_NAME_MARKUP>
(3<I>R</I>,4<I>R</I>,5<I>S</I>)-4-acetamido-5-amino-3-morpholin-4-ylcyclohexene-1-carboxylic acid
> <PUBCHEM_IUPAC_NAME>
(3R,4R,5S)-4-acetamido-5-amino-3-morpholin-4-ylcyclohexene-1-carboxylic acid
> <PUBCHEM_IUPAC_SYSTEMATIC_NAME>
(3R,4R,5S)-4-acetamido-5-azanyl-3-morpholin-4-yl-cyclohexene-1-carboxylic acid
> <PUBCHEM_IUPAC_TRADITIONAL_NAME>
(3R,4R,5S)-4-acetamido-5-amino-3-morpholino-cyclohexene-1-carboxylic acid
> <PUBCHEM_IUPAC_INCHI>
InChI=1S/C13H21N3O4/c1-8(17)15-12-10(14)6-9(13(18)19)7-11(12)16-2-4-20-5-3-16/h7,10-12H,2-6,14H2,1H3,(H,15,17)(H,18,19)/t10-,11+,12+/m0/s1
> <PUBCHEM_IUPAC_INCHIKEY>
WYWNZCZUCHSVES-QJPTWQEYSA-N
> <PUBCHEM_XLOGP3_AA>
-3.9
> <PUBCHEM_EXACT_MASS>
283.15320616
> <PUBCHEM_MOLECULAR_FORMULA>
C13H21N3O4
> <PUBCHEM_MOLECULAR_WEIGHT>
283.32
> <PUBCHEM_OPENEYE_CAN_SMILES>
CC(=O)NC1C(CC(=CC1N2CCOCC2)C(=O)O)N
> <PUBCHEM_OPENEYE_ISO_SMILES>
CC(=O)N[C@@H]1[C@H](CC(=C[C@H]1N2CCOCC2)C(=O)O)N
> <PUBCHEM_CACTVS_TPSA>
105
> <PUBCHEM_MONOISOTOPIC_WEIGHT>
283.15320616
> <PUBCHEM_TOTAL_CHARGE>
0
> <PUBCHEM_HEAVY_ATOM_COUNT>
20
> <PUBCHEM_ATOM_DEF_STEREO_COUNT>
3
> <PUBCHEM_ATOM_UDEF_STEREO_COUNT>
0
> <PUBCHEM_BOND_DEF_STEREO_COUNT>
0
> <PUBCHEM_BOND_UDEF_STEREO_COUNT>
0
> <PUBCHEM_ISOTOPIC_ATOM_COUNT>
0
> <PUBCHEM_COMPONENT_COUNT>
1
> <PUBCHEM_CACTVS_TAUTO_COUNT>
-1
> <PUBCHEM_COORDINATE_TYPE>
1
5
255
> <PUBCHEM_BONDANNOTATIONS>
8  5  5
9  6  6
10  7  5
$$$$
