506141
  -OEChem-10302200282D
 37 38  0     1  0  0  0  0  0999 V2000
    2.0000    1.8725    0.0000 Cl  0  0  0  0  0  0  0  0  0  0  0  0
    7.1391   -1.2153    0.0000 O   0  0  0  0  0  0  0  0  0  0  0  0
    5.2423   -2.9754    0.0000 O   0  0  0  0  0  0  0  0  0  0  0  0
    8.4124   -2.8709    0.0000 O   0  0  0  0  0  0  0  0  0  0  0  0
    8.0622    0.3725    0.0000 O   0  0  0  0  0  0  0  0  0  0  0  0
    6.3301    3.3725    0.0000 O   0  0  0  0  0  0  0  0  0  0  0  0
    6.3301    0.3725    0.0000 N   0  0  0  0  0  0  0  0  0  0  0  0
    7.1962    1.8725    0.0000 N   0  0  0  0  0  0  0  0  0  0  0  0
    6.3301   -0.6275    0.0000 C   0  0  3  0  0  0  0  0  0  0  0  0
    5.8301   -2.1664    0.0000 C   0  0  3  0  0  0  0  0  0  0  0  0
    5.5211   -1.2153    0.0000 C   0  0  0  0  0  0  0  0  0  0  0  0
    6.8301   -2.1664    0.0000 C   0  0  3  0  0  0  0  0  0  0  0  0
    7.4179   -2.9754    0.0000 C   0  0  0  0  0  0  0  0  0  0  0  0
    5.4641    0.8725    0.0000 C   0  0  0  0  0  0  0  0  0  0  0  0
    7.1962    0.8725    0.0000 C   0  0  0  0  0  0  0  0  0  0  0  0
    5.4641    1.8725    0.0000 C   0  0  0  0  0  0  0  0  0  0  0  0
    4.5981    2.3725    0.0000 C   0  0  0  0  0  0  0  0  0  0  0  0
    6.3301    2.3725    0.0000 C   0  0  0  0  0  0  0  0  0  0  0  0
    3.7320    1.8725    0.0000 C   0  0  0  0  0  0  0  0  0  0  0  0
    2.8660    2.3725    0.0000 C   0  0  0  0  0  0  0  0  0  0  0  0
    6.8826   -0.3461    0.0000 H   0  0  0  0  0  0  0  0  0  0  0  0
    6.1116   -2.7188    0.0000 H   0  0  0  0  0  0  0  0  0  0  0  0
    5.2111   -0.6784    0.0000 H   0  0  0  0  0  0  0  0  0  0  0  0
    4.9547   -1.4675    0.0000 H   0  0  0  0  0  0  0  0  0  0  0  0
    7.4425   -2.0694    0.0000 H   0  0  0  0  0  0  0  0  0  0  0  0
    6.8607   -3.2472    0.0000 H   0  0  0  0  0  0  0  0  0  0  0  0
    7.5888   -3.5714    0.0000 H   0  0  0  0  0  0  0  0  0  0  0  0
    4.9272    0.5625    0.0000 H   0  0  0  0  0  0  0  0  0  0  0  0
    4.6257   -2.9106    0.0000 H   0  0  0  0  0  0  0  0  0  0  0  0
    4.9966    2.8474    0.0000 H   0  0  0  0  0  0  0  0  0  0  0  0
    4.1996    2.8474    0.0000 H   0  0  0  0  0  0  0  0  0  0  0  0
    7.7331    2.1825    0.0000 H   0  0  0  0  0  0  0  0  0  0  0  0
    3.3335    1.3975    0.0000 H   0  0  0  0  0  0  0  0  0  0  0  0
    4.1306    1.3975    0.0000 H   0  0  0  0  0  0  0  0  0  0  0  0
    8.7769   -3.3725    0.0000 H   0  0  0  0  0  0  0  0  0  0  0  0
    3.2646    2.8474    0.0000 H   0  0  0  0  0  0  0  0  0  0  0  0
    2.4675    2.8474    0.0000 H   0  0  0  0  0  0  0  0  0  0  0  0
  1 20  1  0  0  0  0
  2  9  1  0  0  0  0
  2 12  1  0  0  0  0
  3 10  1  0  0  0  0
  3 29  1  0  0  0  0
  4 13  1  0  0  0  0
  4 35  1  0  0  0  0
  5 15  2  0  0  0  0
  6 18  2  0  0  0  0
  7  9  1  0  0  0  0
  7 14  1  0  0  0  0
  7 15  1  0  0  0  0
  8 15  1  0  0  0  0
  8 18  1  0  0  0  0
  8 32  1  0  0  0  0
  9 11  1  0  0  0  0
  9 21  1  0  0  0  0
 10 11  1  0  0  0  0
 10 12  1  0  0  0  0
 10 22  1  0  0  0  0
 11 23  1  0  0  0  0
 11 24  1  0  0  0  0
 12 13  1  0  0  0  0
 12 25  1  0  0  0  0
 13 26  1  0  0  0  0
 13 27  1  0  0  0  0
 14 16  2  0  0  0  0
 14 28  1  0  0  0  0
 16 17  1  0  0  0  0
 16 18  1  0  0  0  0
 17 19  1  0  0  0  0
 17 30  1  0  0  0  0
 17 31  1  0  0  0  0
 19 20  1  0  0  0  0
 19 33  1  0  0  0  0
 19 34  1  0  0  0  0
 20 36  1  0  0  0  0
 20 37  1  0  0  0  0
M  END
> <PUBCHEM_COMPOUND_CID>
506141
> <PUBCHEM_COMPOUND_CANONICALIZED>
1
> <PUBCHEM_CACTVS_COMPLEXITY>
428
> <PUBCHEM_CACTVS_HBOND_ACCEPTOR>
5
> <PUBCHEM_CACTVS_HBOND_DONOR>
3
> <PUBCHEM_CACTVS_ROTATABLE_BOND>
5
> <PUBCHEM_CACTVS_SUBSKEYS>
AAADceBzOAAEAAAAAAAAAAAAAAAAASAAAAAgAAAAAAAAAAAAAAAAHgIQCAAADBfhgEYBAAPABgCIAgFWUACAAAAgAAAAAAEIAkiBEBIBgQAOQAAPhyIDAMC4MAIAAAAAAAAAAAAAAAAAAAAAAAAAAAAAAA==
> <PUBCHEM_IUPAC_OPENEYE_NAME>
5-(3-chloropropyl)-1-[4-hydroxy-5-(hydroxymethyl)tetrahydrofuran-2-yl]pyrimidine-2,4-dione
> <PUBCHEM_IUPAC_CAS_NAME>
5-(3-chloropropyl)-1-[4-hydroxy-5-(hydroxymethyl)-2-oxolanyl]pyrimidine-2,4-dione
> <PUBCHEM_IUPAC_NAME_MARKUP>
5-(3-chloropropyl)-1-[4-hydroxy-5-(hydroxymethyl)oxolan-2-yl]pyrimidine-2,4-dione
> <PUBCHEM_IUPAC_NAME>
5-(3-chloropropyl)-1-[4-hydroxy-5-(hydroxymethyl)oxolan-2-yl]pyrimidine-2,4-dione
> <PUBCHEM_IUPAC_SYSTEMATIC_NAME>
5-(3-chloranylpropyl)-1-[5-(hydroxymethyl)-4-oxidanyl-oxolan-2-yl]pyrimidine-2,4-dione
> <PUBCHEM_IUPAC_TRADITIONAL_NAME>
5-(3-chloropropyl)-1-(4-hydroxy-5-methylol-tetrahydrofuran-2-yl)pyrimidine-2,4-quinone
> <PUBCHEM_IUPAC_INCHI>
InChI=1S/C12H17ClN2O5/c13-3-1-2-7-5-15(12(19)14-11(7)18)10-4-8(17)9(6-16)20-10/h5,8-10,16-17H,1-4,6H2,(H,14,18,19)
> <PUBCHEM_IUPAC_INCHIKEY>
NRZOXEUJFYCPSL-UHFFFAOYSA-N
> <PUBCHEM_XLOGP3>
-0.3
> <PUBCHEM_EXACT_MASS>
304.0825993
> <PUBCHEM_MOLECULAR_FORMULA>
C12H17ClN2O5
> <PUBCHEM_MOLECULAR_WEIGHT>
304.72
> <PUBCHEM_OPENEYE_CAN_SMILES>
C1C(C(OC1N2C=C(C(=O)NC2=O)CCCCl)CO)O
> <PUBCHEM_OPENEYE_ISO_SMILES>
C1C(C(OC1N2C=C(C(=O)NC2=O)CCCCl)CO)O
> <PUBCHEM_CACTVS_TPSA>
99.1
> <PUBCHEM_MONOISOTOPIC_WEIGHT>
304.0825993
> <PUBCHEM_TOTAL_CHARGE>
0
> <PUBCHEM_HEAVY_ATOM_COUNT>
20
> <PUBCHEM_ATOM_DEF_STEREO_COUNT>
0
> <PUBCHEM_ATOM_UDEF_STEREO_COUNT>
3
> <PUBCHEM_BOND_DEF_STEREO_COUNT>
0
> <PUBCHEM_BOND_UDEF_STEREO_COUNT>
0
> <PUBCHEM_ISOTOPIC_ATOM_COUNT>
0
> <PUBCHEM_COMPONENT_COUNT>
1
> <PUBCHEM_CACTVS_TAUTO_COUNT>
-1
> <PUBCHEM_COORDINATE_TYPE>
1
5
255
> <PUBCHEM_BONDANNOTATIONS>
12  13  3
14  16  8
16  18  8
10  3  3
7  14  8
7  15  8
9  7  3
8  15  8
8  18  8
$$$$
