506181
  -OEChem-10302200282D
 57 62  0     1  0  0  0  0  0999 V2000
    6.8067   -4.7975    0.0000 O   0  0  0  0  0  0  0  0  0  0  0  0
    6.8078    2.9735    0.0000 O   0  0  0  0  0  0  0  0  0  0  0  0
    5.9418   -0.5265    0.0000 N   0  0  0  0  0  0  0  0  0  0  0  0
    5.9418    1.4735    0.0000 N   0  0  0  0  0  0  0  0  0  0  0  0
    2.6067    4.6406    0.0000 N   0  0  0  0  0  0  0  0  0  0  0  0
    5.9418   -1.5265    0.0000 C   0  0  3  0  0  0  0  0  0  0  0  0
    6.8078   -0.0265    0.0000 C   0  0  0  0  0  0  0  0  0  0  0  0
    5.0757   -0.0265    0.0000 C   0  0  0  0  0  0  0  0  0  0  0  0
    6.7508   -2.1143    0.0000 C   0  0  0  0  0  0  0  0  0  0  0  0
    5.1328   -2.1143    0.0000 C   0  0  0  0  0  0  0  0  0  0  0  0
    6.8078    0.9735    0.0000 C   0  0  0  0  0  0  0  0  0  0  0  0
    5.0757    0.9735    0.0000 C   0  0  0  0  0  0  0  0  0  0  0  0
    6.4418   -3.0654    0.0000 C   0  0  0  0  0  0  0  0  0  0  0  0
    5.4418   -3.0654    0.0000 C   0  0  0  0  0  0  0  0  0  0  0  0
    7.7662   -1.8821    0.0000 C   0  0  0  0  0  0  0  0  0  0  0  0
    4.1173   -1.8821    0.0000 C   0  0  0  0  0  0  0  0  0  0  0  0
    7.1267   -3.8501    0.0000 C   0  0  0  0  0  0  0  0  0  0  0  0
    4.7568   -3.8501    0.0000 C   0  0  0  0  0  0  0  0  0  0  0  0
    5.9418    2.4735    0.0000 C   0  0  0  0  0  0  0  0  0  0  0  0
    8.4691   -2.6507    0.0000 C   0  0  0  0  0  0  0  0  0  0  0  0
    3.4144   -2.6507    0.0000 C   0  0  0  0  0  0  0  0  0  0  0  0
    8.1472   -3.6414    0.0000 C   0  0  0  0  0  0  0  0  0  0  0  0
    3.7363   -3.6414    0.0000 C   0  0  0  0  0  0  0  0  0  0  0  0
    5.0757    2.9735    0.0000 C   0  0  0  0  0  0  0  0  0  0  0  0
    5.0757    3.9735    0.0000 C   0  0  0  0  0  0  0  0  0  0  0  0
    4.2097    2.4735    0.0000 C   0  0  0  0  0  0  0  0  0  0  0  0
    4.2097    4.4735    0.0000 C   0  0  0  0  0  0  0  0  0  0  0  0
    3.3437    3.9735    0.0000 C   0  0  0  0  0  0  0  0  0  0  0  0
    3.3437    2.9735    0.0000 C   0  0  0  0  0  0  0  0  0  0  0  0
    7.4672   -5.5484    0.0000 C   0  0  0  0  0  0  0  0  0  0  0  0
    4.0005    5.4453    0.0000 C   0  0  0  0  0  0  0  0  0  0  0  0
    3.0118    5.5484    0.0000 C   0  0  0  0  0  0  0  0  0  0  0  0
    6.4942   -1.2450    0.0000 H   0  0  0  0  0  0  0  0  0  0  0  0
    7.0198   -0.6091    0.0000 H   0  0  0  0  0  0  0  0  0  0  0  0
    7.4184    0.0811    0.0000 H   0  0  0  0  0  0  0  0  0  0  0  0
    4.4652    0.0811    0.0000 H   0  0  0  0  0  0  0  0  0  0  0  0
    4.8637   -0.6091    0.0000 H   0  0  0  0  0  0  0  0  0  0  0  0
    7.4184    0.8658    0.0000 H   0  0  0  0  0  0  0  0  0  0  0  0
    7.0198    1.5561    0.0000 H   0  0  0  0  0  0  0  0  0  0  0  0
    4.8637    1.5561    0.0000 H   0  0  0  0  0  0  0  0  0  0  0  0
    4.4652    0.8658    0.0000 H   0  0  0  0  0  0  0  0  0  0  0  0
    7.9510   -1.2902    0.0000 H   0  0  0  0  0  0  0  0  0  0  0  0
    3.9326   -1.2902    0.0000 H   0  0  0  0  0  0  0  0  0  0  0  0
    4.9552   -4.4375    0.0000 H   0  0  0  0  0  0  0  0  0  0  0  0
    9.0751   -2.5195    0.0000 H   0  0  0  0  0  0  0  0  0  0  0  0
    2.8085   -2.5195    0.0000 H   0  0  0  0  0  0  0  0  0  0  0  0
    8.5603   -4.1037    0.0000 H   0  0  0  0  0  0  0  0  0  0  0  0
    3.3232   -4.1037    0.0000 H   0  0  0  0  0  0  0  0  0  0  0  0
    5.6127    4.2835    0.0000 H   0  0  0  0  0  0  0  0  0  0  0  0
    4.2097    1.8535    0.0000 H   0  0  0  0  0  0  0  0  0  0  0  0
    2.8068    2.6635    0.0000 H   0  0  0  0  0  0  0  0  0  0  0  0
    7.0017   -5.9579    0.0000 H   0  0  0  0  0  0  0  0  0  0  0  0
    7.8767   -6.0139    0.0000 H   0  0  0  0  0  0  0  0  0  0  0  0
    7.9328   -5.1388    0.0000 H   0  0  0  0  0  0  0  0  0  0  0  0
    4.4146    5.9068    0.0000 H   0  0  0  0  0  0  0  0  0  0  0  0
    2.0000    4.5127    0.0000 H   0  0  0  0  0  0  0  0  0  0  0  0
    2.7018    6.0853    0.0000 H   0  0  0  0  0  0  0  0  0  0  0  0
  1 17  1  0  0  0  0
  1 30  1  0  0  0  0
  2 19  2  0  0  0  0
  3  6  1  0  0  0  0
  3  7  1  0  0  0  0
  3  8  1  0  0  0  0
  4 11  1  0  0  0  0
  4 12  1  0  0  0  0
  4 19  1  0  0  0  0
  5 28  1  0  0  0  0
  5 32  1  0  0  0  0
  5 56  1  0  0  0  0
  6  9  1  0  0  0  0
  6 10  1  0  0  0  0
  6 33  1  0  0  0  0
  7 11  1  0  0  0  0
  7 34  1  0  0  0  0
  7 35  1  0  0  0  0
  8 12  1  0  0  0  0
  8 36  1  0  0  0  0
  8 37  1  0  0  0  0
  9 13  2  0  0  0  0
  9 15  1  0  0  0  0
 10 14  1  0  0  0  0
 10 16  2  0  0  0  0
 11 38  1  0  0  0  0
 11 39  1  0  0  0  0
 12 40  1  0  0  0  0
 12 41  1  0  0  0  0
 13 14  1  0  0  0  0
 13 17  1  0  0  0  0
 14 18  2  0  0  0  0
 15 20  2  0  0  0  0
 15 42  1  0  0  0  0
 16 21  1  0  0  0  0
 16 43  1  0  0  0  0
 17 22  2  0  0  0  0
 18 23  1  0  0  0  0
 18 44  1  0  0  0  0
 19 24  1  0  0  0  0
 20 22  1  0  0  0  0
 20 45  1  0  0  0  0
 21 23  2  0  0  0  0
 21 46  1  0  0  0  0
 22 47  1  0  0  0  0
 23 48  1  0  0  0  0
 24 25  2  0  0  0  0
 24 26  1  0  0  0  0
 25 27  1  0  0  0  0
 25 49  1  0  0  0  0
 26 29  2  0  0  0  0
 26 50  1  0  0  0  0
 27 28  2  0  0  0  0
 27 31  1  0  0  0  0
 28 29  1  0  0  0  0
 29 51  1  0  0  0  0
 30 52  1  0  0  0  0
 30 53  1  0  0  0  0
 30 54  1  0  0  0  0
 31 32  2  0  0  0  0
 31 55  1  0  0  0  0
 32 57  1  0  0  0  0
M  END
> <PUBCHEM_COMPOUND_CID>
506181
> <PUBCHEM_COMPOUND_CANONICALIZED>
1
> <PUBCHEM_CACTVS_COMPLEXITY>
678
> <PUBCHEM_CACTVS_HBOND_ACCEPTOR>
3
> <PUBCHEM_CACTVS_HBOND_DONOR>
1
> <PUBCHEM_CACTVS_ROTATABLE_BOND>
3
> <PUBCHEM_CACTVS_SUBSKEYS>
AAADceB7MAAAAAAAAAAAAAAAAAAAAeIAAAA8YMEAAAAAAHgB9AAAHgAQAAAADCzBngY+xvPJlACoAzV3VACCiCA1IiAI2aE+bNgMZvLEtZuUMShk1hHI6Ye42fOeiAADAAAaAAAQAAYAADQAASAACQAAAA==
> <PUBCHEM_IUPAC_OPENEYE_NAME>
1H-indol-5-yl-[4-(4-methoxy-9H-fluoren-9-yl)piperazin-1-yl]methanone
> <PUBCHEM_IUPAC_CAS_NAME>
1H-indol-5-yl-[4-(4-methoxy-9H-fluoren-9-yl)-1-piperazinyl]methanone
> <PUBCHEM_IUPAC_NAME_MARKUP>
1<I>H</I>-indol-5-yl-[4-(4-methoxy-9<I>H</I>-fluoren-9-yl)piperazin-1-yl]methanone
> <PUBCHEM_IUPAC_NAME>
1H-indol-5-yl-[4-(4-methoxy-9H-fluoren-9-yl)piperazin-1-yl]methanone
> <PUBCHEM_IUPAC_SYSTEMATIC_NAME>
1H-indol-5-yl-[4-(4-methoxy-9H-fluoren-9-yl)piperazin-1-yl]methanone
> <PUBCHEM_IUPAC_TRADITIONAL_NAME>
1H-indol-5-yl-[4-(4-methoxy-9H-fluoren-9-yl)piperazino]methanone
> <PUBCHEM_IUPAC_INCHI>
InChI=1S/C27H25N3O2/c1-32-24-8-4-7-22-25(24)20-5-2-3-6-21(20)26(22)29-13-15-30(16-14-29)27(31)19-9-10-23-18(17-19)11-12-28-23/h2-12,17,26,28H,13-16H2,1H3
> <PUBCHEM_IUPAC_INCHIKEY>
ZDEGTYBBOHHNJJ-UHFFFAOYSA-N
> <PUBCHEM_XLOGP3_AA>
4.2
> <PUBCHEM_EXACT_MASS>
423.19467705
> <PUBCHEM_MOLECULAR_FORMULA>
C27H25N3O2
> <PUBCHEM_MOLECULAR_WEIGHT>
423.5
> <PUBCHEM_OPENEYE_CAN_SMILES>
COC1=CC=CC2=C1C3=CC=CC=C3C2N4CCN(CC4)C(=O)C5=CC6=C(C=C5)NC=C6
> <PUBCHEM_OPENEYE_ISO_SMILES>
COC1=CC=CC2=C1C3=CC=CC=C3C2N4CCN(CC4)C(=O)C5=CC6=C(C=C5)NC=C6
> <PUBCHEM_CACTVS_TPSA>
48.6
> <PUBCHEM_MONOISOTOPIC_WEIGHT>
423.19467705
> <PUBCHEM_TOTAL_CHARGE>
0
> <PUBCHEM_HEAVY_ATOM_COUNT>
32
> <PUBCHEM_ATOM_DEF_STEREO_COUNT>
0
> <PUBCHEM_ATOM_UDEF_STEREO_COUNT>
1
> <PUBCHEM_BOND_DEF_STEREO_COUNT>
0
> <PUBCHEM_BOND_UDEF_STEREO_COUNT>
0
> <PUBCHEM_ISOTOPIC_ATOM_COUNT>
0
> <PUBCHEM_COMPONENT_COUNT>
1
> <PUBCHEM_CACTVS_TAUTO_COUNT>
-1
> <PUBCHEM_COORDINATE_TYPE>
1
5
255
> <PUBCHEM_BONDANNOTATIONS>
10  14  8
10  16  8
13  17  8
14  18  8
15  20  8
16  21  8
17  22  8
18  23  8
20  22  8
21  23  8
24  25  8
24  26  8
25  27  8
26  29  8
27  28  8
27  31  8
28  29  8
6  3  3
31  32  8
5  28  8
5  32  8
9  13  8
9  15  8
$$$$
