506109
  -OEChem-10302200282D
 40 41  0     1  0  0  0  0  0999 V2000
    6.1808   -2.8060    0.0000 O   0  0  0  0  0  0  0  0  0  0  0  0
    4.4487   -2.8060    0.0000 O   0  0  0  0  0  0  0  0  0  0  0  0
    6.8147    2.5600    0.0000 O   0  0  0  0  0  0  0  0  0  0  0  0
    3.5827    0.6940    0.0000 N   0  0  0  0  0  0  0  0  0  0  0  0
    5.3147    1.6940    0.0000 N   0  0  0  0  0  0  0  0  0  0  0  0
    7.0468    0.6940    0.0000 N   0  0  0  0  0  0  0  0  0  0  0  0
    4.4487    0.1940    0.0000 C   0  0  1  0  0  0  0  0  0  0  0  0
    5.3147    0.6940    0.0000 C   0  0  1  0  0  0  0  0  0  0  0  0
    6.1808    0.1940    0.0000 C   0  0  2  0  0  0  0  0  0  0  0  0
    3.4782    1.6885    0.0000 C   0  0  0  0  0  0  0  0  0  0  0  0
    2.6691    0.2872    0.0000 C   0  0  0  0  0  0  0  0  0  0  0  0
    2.5000    1.8964    0.0000 C   0  0  0  0  0  0  0  0  0  0  0  0
    2.0000    1.0304    0.0000 C   0  0  0  0  0  0  0  0  0  0  0  0
    6.1808   -0.8060    0.0000 C   0  0  0  0  0  0  0  0  0  0  0  0
    4.4487   -0.8060    0.0000 C   0  0  0  0  0  0  0  0  0  0  0  0
    5.3147   -1.3060    0.0000 C   0  0  0  0  0  0  0  0  0  0  0  0
    5.3147   -2.3060    0.0000 C   0  0  0  0  0  0  0  0  0  0  0  0
    5.8147    2.5600    0.0000 C   0  0  0  0  0  0  0  0  0  0  0  0
    5.3147    3.4260    0.0000 C   0  0  0  0  0  0  0  0  0  0  0  0
    3.9118   -0.1160    0.0000 H   0  0  0  0  0  0  0  0  0  0  0  0
    5.8517    1.0040    0.0000 H   0  0  0  0  0  0  0  0  0  0  0  0
    6.7177   -0.1160    0.0000 H   0  0  0  0  0  0  0  0  0  0  0  0
    4.0982    1.6885    0.0000 H   0  0  0  0  0  0  0  0  0  0  0  0
    3.5430    2.3051    0.0000 H   0  0  0  0  0  0  0  0  0  0  0  0
    2.1675   -0.0772    0.0000 H   0  0  0  0  0  0  0  0  0  0  0  0
    2.9791   -0.2497    0.0000 H   0  0  0  0  0  0  0  0  0  0  0  0
    2.6916    2.4861    0.0000 H   0  0  0  0  0  0  0  0  0  0  0  0
    1.9336    2.1486    0.0000 H   0  0  0  0  0  0  0  0  0  0  0  0
    1.4984    1.3948    0.0000 H   0  0  0  0  0  0  0  0  0  0  0  0
    1.5851    0.5696    0.0000 H   0  0  0  0  0  0  0  0  0  0  0  0
    6.3928   -1.3886    0.0000 H   0  0  0  0  0  0  0  0  0  0  0  0
    6.7913   -0.6984    0.0000 H   0  0  0  0  0  0  0  0  0  0  0  0
    3.9118   -1.1160    0.0000 H   0  0  0  0  0  0  0  0  0  0  0  0
    4.7778    2.0040    0.0000 H   0  0  0  0  0  0  0  0  0  0  0  0
    7.5837    0.3840    0.0000 H   0  0  0  0  0  0  0  0  0  0  0  0
    7.3568    1.2309    0.0000 H   0  0  0  0  0  0  0  0  0  0  0  0
    5.8517    3.7360    0.0000 H   0  0  0  0  0  0  0  0  0  0  0  0
    5.0047    3.9630    0.0000 H   0  0  0  0  0  0  0  0  0  0  0  0
    4.7778    3.1160    0.0000 H   0  0  0  0  0  0  0  0  0  0  0  0
    6.1808   -3.4260    0.0000 H   0  0  0  0  0  0  0  0  0  0  0  0
  1 17  1  0  0  0  0
  1 40  1  0  0  0  0
  2 17  2  0  0  0  0
  3 18  2  0  0  0  0
  7  4  1  1  0  0  0
  4 10  1  0  0  0  0
  4 11  1  0  0  0  0
  8  5  1  6  0  0  0
  5 18  1  0  0  0  0
  5 34  1  0  0  0  0
  9  6  1  1  0  0  0
  6 35  1  0  0  0  0
  6 36  1  0  0  0  0
  7  8  1  0  0  0  0
  7 15  1  0  0  0  0
  7 20  1  0  0  0  0
  8  9  1  0  0  0  0
  8 21  1  0  0  0  0
  9 14  1  0  0  0  0
  9 22  1  0  0  0  0
 10 12  1  0  0  0  0
 10 23  1  0  0  0  0
 10 24  1  0  0  0  0
 11 13  1  0  0  0  0
 11 25  1  0  0  0  0
 11 26  1  0  0  0  0
 12 13  1  0  0  0  0
 12 27  1  0  0  0  0
 12 28  1  0  0  0  0
 13 29  1  0  0  0  0
 13 30  1  0  0  0  0
 14 16  1  0  0  0  0
 14 31  1  0  0  0  0
 14 32  1  0  0  0  0
 15 16  2  0  0  0  0
 15 33  1  0  0  0  0
 16 17  1  0  0  0  0
 18 19  1  0  0  0  0
 19 37  1  0  0  0  0
 19 38  1  0  0  0  0
 19 39  1  0  0  0  0
M  END
> <PUBCHEM_COMPOUND_CID>
506109
> <PUBCHEM_COMPOUND_CANONICALIZED>
1
> <PUBCHEM_CACTVS_COMPLEXITY>
402
> <PUBCHEM_CACTVS_HBOND_ACCEPTOR>
5
> <PUBCHEM_CACTVS_HBOND_DONOR>
3
> <PUBCHEM_CACTVS_ROTATABLE_BOND>
3
> <PUBCHEM_CACTVS_SUBSKEYS>
AAADceBzMAAAAAAAAAAAAAAAAAAAAWAAAAAgAAAAAAAAAAAAAAAAHgAQCAAADCjBgAQCCAPAAgCIAiHSGACAAAAgAAAACIEIAEgARBIAwQAUUAAElgCIEYO82SOQAAAAAAAAAAAAAAAAAAAAAAAAAAAAAA==
> <PUBCHEM_IUPAC_OPENEYE_NAME>
(3R,4R,5S)-4-acetamido-5-amino-3-pyrrolidin-1-yl-cyclohexene-1-carboxylic acid
> <PUBCHEM_IUPAC_CAS_NAME>
(3R,4R,5S)-4-acetamido-5-amino-3-(1-pyrrolidinyl)-1-cyclohexenecarboxylic acid
> <PUBCHEM_IUPAC_NAME_MARKUP>
(3<I>R</I>,4<I>R</I>,5<I>S</I>)-4-acetamido-5-amino-3-pyrrolidin-1-ylcyclohexene-1-carboxylic acid
> <PUBCHEM_IUPAC_NAME>
(3R,4R,5S)-4-acetamido-5-amino-3-pyrrolidin-1-ylcyclohexene-1-carboxylic acid
> <PUBCHEM_IUPAC_SYSTEMATIC_NAME>
(3R,4R,5S)-4-acetamido-5-azanyl-3-pyrrolidin-1-yl-cyclohexene-1-carboxylic acid
> <PUBCHEM_IUPAC_TRADITIONAL_NAME>
(3R,4R,5S)-4-acetamido-5-amino-3-pyrrolidino-cyclohexene-1-carboxylic acid
> <PUBCHEM_IUPAC_INCHI>
InChI=1S/C13H21N3O3/c1-8(17)15-12-10(14)6-9(13(18)19)7-11(12)16-4-2-3-5-16/h7,10-12H,2-6,14H2,1H3,(H,15,17)(H,18,19)/t10-,11+,12+/m0/s1
> <PUBCHEM_IUPAC_INCHIKEY>
JXUYSAJBWAYKTE-QJPTWQEYSA-N
> <PUBCHEM_XLOGP3_AA>
-3.1
> <PUBCHEM_EXACT_MASS>
267.15829154
> <PUBCHEM_MOLECULAR_FORMULA>
C13H21N3O3
> <PUBCHEM_MOLECULAR_WEIGHT>
267.32
> <PUBCHEM_OPENEYE_CAN_SMILES>
CC(=O)NC1C(CC(=CC1N2CCCC2)C(=O)O)N
> <PUBCHEM_OPENEYE_ISO_SMILES>
CC(=O)N[C@@H]1[C@H](CC(=C[C@H]1N2CCCC2)C(=O)O)N
> <PUBCHEM_CACTVS_TPSA>
95.7
> <PUBCHEM_MONOISOTOPIC_WEIGHT>
267.15829154
> <PUBCHEM_TOTAL_CHARGE>
0
> <PUBCHEM_HEAVY_ATOM_COUNT>
19
> <PUBCHEM_ATOM_DEF_STEREO_COUNT>
3
> <PUBCHEM_ATOM_UDEF_STEREO_COUNT>
0
> <PUBCHEM_BOND_DEF_STEREO_COUNT>
0
> <PUBCHEM_BOND_UDEF_STEREO_COUNT>
0
> <PUBCHEM_ISOTOPIC_ATOM_COUNT>
0
> <PUBCHEM_COMPONENT_COUNT>
1
> <PUBCHEM_CACTVS_TAUTO_COUNT>
-1
> <PUBCHEM_COORDINATE_TYPE>
1
5
255
> <PUBCHEM_BONDANNOTATIONS>
7  4  5
8  5  6
9  6  5
$$$$
