506165
  -OEChem-10302200282D
 70 74  0     1  0  0  0  0  0999 V2000
    2.6504   -2.2447    0.0000 O   0  0  0  0  0  0  0  0  0  0  0  0
    4.5983   -4.7479    0.0000 O   0  0  0  0  0  0  0  0  0  0  0  0
    5.7783    0.2549    0.0000 O   0  0  0  0  0  0  0  0  0  0  0  0
    9.3817    0.1292    0.0000 O   0  0  0  0  0  0  0  0  0  0  0  0
    4.2382   -3.0537    0.0000 N   0  0  0  0  0  0  0  0  0  0  0  0
    6.1355   -1.4400    0.0000 N   0  0  0  0  0  0  0  0  0  0  0  0
    7.7353    0.6673    0.0000 N   0  0  0  0  0  0  0  0  0  0  0  0
    9.0245    1.8240    0.0000 N   0  0  0  0  0  0  0  0  0  0  0  0
   10.9350    4.8818    0.0000 N   0  0  0  0  0  0  0  0  0  0  0  0
    5.1893   -1.7447    0.0000 C   0  0  2  0  0  0  0  0  0  0  0  0
    4.2382   -1.4357    0.0000 C   0  0  3  0  0  0  0  0  0  0  0  0
    5.1893   -2.7447    0.0000 C   0  0  2  0  0  0  0  0  0  0  0  0
    3.9292   -0.4846    0.0000 C   0  0  0  0  0  0  0  0  0  0  0  0
    6.1355   -3.0494    0.0000 C   0  0  0  0  0  0  0  0  0  0  0  0
    4.3832    0.4064    0.0000 C   0  0  0  0  0  0  0  0  0  0  0  0
    3.0382   -0.0306    0.0000 C   0  0  0  0  0  0  0  0  0  0  0  0
    3.6504   -2.2447    0.0000 C   0  0  0  0  0  0  0  0  0  0  0  0
    6.7191   -2.2447    0.0000 C   0  0  0  0  0  0  0  0  0  0  0  0
    3.4922    0.8604    0.0000 C   0  0  0  0  0  0  0  0  0  0  0  0
    2.9511   -4.2127    0.0000 C   0  0  0  0  0  0  0  0  0  0  0  0
    3.9292   -4.0048    0.0000 C   0  0  0  0  0  0  0  0  0  0  0  0
    2.0000   -3.9037    0.0000 C   0  0  0  0  0  0  0  0  0  0  0  0
    2.2079   -4.8818    0.0000 C   0  0  0  0  0  0  0  0  0  0  0  0
    6.4462   -0.4894    0.0000 C   0  0  0  0  0  0  0  0  0  0  0  0
    7.4247   -0.2832    0.0000 C   0  0  2  0  0  0  0  0  0  0  0  0
    8.0925   -1.0275    0.0000 C   0  0  0  0  0  0  0  0  0  0  0  0
    9.0710   -0.8213    0.0000 C   0  0  0  0  0  0  0  0  0  0  0  0
    7.7818   -1.9780    0.0000 C   0  0  0  0  0  0  0  0  0  0  0  0
    8.7138    0.8735    0.0000 C   0  0  0  0  0  0  0  0  0  0  0  0
   10.0030    2.0302    0.0000 C   0  0  0  0  0  0  0  0  0  0  0  0
   10.3137    2.9808    0.0000 C   0  0  0  0  0  0  0  0  0  0  0  0
    9.6458    3.7251    0.0000 C   0  0  0  0  0  0  0  0  0  0  0  0
   11.2922    3.1870    0.0000 C   0  0  0  0  0  0  0  0  0  0  0  0
    9.9565    4.6756    0.0000 C   0  0  0  0  0  0  0  0  0  0  0  0
   11.6028    4.1375    0.0000 C   0  0  0  0  0  0  0  0  0  0  0  0
    5.1904   -0.8947    0.0000 H   0  0  0  0  0  0  0  0  0  0  0  0
    3.6258   -1.3387    0.0000 H   0  0  0  0  0  0  0  0  0  0  0  0
    5.1904   -3.5947    0.0000 H   0  0  0  0  0  0  0  0  0  0  0  0
    4.5473   -0.5333    0.0000 H   0  0  0  0  0  0  0  0  0  0  0  0
    5.8845   -3.6163    0.0000 H   0  0  0  0  0  0  0  0  0  0  0  0
    6.6729   -3.3586    0.0000 H   0  0  0  0  0  0  0  0  0  0  0  0
    4.9356    0.1249    0.0000 H   0  0  0  0  0  0  0  0  0  0  0  0
    4.6647    0.9588    0.0000 H   0  0  0  0  0  0  0  0  0  0  0  0
    2.4858    0.2508    0.0000 H   0  0  0  0  0  0  0  0  0  0  0  0
    2.7567   -0.5831    0.0000 H   0  0  0  0  0  0  0  0  0  0  0  0
    7.1800   -2.6594    0.0000 H   0  0  0  0  0  0  0  0  0  0  0  0
    7.1800   -1.8300    0.0000 H   0  0  0  0  0  0  0  0  0  0  0  0
    3.7737    1.4128    0.0000 H   0  0  0  0  0  0  0  0  0  0  0  0
    2.9398    1.1418    0.0000 H   0  0  0  0  0  0  0  0  0  0  0  0
    3.2325   -4.7651    0.0000 H   0  0  0  0  0  0  0  0  0  0  0  0
    2.0863   -3.2897    0.0000 H   0  0  0  0  0  0  0  0  0  0  0  0
    1.3804   -3.9253    0.0000 H   0  0  0  0  0  0  0  0  0  0  0  0
    1.6331   -5.1141    0.0000 H   0  0  0  0  0  0  0  0  0  0  0  0
    2.5365   -5.4076    0.0000 H   0  0  0  0  0  0  0  0  0  0  0  0
    7.0106    0.1782    0.0000 H   0  0  0  0  0  0  0  0  0  0  0  0
    8.2851   -0.4382    0.0000 H   0  0  0  0  0  0  0  0  0  0  0  0
    7.3213    1.1288    0.0000 H   0  0  0  0  0  0  0  0  0  0  0  0
    9.1989   -1.4280    0.0000 H   0  0  0  0  0  0  0  0  0  0  0  0
    9.6777   -0.6935    0.0000 H   0  0  0  0  0  0  0  0  0  0  0  0
    8.9432   -0.2146    0.0000 H   0  0  0  0  0  0  0  0  0  0  0  0
    7.1925   -1.7854    0.0000 H   0  0  0  0  0  0  0  0  0  0  0  0
    7.5892   -2.5674    0.0000 H   0  0  0  0  0  0  0  0  0  0  0  0
    8.3712   -2.1707    0.0000 H   0  0  0  0  0  0  0  0  0  0  0  0
    8.6104    2.2855    0.0000 H   0  0  0  0  0  0  0  0  0  0  0  0
   10.0236    1.4106    0.0000 H   0  0  0  0  0  0  0  0  0  0  0  0
   10.6168    1.9429    0.0000 H   0  0  0  0  0  0  0  0  0  0  0  0
    9.0392    3.5972    0.0000 H   0  0  0  0  0  0  0  0  0  0  0  0
   11.7062    2.7255    0.0000 H   0  0  0  0  0  0  0  0  0  0  0  0
    9.5424    5.1371    0.0000 H   0  0  0  0  0  0  0  0  0  0  0  0
   12.2095    4.2654    0.0000 H   0  0  0  0  0  0  0  0  0  0  0  0
  1 17  2  0  0  0  0
  2 21  2  0  0  0  0
  3 24  2  0  0  0  0
  4 29  2  0  0  0  0
  5 12  1  0  0  0  0
  5 17  1  0  0  0  0
  5 21  1  0  0  0  0
  6 10  1  0  0  0  0
  6 18  1  0  0  0  0
  6 24  1  0  0  0  0
 25  7  1  1  0  0  0
  7 29  1  0  0  0  0
  7 57  1  0  0  0  0
  8 29  1  0  0  0  0
  8 30  1  0  0  0  0
  8 64  1  0  0  0  0
  9 34  2  0  0  0  0
  9 35  1  0  0  0  0
 10 11  1  0  0  0  0
 10 12  1  0  0  0  0
 10 36  1  6  0  0  0
 11 13  1  0  0  0  0
 11 17  1  0  0  0  0
 11 37  1  0  0  0  0
 12 14  1  0  0  0  0
 12 38  1  1  0  0  0
 13 15  1  0  0  0  0
 13 16  1  0  0  0  0
 13 39  1  0  0  0  0
 14 18  1  0  0  0  0
 14 40  1  0  0  0  0
 14 41  1  0  0  0  0
 15 19  1  0  0  0  0
 15 42  1  0  0  0  0
 15 43  1  0  0  0  0
 16 19  1  0  0  0  0
 16 44  1  0  0  0  0
 16 45  1  0  0  0  0
 18 46  1  0  0  0  0
 18 47  1  0  0  0  0
 19 48  1  0  0  0  0
 19 49  1  0  0  0  0
 20 21  1  0  0  0  0
 20 22  1  0  0  0  0
 20 23  1  0  0  0  0
 20 50  1  0  0  0  0
 22 23  1  0  0  0  0
 22 51  1  0  0  0  0
 22 52  1  0  0  0  0
 23 53  1  0  0  0  0
 23 54  1  0  0  0  0
 24 25  1  0  0  0  0
 25 26  1  0  0  0  0
 25 55  1  0  0  0  0
 26 27  1  0  0  0  0
 26 28  1  0  0  0  0
 26 56  1  0  0  0  0
 27 58  1  0  0  0  0
 27 59  1  0  0  0  0
 27 60  1  0  0  0  0
 28 61  1  0  0  0  0
 28 62  1  0  0  0  0
 28 63  1  0  0  0  0
 30 31  1  0  0  0  0
 30 65  1  0  0  0  0
 30 66  1  0  0  0  0
 31 32  2  0  0  0  0
 31 33  1  0  0  0  0
 32 34  1  0  0  0  0
 32 67  1  0  0  0  0
 33 35  2  0  0  0  0
 33 68  1  0  0  0  0
 34 69  1  0  0  0  0
 35 70  1  0  0  0  0
M  END
> <PUBCHEM_COMPOUND_CID>
506165
> <PUBCHEM_COMPOUND_CANONICALIZED>
1
> <PUBCHEM_CACTVS_COMPLEXITY>
849
> <PUBCHEM_CACTVS_HBOND_ACCEPTOR>
5
> <PUBCHEM_CACTVS_HBOND_DONOR>
2
> <PUBCHEM_CACTVS_ROTATABLE_BOND>
7
> <PUBCHEM_CACTVS_SUBSKEYS>
AAADcfB7uAAAAAAAAAAAAAAAGABgAWLAAAAsAAAAAAAWAAABgAAAHgAQAAAADSjBmgQ/gJPIEACoAjF3VACCgCAxAiAI2KG4ZJiIYHrA0bGUIAholiLIyAcciMAOgAAAAAAAAAAAAAAAAAAAAAAAAAAAAA==
> <PUBCHEM_IUPAC_OPENEYE_NAME>
1-[(1S)-1-[(3aS,6aR)-6-cyclobutyl-4-(cyclopropanecarbonyl)-5-oxo-3,3a,6,6a-tetrahydro-2H-pyrrolo[3,2-b]pyrrole-1-carbonyl]-2-methyl-propyl]-3-(4-pyridylmethyl)urea
> <PUBCHEM_IUPAC_CAS_NAME>
1-[(2S)-1-[(3aS,6aR)-6-cyclobutyl-4-[cyclopropyl(oxo)methyl]-5-oxo-3,3a,6,6a-tetrahydro-2H-pyrrolo[3,2-b]pyrrol-1-yl]-3-methyl-1-oxobutan-2-yl]-3-(pyridin-4-ylmethyl)urea
> <PUBCHEM_IUPAC_NAME_MARKUP>
1-[(2<I>S</I>)-1-[(3<I>a</I><I>S</I>,6<I>a</I><I>R</I>)-6-cyclobutyl-4-(cyclopropanecarbonyl)-5-oxo-3,3<I>a</I>,6,6<I>a</I>-tetrahydro-2<I>H</I>-pyrrolo[3,2-b]pyrrol-1-yl]-3-methyl-1-oxobutan-2-yl]-3-(pyridin-4-ylmethyl)urea
> <PUBCHEM_IUPAC_NAME>
1-[(2S)-1-[(3aS,6aR)-6-cyclobutyl-4-(cyclopropanecarbonyl)-5-oxo-3,3a,6,6a-tetrahydro-2H-pyrrolo[3,2-b]pyrrol-1-yl]-3-methyl-1-oxobutan-2-yl]-3-(pyridin-4-ylmethyl)urea
> <PUBCHEM_IUPAC_SYSTEMATIC_NAME>
1-[(2S)-1-[(3aS,6aR)-6-cyclobutyl-4-cyclopropylcarbonyl-5-oxidanylidene-3,3a,6,6a-tetrahydro-2H-pyrrolo[3,2-b]pyrrol-1-yl]-3-methyl-1-oxidanylidene-butan-2-yl]-3-(pyridin-4-ylmethyl)urea
> <PUBCHEM_IUPAC_TRADITIONAL_NAME>
1-[(1S)-1-[(3aS,6aR)-6-cyclobutyl-4-(cyclopropanecarbonyl)-5-keto-3,3a,6,6a-tetrahydro-2H-pyrrolo[3,2-b]pyrrole-1-carbonyl]-2-methyl-propyl]-3-(4-pyridylmethyl)urea
> <PUBCHEM_IUPAC_INCHI>
InChI=1S/C26H35N5O4/c1-15(2)21(29-26(35)28-14-16-8-11-27-12-9-16)25(34)30-13-10-19-22(30)20(17-4-3-5-17)24(33)31(19)23(32)18-6-7-18/h8-9,11-12,15,17-22H,3-7,10,13-14H2,1-2H3,(H2,28,29,35)/t19-,20?,21-,22-/m0/s1
> <PUBCHEM_IUPAC_INCHIKEY>
UYTRPEUGYBEMIJ-UZVDJONISA-N
> <PUBCHEM_XLOGP3_AA>
2.1
> <PUBCHEM_EXACT_MASS>
481.26890461
> <PUBCHEM_MOLECULAR_FORMULA>
C26H35N5O4
> <PUBCHEM_MOLECULAR_WEIGHT>
481.6
> <PUBCHEM_OPENEYE_CAN_SMILES>
CC(C)C(C(=O)N1CCC2C1C(C(=O)N2C(=O)C3CC3)C4CCC4)NC(=O)NCC5=CC=NC=C5
> <PUBCHEM_OPENEYE_ISO_SMILES>
CC(C)[C@@H](C(=O)N1CC[C@H]2[C@H]1C(C(=O)N2C(=O)C3CC3)C4CCC4)NC(=O)NCC5=CC=NC=C5
> <PUBCHEM_CACTVS_TPSA>
112
> <PUBCHEM_MONOISOTOPIC_WEIGHT>
481.26890461
> <PUBCHEM_TOTAL_CHARGE>
0
> <PUBCHEM_HEAVY_ATOM_COUNT>
35
> <PUBCHEM_ATOM_DEF_STEREO_COUNT>
3
> <PUBCHEM_ATOM_UDEF_STEREO_COUNT>
1
> <PUBCHEM_BOND_DEF_STEREO_COUNT>
0
> <PUBCHEM_BOND_UDEF_STEREO_COUNT>
0
> <PUBCHEM_ISOTOPIC_ATOM_COUNT>
0
> <PUBCHEM_COMPONENT_COUNT>
1
> <PUBCHEM_CACTVS_TAUTO_COUNT>
-1
> <PUBCHEM_COORDINATE_TYPE>
1
5
255
> <PUBCHEM_BONDANNOTATIONS>
10  36  6
11  13  3
12  38  5
31  32  8
31  33  8
32  34  8
33  35  8
25  7  5
9  34  8
9  35  8
$$$$
