506163
  -OEChem-10302200282D
 72 75  0     1  0  0  0  0  0999 V2000
    2.0000   -0.8860    0.0000 O   0  0  0  0  0  0  0  0  0  0  0  0
    2.3006   -2.8540    0.0000 O   0  0  0  0  0  0  0  0  0  0  0  0
    5.1279    1.6135    0.0000 O   0  0  0  0  0  0  0  0  0  0  0  0
    8.3741    3.1827    0.0000 O   0  0  0  0  0  0  0  0  0  0  0  0
    8.7312    1.4879    0.0000 O   0  0  0  0  0  0  0  0  0  0  0  0
    3.5878   -1.6951    0.0000 N   0  0  0  0  0  0  0  0  0  0  0  0
    5.4851   -0.0813    0.0000 N   0  0  0  0  0  0  0  0  0  0  0  0
    7.0849    2.0260    0.0000 N   0  0  0  0  0  0  0  0  0  0  0  0
    4.5388   -0.3860    0.0000 C   0  0  2  0  0  0  0  0  0  0  0  0
    3.5878   -0.0770    0.0000 C   0  0  3  0  0  0  0  0  0  0  0  0
    4.5388   -1.3860    0.0000 C   0  0  2  0  0  0  0  0  0  0  0  0
    3.2788    0.8740    0.0000 C   0  0  0  0  0  0  0  0  0  0  0  0
    5.4851   -1.6908    0.0000 C   0  0  0  0  0  0  0  0  0  0  0  0
    3.0000   -0.8860    0.0000 C   0  0  0  0  0  0  0  0  0  0  0  0
    6.0687   -0.8860    0.0000 C   0  0  0  0  0  0  0  0  0  0  0  0
    3.8666    1.6830    0.0000 C   0  0  0  0  0  0  0  0  0  0  0  0
    2.3277    1.1830    0.0000 C   0  0  0  0  0  0  0  0  0  0  0  0
    3.9479   -3.3893    0.0000 C   0  0  0  0  0  0  0  0  0  0  0  0
    3.2788    2.4921    0.0000 C   0  0  0  0  0  0  0  0  0  0  0  0
    2.3277    2.1830    0.0000 C   0  0  0  0  0  0  0  0  0  0  0  0
    3.2788   -2.6461    0.0000 C   0  0  0  0  0  0  0  0  0  0  0  0
    4.1558   -4.3674    0.0000 C   0  0  0  0  0  0  0  0  0  0  0  0
    4.8990   -3.6983    0.0000 C   0  0  0  0  0  0  0  0  0  0  0  0
    5.7957    0.8692    0.0000 C   0  0  0  0  0  0  0  0  0  0  0  0
    6.7742    1.0754    0.0000 C   0  0  2  0  0  0  0  0  0  0  0  0
    7.4421    0.3311    0.0000 C   0  0  0  0  0  0  0  0  0  0  0  0
    8.4206    0.5373    0.0000 C   0  0  0  0  0  0  0  0  0  0  0  0
    7.1314   -0.6194    0.0000 C   0  0  0  0  0  0  0  0  0  0  0  0
    8.0634    2.2322    0.0000 C   0  0  0  0  0  0  0  0  0  0  0  0
    9.3526    3.3889    0.0000 C   0  0  0  0  0  0  0  0  0  0  0  0
   10.3311    3.5951    0.0000 C   0  0  0  0  0  0  0  0  0  0  0  0
    9.1464    4.3674    0.0000 C   0  0  0  0  0  0  0  0  0  0  0  0
    9.5588    2.4104    0.0000 C   0  0  0  0  0  0  0  0  0  0  0  0
    4.5400    0.4640    0.0000 H   0  0  0  0  0  0  0  0  0  0  0  0
    2.9754    0.0200    0.0000 H   0  0  0  0  0  0  0  0  0  0  0  0
    4.5400   -2.2360    0.0000 H   0  0  0  0  0  0  0  0  0  0  0  0
    3.8911    0.7770    0.0000 H   0  0  0  0  0  0  0  0  0  0  0  0
    5.2340   -2.2577    0.0000 H   0  0  0  0  0  0  0  0  0  0  0  0
    6.0224   -2.0000    0.0000 H   0  0  0  0  0  0  0  0  0  0  0  0
    6.5295   -1.3008    0.0000 H   0  0  0  0  0  0  0  0  0  0  0  0
    6.5295   -0.4713    0.0000 H   0  0  0  0  0  0  0  0  0  0  0  0
    4.3273    1.2682    0.0000 H   0  0  0  0  0  0  0  0  0  0  0  0
    4.3273    2.0979    0.0000 H   0  0  0  0  0  0  0  0  0  0  0  0
    1.7111    1.2478    0.0000 H   0  0  0  0  0  0  0  0  0  0  0  0
    2.1988    0.5766    0.0000 H   0  0  0  0  0  0  0  0  0  0  0  0
    3.3955   -3.6707    0.0000 H   0  0  0  0  0  0  0  0  0  0  0  0
    3.8157    2.8021    0.0000 H   0  0  0  0  0  0  0  0  0  0  0  0
    3.0266    3.0585    0.0000 H   0  0  0  0  0  0  0  0  0  0  0  0
    2.1988    2.7895    0.0000 H   0  0  0  0  0  0  0  0  0  0  0  0
    1.7111    2.1182    0.0000 H   0  0  0  0  0  0  0  0  0  0  0  0
    3.5810   -4.5997    0.0000 H   0  0  0  0  0  0  0  0  0  0  0  0
    4.4844   -4.8932    0.0000 H   0  0  0  0  0  0  0  0  0  0  0  0
    5.3875   -4.0800    0.0000 H   0  0  0  0  0  0  0  0  0  0  0  0
    5.1900   -3.1508    0.0000 H   0  0  0  0  0  0  0  0  0  0  0  0
    7.3809    1.2033    0.0000 H   0  0  0  0  0  0  0  0  0  0  0  0
    6.8354    0.2033    0.0000 H   0  0  0  0  0  0  0  0  0  0  0  0
    6.6708    2.4874    0.0000 H   0  0  0  0  0  0  0  0  0  0  0  0
    8.5484   -0.0693    0.0000 H   0  0  0  0  0  0  0  0  0  0  0  0
    9.0272    0.6652    0.0000 H   0  0  0  0  0  0  0  0  0  0  0  0
    8.2927    1.1440    0.0000 H   0  0  0  0  0  0  0  0  0  0  0  0
    6.5421   -0.4268    0.0000 H   0  0  0  0  0  0  0  0  0  0  0  0
    6.9388   -1.2087    0.0000 H   0  0  0  0  0  0  0  0  0  0  0  0
    7.7207   -0.8120    0.0000 H   0  0  0  0  0  0  0  0  0  0  0  0
   10.4589    2.9884    0.0000 H   0  0  0  0  0  0  0  0  0  0  0  0
   10.9377    3.7230    0.0000 H   0  0  0  0  0  0  0  0  0  0  0  0
   10.2032    4.2018    0.0000 H   0  0  0  0  0  0  0  0  0  0  0  0
    9.7530    4.4953    0.0000 H   0  0  0  0  0  0  0  0  0  0  0  0
    9.0185    4.9741    0.0000 H   0  0  0  0  0  0  0  0  0  0  0  0
    8.5397    4.2396    0.0000 H   0  0  0  0  0  0  0  0  0  0  0  0
    8.9521    2.2825    0.0000 H   0  0  0  0  0  0  0  0  0  0  0  0
    9.6866    1.8037    0.0000 H   0  0  0  0  0  0  0  0  0  0  0  0
   10.1655    2.5382    0.0000 H   0  0  0  0  0  0  0  0  0  0  0  0
  1 14  2  0  0  0  0
  2 21  2  0  0  0  0
  3 24  2  0  0  0  0
  4 29  1  0  0  0  0
  4 30  1  0  0  0  0
  5 29  2  0  0  0  0
  6 11  1  0  0  0  0
  6 14  1  0  0  0  0
  6 21  1  0  0  0  0
  7  9  1  0  0  0  0
  7 15  1  0  0  0  0
  7 24  1  0  0  0  0
 25  8  1  1  0  0  0
  8 29  1  0  0  0  0
  8 57  1  0  0  0  0
  9 10  1  0  0  0  0
  9 11  1  0  0  0  0
  9 34  1  6  0  0  0
 10 12  1  0  0  0  0
 10 14  1  0  0  0  0
 10 35  1  0  0  0  0
 11 13  1  0  0  0  0
 11 36  1  1  0  0  0
 12 16  1  0  0  0  0
 12 17  1  0  0  0  0
 12 37  1  0  0  0  0
 13 15  1  0  0  0  0
 13 38  1  0  0  0  0
 13 39  1  0  0  0  0
 15 40  1  0  0  0  0
 15 41  1  0  0  0  0
 16 19  1  0  0  0  0
 16 42  1  0  0  0  0
 16 43  1  0  0  0  0
 17 20  1  0  0  0  0
 17 44  1  0  0  0  0
 17 45  1  0  0  0  0
 18 21  1  0  0  0  0
 18 22  1  0  0  0  0
 18 23  1  0  0  0  0
 18 46  1  0  0  0  0
 19 20  1  0  0  0  0
 19 47  1  0  0  0  0
 19 48  1  0  0  0  0
 20 49  1  0  0  0  0
 20 50  1  0  0  0  0
 22 23  1  0  0  0  0
 22 51  1  0  0  0  0
 22 52  1  0  0  0  0
 23 53  1  0  0  0  0
 23 54  1  0  0  0  0
 24 25  1  0  0  0  0
 25 26  1  0  0  0  0
 25 55  1  0  0  0  0
 26 27  1  0  0  0  0
 26 28  1  0  0  0  0
 26 56  1  0  0  0  0
 27 58  1  0  0  0  0
 27 59  1  0  0  0  0
 27 60  1  0  0  0  0
 28 61  1  0  0  0  0
 28 62  1  0  0  0  0
 28 63  1  0  0  0  0
 30 31  1  0  0  0  0
 30 32  1  0  0  0  0
 30 33  1  0  0  0  0
 31 64  1  0  0  0  0
 31 65  1  0  0  0  0
 31 66  1  0  0  0  0
 32 67  1  0  0  0  0
 32 68  1  0  0  0  0
 32 69  1  0  0  0  0
 33 70  1  0  0  0  0
 33 71  1  0  0  0  0
 33 72  1  0  0  0  0
M  END
> <PUBCHEM_COMPOUND_CID>
506163
> <PUBCHEM_COMPOUND_CANONICALIZED>
1
> <PUBCHEM_CACTVS_COMPLEXITY>
809
> <PUBCHEM_CACTVS_HBOND_ACCEPTOR>
5
> <PUBCHEM_CACTVS_HBOND_DONOR>
1
> <PUBCHEM_CACTVS_ROTATABLE_BOND>
7
> <PUBCHEM_CACTVS_SUBSKEYS>
AAADcfB7OAAAAAAAAAAAAAAAGAAAAeLEAAAAAAAAAAAWAAAAAAAAHgAQAAAADWzBgAQCCAPABAAIAAEQGAAAAAAAAAAAAIGIAAEAQBoAwCAcAAAAFiCAAAEciMCOgAAAAAAAAAAAAAAAAAAAAAAAAAAAAA==
> <PUBCHEM_IUPAC_OPENEYE_NAME>
tert-butyl N-[(1S)-1-[(3aS,6aR)-6-cyclopentyl-4-(cyclopropanecarbonyl)-5-oxo-3,3a,6,6a-tetrahydro-2H-pyrrolo[3,2-b]pyrrole-1-carbonyl]-2-methyl-propyl]carbamate
> <PUBCHEM_IUPAC_CAS_NAME>
N-[(2S)-1-[(3aS,6aR)-6-cyclopentyl-4-[cyclopropyl(oxo)methyl]-5-oxo-3,3a,6,6a-tetrahydro-2H-pyrrolo[3,2-b]pyrrol-1-yl]-3-methyl-1-oxobutan-2-yl]carbamic acid tert-butyl ester
> <PUBCHEM_IUPAC_NAME_MARKUP>
<I>tert</I>-butyl <I>N</I>-[(2<I>S</I>)-1-[(3<I>a</I><I>S</I>,6<I>a</I><I>R</I>)-6-cyclopentyl-4-(cyclopropanecarbonyl)-5-oxo-3,3<I>a</I>,6,6<I>a</I>-tetrahydro-2<I>H</I>-pyrrolo[3,2-b]pyrrol-1-yl]-3-methyl-1-oxobutan-2-yl]carbamate
> <PUBCHEM_IUPAC_NAME>
tert-butyl N-[(2S)-1-[(3aS,6aR)-6-cyclopentyl-4-(cyclopropanecarbonyl)-5-oxo-3,3a,6,6a-tetrahydro-2H-pyrrolo[3,2-b]pyrrol-1-yl]-3-methyl-1-oxobutan-2-yl]carbamate
> <PUBCHEM_IUPAC_SYSTEMATIC_NAME>
tert-butyl N-[(2S)-1-[(3aS,6aR)-6-cyclopentyl-4-cyclopropylcarbonyl-5-oxidanylidene-3,3a,6,6a-tetrahydro-2H-pyrrolo[3,2-b]pyrrol-1-yl]-3-methyl-1-oxidanylidene-butan-2-yl]carbamate
> <PUBCHEM_IUPAC_TRADITIONAL_NAME>
N-[(1S)-1-[(3aS,6aR)-6-cyclopentyl-4-(cyclopropanecarbonyl)-5-keto-3,3a,6,6a-tetrahydro-2H-pyrrolo[3,2-b]pyrrole-1-carbonyl]-2-methyl-propyl]carbamic acid tert-butyl ester
> <PUBCHEM_IUPAC_INCHI>
InChI=1S/C25H39N3O5/c1-14(2)19(26-24(32)33-25(3,4)5)23(31)27-13-12-17-20(27)18(15-8-6-7-9-15)22(30)28(17)21(29)16-10-11-16/h14-20H,6-13H2,1-5H3,(H,26,32)/t17-,18?,19-,20-/m0/s1
> <PUBCHEM_IUPAC_INCHIKEY>
QCIVCUWDJZLHAQ-GFDAQUBOSA-N
> <PUBCHEM_XLOGP3_AA>
3.8
> <PUBCHEM_EXACT_MASS>
461.28897135
> <PUBCHEM_MOLECULAR_FORMULA>
C25H39N3O5
> <PUBCHEM_MOLECULAR_WEIGHT>
461.6
> <PUBCHEM_OPENEYE_CAN_SMILES>
CC(C)C(C(=O)N1CCC2C1C(C(=O)N2C(=O)C3CC3)C4CCCC4)NC(=O)OC(C)(C)C
> <PUBCHEM_OPENEYE_ISO_SMILES>
CC(C)[C@@H](C(=O)N1CC[C@H]2[C@H]1C(C(=O)N2C(=O)C3CC3)C4CCCC4)NC(=O)OC(C)(C)C
> <PUBCHEM_CACTVS_TPSA>
96
> <PUBCHEM_MONOISOTOPIC_WEIGHT>
461.28897135
> <PUBCHEM_TOTAL_CHARGE>
0
> <PUBCHEM_HEAVY_ATOM_COUNT>
33
> <PUBCHEM_ATOM_DEF_STEREO_COUNT>
3
> <PUBCHEM_ATOM_UDEF_STEREO_COUNT>
1
> <PUBCHEM_BOND_DEF_STEREO_COUNT>
0
> <PUBCHEM_BOND_UDEF_STEREO_COUNT>
0
> <PUBCHEM_ISOTOPIC_ATOM_COUNT>
0
> <PUBCHEM_COMPONENT_COUNT>
1
> <PUBCHEM_CACTVS_TAUTO_COUNT>
-1
> <PUBCHEM_COORDINATE_TYPE>
1
5
255
> <PUBCHEM_BONDANNOTATIONS>
10  12  3
11  36  5
25  8  5
9  34  6
$$$$
