506178
  -OEChem-10302200282D
 66 71  0     1  0  0  0  0  0999 V2000
    6.8078    2.2652    0.0000 O   0  0  0  0  0  0  0  0  0  0  0  0
    9.8131   -4.8401    0.0000 O   0  0  0  0  0  0  0  0  0  0  0  0
    5.9418   -1.2348    0.0000 N   0  0  0  0  0  0  0  0  0  0  0  0
    5.9418    0.7652    0.0000 N   0  0  0  0  0  0  0  0  0  0  0  0
    9.4465   -3.1473    0.0000 N   0  0  0  0  0  0  0  0  0  0  0  0
    2.6067    3.9323    0.0000 N   0  0  0  0  0  0  0  0  0  0  0  0
    5.9418   -2.2348    0.0000 C   0  0  3  0  0  0  0  0  0  0  0  0
    6.8078   -0.7348    0.0000 C   0  0  0  0  0  0  0  0  0  0  0  0
    5.0757   -0.7348    0.0000 C   0  0  0  0  0  0  0  0  0  0  0  0
    6.7508   -2.8226    0.0000 C   0  0  0  0  0  0  0  0  0  0  0  0
    5.1328   -2.8226    0.0000 C   0  0  0  0  0  0  0  0  0  0  0  0
    6.8078    0.2652    0.0000 C   0  0  0  0  0  0  0  0  0  0  0  0
    5.0757    0.2652    0.0000 C   0  0  0  0  0  0  0  0  0  0  0  0
    6.4418   -3.7736    0.0000 C   0  0  0  0  0  0  0  0  0  0  0  0
    5.4418   -3.7736    0.0000 C   0  0  0  0  0  0  0  0  0  0  0  0
    7.7662   -2.5903    0.0000 C   0  0  0  0  0  0  0  0  0  0  0  0
    4.1173   -2.5903    0.0000 C   0  0  0  0  0  0  0  0  0  0  0  0
    7.1267   -4.5583    0.0000 C   0  0  0  0  0  0  0  0  0  0  0  0
    4.7568   -4.5583    0.0000 C   0  0  0  0  0  0  0  0  0  0  0  0
    5.9418    1.7652    0.0000 C   0  0  0  0  0  0  0  0  0  0  0  0
    8.4691   -3.3590    0.0000 C   0  0  0  0  0  0  0  0  0  0  0  0
    8.1472   -4.3496    0.0000 C   0  0  0  0  0  0  0  0  0  0  0  0
    3.4144   -3.3590    0.0000 C   0  0  0  0  0  0  0  0  0  0  0  0
    3.7363   -4.3496    0.0000 C   0  0  0  0  0  0  0  0  0  0  0  0
    5.0757    2.2652    0.0000 C   0  0  0  0  0  0  0  0  0  0  0  0
    5.0757    3.2652    0.0000 C   0  0  0  0  0  0  0  0  0  0  0  0
    4.2097    1.7652    0.0000 C   0  0  0  0  0  0  0  0  0  0  0  0
    4.2097    3.7652    0.0000 C   0  0  0  0  0  0  0  0  0  0  0  0
   10.1185   -3.8879    0.0000 C   0  0  0  0  0  0  0  0  0  0  0  0
    3.3437    3.2652    0.0000 C   0  0  0  0  0  0  0  0  0  0  0  0
    3.3437    2.2652    0.0000 C   0  0  0  0  0  0  0  0  0  0  0  0
   11.0958   -3.6762    0.0000 C   0  0  0  0  0  0  0  0  0  0  0  0
    4.0005    4.7370    0.0000 C   0  0  0  0  0  0  0  0  0  0  0  0
    3.0118    4.8401    0.0000 C   0  0  0  0  0  0  0  0  0  0  0  0
   11.7678   -4.4168    0.0000 C   0  0  0  0  0  0  0  0  0  0  0  0
   12.7451   -4.2051    0.0000 C   0  0  0  0  0  0  0  0  0  0  0  0
    6.4942   -1.9533    0.0000 H   0  0  0  0  0  0  0  0  0  0  0  0
    7.0198   -1.3174    0.0000 H   0  0  0  0  0  0  0  0  0  0  0  0
    7.4184   -0.6271    0.0000 H   0  0  0  0  0  0  0  0  0  0  0  0
    4.4652   -0.6271    0.0000 H   0  0  0  0  0  0  0  0  0  0  0  0
    4.8637   -1.3174    0.0000 H   0  0  0  0  0  0  0  0  0  0  0  0
    7.4184    0.1576    0.0000 H   0  0  0  0  0  0  0  0  0  0  0  0
    7.0198    0.8478    0.0000 H   0  0  0  0  0  0  0  0  0  0  0  0
    4.8637    0.8478    0.0000 H   0  0  0  0  0  0  0  0  0  0  0  0
    4.4652    0.1576    0.0000 H   0  0  0  0  0  0  0  0  0  0  0  0
    7.9510   -1.9985    0.0000 H   0  0  0  0  0  0  0  0  0  0  0  0
    3.9326   -1.9985    0.0000 H   0  0  0  0  0  0  0  0  0  0  0  0
    6.9283   -5.1457    0.0000 H   0  0  0  0  0  0  0  0  0  0  0  0
    4.9552   -5.1457    0.0000 H   0  0  0  0  0  0  0  0  0  0  0  0
    8.5603   -4.8120    0.0000 H   0  0  0  0  0  0  0  0  0  0  0  0
    2.8085   -3.2277    0.0000 H   0  0  0  0  0  0  0  0  0  0  0  0
    3.3232   -4.8120    0.0000 H   0  0  0  0  0  0  0  0  0  0  0  0
    9.6358   -2.5569    0.0000 H   0  0  0  0  0  0  0  0  0  0  0  0
    5.6127    3.5752    0.0000 H   0  0  0  0  0  0  0  0  0  0  0  0
    4.2097    1.1452    0.0000 H   0  0  0  0  0  0  0  0  0  0  0  0
    2.8068    1.9552    0.0000 H   0  0  0  0  0  0  0  0  0  0  0  0
   11.6203   -3.3456    0.0000 H   0  0  0  0  0  0  0  0  0  0  0  0
   10.8613   -3.1022    0.0000 H   0  0  0  0  0  0  0  0  0  0  0  0
    4.4146    5.1985    0.0000 H   0  0  0  0  0  0  0  0  0  0  0  0
    2.0000    3.8045    0.0000 H   0  0  0  0  0  0  0  0  0  0  0  0
    2.7018    5.3770    0.0000 H   0  0  0  0  0  0  0  0  0  0  0  0
   11.2433   -4.7473    0.0000 H   0  0  0  0  0  0  0  0  0  0  0  0
   12.0023   -4.9907    0.0000 H   0  0  0  0  0  0  0  0  0  0  0  0
   12.8764   -4.8110    0.0000 H   0  0  0  0  0  0  0  0  0  0  0  0
   13.3511   -4.0738    0.0000 H   0  0  0  0  0  0  0  0  0  0  0  0
   12.6139   -3.5991    0.0000 H   0  0  0  0  0  0  0  0  0  0  0  0
  1 20  2  0  0  0  0
  2 29  2  0  0  0  0
  3  7  1  0  0  0  0
  3  8  1  0  0  0  0
  3  9  1  0  0  0  0
  4 12  1  0  0  0  0
  4 13  1  0  0  0  0
  4 20  1  0  0  0  0
  5 21  1  0  0  0  0
  5 29  1  0  0  0  0
  5 53  1  0  0  0  0
  6 30  1  0  0  0  0
  6 34  1  0  0  0  0
  6 60  1  0  0  0  0
  7 10  1  0  0  0  0
  7 11  1  0  0  0  0
  7 37  1  0  0  0  0
  8 12  1  0  0  0  0
  8 38  1  0  0  0  0
  8 39  1  0  0  0  0
  9 13  1  0  0  0  0
  9 40  1  0  0  0  0
  9 41  1  0  0  0  0
 10 14  2  0  0  0  0
 10 16  1  0  0  0  0
 11 15  1  0  0  0  0
 11 17  2  0  0  0  0
 12 42  1  0  0  0  0
 12 43  1  0  0  0  0
 13 44  1  0  0  0  0
 13 45  1  0  0  0  0
 14 15  1  0  0  0  0
 14 18  1  0  0  0  0
 15 19  2  0  0  0  0
 16 21  2  0  0  0  0
 16 46  1  0  0  0  0
 17 23  1  0  0  0  0
 17 47  1  0  0  0  0
 18 22  2  0  0  0  0
 18 48  1  0  0  0  0
 19 24  1  0  0  0  0
 19 49  1  0  0  0  0
 20 25  1  0  0  0  0
 21 22  1  0  0  0  0
 22 50  1  0  0  0  0
 23 24  2  0  0  0  0
 23 51  1  0  0  0  0
 24 52  1  0  0  0  0
 25 26  2  0  0  0  0
 25 27  1  0  0  0  0
 26 28  1  0  0  0  0
 26 54  1  0  0  0  0
 27 31  2  0  0  0  0
 27 55  1  0  0  0  0
 28 30  2  0  0  0  0
 28 33  1  0  0  0  0
 29 32  1  0  0  0  0
 30 31  1  0  0  0  0
 31 56  1  0  0  0  0
 32 35  1  0  0  0  0
 32 57  1  0  0  0  0
 32 58  1  0  0  0  0
 33 34  2  0  0  0  0
 33 59  1  0  0  0  0
 34 61  1  0  0  0  0
 35 36  1  0  0  0  0
 35 62  1  0  0  0  0
 35 63  1  0  0  0  0
 36 64  1  0  0  0  0
 36 65  1  0  0  0  0
 36 66  1  0  0  0  0
M  END
> <PUBCHEM_COMPOUND_CID>
506178
> <PUBCHEM_COMPOUND_CANONICALIZED>
1
> <PUBCHEM_CACTVS_COMPLEXITY>
796
> <PUBCHEM_CACTVS_HBOND_ACCEPTOR>
3
> <PUBCHEM_CACTVS_HBOND_DONOR>
2
> <PUBCHEM_CACTVS_ROTATABLE_BOND>
5
> <PUBCHEM_CACTVS_SUBSKEYS>
AAADceB7sAAAAAAAAAAAAAAAAAAAAeIAAAA8YMEAAAAAAHgB9AAAHgAQAAAADCjBngQ+wPPJkACoAzV3VACCgCA1AiAI2aE4ZNgIYPLAlZGUIQhglgDIyYcYicCeiAACQAASAAAQAASAACQAASAACQAAAA==
> <PUBCHEM_IUPAC_OPENEYE_NAME>
N-[9-[4-(1H-indole-5-carbonyl)piperazin-1-yl]-9H-fluoren-2-yl]butanamide
> <PUBCHEM_IUPAC_CAS_NAME>
N-[9-[4-[1H-indol-5-yl(oxo)methyl]-1-piperazinyl]-9H-fluoren-2-yl]butanamide
> <PUBCHEM_IUPAC_NAME_MARKUP>
<I>N</I>-[9-[4-(1<I>H</I>-indole-5-carbonyl)piperazin-1-yl]-9<I>H</I>-fluoren-2-yl]butanamide
> <PUBCHEM_IUPAC_NAME>
N-[9-[4-(1H-indole-5-carbonyl)piperazin-1-yl]-9H-fluoren-2-yl]butanamide
> <PUBCHEM_IUPAC_SYSTEMATIC_NAME>
N-[9-[4-(1H-indol-5-ylcarbonyl)piperazin-1-yl]-9H-fluoren-2-yl]butanamide
> <PUBCHEM_IUPAC_TRADITIONAL_NAME>
N-[9-[4-(1H-indole-5-carbonyl)piperazino]-9H-fluoren-2-yl]butyramide
> <PUBCHEM_IUPAC_INCHI>
InChI=1S/C30H30N4O2/c1-2-5-28(35)32-22-9-10-24-23-6-3-4-7-25(23)29(26(24)19-22)33-14-16-34(17-15-33)30(36)21-8-11-27-20(18-21)12-13-31-27/h3-4,6-13,18-19,29,31H,2,5,14-17H2,1H3,(H,32,35)
> <PUBCHEM_IUPAC_INCHIKEY>
APGNNIFADFBLCX-UHFFFAOYSA-N
> <PUBCHEM_XLOGP3_AA>
4.2
> <PUBCHEM_EXACT_MASS>
478.23687621
> <PUBCHEM_MOLECULAR_FORMULA>
C30H30N4O2
> <PUBCHEM_MOLECULAR_WEIGHT>
478.6
> <PUBCHEM_OPENEYE_CAN_SMILES>
CCCC(=O)NC1=CC2=C(C=C1)C3=CC=CC=C3C2N4CCN(CC4)C(=O)C5=CC6=C(C=C5)NC=C6
> <PUBCHEM_OPENEYE_ISO_SMILES>
CCCC(=O)NC1=CC2=C(C=C1)C3=CC=CC=C3C2N4CCN(CC4)C(=O)C5=CC6=C(C=C5)NC=C6
> <PUBCHEM_CACTVS_TPSA>
68.4
> <PUBCHEM_MONOISOTOPIC_WEIGHT>
478.23687621
> <PUBCHEM_TOTAL_CHARGE>
0
> <PUBCHEM_HEAVY_ATOM_COUNT>
36
> <PUBCHEM_ATOM_DEF_STEREO_COUNT>
0
> <PUBCHEM_ATOM_UDEF_STEREO_COUNT>
1
> <PUBCHEM_BOND_DEF_STEREO_COUNT>
0
> <PUBCHEM_BOND_UDEF_STEREO_COUNT>
0
> <PUBCHEM_ISOTOPIC_ATOM_COUNT>
0
> <PUBCHEM_COMPONENT_COUNT>
1
> <PUBCHEM_CACTVS_TAUTO_COUNT>
-1
> <PUBCHEM_COORDINATE_TYPE>
1
5
255
> <PUBCHEM_BONDANNOTATIONS>
10  14  8
10  16  8
11  15  8
11  17  8
14  18  8
15  19  8
16  21  8
17  23  8
18  22  8
19  24  8
21  22  8
23  24  8
25  26  8
25  27  8
26  28  8
27  31  8
28  30  8
28  33  8
7  3  3
30  31  8
33  34  8
6  30  8
6  34  8
$$$$
