506112
  -OEChem-10302200282D
 49 50  0     1  0  0  0  0  0999 V2000
    3.6376   -3.1403    0.0000 O   0  0  0  0  0  0  0  0  0  0  0  0
    2.2635   -2.0859    0.0000 O   0  0  0  0  0  0  0  0  0  0  0  0
    7.4072    0.7309    0.0000 O   0  0  0  0  0  0  0  0  0  0  0  0
    3.7071    1.2180    0.0000 N   0  0  0  0  0  0  0  0  0  0  0  0
    5.6900    0.9570    0.0000 N   0  0  0  0  0  0  0  0  0  0  0  0
    6.4554   -0.8908    0.0000 N   0  0  0  0  0  0  0  0  0  0  0  0
    4.0898    0.2941    0.0000 C   0  0  1  0  0  0  0  0  0  0  0  0
    5.0812    0.1636    0.0000 C   0  0  1  0  0  0  0  0  0  0  0  0
    5.4639   -0.7603    0.0000 C   0  0  2  0  0  0  0  0  0  0  0  0
    2.7071    1.2180    0.0000 C   0  0  0  0  0  0  0  0  0  0  0  0
    4.4142    1.9251    0.0000 C   0  0  0  0  0  0  0  0  0  0  0  0
    4.8552   -1.5536    0.0000 C   0  0  0  0  0  0  0  0  0  0  0  0
    3.4810   -0.4992    0.0000 C   0  0  0  0  0  0  0  0  0  0  0  0
    2.0000    1.9251    0.0000 C   0  0  0  0  0  0  0  0  0  0  0  0
    4.4142    2.9251    0.0000 C   0  0  0  0  0  0  0  0  0  0  0  0
    3.8637   -1.4231    0.0000 C   0  0  0  0  0  0  0  0  0  0  0  0
    2.0000    2.9251    0.0000 C   0  0  0  0  0  0  0  0  0  0  0  0
    3.7071    3.6322    0.0000 C   0  0  0  0  0  0  0  0  0  0  0  0
    2.7071    3.6322    0.0000 C   0  0  0  0  0  0  0  0  0  0  0  0
    3.2550   -2.2165    0.0000 C   0  0  0  0  0  0  0  0  0  0  0  0
    6.6139    1.3396    0.0000 C   0  0  0  0  0  0  0  0  0  0  0  0
    6.7444    2.3311    0.0000 C   0  0  0  0  0  0  0  0  0  0  0  0
    3.4751    0.3751    0.0000 H   0  0  0  0  0  0  0  0  0  0  0  0
    4.8440    0.7364    0.0000 H   0  0  0  0  0  0  0  0  0  0  0  0
    5.8414   -0.2684    0.0000 H   0  0  0  0  0  0  0  0  0  0  0  0
    2.1702    0.9080    0.0000 H   0  0  0  0  0  0  0  0  0  0  0  0
    2.8676    0.6191    0.0000 H   0  0  0  0  0  0  0  0  0  0  0  0
    4.7242    1.3882    0.0000 H   0  0  0  0  0  0  0  0  0  0  0  0
    5.0131    2.0856    0.0000 H   0  0  0  0  0  0  0  0  0  0  0  0
    4.6687   -2.1449    0.0000 H   0  0  0  0  0  0  0  0  0  0  0  0
    5.4051   -1.8399    0.0000 H   0  0  0  0  0  0  0  0  0  0  0  0
    2.8663   -0.4183    0.0000 H   0  0  0  0  0  0  0  0  0  0  0  0
    1.4011    2.0856    0.0000 H   0  0  0  0  0  0  0  0  0  0  0  0
    1.6900    1.3882    0.0000 H   0  0  0  0  0  0  0  0  0  0  0  0
    5.0131    2.7646    0.0000 H   0  0  0  0  0  0  0  0  0  0  0  0
    4.7242    3.4620    0.0000 H   0  0  0  0  0  0  0  0  0  0  0  0
    1.6900    3.4620    0.0000 H   0  0  0  0  0  0  0  0  0  0  0  0
    1.4011    2.7646    0.0000 H   0  0  0  0  0  0  0  0  0  0  0  0
    4.2440    3.9422    0.0000 H   0  0  0  0  0  0  0  0  0  0  0  0
    3.5466    4.2311    0.0000 H   0  0  0  0  0  0  0  0  0  0  0  0
    5.4527    1.5298    0.0000 H   0  0  0  0  0  0  0  0  0  0  0  0
    2.8676    4.2311    0.0000 H   0  0  0  0  0  0  0  0  0  0  0  0
    2.1702    3.9422    0.0000 H   0  0  0  0  0  0  0  0  0  0  0  0
    6.6926   -1.4636    0.0000 H   0  0  0  0  0  0  0  0  0  0  0  0
    7.0282   -0.6535    0.0000 H   0  0  0  0  0  0  0  0  0  0  0  0
    7.3591    2.2502    0.0000 H   0  0  0  0  0  0  0  0  0  0  0  0
    6.8253    2.9458    0.0000 H   0  0  0  0  0  0  0  0  0  0  0  0
    6.1297    2.4120    0.0000 H   0  0  0  0  0  0  0  0  0  0  0  0
    3.2602   -3.6322    0.0000 H   0  0  0  0  0  0  0  0  0  0  0  0
  1 20  1  0  0  0  0
  1 49  1  0  0  0  0
  2 20  2  0  0  0  0
  3 21  2  0  0  0  0
  7  4  1  1  0  0  0
  4 10  1  0  0  0  0
  4 11  1  0  0  0  0
  8  5  1  6  0  0  0
  5 21  1  0  0  0  0
  5 41  1  0  0  0  0
  9  6  1  1  0  0  0
  6 44  1  0  0  0  0
  6 45  1  0  0  0  0
  7  8  1  0  0  0  0
  7 13  1  0  0  0  0
  7 23  1  0  0  0  0
  8  9  1  0  0  0  0
  8 24  1  0  0  0  0
  9 12  1  0  0  0  0
  9 25  1  0  0  0  0
 10 14  1  0  0  0  0
 10 26  1  0  0  0  0
 10 27  1  0  0  0  0
 11 15  1  0  0  0  0
 11 28  1  0  0  0  0
 11 29  1  0  0  0  0
 12 16  1  0  0  0  0
 12 30  1  0  0  0  0
 12 31  1  0  0  0  0
 13 16  2  0  0  0  0
 13 32  1  0  0  0  0
 14 17  1  0  0  0  0
 14 33  1  0  0  0  0
 14 34  1  0  0  0  0
 15 18  1  0  0  0  0
 15 35  1  0  0  0  0
 15 36  1  0  0  0  0
 16 20  1  0  0  0  0
 17 19  1  0  0  0  0
 17 37  1  0  0  0  0
 17 38  1  0  0  0  0
 18 19  1  0  0  0  0
 18 39  1  0  0  0  0
 18 40  1  0  0  0  0
 19 42  1  0  0  0  0
 19 43  1  0  0  0  0
 21 22  1  0  0  0  0
 22 46  1  0  0  0  0
 22 47  1  0  0  0  0
 22 48  1  0  0  0  0
M  END
> <PUBCHEM_COMPOUND_CID>
506112
> <PUBCHEM_COMPOUND_CANONICALIZED>
1
> <PUBCHEM_CACTVS_COMPLEXITY>
442
> <PUBCHEM_CACTVS_HBOND_ACCEPTOR>
5
> <PUBCHEM_CACTVS_HBOND_DONOR>
3
> <PUBCHEM_CACTVS_ROTATABLE_BOND>
3
> <PUBCHEM_CACTVS_SUBSKEYS>
AAADceB7MAAAAAAAAAAAAAAAAAAAAAAAAAAgAAAAAAAWAAAAAAAAHgAQCAAADCjBgAQCCAPAAgCIAiHSGACAAAAgAAAACIEIAEgARBIAwQAUUAAElgCIEYO82SOQAAAAAAAAAAAAAAAAAAAAAAAAAAAAAA==
> <PUBCHEM_IUPAC_OPENEYE_NAME>
(3R,4R,5S)-4-acetamido-5-amino-3-(azocan-1-yl)cyclohexene-1-carboxylic acid
> <PUBCHEM_IUPAC_CAS_NAME>
(3R,4R,5S)-4-acetamido-5-amino-3-(1-azocanyl)-1-cyclohexenecarboxylic acid
> <PUBCHEM_IUPAC_NAME_MARKUP>
(3<I>R</I>,4<I>R</I>,5<I>S</I>)-4-acetamido-5-amino-3-(azocan-1-yl)cyclohexene-1-carboxylic acid
> <PUBCHEM_IUPAC_NAME>
(3R,4R,5S)-4-acetamido-5-amino-3-(azocan-1-yl)cyclohexene-1-carboxylic acid
> <PUBCHEM_IUPAC_SYSTEMATIC_NAME>
(3R,4R,5S)-4-acetamido-5-azanyl-3-(azocan-1-yl)cyclohexene-1-carboxylic acid
> <PUBCHEM_IUPAC_TRADITIONAL_NAME>
(3R,4R,5S)-4-acetamido-5-amino-3-(azocan-1-yl)cyclohexene-1-carboxylic acid
> <PUBCHEM_IUPAC_INCHI>
InChI=1S/C16H27N3O3/c1-11(20)18-15-13(17)9-12(16(21)22)10-14(15)19-7-5-3-2-4-6-8-19/h10,13-15H,2-9,17H2,1H3,(H,18,20)(H,21,22)/t13-,14+,15+/m0/s1
> <PUBCHEM_IUPAC_INCHIKEY>
HEXKMBDBYKKIII-RRFJBIMHSA-N
> <PUBCHEM_XLOGP3_AA>
-1.8
> <PUBCHEM_EXACT_MASS>
309.20524173
> <PUBCHEM_MOLECULAR_FORMULA>
C16H27N3O3
> <PUBCHEM_MOLECULAR_WEIGHT>
309.40
> <PUBCHEM_OPENEYE_CAN_SMILES>
CC(=O)NC1C(CC(=CC1N2CCCCCCC2)C(=O)O)N
> <PUBCHEM_OPENEYE_ISO_SMILES>
CC(=O)N[C@@H]1[C@H](CC(=C[C@H]1N2CCCCCCC2)C(=O)O)N
> <PUBCHEM_CACTVS_TPSA>
95.7
> <PUBCHEM_MONOISOTOPIC_WEIGHT>
309.20524173
> <PUBCHEM_TOTAL_CHARGE>
0
> <PUBCHEM_HEAVY_ATOM_COUNT>
22
> <PUBCHEM_ATOM_DEF_STEREO_COUNT>
3
> <PUBCHEM_ATOM_UDEF_STEREO_COUNT>
0
> <PUBCHEM_BOND_DEF_STEREO_COUNT>
0
> <PUBCHEM_BOND_UDEF_STEREO_COUNT>
0
> <PUBCHEM_ISOTOPIC_ATOM_COUNT>
0
> <PUBCHEM_COMPONENT_COUNT>
1
> <PUBCHEM_CACTVS_TAUTO_COUNT>
-1
> <PUBCHEM_COORDINATE_TYPE>
1
5
255
> <PUBCHEM_BONDANNOTATIONS>
7  4  5
8  5  6
9  6  5
$$$$
