506269
  -OEChem-10302200282D
 51 54  0     1  0  0  0  0  0999 V2000
    2.8660   -1.2692    0.0000 F   0  0  0  0  0  0  0  0  0  0  0  0
    2.8660   -5.2693    0.0000 F   0  0  0  0  0  0  0  0  0  0  0  0
    6.6353   -2.0521    0.0000 O   0  0  0  0  0  0  0  0  0  0  0  0
    6.5422    3.2386    0.0000 O   0  0  0  0  0  0  0  0  0  0  0  0
    4.3211   -0.7697    0.0000 O   0  0  0  0  0  0  0  0  0  0  0  0
    6.2781   -0.3573    0.0000 N   0  0  0  0  0  0  0  0  0  0  0  0
    6.8994    1.5438    0.0000 N   0  0  0  0  0  0  0  0  0  0  0  0
    4.6783   -4.0740    0.0000 N   0  0  0  0  0  0  0  0  0  0  0  0
    9.7884    4.8078    0.0000 N   0  0  0  0  0  0  0  0  0  0  0  0
    5.6103    0.3870    0.0000 C   0  0  1  0  0  0  0  0  0  0  0  0
    5.9209    1.3376    0.0000 C   0  0  0  0  0  0  0  0  0  0  0  0
    7.2566   -0.1510    0.0000 C   0  0  0  0  0  0  0  0  0  0  0  0
    7.5673    0.7995    0.0000 C   0  0  0  0  0  0  0  0  0  0  0  0
    4.6318    0.1808    0.0000 C   0  0  0  0  0  0  0  0  0  0  0  0
    5.9674   -1.3078    0.0000 C   0  0  0  0  0  0  0  0  0  0  0  0
    7.2101    2.4943    0.0000 C   0  0  0  0  0  0  0  0  0  0  0  0
    4.9889   -1.5140    0.0000 C   0  0  0  0  0  0  0  0  0  0  0  0
    8.1886    2.7005    0.0000 C   0  0  0  0  0  0  0  0  0  0  0  0
    4.6783   -2.4645    0.0000 C   0  0  0  0  0  0  0  0  0  0  0  0
    3.7320   -2.7692    0.0000 C   0  0  0  0  0  0  0  0  0  0  0  0
    3.7320   -3.7692    0.0000 C   0  0  0  0  0  0  0  0  0  0  0  0
    5.2619   -3.2692    0.0000 C   0  0  0  0  0  0  0  0  0  0  0  0
    8.4993    3.6510    0.0000 C   0  0  0  0  0  0  0  0  0  0  0  0
    8.8564    1.9562    0.0000 C   0  0  0  0  0  0  0  0  0  0  0  0
    2.8660   -2.2692    0.0000 C   0  0  0  0  0  0  0  0  0  0  0  0
    2.8660   -4.2693    0.0000 C   0  0  0  0  0  0  0  0  0  0  0  0
    9.4778    3.8573    0.0000 C   0  0  0  0  0  0  0  0  0  0  0  0
    9.8349    2.1624    0.0000 C   0  0  0  0  0  0  0  0  0  0  0  0
    2.0000   -2.7692    0.0000 C   0  0  0  0  0  0  0  0  0  0  0  0
   10.1456    3.1130    0.0000 C   0  0  0  0  0  0  0  0  0  0  0  0
    2.0000   -3.7692    0.0000 C   0  0  0  0  0  0  0  0  0  0  0  0
    5.4176   -0.2023    0.0000 H   0  0  0  0  0  0  0  0  0  0  0  0
    5.9004    1.9572    0.0000 H   0  0  0  0  0  0  0  0  0  0  0  0
    5.3071    1.4249    0.0000 H   0  0  0  0  0  0  0  0  0  0  0  0
    7.2772   -0.7707    0.0000 H   0  0  0  0  0  0  0  0  0  0  0  0
    7.8704   -0.2384    0.0000 H   0  0  0  0  0  0  0  0  0  0  0  0
    8.1142    0.5075    0.0000 H   0  0  0  0  0  0  0  0  0  0  0  0
    7.9498    1.2874    0.0000 H   0  0  0  0  0  0  0  0  0  0  0  0
    4.5039    0.7875    0.0000 H   0  0  0  0  0  0  0  0  0  0  0  0
    4.0251    0.0530    0.0000 H   0  0  0  0  0  0  0  0  0  0  0  0
    4.7596   -0.4258    0.0000 H   0  0  0  0  0  0  0  0  0  0  0  0
    5.8819   -3.2692    0.0000 H   0  0  0  0  0  0  0  0  0  0  0  0
    8.0852    4.1125    0.0000 H   0  0  0  0  0  0  0  0  0  0  0  0
    8.6638    1.3669    0.0000 H   0  0  0  0  0  0  0  0  0  0  0  0
    4.8709   -4.6633    0.0000 H   0  0  0  0  0  0  0  0  0  0  0  0
   10.2490    1.7010    0.0000 H   0  0  0  0  0  0  0  0  0  0  0  0
    1.4631   -2.4592    0.0000 H   0  0  0  0  0  0  0  0  0  0  0  0
    1.4631   -4.0792    0.0000 H   0  0  0  0  0  0  0  0  0  0  0  0
   10.7523    3.2408    0.0000 H   0  0  0  0  0  0  0  0  0  0  0  0
   10.3951    4.9356    0.0000 H   0  0  0  0  0  0  0  0  0  0  0  0
    9.3744    5.2693    0.0000 H   0  0  0  0  0  0  0  0  0  0  0  0
  1 25  1  0  0  0  0
  2 26  1  0  0  0  0
  3 15  2  0  0  0  0
  4 16  2  0  0  0  0
  5 17  2  0  0  0  0
  6 10  1  0  0  0  0
  6 12  1  0  0  0  0
  6 15  1  0  0  0  0
  7 11  1  0  0  0  0
  7 13  1  0  0  0  0
  7 16  1  0  0  0  0
  8 21  1  0  0  0  0
  8 22  1  0  0  0  0
  8 45  1  0  0  0  0
  9 27  1  0  0  0  0
  9 50  1  0  0  0  0
  9 51  1  0  0  0  0
 10 11  1  0  0  0  0
 10 14  1  6  0  0  0
 10 32  1  0  0  0  0
 11 33  1  0  0  0  0
 11 34  1  0  0  0  0
 12 13  1  0  0  0  0
 12 35  1  0  0  0  0
 12 36  1  0  0  0  0
 13 37  1  0  0  0  0
 13 38  1  0  0  0  0
 14 39  1  0  0  0  0
 14 40  1  0  0  0  0
 14 41  1  0  0  0  0
 15 17  1  0  0  0  0
 16 18  1  0  0  0  0
 17 19  1  0  0  0  0
 18 23  2  0  0  0  0
 18 24  1  0  0  0  0
 19 20  1  0  0  0  0
 19 22  2  0  0  0  0
 20 21  1  0  0  0  0
 20 25  2  0  0  0  0
 21 26  2  0  0  0  0
 22 42  1  0  0  0  0
 23 27  1  0  0  0  0
 23 43  1  0  0  0  0
 24 28  2  0  0  0  0
 24 44  1  0  0  0  0
 25 29  1  0  0  0  0
 26 31  1  0  0  0  0
 27 30  2  0  0  0  0
 28 30  1  0  0  0  0
 28 46  1  0  0  0  0
 29 31  2  0  0  0  0
 29 47  1  0  0  0  0
 30 49  1  0  0  0  0
 31 48  1  0  0  0  0
M  END
> <PUBCHEM_COMPOUND_CID>
506269
> <PUBCHEM_COMPOUND_CANONICALIZED>
1
> <PUBCHEM_CACTVS_COMPLEXITY>
723
> <PUBCHEM_CACTVS_HBOND_ACCEPTOR>
6
> <PUBCHEM_CACTVS_HBOND_DONOR>
2
> <PUBCHEM_CACTVS_ROTATABLE_BOND>
3
> <PUBCHEM_CACTVS_SUBSKEYS>
AAADceB7sYAAAAAAAAAAAAAAAAAAAWAAAAA8YIAAAAAAAFgB9AAAHwAQAAAADCzBngw+wPPJkACoA7V3VACCgCA1AiAI2aGoZNgIYPrAlbGUIYhglgDIycccicCegAAAQAACAAAAAACAAAQAAAAAAAAAAA==
> <PUBCHEM_IUPAC_OPENEYE_NAME>
1-[(2R)-4-(3-aminobenzoyl)-2-methyl-piperazin-1-yl]-2-(4,7-difluoro-1H-indol-3-yl)ethane-1,2-dione
> <PUBCHEM_IUPAC_CAS_NAME>
1-[(2R)-4-[(3-aminophenyl)-oxomethyl]-2-methyl-1-piperazinyl]-2-(4,7-difluoro-1H-indol-3-yl)ethane-1,2-dione
> <PUBCHEM_IUPAC_NAME_MARKUP>
1-[(2<I>R</I>)-4-(3-aminobenzoyl)-2-methylpiperazin-1-yl]-2-(4,7-difluoro-1<I>H</I>-indol-3-yl)ethane-1,2-dione
> <PUBCHEM_IUPAC_NAME>
1-[(2R)-4-(3-aminobenzoyl)-2-methylpiperazin-1-yl]-2-(4,7-difluoro-1H-indol-3-yl)ethane-1,2-dione
> <PUBCHEM_IUPAC_SYSTEMATIC_NAME>
1-[(2R)-4-(3-aminophenyl)carbonyl-2-methyl-piperazin-1-yl]-2-[4,7-bis(fluoranyl)-1H-indol-3-yl]ethane-1,2-dione
> <PUBCHEM_IUPAC_TRADITIONAL_NAME>
1-[(2R)-4-(3-aminobenzoyl)-2-methyl-piperazino]-2-(4,7-difluoro-1H-indol-3-yl)ethane-1,2-dione
> <PUBCHEM_IUPAC_INCHI>
InChI=1S/C22H20F2N4O3/c1-12-11-27(21(30)13-3-2-4-14(25)9-13)7-8-28(12)22(31)20(29)15-10-26-19-17(24)6-5-16(23)18(15)19/h2-6,9-10,12,26H,7-8,11,25H2,1H3/t12-/m1/s1
> <PUBCHEM_IUPAC_INCHIKEY>
PYNGVDRKRBREQC-GFCCVEGCSA-N
> <PUBCHEM_XLOGP3_AA>
2.3
> <PUBCHEM_EXACT_MASS>
426.15034684
> <PUBCHEM_MOLECULAR_FORMULA>
C22H20F2N4O3
> <PUBCHEM_MOLECULAR_WEIGHT>
426.4
> <PUBCHEM_OPENEYE_CAN_SMILES>
CC1CN(CCN1C(=O)C(=O)C2=CNC3=C(C=CC(=C23)F)F)C(=O)C4=CC(=CC=C4)N
> <PUBCHEM_OPENEYE_ISO_SMILES>
C[C@@H]1CN(CCN1C(=O)C(=O)C2=CNC3=C(C=CC(=C23)F)F)C(=O)C4=CC(=CC=C4)N
> <PUBCHEM_CACTVS_TPSA>
99.5
> <PUBCHEM_MONOISOTOPIC_WEIGHT>
426.15034684
> <PUBCHEM_TOTAL_CHARGE>
0
> <PUBCHEM_HEAVY_ATOM_COUNT>
31
> <PUBCHEM_ATOM_DEF_STEREO_COUNT>
1
> <PUBCHEM_ATOM_UDEF_STEREO_COUNT>
0
> <PUBCHEM_BOND_DEF_STEREO_COUNT>
0
> <PUBCHEM_BOND_UDEF_STEREO_COUNT>
0
> <PUBCHEM_ISOTOPIC_ATOM_COUNT>
0
> <PUBCHEM_COMPONENT_COUNT>
1
> <PUBCHEM_CACTVS_TAUTO_COUNT>
-1
> <PUBCHEM_COORDINATE_TYPE>
1
5
255
> <PUBCHEM_BONDANNOTATIONS>
10  14  6
18  23  8
18  24  8
19  20  8
19  22  8
20  21  8
20  25  8
21  26  8
23  27  8
24  28  8
25  29  8
26  31  8
27  30  8
28  30  8
29  31  8
8  21  8
8  22  8
$$$$
