506327
  -OEChem-10302200282D
 67 70  0     1  0  0  0  0  0999 V2000
    6.5819    4.6946    0.0000 O   0  0  0  0  0  0  0  0  0  0  0  0
    6.6749   -0.5961    0.0000 O   0  0  0  0  0  0  0  0  0  0  0  0
    4.3607    0.6863    0.0000 O   0  0  0  0  0  0  0  0  0  0  0  0
    2.0396   -4.3133    0.0000 O   0  0  0  0  0  0  0  0  0  0  0  0
    3.7717   -4.3133    0.0000 O   0  0  0  0  0  0  0  0  0  0  0  0
    6.9390    2.9998    0.0000 N   0  0  0  0  0  0  0  0  0  0  0  0
    6.3177    1.0987    0.0000 N   0  0  0  0  0  0  0  0  0  0  0  0
    4.7179   -2.6180    0.0000 N   0  0  0  0  0  0  0  0  0  0  0  0
    5.9605    2.7936    0.0000 C   0  0  3  0  0  0  0  0  0  0  0  0
    5.6499    1.8430    0.0000 C   0  0  0  0  0  0  0  0  0  0  0  0
    5.2927    3.5379    0.0000 C   0  0  0  0  0  0  0  0  0  0  0  0
    7.6069    2.2555    0.0000 C   0  0  0  0  0  0  0  0  0  0  0  0
    7.2962    1.3050    0.0000 C   0  0  0  0  0  0  0  0  0  0  0  0
    4.3142    3.3316    0.0000 C   0  0  0  0  0  0  0  0  0  0  0  0
    3.6464    4.0759    0.0000 C   0  0  0  0  0  0  0  0  0  0  0  0
    7.2497    3.9503    0.0000 C   0  0  0  0  0  0  0  0  0  0  0  0
    6.0071    0.1482    0.0000 C   0  0  0  0  0  0  0  0  0  0  0  0
    2.6678    3.8697    0.0000 C   0  0  0  0  0  0  0  0  0  0  0  0
    8.2282    4.1565    0.0000 C   0  0  0  0  0  0  0  0  0  0  0  0
    5.0286   -0.0580    0.0000 C   0  0  0  0  0  0  0  0  0  0  0  0
    2.0000    4.6140    0.0000 C   0  0  0  0  0  0  0  0  0  0  0  0
    4.7179   -1.0085    0.0000 C   0  0  0  0  0  0  0  0  0  0  0  0
    8.5389    5.1070    0.0000 C   0  0  0  0  0  0  0  0  0  0  0  0
    8.8961    3.4122    0.0000 C   0  0  0  0  0  0  0  0  0  0  0  0
    3.7717   -1.3133    0.0000 C   0  0  0  0  0  0  0  0  0  0  0  0
    3.7717   -2.3133    0.0000 C   0  0  0  0  0  0  0  0  0  0  0  0
    5.3015   -1.8133    0.0000 C   0  0  0  0  0  0  0  0  0  0  0  0
    9.5174    5.3133    0.0000 C   0  0  0  0  0  0  0  0  0  0  0  0
    9.8746    3.6184    0.0000 C   0  0  0  0  0  0  0  0  0  0  0  0
    2.9056   -0.8133    0.0000 C   0  0  0  0  0  0  0  0  0  0  0  0
    2.9056   -2.8133    0.0000 C   0  0  0  0  0  0  0  0  0  0  0  0
   10.1852    4.5690    0.0000 C   0  0  0  0  0  0  0  0  0  0  0  0
    2.0396   -1.3133    0.0000 C   0  0  0  0  0  0  0  0  0  0  0  0
    2.0396   -2.3133    0.0000 C   0  0  0  0  0  0  0  0  0  0  0  0
    2.9056   -3.8133    0.0000 C   0  0  0  0  0  0  0  0  0  0  0  0
    2.0396   -5.3133    0.0000 C   0  0  0  0  0  0  0  0  0  0  0  0
    6.1532    3.3829    0.0000 H   0  0  0  0  0  0  0  0  0  0  0  0
    5.1030    2.1351    0.0000 H   0  0  0  0  0  0  0  0  0  0  0  0
    5.2673    1.3551    0.0000 H   0  0  0  0  0  0  0  0  0  0  0  0
    5.8191    3.8655    0.0000 H   0  0  0  0  0  0  0  0  0  0  0  0
    5.0614    4.1131    0.0000 H   0  0  0  0  0  0  0  0  0  0  0  0
    8.1538    1.9635    0.0000 H   0  0  0  0  0  0  0  0  0  0  0  0
    7.9894    2.7434    0.0000 H   0  0  0  0  0  0  0  0  0  0  0  0
    7.3168    0.6853    0.0000 H   0  0  0  0  0  0  0  0  0  0  0  0
    7.9100    1.2176    0.0000 H   0  0  0  0  0  0  0  0  0  0  0  0
    3.7878    3.0040    0.0000 H   0  0  0  0  0  0  0  0  0  0  0  0
    4.5454    2.7564    0.0000 H   0  0  0  0  0  0  0  0  0  0  0  0
    4.1727    4.4036    0.0000 H   0  0  0  0  0  0  0  0  0  0  0  0
    3.4151    4.6512    0.0000 H   0  0  0  0  0  0  0  0  0  0  0  0
    2.1415    3.5421    0.0000 H   0  0  0  0  0  0  0  0  0  0  0  0
    2.8991    3.2945    0.0000 H   0  0  0  0  0  0  0  0  0  0  0  0
    2.4615    5.0281    0.0000 H   0  0  0  0  0  0  0  0  0  0  0  0
    1.5859    5.0755    0.0000 H   0  0  0  0  0  0  0  0  0  0  0  0
    1.5385    4.2000    0.0000 H   0  0  0  0  0  0  0  0  0  0  0  0
    8.1248    5.5685    0.0000 H   0  0  0  0  0  0  0  0  0  0  0  0
    8.7034    2.8229    0.0000 H   0  0  0  0  0  0  0  0  0  0  0  0
    5.9215   -1.8133    0.0000 H   0  0  0  0  0  0  0  0  0  0  0  0
    4.9105   -3.2073    0.0000 H   0  0  0  0  0  0  0  0  0  0  0  0
    9.7100    5.9026    0.0000 H   0  0  0  0  0  0  0  0  0  0  0  0
   10.2886    3.1570    0.0000 H   0  0  0  0  0  0  0  0  0  0  0  0
    2.9056   -0.1933    0.0000 H   0  0  0  0  0  0  0  0  0  0  0  0
   10.7919    4.6968    0.0000 H   0  0  0  0  0  0  0  0  0  0  0  0
    1.5027   -1.0033    0.0000 H   0  0  0  0  0  0  0  0  0  0  0  0
    1.5027   -2.6233    0.0000 H   0  0  0  0  0  0  0  0  0  0  0  0
    1.4196   -5.3133    0.0000 H   0  0  0  0  0  0  0  0  0  0  0  0
    2.0396   -5.9333    0.0000 H   0  0  0  0  0  0  0  0  0  0  0  0
    2.6596   -5.3133    0.0000 H   0  0  0  0  0  0  0  0  0  0  0  0
  1 16  2  0  0  0  0
  2 17  2  0  0  0  0
  3 20  2  0  0  0  0
  4 35  1  0  0  0  0
  4 36  1  0  0  0  0
  5 35  2  0  0  0  0
  6  9  1  0  0  0  0
  6 12  1  0  0  0  0
  6 16  1  0  0  0  0
  7 10  1  0  0  0  0
  7 13  1  0  0  0  0
  7 17  1  0  0  0  0
  8 26  1  0  0  0  0
  8 27  1  0  0  0  0
  8 58  1  0  0  0  0
  9 10  1  0  0  0  0
  9 11  1  0  0  0  0
  9 37  1  0  0  0  0
 10 38  1  0  0  0  0
 10 39  1  0  0  0  0
 11 14  1  0  0  0  0
 11 40  1  0  0  0  0
 11 41  1  0  0  0  0
 12 13  1  0  0  0  0
 12 42  1  0  0  0  0
 12 43  1  0  0  0  0
 13 44  1  0  0  0  0
 13 45  1  0  0  0  0
 14 15  1  0  0  0  0
 14 46  1  0  0  0  0
 14 47  1  0  0  0  0
 15 18  1  0  0  0  0
 15 48  1  0  0  0  0
 15 49  1  0  0  0  0
 16 19  1  0  0  0  0
 17 20  1  0  0  0  0
 18 21  1  0  0  0  0
 18 50  1  0  0  0  0
 18 51  1  0  0  0  0
 19 23  2  0  0  0  0
 19 24  1  0  0  0  0
 20 22  1  0  0  0  0
 21 52  1  0  0  0  0
 21 53  1  0  0  0  0
 21 54  1  0  0  0  0
 22 25  1  0  0  0  0
 22 27  2  0  0  0  0
 23 28  1  0  0  0  0
 23 55  1  0  0  0  0
 24 29  2  0  0  0  0
 24 56  1  0  0  0  0
 25 26  2  0  0  0  0
 25 30  1  0  0  0  0
 26 31  1  0  0  0  0
 27 57  1  0  0  0  0
 28 32  2  0  0  0  0
 28 59  1  0  0  0  0
 29 32  1  0  0  0  0
 29 60  1  0  0  0  0
 30 33  2  0  0  0  0
 30 61  1  0  0  0  0
 31 34  2  0  0  0  0
 31 35  1  0  0  0  0
 32 62  1  0  0  0  0
 33 34  1  0  0  0  0
 33 63  1  0  0  0  0
 34 64  1  0  0  0  0
 36 65  1  0  0  0  0
 36 66  1  0  0  0  0
 36 67  1  0  0  0  0
M  END
> <PUBCHEM_COMPOUND_CID>
506327
> <PUBCHEM_COMPOUND_CANONICALIZED>
1
> <PUBCHEM_CACTVS_COMPLEXITY>
811
> <PUBCHEM_CACTVS_HBOND_ACCEPTOR>
5
> <PUBCHEM_CACTVS_HBOND_DONOR>
1
> <PUBCHEM_CACTVS_ROTATABLE_BOND>
9
> <PUBCHEM_CACTVS_SUBSKEYS>
AAADceB7OAAAAAAAAAAAAAAAAAAAAWAAAAA8YIAAAAAAAFgB9AAAHgAQAAAADCzBngY+yPPJlACoA7X3XACCgCA1ACAI2aGoTNgIZvrAtbmUMYhmxgHI6cecyfCegAACAAACAAAAAAQAAAQAAAAAAAAAAA==
> <PUBCHEM_IUPAC_OPENEYE_NAME>
methyl 3-[2-(4-benzoyl-3-pentyl-piperazin-1-yl)-2-oxo-acetyl]-1H-indole-7-carboxylate
> <PUBCHEM_IUPAC_CAS_NAME>
3-[2-(4-benzoyl-3-pentyl-1-piperazinyl)-1,2-dioxoethyl]-1H-indole-7-carboxylic acid methyl ester
> <PUBCHEM_IUPAC_NAME_MARKUP>
methyl 3-[2-(4-benzoyl-3-pentylpiperazin-1-yl)-2-oxoacetyl]-1<I>H</I>-indole-7-carboxylate
> <PUBCHEM_IUPAC_NAME>
methyl 3-[2-(4-benzoyl-3-pentylpiperazin-1-yl)-2-oxoacetyl]-1H-indole-7-carboxylate
> <PUBCHEM_IUPAC_SYSTEMATIC_NAME>
methyl 3-[2-oxidanylidene-2-[3-pentyl-4-(phenylcarbonyl)piperazin-1-yl]ethanoyl]-1H-indole-7-carboxylate
> <PUBCHEM_IUPAC_TRADITIONAL_NAME>
3-[2-(3-amyl-4-benzoyl-piperazino)-2-keto-acetyl]-1H-indole-7-carboxylic acid methyl ester
> <PUBCHEM_IUPAC_INCHI>
InChI=1S/C28H31N3O5/c1-3-4-6-12-20-18-30(15-16-31(20)26(33)19-10-7-5-8-11-19)27(34)25(32)23-17-29-24-21(23)13-9-14-22(24)28(35)36-2/h5,7-11,13-14,17,20,29H,3-4,6,12,15-16,18H2,1-2H3
> <PUBCHEM_IUPAC_INCHIKEY>
WPXMOGVXMGPVEU-UHFFFAOYSA-N
> <PUBCHEM_XLOGP3_AA>
4.6
> <PUBCHEM_EXACT_MASS>
489.22637110
> <PUBCHEM_MOLECULAR_FORMULA>
C28H31N3O5
> <PUBCHEM_MOLECULAR_WEIGHT>
489.6
> <PUBCHEM_OPENEYE_CAN_SMILES>
CCCCCC1CN(CCN1C(=O)C2=CC=CC=C2)C(=O)C(=O)C3=CNC4=C3C=CC=C4C(=O)OC
> <PUBCHEM_OPENEYE_ISO_SMILES>
CCCCCC1CN(CCN1C(=O)C2=CC=CC=C2)C(=O)C(=O)C3=CNC4=C3C=CC=C4C(=O)OC
> <PUBCHEM_CACTVS_TPSA>
99.8
> <PUBCHEM_MONOISOTOPIC_WEIGHT>
489.22637110
> <PUBCHEM_TOTAL_CHARGE>
0
> <PUBCHEM_HEAVY_ATOM_COUNT>
36
> <PUBCHEM_ATOM_DEF_STEREO_COUNT>
0
> <PUBCHEM_ATOM_UDEF_STEREO_COUNT>
1
> <PUBCHEM_BOND_DEF_STEREO_COUNT>
0
> <PUBCHEM_BOND_UDEF_STEREO_COUNT>
0
> <PUBCHEM_ISOTOPIC_ATOM_COUNT>
0
> <PUBCHEM_COMPONENT_COUNT>
1
> <PUBCHEM_CACTVS_TAUTO_COUNT>
-1
> <PUBCHEM_COORDINATE_TYPE>
1
5
255
> <PUBCHEM_BONDANNOTATIONS>
19  23  8
19  24  8
22  25  8
22  27  8
23  28  8
24  29  8
25  26  8
25  30  8
26  31  8
28  32  8
29  32  8
30  33  8
31  34  8
33  34  8
8  26  8
8  27  8
9  11  3
$$$$
