506399
  -OEChem-10302200282D
 48 51  0     1  0  0  0  0  0999 V2000
    2.0000   -1.8662    0.0000 F   0  0  0  0  0  0  0  0  0  0  0  0
    7.5013   -1.6491    0.0000 O   0  0  0  0  0  0  0  0  0  0  0  0
    7.4083    3.6416    0.0000 O   0  0  0  0  0  0  0  0  0  0  0  0
    5.1871   -0.3667    0.0000 O   0  0  0  0  0  0  0  0  0  0  0  0
    7.1441    0.0458    0.0000 N   0  0  0  0  0  0  0  0  0  0  0  0
    7.7654    1.9468    0.0000 N   0  0  0  0  0  0  0  0  0  0  0  0
    5.5443   -3.6710    0.0000 N   0  0  0  0  0  0  0  0  0  0  0  0
    9.3653    4.0541    0.0000 N   0  0  0  0  0  0  0  0  0  0  0  0
    8.1226    0.2520    0.0000 C   0  0  1  0  0  0  0  0  0  0  0  0
    8.4333    1.2025    0.0000 C   0  0  0  0  0  0  0  0  0  0  0  0
    6.4763    0.7901    0.0000 C   0  0  0  0  0  0  0  0  0  0  0  0
    6.7870    1.7406    0.0000 C   0  0  0  0  0  0  0  0  0  0  0  0
    8.7905   -0.4923    0.0000 C   0  0  0  0  0  0  0  0  0  0  0  0
    6.8335   -0.9048    0.0000 C   0  0  0  0  0  0  0  0  0  0  0  0
    8.0761    2.8973    0.0000 C   0  0  0  0  0  0  0  0  0  0  0  0
    5.8550   -1.1110    0.0000 C   0  0  0  0  0  0  0  0  0  0  0  0
    5.5443   -2.0615    0.0000 C   0  0  0  0  0  0  0  0  0  0  0  0
    9.0546    3.1035    0.0000 C   0  0  0  0  0  0  0  0  0  0  0  0
    4.5981   -2.3662    0.0000 C   0  0  0  0  0  0  0  0  0  0  0  0
    4.5981   -3.3662    0.0000 C   0  0  0  0  0  0  0  0  0  0  0  0
    6.1279   -2.8662    0.0000 C   0  0  0  0  0  0  0  0  0  0  0  0
    9.7225    2.3592    0.0000 C   0  0  0  0  0  0  0  0  0  0  0  0
    3.7320   -1.8662    0.0000 C   0  0  0  0  0  0  0  0  0  0  0  0
    3.7320   -3.8662    0.0000 C   0  0  0  0  0  0  0  0  0  0  0  0
    2.8660   -2.3662    0.0000 C   0  0  0  0  0  0  0  0  0  0  0  0
    2.8660   -3.3662    0.0000 C   0  0  0  0  0  0  0  0  0  0  0  0
   10.7010    2.5655    0.0000 C   0  0  0  0  0  0  0  0  0  0  0  0
   10.3438    4.2603    0.0000 C   0  0  0  0  0  0  0  0  0  0  0  0
   11.0116    3.5160    0.0000 C   0  0  0  0  0  0  0  0  0  0  0  0
    7.9300   -0.3373    0.0000 H   0  0  0  0  0  0  0  0  0  0  0  0
    8.9802    0.9105    0.0000 H   0  0  0  0  0  0  0  0  0  0  0  0
    8.8158    1.6904    0.0000 H   0  0  0  0  0  0  0  0  0  0  0  0
    5.9294    1.0821    0.0000 H   0  0  0  0  0  0  0  0  0  0  0  0
    6.0937    0.3022    0.0000 H   0  0  0  0  0  0  0  0  0  0  0  0
    6.7664    2.3602    0.0000 H   0  0  0  0  0  0  0  0  0  0  0  0
    6.1731    1.8279    0.0000 H   0  0  0  0  0  0  0  0  0  0  0  0
    8.3290   -0.9064    0.0000 H   0  0  0  0  0  0  0  0  0  0  0  0
    9.2045   -0.9538    0.0000 H   0  0  0  0  0  0  0  0  0  0  0  0
    9.2519   -0.0783    0.0000 H   0  0  0  0  0  0  0  0  0  0  0  0
    6.7479   -2.8662    0.0000 H   0  0  0  0  0  0  0  0  0  0  0  0
    5.7369   -4.2603    0.0000 H   0  0  0  0  0  0  0  0  0  0  0  0
    3.7320   -1.2462    0.0000 H   0  0  0  0  0  0  0  0  0  0  0  0
    9.5298    1.7699    0.0000 H   0  0  0  0  0  0  0  0  0  0  0  0
    3.7320   -4.4862    0.0000 H   0  0  0  0  0  0  0  0  0  0  0  0
    2.3291   -3.6762    0.0000 H   0  0  0  0  0  0  0  0  0  0  0  0
   11.1150    2.1040    0.0000 H   0  0  0  0  0  0  0  0  0  0  0  0
   10.5364    4.8496    0.0000 H   0  0  0  0  0  0  0  0  0  0  0  0
   11.6183    3.6438    0.0000 H   0  0  0  0  0  0  0  0  0  0  0  0
  1 25  1  0  0  0  0
  2 14  2  0  0  0  0
  3 15  2  0  0  0  0
  4 16  2  0  0  0  0
  5  9  1  0  0  0  0
  5 11  1  0  0  0  0
  5 14  1  0  0  0  0
  6 10  1  0  0  0  0
  6 12  1  0  0  0  0
  6 15  1  0  0  0  0
  7 20  1  0  0  0  0
  7 21  1  0  0  0  0
  7 41  1  0  0  0  0
  8 18  1  0  0  0  0
  8 28  2  0  0  0  0
  9 10  1  0  0  0  0
  9 13  1  1  0  0  0
  9 30  1  0  0  0  0
 10 31  1  0  0  0  0
 10 32  1  0  0  0  0
 11 12  1  0  0  0  0
 11 33  1  0  0  0  0
 11 34  1  0  0  0  0
 12 35  1  0  0  0  0
 12 36  1  0  0  0  0
 13 37  1  0  0  0  0
 13 38  1  0  0  0  0
 13 39  1  0  0  0  0
 14 16  1  0  0  0  0
 15 18  1  0  0  0  0
 16 17  1  0  0  0  0
 17 19  1  0  0  0  0
 17 21  2  0  0  0  0
 18 22  2  0  0  0  0
 19 20  2  0  0  0  0
 19 23  1  0  0  0  0
 20 24  1  0  0  0  0
 21 40  1  0  0  0  0
 22 27  1  0  0  0  0
 22 43  1  0  0  0  0
 23 25  2  0  0  0  0
 23 42  1  0  0  0  0
 24 26  2  0  0  0  0
 24 44  1  0  0  0  0
 25 26  1  0  0  0  0
 26 45  1  0  0  0  0
 27 29  2  0  0  0  0
 27 46  1  0  0  0  0
 28 29  1  0  0  0  0
 28 47  1  0  0  0  0
 29 48  1  0  0  0  0
M  END
> <PUBCHEM_COMPOUND_CID>
506399
> <PUBCHEM_COMPOUND_CANONICALIZED>
1
> <PUBCHEM_CACTVS_COMPLEXITY>
660
> <PUBCHEM_CACTVS_HBOND_ACCEPTOR>
5
> <PUBCHEM_CACTVS_HBOND_DONOR>
1
> <PUBCHEM_CACTVS_ROTATABLE_BOND>
3
> <PUBCHEM_CACTVS_SUBSKEYS>
AAADceB7sQAAAAAAAAAAAAAAAAAAAWAAAAA8WIAAAAAAAFgB/AAAHwAQAAAADCzBngw+wPPJkACoA7V3VACCgCA3AiAI2aG4ZNgIYPrAlbGUIYhglgDIycccicCegAAAAAACAAAAAAAAAAQAAAAAAAAAAA==
> <PUBCHEM_IUPAC_OPENEYE_NAME>
1-(5-fluoro-1H-indol-3-yl)-2-[(2R)-2-methyl-4-(pyridine-2-carbonyl)piperazin-1-yl]ethane-1,2-dione
> <PUBCHEM_IUPAC_CAS_NAME>
1-(5-fluoro-1H-indol-3-yl)-2-[(2R)-2-methyl-4-[oxo(2-pyridinyl)methyl]-1-piperazinyl]ethane-1,2-dione
> <PUBCHEM_IUPAC_NAME_MARKUP>
1-(5-fluoro-1<I>H</I>-indol-3-yl)-2-[(2<I>R</I>)-2-methyl-4-(pyridine-2-carbonyl)piperazin-1-yl]ethane-1,2-dione
> <PUBCHEM_IUPAC_NAME>
1-(5-fluoro-1H-indol-3-yl)-2-[(2R)-2-methyl-4-(pyridine-2-carbonyl)piperazin-1-yl]ethane-1,2-dione
> <PUBCHEM_IUPAC_SYSTEMATIC_NAME>
1-(5-fluoranyl-1H-indol-3-yl)-2-[(2R)-2-methyl-4-pyridin-2-ylcarbonyl-piperazin-1-yl]ethane-1,2-dione
> <PUBCHEM_IUPAC_TRADITIONAL_NAME>
1-(5-fluoro-1H-indol-3-yl)-2-[(2R)-2-methyl-4-picolinoyl-piperazino]ethane-1,2-dione
> <PUBCHEM_IUPAC_INCHI>
InChI=1S/C21H19FN4O3/c1-13-12-25(20(28)18-4-2-3-7-23-18)8-9-26(13)21(29)19(27)16-11-24-17-6-5-14(22)10-15(16)17/h2-7,10-11,13,24H,8-9,12H2,1H3/t13-/m1/s1
> <PUBCHEM_IUPAC_INCHIKEY>
FXLKXFOWDJOUAL-CYBMUJFWSA-N
> <PUBCHEM_XLOGP3_AA>
2.1
> <PUBCHEM_EXACT_MASS>
394.14411864
> <PUBCHEM_MOLECULAR_FORMULA>
C21H19FN4O3
> <PUBCHEM_MOLECULAR_WEIGHT>
394.4
> <PUBCHEM_OPENEYE_CAN_SMILES>
CC1CN(CCN1C(=O)C(=O)C2=CNC3=C2C=C(C=C3)F)C(=O)C4=CC=CC=N4
> <PUBCHEM_OPENEYE_ISO_SMILES>
C[C@@H]1CN(CCN1C(=O)C(=O)C2=CNC3=C2C=C(C=C3)F)C(=O)C4=CC=CC=N4
> <PUBCHEM_CACTVS_TPSA>
86.4
> <PUBCHEM_MONOISOTOPIC_WEIGHT>
394.14411864
> <PUBCHEM_TOTAL_CHARGE>
0
> <PUBCHEM_HEAVY_ATOM_COUNT>
29
> <PUBCHEM_ATOM_DEF_STEREO_COUNT>
1
> <PUBCHEM_ATOM_UDEF_STEREO_COUNT>
0
> <PUBCHEM_BOND_DEF_STEREO_COUNT>
0
> <PUBCHEM_BOND_UDEF_STEREO_COUNT>
0
> <PUBCHEM_ISOTOPIC_ATOM_COUNT>
0
> <PUBCHEM_COMPONENT_COUNT>
1
> <PUBCHEM_CACTVS_TAUTO_COUNT>
-1
> <PUBCHEM_COORDINATE_TYPE>
1
5
255
> <PUBCHEM_BONDANNOTATIONS>
17  19  8
17  21  8
18  22  8
19  20  8
19  23  8
20  24  8
22  27  8
23  25  8
24  26  8
25  26  8
27  29  8
28  29  8
7  20  8
7  21  8
8  18  8
8  28  8
9  13  5
$$$$
