506392
  -OEChem-10302200282D
 51 54  0     1  0  0  0  0  0999 V2000
    2.8660   -0.5633    0.0000 F   0  0  0  0  0  0  0  0  0  0  0  0
    6.6353   -1.3461    0.0000 O   0  0  0  0  0  0  0  0  0  0  0  0
    6.5422    3.9446    0.0000 O   0  0  0  0  0  0  0  0  0  0  0  0
    4.3211   -0.0637    0.0000 O   0  0  0  0  0  0  0  0  0  0  0  0
    6.2781    0.3487    0.0000 N   0  0  0  0  0  0  0  0  0  0  0  0
    6.8994    2.2498    0.0000 N   0  0  0  0  0  0  0  0  0  0  0  0
    4.6783   -3.3680    0.0000 N   0  0  0  0  0  0  0  0  0  0  0  0
    8.4993    4.3570    0.0000 N   0  0  0  0  0  0  0  0  0  0  0  0
    5.6103    1.0930    0.0000 C   0  0  1  0  0  0  0  0  0  0  0  0
    5.9209    2.0436    0.0000 C   0  0  0  0  0  0  0  0  0  0  0  0
    7.2566    0.5550    0.0000 C   0  0  0  0  0  0  0  0  0  0  0  0
    7.5673    1.5055    0.0000 C   0  0  0  0  0  0  0  0  0  0  0  0
    4.6318    0.8868    0.0000 C   0  0  0  0  0  0  0  0  0  0  0  0
    5.9674   -0.6018    0.0000 C   0  0  0  0  0  0  0  0  0  0  0  0
    7.2101    3.2003    0.0000 C   0  0  0  0  0  0  0  0  0  0  0  0
    4.9889   -0.8080    0.0000 C   0  0  0  0  0  0  0  0  0  0  0  0
    4.6783   -1.7585    0.0000 C   0  0  0  0  0  0  0  0  0  0  0  0
    3.7320   -2.0633    0.0000 C   0  0  0  0  0  0  0  0  0  0  0  0
    8.1886    3.4065    0.0000 C   0  0  0  0  0  0  0  0  0  0  0  0
    3.7320   -3.0633    0.0000 C   0  0  0  0  0  0  0  0  0  0  0  0
    5.2619   -2.5633    0.0000 C   0  0  0  0  0  0  0  0  0  0  0  0
    2.8660   -3.5633    0.0000 C   0  0  0  0  0  0  0  0  0  0  0  0
    2.8660   -1.5633    0.0000 C   0  0  0  0  0  0  0  0  0  0  0  0
    8.8564    2.6622    0.0000 C   0  0  0  0  0  0  0  0  0  0  0  0
    2.0000   -3.0633    0.0000 C   0  0  0  0  0  0  0  0  0  0  0  0
    2.0000   -2.0633    0.0000 C   0  0  0  0  0  0  0  0  0  0  0  0
    2.8660   -4.5633    0.0000 C   0  0  0  0  0  0  0  0  0  0  0  0
    9.8349    2.8684    0.0000 C   0  0  0  0  0  0  0  0  0  0  0  0
    9.4778    4.5633    0.0000 C   0  0  0  0  0  0  0  0  0  0  0  0
   10.1456    3.8190    0.0000 C   0  0  0  0  0  0  0  0  0  0  0  0
    5.4176    0.5037    0.0000 H   0  0  0  0  0  0  0  0  0  0  0  0
    5.9004    2.6632    0.0000 H   0  0  0  0  0  0  0  0  0  0  0  0
    5.3071    2.1309    0.0000 H   0  0  0  0  0  0  0  0  0  0  0  0
    7.2772   -0.0647    0.0000 H   0  0  0  0  0  0  0  0  0  0  0  0
    7.8704    0.4676    0.0000 H   0  0  0  0  0  0  0  0  0  0  0  0
    8.1142    1.2135    0.0000 H   0  0  0  0  0  0  0  0  0  0  0  0
    7.9498    1.9934    0.0000 H   0  0  0  0  0  0  0  0  0  0  0  0
    4.5039    1.4935    0.0000 H   0  0  0  0  0  0  0  0  0  0  0  0
    4.0251    0.7590    0.0000 H   0  0  0  0  0  0  0  0  0  0  0  0
    4.7596    0.2801    0.0000 H   0  0  0  0  0  0  0  0  0  0  0  0
    5.8819   -2.5633    0.0000 H   0  0  0  0  0  0  0  0  0  0  0  0
    4.8709   -3.9573    0.0000 H   0  0  0  0  0  0  0  0  0  0  0  0
    8.6638    2.0729    0.0000 H   0  0  0  0  0  0  0  0  0  0  0  0
    1.4631   -3.3733    0.0000 H   0  0  0  0  0  0  0  0  0  0  0  0
    1.4631   -1.7533    0.0000 H   0  0  0  0  0  0  0  0  0  0  0  0
    2.2460   -4.5633    0.0000 H   0  0  0  0  0  0  0  0  0  0  0  0
    2.8660   -5.1833    0.0000 H   0  0  0  0  0  0  0  0  0  0  0  0
    3.4860   -4.5633    0.0000 H   0  0  0  0  0  0  0  0  0  0  0  0
   10.2490    2.4070    0.0000 H   0  0  0  0  0  0  0  0  0  0  0  0
    9.6704    5.1526    0.0000 H   0  0  0  0  0  0  0  0  0  0  0  0
   10.7523    3.9468    0.0000 H   0  0  0  0  0  0  0  0  0  0  0  0
  1 23  1  0  0  0  0
  2 14  2  0  0  0  0
  3 15  2  0  0  0  0
  4 16  2  0  0  0  0
  5  9  1  0  0  0  0
  5 11  1  0  0  0  0
  5 14  1  0  0  0  0
  6 10  1  0  0  0  0
  6 12  1  0  0  0  0
  6 15  1  0  0  0  0
  7 20  1  0  0  0  0
  7 21  1  0  0  0  0
  7 42  1  0  0  0  0
  8 19  1  0  0  0  0
  8 29  2  0  0  0  0
  9 10  1  0  0  0  0
  9 13  1  6  0  0  0
  9 31  1  0  0  0  0
 10 32  1  0  0  0  0
 10 33  1  0  0  0  0
 11 12  1  0  0  0  0
 11 34  1  0  0  0  0
 11 35  1  0  0  0  0
 12 36  1  0  0  0  0
 12 37  1  0  0  0  0
 13 38  1  0  0  0  0
 13 39  1  0  0  0  0
 13 40  1  0  0  0  0
 14 16  1  0  0  0  0
 15 19  1  0  0  0  0
 16 17  1  0  0  0  0
 17 18  1  0  0  0  0
 17 21  2  0  0  0  0
 18 20  1  0  0  0  0
 18 23  2  0  0  0  0
 19 24  2  0  0  0  0
 20 22  2  0  0  0  0
 21 41  1  0  0  0  0
 22 25  1  0  0  0  0
 22 27  1  0  0  0  0
 23 26  1  0  0  0  0
 24 28  1  0  0  0  0
 24 43  1  0  0  0  0
 25 26  2  0  0  0  0
 25 44  1  0  0  0  0
 26 45  1  0  0  0  0
 27 46  1  0  0  0  0
 27 47  1  0  0  0  0
 27 48  1  0  0  0  0
 28 30  2  0  0  0  0
 28 49  1  0  0  0  0
 29 30  1  0  0  0  0
 29 50  1  0  0  0  0
 30 51  1  0  0  0  0
M  END
> <PUBCHEM_COMPOUND_CID>
506392
> <PUBCHEM_COMPOUND_CANONICALIZED>
1
> <PUBCHEM_CACTVS_COMPLEXITY>
689
> <PUBCHEM_CACTVS_HBOND_ACCEPTOR>
5
> <PUBCHEM_CACTVS_HBOND_DONOR>
1
> <PUBCHEM_CACTVS_ROTATABLE_BOND>
3
> <PUBCHEM_CACTVS_SUBSKEYS>
AAADceB7sQAAAAAAAAAAAAAAAAAAAWAAAAA8WIAAAAAAAFgB/AAAHwAQAAAADCzBngw+wPPJkACoA7V3VACCgCA3AiAI2aG4ZNgIYPrAlbGUIYhghgDIycccicCegAACAAACAAAAAAQAAAQAAAAAAAAAAA==
> <PUBCHEM_IUPAC_OPENEYE_NAME>
1-(4-fluoro-7-methyl-1H-indol-3-yl)-2-[(2R)-2-methyl-4-(pyridine-2-carbonyl)piperazin-1-yl]ethane-1,2-dione
> <PUBCHEM_IUPAC_CAS_NAME>
1-(4-fluoro-7-methyl-1H-indol-3-yl)-2-[(2R)-2-methyl-4-[oxo(2-pyridinyl)methyl]-1-piperazinyl]ethane-1,2-dione
> <PUBCHEM_IUPAC_NAME_MARKUP>
1-(4-fluoro-7-methyl-1<I>H</I>-indol-3-yl)-2-[(2<I>R</I>)-2-methyl-4-(pyridine-2-carbonyl)piperazin-1-yl]ethane-1,2-dione
> <PUBCHEM_IUPAC_NAME>
1-(4-fluoro-7-methyl-1H-indol-3-yl)-2-[(2R)-2-methyl-4-(pyridine-2-carbonyl)piperazin-1-yl]ethane-1,2-dione
> <PUBCHEM_IUPAC_SYSTEMATIC_NAME>
1-(4-fluoranyl-7-methyl-1H-indol-3-yl)-2-[(2R)-2-methyl-4-pyridin-2-ylcarbonyl-piperazin-1-yl]ethane-1,2-dione
> <PUBCHEM_IUPAC_TRADITIONAL_NAME>
1-(4-fluoro-7-methyl-1H-indol-3-yl)-2-[(2R)-2-methyl-4-picolinoyl-piperazino]ethane-1,2-dione
> <PUBCHEM_IUPAC_INCHI>
InChI=1S/C22H21FN4O3/c1-13-6-7-16(23)18-15(11-25-19(13)18)20(28)22(30)27-10-9-26(12-14(27)2)21(29)17-5-3-4-8-24-17/h3-8,11,14,25H,9-10,12H2,1-2H3/t14-/m1/s1
> <PUBCHEM_IUPAC_INCHIKEY>
CQSGPABIWCXVTC-CQSZACIVSA-N
> <PUBCHEM_XLOGP3_AA>
2.5
> <PUBCHEM_EXACT_MASS>
408.15976871
> <PUBCHEM_MOLECULAR_FORMULA>
C22H21FN4O3
> <PUBCHEM_MOLECULAR_WEIGHT>
408.4
> <PUBCHEM_OPENEYE_CAN_SMILES>
CC1CN(CCN1C(=O)C(=O)C2=CNC3=C(C=CC(=C23)F)C)C(=O)C4=CC=CC=N4
> <PUBCHEM_OPENEYE_ISO_SMILES>
C[C@@H]1CN(CCN1C(=O)C(=O)C2=CNC3=C(C=CC(=C23)F)C)C(=O)C4=CC=CC=N4
> <PUBCHEM_CACTVS_TPSA>
86.4
> <PUBCHEM_MONOISOTOPIC_WEIGHT>
408.15976871
> <PUBCHEM_TOTAL_CHARGE>
0
> <PUBCHEM_HEAVY_ATOM_COUNT>
30
> <PUBCHEM_ATOM_DEF_STEREO_COUNT>
1
> <PUBCHEM_ATOM_UDEF_STEREO_COUNT>
0
> <PUBCHEM_BOND_DEF_STEREO_COUNT>
0
> <PUBCHEM_BOND_UDEF_STEREO_COUNT>
0
> <PUBCHEM_ISOTOPIC_ATOM_COUNT>
0
> <PUBCHEM_COMPONENT_COUNT>
1
> <PUBCHEM_CACTVS_TAUTO_COUNT>
-1
> <PUBCHEM_COORDINATE_TYPE>
1
5
255
> <PUBCHEM_BONDANNOTATIONS>
17  18  8
17  21  8
18  20  8
18  23  8
19  24  8
20  22  8
22  25  8
23  26  8
24  28  8
25  26  8
28  30  8
29  30  8
7  20  8
7  21  8
8  19  8
8  29  8
9  13  6
$$$$
