506393
  -OEChem-10302200282D
 46 49  0     1  0  0  0  0  0999 V2000
   10.2617    4.7592    0.0000 Br  0  0  0  0  0  0  0  0  0  0  0  0
    2.8660   -0.7592    0.0000 F   0  0  0  0  0  0  0  0  0  0  0  0
    2.8660   -4.7592    0.0000 F   0  0  0  0  0  0  0  0  0  0  0  0
    6.6353   -1.5420    0.0000 O   0  0  0  0  0  0  0  0  0  0  0  0
    6.5422    3.7487    0.0000 O   0  0  0  0  0  0  0  0  0  0  0  0
    8.5969    4.1234    0.0000 O   0  0  0  0  0  0  0  0  0  0  0  0
    4.3211   -0.2596    0.0000 O   0  0  0  0  0  0  0  0  0  0  0  0
    6.2781    0.1528    0.0000 N   0  0  0  0  0  0  0  0  0  0  0  0
    6.8994    2.0539    0.0000 N   0  0  0  0  0  0  0  0  0  0  0  0
    4.6783   -3.5639    0.0000 N   0  0  0  0  0  0  0  0  0  0  0  0
    5.6103    0.8971    0.0000 C   0  0  1  0  0  0  0  0  0  0  0  0
    5.9209    1.8476    0.0000 C   0  0  0  0  0  0  0  0  0  0  0  0
    7.2566    0.3590    0.0000 C   0  0  0  0  0  0  0  0  0  0  0  0
    7.5673    1.3096    0.0000 C   0  0  0  0  0  0  0  0  0  0  0  0
    4.6318    0.6909    0.0000 C   0  0  0  0  0  0  0  0  0  0  0  0
    5.9674   -0.7977    0.0000 C   0  0  0  0  0  0  0  0  0  0  0  0
    7.2101    3.0044    0.0000 C   0  0  0  0  0  0  0  0  0  0  0  0
    4.9889   -1.0039    0.0000 C   0  0  0  0  0  0  0  0  0  0  0  0
    4.6783   -1.9544    0.0000 C   0  0  0  0  0  0  0  0  0  0  0  0
    8.1886    3.2106    0.0000 C   0  0  0  0  0  0  0  0  0  0  0  0
    3.7320   -2.2592    0.0000 C   0  0  0  0  0  0  0  0  0  0  0  0
    3.7320   -3.2592    0.0000 C   0  0  0  0  0  0  0  0  0  0  0  0
    5.2619   -2.7592    0.0000 C   0  0  0  0  0  0  0  0  0  0  0  0
    8.9306    2.5402    0.0000 C   0  0  0  0  0  0  0  0  0  0  0  0
    2.8660   -1.7592    0.0000 C   0  0  0  0  0  0  0  0  0  0  0  0
    2.8660   -3.7592    0.0000 C   0  0  0  0  0  0  0  0  0  0  0  0
    2.0000   -2.2592    0.0000 C   0  0  0  0  0  0  0  0  0  0  0  0
    9.7975    3.0387    0.0000 C   0  0  0  0  0  0  0  0  0  0  0  0
    2.0000   -3.2592    0.0000 C   0  0  0  0  0  0  0  0  0  0  0  0
    9.5912    4.0172    0.0000 C   0  0  0  0  0  0  0  0  0  0  0  0
    5.4176    0.3078    0.0000 H   0  0  0  0  0  0  0  0  0  0  0  0
    5.9004    2.4673    0.0000 H   0  0  0  0  0  0  0  0  0  0  0  0
    5.3071    1.9350    0.0000 H   0  0  0  0  0  0  0  0  0  0  0  0
    7.2772   -0.2606    0.0000 H   0  0  0  0  0  0  0  0  0  0  0  0
    7.8704    0.2717    0.0000 H   0  0  0  0  0  0  0  0  0  0  0  0
    8.1142    1.0175    0.0000 H   0  0  0  0  0  0  0  0  0  0  0  0
    7.9498    1.7975    0.0000 H   0  0  0  0  0  0  0  0  0  0  0  0
    4.5039    1.2976    0.0000 H   0  0  0  0  0  0  0  0  0  0  0  0
    4.0251    0.5630    0.0000 H   0  0  0  0  0  0  0  0  0  0  0  0
    4.7596    0.0842    0.0000 H   0  0  0  0  0  0  0  0  0  0  0  0
    5.8819   -2.7592    0.0000 H   0  0  0  0  0  0  0  0  0  0  0  0
    4.8709   -4.1532    0.0000 H   0  0  0  0  0  0  0  0  0  0  0  0
    8.8647    1.9237    0.0000 H   0  0  0  0  0  0  0  0  0  0  0  0
    1.4631   -1.9492    0.0000 H   0  0  0  0  0  0  0  0  0  0  0  0
   10.3634    2.7855    0.0000 H   0  0  0  0  0  0  0  0  0  0  0  0
    1.4631   -3.5692    0.0000 H   0  0  0  0  0  0  0  0  0  0  0  0
  1 30  1  0  0  0  0
  2 25  1  0  0  0  0
  3 26  1  0  0  0  0
  4 16  2  0  0  0  0
  5 17  2  0  0  0  0
  6 20  1  0  0  0  0
  6 30  1  0  0  0  0
  7 18  2  0  0  0  0
  8 11  1  0  0  0  0
  8 13  1  0  0  0  0
  8 16  1  0  0  0  0
  9 12  1  0  0  0  0
  9 14  1  0  0  0  0
  9 17  1  0  0  0  0
 10 22  1  0  0  0  0
 10 23  1  0  0  0  0
 10 42  1  0  0  0  0
 11 12  1  0  0  0  0
 11 15  1  6  0  0  0
 11 31  1  0  0  0  0
 12 32  1  0  0  0  0
 12 33  1  0  0  0  0
 13 14  1  0  0  0  0
 13 34  1  0  0  0  0
 13 35  1  0  0  0  0
 14 36  1  0  0  0  0
 14 37  1  0  0  0  0
 15 38  1  0  0  0  0
 15 39  1  0  0  0  0
 15 40  1  0  0  0  0
 16 18  1  0  0  0  0
 17 20  1  0  0  0  0
 18 19  1  0  0  0  0
 19 21  1  0  0  0  0
 19 23  2  0  0  0  0
 20 24  2  0  0  0  0
 21 22  1  0  0  0  0
 21 25  2  0  0  0  0
 22 26  2  0  0  0  0
 23 41  1  0  0  0  0
 24 28  1  0  0  0  0
 24 43  1  0  0  0  0
 25 27  1  0  0  0  0
 26 29  1  0  0  0  0
 27 29  2  0  0  0  0
 27 44  1  0  0  0  0
 28 30  2  0  0  0  0
 28 45  1  0  0  0  0
 29 46  1  0  0  0  0
M  END
> <PUBCHEM_COMPOUND_CID>
506393
> <PUBCHEM_COMPOUND_CANONICALIZED>
1
> <PUBCHEM_CACTVS_COMPLEXITY>
714
> <PUBCHEM_CACTVS_HBOND_ACCEPTOR>
6
> <PUBCHEM_CACTVS_HBOND_DONOR>
1
> <PUBCHEM_CACTVS_ROTATABLE_BOND>
3
> <PUBCHEM_CACTVS_SUBSKEYS>
AAADceB7OYAAEAAAAAAAAAAAAAAAAWJAAAA8QAAAAAAAAFgB/AAAHwBQAAABLCzBngw+xPPJlECoA7V3VAKCiCA1ICQI2aHuTPgOZvrEtL+XOajkxhHY69ecn8KegAAAAAACAAAAAAAAAAQAAAAAAAAAAA==
> <PUBCHEM_IUPAC_OPENEYE_NAME>
1-[(2R)-4-(5-bromofuran-2-carbonyl)-2-methyl-piperazin-1-yl]-2-(4,7-difluoro-1H-indol-3-yl)ethane-1,2-dione
> <PUBCHEM_IUPAC_CAS_NAME>
1-[(2R)-4-[(5-bromo-2-furanyl)-oxomethyl]-2-methyl-1-piperazinyl]-2-(4,7-difluoro-1H-indol-3-yl)ethane-1,2-dione
> <PUBCHEM_IUPAC_NAME_MARKUP>
1-[(2<I>R</I>)-4-(5-bromofuran-2-carbonyl)-2-methylpiperazin-1-yl]-2-(4,7-difluoro-1<I>H</I>-indol-3-yl)ethane-1,2-dione
> <PUBCHEM_IUPAC_NAME>
1-[(2R)-4-(5-bromofuran-2-carbonyl)-2-methylpiperazin-1-yl]-2-(4,7-difluoro-1H-indol-3-yl)ethane-1,2-dione
> <PUBCHEM_IUPAC_SYSTEMATIC_NAME>
1-[4,7-bis(fluoranyl)-1H-indol-3-yl]-2-[(2R)-4-(5-bromanylfuran-2-yl)carbonyl-2-methyl-piperazin-1-yl]ethane-1,2-dione
> <PUBCHEM_IUPAC_TRADITIONAL_NAME>
1-[(2R)-4-(5-bromo-2-furoyl)-2-methyl-piperazino]-2-(4,7-difluoro-1H-indol-3-yl)ethane-1,2-dione
> <PUBCHEM_IUPAC_INCHI>
InChI=1S/C20H16BrF2N3O4/c1-10-9-25(19(28)14-4-5-15(21)30-14)6-7-26(10)20(29)18(27)11-8-24-17-13(23)3-2-12(22)16(11)17/h2-5,8,10,24H,6-7,9H2,1H3/t10-/m1/s1
> <PUBCHEM_IUPAC_INCHIKEY>
ACNNHPMSZIYCAG-SNVBAGLBSA-N
> <PUBCHEM_XLOGP3_AA>
3.4
> <PUBCHEM_EXACT_MASS>
479.02922
> <PUBCHEM_MOLECULAR_FORMULA>
C20H16BrF2N3O4
> <PUBCHEM_MOLECULAR_WEIGHT>
480.3
> <PUBCHEM_OPENEYE_CAN_SMILES>
CC1CN(CCN1C(=O)C(=O)C2=CNC3=C(C=CC(=C23)F)F)C(=O)C4=CC=C(O4)Br
> <PUBCHEM_OPENEYE_ISO_SMILES>
C[C@@H]1CN(CCN1C(=O)C(=O)C2=CNC3=C(C=CC(=C23)F)F)C(=O)C4=CC=C(O4)Br
> <PUBCHEM_CACTVS_TPSA>
86.6
> <PUBCHEM_MONOISOTOPIC_WEIGHT>
479.02922
> <PUBCHEM_TOTAL_CHARGE>
0
> <PUBCHEM_HEAVY_ATOM_COUNT>
30
> <PUBCHEM_ATOM_DEF_STEREO_COUNT>
1
> <PUBCHEM_ATOM_UDEF_STEREO_COUNT>
0
> <PUBCHEM_BOND_DEF_STEREO_COUNT>
0
> <PUBCHEM_BOND_UDEF_STEREO_COUNT>
0
> <PUBCHEM_ISOTOPIC_ATOM_COUNT>
0
> <PUBCHEM_COMPONENT_COUNT>
1
> <PUBCHEM_CACTVS_TAUTO_COUNT>
-1
> <PUBCHEM_COORDINATE_TYPE>
1
5
255
> <PUBCHEM_BONDANNOTATIONS>
10  22  8
10  23  8
11  15  6
19  21  8
19  23  8
20  24  8
21  22  8
21  25  8
22  26  8
24  28  8
25  27  8
26  29  8
27  29  8
28  30  8
6  20  8
6  30  8
$$$$
