506403
  -OEChem-10302200282D
 51 54  0     1  0  0  0  0  0999 V2000
    6.6353   -1.3461    0.0000 O   0  0  0  0  0  0  0  0  0  0  0  0
    6.5422    3.9446    0.0000 O   0  0  0  0  0  0  0  0  0  0  0  0
    4.3211   -0.0637    0.0000 O   0  0  0  0  0  0  0  0  0  0  0  0
    6.2781    0.3487    0.0000 N   0  0  0  0  0  0  0  0  0  0  0  0
    6.8994    2.2498    0.0000 N   0  0  0  0  0  0  0  0  0  0  0  0
    4.6783   -3.3680    0.0000 N   0  0  0  0  0  0  0  0  0  0  0  0
    8.8564    2.6622    0.0000 N   0  0  0  0  0  0  0  0  0  0  0  0
    7.2566    0.5550    0.0000 C   0  0  1  0  0  0  0  0  0  0  0  0
    7.5673    1.5055    0.0000 C   0  0  0  0  0  0  0  0  0  0  0  0
    5.6103    1.0930    0.0000 C   0  0  0  0  0  0  0  0  0  0  0  0
    5.9209    2.0436    0.0000 C   0  0  0  0  0  0  0  0  0  0  0  0
    7.9244   -0.1893    0.0000 C   0  0  0  0  0  0  0  0  0  0  0  0
    5.9674   -0.6018    0.0000 C   0  0  0  0  0  0  0  0  0  0  0  0
    7.2101    3.2003    0.0000 C   0  0  0  0  0  0  0  0  0  0  0  0
    4.9889   -0.8080    0.0000 C   0  0  0  0  0  0  0  0  0  0  0  0
    4.6783   -1.7585    0.0000 C   0  0  0  0  0  0  0  0  0  0  0  0
    3.7320   -2.0633    0.0000 C   0  0  0  0  0  0  0  0  0  0  0  0
    8.1886    3.4065    0.0000 C   0  0  0  0  0  0  0  0  0  0  0  0
    3.7320   -3.0633    0.0000 C   0  0  0  0  0  0  0  0  0  0  0  0
    5.2619   -2.5633    0.0000 C   0  0  0  0  0  0  0  0  0  0  0  0
    2.8660   -3.5633    0.0000 C   0  0  0  0  0  0  0  0  0  0  0  0
    2.8660   -1.5633    0.0000 C   0  0  0  0  0  0  0  0  0  0  0  0
    8.4993    4.3570    0.0000 C   0  0  0  0  0  0  0  0  0  0  0  0
    2.0000   -3.0633    0.0000 C   0  0  0  0  0  0  0  0  0  0  0  0
    2.0000   -2.0633    0.0000 C   0  0  0  0  0  0  0  0  0  0  0  0
    2.8660   -4.5633    0.0000 C   0  0  0  0  0  0  0  0  0  0  0  0
    9.4778    4.5633    0.0000 C   0  0  0  0  0  0  0  0  0  0  0  0
    9.8349    2.8684    0.0000 C   0  0  0  0  0  0  0  0  0  0  0  0
   10.1456    3.8190    0.0000 C   0  0  0  0  0  0  0  0  0  0  0  0
    7.0640   -0.0344    0.0000 H   0  0  0  0  0  0  0  0  0  0  0  0
    8.1142    1.2135    0.0000 H   0  0  0  0  0  0  0  0  0  0  0  0
    7.9498    1.9934    0.0000 H   0  0  0  0  0  0  0  0  0  0  0  0
    5.0633    1.3851    0.0000 H   0  0  0  0  0  0  0  0  0  0  0  0
    5.2277    0.6051    0.0000 H   0  0  0  0  0  0  0  0  0  0  0  0
    5.9004    2.6632    0.0000 H   0  0  0  0  0  0  0  0  0  0  0  0
    5.3071    2.1309    0.0000 H   0  0  0  0  0  0  0  0  0  0  0  0
    7.4630   -0.6034    0.0000 H   0  0  0  0  0  0  0  0  0  0  0  0
    8.3385   -0.6508    0.0000 H   0  0  0  0  0  0  0  0  0  0  0  0
    8.3859    0.2247    0.0000 H   0  0  0  0  0  0  0  0  0  0  0  0
    5.8819   -2.5633    0.0000 H   0  0  0  0  0  0  0  0  0  0  0  0
    4.8709   -3.9573    0.0000 H   0  0  0  0  0  0  0  0  0  0  0  0
    2.8660   -0.9433    0.0000 H   0  0  0  0  0  0  0  0  0  0  0  0
    8.0852    4.8185    0.0000 H   0  0  0  0  0  0  0  0  0  0  0  0
    1.4631   -3.3733    0.0000 H   0  0  0  0  0  0  0  0  0  0  0  0
    1.4631   -1.7533    0.0000 H   0  0  0  0  0  0  0  0  0  0  0  0
    2.2460   -4.5633    0.0000 H   0  0  0  0  0  0  0  0  0  0  0  0
    2.8660   -5.1833    0.0000 H   0  0  0  0  0  0  0  0  0  0  0  0
    3.4860   -4.5633    0.0000 H   0  0  0  0  0  0  0  0  0  0  0  0
    9.6704    5.1526    0.0000 H   0  0  0  0  0  0  0  0  0  0  0  0
   10.2490    2.4070    0.0000 H   0  0  0  0  0  0  0  0  0  0  0  0
   10.7523    3.9468    0.0000 H   0  0  0  0  0  0  0  0  0  0  0  0
  1 13  2  0  0  0  0
  2 14  2  0  0  0  0
  3 15  2  0  0  0  0
  4  8  1  0  0  0  0
  4 10  1  0  0  0  0
  4 13  1  0  0  0  0
  5  9  1  0  0  0  0
  5 11  1  0  0  0  0
  5 14  1  0  0  0  0
  6 19  1  0  0  0  0
  6 20  1  0  0  0  0
  6 41  1  0  0  0  0
  7 18  1  0  0  0  0
  7 28  2  0  0  0  0
  8  9  1  0  0  0  0
  8 12  1  1  0  0  0
  8 30  1  0  0  0  0
  9 31  1  0  0  0  0
  9 32  1  0  0  0  0
 10 11  1  0  0  0  0
 10 33  1  0  0  0  0
 10 34  1  0  0  0  0
 11 35  1  0  0  0  0
 11 36  1  0  0  0  0
 12 37  1  0  0  0  0
 12 38  1  0  0  0  0
 12 39  1  0  0  0  0
 13 15  1  0  0  0  0
 14 18  1  0  0  0  0
 15 16  1  0  0  0  0
 16 17  1  0  0  0  0
 16 20  2  0  0  0  0
 17 19  1  0  0  0  0
 17 22  2  0  0  0  0
 18 23  2  0  0  0  0
 19 21  2  0  0  0  0
 20 40  1  0  0  0  0
 21 24  1  0  0  0  0
 21 26  1  0  0  0  0
 22 25  1  0  0  0  0
 22 42  1  0  0  0  0
 23 27  1  0  0  0  0
 23 43  1  0  0  0  0
 24 25  2  0  0  0  0
 24 44  1  0  0  0  0
 25 45  1  0  0  0  0
 26 46  1  0  0  0  0
 26 47  1  0  0  0  0
 26 48  1  0  0  0  0
 27 29  2  0  0  0  0
 27 49  1  0  0  0  0
 28 29  1  0  0  0  0
 28 50  1  0  0  0  0
 29 51  1  0  0  0  0
M  END
> <PUBCHEM_COMPOUND_CID>
506403
> <PUBCHEM_COMPOUND_CANONICALIZED>
1
> <PUBCHEM_CACTVS_COMPLEXITY>
654
> <PUBCHEM_CACTVS_HBOND_ACCEPTOR>
4
> <PUBCHEM_CACTVS_HBOND_DONOR>
1
> <PUBCHEM_CACTVS_ROTATABLE_BOND>
3
> <PUBCHEM_CACTVS_SUBSKEYS>
AAADceB7sAAAAAAAAAAAAAAAAAAAAWAAAAA8WIAAAAAAAFgB/AAAHgAQAAAADCzBngQ+wPPJkACoA7V3VACCgCA3AiAI2aG4ZNgIYPrAlbGUIYhghgDIycccicCegAACAAACAAAAAAQAAAQAAAAAAAAAAA==
> <PUBCHEM_IUPAC_OPENEYE_NAME>
1-(7-methyl-1H-indol-3-yl)-2-[(2R)-2-methyl-4-(pyridine-2-carbonyl)piperazin-1-yl]ethane-1,2-dione
> <PUBCHEM_IUPAC_CAS_NAME>
1-(7-methyl-1H-indol-3-yl)-2-[(2R)-2-methyl-4-[oxo(2-pyridinyl)methyl]-1-piperazinyl]ethane-1,2-dione
> <PUBCHEM_IUPAC_NAME_MARKUP>
1-(7-methyl-1<I>H</I>-indol-3-yl)-2-[(2<I>R</I>)-2-methyl-4-(pyridine-2-carbonyl)piperazin-1-yl]ethane-1,2-dione
> <PUBCHEM_IUPAC_NAME>
1-(7-methyl-1H-indol-3-yl)-2-[(2R)-2-methyl-4-(pyridine-2-carbonyl)piperazin-1-yl]ethane-1,2-dione
> <PUBCHEM_IUPAC_SYSTEMATIC_NAME>
1-(7-methyl-1H-indol-3-yl)-2-[(2R)-2-methyl-4-pyridin-2-ylcarbonyl-piperazin-1-yl]ethane-1,2-dione
> <PUBCHEM_IUPAC_TRADITIONAL_NAME>
1-(7-methyl-1H-indol-3-yl)-2-[(2R)-2-methyl-4-picolinoyl-piperazino]ethane-1,2-dione
> <PUBCHEM_IUPAC_INCHI>
InChI=1S/C22H22N4O3/c1-14-6-5-7-16-17(12-24-19(14)16)20(27)22(29)26-11-10-25(13-15(26)2)21(28)18-8-3-4-9-23-18/h3-9,12,15,24H,10-11,13H2,1-2H3/t15-/m1/s1
> <PUBCHEM_IUPAC_INCHIKEY>
YDEDIFJFXWUCSI-OAHLLOKOSA-N
> <PUBCHEM_XLOGP3_AA>
2.4
> <PUBCHEM_EXACT_MASS>
390.16919058
> <PUBCHEM_MOLECULAR_FORMULA>
C22H22N4O3
> <PUBCHEM_MOLECULAR_WEIGHT>
390.4
> <PUBCHEM_OPENEYE_CAN_SMILES>
CC1CN(CCN1C(=O)C(=O)C2=CNC3=C(C=CC=C23)C)C(=O)C4=CC=CC=N4
> <PUBCHEM_OPENEYE_ISO_SMILES>
C[C@@H]1CN(CCN1C(=O)C(=O)C2=CNC3=C(C=CC=C23)C)C(=O)C4=CC=CC=N4
> <PUBCHEM_CACTVS_TPSA>
86.4
> <PUBCHEM_MONOISOTOPIC_WEIGHT>
390.16919058
> <PUBCHEM_TOTAL_CHARGE>
0
> <PUBCHEM_HEAVY_ATOM_COUNT>
29
> <PUBCHEM_ATOM_DEF_STEREO_COUNT>
1
> <PUBCHEM_ATOM_UDEF_STEREO_COUNT>
0
> <PUBCHEM_BOND_DEF_STEREO_COUNT>
0
> <PUBCHEM_BOND_UDEF_STEREO_COUNT>
0
> <PUBCHEM_ISOTOPIC_ATOM_COUNT>
0
> <PUBCHEM_COMPONENT_COUNT>
1
> <PUBCHEM_CACTVS_TAUTO_COUNT>
-1
> <PUBCHEM_COORDINATE_TYPE>
1
5
255
> <PUBCHEM_BONDANNOTATIONS>
16  17  8
16  20  8
17  19  8
17  22  8
18  23  8
19  21  8
21  24  8
22  25  8
23  27  8
24  25  8
27  29  8
28  29  8
6  19  8
6  20  8
7  18  8
7  28  8
8  12  5
$$$$
