506553
  -OEChem-10302200282D
 29 30  0     1  0  0  0  0  0999 V2000
    3.2601    1.9081    0.0000 O   0  0  0  0  0  0  0  0  0  0  0  0
    2.0000    0.6481    0.0000 O   0  0  0  0  0  0  0  0  0  0  0  0
    4.2601    1.9081    0.0000 C   0  0  3  0  0  0  0  0  0  0  0  0
    4.8479    2.7172    0.0000 C   0  0  0  0  0  0  0  0  0  0  0  0
    3.7601    0.3693    0.0000 C   0  0  0  0  0  0  0  0  0  0  0  0
    4.5691    0.9571    0.0000 C   0  0  0  0  0  0  0  0  0  0  0  0
    3.7601   -0.6307    0.0000 C   0  0  0  0  0  0  0  0  0  0  0  0
    2.9511    0.9571    0.0000 C   0  0  0  0  0  0  0  0  0  0  0  0
    4.4411    3.6307    0.0000 C   0  0  0  0  0  0  0  0  0  0  0  0
    4.6261   -1.1307    0.0000 C   0  0  0  0  0  0  0  0  0  0  0  0
    2.8940   -1.1307    0.0000 C   0  0  0  0  0  0  0  0  0  0  0  0
    3.7601   -2.6307    0.0000 C   0  0  0  0  0  0  0  0  0  0  0  0
    4.6261   -2.1307    0.0000 C   0  0  0  0  0  0  0  0  0  0  0  0
    2.8940   -2.1307    0.0000 C   0  0  0  0  0  0  0  0  0  0  0  0
    3.7601   -3.6307    0.0000 C   0  0  0  0  0  0  0  0  0  0  0  0
    3.9786    2.4606    0.0000 H   0  0  0  0  0  0  0  0  0  0  0  0
    5.2786    2.2712    0.0000 H   0  0  0  0  0  0  0  0  0  0  0  0
    5.3619    3.0639    0.0000 H   0  0  0  0  0  0  0  0  0  0  0  0
    5.1588    0.7655    0.0000 H   0  0  0  0  0  0  0  0  0  0  0  0
    5.0075    3.8829    0.0000 H   0  0  0  0  0  0  0  0  0  0  0  0
    4.1890    4.1971    0.0000 H   0  0  0  0  0  0  0  0  0  0  0  0
    3.8747    3.3785    0.0000 H   0  0  0  0  0  0  0  0  0  0  0  0
    5.1630   -0.8207    0.0000 H   0  0  0  0  0  0  0  0  0  0  0  0
    2.3571   -0.8207    0.0000 H   0  0  0  0  0  0  0  0  0  0  0  0
    5.1630   -2.4407    0.0000 H   0  0  0  0  0  0  0  0  0  0  0  0
    2.3571   -2.4407    0.0000 H   0  0  0  0  0  0  0  0  0  0  0  0
    3.1401   -3.6307    0.0000 H   0  0  0  0  0  0  0  0  0  0  0  0
    3.7601   -4.2507    0.0000 H   0  0  0  0  0  0  0  0  0  0  0  0
    4.3801   -3.6307    0.0000 H   0  0  0  0  0  0  0  0  0  0  0  0
  1  3  1  0  0  0  0
  1  8  1  0  0  0  0
  2  8  2  0  0  0  0
  3  4  1  0  0  0  0
  3  6  1  0  0  0  0
  3 16  1  0  0  0  0
  4  9  1  0  0  0  0
  4 17  1  0  0  0  0
  4 18  1  0  0  0  0
  5  6  2  0  0  0  0
  5  7  1  0  0  0  0
  5  8  1  0  0  0  0
  6 19  1  0  0  0  0
  7 10  2  0  0  0  0
  7 11  1  0  0  0  0
  9 20  1  0  0  0  0
  9 21  1  0  0  0  0
  9 22  1  0  0  0  0
 10 13  1  0  0  0  0
 10 23  1  0  0  0  0
 11 14  2  0  0  0  0
 11 24  1  0  0  0  0
 12 13  2  0  0  0  0
 12 14  1  0  0  0  0
 12 15  1  0  0  0  0
 13 25  1  0  0  0  0
 14 26  1  0  0  0  0
 15 27  1  0  0  0  0
 15 28  1  0  0  0  0
 15 29  1  0  0  0  0
M  END
> <PUBCHEM_COMPOUND_CID>
506553
> <PUBCHEM_COMPOUND_CANONICALIZED>
1
> <PUBCHEM_CACTVS_COMPLEXITY>
272
> <PUBCHEM_CACTVS_HBOND_ACCEPTOR>
2
> <PUBCHEM_CACTVS_HBOND_DONOR>
0
> <PUBCHEM_CACTVS_ROTATABLE_BOND>
2
> <PUBCHEM_CACTVS_SUBSKEYS>
AAADccBwMAAAAAAAAAAAAAAAAAAAAQAAAAAwAAAAAAAAAAABAAAAGgAAAAAADBSgmAIyCIAABACIAiDSCAACAAAgAAAIiAEAAMgIJDKANRCCMAAkwAEIqYeIyOCOQAAAAAAAAACAAAAAAAAAAAAAAAAAAA==
> <PUBCHEM_IUPAC_OPENEYE_NAME>
2-ethyl-4-(p-tolyl)-2H-furan-5-one
> <PUBCHEM_IUPAC_CAS_NAME>
2-ethyl-4-(4-methylphenyl)-2H-furan-5-one
> <PUBCHEM_IUPAC_NAME_MARKUP>
2-ethyl-4-(4-methylphenyl)-2<I>H</I>-furan-5-one
> <PUBCHEM_IUPAC_NAME>
2-ethyl-4-(4-methylphenyl)-2H-furan-5-one
> <PUBCHEM_IUPAC_SYSTEMATIC_NAME>
2-ethyl-4-(4-methylphenyl)-2H-furan-5-one
> <PUBCHEM_IUPAC_TRADITIONAL_NAME>
2-ethyl-4-(p-tolyl)-2H-furan-5-one
> <PUBCHEM_IUPAC_INCHI>
InChI=1S/C13H14O2/c1-3-11-8-12(13(14)15-11)10-6-4-9(2)5-7-10/h4-8,11H,3H2,1-2H3
> <PUBCHEM_IUPAC_INCHIKEY>
RFBPKMXSXRYFDL-UHFFFAOYSA-N
> <PUBCHEM_XLOGP3_AA>
3.1
> <PUBCHEM_EXACT_MASS>
202.099379685
> <PUBCHEM_MOLECULAR_FORMULA>
C13H14O2
> <PUBCHEM_MOLECULAR_WEIGHT>
202.25
> <PUBCHEM_OPENEYE_CAN_SMILES>
CCC1C=C(C(=O)O1)C2=CC=C(C=C2)C
> <PUBCHEM_OPENEYE_ISO_SMILES>
CCC1C=C(C(=O)O1)C2=CC=C(C=C2)C
> <PUBCHEM_CACTVS_TPSA>
26.3
> <PUBCHEM_MONOISOTOPIC_WEIGHT>
202.099379685
> <PUBCHEM_TOTAL_CHARGE>
0
> <PUBCHEM_HEAVY_ATOM_COUNT>
15
> <PUBCHEM_ATOM_DEF_STEREO_COUNT>
0
> <PUBCHEM_ATOM_UDEF_STEREO_COUNT>
1
> <PUBCHEM_BOND_DEF_STEREO_COUNT>
0
> <PUBCHEM_BOND_UDEF_STEREO_COUNT>
0
> <PUBCHEM_ISOTOPIC_ATOM_COUNT>
0
> <PUBCHEM_COMPONENT_COUNT>
1
> <PUBCHEM_CACTVS_TAUTO_COUNT>
-1
> <PUBCHEM_COORDINATE_TYPE>
1
5
255
> <PUBCHEM_BONDANNOTATIONS>
10  13  8
11  14  8
12  13  8
12  14  8
3  4  3
7  10  8
7  11  8
$$$$
