506589
  -OEChem-10302200282D
 31 32  0     1  0  0  0  0  0999 V2000
    3.7320    2.0000    0.0000 O   0  0  0  0  0  0  0  0  0  0  0  0
    2.0000   -1.0000    0.0000 O   0  0  0  0  0  0  0  0  0  0  0  0
    5.5443    0.8047    0.0000 N   0  0  0  0  0  0  0  0  0  0  0  0
    3.7320   -1.0000    0.0000 N   0  0  0  0  0  0  0  0  0  0  0  0
    2.8660    0.5000    0.0000 N   0  0  0  0  0  0  0  0  0  0  0  0
    5.5443   -0.8047    0.0000 N   0  0  0  0  0  0  0  0  0  0  0  0
    7.6279   -0.8660    0.0000 N   0  0  0  0  0  0  0  0  0  0  0  0
    8.6279    0.8660    0.0000 N   0  0  0  0  0  0  0  0  0  0  0  0
    7.1279   -0.0000    0.0000 C   0  0  3  0  0  0  0  0  0  0  0  0
    4.5981    0.5000    0.0000 C   0  0  0  0  0  0  0  0  0  0  0  0
    6.1279    0.0000    0.0000 C   0  0  0  0  0  0  0  0  0  0  0  0
    4.5981   -0.5000    0.0000 C   0  0  0  0  0  0  0  0  0  0  0  0
    3.7320    1.0000    0.0000 C   0  0  0  0  0  0  0  0  0  0  0  0
    7.6279    0.8660    0.0000 C   0  0  0  0  0  0  0  0  0  0  0  0
    2.8660   -0.5000    0.0000 C   0  0  0  0  0  0  0  0  0  0  0  0
    3.7320   -2.0000    0.0000 C   0  0  0  0  0  0  0  0  0  0  0  0
    2.0000    1.0000    0.0000 C   0  0  0  0  0  0  0  0  0  0  0  0
    6.8179   -0.5369    0.0000 H   0  0  0  0  0  0  0  0  0  0  0  0
    5.7369    1.3940    0.0000 H   0  0  0  0  0  0  0  0  0  0  0  0
    7.7356    1.4766    0.0000 H   0  0  0  0  0  0  0  0  0  0  0  0
    7.0453    1.0781    0.0000 H   0  0  0  0  0  0  0  0  0  0  0  0
    3.1120   -2.0000    0.0000 H   0  0  0  0  0  0  0  0  0  0  0  0
    3.7320   -2.6200    0.0000 H   0  0  0  0  0  0  0  0  0  0  0  0
    4.3520   -2.0000    0.0000 H   0  0  0  0  0  0  0  0  0  0  0  0
    8.2479   -0.8660    0.0000 H   0  0  0  0  0  0  0  0  0  0  0  0
    7.3179   -1.4030    0.0000 H   0  0  0  0  0  0  0  0  0  0  0  0
    2.3100    1.5369    0.0000 H   0  0  0  0  0  0  0  0  0  0  0  0
    1.4631    1.3100    0.0000 H   0  0  0  0  0  0  0  0  0  0  0  0
    1.6900    0.4631    0.0000 H   0  0  0  0  0  0  0  0  0  0  0  0
    8.9379    1.4030    0.0000 H   0  0  0  0  0  0  0  0  0  0  0  0
    8.9379    0.3291    0.0000 H   0  0  0  0  0  0  0  0  0  0  0  0
  1 13  2  0  0  0  0
  2 15  2  0  0  0  0
  3 10  1  0  0  0  0
  3 11  1  0  0  0  0
  3 19  1  0  0  0  0
  4 12  1  0  0  0  0
  4 15  1  0  0  0  0
  4 16  1  0  0  0  0
  5 13  1  0  0  0  0
  5 15  1  0  0  0  0
  5 17  1  0  0  0  0
  6 11  2  0  0  0  0
  6 12  1  0  0  0  0
  7  9  1  0  0  0  0
  7 25  1  0  0  0  0
  7 26  1  0  0  0  0
  8 14  1  0  0  0  0
  8 30  1  0  0  0  0
  8 31  1  0  0  0  0
  9 11  1  0  0  0  0
  9 14  1  0  0  0  0
  9 18  1  0  0  0  0
 10 12  2  0  0  0  0
 10 13  1  0  0  0  0
 14 20  1  0  0  0  0
 14 21  1  0  0  0  0
 16 22  1  0  0  0  0
 16 23  1  0  0  0  0
 16 24  1  0  0  0  0
 17 27  1  0  0  0  0
 17 28  1  0  0  0  0
 17 29  1  0  0  0  0
M  END
> <PUBCHEM_COMPOUND_CID>
506589
> <PUBCHEM_COMPOUND_CANONICALIZED>
1
> <PUBCHEM_CACTVS_COMPLEXITY>
348
> <PUBCHEM_CACTVS_HBOND_ACCEPTOR>
5
> <PUBCHEM_CACTVS_HBOND_DONOR>
3
> <PUBCHEM_CACTVS_ROTATABLE_BOND>
2
> <PUBCHEM_CACTVS_SUBSKEYS>
AAADccBzsAAAAAAAAAAAAAAAAAAAAWAAAAAsAAAAAAAAAFgBgAAAHgAQAAAACCjBlwQDsBfJkACoAQdwdACAgC2HEKABEYG4VECASAhASCAUAIgIFyLAAGAAAAAAAAAAAAAAAAAAAAAAAAAAAAAAAAAAAA==
> <PUBCHEM_IUPAC_OPENEYE_NAME>
8-(1,2-diaminoethyl)-1,3-dimethyl-7H-purine-2,6-dione
> <PUBCHEM_IUPAC_CAS_NAME>
8-(1,2-diaminoethyl)-1,3-dimethyl-7H-purine-2,6-dione
> <PUBCHEM_IUPAC_NAME_MARKUP>
8-(1,2-diaminoethyl)-1,3-dimethyl-7<I>H</I>-purine-2,6-dione
> <PUBCHEM_IUPAC_NAME>
8-(1,2-diaminoethyl)-1,3-dimethyl-7H-purine-2,6-dione
> <PUBCHEM_IUPAC_SYSTEMATIC_NAME>
8-[1,2-bis(azanyl)ethyl]-1,3-dimethyl-7H-purine-2,6-dione
> <PUBCHEM_IUPAC_TRADITIONAL_NAME>
8-(1,2-diaminoethyl)-1,3-dimethyl-7H-purine-2,6-quinone
> <PUBCHEM_IUPAC_INCHI>
InChI=1S/C9H14N6O2/c1-14-7-5(8(16)15(2)9(14)17)12-6(13-7)4(11)3-10/h4H,3,10-11H2,1-2H3,(H,12,13)
> <PUBCHEM_IUPAC_INCHIKEY>
QVCQFVYUAAJSFW-UHFFFAOYSA-N
> <PUBCHEM_XLOGP3>
-2
> <PUBCHEM_EXACT_MASS>
238.11782371
> <PUBCHEM_MOLECULAR_FORMULA>
C9H14N6O2
> <PUBCHEM_MOLECULAR_WEIGHT>
238.25
> <PUBCHEM_OPENEYE_CAN_SMILES>
CN1C2=C(C(=O)N(C1=O)C)NC(=N2)C(CN)N
> <PUBCHEM_OPENEYE_ISO_SMILES>
CN1C2=C(C(=O)N(C1=O)C)NC(=N2)C(CN)N
> <PUBCHEM_CACTVS_TPSA>
121
> <PUBCHEM_MONOISOTOPIC_WEIGHT>
238.11782371
> <PUBCHEM_TOTAL_CHARGE>
0
> <PUBCHEM_HEAVY_ATOM_COUNT>
17
> <PUBCHEM_ATOM_DEF_STEREO_COUNT>
0
> <PUBCHEM_ATOM_UDEF_STEREO_COUNT>
1
> <PUBCHEM_BOND_DEF_STEREO_COUNT>
0
> <PUBCHEM_BOND_UDEF_STEREO_COUNT>
0
> <PUBCHEM_ISOTOPIC_ATOM_COUNT>
0
> <PUBCHEM_COMPONENT_COUNT>
1
> <PUBCHEM_CACTVS_TAUTO_COUNT>
-1
> <PUBCHEM_COORDINATE_TYPE>
1
5
255
> <PUBCHEM_BONDANNOTATIONS>
10  12  8
10  13  8
3  10  8
3  11  8
4  12  8
4  15  8
5  13  8
5  15  8
6  11  8
6  12  8
9  7  3
$$$$
