506532
  -OEChem-10302200282D
 27 28  0     1  0  0  0  0  0999 V2000
    3.2601    2.6149    0.0000 O   0  0  0  0  0  0  0  0  0  0  0  0
    2.0000    1.3548    0.0000 O   0  0  0  0  0  0  0  0  0  0  0  0
    3.7601   -2.9239    0.0000 O   0  0  0  0  0  0  0  0  0  0  0  0
    4.2601    2.6149    0.0000 C   0  0  3  0  0  0  0  0  0  0  0  0
    3.7601    1.0761    0.0000 C   0  0  0  0  0  0  0  0  0  0  0  0
    4.5691    1.6639    0.0000 C   0  0  0  0  0  0  0  0  0  0  0  0
    3.7601    0.0761    0.0000 C   0  0  0  0  0  0  0  0  0  0  0  0
    2.9511    1.6639    0.0000 C   0  0  0  0  0  0  0  0  0  0  0  0
    4.8479    3.4239    0.0000 C   0  0  0  0  0  0  0  0  0  0  0  0
    4.6261   -0.4239    0.0000 C   0  0  0  0  0  0  0  0  0  0  0  0
    2.8940   -0.4239    0.0000 C   0  0  0  0  0  0  0  0  0  0  0  0
    4.6261   -1.4239    0.0000 C   0  0  0  0  0  0  0  0  0  0  0  0
    2.8940   -1.4239    0.0000 C   0  0  0  0  0  0  0  0  0  0  0  0
    3.7601   -1.9239    0.0000 C   0  0  0  0  0  0  0  0  0  0  0  0
    4.6261   -3.4239    0.0000 C   0  0  0  0  0  0  0  0  0  0  0  0
    3.9786    3.1673    0.0000 H   0  0  0  0  0  0  0  0  0  0  0  0
    5.1588    1.4723    0.0000 H   0  0  0  0  0  0  0  0  0  0  0  0
    5.3494    3.0595    0.0000 H   0  0  0  0  0  0  0  0  0  0  0  0
    5.2123    3.9255    0.0000 H   0  0  0  0  0  0  0  0  0  0  0  0
    4.3463    3.7884    0.0000 H   0  0  0  0  0  0  0  0  0  0  0  0
    5.1630   -0.1139    0.0000 H   0  0  0  0  0  0  0  0  0  0  0  0
    2.3571   -0.1139    0.0000 H   0  0  0  0  0  0  0  0  0  0  0  0
    5.1630   -1.7339    0.0000 H   0  0  0  0  0  0  0  0  0  0  0  0
    2.3571   -1.7339    0.0000 H   0  0  0  0  0  0  0  0  0  0  0  0
    4.3161   -3.9609    0.0000 H   0  0  0  0  0  0  0  0  0  0  0  0
    5.1630   -3.7339    0.0000 H   0  0  0  0  0  0  0  0  0  0  0  0
    4.9361   -2.8870    0.0000 H   0  0  0  0  0  0  0  0  0  0  0  0
  1  4  1  0  0  0  0
  1  8  1  0  0  0  0
  2  8  2  0  0  0  0
  3 14  1  0  0  0  0
  3 15  1  0  0  0  0
  4  6  1  0  0  0  0
  4  9  1  0  0  0  0
  4 16  1  0  0  0  0
  5  6  2  0  0  0  0
  5  7  1  0  0  0  0
  5  8  1  0  0  0  0
  6 17  1  0  0  0  0
  7 10  2  0  0  0  0
  7 11  1  0  0  0  0
  9 18  1  0  0  0  0
  9 19  1  0  0  0  0
  9 20  1  0  0  0  0
 10 12  1  0  0  0  0
 10 21  1  0  0  0  0
 11 13  2  0  0  0  0
 11 22  1  0  0  0  0
 12 14  2  0  0  0  0
 12 23  1  0  0  0  0
 13 14  1  0  0  0  0
 13 24  1  0  0  0  0
 15 25  1  0  0  0  0
 15 26  1  0  0  0  0
 15 27  1  0  0  0  0
M  END
> <PUBCHEM_COMPOUND_CID>
506532
> <PUBCHEM_COMPOUND_CANONICALIZED>
1
> <PUBCHEM_CACTVS_COMPLEXITY>
275
> <PUBCHEM_CACTVS_HBOND_ACCEPTOR>
3
> <PUBCHEM_CACTVS_HBOND_DONOR>
0
> <PUBCHEM_CACTVS_ROTATABLE_BOND>
2
> <PUBCHEM_CACTVS_SUBSKEYS>
AAADccBwMAAAAAAAAAAAAAAAAAAAAQAAAAAwAAAAAAAAAAABAAAAGgAAAAAADBSgmAIyDoAABACIAiDSCAACCAAgIAAIiAEGCMgMJjKENRqCMCAkwBEIqYeIyKCOIAAAAAAAAABAAAAAAAAAAAAAAAAAAA==
> <PUBCHEM_IUPAC_OPENEYE_NAME>
4-(4-methoxyphenyl)-2-methyl-2H-furan-5-one
> <PUBCHEM_IUPAC_CAS_NAME>
4-(4-methoxyphenyl)-2-methyl-2H-furan-5-one
> <PUBCHEM_IUPAC_NAME_MARKUP>
4-(4-methoxyphenyl)-2-methyl-2<I>H</I>-furan-5-one
> <PUBCHEM_IUPAC_NAME>
4-(4-methoxyphenyl)-2-methyl-2H-furan-5-one
> <PUBCHEM_IUPAC_SYSTEMATIC_NAME>
4-(4-methoxyphenyl)-2-methyl-2H-furan-5-one
> <PUBCHEM_IUPAC_TRADITIONAL_NAME>
4-(4-methoxyphenyl)-2-methyl-2H-furan-5-one
> <PUBCHEM_IUPAC_INCHI>
InChI=1S/C12H12O3/c1-8-7-11(12(13)15-8)9-3-5-10(14-2)6-4-9/h3-8H,1-2H3
> <PUBCHEM_IUPAC_INCHIKEY>
BJWLLZGXINITLH-UHFFFAOYSA-N
> <PUBCHEM_XLOGP3_AA>
2.2
> <PUBCHEM_EXACT_MASS>
204.078644241
> <PUBCHEM_MOLECULAR_FORMULA>
C12H12O3
> <PUBCHEM_MOLECULAR_WEIGHT>
204.22
> <PUBCHEM_OPENEYE_CAN_SMILES>
CC1C=C(C(=O)O1)C2=CC=C(C=C2)OC
> <PUBCHEM_OPENEYE_ISO_SMILES>
CC1C=C(C(=O)O1)C2=CC=C(C=C2)OC
> <PUBCHEM_CACTVS_TPSA>
35.5
> <PUBCHEM_MONOISOTOPIC_WEIGHT>
204.078644241
> <PUBCHEM_TOTAL_CHARGE>
0
> <PUBCHEM_HEAVY_ATOM_COUNT>
15
> <PUBCHEM_ATOM_DEF_STEREO_COUNT>
0
> <PUBCHEM_ATOM_UDEF_STEREO_COUNT>
1
> <PUBCHEM_BOND_DEF_STEREO_COUNT>
0
> <PUBCHEM_BOND_UDEF_STEREO_COUNT>
0
> <PUBCHEM_ISOTOPIC_ATOM_COUNT>
0
> <PUBCHEM_COMPONENT_COUNT>
1
> <PUBCHEM_CACTVS_TAUTO_COUNT>
-1
> <PUBCHEM_COORDINATE_TYPE>
1
5
255
> <PUBCHEM_BONDANNOTATIONS>
10  12  8
11  13  8
12  14  8
13  14  8
4  9  3
7  10  8
7  11  8
$$$$
