506530
  -OEChem-10302200282D
 23 24  0     1  0  0  0  0  0999 V2000
    3.2601    1.8649    0.0000 O   0  0  0  0  0  0  0  0  0  0  0  0
    2.0000    0.6048    0.0000 O   0  0  0  0  0  0  0  0  0  0  0  0
    4.2601    1.8649    0.0000 C   0  0  3  0  0  0  0  0  0  0  0  0
    3.7601    0.3261    0.0000 C   0  0  0  0  0  0  0  0  0  0  0  0
    4.5691    0.9139    0.0000 C   0  0  0  0  0  0  0  0  0  0  0  0
    3.7601   -0.6739    0.0000 C   0  0  0  0  0  0  0  0  0  0  0  0
    2.9511    0.9139    0.0000 C   0  0  0  0  0  0  0  0  0  0  0  0
    4.8479    2.6739    0.0000 C   0  0  0  0  0  0  0  0  0  0  0  0
    2.8940   -1.1739    0.0000 C   0  0  0  0  0  0  0  0  0  0  0  0
    4.6261   -1.1739    0.0000 C   0  0  0  0  0  0  0  0  0  0  0  0
    2.8940   -2.1739    0.0000 C   0  0  0  0  0  0  0  0  0  0  0  0
    4.6261   -2.1739    0.0000 C   0  0  0  0  0  0  0  0  0  0  0  0
    3.7601   -2.6739    0.0000 C   0  0  0  0  0  0  0  0  0  0  0  0
    3.9786    2.4173    0.0000 H   0  0  0  0  0  0  0  0  0  0  0  0
    5.1588    0.7223    0.0000 H   0  0  0  0  0  0  0  0  0  0  0  0
    5.3494    2.3095    0.0000 H   0  0  0  0  0  0  0  0  0  0  0  0
    5.2123    3.1755    0.0000 H   0  0  0  0  0  0  0  0  0  0  0  0
    4.3463    3.0384    0.0000 H   0  0  0  0  0  0  0  0  0  0  0  0
    2.3571   -0.8639    0.0000 H   0  0  0  0  0  0  0  0  0  0  0  0
    5.1630   -0.8639    0.0000 H   0  0  0  0  0  0  0  0  0  0  0  0
    2.3571   -2.4839    0.0000 H   0  0  0  0  0  0  0  0  0  0  0  0
    5.1630   -2.4839    0.0000 H   0  0  0  0  0  0  0  0  0  0  0  0
    3.7601   -3.2939    0.0000 H   0  0  0  0  0  0  0  0  0  0  0  0
  1  3  1  0  0  0  0
  1  7  1  0  0  0  0
  2  7  2  0  0  0  0
  3  5  1  0  0  0  0
  3  8  1  0  0  0  0
  3 14  1  0  0  0  0
  4  5  2  0  0  0  0
  4  6  1  0  0  0  0
  4  7  1  0  0  0  0
  5 15  1  0  0  0  0
  6  9  2  0  0  0  0
  6 10  1  0  0  0  0
  8 16  1  0  0  0  0
  8 17  1  0  0  0  0
  8 18  1  0  0  0  0
  9 11  1  0  0  0  0
  9 19  1  0  0  0  0
 10 12  2  0  0  0  0
 10 20  1  0  0  0  0
 11 13  2  0  0  0  0
 11 21  1  0  0  0  0
 12 13  1  0  0  0  0
 12 22  1  0  0  0  0
 13 23  1  0  0  0  0
M  END
> <PUBCHEM_COMPOUND_CID>
506530
> <PUBCHEM_COMPOUND_CANONICALIZED>
1
> <PUBCHEM_CACTVS_COMPLEXITY>
237
> <PUBCHEM_CACTVS_HBOND_ACCEPTOR>
2
> <PUBCHEM_CACTVS_HBOND_DONOR>
0
> <PUBCHEM_CACTVS_ROTATABLE_BOND>
1
> <PUBCHEM_CACTVS_SUBSKEYS>
AAADccBwMAAAAAAAAAAAAAAAAAAAAQAAAAAwAAAAAAAAAAABAAAAGgAAAAAADBSgmAIyCIAABACIAiDSCAACAAAgAAAIiAEAAMgIJDKANRCCMAAkwAEIqYeIyKCOAAAAAAAAAAAAAAAAAAAAAAAAAAAAAA==
> <PUBCHEM_IUPAC_OPENEYE_NAME>
2-methyl-4-phenyl-2H-furan-5-one
> <PUBCHEM_IUPAC_CAS_NAME>
2-methyl-4-phenyl-2H-furan-5-one
> <PUBCHEM_IUPAC_NAME_MARKUP>
2-methyl-4-phenyl-2<I>H</I>-furan-5-one
> <PUBCHEM_IUPAC_NAME>
2-methyl-4-phenyl-2H-furan-5-one
> <PUBCHEM_IUPAC_SYSTEMATIC_NAME>
2-methyl-4-phenyl-2H-furan-5-one
> <PUBCHEM_IUPAC_TRADITIONAL_NAME>
2-methyl-4-phenyl-2H-furan-5-one
> <PUBCHEM_IUPAC_INCHI>
InChI=1S/C11H10O2/c1-8-7-10(11(12)13-8)9-5-3-2-4-6-9/h2-8H,1H3
> <PUBCHEM_IUPAC_INCHIKEY>
GVGXBYFGDYETKS-UHFFFAOYSA-N
> <PUBCHEM_XLOGP3_AA>
2.3
> <PUBCHEM_EXACT_MASS>
174.068079557
> <PUBCHEM_MOLECULAR_FORMULA>
C11H10O2
> <PUBCHEM_MOLECULAR_WEIGHT>
174.20
> <PUBCHEM_OPENEYE_CAN_SMILES>
CC1C=C(C(=O)O1)C2=CC=CC=C2
> <PUBCHEM_OPENEYE_ISO_SMILES>
CC1C=C(C(=O)O1)C2=CC=CC=C2
> <PUBCHEM_CACTVS_TPSA>
26.3
> <PUBCHEM_MONOISOTOPIC_WEIGHT>
174.068079557
> <PUBCHEM_TOTAL_CHARGE>
0
> <PUBCHEM_HEAVY_ATOM_COUNT>
13
> <PUBCHEM_ATOM_DEF_STEREO_COUNT>
0
> <PUBCHEM_ATOM_UDEF_STEREO_COUNT>
1
> <PUBCHEM_BOND_DEF_STEREO_COUNT>
0
> <PUBCHEM_BOND_UDEF_STEREO_COUNT>
0
> <PUBCHEM_ISOTOPIC_ATOM_COUNT>
0
> <PUBCHEM_COMPONENT_COUNT>
1
> <PUBCHEM_CACTVS_TAUTO_COUNT>
-1
> <PUBCHEM_COORDINATE_TYPE>
1
5
255
> <PUBCHEM_BONDANNOTATIONS>
10  12  8
11  13  8
12  13  8
3  8  3
6  10  8
6  9  8
9  11  8
$$$$
