506595
  -OEChem-10302200282D
 37 36  0     1  0  0  0  0  0999 V2000
    0.5369    0.9030    0.0000 O   0  0  0  0  0  0  0  0  0  0  0  0
    4.8671    2.4030    0.0000 O   0  0  0  0  0  0  0  0  0  0  0  0
    4.0010    3.9030    0.0000 O   0  0  0  0  0  0  0  0  0  0  0  0
    3.5680   10.0230    0.0000 N   0  0  0  0  0  0  0  0  0  0  0  0
    1.4030    1.4030    0.0000 C   0  0  3  0  0  0  0  0  0  0  0  0
    0.9030    2.2690    0.0000 C   0  0  0  0  0  0  0  0  0  0  0  0
    1.9030    0.5369    0.0000 C   0  0  0  0  0  0  0  0  0  0  0  0
    1.4030    3.1350    0.0000 C   0  0  0  0  0  0  0  0  0  0  0  0
    2.2690    1.9030    0.0000 C   0  0  0  0  0  0  0  0  0  0  0  0
    2.7020    8.5230    0.0000 C   0  0  0  0  0  0  0  0  0  0  0  0
    2.7020    9.5230    0.0000 C   0  0  0  0  0  0  0  0  0  0  0  0
    3.5680    8.0230    0.0000 C   0  0  0  0  0  0  0  0  0  0  0  0
    1.8360    8.0230    0.0000 C   0  0  0  0  0  0  0  0  0  0  0  0
    3.5680    7.0230    0.0000 C   0  0  0  0  0  0  0  0  0  0  0  0
    1.8360    7.0230    0.0000 C   0  0  0  0  0  0  0  0  0  0  0  0
    2.7020    6.5230    0.0000 C   0  0  0  0  0  0  0  0  0  0  0  0
    3.1350    2.4030    0.0000 C   0  0  0  0  0  0  0  0  0  0  0  0
    4.0010    2.9030    0.0000 C   0  0  0  0  0  0  0  0  0  0  0  0
    0.4280    2.6675    0.0000 H   0  0  0  0  0  0  0  0  0  0  0  0
    0.4280    1.8705    0.0000 H   0  0  0  0  0  0  0  0  0  0  0  0
    1.3660    0.2269    0.0000 H   0  0  0  0  0  0  0  0  0  0  0  0
    2.2130    0.0000    0.0000 H   0  0  0  0  0  0  0  0  0  0  0  0
    2.4399    0.8469    0.0000 H   0  0  0  0  0  0  0  0  0  0  0  0
    1.9399    2.8250    0.0000 H   0  0  0  0  0  0  0  0  0  0  0  0
    1.7130    3.6720    0.0000 H   0  0  0  0  0  0  0  0  0  0  0  0
    0.8660    3.4450    0.0000 H   0  0  0  0  0  0  0  0  0  0  0  0
    0.0000    1.2130    0.0000 H   0  0  0  0  0  0  0  0  0  0  0  0
    2.4900   10.1056    0.0000 H   0  0  0  0  0  0  0  0  0  0  0  0
    2.0914    9.4153    0.0000 H   0  0  0  0  0  0  0  0  0  0  0  0
    4.1050    8.3330    0.0000 H   0  0  0  0  0  0  0  0  0  0  0  0
    1.2990    8.3330    0.0000 H   0  0  0  0  0  0  0  0  0  0  0  0
    4.1050    6.7130    0.0000 H   0  0  0  0  0  0  0  0  0  0  0  0
    1.2990    6.7130    0.0000 H   0  0  0  0  0  0  0  0  0  0  0  0
    2.7020    5.9030    0.0000 H   0  0  0  0  0  0  0  0  0  0  0  0
    3.5680   10.6430    0.0000 H   0  0  0  0  0  0  0  0  0  0  0  0
    4.1050    9.7130    0.0000 H   0  0  0  0  0  0  0  0  0  0  0  0
    5.4040    2.7130    0.0000 H   0  0  0  0  0  0  0  0  0  0  0  0
  1  5  1  0  0  0  0
  1 27  1  0  0  0  0
  2 18  1  0  0  0  0
  2 37  1  0  0  0  0
  3 18  2  0  0  0  0
  4 11  1  0  0  0  0
  4 35  1  0  0  0  0
  4 36  1  0  0  0  0
  5  6  1  0  0  0  0
  5  7  1  0  0  0  0
  5  9  1  0  0  0  0
  6  8  1  0  0  0  0
  6 19  1  0  0  0  0
  6 20  1  0  0  0  0
  7 21  1  0  0  0  0
  7 22  1  0  0  0  0
  7 23  1  0  0  0  0
  8 24  1  0  0  0  0
  8 25  1  0  0  0  0
  8 26  1  0  0  0  0
  9 17  3  0  0  0  0
 10 11  1  0  0  0  0
 10 12  2  0  0  0  0
 10 13  1  0  0  0  0
 11 28  1  0  0  0  0
 11 29  1  0  0  0  0
 12 14  1  0  0  0  0
 12 30  1  0  0  0  0
 13 15  2  0  0  0  0
 13 31  1  0  0  0  0
 14 16  2  0  0  0  0
 14 32  1  0  0  0  0
 15 16  1  0  0  0  0
 15 33  1  0  0  0  0
 16 34  1  0  0  0  0
 17 18  1  0  0  0  0
M  END
> <PUBCHEM_COMPOUND_CID>
506595
> <PUBCHEM_COMPOUND_CANONICALIZED>
1
> <PUBCHEM_CACTVS_COMPLEXITY>
251
> <PUBCHEM_CACTVS_HBOND_ACCEPTOR>
4
> <PUBCHEM_CACTVS_HBOND_DONOR>
3
> <PUBCHEM_CACTVS_ROTATABLE_BOND>
3
> <PUBCHEM_CACTVS_SUBSKEYS>
AAADceByMAAAAAAAAAAAAAAAAAAAAAAAAAAwAAAAAAAAAAABAAAAHgAQCAAADETBmAQyCIBAAgDIEiDSCAiCAAAgAAAIiIAABIgIICKAkRGAYABggAAIiAcQgAAOAAAAAAAAAAAAAAAAAAAAAAAAAAAAAA==
> <PUBCHEM_IUPAC_OPENEYE_NAME>
4-hydroxy-4-methyl-hex-2-ynoic acid;phenylmethanamine
> <PUBCHEM_IUPAC_CAS_NAME>
4-hydroxy-4-methyl-2-hexynoic acid;phenylmethanamine
> <PUBCHEM_IUPAC_NAME_MARKUP>
4-hydroxy-4-methylhex-2-ynoic acid;phenylmethanamine
> <PUBCHEM_IUPAC_NAME>
4-hydroxy-4-methylhex-2-ynoic acid;phenylmethanamine
> <PUBCHEM_IUPAC_SYSTEMATIC_NAME>
4-methyl-4-oxidanyl-hex-2-ynoic acid;phenylmethanamine
> <PUBCHEM_IUPAC_TRADITIONAL_NAME>
benzylamine;4-hydroxy-4-methyl-hex-2-ynoic acid
> <PUBCHEM_IUPAC_INCHI>
InChI=1S/C7H9N.C7H10O3/c8-6-7-4-2-1-3-5-7;1-3-7(2,10)5-4-6(8)9/h1-5H,6,8H2;10H,3H2,1-2H3,(H,8,9)
> <PUBCHEM_IUPAC_INCHIKEY>
MBGAJTJSJYRBSL-UHFFFAOYSA-N
> <PUBCHEM_EXACT_MASS>
249.13649347
> <PUBCHEM_MOLECULAR_FORMULA>
C14H19NO3
> <PUBCHEM_MOLECULAR_WEIGHT>
249.30
> <PUBCHEM_OPENEYE_CAN_SMILES>
CCC(C)(C#CC(=O)O)O.C1=CC=C(C=C1)CN
> <PUBCHEM_OPENEYE_ISO_SMILES>
CCC(C)(C#CC(=O)O)O.C1=CC=C(C=C1)CN
> <PUBCHEM_CACTVS_TPSA>
83.6
> <PUBCHEM_MONOISOTOPIC_WEIGHT>
249.13649347
> <PUBCHEM_TOTAL_CHARGE>
0
> <PUBCHEM_HEAVY_ATOM_COUNT>
18
> <PUBCHEM_ATOM_DEF_STEREO_COUNT>
0
> <PUBCHEM_ATOM_UDEF_STEREO_COUNT>
1
> <PUBCHEM_BOND_DEF_STEREO_COUNT>
0
> <PUBCHEM_BOND_UDEF_STEREO_COUNT>
0
> <PUBCHEM_ISOTOPIC_ATOM_COUNT>
0
> <PUBCHEM_COMPONENT_COUNT>
2
> <PUBCHEM_CACTVS_TAUTO_COUNT>
-1
> <PUBCHEM_COORDINATE_TYPE>
1
5
255
> <PUBCHEM_BONDANNOTATIONS>
5  1  3
10  12  8
10  13  8
12  14  8
13  15  8
14  16  8
15  16  8
$$$$
