506586
  -OEChem-10302200282D
 30 32  0     1  0  0  0  0  0999 V2000
    4.1874   -0.1100    0.0000 N   0  0  0  0  0  0  0  0  0  0  0  0
    4.3384   -1.8355    0.0000 N   0  0  0  0  0  0  0  0  0  0  0  0
    2.7686   -1.1035    0.0000 N   0  0  0  0  0  0  0  0  0  0  0  0
    2.6176    0.6220    0.0000 N   0  0  0  0  0  0  0  0  0  0  0  0
    2.9196   -2.8290    0.0000 N   0  0  0  0  0  0  0  0  0  0  0  0
    6.2416    2.3542    0.0000 C   0  0  3  0  0  0  0  0  0  0  0  0
    4.6100    0.7963    0.0000 C   0  0  3  0  0  0  0  0  0  0  0  0
    4.2680    1.7360    0.0000 C   0  0  0  0  0  0  0  0  0  0  0  0
    5.5049    3.3368    0.0000 C   0  0  0  0  0  0  0  0  0  0  0  0
    5.9827    1.3883    0.0000 C   0  0  0  0  0  0  0  0  0  0  0  0
    7.6405    1.8454    0.0000 C   0  0  0  0  0  0  0  0  0  0  0  0
    7.3817    0.8795    0.0000 C   0  0  0  0  0  0  0  0  0  0  0  0
    4.7610   -0.9292    0.0000 C   0  0  0  0  0  0  0  0  0  0  0  0
    3.1912   -0.1972    0.0000 C   0  0  0  0  0  0  0  0  0  0  0  0
    3.3422   -1.9226    0.0000 C   0  0  0  0  0  0  0  0  0  0  0  0
    6.2275    1.7344    0.0000 H   0  0  0  0  0  0  0  0  0  0  0  0
    5.0420    0.3515    0.0000 H   0  0  0  0  0  0  0  0  0  0  0  0
    4.0737    2.3247    0.0000 H   0  0  0  0  0  0  0  0  0  0  0  0
    3.6822    1.5328    0.0000 H   0  0  0  0  0  0  0  0  0  0  0  0
    5.8227    3.8692    0.0000 H   0  0  0  0  0  0  0  0  0  0  0  0
    4.8918    3.4288    0.0000 H   0  0  0  0  0  0  0  0  0  0  0  0
    8.2345    1.6676    0.0000 H   0  0  0  0  0  0  0  0  0  0  0  0
    7.8354    2.4340    0.0000 H   0  0  0  0  0  0  0  0  0  0  0  0
    7.6680    0.3296    0.0000 H   0  0  0  0  0  0  0  0  0  0  0  0
    5.2689   -1.2848    0.0000 H   0  0  0  0  0  0  0  0  0  0  0  0
    5.1994   -0.4908    0.0000 H   0  0  0  0  0  0  0  0  0  0  0  0
    2.0000    0.5679    0.0000 H   0  0  0  0  0  0  0  0  0  0  0  0
    2.8797    1.1839    0.0000 H   0  0  0  0  0  0  0  0  0  0  0  0
    3.2752   -3.3368    0.0000 H   0  0  0  0  0  0  0  0  0  0  0  0
    2.3019   -2.8830    0.0000 H   0  0  0  0  0  0  0  0  0  0  0  0
  1  7  1  0  0  0  0
  1 13  1  0  0  0  0
  1 14  1  0  0  0  0
  2 13  1  0  0  0  0
  2 15  2  0  0  0  0
  3 14  2  0  0  0  0
  3 15  1  0  0  0  0
  4 14  1  0  0  0  0
  4 27  1  0  0  0  0
  4 28  1  0  0  0  0
  5 15  1  0  0  0  0
  5 29  1  0  0  0  0
  5 30  1  0  0  0  0
  6  8  1  0  0  0  0
  6  9  1  0  0  0  0
  6 11  1  0  0  0  0
  6 16  1  0  0  0  0
  7  8  1  0  0  0  0
  7 10  1  0  0  0  0
  7 17  1  0  0  0  0
  8 18  1  0  0  0  0
  8 19  1  0  0  0  0
  9 10  1  0  0  0  0
  9 20  1  0  0  0  0
  9 21  1  0  0  0  0
 10 12  2  0  0  0  0
 11 12  1  0  0  0  0
 11 22  1  0  0  0  0
 11 23  1  0  0  0  0
 12 24  1  0  0  0  0
 13 25  1  0  0  0  0
 13 26  1  0  0  0  0
M  END
> <PUBCHEM_COMPOUND_CID>
506586
> <PUBCHEM_COMPOUND_CANONICALIZED>
1
> <PUBCHEM_CACTVS_COMPLEXITY>
381
> <PUBCHEM_CACTVS_HBOND_ACCEPTOR>
1
> <PUBCHEM_CACTVS_HBOND_DONOR>
2
> <PUBCHEM_CACTVS_ROTATABLE_BOND>
1
> <PUBCHEM_CACTVS_SUBSKEYS>
AAADccBzgAAAAAAAAAAAAAAAAAAAAYIAAAAgQAAAAAAAAAAAAAAAHAAQAAAADSjBAAQBAANAAACgAiBCJACAAAEgAAABCAAIAAiAAAIAiQAEAAAAgAIIAAMQgAAOAAAAAAAAAAAAAAAAAAAAACAAAAAAAA==
> <PUBCHEM_IUPAC_OPENEYE_NAME>
1-(2-bicyclo[2.2.1]hept-1(6)-enyl)-2H-1,3,5-triazine-4,6-diamine
> <PUBCHEM_IUPAC_CAS_NAME>
1-(2-bicyclo[2.2.1]hept-1(6)-enyl)-2H-1,3,5-triazine-4,6-diamine
> <PUBCHEM_IUPAC_NAME_MARKUP>
1-(2-bicyclo[2.2.1]hept-1(6)-enyl)-2<I>H</I>-1,3,5-triazine-4,6-diamine
> <PUBCHEM_IUPAC_NAME>
1-(2-bicyclo[2.2.1]hept-1(6)-enyl)-2H-1,3,5-triazine-4,6-diamine
> <PUBCHEM_IUPAC_SYSTEMATIC_NAME>
1-(2-bicyclo[2.2.1]hept-1(6)-enyl)-2H-1,3,5-triazine-4,6-diamine
> <PUBCHEM_IUPAC_TRADITIONAL_NAME>
[6-amino-1-(2-bicyclo[2.2.1]hept-1(6)-enyl)-2H-s-triazin-4-yl]amine
> <PUBCHEM_IUPAC_INCHI>
InChI=1S/C10H15N5/c11-9-13-5-15(10(12)14-9)8-4-6-1-2-7(8)3-6/h2,6,8H,1,3-5H2,(H4,11,12,13,14)
> <PUBCHEM_IUPAC_INCHIKEY>
BTCCXVKJCAOBLY-UHFFFAOYSA-N
> <PUBCHEM_XLOGP3_AA>
-0.9
> <PUBCHEM_EXACT_MASS>
205.13274550
> <PUBCHEM_MOLECULAR_FORMULA>
C10H15N5
> <PUBCHEM_MOLECULAR_WEIGHT>
205.26
> <PUBCHEM_OPENEYE_CAN_SMILES>
C1C=C2CC1CC2N3CN=C(N=C3N)N
> <PUBCHEM_OPENEYE_ISO_SMILES>
C1C=C2CC1CC2N3CN=C(N=C3N)N
> <PUBCHEM_CACTVS_TPSA>
80
> <PUBCHEM_MONOISOTOPIC_WEIGHT>
205.13274550
> <PUBCHEM_TOTAL_CHARGE>
0
> <PUBCHEM_HEAVY_ATOM_COUNT>
15
> <PUBCHEM_ATOM_DEF_STEREO_COUNT>
0
> <PUBCHEM_ATOM_UDEF_STEREO_COUNT>
2
> <PUBCHEM_BOND_DEF_STEREO_COUNT>
0
> <PUBCHEM_BOND_UDEF_STEREO_COUNT>
0
> <PUBCHEM_ISOTOPIC_ATOM_COUNT>
0
> <PUBCHEM_COMPONENT_COUNT>
1
> <PUBCHEM_CACTVS_TAUTO_COUNT>
-1
> <PUBCHEM_COORDINATE_TYPE>
1
5
255
> <PUBCHEM_BONDANNOTATIONS>
7  1  3
6  11  3
$$$$
