506556
  -OEChem-10302200282D
 26 27  0     1  0  0  0  0  0999 V2000
    2.0000   -2.6307    0.0000 Cl  0  0  0  0  0  0  0  0  0  0  0  0
    3.7320   -3.6307    0.0000 Cl  0  0  0  0  0  0  0  0  0  0  0  0
    4.2320    1.9081    0.0000 O   0  0  0  0  0  0  0  0  0  0  0  0
    5.4921    0.6481    0.0000 O   0  0  0  0  0  0  0  0  0  0  0  0
    3.2320    1.9081    0.0000 C   0  0  3  0  0  0  0  0  0  0  0  0
    2.6443    2.7172    0.0000 C   0  0  0  0  0  0  0  0  0  0  0  0
    2.9230    0.9571    0.0000 C   0  0  0  0  0  0  0  0  0  0  0  0
    3.7320    0.3693    0.0000 C   0  0  0  0  0  0  0  0  0  0  0  0
    3.7320   -0.6307    0.0000 C   0  0  0  0  0  0  0  0  0  0  0  0
    4.5411    0.9571    0.0000 C   0  0  0  0  0  0  0  0  0  0  0  0
    3.0510    3.6307    0.0000 C   0  0  0  0  0  0  0  0  0  0  0  0
    2.8660   -1.1307    0.0000 C   0  0  0  0  0  0  0  0  0  0  0  0
    4.5981   -1.1307    0.0000 C   0  0  0  0  0  0  0  0  0  0  0  0
    2.8660   -2.1307    0.0000 C   0  0  0  0  0  0  0  0  0  0  0  0
    4.5981   -2.1307    0.0000 C   0  0  0  0  0  0  0  0  0  0  0  0
    3.7320   -2.6307    0.0000 C   0  0  0  0  0  0  0  0  0  0  0  0
    3.5135    2.4606    0.0000 H   0  0  0  0  0  0  0  0  0  0  0  0
    2.1303    3.0639    0.0000 H   0  0  0  0  0  0  0  0  0  0  0  0
    2.2136    2.2712    0.0000 H   0  0  0  0  0  0  0  0  0  0  0  0
    2.3334    0.7655    0.0000 H   0  0  0  0  0  0  0  0  0  0  0  0
    3.6174    3.3785    0.0000 H   0  0  0  0  0  0  0  0  0  0  0  0
    3.3032    4.1971    0.0000 H   0  0  0  0  0  0  0  0  0  0  0  0
    2.4846    3.8829    0.0000 H   0  0  0  0  0  0  0  0  0  0  0  0
    2.3291   -0.8207    0.0000 H   0  0  0  0  0  0  0  0  0  0  0  0
    5.1350   -0.8207    0.0000 H   0  0  0  0  0  0  0  0  0  0  0  0
    5.1350   -2.4407    0.0000 H   0  0  0  0  0  0  0  0  0  0  0  0
  1 14  1  0  0  0  0
  2 16  1  0  0  0  0
  3  5  1  0  0  0  0
  3 10  1  0  0  0  0
  4 10  2  0  0  0  0
  5  6  1  0  0  0  0
  5  7  1  0  0  0  0
  5 17  1  0  0  0  0
  6 11  1  0  0  0  0
  6 18  1  0  0  0  0
  6 19  1  0  0  0  0
  7  8  2  0  0  0  0
  7 20  1  0  0  0  0
  8  9  1  0  0  0  0
  8 10  1  0  0  0  0
  9 12  2  0  0  0  0
  9 13  1  0  0  0  0
 11 21  1  0  0  0  0
 11 22  1  0  0  0  0
 11 23  1  0  0  0  0
 12 14  1  0  0  0  0
 12 24  1  0  0  0  0
 13 15  2  0  0  0  0
 13 25  1  0  0  0  0
 14 16  2  0  0  0  0
 15 16  1  0  0  0  0
 15 26  1  0  0  0  0
M  END
> <PUBCHEM_COMPOUND_CID>
506556
> <PUBCHEM_COMPOUND_CANONICALIZED>
1
> <PUBCHEM_CACTVS_COMPLEXITY>
314
> <PUBCHEM_CACTVS_HBOND_ACCEPTOR>
2
> <PUBCHEM_CACTVS_HBOND_DONOR>
0
> <PUBCHEM_CACTVS_ROTATABLE_BOND>
2
> <PUBCHEM_CACTVS_SUBSKEYS>
AAADccBwMAAGAAAAAAAAAAAAAAAAAQAAAAAwAAAAAAAAAAABAAAAGgIAAAAADBagmCIyCIAABACIAiDSCAACAAAgBQAIikEAAsgIJDKBNxCCMAAkwAEIqYeIyKCOBAAAIAAAAAQIAABAAAAACAAAAAAAAA==
> <PUBCHEM_IUPAC_OPENEYE_NAME>
4-(3,4-dichlorophenyl)-2-ethyl-2H-furan-5-one
> <PUBCHEM_IUPAC_CAS_NAME>
4-(3,4-dichlorophenyl)-2-ethyl-2H-furan-5-one
> <PUBCHEM_IUPAC_NAME_MARKUP>
4-(3,4-dichlorophenyl)-2-ethyl-2<I>H</I>-furan-5-one
> <PUBCHEM_IUPAC_NAME>
4-(3,4-dichlorophenyl)-2-ethyl-2H-furan-5-one
> <PUBCHEM_IUPAC_SYSTEMATIC_NAME>
4-(3,4-dichlorophenyl)-2-ethyl-2H-furan-5-one
> <PUBCHEM_IUPAC_TRADITIONAL_NAME>
4-(3,4-dichlorophenyl)-2-ethyl-2H-furan-5-one
> <PUBCHEM_IUPAC_INCHI>
InChI=1S/C12H10Cl2O2/c1-2-8-6-9(12(15)16-8)7-3-4-10(13)11(14)5-7/h3-6,8H,2H2,1H3
> <PUBCHEM_IUPAC_INCHIKEY>
HSDRNBPQEFHSQS-UHFFFAOYSA-N
> <PUBCHEM_XLOGP3_AA>
4
> <PUBCHEM_EXACT_MASS>
256.0057849
> <PUBCHEM_MOLECULAR_FORMULA>
C12H10Cl2O2
> <PUBCHEM_MOLECULAR_WEIGHT>
257.11
> <PUBCHEM_OPENEYE_CAN_SMILES>
CCC1C=C(C(=O)O1)C2=CC(=C(C=C2)Cl)Cl
> <PUBCHEM_OPENEYE_ISO_SMILES>
CCC1C=C(C(=O)O1)C2=CC(=C(C=C2)Cl)Cl
> <PUBCHEM_CACTVS_TPSA>
26.3
> <PUBCHEM_MONOISOTOPIC_WEIGHT>
256.0057849
> <PUBCHEM_TOTAL_CHARGE>
0
> <PUBCHEM_HEAVY_ATOM_COUNT>
16
> <PUBCHEM_ATOM_DEF_STEREO_COUNT>
0
> <PUBCHEM_ATOM_UDEF_STEREO_COUNT>
1
> <PUBCHEM_BOND_DEF_STEREO_COUNT>
0
> <PUBCHEM_BOND_UDEF_STEREO_COUNT>
0
> <PUBCHEM_ISOTOPIC_ATOM_COUNT>
0
> <PUBCHEM_COMPONENT_COUNT>
1
> <PUBCHEM_CACTVS_TAUTO_COUNT>
-1
> <PUBCHEM_COORDINATE_TYPE>
1
5
255
> <PUBCHEM_BONDANNOTATIONS>
12  14  8
13  15  8
14  16  8
15  16  8
5  6  3
9  12  8
9  13  8
$$$$
