506594
  -OEChem-10302200282D
 52 53  0     1  0  0  0  0  0999 V2000
    4.6356    0.5617    0.0000 S   0  0  0  0  0  0  0  0  0  0  0  0
    5.5753    0.2196    0.0000 S   0  0  0  0  0  0  0  0  0  0  0  0
    3.8696   -0.0810    0.0000 O   0  0  0  0  0  0  0  0  0  0  0  0
    6.6150    0.7348    0.0000 O   0  0  0  0  0  0  0  0  0  0  0  0
    7.1976    0.9037    0.0000 O   0  0  0  0  0  0  0  0  0  0  0  0
    3.0321   -0.9388    0.0000 O   0  0  0  0  0  0  0  0  0  0  0  0
    2.7563    1.2457    0.0000 N   0  0  0  0  0  0  0  0  0  0  0  0
    7.4810   -0.7652    0.0000 N   0  0  0  0  0  0  0  0  0  0  0  0
    7.0744    2.3125    0.0000 N   0  0  0  0  0  0  0  0  0  0  0  0
    3.5561   -2.3784    0.0000 N   0  0  0  0  0  0  0  0  0  0  0  0
    2.5826    2.2305    0.0000 N   0  0  0  0  0  0  0  0  0  0  0  0
    8.3471   -0.2652    0.0000 N   0  0  0  0  0  0  0  0  0  0  0  0
    6.7324    3.2522    0.0000 N   0  0  0  0  0  0  0  0  0  0  0  0
    4.1989   -3.1445    0.0000 N   0  0  0  0  0  0  0  0  0  0  0  0
    4.4620    1.5465    0.0000 C   0  0  3  0  0  0  0  0  0  0  0  0
    5.7490   -0.7652    0.0000 C   0  0  3  0  0  0  0  0  0  0  0  0
    3.8192    2.3125    0.0000 C   0  0  0  0  0  0  0  0  0  0  0  0
    6.6150   -1.2652    0.0000 C   0  0  0  0  0  0  0  0  0  0  0  0
    5.4468    1.7201    0.0000 C   0  0  0  0  0  0  0  0  0  0  0  0
    4.8830   -1.2652    0.0000 C   0  0  0  0  0  0  0  0  0  0  0  0
    3.6960    0.9037    0.0000 C   0  0  0  0  0  0  0  0  0  0  0  0
    6.6150   -0.2652    0.0000 C   0  0  0  0  0  0  0  0  0  0  0  0
    4.1612    3.2522    0.0000 C   0  0  0  0  0  0  0  0  0  0  0  0
    6.6150   -2.2652    0.0000 C   0  0  0  0  0  0  0  0  0  0  0  0
    5.7888    2.6598    0.0000 C   0  0  0  0  0  0  0  0  0  0  0  0
    4.8830   -2.2652    0.0000 C   0  0  0  0  0  0  0  0  0  0  0  0
    5.1460    3.4258    0.0000 C   0  0  0  0  0  0  0  0  0  0  0  0
    5.7490   -2.7652    0.0000 C   0  0  0  0  0  0  0  0  0  0  0  0
    6.4316    1.5465    0.0000 C   0  0  0  0  0  0  0  0  0  0  0  0
    3.8982   -1.4388    0.0000 C   0  0  0  0  0  0  0  0  0  0  0  0
    3.2823    2.6225    0.0000 H   0  0  0  0  0  0  0  0  0  0  0  0
    3.4207    1.8376    0.0000 H   0  0  0  0  0  0  0  0  0  0  0  0
    7.2256   -1.3728    0.0000 H   0  0  0  0  0  0  0  0  0  0  0  0
    6.8271   -0.6826    0.0000 H   0  0  0  0  0  0  0  0  0  0  0  0
    3.7627    3.7272    0.0000 H   0  0  0  0  0  0  0  0  0  0  0  0
    7.1519   -2.5752    0.0000 H   0  0  0  0  0  0  0  0  0  0  0  0
    6.3994    2.7675    0.0000 H   0  0  0  0  0  0  0  0  0  0  0  0
    4.3460   -2.5752    0.0000 H   0  0  0  0  0  0  0  0  0  0  0  0
    5.3581    4.0085    0.0000 H   0  0  0  0  0  0  0  0  0  0  0  0
    5.7490   -3.3852    0.0000 H   0  0  0  0  0  0  0  0  0  0  0  0
    2.2813    0.8472    0.0000 H   0  0  0  0  0  0  0  0  0  0  0  0
    7.4810   -1.3852    0.0000 H   0  0  0  0  0  0  0  0  0  0  0  0
    7.6850    2.2048    0.0000 H   0  0  0  0  0  0  0  0  0  0  0  0
    2.9456   -2.4862    0.0000 H   0  0  0  0  0  0  0  0  0  0  0  0
    2.0000    2.4426    0.0000 H   0  0  0  0  0  0  0  0  0  0  0  0
    3.0576    2.6290    0.0000 H   0  0  0  0  0  0  0  0  0  0  0  0
    8.8840   -0.5752    0.0000 H   0  0  0  0  0  0  0  0  0  0  0  0
    8.3471    0.3548    0.0000 H   0  0  0  0  0  0  0  0  0  0  0  0
    7.1309    3.7272    0.0000 H   0  0  0  0  0  0  0  0  0  0  0  0
    6.1218    3.3599    0.0000 H   0  0  0  0  0  0  0  0  0  0  0  0
    3.9868   -3.7272    0.0000 H   0  0  0  0  0  0  0  0  0  0  0  0
    4.8095   -3.0369    0.0000 H   0  0  0  0  0  0  0  0  0  0  0  0
  1  2  1  0  0  0  0
  1 15  1  0  0  0  0
  2 16  1  0  0  0  0
  3 21  2  0  0  0  0
  4 22  2  0  0  0  0
  5 29  2  0  0  0  0
  6 30  2  0  0  0  0
  7 11  1  0  0  0  0
  7 21  1  0  0  0  0
  7 41  1  0  0  0  0
  8 12  1  0  0  0  0
  8 22  1  0  0  0  0
  8 42  1  0  0  0  0
  9 13  1  0  0  0  0
  9 29  1  0  0  0  0
  9 43  1  0  0  0  0
 10 14  1  0  0  0  0
 10 30  1  0  0  0  0
 10 44  1  0  0  0  0
 11 45  1  0  0  0  0
 11 46  1  0  0  0  0
 12 47  1  0  0  0  0
 12 48  1  0  0  0  0
 13 49  1  0  0  0  0
 13 50  1  0  0  0  0
 14 51  1  0  0  0  0
 14 52  1  0  0  0  0
 15 17  1  0  0  0  0
 15 19  1  0  0  0  0
 15 21  1  0  0  0  0
 16 18  1  0  0  0  0
 16 20  1  0  0  0  0
 16 22  1  0  0  0  0
 17 23  1  0  0  0  0
 17 31  1  0  0  0  0
 17 32  1  0  0  0  0
 18 24  1  0  0  0  0
 18 33  1  0  0  0  0
 18 34  1  0  0  0  0
 19 25  2  0  0  0  0
 19 29  1  0  0  0  0
 20 26  2  0  0  0  0
 20 30  1  0  0  0  0
 23 27  2  0  0  0  0
 23 35  1  0  0  0  0
 24 28  2  0  0  0  0
 24 36  1  0  0  0  0
 25 27  1  0  0  0  0
 25 37  1  0  0  0  0
 26 28  1  0  0  0  0
 26 38  1  0  0  0  0
 27 39  1  0  0  0  0
 28 40  1  0  0  0  0
M  END
> <PUBCHEM_COMPOUND_CID>
506594
> <PUBCHEM_COMPOUND_CANONICALIZED>
1
> <PUBCHEM_CACTVS_COMPLEXITY>
801
> <PUBCHEM_CACTVS_HBOND_ACCEPTOR>
10
> <PUBCHEM_CACTVS_HBOND_DONOR>
8
> <PUBCHEM_CACTVS_ROTATABLE_BOND>
7
> <PUBCHEM_CACTVS_SUBSKEYS>
AAADceB7+ABgAAAAAAAAAAAAAAAAAAAAAAAgQAAAAAAAAAAAAAAAHgQYAAAADACBwAAAAABiAACIAiFSEACAAAAgAAIaKAEAAEgIABIAgQAAAAAAgAAIgYIdAAAKAAAAAAAAAAAAAAAAAAAAAAAAAAAAAA==
> <PUBCHEM_IUPAC_OPENEYE_NAME>
1-[[1,2-bis(hydrazinecarbonyl)cyclohexa-2,4-dien-1-yl]disulfanyl]cyclohexa-2,4-diene-1,2-dicarbohydrazide
> <PUBCHEM_IUPAC_CAS_NAME>
1-[[1,2-bis(hydrazinecarbonyl)-1-cyclohexa-2,4-dienyl]disulfanyl]cyclohexa-2,4-diene-1,2-dicarbohydrazide
> <PUBCHEM_IUPAC_NAME_MARKUP>
1-[[1,2-bis(hydrazinecarbonyl)cyclohexa-2,4-dien-1-yl]disulfanyl]cyclohexa-2,4-diene-1,2-dicarbohydrazide
> <PUBCHEM_IUPAC_NAME>
1-[[1,2-bis(hydrazinecarbonyl)cyclohexa-2,4-dien-1-yl]disulfanyl]cyclohexa-2,4-diene-1,2-dicarbohydrazide
> <PUBCHEM_IUPAC_SYSTEMATIC_NAME>
1-[[1,2-bis(aminocarbamoyl)cyclohexa-2,4-dien-1-yl]disulfanyl]cyclohexa-2,4-diene-1,2-dicarbohydrazide
> <PUBCHEM_IUPAC_TRADITIONAL_NAME>
1-[(1,2-dicarbazoylcyclohexa-2,4-dien-1-yl)disulfanyl]cyclohexa-2,4-diene-1,2-dicarbohydrazide
> <PUBCHEM_IUPAC_INCHI>
InChI=1S/C16H22N8O4S2/c17-21-11(25)9-5-1-3-7-15(9,13(27)23-19)29-30-16(14(28)24-20)8-4-2-6-10(16)12(26)22-18/h1-6H,7-8,17-20H2,(H,21,25)(H,22,26)(H,23,27)(H,24,28)
> <PUBCHEM_IUPAC_INCHIKEY>
KZXGXCCNPDGISG-UHFFFAOYSA-N
> <PUBCHEM_XLOGP3_AA>
-2.4
> <PUBCHEM_EXACT_MASS>
454.12054356
> <PUBCHEM_MOLECULAR_FORMULA>
C16H22N8O4S2
> <PUBCHEM_MOLECULAR_WEIGHT>
454.5
> <PUBCHEM_OPENEYE_CAN_SMILES>
C1C=CC=C(C1(C(=O)NN)SSC2(CC=CC=C2C(=O)NN)C(=O)NN)C(=O)NN
> <PUBCHEM_OPENEYE_ISO_SMILES>
C1C=CC=C(C1(C(=O)NN)SSC2(CC=CC=C2C(=O)NN)C(=O)NN)C(=O)NN
> <PUBCHEM_CACTVS_TPSA>
271
> <PUBCHEM_MONOISOTOPIC_WEIGHT>
454.12054356
> <PUBCHEM_TOTAL_CHARGE>
0
> <PUBCHEM_HEAVY_ATOM_COUNT>
30
> <PUBCHEM_ATOM_DEF_STEREO_COUNT>
0
> <PUBCHEM_ATOM_UDEF_STEREO_COUNT>
2
> <PUBCHEM_BOND_DEF_STEREO_COUNT>
0
> <PUBCHEM_BOND_UDEF_STEREO_COUNT>
0
> <PUBCHEM_ISOTOPIC_ATOM_COUNT>
0
> <PUBCHEM_COMPONENT_COUNT>
1
> <PUBCHEM_CACTVS_TAUTO_COUNT>
-1
> <PUBCHEM_COORDINATE_TYPE>
1
5
255
> <PUBCHEM_BONDANNOTATIONS>
15  21  3
16  22  3
$$$$
