506551
  -OEChem-10302200282D
 26 28  0     1  0  0  0  0  0999 V2000
    4.6783   -1.1409    0.0000 S   0  0  0  0  0  0  0  0  0  0  0  0
    7.8007    0.1639    0.0000 O   0  0  0  0  0  0  0  0  0  0  0  0
    6.5406    1.4239    0.0000 O   0  0  0  0  0  0  0  0  0  0  0  0
    7.8007   -0.8361    0.0000 C   0  0  3  0  0  0  0  0  0  0  0  0
    6.2619   -0.3361    0.0000 C   0  0  0  0  0  0  0  0  0  0  0  0
    5.2619   -0.3361    0.0000 C   0  0  0  0  0  0  0  0  0  0  0  0
    6.8497   -1.1452    0.0000 C   0  0  0  0  0  0  0  0  0  0  0  0
    3.7320    0.1639    0.0000 C   0  0  0  0  0  0  0  0  0  0  0  0
    4.6783    0.4686    0.0000 C   0  0  0  0  0  0  0  0  0  0  0  0
    3.7320   -0.8361    0.0000 C   0  0  0  0  0  0  0  0  0  0  0  0
    6.8497    0.4729    0.0000 C   0  0  0  0  0  0  0  0  0  0  0  0
    8.6097   -1.4239    0.0000 C   0  0  0  0  0  0  0  0  0  0  0  0
    2.8660    0.6639    0.0000 C   0  0  0  0  0  0  0  0  0  0  0  0
    2.8660   -1.3361    0.0000 C   0  0  0  0  0  0  0  0  0  0  0  0
    2.0000    0.1639    0.0000 C   0  0  0  0  0  0  0  0  0  0  0  0
    2.0000   -0.8361    0.0000 C   0  0  0  0  0  0  0  0  0  0  0  0
    8.3532   -0.5547    0.0000 H   0  0  0  0  0  0  0  0  0  0  0  0
    6.6581   -1.7348    0.0000 H   0  0  0  0  0  0  0  0  0  0  0  0
    4.8709    1.0579    0.0000 H   0  0  0  0  0  0  0  0  0  0  0  0
    8.2453   -1.9255    0.0000 H   0  0  0  0  0  0  0  0  0  0  0  0
    9.1113   -1.7884    0.0000 H   0  0  0  0  0  0  0  0  0  0  0  0
    8.9742   -0.9223    0.0000 H   0  0  0  0  0  0  0  0  0  0  0  0
    2.8660    1.2839    0.0000 H   0  0  0  0  0  0  0  0  0  0  0  0
    2.8660   -1.9561    0.0000 H   0  0  0  0  0  0  0  0  0  0  0  0
    1.4631    0.4739    0.0000 H   0  0  0  0  0  0  0  0  0  0  0  0
    1.4631   -1.1461    0.0000 H   0  0  0  0  0  0  0  0  0  0  0  0
  1  6  1  0  0  0  0
  1 10  1  0  0  0  0
  2  4  1  0  0  0  0
  2 11  1  0  0  0  0
  3 11  2  0  0  0  0
  4  7  1  0  0  0  0
  4 12  1  0  0  0  0
  4 17  1  0  0  0  0
  5  6  1  0  0  0  0
  5  7  2  0  0  0  0
  5 11  1  0  0  0  0
  6  9  2  0  0  0  0
  7 18  1  0  0  0  0
  8  9  1  0  0  0  0
  8 10  1  0  0  0  0
  8 13  2  0  0  0  0
  9 19  1  0  0  0  0
 10 14  2  0  0  0  0
 12 20  1  0  0  0  0
 12 21  1  0  0  0  0
 12 22  1  0  0  0  0
 13 15  1  0  0  0  0
 13 23  1  0  0  0  0
 14 16  1  0  0  0  0
 14 24  1  0  0  0  0
 15 16  2  0  0  0  0
 15 25  1  0  0  0  0
 16 26  1  0  0  0  0
M  END
> <PUBCHEM_COMPOUND_CID>
506551
> <PUBCHEM_COMPOUND_CANONICALIZED>
1
> <PUBCHEM_CACTVS_COMPLEXITY>
337
> <PUBCHEM_CACTVS_HBOND_ACCEPTOR>
3
> <PUBCHEM_CACTVS_HBOND_DONOR>
0
> <PUBCHEM_CACTVS_ROTATABLE_BOND>
1
> <PUBCHEM_CACTVS_SUBSKEYS>
AAADccBwMABAAAAAAAAAAAAAAAAAASIAAAAwAAAAAAAAAEgB8AAAGgQAAAAADBSg2AIyCcAABAiMAiDSCAADAIAgCBBIiBkAAMgIJDKgNRCCMAAkwAEoqYeIyLCOAAAAAAAEAAAAAAAAAAgAAAAAAAAAAA==
> <PUBCHEM_IUPAC_OPENEYE_NAME>
4-(benzothiophen-2-yl)-2-methyl-2H-furan-5-one
> <PUBCHEM_IUPAC_CAS_NAME>
4-(1-benzothiophen-2-yl)-2-methyl-2H-furan-5-one
> <PUBCHEM_IUPAC_NAME_MARKUP>
4-(1-benzothiophen-2-yl)-2-methyl-2<I>H</I>-furan-5-one
> <PUBCHEM_IUPAC_NAME>
4-(1-benzothiophen-2-yl)-2-methyl-2H-furan-5-one
> <PUBCHEM_IUPAC_SYSTEMATIC_NAME>
4-(1-benzothiophen-2-yl)-2-methyl-2H-furan-5-one
> <PUBCHEM_IUPAC_TRADITIONAL_NAME>
4-(benzothiophen-2-yl)-2-methyl-2H-furan-5-one
> <PUBCHEM_IUPAC_INCHI>
InChI=1S/C13H10O2S/c1-8-6-10(13(14)15-8)12-7-9-4-2-3-5-11(9)16-12/h2-8H,1H3
> <PUBCHEM_IUPAC_INCHIKEY>
XZVGKSALJXUPJO-UHFFFAOYSA-N
> <PUBCHEM_XLOGP3_AA>
3.3
> <PUBCHEM_EXACT_MASS>
230.04015073
> <PUBCHEM_MOLECULAR_FORMULA>
C13H10O2S
> <PUBCHEM_MOLECULAR_WEIGHT>
230.28
> <PUBCHEM_OPENEYE_CAN_SMILES>
CC1C=C(C(=O)O1)C2=CC3=CC=CC=C3S2
> <PUBCHEM_OPENEYE_ISO_SMILES>
CC1C=C(C(=O)O1)C2=CC3=CC=CC=C3S2
> <PUBCHEM_CACTVS_TPSA>
54.5
> <PUBCHEM_MONOISOTOPIC_WEIGHT>
230.04015073
> <PUBCHEM_TOTAL_CHARGE>
0
> <PUBCHEM_HEAVY_ATOM_COUNT>
16
> <PUBCHEM_ATOM_DEF_STEREO_COUNT>
0
> <PUBCHEM_ATOM_UDEF_STEREO_COUNT>
1
> <PUBCHEM_BOND_DEF_STEREO_COUNT>
0
> <PUBCHEM_BOND_UDEF_STEREO_COUNT>
0
> <PUBCHEM_ISOTOPIC_ATOM_COUNT>
0
> <PUBCHEM_COMPONENT_COUNT>
1
> <PUBCHEM_CACTVS_TAUTO_COUNT>
-1
> <PUBCHEM_COORDINATE_TYPE>
1
5
255
> <PUBCHEM_BONDANNOTATIONS>
1  10  8
1  6  8
10  14  8
13  15  8
14  16  8
15  16  8
4  12  3
6  9  8
8  10  8
8  13  8
8  9  8
$$$$
