506585
  -OEChem-10302200282D
 46 48  0     1  0  0  0  0  0999 V2000
    6.8660    2.7315    0.0000 N   0  0  0  0  0  0  0  0  0  0  0  0
    8.5981    1.7315    0.0000 N   0  0  0  0  0  0  0  0  0  0  0  0
    7.7320    0.2315    0.0000 N   0  0  0  0  0  0  0  0  0  0  0  0
    5.0000    3.2315    0.0000 N   0  0  0  0  0  0  0  0  0  0  0  0
    5.0000   -1.7685    0.0000 N   0  0  0  0  0  0  0  0  0  0  0  0
    6.7321   -1.7684    0.0000 N   0  0  0  0  0  0  0  0  0  0  0  0
    9.4641    0.2315    0.0000 N   0  0  0  0  0  0  0  0  0  0  0  0
    5.8661   -3.2685    0.0000 N   0  0  0  0  0  0  0  0  0  0  0  0
   10.3301    1.7315    0.0000 N   0  0  0  0  0  0  0  0  0  0  0  0
    5.0000    1.2315    0.0000 C   0  0  3  0  0  0  0  0  0  0  0  0
    6.0000    1.2315    0.0000 C   0  0  0  0  0  0  0  0  0  0  0  0
    5.0000    0.2316    0.0000 C   0  0  0  0  0  0  0  0  0  0  0  0
    6.8660    1.7315    0.0000 C   0  0  3  0  0  0  0  0  0  0  0  0
    4.0000    1.2315    0.0000 C   0  0  0  0  0  0  0  0  0  0  0  0
    5.8661   -0.2685    0.0000 C   0  0  0  0  0  0  0  0  0  0  0  0
    5.0000    2.2315    0.0000 C   0  0  0  0  0  0  0  0  0  0  0  0
    3.5000    0.3655    0.0000 C   0  0  0  0  0  0  0  0  0  0  0  0
    3.5000    2.0976    0.0000 C   0  0  0  0  0  0  0  0  0  0  0  0
    7.7320    1.2315    0.0000 C   0  0  0  0  0  0  0  0  0  0  0  0
    5.8661   -1.2685    0.0000 C   0  0  0  0  0  0  0  0  0  0  0  0
    2.5000    0.3655    0.0000 C   0  0  0  0  0  0  0  0  0  0  0  0
    2.5000    2.0976    0.0000 C   0  0  0  0  0  0  0  0  0  0  0  0
    2.0000    1.2315    0.0000 C   0  0  0  0  0  0  0  0  0  0  0  0
    9.4641    1.2315    0.0000 C   0  0  0  0  0  0  0  0  0  0  0  0
    8.5981   -0.2685    0.0000 C   0  0  0  0  0  0  0  0  0  0  0  0
    5.0000   -2.7685    0.0000 C   0  0  0  0  0  0  0  0  0  0  0  0
    6.7321   -2.7685    0.0000 C   0  0  0  0  0  0  0  0  0  0  0  0
    5.7880    0.6489    0.0000 H   0  0  0  0  0  0  0  0  0  0  0  0
    5.8395    1.8304    0.0000 H   0  0  0  0  0  0  0  0  0  0  0  0
    4.3894    0.3393    0.0000 H   0  0  0  0  0  0  0  0  0  0  0  0
    4.7879   -0.3510    0.0000 H   0  0  0  0  0  0  0  0  0  0  0  0
    7.4030    2.0415    0.0000 H   0  0  0  0  0  0  0  0  0  0  0  0
    6.4766   -0.3761    0.0000 H   0  0  0  0  0  0  0  0  0  0  0  0
    6.0781    0.3141    0.0000 H   0  0  0  0  0  0  0  0  0  0  0  0
    3.8100   -0.1714    0.0000 H   0  0  0  0  0  0  0  0  0  0  0  0
    3.8100    2.6345    0.0000 H   0  0  0  0  0  0  0  0  0  0  0  0
    7.4030    3.0415    0.0000 H   0  0  0  0  0  0  0  0  0  0  0  0
    6.5560    3.2685    0.0000 H   0  0  0  0  0  0  0  0  0  0  0  0
    2.1900   -0.1714    0.0000 H   0  0  0  0  0  0  0  0  0  0  0  0
    2.1900    2.6345    0.0000 H   0  0  0  0  0  0  0  0  0  0  0  0
    1.3800    1.2315    0.0000 H   0  0  0  0  0  0  0  0  0  0  0  0
    8.5981   -0.8885    0.0000 H   0  0  0  0  0  0  0  0  0  0  0  0
    4.4631   -3.0785    0.0000 H   0  0  0  0  0  0  0  0  0  0  0  0
    7.2690   -3.0785    0.0000 H   0  0  0  0  0  0  0  0  0  0  0  0
   10.8671    1.4215    0.0000 H   0  0  0  0  0  0  0  0  0  0  0  0
   10.3301    2.3515    0.0000 H   0  0  0  0  0  0  0  0  0  0  0  0
  1 13  1  0  0  0  0
  1 37  1  0  0  0  0
  1 38  1  0  0  0  0
  2 19  2  0  0  0  0
  2 24  1  0  0  0  0
  3 19  1  0  0  0  0
  3 25  2  0  0  0  0
  4 16  3  0  0  0  0
  5 20  2  0  0  0  0
  5 26  1  0  0  0  0
  6 20  1  0  0  0  0
  6 27  2  0  0  0  0
  7 24  2  0  0  0  0
  7 25  1  0  0  0  0
  8 26  2  0  0  0  0
  8 27  1  0  0  0  0
  9 24  1  0  0  0  0
  9 45  1  0  0  0  0
  9 46  1  0  0  0  0
 10 11  1  0  0  0  0
 10 12  1  0  0  0  0
 10 14  1  0  0  0  0
 10 16  1  0  0  0  0
 11 13  1  0  0  0  0
 11 28  1  0  0  0  0
 11 29  1  0  0  0  0
 12 15  1  0  0  0  0
 12 30  1  0  0  0  0
 12 31  1  0  0  0  0
 13 19  1  0  0  0  0
 13 32  1  0  0  0  0
 14 17  2  0  0  0  0
 14 18  1  0  0  0  0
 15 20  1  0  0  0  0
 15 33  1  0  0  0  0
 15 34  1  0  0  0  0
 17 21  1  0  0  0  0
 17 35  1  0  0  0  0
 18 22  2  0  0  0  0
 18 36  1  0  0  0  0
 21 23  2  0  0  0  0
 21 39  1  0  0  0  0
 22 23  1  0  0  0  0
 22 40  1  0  0  0  0
 23 41  1  0  0  0  0
 25 42  1  0  0  0  0
 26 43  1  0  0  0  0
 27 44  1  0  0  0  0
M  END
> <PUBCHEM_COMPOUND_CID>
506585
> <PUBCHEM_COMPOUND_CANONICALIZED>
1
> <PUBCHEM_CACTVS_COMPLEXITY>
494
> <PUBCHEM_CACTVS_HBOND_ACCEPTOR>
9
> <PUBCHEM_CACTVS_HBOND_DONOR>
2
> <PUBCHEM_CACTVS_ROTATABLE_BOND>
7
> <PUBCHEM_CACTVS_SUBSKEYS>
AAADceB7wAAAAAAAAAAAAAAAAAAAAAAAAAA8WIAAAAAAAAAB8AAAHAAQAAAADijBGwQ1EIZIEACwBiJjJAACgAkwAKAJyIA4AIiI6CKAmRCUIAAokAIIiA8QgMAPgAAAAAAAAAAAAAAAAAAAAAAAAAAAAA==
> <PUBCHEM_IUPAC_OPENEYE_NAME>
4-amino-4-(4-amino-1,3,5-triazin-2-yl)-2-phenyl-2-[2-(1,3,5-triazin-2-yl)ethyl]butanenitrile
> <PUBCHEM_IUPAC_CAS_NAME>
4-amino-4-(4-amino-1,3,5-triazin-2-yl)-2-phenyl-2-[2-(1,3,5-triazin-2-yl)ethyl]butanenitrile
> <PUBCHEM_IUPAC_NAME_MARKUP>
4-amino-4-(4-amino-1,3,5-triazin-2-yl)-2-phenyl-2-[2-(1,3,5-triazin-2-yl)ethyl]butanenitrile
> <PUBCHEM_IUPAC_NAME>
4-amino-4-(4-amino-1,3,5-triazin-2-yl)-2-phenyl-2-[2-(1,3,5-triazin-2-yl)ethyl]butanenitrile
> <PUBCHEM_IUPAC_SYSTEMATIC_NAME>
4-azanyl-4-(4-azanyl-1,3,5-triazin-2-yl)-2-phenyl-2-[2-(1,3,5-triazin-2-yl)ethyl]butanenitrile
> <PUBCHEM_IUPAC_TRADITIONAL_NAME>
4-amino-4-(4-amino-s-triazin-2-yl)-2-phenyl-2-[2-(s-triazin-2-yl)ethyl]butyronitrile
> <PUBCHEM_IUPAC_INCHI>
InChI=1S/C18H19N9/c19-9-18(13-4-2-1-3-5-13,7-6-15-23-10-22-11-24-15)8-14(20)16-25-12-26-17(21)27-16/h1-5,10-12,14H,6-8,20H2,(H2,21,25,26,27)
> <PUBCHEM_IUPAC_INCHIKEY>
RNAZXUPJGRVCHA-UHFFFAOYSA-N
> <PUBCHEM_XLOGP3_AA>
0.5
> <PUBCHEM_EXACT_MASS>
361.17634164
> <PUBCHEM_MOLECULAR_FORMULA>
C18H19N9
> <PUBCHEM_MOLECULAR_WEIGHT>
361.4
> <PUBCHEM_OPENEYE_CAN_SMILES>
C1=CC=C(C=C1)C(CCC2=NC=NC=N2)(CC(C3=NC(=NC=N3)N)N)C#N
> <PUBCHEM_OPENEYE_ISO_SMILES>
C1=CC=C(C=C1)C(CCC2=NC=NC=N2)(CC(C3=NC(=NC=N3)N)N)C#N
> <PUBCHEM_CACTVS_TPSA>
153
> <PUBCHEM_MONOISOTOPIC_WEIGHT>
361.17634164
> <PUBCHEM_TOTAL_CHARGE>
0
> <PUBCHEM_HEAVY_ATOM_COUNT>
27
> <PUBCHEM_ATOM_DEF_STEREO_COUNT>
0
> <PUBCHEM_ATOM_UDEF_STEREO_COUNT>
2
> <PUBCHEM_BOND_DEF_STEREO_COUNT>
0
> <PUBCHEM_BOND_UDEF_STEREO_COUNT>
0
> <PUBCHEM_ISOTOPIC_ATOM_COUNT>
0
> <PUBCHEM_COMPONENT_COUNT>
1
> <PUBCHEM_CACTVS_TAUTO_COUNT>
-1
> <PUBCHEM_COORDINATE_TYPE>
1
5
255
> <PUBCHEM_BONDANNOTATIONS>
13  1  3
10  12  3
14  17  8
14  18  8
17  21  8
18  22  8
2  19  8
2  24  8
21  23  8
22  23  8
3  19  8
3  25  8
5  20  8
5  26  8
6  20  8
6  27  8
7  24  8
7  25  8
8  26  8
8  27  8
$$$$
