506597
  -OEChem-10302200282D
 22 21  0     1  0  0  0  0  0999 V2000
    6.3301    1.2500    0.0000 S   0  0  0  0  0  0  0  0  0  0  0  0
    3.7320   -1.2500    0.0000 O   0  0  0  0  0  0  0  0  0  0  0  0
    5.4641   -1.2500    0.0000 O   0  0  0  0  0  0  0  0  0  0  0  0
    2.0000    0.7500    0.0000 O   0  0  0  0  0  0  0  0  0  0  0  0
    3.7320    0.7500    0.0000 N   0  0  0  0  0  0  0  0  0  0  0  0
    5.4641    0.7500    0.0000 C   0  0  0  0  0  0  0  0  0  0  0  0
    4.5981    0.2500    0.0000 C   0  0  2  0  0  0  0  0  0  0  0  0
    5.9641   -0.1160    0.0000 C   0  0  0  0  0  0  0  0  0  0  0  0
    4.9641    1.6160    0.0000 C   0  0  0  0  0  0  0  0  0  0  0  0
    4.5981   -0.7500    0.0000 C   0  0  0  0  0  0  0  0  0  0  0  0
    2.8660    0.2500    0.0000 C   0  0  0  0  0  0  0  0  0  0  0  0
    4.5981    0.8700    0.0000 H   0  0  0  0  0  0  0  0  0  0  0  0
    5.4272   -0.4260    0.0000 H   0  0  0  0  0  0  0  0  0  0  0  0
    6.2741   -0.6530    0.0000 H   0  0  0  0  0  0  0  0  0  0  0  0
    6.5010    0.1940    0.0000 H   0  0  0  0  0  0  0  0  0  0  0  0
    5.5010    1.9260    0.0000 H   0  0  0  0  0  0  0  0  0  0  0  0
    4.6541    2.1530    0.0000 H   0  0  0  0  0  0  0  0  0  0  0  0
    4.4272    1.3060    0.0000 H   0  0  0  0  0  0  0  0  0  0  0  0
    3.7320    1.3700    0.0000 H   0  0  0  0  0  0  0  0  0  0  0  0
    6.3301    1.8700    0.0000 H   0  0  0  0  0  0  0  0  0  0  0  0
    2.8660   -0.3700    0.0000 H   0  0  0  0  0  0  0  0  0  0  0  0
    3.7320   -1.8700    0.0000 H   0  0  0  0  0  0  0  0  0  0  0  0
  1  6  1  0  0  0  0
  1 20  1  0  0  0  0
  2 10  1  0  0  0  0
  2 22  1  0  0  0  0
  3 10  2  0  0  0  0
  4 11  2  0  0  0  0
  7  5  1  6  0  0  0
  5 11  1  0  0  0  0
  5 19  1  0  0  0  0
  6  7  1  0  0  0  0
  6  8  1  0  0  0  0
  6  9  1  0  0  0  0
  7 10  1  0  0  0  0
  7 12  1  0  0  0  0
  8 13  1  0  0  0  0
  8 14  1  0  0  0  0
  8 15  1  0  0  0  0
  9 16  1  0  0  0  0
  9 17  1  0  0  0  0
  9 18  1  0  0  0  0
 11 21  1  0  0  0  0
M  END
> <PUBCHEM_COMPOUND_CID>
506597
> <PUBCHEM_COMPOUND_CANONICALIZED>
1
> <PUBCHEM_CACTVS_COMPLEXITY>
169
> <PUBCHEM_CACTVS_HBOND_ACCEPTOR>
4
> <PUBCHEM_CACTVS_HBOND_DONOR>
3
> <PUBCHEM_CACTVS_ROTATABLE_BOND>
3
> <PUBCHEM_CACTVS_SUBSKEYS>
AAADccBiMABAAAAAAAAAAAAAAAAAAAAAAAAAAAAAAAAAAAAAAAAAHgQQCAAADCjBwAYCCALAAgQIAACQmAAAAAAAAAAAAIGIAAACABAAACAEQAAEBgAQAAAAAAAIAAAAAAAAAAAAAAAAAAAAAAAAAAAAAA==
> <PUBCHEM_IUPAC_OPENEYE_NAME>
(2S)-2-formamido-3-methyl-3-sulfanyl-butanoic acid
> <PUBCHEM_IUPAC_CAS_NAME>
(2S)-2-formamido-3-mercapto-3-methylbutanoic acid
> <PUBCHEM_IUPAC_NAME_MARKUP>
(2<I>S</I>)-2-formamido-3-methyl-3-sulfanylbutanoic acid
> <PUBCHEM_IUPAC_NAME>
(2S)-2-formamido-3-methyl-3-sulfanylbutanoic acid
> <PUBCHEM_IUPAC_SYSTEMATIC_NAME>
(2S)-2-formamido-3-methyl-3-sulfanyl-butanoic acid
> <PUBCHEM_IUPAC_TRADITIONAL_NAME>
(2S)-2-formamido-3-mercapto-3-methyl-butyric acid
> <PUBCHEM_IUPAC_INCHI>
InChI=1S/C6H11NO3S/c1-6(2,11)4(5(9)10)7-3-8/h3-4,11H,1-2H3,(H,7,8)(H,9,10)/t4-/m0/s1
> <PUBCHEM_IUPAC_INCHIKEY>
ANCLDHSEMKEXLS-BYPYZUCNSA-N
> <PUBCHEM_XLOGP3_AA>
0.1
> <PUBCHEM_EXACT_MASS>
177.04596439
> <PUBCHEM_MOLECULAR_FORMULA>
C6H11NO3S
> <PUBCHEM_MOLECULAR_WEIGHT>
177.22
> <PUBCHEM_OPENEYE_CAN_SMILES>
CC(C)(C(C(=O)O)NC=O)S
> <PUBCHEM_OPENEYE_ISO_SMILES>
CC(C)([C@H](C(=O)O)NC=O)S
> <PUBCHEM_CACTVS_TPSA>
67.4
> <PUBCHEM_MONOISOTOPIC_WEIGHT>
177.04596439
> <PUBCHEM_TOTAL_CHARGE>
0
> <PUBCHEM_HEAVY_ATOM_COUNT>
11
> <PUBCHEM_ATOM_DEF_STEREO_COUNT>
1
> <PUBCHEM_ATOM_UDEF_STEREO_COUNT>
0
> <PUBCHEM_BOND_DEF_STEREO_COUNT>
0
> <PUBCHEM_BOND_UDEF_STEREO_COUNT>
0
> <PUBCHEM_ISOTOPIC_ATOM_COUNT>
0
> <PUBCHEM_COMPONENT_COUNT>
1
> <PUBCHEM_CACTVS_TAUTO_COUNT>
-1
> <PUBCHEM_COORDINATE_TYPE>
1
5
255
> <PUBCHEM_BONDANNOTATIONS>
7  5  6
$$$$
