506584
  -OEChem-10302200282D
 38 41  0     1  0  0  0  0  0999 V2000
    4.2690   -3.6550    0.0000 Cl  0  0  0  0  0  0  0  0  0  0  0  0
    8.6793    0.6497    0.0000 O   0  0  0  0  0  0  0  0  0  0  0  0
    8.6793   -0.9597    0.0000 O   0  0  0  0  0  0  0  0  0  0  0  0
    4.2690    0.3450    0.0000 N   0  0  0  0  0  0  0  0  0  0  0  0
    5.1350    1.8450    0.0000 N   0  0  0  0  0  0  0  0  0  0  0  0
    3.4030    1.8450    0.0000 N   0  0  0  0  0  0  0  0  0  0  0  0
    2.5369    0.3450    0.0000 N   0  0  0  0  0  0  0  0  0  0  0  0
    4.2690    3.3450    0.0000 N   0  0  0  0  0  0  0  0  0  0  0  0
    5.1350    0.8450    0.0000 C   0  0  3  0  0  0  0  0  0  0  0  0
    6.0010    0.3450    0.0000 C   0  0  0  0  0  0  0  0  0  0  0  0
    4.2690   -0.6550    0.0000 C   0  0  0  0  0  0  0  0  0  0  0  0
    6.8671    0.8450    0.0000 C   0  0  0  0  0  0  0  0  0  0  0  0
    6.0010   -0.6550    0.0000 C   0  0  0  0  0  0  0  0  0  0  0  0
    7.7331    0.3450    0.0000 C   0  0  0  0  0  0  0  0  0  0  0  0
    3.4030    0.8450    0.0000 C   0  0  0  0  0  0  0  0  0  0  0  0
    7.7331   -0.6550    0.0000 C   0  0  0  0  0  0  0  0  0  0  0  0
    6.8671   -1.1550    0.0000 C   0  0  0  0  0  0  0  0  0  0  0  0
    4.2690    2.3450    0.0000 C   0  0  0  0  0  0  0  0  0  0  0  0
    3.4030   -1.1550    0.0000 C   0  0  0  0  0  0  0  0  0  0  0  0
    5.1350   -1.1550    0.0000 C   0  0  0  0  0  0  0  0  0  0  0  0
    9.2629   -0.1550    0.0000 C   0  0  0  0  0  0  0  0  0  0  0  0
    3.4030   -2.1550    0.0000 C   0  0  0  0  0  0  0  0  0  0  0  0
    5.1350   -2.1550    0.0000 C   0  0  0  0  0  0  0  0  0  0  0  0
    4.2690   -2.6550    0.0000 C   0  0  0  0  0  0  0  0  0  0  0  0
    5.1350    0.2250    0.0000 H   0  0  0  0  0  0  0  0  0  0  0  0
    6.8671    1.4650    0.0000 H   0  0  0  0  0  0  0  0  0  0  0  0
    5.4641   -0.9650    0.0000 H   0  0  0  0  0  0  0  0  0  0  0  0
    6.8671   -1.7750    0.0000 H   0  0  0  0  0  0  0  0  0  0  0  0
    2.8660   -0.8450    0.0000 H   0  0  0  0  0  0  0  0  0  0  0  0
    5.6720   -0.8450    0.0000 H   0  0  0  0  0  0  0  0  0  0  0  0
    9.7238   -0.5697    0.0000 H   0  0  0  0  0  0  0  0  0  0  0  0
    9.7238    0.2597    0.0000 H   0  0  0  0  0  0  0  0  0  0  0  0
    2.0000    0.6550    0.0000 H   0  0  0  0  0  0  0  0  0  0  0  0
    2.5369   -0.2750    0.0000 H   0  0  0  0  0  0  0  0  0  0  0  0
    2.8660   -2.4650    0.0000 H   0  0  0  0  0  0  0  0  0  0  0  0
    5.6720   -2.4650    0.0000 H   0  0  0  0  0  0  0  0  0  0  0  0
    3.7320    3.6550    0.0000 H   0  0  0  0  0  0  0  0  0  0  0  0
    4.8059    3.6550    0.0000 H   0  0  0  0  0  0  0  0  0  0  0  0
  1 24  1  0  0  0  0
  2 14  1  0  0  0  0
  2 21  1  0  0  0  0
  3 16  1  0  0  0  0
  3 21  1  0  0  0  0
  4  9  1  0  0  0  0
  4 11  1  0  0  0  0
  4 15  1  0  0  0  0
  5  9  1  0  0  0  0
  5 18  2  0  0  0  0
  6 15  2  0  0  0  0
  6 18  1  0  0  0  0
  7 15  1  0  0  0  0
  7 33  1  0  0  0  0
  7 34  1  0  0  0  0
  8 18  1  0  0  0  0
  8 37  1  0  0  0  0
  8 38  1  0  0  0  0
  9 10  1  0  0  0  0
  9 25  1  0  0  0  0
 10 12  2  0  0  0  0
 10 13  1  0  0  0  0
 11 19  2  0  0  0  0
 11 20  1  0  0  0  0
 12 14  1  0  0  0  0
 12 26  1  0  0  0  0
 13 17  2  0  0  0  0
 13 27  1  0  0  0  0
 14 16  2  0  0  0  0
 16 17  1  0  0  0  0
 17 28  1  0  0  0  0
 19 22  1  0  0  0  0
 19 29  1  0  0  0  0
 20 23  2  0  0  0  0
 20 30  1  0  0  0  0
 21 31  1  0  0  0  0
 21 32  1  0  0  0  0
 22 24  2  0  0  0  0
 22 35  1  0  0  0  0
 23 24  1  0  0  0  0
 23 36  1  0  0  0  0
M  END
> <PUBCHEM_COMPOUND_CID>
506584
> <PUBCHEM_COMPOUND_CANONICALIZED>
1
> <PUBCHEM_CACTVS_COMPLEXITY>
535
> <PUBCHEM_CACTVS_HBOND_ACCEPTOR>
3
> <PUBCHEM_CACTVS_HBOND_DONOR>
2
> <PUBCHEM_CACTVS_ROTATABLE_BOND>
2
> <PUBCHEM_CACTVS_SUBSKEYS>
AAADccB7sAAEAAAAAAAAAAAAAAAAASAAAAAwYIAAAAAAAEgBQAAAHgIQAAAADA7BmCcxzoNABACgAiRCZACCCAEhJwAJiAAO7oidJiLFu5ukMCpkwBPO6Cew0BIOIABBAAAAQABAAIIAAACAAAAAAAAAAA==
> <PUBCHEM_IUPAC_OPENEYE_NAME>
2-(1,3-benzodioxol-5-yl)-1-(4-chlorophenyl)-2H-1,3,5-triazine-4,6-diamine
> <PUBCHEM_IUPAC_CAS_NAME>
2-(1,3-benzodioxol-5-yl)-1-(4-chlorophenyl)-2H-1,3,5-triazine-4,6-diamine
> <PUBCHEM_IUPAC_NAME_MARKUP>
2-(1,3-benzodioxol-5-yl)-1-(4-chlorophenyl)-2<I>H</I>-1,3,5-triazine-4,6-diamine
> <PUBCHEM_IUPAC_NAME>
2-(1,3-benzodioxol-5-yl)-1-(4-chlorophenyl)-2H-1,3,5-triazine-4,6-diamine
> <PUBCHEM_IUPAC_SYSTEMATIC_NAME>
2-(1,3-benzodioxol-5-yl)-1-(4-chlorophenyl)-2H-1,3,5-triazine-4,6-diamine
> <PUBCHEM_IUPAC_TRADITIONAL_NAME>
[6-amino-2-(1,3-benzodioxol-5-yl)-1-(4-chlorophenyl)-2H-s-triazin-4-yl]amine
> <PUBCHEM_IUPAC_INCHI>
InChI=1S/C16H14ClN5O2/c17-10-2-4-11(5-3-10)22-14(20-15(18)21-16(22)19)9-1-6-12-13(7-9)24-8-23-12/h1-7,14H,8H2,(H4,18,19,20,21)
> <PUBCHEM_IUPAC_INCHIKEY>
ZTWNMFHIZNETIY-UHFFFAOYSA-N
> <PUBCHEM_XLOGP3_AA>
1.9
> <PUBCHEM_EXACT_MASS>
343.0836024
> <PUBCHEM_MOLECULAR_FORMULA>
C16H14ClN5O2
> <PUBCHEM_MOLECULAR_WEIGHT>
343.77
> <PUBCHEM_OPENEYE_CAN_SMILES>
C1OC2=C(O1)C=C(C=C2)C3N=C(N=C(N3C4=CC=C(C=C4)Cl)N)N
> <PUBCHEM_OPENEYE_ISO_SMILES>
C1OC2=C(O1)C=C(C=C2)C3N=C(N=C(N3C4=CC=C(C=C4)Cl)N)N
> <PUBCHEM_CACTVS_TPSA>
98.5
> <PUBCHEM_MONOISOTOPIC_WEIGHT>
343.0836024
> <PUBCHEM_TOTAL_CHARGE>
0
> <PUBCHEM_HEAVY_ATOM_COUNT>
24
> <PUBCHEM_ATOM_DEF_STEREO_COUNT>
0
> <PUBCHEM_ATOM_UDEF_STEREO_COUNT>
1
> <PUBCHEM_BOND_DEF_STEREO_COUNT>
0
> <PUBCHEM_BOND_UDEF_STEREO_COUNT>
0
> <PUBCHEM_ISOTOPIC_ATOM_COUNT>
0
> <PUBCHEM_COMPONENT_COUNT>
1
> <PUBCHEM_CACTVS_TAUTO_COUNT>
-1
> <PUBCHEM_COORDINATE_TYPE>
1
5
255
> <PUBCHEM_BONDANNOTATIONS>
10  12  8
10  13  8
11  19  8
11  20  8
12  14  8
13  17  8
14  16  8
16  17  8
19  22  8
20  23  8
22  24  8
23  24  8
9  10  3
$$$$
