506544
  -OEChem-10302200282D
 23 24  0     1  0  0  0  0  0999 V2000
    2.0000   -2.1739    0.0000 F   0  0  0  0  0  0  0  0  0  0  0  0
    3.7320   -3.1739    0.0000 F   0  0  0  0  0  0  0  0  0  0  0  0
    4.2320    2.3649    0.0000 O   0  0  0  0  0  0  0  0  0  0  0  0
    5.4921    1.1048    0.0000 O   0  0  0  0  0  0  0  0  0  0  0  0
    3.2320    2.3649    0.0000 C   0  0  3  0  0  0  0  0  0  0  0  0
    3.7320    0.8261    0.0000 C   0  0  0  0  0  0  0  0  0  0  0  0
    2.9230    1.4139    0.0000 C   0  0  0  0  0  0  0  0  0  0  0  0
    3.7320   -0.1739    0.0000 C   0  0  0  0  0  0  0  0  0  0  0  0
    4.5411    1.4139    0.0000 C   0  0  0  0  0  0  0  0  0  0  0  0
    2.6443    3.1739    0.0000 C   0  0  0  0  0  0  0  0  0  0  0  0
    2.8660   -0.6739    0.0000 C   0  0  0  0  0  0  0  0  0  0  0  0
    4.5981   -0.6739    0.0000 C   0  0  0  0  0  0  0  0  0  0  0  0
    2.8660   -1.6739    0.0000 C   0  0  0  0  0  0  0  0  0  0  0  0
    4.5981   -1.6739    0.0000 C   0  0  0  0  0  0  0  0  0  0  0  0
    3.7320   -2.1739    0.0000 C   0  0  0  0  0  0  0  0  0  0  0  0
    3.5135    2.9173    0.0000 H   0  0  0  0  0  0  0  0  0  0  0  0
    2.3334    1.2223    0.0000 H   0  0  0  0  0  0  0  0  0  0  0  0
    3.1459    3.5384    0.0000 H   0  0  0  0  0  0  0  0  0  0  0  0
    2.2798    3.6755    0.0000 H   0  0  0  0  0  0  0  0  0  0  0  0
    2.1427    2.8095    0.0000 H   0  0  0  0  0  0  0  0  0  0  0  0
    2.3291   -0.3639    0.0000 H   0  0  0  0  0  0  0  0  0  0  0  0
    5.1350   -0.3639    0.0000 H   0  0  0  0  0  0  0  0  0  0  0  0
    5.1350   -1.9839    0.0000 H   0  0  0  0  0  0  0  0  0  0  0  0
  1 13  1  0  0  0  0
  2 15  1  0  0  0  0
  3  5  1  0  0  0  0
  3  9  1  0  0  0  0
  4  9  2  0  0  0  0
  5  7  1  0  0  0  0
  5 10  1  0  0  0  0
  5 16  1  0  0  0  0
  6  7  2  0  0  0  0
  6  8  1  0  0  0  0
  6  9  1  0  0  0  0
  7 17  1  0  0  0  0
  8 11  2  0  0  0  0
  8 12  1  0  0  0  0
 10 18  1  0  0  0  0
 10 19  1  0  0  0  0
 10 20  1  0  0  0  0
 11 13  1  0  0  0  0
 11 21  1  0  0  0  0
 12 14  2  0  0  0  0
 12 22  1  0  0  0  0
 13 15  2  0  0  0  0
 14 15  1  0  0  0  0
 14 23  1  0  0  0  0
M  END
> <PUBCHEM_COMPOUND_CID>
506544
> <PUBCHEM_COMPOUND_CANONICALIZED>
1
> <PUBCHEM_CACTVS_COMPLEXITY>
301
> <PUBCHEM_CACTVS_HBOND_ACCEPTOR>
4
> <PUBCHEM_CACTVS_HBOND_DONOR>
0
> <PUBCHEM_CACTVS_ROTATABLE_BOND>
1
> <PUBCHEM_CACTVS_SUBSKEYS>
AAADccBwMYAAAAAAAAAAAAAAAAAAAQAAAAAwAAAAAAAAAAABAAAAGwAAAAAADBSgmAoyCIAABACIAiDSCAACAAAgAAAIiAEAAMgIJDKANRCCMAAkwAEIqYeIyKCOAAAAAAAAAAAAAAAAAAAAAAAAAAAAAA==
> <PUBCHEM_IUPAC_OPENEYE_NAME>
4-(3,4-difluorophenyl)-2-methyl-2H-furan-5-one
> <PUBCHEM_IUPAC_CAS_NAME>
4-(3,4-difluorophenyl)-2-methyl-2H-furan-5-one
> <PUBCHEM_IUPAC_NAME_MARKUP>
4-(3,4-difluorophenyl)-2-methyl-2<I>H</I>-furan-5-one
> <PUBCHEM_IUPAC_NAME>
4-(3,4-difluorophenyl)-2-methyl-2H-furan-5-one
> <PUBCHEM_IUPAC_SYSTEMATIC_NAME>
4-[3,4-bis(fluoranyl)phenyl]-2-methyl-2H-furan-5-one
> <PUBCHEM_IUPAC_TRADITIONAL_NAME>
4-(3,4-difluorophenyl)-2-methyl-2H-furan-5-one
> <PUBCHEM_IUPAC_INCHI>
InChI=1S/C11H8F2O2/c1-6-4-8(11(14)15-6)7-2-3-9(12)10(13)5-7/h2-6H,1H3
> <PUBCHEM_IUPAC_INCHIKEY>
YWUIWOXKJLMHRA-UHFFFAOYSA-N
> <PUBCHEM_XLOGP3_AA>
2.5
> <PUBCHEM_EXACT_MASS>
210.04923582
> <PUBCHEM_MOLECULAR_FORMULA>
C11H8F2O2
> <PUBCHEM_MOLECULAR_WEIGHT>
210.18
> <PUBCHEM_OPENEYE_CAN_SMILES>
CC1C=C(C(=O)O1)C2=CC(=C(C=C2)F)F
> <PUBCHEM_OPENEYE_ISO_SMILES>
CC1C=C(C(=O)O1)C2=CC(=C(C=C2)F)F
> <PUBCHEM_CACTVS_TPSA>
26.3
> <PUBCHEM_MONOISOTOPIC_WEIGHT>
210.04923582
> <PUBCHEM_TOTAL_CHARGE>
0
> <PUBCHEM_HEAVY_ATOM_COUNT>
15
> <PUBCHEM_ATOM_DEF_STEREO_COUNT>
0
> <PUBCHEM_ATOM_UDEF_STEREO_COUNT>
1
> <PUBCHEM_BOND_DEF_STEREO_COUNT>
0
> <PUBCHEM_BOND_UDEF_STEREO_COUNT>
0
> <PUBCHEM_ISOTOPIC_ATOM_COUNT>
0
> <PUBCHEM_COMPONENT_COUNT>
1
> <PUBCHEM_CACTVS_TAUTO_COUNT>
-1
> <PUBCHEM_COORDINATE_TYPE>
1
5
255
> <PUBCHEM_BONDANNOTATIONS>
11  13  8
12  14  8
13  15  8
14  15  8
5  10  3
8  11  8
8  12  8
$$$$
