506666
  -OEChem-10302200282D
 88 90  0     1  0  0  0  0  0999 V2000
    5.4641   -2.4076    0.0000 O   0  0  0  0  0  0  0  0  0  0  0  0
    8.8141    0.3129    0.0000 O   0  0  0  0  0  0  0  0  0  0  0  0
    9.4951   -0.8667    0.0000 O   0  0  0  0  0  0  0  0  0  0  0  0
    6.0562    2.6354    0.0000 O   0  0  0  0  0  0  0  0  0  0  0  0
    6.3301   -3.9076    0.0000 O   0  0  0  0  0  0  0  0  0  0  0  0
   11.7098   -3.7119    0.0000 O   0  0  0  0  0  0  0  0  0  0  0  0
    8.2709    5.4806    0.0000 O   0  0  0  0  0  0  0  0  0  0  0  0
    2.8660   -7.9076    0.0000 O   0  5  0  0  0  0  0  0  0  0  0  0
    2.0000   -6.4076    0.0000 O   0  0  0  0  0  0  0  0  0  0  0  0
    7.4128   -0.7052    0.0000 N   0  0  0  0  0  0  0  0  0  0  0  0
    7.6385    1.9309    0.0000 N   0  0  0  0  0  0  0  0  0  0  0  0
    9.3141   -2.5893    0.0000 N   0  0  0  0  0  0  0  0  0  0  0  0
    6.8697    4.4625    0.0000 N   0  0  0  0  0  0  0  0  0  0  0  0
    4.5981   -3.9076    0.0000 N   0  0  0  0  0  0  0  0  0  0  0  0
    7.0954    7.0986    0.0000 N   0  0  0  0  0  0  0  0  0  0  0  0
    2.8660   -6.9076    0.0000 N   0  3  0  0  0  0  0  0  0  0  0  0
    5.1063    6.8896    0.0000 N   0  0  0  0  0  0  0  0  0  0  0  0
    7.9128   -1.5712    0.0000 C   0  0  1  0  0  0  0  0  0  0  0  0
    7.2437   -2.3144    0.0000 C   0  0  0  0  0  0  0  0  0  0  0  0
    6.3301   -1.9076    0.0000 C   0  0  2  0  0  0  0  0  0  0  0  0
    6.4347   -0.9131    0.0000 C   0  0  0  0  0  0  0  0  0  0  0  0
    7.8195    0.2084    0.0000 C   0  0  0  0  0  0  0  0  0  0  0  0
    7.2318    1.0174    0.0000 C   0  0  2  0  0  0  0  0  0  0  0  0
    8.9073   -1.6757    0.0000 C   0  0  0  0  0  0  0  0  0  0  0  0
    6.2372    0.9128    0.0000 C   0  0  0  0  0  0  0  0  0  0  0  0
    5.6494    1.7219    0.0000 C   0  0  0  0  0  0  0  0  0  0  0  0
    5.8305   -0.0007    0.0000 C   0  0  0  0  0  0  0  0  0  0  0  0
   10.3086   -2.6938    0.0000 C   0  0  1  0  0  0  0  0  0  0  0  0
    7.0507    2.7399    0.0000 C   0  0  0  0  0  0  0  0  0  0  0  0
    7.4574    3.6535    0.0000 C   0  0  2  0  0  0  0  0  0  0  0  0
    5.4641   -3.4076    0.0000 C   0  0  0  0  0  0  0  0  0  0  0  0
    8.4520    3.7580    0.0000 C   0  0  0  0  0  0  0  0  0  0  0  0
   10.8964   -1.8848    0.0000 C   0  0  0  0  0  0  0  0  0  0  0  0
   10.7153   -3.6074    0.0000 C   0  0  0  0  0  0  0  0  0  0  0  0
    8.8587    4.6716    0.0000 C   0  0  0  0  0  0  0  0  0  0  0  0
    9.0398    2.9490    0.0000 C   0  0  0  0  0  0  0  0  0  0  0  0
   11.8909   -1.9893    0.0000 C   0  0  0  0  0  0  0  0  0  0  0  0
    7.2764    5.3760    0.0000 C   0  0  0  0  0  0  0  0  0  0  0  0
    4.5981   -4.9076    0.0000 C   0  0  0  0  0  0  0  0  0  0  0  0
    6.6886    6.1851    0.0000 C   0  0  0  0  0  0  0  0  0  0  0  0
    3.7320   -5.4076    0.0000 C   0  0  0  0  0  0  0  0  0  0  0  0
    5.4641   -5.4076    0.0000 C   0  0  0  0  0  0  0  0  0  0  0  0
    3.7320   -6.4076    0.0000 C   0  0  0  0  0  0  0  0  0  0  0  0
    5.4641   -6.4076    0.0000 C   0  0  0  0  0  0  0  0  0  0  0  0
    5.6941    6.0805    0.0000 C   0  0  0  0  0  0  0  0  0  0  0  0
    4.5981   -6.9076    0.0000 C   0  0  0  0  0  0  0  0  0  0  0  0
    6.5076    7.9076    0.0000 C   0  0  0  0  0  0  0  0  0  0  0  0
    5.5130    7.8031    0.0000 C   0  0  0  0  0  0  0  0  0  0  0  0
    8.2505   -1.0512    0.0000 H   0  0  0  0  0  0  0  0  0  0  0  0
    6.9337   -2.8513    0.0000 H   0  0  0  0  0  0  0  0  0  0  0  0
    7.7453   -2.6788    0.0000 H   0  0  0  0  0  0  0  0  0  0  0  0
    6.3626   -2.5268    0.0000 H   0  0  0  0  0  0  0  0  0  0  0  0
    6.3698   -0.2965    0.0000 H   0  0  0  0  0  0  0  0  0  0  0  0
    5.8147   -0.9131    0.0000 H   0  0  0  0  0  0  0  0  0  0  0  0
    6.8673    1.5190    0.0000 H   0  0  0  0  0  0  0  0  0  0  0  0
    6.6017    0.4113    0.0000 H   0  0  0  0  0  0  0  0  0  0  0  0
    8.2551    1.9957    0.0000 H   0  0  0  0  0  0  0  0  0  0  0  0
    8.9496   -3.0909    0.0000 H   0  0  0  0  0  0  0  0  0  0  0  0
    6.1510    2.0863    0.0000 H   0  0  0  0  0  0  0  0  0  0  0  0
    5.2850    2.2234    0.0000 H   0  0  0  0  0  0  0  0  0  0  0  0
    5.1479    1.3574    0.0000 H   0  0  0  0  0  0  0  0  0  0  0  0
    5.2641    0.2515    0.0000 H   0  0  0  0  0  0  0  0  0  0  0  0
    5.5783   -0.5671    0.0000 H   0  0  0  0  0  0  0  0  0  0  0  0
    6.3969   -0.2529    0.0000 H   0  0  0  0  0  0  0  0  0  0  0  0
    9.9442   -3.1954    0.0000 H   0  0  0  0  0  0  0  0  0  0  0  0
    6.8408    3.5887    0.0000 H   0  0  0  0  0  0  0  0  0  0  0  0
    8.1998    3.1916    0.0000 H   0  0  0  0  0  0  0  0  0  0  0  0
   11.0673   -1.2888    0.0000 H   0  0  0  0  0  0  0  0  0  0  0  0
   10.3391   -1.6130    0.0000 H   0  0  0  0  0  0  0  0  0  0  0  0
    6.2530    4.3977    0.0000 H   0  0  0  0  0  0  0  0  0  0  0  0
   10.3509   -4.1090    0.0000 H   0  0  0  0  0  0  0  0  0  0  0  0
    9.4251    4.4194    0.0000 H   0  0  0  0  0  0  0  0  0  0  0  0
    9.1109    5.2380    0.0000 H   0  0  0  0  0  0  0  0  0  0  0  0
    8.2923    4.9237    0.0000 H   0  0  0  0  0  0  0  0  0  0  0  0
    8.5382    2.5846    0.0000 H   0  0  0  0  0  0  0  0  0  0  0  0
    9.4042    2.4474    0.0000 H   0  0  0  0  0  0  0  0  0  0  0  0
    9.5413    3.3134    0.0000 H   0  0  0  0  0  0  0  0  0  0  0  0
    4.0611   -3.5976    0.0000 H   0  0  0  0  0  0  0  0  0  0  0  0
   11.8261   -2.6059    0.0000 H   0  0  0  0  0  0  0  0  0  0  0  0
   12.5075   -2.0541    0.0000 H   0  0  0  0  0  0  0  0  0  0  0  0
   11.9557   -1.3727    0.0000 H   0  0  0  0  0  0  0  0  0  0  0  0
    3.1951   -5.0976    0.0000 H   0  0  0  0  0  0  0  0  0  0  0  0
    6.0010   -5.0976    0.0000 H   0  0  0  0  0  0  0  0  0  0  0  0
    6.0010   -6.7176    0.0000 H   0  0  0  0  0  0  0  0  0  0  0  0
    5.4419    5.5141    0.0000 H   0  0  0  0  0  0  0  0  0  0  0  0
    4.5981   -7.5276    0.0000 H   0  0  0  0  0  0  0  0  0  0  0  0
    6.7597    8.4740    0.0000 H   0  0  0  0  0  0  0  0  0  0  0  0
    5.1486    8.3047    0.0000 H   0  0  0  0  0  0  0  0  0  0  0  0
 20  1  1  1  0  0  0
  1 31  1  0  0  0  0
  2 22  2  0  0  0  0
  3 24  2  0  0  0  0
  4 29  2  0  0  0  0
  5 31  2  0  0  0  0
  6 34  2  0  0  0  0
  7 38  2  0  0  0  0
  8 16  1  0  0  0  0
  9 16  2  0  0  0  0
 10 18  1  0  0  0  0
 10 21  1  0  0  0  0
 10 22  1  0  0  0  0
 23 11  1  6  0  0  0
 11 29  1  0  0  0  0
 11 57  1  0  0  0  0
 12 24  1  0  0  0  0
 28 12  1  1  0  0  0
 12 58  1  0  0  0  0
 30 13  1  1  0  0  0
 13 38  1  0  0  0  0
 13 70  1  0  0  0  0
 14 31  1  0  0  0  0
 14 39  1  0  0  0  0
 14 78  1  0  0  0  0
 15 40  2  0  0  0  0
 15 47  1  0  0  0  0
 16 43  1  0  0  0  0
 17 45  2  0  0  0  0
 17 48  1  0  0  0  0
 18 19  1  0  0  0  0
 18 24  1  6  0  0  0
 18 49  1  0  0  0  0
 19 20  1  0  0  0  0
 19 50  1  0  0  0  0
 19 51  1  0  0  0  0
 20 21  1  0  0  0  0
 20 52  1  0  0  0  0
 21 53  1  0  0  0  0
 21 54  1  0  0  0  0
 22 23  1  0  0  0  0
 23 25  1  0  0  0  0
 23 55  1  0  0  0  0
 25 26  1  0  0  0  0
 25 27  1  0  0  0  0
 25 56  1  0  0  0  0
 26 59  1  0  0  0  0
 26 60  1  0  0  0  0
 26 61  1  0  0  0  0
 27 62  1  0  0  0  0
 27 63  1  0  0  0  0
 27 64  1  0  0  0  0
 28 33  1  0  0  0  0
 28 34  1  0  0  0  0
 28 65  1  0  0  0  0
 29 30  1  0  0  0  0
 30 32  1  0  0  0  0
 30 66  1  0  0  0  0
 32 35  1  0  0  0  0
 32 36  1  0  0  0  0
 32 67  1  0  0  0  0
 33 37  1  0  0  0  0
 33 68  1  0  0  0  0
 33 69  1  0  0  0  0
 34 71  1  0  0  0  0
 35 72  1  0  0  0  0
 35 73  1  0  0  0  0
 35 74  1  0  0  0  0
 36 75  1  0  0  0  0
 36 76  1  0  0  0  0
 36 77  1  0  0  0  0
 37 79  1  0  0  0  0
 37 80  1  0  0  0  0
 37 81  1  0  0  0  0
 38 40  1  0  0  0  0
 39 41  2  0  0  0  0
 39 42  1  0  0  0  0
 40 45  1  0  0  0  0
 41 43  1  0  0  0  0
 41 82  1  0  0  0  0
 42 44  2  0  0  0  0
 42 83  1  0  0  0  0
 43 46  2  0  0  0  0
 44 46  1  0  0  0  0
 44 84  1  0  0  0  0
 45 85  1  0  0  0  0
 46 86  1  0  0  0  0
 47 48  2  0  0  0  0
 47 87  1  0  0  0  0
 48 88  1  0  0  0  0
M  CHG  2   8  -1  16   1
M  END
> <PUBCHEM_COMPOUND_CID>
506666
> <PUBCHEM_COMPOUND_CANONICALIZED>
1
> <PUBCHEM_CACTVS_COMPLEXITY>
1180
> <PUBCHEM_CACTVS_HBOND_ACCEPTOR>
11
> <PUBCHEM_CACTVS_HBOND_DONOR>
4
> <PUBCHEM_CACTVS_ROTATABLE_BOND>
14
> <PUBCHEM_CACTVS_SUBSKEYS>
AAADcfB7/AAAAAAAAAAAAAAAAAAAAWAAAAA8QAAAAAAAAAABwAAAHgAUAAAADTzhlgY+yJPYVACpAT133wCCgCQ3EiAo2IG4dMsKYHrA0fGdIIhmlgDYyMc6AQAIAAAAAAQAAAAAAAAACAAAAAAAAAAAAA==
> <PUBCHEM_IUPAC_OPENEYE_NAME>
[(3R,5S)-5-[[(1S)-1-formylpropyl]carbamoyl]-1-[(2S)-3-methyl-2-[[(2S)-3-methyl-2-(pyrazine-2-carbonylamino)butanoyl]amino]butanoyl]pyrrolidin-3-yl] N-(3-nitrophenyl)carbamate
> <PUBCHEM_IUPAC_CAS_NAME>
N-(3-nitrophenyl)carbamic acid [(3R,5S)-1-[(2S)-3-methyl-2-[[(2S)-3-methyl-1-oxo-2-[[oxo(2-pyrazinyl)methyl]amino]butyl]amino]-1-oxobutyl]-5-[oxo-[[(2S)-1-oxobutan-2-yl]amino]methyl]-3-pyrrolidinyl] ester
> <PUBCHEM_IUPAC_NAME_MARKUP>
[(3<I>R</I>,5<I>S</I>)-1-[(2<I>S</I>)-3-methyl-2-[[(2<I>S</I>)-3-methyl-2-(pyrazine-2-carbonylamino)butanoyl]amino]butanoyl]-5-[[(2<I>S</I>)-1-oxobutan-2-yl]carbamoyl]pyrrolidin-3-yl] <I>N</I>-(3-nitrophenyl)carbamate
> <PUBCHEM_IUPAC_NAME>
[(3R,5S)-1-[(2S)-3-methyl-2-[[(2S)-3-methyl-2-(pyrazine-2-carbonylamino)butanoyl]amino]butanoyl]-5-[[(2S)-1-oxobutan-2-yl]carbamoyl]pyrrolidin-3-yl] N-(3-nitrophenyl)carbamate
> <PUBCHEM_IUPAC_SYSTEMATIC_NAME>
[(3R,5S)-1-[(2S)-3-methyl-2-[[(2S)-3-methyl-2-(pyrazin-2-ylcarbonylamino)butanoyl]amino]butanoyl]-5-[[(2S)-1-oxidanylidenebutan-2-yl]carbamoyl]pyrrolidin-3-yl] N-(3-nitrophenyl)carbamate
> <PUBCHEM_IUPAC_TRADITIONAL_NAME>
N-(3-nitrophenyl)carbamic acid [(3R,5S)-5-[[(1S)-1-formylpropyl]carbamoyl]-1-[(2S)-3-methyl-2-[[(2S)-3-methyl-2-(pyrazinoylamino)butanoyl]amino]butanoyl]pyrrolidin-3-yl] ester
> <PUBCHEM_IUPAC_INCHI>
InChI=1S/C31H40N8O9/c1-6-19(16-40)34-28(42)24-13-22(48-31(45)35-20-8-7-9-21(12-20)39(46)47)15-38(24)30(44)26(18(4)5)37-29(43)25(17(2)3)36-27(41)23-14-32-10-11-33-23/h7-12,14,16-19,22,24-26H,6,13,15H2,1-5H3,(H,34,42)(H,35,45)(H,36,41)(H,37,43)/t19-,22+,24-,25-,26-/m0/s1
> <PUBCHEM_IUPAC_INCHIKEY>
BTIVQRRDEWORNX-QEZOGQQESA-N
> <PUBCHEM_XLOGP3_AA>
2.1
> <PUBCHEM_EXACT_MASS>
668.29182488
> <PUBCHEM_MOLECULAR_FORMULA>
C31H40N8O9
> <PUBCHEM_MOLECULAR_WEIGHT>
668.7
> <PUBCHEM_OPENEYE_CAN_SMILES>
CCC(C=O)NC(=O)C1CC(CN1C(=O)C(C(C)C)NC(=O)C(C(C)C)NC(=O)C2=NC=CN=C2)OC(=O)NC3=CC(=CC=C3)[N+](=O)[O-]
> <PUBCHEM_OPENEYE_ISO_SMILES>
CC[C@@H](C=O)NC(=O)[C@@H]1C[C@H](CN1C(=O)[C@H](C(C)C)NC(=O)[C@H](C(C)C)NC(=O)C2=NC=CN=C2)OC(=O)NC3=CC(=CC=C3)[N+](=O)[O-]
> <PUBCHEM_CACTVS_TPSA>
235
> <PUBCHEM_MONOISOTOPIC_WEIGHT>
668.29182488
> <PUBCHEM_TOTAL_CHARGE>
0
> <PUBCHEM_HEAVY_ATOM_COUNT>
48
> <PUBCHEM_ATOM_DEF_STEREO_COUNT>
5
> <PUBCHEM_ATOM_UDEF_STEREO_COUNT>
0
> <PUBCHEM_BOND_DEF_STEREO_COUNT>
0
> <PUBCHEM_BOND_UDEF_STEREO_COUNT>
0
> <PUBCHEM_ISOTOPIC_ATOM_COUNT>
0
> <PUBCHEM_COMPONENT_COUNT>
1
> <PUBCHEM_CACTVS_TAUTO_COUNT>
-1
> <PUBCHEM_COORDINATE_TYPE>
1
5
255
> <PUBCHEM_BONDANNOTATIONS>
20  1  5
23  11  6
28  12  5
30  13  5
15  40  8
15  47  8
17  45  8
17  48  8
18  24  6
39  41  8
39  42  8
40  45  8
41  43  8
42  44  8
43  46  8
44  46  8
47  48  8
$$$$
