506698
  -OEChem-10302200282D
108112  0     1  0  0  0  0  0999 V2000
    4.3179   -2.2440    0.0000 P   0  0  0  0  0  0  0  0  0  0  0  0
    6.0600    2.8531    0.0000 O   0  0  0  0  0  0  0  0  0  0  0  0
    8.4154   -0.7629    0.0000 O   0  0  0  0  0  0  0  0  0  0  0  0
    7.1711   -1.3169    0.0000 O   0  0  0  0  0  0  0  0  0  0  0  0
    3.3669   -2.5530    0.0000 O   0  0  0  0  0  0  0  0  0  0  0  0
    4.6270   -3.1950    0.0000 O   0  0  0  0  0  0  0  0  0  0  0  0
    4.0089   -1.2929    0.0000 O   0  0  0  0  0  0  0  0  0  0  0  0
   11.0135    1.7371    0.0000 O   0  0  0  0  0  0  0  0  0  0  0  0
   13.6116   -0.7629    0.0000 O   0  0  0  0  0  0  0  0  0  0  0  0
    7.5494    0.7371    0.0000 N   0  0  0  0  0  0  0  0  0  0  0  0
    5.4769   -0.9568    0.0000 N   0  0  0  0  0  0  0  0  0  0  0  0
   10.1475    0.2371    0.0000 N   0  0  0  0  0  0  0  0  0  0  0  0
   12.7456    0.7371    0.0000 N   0  0  0  0  0  0  0  0  0  0  0  0
   15.3436    0.2371    0.0000 N   0  0  0  0  0  0  0  0  0  0  0  0
   15.3436    2.2371    0.0000 N   0  0  0  0  0  0  0  0  0  0  0  0
    6.6359    0.3304    0.0000 C   0  0  1  0  0  0  0  0  0  0  0  0
    6.4667    1.9395    0.0000 C   0  0  2  0  0  0  0  0  0  0  0  0
    5.9667    1.0735    0.0000 C   0  0  0  0  0  0  0  0  0  0  0  0
    7.4449    1.7316    0.0000 C   0  0  0  0  0  0  0  0  0  0  0  0
    8.4154    0.2371    0.0000 C   0  0  0  0  0  0  0  0  0  0  0  0
    9.2815    0.7371    0.0000 C   0  0  2  0  0  0  0  0  0  0  0  0
    6.4280   -0.6478    0.0000 C   0  0  0  0  0  0  0  0  0  0  0  0
    9.2815    1.7371    0.0000 C   0  0  0  0  0  0  0  0  0  0  0  0
    5.2690   -1.9350    0.0000 C   0  0  1  0  0  0  0  0  0  0  0  0
    5.0655    2.9576    0.0000 C   0  0  0  0  0  0  0  0  0  0  0  0
    8.4154    2.2371    0.0000 C   0  0  0  0  0  0  0  0  0  0  0  0
   10.1475    2.2371    0.0000 C   0  0  0  0  0  0  0  0  0  0  0  0
    6.0121   -2.6041    0.0000 C   0  0  0  0  0  0  0  0  0  0  0  0
   11.0135    0.7371    0.0000 C   0  0  0  0  0  0  0  0  0  0  0  0
   11.8795    0.2371    0.0000 C   0  0  2  0  0  0  0  0  0  0  0  0
    4.6588    3.8711    0.0000 C   0  0  0  0  0  0  0  0  0  0  0  0
   11.8795   -0.7629    0.0000 C   0  0  0  0  0  0  0  0  0  0  0  0
    6.9632   -2.2951    0.0000 C   0  0  0  0  0  0  0  0  0  0  0  0
   11.0135   -1.2629    0.0000 C   0  0  0  0  0  0  0  0  0  0  0  0
   12.7456   -1.2629    0.0000 C   0  0  0  0  0  0  0  0  0  0  0  0
    5.2465    4.6802    0.0000 C   0  0  0  0  0  0  0  0  0  0  0  0
    3.6642    3.9757    0.0000 C   0  0  0  0  0  0  0  0  0  0  0  0
    3.1590   -3.5311    0.0000 C   0  0  0  0  0  0  0  0  0  0  0  0
    5.2426   -3.9830    0.0000 C   0  0  0  0  0  0  0  0  0  0  0  0
    4.8398    5.5937    0.0000 C   0  0  0  0  0  0  0  0  0  0  0  0
    3.2575    4.8892    0.0000 C   0  0  0  0  0  0  0  0  0  0  0  0
   13.6116    0.2371    0.0000 C   0  0  0  0  0  0  0  0  0  0  0  0
    3.8453    5.6982    0.0000 C   0  0  0  0  0  0  0  0  0  0  0  0
    3.9021   -4.2003    0.0000 C   0  0  0  0  0  0  0  0  0  0  0  0
    4.8680   -4.9102    0.0000 C   0  0  0  0  0  0  0  0  0  0  0  0
    2.2079   -3.8402    0.0000 C   0  0  0  0  0  0  0  0  0  0  0  0
    6.2329   -3.8439    0.0000 C   0  0  0  0  0  0  0  0  0  0  0  0
   14.4776    0.7371    0.0000 C   0  0  0  0  0  0  0  0  0  0  0  0
    3.6942   -5.1784    0.0000 C   0  0  0  0  0  0  0  0  0  0  0  0
    5.4837   -5.6982    0.0000 C   0  0  0  0  0  0  0  0  0  0  0  0
    2.0000   -4.8183    0.0000 C   0  0  0  0  0  0  0  0  0  0  0  0
    6.8485   -4.6319    0.0000 C   0  0  0  0  0  0  0  0  0  0  0  0
    2.7431   -5.4874    0.0000 C   0  0  0  0  0  0  0  0  0  0  0  0
    6.4739   -5.5591    0.0000 C   0  0  0  0  0  0  0  0  0  0  0  0
   14.4776    1.7371    0.0000 C   0  0  0  0  0  0  0  0  0  0  0  0
   16.2097    0.7371    0.0000 C   0  0  0  0  0  0  0  0  0  0  0  0
   16.2097    1.7371    0.0000 C   0  0  0  0  0  0  0  0  0  0  0  0
    7.1177   -0.0598    0.0000 H   0  0  0  0  0  0  0  0  0  0  0  0
    5.8476    1.9720    0.0000 H   0  0  0  0  0  0  0  0  0  0  0  0
    5.4652    1.4379    0.0000 H   0  0  0  0  0  0  0  0  0  0  0  0
    5.5519    0.6128    0.0000 H   0  0  0  0  0  0  0  0  0  0  0  0
    8.0649    1.7316    0.0000 H   0  0  0  0  0  0  0  0  0  0  0  0
    7.5097    2.3482    0.0000 H   0  0  0  0  0  0  0  0  0  0  0  0
    9.2815    0.1171    0.0000 H   0  0  0  0  0  0  0  0  0  0  0  0
    9.8184    1.4271    0.0000 H   0  0  0  0  0  0  0  0  0  0  0  0
    5.0162   -0.5419    0.0000 H   0  0  0  0  0  0  0  0  0  0  0  0
    5.8586   -1.7434    0.0000 H   0  0  0  0  0  0  0  0  0  0  0  0
   10.1475   -0.3829    0.0000 H   0  0  0  0  0  0  0  0  0  0  0  0
    4.4639    2.8076    0.0000 H   0  0  0  0  0  0  0  0  0  0  0  0
    5.1087    2.3391    0.0000 H   0  0  0  0  0  0  0  0  0  0  0  0
    8.7254    2.7740    0.0000 H   0  0  0  0  0  0  0  0  0  0  0  0
    7.8785    2.5471    0.0000 H   0  0  0  0  0  0  0  0  0  0  0  0
    8.1054    1.7002    0.0000 H   0  0  0  0  0  0  0  0  0  0  0  0
   10.4575    1.7002    0.0000 H   0  0  0  0  0  0  0  0  0  0  0  0
   10.6844    2.5471    0.0000 H   0  0  0  0  0  0  0  0  0  0  0  0
    9.8375    2.7740    0.0000 H   0  0  0  0  0  0  0  0  0  0  0  0
    5.5236   -2.9858    0.0000 H   0  0  0  0  0  0  0  0  0  0  0  0
    6.3032   -3.1515    0.0000 H   0  0  0  0  0  0  0  0  0  0  0  0
   11.8795    0.8571    0.0000 H   0  0  0  0  0  0  0  0  0  0  0  0
   11.3426   -0.4529    0.0000 H   0  0  0  0  0  0  0  0  0  0  0  0
    7.1548   -2.8847    0.0000 H   0  0  0  0  0  0  0  0  0  0  0  0
    7.5528   -2.1035    0.0000 H   0  0  0  0  0  0  0  0  0  0  0  0
    6.7716   -1.7054    0.0000 H   0  0  0  0  0  0  0  0  0  0  0  0
   12.7456    1.3571    0.0000 H   0  0  0  0  0  0  0  0  0  0  0  0
   10.7035   -0.7260    0.0000 H   0  0  0  0  0  0  0  0  0  0  0  0
   10.4766   -1.5729    0.0000 H   0  0  0  0  0  0  0  0  0  0  0  0
   11.3235   -1.7998    0.0000 H   0  0  0  0  0  0  0  0  0  0  0  0
   12.4356   -1.7998    0.0000 H   0  0  0  0  0  0  0  0  0  0  0  0
   13.2825   -1.5729    0.0000 H   0  0  0  0  0  0  0  0  0  0  0  0
   13.0556   -0.7260    0.0000 H   0  0  0  0  0  0  0  0  0  0  0  0
    5.8631    4.6154    0.0000 H   0  0  0  0  0  0  0  0  0  0  0  0
    3.2998    3.4741    0.0000 H   0  0  0  0  0  0  0  0  0  0  0  0
    5.2042    6.0953    0.0000 H   0  0  0  0  0  0  0  0  0  0  0  0
    2.6409    4.9540    0.0000 H   0  0  0  0  0  0  0  0  0  0  0  0
    3.5931    6.2646    0.0000 H   0  0  0  0  0  0  0  0  0  0  0  0
    4.4918   -4.0087    0.0000 H   0  0  0  0  0  0  0  0  0  0  0  0
    4.2540   -4.9965    0.0000 H   0  0  0  0  0  0  0  0  0  0  0  0
    1.7472   -3.4253    0.0000 H   0  0  0  0  0  0  0  0  0  0  0  0
    6.4651   -3.2690    0.0000 H   0  0  0  0  0  0  0  0  0  0  0  0
    4.1550   -5.5933    0.0000 H   0  0  0  0  0  0  0  0  0  0  0  0
    5.2514   -6.2731    0.0000 H   0  0  0  0  0  0  0  0  0  0  0  0
    1.4103   -5.0099    0.0000 H   0  0  0  0  0  0  0  0  0  0  0  0
    7.4625   -4.5456    0.0000 H   0  0  0  0  0  0  0  0  0  0  0  0
    2.6142   -6.0939    0.0000 H   0  0  0  0  0  0  0  0  0  0  0  0
    6.8556   -6.0476    0.0000 H   0  0  0  0  0  0  0  0  0  0  0  0
   13.9407    2.0471    0.0000 H   0  0  0  0  0  0  0  0  0  0  0  0
   16.7466    0.4271    0.0000 H   0  0  0  0  0  0  0  0  0  0  0  0
   16.7466    2.0471    0.0000 H   0  0  0  0  0  0  0  0  0  0  0  0
  1  5  1  0  0  0  0
  1  6  1  0  0  0  0
  1  7  2  0  0  0  0
  1 24  1  0  0  0  0
 17  2  1  1  0  0  0
  2 25  1  0  0  0  0
  3 20  2  0  0  0  0
  4 22  2  0  0  0  0
  5 38  1  0  0  0  0
  6 39  1  0  0  0  0
  8 29  2  0  0  0  0
  9 42  2  0  0  0  0
 10 16  1  0  0  0  0
 10 19  1  0  0  0  0
 10 20  1  0  0  0  0
 11 22  1  0  0  0  0
 24 11  1  1  0  0  0
 11 66  1  0  0  0  0
 21 12  1  6  0  0  0
 12 29  1  0  0  0  0
 12 68  1  0  0  0  0
 30 13  1  1  0  0  0
 13 42  1  0  0  0  0
 13 84  1  0  0  0  0
 14 48  2  0  0  0  0
 14 56  1  0  0  0  0
 15 55  2  0  0  0  0
 15 57  1  0  0  0  0
 16 18  1  0  0  0  0
 16 22  1  6  0  0  0
 16 58  1  0  0  0  0
 17 18  1  0  0  0  0
 17 19  1  0  0  0  0
 17 59  1  0  0  0  0
 18 60  1  0  0  0  0
 18 61  1  0  0  0  0
 19 62  1  0  0  0  0
 19 63  1  0  0  0  0
 20 21  1  0  0  0  0
 21 23  1  0  0  0  0
 21 64  1  0  0  0  0
 23 26  1  0  0  0  0
 23 27  1  0  0  0  0
 23 65  1  0  0  0  0
 24 28  1  0  0  0  0
 24 67  1  0  0  0  0
 25 31  1  0  0  0  0
 25 69  1  0  0  0  0
 25 70  1  0  0  0  0
 26 71  1  0  0  0  0
 26 72  1  0  0  0  0
 26 73  1  0  0  0  0
 27 74  1  0  0  0  0
 27 75  1  0  0  0  0
 27 76  1  0  0  0  0
 28 33  1  0  0  0  0
 28 77  1  0  0  0  0
 28 78  1  0  0  0  0
 29 30  1  0  0  0  0
 30 32  1  0  0  0  0
 30 79  1  0  0  0  0
 31 36  2  0  0  0  0
 31 37  1  0  0  0  0
 32 34  1  0  0  0  0
 32 35  1  0  0  0  0
 32 80  1  0  0  0  0
 33 81  1  0  0  0  0
 33 82  1  0  0  0  0
 33 83  1  0  0  0  0
 34 85  1  0  0  0  0
 34 86  1  0  0  0  0
 34 87  1  0  0  0  0
 35 88  1  0  0  0  0
 35 89  1  0  0  0  0
 35 90  1  0  0  0  0
 36 40  1  0  0  0  0
 36 91  1  0  0  0  0
 37 41  2  0  0  0  0
 37 92  1  0  0  0  0
 38 44  2  0  0  0  0
 38 46  1  0  0  0  0
 39 45  2  0  0  0  0
 39 47  1  0  0  0  0
 40 43  2  0  0  0  0
 40 93  1  0  0  0  0
 41 43  1  0  0  0  0
 41 94  1  0  0  0  0
 42 48  1  0  0  0  0
 43 95  1  0  0  0  0
 44 49  1  0  0  0  0
 44 96  1  0  0  0  0
 45 50  1  0  0  0  0
 45 97  1  0  0  0  0
 46 51  2  0  0  0  0
 46 98  1  0  0  0  0
 47 52  2  0  0  0  0
 47 99  1  0  0  0  0
 48 55  1  0  0  0  0
 49 53  2  0  0  0  0
 49100  1  0  0  0  0
 50 54  2  0  0  0  0
 50101  1  0  0  0  0
 51 53  1  0  0  0  0
 51102  1  0  0  0  0
 52 54  1  0  0  0  0
 52103  1  0  0  0  0
 53104  1  0  0  0  0
 54105  1  0  0  0  0
 55106  1  0  0  0  0
 56 57  2  0  0  0  0
 56107  1  0  0  0  0
 57108  1  0  0  0  0
M  END
> <PUBCHEM_COMPOUND_CID>
506698
> <PUBCHEM_COMPOUND_CANONICALIZED>
1
> <PUBCHEM_CACTVS_COMPLEXITY>
1330
> <PUBCHEM_CACTVS_HBOND_ACCEPTOR>
10
> <PUBCHEM_CACTVS_HBOND_DONOR>
3
> <PUBCHEM_CACTVS_ROTATABLE_BOND>
18
> <PUBCHEM_CACTVS_SUBSKEYS>
AAADcfB/vAIAAAAAAAAAAAAAAAAAAWAAAAA8YMEAAAAAAAAB1AAAHggQACAADTzpngY+hpPIFRCoQzV3VICCgCQ3MiAI2IG+fMgKZnrA8TqXMIgm1hHYqMe6wSAOAAAAAAAAAAAAAAAAAAAAAAAAAAAAAA==
> <PUBCHEM_IUPAC_OPENEYE_NAME>
N-[(1S)-1-[[(1S)-1-[(2S,4R)-4-benzyloxy-2-[[(1R)-1-diphenoxyphosphorylpropyl]carbamoyl]pyrrolidine-1-carbonyl]-2-methyl-propyl]carbamoyl]-2-methyl-propyl]pyrazine-2-carboxamide
> <PUBCHEM_IUPAC_CAS_NAME>
N-[(2S)-1-[[(2S)-1-[(2S,4R)-2-[[[(1R)-1-diphenoxyphosphorylpropyl]amino]-oxomethyl]-4-phenylmethoxy-1-pyrrolidinyl]-3-methyl-1-oxobutan-2-yl]amino]-3-methyl-1-oxobutan-2-yl]-2-pyrazinecarboxamide
> <PUBCHEM_IUPAC_NAME_MARKUP>
<I>N</I>-[(2<I>S</I>)-1-[[(2<I>S</I>)-1-[(2<I>S</I>,4<I>R</I>)-2-[[(1<I>R</I>)-1-diphenoxyphosphorylpropyl]carbamoyl]-4-phenylmethoxypyrrolidin-1-yl]-3-methyl-1-oxobutan-2-yl]amino]-3-methyl-1-oxobutan-2-yl]pyrazine-2-carboxamide
> <PUBCHEM_IUPAC_NAME>
N-[(2S)-1-[[(2S)-1-[(2S,4R)-2-[[(1R)-1-diphenoxyphosphorylpropyl]carbamoyl]-4-phenylmethoxypyrrolidin-1-yl]-3-methyl-1-oxobutan-2-yl]amino]-3-methyl-1-oxobutan-2-yl]pyrazine-2-carboxamide
> <PUBCHEM_IUPAC_SYSTEMATIC_NAME>
N-[(2S)-1-[[(2S)-1-[(2S,4R)-2-[[(1R)-1-diphenoxyphosphorylpropyl]carbamoyl]-4-phenylmethoxy-pyrrolidin-1-yl]-3-methyl-1-oxidanylidene-butan-2-yl]amino]-3-methyl-1-oxidanylidene-butan-2-yl]pyrazine-2-carboxamide
> <PUBCHEM_IUPAC_TRADITIONAL_NAME>
N-[(1S)-1-[[(1S)-1-[(2S,4R)-4-benzoxy-2-[[(1R)-1-diphenoxyphosphorylpropyl]carbamoyl]pyrrolidine-1-carbonyl]-2-methyl-propyl]carbamoyl]-2-methyl-propyl]pyrazinamide
> <PUBCHEM_IUPAC_INCHI>
InChI=1S/C42H51N6O8P/c1-6-36(57(53,55-31-18-12-8-13-19-31)56-32-20-14-9-15-21-32)45-40(50)35-24-33(54-27-30-16-10-7-11-17-30)26-48(35)42(52)38(29(4)5)47-41(51)37(28(2)3)46-39(49)34-25-43-22-23-44-34/h7-23,25,28-29,33,35-38H,6,24,26-27H2,1-5H3,(H,45,50)(H,46,49)(H,47,51)/t33-,35+,36-,37+,38+/m1/s1
> <PUBCHEM_IUPAC_INCHIKEY>
DENVDURCYLFXDZ-WRDLQXFXSA-N
> <PUBCHEM_XLOGP3_AA>
5.9
> <PUBCHEM_EXACT_MASS>
798.35059960
> <PUBCHEM_MOLECULAR_FORMULA>
C42H51N6O8P
> <PUBCHEM_MOLECULAR_WEIGHT>
798.9
> <PUBCHEM_OPENEYE_CAN_SMILES>
CCC(NC(=O)C1CC(CN1C(=O)C(C(C)C)NC(=O)C(C(C)C)NC(=O)C2=NC=CN=C2)OCC3=CC=CC=C3)P(=O)(OC4=CC=CC=C4)OC5=CC=CC=C5
> <PUBCHEM_OPENEYE_ISO_SMILES>
CC[C@H](NC(=O)[C@@H]1C[C@H](CN1C(=O)[C@H](C(C)C)NC(=O)[C@H](C(C)C)NC(=O)C2=NC=CN=C2)OCC3=CC=CC=C3)P(=O)(OC4=CC=CC=C4)OC5=CC=CC=C5
> <PUBCHEM_CACTVS_TPSA>
178
> <PUBCHEM_MONOISOTOPIC_WEIGHT>
798.35059960
> <PUBCHEM_TOTAL_CHARGE>
0
> <PUBCHEM_HEAVY_ATOM_COUNT>
57
> <PUBCHEM_ATOM_DEF_STEREO_COUNT>
5
> <PUBCHEM_ATOM_UDEF_STEREO_COUNT>
0
> <PUBCHEM_BOND_DEF_STEREO_COUNT>
0
> <PUBCHEM_BOND_UDEF_STEREO_COUNT>
0
> <PUBCHEM_ISOTOPIC_ATOM_COUNT>
0
> <PUBCHEM_COMPONENT_COUNT>
1
> <PUBCHEM_CACTVS_TAUTO_COUNT>
-1
> <PUBCHEM_COORDINATE_TYPE>
1
5
255
> <PUBCHEM_BONDANNOTATIONS>
24  11  5
21  12  6
30  13  5
14  48  8
14  56  8
15  55  8
15  57  8
16  22  6
17  2  5
31  36  8
31  37  8
36  40  8
37  41  8
38  44  8
38  46  8
39  45  8
39  47  8
40  43  8
41  43  8
44  49  8
45  50  8
46  51  8
47  52  8
48  55  8
49  53  8
50  54  8
51  53  8
52  54  8
56  57  8
$$$$
