506665
  -OEChem-10302200282D
 88 90  0     1  0  0  0  0  0999 V2000
    3.7320   -2.1576    0.0000 O   0  0  0  0  0  0  0  0  0  0  0  0
    7.0820    0.5629    0.0000 O   0  0  0  0  0  0  0  0  0  0  0  0
    7.7631   -0.6167    0.0000 O   0  0  0  0  0  0  0  0  0  0  0  0
    4.3241    2.8854    0.0000 O   0  0  0  0  0  0  0  0  0  0  0  0
    4.5981   -3.6576    0.0000 O   0  0  0  0  0  0  0  0  0  0  0  0
    9.9778   -3.4619    0.0000 O   0  0  0  0  0  0  0  0  0  0  0  0
    6.5389    5.7306    0.0000 O   0  0  0  0  0  0  0  0  0  0  0  0
    2.0000   -8.1576    0.0000 O   0  5  0  0  0  0  0  0  0  0  0  0
    3.7320   -8.1576    0.0000 O   0  0  0  0  0  0  0  0  0  0  0  0
    5.6808   -0.4552    0.0000 N   0  0  0  0  0  0  0  0  0  0  0  0
    5.9064    2.1809    0.0000 N   0  0  0  0  0  0  0  0  0  0  0  0
    7.5820   -2.3393    0.0000 N   0  0  0  0  0  0  0  0  0  0  0  0
    5.1376    4.7125    0.0000 N   0  0  0  0  0  0  0  0  0  0  0  0
    2.8660   -3.6576    0.0000 N   0  0  0  0  0  0  0  0  0  0  0  0
    3.9620    6.3305    0.0000 N   0  0  0  0  0  0  0  0  0  0  0  0
    4.7755    8.1576    0.0000 N   0  0  0  0  0  0  0  0  0  0  0  0
    2.8660   -7.6576    0.0000 N   0  3  0  0  0  0  0  0  0  0  0  0
    6.1808   -1.3212    0.0000 C   0  0  1  0  0  0  0  0  0  0  0  0
    5.5116   -2.0644    0.0000 C   0  0  0  0  0  0  0  0  0  0  0  0
    4.5981   -1.6576    0.0000 C   0  0  2  0  0  0  0  0  0  0  0  0
    4.7026   -0.6631    0.0000 C   0  0  0  0  0  0  0  0  0  0  0  0
    6.0875    0.4584    0.0000 C   0  0  0  0  0  0  0  0  0  0  0  0
    5.4997    1.2674    0.0000 C   0  0  2  0  0  0  0  0  0  0  0  0
    7.1753   -1.4257    0.0000 C   0  0  0  0  0  0  0  0  0  0  0  0
    4.5052    1.1628    0.0000 C   0  0  0  0  0  0  0  0  0  0  0  0
    3.9174    1.9719    0.0000 C   0  0  0  0  0  0  0  0  0  0  0  0
    4.0984    0.2493    0.0000 C   0  0  0  0  0  0  0  0  0  0  0  0
    8.5765   -2.4438    0.0000 C   0  0  1  0  0  0  0  0  0  0  0  0
    5.3187    2.9899    0.0000 C   0  0  0  0  0  0  0  0  0  0  0  0
    5.7254    3.9035    0.0000 C   0  0  2  0  0  0  0  0  0  0  0  0
    3.7320   -3.1576    0.0000 C   0  0  0  0  0  0  0  0  0  0  0  0
    6.7199    4.0080    0.0000 C   0  0  0  0  0  0  0  0  0  0  0  0
    9.1643   -1.6348    0.0000 C   0  0  0  0  0  0  0  0  0  0  0  0
    8.9833   -3.3574    0.0000 C   0  0  0  0  0  0  0  0  0  0  0  0
    7.1266    4.9216    0.0000 C   0  0  0  0  0  0  0  0  0  0  0  0
    7.3077    3.1990    0.0000 C   0  0  0  0  0  0  0  0  0  0  0  0
   10.1588   -1.7393    0.0000 C   0  0  0  0  0  0  0  0  0  0  0  0
    5.5443    5.6260    0.0000 C   0  0  0  0  0  0  0  0  0  0  0  0
    2.8660   -4.6576    0.0000 C   0  0  0  0  0  0  0  0  0  0  0  0
    4.9566    6.4351    0.0000 C   0  0  0  0  0  0  0  0  0  0  0  0
    2.0000   -5.1576    0.0000 C   0  0  0  0  0  0  0  0  0  0  0  0
    3.7320   -5.1576    0.0000 C   0  0  0  0  0  0  0  0  0  0  0  0
    2.0000   -6.1576    0.0000 C   0  0  0  0  0  0  0  0  0  0  0  0
    3.7320   -6.1576    0.0000 C   0  0  0  0  0  0  0  0  0  0  0  0
    2.8660   -6.6576    0.0000 C   0  0  0  0  0  0  0  0  0  0  0  0
    5.3633    7.3486    0.0000 C   0  0  0  0  0  0  0  0  0  0  0  0
    3.3742    7.1396    0.0000 C   0  0  0  0  0  0  0  0  0  0  0  0
    3.7810    8.0531    0.0000 C   0  0  0  0  0  0  0  0  0  0  0  0
    6.5184   -0.8012    0.0000 H   0  0  0  0  0  0  0  0  0  0  0  0
    5.2016   -2.6013    0.0000 H   0  0  0  0  0  0  0  0  0  0  0  0
    6.0132   -2.4288    0.0000 H   0  0  0  0  0  0  0  0  0  0  0  0
    4.6305   -2.2768    0.0000 H   0  0  0  0  0  0  0  0  0  0  0  0
    4.6378   -0.0465    0.0000 H   0  0  0  0  0  0  0  0  0  0  0  0
    4.0826   -0.6631    0.0000 H   0  0  0  0  0  0  0  0  0  0  0  0
    6.1163    1.3322    0.0000 H   0  0  0  0  0  0  0  0  0  0  0  0
    4.8696    0.6613    0.0000 H   0  0  0  0  0  0  0  0  0  0  0  0
    6.5230    2.2457    0.0000 H   0  0  0  0  0  0  0  0  0  0  0  0
    7.2176   -2.8409    0.0000 H   0  0  0  0  0  0  0  0  0  0  0  0
    4.4190    2.3363    0.0000 H   0  0  0  0  0  0  0  0  0  0  0  0
    3.5530    2.4734    0.0000 H   0  0  0  0  0  0  0  0  0  0  0  0
    3.4158    1.6074    0.0000 H   0  0  0  0  0  0  0  0  0  0  0  0
    3.5320    0.5015    0.0000 H   0  0  0  0  0  0  0  0  0  0  0  0
    3.8463   -0.3171    0.0000 H   0  0  0  0  0  0  0  0  0  0  0  0
    4.6648   -0.0029    0.0000 H   0  0  0  0  0  0  0  0  0  0  0  0
    8.2121   -2.9454    0.0000 H   0  0  0  0  0  0  0  0  0  0  0  0
    5.1088    3.8387    0.0000 H   0  0  0  0  0  0  0  0  0  0  0  0
    6.3555    4.5096    0.0000 H   0  0  0  0  0  0  0  0  0  0  0  0
    9.3352   -1.0388    0.0000 H   0  0  0  0  0  0  0  0  0  0  0  0
    8.6071   -1.3630    0.0000 H   0  0  0  0  0  0  0  0  0  0  0  0
    4.5210    4.6477    0.0000 H   0  0  0  0  0  0  0  0  0  0  0  0
    8.6188   -3.8590    0.0000 H   0  0  0  0  0  0  0  0  0  0  0  0
    7.6930    4.6694    0.0000 H   0  0  0  0  0  0  0  0  0  0  0  0
    7.3788    5.4880    0.0000 H   0  0  0  0  0  0  0  0  0  0  0  0
    6.5602    5.1737    0.0000 H   0  0  0  0  0  0  0  0  0  0  0  0
    6.8061    2.8346    0.0000 H   0  0  0  0  0  0  0  0  0  0  0  0
    7.6721    2.6974    0.0000 H   0  0  0  0  0  0  0  0  0  0  0  0
    7.8093    3.5634    0.0000 H   0  0  0  0  0  0  0  0  0  0  0  0
    2.3291   -3.3476    0.0000 H   0  0  0  0  0  0  0  0  0  0  0  0
   10.0940   -2.3559    0.0000 H   0  0  0  0  0  0  0  0  0  0  0  0
   10.7754   -1.8041    0.0000 H   0  0  0  0  0  0  0  0  0  0  0  0
   10.2236   -1.1227    0.0000 H   0  0  0  0  0  0  0  0  0  0  0  0
    1.4631   -4.8476    0.0000 H   0  0  0  0  0  0  0  0  0  0  0  0
    4.2690   -4.8476    0.0000 H   0  0  0  0  0  0  0  0  0  0  0  0
    1.4631   -6.4676    0.0000 H   0  0  0  0  0  0  0  0  0  0  0  0
    4.2690   -6.4676    0.0000 H   0  0  0  0  0  0  0  0  0  0  0  0
    5.9799    7.4134    0.0000 H   0  0  0  0  0  0  0  0  0  0  0  0
    2.7576    7.0747    0.0000 H   0  0  0  0  0  0  0  0  0  0  0  0
    3.4166    8.5547    0.0000 H   0  0  0  0  0  0  0  0  0  0  0  0
 20  1  1  1  0  0  0
  1 31  1  0  0  0  0
  2 22  2  0  0  0  0
  3 24  2  0  0  0  0
  4 29  2  0  0  0  0
  5 31  2  0  0  0  0
  6 34  2  0  0  0  0
  7 38  2  0  0  0  0
  8 17  1  0  0  0  0
  9 17  2  0  0  0  0
 10 18  1  0  0  0  0
 10 21  1  0  0  0  0
 10 22  1  0  0  0  0
 23 11  1  6  0  0  0
 11 29  1  0  0  0  0
 11 57  1  0  0  0  0
 12 24  1  0  0  0  0
 28 12  1  1  0  0  0
 12 58  1  0  0  0  0
 30 13  1  1  0  0  0
 13 38  1  0  0  0  0
 13 70  1  0  0  0  0
 14 31  1  0  0  0  0
 14 39  1  0  0  0  0
 14 78  1  0  0  0  0
 15 40  2  0  0  0  0
 15 47  1  0  0  0  0
 16 46  2  0  0  0  0
 16 48  1  0  0  0  0
 17 45  1  0  0  0  0
 18 19  1  0  0  0  0
 18 24  1  6  0  0  0
 18 49  1  0  0  0  0
 19 20  1  0  0  0  0
 19 50  1  0  0  0  0
 19 51  1  0  0  0  0
 20 21  1  0  0  0  0
 20 52  1  0  0  0  0
 21 53  1  0  0  0  0
 21 54  1  0  0  0  0
 22 23  1  0  0  0  0
 23 25  1  0  0  0  0
 23 55  1  0  0  0  0
 25 26  1  0  0  0  0
 25 27  1  0  0  0  0
 25 56  1  0  0  0  0
 26 59  1  0  0  0  0
 26 60  1  0  0  0  0
 26 61  1  0  0  0  0
 27 62  1  0  0  0  0
 27 63  1  0  0  0  0
 27 64  1  0  0  0  0
 28 33  1  0  0  0  0
 28 34  1  0  0  0  0
 28 65  1  0  0  0  0
 29 30  1  0  0  0  0
 30 32  1  0  0  0  0
 30 66  1  0  0  0  0
 32 35  1  0  0  0  0
 32 36  1  0  0  0  0
 32 67  1  0  0  0  0
 33 37  1  0  0  0  0
 33 68  1  0  0  0  0
 33 69  1  0  0  0  0
 34 71  1  0  0  0  0
 35 72  1  0  0  0  0
 35 73  1  0  0  0  0
 35 74  1  0  0  0  0
 36 75  1  0  0  0  0
 36 76  1  0  0  0  0
 36 77  1  0  0  0  0
 37 79  1  0  0  0  0
 37 80  1  0  0  0  0
 37 81  1  0  0  0  0
 38 40  1  0  0  0  0
 39 41  2  0  0  0  0
 39 42  1  0  0  0  0
 40 46  1  0  0  0  0
 41 43  1  0  0  0  0
 41 82  1  0  0  0  0
 42 44  2  0  0  0  0
 42 83  1  0  0  0  0
 43 45  2  0  0  0  0
 43 84  1  0  0  0  0
 44 45  1  0  0  0  0
 44 85  1  0  0  0  0
 46 86  1  0  0  0  0
 47 48  2  0  0  0  0
 47 87  1  0  0  0  0
 48 88  1  0  0  0  0
M  CHG  2   8  -1  17   1
M  END
> <PUBCHEM_COMPOUND_CID>
506665
> <PUBCHEM_COMPOUND_CANONICALIZED>
1
> <PUBCHEM_CACTVS_COMPLEXITY>
1170
> <PUBCHEM_CACTVS_HBOND_ACCEPTOR>
11
> <PUBCHEM_CACTVS_HBOND_DONOR>
4
> <PUBCHEM_CACTVS_ROTATABLE_BOND>
14
> <PUBCHEM_CACTVS_SUBSKEYS>
AAADcfB7/AAAAAAAAAAAAAAAAAAAAWAAAAA8QAAAAAAAAAABwAAAHgAUAAAADTzhlgY+yJPYVACpAT133wCCgCQ3EiAo2IG4dMsKYHrA0bGdIIhmlgDYyMc6AQAIAACAAAAAAAAAAQAAAAAAAAAAAAAAAA==
> <PUBCHEM_IUPAC_OPENEYE_NAME>
[(3R,5S)-5-[[(1S)-1-formylpropyl]carbamoyl]-1-[(2S)-3-methyl-2-[[(2S)-3-methyl-2-(pyrazine-2-carbonylamino)butanoyl]amino]butanoyl]pyrrolidin-3-yl] N-(4-nitrophenyl)carbamate
> <PUBCHEM_IUPAC_CAS_NAME>
N-(4-nitrophenyl)carbamic acid [(3R,5S)-1-[(2S)-3-methyl-2-[[(2S)-3-methyl-1-oxo-2-[[oxo(2-pyrazinyl)methyl]amino]butyl]amino]-1-oxobutyl]-5-[oxo-[[(2S)-1-oxobutan-2-yl]amino]methyl]-3-pyrrolidinyl] ester
> <PUBCHEM_IUPAC_NAME_MARKUP>
[(3<I>R</I>,5<I>S</I>)-1-[(2<I>S</I>)-3-methyl-2-[[(2<I>S</I>)-3-methyl-2-(pyrazine-2-carbonylamino)butanoyl]amino]butanoyl]-5-[[(2<I>S</I>)-1-oxobutan-2-yl]carbamoyl]pyrrolidin-3-yl] <I>N</I>-(4-nitrophenyl)carbamate
> <PUBCHEM_IUPAC_NAME>
[(3R,5S)-1-[(2S)-3-methyl-2-[[(2S)-3-methyl-2-(pyrazine-2-carbonylamino)butanoyl]amino]butanoyl]-5-[[(2S)-1-oxobutan-2-yl]carbamoyl]pyrrolidin-3-yl] N-(4-nitrophenyl)carbamate
> <PUBCHEM_IUPAC_SYSTEMATIC_NAME>
[(3R,5S)-1-[(2S)-3-methyl-2-[[(2S)-3-methyl-2-(pyrazin-2-ylcarbonylamino)butanoyl]amino]butanoyl]-5-[[(2S)-1-oxidanylidenebutan-2-yl]carbamoyl]pyrrolidin-3-yl] N-(4-nitrophenyl)carbamate
> <PUBCHEM_IUPAC_TRADITIONAL_NAME>
N-(4-nitrophenyl)carbamic acid [(3R,5S)-5-[[(1S)-1-formylpropyl]carbamoyl]-1-[(2S)-3-methyl-2-[[(2S)-3-methyl-2-(pyrazinoylamino)butanoyl]amino]butanoyl]pyrrolidin-3-yl] ester
> <PUBCHEM_IUPAC_INCHI>
InChI=1S/C31H40N8O9/c1-6-19(16-40)34-28(42)24-13-22(48-31(45)35-20-7-9-21(10-8-20)39(46)47)15-38(24)30(44)26(18(4)5)37-29(43)25(17(2)3)36-27(41)23-14-32-11-12-33-23/h7-12,14,16-19,22,24-26H,6,13,15H2,1-5H3,(H,34,42)(H,35,45)(H,36,41)(H,37,43)/t19-,22+,24-,25-,26-/m0/s1
> <PUBCHEM_IUPAC_INCHIKEY>
LSBBSCAWEQRPGK-QEZOGQQESA-N
> <PUBCHEM_XLOGP3_AA>
2.1
> <PUBCHEM_EXACT_MASS>
668.29182488
> <PUBCHEM_MOLECULAR_FORMULA>
C31H40N8O9
> <PUBCHEM_MOLECULAR_WEIGHT>
668.7
> <PUBCHEM_OPENEYE_CAN_SMILES>
CCC(C=O)NC(=O)C1CC(CN1C(=O)C(C(C)C)NC(=O)C(C(C)C)NC(=O)C2=NC=CN=C2)OC(=O)NC3=CC=C(C=C3)[N+](=O)[O-]
> <PUBCHEM_OPENEYE_ISO_SMILES>
CC[C@@H](C=O)NC(=O)[C@@H]1C[C@H](CN1C(=O)[C@H](C(C)C)NC(=O)[C@H](C(C)C)NC(=O)C2=NC=CN=C2)OC(=O)NC3=CC=C(C=C3)[N+](=O)[O-]
> <PUBCHEM_CACTVS_TPSA>
235
> <PUBCHEM_MONOISOTOPIC_WEIGHT>
668.29182488
> <PUBCHEM_TOTAL_CHARGE>
0
> <PUBCHEM_HEAVY_ATOM_COUNT>
48
> <PUBCHEM_ATOM_DEF_STEREO_COUNT>
5
> <PUBCHEM_ATOM_UDEF_STEREO_COUNT>
0
> <PUBCHEM_BOND_DEF_STEREO_COUNT>
0
> <PUBCHEM_BOND_UDEF_STEREO_COUNT>
0
> <PUBCHEM_ISOTOPIC_ATOM_COUNT>
0
> <PUBCHEM_COMPONENT_COUNT>
1
> <PUBCHEM_CACTVS_TAUTO_COUNT>
-1
> <PUBCHEM_COORDINATE_TYPE>
1
5
255
> <PUBCHEM_BONDANNOTATIONS>
20  1  5
23  11  6
28  12  5
30  13  5
15  40  8
15  47  8
16  46  8
16  48  8
18  24  6
39  41  8
39  42  8
40  46  8
41  43  8
42  44  8
43  45  8
44  45  8
47  48  8
$$$$
