506647
  -OEChem-10302200282D
 86 88  0     1  0  0  0  0  0999 V2000
    6.2524   -1.2397    0.0000 O   0  0  0  0  0  0  0  0  0  0  0  0
    6.9334    3.0217    0.0000 O   0  0  0  0  0  0  0  0  0  0  0  0
    5.5714    3.0217    0.0000 O   0  0  0  0  0  0  0  0  0  0  0  0
   10.3238    1.7946    0.0000 O   0  0  0  0  0  0  0  0  0  0  0  0
    2.0000    3.5171    0.0000 O   0  0  0  0  0  0  0  0  0  0  0  0
   11.6804    5.1352    0.0000 O   0  0  0  0  0  0  0  0  0  0  0  0
    6.7524    1.2991    0.0000 N   0  0  0  0  0  0  0  0  0  0  0  0
    8.9225    2.8126    0.0000 N   0  0  0  0  0  0  0  0  0  0  0  0
    4.1701    2.0036    0.0000 N   0  0  0  0  0  0  0  0  0  0  0  0
   11.4993    3.4126    0.0000 N   0  0  0  0  0  0  0  0  0  0  0  0
   13.4884    3.2036    0.0000 N   0  0  0  0  0  0  0  0  0  0  0  0
   14.6639    4.8216    0.0000 N   0  0  0  0  0  0  0  0  0  0  0  0
    2.7883   -5.2397    0.0000 N   0  0  0  0  0  0  0  0  0  0  0  0
    5.7524    1.2991    0.0000 C   0  0  1  0  0  0  0  0  0  0  0  0
    6.2524   -0.2397    0.0000 C   0  0  2  0  0  0  0  0  0  0  0  0
    5.4434    0.3481    0.0000 C   0  0  0  0  0  0  0  0  0  0  0  0
    7.0614    0.3481    0.0000 C   0  0  0  0  0  0  0  0  0  0  0  0
    7.3402    2.1082    0.0000 C   0  0  0  0  0  0  0  0  0  0  0  0
    8.3347    2.0036    0.0000 C   0  0  2  0  0  0  0  0  0  0  0  0
    5.1646    2.1082    0.0000 C   0  0  0  0  0  0  0  0  0  0  0  0
    8.7414    1.0901    0.0000 C   0  0  0  0  0  0  0  0  0  0  0  0
    5.3864   -1.7397    0.0000 C   0  0  0  0  0  0  0  0  0  0  0  0
    9.7360    0.9856    0.0000 C   0  0  0  0  0  0  0  0  0  0  0  0
    8.1537    0.2811    0.0000 C   0  0  0  0  0  0  0  0  0  0  0  0
    3.5823    2.8126    0.0000 C   0  0  1  0  0  0  0  0  0  0  0  0
    9.9170    2.7081    0.0000 C   0  0  0  0  0  0  0  0  0  0  0  0
   10.5048    3.5171    0.0000 C   0  0  2  0  0  0  0  0  0  0  0  0
   10.0981    4.4307    0.0000 C   0  0  0  0  0  0  0  0  0  0  0  0
    5.3864   -2.7397    0.0000 C   0  0  0  0  0  0  0  0  0  0  0  0
    3.9890    3.7262    0.0000 C   0  0  0  0  0  0  0  0  0  0  0  0
    2.5878    2.7081    0.0000 C   0  0  0  0  0  0  0  0  0  0  0  0
   10.6858    5.2397    0.0000 C   0  0  0  0  0  0  0  0  0  0  0  0
    9.1035    4.5352    0.0000 C   0  0  0  0  0  0  0  0  0  0  0  0
    3.4013    4.5352    0.0000 C   0  0  0  0  0  0  0  0  0  0  0  0
    4.5204   -3.2397    0.0000 C   0  0  0  0  0  0  0  0  0  0  0  0
    6.2524   -3.2397    0.0000 C   0  0  0  0  0  0  0  0  0  0  0  0
   12.0871    4.2216    0.0000 C   0  0  0  0  0  0  0  0  0  0  0  0
    4.5204   -4.2397    0.0000 C   0  0  0  0  0  0  0  0  0  0  0  0
    6.2524   -4.2397    0.0000 C   0  0  0  0  0  0  0  0  0  0  0  0
    5.3864   -4.7397    0.0000 C   0  0  0  0  0  0  0  0  0  0  0  0
   13.0816    4.1171    0.0000 C   0  0  0  0  0  0  0  0  0  0  0  0
    3.6543   -4.7397    0.0000 C   0  0  0  0  0  0  0  0  0  0  0  0
   13.6694    4.9261    0.0000 C   0  0  0  0  0  0  0  0  0  0  0  0
   14.4829    3.0990    0.0000 C   0  0  0  0  0  0  0  0  0  0  0  0
   15.0707    3.9080    0.0000 C   0  0  0  0  0  0  0  0  0  0  0  0
    6.0339    1.8516    0.0000 H   0  0  0  0  0  0  0  0  0  0  0  0
    5.7000   -0.5212    0.0000 H   0  0  0  0  0  0  0  0  0  0  0  0
    4.8770    0.6003    0.0000 H   0  0  0  0  0  0  0  0  0  0  0  0
    5.1334   -0.1888    0.0000 H   0  0  0  0  0  0  0  0  0  0  0  0
    7.3714   -0.1888    0.0000 H   0  0  0  0  0  0  0  0  0  0  0  0
    7.6278    0.6003    0.0000 H   0  0  0  0  0  0  0  0  0  0  0  0
    8.0825    2.5700    0.0000 H   0  0  0  0  0  0  0  0  0  0  0  0
    9.1059    1.5917    0.0000 H   0  0  0  0  0  0  0  0  0  0  0  0
    8.6703    3.3790    0.0000 H   0  0  0  0  0  0  0  0  0  0  0  0
    3.9179    1.4372    0.0000 H   0  0  0  0  0  0  0  0  0  0  0  0
    5.1743   -1.1571    0.0000 H   0  0  0  0  0  0  0  0  0  0  0  0
    4.7758   -1.8474    0.0000 H   0  0  0  0  0  0  0  0  0  0  0  0
    9.6712    0.3690    0.0000 H   0  0  0  0  0  0  0  0  0  0  0  0
   10.3526    0.9208    0.0000 H   0  0  0  0  0  0  0  0  0  0  0  0
    9.8008    1.6022    0.0000 H   0  0  0  0  0  0  0  0  0  0  0  0
    7.6521    0.6455    0.0000 H   0  0  0  0  0  0  0  0  0  0  0  0
    7.7892   -0.2205    0.0000 H   0  0  0  0  0  0  0  0  0  0  0  0
    8.6552   -0.0834    0.0000 H   0  0  0  0  0  0  0  0  0  0  0  0
    3.3301    2.2462    0.0000 H   0  0  0  0  0  0  0  0  0  0  0  0
   10.7570    2.9507    0.0000 H   0  0  0  0  0  0  0  0  0  0  0  0
   10.7147    4.3659    0.0000 H   0  0  0  0  0  0  0  0  0  0  0  0
    4.5030    3.3795    0.0000 H   0  0  0  0  0  0  0  0  0  0  0  0
    4.4197    4.1722    0.0000 H   0  0  0  0  0  0  0  0  0  0  0  0
   11.7515    2.8462    0.0000 H   0  0  0  0  0  0  0  0  0  0  0  0
    2.3356    2.1417    0.0000 H   0  0  0  0  0  0  0  0  0  0  0  0
   11.1874    4.8753    0.0000 H   0  0  0  0  0  0  0  0  0  0  0  0
   11.0503    5.7413    0.0000 H   0  0  0  0  0  0  0  0  0  0  0  0
   10.1843    5.6041    0.0000 H   0  0  0  0  0  0  0  0  0  0  0  0
    9.1684    5.1518    0.0000 H   0  0  0  0  0  0  0  0  0  0  0  0
    8.4869    4.6000    0.0000 H   0  0  0  0  0  0  0  0  0  0  0  0
    9.0387    3.9186    0.0000 H   0  0  0  0  0  0  0  0  0  0  0  0
    3.9028    4.8996    0.0000 H   0  0  0  0  0  0  0  0  0  0  0  0
    3.0368    5.0368    0.0000 H   0  0  0  0  0  0  0  0  0  0  0  0
    2.8997    4.1708    0.0000 H   0  0  0  0  0  0  0  0  0  0  0  0
    3.9834   -2.9297    0.0000 H   0  0  0  0  0  0  0  0  0  0  0  0
    6.7893   -2.9297    0.0000 H   0  0  0  0  0  0  0  0  0  0  0  0
    6.7893   -4.5497    0.0000 H   0  0  0  0  0  0  0  0  0  0  0  0
    5.3864   -5.3597    0.0000 H   0  0  0  0  0  0  0  0  0  0  0  0
   13.4172    5.4925    0.0000 H   0  0  0  0  0  0  0  0  0  0  0  0
   14.7351    2.5326    0.0000 H   0  0  0  0  0  0  0  0  0  0  0  0
   15.6873    3.8432    0.0000 H   0  0  0  0  0  0  0  0  0  0  0  0
 15  1  1  6  0  0  0
  1 22  1  0  0  0  0
  2 18  2  0  0  0  0
  3 20  2  0  0  0  0
  4 26  2  0  0  0  0
  5 31  2  0  0  0  0
  6 37  2  0  0  0  0
  7 14  1  0  0  0  0
  7 17  1  0  0  0  0
  7 18  1  0  0  0  0
 19  8  1  1  0  0  0
  8 26  1  0  0  0  0
  8 54  1  0  0  0  0
  9 20  1  0  0  0  0
 25  9  1  6  0  0  0
  9 55  1  0  0  0  0
 27 10  1  6  0  0  0
 10 37  1  0  0  0  0
 10 69  1  0  0  0  0
 11 41  2  0  0  0  0
 11 44  1  0  0  0  0
 12 43  2  0  0  0  0
 12 45  1  0  0  0  0
 13 42  3  0  0  0  0
 14 16  1  0  0  0  0
 14 20  1  1  0  0  0
 14 46  1  0  0  0  0
 15 16  1  0  0  0  0
 15 17  1  0  0  0  0
 15 47  1  0  0  0  0
 16 48  1  0  0  0  0
 16 49  1  0  0  0  0
 17 50  1  0  0  0  0
 17 51  1  0  0  0  0
 18 19  1  0  0  0  0
 19 21  1  0  0  0  0
 19 52  1  0  0  0  0
 21 23  1  0  0  0  0
 21 24  1  0  0  0  0
 21 53  1  0  0  0  0
 22 29  1  0  0  0  0
 22 56  1  0  0  0  0
 22 57  1  0  0  0  0
 23 58  1  0  0  0  0
 23 59  1  0  0  0  0
 23 60  1  0  0  0  0
 24 61  1  0  0  0  0
 24 62  1  0  0  0  0
 24 63  1  0  0  0  0
 25 30  1  0  0  0  0
 25 31  1  0  0  0  0
 25 64  1  0  0  0  0
 26 27  1  0  0  0  0
 27 28  1  0  0  0  0
 27 65  1  0  0  0  0
 28 32  1  0  0  0  0
 28 33  1  0  0  0  0
 28 66  1  0  0  0  0
 29 35  2  0  0  0  0
 29 36  1  0  0  0  0
 30 34  1  0  0  0  0
 30 67  1  0  0  0  0
 30 68  1  0  0  0  0
 31 70  1  0  0  0  0
 32 71  1  0  0  0  0
 32 72  1  0  0  0  0
 32 73  1  0  0  0  0
 33 74  1  0  0  0  0
 33 75  1  0  0  0  0
 33 76  1  0  0  0  0
 34 77  1  0  0  0  0
 34 78  1  0  0  0  0
 34 79  1  0  0  0  0
 35 38  1  0  0  0  0
 35 80  1  0  0  0  0
 36 39  2  0  0  0  0
 36 81  1  0  0  0  0
 37 41  1  0  0  0  0
 38 40  2  0  0  0  0
 38 42  1  0  0  0  0
 39 40  1  0  0  0  0
 39 82  1  0  0  0  0
 40 83  1  0  0  0  0
 41 43  1  0  0  0  0
 43 84  1  0  0  0  0
 44 45  2  0  0  0  0
 44 85  1  0  0  0  0
 45 86  1  0  0  0  0
M  END
> <PUBCHEM_COMPOUND_CID>
506647
> <PUBCHEM_COMPOUND_CANONICALIZED>
1
> <PUBCHEM_CACTVS_COMPLEXITY>
1090
> <PUBCHEM_CACTVS_HBOND_ACCEPTOR>
9
> <PUBCHEM_CACTVS_HBOND_DONOR>
3
> <PUBCHEM_CACTVS_ROTATABLE_BOND>
14
> <PUBCHEM_CACTVS_SUBSKEYS>
AAADcfB/uAAAAAAAAAAAAAAAAAAAAWAAAAA8QAAAAAAAAAABwAAAHgAQAAAADTzhngY+gJPIFAC4Bz131ACigCQ3EiAI2IG4fMgK5nrA8TiXMIgm1gHYqM+6wWAOAAACAAAAAAAAAAQAAAAAAAAAAAAAAA==
> <PUBCHEM_IUPAC_OPENEYE_NAME>
N-[(1S)-1-[[(1S)-1-[(2S,4R)-4-[(3-cyanophenyl)methoxy]-2-[[(1S)-1-formylpropyl]carbamoyl]pyrrolidine-1-carbonyl]-2-methyl-propyl]carbamoyl]-2-methyl-propyl]pyrazine-2-carboxamide
> <PUBCHEM_IUPAC_CAS_NAME>
N-[(2S)-1-[[(2S)-1-[(2S,4R)-4-[(3-cyanophenyl)methoxy]-2-[oxo-[[(2S)-1-oxobutan-2-yl]amino]methyl]-1-pyrrolidinyl]-3-methyl-1-oxobutan-2-yl]amino]-3-methyl-1-oxobutan-2-yl]-2-pyrazinecarboxamide
> <PUBCHEM_IUPAC_NAME_MARKUP>
<I>N</I>-[(2<I>S</I>)-1-[[(2<I>S</I>)-1-[(2<I>S</I>,4<I>R</I>)-4-[(3-cyanophenyl)methoxy]-2-[[(2<I>S</I>)-1-oxobutan-2-yl]carbamoyl]pyrrolidin-1-yl]-3-methyl-1-oxobutan-2-yl]amino]-3-methyl-1-oxobutan-2-yl]pyrazine-2-carboxamide
> <PUBCHEM_IUPAC_NAME>
N-[(2S)-1-[[(2S)-1-[(2S,4R)-4-[(3-cyanophenyl)methoxy]-2-[[(2S)-1-oxobutan-2-yl]carbamoyl]pyrrolidin-1-yl]-3-methyl-1-oxobutan-2-yl]amino]-3-methyl-1-oxobutan-2-yl]pyrazine-2-carboxamide
> <PUBCHEM_IUPAC_SYSTEMATIC_NAME>
N-[(2S)-1-[[(2S)-1-[(2S,4R)-4-[(3-cyanophenyl)methoxy]-2-[[(2S)-1-oxidanylidenebutan-2-yl]carbamoyl]pyrrolidin-1-yl]-3-methyl-1-oxidanylidene-butan-2-yl]amino]-3-methyl-1-oxidanylidene-butan-2-yl]pyrazine-2-carboxamide
> <PUBCHEM_IUPAC_TRADITIONAL_NAME>
N-[(1S)-1-[[(1S)-1-[(2S,4R)-4-(3-cyanobenzyl)oxy-2-[[(1S)-1-formylpropyl]carbamoyl]pyrrolidine-1-carbonyl]-2-methyl-propyl]carbamoyl]-2-methyl-propyl]pyrazinamide
> <PUBCHEM_IUPAC_INCHI>
InChI=1S/C32H41N7O6/c1-6-23(17-40)36-30(42)26-13-24(45-18-22-9-7-8-21(12-22)14-33)16-39(26)32(44)28(20(4)5)38-31(43)27(19(2)3)37-29(41)25-15-34-10-11-35-25/h7-12,15,17,19-20,23-24,26-28H,6,13,16,18H2,1-5H3,(H,36,42)(H,37,41)(H,38,43)/t23-,24+,26-,27-,28-/m0/s1
> <PUBCHEM_IUPAC_INCHIKEY>
QUFLPXANMAGDHR-JOMDOPAKSA-N
> <PUBCHEM_XLOGP3_AA>
2.1
> <PUBCHEM_EXACT_MASS>
619.31183205
> <PUBCHEM_MOLECULAR_FORMULA>
C32H41N7O6
> <PUBCHEM_MOLECULAR_WEIGHT>
619.7
> <PUBCHEM_OPENEYE_CAN_SMILES>
CCC(C=O)NC(=O)C1CC(CN1C(=O)C(C(C)C)NC(=O)C(C(C)C)NC(=O)C2=NC=CN=C2)OCC3=CC(=CC=C3)C#N
> <PUBCHEM_OPENEYE_ISO_SMILES>
CC[C@@H](C=O)NC(=O)[C@@H]1C[C@H](CN1C(=O)[C@H](C(C)C)NC(=O)[C@H](C(C)C)NC(=O)C2=NC=CN=C2)OCC3=CC(=CC=C3)C#N
> <PUBCHEM_CACTVS_TPSA>
184
> <PUBCHEM_MONOISOTOPIC_WEIGHT>
619.31183205
> <PUBCHEM_TOTAL_CHARGE>
0
> <PUBCHEM_HEAVY_ATOM_COUNT>
45
> <PUBCHEM_ATOM_DEF_STEREO_COUNT>
5
> <PUBCHEM_ATOM_UDEF_STEREO_COUNT>
0
> <PUBCHEM_BOND_DEF_STEREO_COUNT>
0
> <PUBCHEM_BOND_UDEF_STEREO_COUNT>
0
> <PUBCHEM_ISOTOPIC_ATOM_COUNT>
0
> <PUBCHEM_COMPONENT_COUNT>
1
> <PUBCHEM_CACTVS_TAUTO_COUNT>
-1
> <PUBCHEM_COORDINATE_TYPE>
1
5
255
> <PUBCHEM_BONDANNOTATIONS>
15  1  6
27  10  6
11  41  8
11  44  8
12  43  8
12  45  8
14  20  5
29  35  8
29  36  8
35  38  8
36  39  8
38  40  8
39  40  8
41  43  8
44  45  8
19  8  5
25  9  6
$$$$
