506633
  -OEChem-10302200282D
 93 96  0     1  0  0  0  0  0999 V2000
   14.0531    1.0009    0.0000 Cl  0  0  0  0  0  0  0  0  0  0  0  0
   18.4473   -2.5266    0.0000 F   0  0  0  0  0  0  0  0  0  0  0  0
   18.0865   -1.1591    0.0000 F   0  0  0  0  0  0  0  0  0  0  0  0
   17.0799   -2.8873    0.0000 F   0  0  0  0  0  0  0  0  0  0  0  0
   11.4550   -0.4991    0.0000 O   0  0  0  0  0  0  0  0  0  0  0  0
    7.4240    1.0418    0.0000 O   0  0  0  0  0  0  0  0  0  0  0  0
    8.1050    2.2214    0.0000 O   0  0  0  0  0  0  0  0  0  0  0  0
    6.7916   -2.5078    0.0000 O   0  0  0  0  0  0  0  0  0  0  0  0
    9.4616    5.5620    0.0000 O   0  0  0  0  0  0  0  0  0  0  0  0
    3.2202   -2.0124    0.0000 O   0  0  0  0  0  0  0  0  0  0  0  0
    9.0063    0.3373    0.0000 N   0  0  0  0  0  0  0  0  0  0  0  0
    6.6105   -0.7853    0.0000 N   0  0  0  0  0  0  0  0  0  0  0  0
    9.6873    2.9259    0.0000 N   0  0  0  0  0  0  0  0  0  0  0  0
    4.8025   -2.7169    0.0000 N   0  0  0  0  0  0  0  0  0  0  0  0
   15.8130   -2.0337    0.0000 N   0  0  0  0  0  0  0  0  0  0  0  0
    3.9890   -4.5440    0.0000 N   0  0  0  0  0  0  0  0  0  0  0  0
    2.0000   -4.7530    0.0000 N   0  0  0  0  0  0  0  0  0  0  0  0
    9.5063    1.2034    0.0000 C   0  0  1  0  0  0  0  0  0  0  0  0
   10.5890    0.0009    0.0000 C   0  0  2  0  0  0  0  0  0  0  0  0
   10.4844    0.9955    0.0000 C   0  0  0  0  0  0  0  0  0  0  0  0
    9.6754   -0.4058    0.0000 C   0  0  0  0  0  0  0  0  0  0  0  0
    8.0118    0.2328    0.0000 C   0  0  0  0  0  0  0  0  0  0  0  0
    7.6050   -0.6807    0.0000 C   0  0  2  0  0  0  0  0  0  0  0  0
    9.0996    2.1169    0.0000 C   0  0  0  0  0  0  0  0  0  0  0  0
    8.1928   -1.4897    0.0000 C   0  0  0  0  0  0  0  0  0  0  0  0
   12.3210    0.0009    0.0000 C   0  0  0  0  0  0  0  0  0  0  0  0
    7.7861   -2.4033    0.0000 C   0  0  0  0  0  0  0  0  0  0  0  0
    9.1873   -1.3852    0.0000 C   0  0  0  0  0  0  0  0  0  0  0  0
    9.2806    3.8395    0.0000 C   0  0  1  0  0  0  0  0  0  0  0  0
    6.2038   -1.6988    0.0000 C   0  0  0  0  0  0  0  0  0  0  0  0
    5.2092   -1.8033    0.0000 C   0  0  2  0  0  0  0  0  0  0  0  0
    4.6215   -0.9943    0.0000 C   0  0  0  0  0  0  0  0  0  0  0  0
   13.1870   -0.4991    0.0000 C   0  0  0  0  0  0  0  0  0  0  0  0
    8.2861    3.9440    0.0000 C   0  0  0  0  0  0  0  0  0  0  0  0
    9.8684    4.6485    0.0000 C   0  0  0  0  0  0  0  0  0  0  0  0
    3.6270   -1.0988    0.0000 C   0  0  0  0  0  0  0  0  0  0  0  0
    5.0282   -0.0808    0.0000 C   0  0  0  0  0  0  0  0  0  0  0  0
   14.0531    0.0009    0.0000 C   0  0  0  0  0  0  0  0  0  0  0  0
   13.1870   -1.4991    0.0000 C   0  0  0  0  0  0  0  0  0  0  0  0
    7.8794    4.8576    0.0000 C   0  0  0  0  0  0  0  0  0  0  0  0
   14.9191   -0.4991    0.0000 C   0  0  0  0  0  0  0  0  0  0  0  0
   14.0531   -1.9991    0.0000 C   0  0  0  0  0  0  0  0  0  0  0  0
   14.9191   -1.4991    0.0000 C   0  0  0  0  0  0  0  0  0  0  0  0
    3.8080   -2.8214    0.0000 C   0  0  0  0  0  0  0  0  0  0  0  0
   15.8130    0.0356    0.0000 C   0  0  0  0  0  0  0  0  0  0  0  0
    3.4013   -3.7350    0.0000 C   0  0  0  0  0  0  0  0  0  0  0  0
   16.7191   -0.4782    0.0000 C   0  0  0  0  0  0  0  0  0  0  0  0
   16.7191   -1.5199    0.0000 C   0  0  0  0  0  0  0  0  0  0  0  0
    2.4067   -3.8395    0.0000 C   0  0  0  0  0  0  0  0  0  0  0  0
   17.5832   -2.0232    0.0000 C   0  0  0  0  0  0  0  0  0  0  0  0
    3.5823   -5.4575    0.0000 C   0  0  0  0  0  0  0  0  0  0  0  0
    2.5878   -5.5620    0.0000 C   0  0  0  0  0  0  0  0  0  0  0  0
    8.8871    1.2358    0.0000 H   0  0  0  0  0  0  0  0  0  0  0  0
   11.1089    0.3386    0.0000 H   0  0  0  0  0  0  0  0  0  0  0  0
   11.1044    0.9955    0.0000 H   0  0  0  0  0  0  0  0  0  0  0  0
   10.5492    1.6121    0.0000 H   0  0  0  0  0  0  0  0  0  0  0  0
    9.1738   -0.7702    0.0000 H   0  0  0  0  0  0  0  0  0  0  0  0
    9.9854   -0.9427    0.0000 H   0  0  0  0  0  0  0  0  0  0  0  0
    7.2406   -0.1791    0.0000 H   0  0  0  0  0  0  0  0  0  0  0  0
    8.5572   -1.9913    0.0000 H   0  0  0  0  0  0  0  0  0  0  0  0
    6.2461   -0.2837    0.0000 H   0  0  0  0  0  0  0  0  0  0  0  0
   10.3039    2.8611    0.0000 H   0  0  0  0  0  0  0  0  0  0  0  0
   12.7195    0.4759    0.0000 H   0  0  0  0  0  0  0  0  0  0  0  0
   11.9225    0.4759    0.0000 H   0  0  0  0  0  0  0  0  0  0  0  0
    7.2197   -2.1511    0.0000 H   0  0  0  0  0  0  0  0  0  0  0  0
    7.5339   -2.9697    0.0000 H   0  0  0  0  0  0  0  0  0  0  0  0
    8.3525   -2.6555    0.0000 H   0  0  0  0  0  0  0  0  0  0  0  0
    9.2522   -2.0018    0.0000 H   0  0  0  0  0  0  0  0  0  0  0  0
    9.8040   -1.3204    0.0000 H   0  0  0  0  0  0  0  0  0  0  0  0
    9.1225   -0.7686    0.0000 H   0  0  0  0  0  0  0  0  0  0  0  0
    8.9162    3.3379    0.0000 H   0  0  0  0  0  0  0  0  0  0  0  0
    5.5737   -2.3049    0.0000 H   0  0  0  0  0  0  0  0  0  0  0  0
    5.2381   -0.9295    0.0000 H   0  0  0  0  0  0  0  0  0  0  0  0
    7.6845    3.7940    0.0000 H   0  0  0  0  0  0  0  0  0  0  0  0
    8.3293    3.3255    0.0000 H   0  0  0  0  0  0  0  0  0  0  0  0
   10.4850    4.5837    0.0000 H   0  0  0  0  0  0  0  0  0  0  0  0
    5.1669   -3.2185    0.0000 H   0  0  0  0  0  0  0  0  0  0  0  0
    3.5621   -0.4822    0.0000 H   0  0  0  0  0  0  0  0  0  0  0  0
    3.0103   -1.1636    0.0000 H   0  0  0  0  0  0  0  0  0  0  0  0
    3.6918   -1.7154    0.0000 H   0  0  0  0  0  0  0  0  0  0  0  0
    5.5946   -0.3329    0.0000 H   0  0  0  0  0  0  0  0  0  0  0  0
    5.2804    0.4856    0.0000 H   0  0  0  0  0  0  0  0  0  0  0  0
    4.4618    0.1714    0.0000 H   0  0  0  0  0  0  0  0  0  0  0  0
   12.6501   -1.8091    0.0000 H   0  0  0  0  0  0  0  0  0  0  0  0
    8.4457    5.1097    0.0000 H   0  0  0  0  0  0  0  0  0  0  0  0
    7.6272    5.4239    0.0000 H   0  0  0  0  0  0  0  0  0  0  0  0
    7.3130    4.6054    0.0000 H   0  0  0  0  0  0  0  0  0  0  0  0
   14.0531   -2.6191    0.0000 H   0  0  0  0  0  0  0  0  0  0  0  0
   15.8059    0.6556    0.0000 H   0  0  0  0  0  0  0  0  0  0  0  0
   17.2548   -0.1662    0.0000 H   0  0  0  0  0  0  0  0  0  0  0  0
    2.0423   -3.3379    0.0000 H   0  0  0  0  0  0  0  0  0  0  0  0
    3.9467   -5.9591    0.0000 H   0  0  0  0  0  0  0  0  0  0  0  0
    2.3356   -6.1284    0.0000 H   0  0  0  0  0  0  0  0  0  0  0  0
  1 38  1  0  0  0  0
  2 50  1  0  0  0  0
  3 50  1  0  0  0  0
  4 50  1  0  0  0  0
 19  5  1  1  0  0  0
  5 26  1  0  0  0  0
  6 22  2  0  0  0  0
  7 24  2  0  0  0  0
  8 30  2  0  0  0  0
  9 35  2  0  0  0  0
 10 44  2  0  0  0  0
 11 18  1  0  0  0  0
 11 21  1  0  0  0  0
 11 22  1  0  0  0  0
 23 12  1  6  0  0  0
 12 30  1  0  0  0  0
 12 61  1  0  0  0  0
 13 24  1  0  0  0  0
 29 13  1  1  0  0  0
 13 62  1  0  0  0  0
 31 14  1  1  0  0  0
 14 44  1  0  0  0  0
 14 77  1  0  0  0  0
 15 43  1  0  0  0  0
 15 48  2  0  0  0  0
 16 46  2  0  0  0  0
 16 51  1  0  0  0  0
 17 49  2  0  0  0  0
 17 52  1  0  0  0  0
 18 20  1  0  0  0  0
 18 24  1  6  0  0  0
 18 53  1  0  0  0  0
 19 20  1  0  0  0  0
 19 21  1  0  0  0  0
 19 54  1  0  0  0  0
 20 55  1  0  0  0  0
 20 56  1  0  0  0  0
 21 57  1  0  0  0  0
 21 58  1  0  0  0  0
 22 23  1  0  0  0  0
 23 25  1  0  0  0  0
 23 59  1  0  0  0  0
 25 27  1  0  0  0  0
 25 28  1  0  0  0  0
 25 60  1  0  0  0  0
 26 33  1  0  0  0  0
 26 63  1  0  0  0  0
 26 64  1  0  0  0  0
 27 65  1  0  0  0  0
 27 66  1  0  0  0  0
 27 67  1  0  0  0  0
 28 68  1  0  0  0  0
 28 69  1  0  0  0  0
 28 70  1  0  0  0  0
 29 34  1  0  0  0  0
 29 35  1  0  0  0  0
 29 71  1  0  0  0  0
 30 31  1  0  0  0  0
 31 32  1  0  0  0  0
 31 72  1  0  0  0  0
 32 36  1  0  0  0  0
 32 37  1  0  0  0  0
 32 73  1  0  0  0  0
 33 38  2  0  0  0  0
 33 39  1  0  0  0  0
 34 40  1  0  0  0  0
 34 74  1  0  0  0  0
 34 75  1  0  0  0  0
 35 76  1  0  0  0  0
 36 78  1  0  0  0  0
 36 79  1  0  0  0  0
 36 80  1  0  0  0  0
 37 81  1  0  0  0  0
 37 82  1  0  0  0  0
 37 83  1  0  0  0  0
 38 41  1  0  0  0  0
 39 42  2  0  0  0  0
 39 84  1  0  0  0  0
 40 85  1  0  0  0  0
 40 86  1  0  0  0  0
 40 87  1  0  0  0  0
 41 43  2  0  0  0  0
 41 45  1  0  0  0  0
 42 43  1  0  0  0  0
 42 88  1  0  0  0  0
 44 46  1  0  0  0  0
 45 47  2  0  0  0  0
 45 89  1  0  0  0  0
 46 49  1  0  0  0  0
 47 48  1  0  0  0  0
 47 90  1  0  0  0  0
 48 50  1  0  0  0  0
 49 91  1  0  0  0  0
 51 52  2  0  0  0  0
 51 92  1  0  0  0  0
 52 93  1  0  0  0  0
M  END
> <PUBCHEM_COMPOUND_CID>
506633
> <PUBCHEM_COMPOUND_CANONICALIZED>
1
> <PUBCHEM_CACTVS_COMPLEXITY>
1260
> <PUBCHEM_CACTVS_HBOND_ACCEPTOR>
12
> <PUBCHEM_CACTVS_HBOND_DONOR>
3
> <PUBCHEM_CACTVS_ROTATABLE_BOND>
14
> <PUBCHEM_CACTVS_SUBSKEYS>
AAADcfB/uYAEAAAAAAAAAAAAAAAAAWAAAAA8WIAAAAAAAACx/AAAHwIQAAAADT7hnjY+wPPIFACoAz131ACCgCQ3FiAI2KG4ftgKZvrB87mXMIhm1gHY6Me60eMOCAACAAIDAAAQAAQABAYAAAAAAAAAAA==
> <PUBCHEM_IUPAC_OPENEYE_NAME>
N-[(1S)-1-[[(1S)-1-[(2S,4R)-4-[[5-chloro-2-(trifluoromethyl)-6-quinolyl]methoxy]-2-[[(1S)-1-formylpropyl]carbamoyl]pyrrolidine-1-carbonyl]-2-methyl-propyl]carbamoyl]-2-methyl-propyl]pyrazine-2-carboxamide
> <PUBCHEM_IUPAC_CAS_NAME>
N-[(2S)-1-[[(2S)-1-[(2S,4R)-4-[[5-chloro-2-(trifluoromethyl)-6-quinolinyl]methoxy]-2-[oxo-[[(2S)-1-oxobutan-2-yl]amino]methyl]-1-pyrrolidinyl]-3-methyl-1-oxobutan-2-yl]amino]-3-methyl-1-oxobutan-2-yl]-2-pyrazinecarboxamide
> <PUBCHEM_IUPAC_NAME_MARKUP>
<I>N</I>-[(2<I>S</I>)-1-[[(2<I>S</I>)-1-[(2<I>S</I>,4<I>R</I>)-4-[[5-chloro-2-(trifluoromethyl)quinolin-6-yl]methoxy]-2-[[(2<I>S</I>)-1-oxobutan-2-yl]carbamoyl]pyrrolidin-1-yl]-3-methyl-1-oxobutan-2-yl]amino]-3-methyl-1-oxobutan-2-yl]pyrazine-2-carboxamide
> <PUBCHEM_IUPAC_NAME>
N-[(2S)-1-[[(2S)-1-[(2S,4R)-4-[[5-chloro-2-(trifluoromethyl)quinolin-6-yl]methoxy]-2-[[(2S)-1-oxobutan-2-yl]carbamoyl]pyrrolidin-1-yl]-3-methyl-1-oxobutan-2-yl]amino]-3-methyl-1-oxobutan-2-yl]pyrazine-2-carboxamide
> <PUBCHEM_IUPAC_SYSTEMATIC_NAME>
N-[(2S)-1-[[(2S)-1-[(2S,4R)-4-[[5-chloranyl-2-(trifluoromethyl)quinolin-6-yl]methoxy]-2-[[(2S)-1-oxidanylidenebutan-2-yl]carbamoyl]pyrrolidin-1-yl]-3-methyl-1-oxidanylidene-butan-2-yl]amino]-3-methyl-1-oxidanylidene-butan-2-yl]pyrazine-2-carboxamide
> <PUBCHEM_IUPAC_TRADITIONAL_NAME>
N-[(1S)-1-[[(1S)-1-[(2S,4R)-4-[[5-chloro-2-(trifluoromethyl)-6-quinolyl]methoxy]-2-[[(1S)-1-formylpropyl]carbamoyl]pyrrolidine-1-carbonyl]-2-methyl-propyl]carbamoyl]-2-methyl-propyl]pyrazinamide
> <PUBCHEM_IUPAC_INCHI>
InChI=1S/C35H41ClF3N7O6/c1-6-21(16-47)42-32(49)26-13-22(52-17-20-7-9-24-23(28(20)36)8-10-27(43-24)35(37,38)39)15-46(26)34(51)30(19(4)5)45-33(50)29(18(2)3)44-31(48)25-14-40-11-12-41-25/h7-12,14,16,18-19,21-22,26,29-30H,6,13,15,17H2,1-5H3,(H,42,49)(H,44,48)(H,45,50)/t21-,22+,26-,29-,30-/m0/s1
> <PUBCHEM_IUPAC_INCHIKEY>
ZQYKLUPTIYJBPW-WSFDISEZSA-N
> <PUBCHEM_XLOGP3_AA>
4.2
> <PUBCHEM_EXACT_MASS>
747.2758942
> <PUBCHEM_MOLECULAR_FORMULA>
C35H41ClF3N7O6
> <PUBCHEM_MOLECULAR_WEIGHT>
748.2
> <PUBCHEM_OPENEYE_CAN_SMILES>
CCC(C=O)NC(=O)C1CC(CN1C(=O)C(C(C)C)NC(=O)C(C(C)C)NC(=O)C2=NC=CN=C2)OCC3=C(C4=C(C=C3)N=C(C=C4)C(F)(F)F)Cl
> <PUBCHEM_OPENEYE_ISO_SMILES>
CC[C@@H](C=O)NC(=O)[C@@H]1C[C@H](CN1C(=O)[C@H](C(C)C)NC(=O)[C@H](C(C)C)NC(=O)C2=NC=CN=C2)OCC3=C(C4=C(C=C3)N=C(C=C4)C(F)(F)F)Cl
> <PUBCHEM_CACTVS_TPSA>
173
> <PUBCHEM_MONOISOTOPIC_WEIGHT>
747.2758942
> <PUBCHEM_TOTAL_CHARGE>
0
> <PUBCHEM_HEAVY_ATOM_COUNT>
52
> <PUBCHEM_ATOM_DEF_STEREO_COUNT>
5
> <PUBCHEM_ATOM_UDEF_STEREO_COUNT>
0
> <PUBCHEM_BOND_DEF_STEREO_COUNT>
0
> <PUBCHEM_BOND_UDEF_STEREO_COUNT>
0
> <PUBCHEM_ISOTOPIC_ATOM_COUNT>
0
> <PUBCHEM_COMPONENT_COUNT>
1
> <PUBCHEM_CACTVS_TAUTO_COUNT>
-1
> <PUBCHEM_COORDINATE_TYPE>
1
5
255
> <PUBCHEM_BONDANNOTATIONS>
23  12  6
29  13  5
31  14  5
15  43  8
15  48  8
16  46  8
16  51  8
17  49  8
17  52  8
18  24  6
33  38  8
33  39  8
38  41  8
39  42  8
41  43  8
41  45  8
42  43  8
45  47  8
46  49  8
47  48  8
19  5  5
51  52  8
$$$$
