506642
  -OEChem-10302200282D
 88 90  0     1  0  0  0  0  0999 V2000
    9.1588    6.6576    0.0000 F   0  0  0  0  0  0  0  0  0  0  0  0
   10.1588    7.6576    0.0000 F   0  0  0  0  0  0  0  0  0  0  0  0
   11.1588    6.6576    0.0000 F   0  0  0  0  0  0  0  0  0  0  0  0
    8.4268    2.6576    0.0000 O   0  0  0  0  0  0  0  0  0  0  0  0
    5.0768   -0.0629    0.0000 O   0  0  0  0  0  0  0  0  0  0  0  0
    4.3958    1.1167    0.0000 O   0  0  0  0  0  0  0  0  0  0  0  0
    7.8347   -2.3854    0.0000 O   0  0  0  0  0  0  0  0  0  0  0  0
    2.1810    3.9619    0.0000 O   0  0  0  0  0  0  0  0  0  0  0  0
    5.6200   -5.2306    0.0000 O   0  0  0  0  0  0  0  0  0  0  0  0
    6.4781    0.9552    0.0000 N   0  0  0  0  0  0  0  0  0  0  0  0
    6.2524   -1.6809    0.0000 N   0  0  0  0  0  0  0  0  0  0  0  0
    4.5768    2.8393    0.0000 N   0  0  0  0  0  0  0  0  0  0  0  0
    7.0212   -4.2125    0.0000 N   0  0  0  0  0  0  0  0  0  0  0  0
    8.1968   -5.8305    0.0000 N   0  0  0  0  0  0  0  0  0  0  0  0
    7.3833   -7.6576    0.0000 N   0  0  0  0  0  0  0  0  0  0  0  0
    5.9781    1.8212    0.0000 C   0  0  1  0  0  0  0  0  0  0  0  0
    7.5608    2.1576    0.0000 C   0  0  2  0  0  0  0  0  0  0  0  0
    6.6472    2.5644    0.0000 C   0  0  0  0  0  0  0  0  0  0  0  0
    7.4562    1.1631    0.0000 C   0  0  0  0  0  0  0  0  0  0  0  0
    6.0714    0.0416    0.0000 C   0  0  0  0  0  0  0  0  0  0  0  0
    6.6591   -0.7674    0.0000 C   0  0  2  0  0  0  0  0  0  0  0  0
    4.9836    1.9257    0.0000 C   0  0  0  0  0  0  0  0  0  0  0  0
    7.6537   -0.6628    0.0000 C   0  0  0  0  0  0  0  0  0  0  0  0
    8.4268    3.6576    0.0000 C   0  0  0  0  0  0  0  0  0  0  0  0
    8.2414   -1.4719    0.0000 C   0  0  0  0  0  0  0  0  0  0  0  0
    8.0604    0.2507    0.0000 C   0  0  0  0  0  0  0  0  0  0  0  0
    3.5823    2.9438    0.0000 C   0  0  1  0  0  0  0  0  0  0  0  0
    6.8402   -2.4899    0.0000 C   0  0  0  0  0  0  0  0  0  0  0  0
    6.4334   -3.4035    0.0000 C   0  0  2  0  0  0  0  0  0  0  0  0
    5.4389   -3.5080    0.0000 C   0  0  0  0  0  0  0  0  0  0  0  0
    9.2928    4.1576    0.0000 C   0  0  0  0  0  0  0  0  0  0  0  0
    2.9945    2.1348    0.0000 C   0  0  0  0  0  0  0  0  0  0  0  0
    3.1756    3.8574    0.0000 C   0  0  0  0  0  0  0  0  0  0  0  0
    5.0322   -4.4216    0.0000 C   0  0  0  0  0  0  0  0  0  0  0  0
    4.8511   -2.6990    0.0000 C   0  0  0  0  0  0  0  0  0  0  0  0
    9.2928    5.1576    0.0000 C   0  0  0  0  0  0  0  0  0  0  0  0
   10.1588    3.6576    0.0000 C   0  0  0  0  0  0  0  0  0  0  0  0
    2.0000    2.2393    0.0000 C   0  0  0  0  0  0  0  0  0  0  0  0
   10.1588    5.6576    0.0000 C   0  0  0  0  0  0  0  0  0  0  0  0
    6.6145   -5.1260    0.0000 C   0  0  0  0  0  0  0  0  0  0  0  0
   11.0249    4.1576    0.0000 C   0  0  0  0  0  0  0  0  0  0  0  0
   11.0249    5.1576    0.0000 C   0  0  0  0  0  0  0  0  0  0  0  0
   10.1588    6.6576    0.0000 C   0  0  0  0  0  0  0  0  0  0  0  0
    7.2023   -5.9351    0.0000 C   0  0  0  0  0  0  0  0  0  0  0  0
    6.7956   -6.8486    0.0000 C   0  0  0  0  0  0  0  0  0  0  0  0
    8.7846   -6.6396    0.0000 C   0  0  0  0  0  0  0  0  0  0  0  0
    8.3778   -7.5531    0.0000 C   0  0  0  0  0  0  0  0  0  0  0  0
    5.6404    1.3012    0.0000 H   0  0  0  0  0  0  0  0  0  0  0  0
    8.0807    1.8200    0.0000 H   0  0  0  0  0  0  0  0  0  0  0  0
    6.9572    3.1013    0.0000 H   0  0  0  0  0  0  0  0  0  0  0  0
    6.1456    2.9288    0.0000 H   0  0  0  0  0  0  0  0  0  0  0  0
    7.5210    0.5465    0.0000 H   0  0  0  0  0  0  0  0  0  0  0  0
    8.0762    1.1631    0.0000 H   0  0  0  0  0  0  0  0  0  0  0  0
    6.0425   -0.8322    0.0000 H   0  0  0  0  0  0  0  0  0  0  0  0
    7.4015   -1.2292    0.0000 H   0  0  0  0  0  0  0  0  0  0  0  0
    5.6358   -1.7457    0.0000 H   0  0  0  0  0  0  0  0  0  0  0  0
    4.9413    3.3409    0.0000 H   0  0  0  0  0  0  0  0  0  0  0  0
    8.2147    4.2402    0.0000 H   0  0  0  0  0  0  0  0  0  0  0  0
    7.8162    3.5500    0.0000 H   0  0  0  0  0  0  0  0  0  0  0  0
    7.7398   -1.8363    0.0000 H   0  0  0  0  0  0  0  0  0  0  0  0
    8.6059   -1.9734    0.0000 H   0  0  0  0  0  0  0  0  0  0  0  0
    8.7430   -1.1074    0.0000 H   0  0  0  0  0  0  0  0  0  0  0  0
    8.6268   -0.0015    0.0000 H   0  0  0  0  0  0  0  0  0  0  0  0
    8.3126    0.8171    0.0000 H   0  0  0  0  0  0  0  0  0  0  0  0
    7.4940    0.5029    0.0000 H   0  0  0  0  0  0  0  0  0  0  0  0
    3.8345    2.3774    0.0000 H   0  0  0  0  0  0  0  0  0  0  0  0
    7.0500   -3.3387    0.0000 H   0  0  0  0  0  0  0  0  0  0  0  0
    4.8223   -3.5728    0.0000 H   0  0  0  0  0  0  0  0  0  0  0  0
    2.8236    1.5388    0.0000 H   0  0  0  0  0  0  0  0  0  0  0  0
    3.5518    1.8630    0.0000 H   0  0  0  0  0  0  0  0  0  0  0  0
    7.6378   -4.1477    0.0000 H   0  0  0  0  0  0  0  0  0  0  0  0
    3.5400    4.3590    0.0000 H   0  0  0  0  0  0  0  0  0  0  0  0
    4.4658   -4.1694    0.0000 H   0  0  0  0  0  0  0  0  0  0  0  0
    4.7800   -4.9880    0.0000 H   0  0  0  0  0  0  0  0  0  0  0  0
    5.5986   -4.6737    0.0000 H   0  0  0  0  0  0  0  0  0  0  0  0
    5.3527   -2.3346    0.0000 H   0  0  0  0  0  0  0  0  0  0  0  0
    4.4867   -2.1974    0.0000 H   0  0  0  0  0  0  0  0  0  0  0  0
    4.3496   -3.0634    0.0000 H   0  0  0  0  0  0  0  0  0  0  0  0
    8.7559    5.4676    0.0000 H   0  0  0  0  0  0  0  0  0  0  0  0
   10.1588    3.0376    0.0000 H   0  0  0  0  0  0  0  0  0  0  0  0
    2.0648    2.8559    0.0000 H   0  0  0  0  0  0  0  0  0  0  0  0
    1.3834    2.3041    0.0000 H   0  0  0  0  0  0  0  0  0  0  0  0
    1.9352    1.6227    0.0000 H   0  0  0  0  0  0  0  0  0  0  0  0
   11.5618    3.8476    0.0000 H   0  0  0  0  0  0  0  0  0  0  0  0
   11.5618    5.4676    0.0000 H   0  0  0  0  0  0  0  0  0  0  0  0
    6.1789   -6.9134    0.0000 H   0  0  0  0  0  0  0  0  0  0  0  0
    9.4012   -6.5747    0.0000 H   0  0  0  0  0  0  0  0  0  0  0  0
    8.7423   -8.0547    0.0000 H   0  0  0  0  0  0  0  0  0  0  0  0
  1 43  1  0  0  0  0
  2 43  1  0  0  0  0
  3 43  1  0  0  0  0
 17  4  1  1  0  0  0
  4 24  1  0  0  0  0
  5 20  2  0  0  0  0
  6 22  2  0  0  0  0
  7 28  2  0  0  0  0
  8 33  2  0  0  0  0
  9 40  2  0  0  0  0
 10 16  1  0  0  0  0
 10 19  1  0  0  0  0
 10 20  1  0  0  0  0
 21 11  1  6  0  0  0
 11 28  1  0  0  0  0
 11 56  1  0  0  0  0
 12 22  1  0  0  0  0
 27 12  1  1  0  0  0
 12 57  1  0  0  0  0
 29 13  1  1  0  0  0
 13 40  1  0  0  0  0
 13 71  1  0  0  0  0
 14 44  2  0  0  0  0
 14 46  1  0  0  0  0
 15 45  2  0  0  0  0
 15 47  1  0  0  0  0
 16 18  1  0  0  0  0
 16 22  1  6  0  0  0
 16 48  1  0  0  0  0
 17 18  1  0  0  0  0
 17 19  1  0  0  0  0
 17 49  1  0  0  0  0
 18 50  1  0  0  0  0
 18 51  1  0  0  0  0
 19 52  1  0  0  0  0
 19 53  1  0  0  0  0
 20 21  1  0  0  0  0
 21 23  1  0  0  0  0
 21 54  1  0  0  0  0
 23 25  1  0  0  0  0
 23 26  1  0  0  0  0
 23 55  1  0  0  0  0
 24 31  1  0  0  0  0
 24 58  1  0  0  0  0
 24 59  1  0  0  0  0
 25 60  1  0  0  0  0
 25 61  1  0  0  0  0
 25 62  1  0  0  0  0
 26 63  1  0  0  0  0
 26 64  1  0  0  0  0
 26 65  1  0  0  0  0
 27 32  1  0  0  0  0
 27 33  1  0  0  0  0
 27 66  1  0  0  0  0
 28 29  1  0  0  0  0
 29 30  1  0  0  0  0
 29 67  1  0  0  0  0
 30 34  1  0  0  0  0
 30 35  1  0  0  0  0
 30 68  1  0  0  0  0
 31 36  2  0  0  0  0
 31 37  1  0  0  0  0
 32 38  1  0  0  0  0
 32 69  1  0  0  0  0
 32 70  1  0  0  0  0
 33 72  1  0  0  0  0
 34 73  1  0  0  0  0
 34 74  1  0  0  0  0
 34 75  1  0  0  0  0
 35 76  1  0  0  0  0
 35 77  1  0  0  0  0
 35 78  1  0  0  0  0
 36 39  1  0  0  0  0
 36 79  1  0  0  0  0
 37 41  2  0  0  0  0
 37 80  1  0  0  0  0
 38 81  1  0  0  0  0
 38 82  1  0  0  0  0
 38 83  1  0  0  0  0
 39 42  2  0  0  0  0
 39 43  1  0  0  0  0
 40 44  1  0  0  0  0
 41 42  1  0  0  0  0
 41 84  1  0  0  0  0
 42 85  1  0  0  0  0
 44 45  1  0  0  0  0
 45 86  1  0  0  0  0
 46 47  2  0  0  0  0
 46 87  1  0  0  0  0
 47 88  1  0  0  0  0
M  END
> <PUBCHEM_COMPOUND_CID>
506642
> <PUBCHEM_COMPOUND_CANONICALIZED>
1
> <PUBCHEM_CACTVS_COMPLEXITY>
1090
> <PUBCHEM_CACTVS_HBOND_ACCEPTOR>
11
> <PUBCHEM_CACTVS_HBOND_DONOR>
3
> <PUBCHEM_CACTVS_ROTATABLE_BOND>
14
> <PUBCHEM_CACTVS_SUBSKEYS>
AAADcfB/uYAAAAAAAAAAAAAAAAAAAWAAAAA8QAAAAAAAAAABwAAAHwAQAAAADTzhnhY+gJPIFACoAz131ACCgCQ3EiAI2IG4fMgKZnrA8TiXMIgm1gHYqMe6wWAOAAACAAAAAAAAAAQAAAAAAAAAAAAAAA==
> <PUBCHEM_IUPAC_OPENEYE_NAME>
N-[(1S)-1-[[(1S)-1-[(2S,4R)-2-[[(1S)-1-formylpropyl]carbamoyl]-4-[[3-(trifluoromethyl)phenyl]methoxy]pyrrolidine-1-carbonyl]-2-methyl-propyl]carbamoyl]-2-methyl-propyl]pyrazine-2-carboxamide
> <PUBCHEM_IUPAC_CAS_NAME>
N-[(2S)-3-methyl-1-[[(2S)-3-methyl-1-oxo-1-[(2S,4R)-2-[oxo-[[(2S)-1-oxobutan-2-yl]amino]methyl]-4-[[3-(trifluoromethyl)phenyl]methoxy]-1-pyrrolidinyl]butan-2-yl]amino]-1-oxobutan-2-yl]-2-pyrazinecarboxamide
> <PUBCHEM_IUPAC_NAME_MARKUP>
<I>N</I>-[(2<I>S</I>)-3-methyl-1-[[(2<I>S</I>)-3-methyl-1-oxo-1-[(2<I>S</I>,4<I>R</I>)-2-[[(2<I>S</I>)-1-oxobutan-2-yl]carbamoyl]-4-[[3-(trifluoromethyl)phenyl]methoxy]pyrrolidin-1-yl]butan-2-yl]amino]-1-oxobutan-2-yl]pyrazine-2-carboxamide
> <PUBCHEM_IUPAC_NAME>
N-[(2S)-3-methyl-1-[[(2S)-3-methyl-1-oxo-1-[(2S,4R)-2-[[(2S)-1-oxobutan-2-yl]carbamoyl]-4-[[3-(trifluoromethyl)phenyl]methoxy]pyrrolidin-1-yl]butan-2-yl]amino]-1-oxobutan-2-yl]pyrazine-2-carboxamide
> <PUBCHEM_IUPAC_SYSTEMATIC_NAME>
N-[(2S)-3-methyl-1-[[(2S)-3-methyl-1-oxidanylidene-1-[(2S,4R)-2-[[(2S)-1-oxidanylidenebutan-2-yl]carbamoyl]-4-[[3-(trifluoromethyl)phenyl]methoxy]pyrrolidin-1-yl]butan-2-yl]amino]-1-oxidanylidene-butan-2-yl]pyrazine-2-carboxamide
> <PUBCHEM_IUPAC_TRADITIONAL_NAME>
N-[(1S)-1-[[(1S)-1-[(2S,4R)-2-[[(1S)-1-formylpropyl]carbamoyl]-4-[3-(trifluoromethyl)benzyl]oxy-pyrrolidine-1-carbonyl]-2-methyl-propyl]carbamoyl]-2-methyl-propyl]pyrazinamide
> <PUBCHEM_IUPAC_INCHI>
InChI=1S/C32H41F3N6O6/c1-6-22(16-42)38-29(44)25-13-23(47-17-20-8-7-9-21(12-20)32(33,34)35)15-41(25)31(46)27(19(4)5)40-30(45)26(18(2)3)39-28(43)24-14-36-10-11-37-24/h7-12,14,16,18-19,22-23,25-27H,6,13,15,17H2,1-5H3,(H,38,44)(H,39,43)(H,40,45)/t22-,23+,25-,26-,27-/m0/s1
> <PUBCHEM_IUPAC_INCHIKEY>
XYKKSVLYOXRXFA-BILQSEOESA-N
> <PUBCHEM_XLOGP3_AA>
3.3
> <PUBCHEM_EXACT_MASS>
662.30396754
> <PUBCHEM_MOLECULAR_FORMULA>
C32H41F3N6O6
> <PUBCHEM_MOLECULAR_WEIGHT>
662.7
> <PUBCHEM_OPENEYE_CAN_SMILES>
CCC(C=O)NC(=O)C1CC(CN1C(=O)C(C(C)C)NC(=O)C(C(C)C)NC(=O)C2=NC=CN=C2)OCC3=CC(=CC=C3)C(F)(F)F
> <PUBCHEM_OPENEYE_ISO_SMILES>
CC[C@@H](C=O)NC(=O)[C@@H]1C[C@H](CN1C(=O)[C@H](C(C)C)NC(=O)[C@H](C(C)C)NC(=O)C2=NC=CN=C2)OCC3=CC(=CC=C3)C(F)(F)F
> <PUBCHEM_CACTVS_TPSA>
160
> <PUBCHEM_MONOISOTOPIC_WEIGHT>
662.30396754
> <PUBCHEM_TOTAL_CHARGE>
0
> <PUBCHEM_HEAVY_ATOM_COUNT>
47
> <PUBCHEM_ATOM_DEF_STEREO_COUNT>
5
> <PUBCHEM_ATOM_UDEF_STEREO_COUNT>
0
> <PUBCHEM_BOND_DEF_STEREO_COUNT>
0
> <PUBCHEM_BOND_UDEF_STEREO_COUNT>
0
> <PUBCHEM_ISOTOPIC_ATOM_COUNT>
0
> <PUBCHEM_COMPONENT_COUNT>
1
> <PUBCHEM_CACTVS_TAUTO_COUNT>
-1
> <PUBCHEM_COORDINATE_TYPE>
1
5
255
> <PUBCHEM_BONDANNOTATIONS>
21  11  6
27  12  5
29  13  5
14  44  8
14  46  8
15  45  8
15  47  8
16  22  6
31  36  8
31  37  8
36  39  8
37  41  8
39  42  8
17  4  5
41  42  8
44  45  8
46  47  8
$$$$
