506677
  -OEChem-10302200282D
 96 99  0     1  0  0  0  0  0999 V2000
   11.4550    0.4991    0.0000 O   0  0  0  0  0  0  0  0  0  0  0  0
    7.4240   -1.0418    0.0000 O   0  0  0  0  0  0  0  0  0  0  0  0
    8.1050   -2.2214    0.0000 O   0  0  0  0  0  0  0  0  0  0  0  0
    6.7916    2.5078    0.0000 O   0  0  0  0  0  0  0  0  0  0  0  0
   12.3210   -1.0009    0.0000 O   0  0  0  0  0  0  0  0  0  0  0  0
    9.4616   -5.5620    0.0000 O   0  0  0  0  0  0  0  0  0  0  0  0
    3.2202    2.0124    0.0000 O   0  0  0  0  0  0  0  0  0  0  0  0
    9.0063   -0.3373    0.0000 N   0  0  0  0  0  0  0  0  0  0  0  0
    6.6105    0.7853    0.0000 N   0  0  0  0  0  0  0  0  0  0  0  0
    9.6873   -2.9259    0.0000 N   0  0  0  0  0  0  0  0  0  0  0  0
    4.8025    2.7169    0.0000 N   0  0  0  0  0  0  0  0  0  0  0  0
   13.1870    0.4991    0.0000 N   0  0  0  0  0  0  0  0  0  0  0  0
    3.9890    4.5440    0.0000 N   0  0  0  0  0  0  0  0  0  0  0  0
    2.0000    4.7530    0.0000 N   0  0  0  0  0  0  0  0  0  0  0  0
    9.5063   -1.2034    0.0000 C   0  0  1  0  0  0  0  0  0  0  0  0
   10.4844   -0.9955    0.0000 C   0  0  0  0  0  0  0  0  0  0  0  0
   10.5890   -0.0009    0.0000 C   0  0  2  0  0  0  0  0  0  0  0  0
    9.6754    0.4058    0.0000 C   0  0  0  0  0  0  0  0  0  0  0  0
    8.0118   -0.2328    0.0000 C   0  0  0  0  0  0  0  0  0  0  0  0
    7.6050    0.6807    0.0000 C   0  0  2  0  0  0  0  0  0  0  0  0
    9.0996   -2.1169    0.0000 C   0  0  0  0  0  0  0  0  0  0  0  0
    8.1928    1.4897    0.0000 C   0  0  0  0  0  0  0  0  0  0  0  0
    7.7861    2.4033    0.0000 C   0  0  0  0  0  0  0  0  0  0  0  0
    9.1873    1.3852    0.0000 C   0  0  0  0  0  0  0  0  0  0  0  0
    9.2806   -3.8395    0.0000 C   0  0  1  0  0  0  0  0  0  0  0  0
    6.2038    1.6988    0.0000 C   0  0  0  0  0  0  0  0  0  0  0  0
    5.2092    1.8033    0.0000 C   0  0  2  0  0  0  0  0  0  0  0  0
   12.3210   -0.0009    0.0000 C   0  0  0  0  0  0  0  0  0  0  0  0
    4.6215    0.9943    0.0000 C   0  0  0  0  0  0  0  0  0  0  0  0
    8.2861   -3.9440    0.0000 C   0  0  0  0  0  0  0  0  0  0  0  0
    9.8684   -4.6485    0.0000 C   0  0  0  0  0  0  0  0  0  0  0  0
    3.6270    1.0988    0.0000 C   0  0  0  0  0  0  0  0  0  0  0  0
    5.0282    0.0808    0.0000 C   0  0  0  0  0  0  0  0  0  0  0  0
    7.8794   -4.8576    0.0000 C   0  0  0  0  0  0  0  0  0  0  0  0
   14.0531   -0.0009    0.0000 C   0  0  0  0  0  0  0  0  0  0  0  0
    3.8080    2.8214    0.0000 C   0  0  0  0  0  0  0  0  0  0  0  0
   14.9191    0.4991    0.0000 C   0  0  0  0  0  0  0  0  0  0  0  0
   14.0531   -1.0009    0.0000 C   0  0  0  0  0  0  0  0  0  0  0  0
    3.4013    3.7350    0.0000 C   0  0  0  0  0  0  0  0  0  0  0  0
   15.7851   -0.0009    0.0000 C   0  0  0  0  0  0  0  0  0  0  0  0
   14.9191    1.4991    0.0000 C   0  0  0  0  0  0  0  0  0  0  0  0
   14.9191   -1.5009    0.0000 C   0  0  0  0  0  0  0  0  0  0  0  0
   15.7851   -1.0009    0.0000 C   0  0  0  0  0  0  0  0  0  0  0  0
    2.4067    3.8395    0.0000 C   0  0  0  0  0  0  0  0  0  0  0  0
   14.0531    1.9991    0.0000 C   0  0  0  0  0  0  0  0  0  0  0  0
   15.7851    1.9991    0.0000 C   0  0  0  0  0  0  0  0  0  0  0  0
    3.5823    5.4575    0.0000 C   0  0  0  0  0  0  0  0  0  0  0  0
   14.0531    2.9991    0.0000 C   0  0  0  0  0  0  0  0  0  0  0  0
   15.7851    2.9991    0.0000 C   0  0  0  0  0  0  0  0  0  0  0  0
    2.5878    5.5620    0.0000 C   0  0  0  0  0  0  0  0  0  0  0  0
   14.9191    3.4991    0.0000 C   0  0  0  0  0  0  0  0  0  0  0  0
    8.8871   -1.2358    0.0000 H   0  0  0  0  0  0  0  0  0  0  0  0
   10.5492   -1.6121    0.0000 H   0  0  0  0  0  0  0  0  0  0  0  0
   11.1044   -0.9955    0.0000 H   0  0  0  0  0  0  0  0  0  0  0  0
   11.1089   -0.3386    0.0000 H   0  0  0  0  0  0  0  0  0  0  0  0
    9.9854    0.9427    0.0000 H   0  0  0  0  0  0  0  0  0  0  0  0
    9.1738    0.7702    0.0000 H   0  0  0  0  0  0  0  0  0  0  0  0
    7.2406    0.1791    0.0000 H   0  0  0  0  0  0  0  0  0  0  0  0
    8.5572    1.9913    0.0000 H   0  0  0  0  0  0  0  0  0  0  0  0
    6.2461    0.2837    0.0000 H   0  0  0  0  0  0  0  0  0  0  0  0
   10.3039   -2.8611    0.0000 H   0  0  0  0  0  0  0  0  0  0  0  0
    8.3525    2.6555    0.0000 H   0  0  0  0  0  0  0  0  0  0  0  0
    7.5339    2.9697    0.0000 H   0  0  0  0  0  0  0  0  0  0  0  0
    7.2197    2.1511    0.0000 H   0  0  0  0  0  0  0  0  0  0  0  0
    9.1225    0.7686    0.0000 H   0  0  0  0  0  0  0  0  0  0  0  0
    9.8040    1.3204    0.0000 H   0  0  0  0  0  0  0  0  0  0  0  0
    9.2522    2.0018    0.0000 H   0  0  0  0  0  0  0  0  0  0  0  0
    8.9162   -3.3379    0.0000 H   0  0  0  0  0  0  0  0  0  0  0  0
    5.5737    2.3049    0.0000 H   0  0  0  0  0  0  0  0  0  0  0  0
    5.2381    0.9295    0.0000 H   0  0  0  0  0  0  0  0  0  0  0  0
    8.3293   -3.3255    0.0000 H   0  0  0  0  0  0  0  0  0  0  0  0
    7.6845   -3.7940    0.0000 H   0  0  0  0  0  0  0  0  0  0  0  0
    5.1669    3.2185    0.0000 H   0  0  0  0  0  0  0  0  0  0  0  0
   10.4850   -4.5837    0.0000 H   0  0  0  0  0  0  0  0  0  0  0  0
   13.1870    1.1191    0.0000 H   0  0  0  0  0  0  0  0  0  0  0  0
    3.6918    1.7154    0.0000 H   0  0  0  0  0  0  0  0  0  0  0  0
    3.0103    1.1636    0.0000 H   0  0  0  0  0  0  0  0  0  0  0  0
    3.5621    0.4822    0.0000 H   0  0  0  0  0  0  0  0  0  0  0  0
    4.4618   -0.1714    0.0000 H   0  0  0  0  0  0  0  0  0  0  0  0
    5.2804   -0.4856    0.0000 H   0  0  0  0  0  0  0  0  0  0  0  0
    5.5946    0.3329    0.0000 H   0  0  0  0  0  0  0  0  0  0  0  0
    7.3130   -4.6054    0.0000 H   0  0  0  0  0  0  0  0  0  0  0  0
    7.6272   -5.4239    0.0000 H   0  0  0  0  0  0  0  0  0  0  0  0
    8.4457   -5.1097    0.0000 H   0  0  0  0  0  0  0  0  0  0  0  0
   13.5161   -1.3109    0.0000 H   0  0  0  0  0  0  0  0  0  0  0  0
   16.3221    0.3091    0.0000 H   0  0  0  0  0  0  0  0  0  0  0  0
   14.9191   -2.1209    0.0000 H   0  0  0  0  0  0  0  0  0  0  0  0
   16.3221   -1.3109    0.0000 H   0  0  0  0  0  0  0  0  0  0  0  0
    2.0423    3.3379    0.0000 H   0  0  0  0  0  0  0  0  0  0  0  0
   13.5161    1.6891    0.0000 H   0  0  0  0  0  0  0  0  0  0  0  0
   16.3221    1.6891    0.0000 H   0  0  0  0  0  0  0  0  0  0  0  0
    3.9467    5.9591    0.0000 H   0  0  0  0  0  0  0  0  0  0  0  0
   13.5161    3.3091    0.0000 H   0  0  0  0  0  0  0  0  0  0  0  0
   16.3221    3.3091    0.0000 H   0  0  0  0  0  0  0  0  0  0  0  0
    2.3356    6.1284    0.0000 H   0  0  0  0  0  0  0  0  0  0  0  0
   14.9191    4.1191    0.0000 H   0  0  0  0  0  0  0  0  0  0  0  0
 17  1  1  6  0  0  0
  1 28  1  0  0  0  0
  2 19  2  0  0  0  0
  3 21  2  0  0  0  0
  4 26  2  0  0  0  0
  5 28  2  0  0  0  0
  6 31  2  0  0  0  0
  7 36  2  0  0  0  0
  8 15  1  0  0  0  0
  8 18  1  0  0  0  0
  8 19  1  0  0  0  0
 20  9  1  1  0  0  0
  9 26  1  0  0  0  0
  9 60  1  0  0  0  0
 10 21  1  0  0  0  0
 25 10  1  6  0  0  0
 10 61  1  0  0  0  0
 27 11  1  6  0  0  0
 11 36  1  0  0  0  0
 11 73  1  0  0  0  0
 12 28  1  0  0  0  0
 12 35  1  0  0  0  0
 12 75  1  0  0  0  0
 13 39  2  0  0  0  0
 13 47  1  0  0  0  0
 14 44  2  0  0  0  0
 14 50  1  0  0  0  0
 15 16  1  0  0  0  0
 15 21  1  1  0  0  0
 15 52  1  0  0  0  0
 16 17  1  0  0  0  0
 16 53  1  0  0  0  0
 16 54  1  0  0  0  0
 17 18  1  0  0  0  0
 17 55  1  0  0  0  0
 18 56  1  0  0  0  0
 18 57  1  0  0  0  0
 19 20  1  0  0  0  0
 20 22  1  0  0  0  0
 20 58  1  0  0  0  0
 22 23  1  0  0  0  0
 22 24  1  0  0  0  0
 22 59  1  0  0  0  0
 23 62  1  0  0  0  0
 23 63  1  0  0  0  0
 23 64  1  0  0  0  0
 24 65  1  0  0  0  0
 24 66  1  0  0  0  0
 24 67  1  0  0  0  0
 25 30  1  0  0  0  0
 25 31  1  0  0  0  0
 25 68  1  0  0  0  0
 26 27  1  0  0  0  0
 27 29  1  0  0  0  0
 27 69  1  0  0  0  0
 29 32  1  0  0  0  0
 29 33  1  0  0  0  0
 29 70  1  0  0  0  0
 30 34  1  0  0  0  0
 30 71  1  0  0  0  0
 30 72  1  0  0  0  0
 31 74  1  0  0  0  0
 32 76  1  0  0  0  0
 32 77  1  0  0  0  0
 32 78  1  0  0  0  0
 33 79  1  0  0  0  0
 33 80  1  0  0  0  0
 33 81  1  0  0  0  0
 34 82  1  0  0  0  0
 34 83  1  0  0  0  0
 34 84  1  0  0  0  0
 35 37  1  0  0  0  0
 35 38  2  0  0  0  0
 36 39  1  0  0  0  0
 37 40  2  0  0  0  0
 37 41  1  0  0  0  0
 38 42  1  0  0  0  0
 38 85  1  0  0  0  0
 39 44  1  0  0  0  0
 40 43  1  0  0  0  0
 40 86  1  0  0  0  0
 41 45  2  0  0  0  0
 41 46  1  0  0  0  0
 42 43  2  0  0  0  0
 42 87  1  0  0  0  0
 43 88  1  0  0  0  0
 44 89  1  0  0  0  0
 45 48  1  0  0  0  0
 45 90  1  0  0  0  0
 46 49  2  0  0  0  0
 46 91  1  0  0  0  0
 47 50  2  0  0  0  0
 47 92  1  0  0  0  0
 48 51  2  0  0  0  0
 48 93  1  0  0  0  0
 49 51  1  0  0  0  0
 49 94  1  0  0  0  0
 50 95  1  0  0  0  0
 51 96  1  0  0  0  0
M  END
> <PUBCHEM_COMPOUND_CID>
506677
> <PUBCHEM_COMPOUND_CANONICALIZED>
1
> <PUBCHEM_CACTVS_COMPLEXITY>
1210
> <PUBCHEM_CACTVS_HBOND_ACCEPTOR>
9
> <PUBCHEM_CACTVS_HBOND_DONOR>
4
> <PUBCHEM_CACTVS_ROTATABLE_BOND>
15
> <PUBCHEM_CACTVS_SUBSKEYS>
AAADcfB/uAAAAAAAAAAAAAAAAAAAAWAAAAA8YIAAAAAAAAAB0AAAHgAQAAAADTzhngY+yJPIFACoAz133ACCgCQ3EiAI2IG4dMkKYHrA0bGdIIhmlgDYyMc6gcAOgAAAAAACAAAAAAAAAAQAAAAAAAAAAA==
> <PUBCHEM_IUPAC_OPENEYE_NAME>
[(3R,5S)-5-[[(1S)-1-formylpropyl]carbamoyl]-1-[(2S)-3-methyl-2-[[(2S)-3-methyl-2-(pyrazine-2-carbonylamino)butanoyl]amino]butanoyl]pyrrolidin-3-yl] N-(2-phenylphenyl)carbamate
> <PUBCHEM_IUPAC_CAS_NAME>
N-(2-phenylphenyl)carbamic acid [(3R,5S)-1-[(2S)-3-methyl-2-[[(2S)-3-methyl-1-oxo-2-[[oxo(2-pyrazinyl)methyl]amino]butyl]amino]-1-oxobutyl]-5-[oxo-[[(2S)-1-oxobutan-2-yl]amino]methyl]-3-pyrrolidinyl] ester
> <PUBCHEM_IUPAC_NAME_MARKUP>
[(3<I>R</I>,5<I>S</I>)-1-[(2<I>S</I>)-3-methyl-2-[[(2<I>S</I>)-3-methyl-2-(pyrazine-2-carbonylamino)butanoyl]amino]butanoyl]-5-[[(2<I>S</I>)-1-oxobutan-2-yl]carbamoyl]pyrrolidin-3-yl] <I>N</I>-(2-phenylphenyl)carbamate
> <PUBCHEM_IUPAC_NAME>
[(3R,5S)-1-[(2S)-3-methyl-2-[[(2S)-3-methyl-2-(pyrazine-2-carbonylamino)butanoyl]amino]butanoyl]-5-[[(2S)-1-oxobutan-2-yl]carbamoyl]pyrrolidin-3-yl] N-(2-phenylphenyl)carbamate
> <PUBCHEM_IUPAC_SYSTEMATIC_NAME>
[(3R,5S)-1-[(2S)-3-methyl-2-[[(2S)-3-methyl-2-(pyrazin-2-ylcarbonylamino)butanoyl]amino]butanoyl]-5-[[(2S)-1-oxidanylidenebutan-2-yl]carbamoyl]pyrrolidin-3-yl] N-(2-phenylphenyl)carbamate
> <PUBCHEM_IUPAC_TRADITIONAL_NAME>
N-(2-phenylphenyl)carbamic acid [(3R,5S)-5-[[(1S)-1-formylpropyl]carbamoyl]-1-[(2S)-3-methyl-2-[[(2S)-3-methyl-2-(pyrazinoylamino)butanoyl]amino]butanoyl]pyrrolidin-3-yl] ester
> <PUBCHEM_IUPAC_INCHI>
InChI=1S/C37H45N7O7/c1-6-25(21-45)40-34(47)30-18-26(51-37(50)41-28-15-11-10-14-27(28)24-12-8-7-9-13-24)20-44(30)36(49)32(23(4)5)43-35(48)31(22(2)3)42-33(46)29-19-38-16-17-39-29/h7-17,19,21-23,25-26,30-32H,6,18,20H2,1-5H3,(H,40,47)(H,41,50)(H,42,46)(H,43,48)/t25-,26+,30-,31-,32-/m0/s1
> <PUBCHEM_IUPAC_INCHIKEY>
XBOCDIIMGHYBET-ZETSEIBLSA-N
> <PUBCHEM_XLOGP3_AA>
3.9
> <PUBCHEM_EXACT_MASS>
699.33804680
> <PUBCHEM_MOLECULAR_FORMULA>
C37H45N7O7
> <PUBCHEM_MOLECULAR_WEIGHT>
699.8
> <PUBCHEM_OPENEYE_CAN_SMILES>
CCC(C=O)NC(=O)C1CC(CN1C(=O)C(C(C)C)NC(=O)C(C(C)C)NC(=O)C2=NC=CN=C2)OC(=O)NC3=CC=CC=C3C4=CC=CC=C4
> <PUBCHEM_OPENEYE_ISO_SMILES>
CC[C@@H](C=O)NC(=O)[C@@H]1C[C@H](CN1C(=O)[C@H](C(C)C)NC(=O)[C@H](C(C)C)NC(=O)C2=NC=CN=C2)OC(=O)NC3=CC=CC=C3C4=CC=CC=C4
> <PUBCHEM_CACTVS_TPSA>
189
> <PUBCHEM_MONOISOTOPIC_WEIGHT>
699.33804680
> <PUBCHEM_TOTAL_CHARGE>
0
> <PUBCHEM_HEAVY_ATOM_COUNT>
51
> <PUBCHEM_ATOM_DEF_STEREO_COUNT>
5
> <PUBCHEM_ATOM_UDEF_STEREO_COUNT>
0
> <PUBCHEM_BOND_DEF_STEREO_COUNT>
0
> <PUBCHEM_BOND_UDEF_STEREO_COUNT>
0
> <PUBCHEM_ISOTOPIC_ATOM_COUNT>
0
> <PUBCHEM_COMPONENT_COUNT>
1
> <PUBCHEM_CACTVS_TAUTO_COUNT>
-1
> <PUBCHEM_COORDINATE_TYPE>
1
5
255
> <PUBCHEM_BONDANNOTATIONS>
17  1  6
25  10  6
27  11  6
13  39  8
13  47  8
14  44  8
14  50  8
15  21  5
35  37  8
35  38  8
37  40  8
38  42  8
39  44  8
40  43  8
41  45  8
41  46  8
42  43  8
45  48  8
46  49  8
47  50  8
48  51  8
49  51  8
20  9  5
$$$$
