506681
  -OEChem-10302200282D
 95 97  0     1  0  0  0  0  0999 V2000
    5.4641   -1.6576    0.0000 O   0  0  0  0  0  0  0  0  0  0  0  0
    8.8141    1.0629    0.0000 O   0  0  0  0  0  0  0  0  0  0  0  0
    9.4951   -0.1167    0.0000 O   0  0  0  0  0  0  0  0  0  0  0  0
    6.0562    3.3854    0.0000 O   0  0  0  0  0  0  0  0  0  0  0  0
    6.3301   -3.1576    0.0000 O   0  0  0  0  0  0  0  0  0  0  0  0
   11.7098   -2.9619    0.0000 O   0  0  0  0  0  0  0  0  0  0  0  0
    8.2709    6.2306    0.0000 O   0  0  0  0  0  0  0  0  0  0  0  0
    2.8660   -7.1576    0.0000 O   0  0  0  0  0  0  0  0  0  0  0  0
    2.0000   -5.6576    0.0000 O   0  0  0  0  0  0  0  0  0  0  0  0
    7.4128    0.0448    0.0000 N   0  0  0  0  0  0  0  0  0  0  0  0
    7.6385    2.6809    0.0000 N   0  0  0  0  0  0  0  0  0  0  0  0
    9.3141   -1.8393    0.0000 N   0  0  0  0  0  0  0  0  0  0  0  0
    6.8697    5.2125    0.0000 N   0  0  0  0  0  0  0  0  0  0  0  0
    4.5981   -3.1576    0.0000 N   0  0  0  0  0  0  0  0  0  0  0  0
    5.6941    6.8305    0.0000 N   0  0  0  0  0  0  0  0  0  0  0  0
    6.5076    8.6576    0.0000 N   0  0  0  0  0  0  0  0  0  0  0  0
    7.9128   -0.8212    0.0000 C   0  0  1  0  0  0  0  0  0  0  0  0
    7.2437   -1.5644    0.0000 C   0  0  0  0  0  0  0  0  0  0  0  0
    6.3301   -1.1576    0.0000 C   0  0  2  0  0  0  0  0  0  0  0  0
    6.4347   -0.1631    0.0000 C   0  0  0  0  0  0  0  0  0  0  0  0
    7.8195    0.9584    0.0000 C   0  0  0  0  0  0  0  0  0  0  0  0
    7.2318    1.7674    0.0000 C   0  0  2  0  0  0  0  0  0  0  0  0
    8.9073   -0.9257    0.0000 C   0  0  0  0  0  0  0  0  0  0  0  0
    6.2372    1.6628    0.0000 C   0  0  0  0  0  0  0  0  0  0  0  0
    5.6494    2.4719    0.0000 C   0  0  0  0  0  0  0  0  0  0  0  0
    5.8305    0.7493    0.0000 C   0  0  0  0  0  0  0  0  0  0  0  0
   10.3086   -1.9438    0.0000 C   0  0  1  0  0  0  0  0  0  0  0  0
    7.0507    3.4899    0.0000 C   0  0  0  0  0  0  0  0  0  0  0  0
    7.4574    4.4035    0.0000 C   0  0  2  0  0  0  0  0  0  0  0  0
    5.4641   -2.6576    0.0000 C   0  0  0  0  0  0  0  0  0  0  0  0
    8.4520    4.5080    0.0000 C   0  0  0  0  0  0  0  0  0  0  0  0
   10.8964   -1.1348    0.0000 C   0  0  0  0  0  0  0  0  0  0  0  0
   10.7153   -2.8574    0.0000 C   0  0  0  0  0  0  0  0  0  0  0  0
    8.8587    5.4216    0.0000 C   0  0  0  0  0  0  0  0  0  0  0  0
    9.0398    3.6990    0.0000 C   0  0  0  0  0  0  0  0  0  0  0  0
   11.8909   -1.2393    0.0000 C   0  0  0  0  0  0  0  0  0  0  0  0
    4.5981   -4.1576    0.0000 C   0  0  0  0  0  0  0  0  0  0  0  0
    7.2764    6.1260    0.0000 C   0  0  0  0  0  0  0  0  0  0  0  0
    3.7320   -4.6576    0.0000 C   0  0  0  0  0  0  0  0  0  0  0  0
    5.4641   -4.6576    0.0000 C   0  0  0  0  0  0  0  0  0  0  0  0
    6.6886    6.9351    0.0000 C   0  0  0  0  0  0  0  0  0  0  0  0
    3.7320   -5.6576    0.0000 C   0  0  0  0  0  0  0  0  0  0  0  0
    5.4641   -5.6576    0.0000 C   0  0  0  0  0  0  0  0  0  0  0  0
    4.5981   -6.1576    0.0000 C   0  0  0  0  0  0  0  0  0  0  0  0
    7.0954    7.8486    0.0000 C   0  0  0  0  0  0  0  0  0  0  0  0
    2.8660   -6.1576    0.0000 C   0  0  0  0  0  0  0  0  0  0  0  0
    5.1063    7.6396    0.0000 C   0  0  0  0  0  0  0  0  0  0  0  0
    5.5130    8.5531    0.0000 C   0  0  0  0  0  0  0  0  0  0  0  0
    2.0000   -7.6576    0.0000 C   0  0  0  0  0  0  0  0  0  0  0  0
    2.0000   -8.6576    0.0000 C   0  0  0  0  0  0  0  0  0  0  0  0
    8.2505   -0.3012    0.0000 H   0  0  0  0  0  0  0  0  0  0  0  0
    6.9337   -2.1013    0.0000 H   0  0  0  0  0  0  0  0  0  0  0  0
    7.7453   -1.9288    0.0000 H   0  0  0  0  0  0  0  0  0  0  0  0
    5.8102   -0.8199    0.0000 H   0  0  0  0  0  0  0  0  0  0  0  0
    6.3698    0.4535    0.0000 H   0  0  0  0  0  0  0  0  0  0  0  0
    5.8147   -0.1631    0.0000 H   0  0  0  0  0  0  0  0  0  0  0  0
    6.8673    2.2690    0.0000 H   0  0  0  0  0  0  0  0  0  0  0  0
    6.6017    1.1612    0.0000 H   0  0  0  0  0  0  0  0  0  0  0  0
    8.2551    2.7457    0.0000 H   0  0  0  0  0  0  0  0  0  0  0  0
    8.9496   -2.3409    0.0000 H   0  0  0  0  0  0  0  0  0  0  0  0
    6.1510    2.8363    0.0000 H   0  0  0  0  0  0  0  0  0  0  0  0
    5.2850    2.9734    0.0000 H   0  0  0  0  0  0  0  0  0  0  0  0
    5.1479    2.1074    0.0000 H   0  0  0  0  0  0  0  0  0  0  0  0
    5.2641    1.0015    0.0000 H   0  0  0  0  0  0  0  0  0  0  0  0
    5.5783    0.1829    0.0000 H   0  0  0  0  0  0  0  0  0  0  0  0
    6.3969    0.4971    0.0000 H   0  0  0  0  0  0  0  0  0  0  0  0
    9.9442   -2.4454    0.0000 H   0  0  0  0  0  0  0  0  0  0  0  0
    6.8408    4.3387    0.0000 H   0  0  0  0  0  0  0  0  0  0  0  0
    8.1998    3.9416    0.0000 H   0  0  0  0  0  0  0  0  0  0  0  0
   11.0673   -0.5388    0.0000 H   0  0  0  0  0  0  0  0  0  0  0  0
   10.3391   -0.8630    0.0000 H   0  0  0  0  0  0  0  0  0  0  0  0
    6.2530    5.1477    0.0000 H   0  0  0  0  0  0  0  0  0  0  0  0
   10.3509   -3.3590    0.0000 H   0  0  0  0  0  0  0  0  0  0  0  0
    9.4251    5.1694    0.0000 H   0  0  0  0  0  0  0  0  0  0  0  0
    9.1109    5.9880    0.0000 H   0  0  0  0  0  0  0  0  0  0  0  0
    8.2923    5.6737    0.0000 H   0  0  0  0  0  0  0  0  0  0  0  0
    8.5382    3.3346    0.0000 H   0  0  0  0  0  0  0  0  0  0  0  0
    9.4042    3.1974    0.0000 H   0  0  0  0  0  0  0  0  0  0  0  0
    9.5413    4.0634    0.0000 H   0  0  0  0  0  0  0  0  0  0  0  0
    4.0611   -2.8476    0.0000 H   0  0  0  0  0  0  0  0  0  0  0  0
   11.8261   -1.8559    0.0000 H   0  0  0  0  0  0  0  0  0  0  0  0
   12.5075   -1.3041    0.0000 H   0  0  0  0  0  0  0  0  0  0  0  0
   11.9557   -0.6227    0.0000 H   0  0  0  0  0  0  0  0  0  0  0  0
    3.1951   -4.3476    0.0000 H   0  0  0  0  0  0  0  0  0  0  0  0
    6.0010   -4.3476    0.0000 H   0  0  0  0  0  0  0  0  0  0  0  0
    6.0010   -5.9676    0.0000 H   0  0  0  0  0  0  0  0  0  0  0  0
    4.5981   -6.7776    0.0000 H   0  0  0  0  0  0  0  0  0  0  0  0
    7.7120    7.9134    0.0000 H   0  0  0  0  0  0  0  0  0  0  0  0
    4.4897    7.5747    0.0000 H   0  0  0  0  0  0  0  0  0  0  0  0
    5.1486    9.0547    0.0000 H   0  0  0  0  0  0  0  0  0  0  0  0
    1.7880   -7.0750    0.0000 H   0  0  0  0  0  0  0  0  0  0  0  0
    1.3894   -7.7653    0.0000 H   0  0  0  0  0  0  0  0  0  0  0  0
    1.3800   -8.6576    0.0000 H   0  0  0  0  0  0  0  0  0  0  0  0
    2.0000   -9.2776    0.0000 H   0  0  0  0  0  0  0  0  0  0  0  0
    2.6200   -8.6576    0.0000 H   0  0  0  0  0  0  0  0  0  0  0  0
 19  1  1  1  0  0  0
  1 30  1  0  0  0  0
  2 21  2  0  0  0  0
  3 23  2  0  0  0  0
  4 28  2  0  0  0  0
  5 30  2  0  0  0  0
  6 33  2  0  0  0  0
  7 38  2  0  0  0  0
  8 46  1  0  0  0  0
  8 49  1  0  0  0  0
  9 46  2  0  0  0  0
 10 17  1  0  0  0  0
 10 20  1  0  0  0  0
 10 21  1  0  0  0  0
 22 11  1  6  0  0  0
 11 28  1  0  0  0  0
 11 59  1  0  0  0  0
 12 23  1  0  0  0  0
 27 12  1  1  0  0  0
 12 60  1  0  0  0  0
 29 13  1  1  0  0  0
 13 38  1  0  0  0  0
 13 72  1  0  0  0  0
 14 30  1  0  0  0  0
 14 37  1  0  0  0  0
 14 80  1  0  0  0  0
 15 41  2  0  0  0  0
 15 47  1  0  0  0  0
 16 45  2  0  0  0  0
 16 48  1  0  0  0  0
 17 18  1  0  0  0  0
 17 23  1  6  0  0  0
 17 51  1  0  0  0  0
 18 19  1  0  0  0  0
 18 52  1  0  0  0  0
 18 53  1  0  0  0  0
 19 20  1  0  0  0  0
 19 54  1  0  0  0  0
 20 55  1  0  0  0  0
 20 56  1  0  0  0  0
 21 22  1  0  0  0  0
 22 24  1  0  0  0  0
 22 57  1  0  0  0  0
 24 25  1  0  0  0  0
 24 26  1  0  0  0  0
 24 58  1  0  0  0  0
 25 61  1  0  0  0  0
 25 62  1  0  0  0  0
 25 63  1  0  0  0  0
 26 64  1  0  0  0  0
 26 65  1  0  0  0  0
 26 66  1  0  0  0  0
 27 32  1  0  0  0  0
 27 33  1  0  0  0  0
 27 67  1  0  0  0  0
 28 29  1  0  0  0  0
 29 31  1  0  0  0  0
 29 68  1  0  0  0  0
 31 34  1  0  0  0  0
 31 35  1  0  0  0  0
 31 69  1  0  0  0  0
 32 36  1  0  0  0  0
 32 70  1  0  0  0  0
 32 71  1  0  0  0  0
 33 73  1  0  0  0  0
 34 74  1  0  0  0  0
 34 75  1  0  0  0  0
 34 76  1  0  0  0  0
 35 77  1  0  0  0  0
 35 78  1  0  0  0  0
 35 79  1  0  0  0  0
 36 81  1  0  0  0  0
 36 82  1  0  0  0  0
 36 83  1  0  0  0  0
 37 39  1  0  0  0  0
 37 40  2  0  0  0  0
 38 41  1  0  0  0  0
 39 42  2  0  0  0  0
 39 84  1  0  0  0  0
 40 43  1  0  0  0  0
 40 85  1  0  0  0  0
 41 45  1  0  0  0  0
 42 44  1  0  0  0  0
 42 46  1  0  0  0  0
 43 44  2  0  0  0  0
 43 86  1  0  0  0  0
 44 87  1  0  0  0  0
 45 88  1  0  0  0  0
 47 48  2  0  0  0  0
 47 89  1  0  0  0  0
 48 90  1  0  0  0  0
 49 50  1  0  0  0  0
 49 91  1  0  0  0  0
 49 92  1  0  0  0  0
 50 93  1  0  0  0  0
 50 94  1  0  0  0  0
 50 95  1  0  0  0  0
M  END
> <PUBCHEM_COMPOUND_CID>
506681
> <PUBCHEM_COMPOUND_CANONICALIZED>
1
> <PUBCHEM_CACTVS_COMPLEXITY>
1220
> <PUBCHEM_CACTVS_HBOND_ACCEPTOR>
11
> <PUBCHEM_CACTVS_HBOND_DONOR>
4
> <PUBCHEM_CACTVS_ROTATABLE_BOND>
17
> <PUBCHEM_CACTVS_SUBSKEYS>
AAADcfB/vAAAAAAAAAAAAAAAAAAAAWAAAAA8QAAAAAAAAAABwAAAHgAQAAAADTzhngY+yJPIFACoAz333ACCgCQ3EiAI2IG4fMkKZnrA9bmfMYhm1gHY6ce+ySCOAAAAQAAAAAAAAACAAAAAAAAAAAAAAA==
> <PUBCHEM_IUPAC_OPENEYE_NAME>
ethyl 3-[[(3R,5S)-5-[[(1S)-1-formylpropyl]carbamoyl]-1-[(2S)-3-methyl-2-[[(2S)-3-methyl-2-(pyrazine-2-carbonylamino)butanoyl]amino]butanoyl]pyrrolidin-3-yl]oxycarbonylamino]benzoate
> <PUBCHEM_IUPAC_CAS_NAME>
3-[[[(3R,5S)-1-[(2S)-3-methyl-2-[[(2S)-3-methyl-1-oxo-2-[[oxo(2-pyrazinyl)methyl]amino]butyl]amino]-1-oxobutyl]-5-[oxo-[[(2S)-1-oxobutan-2-yl]amino]methyl]-3-pyrrolidinyl]oxy-oxomethyl]amino]benzoic acid ethyl ester
> <PUBCHEM_IUPAC_NAME_MARKUP>
ethyl 3-[[(3<I>R</I>,5<I>S</I>)-1-[(2<I>S</I>)-3-methyl-2-[[(2<I>S</I>)-3-methyl-2-(pyrazine-2-carbonylamino)butanoyl]amino]butanoyl]-5-[[(2<I>S</I>)-1-oxobutan-2-yl]carbamoyl]pyrrolidin-3-yl]oxycarbonylamino]benzoate
> <PUBCHEM_IUPAC_NAME>
ethyl 3-[[(3R,5S)-1-[(2S)-3-methyl-2-[[(2S)-3-methyl-2-(pyrazine-2-carbonylamino)butanoyl]amino]butanoyl]-5-[[(2S)-1-oxobutan-2-yl]carbamoyl]pyrrolidin-3-yl]oxycarbonylamino]benzoate
> <PUBCHEM_IUPAC_SYSTEMATIC_NAME>
ethyl 3-[[(3R,5S)-1-[(2S)-3-methyl-2-[[(2S)-3-methyl-2-(pyrazin-2-ylcarbonylamino)butanoyl]amino]butanoyl]-5-[[(2S)-1-oxidanylidenebutan-2-yl]carbamoyl]pyrrolidin-3-yl]oxycarbonylamino]benzoate
> <PUBCHEM_IUPAC_TRADITIONAL_NAME>
3-[[(3R,5S)-5-[[(1S)-1-formylpropyl]carbamoyl]-1-[(2S)-3-methyl-2-[[(2S)-3-methyl-2-(pyrazinoylamino)butanoyl]amino]butanoyl]pyrrolidin-3-yl]oxycarbonylamino]benzoic acid ethyl ester
> <PUBCHEM_IUPAC_INCHI>
InChI=1S/C34H45N7O9/c1-7-22(18-42)37-30(44)26-15-24(50-34(48)38-23-11-9-10-21(14-23)33(47)49-8-2)17-41(26)32(46)28(20(5)6)40-31(45)27(19(3)4)39-29(43)25-16-35-12-13-36-25/h9-14,16,18-20,22,24,26-28H,7-8,15,17H2,1-6H3,(H,37,44)(H,38,48)(H,39,43)(H,40,45)/t22-,24+,26-,27-,28-/m0/s1
> <PUBCHEM_IUPAC_INCHIKEY>
BLNCQPNWYAVJQD-FTISQDLESA-N
> <PUBCHEM_XLOGP3_AA>
2.5
> <PUBCHEM_EXACT_MASS>
695.32787604
> <PUBCHEM_MOLECULAR_FORMULA>
C34H45N7O9
> <PUBCHEM_MOLECULAR_WEIGHT>
695.8
> <PUBCHEM_OPENEYE_CAN_SMILES>
CCC(C=O)NC(=O)C1CC(CN1C(=O)C(C(C)C)NC(=O)C(C(C)C)NC(=O)C2=NC=CN=C2)OC(=O)NC3=CC=CC(=C3)C(=O)OCC
> <PUBCHEM_OPENEYE_ISO_SMILES>
CC[C@@H](C=O)NC(=O)[C@@H]1C[C@H](CN1C(=O)[C@H](C(C)C)NC(=O)[C@H](C(C)C)NC(=O)C2=NC=CN=C2)OC(=O)NC3=CC=CC(=C3)C(=O)OCC
> <PUBCHEM_CACTVS_TPSA>
215
> <PUBCHEM_MONOISOTOPIC_WEIGHT>
695.32787604
> <PUBCHEM_TOTAL_CHARGE>
0
> <PUBCHEM_HEAVY_ATOM_COUNT>
50
> <PUBCHEM_ATOM_DEF_STEREO_COUNT>
5
> <PUBCHEM_ATOM_UDEF_STEREO_COUNT>
0
> <PUBCHEM_BOND_DEF_STEREO_COUNT>
0
> <PUBCHEM_BOND_UDEF_STEREO_COUNT>
0
> <PUBCHEM_ISOTOPIC_ATOM_COUNT>
0
> <PUBCHEM_COMPONENT_COUNT>
1
> <PUBCHEM_CACTVS_TAUTO_COUNT>
-1
> <PUBCHEM_COORDINATE_TYPE>
1
5
255
> <PUBCHEM_BONDANNOTATIONS>
19  1  5
22  11  6
27  12  5
29  13  5
15  41  8
15  47  8
16  45  8
16  48  8
17  23  6
37  39  8
37  40  8
39  42  8
40  43  8
41  45  8
42  44  8
43  44  8
47  48  8
$$$$
