506656
  -OEChem-10302200282D
 86 88  0     1  0  0  0  0  0999 V2000
    2.0000   -4.9076    0.0000 Cl  0  0  0  0  0  0  0  0  0  0  0  0
    3.7320   -7.9076    0.0000 Cl  0  0  0  0  0  0  0  0  0  0  0  0
    4.5981   -2.4076    0.0000 O   0  0  0  0  0  0  0  0  0  0  0  0
    7.9480    0.3129    0.0000 O   0  0  0  0  0  0  0  0  0  0  0  0
    8.6291   -0.8667    0.0000 O   0  0  0  0  0  0  0  0  0  0  0  0
    5.1902    2.6354    0.0000 O   0  0  0  0  0  0  0  0  0  0  0  0
    5.4641   -3.9076    0.0000 O   0  0  0  0  0  0  0  0  0  0  0  0
   10.8438   -3.7119    0.0000 O   0  0  0  0  0  0  0  0  0  0  0  0
    7.4049    5.4806    0.0000 O   0  0  0  0  0  0  0  0  0  0  0  0
    6.5468   -0.7052    0.0000 N   0  0  0  0  0  0  0  0  0  0  0  0
    6.7725    1.9309    0.0000 N   0  0  0  0  0  0  0  0  0  0  0  0
    8.4480   -2.5893    0.0000 N   0  0  0  0  0  0  0  0  0  0  0  0
    6.0036    4.4625    0.0000 N   0  0  0  0  0  0  0  0  0  0  0  0
    3.7320   -3.9076    0.0000 N   0  0  0  0  0  0  0  0  0  0  0  0
    4.8281    6.0805    0.0000 N   0  0  0  0  0  0  0  0  0  0  0  0
    5.6415    7.9076    0.0000 N   0  0  0  0  0  0  0  0  0  0  0  0
    7.0468   -1.5712    0.0000 C   0  0  1  0  0  0  0  0  0  0  0  0
    6.3776   -2.3144    0.0000 C   0  0  0  0  0  0  0  0  0  0  0  0
    5.4641   -1.9076    0.0000 C   0  0  2  0  0  0  0  0  0  0  0  0
    5.5686   -0.9131    0.0000 C   0  0  0  0  0  0  0  0  0  0  0  0
    6.9535    0.2084    0.0000 C   0  0  0  0  0  0  0  0  0  0  0  0
    6.3657    1.0174    0.0000 C   0  0  2  0  0  0  0  0  0  0  0  0
    8.0413   -1.6757    0.0000 C   0  0  0  0  0  0  0  0  0  0  0  0
    5.3712    0.9128    0.0000 C   0  0  0  0  0  0  0  0  0  0  0  0
    4.7834    1.7219    0.0000 C   0  0  0  0  0  0  0  0  0  0  0  0
    4.9645   -0.0007    0.0000 C   0  0  0  0  0  0  0  0  0  0  0  0
    9.4426   -2.6938    0.0000 C   0  0  1  0  0  0  0  0  0  0  0  0
    6.1847    2.7399    0.0000 C   0  0  0  0  0  0  0  0  0  0  0  0
    6.5914    3.6535    0.0000 C   0  0  2  0  0  0  0  0  0  0  0  0
    4.5981   -3.4076    0.0000 C   0  0  0  0  0  0  0  0  0  0  0  0
    7.5859    3.7580    0.0000 C   0  0  0  0  0  0  0  0  0  0  0  0
   10.0303   -1.8848    0.0000 C   0  0  0  0  0  0  0  0  0  0  0  0
    9.8493   -3.6074    0.0000 C   0  0  0  0  0  0  0  0  0  0  0  0
    7.9927    4.6716    0.0000 C   0  0  0  0  0  0  0  0  0  0  0  0
    8.1737    2.9490    0.0000 C   0  0  0  0  0  0  0  0  0  0  0  0
   11.0249   -1.9893    0.0000 C   0  0  0  0  0  0  0  0  0  0  0  0
    6.4104    5.3760    0.0000 C   0  0  0  0  0  0  0  0  0  0  0  0
    3.7320   -4.9076    0.0000 C   0  0  0  0  0  0  0  0  0  0  0  0
    5.8226    6.1851    0.0000 C   0  0  0  0  0  0  0  0  0  0  0  0
    2.8660   -5.4076    0.0000 C   0  0  0  0  0  0  0  0  0  0  0  0
    4.5981   -5.4076    0.0000 C   0  0  0  0  0  0  0  0  0  0  0  0
    2.8660   -6.4076    0.0000 C   0  0  0  0  0  0  0  0  0  0  0  0
    4.5981   -6.4076    0.0000 C   0  0  0  0  0  0  0  0  0  0  0  0
    6.2293    7.0986    0.0000 C   0  0  0  0  0  0  0  0  0  0  0  0
    3.7320   -6.9076    0.0000 C   0  0  0  0  0  0  0  0  0  0  0  0
    4.2403    6.8896    0.0000 C   0  0  0  0  0  0  0  0  0  0  0  0
    4.6470    7.8031    0.0000 C   0  0  0  0  0  0  0  0  0  0  0  0
    7.3844   -1.0512    0.0000 H   0  0  0  0  0  0  0  0  0  0  0  0
    6.0677   -2.8513    0.0000 H   0  0  0  0  0  0  0  0  0  0  0  0
    6.8792   -2.6788    0.0000 H   0  0  0  0  0  0  0  0  0  0  0  0
    5.4966   -2.5268    0.0000 H   0  0  0  0  0  0  0  0  0  0  0  0
    5.5038   -0.2965    0.0000 H   0  0  0  0  0  0  0  0  0  0  0  0
    4.9486   -0.9131    0.0000 H   0  0  0  0  0  0  0  0  0  0  0  0
    6.0013    1.5190    0.0000 H   0  0  0  0  0  0  0  0  0  0  0  0
    5.7356    0.4113    0.0000 H   0  0  0  0  0  0  0  0  0  0  0  0
    7.3891    1.9957    0.0000 H   0  0  0  0  0  0  0  0  0  0  0  0
    8.0836   -3.0909    0.0000 H   0  0  0  0  0  0  0  0  0  0  0  0
    5.2850    2.0863    0.0000 H   0  0  0  0  0  0  0  0  0  0  0  0
    4.4190    2.2234    0.0000 H   0  0  0  0  0  0  0  0  0  0  0  0
    4.2818    1.3574    0.0000 H   0  0  0  0  0  0  0  0  0  0  0  0
    4.3981    0.2515    0.0000 H   0  0  0  0  0  0  0  0  0  0  0  0
    4.7123   -0.5671    0.0000 H   0  0  0  0  0  0  0  0  0  0  0  0
    5.5309   -0.2529    0.0000 H   0  0  0  0  0  0  0  0  0  0  0  0
    9.0781   -3.1954    0.0000 H   0  0  0  0  0  0  0  0  0  0  0  0
    5.9748    3.5887    0.0000 H   0  0  0  0  0  0  0  0  0  0  0  0
    7.2215    4.2596    0.0000 H   0  0  0  0  0  0  0  0  0  0  0  0
   10.2012   -1.2888    0.0000 H   0  0  0  0  0  0  0  0  0  0  0  0
    9.4731   -1.6130    0.0000 H   0  0  0  0  0  0  0  0  0  0  0  0
    5.3870    4.3977    0.0000 H   0  0  0  0  0  0  0  0  0  0  0  0
    8.5591    4.4194    0.0000 H   0  0  0  0  0  0  0  0  0  0  0  0
    8.2448    5.2380    0.0000 H   0  0  0  0  0  0  0  0  0  0  0  0
    7.4263    4.9237    0.0000 H   0  0  0  0  0  0  0  0  0  0  0  0
    7.6721    2.5846    0.0000 H   0  0  0  0  0  0  0  0  0  0  0  0
    8.5382    2.4474    0.0000 H   0  0  0  0  0  0  0  0  0  0  0  0
    8.6753    3.3134    0.0000 H   0  0  0  0  0  0  0  0  0  0  0  0
    9.4849   -4.1090    0.0000 H   0  0  0  0  0  0  0  0  0  0  0  0
    3.1951   -3.5976    0.0000 H   0  0  0  0  0  0  0  0  0  0  0  0
   10.9601   -2.6059    0.0000 H   0  0  0  0  0  0  0  0  0  0  0  0
   11.6415   -2.0541    0.0000 H   0  0  0  0  0  0  0  0  0  0  0  0
   11.0897   -1.3727    0.0000 H   0  0  0  0  0  0  0  0  0  0  0  0
    5.1350   -5.0976    0.0000 H   0  0  0  0  0  0  0  0  0  0  0  0
    2.3291   -6.7176    0.0000 H   0  0  0  0  0  0  0  0  0  0  0  0
    5.1350   -6.7176    0.0000 H   0  0  0  0  0  0  0  0  0  0  0  0
    6.8459    7.1634    0.0000 H   0  0  0  0  0  0  0  0  0  0  0  0
    3.6237    6.8247    0.0000 H   0  0  0  0  0  0  0  0  0  0  0  0
    4.2826    8.3047    0.0000 H   0  0  0  0  0  0  0  0  0  0  0  0
  1 40  1  0  0  0  0
  2 45  1  0  0  0  0
 19  3  1  1  0  0  0
  3 30  1  0  0  0  0
  4 21  2  0  0  0  0
  5 23  2  0  0  0  0
  6 28  2  0  0  0  0
  7 30  2  0  0  0  0
  8 33  2  0  0  0  0
  9 37  2  0  0  0  0
 10 17  1  0  0  0  0
 10 20  1  0  0  0  0
 10 21  1  0  0  0  0
 22 11  1  6  0  0  0
 11 28  1  0  0  0  0
 11 56  1  0  0  0  0
 12 23  1  0  0  0  0
 27 12  1  1  0  0  0
 12 57  1  0  0  0  0
 29 13  1  1  0  0  0
 13 37  1  0  0  0  0
 13 69  1  0  0  0  0
 14 30  1  0  0  0  0
 14 38  1  0  0  0  0
 14 77  1  0  0  0  0
 15 39  2  0  0  0  0
 15 46  1  0  0  0  0
 16 44  2  0  0  0  0
 16 47  1  0  0  0  0
 17 18  1  0  0  0  0
 17 23  1  6  0  0  0
 17 48  1  0  0  0  0
 18 19  1  0  0  0  0
 18 49  1  0  0  0  0
 18 50  1  0  0  0  0
 19 20  1  0  0  0  0
 19 51  1  0  0  0  0
 20 52  1  0  0  0  0
 20 53  1  0  0  0  0
 21 22  1  0  0  0  0
 22 24  1  0  0  0  0
 22 54  1  0  0  0  0
 24 25  1  0  0  0  0
 24 26  1  0  0  0  0
 24 55  1  0  0  0  0
 25 58  1  0  0  0  0
 25 59  1  0  0  0  0
 25 60  1  0  0  0  0
 26 61  1  0  0  0  0
 26 62  1  0  0  0  0
 26 63  1  0  0  0  0
 27 32  1  0  0  0  0
 27 33  1  0  0  0  0
 27 64  1  0  0  0  0
 28 29  1  0  0  0  0
 29 31  1  0  0  0  0
 29 65  1  0  0  0  0
 31 34  1  0  0  0  0
 31 35  1  0  0  0  0
 31 66  1  0  0  0  0
 32 36  1  0  0  0  0
 32 67  1  0  0  0  0
 32 68  1  0  0  0  0
 33 76  1  0  0  0  0
 34 70  1  0  0  0  0
 34 71  1  0  0  0  0
 34 72  1  0  0  0  0
 35 73  1  0  0  0  0
 35 74  1  0  0  0  0
 35 75  1  0  0  0  0
 36 78  1  0  0  0  0
 36 79  1  0  0  0  0
 36 80  1  0  0  0  0
 37 39  1  0  0  0  0
 38 40  2  0  0  0  0
 38 41  1  0  0  0  0
 39 44  1  0  0  0  0
 40 42  1  0  0  0  0
 41 43  2  0  0  0  0
 41 81  1  0  0  0  0
 42 45  2  0  0  0  0
 42 82  1  0  0  0  0
 43 45  1  0  0  0  0
 43 83  1  0  0  0  0
 44 84  1  0  0  0  0
 46 47  2  0  0  0  0
 46 85  1  0  0  0  0
 47 86  1  0  0  0  0
M  END
> <PUBCHEM_COMPOUND_CID>
506656
> <PUBCHEM_COMPOUND_CANONICALIZED>
1
> <PUBCHEM_CACTVS_COMPLEXITY>
1130
> <PUBCHEM_CACTVS_HBOND_ACCEPTOR>
9
> <PUBCHEM_CACTVS_HBOND_DONOR>
4
> <PUBCHEM_CACTVS_ROTATABLE_BOND>
14
> <PUBCHEM_CACTVS_SUBSKEYS>
AAADcfB7uAAGAAAAAAAAAAAAAAAAAWAAAAA8QAAAAAAAAAABwAAAHgIQAAAADT7hliY+yJPIFACoAT133ACCgCQ3FyAI2IG4dskKYHrB07HdIIhmlgDYyMc6AQAIAABAAACAABAAAIAAAQAAIAAAAAAAAA==
> <PUBCHEM_IUPAC_OPENEYE_NAME>
[(3R,5S)-5-[[(1S)-1-formylpropyl]carbamoyl]-1-[(2S)-3-methyl-2-[[(2S)-3-methyl-2-(pyrazine-2-carbonylamino)butanoyl]amino]butanoyl]pyrrolidin-3-yl] N-(2,4-dichlorophenyl)carbamate
> <PUBCHEM_IUPAC_CAS_NAME>
N-(2,4-dichlorophenyl)carbamic acid [(3R,5S)-1-[(2S)-3-methyl-2-[[(2S)-3-methyl-1-oxo-2-[[oxo(2-pyrazinyl)methyl]amino]butyl]amino]-1-oxobutyl]-5-[oxo-[[(2S)-1-oxobutan-2-yl]amino]methyl]-3-pyrrolidinyl] ester
> <PUBCHEM_IUPAC_NAME_MARKUP>
[(3<I>R</I>,5<I>S</I>)-1-[(2<I>S</I>)-3-methyl-2-[[(2<I>S</I>)-3-methyl-2-(pyrazine-2-carbonylamino)butanoyl]amino]butanoyl]-5-[[(2<I>S</I>)-1-oxobutan-2-yl]carbamoyl]pyrrolidin-3-yl] <I>N</I>-(2,4-dichlorophenyl)carbamate
> <PUBCHEM_IUPAC_NAME>
[(3R,5S)-1-[(2S)-3-methyl-2-[[(2S)-3-methyl-2-(pyrazine-2-carbonylamino)butanoyl]amino]butanoyl]-5-[[(2S)-1-oxobutan-2-yl]carbamoyl]pyrrolidin-3-yl] N-(2,4-dichlorophenyl)carbamate
> <PUBCHEM_IUPAC_SYSTEMATIC_NAME>
[(3R,5S)-1-[(2S)-3-methyl-2-[[(2S)-3-methyl-2-(pyrazin-2-ylcarbonylamino)butanoyl]amino]butanoyl]-5-[[(2S)-1-oxidanylidenebutan-2-yl]carbamoyl]pyrrolidin-3-yl] N-(2,4-dichlorophenyl)carbamate
> <PUBCHEM_IUPAC_TRADITIONAL_NAME>
N-(2,4-dichlorophenyl)carbamic acid [(3R,5S)-5-[[(1S)-1-formylpropyl]carbamoyl]-1-[(2S)-3-methyl-2-[[(2S)-3-methyl-2-(pyrazinoylamino)butanoyl]amino]butanoyl]pyrrolidin-3-yl] ester
> <PUBCHEM_IUPAC_INCHI>
InChI=1S/C31H39Cl2N7O7/c1-6-19(15-41)36-28(43)24-12-20(47-31(46)37-22-8-7-18(32)11-21(22)33)14-40(24)30(45)26(17(4)5)39-29(44)25(16(2)3)38-27(42)23-13-34-9-10-35-23/h7-11,13,15-17,19-20,24-26H,6,12,14H2,1-5H3,(H,36,43)(H,37,46)(H,38,42)(H,39,44)/t19-,20+,24-,25-,26-/m0/s1
> <PUBCHEM_IUPAC_INCHIKEY>
ISLFRIXAQAXGDO-ZBCVKJESSA-N
> <PUBCHEM_XLOGP3_AA>
3.6
> <PUBCHEM_EXACT_MASS>
691.2288020
> <PUBCHEM_MOLECULAR_FORMULA>
C31H39Cl2N7O7
> <PUBCHEM_MOLECULAR_WEIGHT>
692.6
> <PUBCHEM_OPENEYE_CAN_SMILES>
CCC(C=O)NC(=O)C1CC(CN1C(=O)C(C(C)C)NC(=O)C(C(C)C)NC(=O)C2=NC=CN=C2)OC(=O)NC3=C(C=C(C=C3)Cl)Cl
> <PUBCHEM_OPENEYE_ISO_SMILES>
CC[C@@H](C=O)NC(=O)[C@@H]1C[C@H](CN1C(=O)[C@H](C(C)C)NC(=O)[C@H](C(C)C)NC(=O)C2=NC=CN=C2)OC(=O)NC3=C(C=C(C=C3)Cl)Cl
> <PUBCHEM_CACTVS_TPSA>
189
> <PUBCHEM_MONOISOTOPIC_WEIGHT>
691.2288020
> <PUBCHEM_TOTAL_CHARGE>
0
> <PUBCHEM_HEAVY_ATOM_COUNT>
47
> <PUBCHEM_ATOM_DEF_STEREO_COUNT>
5
> <PUBCHEM_ATOM_UDEF_STEREO_COUNT>
0
> <PUBCHEM_BOND_DEF_STEREO_COUNT>
0
> <PUBCHEM_BOND_UDEF_STEREO_COUNT>
0
> <PUBCHEM_ISOTOPIC_ATOM_COUNT>
0
> <PUBCHEM_COMPONENT_COUNT>
1
> <PUBCHEM_CACTVS_TAUTO_COUNT>
-1
> <PUBCHEM_COORDINATE_TYPE>
1
5
255
> <PUBCHEM_BONDANNOTATIONS>
22  11  6
27  12  5
29  13  5
15  39  8
15  46  8
16  44  8
16  47  8
17  23  6
19  3  5
38  40  8
38  41  8
39  44  8
40  42  8
41  43  8
42  45  8
43  45  8
46  47  8
$$$$
