506639
  -OEChem-10302200282D
 88 91  0     1  0  0  0  0  0999 V2000
    8.4268   -6.6576    0.0000 Cl  0  0  0  0  0  0  0  0  0  0  0  0
    8.4268   -3.6576    0.0000 O   0  0  0  0  0  0  0  0  0  0  0  0
    5.0768   -0.9371    0.0000 O   0  0  0  0  0  0  0  0  0  0  0  0
    4.3958   -2.1167    0.0000 O   0  0  0  0  0  0  0  0  0  0  0  0
    7.8347    1.3854    0.0000 O   0  0  0  0  0  0  0  0  0  0  0  0
    2.1810   -4.9619    0.0000 O   0  0  0  0  0  0  0  0  0  0  0  0
   11.9711   -4.8529    0.0000 O   0  0  0  0  0  0  0  0  0  0  0  0
   11.9711   -6.4624    0.0000 O   0  0  0  0  0  0  0  0  0  0  0  0
    5.6200    4.2306    0.0000 O   0  0  0  0  0  0  0  0  0  0  0  0
    6.4781   -1.9552    0.0000 N   0  0  0  0  0  0  0  0  0  0  0  0
    6.2524    0.6809    0.0000 N   0  0  0  0  0  0  0  0  0  0  0  0
    4.5768   -3.8393    0.0000 N   0  0  0  0  0  0  0  0  0  0  0  0
    7.0212    3.2125    0.0000 N   0  0  0  0  0  0  0  0  0  0  0  0
    8.1968    4.8305    0.0000 N   0  0  0  0  0  0  0  0  0  0  0  0
    7.3833    6.6576    0.0000 N   0  0  0  0  0  0  0  0  0  0  0  0
    5.9781   -2.8212    0.0000 C   0  0  1  0  0  0  0  0  0  0  0  0
    7.5608   -3.1576    0.0000 C   0  0  2  0  0  0  0  0  0  0  0  0
    6.6472   -3.5644    0.0000 C   0  0  0  0  0  0  0  0  0  0  0  0
    7.4562   -2.1631    0.0000 C   0  0  0  0  0  0  0  0  0  0  0  0
    6.0714   -1.0416    0.0000 C   0  0  0  0  0  0  0  0  0  0  0  0
    6.6591   -0.2326    0.0000 C   0  0  2  0  0  0  0  0  0  0  0  0
    4.9836   -2.9257    0.0000 C   0  0  0  0  0  0  0  0  0  0  0  0
    7.6537   -0.3372    0.0000 C   0  0  0  0  0  0  0  0  0  0  0  0
    8.4268   -4.6576    0.0000 C   0  0  0  0  0  0  0  0  0  0  0  0
    8.2414    0.4719    0.0000 C   0  0  0  0  0  0  0  0  0  0  0  0
    8.0604   -1.2507    0.0000 C   0  0  0  0  0  0  0  0  0  0  0  0
    3.5823   -3.9438    0.0000 C   0  0  1  0  0  0  0  0  0  0  0  0
    6.8402    1.4899    0.0000 C   0  0  0  0  0  0  0  0  0  0  0  0
    6.4334    2.4035    0.0000 C   0  0  2  0  0  0  0  0  0  0  0  0
    5.4389    2.5080    0.0000 C   0  0  0  0  0  0  0  0  0  0  0  0
    9.2928   -5.1576    0.0000 C   0  0  0  0  0  0  0  0  0  0  0  0
    2.9945   -3.1348    0.0000 C   0  0  0  0  0  0  0  0  0  0  0  0
    3.1756   -4.8574    0.0000 C   0  0  0  0  0  0  0  0  0  0  0  0
    5.0322    3.4216    0.0000 C   0  0  0  0  0  0  0  0  0  0  0  0
    4.8511    1.6990    0.0000 C   0  0  0  0  0  0  0  0  0  0  0  0
   10.1588   -4.6576    0.0000 C   0  0  0  0  0  0  0  0  0  0  0  0
    9.2928   -6.1576    0.0000 C   0  0  0  0  0  0  0  0  0  0  0  0
    2.0000   -3.2393    0.0000 C   0  0  0  0  0  0  0  0  0  0  0  0
   11.0249   -5.1576    0.0000 C   0  0  0  0  0  0  0  0  0  0  0  0
   10.1588   -6.6576    0.0000 C   0  0  0  0  0  0  0  0  0  0  0  0
   11.0249   -6.1576    0.0000 C   0  0  0  0  0  0  0  0  0  0  0  0
    6.6145    4.1260    0.0000 C   0  0  0  0  0  0  0  0  0  0  0  0
   12.5547   -5.6576    0.0000 C   0  0  0  0  0  0  0  0  0  0  0  0
    7.2023    4.9351    0.0000 C   0  0  0  0  0  0  0  0  0  0  0  0
    6.7956    5.8486    0.0000 C   0  0  0  0  0  0  0  0  0  0  0  0
    8.7846    5.6396    0.0000 C   0  0  0  0  0  0  0  0  0  0  0  0
    8.3778    6.5531    0.0000 C   0  0  0  0  0  0  0  0  0  0  0  0
    5.6404   -2.3012    0.0000 H   0  0  0  0  0  0  0  0  0  0  0  0
    8.0807   -2.8200    0.0000 H   0  0  0  0  0  0  0  0  0  0  0  0
    6.1456   -3.9288    0.0000 H   0  0  0  0  0  0  0  0  0  0  0  0
    6.9572   -4.1013    0.0000 H   0  0  0  0  0  0  0  0  0  0  0  0
    8.0762   -2.1631    0.0000 H   0  0  0  0  0  0  0  0  0  0  0  0
    7.5210   -1.5465    0.0000 H   0  0  0  0  0  0  0  0  0  0  0  0
    6.0425   -0.1678    0.0000 H   0  0  0  0  0  0  0  0  0  0  0  0
    7.4015    0.2292    0.0000 H   0  0  0  0  0  0  0  0  0  0  0  0
    5.6358    0.7457    0.0000 H   0  0  0  0  0  0  0  0  0  0  0  0
    4.9413   -4.3409    0.0000 H   0  0  0  0  0  0  0  0  0  0  0  0
    7.8162   -4.5500    0.0000 H   0  0  0  0  0  0  0  0  0  0  0  0
    8.2147   -5.2402    0.0000 H   0  0  0  0  0  0  0  0  0  0  0  0
    8.7430    0.1074    0.0000 H   0  0  0  0  0  0  0  0  0  0  0  0
    8.6059    0.9735    0.0000 H   0  0  0  0  0  0  0  0  0  0  0  0
    7.7398    0.8363    0.0000 H   0  0  0  0  0  0  0  0  0  0  0  0
    7.4940   -1.5029    0.0000 H   0  0  0  0  0  0  0  0  0  0  0  0
    8.3126   -1.8171    0.0000 H   0  0  0  0  0  0  0  0  0  0  0  0
    8.6268   -0.9985    0.0000 H   0  0  0  0  0  0  0  0  0  0  0  0
    3.8345   -3.3774    0.0000 H   0  0  0  0  0  0  0  0  0  0  0  0
    7.0500    2.3387    0.0000 H   0  0  0  0  0  0  0  0  0  0  0  0
    4.8223    2.5728    0.0000 H   0  0  0  0  0  0  0  0  0  0  0  0
    3.5518   -2.8630    0.0000 H   0  0  0  0  0  0  0  0  0  0  0  0
    2.8236   -2.5388    0.0000 H   0  0  0  0  0  0  0  0  0  0  0  0
    7.6378    3.1477    0.0000 H   0  0  0  0  0  0  0  0  0  0  0  0
    3.5400   -5.3590    0.0000 H   0  0  0  0  0  0  0  0  0  0  0  0
    5.5986    3.6737    0.0000 H   0  0  0  0  0  0  0  0  0  0  0  0
    4.7800    3.9880    0.0000 H   0  0  0  0  0  0  0  0  0  0  0  0
    4.4658    3.1694    0.0000 H   0  0  0  0  0  0  0  0  0  0  0  0
    4.3496    2.0634    0.0000 H   0  0  0  0  0  0  0  0  0  0  0  0
    4.4867    1.1974    0.0000 H   0  0  0  0  0  0  0  0  0  0  0  0
    5.3527    1.3346    0.0000 H   0  0  0  0  0  0  0  0  0  0  0  0
   10.1588   -4.0376    0.0000 H   0  0  0  0  0  0  0  0  0  0  0  0
    1.9352   -2.6227    0.0000 H   0  0  0  0  0  0  0  0  0  0  0  0
    1.3834   -3.3041    0.0000 H   0  0  0  0  0  0  0  0  0  0  0  0
    2.0648   -3.8559    0.0000 H   0  0  0  0  0  0  0  0  0  0  0  0
   10.1588   -7.2776    0.0000 H   0  0  0  0  0  0  0  0  0  0  0  0
   13.0156   -6.0724    0.0000 H   0  0  0  0  0  0  0  0  0  0  0  0
   13.0156   -5.2429    0.0000 H   0  0  0  0  0  0  0  0  0  0  0  0
    6.1789    5.9134    0.0000 H   0  0  0  0  0  0  0  0  0  0  0  0
    9.4012    5.5747    0.0000 H   0  0  0  0  0  0  0  0  0  0  0  0
    8.7423    7.0547    0.0000 H   0  0  0  0  0  0  0  0  0  0  0  0
  1 37  1  0  0  0  0
 17  2  1  6  0  0  0
  2 24  1  0  0  0  0
  3 20  2  0  0  0  0
  4 22  2  0  0  0  0
  5 28  2  0  0  0  0
  6 33  2  0  0  0  0
  7 39  1  0  0  0  0
  7 43  1  0  0  0  0
  8 41  1  0  0  0  0
  8 43  1  0  0  0  0
  9 42  2  0  0  0  0
 10 16  1  0  0  0  0
 10 19  1  0  0  0  0
 10 20  1  0  0  0  0
 21 11  1  1  0  0  0
 11 28  1  0  0  0  0
 11 56  1  0  0  0  0
 12 22  1  0  0  0  0
 27 12  1  6  0  0  0
 12 57  1  0  0  0  0
 29 13  1  6  0  0  0
 13 42  1  0  0  0  0
 13 71  1  0  0  0  0
 14 44  2  0  0  0  0
 14 46  1  0  0  0  0
 15 45  2  0  0  0  0
 15 47  1  0  0  0  0
 16 18  1  0  0  0  0
 16 22  1  1  0  0  0
 16 48  1  0  0  0  0
 17 18  1  0  0  0  0
 17 19  1  0  0  0  0
 17 49  1  0  0  0  0
 18 50  1  0  0  0  0
 18 51  1  0  0  0  0
 19 52  1  0  0  0  0
 19 53  1  0  0  0  0
 20 21  1  0  0  0  0
 21 23  1  0  0  0  0
 21 54  1  0  0  0  0
 23 25  1  0  0  0  0
 23 26  1  0  0  0  0
 23 55  1  0  0  0  0
 24 31  1  0  0  0  0
 24 58  1  0  0  0  0
 24 59  1  0  0  0  0
 25 60  1  0  0  0  0
 25 61  1  0  0  0  0
 25 62  1  0  0  0  0
 26 63  1  0  0  0  0
 26 64  1  0  0  0  0
 26 65  1  0  0  0  0
 27 32  1  0  0  0  0
 27 33  1  0  0  0  0
 27 66  1  0  0  0  0
 28 29  1  0  0  0  0
 29 30  1  0  0  0  0
 29 67  1  0  0  0  0
 30 34  1  0  0  0  0
 30 35  1  0  0  0  0
 30 68  1  0  0  0  0
 31 36  2  0  0  0  0
 31 37  1  0  0  0  0
 32 38  1  0  0  0  0
 32 69  1  0  0  0  0
 32 70  1  0  0  0  0
 33 72  1  0  0  0  0
 34 73  1  0  0  0  0
 34 74  1  0  0  0  0
 34 75  1  0  0  0  0
 35 76  1  0  0  0  0
 35 77  1  0  0  0  0
 35 78  1  0  0  0  0
 36 39  1  0  0  0  0
 36 79  1  0  0  0  0
 37 40  2  0  0  0  0
 38 80  1  0  0  0  0
 38 81  1  0  0  0  0
 38 82  1  0  0  0  0
 39 41  2  0  0  0  0
 40 41  1  0  0  0  0
 40 83  1  0  0  0  0
 42 44  1  0  0  0  0
 43 84  1  0  0  0  0
 43 85  1  0  0  0  0
 44 45  1  0  0  0  0
 45 86  1  0  0  0  0
 46 47  2  0  0  0  0
 46 87  1  0  0  0  0
 47 88  1  0  0  0  0
M  END
> <PUBCHEM_COMPOUND_CID>
506639
> <PUBCHEM_COMPOUND_CANONICALIZED>
1
> <PUBCHEM_CACTVS_COMPLEXITY>
1110
> <PUBCHEM_CACTVS_HBOND_ACCEPTOR>
10
> <PUBCHEM_CACTVS_HBOND_DONOR>
3
> <PUBCHEM_CACTVS_ROTATABLE_BOND>
14
> <PUBCHEM_CACTVS_SUBSKEYS>
AAADcfB/vAAEAAAAAAAAAAAAAAAAAWJAAAA8QAAAAAAAAEgBwAAAHgIQAAAADT7hnic+jpPIFACoAz131ACCiCQ3NyAI2IG+/sgfZnrF8zq3MKom1hHeqMf64TwOICABAQABQABAQAICAAKAAAAAAAAAAA==
> <PUBCHEM_IUPAC_OPENEYE_NAME>
N-[(1S)-1-[[(1S)-1-[(2S,4R)-4-[(6-chloro-1,3-benzodioxol-5-yl)methoxy]-2-[[(1S)-1-formylpropyl]carbamoyl]pyrrolidine-1-carbonyl]-2-methyl-propyl]carbamoyl]-2-methyl-propyl]pyrazine-2-carboxamide
> <PUBCHEM_IUPAC_CAS_NAME>
N-[(2S)-1-[[(2S)-1-[(2S,4R)-4-[(6-chloro-1,3-benzodioxol-5-yl)methoxy]-2-[oxo-[[(2S)-1-oxobutan-2-yl]amino]methyl]-1-pyrrolidinyl]-3-methyl-1-oxobutan-2-yl]amino]-3-methyl-1-oxobutan-2-yl]-2-pyrazinecarboxamide
> <PUBCHEM_IUPAC_NAME_MARKUP>
<I>N</I>-[(2<I>S</I>)-1-[[(2<I>S</I>)-1-[(2<I>S</I>,4<I>R</I>)-4-[(6-chloro-1,3-benzodioxol-5-yl)methoxy]-2-[[(2<I>S</I>)-1-oxobutan-2-yl]carbamoyl]pyrrolidin-1-yl]-3-methyl-1-oxobutan-2-yl]amino]-3-methyl-1-oxobutan-2-yl]pyrazine-2-carboxamide
> <PUBCHEM_IUPAC_NAME>
N-[(2S)-1-[[(2S)-1-[(2S,4R)-4-[(6-chloro-1,3-benzodioxol-5-yl)methoxy]-2-[[(2S)-1-oxobutan-2-yl]carbamoyl]pyrrolidin-1-yl]-3-methyl-1-oxobutan-2-yl]amino]-3-methyl-1-oxobutan-2-yl]pyrazine-2-carboxamide
> <PUBCHEM_IUPAC_SYSTEMATIC_NAME>
N-[(2S)-1-[[(2S)-1-[(2S,4R)-4-[(6-chloranyl-1,3-benzodioxol-5-yl)methoxy]-2-[[(2S)-1-oxidanylidenebutan-2-yl]carbamoyl]pyrrolidin-1-yl]-3-methyl-1-oxidanylidene-butan-2-yl]amino]-3-methyl-1-oxidanylidene-butan-2-yl]pyrazine-2-carboxamide
> <PUBCHEM_IUPAC_TRADITIONAL_NAME>
N-[(1S)-1-[[(1S)-1-[(2S,4R)-4-[(6-chloro-1,3-benzodioxol-5-yl)methoxy]-2-[[(1S)-1-formylpropyl]carbamoyl]pyrrolidine-1-carbonyl]-2-methyl-propyl]carbamoyl]-2-methyl-propyl]pyrazinamide
> <PUBCHEM_IUPAC_INCHI>
InChI=1S/C32H41ClN6O8/c1-6-20(14-40)36-30(42)24-10-21(45-15-19-9-25-26(11-22(19)33)47-16-46-25)13-39(24)32(44)28(18(4)5)38-31(43)27(17(2)3)37-29(41)23-12-34-7-8-35-23/h7-9,11-12,14,17-18,20-21,24,27-28H,6,10,13,15-16H2,1-5H3,(H,36,42)(H,37,41)(H,38,43)/t20-,21+,24-,27-,28-/m0/s1
> <PUBCHEM_IUPAC_INCHIKEY>
QBVXNVMMERRBTP-MTPDOKCHSA-N
> <PUBCHEM_XLOGP3_AA>
2.8
> <PUBCHEM_EXACT_MASS>
672.2674400
> <PUBCHEM_MOLECULAR_FORMULA>
C32H41ClN6O8
> <PUBCHEM_MOLECULAR_WEIGHT>
673.2
> <PUBCHEM_OPENEYE_CAN_SMILES>
CCC(C=O)NC(=O)C1CC(CN1C(=O)C(C(C)C)NC(=O)C(C(C)C)NC(=O)C2=NC=CN=C2)OCC3=CC4=C(C=C3Cl)OCO4
> <PUBCHEM_OPENEYE_ISO_SMILES>
CC[C@@H](C=O)NC(=O)[C@@H]1C[C@H](CN1C(=O)[C@H](C(C)C)NC(=O)[C@H](C(C)C)NC(=O)C2=NC=CN=C2)OCC3=CC4=C(C=C3Cl)OCO4
> <PUBCHEM_CACTVS_TPSA>
178
> <PUBCHEM_MONOISOTOPIC_WEIGHT>
672.2674400
> <PUBCHEM_TOTAL_CHARGE>
0
> <PUBCHEM_HEAVY_ATOM_COUNT>
47
> <PUBCHEM_ATOM_DEF_STEREO_COUNT>
5
> <PUBCHEM_ATOM_UDEF_STEREO_COUNT>
0
> <PUBCHEM_BOND_DEF_STEREO_COUNT>
0
> <PUBCHEM_BOND_UDEF_STEREO_COUNT>
0
> <PUBCHEM_ISOTOPIC_ATOM_COUNT>
0
> <PUBCHEM_COMPONENT_COUNT>
1
> <PUBCHEM_CACTVS_TAUTO_COUNT>
-1
> <PUBCHEM_COORDINATE_TYPE>
1
5
255
> <PUBCHEM_BONDANNOTATIONS>
21  11  5
27  12  6
29  13  6
14  44  8
14  46  8
15  45  8
15  47  8
16  22  5
17  2  6
31  36  8
31  37  8
36  39  8
37  40  8
39  41  8
40  41  8
44  45  8
46  47  8
$$$$
