506644
  -OEChem-10302200282D
 89 91  0     1  0  0  0  0  0999 V2000
   12.0503    6.1727    0.0000 F   0  0  0  0  0  0  0  0  0  0  0  0
   13.4163    5.8067    0.0000 F   0  0  0  0  0  0  0  0  0  0  0  0
   13.0503    4.4407    0.0000 F   0  0  0  0  0  0  0  0  0  0  0  0
   10.8183    0.3067    0.0000 O   0  0  0  0  0  0  0  0  0  0  0  0
   10.1372   -3.9547    0.0000 O   0  0  0  0  0  0  0  0  0  0  0  0
   11.4993   -3.9547    0.0000 O   0  0  0  0  0  0  0  0  0  0  0  0
    6.7469   -2.7276    0.0000 O   0  0  0  0  0  0  0  0  0  0  0  0
   15.0707   -4.4502    0.0000 O   0  0  0  0  0  0  0  0  0  0  0  0
   11.6843    4.8067    0.0000 O   0  0  0  0  0  0  0  0  0  0  0  0
    5.3903   -6.0682    0.0000 O   0  0  0  0  0  0  0  0  0  0  0  0
   10.3183   -2.2322    0.0000 N   0  0  0  0  0  0  0  0  0  0  0  0
    8.1482   -3.7457    0.0000 N   0  0  0  0  0  0  0  0  0  0  0  0
   12.9006   -2.9366    0.0000 N   0  0  0  0  0  0  0  0  0  0  0  0
    5.5714   -4.3456    0.0000 N   0  0  0  0  0  0  0  0  0  0  0  0
    3.5823   -4.1366    0.0000 N   0  0  0  0  0  0  0  0  0  0  0  0
    2.4067   -5.7546    0.0000 N   0  0  0  0  0  0  0  0  0  0  0  0
   11.3183   -2.2322    0.0000 C   0  0  1  0  0  0  0  0  0  0  0  0
   10.8183   -0.6933    0.0000 C   0  0  2  0  0  0  0  0  0  0  0  0
   11.6273   -1.2811    0.0000 C   0  0  0  0  0  0  0  0  0  0  0  0
   10.0093   -1.2811    0.0000 C   0  0  0  0  0  0  0  0  0  0  0  0
    9.7305   -3.0412    0.0000 C   0  0  0  0  0  0  0  0  0  0  0  0
    8.7360   -2.9366    0.0000 C   0  0  2  0  0  0  0  0  0  0  0  0
   11.9061   -3.0412    0.0000 C   0  0  0  0  0  0  0  0  0  0  0  0
    8.3292   -2.0231    0.0000 C   0  0  0  0  0  0  0  0  0  0  0  0
   11.6843    0.8067    0.0000 C   0  0  0  0  0  0  0  0  0  0  0  0
    7.3347   -1.9186    0.0000 C   0  0  0  0  0  0  0  0  0  0  0  0
    8.9170   -1.2141    0.0000 C   0  0  0  0  0  0  0  0  0  0  0  0
   13.4884   -3.7457    0.0000 C   0  0  1  0  0  0  0  0  0  0  0  0
    7.1537   -3.6411    0.0000 C   0  0  0  0  0  0  0  0  0  0  0  0
    6.5659   -4.4502    0.0000 C   0  0  2  0  0  0  0  0  0  0  0  0
    6.9726   -5.3637    0.0000 C   0  0  0  0  0  0  0  0  0  0  0  0
   11.6843    1.8067    0.0000 C   0  0  0  0  0  0  0  0  0  0  0  0
   13.0816   -4.6592    0.0000 C   0  0  0  0  0  0  0  0  0  0  0  0
   14.4829   -3.6411    0.0000 C   0  0  0  0  0  0  0  0  0  0  0  0
    6.3848   -6.1727    0.0000 C   0  0  0  0  0  0  0  0  0  0  0  0
    7.9671   -5.4682    0.0000 C   0  0  0  0  0  0  0  0  0  0  0  0
   13.6694   -5.4682    0.0000 C   0  0  0  0  0  0  0  0  0  0  0  0
   10.8183    2.3067    0.0000 C   0  0  0  0  0  0  0  0  0  0  0  0
   12.5503    2.3067    0.0000 C   0  0  0  0  0  0  0  0  0  0  0  0
    4.9836   -5.1546    0.0000 C   0  0  0  0  0  0  0  0  0  0  0  0
   10.8183    3.3067    0.0000 C   0  0  0  0  0  0  0  0  0  0  0  0
   12.5503    3.3067    0.0000 C   0  0  0  0  0  0  0  0  0  0  0  0
   11.6843    3.8067    0.0000 C   0  0  0  0  0  0  0  0  0  0  0  0
    3.9890   -5.0501    0.0000 C   0  0  0  0  0  0  0  0  0  0  0  0
    3.4013   -5.8591    0.0000 C   0  0  0  0  0  0  0  0  0  0  0  0
   12.5503    5.3067    0.0000 C   0  0  0  0  0  0  0  0  0  0  0  0
    2.5878   -4.0320    0.0000 C   0  0  0  0  0  0  0  0  0  0  0  0
    2.0000   -4.8410    0.0000 C   0  0  0  0  0  0  0  0  0  0  0  0
   11.0368   -2.7846    0.0000 H   0  0  0  0  0  0  0  0  0  0  0  0
   10.2658   -0.4118    0.0000 H   0  0  0  0  0  0  0  0  0  0  0  0
   12.1937   -1.5333    0.0000 H   0  0  0  0  0  0  0  0  0  0  0  0
   11.9373   -0.7442    0.0000 H   0  0  0  0  0  0  0  0  0  0  0  0
    9.6992   -0.7442    0.0000 H   0  0  0  0  0  0  0  0  0  0  0  0
    9.4429   -1.5333    0.0000 H   0  0  0  0  0  0  0  0  0  0  0  0
    8.1194   -2.8718    0.0000 H   0  0  0  0  0  0  0  0  0  0  0  0
    8.0770   -1.4567    0.0000 H   0  0  0  0  0  0  0  0  0  0  0  0
    8.4004   -4.3121    0.0000 H   0  0  0  0  0  0  0  0  0  0  0  0
   13.1528   -2.3702    0.0000 H   0  0  0  0  0  0  0  0  0  0  0  0
   11.8963    0.2241    0.0000 H   0  0  0  0  0  0  0  0  0  0  0  0
   12.2949    0.9143    0.0000 H   0  0  0  0  0  0  0  0  0  0  0  0
    7.3995   -1.3020    0.0000 H   0  0  0  0  0  0  0  0  0  0  0  0
    6.7181   -1.8538    0.0000 H   0  0  0  0  0  0  0  0  0  0  0  0
    7.2699   -2.5352    0.0000 H   0  0  0  0  0  0  0  0  0  0  0  0
    9.4186   -1.5785    0.0000 H   0  0  0  0  0  0  0  0  0  0  0  0
    9.2814   -0.7125    0.0000 H   0  0  0  0  0  0  0  0  0  0  0  0
    8.4154   -0.8497    0.0000 H   0  0  0  0  0  0  0  0  0  0  0  0
   13.7405   -3.1793    0.0000 H   0  0  0  0  0  0  0  0  0  0  0  0
    6.2014   -4.9517    0.0000 H   0  0  0  0  0  0  0  0  0  0  0  0
    7.3370   -4.8621    0.0000 H   0  0  0  0  0  0  0  0  0  0  0  0
   12.5676   -4.3125    0.0000 H   0  0  0  0  0  0  0  0  0  0  0  0
   12.6509   -5.1052    0.0000 H   0  0  0  0  0  0  0  0  0  0  0  0
    5.3192   -3.7792    0.0000 H   0  0  0  0  0  0  0  0  0  0  0  0
   14.7351   -3.0747    0.0000 H   0  0  0  0  0  0  0  0  0  0  0  0
    5.8832   -5.8083    0.0000 H   0  0  0  0  0  0  0  0  0  0  0  0
    6.0204   -6.6743    0.0000 H   0  0  0  0  0  0  0  0  0  0  0  0
    6.8864   -6.5371    0.0000 H   0  0  0  0  0  0  0  0  0  0  0  0
    7.9023   -6.0848    0.0000 H   0  0  0  0  0  0  0  0  0  0  0  0
    8.5837   -5.5330    0.0000 H   0  0  0  0  0  0  0  0  0  0  0  0
    8.0319   -4.8516    0.0000 H   0  0  0  0  0  0  0  0  0  0  0  0
   13.1678   -5.8326    0.0000 H   0  0  0  0  0  0  0  0  0  0  0  0
   14.0338   -5.9698    0.0000 H   0  0  0  0  0  0  0  0  0  0  0  0
   14.1710   -5.1038    0.0000 H   0  0  0  0  0  0  0  0  0  0  0  0
   10.2813    1.9967    0.0000 H   0  0  0  0  0  0  0  0  0  0  0  0
   13.0873    1.9967    0.0000 H   0  0  0  0  0  0  0  0  0  0  0  0
   10.2813    3.6167    0.0000 H   0  0  0  0  0  0  0  0  0  0  0  0
   13.0873    3.6167    0.0000 H   0  0  0  0  0  0  0  0  0  0  0  0
    3.6534   -6.4255    0.0000 H   0  0  0  0  0  0  0  0  0  0  0  0
    2.3356   -3.4656    0.0000 H   0  0  0  0  0  0  0  0  0  0  0  0
    1.3834   -4.7762    0.0000 H   0  0  0  0  0  0  0  0  0  0  0  0
  1 46  1  0  0  0  0
  2 46  1  0  0  0  0
  3 46  1  0  0  0  0
 18  4  1  6  0  0  0
  4 25  1  0  0  0  0
  5 21  2  0  0  0  0
  6 23  2  0  0  0  0
  7 29  2  0  0  0  0
  8 34  2  0  0  0  0
  9 43  1  0  0  0  0
  9 46  1  0  0  0  0
 10 40  2  0  0  0  0
 11 17  1  0  0  0  0
 11 20  1  0  0  0  0
 11 21  1  0  0  0  0
 22 12  1  1  0  0  0
 12 29  1  0  0  0  0
 12 57  1  0  0  0  0
 13 23  1  0  0  0  0
 28 13  1  6  0  0  0
 13 58  1  0  0  0  0
 30 14  1  6  0  0  0
 14 40  1  0  0  0  0
 14 72  1  0  0  0  0
 15 44  2  0  0  0  0
 15 47  1  0  0  0  0
 16 45  2  0  0  0  0
 16 48  1  0  0  0  0
 17 19  1  0  0  0  0
 17 23  1  1  0  0  0
 17 49  1  0  0  0  0
 18 19  1  0  0  0  0
 18 20  1  0  0  0  0
 18 50  1  0  0  0  0
 19 51  1  0  0  0  0
 19 52  1  0  0  0  0
 20 53  1  0  0  0  0
 20 54  1  0  0  0  0
 21 22  1  0  0  0  0
 22 24  1  0  0  0  0
 22 55  1  0  0  0  0
 24 26  1  0  0  0  0
 24 27  1  0  0  0  0
 24 56  1  0  0  0  0
 25 32  1  0  0  0  0
 25 59  1  0  0  0  0
 25 60  1  0  0  0  0
 26 61  1  0  0  0  0
 26 62  1  0  0  0  0
 26 63  1  0  0  0  0
 27 64  1  0  0  0  0
 27 65  1  0  0  0  0
 27 66  1  0  0  0  0
 28 33  1  0  0  0  0
 28 34  1  0  0  0  0
 28 67  1  0  0  0  0
 29 30  1  0  0  0  0
 30 31  1  0  0  0  0
 30 68  1  0  0  0  0
 31 35  1  0  0  0  0
 31 36  1  0  0  0  0
 31 69  1  0  0  0  0
 32 38  2  0  0  0  0
 32 39  1  0  0  0  0
 33 37  1  0  0  0  0
 33 70  1  0  0  0  0
 33 71  1  0  0  0  0
 34 73  1  0  0  0  0
 35 74  1  0  0  0  0
 35 75  1  0  0  0  0
 35 76  1  0  0  0  0
 36 77  1  0  0  0  0
 36 78  1  0  0  0  0
 36 79  1  0  0  0  0
 37 80  1  0  0  0  0
 37 81  1  0  0  0  0
 37 82  1  0  0  0  0
 38 41  1  0  0  0  0
 38 83  1  0  0  0  0
 39 42  2  0  0  0  0
 39 84  1  0  0  0  0
 40 44  1  0  0  0  0
 41 43  2  0  0  0  0
 41 85  1  0  0  0  0
 42 43  1  0  0  0  0
 42 86  1  0  0  0  0
 44 45  1  0  0  0  0
 45 87  1  0  0  0  0
 47 48  2  0  0  0  0
 47 88  1  0  0  0  0
 48 89  1  0  0  0  0
M  END
> <PUBCHEM_COMPOUND_CID>
506644
> <PUBCHEM_COMPOUND_CANONICALIZED>
1
> <PUBCHEM_CACTVS_COMPLEXITY>
1100
> <PUBCHEM_CACTVS_HBOND_ACCEPTOR>
12
> <PUBCHEM_CACTVS_HBOND_DONOR>
3
> <PUBCHEM_CACTVS_ROTATABLE_BOND>
15
> <PUBCHEM_CACTVS_SUBSKEYS>
AAADcfB/uYAAAAAAAAAAAAAAAAAAAWAAAAA8QAAAAAAAAAABwAAAHwAQAAAADTzhnhY+hpPIFACoAz131ACCiCQ3MiAI2IG+fMgOZnrE8TqXMKgm1hHYqMe64SwOIAAAAAAAAABAAAAAAAAAAAAAAAAAAA==
> <PUBCHEM_IUPAC_OPENEYE_NAME>
N-[(1S)-1-[[(1S)-1-[(2S,4R)-2-[[(1S)-1-formylpropyl]carbamoyl]-4-[[4-(trifluoromethoxy)phenyl]methoxy]pyrrolidine-1-carbonyl]-2-methyl-propyl]carbamoyl]-2-methyl-propyl]pyrazine-2-carboxamide
> <PUBCHEM_IUPAC_CAS_NAME>
N-[(2S)-3-methyl-1-[[(2S)-3-methyl-1-oxo-1-[(2S,4R)-2-[oxo-[[(2S)-1-oxobutan-2-yl]amino]methyl]-4-[[4-(trifluoromethoxy)phenyl]methoxy]-1-pyrrolidinyl]butan-2-yl]amino]-1-oxobutan-2-yl]-2-pyrazinecarboxamide
> <PUBCHEM_IUPAC_NAME_MARKUP>
<I>N</I>-[(2<I>S</I>)-3-methyl-1-[[(2<I>S</I>)-3-methyl-1-oxo-1-[(2<I>S</I>,4<I>R</I>)-2-[[(2<I>S</I>)-1-oxobutan-2-yl]carbamoyl]-4-[[4-(trifluoromethoxy)phenyl]methoxy]pyrrolidin-1-yl]butan-2-yl]amino]-1-oxobutan-2-yl]pyrazine-2-carboxamide
> <PUBCHEM_IUPAC_NAME>
N-[(2S)-3-methyl-1-[[(2S)-3-methyl-1-oxo-1-[(2S,4R)-2-[[(2S)-1-oxobutan-2-yl]carbamoyl]-4-[[4-(trifluoromethoxy)phenyl]methoxy]pyrrolidin-1-yl]butan-2-yl]amino]-1-oxobutan-2-yl]pyrazine-2-carboxamide
> <PUBCHEM_IUPAC_SYSTEMATIC_NAME>
N-[(2S)-3-methyl-1-[[(2S)-3-methyl-1-oxidanylidene-1-[(2S,4R)-2-[[(2S)-1-oxidanylidenebutan-2-yl]carbamoyl]-4-[[4-(trifluoromethyloxy)phenyl]methoxy]pyrrolidin-1-yl]butan-2-yl]amino]-1-oxidanylidene-butan-2-yl]pyrazine-2-carboxamide
> <PUBCHEM_IUPAC_TRADITIONAL_NAME>
N-[(1S)-1-[[(1S)-1-[(2S,4R)-2-[[(1S)-1-formylpropyl]carbamoyl]-4-[4-(trifluoromethoxy)benzyl]oxy-pyrrolidine-1-carbonyl]-2-methyl-propyl]carbamoyl]-2-methyl-propyl]pyrazinamide
> <PUBCHEM_IUPAC_INCHI>
InChI=1S/C32H41F3N6O7/c1-6-21(16-42)38-29(44)25-13-23(47-17-20-7-9-22(10-8-20)48-32(33,34)35)15-41(25)31(46)27(19(4)5)40-30(45)26(18(2)3)39-28(43)24-14-36-11-12-37-24/h7-12,14,16,18-19,21,23,25-27H,6,13,15,17H2,1-5H3,(H,38,44)(H,39,43)(H,40,45)/t21-,23+,25-,26-,27-/m0/s1
> <PUBCHEM_IUPAC_INCHIKEY>
CJBCADVECFOCTG-ZOWQFLOBSA-N
> <PUBCHEM_XLOGP3_AA>
3.6
> <PUBCHEM_EXACT_MASS>
678.29888215
> <PUBCHEM_MOLECULAR_FORMULA>
C32H41F3N6O7
> <PUBCHEM_MOLECULAR_WEIGHT>
678.7
> <PUBCHEM_OPENEYE_CAN_SMILES>
CCC(C=O)NC(=O)C1CC(CN1C(=O)C(C(C)C)NC(=O)C(C(C)C)NC(=O)C2=NC=CN=C2)OCC3=CC=C(C=C3)OC(F)(F)F
> <PUBCHEM_OPENEYE_ISO_SMILES>
CC[C@@H](C=O)NC(=O)[C@@H]1C[C@H](CN1C(=O)[C@H](C(C)C)NC(=O)[C@H](C(C)C)NC(=O)C2=NC=CN=C2)OCC3=CC=C(C=C3)OC(F)(F)F
> <PUBCHEM_CACTVS_TPSA>
169
> <PUBCHEM_MONOISOTOPIC_WEIGHT>
678.29888215
> <PUBCHEM_TOTAL_CHARGE>
0
> <PUBCHEM_HEAVY_ATOM_COUNT>
48
> <PUBCHEM_ATOM_DEF_STEREO_COUNT>
5
> <PUBCHEM_ATOM_UDEF_STEREO_COUNT>
0
> <PUBCHEM_BOND_DEF_STEREO_COUNT>
0
> <PUBCHEM_BOND_UDEF_STEREO_COUNT>
0
> <PUBCHEM_ISOTOPIC_ATOM_COUNT>
0
> <PUBCHEM_COMPONENT_COUNT>
1
> <PUBCHEM_CACTVS_TAUTO_COUNT>
-1
> <PUBCHEM_COORDINATE_TYPE>
1
5
255
> <PUBCHEM_BONDANNOTATIONS>
22  12  5
28  13  6
30  14  6
15  44  8
15  47  8
16  45  8
16  48  8
17  23  5
32  38  8
32  39  8
38  41  8
39  42  8
18  4  6
41  43  8
42  43  8
44  45  8
47  48  8
$$$$
