506691
  -OEChem-10302200282D
 86 88  0     1  0  0  0  0  0999 V2000
    3.0000   -4.1576    0.0000 S   0  0  0  0  0  0  0  0  0  0  0  0
    6.3500   -0.4371    0.0000 O   0  0  0  0  0  0  0  0  0  0  0  0
    7.0310   -1.6167    0.0000 O   0  0  0  0  0  0  0  0  0  0  0  0
    4.0000   -4.1576    0.0000 O   0  0  0  0  0  0  0  0  0  0  0  0
    2.0000   -4.1576    0.0000 O   0  0  0  0  0  0  0  0  0  0  0  0
    3.5921    1.8854    0.0000 O   0  0  0  0  0  0  0  0  0  0  0  0
    9.2457   -4.4619    0.0000 O   0  0  0  0  0  0  0  0  0  0  0  0
    5.8068    4.7306    0.0000 O   0  0  0  0  0  0  0  0  0  0  0  0
    4.9487   -1.4552    0.0000 N   0  0  0  0  0  0  0  0  0  0  0  0
    3.0000   -3.1576    0.0000 N   0  0  0  0  0  0  0  0  0  0  0  0
    5.1744    1.1809    0.0000 N   0  0  0  0  0  0  0  0  0  0  0  0
    6.8500   -3.3393    0.0000 N   0  0  0  0  0  0  0  0  0  0  0  0
    4.4056    3.7125    0.0000 N   0  0  0  0  0  0  0  0  0  0  0  0
    3.2300    5.3305    0.0000 N   0  0  0  0  0  0  0  0  0  0  0  0
    4.0435    7.1576    0.0000 N   0  0  0  0  0  0  0  0  0  0  0  0
    3.8660   -2.6576    0.0000 C   0  0  2  0  0  0  0  0  0  0  0  0
    5.4487   -2.3212    0.0000 C   0  0  1  0  0  0  0  0  0  0  0  0
    4.7796   -3.0644    0.0000 C   0  0  0  0  0  0  0  0  0  0  0  0
    3.9706   -1.6631    0.0000 C   0  0  0  0  0  0  0  0  0  0  0  0
    5.3554   -0.5416    0.0000 C   0  0  0  0  0  0  0  0  0  0  0  0
    4.7676    0.2674    0.0000 C   0  0  2  0  0  0  0  0  0  0  0  0
    6.4432   -2.4257    0.0000 C   0  0  0  0  0  0  0  0  0  0  0  0
    3.7731    0.1628    0.0000 C   0  0  0  0  0  0  0  0  0  0  0  0
    3.1854    0.9719    0.0000 C   0  0  0  0  0  0  0  0  0  0  0  0
    3.3664   -0.7507    0.0000 C   0  0  0  0  0  0  0  0  0  0  0  0
    7.8445   -3.4438    0.0000 C   0  0  1  0  0  0  0  0  0  0  0  0
    3.0000   -5.1576    0.0000 C   0  0  0  0  0  0  0  0  0  0  0  0
    4.5866    1.9899    0.0000 C   0  0  0  0  0  0  0  0  0  0  0  0
    4.9933    2.9035    0.0000 C   0  0  2  0  0  0  0  0  0  0  0  0
    5.9879    3.0080    0.0000 C   0  0  0  0  0  0  0  0  0  0  0  0
    8.4323   -2.6348    0.0000 C   0  0  0  0  0  0  0  0  0  0  0  0
    2.1340   -5.6576    0.0000 C   0  0  0  0  0  0  0  0  0  0  0  0
    3.8660   -5.6576    0.0000 C   0  0  0  0  0  0  0  0  0  0  0  0
    8.2512   -4.3574    0.0000 C   0  0  0  0  0  0  0  0  0  0  0  0
    6.3946    3.9216    0.0000 C   0  0  0  0  0  0  0  0  0  0  0  0
    6.5756    2.1990    0.0000 C   0  0  0  0  0  0  0  0  0  0  0  0
    9.4268   -2.7393    0.0000 C   0  0  0  0  0  0  0  0  0  0  0  0
    2.1340   -6.6576    0.0000 C   0  0  0  0  0  0  0  0  0  0  0  0
    3.8660   -6.6576    0.0000 C   0  0  0  0  0  0  0  0  0  0  0  0
    3.0000   -7.1576    0.0000 C   0  0  0  0  0  0  0  0  0  0  0  0
    4.8123    4.6260    0.0000 C   0  0  0  0  0  0  0  0  0  0  0  0
    4.2245    5.4351    0.0000 C   0  0  0  0  0  0  0  0  0  0  0  0
    4.6312    6.3486    0.0000 C   0  0  0  0  0  0  0  0  0  0  0  0
    2.6422    6.1396    0.0000 C   0  0  0  0  0  0  0  0  0  0  0  0
    3.0489    7.0531    0.0000 C   0  0  0  0  0  0  0  0  0  0  0  0
    3.3460   -2.3200    0.0000 H   0  0  0  0  0  0  0  0  0  0  0  0
    5.7864   -1.8012    0.0000 H   0  0  0  0  0  0  0  0  0  0  0  0
    4.4696   -3.6013    0.0000 H   0  0  0  0  0  0  0  0  0  0  0  0
    5.2812   -3.4288    0.0000 H   0  0  0  0  0  0  0  0  0  0  0  0
    3.9058   -1.0465    0.0000 H   0  0  0  0  0  0  0  0  0  0  0  0
    3.3506   -1.6631    0.0000 H   0  0  0  0  0  0  0  0  0  0  0  0
    5.3843    0.3322    0.0000 H   0  0  0  0  0  0  0  0  0  0  0  0
    2.4631   -2.8476    0.0000 H   0  0  0  0  0  0  0  0  0  0  0  0
    3.1565    0.0980    0.0000 H   0  0  0  0  0  0  0  0  0  0  0  0
    5.7910    1.2457    0.0000 H   0  0  0  0  0  0  0  0  0  0  0  0
    6.4855   -3.8409    0.0000 H   0  0  0  0  0  0  0  0  0  0  0  0
    3.6869    1.3363    0.0000 H   0  0  0  0  0  0  0  0  0  0  0  0
    2.8209    1.4734    0.0000 H   0  0  0  0  0  0  0  0  0  0  0  0
    2.6838    0.6074    0.0000 H   0  0  0  0  0  0  0  0  0  0  0  0
    2.8000   -0.4985    0.0000 H   0  0  0  0  0  0  0  0  0  0  0  0
    3.1142   -1.3171    0.0000 H   0  0  0  0  0  0  0  0  0  0  0  0
    3.9328   -1.0029    0.0000 H   0  0  0  0  0  0  0  0  0  0  0  0
    7.5923   -2.8774    0.0000 H   0  0  0  0  0  0  0  0  0  0  0  0
    5.2455    3.4699    0.0000 H   0  0  0  0  0  0  0  0  0  0  0  0
    5.6234    3.5096    0.0000 H   0  0  0  0  0  0  0  0  0  0  0  0
    8.6032   -2.0388    0.0000 H   0  0  0  0  0  0  0  0  0  0  0  0
    7.8750   -2.3630    0.0000 H   0  0  0  0  0  0  0  0  0  0  0  0
    1.5970   -5.3476    0.0000 H   0  0  0  0  0  0  0  0  0  0  0  0
    4.4030   -5.3476    0.0000 H   0  0  0  0  0  0  0  0  0  0  0  0
    7.8868   -4.8590    0.0000 H   0  0  0  0  0  0  0  0  0  0  0  0
    3.7890    3.6477    0.0000 H   0  0  0  0  0  0  0  0  0  0  0  0
    6.9610    3.6694    0.0000 H   0  0  0  0  0  0  0  0  0  0  0  0
    6.6468    4.4880    0.0000 H   0  0  0  0  0  0  0  0  0  0  0  0
    5.8282    4.1737    0.0000 H   0  0  0  0  0  0  0  0  0  0  0  0
    6.0741    1.8346    0.0000 H   0  0  0  0  0  0  0  0  0  0  0  0
    6.9401    1.6974    0.0000 H   0  0  0  0  0  0  0  0  0  0  0  0
    7.0772    2.5634    0.0000 H   0  0  0  0  0  0  0  0  0  0  0  0
    9.3620   -3.3559    0.0000 H   0  0  0  0  0  0  0  0  0  0  0  0
   10.0434   -2.8041    0.0000 H   0  0  0  0  0  0  0  0  0  0  0  0
    9.4916   -2.1227    0.0000 H   0  0  0  0  0  0  0  0  0  0  0  0
    1.5970   -6.9676    0.0000 H   0  0  0  0  0  0  0  0  0  0  0  0
    4.4030   -6.9676    0.0000 H   0  0  0  0  0  0  0  0  0  0  0  0
    3.0000   -7.7776    0.0000 H   0  0  0  0  0  0  0  0  0  0  0  0
    5.2478    6.4134    0.0000 H   0  0  0  0  0  0  0  0  0  0  0  0
    2.0256    6.0747    0.0000 H   0  0  0  0  0  0  0  0  0  0  0  0
    2.6845    7.5547    0.0000 H   0  0  0  0  0  0  0  0  0  0  0  0
  1  4  2  0  0  0  0
  1  5  2  0  0  0  0
  1 10  1  0  0  0  0
  1 27  1  0  0  0  0
  2 20  2  0  0  0  0
  3 22  2  0  0  0  0
  6 28  2  0  0  0  0
  7 34  2  0  0  0  0
  8 41  2  0  0  0  0
  9 17  1  0  0  0  0
  9 19  1  0  0  0  0
  9 20  1  0  0  0  0
 16 10  1  1  0  0  0
 10 53  1  0  0  0  0
 21 11  1  6  0  0  0
 11 28  1  0  0  0  0
 11 55  1  0  0  0  0
 12 22  1  0  0  0  0
 26 12  1  1  0  0  0
 12 56  1  0  0  0  0
 29 13  1  1  0  0  0
 13 41  1  0  0  0  0
 13 71  1  0  0  0  0
 14 42  2  0  0  0  0
 14 44  1  0  0  0  0
 15 43  2  0  0  0  0
 15 45  1  0  0  0  0
 16 18  1  0  0  0  0
 16 19  1  0  0  0  0
 16 46  1  0  0  0  0
 17 18  1  0  0  0  0
 17 22  1  6  0  0  0
 17 47  1  0  0  0  0
 18 48  1  0  0  0  0
 18 49  1  0  0  0  0
 19 50  1  0  0  0  0
 19 51  1  0  0  0  0
 20 21  1  0  0  0  0
 21 23  1  0  0  0  0
 21 52  1  0  0  0  0
 23 24  1  0  0  0  0
 23 25  1  0  0  0  0
 23 54  1  0  0  0  0
 24 57  1  0  0  0  0
 24 58  1  0  0  0  0
 24 59  1  0  0  0  0
 25 60  1  0  0  0  0
 25 61  1  0  0  0  0
 25 62  1  0  0  0  0
 26 31  1  0  0  0  0
 26 34  1  0  0  0  0
 26 63  1  0  0  0  0
 27 32  2  0  0  0  0
 27 33  1  0  0  0  0
 28 29  1  0  0  0  0
 29 30  1  0  0  0  0
 29 64  1  0  0  0  0
 30 35  1  0  0  0  0
 30 36  1  0  0  0  0
 30 65  1  0  0  0  0
 31 37  1  0  0  0  0
 31 66  1  0  0  0  0
 31 67  1  0  0  0  0
 32 38  1  0  0  0  0
 32 68  1  0  0  0  0
 33 39  2  0  0  0  0
 33 69  1  0  0  0  0
 34 70  1  0  0  0  0
 35 72  1  0  0  0  0
 35 73  1  0  0  0  0
 35 74  1  0  0  0  0
 36 75  1  0  0  0  0
 36 76  1  0  0  0  0
 36 77  1  0  0  0  0
 37 78  1  0  0  0  0
 37 79  1  0  0  0  0
 37 80  1  0  0  0  0
 38 40  2  0  0  0  0
 38 81  1  0  0  0  0
 39 40  1  0  0  0  0
 39 82  1  0  0  0  0
 40 83  1  0  0  0  0
 41 42  1  0  0  0  0
 42 43  1  0  0  0  0
 43 84  1  0  0  0  0
 44 45  2  0  0  0  0
 44 85  1  0  0  0  0
 45 86  1  0  0  0  0
M  END
> <PUBCHEM_COMPOUND_CID>
506691
> <PUBCHEM_COMPOUND_CANONICALIZED>
1
> <PUBCHEM_CACTVS_COMPLEXITY>
1150
> <PUBCHEM_CACTVS_HBOND_ACCEPTOR>
10
> <PUBCHEM_CACTVS_HBOND_DONOR>
4
> <PUBCHEM_CACTVS_ROTATABLE_BOND>
14
> <PUBCHEM_CACTVS_SUBSKEYS>
AAADcfB7uABAAAAAAAAAAAAAAAAAAWAAAAA8QAAAAAAAAAABwAAAHgQQQAAADSjh1gY+gZPIEAKoAT131HDCgDQ3EiAI2Jm4dMgIYHrA0TCUIIgglgDIiMccAQAIAAAAAAAAAAAAAAAAAAAAAAAAAAAAAA==
> <PUBCHEM_IUPAC_OPENEYE_NAME>
N-[(1S)-1-[[(1S)-1-[(2S,4R)-4-(benzenesulfonamido)-2-[[(1S)-1-formylpropyl]carbamoyl]pyrrolidine-1-carbonyl]-2-methyl-propyl]carbamoyl]-2-methyl-propyl]pyrazine-2-carboxamide
> <PUBCHEM_IUPAC_CAS_NAME>
N-[(2S)-1-[[(2S)-1-[(2S,4R)-4-(benzenesulfonamido)-2-[oxo-[[(2S)-1-oxobutan-2-yl]amino]methyl]-1-pyrrolidinyl]-3-methyl-1-oxobutan-2-yl]amino]-3-methyl-1-oxobutan-2-yl]-2-pyrazinecarboxamide
> <PUBCHEM_IUPAC_NAME_MARKUP>
<I>N</I>-[(2<I>S</I>)-1-[[(2<I>S</I>)-1-[(2<I>S</I>,4<I>R</I>)-4-(benzenesulfonamido)-2-[[(2<I>S</I>)-1-oxobutan-2-yl]carbamoyl]pyrrolidin-1-yl]-3-methyl-1-oxobutan-2-yl]amino]-3-methyl-1-oxobutan-2-yl]pyrazine-2-carboxamide
> <PUBCHEM_IUPAC_NAME>
N-[(2S)-1-[[(2S)-1-[(2S,4R)-4-(benzenesulfonamido)-2-[[(2S)-1-oxobutan-2-yl]carbamoyl]pyrrolidin-1-yl]-3-methyl-1-oxobutan-2-yl]amino]-3-methyl-1-oxobutan-2-yl]pyrazine-2-carboxamide
> <PUBCHEM_IUPAC_SYSTEMATIC_NAME>
N-[(2S)-3-methyl-1-[[(2S)-3-methyl-1-oxidanylidene-1-[(2S,4R)-2-[[(2S)-1-oxidanylidenebutan-2-yl]carbamoyl]-4-(phenylsulfonylamino)pyrrolidin-1-yl]butan-2-yl]amino]-1-oxidanylidene-butan-2-yl]pyrazine-2-carboxamide
> <PUBCHEM_IUPAC_TRADITIONAL_NAME>
N-[(1S)-1-[[(1S)-1-[(2S,4R)-4-(benzenesulfonamido)-2-[[(1S)-1-formylpropyl]carbamoyl]pyrrolidine-1-carbonyl]-2-methyl-propyl]carbamoyl]-2-methyl-propyl]pyrazinamide
> <PUBCHEM_IUPAC_INCHI>
InChI=1S/C30H41N7O7S/c1-6-20(17-38)33-28(40)24-14-21(36-45(43,44)22-10-8-7-9-11-22)16-37(24)30(42)26(19(4)5)35-29(41)25(18(2)3)34-27(39)23-15-31-12-13-32-23/h7-13,15,17-21,24-26,36H,6,14,16H2,1-5H3,(H,33,40)(H,34,39)(H,35,41)/t20-,21+,24-,25-,26-/m0/s1
> <PUBCHEM_IUPAC_INCHIKEY>
RCNPBBZTJDTQTR-ZLPRUYCRSA-N
> <PUBCHEM_XLOGP3_AA>
1.7
> <PUBCHEM_EXACT_MASS>
643.27881785
> <PUBCHEM_MOLECULAR_FORMULA>
C30H41N7O7S
> <PUBCHEM_MOLECULAR_WEIGHT>
643.8
> <PUBCHEM_OPENEYE_CAN_SMILES>
CCC(C=O)NC(=O)C1CC(CN1C(=O)C(C(C)C)NC(=O)C(C(C)C)NC(=O)C2=NC=CN=C2)NS(=O)(=O)C3=CC=CC=C3
> <PUBCHEM_OPENEYE_ISO_SMILES>
CC[C@@H](C=O)NC(=O)[C@@H]1C[C@H](CN1C(=O)[C@H](C(C)C)NC(=O)[C@H](C(C)C)NC(=O)C2=NC=CN=C2)NS(=O)(=O)C3=CC=CC=C3
> <PUBCHEM_CACTVS_TPSA>
205
> <PUBCHEM_MONOISOTOPIC_WEIGHT>
643.27881785
> <PUBCHEM_TOTAL_CHARGE>
0
> <PUBCHEM_HEAVY_ATOM_COUNT>
45
> <PUBCHEM_ATOM_DEF_STEREO_COUNT>
5
> <PUBCHEM_ATOM_UDEF_STEREO_COUNT>
0
> <PUBCHEM_BOND_DEF_STEREO_COUNT>
0
> <PUBCHEM_BOND_UDEF_STEREO_COUNT>
0
> <PUBCHEM_ISOTOPIC_ATOM_COUNT>
0
> <PUBCHEM_COMPONENT_COUNT>
1
> <PUBCHEM_CACTVS_TAUTO_COUNT>
-1
> <PUBCHEM_COORDINATE_TYPE>
1
5
255
> <PUBCHEM_BONDANNOTATIONS>
16  10  5
21  11  6
26  12  5
29  13  5
14  42  8
14  44  8
15  43  8
15  45  8
17  22  6
27  32  8
27  33  8
32  38  8
33  39  8
38  40  8
39  40  8
42  43  8
44  45  8
$$$$
