506668
  -OEChem-10302200282D
 90 92  0     1  0  0  0  0  0999 V2000
    4.5981   -2.4076    0.0000 O   0  0  0  0  0  0  0  0  0  0  0  0
    7.9480    0.3129    0.0000 O   0  0  0  0  0  0  0  0  0  0  0  0
    8.6291   -0.8667    0.0000 O   0  0  0  0  0  0  0  0  0  0  0  0
    5.1902    2.6354    0.0000 O   0  0  0  0  0  0  0  0  0  0  0  0
    5.4641   -3.9076    0.0000 O   0  0  0  0  0  0  0  0  0  0  0  0
   10.8438   -3.7119    0.0000 O   0  0  0  0  0  0  0  0  0  0  0  0
    7.4049    5.4806    0.0000 O   0  0  0  0  0  0  0  0  0  0  0  0
    2.0000   -6.9076    0.0000 O   0  0  0  0  0  0  0  0  0  0  0  0
    6.5468   -0.7052    0.0000 N   0  0  0  0  0  0  0  0  0  0  0  0
    6.7725    1.9309    0.0000 N   0  0  0  0  0  0  0  0  0  0  0  0
    8.4480   -2.5893    0.0000 N   0  0  0  0  0  0  0  0  0  0  0  0
    6.0036    4.4625    0.0000 N   0  0  0  0  0  0  0  0  0  0  0  0
    3.7320   -3.9076    0.0000 N   0  0  0  0  0  0  0  0  0  0  0  0
    6.2293    7.0986    0.0000 N   0  0  0  0  0  0  0  0  0  0  0  0
    4.2403    6.8896    0.0000 N   0  0  0  0  0  0  0  0  0  0  0  0
    7.0468   -1.5712    0.0000 C   0  0  1  0  0  0  0  0  0  0  0  0
    6.3776   -2.3144    0.0000 C   0  0  0  0  0  0  0  0  0  0  0  0
    5.4641   -1.9076    0.0000 C   0  0  2  0  0  0  0  0  0  0  0  0
    5.5686   -0.9131    0.0000 C   0  0  0  0  0  0  0  0  0  0  0  0
    6.9535    0.2084    0.0000 C   0  0  0  0  0  0  0  0  0  0  0  0
    6.3657    1.0174    0.0000 C   0  0  2  0  0  0  0  0  0  0  0  0
    8.0413   -1.6757    0.0000 C   0  0  0  0  0  0  0  0  0  0  0  0
    5.3712    0.9128    0.0000 C   0  0  0  0  0  0  0  0  0  0  0  0
    4.7834    1.7219    0.0000 C   0  0  0  0  0  0  0  0  0  0  0  0
    4.9645   -0.0007    0.0000 C   0  0  0  0  0  0  0  0  0  0  0  0
    9.4426   -2.6938    0.0000 C   0  0  1  0  0  0  0  0  0  0  0  0
    6.1847    2.7399    0.0000 C   0  0  0  0  0  0  0  0  0  0  0  0
    6.5914    3.6535    0.0000 C   0  0  2  0  0  0  0  0  0  0  0  0
    4.5981   -3.4076    0.0000 C   0  0  0  0  0  0  0  0  0  0  0  0
    7.5859    3.7580    0.0000 C   0  0  0  0  0  0  0  0  0  0  0  0
   10.0303   -1.8848    0.0000 C   0  0  0  0  0  0  0  0  0  0  0  0
    9.8493   -3.6074    0.0000 C   0  0  0  0  0  0  0  0  0  0  0  0
    7.9927    4.6716    0.0000 C   0  0  0  0  0  0  0  0  0  0  0  0
    8.1737    2.9490    0.0000 C   0  0  0  0  0  0  0  0  0  0  0  0
   11.0249   -1.9893    0.0000 C   0  0  0  0  0  0  0  0  0  0  0  0
    6.4104    5.3760    0.0000 C   0  0  0  0  0  0  0  0  0  0  0  0
    3.7320   -4.9076    0.0000 C   0  0  0  0  0  0  0  0  0  0  0  0
    5.8226    6.1851    0.0000 C   0  0  0  0  0  0  0  0  0  0  0  0
    2.8660   -5.4076    0.0000 C   0  0  0  0  0  0  0  0  0  0  0  0
    4.5981   -5.4076    0.0000 C   0  0  0  0  0  0  0  0  0  0  0  0
    2.8660   -6.4076    0.0000 C   0  0  0  0  0  0  0  0  0  0  0  0
    4.5981   -6.4076    0.0000 C   0  0  0  0  0  0  0  0  0  0  0  0
    4.8281    6.0805    0.0000 C   0  0  0  0  0  0  0  0  0  0  0  0
    3.7320   -6.9076    0.0000 C   0  0  0  0  0  0  0  0  0  0  0  0
    5.6415    7.9076    0.0000 C   0  0  0  0  0  0  0  0  0  0  0  0
    4.6470    7.8031    0.0000 C   0  0  0  0  0  0  0  0  0  0  0  0
    2.0000   -7.9076    0.0000 C   0  0  0  0  0  0  0  0  0  0  0  0
    7.3844   -1.0512    0.0000 H   0  0  0  0  0  0  0  0  0  0  0  0
    6.0677   -2.8513    0.0000 H   0  0  0  0  0  0  0  0  0  0  0  0
    6.8792   -2.6788    0.0000 H   0  0  0  0  0  0  0  0  0  0  0  0
    5.4966   -2.5268    0.0000 H   0  0  0  0  0  0  0  0  0  0  0  0
    5.5038   -0.2965    0.0000 H   0  0  0  0  0  0  0  0  0  0  0  0
    4.9486   -0.9131    0.0000 H   0  0  0  0  0  0  0  0  0  0  0  0
    6.0013    1.5190    0.0000 H   0  0  0  0  0  0  0  0  0  0  0  0
    5.7356    0.4113    0.0000 H   0  0  0  0  0  0  0  0  0  0  0  0
    7.3891    1.9957    0.0000 H   0  0  0  0  0  0  0  0  0  0  0  0
    8.0836   -3.0909    0.0000 H   0  0  0  0  0  0  0  0  0  0  0  0
    5.2850    2.0863    0.0000 H   0  0  0  0  0  0  0  0  0  0  0  0
    4.4190    2.2234    0.0000 H   0  0  0  0  0  0  0  0  0  0  0  0
    4.2818    1.3574    0.0000 H   0  0  0  0  0  0  0  0  0  0  0  0
    4.3981    0.2515    0.0000 H   0  0  0  0  0  0  0  0  0  0  0  0
    4.7123   -0.5671    0.0000 H   0  0  0  0  0  0  0  0  0  0  0  0
    5.5309   -0.2529    0.0000 H   0  0  0  0  0  0  0  0  0  0  0  0
    9.0781   -3.1954    0.0000 H   0  0  0  0  0  0  0  0  0  0  0  0
    5.9748    3.5887    0.0000 H   0  0  0  0  0  0  0  0  0  0  0  0
    7.2215    4.2596    0.0000 H   0  0  0  0  0  0  0  0  0  0  0  0
   10.2012   -1.2888    0.0000 H   0  0  0  0  0  0  0  0  0  0  0  0
    9.4731   -1.6130    0.0000 H   0  0  0  0  0  0  0  0  0  0  0  0
    5.3870    4.3977    0.0000 H   0  0  0  0  0  0  0  0  0  0  0  0
    9.4849   -4.1090    0.0000 H   0  0  0  0  0  0  0  0  0  0  0  0
    8.5591    4.4194    0.0000 H   0  0  0  0  0  0  0  0  0  0  0  0
    8.2448    5.2380    0.0000 H   0  0  0  0  0  0  0  0  0  0  0  0
    7.4263    4.9237    0.0000 H   0  0  0  0  0  0  0  0  0  0  0  0
    7.6721    2.5846    0.0000 H   0  0  0  0  0  0  0  0  0  0  0  0
    8.5382    2.4474    0.0000 H   0  0  0  0  0  0  0  0  0  0  0  0
    8.6753    3.3134    0.0000 H   0  0  0  0  0  0  0  0  0  0  0  0
    3.1951   -3.5976    0.0000 H   0  0  0  0  0  0  0  0  0  0  0  0
   10.9601   -2.6059    0.0000 H   0  0  0  0  0  0  0  0  0  0  0  0
   11.6415   -2.0541    0.0000 H   0  0  0  0  0  0  0  0  0  0  0  0
   11.0897   -1.3727    0.0000 H   0  0  0  0  0  0  0  0  0  0  0  0
    2.3291   -5.0976    0.0000 H   0  0  0  0  0  0  0  0  0  0  0  0
    5.1350   -5.0976    0.0000 H   0  0  0  0  0  0  0  0  0  0  0  0
    5.1350   -6.7176    0.0000 H   0  0  0  0  0  0  0  0  0  0  0  0
    4.5759    5.5141    0.0000 H   0  0  0  0  0  0  0  0  0  0  0  0
    3.7320   -7.5276    0.0000 H   0  0  0  0  0  0  0  0  0  0  0  0
    5.8937    8.4740    0.0000 H   0  0  0  0  0  0  0  0  0  0  0  0
    4.2826    8.3047    0.0000 H   0  0  0  0  0  0  0  0  0  0  0  0
    1.3800   -7.9076    0.0000 H   0  0  0  0  0  0  0  0  0  0  0  0
    2.0000   -8.5276    0.0000 H   0  0  0  0  0  0  0  0  0  0  0  0
    2.6200   -7.9076    0.0000 H   0  0  0  0  0  0  0  0  0  0  0  0
 18  1  1  1  0  0  0
  1 29  1  0  0  0  0
  2 20  2  0  0  0  0
  3 22  2  0  0  0  0
  4 27  2  0  0  0  0
  5 29  2  0  0  0  0
  6 32  2  0  0  0  0
  7 36  2  0  0  0  0
  8 41  1  0  0  0  0
  8 47  1  0  0  0  0
  9 16  1  0  0  0  0
  9 19  1  0  0  0  0
  9 20  1  0  0  0  0
 21 10  1  6  0  0  0
 10 27  1  0  0  0  0
 10 56  1  0  0  0  0
 11 22  1  0  0  0  0
 26 11  1  1  0  0  0
 11 57  1  0  0  0  0
 28 12  1  1  0  0  0
 12 36  1  0  0  0  0
 12 69  1  0  0  0  0
 13 29  1  0  0  0  0
 13 37  1  0  0  0  0
 13 77  1  0  0  0  0
 14 38  2  0  0  0  0
 14 45  1  0  0  0  0
 15 43  2  0  0  0  0
 15 46  1  0  0  0  0
 16 17  1  0  0  0  0
 16 22  1  6  0  0  0
 16 48  1  0  0  0  0
 17 18  1  0  0  0  0
 17 49  1  0  0  0  0
 17 50  1  0  0  0  0
 18 19  1  0  0  0  0
 18 51  1  0  0  0  0
 19 52  1  0  0  0  0
 19 53  1  0  0  0  0
 20 21  1  0  0  0  0
 21 23  1  0  0  0  0
 21 54  1  0  0  0  0
 23 24  1  0  0  0  0
 23 25  1  0  0  0  0
 23 55  1  0  0  0  0
 24 58  1  0  0  0  0
 24 59  1  0  0  0  0
 24 60  1  0  0  0  0
 25 61  1  0  0  0  0
 25 62  1  0  0  0  0
 25 63  1  0  0  0  0
 26 31  1  0  0  0  0
 26 32  1  0  0  0  0
 26 64  1  0  0  0  0
 27 28  1  0  0  0  0
 28 30  1  0  0  0  0
 28 65  1  0  0  0  0
 30 33  1  0  0  0  0
 30 34  1  0  0  0  0
 30 66  1  0  0  0  0
 31 35  1  0  0  0  0
 31 67  1  0  0  0  0
 31 68  1  0  0  0  0
 32 70  1  0  0  0  0
 33 71  1  0  0  0  0
 33 72  1  0  0  0  0
 33 73  1  0  0  0  0
 34 74  1  0  0  0  0
 34 75  1  0  0  0  0
 34 76  1  0  0  0  0
 35 78  1  0  0  0  0
 35 79  1  0  0  0  0
 35 80  1  0  0  0  0
 36 38  1  0  0  0  0
 37 39  2  0  0  0  0
 37 40  1  0  0  0  0
 38 43  1  0  0  0  0
 39 41  1  0  0  0  0
 39 81  1  0  0  0  0
 40 42  2  0  0  0  0
 40 82  1  0  0  0  0
 41 44  2  0  0  0  0
 42 44  1  0  0  0  0
 42 83  1  0  0  0  0
 43 84  1  0  0  0  0
 44 85  1  0  0  0  0
 45 46  2  0  0  0  0
 45 86  1  0  0  0  0
 46 87  1  0  0  0  0
 47 88  1  0  0  0  0
 47 89  1  0  0  0  0
 47 90  1  0  0  0  0
M  END
> <PUBCHEM_COMPOUND_CID>
506668
> <PUBCHEM_COMPOUND_CANONICALIZED>
1
> <PUBCHEM_CACTVS_COMPLEXITY>
1110
> <PUBCHEM_CACTVS_HBOND_ACCEPTOR>
10
> <PUBCHEM_CACTVS_HBOND_DONOR>
4
> <PUBCHEM_CACTVS_ROTATABLE_BOND>
15
> <PUBCHEM_CACTVS_SUBSKEYS>
AAADcfB/vAAAAAAAAAAAAAAAAAAAAWAAAAA8QAAAAAAAAAABwAAAHgAQAAAADTzhlgY+zpPIFACoAT133ACCiCQ3MiAI2IG+fMkOZnrE8budMKhm1hnY6Me6UQMIAAAAAgAAAAAAAAAEAAAAAAAAAAAAAA==
> <PUBCHEM_IUPAC_OPENEYE_NAME>
[(3R,5S)-5-[[(1S)-1-formylpropyl]carbamoyl]-1-[(2S)-3-methyl-2-[[(2S)-3-methyl-2-(pyrazine-2-carbonylamino)butanoyl]amino]butanoyl]pyrrolidin-3-yl] N-(3-methoxyphenyl)carbamate
> <PUBCHEM_IUPAC_CAS_NAME>
N-(3-methoxyphenyl)carbamic acid [(3R,5S)-1-[(2S)-3-methyl-2-[[(2S)-3-methyl-1-oxo-2-[[oxo(2-pyrazinyl)methyl]amino]butyl]amino]-1-oxobutyl]-5-[oxo-[[(2S)-1-oxobutan-2-yl]amino]methyl]-3-pyrrolidinyl] ester
> <PUBCHEM_IUPAC_NAME_MARKUP>
[(3<I>R</I>,5<I>S</I>)-1-[(2<I>S</I>)-3-methyl-2-[[(2<I>S</I>)-3-methyl-2-(pyrazine-2-carbonylamino)butanoyl]amino]butanoyl]-5-[[(2<I>S</I>)-1-oxobutan-2-yl]carbamoyl]pyrrolidin-3-yl] <I>N</I>-(3-methoxyphenyl)carbamate
> <PUBCHEM_IUPAC_NAME>
[(3R,5S)-1-[(2S)-3-methyl-2-[[(2S)-3-methyl-2-(pyrazine-2-carbonylamino)butanoyl]amino]butanoyl]-5-[[(2S)-1-oxobutan-2-yl]carbamoyl]pyrrolidin-3-yl] N-(3-methoxyphenyl)carbamate
> <PUBCHEM_IUPAC_SYSTEMATIC_NAME>
[(3R,5S)-1-[(2S)-3-methyl-2-[[(2S)-3-methyl-2-(pyrazin-2-ylcarbonylamino)butanoyl]amino]butanoyl]-5-[[(2S)-1-oxidanylidenebutan-2-yl]carbamoyl]pyrrolidin-3-yl] N-(3-methoxyphenyl)carbamate
> <PUBCHEM_IUPAC_TRADITIONAL_NAME>
N-(3-methoxyphenyl)carbamic acid [(3R,5S)-5-[[(1S)-1-formylpropyl]carbamoyl]-1-[(2S)-3-methyl-2-[[(2S)-3-methyl-2-(pyrazinoylamino)butanoyl]amino]butanoyl]pyrrolidin-3-yl] ester
> <PUBCHEM_IUPAC_INCHI>
InChI=1S/C32H43N7O8/c1-7-20(17-40)35-29(42)25-14-23(47-32(45)36-21-9-8-10-22(13-21)46-6)16-39(25)31(44)27(19(4)5)38-30(43)26(18(2)3)37-28(41)24-15-33-11-12-34-24/h8-13,15,17-20,23,25-27H,7,14,16H2,1-6H3,(H,35,42)(H,36,45)(H,37,41)(H,38,43)/t20-,23+,25-,26-,27-/m0/s1
> <PUBCHEM_IUPAC_INCHIKEY>
BUXKEYLFYPDIPC-DCZAUWNBSA-N
> <PUBCHEM_XLOGP3_AA>
2.3
> <PUBCHEM_EXACT_MASS>
653.31731136
> <PUBCHEM_MOLECULAR_FORMULA>
C32H43N7O8
> <PUBCHEM_MOLECULAR_WEIGHT>
653.7
> <PUBCHEM_OPENEYE_CAN_SMILES>
CCC(C=O)NC(=O)C1CC(CN1C(=O)C(C(C)C)NC(=O)C(C(C)C)NC(=O)C2=NC=CN=C2)OC(=O)NC3=CC(=CC=C3)OC
> <PUBCHEM_OPENEYE_ISO_SMILES>
CC[C@@H](C=O)NC(=O)[C@@H]1C[C@H](CN1C(=O)[C@H](C(C)C)NC(=O)[C@H](C(C)C)NC(=O)C2=NC=CN=C2)OC(=O)NC3=CC(=CC=C3)OC
> <PUBCHEM_CACTVS_TPSA>
198
> <PUBCHEM_MONOISOTOPIC_WEIGHT>
653.31731136
> <PUBCHEM_TOTAL_CHARGE>
0
> <PUBCHEM_HEAVY_ATOM_COUNT>
47
> <PUBCHEM_ATOM_DEF_STEREO_COUNT>
5
> <PUBCHEM_ATOM_UDEF_STEREO_COUNT>
0
> <PUBCHEM_BOND_DEF_STEREO_COUNT>
0
> <PUBCHEM_BOND_UDEF_STEREO_COUNT>
0
> <PUBCHEM_ISOTOPIC_ATOM_COUNT>
0
> <PUBCHEM_COMPONENT_COUNT>
1
> <PUBCHEM_CACTVS_TAUTO_COUNT>
-1
> <PUBCHEM_COORDINATE_TYPE>
1
5
255
> <PUBCHEM_BONDANNOTATIONS>
18  1  5
21  10  6
26  11  5
28  12  5
14  38  8
14  45  8
15  43  8
15  46  8
16  22  6
37  39  8
37  40  8
38  43  8
39  41  8
40  42  8
41  44  8
42  44  8
45  46  8
$$$$
