506664
  -OEChem-10302200282D
 87 89  0     1  0  0  0  0  0999 V2000
    5.4641   -2.6576    0.0000 O   0  0  0  0  0  0  0  0  0  0  0  0
    8.8141    0.0629    0.0000 O   0  0  0  0  0  0  0  0  0  0  0  0
    9.4951   -1.1167    0.0000 O   0  0  0  0  0  0  0  0  0  0  0  0
    6.0562    2.3854    0.0000 O   0  0  0  0  0  0  0  0  0  0  0  0
    6.3301   -4.1576    0.0000 O   0  0  0  0  0  0  0  0  0  0  0  0
   11.7098   -3.9619    0.0000 O   0  0  0  0  0  0  0  0  0  0  0  0
    8.2709    5.2306    0.0000 O   0  0  0  0  0  0  0  0  0  0  0  0
    7.4128   -0.9552    0.0000 N   0  0  0  0  0  0  0  0  0  0  0  0
    7.6385    1.6809    0.0000 N   0  0  0  0  0  0  0  0  0  0  0  0
    9.3141   -2.8393    0.0000 N   0  0  0  0  0  0  0  0  0  0  0  0
    6.8697    4.2125    0.0000 N   0  0  0  0  0  0  0  0  0  0  0  0
    4.5981   -4.1576    0.0000 N   0  0  0  0  0  0  0  0  0  0  0  0
    7.0954    6.8486    0.0000 N   0  0  0  0  0  0  0  0  0  0  0  0
    5.1063    6.6396    0.0000 N   0  0  0  0  0  0  0  0  0  0  0  0
    2.0000   -7.6576    0.0000 N   0  0  0  0  0  0  0  0  0  0  0  0
    7.9128   -1.8212    0.0000 C   0  0  1  0  0  0  0  0  0  0  0  0
    7.2437   -2.5644    0.0000 C   0  0  0  0  0  0  0  0  0  0  0  0
    6.3301   -2.1576    0.0000 C   0  0  2  0  0  0  0  0  0  0  0  0
    6.4347   -1.1631    0.0000 C   0  0  0  0  0  0  0  0  0  0  0  0
    7.8195   -0.0416    0.0000 C   0  0  0  0  0  0  0  0  0  0  0  0
    7.2318    0.7674    0.0000 C   0  0  2  0  0  0  0  0  0  0  0  0
    8.9073   -1.9257    0.0000 C   0  0  0  0  0  0  0  0  0  0  0  0
    6.2372    0.6628    0.0000 C   0  0  0  0  0  0  0  0  0  0  0  0
    5.6494    1.4719    0.0000 C   0  0  0  0  0  0  0  0  0  0  0  0
    5.8305   -0.2507    0.0000 C   0  0  0  0  0  0  0  0  0  0  0  0
   10.3086   -2.9438    0.0000 C   0  0  1  0  0  0  0  0  0  0  0  0
    7.0507    2.4899    0.0000 C   0  0  0  0  0  0  0  0  0  0  0  0
    7.4574    3.4035    0.0000 C   0  0  2  0  0  0  0  0  0  0  0  0
    5.4641   -3.6576    0.0000 C   0  0  0  0  0  0  0  0  0  0  0  0
    8.4520    3.5080    0.0000 C   0  0  0  0  0  0  0  0  0  0  0  0
   10.8964   -2.1348    0.0000 C   0  0  0  0  0  0  0  0  0  0  0  0
   10.7153   -3.8574    0.0000 C   0  0  0  0  0  0  0  0  0  0  0  0
    8.8587    4.4216    0.0000 C   0  0  0  0  0  0  0  0  0  0  0  0
    9.0398    2.6990    0.0000 C   0  0  0  0  0  0  0  0  0  0  0  0
   11.8909   -2.2393    0.0000 C   0  0  0  0  0  0  0  0  0  0  0  0
    7.2764    5.1260    0.0000 C   0  0  0  0  0  0  0  0  0  0  0  0
    4.5981   -5.1576    0.0000 C   0  0  0  0  0  0  0  0  0  0  0  0
    6.6886    5.9351    0.0000 C   0  0  0  0  0  0  0  0  0  0  0  0
    3.7320   -5.6576    0.0000 C   0  0  0  0  0  0  0  0  0  0  0  0
    5.4641   -5.6576    0.0000 C   0  0  0  0  0  0  0  0  0  0  0  0
    3.7320   -6.6576    0.0000 C   0  0  0  0  0  0  0  0  0  0  0  0
    5.4641   -6.6576    0.0000 C   0  0  0  0  0  0  0  0  0  0  0  0
    5.6941    5.8305    0.0000 C   0  0  0  0  0  0  0  0  0  0  0  0
    4.5981   -7.1576    0.0000 C   0  0  0  0  0  0  0  0  0  0  0  0
    6.5076    7.6576    0.0000 C   0  0  0  0  0  0  0  0  0  0  0  0
    2.8660   -7.1576    0.0000 C   0  0  0  0  0  0  0  0  0  0  0  0
    5.5130    7.5531    0.0000 C   0  0  0  0  0  0  0  0  0  0  0  0
    8.2505   -1.3012    0.0000 H   0  0  0  0  0  0  0  0  0  0  0  0
    6.9337   -3.1013    0.0000 H   0  0  0  0  0  0  0  0  0  0  0  0
    7.7453   -2.9288    0.0000 H   0  0  0  0  0  0  0  0  0  0  0  0
    5.8102   -1.8200    0.0000 H   0  0  0  0  0  0  0  0  0  0  0  0
    6.3698   -0.5465    0.0000 H   0  0  0  0  0  0  0  0  0  0  0  0
    5.8147   -1.1631    0.0000 H   0  0  0  0  0  0  0  0  0  0  0  0
    6.8673    1.2690    0.0000 H   0  0  0  0  0  0  0  0  0  0  0  0
    6.6017    0.1613    0.0000 H   0  0  0  0  0  0  0  0  0  0  0  0
    8.2551    1.7457    0.0000 H   0  0  0  0  0  0  0  0  0  0  0  0
    8.9496   -3.3409    0.0000 H   0  0  0  0  0  0  0  0  0  0  0  0
    6.1510    1.8363    0.0000 H   0  0  0  0  0  0  0  0  0  0  0  0
    5.2850    1.9734    0.0000 H   0  0  0  0  0  0  0  0  0  0  0  0
    5.1479    1.1074    0.0000 H   0  0  0  0  0  0  0  0  0  0  0  0
    5.2641    0.0015    0.0000 H   0  0  0  0  0  0  0  0  0  0  0  0
    5.5783   -0.8171    0.0000 H   0  0  0  0  0  0  0  0  0  0  0  0
    6.3969   -0.5029    0.0000 H   0  0  0  0  0  0  0  0  0  0  0  0
    9.9442   -3.4454    0.0000 H   0  0  0  0  0  0  0  0  0  0  0  0
    6.8408    3.3387    0.0000 H   0  0  0  0  0  0  0  0  0  0  0  0
    8.1998    2.9416    0.0000 H   0  0  0  0  0  0  0  0  0  0  0  0
   11.0673   -1.5388    0.0000 H   0  0  0  0  0  0  0  0  0  0  0  0
   10.3391   -1.8630    0.0000 H   0  0  0  0  0  0  0  0  0  0  0  0
    6.2530    4.1477    0.0000 H   0  0  0  0  0  0  0  0  0  0  0  0
   10.3509   -4.3590    0.0000 H   0  0  0  0  0  0  0  0  0  0  0  0
    9.4251    4.1694    0.0000 H   0  0  0  0  0  0  0  0  0  0  0  0
    9.1109    4.9880    0.0000 H   0  0  0  0  0  0  0  0  0  0  0  0
    8.2923    4.6737    0.0000 H   0  0  0  0  0  0  0  0  0  0  0  0
    8.5382    2.3346    0.0000 H   0  0  0  0  0  0  0  0  0  0  0  0
    9.4042    2.1974    0.0000 H   0  0  0  0  0  0  0  0  0  0  0  0
    9.5413    3.0634    0.0000 H   0  0  0  0  0  0  0  0  0  0  0  0
    4.0611   -3.8476    0.0000 H   0  0  0  0  0  0  0  0  0  0  0  0
   11.8261   -2.8559    0.0000 H   0  0  0  0  0  0  0  0  0  0  0  0
   12.5075   -2.3041    0.0000 H   0  0  0  0  0  0  0  0  0  0  0  0
   11.9557   -1.6227    0.0000 H   0  0  0  0  0  0  0  0  0  0  0  0
    3.1951   -5.3476    0.0000 H   0  0  0  0  0  0  0  0  0  0  0  0
    6.0010   -5.3476    0.0000 H   0  0  0  0  0  0  0  0  0  0  0  0
    6.0010   -6.9676    0.0000 H   0  0  0  0  0  0  0  0  0  0  0  0
    5.4419    5.2641    0.0000 H   0  0  0  0  0  0  0  0  0  0  0  0
    4.5981   -7.7776    0.0000 H   0  0  0  0  0  0  0  0  0  0  0  0
    6.7597    8.2240    0.0000 H   0  0  0  0  0  0  0  0  0  0  0  0
    5.1486    8.0547    0.0000 H   0  0  0  0  0  0  0  0  0  0  0  0
 18  1  1  1  0  0  0
  1 29  1  0  0  0  0
  2 20  2  0  0  0  0
  3 22  2  0  0  0  0
  4 27  2  0  0  0  0
  5 29  2  0  0  0  0
  6 32  2  0  0  0  0
  7 36  2  0  0  0  0
  8 16  1  0  0  0  0
  8 19  1  0  0  0  0
  8 20  1  0  0  0  0
 21  9  1  6  0  0  0
  9 27  1  0  0  0  0
  9 56  1  0  0  0  0
 10 22  1  0  0  0  0
 26 10  1  1  0  0  0
 10 57  1  0  0  0  0
 28 11  1  1  0  0  0
 11 36  1  0  0  0  0
 11 69  1  0  0  0  0
 12 29  1  0  0  0  0
 12 37  1  0  0  0  0
 12 77  1  0  0  0  0
 13 38  2  0  0  0  0
 13 45  1  0  0  0  0
 14 43  2  0  0  0  0
 14 47  1  0  0  0  0
 15 46  3  0  0  0  0
 16 17  1  0  0  0  0
 16 22  1  6  0  0  0
 16 48  1  0  0  0  0
 17 18  1  0  0  0  0
 17 49  1  0  0  0  0
 17 50  1  0  0  0  0
 18 19  1  0  0  0  0
 18 51  1  0  0  0  0
 19 52  1  0  0  0  0
 19 53  1  0  0  0  0
 20 21  1  0  0  0  0
 21 23  1  0  0  0  0
 21 54  1  0  0  0  0
 23 24  1  0  0  0  0
 23 25  1  0  0  0  0
 23 55  1  0  0  0  0
 24 58  1  0  0  0  0
 24 59  1  0  0  0  0
 24 60  1  0  0  0  0
 25 61  1  0  0  0  0
 25 62  1  0  0  0  0
 25 63  1  0  0  0  0
 26 31  1  0  0  0  0
 26 32  1  0  0  0  0
 26 64  1  0  0  0  0
 27 28  1  0  0  0  0
 28 30  1  0  0  0  0
 28 65  1  0  0  0  0
 30 33  1  0  0  0  0
 30 34  1  0  0  0  0
 30 66  1  0  0  0  0
 31 35  1  0  0  0  0
 31 67  1  0  0  0  0
 31 68  1  0  0  0  0
 32 70  1  0  0  0  0
 33 71  1  0  0  0  0
 33 72  1  0  0  0  0
 33 73  1  0  0  0  0
 34 74  1  0  0  0  0
 34 75  1  0  0  0  0
 34 76  1  0  0  0  0
 35 78  1  0  0  0  0
 35 79  1  0  0  0  0
 35 80  1  0  0  0  0
 36 38  1  0  0  0  0
 37 39  1  0  0  0  0
 37 40  2  0  0  0  0
 38 43  1  0  0  0  0
 39 41  2  0  0  0  0
 39 81  1  0  0  0  0
 40 42  1  0  0  0  0
 40 82  1  0  0  0  0
 41 44  1  0  0  0  0
 41 46  1  0  0  0  0
 42 44  2  0  0  0  0
 42 83  1  0  0  0  0
 43 84  1  0  0  0  0
 44 85  1  0  0  0  0
 45 47  2  0  0  0  0
 45 86  1  0  0  0  0
 47 87  1  0  0  0  0
M  END
> <PUBCHEM_COMPOUND_CID>
506664
> <PUBCHEM_COMPOUND_CANONICALIZED>
1
> <PUBCHEM_CACTVS_COMPLEXITY>
1190
> <PUBCHEM_CACTVS_HBOND_ACCEPTOR>
10
> <PUBCHEM_CACTVS_HBOND_DONOR>
4
> <PUBCHEM_CACTVS_ROTATABLE_BOND>
14
> <PUBCHEM_CACTVS_SUBSKEYS>
AAADcfB/+AAAAAAAAAAAAAAAAAAAAWAAAAA8QAAAAAAAAAABwAAAHgAQAAAADTzhngY+yJPIFAC4Bz133ACigCQ3EiAI2IG4dMkK4HrA0bGdIIhmlgDYyM86gQAOAAAAQAAAAAAAAACAAAAAAAAAAAAAAA==
> <PUBCHEM_IUPAC_OPENEYE_NAME>
[(3R,5S)-5-[[(1S)-1-formylpropyl]carbamoyl]-1-[(2S)-3-methyl-2-[[(2S)-3-methyl-2-(pyrazine-2-carbonylamino)butanoyl]amino]butanoyl]pyrrolidin-3-yl] N-(3-cyanophenyl)carbamate
> <PUBCHEM_IUPAC_CAS_NAME>
N-(3-cyanophenyl)carbamic acid [(3R,5S)-1-[(2S)-3-methyl-2-[[(2S)-3-methyl-1-oxo-2-[[oxo(2-pyrazinyl)methyl]amino]butyl]amino]-1-oxobutyl]-5-[oxo-[[(2S)-1-oxobutan-2-yl]amino]methyl]-3-pyrrolidinyl] ester
> <PUBCHEM_IUPAC_NAME_MARKUP>
[(3<I>R</I>,5<I>S</I>)-1-[(2<I>S</I>)-3-methyl-2-[[(2<I>S</I>)-3-methyl-2-(pyrazine-2-carbonylamino)butanoyl]amino]butanoyl]-5-[[(2<I>S</I>)-1-oxobutan-2-yl]carbamoyl]pyrrolidin-3-yl] <I>N</I>-(3-cyanophenyl)carbamate
> <PUBCHEM_IUPAC_NAME>
[(3R,5S)-1-[(2S)-3-methyl-2-[[(2S)-3-methyl-2-(pyrazine-2-carbonylamino)butanoyl]amino]butanoyl]-5-[[(2S)-1-oxobutan-2-yl]carbamoyl]pyrrolidin-3-yl] N-(3-cyanophenyl)carbamate
> <PUBCHEM_IUPAC_SYSTEMATIC_NAME>
[(3R,5S)-1-[(2S)-3-methyl-2-[[(2S)-3-methyl-2-(pyrazin-2-ylcarbonylamino)butanoyl]amino]butanoyl]-5-[[(2S)-1-oxidanylidenebutan-2-yl]carbamoyl]pyrrolidin-3-yl] N-(3-cyanophenyl)carbamate
> <PUBCHEM_IUPAC_TRADITIONAL_NAME>
N-(3-cyanophenyl)carbamic acid [(3R,5S)-5-[[(1S)-1-formylpropyl]carbamoyl]-1-[(2S)-3-methyl-2-[[(2S)-3-methyl-2-(pyrazinoylamino)butanoyl]amino]butanoyl]pyrrolidin-3-yl] ester
> <PUBCHEM_IUPAC_INCHI>
InChI=1S/C32H40N8O7/c1-6-21(17-41)36-29(43)25-13-23(47-32(46)37-22-9-7-8-20(12-22)14-33)16-40(25)31(45)27(19(4)5)39-30(44)26(18(2)3)38-28(42)24-15-34-10-11-35-24/h7-12,15,17-19,21,23,25-27H,6,13,16H2,1-5H3,(H,36,43)(H,37,46)(H,38,42)(H,39,44)/t21-,23+,25-,26-,27-/m0/s1
> <PUBCHEM_IUPAC_INCHIKEY>
NOBKPCFBXXUZJG-ZOWQFLOBSA-N
> <PUBCHEM_XLOGP3_AA>
2
> <PUBCHEM_EXACT_MASS>
648.30199564
> <PUBCHEM_MOLECULAR_FORMULA>
C32H40N8O7
> <PUBCHEM_MOLECULAR_WEIGHT>
648.7
> <PUBCHEM_OPENEYE_CAN_SMILES>
CCC(C=O)NC(=O)C1CC(CN1C(=O)C(C(C)C)NC(=O)C(C(C)C)NC(=O)C2=NC=CN=C2)OC(=O)NC3=CC=CC(=C3)C#N
> <PUBCHEM_OPENEYE_ISO_SMILES>
CC[C@@H](C=O)NC(=O)[C@@H]1C[C@H](CN1C(=O)[C@H](C(C)C)NC(=O)[C@H](C(C)C)NC(=O)C2=NC=CN=C2)OC(=O)NC3=CC=CC(=C3)C#N
> <PUBCHEM_CACTVS_TPSA>
213
> <PUBCHEM_MONOISOTOPIC_WEIGHT>
648.30199564
> <PUBCHEM_TOTAL_CHARGE>
0
> <PUBCHEM_HEAVY_ATOM_COUNT>
47
> <PUBCHEM_ATOM_DEF_STEREO_COUNT>
5
> <PUBCHEM_ATOM_UDEF_STEREO_COUNT>
0
> <PUBCHEM_BOND_DEF_STEREO_COUNT>
0
> <PUBCHEM_BOND_UDEF_STEREO_COUNT>
0
> <PUBCHEM_ISOTOPIC_ATOM_COUNT>
0
> <PUBCHEM_COMPONENT_COUNT>
1
> <PUBCHEM_CACTVS_TAUTO_COUNT>
-1
> <PUBCHEM_COORDINATE_TYPE>
1
5
255
> <PUBCHEM_BONDANNOTATIONS>
18  1  5
26  10  5
28  11  5
13  38  8
13  45  8
14  43  8
14  47  8
16  22  6
37  39  8
37  40  8
38  43  8
39  41  8
40  42  8
41  44  8
42  44  8
45  47  8
21  9  6
$$$$
