506655
  -OEChem-10302200282D
 83 84  0     1  0  0  0  0  0999 V2000
    4.3958    2.3041    0.0000 O   0  0  0  0  0  0  0  0  0  0  0  0
    6.7512   -1.3119    0.0000 O   0  0  0  0  0  0  0  0  0  0  0  0
    5.5069   -1.8659    0.0000 O   0  0  0  0  0  0  0  0  0  0  0  0
    2.8135    1.5996    0.0000 O   0  0  0  0  0  0  0  0  0  0  0  0
    9.3493    1.1881    0.0000 O   0  0  0  0  0  0  0  0  0  0  0  0
    2.4458   -3.7711    0.0000 O   0  0  0  0  0  0  0  0  0  0  0  0
   11.9474   -1.3119    0.0000 O   0  0  0  0  0  0  0  0  0  0  0  0
    5.8852    0.1881    0.0000 N   0  0  0  0  0  0  0  0  0  0  0  0
    8.4833   -0.3119    0.0000 N   0  0  0  0  0  0  0  0  0  0  0  0
    3.8127   -1.5058    0.0000 N   0  0  0  0  0  0  0  0  0  0  0  0
   11.0813    0.1881    0.0000 N   0  0  0  0  0  0  0  0  0  0  0  0
   13.6794   -0.3119    0.0000 N   0  0  0  0  0  0  0  0  0  0  0  0
   13.6794    1.6881    0.0000 N   0  0  0  0  0  0  0  0  0  0  0  0
    4.9716   -0.2186    0.0000 C   0  0  1  0  0  0  0  0  0  0  0  0
    4.8025    1.3906    0.0000 C   0  0  2  0  0  0  0  0  0  0  0  0
    4.3025    0.5245    0.0000 C   0  0  0  0  0  0  0  0  0  0  0  0
    5.7807    1.1826    0.0000 C   0  0  0  0  0  0  0  0  0  0  0  0
    6.7512   -0.3119    0.0000 C   0  0  0  0  0  0  0  0  0  0  0  0
    7.6172    0.1881    0.0000 C   0  0  2  0  0  0  0  0  0  0  0  0
    4.7637   -1.1968    0.0000 C   0  0  0  0  0  0  0  0  0  0  0  0
    7.6172    1.1881    0.0000 C   0  0  0  0  0  0  0  0  0  0  0  0
    8.4833    1.6881    0.0000 C   0  0  0  0  0  0  0  0  0  0  0  0
    6.7512    1.6881    0.0000 C   0  0  0  0  0  0  0  0  0  0  0  0
    3.6048   -2.4839    0.0000 C   0  0  1  0  0  0  0  0  0  0  0  0
    3.4013    2.4086    0.0000 C   0  0  0  0  0  0  0  0  0  0  0  0
    9.3493    0.1881    0.0000 C   0  0  0  0  0  0  0  0  0  0  0  0
   10.2153   -0.3119    0.0000 C   0  0  2  0  0  0  0  0  0  0  0  0
   10.2153   -1.3119    0.0000 C   0  0  0  0  0  0  0  0  0  0  0  0
    2.9945    3.3222    0.0000 C   0  0  0  0  0  0  0  0  0  0  0  0
    4.3479   -3.1530    0.0000 C   0  0  0  0  0  0  0  0  0  0  0  0
    2.6537   -2.7929    0.0000 C   0  0  0  0  0  0  0  0  0  0  0  0
    9.3493   -1.8119    0.0000 C   0  0  0  0  0  0  0  0  0  0  0  0
   11.0813   -1.8119    0.0000 C   0  0  0  0  0  0  0  0  0  0  0  0
    2.0000    3.4267    0.0000 C   0  0  0  0  0  0  0  0  0  0  0  0
    3.5823    4.1312    0.0000 C   0  0  0  0  0  0  0  0  0  0  0  0
    4.1400   -4.1312    0.0000 C   0  0  0  0  0  0  0  0  0  0  0  0
   11.9474   -0.3119    0.0000 C   0  0  0  0  0  0  0  0  0  0  0  0
   12.8134    0.1881    0.0000 C   0  0  0  0  0  0  0  0  0  0  0  0
   12.8134    1.1881    0.0000 C   0  0  0  0  0  0  0  0  0  0  0  0
   14.5454    0.1881    0.0000 C   0  0  0  0  0  0  0  0  0  0  0  0
   14.5454    1.1881    0.0000 C   0  0  0  0  0  0  0  0  0  0  0  0
    5.4535   -0.6088    0.0000 H   0  0  0  0  0  0  0  0  0  0  0  0
    4.1834    1.4230    0.0000 H   0  0  0  0  0  0  0  0  0  0  0  0
    3.8009    0.8890    0.0000 H   0  0  0  0  0  0  0  0  0  0  0  0
    3.8877    0.0638    0.0000 H   0  0  0  0  0  0  0  0  0  0  0  0
    6.4007    1.1826    0.0000 H   0  0  0  0  0  0  0  0  0  0  0  0
    5.8455    1.7992    0.0000 H   0  0  0  0  0  0  0  0  0  0  0  0
    7.6172   -0.4319    0.0000 H   0  0  0  0  0  0  0  0  0  0  0  0
    7.6172    1.8081    0.0000 H   0  0  0  0  0  0  0  0  0  0  0  0
    8.4833   -0.9319    0.0000 H   0  0  0  0  0  0  0  0  0  0  0  0
    3.3519   -1.0909    0.0000 H   0  0  0  0  0  0  0  0  0  0  0  0
    8.7933    1.1512    0.0000 H   0  0  0  0  0  0  0  0  0  0  0  0
    9.0202    1.9981    0.0000 H   0  0  0  0  0  0  0  0  0  0  0  0
    8.1733    2.2251    0.0000 H   0  0  0  0  0  0  0  0  0  0  0  0
    7.0612    2.2251    0.0000 H   0  0  0  0  0  0  0  0  0  0  0  0
    6.2143    1.9981    0.0000 H   0  0  0  0  0  0  0  0  0  0  0  0
    6.4412    1.1512    0.0000 H   0  0  0  0  0  0  0  0  0  0  0  0
    3.1440   -2.0691    0.0000 H   0  0  0  0  0  0  0  0  0  0  0  0
   10.2153    0.3081    0.0000 H   0  0  0  0  0  0  0  0  0  0  0  0
   10.7523   -1.0019    0.0000 H   0  0  0  0  0  0  0  0  0  0  0  0
    2.7424    3.8886    0.0000 H   0  0  0  0  0  0  0  0  0  0  0  0
    4.9228   -3.3853    0.0000 H   0  0  0  0  0  0  0  0  0  0  0  0
    4.6765   -2.6273    0.0000 H   0  0  0  0  0  0  0  0  0  0  0  0
   11.0813    0.8081    0.0000 H   0  0  0  0  0  0  0  0  0  0  0  0
    9.0393   -1.2749    0.0000 H   0  0  0  0  0  0  0  0  0  0  0  0
    8.8124   -2.1219    0.0000 H   0  0  0  0  0  0  0  0  0  0  0  0
    9.6593   -2.3488    0.0000 H   0  0  0  0  0  0  0  0  0  0  0  0
   10.7713   -2.3488    0.0000 H   0  0  0  0  0  0  0  0  0  0  0  0
   11.6183   -2.1219    0.0000 H   0  0  0  0  0  0  0  0  0  0  0  0
   11.3913   -1.2749    0.0000 H   0  0  0  0  0  0  0  0  0  0  0  0
    2.1930   -2.3781    0.0000 H   0  0  0  0  0  0  0  0  0  0  0  0
    2.0648    4.0433    0.0000 H   0  0  0  0  0  0  0  0  0  0  0  0
    1.3834    3.4915    0.0000 H   0  0  0  0  0  0  0  0  0  0  0  0
    1.9352    2.8101    0.0000 H   0  0  0  0  0  0  0  0  0  0  0  0
    4.0839    3.7668    0.0000 H   0  0  0  0  0  0  0  0  0  0  0  0
    3.9467    4.6328    0.0000 H   0  0  0  0  0  0  0  0  0  0  0  0
    3.0807    4.4956    0.0000 H   0  0  0  0  0  0  0  0  0  0  0  0
    3.5336   -4.0023    0.0000 H   0  0  0  0  0  0  0  0  0  0  0  0
    4.0111   -4.7376    0.0000 H   0  0  0  0  0  0  0  0  0  0  0  0
    4.7464   -4.2601    0.0000 H   0  0  0  0  0  0  0  0  0  0  0  0
   12.2765    1.4981    0.0000 H   0  0  0  0  0  0  0  0  0  0  0  0
   15.0824   -0.1219    0.0000 H   0  0  0  0  0  0  0  0  0  0  0  0
   15.0824    1.4981    0.0000 H   0  0  0  0  0  0  0  0  0  0  0  0
 15  1  1  1  0  0  0
  1 25  1  0  0  0  0
  2 18  2  0  0  0  0
  3 20  2  0  0  0  0
  4 25  2  0  0  0  0
  5 26  2  0  0  0  0
  6 31  2  0  0  0  0
  7 37  2  0  0  0  0
  8 14  1  0  0  0  0
  8 17  1  0  0  0  0
  8 18  1  0  0  0  0
 19  9  1  6  0  0  0
  9 26  1  0  0  0  0
  9 50  1  0  0  0  0
 10 20  1  0  0  0  0
 24 10  1  1  0  0  0
 10 51  1  0  0  0  0
 27 11  1  1  0  0  0
 11 37  1  0  0  0  0
 11 64  1  0  0  0  0
 12 38  2  0  0  0  0
 12 40  1  0  0  0  0
 13 39  2  0  0  0  0
 13 41  1  0  0  0  0
 14 16  1  0  0  0  0
 14 20  1  6  0  0  0
 14 42  1  0  0  0  0
 15 16  1  0  0  0  0
 15 17  1  0  0  0  0
 15 43  1  0  0  0  0
 16 44  1  0  0  0  0
 16 45  1  0  0  0  0
 17 46  1  0  0  0  0
 17 47  1  0  0  0  0
 18 19  1  0  0  0  0
 19 21  1  0  0  0  0
 19 48  1  0  0  0  0
 21 22  1  0  0  0  0
 21 23  1  0  0  0  0
 21 49  1  0  0  0  0
 22 52  1  0  0  0  0
 22 53  1  0  0  0  0
 22 54  1  0  0  0  0
 23 55  1  0  0  0  0
 23 56  1  0  0  0  0
 23 57  1  0  0  0  0
 24 30  1  0  0  0  0
 24 31  1  0  0  0  0
 24 58  1  0  0  0  0
 25 29  1  0  0  0  0
 26 27  1  0  0  0  0
 27 28  1  0  0  0  0
 27 59  1  0  0  0  0
 28 32  1  0  0  0  0
 28 33  1  0  0  0  0
 28 60  1  0  0  0  0
 29 34  1  0  0  0  0
 29 35  1  0  0  0  0
 29 61  1  0  0  0  0
 30 36  1  0  0  0  0
 30 62  1  0  0  0  0
 30 63  1  0  0  0  0
 31 71  1  0  0  0  0
 32 65  1  0  0  0  0
 32 66  1  0  0  0  0
 32 67  1  0  0  0  0
 33 68  1  0  0  0  0
 33 69  1  0  0  0  0
 33 70  1  0  0  0  0
 34 72  1  0  0  0  0
 34 73  1  0  0  0  0
 34 74  1  0  0  0  0
 35 75  1  0  0  0  0
 35 76  1  0  0  0  0
 35 77  1  0  0  0  0
 36 78  1  0  0  0  0
 36 79  1  0  0  0  0
 36 80  1  0  0  0  0
 37 38  1  0  0  0  0
 38 39  1  0  0  0  0
 39 81  1  0  0  0  0
 40 41  2  0  0  0  0
 40 82  1  0  0  0  0
 41 83  1  0  0  0  0
M  END
> <PUBCHEM_COMPOUND_CID>
506655
> <PUBCHEM_COMPOUND_CANONICALIZED>
1
> <PUBCHEM_CACTVS_COMPLEXITY>
956
> <PUBCHEM_CACTVS_HBOND_ACCEPTOR>
9
> <PUBCHEM_CACTVS_HBOND_DONOR>
3
> <PUBCHEM_CACTVS_ROTATABLE_BOND>
14
> <PUBCHEM_CACTVS_SUBSKEYS>
AAADcfB7uAAAAAAAAAAAAAAAAAAAAWAAAAAsAAAAAAAAAAABgAAAHgAQAAAADTzhlgYuiBPIFACoAR333ACAgCQXEiAIUIG4dEACQFpAwCAXAIgGFgDQAMA6AQAIAAAAAAAAAAAAAAAAAAAAAAAAAAAAAA==
> <PUBCHEM_IUPAC_OPENEYE_NAME>
[(3R,5S)-5-[[(1S)-1-formylpropyl]carbamoyl]-1-[(2S)-3-methyl-2-[[(2S)-3-methyl-2-(pyrazine-2-carbonylamino)butanoyl]amino]butanoyl]pyrrolidin-3-yl] 2-methylpropanoate
> <PUBCHEM_IUPAC_CAS_NAME>
2-methylpropanoic acid [(3R,5S)-1-[(2S)-3-methyl-2-[[(2S)-3-methyl-1-oxo-2-[[oxo(2-pyrazinyl)methyl]amino]butyl]amino]-1-oxobutyl]-5-[oxo-[[(2S)-1-oxobutan-2-yl]amino]methyl]-3-pyrrolidinyl] ester
> <PUBCHEM_IUPAC_NAME_MARKUP>
[(3<I>R</I>,5<I>S</I>)-1-[(2<I>S</I>)-3-methyl-2-[[(2<I>S</I>)-3-methyl-2-(pyrazine-2-carbonylamino)butanoyl]amino]butanoyl]-5-[[(2<I>S</I>)-1-oxobutan-2-yl]carbamoyl]pyrrolidin-3-yl] 2-methylpropanoate
> <PUBCHEM_IUPAC_NAME>
[(3R,5S)-1-[(2S)-3-methyl-2-[[(2S)-3-methyl-2-(pyrazine-2-carbonylamino)butanoyl]amino]butanoyl]-5-[[(2S)-1-oxobutan-2-yl]carbamoyl]pyrrolidin-3-yl] 2-methylpropanoate
> <PUBCHEM_IUPAC_SYSTEMATIC_NAME>
[(3R,5S)-1-[(2S)-3-methyl-2-[[(2S)-3-methyl-2-(pyrazin-2-ylcarbonylamino)butanoyl]amino]butanoyl]-5-[[(2S)-1-oxidanylidenebutan-2-yl]carbamoyl]pyrrolidin-3-yl] 2-methylpropanoate
> <PUBCHEM_IUPAC_TRADITIONAL_NAME>
2-methylpropionic acid [(3R,5S)-5-[[(1S)-1-formylpropyl]carbamoyl]-1-[(2S)-3-methyl-2-[[(2S)-3-methyl-2-(pyrazinoylamino)butanoyl]amino]butanoyl]pyrrolidin-3-yl] ester
> <PUBCHEM_IUPAC_INCHI>
InChI=1S/C28H42N6O7/c1-8-18(14-35)31-25(37)21-11-19(41-28(40)17(6)7)13-34(21)27(39)23(16(4)5)33-26(38)22(15(2)3)32-24(36)20-12-29-9-10-30-20/h9-10,12,14-19,21-23H,8,11,13H2,1-7H3,(H,31,37)(H,32,36)(H,33,38)/t18-,19+,21-,22-,23-/m0/s1
> <PUBCHEM_IUPAC_INCHIKEY>
VPQAPEAIQCCFIY-HUMDQVGNSA-N
> <PUBCHEM_XLOGP3_AA>
2
> <PUBCHEM_EXACT_MASS>
574.31149770
> <PUBCHEM_MOLECULAR_FORMULA>
C28H42N6O7
> <PUBCHEM_MOLECULAR_WEIGHT>
574.7
> <PUBCHEM_OPENEYE_CAN_SMILES>
CCC(C=O)NC(=O)C1CC(CN1C(=O)C(C(C)C)NC(=O)C(C(C)C)NC(=O)C2=NC=CN=C2)OC(=O)C(C)C
> <PUBCHEM_OPENEYE_ISO_SMILES>
CC[C@@H](C=O)NC(=O)[C@@H]1C[C@H](CN1C(=O)[C@H](C(C)C)NC(=O)[C@H](C(C)C)NC(=O)C2=NC=CN=C2)OC(=O)C(C)C
> <PUBCHEM_CACTVS_TPSA>
177
> <PUBCHEM_MONOISOTOPIC_WEIGHT>
574.31149770
> <PUBCHEM_TOTAL_CHARGE>
0
> <PUBCHEM_HEAVY_ATOM_COUNT>
41
> <PUBCHEM_ATOM_DEF_STEREO_COUNT>
5
> <PUBCHEM_ATOM_UDEF_STEREO_COUNT>
0
> <PUBCHEM_BOND_DEF_STEREO_COUNT>
0
> <PUBCHEM_BOND_UDEF_STEREO_COUNT>
0
> <PUBCHEM_ISOTOPIC_ATOM_COUNT>
0
> <PUBCHEM_COMPONENT_COUNT>
1
> <PUBCHEM_CACTVS_TAUTO_COUNT>
-1
> <PUBCHEM_COORDINATE_TYPE>
1
5
255
> <PUBCHEM_BONDANNOTATIONS>
15  1  5
24  10  5
27  11  5
12  38  8
12  40  8
13  39  8
13  41  8
14  20  6
38  39  8
40  41  8
19  9  6
$$$$
