506634
  -OEChem-10302200282D
 91 94  0     1  0  0  0  0  0999 V2000
    9.9522    4.9724    0.0000 F   0  0  0  0  0  0  0  0  0  0  0  0
   10.8183    1.4724    0.0000 O   0  0  0  0  0  0  0  0  0  0  0  0
   10.1372   -2.7890    0.0000 O   0  0  0  0  0  0  0  0  0  0  0  0
   11.4993   -2.7890    0.0000 O   0  0  0  0  0  0  0  0  0  0  0  0
    6.7469   -1.5619    0.0000 O   0  0  0  0  0  0  0  0  0  0  0  0
   13.4443    2.9377    0.0000 O   0  0  0  0  0  0  0  0  0  0  0  0
   14.3503    4.4932    0.0000 O   0  0  0  0  0  0  0  0  0  0  0  0
   15.0707   -3.2845    0.0000 O   0  0  0  0  0  0  0  0  0  0  0  0
    5.3903   -4.9025    0.0000 O   0  0  0  0  0  0  0  0  0  0  0  0
   10.3183   -1.0665    0.0000 N   0  0  0  0  0  0  0  0  0  0  0  0
    8.1482   -2.5800    0.0000 N   0  0  0  0  0  0  0  0  0  0  0  0
   12.9006   -1.7710    0.0000 N   0  0  0  0  0  0  0  0  0  0  0  0
    5.5714   -3.1799    0.0000 N   0  0  0  0  0  0  0  0  0  0  0  0
    3.5823   -2.9709    0.0000 N   0  0  0  0  0  0  0  0  0  0  0  0
    2.4067   -4.5889    0.0000 N   0  0  0  0  0  0  0  0  0  0  0  0
   11.3183   -1.0665    0.0000 C   0  0  1  0  0  0  0  0  0  0  0  0
   10.8183    0.4724    0.0000 C   0  0  2  0  0  0  0  0  0  0  0  0
   11.6273   -0.1154    0.0000 C   0  0  0  0  0  0  0  0  0  0  0  0
   10.0093   -0.1154    0.0000 C   0  0  0  0  0  0  0  0  0  0  0  0
    9.7305   -1.8755    0.0000 C   0  0  0  0  0  0  0  0  0  0  0  0
    8.7360   -1.7710    0.0000 C   0  0  2  0  0  0  0  0  0  0  0  0
   11.9061   -1.8755    0.0000 C   0  0  0  0  0  0  0  0  0  0  0  0
    8.3292   -0.8574    0.0000 C   0  0  0  0  0  0  0  0  0  0  0  0
   11.6843    1.9724    0.0000 C   0  0  0  0  0  0  0  0  0  0  0  0
    7.3347   -0.7529    0.0000 C   0  0  0  0  0  0  0  0  0  0  0  0
    8.9170   -0.0484    0.0000 C   0  0  0  0  0  0  0  0  0  0  0  0
   13.4884   -2.5800    0.0000 C   0  0  1  0  0  0  0  0  0  0  0  0
    7.1537   -2.4754    0.0000 C   0  0  0  0  0  0  0  0  0  0  0  0
    6.5659   -3.2845    0.0000 C   0  0  2  0  0  0  0  0  0  0  0  0
   11.6843    2.9724    0.0000 C   0  0  0  0  0  0  0  0  0  0  0  0
    6.9726   -4.1980    0.0000 C   0  0  0  0  0  0  0  0  0  0  0  0
   13.0816   -3.4935    0.0000 C   0  0  0  0  0  0  0  0  0  0  0  0
   12.5503    3.4724    0.0000 C   0  0  0  0  0  0  0  0  0  0  0  0
   14.4829   -2.4754    0.0000 C   0  0  0  0  0  0  0  0  0  0  0  0
   10.8183    3.4724    0.0000 C   0  0  0  0  0  0  0  0  0  0  0  0
    6.3848   -5.0070    0.0000 C   0  0  0  0  0  0  0  0  0  0  0  0
    7.9671   -4.3025    0.0000 C   0  0  0  0  0  0  0  0  0  0  0  0
   13.6694   -4.3025    0.0000 C   0  0  0  0  0  0  0  0  0  0  0  0
   12.5503    4.4724    0.0000 C   0  0  0  0  0  0  0  0  0  0  0  0
   10.8183    4.4724    0.0000 C   0  0  0  0  0  0  0  0  0  0  0  0
   11.6843    4.9724    0.0000 C   0  0  0  0  0  0  0  0  0  0  0  0
   13.4443    5.0070    0.0000 C   0  0  0  0  0  0  0  0  0  0  0  0
    4.9836   -3.9890    0.0000 C   0  0  0  0  0  0  0  0  0  0  0  0
   14.3503    3.4516    0.0000 C   0  0  0  0  0  0  0  0  0  0  0  0
    3.9890   -3.8844    0.0000 C   0  0  0  0  0  0  0  0  0  0  0  0
    3.4013   -4.6934    0.0000 C   0  0  0  0  0  0  0  0  0  0  0  0
    2.5878   -2.8664    0.0000 C   0  0  0  0  0  0  0  0  0  0  0  0
    2.0000   -3.6754    0.0000 C   0  0  0  0  0  0  0  0  0  0  0  0
   11.0368   -1.6189    0.0000 H   0  0  0  0  0  0  0  0  0  0  0  0
   11.3707    0.7538    0.0000 H   0  0  0  0  0  0  0  0  0  0  0  0
   12.1937   -0.3676    0.0000 H   0  0  0  0  0  0  0  0  0  0  0  0
   11.9373    0.4215    0.0000 H   0  0  0  0  0  0  0  0  0  0  0  0
    9.6992    0.4215    0.0000 H   0  0  0  0  0  0  0  0  0  0  0  0
    9.4429   -0.3676    0.0000 H   0  0  0  0  0  0  0  0  0  0  0  0
    8.1194   -1.7062    0.0000 H   0  0  0  0  0  0  0  0  0  0  0  0
    8.0770   -0.2910    0.0000 H   0  0  0  0  0  0  0  0  0  0  0  0
    8.4004   -3.1464    0.0000 H   0  0  0  0  0  0  0  0  0  0  0  0
   13.1528   -1.2046    0.0000 H   0  0  0  0  0  0  0  0  0  0  0  0
   11.8963    1.3898    0.0000 H   0  0  0  0  0  0  0  0  0  0  0  0
   12.2949    2.0800    0.0000 H   0  0  0  0  0  0  0  0  0  0  0  0
    7.3995   -0.1363    0.0000 H   0  0  0  0  0  0  0  0  0  0  0  0
    6.7181   -0.6881    0.0000 H   0  0  0  0  0  0  0  0  0  0  0  0
    7.2699   -1.3695    0.0000 H   0  0  0  0  0  0  0  0  0  0  0  0
    9.4186   -0.4128    0.0000 H   0  0  0  0  0  0  0  0  0  0  0  0
    9.2814    0.4532    0.0000 H   0  0  0  0  0  0  0  0  0  0  0  0
    8.4154    0.3160    0.0000 H   0  0  0  0  0  0  0  0  0  0  0  0
   13.7405   -2.0136    0.0000 H   0  0  0  0  0  0  0  0  0  0  0  0
    6.2014   -3.7861    0.0000 H   0  0  0  0  0  0  0  0  0  0  0  0
    7.3370   -3.6964    0.0000 H   0  0  0  0  0  0  0  0  0  0  0  0
   12.5676   -3.1468    0.0000 H   0  0  0  0  0  0  0  0  0  0  0  0
   12.6509   -3.9395    0.0000 H   0  0  0  0  0  0  0  0  0  0  0  0
   14.7351   -1.9090    0.0000 H   0  0  0  0  0  0  0  0  0  0  0  0
    5.3192   -2.6135    0.0000 H   0  0  0  0  0  0  0  0  0  0  0  0
   10.2813    3.1624    0.0000 H   0  0  0  0  0  0  0  0  0  0  0  0
    5.8832   -4.6426    0.0000 H   0  0  0  0  0  0  0  0  0  0  0  0
    6.0204   -5.5086    0.0000 H   0  0  0  0  0  0  0  0  0  0  0  0
    6.8864   -5.3715    0.0000 H   0  0  0  0  0  0  0  0  0  0  0  0
    7.9023   -4.9191    0.0000 H   0  0  0  0  0  0  0  0  0  0  0  0
    8.5837   -4.3674    0.0000 H   0  0  0  0  0  0  0  0  0  0  0  0
    8.0319   -3.6859    0.0000 H   0  0  0  0  0  0  0  0  0  0  0  0
   13.1678   -4.6670    0.0000 H   0  0  0  0  0  0  0  0  0  0  0  0
   14.0338   -4.8041    0.0000 H   0  0  0  0  0  0  0  0  0  0  0  0
   14.1710   -3.9381    0.0000 H   0  0  0  0  0  0  0  0  0  0  0  0
   11.6843    5.5924    0.0000 H   0  0  0  0  0  0  0  0  0  0  0  0
   13.8379    5.4860    0.0000 H   0  0  0  0  0  0  0  0  0  0  0  0
   13.0397    5.4768    0.0000 H   0  0  0  0  0  0  0  0  0  0  0  0
   14.5594    2.8679    0.0000 H   0  0  0  0  0  0  0  0  0  0  0  0
   14.9612    3.5576    0.0000 H   0  0  0  0  0  0  0  0  0  0  0  0
    3.6534   -5.2598    0.0000 H   0  0  0  0  0  0  0  0  0  0  0  0
    2.3356   -2.3000    0.0000 H   0  0  0  0  0  0  0  0  0  0  0  0
    1.3834   -3.6106    0.0000 H   0  0  0  0  0  0  0  0  0  0  0  0
  1 40  1  0  0  0  0
 17  2  1  6  0  0  0
  2 24  1  0  0  0  0
  3 20  2  0  0  0  0
  4 22  2  0  0  0  0
  5 28  2  0  0  0  0
  6 33  1  0  0  0  0
  6 44  1  0  0  0  0
  7 42  1  0  0  0  0
  7 44  1  0  0  0  0
  8 34  2  0  0  0  0
  9 43  2  0  0  0  0
 10 16  1  0  0  0  0
 10 19  1  0  0  0  0
 10 20  1  0  0  0  0
 21 11  1  1  0  0  0
 11 28  1  0  0  0  0
 11 57  1  0  0  0  0
 12 22  1  0  0  0  0
 27 12  1  6  0  0  0
 12 58  1  0  0  0  0
 29 13  1  6  0  0  0
 13 43  1  0  0  0  0
 13 73  1  0  0  0  0
 14 45  2  0  0  0  0
 14 47  1  0  0  0  0
 15 46  2  0  0  0  0
 15 48  1  0  0  0  0
 16 18  1  0  0  0  0
 16 22  1  1  0  0  0
 16 49  1  0  0  0  0
 17 18  1  0  0  0  0
 17 19  1  0  0  0  0
 17 50  1  0  0  0  0
 18 51  1  0  0  0  0
 18 52  1  0  0  0  0
 19 53  1  0  0  0  0
 19 54  1  0  0  0  0
 20 21  1  0  0  0  0
 21 23  1  0  0  0  0
 21 55  1  0  0  0  0
 23 25  1  0  0  0  0
 23 26  1  0  0  0  0
 23 56  1  0  0  0  0
 24 30  1  0  0  0  0
 24 59  1  0  0  0  0
 24 60  1  0  0  0  0
 25 61  1  0  0  0  0
 25 62  1  0  0  0  0
 25 63  1  0  0  0  0
 26 64  1  0  0  0  0
 26 65  1  0  0  0  0
 26 66  1  0  0  0  0
 27 32  1  0  0  0  0
 27 34  1  0  0  0  0
 27 67  1  0  0  0  0
 28 29  1  0  0  0  0
 29 31  1  0  0  0  0
 29 68  1  0  0  0  0
 30 33  1  0  0  0  0
 30 35  2  0  0  0  0
 31 36  1  0  0  0  0
 31 37  1  0  0  0  0
 31 69  1  0  0  0  0
 32 38  1  0  0  0  0
 32 70  1  0  0  0  0
 32 71  1  0  0  0  0
 33 39  2  0  0  0  0
 34 72  1  0  0  0  0
 35 40  1  0  0  0  0
 35 74  1  0  0  0  0
 36 75  1  0  0  0  0
 36 76  1  0  0  0  0
 36 77  1  0  0  0  0
 37 78  1  0  0  0  0
 37 79  1  0  0  0  0
 37 80  1  0  0  0  0
 38 81  1  0  0  0  0
 38 82  1  0  0  0  0
 38 83  1  0  0  0  0
 39 41  1  0  0  0  0
 39 42  1  0  0  0  0
 40 41  2  0  0  0  0
 41 84  1  0  0  0  0
 42 85  1  0  0  0  0
 42 86  1  0  0  0  0
 43 45  1  0  0  0  0
 44 87  1  0  0  0  0
 44 88  1  0  0  0  0
 45 46  1  0  0  0  0
 46 89  1  0  0  0  0
 47 48  2  0  0  0  0
 47 90  1  0  0  0  0
 48 91  1  0  0  0  0
M  END
> <PUBCHEM_COMPOUND_CID>
506634
> <PUBCHEM_COMPOUND_CANONICALIZED>
1
> <PUBCHEM_CACTVS_COMPLEXITY>
1130
> <PUBCHEM_CACTVS_HBOND_ACCEPTOR>
11
> <PUBCHEM_CACTVS_HBOND_DONOR>
3
> <PUBCHEM_CACTVS_ROTATABLE_BOND>
14
> <PUBCHEM_CACTVS_SUBSKEYS>
AAADcfB/vQAAAAAAAAAAAAAAAAAAAWAAAAA8SIAAAAAAAACRwAAAHwAQAAAADTzhng8+jpPIFACoAz131ACCiCQ3MiAI2IG8fMgeZ3rE8Tq3MKgn1hHcqMe64WgOAAACAAAIAAAAAAQAABAAAAAAAAAAAA==
> <PUBCHEM_IUPAC_OPENEYE_NAME>
N-[(1S)-1-[[(1S)-1-[(2S,4R)-4-[(6-fluoro-4H-1,3-benzodioxin-8-yl)methoxy]-2-[[(1S)-1-formylpropyl]carbamoyl]pyrrolidine-1-carbonyl]-2-methyl-propyl]carbamoyl]-2-methyl-propyl]pyrazine-2-carboxamide
> <PUBCHEM_IUPAC_CAS_NAME>
N-[(2S)-1-[[(2S)-1-[(2S,4R)-4-[(6-fluoro-4H-1,3-benzodioxin-8-yl)methoxy]-2-[oxo-[[(2S)-1-oxobutan-2-yl]amino]methyl]-1-pyrrolidinyl]-3-methyl-1-oxobutan-2-yl]amino]-3-methyl-1-oxobutan-2-yl]-2-pyrazinecarboxamide
> <PUBCHEM_IUPAC_NAME_MARKUP>
<I>N</I>-[(2<I>S</I>)-1-[[(2<I>S</I>)-1-[(2<I>S</I>,4<I>R</I>)-4-[(6-fluoro-4<I>H</I>-1,3-benzodioxin-8-yl)methoxy]-2-[[(2<I>S</I>)-1-oxobutan-2-yl]carbamoyl]pyrrolidin-1-yl]-3-methyl-1-oxobutan-2-yl]amino]-3-methyl-1-oxobutan-2-yl]pyrazine-2-carboxamide
> <PUBCHEM_IUPAC_NAME>
N-[(2S)-1-[[(2S)-1-[(2S,4R)-4-[(6-fluoro-4H-1,3-benzodioxin-8-yl)methoxy]-2-[[(2S)-1-oxobutan-2-yl]carbamoyl]pyrrolidin-1-yl]-3-methyl-1-oxobutan-2-yl]amino]-3-methyl-1-oxobutan-2-yl]pyrazine-2-carboxamide
> <PUBCHEM_IUPAC_SYSTEMATIC_NAME>
N-[(2S)-1-[[(2S)-1-[(2S,4R)-4-[(6-fluoranyl-4H-1,3-benzodioxin-8-yl)methoxy]-2-[[(2S)-1-oxidanylidenebutan-2-yl]carbamoyl]pyrrolidin-1-yl]-3-methyl-1-oxidanylidene-butan-2-yl]amino]-3-methyl-1-oxidanylidene-butan-2-yl]pyrazine-2-carboxamide
> <PUBCHEM_IUPAC_TRADITIONAL_NAME>
N-[(1S)-1-[[(1S)-1-[(2S,4R)-4-[(6-fluoro-4H-1,3-benzodioxin-8-yl)methoxy]-2-[[(1S)-1-formylpropyl]carbamoyl]pyrrolidine-1-carbonyl]-2-methyl-propyl]carbamoyl]-2-methyl-propyl]pyrazinamide
> <PUBCHEM_IUPAC_INCHI>
InChI=1S/C33H43FN6O8/c1-6-23(14-41)37-31(43)26-11-24(47-16-21-10-22(34)9-20-15-46-17-48-29(20)21)13-40(26)33(45)28(19(4)5)39-32(44)27(18(2)3)38-30(42)25-12-35-7-8-36-25/h7-10,12,14,18-19,23-24,26-28H,6,11,13,15-17H2,1-5H3,(H,37,43)(H,38,42)(H,39,44)/t23-,24+,26-,27-,28-/m0/s1
> <PUBCHEM_IUPAC_INCHIKEY>
POOAPJNMDUQUTF-JOMDOPAKSA-N
> <PUBCHEM_XLOGP3_AA>
2
> <PUBCHEM_EXACT_MASS>
670.31264051
> <PUBCHEM_MOLECULAR_FORMULA>
C33H43FN6O8
> <PUBCHEM_MOLECULAR_WEIGHT>
670.7
> <PUBCHEM_OPENEYE_CAN_SMILES>
CCC(C=O)NC(=O)C1CC(CN1C(=O)C(C(C)C)NC(=O)C(C(C)C)NC(=O)C2=NC=CN=C2)OCC3=CC(=CC4=C3OCOC4)F
> <PUBCHEM_OPENEYE_ISO_SMILES>
CC[C@@H](C=O)NC(=O)[C@@H]1C[C@H](CN1C(=O)[C@H](C(C)C)NC(=O)[C@H](C(C)C)NC(=O)C2=NC=CN=C2)OCC3=CC(=CC4=C3OCOC4)F
> <PUBCHEM_CACTVS_TPSA>
178
> <PUBCHEM_MONOISOTOPIC_WEIGHT>
670.31264051
> <PUBCHEM_TOTAL_CHARGE>
0
> <PUBCHEM_HEAVY_ATOM_COUNT>
48
> <PUBCHEM_ATOM_DEF_STEREO_COUNT>
5
> <PUBCHEM_ATOM_UDEF_STEREO_COUNT>
0
> <PUBCHEM_BOND_DEF_STEREO_COUNT>
0
> <PUBCHEM_BOND_UDEF_STEREO_COUNT>
0
> <PUBCHEM_ISOTOPIC_ATOM_COUNT>
0
> <PUBCHEM_COMPONENT_COUNT>
1
> <PUBCHEM_CACTVS_TAUTO_COUNT>
-1
> <PUBCHEM_COORDINATE_TYPE>
1
5
255
> <PUBCHEM_BONDANNOTATIONS>
21  11  5
27  12  6
29  13  6
14  45  8
14  47  8
15  46  8
15  48  8
16  22  5
17  2  6
30  33  8
30  35  8
33  39  8
35  40  8
39  41  8
40  41  8
45  46  8
47  48  8
$$$$
