506680
  -OEChem-10302200282D
 92 94  0     1  0  0  0  0  0999 V2000
    6.8671   -2.9076    0.0000 O   0  0  0  0  0  0  0  0  0  0  0  0
   10.2170   -0.1871    0.0000 O   0  0  0  0  0  0  0  0  0  0  0  0
   10.8981   -1.3667    0.0000 O   0  0  0  0  0  0  0  0  0  0  0  0
    7.4592    2.1354    0.0000 O   0  0  0  0  0  0  0  0  0  0  0  0
    7.7331   -4.4076    0.0000 O   0  0  0  0  0  0  0  0  0  0  0  0
   13.1128   -4.2119    0.0000 O   0  0  0  0  0  0  0  0  0  0  0  0
    9.6739    4.9806    0.0000 O   0  0  0  0  0  0  0  0  0  0  0  0
    4.2690   -4.4076    0.0000 O   0  0  0  0  0  0  0  0  0  0  0  0
    2.5369   -5.4076    0.0000 O   0  0  0  0  0  0  0  0  0  0  0  0
    8.8158   -1.2052    0.0000 N   0  0  0  0  0  0  0  0  0  0  0  0
    9.0414    1.4309    0.0000 N   0  0  0  0  0  0  0  0  0  0  0  0
   10.7170   -3.0893    0.0000 N   0  0  0  0  0  0  0  0  0  0  0  0
    8.2726    3.9625    0.0000 N   0  0  0  0  0  0  0  0  0  0  0  0
    6.0010   -4.4076    0.0000 N   0  0  0  0  0  0  0  0  0  0  0  0
    7.0970    5.5805    0.0000 N   0  0  0  0  0  0  0  0  0  0  0  0
    7.9105    7.4076    0.0000 N   0  0  0  0  0  0  0  0  0  0  0  0
    9.3158   -2.0712    0.0000 C   0  0  1  0  0  0  0  0  0  0  0  0
    8.6466   -2.8144    0.0000 C   0  0  0  0  0  0  0  0  0  0  0  0
    7.7331   -2.4076    0.0000 C   0  0  2  0  0  0  0  0  0  0  0  0
    7.8376   -1.4131    0.0000 C   0  0  0  0  0  0  0  0  0  0  0  0
    9.2225   -0.2916    0.0000 C   0  0  0  0  0  0  0  0  0  0  0  0
    8.6347    0.5174    0.0000 C   0  0  2  0  0  0  0  0  0  0  0  0
   10.3103   -2.1757    0.0000 C   0  0  0  0  0  0  0  0  0  0  0  0
    7.6402    0.4128    0.0000 C   0  0  0  0  0  0  0  0  0  0  0  0
    7.0524    1.2219    0.0000 C   0  0  0  0  0  0  0  0  0  0  0  0
    7.2335   -0.5007    0.0000 C   0  0  0  0  0  0  0  0  0  0  0  0
   11.7115   -3.1938    0.0000 C   0  0  1  0  0  0  0  0  0  0  0  0
    8.4537    2.2399    0.0000 C   0  0  0  0  0  0  0  0  0  0  0  0
    8.8604    3.1535    0.0000 C   0  0  2  0  0  0  0  0  0  0  0  0
    6.8671   -3.9076    0.0000 C   0  0  0  0  0  0  0  0  0  0  0  0
    9.8549    3.2580    0.0000 C   0  0  0  0  0  0  0  0  0  0  0  0
   12.2993   -2.3848    0.0000 C   0  0  0  0  0  0  0  0  0  0  0  0
   12.1183   -4.1074    0.0000 C   0  0  0  0  0  0  0  0  0  0  0  0
   10.2617    4.1716    0.0000 C   0  0  0  0  0  0  0  0  0  0  0  0
   10.4427    2.4490    0.0000 C   0  0  0  0  0  0  0  0  0  0  0  0
   13.2939   -2.4893    0.0000 C   0  0  0  0  0  0  0  0  0  0  0  0
    6.0010   -5.4076    0.0000 C   0  0  0  0  0  0  0  0  0  0  0  0
    8.6794    4.8760    0.0000 C   0  0  0  0  0  0  0  0  0  0  0  0
    5.1350   -5.9076    0.0000 C   0  0  0  0  0  0  0  0  0  0  0  0
    6.8671   -5.9076    0.0000 C   0  0  0  0  0  0  0  0  0  0  0  0
    8.0916    5.6851    0.0000 C   0  0  0  0  0  0  0  0  0  0  0  0
    5.1350   -6.9076    0.0000 C   0  0  0  0  0  0  0  0  0  0  0  0
    6.8671   -6.9076    0.0000 C   0  0  0  0  0  0  0  0  0  0  0  0
    4.2690   -5.4076    0.0000 C   0  0  0  0  0  0  0  0  0  0  0  0
    6.0010   -7.4076    0.0000 C   0  0  0  0  0  0  0  0  0  0  0  0
    8.4983    6.5986    0.0000 C   0  0  0  0  0  0  0  0  0  0  0  0
    3.4030   -5.9076    0.0000 C   0  0  0  0  0  0  0  0  0  0  0  0
    6.5093    6.3896    0.0000 C   0  0  0  0  0  0  0  0  0  0  0  0
    6.9160    7.3031    0.0000 C   0  0  0  0  0  0  0  0  0  0  0  0
    9.6534   -1.5512    0.0000 H   0  0  0  0  0  0  0  0  0  0  0  0
    8.3366   -3.3513    0.0000 H   0  0  0  0  0  0  0  0  0  0  0  0
    9.1482   -3.1788    0.0000 H   0  0  0  0  0  0  0  0  0  0  0  0
    7.7655   -3.0268    0.0000 H   0  0  0  0  0  0  0  0  0  0  0  0
    7.7728   -0.7965    0.0000 H   0  0  0  0  0  0  0  0  0  0  0  0
    7.2176   -1.4131    0.0000 H   0  0  0  0  0  0  0  0  0  0  0  0
    9.2513    0.5822    0.0000 H   0  0  0  0  0  0  0  0  0  0  0  0
    8.0046   -0.0887    0.0000 H   0  0  0  0  0  0  0  0  0  0  0  0
    9.6581    1.4957    0.0000 H   0  0  0  0  0  0  0  0  0  0  0  0
   10.3526   -3.5909    0.0000 H   0  0  0  0  0  0  0  0  0  0  0  0
    7.5540    1.5863    0.0000 H   0  0  0  0  0  0  0  0  0  0  0  0
    6.6880    1.7234    0.0000 H   0  0  0  0  0  0  0  0  0  0  0  0
    6.5508    0.8574    0.0000 H   0  0  0  0  0  0  0  0  0  0  0  0
    6.6671   -0.2485    0.0000 H   0  0  0  0  0  0  0  0  0  0  0  0
    6.9813   -1.0671    0.0000 H   0  0  0  0  0  0  0  0  0  0  0  0
    7.7999   -0.7529    0.0000 H   0  0  0  0  0  0  0  0  0  0  0  0
   11.4594   -2.6274    0.0000 H   0  0  0  0  0  0  0  0  0  0  0  0
    9.1126    3.7199    0.0000 H   0  0  0  0  0  0  0  0  0  0  0  0
    9.4905    3.7596    0.0000 H   0  0  0  0  0  0  0  0  0  0  0  0
   12.4702   -1.7888    0.0000 H   0  0  0  0  0  0  0  0  0  0  0  0
   11.7421   -2.1130    0.0000 H   0  0  0  0  0  0  0  0  0  0  0  0
    7.6560    3.8977    0.0000 H   0  0  0  0  0  0  0  0  0  0  0  0
   11.7539   -4.6090    0.0000 H   0  0  0  0  0  0  0  0  0  0  0  0
   10.8281    3.9194    0.0000 H   0  0  0  0  0  0  0  0  0  0  0  0
   10.5138    4.7380    0.0000 H   0  0  0  0  0  0  0  0  0  0  0  0
    9.6953    4.4237    0.0000 H   0  0  0  0  0  0  0  0  0  0  0  0
    9.9411    2.0846    0.0000 H   0  0  0  0  0  0  0  0  0  0  0  0
   10.8071    1.9474    0.0000 H   0  0  0  0  0  0  0  0  0  0  0  0
   10.9443    2.8134    0.0000 H   0  0  0  0  0  0  0  0  0  0  0  0
    5.4641   -4.0976    0.0000 H   0  0  0  0  0  0  0  0  0  0  0  0
   13.2290   -3.1059    0.0000 H   0  0  0  0  0  0  0  0  0  0  0  0
   13.9105   -2.5541    0.0000 H   0  0  0  0  0  0  0  0  0  0  0  0
   13.3587   -1.8727    0.0000 H   0  0  0  0  0  0  0  0  0  0  0  0
    7.4040   -5.5976    0.0000 H   0  0  0  0  0  0  0  0  0  0  0  0
    4.5981   -7.2176    0.0000 H   0  0  0  0  0  0  0  0  0  0  0  0
    7.4040   -7.2176    0.0000 H   0  0  0  0  0  0  0  0  0  0  0  0
    6.0010   -8.0276    0.0000 H   0  0  0  0  0  0  0  0  0  0  0  0
    9.1149    6.6634    0.0000 H   0  0  0  0  0  0  0  0  0  0  0  0
    3.0044   -6.3826    0.0000 H   0  0  0  0  0  0  0  0  0  0  0  0
    3.8015   -6.3826    0.0000 H   0  0  0  0  0  0  0  0  0  0  0  0
    5.8927    6.3247    0.0000 H   0  0  0  0  0  0  0  0  0  0  0  0
    6.5516    7.8047    0.0000 H   0  0  0  0  0  0  0  0  0  0  0  0
    2.0000   -5.7176    0.0000 H   0  0  0  0  0  0  0  0  0  0  0  0
 19  1  1  1  0  0  0
  1 30  1  0  0  0  0
  2 21  2  0  0  0  0
  3 23  2  0  0  0  0
  4 28  2  0  0  0  0
  5 30  2  0  0  0  0
  6 33  2  0  0  0  0
  7 38  2  0  0  0  0
  8 44  2  0  0  0  0
  9 47  1  0  0  0  0
  9 92  1  0  0  0  0
 10 17  1  0  0  0  0
 10 20  1  0  0  0  0
 10 21  1  0  0  0  0
 22 11  1  6  0  0  0
 11 28  1  0  0  0  0
 11 58  1  0  0  0  0
 12 23  1  0  0  0  0
 27 12  1  1  0  0  0
 12 59  1  0  0  0  0
 29 13  1  1  0  0  0
 13 38  1  0  0  0  0
 13 71  1  0  0  0  0
 14 30  1  0  0  0  0
 14 37  1  0  0  0  0
 14 79  1  0  0  0  0
 15 41  2  0  0  0  0
 15 48  1  0  0  0  0
 16 46  2  0  0  0  0
 16 49  1  0  0  0  0
 17 18  1  0  0  0  0
 17 23  1  6  0  0  0
 17 50  1  0  0  0  0
 18 19  1  0  0  0  0
 18 51  1  0  0  0  0
 18 52  1  0  0  0  0
 19 20  1  0  0  0  0
 19 53  1  0  0  0  0
 20 54  1  0  0  0  0
 20 55  1  0  0  0  0
 21 22  1  0  0  0  0
 22 24  1  0  0  0  0
 22 56  1  0  0  0  0
 24 25  1  0  0  0  0
 24 26  1  0  0  0  0
 24 57  1  0  0  0  0
 25 60  1  0  0  0  0
 25 61  1  0  0  0  0
 25 62  1  0  0  0  0
 26 63  1  0  0  0  0
 26 64  1  0  0  0  0
 26 65  1  0  0  0  0
 27 32  1  0  0  0  0
 27 33  1  0  0  0  0
 27 66  1  0  0  0  0
 28 29  1  0  0  0  0
 29 31  1  0  0  0  0
 29 67  1  0  0  0  0
 31 34  1  0  0  0  0
 31 35  1  0  0  0  0
 31 68  1  0  0  0  0
 32 36  1  0  0  0  0
 32 69  1  0  0  0  0
 32 70  1  0  0  0  0
 33 72  1  0  0  0  0
 34 73  1  0  0  0  0
 34 74  1  0  0  0  0
 34 75  1  0  0  0  0
 35 76  1  0  0  0  0
 35 77  1  0  0  0  0
 35 78  1  0  0  0  0
 36 80  1  0  0  0  0
 36 81  1  0  0  0  0
 36 82  1  0  0  0  0
 37 39  1  0  0  0  0
 37 40  2  0  0  0  0
 38 41  1  0  0  0  0
 39 42  2  0  0  0  0
 39 44  1  0  0  0  0
 40 43  1  0  0  0  0
 40 83  1  0  0  0  0
 41 46  1  0  0  0  0
 42 45  1  0  0  0  0
 42 84  1  0  0  0  0
 43 45  2  0  0  0  0
 43 85  1  0  0  0  0
 44 47  1  0  0  0  0
 45 86  1  0  0  0  0
 46 87  1  0  0  0  0
 47 88  1  0  0  0  0
 47 89  1  0  0  0  0
 48 49  2  0  0  0  0
 48 90  1  0  0  0  0
 49 91  1  0  0  0  0
M  END
> <PUBCHEM_COMPOUND_CID>
506680
> <PUBCHEM_COMPOUND_CANONICALIZED>
1
> <PUBCHEM_CACTVS_COMPLEXITY>
1200
> <PUBCHEM_CACTVS_HBOND_ACCEPTOR>
11
> <PUBCHEM_CACTVS_HBOND_DONOR>
5
> <PUBCHEM_CACTVS_ROTATABLE_BOND>
16
> <PUBCHEM_CACTVS_SUBSKEYS>
AAADcfB/vAAAAAAAAAAAAAAAAAAAAWAAAAA8QAAAAAAAAAABwAAAHgAQCAAADTzhngY+yJPIFgCoA7133AKCgCQ3EiAI2IH4dMkKcHrA1bGdYYhm1gHYyce6yaCOAAAAAAACAAAAAAAAAAQAAAAAAAAAAA==
> <PUBCHEM_IUPAC_OPENEYE_NAME>
[(3R,5S)-5-[[(1S)-1-formylpropyl]carbamoyl]-1-[(2S)-3-methyl-2-[[(2S)-3-methyl-2-(pyrazine-2-carbonylamino)butanoyl]amino]butanoyl]pyrrolidin-3-yl] N-[2-(2-hydroxyacetyl)phenyl]carbamate
> <PUBCHEM_IUPAC_CAS_NAME>
N-[2-(2-hydroxy-1-oxoethyl)phenyl]carbamic acid [(3R,5S)-1-[(2S)-3-methyl-2-[[(2S)-3-methyl-1-oxo-2-[[oxo(2-pyrazinyl)methyl]amino]butyl]amino]-1-oxobutyl]-5-[oxo-[[(2S)-1-oxobutan-2-yl]amino]methyl]-3-pyrrolidinyl] ester
> <PUBCHEM_IUPAC_NAME_MARKUP>
[(3<I>R</I>,5<I>S</I>)-1-[(2<I>S</I>)-3-methyl-2-[[(2<I>S</I>)-3-methyl-2-(pyrazine-2-carbonylamino)butanoyl]amino]butanoyl]-5-[[(2<I>S</I>)-1-oxobutan-2-yl]carbamoyl]pyrrolidin-3-yl] <I>N</I>-[2-(2-hydroxyacetyl)phenyl]carbamate
> <PUBCHEM_IUPAC_NAME>
[(3R,5S)-1-[(2S)-3-methyl-2-[[(2S)-3-methyl-2-(pyrazine-2-carbonylamino)butanoyl]amino]butanoyl]-5-[[(2S)-1-oxobutan-2-yl]carbamoyl]pyrrolidin-3-yl] N-[2-(2-hydroxyacetyl)phenyl]carbamate
> <PUBCHEM_IUPAC_SYSTEMATIC_NAME>
[(3R,5S)-1-[(2S)-3-methyl-2-[[(2S)-3-methyl-2-(pyrazin-2-ylcarbonylamino)butanoyl]amino]butanoyl]-5-[[(2S)-1-oxidanylidenebutan-2-yl]carbamoyl]pyrrolidin-3-yl] N-[2-(2-oxidanylethanoyl)phenyl]carbamate
> <PUBCHEM_IUPAC_TRADITIONAL_NAME>
N-(2-glycoloylphenyl)carbamic acid [(3R,5S)-5-[[(1S)-1-formylpropyl]carbamoyl]-1-[(2S)-3-methyl-2-[[(2S)-3-methyl-2-(pyrazinoylamino)butanoyl]amino]butanoyl]pyrrolidin-3-yl] ester
> <PUBCHEM_IUPAC_INCHI>
InChI=1S/C33H43N7O9/c1-6-20(16-41)36-30(45)25-13-21(49-33(48)37-23-10-8-7-9-22(23)26(43)17-42)15-40(25)32(47)28(19(4)5)39-31(46)27(18(2)3)38-29(44)24-14-34-11-12-35-24/h7-12,14,16,18-21,25,27-28,42H,6,13,15,17H2,1-5H3,(H,36,45)(H,37,48)(H,38,44)(H,39,46)/t20-,21+,25-,27-,28-/m0/s1
> <PUBCHEM_IUPAC_INCHIKEY>
VLJBDJLUCXPWMU-XGPCACMPSA-N
> <PUBCHEM_XLOGP3_AA>
1.9
> <PUBCHEM_EXACT_MASS>
681.31222597
> <PUBCHEM_MOLECULAR_FORMULA>
C33H43N7O9
> <PUBCHEM_MOLECULAR_WEIGHT>
681.7
> <PUBCHEM_OPENEYE_CAN_SMILES>
CCC(C=O)NC(=O)C1CC(CN1C(=O)C(C(C)C)NC(=O)C(C(C)C)NC(=O)C2=NC=CN=C2)OC(=O)NC3=CC=CC=C3C(=O)CO
> <PUBCHEM_OPENEYE_ISO_SMILES>
CC[C@@H](C=O)NC(=O)[C@@H]1C[C@H](CN1C(=O)[C@H](C(C)C)NC(=O)[C@H](C(C)C)NC(=O)C2=NC=CN=C2)OC(=O)NC3=CC=CC=C3C(=O)CO
> <PUBCHEM_CACTVS_TPSA>
226
> <PUBCHEM_MONOISOTOPIC_WEIGHT>
681.31222597
> <PUBCHEM_TOTAL_CHARGE>
0
> <PUBCHEM_HEAVY_ATOM_COUNT>
49
> <PUBCHEM_ATOM_DEF_STEREO_COUNT>
5
> <PUBCHEM_ATOM_UDEF_STEREO_COUNT>
0
> <PUBCHEM_BOND_DEF_STEREO_COUNT>
0
> <PUBCHEM_BOND_UDEF_STEREO_COUNT>
0
> <PUBCHEM_ISOTOPIC_ATOM_COUNT>
0
> <PUBCHEM_COMPONENT_COUNT>
1
> <PUBCHEM_CACTVS_TAUTO_COUNT>
-1
> <PUBCHEM_COORDINATE_TYPE>
1
5
255
> <PUBCHEM_BONDANNOTATIONS>
19  1  5
22  11  6
27  12  5
29  13  5
15  41  8
15  48  8
16  46  8
16  49  8
17  23  6
37  39  8
37  40  8
39  42  8
40  43  8
41  46  8
42  45  8
43  45  8
48  49  8
$$$$
