506693
  -OEChem-10302200282D
 86 88  0     1  0  0  0  0  0999 V2000
    7.1580   -1.8209    0.0000 O   0  0  0  0  0  0  0  0  0  0  0  0
    5.9136   -2.3749    0.0000 O   0  0  0  0  0  0  0  0  0  0  0  0
    9.7560    0.6791    0.0000 O   0  0  0  0  0  0  0  0  0  0  0  0
    2.8525   -4.2801    0.0000 O   0  0  0  0  0  0  0  0  0  0  0  0
   12.3541   -1.8209    0.0000 O   0  0  0  0  0  0  0  0  0  0  0  0
    6.2919   -0.3209    0.0000 N   0  0  0  0  0  0  0  0  0  0  0  0
    4.8025    1.7951    0.0000 N   0  0  0  0  0  0  0  0  0  0  0  0
    8.8900   -0.8209    0.0000 N   0  0  0  0  0  0  0  0  0  0  0  0
    4.2194   -2.0148    0.0000 N   0  0  0  0  0  0  0  0  0  0  0  0
   11.4881   -0.3209    0.0000 N   0  0  0  0  0  0  0  0  0  0  0  0
   14.0862   -0.8209    0.0000 N   0  0  0  0  0  0  0  0  0  0  0  0
   14.0862    1.1791    0.0000 N   0  0  0  0  0  0  0  0  0  0  0  0
    5.2092    0.8815    0.0000 C   0  0  2  0  0  0  0  0  0  0  0  0
    5.3784   -0.7276    0.0000 C   0  0  1  0  0  0  0  0  0  0  0  0
    4.7092    0.0155    0.0000 C   0  0  0  0  0  0  0  0  0  0  0  0
    6.1874    0.6736    0.0000 C   0  0  0  0  0  0  0  0  0  0  0  0
    7.1580   -0.8209    0.0000 C   0  0  0  0  0  0  0  0  0  0  0  0
    8.0240   -0.3209    0.0000 C   0  0  2  0  0  0  0  0  0  0  0  0
    5.1705   -1.7058    0.0000 C   0  0  0  0  0  0  0  0  0  0  0  0
    8.0240    0.6791    0.0000 C   0  0  0  0  0  0  0  0  0  0  0  0
    3.8080    1.8996    0.0000 C   0  0  0  0  0  0  0  0  0  0  0  0
    8.8900    1.1791    0.0000 C   0  0  0  0  0  0  0  0  0  0  0  0
    7.1580    1.1791    0.0000 C   0  0  0  0  0  0  0  0  0  0  0  0
    4.0115   -2.9930    0.0000 C   0  0  1  0  0  0  0  0  0  0  0  0
    3.4013    2.8131    0.0000 C   0  0  0  0  0  0  0  0  0  0  0  0
    9.7560   -0.3209    0.0000 C   0  0  0  0  0  0  0  0  0  0  0  0
   10.6221   -0.8209    0.0000 C   0  0  2  0  0  0  0  0  0  0  0  0
   10.6221   -1.8209    0.0000 C   0  0  0  0  0  0  0  0  0  0  0  0
    4.7546   -3.6621    0.0000 C   0  0  0  0  0  0  0  0  0  0  0  0
    2.4067    2.9177    0.0000 C   0  0  0  0  0  0  0  0  0  0  0  0
    3.9890    3.6222    0.0000 C   0  0  0  0  0  0  0  0  0  0  0  0
    3.0604   -3.3020    0.0000 C   0  0  0  0  0  0  0  0  0  0  0  0
    9.7560   -2.3209    0.0000 C   0  0  0  0  0  0  0  0  0  0  0  0
   11.4881   -2.3209    0.0000 C   0  0  0  0  0  0  0  0  0  0  0  0
    4.5467   -4.6402    0.0000 C   0  0  0  0  0  0  0  0  0  0  0  0
    2.0000    3.8312    0.0000 C   0  0  0  0  0  0  0  0  0  0  0  0
    3.5823    4.5357    0.0000 C   0  0  0  0  0  0  0  0  0  0  0  0
    2.5878    4.6402    0.0000 C   0  0  0  0  0  0  0  0  0  0  0  0
   12.3541   -0.8209    0.0000 C   0  0  0  0  0  0  0  0  0  0  0  0
   13.2201   -0.3209    0.0000 C   0  0  0  0  0  0  0  0  0  0  0  0
   13.2201    0.6791    0.0000 C   0  0  0  0  0  0  0  0  0  0  0  0
   14.9522   -0.3209    0.0000 C   0  0  0  0  0  0  0  0  0  0  0  0
   14.9522    0.6791    0.0000 C   0  0  0  0  0  0  0  0  0  0  0  0
    5.5994    1.3634    0.0000 H   0  0  0  0  0  0  0  0  0  0  0  0
    5.8602   -1.1178    0.0000 H   0  0  0  0  0  0  0  0  0  0  0  0
    4.2077    0.3799    0.0000 H   0  0  0  0  0  0  0  0  0  0  0  0
    4.2944   -0.4452    0.0000 H   0  0  0  0  0  0  0  0  0  0  0  0
    6.8074    0.6736    0.0000 H   0  0  0  0  0  0  0  0  0  0  0  0
    6.2522    1.2902    0.0000 H   0  0  0  0  0  0  0  0  0  0  0  0
    8.0240   -0.9409    0.0000 H   0  0  0  0  0  0  0  0  0  0  0  0
    5.1669    2.2967    0.0000 H   0  0  0  0  0  0  0  0  0  0  0  0
    7.4870    0.3691    0.0000 H   0  0  0  0  0  0  0  0  0  0  0  0
    3.2064    1.7496    0.0000 H   0  0  0  0  0  0  0  0  0  0  0  0
    3.8512    1.2811    0.0000 H   0  0  0  0  0  0  0  0  0  0  0  0
    8.8900   -1.4409    0.0000 H   0  0  0  0  0  0  0  0  0  0  0  0
    3.7587   -1.6000    0.0000 H   0  0  0  0  0  0  0  0  0  0  0  0
    9.2000    0.6422    0.0000 H   0  0  0  0  0  0  0  0  0  0  0  0
    9.4269    1.4891    0.0000 H   0  0  0  0  0  0  0  0  0  0  0  0
    8.5800    1.7160    0.0000 H   0  0  0  0  0  0  0  0  0  0  0  0
    7.4680    1.7160    0.0000 H   0  0  0  0  0  0  0  0  0  0  0  0
    6.6210    1.4891    0.0000 H   0  0  0  0  0  0  0  0  0  0  0  0
    6.8480    0.6422    0.0000 H   0  0  0  0  0  0  0  0  0  0  0  0
    4.6012   -2.8014    0.0000 H   0  0  0  0  0  0  0  0  0  0  0  0
   11.1590   -1.1309    0.0000 H   0  0  0  0  0  0  0  0  0  0  0  0
   10.6221   -2.4409    0.0000 H   0  0  0  0  0  0  0  0  0  0  0  0
    5.3295   -3.8943    0.0000 H   0  0  0  0  0  0  0  0  0  0  0  0
    5.0832   -3.1363    0.0000 H   0  0  0  0  0  0  0  0  0  0  0  0
    2.0423    2.4161    0.0000 H   0  0  0  0  0  0  0  0  0  0  0  0
    4.6056    3.5574    0.0000 H   0  0  0  0  0  0  0  0  0  0  0  0
    2.5997   -2.8871    0.0000 H   0  0  0  0  0  0  0  0  0  0  0  0
   11.4881    0.2991    0.0000 H   0  0  0  0  0  0  0  0  0  0  0  0
    9.4460   -1.7840    0.0000 H   0  0  0  0  0  0  0  0  0  0  0  0
    9.2191   -2.6309    0.0000 H   0  0  0  0  0  0  0  0  0  0  0  0
   10.0660   -2.8578    0.0000 H   0  0  0  0  0  0  0  0  0  0  0  0
   11.1781   -2.8578    0.0000 H   0  0  0  0  0  0  0  0  0  0  0  0
   12.0250   -2.6309    0.0000 H   0  0  0  0  0  0  0  0  0  0  0  0
   11.7981   -1.7840    0.0000 H   0  0  0  0  0  0  0  0  0  0  0  0
    3.9403   -4.5113    0.0000 H   0  0  0  0  0  0  0  0  0  0  0  0
    4.4178   -5.2467    0.0000 H   0  0  0  0  0  0  0  0  0  0  0  0
    5.1532   -4.7691    0.0000 H   0  0  0  0  0  0  0  0  0  0  0  0
    1.3834    3.8960    0.0000 H   0  0  0  0  0  0  0  0  0  0  0  0
    3.9467    5.0373    0.0000 H   0  0  0  0  0  0  0  0  0  0  0  0
    2.3356    5.2066    0.0000 H   0  0  0  0  0  0  0  0  0  0  0  0
   12.6832    0.9891    0.0000 H   0  0  0  0  0  0  0  0  0  0  0  0
   15.4891   -0.6309    0.0000 H   0  0  0  0  0  0  0  0  0  0  0  0
   15.4891    0.9891    0.0000 H   0  0  0  0  0  0  0  0  0  0  0  0
  1 17  2  0  0  0  0
  2 19  2  0  0  0  0
  3 26  2  0  0  0  0
  4 32  2  0  0  0  0
  5 39  2  0  0  0  0
  6 14  1  0  0  0  0
  6 16  1  0  0  0  0
  6 17  1  0  0  0  0
 13  7  1  1  0  0  0
  7 21  1  0  0  0  0
  7 51  1  0  0  0  0
 18  8  1  6  0  0  0
  8 26  1  0  0  0  0
  8 55  1  0  0  0  0
  9 19  1  0  0  0  0
 24  9  1  1  0  0  0
  9 56  1  0  0  0  0
 27 10  1  1  0  0  0
 10 39  1  0  0  0  0
 10 71  1  0  0  0  0
 11 40  2  0  0  0  0
 11 42  1  0  0  0  0
 12 41  2  0  0  0  0
 12 43  1  0  0  0  0
 13 15  1  0  0  0  0
 13 16  1  0  0  0  0
 13 44  1  0  0  0  0
 14 15  1  0  0  0  0
 14 19  1  6  0  0  0
 14 45  1  0  0  0  0
 15 46  1  0  0  0  0
 15 47  1  0  0  0  0
 16 48  1  0  0  0  0
 16 49  1  0  0  0  0
 17 18  1  0  0  0  0
 18 20  1  0  0  0  0
 18 50  1  0  0  0  0
 20 22  1  0  0  0  0
 20 23  1  0  0  0  0
 20 52  1  0  0  0  0
 21 25  1  0  0  0  0
 21 53  1  0  0  0  0
 21 54  1  0  0  0  0
 22 57  1  0  0  0  0
 22 58  1  0  0  0  0
 22 59  1  0  0  0  0
 23 60  1  0  0  0  0
 23 61  1  0  0  0  0
 23 62  1  0  0  0  0
 24 29  1  0  0  0  0
 24 32  1  0  0  0  0
 24 63  1  0  0  0  0
 25 30  2  0  0  0  0
 25 31  1  0  0  0  0
 26 27  1  0  0  0  0
 27 28  1  0  0  0  0
 27 64  1  0  0  0  0
 28 33  1  0  0  0  0
 28 34  1  0  0  0  0
 28 65  1  0  0  0  0
 29 35  1  0  0  0  0
 29 66  1  0  0  0  0
 29 67  1  0  0  0  0
 30 36  1  0  0  0  0
 30 68  1  0  0  0  0
 31 37  2  0  0  0  0
 31 69  1  0  0  0  0
 32 70  1  0  0  0  0
 33 72  1  0  0  0  0
 33 73  1  0  0  0  0
 33 74  1  0  0  0  0
 34 75  1  0  0  0  0
 34 76  1  0  0  0  0
 34 77  1  0  0  0  0
 35 78  1  0  0  0  0
 35 79  1  0  0  0  0
 35 80  1  0  0  0  0
 36 38  2  0  0  0  0
 36 81  1  0  0  0  0
 37 38  1  0  0  0  0
 37 82  1  0  0  0  0
 38 83  1  0  0  0  0
 39 40  1  0  0  0  0
 40 41  1  0  0  0  0
 41 84  1  0  0  0  0
 42 43  2  0  0  0  0
 42 85  1  0  0  0  0
 43 86  1  0  0  0  0
M  END
> <PUBCHEM_COMPOUND_CID>
506693
> <PUBCHEM_COMPOUND_CANONICALIZED>
1
> <PUBCHEM_CACTVS_COMPLEXITY>
955
> <PUBCHEM_CACTVS_HBOND_ACCEPTOR>
8
> <PUBCHEM_CACTVS_HBOND_DONOR>
4
> <PUBCHEM_CACTVS_ROTATABLE_BOND>
14
> <PUBCHEM_CACTVS_SUBSKEYS>
AAADcfB7uAAAAAAAAAAAAAAAAAAAAWAAAAA8QAAAAAAAAAABwAAAHgAQAAAADSjhngY+gJPIEACoAz131ACCgCQ3EiAI2IG4dMgIYHrA0TGUIIhglgDIiMccgQAOAAAAAAAAAAAAAAAAAAAAAAAAAAAAAA==
> <PUBCHEM_IUPAC_OPENEYE_NAME>
N-[(1S)-1-[[(1S)-1-[(2S,4R)-4-(benzylamino)-2-[[(1S)-1-formylpropyl]carbamoyl]pyrrolidine-1-carbonyl]-2-methyl-propyl]carbamoyl]-2-methyl-propyl]pyrazine-2-carboxamide
> <PUBCHEM_IUPAC_CAS_NAME>
N-[(2S)-3-methyl-1-[[(2S)-3-methyl-1-oxo-1-[(2S,4R)-2-[oxo-[[(2S)-1-oxobutan-2-yl]amino]methyl]-4-[(phenylmethyl)amino]-1-pyrrolidinyl]butan-2-yl]amino]-1-oxobutan-2-yl]-2-pyrazinecarboxamide
> <PUBCHEM_IUPAC_NAME_MARKUP>
<I>N</I>-[(2<I>S</I>)-1-[[(2<I>S</I>)-1-[(2<I>S</I>,4<I>R</I>)-4-(benzylamino)-2-[[(2<I>S</I>)-1-oxobutan-2-yl]carbamoyl]pyrrolidin-1-yl]-3-methyl-1-oxobutan-2-yl]amino]-3-methyl-1-oxobutan-2-yl]pyrazine-2-carboxamide
> <PUBCHEM_IUPAC_NAME>
N-[(2S)-1-[[(2S)-1-[(2S,4R)-4-(benzylamino)-2-[[(2S)-1-oxobutan-2-yl]carbamoyl]pyrrolidin-1-yl]-3-methyl-1-oxobutan-2-yl]amino]-3-methyl-1-oxobutan-2-yl]pyrazine-2-carboxamide
> <PUBCHEM_IUPAC_SYSTEMATIC_NAME>
N-[(2S)-3-methyl-1-[[(2S)-3-methyl-1-oxidanylidene-1-[(2S,4R)-2-[[(2S)-1-oxidanylidenebutan-2-yl]carbamoyl]-4-[(phenylmethyl)amino]pyrrolidin-1-yl]butan-2-yl]amino]-1-oxidanylidene-butan-2-yl]pyrazine-2-carboxamide
> <PUBCHEM_IUPAC_TRADITIONAL_NAME>
N-[(1S)-1-[[(1S)-1-[(2S,4R)-4-(benzylamino)-2-[[(1S)-1-formylpropyl]carbamoyl]pyrrolidine-1-carbonyl]-2-methyl-propyl]carbamoyl]-2-methyl-propyl]pyrazinamide
> <PUBCHEM_IUPAC_INCHI>
InChI=1S/C31H43N7O5/c1-6-22(18-39)35-29(41)25-14-23(34-15-21-10-8-7-9-11-21)17-38(25)31(43)27(20(4)5)37-30(42)26(19(2)3)36-28(40)24-16-32-12-13-33-24/h7-13,16,18-20,22-23,25-27,34H,6,14-15,17H2,1-5H3,(H,35,41)(H,36,40)(H,37,42)/t22-,23+,25-,26-,27-/m0/s1
> <PUBCHEM_IUPAC_INCHIKEY>
XVJXLULWCALCOO-BILQSEOESA-N
> <PUBCHEM_XLOGP3_AA>
2.1
> <PUBCHEM_EXACT_MASS>
593.33256750
> <PUBCHEM_MOLECULAR_FORMULA>
C31H43N7O5
> <PUBCHEM_MOLECULAR_WEIGHT>
593.7
> <PUBCHEM_OPENEYE_CAN_SMILES>
CCC(C=O)NC(=O)C1CC(CN1C(=O)C(C(C)C)NC(=O)C(C(C)C)NC(=O)C2=NC=CN=C2)NCC3=CC=CC=C3
> <PUBCHEM_OPENEYE_ISO_SMILES>
CC[C@@H](C=O)NC(=O)[C@@H]1C[C@H](CN1C(=O)[C@H](C(C)C)NC(=O)[C@H](C(C)C)NC(=O)C2=NC=CN=C2)NCC3=CC=CC=C3
> <PUBCHEM_CACTVS_TPSA>
163
> <PUBCHEM_MONOISOTOPIC_WEIGHT>
593.33256750
> <PUBCHEM_TOTAL_CHARGE>
0
> <PUBCHEM_HEAVY_ATOM_COUNT>
43
> <PUBCHEM_ATOM_DEF_STEREO_COUNT>
5
> <PUBCHEM_ATOM_UDEF_STEREO_COUNT>
0
> <PUBCHEM_BOND_DEF_STEREO_COUNT>
0
> <PUBCHEM_BOND_UDEF_STEREO_COUNT>
0
> <PUBCHEM_ISOTOPIC_ATOM_COUNT>
0
> <PUBCHEM_COMPONENT_COUNT>
1
> <PUBCHEM_CACTVS_TAUTO_COUNT>
-1
> <PUBCHEM_COORDINATE_TYPE>
1
5
255
> <PUBCHEM_BONDANNOTATIONS>
27  10  5
11  40  8
11  42  8
12  41  8
12  43  8
14  19  6
25  30  8
25  31  8
30  36  8
31  37  8
36  38  8
37  38  8
40  41  8
42  43  8
13  7  5
18  8  6
24  9  5
$$$$
