506723
  -OEChem-10302200282D
 83 84  0     1  0  0  0  0  0999 V2000
    2.5883   -4.3584    0.0000 S   0  0  0  0  0  0  0  0  0  0  0  0
    6.0227    2.4649    0.0000 O   0  0  0  0  0  0  0  0  0  0  0  0
    3.2648    0.1424    0.0000 O   0  0  0  0  0  0  0  0  0  0  0  0
    5.3903    6.0145    0.0000 O   0  0  0  0  0  0  0  0  0  0  0  0
    5.4796   -2.7028    0.0000 O   0  0  0  0  0  0  0  0  0  0  0  0
    2.0000    7.2417    0.0000 O   0  0  0  0  0  0  0  0  0  0  0  0
    4.6215    3.4830    0.0000 N   0  0  0  0  0  0  0  0  0  0  0  0
    4.8472    0.8468    0.0000 N   0  0  0  0  0  0  0  0  0  0  0  0
    4.0783   -1.6847    0.0000 N   0  0  0  0  0  0  0  0  0  0  0  0
    3.8080    5.3100    0.0000 N   0  0  0  0  0  0  0  0  0  0  0  0
    4.2063   -4.3584    0.0000 N   0  0  0  0  0  0  0  0  0  0  0  0
    3.3973   -7.9462    0.0000 N   0  0  0  0  0  0  0  0  0  0  0  0
    4.4404    1.7604    0.0000 C   0  0  1  0  0  0  0  0  0  0  0  0
    3.4459    1.8649    0.0000 C   0  0  0  0  0  0  0  0  0  0  0  0
    5.2092    4.2920    0.0000 C   0  0  1  0  0  0  0  0  0  0  0  0
    6.2038    4.1874    0.0000 C   0  0  0  0  0  0  0  0  0  0  0  0
    6.7916    4.9964    0.0000 C   0  0  0  0  0  0  0  0  0  0  0  0
    4.6661   -0.8757    0.0000 C   0  0  1  0  0  0  0  0  0  0  0  0
    5.0282    2.5694    0.0000 C   0  0  0  0  0  0  0  0  0  0  0  0
    5.6606   -0.9803    0.0000 C   0  0  0  0  0  0  0  0  0  0  0  0
    4.2594    0.0378    0.0000 C   0  0  0  0  0  0  0  0  0  0  0  0
    3.0392    2.7785    0.0000 C   0  0  0  0  0  0  0  0  0  0  0  0
    2.8581    1.0559    0.0000 C   0  0  0  0  0  0  0  0  0  0  0  0
    4.8025    5.2055    0.0000 C   0  0  0  0  0  0  0  0  0  0  0  0
    7.7861    4.8919    0.0000 C   0  0  0  0  0  0  0  0  0  0  0  0
    6.3848    5.9100    0.0000 C   0  0  0  0  0  0  0  0  0  0  0  0
    6.2484   -0.1712    0.0000 C   0  0  0  0  0  0  0  0  0  0  0  0
    6.0674   -1.8938    0.0000 C   0  0  0  0  0  0  0  0  0  0  0  0
    3.4013    6.2236    0.0000 C   0  0  1  0  0  0  0  0  0  0  0  0
    3.9890    7.0326    0.0000 C   0  0  0  0  0  0  0  0  0  0  0  0
    4.4851   -2.5983    0.0000 C   0  0  0  0  0  0  0  0  0  0  0  0
    2.4067    6.3281    0.0000 C   0  0  0  0  0  0  0  0  0  0  0  0
    3.5823    7.9462    0.0000 C   0  0  0  0  0  0  0  0  0  0  0  0
    3.8973   -3.4073    0.0000 C   0  0  0  0  0  0  0  0  0  0  0  0
    2.8973   -3.4073    0.0000 C   0  0  0  0  0  0  0  0  0  0  0  0
    3.3973   -4.9462    0.0000 C   0  0  0  0  0  0  0  0  0  0  0  0
    3.3973   -5.9462    0.0000 C   0  0  0  0  0  0  0  0  0  0  0  0
    4.2633   -6.4462    0.0000 C   0  0  0  0  0  0  0  0  0  0  0  0
    2.5312   -6.4462    0.0000 C   0  0  0  0  0  0  0  0  0  0  0  0
    4.2633   -7.4462    0.0000 C   0  0  0  0  0  0  0  0  0  0  0  0
    2.5312   -7.4462    0.0000 C   0  0  0  0  0  0  0  0  0  0  0  0
    4.0760    1.2588    0.0000 H   0  0  0  0  0  0  0  0  0  0  0  0
    3.8103    2.3665    0.0000 H   0  0  0  0  0  0  0  0  0  0  0  0
    4.5926    4.3568    0.0000 H   0  0  0  0  0  0  0  0  0  0  0  0
    6.0329    3.5914    0.0000 H   0  0  0  0  0  0  0  0  0  0  0  0
    6.7610    3.9156    0.0000 H   0  0  0  0  0  0  0  0  0  0  0  0
    6.1750    5.0613    0.0000 H   0  0  0  0  0  0  0  0  0  0  0  0
    4.0495   -0.8109    0.0000 H   0  0  0  0  0  0  0  0  0  0  0  0
    4.0049    3.5478    0.0000 H   0  0  0  0  0  0  0  0  0  0  0  0
    5.4638    0.7820    0.0000 H   0  0  0  0  0  0  0  0  0  0  0  0
    5.2962   -1.4818    0.0000 H   0  0  0  0  0  0  0  0  0  0  0  0
    3.6056    3.0306    0.0000 H   0  0  0  0  0  0  0  0  0  0  0  0
    2.7870    3.3449    0.0000 H   0  0  0  0  0  0  0  0  0  0  0  0
    2.4728    2.5263    0.0000 H   0  0  0  0  0  0  0  0  0  0  0  0
    2.3565    1.4203    0.0000 H   0  0  0  0  0  0  0  0  0  0  0  0
    2.4937    0.5543    0.0000 H   0  0  0  0  0  0  0  0  0  0  0  0
    3.3597    0.6915    0.0000 H   0  0  0  0  0  0  0  0  0  0  0  0
    7.7213    4.2753    0.0000 H   0  0  0  0  0  0  0  0  0  0  0  0
    8.4027    4.8271    0.0000 H   0  0  0  0  0  0  0  0  0  0  0  0
    7.8509    5.5085    0.0000 H   0  0  0  0  0  0  0  0  0  0  0  0
    6.9512    6.1622    0.0000 H   0  0  0  0  0  0  0  0  0  0  0  0
    6.1326    6.4764    0.0000 H   0  0  0  0  0  0  0  0  0  0  0  0
    5.8184    5.6578    0.0000 H   0  0  0  0  0  0  0  0  0  0  0  0
    6.7500   -0.5357    0.0000 H   0  0  0  0  0  0  0  0  0  0  0  0
    6.6128    0.3304    0.0000 H   0  0  0  0  0  0  0  0  0  0  0  0
    5.7468    0.1932    0.0000 H   0  0  0  0  0  0  0  0  0  0  0  0
    5.5010   -2.1460    0.0000 H   0  0  0  0  0  0  0  0  0  0  0  0
    6.3195   -2.4602    0.0000 H   0  0  0  0  0  0  0  0  0  0  0  0
    6.6338   -1.6416    0.0000 H   0  0  0  0  0  0  0  0  0  0  0  0
    3.4617   -1.6199    0.0000 H   0  0  0  0  0  0  0  0  0  0  0  0
    3.4436    4.8084    0.0000 H   0  0  0  0  0  0  0  0  0  0  0  0
    4.0179    6.1588    0.0000 H   0  0  0  0  0  0  0  0  0  0  0  0
    4.4197    6.5866    0.0000 H   0  0  0  0  0  0  0  0  0  0  0  0
    4.5030    7.3793    0.0000 H   0  0  0  0  0  0  0  0  0  0  0  0
    2.0423    5.8265    0.0000 H   0  0  0  0  0  0  0  0  0  0  0  0
    4.1487    8.1983    0.0000 H   0  0  0  0  0  0  0  0  0  0  0  0
    3.3301    8.5125    0.0000 H   0  0  0  0  0  0  0  0  0  0  0  0
    3.0159    7.6940    0.0000 H   0  0  0  0  0  0  0  0  0  0  0  0
    2.5328   -2.9057    0.0000 H   0  0  0  0  0  0  0  0  0  0  0  0
    4.8002   -6.1362    0.0000 H   0  0  0  0  0  0  0  0  0  0  0  0
    1.9943   -6.1362    0.0000 H   0  0  0  0  0  0  0  0  0  0  0  0
    4.8002   -7.7562    0.0000 H   0  0  0  0  0  0  0  0  0  0  0  0
    1.9943   -7.7562    0.0000 H   0  0  0  0  0  0  0  0  0  0  0  0
  1 35  1  0  0  0  0
  1 36  1  0  0  0  0
  2 19  2  0  0  0  0
  3 21  2  0  0  0  0
  4 24  2  0  0  0  0
  5 31  2  0  0  0  0
  6 32  2  0  0  0  0
 15  7  1  6  0  0  0
  7 19  1  0  0  0  0
  7 49  1  0  0  0  0
 13  8  1  1  0  0  0
  8 21  1  0  0  0  0
  8 50  1  0  0  0  0
 18  9  1  6  0  0  0
  9 31  1  0  0  0  0
  9 70  1  0  0  0  0
 10 24  1  0  0  0  0
 29 10  1  6  0  0  0
 10 71  1  0  0  0  0
 11 34  1  0  0  0  0
 11 36  2  0  0  0  0
 12 40  2  0  0  0  0
 12 41  1  0  0  0  0
 13 14  1  0  0  0  0
 13 19  1  0  0  0  0
 13 42  1  0  0  0  0
 14 22  1  0  0  0  0
 14 23  1  0  0  0  0
 14 43  1  0  0  0  0
 15 16  1  0  0  0  0
 15 24  1  0  0  0  0
 15 44  1  0  0  0  0
 16 17  1  0  0  0  0
 16 45  1  0  0  0  0
 16 46  1  0  0  0  0
 17 25  1  0  0  0  0
 17 26  1  0  0  0  0
 17 47  1  0  0  0  0
 18 20  1  0  0  0  0
 18 21  1  0  0  0  0
 18 48  1  0  0  0  0
 20 27  1  0  0  0  0
 20 28  1  0  0  0  0
 20 51  1  0  0  0  0
 22 52  1  0  0  0  0
 22 53  1  0  0  0  0
 22 54  1  0  0  0  0
 23 55  1  0  0  0  0
 23 56  1  0  0  0  0
 23 57  1  0  0  0  0
 25 58  1  0  0  0  0
 25 59  1  0  0  0  0
 25 60  1  0  0  0  0
 26 61  1  0  0  0  0
 26 62  1  0  0  0  0
 26 63  1  0  0  0  0
 27 64  1  0  0  0  0
 27 65  1  0  0  0  0
 27 66  1  0  0  0  0
 28 67  1  0  0  0  0
 28 68  1  0  0  0  0
 28 69  1  0  0  0  0
 29 30  1  0  0  0  0
 29 32  1  0  0  0  0
 29 72  1  0  0  0  0
 30 33  1  0  0  0  0
 30 73  1  0  0  0  0
 30 74  1  0  0  0  0
 31 34  1  0  0  0  0
 32 75  1  0  0  0  0
 33 76  1  0  0  0  0
 33 77  1  0  0  0  0
 33 78  1  0  0  0  0
 34 35  2  0  0  0  0
 35 79  1  0  0  0  0
 36 37  1  0  0  0  0
 37 38  2  0  0  0  0
 37 39  1  0  0  0  0
 38 40  1  0  0  0  0
 38 80  1  0  0  0  0
 39 41  2  0  0  0  0
 39 81  1  0  0  0  0
 40 82  1  0  0  0  0
 41 83  1  0  0  0  0
M  END
> <PUBCHEM_COMPOUND_CID>
506723
> <PUBCHEM_COMPOUND_CANONICALIZED>
1
> <PUBCHEM_CACTVS_COMPLEXITY>
895
> <PUBCHEM_CACTVS_HBOND_ACCEPTOR>
8
> <PUBCHEM_CACTVS_HBOND_DONOR>
4
> <PUBCHEM_CACTVS_ROTATABLE_BOND>
15
> <PUBCHEM_CACTVS_SUBSKEYS>
AAADcfB7uABAAAAAAAAAAAAAAAAAAWAAAAAsAAAAAAAAAAAB4AAAHgQQAAAADSjl3ga+gZLIEAisAz131ACC8KB3CjgI2LW4ZNgIYPLgkbGUIAhglgDoyIYYAAAOAAAAAAAAAAAAAAAAAAAAAAAAAAAAAA==
> <PUBCHEM_IUPAC_OPENEYE_NAME>
N-[(1S)-1-[[(1S)-1-[[(1S)-1-[[(1S)-1-formylpropyl]carbamoyl]-3-methyl-butyl]carbamoyl]-2-methyl-propyl]carbamoyl]-2-methyl-propyl]-2-(4-pyridyl)thiazole-4-carboxamide
> <PUBCHEM_IUPAC_CAS_NAME>
N-[(2S)-3-methyl-1-[[(2S)-3-methyl-1-[[(2S)-4-methyl-1-oxo-1-[[(2S)-1-oxobutan-2-yl]amino]pentan-2-yl]amino]-1-oxobutan-2-yl]amino]-1-oxobutan-2-yl]-2-pyridin-4-yl-4-thiazolecarboxamide
> <PUBCHEM_IUPAC_NAME_MARKUP>
<I>N</I>-[(2<I>S</I>)-3-methyl-1-[[(2<I>S</I>)-3-methyl-1-[[(2<I>S</I>)-4-methyl-1-oxo-1-[[(2<I>S</I>)-1-oxobutan-2-yl]amino]pentan-2-yl]amino]-1-oxobutan-2-yl]amino]-1-oxobutan-2-yl]-2-pyridin-4-yl-1,3-thiazole-4-carboxamide
> <PUBCHEM_IUPAC_NAME>
N-[(2S)-3-methyl-1-[[(2S)-3-methyl-1-[[(2S)-4-methyl-1-oxo-1-[[(2S)-1-oxobutan-2-yl]amino]pentan-2-yl]amino]-1-oxobutan-2-yl]amino]-1-oxobutan-2-yl]-2-pyridin-4-yl-1,3-thiazole-4-carboxamide
> <PUBCHEM_IUPAC_SYSTEMATIC_NAME>
N-[(2S)-3-methyl-1-[[(2S)-3-methyl-1-[[(2S)-4-methyl-1-oxidanylidene-1-[[(2S)-1-oxidanylidenebutan-2-yl]amino]pentan-2-yl]amino]-1-oxidanylidene-butan-2-yl]amino]-1-oxidanylidene-butan-2-yl]-2-pyridin-4-yl-1,3-thiazole-4-carboxamide
> <PUBCHEM_IUPAC_TRADITIONAL_NAME>
N-[(1S)-1-[[(1S)-1-[[(1S)-1-[[(1S)-1-formylpropyl]carbamoyl]-3-methyl-butyl]carbamoyl]-2-methyl-propyl]carbamoyl]-2-methyl-propyl]-2-(4-pyridyl)thiazole-4-carboxamide
> <PUBCHEM_IUPAC_INCHI>
InChI=1S/C29H42N6O5S/c1-8-20(14-36)31-25(37)21(13-16(2)3)32-27(39)23(17(4)5)35-28(40)24(18(6)7)34-26(38)22-15-41-29(33-22)19-9-11-30-12-10-19/h9-12,14-18,20-21,23-24H,8,13H2,1-7H3,(H,31,37)(H,32,39)(H,34,38)(H,35,40)/t20-,21-,23-,24-/m0/s1
> <PUBCHEM_IUPAC_INCHIKEY>
XWVDPDYKURRTSJ-WMIMKTLMSA-N
> <PUBCHEM_XLOGP3_AA>
4.1
> <PUBCHEM_EXACT_MASS>
586.29373964
> <PUBCHEM_MOLECULAR_FORMULA>
C29H42N6O5S
> <PUBCHEM_MOLECULAR_WEIGHT>
586.7
> <PUBCHEM_OPENEYE_CAN_SMILES>
CCC(C=O)NC(=O)C(CC(C)C)NC(=O)C(C(C)C)NC(=O)C(C(C)C)NC(=O)C1=CSC(=N1)C2=CC=NC=C2
> <PUBCHEM_OPENEYE_ISO_SMILES>
CC[C@@H](C=O)NC(=O)[C@H](CC(C)C)NC(=O)[C@H](C(C)C)NC(=O)[C@H](C(C)C)NC(=O)C1=CSC(=N1)C2=CC=NC=C2
> <PUBCHEM_CACTVS_TPSA>
188
> <PUBCHEM_MONOISOTOPIC_WEIGHT>
586.29373964
> <PUBCHEM_TOTAL_CHARGE>
0
> <PUBCHEM_HEAVY_ATOM_COUNT>
41
> <PUBCHEM_ATOM_DEF_STEREO_COUNT>
4
> <PUBCHEM_ATOM_UDEF_STEREO_COUNT>
0
> <PUBCHEM_BOND_DEF_STEREO_COUNT>
0
> <PUBCHEM_BOND_UDEF_STEREO_COUNT>
0
> <PUBCHEM_ISOTOPIC_ATOM_COUNT>
0
> <PUBCHEM_COMPONENT_COUNT>
1
> <PUBCHEM_CACTVS_TAUTO_COUNT>
-1
> <PUBCHEM_COORDINATE_TYPE>
1
5
255
> <PUBCHEM_BONDANNOTATIONS>
1  35  8
1  36  8
29  10  6
11  34  8
11  36  8
12  40  8
12  41  8
34  35  8
37  38  8
37  39  8
38  40  8
39  41  8
15  7  6
13  8  5
18  9  6
$$$$
