506769
  -OEChem-10302200282D
 72 74  0     1  0  0  0  0  0999 V2000
    3.1360   -2.4791    0.0000 S   0  0  0  0  0  0  0  0  0  0  0  0
    7.4452    0.7528    0.0000 O   0  0  0  0  0  0  0  0  0  0  0  0
    3.1360    0.5209    0.0000 O   0  0  0  0  0  0  0  0  0  0  0  0
    3.2784    1.8755    0.0000 O   0  0  0  0  0  0  0  0  0  0  0  0
    4.1360   -2.4791    0.0000 O   0  0  0  0  0  0  0  0  0  0  0  0
    2.1360   -2.4791    0.0000 O   0  0  0  0  0  0  0  0  0  0  0  0
    3.1590    5.4791    0.0000 O   0  0  0  0  0  0  0  0  0  0  0  0
    4.8680    0.5209    0.0000 N   0  0  0  0  0  0  0  0  0  0  0  0
    3.1360   -1.4791    0.0000 N   0  0  0  0  0  0  0  0  0  0  0  0
    4.4374    3.1627    0.0000 N   0  0  0  0  0  0  0  0  0  0  0  0
    4.9726    1.5154    0.0000 C   0  0  1  0  0  0  0  0  0  0  0  0
    6.4507    0.8573    0.0000 C   0  0  2  0  0  0  0  0  0  0  0  0
    5.9507    1.7233    0.0000 C   0  0  0  0  0  0  0  0  0  0  0  0
    5.7816    0.1142    0.0000 C   0  0  0  0  0  0  0  0  0  0  0  0
    4.0020    0.0209    0.0000 C   0  0  0  0  0  0  0  0  0  0  0  0
    4.0020   -0.9791    0.0000 C   0  0  2  0  0  0  0  0  0  0  0  0
    4.2294    2.1846    0.0000 C   0  0  0  0  0  0  0  0  0  0  0  0
    4.8680   -1.4791    0.0000 C   0  0  0  0  0  0  0  0  0  0  0  0
    8.0330    1.5618    0.0000 C   0  0  0  0  0  0  0  0  0  0  0  0
    5.7341   -0.9791    0.0000 C   0  0  0  0  0  0  0  0  0  0  0  0
    4.8680   -2.4791    0.0000 C   0  0  0  0  0  0  0  0  0  0  0  0
    3.6942    3.8318    0.0000 C   0  0  1  0  0  0  0  0  0  0  0  0
    9.0276    1.4573    0.0000 C   0  0  0  0  0  0  0  0  0  0  0  0
    2.7431    3.5228    0.0000 C   0  0  0  0  0  0  0  0  0  0  0  0
    3.1360   -3.4791    0.0000 C   0  0  0  0  0  0  0  0  0  0  0  0
    3.9021    4.8100    0.0000 C   0  0  0  0  0  0  0  0  0  0  0  0
    2.0000    4.1919    0.0000 C   0  0  0  0  0  0  0  0  0  0  0  0
    9.4343    0.5437    0.0000 C   0  0  0  0  0  0  0  0  0  0  0  0
    9.6153    2.2663    0.0000 C   0  0  0  0  0  0  0  0  0  0  0  0
    2.2700   -3.9791    0.0000 C   0  0  0  0  0  0  0  0  0  0  0  0
    4.0020   -3.9791    0.0000 C   0  0  0  0  0  0  0  0  0  0  0  0
   10.4288    0.4392    0.0000 C   0  0  0  0  0  0  0  0  0  0  0  0
   10.6099    2.1618    0.0000 C   0  0  0  0  0  0  0  0  0  0  0  0
    2.2700   -4.9791    0.0000 C   0  0  0  0  0  0  0  0  0  0  0  0
    4.0020   -4.9791    0.0000 C   0  0  0  0  0  0  0  0  0  0  0  0
   11.0166    1.2482    0.0000 C   0  0  0  0  0  0  0  0  0  0  0  0
    3.1360   -5.4791    0.0000 C   0  0  0  0  0  0  0  0  0  0  0  0
    4.3938    1.2932    0.0000 H   0  0  0  0  0  0  0  0  0  0  0  0
    6.6729    0.2785    0.0000 H   0  0  0  0  0  0  0  0  0  0  0  0
    6.5171    1.9755    0.0000 H   0  0  0  0  0  0  0  0  0  0  0  0
    5.7591    2.3130    0.0000 H   0  0  0  0  0  0  0  0  0  0  0  0
    5.4716   -0.4228    0.0000 H   0  0  0  0  0  0  0  0  0  0  0  0
    6.2832   -0.2503    0.0000 H   0  0  0  0  0  0  0  0  0  0  0  0
    4.0020   -1.5991    0.0000 H   0  0  0  0  0  0  0  0  0  0  0  0
    5.4050   -1.7891    0.0000 H   0  0  0  0  0  0  0  0  0  0  0  0
    2.5991   -1.1691    0.0000 H   0  0  0  0  0  0  0  0  0  0  0  0
    5.0270    3.3543    0.0000 H   0  0  0  0  0  0  0  0  0  0  0  0
    8.2039    2.1578    0.0000 H   0  0  0  0  0  0  0  0  0  0  0  0
    7.4758    1.8336    0.0000 H   0  0  0  0  0  0  0  0  0  0  0  0
    6.0441   -1.5160    0.0000 H   0  0  0  0  0  0  0  0  0  0  0  0
    6.2710   -0.6691    0.0000 H   0  0  0  0  0  0  0  0  0  0  0  0
    5.4241   -0.4422    0.0000 H   0  0  0  0  0  0  0  0  0  0  0  0
    4.2480   -2.4791    0.0000 H   0  0  0  0  0  0  0  0  0  0  0  0
    4.8680   -3.0991    0.0000 H   0  0  0  0  0  0  0  0  0  0  0  0
    5.4880   -2.4791    0.0000 H   0  0  0  0  0  0  0  0  0  0  0  0
    3.5653    3.2254    0.0000 H   0  0  0  0  0  0  0  0  0  0  0  0
    2.2546    3.1411    0.0000 H   0  0  0  0  0  0  0  0  0  0  0  0
    3.0342    2.9754    0.0000 H   0  0  0  0  0  0  0  0  0  0  0  0
    4.4918    5.0016    0.0000 H   0  0  0  0  0  0  0  0  0  0  0  0
    2.4149    4.6527    0.0000 H   0  0  0  0  0  0  0  0  0  0  0  0
    1.5392    4.6068    0.0000 H   0  0  0  0  0  0  0  0  0  0  0  0
    1.5851    3.7312    0.0000 H   0  0  0  0  0  0  0  0  0  0  0  0
    9.0699    0.0421    0.0000 H   0  0  0  0  0  0  0  0  0  0  0  0
    9.3632    2.8327    0.0000 H   0  0  0  0  0  0  0  0  0  0  0  0
    1.7330   -3.6691    0.0000 H   0  0  0  0  0  0  0  0  0  0  0  0
    4.5390   -3.6691    0.0000 H   0  0  0  0  0  0  0  0  0  0  0  0
   10.6810   -0.1272    0.0000 H   0  0  0  0  0  0  0  0  0  0  0  0
   10.9743    2.6633    0.0000 H   0  0  0  0  0  0  0  0  0  0  0  0
    1.7330   -5.2891    0.0000 H   0  0  0  0  0  0  0  0  0  0  0  0
    4.5390   -5.2891    0.0000 H   0  0  0  0  0  0  0  0  0  0  0  0
   11.6332    1.1834    0.0000 H   0  0  0  0  0  0  0  0  0  0  0  0
    3.1360   -6.0991    0.0000 H   0  0  0  0  0  0  0  0  0  0  0  0
  1  5  2  0  0  0  0
  1  6  2  0  0  0  0
  1  9  1  0  0  0  0
  1 25  1  0  0  0  0
 12  2  1  1  0  0  0
  2 19  1  0  0  0  0
  3 15  2  0  0  0  0
  4 17  2  0  0  0  0
  7 26  2  0  0  0  0
  8 11  1  0  0  0  0
  8 14  1  0  0  0  0
  8 15  1  0  0  0  0
 16  9  1  6  0  0  0
  9 46  1  0  0  0  0
 10 17  1  0  0  0  0
 22 10  1  1  0  0  0
 10 47  1  0  0  0  0
 11 13  1  0  0  0  0
 11 17  1  6  0  0  0
 11 38  1  0  0  0  0
 12 13  1  0  0  0  0
 12 14  1  0  0  0  0
 12 39  1  0  0  0  0
 13 40  1  0  0  0  0
 13 41  1  0  0  0  0
 14 42  1  0  0  0  0
 14 43  1  0  0  0  0
 15 16  1  0  0  0  0
 16 18  1  0  0  0  0
 16 44  1  0  0  0  0
 18 20  1  0  0  0  0
 18 21  1  0  0  0  0
 18 45  1  0  0  0  0
 19 23  1  0  0  0  0
 19 48  1  0  0  0  0
 19 49  1  0  0  0  0
 20 50  1  0  0  0  0
 20 51  1  0  0  0  0
 20 52  1  0  0  0  0
 21 53  1  0  0  0  0
 21 54  1  0  0  0  0
 21 55  1  0  0  0  0
 22 24  1  0  0  0  0
 22 26  1  0  0  0  0
 22 56  1  0  0  0  0
 23 28  2  0  0  0  0
 23 29  1  0  0  0  0
 24 27  1  0  0  0  0
 24 57  1  0  0  0  0
 24 58  1  0  0  0  0
 25 30  2  0  0  0  0
 25 31  1  0  0  0  0
 26 59  1  0  0  0  0
 27 60  1  0  0  0  0
 27 61  1  0  0  0  0
 27 62  1  0  0  0  0
 28 32  1  0  0  0  0
 28 63  1  0  0  0  0
 29 33  2  0  0  0  0
 29 64  1  0  0  0  0
 30 34  1  0  0  0  0
 30 65  1  0  0  0  0
 31 35  2  0  0  0  0
 31 66  1  0  0  0  0
 32 36  2  0  0  0  0
 32 67  1  0  0  0  0
 33 36  1  0  0  0  0
 33 68  1  0  0  0  0
 34 37  2  0  0  0  0
 34 69  1  0  0  0  0
 35 37  1  0  0  0  0
 35 70  1  0  0  0  0
 36 71  1  0  0  0  0
 37 72  1  0  0  0  0
M  END
> <PUBCHEM_COMPOUND_CID>
506769
> <PUBCHEM_COMPOUND_CANONICALIZED>
1
> <PUBCHEM_CACTVS_COMPLEXITY>
862
> <PUBCHEM_CACTVS_HBOND_ACCEPTOR>
7
> <PUBCHEM_CACTVS_HBOND_DONOR>
2
> <PUBCHEM_CACTVS_ROTATABLE_BOND>
12
> <PUBCHEM_CACTVS_SUBSKEYS>
AAADcfB7OABAAAAAAAAAAAAAAAAAAWAAAAAwYAAAAAAAAAABQAAAHgQQQAAADTzh2AYyAYPABAKIAilSkHBCABAgAAAIiJmICIgKZjKAsTiXMAAm1gGYqAe6wSAOAAAAAAAAAAAAAAAAAAAAAAAAAAAAAA==
> <PUBCHEM_IUPAC_OPENEYE_NAME>
(2S,4R)-1-[(2S)-2-(benzenesulfonamido)-3-methyl-butanoyl]-4-benzyloxy-N-[(1S)-1-formylpropyl]pyrrolidine-2-carboxamide
> <PUBCHEM_IUPAC_CAS_NAME>
(2S,4R)-1-[(2S)-2-(benzenesulfonamido)-3-methyl-1-oxobutyl]-N-[(2S)-1-oxobutan-2-yl]-4-phenylmethoxy-2-pyrrolidinecarboxamide
> <PUBCHEM_IUPAC_NAME_MARKUP>
(2<I>S</I>,4<I>R</I>)-1-[(2<I>S</I>)-2-(benzenesulfonamido)-3-methylbutanoyl]-<I>N</I>-[(2<I>S</I>)-1-oxobutan-2-yl]-4-phenylmethoxypyrrolidine-2-carboxamide
> <PUBCHEM_IUPAC_NAME>
(2S,4R)-1-[(2S)-2-(benzenesulfonamido)-3-methylbutanoyl]-N-[(2S)-1-oxobutan-2-yl]-4-phenylmethoxypyrrolidine-2-carboxamide
> <PUBCHEM_IUPAC_SYSTEMATIC_NAME>
(2S,4R)-1-[(2S)-3-methyl-2-(phenylsulfonylamino)butanoyl]-N-[(2S)-1-oxidanylidenebutan-2-yl]-4-phenylmethoxy-pyrrolidine-2-carboxamide
> <PUBCHEM_IUPAC_TRADITIONAL_NAME>
(2S,4R)-1-[(2S)-2-(benzenesulfonamido)-3-methyl-butanoyl]-4-benzoxy-N-[(1S)-1-formylpropyl]pyrrolidine-2-carboxamide
> <PUBCHEM_IUPAC_INCHI>
InChI=1S/C27H35N3O6S/c1-4-21(17-31)28-26(32)24-15-22(36-18-20-11-7-5-8-12-20)16-30(24)27(33)25(19(2)3)29-37(34,35)23-13-9-6-10-14-23/h5-14,17,19,21-22,24-25,29H,4,15-16,18H2,1-3H3,(H,28,32)/t21-,22+,24-,25-/m0/s1
> <PUBCHEM_IUPAC_INCHIKEY>
MIOURTBGTJJYHZ-VRUIKYSZSA-N
> <PUBCHEM_XLOGP3_AA>
3.2
> <PUBCHEM_EXACT_MASS>
529.22465702
> <PUBCHEM_MOLECULAR_FORMULA>
C27H35N3O6S
> <PUBCHEM_MOLECULAR_WEIGHT>
529.6
> <PUBCHEM_OPENEYE_CAN_SMILES>
CCC(C=O)NC(=O)C1CC(CN1C(=O)C(C(C)C)NS(=O)(=O)C2=CC=CC=C2)OCC3=CC=CC=C3
> <PUBCHEM_OPENEYE_ISO_SMILES>
CC[C@@H](C=O)NC(=O)[C@@H]1C[C@H](CN1C(=O)[C@H](C(C)C)NS(=O)(=O)C2=CC=CC=C2)OCC3=CC=CC=C3
> <PUBCHEM_CACTVS_TPSA>
130
> <PUBCHEM_MONOISOTOPIC_WEIGHT>
529.22465702
> <PUBCHEM_TOTAL_CHARGE>
0
> <PUBCHEM_HEAVY_ATOM_COUNT>
37
> <PUBCHEM_ATOM_DEF_STEREO_COUNT>
4
> <PUBCHEM_ATOM_UDEF_STEREO_COUNT>
0
> <PUBCHEM_BOND_DEF_STEREO_COUNT>
0
> <PUBCHEM_BOND_UDEF_STEREO_COUNT>
0
> <PUBCHEM_ISOTOPIC_ATOM_COUNT>
0
> <PUBCHEM_COMPONENT_COUNT>
1
> <PUBCHEM_CACTVS_TAUTO_COUNT>
-1
> <PUBCHEM_COORDINATE_TYPE>
1
5
255
> <PUBCHEM_BONDANNOTATIONS>
22  10  5
11  17  6
12  2  5
23  28  8
23  29  8
25  30  8
25  31  8
28  32  8
29  33  8
30  34  8
31  35  8
32  36  8
33  36  8
34  37  8
35  37  8
16  9  6
$$$$
