506701
  -OEChem-10302200282D
 97 99  0     1  0  0  0  0  0999 V2000
    5.2961   -3.3809    0.0000 F   0  0  0  0  0  0  0  0  0  0  0  0
    3.3398   -2.9651    0.0000 F   0  0  0  0  0  0  0  0  0  0  0  0
    6.2679    2.9022    0.0000 O   0  0  0  0  0  0  0  0  0  0  0  0
    8.6234   -0.7138    0.0000 O   0  0  0  0  0  0  0  0  0  0  0  0
    7.3790   -1.2678    0.0000 O   0  0  0  0  0  0  0  0  0  0  0  0
   11.2214    1.7862    0.0000 O   0  0  0  0  0  0  0  0  0  0  0  0
    3.7827   -1.5257    0.0000 O   0  0  0  0  0  0  0  0  0  0  0  0
    3.1590   -4.4602    0.0000 O   0  0  0  0  0  0  0  0  0  0  0  0
   13.8195   -0.7138    0.0000 O   0  0  0  0  0  0  0  0  0  0  0  0
    4.8532   -4.8203    0.0000 O   0  0  0  0  0  0  0  0  0  0  0  0
    7.7573    0.7862    0.0000 N   0  0  0  0  0  0  0  0  0  0  0  0
    5.6848   -0.9077    0.0000 N   0  0  0  0  0  0  0  0  0  0  0  0
   10.3554    0.2862    0.0000 N   0  0  0  0  0  0  0  0  0  0  0  0
   12.9535    0.7862    0.0000 N   0  0  0  0  0  0  0  0  0  0  0  0
   15.5516    0.2862    0.0000 N   0  0  0  0  0  0  0  0  0  0  0  0
   15.5516    2.2862    0.0000 N   0  0  0  0  0  0  0  0  0  0  0  0
    6.8438    0.3795    0.0000 C   0  0  1  0  0  0  0  0  0  0  0  0
    6.6746    1.9886    0.0000 C   0  0  2  0  0  0  0  0  0  0  0  0
    6.1746    1.1226    0.0000 C   0  0  0  0  0  0  0  0  0  0  0  0
    7.6528    1.7807    0.0000 C   0  0  0  0  0  0  0  0  0  0  0  0
    8.6234    0.2862    0.0000 C   0  0  0  0  0  0  0  0  0  0  0  0
    9.4894    0.7862    0.0000 C   0  0  2  0  0  0  0  0  0  0  0  0
    6.6359   -0.5987    0.0000 C   0  0  0  0  0  0  0  0  0  0  0  0
    9.4894    1.7862    0.0000 C   0  0  0  0  0  0  0  0  0  0  0  0
    5.2734    3.0067    0.0000 C   0  0  0  0  0  0  0  0  0  0  0  0
    5.4769   -1.8858    0.0000 C   0  0  1  0  0  0  0  0  0  0  0  0
   10.3554    2.2862    0.0000 C   0  0  0  0  0  0  0  0  0  0  0  0
    8.6234    2.2862    0.0000 C   0  0  0  0  0  0  0  0  0  0  0  0
   11.2214    0.7862    0.0000 C   0  0  0  0  0  0  0  0  0  0  0  0
   12.0875    0.2862    0.0000 C   0  0  2  0  0  0  0  0  0  0  0  0
    6.2200   -2.5550    0.0000 C   0  0  0  0  0  0  0  0  0  0  0  0
   12.0875   -0.7138    0.0000 C   0  0  0  0  0  0  0  0  0  0  0  0
    4.8667    3.9202    0.0000 C   0  0  0  0  0  0  0  0  0  0  0  0
    4.5258   -2.1949    0.0000 C   0  0  0  0  0  0  0  0  0  0  0  0
    6.0121   -3.5331    0.0000 C   0  0  0  0  0  0  0  0  0  0  0  0
   11.2214   -1.2138    0.0000 C   0  0  0  0  0  0  0  0  0  0  0  0
   12.9535   -1.2138    0.0000 C   0  0  0  0  0  0  0  0  0  0  0  0
    4.3179   -3.1730    0.0000 C   0  0  0  0  0  0  0  0  0  0  0  0
    5.4544    4.7293    0.0000 C   0  0  0  0  0  0  0  0  0  0  0  0
    3.8721    4.0248    0.0000 C   0  0  0  0  0  0  0  0  0  0  0  0
   13.8195    0.2862    0.0000 C   0  0  0  0  0  0  0  0  0  0  0  0
    5.0477    5.6428    0.0000 C   0  0  0  0  0  0  0  0  0  0  0  0
    3.4654    4.9383    0.0000 C   0  0  0  0  0  0  0  0  0  0  0  0
    4.1100   -4.1512    0.0000 C   0  0  0  0  0  0  0  0  0  0  0  0
    4.0532    5.7473    0.0000 C   0  0  0  0  0  0  0  0  0  0  0  0
   14.6855    0.7862    0.0000 C   0  0  0  0  0  0  0  0  0  0  0  0
   14.6855    1.7862    0.0000 C   0  0  0  0  0  0  0  0  0  0  0  0
    2.9511   -5.4383    0.0000 C   0  0  0  0  0  0  0  0  0  0  0  0
   16.4176    0.7862    0.0000 C   0  0  0  0  0  0  0  0  0  0  0  0
    2.0000   -5.7473    0.0000 C   0  0  0  0  0  0  0  0  0  0  0  0
   16.4176    1.7862    0.0000 C   0  0  0  0  0  0  0  0  0  0  0  0
    7.3256   -0.0107    0.0000 H   0  0  0  0  0  0  0  0  0  0  0  0
    7.0648    2.4705    0.0000 H   0  0  0  0  0  0  0  0  0  0  0  0
    5.6731    1.4870    0.0000 H   0  0  0  0  0  0  0  0  0  0  0  0
    5.7598    0.6619    0.0000 H   0  0  0  0  0  0  0  0  0  0  0  0
    8.2728    1.7807    0.0000 H   0  0  0  0  0  0  0  0  0  0  0  0
    7.7176    2.3973    0.0000 H   0  0  0  0  0  0  0  0  0  0  0  0
    9.4894    0.1662    0.0000 H   0  0  0  0  0  0  0  0  0  0  0  0
   10.0263    1.4762    0.0000 H   0  0  0  0  0  0  0  0  0  0  0  0
    5.2241   -0.4928    0.0000 H   0  0  0  0  0  0  0  0  0  0  0  0
   10.3554   -0.3338    0.0000 H   0  0  0  0  0  0  0  0  0  0  0  0
    4.6718    2.8567    0.0000 H   0  0  0  0  0  0  0  0  0  0  0  0
    5.3166    2.3882    0.0000 H   0  0  0  0  0  0  0  0  0  0  0  0
    5.0162   -1.4710    0.0000 H   0  0  0  0  0  0  0  0  0  0  0  0
   10.6654    1.7493    0.0000 H   0  0  0  0  0  0  0  0  0  0  0  0
   10.8923    2.5962    0.0000 H   0  0  0  0  0  0  0  0  0  0  0  0
   10.0454    2.8231    0.0000 H   0  0  0  0  0  0  0  0  0  0  0  0
    8.9334    2.8231    0.0000 H   0  0  0  0  0  0  0  0  0  0  0  0
    8.0864    2.5962    0.0000 H   0  0  0  0  0  0  0  0  0  0  0  0
    8.3134    1.7493    0.0000 H   0  0  0  0  0  0  0  0  0  0  0  0
   12.0875    0.9062    0.0000 H   0  0  0  0  0  0  0  0  0  0  0  0
    6.7949   -2.7872    0.0000 H   0  0  0  0  0  0  0  0  0  0  0  0
    6.5486   -2.0292    0.0000 H   0  0  0  0  0  0  0  0  0  0  0  0
   11.5505   -0.4038    0.0000 H   0  0  0  0  0  0  0  0  0  0  0  0
   12.9535    1.4062    0.0000 H   0  0  0  0  0  0  0  0  0  0  0  0
    5.4057   -3.4042    0.0000 H   0  0  0  0  0  0  0  0  0  0  0  0
    5.8832   -4.1396    0.0000 H   0  0  0  0  0  0  0  0  0  0  0  0
    6.6186   -3.6620    0.0000 H   0  0  0  0  0  0  0  0  0  0  0  0
   10.9114   -0.6769    0.0000 H   0  0  0  0  0  0  0  0  0  0  0  0
   10.6845   -1.5238    0.0000 H   0  0  0  0  0  0  0  0  0  0  0  0
   11.5314   -1.7507    0.0000 H   0  0  0  0  0  0  0  0  0  0  0  0
   12.6435   -1.7507    0.0000 H   0  0  0  0  0  0  0  0  0  0  0  0
   13.4904   -1.5238    0.0000 H   0  0  0  0  0  0  0  0  0  0  0  0
   13.2635   -0.6769    0.0000 H   0  0  0  0  0  0  0  0  0  0  0  0
    6.0710    4.6645    0.0000 H   0  0  0  0  0  0  0  0  0  0  0  0
    3.5077    3.5232    0.0000 H   0  0  0  0  0  0  0  0  0  0  0  0
    5.4121    6.1444    0.0000 H   0  0  0  0  0  0  0  0  0  0  0  0
    2.8488    5.0031    0.0000 H   0  0  0  0  0  0  0  0  0  0  0  0
    3.8010    6.3137    0.0000 H   0  0  0  0  0  0  0  0  0  0  0  0
   14.1486    2.0962    0.0000 H   0  0  0  0  0  0  0  0  0  0  0  0
    3.0373   -6.0523    0.0000 H   0  0  0  0  0  0  0  0  0  0  0  0
    3.5707   -5.4600    0.0000 H   0  0  0  0  0  0  0  0  0  0  0  0
   16.9545    0.4762    0.0000 H   0  0  0  0  0  0  0  0  0  0  0  0
    1.8084   -5.1577    0.0000 H   0  0  0  0  0  0  0  0  0  0  0  0
    1.4103   -5.9389    0.0000 H   0  0  0  0  0  0  0  0  0  0  0  0
    2.1916   -6.3370    0.0000 H   0  0  0  0  0  0  0  0  0  0  0  0
   16.9545    2.0962    0.0000 H   0  0  0  0  0  0  0  0  0  0  0  0
  1 38  1  0  0  0  0
  2 38  1  0  0  0  0
 18  3  1  1  0  0  0
  3 25  1  0  0  0  0
  4 21  2  0  0  0  0
  5 23  2  0  0  0  0
  6 29  2  0  0  0  0
  7 34  2  0  0  0  0
  8 44  1  0  0  0  0
  8 48  1  0  0  0  0
  9 41  2  0  0  0  0
 10 44  2  0  0  0  0
 11 17  1  0  0  0  0
 11 20  1  0  0  0  0
 11 21  1  0  0  0  0
 12 23  1  0  0  0  0
 26 12  1  1  0  0  0
 12 60  1  0  0  0  0
 22 13  1  6  0  0  0
 13 29  1  0  0  0  0
 13 61  1  0  0  0  0
 30 14  1  1  0  0  0
 14 41  1  0  0  0  0
 14 75  1  0  0  0  0
 15 46  2  0  0  0  0
 15 49  1  0  0  0  0
 16 47  2  0  0  0  0
 16 51  1  0  0  0  0
 17 19  1  0  0  0  0
 17 23  1  6  0  0  0
 17 52  1  0  0  0  0
 18 19  1  0  0  0  0
 18 20  1  0  0  0  0
 18 53  1  0  0  0  0
 19 54  1  0  0  0  0
 19 55  1  0  0  0  0
 20 56  1  0  0  0  0
 20 57  1  0  0  0  0
 21 22  1  0  0  0  0
 22 24  1  0  0  0  0
 22 58  1  0  0  0  0
 24 27  1  0  0  0  0
 24 28  1  0  0  0  0
 24 59  1  0  0  0  0
 25 33  1  0  0  0  0
 25 62  1  0  0  0  0
 25 63  1  0  0  0  0
 26 31  1  0  0  0  0
 26 34  1  0  0  0  0
 26 64  1  0  0  0  0
 27 65  1  0  0  0  0
 27 66  1  0  0  0  0
 27 67  1  0  0  0  0
 28 68  1  0  0  0  0
 28 69  1  0  0  0  0
 28 70  1  0  0  0  0
 29 30  1  0  0  0  0
 30 32  1  0  0  0  0
 30 71  1  0  0  0  0
 31 35  1  0  0  0  0
 31 72  1  0  0  0  0
 31 73  1  0  0  0  0
 32 36  1  0  0  0  0
 32 37  1  0  0  0  0
 32 74  1  0  0  0  0
 33 39  2  0  0  0  0
 33 40  1  0  0  0  0
 34 38  1  0  0  0  0
 35 76  1  0  0  0  0
 35 77  1  0  0  0  0
 35 78  1  0  0  0  0
 36 79  1  0  0  0  0
 36 80  1  0  0  0  0
 36 81  1  0  0  0  0
 37 82  1  0  0  0  0
 37 83  1  0  0  0  0
 37 84  1  0  0  0  0
 38 44  1  0  0  0  0
 39 42  1  0  0  0  0
 39 85  1  0  0  0  0
 40 43  2  0  0  0  0
 40 86  1  0  0  0  0
 41 46  1  0  0  0  0
 42 45  2  0  0  0  0
 42 87  1  0  0  0  0
 43 45  1  0  0  0  0
 43 88  1  0  0  0  0
 45 89  1  0  0  0  0
 46 47  1  0  0  0  0
 47 90  1  0  0  0  0
 48 50  1  0  0  0  0
 48 91  1  0  0  0  0
 48 92  1  0  0  0  0
 49 51  2  0  0  0  0
 49 93  1  0  0  0  0
 50 94  1  0  0  0  0
 50 95  1  0  0  0  0
 50 96  1  0  0  0  0
 51 97  1  0  0  0  0
M  END
> <PUBCHEM_COMPOUND_CID>
506701
> <PUBCHEM_COMPOUND_CANONICALIZED>
1
> <PUBCHEM_CACTVS_COMPLEXITY>
1230
> <PUBCHEM_CACTVS_HBOND_ACCEPTOR>
12
> <PUBCHEM_CACTVS_HBOND_DONOR>
3
> <PUBCHEM_CACTVS_ROTATABLE_BOND>
18
> <PUBCHEM_CACTVS_SUBSKEYS>
AAADcfB/vYAAAAAAAAAAAAAAAAAAAWAAAAA8QAAAAAAAAAABwAAAHwAQAAAADTzhnhY+iJPIFACoA7X3XACCgCQ3EiAI2IG4fMgKZn7I8TiXMIgm9gHYqMe+ySAOAAAAAAAAAAAAAAAAAAAAAAAAAAAAAA==
> <PUBCHEM_IUPAC_OPENEYE_NAME>
ethyl (4S)-4-[[(2S,4R)-4-benzyloxy-1-[(2S)-3-methyl-2-[[(2S)-3-methyl-2-(pyrazine-2-carbonylamino)butanoyl]amino]butanoyl]pyrrolidine-2-carbonyl]amino]-2,2-difluoro-3-oxo-hexanoate
> <PUBCHEM_IUPAC_CAS_NAME>
(4S)-2,2-difluoro-4-[[[(2S,4R)-1-[(2S)-3-methyl-2-[[(2S)-3-methyl-1-oxo-2-[[oxo(2-pyrazinyl)methyl]amino]butyl]amino]-1-oxobutyl]-4-phenylmethoxy-2-pyrrolidinyl]-oxomethyl]amino]-3-oxohexanoic acid ethyl ester
> <PUBCHEM_IUPAC_NAME_MARKUP>
ethyl (4<I>S</I>)-2,2-difluoro-4-[[(2<I>S</I>,4<I>R</I>)-1-[(2<I>S</I>)-3-methyl-2-[[(2<I>S</I>)-3-methyl-2-(pyrazine-2-carbonylamino)butanoyl]amino]butanoyl]-4-phenylmethoxypyrrolidine-2-carbonyl]amino]-3-oxohexanoate
> <PUBCHEM_IUPAC_NAME>
ethyl (4S)-2,2-difluoro-4-[[(2S,4R)-1-[(2S)-3-methyl-2-[[(2S)-3-methyl-2-(pyrazine-2-carbonylamino)butanoyl]amino]butanoyl]-4-phenylmethoxypyrrolidine-2-carbonyl]amino]-3-oxohexanoate
> <PUBCHEM_IUPAC_SYSTEMATIC_NAME>
ethyl (4S)-2,2-bis(fluoranyl)-4-[[(2S,4R)-1-[(2S)-3-methyl-2-[[(2S)-3-methyl-2-(pyrazin-2-ylcarbonylamino)butanoyl]amino]butanoyl]-4-phenylmethoxy-pyrrolidin-2-yl]carbonylamino]-3-oxidanylidene-hexanoate
> <PUBCHEM_IUPAC_TRADITIONAL_NAME>
(4S)-4-[[(2S,4R)-4-benzoxy-1-[(2S)-3-methyl-2-[[(2S)-3-methyl-2-(pyrazinoylamino)butanoyl]amino]butanoyl]prolyl]amino]-2,2-difluoro-3-keto-hexanoic acid ethyl ester
> <PUBCHEM_IUPAC_INCHI>
InChI=1S/C35H46F2N6O8/c1-7-24(29(44)35(36,37)34(49)50-8-2)40-31(46)26-16-23(51-19-22-12-10-9-11-13-22)18-43(26)33(48)28(21(5)6)42-32(47)27(20(3)4)41-30(45)25-17-38-14-15-39-25/h9-15,17,20-21,23-24,26-28H,7-8,16,18-19H2,1-6H3,(H,40,46)(H,41,45)(H,42,47)/t23-,24+,26+,27+,28+/m1/s1
> <PUBCHEM_IUPAC_INCHIKEY>
JULAWQJIKYMGPR-TURAVAODSA-N
> <PUBCHEM_XLOGP3_AA>
3.7
> <PUBCHEM_EXACT_MASS>
716.33451877
> <PUBCHEM_MOLECULAR_FORMULA>
C35H46F2N6O8
> <PUBCHEM_MOLECULAR_WEIGHT>
716.8
> <PUBCHEM_OPENEYE_CAN_SMILES>
CCC(C(=O)C(C(=O)OCC)(F)F)NC(=O)C1CC(CN1C(=O)C(C(C)C)NC(=O)C(C(C)C)NC(=O)C2=NC=CN=C2)OCC3=CC=CC=C3
> <PUBCHEM_OPENEYE_ISO_SMILES>
CC[C@@H](C(=O)C(C(=O)OCC)(F)F)NC(=O)[C@@H]1C[C@H](CN1C(=O)[C@H](C(C)C)NC(=O)[C@H](C(C)C)NC(=O)C2=NC=CN=C2)OCC3=CC=CC=C3
> <PUBCHEM_CACTVS_TPSA>
186
> <PUBCHEM_MONOISOTOPIC_WEIGHT>
716.33451877
> <PUBCHEM_TOTAL_CHARGE>
0
> <PUBCHEM_HEAVY_ATOM_COUNT>
51
> <PUBCHEM_ATOM_DEF_STEREO_COUNT>
5
> <PUBCHEM_ATOM_UDEF_STEREO_COUNT>
0
> <PUBCHEM_BOND_DEF_STEREO_COUNT>
0
> <PUBCHEM_BOND_UDEF_STEREO_COUNT>
0
> <PUBCHEM_ISOTOPIC_ATOM_COUNT>
0
> <PUBCHEM_COMPONENT_COUNT>
1
> <PUBCHEM_CACTVS_TAUTO_COUNT>
-1
> <PUBCHEM_COORDINATE_TYPE>
1
5
255
> <PUBCHEM_BONDANNOTATIONS>
26  12  5
22  13  6
30  14  5
15  46  8
15  49  8
16  47  8
16  51  8
17  23  6
18  3  5
33  39  8
33  40  8
39  42  8
40  43  8
42  45  8
43  45  8
46  47  8
49  51  8
$$$$
