506751
  -OEChem-10302200282D
111112  0     1  0  0  0  0  0999 V2000
    4.2947   -6.4384    0.0000 Cl  0  0  0  0  0  0  0  0  0  0  0  0
    7.7588   -6.4384    0.0000 Cl  0  0  0  0  0  0  0  0  0  0  0  0
    6.5659    0.5636    0.0000 O   0  0  0  0  0  0  0  0  0  0  0  0
    7.1983    4.1133    0.0000 O   0  0  0  0  0  0  0  0  0  0  0  0
    6.1591   -0.3499    0.0000 O   0  0  0  0  0  0  0  0  0  0  0  0
   10.7696    3.6179    0.0000 O   0  0  0  0  0  0  0  0  0  0  0  0
    3.9444   -3.1951    0.0000 O   0  0  0  0  0  0  0  0  0  0  0  0
    5.2177   -4.8506    0.0000 O   0  0  0  0  0  0  0  0  0  0  0  0
   11.7642    3.7224    0.0000 O   0  0  0  0  0  0  0  0  0  0  0  0
    9.8198    7.8720    0.0000 O   0  0  0  0  0  0  0  0  0  0  0  0
   11.4021    7.1675    0.0000 O   0  0  0  0  0  0  0  0  0  0  0  0
   15.9679    6.7766    0.0000 O   0  0  0  0  0  0  0  0  0  0  0  0
   14.3856    7.4811    0.0000 O   0  0  0  0  0  0  0  0  0  0  0  0
    7.3794    2.3907    0.0000 N   0  0  0  0  0  0  0  0  0  0  0  0
    4.9836    1.2681    0.0000 N   0  0  0  0  0  0  0  0  0  0  0  0
    9.1873    4.3224    0.0000 N   0  0  0  0  0  0  0  0  0  0  0  0
    4.7579   -1.3680    0.0000 N   0  0  0  0  0  0  0  0  0  0  0  0
   11.5831    5.4450    0.0000 N   0  0  0  0  0  0  0  0  0  0  0  0
   13.7532    3.9314    0.0000 N   0  0  0  0  0  0  0  0  0  0  0  0
    6.5267   -3.8996    0.0000 N   0  0  0  0  0  0  0  0  0  0  0  0
    6.3848    2.2862    0.0000 C   0  0  1  0  0  0  0  0  0  0  0  0
    5.7970    3.0952    0.0000 C   0  0  0  0  0  0  0  0  0  0  0  0
    4.5768    0.3546    0.0000 C   0  0  1  0  0  0  0  0  0  0  0  0
    3.5823    0.2501    0.0000 C   0  0  0  0  0  0  0  0  0  0  0  0
    8.7806    3.4088    0.0000 C   0  0  1  0  0  0  0  0  0  0  0  0
    2.9945    1.0591    0.0000 C   0  0  0  0  0  0  0  0  0  0  0  0
    9.3684    2.5998    0.0000 C   0  0  0  0  0  0  0  0  0  0  0  0
    5.9781    1.3727    0.0000 C   0  0  0  0  0  0  0  0  0  0  0  0
    7.7861    3.3043    0.0000 C   0  0  0  0  0  0  0  0  0  0  0  0
    6.2038    4.0088    0.0000 C   0  0  0  0  0  0  0  0  0  0  0  0
    4.8025    2.9907    0.0000 C   0  0  0  0  0  0  0  0  0  0  0  0
    5.1646   -0.4544    0.0000 C   0  0  0  0  0  0  0  0  0  0  0  0
    2.0000    0.9545    0.0000 C   0  0  0  0  0  0  0  0  0  0  0  0
    3.4013    1.9726    0.0000 C   0  0  0  0  0  0  0  0  0  0  0  0
   10.3629    2.7043    0.0000 C   0  0  0  0  0  0  0  0  0  0  0  0
    8.9616    1.6862    0.0000 C   0  0  0  0  0  0  0  0  0  0  0  0
    5.3457   -2.1770    0.0000 C   0  0  1  0  0  0  0  0  0  0  0  0
   10.5886    5.3404    0.0000 C   0  0  2  0  0  0  0  0  0  0  0  0
   10.1819    4.4269    0.0000 C   0  0  0  0  0  0  0  0  0  0  0  0
    6.3402   -2.0725    0.0000 C   0  0  0  0  0  0  0  0  0  0  0  0
   10.0008    6.1494    0.0000 C   0  0  0  0  0  0  0  0  0  0  0  0
    4.9389   -3.0905    0.0000 C   0  0  0  0  0  0  0  0  0  0  0  0
    6.7469   -1.1589    0.0000 C   0  0  0  0  0  0  0  0  0  0  0  0
   13.1654    4.7405    0.0000 C   0  0  2  0  0  0  0  0  0  0  0  0
   12.1709    4.6359    0.0000 C   0  0  0  0  0  0  0  0  0  0  0  0
   13.5722    5.6540    0.0000 C   0  0  0  0  0  0  0  0  0  0  0  0
    5.5267   -3.8996    0.0000 C   0  0  0  0  0  0  0  0  0  0  0  0
   10.4076    7.0630    0.0000 C   0  0  0  0  0  0  0  0  0  0  0  0
   14.5667    5.7585    0.0000 C   0  0  0  0  0  0  0  0  0  0  0  0
    6.0267   -5.4384    0.0000 C   0  0  0  0  0  0  0  0  0  0  0  0
    6.8357   -4.8506    0.0000 C   0  0  0  0  0  0  0  0  0  0  0  0
   14.9734    6.6721    0.0000 C   0  0  0  0  0  0  0  0  0  0  0  0
    6.0267   -6.4384    0.0000 C   0  0  0  0  0  0  0  0  0  0  0  0
    5.1607   -6.9384    0.0000 C   0  0  0  0  0  0  0  0  0  0  0  0
    6.8927   -6.9384    0.0000 C   0  0  0  0  0  0  0  0  0  0  0  0
    5.1607   -7.9384    0.0000 C   0  0  0  0  0  0  0  0  0  0  0  0
    6.8927   -7.9384    0.0000 C   0  0  0  0  0  0  0  0  0  0  0  0
    6.0267   -8.4384    0.0000 C   0  0  0  0  0  0  0  0  0  0  0  0
    6.7492    1.7846    0.0000 H   0  0  0  0  0  0  0  0  0  0  0  0
    6.4136    3.1600    0.0000 H   0  0  0  0  0  0  0  0  0  0  0  0
    4.2124    0.8562    0.0000 H   0  0  0  0  0  0  0  0  0  0  0  0
    3.0250   -0.0217    0.0000 H   0  0  0  0  0  0  0  0  0  0  0  0
    3.7532   -0.3459    0.0000 H   0  0  0  0  0  0  0  0  0  0  0  0
    8.4162    3.9104    0.0000 H   0  0  0  0  0  0  0  0  0  0  0  0
    2.7424    0.4927    0.0000 H   0  0  0  0  0  0  0  0  0  0  0  0
    9.6206    3.1662    0.0000 H   0  0  0  0  0  0  0  0  0  0  0  0
    7.7438    1.8891    0.0000 H   0  0  0  0  0  0  0  0  0  0  0  0
    4.6191    1.7697    0.0000 H   0  0  0  0  0  0  0  0  0  0  0  0
    6.7702    3.7566    0.0000 H   0  0  0  0  0  0  0  0  0  0  0  0
    6.4559    4.5752    0.0000 H   0  0  0  0  0  0  0  0  0  0  0  0
    5.6374    4.2609    0.0000 H   0  0  0  0  0  0  0  0  0  0  0  0
    4.7377    3.6073    0.0000 H   0  0  0  0  0  0  0  0  0  0  0  0
    4.1859    2.9259    0.0000 H   0  0  0  0  0  0  0  0  0  0  0  0
    4.8673    2.3741    0.0000 H   0  0  0  0  0  0  0  0  0  0  0  0
    8.8229    4.8239    0.0000 H   0  0  0  0  0  0  0  0  0  0  0  0
    1.9352    1.5712    0.0000 H   0  0  0  0  0  0  0  0  0  0  0  0
    1.3834    0.8897    0.0000 H   0  0  0  0  0  0  0  0  0  0  0  0
    2.0648    0.3379    0.0000 H   0  0  0  0  0  0  0  0  0  0  0  0
    3.9677    1.7204    0.0000 H   0  0  0  0  0  0  0  0  0  0  0  0
    3.6534    2.5390    0.0000 H   0  0  0  0  0  0  0  0  0  0  0  0
    2.8349    2.2248    0.0000 H   0  0  0  0  0  0  0  0  0  0  0  0
   10.4277    2.0877    0.0000 H   0  0  0  0  0  0  0  0  0  0  0  0
   10.9795    2.7691    0.0000 H   0  0  0  0  0  0  0  0  0  0  0  0
   10.2981    3.3209    0.0000 H   0  0  0  0  0  0  0  0  0  0  0  0
    8.3953    1.9384    0.0000 H   0  0  0  0  0  0  0  0  0  0  0  0
    8.7095    1.1198    0.0000 H   0  0  0  0  0  0  0  0  0  0  0  0
    9.5280    1.4341    0.0000 H   0  0  0  0  0  0  0  0  0  0  0  0
    4.1413   -1.4328    0.0000 H   0  0  0  0  0  0  0  0  0  0  0  0
    5.5978   -1.6106    0.0000 H   0  0  0  0  0  0  0  0  0  0  0  0
   10.9530    4.8388    0.0000 H   0  0  0  0  0  0  0  0  0  0  0  0
    6.2969   -2.6910    0.0000 H   0  0  0  0  0  0  0  0  0  0  0  0
    6.9418   -2.2225    0.0000 H   0  0  0  0  0  0  0  0  0  0  0  0
    9.4868    6.4961    0.0000 H   0  0  0  0  0  0  0  0  0  0  0  0
    9.5701    5.7034    0.0000 H   0  0  0  0  0  0  0  0  0  0  0  0
   11.8353    6.0114    0.0000 H   0  0  0  0  0  0  0  0  0  0  0  0
   13.7820    4.8053    0.0000 H   0  0  0  0  0  0  0  0  0  0  0  0
    7.3133   -1.4111    0.0000 H   0  0  0  0  0  0  0  0  0  0  0  0
    6.9991   -0.5925    0.0000 H   0  0  0  0  0  0  0  0  0  0  0  0
    6.1805   -0.9067    0.0000 H   0  0  0  0  0  0  0  0  0  0  0  0
   13.6154    6.2725    0.0000 H   0  0  0  0  0  0  0  0  0  0  0  0
   12.9706    5.8040    0.0000 H   0  0  0  0  0  0  0  0  0  0  0  0
   14.5234    5.1400    0.0000 H   0  0  0  0  0  0  0  0  0  0  0  0
   15.1683    5.6086    0.0000 H   0  0  0  0  0  0  0  0  0  0  0  0
   14.3698    3.9962    0.0000 H   0  0  0  0  0  0  0  0  0  0  0  0
   13.5010    3.3650    0.0000 H   0  0  0  0  0  0  0  0  0  0  0  0
    7.4254   -5.0422    0.0000 H   0  0  0  0  0  0  0  0  0  0  0  0
   10.0719    8.4384    0.0000 H   0  0  0  0  0  0  0  0  0  0  0  0
   16.2201    7.3430    0.0000 H   0  0  0  0  0  0  0  0  0  0  0  0
    4.6238   -8.2484    0.0000 H   0  0  0  0  0  0  0  0  0  0  0  0
    7.4297   -8.2484    0.0000 H   0  0  0  0  0  0  0  0  0  0  0  0
    6.0267   -9.0584    0.0000 H   0  0  0  0  0  0  0  0  0  0  0  0
  1 54  1  0  0  0  0
  2 55  1  0  0  0  0
  3 28  2  0  0  0  0
  4 29  2  0  0  0  0
  5 32  2  0  0  0  0
  6 39  2  0  0  0  0
  7 42  2  0  0  0  0
  8 47  1  0  0  0  0
  8 50  1  0  0  0  0
  9 45  2  0  0  0  0
 10 48  1  0  0  0  0
 10107  1  0  0  0  0
 11 48  2  0  0  0  0
 12 52  1  0  0  0  0
 12108  1  0  0  0  0
 13 52  2  0  0  0  0
 21 14  1  6  0  0  0
 14 29  1  0  0  0  0
 14 67  1  0  0  0  0
 23 15  1  6  0  0  0
 15 28  1  0  0  0  0
 15 68  1  0  0  0  0
 25 16  1  1  0  0  0
 16 39  1  0  0  0  0
 16 75  1  0  0  0  0
 17 32  1  0  0  0  0
 37 17  1  1  0  0  0
 17 88  1  0  0  0  0
 38 18  1  6  0  0  0
 18 45  1  0  0  0  0
 18 95  1  0  0  0  0
 44 19  1  6  0  0  0
 19104  1  0  0  0  0
 19105  1  0  0  0  0
 20 47  2  0  0  0  0
 20 51  1  0  0  0  0
 21 22  1  0  0  0  0
 21 28  1  0  0  0  0
 21 59  1  0  0  0  0
 22 30  1  0  0  0  0
 22 31  1  0  0  0  0
 22 60  1  0  0  0  0
 23 24  1  0  0  0  0
 23 32  1  0  0  0  0
 23 61  1  0  0  0  0
 24 26  1  0  0  0  0
 24 62  1  0  0  0  0
 24 63  1  0  0  0  0
 25 27  1  0  0  0  0
 25 29  1  0  0  0  0
 25 64  1  0  0  0  0
 26 33  1  0  0  0  0
 26 34  1  0  0  0  0
 26 65  1  0  0  0  0
 27 35  1  0  0  0  0
 27 36  1  0  0  0  0
 27 66  1  0  0  0  0
 30 69  1  0  0  0  0
 30 70  1  0  0  0  0
 30 71  1  0  0  0  0
 31 72  1  0  0  0  0
 31 73  1  0  0  0  0
 31 74  1  0  0  0  0
 33 76  1  0  0  0  0
 33 77  1  0  0  0  0
 33 78  1  0  0  0  0
 34 79  1  0  0  0  0
 34 80  1  0  0  0  0
 34 81  1  0  0  0  0
 35 82  1  0  0  0  0
 35 83  1  0  0  0  0
 35 84  1  0  0  0  0
 36 85  1  0  0  0  0
 36 86  1  0  0  0  0
 36 87  1  0  0  0  0
 37 40  1  0  0  0  0
 37 42  1  0  0  0  0
 37 89  1  0  0  0  0
 38 39  1  0  0  0  0
 38 41  1  0  0  0  0
 38 90  1  0  0  0  0
 40 43  1  0  0  0  0
 40 91  1  0  0  0  0
 40 92  1  0  0  0  0
 41 48  1  0  0  0  0
 41 93  1  0  0  0  0
 41 94  1  0  0  0  0
 42 47  1  0  0  0  0
 43 97  1  0  0  0  0
 43 98  1  0  0  0  0
 43 99  1  0  0  0  0
 44 45  1  0  0  0  0
 44 46  1  0  0  0  0
 44 96  1  0  0  0  0
 46 49  1  0  0  0  0
 46100  1  0  0  0  0
 46101  1  0  0  0  0
 49 52  1  0  0  0  0
 49102  1  0  0  0  0
 49103  1  0  0  0  0
 50 51  2  0  0  0  0
 50 53  1  0  0  0  0
 51106  1  0  0  0  0
 53 54  2  0  0  0  0
 53 55  1  0  0  0  0
 54 56  1  0  0  0  0
 55 57  2  0  0  0  0
 56 58  2  0  0  0  0
 56109  1  0  0  0  0
 57 58  1  0  0  0  0
 57110  1  0  0  0  0
 58111  1  0  0  0  0
M  END
> <PUBCHEM_COMPOUND_CID>
506751
> <PUBCHEM_COMPOUND_CANONICALIZED>
1
> <PUBCHEM_CACTVS_COMPLEXITY>
1460
> <PUBCHEM_CACTVS_HBOND_ACCEPTOR>
13
> <PUBCHEM_CACTVS_HBOND_DONOR>
8
> <PUBCHEM_CACTVS_ROTATABLE_BOND>
23
> <PUBCHEM_CACTVS_SUBSKEYS>
AAADcfB/vAAGAAAAAAAAAAAAAAAAAWAAAAAwAAAAAAAAAAABwAAAHgIQCAAADS7BmiQ+jJLIFkCoArH3XAYCiCA/RSAI2IHrSsgOZjrB9z2feQCm1gHY7Qe/36KOAAAAAACBAAAAAAAAAQIAAAAAAAAAAA==
> <PUBCHEM_IUPAC_OPENEYE_NAME>
(4S)-4-amino-5-[[(1S)-1-(carboxymethyl)-2-[[(1S)-1-[[(1S)-1-[[(1S)-1-[[(1S)-1-[5-(2,6-dichlorophenyl)oxazole-2-carbonyl]propyl]carbamoyl]-3-methyl-butyl]carbamoyl]-2-methyl-propyl]carbamoyl]-2-methyl-propyl]amino]-2-oxo-ethyl]amino]-5-oxo-pentanoic acid
> <PUBCHEM_IUPAC_CAS_NAME>
(4S)-4-amino-5-[[(2S)-3-carboxy-1-[[(2S)-1-[[(2S)-1-[[(2S)-1-[[(2S)-1-[5-(2,6-dichlorophenyl)-2-oxazolyl]-1-oxobutan-2-yl]amino]-4-methyl-1-oxopentan-2-yl]amino]-3-methyl-1-oxobutan-2-yl]amino]-3-methyl-1-oxobutan-2-yl]amino]-1-oxopropan-2-yl]amino]-5-oxopentanoic acid
> <PUBCHEM_IUPAC_NAME_MARKUP>
(4<I>S</I>)-4-amino-5-[[(2<I>S</I>)-3-carboxy-1-[[(2<I>S</I>)-1-[[(2<I>S</I>)-1-[[(2<I>S</I>)-1-[[(2<I>S</I>)-1-[5-(2,6-dichlorophenyl)-1,3-oxazol-2-yl]-1-oxobutan-2-yl]amino]-4-methyl-1-oxopentan-2-yl]amino]-3-methyl-1-oxobutan-2-yl]amino]-3-methyl-1-oxobutan-2-yl]amino]-1-oxopropan-2-yl]amino]-5-oxopentanoic acid
> <PUBCHEM_IUPAC_NAME>
(4S)-4-amino-5-[[(2S)-3-carboxy-1-[[(2S)-1-[[(2S)-1-[[(2S)-1-[[(2S)-1-[5-(2,6-dichlorophenyl)-1,3-oxazol-2-yl]-1-oxobutan-2-yl]amino]-4-methyl-1-oxopentan-2-yl]amino]-3-methyl-1-oxobutan-2-yl]amino]-3-methyl-1-oxobutan-2-yl]amino]-1-oxopropan-2-yl]amino]-5-oxopentanoic acid
> <PUBCHEM_IUPAC_SYSTEMATIC_NAME>
(4S)-4-azanyl-5-[[(2S)-1-[[(2S)-1-[[(2S)-1-[[(2S)-1-[[(2S)-1-[5-[2,6-bis(chloranyl)phenyl]-1,3-oxazol-2-yl]-1-oxidanylidene-butan-2-yl]amino]-4-methyl-1-oxidanylidene-pentan-2-yl]amino]-3-methyl-1-oxidanylidene-butan-2-yl]amino]-3-methyl-1-oxidanylidene-butan-2-yl]amino]-4-oxidanyl-1,4-bis(oxidanylidene)butan-2-yl]amino]-5-oxidanylidene-pentanoic acid
> <PUBCHEM_IUPAC_TRADITIONAL_NAME>
(4S)-4-amino-5-[[(1S)-1-(carboxymethyl)-2-[[(1S)-1-[[(1S)-1-[[(1S)-1-[[(1S)-1-[5-(2,6-dichlorophenyl)oxazole-2-carbonyl]propyl]carbamoyl]-3-methyl-butyl]carbamoyl]-2-methyl-propyl]carbamoyl]-2-methyl-propyl]amino]-2-keto-ethyl]amino]-5-keto-valeric acid
> <PUBCHEM_IUPAC_INCHI>
InChI=1S/C38H53Cl2N7O11/c1-8-23(32(52)38-42-16-26(58-38)29-20(39)10-9-11-21(29)40)43-34(54)24(14-17(2)3)45-36(56)30(18(4)5)47-37(57)31(19(6)7)46-35(55)25(15-28(50)51)44-33(53)22(41)12-13-27(48)49/h9-11,16-19,22-25,30-31H,8,12-15,41H2,1-7H3,(H,43,54)(H,44,53)(H,45,56)(H,46,55)(H,47,57)(H,48,49)(H,50,51)/t22-,23-,24-,25-,30-,31-/m0/s1
> <PUBCHEM_IUPAC_INCHIKEY>
VXNOEERQRKPLCX-HKSHTPPISA-N
> <PUBCHEM_XLOGP3_AA>
1.6
> <PUBCHEM_EXACT_MASS>
853.3180109
> <PUBCHEM_MOLECULAR_FORMULA>
C38H53Cl2N7O11
> <PUBCHEM_MOLECULAR_WEIGHT>
854.8
> <PUBCHEM_OPENEYE_CAN_SMILES>
CCC(C(=O)C1=NC=C(O1)C2=C(C=CC=C2Cl)Cl)NC(=O)C(CC(C)C)NC(=O)C(C(C)C)NC(=O)C(C(C)C)NC(=O)C(CC(=O)O)NC(=O)C(CCC(=O)O)N
> <PUBCHEM_OPENEYE_ISO_SMILES>
CC[C@@H](C(=O)C1=NC=C(O1)C2=C(C=CC=C2Cl)Cl)NC(=O)[C@H](CC(C)C)NC(=O)[C@H](C(C)C)NC(=O)[C@H](C(C)C)NC(=O)[C@H](CC(=O)O)NC(=O)[C@H](CCC(=O)O)N
> <PUBCHEM_CACTVS_TPSA>
289
> <PUBCHEM_MONOISOTOPIC_WEIGHT>
853.3180109
> <PUBCHEM_TOTAL_CHARGE>
0
> <PUBCHEM_HEAVY_ATOM_COUNT>
58
> <PUBCHEM_ATOM_DEF_STEREO_COUNT>
6
> <PUBCHEM_ATOM_UDEF_STEREO_COUNT>
0
> <PUBCHEM_BOND_DEF_STEREO_COUNT>
0
> <PUBCHEM_BOND_UDEF_STEREO_COUNT>
0
> <PUBCHEM_ISOTOPIC_ATOM_COUNT>
0
> <PUBCHEM_COMPONENT_COUNT>
1
> <PUBCHEM_CACTVS_TAUTO_COUNT>
-1
> <PUBCHEM_COORDINATE_TYPE>
1
5
255
> <PUBCHEM_BONDANNOTATIONS>
21  14  6
23  15  6
25  16  5
37  17  5
38  18  6
44  19  6
20  47  8
20  51  8
50  51  8
53  54  8
53  55  8
54  56  8
55  57  8
56  58  8
57  58  8
8  47  8
8  50  8
$$$$
