506761
  -OEChem-10302200282D
 95 98  0     1  0  0  0  0  0999 V2000
    5.5714    1.0028    0.0000 O   0  0  0  0  0  0  0  0  0  0  0  0
    9.8806    0.7709    0.0000 O   0  0  0  0  0  0  0  0  0  0  0  0
    9.0146   -2.7291    0.0000 O   0  0  0  0  0  0  0  0  0  0  0  0
    9.7382    2.1255    0.0000 O   0  0  0  0  0  0  0  0  0  0  0  0
   12.4787   -3.7291    0.0000 O   0  0  0  0  0  0  0  0  0  0  0  0
    9.8576    5.7291    0.0000 O   0  0  0  0  0  0  0  0  0  0  0  0
    8.1486    0.7709    0.0000 N   0  0  0  0  0  0  0  0  0  0  0  0
    9.8806   -1.2291    0.0000 N   0  0  0  0  0  0  0  0  0  0  0  0
   11.6127   -2.2291    0.0000 N   0  0  0  0  0  0  0  0  0  0  0  0
    8.5792    3.4127    0.0000 N   0  0  0  0  0  0  0  0  0  0  0  0
   14.2107   -2.7291    0.0000 N   0  0  0  0  0  0  0  0  0  0  0  0
   14.2107   -0.7291    0.0000 N   0  0  0  0  0  0  0  0  0  0  0  0
    9.8806   -4.2291    0.0000 C   0  0  0  0  0  0  0  0  0  0  0  0
    9.0146   -3.7291    0.0000 C   0  0  0  0  0  0  0  0  0  0  0  0
    9.8806   -5.2291    0.0000 C   0  0  0  0  0  0  0  0  0  0  0  0
   10.7466   -3.7291    0.0000 C   0  0  0  0  0  0  0  0  0  0  0  0
    8.0440    1.7654    0.0000 C   0  0  1  0  0  0  0  0  0  0  0  0
    8.1486   -4.2291    0.0000 C   0  0  0  0  0  0  0  0  0  0  0  0
    9.0146   -5.7291    0.0000 C   0  0  0  0  0  0  0  0  0  0  0  0
    8.1486   -5.2291    0.0000 C   0  0  0  0  0  0  0  0  0  0  0  0
    6.5659    1.1073    0.0000 C   0  0  2  0  0  0  0  0  0  0  0  0
    7.0659    1.9733    0.0000 C   0  0  0  0  0  0  0  0  0  0  0  0
    7.2350    0.3642    0.0000 C   0  0  0  0  0  0  0  0  0  0  0  0
   10.7466   -2.7291    0.0000 C   0  0  1  0  0  0  0  0  0  0  0  0
    9.0146   -0.7291    0.0000 C   0  0  2  0  0  0  0  0  0  0  0  0
    9.0146    0.2709    0.0000 C   0  0  0  0  0  0  0  0  0  0  0  0
    8.1486   -1.2291    0.0000 C   0  0  0  0  0  0  0  0  0  0  0  0
    9.8806   -2.2291    0.0000 C   0  0  0  0  0  0  0  0  0  0  0  0
    8.7872    2.4346    0.0000 C   0  0  0  0  0  0  0  0  0  0  0  0
    7.2825   -0.7291    0.0000 C   0  0  0  0  0  0  0  0  0  0  0  0
    8.1486   -2.2291    0.0000 C   0  0  0  0  0  0  0  0  0  0  0  0
    4.9836    1.8118    0.0000 C   0  0  0  0  0  0  0  0  0  0  0  0
    9.3224    4.0818    0.0000 C   0  0  1  0  0  0  0  0  0  0  0  0
   12.4787   -2.7291    0.0000 C   0  0  0  0  0  0  0  0  0  0  0  0
    3.9890    1.7073    0.0000 C   0  0  0  0  0  0  0  0  0  0  0  0
   10.2735    3.7728    0.0000 C   0  0  0  0  0  0  0  0  0  0  0  0
    9.1145    5.0600    0.0000 C   0  0  0  0  0  0  0  0  0  0  0  0
   13.3447   -2.2291    0.0000 C   0  0  0  0  0  0  0  0  0  0  0  0
   11.0166    4.4419    0.0000 C   0  0  0  0  0  0  0  0  0  0  0  0
    3.5823    0.7937    0.0000 C   0  0  0  0  0  0  0  0  0  0  0  0
    3.4013    2.5163    0.0000 C   0  0  0  0  0  0  0  0  0  0  0  0
   13.3447   -1.2291    0.0000 C   0  0  0  0  0  0  0  0  0  0  0  0
    2.5878    0.6892    0.0000 C   0  0  0  0  0  0  0  0  0  0  0  0
    2.4067    2.4118    0.0000 C   0  0  0  0  0  0  0  0  0  0  0  0
    2.0000    1.4982    0.0000 C   0  0  0  0  0  0  0  0  0  0  0  0
   15.0768   -2.2291    0.0000 C   0  0  0  0  0  0  0  0  0  0  0  0
   15.0768   -1.2291    0.0000 C   0  0  0  0  0  0  0  0  0  0  0  0
   10.4175   -4.5391    0.0000 H   0  0  0  0  0  0  0  0  0  0  0  0
    9.4131   -3.2542    0.0000 H   0  0  0  0  0  0  0  0  0  0  0  0
    8.6160   -3.2542    0.0000 H   0  0  0  0  0  0  0  0  0  0  0  0
   10.0927   -5.8117    0.0000 H   0  0  0  0  0  0  0  0  0  0  0  0
   10.4912   -5.1214    0.0000 H   0  0  0  0  0  0  0  0  0  0  0  0
   10.9587   -4.3117    0.0000 H   0  0  0  0  0  0  0  0  0  0  0  0
   11.3572   -3.6214    0.0000 H   0  0  0  0  0  0  0  0  0  0  0  0
    8.6228    1.5432    0.0000 H   0  0  0  0  0  0  0  0  0  0  0  0
    7.9365   -3.6465    0.0000 H   0  0  0  0  0  0  0  0  0  0  0  0
    7.5380   -4.3368    0.0000 H   0  0  0  0  0  0  0  0  0  0  0  0
    8.6160   -6.2040    0.0000 H   0  0  0  0  0  0  0  0  0  0  0  0
    9.4131   -6.2040    0.0000 H   0  0  0  0  0  0  0  0  0  0  0  0
    6.3437    0.5285    0.0000 H   0  0  0  0  0  0  0  0  0  0  0  0
    7.5380   -5.1214    0.0000 H   0  0  0  0  0  0  0  0  0  0  0  0
    7.9365   -5.8117    0.0000 H   0  0  0  0  0  0  0  0  0  0  0  0
    7.2575    2.5630    0.0000 H   0  0  0  0  0  0  0  0  0  0  0  0
    6.4995    2.2255    0.0000 H   0  0  0  0  0  0  0  0  0  0  0  0
    6.7334   -0.0003    0.0000 H   0  0  0  0  0  0  0  0  0  0  0  0
    7.5450   -0.1728    0.0000 H   0  0  0  0  0  0  0  0  0  0  0  0
   10.7466   -2.1091    0.0000 H   0  0  0  0  0  0  0  0  0  0  0  0
    9.5515   -0.4191    0.0000 H   0  0  0  0  0  0  0  0  0  0  0  0
    8.6855   -1.5391    0.0000 H   0  0  0  0  0  0  0  0  0  0  0  0
   10.4175   -0.9191    0.0000 H   0  0  0  0  0  0  0  0  0  0  0  0
   11.6127   -1.6091    0.0000 H   0  0  0  0  0  0  0  0  0  0  0  0
    7.5925   -0.1922    0.0000 H   0  0  0  0  0  0  0  0  0  0  0  0
    6.7456   -0.4191    0.0000 H   0  0  0  0  0  0  0  0  0  0  0  0
    6.9725   -1.2660    0.0000 H   0  0  0  0  0  0  0  0  0  0  0  0
    7.5286   -2.2291    0.0000 H   0  0  0  0  0  0  0  0  0  0  0  0
    8.1486   -2.8491    0.0000 H   0  0  0  0  0  0  0  0  0  0  0  0
    8.7686   -2.2291    0.0000 H   0  0  0  0  0  0  0  0  0  0  0  0
    7.9896    3.6043    0.0000 H   0  0  0  0  0  0  0  0  0  0  0  0
    5.5408    2.0836    0.0000 H   0  0  0  0  0  0  0  0  0  0  0  0
    4.8127    2.4078    0.0000 H   0  0  0  0  0  0  0  0  0  0  0  0
    9.4513    3.4754    0.0000 H   0  0  0  0  0  0  0  0  0  0  0  0
    9.9824    3.2254    0.0000 H   0  0  0  0  0  0  0  0  0  0  0  0
   10.7620    3.3911    0.0000 H   0  0  0  0  0  0  0  0  0  0  0  0
    8.5248    5.2516    0.0000 H   0  0  0  0  0  0  0  0  0  0  0  0
   11.4315    3.9812    0.0000 H   0  0  0  0  0  0  0  0  0  0  0  0
   11.4773    4.8568    0.0000 H   0  0  0  0  0  0  0  0  0  0  0  0
   10.6017    4.9027    0.0000 H   0  0  0  0  0  0  0  0  0  0  0  0
    3.9467    0.2921    0.0000 H   0  0  0  0  0  0  0  0  0  0  0  0
    3.6534    3.0827    0.0000 H   0  0  0  0  0  0  0  0  0  0  0  0
   12.8078   -0.9191    0.0000 H   0  0  0  0  0  0  0  0  0  0  0  0
    2.3356    0.1228    0.0000 H   0  0  0  0  0  0  0  0  0  0  0  0
    2.0423    2.9133    0.0000 H   0  0  0  0  0  0  0  0  0  0  0  0
    1.3834    1.4334    0.0000 H   0  0  0  0  0  0  0  0  0  0  0  0
   15.6137   -2.5391    0.0000 H   0  0  0  0  0  0  0  0  0  0  0  0
   15.6137   -0.9191    0.0000 H   0  0  0  0  0  0  0  0  0  0  0  0
 21  1  1  6  0  0  0
  1 32  1  0  0  0  0
  2 26  2  0  0  0  0
  3 28  2  0  0  0  0
  4 29  2  0  0  0  0
  5 34  2  0  0  0  0
  6 37  2  0  0  0  0
  7 17  1  0  0  0  0
  7 23  1  0  0  0  0
  7 26  1  0  0  0  0
 25  8  1  1  0  0  0
  8 28  1  0  0  0  0
  8 70  1  0  0  0  0
 24  9  1  1  0  0  0
  9 34  1  0  0  0  0
  9 71  1  0  0  0  0
 10 29  1  0  0  0  0
 33 10  1  6  0  0  0
 10 78  1  0  0  0  0
 11 38  2  0  0  0  0
 11 46  1  0  0  0  0
 12 42  2  0  0  0  0
 12 47  1  0  0  0  0
 13 14  1  0  0  0  0
 13 15  1  0  0  0  0
 13 16  1  0  0  0  0
 13 48  1  0  0  0  0
 14 18  1  0  0  0  0
 14 49  1  0  0  0  0
 14 50  1  0  0  0  0
 15 19  1  0  0  0  0
 15 51  1  0  0  0  0
 15 52  1  0  0  0  0
 16 24  1  0  0  0  0
 16 53  1  0  0  0  0
 16 54  1  0  0  0  0
 17 22  1  0  0  0  0
 17 29  1  1  0  0  0
 17 55  1  0  0  0  0
 18 20  1  0  0  0  0
 18 56  1  0  0  0  0
 18 57  1  0  0  0  0
 19 20  1  0  0  0  0
 19 58  1  0  0  0  0
 19 59  1  0  0  0  0
 20 61  1  0  0  0  0
 20 62  1  0  0  0  0
 21 22  1  0  0  0  0
 21 23  1  0  0  0  0
 21 60  1  0  0  0  0
 22 63  1  0  0  0  0
 22 64  1  0  0  0  0
 23 65  1  0  0  0  0
 23 66  1  0  0  0  0
 24 28  1  0  0  0  0
 24 67  1  0  0  0  0
 25 26  1  0  0  0  0
 25 27  1  0  0  0  0
 25 68  1  0  0  0  0
 27 30  1  0  0  0  0
 27 31  1  0  0  0  0
 27 69  1  0  0  0  0
 30 72  1  0  0  0  0
 30 73  1  0  0  0  0
 30 74  1  0  0  0  0
 31 75  1  0  0  0  0
 31 76  1  0  0  0  0
 31 77  1  0  0  0  0
 32 35  1  0  0  0  0
 32 79  1  0  0  0  0
 32 80  1  0  0  0  0
 33 36  1  0  0  0  0
 33 37  1  0  0  0  0
 33 81  1  0  0  0  0
 34 38  1  0  0  0  0
 35 40  2  0  0  0  0
 35 41  1  0  0  0  0
 36 39  1  0  0  0  0
 36 82  1  0  0  0  0
 36 83  1  0  0  0  0
 37 84  1  0  0  0  0
 38 42  1  0  0  0  0
 39 85  1  0  0  0  0
 39 86  1  0  0  0  0
 39 87  1  0  0  0  0
 40 43  1  0  0  0  0
 40 88  1  0  0  0  0
 41 44  2  0  0  0  0
 41 89  1  0  0  0  0
 42 90  1  0  0  0  0
 43 45  2  0  0  0  0
 43 91  1  0  0  0  0
 44 45  1  0  0  0  0
 44 92  1  0  0  0  0
 45 93  1  0  0  0  0
 46 47  2  0  0  0  0
 46 94  1  0  0  0  0
 47 95  1  0  0  0  0
M  END
> <PUBCHEM_COMPOUND_CID>
506761
> <PUBCHEM_COMPOUND_CANONICALIZED>
1
> <PUBCHEM_CACTVS_COMPLEXITY>
1050
> <PUBCHEM_CACTVS_HBOND_ACCEPTOR>
8
> <PUBCHEM_CACTVS_HBOND_DONOR>
3
> <PUBCHEM_CACTVS_ROTATABLE_BOND>
15
> <PUBCHEM_CACTVS_SUBSKEYS>
AAADcfB/uAAAAAAAAAAAAAAAAAAAAWAAAAA8YIAAAAAAAAABwAAAHgAQAAAADTzhngY+gJPIFACoAz131ACCgCQ3EiAI2IG4fMgKZnrA8TiXMIgm1gHYqMe6yaCOAAAAAAAAAAAAAAAAAAAAAAAAAAAAAA==
> <PUBCHEM_IUPAC_OPENEYE_NAME>
N-[(1S)-2-[[(1S)-1-[(2S,4R)-4-benzyloxy-2-[[(1S)-1-formylpropyl]carbamoyl]pyrrolidine-1-carbonyl]-2-methyl-propyl]amino]-1-(cyclohexylmethyl)-2-oxo-ethyl]pyrazine-2-carboxamide
> <PUBCHEM_IUPAC_CAS_NAME>
N-[(2S)-3-cyclohexyl-1-[[(2S)-3-methyl-1-oxo-1-[(2S,4R)-2-[oxo-[[(2S)-1-oxobutan-2-yl]amino]methyl]-4-phenylmethoxy-1-pyrrolidinyl]butan-2-yl]amino]-1-oxopropan-2-yl]-2-pyrazinecarboxamide
> <PUBCHEM_IUPAC_NAME_MARKUP>
<I>N</I>-[(2<I>S</I>)-3-cyclohexyl-1-[[(2<I>S</I>)-3-methyl-1-oxo-1-[(2<I>S</I>,4<I>R</I>)-2-[[(2<I>S</I>)-1-oxobutan-2-yl]carbamoyl]-4-phenylmethoxypyrrolidin-1-yl]butan-2-yl]amino]-1-oxopropan-2-yl]pyrazine-2-carboxamide
> <PUBCHEM_IUPAC_NAME>
N-[(2S)-3-cyclohexyl-1-[[(2S)-3-methyl-1-oxo-1-[(2S,4R)-2-[[(2S)-1-oxobutan-2-yl]carbamoyl]-4-phenylmethoxypyrrolidin-1-yl]butan-2-yl]amino]-1-oxopropan-2-yl]pyrazine-2-carboxamide
> <PUBCHEM_IUPAC_SYSTEMATIC_NAME>
N-[(2S)-3-cyclohexyl-1-[[(2S)-3-methyl-1-oxidanylidene-1-[(2S,4R)-2-[[(2S)-1-oxidanylidenebutan-2-yl]carbamoyl]-4-phenylmethoxy-pyrrolidin-1-yl]butan-2-yl]amino]-1-oxidanylidene-propan-2-yl]pyrazine-2-carboxamide
> <PUBCHEM_IUPAC_TRADITIONAL_NAME>
N-[(1S)-2-[[(1S)-1-[(2S,4R)-4-benzoxy-2-[[(1S)-1-formylpropyl]carbamoyl]pyrrolidine-1-carbonyl]-2-methyl-propyl]amino]-1-(cyclohexylmethyl)-2-keto-ethyl]pyrazinamide
> <PUBCHEM_IUPAC_INCHI>
InChI=1S/C35H48N6O6/c1-4-26(21-42)38-34(45)30-18-27(47-22-25-13-9-6-10-14-25)20-41(30)35(46)31(23(2)3)40-32(43)28(17-24-11-7-5-8-12-24)39-33(44)29-19-36-15-16-37-29/h6,9-10,13-16,19,21,23-24,26-28,30-31H,4-5,7-8,11-12,17-18,20,22H2,1-3H3,(H,38,45)(H,39,44)(H,40,43)/t26-,27+,28-,30-,31-/m0/s1
> <PUBCHEM_IUPAC_INCHIKEY>
LIJBICGLIKKNNY-PABOLRIOSA-N
> <PUBCHEM_XLOGP3_AA>
4.1
> <PUBCHEM_EXACT_MASS>
648.36353327
> <PUBCHEM_MOLECULAR_FORMULA>
C35H48N6O6
> <PUBCHEM_MOLECULAR_WEIGHT>
648.8
> <PUBCHEM_OPENEYE_CAN_SMILES>
CCC(C=O)NC(=O)C1CC(CN1C(=O)C(C(C)C)NC(=O)C(CC2CCCCC2)NC(=O)C3=NC=CN=C3)OCC4=CC=CC=C4
> <PUBCHEM_OPENEYE_ISO_SMILES>
CC[C@@H](C=O)NC(=O)[C@@H]1C[C@H](CN1C(=O)[C@H](C(C)C)NC(=O)[C@H](CC2CCCCC2)NC(=O)C3=NC=CN=C3)OCC4=CC=CC=C4
> <PUBCHEM_CACTVS_TPSA>
160
> <PUBCHEM_MONOISOTOPIC_WEIGHT>
648.36353327
> <PUBCHEM_TOTAL_CHARGE>
0
> <PUBCHEM_HEAVY_ATOM_COUNT>
47
> <PUBCHEM_ATOM_DEF_STEREO_COUNT>
5
> <PUBCHEM_ATOM_UDEF_STEREO_COUNT>
0
> <PUBCHEM_BOND_DEF_STEREO_COUNT>
0
> <PUBCHEM_BOND_UDEF_STEREO_COUNT>
0
> <PUBCHEM_ISOTOPIC_ATOM_COUNT>
0
> <PUBCHEM_COMPONENT_COUNT>
1
> <PUBCHEM_CACTVS_TAUTO_COUNT>
-1
> <PUBCHEM_COORDINATE_TYPE>
1
5
255
> <PUBCHEM_BONDANNOTATIONS>
21  1  6
33  10  6
11  38  8
11  46  8
12  42  8
12  47  8
17  29  5
35  40  8
35  41  8
38  42  8
40  43  8
41  44  8
43  45  8
44  45  8
46  47  8
25  8  5
24  9  5
$$$$
