506777
  -OEChem-10302200282D
 81 83  0     1  0  0  0  0  0999 V2000
    5.5714   -2.2528    0.0000 O   0  0  0  0  0  0  0  0  0  0  0  0
    9.8806   -2.0209    0.0000 O   0  0  0  0  0  0  0  0  0  0  0  0
    9.7382   -3.3755    0.0000 O   0  0  0  0  0  0  0  0  0  0  0  0
    9.0146    1.4791    0.0000 O   0  0  0  0  0  0  0  0  0  0  0  0
    9.8576   -6.9791    0.0000 O   0  0  0  0  0  0  0  0  0  0  0  0
   12.4787    5.4791    0.0000 O   0  0  0  0  0  0  0  0  0  0  0  0
    8.1486   -2.0209    0.0000 N   0  0  0  0  0  0  0  0  0  0  0  0
    8.5792   -4.6627    0.0000 N   0  0  0  0  0  0  0  0  0  0  0  0
    9.8806   -0.0209    0.0000 N   0  0  0  0  0  0  0  0  0  0  0  0
   10.7466    5.4791    0.0000 N   0  0  0  0  0  0  0  0  0  0  0  0
    8.0440   -3.0154    0.0000 C   0  0  1  0  0  0  0  0  0  0  0  0
    6.5659   -2.3573    0.0000 C   0  0  2  0  0  0  0  0  0  0  0  0
    7.0659   -3.2233    0.0000 C   0  0  0  0  0  0  0  0  0  0  0  0
    7.2350   -1.6142    0.0000 C   0  0  0  0  0  0  0  0  0  0  0  0
    9.0146   -1.5209    0.0000 C   0  0  0  0  0  0  0  0  0  0  0  0
    9.0146   -0.5209    0.0000 C   0  0  2  0  0  0  0  0  0  0  0  0
    8.7872   -3.6846    0.0000 C   0  0  0  0  0  0  0  0  0  0  0  0
    8.1486   -0.0209    0.0000 C   0  0  0  0  0  0  0  0  0  0  0  0
    4.9836   -3.0618    0.0000 C   0  0  0  0  0  0  0  0  0  0  0  0
    8.1486    0.9791    0.0000 C   0  0  0  0  0  0  0  0  0  0  0  0
    7.2825   -0.5209    0.0000 C   0  0  0  0  0  0  0  0  0  0  0  0
    9.3224   -5.3318    0.0000 C   0  0  1  0  0  0  0  0  0  0  0  0
    3.9890   -2.9573    0.0000 C   0  0  0  0  0  0  0  0  0  0  0  0
    9.8806    0.9791    0.0000 C   0  0  0  0  0  0  0  0  0  0  0  0
   10.2735   -5.0228    0.0000 C   0  0  0  0  0  0  0  0  0  0  0  0
    9.1145   -6.3100    0.0000 C   0  0  0  0  0  0  0  0  0  0  0  0
   10.7466    1.4791    0.0000 C   0  0  0  0  0  0  0  0  0  0  0  0
   11.0166   -5.6919    0.0000 C   0  0  0  0  0  0  0  0  0  0  0  0
    3.5823   -2.0437    0.0000 C   0  0  0  0  0  0  0  0  0  0  0  0
    3.4013   -3.7663    0.0000 C   0  0  0  0  0  0  0  0  0  0  0  0
   10.7466    2.4791    0.0000 C   0  0  0  0  0  0  0  0  0  0  0  0
    2.5878   -1.9392    0.0000 C   0  0  0  0  0  0  0  0  0  0  0  0
    2.4067   -3.6618    0.0000 C   0  0  0  0  0  0  0  0  0  0  0  0
    2.0000   -2.7482    0.0000 C   0  0  0  0  0  0  0  0  0  0  0  0
   11.6127    2.9791    0.0000 C   0  0  0  0  0  0  0  0  0  0  0  0
    9.8806    2.9791    0.0000 C   0  0  0  0  0  0  0  0  0  0  0  0
   11.6127    3.9791    0.0000 C   0  0  0  0  0  0  0  0  0  0  0  0
    9.8806    3.9791    0.0000 C   0  0  0  0  0  0  0  0  0  0  0  0
   10.7466    4.4791    0.0000 C   0  0  0  0  0  0  0  0  0  0  0  0
   11.6127    5.9791    0.0000 C   0  0  0  0  0  0  0  0  0  0  0  0
   11.6127    6.9791    0.0000 C   0  0  0  0  0  0  0  0  0  0  0  0
    8.6228   -2.7932    0.0000 H   0  0  0  0  0  0  0  0  0  0  0  0
    6.3437   -1.7785    0.0000 H   0  0  0  0  0  0  0  0  0  0  0  0
    6.4995   -3.4755    0.0000 H   0  0  0  0  0  0  0  0  0  0  0  0
    7.2575   -3.8130    0.0000 H   0  0  0  0  0  0  0  0  0  0  0  0
    7.5450   -1.0772    0.0000 H   0  0  0  0  0  0  0  0  0  0  0  0
    6.7334   -1.2497    0.0000 H   0  0  0  0  0  0  0  0  0  0  0  0
    9.5515   -0.8309    0.0000 H   0  0  0  0  0  0  0  0  0  0  0  0
    8.6855    0.2891    0.0000 H   0  0  0  0  0  0  0  0  0  0  0  0
    7.9896   -4.8543    0.0000 H   0  0  0  0  0  0  0  0  0  0  0  0
   10.4175   -0.3309    0.0000 H   0  0  0  0  0  0  0  0  0  0  0  0
    4.8127   -3.6578    0.0000 H   0  0  0  0  0  0  0  0  0  0  0  0
    5.5408   -3.3336    0.0000 H   0  0  0  0  0  0  0  0  0  0  0  0
    8.7686    0.9791    0.0000 H   0  0  0  0  0  0  0  0  0  0  0  0
    8.1486    1.5991    0.0000 H   0  0  0  0  0  0  0  0  0  0  0  0
    7.5286    0.9791    0.0000 H   0  0  0  0  0  0  0  0  0  0  0  0
    6.9725    0.0160    0.0000 H   0  0  0  0  0  0  0  0  0  0  0  0
    6.7456   -0.8309    0.0000 H   0  0  0  0  0  0  0  0  0  0  0  0
    7.5925   -1.0578    0.0000 H   0  0  0  0  0  0  0  0  0  0  0  0
    8.7327   -5.5234    0.0000 H   0  0  0  0  0  0  0  0  0  0  0  0
   10.7620   -4.6411    0.0000 H   0  0  0  0  0  0  0  0  0  0  0  0
    9.9824   -4.4754    0.0000 H   0  0  0  0  0  0  0  0  0  0  0  0
    8.5248   -6.5016    0.0000 H   0  0  0  0  0  0  0  0  0  0  0  0
   10.9587    0.8965    0.0000 H   0  0  0  0  0  0  0  0  0  0  0  0
   11.3572    1.5868    0.0000 H   0  0  0  0  0  0  0  0  0  0  0  0
   10.6017   -6.1527    0.0000 H   0  0  0  0  0  0  0  0  0  0  0  0
   11.4773   -6.1068    0.0000 H   0  0  0  0  0  0  0  0  0  0  0  0
   11.4315   -5.2312    0.0000 H   0  0  0  0  0  0  0  0  0  0  0  0
    3.9467   -1.5421    0.0000 H   0  0  0  0  0  0  0  0  0  0  0  0
    3.6534   -4.3327    0.0000 H   0  0  0  0  0  0  0  0  0  0  0  0
    2.3356   -1.3728    0.0000 H   0  0  0  0  0  0  0  0  0  0  0  0
    2.0423   -4.1633    0.0000 H   0  0  0  0  0  0  0  0  0  0  0  0
    1.3834   -2.6834    0.0000 H   0  0  0  0  0  0  0  0  0  0  0  0
   12.1496    2.6691    0.0000 H   0  0  0  0  0  0  0  0  0  0  0  0
    9.3437    2.6691    0.0000 H   0  0  0  0  0  0  0  0  0  0  0  0
   12.1496    4.2891    0.0000 H   0  0  0  0  0  0  0  0  0  0  0  0
    9.3437    4.2891    0.0000 H   0  0  0  0  0  0  0  0  0  0  0  0
   10.2097    5.7891    0.0000 H   0  0  0  0  0  0  0  0  0  0  0  0
   12.2327    6.9791    0.0000 H   0  0  0  0  0  0  0  0  0  0  0  0
   11.6127    7.5991    0.0000 H   0  0  0  0  0  0  0  0  0  0  0  0
   10.9927    6.9791    0.0000 H   0  0  0  0  0  0  0  0  0  0  0  0
 12  1  1  1  0  0  0
  1 19  1  0  0  0  0
  2 15  2  0  0  0  0
  3 17  2  0  0  0  0
  4 24  2  0  0  0  0
  5 26  2  0  0  0  0
  6 40  2  0  0  0  0
  7 11  1  0  0  0  0
  7 14  1  0  0  0  0
  7 15  1  0  0  0  0
  8 17  1  0  0  0  0
 22  8  1  1  0  0  0
  8 50  1  0  0  0  0
 16  9  1  6  0  0  0
  9 24  1  0  0  0  0
  9 51  1  0  0  0  0
 10 39  1  0  0  0  0
 10 40  1  0  0  0  0
 10 78  1  0  0  0  0
 11 13  1  0  0  0  0
 11 17  1  6  0  0  0
 11 42  1  0  0  0  0
 12 13  1  0  0  0  0
 12 14  1  0  0  0  0
 12 43  1  0  0  0  0
 13 44  1  0  0  0  0
 13 45  1  0  0  0  0
 14 46  1  0  0  0  0
 14 47  1  0  0  0  0
 15 16  1  0  0  0  0
 16 18  1  0  0  0  0
 16 48  1  0  0  0  0
 18 20  1  0  0  0  0
 18 21  1  0  0  0  0
 18 49  1  0  0  0  0
 19 23  1  0  0  0  0
 19 52  1  0  0  0  0
 19 53  1  0  0  0  0
 20 54  1  0  0  0  0
 20 55  1  0  0  0  0
 20 56  1  0  0  0  0
 21 57  1  0  0  0  0
 21 58  1  0  0  0  0
 21 59  1  0  0  0  0
 22 25  1  0  0  0  0
 22 26  1  0  0  0  0
 22 60  1  0  0  0  0
 23 29  2  0  0  0  0
 23 30  1  0  0  0  0
 24 27  1  0  0  0  0
 25 28  1  0  0  0  0
 25 61  1  0  0  0  0
 25 62  1  0  0  0  0
 26 63  1  0  0  0  0
 27 31  1  0  0  0  0
 27 64  1  0  0  0  0
 27 65  1  0  0  0  0
 28 66  1  0  0  0  0
 28 67  1  0  0  0  0
 28 68  1  0  0  0  0
 29 32  1  0  0  0  0
 29 69  1  0  0  0  0
 30 33  2  0  0  0  0
 30 70  1  0  0  0  0
 31 35  2  0  0  0  0
 31 36  1  0  0  0  0
 32 34  2  0  0  0  0
 32 71  1  0  0  0  0
 33 34  1  0  0  0  0
 33 72  1  0  0  0  0
 34 73  1  0  0  0  0
 35 37  1  0  0  0  0
 35 74  1  0  0  0  0
 36 38  2  0  0  0  0
 36 75  1  0  0  0  0
 37 39  2  0  0  0  0
 37 76  1  0  0  0  0
 38 39  1  0  0  0  0
 38 77  1  0  0  0  0
 40 41  1  0  0  0  0
 41 79  1  0  0  0  0
 41 80  1  0  0  0  0
 41 81  1  0  0  0  0
M  END
> <PUBCHEM_COMPOUND_CID>
506777
> <PUBCHEM_COMPOUND_CANONICALIZED>
1
> <PUBCHEM_CACTVS_COMPLEXITY>
897
> <PUBCHEM_CACTVS_HBOND_ACCEPTOR>
6
> <PUBCHEM_CACTVS_HBOND_DONOR>
3
> <PUBCHEM_CACTVS_ROTATABLE_BOND>
13
> <PUBCHEM_CACTVS_SUBSKEYS>
AAADcfB7uAAAAAAAAAAAAAAAAAAAAWAAAAAwYAAAAAAAAAABQAAAHgAQAAAADTzhmAYywIPABACIAi1S0ACCAAAhAgAIiIGIbIgKZjLAtbmXMAhm1gHY6Ae6yaCOCAAAAAAAAAAQAAAAAAAAAAAAAAAAAA==
> <PUBCHEM_IUPAC_OPENEYE_NAME>
(2S,4R)-1-[(2S)-2-[[2-(4-acetamidophenyl)acetyl]amino]-3-methyl-butanoyl]-4-benzyloxy-N-[(1S)-1-formylpropyl]pyrrolidine-2-carboxamide
> <PUBCHEM_IUPAC_CAS_NAME>
(2S,4R)-1-[(2S)-2-[[2-(4-acetamidophenyl)-1-oxoethyl]amino]-3-methyl-1-oxobutyl]-N-[(2S)-1-oxobutan-2-yl]-4-phenylmethoxy-2-pyrrolidinecarboxamide
> <PUBCHEM_IUPAC_NAME_MARKUP>
(2<I>S</I>,4<I>R</I>)-1-[(2<I>S</I>)-2-[[2-(4-acetamidophenyl)acetyl]amino]-3-methylbutanoyl]-<I>N</I>-[(2<I>S</I>)-1-oxobutan-2-yl]-4-phenylmethoxypyrrolidine-2-carboxamide
> <PUBCHEM_IUPAC_NAME>
(2S,4R)-1-[(2S)-2-[[2-(4-acetamidophenyl)acetyl]amino]-3-methylbutanoyl]-N-[(2S)-1-oxobutan-2-yl]-4-phenylmethoxypyrrolidine-2-carboxamide
> <PUBCHEM_IUPAC_SYSTEMATIC_NAME>
(2S,4R)-1-[(2S)-2-[2-(4-acetamidophenyl)ethanoylamino]-3-methyl-butanoyl]-N-[(2S)-1-oxidanylidenebutan-2-yl]-4-phenylmethoxy-pyrrolidine-2-carboxamide
> <PUBCHEM_IUPAC_TRADITIONAL_NAME>
(2S,4R)-1-[(2S)-2-[[2-(4-acetamidophenyl)acetyl]amino]-3-methyl-butanoyl]-4-benzoxy-N-[(1S)-1-formylpropyl]pyrrolidine-2-carboxamide
> <PUBCHEM_IUPAC_INCHI>
InChI=1S/C31H40N4O6/c1-5-24(18-36)33-30(39)27-16-26(41-19-23-9-7-6-8-10-23)17-35(27)31(40)29(20(2)3)34-28(38)15-22-11-13-25(14-12-22)32-21(4)37/h6-14,18,20,24,26-27,29H,5,15-17,19H2,1-4H3,(H,32,37)(H,33,39)(H,34,38)/t24-,26+,27-,29-/m0/s1
> <PUBCHEM_IUPAC_INCHIKEY>
CAXYELNIKFSJHF-BRRPBMHLSA-N
> <PUBCHEM_XLOGP3_AA>
2.6
> <PUBCHEM_EXACT_MASS>
564.29478501
> <PUBCHEM_MOLECULAR_FORMULA>
C31H40N4O6
> <PUBCHEM_MOLECULAR_WEIGHT>
564.7
> <PUBCHEM_OPENEYE_CAN_SMILES>
CCC(C=O)NC(=O)C1CC(CN1C(=O)C(C(C)C)NC(=O)CC2=CC=C(C=C2)NC(=O)C)OCC3=CC=CC=C3
> <PUBCHEM_OPENEYE_ISO_SMILES>
CC[C@@H](C=O)NC(=O)[C@@H]1C[C@H](CN1C(=O)[C@H](C(C)C)NC(=O)CC2=CC=C(C=C2)NC(=O)C)OCC3=CC=CC=C3
> <PUBCHEM_CACTVS_TPSA>
134
> <PUBCHEM_MONOISOTOPIC_WEIGHT>
564.29478501
> <PUBCHEM_TOTAL_CHARGE>
0
> <PUBCHEM_HEAVY_ATOM_COUNT>
41
> <PUBCHEM_ATOM_DEF_STEREO_COUNT>
4
> <PUBCHEM_ATOM_UDEF_STEREO_COUNT>
0
> <PUBCHEM_BOND_DEF_STEREO_COUNT>
0
> <PUBCHEM_BOND_UDEF_STEREO_COUNT>
0
> <PUBCHEM_ISOTOPIC_ATOM_COUNT>
0
> <PUBCHEM_COMPONENT_COUNT>
1
> <PUBCHEM_CACTVS_TAUTO_COUNT>
-1
> <PUBCHEM_COORDINATE_TYPE>
1
5
255
> <PUBCHEM_BONDANNOTATIONS>
12  1  5
11  17  6
23  29  8
23  30  8
29  32  8
30  33  8
31  35  8
31  36  8
32  34  8
33  34  8
35  37  8
36  38  8
37  39  8
38  39  8
22  8  5
16  9  6
$$$$
