506705
  -OEChem-10302200282D
129131  0     1  0  0  0  0  0999 V2000
   10.9993   -3.5122    0.0000 O   0  0  0  0  0  0  0  0  0  0  0  0
   11.6804    0.7492    0.0000 O   0  0  0  0  0  0  0  0  0  0  0  0
   10.3183    0.7492    0.0000 O   0  0  0  0  0  0  0  0  0  0  0  0
   15.0707   -0.4780    0.0000 O   0  0  0  0  0  0  0  0  0  0  0  0
    6.9280   -0.4780    0.0000 O   0  0  0  0  0  0  0  0  0  0  0  0
   16.4273    2.8626    0.0000 O   0  0  0  0  0  0  0  0  0  0  0  0
    7.1537    2.1581    0.0000 O   0  0  0  0  0  0  0  0  0  0  0  0
   17.0151    3.6716    0.0000 O   0  0  0  0  0  0  0  0  0  0  0  0
   19.6365   -0.0871    0.0000 O   0  0  0  0  0  0  0  0  0  0  0  0
   19.8176    1.6355    0.0000 O   0  0  0  0  0  0  0  0  0  0  0  0
   19.7730    5.9942    0.0000 O   0  0  0  0  0  0  0  0  0  0  0  0
   21.7620    5.7851    0.0000 O   0  0  0  0  0  0  0  0  0  0  0  0
   21.5809    4.0626    0.0000 O   0  0  0  0  0  0  0  0  0  0  0  0
   11.4993   -0.9734    0.0000 N   0  0  0  0  0  0  0  0  0  0  0  0
   13.6694    0.5401    0.0000 N   0  0  0  0  0  0  0  0  0  0  0  0
    8.9170   -0.2689    0.0000 N   0  0  0  0  0  0  0  0  0  0  0  0
   16.2462    1.1401    0.0000 N   0  0  0  0  0  0  0  0  0  0  0  0
    5.7524    1.1401    0.0000 N   0  0  0  0  0  0  0  0  0  0  0  0
   18.4163    2.6536    0.0000 N   0  0  0  0  0  0  0  0  0  0  0  0
   18.1906    5.2897    0.0000 N   0  0  0  0  0  0  0  0  0  0  0  0
   10.4993   -0.9734    0.0000 C   0  0  1  0  0  0  0  0  0  0  0  0
   10.9993   -2.5122    0.0000 C   0  0  2  0  0  0  0  0  0  0  0  0
   10.1903   -1.9245    0.0000 C   0  0  0  0  0  0  0  0  0  0  0  0
   11.8083   -1.9245    0.0000 C   0  0  0  0  0  0  0  0  0  0  0  0
   12.0871   -0.1644    0.0000 C   0  0  0  0  0  0  0  0  0  0  0  0
   13.0816   -0.2689    0.0000 C   0  0  2  0  0  0  0  0  0  0  0  0
    9.9115   -0.1644    0.0000 C   0  0  0  0  0  0  0  0  0  0  0  0
   13.4884   -1.1825    0.0000 C   0  0  0  0  0  0  0  0  0  0  0  0
   10.1333   -4.0122    0.0000 C   0  0  0  0  0  0  0  0  0  0  0  0
   14.4829   -1.2870    0.0000 C   0  0  0  0  0  0  0  0  0  0  0  0
   12.9006   -1.9915    0.0000 C   0  0  0  0  0  0  0  0  0  0  0  0
    8.3292    0.5401    0.0000 C   0  0  1  0  0  0  0  0  0  0  0  0
   14.6639    0.4356    0.0000 C   0  0  0  0  0  0  0  0  0  0  0  0
   15.2517    1.2446    0.0000 C   0  0  2  0  0  0  0  0  0  0  0  0
   14.8450    2.1581    0.0000 C   0  0  0  0  0  0  0  0  0  0  0  0
    8.7360    1.4537    0.0000 C   0  0  0  0  0  0  0  0  0  0  0  0
   10.1333   -5.0122    0.0000 C   0  0  0  0  0  0  0  0  0  0  0  0
    7.3347    0.4356    0.0000 C   0  0  0  0  0  0  0  0  0  0  0  0
   15.4328    2.9672    0.0000 C   0  0  0  0  0  0  0  0  0  0  0  0
   13.8505    2.2627    0.0000 C   0  0  0  0  0  0  0  0  0  0  0  0
    8.1482    2.2627    0.0000 C   0  0  0  0  0  0  0  0  0  0  0  0
   10.9993   -5.5122    0.0000 C   0  0  0  0  0  0  0  0  0  0  0  0
    9.2673   -5.5122    0.0000 C   0  0  0  0  0  0  0  0  0  0  0  0
   16.8340    1.9491    0.0000 C   0  0  0  0  0  0  0  0  0  0  0  0
    6.7469    1.2446    0.0000 C   0  0  0  0  0  0  0  0  0  0  0  0
   17.8286    1.8446    0.0000 C   0  0  3  0  0  0  0  0  0  0  0  0
   10.9993   -6.5122    0.0000 C   0  0  0  0  0  0  0  0  0  0  0  0
    9.2673   -6.5122    0.0000 C   0  0  0  0  0  0  0  0  0  0  0  0
   10.1333   -7.0122    0.0000 C   0  0  0  0  0  0  0  0  0  0  0  0
   18.2353    0.9310    0.0000 C   0  0  0  0  0  0  0  0  0  0  0  0
    5.1646    1.9491    0.0000 C   0  0  0  0  0  0  0  0  0  0  0  0
   18.0096    3.5671    0.0000 C   0  0  0  0  0  0  0  0  0  0  0  0
   18.5974    4.3761    0.0000 C   0  0  2  0  0  0  0  0  0  0  0  0
   19.2298    0.8265    0.0000 C   0  0  0  0  0  0  0  0  0  0  0  0
    4.1701    1.8446    0.0000 C   0  0  0  0  0  0  0  0  0  0  0  0
   19.5919    4.2716    0.0000 C   0  0  0  0  0  0  0  0  0  0  0  0
    3.5823    2.6536    0.0000 C   0  0  0  0  0  0  0  0  0  0  0  0
   20.1797    5.0806    0.0000 C   0  0  0  0  0  0  0  0  0  0  0  0
   18.7784    6.0987    0.0000 C   0  0  0  0  0  0  0  0  0  0  0  0
    2.5878    2.5490    0.0000 C   0  0  0  0  0  0  0  0  0  0  0  0
    3.9890    3.5671    0.0000 C   0  0  0  0  0  0  0  0  0  0  0  0
   21.1742    4.9761    0.0000 C   0  0  0  0  0  0  0  0  0  0  0  0
   18.3717    7.0122    0.0000 C   0  0  0  0  0  0  0  0  0  0  0  0
    2.0000    3.3581    0.0000 C   0  0  0  0  0  0  0  0  0  0  0  0
    3.4013    4.3761    0.0000 C   0  0  0  0  0  0  0  0  0  0  0  0
    2.4067    4.2716    0.0000 C   0  0  0  0  0  0  0  0  0  0  0  0
   10.7808   -0.4210    0.0000 H   0  0  0  0  0  0  0  0  0  0  0  0
   11.5517   -2.7937    0.0000 H   0  0  0  0  0  0  0  0  0  0  0  0
    9.6239   -1.6723    0.0000 H   0  0  0  0  0  0  0  0  0  0  0  0
    9.8803   -2.4614    0.0000 H   0  0  0  0  0  0  0  0  0  0  0  0
   12.1183   -2.4614    0.0000 H   0  0  0  0  0  0  0  0  0  0  0  0
   12.3747   -1.6723    0.0000 H   0  0  0  0  0  0  0  0  0  0  0  0
   12.8295    0.2975    0.0000 H   0  0  0  0  0  0  0  0  0  0  0  0
   13.8528   -0.6809    0.0000 H   0  0  0  0  0  0  0  0  0  0  0  0
   13.4172    1.1065    0.0000 H   0  0  0  0  0  0  0  0  0  0  0  0
    8.6648   -0.8353    0.0000 H   0  0  0  0  0  0  0  0  0  0  0  0
    9.9212   -3.4296    0.0000 H   0  0  0  0  0  0  0  0  0  0  0  0
    9.5227   -4.1199    0.0000 H   0  0  0  0  0  0  0  0  0  0  0  0
   14.4181   -1.9036    0.0000 H   0  0  0  0  0  0  0  0  0  0  0  0
   15.0995   -1.3518    0.0000 H   0  0  0  0  0  0  0  0  0  0  0  0
   14.5477   -0.6704    0.0000 H   0  0  0  0  0  0  0  0  0  0  0  0
   12.3990   -1.6271    0.0000 H   0  0  0  0  0  0  0  0  0  0  0  0
   12.5362   -2.4931    0.0000 H   0  0  0  0  0  0  0  0  0  0  0  0
   13.4022   -2.3559    0.0000 H   0  0  0  0  0  0  0  0  0  0  0  0
    8.0770   -0.0263    0.0000 H   0  0  0  0  0  0  0  0  0  0  0  0
   15.5039    0.6782    0.0000 H   0  0  0  0  0  0  0  0  0  0  0  0
   15.4616    2.0933    0.0000 H   0  0  0  0  0  0  0  0  0  0  0  0
    9.2500    1.1070    0.0000 H   0  0  0  0  0  0  0  0  0  0  0  0
    9.1666    1.8996    0.0000 H   0  0  0  0  0  0  0  0  0  0  0  0
   16.4984    0.5737    0.0000 H   0  0  0  0  0  0  0  0  0  0  0  0
   15.9344    2.6027    0.0000 H   0  0  0  0  0  0  0  0  0  0  0  0
   15.7972    3.4688    0.0000 H   0  0  0  0  0  0  0  0  0  0  0  0
   14.9312    3.3316    0.0000 H   0  0  0  0  0  0  0  0  0  0  0  0
   13.9153    2.8793    0.0000 H   0  0  0  0  0  0  0  0  0  0  0  0
   13.2339    2.3275    0.0000 H   0  0  0  0  0  0  0  0  0  0  0  0
   13.7857    1.6461    0.0000 H   0  0  0  0  0  0  0  0  0  0  0  0
    8.6498    2.6271    0.0000 H   0  0  0  0  0  0  0  0  0  0  0  0
    7.7838    2.7643    0.0000 H   0  0  0  0  0  0  0  0  0  0  0  0
    7.6466    1.8982    0.0000 H   0  0  0  0  0  0  0  0  0  0  0  0
   11.5363   -5.2022    0.0000 H   0  0  0  0  0  0  0  0  0  0  0  0
    8.7303   -5.2022    0.0000 H   0  0  0  0  0  0  0  0  0  0  0  0
   18.4452    1.7798    0.0000 H   0  0  0  0  0  0  0  0  0  0  0  0
   11.5363   -6.8222    0.0000 H   0  0  0  0  0  0  0  0  0  0  0  0
    8.7303   -6.8222    0.0000 H   0  0  0  0  0  0  0  0  0  0  0  0
   10.1333   -7.6322    0.0000 H   0  0  0  0  0  0  0  0  0  0  0  0
   17.6337    0.7810    0.0000 H   0  0  0  0  0  0  0  0  0  0  0  0
   18.2785    0.3125    0.0000 H   0  0  0  0  0  0  0  0  0  0  0  0
    5.5002    0.5737    0.0000 H   0  0  0  0  0  0  0  0  0  0  0  0
   19.0329    2.5888    0.0000 H   0  0  0  0  0  0  0  0  0  0  0  0
    5.7219    2.2209    0.0000 H   0  0  0  0  0  0  0  0  0  0  0  0
    4.9937    2.5451    0.0000 H   0  0  0  0  0  0  0  0  0  0  0  0
   18.9618    4.8777    0.0000 H   0  0  0  0  0  0  0  0  0  0  0  0
    3.6128    1.5728    0.0000 H   0  0  0  0  0  0  0  0  0  0  0  0
    4.3410    1.2486    0.0000 H   0  0  0  0  0  0  0  0  0  0  0  0
   19.4210    3.6756    0.0000 H   0  0  0  0  0  0  0  0  0  0  0  0
   20.1492    3.9998    0.0000 H   0  0  0  0  0  0  0  0  0  0  0  0
   17.5740    5.3545    0.0000 H   0  0  0  0  0  0  0  0  0  0  0  0
   20.3506    5.6766    0.0000 H   0  0  0  0  0  0  0  0  0  0  0  0
   19.6224    5.3524    0.0000 H   0  0  0  0  0  0  0  0  0  0  0  0
   20.2531   -0.1519    0.0000 H   0  0  0  0  0  0  0  0  0  0  0  0
    2.3356    1.9826    0.0000 H   0  0  0  0  0  0  0  0  0  0  0  0
    4.6056    3.6319    0.0000 H   0  0  0  0  0  0  0  0  0  0  0  0
   18.9381    7.2644    0.0000 H   0  0  0  0  0  0  0  0  0  0  0  0
   18.1195    7.5786    0.0000 H   0  0  0  0  0  0  0  0  0  0  0  0
   17.8053    6.7601    0.0000 H   0  0  0  0  0  0  0  0  0  0  0  0
    1.3834    3.2932    0.0000 H   0  0  0  0  0  0  0  0  0  0  0  0
    3.6534    4.9425    0.0000 H   0  0  0  0  0  0  0  0  0  0  0  0
    2.0423    4.7732    0.0000 H   0  0  0  0  0  0  0  0  0  0  0  0
   22.3786    5.7203    0.0000 H   0  0  0  0  0  0  0  0  0  0  0  0
 22  1  1  6  0  0  0
  1 29  1  0  0  0  0
  2 25  2  0  0  0  0
  3 27  2  0  0  0  0
  4 33  2  0  0  0  0
  5 38  2  0  0  0  0
  6 44  2  0  0  0  0
  7 45  2  0  0  0  0
  8 52  2  0  0  0  0
  9 54  1  0  0  0  0
  9120  1  0  0  0  0
 10 54  2  0  0  0  0
 11 59  2  0  0  0  0
 12 62  1  0  0  0  0
 12129  1  0  0  0  0
 13 62  2  0  0  0  0
 14 21  1  0  0  0  0
 14 24  1  0  0  0  0
 14 25  1  0  0  0  0
 26 15  1  1  0  0  0
 15 33  1  0  0  0  0
 15 75  1  0  0  0  0
 16 27  1  0  0  0  0
 32 16  1  6  0  0  0
 16 76  1  0  0  0  0
 34 17  1  6  0  0  0
 17 44  1  0  0  0  0
 17 90  1  0  0  0  0
 18 45  1  0  0  0  0
 18 51  1  0  0  0  0
 18108  1  0  0  0  0
 19 46  1  0  0  0  0
 19 52  1  0  0  0  0
 19109  1  0  0  0  0
 53 20  1  1  0  0  0
 20 59  1  0  0  0  0
 20117  1  0  0  0  0
 21 23  1  0  0  0  0
 21 27  1  1  0  0  0
 21 67  1  0  0  0  0
 22 23  1  0  0  0  0
 22 24  1  0  0  0  0
 22 68  1  0  0  0  0
 23 69  1  0  0  0  0
 23 70  1  0  0  0  0
 24 71  1  0  0  0  0
 24 72  1  0  0  0  0
 25 26  1  0  0  0  0
 26 28  1  0  0  0  0
 26 73  1  0  0  0  0
 28 30  1  0  0  0  0
 28 31  1  0  0  0  0
 28 74  1  0  0  0  0
 29 37  1  0  0  0  0
 29 77  1  0  0  0  0
 29 78  1  0  0  0  0
 30 79  1  0  0  0  0
 30 80  1  0  0  0  0
 30 81  1  0  0  0  0
 31 82  1  0  0  0  0
 31 83  1  0  0  0  0
 31 84  1  0  0  0  0
 32 36  1  0  0  0  0
 32 38  1  0  0  0  0
 32 85  1  0  0  0  0
 33 34  1  0  0  0  0
 34 35  1  0  0  0  0
 34 86  1  0  0  0  0
 35 39  1  0  0  0  0
 35 40  1  0  0  0  0
 35 87  1  0  0  0  0
 36 41  1  0  0  0  0
 36 88  1  0  0  0  0
 36 89  1  0  0  0  0
 37 42  2  0  0  0  0
 37 43  1  0  0  0  0
 38 45  1  0  0  0  0
 39 91  1  0  0  0  0
 39 92  1  0  0  0  0
 39 93  1  0  0  0  0
 40 94  1  0  0  0  0
 40 95  1  0  0  0  0
 40 96  1  0  0  0  0
 41 97  1  0  0  0  0
 41 98  1  0  0  0  0
 41 99  1  0  0  0  0
 42 47  1  0  0  0  0
 42100  1  0  0  0  0
 43 48  2  0  0  0  0
 43101  1  0  0  0  0
 44 46  1  0  0  0  0
 46 50  1  0  0  0  0
 46102  1  0  0  0  0
 47 49  2  0  0  0  0
 47103  1  0  0  0  0
 48 49  1  0  0  0  0
 48104  1  0  0  0  0
 49105  1  0  0  0  0
 50 54  1  0  0  0  0
 50106  1  0  0  0  0
 50107  1  0  0  0  0
 51 55  1  0  0  0  0
 51110  1  0  0  0  0
 51111  1  0  0  0  0
 52 53  1  0  0  0  0
 53 56  1  0  0  0  0
 53112  1  0  0  0  0
 55 57  1  0  0  0  0
 55113  1  0  0  0  0
 55114  1  0  0  0  0
 56 58  1  0  0  0  0
 56115  1  0  0  0  0
 56116  1  0  0  0  0
 57 60  2  0  0  0  0
 57 61  1  0  0  0  0
 58 62  1  0  0  0  0
 58118  1  0  0  0  0
 58119  1  0  0  0  0
 59 63  1  0  0  0  0
 60 64  1  0  0  0  0
 60121  1  0  0  0  0
 61 65  2  0  0  0  0
 61122  1  0  0  0  0
 63123  1  0  0  0  0
 63124  1  0  0  0  0
 63125  1  0  0  0  0
 64 66  2  0  0  0  0
 64126  1  0  0  0  0
 65 66  1  0  0  0  0
 65127  1  0  0  0  0
 66128  1  0  0  0  0
M  END
> <PUBCHEM_COMPOUND_CID>
506705
> <PUBCHEM_COMPOUND_CANONICALIZED>
1
> <PUBCHEM_CACTVS_COMPLEXITY>
1710
> <PUBCHEM_CACTVS_HBOND_ACCEPTOR>
13
> <PUBCHEM_CACTVS_HBOND_DONOR>
8
> <PUBCHEM_CACTVS_ROTATABLE_BOND>
26
> <PUBCHEM_CACTVS_SUBSKEYS>
AAADcfB/vAAAAAAAAAAAAAAAAAAAAWAAAAAwYAAAAAAAAAABQAAAHgAQCAAADTzhmAYyCIPABgCIAqHSGAACAAAgAAAIiIGICIgKZjqA8TmXcAAm1gGYqAe/16IOAAAAAAAAAAAAAAAAAAAAAAAAAAAAAA==
> <PUBCHEM_IUPAC_OPENEYE_NAME>
(4S)-4-acetamido-5-[[2-[[(1S)-1-[[(1S)-1-[(2S,4R)-4-benzyloxy-2-[[(1S)-1-ethyl-2,3-dioxo-3-(2-phenylethylamino)propyl]carbamoyl]pyrrolidine-1-carbonyl]-2-methyl-propyl]carbamoyl]-2-methyl-propyl]amino]-1-(carboxymethyl)-2-oxo-ethyl]amino]-5-oxo-pentanoic acid
> <PUBCHEM_IUPAC_CAS_NAME>
(4S)-4-acetamido-5-[[3-carboxy-1-[[(2S)-1-[[(2S)-1-[(2S,4R)-2-[[[(3S)-1,2-dioxo-1-(2-phenylethylamino)pentan-3-yl]amino]-oxomethyl]-4-phenylmethoxy-1-pyrrolidinyl]-3-methyl-1-oxobutan-2-yl]amino]-3-methyl-1-oxobutan-2-yl]amino]-1-oxopropan-2-yl]amino]-5-oxopentanoic acid
> <PUBCHEM_IUPAC_NAME_MARKUP>
(4<I>S</I>)-4-acetamido-5-[[3-carboxy-1-[[(2<I>S</I>)-1-[[(2<I>S</I>)-1-[(2<I>S</I>,4<I>R</I>)-2-[[(3<I>S</I>)-1,2-dioxo-1-(2-phenylethylamino)pentan-3-yl]carbamoyl]-4-phenylmethoxypyrrolidin-1-yl]-3-methyl-1-oxobutan-2-yl]amino]-3-methyl-1-oxobutan-2-yl]amino]-1-oxopropan-2-yl]amino]-5-oxopentanoic acid
> <PUBCHEM_IUPAC_NAME>
(4S)-4-acetamido-5-[[3-carboxy-1-[[(2S)-1-[[(2S)-1-[(2S,4R)-2-[[(3S)-1,2-dioxo-1-(2-phenylethylamino)pentan-3-yl]carbamoyl]-4-phenylmethoxypyrrolidin-1-yl]-3-methyl-1-oxobutan-2-yl]amino]-3-methyl-1-oxobutan-2-yl]amino]-1-oxopropan-2-yl]amino]-5-oxopentanoic acid
> <PUBCHEM_IUPAC_SYSTEMATIC_NAME>
(4S)-4-acetamido-5-[[1-[[(2S)-1-[[(2S)-1-[(2S,4R)-2-[[(3S)-1,2-bis(oxidanylidene)-1-(2-phenylethylamino)pentan-3-yl]carbamoyl]-4-phenylmethoxy-pyrrolidin-1-yl]-3-methyl-1-oxidanylidene-butan-2-yl]amino]-3-methyl-1-oxidanylidene-butan-2-yl]amino]-4-oxidanyl-1,4-bis(oxidanylidene)butan-2-yl]amino]-5-oxidanylidene-pentanoic acid
> <PUBCHEM_IUPAC_TRADITIONAL_NAME>
(4S)-4-acetamido-5-[[2-[[(1S)-1-[[(1S)-1-[(2S,4R)-4-benzoxy-2-[[(1S)-1-ethyl-2,3-diketo-3-(phenethylamino)propyl]carbamoyl]pyrrolidine-1-carbonyl]-2-methyl-propyl]carbamoyl]-2-methyl-propyl]amino]-1-(carboxymethyl)-2-keto-ethyl]amino]-5-keto-valeric acid
> <PUBCHEM_IUPAC_INCHI>
InChI=1S/C46H63N7O13/c1-7-32(40(59)45(64)47-21-20-29-14-10-8-11-15-29)49-43(62)35-22-31(66-25-30-16-12-9-13-17-30)24-53(35)46(65)39(27(4)5)52-44(63)38(26(2)3)51-42(61)34(23-37(57)58)50-41(60)33(48-28(6)54)18-19-36(55)56/h8-17,26-27,31-35,38-39H,7,18-25H2,1-6H3,(H,47,64)(H,48,54)(H,49,62)(H,50,60)(H,51,61)(H,52,63)(H,55,56)(H,57,58)/t31-,32+,33+,34?,35+,38+,39+/m1/s1
> <PUBCHEM_IUPAC_INCHIKEY>
QIQOEMKNXFNIQB-VQOKTEJKSA-N
> <PUBCHEM_XLOGP3_AA>
2.3
> <PUBCHEM_EXACT_MASS>
921.44838509
> <PUBCHEM_MOLECULAR_FORMULA>
C46H63N7O13
> <PUBCHEM_MOLECULAR_WEIGHT>
922.0
> <PUBCHEM_OPENEYE_CAN_SMILES>
CCC(C(=O)C(=O)NCCC1=CC=CC=C1)NC(=O)C2CC(CN2C(=O)C(C(C)C)NC(=O)C(C(C)C)NC(=O)C(CC(=O)O)NC(=O)C(CCC(=O)O)NC(=O)C)OCC3=CC=CC=C3
> <PUBCHEM_OPENEYE_ISO_SMILES>
CC[C@@H](C(=O)C(=O)NCCC1=CC=CC=C1)NC(=O)[C@@H]2C[C@H](CN2C(=O)[C@H](C(C)C)NC(=O)[C@H](C(C)C)NC(=O)C(CC(=O)O)NC(=O)[C@H](CCC(=O)O)NC(=O)C)OCC3=CC=CC=C3
> <PUBCHEM_CACTVS_TPSA>
296
> <PUBCHEM_MONOISOTOPIC_WEIGHT>
921.44838509
> <PUBCHEM_TOTAL_CHARGE>
0
> <PUBCHEM_HEAVY_ATOM_COUNT>
66
> <PUBCHEM_ATOM_DEF_STEREO_COUNT>
6
> <PUBCHEM_ATOM_UDEF_STEREO_COUNT>
1
> <PUBCHEM_BOND_DEF_STEREO_COUNT>
0
> <PUBCHEM_BOND_UDEF_STEREO_COUNT>
0
> <PUBCHEM_ISOTOPIC_ATOM_COUNT>
0
> <PUBCHEM_COMPONENT_COUNT>
1
> <PUBCHEM_CACTVS_TAUTO_COUNT>
-1
> <PUBCHEM_COORDINATE_TYPE>
1
5
255
> <PUBCHEM_BONDANNOTATIONS>
22  1  6
26  15  5
32  16  6
34  17  6
53  20  5
21  27  5
37  42  8
37  43  8
42  47  8
43  48  8
46  50  3
47  49  8
48  49  8
57  60  8
57  61  8
60  64  8
61  65  8
64  66  8
65  66  8
$$$$
