506702
  -OEChem-10302200282D
100102  0     1  0  0  0  0  0999 V2000
    4.1100   -2.6485    0.0000 P   0  0  0  0  0  0  0  0  0  0  0  0
    5.8521    2.4486    0.0000 O   0  0  0  0  0  0  0  0  0  0  0  0
    8.2075   -1.1674    0.0000 O   0  0  0  0  0  0  0  0  0  0  0  0
    6.9632   -1.7214    0.0000 O   0  0  0  0  0  0  0  0  0  0  0  0
    3.1590   -2.9575    0.0000 O   0  0  0  0  0  0  0  0  0  0  0  0
    4.4190   -3.5995    0.0000 O   0  0  0  0  0  0  0  0  0  0  0  0
    3.8010   -1.6974    0.0000 O   0  0  0  0  0  0  0  0  0  0  0  0
   10.8056    1.3326    0.0000 O   0  0  0  0  0  0  0  0  0  0  0  0
   13.4037   -1.1674    0.0000 O   0  0  0  0  0  0  0  0  0  0  0  0
    7.3415    0.3326    0.0000 N   0  0  0  0  0  0  0  0  0  0  0  0
    5.2690   -1.3613    0.0000 N   0  0  0  0  0  0  0  0  0  0  0  0
    9.9396   -0.1674    0.0000 N   0  0  0  0  0  0  0  0  0  0  0  0
   12.5377    0.3326    0.0000 N   0  0  0  0  0  0  0  0  0  0  0  0
   15.1357   -0.1674    0.0000 N   0  0  0  0  0  0  0  0  0  0  0  0
   15.1357    1.8326    0.0000 N   0  0  0  0  0  0  0  0  0  0  0  0
    6.4280   -0.0741    0.0000 C   0  0  1  0  0  0  0  0  0  0  0  0
    6.2588    1.5350    0.0000 C   0  0  2  0  0  0  0  0  0  0  0  0
    5.7588    0.6690    0.0000 C   0  0  0  0  0  0  0  0  0  0  0  0
    7.2370    1.3271    0.0000 C   0  0  0  0  0  0  0  0  0  0  0  0
    8.2075   -0.1674    0.0000 C   0  0  0  0  0  0  0  0  0  0  0  0
    9.0736    0.3326    0.0000 C   0  0  2  0  0  0  0  0  0  0  0  0
    6.2200   -1.0523    0.0000 C   0  0  0  0  0  0  0  0  0  0  0  0
    9.0736    1.3326    0.0000 C   0  0  0  0  0  0  0  0  0  0  0  0
    5.0611   -2.3395    0.0000 C   0  0  1  0  0  0  0  0  0  0  0  0
    4.8576    2.5531    0.0000 C   0  0  0  0  0  0  0  0  0  0  0  0
    9.9396    1.8326    0.0000 C   0  0  0  0  0  0  0  0  0  0  0  0
    8.2075    1.8326    0.0000 C   0  0  0  0  0  0  0  0  0  0  0  0
    5.8042   -3.0086    0.0000 C   0  0  0  0  0  0  0  0  0  0  0  0
   10.8056    0.3326    0.0000 C   0  0  0  0  0  0  0  0  0  0  0  0
   11.6716   -0.1674    0.0000 C   0  0  2  0  0  0  0  0  0  0  0  0
   11.6716   -1.1674    0.0000 C   0  0  0  0  0  0  0  0  0  0  0  0
    4.4508    3.4666    0.0000 C   0  0  0  0  0  0  0  0  0  0  0  0
    5.5963   -3.9867    0.0000 C   0  0  0  0  0  0  0  0  0  0  0  0
   10.8056   -1.6674    0.0000 C   0  0  0  0  0  0  0  0  0  0  0  0
   12.5377   -1.6674    0.0000 C   0  0  0  0  0  0  0  0  0  0  0  0
    5.0386    4.2757    0.0000 C   0  0  0  0  0  0  0  0  0  0  0  0
    3.4563    3.5712    0.0000 C   0  0  0  0  0  0  0  0  0  0  0  0
    2.9511   -3.9356    0.0000 C   0  0  0  0  0  0  0  0  0  0  0  0
    3.7499   -4.3427    0.0000 C   0  0  0  0  0  0  0  0  0  0  0  0
   13.4037   -0.1674    0.0000 C   0  0  0  0  0  0  0  0  0  0  0  0
    4.6319    5.1892    0.0000 C   0  0  0  0  0  0  0  0  0  0  0  0
    3.0496    4.4847    0.0000 C   0  0  0  0  0  0  0  0  0  0  0  0
    3.6374    5.2937    0.0000 C   0  0  0  0  0  0  0  0  0  0  0  0
    2.0000   -4.2447    0.0000 C   0  0  0  0  0  0  0  0  0  0  0  0
    4.0589   -5.2937    0.0000 C   0  0  0  0  0  0  0  0  0  0  0  0
   14.2697    0.3326    0.0000 C   0  0  0  0  0  0  0  0  0  0  0  0
   14.2697    1.3326    0.0000 C   0  0  0  0  0  0  0  0  0  0  0  0
   16.0018    0.3326    0.0000 C   0  0  0  0  0  0  0  0  0  0  0  0
   16.0018    1.3326    0.0000 C   0  0  0  0  0  0  0  0  0  0  0  0
    6.9098   -0.4643    0.0000 H   0  0  0  0  0  0  0  0  0  0  0  0
    6.6490    2.0168    0.0000 H   0  0  0  0  0  0  0  0  0  0  0  0
    5.2572    1.0334    0.0000 H   0  0  0  0  0  0  0  0  0  0  0  0
    5.3440    0.2082    0.0000 H   0  0  0  0  0  0  0  0  0  0  0  0
    7.8570    1.3271    0.0000 H   0  0  0  0  0  0  0  0  0  0  0  0
    7.3018    1.9437    0.0000 H   0  0  0  0  0  0  0  0  0  0  0  0
    9.0736   -0.2874    0.0000 H   0  0  0  0  0  0  0  0  0  0  0  0
    9.6105    1.0226    0.0000 H   0  0  0  0  0  0  0  0  0  0  0  0
    4.8082   -0.9464    0.0000 H   0  0  0  0  0  0  0  0  0  0  0  0
    5.6507   -2.1479    0.0000 H   0  0  0  0  0  0  0  0  0  0  0  0
    9.9396   -0.7874    0.0000 H   0  0  0  0  0  0  0  0  0  0  0  0
    4.2560    2.4031    0.0000 H   0  0  0  0  0  0  0  0  0  0  0  0
    4.9008    1.9346    0.0000 H   0  0  0  0  0  0  0  0  0  0  0  0
   10.2496    1.2956    0.0000 H   0  0  0  0  0  0  0  0  0  0  0  0
   10.4765    2.1426    0.0000 H   0  0  0  0  0  0  0  0  0  0  0  0
    9.6296    2.3695    0.0000 H   0  0  0  0  0  0  0  0  0  0  0  0
    8.5175    2.3695    0.0000 H   0  0  0  0  0  0  0  0  0  0  0  0
    7.6706    2.1426    0.0000 H   0  0  0  0  0  0  0  0  0  0  0  0
    7.8975    1.2956    0.0000 H   0  0  0  0  0  0  0  0  0  0  0  0
    6.3791   -3.2408    0.0000 H   0  0  0  0  0  0  0  0  0  0  0  0
    6.1328   -2.4828    0.0000 H   0  0  0  0  0  0  0  0  0  0  0  0
   11.6716    0.4526    0.0000 H   0  0  0  0  0  0  0  0  0  0  0  0
   12.2086   -0.8574    0.0000 H   0  0  0  0  0  0  0  0  0  0  0  0
    4.9899   -3.8578    0.0000 H   0  0  0  0  0  0  0  0  0  0  0  0
    5.4674   -4.5932    0.0000 H   0  0  0  0  0  0  0  0  0  0  0  0
    6.2028   -4.1156    0.0000 H   0  0  0  0  0  0  0  0  0  0  0  0
   12.5377    0.9526    0.0000 H   0  0  0  0  0  0  0  0  0  0  0  0
   10.4956   -1.1305    0.0000 H   0  0  0  0  0  0  0  0  0  0  0  0
   10.2687   -1.9774    0.0000 H   0  0  0  0  0  0  0  0  0  0  0  0
   11.1156   -2.2043    0.0000 H   0  0  0  0  0  0  0  0  0  0  0  0
   12.2277   -2.2043    0.0000 H   0  0  0  0  0  0  0  0  0  0  0  0
   13.0746   -1.9774    0.0000 H   0  0  0  0  0  0  0  0  0  0  0  0
   12.8477   -1.1305    0.0000 H   0  0  0  0  0  0  0  0  0  0  0  0
    5.6552    4.2108    0.0000 H   0  0  0  0  0  0  0  0  0  0  0  0
    3.0919    3.0696    0.0000 H   0  0  0  0  0  0  0  0  0  0  0  0
    3.0373   -4.5496    0.0000 H   0  0  0  0  0  0  0  0  0  0  0  0
    3.5707   -3.9573    0.0000 H   0  0  0  0  0  0  0  0  0  0  0  0
    3.3682   -3.8541    0.0000 H   0  0  0  0  0  0  0  0  0  0  0  0
    3.2025   -4.6338    0.0000 H   0  0  0  0  0  0  0  0  0  0  0  0
    4.9963    5.6908    0.0000 H   0  0  0  0  0  0  0  0  0  0  0  0
    2.4330    4.5495    0.0000 H   0  0  0  0  0  0  0  0  0  0  0  0
    3.3852    5.8601    0.0000 H   0  0  0  0  0  0  0  0  0  0  0  0
    1.8084   -3.6550    0.0000 H   0  0  0  0  0  0  0  0  0  0  0  0
    1.4103   -4.4362    0.0000 H   0  0  0  0  0  0  0  0  0  0  0  0
    2.1916   -4.8343    0.0000 H   0  0  0  0  0  0  0  0  0  0  0  0
    3.4693   -5.4853    0.0000 H   0  0  0  0  0  0  0  0  0  0  0  0
    4.2505   -5.8834    0.0000 H   0  0  0  0  0  0  0  0  0  0  0  0
    4.6486   -5.1021    0.0000 H   0  0  0  0  0  0  0  0  0  0  0  0
   13.7328    1.6426    0.0000 H   0  0  0  0  0  0  0  0  0  0  0  0
   16.5387    0.0226    0.0000 H   0  0  0  0  0  0  0  0  0  0  0  0
   16.5387    1.6426    0.0000 H   0  0  0  0  0  0  0  0  0  0  0  0
  1  5  1  0  0  0  0
  1  6  1  0  0  0  0
  1  7  2  0  0  0  0
  1 24  1  0  0  0  0
 17  2  1  1  0  0  0
  2 25  1  0  0  0  0
  3 20  2  0  0  0  0
  4 22  2  0  0  0  0
  5 38  1  0  0  0  0
  6 39  1  0  0  0  0
  8 29  2  0  0  0  0
  9 40  2  0  0  0  0
 10 16  1  0  0  0  0
 10 19  1  0  0  0  0
 10 20  1  0  0  0  0
 11 22  1  0  0  0  0
 24 11  1  1  0  0  0
 11 58  1  0  0  0  0
 21 12  1  6  0  0  0
 12 29  1  0  0  0  0
 12 60  1  0  0  0  0
 30 13  1  1  0  0  0
 13 40  1  0  0  0  0
 13 76  1  0  0  0  0
 14 46  2  0  0  0  0
 14 48  1  0  0  0  0
 15 47  2  0  0  0  0
 15 49  1  0  0  0  0
 16 18  1  0  0  0  0
 16 22  1  6  0  0  0
 16 50  1  0  0  0  0
 17 18  1  0  0  0  0
 17 19  1  0  0  0  0
 17 51  1  0  0  0  0
 18 52  1  0  0  0  0
 18 53  1  0  0  0  0
 19 54  1  0  0  0  0
 19 55  1  0  0  0  0
 20 21  1  0  0  0  0
 21 23  1  0  0  0  0
 21 56  1  0  0  0  0
 23 26  1  0  0  0  0
 23 27  1  0  0  0  0
 23 57  1  0  0  0  0
 24 28  1  0  0  0  0
 24 59  1  0  0  0  0
 25 32  1  0  0  0  0
 25 61  1  0  0  0  0
 25 62  1  0  0  0  0
 26 63  1  0  0  0  0
 26 64  1  0  0  0  0
 26 65  1  0  0  0  0
 27 66  1  0  0  0  0
 27 67  1  0  0  0  0
 27 68  1  0  0  0  0
 28 33  1  0  0  0  0
 28 69  1  0  0  0  0
 28 70  1  0  0  0  0
 29 30  1  0  0  0  0
 30 31  1  0  0  0  0
 30 71  1  0  0  0  0
 31 34  1  0  0  0  0
 31 35  1  0  0  0  0
 31 72  1  0  0  0  0
 32 36  2  0  0  0  0
 32 37  1  0  0  0  0
 33 73  1  0  0  0  0
 33 74  1  0  0  0  0
 33 75  1  0  0  0  0
 34 77  1  0  0  0  0
 34 78  1  0  0  0  0
 34 79  1  0  0  0  0
 35 80  1  0  0  0  0
 35 81  1  0  0  0  0
 35 82  1  0  0  0  0
 36 41  1  0  0  0  0
 36 83  1  0  0  0  0
 37 42  2  0  0  0  0
 37 84  1  0  0  0  0
 38 44  1  0  0  0  0
 38 85  1  0  0  0  0
 38 86  1  0  0  0  0
 39 45  1  0  0  0  0
 39 87  1  0  0  0  0
 39 88  1  0  0  0  0
 40 46  1  0  0  0  0
 41 43  2  0  0  0  0
 41 89  1  0  0  0  0
 42 43  1  0  0  0  0
 42 90  1  0  0  0  0
 43 91  1  0  0  0  0
 44 92  1  0  0  0  0
 44 93  1  0  0  0  0
 44 94  1  0  0  0  0
 45 95  1  0  0  0  0
 45 96  1  0  0  0  0
 45 97  1  0  0  0  0
 46 47  1  0  0  0  0
 47 98  1  0  0  0  0
 48 49  2  0  0  0  0
 48 99  1  0  0  0  0
 49100  1  0  0  0  0
M  END
> <PUBCHEM_COMPOUND_CID>
506702
> <PUBCHEM_COMPOUND_CANONICALIZED>
1
> <PUBCHEM_CACTVS_COMPLEXITY>
1130
> <PUBCHEM_CACTVS_HBOND_ACCEPTOR>
10
> <PUBCHEM_CACTVS_HBOND_DONOR>
3
> <PUBCHEM_CACTVS_ROTATABLE_BOND>
18
> <PUBCHEM_CACTVS_SUBSKEYS>
AAADcfB/vAIAAAAAAAAAAAAAAAAAAWAAAAA8QAAAAAAAAAABwAAAHggQACAADTzpngY+gJPIFRCoQzV3VICCgCQ3EiAI2IG4fMgKZnrA8TiXMIgm1gHYqMe6wSAOAAAAAAAAAAAAAAAAAAAAAAAAAAAAAA==
> <PUBCHEM_IUPAC_OPENEYE_NAME>
N-[(1S)-1-[[(1S)-1-[(2S,4R)-4-benzyloxy-2-[[(1R)-1-diethoxyphosphorylpropyl]carbamoyl]pyrrolidine-1-carbonyl]-2-methyl-propyl]carbamoyl]-2-methyl-propyl]pyrazine-2-carboxamide
> <PUBCHEM_IUPAC_CAS_NAME>
N-[(2S)-1-[[(2S)-1-[(2S,4R)-2-[[[(1R)-1-diethoxyphosphorylpropyl]amino]-oxomethyl]-4-phenylmethoxy-1-pyrrolidinyl]-3-methyl-1-oxobutan-2-yl]amino]-3-methyl-1-oxobutan-2-yl]-2-pyrazinecarboxamide
> <PUBCHEM_IUPAC_NAME_MARKUP>
<I>N</I>-[(2<I>S</I>)-1-[[(2<I>S</I>)-1-[(2<I>S</I>,4<I>R</I>)-2-[[(1<I>R</I>)-1-diethoxyphosphorylpropyl]carbamoyl]-4-phenylmethoxypyrrolidin-1-yl]-3-methyl-1-oxobutan-2-yl]amino]-3-methyl-1-oxobutan-2-yl]pyrazine-2-carboxamide
> <PUBCHEM_IUPAC_NAME>
N-[(2S)-1-[[(2S)-1-[(2S,4R)-2-[[(1R)-1-diethoxyphosphorylpropyl]carbamoyl]-4-phenylmethoxypyrrolidin-1-yl]-3-methyl-1-oxobutan-2-yl]amino]-3-methyl-1-oxobutan-2-yl]pyrazine-2-carboxamide
> <PUBCHEM_IUPAC_SYSTEMATIC_NAME>
N-[(2S)-1-[[(2S)-1-[(2S,4R)-2-[[(1R)-1-diethoxyphosphorylpropyl]carbamoyl]-4-phenylmethoxy-pyrrolidin-1-yl]-3-methyl-1-oxidanylidene-butan-2-yl]amino]-3-methyl-1-oxidanylidene-butan-2-yl]pyrazine-2-carboxamide
> <PUBCHEM_IUPAC_TRADITIONAL_NAME>
N-[(1S)-1-[[(1S)-1-[(2S,4R)-4-benzoxy-2-[[(1R)-1-diethoxyphosphorylpropyl]carbamoyl]pyrrolidine-1-carbonyl]-2-methyl-propyl]carbamoyl]-2-methyl-propyl]pyrazinamide
> <PUBCHEM_IUPAC_INCHI>
InChI=1S/C34H51N6O8P/c1-8-28(49(45,47-9-2)48-10-3)37-32(42)27-18-25(46-21-24-14-12-11-13-15-24)20-40(27)34(44)30(23(6)7)39-33(43)29(22(4)5)38-31(41)26-19-35-16-17-36-26/h11-17,19,22-23,25,27-30H,8-10,18,20-21H2,1-7H3,(H,37,42)(H,38,41)(H,39,43)/t25-,27+,28-,29+,30+/m1/s1
> <PUBCHEM_IUPAC_INCHIKEY>
BTHNEWDMLGIEQT-JURZQKOZSA-N
> <PUBCHEM_XLOGP3_AA>
3
> <PUBCHEM_EXACT_MASS>
702.35059960
> <PUBCHEM_MOLECULAR_FORMULA>
C34H51N6O8P
> <PUBCHEM_MOLECULAR_WEIGHT>
702.8
> <PUBCHEM_OPENEYE_CAN_SMILES>
CCC(NC(=O)C1CC(CN1C(=O)C(C(C)C)NC(=O)C(C(C)C)NC(=O)C2=NC=CN=C2)OCC3=CC=CC=C3)P(=O)(OCC)OCC
> <PUBCHEM_OPENEYE_ISO_SMILES>
CC[C@H](NC(=O)[C@@H]1C[C@H](CN1C(=O)[C@H](C(C)C)NC(=O)[C@H](C(C)C)NC(=O)C2=NC=CN=C2)OCC3=CC=CC=C3)P(=O)(OCC)OCC
> <PUBCHEM_CACTVS_TPSA>
178
> <PUBCHEM_MONOISOTOPIC_WEIGHT>
702.35059960
> <PUBCHEM_TOTAL_CHARGE>
0
> <PUBCHEM_HEAVY_ATOM_COUNT>
49
> <PUBCHEM_ATOM_DEF_STEREO_COUNT>
5
> <PUBCHEM_ATOM_UDEF_STEREO_COUNT>
0
> <PUBCHEM_BOND_DEF_STEREO_COUNT>
0
> <PUBCHEM_BOND_UDEF_STEREO_COUNT>
0
> <PUBCHEM_ISOTOPIC_ATOM_COUNT>
0
> <PUBCHEM_COMPONENT_COUNT>
1
> <PUBCHEM_CACTVS_TAUTO_COUNT>
-1
> <PUBCHEM_COORDINATE_TYPE>
1
5
255
> <PUBCHEM_BONDANNOTATIONS>
24  11  5
21  12  6
30  13  5
14  46  8
14  48  8
15  47  8
15  49  8
16  22  6
17  2  5
32  36  8
32  37  8
36  41  8
37  42  8
41  43  8
42  43  8
46  47  8
48  49  8
$$$$
