506724
  -OEChem-10302200282D
 87 87  0     1  0  0  0  0  0999 V2000
   10.6603    6.2500    0.0000 O   0  0  0  0  0  0  0  0  0  0  0  0
    8.0622   -3.2500    0.0000 O   0  0  0  0  0  0  0  0  0  0  0  0
    7.1962    0.2500    0.0000 O   0  0  0  0  0  0  0  0  0  0  0  0
    5.4641   -5.7500    0.0000 O   0  0  0  0  0  0  0  0  0  0  0  0
   10.6603    1.2500    0.0000 O   0  0  0  0  0  0  0  0  0  0  0  0
    2.0000   -4.7500    0.0000 O   0  0  0  0  0  0  0  0  0  0  0  0
    8.0622   -1.2500    0.0000 N   0  0  0  0  0  0  0  0  0  0  0  0
    6.3301   -3.2500    0.0000 N   0  0  0  0  0  0  0  0  0  0  0  0
   10.6603    4.2500    0.0000 N   0  0  0  0  0  0  0  0  0  0  0  0
    8.9282    1.2500    0.0000 N   0  0  0  0  0  0  0  0  0  0  0  0
    4.5981   -4.2500    0.0000 N   0  0  0  0  0  0  0  0  0  0  0  0
    7.1962   -1.7500    0.0000 C   0  0  1  0  0  0  0  0  0  0  0  0
    6.3301   -1.2500    0.0000 C   0  0  0  0  0  0  0  0  0  0  0  0
    8.9282    0.2500    0.0000 C   0  0  1  0  0  0  0  0  0  0  0  0
    6.3301   -4.2500    0.0000 C   0  0  1  0  0  0  0  0  0  0  0  0
    9.7942   -0.2500    0.0000 C   0  0  0  0  0  0  0  0  0  0  0  0
    7.1962   -4.7500    0.0000 C   0  0  0  0  0  0  0  0  0  0  0  0
    7.1962   -5.7500    0.0000 C   0  0  0  0  0  0  0  0  0  0  0  0
    7.1962   -2.7500    0.0000 C   0  0  0  0  0  0  0  0  0  0  0  0
    8.0622   -0.2500    0.0000 C   0  0  0  0  0  0  0  0  0  0  0  0
   10.6603    3.2500    0.0000 C   0  0  0  0  0  0  0  0  0  0  0  0
    5.4641   -1.7500    0.0000 C   0  0  0  0  0  0  0  0  0  0  0  0
    6.3301   -0.2500    0.0000 C   0  0  0  0  0  0  0  0  0  0  0  0
    9.7942    2.7500    0.0000 C   0  0  0  0  0  0  0  0  0  0  0  0
   11.5263    4.7500    0.0000 C   0  0  0  0  0  0  0  0  0  0  0  0
    9.7942    4.7500    0.0000 C   0  0  0  0  0  0  0  0  0  0  0  0
    5.4641   -4.7500    0.0000 C   0  0  0  0  0  0  0  0  0  0  0  0
    9.7942   -1.2500    0.0000 C   0  0  0  0  0  0  0  0  0  0  0  0
   10.6603    0.2500    0.0000 C   0  0  0  0  0  0  0  0  0  0  0  0
    9.7942    1.7500    0.0000 C   0  0  0  0  0  0  0  0  0  0  0  0
    8.0622   -6.2500    0.0000 C   0  0  0  0  0  0  0  0  0  0  0  0
    6.3301   -6.2500    0.0000 C   0  0  0  0  0  0  0  0  0  0  0  0
   11.5263    5.7500    0.0000 C   0  0  0  0  0  0  0  0  0  0  0  0
    9.7942    5.7500    0.0000 C   0  0  0  0  0  0  0  0  0  0  0  0
    3.7320   -4.7500    0.0000 C   0  0  1  0  0  0  0  0  0  0  0  0
    3.7320   -5.7500    0.0000 C   0  0  0  0  0  0  0  0  0  0  0  0
    2.8660   -4.2500    0.0000 C   0  0  0  0  0  0  0  0  0  0  0  0
    2.8660   -6.2500    0.0000 C   0  0  0  0  0  0  0  0  0  0  0  0
    7.7331   -2.0600    0.0000 H   0  0  0  0  0  0  0  0  0  0  0  0
    6.8671   -0.9400    0.0000 H   0  0  0  0  0  0  0  0  0  0  0  0
    9.4651    0.5600    0.0000 H   0  0  0  0  0  0  0  0  0  0  0  0
    6.8671   -3.9400    0.0000 H   0  0  0  0  0  0  0  0  0  0  0  0
    9.2573   -0.5600    0.0000 H   0  0  0  0  0  0  0  0  0  0  0  0
    7.8067   -4.8577    0.0000 H   0  0  0  0  0  0  0  0  0  0  0  0
    7.4082   -4.1674    0.0000 H   0  0  0  0  0  0  0  0  0  0  0  0
    6.6592   -5.4400    0.0000 H   0  0  0  0  0  0  0  0  0  0  0  0
    8.5991   -1.5600    0.0000 H   0  0  0  0  0  0  0  0  0  0  0  0
    5.7932   -2.9400    0.0000 H   0  0  0  0  0  0  0  0  0  0  0  0
   10.8723    2.6674    0.0000 H   0  0  0  0  0  0  0  0  0  0  0  0
   11.2708    3.3577    0.0000 H   0  0  0  0  0  0  0  0  0  0  0  0
    8.3913    1.5600    0.0000 H   0  0  0  0  0  0  0  0  0  0  0  0
    5.1541   -1.2131    0.0000 H   0  0  0  0  0  0  0  0  0  0  0  0
    4.9272   -2.0600    0.0000 H   0  0  0  0  0  0  0  0  0  0  0  0
    5.7741   -2.2869    0.0000 H   0  0  0  0  0  0  0  0  0  0  0  0
    6.9501   -0.2500    0.0000 H   0  0  0  0  0  0  0  0  0  0  0  0
    6.3301    0.3700    0.0000 H   0  0  0  0  0  0  0  0  0  0  0  0
    5.7101   -0.2500    0.0000 H   0  0  0  0  0  0  0  0  0  0  0  0
    9.5822    3.3326    0.0000 H   0  0  0  0  0  0  0  0  0  0  0  0
    9.1836    2.6423    0.0000 H   0  0  0  0  0  0  0  0  0  0  0  0
   11.7383    4.1674    0.0000 H   0  0  0  0  0  0  0  0  0  0  0  0
   12.1369    4.8577    0.0000 H   0  0  0  0  0  0  0  0  0  0  0  0
    9.1836    4.8577    0.0000 H   0  0  0  0  0  0  0  0  0  0  0  0
    9.5822    4.1674    0.0000 H   0  0  0  0  0  0  0  0  0  0  0  0
    9.1742   -1.2500    0.0000 H   0  0  0  0  0  0  0  0  0  0  0  0
    9.7942   -1.8700    0.0000 H   0  0  0  0  0  0  0  0  0  0  0  0
   10.4142   -1.2500    0.0000 H   0  0  0  0  0  0  0  0  0  0  0  0
   10.9703   -0.2869    0.0000 H   0  0  0  0  0  0  0  0  0  0  0  0
   11.1972    0.5600    0.0000 H   0  0  0  0  0  0  0  0  0  0  0  0
   10.3503    0.7869    0.0000 H   0  0  0  0  0  0  0  0  0  0  0  0
    7.7522   -6.7869    0.0000 H   0  0  0  0  0  0  0  0  0  0  0  0
    8.5991   -6.5600    0.0000 H   0  0  0  0  0  0  0  0  0  0  0  0
    8.3722   -5.7131    0.0000 H   0  0  0  0  0  0  0  0  0  0  0  0
    6.0201   -5.7131    0.0000 H   0  0  0  0  0  0  0  0  0  0  0  0
    5.7932   -6.5600    0.0000 H   0  0  0  0  0  0  0  0  0  0  0  0
    6.6401   -6.7869    0.0000 H   0  0  0  0  0  0  0  0  0  0  0  0
   12.1369    5.6423    0.0000 H   0  0  0  0  0  0  0  0  0  0  0  0
   11.7383    6.3326    0.0000 H   0  0  0  0  0  0  0  0  0  0  0  0
    9.5822    6.3326    0.0000 H   0  0  0  0  0  0  0  0  0  0  0  0
    9.1836    5.6423    0.0000 H   0  0  0  0  0  0  0  0  0  0  0  0
    4.5981   -3.6300    0.0000 H   0  0  0  0  0  0  0  0  0  0  0  0
    3.7320   -4.1300    0.0000 H   0  0  0  0  0  0  0  0  0  0  0  0
    3.9441   -6.3326    0.0000 H   0  0  0  0  0  0  0  0  0  0  0  0
    4.3426   -5.6423    0.0000 H   0  0  0  0  0  0  0  0  0  0  0  0
    2.8660   -3.6300    0.0000 H   0  0  0  0  0  0  0  0  0  0  0  0
    2.5560   -5.7131    0.0000 H   0  0  0  0  0  0  0  0  0  0  0  0
    2.3291   -6.5600    0.0000 H   0  0  0  0  0  0  0  0  0  0  0  0
    3.1760   -6.7869    0.0000 H   0  0  0  0  0  0  0  0  0  0  0  0
  1 33  1  0  0  0  0
  1 34  1  0  0  0  0
  2 19  2  0  0  0  0
  3 20  2  0  0  0  0
  4 27  2  0  0  0  0
  5 30  2  0  0  0  0
  6 37  2  0  0  0  0
 12  7  1  6  0  0  0
  7 20  1  0  0  0  0
  7 47  1  0  0  0  0
 15  8  1  1  0  0  0
  8 19  1  0  0  0  0
  8 48  1  0  0  0  0
  9 21  1  0  0  0  0
  9 25  1  0  0  0  0
  9 26  1  0  0  0  0
 14 10  1  1  0  0  0
 10 30  1  0  0  0  0
 10 51  1  0  0  0  0
 11 27  1  0  0  0  0
 35 11  1  1  0  0  0
 11 80  1  0  0  0  0
 12 13  1  0  0  0  0
 12 19  1  0  0  0  0
 12 39  1  0  0  0  0
 13 22  1  0  0  0  0
 13 23  1  0  0  0  0
 13 40  1  0  0  0  0
 14 16  1  0  0  0  0
 14 20  1  0  0  0  0
 14 41  1  0  0  0  0
 15 17  1  0  0  0  0
 15 27  1  0  0  0  0
 15 42  1  0  0  0  0
 16 28  1  0  0  0  0
 16 29  1  0  0  0  0
 16 43  1  0  0  0  0
 17 18  1  0  0  0  0
 17 44  1  0  0  0  0
 17 45  1  0  0  0  0
 18 31  1  0  0  0  0
 18 32  1  0  0  0  0
 18 46  1  0  0  0  0
 21 24  1  0  0  0  0
 21 49  1  0  0  0  0
 21 50  1  0  0  0  0
 22 52  1  0  0  0  0
 22 53  1  0  0  0  0
 22 54  1  0  0  0  0
 23 55  1  0  0  0  0
 23 56  1  0  0  0  0
 23 57  1  0  0  0  0
 24 30  1  0  0  0  0
 24 58  1  0  0  0  0
 24 59  1  0  0  0  0
 25 33  1  0  0  0  0
 25 60  1  0  0  0  0
 25 61  1  0  0  0  0
 26 34  1  0  0  0  0
 26 62  1  0  0  0  0
 26 63  1  0  0  0  0
 28 64  1  0  0  0  0
 28 65  1  0  0  0  0
 28 66  1  0  0  0  0
 29 67  1  0  0  0  0
 29 68  1  0  0  0  0
 29 69  1  0  0  0  0
 31 70  1  0  0  0  0
 31 71  1  0  0  0  0
 31 72  1  0  0  0  0
 32 73  1  0  0  0  0
 32 74  1  0  0  0  0
 32 75  1  0  0  0  0
 33 76  1  0  0  0  0
 33 77  1  0  0  0  0
 34 78  1  0  0  0  0
 34 79  1  0  0  0  0
 35 36  1  0  0  0  0
 35 37  1  0  0  0  0
 35 81  1  0  0  0  0
 36 38  1  0  0  0  0
 36 82  1  0  0  0  0
 36 83  1  0  0  0  0
 37 84  1  0  0  0  0
 38 85  1  0  0  0  0
 38 86  1  0  0  0  0
 38 87  1  0  0  0  0
M  END
> <PUBCHEM_COMPOUND_CID>
506724
> <PUBCHEM_COMPOUND_CANONICALIZED>
1
> <PUBCHEM_CACTVS_COMPLEXITY>
782
> <PUBCHEM_CACTVS_HBOND_ACCEPTOR>
7
> <PUBCHEM_CACTVS_HBOND_DONOR>
4
> <PUBCHEM_CACTVS_ROTATABLE_BOND>
16
> <PUBCHEM_CACTVS_SUBSKEYS>
AAADcfB7uAAAAAAAAAAAAAAAAAAAAAAAAAAsAAAAAAAAAAAAAAAAHgAQAAAADSjhgAYCAAPABAAIAAkQkAAAAAAAAAAAAIGIAAACQBoAwCAXAAAAFgCQAAAYAAAMAAAAAAAAAAAAAAAAAAAAAAAAAAAAAA==
> <PUBCHEM_IUPAC_OPENEYE_NAME>
(2S)-N-[(1S)-1-formylpropyl]-4-methyl-2-[[(2S)-3-methyl-2-[[(2S)-3-methyl-2-(3-morpholinopropanoylamino)butanoyl]amino]butanoyl]amino]pentanamide
> <PUBCHEM_IUPAC_CAS_NAME>
(2S)-4-methyl-2-[[(2S)-3-methyl-2-[[(2S)-3-methyl-2-[[3-(4-morpholinyl)-1-oxopropyl]amino]-1-oxobutyl]amino]-1-oxobutyl]amino]-N-[(2S)-1-oxobutan-2-yl]pentanamide
> <PUBCHEM_IUPAC_NAME_MARKUP>
(2<I>S</I>)-4-methyl-2-[[(2<I>S</I>)-3-methyl-2-[[(2<I>S</I>)-3-methyl-2-(3-morpholin-4-ylpropanoylamino)butanoyl]amino]butanoyl]amino]-<I>N</I>-[(2<I>S</I>)-1-oxobutan-2-yl]pentanamide
> <PUBCHEM_IUPAC_NAME>
(2S)-4-methyl-2-[[(2S)-3-methyl-2-[[(2S)-3-methyl-2-(3-morpholin-4-ylpropanoylamino)butanoyl]amino]butanoyl]amino]-N-[(2S)-1-oxobutan-2-yl]pentanamide
> <PUBCHEM_IUPAC_SYSTEMATIC_NAME>
(2S)-4-methyl-2-[[(2S)-3-methyl-2-[[(2S)-3-methyl-2-(3-morpholin-4-ylpropanoylamino)butanoyl]amino]butanoyl]amino]-N-[(2S)-1-oxidanylidenebutan-2-yl]pentanamide
> <PUBCHEM_IUPAC_TRADITIONAL_NAME>
(2S)-N-[(1S)-1-formylpropyl]-4-methyl-2-[[(2S)-3-methyl-2-[[(2S)-3-methyl-2-(3-morpholinopropanoylamino)butanoyl]amino]butanoyl]amino]valeramide
> <PUBCHEM_IUPAC_INCHI>
InChI=1S/C27H49N5O6/c1-8-20(16-33)28-25(35)21(15-17(2)3)29-26(36)24(19(6)7)31-27(37)23(18(4)5)30-22(34)9-10-32-11-13-38-14-12-32/h16-21,23-24H,8-15H2,1-7H3,(H,28,35)(H,29,36)(H,30,34)(H,31,37)/t20-,21-,23-,24-/m0/s1
> <PUBCHEM_IUPAC_INCHIKEY>
LKMMKHSGBZZJKD-WMIMKTLMSA-N
> <PUBCHEM_XLOGP3_AA>
2.1
> <PUBCHEM_EXACT_MASS>
539.36828430
> <PUBCHEM_MOLECULAR_FORMULA>
C27H49N5O6
> <PUBCHEM_MOLECULAR_WEIGHT>
539.7
> <PUBCHEM_OPENEYE_CAN_SMILES>
CCC(C=O)NC(=O)C(CC(C)C)NC(=O)C(C(C)C)NC(=O)C(C(C)C)NC(=O)CCN1CCOCC1
> <PUBCHEM_OPENEYE_ISO_SMILES>
CC[C@@H](C=O)NC(=O)[C@H](CC(C)C)NC(=O)[C@H](C(C)C)NC(=O)[C@H](C(C)C)NC(=O)CCN1CCOCC1
> <PUBCHEM_CACTVS_TPSA>
146
> <PUBCHEM_MONOISOTOPIC_WEIGHT>
539.36828430
> <PUBCHEM_TOTAL_CHARGE>
0
> <PUBCHEM_HEAVY_ATOM_COUNT>
38
> <PUBCHEM_ATOM_DEF_STEREO_COUNT>
4
> <PUBCHEM_ATOM_UDEF_STEREO_COUNT>
0
> <PUBCHEM_BOND_DEF_STEREO_COUNT>
0
> <PUBCHEM_BOND_UDEF_STEREO_COUNT>
0
> <PUBCHEM_ISOTOPIC_ATOM_COUNT>
0
> <PUBCHEM_COMPONENT_COUNT>
1
> <PUBCHEM_CACTVS_TAUTO_COUNT>
-1
> <PUBCHEM_COORDINATE_TYPE>
1
5
255
> <PUBCHEM_BONDANNOTATIONS>
14  10  5
35  11  5
12  7  6
15  8  5
$$$$
