506768
  -OEChem-10302200282D
 75 77  0     1  0  0  0  0  0999 V2000
    3.7320   -2.6465    0.0000 S   0  0  0  0  0  0  0  0  0  0  0  0
    4.3763    2.7014    0.0000 O   0  0  0  0  0  0  0  0  0  0  0  0
    6.3301   -1.1465    0.0000 O   0  0  0  0  0  0  0  0  0  0  0  0
    7.4321   -0.3459    0.0000 O   0  0  0  0  0  0  0  0  0  0  0  0
    3.2320   -1.7805    0.0000 O   0  0  0  0  0  0  0  0  0  0  0  0
    4.2320   -3.5125    0.0000 O   0  0  0  0  0  0  0  0  0  0  0  0
   10.6126    1.3525    0.0000 O   0  0  0  0  0  0  0  0  0  0  0  0
    5.4641    0.3535    0.0000 N   0  0  0  0  0  0  0  0  0  0  0  0
    4.5981   -2.1465    0.0000 N   0  0  0  0  0  0  0  0  0  0  0  0
    7.9673    1.3014    0.0000 N   0  0  0  0  0  0  0  0  0  0  0  0
    6.2731    0.9413    0.0000 C   0  0  1  0  0  0  0  0  0  0  0  0
    4.9641    1.8924    0.0000 C   0  0  2  0  0  0  0  0  0  0  0  0
    5.9641    1.8924    0.0000 C   0  0  0  0  0  0  0  0  0  0  0  0
    4.6551    0.9413    0.0000 C   0  0  0  0  0  0  0  0  0  0  0  0
    5.4641   -0.6465    0.0000 C   0  0  0  0  0  0  0  0  0  0  0  0
    4.5981   -1.1465    0.0000 C   0  0  2  0  0  0  0  0  0  0  0  0
    7.2242    0.6323    0.0000 C   0  0  0  0  0  0  0  0  0  0  0  0
    3.7320   -0.6465    0.0000 C   0  0  0  0  0  0  0  0  0  0  0  0
    4.7830    3.6149    0.0000 C   0  0  0  0  0  0  0  0  0  0  0  0
    3.7320    0.3535    0.0000 C   0  0  0  0  0  0  0  0  0  0  0  0
    2.8660   -1.1465    0.0000 C   0  0  0  0  0  0  0  0  0  0  0  0
    8.9184    0.9924    0.0000 C   0  0  1  0  0  0  0  0  0  0  0  0
    2.8660   -3.1465    0.0000 C   0  0  0  0  0  0  0  0  0  0  0  0
    4.1953    4.4239    0.0000 C   0  0  0  0  0  0  0  0  0  0  0  0
    9.1263    0.0142    0.0000 C   0  0  0  0  0  0  0  0  0  0  0  0
    9.6615    1.6615    0.0000 C   0  0  0  0  0  0  0  0  0  0  0  0
    2.8660   -4.1465    0.0000 C   0  0  0  0  0  0  0  0  0  0  0  0
   10.0773   -0.2948    0.0000 C   0  0  0  0  0  0  0  0  0  0  0  0
    3.2008    4.3194    0.0000 C   0  0  0  0  0  0  0  0  0  0  0  0
    4.6020    5.3375    0.0000 C   0  0  0  0  0  0  0  0  0  0  0  0
    2.0000   -4.6465    0.0000 C   0  0  0  0  0  0  0  0  0  0  0  0
    3.7320   -4.6465    0.0000 C   0  0  0  0  0  0  0  0  0  0  0  0
    2.6130    5.1284    0.0000 C   0  0  0  0  0  0  0  0  0  0  0  0
    4.0142    6.1465    0.0000 C   0  0  0  0  0  0  0  0  0  0  0  0
    3.0197    6.0420    0.0000 C   0  0  0  0  0  0  0  0  0  0  0  0
    2.0000   -5.6465    0.0000 C   0  0  0  0  0  0  0  0  0  0  0  0
    3.7320   -5.6465    0.0000 C   0  0  0  0  0  0  0  0  0  0  0  0
    2.8660   -6.1465    0.0000 C   0  0  0  0  0  0  0  0  0  0  0  0
    6.3701    0.3289    0.0000 H   0  0  0  0  0  0  0  0  0  0  0  0
    5.2456    2.4448    0.0000 H   0  0  0  0  0  0  0  0  0  0  0  0
    6.5706    2.0213    0.0000 H   0  0  0  0  0  0  0  0  0  0  0  0
    5.8993    2.5090    0.0000 H   0  0  0  0  0  0  0  0  0  0  0  0
    4.0887    1.1935    0.0000 H   0  0  0  0  0  0  0  0  0  0  0  0
    4.3451    0.4044    0.0000 H   0  0  0  0  0  0  0  0  0  0  0  0
    5.1350   -1.4565    0.0000 H   0  0  0  0  0  0  0  0  0  0  0  0
    4.2690   -0.3365    0.0000 H   0  0  0  0  0  0  0  0  0  0  0  0
    5.1350   -2.4565    0.0000 H   0  0  0  0  0  0  0  0  0  0  0  0
    7.8384    1.9079    0.0000 H   0  0  0  0  0  0  0  0  0  0  0  0
    5.2971    3.2682    0.0000 H   0  0  0  0  0  0  0  0  0  0  0  0
    5.2137    4.0609    0.0000 H   0  0  0  0  0  0  0  0  0  0  0  0
    4.3520    0.3535    0.0000 H   0  0  0  0  0  0  0  0  0  0  0  0
    3.7320    0.9735    0.0000 H   0  0  0  0  0  0  0  0  0  0  0  0
    3.1120    0.3535    0.0000 H   0  0  0  0  0  0  0  0  0  0  0  0
    2.5560   -0.6096    0.0000 H   0  0  0  0  0  0  0  0  0  0  0  0
    2.3291   -1.4565    0.0000 H   0  0  0  0  0  0  0  0  0  0  0  0
    3.1760   -1.6834    0.0000 H   0  0  0  0  0  0  0  0  0  0  0  0
    8.7895    1.5988    0.0000 H   0  0  0  0  0  0  0  0  0  0  0  0
    2.6540   -2.5639    0.0000 H   0  0  0  0  0  0  0  0  0  0  0  0
    2.2554   -3.2542    0.0000 H   0  0  0  0  0  0  0  0  0  0  0  0
    8.5067   -0.0074    0.0000 H   0  0  0  0  0  0  0  0  0  0  0  0
    9.0400   -0.5997    0.0000 H   0  0  0  0  0  0  0  0  0  0  0  0
    9.5326    2.2680    0.0000 H   0  0  0  0  0  0  0  0  0  0  0  0
    9.8858   -0.8844    0.0000 H   0  0  0  0  0  0  0  0  0  0  0  0
   10.6670   -0.4864    0.0000 H   0  0  0  0  0  0  0  0  0  0  0  0
   10.2689    0.2949    0.0000 H   0  0  0  0  0  0  0  0  0  0  0  0
    2.9486    3.7530    0.0000 H   0  0  0  0  0  0  0  0  0  0  0  0
    5.2186    5.4023    0.0000 H   0  0  0  0  0  0  0  0  0  0  0  0
    1.4631   -4.3365    0.0000 H   0  0  0  0  0  0  0  0  0  0  0  0
    4.2690   -4.3365    0.0000 H   0  0  0  0  0  0  0  0  0  0  0  0
    1.9964    5.0636    0.0000 H   0  0  0  0  0  0  0  0  0  0  0  0
    4.2664    6.7129    0.0000 H   0  0  0  0  0  0  0  0  0  0  0  0
    2.6553    6.5436    0.0000 H   0  0  0  0  0  0  0  0  0  0  0  0
    1.4631   -5.9565    0.0000 H   0  0  0  0  0  0  0  0  0  0  0  0
    4.2690   -5.9565    0.0000 H   0  0  0  0  0  0  0  0  0  0  0  0
    2.8660   -6.7665    0.0000 H   0  0  0  0  0  0  0  0  0  0  0  0
  1  5  2  0  0  0  0
  1  6  2  0  0  0  0
  1  9  1  0  0  0  0
  1 23  1  0  0  0  0
 12  2  1  6  0  0  0
  2 19  1  0  0  0  0
  3 15  2  0  0  0  0
  4 17  2  0  0  0  0
  7 26  2  0  0  0  0
  8 11  1  0  0  0  0
  8 14  1  0  0  0  0
  8 15  1  0  0  0  0
 16  9  1  1  0  0  0
  9 47  1  0  0  0  0
 10 17  1  0  0  0  0
 22 10  1  6  0  0  0
 10 48  1  0  0  0  0
 11 13  1  0  0  0  0
 11 17  1  1  0  0  0
 11 39  1  0  0  0  0
 12 13  1  0  0  0  0
 12 14  1  0  0  0  0
 12 40  1  0  0  0  0
 13 41  1  0  0  0  0
 13 42  1  0  0  0  0
 14 43  1  0  0  0  0
 14 44  1  0  0  0  0
 15 16  1  0  0  0  0
 16 18  1  0  0  0  0
 16 45  1  0  0  0  0
 18 20  1  0  0  0  0
 18 21  1  0  0  0  0
 18 46  1  0  0  0  0
 19 24  1  0  0  0  0
 19 49  1  0  0  0  0
 19 50  1  0  0  0  0
 20 51  1  0  0  0  0
 20 52  1  0  0  0  0
 20 53  1  0  0  0  0
 21 54  1  0  0  0  0
 21 55  1  0  0  0  0
 21 56  1  0  0  0  0
 22 25  1  0  0  0  0
 22 26  1  0  0  0  0
 22 57  1  0  0  0  0
 23 27  1  0  0  0  0
 23 58  1  0  0  0  0
 23 59  1  0  0  0  0
 24 29  2  0  0  0  0
 24 30  1  0  0  0  0
 25 28  1  0  0  0  0
 25 60  1  0  0  0  0
 25 61  1  0  0  0  0
 26 62  1  0  0  0  0
 27 31  2  0  0  0  0
 27 32  1  0  0  0  0
 28 63  1  0  0  0  0
 28 64  1  0  0  0  0
 28 65  1  0  0  0  0
 29 33  1  0  0  0  0
 29 66  1  0  0  0  0
 30 34  2  0  0  0  0
 30 67  1  0  0  0  0
 31 36  1  0  0  0  0
 31 68  1  0  0  0  0
 32 37  2  0  0  0  0
 32 69  1  0  0  0  0
 33 35  2  0  0  0  0
 33 70  1  0  0  0  0
 34 35  1  0  0  0  0
 34 71  1  0  0  0  0
 35 72  1  0  0  0  0
 36 38  2  0  0  0  0
 36 73  1  0  0  0  0
 37 38  1  0  0  0  0
 37 74  1  0  0  0  0
 38 75  1  0  0  0  0
M  END
> <PUBCHEM_COMPOUND_CID>
506768
> <PUBCHEM_COMPOUND_CANONICALIZED>
1
> <PUBCHEM_CACTVS_COMPLEXITY>
878
> <PUBCHEM_CACTVS_HBOND_ACCEPTOR>
7
> <PUBCHEM_CACTVS_HBOND_DONOR>
2
> <PUBCHEM_CACTVS_ROTATABLE_BOND>
13
> <PUBCHEM_CACTVS_SUBSKEYS>
AAADcfB7OABAAAAAAAAAAAAAAAAAAWAAAAAwYAAAAAAAAAABQAAAHgQQQAAADTzl2AayAIPABAKIAilSkHBCAAAgAAAIiIGICIgKZjKAsTiXMAAm1gGYqAe6wSAOAAAAAAAAAAAAAAAAAAAAAAAAAAAAAA==
> <PUBCHEM_IUPAC_OPENEYE_NAME>
(2S,4R)-4-benzyloxy-1-[(2S)-2-(benzylsulfonylamino)-3-methyl-butanoyl]-N-[(1S)-1-formylpropyl]pyrrolidine-2-carboxamide
> <PUBCHEM_IUPAC_CAS_NAME>
(2S,4R)-1-[(2S)-3-methyl-1-oxo-2-[(phenylmethyl)sulfonylamino]butyl]-N-[(2S)-1-oxobutan-2-yl]-4-phenylmethoxy-2-pyrrolidinecarboxamide
> <PUBCHEM_IUPAC_NAME_MARKUP>
(2<I>S</I>,4<I>R</I>)-1-[(2<I>S</I>)-2-(benzylsulfonylamino)-3-methylbutanoyl]-<I>N</I>-[(2<I>S</I>)-1-oxobutan-2-yl]-4-phenylmethoxypyrrolidine-2-carboxamide
> <PUBCHEM_IUPAC_NAME>
(2S,4R)-1-[(2S)-2-(benzylsulfonylamino)-3-methylbutanoyl]-N-[(2S)-1-oxobutan-2-yl]-4-phenylmethoxypyrrolidine-2-carboxamide
> <PUBCHEM_IUPAC_SYSTEMATIC_NAME>
(2S,4R)-1-[(2S)-3-methyl-2-[(phenylmethyl)sulfonylamino]butanoyl]-N-[(2S)-1-oxidanylidenebutan-2-yl]-4-phenylmethoxy-pyrrolidine-2-carboxamide
> <PUBCHEM_IUPAC_TRADITIONAL_NAME>
(2S,4R)-4-benzoxy-1-[(2S)-2-(benzylsulfonylamino)-3-methyl-butanoyl]-N-[(1S)-1-formylpropyl]pyrrolidine-2-carboxamide
> <PUBCHEM_IUPAC_INCHI>
InChI=1S/C28H37N3O6S/c1-4-23(17-32)29-27(33)25-15-24(37-18-21-11-7-5-8-12-21)16-31(25)28(34)26(20(2)3)30-38(35,36)19-22-13-9-6-10-14-22/h5-14,17,20,23-26,30H,4,15-16,18-19H2,1-3H3,(H,29,33)/t23-,24+,25-,26-/m0/s1
> <PUBCHEM_IUPAC_INCHIKEY>
DVXAAKMRAMXLAH-QYOOZWMWSA-N
> <PUBCHEM_XLOGP3_AA>
3.1
> <PUBCHEM_EXACT_MASS>
543.24030708
> <PUBCHEM_MOLECULAR_FORMULA>
C28H37N3O6S
> <PUBCHEM_MOLECULAR_WEIGHT>
543.7
> <PUBCHEM_OPENEYE_CAN_SMILES>
CCC(C=O)NC(=O)C1CC(CN1C(=O)C(C(C)C)NS(=O)(=O)CC2=CC=CC=C2)OCC3=CC=CC=C3
> <PUBCHEM_OPENEYE_ISO_SMILES>
CC[C@@H](C=O)NC(=O)[C@@H]1C[C@H](CN1C(=O)[C@H](C(C)C)NS(=O)(=O)CC2=CC=CC=C2)OCC3=CC=CC=C3
> <PUBCHEM_CACTVS_TPSA>
130
> <PUBCHEM_MONOISOTOPIC_WEIGHT>
543.24030708
> <PUBCHEM_TOTAL_CHARGE>
0
> <PUBCHEM_HEAVY_ATOM_COUNT>
38
> <PUBCHEM_ATOM_DEF_STEREO_COUNT>
4
> <PUBCHEM_ATOM_UDEF_STEREO_COUNT>
0
> <PUBCHEM_BOND_DEF_STEREO_COUNT>
0
> <PUBCHEM_BOND_UDEF_STEREO_COUNT>
0
> <PUBCHEM_ISOTOPIC_ATOM_COUNT>
0
> <PUBCHEM_COMPONENT_COUNT>
1
> <PUBCHEM_CACTVS_TAUTO_COUNT>
-1
> <PUBCHEM_COORDINATE_TYPE>
1
5
255
> <PUBCHEM_BONDANNOTATIONS>
22  10  6
11  17  5
12  2  6
24  29  8
24  30  8
27  31  8
27  32  8
29  33  8
30  34  8
31  36  8
32  37  8
33  35  8
34  35  8
36  38  8
37  38  8
16  9  5
$$$$
