506785
  -OEChem-10302200282D
 79 81  0     1  0  0  0  0  0999 V2000
    8.9073    1.0028    0.0000 O   0  0  0  0  0  0  0  0  0  0  0  0
    4.5981    0.7709    0.0000 O   0  0  0  0  0  0  0  0  0  0  0  0
    4.7404    2.1255    0.0000 O   0  0  0  0  0  0  0  0  0  0  0  0
    5.4641   -2.7291    0.0000 O   0  0  0  0  0  0  0  0  0  0  0  0
    4.6210    5.7291    0.0000 O   0  0  0  0  0  0  0  0  0  0  0  0
    6.3301    0.7709    0.0000 N   0  0  0  0  0  0  0  0  0  0  0  0
    4.5981   -1.2291    0.0000 N   0  0  0  0  0  0  0  0  0  0  0  0
    5.8994    3.4127    0.0000 N   0  0  0  0  0  0  0  0  0  0  0  0
    2.0000   -1.7291    0.0000 N   0  0  0  0  0  0  0  0  0  0  0  0
    6.4347    1.7654    0.0000 C   0  0  1  0  0  0  0  0  0  0  0  0
    7.9128    1.1073    0.0000 C   0  0  2  0  0  0  0  0  0  0  0  0
    7.4128    1.9733    0.0000 C   0  0  0  0  0  0  0  0  0  0  0  0
    7.2437    0.3642    0.0000 C   0  0  0  0  0  0  0  0  0  0  0  0
    5.4641    0.2709    0.0000 C   0  0  0  0  0  0  0  0  0  0  0  0
    5.4641   -0.7291    0.0000 C   0  0  2  0  0  0  0  0  0  0  0  0
    5.6915    2.4346    0.0000 C   0  0  0  0  0  0  0  0  0  0  0  0
    6.3301   -1.2291    0.0000 C   0  0  0  0  0  0  0  0  0  0  0  0
    9.4951    1.8118    0.0000 C   0  0  0  0  0  0  0  0  0  0  0  0
    6.3301   -2.2291    0.0000 C   0  0  0  0  0  0  0  0  0  0  0  0
    7.1962   -0.7291    0.0000 C   0  0  0  0  0  0  0  0  0  0  0  0
    5.1563    4.0818    0.0000 C   0  0  1  0  0  0  0  0  0  0  0  0
    3.7320   -3.7291    0.0000 C   0  0  0  0  0  0  0  0  0  0  0  0
    2.8660   -4.2291    0.0000 C   0  0  0  0  0  0  0  0  0  0  0  0
    4.5981   -4.2291    0.0000 C   0  0  0  0  0  0  0  0  0  0  0  0
    2.8660   -5.2291    0.0000 C   0  0  0  0  0  0  0  0  0  0  0  0
    4.5981   -5.2291    0.0000 C   0  0  0  0  0  0  0  0  0  0  0  0
    3.7320   -5.7291    0.0000 C   0  0  0  0  0  0  0  0  0  0  0  0
    4.5981   -2.2291    0.0000 C   0  0  0  0  0  0  0  0  0  0  0  0
    3.7320   -2.7291    0.0000 C   0  0  0  0  0  0  0  0  0  0  0  0
   10.4896    1.7073    0.0000 C   0  0  0  0  0  0  0  0  0  0  0  0
    4.2052    3.7728    0.0000 C   0  0  0  0  0  0  0  0  0  0  0  0
    5.3642    5.0600    0.0000 C   0  0  0  0  0  0  0  0  0  0  0  0
    3.4621    4.4419    0.0000 C   0  0  0  0  0  0  0  0  0  0  0  0
   10.8964    0.7937    0.0000 C   0  0  0  0  0  0  0  0  0  0  0  0
   11.0774    2.5163    0.0000 C   0  0  0  0  0  0  0  0  0  0  0  0
    2.8660   -2.2291    0.0000 C   0  0  0  0  0  0  0  0  0  0  0  0
   11.8909    0.6892    0.0000 C   0  0  0  0  0  0  0  0  0  0  0  0
   12.0719    2.4118    0.0000 C   0  0  0  0  0  0  0  0  0  0  0  0
   12.4787    1.4982    0.0000 C   0  0  0  0  0  0  0  0  0  0  0  0
    5.8558    1.5432    0.0000 H   0  0  0  0  0  0  0  0  0  0  0  0
    8.1350    0.5285    0.0000 H   0  0  0  0  0  0  0  0  0  0  0  0
    7.9792    2.2255    0.0000 H   0  0  0  0  0  0  0  0  0  0  0  0
    7.2212    2.5630    0.0000 H   0  0  0  0  0  0  0  0  0  0  0  0
    6.9337   -0.1728    0.0000 H   0  0  0  0  0  0  0  0  0  0  0  0
    7.7453   -0.0003    0.0000 H   0  0  0  0  0  0  0  0  0  0  0  0
    5.4641   -1.3491    0.0000 H   0  0  0  0  0  0  0  0  0  0  0  0
    6.8671   -1.5391    0.0000 H   0  0  0  0  0  0  0  0  0  0  0  0
    4.0611   -0.9191    0.0000 H   0  0  0  0  0  0  0  0  0  0  0  0
    6.4891    3.6043    0.0000 H   0  0  0  0  0  0  0  0  0  0  0  0
    9.6660    2.4078    0.0000 H   0  0  0  0  0  0  0  0  0  0  0  0
    8.9379    2.0836    0.0000 H   0  0  0  0  0  0  0  0  0  0  0  0
    5.7101   -2.2291    0.0000 H   0  0  0  0  0  0  0  0  0  0  0  0
    6.3301   -2.8491    0.0000 H   0  0  0  0  0  0  0  0  0  0  0  0
    6.9501   -2.2291    0.0000 H   0  0  0  0  0  0  0  0  0  0  0  0
    7.5062   -1.2660    0.0000 H   0  0  0  0  0  0  0  0  0  0  0  0
    7.7331   -0.4191    0.0000 H   0  0  0  0  0  0  0  0  0  0  0  0
    6.8862   -0.1922    0.0000 H   0  0  0  0  0  0  0  0  0  0  0  0
    5.7459    4.2734    0.0000 H   0  0  0  0  0  0  0  0  0  0  0  0
    2.6540   -3.6465    0.0000 H   0  0  0  0  0  0  0  0  0  0  0  0
    2.2554   -4.3368    0.0000 H   0  0  0  0  0  0  0  0  0  0  0  0
    5.2087   -4.3368    0.0000 H   0  0  0  0  0  0  0  0  0  0  0  0
    4.8101   -3.6465    0.0000 H   0  0  0  0  0  0  0  0  0  0  0  0
    2.2554   -5.1214    0.0000 H   0  0  0  0  0  0  0  0  0  0  0  0
    2.6540   -5.8117    0.0000 H   0  0  0  0  0  0  0  0  0  0  0  0
    4.8101   -5.8117    0.0000 H   0  0  0  0  0  0  0  0  0  0  0  0
    5.2087   -5.1214    0.0000 H   0  0  0  0  0  0  0  0  0  0  0  0
    3.3335   -6.2040    0.0000 H   0  0  0  0  0  0  0  0  0  0  0  0
    4.1306   -6.2040    0.0000 H   0  0  0  0  0  0  0  0  0  0  0  0
    3.7166    3.3911    0.0000 H   0  0  0  0  0  0  0  0  0  0  0  0
    4.4963    3.2254    0.0000 H   0  0  0  0  0  0  0  0  0  0  0  0
    5.9538    5.2516    0.0000 H   0  0  0  0  0  0  0  0  0  0  0  0
    3.8769    4.9027    0.0000 H   0  0  0  0  0  0  0  0  0  0  0  0
    3.0013    4.8568    0.0000 H   0  0  0  0  0  0  0  0  0  0  0  0
    3.0472    3.9812    0.0000 H   0  0  0  0  0  0  0  0  0  0  0  0
   10.5319    0.2921    0.0000 H   0  0  0  0  0  0  0  0  0  0  0  0
   10.8252    3.0827    0.0000 H   0  0  0  0  0  0  0  0  0  0  0  0
   12.1431    0.1228    0.0000 H   0  0  0  0  0  0  0  0  0  0  0  0
   12.4364    2.9133    0.0000 H   0  0  0  0  0  0  0  0  0  0  0  0
   13.0953    1.4334    0.0000 H   0  0  0  0  0  0  0  0  0  0  0  0
 11  1  1  1  0  0  0
  1 18  1  0  0  0  0
  2 14  2  0  0  0  0
  3 16  2  0  0  0  0
  4 28  2  0  0  0  0
  5 32  2  0  0  0  0
  6 10  1  0  0  0  0
  6 13  1  0  0  0  0
  6 14  1  0  0  0  0
 15  7  1  6  0  0  0
  7 28  1  0  0  0  0
  7 48  1  0  0  0  0
  8 16  1  0  0  0  0
 21  8  1  1  0  0  0
  8 49  1  0  0  0  0
  9 36  3  0  0  0  0
 10 12  1  0  0  0  0
 10 16  1  6  0  0  0
 10 40  1  0  0  0  0
 11 12  1  0  0  0  0
 11 13  1  0  0  0  0
 11 41  1  0  0  0  0
 12 42  1  0  0  0  0
 12 43  1  0  0  0  0
 13 44  1  0  0  0  0
 13 45  1  0  0  0  0
 14 15  1  0  0  0  0
 15 17  1  0  0  0  0
 15 46  1  0  0  0  0
 17 19  1  0  0  0  0
 17 20  1  0  0  0  0
 17 47  1  0  0  0  0
 18 30  1  0  0  0  0
 18 50  1  0  0  0  0
 18 51  1  0  0  0  0
 19 52  1  0  0  0  0
 19 53  1  0  0  0  0
 19 54  1  0  0  0  0
 20 55  1  0  0  0  0
 20 56  1  0  0  0  0
 20 57  1  0  0  0  0
 21 31  1  0  0  0  0
 21 32  1  0  0  0  0
 21 58  1  0  0  0  0
 22 23  1  0  0  0  0
 22 24  1  0  0  0  0
 22 29  2  0  0  0  0
 23 25  1  0  0  0  0
 23 59  1  0  0  0  0
 23 60  1  0  0  0  0
 24 26  1  0  0  0  0
 24 61  1  0  0  0  0
 24 62  1  0  0  0  0
 25 27  1  0  0  0  0
 25 63  1  0  0  0  0
 25 64  1  0  0  0  0
 26 27  1  0  0  0  0
 26 65  1  0  0  0  0
 26 66  1  0  0  0  0
 27 67  1  0  0  0  0
 27 68  1  0  0  0  0
 28 29  1  0  0  0  0
 29 36  1  0  0  0  0
 30 34  2  0  0  0  0
 30 35  1  0  0  0  0
 31 33  1  0  0  0  0
 31 69  1  0  0  0  0
 31 70  1  0  0  0  0
 32 71  1  0  0  0  0
 33 72  1  0  0  0  0
 33 73  1  0  0  0  0
 33 74  1  0  0  0  0
 34 37  1  0  0  0  0
 34 75  1  0  0  0  0
 35 38  2  0  0  0  0
 35 76  1  0  0  0  0
 37 39  2  0  0  0  0
 37 77  1  0  0  0  0
 38 39  1  0  0  0  0
 38 78  1  0  0  0  0
 39 79  1  0  0  0  0
M  END
> <PUBCHEM_COMPOUND_CID>
506785
> <PUBCHEM_COMPOUND_CANONICALIZED>
1
> <PUBCHEM_CACTVS_COMPLEXITY>
954
> <PUBCHEM_CACTVS_HBOND_ACCEPTOR>
6
> <PUBCHEM_CACTVS_HBOND_DONOR>
2
> <PUBCHEM_CACTVS_ROTATABLE_BOND>
11
> <PUBCHEM_CACTVS_SUBSKEYS>
AAADcfB7uAAAAAAAAAAAAAAAAAAAAWAAAAAwYAAAAAAAAAABAAAAHgAQAAAADTzhmAYyAIPABACYBilSkACiAAAgAAAIiIGICMgK5jKAsTiXMAAm1gGYqQe6wSAOAAAAAAAAAAAAAAAAAAAAAAAAAAAAAA==
> <PUBCHEM_IUPAC_OPENEYE_NAME>
(2S,4R)-4-benzyloxy-1-[(2S)-2-[(2-cyano-2-cyclohexylidene-acetyl)amino]-3-methyl-butanoyl]-N-[(1S)-1-formylpropyl]pyrrolidine-2-carboxamide
> <PUBCHEM_IUPAC_CAS_NAME>
(2S,4R)-1-[(2S)-2-[(2-cyano-2-cyclohexylidene-1-oxoethyl)amino]-3-methyl-1-oxobutyl]-N-[(2S)-1-oxobutan-2-yl]-4-phenylmethoxy-2-pyrrolidinecarboxamide
> <PUBCHEM_IUPAC_NAME_MARKUP>
(2<I>S</I>,4<I>R</I>)-1-[(2<I>S</I>)-2-[(2-cyano-2-cyclohexylideneacetyl)amino]-3-methylbutanoyl]-<I>N</I>-[(2<I>S</I>)-1-oxobutan-2-yl]-4-phenylmethoxypyrrolidine-2-carboxamide
> <PUBCHEM_IUPAC_NAME>
(2S,4R)-1-[(2S)-2-[(2-cyano-2-cyclohexylideneacetyl)amino]-3-methylbutanoyl]-N-[(2S)-1-oxobutan-2-yl]-4-phenylmethoxypyrrolidine-2-carboxamide
> <PUBCHEM_IUPAC_SYSTEMATIC_NAME>
(2S,4R)-1-[(2S)-2-[(2-cyano-2-cyclohexylidene-ethanoyl)amino]-3-methyl-butanoyl]-N-[(2S)-1-oxidanylidenebutan-2-yl]-4-phenylmethoxy-pyrrolidine-2-carboxamide
> <PUBCHEM_IUPAC_TRADITIONAL_NAME>
(2S,4R)-4-benzoxy-1-[(2S)-2-[(2-cyano-2-cyclohexylidene-acetyl)amino]-3-methyl-butanoyl]-N-[(1S)-1-formylpropyl]pyrrolidine-2-carboxamide
> <PUBCHEM_IUPAC_INCHI>
InChI=1S/C30H40N4O5/c1-4-23(18-35)32-29(37)26-15-24(39-19-21-11-7-5-8-12-21)17-34(26)30(38)27(20(2)3)33-28(36)25(16-31)22-13-9-6-10-14-22/h5,7-8,11-12,18,20,23-24,26-27H,4,6,9-10,13-15,17,19H2,1-3H3,(H,32,37)(H,33,36)/t23-,24+,26-,27-/m0/s1
> <PUBCHEM_IUPAC_INCHIKEY>
MLZHNEBRMBGGIP-FLABLRJTSA-N
> <PUBCHEM_XLOGP3_AA>
3.7
> <PUBCHEM_EXACT_MASS>
536.29987039
> <PUBCHEM_MOLECULAR_FORMULA>
C30H40N4O5
> <PUBCHEM_MOLECULAR_WEIGHT>
536.7
> <PUBCHEM_OPENEYE_CAN_SMILES>
CCC(C=O)NC(=O)C1CC(CN1C(=O)C(C(C)C)NC(=O)C(=C2CCCCC2)C#N)OCC3=CC=CC=C3
> <PUBCHEM_OPENEYE_ISO_SMILES>
CC[C@@H](C=O)NC(=O)[C@@H]1C[C@H](CN1C(=O)[C@H](C(C)C)NC(=O)C(=C2CCCCC2)C#N)OCC3=CC=CC=C3
> <PUBCHEM_CACTVS_TPSA>
129
> <PUBCHEM_MONOISOTOPIC_WEIGHT>
536.29987039
> <PUBCHEM_TOTAL_CHARGE>
0
> <PUBCHEM_HEAVY_ATOM_COUNT>
39
> <PUBCHEM_ATOM_DEF_STEREO_COUNT>
4
> <PUBCHEM_ATOM_UDEF_STEREO_COUNT>
0
> <PUBCHEM_BOND_DEF_STEREO_COUNT>
0
> <PUBCHEM_BOND_UDEF_STEREO_COUNT>
0
> <PUBCHEM_ISOTOPIC_ATOM_COUNT>
0
> <PUBCHEM_COMPONENT_COUNT>
1
> <PUBCHEM_CACTVS_TAUTO_COUNT>
-1
> <PUBCHEM_COORDINATE_TYPE>
1
5
255
> <PUBCHEM_BONDANNOTATIONS>
11  1  5
10  16  6
30  34  8
30  35  8
34  37  8
35  38  8
37  39  8
38  39  8
15  7  6
21  8  5
$$$$
