506762
  -OEChem-10302200282D
 92 95  0     1  0  0  0  0  0999 V2000
    4.8025    2.1354    0.0000 O   0  0  0  0  0  0  0  0  0  0  0  0
    7.1580   -1.4806    0.0000 O   0  0  0  0  0  0  0  0  0  0  0  0
    5.9136   -2.0346    0.0000 O   0  0  0  0  0  0  0  0  0  0  0  0
    9.7560    1.0194    0.0000 O   0  0  0  0  0  0  0  0  0  0  0  0
    2.8525   -3.9398    0.0000 O   0  0  0  0  0  0  0  0  0  0  0  0
   12.3541   -1.4806    0.0000 O   0  0  0  0  0  0  0  0  0  0  0  0
    6.2919    0.0194    0.0000 N   0  0  0  0  0  0  0  0  0  0  0  0
    8.8900   -0.4806    0.0000 N   0  0  0  0  0  0  0  0  0  0  0  0
    4.2194   -1.6745    0.0000 N   0  0  0  0  0  0  0  0  0  0  0  0
   11.4881    0.0194    0.0000 N   0  0  0  0  0  0  0  0  0  0  0  0
   14.0862   -0.4806    0.0000 N   0  0  0  0  0  0  0  0  0  0  0  0
   14.0862    1.5194    0.0000 N   0  0  0  0  0  0  0  0  0  0  0  0
    5.3784   -0.3873    0.0000 C   0  0  1  0  0  0  0  0  0  0  0  0
    5.2092    1.2219    0.0000 C   0  0  2  0  0  0  0  0  0  0  0  0
    4.7092    0.3558    0.0000 C   0  0  0  0  0  0  0  0  0  0  0  0
    6.1874    1.0139    0.0000 C   0  0  0  0  0  0  0  0  0  0  0  0
    7.1580   -0.4806    0.0000 C   0  0  0  0  0  0  0  0  0  0  0  0
    8.0240    0.0194    0.0000 C   0  0  2  0  0  0  0  0  0  0  0  0
    5.1705   -1.3655    0.0000 C   0  0  0  0  0  0  0  0  0  0  0  0
    8.0240    1.0194    0.0000 C   0  0  0  0  0  0  0  0  0  0  0  0
    3.8080    2.2399    0.0000 C   0  0  0  0  0  0  0  0  0  0  0  0
    8.8900    1.5194    0.0000 C   0  0  0  0  0  0  0  0  0  0  0  0
    7.1580    1.5194    0.0000 C   0  0  0  0  0  0  0  0  0  0  0  0
    4.0115   -2.6526    0.0000 C   0  0  1  0  0  0  0  0  0  0  0  0
    9.7560    0.0194    0.0000 C   0  0  0  0  0  0  0  0  0  0  0  0
   10.6221   -0.4806    0.0000 C   0  0  2  0  0  0  0  0  0  0  0  0
    3.4013    3.1535    0.0000 C   0  0  0  0  0  0  0  0  0  0  0  0
    4.7546   -3.3218    0.0000 C   0  0  0  0  0  0  0  0  0  0  0  0
   10.6221   -1.4806    0.0000 C   0  0  0  0  0  0  0  0  0  0  0  0
    3.0604   -2.9616    0.0000 C   0  0  0  0  0  0  0  0  0  0  0  0
    9.7560   -1.9806    0.0000 C   0  0  0  0  0  0  0  0  0  0  0  0
    4.5467   -4.2999    0.0000 C   0  0  0  0  0  0  0  0  0  0  0  0
    2.4067    3.2580    0.0000 C   0  0  0  0  0  0  0  0  0  0  0  0
    3.9890    3.9625    0.0000 C   0  0  0  0  0  0  0  0  0  0  0  0
    9.7560   -2.9806    0.0000 C   0  0  0  0  0  0  0  0  0  0  0  0
    2.0000    4.1716    0.0000 C   0  0  0  0  0  0  0  0  0  0  0  0
    3.5823    4.8760    0.0000 C   0  0  0  0  0  0  0  0  0  0  0  0
   12.3541   -0.4806    0.0000 C   0  0  0  0  0  0  0  0  0  0  0  0
    2.5878    4.9806    0.0000 C   0  0  0  0  0  0  0  0  0  0  0  0
   10.6221   -3.4806    0.0000 C   0  0  0  0  0  0  0  0  0  0  0  0
    8.8900   -3.4806    0.0000 C   0  0  0  0  0  0  0  0  0  0  0  0
   13.2201    0.0194    0.0000 C   0  0  0  0  0  0  0  0  0  0  0  0
   10.6221   -4.4806    0.0000 C   0  0  0  0  0  0  0  0  0  0  0  0
    8.8900   -4.4806    0.0000 C   0  0  0  0  0  0  0  0  0  0  0  0
    9.7560   -4.9806    0.0000 C   0  0  0  0  0  0  0  0  0  0  0  0
   13.2201    1.0194    0.0000 C   0  0  0  0  0  0  0  0  0  0  0  0
   14.9522    0.0194    0.0000 C   0  0  0  0  0  0  0  0  0  0  0  0
   14.9522    1.0194    0.0000 C   0  0  0  0  0  0  0  0  0  0  0  0
    5.8602   -0.7775    0.0000 H   0  0  0  0  0  0  0  0  0  0  0  0
    5.5994    1.7037    0.0000 H   0  0  0  0  0  0  0  0  0  0  0  0
    4.2077    0.7203    0.0000 H   0  0  0  0  0  0  0  0  0  0  0  0
    4.2944   -0.1049    0.0000 H   0  0  0  0  0  0  0  0  0  0  0  0
    6.8074    1.0139    0.0000 H   0  0  0  0  0  0  0  0  0  0  0  0
    6.2522    1.6306    0.0000 H   0  0  0  0  0  0  0  0  0  0  0  0
    8.0240   -0.6006    0.0000 H   0  0  0  0  0  0  0  0  0  0  0  0
    7.4870    0.7094    0.0000 H   0  0  0  0  0  0  0  0  0  0  0  0
    8.8900   -1.1006    0.0000 H   0  0  0  0  0  0  0  0  0  0  0  0
    3.7587   -1.2596    0.0000 H   0  0  0  0  0  0  0  0  0  0  0  0
    3.2064    2.0899    0.0000 H   0  0  0  0  0  0  0  0  0  0  0  0
    3.8512    1.6214    0.0000 H   0  0  0  0  0  0  0  0  0  0  0  0
    9.2000    0.9825    0.0000 H   0  0  0  0  0  0  0  0  0  0  0  0
    9.4269    1.8294    0.0000 H   0  0  0  0  0  0  0  0  0  0  0  0
    8.5800    2.0564    0.0000 H   0  0  0  0  0  0  0  0  0  0  0  0
    7.4680    2.0564    0.0000 H   0  0  0  0  0  0  0  0  0  0  0  0
    6.6210    1.8294    0.0000 H   0  0  0  0  0  0  0  0  0  0  0  0
    6.8480    0.9825    0.0000 H   0  0  0  0  0  0  0  0  0  0  0  0
    4.6012   -2.4610    0.0000 H   0  0  0  0  0  0  0  0  0  0  0  0
   11.1590   -0.7906    0.0000 H   0  0  0  0  0  0  0  0  0  0  0  0
    5.3295   -3.5540    0.0000 H   0  0  0  0  0  0  0  0  0  0  0  0
    5.0832   -2.7960    0.0000 H   0  0  0  0  0  0  0  0  0  0  0  0
   10.8341   -2.0632    0.0000 H   0  0  0  0  0  0  0  0  0  0  0  0
   11.2326   -1.3729    0.0000 H   0  0  0  0  0  0  0  0  0  0  0  0
    2.5997   -2.5468    0.0000 H   0  0  0  0  0  0  0  0  0  0  0  0
    9.5440   -1.3980    0.0000 H   0  0  0  0  0  0  0  0  0  0  0  0
    9.1454   -2.0882    0.0000 H   0  0  0  0  0  0  0  0  0  0  0  0
   11.4881    0.6394    0.0000 H   0  0  0  0  0  0  0  0  0  0  0  0
    3.9403   -4.1710    0.0000 H   0  0  0  0  0  0  0  0  0  0  0  0
    4.4178   -4.9064    0.0000 H   0  0  0  0  0  0  0  0  0  0  0  0
    5.1532   -4.4288    0.0000 H   0  0  0  0  0  0  0  0  0  0  0  0
    2.0423    2.7564    0.0000 H   0  0  0  0  0  0  0  0  0  0  0  0
    4.6056    3.8977    0.0000 H   0  0  0  0  0  0  0  0  0  0  0  0
    1.3834    4.2364    0.0000 H   0  0  0  0  0  0  0  0  0  0  0  0
    3.9467    5.3776    0.0000 H   0  0  0  0  0  0  0  0  0  0  0  0
    2.3356    5.5470    0.0000 H   0  0  0  0  0  0  0  0  0  0  0  0
   11.1590   -3.1706    0.0000 H   0  0  0  0  0  0  0  0  0  0  0  0
    8.3531   -3.1706    0.0000 H   0  0  0  0  0  0  0  0  0  0  0  0
   11.1590   -4.7906    0.0000 H   0  0  0  0  0  0  0  0  0  0  0  0
    8.3531   -4.7906    0.0000 H   0  0  0  0  0  0  0  0  0  0  0  0
    9.7560   -5.6006    0.0000 H   0  0  0  0  0  0  0  0  0  0  0  0
   12.6832    1.3294    0.0000 H   0  0  0  0  0  0  0  0  0  0  0  0
   15.4891   -0.2906    0.0000 H   0  0  0  0  0  0  0  0  0  0  0  0
   15.4891    1.3294    0.0000 H   0  0  0  0  0  0  0  0  0  0  0  0
 14  1  1  1  0  0  0
  1 21  1  0  0  0  0
  2 17  2  0  0  0  0
  3 19  2  0  0  0  0
  4 25  2  0  0  0  0
  5 30  2  0  0  0  0
  6 38  2  0  0  0  0
  7 13  1  0  0  0  0
  7 16  1  0  0  0  0
  7 17  1  0  0  0  0
 18  8  1  6  0  0  0
  8 25  1  0  0  0  0
  8 57  1  0  0  0  0
  9 19  1  0  0  0  0
 24  9  1  1  0  0  0
  9 58  1  0  0  0  0
 26 10  1  1  0  0  0
 10 38  1  0  0  0  0
 10 76  1  0  0  0  0
 11 42  2  0  0  0  0
 11 47  1  0  0  0  0
 12 46  2  0  0  0  0
 12 48  1  0  0  0  0
 13 15  1  0  0  0  0
 13 19  1  6  0  0  0
 13 49  1  0  0  0  0
 14 15  1  0  0  0  0
 14 16  1  0  0  0  0
 14 50  1  0  0  0  0
 15 51  1  0  0  0  0
 15 52  1  0  0  0  0
 16 53  1  0  0  0  0
 16 54  1  0  0  0  0
 17 18  1  0  0  0  0
 18 20  1  0  0  0  0
 18 55  1  0  0  0  0
 20 22  1  0  0  0  0
 20 23  1  0  0  0  0
 20 56  1  0  0  0  0
 21 27  1  0  0  0  0
 21 59  1  0  0  0  0
 21 60  1  0  0  0  0
 22 61  1  0  0  0  0
 22 62  1  0  0  0  0
 22 63  1  0  0  0  0
 23 64  1  0  0  0  0
 23 65  1  0  0  0  0
 23 66  1  0  0  0  0
 24 28  1  0  0  0  0
 24 30  1  0  0  0  0
 24 67  1  0  0  0  0
 25 26  1  0  0  0  0
 26 29  1  0  0  0  0
 26 68  1  0  0  0  0
 27 33  2  0  0  0  0
 27 34  1  0  0  0  0
 28 32  1  0  0  0  0
 28 69  1  0  0  0  0
 28 70  1  0  0  0  0
 29 31  1  0  0  0  0
 29 71  1  0  0  0  0
 29 72  1  0  0  0  0
 30 73  1  0  0  0  0
 31 35  1  0  0  0  0
 31 74  1  0  0  0  0
 31 75  1  0  0  0  0
 32 77  1  0  0  0  0
 32 78  1  0  0  0  0
 32 79  1  0  0  0  0
 33 36  1  0  0  0  0
 33 80  1  0  0  0  0
 34 37  2  0  0  0  0
 34 81  1  0  0  0  0
 35 40  2  0  0  0  0
 35 41  1  0  0  0  0
 36 39  2  0  0  0  0
 36 82  1  0  0  0  0
 37 39  1  0  0  0  0
 37 83  1  0  0  0  0
 38 42  1  0  0  0  0
 39 84  1  0  0  0  0
 40 43  1  0  0  0  0
 40 85  1  0  0  0  0
 41 44  2  0  0  0  0
 41 86  1  0  0  0  0
 42 46  1  0  0  0  0
 43 45  2  0  0  0  0
 43 87  1  0  0  0  0
 44 45  1  0  0  0  0
 44 88  1  0  0  0  0
 45 89  1  0  0  0  0
 46 90  1  0  0  0  0
 47 48  2  0  0  0  0
 47 91  1  0  0  0  0
 48 92  1  0  0  0  0
M  END
> <PUBCHEM_COMPOUND_CID>
506762
> <PUBCHEM_COMPOUND_CANONICALIZED>
1
> <PUBCHEM_CACTVS_COMPLEXITY>
1060
> <PUBCHEM_CACTVS_HBOND_ACCEPTOR>
8
> <PUBCHEM_CACTVS_HBOND_DONOR>
3
> <PUBCHEM_CACTVS_ROTATABLE_BOND>
16
> <PUBCHEM_CACTVS_SUBSKEYS>
AAADcfB/uAAAAAAAAAAAAAAAAAAAAWAAAAA8YIAAAAAAAAAB0AAAHgAQAAAADTzhngY+gJPIFACoAz131ACCgCQ3EiAI2IG4fMgKZnrA8TiXMIgm1gHYqMe6yaCOAAAAAAAAAAAAAAAAAAAAAAAAAAAAAA==
> <PUBCHEM_IUPAC_OPENEYE_NAME>
N-[(1S)-1-[[(1S)-1-[(2S,4R)-4-benzyloxy-2-[[(1S)-1-formylpropyl]carbamoyl]pyrrolidine-1-carbonyl]-2-methyl-propyl]carbamoyl]-3-phenyl-propyl]pyrazine-2-carboxamide
> <PUBCHEM_IUPAC_CAS_NAME>
N-[(2S)-1-[[(2S)-3-methyl-1-oxo-1-[(2S,4R)-2-[oxo-[[(2S)-1-oxobutan-2-yl]amino]methyl]-4-phenylmethoxy-1-pyrrolidinyl]butan-2-yl]amino]-1-oxo-4-phenylbutan-2-yl]-2-pyrazinecarboxamide
> <PUBCHEM_IUPAC_NAME_MARKUP>
<I>N</I>-[(2<I>S</I>)-1-[[(2<I>S</I>)-3-methyl-1-oxo-1-[(2<I>S</I>,4<I>R</I>)-2-[[(2<I>S</I>)-1-oxobutan-2-yl]carbamoyl]-4-phenylmethoxypyrrolidin-1-yl]butan-2-yl]amino]-1-oxo-4-phenylbutan-2-yl]pyrazine-2-carboxamide
> <PUBCHEM_IUPAC_NAME>
N-[(2S)-1-[[(2S)-3-methyl-1-oxo-1-[(2S,4R)-2-[[(2S)-1-oxobutan-2-yl]carbamoyl]-4-phenylmethoxypyrrolidin-1-yl]butan-2-yl]amino]-1-oxo-4-phenylbutan-2-yl]pyrazine-2-carboxamide
> <PUBCHEM_IUPAC_SYSTEMATIC_NAME>
N-[(2S)-1-[[(2S)-3-methyl-1-oxidanylidene-1-[(2S,4R)-2-[[(2S)-1-oxidanylidenebutan-2-yl]carbamoyl]-4-phenylmethoxy-pyrrolidin-1-yl]butan-2-yl]amino]-1-oxidanylidene-4-phenyl-butan-2-yl]pyrazine-2-carboxamide
> <PUBCHEM_IUPAC_TRADITIONAL_NAME>
N-[(1S)-1-[[(1S)-1-[(2S,4R)-4-benzoxy-2-[[(1S)-1-formylpropyl]carbamoyl]pyrrolidine-1-carbonyl]-2-methyl-propyl]carbamoyl]-3-phenyl-propyl]pyrazinamide
> <PUBCHEM_IUPAC_INCHI>
InChI=1S/C36H44N6O6/c1-4-27(22-43)39-35(46)31-19-28(48-23-26-13-9-6-10-14-26)21-42(31)36(47)32(24(2)3)41-33(44)29(16-15-25-11-7-5-8-12-25)40-34(45)30-20-37-17-18-38-30/h5-14,17-18,20,22,24,27-29,31-32H,4,15-16,19,21,23H2,1-3H3,(H,39,46)(H,40,45)(H,41,44)/t27-,28+,29-,31-,32-/m0/s1
> <PUBCHEM_IUPAC_INCHIKEY>
QVLRPETTXJBLDL-PTPGRJQPSA-N
> <PUBCHEM_XLOGP3_AA>
3.4
> <PUBCHEM_EXACT_MASS>
656.33223314
> <PUBCHEM_MOLECULAR_FORMULA>
C36H44N6O6
> <PUBCHEM_MOLECULAR_WEIGHT>
656.8
> <PUBCHEM_OPENEYE_CAN_SMILES>
CCC(C=O)NC(=O)C1CC(CN1C(=O)C(C(C)C)NC(=O)C(CCC2=CC=CC=C2)NC(=O)C3=NC=CN=C3)OCC4=CC=CC=C4
> <PUBCHEM_OPENEYE_ISO_SMILES>
CC[C@@H](C=O)NC(=O)[C@@H]1C[C@H](CN1C(=O)[C@H](C(C)C)NC(=O)[C@H](CCC2=CC=CC=C2)NC(=O)C3=NC=CN=C3)OCC4=CC=CC=C4
> <PUBCHEM_CACTVS_TPSA>
160
> <PUBCHEM_MONOISOTOPIC_WEIGHT>
656.33223314
> <PUBCHEM_TOTAL_CHARGE>
0
> <PUBCHEM_HEAVY_ATOM_COUNT>
48
> <PUBCHEM_ATOM_DEF_STEREO_COUNT>
5
> <PUBCHEM_ATOM_UDEF_STEREO_COUNT>
0
> <PUBCHEM_BOND_DEF_STEREO_COUNT>
0
> <PUBCHEM_BOND_UDEF_STEREO_COUNT>
0
> <PUBCHEM_ISOTOPIC_ATOM_COUNT>
0
> <PUBCHEM_COMPONENT_COUNT>
1
> <PUBCHEM_CACTVS_TAUTO_COUNT>
-1
> <PUBCHEM_COORDINATE_TYPE>
1
5
255
> <PUBCHEM_BONDANNOTATIONS>
14  1  5
26  10  5
11  42  8
11  47  8
12  46  8
12  48  8
13  19  6
27  33  8
27  34  8
33  36  8
34  37  8
35  40  8
35  41  8
36  39  8
37  39  8
40  43  8
41  44  8
42  46  8
43  45  8
44  45  8
47  48  8
18  8  6
24  9  5
$$$$
