506759
  -OEChem-10302200282D
 86 89  0     1  0  0  0  0  0999 V2000
    5.5714    0.9575    0.0000 O   0  0  0  0  0  0  0  0  0  0  0  0
    9.8806    0.7256    0.0000 O   0  0  0  0  0  0  0  0  0  0  0  0
    9.7382    2.0802    0.0000 O   0  0  0  0  0  0  0  0  0  0  0  0
    9.0146   -2.7744    0.0000 O   0  0  0  0  0  0  0  0  0  0  0  0
    9.8576    5.6838    0.0000 O   0  0  0  0  0  0  0  0  0  0  0  0
   12.4787   -3.7744    0.0000 O   0  0  0  0  0  0  0  0  0  0  0  0
    8.1486    0.7256    0.0000 N   0  0  0  0  0  0  0  0  0  0  0  0
    9.8806   -1.2744    0.0000 N   0  0  0  0  0  0  0  0  0  0  0  0
    8.5792    3.3674    0.0000 N   0  0  0  0  0  0  0  0  0  0  0  0
   11.6127   -2.2744    0.0000 N   0  0  0  0  0  0  0  0  0  0  0  0
    9.7761   -5.2689    0.0000 N   0  0  0  0  0  0  0  0  0  0  0  0
    8.2979   -4.6108    0.0000 N   0  0  0  0  0  0  0  0  0  0  0  0
   14.2107   -2.7744    0.0000 N   0  0  0  0  0  0  0  0  0  0  0  0
   14.2107   -0.7744    0.0000 N   0  0  0  0  0  0  0  0  0  0  0  0
    8.0440    1.7201    0.0000 C   0  0  1  0  0  0  0  0  0  0  0  0
    6.5659    1.0620    0.0000 C   0  0  2  0  0  0  0  0  0  0  0  0
    7.0659    1.9280    0.0000 C   0  0  0  0  0  0  0  0  0  0  0  0
    7.2350    0.3188    0.0000 C   0  0  0  0  0  0  0  0  0  0  0  0
    9.0146    0.2256    0.0000 C   0  0  0  0  0  0  0  0  0  0  0  0
    9.0146   -0.7744    0.0000 C   0  0  2  0  0  0  0  0  0  0  0  0
    8.7872    2.3892    0.0000 C   0  0  0  0  0  0  0  0  0  0  0  0
    8.1486   -1.2744    0.0000 C   0  0  0  0  0  0  0  0  0  0  0  0
    4.9836    1.7665    0.0000 C   0  0  0  0  0  0  0  0  0  0  0  0
    7.2825   -0.7744    0.0000 C   0  0  0  0  0  0  0  0  0  0  0  0
    8.1486   -2.2744    0.0000 C   0  0  0  0  0  0  0  0  0  0  0  0
    9.3224    4.0365    0.0000 C   0  0  1  0  0  0  0  0  0  0  0  0
    9.8806   -2.2744    0.0000 C   0  0  0  0  0  0  0  0  0  0  0  0
   10.7466   -2.7744    0.0000 C   0  0  2  0  0  0  0  0  0  0  0  0
    3.9890    1.6620    0.0000 C   0  0  0  0  0  0  0  0  0  0  0  0
   10.2735    3.7275    0.0000 C   0  0  0  0  0  0  0  0  0  0  0  0
   10.7466   -3.7744    0.0000 C   0  0  0  0  0  0  0  0  0  0  0  0
    9.1145    5.0147    0.0000 C   0  0  0  0  0  0  0  0  0  0  0  0
   11.0166    4.3966    0.0000 C   0  0  0  0  0  0  0  0  0  0  0  0
    3.5823    0.7484    0.0000 C   0  0  0  0  0  0  0  0  0  0  0  0
    3.4013    2.4710    0.0000 C   0  0  0  0  0  0  0  0  0  0  0  0
    9.8806   -4.2744    0.0000 C   0  0  0  0  0  0  0  0  0  0  0  0
    2.5878    0.6439    0.0000 C   0  0  0  0  0  0  0  0  0  0  0  0
    2.4067    2.3664    0.0000 C   0  0  0  0  0  0  0  0  0  0  0  0
   12.4787   -2.7744    0.0000 C   0  0  0  0  0  0  0  0  0  0  0  0
    2.0000    1.4529    0.0000 C   0  0  0  0  0  0  0  0  0  0  0  0
    8.9670   -3.8677    0.0000 C   0  0  0  0  0  0  0  0  0  0  0  0
    8.7979   -5.4768    0.0000 C   0  0  0  0  0  0  0  0  0  0  0  0
   13.3447   -2.2744    0.0000 C   0  0  0  0  0  0  0  0  0  0  0  0
   13.3447   -1.2744    0.0000 C   0  0  0  0  0  0  0  0  0  0  0  0
   15.0768   -2.2744    0.0000 C   0  0  0  0  0  0  0  0  0  0  0  0
   15.0768   -1.2744    0.0000 C   0  0  0  0  0  0  0  0  0  0  0  0
    8.6228    1.4979    0.0000 H   0  0  0  0  0  0  0  0  0  0  0  0
    6.3437    0.4832    0.0000 H   0  0  0  0  0  0  0  0  0  0  0  0
    7.2575    2.5177    0.0000 H   0  0  0  0  0  0  0  0  0  0  0  0
    6.4995    2.1802    0.0000 H   0  0  0  0  0  0  0  0  0  0  0  0
    6.7334   -0.0456    0.0000 H   0  0  0  0  0  0  0  0  0  0  0  0
    7.5450   -0.2181    0.0000 H   0  0  0  0  0  0  0  0  0  0  0  0
    9.5515   -0.4644    0.0000 H   0  0  0  0  0  0  0  0  0  0  0  0
    8.6855   -1.5844    0.0000 H   0  0  0  0  0  0  0  0  0  0  0  0
   10.4175   -0.9644    0.0000 H   0  0  0  0  0  0  0  0  0  0  0  0
    7.9896    3.5590    0.0000 H   0  0  0  0  0  0  0  0  0  0  0  0
    5.5408    2.0383    0.0000 H   0  0  0  0  0  0  0  0  0  0  0  0
    4.8127    2.3625    0.0000 H   0  0  0  0  0  0  0  0  0  0  0  0
    7.5925   -0.2375    0.0000 H   0  0  0  0  0  0  0  0  0  0  0  0
    6.7456   -0.4644    0.0000 H   0  0  0  0  0  0  0  0  0  0  0  0
    6.9725   -1.3114    0.0000 H   0  0  0  0  0  0  0  0  0  0  0  0
    7.5286   -2.2744    0.0000 H   0  0  0  0  0  0  0  0  0  0  0  0
    8.1486   -2.8944    0.0000 H   0  0  0  0  0  0  0  0  0  0  0  0
    8.7686   -2.2744    0.0000 H   0  0  0  0  0  0  0  0  0  0  0  0
    9.4513    3.4301    0.0000 H   0  0  0  0  0  0  0  0  0  0  0  0
   10.7466   -2.1544    0.0000 H   0  0  0  0  0  0  0  0  0  0  0  0
    9.9824    3.1801    0.0000 H   0  0  0  0  0  0  0  0  0  0  0  0
   10.7620    3.3458    0.0000 H   0  0  0  0  0  0  0  0  0  0  0  0
   10.9587   -4.3570    0.0000 H   0  0  0  0  0  0  0  0  0  0  0  0
   11.3572   -3.6668    0.0000 H   0  0  0  0  0  0  0  0  0  0  0  0
    8.5248    5.2063    0.0000 H   0  0  0  0  0  0  0  0  0  0  0  0
   11.4315    3.9359    0.0000 H   0  0  0  0  0  0  0  0  0  0  0  0
   11.4773    4.8115    0.0000 H   0  0  0  0  0  0  0  0  0  0  0  0
   10.6017    4.8574    0.0000 H   0  0  0  0  0  0  0  0  0  0  0  0
   11.6127   -1.6544    0.0000 H   0  0  0  0  0  0  0  0  0  0  0  0
    3.9467    0.2468    0.0000 H   0  0  0  0  0  0  0  0  0  0  0  0
    3.6534    3.0374    0.0000 H   0  0  0  0  0  0  0  0  0  0  0  0
    2.3356    0.0775    0.0000 H   0  0  0  0  0  0  0  0  0  0  0  0
    2.0423    2.8680    0.0000 H   0  0  0  0  0  0  0  0  0  0  0  0
    1.3834    1.3881    0.0000 H   0  0  0  0  0  0  0  0  0  0  0  0
   10.2368   -5.6838    0.0000 H   0  0  0  0  0  0  0  0  0  0  0  0
    8.8382   -3.2612    0.0000 H   0  0  0  0  0  0  0  0  0  0  0  0
    8.5458   -6.0432    0.0000 H   0  0  0  0  0  0  0  0  0  0  0  0
   12.8078   -0.9644    0.0000 H   0  0  0  0  0  0  0  0  0  0  0  0
   15.6137   -2.5844    0.0000 H   0  0  0  0  0  0  0  0  0  0  0  0
   15.6137   -0.9644    0.0000 H   0  0  0  0  0  0  0  0  0  0  0  0
 16  1  1  6  0  0  0
  1 23  1  0  0  0  0
  2 19  2  0  0  0  0
  3 21  2  0  0  0  0
  4 27  2  0  0  0  0
  5 32  2  0  0  0  0
  6 39  2  0  0  0  0
  7 15  1  0  0  0  0
  7 18  1  0  0  0  0
  7 19  1  0  0  0  0
 20  8  1  1  0  0  0
  8 27  1  0  0  0  0
  8 55  1  0  0  0  0
  9 21  1  0  0  0  0
 26  9  1  6  0  0  0
  9 56  1  0  0  0  0
 28 10  1  1  0  0  0
 10 39  1  0  0  0  0
 10 75  1  0  0  0  0
 11 36  1  0  0  0  0
 11 42  1  0  0  0  0
 11 81  1  0  0  0  0
 12 41  1  0  0  0  0
 12 42  2  0  0  0  0
 13 43  2  0  0  0  0
 13 45  1  0  0  0  0
 14 44  2  0  0  0  0
 14 46  1  0  0  0  0
 15 17  1  0  0  0  0
 15 21  1  1  0  0  0
 15 47  1  0  0  0  0
 16 17  1  0  0  0  0
 16 18  1  0  0  0  0
 16 48  1  0  0  0  0
 17 49  1  0  0  0  0
 17 50  1  0  0  0  0
 18 51  1  0  0  0  0
 18 52  1  0  0  0  0
 19 20  1  0  0  0  0
 20 22  1  0  0  0  0
 20 53  1  0  0  0  0
 22 24  1  0  0  0  0
 22 25  1  0  0  0  0
 22 54  1  0  0  0  0
 23 29  1  0  0  0  0
 23 57  1  0  0  0  0
 23 58  1  0  0  0  0
 24 59  1  0  0  0  0
 24 60  1  0  0  0  0
 24 61  1  0  0  0  0
 25 62  1  0  0  0  0
 25 63  1  0  0  0  0
 25 64  1  0  0  0  0
 26 30  1  0  0  0  0
 26 32  1  0  0  0  0
 26 65  1  0  0  0  0
 27 28  1  0  0  0  0
 28 31  1  0  0  0  0
 28 66  1  0  0  0  0
 29 34  2  0  0  0  0
 29 35  1  0  0  0  0
 30 33  1  0  0  0  0
 30 67  1  0  0  0  0
 30 68  1  0  0  0  0
 31 36  1  0  0  0  0
 31 69  1  0  0  0  0
 31 70  1  0  0  0  0
 32 71  1  0  0  0  0
 33 72  1  0  0  0  0
 33 73  1  0  0  0  0
 33 74  1  0  0  0  0
 34 37  1  0  0  0  0
 34 76  1  0  0  0  0
 35 38  2  0  0  0  0
 35 77  1  0  0  0  0
 36 41  2  0  0  0  0
 37 40  2  0  0  0  0
 37 78  1  0  0  0  0
 38 40  1  0  0  0  0
 38 79  1  0  0  0  0
 39 43  1  0  0  0  0
 40 80  1  0  0  0  0
 41 82  1  0  0  0  0
 42 83  1  0  0  0  0
 43 44  1  0  0  0  0
 44 84  1  0  0  0  0
 45 46  2  0  0  0  0
 45 85  1  0  0  0  0
 46 86  1  0  0  0  0
M  END
> <PUBCHEM_COMPOUND_CID>
506759
> <PUBCHEM_COMPOUND_CANONICALIZED>
1
> <PUBCHEM_CACTVS_COMPLEXITY>
1040
> <PUBCHEM_CACTVS_HBOND_ACCEPTOR>
9
> <PUBCHEM_CACTVS_HBOND_DONOR>
4
> <PUBCHEM_CACTVS_ROTATABLE_BOND>
15
> <PUBCHEM_CACTVS_SUBSKEYS>
AAADcfB/+AAAAAAAAAAAAAAAAAAAAWLAAAA8QAAAAAAAAAAB8AAAHgAQAAAADTzhngY/kJfJlACoAz139ACCgC23EqAJ2YG4fMiKbnrA+TmXMIgu1gPY6Oe+wSAOAAAAAAAAAAAAAAAAAAAAAAAAAAAAAA==
> <PUBCHEM_IUPAC_OPENEYE_NAME>
N-[(1S)-2-[[(1S)-1-[(2S,4R)-4-benzyloxy-2-[[(1S)-1-formylpropyl]carbamoyl]pyrrolidine-1-carbonyl]-2-methyl-propyl]amino]-1-(1H-imidazol-5-ylmethyl)-2-oxo-ethyl]pyrazine-2-carboxamide
> <PUBCHEM_IUPAC_CAS_NAME>
N-[(2S)-3-(1H-imidazol-5-yl)-1-[[(2S)-3-methyl-1-oxo-1-[(2S,4R)-2-[oxo-[[(2S)-1-oxobutan-2-yl]amino]methyl]-4-phenylmethoxy-1-pyrrolidinyl]butan-2-yl]amino]-1-oxopropan-2-yl]-2-pyrazinecarboxamide
> <PUBCHEM_IUPAC_NAME_MARKUP>
<I>N</I>-[(2<I>S</I>)-3-(1<I>H</I>-imidazol-5-yl)-1-[[(2<I>S</I>)-3-methyl-1-oxo-1-[(2<I>S</I>,4<I>R</I>)-2-[[(2<I>S</I>)-1-oxobutan-2-yl]carbamoyl]-4-phenylmethoxypyrrolidin-1-yl]butan-2-yl]amino]-1-oxopropan-2-yl]pyrazine-2-carboxamide
> <PUBCHEM_IUPAC_NAME>
N-[(2S)-3-(1H-imidazol-5-yl)-1-[[(2S)-3-methyl-1-oxo-1-[(2S,4R)-2-[[(2S)-1-oxobutan-2-yl]carbamoyl]-4-phenylmethoxypyrrolidin-1-yl]butan-2-yl]amino]-1-oxopropan-2-yl]pyrazine-2-carboxamide
> <PUBCHEM_IUPAC_SYSTEMATIC_NAME>
N-[(2S)-3-(1H-imidazol-5-yl)-1-[[(2S)-3-methyl-1-oxidanylidene-1-[(2S,4R)-2-[[(2S)-1-oxidanylidenebutan-2-yl]carbamoyl]-4-phenylmethoxy-pyrrolidin-1-yl]butan-2-yl]amino]-1-oxidanylidene-propan-2-yl]pyrazine-2-carboxamide
> <PUBCHEM_IUPAC_TRADITIONAL_NAME>
N-[(1S)-2-[[(1S)-1-[(2S,4R)-4-benzoxy-2-[[(1S)-1-formylpropyl]carbamoyl]pyrrolidine-1-carbonyl]-2-methyl-propyl]amino]-1-(1H-imidazol-5-ylmethyl)-2-keto-ethyl]pyrazinamide
> <PUBCHEM_IUPAC_INCHI>
InChI=1S/C32H40N8O6/c1-4-22(17-41)37-31(44)27-13-24(46-18-21-8-6-5-7-9-21)16-40(27)32(45)28(20(2)3)39-29(42)25(12-23-14-34-19-36-23)38-30(43)26-15-33-10-11-35-26/h5-11,14-15,17,19-20,22,24-25,27-28H,4,12-13,16,18H2,1-3H3,(H,34,36)(H,37,44)(H,38,43)(H,39,42)/t22-,24+,25-,27-,28-/m0/s1
> <PUBCHEM_IUPAC_INCHIKEY>
FKLRMPVTWJSUEJ-DPNOZYSCSA-N
> <PUBCHEM_XLOGP3_AA>
1.2
> <PUBCHEM_EXACT_MASS>
632.30708103
> <PUBCHEM_MOLECULAR_FORMULA>
C32H40N8O6
> <PUBCHEM_MOLECULAR_WEIGHT>
632.7
> <PUBCHEM_OPENEYE_CAN_SMILES>
CCC(C=O)NC(=O)C1CC(CN1C(=O)C(C(C)C)NC(=O)C(CC2=CN=CN2)NC(=O)C3=NC=CN=C3)OCC4=CC=CC=C4
> <PUBCHEM_OPENEYE_ISO_SMILES>
CC[C@@H](C=O)NC(=O)[C@@H]1C[C@H](CN1C(=O)[C@H](C(C)C)NC(=O)[C@H](CC2=CN=CN2)NC(=O)C3=NC=CN=C3)OCC4=CC=CC=C4
> <PUBCHEM_CACTVS_TPSA>
188
> <PUBCHEM_MONOISOTOPIC_WEIGHT>
632.30708103
> <PUBCHEM_TOTAL_CHARGE>
0
> <PUBCHEM_HEAVY_ATOM_COUNT>
46
> <PUBCHEM_ATOM_DEF_STEREO_COUNT>
5
> <PUBCHEM_ATOM_UDEF_STEREO_COUNT>
0
> <PUBCHEM_BOND_DEF_STEREO_COUNT>
0
> <PUBCHEM_BOND_UDEF_STEREO_COUNT>
0
> <PUBCHEM_ISOTOPIC_ATOM_COUNT>
0
> <PUBCHEM_COMPONENT_COUNT>
1
> <PUBCHEM_CACTVS_TAUTO_COUNT>
-1
> <PUBCHEM_COORDINATE_TYPE>
1
5
255
> <PUBCHEM_BONDANNOTATIONS>
16  1  6
28  10  5
11  36  8
11  42  8
12  41  8
12  42  8
13  43  8
13  45  8
14  44  8
14  46  8
15  21  5
29  34  8
29  35  8
34  37  8
35  38  8
36  41  8
37  40  8
38  40  8
43  44  8
45  46  8
20  8  5
26  9  6
$$$$
