506798
  -OEChem-10302200282D
 81 83  0     1  0  0  0  0  0999 V2000
    4.3763    3.2014    0.0000 O   0  0  0  0  0  0  0  0  0  0  0  0
    6.3301   -0.6465    0.0000 O   0  0  0  0  0  0  0  0  0  0  0  0
    7.4321    0.1541    0.0000 O   0  0  0  0  0  0  0  0  0  0  0  0
    2.8660   -3.6465    0.0000 O   0  0  0  0  0  0  0  0  0  0  0  0
    2.8660   -1.6465    0.0000 O   0  0  0  0  0  0  0  0  0  0  0  0
   10.6126    1.8525    0.0000 O   0  0  0  0  0  0  0  0  0  0  0  0
    5.4641    0.8535    0.0000 N   0  0  0  0  0  0  0  0  0  0  0  0
    7.9673    1.8014    0.0000 N   0  0  0  0  0  0  0  0  0  0  0  0
    4.5981   -1.6465    0.0000 N   0  0  0  0  0  0  0  0  0  0  0  0
    6.2731    1.4413    0.0000 C   0  0  1  0  0  0  0  0  0  0  0  0
    4.9641    2.3924    0.0000 C   0  0  2  0  0  0  0  0  0  0  0  0
    5.9641    2.3924    0.0000 C   0  0  0  0  0  0  0  0  0  0  0  0
    4.6551    1.4413    0.0000 C   0  0  0  0  0  0  0  0  0  0  0  0
    5.4641   -0.1465    0.0000 C   0  0  0  0  0  0  0  0  0  0  0  0
    4.5981   -0.6465    0.0000 C   0  0  2  0  0  0  0  0  0  0  0  0
    7.2242    1.1323    0.0000 C   0  0  0  0  0  0  0  0  0  0  0  0
    3.7320   -0.1465    0.0000 C   0  0  0  0  0  0  0  0  0  0  0  0
    4.7830    4.1149    0.0000 C   0  0  0  0  0  0  0  0  0  0  0  0
    2.8660   -0.6465    0.0000 C   0  0  0  0  0  0  0  0  0  0  0  0
    3.7320    0.8535    0.0000 C   0  0  0  0  0  0  0  0  0  0  0  0
    8.9184    1.4924    0.0000 C   0  0  1  0  0  0  0  0  0  0  0  0
    3.7320   -2.1465    0.0000 C   0  0  0  0  0  0  0  0  0  0  0  0
    4.1953    4.9239    0.0000 C   0  0  0  0  0  0  0  0  0  0  0  0
    9.1263    0.5142    0.0000 C   0  0  0  0  0  0  0  0  0  0  0  0
    3.7320   -3.1465    0.0000 C   0  0  3  0  0  0  0  0  0  0  0  0
    9.6615    2.1615    0.0000 C   0  0  0  0  0  0  0  0  0  0  0  0
    4.5981   -3.6465    0.0000 C   0  0  0  0  0  0  0  0  0  0  0  0
   10.0773    0.2052    0.0000 C   0  0  0  0  0  0  0  0  0  0  0  0
    3.2008    4.8194    0.0000 C   0  0  0  0  0  0  0  0  0  0  0  0
    4.6020    5.8375    0.0000 C   0  0  0  0  0  0  0  0  0  0  0  0
    5.4641   -3.1465    0.0000 C   0  0  0  0  0  0  0  0  0  0  0  0
    2.6130    5.6284    0.0000 C   0  0  0  0  0  0  0  0  0  0  0  0
    4.0142    6.6465    0.0000 C   0  0  0  0  0  0  0  0  0  0  0  0
    3.0197    6.5420    0.0000 C   0  0  0  0  0  0  0  0  0  0  0  0
    2.8660   -4.6465    0.0000 C   0  0  0  0  0  0  0  0  0  0  0  0
    3.7320   -5.1465    0.0000 C   0  0  0  0  0  0  0  0  0  0  0  0
    2.0000   -5.1465    0.0000 C   0  0  0  0  0  0  0  0  0  0  0  0
    3.7320   -6.1465    0.0000 C   0  0  0  0  0  0  0  0  0  0  0  0
    2.0000   -6.1465    0.0000 C   0  0  0  0  0  0  0  0  0  0  0  0
    2.8660   -6.6465    0.0000 C   0  0  0  0  0  0  0  0  0  0  0  0
    6.3701    0.8289    0.0000 H   0  0  0  0  0  0  0  0  0  0  0  0
    5.2456    2.9448    0.0000 H   0  0  0  0  0  0  0  0  0  0  0  0
    6.5706    2.5213    0.0000 H   0  0  0  0  0  0  0  0  0  0  0  0
    5.8993    3.0090    0.0000 H   0  0  0  0  0  0  0  0  0  0  0  0
    4.0887    1.6935    0.0000 H   0  0  0  0  0  0  0  0  0  0  0  0
    4.3451    0.9044    0.0000 H   0  0  0  0  0  0  0  0  0  0  0  0
    5.1350   -0.9565    0.0000 H   0  0  0  0  0  0  0  0  0  0  0  0
    3.7320   -0.7665    0.0000 H   0  0  0  0  0  0  0  0  0  0  0  0
    7.8384    2.4079    0.0000 H   0  0  0  0  0  0  0  0  0  0  0  0
    5.1350   -1.9565    0.0000 H   0  0  0  0  0  0  0  0  0  0  0  0
    5.2971    3.7682    0.0000 H   0  0  0  0  0  0  0  0  0  0  0  0
    5.2137    4.5609    0.0000 H   0  0  0  0  0  0  0  0  0  0  0  0
    2.5560   -0.1096    0.0000 H   0  0  0  0  0  0  0  0  0  0  0  0
    2.3291   -0.9565    0.0000 H   0  0  0  0  0  0  0  0  0  0  0  0
    3.1760   -1.1834    0.0000 H   0  0  0  0  0  0  0  0  0  0  0  0
    4.3520    0.8535    0.0000 H   0  0  0  0  0  0  0  0  0  0  0  0
    3.7320    1.4735    0.0000 H   0  0  0  0  0  0  0  0  0  0  0  0
    3.1120    0.8535    0.0000 H   0  0  0  0  0  0  0  0  0  0  0  0
    8.4576    1.0775    0.0000 H   0  0  0  0  0  0  0  0  0  0  0  0
    8.5067    0.4926    0.0000 H   0  0  0  0  0  0  0  0  0  0  0  0
    9.0400   -0.0997    0.0000 H   0  0  0  0  0  0  0  0  0  0  0  0
    3.7320   -3.7665    0.0000 H   0  0  0  0  0  0  0  0  0  0  0  0
    9.5326    2.7680    0.0000 H   0  0  0  0  0  0  0  0  0  0  0  0
    4.1996   -4.1214    0.0000 H   0  0  0  0  0  0  0  0  0  0  0  0
    4.9966   -4.1214    0.0000 H   0  0  0  0  0  0  0  0  0  0  0  0
    9.8858   -0.3844    0.0000 H   0  0  0  0  0  0  0  0  0  0  0  0
   10.6670    0.0136    0.0000 H   0  0  0  0  0  0  0  0  0  0  0  0
   10.2689    0.7949    0.0000 H   0  0  0  0  0  0  0  0  0  0  0  0
    2.9486    4.2530    0.0000 H   0  0  0  0  0  0  0  0  0  0  0  0
    5.2186    5.9023    0.0000 H   0  0  0  0  0  0  0  0  0  0  0  0
    5.7741   -3.6834    0.0000 H   0  0  0  0  0  0  0  0  0  0  0  0
    6.0010   -2.8365    0.0000 H   0  0  0  0  0  0  0  0  0  0  0  0
    5.1541   -2.6096    0.0000 H   0  0  0  0  0  0  0  0  0  0  0  0
    1.9964    5.5636    0.0000 H   0  0  0  0  0  0  0  0  0  0  0  0
    4.2664    7.2129    0.0000 H   0  0  0  0  0  0  0  0  0  0  0  0
    2.6553    7.0436    0.0000 H   0  0  0  0  0  0  0  0  0  0  0  0
    4.2690   -4.8365    0.0000 H   0  0  0  0  0  0  0  0  0  0  0  0
    1.4631   -4.8365    0.0000 H   0  0  0  0  0  0  0  0  0  0  0  0
    4.2690   -6.4565    0.0000 H   0  0  0  0  0  0  0  0  0  0  0  0
    1.4631   -6.4565    0.0000 H   0  0  0  0  0  0  0  0  0  0  0  0
    2.8660   -7.2665    0.0000 H   0  0  0  0  0  0  0  0  0  0  0  0
 11  1  1  6  0  0  0
  1 18  1  0  0  0  0
  2 14  2  0  0  0  0
  3 16  2  0  0  0  0
  4 25  1  0  0  0  0
  4 35  1  0  0  0  0
  5 22  2  0  0  0  0
  6 26  2  0  0  0  0
  7 10  1  0  0  0  0
  7 13  1  0  0  0  0
  7 14  1  0  0  0  0
  8 16  1  0  0  0  0
 21  8  1  6  0  0  0
  8 49  1  0  0  0  0
 15  9  1  1  0  0  0
  9 22  1  0  0  0  0
  9 50  1  0  0  0  0
 10 12  1  0  0  0  0
 10 16  1  1  0  0  0
 10 41  1  0  0  0  0
 11 12  1  0  0  0  0
 11 13  1  0  0  0  0
 11 42  1  0  0  0  0
 12 43  1  0  0  0  0
 12 44  1  0  0  0  0
 13 45  1  0  0  0  0
 13 46  1  0  0  0  0
 14 15  1  0  0  0  0
 15 17  1  0  0  0  0
 15 47  1  0  0  0  0
 17 19  1  0  0  0  0
 17 20  1  0  0  0  0
 17 48  1  0  0  0  0
 18 23  1  0  0  0  0
 18 51  1  0  0  0  0
 18 52  1  0  0  0  0
 19 53  1  0  0  0  0
 19 54  1  0  0  0  0
 19 55  1  0  0  0  0
 20 56  1  0  0  0  0
 20 57  1  0  0  0  0
 20 58  1  0  0  0  0
 21 24  1  0  0  0  0
 21 26  1  0  0  0  0
 21 59  1  0  0  0  0
 22 25  1  0  0  0  0
 23 29  2  0  0  0  0
 23 30  1  0  0  0  0
 24 28  1  0  0  0  0
 24 60  1  0  0  0  0
 24 61  1  0  0  0  0
 25 27  1  0  0  0  0
 25 62  1  0  0  0  0
 26 63  1  0  0  0  0
 27 31  1  0  0  0  0
 27 64  1  0  0  0  0
 27 65  1  0  0  0  0
 28 66  1  0  0  0  0
 28 67  1  0  0  0  0
 28 68  1  0  0  0  0
 29 32  1  0  0  0  0
 29 69  1  0  0  0  0
 30 33  2  0  0  0  0
 30 70  1  0  0  0  0
 31 71  1  0  0  0  0
 31 72  1  0  0  0  0
 31 73  1  0  0  0  0
 32 34  2  0  0  0  0
 32 74  1  0  0  0  0
 33 34  1  0  0  0  0
 33 75  1  0  0  0  0
 34 76  1  0  0  0  0
 35 36  2  0  0  0  0
 35 37  1  0  0  0  0
 36 38  1  0  0  0  0
 36 77  1  0  0  0  0
 37 39  2  0  0  0  0
 37 78  1  0  0  0  0
 38 40  2  0  0  0  0
 38 79  1  0  0  0  0
 39 40  1  0  0  0  0
 39 80  1  0  0  0  0
 40 81  1  0  0  0  0
M  END
> <PUBCHEM_COMPOUND_CID>
506798
> <PUBCHEM_COMPOUND_CANONICALIZED>
1
> <PUBCHEM_CACTVS_COMPLEXITY>
824
> <PUBCHEM_CACTVS_HBOND_ACCEPTOR>
6
> <PUBCHEM_CACTVS_HBOND_DONOR>
2
> <PUBCHEM_CACTVS_ROTATABLE_BOND>
14
> <PUBCHEM_CACTVS_SUBSKEYS>
AAADcfB7OAAAAAAAAAAAAAAAAAAAAWAAAAAwYAAAAAAAAAABQAAAHgAQAAAADTzhmAYyBoPABACIAilSkAICCAAgIAAIiIHOCIgOZjKEsT6XOCCm1hGYqAe6wSAOAAAAAAAAAAAAAAAAAAAAAAAAAAAAAA==
> <PUBCHEM_IUPAC_OPENEYE_NAME>
(2S,4R)-4-benzyloxy-N-[(1S)-1-formylpropyl]-1-[(2S)-3-methyl-2-(2-phenoxybutanoylamino)butanoyl]pyrrolidine-2-carboxamide
> <PUBCHEM_IUPAC_CAS_NAME>
(2S,4R)-1-[(2S)-3-methyl-1-oxo-2-[(1-oxo-2-phenoxybutyl)amino]butyl]-N-[(2S)-1-oxobutan-2-yl]-4-phenylmethoxy-2-pyrrolidinecarboxamide
> <PUBCHEM_IUPAC_NAME_MARKUP>
(2<I>S</I>,4<I>R</I>)-1-[(2<I>S</I>)-3-methyl-2-(2-phenoxybutanoylamino)butanoyl]-<I>N</I>-[(2<I>S</I>)-1-oxobutan-2-yl]-4-phenylmethoxypyrrolidine-2-carboxamide
> <PUBCHEM_IUPAC_NAME>
(2S,4R)-1-[(2S)-3-methyl-2-(2-phenoxybutanoylamino)butanoyl]-N-[(2S)-1-oxobutan-2-yl]-4-phenylmethoxypyrrolidine-2-carboxamide
> <PUBCHEM_IUPAC_SYSTEMATIC_NAME>
(2S,4R)-1-[(2S)-3-methyl-2-(2-phenoxybutanoylamino)butanoyl]-N-[(2S)-1-oxidanylidenebutan-2-yl]-4-phenylmethoxy-pyrrolidine-2-carboxamide
> <PUBCHEM_IUPAC_TRADITIONAL_NAME>
(2S,4R)-4-benzoxy-N-[(1S)-1-formylpropyl]-1-[(2S)-3-methyl-2-(2-phenoxybutanoylamino)butanoyl]pyrrolidine-2-carboxamide
> <PUBCHEM_IUPAC_INCHI>
InChI=1S/C31H41N3O6/c1-5-23(19-35)32-29(36)26-17-25(39-20-22-13-9-7-10-14-22)18-34(26)31(38)28(21(3)4)33-30(37)27(6-2)40-24-15-11-8-12-16-24/h7-16,19,21,23,25-28H,5-6,17-18,20H2,1-4H3,(H,32,36)(H,33,37)/t23-,25+,26-,27?,28-/m0/s1
> <PUBCHEM_IUPAC_INCHIKEY>
XUQAOMCFFZMCMX-UKZAOXQVSA-N
> <PUBCHEM_XLOGP3_AA>
4.4
> <PUBCHEM_EXACT_MASS>
551.29953604
> <PUBCHEM_MOLECULAR_FORMULA>
C31H41N3O6
> <PUBCHEM_MOLECULAR_WEIGHT>
551.7
> <PUBCHEM_OPENEYE_CAN_SMILES>
CCC(C=O)NC(=O)C1CC(CN1C(=O)C(C(C)C)NC(=O)C(CC)OC2=CC=CC=C2)OCC3=CC=CC=C3
> <PUBCHEM_OPENEYE_ISO_SMILES>
CC[C@@H](C=O)NC(=O)[C@@H]1C[C@H](CN1C(=O)[C@H](C(C)C)NC(=O)C(CC)OC2=CC=CC=C2)OCC3=CC=CC=C3
> <PUBCHEM_CACTVS_TPSA>
114
> <PUBCHEM_MONOISOTOPIC_WEIGHT>
551.29953604
> <PUBCHEM_TOTAL_CHARGE>
0
> <PUBCHEM_HEAVY_ATOM_COUNT>
40
> <PUBCHEM_ATOM_DEF_STEREO_COUNT>
4
> <PUBCHEM_ATOM_UDEF_STEREO_COUNT>
1
> <PUBCHEM_BOND_DEF_STEREO_COUNT>
0
> <PUBCHEM_BOND_UDEF_STEREO_COUNT>
0
> <PUBCHEM_ISOTOPIC_ATOM_COUNT>
0
> <PUBCHEM_COMPONENT_COUNT>
1
> <PUBCHEM_CACTVS_TAUTO_COUNT>
-1
> <PUBCHEM_COORDINATE_TYPE>
1
5
255
> <PUBCHEM_BONDANNOTATIONS>
11  1  6
10  16  5
23  29  8
23  30  8
25  27  3
29  32  8
30  33  8
32  34  8
33  34  8
35  36  8
35  37  8
36  38  8
37  39  8
38  40  8
39  40  8
21  8  6
15  9  5
$$$$
