506710
  -OEChem-10302200282D
 82 83  0     1  0  0  0  0  0999 V2000
    6.2524   -1.4897    0.0000 O   0  0  0  0  0  0  0  0  0  0  0  0
    6.9334    2.7717    0.0000 O   0  0  0  0  0  0  0  0  0  0  0  0
    5.5714    2.7717    0.0000 O   0  0  0  0  0  0  0  0  0  0  0  0
   10.3238    1.5446    0.0000 O   0  0  0  0  0  0  0  0  0  0  0  0
    2.0000    3.2671    0.0000 O   0  0  0  0  0  0  0  0  0  0  0  0
   11.6804    4.8852    0.0000 O   0  0  0  0  0  0  0  0  0  0  0  0
    6.7524    1.0491    0.0000 N   0  0  0  0  0  0  0  0  0  0  0  0
    8.9225    2.5626    0.0000 N   0  0  0  0  0  0  0  0  0  0  0  0
    4.1701    1.7536    0.0000 N   0  0  0  0  0  0  0  0  0  0  0  0
   11.4993    3.1626    0.0000 N   0  0  0  0  0  0  0  0  0  0  0  0
   13.0816    3.8671    0.0000 N   0  0  0  0  0  0  0  0  0  0  0  0
    5.7524    1.0491    0.0000 C   0  0  1  0  0  0  0  0  0  0  0  0
    6.2524   -0.4897    0.0000 C   0  0  2  0  0  0  0  0  0  0  0  0
    5.4434    0.0981    0.0000 C   0  0  0  0  0  0  0  0  0  0  0  0
    7.0614    0.0981    0.0000 C   0  0  0  0  0  0  0  0  0  0  0  0
    7.3402    1.8582    0.0000 C   0  0  0  0  0  0  0  0  0  0  0  0
    8.3347    1.7536    0.0000 C   0  0  2  0  0  0  0  0  0  0  0  0
    5.1646    1.8582    0.0000 C   0  0  0  0  0  0  0  0  0  0  0  0
    8.7414    0.8401    0.0000 C   0  0  0  0  0  0  0  0  0  0  0  0
    5.3864   -1.9897    0.0000 C   0  0  0  0  0  0  0  0  0  0  0  0
    9.7360    0.7356    0.0000 C   0  0  0  0  0  0  0  0  0  0  0  0
    8.1537    0.0311    0.0000 C   0  0  0  0  0  0  0  0  0  0  0  0
    3.5823    2.5626    0.0000 C   0  0  1  0  0  0  0  0  0  0  0  0
    9.9170    2.4581    0.0000 C   0  0  0  0  0  0  0  0  0  0  0  0
   10.5048    3.2671    0.0000 C   0  0  2  0  0  0  0  0  0  0  0  0
   10.0981    4.1807    0.0000 C   0  0  0  0  0  0  0  0  0  0  0  0
    5.3864   -2.9897    0.0000 C   0  0  0  0  0  0  0  0  0  0  0  0
    3.9890    3.4762    0.0000 C   0  0  0  0  0  0  0  0  0  0  0  0
    2.5878    2.4581    0.0000 C   0  0  0  0  0  0  0  0  0  0  0  0
   10.6858    4.9897    0.0000 C   0  0  0  0  0  0  0  0  0  0  0  0
    9.1035    4.2852    0.0000 C   0  0  0  0  0  0  0  0  0  0  0  0
    3.4013    4.2852    0.0000 C   0  0  0  0  0  0  0  0  0  0  0  0
    6.2524   -3.4897    0.0000 C   0  0  0  0  0  0  0  0  0  0  0  0
    4.5204   -3.4897    0.0000 C   0  0  0  0  0  0  0  0  0  0  0  0
   12.0871    3.9716    0.0000 C   0  0  0  0  0  0  0  0  0  0  0  0
    6.2524   -4.4897    0.0000 C   0  0  0  0  0  0  0  0  0  0  0  0
    4.5204   -4.4897    0.0000 C   0  0  0  0  0  0  0  0  0  0  0  0
    5.3864   -4.9897    0.0000 C   0  0  0  0  0  0  0  0  0  0  0  0
   13.6694    4.6761    0.0000 C   0  0  0  0  0  0  0  0  0  0  0  0
    6.0339    1.6016    0.0000 H   0  0  0  0  0  0  0  0  0  0  0  0
    5.7000   -0.7712    0.0000 H   0  0  0  0  0  0  0  0  0  0  0  0
    4.8770    0.3503    0.0000 H   0  0  0  0  0  0  0  0  0  0  0  0
    5.1334   -0.4388    0.0000 H   0  0  0  0  0  0  0  0  0  0  0  0
    7.3714   -0.4388    0.0000 H   0  0  0  0  0  0  0  0  0  0  0  0
    7.6278    0.3503    0.0000 H   0  0  0  0  0  0  0  0  0  0  0  0
    8.0825    2.3200    0.0000 H   0  0  0  0  0  0  0  0  0  0  0  0
    9.1059    1.3417    0.0000 H   0  0  0  0  0  0  0  0  0  0  0  0
    8.6703    3.1290    0.0000 H   0  0  0  0  0  0  0  0  0  0  0  0
    3.9179    1.1872    0.0000 H   0  0  0  0  0  0  0  0  0  0  0  0
    5.1743   -1.4071    0.0000 H   0  0  0  0  0  0  0  0  0  0  0  0
    4.7758   -2.0974    0.0000 H   0  0  0  0  0  0  0  0  0  0  0  0
    9.6712    0.1190    0.0000 H   0  0  0  0  0  0  0  0  0  0  0  0
   10.3526    0.6708    0.0000 H   0  0  0  0  0  0  0  0  0  0  0  0
    9.8008    1.3522    0.0000 H   0  0  0  0  0  0  0  0  0  0  0  0
    7.6521    0.3955    0.0000 H   0  0  0  0  0  0  0  0  0  0  0  0
    7.7892   -0.4705    0.0000 H   0  0  0  0  0  0  0  0  0  0  0  0
    8.6552   -0.3334    0.0000 H   0  0  0  0  0  0  0  0  0  0  0  0
    3.3301    1.9962    0.0000 H   0  0  0  0  0  0  0  0  0  0  0  0
   10.7570    2.7007    0.0000 H   0  0  0  0  0  0  0  0  0  0  0  0
   10.7147    4.1159    0.0000 H   0  0  0  0  0  0  0  0  0  0  0  0
    4.5030    3.1295    0.0000 H   0  0  0  0  0  0  0  0  0  0  0  0
    4.4197    3.9222    0.0000 H   0  0  0  0  0  0  0  0  0  0  0  0
   11.7515    2.5962    0.0000 H   0  0  0  0  0  0  0  0  0  0  0  0
    2.3356    1.8917    0.0000 H   0  0  0  0  0  0  0  0  0  0  0  0
   11.1874    4.6253    0.0000 H   0  0  0  0  0  0  0  0  0  0  0  0
   11.0503    5.4913    0.0000 H   0  0  0  0  0  0  0  0  0  0  0  0
   10.1843    5.3541    0.0000 H   0  0  0  0  0  0  0  0  0  0  0  0
    9.1684    4.9018    0.0000 H   0  0  0  0  0  0  0  0  0  0  0  0
    8.4869    4.3500    0.0000 H   0  0  0  0  0  0  0  0  0  0  0  0
    9.0387    3.6686    0.0000 H   0  0  0  0  0  0  0  0  0  0  0  0
    3.9028    4.6496    0.0000 H   0  0  0  0  0  0  0  0  0  0  0  0
    3.0368    4.7868    0.0000 H   0  0  0  0  0  0  0  0  0  0  0  0
    2.8997    3.9208    0.0000 H   0  0  0  0  0  0  0  0  0  0  0  0
    6.7893   -3.1797    0.0000 H   0  0  0  0  0  0  0  0  0  0  0  0
    3.9834   -3.1797    0.0000 H   0  0  0  0  0  0  0  0  0  0  0  0
    6.7893   -4.7997    0.0000 H   0  0  0  0  0  0  0  0  0  0  0  0
    3.9834   -4.7997    0.0000 H   0  0  0  0  0  0  0  0  0  0  0  0
    5.3864   -5.6097    0.0000 H   0  0  0  0  0  0  0  0  0  0  0  0
   13.3338    3.3007    0.0000 H   0  0  0  0  0  0  0  0  0  0  0  0
   14.1710    4.3117    0.0000 H   0  0  0  0  0  0  0  0  0  0  0  0
   14.0338    5.1777    0.0000 H   0  0  0  0  0  0  0  0  0  0  0  0
   13.1678    5.0405    0.0000 H   0  0  0  0  0  0  0  0  0  0  0  0
 13  1  1  6  0  0  0
  1 20  1  0  0  0  0
  2 16  2  0  0  0  0
  3 18  2  0  0  0  0
  4 24  2  0  0  0  0
  5 29  2  0  0  0  0
  6 35  2  0  0  0  0
  7 12  1  0  0  0  0
  7 15  1  0  0  0  0
  7 16  1  0  0  0  0
 17  8  1  1  0  0  0
  8 24  1  0  0  0  0
  8 48  1  0  0  0  0
  9 18  1  0  0  0  0
 23  9  1  6  0  0  0
  9 49  1  0  0  0  0
 25 10  1  6  0  0  0
 10 35  1  0  0  0  0
 10 63  1  0  0  0  0
 11 35  1  0  0  0  0
 11 39  1  0  0  0  0
 11 79  1  0  0  0  0
 12 14  1  0  0  0  0
 12 18  1  1  0  0  0
 12 40  1  0  0  0  0
 13 14  1  0  0  0  0
 13 15  1  0  0  0  0
 13 41  1  0  0  0  0
 14 42  1  0  0  0  0
 14 43  1  0  0  0  0
 15 44  1  0  0  0  0
 15 45  1  0  0  0  0
 16 17  1  0  0  0  0
 17 19  1  0  0  0  0
 17 46  1  0  0  0  0
 19 21  1  0  0  0  0
 19 22  1  0  0  0  0
 19 47  1  0  0  0  0
 20 27  1  0  0  0  0
 20 50  1  0  0  0  0
 20 51  1  0  0  0  0
 21 52  1  0  0  0  0
 21 53  1  0  0  0  0
 21 54  1  0  0  0  0
 22 55  1  0  0  0  0
 22 56  1  0  0  0  0
 22 57  1  0  0  0  0
 23 28  1  0  0  0  0
 23 29  1  0  0  0  0
 23 58  1  0  0  0  0
 24 25  1  0  0  0  0
 25 26  1  0  0  0  0
 25 59  1  0  0  0  0
 26 30  1  0  0  0  0
 26 31  1  0  0  0  0
 26 60  1  0  0  0  0
 27 33  2  0  0  0  0
 27 34  1  0  0  0  0
 28 32  1  0  0  0  0
 28 61  1  0  0  0  0
 28 62  1  0  0  0  0
 29 64  1  0  0  0  0
 30 65  1  0  0  0  0
 30 66  1  0  0  0  0
 30 67  1  0  0  0  0
 31 68  1  0  0  0  0
 31 69  1  0  0  0  0
 31 70  1  0  0  0  0
 32 71  1  0  0  0  0
 32 72  1  0  0  0  0
 32 73  1  0  0  0  0
 33 36  1  0  0  0  0
 33 74  1  0  0  0  0
 34 37  2  0  0  0  0
 34 75  1  0  0  0  0
 36 38  2  0  0  0  0
 36 76  1  0  0  0  0
 37 38  1  0  0  0  0
 37 77  1  0  0  0  0
 38 78  1  0  0  0  0
 39 80  1  0  0  0  0
 39 81  1  0  0  0  0
 39 82  1  0  0  0  0
M  END
> <PUBCHEM_COMPOUND_CID>
506710
> <PUBCHEM_COMPOUND_CANONICALIZED>
1
> <PUBCHEM_CACTVS_COMPLEXITY>
844
> <PUBCHEM_CACTVS_HBOND_ACCEPTOR>
6
> <PUBCHEM_CACTVS_HBOND_DONOR>
4
> <PUBCHEM_CACTVS_ROTATABLE_BOND>
13
> <PUBCHEM_CACTVS_SUBSKEYS>
AAADcfB7uAAAAAAAAAAAAAAAAAAAAWAAAAAwAAAAAAAAAAABAAAAHgAQAAAADTzhmAYzAIPABACIAilSkAACAAAgAAAIiIGICIiKZjKAsTiXMAAu1gOYqAe6wSAOAAAAAAAAAAAAAAAAAAAAAAAAAAAAAA==
> <PUBCHEM_IUPAC_OPENEYE_NAME>
(2S,4R)-4-benzyloxy-N-[(1S)-1-formylpropyl]-1-[(2S)-3-methyl-2-[[(2S)-3-methyl-2-(methylcarbamoylamino)butanoyl]amino]butanoyl]pyrrolidine-2-carboxamide
> <PUBCHEM_IUPAC_CAS_NAME>
(2S,4R)-1-[(2S)-3-methyl-2-[[(2S)-3-methyl-2-(methylcarbamoylamino)-1-oxobutyl]amino]-1-oxobutyl]-N-[(2S)-1-oxobutan-2-yl]-4-phenylmethoxy-2-pyrrolidinecarboxamide
> <PUBCHEM_IUPAC_NAME_MARKUP>
(2<I>S</I>,4<I>R</I>)-1-[(2<I>S</I>)-3-methyl-2-[[(2<I>S</I>)-3-methyl-2-(methylcarbamoylamino)butanoyl]amino]butanoyl]-<I>N</I>-[(2<I>S</I>)-1-oxobutan-2-yl]-4-phenylmethoxypyrrolidine-2-carboxamide
> <PUBCHEM_IUPAC_NAME>
(2S,4R)-1-[(2S)-3-methyl-2-[[(2S)-3-methyl-2-(methylcarbamoylamino)butanoyl]amino]butanoyl]-N-[(2S)-1-oxobutan-2-yl]-4-phenylmethoxypyrrolidine-2-carboxamide
> <PUBCHEM_IUPAC_SYSTEMATIC_NAME>
(2S,4R)-1-[(2S)-3-methyl-2-[[(2S)-3-methyl-2-(methylcarbamoylamino)butanoyl]amino]butanoyl]-N-[(2S)-1-oxidanylidenebutan-2-yl]-4-phenylmethoxy-pyrrolidine-2-carboxamide
> <PUBCHEM_IUPAC_TRADITIONAL_NAME>
(2S,4R)-4-benzoxy-N-[(1S)-1-formylpropyl]-1-[(2S)-3-methyl-2-[[(2S)-3-methyl-2-(methylcarbamoylamino)butanoyl]amino]butanoyl]pyrrolidine-2-carboxamide
> <PUBCHEM_IUPAC_INCHI>
InChI=1S/C28H43N5O6/c1-7-20(15-34)30-25(35)22-13-21(39-16-19-11-9-8-10-12-19)14-33(22)27(37)24(18(4)5)31-26(36)23(17(2)3)32-28(38)29-6/h8-12,15,17-18,20-24H,7,13-14,16H2,1-6H3,(H,30,35)(H,31,36)(H2,29,32,38)/t20-,21+,22-,23-,24-/m0/s1
> <PUBCHEM_IUPAC_INCHIKEY>
WKLBNLYQNWMQQX-HTUFRPJOSA-N
> <PUBCHEM_XLOGP3_AA>
2.4
> <PUBCHEM_EXACT_MASS>
545.32133411
> <PUBCHEM_MOLECULAR_FORMULA>
C28H43N5O6
> <PUBCHEM_MOLECULAR_WEIGHT>
545.7
> <PUBCHEM_OPENEYE_CAN_SMILES>
CCC(C=O)NC(=O)C1CC(CN1C(=O)C(C(C)C)NC(=O)C(C(C)C)NC(=O)NC)OCC2=CC=CC=C2
> <PUBCHEM_OPENEYE_ISO_SMILES>
CC[C@@H](C=O)NC(=O)[C@@H]1C[C@H](CN1C(=O)[C@H](C(C)C)NC(=O)[C@H](C(C)C)NC(=O)NC)OCC2=CC=CC=C2
> <PUBCHEM_CACTVS_TPSA>
146
> <PUBCHEM_MONOISOTOPIC_WEIGHT>
545.32133411
> <PUBCHEM_TOTAL_CHARGE>
0
> <PUBCHEM_HEAVY_ATOM_COUNT>
39
> <PUBCHEM_ATOM_DEF_STEREO_COUNT>
5
> <PUBCHEM_ATOM_UDEF_STEREO_COUNT>
0
> <PUBCHEM_BOND_DEF_STEREO_COUNT>
0
> <PUBCHEM_BOND_UDEF_STEREO_COUNT>
0
> <PUBCHEM_ISOTOPIC_ATOM_COUNT>
0
> <PUBCHEM_COMPONENT_COUNT>
1
> <PUBCHEM_CACTVS_TAUTO_COUNT>
-1
> <PUBCHEM_COORDINATE_TYPE>
1
5
255
> <PUBCHEM_BONDANNOTATIONS>
13  1  6
25  10  6
12  18  5
27  33  8
27  34  8
33  36  8
34  37  8
36  38  8
37  38  8
17  8  5
23  9  6
$$$$
