506799
  -OEChem-10302200282D
 83 85  0     1  0  0  0  0  0999 V2000
    8.9073    1.0028    0.0000 O   0  0  0  0  0  0  0  0  0  0  0  0
    4.5981    0.7709    0.0000 O   0  0  0  0  0  0  0  0  0  0  0  0
    4.7404    2.1255    0.0000 O   0  0  0  0  0  0  0  0  0  0  0  0
    5.4641   -2.7291    0.0000 O   0  0  0  0  0  0  0  0  0  0  0  0
    4.6210    5.7291    0.0000 O   0  0  0  0  0  0  0  0  0  0  0  0
    6.3301    0.7709    0.0000 N   0  0  0  0  0  0  0  0  0  0  0  0
    4.5981   -1.2291    0.0000 N   0  0  0  0  0  0  0  0  0  0  0  0
    5.8994    3.4127    0.0000 N   0  0  0  0  0  0  0  0  0  0  0  0
    6.4347    1.7654    0.0000 C   0  0  1  0  0  0  0  0  0  0  0  0
    7.9128    1.1073    0.0000 C   0  0  2  0  0  0  0  0  0  0  0  0
    7.4128    1.9733    0.0000 C   0  0  0  0  0  0  0  0  0  0  0  0
    7.2437    0.3642    0.0000 C   0  0  0  0  0  0  0  0  0  0  0  0
    5.4641    0.2709    0.0000 C   0  0  0  0  0  0  0  0  0  0  0  0
    5.4641   -0.7291    0.0000 C   0  0  2  0  0  0  0  0  0  0  0  0
    5.6915    2.4346    0.0000 C   0  0  0  0  0  0  0  0  0  0  0  0
    6.3301   -1.2291    0.0000 C   0  0  0  0  0  0  0  0  0  0  0  0
    9.4951    1.8118    0.0000 C   0  0  0  0  0  0  0  0  0  0  0  0
    6.3301   -2.2291    0.0000 C   0  0  0  0  0  0  0  0  0  0  0  0
    7.1962   -0.7291    0.0000 C   0  0  0  0  0  0  0  0  0  0  0  0
    5.1563    4.0818    0.0000 C   0  0  1  0  0  0  0  0  0  0  0  0
    4.5981   -2.2291    0.0000 C   0  0  0  0  0  0  0  0  0  0  0  0
    3.7320   -2.7291    0.0000 C   0  0  3  0  0  0  0  0  0  0  0  0
    2.8660   -2.2291    0.0000 C   0  0  0  0  0  0  0  0  0  0  0  0
   10.4896    1.7073    0.0000 C   0  0  0  0  0  0  0  0  0  0  0  0
    4.2052    3.7728    0.0000 C   0  0  0  0  0  0  0  0  0  0  0  0
    3.7320   -3.7291    0.0000 C   0  0  0  0  0  0  0  0  0  0  0  0
    2.8660   -1.2291    0.0000 C   0  0  0  0  0  0  0  0  0  0  0  0
    5.3642    5.0600    0.0000 C   0  0  0  0  0  0  0  0  0  0  0  0
    3.4621    4.4419    0.0000 C   0  0  0  0  0  0  0  0  0  0  0  0
   10.8964    0.7937    0.0000 C   0  0  0  0  0  0  0  0  0  0  0  0
   11.0774    2.5163    0.0000 C   0  0  0  0  0  0  0  0  0  0  0  0
    2.8660   -4.2291    0.0000 C   0  0  0  0  0  0  0  0  0  0  0  0
    4.5981   -4.2291    0.0000 C   0  0  0  0  0  0  0  0  0  0  0  0
    2.0000   -0.7291    0.0000 C   0  0  0  0  0  0  0  0  0  0  0  0
   11.8909    0.6892    0.0000 C   0  0  0  0  0  0  0  0  0  0  0  0
   12.0719    2.4118    0.0000 C   0  0  0  0  0  0  0  0  0  0  0  0
    2.8660   -5.2291    0.0000 C   0  0  0  0  0  0  0  0  0  0  0  0
    4.5981   -5.2291    0.0000 C   0  0  0  0  0  0  0  0  0  0  0  0
   12.4787    1.4982    0.0000 C   0  0  0  0  0  0  0  0  0  0  0  0
    3.7320   -5.7291    0.0000 C   0  0  0  0  0  0  0  0  0  0  0  0
    5.8558    1.5432    0.0000 H   0  0  0  0  0  0  0  0  0  0  0  0
    8.1350    0.5285    0.0000 H   0  0  0  0  0  0  0  0  0  0  0  0
    7.9792    2.2255    0.0000 H   0  0  0  0  0  0  0  0  0  0  0  0
    7.2212    2.5630    0.0000 H   0  0  0  0  0  0  0  0  0  0  0  0
    6.9337   -0.1728    0.0000 H   0  0  0  0  0  0  0  0  0  0  0  0
    7.7453   -0.0003    0.0000 H   0  0  0  0  0  0  0  0  0  0  0  0
    5.4641   -1.3491    0.0000 H   0  0  0  0  0  0  0  0  0  0  0  0
    6.8671   -1.5391    0.0000 H   0  0  0  0  0  0  0  0  0  0  0  0
    4.0611   -0.9191    0.0000 H   0  0  0  0  0  0  0  0  0  0  0  0
    6.4891    3.6043    0.0000 H   0  0  0  0  0  0  0  0  0  0  0  0
    9.6660    2.4078    0.0000 H   0  0  0  0  0  0  0  0  0  0  0  0
    8.9379    2.0836    0.0000 H   0  0  0  0  0  0  0  0  0  0  0  0
    5.7101   -2.2291    0.0000 H   0  0  0  0  0  0  0  0  0  0  0  0
    6.3301   -2.8491    0.0000 H   0  0  0  0  0  0  0  0  0  0  0  0
    6.9501   -2.2291    0.0000 H   0  0  0  0  0  0  0  0  0  0  0  0
    7.5062   -1.2660    0.0000 H   0  0  0  0  0  0  0  0  0  0  0  0
    7.7331   -0.4191    0.0000 H   0  0  0  0  0  0  0  0  0  0  0  0
    6.8862   -0.1922    0.0000 H   0  0  0  0  0  0  0  0  0  0  0  0
    5.7459    4.2734    0.0000 H   0  0  0  0  0  0  0  0  0  0  0  0
    3.7320   -2.1091    0.0000 H   0  0  0  0  0  0  0  0  0  0  0  0
    2.2554   -2.1214    0.0000 H   0  0  0  0  0  0  0  0  0  0  0  0
    2.6540   -2.8117    0.0000 H   0  0  0  0  0  0  0  0  0  0  0  0
    3.7166    3.3911    0.0000 H   0  0  0  0  0  0  0  0  0  0  0  0
    4.4963    3.2254    0.0000 H   0  0  0  0  0  0  0  0  0  0  0  0
    3.4766   -1.3368    0.0000 H   0  0  0  0  0  0  0  0  0  0  0  0
    3.0781   -0.6465    0.0000 H   0  0  0  0  0  0  0  0  0  0  0  0
    5.9538    5.2516    0.0000 H   0  0  0  0  0  0  0  0  0  0  0  0
    3.8769    4.9027    0.0000 H   0  0  0  0  0  0  0  0  0  0  0  0
    3.0013    4.8568    0.0000 H   0  0  0  0  0  0  0  0  0  0  0  0
    3.0472    3.9812    0.0000 H   0  0  0  0  0  0  0  0  0  0  0  0
   10.5319    0.2921    0.0000 H   0  0  0  0  0  0  0  0  0  0  0  0
   10.8252    3.0827    0.0000 H   0  0  0  0  0  0  0  0  0  0  0  0
    2.3291   -3.9191    0.0000 H   0  0  0  0  0  0  0  0  0  0  0  0
    5.1350   -3.9191    0.0000 H   0  0  0  0  0  0  0  0  0  0  0  0
    2.3100   -0.1922    0.0000 H   0  0  0  0  0  0  0  0  0  0  0  0
    1.4631   -0.4191    0.0000 H   0  0  0  0  0  0  0  0  0  0  0  0
    1.6900   -1.2660    0.0000 H   0  0  0  0  0  0  0  0  0  0  0  0
   12.1431    0.1228    0.0000 H   0  0  0  0  0  0  0  0  0  0  0  0
   12.4364    2.9133    0.0000 H   0  0  0  0  0  0  0  0  0  0  0  0
    2.3291   -5.5391    0.0000 H   0  0  0  0  0  0  0  0  0  0  0  0
    5.1350   -5.5391    0.0000 H   0  0  0  0  0  0  0  0  0  0  0  0
   13.0953    1.4334    0.0000 H   0  0  0  0  0  0  0  0  0  0  0  0
    3.7320   -6.3491    0.0000 H   0  0  0  0  0  0  0  0  0  0  0  0
 10  1  1  1  0  0  0
  1 17  1  0  0  0  0
  2 13  2  0  0  0  0
  3 15  2  0  0  0  0
  4 21  2  0  0  0  0
  5 28  2  0  0  0  0
  6  9  1  0  0  0  0
  6 12  1  0  0  0  0
  6 13  1  0  0  0  0
 14  7  1  6  0  0  0
  7 21  1  0  0  0  0
  7 49  1  0  0  0  0
  8 15  1  0  0  0  0
 20  8  1  1  0  0  0
  8 50  1  0  0  0  0
  9 11  1  0  0  0  0
  9 15  1  6  0  0  0
  9 41  1  0  0  0  0
 10 11  1  0  0  0  0
 10 12  1  0  0  0  0
 10 42  1  0  0  0  0
 11 43  1  0  0  0  0
 11 44  1  0  0  0  0
 12 45  1  0  0  0  0
 12 46  1  0  0  0  0
 13 14  1  0  0  0  0
 14 16  1  0  0  0  0
 14 47  1  0  0  0  0
 16 18  1  0  0  0  0
 16 19  1  0  0  0  0
 16 48  1  0  0  0  0
 17 24  1  0  0  0  0
 17 51  1  0  0  0  0
 17 52  1  0  0  0  0
 18 53  1  0  0  0  0
 18 54  1  0  0  0  0
 18 55  1  0  0  0  0
 19 56  1  0  0  0  0
 19 57  1  0  0  0  0
 19 58  1  0  0  0  0
 20 25  1  0  0  0  0
 20 28  1  0  0  0  0
 20 59  1  0  0  0  0
 21 22  1  0  0  0  0
 22 23  1  0  0  0  0
 22 26  1  0  0  0  0
 22 60  1  0  0  0  0
 23 27  1  0  0  0  0
 23 61  1  0  0  0  0
 23 62  1  0  0  0  0
 24 30  2  0  0  0  0
 24 31  1  0  0  0  0
 25 29  1  0  0  0  0
 25 63  1  0  0  0  0
 25 64  1  0  0  0  0
 26 32  2  0  0  0  0
 26 33  1  0  0  0  0
 27 34  1  0  0  0  0
 27 65  1  0  0  0  0
 27 66  1  0  0  0  0
 28 67  1  0  0  0  0
 29 68  1  0  0  0  0
 29 69  1  0  0  0  0
 29 70  1  0  0  0  0
 30 35  1  0  0  0  0
 30 71  1  0  0  0  0
 31 36  2  0  0  0  0
 31 72  1  0  0  0  0
 32 37  1  0  0  0  0
 32 73  1  0  0  0  0
 33 38  2  0  0  0  0
 33 74  1  0  0  0  0
 34 75  1  0  0  0  0
 34 76  1  0  0  0  0
 34 77  1  0  0  0  0
 35 39  2  0  0  0  0
 35 78  1  0  0  0  0
 36 39  1  0  0  0  0
 36 79  1  0  0  0  0
 37 40  2  0  0  0  0
 37 80  1  0  0  0  0
 38 40  1  0  0  0  0
 38 81  1  0  0  0  0
 39 82  1  0  0  0  0
 40 83  1  0  0  0  0
M  END
> <PUBCHEM_COMPOUND_CID>
506799
> <PUBCHEM_COMPOUND_CANONICALIZED>
1
> <PUBCHEM_CACTVS_COMPLEXITY>
821
> <PUBCHEM_CACTVS_HBOND_ACCEPTOR>
5
> <PUBCHEM_CACTVS_HBOND_DONOR>
2
> <PUBCHEM_CACTVS_ROTATABLE_BOND>
14
> <PUBCHEM_CACTVS_SUBSKEYS>
AAADcfB/OAAAAAAAAAAAAAAAAAAAAWAAAAAwYAAAAAAAAAABQAAAHgAQAAAADTzhmAYyAIPABACIAilSkAACAAAgAAAIiIGICIgKZjKAtTmXMAAm1gGYqAe6yeCOgAAAAAAAAAAAAAAAAAAAAAAAAAAAAA==
> <PUBCHEM_IUPAC_OPENEYE_NAME>
(2S,4R)-4-benzyloxy-N-[(1S)-1-formylpropyl]-1-[(2S)-3-methyl-2-(2-phenylpentanoylamino)butanoyl]pyrrolidine-2-carboxamide
> <PUBCHEM_IUPAC_CAS_NAME>
(2S,4R)-1-[(2S)-3-methyl-1-oxo-2-[(1-oxo-2-phenylpentyl)amino]butyl]-N-[(2S)-1-oxobutan-2-yl]-4-phenylmethoxy-2-pyrrolidinecarboxamide
> <PUBCHEM_IUPAC_NAME_MARKUP>
(2<I>S</I>,4<I>R</I>)-1-[(2<I>S</I>)-3-methyl-2-(2-phenylpentanoylamino)butanoyl]-<I>N</I>-[(2<I>S</I>)-1-oxobutan-2-yl]-4-phenylmethoxypyrrolidine-2-carboxamide
> <PUBCHEM_IUPAC_NAME>
(2S,4R)-1-[(2S)-3-methyl-2-(2-phenylpentanoylamino)butanoyl]-N-[(2S)-1-oxobutan-2-yl]-4-phenylmethoxypyrrolidine-2-carboxamide
> <PUBCHEM_IUPAC_SYSTEMATIC_NAME>
(2S,4R)-1-[(2S)-3-methyl-2-(2-phenylpentanoylamino)butanoyl]-N-[(2S)-1-oxidanylidenebutan-2-yl]-4-phenylmethoxy-pyrrolidine-2-carboxamide
> <PUBCHEM_IUPAC_TRADITIONAL_NAME>
(2S,4R)-4-benzoxy-N-[(1S)-1-formylpropyl]-1-[(2S)-3-methyl-2-(2-phenylpentanoylamino)butanoyl]pyrrolidine-2-carboxamide
> <PUBCHEM_IUPAC_INCHI>
InChI=1S/C32H43N3O5/c1-5-13-27(24-16-11-8-12-17-24)30(37)34-29(22(3)4)32(39)35-19-26(40-21-23-14-9-7-10-15-23)18-28(35)31(38)33-25(6-2)20-36/h7-12,14-17,20,22,25-29H,5-6,13,18-19,21H2,1-4H3,(H,33,38)(H,34,37)/t25-,26+,27?,28-,29-/m0/s1
> <PUBCHEM_IUPAC_INCHIKEY>
PGKWEZMOVMLSBD-HIJVPPOPSA-N
> <PUBCHEM_XLOGP3_AA>
4.9
> <PUBCHEM_EXACT_MASS>
549.32027148
> <PUBCHEM_MOLECULAR_FORMULA>
C32H43N3O5
> <PUBCHEM_MOLECULAR_WEIGHT>
549.7
> <PUBCHEM_OPENEYE_CAN_SMILES>
CCCC(C1=CC=CC=C1)C(=O)NC(C(C)C)C(=O)N2CC(CC2C(=O)NC(CC)C=O)OCC3=CC=CC=C3
> <PUBCHEM_OPENEYE_ISO_SMILES>
CCCC(C1=CC=CC=C1)C(=O)N[C@@H](C(C)C)C(=O)N2C[C@@H](C[C@H]2C(=O)N[C@@H](CC)C=O)OCC3=CC=CC=C3
> <PUBCHEM_CACTVS_TPSA>
105
> <PUBCHEM_MONOISOTOPIC_WEIGHT>
549.32027148
> <PUBCHEM_TOTAL_CHARGE>
0
> <PUBCHEM_HEAVY_ATOM_COUNT>
40
> <PUBCHEM_ATOM_DEF_STEREO_COUNT>
4
> <PUBCHEM_ATOM_UDEF_STEREO_COUNT>
1
> <PUBCHEM_BOND_DEF_STEREO_COUNT>
0
> <PUBCHEM_BOND_UDEF_STEREO_COUNT>
0
> <PUBCHEM_ISOTOPIC_ATOM_COUNT>
0
> <PUBCHEM_COMPONENT_COUNT>
1
> <PUBCHEM_CACTVS_TAUTO_COUNT>
-1
> <PUBCHEM_COORDINATE_TYPE>
1
5
255
> <PUBCHEM_BONDANNOTATIONS>
10  1  5
22  23  3
24  30  8
24  31  8
26  32  8
26  33  8
30  35  8
31  36  8
32  37  8
33  38  8
35  39  8
36  39  8
37  40  8
38  40  8
14  7  6
20  8  5
9  15  6
$$$$
