506733
  -OEChem-10302200282D
119119  0     1  0  0  0  0  0999 V2000
    2.8090    2.6692    0.0000 O   0  0  0  0  0  0  0  0  0  0  0  0
    9.7402   -0.5534    0.0000 O   0  0  0  0  0  0  0  0  0  0  0  0
   12.8013   -2.4586    0.0000 O   0  0  0  0  0  0  0  0  0  0  0  0
    8.7891   -0.2444    0.0000 O   0  0  0  0  0  0  0  0  0  0  0  0
   14.8228    0.5269    0.0000 O   0  0  0  0  0  0  0  0  0  0  0  0
   15.5659    1.1961    0.0000 O   0  0  0  0  0  0  0  0  0  0  0  0
    5.1928    0.0135    0.0000 O   0  0  0  0  0  0  0  0  0  0  0  0
    6.4712    2.3300    0.0000 O   0  0  0  0  0  0  0  0  0  0  0  0
   17.3486   -3.0255    0.0000 O   0  0  0  0  0  0  0  0  0  0  0  0
   17.8839   -1.3782    0.0000 O   0  0  0  0  0  0  0  0  0  0  0  0
   18.7464    2.8944    0.0000 O   0  0  0  0  0  0  0  0  0  0  0  0
   20.6486    2.2764    0.0000 O   0  0  0  0  0  0  0  0  0  0  0  0
   20.1133    0.6291    0.0000 O   0  0  0  0  0  0  0  0  0  0  0  0
   11.6423   -1.1714    0.0000 N   0  0  0  0  0  0  0  0  0  0  0  0
    9.2050   -2.2007    0.0000 N   0  0  0  0  0  0  0  0  0  0  0  0
   14.2876   -1.1203    0.0000 N   0  0  0  0  0  0  0  0  0  0  0  0
    7.0949   -0.6045    0.0000 N   0  0  0  0  0  0  0  0  0  0  0  0
    4.7770    1.9698    0.0000 N   0  0  0  0  0  0  0  0  0  0  0  0
   17.0522    2.5343    0.0000 N   0  0  0  0  0  0  0  0  0  0  0  0
   10.8992   -1.8406    0.0000 C   0  0  1  0  0  0  0  0  0  0  0  0
   13.3365   -0.8113    0.0000 C   0  0  1  0  0  0  0  0  0  0  0  0
   11.1071   -2.8187    0.0000 C   0  0  0  0  0  0  0  0  0  0  0  0
    8.2539   -1.8916    0.0000 C   0  0  1  0  0  0  0  0  0  0  0  0
   13.1286    0.1668    0.0000 C   0  0  0  0  0  0  0  0  0  0  0  0
    3.6180    3.2570    0.0000 C   0  0  3  0  0  0  0  0  0  0  0  0
    7.5108   -2.5608    0.0000 C   0  0  0  0  0  0  0  0  0  0  0  0
    3.3090    4.2081    0.0000 C   0  0  0  0  0  0  0  0  0  0  0  0
    7.7187   -3.5389    0.0000 C   0  0  0  0  0  0  0  0  0  0  0  0
    9.9481   -1.5315    0.0000 C   0  0  0  0  0  0  0  0  0  0  0  0
    2.3090    4.2081    0.0000 C   0  0  0  0  0  0  0  0  0  0  0  0
   12.5934   -1.4804    0.0000 C   0  0  0  0  0  0  0  0  0  0  0  0
   15.9818   -0.7602    0.0000 C   0  0  2  0  0  0  0  0  0  0  0  0
    2.0000    3.2570    0.0000 C   0  0  0  0  0  0  0  0  0  0  0  0
    4.5691    2.9480    0.0000 C   0  0  0  0  0  0  0  0  0  0  0  0
    8.0460   -0.9135    0.0000 C   0  0  0  0  0  0  0  0  0  0  0  0
   15.0307   -0.4512    0.0000 C   0  0  0  0  0  0  0  0  0  0  0  0
   16.7249   -0.0911    0.0000 C   0  0  0  0  0  0  0  0  0  0  0  0
   12.0581   -3.1277    0.0000 C   0  0  0  0  0  0  0  0  0  0  0  0
   10.3639   -3.4878    0.0000 C   0  0  0  0  0  0  0  0  0  0  0  0
   13.8717    0.8360    0.0000 C   0  0  0  0  0  0  0  0  0  0  0  0
   12.1775    0.4759    0.0000 C   0  0  0  0  0  0  0  0  0  0  0  0
    6.8870    0.3737    0.0000 C   0  0  1  0  0  0  0  0  0  0  0  0
   16.1897   -1.7384    0.0000 C   0  0  0  0  0  0  0  0  0  0  0  0
    6.9755   -4.2081    0.0000 C   0  0  0  0  0  0  0  0  0  0  0  0
    8.6697   -3.8480    0.0000 C   0  0  0  0  0  0  0  0  0  0  0  0
   17.2601    1.5562    0.0000 C   0  0  2  0  0  0  0  0  0  0  0  0
   16.5170    0.8871    0.0000 C   0  0  0  0  0  0  0  0  0  0  0  0
    7.6302    1.0428    0.0000 C   0  0  0  0  0  0  0  0  0  0  0  0
    5.9360    0.6827    0.0000 C   0  0  0  0  0  0  0  0  0  0  0  0
   18.2112    1.2472    0.0000 C   0  0  0  0  0  0  0  0  0  0  0  0
    5.7281    1.6608    0.0000 C   0  0  0  0  0  0  0  0  0  0  0  0
   17.1407   -2.0474    0.0000 C   0  0  0  0  0  0  0  0  0  0  0  0
   18.9543    1.9163    0.0000 C   0  0  0  0  0  0  0  0  0  0  0  0
    8.5812    0.7338    0.0000 C   0  0  0  0  0  0  0  0  0  0  0  0
   17.7954    3.2035    0.0000 C   0  0  0  0  0  0  0  0  0  0  0  0
   19.9054    1.6073    0.0000 C   0  0  0  0  0  0  0  0  0  0  0  0
   17.5875    4.1816    0.0000 C   0  0  0  0  0  0  0  0  0  0  0  0
   10.7703   -1.2341    0.0000 H   0  0  0  0  0  0  0  0  0  0  0  0
   13.4654   -1.4178    0.0000 H   0  0  0  0  0  0  0  0  0  0  0  0
   11.5678   -2.4038    0.0000 H   0  0  0  0  0  0  0  0  0  0  0  0
    8.7147   -1.4768    0.0000 H   0  0  0  0  0  0  0  0  0  0  0  0
   12.9997    0.7733    0.0000 H   0  0  0  0  0  0  0  0  0  0  0  0
    3.7150    2.6446    0.0000 H   0  0  0  0  0  0  0  0  0  0  0  0
    7.1822   -2.0350    0.0000 H   0  0  0  0  0  0  0  0  0  0  0  0
    6.9359   -2.7930    0.0000 H   0  0  0  0  0  0  0  0  0  0  0  0
    3.9155    4.3370    0.0000 H   0  0  0  0  0  0  0  0  0  0  0  0
    3.2442    4.8247    0.0000 H   0  0  0  0  0  0  0  0  0  0  0  0
    7.1290   -3.3473    0.0000 H   0  0  0  0  0  0  0  0  0  0  0  0
   11.5134   -0.5650    0.0000 H   0  0  0  0  0  0  0  0  0  0  0  0
    2.3738    4.8247    0.0000 H   0  0  0  0  0  0  0  0  0  0  0  0
    1.7026    4.3370    0.0000 H   0  0  0  0  0  0  0  0  0  0  0  0
   16.5714   -0.9518    0.0000 H   0  0  0  0  0  0  0  0  0  0  0  0
    9.3339   -2.8071    0.0000 H   0  0  0  0  0  0  0  0  0  0  0  0
   14.4165   -1.7268    0.0000 H   0  0  0  0  0  0  0  0  0  0  0  0
    1.4336    3.5092    0.0000 H   0  0  0  0  0  0  0  0  0  0  0  0
    1.6900    2.7201    0.0000 H   0  0  0  0  0  0  0  0  0  0  0  0
    5.1887    2.9696    0.0000 H   0  0  0  0  0  0  0  0  0  0  0  0
    4.6554    3.5620    0.0000 H   0  0  0  0  0  0  0  0  0  0  0  0
   17.0535   -0.6169    0.0000 H   0  0  0  0  0  0  0  0  0  0  0  0
   17.2998    0.1412    0.0000 H   0  0  0  0  0  0  0  0  0  0  0  0
   11.8665   -3.7174    0.0000 H   0  0  0  0  0  0  0  0  0  0  0  0
   12.6478   -3.3193    0.0000 H   0  0  0  0  0  0  0  0  0  0  0  0
   12.2497   -2.5381    0.0000 H   0  0  0  0  0  0  0  0  0  0  0  0
    9.9491   -3.0271    0.0000 H   0  0  0  0  0  0  0  0  0  0  0  0
    9.9032   -3.9027    0.0000 H   0  0  0  0  0  0  0  0  0  0  0  0
   10.7788   -3.9486    0.0000 H   0  0  0  0  0  0  0  0  0  0  0  0
   14.2866    0.3752    0.0000 H   0  0  0  0  0  0  0  0  0  0  0  0
   14.3325    1.2508    0.0000 H   0  0  0  0  0  0  0  0  0  0  0  0
   13.4569    1.2967    0.0000 H   0  0  0  0  0  0  0  0  0  0  0  0
   12.3691    1.0655    0.0000 H   0  0  0  0  0  0  0  0  0  0  0  0
   11.5879    0.6674    0.0000 H   0  0  0  0  0  0  0  0  0  0  0  0
   11.9860   -0.1138    0.0000 H   0  0  0  0  0  0  0  0  0  0  0  0
    6.4263   -0.0412    0.0000 H   0  0  0  0  0  0  0  0  0  0  0  0
   15.5701   -1.7600    0.0000 H   0  0  0  0  0  0  0  0  0  0  0  0
   16.1034   -2.3523    0.0000 H   0  0  0  0  0  0  0  0  0  0  0  0
    6.5607   -3.7473    0.0000 H   0  0  0  0  0  0  0  0  0  0  0  0
    6.5148   -4.6229    0.0000 H   0  0  0  0  0  0  0  0  0  0  0  0
    7.3904   -4.6688    0.0000 H   0  0  0  0  0  0  0  0  0  0  0  0
    8.4781   -4.4376    0.0000 H   0  0  0  0  0  0  0  0  0  0  0  0
    9.2594   -4.0395    0.0000 H   0  0  0  0  0  0  0  0  0  0  0  0
    8.8613   -3.2583    0.0000 H   0  0  0  0  0  0  0  0  0  0  0  0
    6.6342   -1.0194    0.0000 H   0  0  0  0  0  0  0  0  0  0  0  0
   17.7209    1.9710    0.0000 H   0  0  0  0  0  0  0  0  0  0  0  0
    4.3162    1.5550    0.0000 H   0  0  0  0  0  0  0  0  0  0  0  0
    7.9212    1.5902    0.0000 H   0  0  0  0  0  0  0  0  0  0  0  0
    7.1416    1.4245    0.0000 H   0  0  0  0  0  0  0  0  0  0  0  0
   17.9201    0.6997    0.0000 H   0  0  0  0  0  0  0  0  0  0  0  0
   18.6998    0.8655    0.0000 H   0  0  0  0  0  0  0  0  0  0  0  0
   16.4626    2.7259    0.0000 H   0  0  0  0  0  0  0  0  0  0  0  0
   19.2454    2.4637    0.0000 H   0  0  0  0  0  0  0  0  0  0  0  0
   18.4658    2.2980    0.0000 H   0  0  0  0  0  0  0  0  0  0  0  0
    8.3896    0.1441    0.0000 H   0  0  0  0  0  0  0  0  0  0  0  0
    9.1709    0.5422    0.0000 H   0  0  0  0  0  0  0  0  0  0  0  0
    8.7728    1.3234    0.0000 H   0  0  0  0  0  0  0  0  0  0  0  0
   17.9383   -3.2171    0.0000 H   0  0  0  0  0  0  0  0  0  0  0  0
   18.1939    4.3105    0.0000 H   0  0  0  0  0  0  0  0  0  0  0  0
   17.4586    4.7881    0.0000 H   0  0  0  0  0  0  0  0  0  0  0  0
   16.9810    4.0527    0.0000 H   0  0  0  0  0  0  0  0  0  0  0  0
   21.2382    2.0848    0.0000 H   0  0  0  0  0  0  0  0  0  0  0  0
  1 25  1  0  0  0  0
  1 33  1  0  0  0  0
  2 29  2  0  0  0  0
  3 31  2  0  0  0  0
  4 35  2  0  0  0  0
  5 36  2  0  0  0  0
  6 47  2  0  0  0  0
  7 49  2  0  0  0  0
  8 51  2  0  0  0  0
  9 52  1  0  0  0  0
  9115  1  0  0  0  0
 10 52  2  0  0  0  0
 11 55  2  0  0  0  0
 12 56  1  0  0  0  0
 12119  1  0  0  0  0
 13 56  2  0  0  0  0
 20 14  1  1  0  0  0
 14 31  1  0  0  0  0
 14 69  1  0  0  0  0
 23 15  1  1  0  0  0
 15 29  1  0  0  0  0
 15 73  1  0  0  0  0
 21 16  1  6  0  0  0
 16 36  1  0  0  0  0
 16 74  1  0  0  0  0
 17 35  1  0  0  0  0
 42 17  1  6  0  0  0
 17102  1  0  0  0  0
 18 34  1  0  0  0  0
 18 51  1  0  0  0  0
 18104  1  0  0  0  0
 46 19  1  1  0  0  0
 19 55  1  0  0  0  0
 19109  1  0  0  0  0
 20 22  1  0  0  0  0
 20 29  1  0  0  0  0
 20 58  1  0  0  0  0
 21 24  1  0  0  0  0
 21 31  1  0  0  0  0
 21 59  1  0  0  0  0
 22 38  1  0  0  0  0
 22 39  1  0  0  0  0
 22 60  1  0  0  0  0
 23 26  1  0  0  0  0
 23 35  1  0  0  0  0
 23 61  1  0  0  0  0
 24 40  1  0  0  0  0
 24 41  1  0  0  0  0
 24 62  1  0  0  0  0
 25 27  1  0  0  0  0
 25 34  1  0  0  0  0
 25 63  1  0  0  0  0
 26 28  1  0  0  0  0
 26 64  1  0  0  0  0
 26 65  1  0  0  0  0
 27 30  1  0  0  0  0
 27 66  1  0  0  0  0
 27 67  1  0  0  0  0
 28 44  1  0  0  0  0
 28 45  1  0  0  0  0
 28 68  1  0  0  0  0
 30 33  1  0  0  0  0
 30 70  1  0  0  0  0
 30 71  1  0  0  0  0
 32 36  1  0  0  0  0
 32 37  1  0  0  0  0
 32 43  1  6  0  0  0
 32 72  1  0  0  0  0
 33 75  1  0  0  0  0
 33 76  1  0  0  0  0
 34 77  1  0  0  0  0
 34 78  1  0  0  0  0
 37 47  1  0  0  0  0
 37 79  1  0  0  0  0
 37 80  1  0  0  0  0
 38 81  1  0  0  0  0
 38 82  1  0  0  0  0
 38 83  1  0  0  0  0
 39 84  1  0  0  0  0
 39 85  1  0  0  0  0
 39 86  1  0  0  0  0
 40 87  1  0  0  0  0
 40 88  1  0  0  0  0
 40 89  1  0  0  0  0
 41 90  1  0  0  0  0
 41 91  1  0  0  0  0
 41 92  1  0  0  0  0
 42 48  1  0  0  0  0
 42 49  1  0  0  0  0
 42 93  1  0  0  0  0
 43 52  1  0  0  0  0
 43 94  1  0  0  0  0
 43 95  1  0  0  0  0
 44 96  1  0  0  0  0
 44 97  1  0  0  0  0
 44 98  1  0  0  0  0
 45 99  1  0  0  0  0
 45100  1  0  0  0  0
 45101  1  0  0  0  0
 46 47  1  0  0  0  0
 46 50  1  0  0  0  0
 46103  1  0  0  0  0
 48 54  1  0  0  0  0
 48105  1  0  0  0  0
 48106  1  0  0  0  0
 49 51  1  0  0  0  0
 50 53  1  0  0  0  0
 50107  1  0  0  0  0
 50108  1  0  0  0  0
 53 56  1  0  0  0  0
 53110  1  0  0  0  0
 53111  1  0  0  0  0
 54112  1  0  0  0  0
 54113  1  0  0  0  0
 54114  1  0  0  0  0
 55 57  1  0  0  0  0
 57116  1  0  0  0  0
 57117  1  0  0  0  0
 57118  1  0  0  0  0
M  END
> <PUBCHEM_COMPOUND_CID>
506733
> <PUBCHEM_COMPOUND_CANONICALIZED>
1
> <PUBCHEM_CACTVS_COMPLEXITY>
1470
> <PUBCHEM_CACTVS_HBOND_ACCEPTOR>
13
> <PUBCHEM_CACTVS_HBOND_DONOR>
8
> <PUBCHEM_CACTVS_ROTATABLE_BOND>
26
> <PUBCHEM_CACTVS_SUBSKEYS>
AAADcfB/vAAAAAAAAAAAAAAAAAAAASAAAAAAAAAAAAAAAAAAAAAAHgAQCAAADTzhgAYCCALABgAIAIGQGAAAAAAAAAAAAIGIAAACQBoAwCAXQAAEFgCQAAG/3+K+AAAAAAAAAAAAAAAAAAAAAAAAAAAAAA==
> <PUBCHEM_IUPAC_OPENEYE_NAME>
(3R,6S)-6-acetamido-3-[[(1S)-1-[[(1S)-1-[[(1S)-1-[[(1S)-1-ethyl-2,3-dioxo-3-(tetrahydrofuran-2-ylmethylamino)propyl]carbamoyl]-3-methyl-butyl]carbamoyl]-2-methyl-propyl]carbamoyl]-2-methyl-propyl]carbamoyl]-5-oxo-nonanedioic acid
> <PUBCHEM_IUPAC_CAS_NAME>
(3R,6S)-6-acetamido-3-[[[(2S)-1-[[(2S)-1-[[(2S)-1-[[(3S)-1,2-dioxo-1-(2-oxolanylmethylamino)pentan-3-yl]amino]-4-methyl-1-oxopentan-2-yl]amino]-3-methyl-1-oxobutan-2-yl]amino]-3-methyl-1-oxobutan-2-yl]amino]-oxomethyl]-5-oxononanedioic acid
> <PUBCHEM_IUPAC_NAME_MARKUP>
(3<I>R</I>,6<I>S</I>)-6-acetamido-3-[[(2<I>S</I>)-1-[[(2<I>S</I>)-1-[[(2<I>S</I>)-1-[[(3<I>S</I>)-1,2-dioxo-1-(oxolan-2-ylmethylamino)pentan-3-yl]amino]-4-methyl-1-oxopentan-2-yl]amino]-3-methyl-1-oxobutan-2-yl]amino]-3-methyl-1-oxobutan-2-yl]carbamoyl]-5-oxononanedioic acid
> <PUBCHEM_IUPAC_NAME>
(3R,6S)-6-acetamido-3-[[(2S)-1-[[(2S)-1-[[(2S)-1-[[(3S)-1,2-dioxo-1-(oxolan-2-ylmethylamino)pentan-3-yl]amino]-4-methyl-1-oxopentan-2-yl]amino]-3-methyl-1-oxobutan-2-yl]amino]-3-methyl-1-oxobutan-2-yl]carbamoyl]-5-oxononanedioic acid
> <PUBCHEM_IUPAC_SYSTEMATIC_NAME>
(3R,6S)-6-acetamido-3-[[(2S)-1-[[(2S)-1-[[(2S)-1-[[(3S)-1,2-bis(oxidanylidene)-1-(oxolan-2-ylmethylamino)pentan-3-yl]amino]-4-methyl-1-oxidanylidene-pentan-2-yl]amino]-3-methyl-1-oxidanylidene-butan-2-yl]amino]-3-methyl-1-oxidanylidene-butan-2-yl]carbamoyl]-5-oxidanylidene-nonanedioic acid
> <PUBCHEM_IUPAC_TRADITIONAL_NAME>
(3R,6S)-6-acetamido-3-[[(1S)-1-[[(1S)-1-[[(1S)-1-[[(1S)-1-ethyl-2,3-diketo-3-(tetrahydrofurfurylamino)propyl]carbamoyl]-3-methyl-butyl]carbamoyl]-2-methyl-propyl]carbamoyl]-2-methyl-propyl]carbamoyl]-5-keto-azelaic acid
> <PUBCHEM_IUPAC_INCHI>
InChI=1S/C38H62N6O13/c1-9-25(33(51)38(56)39-18-24-11-10-14-57-24)41-35(53)27(15-19(2)3)42-36(54)31(20(4)5)44-37(55)32(21(6)7)43-34(52)23(17-30(49)50)16-28(46)26(40-22(8)45)12-13-29(47)48/h19-21,23-27,31-32H,9-18H2,1-8H3,(H,39,56)(H,40,45)(H,41,53)(H,42,54)(H,43,52)(H,44,55)(H,47,48)(H,49,50)/t23-,24?,25+,26+,27+,31+,32+/m1/s1
> <PUBCHEM_IUPAC_INCHIKEY>
FPJVNWUEXQULQG-CWNLMNDASA-N
> <PUBCHEM_XLOGP3_AA>
0.9
> <PUBCHEM_EXACT_MASS>
810.43748605
> <PUBCHEM_MOLECULAR_FORMULA>
C38H62N6O13
> <PUBCHEM_MOLECULAR_WEIGHT>
810.9
> <PUBCHEM_OPENEYE_CAN_SMILES>
CCC(C(=O)C(=O)NCC1CCCO1)NC(=O)C(CC(C)C)NC(=O)C(C(C)C)NC(=O)C(C(C)C)NC(=O)C(CC(=O)C(CCC(=O)O)NC(=O)C)CC(=O)O
> <PUBCHEM_OPENEYE_ISO_SMILES>
CC[C@@H](C(=O)C(=O)NCC1CCCO1)NC(=O)[C@H](CC(C)C)NC(=O)[C@H](C(C)C)NC(=O)[C@H](C(C)C)NC(=O)[C@H](CC(=O)[C@H](CCC(=O)O)NC(=O)C)CC(=O)O
> <PUBCHEM_CACTVS_TPSA>
293
> <PUBCHEM_MONOISOTOPIC_WEIGHT>
810.43748605
> <PUBCHEM_TOTAL_CHARGE>
0
> <PUBCHEM_HEAVY_ATOM_COUNT>
57
> <PUBCHEM_ATOM_DEF_STEREO_COUNT>
6
> <PUBCHEM_ATOM_UDEF_STEREO_COUNT>
1
> <PUBCHEM_BOND_DEF_STEREO_COUNT>
0
> <PUBCHEM_BOND_UDEF_STEREO_COUNT>
0
> <PUBCHEM_ISOTOPIC_ATOM_COUNT>
0
> <PUBCHEM_COMPONENT_COUNT>
1
> <PUBCHEM_CACTVS_TAUTO_COUNT>
-1
> <PUBCHEM_COORDINATE_TYPE>
1
5
255
> <PUBCHEM_BONDANNOTATIONS>
20  14  5
23  15  5
21  16  6
42  17  6
46  19  5
25  34  3
32  43  6
$$$$
