506729
  -OEChem-10302200282D
121121  0     1  0  0  0  0  0999 V2000
   10.6603    4.3450    0.0000 O   0  0  0  0  0  0  0  0  0  0  0  0
    8.0622    1.8450    0.0000 O   0  0  0  0  0  0  0  0  0  0  0  0
   13.2583    1.8450    0.0000 O   0  0  0  0  0  0  0  0  0  0  0  0
    7.1962    1.3450    0.0000 O   0  0  0  0  0  0  0  0  0  0  0  0
   14.1244    1.3450    0.0000 O   0  0  0  0  0  0  0  0  0  0  0  0
   14.9904    5.8450    0.0000 O   0  0  0  0  0  0  0  0  0  0  0  0
   15.8564    4.3450    0.0000 O   0  0  0  0  0  0  0  0  0  0  0  0
    3.7320    0.3450    0.0000 O   0  0  0  0  0  0  0  0  0  0  0  0
   17.5885    0.3450    0.0000 O   0  0  0  0  0  0  0  0  0  0  0  0
   19.3205    1.3450    0.0000 O   0  0  0  0  0  0  0  0  0  0  0  0
    5.4641   -1.6550    0.0000 O   0  0  0  0  0  0  0  0  0  0  0  0
   18.4545    2.8450    0.0000 O   0  0  0  0  0  0  0  0  0  0  0  0
    9.7942    2.8450    0.0000 N   0  0  0  0  0  0  0  0  0  0  0  0
    7.1962    3.3450    0.0000 N   0  0  0  0  0  0  0  0  0  0  0  0
   12.3923    3.3450    0.0000 N   0  0  0  0  0  0  0  0  0  0  0  0
    5.4641    1.3450    0.0000 N   0  0  0  0  0  0  0  0  0  0  0  0
   15.8564    0.3450    0.0000 N   0  0  0  0  0  0  0  0  0  0  0  0
    3.7320   -1.6550    0.0000 N   0  0  0  0  0  0  0  0  0  0  0  0
    8.9282    3.3450    0.0000 C   0  0  1  0  0  0  0  0  0  0  0  0
   11.5263    2.8450    0.0000 C   0  0  1  0  0  0  0  0  0  0  0  0
    8.9282    4.3450    0.0000 C   0  0  0  0  0  0  0  0  0  0  0  0
   11.5263    1.8450    0.0000 C   0  0  0  0  0  0  0  0  0  0  0  0
    6.3301    2.8450    0.0000 C   0  0  1  0  0  0  0  0  0  0  0  0
    5.4641    3.3450    0.0000 C   0  0  0  0  0  0  0  0  0  0  0  0
   10.6603    3.3450    0.0000 C   0  0  0  0  0  0  0  0  0  0  0  0
    5.4641    4.3450    0.0000 C   0  0  0  0  0  0  0  0  0  0  0  0
    8.0622    2.8450    0.0000 C   0  0  0  0  0  0  0  0  0  0  0  0
   14.1244    3.3450    0.0000 C   0  0  1  0  0  0  0  0  0  0  0  0
   13.2583    2.8450    0.0000 C   0  0  0  0  0  0  0  0  0  0  0  0
   14.9904    2.8450    0.0000 C   0  0  0  0  0  0  0  0  0  0  0  0
    9.7942    4.8450    0.0000 C   0  0  0  0  0  0  0  0  0  0  0  0
    8.0622    4.8450    0.0000 C   0  0  0  0  0  0  0  0  0  0  0  0
   12.3923    1.3450    0.0000 C   0  0  0  0  0  0  0  0  0  0  0  0
   10.6603    1.3450    0.0000 C   0  0  0  0  0  0  0  0  0  0  0  0
    6.3301    1.8450    0.0000 C   0  0  0  0  0  0  0  0  0  0  0  0
   14.1244    4.3450    0.0000 C   0  0  0  0  0  0  0  0  0  0  0  0
    4.5981    4.8450    0.0000 C   0  0  0  0  0  0  0  0  0  0  0  0
    6.3301    4.8450    0.0000 C   0  0  0  0  0  0  0  0  0  0  0  0
   15.8564    1.3450    0.0000 C   0  0  2  0  0  0  0  0  0  0  0  0
   14.9904    1.8450    0.0000 C   0  0  0  0  0  0  0  0  0  0  0  0
    5.4641    0.3450    0.0000 C   0  0  1  0  0  0  0  0  0  0  0  0
   16.7224    1.8450    0.0000 C   0  0  0  0  0  0  0  0  0  0  0  0
    6.3301   -0.1550    0.0000 C   0  0  0  0  0  0  0  0  0  0  0  0
   14.9904    4.8450    0.0000 C   0  0  0  0  0  0  0  0  0  0  0  0
   17.5885    1.3450    0.0000 C   0  0  0  0  0  0  0  0  0  0  0  0
    4.5981   -0.1550    0.0000 C   0  0  0  0  0  0  0  0  0  0  0  0
    7.1962    0.3450    0.0000 C   0  0  0  0  0  0  0  0  0  0  0  0
   16.7224   -0.1550    0.0000 C   0  0  0  0  0  0  0  0  0  0  0  0
    4.5981   -1.1550    0.0000 C   0  0  0  0  0  0  0  0  0  0  0  0
   18.4545    1.8450    0.0000 C   0  0  0  0  0  0  0  0  0  0  0  0
   16.7224   -1.1550    0.0000 C   0  0  0  0  0  0  0  0  0  0  0  0
    3.7320   -2.6550    0.0000 C   0  0  0  0  0  0  0  0  0  0  0  0
    2.8660   -3.1550    0.0000 C   0  0  0  0  0  0  0  0  0  0  0  0
    2.8660   -4.1550    0.0000 C   0  0  0  0  0  0  0  0  0  0  0  0
    3.7320   -4.6550    0.0000 C   0  0  0  0  0  0  0  0  0  0  0  0
    2.0000   -4.6550    0.0000 C   0  0  0  0  0  0  0  0  0  0  0  0
    3.7320   -5.6550    0.0000 C   0  0  0  0  0  0  0  0  0  0  0  0
    2.0000   -5.6550    0.0000 C   0  0  0  0  0  0  0  0  0  0  0  0
    2.8660   -6.1550    0.0000 C   0  0  0  0  0  0  0  0  0  0  0  0
    8.9282    2.7250    0.0000 H   0  0  0  0  0  0  0  0  0  0  0  0
   11.5263    3.4650    0.0000 H   0  0  0  0  0  0  0  0  0  0  0  0
    9.4651    4.0350    0.0000 H   0  0  0  0  0  0  0  0  0  0  0  0
   12.0632    2.1550    0.0000 H   0  0  0  0  0  0  0  0  0  0  0  0
    6.8671    2.5350    0.0000 H   0  0  0  0  0  0  0  0  0  0  0  0
    4.8535    3.4527    0.0000 H   0  0  0  0  0  0  0  0  0  0  0  0
    5.2520    2.7624    0.0000 H   0  0  0  0  0  0  0  0  0  0  0  0
    9.7942    2.2250    0.0000 H   0  0  0  0  0  0  0  0  0  0  0  0
    5.4641    4.9650    0.0000 H   0  0  0  0  0  0  0  0  0  0  0  0
   13.5874    3.6550    0.0000 H   0  0  0  0  0  0  0  0  0  0  0  0
    7.1962    3.9650    0.0000 H   0  0  0  0  0  0  0  0  0  0  0  0
   12.3923    3.9650    0.0000 H   0  0  0  0  0  0  0  0  0  0  0  0
   15.6010    2.7373    0.0000 H   0  0  0  0  0  0  0  0  0  0  0  0
   15.2024    3.4276    0.0000 H   0  0  0  0  0  0  0  0  0  0  0  0
   10.1042    4.3081    0.0000 H   0  0  0  0  0  0  0  0  0  0  0  0
   10.3312    5.1550    0.0000 H   0  0  0  0  0  0  0  0  0  0  0  0
    9.4842    5.3819    0.0000 H   0  0  0  0  0  0  0  0  0  0  0  0
    8.3722    5.3819    0.0000 H   0  0  0  0  0  0  0  0  0  0  0  0
    7.5252    5.1550    0.0000 H   0  0  0  0  0  0  0  0  0  0  0  0
    7.7522    4.3081    0.0000 H   0  0  0  0  0  0  0  0  0  0  0  0
   12.0823    0.8081    0.0000 H   0  0  0  0  0  0  0  0  0  0  0  0
   12.9292    1.0350    0.0000 H   0  0  0  0  0  0  0  0  0  0  0  0
   12.7023    1.8819    0.0000 H   0  0  0  0  0  0  0  0  0  0  0  0
   10.3503    1.8819    0.0000 H   0  0  0  0  0  0  0  0  0  0  0  0
   10.1233    1.0350    0.0000 H   0  0  0  0  0  0  0  0  0  0  0  0
   10.9703    0.8081    0.0000 H   0  0  0  0  0  0  0  0  0  0  0  0
   13.9123    4.9276    0.0000 H   0  0  0  0  0  0  0  0  0  0  0  0
   13.5138    4.2373    0.0000 H   0  0  0  0  0  0  0  0  0  0  0  0
   16.3933    1.0350    0.0000 H   0  0  0  0  0  0  0  0  0  0  0  0
    4.9081    5.3819    0.0000 H   0  0  0  0  0  0  0  0  0  0  0  0
    4.0611    5.1550    0.0000 H   0  0  0  0  0  0  0  0  0  0  0  0
    4.2881    4.3081    0.0000 H   0  0  0  0  0  0  0  0  0  0  0  0
    6.6401    4.3081    0.0000 H   0  0  0  0  0  0  0  0  0  0  0  0
    6.8671    5.1550    0.0000 H   0  0  0  0  0  0  0  0  0  0  0  0
    6.0201    5.3819    0.0000 H   0  0  0  0  0  0  0  0  0  0  0  0
    4.9272    1.6550    0.0000 H   0  0  0  0  0  0  0  0  0  0  0  0
    6.0010    0.6550    0.0000 H   0  0  0  0  0  0  0  0  0  0  0  0
   17.1210    2.3200    0.0000 H   0  0  0  0  0  0  0  0  0  0  0  0
   16.3239    2.3200    0.0000 H   0  0  0  0  0  0  0  0  0  0  0  0
    5.9316   -0.6299    0.0000 H   0  0  0  0  0  0  0  0  0  0  0  0
    6.7287   -0.6299    0.0000 H   0  0  0  0  0  0  0  0  0  0  0  0
   15.3195    0.0350    0.0000 H   0  0  0  0  0  0  0  0  0  0  0  0
   17.1899    0.8701    0.0000 H   0  0  0  0  0  0  0  0  0  0  0  0
   17.9870    0.8701    0.0000 H   0  0  0  0  0  0  0  0  0  0  0  0
    7.5062   -0.1919    0.0000 H   0  0  0  0  0  0  0  0  0  0  0  0
    7.7331    0.6550    0.0000 H   0  0  0  0  0  0  0  0  0  0  0  0
    6.8862    0.8819    0.0000 H   0  0  0  0  0  0  0  0  0  0  0  0
   15.5273    6.1550    0.0000 H   0  0  0  0  0  0  0  0  0  0  0  0
   16.1024   -1.1550    0.0000 H   0  0  0  0  0  0  0  0  0  0  0  0
   16.7224   -1.7750    0.0000 H   0  0  0  0  0  0  0  0  0  0  0  0
   17.3424   -1.1550    0.0000 H   0  0  0  0  0  0  0  0  0  0  0  0
    3.1951   -1.3450    0.0000 H   0  0  0  0  0  0  0  0  0  0  0  0
    3.9441   -3.2376    0.0000 H   0  0  0  0  0  0  0  0  0  0  0  0
    4.3426   -2.5473    0.0000 H   0  0  0  0  0  0  0  0  0  0  0  0
    2.6540   -2.5724    0.0000 H   0  0  0  0  0  0  0  0  0  0  0  0
    2.2554   -3.2627    0.0000 H   0  0  0  0  0  0  0  0  0  0  0  0
   19.8574    1.6550    0.0000 H   0  0  0  0  0  0  0  0  0  0  0  0
    4.2690   -4.3450    0.0000 H   0  0  0  0  0  0  0  0  0  0  0  0
    1.4631   -4.3450    0.0000 H   0  0  0  0  0  0  0  0  0  0  0  0
    4.2690   -5.9650    0.0000 H   0  0  0  0  0  0  0  0  0  0  0  0
    1.4631   -5.9650    0.0000 H   0  0  0  0  0  0  0  0  0  0  0  0
    2.8660   -6.7750    0.0000 H   0  0  0  0  0  0  0  0  0  0  0  0
  1 25  2  0  0  0  0
  2 27  2  0  0  0  0
  3 29  2  0  0  0  0
  4 35  2  0  0  0  0
  5 40  2  0  0  0  0
  6 44  1  0  0  0  0
  6107  1  0  0  0  0
  7 44  2  0  0  0  0
  8 46  2  0  0  0  0
  9 48  2  0  0  0  0
 10 50  1  0  0  0  0
 10116  1  0  0  0  0
 11 49  2  0  0  0  0
 12 50  2  0  0  0  0
 19 13  1  6  0  0  0
 13 25  1  0  0  0  0
 13 67  1  0  0  0  0
 23 14  1  6  0  0  0
 14 27  1  0  0  0  0
 14 70  1  0  0  0  0
 20 15  1  1  0  0  0
 15 29  1  0  0  0  0
 15 71  1  0  0  0  0
 16 35  1  0  0  0  0
 41 16  1  1  0  0  0
 16 95  1  0  0  0  0
 39 17  1  6  0  0  0
 17 48  1  0  0  0  0
 17101  1  0  0  0  0
 18 49  1  0  0  0  0
 18 52  1  0  0  0  0
 18111  1  0  0  0  0
 19 21  1  0  0  0  0
 19 27  1  0  0  0  0
 19 60  1  0  0  0  0
 20 22  1  0  0  0  0
 20 25  1  0  0  0  0
 20 61  1  0  0  0  0
 21 31  1  0  0  0  0
 21 32  1  0  0  0  0
 21 62  1  0  0  0  0
 22 33  1  0  0  0  0
 22 34  1  0  0  0  0
 22 63  1  0  0  0  0
 23 24  1  0  0  0  0
 23 35  1  0  0  0  0
 23 64  1  0  0  0  0
 24 26  1  0  0  0  0
 24 65  1  0  0  0  0
 24 66  1  0  0  0  0
 26 37  1  0  0  0  0
 26 38  1  0  0  0  0
 26 68  1  0  0  0  0
 28 29  1  0  0  0  0
 28 30  1  0  0  0  0
 28 36  1  6  0  0  0
 28 69  1  0  0  0  0
 30 40  1  0  0  0  0
 30 72  1  0  0  0  0
 30 73  1  0  0  0  0
 31 74  1  0  0  0  0
 31 75  1  0  0  0  0
 31 76  1  0  0  0  0
 32 77  1  0  0  0  0
 32 78  1  0  0  0  0
 32 79  1  0  0  0  0
 33 80  1  0  0  0  0
 33 81  1  0  0  0  0
 33 82  1  0  0  0  0
 34 83  1  0  0  0  0
 34 84  1  0  0  0  0
 34 85  1  0  0  0  0
 36 44  1  0  0  0  0
 36 86  1  0  0  0  0
 36 87  1  0  0  0  0
 37 89  1  0  0  0  0
 37 90  1  0  0  0  0
 37 91  1  0  0  0  0
 38 92  1  0  0  0  0
 38 93  1  0  0  0  0
 38 94  1  0  0  0  0
 39 40  1  0  0  0  0
 39 42  1  0  0  0  0
 39 88  1  0  0  0  0
 41 43  1  0  0  0  0
 41 46  1  0  0  0  0
 41 96  1  0  0  0  0
 42 45  1  0  0  0  0
 42 97  1  0  0  0  0
 42 98  1  0  0  0  0
 43 47  1  0  0  0  0
 43 99  1  0  0  0  0
 43100  1  0  0  0  0
 45 50  1  0  0  0  0
 45102  1  0  0  0  0
 45103  1  0  0  0  0
 46 49  1  0  0  0  0
 47104  1  0  0  0  0
 47105  1  0  0  0  0
 47106  1  0  0  0  0
 48 51  1  0  0  0  0
 51108  1  0  0  0  0
 51109  1  0  0  0  0
 51110  1  0  0  0  0
 52 53  1  0  0  0  0
 52112  1  0  0  0  0
 52113  1  0  0  0  0
 53 54  1  0  0  0  0
 53114  1  0  0  0  0
 53115  1  0  0  0  0
 54 55  2  0  0  0  0
 54 56  1  0  0  0  0
 55 57  1  0  0  0  0
 55117  1  0  0  0  0
 56 58  2  0  0  0  0
 56118  1  0  0  0  0
 57 59  2  0  0  0  0
 57119  1  0  0  0  0
 58 59  1  0  0  0  0
 58120  1  0  0  0  0
 59121  1  0  0  0  0
M  END
> <PUBCHEM_COMPOUND_CID>
506729
> <PUBCHEM_COMPOUND_CANONICALIZED>
1
> <PUBCHEM_CACTVS_COMPLEXITY>
1490
> <PUBCHEM_CACTVS_HBOND_ACCEPTOR>
12
> <PUBCHEM_CACTVS_HBOND_DONOR>
8
> <PUBCHEM_CACTVS_ROTATABLE_BOND>
27
> <PUBCHEM_CACTVS_SUBSKEYS>
AAADcfB/vAAAAAAAAAAAAAAAAAAAAAAAAAAwAAAAAAAAAAABAAAAHgAQCAAADSzBmAQyCILAAgCIAqHSGAACAAAgAAAIiIGIAIgIYDqA0TGUYAAklgCIiAe/z+C+AAAAAAAAAAAAAAAAAAAAAAAAAAAAAA==
> <PUBCHEM_IUPAC_OPENEYE_NAME>
(3S,6S)-6-acetamido-3-[[(1S)-1-[[(1S)-1-[[(1S)-1-[[(1S)-1-ethyl-2,3-dioxo-3-(2-phenylethylamino)propyl]carbamoyl]-3-methyl-butyl]carbamoyl]-2-methyl-propyl]carbamoyl]-2-methyl-propyl]carbamoyl]-5-oxo-nonanedioic acid
> <PUBCHEM_IUPAC_CAS_NAME>
(3S,6S)-6-acetamido-3-[[[(2S)-1-[[(2S)-1-[[(2S)-1-[[(3S)-1,2-dioxo-1-(2-phenylethylamino)pentan-3-yl]amino]-4-methyl-1-oxopentan-2-yl]amino]-3-methyl-1-oxobutan-2-yl]amino]-3-methyl-1-oxobutan-2-yl]amino]-oxomethyl]-5-oxononanedioic acid
> <PUBCHEM_IUPAC_NAME_MARKUP>
(3<I>S</I>,6<I>S</I>)-6-acetamido-3-[[(2<I>S</I>)-1-[[(2<I>S</I>)-1-[[(2<I>S</I>)-1-[[(3<I>S</I>)-1,2-dioxo-1-(2-phenylethylamino)pentan-3-yl]amino]-4-methyl-1-oxopentan-2-yl]amino]-3-methyl-1-oxobutan-2-yl]amino]-3-methyl-1-oxobutan-2-yl]carbamoyl]-5-oxononanedioic acid
> <PUBCHEM_IUPAC_NAME>
(3S,6S)-6-acetamido-3-[[(2S)-1-[[(2S)-1-[[(2S)-1-[[(3S)-1,2-dioxo-1-(2-phenylethylamino)pentan-3-yl]amino]-4-methyl-1-oxopentan-2-yl]amino]-3-methyl-1-oxobutan-2-yl]amino]-3-methyl-1-oxobutan-2-yl]carbamoyl]-5-oxononanedioic acid
> <PUBCHEM_IUPAC_SYSTEMATIC_NAME>
(3S,6S)-6-acetamido-3-[[(2S)-1-[[(2S)-1-[[(2S)-1-[[(3S)-1,2-bis(oxidanylidene)-1-(2-phenylethylamino)pentan-3-yl]amino]-4-methyl-1-oxidanylidene-pentan-2-yl]amino]-3-methyl-1-oxidanylidene-butan-2-yl]amino]-3-methyl-1-oxidanylidene-butan-2-yl]carbamoyl]-5-oxidanylidene-nonanedioic acid
> <PUBCHEM_IUPAC_TRADITIONAL_NAME>
(3S,6S)-6-acetamido-3-[[(1S)-1-[[(1S)-1-[[(1S)-1-[[(1S)-1-ethyl-2,3-diketo-3-(phenethylamino)propyl]carbamoyl]-3-methyl-butyl]carbamoyl]-2-methyl-propyl]carbamoyl]-2-methyl-propyl]carbamoyl]-5-keto-azelaic acid
> <PUBCHEM_IUPAC_INCHI>
InChI=1S/C41H62N6O12/c1-9-28(36(54)41(59)42-18-17-26-13-11-10-12-14-26)44-38(56)30(19-22(2)3)45-39(57)34(23(4)5)47-40(58)35(24(6)7)46-37(55)27(21-33(52)53)20-31(49)29(43-25(8)48)15-16-32(50)51/h10-14,22-24,27-30,34-35H,9,15-21H2,1-8H3,(H,42,59)(H,43,48)(H,44,56)(H,45,57)(H,46,55)(H,47,58)(H,50,51)(H,52,53)/t27-,28-,29-,30-,34-,35-/m0/s1
> <PUBCHEM_IUPAC_INCHIKEY>
YVIKUWGVFHYMLV-FHPPVMIHSA-N
> <PUBCHEM_XLOGP3_AA>
2.5
> <PUBCHEM_EXACT_MASS>
830.44257143
> <PUBCHEM_MOLECULAR_FORMULA>
C41H62N6O12
> <PUBCHEM_MOLECULAR_WEIGHT>
831.0
> <PUBCHEM_OPENEYE_CAN_SMILES>
CCC(C(=O)C(=O)NCCC1=CC=CC=C1)NC(=O)C(CC(C)C)NC(=O)C(C(C)C)NC(=O)C(C(C)C)NC(=O)C(CC(=O)C(CCC(=O)O)NC(=O)C)CC(=O)O
> <PUBCHEM_OPENEYE_ISO_SMILES>
CC[C@@H](C(=O)C(=O)NCCC1=CC=CC=C1)NC(=O)[C@H](CC(C)C)NC(=O)[C@H](C(C)C)NC(=O)[C@H](C(C)C)NC(=O)[C@@H](CC(=O)[C@H](CCC(=O)O)NC(=O)C)CC(=O)O
> <PUBCHEM_CACTVS_TPSA>
283
> <PUBCHEM_MONOISOTOPIC_WEIGHT>
830.44257143
> <PUBCHEM_TOTAL_CHARGE>
0
> <PUBCHEM_HEAVY_ATOM_COUNT>
59
> <PUBCHEM_ATOM_DEF_STEREO_COUNT>
6
> <PUBCHEM_ATOM_UDEF_STEREO_COUNT>
0
> <PUBCHEM_BOND_DEF_STEREO_COUNT>
0
> <PUBCHEM_BOND_UDEF_STEREO_COUNT>
0
> <PUBCHEM_ISOTOPIC_ATOM_COUNT>
0
> <PUBCHEM_COMPONENT_COUNT>
1
> <PUBCHEM_CACTVS_TAUTO_COUNT>
-1
> <PUBCHEM_COORDINATE_TYPE>
1
5
255
> <PUBCHEM_BONDANNOTATIONS>
19  13  6
23  14  6
20  15  5
41  16  5
39  17  6
28  36  6
54  55  8
54  56  8
55  57  8
56  58  8
57  59  8
58  59  8
$$$$
