506754
  -OEChem-10302200282D
103107  0     1  0  0  0  0  0999 V2000
    8.2363    5.4514    0.0000 O   0  0  0  0  0  0  0  0  0  0  0  0
    6.2824    1.6035    0.0000 O   0  0  0  0  0  0  0  0  0  0  0  0
    5.1805    2.4041    0.0000 O   0  0  0  0  0  0  0  0  0  0  0  0
    9.7465    0.6035    0.0000 O   0  0  0  0  0  0  0  0  0  0  0  0
    2.0000    4.1025    0.0000 O   0  0  0  0  0  0  0  0  0  0  0  0
   10.6126    0.1035    0.0000 O   0  0  0  0  0  0  0  0  0  0  0  0
    8.0145   -5.3965    0.0000 O   0  0  0  0  0  0  0  0  0  0  0  0
    7.1485    3.1035    0.0000 N   0  0  0  0  0  0  0  0  0  0  0  0
    4.6453    4.0514    0.0000 N   0  0  0  0  0  0  0  0  0  0  0  0
    8.0145    0.6035    0.0000 N   0  0  0  0  0  0  0  0  0  0  0  0
    9.7465   -1.3965    0.0000 N   0  0  0  0  0  0  0  0  0  0  0  0
   12.3446   -0.8965    0.0000 N   0  0  0  0  0  0  0  0  0  0  0  0
   12.3446   -2.8965    0.0000 N   0  0  0  0  0  0  0  0  0  0  0  0
    6.3395    3.6913    0.0000 C   0  0  1  0  0  0  0  0  0  0  0  0
    7.6485    4.6424    0.0000 C   0  0  2  0  0  0  0  0  0  0  0  0
    6.6485    4.6424    0.0000 C   0  0  0  0  0  0  0  0  0  0  0  0
    7.9575    3.6913    0.0000 C   0  0  0  0  0  0  0  0  0  0  0  0
    7.1485    2.1035    0.0000 C   0  0  0  0  0  0  0  0  0  0  0  0
    8.0145    1.6035    0.0000 C   0  0  2  0  0  0  0  0  0  0  0  0
    5.3884    3.3823    0.0000 C   0  0  0  0  0  0  0  0  0  0  0  0
    8.8805    2.1035    0.0000 C   0  0  0  0  0  0  0  0  0  0  0  0
    7.8295    6.3649    0.0000 C   0  0  0  0  0  0  0  0  0  0  0  0
    9.7465    1.6035    0.0000 C   0  0  0  0  0  0  0  0  0  0  0  0
    8.8805    3.1035    0.0000 C   0  0  0  0  0  0  0  0  0  0  0  0
    3.6942    3.7424    0.0000 C   0  0  1  0  0  0  0  0  0  0  0  0
    8.8805    0.1035    0.0000 C   0  0  0  0  0  0  0  0  0  0  0  0
    8.4173    7.1739    0.0000 C   0  0  0  0  0  0  0  0  0  0  0  0
    8.8805   -0.8965    0.0000 C   0  0  2  0  0  0  0  0  0  0  0  0
    3.4863    2.7642    0.0000 C   0  0  0  0  0  0  0  0  0  0  0  0
    2.9511    4.4115    0.0000 C   0  0  0  0  0  0  0  0  0  0  0  0
    8.0145   -1.3965    0.0000 C   0  0  0  0  0  0  0  0  0  0  0  0
    2.5352    2.4552    0.0000 C   0  0  0  0  0  0  0  0  0  0  0  0
    8.0106    8.0875    0.0000 C   0  0  0  0  0  0  0  0  0  0  0  0
    9.4118    7.0694    0.0000 C   0  0  0  0  0  0  0  0  0  0  0  0
    8.0145   -2.3965    0.0000 C   0  0  0  0  0  0  0  0  0  0  0  0
    8.5984    8.8965    0.0000 C   0  0  0  0  0  0  0  0  0  0  0  0
    9.9996    7.8784    0.0000 C   0  0  0  0  0  0  0  0  0  0  0  0
   10.6126   -0.8965    0.0000 C   0  0  0  0  0  0  0  0  0  0  0  0
    9.5929    8.7920    0.0000 C   0  0  0  0  0  0  0  0  0  0  0  0
    8.8805   -2.8965    0.0000 C   0  0  0  0  0  0  0  0  0  0  0  0
    7.1485   -2.8965    0.0000 C   0  0  0  0  0  0  0  0  0  0  0  0
    8.8805   -3.8965    0.0000 C   0  0  0  0  0  0  0  0  0  0  0  0
    7.1485   -3.8965    0.0000 C   0  0  0  0  0  0  0  0  0  0  0  0
   11.4786   -1.3965    0.0000 C   0  0  0  0  0  0  0  0  0  0  0  0
    8.0145   -4.3965    0.0000 C   0  0  0  0  0  0  0  0  0  0  0  0
   11.4786   -2.3965    0.0000 C   0  0  0  0  0  0  0  0  0  0  0  0
    7.1485   -5.8965    0.0000 C   0  0  0  0  0  0  0  0  0  0  0  0
   13.2107   -1.3965    0.0000 C   0  0  0  0  0  0  0  0  0  0  0  0
   13.2107   -2.3965    0.0000 C   0  0  0  0  0  0  0  0  0  0  0  0
    7.1485   -6.8965    0.0000 C   0  0  0  0  0  0  0  0  0  0  0  0
    8.0145   -7.3965    0.0000 C   0  0  0  0  0  0  0  0  0  0  0  0
    6.2824   -7.3965    0.0000 C   0  0  0  0  0  0  0  0  0  0  0  0
    8.0145   -8.3965    0.0000 C   0  0  0  0  0  0  0  0  0  0  0  0
    6.2824   -8.3965    0.0000 C   0  0  0  0  0  0  0  0  0  0  0  0
    7.1485   -8.8965    0.0000 C   0  0  0  0  0  0  0  0  0  0  0  0
    6.2425    3.0789    0.0000 H   0  0  0  0  0  0  0  0  0  0  0  0
    7.3670    5.1948    0.0000 H   0  0  0  0  0  0  0  0  0  0  0  0
    6.7133    5.2589    0.0000 H   0  0  0  0  0  0  0  0  0  0  0  0
    6.0420    4.7713    0.0000 H   0  0  0  0  0  0  0  0  0  0  0  0
    8.2675    3.1544    0.0000 H   0  0  0  0  0  0  0  0  0  0  0  0
    8.5239    3.9435    0.0000 H   0  0  0  0  0  0  0  0  0  0  0  0
    8.5514    1.2935    0.0000 H   0  0  0  0  0  0  0  0  0  0  0  0
    8.3436    2.4135    0.0000 H   0  0  0  0  0  0  0  0  0  0  0  0
    4.7742    4.6579    0.0000 H   0  0  0  0  0  0  0  0  0  0  0  0
    7.4776    0.2935    0.0000 H   0  0  0  0  0  0  0  0  0  0  0  0
    7.3988    6.8109    0.0000 H   0  0  0  0  0  0  0  0  0  0  0  0
    7.3155    6.0182    0.0000 H   0  0  0  0  0  0  0  0  0  0  0  0
    9.4366    1.0666    0.0000 H   0  0  0  0  0  0  0  0  0  0  0  0
   10.2835    1.2935    0.0000 H   0  0  0  0  0  0  0  0  0  0  0  0
   10.0566    2.1404    0.0000 H   0  0  0  0  0  0  0  0  0  0  0  0
    9.5005    3.1035    0.0000 H   0  0  0  0  0  0  0  0  0  0  0  0
    8.8805    3.7235    0.0000 H   0  0  0  0  0  0  0  0  0  0  0  0
    8.2605    3.1035    0.0000 H   0  0  0  0  0  0  0  0  0  0  0  0
    3.8231    4.3488    0.0000 H   0  0  0  0  0  0  0  0  0  0  0  0
    8.8805   -1.5165    0.0000 H   0  0  0  0  0  0  0  0  0  0  0  0
    3.5726    2.1503    0.0000 H   0  0  0  0  0  0  0  0  0  0  0  0
    4.1059    2.7426    0.0000 H   0  0  0  0  0  0  0  0  0  0  0  0
    3.0800    5.0180    0.0000 H   0  0  0  0  0  0  0  0  0  0  0  0
    7.8024   -0.8139    0.0000 H   0  0  0  0  0  0  0  0  0  0  0  0
    7.4039   -1.5042    0.0000 H   0  0  0  0  0  0  0  0  0  0  0  0
    2.3436    3.0449    0.0000 H   0  0  0  0  0  0  0  0  0  0  0  0
    1.9456    2.2636    0.0000 H   0  0  0  0  0  0  0  0  0  0  0  0
    2.7268    1.8656    0.0000 H   0  0  0  0  0  0  0  0  0  0  0  0
    7.3940    8.1523    0.0000 H   0  0  0  0  0  0  0  0  0  0  0  0
    9.6640    6.5030    0.0000 H   0  0  0  0  0  0  0  0  0  0  0  0
    9.7465   -2.0165    0.0000 H   0  0  0  0  0  0  0  0  0  0  0  0
    8.3462    9.4629    0.0000 H   0  0  0  0  0  0  0  0  0  0  0  0
   10.6162    7.8136    0.0000 H   0  0  0  0  0  0  0  0  0  0  0  0
    9.9573    9.2936    0.0000 H   0  0  0  0  0  0  0  0  0  0  0  0
    9.4175   -2.5865    0.0000 H   0  0  0  0  0  0  0  0  0  0  0  0
    6.6115   -2.5865    0.0000 H   0  0  0  0  0  0  0  0  0  0  0  0
    9.4175   -4.2065    0.0000 H   0  0  0  0  0  0  0  0  0  0  0  0
    6.6115   -4.2065    0.0000 H   0  0  0  0  0  0  0  0  0  0  0  0
   10.9417   -2.7065    0.0000 H   0  0  0  0  0  0  0  0  0  0  0  0
    6.9364   -5.3139    0.0000 H   0  0  0  0  0  0  0  0  0  0  0  0
    6.5379   -6.0042    0.0000 H   0  0  0  0  0  0  0  0  0  0  0  0
   13.7476   -1.0865    0.0000 H   0  0  0  0  0  0  0  0  0  0  0  0
   13.7476   -2.7065    0.0000 H   0  0  0  0  0  0  0  0  0  0  0  0
    8.5514   -7.0865    0.0000 H   0  0  0  0  0  0  0  0  0  0  0  0
    5.7455   -7.0865    0.0000 H   0  0  0  0  0  0  0  0  0  0  0  0
    8.5514   -8.7065    0.0000 H   0  0  0  0  0  0  0  0  0  0  0  0
    5.7455   -8.7065    0.0000 H   0  0  0  0  0  0  0  0  0  0  0  0
    7.1485   -9.5165    0.0000 H   0  0  0  0  0  0  0  0  0  0  0  0
 15  1  1  1  0  0  0
  1 22  1  0  0  0  0
  2 18  2  0  0  0  0
  3 20  2  0  0  0  0
  4 26  2  0  0  0  0
  5 30  2  0  0  0  0
  6 38  2  0  0  0  0
  7 45  1  0  0  0  0
  7 47  1  0  0  0  0
  8 14  1  0  0  0  0
  8 17  1  0  0  0  0
  8 18  1  0  0  0  0
  9 20  1  0  0  0  0
 25  9  1  1  0  0  0
  9 64  1  0  0  0  0
 19 10  1  6  0  0  0
 10 26  1  0  0  0  0
 10 65  1  0  0  0  0
 28 11  1  1  0  0  0
 11 38  1  0  0  0  0
 11 86  1  0  0  0  0
 12 44  2  0  0  0  0
 12 48  1  0  0  0  0
 13 46  2  0  0  0  0
 13 49  1  0  0  0  0
 14 16  1  0  0  0  0
 14 20  1  6  0  0  0
 14 56  1  0  0  0  0
 15 16  1  0  0  0  0
 15 17  1  0  0  0  0
 15 57  1  0  0  0  0
 16 58  1  0  0  0  0
 16 59  1  0  0  0  0
 17 60  1  0  0  0  0
 17 61  1  0  0  0  0
 18 19  1  0  0  0  0
 19 21  1  0  0  0  0
 19 62  1  0  0  0  0
 21 23  1  0  0  0  0
 21 24  1  0  0  0  0
 21 63  1  0  0  0  0
 22 27  1  0  0  0  0
 22 66  1  0  0  0  0
 22 67  1  0  0  0  0
 23 68  1  0  0  0  0
 23 69  1  0  0  0  0
 23 70  1  0  0  0  0
 24 71  1  0  0  0  0
 24 72  1  0  0  0  0
 24 73  1  0  0  0  0
 25 29  1  0  0  0  0
 25 30  1  0  0  0  0
 25 74  1  0  0  0  0
 26 28  1  0  0  0  0
 27 33  2  0  0  0  0
 27 34  1  0  0  0  0
 28 31  1  0  0  0  0
 28 75  1  0  0  0  0
 29 32  1  0  0  0  0
 29 76  1  0  0  0  0
 29 77  1  0  0  0  0
 30 78  1  0  0  0  0
 31 35  1  0  0  0  0
 31 79  1  0  0  0  0
 31 80  1  0  0  0  0
 32 81  1  0  0  0  0
 32 82  1  0  0  0  0
 32 83  1  0  0  0  0
 33 36  1  0  0  0  0
 33 84  1  0  0  0  0
 34 37  2  0  0  0  0
 34 85  1  0  0  0  0
 35 40  2  0  0  0  0
 35 41  1  0  0  0  0
 36 39  2  0  0  0  0
 36 87  1  0  0  0  0
 37 39  1  0  0  0  0
 37 88  1  0  0  0  0
 38 44  1  0  0  0  0
 39 89  1  0  0  0  0
 40 42  1  0  0  0  0
 40 90  1  0  0  0  0
 41 43  2  0  0  0  0
 41 91  1  0  0  0  0
 42 45  2  0  0  0  0
 42 92  1  0  0  0  0
 43 45  1  0  0  0  0
 43 93  1  0  0  0  0
 44 46  1  0  0  0  0
 46 94  1  0  0  0  0
 47 50  1  0  0  0  0
 47 95  1  0  0  0  0
 47 96  1  0  0  0  0
 48 49  2  0  0  0  0
 48 97  1  0  0  0  0
 49 98  1  0  0  0  0
 50 51  2  0  0  0  0
 50 52  1  0  0  0  0
 51 53  1  0  0  0  0
 51 99  1  0  0  0  0
 52 54  2  0  0  0  0
 52100  1  0  0  0  0
 53 55  2  0  0  0  0
 53101  1  0  0  0  0
 54 55  1  0  0  0  0
 54102  1  0  0  0  0
 55103  1  0  0  0  0
M  END
> <PUBCHEM_COMPOUND_CID>
506754
> <PUBCHEM_COMPOUND_CANONICALIZED>
1
> <PUBCHEM_CACTVS_COMPLEXITY>
1230
> <PUBCHEM_CACTVS_HBOND_ACCEPTOR>
9
> <PUBCHEM_CACTVS_HBOND_DONOR>
3
> <PUBCHEM_CACTVS_ROTATABLE_BOND>
18
> <PUBCHEM_CACTVS_SUBSKEYS>
AAADcfB/uAAAAAAAAAAAAAAAAAAAAWAAAAA8YMEAAAAAAAAB1AAAHgAQAAAADTzhngY+hpPIFACoAz131ACCiCQ3MiAI2IG+fMgOZnrE8TuXOKim1hHYqMe6yaCOIAAAAAAAAABAAAAAAAAAAAAAAAAAAA==
> <PUBCHEM_IUPAC_OPENEYE_NAME>
N-[(1S)-2-[[(1S)-1-[(2S,4R)-4-benzyloxy-2-[[(1S)-1-formylpropyl]carbamoyl]pyrrolidine-1-carbonyl]-2-methyl-propyl]amino]-1-[(4-benzyloxyphenyl)methyl]-2-oxo-ethyl]pyrazine-2-carboxamide
> <PUBCHEM_IUPAC_CAS_NAME>
N-[(2S)-1-[[(2S)-3-methyl-1-oxo-1-[(2S,4R)-2-[oxo-[[(2S)-1-oxobutan-2-yl]amino]methyl]-4-phenylmethoxy-1-pyrrolidinyl]butan-2-yl]amino]-1-oxo-3-(4-phenylmethoxyphenyl)propan-2-yl]-2-pyrazinecarboxamide
> <PUBCHEM_IUPAC_NAME_MARKUP>
<I>N</I>-[(2<I>S</I>)-1-[[(2<I>S</I>)-3-methyl-1-oxo-1-[(2<I>S</I>,4<I>R</I>)-2-[[(2<I>S</I>)-1-oxobutan-2-yl]carbamoyl]-4-phenylmethoxypyrrolidin-1-yl]butan-2-yl]amino]-1-oxo-3-(4-phenylmethoxyphenyl)propan-2-yl]pyrazine-2-carboxamide
> <PUBCHEM_IUPAC_NAME>
N-[(2S)-1-[[(2S)-3-methyl-1-oxo-1-[(2S,4R)-2-[[(2S)-1-oxobutan-2-yl]carbamoyl]-4-phenylmethoxypyrrolidin-1-yl]butan-2-yl]amino]-1-oxo-3-(4-phenylmethoxyphenyl)propan-2-yl]pyrazine-2-carboxamide
> <PUBCHEM_IUPAC_SYSTEMATIC_NAME>
N-[(2S)-1-[[(2S)-3-methyl-1-oxidanylidene-1-[(2S,4R)-2-[[(2S)-1-oxidanylidenebutan-2-yl]carbamoyl]-4-phenylmethoxy-pyrrolidin-1-yl]butan-2-yl]amino]-1-oxidanylidene-3-(4-phenylmethoxyphenyl)propan-2-yl]pyrazine-2-carboxamide
> <PUBCHEM_IUPAC_TRADITIONAL_NAME>
N-[(1S)-1-(4-benzoxybenzyl)-2-[[(1S)-1-[(2S,4R)-4-benzoxy-2-[[(1S)-1-formylpropyl]carbamoyl]pyrrolidine-1-carbonyl]-2-methyl-propyl]amino]-2-keto-ethyl]pyrazinamide
> <PUBCHEM_IUPAC_INCHI>
InChI=1S/C42H48N6O7/c1-4-32(25-49)45-41(52)37-22-34(55-27-31-13-9-6-10-14-31)24-48(37)42(53)38(28(2)3)47-39(50)35(46-40(51)36-23-43-19-20-44-36)21-29-15-17-33(18-16-29)54-26-30-11-7-5-8-12-30/h5-20,23,25,28,32,34-35,37-38H,4,21-22,24,26-27H2,1-3H3,(H,45,52)(H,46,51)(H,47,50)/t32-,34+,35-,37-,38-/m0/s1
> <PUBCHEM_IUPAC_INCHIKEY>
MMRYFMCUABGZKE-CKWDJMSASA-N
> <PUBCHEM_XLOGP3_AA>
4.5
> <PUBCHEM_EXACT_MASS>
748.35844789
> <PUBCHEM_MOLECULAR_FORMULA>
C42H48N6O7
> <PUBCHEM_MOLECULAR_WEIGHT>
748.9
> <PUBCHEM_OPENEYE_CAN_SMILES>
CCC(C=O)NC(=O)C1CC(CN1C(=O)C(C(C)C)NC(=O)C(CC2=CC=C(C=C2)OCC3=CC=CC=C3)NC(=O)C4=NC=CN=C4)OCC5=CC=CC=C5
> <PUBCHEM_OPENEYE_ISO_SMILES>
CC[C@@H](C=O)NC(=O)[C@@H]1C[C@H](CN1C(=O)[C@H](C(C)C)NC(=O)[C@H](CC2=CC=C(C=C2)OCC3=CC=CC=C3)NC(=O)C4=NC=CN=C4)OCC5=CC=CC=C5
> <PUBCHEM_CACTVS_TPSA>
169
> <PUBCHEM_MONOISOTOPIC_WEIGHT>
748.35844789
> <PUBCHEM_TOTAL_CHARGE>
0
> <PUBCHEM_HEAVY_ATOM_COUNT>
55
> <PUBCHEM_ATOM_DEF_STEREO_COUNT>
5
> <PUBCHEM_ATOM_UDEF_STEREO_COUNT>
0
> <PUBCHEM_BOND_DEF_STEREO_COUNT>
0
> <PUBCHEM_BOND_UDEF_STEREO_COUNT>
0
> <PUBCHEM_ISOTOPIC_ATOM_COUNT>
0
> <PUBCHEM_COMPONENT_COUNT>
1
> <PUBCHEM_CACTVS_TAUTO_COUNT>
-1
> <PUBCHEM_COORDINATE_TYPE>
1
5
255
> <PUBCHEM_BONDANNOTATIONS>
15  1  5
19  10  6
28  11  5
12  44  8
12  48  8
13  46  8
13  49  8
14  20  6
27  33  8
27  34  8
33  36  8
34  37  8
35  40  8
35  41  8
36  39  8
37  39  8
40  42  8
41  43  8
42  45  8
43  45  8
44  46  8
48  49  8
50  51  8
50  52  8
51  53  8
52  54  8
53  55  8
54  55  8
25  9  5
$$$$
