506713
  -OEChem-10302200282D
 91 93  0     1  0  0  0  0  0999 V2000
    6.2524   -1.6852    0.0000 O   0  0  0  0  0  0  0  0  0  0  0  0
    6.9334    2.5762    0.0000 O   0  0  0  0  0  0  0  0  0  0  0  0
    5.5714    2.5762    0.0000 O   0  0  0  0  0  0  0  0  0  0  0  0
   10.3238    1.3491    0.0000 O   0  0  0  0  0  0  0  0  0  0  0  0
    2.0000    3.0717    0.0000 O   0  0  0  0  0  0  0  0  0  0  0  0
   13.0816    3.6716    0.0000 O   0  0  0  0  0  0  0  0  0  0  0  0
   11.6804    4.6897    0.0000 O   0  0  0  0  0  0  0  0  0  0  0  0
    6.7524    0.8537    0.0000 N   0  0  0  0  0  0  0  0  0  0  0  0
    8.9225    2.3672    0.0000 N   0  0  0  0  0  0  0  0  0  0  0  0
    4.1701    1.5582    0.0000 N   0  0  0  0  0  0  0  0  0  0  0  0
   11.4993    2.9672    0.0000 N   0  0  0  0  0  0  0  0  0  0  0  0
    5.7524    0.8537    0.0000 C   0  0  1  0  0  0  0  0  0  0  0  0
    6.2524   -0.6852    0.0000 C   0  0  2  0  0  0  0  0  0  0  0  0
    5.4434   -0.0974    0.0000 C   0  0  0  0  0  0  0  0  0  0  0  0
    7.0614   -0.0974    0.0000 C   0  0  0  0  0  0  0  0  0  0  0  0
    7.3402    1.6627    0.0000 C   0  0  0  0  0  0  0  0  0  0  0  0
    8.3347    1.5582    0.0000 C   0  0  2  0  0  0  0  0  0  0  0  0
    5.1646    1.6627    0.0000 C   0  0  0  0  0  0  0  0  0  0  0  0
    8.7414    0.6446    0.0000 C   0  0  0  0  0  0  0  0  0  0  0  0
    5.3864   -2.1852    0.0000 C   0  0  0  0  0  0  0  0  0  0  0  0
    9.7360    0.5401    0.0000 C   0  0  0  0  0  0  0  0  0  0  0  0
    8.1537   -0.1644    0.0000 C   0  0  0  0  0  0  0  0  0  0  0  0
    3.5823    2.3672    0.0000 C   0  0  1  0  0  0  0  0  0  0  0  0
    9.9170    2.2627    0.0000 C   0  0  0  0  0  0  0  0  0  0  0  0
   10.5048    3.0717    0.0000 C   0  0  2  0  0  0  0  0  0  0  0  0
   10.0981    3.9852    0.0000 C   0  0  0  0  0  0  0  0  0  0  0  0
    5.3864   -3.1852    0.0000 C   0  0  0  0  0  0  0  0  0  0  0  0
    3.9890    3.2807    0.0000 C   0  0  0  0  0  0  0  0  0  0  0  0
    2.5878    2.2627    0.0000 C   0  0  0  0  0  0  0  0  0  0  0  0
   10.6858    4.7942    0.0000 C   0  0  0  0  0  0  0  0  0  0  0  0
    9.1035    4.0898    0.0000 C   0  0  0  0  0  0  0  0  0  0  0  0
    3.4013    4.0898    0.0000 C   0  0  0  0  0  0  0  0  0  0  0  0
    4.5204   -3.6852    0.0000 C   0  0  0  0  0  0  0  0  0  0  0  0
    6.2524   -3.6852    0.0000 C   0  0  0  0  0  0  0  0  0  0  0  0
   12.0871    3.7762    0.0000 C   0  0  0  0  0  0  0  0  0  0  0  0
    4.5204   -4.6852    0.0000 C   0  0  0  0  0  0  0  0  0  0  0  0
    6.2524   -4.6852    0.0000 C   0  0  0  0  0  0  0  0  0  0  0  0
    5.3864   -5.1852    0.0000 C   0  0  0  0  0  0  0  0  0  0  0  0
   13.6694    4.4807    0.0000 C   0  0  0  0  0  0  0  0  0  0  0  0
   14.6639    4.3761    0.0000 C   0  0  0  0  0  0  0  0  0  0  0  0
   15.2517    5.1852    0.0000 C   0  0  0  0  0  0  0  0  0  0  0  0
   15.0707    3.4626    0.0000 C   0  0  0  0  0  0  0  0  0  0  0  0
   16.2462    5.0806    0.0000 C   0  0  0  0  0  0  0  0  0  0  0  0
   16.0652    3.3581    0.0000 C   0  0  0  0  0  0  0  0  0  0  0  0
   16.6530    4.1671    0.0000 C   0  0  0  0  0  0  0  0  0  0  0  0
    6.0339    1.4061    0.0000 H   0  0  0  0  0  0  0  0  0  0  0  0
    5.7000   -0.9666    0.0000 H   0  0  0  0  0  0  0  0  0  0  0  0
    4.8770    0.1548    0.0000 H   0  0  0  0  0  0  0  0  0  0  0  0
    5.1334   -0.6343    0.0000 H   0  0  0  0  0  0  0  0  0  0  0  0
    7.3714   -0.6343    0.0000 H   0  0  0  0  0  0  0  0  0  0  0  0
    7.6278    0.1548    0.0000 H   0  0  0  0  0  0  0  0  0  0  0  0
    8.0825    2.1246    0.0000 H   0  0  0  0  0  0  0  0  0  0  0  0
    9.1059    1.1462    0.0000 H   0  0  0  0  0  0  0  0  0  0  0  0
    8.6703    2.9336    0.0000 H   0  0  0  0  0  0  0  0  0  0  0  0
    3.9179    0.9918    0.0000 H   0  0  0  0  0  0  0  0  0  0  0  0
    5.1743   -1.6025    0.0000 H   0  0  0  0  0  0  0  0  0  0  0  0
    4.7758   -2.2928    0.0000 H   0  0  0  0  0  0  0  0  0  0  0  0
    9.6712   -0.0765    0.0000 H   0  0  0  0  0  0  0  0  0  0  0  0
   10.3526    0.4753    0.0000 H   0  0  0  0  0  0  0  0  0  0  0  0
    9.8008    1.1567    0.0000 H   0  0  0  0  0  0  0  0  0  0  0  0
    7.6521    0.2000    0.0000 H   0  0  0  0  0  0  0  0  0  0  0  0
    7.7892   -0.6660    0.0000 H   0  0  0  0  0  0  0  0  0  0  0  0
    8.6552   -0.5288    0.0000 H   0  0  0  0  0  0  0  0  0  0  0  0
    3.3301    1.8008    0.0000 H   0  0  0  0  0  0  0  0  0  0  0  0
   10.7570    2.5053    0.0000 H   0  0  0  0  0  0  0  0  0  0  0  0
   10.7147    3.9204    0.0000 H   0  0  0  0  0  0  0  0  0  0  0  0
    4.5030    2.9340    0.0000 H   0  0  0  0  0  0  0  0  0  0  0  0
    4.4197    3.7267    0.0000 H   0  0  0  0  0  0  0  0  0  0  0  0
    2.3356    1.6963    0.0000 H   0  0  0  0  0  0  0  0  0  0  0  0
   11.7515    2.4008    0.0000 H   0  0  0  0  0  0  0  0  0  0  0  0
   11.1874    4.4298    0.0000 H   0  0  0  0  0  0  0  0  0  0  0  0
   11.0503    5.2958    0.0000 H   0  0  0  0  0  0  0  0  0  0  0  0
   10.1843    5.1587    0.0000 H   0  0  0  0  0  0  0  0  0  0  0  0
    9.1684    4.7064    0.0000 H   0  0  0  0  0  0  0  0  0  0  0  0
    8.4869    4.1546    0.0000 H   0  0  0  0  0  0  0  0  0  0  0  0
    9.0387    3.4732    0.0000 H   0  0  0  0  0  0  0  0  0  0  0  0
    3.9028    4.4542    0.0000 H   0  0  0  0  0  0  0  0  0  0  0  0
    3.0368    4.5914    0.0000 H   0  0  0  0  0  0  0  0  0  0  0  0
    2.8997    3.7253    0.0000 H   0  0  0  0  0  0  0  0  0  0  0  0
    3.9834   -3.3752    0.0000 H   0  0  0  0  0  0  0  0  0  0  0  0
    6.7893   -3.3752    0.0000 H   0  0  0  0  0  0  0  0  0  0  0  0
    3.9834   -4.9952    0.0000 H   0  0  0  0  0  0  0  0  0  0  0  0
    6.7893   -4.9952    0.0000 H   0  0  0  0  0  0  0  0  0  0  0  0
    5.3864   -5.8052    0.0000 H   0  0  0  0  0  0  0  0  0  0  0  0
   13.8403    5.0766    0.0000 H   0  0  0  0  0  0  0  0  0  0  0  0
   13.1122    4.7524    0.0000 H   0  0  0  0  0  0  0  0  0  0  0  0
   14.9995    5.7516    0.0000 H   0  0  0  0  0  0  0  0  0  0  0  0
   14.7062    2.9610    0.0000 H   0  0  0  0  0  0  0  0  0  0  0  0
   16.6107    5.5822    0.0000 H   0  0  0  0  0  0  0  0  0  0  0  0
   16.3174    2.7917    0.0000 H   0  0  0  0  0  0  0  0  0  0  0  0
   17.2696    4.1023    0.0000 H   0  0  0  0  0  0  0  0  0  0  0  0
 13  1  1  6  0  0  0
  1 20  1  0  0  0  0
  2 16  2  0  0  0  0
  3 18  2  0  0  0  0
  4 24  2  0  0  0  0
  5 29  2  0  0  0  0
  6 35  1  0  0  0  0
  6 39  1  0  0  0  0
  7 35  2  0  0  0  0
  8 12  1  0  0  0  0
  8 15  1  0  0  0  0
  8 16  1  0  0  0  0
 17  9  1  1  0  0  0
  9 24  1  0  0  0  0
  9 54  1  0  0  0  0
 10 18  1  0  0  0  0
 23 10  1  6  0  0  0
 10 55  1  0  0  0  0
 25 11  1  6  0  0  0
 11 35  1  0  0  0  0
 11 70  1  0  0  0  0
 12 14  1  0  0  0  0
 12 18  1  1  0  0  0
 12 46  1  0  0  0  0
 13 14  1  0  0  0  0
 13 15  1  0  0  0  0
 13 47  1  0  0  0  0
 14 48  1  0  0  0  0
 14 49  1  0  0  0  0
 15 50  1  0  0  0  0
 15 51  1  0  0  0  0
 16 17  1  0  0  0  0
 17 19  1  0  0  0  0
 17 52  1  0  0  0  0
 19 21  1  0  0  0  0
 19 22  1  0  0  0  0
 19 53  1  0  0  0  0
 20 27  1  0  0  0  0
 20 56  1  0  0  0  0
 20 57  1  0  0  0  0
 21 58  1  0  0  0  0
 21 59  1  0  0  0  0
 21 60  1  0  0  0  0
 22 61  1  0  0  0  0
 22 62  1  0  0  0  0
 22 63  1  0  0  0  0
 23 28  1  0  0  0  0
 23 29  1  0  0  0  0
 23 64  1  0  0  0  0
 24 25  1  0  0  0  0
 25 26  1  0  0  0  0
 25 65  1  0  0  0  0
 26 30  1  0  0  0  0
 26 31  1  0  0  0  0
 26 66  1  0  0  0  0
 27 33  2  0  0  0  0
 27 34  1  0  0  0  0
 28 32  1  0  0  0  0
 28 67  1  0  0  0  0
 28 68  1  0  0  0  0
 29 69  1  0  0  0  0
 30 71  1  0  0  0  0
 30 72  1  0  0  0  0
 30 73  1  0  0  0  0
 31 74  1  0  0  0  0
 31 75  1  0  0  0  0
 31 76  1  0  0  0  0
 32 77  1  0  0  0  0
 32 78  1  0  0  0  0
 32 79  1  0  0  0  0
 33 36  1  0  0  0  0
 33 80  1  0  0  0  0
 34 37  2  0  0  0  0
 34 81  1  0  0  0  0
 36 38  2  0  0  0  0
 36 82  1  0  0  0  0
 37 38  1  0  0  0  0
 37 83  1  0  0  0  0
 38 84  1  0  0  0  0
 39 40  1  0  0  0  0
 39 85  1  0  0  0  0
 39 86  1  0  0  0  0
 40 41  2  0  0  0  0
 40 42  1  0  0  0  0
 41 43  1  0  0  0  0
 41 87  1  0  0  0  0
 42 44  2  0  0  0  0
 42 88  1  0  0  0  0
 43 45  2  0  0  0  0
 43 89  1  0  0  0  0
 44 45  1  0  0  0  0
 44 90  1  0  0  0  0
 45 91  1  0  0  0  0
M  END
> <PUBCHEM_COMPOUND_CID>
506713
> <PUBCHEM_COMPOUND_CANONICALIZED>
1
> <PUBCHEM_CACTVS_COMPLEXITY>
978
> <PUBCHEM_CACTVS_HBOND_ACCEPTOR>
7
> <PUBCHEM_CACTVS_HBOND_DONOR>
3
> <PUBCHEM_CACTVS_ROTATABLE_BOND>
16
> <PUBCHEM_CACTVS_SUBSKEYS>
AAADcfB/uAAAAAAAAAAAAAAAAAAAAWAAAAAwYAAAAAAAAAABQAAAHgAQAAAADTzhmAYyCIPABACIAilSmAACAAAgAAAIiIGICIkKZjKAsTifMAAm1gGYqAe6wSAOAAAAAAAAAAAAAAAAAAAAAAAAAAAAAA==
> <PUBCHEM_IUPAC_OPENEYE_NAME>
benzyl N-[(1S)-1-[[(1S)-1-[(2S,4R)-4-benzyloxy-2-[[(1S)-1-formylpropyl]carbamoyl]pyrrolidine-1-carbonyl]-2-methyl-propyl]carbamoyl]-2-methyl-propyl]carbamate
> <PUBCHEM_IUPAC_CAS_NAME>
N-[(2S)-3-methyl-1-[[(2S)-3-methyl-1-oxo-1-[(2S,4R)-2-[oxo-[[(2S)-1-oxobutan-2-yl]amino]methyl]-4-phenylmethoxy-1-pyrrolidinyl]butan-2-yl]amino]-1-oxobutan-2-yl]carbamic acid (phenylmethyl) ester
> <PUBCHEM_IUPAC_NAME_MARKUP>
benzyl <I>N</I>-[(2<I>S</I>)-3-methyl-1-[[(2<I>S</I>)-3-methyl-1-oxo-1-[(2<I>S</I>,4<I>R</I>)-2-[[(2<I>S</I>)-1-oxobutan-2-yl]carbamoyl]-4-phenylmethoxypyrrolidin-1-yl]butan-2-yl]amino]-1-oxobutan-2-yl]carbamate
> <PUBCHEM_IUPAC_NAME>
benzyl N-[(2S)-3-methyl-1-[[(2S)-3-methyl-1-oxo-1-[(2S,4R)-2-[[(2S)-1-oxobutan-2-yl]carbamoyl]-4-phenylmethoxypyrrolidin-1-yl]butan-2-yl]amino]-1-oxobutan-2-yl]carbamate
> <PUBCHEM_IUPAC_SYSTEMATIC_NAME>
(phenylmethyl) N-[(2S)-3-methyl-1-[[(2S)-3-methyl-1-oxidanylidene-1-[(2S,4R)-2-[[(2S)-1-oxidanylidenebutan-2-yl]carbamoyl]-4-phenylmethoxy-pyrrolidin-1-yl]butan-2-yl]amino]-1-oxidanylidene-butan-2-yl]carbamate
> <PUBCHEM_IUPAC_TRADITIONAL_NAME>
N-[(1S)-1-[[(1S)-1-[(2S,4R)-4-benzoxy-2-[[(1S)-1-formylpropyl]carbamoyl]pyrrolidine-1-carbonyl]-2-methyl-propyl]carbamoyl]-2-methyl-propyl]carbamic acid benzyl ester
> <PUBCHEM_IUPAC_INCHI>
InChI=1S/C34H46N4O7/c1-6-26(19-39)35-31(40)28-17-27(44-20-24-13-9-7-10-14-24)18-38(28)33(42)30(23(4)5)36-32(41)29(22(2)3)37-34(43)45-21-25-15-11-8-12-16-25/h7-16,19,22-23,26-30H,6,17-18,20-21H2,1-5H3,(H,35,40)(H,36,41)(H,37,43)/t26-,27+,28-,29-,30-/m0/s1
> <PUBCHEM_IUPAC_INCHIKEY>
OWYZZUHIVCKQNA-RULDIGERSA-N
> <PUBCHEM_XLOGP3_AA>
4.4
> <PUBCHEM_EXACT_MASS>
622.33664982
> <PUBCHEM_MOLECULAR_FORMULA>
C34H46N4O7
> <PUBCHEM_MOLECULAR_WEIGHT>
622.8
> <PUBCHEM_OPENEYE_CAN_SMILES>
CCC(C=O)NC(=O)C1CC(CN1C(=O)C(C(C)C)NC(=O)C(C(C)C)NC(=O)OCC2=CC=CC=C2)OCC3=CC=CC=C3
> <PUBCHEM_OPENEYE_ISO_SMILES>
CC[C@@H](C=O)NC(=O)[C@@H]1C[C@H](CN1C(=O)[C@H](C(C)C)NC(=O)[C@H](C(C)C)NC(=O)OCC2=CC=CC=C2)OCC3=CC=CC=C3
> <PUBCHEM_CACTVS_TPSA>
143
> <PUBCHEM_MONOISOTOPIC_WEIGHT>
622.33664982
> <PUBCHEM_TOTAL_CHARGE>
0
> <PUBCHEM_HEAVY_ATOM_COUNT>
45
> <PUBCHEM_ATOM_DEF_STEREO_COUNT>
5
> <PUBCHEM_ATOM_UDEF_STEREO_COUNT>
0
> <PUBCHEM_BOND_DEF_STEREO_COUNT>
0
> <PUBCHEM_BOND_UDEF_STEREO_COUNT>
0
> <PUBCHEM_ISOTOPIC_ATOM_COUNT>
0
> <PUBCHEM_COMPONENT_COUNT>
1
> <PUBCHEM_CACTVS_TAUTO_COUNT>
-1
> <PUBCHEM_COORDINATE_TYPE>
1
5
255
> <PUBCHEM_BONDANNOTATIONS>
13  1  6
23  10  6
25  11  6
12  18  5
27  33  8
27  34  8
33  36  8
34  37  8
36  38  8
37  38  8
40  41  8
40  42  8
41  43  8
42  44  8
43  45  8
44  45  8
17  9  5
$$$$
