506794
  -OEChem-10302200282D
 77 79  0     1  0  0  0  0  0999 V2000
    4.8025    1.7951    0.0000 O   0  0  0  0  0  0  0  0  0  0  0  0
    7.1580   -1.8209    0.0000 O   0  0  0  0  0  0  0  0  0  0  0  0
    5.9136   -2.3749    0.0000 O   0  0  0  0  0  0  0  0  0  0  0  0
    9.7560    0.6791    0.0000 O   0  0  0  0  0  0  0  0  0  0  0  0
   11.4881   -0.3209    0.0000 O   0  0  0  0  0  0  0  0  0  0  0  0
    2.8525   -4.2801    0.0000 O   0  0  0  0  0  0  0  0  0  0  0  0
   14.0862    1.1791    0.0000 O   0  0  0  0  0  0  0  0  0  0  0  0
    6.2919   -0.3209    0.0000 N   0  0  0  0  0  0  0  0  0  0  0  0
    4.2194   -2.0148    0.0000 N   0  0  0  0  0  0  0  0  0  0  0  0
    8.8900   -0.8209    0.0000 N   0  0  0  0  0  0  0  0  0  0  0  0
    5.3784   -0.7276    0.0000 C   0  0  1  0  0  0  0  0  0  0  0  0
    5.2092    0.8815    0.0000 C   0  0  2  0  0  0  0  0  0  0  0  0
    4.7092    0.0155    0.0000 C   0  0  0  0  0  0  0  0  0  0  0  0
    6.1874    0.6736    0.0000 C   0  0  0  0  0  0  0  0  0  0  0  0
    7.1580   -0.8209    0.0000 C   0  0  0  0  0  0  0  0  0  0  0  0
    8.0240   -0.3209    0.0000 C   0  0  2  0  0  0  0  0  0  0  0  0
    5.1705   -1.7058    0.0000 C   0  0  0  0  0  0  0  0  0  0  0  0
    8.0240    0.6791    0.0000 C   0  0  0  0  0  0  0  0  0  0  0  0
    3.8080    1.8996    0.0000 C   0  0  0  0  0  0  0  0  0  0  0  0
    8.8900    1.1791    0.0000 C   0  0  0  0  0  0  0  0  0  0  0  0
    7.1580    1.1791    0.0000 C   0  0  0  0  0  0  0  0  0  0  0  0
    4.0115   -2.9930    0.0000 C   0  0  1  0  0  0  0  0  0  0  0  0
    3.4013    2.8131    0.0000 C   0  0  0  0  0  0  0  0  0  0  0  0
    4.7546   -3.6621    0.0000 C   0  0  0  0  0  0  0  0  0  0  0  0
    9.7560   -0.3209    0.0000 C   0  0  0  0  0  0  0  0  0  0  0  0
    3.0604   -3.3020    0.0000 C   0  0  0  0  0  0  0  0  0  0  0  0
   10.6221   -0.8209    0.0000 C   0  0  0  0  0  0  0  0  0  0  0  0
    4.5467   -4.6402    0.0000 C   0  0  0  0  0  0  0  0  0  0  0  0
    3.9890    3.6222    0.0000 C   0  0  0  0  0  0  0  0  0  0  0  0
    2.4067    2.9177    0.0000 C   0  0  0  0  0  0  0  0  0  0  0  0
    3.5823    4.5357    0.0000 C   0  0  0  0  0  0  0  0  0  0  0  0
    2.0000    3.8312    0.0000 C   0  0  0  0  0  0  0  0  0  0  0  0
    2.5878    4.6402    0.0000 C   0  0  0  0  0  0  0  0  0  0  0  0
   12.3541   -0.8209    0.0000 C   0  0  0  0  0  0  0  0  0  0  0  0
   13.2201   -0.3209    0.0000 C   0  0  0  0  0  0  0  0  0  0  0  0
   12.3541   -1.8209    0.0000 C   0  0  0  0  0  0  0  0  0  0  0  0
   14.0862   -0.8209    0.0000 C   0  0  0  0  0  0  0  0  0  0  0  0
   13.2201   -2.3209    0.0000 C   0  0  0  0  0  0  0  0  0  0  0  0
   14.0862   -1.8209    0.0000 C   0  0  0  0  0  0  0  0  0  0  0  0
   13.2201    0.6791    0.0000 C   0  0  0  0  0  0  0  0  0  0  0  0
    5.8602   -1.1178    0.0000 H   0  0  0  0  0  0  0  0  0  0  0  0
    5.5994    1.3634    0.0000 H   0  0  0  0  0  0  0  0  0  0  0  0
    4.2077    0.3799    0.0000 H   0  0  0  0  0  0  0  0  0  0  0  0
    4.2944   -0.4452    0.0000 H   0  0  0  0  0  0  0  0  0  0  0  0
    6.8074    0.6736    0.0000 H   0  0  0  0  0  0  0  0  0  0  0  0
    6.2522    1.2902    0.0000 H   0  0  0  0  0  0  0  0  0  0  0  0
    8.0240   -0.9409    0.0000 H   0  0  0  0  0  0  0  0  0  0  0  0
    7.4870    0.3691    0.0000 H   0  0  0  0  0  0  0  0  0  0  0  0
    3.7587   -1.6000    0.0000 H   0  0  0  0  0  0  0  0  0  0  0  0
    3.2064    1.7496    0.0000 H   0  0  0  0  0  0  0  0  0  0  0  0
    3.8512    1.2811    0.0000 H   0  0  0  0  0  0  0  0  0  0  0  0
    8.8900   -1.4409    0.0000 H   0  0  0  0  0  0  0  0  0  0  0  0
    9.2000    0.6422    0.0000 H   0  0  0  0  0  0  0  0  0  0  0  0
    9.4269    1.4891    0.0000 H   0  0  0  0  0  0  0  0  0  0  0  0
    8.5800    1.7160    0.0000 H   0  0  0  0  0  0  0  0  0  0  0  0
    7.4680    1.7160    0.0000 H   0  0  0  0  0  0  0  0  0  0  0  0
    6.6210    1.4891    0.0000 H   0  0  0  0  0  0  0  0  0  0  0  0
    6.8480    0.6422    0.0000 H   0  0  0  0  0  0  0  0  0  0  0  0
    4.6012   -2.8014    0.0000 H   0  0  0  0  0  0  0  0  0  0  0  0
    5.3295   -3.8943    0.0000 H   0  0  0  0  0  0  0  0  0  0  0  0
    5.0832   -3.1363    0.0000 H   0  0  0  0  0  0  0  0  0  0  0  0
    2.5997   -2.8871    0.0000 H   0  0  0  0  0  0  0  0  0  0  0  0
   10.2235   -1.2959    0.0000 H   0  0  0  0  0  0  0  0  0  0  0  0
   11.0206   -1.2959    0.0000 H   0  0  0  0  0  0  0  0  0  0  0  0
    3.9403   -4.5113    0.0000 H   0  0  0  0  0  0  0  0  0  0  0  0
    4.4178   -5.2467    0.0000 H   0  0  0  0  0  0  0  0  0  0  0  0
    5.1532   -4.7691    0.0000 H   0  0  0  0  0  0  0  0  0  0  0  0
    4.6056    3.5574    0.0000 H   0  0  0  0  0  0  0  0  0  0  0  0
    2.0423    2.4161    0.0000 H   0  0  0  0  0  0  0  0  0  0  0  0
    3.9467    5.0373    0.0000 H   0  0  0  0  0  0  0  0  0  0  0  0
    1.3834    3.8960    0.0000 H   0  0  0  0  0  0  0  0  0  0  0  0
    2.3356    5.2066    0.0000 H   0  0  0  0  0  0  0  0  0  0  0  0
   11.8172   -2.1309    0.0000 H   0  0  0  0  0  0  0  0  0  0  0  0
   14.6231   -0.5109    0.0000 H   0  0  0  0  0  0  0  0  0  0  0  0
   13.2201   -2.9409    0.0000 H   0  0  0  0  0  0  0  0  0  0  0  0
   14.6231   -2.1309    0.0000 H   0  0  0  0  0  0  0  0  0  0  0  0
   12.6832    0.9891    0.0000 H   0  0  0  0  0  0  0  0  0  0  0  0
 12  1  1  1  0  0  0
  1 19  1  0  0  0  0
  2 15  2  0  0  0  0
  3 17  2  0  0  0  0
  4 25  2  0  0  0  0
  5 27  1  0  0  0  0
  5 34  1  0  0  0  0
  6 26  2  0  0  0  0
  7 40  2  0  0  0  0
  8 11  1  0  0  0  0
  8 14  1  0  0  0  0
  8 15  1  0  0  0  0
  9 17  1  0  0  0  0
 22  9  1  1  0  0  0
  9 49  1  0  0  0  0
 16 10  1  6  0  0  0
 10 25  1  0  0  0  0
 10 52  1  0  0  0  0
 11 13  1  0  0  0  0
 11 17  1  6  0  0  0
 11 41  1  0  0  0  0
 12 13  1  0  0  0  0
 12 14  1  0  0  0  0
 12 42  1  0  0  0  0
 13 43  1  0  0  0  0
 13 44  1  0  0  0  0
 14 45  1  0  0  0  0
 14 46  1  0  0  0  0
 15 16  1  0  0  0  0
 16 18  1  0  0  0  0
 16 47  1  0  0  0  0
 18 20  1  0  0  0  0
 18 21  1  0  0  0  0
 18 48  1  0  0  0  0
 19 23  1  0  0  0  0
 19 50  1  0  0  0  0
 19 51  1  0  0  0  0
 20 53  1  0  0  0  0
 20 54  1  0  0  0  0
 20 55  1  0  0  0  0
 21 56  1  0  0  0  0
 21 57  1  0  0  0  0
 21 58  1  0  0  0  0
 22 24  1  0  0  0  0
 22 26  1  0  0  0  0
 22 59  1  0  0  0  0
 23 29  2  0  0  0  0
 23 30  1  0  0  0  0
 24 28  1  0  0  0  0
 24 60  1  0  0  0  0
 24 61  1  0  0  0  0
 25 27  1  0  0  0  0
 26 62  1  0  0  0  0
 27 63  1  0  0  0  0
 27 64  1  0  0  0  0
 28 65  1  0  0  0  0
 28 66  1  0  0  0  0
 28 67  1  0  0  0  0
 29 31  1  0  0  0  0
 29 68  1  0  0  0  0
 30 32  2  0  0  0  0
 30 69  1  0  0  0  0
 31 33  2  0  0  0  0
 31 70  1  0  0  0  0
 32 33  1  0  0  0  0
 32 71  1  0  0  0  0
 33 72  1  0  0  0  0
 34 35  1  0  0  0  0
 34 36  2  0  0  0  0
 35 37  2  0  0  0  0
 35 40  1  0  0  0  0
 36 38  1  0  0  0  0
 36 73  1  0  0  0  0
 37 39  1  0  0  0  0
 37 74  1  0  0  0  0
 38 39  2  0  0  0  0
 38 75  1  0  0  0  0
 39 76  1  0  0  0  0
 40 77  1  0  0  0  0
M  END
> <PUBCHEM_COMPOUND_CID>
506794
> <PUBCHEM_COMPOUND_CANONICALIZED>
1
> <PUBCHEM_CACTVS_COMPLEXITY>
860
> <PUBCHEM_CACTVS_HBOND_ACCEPTOR>
7
> <PUBCHEM_CACTVS_HBOND_DONOR>
2
> <PUBCHEM_CACTVS_ROTATABLE_BOND>
14
> <PUBCHEM_CACTVS_SUBSKEYS>
AAADcfB7OAAAAAAAAAAAAAAAAAAAAWAAAAAwYAAAAAAAAAABQAAAHgAQAAAADTzhmAYyBoPABACIAilSkAICCAAkIAAIiIHOCMgOZjaEtT6XOWCm9hGYqYe6ySCOAAAAAAAIAAAAAAAAABAAAAAAAAAAAA==
> <PUBCHEM_IUPAC_OPENEYE_NAME>
(2S,4R)-4-benzyloxy-1-[(2S)-2-[[2-(2-formylphenoxy)acetyl]amino]-3-methyl-butanoyl]-N-[(1S)-1-formylpropyl]pyrrolidine-2-carboxamide
> <PUBCHEM_IUPAC_CAS_NAME>
(2S,4R)-1-[(2S)-2-[[2-(2-formylphenoxy)-1-oxoethyl]amino]-3-methyl-1-oxobutyl]-N-[(2S)-1-oxobutan-2-yl]-4-phenylmethoxy-2-pyrrolidinecarboxamide
> <PUBCHEM_IUPAC_NAME_MARKUP>
(2<I>S</I>,4<I>R</I>)-1-[(2<I>S</I>)-2-[[2-(2-formylphenoxy)acetyl]amino]-3-methylbutanoyl]-<I>N</I>-[(2<I>S</I>)-1-oxobutan-2-yl]-4-phenylmethoxypyrrolidine-2-carboxamide
> <PUBCHEM_IUPAC_NAME>
(2S,4R)-1-[(2S)-2-[[2-(2-formylphenoxy)acetyl]amino]-3-methylbutanoyl]-N-[(2S)-1-oxobutan-2-yl]-4-phenylmethoxypyrrolidine-2-carboxamide
> <PUBCHEM_IUPAC_SYSTEMATIC_NAME>
(2S,4R)-1-[(2S)-2-[2-(2-methanoylphenoxy)ethanoylamino]-3-methyl-butanoyl]-N-[(2S)-1-oxidanylidenebutan-2-yl]-4-phenylmethoxy-pyrrolidine-2-carboxamide
> <PUBCHEM_IUPAC_TRADITIONAL_NAME>
(2S,4R)-4-benzoxy-1-[(2S)-2-[[2-(2-formylphenoxy)acetyl]amino]-3-methyl-butanoyl]-N-[(1S)-1-formylpropyl]pyrrolidine-2-carboxamide
> <PUBCHEM_IUPAC_INCHI>
InChI=1S/C30H37N3O7/c1-4-23(17-35)31-29(37)25-14-24(39-18-21-10-6-5-7-11-21)15-33(25)30(38)28(20(2)3)32-27(36)19-40-26-13-9-8-12-22(26)16-34/h5-13,16-17,20,23-25,28H,4,14-15,18-19H2,1-3H3,(H,31,37)(H,32,36)/t23-,24+,25-,28-/m0/s1
> <PUBCHEM_IUPAC_INCHIKEY>
GKHGICCPODKISU-GIBNYFNHSA-N
> <PUBCHEM_XLOGP3_AA>
3
> <PUBCHEM_EXACT_MASS>
551.26315053
> <PUBCHEM_MOLECULAR_FORMULA>
C30H37N3O7
> <PUBCHEM_MOLECULAR_WEIGHT>
551.6
> <PUBCHEM_OPENEYE_CAN_SMILES>
CCC(C=O)NC(=O)C1CC(CN1C(=O)C(C(C)C)NC(=O)COC2=CC=CC=C2C=O)OCC3=CC=CC=C3
> <PUBCHEM_OPENEYE_ISO_SMILES>
CC[C@@H](C=O)NC(=O)[C@@H]1C[C@H](CN1C(=O)[C@H](C(C)C)NC(=O)COC2=CC=CC=C2C=O)OCC3=CC=CC=C3
> <PUBCHEM_CACTVS_TPSA>
131
> <PUBCHEM_MONOISOTOPIC_WEIGHT>
551.26315053
> <PUBCHEM_TOTAL_CHARGE>
0
> <PUBCHEM_HEAVY_ATOM_COUNT>
40
> <PUBCHEM_ATOM_DEF_STEREO_COUNT>
4
> <PUBCHEM_ATOM_UDEF_STEREO_COUNT>
0
> <PUBCHEM_BOND_DEF_STEREO_COUNT>
0
> <PUBCHEM_BOND_UDEF_STEREO_COUNT>
0
> <PUBCHEM_ISOTOPIC_ATOM_COUNT>
0
> <PUBCHEM_COMPONENT_COUNT>
1
> <PUBCHEM_CACTVS_TAUTO_COUNT>
-1
> <PUBCHEM_COORDINATE_TYPE>
1
5
255
> <PUBCHEM_BONDANNOTATIONS>
12  1  5
16  10  6
11  17  6
23  29  8
23  30  8
29  31  8
30  32  8
31  33  8
32  33  8
34  35  8
34  36  8
35  37  8
36  38  8
37  39  8
38  39  8
22  9  5
$$$$
