506755
  -OEChem-10302200282D
 99103  0     1  0  0  0  0  0999 V2000
    6.9744   -4.7014    0.0000 O   0  0  0  0  0  0  0  0  0  0  0  0
    8.9282   -0.8535    0.0000 O   0  0  0  0  0  0  0  0  0  0  0  0
   10.0302   -1.6541    0.0000 O   0  0  0  0  0  0  0  0  0  0  0  0
    5.4641    0.1465    0.0000 O   0  0  0  0  0  0  0  0  0  0  0  0
   13.2107   -3.3525    0.0000 O   0  0  0  0  0  0  0  0  0  0  0  0
    4.5981    0.6465    0.0000 O   0  0  0  0  0  0  0  0  0  0  0  0
    8.0622   -2.3535    0.0000 N   0  0  0  0  0  0  0  0  0  0  0  0
   10.5654   -3.3014    0.0000 N   0  0  0  0  0  0  0  0  0  0  0  0
    7.1962    0.1465    0.0000 N   0  0  0  0  0  0  0  0  0  0  0  0
    5.4641    2.1465    0.0000 N   0  0  0  0  0  0  0  0  0  0  0  0
    2.8660    1.6465    0.0000 N   0  0  0  0  0  0  0  0  0  0  0  0
    2.8660    3.6465    0.0000 N   0  0  0  0  0  0  0  0  0  0  0  0
    8.8712   -2.9413    0.0000 C   0  0  1  0  0  0  0  0  0  0  0  0
    7.5622   -3.8924    0.0000 C   0  0  2  0  0  0  0  0  0  0  0  0
    8.5622   -3.8924    0.0000 C   0  0  0  0  0  0  0  0  0  0  0  0
    7.2532   -2.9413    0.0000 C   0  0  0  0  0  0  0  0  0  0  0  0
    8.0622   -1.3535    0.0000 C   0  0  0  0  0  0  0  0  0  0  0  0
    7.1962   -0.8535    0.0000 C   0  0  2  0  0  0  0  0  0  0  0  0
    9.8222   -2.6323    0.0000 C   0  0  0  0  0  0  0  0  0  0  0  0
    6.3301   -1.3535    0.0000 C   0  0  0  0  0  0  0  0  0  0  0  0
    7.3811   -5.6149    0.0000 C   0  0  0  0  0  0  0  0  0  0  0  0
    5.4641   -0.8535    0.0000 C   0  0  0  0  0  0  0  0  0  0  0  0
    6.3301   -2.3535    0.0000 C   0  0  0  0  0  0  0  0  0  0  0  0
   11.5165   -2.9924    0.0000 C   0  0  1  0  0  0  0  0  0  0  0  0
    6.3301    0.6465    0.0000 C   0  0  0  0  0  0  0  0  0  0  0  0
    6.3301    1.6465    0.0000 C   0  0  2  0  0  0  0  0  0  0  0  0
    6.7933   -6.4239    0.0000 C   0  0  0  0  0  0  0  0  0  0  0  0
   11.7244   -2.0142    0.0000 C   0  0  0  0  0  0  0  0  0  0  0  0
    7.1962    2.1465    0.0000 C   0  0  0  0  0  0  0  0  0  0  0  0
   12.2596   -3.6615    0.0000 C   0  0  0  0  0  0  0  0  0  0  0  0
   12.6754   -1.7052    0.0000 C   0  0  0  0  0  0  0  0  0  0  0  0
    7.2001   -7.3375    0.0000 C   0  0  0  0  0  0  0  0  0  0  0  0
    5.7988   -6.3194    0.0000 C   0  0  0  0  0  0  0  0  0  0  0  0
    7.1962    3.1465    0.0000 C   0  0  0  0  0  0  0  0  0  0  0  0
    6.6123   -8.1465    0.0000 C   0  0  0  0  0  0  0  0  0  0  0  0
    5.2110   -7.1284    0.0000 C   0  0  0  0  0  0  0  0  0  0  0  0
    4.5981    1.6465    0.0000 C   0  0  0  0  0  0  0  0  0  0  0  0
    5.6178   -8.0420    0.0000 C   0  0  0  0  0  0  0  0  0  0  0  0
    8.0622    3.6465    0.0000 C   0  0  0  0  0  0  0  0  0  0  0  0
    6.3301    3.6465    0.0000 C   0  0  0  0  0  0  0  0  0  0  0  0
    8.0622    4.6465    0.0000 C   0  0  0  0  0  0  0  0  0  0  0  0
    6.3301    4.6465    0.0000 C   0  0  0  0  0  0  0  0  0  0  0  0
    7.1962    5.1465    0.0000 C   0  0  0  0  0  0  0  0  0  0  0  0
    3.7320    2.1465    0.0000 C   0  0  0  0  0  0  0  0  0  0  0  0
    7.1962    6.1465    0.0000 C   0  0  0  0  0  0  0  0  0  0  0  0
    3.7320    3.1465    0.0000 C   0  0  0  0  0  0  0  0  0  0  0  0
    6.3301    6.6465    0.0000 C   0  0  0  0  0  0  0  0  0  0  0  0
    8.0622    6.6465    0.0000 C   0  0  0  0  0  0  0  0  0  0  0  0
    2.0000    2.1465    0.0000 C   0  0  0  0  0  0  0  0  0  0  0  0
    6.3301    7.6465    0.0000 C   0  0  0  0  0  0  0  0  0  0  0  0
    8.0622    7.6465    0.0000 C   0  0  0  0  0  0  0  0  0  0  0  0
    2.0000    3.1465    0.0000 C   0  0  0  0  0  0  0  0  0  0  0  0
    7.1962    8.1465    0.0000 C   0  0  0  0  0  0  0  0  0  0  0  0
    8.9682   -2.3289    0.0000 H   0  0  0  0  0  0  0  0  0  0  0  0
    6.9498   -3.7954    0.0000 H   0  0  0  0  0  0  0  0  0  0  0  0
    8.4974   -4.5089    0.0000 H   0  0  0  0  0  0  0  0  0  0  0  0
    9.1686   -4.0213    0.0000 H   0  0  0  0  0  0  0  0  0  0  0  0
    6.9432   -2.4044    0.0000 H   0  0  0  0  0  0  0  0  0  0  0  0
    6.6868   -3.1935    0.0000 H   0  0  0  0  0  0  0  0  0  0  0  0
    6.6592   -0.5435    0.0000 H   0  0  0  0  0  0  0  0  0  0  0  0
    6.8671   -1.6635    0.0000 H   0  0  0  0  0  0  0  0  0  0  0  0
   10.4365   -3.9079    0.0000 H   0  0  0  0  0  0  0  0  0  0  0  0
    7.7331    0.4565    0.0000 H   0  0  0  0  0  0  0  0  0  0  0  0
    7.8118   -6.0609    0.0000 H   0  0  0  0  0  0  0  0  0  0  0  0
    7.8951   -5.2682    0.0000 H   0  0  0  0  0  0  0  0  0  0  0  0
    5.7741   -0.3166    0.0000 H   0  0  0  0  0  0  0  0  0  0  0  0
    4.9272   -0.5435    0.0000 H   0  0  0  0  0  0  0  0  0  0  0  0
    5.1541   -1.3904    0.0000 H   0  0  0  0  0  0  0  0  0  0  0  0
    5.7101   -2.3535    0.0000 H   0  0  0  0  0  0  0  0  0  0  0  0
    6.3301   -2.9735    0.0000 H   0  0  0  0  0  0  0  0  0  0  0  0
    6.9501   -2.3535    0.0000 H   0  0  0  0  0  0  0  0  0  0  0  0
   11.0557   -2.5775    0.0000 H   0  0  0  0  0  0  0  0  0  0  0  0
    6.3301    2.2665    0.0000 H   0  0  0  0  0  0  0  0  0  0  0  0
   11.6381   -1.4003    0.0000 H   0  0  0  0  0  0  0  0  0  0  0  0
   11.1047   -1.9926    0.0000 H   0  0  0  0  0  0  0  0  0  0  0  0
    7.4082    1.5639    0.0000 H   0  0  0  0  0  0  0  0  0  0  0  0
    7.8067    2.2542    0.0000 H   0  0  0  0  0  0  0  0  0  0  0  0
   12.1307   -4.2680    0.0000 H   0  0  0  0  0  0  0  0  0  0  0  0
   12.8670   -2.2949    0.0000 H   0  0  0  0  0  0  0  0  0  0  0  0
   13.2651   -1.5136    0.0000 H   0  0  0  0  0  0  0  0  0  0  0  0
   12.4838   -1.1156    0.0000 H   0  0  0  0  0  0  0  0  0  0  0  0
    7.8167   -7.4023    0.0000 H   0  0  0  0  0  0  0  0  0  0  0  0
    5.5466   -5.7530    0.0000 H   0  0  0  0  0  0  0  0  0  0  0  0
    5.4641    2.7665    0.0000 H   0  0  0  0  0  0  0  0  0  0  0  0
    6.8645   -8.7129    0.0000 H   0  0  0  0  0  0  0  0  0  0  0  0
    4.5944   -7.0636    0.0000 H   0  0  0  0  0  0  0  0  0  0  0  0
    5.2534   -8.5436    0.0000 H   0  0  0  0  0  0  0  0  0  0  0  0
    8.5991    3.3365    0.0000 H   0  0  0  0  0  0  0  0  0  0  0  0
    5.7932    3.3365    0.0000 H   0  0  0  0  0  0  0  0  0  0  0  0
    8.5991    4.9565    0.0000 H   0  0  0  0  0  0  0  0  0  0  0  0
    5.7932    4.9565    0.0000 H   0  0  0  0  0  0  0  0  0  0  0  0
    4.2690    3.4565    0.0000 H   0  0  0  0  0  0  0  0  0  0  0  0
    5.7932    6.3365    0.0000 H   0  0  0  0  0  0  0  0  0  0  0  0
    8.5991    6.3365    0.0000 H   0  0  0  0  0  0  0  0  0  0  0  0
    1.4631    1.8365    0.0000 H   0  0  0  0  0  0  0  0  0  0  0  0
    5.7932    7.9565    0.0000 H   0  0  0  0  0  0  0  0  0  0  0  0
    8.5991    7.9565    0.0000 H   0  0  0  0  0  0  0  0  0  0  0  0
    1.4631    3.4565    0.0000 H   0  0  0  0  0  0  0  0  0  0  0  0
    7.1962    8.7665    0.0000 H   0  0  0  0  0  0  0  0  0  0  0  0
 14  1  1  1  0  0  0
  1 21  1  0  0  0  0
  2 17  2  0  0  0  0
  3 19  2  0  0  0  0
  4 25  2  0  0  0  0
  5 30  2  0  0  0  0
  6 37  2  0  0  0  0
  7 13  1  0  0  0  0
  7 16  1  0  0  0  0
  7 17  1  0  0  0  0
  8 19  1  0  0  0  0
 24  8  1  1  0  0  0
  8 62  1  0  0  0  0
 18  9  1  6  0  0  0
  9 25  1  0  0  0  0
  9 63  1  0  0  0  0
 26 10  1  1  0  0  0
 10 37  1  0  0  0  0
 10 84  1  0  0  0  0
 11 44  2  0  0  0  0
 11 49  1  0  0  0  0
 12 46  2  0  0  0  0
 12 52  1  0  0  0  0
 13 15  1  0  0  0  0
 13 19  1  6  0  0  0
 13 54  1  0  0  0  0
 14 15  1  0  0  0  0
 14 16  1  0  0  0  0
 14 55  1  0  0  0  0
 15 56  1  0  0  0  0
 15 57  1  0  0  0  0
 16 58  1  0  0  0  0
 16 59  1  0  0  0  0
 17 18  1  0  0  0  0
 18 20  1  0  0  0  0
 18 60  1  0  0  0  0
 20 22  1  0  0  0  0
 20 23  1  0  0  0  0
 20 61  1  0  0  0  0
 21 27  1  0  0  0  0
 21 64  1  0  0  0  0
 21 65  1  0  0  0  0
 22 66  1  0  0  0  0
 22 67  1  0  0  0  0
 22 68  1  0  0  0  0
 23 69  1  0  0  0  0
 23 70  1  0  0  0  0
 23 71  1  0  0  0  0
 24 28  1  0  0  0  0
 24 30  1  0  0  0  0
 24 72  1  0  0  0  0
 25 26  1  0  0  0  0
 26 29  1  0  0  0  0
 26 73  1  0  0  0  0
 27 32  2  0  0  0  0
 27 33  1  0  0  0  0
 28 31  1  0  0  0  0
 28 74  1  0  0  0  0
 28 75  1  0  0  0  0
 29 34  1  0  0  0  0
 29 76  1  0  0  0  0
 29 77  1  0  0  0  0
 30 78  1  0  0  0  0
 31 79  1  0  0  0  0
 31 80  1  0  0  0  0
 31 81  1  0  0  0  0
 32 35  1  0  0  0  0
 32 82  1  0  0  0  0
 33 36  2  0  0  0  0
 33 83  1  0  0  0  0
 34 39  2  0  0  0  0
 34 40  1  0  0  0  0
 35 38  2  0  0  0  0
 35 85  1  0  0  0  0
 36 38  1  0  0  0  0
 36 86  1  0  0  0  0
 37 44  1  0  0  0  0
 38 87  1  0  0  0  0
 39 41  1  0  0  0  0
 39 88  1  0  0  0  0
 40 42  2  0  0  0  0
 40 89  1  0  0  0  0
 41 43  2  0  0  0  0
 41 90  1  0  0  0  0
 42 43  1  0  0  0  0
 42 91  1  0  0  0  0
 43 45  1  0  0  0  0
 44 46  1  0  0  0  0
 45 47  2  0  0  0  0
 45 48  1  0  0  0  0
 46 92  1  0  0  0  0
 47 50  1  0  0  0  0
 47 93  1  0  0  0  0
 48 51  2  0  0  0  0
 48 94  1  0  0  0  0
 49 52  2  0  0  0  0
 49 95  1  0  0  0  0
 50 53  2  0  0  0  0
 50 96  1  0  0  0  0
 51 53  1  0  0  0  0
 51 97  1  0  0  0  0
 52 98  1  0  0  0  0
 53 99  1  0  0  0  0
M  END
> <PUBCHEM_COMPOUND_CID>
506755
> <PUBCHEM_COMPOUND_CANONICALIZED>
1
> <PUBCHEM_CACTVS_COMPLEXITY>
1200
> <PUBCHEM_CACTVS_HBOND_ACCEPTOR>
8
> <PUBCHEM_CACTVS_HBOND_DONOR>
3
> <PUBCHEM_CACTVS_ROTATABLE_BOND>
16
> <PUBCHEM_CACTVS_SUBSKEYS>
AAADcfB/uAAAAAAAAAAAAAAAAAAAAWAAAAA8YMEAAAAAAAAB1AAAHgAQAAAADTzhngY+gJPIFACoAz131ACCgCQ3EiAI2IG4fMgKZnrA8TmXMIgm1gHYqMe6yeCOwAAAAAAAAACAAAAAAAAAAAAAAAAAAA==
> <PUBCHEM_IUPAC_OPENEYE_NAME>
N-[(1S)-2-[[(1S)-1-[(2S,4R)-4-benzyloxy-2-[[(1S)-1-formylpropyl]carbamoyl]pyrrolidine-1-carbonyl]-2-methyl-propyl]amino]-2-oxo-1-[(4-phenylphenyl)methyl]ethyl]pyrazine-2-carboxamide
> <PUBCHEM_IUPAC_CAS_NAME>
N-[(2S)-1-[[(2S)-3-methyl-1-oxo-1-[(2S,4R)-2-[oxo-[[(2S)-1-oxobutan-2-yl]amino]methyl]-4-phenylmethoxy-1-pyrrolidinyl]butan-2-yl]amino]-1-oxo-3-(4-phenylphenyl)propan-2-yl]-2-pyrazinecarboxamide
> <PUBCHEM_IUPAC_NAME_MARKUP>
<I>N</I>-[(2<I>S</I>)-1-[[(2<I>S</I>)-3-methyl-1-oxo-1-[(2<I>S</I>,4<I>R</I>)-2-[[(2<I>S</I>)-1-oxobutan-2-yl]carbamoyl]-4-phenylmethoxypyrrolidin-1-yl]butan-2-yl]amino]-1-oxo-3-(4-phenylphenyl)propan-2-yl]pyrazine-2-carboxamide
> <PUBCHEM_IUPAC_NAME>
N-[(2S)-1-[[(2S)-3-methyl-1-oxo-1-[(2S,4R)-2-[[(2S)-1-oxobutan-2-yl]carbamoyl]-4-phenylmethoxypyrrolidin-1-yl]butan-2-yl]amino]-1-oxo-3-(4-phenylphenyl)propan-2-yl]pyrazine-2-carboxamide
> <PUBCHEM_IUPAC_SYSTEMATIC_NAME>
N-[(2S)-1-[[(2S)-3-methyl-1-oxidanylidene-1-[(2S,4R)-2-[[(2S)-1-oxidanylidenebutan-2-yl]carbamoyl]-4-phenylmethoxy-pyrrolidin-1-yl]butan-2-yl]amino]-1-oxidanylidene-3-(4-phenylphenyl)propan-2-yl]pyrazine-2-carboxamide
> <PUBCHEM_IUPAC_TRADITIONAL_NAME>
N-[(1S)-2-[[(1S)-1-[(2S,4R)-4-benzoxy-2-[[(1S)-1-formylpropyl]carbamoyl]pyrrolidine-1-carbonyl]-2-methyl-propyl]amino]-2-keto-1-(4-phenylbenzyl)ethyl]pyrazinamide
> <PUBCHEM_IUPAC_INCHI>
InChI=1S/C41H46N6O6/c1-4-32(25-48)44-40(51)36-22-33(53-26-29-11-7-5-8-12-29)24-47(36)41(52)37(27(2)3)46-38(49)34(45-39(50)35-23-42-19-20-43-35)21-28-15-17-31(18-16-28)30-13-9-6-10-14-30/h5-20,23,25,27,32-34,36-37H,4,21-22,24,26H2,1-3H3,(H,44,51)(H,45,50)(H,46,49)/t32-,33+,34-,36-,37-/m0/s1
> <PUBCHEM_IUPAC_INCHIKEY>
GRDMPIKPWXKJCL-CVXAHBFTSA-N
> <PUBCHEM_XLOGP3_AA>
4.6
> <PUBCHEM_EXACT_MASS>
718.34788321
> <PUBCHEM_MOLECULAR_FORMULA>
C41H46N6O6
> <PUBCHEM_MOLECULAR_WEIGHT>
718.8
> <PUBCHEM_OPENEYE_CAN_SMILES>
CCC(C=O)NC(=O)C1CC(CN1C(=O)C(C(C)C)NC(=O)C(CC2=CC=C(C=C2)C3=CC=CC=C3)NC(=O)C4=NC=CN=C4)OCC5=CC=CC=C5
> <PUBCHEM_OPENEYE_ISO_SMILES>
CC[C@@H](C=O)NC(=O)[C@@H]1C[C@H](CN1C(=O)[C@H](C(C)C)NC(=O)[C@H](CC2=CC=C(C=C2)C3=CC=CC=C3)NC(=O)C4=NC=CN=C4)OCC5=CC=CC=C5
> <PUBCHEM_CACTVS_TPSA>
160
> <PUBCHEM_MONOISOTOPIC_WEIGHT>
718.34788321
> <PUBCHEM_TOTAL_CHARGE>
0
> <PUBCHEM_HEAVY_ATOM_COUNT>
53
> <PUBCHEM_ATOM_DEF_STEREO_COUNT>
5
> <PUBCHEM_ATOM_UDEF_STEREO_COUNT>
0
> <PUBCHEM_BOND_DEF_STEREO_COUNT>
0
> <PUBCHEM_BOND_UDEF_STEREO_COUNT>
0
> <PUBCHEM_ISOTOPIC_ATOM_COUNT>
0
> <PUBCHEM_COMPONENT_COUNT>
1
> <PUBCHEM_CACTVS_TAUTO_COUNT>
-1
> <PUBCHEM_COORDINATE_TYPE>
1
5
255
> <PUBCHEM_BONDANNOTATIONS>
14  1  5
26  10  5
11  44  8
11  49  8
12  46  8
12  52  8
13  19  6
27  32  8
27  33  8
32  35  8
33  36  8
34  39  8
34  40  8
35  38  8
36  38  8
39  41  8
40  42  8
41  43  8
42  43  8
44  46  8
45  47  8
45  48  8
47  50  8
48  51  8
49  52  8
50  53  8
51  53  8
24  8  5
18  9  6
$$$$
