506772
  -OEChem-10302200282D
 77 79  0     1  0  0  0  0  0999 V2000
    6.2524   -1.8419    0.0000 O   0  0  0  0  0  0  0  0  0  0  0  0
    6.9334    2.4195    0.0000 O   0  0  0  0  0  0  0  0  0  0  0  0
    5.5714    2.4195    0.0000 O   0  0  0  0  0  0  0  0  0  0  0  0
   10.3238    1.1923    0.0000 O   0  0  0  0  0  0  0  0  0  0  0  0
    2.0000    2.9149    0.0000 O   0  0  0  0  0  0  0  0  0  0  0  0
    6.7524    0.6969    0.0000 N   0  0  0  0  0  0  0  0  0  0  0  0
    4.1701    1.4014    0.0000 N   0  0  0  0  0  0  0  0  0  0  0  0
    8.9225    2.2104    0.0000 N   0  0  0  0  0  0  0  0  0  0  0  0
    5.7524    0.6969    0.0000 C   0  0  1  0  0  0  0  0  0  0  0  0
    6.2524   -0.8419    0.0000 C   0  0  2  0  0  0  0  0  0  0  0  0
    5.4434   -0.2542    0.0000 C   0  0  0  0  0  0  0  0  0  0  0  0
    7.0614   -0.2542    0.0000 C   0  0  0  0  0  0  0  0  0  0  0  0
    7.3402    1.5059    0.0000 C   0  0  0  0  0  0  0  0  0  0  0  0
    8.3347    1.4014    0.0000 C   0  0  2  0  0  0  0  0  0  0  0  0
    5.1646    1.5059    0.0000 C   0  0  0  0  0  0  0  0  0  0  0  0
    8.7414    0.4878    0.0000 C   0  0  0  0  0  0  0  0  0  0  0  0
    5.3864   -2.3419    0.0000 C   0  0  0  0  0  0  0  0  0  0  0  0
    9.7360    0.3833    0.0000 C   0  0  0  0  0  0  0  0  0  0  0  0
    8.1537   -0.3212    0.0000 C   0  0  0  0  0  0  0  0  0  0  0  0
    3.5823    2.2104    0.0000 C   0  0  1  0  0  0  0  0  0  0  0  0
    9.9170    2.1059    0.0000 C   0  0  0  0  0  0  0  0  0  0  0  0
    5.3864   -3.3419    0.0000 C   0  0  0  0  0  0  0  0  0  0  0  0
    3.9890    3.1239    0.0000 C   0  0  0  0  0  0  0  0  0  0  0  0
   10.5048    2.9149    0.0000 C   0  0  0  0  0  0  0  0  0  0  0  0
    2.5878    2.1059    0.0000 C   0  0  0  0  0  0  0  0  0  0  0  0
    3.4013    3.9330    0.0000 C   0  0  0  0  0  0  0  0  0  0  0  0
   11.4993    2.8104    0.0000 C   0  0  0  0  0  0  0  0  0  0  0  0
    4.5204   -3.8419    0.0000 C   0  0  0  0  0  0  0  0  0  0  0  0
    6.2524   -3.8419    0.0000 C   0  0  0  0  0  0  0  0  0  0  0  0
    4.5204   -4.8419    0.0000 C   0  0  0  0  0  0  0  0  0  0  0  0
    6.2524   -4.8419    0.0000 C   0  0  0  0  0  0  0  0  0  0  0  0
   12.0871    3.6194    0.0000 C   0  0  0  0  0  0  0  0  0  0  0  0
    5.3864   -5.3419    0.0000 C   0  0  0  0  0  0  0  0  0  0  0  0
   11.6804    4.5329    0.0000 C   0  0  0  0  0  0  0  0  0  0  0  0
   13.0816    3.5148    0.0000 C   0  0  0  0  0  0  0  0  0  0  0  0
   12.2682    5.3419    0.0000 C   0  0  0  0  0  0  0  0  0  0  0  0
   13.6694    4.3239    0.0000 C   0  0  0  0  0  0  0  0  0  0  0  0
   13.2627    5.2374    0.0000 C   0  0  0  0  0  0  0  0  0  0  0  0
    6.0339    1.2493    0.0000 H   0  0  0  0  0  0  0  0  0  0  0  0
    5.7000   -1.1234    0.0000 H   0  0  0  0  0  0  0  0  0  0  0  0
    4.8770   -0.0020    0.0000 H   0  0  0  0  0  0  0  0  0  0  0  0
    5.1334   -0.7911    0.0000 H   0  0  0  0  0  0  0  0  0  0  0  0
    7.3714   -0.7911    0.0000 H   0  0  0  0  0  0  0  0  0  0  0  0
    7.6278   -0.0020    0.0000 H   0  0  0  0  0  0  0  0  0  0  0  0
    8.0825    1.9678    0.0000 H   0  0  0  0  0  0  0  0  0  0  0  0
    9.1059    0.9894    0.0000 H   0  0  0  0  0  0  0  0  0  0  0  0
    3.9179    0.8350    0.0000 H   0  0  0  0  0  0  0  0  0  0  0  0
    8.6703    2.7768    0.0000 H   0  0  0  0  0  0  0  0  0  0  0  0
    5.1743   -1.7593    0.0000 H   0  0  0  0  0  0  0  0  0  0  0  0
    4.7758   -2.4496    0.0000 H   0  0  0  0  0  0  0  0  0  0  0  0
    9.6712   -0.2333    0.0000 H   0  0  0  0  0  0  0  0  0  0  0  0
   10.3526    0.3185    0.0000 H   0  0  0  0  0  0  0  0  0  0  0  0
    9.8008    0.9999    0.0000 H   0  0  0  0  0  0  0  0  0  0  0  0
    7.6521    0.0433    0.0000 H   0  0  0  0  0  0  0  0  0  0  0  0
    7.7892   -0.8228    0.0000 H   0  0  0  0  0  0  0  0  0  0  0  0
    8.6552   -0.6856    0.0000 H   0  0  0  0  0  0  0  0  0  0  0  0
    3.3301    1.6440    0.0000 H   0  0  0  0  0  0  0  0  0  0  0  0
    4.5030    2.7772    0.0000 H   0  0  0  0  0  0  0  0  0  0  0  0
    4.4197    3.5699    0.0000 H   0  0  0  0  0  0  0  0  0  0  0  0
   10.6757    3.5109    0.0000 H   0  0  0  0  0  0  0  0  0  0  0  0
    9.9476    3.1867    0.0000 H   0  0  0  0  0  0  0  0  0  0  0  0
    2.3356    1.5395    0.0000 H   0  0  0  0  0  0  0  0  0  0  0  0
    3.9028    4.2974    0.0000 H   0  0  0  0  0  0  0  0  0  0  0  0
    3.0368    4.4346    0.0000 H   0  0  0  0  0  0  0  0  0  0  0  0
    2.8997    3.5685    0.0000 H   0  0  0  0  0  0  0  0  0  0  0  0
   11.3284    2.2144    0.0000 H   0  0  0  0  0  0  0  0  0  0  0  0
   12.0566    2.5386    0.0000 H   0  0  0  0  0  0  0  0  0  0  0  0
    3.9834   -3.5319    0.0000 H   0  0  0  0  0  0  0  0  0  0  0  0
    6.7893   -3.5319    0.0000 H   0  0  0  0  0  0  0  0  0  0  0  0
    3.9834   -5.1519    0.0000 H   0  0  0  0  0  0  0  0  0  0  0  0
    6.7893   -5.1519    0.0000 H   0  0  0  0  0  0  0  0  0  0  0  0
    5.3864   -5.9619    0.0000 H   0  0  0  0  0  0  0  0  0  0  0  0
   11.0638    4.5977    0.0000 H   0  0  0  0  0  0  0  0  0  0  0  0
   13.3338    2.9484    0.0000 H   0  0  0  0  0  0  0  0  0  0  0  0
   12.0160    5.9083    0.0000 H   0  0  0  0  0  0  0  0  0  0  0  0
   14.2860    4.2591    0.0000 H   0  0  0  0  0  0  0  0  0  0  0  0
   13.6271    5.7390    0.0000 H   0  0  0  0  0  0  0  0  0  0  0  0
 10  1  1  6  0  0  0
  1 17  1  0  0  0  0
  2 13  2  0  0  0  0
  3 15  2  0  0  0  0
  4 21  2  0  0  0  0
  5 25  2  0  0  0  0
  6  9  1  0  0  0  0
  6 12  1  0  0  0  0
  6 13  1  0  0  0  0
  7 15  1  0  0  0  0
 20  7  1  6  0  0  0
  7 47  1  0  0  0  0
 14  8  1  1  0  0  0
  8 21  1  0  0  0  0
  8 48  1  0  0  0  0
  9 11  1  0  0  0  0
  9 15  1  1  0  0  0
  9 39  1  0  0  0  0
 10 11  1  0  0  0  0
 10 12  1  0  0  0  0
 10 40  1  0  0  0  0
 11 41  1  0  0  0  0
 11 42  1  0  0  0  0
 12 43  1  0  0  0  0
 12 44  1  0  0  0  0
 13 14  1  0  0  0  0
 14 16  1  0  0  0  0
 14 45  1  0  0  0  0
 16 18  1  0  0  0  0
 16 19  1  0  0  0  0
 16 46  1  0  0  0  0
 17 22  1  0  0  0  0
 17 49  1  0  0  0  0
 17 50  1  0  0  0  0
 18 51  1  0  0  0  0
 18 52  1  0  0  0  0
 18 53  1  0  0  0  0
 19 54  1  0  0  0  0
 19 55  1  0  0  0  0
 19 56  1  0  0  0  0
 20 23  1  0  0  0  0
 20 25  1  0  0  0  0
 20 57  1  0  0  0  0
 21 24  1  0  0  0  0
 22 28  2  0  0  0  0
 22 29  1  0  0  0  0
 23 26  1  0  0  0  0
 23 58  1  0  0  0  0
 23 59  1  0  0  0  0
 24 27  1  0  0  0  0
 24 60  1  0  0  0  0
 24 61  1  0  0  0  0
 25 62  1  0  0  0  0
 26 63  1  0  0  0  0
 26 64  1  0  0  0  0
 26 65  1  0  0  0  0
 27 32  1  0  0  0  0
 27 66  1  0  0  0  0
 27 67  1  0  0  0  0
 28 30  1  0  0  0  0
 28 68  1  0  0  0  0
 29 31  2  0  0  0  0
 29 69  1  0  0  0  0
 30 33  2  0  0  0  0
 30 70  1  0  0  0  0
 31 33  1  0  0  0  0
 31 71  1  0  0  0  0
 32 34  2  0  0  0  0
 32 35  1  0  0  0  0
 33 72  1  0  0  0  0
 34 36  1  0  0  0  0
 34 73  1  0  0  0  0
 35 37  2  0  0  0  0
 35 74  1  0  0  0  0
 36 38  2  0  0  0  0
 36 75  1  0  0  0  0
 37 38  1  0  0  0  0
 37 76  1  0  0  0  0
 38 77  1  0  0  0  0
M  END
> <PUBCHEM_COMPOUND_CID>
506772
> <PUBCHEM_COMPOUND_CANONICALIZED>
1
> <PUBCHEM_CACTVS_COMPLEXITY>
776
> <PUBCHEM_CACTVS_HBOND_ACCEPTOR>
5
> <PUBCHEM_CACTVS_HBOND_DONOR>
2
> <PUBCHEM_CACTVS_ROTATABLE_BOND>
13
> <PUBCHEM_CACTVS_SUBSKEYS>
AAADcfB7OAAAAAAAAAAAAAAAAAAAAWAAAAAwYAAAAAAAAAABQAAAHgAQAAAADTzhmAYyAIPABACIAilSkAACAAAgAAAIiIGICIgKZjKAsTiXMAAm1gGYqAe6yaCOAAAAAAAAAAAAAAAAAAAAAAAAAAAAAA==
> <PUBCHEM_IUPAC_OPENEYE_NAME>
(2S,4R)-4-benzyloxy-N-[(1S)-1-formylpropyl]-1-[(2S)-3-methyl-2-(3-phenylpropanoylamino)butanoyl]pyrrolidine-2-carboxamide
> <PUBCHEM_IUPAC_CAS_NAME>
(2S,4R)-1-[(2S)-3-methyl-1-oxo-2-[(1-oxo-3-phenylpropyl)amino]butyl]-N-[(2S)-1-oxobutan-2-yl]-4-phenylmethoxy-2-pyrrolidinecarboxamide
> <PUBCHEM_IUPAC_NAME_MARKUP>
(2<I>S</I>,4<I>R</I>)-1-[(2<I>S</I>)-3-methyl-2-(3-phenylpropanoylamino)butanoyl]-<I>N</I>-[(2<I>S</I>)-1-oxobutan-2-yl]-4-phenylmethoxypyrrolidine-2-carboxamide
> <PUBCHEM_IUPAC_NAME>
(2S,4R)-1-[(2S)-3-methyl-2-(3-phenylpropanoylamino)butanoyl]-N-[(2S)-1-oxobutan-2-yl]-4-phenylmethoxypyrrolidine-2-carboxamide
> <PUBCHEM_IUPAC_SYSTEMATIC_NAME>
(2S,4R)-1-[(2S)-3-methyl-2-(3-phenylpropanoylamino)butanoyl]-N-[(2S)-1-oxidanylidenebutan-2-yl]-4-phenylmethoxy-pyrrolidine-2-carboxamide
> <PUBCHEM_IUPAC_TRADITIONAL_NAME>
(2S,4R)-4-benzoxy-N-[(1S)-1-formylpropyl]-1-[(2S)-2-(hydrocinnamoylamino)-3-methyl-butanoyl]pyrrolidine-2-carboxamide
> <PUBCHEM_IUPAC_INCHI>
InChI=1S/C30H39N3O5/c1-4-24(19-34)31-29(36)26-17-25(38-20-23-13-9-6-10-14-23)18-33(26)30(37)28(21(2)3)32-27(35)16-15-22-11-7-5-8-12-22/h5-14,19,21,24-26,28H,4,15-18,20H2,1-3H3,(H,31,36)(H,32,35)/t24-,25+,26-,28-/m0/s1
> <PUBCHEM_IUPAC_INCHIKEY>
ZNVDTDOCEYKGJE-RVUATISTSA-N
> <PUBCHEM_XLOGP3_AA>
3.7
> <PUBCHEM_EXACT_MASS>
521.28897135
> <PUBCHEM_MOLECULAR_FORMULA>
C30H39N3O5
> <PUBCHEM_MOLECULAR_WEIGHT>
521.6
> <PUBCHEM_OPENEYE_CAN_SMILES>
CCC(C=O)NC(=O)C1CC(CN1C(=O)C(C(C)C)NC(=O)CCC2=CC=CC=C2)OCC3=CC=CC=C3
> <PUBCHEM_OPENEYE_ISO_SMILES>
CC[C@@H](C=O)NC(=O)[C@@H]1C[C@H](CN1C(=O)[C@H](C(C)C)NC(=O)CCC2=CC=CC=C2)OCC3=CC=CC=C3
> <PUBCHEM_CACTVS_TPSA>
105
> <PUBCHEM_MONOISOTOPIC_WEIGHT>
521.28897135
> <PUBCHEM_TOTAL_CHARGE>
0
> <PUBCHEM_HEAVY_ATOM_COUNT>
38
> <PUBCHEM_ATOM_DEF_STEREO_COUNT>
4
> <PUBCHEM_ATOM_UDEF_STEREO_COUNT>
0
> <PUBCHEM_BOND_DEF_STEREO_COUNT>
0
> <PUBCHEM_BOND_UDEF_STEREO_COUNT>
0
> <PUBCHEM_ISOTOPIC_ATOM_COUNT>
0
> <PUBCHEM_COMPONENT_COUNT>
1
> <PUBCHEM_CACTVS_TAUTO_COUNT>
-1
> <PUBCHEM_COORDINATE_TYPE>
1
5
255
> <PUBCHEM_BONDANNOTATIONS>
10  1  6
22  28  8
22  29  8
28  30  8
29  31  8
30  33  8
31  33  8
32  34  8
32  35  8
34  36  8
35  37  8
36  38  8
37  38  8
20  7  6
14  8  5
9  15  5
$$$$
