506789
  -OEChem-10302200282D
 78 80  0     1  0  0  0  0  0999 V2000
    8.0413    1.0028    0.0000 O   0  0  0  0  0  0  0  0  0  0  0  0
    3.7320    0.7709    0.0000 O   0  0  0  0  0  0  0  0  0  0  0  0
    3.8744    2.1255    0.0000 O   0  0  0  0  0  0  0  0  0  0  0  0
    4.5981   -2.7291    0.0000 O   0  0  0  0  0  0  0  0  0  0  0  0
    2.0000   -2.2291    0.0000 O   0  0  0  0  0  0  0  0  0  0  0  0
    3.7550    5.7291    0.0000 O   0  0  0  0  0  0  0  0  0  0  0  0
    5.4641    0.7709    0.0000 N   0  0  0  0  0  0  0  0  0  0  0  0
    5.0334    3.4127    0.0000 N   0  0  0  0  0  0  0  0  0  0  0  0
    3.7320   -1.2291    0.0000 N   0  0  0  0  0  0  0  0  0  0  0  0
    5.5686    1.7654    0.0000 C   0  0  1  0  0  0  0  0  0  0  0  0
    7.0468    1.1073    0.0000 C   0  0  2  0  0  0  0  0  0  0  0  0
    6.5468    1.9733    0.0000 C   0  0  0  0  0  0  0  0  0  0  0  0
    6.3776    0.3642    0.0000 C   0  0  0  0  0  0  0  0  0  0  0  0
    4.5981    0.2709    0.0000 C   0  0  0  0  0  0  0  0  0  0  0  0
    4.5981   -0.7291    0.0000 C   0  0  2  0  0  0  0  0  0  0  0  0
    4.8255    2.4346    0.0000 C   0  0  0  0  0  0  0  0  0  0  0  0
    5.4641   -1.2291    0.0000 C   0  0  0  0  0  0  0  0  0  0  0  0
    8.6291    1.8118    0.0000 C   0  0  0  0  0  0  0  0  0  0  0  0
    5.4641   -2.2291    0.0000 C   0  0  0  0  0  0  0  0  0  0  0  0
    6.3301   -0.7291    0.0000 C   0  0  0  0  0  0  0  0  0  0  0  0
    4.2902    4.0818    0.0000 C   0  0  1  0  0  0  0  0  0  0  0  0
    3.7320   -2.2291    0.0000 C   0  0  0  0  0  0  0  0  0  0  0  0
    9.6236    1.7073    0.0000 C   0  0  0  0  0  0  0  0  0  0  0  0
    3.3392    3.7728    0.0000 C   0  0  0  0  0  0  0  0  0  0  0  0
    2.8660   -2.7291    0.0000 C   0  0  3  0  0  0  0  0  0  0  0  0
    4.4982    5.0600    0.0000 C   0  0  0  0  0  0  0  0  0  0  0  0
    2.5960    4.4419    0.0000 C   0  0  0  0  0  0  0  0  0  0  0  0
   10.0303    0.7937    0.0000 C   0  0  0  0  0  0  0  0  0  0  0  0
   10.2114    2.5163    0.0000 C   0  0  0  0  0  0  0  0  0  0  0  0
    2.8660   -3.7291    0.0000 C   0  0  0  0  0  0  0  0  0  0  0  0
   11.0249    0.6892    0.0000 C   0  0  0  0  0  0  0  0  0  0  0  0
   11.2059    2.4118    0.0000 C   0  0  0  0  0  0  0  0  0  0  0  0
   11.6127    1.4982    0.0000 C   0  0  0  0  0  0  0  0  0  0  0  0
    3.7320   -4.2291    0.0000 C   0  0  0  0  0  0  0  0  0  0  0  0
    2.0000   -4.2291    0.0000 C   0  0  0  0  0  0  0  0  0  0  0  0
    2.0000   -1.2291    0.0000 C   0  0  0  0  0  0  0  0  0  0  0  0
    3.7320   -5.2291    0.0000 C   0  0  0  0  0  0  0  0  0  0  0  0
    2.0000   -5.2291    0.0000 C   0  0  0  0  0  0  0  0  0  0  0  0
    2.8660   -5.7291    0.0000 C   0  0  0  0  0  0  0  0  0  0  0  0
    4.9898    1.5432    0.0000 H   0  0  0  0  0  0  0  0  0  0  0  0
    7.2690    0.5285    0.0000 H   0  0  0  0  0  0  0  0  0  0  0  0
    7.1132    2.2255    0.0000 H   0  0  0  0  0  0  0  0  0  0  0  0
    6.3552    2.5630    0.0000 H   0  0  0  0  0  0  0  0  0  0  0  0
    6.0677   -0.1728    0.0000 H   0  0  0  0  0  0  0  0  0  0  0  0
    6.8792   -0.0003    0.0000 H   0  0  0  0  0  0  0  0  0  0  0  0
    4.5981   -1.3491    0.0000 H   0  0  0  0  0  0  0  0  0  0  0  0
    5.4641   -0.6091    0.0000 H   0  0  0  0  0  0  0  0  0  0  0  0
    5.6230    3.6043    0.0000 H   0  0  0  0  0  0  0  0  0  0  0  0
    3.1951   -0.9191    0.0000 H   0  0  0  0  0  0  0  0  0  0  0  0
    8.8000    2.4078    0.0000 H   0  0  0  0  0  0  0  0  0  0  0  0
    8.0718    2.0836    0.0000 H   0  0  0  0  0  0  0  0  0  0  0  0
    4.8441   -2.2291    0.0000 H   0  0  0  0  0  0  0  0  0  0  0  0
    5.4641   -2.8491    0.0000 H   0  0  0  0  0  0  0  0  0  0  0  0
    6.0841   -2.2291    0.0000 H   0  0  0  0  0  0  0  0  0  0  0  0
    6.6401   -1.2660    0.0000 H   0  0  0  0  0  0  0  0  0  0  0  0
    6.8671   -0.4191    0.0000 H   0  0  0  0  0  0  0  0  0  0  0  0
    6.0201   -0.1922    0.0000 H   0  0  0  0  0  0  0  0  0  0  0  0
    4.8799    4.2734    0.0000 H   0  0  0  0  0  0  0  0  0  0  0  0
    2.8506    3.3911    0.0000 H   0  0  0  0  0  0  0  0  0  0  0  0
    3.6303    3.2254    0.0000 H   0  0  0  0  0  0  0  0  0  0  0  0
    2.8660   -2.1091    0.0000 H   0  0  0  0  0  0  0  0  0  0  0  0
    5.0878    5.2516    0.0000 H   0  0  0  0  0  0  0  0  0  0  0  0
    3.0109    4.9027    0.0000 H   0  0  0  0  0  0  0  0  0  0  0  0
    2.1353    4.8568    0.0000 H   0  0  0  0  0  0  0  0  0  0  0  0
    2.1812    3.9812    0.0000 H   0  0  0  0  0  0  0  0  0  0  0  0
    9.6659    0.2921    0.0000 H   0  0  0  0  0  0  0  0  0  0  0  0
    9.9592    3.0827    0.0000 H   0  0  0  0  0  0  0  0  0  0  0  0
   11.2770    0.1228    0.0000 H   0  0  0  0  0  0  0  0  0  0  0  0
   11.5703    2.9133    0.0000 H   0  0  0  0  0  0  0  0  0  0  0  0
   12.2293    1.4334    0.0000 H   0  0  0  0  0  0  0  0  0  0  0  0
    4.2690   -3.9191    0.0000 H   0  0  0  0  0  0  0  0  0  0  0  0
    1.4631   -3.9191    0.0000 H   0  0  0  0  0  0  0  0  0  0  0  0
    2.6200   -1.2291    0.0000 H   0  0  0  0  0  0  0  0  0  0  0  0
    2.0000   -0.6091    0.0000 H   0  0  0  0  0  0  0  0  0  0  0  0
    1.3800   -1.2291    0.0000 H   0  0  0  0  0  0  0  0  0  0  0  0
    4.2690   -5.5391    0.0000 H   0  0  0  0  0  0  0  0  0  0  0  0
    1.4631   -5.5391    0.0000 H   0  0  0  0  0  0  0  0  0  0  0  0
    2.8660   -6.3491    0.0000 H   0  0  0  0  0  0  0  0  0  0  0  0
 11  1  1  1  0  0  0
  1 18  1  0  0  0  0
  2 14  2  0  0  0  0
  3 16  2  0  0  0  0
  4 22  2  0  0  0  0
  5 25  1  0  0  0  0
  5 36  1  0  0  0  0
  6 26  2  0  0  0  0
  7 10  1  0  0  0  0
  7 13  1  0  0  0  0
  7 14  1  0  0  0  0
  8 16  1  0  0  0  0
 21  8  1  1  0  0  0
  8 48  1  0  0  0  0
 15  9  1  6  0  0  0
  9 22  1  0  0  0  0
  9 49  1  0  0  0  0
 10 12  1  0  0  0  0
 10 16  1  6  0  0  0
 10 40  1  0  0  0  0
 11 12  1  0  0  0  0
 11 13  1  0  0  0  0
 11 41  1  0  0  0  0
 12 42  1  0  0  0  0
 12 43  1  0  0  0  0
 13 44  1  0  0  0  0
 13 45  1  0  0  0  0
 14 15  1  0  0  0  0
 15 17  1  0  0  0  0
 15 46  1  0  0  0  0
 17 19  1  0  0  0  0
 17 20  1  0  0  0  0
 17 47  1  0  0  0  0
 18 23  1  0  0  0  0
 18 50  1  0  0  0  0
 18 51  1  0  0  0  0
 19 52  1  0  0  0  0
 19 53  1  0  0  0  0
 19 54  1  0  0  0  0
 20 55  1  0  0  0  0
 20 56  1  0  0  0  0
 20 57  1  0  0  0  0
 21 24  1  0  0  0  0
 21 26  1  0  0  0  0
 21 58  1  0  0  0  0
 22 25  1  0  0  0  0
 23 28  2  0  0  0  0
 23 29  1  0  0  0  0
 24 27  1  0  0  0  0
 24 59  1  0  0  0  0
 24 60  1  0  0  0  0
 25 30  1  0  0  0  0
 25 61  1  0  0  0  0
 26 62  1  0  0  0  0
 27 63  1  0  0  0  0
 27 64  1  0  0  0  0
 27 65  1  0  0  0  0
 28 31  1  0  0  0  0
 28 66  1  0  0  0  0
 29 32  2  0  0  0  0
 29 67  1  0  0  0  0
 30 34  2  0  0  0  0
 30 35  1  0  0  0  0
 31 33  2  0  0  0  0
 31 68  1  0  0  0  0
 32 33  1  0  0  0  0
 32 69  1  0  0  0  0
 33 70  1  0  0  0  0
 34 37  1  0  0  0  0
 34 71  1  0  0  0  0
 35 38  2  0  0  0  0
 35 72  1  0  0  0  0
 36 73  1  0  0  0  0
 36 74  1  0  0  0  0
 36 75  1  0  0  0  0
 37 39  2  0  0  0  0
 37 76  1  0  0  0  0
 38 39  1  0  0  0  0
 38 77  1  0  0  0  0
 39 78  1  0  0  0  0
M  END
> <PUBCHEM_COMPOUND_CID>
506789
> <PUBCHEM_COMPOUND_CANONICALIZED>
1
> <PUBCHEM_CACTVS_COMPLEXITY>
809
> <PUBCHEM_CACTVS_HBOND_ACCEPTOR>
6
> <PUBCHEM_CACTVS_HBOND_DONOR>
2
> <PUBCHEM_CACTVS_ROTATABLE_BOND>
13
> <PUBCHEM_CACTVS_SUBSKEYS>
AAADcfB7OAAAAAAAAAAAAAAAAAAAAWAAAAAwYAAAAAAAAAABQAAAHgAQAAAADTzhmAYyAIPABACIAilSkAICAAAgAAAIiIHICIgKZjKAtT2XMAAm1gGYqAe6yaCOAAAAAAAAAAAAAAAAAAAAAAAAAAAAAA==
> <PUBCHEM_IUPAC_OPENEYE_NAME>
(2S,4R)-4-benzyloxy-N-[(1S)-1-formylpropyl]-1-[(2S)-2-[(2-methoxy-2-phenyl-acetyl)amino]-3-methyl-butanoyl]pyrrolidine-2-carboxamide
> <PUBCHEM_IUPAC_CAS_NAME>
(2S,4R)-1-[(2S)-2-[(2-methoxy-1-oxo-2-phenylethyl)amino]-3-methyl-1-oxobutyl]-N-[(2S)-1-oxobutan-2-yl]-4-phenylmethoxy-2-pyrrolidinecarboxamide
> <PUBCHEM_IUPAC_NAME_MARKUP>
(2<I>S</I>,4<I>R</I>)-1-[(2<I>S</I>)-2-[(2-methoxy-2-phenylacetyl)amino]-3-methylbutanoyl]-<I>N</I>-[(2<I>S</I>)-1-oxobutan-2-yl]-4-phenylmethoxypyrrolidine-2-carboxamide
> <PUBCHEM_IUPAC_NAME>
(2S,4R)-1-[(2S)-2-[(2-methoxy-2-phenylacetyl)amino]-3-methylbutanoyl]-N-[(2S)-1-oxobutan-2-yl]-4-phenylmethoxypyrrolidine-2-carboxamide
> <PUBCHEM_IUPAC_SYSTEMATIC_NAME>
(2S,4R)-1-[(2S)-2-[(2-methoxy-2-phenyl-ethanoyl)amino]-3-methyl-butanoyl]-N-[(2S)-1-oxidanylidenebutan-2-yl]-4-phenylmethoxy-pyrrolidine-2-carboxamide
> <PUBCHEM_IUPAC_TRADITIONAL_NAME>
(2S,4R)-4-benzoxy-N-[(1S)-1-formylpropyl]-1-[(2S)-2-[(2-methoxy-2-phenyl-acetyl)amino]-3-methyl-butanoyl]pyrrolidine-2-carboxamide
> <PUBCHEM_IUPAC_INCHI>
InChI=1S/C30H39N3O6/c1-5-23(18-34)31-28(35)25-16-24(39-19-21-12-8-6-9-13-21)17-33(25)30(37)26(20(2)3)32-29(36)27(38-4)22-14-10-7-11-15-22/h6-15,18,20,23-27H,5,16-17,19H2,1-4H3,(H,31,35)(H,32,36)/t23-,24+,25-,26-,27?/m0/s1
> <PUBCHEM_IUPAC_INCHIKEY>
NLLSGVUCVOHLFE-OPYWFVRGSA-N
> <PUBCHEM_XLOGP3_AA>
3.4
> <PUBCHEM_EXACT_MASS>
537.28388597
> <PUBCHEM_MOLECULAR_FORMULA>
C30H39N3O6
> <PUBCHEM_MOLECULAR_WEIGHT>
537.6
> <PUBCHEM_OPENEYE_CAN_SMILES>
CCC(C=O)NC(=O)C1CC(CN1C(=O)C(C(C)C)NC(=O)C(C2=CC=CC=C2)OC)OCC3=CC=CC=C3
> <PUBCHEM_OPENEYE_ISO_SMILES>
CC[C@@H](C=O)NC(=O)[C@@H]1C[C@H](CN1C(=O)[C@H](C(C)C)NC(=O)C(C2=CC=CC=C2)OC)OCC3=CC=CC=C3
> <PUBCHEM_CACTVS_TPSA>
114
> <PUBCHEM_MONOISOTOPIC_WEIGHT>
537.28388597
> <PUBCHEM_TOTAL_CHARGE>
0
> <PUBCHEM_HEAVY_ATOM_COUNT>
39
> <PUBCHEM_ATOM_DEF_STEREO_COUNT>
4
> <PUBCHEM_ATOM_UDEF_STEREO_COUNT>
1
> <PUBCHEM_BOND_DEF_STEREO_COUNT>
0
> <PUBCHEM_BOND_UDEF_STEREO_COUNT>
0
> <PUBCHEM_ISOTOPIC_ATOM_COUNT>
0
> <PUBCHEM_COMPONENT_COUNT>
1
> <PUBCHEM_CACTVS_TAUTO_COUNT>
-1
> <PUBCHEM_COORDINATE_TYPE>
1
5
255
> <PUBCHEM_BONDANNOTATIONS>
11  1  5
10  16  6
25  22  3
23  28  8
23  29  8
28  31  8
29  32  8
30  34  8
30  35  8
31  33  8
32  33  8
34  37  8
35  38  8
37  39  8
38  39  8
21  8  5
15  9  6
$$$$
