506738
  -OEChem-10302200282D
124127  0     1  0  0  0  0  0999 V2000
   10.6603   -2.7500    0.0000 O   0  0  0  0  0  0  0  0  0  0  0  0
   10.6603   -1.7500    0.0000 O   0  0  0  0  0  0  0  0  0  0  0  0
   11.5263   -6.2500    0.0000 O   0  0  0  0  0  0  0  0  0  0  0  0
   11.5263    1.7500    0.0000 O   0  0  0  0  0  0  0  0  0  0  0  0
    8.0622   -7.2500    0.0000 O   0  0  0  0  0  0  0  0  0  0  0  0
    8.9282    1.2500    0.0000 O   0  0  0  0  0  0  0  0  0  0  0  0
    7.1962    7.2500    0.0000 O   0  0  0  0  0  0  0  0  0  0  0  0
    5.4641    6.2500    0.0000 O   0  0  0  0  0  0  0  0  0  0  0  0
   12.3923   -2.7500    0.0000 N   0  0  0  0  0  0  0  0  0  0  0  0
   10.6603   -4.7500    0.0000 N   0  0  0  0  0  0  0  0  0  0  0  0
   11.5263   -0.2500    0.0000 N   0  0  0  0  0  0  0  0  0  0  0  0
    9.7942   -7.2500    0.0000 N   0  0  0  0  0  0  0  0  0  0  0  0
    9.7942    2.7500    0.0000 N   0  0  0  0  0  0  0  0  0  0  0  0
    8.0622   -9.2500    0.0000 N   0  0  0  0  0  0  0  0  0  0  0  0
    9.7942  -10.2500    0.0000 N   0  0  0  0  0  0  0  0  0  0  0  0
   11.5263   -4.2500    0.0000 C   0  0  1  0  0  0  0  0  0  0  0  0
   12.3923   -1.7500    0.0000 C   0  0  1  0  0  0  0  0  0  0  0  0
   12.3923   -4.7500    0.0000 C   0  0  0  0  0  0  0  0  0  0  0  0
   13.2583   -1.2500    0.0000 C   0  0  0  0  0  0  0  0  0  0  0  0
   14.1244   -1.7500    0.0000 C   0  0  0  0  0  0  0  0  0  0  0  0
   11.5263   -3.2500    0.0000 C   0  0  0  0  0  0  0  0  0  0  0  0
    9.7942   -6.2500    0.0000 C   0  0  1  0  0  0  0  0  0  0  0  0
    8.9282   -5.7500    0.0000 C   0  0  0  0  0  0  0  0  0  0  0  0
   11.5263   -1.2500    0.0000 C   0  0  0  0  0  0  0  0  0  0  0  0
   10.6603   -5.7500    0.0000 C   0  0  0  0  0  0  0  0  0  0  0  0
   12.3923   -5.7500    0.0000 C   0  0  0  0  0  0  0  0  0  0  0  0
   13.2583   -4.2500    0.0000 C   0  0  0  0  0  0  0  0  0  0  0  0
   14.9904   -1.2500    0.0000 C   0  0  0  0  0  0  0  0  0  0  0  0
   14.1244   -2.7500    0.0000 C   0  0  0  0  0  0  0  0  0  0  0  0
   10.6603    0.2500    0.0000 C   0  0  1  0  0  0  0  0  0  0  0  0
    8.0622   -6.2500    0.0000 C   0  0  0  0  0  0  0  0  0  0  0  0
    8.9282   -4.7500    0.0000 C   0  0  0  0  0  0  0  0  0  0  0  0
    9.7942   -0.2500    0.0000 C   0  0  0  0  0  0  0  0  0  0  0  0
   10.6603    1.2500    0.0000 C   0  0  0  0  0  0  0  0  0  0  0  0
    8.9282   -7.7500    0.0000 C   0  0  0  0  0  0  0  0  0  0  0  0
    9.7942   -1.2500    0.0000 C   0  0  0  0  0  0  0  0  0  0  0  0
    9.7942    1.7500    0.0000 C   0  0  0  0  0  0  0  0  0  0  0  0
    8.9282   -8.7500    0.0000 C   0  0  0  0  0  0  0  0  0  0  0  0
    8.9282    3.2500    0.0000 C   0  0  0  0  0  0  0  0  0  0  0  0
    8.9282    4.2500    0.0000 C   0  0  0  0  0  0  0  0  0  0  0  0
    9.7942   -9.2500    0.0000 C   0  0  0  0  0  0  0  0  0  0  0  0
    8.0622    4.7500    0.0000 C   0  0  0  0  0  0  0  0  0  0  0  0
    8.0622    5.7500    0.0000 C   0  0  0  0  0  0  0  0  0  0  0  0
    8.0622  -10.2500    0.0000 C   0  0  0  0  0  0  0  0  0  0  0  0
    7.1962    4.2500    0.0000 C   0  0  0  0  0  0  0  0  0  0  0  0
    7.1962    6.2500    0.0000 C   0  0  0  0  0  0  0  0  0  0  0  0
    8.9282  -10.7500    0.0000 C   0  0  0  0  0  0  0  0  0  0  0  0
    6.3301    5.7500    0.0000 C   0  0  0  0  0  0  0  0  0  0  0  0
    6.3301    4.7500    0.0000 C   0  0  0  0  0  0  0  0  0  0  0  0
    8.0622    7.7500    0.0000 C   0  0  0  0  0  0  0  0  0  0  0  0
    4.5981    5.7500    0.0000 C   0  0  0  0  0  0  0  0  0  0  0  0
    8.0622    8.7500    0.0000 C   0  0  0  0  0  0  0  0  0  0  0  0
    3.7320    6.2500    0.0000 C   0  0  0  0  0  0  0  0  0  0  0  0
    7.1962    9.2500    0.0000 C   0  0  0  0  0  0  0  0  0  0  0  0
    8.9282    9.2500    0.0000 C   0  0  0  0  0  0  0  0  0  0  0  0
    2.8660    5.7500    0.0000 C   0  0  0  0  0  0  0  0  0  0  0  0
    3.7320    7.2500    0.0000 C   0  0  0  0  0  0  0  0  0  0  0  0
    7.1962   10.2500    0.0000 C   0  0  0  0  0  0  0  0  0  0  0  0
    8.9282   10.2500    0.0000 C   0  0  0  0  0  0  0  0  0  0  0  0
    2.0000    6.2500    0.0000 C   0  0  0  0  0  0  0  0  0  0  0  0
    2.8660    7.7500    0.0000 C   0  0  0  0  0  0  0  0  0  0  0  0
    8.0622   10.7500    0.0000 C   0  0  0  0  0  0  0  0  0  0  0  0
    2.0000    7.2500    0.0000 C   0  0  0  0  0  0  0  0  0  0  0  0
   10.9893   -3.9400    0.0000 H   0  0  0  0  0  0  0  0  0  0  0  0
   11.8554   -2.0600    0.0000 H   0  0  0  0  0  0  0  0  0  0  0  0
   11.8554   -5.0600    0.0000 H   0  0  0  0  0  0  0  0  0  0  0  0
   13.6569   -0.7751    0.0000 H   0  0  0  0  0  0  0  0  0  0  0  0
   12.8598   -0.7751    0.0000 H   0  0  0  0  0  0  0  0  0  0  0  0
   13.5874   -2.0600    0.0000 H   0  0  0  0  0  0  0  0  0  0  0  0
   12.9292   -3.0600    0.0000 H   0  0  0  0  0  0  0  0  0  0  0  0
    9.2573   -6.5600    0.0000 H   0  0  0  0  0  0  0  0  0  0  0  0
   10.1233   -4.4400    0.0000 H   0  0  0  0  0  0  0  0  0  0  0  0
    9.4651   -5.4400    0.0000 H   0  0  0  0  0  0  0  0  0  0  0  0
   11.7723   -5.7500    0.0000 H   0  0  0  0  0  0  0  0  0  0  0  0
   12.3923   -6.3700    0.0000 H   0  0  0  0  0  0  0  0  0  0  0  0
   13.0123   -5.7500    0.0000 H   0  0  0  0  0  0  0  0  0  0  0  0
   13.5683   -4.7869    0.0000 H   0  0  0  0  0  0  0  0  0  0  0  0
   13.7953   -3.9400    0.0000 H   0  0  0  0  0  0  0  0  0  0  0  0
   12.9483   -3.7131    0.0000 H   0  0  0  0  0  0  0  0  0  0  0  0
   15.3004   -1.7869    0.0000 H   0  0  0  0  0  0  0  0  0  0  0  0
   15.5273   -0.9400    0.0000 H   0  0  0  0  0  0  0  0  0  0  0  0
   14.6804   -0.7131    0.0000 H   0  0  0  0  0  0  0  0  0  0  0  0
   13.5044   -2.7500    0.0000 H   0  0  0  0  0  0  0  0  0  0  0  0
   14.1244   -3.3700    0.0000 H   0  0  0  0  0  0  0  0  0  0  0  0
   14.7444   -2.7500    0.0000 H   0  0  0  0  0  0  0  0  0  0  0  0
   12.0632    0.0600    0.0000 H   0  0  0  0  0  0  0  0  0  0  0  0
   11.1972    0.5600    0.0000 H   0  0  0  0  0  0  0  0  0  0  0  0
    7.7522   -5.7131    0.0000 H   0  0  0  0  0  0  0  0  0  0  0  0
    7.5252   -6.5600    0.0000 H   0  0  0  0  0  0  0  0  0  0  0  0
    8.3722   -6.7869    0.0000 H   0  0  0  0  0  0  0  0  0  0  0  0
    9.5482   -4.7500    0.0000 H   0  0  0  0  0  0  0  0  0  0  0  0
    8.9282   -4.1300    0.0000 H   0  0  0  0  0  0  0  0  0  0  0  0
    8.3082   -4.7500    0.0000 H   0  0  0  0  0  0  0  0  0  0  0  0
   10.3312   -7.5600    0.0000 H   0  0  0  0  0  0  0  0  0  0  0  0
    9.5822    0.3326    0.0000 H   0  0  0  0  0  0  0  0  0  0  0  0
    9.1836   -0.3577    0.0000 H   0  0  0  0  0  0  0  0  0  0  0  0
    9.1742   -1.2500    0.0000 H   0  0  0  0  0  0  0  0  0  0  0  0
    9.7942   -1.8700    0.0000 H   0  0  0  0  0  0  0  0  0  0  0  0
   10.4142   -1.2500    0.0000 H   0  0  0  0  0  0  0  0  0  0  0  0
   10.3312    3.0600    0.0000 H   0  0  0  0  0  0  0  0  0  0  0  0
    8.3176    3.3577    0.0000 H   0  0  0  0  0  0  0  0  0  0  0  0
    8.7162    2.6674    0.0000 H   0  0  0  0  0  0  0  0  0  0  0  0
    9.5388    4.1423    0.0000 H   0  0  0  0  0  0  0  0  0  0  0  0
    9.1403    4.8326    0.0000 H   0  0  0  0  0  0  0  0  0  0  0  0
   10.3312   -8.9400    0.0000 H   0  0  0  0  0  0  0  0  0  0  0  0
    8.5991    6.0600    0.0000 H   0  0  0  0  0  0  0  0  0  0  0  0
    7.5252  -10.5600    0.0000 H   0  0  0  0  0  0  0  0  0  0  0  0
    7.1962    3.6300    0.0000 H   0  0  0  0  0  0  0  0  0  0  0  0
    8.9282  -11.3700    0.0000 H   0  0  0  0  0  0  0  0  0  0  0  0
    5.7932    4.4400    0.0000 H   0  0  0  0  0  0  0  0  0  0  0  0
    8.2742    7.1674    0.0000 H   0  0  0  0  0  0  0  0  0  0  0  0
    8.6728    7.8577    0.0000 H   0  0  0  0  0  0  0  0  0  0  0  0
    4.1996    5.2750    0.0000 H   0  0  0  0  0  0  0  0  0  0  0  0
    4.9966    5.2750    0.0000 H   0  0  0  0  0  0  0  0  0  0  0  0
    6.6592    8.9400    0.0000 H   0  0  0  0  0  0  0  0  0  0  0  0
    9.4651    8.9400    0.0000 H   0  0  0  0  0  0  0  0  0  0  0  0
    2.8660    5.1300    0.0000 H   0  0  0  0  0  0  0  0  0  0  0  0
    4.2690    7.5600    0.0000 H   0  0  0  0  0  0  0  0  0  0  0  0
    6.6592   10.5600    0.0000 H   0  0  0  0  0  0  0  0  0  0  0  0
    9.4651   10.5600    0.0000 H   0  0  0  0  0  0  0  0  0  0  0  0
    1.4631    5.9400    0.0000 H   0  0  0  0  0  0  0  0  0  0  0  0
    2.8660    8.3700    0.0000 H   0  0  0  0  0  0  0  0  0  0  0  0
    8.0622   11.3700    0.0000 H   0  0  0  0  0  0  0  0  0  0  0  0
    1.4631    7.5600    0.0000 H   0  0  0  0  0  0  0  0  0  0  0  0
  1 21  2  0  0  0  0
  2 24  2  0  0  0  0
  3 25  2  0  0  0  0
  4 34  2  0  0  0  0
  5 35  2  0  0  0  0
  6 37  2  0  0  0  0
  7 46  1  0  0  0  0
  7 50  1  0  0  0  0
  8 48  1  0  0  0  0
  8 51  1  0  0  0  0
 17  9  1  6  0  0  0
  9 21  1  0  0  0  0
  9 70  1  0  0  0  0
 16 10  1  6  0  0  0
 10 25  1  0  0  0  0
 10 72  1  0  0  0  0
 11 24  1  0  0  0  0
 30 11  1  1  0  0  0
 11 86  1  0  0  0  0
 22 12  1  1  0  0  0
 12 35  1  0  0  0  0
 12 94  1  0  0  0  0
 13 37  1  0  0  0  0
 13 39  1  0  0  0  0
 13100  1  0  0  0  0
 14 38  2  0  0  0  0
 14 44  1  0  0  0  0
 15 41  2  0  0  0  0
 15 47  1  0  0  0  0
 16 18  1  0  0  0  0
 16 21  1  0  0  0  0
 16 64  1  0  0  0  0
 17 19  1  0  0  0  0
 17 24  1  0  0  0  0
 17 65  1  0  0  0  0
 18 26  1  0  0  0  0
 18 27  1  0  0  0  0
 18 66  1  0  0  0  0
 19 20  1  0  0  0  0
 19 67  1  0  0  0  0
 19 68  1  0  0  0  0
 20 28  1  0  0  0  0
 20 29  1  0  0  0  0
 20 69  1  0  0  0  0
 22 23  1  0  0  0  0
 22 25  1  0  0  0  0
 22 71  1  0  0  0  0
 23 31  1  0  0  0  0
 23 32  1  0  0  0  0
 23 73  1  0  0  0  0
 26 74  1  0  0  0  0
 26 75  1  0  0  0  0
 26 76  1  0  0  0  0
 27 77  1  0  0  0  0
 27 78  1  0  0  0  0
 27 79  1  0  0  0  0
 28 80  1  0  0  0  0
 28 81  1  0  0  0  0
 28 82  1  0  0  0  0
 29 83  1  0  0  0  0
 29 84  1  0  0  0  0
 29 85  1  0  0  0  0
 30 33  1  0  0  0  0
 30 34  1  0  0  0  0
 30 87  1  0  0  0  0
 31 88  1  0  0  0  0
 31 89  1  0  0  0  0
 31 90  1  0  0  0  0
 32 91  1  0  0  0  0
 32 92  1  0  0  0  0
 32 93  1  0  0  0  0
 33 36  1  0  0  0  0
 33 95  1  0  0  0  0
 33 96  1  0  0  0  0
 34 37  1  0  0  0  0
 35 38  1  0  0  0  0
 36 97  1  0  0  0  0
 36 98  1  0  0  0  0
 36 99  1  0  0  0  0
 38 41  1  0  0  0  0
 39 40  1  0  0  0  0
 39101  1  0  0  0  0
 39102  1  0  0  0  0
 40 42  1  0  0  0  0
 40103  1  0  0  0  0
 40104  1  0  0  0  0
 41105  1  0  0  0  0
 42 43  2  0  0  0  0
 42 45  1  0  0  0  0
 43 46  1  0  0  0  0
 43106  1  0  0  0  0
 44 47  2  0  0  0  0
 44107  1  0  0  0  0
 45 49  2  0  0  0  0
 45108  1  0  0  0  0
 46 48  2  0  0  0  0
 47109  1  0  0  0  0
 48 49  1  0  0  0  0
 49110  1  0  0  0  0
 50 52  1  0  0  0  0
 50111  1  0  0  0  0
 50112  1  0  0  0  0
 51 53  1  0  0  0  0
 51113  1  0  0  0  0
 51114  1  0  0  0  0
 52 54  2  0  0  0  0
 52 55  1  0  0  0  0
 53 56  2  0  0  0  0
 53 57  1  0  0  0  0
 54 58  1  0  0  0  0
 54115  1  0  0  0  0
 55 59  2  0  0  0  0
 55116  1  0  0  0  0
 56 60  1  0  0  0  0
 56117  1  0  0  0  0
 57 61  2  0  0  0  0
 57118  1  0  0  0  0
 58 62  2  0  0  0  0
 58119  1  0  0  0  0
 59 62  1  0  0  0  0
 59120  1  0  0  0  0
 60 63  2  0  0  0  0
 60121  1  0  0  0  0
 61 63  1  0  0  0  0
 61122  1  0  0  0  0
 62123  1  0  0  0  0
 63124  1  0  0  0  0
M  END
> <PUBCHEM_COMPOUND_CID>
506738
> <PUBCHEM_COMPOUND_CANONICALIZED>
1
> <PUBCHEM_CACTVS_COMPLEXITY>
1450
> <PUBCHEM_CACTVS_HBOND_ACCEPTOR>
10
> <PUBCHEM_CACTVS_HBOND_DONOR>
5
> <PUBCHEM_CACTVS_ROTATABLE_BOND>
24
> <PUBCHEM_CACTVS_SUBSKEYS>
AAADcfB/vAAAAAAAAAAAAAAAAAAAAAAAAAA8YMEAAAAAAAAB1AAAHgAQAAAADSzhngY+hpLIFACoA7V3VACCiCQ3MiAI2IG+/MgNZnrE8TuWOKqk1hHKqMeY0LIOIAABAAAAQABAAAIAAACAAAAAAAAAAA==
> <PUBCHEM_IUPAC_OPENEYE_NAME>
N-[(1S)-1-[[(1S)-1-[[(1S)-1-[[(1S)-3-[2-(3,4-dibenzyloxyphenyl)ethylamino]-1-ethyl-2,3-dioxo-propyl]carbamoyl]-3-methyl-butyl]carbamoyl]-2-methyl-propyl]carbamoyl]-2-methyl-propyl]pyrazine-2-carboxamide
> <PUBCHEM_IUPAC_CAS_NAME>
N-[(2S)-1-[[(2S)-1-[[(2S)-1-[[(3S)-1-[2-[3,4-bis(phenylmethoxy)phenyl]ethylamino]-1,2-dioxopentan-3-yl]amino]-4-methyl-1-oxopentan-2-yl]amino]-3-methyl-1-oxobutan-2-yl]amino]-3-methyl-1-oxobutan-2-yl]-2-pyrazinecarboxamide
> <PUBCHEM_IUPAC_NAME_MARKUP>
<I>N</I>-[(2<I>S</I>)-1-[[(2<I>S</I>)-1-[[(2<I>S</I>)-1-[[(3<I>S</I>)-1-[2-[3,4-bis(phenylmethoxy)phenyl]ethylamino]-1,2-dioxopentan-3-yl]amino]-4-methyl-1-oxopentan-2-yl]amino]-3-methyl-1-oxobutan-2-yl]amino]-3-methyl-1-oxobutan-2-yl]pyrazine-2-carboxamide
> <PUBCHEM_IUPAC_NAME>
N-[(2S)-1-[[(2S)-1-[[(2S)-1-[[(3S)-1-[2-[3,4-bis(phenylmethoxy)phenyl]ethylamino]-1,2-dioxopentan-3-yl]amino]-4-methyl-1-oxopentan-2-yl]amino]-3-methyl-1-oxobutan-2-yl]amino]-3-methyl-1-oxobutan-2-yl]pyrazine-2-carboxamide
> <PUBCHEM_IUPAC_SYSTEMATIC_NAME>
N-[(2S)-1-[[(2S)-1-[[(2S)-1-[[(3S)-1-[2-[3,4-bis(phenylmethoxy)phenyl]ethylamino]-1,2-bis(oxidanylidene)pentan-3-yl]amino]-4-methyl-1-oxidanylidene-pentan-2-yl]amino]-3-methyl-1-oxidanylidene-butan-2-yl]amino]-3-methyl-1-oxidanylidene-butan-2-yl]pyrazine-2-carboxamide
> <PUBCHEM_IUPAC_TRADITIONAL_NAME>
N-[(1S)-1-[[(1S)-1-[[(1S)-1-[[(1S)-3-[2-(3,4-dibenzoxyphenyl)ethylamino]-1-ethyl-2,3-diketo-propyl]carbamoyl]-3-methyl-butyl]carbamoyl]-2-methyl-propyl]carbamoyl]-2-methyl-propyl]pyrazinamide
> <PUBCHEM_IUPAC_INCHI>
InChI=1S/C48H61N7O8/c1-8-36(43(56)48(61)51-22-21-33-19-20-39(62-28-34-15-11-9-12-16-34)40(26-33)63-29-35-17-13-10-14-18-35)52-44(57)37(25-30(2)3)53-46(59)41(31(4)5)55-47(60)42(32(6)7)54-45(58)38-27-49-23-24-50-38/h9-20,23-24,26-27,30-32,36-37,41-42H,8,21-22,25,28-29H2,1-7H3,(H,51,61)(H,52,57)(H,53,59)(H,54,58)(H,55,60)/t36-,37-,41-,42-/m0/s1
> <PUBCHEM_IUPAC_INCHIKEY>
QBZRCKBYMIOVTJ-YSSMVSIISA-N
> <PUBCHEM_XLOGP3_AA>
6.9
> <PUBCHEM_EXACT_MASS>
863.45816193
> <PUBCHEM_MOLECULAR_FORMULA>
C48H61N7O8
> <PUBCHEM_MOLECULAR_WEIGHT>
864.0
> <PUBCHEM_OPENEYE_CAN_SMILES>
CCC(C(=O)C(=O)NCCC1=CC(=C(C=C1)OCC2=CC=CC=C2)OCC3=CC=CC=C3)NC(=O)C(CC(C)C)NC(=O)C(C(C)C)NC(=O)C(C(C)C)NC(=O)C4=NC=CN=C4
> <PUBCHEM_OPENEYE_ISO_SMILES>
CC[C@@H](C(=O)C(=O)NCCC1=CC(=C(C=C1)OCC2=CC=CC=C2)OCC3=CC=CC=C3)NC(=O)[C@H](CC(C)C)NC(=O)[C@H](C(C)C)NC(=O)[C@H](C(C)C)NC(=O)C4=NC=CN=C4
> <PUBCHEM_CACTVS_TPSA>
207
> <PUBCHEM_MONOISOTOPIC_WEIGHT>
863.45816193
> <PUBCHEM_TOTAL_CHARGE>
0
> <PUBCHEM_HEAVY_ATOM_COUNT>
63
> <PUBCHEM_ATOM_DEF_STEREO_COUNT>
4
> <PUBCHEM_ATOM_UDEF_STEREO_COUNT>
0
> <PUBCHEM_BOND_DEF_STEREO_COUNT>
0
> <PUBCHEM_BOND_UDEF_STEREO_COUNT>
0
> <PUBCHEM_ISOTOPIC_ATOM_COUNT>
0
> <PUBCHEM_COMPONENT_COUNT>
1
> <PUBCHEM_CACTVS_TAUTO_COUNT>
-1
> <PUBCHEM_COORDINATE_TYPE>
1
5
255
> <PUBCHEM_BONDANNOTATIONS>
16  10  6
30  11  5
22  12  5
14  38  8
14  44  8
15  41  8
15  47  8
38  41  8
42  43  8
42  45  8
43  46  8
44  47  8
45  49  8
46  48  8
48  49  8
52  54  8
52  55  8
53  56  8
53  57  8
54  58  8
55  59  8
56  60  8
57  61  8
58  62  8
59  62  8
60  63  8
61  63  8
17  9  6
$$$$
