506786
  -OEChem-10302200282D
 76 78  0     1  0  0  0  0  0999 V2000
    9.7734    1.0028    0.0000 O   0  0  0  0  0  0  0  0  0  0  0  0
    5.4641    0.7709    0.0000 O   0  0  0  0  0  0  0  0  0  0  0  0
    5.6065    2.1255    0.0000 O   0  0  0  0  0  0  0  0  0  0  0  0
    6.3301   -2.7291    0.0000 O   0  0  0  0  0  0  0  0  0  0  0  0
    5.4871    5.7291    0.0000 O   0  0  0  0  0  0  0  0  0  0  0  0
    2.0000   -4.2291    0.0000 O   0  5  0  0  0  0  0  0  0  0  0  0
    2.8660   -2.7291    0.0000 O   0  0  0  0  0  0  0  0  0  0  0  0
    7.1962    0.7709    0.0000 N   0  0  0  0  0  0  0  0  0  0  0  0
    6.7654    3.4127    0.0000 N   0  0  0  0  0  0  0  0  0  0  0  0
    5.4641   -1.2291    0.0000 N   0  0  0  0  0  0  0  0  0  0  0  0
    2.8660   -3.7291    0.0000 N   0  3  0  0  0  0  0  0  0  0  0  0
    7.3007    1.7654    0.0000 C   0  0  1  0  0  0  0  0  0  0  0  0
    8.7788    1.1073    0.0000 C   0  0  2  0  0  0  0  0  0  0  0  0
    8.2788    1.9733    0.0000 C   0  0  0  0  0  0  0  0  0  0  0  0
    8.1097    0.3642    0.0000 C   0  0  0  0  0  0  0  0  0  0  0  0
    6.3301    0.2709    0.0000 C   0  0  0  0  0  0  0  0  0  0  0  0
    6.3301   -0.7291    0.0000 C   0  0  2  0  0  0  0  0  0  0  0  0
    6.5575    2.4346    0.0000 C   0  0  0  0  0  0  0  0  0  0  0  0
    7.1962   -1.2291    0.0000 C   0  0  0  0  0  0  0  0  0  0  0  0
   10.3611    1.8118    0.0000 C   0  0  0  0  0  0  0  0  0  0  0  0
    7.1962   -2.2291    0.0000 C   0  0  0  0  0  0  0  0  0  0  0  0
    8.0622   -0.7291    0.0000 C   0  0  0  0  0  0  0  0  0  0  0  0
    6.0223    4.0818    0.0000 C   0  0  1  0  0  0  0  0  0  0  0  0
    5.4641   -2.2291    0.0000 C   0  0  0  0  0  0  0  0  0  0  0  0
   11.3557    1.7073    0.0000 C   0  0  0  0  0  0  0  0  0  0  0  0
    5.0712    3.7728    0.0000 C   0  0  0  0  0  0  0  0  0  0  0  0
    4.5981   -2.7291    0.0000 C   0  0  0  0  0  0  0  0  0  0  0  0
    6.2302    5.0600    0.0000 C   0  0  0  0  0  0  0  0  0  0  0  0
    4.3281    4.4419    0.0000 C   0  0  0  0  0  0  0  0  0  0  0  0
   11.7624    0.7937    0.0000 C   0  0  0  0  0  0  0  0  0  0  0  0
   11.9434    2.5163    0.0000 C   0  0  0  0  0  0  0  0  0  0  0  0
    4.5981   -3.7291    0.0000 C   0  0  0  0  0  0  0  0  0  0  0  0
   12.7569    0.6892    0.0000 C   0  0  0  0  0  0  0  0  0  0  0  0
   12.9380    2.4118    0.0000 C   0  0  0  0  0  0  0  0  0  0  0  0
   13.3447    1.4982    0.0000 C   0  0  0  0  0  0  0  0  0  0  0  0
    3.7320   -4.2291    0.0000 C   0  0  0  0  0  0  0  0  0  0  0  0
    5.4641   -4.2291    0.0000 C   0  0  0  0  0  0  0  0  0  0  0  0
    3.7320   -5.2291    0.0000 C   0  0  0  0  0  0  0  0  0  0  0  0
    5.4641   -5.2291    0.0000 C   0  0  0  0  0  0  0  0  0  0  0  0
    4.5981   -5.7291    0.0000 C   0  0  0  0  0  0  0  0  0  0  0  0
    6.7219    1.5432    0.0000 H   0  0  0  0  0  0  0  0  0  0  0  0
    9.1165    1.6273    0.0000 H   0  0  0  0  0  0  0  0  0  0  0  0
    8.8452    2.2255    0.0000 H   0  0  0  0  0  0  0  0  0  0  0  0
    8.0872    2.5630    0.0000 H   0  0  0  0  0  0  0  0  0  0  0  0
    7.7997   -0.1728    0.0000 H   0  0  0  0  0  0  0  0  0  0  0  0
    8.6113   -0.0003    0.0000 H   0  0  0  0  0  0  0  0  0  0  0  0
    5.7932   -0.4191    0.0000 H   0  0  0  0  0  0  0  0  0  0  0  0
    6.6592   -1.5391    0.0000 H   0  0  0  0  0  0  0  0  0  0  0  0
    7.3551    3.6043    0.0000 H   0  0  0  0  0  0  0  0  0  0  0  0
    4.9272   -0.9191    0.0000 H   0  0  0  0  0  0  0  0  0  0  0  0
   10.5320    2.4078    0.0000 H   0  0  0  0  0  0  0  0  0  0  0  0
    9.8039    2.0836    0.0000 H   0  0  0  0  0  0  0  0  0  0  0  0
    6.5762   -2.2291    0.0000 H   0  0  0  0  0  0  0  0  0  0  0  0
    7.1962   -2.8491    0.0000 H   0  0  0  0  0  0  0  0  0  0  0  0
    7.8162   -2.2291    0.0000 H   0  0  0  0  0  0  0  0  0  0  0  0
    8.3722   -1.2660    0.0000 H   0  0  0  0  0  0  0  0  0  0  0  0
    8.5991   -0.4191    0.0000 H   0  0  0  0  0  0  0  0  0  0  0  0
    7.7522   -0.1922    0.0000 H   0  0  0  0  0  0  0  0  0  0  0  0
    6.6120    4.2734    0.0000 H   0  0  0  0  0  0  0  0  0  0  0  0
    4.5827    3.3911    0.0000 H   0  0  0  0  0  0  0  0  0  0  0  0
    5.3623    3.2254    0.0000 H   0  0  0  0  0  0  0  0  0  0  0  0
    4.3860   -2.1465    0.0000 H   0  0  0  0  0  0  0  0  0  0  0  0
    3.9875   -2.8368    0.0000 H   0  0  0  0  0  0  0  0  0  0  0  0
    6.8199    5.2516    0.0000 H   0  0  0  0  0  0  0  0  0  0  0  0
    4.7430    4.9027    0.0000 H   0  0  0  0  0  0  0  0  0  0  0  0
    3.8674    4.8568    0.0000 H   0  0  0  0  0  0  0  0  0  0  0  0
    3.9132    3.9812    0.0000 H   0  0  0  0  0  0  0  0  0  0  0  0
   11.3980    0.2921    0.0000 H   0  0  0  0  0  0  0  0  0  0  0  0
   11.6913    3.0827    0.0000 H   0  0  0  0  0  0  0  0  0  0  0  0
   13.0091    0.1228    0.0000 H   0  0  0  0  0  0  0  0  0  0  0  0
   13.3024    2.9133    0.0000 H   0  0  0  0  0  0  0  0  0  0  0  0
   13.9613    1.4334    0.0000 H   0  0  0  0  0  0  0  0  0  0  0  0
    6.0010   -3.9191    0.0000 H   0  0  0  0  0  0  0  0  0  0  0  0
    3.1951   -5.5391    0.0000 H   0  0  0  0  0  0  0  0  0  0  0  0
    6.0010   -5.5391    0.0000 H   0  0  0  0  0  0  0  0  0  0  0  0
    4.5981   -6.3491    0.0000 H   0  0  0  0  0  0  0  0  0  0  0  0
 13  1  1  1  0  0  0
  1 20  1  0  0  0  0
  2 16  2  0  0  0  0
  3 18  2  0  0  0  0
  4 24  2  0  0  0  0
  5 28  2  0  0  0  0
  6 11  1  0  0  0  0
  7 11  2  0  0  0  0
  8 12  1  0  0  0  0
  8 15  1  0  0  0  0
  8 16  1  0  0  0  0
  9 18  1  0  0  0  0
 23  9  1  1  0  0  0
  9 49  1  0  0  0  0
 17 10  1  6  0  0  0
 10 24  1  0  0  0  0
 10 50  1  0  0  0  0
 11 36  1  0  0  0  0
 12 14  1  0  0  0  0
 12 18  1  6  0  0  0
 12 41  1  0  0  0  0
 13 14  1  0  0  0  0
 13 15  1  0  0  0  0
 13 42  1  0  0  0  0
 14 43  1  0  0  0  0
 14 44  1  0  0  0  0
 15 45  1  0  0  0  0
 15 46  1  0  0  0  0
 16 17  1  0  0  0  0
 17 19  1  0  0  0  0
 17 47  1  0  0  0  0
 19 21  1  0  0  0  0
 19 22  1  0  0  0  0
 19 48  1  0  0  0  0
 20 25  1  0  0  0  0
 20 51  1  0  0  0  0
 20 52  1  0  0  0  0
 21 53  1  0  0  0  0
 21 54  1  0  0  0  0
 21 55  1  0  0  0  0
 22 56  1  0  0  0  0
 22 57  1  0  0  0  0
 22 58  1  0  0  0  0
 23 26  1  0  0  0  0
 23 28  1  0  0  0  0
 23 59  1  0  0  0  0
 24 27  1  0  0  0  0
 25 30  2  0  0  0  0
 25 31  1  0  0  0  0
 26 29  1  0  0  0  0
 26 60  1  0  0  0  0
 26 61  1  0  0  0  0
 27 32  1  0  0  0  0
 27 62  1  0  0  0  0
 27 63  1  0  0  0  0
 28 64  1  0  0  0  0
 29 65  1  0  0  0  0
 29 66  1  0  0  0  0
 29 67  1  0  0  0  0
 30 33  1  0  0  0  0
 30 68  1  0  0  0  0
 31 34  2  0  0  0  0
 31 69  1  0  0  0  0
 32 36  1  0  0  0  0
 32 37  2  0  0  0  0
 33 35  2  0  0  0  0
 33 70  1  0  0  0  0
 34 35  1  0  0  0  0
 34 71  1  0  0  0  0
 35 72  1  0  0  0  0
 36 38  2  0  0  0  0
 37 39  1  0  0  0  0
 37 73  1  0  0  0  0
 38 40  1  0  0  0  0
 38 74  1  0  0  0  0
 39 40  2  0  0  0  0
 39 75  1  0  0  0  0
 40 76  1  0  0  0  0
M  CHG  2   6  -1  11   1
M  END
> <PUBCHEM_COMPOUND_CID>
506786
> <PUBCHEM_COMPOUND_CANONICALIZED>
1
> <PUBCHEM_CACTVS_COMPLEXITY>
886
> <PUBCHEM_CACTVS_HBOND_ACCEPTOR>
7
> <PUBCHEM_CACTVS_HBOND_DONOR>
2
> <PUBCHEM_CACTVS_ROTATABLE_BOND>
12
> <PUBCHEM_CACTVS_SUBSKEYS>
AAADcfB7uAAAAAAAAAAAAAAAAAAAAWAAAAAwYAAAAAAAAAABQAAAHgAUAAAADTzhmAYywIPQRACJAi1S0wCCAAAgAgAoiIGIbIoKZjKAtbmXMABm1gGY6Ae+yaCOAAAAAAACAAAAAAAAAAQAAAAAAAAAAA==
> <PUBCHEM_IUPAC_OPENEYE_NAME>
(2S,4R)-4-benzyloxy-N-[(1S)-1-formylpropyl]-1-[(2S)-3-methyl-2-[[2-(2-nitrophenyl)acetyl]amino]butanoyl]pyrrolidine-2-carboxamide
> <PUBCHEM_IUPAC_CAS_NAME>
(2S,4R)-1-[(2S)-3-methyl-2-[[2-(2-nitrophenyl)-1-oxoethyl]amino]-1-oxobutyl]-N-[(2S)-1-oxobutan-2-yl]-4-phenylmethoxy-2-pyrrolidinecarboxamide
> <PUBCHEM_IUPAC_NAME_MARKUP>
(2<I>S</I>,4<I>R</I>)-1-[(2<I>S</I>)-3-methyl-2-[[2-(2-nitrophenyl)acetyl]amino]butanoyl]-<I>N</I>-[(2<I>S</I>)-1-oxobutan-2-yl]-4-phenylmethoxypyrrolidine-2-carboxamide
> <PUBCHEM_IUPAC_NAME>
(2S,4R)-1-[(2S)-3-methyl-2-[[2-(2-nitrophenyl)acetyl]amino]butanoyl]-N-[(2S)-1-oxobutan-2-yl]-4-phenylmethoxypyrrolidine-2-carboxamide
> <PUBCHEM_IUPAC_SYSTEMATIC_NAME>
(2S,4R)-1-[(2S)-3-methyl-2-[2-(2-nitrophenyl)ethanoylamino]butanoyl]-N-[(2S)-1-oxidanylidenebutan-2-yl]-4-phenylmethoxy-pyrrolidine-2-carboxamide
> <PUBCHEM_IUPAC_TRADITIONAL_NAME>
(2S,4R)-4-benzoxy-N-[(1S)-1-formylpropyl]-1-[(2S)-3-methyl-2-[[2-(2-nitrophenyl)acetyl]amino]butanoyl]pyrrolidine-2-carboxamide
> <PUBCHEM_IUPAC_INCHI>
InChI=1S/C29H36N4O7/c1-4-22(17-34)30-28(36)25-15-23(40-18-20-10-6-5-7-11-20)16-32(25)29(37)27(19(2)3)31-26(35)14-21-12-8-9-13-24(21)33(38)39/h5-13,17,19,22-23,25,27H,4,14-16,18H2,1-3H3,(H,30,36)(H,31,35)/t22-,23+,25-,27-/m0/s1
> <PUBCHEM_IUPAC_INCHIKEY>
BCMSBRUDYNRNPV-STMVPXLDSA-N
> <PUBCHEM_XLOGP3_AA>
3.2
> <PUBCHEM_EXACT_MASS>
552.25839950
> <PUBCHEM_MOLECULAR_FORMULA>
C29H36N4O7
> <PUBCHEM_MOLECULAR_WEIGHT>
552.6
> <PUBCHEM_OPENEYE_CAN_SMILES>
CCC(C=O)NC(=O)C1CC(CN1C(=O)C(C(C)C)NC(=O)CC2=CC=CC=C2[N+](=O)[O-])OCC3=CC=CC=C3
> <PUBCHEM_OPENEYE_ISO_SMILES>
CC[C@@H](C=O)NC(=O)[C@@H]1C[C@H](CN1C(=O)[C@H](C(C)C)NC(=O)CC2=CC=CC=C2[N+](=O)[O-])OCC3=CC=CC=C3
> <PUBCHEM_CACTVS_TPSA>
151
> <PUBCHEM_MONOISOTOPIC_WEIGHT>
552.25839950
> <PUBCHEM_TOTAL_CHARGE>
0
> <PUBCHEM_HEAVY_ATOM_COUNT>
40
> <PUBCHEM_ATOM_DEF_STEREO_COUNT>
4
> <PUBCHEM_ATOM_UDEF_STEREO_COUNT>
0
> <PUBCHEM_BOND_DEF_STEREO_COUNT>
0
> <PUBCHEM_BOND_UDEF_STEREO_COUNT>
0
> <PUBCHEM_ISOTOPIC_ATOM_COUNT>
0
> <PUBCHEM_COMPONENT_COUNT>
1
> <PUBCHEM_CACTVS_TAUTO_COUNT>
-1
> <PUBCHEM_COORDINATE_TYPE>
1
5
255
> <PUBCHEM_BONDANNOTATIONS>
13  1  5
17  10  6
12  18  6
25  30  8
25  31  8
30  33  8
31  34  8
32  36  8
32  37  8
33  35  8
34  35  8
36  38  8
37  39  8
38  40  8
39  40  8
23  9  5
$$$$
