506796
  -OEChem-10302200282D
 78 80  0     1  0  0  0  0  0999 V2000
    6.2524   -1.3329    0.0000 O   0  0  0  0  0  0  0  0  0  0  0  0
    6.9334    2.9285    0.0000 O   0  0  0  0  0  0  0  0  0  0  0  0
    5.5714    2.9285    0.0000 O   0  0  0  0  0  0  0  0  0  0  0  0
   10.3238    1.7014    0.0000 O   0  0  0  0  0  0  0  0  0  0  0  0
    2.0000    3.4239    0.0000 O   0  0  0  0  0  0  0  0  0  0  0  0
   12.0871    4.1284    0.0000 O   0  0  0  0  0  0  0  0  0  0  0  0
    6.7524    1.2059    0.0000 N   0  0  0  0  0  0  0  0  0  0  0  0
    4.1701    1.9104    0.0000 N   0  0  0  0  0  0  0  0  0  0  0  0
    8.9225    2.7194    0.0000 N   0  0  0  0  0  0  0  0  0  0  0  0
    5.7524    1.2059    0.0000 C   0  0  1  0  0  0  0  0  0  0  0  0
    6.2524   -0.3329    0.0000 C   0  0  2  0  0  0  0  0  0  0  0  0
    5.4434    0.2549    0.0000 C   0  0  0  0  0  0  0  0  0  0  0  0
    7.0614    0.2549    0.0000 C   0  0  0  0  0  0  0  0  0  0  0  0
    7.3402    2.0149    0.0000 C   0  0  0  0  0  0  0  0  0  0  0  0
    8.3347    1.9104    0.0000 C   0  0  2  0  0  0  0  0  0  0  0  0
    5.1646    2.0149    0.0000 C   0  0  0  0  0  0  0  0  0  0  0  0
    8.7414    0.9969    0.0000 C   0  0  0  0  0  0  0  0  0  0  0  0
    5.3864   -1.8329    0.0000 C   0  0  0  0  0  0  0  0  0  0  0  0
    9.7360    0.8924    0.0000 C   0  0  0  0  0  0  0  0  0  0  0  0
    8.1537    0.1879    0.0000 C   0  0  0  0  0  0  0  0  0  0  0  0
    3.5823    2.7194    0.0000 C   0  0  1  0  0  0  0  0  0  0  0  0
    5.3864   -2.8329    0.0000 C   0  0  0  0  0  0  0  0  0  0  0  0
    9.9170    2.6149    0.0000 C   0  0  0  0  0  0  0  0  0  0  0  0
    3.9890    3.6330    0.0000 C   0  0  0  0  0  0  0  0  0  0  0  0
    2.5878    2.6149    0.0000 C   0  0  0  0  0  0  0  0  0  0  0  0
   10.5048    3.4239    0.0000 C   0  0  0  0  0  0  0  0  0  0  0  0
    3.4013    4.4420    0.0000 C   0  0  0  0  0  0  0  0  0  0  0  0
    6.2524   -3.3329    0.0000 C   0  0  0  0  0  0  0  0  0  0  0  0
    4.5204   -3.3329    0.0000 C   0  0  0  0  0  0  0  0  0  0  0  0
   11.4993    3.3194    0.0000 C   0  0  0  0  0  0  0  0  0  0  0  0
    6.2524   -4.3329    0.0000 C   0  0  0  0  0  0  0  0  0  0  0  0
    4.5204   -4.3329    0.0000 C   0  0  0  0  0  0  0  0  0  0  0  0
    5.3864   -4.8329    0.0000 C   0  0  0  0  0  0  0  0  0  0  0  0
   13.0816    4.0239    0.0000 C   0  0  0  0  0  0  0  0  0  0  0  0
   13.6694    4.8329    0.0000 C   0  0  0  0  0  0  0  0  0  0  0  0
   13.4884    3.1103    0.0000 C   0  0  0  0  0  0  0  0  0  0  0  0
   14.6639    4.7284    0.0000 C   0  0  0  0  0  0  0  0  0  0  0  0
   14.4829    3.0058    0.0000 C   0  0  0  0  0  0  0  0  0  0  0  0
   15.0707    3.8148    0.0000 C   0  0  0  0  0  0  0  0  0  0  0  0
    6.0339    1.7584    0.0000 H   0  0  0  0  0  0  0  0  0  0  0  0
    5.7000   -0.6144    0.0000 H   0  0  0  0  0  0  0  0  0  0  0  0
    4.8770    0.5071    0.0000 H   0  0  0  0  0  0  0  0  0  0  0  0
    5.1334   -0.2821    0.0000 H   0  0  0  0  0  0  0  0  0  0  0  0
    7.3714   -0.2821    0.0000 H   0  0  0  0  0  0  0  0  0  0  0  0
    7.6278    0.5071    0.0000 H   0  0  0  0  0  0  0  0  0  0  0  0
    8.0825    2.4768    0.0000 H   0  0  0  0  0  0  0  0  0  0  0  0
    9.1059    1.4985    0.0000 H   0  0  0  0  0  0  0  0  0  0  0  0
    3.9179    1.3440    0.0000 H   0  0  0  0  0  0  0  0  0  0  0  0
    8.6703    3.2858    0.0000 H   0  0  0  0  0  0  0  0  0  0  0  0
    5.1743   -1.2503    0.0000 H   0  0  0  0  0  0  0  0  0  0  0  0
    4.7758   -1.9406    0.0000 H   0  0  0  0  0  0  0  0  0  0  0  0
    9.6712    0.2757    0.0000 H   0  0  0  0  0  0  0  0  0  0  0  0
   10.3526    0.8275    0.0000 H   0  0  0  0  0  0  0  0  0  0  0  0
    9.8008    1.5090    0.0000 H   0  0  0  0  0  0  0  0  0  0  0  0
    7.6521    0.5523    0.0000 H   0  0  0  0  0  0  0  0  0  0  0  0
    7.7892   -0.3137    0.0000 H   0  0  0  0  0  0  0  0  0  0  0  0
    8.6552   -0.1766    0.0000 H   0  0  0  0  0  0  0  0  0  0  0  0
    3.3301    2.1530    0.0000 H   0  0  0  0  0  0  0  0  0  0  0  0
    4.5030    3.2863    0.0000 H   0  0  0  0  0  0  0  0  0  0  0  0
    4.4197    4.0790    0.0000 H   0  0  0  0  0  0  0  0  0  0  0  0
   10.6757    4.0199    0.0000 H   0  0  0  0  0  0  0  0  0  0  0  0
    9.9476    3.6957    0.0000 H   0  0  0  0  0  0  0  0  0  0  0  0
    2.3356    2.0485    0.0000 H   0  0  0  0  0  0  0  0  0  0  0  0
    3.9028    4.8064    0.0000 H   0  0  0  0  0  0  0  0  0  0  0  0
    3.0368    4.9436    0.0000 H   0  0  0  0  0  0  0  0  0  0  0  0
    2.8997    4.0776    0.0000 H   0  0  0  0  0  0  0  0  0  0  0  0
    6.7893   -3.0229    0.0000 H   0  0  0  0  0  0  0  0  0  0  0  0
    3.9834   -3.0229    0.0000 H   0  0  0  0  0  0  0  0  0  0  0  0
   11.3284    2.7234    0.0000 H   0  0  0  0  0  0  0  0  0  0  0  0
   12.0566    3.0476    0.0000 H   0  0  0  0  0  0  0  0  0  0  0  0
    6.7893   -4.6429    0.0000 H   0  0  0  0  0  0  0  0  0  0  0  0
    3.9834   -4.6429    0.0000 H   0  0  0  0  0  0  0  0  0  0  0  0
    5.3864   -5.4529    0.0000 H   0  0  0  0  0  0  0  0  0  0  0  0
   13.4172    5.3993    0.0000 H   0  0  0  0  0  0  0  0  0  0  0  0
   13.1239    2.6088    0.0000 H   0  0  0  0  0  0  0  0  0  0  0  0
   15.0284    5.2300    0.0000 H   0  0  0  0  0  0  0  0  0  0  0  0
   14.7351    2.4394    0.0000 H   0  0  0  0  0  0  0  0  0  0  0  0
   15.6873    3.7500    0.0000 H   0  0  0  0  0  0  0  0  0  0  0  0
 11  1  1  6  0  0  0
  1 18  1  0  0  0  0
  2 14  2  0  0  0  0
  3 16  2  0  0  0  0
  4 23  2  0  0  0  0
  5 25  2  0  0  0  0
  6 30  1  0  0  0  0
  6 34  1  0  0  0  0
  7 10  1  0  0  0  0
  7 13  1  0  0  0  0
  7 14  1  0  0  0  0
  8 16  1  0  0  0  0
 21  8  1  6  0  0  0
  8 48  1  0  0  0  0
 15  9  1  1  0  0  0
  9 23  1  0  0  0  0
  9 49  1  0  0  0  0
 10 12  1  0  0  0  0
 10 16  1  1  0  0  0
 10 40  1  0  0  0  0
 11 12  1  0  0  0  0
 11 13  1  0  0  0  0
 11 41  1  0  0  0  0
 12 42  1  0  0  0  0
 12 43  1  0  0  0  0
 13 44  1  0  0  0  0
 13 45  1  0  0  0  0
 14 15  1  0  0  0  0
 15 17  1  0  0  0  0
 15 46  1  0  0  0  0
 17 19  1  0  0  0  0
 17 20  1  0  0  0  0
 17 47  1  0  0  0  0
 18 22  1  0  0  0  0
 18 50  1  0  0  0  0
 18 51  1  0  0  0  0
 19 52  1  0  0  0  0
 19 53  1  0  0  0  0
 19 54  1  0  0  0  0
 20 55  1  0  0  0  0
 20 56  1  0  0  0  0
 20 57  1  0  0  0  0
 21 24  1  0  0  0  0
 21 25  1  0  0  0  0
 21 58  1  0  0  0  0
 22 28  2  0  0  0  0
 22 29  1  0  0  0  0
 23 26  1  0  0  0  0
 24 27  1  0  0  0  0
 24 59  1  0  0  0  0
 24 60  1  0  0  0  0
 25 63  1  0  0  0  0
 26 30  1  0  0  0  0
 26 61  1  0  0  0  0
 26 62  1  0  0  0  0
 27 64  1  0  0  0  0
 27 65  1  0  0  0  0
 27 66  1  0  0  0  0
 28 31  1  0  0  0  0
 28 67  1  0  0  0  0
 29 32  2  0  0  0  0
 29 68  1  0  0  0  0
 30 69  1  0  0  0  0
 30 70  1  0  0  0  0
 31 33  2  0  0  0  0
 31 71  1  0  0  0  0
 32 33  1  0  0  0  0
 32 72  1  0  0  0  0
 33 73  1  0  0  0  0
 34 35  2  0  0  0  0
 34 36  1  0  0  0  0
 35 37  1  0  0  0  0
 35 74  1  0  0  0  0
 36 38  2  0  0  0  0
 36 75  1  0  0  0  0
 37 39  2  0  0  0  0
 37 76  1  0  0  0  0
 38 39  1  0  0  0  0
 38 77  1  0  0  0  0
 39 78  1  0  0  0  0
M  END
> <PUBCHEM_COMPOUND_CID>
506796
> <PUBCHEM_COMPOUND_CANONICALIZED>
1
> <PUBCHEM_CACTVS_COMPLEXITY>
794
> <PUBCHEM_CACTVS_HBOND_ACCEPTOR>
6
> <PUBCHEM_CACTVS_HBOND_DONOR>
2
> <PUBCHEM_CACTVS_ROTATABLE_BOND>
14
> <PUBCHEM_CACTVS_SUBSKEYS>
AAADcfB7OAAAAAAAAAAAAAAAAAAAAWAAAAAwYAAAAAAAAAABQAAAHgAQAAAADTzhmAYyBoPABACIAilSkAACCAAgIAAIiIGOCIgOZjaEsTqXOCCm9hGYqAe6wSAOAAAAAAAAAAAAAAAAAAAAAAAAAAAAAA==
> <PUBCHEM_IUPAC_OPENEYE_NAME>
(2S,4R)-4-benzyloxy-N-[(1S)-1-formylpropyl]-1-[(2S)-3-methyl-2-(3-phenoxypropanoylamino)butanoyl]pyrrolidine-2-carboxamide
> <PUBCHEM_IUPAC_CAS_NAME>
(2S,4R)-1-[(2S)-3-methyl-1-oxo-2-[(1-oxo-3-phenoxypropyl)amino]butyl]-N-[(2S)-1-oxobutan-2-yl]-4-phenylmethoxy-2-pyrrolidinecarboxamide
> <PUBCHEM_IUPAC_NAME_MARKUP>
(2<I>S</I>,4<I>R</I>)-1-[(2<I>S</I>)-3-methyl-2-(3-phenoxypropanoylamino)butanoyl]-<I>N</I>-[(2<I>S</I>)-1-oxobutan-2-yl]-4-phenylmethoxypyrrolidine-2-carboxamide
> <PUBCHEM_IUPAC_NAME>
(2S,4R)-1-[(2S)-3-methyl-2-(3-phenoxypropanoylamino)butanoyl]-N-[(2S)-1-oxobutan-2-yl]-4-phenylmethoxypyrrolidine-2-carboxamide
> <PUBCHEM_IUPAC_SYSTEMATIC_NAME>
(2S,4R)-1-[(2S)-3-methyl-2-(3-phenoxypropanoylamino)butanoyl]-N-[(2S)-1-oxidanylidenebutan-2-yl]-4-phenylmethoxy-pyrrolidine-2-carboxamide
> <PUBCHEM_IUPAC_TRADITIONAL_NAME>
(2S,4R)-4-benzoxy-N-[(1S)-1-formylpropyl]-1-[(2S)-3-methyl-2-(3-phenoxypropanoylamino)butanoyl]pyrrolidine-2-carboxamide
> <PUBCHEM_IUPAC_INCHI>
InChI=1S/C30H39N3O6/c1-4-23(19-34)31-29(36)26-17-25(39-20-22-11-7-5-8-12-22)18-33(26)30(37)28(21(2)3)32-27(35)15-16-38-24-13-9-6-10-14-24/h5-14,19,21,23,25-26,28H,4,15-18,20H2,1-3H3,(H,31,36)(H,32,35)/t23-,25+,26-,28-/m0/s1
> <PUBCHEM_IUPAC_INCHIKEY>
AXLNFFIAQQLTDC-IWEUKVTLSA-N
> <PUBCHEM_XLOGP3_AA>
3.4
> <PUBCHEM_EXACT_MASS>
537.28388597
> <PUBCHEM_MOLECULAR_FORMULA>
C30H39N3O6
> <PUBCHEM_MOLECULAR_WEIGHT>
537.6
> <PUBCHEM_OPENEYE_CAN_SMILES>
CCC(C=O)NC(=O)C1CC(CN1C(=O)C(C(C)C)NC(=O)CCOC2=CC=CC=C2)OCC3=CC=CC=C3
> <PUBCHEM_OPENEYE_ISO_SMILES>
CC[C@@H](C=O)NC(=O)[C@@H]1C[C@H](CN1C(=O)[C@H](C(C)C)NC(=O)CCOC2=CC=CC=C2)OCC3=CC=CC=C3
> <PUBCHEM_CACTVS_TPSA>
114
> <PUBCHEM_MONOISOTOPIC_WEIGHT>
537.28388597
> <PUBCHEM_TOTAL_CHARGE>
0
> <PUBCHEM_HEAVY_ATOM_COUNT>
39
> <PUBCHEM_ATOM_DEF_STEREO_COUNT>
4
> <PUBCHEM_ATOM_UDEF_STEREO_COUNT>
0
> <PUBCHEM_BOND_DEF_STEREO_COUNT>
0
> <PUBCHEM_BOND_UDEF_STEREO_COUNT>
0
> <PUBCHEM_ISOTOPIC_ATOM_COUNT>
0
> <PUBCHEM_COMPONENT_COUNT>
1
> <PUBCHEM_CACTVS_TAUTO_COUNT>
-1
> <PUBCHEM_COORDINATE_TYPE>
1
5
255
> <PUBCHEM_BONDANNOTATIONS>
11  1  6
10  16  5
22  28  8
22  29  8
28  31  8
29  32  8
31  33  8
32  33  8
34  35  8
34  36  8
35  37  8
36  38  8
37  39  8
38  39  8
21  8  6
15  9  5
$$$$
