506721
  -OEChem-10302200282D
 95 96  0     1  0  0  0  0  0999 V2000
    6.8671    7.0000    0.0000 O   0  0  0  0  0  0  0  0  0  0  0  0
    9.4651   -1.5000    0.0000 O   0  0  0  0  0  0  0  0  0  0  0  0
    6.0010   -0.5000    0.0000 O   0  0  0  0  0  0  0  0  0  0  0  0
   10.3312   -5.0000    0.0000 O   0  0  0  0  0  0  0  0  0  0  0  0
    6.8671    3.0000    0.0000 O   0  0  0  0  0  0  0  0  0  0  0  0
    2.5369    4.5000    0.0000 O   0  0  0  0  0  0  0  0  0  0  0  0
    7.7331   -7.5000    0.0000 O   0  0  0  0  0  0  0  0  0  0  0  0
    7.7331   -0.5000    0.0000 N   0  0  0  0  0  0  0  0  0  0  0  0
    8.5991   -3.0000    0.0000 N   0  0  0  0  0  0  0  0  0  0  0  0
    6.0010    1.5000    0.0000 N   0  0  0  0  0  0  0  0  0  0  0  0
    5.1350    6.0000    0.0000 N   0  0  0  0  0  0  0  0  0  0  0  0
    8.5991   -5.0000    0.0000 N   0  0  0  0  0  0  0  0  0  0  0  0
    7.7331   -1.5000    0.0000 C   0  0  1  0  0  0  0  0  0  0  0  0
    6.8671   -2.0000    0.0000 C   0  0  0  0  0  0  0  0  0  0  0  0
    9.4651   -3.5000    0.0000 C   0  0  2  0  0  0  0  0  0  0  0  0
   10.3312   -3.0000    0.0000 C   0  0  0  0  0  0  0  0  0  0  0  0
    6.8671    1.0000    0.0000 C   0  0  1  0  0  0  0  0  0  0  0  0
   11.1972   -3.5000    0.0000 C   0  0  0  0  0  0  0  0  0  0  0  0
    7.7331    1.5000    0.0000 C   0  0  0  0  0  0  0  0  0  0  0  0
    8.5991   -2.0000    0.0000 C   0  0  0  0  0  0  0  0  0  0  0  0
    6.8671    0.0000    0.0000 C   0  0  0  0  0  0  0  0  0  0  0  0
    6.8671   -3.0000    0.0000 C   0  0  0  0  0  0  0  0  0  0  0  0
    6.0010   -1.5000    0.0000 C   0  0  0  0  0  0  0  0  0  0  0  0
    9.4651   -4.5000    0.0000 C   0  0  0  0  0  0  0  0  0  0  0  0
   12.0632   -3.0000    0.0000 C   0  0  0  0  0  0  0  0  0  0  0  0
   11.1972   -4.5000    0.0000 C   0  0  0  0  0  0  0  0  0  0  0  0
    8.5991    1.0000    0.0000 C   0  0  0  0  0  0  0  0  0  0  0  0
    7.7331    2.5000    0.0000 C   0  0  0  0  0  0  0  0  0  0  0  0
    4.2690    5.5000    0.0000 C   0  0  0  0  0  0  0  0  0  0  0  0
    5.1350    7.0000    0.0000 C   0  0  0  0  0  0  0  0  0  0  0  0
    6.0010    5.5000    0.0000 C   0  0  0  0  0  0  0  0  0  0  0  0
    4.2690    4.5000    0.0000 C   0  0  0  0  0  0  0  0  0  0  0  0
    6.0010    7.5000    0.0000 C   0  0  0  0  0  0  0  0  0  0  0  0
    6.8671    6.0000    0.0000 C   0  0  0  0  0  0  0  0  0  0  0  0
    8.5991   -6.0000    0.0000 C   0  0  2  0  0  0  0  0  0  0  0  0
    6.0010    2.5000    0.0000 C   0  0  0  0  0  0  0  0  0  0  0  0
    5.1350    3.0000    0.0000 C   0  0  0  0  0  0  0  0  0  0  0  0
    5.1350    4.0000    0.0000 C   0  0  0  0  0  0  0  0  0  0  0  0
    9.4651   -6.5000    0.0000 C   0  0  0  0  0  0  0  0  0  0  0  0
    3.4030    4.0000    0.0000 C   0  0  0  0  0  0  0  0  0  0  0  0
    4.2690    2.5000    0.0000 C   0  0  0  0  0  0  0  0  0  0  0  0
    3.4030    3.0000    0.0000 C   0  0  0  0  0  0  0  0  0  0  0  0
    7.7331   -6.5000    0.0000 C   0  0  0  0  0  0  0  0  0  0  0  0
    9.4651   -7.5000    0.0000 C   0  0  0  0  0  0  0  0  0  0  0  0
    8.2700   -1.1900    0.0000 H   0  0  0  0  0  0  0  0  0  0  0  0
    6.3301   -2.3100    0.0000 H   0  0  0  0  0  0  0  0  0  0  0  0
    9.4651   -2.8800    0.0000 H   0  0  0  0  0  0  0  0  0  0  0  0
   10.7297   -2.5250    0.0000 H   0  0  0  0  0  0  0  0  0  0  0  0
    9.9326   -2.5250    0.0000 H   0  0  0  0  0  0  0  0  0  0  0  0
    6.3301    0.6900    0.0000 H   0  0  0  0  0  0  0  0  0  0  0  0
   10.6603   -3.8100    0.0000 H   0  0  0  0  0  0  0  0  0  0  0  0
    7.7331    0.8800    0.0000 H   0  0  0  0  0  0  0  0  0  0  0  0
    8.2700   -0.1900    0.0000 H   0  0  0  0  0  0  0  0  0  0  0  0
    8.0622   -3.3100    0.0000 H   0  0  0  0  0  0  0  0  0  0  0  0
    6.2471   -3.0000    0.0000 H   0  0  0  0  0  0  0  0  0  0  0  0
    6.8671   -3.6200    0.0000 H   0  0  0  0  0  0  0  0  0  0  0  0
    7.4871   -3.0000    0.0000 H   0  0  0  0  0  0  0  0  0  0  0  0
    6.3110   -0.9631    0.0000 H   0  0  0  0  0  0  0  0  0  0  0  0
    5.4641   -1.1900    0.0000 H   0  0  0  0  0  0  0  0  0  0  0  0
    5.6910   -2.0369    0.0000 H   0  0  0  0  0  0  0  0  0  0  0  0
    5.4641    1.1900    0.0000 H   0  0  0  0  0  0  0  0  0  0  0  0
   12.3732   -3.5369    0.0000 H   0  0  0  0  0  0  0  0  0  0  0  0
   12.6002   -2.6900    0.0000 H   0  0  0  0  0  0  0  0  0  0  0  0
   11.7532   -2.4631    0.0000 H   0  0  0  0  0  0  0  0  0  0  0  0
   10.5772   -4.5000    0.0000 H   0  0  0  0  0  0  0  0  0  0  0  0
   11.1972   -5.1200    0.0000 H   0  0  0  0  0  0  0  0  0  0  0  0
   11.8172   -4.5000    0.0000 H   0  0  0  0  0  0  0  0  0  0  0  0
    8.2891    0.4631    0.0000 H   0  0  0  0  0  0  0  0  0  0  0  0
    9.1360    0.6900    0.0000 H   0  0  0  0  0  0  0  0  0  0  0  0
    8.9091    1.5369    0.0000 H   0  0  0  0  0  0  0  0  0  0  0  0
    8.3531    2.5000    0.0000 H   0  0  0  0  0  0  0  0  0  0  0  0
    7.7331    3.1200    0.0000 H   0  0  0  0  0  0  0  0  0  0  0  0
    7.1131    2.5000    0.0000 H   0  0  0  0  0  0  0  0  0  0  0  0
    4.0569    6.0826    0.0000 H   0  0  0  0  0  0  0  0  0  0  0  0
    3.6584    5.3923    0.0000 H   0  0  0  0  0  0  0  0  0  0  0  0
    4.9230    7.5826    0.0000 H   0  0  0  0  0  0  0  0  0  0  0  0
    4.5244    6.8923    0.0000 H   0  0  0  0  0  0  0  0  0  0  0  0
    5.6025    5.0250    0.0000 H   0  0  0  0  0  0  0  0  0  0  0  0
    6.3996    5.0250    0.0000 H   0  0  0  0  0  0  0  0  0  0  0  0
    8.0622   -4.6900    0.0000 H   0  0  0  0  0  0  0  0  0  0  0  0
    6.3996    7.9750    0.0000 H   0  0  0  0  0  0  0  0  0  0  0  0
    5.6025    7.9750    0.0000 H   0  0  0  0  0  0  0  0  0  0  0  0
    7.0791    5.4174    0.0000 H   0  0  0  0  0  0  0  0  0  0  0  0
    7.4776    6.1077    0.0000 H   0  0  0  0  0  0  0  0  0  0  0  0
    8.0622   -5.6900    0.0000 H   0  0  0  0  0  0  0  0  0  0  0  0
    5.6720    4.3100    0.0000 H   0  0  0  0  0  0  0  0  0  0  0  0
   10.0757   -6.6077    0.0000 H   0  0  0  0  0  0  0  0  0  0  0  0
    9.6772   -5.9174    0.0000 H   0  0  0  0  0  0  0  0  0  0  0  0
    4.2690    1.8800    0.0000 H   0  0  0  0  0  0  0  0  0  0  0  0
    2.8660    2.6900    0.0000 H   0  0  0  0  0  0  0  0  0  0  0  0
    7.1962   -6.1900    0.0000 H   0  0  0  0  0  0  0  0  0  0  0  0
    8.8451   -7.5000    0.0000 H   0  0  0  0  0  0  0  0  0  0  0  0
    9.4651   -8.1200    0.0000 H   0  0  0  0  0  0  0  0  0  0  0  0
   10.0851   -7.5000    0.0000 H   0  0  0  0  0  0  0  0  0  0  0  0
    2.0000    4.1900    0.0000 H   0  0  0  0  0  0  0  0  0  0  0  0
  1 33  1  0  0  0  0
  1 34  1  0  0  0  0
  2 20  2  0  0  0  0
  3 21  2  0  0  0  0
  4 24  2  0  0  0  0
  5 36  2  0  0  0  0
  6 40  1  0  0  0  0
  6 95  1  0  0  0  0
  7 43  2  0  0  0  0
 13  8  1  6  0  0  0
  8 21  1  0  0  0  0
  8 53  1  0  0  0  0
 15  9  1  6  0  0  0
  9 20  1  0  0  0  0
  9 54  1  0  0  0  0
 17 10  1  1  0  0  0
 10 36  1  0  0  0  0
 10 61  1  0  0  0  0
 11 29  1  0  0  0  0
 11 30  1  0  0  0  0
 11 31  1  0  0  0  0
 12 24  1  0  0  0  0
 35 12  1  6  0  0  0
 12 80  1  0  0  0  0
 13 14  1  0  0  0  0
 13 20  1  0  0  0  0
 13 45  1  0  0  0  0
 14 22  1  0  0  0  0
 14 23  1  0  0  0  0
 14 46  1  0  0  0  0
 15 16  1  0  0  0  0
 15 24  1  0  0  0  0
 15 47  1  0  0  0  0
 16 18  1  0  0  0  0
 16 48  1  0  0  0  0
 16 49  1  0  0  0  0
 17 19  1  0  0  0  0
 17 21  1  0  0  0  0
 17 50  1  0  0  0  0
 18 25  1  0  0  0  0
 18 26  1  0  0  0  0
 18 51  1  0  0  0  0
 19 27  1  0  0  0  0
 19 28  1  0  0  0  0
 19 52  1  0  0  0  0
 22 55  1  0  0  0  0
 22 56  1  0  0  0  0
 22 57  1  0  0  0  0
 23 58  1  0  0  0  0
 23 59  1  0  0  0  0
 23 60  1  0  0  0  0
 25 62  1  0  0  0  0
 25 63  1  0  0  0  0
 25 64  1  0  0  0  0
 26 65  1  0  0  0  0
 26 66  1  0  0  0  0
 26 67  1  0  0  0  0
 27 68  1  0  0  0  0
 27 69  1  0  0  0  0
 27 70  1  0  0  0  0
 28 71  1  0  0  0  0
 28 72  1  0  0  0  0
 28 73  1  0  0  0  0
 29 32  1  0  0  0  0
 29 74  1  0  0  0  0
 29 75  1  0  0  0  0
 30 33  1  0  0  0  0
 30 76  1  0  0  0  0
 30 77  1  0  0  0  0
 31 34  1  0  0  0  0
 31 78  1  0  0  0  0
 31 79  1  0  0  0  0
 32 38  1  0  0  0  0
 32 40  2  0  0  0  0
 33 81  1  0  0  0  0
 33 82  1  0  0  0  0
 34 83  1  0  0  0  0
 34 84  1  0  0  0  0
 35 39  1  0  0  0  0
 35 43  1  0  0  0  0
 35 85  1  0  0  0  0
 36 37  1  0  0  0  0
 37 38  2  0  0  0  0
 37 41  1  0  0  0  0
 38 86  1  0  0  0  0
 39 44  1  0  0  0  0
 39 87  1  0  0  0  0
 39 88  1  0  0  0  0
 40 42  1  0  0  0  0
 41 42  2  0  0  0  0
 41 89  1  0  0  0  0
 42 90  1  0  0  0  0
 43 91  1  0  0  0  0
 44 92  1  0  0  0  0
 44 93  1  0  0  0  0
 44 94  1  0  0  0  0
M  END
> <PUBCHEM_COMPOUND_CID>
506721
> <PUBCHEM_COMPOUND_CANONICALIZED>
1
> <PUBCHEM_CACTVS_COMPLEXITY>
953
> <PUBCHEM_CACTVS_HBOND_ACCEPTOR>
8
> <PUBCHEM_CACTVS_HBOND_DONOR>
5
> <PUBCHEM_CACTVS_ROTATABLE_BOND>
16
> <PUBCHEM_CACTVS_SUBSKEYS>
AAADcfB/uAAAAAAAAAAAAAAAAAAAAAAAAAA8QAAAAAAAAAABAAAAHgAQCAAADSzhmAYyBoPABgCIAilSkACCAAAkIAAIiIGODMgKZjKClTOXcQhm1hGYmYeY3WLOIAACAAAIAABAAAQAABAAAAAAAAAAAA==
> <PUBCHEM_IUPAC_OPENEYE_NAME>
N-[(1S)-1-[[(1S)-1-[[(1R)-1-[[(1R)-1-formylpropyl]carbamoyl]-3-methyl-butyl]carbamoyl]-2-methyl-propyl]carbamoyl]-2-methyl-propyl]-4-hydroxy-3-(morpholinomethyl)benzamide
> <PUBCHEM_IUPAC_CAS_NAME>
4-hydroxy-N-[(2S)-3-methyl-1-[[(2S)-3-methyl-1-[[(2R)-4-methyl-1-oxo-1-[[(2R)-1-oxobutan-2-yl]amino]pentan-2-yl]amino]-1-oxobutan-2-yl]amino]-1-oxobutan-2-yl]-3-(4-morpholinylmethyl)benzamide
> <PUBCHEM_IUPAC_NAME_MARKUP>
4-hydroxy-<I>N</I>-[(2<I>S</I>)-3-methyl-1-[[(2<I>S</I>)-3-methyl-1-[[(2<I>R</I>)-4-methyl-1-oxo-1-[[(2<I>R</I>)-1-oxobutan-2-yl]amino]pentan-2-yl]amino]-1-oxobutan-2-yl]amino]-1-oxobutan-2-yl]-3-(morpholin-4-ylmethyl)benzamide
> <PUBCHEM_IUPAC_NAME>
4-hydroxy-N-[(2S)-3-methyl-1-[[(2S)-3-methyl-1-[[(2R)-4-methyl-1-oxo-1-[[(2R)-1-oxobutan-2-yl]amino]pentan-2-yl]amino]-1-oxobutan-2-yl]amino]-1-oxobutan-2-yl]-3-(morpholin-4-ylmethyl)benzamide
> <PUBCHEM_IUPAC_SYSTEMATIC_NAME>
N-[(2S)-3-methyl-1-[[(2S)-3-methyl-1-[[(2R)-4-methyl-1-oxidanylidene-1-[[(2R)-1-oxidanylidenebutan-2-yl]amino]pentan-2-yl]amino]-1-oxidanylidene-butan-2-yl]amino]-1-oxidanylidene-butan-2-yl]-3-(morpholin-4-ylmethyl)-4-oxidanyl-benzamide
> <PUBCHEM_IUPAC_TRADITIONAL_NAME>
N-[(1S)-1-[[(1S)-1-[[(1R)-1-[[(1R)-1-formylpropyl]carbamoyl]-3-methyl-butyl]carbamoyl]-2-methyl-propyl]carbamoyl]-2-methyl-propyl]-4-hydroxy-3-(morpholinomethyl)benzamide
> <PUBCHEM_IUPAC_INCHI>
InChI=1S/C32H51N5O7/c1-8-24(18-38)33-30(41)25(15-19(2)3)34-31(42)27(20(4)5)36-32(43)28(21(6)7)35-29(40)22-9-10-26(39)23(16-22)17-37-11-13-44-14-12-37/h9-10,16,18-21,24-25,27-28,39H,8,11-15,17H2,1-7H3,(H,33,41)(H,34,42)(H,35,40)(H,36,43)/t24-,25-,27+,28+/m1/s1
> <PUBCHEM_IUPAC_INCHIKEY>
VLMLWHOABLTPBW-CZJMETBBSA-N
> <PUBCHEM_XLOGP3_AA>
3.3
> <PUBCHEM_EXACT_MASS>
617.37884898
> <PUBCHEM_MOLECULAR_FORMULA>
C32H51N5O7
> <PUBCHEM_MOLECULAR_WEIGHT>
617.8
> <PUBCHEM_OPENEYE_CAN_SMILES>
CCC(C=O)NC(=O)C(CC(C)C)NC(=O)C(C(C)C)NC(=O)C(C(C)C)NC(=O)C1=CC(=C(C=C1)O)CN2CCOCC2
> <PUBCHEM_OPENEYE_ISO_SMILES>
CC[C@H](C=O)NC(=O)[C@@H](CC(C)C)NC(=O)[C@H](C(C)C)NC(=O)[C@H](C(C)C)NC(=O)C1=CC(=C(C=C1)O)CN2CCOCC2
> <PUBCHEM_CACTVS_TPSA>
166
> <PUBCHEM_MONOISOTOPIC_WEIGHT>
617.37884898
> <PUBCHEM_TOTAL_CHARGE>
0
> <PUBCHEM_HEAVY_ATOM_COUNT>
44
> <PUBCHEM_ATOM_DEF_STEREO_COUNT>
4
> <PUBCHEM_ATOM_UDEF_STEREO_COUNT>
0
> <PUBCHEM_BOND_DEF_STEREO_COUNT>
0
> <PUBCHEM_BOND_UDEF_STEREO_COUNT>
0
> <PUBCHEM_ISOTOPIC_ATOM_COUNT>
0
> <PUBCHEM_COMPONENT_COUNT>
1
> <PUBCHEM_CACTVS_TAUTO_COUNT>
-1
> <PUBCHEM_COORDINATE_TYPE>
1
5
255
> <PUBCHEM_BONDANNOTATIONS>
17  10  5
35  12  6
32  38  8
32  40  8
37  38  8
37  41  8
40  42  8
41  42  8
13  8  6
15  9  6
$$$$
