506893
  -OEChem-10302200282D
 88 90  0     1  0  0  0  0  0999 V2000
    7.2641    2.3170    0.0000 O   0  0  0  0  0  0  0  0  0  0  0  0
    5.5321   -0.6830    0.0000 O   0  0  0  0  0  0  0  0  0  0  0  0
    5.5321   -1.6830    0.0000 O   0  0  0  0  0  0  0  0  0  0  0  0
    6.3981   -5.1830    0.0000 O   0  0  0  0  0  0  0  0  0  0  0  0
    4.6660   -2.1830    0.0000 O   0  0  0  0  0  0  0  0  0  0  0  0
    5.5321    1.3170    0.0000 N   0  0  3  0  0  0  0  0  0  0  0  0
    6.3981    3.8170    0.0000 N   0  0  0  0  0  0  0  0  0  0  0  0
    7.2641   -1.6830    0.0000 N   0  0  0  0  0  0  0  0  0  0  0  0
    5.5321   -3.6830    0.0000 N   0  0  0  0  0  0  0  0  0  0  0  0
    3.8000    2.3170    0.0000 C   0  0  2  0  0  0  0  0  0  0  0  0
    3.8000    1.3170    0.0000 C   0  0  1  0  0  0  0  0  0  0  0  0
    4.6660    2.8170    0.0000 C   0  0  0  0  0  0  0  0  0  0  0  0
    4.6660    0.8170    0.0000 C   0  0  0  0  0  0  0  0  0  0  0  0
    2.9061    2.8516    0.0000 C   0  0  0  0  0  0  0  0  0  0  0  0
    2.9061    0.7823    0.0000 C   0  0  0  0  0  0  0  0  0  0  0  0
    5.5321    2.3170    0.0000 C   0  0  1  0  0  0  0  0  0  0  0  0
    2.0000    2.3378    0.0000 C   0  0  0  0  0  0  0  0  0  0  0  0
    2.0000    1.2962    0.0000 C   0  0  0  0  0  0  0  0  0  0  0  0
    6.3981    0.8170    0.0000 C   0  0  0  0  0  0  0  0  0  0  0  0
    6.3981    2.8170    0.0000 C   0  0  0  0  0  0  0  0  0  0  0  0
    6.3981   -0.1830    0.0000 C   0  0  2  0  0  0  0  0  0  0  0  0
    7.2641   -0.6830    0.0000 C   0  0  2  0  0  0  0  0  0  0  0  0
    7.2641    4.3170    0.0000 C   0  0  0  0  0  0  0  0  0  0  0  0
    8.1301   -0.1830    0.0000 C   0  0  0  0  0  0  0  0  0  0  0  0
    8.1301    4.8170    0.0000 C   0  0  0  0  0  0  0  0  0  0  0  0
    6.7641    5.1830    0.0000 C   0  0  0  0  0  0  0  0  0  0  0  0
    7.7641    3.4510    0.0000 C   0  0  0  0  0  0  0  0  0  0  0  0
    8.9962   -0.6830    0.0000 C   0  0  0  0  0  0  0  0  0  0  0  0
    6.3981   -2.1830    0.0000 C   0  0  0  0  0  0  0  0  0  0  0  0
    6.3981   -3.1830    0.0000 C   0  0  2  0  0  0  0  0  0  0  0  0
    9.8622   -0.1830    0.0000 C   0  0  0  0  0  0  0  0  0  0  0  0
    8.9962   -1.6830    0.0000 C   0  0  0  0  0  0  0  0  0  0  0  0
    7.2641   -3.6830    0.0000 C   0  0  0  0  0  0  0  0  0  0  0  0
   10.7282   -0.6830    0.0000 C   0  0  0  0  0  0  0  0  0  0  0  0
    9.8622   -2.1830    0.0000 C   0  0  0  0  0  0  0  0  0  0  0  0
   10.7282   -1.6830    0.0000 C   0  0  0  0  0  0  0  0  0  0  0  0
    7.2641   -4.6830    0.0000 C   0  0  0  0  0  0  0  0  0  0  0  0
    4.6660   -3.1830    0.0000 C   0  0  0  0  0  0  0  0  0  0  0  0
    8.1301   -5.1830    0.0000 C   0  0  0  0  0  0  0  0  0  0  0  0
    3.8000   -3.6830    0.0000 C   0  0  0  0  0  0  0  0  0  0  0  0
    3.8066    3.1670    0.0000 H   0  0  0  0  0  0  0  0  0  0  0  0
    3.8066    0.4670    0.0000 H   0  0  0  0  0  0  0  0  0  0  0  0
    5.0646    3.2919    0.0000 H   0  0  0  0  0  0  0  0  0  0  0  0
    4.2675    3.2919    0.0000 H   0  0  0  0  0  0  0  0  0  0  0  0
    4.2675    0.3420    0.0000 H   0  0  0  0  0  0  0  0  0  0  0  0
    5.0646    0.3420    0.0000 H   0  0  0  0  0  0  0  0  0  0  0  0
    3.3107    3.3214    0.0000 H   0  0  0  0  0  0  0  0  0  0  0  0
    2.5124    3.3307    0.0000 H   0  0  0  0  0  0  0  0  0  0  0  0
    2.5124    0.3033    0.0000 H   0  0  0  0  0  0  0  0  0  0  0  0
    3.3107    0.3125    0.0000 H   0  0  0  0  0  0  0  0  0  0  0  0
    6.0690    2.0070    0.0000 H   0  0  0  0  0  0  0  0  0  0  0  0
    1.7909    2.9215    0.0000 H   0  0  0  0  0  0  0  0  0  0  0  0
    1.3891    2.2317    0.0000 H   0  0  0  0  0  0  0  0  0  0  0  0
    1.3891    1.4023    0.0000 H   0  0  0  0  0  0  0  0  0  0  0  0
    1.7909    0.7125    0.0000 H   0  0  0  0  0  0  0  0  0  0  0  0
    7.0087    0.7093    0.0000 H   0  0  0  0  0  0  0  0  0  0  0  0
    6.6101    1.3996    0.0000 H   0  0  0  0  0  0  0  0  0  0  0  0
    6.3981   -0.8030    0.0000 H   0  0  0  0  0  0  0  0  0  0  0  0
    7.8010   -0.9930    0.0000 H   0  0  0  0  0  0  0  0  0  0  0  0
    5.8612    4.1270    0.0000 H   0  0  0  0  0  0  0  0  0  0  0  0
    8.5287    0.2919    0.0000 H   0  0  0  0  0  0  0  0  0  0  0  0
    7.7316    0.2919    0.0000 H   0  0  0  0  0  0  0  0  0  0  0  0
    4.9951   -0.3730    0.0000 H   0  0  0  0  0  0  0  0  0  0  0  0
    7.8010   -1.9930    0.0000 H   0  0  0  0  0  0  0  0  0  0  0  0
    8.4401    4.2800    0.0000 H   0  0  0  0  0  0  0  0  0  0  0  0
    8.6671    5.1270    0.0000 H   0  0  0  0  0  0  0  0  0  0  0  0
    7.8201    5.3539    0.0000 H   0  0  0  0  0  0  0  0  0  0  0  0
    7.3010    5.4930    0.0000 H   0  0  0  0  0  0  0  0  0  0  0  0
    6.4541    5.7200    0.0000 H   0  0  0  0  0  0  0  0  0  0  0  0
    6.2272    4.8730    0.0000 H   0  0  0  0  0  0  0  0  0  0  0  0
    7.2272    3.1410    0.0000 H   0  0  0  0  0  0  0  0  0  0  0  0
    8.0741    2.9140    0.0000 H   0  0  0  0  0  0  0  0  0  0  0  0
    8.3010    3.7610    0.0000 H   0  0  0  0  0  0  0  0  0  0  0  0
    6.3981   -3.8030    0.0000 H   0  0  0  0  0  0  0  0  0  0  0  0
    9.8622    0.4370    0.0000 H   0  0  0  0  0  0  0  0  0  0  0  0
    8.4592   -1.9930    0.0000 H   0  0  0  0  0  0  0  0  0  0  0  0
    7.8747   -3.7907    0.0000 H   0  0  0  0  0  0  0  0  0  0  0  0
    7.4762   -3.1004    0.0000 H   0  0  0  0  0  0  0  0  0  0  0  0
    5.5321   -4.3030    0.0000 H   0  0  0  0  0  0  0  0  0  0  0  0
   11.2651   -0.3730    0.0000 H   0  0  0  0  0  0  0  0  0  0  0  0
    9.8622   -2.8030    0.0000 H   0  0  0  0  0  0  0  0  0  0  0  0
   11.2651   -1.9930    0.0000 H   0  0  0  0  0  0  0  0  0  0  0  0
    7.8201   -5.7200    0.0000 H   0  0  0  0  0  0  0  0  0  0  0  0
    8.6671   -5.4930    0.0000 H   0  0  0  0  0  0  0  0  0  0  0  0
    8.4401   -4.6461    0.0000 H   0  0  0  0  0  0  0  0  0  0  0  0
    3.4900   -3.1461    0.0000 H   0  0  0  0  0  0  0  0  0  0  0  0
    3.2631   -3.9930    0.0000 H   0  0  0  0  0  0  0  0  0  0  0  0
    4.1100   -4.2200    0.0000 H   0  0  0  0  0  0  0  0  0  0  0  0
  1 20  2  0  0  0  0
 21  2  1  6  0  0  0
  2 63  1  0  0  0  0
  3 29  2  0  0  0  0
  4 37  2  0  0  0  0
  5 38  2  0  0  0  0
  6 13  1  0  0  0  0
  6 16  1  0  0  0  0
  6 19  1  0  0  0  0
  7 20  1  0  0  0  0
  7 23  1  0  0  0  0
  7 60  1  0  0  0  0
 22  8  1  6  0  0  0
  8 29  1  0  0  0  0
  8 64  1  0  0  0  0
 30  9  1  6  0  0  0
  9 38  1  0  0  0  0
  9 79  1  0  0  0  0
 10 11  1  0  0  0  0
 10 12  1  0  0  0  0
 10 14  1  0  0  0  0
 10 41  1  6  0  0  0
 11 13  1  0  0  0  0
 11 15  1  0  0  0  0
 11 42  1  6  0  0  0
 12 16  1  0  0  0  0
 12 43  1  0  0  0  0
 12 44  1  0  0  0  0
 13 45  1  0  0  0  0
 13 46  1  0  0  0  0
 14 17  1  0  0  0  0
 14 47  1  0  0  0  0
 14 48  1  0  0  0  0
 15 18  1  0  0  0  0
 15 49  1  0  0  0  0
 15 50  1  0  0  0  0
 16 20  1  1  0  0  0
 16 51  1  0  0  0  0
 17 18  1  0  0  0  0
 17 52  1  0  0  0  0
 17 53  1  0  0  0  0
 18 54  1  0  0  0  0
 18 55  1  0  0  0  0
 19 21  1  0  0  0  0
 19 56  1  0  0  0  0
 19 57  1  0  0  0  0
 21 22  1  0  0  0  0
 21 58  1  0  0  0  0
 22 24  1  0  0  0  0
 22 59  1  0  0  0  0
 23 25  1  0  0  0  0
 23 26  1  0  0  0  0
 23 27  1  0  0  0  0
 24 28  1  0  0  0  0
 24 61  1  0  0  0  0
 24 62  1  0  0  0  0
 25 65  1  0  0  0  0
 25 66  1  0  0  0  0
 25 67  1  0  0  0  0
 26 68  1  0  0  0  0
 26 69  1  0  0  0  0
 26 70  1  0  0  0  0
 27 71  1  0  0  0  0
 27 72  1  0  0  0  0
 27 73  1  0  0  0  0
 28 31  2  0  0  0  0
 28 32  1  0  0  0  0
 29 30  1  0  0  0  0
 30 33  1  0  0  0  0
 30 74  1  0  0  0  0
 31 34  1  0  0  0  0
 31 75  1  0  0  0  0
 32 35  2  0  0  0  0
 32 76  1  0  0  0  0
 33 37  1  0  0  0  0
 33 77  1  0  0  0  0
 33 78  1  0  0  0  0
 34 36  2  0  0  0  0
 34 80  1  0  0  0  0
 35 36  1  0  0  0  0
 35 81  1  0  0  0  0
 36 82  1  0  0  0  0
 37 39  1  0  0  0  0
 38 40  1  0  0  0  0
 39 83  1  0  0  0  0
 39 84  1  0  0  0  0
 39 85  1  0  0  0  0
 40 86  1  0  0  0  0
 40 87  1  0  0  0  0
 40 88  1  0  0  0  0
M  END
> <PUBCHEM_COMPOUND_CID>
506893
> <PUBCHEM_COMPOUND_CANONICALIZED>
1
> <PUBCHEM_CACTVS_COMPLEXITY>
881
> <PUBCHEM_CACTVS_HBOND_ACCEPTOR>
6
> <PUBCHEM_CACTVS_HBOND_DONOR>
4
> <PUBCHEM_CACTVS_ROTATABLE_BOND>
12
> <PUBCHEM_CACTVS_SUBSKEYS>
AAADcfB7uAAAAAAAAAAAAAAAAAAAAAAAAAA8YIAAAAAAAACxAAAAHgAQCAAADbzhmAYyAIPAAgCIAqFSEAACAAAgAAAIiIGIAIgKcDqA0TGUYAAklgCYiAedyKCOgAAAAAAAAAAAAAAAACAAAAAAAAAAAA==
> <PUBCHEM_IUPAC_OPENEYE_NAME>
(3S,4aS,8aS)-2-[(2R,3S)-3-[[(2S)-2-acetamido-4-oxo-pentanoyl]amino]-2-hydroxy-4-phenyl-butyl]-N-tert-butyl-3,4,4a,5,6,7,8,8a-octahydro-1H-isoquinoline-3-carboxamide
> <PUBCHEM_IUPAC_CAS_NAME>
(3S,4aS,8aS)-2-[(2R,3S)-3-[[(2S)-2-acetamido-1,4-dioxopentyl]amino]-2-hydroxy-4-phenylbutyl]-N-tert-butyl-3,4,4a,5,6,7,8,8a-octahydro-1H-isoquinoline-3-carboxamide
> <PUBCHEM_IUPAC_NAME_MARKUP>
(3<I>S</I>,4<I>a</I><I>S</I>,8<I>a</I><I>S</I>)-2-[(2<I>R</I>,3<I>S</I>)-3-[[(2<I>S</I>)-2-acetamido-4-oxopentanoyl]amino]-2-hydroxy-4-phenylbutyl]-<I>N</I>-<I>tert</I>-butyl-3,4,4<I>a</I>,5,6,7,8,8<I>a</I>-octahydro-1<I>H</I>-isoquinoline-3-carboxamide
> <PUBCHEM_IUPAC_NAME>
(3S,4aS,8aS)-2-[(2R,3S)-3-[[(2S)-2-acetamido-4-oxopentanoyl]amino]-2-hydroxy-4-phenylbutyl]-N-tert-butyl-3,4,4a,5,6,7,8,8a-octahydro-1H-isoquinoline-3-carboxamide
> <PUBCHEM_IUPAC_SYSTEMATIC_NAME>
(3S,4aS,8aS)-2-[(2R,3S)-3-[[(2S)-2-acetamido-4-oxidanylidene-pentanoyl]amino]-2-oxidanyl-4-phenyl-butyl]-N-tert-butyl-3,4,4a,5,6,7,8,8a-octahydro-1H-isoquinoline-3-carboxamide
> <PUBCHEM_IUPAC_TRADITIONAL_NAME>
(3S,4aS,8aS)-2-[(2R,3S)-3-[[(2S)-2-acetamido-4-keto-pentanoyl]amino]-2-hydroxy-4-phenyl-butyl]-N-tert-butyl-3,4,4a,5,6,7,8,8a-octahydro-1H-isoquinoline-3-carboxamide
> <PUBCHEM_IUPAC_INCHI>
InChI=1S/C31H48N4O5/c1-20(36)15-26(32-21(2)37)29(39)33-25(16-22-11-7-6-8-12-22)28(38)19-35-18-24-14-10-9-13-23(24)17-27(35)30(40)34-31(3,4)5/h6-8,11-12,23-28,38H,9-10,13-19H2,1-5H3,(H,32,37)(H,33,39)(H,34,40)/t23-,24+,25-,26-,27-,28+/m0/s1
> <PUBCHEM_IUPAC_INCHIKEY>
UDDKDVRCJCKSKV-ZXOGEQNHSA-N
> <PUBCHEM_XLOGP3_AA>
2.8
> <PUBCHEM_EXACT_MASS>
556.36247064
> <PUBCHEM_MOLECULAR_FORMULA>
C31H48N4O5
> <PUBCHEM_MOLECULAR_WEIGHT>
556.7
> <PUBCHEM_OPENEYE_CAN_SMILES>
CC(=O)CC(C(=O)NC(CC1=CC=CC=C1)C(CN2CC3CCCCC3CC2C(=O)NC(C)(C)C)O)NC(=O)C
> <PUBCHEM_OPENEYE_ISO_SMILES>
CC(=O)C[C@@H](C(=O)N[C@@H](CC1=CC=CC=C1)[C@@H](CN2C[C@H]3CCCC[C@H]3C[C@H]2C(=O)NC(C)(C)C)O)NC(=O)C
> <PUBCHEM_CACTVS_TPSA>
128
> <PUBCHEM_MONOISOTOPIC_WEIGHT>
556.36247064
> <PUBCHEM_TOTAL_CHARGE>
0
> <PUBCHEM_HEAVY_ATOM_COUNT>
40
> <PUBCHEM_ATOM_DEF_STEREO_COUNT>
6
> <PUBCHEM_ATOM_UDEF_STEREO_COUNT>
0
> <PUBCHEM_BOND_DEF_STEREO_COUNT>
0
> <PUBCHEM_BOND_UDEF_STEREO_COUNT>
0
> <PUBCHEM_ISOTOPIC_ATOM_COUNT>
0
> <PUBCHEM_COMPONENT_COUNT>
1
> <PUBCHEM_CACTVS_TAUTO_COUNT>
-1
> <PUBCHEM_COORDINATE_TYPE>
1
5
255
> <PUBCHEM_BONDANNOTATIONS>
10  41  6
11  42  6
16  20  5
21  2  6
28  31  8
28  32  8
31  34  8
32  35  8
34  36  8
35  36  8
22  8  6
30  9  6
$$$$
