506820
  -OEChem-10302200282D
 96 97  0     1  0  0  0  0  0999 V2000
   13.1106    2.6933    0.0000 O   0  0  0  0  0  0  0  0  0  0  0  0
   12.3100    1.5913    0.0000 O   0  0  0  0  0  0  0  0  0  0  0  0
   11.3100   -1.8728    0.0000 O   0  0  0  0  0  0  0  0  0  0  0  0
   14.8090    5.8738    0.0000 O   0  0  0  0  0  0  0  0  0  0  0  0
    7.8100   -1.0067    0.0000 O   0  0  0  0  0  0  0  0  0  0  0  0
    8.3100   -5.3369    0.0000 O   0  0  0  0  0  0  0  0  0  0  0  0
    6.8100   -1.0067    0.0000 O   0  0  0  0  0  0  0  0  0  0  0  0
    6.8100   -4.4708    0.0000 O   0  0  0  0  0  0  0  0  0  0  0  0
    3.3100   -1.8728    0.0000 O   0  0  0  0  0  0  0  0  0  0  0  0
    2.3100   -3.6048    0.0000 O   0  0  0  0  0  0  0  0  0  0  0  0
    3.8100   -4.4708    0.0000 O   0  0  0  0  0  0  0  0  0  0  0  0
   13.8100    0.7253    0.0000 N   0  0  0  0  0  0  0  0  0  0  0  0
   14.7579    3.2285    0.0000 N   0  0  0  0  0  0  0  0  0  0  0  0
   11.3100   -0.1407    0.0000 N   0  0  0  0  0  0  0  0  0  0  0  0
    9.3100   -1.8728    0.0000 N   0  0  0  0  0  0  0  0  0  0  0  0
    6.8100   -2.7388    0.0000 N   0  0  0  0  0  0  0  0  0  0  0  0
    4.8100   -1.0067    0.0000 N   0  0  0  0  0  0  0  0  0  0  0  0
   15.3488    1.2253    0.0000 C   0  0  1  0  0  0  0  0  0  0  0  0
   15.3488    0.2253    0.0000 C   0  0  3  0  0  0  0  0  0  0  0  0
   16.2154    0.7253    0.0000 C   0  0  0  0  0  0  0  0  0  0  0  0
   14.3978    1.5343    0.0000 C   0  0  3  0  0  0  0  0  0  0  0  0
   14.3978   -0.0837    0.0000 C   0  0  0  0  0  0  0  0  0  0  0  0
   14.0888    2.4854    0.0000 C   0  0  0  0  0  0  0  0  0  0  0  0
   12.8100    0.7253    0.0000 C   0  0  0  0  0  0  0  0  0  0  0  0
   12.3100   -0.1407    0.0000 C   0  0  2  0  0  0  0  0  0  0  0  0
   12.8100   -1.0067    0.0000 C   0  0  0  0  0  0  0  0  0  0  0  0
   14.4489    4.1796    0.0000 C   0  0  3  0  0  0  0  0  0  0  0  0
   12.3100   -1.8728    0.0000 C   0  0  0  0  0  0  0  0  0  0  0  0
   13.8100   -1.0067    0.0000 C   0  0  0  0  0  0  0  0  0  0  0  0
   13.4707    4.3875    0.0000 C   0  0  0  0  0  0  0  0  0  0  0  0
   10.8100   -1.0067    0.0000 C   0  0  0  0  0  0  0  0  0  0  0  0
   15.1180    4.9227    0.0000 C   0  0  0  0  0  0  0  0  0  0  0  0
    9.8100   -1.0067    0.0000 C   0  0  2  0  0  0  0  0  0  0  0  0
   13.1617    5.3386    0.0000 C   0  0  0  0  0  0  0  0  0  0  0  0
    9.3100   -0.1407    0.0000 C   0  0  0  0  0  0  0  0  0  0  0  0
    8.3100   -0.1407    0.0000 C   0  0  0  0  0  0  0  0  0  0  0  0
    9.8100    0.7253    0.0000 C   0  0  0  0  0  0  0  0  0  0  0  0
    8.3100   -1.8728    0.0000 C   0  0  0  0  0  0  0  0  0  0  0  0
    7.8100   -2.7388    0.0000 C   0  0  2  0  0  0  0  0  0  0  0  0
    8.3100   -3.6048    0.0000 C   0  0  0  0  0  0  0  0  0  0  0  0
    6.3100   -1.8728    0.0000 C   0  0  0  0  0  0  0  0  0  0  0  0
    7.8100   -4.4708    0.0000 C   0  0  0  0  0  0  0  0  0  0  0  0
    5.3100   -1.8728    0.0000 C   0  0  2  0  0  0  0  0  0  0  0  0
    4.8100   -2.7388    0.0000 C   0  0  0  0  0  0  0  0  0  0  0  0
    3.8100   -2.7388    0.0000 C   0  0  0  0  0  0  0  0  0  0  0  0
    3.8100   -1.0067    0.0000 C   0  0  0  0  0  0  0  0  0  0  0  0
    3.3100   -3.6048    0.0000 C   0  0  0  0  0  0  0  0  0  0  0  0
    3.3100   -0.1407    0.0000 C   0  0  0  0  0  0  0  0  0  0  0  0
   15.6945    2.0019    0.0000 H   0  0  0  0  0  0  0  0  0  0  0  0
   15.6009   -0.3411    0.0000 H   0  0  0  0  0  0  0  0  0  0  0  0
   16.6139    0.2503    0.0000 H   0  0  0  0  0  0  0  0  0  0  0  0
   16.6139    1.2003    0.0000 H   0  0  0  0  0  0  0  0  0  0  0  0
   13.7854    1.6313    0.0000 H   0  0  0  0  0  0  0  0  0  0  0  0
   13.8608   -0.3937    0.0000 H   0  0  0  0  0  0  0  0  0  0  0  0
   14.6500   -0.6501    0.0000 H   0  0  0  0  0  0  0  0  0  0  0  0
   12.0000    0.3962    0.0000 H   0  0  0  0  0  0  0  0  0  0  0  0
   15.3644    3.0996    0.0000 H   0  0  0  0  0  0  0  0  0  0  0  0
   12.1900   -1.0067    0.0000 H   0  0  0  0  0  0  0  0  0  0  0  0
   15.0553    4.0507    0.0000 H   0  0  0  0  0  0  0  0  0  0  0  0
   11.0000    0.3962    0.0000 H   0  0  0  0  0  0  0  0  0  0  0  0
   11.7731   -1.5628    0.0000 H   0  0  0  0  0  0  0  0  0  0  0  0
   12.0000   -2.4097    0.0000 H   0  0  0  0  0  0  0  0  0  0  0  0
   12.8469   -2.1828    0.0000 H   0  0  0  0  0  0  0  0  0  0  0  0
   13.8100   -1.6267    0.0000 H   0  0  0  0  0  0  0  0  0  0  0  0
   14.4300   -1.0067    0.0000 H   0  0  0  0  0  0  0  0  0  0  0  0
   13.8100   -0.3867    0.0000 H   0  0  0  0  0  0  0  0  0  0  0  0
   12.8568    4.3012    0.0000 H   0  0  0  0  0  0  0  0  0  0  0  0
   13.4491    3.7679    0.0000 H   0  0  0  0  0  0  0  0  0  0  0  0
   15.7245    4.7938    0.0000 H   0  0  0  0  0  0  0  0  0  0  0  0
   10.1200   -1.5437    0.0000 H   0  0  0  0  0  0  0  0  0  0  0  0
   13.7514    5.5302    0.0000 H   0  0  0  0  0  0  0  0  0  0  0  0
   12.9701    5.9282    0.0000 H   0  0  0  0  0  0  0  0  0  0  0  0
   12.5721    5.1470    0.0000 H   0  0  0  0  0  0  0  0  0  0  0  0
    9.0000   -0.6776    0.0000 H   0  0  0  0  0  0  0  0  0  0  0  0
    9.6200   -2.4097    0.0000 H   0  0  0  0  0  0  0  0  0  0  0  0
    8.3100    0.4793    0.0000 H   0  0  0  0  0  0  0  0  0  0  0  0
    7.6900   -0.1407    0.0000 H   0  0  0  0  0  0  0  0  0  0  0  0
    8.3100   -0.7607    0.0000 H   0  0  0  0  0  0  0  0  0  0  0  0
   10.3469    0.4153    0.0000 H   0  0  0  0  0  0  0  0  0  0  0  0
   10.1200    1.2623    0.0000 H   0  0  0  0  0  0  0  0  0  0  0  0
    9.2731    1.0353    0.0000 H   0  0  0  0  0  0  0  0  0  0  0  0
    7.5000   -2.2018    0.0000 H   0  0  0  0  0  0  0  0  0  0  0  0
    8.7850   -4.0033    0.0000 H   0  0  0  0  0  0  0  0  0  0  0  0
    8.7850   -3.2063    0.0000 H   0  0  0  0  0  0  0  0  0  0  0  0
    6.5000   -3.2757    0.0000 H   0  0  0  0  0  0  0  0  0  0  0  0
    4.6900   -1.8728    0.0000 H   0  0  0  0  0  0  0  0  0  0  0  0
    4.7023   -3.3494    0.0000 H   0  0  0  0  0  0  0  0  0  0  0  0
    5.3926   -2.9508    0.0000 H   0  0  0  0  0  0  0  0  0  0  0  0
    5.1200   -0.4698    0.0000 H   0  0  0  0  0  0  0  0  0  0  0  0
    3.9177   -2.1282    0.0000 H   0  0  0  0  0  0  0  0  0  0  0  0
    3.2274   -2.5267    0.0000 H   0  0  0  0  0  0  0  0  0  0  0  0
    8.0000   -5.8738    0.0000 H   0  0  0  0  0  0  0  0  0  0  0  0
    3.8469    0.1693    0.0000 H   0  0  0  0  0  0  0  0  0  0  0  0
    3.0000    0.3962    0.0000 H   0  0  0  0  0  0  0  0  0  0  0  0
    2.7731   -0.4507    0.0000 H   0  0  0  0  0  0  0  0  0  0  0  0
    2.0000   -4.1417    0.0000 H   0  0  0  0  0  0  0  0  0  0  0  0
  1 23  2  0  0  0  0
  2 24  2  0  0  0  0
  3 31  2  0  0  0  0
  4 32  2  0  0  0  0
  5 38  2  0  0  0  0
  6 42  1  0  0  0  0
  6 92  1  0  0  0  0
  7 41  2  0  0  0  0
  8 42  2  0  0  0  0
  9 46  2  0  0  0  0
 10 47  1  0  0  0  0
 10 96  1  0  0  0  0
 11 47  2  0  0  0  0
 12 21  1  0  0  0  0
 12 22  1  0  0  0  0
 12 24  1  0  0  0  0
 13 23  1  0  0  0  0
 13 27  1  0  0  0  0
 13 57  1  0  0  0  0
 25 14  1  6  0  0  0
 14 31  1  0  0  0  0
 14 60  1  0  0  0  0
 33 15  1  1  0  0  0
 15 38  1  0  0  0  0
 15 75  1  0  0  0  0
 39 16  1  6  0  0  0
 16 41  1  0  0  0  0
 16 85  1  0  0  0  0
 43 17  1  6  0  0  0
 17 46  1  0  0  0  0
 17 89  1  0  0  0  0
 18 19  1  0  0  0  0
 18 20  1  0  0  0  0
 18 21  1  0  0  0  0
 18 49  1  1  0  0  0
 19 20  1  0  0  0  0
 19 22  1  0  0  0  0
 19 50  1  0  0  0  0
 20 51  1  0  0  0  0
 20 52  1  0  0  0  0
 21 23  1  0  0  0  0
 21 53  1  0  0  0  0
 22 54  1  0  0  0  0
 22 55  1  0  0  0  0
 24 25  1  0  0  0  0
 25 26  1  0  0  0  0
 25 56  1  0  0  0  0
 26 28  1  0  0  0  0
 26 29  1  0  0  0  0
 26 58  1  0  0  0  0
 27 30  1  0  0  0  0
 27 32  1  0  0  0  0
 27 59  1  0  0  0  0
 28 61  1  0  0  0  0
 28 62  1  0  0  0  0
 28 63  1  0  0  0  0
 29 64  1  0  0  0  0
 29 65  1  0  0  0  0
 29 66  1  0  0  0  0
 30 34  1  0  0  0  0
 30 67  1  0  0  0  0
 30 68  1  0  0  0  0
 31 33  1  0  0  0  0
 32 69  1  0  0  0  0
 33 35  1  0  0  0  0
 33 70  1  0  0  0  0
 34 71  1  0  0  0  0
 34 72  1  0  0  0  0
 34 73  1  0  0  0  0
 35 36  1  0  0  0  0
 35 37  1  0  0  0  0
 35 74  1  0  0  0  0
 36 76  1  0  0  0  0
 36 77  1  0  0  0  0
 36 78  1  0  0  0  0
 37 79  1  0  0  0  0
 37 80  1  0  0  0  0
 37 81  1  0  0  0  0
 38 39  1  0  0  0  0
 39 40  1  0  0  0  0
 39 82  1  0  0  0  0
 40 42  1  0  0  0  0
 40 83  1  0  0  0  0
 40 84  1  0  0  0  0
 41 43  1  0  0  0  0
 43 44  1  0  0  0  0
 43 86  1  0  0  0  0
 44 45  1  0  0  0  0
 44 87  1  0  0  0  0
 44 88  1  0  0  0  0
 45 47  1  0  0  0  0
 45 90  1  0  0  0  0
 45 91  1  0  0  0  0
 46 48  1  0  0  0  0
 48 93  1  0  0  0  0
 48 94  1  0  0  0  0
 48 95  1  0  0  0  0
M  END
> <PUBCHEM_COMPOUND_CID>
506820
> <PUBCHEM_COMPOUND_CANONICALIZED>
1
> <PUBCHEM_CACTVS_COMPLEXITY>
1270
> <PUBCHEM_CACTVS_HBOND_ACCEPTOR>
11
> <PUBCHEM_CACTVS_HBOND_DONOR>
7
> <PUBCHEM_CACTVS_ROTATABLE_BOND>
19
> <PUBCHEM_CACTVS_SUBSKEYS>
AAADcfB7vAAAAAAAAAAAAAAAGAAAAWAAAAAsAAAAAAAAAAAAAAAAHgAQCAAADSjhgAYCCAPAAgAIAAmQmAAAAAAAAAAAAIGIAAAAQBoAgCAUQAAGFgCAAAG/HwIOAAAAAAAAAAAAAAAAAAAAAAAAAAAAAA==
> <PUBCHEM_IUPAC_OPENEYE_NAME>
(4S)-4-acetamido-5-[[(1S)-1-(carboxymethyl)-2-[[(1S)-1-[[(1S)-1-[(1R)-2-(1-formylpropylcarbamoyl)-3-azabicyclo[3.1.0]hexane-3-carbonyl]-2-methyl-propyl]carbamoyl]-2-methyl-propyl]amino]-2-oxo-ethyl]amino]-5-oxo-pentanoic acid
> <PUBCHEM_IUPAC_CAS_NAME>
(4S)-4-acetamido-5-[[(2S)-3-carboxy-1-[[(2S)-3-methyl-1-[[(2S)-3-methyl-1-oxo-1-[(1R)-2-[oxo-(1-oxobutan-2-ylamino)methyl]-3-azabicyclo[3.1.0]hexan-3-yl]butan-2-yl]amino]-1-oxobutan-2-yl]amino]-1-oxopropan-2-yl]amino]-5-oxopentanoic acid
> <PUBCHEM_IUPAC_NAME_MARKUP>
(4<I>S</I>)-4-acetamido-5-[[(2<I>S</I>)-3-carboxy-1-[[(2<I>S</I>)-3-methyl-1-[[(2<I>S</I>)-3-methyl-1-oxo-1-[(1<I>R</I>)-2-(1-oxobutan-2-ylcarbamoyl)-3-azabicyclo[3.1.0]hexan-3-yl]butan-2-yl]amino]-1-oxobutan-2-yl]amino]-1-oxopropan-2-yl]amino]-5-oxopentanoic acid
> <PUBCHEM_IUPAC_NAME>
(4S)-4-acetamido-5-[[(2S)-3-carboxy-1-[[(2S)-3-methyl-1-[[(2S)-3-methyl-1-oxo-1-[(1R)-2-(1-oxobutan-2-ylcarbamoyl)-3-azabicyclo[3.1.0]hexan-3-yl]butan-2-yl]amino]-1-oxobutan-2-yl]amino]-1-oxopropan-2-yl]amino]-5-oxopentanoic acid
> <PUBCHEM_IUPAC_SYSTEMATIC_NAME>
(4S)-4-acetamido-5-[[(2S)-1-[[(2S)-3-methyl-1-[[(2S)-3-methyl-1-oxidanylidene-1-[(1R)-2-(1-oxidanylidenebutan-2-ylcarbamoyl)-3-azabicyclo[3.1.0]hexan-3-yl]butan-2-yl]amino]-1-oxidanylidene-butan-2-yl]amino]-4-oxidanyl-1,4-bis(oxidanylidene)butan-2-yl]amino]-5-oxidanylidene-pentanoic acid
> <PUBCHEM_IUPAC_TRADITIONAL_NAME>
(4S)-4-acetamido-5-[[(1S)-1-(carboxymethyl)-2-[[(1S)-1-[[(1S)-1-[(1R)-2-(1-formylpropylcarbamoyl)-3-azabicyclo[3.1.0]hexane-3-carbonyl]-2-methyl-propyl]carbamoyl]-2-methyl-propyl]amino]-2-keto-ethyl]amino]-5-keto-valeric acid
> <PUBCHEM_IUPAC_INCHI>
InChI=1S/C31H48N6O11/c1-7-18(13-38)33-30(47)26-19-10-17(19)12-37(26)31(48)25(15(4)5)36-29(46)24(14(2)3)35-28(45)21(11-23(42)43)34-27(44)20(32-16(6)39)8-9-22(40)41/h13-15,17-21,24-26H,7-12H2,1-6H3,(H,32,39)(H,33,47)(H,34,44)(H,35,45)(H,36,46)(H,40,41)(H,42,43)/t17?,18?,19-,20+,21+,24+,25+,26?/m1/s1
> <PUBCHEM_IUPAC_INCHIKEY>
OWTOCDTZRVGBCC-JOKZFMEZSA-N
> <PUBCHEM_XLOGP3_AA>
-0.5
> <PUBCHEM_EXACT_MASS>
680.33810637
> <PUBCHEM_MOLECULAR_FORMULA>
C31H48N6O11
> <PUBCHEM_MOLECULAR_WEIGHT>
680.7
> <PUBCHEM_OPENEYE_CAN_SMILES>
CCC(C=O)NC(=O)C1C2CC2CN1C(=O)C(C(C)C)NC(=O)C(C(C)C)NC(=O)C(CC(=O)O)NC(=O)C(CCC(=O)O)NC(=O)C
> <PUBCHEM_OPENEYE_ISO_SMILES>
CCC(C=O)NC(=O)C1[C@@H]2CC2CN1C(=O)[C@H](C(C)C)NC(=O)[C@H](C(C)C)NC(=O)[C@H](CC(=O)O)NC(=O)[C@H](CCC(=O)O)NC(=O)C
> <PUBCHEM_CACTVS_TPSA>
258
> <PUBCHEM_MONOISOTOPIC_WEIGHT>
680.33810637
> <PUBCHEM_TOTAL_CHARGE>
0
> <PUBCHEM_HEAVY_ATOM_COUNT>
48
> <PUBCHEM_ATOM_DEF_STEREO_COUNT>
5
> <PUBCHEM_ATOM_UDEF_STEREO_COUNT>
3
> <PUBCHEM_BOND_DEF_STEREO_COUNT>
0
> <PUBCHEM_BOND_UDEF_STEREO_COUNT>
0
> <PUBCHEM_ISOTOPIC_ATOM_COUNT>
0
> <PUBCHEM_COMPONENT_COUNT>
1
> <PUBCHEM_CACTVS_TAUTO_COUNT>
-1
> <PUBCHEM_COORDINATE_TYPE>
1
5
255
> <PUBCHEM_BONDANNOTATIONS>
25  14  6
33  15  5
39  16  6
43  17  6
18  49  5
19  20  3
21  23  3
27  30  3
$$$$
