506895
  -OEChem-10302200282D
 95 97  0     1  0  0  0  0  0999 V2000
    4.6660   -4.1830    0.0000 S   0  0  0  0  0  0  0  0  0  0  0  0
    5.5321   -0.6830    0.0000 O   0  0  0  0  0  0  0  0  0  0  0  0
    7.2641    2.3170    0.0000 O   0  0  0  0  0  0  0  0  0  0  0  0
    5.5321   -1.6830    0.0000 O   0  0  0  0  0  0  0  0  0  0  0  0
    5.1660   -5.0490    0.0000 O   0  0  0  0  0  0  0  0  0  0  0  0
    4.1660   -3.3170    0.0000 O   0  0  0  0  0  0  0  0  0  0  0  0
    6.3981   -5.1830    0.0000 O   0  0  0  0  0  0  0  0  0  0  0  0
    5.5321    1.3170    0.0000 N   0  0  3  0  0  0  0  0  0  0  0  0
    6.3981    3.8170    0.0000 N   0  0  0  0  0  0  0  0  0  0  0  0
    7.2641   -1.6830    0.0000 N   0  0  0  0  0  0  0  0  0  0  0  0
    7.2641   -3.6830    0.0000 N   0  0  0  0  0  0  0  0  0  0  0  0
    3.8000    2.3170    0.0000 C   0  0  2  0  0  0  0  0  0  0  0  0
    3.8000    1.3170    0.0000 C   0  0  1  0  0  0  0  0  0  0  0  0
    4.6660    2.8170    0.0000 C   0  0  0  0  0  0  0  0  0  0  0  0
    4.6660    0.8170    0.0000 C   0  0  0  0  0  0  0  0  0  0  0  0
    2.9061    2.8516    0.0000 C   0  0  0  0  0  0  0  0  0  0  0  0
    2.9061    0.7823    0.0000 C   0  0  0  0  0  0  0  0  0  0  0  0
    5.5321    2.3170    0.0000 C   0  0  1  0  0  0  0  0  0  0  0  0
    2.0000    2.3378    0.0000 C   0  0  0  0  0  0  0  0  0  0  0  0
    2.0000    1.2962    0.0000 C   0  0  0  0  0  0  0  0  0  0  0  0
    6.3981    0.8170    0.0000 C   0  0  0  0  0  0  0  0  0  0  0  0
    6.3981    2.8170    0.0000 C   0  0  0  0  0  0  0  0  0  0  0  0
    6.3981   -0.1830    0.0000 C   0  0  2  0  0  0  0  0  0  0  0  0
    7.2641   -0.6830    0.0000 C   0  0  2  0  0  0  0  0  0  0  0  0
    7.2641    4.3170    0.0000 C   0  0  0  0  0  0  0  0  0  0  0  0
    8.1301   -0.1830    0.0000 C   0  0  0  0  0  0  0  0  0  0  0  0
    8.1301    4.8170    0.0000 C   0  0  0  0  0  0  0  0  0  0  0  0
    6.7641    5.1830    0.0000 C   0  0  0  0  0  0  0  0  0  0  0  0
    7.7641    3.4510    0.0000 C   0  0  0  0  0  0  0  0  0  0  0  0
    6.3981   -3.1830    0.0000 C   0  0  2  0  0  0  0  0  0  0  0  0
    6.3981   -2.1830    0.0000 C   0  0  0  0  0  0  0  0  0  0  0  0
    5.5321   -3.6830    0.0000 C   0  0  0  0  0  0  0  0  0  0  0  0
    8.9962   -0.6830    0.0000 C   0  0  0  0  0  0  0  0  0  0  0  0
    6.0321   -4.5490    0.0000 C   0  0  0  0  0  0  0  0  0  0  0  0
    5.0321   -2.8170    0.0000 C   0  0  0  0  0  0  0  0  0  0  0  0
    9.8622   -0.1830    0.0000 C   0  0  0  0  0  0  0  0  0  0  0  0
    8.9962   -1.6830    0.0000 C   0  0  0  0  0  0  0  0  0  0  0  0
    3.8000   -4.6830    0.0000 C   0  0  0  0  0  0  0  0  0  0  0  0
   10.7282   -0.6830    0.0000 C   0  0  0  0  0  0  0  0  0  0  0  0
    9.8622   -2.1830    0.0000 C   0  0  0  0  0  0  0  0  0  0  0  0
    7.2641   -4.6830    0.0000 C   0  0  0  0  0  0  0  0  0  0  0  0
   10.7282   -1.6830    0.0000 C   0  0  0  0  0  0  0  0  0  0  0  0
    8.1301   -5.1830    0.0000 C   0  0  0  0  0  0  0  0  0  0  0  0
    3.8066    3.1670    0.0000 H   0  0  0  0  0  0  0  0  0  0  0  0
    3.8066    0.4670    0.0000 H   0  0  0  0  0  0  0  0  0  0  0  0
    5.0646    3.2919    0.0000 H   0  0  0  0  0  0  0  0  0  0  0  0
    4.2675    3.2919    0.0000 H   0  0  0  0  0  0  0  0  0  0  0  0
    4.2675    0.3420    0.0000 H   0  0  0  0  0  0  0  0  0  0  0  0
    5.0646    0.3420    0.0000 H   0  0  0  0  0  0  0  0  0  0  0  0
    3.3107    3.3214    0.0000 H   0  0  0  0  0  0  0  0  0  0  0  0
    2.5124    3.3307    0.0000 H   0  0  0  0  0  0  0  0  0  0  0  0
    2.5124    0.3033    0.0000 H   0  0  0  0  0  0  0  0  0  0  0  0
    3.3107    0.3125    0.0000 H   0  0  0  0  0  0  0  0  0  0  0  0
    6.0690    2.0070    0.0000 H   0  0  0  0  0  0  0  0  0  0  0  0
    1.7909    2.9215    0.0000 H   0  0  0  0  0  0  0  0  0  0  0  0
    1.3891    2.2317    0.0000 H   0  0  0  0  0  0  0  0  0  0  0  0
    1.3891    1.4023    0.0000 H   0  0  0  0  0  0  0  0  0  0  0  0
    1.7909    0.7125    0.0000 H   0  0  0  0  0  0  0  0  0  0  0  0
    7.0087    0.7093    0.0000 H   0  0  0  0  0  0  0  0  0  0  0  0
    6.6101    1.3996    0.0000 H   0  0  0  0  0  0  0  0  0  0  0  0
    6.3981   -0.8030    0.0000 H   0  0  0  0  0  0  0  0  0  0  0  0
    7.8010   -0.9930    0.0000 H   0  0  0  0  0  0  0  0  0  0  0  0
    5.8612    4.1270    0.0000 H   0  0  0  0  0  0  0  0  0  0  0  0
    8.5287    0.2919    0.0000 H   0  0  0  0  0  0  0  0  0  0  0  0
    7.7316    0.2919    0.0000 H   0  0  0  0  0  0  0  0  0  0  0  0
    7.8010   -1.9930    0.0000 H   0  0  0  0  0  0  0  0  0  0  0  0
    4.9951   -0.3730    0.0000 H   0  0  0  0  0  0  0  0  0  0  0  0
    8.4401    4.2800    0.0000 H   0  0  0  0  0  0  0  0  0  0  0  0
    8.6671    5.1270    0.0000 H   0  0  0  0  0  0  0  0  0  0  0  0
    7.8201    5.3539    0.0000 H   0  0  0  0  0  0  0  0  0  0  0  0
    7.3010    5.4930    0.0000 H   0  0  0  0  0  0  0  0  0  0  0  0
    6.4541    5.7200    0.0000 H   0  0  0  0  0  0  0  0  0  0  0  0
    6.2272    4.8730    0.0000 H   0  0  0  0  0  0  0  0  0  0  0  0
    7.2272    3.1410    0.0000 H   0  0  0  0  0  0  0  0  0  0  0  0
    8.0741    2.9140    0.0000 H   0  0  0  0  0  0  0  0  0  0  0  0
    8.3010    3.7610    0.0000 H   0  0  0  0  0  0  0  0  0  0  0  0
    6.3981   -3.8030    0.0000 H   0  0  0  0  0  0  0  0  0  0  0  0
    5.4951   -4.8590    0.0000 H   0  0  0  0  0  0  0  0  0  0  0  0
    6.3421   -5.0860    0.0000 H   0  0  0  0  0  0  0  0  0  0  0  0
    6.5690   -4.2390    0.0000 H   0  0  0  0  0  0  0  0  0  0  0  0
    5.5690   -2.5070    0.0000 H   0  0  0  0  0  0  0  0  0  0  0  0
    4.7221   -2.2800    0.0000 H   0  0  0  0  0  0  0  0  0  0  0  0
    4.4951   -3.1270    0.0000 H   0  0  0  0  0  0  0  0  0  0  0  0
    7.8010   -3.3730    0.0000 H   0  0  0  0  0  0  0  0  0  0  0  0
    9.8622    0.4370    0.0000 H   0  0  0  0  0  0  0  0  0  0  0  0
    8.4592   -1.9930    0.0000 H   0  0  0  0  0  0  0  0  0  0  0  0
    3.4900   -4.1461    0.0000 H   0  0  0  0  0  0  0  0  0  0  0  0
    3.2631   -4.9930    0.0000 H   0  0  0  0  0  0  0  0  0  0  0  0
    4.1100   -5.2200    0.0000 H   0  0  0  0  0  0  0  0  0  0  0  0
   11.2651   -0.3730    0.0000 H   0  0  0  0  0  0  0  0  0  0  0  0
    9.8622   -2.8030    0.0000 H   0  0  0  0  0  0  0  0  0  0  0  0
   11.2651   -1.9930    0.0000 H   0  0  0  0  0  0  0  0  0  0  0  0
    7.8201   -5.7200    0.0000 H   0  0  0  0  0  0  0  0  0  0  0  0
    8.6671   -5.4930    0.0000 H   0  0  0  0  0  0  0  0  0  0  0  0
    8.4401   -4.6461    0.0000 H   0  0  0  0  0  0  0  0  0  0  0  0
  1  5  2  0  0  0  0
  1  6  2  0  0  0  0
  1 32  1  0  0  0  0
  1 38  1  0  0  0  0
 23  2  1  6  0  0  0
  2 67  1  0  0  0  0
  3 22  2  0  0  0  0
  4 31  2  0  0  0  0
  7 41  2  0  0  0  0
  8 15  1  0  0  0  0
  8 18  1  0  0  0  0
  8 21  1  0  0  0  0
  9 22  1  0  0  0  0
  9 25  1  0  0  0  0
  9 63  1  0  0  0  0
 24 10  1  6  0  0  0
 10 31  1  0  0  0  0
 10 66  1  0  0  0  0
 30 11  1  1  0  0  0
 11 41  1  0  0  0  0
 11 84  1  0  0  0  0
 12 13  1  0  0  0  0
 12 14  1  0  0  0  0
 12 16  1  0  0  0  0
 12 44  1  6  0  0  0
 13 15  1  0  0  0  0
 13 17  1  0  0  0  0
 13 45  1  6  0  0  0
 14 18  1  0  0  0  0
 14 46  1  0  0  0  0
 14 47  1  0  0  0  0
 15 48  1  0  0  0  0
 15 49  1  0  0  0  0
 16 19  1  0  0  0  0
 16 50  1  0  0  0  0
 16 51  1  0  0  0  0
 17 20  1  0  0  0  0
 17 52  1  0  0  0  0
 17 53  1  0  0  0  0
 18 22  1  1  0  0  0
 18 54  1  0  0  0  0
 19 20  1  0  0  0  0
 19 55  1  0  0  0  0
 19 56  1  0  0  0  0
 20 57  1  0  0  0  0
 20 58  1  0  0  0  0
 21 23  1  0  0  0  0
 21 59  1  0  0  0  0
 21 60  1  0  0  0  0
 23 24  1  0  0  0  0
 23 61  1  0  0  0  0
 24 26  1  0  0  0  0
 24 62  1  0  0  0  0
 25 27  1  0  0  0  0
 25 28  1  0  0  0  0
 25 29  1  0  0  0  0
 26 33  1  0  0  0  0
 26 64  1  0  0  0  0
 26 65  1  0  0  0  0
 27 68  1  0  0  0  0
 27 69  1  0  0  0  0
 27 70  1  0  0  0  0
 28 71  1  0  0  0  0
 28 72  1  0  0  0  0
 28 73  1  0  0  0  0
 29 74  1  0  0  0  0
 29 75  1  0  0  0  0
 29 76  1  0  0  0  0
 30 31  1  0  0  0  0
 30 32  1  0  0  0  0
 30 77  1  0  0  0  0
 32 34  1  0  0  0  0
 32 35  1  0  0  0  0
 33 36  2  0  0  0  0
 33 37  1  0  0  0  0
 34 78  1  0  0  0  0
 34 79  1  0  0  0  0
 34 80  1  0  0  0  0
 35 81  1  0  0  0  0
 35 82  1  0  0  0  0
 35 83  1  0  0  0  0
 36 39  1  0  0  0  0
 36 85  1  0  0  0  0
 37 40  2  0  0  0  0
 37 86  1  0  0  0  0
 38 87  1  0  0  0  0
 38 88  1  0  0  0  0
 38 89  1  0  0  0  0
 39 42  2  0  0  0  0
 39 90  1  0  0  0  0
 40 42  1  0  0  0  0
 40 91  1  0  0  0  0
 41 43  1  0  0  0  0
 42 92  1  0  0  0  0
 43 93  1  0  0  0  0
 43 94  1  0  0  0  0
 43 95  1  0  0  0  0
M  END
> <PUBCHEM_COMPOUND_CID>
506895
> <PUBCHEM_COMPOUND_CANONICALIZED>
1
> <PUBCHEM_CACTVS_COMPLEXITY>
1080
> <PUBCHEM_CACTVS_HBOND_ACCEPTOR>
7
> <PUBCHEM_CACTVS_HBOND_DONOR>
4
> <PUBCHEM_CACTVS_ROTATABLE_BOND>
12
> <PUBCHEM_CACTVS_SUBSKEYS>
AAADcfB/uABAAAAAAAAAAAAAAAAAAAAAAAA8YIAAAAAAAACxAAAAHgQQCAAADbzh2AayAIPAAgqIAiFSEHBCAAAgABAIiIGIAIgKcDKg0TGUYAAklgCYiAeYyKCOgAAAAAAAAAAAAAAAACAAAAAAAAAAAA==
> <PUBCHEM_IUPAC_OPENEYE_NAME>
(3S,4aS,8aS)-2-[(2R,3S)-3-[[(2R)-2-acetamido-3-methyl-3-methylsulfonyl-butanoyl]amino]-2-hydroxy-4-phenyl-butyl]-N-tert-butyl-3,4,4a,5,6,7,8,8a-octahydro-1H-isoquinoline-3-carboxamide
> <PUBCHEM_IUPAC_CAS_NAME>
(3S,4aS,8aS)-2-[(2R,3S)-3-[[(2R)-2-acetamido-3-methyl-3-methylsulfonyl-1-oxobutyl]amino]-2-hydroxy-4-phenylbutyl]-N-tert-butyl-3,4,4a,5,6,7,8,8a-octahydro-1H-isoquinoline-3-carboxamide
> <PUBCHEM_IUPAC_NAME_MARKUP>
(3<I>S</I>,4<I>a</I><I>S</I>,8<I>a</I><I>S</I>)-2-[(2<I>R</I>,3<I>S</I>)-3-[[(2<I>R</I>)-2-acetamido-3-methyl-3-methylsulfonylbutanoyl]amino]-2-hydroxy-4-phenylbutyl]-<I>N</I>-<I>tert</I>-butyl-3,4,4<I>a</I>,5,6,7,8,8<I>a</I>-octahydro-1<I>H</I>-isoquinoline-3-carboxamide
> <PUBCHEM_IUPAC_NAME>
(3S,4aS,8aS)-2-[(2R,3S)-3-[[(2R)-2-acetamido-3-methyl-3-methylsulfonylbutanoyl]amino]-2-hydroxy-4-phenylbutyl]-N-tert-butyl-3,4,4a,5,6,7,8,8a-octahydro-1H-isoquinoline-3-carboxamide
> <PUBCHEM_IUPAC_SYSTEMATIC_NAME>
(3S,4aS,8aS)-2-[(2R,3S)-3-[[(2R)-2-acetamido-3-methyl-3-methylsulfonyl-butanoyl]amino]-2-oxidanyl-4-phenyl-butyl]-N-tert-butyl-3,4,4a,5,6,7,8,8a-octahydro-1H-isoquinoline-3-carboxamide
> <PUBCHEM_IUPAC_TRADITIONAL_NAME>
(3S,4aS,8aS)-2-[(2R,3S)-3-[[(2R)-2-acetamido-3-mesyl-3-methyl-butanoyl]amino]-2-hydroxy-4-phenyl-butyl]-N-tert-butyl-3,4,4a,5,6,7,8,8a-octahydro-1H-isoquinoline-3-carboxamide
> <PUBCHEM_IUPAC_INCHI>
InChI=1S/C32H52N4O6S/c1-21(37)33-28(32(5,6)43(7,41)42)30(40)34-25(17-22-13-9-8-10-14-22)27(38)20-36-19-24-16-12-11-15-23(24)18-26(36)29(39)35-31(2,3)4/h8-10,13-14,23-28,38H,11-12,15-20H2,1-7H3,(H,33,37)(H,34,40)(H,35,39)/t23-,24+,25-,26-,27+,28+/m0/s1
> <PUBCHEM_IUPAC_INCHIKEY>
JFESLZKLWSHCAH-MUJQFDPKSA-N
> <PUBCHEM_XLOGP3_AA>
3.1
> <PUBCHEM_EXACT_MASS>
620.36075656
> <PUBCHEM_MOLECULAR_FORMULA>
C32H52N4O6S
> <PUBCHEM_MOLECULAR_WEIGHT>
620.8
> <PUBCHEM_OPENEYE_CAN_SMILES>
CC(=O)NC(C(=O)NC(CC1=CC=CC=C1)C(CN2CC3CCCCC3CC2C(=O)NC(C)(C)C)O)C(C)(C)S(=O)(=O)C
> <PUBCHEM_OPENEYE_ISO_SMILES>
CC(=O)N[C@H](C(=O)N[C@@H](CC1=CC=CC=C1)[C@@H](CN2C[C@H]3CCCC[C@H]3C[C@H]2C(=O)NC(C)(C)C)O)C(C)(C)S(=O)(=O)C
> <PUBCHEM_CACTVS_TPSA>
153
> <PUBCHEM_MONOISOTOPIC_WEIGHT>
620.36075656
> <PUBCHEM_TOTAL_CHARGE>
0
> <PUBCHEM_HEAVY_ATOM_COUNT>
43
> <PUBCHEM_ATOM_DEF_STEREO_COUNT>
6
> <PUBCHEM_ATOM_UDEF_STEREO_COUNT>
0
> <PUBCHEM_BOND_DEF_STEREO_COUNT>
0
> <PUBCHEM_BOND_UDEF_STEREO_COUNT>
0
> <PUBCHEM_ISOTOPIC_ATOM_COUNT>
0
> <PUBCHEM_COMPONENT_COUNT>
1
> <PUBCHEM_CACTVS_TAUTO_COUNT>
-1
> <PUBCHEM_COORDINATE_TYPE>
1
5
255
> <PUBCHEM_BONDANNOTATIONS>
24  10  6
30  11  5
12  44  6
13  45  6
18  22  5
23  2  6
33  36  8
33  37  8
36  39  8
37  40  8
39  42  8
40  42  8
$$$$
