506811
  -OEChem-10302200282D
 81 84  0     1  0  0  0  0  0999 V2000
    8.3733    3.6864    0.0000 O   0  0  0  0  0  0  0  0  0  0  0  0
    4.5309    1.7219    0.0000 O   0  0  0  0  0  0  0  0  0  0  0  0
    4.1100    3.0173    0.0000 O   0  0  0  0  0  0  0  0  0  0  0  0
    6.7457   -1.1233    0.0000 O   0  0  0  0  0  0  0  0  0  0  0  0
    2.5352    6.2608    0.0000 O   0  0  0  0  0  0  0  0  0  0  0  0
    6.1132    2.4264    0.0000 N   0  0  0  0  0  0  0  0  0  0  0  0
    4.6453    4.6646    0.0000 N   0  0  0  0  0  0  0  0  0  0  0  0
    5.3444   -0.1052    0.0000 N   0  0  0  0  0  0  0  0  0  0  0  0
    4.6634   -3.3666    0.0000 N   0  0  0  0  0  0  0  0  0  0  0  0
    3.8543   -2.7788    0.0000 N   0  0  0  0  0  0  0  0  0  0  0  0
    5.8042    3.3774    0.0000 C   0  0  1  0  0  0  0  0  0  0  0  0
    7.4223    3.3774    0.0000 C   0  0  2  0  0  0  0  0  0  0  0  0
    6.6132    3.9652    0.0000 C   0  0  0  0  0  0  0  0  0  0  0  0
    7.1132    2.4264    0.0000 C   0  0  0  0  0  0  0  0  0  0  0  0
    5.5255    1.6174    0.0000 C   0  0  0  0  0  0  0  0  0  0  0  0
    5.9322    0.7038    0.0000 C   0  0  2  0  0  0  0  0  0  0  0  0
    4.8532    3.6864    0.0000 C   0  0  0  0  0  0  0  0  0  0  0  0
    6.9267    0.5993    0.0000 C   0  0  0  0  0  0  0  0  0  0  0  0
    8.5812    4.6646    0.0000 C   0  0  0  0  0  0  0  0  0  0  0  0
    7.3334   -0.3143    0.0000 C   0  0  0  0  0  0  0  0  0  0  0  0
    7.5145    1.4083    0.0000 C   0  0  0  0  0  0  0  0  0  0  0  0
    3.6942    4.9736    0.0000 C   0  0  1  0  0  0  0  0  0  0  0  0
    9.5323    4.9736    0.0000 C   0  0  0  0  0  0  0  0  0  0  0  0
    2.9511    4.3045    0.0000 C   0  0  0  0  0  0  0  0  0  0  0  0
    5.7512   -1.0188    0.0000 C   0  0  0  0  0  0  0  0  0  0  0  0
    3.4863    5.9518    0.0000 C   0  0  0  0  0  0  0  0  0  0  0  0
    5.1634   -1.8278    0.0000 C   0  0  0  0  0  0  0  0  0  0  0  0
    2.0000    4.6135    0.0000 C   0  0  0  0  0  0  0  0  0  0  0  0
   10.2754    4.3045    0.0000 C   0  0  0  0  0  0  0  0  0  0  0  0
    9.7402    5.9518    0.0000 C   0  0  0  0  0  0  0  0  0  0  0  0
    5.4724   -2.7788    0.0000 C   0  0  0  0  0  0  0  0  0  0  0  0
    4.1634   -1.8278    0.0000 C   0  0  0  0  0  0  0  0  0  0  0  0
   11.2265    4.6135    0.0000 C   0  0  0  0  0  0  0  0  0  0  0  0
   10.6913    6.2608    0.0000 C   0  0  0  0  0  0  0  0  0  0  0  0
   11.4344    5.5916    0.0000 C   0  0  0  0  0  0  0  0  0  0  0  0
    6.4234   -3.0878    0.0000 C   0  0  0  0  0  0  0  0  0  0  0  0
    4.6634   -4.3666    0.0000 C   0  0  0  0  0  0  0  0  0  0  0  0
    5.5294   -4.8666    0.0000 C   0  0  0  0  0  0  0  0  0  0  0  0
    3.7973   -4.8666    0.0000 C   0  0  0  0  0  0  0  0  0  0  0  0
    5.5294   -5.8666    0.0000 C   0  0  0  0  0  0  0  0  0  0  0  0
    3.7973   -5.8666    0.0000 C   0  0  0  0  0  0  0  0  0  0  0  0
    4.6634   -6.3666    0.0000 C   0  0  0  0  0  0  0  0  0  0  0  0
    5.3658    2.9390    0.0000 H   0  0  0  0  0  0  0  0  0  0  0  0
    7.5192    3.9898    0.0000 H   0  0  0  0  0  0  0  0  0  0  0  0
    7.0281    4.4260    0.0000 H   0  0  0  0  0  0  0  0  0  0  0  0
    6.1984    4.4260    0.0000 H   0  0  0  0  0  0  0  0  0  0  0  0
    7.0484    1.8098    0.0000 H   0  0  0  0  0  0  0  0  0  0  0  0
    7.7197    2.2975    0.0000 H   0  0  0  0  0  0  0  0  0  0  0  0
    5.3156    0.7686    0.0000 H   0  0  0  0  0  0  0  0  0  0  0  0
    6.5623    0.0977    0.0000 H   0  0  0  0  0  0  0  0  0  0  0  0
    5.1060    5.0794    0.0000 H   0  0  0  0  0  0  0  0  0  0  0  0
    4.7278   -0.0404    0.0000 H   0  0  0  0  0  0  0  0  0  0  0  0
    8.4949    5.2786    0.0000 H   0  0  0  0  0  0  0  0  0  0  0  0
    7.9616    4.6862    0.0000 H   0  0  0  0  0  0  0  0  0  0  0  0
    6.7671   -0.5664    0.0000 H   0  0  0  0  0  0  0  0  0  0  0  0
    7.5856   -0.8807    0.0000 H   0  0  0  0  0  0  0  0  0  0  0  0
    7.8998   -0.0621    0.0000 H   0  0  0  0  0  0  0  0  0  0  0  0
    8.0161    1.0439    0.0000 H   0  0  0  0  0  0  0  0  0  0  0  0
    7.8789    1.9099    0.0000 H   0  0  0  0  0  0  0  0  0  0  0  0
    7.0129    1.7727    0.0000 H   0  0  0  0  0  0  0  0  0  0  0  0
    4.1550    5.3885    0.0000 H   0  0  0  0  0  0  0  0  0  0  0  0
    2.6600    3.7570    0.0000 H   0  0  0  0  0  0  0  0  0  0  0  0
    3.4396    3.9228    0.0000 H   0  0  0  0  0  0  0  0  0  0  0  0
    3.9470    6.3666    0.0000 H   0  0  0  0  0  0  0  0  0  0  0  0
    2.1916    5.2032    0.0000 H   0  0  0  0  0  0  0  0  0  0  0  0
    1.4103    4.8051    0.0000 H   0  0  0  0  0  0  0  0  0  0  0  0
    1.8084    4.0238    0.0000 H   0  0  0  0  0  0  0  0  0  0  0  0
   10.1465    3.6980    0.0000 H   0  0  0  0  0  0  0  0  0  0  0  0
    9.2794    6.3666    0.0000 H   0  0  0  0  0  0  0  0  0  0  0  0
    3.7989   -1.3262    0.0000 H   0  0  0  0  0  0  0  0  0  0  0  0
   11.6872    4.1986    0.0000 H   0  0  0  0  0  0  0  0  0  0  0  0
   10.8202    6.8672    0.0000 H   0  0  0  0  0  0  0  0  0  0  0  0
   12.0241    5.7832    0.0000 H   0  0  0  0  0  0  0  0  0  0  0  0
    6.2318   -3.6775    0.0000 H   0  0  0  0  0  0  0  0  0  0  0  0
    7.0131   -3.2794    0.0000 H   0  0  0  0  0  0  0  0  0  0  0  0
    6.6150   -2.4982    0.0000 H   0  0  0  0  0  0  0  0  0  0  0  0
    6.0663   -4.5566    0.0000 H   0  0  0  0  0  0  0  0  0  0  0  0
    3.2604   -4.5566    0.0000 H   0  0  0  0  0  0  0  0  0  0  0  0
    6.0663   -6.1766    0.0000 H   0  0  0  0  0  0  0  0  0  0  0  0
    3.2604   -6.1766    0.0000 H   0  0  0  0  0  0  0  0  0  0  0  0
    4.6634   -6.9866    0.0000 H   0  0  0  0  0  0  0  0  0  0  0  0
 12  1  1  1  0  0  0
  1 19  1  0  0  0  0
  2 15  2  0  0  0  0
  3 17  2  0  0  0  0
  4 25  2  0  0  0  0
  5 26  2  0  0  0  0
  6 11  1  0  0  0  0
  6 14  1  0  0  0  0
  6 15  1  0  0  0  0
  7 17  1  0  0  0  0
 22  7  1  1  0  0  0
  7 51  1  0  0  0  0
 16  8  1  6  0  0  0
  8 25  1  0  0  0  0
  8 52  1  0  0  0  0
  9 10  1  0  0  0  0
  9 31  1  0  0  0  0
  9 37  1  0  0  0  0
 10 32  2  0  0  0  0
 11 13  1  0  0  0  0
 11 17  1  6  0  0  0
 11 43  1  0  0  0  0
 12 13  1  0  0  0  0
 12 14  1  0  0  0  0
 12 44  1  0  0  0  0
 13 45  1  0  0  0  0
 13 46  1  0  0  0  0
 14 47  1  0  0  0  0
 14 48  1  0  0  0  0
 15 16  1  0  0  0  0
 16 18  1  0  0  0  0
 16 49  1  0  0  0  0
 18 20  1  0  0  0  0
 18 21  1  0  0  0  0
 18 50  1  0  0  0  0
 19 23  1  0  0  0  0
 19 53  1  0  0  0  0
 19 54  1  0  0  0  0
 20 55  1  0  0  0  0
 20 56  1  0  0  0  0
 20 57  1  0  0  0  0
 21 58  1  0  0  0  0
 21 59  1  0  0  0  0
 21 60  1  0  0  0  0
 22 24  1  0  0  0  0
 22 26  1  0  0  0  0
 22 61  1  0  0  0  0
 23 29  2  0  0  0  0
 23 30  1  0  0  0  0
 24 28  1  0  0  0  0
 24 62  1  0  0  0  0
 24 63  1  0  0  0  0
 25 27  1  0  0  0  0
 26 64  1  0  0  0  0
 27 31  2  0  0  0  0
 27 32  1  0  0  0  0
 28 65  1  0  0  0  0
 28 66  1  0  0  0  0
 28 67  1  0  0  0  0
 29 33  1  0  0  0  0
 29 68  1  0  0  0  0
 30 34  2  0  0  0  0
 30 69  1  0  0  0  0
 31 36  1  0  0  0  0
 32 70  1  0  0  0  0
 33 35  2  0  0  0  0
 33 71  1  0  0  0  0
 34 35  1  0  0  0  0
 34 72  1  0  0  0  0
 35 73  1  0  0  0  0
 36 74  1  0  0  0  0
 36 75  1  0  0  0  0
 36 76  1  0  0  0  0
 37 38  2  0  0  0  0
 37 39  1  0  0  0  0
 38 40  1  0  0  0  0
 38 77  1  0  0  0  0
 39 41  2  0  0  0  0
 39 78  1  0  0  0  0
 40 42  2  0  0  0  0
 40 79  1  0  0  0  0
 41 42  1  0  0  0  0
 41 80  1  0  0  0  0
 42 81  1  0  0  0  0
M  END
> <PUBCHEM_COMPOUND_CID>
506811
> <PUBCHEM_COMPOUND_CANONICALIZED>
1
> <PUBCHEM_CACTVS_COMPLEXITY>
919
> <PUBCHEM_CACTVS_HBOND_ACCEPTOR>
6
> <PUBCHEM_CACTVS_HBOND_DONOR>
2
> <PUBCHEM_CACTVS_ROTATABLE_BOND>
12
> <PUBCHEM_CACTVS_SUBSKEYS>
AAADcfB/uAAAAAAAAAAAAAAAAAAAAWLAAAAwYAAAAAAAAAAB0AAAHgAYAAAADTzhngY+wJPIBACqAz131ACSBCAlggAYmKG4bNgKZvrA8fmXtYhm3gHY6ce6wSAOAAAAAAAAAAAAAAAAAAAAAAAAAAAAAA==
> <PUBCHEM_IUPAC_OPENEYE_NAME>
N-[(1S)-1-[(2S,4R)-4-benzyloxy-2-[[(1S)-1-formylpropyl]carbamoyl]pyrrolidine-1-carbonyl]-2-methyl-propyl]-5-methyl-1-phenyl-pyrazole-4-carboxamide
> <PUBCHEM_IUPAC_CAS_NAME>
5-methyl-N-[(2S)-3-methyl-1-oxo-1-[(2S,4R)-2-[oxo-[[(2S)-1-oxobutan-2-yl]amino]methyl]-4-phenylmethoxy-1-pyrrolidinyl]butan-2-yl]-1-phenyl-4-pyrazolecarboxamide
> <PUBCHEM_IUPAC_NAME_MARKUP>
5-methyl-<I>N</I>-[(2<I>S</I>)-3-methyl-1-oxo-1-[(2<I>S</I>,4<I>R</I>)-2-[[(2<I>S</I>)-1-oxobutan-2-yl]carbamoyl]-4-phenylmethoxypyrrolidin-1-yl]butan-2-yl]-1-phenylpyrazole-4-carboxamide
> <PUBCHEM_IUPAC_NAME>
5-methyl-N-[(2S)-3-methyl-1-oxo-1-[(2S,4R)-2-[[(2S)-1-oxobutan-2-yl]carbamoyl]-4-phenylmethoxypyrrolidin-1-yl]butan-2-yl]-1-phenylpyrazole-4-carboxamide
> <PUBCHEM_IUPAC_SYSTEMATIC_NAME>
5-methyl-N-[(2S)-3-methyl-1-oxidanylidene-1-[(2S,4R)-2-[[(2S)-1-oxidanylidenebutan-2-yl]carbamoyl]-4-phenylmethoxy-pyrrolidin-1-yl]butan-2-yl]-1-phenyl-pyrazole-4-carboxamide
> <PUBCHEM_IUPAC_TRADITIONAL_NAME>
N-[(1S)-1-[(2S,4R)-4-benzoxy-2-[[(1S)-1-formylpropyl]carbamoyl]pyrrolidine-1-carbonyl]-2-methyl-propyl]-5-methyl-1-phenyl-pyrazole-4-carboxamide
> <PUBCHEM_IUPAC_INCHI>
InChI=1S/C32H39N5O5/c1-5-24(19-38)34-31(40)28-16-26(42-20-23-12-8-6-9-13-23)18-36(28)32(41)29(21(2)3)35-30(39)27-17-33-37(22(27)4)25-14-10-7-11-15-25/h6-15,17,19,21,24,26,28-29H,5,16,18,20H2,1-4H3,(H,34,40)(H,35,39)/t24-,26+,28-,29-/m0/s1
> <PUBCHEM_IUPAC_INCHIKEY>
QUOUIRZHMBMPRW-UMJMOSFWSA-N
> <PUBCHEM_XLOGP3_AA>
3.8
> <PUBCHEM_EXACT_MASS>
573.29511936
> <PUBCHEM_MOLECULAR_FORMULA>
C32H39N5O5
> <PUBCHEM_MOLECULAR_WEIGHT>
573.7
> <PUBCHEM_OPENEYE_CAN_SMILES>
CCC(C=O)NC(=O)C1CC(CN1C(=O)C(C(C)C)NC(=O)C2=C(N(N=C2)C3=CC=CC=C3)C)OCC4=CC=CC=C4
> <PUBCHEM_OPENEYE_ISO_SMILES>
CC[C@@H](C=O)NC(=O)[C@@H]1C[C@H](CN1C(=O)[C@H](C(C)C)NC(=O)C2=C(N(N=C2)C3=CC=CC=C3)C)OCC4=CC=CC=C4
> <PUBCHEM_CACTVS_TPSA>
123
> <PUBCHEM_MONOISOTOPIC_WEIGHT>
573.29511936
> <PUBCHEM_TOTAL_CHARGE>
0
> <PUBCHEM_HEAVY_ATOM_COUNT>
42
> <PUBCHEM_ATOM_DEF_STEREO_COUNT>
4
> <PUBCHEM_ATOM_UDEF_STEREO_COUNT>
0
> <PUBCHEM_BOND_DEF_STEREO_COUNT>
0
> <PUBCHEM_BOND_UDEF_STEREO_COUNT>
0
> <PUBCHEM_ISOTOPIC_ATOM_COUNT>
0
> <PUBCHEM_COMPONENT_COUNT>
1
> <PUBCHEM_CACTVS_TAUTO_COUNT>
-1
> <PUBCHEM_COORDINATE_TYPE>
1
5
255
> <PUBCHEM_BONDANNOTATIONS>
12  1  5
10  32  8
11  17  6
23  29  8
23  30  8
27  31  8
27  32  8
29  33  8
30  34  8
33  35  8
34  35  8
37  38  8
37  39  8
38  40  8
39  41  8
40  42  8
41  42  8
22  7  5
16  8  6
9  10  8
9  31  8
$$$$
