506808
  -OEChem-10302200282D
 75 77  0     1  0  0  0  0  0999 V2000
    4.3763    2.7614    0.0000 O   0  0  0  0  0  0  0  0  0  0  0  0
    6.3301   -1.0865    0.0000 O   0  0  0  0  0  0  0  0  0  0  0  0
    7.4321   -0.2859    0.0000 O   0  0  0  0  0  0  0  0  0  0  0  0
    2.8660   -2.0865    0.0000 O   0  0  0  0  0  0  0  0  0  0  0  0
   10.6126    1.4125    0.0000 O   0  0  0  0  0  0  0  0  0  0  0  0
    2.0000   -5.5865    0.0000 O   0  0  0  0  0  0  0  0  0  0  0  0
    5.4641    0.4135    0.0000 N   0  0  0  0  0  0  0  0  0  0  0  0
    7.9673    1.3614    0.0000 N   0  0  0  0  0  0  0  0  0  0  0  0
    4.5981   -2.0865    0.0000 N   0  0  0  0  0  0  0  0  0  0  0  0
    6.2731    1.0013    0.0000 C   0  0  1  0  0  0  0  0  0  0  0  0
    4.9641    1.9524    0.0000 C   0  0  2  0  0  0  0  0  0  0  0  0
    5.9641    1.9524    0.0000 C   0  0  0  0  0  0  0  0  0  0  0  0
    4.6551    1.0013    0.0000 C   0  0  0  0  0  0  0  0  0  0  0  0
    5.4641   -0.5865    0.0000 C   0  0  0  0  0  0  0  0  0  0  0  0
    4.5981   -1.0865    0.0000 C   0  0  2  0  0  0  0  0  0  0  0  0
    7.2242    0.6923    0.0000 C   0  0  0  0  0  0  0  0  0  0  0  0
    3.7320   -0.5865    0.0000 C   0  0  0  0  0  0  0  0  0  0  0  0
    4.7830    3.6749    0.0000 C   0  0  0  0  0  0  0  0  0  0  0  0
    2.8660   -1.0865    0.0000 C   0  0  0  0  0  0  0  0  0  0  0  0
    3.7320    0.4135    0.0000 C   0  0  0  0  0  0  0  0  0  0  0  0
    8.9184    1.0524    0.0000 C   0  0  1  0  0  0  0  0  0  0  0  0
    4.1953    4.4839    0.0000 C   0  0  0  0  0  0  0  0  0  0  0  0
    9.1263    0.0742    0.0000 C   0  0  0  0  0  0  0  0  0  0  0  0
    3.7320   -2.5865    0.0000 C   0  0  0  0  0  0  0  0  0  0  0  0
    9.6615    1.7215    0.0000 C   0  0  0  0  0  0  0  0  0  0  0  0
    3.7320   -3.5865    0.0000 C   0  0  0  0  0  0  0  0  0  0  0  0
   10.0773   -0.2348    0.0000 C   0  0  0  0  0  0  0  0  0  0  0  0
    3.2008    4.3794    0.0000 C   0  0  0  0  0  0  0  0  0  0  0  0
    4.6020    5.3975    0.0000 C   0  0  0  0  0  0  0  0  0  0  0  0
    2.8660   -4.0865    0.0000 C   0  0  0  0  0  0  0  0  0  0  0  0
    4.5981   -4.0865    0.0000 C   0  0  0  0  0  0  0  0  0  0  0  0
    2.6130    5.1884    0.0000 C   0  0  0  0  0  0  0  0  0  0  0  0
    4.0142    6.2065    0.0000 C   0  0  0  0  0  0  0  0  0  0  0  0
    3.0197    6.1020    0.0000 C   0  0  0  0  0  0  0  0  0  0  0  0
    2.8660   -5.0865    0.0000 C   0  0  0  0  0  0  0  0  0  0  0  0
    2.0000   -3.5865    0.0000 C   0  0  0  0  0  0  0  0  0  0  0  0
    4.5981   -5.0865    0.0000 C   0  0  0  0  0  0  0  0  0  0  0  0
    3.7320   -5.5865    0.0000 C   0  0  0  0  0  0  0  0  0  0  0  0
    6.3701    0.3889    0.0000 H   0  0  0  0  0  0  0  0  0  0  0  0
    5.2456    2.5048    0.0000 H   0  0  0  0  0  0  0  0  0  0  0  0
    6.5706    2.0812    0.0000 H   0  0  0  0  0  0  0  0  0  0  0  0
    5.8993    2.5690    0.0000 H   0  0  0  0  0  0  0  0  0  0  0  0
    4.0887    1.2535    0.0000 H   0  0  0  0  0  0  0  0  0  0  0  0
    4.3451    0.4644    0.0000 H   0  0  0  0  0  0  0  0  0  0  0  0
    5.1350   -1.3965    0.0000 H   0  0  0  0  0  0  0  0  0  0  0  0
    3.7320   -1.2065    0.0000 H   0  0  0  0  0  0  0  0  0  0  0  0
    7.8384    1.9679    0.0000 H   0  0  0  0  0  0  0  0  0  0  0  0
    5.1350   -2.3965    0.0000 H   0  0  0  0  0  0  0  0  0  0  0  0
    5.2971    3.3282    0.0000 H   0  0  0  0  0  0  0  0  0  0  0  0
    5.2137    4.1209    0.0000 H   0  0  0  0  0  0  0  0  0  0  0  0
    2.5560   -0.5496    0.0000 H   0  0  0  0  0  0  0  0  0  0  0  0
    2.3291   -1.3965    0.0000 H   0  0  0  0  0  0  0  0  0  0  0  0
    3.1760   -1.6234    0.0000 H   0  0  0  0  0  0  0  0  0  0  0  0
    4.3520    0.4135    0.0000 H   0  0  0  0  0  0  0  0  0  0  0  0
    3.7320    1.0335    0.0000 H   0  0  0  0  0  0  0  0  0  0  0  0
    3.1120    0.4135    0.0000 H   0  0  0  0  0  0  0  0  0  0  0  0
    8.4576    0.6375    0.0000 H   0  0  0  0  0  0  0  0  0  0  0  0
    8.5067    0.0526    0.0000 H   0  0  0  0  0  0  0  0  0  0  0  0
    9.0400   -0.5397    0.0000 H   0  0  0  0  0  0  0  0  0  0  0  0
    9.5326    2.3280    0.0000 H   0  0  0  0  0  0  0  0  0  0  0  0
    9.8858   -0.8244    0.0000 H   0  0  0  0  0  0  0  0  0  0  0  0
   10.6670   -0.4264    0.0000 H   0  0  0  0  0  0  0  0  0  0  0  0
   10.2689    0.3549    0.0000 H   0  0  0  0  0  0  0  0  0  0  0  0
    2.9486    3.8130    0.0000 H   0  0  0  0  0  0  0  0  0  0  0  0
    5.2186    5.4623    0.0000 H   0  0  0  0  0  0  0  0  0  0  0  0
    5.1350   -3.7765    0.0000 H   0  0  0  0  0  0  0  0  0  0  0  0
    1.9964    5.1236    0.0000 H   0  0  0  0  0  0  0  0  0  0  0  0
    4.2664    6.7729    0.0000 H   0  0  0  0  0  0  0  0  0  0  0  0
    2.6553    6.6036    0.0000 H   0  0  0  0  0  0  0  0  0  0  0  0
    2.3100   -3.0496    0.0000 H   0  0  0  0  0  0  0  0  0  0  0  0
    1.4631   -3.2765    0.0000 H   0  0  0  0  0  0  0  0  0  0  0  0
    1.6900   -4.1234    0.0000 H   0  0  0  0  0  0  0  0  0  0  0  0
    5.1350   -5.3965    0.0000 H   0  0  0  0  0  0  0  0  0  0  0  0
    3.7320   -6.2065    0.0000 H   0  0  0  0  0  0  0  0  0  0  0  0
    2.0000   -6.2065    0.0000 H   0  0  0  0  0  0  0  0  0  0  0  0
 11  1  1  6  0  0  0
  1 18  1  0  0  0  0
  2 14  2  0  0  0  0
  3 16  2  0  0  0  0
  4 24  2  0  0  0  0
  5 25  2  0  0  0  0
  6 35  1  0  0  0  0
  6 75  1  0  0  0  0
  7 10  1  0  0  0  0
  7 13  1  0  0  0  0
  7 14  1  0  0  0  0
  8 16  1  0  0  0  0
 21  8  1  6  0  0  0
  8 47  1  0  0  0  0
 15  9  1  1  0  0  0
  9 24  1  0  0  0  0
  9 48  1  0  0  0  0
 10 12  1  0  0  0  0
 10 16  1  1  0  0  0
 10 39  1  0  0  0  0
 11 12  1  0  0  0  0
 11 13  1  0  0  0  0
 11 40  1  0  0  0  0
 12 41  1  0  0  0  0
 12 42  1  0  0  0  0
 13 43  1  0  0  0  0
 13 44  1  0  0  0  0
 14 15  1  0  0  0  0
 15 17  1  0  0  0  0
 15 45  1  0  0  0  0
 17 19  1  0  0  0  0
 17 20  1  0  0  0  0
 17 46  1  0  0  0  0
 18 22  1  0  0  0  0
 18 49  1  0  0  0  0
 18 50  1  0  0  0  0
 19 51  1  0  0  0  0
 19 52  1  0  0  0  0
 19 53  1  0  0  0  0
 20 54  1  0  0  0  0
 20 55  1  0  0  0  0
 20 56  1  0  0  0  0
 21 23  1  0  0  0  0
 21 25  1  0  0  0  0
 21 57  1  0  0  0  0
 22 28  2  0  0  0  0
 22 29  1  0  0  0  0
 23 27  1  0  0  0  0
 23 58  1  0  0  0  0
 23 59  1  0  0  0  0
 24 26  1  0  0  0  0
 25 60  1  0  0  0  0
 26 30  2  0  0  0  0
 26 31  1  0  0  0  0
 27 61  1  0  0  0  0
 27 62  1  0  0  0  0
 27 63  1  0  0  0  0
 28 32  1  0  0  0  0
 28 64  1  0  0  0  0
 29 33  2  0  0  0  0
 29 65  1  0  0  0  0
 30 35  1  0  0  0  0
 30 36  1  0  0  0  0
 31 37  2  0  0  0  0
 31 66  1  0  0  0  0
 32 34  2  0  0  0  0
 32 67  1  0  0  0  0
 33 34  1  0  0  0  0
 33 68  1  0  0  0  0
 34 69  1  0  0  0  0
 35 38  2  0  0  0  0
 36 70  1  0  0  0  0
 36 71  1  0  0  0  0
 36 72  1  0  0  0  0
 37 38  1  0  0  0  0
 37 73  1  0  0  0  0
 38 74  1  0  0  0  0
M  END
> <PUBCHEM_COMPOUND_CID>
506808
> <PUBCHEM_COMPOUND_CANONICALIZED>
1
> <PUBCHEM_CACTVS_COMPLEXITY>
814
> <PUBCHEM_CACTVS_HBOND_ACCEPTOR>
6
> <PUBCHEM_CACTVS_HBOND_DONOR>
3
> <PUBCHEM_CACTVS_ROTATABLE_BOND>
11
> <PUBCHEM_CACTVS_SUBSKEYS>
AAADcfB7OAAAAAAAAAAAAAAAAAAAAWAAAAAwYAAAAAAAAAABQAAAHgAQCAAADTzhmAYyBoPABgCIAilSkACCAAAkIAAIiIGODMgKZjKCtTuXcQhm1hGYuYe6ybCOgAABAAAYAAAAAAIAADAAAAAAAAAAAA==
> <PUBCHEM_IUPAC_OPENEYE_NAME>
(2S,4R)-4-benzyloxy-N-[(1S)-1-formylpropyl]-1-[(2S)-2-[(3-hydroxy-2-methyl-benzoyl)amino]-3-methyl-butanoyl]pyrrolidine-2-carboxamide
> <PUBCHEM_IUPAC_CAS_NAME>
(2S,4R)-1-[(2S)-2-[[(3-hydroxy-2-methylphenyl)-oxomethyl]amino]-3-methyl-1-oxobutyl]-N-[(2S)-1-oxobutan-2-yl]-4-phenylmethoxy-2-pyrrolidinecarboxamide
> <PUBCHEM_IUPAC_NAME_MARKUP>
(2<I>S</I>,4<I>R</I>)-1-[(2<I>S</I>)-2-[(3-hydroxy-2-methylbenzoyl)amino]-3-methylbutanoyl]-<I>N</I>-[(2<I>S</I>)-1-oxobutan-2-yl]-4-phenylmethoxypyrrolidine-2-carboxamide
> <PUBCHEM_IUPAC_NAME>
(2S,4R)-1-[(2S)-2-[(3-hydroxy-2-methylbenzoyl)amino]-3-methylbutanoyl]-N-[(2S)-1-oxobutan-2-yl]-4-phenylmethoxypyrrolidine-2-carboxamide
> <PUBCHEM_IUPAC_SYSTEMATIC_NAME>
(2S,4R)-1-[(2S)-3-methyl-2-[(2-methyl-3-oxidanyl-phenyl)carbonylamino]butanoyl]-N-[(2S)-1-oxidanylidenebutan-2-yl]-4-phenylmethoxy-pyrrolidine-2-carboxamide
> <PUBCHEM_IUPAC_TRADITIONAL_NAME>
(2S,4R)-4-benzoxy-N-[(1S)-1-formylpropyl]-1-[(2S)-2-[(3-hydroxy-2-methyl-benzoyl)amino]-3-methyl-butanoyl]pyrrolidine-2-carboxamide
> <PUBCHEM_IUPAC_INCHI>
InChI=1S/C29H37N3O6/c1-5-21(16-33)30-28(36)24-14-22(38-17-20-10-7-6-8-11-20)15-32(24)29(37)26(18(2)3)31-27(35)23-12-9-13-25(34)19(23)4/h6-13,16,18,21-22,24,26,34H,5,14-15,17H2,1-4H3,(H,30,36)(H,31,35)/t21-,22+,24-,26-/m0/s1
> <PUBCHEM_IUPAC_INCHIKEY>
AMELLNRKSJIXCN-VAJMTYMLSA-N
> <PUBCHEM_XLOGP3_AA>
3.5
> <PUBCHEM_EXACT_MASS>
523.26823591
> <PUBCHEM_MOLECULAR_FORMULA>
C29H37N3O6
> <PUBCHEM_MOLECULAR_WEIGHT>
523.6
> <PUBCHEM_OPENEYE_CAN_SMILES>
CCC(C=O)NC(=O)C1CC(CN1C(=O)C(C(C)C)NC(=O)C2=C(C(=CC=C2)O)C)OCC3=CC=CC=C3
> <PUBCHEM_OPENEYE_ISO_SMILES>
CC[C@@H](C=O)NC(=O)[C@@H]1C[C@H](CN1C(=O)[C@H](C(C)C)NC(=O)C2=C(C(=CC=C2)O)C)OCC3=CC=CC=C3
> <PUBCHEM_CACTVS_TPSA>
125
> <PUBCHEM_MONOISOTOPIC_WEIGHT>
523.26823591
> <PUBCHEM_TOTAL_CHARGE>
0
> <PUBCHEM_HEAVY_ATOM_COUNT>
38
> <PUBCHEM_ATOM_DEF_STEREO_COUNT>
4
> <PUBCHEM_ATOM_UDEF_STEREO_COUNT>
0
> <PUBCHEM_BOND_DEF_STEREO_COUNT>
0
> <PUBCHEM_BOND_UDEF_STEREO_COUNT>
0
> <PUBCHEM_ISOTOPIC_ATOM_COUNT>
0
> <PUBCHEM_COMPONENT_COUNT>
1
> <PUBCHEM_CACTVS_TAUTO_COUNT>
-1
> <PUBCHEM_COORDINATE_TYPE>
1
5
255
> <PUBCHEM_BONDANNOTATIONS>
11  1  6
10  16  5
22  28  8
22  29  8
26  30  8
26  31  8
28  32  8
29  33  8
30  35  8
31  37  8
32  34  8
33  34  8
35  38  8
37  38  8
21  8  6
15  9  5
$$$$
