506896
  -OEChem-10302200282D
 87 89  0     1  0  0  0  0  0999 V2000
    5.5321   -1.0000    0.0000 O   0  0  0  0  0  0  0  0  0  0  0  0
    7.2641    2.0000    0.0000 O   0  0  0  0  0  0  0  0  0  0  0  0
    5.5321   -2.0000    0.0000 O   0  0  0  0  0  0  0  0  0  0  0  0
    5.5321    1.0000    0.0000 N   0  0  3  0  0  0  0  0  0  0  0  0
    6.3981    3.5000    0.0000 N   0  0  0  0  0  0  0  0  0  0  0  0
    7.2641   -2.0000    0.0000 N   0  0  0  0  0  0  0  0  0  0  0  0
    7.2641   -4.0000    0.0000 N   0  0  0  0  0  0  0  0  0  0  0  0
    3.8000    2.0000    0.0000 C   0  0  2  0  0  0  0  0  0  0  0  0
    3.8000    1.0000    0.0000 C   0  0  1  0  0  0  0  0  0  0  0  0
    4.6660    2.5000    0.0000 C   0  0  0  0  0  0  0  0  0  0  0  0
    4.6660    0.5000    0.0000 C   0  0  0  0  0  0  0  0  0  0  0  0
    2.9061    2.5347    0.0000 C   0  0  0  0  0  0  0  0  0  0  0  0
    2.9061    0.4653    0.0000 C   0  0  0  0  0  0  0  0  0  0  0  0
    5.5321    2.0000    0.0000 C   0  0  1  0  0  0  0  0  0  0  0  0
    2.0000    2.0208    0.0000 C   0  0  0  0  0  0  0  0  0  0  0  0
    2.0000    0.9792    0.0000 C   0  0  0  0  0  0  0  0  0  0  0  0
    6.3981    0.5000    0.0000 C   0  0  0  0  0  0  0  0  0  0  0  0
    6.3981    2.5000    0.0000 C   0  0  0  0  0  0  0  0  0  0  0  0
    6.3981   -0.5000    0.0000 C   0  0  2  0  0  0  0  0  0  0  0  0
    7.2641   -1.0000    0.0000 C   0  0  2  0  0  0  0  0  0  0  0  0
    7.2641    4.0000    0.0000 C   0  0  0  0  0  0  0  0  0  0  0  0
    8.1301   -0.5000    0.0000 C   0  0  0  0  0  0  0  0  0  0  0  0
    8.1301    4.5000    0.0000 C   0  0  0  0  0  0  0  0  0  0  0  0
    6.7641    4.8660    0.0000 C   0  0  0  0  0  0  0  0  0  0  0  0
    7.7641    3.1340    0.0000 C   0  0  0  0  0  0  0  0  0  0  0  0
    8.9962   -1.0000    0.0000 C   0  0  0  0  0  0  0  0  0  0  0  0
    6.3981   -2.5000    0.0000 C   0  0  0  0  0  0  0  0  0  0  0  0
    6.3981   -3.5000    0.0000 C   0  0  2  0  0  0  0  0  0  0  0  0
    5.5321   -4.0000    0.0000 C   0  0  0  0  0  0  0  0  0  0  0  0
    9.8622   -0.5000    0.0000 C   0  0  0  0  0  0  0  0  0  0  0  0
    8.9962   -2.0000    0.0000 C   0  0  0  0  0  0  0  0  0  0  0  0
    4.6660   -4.5000    0.0000 C   0  0  0  0  0  0  0  0  0  0  0  0
    6.0321   -4.8660    0.0000 C   0  0  0  0  0  0  0  0  0  0  0  0
    5.0321   -3.1340    0.0000 C   0  0  0  0  0  0  0  0  0  0  0  0
   10.7282   -1.0000    0.0000 C   0  0  0  0  0  0  0  0  0  0  0  0
    9.8622   -2.5000    0.0000 C   0  0  0  0  0  0  0  0  0  0  0  0
   10.7282   -2.0000    0.0000 C   0  0  0  0  0  0  0  0  0  0  0  0
    3.8066    2.8500    0.0000 H   0  0  0  0  0  0  0  0  0  0  0  0
    3.8066    0.1500    0.0000 H   0  0  0  0  0  0  0  0  0  0  0  0
    5.0646    2.9750    0.0000 H   0  0  0  0  0  0  0  0  0  0  0  0
    4.2675    2.9750    0.0000 H   0  0  0  0  0  0  0  0  0  0  0  0
    4.2675    0.0251    0.0000 H   0  0  0  0  0  0  0  0  0  0  0  0
    5.0646    0.0251    0.0000 H   0  0  0  0  0  0  0  0  0  0  0  0
    3.3107    3.0044    0.0000 H   0  0  0  0  0  0  0  0  0  0  0  0
    2.5124    3.0137    0.0000 H   0  0  0  0  0  0  0  0  0  0  0  0
    2.5124   -0.0137    0.0000 H   0  0  0  0  0  0  0  0  0  0  0  0
    3.3107   -0.0044    0.0000 H   0  0  0  0  0  0  0  0  0  0  0  0
    6.0690    1.6900    0.0000 H   0  0  0  0  0  0  0  0  0  0  0  0
    1.7909    2.6045    0.0000 H   0  0  0  0  0  0  0  0  0  0  0  0
    1.3891    1.9147    0.0000 H   0  0  0  0  0  0  0  0  0  0  0  0
    1.3891    1.0853    0.0000 H   0  0  0  0  0  0  0  0  0  0  0  0
    1.7909    0.3955    0.0000 H   0  0  0  0  0  0  0  0  0  0  0  0
    7.0087    0.3923    0.0000 H   0  0  0  0  0  0  0  0  0  0  0  0
    6.6101    1.0826    0.0000 H   0  0  0  0  0  0  0  0  0  0  0  0
    6.3981   -1.1200    0.0000 H   0  0  0  0  0  0  0  0  0  0  0  0
    7.8010   -1.3100    0.0000 H   0  0  0  0  0  0  0  0  0  0  0  0
    5.8612    3.8100    0.0000 H   0  0  0  0  0  0  0  0  0  0  0  0
    8.5287   -0.0251    0.0000 H   0  0  0  0  0  0  0  0  0  0  0  0
    7.7316   -0.0251    0.0000 H   0  0  0  0  0  0  0  0  0  0  0  0
    4.9951   -0.6900    0.0000 H   0  0  0  0  0  0  0  0  0  0  0  0
    7.8010   -2.3100    0.0000 H   0  0  0  0  0  0  0  0  0  0  0  0
    8.4401    3.9631    0.0000 H   0  0  0  0  0  0  0  0  0  0  0  0
    8.6671    4.8100    0.0000 H   0  0  0  0  0  0  0  0  0  0  0  0
    7.8201    5.0369    0.0000 H   0  0  0  0  0  0  0  0  0  0  0  0
    7.3010    5.1760    0.0000 H   0  0  0  0  0  0  0  0  0  0  0  0
    6.4541    5.4030    0.0000 H   0  0  0  0  0  0  0  0  0  0  0  0
    6.2272    4.5560    0.0000 H   0  0  0  0  0  0  0  0  0  0  0  0
    7.2272    2.8240    0.0000 H   0  0  0  0  0  0  0  0  0  0  0  0
    8.0741    2.5970    0.0000 H   0  0  0  0  0  0  0  0  0  0  0  0
    8.3010    3.4440    0.0000 H   0  0  0  0  0  0  0  0  0  0  0  0
    6.3981   -4.1200    0.0000 H   0  0  0  0  0  0  0  0  0  0  0  0
    9.8622    0.1200    0.0000 H   0  0  0  0  0  0  0  0  0  0  0  0
    8.4592   -2.3100    0.0000 H   0  0  0  0  0  0  0  0  0  0  0  0
    4.3560   -3.9631    0.0000 H   0  0  0  0  0  0  0  0  0  0  0  0
    4.1291   -4.8100    0.0000 H   0  0  0  0  0  0  0  0  0  0  0  0
    4.9760   -5.0369    0.0000 H   0  0  0  0  0  0  0  0  0  0  0  0
    5.4951   -5.1760    0.0000 H   0  0  0  0  0  0  0  0  0  0  0  0
    6.3421   -5.4030    0.0000 H   0  0  0  0  0  0  0  0  0  0  0  0
    6.5690   -4.5560    0.0000 H   0  0  0  0  0  0  0  0  0  0  0  0
    5.5690   -2.8240    0.0000 H   0  0  0  0  0  0  0  0  0  0  0  0
    4.7221   -2.5970    0.0000 H   0  0  0  0  0  0  0  0  0  0  0  0
    4.4951   -3.4440    0.0000 H   0  0  0  0  0  0  0  0  0  0  0  0
    7.2641   -4.6200    0.0000 H   0  0  0  0  0  0  0  0  0  0  0  0
    7.8010   -3.6900    0.0000 H   0  0  0  0  0  0  0  0  0  0  0  0
   11.2651   -0.6900    0.0000 H   0  0  0  0  0  0  0  0  0  0  0  0
    9.8622   -3.1200    0.0000 H   0  0  0  0  0  0  0  0  0  0  0  0
   11.2651   -2.3100    0.0000 H   0  0  0  0  0  0  0  0  0  0  0  0
 19  1  1  6  0  0  0
  1 60  1  0  0  0  0
  2 18  2  0  0  0  0
  3 27  2  0  0  0  0
  4 11  1  0  0  0  0
  4 14  1  0  0  0  0
  4 17  1  0  0  0  0
  5 18  1  0  0  0  0
  5 21  1  0  0  0  0
  5 57  1  0  0  0  0
 20  6  1  6  0  0  0
  6 27  1  0  0  0  0
  6 61  1  0  0  0  0
 28  7  1  1  0  0  0
  7 83  1  0  0  0  0
  7 84  1  0  0  0  0
  8  9  1  0  0  0  0
  8 10  1  0  0  0  0
  8 12  1  0  0  0  0
  8 38  1  6  0  0  0
  9 11  1  0  0  0  0
  9 13  1  0  0  0  0
  9 39  1  6  0  0  0
 10 14  1  0  0  0  0
 10 40  1  0  0  0  0
 10 41  1  0  0  0  0
 11 42  1  0  0  0  0
 11 43  1  0  0  0  0
 12 15  1  0  0  0  0
 12 44  1  0  0  0  0
 12 45  1  0  0  0  0
 13 16  1  0  0  0  0
 13 46  1  0  0  0  0
 13 47  1  0  0  0  0
 14 18  1  1  0  0  0
 14 48  1  0  0  0  0
 15 16  1  0  0  0  0
 15 49  1  0  0  0  0
 15 50  1  0  0  0  0
 16 51  1  0  0  0  0
 16 52  1  0  0  0  0
 17 19  1  0  0  0  0
 17 53  1  0  0  0  0
 17 54  1  0  0  0  0
 19 20  1  0  0  0  0
 19 55  1  0  0  0  0
 20 22  1  0  0  0  0
 20 56  1  0  0  0  0
 21 23  1  0  0  0  0
 21 24  1  0  0  0  0
 21 25  1  0  0  0  0
 22 26  1  0  0  0  0
 22 58  1  0  0  0  0
 22 59  1  0  0  0  0
 23 62  1  0  0  0  0
 23 63  1  0  0  0  0
 23 64  1  0  0  0  0
 24 65  1  0  0  0  0
 24 66  1  0  0  0  0
 24 67  1  0  0  0  0
 25 68  1  0  0  0  0
 25 69  1  0  0  0  0
 25 70  1  0  0  0  0
 26 30  2  0  0  0  0
 26 31  1  0  0  0  0
 27 28  1  0  0  0  0
 28 29  1  0  0  0  0
 28 71  1  0  0  0  0
 29 32  1  0  0  0  0
 29 33  1  0  0  0  0
 29 34  1  0  0  0  0
 30 35  1  0  0  0  0
 30 72  1  0  0  0  0
 31 36  2  0  0  0  0
 31 73  1  0  0  0  0
 32 74  1  0  0  0  0
 32 75  1  0  0  0  0
 32 76  1  0  0  0  0
 33 77  1  0  0  0  0
 33 78  1  0  0  0  0
 33 79  1  0  0  0  0
 34 80  1  0  0  0  0
 34 81  1  0  0  0  0
 34 82  1  0  0  0  0
 35 37  2  0  0  0  0
 35 85  1  0  0  0  0
 36 37  1  0  0  0  0
 36 86  1  0  0  0  0
 37 87  1  0  0  0  0
M  END
> <PUBCHEM_COMPOUND_CID>
506896
> <PUBCHEM_COMPOUND_CANONICALIZED>
1
> <PUBCHEM_CACTVS_COMPLEXITY>
753
> <PUBCHEM_CACTVS_HBOND_ACCEPTOR>
5
> <PUBCHEM_CACTVS_HBOND_DONOR>
4
> <PUBCHEM_CACTVS_ROTATABLE_BOND>
10
> <PUBCHEM_CACTVS_SUBSKEYS>
AAADcfB7sAAAAAAAAAAAAAAAAAAAAAAAAAA8YIAAAAAAAACxAAAAHgAQCAAAD7zhmAYyAIPAAgCIAiFSEAACAAAgAAAIiIGIAIgKcDKA0TGUYAAklgCYiAeYyKCPgAAAAAAAAAAAAAAAACAAAAAAAAAAAA==
> <PUBCHEM_IUPAC_OPENEYE_NAME>
(3S,4aS,8aS)-2-[(2R,3S)-3-[[(2S)-2-amino-3,3-dimethyl-butanoyl]amino]-2-hydroxy-4-phenyl-butyl]-N-tert-butyl-3,4,4a,5,6,7,8,8a-octahydro-1H-isoquinoline-3-carboxamide
> <PUBCHEM_IUPAC_CAS_NAME>
(3S,4aS,8aS)-2-[(2R,3S)-3-[[(2S)-2-amino-3,3-dimethyl-1-oxobutyl]amino]-2-hydroxy-4-phenylbutyl]-N-tert-butyl-3,4,4a,5,6,7,8,8a-octahydro-1H-isoquinoline-3-carboxamide
> <PUBCHEM_IUPAC_NAME_MARKUP>
(3<I>S</I>,4<I>a</I><I>S</I>,8<I>a</I><I>S</I>)-2-[(2<I>R</I>,3<I>S</I>)-3-[[(2<I>S</I>)-2-amino-3,3-dimethylbutanoyl]amino]-2-hydroxy-4-phenylbutyl]-<I>N</I>-<I>tert</I>-butyl-3,4,4<I>a</I>,5,6,7,8,8<I>a</I>-octahydro-1<I>H</I>-isoquinoline-3-carboxamide
> <PUBCHEM_IUPAC_NAME>
(3S,4aS,8aS)-2-[(2R,3S)-3-[[(2S)-2-amino-3,3-dimethylbutanoyl]amino]-2-hydroxy-4-phenylbutyl]-N-tert-butyl-3,4,4a,5,6,7,8,8a-octahydro-1H-isoquinoline-3-carboxamide
> <PUBCHEM_IUPAC_SYSTEMATIC_NAME>
(3S,4aS,8aS)-2-[(2R,3S)-3-[[(2S)-2-azanyl-3,3-dimethyl-butanoyl]amino]-2-oxidanyl-4-phenyl-butyl]-N-tert-butyl-3,4,4a,5,6,7,8,8a-octahydro-1H-isoquinoline-3-carboxamide
> <PUBCHEM_IUPAC_TRADITIONAL_NAME>
(3S,4aS,8aS)-2-[(2R,3S)-3-[[(2S)-2-amino-3,3-dimethyl-butanoyl]amino]-2-hydroxy-4-phenyl-butyl]-N-tert-butyl-3,4,4a,5,6,7,8,8a-octahydro-1H-isoquinoline-3-carboxamide
> <PUBCHEM_IUPAC_INCHI>
InChI=1S/C30H50N4O3/c1-29(2,3)26(31)28(37)32-23(16-20-12-8-7-9-13-20)25(35)19-34-18-22-15-11-10-14-21(22)17-24(34)27(36)33-30(4,5)6/h7-9,12-13,21-26,35H,10-11,14-19,31H2,1-6H3,(H,32,37)(H,33,36)/t21-,22+,23-,24-,25+,26+/m0/s1
> <PUBCHEM_IUPAC_INCHIKEY>
CQAGSBTYYKPUHF-XCQFYCGYSA-N
> <PUBCHEM_XLOGP3_AA>
4.6
> <PUBCHEM_EXACT_MASS>
514.38829147
> <PUBCHEM_MOLECULAR_FORMULA>
C30H50N4O3
> <PUBCHEM_MOLECULAR_WEIGHT>
514.7
> <PUBCHEM_OPENEYE_CAN_SMILES>
CC(C)(C)C(C(=O)NC(CC1=CC=CC=C1)C(CN2CC3CCCCC3CC2C(=O)NC(C)(C)C)O)N
> <PUBCHEM_OPENEYE_ISO_SMILES>
CC(C)(C)[C@@H](C(=O)N[C@@H](CC1=CC=CC=C1)[C@@H](CN2C[C@H]3CCCC[C@H]3C[C@H]2C(=O)NC(C)(C)C)O)N
> <PUBCHEM_CACTVS_TPSA>
108
> <PUBCHEM_MONOISOTOPIC_WEIGHT>
514.38829147
> <PUBCHEM_TOTAL_CHARGE>
0
> <PUBCHEM_HEAVY_ATOM_COUNT>
37
> <PUBCHEM_ATOM_DEF_STEREO_COUNT>
6
> <PUBCHEM_ATOM_UDEF_STEREO_COUNT>
0
> <PUBCHEM_BOND_DEF_STEREO_COUNT>
0
> <PUBCHEM_BOND_UDEF_STEREO_COUNT>
0
> <PUBCHEM_ISOTOPIC_ATOM_COUNT>
0
> <PUBCHEM_COMPONENT_COUNT>
1
> <PUBCHEM_CACTVS_TAUTO_COUNT>
-1
> <PUBCHEM_COORDINATE_TYPE>
1
5
255
> <PUBCHEM_BONDANNOTATIONS>
19  1  6
14  18  5
26  30  8
26  31  8
30  35  8
31  36  8
35  37  8
36  37  8
20  6  6
28  7  5
8  38  6
9  39  6
$$$$
