506804
  -OEChem-10302200282D
 80 83  0     1  0  0  0  0  0999 V2000
   10.7073    0.2701    0.0000 O   0  0  0  0  0  0  0  0  0  0  0  0
    6.3981    0.0382    0.0000 O   0  0  0  0  0  0  0  0  0  0  0  0
    6.5405    1.3929    0.0000 O   0  0  0  0  0  0  0  0  0  0  0  0
    7.2641   -3.4618    0.0000 O   0  0  0  0  0  0  0  0  0  0  0  0
    6.4210    4.9964    0.0000 O   0  0  0  0  0  0  0  0  0  0  0  0
    8.1301    0.0382    0.0000 N   0  0  0  0  0  0  0  0  0  0  0  0
    6.3981   -1.9618    0.0000 N   0  0  0  0  0  0  0  0  0  0  0  0
    7.6994    2.6800    0.0000 N   0  0  0  0  0  0  0  0  0  0  0  0
    5.5321   -4.4618    0.0000 N   0  0  0  0  0  0  0  0  0  0  0  0
    8.2347    1.0328    0.0000 C   0  0  1  0  0  0  0  0  0  0  0  0
    9.7128    0.3746    0.0000 C   0  0  2  0  0  0  0  0  0  0  0  0
    9.2128    1.2407    0.0000 C   0  0  0  0  0  0  0  0  0  0  0  0
    9.0437   -0.3685    0.0000 C   0  0  0  0  0  0  0  0  0  0  0  0
    7.2641   -1.4618    0.0000 C   0  0  2  0  0  0  0  0  0  0  0  0
    7.2641   -0.4618    0.0000 C   0  0  0  0  0  0  0  0  0  0  0  0
    7.4915    1.7019    0.0000 C   0  0  0  0  0  0  0  0  0  0  0  0
    8.1301   -1.9618    0.0000 C   0  0  0  0  0  0  0  0  0  0  0  0
    5.5321   -3.4618    0.0000 C   0  0  3  0  0  0  0  0  0  0  0  0
    8.1301   -2.9618    0.0000 C   0  0  0  0  0  0  0  0  0  0  0  0
    8.9962   -1.4618    0.0000 C   0  0  0  0  0  0  0  0  0  0  0  0
   11.2951    1.0791    0.0000 C   0  0  0  0  0  0  0  0  0  0  0  0
    6.3981   -2.9618    0.0000 C   0  0  0  0  0  0  0  0  0  0  0  0
    4.6660   -2.9618    0.0000 C   0  0  0  0  0  0  0  0  0  0  0  0
    6.9563    3.3492    0.0000 C   0  0  1  0  0  0  0  0  0  0  0  0
    3.8000   -3.4618    0.0000 C   0  0  0  0  0  0  0  0  0  0  0  0
    4.6660   -4.9618    0.0000 C   0  0  0  0  0  0  0  0  0  0  0  0
    3.8000   -4.4618    0.0000 C   0  0  0  0  0  0  0  0  0  0  0  0
   12.2896    0.9746    0.0000 C   0  0  0  0  0  0  0  0  0  0  0  0
    6.0052    3.0401    0.0000 C   0  0  0  0  0  0  0  0  0  0  0  0
    2.9061   -2.9271    0.0000 C   0  0  0  0  0  0  0  0  0  0  0  0
    7.1642    4.3273    0.0000 C   0  0  0  0  0  0  0  0  0  0  0  0
    2.9061   -4.9964    0.0000 C   0  0  0  0  0  0  0  0  0  0  0  0
    5.2621    3.7093    0.0000 C   0  0  0  0  0  0  0  0  0  0  0  0
   12.6964    0.0610    0.0000 C   0  0  0  0  0  0  0  0  0  0  0  0
   12.8774    1.7836    0.0000 C   0  0  0  0  0  0  0  0  0  0  0  0
    2.0000   -3.4410    0.0000 C   0  0  0  0  0  0  0  0  0  0  0  0
    2.0000   -4.4826    0.0000 C   0  0  0  0  0  0  0  0  0  0  0  0
   13.6909   -0.0435    0.0000 C   0  0  0  0  0  0  0  0  0  0  0  0
   13.8719    1.6791    0.0000 C   0  0  0  0  0  0  0  0  0  0  0  0
   14.2787    0.7655    0.0000 C   0  0  0  0  0  0  0  0  0  0  0  0
    7.6558    0.8106    0.0000 H   0  0  0  0  0  0  0  0  0  0  0  0
   10.0505    0.8946    0.0000 H   0  0  0  0  0  0  0  0  0  0  0  0
    9.7792    1.4928    0.0000 H   0  0  0  0  0  0  0  0  0  0  0  0
    9.0212    1.8303    0.0000 H   0  0  0  0  0  0  0  0  0  0  0  0
    8.7337   -0.9054    0.0000 H   0  0  0  0  0  0  0  0  0  0  0  0
    9.5453   -0.7329    0.0000 H   0  0  0  0  0  0  0  0  0  0  0  0
    6.7272   -1.1518    0.0000 H   0  0  0  0  0  0  0  0  0  0  0  0
    7.5932   -2.2718    0.0000 H   0  0  0  0  0  0  0  0  0  0  0  0
    5.8612   -1.6518    0.0000 H   0  0  0  0  0  0  0  0  0  0  0  0
    6.0690   -3.7718    0.0000 H   0  0  0  0  0  0  0  0  0  0  0  0
    8.2891    2.8716    0.0000 H   0  0  0  0  0  0  0  0  0  0  0  0
    7.5101   -2.9618    0.0000 H   0  0  0  0  0  0  0  0  0  0  0  0
    8.1301   -3.5818    0.0000 H   0  0  0  0  0  0  0  0  0  0  0  0
    8.7501   -2.9618    0.0000 H   0  0  0  0  0  0  0  0  0  0  0  0
    9.3062   -1.9987    0.0000 H   0  0  0  0  0  0  0  0  0  0  0  0
    9.5331   -1.1518    0.0000 H   0  0  0  0  0  0  0  0  0  0  0  0
    8.6862   -0.9248    0.0000 H   0  0  0  0  0  0  0  0  0  0  0  0
   11.4660    1.6751    0.0000 H   0  0  0  0  0  0  0  0  0  0  0  0
   10.7379    1.3509    0.0000 H   0  0  0  0  0  0  0  0  0  0  0  0
    5.0646   -2.4868    0.0000 H   0  0  0  0  0  0  0  0  0  0  0  0
    4.2675   -2.4868    0.0000 H   0  0  0  0  0  0  0  0  0  0  0  0
    7.5459    3.5408    0.0000 H   0  0  0  0  0  0  0  0  0  0  0  0
    6.0690   -4.7718    0.0000 H   0  0  0  0  0  0  0  0  0  0  0  0
    4.2675   -5.4367    0.0000 H   0  0  0  0  0  0  0  0  0  0  0  0
    5.0646   -5.4367    0.0000 H   0  0  0  0  0  0  0  0  0  0  0  0
    5.5167    2.6584    0.0000 H   0  0  0  0  0  0  0  0  0  0  0  0
    6.2963    2.4927    0.0000 H   0  0  0  0  0  0  0  0  0  0  0  0
    2.9132   -2.3072    0.0000 H   0  0  0  0  0  0  0  0  0  0  0  0
    7.7538    4.5189    0.0000 H   0  0  0  0  0  0  0  0  0  0  0  0
    2.9132   -5.6164    0.0000 H   0  0  0  0  0  0  0  0  0  0  0  0
    5.6770    4.1700    0.0000 H   0  0  0  0  0  0  0  0  0  0  0  0
    4.8013    4.1241    0.0000 H   0  0  0  0  0  0  0  0  0  0  0  0
    4.8472    3.2485    0.0000 H   0  0  0  0  0  0  0  0  0  0  0  0
   12.3320   -0.4405    0.0000 H   0  0  0  0  0  0  0  0  0  0  0  0
   12.6252    2.3500    0.0000 H   0  0  0  0  0  0  0  0  0  0  0  0
    1.4643   -3.1289    0.0000 H   0  0  0  0  0  0  0  0  0  0  0  0
    1.4643   -4.7947    0.0000 H   0  0  0  0  0  0  0  0  0  0  0  0
   13.9431   -0.6099    0.0000 H   0  0  0  0  0  0  0  0  0  0  0  0
   14.2364    2.1807    0.0000 H   0  0  0  0  0  0  0  0  0  0  0  0
   14.8953    0.7007    0.0000 H   0  0  0  0  0  0  0  0  0  0  0  0
 11  1  1  1  0  0  0
  1 21  1  0  0  0  0
  2 15  2  0  0  0  0
  3 16  2  0  0  0  0
  4 22  2  0  0  0  0
  5 31  2  0  0  0  0
  6 10  1  0  0  0  0
  6 13  1  0  0  0  0
  6 15  1  0  0  0  0
 14  7  1  6  0  0  0
  7 22  1  0  0  0  0
  7 49  1  0  0  0  0
  8 16  1  0  0  0  0
 24  8  1  1  0  0  0
  8 51  1  0  0  0  0
  9 18  1  0  0  0  0
  9 26  1  0  0  0  0
  9 63  1  0  0  0  0
 10 12  1  0  0  0  0
 10 16  1  6  0  0  0
 10 41  1  0  0  0  0
 11 12  1  0  0  0  0
 11 13  1  0  0  0  0
 11 42  1  0  0  0  0
 12 43  1  0  0  0  0
 12 44  1  0  0  0  0
 13 45  1  0  0  0  0
 13 46  1  0  0  0  0
 14 15  1  0  0  0  0
 14 17  1  0  0  0  0
 14 47  1  0  0  0  0
 17 19  1  0  0  0  0
 17 20  1  0  0  0  0
 17 48  1  0  0  0  0
 18 22  1  0  0  0  0
 18 23  1  0  0  0  0
 18 50  1  0  0  0  0
 19 52  1  0  0  0  0
 19 53  1  0  0  0  0
 19 54  1  0  0  0  0
 20 55  1  0  0  0  0
 20 56  1  0  0  0  0
 20 57  1  0  0  0  0
 21 28  1  0  0  0  0
 21 58  1  0  0  0  0
 21 59  1  0  0  0  0
 23 25  1  0  0  0  0
 23 60  1  0  0  0  0
 23 61  1  0  0  0  0
 24 29  1  0  0  0  0
 24 31  1  0  0  0  0
 24 62  1  0  0  0  0
 25 27  1  0  0  0  0
 25 30  2  0  0  0  0
 26 27  1  0  0  0  0
 26 64  1  0  0  0  0
 26 65  1  0  0  0  0
 27 32  2  0  0  0  0
 28 34  2  0  0  0  0
 28 35  1  0  0  0  0
 29 33  1  0  0  0  0
 29 66  1  0  0  0  0
 29 67  1  0  0  0  0
 30 36  1  0  0  0  0
 30 68  1  0  0  0  0
 31 69  1  0  0  0  0
 32 37  1  0  0  0  0
 32 70  1  0  0  0  0
 33 71  1  0  0  0  0
 33 72  1  0  0  0  0
 33 73  1  0  0  0  0
 34 38  1  0  0  0  0
 34 74  1  0  0  0  0
 35 39  2  0  0  0  0
 35 75  1  0  0  0  0
 36 37  2  0  0  0  0
 36 76  1  0  0  0  0
 37 77  1  0  0  0  0
 38 40  2  0  0  0  0
 38 78  1  0  0  0  0
 39 40  1  0  0  0  0
 39 79  1  0  0  0  0
 40 80  1  0  0  0  0
M  END
> <PUBCHEM_COMPOUND_CID>
506804
> <PUBCHEM_COMPOUND_CANONICALIZED>
1
> <PUBCHEM_CACTVS_COMPLEXITY>
876
> <PUBCHEM_CACTVS_HBOND_ACCEPTOR>
6
> <PUBCHEM_CACTVS_HBOND_DONOR>
3
> <PUBCHEM_CACTVS_ROTATABLE_BOND>
11
> <PUBCHEM_CACTVS_SUBSKEYS>
AAADcfB7uAAAAAAAAAAAAAAAAAAAAWAAAAA8YIAAAAAAAACxQAAAHgAQAAAADTzhmAYyAIPABACIAilSkACCAAAgAAAIiIGIDIgKZjKAsTmXMAhm1gGYqAe6yaCOgAAAAAAQAAAAAAAAACAAAAAAAAAAAA==
> <PUBCHEM_IUPAC_OPENEYE_NAME>
N-[(1S)-1-[(2S,4R)-4-benzyloxy-2-[[(1S)-1-formylpropyl]carbamoyl]pyrrolidine-1-carbonyl]-2-methyl-propyl]-1,2,3,4-tetrahydroisoquinoline-3-carboxamide
> <PUBCHEM_IUPAC_CAS_NAME>
N-[(2S)-3-methyl-1-oxo-1-[(2S,4R)-2-[oxo-[[(2S)-1-oxobutan-2-yl]amino]methyl]-4-phenylmethoxy-1-pyrrolidinyl]butan-2-yl]-1,2,3,4-tetrahydroisoquinoline-3-carboxamide
> <PUBCHEM_IUPAC_NAME_MARKUP>
<I>N</I>-[(2<I>S</I>)-3-methyl-1-oxo-1-[(2<I>S</I>,4<I>R</I>)-2-[[(2<I>S</I>)-1-oxobutan-2-yl]carbamoyl]-4-phenylmethoxypyrrolidin-1-yl]butan-2-yl]-1,2,3,4-tetrahydroisoquinoline-3-carboxamide
> <PUBCHEM_IUPAC_NAME>
N-[(2S)-3-methyl-1-oxo-1-[(2S,4R)-2-[[(2S)-1-oxobutan-2-yl]carbamoyl]-4-phenylmethoxypyrrolidin-1-yl]butan-2-yl]-1,2,3,4-tetrahydroisoquinoline-3-carboxamide
> <PUBCHEM_IUPAC_SYSTEMATIC_NAME>
N-[(2S)-3-methyl-1-oxidanylidene-1-[(2S,4R)-2-[[(2S)-1-oxidanylidenebutan-2-yl]carbamoyl]-4-phenylmethoxy-pyrrolidin-1-yl]butan-2-yl]-1,2,3,4-tetrahydroisoquinoline-3-carboxamide
> <PUBCHEM_IUPAC_TRADITIONAL_NAME>
N-[(1S)-1-[(2S,4R)-4-benzoxy-2-[[(1S)-1-formylpropyl]carbamoyl]pyrrolidine-1-carbonyl]-2-methyl-propyl]-1,2,3,4-tetrahydroisoquinoline-3-carboxamide
> <PUBCHEM_IUPAC_INCHI>
InChI=1S/C31H40N4O5/c1-4-24(18-36)33-30(38)27-15-25(40-19-21-10-6-5-7-11-21)17-35(27)31(39)28(20(2)3)34-29(37)26-14-22-12-8-9-13-23(22)16-32-26/h5-13,18,20,24-28,32H,4,14-17,19H2,1-3H3,(H,33,38)(H,34,37)/t24-,25+,26?,27-,28-/m0/s1
> <PUBCHEM_IUPAC_INCHIKEY>
DBYUHMWSUKWVSP-RVTIHDABSA-N
> <PUBCHEM_XLOGP3_AA>
3
> <PUBCHEM_EXACT_MASS>
548.29987039
> <PUBCHEM_MOLECULAR_FORMULA>
C31H40N4O5
> <PUBCHEM_MOLECULAR_WEIGHT>
548.7
> <PUBCHEM_OPENEYE_CAN_SMILES>
CCC(C=O)NC(=O)C1CC(CN1C(=O)C(C(C)C)NC(=O)C2CC3=CC=CC=C3CN2)OCC4=CC=CC=C4
> <PUBCHEM_OPENEYE_ISO_SMILES>
CC[C@@H](C=O)NC(=O)[C@@H]1C[C@H](CN1C(=O)[C@H](C(C)C)NC(=O)C2CC3=CC=CC=C3CN2)OCC4=CC=CC=C4
> <PUBCHEM_CACTVS_TPSA>
117
> <PUBCHEM_MONOISOTOPIC_WEIGHT>
548.29987039
> <PUBCHEM_TOTAL_CHARGE>
0
> <PUBCHEM_HEAVY_ATOM_COUNT>
40
> <PUBCHEM_ATOM_DEF_STEREO_COUNT>
4
> <PUBCHEM_ATOM_UDEF_STEREO_COUNT>
1
> <PUBCHEM_BOND_DEF_STEREO_COUNT>
0
> <PUBCHEM_BOND_UDEF_STEREO_COUNT>
0
> <PUBCHEM_ISOTOPIC_ATOM_COUNT>
0
> <PUBCHEM_COMPONENT_COUNT>
1
> <PUBCHEM_CACTVS_TAUTO_COUNT>
-1
> <PUBCHEM_COORDINATE_TYPE>
1
5
255
> <PUBCHEM_BONDANNOTATIONS>
11  1  5
10  16  6
18  22  3
25  27  8
25  30  8
27  32  8
28  34  8
28  35  8
30  36  8
32  37  8
34  38  8
35  39  8
36  37  8
38  40  8
39  40  8
14  7  6
24  8  5
$$$$
