506812
  -OEChem-10302200282D
 80 83  0     1  0  0  0  0  0999 V2000
    9.9113   -1.9604    0.0000 O   0  0  0  0  0  0  0  0  0  0  0  0
    6.8555    1.0868    0.0000 O   0  0  0  0  0  0  0  0  0  0  0  0
    7.9575    1.8874    0.0000 O   0  0  0  0  0  0  0  0  0  0  0  0
    4.8340   -1.8987    0.0000 O   0  0  0  0  0  0  0  0  0  0  0  0
   10.5556    4.3874    0.0000 O   0  0  0  0  0  0  0  0  0  0  0  0
    2.3660    0.3395    0.0000 O   0  0  0  0  0  0  0  0  0  0  0  0
    8.0145   -0.2003    0.0000 N   0  0  0  0  0  0  0  0  0  0  0  0
    9.6895    1.8874    0.0000 N   0  0  0  0  0  0  0  0  0  0  0  0
    5.3692   -0.2514    0.0000 N   0  0  0  0  0  0  0  0  0  0  0  0
    2.0570   -0.6115    0.0000 N   0  0  0  0  0  0  0  0  0  0  0  0
    8.8235    0.3875    0.0000 C   0  0  1  0  0  0  0  0  0  0  0  0
    9.3235   -1.1514    0.0000 C   0  0  2  0  0  0  0  0  0  0  0  0
    9.6325   -0.2003    0.0000 C   0  0  0  0  0  0  0  0  0  0  0  0
    8.3235   -1.1514    0.0000 C   0  0  0  0  0  0  0  0  0  0  0  0
    7.0634    0.1087    0.0000 C   0  0  0  0  0  0  0  0  0  0  0  0
    6.3203   -0.5604    0.0000 C   0  0  2  0  0  0  0  0  0  0  0  0
    8.8235    1.3874    0.0000 C   0  0  0  0  0  0  0  0  0  0  0  0
    6.5282   -1.5386    0.0000 C   0  0  0  0  0  0  0  0  0  0  0  0
   10.9058   -1.8559    0.0000 C   0  0  0  0  0  0  0  0  0  0  0  0
    7.4793   -1.8476    0.0000 C   0  0  0  0  0  0  0  0  0  0  0  0
    5.7851   -2.2077    0.0000 C   0  0  0  0  0  0  0  0  0  0  0  0
    9.6895    2.8874    0.0000 C   0  0  1  0  0  0  0  0  0  0  0  0
   11.4936   -2.6649    0.0000 C   0  0  0  0  0  0  0  0  0  0  0  0
    8.8235    3.3874    0.0000 C   0  0  0  0  0  0  0  0  0  0  0  0
    4.6261   -0.9206    0.0000 C   0  0  0  0  0  0  0  0  0  0  0  0
   10.5556    3.3874    0.0000 C   0  0  0  0  0  0  0  0  0  0  0  0
    3.6750   -0.6115    0.0000 C   0  0  0  0  0  0  0  0  0  0  0  0
    8.8235    4.3874    0.0000 C   0  0  0  0  0  0  0  0  0  0  0  0
   11.0869   -3.5784    0.0000 C   0  0  0  0  0  0  0  0  0  0  0  0
   12.4881   -2.5604    0.0000 C   0  0  0  0  0  0  0  0  0  0  0  0
    2.8660   -1.1993    0.0000 C   0  0  0  0  0  0  0  0  0  0  0  0
    3.3660    0.3395    0.0000 C   0  0  0  0  0  0  0  0  0  0  0  0
   11.6747   -4.3874    0.0000 C   0  0  0  0  0  0  0  0  0  0  0  0
   13.0759   -3.3694    0.0000 C   0  0  0  0  0  0  0  0  0  0  0  0
   12.6692   -4.2829    0.0000 C   0  0  0  0  0  0  0  0  0  0  0  0
    2.8660   -2.1993    0.0000 C   0  0  0  0  0  0  0  0  0  0  0  0
    3.9538    1.1485    0.0000 C   0  0  0  0  0  0  0  0  0  0  0  0
    3.7320   -2.6993    0.0000 C   0  0  0  0  0  0  0  0  0  0  0  0
    2.0000   -2.6993    0.0000 C   0  0  0  0  0  0  0  0  0  0  0  0
    3.7320   -3.6993    0.0000 C   0  0  0  0  0  0  0  0  0  0  0  0
    2.0000   -3.6993    0.0000 C   0  0  0  0  0  0  0  0  0  0  0  0
    2.8660   -4.1993    0.0000 C   0  0  0  0  0  0  0  0  0  0  0  0
    8.2711    0.6689    0.0000 H   0  0  0  0  0  0  0  0  0  0  0  0
    9.9359   -1.0544    0.0000 H   0  0  0  0  0  0  0  0  0  0  0  0
   10.1989   -0.4525    0.0000 H   0  0  0  0  0  0  0  0  0  0  0  0
    9.9425    0.3366    0.0000 H   0  0  0  0  0  0  0  0  0  0  0  0
    7.7171   -1.2803    0.0000 H   0  0  0  0  0  0  0  0  0  0  0  0
    8.3883   -1.7680    0.0000 H   0  0  0  0  0  0  0  0  0  0  0  0
    5.8595   -0.9753    0.0000 H   0  0  0  0  0  0  0  0  0  0  0  0
    6.9890   -1.1237    0.0000 H   0  0  0  0  0  0  0  0  0  0  0  0
   10.2265    1.5774    0.0000 H   0  0  0  0  0  0  0  0  0  0  0  0
    5.2403    0.3550    0.0000 H   0  0  0  0  0  0  0  0  0  0  0  0
   11.4631   -1.5841    0.0000 H   0  0  0  0  0  0  0  0  0  0  0  0
   10.7349   -1.2599    0.0000 H   0  0  0  0  0  0  0  0  0  0  0  0
    7.2877   -2.4373    0.0000 H   0  0  0  0  0  0  0  0  0  0  0  0
    8.0689   -2.0392    0.0000 H   0  0  0  0  0  0  0  0  0  0  0  0
    7.6709   -1.2579    0.0000 H   0  0  0  0  0  0  0  0  0  0  0  0
    5.3702   -1.7470    0.0000 H   0  0  0  0  0  0  0  0  0  0  0  0
    5.3243   -2.6226    0.0000 H   0  0  0  0  0  0  0  0  0  0  0  0
    6.1999   -2.6685    0.0000 H   0  0  0  0  0  0  0  0  0  0  0  0
    9.1526    2.5775    0.0000 H   0  0  0  0  0  0  0  0  0  0  0  0
    8.2129    3.4951    0.0000 H   0  0  0  0  0  0  0  0  0  0  0  0
    8.6115    2.8048    0.0000 H   0  0  0  0  0  0  0  0  0  0  0  0
   11.0925    3.0774    0.0000 H   0  0  0  0  0  0  0  0  0  0  0  0
    9.4435    4.3874    0.0000 H   0  0  0  0  0  0  0  0  0  0  0  0
    8.8235    5.0075    0.0000 H   0  0  0  0  0  0  0  0  0  0  0  0
    8.2035    4.3874    0.0000 H   0  0  0  0  0  0  0  0  0  0  0  0
   10.4703   -3.6432    0.0000 H   0  0  0  0  0  0  0  0  0  0  0  0
   12.7403   -1.9940    0.0000 H   0  0  0  0  0  0  0  0  0  0  0  0
   11.4225   -4.9538    0.0000 H   0  0  0  0  0  0  0  0  0  0  0  0
   13.6925   -3.3046    0.0000 H   0  0  0  0  0  0  0  0  0  0  0  0
   13.0336   -4.7845    0.0000 H   0  0  0  0  0  0  0  0  0  0  0  0
    4.4554    0.7841    0.0000 H   0  0  0  0  0  0  0  0  0  0  0  0
    4.3182    1.6501    0.0000 H   0  0  0  0  0  0  0  0  0  0  0  0
    3.4522    1.5130    0.0000 H   0  0  0  0  0  0  0  0  0  0  0  0
    4.2690   -2.3893    0.0000 H   0  0  0  0  0  0  0  0  0  0  0  0
    1.4631   -2.3893    0.0000 H   0  0  0  0  0  0  0  0  0  0  0  0
    4.2690   -4.0093    0.0000 H   0  0  0  0  0  0  0  0  0  0  0  0
    1.4631   -4.0093    0.0000 H   0  0  0  0  0  0  0  0  0  0  0  0
    2.8660   -4.8193    0.0000 H   0  0  0  0  0  0  0  0  0  0  0  0
 12  1  1  1  0  0  0
  1 19  1  0  0  0  0
  2 15  2  0  0  0  0
  3 17  2  0  0  0  0
  4 25  2  0  0  0  0
  5 26  2  0  0  0  0
  6 10  1  0  0  0  0
  6 32  1  0  0  0  0
  7 11  1  0  0  0  0
  7 14  1  0  0  0  0
  7 15  1  0  0  0  0
  8 17  1  0  0  0  0
 22  8  1  1  0  0  0
  8 51  1  0  0  0  0
 16  9  1  6  0  0  0
  9 25  1  0  0  0  0
  9 52  1  0  0  0  0
 10 31  2  0  0  0  0
 11 13  1  0  0  0  0
 11 17  1  6  0  0  0
 11 43  1  0  0  0  0
 12 13  1  0  0  0  0
 12 14  1  0  0  0  0
 12 44  1  0  0  0  0
 13 45  1  0  0  0  0
 13 46  1  0  0  0  0
 14 47  1  0  0  0  0
 14 48  1  0  0  0  0
 15 16  1  0  0  0  0
 16 18  1  0  0  0  0
 16 49  1  0  0  0  0
 18 20  1  0  0  0  0
 18 21  1  0  0  0  0
 18 50  1  0  0  0  0
 19 23  1  0  0  0  0
 19 53  1  0  0  0  0
 19 54  1  0  0  0  0
 20 55  1  0  0  0  0
 20 56  1  0  0  0  0
 20 57  1  0  0  0  0
 21 58  1  0  0  0  0
 21 59  1  0  0  0  0
 21 60  1  0  0  0  0
 22 24  1  0  0  0  0
 22 26  1  0  0  0  0
 22 61  1  0  0  0  0
 23 29  2  0  0  0  0
 23 30  1  0  0  0  0
 24 28  1  0  0  0  0
 24 62  1  0  0  0  0
 24 63  1  0  0  0  0
 25 27  1  0  0  0  0
 26 64  1  0  0  0  0
 27 31  1  0  0  0  0
 27 32  2  0  0  0  0
 28 65  1  0  0  0  0
 28 66  1  0  0  0  0
 28 67  1  0  0  0  0
 29 33  1  0  0  0  0
 29 68  1  0  0  0  0
 30 34  2  0  0  0  0
 30 69  1  0  0  0  0
 31 36  1  0  0  0  0
 32 37  1  0  0  0  0
 33 35  2  0  0  0  0
 33 70  1  0  0  0  0
 34 35  1  0  0  0  0
 34 71  1  0  0  0  0
 35 72  1  0  0  0  0
 36 38  2  0  0  0  0
 36 39  1  0  0  0  0
 37 73  1  0  0  0  0
 37 74  1  0  0  0  0
 37 75  1  0  0  0  0
 38 40  1  0  0  0  0
 38 76  1  0  0  0  0
 39 41  2  0  0  0  0
 39 77  1  0  0  0  0
 40 42  2  0  0  0  0
 40 78  1  0  0  0  0
 41 42  1  0  0  0  0
 41 79  1  0  0  0  0
 42 80  1  0  0  0  0
M  END
> <PUBCHEM_COMPOUND_CID>
506812
> <PUBCHEM_COMPOUND_CANONICALIZED>
1
> <PUBCHEM_CACTVS_COMPLEXITY>
919
> <PUBCHEM_CACTVS_HBOND_ACCEPTOR>
7
> <PUBCHEM_CACTVS_HBOND_DONOR>
2
> <PUBCHEM_CACTVS_ROTATABLE_BOND>
12
> <PUBCHEM_CACTVS_SUBSKEYS>
AAADcfB/uAAAAAAAAAAAAAAAAAAAAWLAAAAwYAAAAAAAAAAB0AAAHgAUAAAADTzhngYyhJPQBACpA61y0gCCAAAkIAAomKGsTNoKZr6I8buXMchm9hmY6Ue6yeCOAAAAAAAAAAAAAAAAAAAAAAAAAAAAAA==
> <PUBCHEM_IUPAC_OPENEYE_NAME>
N-[(1S)-1-[(2S,4R)-4-benzyloxy-2-[[(1S)-1-formylpropyl]carbamoyl]pyrrolidine-1-carbonyl]-2-methyl-propyl]-5-methyl-3-phenyl-isoxazole-4-carboxamide
> <PUBCHEM_IUPAC_CAS_NAME>
5-methyl-N-[(2S)-3-methyl-1-oxo-1-[(2S,4R)-2-[oxo-[[(2S)-1-oxobutan-2-yl]amino]methyl]-4-phenylmethoxy-1-pyrrolidinyl]butan-2-yl]-3-phenyl-4-isoxazolecarboxamide
> <PUBCHEM_IUPAC_NAME_MARKUP>
5-methyl-<I>N</I>-[(2<I>S</I>)-3-methyl-1-oxo-1-[(2<I>S</I>,4<I>R</I>)-2-[[(2<I>S</I>)-1-oxobutan-2-yl]carbamoyl]-4-phenylmethoxypyrrolidin-1-yl]butan-2-yl]-3-phenyl-1,2-oxazole-4-carboxamide
> <PUBCHEM_IUPAC_NAME>
5-methyl-N-[(2S)-3-methyl-1-oxo-1-[(2S,4R)-2-[[(2S)-1-oxobutan-2-yl]carbamoyl]-4-phenylmethoxypyrrolidin-1-yl]butan-2-yl]-3-phenyl-1,2-oxazole-4-carboxamide
> <PUBCHEM_IUPAC_SYSTEMATIC_NAME>
5-methyl-N-[(2S)-3-methyl-1-oxidanylidene-1-[(2S,4R)-2-[[(2S)-1-oxidanylidenebutan-2-yl]carbamoyl]-4-phenylmethoxy-pyrrolidin-1-yl]butan-2-yl]-3-phenyl-1,2-oxazole-4-carboxamide
> <PUBCHEM_IUPAC_TRADITIONAL_NAME>
N-[(1S)-1-[(2S,4R)-4-benzoxy-2-[[(1S)-1-formylpropyl]carbamoyl]pyrrolidine-1-carbonyl]-2-methyl-propyl]-5-methyl-3-phenyl-isoxazole-4-carboxamide
> <PUBCHEM_IUPAC_INCHI>
InChI=1S/C32H38N4O6/c1-5-24(18-37)33-30(38)26-16-25(41-19-22-12-8-6-9-13-22)17-36(26)32(40)28(20(2)3)34-31(39)27-21(4)42-35-29(27)23-14-10-7-11-15-23/h6-15,18,20,24-26,28H,5,16-17,19H2,1-4H3,(H,33,38)(H,34,39)/t24-,25+,26-,28-/m0/s1
> <PUBCHEM_IUPAC_INCHIKEY>
RLEKDYODEQEZRB-RVUATISTSA-N
> <PUBCHEM_XLOGP3_AA>
4
> <PUBCHEM_EXACT_MASS>
574.27913494
> <PUBCHEM_MOLECULAR_FORMULA>
C32H38N4O6
> <PUBCHEM_MOLECULAR_WEIGHT>
574.7
> <PUBCHEM_OPENEYE_CAN_SMILES>
CCC(C=O)NC(=O)C1CC(CN1C(=O)C(C(C)C)NC(=O)C2=C(ON=C2C3=CC=CC=C3)C)OCC4=CC=CC=C4
> <PUBCHEM_OPENEYE_ISO_SMILES>
CC[C@@H](C=O)NC(=O)[C@@H]1C[C@H](CN1C(=O)[C@H](C(C)C)NC(=O)C2=C(ON=C2C3=CC=CC=C3)C)OCC4=CC=CC=C4
> <PUBCHEM_CACTVS_TPSA>
131
> <PUBCHEM_MONOISOTOPIC_WEIGHT>
574.27913494
> <PUBCHEM_TOTAL_CHARGE>
0
> <PUBCHEM_HEAVY_ATOM_COUNT>
42
> <PUBCHEM_ATOM_DEF_STEREO_COUNT>
4
> <PUBCHEM_ATOM_UDEF_STEREO_COUNT>
0
> <PUBCHEM_BOND_DEF_STEREO_COUNT>
0
> <PUBCHEM_BOND_UDEF_STEREO_COUNT>
0
> <PUBCHEM_ISOTOPIC_ATOM_COUNT>
0
> <PUBCHEM_COMPONENT_COUNT>
1
> <PUBCHEM_CACTVS_TAUTO_COUNT>
-1
> <PUBCHEM_COORDINATE_TYPE>
1
5
255
> <PUBCHEM_BONDANNOTATIONS>
12  1  5
10  31  8
11  17  6
23  29  8
23  30  8
27  31  8
27  32  8
29  33  8
30  34  8
33  35  8
34  35  8
36  38  8
36  39  8
38  40  8
39  41  8
40  42  8
41  42  8
6  10  8
6  32  8
22  8  5
16  9  6
$$$$
