506817
  -OEChem-10302200282D
 75 77  0     1  0  0  0  0  0999 V2000
    5.2423    2.4514    0.0000 O   0  0  0  0  0  0  0  0  0  0  0  0
    7.1962   -1.3965    0.0000 O   0  0  0  0  0  0  0  0  0  0  0  0
    8.2981   -0.5959    0.0000 O   0  0  0  0  0  0  0  0  0  0  0  0
    3.7320   -2.3965    0.0000 O   0  0  0  0  0  0  0  0  0  0  0  0
   11.4786    1.1025    0.0000 O   0  0  0  0  0  0  0  0  0  0  0  0
    2.8660   -3.8965    0.0000 O   0  0  0  0  0  0  0  0  0  0  0  0
    6.3301    0.1035    0.0000 N   0  0  0  0  0  0  0  0  0  0  0  0
    8.8334    1.0514    0.0000 N   0  0  0  0  0  0  0  0  0  0  0  0
    5.4641   -2.3965    0.0000 N   0  0  0  0  0  0  0  0  0  0  0  0
    7.1391    0.6913    0.0000 C   0  0  1  0  0  0  0  0  0  0  0  0
    5.8301    1.6424    0.0000 C   0  0  2  0  0  0  0  0  0  0  0  0
    6.8301    1.6424    0.0000 C   0  0  0  0  0  0  0  0  0  0  0  0
    5.5211    0.6913    0.0000 C   0  0  0  0  0  0  0  0  0  0  0  0
    6.3301   -0.8965    0.0000 C   0  0  0  0  0  0  0  0  0  0  0  0
    5.4641   -1.3965    0.0000 C   0  0  2  0  0  0  0  0  0  0  0  0
    8.0902    0.3823    0.0000 C   0  0  0  0  0  0  0  0  0  0  0  0
    4.5981   -0.8965    0.0000 C   0  0  0  0  0  0  0  0  0  0  0  0
    5.6491    3.3649    0.0000 C   0  0  0  0  0  0  0  0  0  0  0  0
    3.7320   -1.3965    0.0000 C   0  0  0  0  0  0  0  0  0  0  0  0
    4.5981    0.1035    0.0000 C   0  0  0  0  0  0  0  0  0  0  0  0
    9.7844    0.7424    0.0000 C   0  0  1  0  0  0  0  0  0  0  0  0
    5.0613    4.1739    0.0000 C   0  0  0  0  0  0  0  0  0  0  0  0
    9.9923   -0.2358    0.0000 C   0  0  0  0  0  0  0  0  0  0  0  0
    4.5981   -2.8965    0.0000 C   0  0  0  0  0  0  0  0  0  0  0  0
   10.5275    1.4115    0.0000 C   0  0  0  0  0  0  0  0  0  0  0  0
   10.9434   -0.5448    0.0000 C   0  0  0  0  0  0  0  0  0  0  0  0
    4.5981   -3.8965    0.0000 C   0  0  0  0  0  0  0  0  0  0  0  0
    4.0668    4.0694    0.0000 C   0  0  0  0  0  0  0  0  0  0  0  0
    5.4680    5.0875    0.0000 C   0  0  0  0  0  0  0  0  0  0  0  0
    3.4790    4.8784    0.0000 C   0  0  0  0  0  0  0  0  0  0  0  0
    4.8802    5.8965    0.0000 C   0  0  0  0  0  0  0  0  0  0  0  0
    3.7320   -4.3965    0.0000 C   0  0  0  0  0  0  0  0  0  0  0  0
    5.4641   -4.3965    0.0000 C   0  0  0  0  0  0  0  0  0  0  0  0
    3.8857    5.7920    0.0000 C   0  0  0  0  0  0  0  0  0  0  0  0
    3.7320   -5.3965    0.0000 C   0  0  0  0  0  0  0  0  0  0  0  0
    5.4641   -5.3965    0.0000 C   0  0  0  0  0  0  0  0  0  0  0  0
    4.5981   -5.8965    0.0000 C   0  0  0  0  0  0  0  0  0  0  0  0
    2.0000   -4.3965    0.0000 C   0  0  0  0  0  0  0  0  0  0  0  0
    7.2361    0.0789    0.0000 H   0  0  0  0  0  0  0  0  0  0  0  0
    6.1116    2.1948    0.0000 H   0  0  0  0  0  0  0  0  0  0  0  0
    7.4366    1.7713    0.0000 H   0  0  0  0  0  0  0  0  0  0  0  0
    6.7653    2.2590    0.0000 H   0  0  0  0  0  0  0  0  0  0  0  0
    4.9547    0.9435    0.0000 H   0  0  0  0  0  0  0  0  0  0  0  0
    5.2111    0.1544    0.0000 H   0  0  0  0  0  0  0  0  0  0  0  0
    6.0010   -1.7065    0.0000 H   0  0  0  0  0  0  0  0  0  0  0  0
    5.1350   -0.5865    0.0000 H   0  0  0  0  0  0  0  0  0  0  0  0
    8.7044    1.6579    0.0000 H   0  0  0  0  0  0  0  0  0  0  0  0
    6.0010   -2.7065    0.0000 H   0  0  0  0  0  0  0  0  0  0  0  0
    6.1631    3.0182    0.0000 H   0  0  0  0  0  0  0  0  0  0  0  0
    6.0798    3.8109    0.0000 H   0  0  0  0  0  0  0  0  0  0  0  0
    3.4220   -0.8596    0.0000 H   0  0  0  0  0  0  0  0  0  0  0  0
    3.1951   -1.7065    0.0000 H   0  0  0  0  0  0  0  0  0  0  0  0
    4.0420   -1.9334    0.0000 H   0  0  0  0  0  0  0  0  0  0  0  0
    5.2181    0.1035    0.0000 H   0  0  0  0  0  0  0  0  0  0  0  0
    4.5981    0.7235    0.0000 H   0  0  0  0  0  0  0  0  0  0  0  0
    3.9781    0.1035    0.0000 H   0  0  0  0  0  0  0  0  0  0  0  0
    9.6555    1.3488    0.0000 H   0  0  0  0  0  0  0  0  0  0  0  0
    9.3727   -0.2574    0.0000 H   0  0  0  0  0  0  0  0  0  0  0  0
    9.9060   -0.8497    0.0000 H   0  0  0  0  0  0  0  0  0  0  0  0
   10.3986    2.0180    0.0000 H   0  0  0  0  0  0  0  0  0  0  0  0
   10.7518   -1.1344    0.0000 H   0  0  0  0  0  0  0  0  0  0  0  0
   11.5330   -0.7364    0.0000 H   0  0  0  0  0  0  0  0  0  0  0  0
   11.1350    0.0449    0.0000 H   0  0  0  0  0  0  0  0  0  0  0  0
    3.8146    3.5030    0.0000 H   0  0  0  0  0  0  0  0  0  0  0  0
    6.0846    5.1523    0.0000 H   0  0  0  0  0  0  0  0  0  0  0  0
    2.8624    4.8136    0.0000 H   0  0  0  0  0  0  0  0  0  0  0  0
    5.1324    6.4629    0.0000 H   0  0  0  0  0  0  0  0  0  0  0  0
    6.0010   -4.0865    0.0000 H   0  0  0  0  0  0  0  0  0  0  0  0
    3.5213    6.2936    0.0000 H   0  0  0  0  0  0  0  0  0  0  0  0
    3.1951   -5.7065    0.0000 H   0  0  0  0  0  0  0  0  0  0  0  0
    6.0010   -5.7065    0.0000 H   0  0  0  0  0  0  0  0  0  0  0  0
    4.5981   -6.5165    0.0000 H   0  0  0  0  0  0  0  0  0  0  0  0
    1.6900   -3.8596    0.0000 H   0  0  0  0  0  0  0  0  0  0  0  0
    1.4631   -4.7065    0.0000 H   0  0  0  0  0  0  0  0  0  0  0  0
    2.3100   -4.9334    0.0000 H   0  0  0  0  0  0  0  0  0  0  0  0
 11  1  1  6  0  0  0
  1 18  1  0  0  0  0
  2 14  2  0  0  0  0
  3 16  2  0  0  0  0
  4 24  2  0  0  0  0
  5 25  2  0  0  0  0
  6 32  1  0  0  0  0
  6 38  1  0  0  0  0
  7 10  1  0  0  0  0
  7 13  1  0  0  0  0
  7 14  1  0  0  0  0
  8 16  1  0  0  0  0
 21  8  1  6  0  0  0
  8 47  1  0  0  0  0
 15  9  1  1  0  0  0
  9 24  1  0  0  0  0
  9 48  1  0  0  0  0
 10 12  1  0  0  0  0
 10 16  1  1  0  0  0
 10 39  1  0  0  0  0
 11 12  1  0  0  0  0
 11 13  1  0  0  0  0
 11 40  1  0  0  0  0
 12 41  1  0  0  0  0
 12 42  1  0  0  0  0
 13 43  1  0  0  0  0
 13 44  1  0  0  0  0
 14 15  1  0  0  0  0
 15 17  1  0  0  0  0
 15 45  1  0  0  0  0
 17 19  1  0  0  0  0
 17 20  1  0  0  0  0
 17 46  1  0  0  0  0
 18 22  1  0  0  0  0
 18 49  1  0  0  0  0
 18 50  1  0  0  0  0
 19 51  1  0  0  0  0
 19 52  1  0  0  0  0
 19 53  1  0  0  0  0
 20 54  1  0  0  0  0
 20 55  1  0  0  0  0
 20 56  1  0  0  0  0
 21 23  1  0  0  0  0
 21 25  1  0  0  0  0
 21 57  1  0  0  0  0
 22 28  2  0  0  0  0
 22 29  1  0  0  0  0
 23 26  1  0  0  0  0
 23 58  1  0  0  0  0
 23 59  1  0  0  0  0
 24 27  1  0  0  0  0
 25 60  1  0  0  0  0
 26 61  1  0  0  0  0
 26 62  1  0  0  0  0
 26 63  1  0  0  0  0
 27 32  1  0  0  0  0
 27 33  2  0  0  0  0
 28 30  1  0  0  0  0
 28 64  1  0  0  0  0
 29 31  2  0  0  0  0
 29 65  1  0  0  0  0
 30 34  2  0  0  0  0
 30 66  1  0  0  0  0
 31 34  1  0  0  0  0
 31 67  1  0  0  0  0
 32 35  2  0  0  0  0
 33 36  1  0  0  0  0
 33 68  1  0  0  0  0
 34 69  1  0  0  0  0
 35 37  1  0  0  0  0
 35 70  1  0  0  0  0
 36 37  2  0  0  0  0
 36 71  1  0  0  0  0
 37 72  1  0  0  0  0
 38 73  1  0  0  0  0
 38 74  1  0  0  0  0
 38 75  1  0  0  0  0
M  END
> <PUBCHEM_COMPOUND_CID>
506817
> <PUBCHEM_COMPOUND_CANONICALIZED>
1
> <PUBCHEM_CACTVS_COMPLEXITY>
799
> <PUBCHEM_CACTVS_HBOND_ACCEPTOR>
6
> <PUBCHEM_CACTVS_HBOND_DONOR>
2
> <PUBCHEM_CACTVS_ROTATABLE_BOND>
12
> <PUBCHEM_CACTVS_SUBSKEYS>
AAADcfB7OAAAAAAAAAAAAAAAAAAAAWAAAAAwYAAAAAAAAAABQAAAHgAQAAAADTzhmAYyBoPABACIAilSkACCCAAkIAAIiIGODMgOZjaEtTuXMWhm9hGYqYe6ySCOAAAAAAAIAAAAAAAAABAAAAAAAAAAAA==
> <PUBCHEM_IUPAC_OPENEYE_NAME>
(2S,4R)-4-benzyloxy-N-[(1S)-1-formylpropyl]-1-[(2S)-2-[(2-methoxybenzoyl)amino]-3-methyl-butanoyl]pyrrolidine-2-carboxamide
> <PUBCHEM_IUPAC_CAS_NAME>
(2S,4R)-1-[(2S)-2-[[(2-methoxyphenyl)-oxomethyl]amino]-3-methyl-1-oxobutyl]-N-[(2S)-1-oxobutan-2-yl]-4-phenylmethoxy-2-pyrrolidinecarboxamide
> <PUBCHEM_IUPAC_NAME_MARKUP>
(2<I>S</I>,4<I>R</I>)-1-[(2<I>S</I>)-2-[(2-methoxybenzoyl)amino]-3-methylbutanoyl]-<I>N</I>-[(2<I>S</I>)-1-oxobutan-2-yl]-4-phenylmethoxypyrrolidine-2-carboxamide
> <PUBCHEM_IUPAC_NAME>
(2S,4R)-1-[(2S)-2-[(2-methoxybenzoyl)amino]-3-methylbutanoyl]-N-[(2S)-1-oxobutan-2-yl]-4-phenylmethoxypyrrolidine-2-carboxamide
> <PUBCHEM_IUPAC_SYSTEMATIC_NAME>
(2S,4R)-1-[(2S)-2-[(2-methoxyphenyl)carbonylamino]-3-methyl-butanoyl]-N-[(2S)-1-oxidanylidenebutan-2-yl]-4-phenylmethoxy-pyrrolidine-2-carboxamide
> <PUBCHEM_IUPAC_TRADITIONAL_NAME>
(2S,4R)-4-benzoxy-N-[(1S)-1-formylpropyl]-1-[(2S)-3-methyl-2-(o-anisoylamino)butanoyl]pyrrolidine-2-carboxamide
> <PUBCHEM_IUPAC_INCHI>
InChI=1S/C29H37N3O6/c1-5-21(17-33)30-28(35)24-15-22(38-18-20-11-7-6-8-12-20)16-32(24)29(36)26(19(2)3)31-27(34)23-13-9-10-14-25(23)37-4/h6-14,17,19,21-22,24,26H,5,15-16,18H2,1-4H3,(H,30,35)(H,31,34)/t21-,22+,24-,26-/m0/s1
> <PUBCHEM_IUPAC_INCHIKEY>
ZUDSIVVSVDQHLN-VAJMTYMLSA-N
> <PUBCHEM_XLOGP3_AA>
3.4
> <PUBCHEM_EXACT_MASS>
523.26823591
> <PUBCHEM_MOLECULAR_FORMULA>
C29H37N3O6
> <PUBCHEM_MOLECULAR_WEIGHT>
523.6
> <PUBCHEM_OPENEYE_CAN_SMILES>
CCC(C=O)NC(=O)C1CC(CN1C(=O)C(C(C)C)NC(=O)C2=CC=CC=C2OC)OCC3=CC=CC=C3
> <PUBCHEM_OPENEYE_ISO_SMILES>
CC[C@@H](C=O)NC(=O)[C@@H]1C[C@H](CN1C(=O)[C@H](C(C)C)NC(=O)C2=CC=CC=C2OC)OCC3=CC=CC=C3
> <PUBCHEM_CACTVS_TPSA>
114
> <PUBCHEM_MONOISOTOPIC_WEIGHT>
523.26823591
> <PUBCHEM_TOTAL_CHARGE>
0
> <PUBCHEM_HEAVY_ATOM_COUNT>
38
> <PUBCHEM_ATOM_DEF_STEREO_COUNT>
4
> <PUBCHEM_ATOM_UDEF_STEREO_COUNT>
0
> <PUBCHEM_BOND_DEF_STEREO_COUNT>
0
> <PUBCHEM_BOND_UDEF_STEREO_COUNT>
0
> <PUBCHEM_ISOTOPIC_ATOM_COUNT>
0
> <PUBCHEM_COMPONENT_COUNT>
1
> <PUBCHEM_CACTVS_TAUTO_COUNT>
-1
> <PUBCHEM_COORDINATE_TYPE>
1
5
255
> <PUBCHEM_BONDANNOTATIONS>
11  1  6
10  16  5
22  28  8
22  29  8
27  32  8
27  33  8
28  30  8
29  31  8
30  34  8
31  34  8
32  35  8
33  36  8
35  37  8
36  37  8
21  8  6
15  9  5
$$$$
