506813
  -OEChem-10302200282D
 74 76  0     1  0  0  0  0  0999 V2000
    6.2524   -1.8978    0.0000 O   0  0  0  0  0  0  0  0  0  0  0  0
    6.9334    2.3636    0.0000 O   0  0  0  0  0  0  0  0  0  0  0  0
    5.5714    2.3636    0.0000 O   0  0  0  0  0  0  0  0  0  0  0  0
   10.3238    1.1364    0.0000 O   0  0  0  0  0  0  0  0  0  0  0  0
   11.8138    3.8100    0.0000 O   0  0  0  0  0  0  0  0  0  0  0  0
    2.0000    2.8590    0.0000 O   0  0  0  0  0  0  0  0  0  0  0  0
    6.7524    0.6410    0.0000 N   0  0  0  0  0  0  0  0  0  0  0  0
    4.1701    1.3455    0.0000 N   0  0  0  0  0  0  0  0  0  0  0  0
    8.9225    2.1545    0.0000 N   0  0  0  0  0  0  0  0  0  0  0  0
    5.7524    0.6410    0.0000 C   0  0  1  0  0  0  0  0  0  0  0  0
    6.2524   -0.8978    0.0000 C   0  0  2  0  0  0  0  0  0  0  0  0
    5.4434   -0.3101    0.0000 C   0  0  0  0  0  0  0  0  0  0  0  0
    7.0614   -0.3101    0.0000 C   0  0  0  0  0  0  0  0  0  0  0  0
    7.3402    1.4500    0.0000 C   0  0  0  0  0  0  0  0  0  0  0  0
    8.3347    1.3455    0.0000 C   0  0  2  0  0  0  0  0  0  0  0  0
    5.1646    1.4500    0.0000 C   0  0  0  0  0  0  0  0  0  0  0  0
    8.7414    0.4319    0.0000 C   0  0  0  0  0  0  0  0  0  0  0  0
    5.3864   -2.3978    0.0000 C   0  0  0  0  0  0  0  0  0  0  0  0
    9.7360    0.3274    0.0000 C   0  0  0  0  0  0  0  0  0  0  0  0
    8.1537   -0.3771    0.0000 C   0  0  0  0  0  0  0  0  0  0  0  0
    3.5823    2.1545    0.0000 C   0  0  1  0  0  0  0  0  0  0  0  0
    5.3864   -3.3978    0.0000 C   0  0  0  0  0  0  0  0  0  0  0  0
    3.9890    3.0680    0.0000 C   0  0  0  0  0  0  0  0  0  0  0  0
    9.9170    2.0500    0.0000 C   0  0  0  0  0  0  0  0  0  0  0  0
    2.5878    2.0500    0.0000 C   0  0  0  0  0  0  0  0  0  0  0  0
   10.5048    2.8590    0.0000 C   0  0  0  0  0  0  0  0  0  0  0  0
    3.4013    3.8771    0.0000 C   0  0  0  0  0  0  0  0  0  0  0  0
    6.2524   -3.8978    0.0000 C   0  0  0  0  0  0  0  0  0  0  0  0
    4.5204   -3.8978    0.0000 C   0  0  0  0  0  0  0  0  0  0  0  0
   11.5048    2.8590    0.0000 C   0  0  0  0  0  0  0  0  0  0  0  0
   10.1958    3.8100    0.0000 C   0  0  0  0  0  0  0  0  0  0  0  0
    6.2524   -4.8978    0.0000 C   0  0  0  0  0  0  0  0  0  0  0  0
    4.5204   -4.8978    0.0000 C   0  0  0  0  0  0  0  0  0  0  0  0
   11.0048    4.3978    0.0000 C   0  0  0  0  0  0  0  0  0  0  0  0
    5.3864   -5.3978    0.0000 C   0  0  0  0  0  0  0  0  0  0  0  0
   12.0926    2.0500    0.0000 C   0  0  0  0  0  0  0  0  0  0  0  0
   11.0048    5.3978    0.0000 C   0  0  0  0  0  0  0  0  0  0  0  0
    6.0339    1.1934    0.0000 H   0  0  0  0  0  0  0  0  0  0  0  0
    5.7000   -1.1793    0.0000 H   0  0  0  0  0  0  0  0  0  0  0  0
    4.8770   -0.0579    0.0000 H   0  0  0  0  0  0  0  0  0  0  0  0
    5.1334   -0.8470    0.0000 H   0  0  0  0  0  0  0  0  0  0  0  0
    7.3714   -0.8470    0.0000 H   0  0  0  0  0  0  0  0  0  0  0  0
    7.6278   -0.0579    0.0000 H   0  0  0  0  0  0  0  0  0  0  0  0
    8.0825    1.9119    0.0000 H   0  0  0  0  0  0  0  0  0  0  0  0
    9.1059    0.9335    0.0000 H   0  0  0  0  0  0  0  0  0  0  0  0
    3.9179    0.7791    0.0000 H   0  0  0  0  0  0  0  0  0  0  0  0
    8.6703    2.7209    0.0000 H   0  0  0  0  0  0  0  0  0  0  0  0
    5.1743   -1.8152    0.0000 H   0  0  0  0  0  0  0  0  0  0  0  0
    4.7758   -2.5055    0.0000 H   0  0  0  0  0  0  0  0  0  0  0  0
    9.6712   -0.2892    0.0000 H   0  0  0  0  0  0  0  0  0  0  0  0
   10.3526    0.2626    0.0000 H   0  0  0  0  0  0  0  0  0  0  0  0
    9.8008    0.9440    0.0000 H   0  0  0  0  0  0  0  0  0  0  0  0
    7.6521   -0.0126    0.0000 H   0  0  0  0  0  0  0  0  0  0  0  0
    7.7892   -0.8787    0.0000 H   0  0  0  0  0  0  0  0  0  0  0  0
    8.6552   -0.7415    0.0000 H   0  0  0  0  0  0  0  0  0  0  0  0
    3.3301    1.5881    0.0000 H   0  0  0  0  0  0  0  0  0  0  0  0
    4.5030    2.7214    0.0000 H   0  0  0  0  0  0  0  0  0  0  0  0
    4.4197    3.5140    0.0000 H   0  0  0  0  0  0  0  0  0  0  0  0
    2.3356    1.4836    0.0000 H   0  0  0  0  0  0  0  0  0  0  0  0
    3.9028    4.2415    0.0000 H   0  0  0  0  0  0  0  0  0  0  0  0
    3.0368    4.3787    0.0000 H   0  0  0  0  0  0  0  0  0  0  0  0
    2.8997    3.5126    0.0000 H   0  0  0  0  0  0  0  0  0  0  0  0
    6.7893   -3.5878    0.0000 H   0  0  0  0  0  0  0  0  0  0  0  0
    3.9834   -3.5878    0.0000 H   0  0  0  0  0  0  0  0  0  0  0  0
    9.6061    4.0016    0.0000 H   0  0  0  0  0  0  0  0  0  0  0  0
    6.7893   -5.2078    0.0000 H   0  0  0  0  0  0  0  0  0  0  0  0
    3.9834   -5.2078    0.0000 H   0  0  0  0  0  0  0  0  0  0  0  0
    5.3864   -6.0178    0.0000 H   0  0  0  0  0  0  0  0  0  0  0  0
   11.5910    1.6856    0.0000 H   0  0  0  0  0  0  0  0  0  0  0  0
   12.4570    1.5484    0.0000 H   0  0  0  0  0  0  0  0  0  0  0  0
   12.5942    2.4144    0.0000 H   0  0  0  0  0  0  0  0  0  0  0  0
   11.6248    5.3978    0.0000 H   0  0  0  0  0  0  0  0  0  0  0  0
   11.0048    6.0178    0.0000 H   0  0  0  0  0  0  0  0  0  0  0  0
   10.3848    5.3978    0.0000 H   0  0  0  0  0  0  0  0  0  0  0  0
 11  1  1  6  0  0  0
  1 18  1  0  0  0  0
  2 14  2  0  0  0  0
  3 16  2  0  0  0  0
  4 24  2  0  0  0  0
  5 30  1  0  0  0  0
  5 34  1  0  0  0  0
  6 25  2  0  0  0  0
  7 10  1  0  0  0  0
  7 13  1  0  0  0  0
  7 14  1  0  0  0  0
  8 16  1  0  0  0  0
 21  8  1  6  0  0  0
  8 46  1  0  0  0  0
 15  9  1  1  0  0  0
  9 24  1  0  0  0  0
  9 47  1  0  0  0  0
 10 12  1  0  0  0  0
 10 16  1  1  0  0  0
 10 38  1  0  0  0  0
 11 12  1  0  0  0  0
 11 13  1  0  0  0  0
 11 39  1  0  0  0  0
 12 40  1  0  0  0  0
 12 41  1  0  0  0  0
 13 42  1  0  0  0  0
 13 43  1  0  0  0  0
 14 15  1  0  0  0  0
 15 17  1  0  0  0  0
 15 44  1  0  0  0  0
 17 19  1  0  0  0  0
 17 20  1  0  0  0  0
 17 45  1  0  0  0  0
 18 22  1  0  0  0  0
 18 48  1  0  0  0  0
 18 49  1  0  0  0  0
 19 50  1  0  0  0  0
 19 51  1  0  0  0  0
 19 52  1  0  0  0  0
 20 53  1  0  0  0  0
 20 54  1  0  0  0  0
 20 55  1  0  0  0  0
 21 23  1  0  0  0  0
 21 25  1  0  0  0  0
 21 56  1  0  0  0  0
 22 28  2  0  0  0  0
 22 29  1  0  0  0  0
 23 27  1  0  0  0  0
 23 57  1  0  0  0  0
 23 58  1  0  0  0  0
 24 26  1  0  0  0  0
 25 59  1  0  0  0  0
 26 30  2  0  0  0  0
 26 31  1  0  0  0  0
 27 60  1  0  0  0  0
 27 61  1  0  0  0  0
 27 62  1  0  0  0  0
 28 32  1  0  0  0  0
 28 63  1  0  0  0  0
 29 33  2  0  0  0  0
 29 64  1  0  0  0  0
 30 36  1  0  0  0  0
 31 34  2  0  0  0  0
 31 65  1  0  0  0  0
 32 35  2  0  0  0  0
 32 66  1  0  0  0  0
 33 35  1  0  0  0  0
 33 67  1  0  0  0  0
 34 37  1  0  0  0  0
 35 68  1  0  0  0  0
 36 69  1  0  0  0  0
 36 70  1  0  0  0  0
 36 71  1  0  0  0  0
 37 72  1  0  0  0  0
 37 73  1  0  0  0  0
 37 74  1  0  0  0  0
M  END
> <PUBCHEM_COMPOUND_CID>
506813
> <PUBCHEM_COMPOUND_CANONICALIZED>
1
> <PUBCHEM_CACTVS_COMPLEXITY>
799
> <PUBCHEM_CACTVS_HBOND_ACCEPTOR>
6
> <PUBCHEM_CACTVS_HBOND_DONOR>
2
> <PUBCHEM_CACTVS_ROTATABLE_BOND>
11
> <PUBCHEM_CACTVS_SUBSKEYS>
AAADcfB7OAAAAAAAAAAAAAAAAAAAAWJAAAAwAAAAAAAAAAABwAAAHgAQAAAADTzhmAYyBIPABECIAqlSkACCCAAkIAAIiIGODMgOZj6MtTuXOWjm9hGYqYe/wSAOAAAAAAAAAAAAAAAAAAAAAAAAAAAAAA==
> <PUBCHEM_IUPAC_OPENEYE_NAME>
(2S,4R)-4-benzyloxy-1-[(2S)-2-[(2,5-dimethylfuran-3-carbonyl)amino]-3-methyl-butanoyl]-N-[(1S)-1-formylpropyl]pyrrolidine-2-carboxamide
> <PUBCHEM_IUPAC_CAS_NAME>
(2S,4R)-1-[(2S)-2-[[(2,5-dimethyl-3-furanyl)-oxomethyl]amino]-3-methyl-1-oxobutyl]-N-[(2S)-1-oxobutan-2-yl]-4-phenylmethoxy-2-pyrrolidinecarboxamide
> <PUBCHEM_IUPAC_NAME_MARKUP>
(2<I>S</I>,4<I>R</I>)-1-[(2<I>S</I>)-2-[(2,5-dimethylfuran-3-carbonyl)amino]-3-methylbutanoyl]-<I>N</I>-[(2<I>S</I>)-1-oxobutan-2-yl]-4-phenylmethoxypyrrolidine-2-carboxamide
> <PUBCHEM_IUPAC_NAME>
(2S,4R)-1-[(2S)-2-[(2,5-dimethylfuran-3-carbonyl)amino]-3-methylbutanoyl]-N-[(2S)-1-oxobutan-2-yl]-4-phenylmethoxypyrrolidine-2-carboxamide
> <PUBCHEM_IUPAC_SYSTEMATIC_NAME>
(2S,4R)-1-[(2S)-2-[(2,5-dimethylfuran-3-yl)carbonylamino]-3-methyl-butanoyl]-N-[(2S)-1-oxidanylidenebutan-2-yl]-4-phenylmethoxy-pyrrolidine-2-carboxamide
> <PUBCHEM_IUPAC_TRADITIONAL_NAME>
(2S,4R)-4-benzoxy-1-[(2S)-2-[(2,5-dimethyl-3-furoyl)amino]-3-methyl-butanoyl]-N-[(1S)-1-formylpropyl]pyrrolidine-2-carboxamide
> <PUBCHEM_IUPAC_INCHI>
InChI=1S/C28H37N3O6/c1-6-21(15-32)29-27(34)24-13-22(36-16-20-10-8-7-9-11-20)14-31(24)28(35)25(17(2)3)30-26(33)23-12-18(4)37-19(23)5/h7-12,15,17,21-22,24-25H,6,13-14,16H2,1-5H3,(H,29,34)(H,30,33)/t21-,22+,24-,25-/m0/s1
> <PUBCHEM_IUPAC_INCHIKEY>
RGDCRKPUMZOMRA-VRUIKYSZSA-N
> <PUBCHEM_XLOGP3_AA>
3.3
> <PUBCHEM_EXACT_MASS>
511.26823591
> <PUBCHEM_MOLECULAR_FORMULA>
C28H37N3O6
> <PUBCHEM_MOLECULAR_WEIGHT>
511.6
> <PUBCHEM_OPENEYE_CAN_SMILES>
CCC(C=O)NC(=O)C1CC(CN1C(=O)C(C(C)C)NC(=O)C2=C(OC(=C2)C)C)OCC3=CC=CC=C3
> <PUBCHEM_OPENEYE_ISO_SMILES>
CC[C@@H](C=O)NC(=O)[C@@H]1C[C@H](CN1C(=O)[C@H](C(C)C)NC(=O)C2=C(OC(=C2)C)C)OCC3=CC=CC=C3
> <PUBCHEM_CACTVS_TPSA>
118
> <PUBCHEM_MONOISOTOPIC_WEIGHT>
511.26823591
> <PUBCHEM_TOTAL_CHARGE>
0
> <PUBCHEM_HEAVY_ATOM_COUNT>
37
> <PUBCHEM_ATOM_DEF_STEREO_COUNT>
4
> <PUBCHEM_ATOM_UDEF_STEREO_COUNT>
0
> <PUBCHEM_BOND_DEF_STEREO_COUNT>
0
> <PUBCHEM_BOND_UDEF_STEREO_COUNT>
0
> <PUBCHEM_ISOTOPIC_ATOM_COUNT>
0
> <PUBCHEM_COMPONENT_COUNT>
1
> <PUBCHEM_CACTVS_TAUTO_COUNT>
-1
> <PUBCHEM_COORDINATE_TYPE>
1
5
255
> <PUBCHEM_BONDANNOTATIONS>
11  1  6
10  16  5
22  28  8
22  29  8
26  30  8
26  31  8
28  32  8
29  33  8
31  34  8
32  35  8
33  35  8
5  30  8
5  34  8
21  8  6
15  9  5
$$$$
