506898
  -OEChem-10302200282D
 85 87  0     1  0  0  0  0  0999 V2000
    5.5321   -1.0000    0.0000 O   0  0  0  0  0  0  0  0  0  0  0  0
    7.2641    2.0000    0.0000 O   0  0  0  0  0  0  0  0  0  0  0  0
    5.5321   -2.0000    0.0000 O   0  0  0  0  0  0  0  0  0  0  0  0
    5.5321    1.0000    0.0000 N   0  0  3  0  0  0  0  0  0  0  0  0
    6.3981    3.5000    0.0000 N   0  0  0  0  0  0  0  0  0  0  0  0
    7.2641   -2.0000    0.0000 N   0  0  0  0  0  0  0  0  0  0  0  0
    3.8000    2.0000    0.0000 C   0  0  2  0  0  0  0  0  0  0  0  0
    3.8000    1.0000    0.0000 C   0  0  1  0  0  0  0  0  0  0  0  0
    4.6660    2.5000    0.0000 C   0  0  0  0  0  0  0  0  0  0  0  0
    4.6660    0.5000    0.0000 C   0  0  0  0  0  0  0  0  0  0  0  0
    2.9061    2.5347    0.0000 C   0  0  0  0  0  0  0  0  0  0  0  0
    2.9061    0.4653    0.0000 C   0  0  0  0  0  0  0  0  0  0  0  0
    5.5321    2.0000    0.0000 C   0  0  1  0  0  0  0  0  0  0  0  0
    2.0000    2.0208    0.0000 C   0  0  0  0  0  0  0  0  0  0  0  0
    2.0000    0.9792    0.0000 C   0  0  0  0  0  0  0  0  0  0  0  0
    6.3981    0.5000    0.0000 C   0  0  0  0  0  0  0  0  0  0  0  0
    6.3981    2.5000    0.0000 C   0  0  0  0  0  0  0  0  0  0  0  0
    6.3981   -0.5000    0.0000 C   0  0  2  0  0  0  0  0  0  0  0  0
    7.2641   -1.0000    0.0000 C   0  0  2  0  0  0  0  0  0  0  0  0
    7.2641    4.0000    0.0000 C   0  0  0  0  0  0  0  0  0  0  0  0
    8.1301   -0.5000    0.0000 C   0  0  0  0  0  0  0  0  0  0  0  0
    8.1301    4.5000    0.0000 C   0  0  0  0  0  0  0  0  0  0  0  0
    6.7641    4.8660    0.0000 C   0  0  0  0  0  0  0  0  0  0  0  0
    7.7641    3.1340    0.0000 C   0  0  0  0  0  0  0  0  0  0  0  0
    8.9962   -1.0000    0.0000 C   0  0  0  0  0  0  0  0  0  0  0  0
    6.3981   -2.5000    0.0000 C   0  0  0  0  0  0  0  0  0  0  0  0
    6.3981   -3.5000    0.0000 C   0  0  0  0  0  0  0  0  0  0  0  0
    5.5321   -4.0000    0.0000 C   0  0  0  0  0  0  0  0  0  0  0  0
    9.8622   -0.5000    0.0000 C   0  0  0  0  0  0  0  0  0  0  0  0
    8.9962   -2.0000    0.0000 C   0  0  0  0  0  0  0  0  0  0  0  0
    4.6660   -4.5000    0.0000 C   0  0  0  0  0  0  0  0  0  0  0  0
    6.0321   -4.8660    0.0000 C   0  0  0  0  0  0  0  0  0  0  0  0
    5.0321   -3.1340    0.0000 C   0  0  0  0  0  0  0  0  0  0  0  0
   10.7282   -1.0000    0.0000 C   0  0  0  0  0  0  0  0  0  0  0  0
    9.8622   -2.5000    0.0000 C   0  0  0  0  0  0  0  0  0  0  0  0
   10.7282   -2.0000    0.0000 C   0  0  0  0  0  0  0  0  0  0  0  0
    3.8066    2.8500    0.0000 H   0  0  0  0  0  0  0  0  0  0  0  0
    3.8066    0.1500    0.0000 H   0  0  0  0  0  0  0  0  0  0  0  0
    5.0646    2.9750    0.0000 H   0  0  0  0  0  0  0  0  0  0  0  0
    4.2675    2.9750    0.0000 H   0  0  0  0  0  0  0  0  0  0  0  0
    4.2675    0.0251    0.0000 H   0  0  0  0  0  0  0  0  0  0  0  0
    5.0646    0.0251    0.0000 H   0  0  0  0  0  0  0  0  0  0  0  0
    3.3107    3.0044    0.0000 H   0  0  0  0  0  0  0  0  0  0  0  0
    2.5124    3.0137    0.0000 H   0  0  0  0  0  0  0  0  0  0  0  0
    2.5124   -0.0137    0.0000 H   0  0  0  0  0  0  0  0  0  0  0  0
    3.3107   -0.0044    0.0000 H   0  0  0  0  0  0  0  0  0  0  0  0
    6.0690    1.6900    0.0000 H   0  0  0  0  0  0  0  0  0  0  0  0
    1.7909    2.6045    0.0000 H   0  0  0  0  0  0  0  0  0  0  0  0
    1.3891    1.9147    0.0000 H   0  0  0  0  0  0  0  0  0  0  0  0
    1.3891    1.0853    0.0000 H   0  0  0  0  0  0  0  0  0  0  0  0
    1.7909    0.3955    0.0000 H   0  0  0  0  0  0  0  0  0  0  0  0
    7.0087    0.3923    0.0000 H   0  0  0  0  0  0  0  0  0  0  0  0
    6.6101    1.0826    0.0000 H   0  0  0  0  0  0  0  0  0  0  0  0
    6.3981   -1.1200    0.0000 H   0  0  0  0  0  0  0  0  0  0  0  0
    7.8010   -1.3100    0.0000 H   0  0  0  0  0  0  0  0  0  0  0  0
    5.8612    3.8100    0.0000 H   0  0  0  0  0  0  0  0  0  0  0  0
    8.5287   -0.0251    0.0000 H   0  0  0  0  0  0  0  0  0  0  0  0
    7.7316   -0.0251    0.0000 H   0  0  0  0  0  0  0  0  0  0  0  0
    4.9951   -0.6900    0.0000 H   0  0  0  0  0  0  0  0  0  0  0  0
    7.8010   -2.3100    0.0000 H   0  0  0  0  0  0  0  0  0  0  0  0
    8.4401    3.9631    0.0000 H   0  0  0  0  0  0  0  0  0  0  0  0
    8.6671    4.8100    0.0000 H   0  0  0  0  0  0  0  0  0  0  0  0
    7.8201    5.0369    0.0000 H   0  0  0  0  0  0  0  0  0  0  0  0
    7.3010    5.1760    0.0000 H   0  0  0  0  0  0  0  0  0  0  0  0
    6.4541    5.4030    0.0000 H   0  0  0  0  0  0  0  0  0  0  0  0
    6.2272    4.5560    0.0000 H   0  0  0  0  0  0  0  0  0  0  0  0
    7.2272    2.8240    0.0000 H   0  0  0  0  0  0  0  0  0  0  0  0
    8.0741    2.5970    0.0000 H   0  0  0  0  0  0  0  0  0  0  0  0
    8.3010    3.4440    0.0000 H   0  0  0  0  0  0  0  0  0  0  0  0
    6.6101   -4.0826    0.0000 H   0  0  0  0  0  0  0  0  0  0  0  0
    7.0087   -3.3923    0.0000 H   0  0  0  0  0  0  0  0  0  0  0  0
    9.8622    0.1200    0.0000 H   0  0  0  0  0  0  0  0  0  0  0  0
    8.4592   -2.3100    0.0000 H   0  0  0  0  0  0  0  0  0  0  0  0
    4.3560   -3.9631    0.0000 H   0  0  0  0  0  0  0  0  0  0  0  0
    4.1291   -4.8100    0.0000 H   0  0  0  0  0  0  0  0  0  0  0  0
    4.9760   -5.0369    0.0000 H   0  0  0  0  0  0  0  0  0  0  0  0
    5.4951   -5.1760    0.0000 H   0  0  0  0  0  0  0  0  0  0  0  0
    6.3421   -5.4030    0.0000 H   0  0  0  0  0  0  0  0  0  0  0  0
    6.5690   -4.5560    0.0000 H   0  0  0  0  0  0  0  0  0  0  0  0
    5.5690   -2.8240    0.0000 H   0  0  0  0  0  0  0  0  0  0  0  0
    4.7221   -2.5970    0.0000 H   0  0  0  0  0  0  0  0  0  0  0  0
    4.4951   -3.4440    0.0000 H   0  0  0  0  0  0  0  0  0  0  0  0
   11.2651   -0.6900    0.0000 H   0  0  0  0  0  0  0  0  0  0  0  0
    9.8622   -3.1200    0.0000 H   0  0  0  0  0  0  0  0  0  0  0  0
   11.2651   -2.3100    0.0000 H   0  0  0  0  0  0  0  0  0  0  0  0
 18  1  1  6  0  0  0
  1 59  1  0  0  0  0
  2 17  2  0  0  0  0
  3 26  2  0  0  0  0
  4 10  1  0  0  0  0
  4 13  1  0  0  0  0
  4 16  1  0  0  0  0
  5 17  1  0  0  0  0
  5 20  1  0  0  0  0
  5 56  1  0  0  0  0
 19  6  1  6  0  0  0
  6 26  1  0  0  0  0
  6 60  1  0  0  0  0
  7  8  1  0  0  0  0
  7  9  1  0  0  0  0
  7 11  1  0  0  0  0
  7 37  1  6  0  0  0
  8 10  1  0  0  0  0
  8 12  1  0  0  0  0
  8 38  1  6  0  0  0
  9 13  1  0  0  0  0
  9 39  1  0  0  0  0
  9 40  1  0  0  0  0
 10 41  1  0  0  0  0
 10 42  1  0  0  0  0
 11 14  1  0  0  0  0
 11 43  1  0  0  0  0
 11 44  1  0  0  0  0
 12 15  1  0  0  0  0
 12 45  1  0  0  0  0
 12 46  1  0  0  0  0
 13 17  1  1  0  0  0
 13 47  1  0  0  0  0
 14 15  1  0  0  0  0
 14 48  1  0  0  0  0
 14 49  1  0  0  0  0
 15 50  1  0  0  0  0
 15 51  1  0  0  0  0
 16 18  1  0  0  0  0
 16 52  1  0  0  0  0
 16 53  1  0  0  0  0
 18 19  1  0  0  0  0
 18 54  1  0  0  0  0
 19 21  1  0  0  0  0
 19 55  1  0  0  0  0
 20 22  1  0  0  0  0
 20 23  1  0  0  0  0
 20 24  1  0  0  0  0
 21 25  1  0  0  0  0
 21 57  1  0  0  0  0
 21 58  1  0  0  0  0
 22 61  1  0  0  0  0
 22 62  1  0  0  0  0
 22 63  1  0  0  0  0
 23 64  1  0  0  0  0
 23 65  1  0  0  0  0
 23 66  1  0  0  0  0
 24 67  1  0  0  0  0
 24 68  1  0  0  0  0
 24 69  1  0  0  0  0
 25 29  2  0  0  0  0
 25 30  1  0  0  0  0
 26 27  1  0  0  0  0
 27 28  1  0  0  0  0
 27 70  1  0  0  0  0
 27 71  1  0  0  0  0
 28 31  1  0  0  0  0
 28 32  1  0  0  0  0
 28 33  1  0  0  0  0
 29 34  1  0  0  0  0
 29 72  1  0  0  0  0
 30 35  2  0  0  0  0
 30 73  1  0  0  0  0
 31 74  1  0  0  0  0
 31 75  1  0  0  0  0
 31 76  1  0  0  0  0
 32 77  1  0  0  0  0
 32 78  1  0  0  0  0
 32 79  1  0  0  0  0
 33 80  1  0  0  0  0
 33 81  1  0  0  0  0
 33 82  1  0  0  0  0
 34 36  2  0  0  0  0
 34 83  1  0  0  0  0
 35 36  1  0  0  0  0
 35 84  1  0  0  0  0
 36 85  1  0  0  0  0
M  END
> <PUBCHEM_COMPOUND_CID>
506898
> <PUBCHEM_COMPOUND_CANONICALIZED>
1
> <PUBCHEM_CACTVS_COMPLEXITY>
720
> <PUBCHEM_CACTVS_HBOND_ACCEPTOR>
4
> <PUBCHEM_CACTVS_HBOND_DONOR>
3
> <PUBCHEM_CACTVS_ROTATABLE_BOND>
10
> <PUBCHEM_CACTVS_SUBSKEYS>
AAADcfB7MAAAAAAAAAAAAAAAAAAAAAAAAAA8YIAAAAAAAACxAAAAHgAQCAAAD7zhmAYyAIPAAgCIAiFSEAACAAAgAAAIiIGIAIgKcDKA0TGUYAAklgCYiAeYyKCPgAAAAAAAAAAAAAAAACAAAAAAAAAAAA==
> <PUBCHEM_IUPAC_OPENEYE_NAME>
(3S,4aS,8aS)-N-tert-butyl-2-[(2R,3S)-3-(3,3-dimethylbutanoylamino)-2-hydroxy-4-phenyl-butyl]-3,4,4a,5,6,7,8,8a-octahydro-1H-isoquinoline-3-carboxamide
> <PUBCHEM_IUPAC_CAS_NAME>
(3S,4aS,8aS)-N-tert-butyl-2-[(2R,3S)-3-[(3,3-dimethyl-1-oxobutyl)amino]-2-hydroxy-4-phenylbutyl]-3,4,4a,5,6,7,8,8a-octahydro-1H-isoquinoline-3-carboxamide
> <PUBCHEM_IUPAC_NAME_MARKUP>
(3<I>S</I>,4<I>a</I><I>S</I>,8<I>a</I><I>S</I>)-<I>N</I>-<I>tert</I>-butyl-2-[(2<I>R</I>,3<I>S</I>)-3-(3,3-dimethylbutanoylamino)-2-hydroxy-4-phenylbutyl]-3,4,4<I>a</I>,5,6,7,8,8<I>a</I>-octahydro-1<I>H</I>-isoquinoline-3-carboxamide
> <PUBCHEM_IUPAC_NAME>
(3S,4aS,8aS)-N-tert-butyl-2-[(2R,3S)-3-(3,3-dimethylbutanoylamino)-2-hydroxy-4-phenylbutyl]-3,4,4a,5,6,7,8,8a-octahydro-1H-isoquinoline-3-carboxamide
> <PUBCHEM_IUPAC_SYSTEMATIC_NAME>
(3S,4aS,8aS)-N-tert-butyl-2-[(2R,3S)-3-(3,3-dimethylbutanoylamino)-2-oxidanyl-4-phenyl-butyl]-3,4,4a,5,6,7,8,8a-octahydro-1H-isoquinoline-3-carboxamide
> <PUBCHEM_IUPAC_TRADITIONAL_NAME>
(3S,4aS,8aS)-N-tert-butyl-2-[(2R,3S)-3-(3,3-dimethylbutanoylamino)-2-hydroxy-4-phenyl-butyl]-3,4,4a,5,6,7,8,8a-octahydro-1H-isoquinoline-3-carboxamide
> <PUBCHEM_IUPAC_INCHI>
InChI=1S/C30H49N3O3/c1-29(2,3)18-27(35)31-24(16-21-12-8-7-9-13-21)26(34)20-33-19-23-15-11-10-14-22(23)17-25(33)28(36)32-30(4,5)6/h7-9,12-13,22-26,34H,10-11,14-20H2,1-6H3,(H,31,35)(H,32,36)/t22-,23+,24-,25-,26+/m0/s1
> <PUBCHEM_IUPAC_INCHIKEY>
LKLBPSCTEJHZLA-QJJBCJIQSA-N
> <PUBCHEM_XLOGP3_AA>
5.4
> <PUBCHEM_EXACT_MASS>
499.37739243
> <PUBCHEM_MOLECULAR_FORMULA>
C30H49N3O3
> <PUBCHEM_MOLECULAR_WEIGHT>
499.7
> <PUBCHEM_OPENEYE_CAN_SMILES>
CC(C)(C)CC(=O)NC(CC1=CC=CC=C1)C(CN2CC3CCCCC3CC2C(=O)NC(C)(C)C)O
> <PUBCHEM_OPENEYE_ISO_SMILES>
CC(C)(C)CC(=O)N[C@@H](CC1=CC=CC=C1)[C@@H](CN2C[C@H]3CCCC[C@H]3C[C@H]2C(=O)NC(C)(C)C)O
> <PUBCHEM_CACTVS_TPSA>
81.7
> <PUBCHEM_MONOISOTOPIC_WEIGHT>
499.37739243
> <PUBCHEM_TOTAL_CHARGE>
0
> <PUBCHEM_HEAVY_ATOM_COUNT>
36
> <PUBCHEM_ATOM_DEF_STEREO_COUNT>
5
> <PUBCHEM_ATOM_UDEF_STEREO_COUNT>
0
> <PUBCHEM_BOND_DEF_STEREO_COUNT>
0
> <PUBCHEM_BOND_UDEF_STEREO_COUNT>
0
> <PUBCHEM_ISOTOPIC_ATOM_COUNT>
0
> <PUBCHEM_COMPONENT_COUNT>
1
> <PUBCHEM_CACTVS_TAUTO_COUNT>
-1
> <PUBCHEM_COORDINATE_TYPE>
1
5
255
> <PUBCHEM_BONDANNOTATIONS>
18  1  6
13  17  5
25  29  8
25  30  8
29  34  8
30  35  8
34  36  8
35  36  8
19  6  6
7  37  6
8  38  6
$$$$
