506900
  -OEChem-10302200282D
105108  0     1  0  0  0  0  0999 V2000
    4.6660   -2.6830    0.0000 S   0  0  0  0  0  0  0  0  0  0  0  0
    5.5321    0.8170    0.0000 O   0  0  0  0  0  0  0  0  0  0  0  0
    7.2641    3.8170    0.0000 O   0  0  0  0  0  0  0  0  0  0  0  0
    5.5321   -0.1830    0.0000 O   0  0  0  0  0  0  0  0  0  0  0  0
    5.1660   -3.5490    0.0000 O   0  0  0  0  0  0  0  0  0  0  0  0
    4.1660   -1.8170    0.0000 O   0  0  0  0  0  0  0  0  0  0  0  0
    6.3981   -3.6830    0.0000 O   0  0  0  0  0  0  0  0  0  0  0  0
    8.1301   -4.6830    0.0000 O   0  0  0  0  0  0  0  0  0  0  0  0
    5.5321    2.8170    0.0000 N   0  0  3  0  0  0  0  0  0  0  0  0
    6.3981    5.3170    0.0000 N   0  0  0  0  0  0  0  0  0  0  0  0
    7.2641   -0.1830    0.0000 N   0  0  0  0  0  0  0  0  0  0  0  0
    7.2641   -2.1830    0.0000 N   0  0  0  0  0  0  0  0  0  0  0  0
   10.7282   -5.1830    0.0000 N   0  0  0  0  0  0  0  0  0  0  0  0
    3.8000    3.8170    0.0000 C   0  0  2  0  0  0  0  0  0  0  0  0
    3.8000    2.8170    0.0000 C   0  0  1  0  0  0  0  0  0  0  0  0
    4.6660    4.3170    0.0000 C   0  0  0  0  0  0  0  0  0  0  0  0
    4.6660    2.3170    0.0000 C   0  0  0  0  0  0  0  0  0  0  0  0
    2.9061    4.3516    0.0000 C   0  0  0  0  0  0  0  0  0  0  0  0
    2.9061    2.2823    0.0000 C   0  0  0  0  0  0  0  0  0  0  0  0
    5.5321    3.8170    0.0000 C   0  0  1  0  0  0  0  0  0  0  0  0
    2.0000    3.8378    0.0000 C   0  0  0  0  0  0  0  0  0  0  0  0
    2.0000    2.7962    0.0000 C   0  0  0  0  0  0  0  0  0  0  0  0
    6.3981    2.3170    0.0000 C   0  0  0  0  0  0  0  0  0  0  0  0
    6.3981    4.3170    0.0000 C   0  0  0  0  0  0  0  0  0  0  0  0
    6.3981    1.3170    0.0000 C   0  0  2  0  0  0  0  0  0  0  0  0
    7.2641    0.8170    0.0000 C   0  0  2  0  0  0  0  0  0  0  0  0
    7.2641    5.8170    0.0000 C   0  0  0  0  0  0  0  0  0  0  0  0
    8.1301    1.3170    0.0000 C   0  0  0  0  0  0  0  0  0  0  0  0
    8.1301    6.3170    0.0000 C   0  0  0  0  0  0  0  0  0  0  0  0
    6.7641    6.6830    0.0000 C   0  0  0  0  0  0  0  0  0  0  0  0
    7.7641    4.9510    0.0000 C   0  0  0  0  0  0  0  0  0  0  0  0
    6.3981   -0.6830    0.0000 C   0  0  0  0  0  0  0  0  0  0  0  0
    6.3981   -1.6830    0.0000 C   0  0  2  0  0  0  0  0  0  0  0  0
    8.9962    0.8170    0.0000 C   0  0  0  0  0  0  0  0  0  0  0  0
    5.5321   -2.1830    0.0000 C   0  0  0  0  0  0  0  0  0  0  0  0
    6.0321   -3.0490    0.0000 C   0  0  0  0  0  0  0  0  0  0  0  0
    5.0321   -1.3170    0.0000 C   0  0  0  0  0  0  0  0  0  0  0  0
    9.8622    1.3170    0.0000 C   0  0  0  0  0  0  0  0  0  0  0  0
    8.9962   -0.1830    0.0000 C   0  0  0  0  0  0  0  0  0  0  0  0
    3.8000   -3.1830    0.0000 C   0  0  0  0  0  0  0  0  0  0  0  0
   10.7282    0.8170    0.0000 C   0  0  0  0  0  0  0  0  0  0  0  0
    9.8622   -0.6830    0.0000 C   0  0  0  0  0  0  0  0  0  0  0  0
    7.2641   -3.1830    0.0000 C   0  0  0  0  0  0  0  0  0  0  0  0
   10.7282   -0.1830    0.0000 C   0  0  0  0  0  0  0  0  0  0  0  0
    8.1301   -3.6830    0.0000 C   0  0  0  0  0  0  0  0  0  0  0  0
    8.9962   -5.1830    0.0000 C   0  0  0  0  0  0  0  0  0  0  0  0
    8.9962   -6.1830    0.0000 C   0  0  0  0  0  0  0  0  0  0  0  0
    9.8622   -4.6830    0.0000 C   0  0  0  0  0  0  0  0  0  0  0  0
    9.8622   -6.6830    0.0000 C   0  0  0  0  0  0  0  0  0  0  0  0
   10.7282   -6.1830    0.0000 C   0  0  0  0  0  0  0  0  0  0  0  0
    3.8066    4.6670    0.0000 H   0  0  0  0  0  0  0  0  0  0  0  0
    3.8066    1.9670    0.0000 H   0  0  0  0  0  0  0  0  0  0  0  0
    5.0646    4.7919    0.0000 H   0  0  0  0  0  0  0  0  0  0  0  0
    4.2675    4.7919    0.0000 H   0  0  0  0  0  0  0  0  0  0  0  0
    4.2675    1.8420    0.0000 H   0  0  0  0  0  0  0  0  0  0  0  0
    5.0646    1.8420    0.0000 H   0  0  0  0  0  0  0  0  0  0  0  0
    3.3107    4.8214    0.0000 H   0  0  0  0  0  0  0  0  0  0  0  0
    2.5124    4.8307    0.0000 H   0  0  0  0  0  0  0  0  0  0  0  0
    2.5124    1.8033    0.0000 H   0  0  0  0  0  0  0  0  0  0  0  0
    3.3107    1.8125    0.0000 H   0  0  0  0  0  0  0  0  0  0  0  0
    6.0690    3.5070    0.0000 H   0  0  0  0  0  0  0  0  0  0  0  0
    1.7909    4.4215    0.0000 H   0  0  0  0  0  0  0  0  0  0  0  0
    1.3891    3.7317    0.0000 H   0  0  0  0  0  0  0  0  0  0  0  0
    1.3891    2.9023    0.0000 H   0  0  0  0  0  0  0  0  0  0  0  0
    1.7909    2.2125    0.0000 H   0  0  0  0  0  0  0  0  0  0  0  0
    7.0087    2.2093    0.0000 H   0  0  0  0  0  0  0  0  0  0  0  0
    6.6101    2.8996    0.0000 H   0  0  0  0  0  0  0  0  0  0  0  0
    6.3981    0.6970    0.0000 H   0  0  0  0  0  0  0  0  0  0  0  0
    7.8010    0.5070    0.0000 H   0  0  0  0  0  0  0  0  0  0  0  0
    5.8612    5.6270    0.0000 H   0  0  0  0  0  0  0  0  0  0  0  0
    8.5287    1.7919    0.0000 H   0  0  0  0  0  0  0  0  0  0  0  0
    7.7316    1.7919    0.0000 H   0  0  0  0  0  0  0  0  0  0  0  0
    4.9951    1.1270    0.0000 H   0  0  0  0  0  0  0  0  0  0  0  0
    7.8010   -0.4930    0.0000 H   0  0  0  0  0  0  0  0  0  0  0  0
    8.4401    5.7800    0.0000 H   0  0  0  0  0  0  0  0  0  0  0  0
    8.6671    6.6270    0.0000 H   0  0  0  0  0  0  0  0  0  0  0  0
    7.8201    6.8539    0.0000 H   0  0  0  0  0  0  0  0  0  0  0  0
    7.3010    6.9930    0.0000 H   0  0  0  0  0  0  0  0  0  0  0  0
    6.4541    7.2200    0.0000 H   0  0  0  0  0  0  0  0  0  0  0  0
    6.2272    6.3730    0.0000 H   0  0  0  0  0  0  0  0  0  0  0  0
    7.2272    4.6410    0.0000 H   0  0  0  0  0  0  0  0  0  0  0  0
    8.0741    4.4140    0.0000 H   0  0  0  0  0  0  0  0  0  0  0  0
    8.3010    5.2610    0.0000 H   0  0  0  0  0  0  0  0  0  0  0  0
    6.3981   -2.3030    0.0000 H   0  0  0  0  0  0  0  0  0  0  0  0
    5.4951   -3.3590    0.0000 H   0  0  0  0  0  0  0  0  0  0  0  0
    6.3421   -3.5860    0.0000 H   0  0  0  0  0  0  0  0  0  0  0  0
    6.5690   -2.7390    0.0000 H   0  0  0  0  0  0  0  0  0  0  0  0
    5.5690   -1.0070    0.0000 H   0  0  0  0  0  0  0  0  0  0  0  0
    4.7221   -0.7801    0.0000 H   0  0  0  0  0  0  0  0  0  0  0  0
    4.4951   -1.6270    0.0000 H   0  0  0  0  0  0  0  0  0  0  0  0
    7.8010   -1.8730    0.0000 H   0  0  0  0  0  0  0  0  0  0  0  0
    9.8622    1.9370    0.0000 H   0  0  0  0  0  0  0  0  0  0  0  0
    8.4592   -0.4930    0.0000 H   0  0  0  0  0  0  0  0  0  0  0  0
    3.4900   -2.6461    0.0000 H   0  0  0  0  0  0  0  0  0  0  0  0
    3.2631   -3.4930    0.0000 H   0  0  0  0  0  0  0  0  0  0  0  0
    4.1100   -3.7200    0.0000 H   0  0  0  0  0  0  0  0  0  0  0  0
   11.2651    1.1270    0.0000 H   0  0  0  0  0  0  0  0  0  0  0  0
    9.8622   -1.3030    0.0000 H   0  0  0  0  0  0  0  0  0  0  0  0
   11.2651   -0.4930    0.0000 H   0  0  0  0  0  0  0  0  0  0  0  0
    8.7407   -3.7907    0.0000 H   0  0  0  0  0  0  0  0  0  0  0  0
    8.3422   -3.1004    0.0000 H   0  0  0  0  0  0  0  0  0  0  0  0
    8.4592   -6.4930    0.0000 H   0  0  0  0  0  0  0  0  0  0  0  0
    9.8622   -4.0630    0.0000 H   0  0  0  0  0  0  0  0  0  0  0  0
    9.8622   -7.3030    0.0000 H   0  0  0  0  0  0  0  0  0  0  0  0
   11.2651   -6.4930    0.0000 H   0  0  0  0  0  0  0  0  0  0  0  0
  1  5  2  0  0  0  0
  1  6  2  0  0  0  0
  1 35  1  0  0  0  0
  1 40  1  0  0  0  0
 25  2  1  6  0  0  0
  2 73  1  0  0  0  0
  3 24  2  0  0  0  0
  4 32  2  0  0  0  0
  7 43  2  0  0  0  0
  8 45  1  0  0  0  0
  8 46  1  0  0  0  0
  9 17  1  0  0  0  0
  9 20  1  0  0  0  0
  9 23  1  0  0  0  0
 10 24  1  0  0  0  0
 10 27  1  0  0  0  0
 10 70  1  0  0  0  0
 26 11  1  6  0  0  0
 11 32  1  0  0  0  0
 11 74  1  0  0  0  0
 33 12  1  1  0  0  0
 12 43  1  0  0  0  0
 12 91  1  0  0  0  0
 13 48  1  0  0  0  0
 13 50  2  0  0  0  0
 14 15  1  0  0  0  0
 14 16  1  0  0  0  0
 14 18  1  0  0  0  0
 14 51  1  6  0  0  0
 15 17  1  0  0  0  0
 15 19  1  0  0  0  0
 15 52  1  6  0  0  0
 16 20  1  0  0  0  0
 16 53  1  0  0  0  0
 16 54  1  0  0  0  0
 17 55  1  0  0  0  0
 17 56  1  0  0  0  0
 18 21  1  0  0  0  0
 18 57  1  0  0  0  0
 18 58  1  0  0  0  0
 19 22  1  0  0  0  0
 19 59  1  0  0  0  0
 19 60  1  0  0  0  0
 20 24  1  1  0  0  0
 20 61  1  0  0  0  0
 21 22  1  0  0  0  0
 21 62  1  0  0  0  0
 21 63  1  0  0  0  0
 22 64  1  0  0  0  0
 22 65  1  0  0  0  0
 23 25  1  0  0  0  0
 23 66  1  0  0  0  0
 23 67  1  0  0  0  0
 25 26  1  0  0  0  0
 25 68  1  0  0  0  0
 26 28  1  0  0  0  0
 26 69  1  0  0  0  0
 27 29  1  0  0  0  0
 27 30  1  0  0  0  0
 27 31  1  0  0  0  0
 28 34  1  0  0  0  0
 28 71  1  0  0  0  0
 28 72  1  0  0  0  0
 29 75  1  0  0  0  0
 29 76  1  0  0  0  0
 29 77  1  0  0  0  0
 30 78  1  0  0  0  0
 30 79  1  0  0  0  0
 30 80  1  0  0  0  0
 31 81  1  0  0  0  0
 31 82  1  0  0  0  0
 31 83  1  0  0  0  0
 32 33  1  0  0  0  0
 33 35  1  0  0  0  0
 33 84  1  0  0  0  0
 34 38  2  0  0  0  0
 34 39  1  0  0  0  0
 35 36  1  0  0  0  0
 35 37  1  0  0  0  0
 36 85  1  0  0  0  0
 36 86  1  0  0  0  0
 36 87  1  0  0  0  0
 37 88  1  0  0  0  0
 37 89  1  0  0  0  0
 37 90  1  0  0  0  0
 38 41  1  0  0  0  0
 38 92  1  0  0  0  0
 39 42  2  0  0  0  0
 39 93  1  0  0  0  0
 40 94  1  0  0  0  0
 40 95  1  0  0  0  0
 40 96  1  0  0  0  0
 41 44  2  0  0  0  0
 41 97  1  0  0  0  0
 42 44  1  0  0  0  0
 42 98  1  0  0  0  0
 43 45  1  0  0  0  0
 44 99  1  0  0  0  0
 45100  1  0  0  0  0
 45101  1  0  0  0  0
 46 47  1  0  0  0  0
 46 48  2  0  0  0  0
 47 49  2  0  0  0  0
 47102  1  0  0  0  0
 48103  1  0  0  0  0
 49 50  1  0  0  0  0
 49104  1  0  0  0  0
 50105  1  0  0  0  0
M  END
> <PUBCHEM_COMPOUND_CID>
506900
> <PUBCHEM_COMPOUND_CANONICALIZED>
1
> <PUBCHEM_CACTVS_COMPLEXITY>
1240
> <PUBCHEM_CACTVS_HBOND_ACCEPTOR>
9
> <PUBCHEM_CACTVS_HBOND_DONOR>
4
> <PUBCHEM_CACTVS_ROTATABLE_BOND>
15
> <PUBCHEM_CACTVS_SUBSKEYS>
AAADcfB/uABAAAAAAAAAAAAAAAAAAAAAAAA8eIEAAAAAAACxwAAAHgQQCAAADbzh2ga+hpPIFgqoAjF3VHbCiCAxYjAI2KH/bJgOdvLk8b+XeCjk1hHY6Ae4yKCOgAAAAAAAAAAAAAAAACAAAAAAAAAAAA==
> <PUBCHEM_IUPAC_OPENEYE_NAME>
(3S,4aS,8aS)-N-tert-butyl-2-[(2R,3S)-2-hydroxy-3-[[(2R)-3-methyl-3-methylsulfonyl-2-[[2-(3-pyridyloxy)acetyl]amino]butanoyl]amino]-4-phenyl-butyl]-3,4,4a,5,6,7,8,8a-octahydro-1H-isoquinoline-3-carboxamide
> <PUBCHEM_IUPAC_CAS_NAME>
(3S,4aS,8aS)-N-tert-butyl-2-[(2R,3S)-2-hydroxy-3-[[(2R)-3-methyl-3-methylsulfonyl-1-oxo-2-[[1-oxo-2-(3-pyridinyloxy)ethyl]amino]butyl]amino]-4-phenylbutyl]-3,4,4a,5,6,7,8,8a-octahydro-1H-isoquinoline-3-carboxamide
> <PUBCHEM_IUPAC_NAME_MARKUP>
(3<I>S</I>,4<I>a</I><I>S</I>,8<I>a</I><I>S</I>)-<I>N</I>-<I>tert</I>-butyl-2-[(2<I>R</I>,3<I>S</I>)-2-hydroxy-3-[[(2<I>R</I>)-3-methyl-3-methylsulfonyl-2-[(2-pyridin-3-yloxyacetyl)amino]butanoyl]amino]-4-phenylbutyl]-3,4,4<I>a</I>,5,6,7,8,8<I>a</I>-octahydro-1<I>H</I>-isoquinoline-3-carboxamide
> <PUBCHEM_IUPAC_NAME>
(3S,4aS,8aS)-N-tert-butyl-2-[(2R,3S)-2-hydroxy-3-[[(2R)-3-methyl-3-methylsulfonyl-2-[(2-pyridin-3-yloxyacetyl)amino]butanoyl]amino]-4-phenylbutyl]-3,4,4a,5,6,7,8,8a-octahydro-1H-isoquinoline-3-carboxamide
> <PUBCHEM_IUPAC_SYSTEMATIC_NAME>
(3S,4aS,8aS)-N-tert-butyl-2-[(2R,3S)-3-[[(2R)-3-methyl-3-methylsulfonyl-2-(2-pyridin-3-yloxyethanoylamino)butanoyl]amino]-2-oxidanyl-4-phenyl-butyl]-3,4,4a,5,6,7,8,8a-octahydro-1H-isoquinoline-3-carboxamide
> <PUBCHEM_IUPAC_TRADITIONAL_NAME>
(3S,4aS,8aS)-N-tert-butyl-2-[(2R,3S)-2-hydroxy-3-[[(2R)-3-mesyl-3-methyl-2-[[2-(3-pyridyloxy)acetyl]amino]butanoyl]amino]-4-phenyl-butyl]-3,4,4a,5,6,7,8,8a-octahydro-1H-isoquinoline-3-carboxamide
> <PUBCHEM_IUPAC_INCHI>
InChI=1S/C37H55N5O7S/c1-36(2,3)41-34(45)30-20-26-15-10-11-16-27(26)22-42(30)23-31(43)29(19-25-13-8-7-9-14-25)39-35(46)33(37(4,5)50(6,47)48)40-32(44)24-49-28-17-12-18-38-21-28/h7-9,12-14,17-18,21,26-27,29-31,33,43H,10-11,15-16,19-20,22-24H2,1-6H3,(H,39,46)(H,40,44)(H,41,45)/t26-,27+,29-,30-,31+,33+/m0/s1
> <PUBCHEM_IUPAC_INCHIKEY>
QRBIFAKBTSNLCS-ZTFBILFISA-N
> <PUBCHEM_XLOGP3_AA>
3.7
> <PUBCHEM_EXACT_MASS>
713.38222028
> <PUBCHEM_MOLECULAR_FORMULA>
C37H55N5O7S
> <PUBCHEM_MOLECULAR_WEIGHT>
713.9
> <PUBCHEM_OPENEYE_CAN_SMILES>
CC(C)(C)NC(=O)C1CC2CCCCC2CN1CC(C(CC3=CC=CC=C3)NC(=O)C(C(C)(C)S(=O)(=O)C)NC(=O)COC4=CN=CC=C4)O
> <PUBCHEM_OPENEYE_ISO_SMILES>
CC(C)(C)NC(=O)[C@@H]1C[C@@H]2CCCC[C@@H]2CN1C[C@H]([C@H](CC3=CC=CC=C3)NC(=O)[C@H](C(C)(C)S(=O)(=O)C)NC(=O)COC4=CN=CC=C4)O
> <PUBCHEM_CACTVS_TPSA>
175
> <PUBCHEM_MONOISOTOPIC_WEIGHT>
713.38222028
> <PUBCHEM_TOTAL_CHARGE>
0
> <PUBCHEM_HEAVY_ATOM_COUNT>
50
> <PUBCHEM_ATOM_DEF_STEREO_COUNT>
6
> <PUBCHEM_ATOM_UDEF_STEREO_COUNT>
0
> <PUBCHEM_BOND_DEF_STEREO_COUNT>
0
> <PUBCHEM_BOND_UDEF_STEREO_COUNT>
0
> <PUBCHEM_ISOTOPIC_ATOM_COUNT>
0
> <PUBCHEM_COMPONENT_COUNT>
1
> <PUBCHEM_CACTVS_TAUTO_COUNT>
-1
> <PUBCHEM_COORDINATE_TYPE>
1
5
255
> <PUBCHEM_BONDANNOTATIONS>
26  11  6
33  12  5
13  48  8
13  50  8
14  51  6
15  52  6
25  2  6
20  24  5
34  38  8
34  39  8
38  41  8
39  42  8
41  44  8
42  44  8
46  47  8
46  48  8
47  49  8
49  50  8
$$$$
