507042
  -OEChem-10302200282D
 66 68  0     1  0  0  0  0  0999 V2000
   11.3081   -0.5018    0.0000 O   0  0  0  0  0  0  0  0  0  0  0  0
    7.5609   -1.9125    0.0000 O   0  0  0  0  0  0  0  0  0  0  0  0
   11.6303    1.4627    0.0000 O   0  0  0  0  0  0  0  0  0  0  0  0
    3.9887   -2.4017    0.0000 O   0  0  0  0  0  0  0  0  0  0  0  0
    4.1727   -0.6795    0.0000 O   0  0  0  0  0  0  0  0  0  0  0  0
    7.7449   -0.1902    0.0000 N   0  0  0  0  0  0  0  0  0  0  0  0
   10.0480    0.7582    0.0000 N   0  0  0  0  0  0  0  0  0  0  0  0
    5.5722   -1.7000    0.0000 N   0  0  0  0  0  0  0  0  0  0  0  0
    9.5480   -0.7806    0.0000 C   0  0  0  0  0  0  0  0  0  0  0  0
    8.7390   -0.1928    0.0000 C   0  0  2  0  0  0  0  0  0  0  0  0
    9.0480    0.7582    0.0000 C   0  0  2  0  0  0  0  0  0  0  0  0
   10.2551   -1.4877    0.0000 C   0  0  0  0  0  0  0  0  0  0  0  0
    8.8409   -1.4877    0.0000 C   0  0  0  0  0  0  0  0  0  0  0  0
    9.5480   -2.1948    0.0000 C   0  0  0  0  0  0  0  0  0  0  0  0
   10.3570   -0.1928    0.0000 C   0  0  0  0  0  0  0  0  0  0  0  0
    8.2423    1.3405    0.0000 C   0  0  0  0  0  0  0  0  0  0  0  0
    7.4385    0.7555    0.0000 C   0  0  0  0  0  0  0  0  0  0  0  0
    7.1557   -0.9982    0.0000 C   0  0  0  0  0  0  0  0  0  0  0  0
   10.6358    1.5673    0.0000 C   0  0  0  0  0  0  0  0  0  0  0  0
    6.1614   -0.8920    0.0000 C   0  0  2  0  0  0  0  0  0  0  0  0
   10.2291    2.4808    0.0000 C   0  0  0  0  0  0  0  0  0  0  0  0
    5.7562    0.0223    0.0000 C   0  0  0  0  0  0  0  0  0  0  0  0
   10.8168    3.2898    0.0000 C   0  0  0  0  0  0  0  0  0  0  0  0
    4.7619    0.1285    0.0000 C   0  0  0  0  0  0  0  0  0  0  0  0
    6.3454    0.8303    0.0000 C   0  0  0  0  0  0  0  0  0  0  0  0
    9.2345    2.5853    0.0000 C   0  0  0  0  0  0  0  0  0  0  0  0
    4.5779   -1.5937    0.0000 C   0  0  0  0  0  0  0  0  0  0  0  0
    2.9943   -2.2955    0.0000 C   0  0  0  0  0  0  0  0  0  0  0  0
    2.0000   -2.1892    0.0000 C   0  0  0  0  0  0  0  0  0  0  0  0
    2.8881   -3.2898    0.0000 C   0  0  0  0  0  0  0  0  0  0  0  0
    3.1006   -1.3011    0.0000 C   0  0  0  0  0  0  0  0  0  0  0  0
    8.4753   -1.0009    0.0000 H   0  0  0  0  0  0  0  0  0  0  0  0
    9.3096    1.5670    0.0000 H   0  0  0  0  0  0  0  0  0  0  0  0
   10.6935   -1.9261    0.0000 H   0  0  0  0  0  0  0  0  0  0  0  0
   10.6935   -1.0493    0.0000 H   0  0  0  0  0  0  0  0  0  0  0  0
    8.4025   -1.0493    0.0000 H   0  0  0  0  0  0  0  0  0  0  0  0
    8.4025   -1.9261    0.0000 H   0  0  0  0  0  0  0  0  0  0  0  0
    9.1096   -2.6332    0.0000 H   0  0  0  0  0  0  0  0  0  0  0  0
    9.9864   -2.6332    0.0000 H   0  0  0  0  0  0  0  0  0  0  0  0
    8.6562    1.8020    0.0000 H   0  0  0  0  0  0  0  0  0  0  0  0
    7.8267    1.8006    0.0000 H   0  0  0  0  0  0  0  0  0  0  0  0
    7.1284    1.2923    0.0000 H   0  0  0  0  0  0  0  0  0  0  0  0
    6.8721    0.5034    0.0000 H   0  0  0  0  0  0  0  0  0  0  0  0
    5.5449   -0.8261    0.0000 H   0  0  0  0  0  0  0  0  0  0  0  0
    6.3727   -0.0436    0.0000 H   0  0  0  0  0  0  0  0  0  0  0  0
    5.8234   -2.2668    0.0000 H   0  0  0  0  0  0  0  0  0  0  0  0
    4.8278    0.7450    0.0000 H   0  0  0  0  0  0  0  0  0  0  0  0
    4.1454    0.1944    0.0000 H   0  0  0  0  0  0  0  0  0  0  0  0
    4.6960   -0.4880    0.0000 H   0  0  0  0  0  0  0  0  0  0  0  0
    6.8464    0.4650    0.0000 H   0  0  0  0  0  0  0  0  0  0  0  0
    6.7107    1.3312    0.0000 H   0  0  0  0  0  0  0  0  0  0  0  0
    5.8445    1.1956    0.0000 H   0  0  0  0  0  0  0  0  0  0  0  0
   11.3184    2.9254    0.0000 H   0  0  0  0  0  0  0  0  0  0  0  0
   11.1813    3.7914    0.0000 H   0  0  0  0  0  0  0  0  0  0  0  0
   10.3152    3.6542    0.0000 H   0  0  0  0  0  0  0  0  0  0  0  0
    8.9824    3.1517    0.0000 H   0  0  0  0  0  0  0  0  0  0  0  0
    8.8701    2.0837    0.0000 H   0  0  0  0  0  0  0  0  0  0  0  0
    2.0659   -1.5727    0.0000 H   0  0  0  0  0  0  0  0  0  0  0  0
    1.3835   -2.1234    0.0000 H   0  0  0  0  0  0  0  0  0  0  0  0
    1.9341   -2.8057    0.0000 H   0  0  0  0  0  0  0  0  0  0  0  0
    2.2716   -3.2240    0.0000 H   0  0  0  0  0  0  0  0  0  0  0  0
    2.8222   -3.9063    0.0000 H   0  0  0  0  0  0  0  0  0  0  0  0
    3.5046   -3.3557    0.0000 H   0  0  0  0  0  0  0  0  0  0  0  0
    3.7171   -1.3670    0.0000 H   0  0  0  0  0  0  0  0  0  0  0  0
    3.1665   -0.6847    0.0000 H   0  0  0  0  0  0  0  0  0  0  0  0
    2.4841   -1.2353    0.0000 H   0  0  0  0  0  0  0  0  0  0  0  0
  1 15  2  0  0  0  0
  2 18  2  0  0  0  0
  3 19  2  0  0  0  0
  4 27  1  0  0  0  0
  4 28  1  0  0  0  0
  5 27  2  0  0  0  0
  6 10  1  0  0  0  0
  6 17  1  0  0  0  0
  6 18  1  0  0  0  0
  7 11  1  0  0  0  0
  7 15  1  0  0  0  0
  7 19  1  0  0  0  0
 20  8  1  1  0  0  0
  8 27  1  0  0  0  0
  8 46  1  0  0  0  0
  9 10  1  0  0  0  0
  9 12  1  0  0  0  0
  9 13  1  0  0  0  0
  9 15  1  0  0  0  0
 10 11  1  0  0  0  0
 10 32  1  6  0  0  0
 11 16  1  0  0  0  0
 11 33  1  1  0  0  0
 12 14  1  0  0  0  0
 12 34  1  0  0  0  0
 12 35  1  0  0  0  0
 13 14  1  0  0  0  0
 13 36  1  0  0  0  0
 13 37  1  0  0  0  0
 14 38  1  0  0  0  0
 14 39  1  0  0  0  0
 16 17  1  0  0  0  0
 16 40  1  0  0  0  0
 16 41  1  0  0  0  0
 17 42  1  0  0  0  0
 17 43  1  0  0  0  0
 18 20  1  0  0  0  0
 19 21  1  0  0  0  0
 20 22  1  0  0  0  0
 20 44  1  0  0  0  0
 21 23  1  0  0  0  0
 21 26  2  0  0  0  0
 22 24  1  0  0  0  0
 22 25  1  0  0  0  0
 22 45  1  0  0  0  0
 23 53  1  0  0  0  0
 23 54  1  0  0  0  0
 23 55  1  0  0  0  0
 24 47  1  0  0  0  0
 24 48  1  0  0  0  0
 24 49  1  0  0  0  0
 25 50  1  0  0  0  0
 25 51  1  0  0  0  0
 25 52  1  0  0  0  0
 26 56  1  0  0  0  0
 26 57  1  0  0  0  0
 28 29  1  0  0  0  0
 28 30  1  0  0  0  0
 28 31  1  0  0  0  0
 29 58  1  0  0  0  0
 29 59  1  0  0  0  0
 29 60  1  0  0  0  0
 30 61  1  0  0  0  0
 30 62  1  0  0  0  0
 30 63  1  0  0  0  0
 31 64  1  0  0  0  0
 31 65  1  0  0  0  0
 31 66  1  0  0  0  0
M  END
> <PUBCHEM_COMPOUND_CID>
507042
> <PUBCHEM_COMPOUND_CANONICALIZED>
1
> <PUBCHEM_CACTVS_COMPLEXITY>
809
> <PUBCHEM_CACTVS_HBOND_ACCEPTOR>
5
> <PUBCHEM_CACTVS_HBOND_DONOR>
1
> <PUBCHEM_CACTVS_ROTATABLE_BOND>
6
> <PUBCHEM_CACTVS_SUBSKEYS>
AAADcfB7OAAAAAAAAAAAAAAAAABgAWLAAAAAAAAAAAAWAAAAAAAAHgAQAAAAD2zBgAQCCAPABACIAgFSGACAAAAAAAAAAIGIAEEAQBoAwSAcAAAAFiCAAIEciIAPAAAAAAAAAAAAAAAAAAAAAAAAAAAAAA==
> <PUBCHEM_IUPAC_OPENEYE_NAME>
tert-butyl N-[(1S)-1-[(3aS,6aR)-4-(2-methylprop-2-enoyl)-5-oxo-spiro[2,3,3a,6a-tetrahydropyrrolo[3,2-b]pyrrole-6,1'-cyclobutane]-1-carbonyl]-2-methyl-propyl]carbamate
> <PUBCHEM_IUPAC_CAS_NAME>
N-[(2S)-1-[(3aS,6aR)-4-(2-methyl-1-oxoprop-2-enyl)-5-oxo-1-spiro[2,3,3a,6a-tetrahydropyrrolo[3,2-b]pyrrole-6,1'-cyclobutane]yl]-3-methyl-1-oxobutan-2-yl]carbamic acid tert-butyl ester
> <PUBCHEM_IUPAC_NAME_MARKUP>
<I>tert</I>-butyl <I>N</I>-[(2<I>S</I>)-1-[(3<I>a</I><I>S</I>,6<I>a</I><I>R</I>)-4-(2-methylprop-2-enoyl)-5-oxospiro[2,3,3<I>a</I>,6<I>a</I>-tetrahydropyrrolo[3,2-b]pyrrole-6,1&apos;-cyclobutane]-1-yl]-3-methyl-1-oxobutan-2-yl]carbamate
> <PUBCHEM_IUPAC_NAME>
tert-butyl N-[(2S)-1-[(3aS,6aR)-4-(2-methylprop-2-enoyl)-5-oxospiro[2,3,3a,6a-tetrahydropyrrolo[3,2-b]pyrrole-6,1'-cyclobutane]-1-yl]-3-methyl-1-oxobutan-2-yl]carbamate
> <PUBCHEM_IUPAC_SYSTEMATIC_NAME>
tert-butyl N-[(2S)-1-[(3aS,6aR)-4-(2-methylprop-2-enoyl)-5-oxidanylidene-spiro[2,3,3a,6a-tetrahydropyrrolo[3,2-b]pyrrole-6,1'-cyclobutane]-1-yl]-3-methyl-1-oxidanylidene-butan-2-yl]carbamate
> <PUBCHEM_IUPAC_TRADITIONAL_NAME>
N-[(1S)-1-[(3aS,6aR)-5-keto-4-methacryloyl-spiro[2,3,3a,6a-tetrahydropyrrolo[3,2-b]pyrrole-6,1'-cyclobutane]-1-carbonyl]-2-methyl-propyl]carbamic acid tert-butyl ester
> <PUBCHEM_IUPAC_INCHI>
InChI=1S/C23H35N3O5/c1-13(2)16(24-21(30)31-22(5,6)7)19(28)25-12-9-15-17(25)23(10-8-11-23)20(29)26(15)18(27)14(3)4/h13,15-17H,3,8-12H2,1-2,4-7H3,(H,24,30)/t15-,16-,17-/m0/s1
> <PUBCHEM_IUPAC_INCHIKEY>
DGODLSMCXGFMJA-ULQDDVLXSA-N
> <PUBCHEM_XLOGP3_AA>
2.9
> <PUBCHEM_EXACT_MASS>
433.25767123
> <PUBCHEM_MOLECULAR_FORMULA>
C23H35N3O5
> <PUBCHEM_MOLECULAR_WEIGHT>
433.5
> <PUBCHEM_OPENEYE_CAN_SMILES>
CC(C)C(C(=O)N1CCC2C1C3(CCC3)C(=O)N2C(=O)C(=C)C)NC(=O)OC(C)(C)C
> <PUBCHEM_OPENEYE_ISO_SMILES>
CC(C)[C@@H](C(=O)N1CC[C@H]2[C@H]1C3(CCC3)C(=O)N2C(=O)C(=C)C)NC(=O)OC(C)(C)C
> <PUBCHEM_CACTVS_TPSA>
96
> <PUBCHEM_MONOISOTOPIC_WEIGHT>
433.25767123
> <PUBCHEM_TOTAL_CHARGE>
0
> <PUBCHEM_HEAVY_ATOM_COUNT>
31
> <PUBCHEM_ATOM_DEF_STEREO_COUNT>
3
> <PUBCHEM_ATOM_UDEF_STEREO_COUNT>
0
> <PUBCHEM_BOND_DEF_STEREO_COUNT>
0
> <PUBCHEM_BOND_UDEF_STEREO_COUNT>
0
> <PUBCHEM_ISOTOPIC_ATOM_COUNT>
0
> <PUBCHEM_COMPONENT_COUNT>
1
> <PUBCHEM_CACTVS_TAUTO_COUNT>
-1
> <PUBCHEM_COORDINATE_TYPE>
1
5
255
> <PUBCHEM_BONDANNOTATIONS>
10  32  6
11  33  5
20  8  5
$$$$
