507058
  -OEChem-10302200282D
107109  0     1  0  0  0  0  0999 V2000
    6.7974    2.9588    0.0000 O   0  0  0  0  0  0  0  0  0  0  0  0
    7.6634    2.4588    0.0000 O   0  0  0  0  0  0  0  0  0  0  0  0
   10.2615   -0.0412    0.0000 O   0  0  0  0  0  0  0  0  0  0  0  0
   11.1275   -0.5412    0.0000 O   0  0  0  0  0  0  0  0  0  0  0  0
   14.5916   -1.5412    0.0000 O   0  0  0  0  0  0  0  0  0  0  0  0
   16.3236   -0.5412    0.0000 O   0  0  0  0  0  0  0  0  0  0  0  0
   15.4576    0.9588    0.0000 O   0  0  0  0  0  0  0  0  0  0  0  0
   15.4576   -5.0412    0.0000 O   0  0  0  0  0  0  0  0  0  0  0  0
   13.7256   -5.0412    0.0000 O   0  0  0  0  0  0  0  0  0  0  0  0
    5.0653    2.9588    0.0000 N   0  0  0  0  0  0  0  0  0  0  0  0
    6.7974    0.9588    0.0000 N   0  0  0  0  0  0  0  0  0  0  0  0
    3.2857    4.0521    0.0000 N   0  0  0  0  0  0  0  0  0  0  0  0
    4.0948    5.4533    0.0000 N   0  0  0  0  0  0  0  0  0  0  0  0
    2.6166    4.7952    0.0000 N   0  0  0  0  0  0  0  0  0  0  0  0
    3.1166    5.6612    0.0000 N   0  0  0  0  0  0  0  0  0  0  0  0
    9.3954    1.4588    0.0000 N   0  0  0  0  0  0  0  0  0  0  0  0
   11.9935    0.9588    0.0000 N   0  0  0  0  0  0  0  0  0  0  0  0
   12.8595   -1.5412    0.0000 N   0  0  0  0  0  0  0  0  0  0  0  0
    5.0653    3.9588    0.0000 C   0  0  0  0  0  0  0  0  0  0  0  0
    5.5653    4.8248    0.0000 C   0  0  0  0  0  0  0  0  0  0  0  0
    6.0653    3.9588    0.0000 C   0  0  0  0  0  0  0  0  0  0  0  0
    4.1993    4.4588    0.0000 C   0  0  0  0  0  0  0  0  0  0  0  0
    5.0653   -0.0412    0.0000 C   0  0  0  0  0  0  0  0  0  0  0  0
    5.0653    0.9588    0.0000 C   0  0  0  0  0  0  0  0  0  0  0  0
    5.9313    1.4588    0.0000 C   0  0  1  0  0  0  0  0  0  0  0  0
    5.9313    2.4588    0.0000 C   0  0  0  0  0  0  0  0  0  0  0  0
    4.1993   -0.5412    0.0000 C   0  0  0  0  0  0  0  0  0  0  0  0
    5.9313   -0.5412    0.0000 C   0  0  0  0  0  0  0  0  0  0  0  0
    4.1993   -1.5412    0.0000 C   0  0  0  0  0  0  0  0  0  0  0  0
    5.9313   -1.5412    0.0000 C   0  0  0  0  0  0  0  0  0  0  0  0
    5.0653   -2.0412    0.0000 C   0  0  0  0  0  0  0  0  0  0  0  0
    7.6634    1.4588    0.0000 C   0  0  0  0  0  0  0  0  0  0  0  0
    8.5294    0.9588    0.0000 C   0  0  2  0  0  0  0  0  0  0  0  0
    8.5294   -0.0412    0.0000 C   0  0  2  0  0  0  0  0  0  0  0  0
    9.3954   -0.5412    0.0000 C   0  0  0  0  0  0  0  0  0  0  0  0
    7.6634   -0.5412    0.0000 C   0  0  0  0  0  0  0  0  0  0  0  0
   10.2615    0.9588    0.0000 C   0  0  0  0  0  0  0  0  0  0  0  0
   11.1275    1.4588    0.0000 C   0  0  2  0  0  0  0  0  0  0  0  0
    9.3954   -1.5412    0.0000 C   0  0  0  0  0  0  0  0  0  0  0  0
   11.1275    2.4588    0.0000 C   0  0  0  0  0  0  0  0  0  0  0  0
   11.9935    2.9588    0.0000 C   0  0  0  0  0  0  0  0  0  0  0  0
   11.9935    3.9588    0.0000 C   0  0  0  0  0  0  0  0  0  0  0  0
   12.8595    2.4588    0.0000 C   0  0  0  0  0  0  0  0  0  0  0  0
   11.9935   -0.0412    0.0000 C   0  0  0  0  0  0  0  0  0  0  0  0
   12.8595   -0.5412    0.0000 C   0  0  1  0  0  0  0  0  0  0  0  0
   13.7256   -0.0412    0.0000 C   0  0  0  0  0  0  0  0  0  0  0  0
   14.5916   -0.5412    0.0000 C   0  0  0  0  0  0  0  0  0  0  0  0
   13.7256   -2.0412    0.0000 C   0  0  0  0  0  0  0  0  0  0  0  0
   13.7256   -3.0412    0.0000 C   0  0  0  0  0  0  0  0  0  0  0  0
   15.4576   -0.0412    0.0000 C   0  0  0  0  0  0  0  0  0  0  0  0
   14.5916   -3.5412    0.0000 C   0  0  0  0  0  0  0  0  0  0  0  0
   14.5916   -4.5412    0.0000 C   0  0  0  0  0  0  0  0  0  0  0  0
    6.0402    5.2233    0.0000 H   0  0  0  0  0  0  0  0  0  0  0  0
    5.0904    5.2233    0.0000 H   0  0  0  0  0  0  0  0  0  0  0  0
    6.1730    3.3482    0.0000 H   0  0  0  0  0  0  0  0  0  0  0  0
    6.6479    4.1708    0.0000 H   0  0  0  0  0  0  0  0  0  0  0  0
    4.5284    2.6488    0.0000 H   0  0  0  0  0  0  0  0  0  0  0  0
    5.6022    0.2688    0.0000 H   0  0  0  0  0  0  0  0  0  0  0  0
    4.8532    1.5414    0.0000 H   0  0  0  0  0  0  0  0  0  0  0  0
    4.4547    0.8511    0.0000 H   0  0  0  0  0  0  0  0  0  0  0  0
    6.4683    1.7688    0.0000 H   0  0  0  0  0  0  0  0  0  0  0  0
    3.9872    0.0414    0.0000 H   0  0  0  0  0  0  0  0  0  0  0  0
    3.5887   -0.6489    0.0000 H   0  0  0  0  0  0  0  0  0  0  0  0
    6.5419   -0.6489    0.0000 H   0  0  0  0  0  0  0  0  0  0  0  0
    6.1434    0.0414    0.0000 H   0  0  0  0  0  0  0  0  0  0  0  0
    3.5887   -1.4336    0.0000 H   0  0  0  0  0  0  0  0  0  0  0  0
    3.9872   -2.1238    0.0000 H   0  0  0  0  0  0  0  0  0  0  0  0
    6.1434   -2.1238    0.0000 H   0  0  0  0  0  0  0  0  0  0  0  0
    6.5419   -1.4336    0.0000 H   0  0  0  0  0  0  0  0  0  0  0  0
    4.6668   -2.5162    0.0000 H   0  0  0  0  0  0  0  0  0  0  0  0
    5.4638   -2.5162    0.0000 H   0  0  0  0  0  0  0  0  0  0  0  0
    6.7974    0.3388    0.0000 H   0  0  0  0  0  0  0  0  0  0  0  0
    2.0000    4.7304    0.0000 H   0  0  0  0  0  0  0  0  0  0  0  0
    8.5294    1.5788    0.0000 H   0  0  0  0  0  0  0  0  0  0  0  0
    8.5294   -0.6612    0.0000 H   0  0  0  0  0  0  0  0  0  0  0  0
    9.3954    2.0788    0.0000 H   0  0  0  0  0  0  0  0  0  0  0  0
   10.0060   -0.6489    0.0000 H   0  0  0  0  0  0  0  0  0  0  0  0
    9.6075    0.0414    0.0000 H   0  0  0  0  0  0  0  0  0  0  0  0
    7.3534   -0.0043    0.0000 H   0  0  0  0  0  0  0  0  0  0  0  0
    7.1264   -0.8512    0.0000 H   0  0  0  0  0  0  0  0  0  0  0  0
    7.9734   -1.0782    0.0000 H   0  0  0  0  0  0  0  0  0  0  0  0
   11.1275    0.8388    0.0000 H   0  0  0  0  0  0  0  0  0  0  0  0
    8.7754   -1.5412    0.0000 H   0  0  0  0  0  0  0  0  0  0  0  0
    9.3954   -2.1612    0.0000 H   0  0  0  0  0  0  0  0  0  0  0  0
   10.0154   -1.5412    0.0000 H   0  0  0  0  0  0  0  0  0  0  0  0
   10.9154    3.0414    0.0000 H   0  0  0  0  0  0  0  0  0  0  0  0
   10.5169    2.3511    0.0000 H   0  0  0  0  0  0  0  0  0  0  0  0
   12.5304    3.2688    0.0000 H   0  0  0  0  0  0  0  0  0  0  0  0
   12.5304    1.2688    0.0000 H   0  0  0  0  0  0  0  0  0  0  0  0
   12.6135    3.9588    0.0000 H   0  0  0  0  0  0  0  0  0  0  0  0
   11.9935    4.5788    0.0000 H   0  0  0  0  0  0  0  0  0  0  0  0
   11.3735    3.9588    0.0000 H   0  0  0  0  0  0  0  0  0  0  0  0
   12.5495    1.9218    0.0000 H   0  0  0  0  0  0  0  0  0  0  0  0
   13.3965    2.1488    0.0000 H   0  0  0  0  0  0  0  0  0  0  0  0
   13.1695    2.9957    0.0000 H   0  0  0  0  0  0  0  0  0  0  0  0
   12.3226   -0.8512    0.0000 H   0  0  0  0  0  0  0  0  0  0  0  0
   14.1241    0.4337    0.0000 H   0  0  0  0  0  0  0  0  0  0  0  0
   13.3270    0.4337    0.0000 H   0  0  0  0  0  0  0  0  0  0  0  0
   12.3226   -1.8512    0.0000 H   0  0  0  0  0  0  0  0  0  0  0  0
   14.1931   -1.0162    0.0000 H   0  0  0  0  0  0  0  0  0  0  0  0
   14.9901   -1.0162    0.0000 H   0  0  0  0  0  0  0  0  0  0  0  0
   13.1150   -2.9336    0.0000 H   0  0  0  0  0  0  0  0  0  0  0  0
   13.5135   -3.6238    0.0000 H   0  0  0  0  0  0  0  0  0  0  0  0
   15.2022   -3.6489    0.0000 H   0  0  0  0  0  0  0  0  0  0  0  0
   14.8036   -2.9586    0.0000 H   0  0  0  0  0  0  0  0  0  0  0  0
   16.8606   -0.2312    0.0000 H   0  0  0  0  0  0  0  0  0  0  0  0
   15.4576   -5.6612    0.0000 H   0  0  0  0  0  0  0  0  0  0  0  0
  1 26  2  0  0  0  0
  2 32  2  0  0  0  0
  3 37  2  0  0  0  0
  4 44  2  0  0  0  0
  5 48  2  0  0  0  0
  6 50  1  0  0  0  0
  6106  1  0  0  0  0
  7 50  2  0  0  0  0
  8 52  1  0  0  0  0
  8107  1  0  0  0  0
  9 52  2  0  0  0  0
 10 19  1  0  0  0  0
 10 26  1  0  0  0  0
 10 57  1  0  0  0  0
 25 11  1  1  0  0  0
 11 32  1  0  0  0  0
 11 72  1  0  0  0  0
 12 14  1  0  0  0  0
 12 22  2  0  0  0  0
 13 15  2  0  0  0  0
 13 22  1  0  0  0  0
 14 15  1  0  0  0  0
 14 73  1  0  0  0  0
 33 16  1  1  0  0  0
 16 37  1  0  0  0  0
 16 76  1  0  0  0  0
 38 17  1  6  0  0  0
 17 44  1  0  0  0  0
 17 89  1  0  0  0  0
 45 18  1  1  0  0  0
 18 48  1  0  0  0  0
 18 99  1  0  0  0  0
 19 20  1  0  0  0  0
 19 21  1  0  0  0  0
 19 22  1  0  0  0  0
 20 21  1  0  0  0  0
 20 53  1  0  0  0  0
 20 54  1  0  0  0  0
 21 55  1  0  0  0  0
 21 56  1  0  0  0  0
 23 24  1  0  0  0  0
 23 27  1  0  0  0  0
 23 28  1  0  0  0  0
 23 58  1  0  0  0  0
 24 25  1  0  0  0  0
 24 59  1  0  0  0  0
 24 60  1  0  0  0  0
 25 26  1  0  0  0  0
 25 61  1  0  0  0  0
 27 29  1  0  0  0  0
 27 62  1  0  0  0  0
 27 63  1  0  0  0  0
 28 30  1  0  0  0  0
 28 64  1  0  0  0  0
 28 65  1  0  0  0  0
 29 31  1  0  0  0  0
 29 66  1  0  0  0  0
 29 67  1  0  0  0  0
 30 31  1  0  0  0  0
 30 68  1  0  0  0  0
 30 69  1  0  0  0  0
 31 70  1  0  0  0  0
 31 71  1  0  0  0  0
 32 33  1  0  0  0  0
 33 34  1  0  0  0  0
 33 74  1  0  0  0  0
 34 35  1  0  0  0  0
 34 36  1  6  0  0  0
 34 75  1  0  0  0  0
 35 39  1  0  0  0  0
 35 77  1  0  0  0  0
 35 78  1  0  0  0  0
 36 79  1  0  0  0  0
 36 80  1  0  0  0  0
 36 81  1  0  0  0  0
 37 38  1  0  0  0  0
 38 40  1  0  0  0  0
 38 82  1  0  0  0  0
 39 83  1  0  0  0  0
 39 84  1  0  0  0  0
 39 85  1  0  0  0  0
 40 41  1  0  0  0  0
 40 86  1  0  0  0  0
 40 87  1  0  0  0  0
 41 42  1  0  0  0  0
 41 43  1  0  0  0  0
 41 88  1  0  0  0  0
 42 90  1  0  0  0  0
 42 91  1  0  0  0  0
 42 92  1  0  0  0  0
 43 93  1  0  0  0  0
 43 94  1  0  0  0  0
 43 95  1  0  0  0  0
 44 45  1  0  0  0  0
 45 46  1  0  0  0  0
 45 96  1  0  0  0  0
 46 47  1  0  0  0  0
 46 97  1  0  0  0  0
 46 98  1  0  0  0  0
 47 50  1  0  0  0  0
 47100  1  0  0  0  0
 47101  1  0  0  0  0
 48 49  1  0  0  0  0
 49 51  1  0  0  0  0
 49102  1  0  0  0  0
 49103  1  0  0  0  0
 51 52  1  0  0  0  0
 51104  1  0  0  0  0
 51105  1  0  0  0  0
M  END
> <PUBCHEM_COMPOUND_CID>
507058
> <PUBCHEM_COMPOUND_CANONICALIZED>
1
> <PUBCHEM_CACTVS_COMPLEXITY>
1270
> <PUBCHEM_CACTVS_HBOND_ACCEPTOR>
12
> <PUBCHEM_CACTVS_HBOND_DONOR>
8
> <PUBCHEM_CACTVS_ROTATABLE_BOND>
22
> <PUBCHEM_CACTVS_SUBSKEYS>
AAADcfB//AAAAAAAAAAAAAAAGAAAAWAAAAAwAAAAAAAAAAABgAAAHgAYCAAADajBgwQDGAbCAgAqAAOwOAAAAAIAAAAUIIGoAAAAQBIAgCAUQAAEFgCAAAG/n4KOAAAAAAAAAAAAAAAAAAAAAAAAAAAAAA==
> <PUBCHEM_IUPAC_OPENEYE_NAME>
(4R)-4-(3-carboxypropanoylamino)-5-[[(1S)-1-[[(1S,2S)-1-[[(1S)-1-(cyclohexylmethyl)-2-oxo-2-[[1-(2H-tetrazol-5-yl)cyclopropyl]amino]ethyl]carbamoyl]-2-methyl-butyl]carbamoyl]-3-methyl-butyl]amino]-5-oxo-pentanoic acid
> <PUBCHEM_IUPAC_CAS_NAME>
(4R)-4-[(3-carboxy-1-oxopropyl)amino]-5-[[(2S)-1-[[(2S,3S)-1-[[(2S)-3-cyclohexyl-1-oxo-1-[[1-(2H-tetrazol-5-yl)cyclopropyl]amino]propan-2-yl]amino]-3-methyl-1-oxopentan-2-yl]amino]-4-methyl-1-oxopentan-2-yl]amino]-5-oxopentanoic acid
> <PUBCHEM_IUPAC_NAME_MARKUP>
(4<I>R</I>)-4-(3-carboxypropanoylamino)-5-[[(2<I>S</I>)-1-[[(2<I>S</I>,3<I>S</I>)-1-[[(2<I>S</I>)-3-cyclohexyl-1-oxo-1-[[1-(2<I>H</I>-tetrazol-5-yl)cyclopropyl]amino]propan-2-yl]amino]-3-methyl-1-oxopentan-2-yl]amino]-4-methyl-1-oxopentan-2-yl]amino]-5-oxopentanoic acid
> <PUBCHEM_IUPAC_NAME>
(4R)-4-(3-carboxypropanoylamino)-5-[[(2S)-1-[[(2S,3S)-1-[[(2S)-3-cyclohexyl-1-oxo-1-[[1-(2H-tetrazol-5-yl)cyclopropyl]amino]propan-2-yl]amino]-3-methyl-1-oxopentan-2-yl]amino]-4-methyl-1-oxopentan-2-yl]amino]-5-oxopentanoic acid
> <PUBCHEM_IUPAC_SYSTEMATIC_NAME>
(4R)-5-[[(2S)-1-[[(2S,3S)-1-[[(2S)-3-cyclohexyl-1-oxidanylidene-1-[[1-(2H-1,2,3,4-tetrazol-5-yl)cyclopropyl]amino]propan-2-yl]amino]-3-methyl-1-oxidanylidene-pentan-2-yl]amino]-4-methyl-1-oxidanylidene-pentan-2-yl]amino]-5-oxidanylidene-4-[(4-oxidanyl-4-oxidanylidene-butanoyl)amino]pentanoic acid
> <PUBCHEM_IUPAC_TRADITIONAL_NAME>
(4R)-4-(3-carboxypropanoylamino)-5-[[(1S)-1-[[(1S,2S)-1-[[(1S)-1-(cyclohexylmethyl)-2-keto-2-[[1-(2H-tetrazol-5-yl)cyclopropyl]amino]ethyl]carbamoyl]-2-methyl-butyl]carbamoyl]-3-methyl-butyl]amino]-5-keto-valeric acid
> <PUBCHEM_IUPAC_INCHI>
InChI=1S/C34H55N9O9/c1-5-20(4)28(32(52)37-24(18-21-9-7-6-8-10-21)31(51)39-34(15-16-34)33-40-42-43-41-33)38-30(50)23(17-19(2)3)36-29(49)22(11-13-26(45)46)35-25(44)12-14-27(47)48/h19-24,28H,5-18H2,1-4H3,(H,35,44)(H,36,49)(H,37,52)(H,38,50)(H,39,51)(H,45,46)(H,47,48)(H,40,41,42,43)/t20-,22+,23-,24-,28-/m0/s1
> <PUBCHEM_IUPAC_INCHIKEY>
RFOBMMPIEQCAOT-HHUBCNRQSA-N
> <PUBCHEM_XLOGP3_AA>
2.2
> <PUBCHEM_EXACT_MASS>
733.41227437
> <PUBCHEM_MOLECULAR_FORMULA>
C34H55N9O9
> <PUBCHEM_MOLECULAR_WEIGHT>
733.9
> <PUBCHEM_OPENEYE_CAN_SMILES>
CCC(C)C(C(=O)NC(CC1CCCCC1)C(=O)NC2(CC2)C3=NNN=N3)NC(=O)C(CC(C)C)NC(=O)C(CCC(=O)O)NC(=O)CCC(=O)O
> <PUBCHEM_OPENEYE_ISO_SMILES>
CC[C@H](C)[C@@H](C(=O)N[C@@H](CC1CCCCC1)C(=O)NC2(CC2)C3=NNN=N3)NC(=O)[C@H](CC(C)C)NC(=O)[C@@H](CCC(=O)O)NC(=O)CCC(=O)O
> <PUBCHEM_CACTVS_TPSA>
275
> <PUBCHEM_MONOISOTOPIC_WEIGHT>
733.41227437
> <PUBCHEM_TOTAL_CHARGE>
0
> <PUBCHEM_HEAVY_ATOM_COUNT>
52
> <PUBCHEM_ATOM_DEF_STEREO_COUNT>
5
> <PUBCHEM_ATOM_UDEF_STEREO_COUNT>
0
> <PUBCHEM_BOND_DEF_STEREO_COUNT>
0
> <PUBCHEM_BOND_UDEF_STEREO_COUNT>
0
> <PUBCHEM_ISOTOPIC_ATOM_COUNT>
0
> <PUBCHEM_COMPONENT_COUNT>
1
> <PUBCHEM_CACTVS_TAUTO_COUNT>
-1
> <PUBCHEM_COORDINATE_TYPE>
1
5
255
> <PUBCHEM_BONDANNOTATIONS>
25  11  5
12  14  8
12  22  8
13  15  8
13  22  8
14  15  8
33  16  5
38  17  6
45  18  5
34  36  6
$$$$
