507030
  -OEChem-10302200282D
 25 26  0     1  0  0  0  0  0999 V2000
    6.2565    0.4189    0.0000 Cl  0  0  0  0  0  0  0  0  0  0  0  0
    7.7122    2.0357    0.0000 Cl  0  0  0  0  0  0  0  0  0  0  0  0
    3.4030    1.8038    0.0000 S   0  0  0  0  0  0  0  0  0  0  0  0
    2.5369    0.3038    0.0000 O   0  0  0  0  0  0  0  0  0  0  0  0
    4.2690   -2.6962    0.0000 O   0  0  0  0  0  0  0  0  0  0  0  0
    5.1350    1.8038    0.0000 N   0  0  0  0  0  0  0  0  0  0  0  0
    6.2177    3.0062    0.0000 N   0  0  0  0  0  0  0  0  0  0  0  0
    6.0486    1.3970    0.0000 C   0  0  3  0  0  0  0  0  0  0  0  0
    6.7177    2.1402    0.0000 C   0  0  3  0  0  0  0  0  0  0  0  0
    4.2690    1.3038    0.0000 C   0  0  0  0  0  0  0  0  0  0  0  0
    5.2395    2.7983    0.0000 C   0  0  0  0  0  0  0  0  0  0  0  0
    4.2690    0.3038    0.0000 C   0  0  0  0  0  0  0  0  0  0  0  0
    3.4030   -0.1962    0.0000 C   0  0  0  0  0  0  0  0  0  0  0  0
    5.1350   -0.1962    0.0000 C   0  0  0  0  0  0  0  0  0  0  0  0
    3.4030   -1.1962    0.0000 C   0  0  0  0  0  0  0  0  0  0  0  0
    5.1350   -1.1962    0.0000 C   0  0  0  0  0  0  0  0  0  0  0  0
    4.2690   -1.6962    0.0000 C   0  0  0  0  0  0  0  0  0  0  0  0
    5.5667    1.0069    0.0000 H   0  0  0  0  0  0  0  0  0  0  0  0
    6.9399    1.5614    0.0000 H   0  0  0  0  0  0  0  0  0  0  0  0
    4.7788    3.2132    0.0000 H   0  0  0  0  0  0  0  0  0  0  0  0
    5.6720    0.1138    0.0000 H   0  0  0  0  0  0  0  0  0  0  0  0
    2.8660   -1.5062    0.0000 H   0  0  0  0  0  0  0  0  0  0  0  0
    5.6720   -1.5062    0.0000 H   0  0  0  0  0  0  0  0  0  0  0  0
    2.0000   -0.0062    0.0000 H   0  0  0  0  0  0  0  0  0  0  0  0
    4.8059   -3.0062    0.0000 H   0  0  0  0  0  0  0  0  0  0  0  0
  1  8  1  0  0  0  0
  2  9  1  0  0  0  0
  3 10  2  0  0  0  0
  4 13  1  0  0  0  0
  4 24  1  0  0  0  0
  5 17  1  0  0  0  0
  5 25  1  0  0  0  0
  6  8  1  0  0  0  0
  6 10  1  0  0  0  0
  6 11  1  0  0  0  0
  7  9  1  0  0  0  0
  7 11  2  0  0  0  0
  8  9  1  0  0  0  0
  8 18  1  0  0  0  0
  9 19  1  0  0  0  0
 10 12  1  0  0  0  0
 11 20  1  0  0  0  0
 12 13  2  0  0  0  0
 12 14  1  0  0  0  0
 13 15  1  0  0  0  0
 14 16  2  0  0  0  0
 14 21  1  0  0  0  0
 15 17  2  0  0  0  0
 15 22  1  0  0  0  0
 16 17  1  0  0  0  0
 16 23  1  0  0  0  0
M  END
> <PUBCHEM_COMPOUND_CID>
507030
> <PUBCHEM_COMPOUND_CANONICALIZED>
1
> <PUBCHEM_CACTVS_COMPLEXITY>
342
> <PUBCHEM_CACTVS_HBOND_ACCEPTOR>
4
> <PUBCHEM_CACTVS_HBOND_DONOR>
2
> <PUBCHEM_CACTVS_ROTATABLE_BOND>
1
> <PUBCHEM_CACTVS_SUBSKEYS>
AAADccBzMABGAAAAAAAAAAAAAAAAAQAAAAAwAAAAAAAAAAABAAAAHgYACAAADAfB2EQxBoMAAgCkAiBDJACCAAEgIAgJiEAODIgIZyKCmRPUcAhnwBWImAeQ8CYOIAAACAAIAABAAAAQABAAAAAAAAAAAA==
> <PUBCHEM_IUPAC_OPENEYE_NAME>
(4,5-dichloro-4,5-dihydroimidazol-1-yl)-(2,4-dihydroxyphenyl)methanethione
> <PUBCHEM_IUPAC_CAS_NAME>
(4,5-dichloro-4,5-dihydroimidazol-1-yl)-(2,4-dihydroxyphenyl)methanethione
> <PUBCHEM_IUPAC_NAME_MARKUP>
(4,5-dichloro-4,5-dihydroimidazol-1-yl)-(2,4-dihydroxyphenyl)methanethione
> <PUBCHEM_IUPAC_NAME>
(4,5-dichloro-4,5-dihydroimidazol-1-yl)-(2,4-dihydroxyphenyl)methanethione
> <PUBCHEM_IUPAC_SYSTEMATIC_NAME>
[4,5-bis(chloranyl)-4,5-dihydroimidazol-1-yl]-[2,4-bis(oxidanyl)phenyl]methanethione
> <PUBCHEM_IUPAC_TRADITIONAL_NAME>
(4,5-dichloro-2-imidazolin-1-yl)-(2,4-dihydroxyphenyl)methanethione
> <PUBCHEM_IUPAC_INCHI>
InChI=1S/C10H8Cl2N2O2S/c11-8-9(12)14(4-13-8)10(17)6-2-1-5(15)3-7(6)16/h1-4,8-9,15-16H
> <PUBCHEM_IUPAC_INCHIKEY>
BAXSBBSRZNLTLP-UHFFFAOYSA-N
> <PUBCHEM_XLOGP3_AA>
2.2
> <PUBCHEM_EXACT_MASS>
289.9683541
> <PUBCHEM_MOLECULAR_FORMULA>
C10H8Cl2N2O2S
> <PUBCHEM_MOLECULAR_WEIGHT>
291.15
> <PUBCHEM_OPENEYE_CAN_SMILES>
C1=CC(=C(C=C1O)O)C(=S)N2C=NC(C2Cl)Cl
> <PUBCHEM_OPENEYE_ISO_SMILES>
C1=CC(=C(C=C1O)O)C(=S)N2C=NC(C2Cl)Cl
> <PUBCHEM_CACTVS_TPSA>
88.2
> <PUBCHEM_MONOISOTOPIC_WEIGHT>
289.9683541
> <PUBCHEM_TOTAL_CHARGE>
0
> <PUBCHEM_HEAVY_ATOM_COUNT>
17
> <PUBCHEM_ATOM_DEF_STEREO_COUNT>
0
> <PUBCHEM_ATOM_UDEF_STEREO_COUNT>
2
> <PUBCHEM_BOND_DEF_STEREO_COUNT>
0
> <PUBCHEM_BOND_UDEF_STEREO_COUNT>
0
> <PUBCHEM_ISOTOPIC_ATOM_COUNT>
0
> <PUBCHEM_COMPONENT_COUNT>
1
> <PUBCHEM_CACTVS_TAUTO_COUNT>
-1
> <PUBCHEM_COORDINATE_TYPE>
1
5
255
> <PUBCHEM_BONDANNOTATIONS>
8  1  3
12  13  8
12  14  8
13  15  8
14  16  8
15  17  8
16  17  8
9  2  3
$$$$
