507022
  -OEChem-10302200282D
 32 33  0     1  0  0  0  0  0999 V2000
    6.2211   -1.3991    0.0000 F   0  0  0  0  0  0  0  0  0  0  0  0
    4.5411   -0.6571    0.0000 O   0  0  0  0  0  0  0  0  0  0  0  0
    2.6443   -2.4172    0.0000 O   0  0  0  0  0  0  0  0  0  0  0  0
    5.4641    0.9307    0.0000 O   0  0  0  0  0  0  0  0  0  0  0  0
    3.7320    3.9307    0.0000 O   0  0  0  0  0  0  0  0  0  0  0  0
    3.7320    0.9307    0.0000 N   0  0  0  0  0  0  0  0  0  0  0  0
    4.5981    2.4307    0.0000 N   0  0  0  0  0  0  0  0  0  0  0  0
    6.9899   -3.9307    0.0000 N   0  0  0  0  0  0  0  0  0  0  0  0
    3.7320   -0.0693    0.0000 C   0  0  1  0  0  0  0  0  0  0  0  0
    2.9230   -0.6571    0.0000 C   0  0  0  0  0  0  0  0  0  0  0  0
    3.2320   -1.6082    0.0000 C   0  0  1  0  0  0  0  0  0  0  0  0
    4.2320   -1.6082    0.0000 C   0  0  1  0  0  0  0  0  0  0  0  0
    4.8198   -2.4172    0.0000 C   0  0  0  0  0  0  0  0  0  0  0  0
    2.8660    1.4307    0.0000 C   0  0  0  0  0  0  0  0  0  0  0  0
    4.5981    1.4307    0.0000 C   0  0  0  0  0  0  0  0  0  0  0  0
    2.8660    2.4307    0.0000 C   0  0  0  0  0  0  0  0  0  0  0  0
    3.7320    2.9307    0.0000 C   0  0  0  0  0  0  0  0  0  0  0  0
    5.8144   -2.3126    0.0000 C   0  0  0  0  0  0  0  0  0  0  0  0
    2.0000    2.9307    0.0000 C   0  0  0  0  0  0  0  0  0  0  0  0
    6.4021   -3.1217    0.0000 C   0  0  0  0  0  0  0  0  0  0  0  0
    4.2845    0.2122    0.0000 H   0  0  0  0  0  0  0  0  0  0  0  0
    2.6130   -0.1202    0.0000 H   0  0  0  0  0  0  0  0  0  0  0  0
    2.3566   -0.9093    0.0000 H   0  0  0  0  0  0  0  0  0  0  0  0
    3.5135   -2.1606    0.0000 H   0  0  0  0  0  0  0  0  0  0  0  0
    4.8444   -1.5112    0.0000 H   0  0  0  0  0  0  0  0  0  0  0  0
    4.5677   -2.9836    0.0000 H   0  0  0  0  0  0  0  0  0  0  0  0
    2.3291    1.1207    0.0000 H   0  0  0  0  0  0  0  0  0  0  0  0
    2.0277   -2.3524    0.0000 H   0  0  0  0  0  0  0  0  0  0  0  0
    5.1350    2.7407    0.0000 H   0  0  0  0  0  0  0  0  0  0  0  0
    2.3100    3.4676    0.0000 H   0  0  0  0  0  0  0  0  0  0  0  0
    1.4631    3.2407    0.0000 H   0  0  0  0  0  0  0  0  0  0  0  0
    1.6900    2.3938    0.0000 H   0  0  0  0  0  0  0  0  0  0  0  0
  1 18  1  0  0  0  0
  2  9  1  0  0  0  0
  2 12  1  0  0  0  0
 11  3  1  1  0  0  0
  3 28  1  0  0  0  0
  4 15  2  0  0  0  0
  5 17  2  0  0  0  0
  9  6  1  6  0  0  0
  6 14  1  0  0  0  0
  6 15  1  0  0  0  0
  7 15  1  0  0  0  0
  7 17  1  0  0  0  0
  7 29  1  0  0  0  0
  8 20  3  0  0  0  0
  9 10  1  0  0  0  0
  9 21  1  0  0  0  0
 10 11  1  0  0  0  0
 10 22  1  0  0  0  0
 10 23  1  0  0  0  0
 11 12  1  0  0  0  0
 11 24  1  0  0  0  0
 12 13  1  6  0  0  0
 12 25  1  0  0  0  0
 13 18  2  3  0  0  0
 13 26  1  0  0  0  0
 14 16  2  0  0  0  0
 14 27  1  0  0  0  0
 16 17  1  0  0  0  0
 16 19  1  0  0  0  0
 18 20  1  0  0  0  0
 19 30  1  0  0  0  0
 19 31  1  0  0  0  0
 19 32  1  0  0  0  0
M  END
> <PUBCHEM_COMPOUND_CID>
507022
> <PUBCHEM_COMPOUND_CANONICALIZED>
1
> <PUBCHEM_CACTVS_COMPLEXITY>
562
> <PUBCHEM_CACTVS_HBOND_ACCEPTOR>
6
> <PUBCHEM_CACTVS_HBOND_DONOR>
2
> <PUBCHEM_CACTVS_ROTATABLE_BOND>
2
> <PUBCHEM_CACTVS_SUBSKEYS>
AAADccBzOQAAAAAAAAAAAAAAAAAAASAAAAAgAAAAAAAAAAAAAAAAHwAQCAAADBThgAYDAAPABgCYBiFWUACgAAAgAAAACAEIAEiBFAIAoQAOUAAPxyILIMKwAAAAAAAAAAAAAAAAAAAAAAAAAAAAAAAAAA==
> <PUBCHEM_IUPAC_OPENEYE_NAME>
2-fluoro-3-[(2R,3S,5R)-3-hydroxy-5-(5-methyl-2,4-dioxo-pyrimidin-1-yl)tetrahydrofuran-2-yl]prop-2-enenitrile
> <PUBCHEM_IUPAC_CAS_NAME>
2-fluoro-3-[(2R,3S,5R)-3-hydroxy-5-(5-methyl-2,4-dioxo-1-pyrimidinyl)-2-oxolanyl]-2-propenenitrile
> <PUBCHEM_IUPAC_NAME_MARKUP>
2-fluoro-3-[(2<I>R</I>,3<I>S</I>,5<I>R</I>)-3-hydroxy-5-(5-methyl-2,4-dioxopyrimidin-1-yl)oxolan-2-yl]prop-2-enenitrile
> <PUBCHEM_IUPAC_NAME>
2-fluoro-3-[(2R,3S,5R)-3-hydroxy-5-(5-methyl-2,4-dioxopyrimidin-1-yl)oxolan-2-yl]prop-2-enenitrile
> <PUBCHEM_IUPAC_SYSTEMATIC_NAME>
2-fluoranyl-3-[(2R,3S,5R)-5-[5-methyl-2,4-bis(oxidanylidene)pyrimidin-1-yl]-3-oxidanyl-oxolan-2-yl]prop-2-enenitrile
> <PUBCHEM_IUPAC_TRADITIONAL_NAME>
3-[(2R,3S,5R)-5-(2,4-diketo-5-methyl-pyrimidin-1-yl)-3-hydroxy-tetrahydrofuran-2-yl]-2-fluoro-acrylonitrile
> <PUBCHEM_IUPAC_INCHI>
InChI=1S/C12H12FN3O4/c1-6-5-16(12(19)15-11(6)18)10-3-8(17)9(20-10)2-7(13)4-14/h2,5,8-10,17H,3H2,1H3,(H,15,18,19)/t8-,9+,10+/m0/s1
> <PUBCHEM_IUPAC_INCHIKEY>
GEHFNSWAELPKHT-IVZWLZJFSA-N
> <PUBCHEM_XLOGP3_AA>
-0.5
> <PUBCHEM_EXACT_MASS>
281.08118403
> <PUBCHEM_MOLECULAR_FORMULA>
C12H12FN3O4
> <PUBCHEM_MOLECULAR_WEIGHT>
281.24
> <PUBCHEM_OPENEYE_CAN_SMILES>
CC1=CN(C(=O)NC1=O)C2CC(C(O2)C=C(C#N)F)O
> <PUBCHEM_OPENEYE_ISO_SMILES>
CC1=CN(C(=O)NC1=O)[C@H]2C[C@@H]([C@H](O2)C=C(C#N)F)O
> <PUBCHEM_CACTVS_TPSA>
103
> <PUBCHEM_MONOISOTOPIC_WEIGHT>
281.08118403
> <PUBCHEM_TOTAL_CHARGE>
0
> <PUBCHEM_HEAVY_ATOM_COUNT>
20
> <PUBCHEM_ATOM_DEF_STEREO_COUNT>
3
> <PUBCHEM_ATOM_UDEF_STEREO_COUNT>
0
> <PUBCHEM_BOND_DEF_STEREO_COUNT>
0
> <PUBCHEM_BOND_UDEF_STEREO_COUNT>
1
> <PUBCHEM_ISOTOPIC_ATOM_COUNT>
0
> <PUBCHEM_COMPONENT_COUNT>
1
> <PUBCHEM_CACTVS_TAUTO_COUNT>
-1
> <PUBCHEM_COORDINATE_TYPE>
1
5
255
> <PUBCHEM_BONDANNOTATIONS>
12  13  6
13  18  1
14  16  8
16  17  8
11  3  5
6  14  8
6  15  8
9  6  6
7  15  8
7  17  8
$$$$
