507069
  -OEChem-10302200282D
121122  0     1  0  0  0  0  0999 V2000
    2.8660    6.5000    0.0000 O   0  0  0  0  0  0  0  0  0  0  0  0
    2.0000    5.0000    0.0000 O   0  0  0  0  0  0  0  0  0  0  0  0
    5.4641    4.0000    0.0000 O   0  0  0  0  0  0  0  0  0  0  0  0
    6.3301    3.5000    0.0000 O   0  0  0  0  0  0  0  0  0  0  0  0
    8.9282    1.0000    0.0000 O   0  0  0  0  0  0  0  0  0  0  0  0
    9.7942    0.5000    0.0000 O   0  0  0  0  0  0  0  0  0  0  0  0
   13.2583   -0.5000    0.0000 O   0  0  0  0  0  0  0  0  0  0  0  0
   14.9904    0.5000    0.0000 O   0  0  0  0  0  0  0  0  0  0  0  0
   14.1244    2.0000    0.0000 O   0  0  0  0  0  0  0  0  0  0  0  0
   12.3923   -4.0000    0.0000 O   0  0  0  0  0  0  0  0  0  0  0  0
   10.6603   -5.0000    0.0000 O   0  0  0  0  0  0  0  0  0  0  0  0
    9.7942   -3.5000    0.0000 O   0  0  0  0  0  0  0  0  0  0  0  0
   14.9904   -6.5000    0.0000 O   0  0  0  0  0  0  0  0  0  0  0  0
   15.8564   -5.0000    0.0000 O   0  0  0  0  0  0  0  0  0  0  0  0
    3.7320    4.0000    0.0000 N   0  0  0  0  0  0  0  0  0  0  0  0
    5.4641    2.0000    0.0000 N   0  0  0  0  0  0  0  0  0  0  0  0
    8.0622    2.5000    0.0000 N   0  0  0  0  0  0  0  0  0  0  0  0
   10.6603    2.0000    0.0000 N   0  0  0  0  0  0  0  0  0  0  0  0
   11.5263   -0.5000    0.0000 N   0  0  0  0  0  0  0  0  0  0  0  0
   13.2583   -2.5000    0.0000 N   0  0  0  0  0  0  0  0  0  0  0  0
    3.7320    5.0000    0.0000 C   0  0  0  0  0  0  0  0  0  0  0  0
    4.2320    5.8660    0.0000 C   0  0  0  0  0  0  0  0  0  0  0  0
    4.7320    5.0000    0.0000 C   0  0  0  0  0  0  0  0  0  0  0  0
    3.7320    1.0000    0.0000 C   0  0  0  0  0  0  0  0  0  0  0  0
    3.7320    2.0000    0.0000 C   0  0  0  0  0  0  0  0  0  0  0  0
    2.8660    5.5000    0.0000 C   0  0  0  0  0  0  0  0  0  0  0  0
    4.5981    2.5000    0.0000 C   0  0  1  0  0  0  0  0  0  0  0  0
    2.8660    0.5000    0.0000 C   0  0  0  0  0  0  0  0  0  0  0  0
    4.5981    0.5000    0.0000 C   0  0  0  0  0  0  0  0  0  0  0  0
    4.5981    3.5000    0.0000 C   0  0  0  0  0  0  0  0  0  0  0  0
    2.8660   -0.5000    0.0000 C   0  0  0  0  0  0  0  0  0  0  0  0
    4.5981   -0.5000    0.0000 C   0  0  0  0  0  0  0  0  0  0  0  0
    3.7320   -1.0000    0.0000 C   0  0  0  0  0  0  0  0  0  0  0  0
    6.3301    2.5000    0.0000 C   0  0  0  0  0  0  0  0  0  0  0  0
    7.1962    2.0000    0.0000 C   0  0  2  0  0  0  0  0  0  0  0  0
    7.1962    1.0000    0.0000 C   0  0  2  0  0  0  0  0  0  0  0  0
    8.0622    0.5000    0.0000 C   0  0  0  0  0  0  0  0  0  0  0  0
    6.3301    0.5000    0.0000 C   0  0  0  0  0  0  0  0  0  0  0  0
    8.9282    2.0000    0.0000 C   0  0  0  0  0  0  0  0  0  0  0  0
    9.7942    2.5000    0.0000 C   0  0  2  0  0  0  0  0  0  0  0  0
    8.0622   -0.5000    0.0000 C   0  0  0  0  0  0  0  0  0  0  0  0
    9.7942    3.5000    0.0000 C   0  0  0  0  0  0  0  0  0  0  0  0
   10.6603    4.0000    0.0000 C   0  0  0  0  0  0  0  0  0  0  0  0
   10.6603    1.0000    0.0000 C   0  0  0  0  0  0  0  0  0  0  0  0
   10.6603    5.0000    0.0000 C   0  0  0  0  0  0  0  0  0  0  0  0
   11.5263    3.5000    0.0000 C   0  0  0  0  0  0  0  0  0  0  0  0
   11.5263    0.5000    0.0000 C   0  0  1  0  0  0  0  0  0  0  0  0
   12.3923    1.0000    0.0000 C   0  0  0  0  0  0  0  0  0  0  0  0
   13.2583    0.5000    0.0000 C   0  0  0  0  0  0  0  0  0  0  0  0
   12.3923   -1.0000    0.0000 C   0  0  0  0  0  0  0  0  0  0  0  0
   12.3923   -2.0000    0.0000 C   0  0  2  0  0  0  0  0  0  0  0  0
   11.5263   -2.5000    0.0000 C   0  0  0  0  0  0  0  0  0  0  0  0
   14.1244    1.0000    0.0000 C   0  0  0  0  0  0  0  0  0  0  0  0
   11.5263   -3.5000    0.0000 C   0  0  0  0  0  0  0  0  0  0  0  0
   13.2583   -3.5000    0.0000 C   0  0  0  0  0  0  0  0  0  0  0  0
   14.1244   -4.0000    0.0000 C   0  0  0  0  0  0  0  0  0  0  0  0
   10.6603   -4.0000    0.0000 C   0  0  0  0  0  0  0  0  0  0  0  0
   14.1244   -5.0000    0.0000 C   0  0  0  0  0  0  0  0  0  0  0  0
   14.9904   -5.5000    0.0000 C   0  0  0  0  0  0  0  0  0  0  0  0
    4.7070    6.2646    0.0000 H   0  0  0  0  0  0  0  0  0  0  0  0
    3.7571    6.2646    0.0000 H   0  0  0  0  0  0  0  0  0  0  0  0
    4.8397    4.3894    0.0000 H   0  0  0  0  0  0  0  0  0  0  0  0
    5.3147    5.2120    0.0000 H   0  0  0  0  0  0  0  0  0  0  0  0
    3.1951    3.6900    0.0000 H   0  0  0  0  0  0  0  0  0  0  0  0
    4.2690    1.3100    0.0000 H   0  0  0  0  0  0  0  0  0  0  0  0
    3.5200    2.5826    0.0000 H   0  0  0  0  0  0  0  0  0  0  0  0
    3.1215    1.8923    0.0000 H   0  0  0  0  0  0  0  0  0  0  0  0
    4.5981    1.8800    0.0000 H   0  0  0  0  0  0  0  0  0  0  0  0
    2.6540    1.0826    0.0000 H   0  0  0  0  0  0  0  0  0  0  0  0
    2.2554    0.3923    0.0000 H   0  0  0  0  0  0  0  0  0  0  0  0
    5.2087    0.3923    0.0000 H   0  0  0  0  0  0  0  0  0  0  0  0
    4.8101    1.0826    0.0000 H   0  0  0  0  0  0  0  0  0  0  0  0
    2.2554   -0.3923    0.0000 H   0  0  0  0  0  0  0  0  0  0  0  0
    2.6540   -1.0826    0.0000 H   0  0  0  0  0  0  0  0  0  0  0  0
    4.8101   -1.0826    0.0000 H   0  0  0  0  0  0  0  0  0  0  0  0
    5.2087   -0.3923    0.0000 H   0  0  0  0  0  0  0  0  0  0  0  0
    3.3335   -1.4750    0.0000 H   0  0  0  0  0  0  0  0  0  0  0  0
    4.1306   -1.4750    0.0000 H   0  0  0  0  0  0  0  0  0  0  0  0
    5.4641    1.3800    0.0000 H   0  0  0  0  0  0  0  0  0  0  0  0
    2.3291    6.8100    0.0000 H   0  0  0  0  0  0  0  0  0  0  0  0
    7.7331    1.6900    0.0000 H   0  0  0  0  0  0  0  0  0  0  0  0
    6.6592    1.3100    0.0000 H   0  0  0  0  0  0  0  0  0  0  0  0
    8.0622    3.1200    0.0000 H   0  0  0  0  0  0  0  0  0  0  0  0
    8.6728    0.3923    0.0000 H   0  0  0  0  0  0  0  0  0  0  0  0
    8.2742    1.0826    0.0000 H   0  0  0  0  0  0  0  0  0  0  0  0
    6.0201    1.0369    0.0000 H   0  0  0  0  0  0  0  0  0  0  0  0
    5.7932    0.1900    0.0000 H   0  0  0  0  0  0  0  0  0  0  0  0
    6.6401   -0.0369    0.0000 H   0  0  0  0  0  0  0  0  0  0  0  0
    9.7942    1.8800    0.0000 H   0  0  0  0  0  0  0  0  0  0  0  0
    7.4422   -0.5000    0.0000 H   0  0  0  0  0  0  0  0  0  0  0  0
    8.0622   -1.1200    0.0000 H   0  0  0  0  0  0  0  0  0  0  0  0
    8.6822   -0.5000    0.0000 H   0  0  0  0  0  0  0  0  0  0  0  0
    9.5822    4.0826    0.0000 H   0  0  0  0  0  0  0  0  0  0  0  0
    9.1836    3.3923    0.0000 H   0  0  0  0  0  0  0  0  0  0  0  0
   11.1972    4.3100    0.0000 H   0  0  0  0  0  0  0  0  0  0  0  0
   11.1972    2.3100    0.0000 H   0  0  0  0  0  0  0  0  0  0  0  0
   11.2803    5.0000    0.0000 H   0  0  0  0  0  0  0  0  0  0  0  0
   10.6603    5.6200    0.0000 H   0  0  0  0  0  0  0  0  0  0  0  0
   10.0403    5.0000    0.0000 H   0  0  0  0  0  0  0  0  0  0  0  0
   11.2163    2.9631    0.0000 H   0  0  0  0  0  0  0  0  0  0  0  0
   12.0632    3.1900    0.0000 H   0  0  0  0  0  0  0  0  0  0  0  0
   11.8363    4.0369    0.0000 H   0  0  0  0  0  0  0  0  0  0  0  0
   12.0632    0.1900    0.0000 H   0  0  0  0  0  0  0  0  0  0  0  0
   12.7908    1.4750    0.0000 H   0  0  0  0  0  0  0  0  0  0  0  0
   11.9938    1.4750    0.0000 H   0  0  0  0  0  0  0  0  0  0  0  0
   10.9893   -0.8100    0.0000 H   0  0  0  0  0  0  0  0  0  0  0  0
   12.8598    0.0251    0.0000 H   0  0  0  0  0  0  0  0  0  0  0  0
   13.6569    0.0251    0.0000 H   0  0  0  0  0  0  0  0  0  0  0  0
   12.3923   -2.6200    0.0000 H   0  0  0  0  0  0  0  0  0  0  0  0
   11.3142   -1.9174    0.0000 H   0  0  0  0  0  0  0  0  0  0  0  0
   10.9157   -2.6077    0.0000 H   0  0  0  0  0  0  0  0  0  0  0  0
   13.7953   -2.1900    0.0000 H   0  0  0  0  0  0  0  0  0  0  0  0
   11.7383   -4.0826    0.0000 H   0  0  0  0  0  0  0  0  0  0  0  0
   12.1369   -3.3923    0.0000 H   0  0  0  0  0  0  0  0  0  0  0  0
   14.7349   -4.1077    0.0000 H   0  0  0  0  0  0  0  0  0  0  0  0
   14.3364   -3.4174    0.0000 H   0  0  0  0  0  0  0  0  0  0  0  0
   15.5273    0.8100    0.0000 H   0  0  0  0  0  0  0  0  0  0  0  0
   13.5138   -4.8923    0.0000 H   0  0  0  0  0  0  0  0  0  0  0  0
   13.9123   -5.5826    0.0000 H   0  0  0  0  0  0  0  0  0  0  0  0
   10.1233   -5.3100    0.0000 H   0  0  0  0  0  0  0  0  0  0  0  0
   15.5273   -6.8100    0.0000 H   0  0  0  0  0  0  0  0  0  0  0  0
  1 26  1  0  0  0  0
  1 80  1  0  0  0  0
  2 26  2  0  0  0  0
  3 30  2  0  0  0  0
  4 34  2  0  0  0  0
  5 39  2  0  0  0  0
  6 44  2  0  0  0  0
  7 50  2  0  0  0  0
  8 53  1  0  0  0  0
  8117  1  0  0  0  0
  9 53  2  0  0  0  0
 10 55  2  0  0  0  0
 11 57  1  0  0  0  0
 11120  1  0  0  0  0
 12 57  2  0  0  0  0
 13 59  1  0  0  0  0
 13121  1  0  0  0  0
 14 59  2  0  0  0  0
 15 21  1  0  0  0  0
 15 30  1  0  0  0  0
 15 64  1  0  0  0  0
 27 16  1  1  0  0  0
 16 34  1  0  0  0  0
 16 79  1  0  0  0  0
 35 17  1  1  0  0  0
 17 39  1  0  0  0  0
 17 83  1  0  0  0  0
 40 18  1  6  0  0  0
 18 44  1  0  0  0  0
 18 96  1  0  0  0  0
 47 19  1  1  0  0  0
 19 50  1  0  0  0  0
 19106  1  0  0  0  0
 51 20  1  1  0  0  0
 20 55  1  0  0  0  0
 20112  1  0  0  0  0
 21 22  1  0  0  0  0
 21 23  1  0  0  0  0
 21 26  1  0  0  0  0
 22 23  1  0  0  0  0
 22 60  1  0  0  0  0
 22 61  1  0  0  0  0
 23 62  1  0  0  0  0
 23 63  1  0  0  0  0
 24 25  1  0  0  0  0
 24 28  1  0  0  0  0
 24 29  1  0  0  0  0
 24 65  1  0  0  0  0
 25 27  1  0  0  0  0
 25 66  1  0  0  0  0
 25 67  1  0  0  0  0
 27 30  1  0  0  0  0
 27 68  1  0  0  0  0
 28 31  1  0  0  0  0
 28 69  1  0  0  0  0
 28 70  1  0  0  0  0
 29 32  1  0  0  0  0
 29 71  1  0  0  0  0
 29 72  1  0  0  0  0
 31 33  1  0  0  0  0
 31 73  1  0  0  0  0
 31 74  1  0  0  0  0
 32 33  1  0  0  0  0
 32 75  1  0  0  0  0
 32 76  1  0  0  0  0
 33 77  1  0  0  0  0
 33 78  1  0  0  0  0
 34 35  1  0  0  0  0
 35 36  1  0  0  0  0
 35 81  1  0  0  0  0
 36 37  1  0  0  0  0
 36 38  1  6  0  0  0
 36 82  1  0  0  0  0
 37 41  1  0  0  0  0
 37 84  1  0  0  0  0
 37 85  1  0  0  0  0
 38 86  1  0  0  0  0
 38 87  1  0  0  0  0
 38 88  1  0  0  0  0
 39 40  1  0  0  0  0
 40 42  1  0  0  0  0
 40 89  1  0  0  0  0
 41 90  1  0  0  0  0
 41 91  1  0  0  0  0
 41 92  1  0  0  0  0
 42 43  1  0  0  0  0
 42 93  1  0  0  0  0
 42 94  1  0  0  0  0
 43 45  1  0  0  0  0
 43 46  1  0  0  0  0
 43 95  1  0  0  0  0
 44 47  1  0  0  0  0
 45 97  1  0  0  0  0
 45 98  1  0  0  0  0
 45 99  1  0  0  0  0
 46100  1  0  0  0  0
 46101  1  0  0  0  0
 46102  1  0  0  0  0
 47 48  1  0  0  0  0
 47103  1  0  0  0  0
 48 49  1  0  0  0  0
 48104  1  0  0  0  0
 48105  1  0  0  0  0
 49 53  1  0  0  0  0
 49107  1  0  0  0  0
 49108  1  0  0  0  0
 50 51  1  0  0  0  0
 51 52  1  0  0  0  0
 51109  1  0  0  0  0
 52 54  1  0  0  0  0
 52110  1  0  0  0  0
 52111  1  0  0  0  0
 54 57  1  0  0  0  0
 54113  1  0  0  0  0
 54114  1  0  0  0  0
 55 56  1  0  0  0  0
 56 58  1  0  0  0  0
 56115  1  0  0  0  0
 56116  1  0  0  0  0
 58 59  1  0  0  0  0
 58118  1  0  0  0  0
 58119  1  0  0  0  0
M  END
> <PUBCHEM_COMPOUND_CID>
507069
> <PUBCHEM_COMPOUND_CANONICALIZED>
1
> <PUBCHEM_CACTVS_COMPLEXITY>
1540
> <PUBCHEM_CACTVS_HBOND_ACCEPTOR>
14
> <PUBCHEM_CACTVS_HBOND_DONOR>
10
> <PUBCHEM_CACTVS_ROTATABLE_BOND>
27
> <PUBCHEM_CACTVS_SUBSKEYS>
AAADcfB/vAAAAAAAAAAAAAAAGAAAAAAAAAAwAAAAAAAAAAAAAAAAHgAQCAAADajBgAQCCALAAgAIAAGQGAAAAAAAAAAAAIGIAAACQBIAgCAUQAAEFgCQAAG/n4KOAAAAAAAAAAAAAAAAAAAAAAAAAAAAAA==
> <PUBCHEM_IUPAC_OPENEYE_NAME>
1-[[(2S)-2-[[(2S,3S)-2-[[(2S)-2-[[(2R)-4-carboxy-2-[[(2S)-4-carboxy-2-(3-carboxypropanoylamino)butanoyl]amino]butanoyl]amino]-4-methyl-pentanoyl]amino]-3-methyl-pentanoyl]amino]-3-cyclohexyl-propanoyl]amino]cyclopropanecarboxylic acid
> <PUBCHEM_IUPAC_CAS_NAME>
1-[[(2S)-2-[[(2S,3S)-2-[[(2S)-2-[[(2R)-4-carboxy-2-[[(2S)-4-carboxy-2-[(3-carboxy-1-oxopropyl)amino]-1-oxobutyl]amino]-1-oxobutyl]amino]-4-methyl-1-oxopentyl]amino]-3-methyl-1-oxopentyl]amino]-3-cyclohexyl-1-oxopropyl]amino]-1-cyclopropanecarboxylic acid
> <PUBCHEM_IUPAC_NAME_MARKUP>
1-[[(2<I>S</I>)-2-[[(2<I>S</I>,3<I>S</I>)-2-[[(2<I>S</I>)-2-[[(2<I>R</I>)-4-carboxy-2-[[(2<I>S</I>)-4-carboxy-2-(3-carboxypropanoylamino)butanoyl]amino]butanoyl]amino]-4-methylpentanoyl]amino]-3-methylpentanoyl]amino]-3-cyclohexylpropanoyl]amino]cyclopropane-1-carboxylic acid
> <PUBCHEM_IUPAC_NAME>
1-[[(2S)-2-[[(2S,3S)-2-[[(2S)-2-[[(2R)-4-carboxy-2-[[(2S)-4-carboxy-2-(3-carboxypropanoylamino)butanoyl]amino]butanoyl]amino]-4-methylpentanoyl]amino]-3-methylpentanoyl]amino]-3-cyclohexylpropanoyl]amino]cyclopropane-1-carboxylic acid
> <PUBCHEM_IUPAC_SYSTEMATIC_NAME>
1-[[(2S)-3-cyclohexyl-2-[[(2S,3S)-3-methyl-2-[[(2S)-4-methyl-2-[[(2R)-5-oxidanyl-5-oxidanylidene-2-[[(2S)-5-oxidanyl-5-oxidanylidene-2-[(4-oxidanyl-4-oxidanylidene-butanoyl)amino]pentanoyl]amino]pentanoyl]amino]pentanoyl]amino]pentanoyl]amino]propanoyl]amino]cyclopropane-1-carboxylic acid
> <PUBCHEM_IUPAC_TRADITIONAL_NAME>
1-[[(2S)-2-[[(2S,3S)-2-[[(2S)-2-[[(2R)-4-carboxy-2-[[(2S)-4-carboxy-2-(3-carboxypropanoylamino)butanoyl]amino]butanoyl]amino]-4-methyl-pentanoyl]amino]-3-methyl-pentanoyl]amino]-3-cyclohexyl-propanoyl]amino]cyclopropanecarboxylic acid
> <PUBCHEM_IUPAC_INCHI>
InChI=1S/C39H62N6O14/c1-5-22(4)32(37(57)43-27(20-23-9-7-6-8-10-23)36(56)45-39(17-18-39)38(58)59)44-35(55)26(19-21(2)3)42-34(54)25(12-15-30(49)50)41-33(53)24(11-14-29(47)48)40-28(46)13-16-31(51)52/h21-27,32H,5-20H2,1-4H3,(H,40,46)(H,41,53)(H,42,54)(H,43,57)(H,44,55)(H,45,56)(H,47,48)(H,49,50)(H,51,52)(H,58,59)/t22-,24-,25+,26-,27-,32-/m0/s1
> <PUBCHEM_IUPAC_INCHIKEY>
PWPNFUQYJNJBLG-UWIAJDIOSA-N
> <PUBCHEM_XLOGP3_AA>
2
> <PUBCHEM_EXACT_MASS>
838.43240067
> <PUBCHEM_MOLECULAR_FORMULA>
C39H62N6O14
> <PUBCHEM_MOLECULAR_WEIGHT>
838.9
> <PUBCHEM_OPENEYE_CAN_SMILES>
CCC(C)C(C(=O)NC(CC1CCCCC1)C(=O)NC2(CC2)C(=O)O)NC(=O)C(CC(C)C)NC(=O)C(CCC(=O)O)NC(=O)C(CCC(=O)O)NC(=O)CCC(=O)O
> <PUBCHEM_OPENEYE_ISO_SMILES>
CC[C@H](C)[C@@H](C(=O)N[C@@H](CC1CCCCC1)C(=O)NC2(CC2)C(=O)O)NC(=O)[C@H](CC(C)C)NC(=O)[C@@H](CCC(=O)O)NC(=O)[C@H](CCC(=O)O)NC(=O)CCC(=O)O
> <PUBCHEM_CACTVS_TPSA>
324
> <PUBCHEM_MONOISOTOPIC_WEIGHT>
838.43240067
> <PUBCHEM_TOTAL_CHARGE>
0
> <PUBCHEM_HEAVY_ATOM_COUNT>
59
> <PUBCHEM_ATOM_DEF_STEREO_COUNT>
6
> <PUBCHEM_ATOM_UDEF_STEREO_COUNT>
0
> <PUBCHEM_BOND_DEF_STEREO_COUNT>
0
> <PUBCHEM_BOND_UDEF_STEREO_COUNT>
0
> <PUBCHEM_ISOTOPIC_ATOM_COUNT>
0
> <PUBCHEM_COMPONENT_COUNT>
1
> <PUBCHEM_CACTVS_TAUTO_COUNT>
-1
> <PUBCHEM_COORDINATE_TYPE>
1
5
255
> <PUBCHEM_BONDANNOTATIONS>
27  16  5
35  17  5
40  18  6
47  19  5
51  20  5
36  38  6
$$$$
