507040
  -OEChem-10302200282D
 66 69  0     1  0  0  0  0  0999 V2000
   11.3081   -0.5946    0.0000 O   0  0  0  0  0  0  0  0  0  0  0  0
   11.6303    1.3700    0.0000 O   0  0  0  0  0  0  0  0  0  0  0  0
    7.5609   -2.0052    0.0000 O   0  0  0  0  0  0  0  0  0  0  0  0
    3.9887   -2.4945    0.0000 O   0  0  0  0  0  0  0  0  0  0  0  0
    4.1727   -0.7722    0.0000 O   0  0  0  0  0  0  0  0  0  0  0  0
   10.0480    0.6655    0.0000 N   0  0  0  0  0  0  0  0  0  0  0  0
    7.7449   -0.2830    0.0000 N   0  0  0  0  0  0  0  0  0  0  0  0
    5.5722   -1.7927    0.0000 N   0  0  0  0  0  0  0  0  0  0  0  0
    9.5480   -0.8734    0.0000 C   0  0  0  0  0  0  0  0  0  0  0  0
    8.7390   -0.2856    0.0000 C   0  0  2  0  0  0  0  0  0  0  0  0
    9.0480    0.6655    0.0000 C   0  0  2  0  0  0  0  0  0  0  0  0
   10.2551   -1.5805    0.0000 C   0  0  0  0  0  0  0  0  0  0  0  0
    8.8409   -1.5805    0.0000 C   0  0  0  0  0  0  0  0  0  0  0  0
    9.5480   -2.2876    0.0000 C   0  0  0  0  0  0  0  0  0  0  0  0
   10.3570   -0.2856    0.0000 C   0  0  0  0  0  0  0  0  0  0  0  0
    8.2423    1.2477    0.0000 C   0  0  0  0  0  0  0  0  0  0  0  0
    7.4385    0.6627    0.0000 C   0  0  0  0  0  0  0  0  0  0  0  0
   10.6358    1.4745    0.0000 C   0  0  0  0  0  0  0  0  0  0  0  0
   10.2291    2.3880    0.0000 C   0  0  0  0  0  0  0  0  0  0  0  0
    7.1557   -1.0910    0.0000 C   0  0  0  0  0  0  0  0  0  0  0  0
   10.3336    3.3826    0.0000 C   0  0  0  0  0  0  0  0  0  0  0  0
    9.4200    2.9758    0.0000 C   0  0  0  0  0  0  0  0  0  0  0  0
    6.1614   -0.9847    0.0000 C   0  0  2  0  0  0  0  0  0  0  0  0
    5.7562   -0.0705    0.0000 C   0  0  0  0  0  0  0  0  0  0  0  0
    4.7619    0.0358    0.0000 C   0  0  0  0  0  0  0  0  0  0  0  0
    6.3454    0.7375    0.0000 C   0  0  0  0  0  0  0  0  0  0  0  0
    4.5779   -1.6865    0.0000 C   0  0  0  0  0  0  0  0  0  0  0  0
    2.9943   -2.3882    0.0000 C   0  0  0  0  0  0  0  0  0  0  0  0
    2.0000   -2.2820    0.0000 C   0  0  0  0  0  0  0  0  0  0  0  0
    2.8881   -3.3826    0.0000 C   0  0  0  0  0  0  0  0  0  0  0  0
    3.1006   -1.3939    0.0000 C   0  0  0  0  0  0  0  0  0  0  0  0
    8.4753   -1.0936    0.0000 H   0  0  0  0  0  0  0  0  0  0  0  0
    9.3096    1.4742    0.0000 H   0  0  0  0  0  0  0  0  0  0  0  0
   10.6935   -2.0189    0.0000 H   0  0  0  0  0  0  0  0  0  0  0  0
   10.6935   -1.1420    0.0000 H   0  0  0  0  0  0  0  0  0  0  0  0
    8.4025   -1.1420    0.0000 H   0  0  0  0  0  0  0  0  0  0  0  0
    8.4025   -2.0189    0.0000 H   0  0  0  0  0  0  0  0  0  0  0  0
    9.1096   -2.7260    0.0000 H   0  0  0  0  0  0  0  0  0  0  0  0
    9.9864   -2.7260    0.0000 H   0  0  0  0  0  0  0  0  0  0  0  0
    8.6562    1.7093    0.0000 H   0  0  0  0  0  0  0  0  0  0  0  0
    7.8267    1.7079    0.0000 H   0  0  0  0  0  0  0  0  0  0  0  0
    7.1284    1.1995    0.0000 H   0  0  0  0  0  0  0  0  0  0  0  0
    6.8721    0.4107    0.0000 H   0  0  0  0  0  0  0  0  0  0  0  0
   10.8414    2.4850    0.0000 H   0  0  0  0  0  0  0  0  0  0  0  0
   10.9521    3.4258    0.0000 H   0  0  0  0  0  0  0  0  0  0  0  0
   10.1836    3.9842    0.0000 H   0  0  0  0  0  0  0  0  0  0  0  0
    9.0733    3.4898    0.0000 H   0  0  0  0  0  0  0  0  0  0  0  0
    8.9740    2.5452    0.0000 H   0  0  0  0  0  0  0  0  0  0  0  0
    5.5449   -0.9189    0.0000 H   0  0  0  0  0  0  0  0  0  0  0  0
    6.3727   -0.1364    0.0000 H   0  0  0  0  0  0  0  0  0  0  0  0
    5.8234   -2.3596    0.0000 H   0  0  0  0  0  0  0  0  0  0  0  0
    4.8278    0.6523    0.0000 H   0  0  0  0  0  0  0  0  0  0  0  0
    4.1454    0.1016    0.0000 H   0  0  0  0  0  0  0  0  0  0  0  0
    4.6960   -0.5807    0.0000 H   0  0  0  0  0  0  0  0  0  0  0  0
    6.8464    0.3722    0.0000 H   0  0  0  0  0  0  0  0  0  0  0  0
    6.7107    1.2385    0.0000 H   0  0  0  0  0  0  0  0  0  0  0  0
    5.8445    1.1028    0.0000 H   0  0  0  0  0  0  0  0  0  0  0  0
    2.0659   -1.6655    0.0000 H   0  0  0  0  0  0  0  0  0  0  0  0
    1.3835   -2.2161    0.0000 H   0  0  0  0  0  0  0  0  0  0  0  0
    1.9341   -2.8985    0.0000 H   0  0  0  0  0  0  0  0  0  0  0  0
    2.2716   -3.3167    0.0000 H   0  0  0  0  0  0  0  0  0  0  0  0
    2.8222   -3.9991    0.0000 H   0  0  0  0  0  0  0  0  0  0  0  0
    3.5046   -3.4484    0.0000 H   0  0  0  0  0  0  0  0  0  0  0  0
    3.7171   -1.4598    0.0000 H   0  0  0  0  0  0  0  0  0  0  0  0
    3.1665   -0.7774    0.0000 H   0  0  0  0  0  0  0  0  0  0  0  0
    2.4841   -1.3280    0.0000 H   0  0  0  0  0  0  0  0  0  0  0  0
  1 15  2  0  0  0  0
  2 18  2  0  0  0  0
  3 20  2  0  0  0  0
  4 27  1  0  0  0  0
  4 28  1  0  0  0  0
  5 27  2  0  0  0  0
  6 11  1  0  0  0  0
  6 15  1  0  0  0  0
  6 18  1  0  0  0  0
  7 10  1  0  0  0  0
  7 17  1  0  0  0  0
  7 20  1  0  0  0  0
 23  8  1  1  0  0  0
  8 27  1  0  0  0  0
  8 51  1  0  0  0  0
  9 10  1  0  0  0  0
  9 12  1  0  0  0  0
  9 13  1  0  0  0  0
  9 15  1  0  0  0  0
 10 11  1  0  0  0  0
 10 32  1  6  0  0  0
 11 16  1  0  0  0  0
 11 33  1  1  0  0  0
 12 14  1  0  0  0  0
 12 34  1  0  0  0  0
 12 35  1  0  0  0  0
 13 14  1  0  0  0  0
 13 36  1  0  0  0  0
 13 37  1  0  0  0  0
 14 38  1  0  0  0  0
 14 39  1  0  0  0  0
 16 17  1  0  0  0  0
 16 40  1  0  0  0  0
 16 41  1  0  0  0  0
 17 42  1  0  0  0  0
 17 43  1  0  0  0  0
 18 19  1  0  0  0  0
 19 21  1  0  0  0  0
 19 22  1  0  0  0  0
 19 44  1  0  0  0  0
 20 23  1  0  0  0  0
 21 22  1  0  0  0  0
 21 45  1  0  0  0  0
 21 46  1  0  0  0  0
 22 47  1  0  0  0  0
 22 48  1  0  0  0  0
 23 24  1  0  0  0  0
 23 49  1  0  0  0  0
 24 25  1  0  0  0  0
 24 26  1  0  0  0  0
 24 50  1  0  0  0  0
 25 52  1  0  0  0  0
 25 53  1  0  0  0  0
 25 54  1  0  0  0  0
 26 55  1  0  0  0  0
 26 56  1  0  0  0  0
 26 57  1  0  0  0  0
 28 29  1  0  0  0  0
 28 30  1  0  0  0  0
 28 31  1  0  0  0  0
 29 58  1  0  0  0  0
 29 59  1  0  0  0  0
 29 60  1  0  0  0  0
 30 61  1  0  0  0  0
 30 62  1  0  0  0  0
 30 63  1  0  0  0  0
 31 64  1  0  0  0  0
 31 65  1  0  0  0  0
 31 66  1  0  0  0  0
M  END
> <PUBCHEM_COMPOUND_CID>
507040
> <PUBCHEM_COMPOUND_CANONICALIZED>
1
> <PUBCHEM_CACTVS_COMPLEXITY>
794
> <PUBCHEM_CACTVS_HBOND_ACCEPTOR>
5
> <PUBCHEM_CACTVS_HBOND_DONOR>
1
> <PUBCHEM_CACTVS_ROTATABLE_BOND>
6
> <PUBCHEM_CACTVS_SUBSKEYS>
AAADcfB7OAAAAAAAAAAAAAAAGABgAWLAAAAAAAAAAAAWAAAAAAAAHgAQAAAAD2zBgAQCCAPABAAIAAEQGAAAAAAAAAAAAIGIAAEAQBoAwCAcAAAAFiCAAAEciIAPAAAAAAAAAAAAAAAAAAAAAAAAAAAAAA==
> <PUBCHEM_IUPAC_OPENEYE_NAME>
tert-butyl N-[(1S)-1-[(3aS,6aR)-4-(cyclopropanecarbonyl)-5-oxo-spiro[2,3,3a,6a-tetrahydropyrrolo[3,2-b]pyrrole-6,1'-cyclobutane]-1-carbonyl]-2-methyl-propyl]carbamate
> <PUBCHEM_IUPAC_CAS_NAME>
N-[(2S)-1-[(3aS,6aR)-4-[cyclopropyl(oxo)methyl]-5-oxo-1-spiro[2,3,3a,6a-tetrahydropyrrolo[3,2-b]pyrrole-6,1'-cyclobutane]yl]-3-methyl-1-oxobutan-2-yl]carbamic acid tert-butyl ester
> <PUBCHEM_IUPAC_NAME_MARKUP>
<I>tert</I>-butyl <I>N</I>-[(2<I>S</I>)-1-[(3<I>a</I><I>S</I>,6<I>a</I><I>R</I>)-4-(cyclopropanecarbonyl)-5-oxospiro[2,3,3<I>a</I>,6<I>a</I>-tetrahydropyrrolo[3,2-b]pyrrole-6,1&apos;-cyclobutane]-1-yl]-3-methyl-1-oxobutan-2-yl]carbamate
> <PUBCHEM_IUPAC_NAME>
tert-butyl N-[(2S)-1-[(3aS,6aR)-4-(cyclopropanecarbonyl)-5-oxospiro[2,3,3a,6a-tetrahydropyrrolo[3,2-b]pyrrole-6,1'-cyclobutane]-1-yl]-3-methyl-1-oxobutan-2-yl]carbamate
> <PUBCHEM_IUPAC_SYSTEMATIC_NAME>
tert-butyl N-[(2S)-1-[(3aS,6aR)-4-cyclopropylcarbonyl-5-oxidanylidene-spiro[2,3,3a,6a-tetrahydropyrrolo[3,2-b]pyrrole-6,1'-cyclobutane]-1-yl]-3-methyl-1-oxidanylidene-butan-2-yl]carbamate
> <PUBCHEM_IUPAC_TRADITIONAL_NAME>
N-[(1S)-1-[(3aS,6aR)-4-(cyclopropanecarbonyl)-5-keto-spiro[2,3,3a,6a-tetrahydropyrrolo[3,2-b]pyrrole-6,1'-cyclobutane]-1-carbonyl]-2-methyl-propyl]carbamic acid tert-butyl ester
> <PUBCHEM_IUPAC_INCHI>
InChI=1S/C23H35N3O5/c1-13(2)16(24-21(30)31-22(3,4)5)19(28)25-12-9-15-17(25)23(10-6-11-23)20(29)26(15)18(27)14-7-8-14/h13-17H,6-12H2,1-5H3,(H,24,30)/t15-,16-,17-/m0/s1
> <PUBCHEM_IUPAC_INCHIKEY>
YODDBSHHLFFXQX-ULQDDVLXSA-N
> <PUBCHEM_XLOGP3_AA>
2.4
> <PUBCHEM_EXACT_MASS>
433.25767123
> <PUBCHEM_MOLECULAR_FORMULA>
C23H35N3O5
> <PUBCHEM_MOLECULAR_WEIGHT>
433.5
> <PUBCHEM_OPENEYE_CAN_SMILES>
CC(C)C(C(=O)N1CCC2C1C3(CCC3)C(=O)N2C(=O)C4CC4)NC(=O)OC(C)(C)C
> <PUBCHEM_OPENEYE_ISO_SMILES>
CC(C)[C@@H](C(=O)N1CC[C@H]2[C@H]1C3(CCC3)C(=O)N2C(=O)C4CC4)NC(=O)OC(C)(C)C
> <PUBCHEM_CACTVS_TPSA>
96
> <PUBCHEM_MONOISOTOPIC_WEIGHT>
433.25767123
> <PUBCHEM_TOTAL_CHARGE>
0
> <PUBCHEM_HEAVY_ATOM_COUNT>
31
> <PUBCHEM_ATOM_DEF_STEREO_COUNT>
3
> <PUBCHEM_ATOM_UDEF_STEREO_COUNT>
0
> <PUBCHEM_BOND_DEF_STEREO_COUNT>
0
> <PUBCHEM_BOND_UDEF_STEREO_COUNT>
0
> <PUBCHEM_ISOTOPIC_ATOM_COUNT>
0
> <PUBCHEM_COMPONENT_COUNT>
1
> <PUBCHEM_CACTVS_TAUTO_COUNT>
-1
> <PUBCHEM_COORDINATE_TYPE>
1
5
255
> <PUBCHEM_BONDANNOTATIONS>
10  32  6
11  33  5
23  8  5
$$$$
