507054
  -OEChem-10302200282D
105106  0     1  0  0  0  0  0999 V2000
    2.8660    5.4050    0.0000 O   0  0  0  0  0  0  0  0  0  0  0  0
    2.0000    3.9050    0.0000 O   0  0  0  0  0  0  0  0  0  0  0  0
    5.4641    2.9050    0.0000 O   0  0  0  0  0  0  0  0  0  0  0  0
    6.3301    2.4050    0.0000 O   0  0  0  0  0  0  0  0  0  0  0  0
    8.9282   -0.0950    0.0000 O   0  0  0  0  0  0  0  0  0  0  0  0
    9.7942   -0.5950    0.0000 O   0  0  0  0  0  0  0  0  0  0  0  0
   13.2583   -1.5950    0.0000 O   0  0  0  0  0  0  0  0  0  0  0  0
   14.9904   -0.5950    0.0000 O   0  0  0  0  0  0  0  0  0  0  0  0
   14.1244    0.9050    0.0000 O   0  0  0  0  0  0  0  0  0  0  0  0
   14.1244   -5.0950    0.0000 O   0  0  0  0  0  0  0  0  0  0  0  0
   12.3923   -5.0950    0.0000 O   0  0  0  0  0  0  0  0  0  0  0  0
    3.7320    2.9050    0.0000 N   0  0  0  0  0  0  0  0  0  0  0  0
    5.4641    0.9050    0.0000 N   0  0  0  0  0  0  0  0  0  0  0  0
    8.0622    1.4050    0.0000 N   0  0  0  0  0  0  0  0  0  0  0  0
   10.6603    0.9050    0.0000 N   0  0  0  0  0  0  0  0  0  0  0  0
   11.5263   -1.5950    0.0000 N   0  0  0  0  0  0  0  0  0  0  0  0
    3.7320    3.9050    0.0000 C   0  0  0  0  0  0  0  0  0  0  0  0
    4.2320    4.7710    0.0000 C   0  0  0  0  0  0  0  0  0  0  0  0
    4.7320    3.9050    0.0000 C   0  0  0  0  0  0  0  0  0  0  0  0
    3.7320   -0.0950    0.0000 C   0  0  0  0  0  0  0  0  0  0  0  0
    3.7320    0.9050    0.0000 C   0  0  0  0  0  0  0  0  0  0  0  0
    4.5981    1.4050    0.0000 C   0  0  1  0  0  0  0  0  0  0  0  0
    2.8660    4.4050    0.0000 C   0  0  0  0  0  0  0  0  0  0  0  0
    2.8660   -0.5950    0.0000 C   0  0  0  0  0  0  0  0  0  0  0  0
    4.5981   -0.5950    0.0000 C   0  0  0  0  0  0  0  0  0  0  0  0
    4.5981    2.4050    0.0000 C   0  0  0  0  0  0  0  0  0  0  0  0
    2.8660   -1.5950    0.0000 C   0  0  0  0  0  0  0  0  0  0  0  0
    4.5981   -1.5950    0.0000 C   0  0  0  0  0  0  0  0  0  0  0  0
    3.7320   -2.0950    0.0000 C   0  0  0  0  0  0  0  0  0  0  0  0
    6.3301    1.4050    0.0000 C   0  0  0  0  0  0  0  0  0  0  0  0
    7.1962    0.9050    0.0000 C   0  0  2  0  0  0  0  0  0  0  0  0
    7.1962   -0.0950    0.0000 C   0  0  2  0  0  0  0  0  0  0  0  0
    8.0622   -0.5950    0.0000 C   0  0  0  0  0  0  0  0  0  0  0  0
    6.3301   -0.5950    0.0000 C   0  0  0  0  0  0  0  0  0  0  0  0
    8.9282    0.9050    0.0000 C   0  0  0  0  0  0  0  0  0  0  0  0
    9.7942    1.4050    0.0000 C   0  0  2  0  0  0  0  0  0  0  0  0
    9.7942    2.4050    0.0000 C   0  0  0  0  0  0  0  0  0  0  0  0
    8.0622   -1.5950    0.0000 C   0  0  0  0  0  0  0  0  0  0  0  0
   10.6603    2.9050    0.0000 C   0  0  0  0  0  0  0  0  0  0  0  0
   10.6603    3.9050    0.0000 C   0  0  0  0  0  0  0  0  0  0  0  0
   11.5263    2.4050    0.0000 C   0  0  0  0  0  0  0  0  0  0  0  0
   10.6603   -0.0950    0.0000 C   0  0  0  0  0  0  0  0  0  0  0  0
   11.5263   -0.5950    0.0000 C   0  0  1  0  0  0  0  0  0  0  0  0
   12.3923   -0.0950    0.0000 C   0  0  0  0  0  0  0  0  0  0  0  0
   13.2583   -0.5950    0.0000 C   0  0  0  0  0  0  0  0  0  0  0  0
   12.3923   -2.0950    0.0000 C   0  0  0  0  0  0  0  0  0  0  0  0
   12.3923   -3.0950    0.0000 C   0  0  0  0  0  0  0  0  0  0  0  0
   14.1244   -0.0950    0.0000 C   0  0  0  0  0  0  0  0  0  0  0  0
   13.2583   -3.5950    0.0000 C   0  0  0  0  0  0  0  0  0  0  0  0
   13.2583   -4.5950    0.0000 C   0  0  0  0  0  0  0  0  0  0  0  0
    4.7070    5.1696    0.0000 H   0  0  0  0  0  0  0  0  0  0  0  0
    3.7571    5.1696    0.0000 H   0  0  0  0  0  0  0  0  0  0  0  0
    4.8397    3.2944    0.0000 H   0  0  0  0  0  0  0  0  0  0  0  0
    5.3147    4.1170    0.0000 H   0  0  0  0  0  0  0  0  0  0  0  0
    4.2690    0.2150    0.0000 H   0  0  0  0  0  0  0  0  0  0  0  0
    3.1951    2.5950    0.0000 H   0  0  0  0  0  0  0  0  0  0  0  0
    3.5200    1.4876    0.0000 H   0  0  0  0  0  0  0  0  0  0  0  0
    3.1215    0.7973    0.0000 H   0  0  0  0  0  0  0  0  0  0  0  0
    4.5981    0.7850    0.0000 H   0  0  0  0  0  0  0  0  0  0  0  0
    2.6540   -0.0124    0.0000 H   0  0  0  0  0  0  0  0  0  0  0  0
    2.2554   -0.7027    0.0000 H   0  0  0  0  0  0  0  0  0  0  0  0
    5.2087   -0.7027    0.0000 H   0  0  0  0  0  0  0  0  0  0  0  0
    4.8101   -0.0124    0.0000 H   0  0  0  0  0  0  0  0  0  0  0  0
    2.2554   -1.4873    0.0000 H   0  0  0  0  0  0  0  0  0  0  0  0
    2.6540   -2.1776    0.0000 H   0  0  0  0  0  0  0  0  0  0  0  0
    4.8101   -2.1776    0.0000 H   0  0  0  0  0  0  0  0  0  0  0  0
    5.2087   -1.4873    0.0000 H   0  0  0  0  0  0  0  0  0  0  0  0
    3.3335   -2.5700    0.0000 H   0  0  0  0  0  0  0  0  0  0  0  0
    4.1306   -2.5700    0.0000 H   0  0  0  0  0  0  0  0  0  0  0  0
    5.4641    0.2850    0.0000 H   0  0  0  0  0  0  0  0  0  0  0  0
    2.3291    5.7150    0.0000 H   0  0  0  0  0  0  0  0  0  0  0  0
    7.7331    0.5950    0.0000 H   0  0  0  0  0  0  0  0  0  0  0  0
    6.6592    0.2150    0.0000 H   0  0  0  0  0  0  0  0  0  0  0  0
    8.0622    2.0250    0.0000 H   0  0  0  0  0  0  0  0  0  0  0  0
    8.6728   -0.7027    0.0000 H   0  0  0  0  0  0  0  0  0  0  0  0
    8.2742   -0.0124    0.0000 H   0  0  0  0  0  0  0  0  0  0  0  0
    6.0201   -0.0581    0.0000 H   0  0  0  0  0  0  0  0  0  0  0  0
    5.7932   -0.9050    0.0000 H   0  0  0  0  0  0  0  0  0  0  0  0
    6.6401   -1.1319    0.0000 H   0  0  0  0  0  0  0  0  0  0  0  0
    9.7942    0.7850    0.0000 H   0  0  0  0  0  0  0  0  0  0  0  0
    9.5822    2.9876    0.0000 H   0  0  0  0  0  0  0  0  0  0  0  0
    9.1836    2.2973    0.0000 H   0  0  0  0  0  0  0  0  0  0  0  0
    7.4422   -1.5950    0.0000 H   0  0  0  0  0  0  0  0  0  0  0  0
    8.0622   -2.2150    0.0000 H   0  0  0  0  0  0  0  0  0  0  0  0
    8.6822   -1.5950    0.0000 H   0  0  0  0  0  0  0  0  0  0  0  0
   11.1972    3.2150    0.0000 H   0  0  0  0  0  0  0  0  0  0  0  0
   11.1972    1.2150    0.0000 H   0  0  0  0  0  0  0  0  0  0  0  0
   11.2803    3.9050    0.0000 H   0  0  0  0  0  0  0  0  0  0  0  0
   10.6603    4.5250    0.0000 H   0  0  0  0  0  0  0  0  0  0  0  0
   10.0403    3.9050    0.0000 H   0  0  0  0  0  0  0  0  0  0  0  0
   11.2163    1.8681    0.0000 H   0  0  0  0  0  0  0  0  0  0  0  0
   12.0632    2.0950    0.0000 H   0  0  0  0  0  0  0  0  0  0  0  0
   11.8363    2.9419    0.0000 H   0  0  0  0  0  0  0  0  0  0  0  0
   12.0632   -0.9050    0.0000 H   0  0  0  0  0  0  0  0  0  0  0  0
   12.7908    0.3799    0.0000 H   0  0  0  0  0  0  0  0  0  0  0  0
   11.9938    0.3799    0.0000 H   0  0  0  0  0  0  0  0  0  0  0  0
   10.9893   -1.9050    0.0000 H   0  0  0  0  0  0  0  0  0  0  0  0
   12.8598   -1.0700    0.0000 H   0  0  0  0  0  0  0  0  0  0  0  0
   13.6569   -1.0700    0.0000 H   0  0  0  0  0  0  0  0  0  0  0  0
   11.7817   -2.9873    0.0000 H   0  0  0  0  0  0  0  0  0  0  0  0
   12.1803   -3.6776    0.0000 H   0  0  0  0  0  0  0  0  0  0  0  0
   13.8689   -3.7027    0.0000 H   0  0  0  0  0  0  0  0  0  0  0  0
   13.4704   -3.0124    0.0000 H   0  0  0  0  0  0  0  0  0  0  0  0
   15.5273   -0.2850    0.0000 H   0  0  0  0  0  0  0  0  0  0  0  0
   14.1244   -5.7150    0.0000 H   0  0  0  0  0  0  0  0  0  0  0  0
  1 23  1  0  0  0  0
  1 71  1  0  0  0  0
  2 23  2  0  0  0  0
  3 26  2  0  0  0  0
  4 30  2  0  0  0  0
  5 35  2  0  0  0  0
  6 42  2  0  0  0  0
  7 46  2  0  0  0  0
  8 48  1  0  0  0  0
  8104  1  0  0  0  0
  9 48  2  0  0  0  0
 10 50  1  0  0  0  0
 10105  1  0  0  0  0
 11 50  2  0  0  0  0
 12 17  1  0  0  0  0
 12 26  1  0  0  0  0
 12 56  1  0  0  0  0
 22 13  1  1  0  0  0
 13 30  1  0  0  0  0
 13 70  1  0  0  0  0
 31 14  1  1  0  0  0
 14 35  1  0  0  0  0
 14 74  1  0  0  0  0
 36 15  1  6  0  0  0
 15 42  1  0  0  0  0
 15 87  1  0  0  0  0
 43 16  1  1  0  0  0
 16 46  1  0  0  0  0
 16 97  1  0  0  0  0
 17 18  1  0  0  0  0
 17 19  1  0  0  0  0
 17 23  1  0  0  0  0
 18 19  1  0  0  0  0
 18 51  1  0  0  0  0
 18 52  1  0  0  0  0
 19 53  1  0  0  0  0
 19 54  1  0  0  0  0
 20 21  1  0  0  0  0
 20 24  1  0  0  0  0
 20 25  1  0  0  0  0
 20 55  1  0  0  0  0
 21 22  1  0  0  0  0
 21 57  1  0  0  0  0
 21 58  1  0  0  0  0
 22 26  1  0  0  0  0
 22 59  1  0  0  0  0
 24 27  1  0  0  0  0
 24 60  1  0  0  0  0
 24 61  1  0  0  0  0
 25 28  1  0  0  0  0
 25 62  1  0  0  0  0
 25 63  1  0  0  0  0
 27 29  1  0  0  0  0
 27 64  1  0  0  0  0
 27 65  1  0  0  0  0
 28 29  1  0  0  0  0
 28 66  1  0  0  0  0
 28 67  1  0  0  0  0
 29 68  1  0  0  0  0
 29 69  1  0  0  0  0
 30 31  1  0  0  0  0
 31 32  1  0  0  0  0
 31 72  1  0  0  0  0
 32 33  1  0  0  0  0
 32 34  1  6  0  0  0
 32 73  1  0  0  0  0
 33 38  1  0  0  0  0
 33 75  1  0  0  0  0
 33 76  1  0  0  0  0
 34 77  1  0  0  0  0
 34 78  1  0  0  0  0
 34 79  1  0  0  0  0
 35 36  1  0  0  0  0
 36 37  1  0  0  0  0
 36 80  1  0  0  0  0
 37 39  1  0  0  0  0
 37 81  1  0  0  0  0
 37 82  1  0  0  0  0
 38 83  1  0  0  0  0
 38 84  1  0  0  0  0
 38 85  1  0  0  0  0
 39 40  1  0  0  0  0
 39 41  1  0  0  0  0
 39 86  1  0  0  0  0
 40 88  1  0  0  0  0
 40 89  1  0  0  0  0
 40 90  1  0  0  0  0
 41 91  1  0  0  0  0
 41 92  1  0  0  0  0
 41 93  1  0  0  0  0
 42 43  1  0  0  0  0
 43 44  1  0  0  0  0
 43 94  1  0  0  0  0
 44 45  1  0  0  0  0
 44 95  1  0  0  0  0
 44 96  1  0  0  0  0
 45 48  1  0  0  0  0
 45 98  1  0  0  0  0
 45 99  1  0  0  0  0
 46 47  1  0  0  0  0
 47 49  1  0  0  0  0
 47100  1  0  0  0  0
 47101  1  0  0  0  0
 49 50  1  0  0  0  0
 49102  1  0  0  0  0
 49103  1  0  0  0  0
M  END
> <PUBCHEM_COMPOUND_CID>
507054
> <PUBCHEM_COMPOUND_CANONICALIZED>
1
> <PUBCHEM_CACTVS_COMPLEXITY>
1250
> <PUBCHEM_CACTVS_HBOND_ACCEPTOR>
11
> <PUBCHEM_CACTVS_HBOND_DONOR>
8
> <PUBCHEM_CACTVS_ROTATABLE_BOND>
22
> <PUBCHEM_CACTVS_SUBSKEYS>
AAADcfB/vAAAAAAAAAAAAAAAGAAAAAAAAAAwAAAAAAAAAAAAAAAAHgAQCAAADajBgAQCCALAAgAIAAGQGAAAAAAAAAAAAIGIAAACQBIAgCAUQAAEFgCQAAG/n4KOAAAAAAAAAAAAAAAAAAAAAAAAAAAAAA==
> <PUBCHEM_IUPAC_OPENEYE_NAME>
1-[[(2S)-2-[[(2S,3S)-2-[[(2S)-2-[[(2R)-4-carboxy-2-(3-carboxypropanoylamino)butanoyl]amino]-4-methyl-pentanoyl]amino]-3-methyl-pentanoyl]amino]-3-cyclohexyl-propanoyl]amino]cyclopropanecarboxylic acid
> <PUBCHEM_IUPAC_CAS_NAME>
1-[[(2S)-2-[[(2S,3S)-2-[[(2S)-2-[[(2R)-4-carboxy-2-[(3-carboxy-1-oxopropyl)amino]-1-oxobutyl]amino]-4-methyl-1-oxopentyl]amino]-3-methyl-1-oxopentyl]amino]-3-cyclohexyl-1-oxopropyl]amino]-1-cyclopropanecarboxylic acid
> <PUBCHEM_IUPAC_NAME_MARKUP>
1-[[(2<I>S</I>)-2-[[(2<I>S</I>,3<I>S</I>)-2-[[(2<I>S</I>)-2-[[(2<I>R</I>)-4-carboxy-2-(3-carboxypropanoylamino)butanoyl]amino]-4-methylpentanoyl]amino]-3-methylpentanoyl]amino]-3-cyclohexylpropanoyl]amino]cyclopropane-1-carboxylic acid
> <PUBCHEM_IUPAC_NAME>
1-[[(2S)-2-[[(2S,3S)-2-[[(2S)-2-[[(2R)-4-carboxy-2-(3-carboxypropanoylamino)butanoyl]amino]-4-methylpentanoyl]amino]-3-methylpentanoyl]amino]-3-cyclohexylpropanoyl]amino]cyclopropane-1-carboxylic acid
> <PUBCHEM_IUPAC_SYSTEMATIC_NAME>
1-[[(2S)-3-cyclohexyl-2-[[(2S,3S)-3-methyl-2-[[(2S)-4-methyl-2-[[(2R)-5-oxidanyl-5-oxidanylidene-2-[(4-oxidanyl-4-oxidanylidene-butanoyl)amino]pentanoyl]amino]pentanoyl]amino]pentanoyl]amino]propanoyl]amino]cyclopropane-1-carboxylic acid
> <PUBCHEM_IUPAC_TRADITIONAL_NAME>
1-[[(2S)-2-[[(2S,3S)-2-[[(2S)-2-[[(2R)-4-carboxy-2-(3-carboxypropanoylamino)butanoyl]amino]-4-methyl-pentanoyl]amino]-3-methyl-pentanoyl]amino]-3-cyclohexyl-propanoyl]amino]cyclopropanecarboxylic acid
> <PUBCHEM_IUPAC_INCHI>
InChI=1S/C34H55N5O11/c1-5-20(4)28(32(48)37-24(18-21-9-7-6-8-10-21)31(47)39-34(15-16-34)33(49)50)38-30(46)23(17-19(2)3)36-29(45)22(11-13-26(41)42)35-25(40)12-14-27(43)44/h19-24,28H,5-18H2,1-4H3,(H,35,40)(H,36,45)(H,37,48)(H,38,46)(H,39,47)(H,41,42)(H,43,44)(H,49,50)/t20-,22+,23-,24-,28-/m0/s1
> <PUBCHEM_IUPAC_INCHIKEY>
ZPBWNCIAJDGHJX-HHUBCNRQSA-N
> <PUBCHEM_XLOGP3_AA>
2.8
> <PUBCHEM_EXACT_MASS>
709.38980759
> <PUBCHEM_MOLECULAR_FORMULA>
C34H55N5O11
> <PUBCHEM_MOLECULAR_WEIGHT>
709.8
> <PUBCHEM_OPENEYE_CAN_SMILES>
CCC(C)C(C(=O)NC(CC1CCCCC1)C(=O)NC2(CC2)C(=O)O)NC(=O)C(CC(C)C)NC(=O)C(CCC(=O)O)NC(=O)CCC(=O)O
> <PUBCHEM_OPENEYE_ISO_SMILES>
CC[C@H](C)[C@@H](C(=O)N[C@@H](CC1CCCCC1)C(=O)NC2(CC2)C(=O)O)NC(=O)[C@H](CC(C)C)NC(=O)[C@@H](CCC(=O)O)NC(=O)CCC(=O)O
> <PUBCHEM_CACTVS_TPSA>
257
> <PUBCHEM_MONOISOTOPIC_WEIGHT>
709.38980759
> <PUBCHEM_TOTAL_CHARGE>
0
> <PUBCHEM_HEAVY_ATOM_COUNT>
50
> <PUBCHEM_ATOM_DEF_STEREO_COUNT>
5
> <PUBCHEM_ATOM_UDEF_STEREO_COUNT>
0
> <PUBCHEM_BOND_DEF_STEREO_COUNT>
0
> <PUBCHEM_BOND_UDEF_STEREO_COUNT>
0
> <PUBCHEM_ISOTOPIC_ATOM_COUNT>
0
> <PUBCHEM_COMPONENT_COUNT>
1
> <PUBCHEM_CACTVS_TAUTO_COUNT>
-1
> <PUBCHEM_COORDINATE_TYPE>
1
5
255
> <PUBCHEM_BONDANNOTATIONS>
22  13  5
31  14  5
36  15  6
43  16  5
32  34  6
$$$$
