507090
  -OEChem-10302200282D
 61 65  0     1  0  0  0  0  0999 V2000
    0.0000   13.0099    0.0000 Cl  0  0  0  0  0  0  0  0  0  0  0  0
    0.0000    4.1565    0.0000 Cl  0  0  0  0  0  0  0  0  0  0  0  0
    4.5301   11.3020    0.0000 F   0  0  0  0  0  0  0  0  0  0  0  0
    3.5301   11.3021    0.0000 F   0  0  0  0  0  0  0  0  0  0  0  0
    5.0301   12.1681    0.0000 F   0  0  0  0  0  0  0  0  0  0  0  0
    4.5301    2.4486    0.0000 F   0  0  0  0  0  0  0  0  0  0  0  0
    4.8961    3.8147    0.0000 F   0  0  0  0  0  0  0  0  0  0  0  0
    3.5301    2.4487    0.0000 F   0  0  0  0  0  0  0  0  0  0  0  0
    4.3961    4.6807    0.0000 O   0  0  0  0  0  0  0  0  0  0  0  0
    5.2622   15.0341    0.0000 O   0  0  0  0  0  0  0  0  0  0  0  0
    5.2622    6.1807    0.0000 O   0  0  0  0  0  0  0  0  0  0  0  0
    4.3961   13.5341    0.0000 N   0  0  0  0  0  0  0  0  0  0  0  0
    3.5301   15.0341    0.0000 N   0  0  0  0  0  0  0  0  0  0  0  0
    3.5301    6.1807    0.0000 N   0  0  0  0  0  0  0  0  0  0  0  0
    2.0301   10.4360    0.0000 C   0  0  0  0  0  0  0  0  0  0  0  0
    1.1641    9.9360    0.0000 C   0  0  0  0  0  0  0  0  0  0  0  0
    2.0301    9.4360    0.0000 C   0  0  0  0  0  0  0  0  0  0  0  0
    2.0301    1.5826    0.0000 C   0  0  0  0  0  0  0  0  0  0  0  0
    1.1641    1.0826    0.0000 C   0  0  0  0  0  0  0  0  0  0  0  0
    2.0301    0.5826    0.0000 C   0  0  0  0  0  0  0  0  0  0  0  0
    2.5301   11.3020    0.0000 C   0  0  0  0  0  0  0  0  0  0  0  0
    2.5301    2.4486    0.0000 C   0  0  0  0  0  0  0  0  0  0  0  0
    3.5301   13.0341    0.0000 C   0  0  1  0  0  0  0  0  0  0  0  0
    3.0301   12.1681    0.0000 C   0  0  0  0  0  0  0  0  0  0  0  0
    3.5301    4.1807    0.0000 C   0  0  1  0  0  0  0  0  0  0  0  0
    2.6641   13.5341    0.0000 C   0  0  0  0  0  0  0  0  0  0  0  0
    3.0301    3.3147    0.0000 C   0  0  0  0  0  0  0  0  0  0  0  0
    4.0301   12.1681    0.0000 C   0  0  0  0  0  0  0  0  0  0  0  0
    2.6641   14.5341    0.0000 C   0  0  0  0  0  0  0  0  0  0  0  0
    2.6641    4.6807    0.0000 C   0  0  0  0  0  0  0  0  0  0  0  0
    4.0301    3.3147    0.0000 C   0  0  0  0  0  0  0  0  0  0  0  0
    1.7702   12.9994    0.0000 C   0  0  0  0  0  0  0  0  0  0  0  0
    4.3961   14.5341    0.0000 C   0  0  0  0  0  0  0  0  0  0  0  0
    2.6641    5.6807    0.0000 C   0  0  0  0  0  0  0  0  0  0  0  0
    1.7702   15.0688    0.0000 C   0  0  0  0  0  0  0  0  0  0  0  0
    1.7702    4.1460    0.0000 C   0  0  0  0  0  0  0  0  0  0  0  0
    0.8641   13.5133    0.0000 C   0  0  0  0  0  0  0  0  0  0  0  0
    4.3961    5.6807    0.0000 C   0  0  0  0  0  0  0  0  0  0  0  0
    0.8641   14.5549    0.0000 C   0  0  0  0  0  0  0  0  0  0  0  0
    1.7702    6.2154    0.0000 C   0  0  0  0  0  0  0  0  0  0  0  0
    0.8641    4.6599    0.0000 C   0  0  0  0  0  0  0  0  0  0  0  0
    0.8641    5.7015    0.0000 C   0  0  0  0  0  0  0  0  0  0  0  0
    2.6290   10.2755    0.0000 H   0  0  0  0  0  0  0  0  0  0  0  0
    0.7656   10.4110    0.0000 H   0  0  0  0  0  0  0  0  0  0  0  0
    0.7656    9.4611    0.0000 H   0  0  0  0  0  0  0  0  0  0  0  0
    1.8181    8.8534    0.0000 H   0  0  0  0  0  0  0  0  0  0  0  0
    2.6407    9.3284    0.0000 H   0  0  0  0  0  0  0  0  0  0  0  0
    2.6290    1.4221    0.0000 H   0  0  0  0  0  0  0  0  0  0  0  0
    0.7656    1.5576    0.0000 H   0  0  0  0  0  0  0  0  0  0  0  0
    0.7656    0.6077    0.0000 H   0  0  0  0  0  0  0  0  0  0  0  0
    1.8181    0.0000    0.0000 H   0  0  0  0  0  0  0  0  0  0  0  0
    2.6407    0.4749    0.0000 H   0  0  0  0  0  0  0  0  0  0  0  0
    5.0162   13.5341    0.0000 H   0  0  0  0  0  0  0  0  0  0  0  0
    1.7773   12.3795    0.0000 H   0  0  0  0  0  0  0  0  0  0  0  0
    3.5301   15.6541    0.0000 H   0  0  0  0  0  0  0  0  0  0  0  0
    1.7773   15.6887    0.0000 H   0  0  0  0  0  0  0  0  0  0  0  0
    1.7773    3.5261    0.0000 H   0  0  0  0  0  0  0  0  0  0  0  0
    3.5301    6.8007    0.0000 H   0  0  0  0  0  0  0  0  0  0  0  0
    0.3284   14.8670    0.0000 H   0  0  0  0  0  0  0  0  0  0  0  0
    1.7773    6.8353    0.0000 H   0  0  0  0  0  0  0  0  0  0  0  0
    0.3284    6.0136    0.0000 H   0  0  0  0  0  0  0  0  0  0  0  0
  1 37  1  0  0  0  0
  2 41  1  0  0  0  0
  3 28  1  0  0  0  0
  4 28  1  0  0  0  0
  5 28  1  0  0  0  0
  6 31  1  0  0  0  0
  7 31  1  0  0  0  0
  8 31  1  0  0  0  0
  9 25  1  0  0  0  0
  9 38  1  0  0  0  0
 10 33  2  0  0  0  0
 11 38  2  0  0  0  0
 12 23  1  0  0  0  0
 12 33  1  0  0  0  0
 12 53  1  0  0  0  0
 13 29  1  0  0  0  0
 13 33  1  0  0  0  0
 13 55  1  0  0  0  0
 14 34  1  0  0  0  0
 14 38  1  0  0  0  0
 14 58  1  0  0  0  0
 15 16  1  0  0  0  0
 15 17  1  0  0  0  0
 15 21  1  0  0  0  0
 15 43  1  0  0  0  0
 16 17  1  0  0  0  0
 16 44  1  0  0  0  0
 16 45  1  0  0  0  0
 17 46  1  0  0  0  0
 17 47  1  0  0  0  0
 18 19  1  0  0  0  0
 18 20  1  0  0  0  0
 18 22  1  0  0  0  0
 18 48  1  0  0  0  0
 19 20  1  0  0  0  0
 19 49  1  0  0  0  0
 19 50  1  0  0  0  0
 20 51  1  0  0  0  0
 20 52  1  0  0  0  0
 21 24  3  0  0  0  0
 22 27  3  0  0  0  0
 23 24  1  1  0  0  0
 23 26  1  0  0  0  0
 23 28  1  0  0  0  0
 25 27  1  1  0  0  0
 25 30  1  0  0  0  0
 25 31  1  0  0  0  0
 26 29  2  0  0  0  0
 26 32  1  0  0  0  0
 29 35  1  0  0  0  0
 30 34  2  0  0  0  0
 30 36  1  0  0  0  0
 32 37  2  0  0  0  0
 32 54  1  0  0  0  0
 34 40  1  0  0  0  0
 35 39  2  0  0  0  0
 35 56  1  0  0  0  0
 36 41  2  0  0  0  0
 36 57  1  0  0  0  0
 37 39  1  0  0  0  0
 39 59  1  0  0  0  0
 40 42  2  0  0  0  0
 40 60  1  0  0  0  0
 41 42  1  0  0  0  0
 42 61  1  0  0  0  0
M  END
> <PUBCHEM_COMPOUND_CID>
507090
> <PUBCHEM_COMPOUND_CANONICALIZED>
1
> <PUBCHEM_CACTVS_COMPLEXITY>
1040
> <PUBCHEM_CACTVS_HBOND_ACCEPTOR>
9
> <PUBCHEM_CACTVS_HBOND_DONOR>
3
> <PUBCHEM_CACTVS_ROTATABLE_BOND>
2
> <PUBCHEM_CACTVS_SUBSKEYS>
AAADceB7McAGAAAAAAAAAAAAGDAAAAAAAAA8eIEAAAAAAACxQAAAHwIQAAAADc6BmDAxyILABADIEiRCWAiCAAAhBwAIiAAAbomIJiLB85mMMAhu1ANI6CeQwOAOgABAIAACAAAAAIBAAAQAAAAAAAAAAA==
> <PUBCHEM_IUPAC_OPENEYE_NAME>
(4S)-6-chloro-4-(2-cyclopropylethynyl)-4-(trifluoromethyl)-1H-3,1-benzoxazin-2-one;(4S)-6-chloro-4-(2-cyclopropylethynyl)-4-(trifluoromethyl)-1,3-dihydroquinazolin-2-one
> <PUBCHEM_IUPAC_CAS_NAME>
(4S)-6-chloro-4-(2-cyclopropylethynyl)-4-(trifluoromethyl)-1H-3,1-benzoxazin-2-one;(4S)-6-chloro-4-(2-cyclopropylethynyl)-4-(trifluoromethyl)-1,3-dihydroquinazolin-2-one
> <PUBCHEM_IUPAC_NAME_MARKUP>
(4<I>S</I>)-6-chloro-4-(2-cyclopropylethynyl)-4-(trifluoromethyl)-1<I>H</I>-3,1-benzoxazin-2-one;(4<I>S</I>)-6-chloro-4-(2-cyclopropylethynyl)-4-(trifluoromethyl)-1,3-dihydroquinazolin-2-one
> <PUBCHEM_IUPAC_NAME>
(4S)-6-chloro-4-(2-cyclopropylethynyl)-4-(trifluoromethyl)-1H-3,1-benzoxazin-2-one;(4S)-6-chloro-4-(2-cyclopropylethynyl)-4-(trifluoromethyl)-1,3-dihydroquinazolin-2-one
> <PUBCHEM_IUPAC_SYSTEMATIC_NAME>
(4S)-6-chloranyl-4-(2-cyclopropylethynyl)-4-(trifluoromethyl)-1H-3,1-benzoxazin-2-one;(4S)-6-chloranyl-4-(2-cyclopropylethynyl)-4-(trifluoromethyl)-1,3-dihydroquinazolin-2-one
> <PUBCHEM_IUPAC_TRADITIONAL_NAME>
(4S)-6-chloro-4-(2-cyclopropylethynyl)-4-(trifluoromethyl)-1H-3,1-benzoxazin-2-one;(4S)-6-chloro-4-(2-cyclopropylethynyl)-4-(trifluoromethyl)-1,3-dihydroquinazolin-2-one
> <PUBCHEM_IUPAC_INCHI>
InChI=1S/C14H10ClF3N2O.C14H9ClF3NO2/c15-9-3-4-11-10(7-9)13(14(16,17)18,20-12(21)19-11)6-5-8-1-2-8;15-9-3-4-11-10(7-9)13(14(16,17)18,21-12(20)19-11)6-5-8-1-2-8/h3-4,7-8H,1-2H2,(H2,19,20,21);3-4,7-8H,1-2H2,(H,19,20)/t2*13-/m00/s1
> <PUBCHEM_IUPAC_INCHIKEY>
FFVBPMIVMSCLLM-CHNGVTQJSA-N
> <PUBCHEM_EXACT_MASS>
629.0707658
> <PUBCHEM_MOLECULAR_FORMULA>
C28H19Cl2F6N3O3
> <PUBCHEM_MOLECULAR_WEIGHT>
630.4
> <PUBCHEM_OPENEYE_CAN_SMILES>
C1CC1C#CC2(C3=C(C=CC(=C3)Cl)NC(=O)N2)C(F)(F)F.C1CC1C#CC2(C3=C(C=CC(=C3)Cl)NC(=O)O2)C(F)(F)F
> <PUBCHEM_OPENEYE_ISO_SMILES>
C1CC1C#C[C@]2(C3=C(C=CC(=C3)Cl)NC(=O)N2)C(F)(F)F.C1CC1C#C[C@]2(C3=C(C=CC(=C3)Cl)NC(=O)O2)C(F)(F)F
> <PUBCHEM_CACTVS_TPSA>
79.5
> <PUBCHEM_MONOISOTOPIC_WEIGHT>
629.0707658
> <PUBCHEM_TOTAL_CHARGE>
0
> <PUBCHEM_HEAVY_ATOM_COUNT>
42
> <PUBCHEM_ATOM_DEF_STEREO_COUNT>
2
> <PUBCHEM_ATOM_UDEF_STEREO_COUNT>
0
> <PUBCHEM_BOND_DEF_STEREO_COUNT>
0
> <PUBCHEM_BOND_UDEF_STEREO_COUNT>
0
> <PUBCHEM_ISOTOPIC_ATOM_COUNT>
0
> <PUBCHEM_COMPONENT_COUNT>
2
> <PUBCHEM_CACTVS_TAUTO_COUNT>
-1
> <PUBCHEM_COORDINATE_TYPE>
1
5
255
> <PUBCHEM_BONDANNOTATIONS>
23  24  5
25  27  5
26  29  8
26  32  8
29  35  8
30  34  8
30  36  8
32  37  8
34  40  8
35  39  8
36  41  8
37  39  8
40  42  8
41  42  8
$$$$
