507075
  -OEChem-10302200282D
135137  0     1  0  0  0  0  0999 V2000
    4.5981   -7.8100    0.0000 S   0  0  0  0  0  0  0  0  0  0  0  0
    6.3301   -6.8100    0.0000 O   0  0  0  0  0  0  0  0  0  0  0  0
    5.4641   -3.3100    0.0000 O   0  0  0  0  0  0  0  0  0  0  0  0
    5.5981   -7.8100    0.0000 O   0  0  0  0  0  0  0  0  0  0  0  0
    3.5981   -7.8100    0.0000 O   0  0  0  0  0  0  0  0  0  0  0  0
    5.4641   -2.3100    0.0000 O   0  0  0  0  0  0  0  0  0  0  0  0
    6.3301    1.1900    0.0000 O   0  0  0  0  0  0  0  0  0  0  0  0
    6.3301    2.1900    0.0000 O   0  0  0  0  0  0  0  0  0  0  0  0
    5.4641    5.6900    0.0000 O   0  0  0  0  0  0  0  0  0  0  0  0
    3.7320    6.6900    0.0000 O   0  0  0  0  0  0  0  0  0  0  0  0
    2.8660    5.1900    0.0000 O   0  0  0  0  0  0  0  0  0  0  0  0
    8.9282    6.6900    0.0000 O   0  0  0  0  0  0  0  0  0  0  0  0
   10.6603    5.6900    0.0000 O   0  0  0  0  0  0  0  0  0  0  0  0
    9.7942    4.1900    0.0000 O   0  0  0  0  0  0  0  0  0  0  0  0
    9.7942   10.1900    0.0000 O   0  0  0  0  0  0  0  0  0  0  0  0
    8.0622   10.1900    0.0000 O   0  0  0  0  0  0  0  0  0  0  0  0
    6.3301   -4.8100    0.0000 N   0  0  0  0  0  0  0  0  0  0  0  0
    4.5981   -6.8100    0.0000 N   0  0  0  0  0  0  0  0  0  0  0  0
    7.1962   -2.3100    0.0000 N   0  0  0  0  0  0  0  0  0  0  0  0
    5.4641   -0.3100    0.0000 N   0  0  0  0  0  0  0  0  0  0  0  0
    4.5981    2.1900    0.0000 N   0  0  0  0  0  0  0  0  0  0  0  0
    6.3301    4.1900    0.0000 N   0  0  0  0  0  0  0  0  0  0  0  0
    7.1962    6.6900    0.0000 N   0  0  0  0  0  0  0  0  0  0  0  0
    5.4641   -5.3100    0.0000 C   0  0  0  0  0  0  0  0  0  0  0  0
    4.9641   -4.4440    0.0000 C   0  0  0  0  0  0  0  0  0  0  0  0
    4.4641   -5.3100    0.0000 C   0  0  0  0  0  0  0  0  0  0  0  0
    5.4641   -6.3100    0.0000 C   0  0  0  0  0  0  0  0  0  0  0  0
    8.9282   -3.3100    0.0000 C   0  0  0  0  0  0  0  0  0  0  0  0
    7.1962   -3.3100    0.0000 C   0  0  1  0  0  0  0  0  0  0  0  0
    8.0622   -3.8100    0.0000 C   0  0  0  0  0  0  0  0  0  0  0  0
    6.3301   -3.8100    0.0000 C   0  0  0  0  0  0  0  0  0  0  0  0
    9.7942   -3.8100    0.0000 C   0  0  0  0  0  0  0  0  0  0  0  0
    8.9282   -2.3100    0.0000 C   0  0  0  0  0  0  0  0  0  0  0  0
   10.6603   -3.3100    0.0000 C   0  0  0  0  0  0  0  0  0  0  0  0
    9.7942   -1.8100    0.0000 C   0  0  0  0  0  0  0  0  0  0  0  0
   10.6603   -2.3100    0.0000 C   0  0  0  0  0  0  0  0  0  0  0  0
    6.3301   -1.8100    0.0000 C   0  0  0  0  0  0  0  0  0  0  0  0
    6.3301   -0.8100    0.0000 C   0  0  2  0  0  0  0  0  0  0  0  0
    7.1962   -0.3100    0.0000 C   0  0  2  0  0  0  0  0  0  0  0  0
    4.5981   -8.8100    0.0000 C   0  0  0  0  0  0  0  0  0  0  0  0
    7.1962    0.6900    0.0000 C   0  0  0  0  0  0  0  0  0  0  0  0
    8.0622   -0.8100    0.0000 C   0  0  0  0  0  0  0  0  0  0  0  0
    5.4641   -9.3100    0.0000 C   0  0  0  0  0  0  0  0  0  0  0  0
    3.7320   -9.3100    0.0000 C   0  0  0  0  0  0  0  0  0  0  0  0
    5.4641    0.6900    0.0000 C   0  0  0  0  0  0  0  0  0  0  0  0
    4.5981    1.1900    0.0000 C   0  0  2  0  0  0  0  0  0  0  0  0
    8.0622    1.1900    0.0000 C   0  0  0  0  0  0  0  0  0  0  0  0
    5.4641  -10.3100    0.0000 C   0  0  0  0  0  0  0  0  0  0  0  0
    3.7320  -10.3100    0.0000 C   0  0  0  0  0  0  0  0  0  0  0  0
    3.7320    0.6900    0.0000 C   0  0  0  0  0  0  0  0  0  0  0  0
    4.5981  -10.8100    0.0000 C   0  0  0  0  0  0  0  0  0  0  0  0
    2.8660    1.1900    0.0000 C   0  0  0  0  0  0  0  0  0  0  0  0
    5.4641    2.6900    0.0000 C   0  0  0  0  0  0  0  0  0  0  0  0
    2.0000    0.6900    0.0000 C   0  0  0  0  0  0  0  0  0  0  0  0
    2.8660    2.1900    0.0000 C   0  0  0  0  0  0  0  0  0  0  0  0
    5.4641    3.6900    0.0000 C   0  0  1  0  0  0  0  0  0  0  0  0
    4.5981    4.1900    0.0000 C   0  0  0  0  0  0  0  0  0  0  0  0
    4.5981    5.1900    0.0000 C   0  0  0  0  0  0  0  0  0  0  0  0
    6.3301    5.1900    0.0000 C   0  0  0  0  0  0  0  0  0  0  0  0
    7.1962    5.6900    0.0000 C   0  0  2  0  0  0  0  0  0  0  0  0
    8.0622    5.1900    0.0000 C   0  0  0  0  0  0  0  0  0  0  0  0
    3.7320    5.6900    0.0000 C   0  0  0  0  0  0  0  0  0  0  0  0
    8.9282    5.6900    0.0000 C   0  0  0  0  0  0  0  0  0  0  0  0
    8.0622    7.1900    0.0000 C   0  0  0  0  0  0  0  0  0  0  0  0
    8.0622    8.1900    0.0000 C   0  0  0  0  0  0  0  0  0  0  0  0
    9.7942    5.1900    0.0000 C   0  0  0  0  0  0  0  0  0  0  0  0
    8.9282    8.6900    0.0000 C   0  0  0  0  0  0  0  0  0  0  0  0
    8.9282    9.6900    0.0000 C   0  0  0  0  0  0  0  0  0  0  0  0
    5.4390   -4.0454    0.0000 H   0  0  0  0  0  0  0  0  0  0  0  0
    4.4892   -4.0454    0.0000 H   0  0  0  0  0  0  0  0  0  0  0  0
    3.8815   -5.0980    0.0000 H   0  0  0  0  0  0  0  0  0  0  0  0
    4.3564   -5.9206    0.0000 H   0  0  0  0  0  0  0  0  0  0  0  0
    6.8671   -5.1200    0.0000 H   0  0  0  0  0  0  0  0  0  0  0  0
    8.9282   -3.9300    0.0000 H   0  0  0  0  0  0  0  0  0  0  0  0
    6.6592   -3.0000    0.0000 H   0  0  0  0  0  0  0  0  0  0  0  0
    7.6636   -4.2850    0.0000 H   0  0  0  0  0  0  0  0  0  0  0  0
    8.4607   -4.2850    0.0000 H   0  0  0  0  0  0  0  0  0  0  0  0
    9.3957   -4.2850    0.0000 H   0  0  0  0  0  0  0  0  0  0  0  0
   10.1928   -4.2850    0.0000 H   0  0  0  0  0  0  0  0  0  0  0  0
    8.7162   -1.7274    0.0000 H   0  0  0  0  0  0  0  0  0  0  0  0
    8.3176   -2.4177    0.0000 H   0  0  0  0  0  0  0  0  0  0  0  0
   10.8723   -3.8926    0.0000 H   0  0  0  0  0  0  0  0  0  0  0  0
   11.2708   -3.2023    0.0000 H   0  0  0  0  0  0  0  0  0  0  0  0
   10.1928   -1.3350    0.0000 H   0  0  0  0  0  0  0  0  0  0  0  0
    9.3957   -1.3350    0.0000 H   0  0  0  0  0  0  0  0  0  0  0  0
   11.2708   -2.4177    0.0000 H   0  0  0  0  0  0  0  0  0  0  0  0
   10.8723   -1.7274    0.0000 H   0  0  0  0  0  0  0  0  0  0  0  0
    4.0611   -6.5000    0.0000 H   0  0  0  0  0  0  0  0  0  0  0  0
    7.7331   -2.0000    0.0000 H   0  0  0  0  0  0  0  0  0  0  0  0
    5.7932   -1.1200    0.0000 H   0  0  0  0  0  0  0  0  0  0  0  0
    7.7331    0.0000    0.0000 H   0  0  0  0  0  0  0  0  0  0  0  0
    4.9272   -0.6200    0.0000 H   0  0  0  0  0  0  0  0  0  0  0  0
    6.9841    1.2726    0.0000 H   0  0  0  0  0  0  0  0  0  0  0  0
    6.5856    0.5823    0.0000 H   0  0  0  0  0  0  0  0  0  0  0  0
    7.7522   -1.3469    0.0000 H   0  0  0  0  0  0  0  0  0  0  0  0
    8.5991   -1.1200    0.0000 H   0  0  0  0  0  0  0  0  0  0  0  0
    8.3722   -0.2731    0.0000 H   0  0  0  0  0  0  0  0  0  0  0  0
    6.0010   -9.0000    0.0000 H   0  0  0  0  0  0  0  0  0  0  0  0
    3.1951   -9.0000    0.0000 H   0  0  0  0  0  0  0  0  0  0  0  0
    5.1350    1.5000    0.0000 H   0  0  0  0  0  0  0  0  0  0  0  0
    8.3722    0.6531    0.0000 H   0  0  0  0  0  0  0  0  0  0  0  0
    8.5991    1.5000    0.0000 H   0  0  0  0  0  0  0  0  0  0  0  0
    7.7522    1.7269    0.0000 H   0  0  0  0  0  0  0  0  0  0  0  0
    6.0010  -10.6200    0.0000 H   0  0  0  0  0  0  0  0  0  0  0  0
    3.1951  -10.6200    0.0000 H   0  0  0  0  0  0  0  0  0  0  0  0
    3.3335    0.2151    0.0000 H   0  0  0  0  0  0  0  0  0  0  0  0
    4.1306    0.2151    0.0000 H   0  0  0  0  0  0  0  0  0  0  0  0
    4.5981  -11.4300    0.0000 H   0  0  0  0  0  0  0  0  0  0  0  0
    3.4030    1.5000    0.0000 H   0  0  0  0  0  0  0  0  0  0  0  0
    4.0611    2.5000    0.0000 H   0  0  0  0  0  0  0  0  0  0  0  0
    1.6900    1.2269    0.0000 H   0  0  0  0  0  0  0  0  0  0  0  0
    1.4631    0.3800    0.0000 H   0  0  0  0  0  0  0  0  0  0  0  0
    2.3100    0.1531    0.0000 H   0  0  0  0  0  0  0  0  0  0  0  0
    3.4860    2.1900    0.0000 H   0  0  0  0  0  0  0  0  0  0  0  0
    2.8660    2.8100    0.0000 H   0  0  0  0  0  0  0  0  0  0  0  0
    2.2460    2.1900    0.0000 H   0  0  0  0  0  0  0  0  0  0  0  0
    5.4641    4.3100    0.0000 H   0  0  0  0  0  0  0  0  0  0  0  0
    3.9875    4.2977    0.0000 H   0  0  0  0  0  0  0  0  0  0  0  0
    4.3860    3.6074    0.0000 H   0  0  0  0  0  0  0  0  0  0  0  0
    6.8671    3.8800    0.0000 H   0  0  0  0  0  0  0  0  0  0  0  0
    5.2087    5.0823    0.0000 H   0  0  0  0  0  0  0  0  0  0  0  0
    4.8101    5.7726    0.0000 H   0  0  0  0  0  0  0  0  0  0  0  0
    6.6592    6.0000    0.0000 H   0  0  0  0  0  0  0  0  0  0  0  0
    7.6636    4.7150    0.0000 H   0  0  0  0  0  0  0  0  0  0  0  0
    8.4607    4.7150    0.0000 H   0  0  0  0  0  0  0  0  0  0  0  0
    6.6592    7.0000    0.0000 H   0  0  0  0  0  0  0  0  0  0  0  0
    9.3267    6.1650    0.0000 H   0  0  0  0  0  0  0  0  0  0  0  0
    8.5297    6.1650    0.0000 H   0  0  0  0  0  0  0  0  0  0  0  0
    7.8501    8.7726    0.0000 H   0  0  0  0  0  0  0  0  0  0  0  0
    7.4516    8.0823    0.0000 H   0  0  0  0  0  0  0  0  0  0  0  0
    3.1951    7.0000    0.0000 H   0  0  0  0  0  0  0  0  0  0  0  0
    9.1403    8.1074    0.0000 H   0  0  0  0  0  0  0  0  0  0  0  0
    9.5388    8.7977    0.0000 H   0  0  0  0  0  0  0  0  0  0  0  0
   11.1972    5.3800    0.0000 H   0  0  0  0  0  0  0  0  0  0  0  0
    9.7942   10.8100    0.0000 H   0  0  0  0  0  0  0  0  0  0  0  0
  1  4  2  0  0  0  0
  1  5  2  0  0  0  0
  1 18  1  0  0  0  0
  1 40  1  0  0  0  0
  2 27  2  0  0  0  0
  3 31  2  0  0  0  0
  6 37  2  0  0  0  0
  7 45  2  0  0  0  0
  8 53  2  0  0  0  0
  9 59  2  0  0  0  0
 10 62  1  0  0  0  0
 10131  1  0  0  0  0
 11 62  2  0  0  0  0
 12 64  2  0  0  0  0
 13 66  1  0  0  0  0
 13134  1  0  0  0  0
 14 66  2  0  0  0  0
 15 68  1  0  0  0  0
 15135  1  0  0  0  0
 16 68  2  0  0  0  0
 17 24  1  0  0  0  0
 17 31  1  0  0  0  0
 17 73  1  0  0  0  0
 18 27  1  0  0  0  0
 18 88  1  0  0  0  0
 29 19  1  1  0  0  0
 19 37  1  0  0  0  0
 19 89  1  0  0  0  0
 38 20  1  1  0  0  0
 20 45  1  0  0  0  0
 20 92  1  0  0  0  0
 46 21  1  6  0  0  0
 21 53  1  0  0  0  0
 21110  1  0  0  0  0
 56 22  1  1  0  0  0
 22 59  1  0  0  0  0
 22120  1  0  0  0  0
 60 23  1  1  0  0  0
 23 64  1  0  0  0  0
 23126  1  0  0  0  0
 24 25  1  0  0  0  0
 24 26  1  0  0  0  0
 24 27  1  0  0  0  0
 25 26  1  0  0  0  0
 25 69  1  0  0  0  0
 25 70  1  0  0  0  0
 26 71  1  0  0  0  0
 26 72  1  0  0  0  0
 28 30  1  0  0  0  0
 28 32  1  0  0  0  0
 28 33  1  0  0  0  0
 28 74  1  0  0  0  0
 29 30  1  0  0  0  0
 29 31  1  0  0  0  0
 29 75  1  0  0  0  0
 30 76  1  0  0  0  0
 30 77  1  0  0  0  0
 32 34  1  0  0  0  0
 32 78  1  0  0  0  0
 32 79  1  0  0  0  0
 33 35  1  0  0  0  0
 33 80  1  0  0  0  0
 33 81  1  0  0  0  0
 34 36  1  0  0  0  0
 34 82  1  0  0  0  0
 34 83  1  0  0  0  0
 35 36  1  0  0  0  0
 35 84  1  0  0  0  0
 35 85  1  0  0  0  0
 36 86  1  0  0  0  0
 36 87  1  0  0  0  0
 37 38  1  0  0  0  0
 38 39  1  0  0  0  0
 38 90  1  0  0  0  0
 39 41  1  0  0  0  0
 39 42  1  6  0  0  0
 39 91  1  0  0  0  0
 40 43  2  0  0  0  0
 40 44  1  0  0  0  0
 41 47  1  0  0  0  0
 41 93  1  0  0  0  0
 41 94  1  0  0  0  0
 42 95  1  0  0  0  0
 42 96  1  0  0  0  0
 42 97  1  0  0  0  0
 43 48  1  0  0  0  0
 43 98  1  0  0  0  0
 44 49  2  0  0  0  0
 44 99  1  0  0  0  0
 45 46  1  0  0  0  0
 46 50  1  0  0  0  0
 46100  1  0  0  0  0
 47101  1  0  0  0  0
 47102  1  0  0  0  0
 47103  1  0  0  0  0
 48 51  2  0  0  0  0
 48104  1  0  0  0  0
 49 51  1  0  0  0  0
 49105  1  0  0  0  0
 50 52  1  0  0  0  0
 50106  1  0  0  0  0
 50107  1  0  0  0  0
 51108  1  0  0  0  0
 52 54  1  0  0  0  0
 52 55  1  0  0  0  0
 52109  1  0  0  0  0
 53 56  1  0  0  0  0
 54111  1  0  0  0  0
 54112  1  0  0  0  0
 54113  1  0  0  0  0
 55114  1  0  0  0  0
 55115  1  0  0  0  0
 55116  1  0  0  0  0
 56 57  1  0  0  0  0
 56117  1  0  0  0  0
 57 58  1  0  0  0  0
 57118  1  0  0  0  0
 57119  1  0  0  0  0
 58 62  1  0  0  0  0
 58121  1  0  0  0  0
 58122  1  0  0  0  0
 59 60  1  0  0  0  0
 60 61  1  0  0  0  0
 60123  1  0  0  0  0
 61 63  1  0  0  0  0
 61124  1  0  0  0  0
 61125  1  0  0  0  0
 63 66  1  0  0  0  0
 63127  1  0  0  0  0
 63128  1  0  0  0  0
 64 65  1  0  0  0  0
 65 67  1  0  0  0  0
 65129  1  0  0  0  0
 65130  1  0  0  0  0
 67 68  1  0  0  0  0
 67132  1  0  0  0  0
 67133  1  0  0  0  0
M  END
> <PUBCHEM_COMPOUND_CID>
507075
> <PUBCHEM_COMPOUND_CANONICALIZED>
1
> <PUBCHEM_CACTVS_COMPLEXITY>
1920
> <PUBCHEM_CACTVS_HBOND_ACCEPTOR>
15
> <PUBCHEM_CACTVS_HBOND_DONOR>
10
> <PUBCHEM_CACTVS_ROTATABLE_BOND>
29
> <PUBCHEM_CACTVS_SUBSKEYS>
AAADcfB/vABAAAAAAAAAAAAAGAAAAAAAAAAwYAAAAAAAAAABAAAAHgQQSAAADajB0AQyCYLAAgKIACHSGHBCABAgAAAIiJmIAIgIYDKAkTCUYAAklgCIiAe/n4KOAAAAAAAAAAAAAAAAAAAAAAAAAAAAAA==
> <PUBCHEM_IUPAC_OPENEYE_NAME>
(4S)-5-[[(1R)-1-[[(1S)-1-[[(1S,2S)-1-[[(1S)-2-[[1-(benzenesulfonylcarbamoyl)cyclopropyl]amino]-1-(cyclohexylmethyl)-2-oxo-ethyl]carbamoyl]-2-methyl-butyl]carbamoyl]-3-methyl-butyl]carbamoyl]-3-carboxy-propyl]amino]-4-(3-carboxypropanoylamino)-5-oxo-pentanoic acid
> <PUBCHEM_IUPAC_CAS_NAME>
(4S)-5-[[(2R)-1-[[(2S)-1-[[(2S,3S)-1-[[(2S)-1-[[1-[benzenesulfonamido(oxo)methyl]cyclopropyl]amino]-3-cyclohexyl-1-oxopropan-2-yl]amino]-3-methyl-1-oxopentan-2-yl]amino]-4-methyl-1-oxopentan-2-yl]amino]-4-carboxy-1-oxobutan-2-yl]amino]-4-[(3-carboxy-1-oxopropyl)amino]-5-oxopentanoic acid
> <PUBCHEM_IUPAC_NAME_MARKUP>
(4<I>S</I>)-5-[[(2<I>R</I>)-1-[[(2<I>S</I>)-1-[[(2<I>S</I>,3<I>S</I>)-1-[[(2<I>S</I>)-1-[[1-(benzenesulfonylcarbamoyl)cyclopropyl]amino]-3-cyclohexyl-1-oxopropan-2-yl]amino]-3-methyl-1-oxopentan-2-yl]amino]-4-methyl-1-oxopentan-2-yl]amino]-4-carboxy-1-oxobutan-2-yl]amino]-4-(3-carboxypropanoylamino)-5-oxopentanoic acid
> <PUBCHEM_IUPAC_NAME>
(4S)-5-[[(2R)-1-[[(2S)-1-[[(2S,3S)-1-[[(2S)-1-[[1-(benzenesulfonylcarbamoyl)cyclopropyl]amino]-3-cyclohexyl-1-oxopropan-2-yl]amino]-3-methyl-1-oxopentan-2-yl]amino]-4-methyl-1-oxopentan-2-yl]amino]-4-carboxy-1-oxobutan-2-yl]amino]-4-(3-carboxypropanoylamino)-5-oxopentanoic acid
> <PUBCHEM_IUPAC_SYSTEMATIC_NAME>
(4S)-5-[[(2R)-1-[[(2S)-1-[[(2S,3S)-1-[[(2S)-3-cyclohexyl-1-oxidanylidene-1-[[1-(phenylsulfonylcarbamoyl)cyclopropyl]amino]propan-2-yl]amino]-3-methyl-1-oxidanylidene-pentan-2-yl]amino]-4-methyl-1-oxidanylidene-pentan-2-yl]amino]-5-oxidanyl-1,5-bis(oxidanylidene)pentan-2-yl]amino]-5-oxidanylidene-4-[(4-oxidanyl-4-oxidanylidene-butanoyl)amino]pentanoic acid
> <PUBCHEM_IUPAC_TRADITIONAL_NAME>
(4S)-5-[[(1R)-1-[[(1S)-1-[[(1S,2S)-1-[[(1S)-2-[[1-(besylcarbamoyl)cyclopropyl]amino]-1-(cyclohexylmethyl)-2-keto-ethyl]carbamoyl]-2-methyl-butyl]carbamoyl]-3-methyl-butyl]carbamoyl]-3-carboxy-propyl]amino]-4-(3-carboxypropanoylamino)-5-keto-valeric acid
> <PUBCHEM_IUPAC_INCHI>
InChI=1S/C45H67N7O15S/c1-5-27(4)38(43(64)49-33(25-28-12-8-6-9-13-28)42(63)51-45(22-23-45)44(65)52-68(66,67)29-14-10-7-11-15-29)50-41(62)32(24-26(2)3)48-40(61)31(17-20-36(56)57)47-39(60)30(16-19-35(54)55)46-34(53)18-21-37(58)59/h7,10-11,14-15,26-28,30-33,38H,5-6,8-9,12-13,16-25H2,1-4H3,(H,46,53)(H,47,60)(H,48,61)(H,49,64)(H,50,62)(H,51,63)(H,52,65)(H,54,55)(H,56,57)(H,58,59)/t27-,30-,31+,32-,33-,38-/m0/s1
> <PUBCHEM_IUPAC_INCHIKEY>
YSEUVCSPIXEJNL-CMTRTBNMSA-N
> <PUBCHEM_XLOGP3_AA>
2.9
> <PUBCHEM_EXACT_MASS>
977.44158563
> <PUBCHEM_MOLECULAR_FORMULA>
C45H67N7O15S
> <PUBCHEM_MOLECULAR_WEIGHT>
978.1
> <PUBCHEM_OPENEYE_CAN_SMILES>
CCC(C)C(C(=O)NC(CC1CCCCC1)C(=O)NC2(CC2)C(=O)NS(=O)(=O)C3=CC=CC=C3)NC(=O)C(CC(C)C)NC(=O)C(CCC(=O)O)NC(=O)C(CCC(=O)O)NC(=O)CCC(=O)O
> <PUBCHEM_OPENEYE_ISO_SMILES>
CC[C@H](C)[C@@H](C(=O)N[C@@H](CC1CCCCC1)C(=O)NC2(CC2)C(=O)NS(=O)(=O)C3=CC=CC=C3)NC(=O)[C@H](CC(C)C)NC(=O)[C@@H](CCC(=O)O)NC(=O)[C@H](CCC(=O)O)NC(=O)CCC(=O)O
> <PUBCHEM_CACTVS_TPSA>
358
> <PUBCHEM_MONOISOTOPIC_WEIGHT>
977.44158563
> <PUBCHEM_TOTAL_CHARGE>
0
> <PUBCHEM_HEAVY_ATOM_COUNT>
68
> <PUBCHEM_ATOM_DEF_STEREO_COUNT>
6
> <PUBCHEM_ATOM_UDEF_STEREO_COUNT>
0
> <PUBCHEM_BOND_DEF_STEREO_COUNT>
0
> <PUBCHEM_BOND_UDEF_STEREO_COUNT>
0
> <PUBCHEM_ISOTOPIC_ATOM_COUNT>
0
> <PUBCHEM_COMPONENT_COUNT>
1
> <PUBCHEM_CACTVS_TAUTO_COUNT>
-1
> <PUBCHEM_COORDINATE_TYPE>
1
5
255
> <PUBCHEM_BONDANNOTATIONS>
29  19  5
38  20  5
46  21  6
56  22  5
60  23  5
39  42  6
40  43  8
40  44  8
43  48  8
44  49  8
48  51  8
49  51  8
$$$$
