507077
  -OEChem-10302200282D
 63 66  0     1  0  0  0  0  0999 V2000
    0.1307    4.1565    0.0000 Cl  0  0  0  0  0  0  0  0  0  0  0  0
    4.6608    2.4486    0.0000 F   0  0  0  0  0  0  0  0  0  0  0  0
    3.6608    2.4487    0.0000 F   0  0  0  0  0  0  0  0  0  0  0  0
    5.1608    3.3147    0.0000 F   0  0  0  0  0  0  0  0  0  0  0  0
    3.8858   11.2010    0.0000 O   0  0  0  0  0  0  0  0  0  0  0  0
    5.1591    9.5455    0.0000 O   0  0  0  0  0  0  0  0  0  0  0  0
    4.8089   12.7888    0.0000 O   0  0  0  0  0  0  0  0  0  0  0  0
    3.0768   15.7888    0.0000 O   0  0  0  0  0  0  0  0  0  0  0  0
    5.3929    6.1807    0.0000 O   0  0  0  0  0  0  0  0  0  0  0  0
    3.0768   12.7888    0.0000 N   0  0  0  0  0  0  0  0  0  0  0  0
    1.9890    9.4410    0.0000 N   0  0  0  0  0  0  0  0  0  0  0  0
    4.5268    4.6807    0.0000 N   0  0  0  0  0  0  0  0  0  0  0  0
    3.9428   14.2888    0.0000 N   0  0  0  0  0  0  0  0  0  0  0  0
    3.6608    6.1807    0.0000 N   0  0  0  0  0  0  0  0  0  0  0  0
    0.9945    9.5455    0.0000 N   0  3  0  0  0  0  0  0  0  0  0  0
    0.0000    9.6500    0.0000 N   0  5  0  0  0  0  0  0  0  0  0  0
    2.1608    1.5826    0.0000 C   0  0  0  0  0  0  0  0  0  0  0  0
    1.2948    1.0826    0.0000 C   0  0  0  0  0  0  0  0  0  0  0  0
    2.1608    0.5826    0.0000 C   0  0  0  0  0  0  0  0  0  0  0  0
    2.5768   10.2500    0.0000 C   0  0  1  0  0  0  0  0  0  0  0  0
    2.2678   11.2010    0.0000 C   0  0  0  0  0  0  0  0  0  0  0  0
    3.5768   10.2500    0.0000 C   0  0  1  0  0  0  0  0  0  0  0  0
    3.0768   11.7888    0.0000 C   0  0  1  0  0  0  0  0  0  0  0  0
    4.1646    9.4410    0.0000 C   0  0  0  0  0  0  0  0  0  0  0  0
    2.6608    2.4486    0.0000 C   0  0  0  0  0  0  0  0  0  0  0  0
    3.6608    4.1807    0.0000 C   0  0  1  0  0  0  0  0  0  0  0  0
    2.2108   13.2888    0.0000 C   0  0  0  0  0  0  0  0  0  0  0  0
    3.1608    3.3147    0.0000 C   0  0  0  0  0  0  0  0  0  0  0  0
    3.9428   13.2888    0.0000 C   0  0  0  0  0  0  0  0  0  0  0  0
    2.7948    4.6807    0.0000 C   0  0  0  0  0  0  0  0  0  0  0  0
    4.1608    3.3147    0.0000 C   0  0  0  0  0  0  0  0  0  0  0  0
    2.2108   14.2888    0.0000 C   0  0  0  0  0  0  0  0  0  0  0  0
    2.7948    5.6807    0.0000 C   0  0  0  0  0  0  0  0  0  0  0  0
    3.0768   14.7888    0.0000 C   0  0  0  0  0  0  0  0  0  0  0  0
    1.9008    4.1460    0.0000 C   0  0  0  0  0  0  0  0  0  0  0  0
    4.5268    5.6807    0.0000 C   0  0  0  0  0  0  0  0  0  0  0  0
    1.9008    6.2154    0.0000 C   0  0  0  0  0  0  0  0  0  0  0  0
    1.3448   14.7888    0.0000 C   0  0  0  0  0  0  0  0  0  0  0  0
    0.9948    4.6599    0.0000 C   0  0  0  0  0  0  0  0  0  0  0  0
    0.9948    5.7015    0.0000 C   0  0  0  0  0  0  0  0  0  0  0  0
    2.7597    1.4221    0.0000 H   0  0  0  0  0  0  0  0  0  0  0  0
    0.8963    1.5576    0.0000 H   0  0  0  0  0  0  0  0  0  0  0  0
    0.8963    0.6077    0.0000 H   0  0  0  0  0  0  0  0  0  0  0  0
    1.9488    0.0000    0.0000 H   0  0  0  0  0  0  0  0  0  0  0  0
    2.7714    0.4749    0.0000 H   0  0  0  0  0  0  0  0  0  0  0  0
    1.9645   10.3470    0.0000 H   0  0  0  0  0  0  0  0  0  0  0  0
    1.9578   11.7380    0.0000 H   0  0  0  0  0  0  0  0  0  0  0  0
    1.7014   10.9489    0.0000 H   0  0  0  0  0  0  0  0  0  0  0  0
    4.1892   10.3470    0.0000 H   0  0  0  0  0  0  0  0  0  0  0  0
    2.5244   12.0703    0.0000 H   0  0  0  0  0  0  0  0  0  0  0  0
    3.6074    9.1692    0.0000 H   0  0  0  0  0  0  0  0  0  0  0  0
    4.3355    8.8450    0.0000 H   0  0  0  0  0  0  0  0  0  0  0  0
    1.6739   12.9788    0.0000 H   0  0  0  0  0  0  0  0  0  0  0  0
    5.1468    4.6807    0.0000 H   0  0  0  0  0  0  0  0  0  0  0  0
    5.5236    9.0439    0.0000 H   0  0  0  0  0  0  0  0  0  0  0  0
    4.4798   14.5988    0.0000 H   0  0  0  0  0  0  0  0  0  0  0  0
    1.9080    3.5261    0.0000 H   0  0  0  0  0  0  0  0  0  0  0  0
    3.6608    6.8007    0.0000 H   0  0  0  0  0  0  0  0  0  0  0  0
    1.9080    6.8353    0.0000 H   0  0  0  0  0  0  0  0  0  0  0  0
    1.6548   15.3258    0.0000 H   0  0  0  0  0  0  0  0  0  0  0  0
    0.8078   15.0988    0.0000 H   0  0  0  0  0  0  0  0  0  0  0  0
    1.0348   14.2519    0.0000 H   0  0  0  0  0  0  0  0  0  0  0  0
    0.4590    6.0136    0.0000 H   0  0  0  0  0  0  0  0  0  0  0  0
  1 39  1  0  0  0  0
  2 31  1  0  0  0  0
  3 31  1  0  0  0  0
  4 31  1  0  0  0  0
  5 22  1  0  0  0  0
  5 23  1  0  0  0  0
  6 24  1  0  0  0  0
  6 55  1  0  0  0  0
  7 29  2  0  0  0  0
  8 34  2  0  0  0  0
  9 36  2  0  0  0  0
 23 10  1  6  0  0  0
 10 27  1  0  0  0  0
 10 29  1  0  0  0  0
 11 15  2  0  0  0  0
 20 11  1  1  0  0  0
 12 26  1  0  0  0  0
 12 36  1  0  0  0  0
 12 54  1  0  0  0  0
 13 29  1  0  0  0  0
 13 34  1  0  0  0  0
 13 56  1  0  0  0  0
 14 33  1  0  0  0  0
 14 36  1  0  0  0  0
 14 58  1  0  0  0  0
 15 16  2  0  0  0  0
 17 18  1  0  0  0  0
 17 19  1  0  0  0  0
 17 25  1  0  0  0  0
 17 41  1  0  0  0  0
 18 19  1  0  0  0  0
 18 42  1  0  0  0  0
 18 43  1  0  0  0  0
 19 44  1  0  0  0  0
 19 45  1  0  0  0  0
 20 21  1  0  0  0  0
 20 22  1  0  0  0  0
 20 46  1  0  0  0  0
 21 23  1  0  0  0  0
 21 47  1  0  0  0  0
 21 48  1  0  0  0  0
 22 24  1  6  0  0  0
 22 49  1  0  0  0  0
 23 50  1  0  0  0  0
 24 51  1  0  0  0  0
 24 52  1  0  0  0  0
 25 28  3  0  0  0  0
 26 28  1  1  0  0  0
 26 30  1  0  0  0  0
 26 31  1  0  0  0  0
 27 32  2  0  0  0  0
 27 53  1  0  0  0  0
 30 33  2  0  0  0  0
 30 35  1  0  0  0  0
 32 34  1  0  0  0  0
 32 38  1  0  0  0  0
 33 37  1  0  0  0  0
 35 39  2  0  0  0  0
 35 57  1  0  0  0  0
 37 40  2  0  0  0  0
 37 59  1  0  0  0  0
 38 60  1  0  0  0  0
 38 61  1  0  0  0  0
 38 62  1  0  0  0  0
 39 40  1  0  0  0  0
 40 63  1  0  0  0  0
M  CHG  2  15   1  16  -1
M  END
> <PUBCHEM_COMPOUND_CID>
507077
> <PUBCHEM_COMPOUND_CANONICALIZED>
1
> <PUBCHEM_CACTVS_COMPLEXITY>
1000
> <PUBCHEM_CACTVS_HBOND_ACCEPTOR>
10
> <PUBCHEM_CACTVS_HBOND_DONOR>
4
> <PUBCHEM_CACTVS_ROTATABLE_BOND>
4
> <PUBCHEM_CACTVS_SUBSKEYS>
AAADceB7uYAEAAAAAAAAAAAAGAAAASAAAAA8QIAAAAAAAACxAAAAHwIYCAAADb7hmDYzwIPABgDKEiVWUAiCAAAhBwAIiAEIZsiLMCLB05GPYAhulyJLyOewsMIOgABAIAACAAAAAIBAAAQAAAAAAAAAAA==
> <PUBCHEM_IUPAC_OPENEYE_NAME>
1-[(2R,4S,5S)-4-azido-5-(hydroxymethyl)tetrahydrofuran-2-yl]-5-methyl-pyrimidine-2,4-dione;(4S)-6-chloro-4-(2-cyclopropylethynyl)-4-(trifluoromethyl)-1,3-dihydroquinazolin-2-one
> <PUBCHEM_IUPAC_CAS_NAME>
1-[(2R,4S,5S)-4-azido-5-(hydroxymethyl)-2-oxolanyl]-5-methylpyrimidine-2,4-dione;(4S)-6-chloro-4-(2-cyclopropylethynyl)-4-(trifluoromethyl)-1,3-dihydroquinazolin-2-one
> <PUBCHEM_IUPAC_NAME_MARKUP>
1-[(2<I>R</I>,4<I>S</I>,5<I>S</I>)-4-azido-5-(hydroxymethyl)oxolan-2-yl]-5-methylpyrimidine-2,4-dione;(4<I>S</I>)-6-chloro-4-(2-cyclopropylethynyl)-4-(trifluoromethyl)-1,3-dihydroquinazolin-2-one
> <PUBCHEM_IUPAC_NAME>
1-[(2R,4S,5S)-4-azido-5-(hydroxymethyl)oxolan-2-yl]-5-methylpyrimidine-2,4-dione;(4S)-6-chloro-4-(2-cyclopropylethynyl)-4-(trifluoromethyl)-1,3-dihydroquinazolin-2-one
> <PUBCHEM_IUPAC_SYSTEMATIC_NAME>
1-[(2R,4S,5S)-4-azido-5-(hydroxymethyl)oxolan-2-yl]-5-methyl-pyrimidine-2,4-dione;(4S)-6-chloranyl-4-(2-cyclopropylethynyl)-4-(trifluoromethyl)-1,3-dihydroquinazolin-2-one
> <PUBCHEM_IUPAC_TRADITIONAL_NAME>
1-[(2R,4S,5S)-4-azido-5-methylol-tetrahydrofuran-2-yl]-5-methyl-pyrimidine-2,4-quinone;(4S)-6-chloro-4-(2-cyclopropylethynyl)-4-(trifluoromethyl)-1,3-dihydroquinazolin-2-one
> <PUBCHEM_IUPAC_INCHI>
InChI=1S/C14H10ClF3N2O.C10H13N5O4/c15-9-3-4-11-10(7-9)13(14(16,17)18,20-12(21)19-11)6-5-8-1-2-8;1-5-3-15(10(18)12-9(5)17)8-2-6(13-14-11)7(4-16)19-8/h3-4,7-8H,1-2H2,(H2,19,20,21);3,6-8,16H,2,4H2,1H3,(H,12,17,18)/t13-;6-,7+,8+/m00/s1
> <PUBCHEM_IUPAC_INCHIKEY>
XHTYIHFKXNKMQM-RDTCVNLYSA-N
> <PUBCHEM_EXACT_MASS>
581.1401290
> <PUBCHEM_MOLECULAR_FORMULA>
C24H23ClF3N7O5
> <PUBCHEM_MOLECULAR_WEIGHT>
581.9
> <PUBCHEM_OPENEYE_CAN_SMILES>
CC1=CN(C(=O)NC1=O)C2CC(C(O2)CO)N=[N+]=[N-].C1CC1C#CC2(C3=C(C=CC(=C3)Cl)NC(=O)N2)C(F)(F)F
> <PUBCHEM_OPENEYE_ISO_SMILES>
CC1=CN(C(=O)NC1=O)[C@H]2C[C@@H]([C@H](O2)CO)N=[N+]=[N-].C1CC1C#C[C@]2(C3=C(C=CC(=C3)Cl)NC(=O)N2)C(F)(F)F
> <PUBCHEM_CACTVS_TPSA>
134
> <PUBCHEM_MONOISOTOPIC_WEIGHT>
581.1401290
> <PUBCHEM_TOTAL_CHARGE>
0
> <PUBCHEM_HEAVY_ATOM_COUNT>
40
> <PUBCHEM_ATOM_DEF_STEREO_COUNT>
4
> <PUBCHEM_ATOM_UDEF_STEREO_COUNT>
0
> <PUBCHEM_BOND_DEF_STEREO_COUNT>
0
> <PUBCHEM_BOND_UDEF_STEREO_COUNT>
0
> <PUBCHEM_ISOTOPIC_ATOM_COUNT>
0
> <PUBCHEM_COMPONENT_COUNT>
2
> <PUBCHEM_CACTVS_TAUTO_COUNT>
-1
> <PUBCHEM_COORDINATE_TYPE>
1
5
255
> <PUBCHEM_BONDANNOTATIONS>
23  10  6
10  27  8
10  29  8
20  11  5
13  29  8
13  34  8
22  24  6
26  28  5
27  32  8
30  33  8
30  35  8
32  34  8
33  37  8
35  39  8
37  40  8
39  40  8
$$$$
