507087
  -OEChem-10302200282D
116121  0     1  0  0  0  0  0999 V2000
    7.6070    5.1200    0.0000 S   0  0  0  0  0  0  0  0  0  0  0  0
    7.2700   15.9840    0.0000 F   0  0  0  0  0  0  0  0  0  0  0  0
    7.7700   16.8500    0.0000 F   0  0  0  0  0  0  0  0  0  0  0  0
    6.2700   15.9840    0.0000 F   0  0  0  0  0  0  0  0  0  0  0  0
    4.5216   16.6815    0.0000 F   0  0  0  0  0  0  0  0  0  0  0  0
    2.7399   17.6919    0.0000 F   0  0  0  0  0  0  0  0  0  0  0  0
    5.8750    8.1200    0.0000 O   0  0  0  0  0  0  0  0  0  0  0  0
    4.1429    5.1200    0.0000 O   0  0  0  0  0  0  0  0  0  0  0  0
    7.6070    4.1200    0.0000 O   0  0  0  0  0  0  0  0  0  0  0  0
    5.0089    0.6200    0.0000 O   0  0  0  0  0  0  0  0  0  0  0  0
    8.0021   19.7161    0.0000 O   0  0  0  0  0  0  0  0  0  0  0  0
    4.1429    7.1200    0.0000 N   0  0  3  0  0  0  0  0  0  0  0  0
    5.0089    9.6200    0.0000 N   0  0  0  0  0  0  0  0  0  0  0  0
    5.8750    4.1200    0.0000 N   0  0  0  0  0  0  0  0  0  0  0  0
    7.1361   18.2161    0.0000 N   0  0  0  0  0  0  0  0  0  0  0  0
    6.2700   19.7161    0.0000 N   0  0  0  0  0  0  0  0  0  0  0  0
    2.4109    8.1200    0.0000 C   0  0  2  0  0  0  0  0  0  0  0  0
    2.4109    7.1200    0.0000 C   0  0  1  0  0  0  0  0  0  0  0  0
    3.2769    8.6200    0.0000 C   0  0  0  0  0  0  0  0  0  0  0  0
    3.2769    6.6200    0.0000 C   0  0  0  0  0  0  0  0  0  0  0  0
    1.5169    8.6547    0.0000 C   0  0  0  0  0  0  0  0  0  0  0  0
    1.5169    6.5853    0.0000 C   0  0  0  0  0  0  0  0  0  0  0  0
    4.1429    8.1200    0.0000 C   0  0  1  0  0  0  0  0  0  0  0  0
    0.6109    8.1408    0.0000 C   0  0  0  0  0  0  0  0  0  0  0  0
    0.6109    7.0992    0.0000 C   0  0  0  0  0  0  0  0  0  0  0  0
    5.0089    6.6200    0.0000 C   0  0  0  0  0  0  0  0  0  0  0  0
    5.0089    8.6200    0.0000 C   0  0  0  0  0  0  0  0  0  0  0  0
    5.0089    5.6200    0.0000 C   0  0  2  0  0  0  0  0  0  0  0  0
    5.8750    5.1200    0.0000 C   0  0  2  0  0  0  0  0  0  0  0  0
    5.8750   10.1200    0.0000 C   0  0  0  0  0  0  0  0  0  0  0  0
    6.7410    5.6200    0.0000 C   0  0  0  0  0  0  0  0  0  0  0  0
    6.7410   10.6200    0.0000 C   0  0  0  0  0  0  0  0  0  0  0  0
    5.3750   10.9860    0.0000 C   0  0  0  0  0  0  0  0  0  0  0  0
    6.3750    9.2540    0.0000 C   0  0  0  0  0  0  0  0  0  0  0  0
    6.7410    3.6200    0.0000 C   0  0  0  0  0  0  0  0  0  0  0  0
    6.7410    2.6200    0.0000 C   0  0  0  0  0  0  0  0  0  0  0  0
    8.4730    5.6200    0.0000 C   0  0  0  0  0  0  0  0  0  0  0  0
    4.7700   15.1180    0.0000 C   0  0  0  0  0  0  0  0  0  0  0  0
    3.9040   14.6180    0.0000 C   0  0  0  0  0  0  0  0  0  0  0  0
    4.7700   14.1180    0.0000 C   0  0  0  0  0  0  0  0  0  0  0  0
    5.8750    2.1200    0.0000 C   0  0  0  0  0  0  0  0  0  0  0  0
    7.6070    2.1200    0.0000 C   0  0  0  0  0  0  0  0  0  0  0  0
    9.3391    5.1200    0.0000 C   0  0  0  0  0  0  0  0  0  0  0  0
    8.4730    6.6200    0.0000 C   0  0  0  0  0  0  0  0  0  0  0  0
    5.2700   15.9840    0.0000 C   0  0  0  0  0  0  0  0  0  0  0  0
    5.8750    1.1200    0.0000 C   0  0  0  0  0  0  0  0  0  0  0  0
    5.0089    2.6200    0.0000 C   0  0  0  0  0  0  0  0  0  0  0  0
    7.6070    1.1200    0.0000 C   0  0  0  0  0  0  0  0  0  0  0  0
    6.2700   17.7161    0.0000 C   0  0  1  0  0  0  0  0  0  0  0  0
   10.2051    5.6200    0.0000 C   0  0  0  0  0  0  0  0  0  0  0  0
    9.3391    7.1200    0.0000 C   0  0  0  0  0  0  0  0  0  0  0  0
    6.7410    0.6200    0.0000 C   0  0  0  0  0  0  0  0  0  0  0  0
    5.7700   16.8500    0.0000 C   0  0  0  0  0  0  0  0  0  0  0  0
   10.2051    6.6200    0.0000 C   0  0  0  0  0  0  0  0  0  0  0  0
    5.4040   18.2161    0.0000 C   0  0  0  0  0  0  0  0  0  0  0  0
    6.7700   16.8500    0.0000 C   0  0  0  0  0  0  0  0  0  0  0  0
    5.4040   19.2161    0.0000 C   0  0  0  0  0  0  0  0  0  0  0  0
    7.1361   19.2161    0.0000 C   0  0  0  0  0  0  0  0  0  0  0  0
    4.5101   17.6814    0.0000 C   0  0  0  0  0  0  0  0  0  0  0  0
    4.5101   19.7507    0.0000 C   0  0  0  0  0  0  0  0  0  0  0  0
    3.6040   18.1953    0.0000 C   0  0  0  0  0  0  0  0  0  0  0  0
    3.6040   19.2369    0.0000 C   0  0  0  0  0  0  0  0  0  0  0  0
    2.4174    8.9700    0.0000 H   0  0  0  0  0  0  0  0  0  0  0  0
    2.4174    6.2700    0.0000 H   0  0  0  0  0  0  0  0  0  0  0  0
    3.6754    9.0950    0.0000 H   0  0  0  0  0  0  0  0  0  0  0  0
    2.8784    9.0950    0.0000 H   0  0  0  0  0  0  0  0  0  0  0  0
    2.8784    6.1450    0.0000 H   0  0  0  0  0  0  0  0  0  0  0  0
    3.6754    6.1450    0.0000 H   0  0  0  0  0  0  0  0  0  0  0  0
    1.9215    9.1244    0.0000 H   0  0  0  0  0  0  0  0  0  0  0  0
    1.1233    9.1337    0.0000 H   0  0  0  0  0  0  0  0  0  0  0  0
    1.1233    6.1063    0.0000 H   0  0  0  0  0  0  0  0  0  0  0  0
    1.9215    6.1156    0.0000 H   0  0  0  0  0  0  0  0  0  0  0  0
    4.6798    7.8100    0.0000 H   0  0  0  0  0  0  0  0  0  0  0  0
    0.4018    8.7245    0.0000 H   0  0  0  0  0  0  0  0  0  0  0  0
    0.0000    8.0347    0.0000 H   0  0  0  0  0  0  0  0  0  0  0  0
    0.0000    7.2053    0.0000 H   0  0  0  0  0  0  0  0  0  0  0  0
    0.4018    6.5155    0.0000 H   0  0  0  0  0  0  0  0  0  0  0  0
    5.6195    6.5123    0.0000 H   0  0  0  0  0  0  0  0  0  0  0  0
    5.2210    7.2026    0.0000 H   0  0  0  0  0  0  0  0  0  0  0  0
    5.0089    5.0000    0.0000 H   0  0  0  0  0  0  0  0  0  0  0  0
    4.4720    9.9300    0.0000 H   0  0  0  0  0  0  0  0  0  0  0  0
    6.4119    4.8100    0.0000 H   0  0  0  0  0  0  0  0  0  0  0  0
    4.1429    4.5000    0.0000 H   0  0  0  0  0  0  0  0  0  0  0  0
    7.1395    6.0950    0.0000 H   0  0  0  0  0  0  0  0  0  0  0  0
    6.3425    6.0950    0.0000 H   0  0  0  0  0  0  0  0  0  0  0  0
    5.3380    3.8100    0.0000 H   0  0  0  0  0  0  0  0  0  0  0  0
    7.0510   10.0831    0.0000 H   0  0  0  0  0  0  0  0  0  0  0  0
    7.2779   10.9300    0.0000 H   0  0  0  0  0  0  0  0  0  0  0  0
    6.4310   11.1569    0.0000 H   0  0  0  0  0  0  0  0  0  0  0  0
    5.9119   11.2960    0.0000 H   0  0  0  0  0  0  0  0  0  0  0  0
    5.0650   11.5230    0.0000 H   0  0  0  0  0  0  0  0  0  0  0  0
    4.8380   10.6760    0.0000 H   0  0  0  0  0  0  0  0  0  0  0  0
    5.8380    8.9440    0.0000 H   0  0  0  0  0  0  0  0  0  0  0  0
    6.6850    8.7170    0.0000 H   0  0  0  0  0  0  0  0  0  0  0  0
    6.9119    9.5640    0.0000 H   0  0  0  0  0  0  0  0  0  0  0  0
    4.3316   15.5564    0.0000 H   0  0  0  0  0  0  0  0  0  0  0  0
    3.5055   15.0929    0.0000 H   0  0  0  0  0  0  0  0  0  0  0  0
    3.5055   14.1431    0.0000 H   0  0  0  0  0  0  0  0  0  0  0  0
    4.5580   13.5354    0.0000 H   0  0  0  0  0  0  0  0  0  0  0  0
    5.3806   14.0103    0.0000 H   0  0  0  0  0  0  0  0  0  0  0  0
    8.1440    2.4300    0.0000 H   0  0  0  0  0  0  0  0  0  0  0  0
    9.3391    4.5000    0.0000 H   0  0  0  0  0  0  0  0  0  0  0  0
    7.9361    6.9300    0.0000 H   0  0  0  0  0  0  0  0  0  0  0  0
    5.3189    3.1569    0.0000 H   0  0  0  0  0  0  0  0  0  0  0  0
    4.4720    2.9300    0.0000 H   0  0  0  0  0  0  0  0  0  0  0  0
    4.6989    2.0831    0.0000 H   0  0  0  0  0  0  0  0  0  0  0  0
    8.1440    0.8100    0.0000 H   0  0  0  0  0  0  0  0  0  0  0  0
   10.7420    5.3100    0.0000 H   0  0  0  0  0  0  0  0  0  0  0  0
    9.3391    7.7400    0.0000 H   0  0  0  0  0  0  0  0  0  0  0  0
    6.7410    0.0000    0.0000 H   0  0  0  0  0  0  0  0  0  0  0  0
   10.7420    6.9300    0.0000 H   0  0  0  0  0  0  0  0  0  0  0  0
    7.7561   18.2161    0.0000 H   0  0  0  0  0  0  0  0  0  0  0  0
    5.0089    0.0000    0.0000 H   0  0  0  0  0  0  0  0  0  0  0  0
    6.2700   20.3361    0.0000 H   0  0  0  0  0  0  0  0  0  0  0  0
    4.5172   20.3707    0.0000 H   0  0  0  0  0  0  0  0  0  0  0  0
    3.0683   19.5490    0.0000 H   0  0  0  0  0  0  0  0  0  0  0  0
  1 31  1  0  0  0  0
  1 37  1  0  0  0  0
  2 56  1  0  0  0  0
  3 56  1  0  0  0  0
  4 56  1  0  0  0  0
  5 59  1  0  0  0  0
  6 61  1  0  0  0  0
  7 27  2  0  0  0  0
 28  8  1  6  0  0  0
  8 83  1  0  0  0  0
  9 35  2  0  0  0  0
 10 46  1  0  0  0  0
 10113  1  0  0  0  0
 11 58  2  0  0  0  0
 12 20  1  0  0  0  0
 12 23  1  0  0  0  0
 12 26  1  0  0  0  0
 13 27  1  0  0  0  0
 13 30  1  0  0  0  0
 13 81  1  0  0  0  0
 29 14  1  6  0  0  0
 14 35  1  0  0  0  0
 14 86  1  0  0  0  0
 15 49  1  0  0  0  0
 15 58  1  0  0  0  0
 15112  1  0  0  0  0
 16 57  1  0  0  0  0
 16 58  1  0  0  0  0
 16114  1  0  0  0  0
 17 18  1  0  0  0  0
 17 19  1  0  0  0  0
 17 21  1  0  0  0  0
 17 63  1  6  0  0  0
 18 20  1  0  0  0  0
 18 22  1  0  0  0  0
 18 64  1  6  0  0  0
 19 23  1  0  0  0  0
 19 65  1  0  0  0  0
 19 66  1  0  0  0  0
 20 67  1  0  0  0  0
 20 68  1  0  0  0  0
 21 24  1  0  0  0  0
 21 69  1  0  0  0  0
 21 70  1  0  0  0  0
 22 25  1  0  0  0  0
 22 71  1  0  0  0  0
 22 72  1  0  0  0  0
 23 27  1  1  0  0  0
 23 73  1  0  0  0  0
 24 25  1  0  0  0  0
 24 74  1  0  0  0  0
 24 75  1  0  0  0  0
 25 76  1  0  0  0  0
 25 77  1  0  0  0  0
 26 28  1  0  0  0  0
 26 78  1  0  0  0  0
 26 79  1  0  0  0  0
 28 29  1  0  0  0  0
 28 80  1  0  0  0  0
 29 31  1  0  0  0  0
 29 82  1  0  0  0  0
 30 32  1  0  0  0  0
 30 33  1  0  0  0  0
 30 34  1  0  0  0  0
 31 84  1  0  0  0  0
 31 85  1  0  0  0  0
 32 87  1  0  0  0  0
 32 88  1  0  0  0  0
 32 89  1  0  0  0  0
 33 90  1  0  0  0  0
 33 91  1  0  0  0  0
 33 92  1  0  0  0  0
 34 93  1  0  0  0  0
 34 94  1  0  0  0  0
 34 95  1  0  0  0  0
 35 36  1  0  0  0  0
 36 41  2  0  0  0  0
 36 42  1  0  0  0  0
 37 43  2  0  0  0  0
 37 44  1  0  0  0  0
 38 39  1  0  0  0  0
 38 40  1  0  0  0  0
 38 45  1  0  0  0  0
 38 96  1  0  0  0  0
 39 40  1  0  0  0  0
 39 97  1  0  0  0  0
 39 98  1  0  0  0  0
 40 99  1  0  0  0  0
 40100  1  0  0  0  0
 41 46  1  0  0  0  0
 41 47  1  0  0  0  0
 42 48  2  0  0  0  0
 42101  1  0  0  0  0
 43 50  1  0  0  0  0
 43102  1  0  0  0  0
 44 51  2  0  0  0  0
 44103  1  0  0  0  0
 45 53  3  0  0  0  0
 46 52  2  0  0  0  0
 47104  1  0  0  0  0
 47105  1  0  0  0  0
 47106  1  0  0  0  0
 48 52  1  0  0  0  0
 48107  1  0  0  0  0
 49 53  1  1  0  0  0
 49 55  1  0  0  0  0
 49 56  1  0  0  0  0
 50 54  2  0  0  0  0
 50108  1  0  0  0  0
 51 54  1  0  0  0  0
 51109  1  0  0  0  0
 52110  1  0  0  0  0
 54111  1  0  0  0  0
 55 57  2  0  0  0  0
 55 59  1  0  0  0  0
 57 60  1  0  0  0  0
 59 61  2  0  0  0  0
 60 62  2  0  0  0  0
 60115  1  0  0  0  0
 61 62  1  0  0  0  0
 62116  1  0  0  0  0
M  END
> <PUBCHEM_COMPOUND_CID>
507087
> <PUBCHEM_COMPOUND_CANONICALIZED>
1
> <PUBCHEM_CACTVS_COMPLEXITY>
1380
> <PUBCHEM_CACTVS_HBOND_ACCEPTOR>
12
> <PUBCHEM_CACTVS_HBOND_DONOR>
6
> <PUBCHEM_CACTVS_ROTATABLE_BOND>
11
> <PUBCHEM_CACTVS_SUBSKEYS>
AAADcfB/ucBAAAAAAAAAAAAAGAAAAAAAAAA8eMGCAAAAAACxUAAAHwQQCAAADbzl2B6zx4PAAgjIEiVSUAiCAAAlKhAIiJmObMiKdjLi1bOUcQhs1hP42ae6yPCOgAABAAAaAAAAAAIAADQAAAAAAAAAAA==
> <PUBCHEM_IUPAC_OPENEYE_NAME>
(3S,4aS,8aS)-N-tert-butyl-2-[(2R,3R)-2-hydroxy-3-[(3-hydroxy-2-methyl-benzoyl)amino]-4-phenylsulfanyl-butyl]-3,4,4a,5,6,7,8,8a-octahydro-1H-isoquinoline-3-carboxamide;(4S)-4-(2-cyclopropylethynyl)-5,6-difluoro-4-(trifluoromethyl)-1,3-dihydroquinazolin-2-one
> <PUBCHEM_IUPAC_CAS_NAME>
(3S,4aS,8aS)-N-tert-butyl-2-[(2R,3R)-2-hydroxy-3-[[(3-hydroxy-2-methylphenyl)-oxomethyl]amino]-4-(phenylthio)butyl]-3,4,4a,5,6,7,8,8a-octahydro-1H-isoquinoline-3-carboxamide;(4S)-4-(2-cyclopropylethynyl)-5,6-difluoro-4-(trifluoromethyl)-1,3-dihydroquinazolin-2-one
> <PUBCHEM_IUPAC_NAME_MARKUP>
(3<I>S</I>,4<I>a</I><I>S</I>,8<I>a</I><I>S</I>)-<I>N</I>-<I>tert</I>-butyl-2-[(2<I>R</I>,3<I>R</I>)-2-hydroxy-3-[(3-hydroxy-2-methylbenzoyl)amino]-4-phenylsulfanylbutyl]-3,4,4<I>a</I>,5,6,7,8,8<I>a</I>-octahydro-1<I>H</I>-isoquinoline-3-carboxamide;(4<I>S</I>)-4-(2-cyclopropylethynyl)-5,6-difluoro-4-(trifluoromethyl)-1,3-dihydroquinazolin-2-one
> <PUBCHEM_IUPAC_NAME>
(3S,4aS,8aS)-N-tert-butyl-2-[(2R,3R)-2-hydroxy-3-[(3-hydroxy-2-methylbenzoyl)amino]-4-phenylsulfanylbutyl]-3,4,4a,5,6,7,8,8a-octahydro-1H-isoquinoline-3-carboxamide;(4S)-4-(2-cyclopropylethynyl)-5,6-difluoro-4-(trifluoromethyl)-1,3-dihydroquinazolin-2-one
> <PUBCHEM_IUPAC_SYSTEMATIC_NAME>
(3S,4aS,8aS)-N-tert-butyl-2-[(2R,3R)-3-[(2-methyl-3-oxidanyl-phenyl)carbonylamino]-2-oxidanyl-4-phenylsulfanyl-butyl]-3,4,4a,5,6,7,8,8a-octahydro-1H-isoquinoline-3-carboxamide;(4S)-4-(2-cyclopropylethynyl)-5,6-bis(fluoranyl)-4-(trifluoromethyl)-1,3-dihydroquinazolin-2-one
> <PUBCHEM_IUPAC_TRADITIONAL_NAME>
(3S,4aS,8aS)-N-tert-butyl-2-[(2R,3R)-2-hydroxy-3-[(3-hydroxy-2-methyl-benzoyl)amino]-4-(phenylthio)butyl]-3,4,4a,5,6,7,8,8a-octahydro-1H-isoquinoline-3-carboxamide;(4S)-4-(2-cyclopropylethynyl)-5,6-difluoro-4-(trifluoromethyl)-1,3-dihydroquinazolin-2-one
> <PUBCHEM_IUPAC_INCHI>
InChI=1S/C32H45N3O4S.C14H9F5N2O/c1-21-25(15-10-16-28(21)36)30(38)33-26(20-40-24-13-6-5-7-14-24)29(37)19-35-18-23-12-9-8-11-22(23)17-27(35)31(39)34-32(2,3)4;15-8-3-4-9-10(11(8)16)13(14(17,18)19,21-12(22)20-9)6-5-7-1-2-7/h5-7,10,13-16,22-23,26-27,29,36-37H,8-9,11-12,17-20H2,1-4H3,(H,33,38)(H,34,39);3-4,7H,1-2H2,(H2,20,21,22)/t22-,23+,26-,27-,29+;13-/m00/s1
> <PUBCHEM_IUPAC_INCHIKEY>
NGTNYIYJKUMRFT-FBHACBHOSA-N
> <PUBCHEM_EXACT_MASS>
883.37658182
> <PUBCHEM_MOLECULAR_FORMULA>
C46H54F5N5O5S
> <PUBCHEM_MOLECULAR_WEIGHT>
884.0
> <PUBCHEM_OPENEYE_CAN_SMILES>
CC1=C(C=CC=C1O)C(=O)NC(CSC2=CC=CC=C2)C(CN3CC4CCCCC4CC3C(=O)NC(C)(C)C)O.C1CC1C#CC2(C3=C(C=CC(=C3F)F)NC(=O)N2)C(F)(F)F
> <PUBCHEM_OPENEYE_ISO_SMILES>
CC1=C(C=CC=C1O)C(=O)N[C@@H](CSC2=CC=CC=C2)[C@@H](CN3C[C@H]4CCCC[C@H]4C[C@H]3C(=O)NC(C)(C)C)O.C1CC1C#C[C@]2(C3=C(C=CC(=C3F)F)NC(=O)N2)C(F)(F)F
> <PUBCHEM_CACTVS_TPSA>
168
> <PUBCHEM_MONOISOTOPIC_WEIGHT>
883.37658182
> <PUBCHEM_TOTAL_CHARGE>
0
> <PUBCHEM_HEAVY_ATOM_COUNT>
62
> <PUBCHEM_ATOM_DEF_STEREO_COUNT>
6
> <PUBCHEM_ATOM_UDEF_STEREO_COUNT>
0
> <PUBCHEM_BOND_DEF_STEREO_COUNT>
0
> <PUBCHEM_BOND_UDEF_STEREO_COUNT>
0
> <PUBCHEM_ISOTOPIC_ATOM_COUNT>
0
> <PUBCHEM_COMPONENT_COUNT>
2
> <PUBCHEM_CACTVS_TAUTO_COUNT>
-1
> <PUBCHEM_COORDINATE_TYPE>
1
5
255
> <PUBCHEM_BONDANNOTATIONS>
29  14  6
17  63  6
18  64  6
23  27  5
36  41  8
36  42  8
37  43  8
37  44  8
41  46  8
42  48  8
43  50  8
44  51  8
46  52  8
48  52  8
49  53  5
50  54  8
51  54  8
55  57  8
55  59  8
57  60  8
59  61  8
60  62  8
61  62  8
28  8  6
$$$$
