507081
  -OEChem-10302200282D
 57 60  0     1  0  0  0  0  0999 V2000
    5.1457    4.7754    0.0000 Cl  0  0  0  0  0  0  0  0  0  0  0  0
    0.9030    2.2242    0.0000 S   0  0  0  0  0  0  0  0  0  0  0  0
    9.6758    3.0675    0.0000 F   0  0  0  0  0  0  0  0  0  0  0  0
    8.6758    3.0675    0.0000 F   0  0  0  0  0  0  0  0  0  0  0  0
   10.1758    3.9335    0.0000 F   0  0  0  0  0  0  0  0  0  0  0  0
    2.2120    3.1752    0.0000 O   0  0  0  0  0  0  0  0  0  0  0  0
   10.4079    6.7995    0.0000 O   0  0  0  0  0  0  0  0  0  0  0  0
    2.0840    0.5016    0.0000 O   0  0  0  0  0  0  0  0  0  0  0  0
    3.1350    4.7630    0.0000 O   0  0  0  0  0  0  0  0  0  0  0  0
    9.5418    5.2995    0.0000 N   0  0  0  0  0  0  0  0  0  0  0  0
    8.6758    6.7995    0.0000 N   0  0  0  0  0  0  0  0  0  0  0  0
    1.4030    4.7630    0.0000 N   0  0  0  0  0  0  0  0  0  0  0  0
    2.2690    6.2630    0.0000 N   0  0  0  0  0  0  0  0  0  0  0  0
    1.4030    7.7630    0.0000 N   0  0  0  0  0  0  0  0  0  0  0  0
    7.1758    2.2014    0.0000 C   0  0  0  0  0  0  0  0  0  0  0  0
    6.3098    1.7014    0.0000 C   0  0  0  0  0  0  0  0  0  0  0  0
    7.1758    1.2014    0.0000 C   0  0  0  0  0  0  0  0  0  0  0  0
    7.6758    3.0675    0.0000 C   0  0  0  0  0  0  0  0  0  0  0  0
    8.6758    4.7995    0.0000 C   0  0  2  0  0  0  0  0  0  0  0  0
    7.8098    5.2995    0.0000 C   0  0  0  0  0  0  0  0  0  0  0  0
    8.1758    3.9335    0.0000 C   0  0  0  0  0  0  0  0  0  0  0  0
    9.1758    3.9335    0.0000 C   0  0  0  0  0  0  0  0  0  0  0  0
    7.8098    6.2995    0.0000 C   0  0  0  0  0  0  0  0  0  0  0  0
    1.4030    3.7630    0.0000 C   0  0  2  0  0  0  0  0  0  0  0  0
    6.9158    4.7649    0.0000 C   0  0  0  0  0  0  0  0  0  0  0  0
    9.5418    6.2995    0.0000 C   0  0  0  0  0  0  0  0  0  0  0  0
    0.5939    3.1752    0.0000 C   0  0  0  0  0  0  0  0  0  0  0  0
    1.9030    2.2242    0.0000 C   0  0  1  0  0  0  0  0  0  0  0  0
    6.9158    6.8342    0.0000 C   0  0  0  0  0  0  0  0  0  0  0  0
    6.0098    5.2787    0.0000 C   0  0  0  0  0  0  0  0  0  0  0  0
    6.0098    6.3204    0.0000 C   0  0  0  0  0  0  0  0  0  0  0  0
    2.4907    1.4151    0.0000 C   0  0  0  0  0  0  0  0  0  0  0  0
    0.5369    5.2630    0.0000 C   0  0  0  0  0  0  0  0  0  0  0  0
    2.2690    5.2630    0.0000 C   0  0  0  0  0  0  0  0  0  0  0  0
    0.5369    6.2630    0.0000 C   0  0  0  0  0  0  0  0  0  0  0  0
    1.4030    6.7630    0.0000 C   0  0  0  0  0  0  0  0  0  0  0  0
    7.7747    2.0410    0.0000 H   0  0  0  0  0  0  0  0  0  0  0  0
    5.9113    2.1764    0.0000 H   0  0  0  0  0  0  0  0  0  0  0  0
    5.9113    1.2265    0.0000 H   0  0  0  0  0  0  0  0  0  0  0  0
    6.9638    0.6188    0.0000 H   0  0  0  0  0  0  0  0  0  0  0  0
    7.7864    1.0938    0.0000 H   0  0  0  0  0  0  0  0  0  0  0  0
   10.1618    5.2995    0.0000 H   0  0  0  0  0  0  0  0  0  0  0  0
    1.9554    4.0445    0.0000 H   0  0  0  0  0  0  0  0  0  0  0  0
    6.9230    4.1449    0.0000 H   0  0  0  0  0  0  0  0  0  0  0  0
    0.2839    3.7122    0.0000 H   0  0  0  0  0  0  0  0  0  0  0  0
    0.0275    2.9230    0.0000 H   0  0  0  0  0  0  0  0  0  0  0  0
    2.5153    2.3211    0.0000 H   0  0  0  0  0  0  0  0  0  0  0  0
    8.6758    7.4195    0.0000 H   0  0  0  0  0  0  0  0  0  0  0  0
    6.9230    7.4542    0.0000 H   0  0  0  0  0  0  0  0  0  0  0  0
    3.0048    1.0684    0.0000 H   0  0  0  0  0  0  0  0  0  0  0  0
    2.9214    1.8611    0.0000 H   0  0  0  0  0  0  0  0  0  0  0  0
    5.4740    6.6324    0.0000 H   0  0  0  0  0  0  0  0  0  0  0  0
    0.0000    4.9530    0.0000 H   0  0  0  0  0  0  0  0  0  0  0  0
    0.0000    6.5730    0.0000 H   0  0  0  0  0  0  0  0  0  0  0  0
    2.4484    0.0000    0.0000 H   0  0  0  0  0  0  0  0  0  0  0  0
    0.8660    8.0730    0.0000 H   0  0  0  0  0  0  0  0  0  0  0  0
    1.9399    8.0730    0.0000 H   0  0  0  0  0  0  0  0  0  0  0  0
  1 30  1  0  0  0  0
  2 27  1  0  0  0  0
  2 28  1  0  0  0  0
  3 22  1  0  0  0  0
  4 22  1  0  0  0  0
  5 22  1  0  0  0  0
  6 24  1  0  0  0  0
  6 28  1  0  0  0  0
  7 26  2  0  0  0  0
  8 32  1  0  0  0  0
  8 55  1  0  0  0  0
  9 34  2  0  0  0  0
 10 19  1  0  0  0  0
 10 26  1  0  0  0  0
 10 42  1  0  0  0  0
 11 23  1  0  0  0  0
 11 26  1  0  0  0  0
 11 48  1  0  0  0  0
 24 12  1  1  0  0  0
 12 33  1  0  0  0  0
 12 34  1  0  0  0  0
 13 34  1  0  0  0  0
 13 36  2  0  0  0  0
 14 36  1  0  0  0  0
 14 56  1  0  0  0  0
 14 57  1  0  0  0  0
 15 16  1  0  0  0  0
 15 17  1  0  0  0  0
 15 18  1  0  0  0  0
 15 37  1  0  0  0  0
 16 17  1  0  0  0  0
 16 38  1  0  0  0  0
 16 39  1  0  0  0  0
 17 40  1  0  0  0  0
 17 41  1  0  0  0  0
 18 21  3  0  0  0  0
 19 20  1  0  0  0  0
 19 21  1  1  0  0  0
 19 22  1  0  0  0  0
 20 23  2  0  0  0  0
 20 25  1  0  0  0  0
 23 29  1  0  0  0  0
 24 27  1  0  0  0  0
 24 43  1  0  0  0  0
 25 30  2  0  0  0  0
 25 44  1  0  0  0  0
 27 45  1  0  0  0  0
 27 46  1  0  0  0  0
 28 32  1  1  0  0  0
 28 47  1  0  0  0  0
 29 31  2  0  0  0  0
 29 49  1  0  0  0  0
 30 31  1  0  0  0  0
 31 52  1  0  0  0  0
 32 50  1  0  0  0  0
 32 51  1  0  0  0  0
 33 35  2  0  0  0  0
 33 53  1  0  0  0  0
 35 36  1  0  0  0  0
 35 54  1  0  0  0  0
M  END
> <PUBCHEM_COMPOUND_CID>
507081
> <PUBCHEM_COMPOUND_CANONICALIZED>
1
> <PUBCHEM_CACTVS_COMPLEXITY>
850
> <PUBCHEM_CACTVS_HBOND_ACCEPTOR>
8
> <PUBCHEM_CACTVS_HBOND_DONOR>
4
> <PUBCHEM_CACTVS_ROTATABLE_BOND>
3
> <PUBCHEM_CACTVS_SUBSKEYS>
AAADceB7uYBEAAAAAAAAAAAAGAAAASAAAAA8QIAAAAAAAACxAAAAHwYQCAAADYrl2DaxwIPABgjoEiZmdAiCAAEhBxAIiAAYZpiJMCLB05GOIAholgJryCcQgMAOgABAIAACAAAAAIBAAAQAAAAAAAAAAA==
> <PUBCHEM_IUPAC_OPENEYE_NAME>
4-amino-1-[(2R,5S)-2-(hydroxymethyl)-1,3-oxathiolan-5-yl]pyrimidin-2-one;(4S)-6-chloro-4-(2-cyclopropylethynyl)-4-(trifluoromethyl)-1,3-dihydroquinazolin-2-one
> <PUBCHEM_IUPAC_CAS_NAME>
4-amino-1-[(2R,5S)-2-(hydroxymethyl)-1,3-oxathiolan-5-yl]-2-pyrimidinone;(4S)-6-chloro-4-(2-cyclopropylethynyl)-4-(trifluoromethyl)-1,3-dihydroquinazolin-2-one
> <PUBCHEM_IUPAC_NAME_MARKUP>
4-amino-1-[(2<I>R</I>,5<I>S</I>)-2-(hydroxymethyl)-1,3-oxathiolan-5-yl]pyrimidin-2-one;(4<I>S</I>)-6-chloro-4-(2-cyclopropylethynyl)-4-(trifluoromethyl)-1,3-dihydroquinazolin-2-one
> <PUBCHEM_IUPAC_NAME>
4-amino-1-[(2R,5S)-2-(hydroxymethyl)-1,3-oxathiolan-5-yl]pyrimidin-2-one;(4S)-6-chloro-4-(2-cyclopropylethynyl)-4-(trifluoromethyl)-1,3-dihydroquinazolin-2-one
> <PUBCHEM_IUPAC_SYSTEMATIC_NAME>
4-azanyl-1-[(2R,5S)-2-(hydroxymethyl)-1,3-oxathiolan-5-yl]pyrimidin-2-one;(4S)-6-chloranyl-4-(2-cyclopropylethynyl)-4-(trifluoromethyl)-1,3-dihydroquinazolin-2-one
> <PUBCHEM_IUPAC_TRADITIONAL_NAME>
4-amino-1-[(2R,5S)-2-methylol-1,3-oxathiolan-5-yl]pyrimidin-2-one;(4S)-6-chloro-4-(2-cyclopropylethynyl)-4-(trifluoromethyl)-1,3-dihydroquinazolin-2-one
> <PUBCHEM_IUPAC_INCHI>
InChI=1S/C14H10ClF3N2O.C8H11N3O3S/c15-9-3-4-11-10(7-9)13(14(16,17)18,20-12(21)19-11)6-5-8-1-2-8;9-5-1-2-11(8(13)10-5)6-4-15-7(3-12)14-6/h3-4,7-8H,1-2H2,(H2,19,20,21);1-2,6-7,12H,3-4H2,(H2,9,10,13)/t13-;6-,7+/m00/s1
> <PUBCHEM_IUPAC_INCHIKEY>
AEMZCFWKRKKROK-KOALALCKSA-N
> <PUBCHEM_EXACT_MASS>
543.0954875
> <PUBCHEM_MOLECULAR_FORMULA>
C22H21ClF3N5O4S
> <PUBCHEM_MOLECULAR_WEIGHT>
543.9
> <PUBCHEM_OPENEYE_CAN_SMILES>
C1CC1C#CC2(C3=C(C=CC(=C3)Cl)NC(=O)N2)C(F)(F)F.C1C(OC(S1)CO)N2C=CC(=NC2=O)N
> <PUBCHEM_OPENEYE_ISO_SMILES>
C1CC1C#C[C@]2(C3=C(C=CC(=C3)Cl)NC(=O)N2)C(F)(F)F.C1[C@H](O[C@H](S1)CO)N2C=CC(=NC2=O)N
> <PUBCHEM_CACTVS_TPSA>
155
> <PUBCHEM_MONOISOTOPIC_WEIGHT>
543.0954875
> <PUBCHEM_TOTAL_CHARGE>
0
> <PUBCHEM_HEAVY_ATOM_COUNT>
36
> <PUBCHEM_ATOM_DEF_STEREO_COUNT>
3
> <PUBCHEM_ATOM_UDEF_STEREO_COUNT>
0
> <PUBCHEM_BOND_DEF_STEREO_COUNT>
0
> <PUBCHEM_BOND_UDEF_STEREO_COUNT>
0
> <PUBCHEM_ISOTOPIC_ATOM_COUNT>
0
> <PUBCHEM_COMPONENT_COUNT>
2
> <PUBCHEM_CACTVS_TAUTO_COUNT>
-1
> <PUBCHEM_COORDINATE_TYPE>
1
5
255
> <PUBCHEM_BONDANNOTATIONS>
24  12  5
12  33  8
12  34  8
13  34  8
13  36  8
19  21  5
20  23  8
20  25  8
23  29  8
25  30  8
28  32  5
29  31  8
30  31  8
33  35  8
35  36  8
$$$$
