507043
  -OEChem-10302200282D
 73 75  0     1  0  0  0  0  0999 V2000
   11.3081   -0.9586    0.0000 O   0  0  0  0  0  0  0  0  0  0  0  0
    7.5609   -2.3692    0.0000 O   0  0  0  0  0  0  0  0  0  0  0  0
   11.6303    1.0060    0.0000 O   0  0  0  0  0  0  0  0  0  0  0  0
    3.9887   -2.8585    0.0000 O   0  0  0  0  0  0  0  0  0  0  0  0
    4.1727   -1.1363    0.0000 O   0  0  0  0  0  0  0  0  0  0  0  0
    7.7449   -0.6470    0.0000 N   0  0  0  0  0  0  0  0  0  0  0  0
   10.0480    0.3015    0.0000 N   0  0  0  0  0  0  0  0  0  0  0  0
   10.2291    2.0240    0.0000 N   0  0  0  0  0  0  0  0  0  0  0  0
    5.5722   -2.1568    0.0000 N   0  0  0  0  0  0  0  0  0  0  0  0
    9.5480   -1.2374    0.0000 C   0  0  0  0  0  0  0  0  0  0  0  0
    8.7390   -0.6496    0.0000 C   0  0  2  0  0  0  0  0  0  0  0  0
    9.0480    0.3015    0.0000 C   0  0  2  0  0  0  0  0  0  0  0  0
   10.2551   -1.9445    0.0000 C   0  0  0  0  0  0  0  0  0  0  0  0
    8.8409   -1.9445    0.0000 C   0  0  0  0  0  0  0  0  0  0  0  0
    9.5480   -2.6516    0.0000 C   0  0  0  0  0  0  0  0  0  0  0  0
   10.3570   -0.6496    0.0000 C   0  0  0  0  0  0  0  0  0  0  0  0
    8.2423    0.8837    0.0000 C   0  0  0  0  0  0  0  0  0  0  0  0
    7.4385    0.2987    0.0000 C   0  0  0  0  0  0  0  0  0  0  0  0
    7.1557   -1.4550    0.0000 C   0  0  0  0  0  0  0  0  0  0  0  0
   10.6358    1.1105    0.0000 C   0  0  0  0  0  0  0  0  0  0  0  0
    6.1614   -1.3488    0.0000 C   0  0  2  0  0  0  0  0  0  0  0  0
    5.7562   -0.4345    0.0000 C   0  0  0  0  0  0  0  0  0  0  0  0
   10.8168    2.8330    0.0000 C   0  0  0  0  0  0  0  0  0  0  0  0
    9.2345    2.1286    0.0000 C   0  0  0  0  0  0  0  0  0  0  0  0
    4.7619   -0.3283    0.0000 C   0  0  0  0  0  0  0  0  0  0  0  0
    6.3454    0.3735    0.0000 C   0  0  0  0  0  0  0  0  0  0  0  0
   10.4101    3.7466    0.0000 C   0  0  0  0  0  0  0  0  0  0  0  0
    8.8278    3.0421    0.0000 C   0  0  0  0  0  0  0  0  0  0  0  0
    4.5779   -2.0505    0.0000 C   0  0  0  0  0  0  0  0  0  0  0  0
    2.9943   -2.7522    0.0000 C   0  0  0  0  0  0  0  0  0  0  0  0
    2.0000   -2.6460    0.0000 C   0  0  0  0  0  0  0  0  0  0  0  0
    2.8881   -3.7466    0.0000 C   0  0  0  0  0  0  0  0  0  0  0  0
    3.1006   -1.7579    0.0000 C   0  0  0  0  0  0  0  0  0  0  0  0
    8.4753   -1.4576    0.0000 H   0  0  0  0  0  0  0  0  0  0  0  0
    9.3096    1.1102    0.0000 H   0  0  0  0  0  0  0  0  0  0  0  0
   10.6935   -2.3829    0.0000 H   0  0  0  0  0  0  0  0  0  0  0  0
   10.6935   -1.5061    0.0000 H   0  0  0  0  0  0  0  0  0  0  0  0
    8.4025   -1.5061    0.0000 H   0  0  0  0  0  0  0  0  0  0  0  0
    8.4025   -2.3829    0.0000 H   0  0  0  0  0  0  0  0  0  0  0  0
    9.1096   -3.0900    0.0000 H   0  0  0  0  0  0  0  0  0  0  0  0
    9.9864   -3.0900    0.0000 H   0  0  0  0  0  0  0  0  0  0  0  0
    8.6562    1.3453    0.0000 H   0  0  0  0  0  0  0  0  0  0  0  0
    7.8267    1.3438    0.0000 H   0  0  0  0  0  0  0  0  0  0  0  0
    7.1284    0.8355    0.0000 H   0  0  0  0  0  0  0  0  0  0  0  0
    6.8721    0.0467    0.0000 H   0  0  0  0  0  0  0  0  0  0  0  0
    6.7779   -1.4146    0.0000 H   0  0  0  0  0  0  0  0  0  0  0  0
    5.3909   -0.9355    0.0000 H   0  0  0  0  0  0  0  0  0  0  0  0
    5.8234   -2.7236    0.0000 H   0  0  0  0  0  0  0  0  0  0  0  0
   11.2475    2.3871    0.0000 H   0  0  0  0  0  0  0  0  0  0  0  0
   11.3308    3.1798    0.0000 H   0  0  0  0  0  0  0  0  0  0  0  0
    8.6329    1.9786    0.0000 H   0  0  0  0  0  0  0  0  0  0  0  0
    9.2778    1.5101    0.0000 H   0  0  0  0  0  0  0  0  0  0  0  0
    4.8278    0.2882    0.0000 H   0  0  0  0  0  0  0  0  0  0  0  0
    4.1454   -0.2624    0.0000 H   0  0  0  0  0  0  0  0  0  0  0  0
    4.6960   -0.9447    0.0000 H   0  0  0  0  0  0  0  0  0  0  0  0
    6.8464    0.0082    0.0000 H   0  0  0  0  0  0  0  0  0  0  0  0
    6.7107    0.8744    0.0000 H   0  0  0  0  0  0  0  0  0  0  0  0
    5.8445    0.7388    0.0000 H   0  0  0  0  0  0  0  0  0  0  0  0
   10.9765    3.9988    0.0000 H   0  0  0  0  0  0  0  0  0  0  0  0
   10.1579    4.3130    0.0000 H   0  0  0  0  0  0  0  0  0  0  0  0
    9.8437    3.4944    0.0000 H   0  0  0  0  0  0  0  0  0  0  0  0
    9.3942    3.2943    0.0000 H   0  0  0  0  0  0  0  0  0  0  0  0
    8.5756    3.6085    0.0000 H   0  0  0  0  0  0  0  0  0  0  0  0
    8.2614    2.7899    0.0000 H   0  0  0  0  0  0  0  0  0  0  0  0
    2.0659   -2.0295    0.0000 H   0  0  0  0  0  0  0  0  0  0  0  0
    1.3835   -2.5801    0.0000 H   0  0  0  0  0  0  0  0  0  0  0  0
    1.9341   -3.2625    0.0000 H   0  0  0  0  0  0  0  0  0  0  0  0
    2.2716   -3.6807    0.0000 H   0  0  0  0  0  0  0  0  0  0  0  0
    2.8222   -4.3631    0.0000 H   0  0  0  0  0  0  0  0  0  0  0  0
    3.5046   -3.8125    0.0000 H   0  0  0  0  0  0  0  0  0  0  0  0
    3.7171   -1.8238    0.0000 H   0  0  0  0  0  0  0  0  0  0  0  0
    3.1665   -1.1414    0.0000 H   0  0  0  0  0  0  0  0  0  0  0  0
    2.4841   -1.6920    0.0000 H   0  0  0  0  0  0  0  0  0  0  0  0
  1 16  2  0  0  0  0
  2 19  2  0  0  0  0
  3 20  2  0  0  0  0
  4 29  1  0  0  0  0
  4 30  1  0  0  0  0
  5 29  2  0  0  0  0
  6 11  1  0  0  0  0
  6 18  1  0  0  0  0
  6 19  1  0  0  0  0
  7 12  1  0  0  0  0
  7 16  1  0  0  0  0
  7 20  1  0  0  0  0
  8 20  1  0  0  0  0
  8 23  1  0  0  0  0
  8 24  1  0  0  0  0
 21  9  1  1  0  0  0
  9 29  1  0  0  0  0
  9 48  1  0  0  0  0
 10 11  1  0  0  0  0
 10 13  1  0  0  0  0
 10 14  1  0  0  0  0
 10 16  1  0  0  0  0
 11 12  1  0  0  0  0
 11 34  1  6  0  0  0
 12 17  1  0  0  0  0
 12 35  1  1  0  0  0
 13 15  1  0  0  0  0
 13 36  1  0  0  0  0
 13 37  1  0  0  0  0
 14 15  1  0  0  0  0
 14 38  1  0  0  0  0
 14 39  1  0  0  0  0
 15 40  1  0  0  0  0
 15 41  1  0  0  0  0
 17 18  1  0  0  0  0
 17 42  1  0  0  0  0
 17 43  1  0  0  0  0
 18 44  1  0  0  0  0
 18 45  1  0  0  0  0
 19 21  1  0  0  0  0
 21 22  1  0  0  0  0
 21 46  1  0  0  0  0
 22 25  1  0  0  0  0
 22 26  1  0  0  0  0
 22 47  1  0  0  0  0
 23 27  1  0  0  0  0
 23 49  1  0  0  0  0
 23 50  1  0  0  0  0
 24 28  1  0  0  0  0
 24 51  1  0  0  0  0
 24 52  1  0  0  0  0
 25 53  1  0  0  0  0
 25 54  1  0  0  0  0
 25 55  1  0  0  0  0
 26 56  1  0  0  0  0
 26 57  1  0  0  0  0
 26 58  1  0  0  0  0
 27 59  1  0  0  0  0
 27 60  1  0  0  0  0
 27 61  1  0  0  0  0
 28 62  1  0  0  0  0
 28 63  1  0  0  0  0
 28 64  1  0  0  0  0
 30 31  1  0  0  0  0
 30 32  1  0  0  0  0
 30 33  1  0  0  0  0
 31 65  1  0  0  0  0
 31 66  1  0  0  0  0
 31 67  1  0  0  0  0
 32 68  1  0  0  0  0
 32 69  1  0  0  0  0
 32 70  1  0  0  0  0
 33 71  1  0  0  0  0
 33 72  1  0  0  0  0
 33 73  1  0  0  0  0
M  END
> <PUBCHEM_COMPOUND_CID>
507043
> <PUBCHEM_COMPOUND_CANONICALIZED>
1
> <PUBCHEM_CACTVS_COMPLEXITY>
797
> <PUBCHEM_CACTVS_HBOND_ACCEPTOR>
5
> <PUBCHEM_CACTVS_HBOND_DONOR>
1
> <PUBCHEM_CACTVS_ROTATABLE_BOND>
7
> <PUBCHEM_CACTVS_SUBSKEYS>
AAADcfB7uAAAAAAAAAAAAAAAAABgAWLAAAAAAAAAAAAWAAAAAAAAHgAQAAAAD2zBgAQDCAPABAAIAAEQGAAAAAAAAAAAAIGIAAGAQBoAwCAcAAAIFyKAAAEciIAPAAAAAAAAAAAAAAAAAAAAAAAAAAAAAA==
> <PUBCHEM_IUPAC_OPENEYE_NAME>
tert-butyl N-[(1S)-1-[(3aS,6aR)-4-(diethylcarbamoyl)-5-oxo-spiro[2,3,3a,6a-tetrahydropyrrolo[3,2-b]pyrrole-6,1'-cyclobutane]-1-carbonyl]-2-methyl-propyl]carbamate
> <PUBCHEM_IUPAC_CAS_NAME>
N-[(2S)-1-[(3aS,6aR)-4-[diethylamino(oxo)methyl]-5-oxo-1-spiro[2,3,3a,6a-tetrahydropyrrolo[3,2-b]pyrrole-6,1'-cyclobutane]yl]-3-methyl-1-oxobutan-2-yl]carbamic acid tert-butyl ester
> <PUBCHEM_IUPAC_NAME_MARKUP>
<I>tert</I>-butyl <I>N</I>-[(2<I>S</I>)-1-[(3<I>a</I><I>S</I>,6<I>a</I><I>R</I>)-4-(diethylcarbamoyl)-5-oxospiro[2,3,3<I>a</I>,6<I>a</I>-tetrahydropyrrolo[3,2-b]pyrrole-6,1&apos;-cyclobutane]-1-yl]-3-methyl-1-oxobutan-2-yl]carbamate
> <PUBCHEM_IUPAC_NAME>
tert-butyl N-[(2S)-1-[(3aS,6aR)-4-(diethylcarbamoyl)-5-oxospiro[2,3,3a,6a-tetrahydropyrrolo[3,2-b]pyrrole-6,1'-cyclobutane]-1-yl]-3-methyl-1-oxobutan-2-yl]carbamate
> <PUBCHEM_IUPAC_SYSTEMATIC_NAME>
tert-butyl N-[(2S)-1-[(3aS,6aR)-4-(diethylcarbamoyl)-5-oxidanylidene-spiro[2,3,3a,6a-tetrahydropyrrolo[3,2-b]pyrrole-6,1'-cyclobutane]-1-yl]-3-methyl-1-oxidanylidene-butan-2-yl]carbamate
> <PUBCHEM_IUPAC_TRADITIONAL_NAME>
N-[(1S)-1-[(3aS,6aR)-4-(diethylcarbamoyl)-5-keto-spiro[2,3,3a,6a-tetrahydropyrrolo[3,2-b]pyrrole-6,1'-cyclobutane]-1-carbonyl]-2-methyl-propyl]carbamic acid tert-butyl ester
> <PUBCHEM_IUPAC_INCHI>
InChI=1S/C24H40N4O5/c1-8-26(9-2)22(32)28-16-11-14-27(18(16)24(20(28)30)12-10-13-24)19(29)17(15(3)4)25-21(31)33-23(5,6)7/h15-18H,8-14H2,1-7H3,(H,25,31)/t16-,17-,18-/m0/s1
> <PUBCHEM_IUPAC_INCHIKEY>
ZRSOYQBQWHFKPK-BZSNNMDCSA-N
> <PUBCHEM_XLOGP3_AA>
2.7
> <PUBCHEM_EXACT_MASS>
464.29987039
> <PUBCHEM_MOLECULAR_FORMULA>
C24H40N4O5
> <PUBCHEM_MOLECULAR_WEIGHT>
464.6
> <PUBCHEM_OPENEYE_CAN_SMILES>
CCN(CC)C(=O)N1C2CCN(C2C3(C1=O)CCC3)C(=O)C(C(C)C)NC(=O)OC(C)(C)C
> <PUBCHEM_OPENEYE_ISO_SMILES>
CCN(CC)C(=O)N1[C@H]2CCN([C@@H]2C3(C1=O)CCC3)C(=O)[C@H](C(C)C)NC(=O)OC(C)(C)C
> <PUBCHEM_CACTVS_TPSA>
99.3
> <PUBCHEM_MONOISOTOPIC_WEIGHT>
464.29987039
> <PUBCHEM_TOTAL_CHARGE>
0
> <PUBCHEM_HEAVY_ATOM_COUNT>
33
> <PUBCHEM_ATOM_DEF_STEREO_COUNT>
3
> <PUBCHEM_ATOM_UDEF_STEREO_COUNT>
0
> <PUBCHEM_BOND_DEF_STEREO_COUNT>
0
> <PUBCHEM_BOND_UDEF_STEREO_COUNT>
0
> <PUBCHEM_ISOTOPIC_ATOM_COUNT>
0
> <PUBCHEM_COMPONENT_COUNT>
1
> <PUBCHEM_CACTVS_TAUTO_COUNT>
-1
> <PUBCHEM_COORDINATE_TYPE>
1
5
255
> <PUBCHEM_BONDANNOTATIONS>
11  34  6
12  35  5
21  9  5
$$$$
