507051
  -OEChem-10302200282D
109111  0     1  0  0  0  0  0999 V2000
    2.0000    3.0398    0.0000 O   0  0  0  0  0  0  0  0  0  0  0  0
    5.4641    2.0398    0.0000 O   0  0  0  0  0  0  0  0  0  0  0  0
    6.3301    1.5398    0.0000 O   0  0  0  0  0  0  0  0  0  0  0  0
    8.9282   -0.9602    0.0000 O   0  0  0  0  0  0  0  0  0  0  0  0
    9.7942   -1.4602    0.0000 O   0  0  0  0  0  0  0  0  0  0  0  0
   13.2583   -2.4602    0.0000 O   0  0  0  0  0  0  0  0  0  0  0  0
   14.9904   -1.4602    0.0000 O   0  0  0  0  0  0  0  0  0  0  0  0
   14.1244    0.0398    0.0000 O   0  0  0  0  0  0  0  0  0  0  0  0
   14.1244   -5.9602    0.0000 O   0  0  0  0  0  0  0  0  0  0  0  0
   12.3923   -5.9602    0.0000 O   0  0  0  0  0  0  0  0  0  0  0  0
    3.7320    2.0398    0.0000 N   0  0  0  0  0  0  0  0  0  0  0  0
    5.4641    0.0398    0.0000 N   0  0  0  0  0  0  0  0  0  0  0  0
    2.0570    5.1276    0.0000 N   0  0  0  0  0  0  0  0  0  0  0  0
    3.6750    5.1276    0.0000 N   0  0  0  0  0  0  0  0  0  0  0  0
    8.0622    0.5398    0.0000 N   0  0  0  0  0  0  0  0  0  0  0  0
    2.3660    6.0786    0.0000 N   0  0  0  0  0  0  0  0  0  0  0  0
    3.3660    6.0786    0.0000 N   0  0  0  0  0  0  0  0  0  0  0  0
   10.6603    0.0398    0.0000 N   0  0  0  0  0  0  0  0  0  0  0  0
   11.5263   -2.4602    0.0000 N   0  0  0  0  0  0  0  0  0  0  0  0
    3.7320    3.0398    0.0000 C   0  0  0  0  0  0  0  0  0  0  0  0
    4.2320    3.9058    0.0000 C   0  0  0  0  0  0  0  0  0  0  0  0
    4.7320    3.0398    0.0000 C   0  0  0  0  0  0  0  0  0  0  0  0
    2.8660    3.5398    0.0000 C   0  0  0  0  0  0  0  0  0  0  0  0
    3.7320   -0.9602    0.0000 C   0  0  0  0  0  0  0  0  0  0  0  0
    3.7320    0.0398    0.0000 C   0  0  0  0  0  0  0  0  0  0  0  0
    4.5981    0.5398    0.0000 C   0  0  1  0  0  0  0  0  0  0  0  0
    4.5981    1.5398    0.0000 C   0  0  0  0  0  0  0  0  0  0  0  0
    2.8660   -1.4602    0.0000 C   0  0  0  0  0  0  0  0  0  0  0  0
    4.5981   -1.4602    0.0000 C   0  0  0  0  0  0  0  0  0  0  0  0
    2.8660   -2.4602    0.0000 C   0  0  0  0  0  0  0  0  0  0  0  0
    4.5981   -2.4602    0.0000 C   0  0  0  0  0  0  0  0  0  0  0  0
    3.7320   -2.9602    0.0000 C   0  0  0  0  0  0  0  0  0  0  0  0
    2.8660    4.5398    0.0000 C   0  0  0  0  0  0  0  0  0  0  0  0
    6.3301    0.5398    0.0000 C   0  0  0  0  0  0  0  0  0  0  0  0
    7.1962    0.0398    0.0000 C   0  0  2  0  0  0  0  0  0  0  0  0
    7.1962   -0.9602    0.0000 C   0  0  2  0  0  0  0  0  0  0  0  0
    8.0622   -1.4602    0.0000 C   0  0  0  0  0  0  0  0  0  0  0  0
    6.3301   -1.4602    0.0000 C   0  0  0  0  0  0  0  0  0  0  0  0
    8.9282    0.0398    0.0000 C   0  0  0  0  0  0  0  0  0  0  0  0
    9.7942    0.5398    0.0000 C   0  0  2  0  0  0  0  0  0  0  0  0
    8.0622   -2.4602    0.0000 C   0  0  0  0  0  0  0  0  0  0  0  0
    9.7942    1.5398    0.0000 C   0  0  0  0  0  0  0  0  0  0  0  0
   10.6603    2.0398    0.0000 C   0  0  0  0  0  0  0  0  0  0  0  0
   10.6603    3.0398    0.0000 C   0  0  0  0  0  0  0  0  0  0  0  0
   11.5263    1.5398    0.0000 C   0  0  0  0  0  0  0  0  0  0  0  0
   10.6603   -0.9602    0.0000 C   0  0  0  0  0  0  0  0  0  0  0  0
   11.5263   -1.4602    0.0000 C   0  0  1  0  0  0  0  0  0  0  0  0
   12.3923   -0.9602    0.0000 C   0  0  0  0  0  0  0  0  0  0  0  0
   13.2583   -1.4602    0.0000 C   0  0  0  0  0  0  0  0  0  0  0  0
   12.3923   -2.9602    0.0000 C   0  0  0  0  0  0  0  0  0  0  0  0
   12.3923   -3.9602    0.0000 C   0  0  0  0  0  0  0  0  0  0  0  0
   14.1244   -0.9602    0.0000 C   0  0  0  0  0  0  0  0  0  0  0  0
   13.2583   -4.4602    0.0000 C   0  0  0  0  0  0  0  0  0  0  0  0
   13.2583   -5.4602    0.0000 C   0  0  0  0  0  0  0  0  0  0  0  0
    4.7070    4.3043    0.0000 H   0  0  0  0  0  0  0  0  0  0  0  0
    3.7571    4.3043    0.0000 H   0  0  0  0  0  0  0  0  0  0  0  0
    4.8397    2.4292    0.0000 H   0  0  0  0  0  0  0  0  0  0  0  0
    5.3147    3.2518    0.0000 H   0  0  0  0  0  0  0  0  0  0  0  0
    3.1951    1.7298    0.0000 H   0  0  0  0  0  0  0  0  0  0  0  0
    4.2690   -0.6502    0.0000 H   0  0  0  0  0  0  0  0  0  0  0  0
    3.5200    0.6224    0.0000 H   0  0  0  0  0  0  0  0  0  0  0  0
    3.1215   -0.0679    0.0000 H   0  0  0  0  0  0  0  0  0  0  0  0
    4.5981   -0.0802    0.0000 H   0  0  0  0  0  0  0  0  0  0  0  0
    2.6540   -0.8776    0.0000 H   0  0  0  0  0  0  0  0  0  0  0  0
    2.2554   -1.5679    0.0000 H   0  0  0  0  0  0  0  0  0  0  0  0
    5.2087   -1.5679    0.0000 H   0  0  0  0  0  0  0  0  0  0  0  0
    4.8101   -0.8776    0.0000 H   0  0  0  0  0  0  0  0  0  0  0  0
    2.2554   -2.3526    0.0000 H   0  0  0  0  0  0  0  0  0  0  0  0
    2.6540   -3.0428    0.0000 H   0  0  0  0  0  0  0  0  0  0  0  0
    4.8101   -3.0428    0.0000 H   0  0  0  0  0  0  0  0  0  0  0  0
    5.2087   -2.3526    0.0000 H   0  0  0  0  0  0  0  0  0  0  0  0
    3.3335   -3.4352    0.0000 H   0  0  0  0  0  0  0  0  0  0  0  0
    4.1306   -3.4352    0.0000 H   0  0  0  0  0  0  0  0  0  0  0  0
    5.4641   -0.5802    0.0000 H   0  0  0  0  0  0  0  0  0  0  0  0
    7.7331   -0.2702    0.0000 H   0  0  0  0  0  0  0  0  0  0  0  0
    6.6592   -0.6502    0.0000 H   0  0  0  0  0  0  0  0  0  0  0  0
    8.0622    1.1598    0.0000 H   0  0  0  0  0  0  0  0  0  0  0  0
    8.6728   -1.5679    0.0000 H   0  0  0  0  0  0  0  0  0  0  0  0
    8.2742   -0.8776    0.0000 H   0  0  0  0  0  0  0  0  0  0  0  0
    2.0016    6.5802    0.0000 H   0  0  0  0  0  0  0  0  0  0  0  0
    6.0201   -0.9233    0.0000 H   0  0  0  0  0  0  0  0  0  0  0  0
    5.7932   -1.7702    0.0000 H   0  0  0  0  0  0  0  0  0  0  0  0
    6.6401   -1.9972    0.0000 H   0  0  0  0  0  0  0  0  0  0  0  0
    9.7942   -0.0802    0.0000 H   0  0  0  0  0  0  0  0  0  0  0  0
    7.4422   -2.4602    0.0000 H   0  0  0  0  0  0  0  0  0  0  0  0
    8.0622   -3.0802    0.0000 H   0  0  0  0  0  0  0  0  0  0  0  0
    8.6822   -2.4602    0.0000 H   0  0  0  0  0  0  0  0  0  0  0  0
    9.5822    2.1224    0.0000 H   0  0  0  0  0  0  0  0  0  0  0  0
    9.1836    1.4321    0.0000 H   0  0  0  0  0  0  0  0  0  0  0  0
   11.1972    2.3498    0.0000 H   0  0  0  0  0  0  0  0  0  0  0  0
   11.1972    0.3498    0.0000 H   0  0  0  0  0  0  0  0  0  0  0  0
   11.2803    3.0398    0.0000 H   0  0  0  0  0  0  0  0  0  0  0  0
   10.6603    3.6598    0.0000 H   0  0  0  0  0  0  0  0  0  0  0  0
   10.0403    3.0398    0.0000 H   0  0  0  0  0  0  0  0  0  0  0  0
   11.2163    1.0028    0.0000 H   0  0  0  0  0  0  0  0  0  0  0  0
   12.0632    1.2298    0.0000 H   0  0  0  0  0  0  0  0  0  0  0  0
   11.8363    2.0767    0.0000 H   0  0  0  0  0  0  0  0  0  0  0  0
   12.0632   -1.7702    0.0000 H   0  0  0  0  0  0  0  0  0  0  0  0
   12.7908   -0.4853    0.0000 H   0  0  0  0  0  0  0  0  0  0  0  0
   11.9938   -0.4853    0.0000 H   0  0  0  0  0  0  0  0  0  0  0  0
   10.9893   -2.7702    0.0000 H   0  0  0  0  0  0  0  0  0  0  0  0
   12.8598   -1.9352    0.0000 H   0  0  0  0  0  0  0  0  0  0  0  0
   13.6569   -1.9352    0.0000 H   0  0  0  0  0  0  0  0  0  0  0  0
   11.7817   -3.8526    0.0000 H   0  0  0  0  0  0  0  0  0  0  0  0
   12.1803   -4.5428    0.0000 H   0  0  0  0  0  0  0  0  0  0  0  0
   13.8689   -4.5679    0.0000 H   0  0  0  0  0  0  0  0  0  0  0  0
   13.4704   -3.8776    0.0000 H   0  0  0  0  0  0  0  0  0  0  0  0
   15.5273   -1.1502    0.0000 H   0  0  0  0  0  0  0  0  0  0  0  0
   14.1244   -6.5802    0.0000 H   0  0  0  0  0  0  0  0  0  0  0  0
  1 23  2  0  0  0  0
  2 27  2  0  0  0  0
  3 34  2  0  0  0  0
  4 39  2  0  0  0  0
  5 46  2  0  0  0  0
  6 50  2  0  0  0  0
  7 52  1  0  0  0  0
  7108  1  0  0  0  0
  8 52  2  0  0  0  0
  9 54  1  0  0  0  0
  9109  1  0  0  0  0
 10 54  2  0  0  0  0
 11 20  1  0  0  0  0
 11 27  1  0  0  0  0
 11 59  1  0  0  0  0
 26 12  1  1  0  0  0
 12 34  1  0  0  0  0
 12 74  1  0  0  0  0
 13 16  1  0  0  0  0
 13 33  2  0  0  0  0
 14 17  2  0  0  0  0
 14 33  1  0  0  0  0
 35 15  1  1  0  0  0
 15 39  1  0  0  0  0
 15 77  1  0  0  0  0
 16 17  1  0  0  0  0
 16 80  1  0  0  0  0
 40 18  1  6  0  0  0
 18 46  1  0  0  0  0
 18 91  1  0  0  0  0
 47 19  1  1  0  0  0
 19 50  1  0  0  0  0
 19101  1  0  0  0  0
 20 21  1  0  0  0  0
 20 22  1  0  0  0  0
 20 23  1  0  0  0  0
 21 22  1  0  0  0  0
 21 55  1  0  0  0  0
 21 56  1  0  0  0  0
 22 57  1  0  0  0  0
 22 58  1  0  0  0  0
 23 33  1  0  0  0  0
 24 25  1  0  0  0  0
 24 28  1  0  0  0  0
 24 29  1  0  0  0  0
 24 60  1  0  0  0  0
 25 26  1  0  0  0  0
 25 61  1  0  0  0  0
 25 62  1  0  0  0  0
 26 27  1  0  0  0  0
 26 63  1  0  0  0  0
 28 30  1  0  0  0  0
 28 64  1  0  0  0  0
 28 65  1  0  0  0  0
 29 31  1  0  0  0  0
 29 66  1  0  0  0  0
 29 67  1  0  0  0  0
 30 32  1  0  0  0  0
 30 68  1  0  0  0  0
 30 69  1  0  0  0  0
 31 32  1  0  0  0  0
 31 70  1  0  0  0  0
 31 71  1  0  0  0  0
 32 72  1  0  0  0  0
 32 73  1  0  0  0  0
 34 35  1  0  0  0  0
 35 36  1  0  0  0  0
 35 75  1  0  0  0  0
 36 37  1  0  0  0  0
 36 38  1  6  0  0  0
 36 76  1  0  0  0  0
 37 41  1  0  0  0  0
 37 78  1  0  0  0  0
 37 79  1  0  0  0  0
 38 81  1  0  0  0  0
 38 82  1  0  0  0  0
 38 83  1  0  0  0  0
 39 40  1  0  0  0  0
 40 42  1  0  0  0  0
 40 84  1  0  0  0  0
 41 85  1  0  0  0  0
 41 86  1  0  0  0  0
 41 87  1  0  0  0  0
 42 43  1  0  0  0  0
 42 88  1  0  0  0  0
 42 89  1  0  0  0  0
 43 44  1  0  0  0  0
 43 45  1  0  0  0  0
 43 90  1  0  0  0  0
 44 92  1  0  0  0  0
 44 93  1  0  0  0  0
 44 94  1  0  0  0  0
 45 95  1  0  0  0  0
 45 96  1  0  0  0  0
 45 97  1  0  0  0  0
 46 47  1  0  0  0  0
 47 48  1  0  0  0  0
 47 98  1  0  0  0  0
 48 49  1  0  0  0  0
 48 99  1  0  0  0  0
 48100  1  0  0  0  0
 49 52  1  0  0  0  0
 49102  1  0  0  0  0
 49103  1  0  0  0  0
 50 51  1  0  0  0  0
 51 53  1  0  0  0  0
 51104  1  0  0  0  0
 51105  1  0  0  0  0
 53 54  1  0  0  0  0
 53106  1  0  0  0  0
 53107  1  0  0  0  0
M  END
> <PUBCHEM_COMPOUND_CID>
507051
> <PUBCHEM_COMPOUND_CANONICALIZED>
1
> <PUBCHEM_CACTVS_COMPLEXITY>
1370
> <PUBCHEM_CACTVS_HBOND_ACCEPTOR>
13
> <PUBCHEM_CACTVS_HBOND_DONOR>
8
> <PUBCHEM_CACTVS_ROTATABLE_BOND>
23
> <PUBCHEM_CACTVS_SUBSKEYS>
AAADcfB//AAAAAAAAAAAAAAAGAAAAWAAAAAwAAAAAAAAAAABgAAAHgAYCAAADazBgwQDGAbCAgAqAIOwOAAAAAICAAAUIIGoAAAAQBIAwCAUQAAEFgCAAAG/n4KOAAAAAAAAAAAAAAAAAAAAAAAAAAAAAA==
> <PUBCHEM_IUPAC_OPENEYE_NAME>
(4R)-4-(3-carboxypropanoylamino)-5-[[(1S)-1-[[(1S,2S)-1-[[(1S)-1-(cyclohexylmethyl)-2-oxo-2-[[1-(2H-tetrazole-5-carbonyl)cyclopropyl]amino]ethyl]carbamoyl]-2-methyl-butyl]carbamoyl]-3-methyl-butyl]amino]-5-oxo-pentanoic acid
> <PUBCHEM_IUPAC_CAS_NAME>
(4R)-4-[(3-carboxy-1-oxopropyl)amino]-5-[[(2S)-1-[[(2S,3S)-1-[[(2S)-3-cyclohexyl-1-oxo-1-[[1-[oxo(2H-tetrazol-5-yl)methyl]cyclopropyl]amino]propan-2-yl]amino]-3-methyl-1-oxopentan-2-yl]amino]-4-methyl-1-oxopentan-2-yl]amino]-5-oxopentanoic acid
> <PUBCHEM_IUPAC_NAME_MARKUP>
(4<I>R</I>)-4-(3-carboxypropanoylamino)-5-[[(2<I>S</I>)-1-[[(2<I>S</I>,3<I>S</I>)-1-[[(2<I>S</I>)-3-cyclohexyl-1-oxo-1-[[1-(2<I>H</I>-tetrazole-5-carbonyl)cyclopropyl]amino]propan-2-yl]amino]-3-methyl-1-oxopentan-2-yl]amino]-4-methyl-1-oxopentan-2-yl]amino]-5-oxopentanoic acid
> <PUBCHEM_IUPAC_NAME>
(4R)-4-(3-carboxypropanoylamino)-5-[[(2S)-1-[[(2S,3S)-1-[[(2S)-3-cyclohexyl-1-oxo-1-[[1-(2H-tetrazole-5-carbonyl)cyclopropyl]amino]propan-2-yl]amino]-3-methyl-1-oxopentan-2-yl]amino]-4-methyl-1-oxopentan-2-yl]amino]-5-oxopentanoic acid
> <PUBCHEM_IUPAC_SYSTEMATIC_NAME>
(4R)-5-[[(2S)-1-[[(2S,3S)-1-[[(2S)-3-cyclohexyl-1-oxidanylidene-1-[[1-(2H-1,2,3,4-tetrazol-5-ylcarbonyl)cyclopropyl]amino]propan-2-yl]amino]-3-methyl-1-oxidanylidene-pentan-2-yl]amino]-4-methyl-1-oxidanylidene-pentan-2-yl]amino]-5-oxidanylidene-4-[(4-oxidanyl-4-oxidanylidene-butanoyl)amino]pentanoic acid
> <PUBCHEM_IUPAC_TRADITIONAL_NAME>
(4R)-4-(3-carboxypropanoylamino)-5-[[(1S)-1-[[(1S,2S)-1-[[(1S)-1-(cyclohexylmethyl)-2-keto-2-[[1-(2H-tetrazole-5-carbonyl)cyclopropyl]amino]ethyl]carbamoyl]-2-methyl-butyl]carbamoyl]-3-methyl-butyl]amino]-5-keto-valeric acid
> <PUBCHEM_IUPAC_INCHI>
InChI=1S/C35H55N9O10/c1-5-20(4)28(39-32(52)23(17-19(2)3)37-31(51)22(11-13-26(46)47)36-25(45)12-14-27(48)49)34(54)38-24(18-21-9-7-6-8-10-21)33(53)40-35(15-16-35)29(50)30-41-43-44-42-30/h19-24,28H,5-18H2,1-4H3,(H,36,45)(H,37,51)(H,38,54)(H,39,52)(H,40,53)(H,46,47)(H,48,49)(H,41,42,43,44)/t20-,22+,23-,24-,28-/m0/s1
> <PUBCHEM_IUPAC_INCHIKEY>
ZAMQUPCDKBIRLO-HHUBCNRQSA-N
> <PUBCHEM_XLOGP3_AA>
2.5
> <PUBCHEM_EXACT_MASS>
761.40718899
> <PUBCHEM_MOLECULAR_FORMULA>
C35H55N9O10
> <PUBCHEM_MOLECULAR_WEIGHT>
761.9
> <PUBCHEM_OPENEYE_CAN_SMILES>
CCC(C)C(C(=O)NC(CC1CCCCC1)C(=O)NC2(CC2)C(=O)C3=NNN=N3)NC(=O)C(CC(C)C)NC(=O)C(CCC(=O)O)NC(=O)CCC(=O)O
> <PUBCHEM_OPENEYE_ISO_SMILES>
CC[C@H](C)[C@@H](C(=O)N[C@@H](CC1CCCCC1)C(=O)NC2(CC2)C(=O)C3=NNN=N3)NC(=O)[C@H](CC(C)C)NC(=O)[C@@H](CCC(=O)O)NC(=O)CCC(=O)O
> <PUBCHEM_CACTVS_TPSA>
292
> <PUBCHEM_MONOISOTOPIC_WEIGHT>
761.40718899
> <PUBCHEM_TOTAL_CHARGE>
0
> <PUBCHEM_HEAVY_ATOM_COUNT>
54
> <PUBCHEM_ATOM_DEF_STEREO_COUNT>
5
> <PUBCHEM_ATOM_UDEF_STEREO_COUNT>
0
> <PUBCHEM_BOND_DEF_STEREO_COUNT>
0
> <PUBCHEM_BOND_UDEF_STEREO_COUNT>
0
> <PUBCHEM_ISOTOPIC_ATOM_COUNT>
0
> <PUBCHEM_COMPONENT_COUNT>
1
> <PUBCHEM_CACTVS_TAUTO_COUNT>
-1
> <PUBCHEM_COORDINATE_TYPE>
1
5
255
> <PUBCHEM_BONDANNOTATIONS>
26  12  5
13  16  8
13  33  8
14  17  8
14  33  8
35  15  5
16  17  8
40  18  6
47  19  5
36  38  6
$$$$
