507266
  -OEChem-10302200282D
135141  0     1  0  0  0  0  0999 V2000
    2.5006    3.2690    0.0000 Cl  0  0  0  0  0  0  0  0  0  0  0  0
    2.5006    1.2690    0.0000 Cl  0  0  0  0  0  0  0  0  0  0  0  0
    5.7691    4.8343    0.0000 O   0  0  0  0  0  0  0  0  0  0  0  0
    6.1507   14.6535    0.0000 O   0  0  0  0  0  0  0  0  0  0  0  0
    8.1151    3.7424    0.0000 O   0  0  0  0  0  0  0  0  0  0  0  0
    8.1189    5.9180    0.0000 O   0  0  0  0  0  0  0  0  0  0  0  0
    4.7988   13.2302    0.0000 O   0  0  0  0  0  0  0  0  0  0  0  0
    8.7291   16.9670    0.0000 O   0  0  0  0  0  0  0  0  0  0  0  0
    5.1722   14.4473    0.0000 O   0  0  0  0  0  0  0  0  0  0  0  0
    5.0732    6.8035    0.0000 O   0  0  0  0  0  0  0  0  0  0  0  0
    8.1077   15.0660    0.0000 N   0  0  3  0  0  0  0  0  0  0  0  0
    9.4434   13.5774    0.0000 N   0  0  3  0  0  0  0  0  0  0  0  0
    6.0449    3.0737    0.0000 N   0  0  0  0  0  0  0  0  0  0  0  0
    3.5259   14.9854    0.0000 N   0  0  0  0  0  0  0  0  0  0  0  0
   10.3754   16.4289    0.0000 N   0  0  0  0  0  0  0  0  0  0  0  0
    6.0449    1.4642    0.0000 N   0  0  0  0  0  0  0  0  0  0  0  0
    7.6285    2.2690    0.0000 N   0  0  0  0  0  0  0  0  0  0  0  0
    8.5114   10.7258    0.0000 N   0  0  0  0  0  0  0  0  0  0  0  0
    9.0862   15.2722    0.0000 C   0  0  1  0  0  0  0  0  0  0  0  0
    9.7541   14.5279    0.0000 C   0  0  0  0  0  0  0  0  0  0  0  0
    7.7971   14.1155    0.0000 C   0  0  0  0  0  0  0  0  0  0  0  0
    7.4399   15.8103    0.0000 C   0  0  0  0  0  0  0  0  0  0  0  0
    8.4649   13.3712    0.0000 C   0  0  0  0  0  0  0  0  0  0  0  0
    6.4614   15.6041    0.0000 C   0  0  2  0  0  0  0  0  0  0  0  0
    5.7935   16.3484    0.0000 C   0  0  0  0  0  0  0  0  0  0  0  0
    4.8150   16.1421    0.0000 C   0  0  2  0  0  0  0  0  0  0  0  0
    6.3555    4.0242    0.0000 C   0  0  2  0  0  0  0  0  0  0  0  0
    7.3071    4.3316    0.0000 C   0  0  2  0  0  0  0  0  0  0  0  0
    9.3969   16.2227    0.0000 C   0  0  0  0  0  0  0  0  0  0  0  0
    3.2152   14.0349    0.0000 C   0  0  2  0  0  0  0  0  0  0  0  0
    7.3088    5.3316    0.0000 C   0  0  2  0  0  0  0  0  0  0  0  0
    6.3583    5.6423    0.0000 C   0  0  2  0  0  0  0  0  0  0  0  0
   10.1113   12.8331    0.0000 C   0  0  0  0  0  0  0  0  0  0  0  0
    3.7988   13.2302    0.0000 C   0  0  1  0  0  0  0  0  0  0  0  0
    4.1472   16.8864    0.0000 C   0  0  0  0  0  0  0  0  0  0  0  0
    3.2152   12.4254    0.0000 C   0  0  0  0  0  0  0  0  0  0  0  0
    2.2690   13.7302    0.0000 C   0  0  0  0  0  0  0  0  0  0  0  0
    4.5044   15.1916    0.0000 C   0  0  0  0  0  0  0  0  0  0  0  0
    2.2690   12.7302    0.0000 C   0  0  0  0  0  0  0  0  0  0  0  0
   11.0433   15.6846    0.0000 C   0  0  0  0  0  0  0  0  0  0  0  0
    6.0510    6.5939    0.0000 C   0  0  0  0  0  0  0  0  0  0  0  0
    9.8006   11.8826    0.0000 C   0  0  0  0  0  0  0  0  0  0  0  0
    5.0986    2.7690    0.0000 C   0  0  0  0  0  0  0  0  0  0  0  0
    6.6285    2.2690    0.0000 C   0  0  0  0  0  0  0  0  0  0  0  0
    4.4579   17.8370    0.0000 C   0  0  0  0  0  0  0  0  0  0  0  0
    1.4030   14.2302    0.0000 C   0  0  0  0  0  0  0  0  0  0  0  0
    1.4030   12.2302    0.0000 C   0  0  0  0  0  0  0  0  0  0  0  0
   11.7111   14.9403    0.0000 C   0  0  0  0  0  0  0  0  0  0  0  0
   11.7876   16.3525    0.0000 C   0  0  0  0  0  0  0  0  0  0  0  0
   10.2990   15.0168    0.0000 C   0  0  0  0  0  0  0  0  0  0  0  0
    5.0986    1.7690    0.0000 C   0  0  0  0  0  0  0  0  0  0  0  0
    0.5369   13.7302    0.0000 C   0  0  0  0  0  0  0  0  0  0  0  0
   10.4684   11.1382    0.0000 C   0  0  0  0  0  0  0  0  0  0  0  0
    0.5369   12.7302    0.0000 C   0  0  0  0  0  0  0  0  0  0  0  0
    4.2326    3.2690    0.0000 C   0  0  0  0  0  0  0  0  0  0  0  0
    8.8221   11.6763    0.0000 C   0  0  0  0  0  0  0  0  0  0  0  0
    5.4364   18.0432    0.0000 C   0  0  0  0  0  0  0  0  0  0  0  0
    3.7900   18.5813    0.0000 C   0  0  0  0  0  0  0  0  0  0  0  0
    8.1285    1.4030    0.0000 C   0  0  0  0  0  0  0  0  0  0  0  0
    4.2326    1.2690    0.0000 C   0  0  0  0  0  0  0  0  0  0  0  0
    3.3666    2.7690    0.0000 C   0  0  0  0  0  0  0  0  0  0  0  0
   10.1578   10.1877    0.0000 C   0  0  0  0  0  0  0  0  0  0  0  0
    3.3666    1.7690    0.0000 C   0  0  0  0  0  0  0  0  0  0  0  0
    5.7470   18.9937    0.0000 C   0  0  0  0  0  0  0  0  0  0  0  0
    4.1007   19.5318    0.0000 C   0  0  0  0  0  0  0  0  0  0  0  0
    9.1285    1.4030    0.0000 C   0  0  0  0  0  0  0  0  0  0  0  0
    7.6285    0.5369    0.0000 C   0  0  0  0  0  0  0  0  0  0  0  0
    9.1793    9.9815    0.0000 C   0  0  0  0  0  0  0  0  0  0  0  0
    5.0792   19.7380    0.0000 C   0  0  0  0  0  0  0  0  0  0  0  0
    8.6722   15.7337    0.0000 H   0  0  0  0  0  0  0  0  0  0  0  0
   10.3010   14.2359    0.0000 H   0  0  0  0  0  0  0  0  0  0  0  0
   10.1366   15.0158    0.0000 H   0  0  0  0  0  0  0  0  0  0  0  0
    7.2502   14.4075    0.0000 H   0  0  0  0  0  0  0  0  0  0  0  0
    7.4145   13.6276    0.0000 H   0  0  0  0  0  0  0  0  0  0  0  0
    7.9662   16.1379    0.0000 H   0  0  0  0  0  0  0  0  0  0  0  0
    7.2086   16.3855    0.0000 H   0  0  0  0  0  0  0  0  0  0  0  0
    7.9386   13.0435    0.0000 H   0  0  0  0  0  0  0  0  0  0  0  0
    8.6962   12.7959    0.0000 H   0  0  0  0  0  0  0  0  0  0  0  0
    5.8547   15.4762    0.0000 H   0  0  0  0  0  0  0  0  0  0  0  0
    6.3199   16.6760    0.0000 H   0  0  0  0  0  0  0  0  0  0  0  0
    5.5623   16.9236    0.0000 H   0  0  0  0  0  0  0  0  0  0  0  0
    5.2291   15.6807    0.0000 H   0  0  0  0  0  0  0  0  0  0  0  0
    6.7932    3.5851    0.0000 H   0  0  0  0  0  0  0  0  0  0  0  0
    7.8600    4.6121    0.0000 H   0  0  0  0  0  0  0  0  0  0  0  0
    7.8608    5.0492    0.0000 H   0  0  0  0  0  0  0  0  0  0  0  0
    2.7778   14.4742    0.0000 H   0  0  0  0  0  0  0  0  0  0  0  0
    5.7461    5.7403    0.0000 H   0  0  0  0  0  0  0  0  0  0  0  0
   10.6582   12.5411    0.0000 H   0  0  0  0  0  0  0  0  0  0  0  0
   10.4938   13.3210    0.0000 H   0  0  0  0  0  0  0  0  0  0  0  0
    4.0805   12.6778    0.0000 H   0  0  0  0  0  0  0  0  0  0  0  0
    3.6003   17.1785    0.0000 H   0  0  0  0  0  0  0  0  0  0  0  0
    3.7646   16.3985    0.0000 H   0  0  0  0  0  0  0  0  0  0  0  0
    2.9642   11.8585    0.0000 H   0  0  0  0  0  0  0  0  0  0  0  0
    3.7526   12.1162    0.0000 H   0  0  0  0  0  0  0  0  0  0  0  0
    3.1118   15.4469    0.0000 H   0  0  0  0  0  0  0  0  0  0  0  0
   10.5680   17.0183    0.0000 H   0  0  0  0  0  0  0  0  0  0  0  0
    6.6651    6.6791    0.0000 H   0  0  0  0  0  0  0  0  0  0  0  0
    6.0737    7.2134    0.0000 H   0  0  0  0  0  0  0  0  0  0  0  0
    6.5648   14.1921    0.0000 H   0  0  0  0  0  0  0  0  0  0  0  0
    1.4030   14.8502    0.0000 H   0  0  0  0  0  0  0  0  0  0  0  0
    8.6819    3.9936    0.0000 H   0  0  0  0  0  0  0  0  0  0  0  0
    1.4030   11.6102    0.0000 H   0  0  0  0  0  0  0  0  0  0  0  0
    8.0551    6.5347    0.0000 H   0  0  0  0  0  0  0  0  0  0  0  0
   11.2496   14.5263    0.0000 H   0  0  0  0  0  0  0  0  0  0  0  0
   12.1252   14.4789    0.0000 H   0  0  0  0  0  0  0  0  0  0  0  0
   12.1726   15.3544    0.0000 H   0  0  0  0  0  0  0  0  0  0  0  0
   12.2016   15.8910    0.0000 H   0  0  0  0  0  0  0  0  0  0  0  0
   12.2490   16.7665    0.0000 H   0  0  0  0  0  0  0  0  0  0  0  0
   11.3735   16.8139    0.0000 H   0  0  0  0  0  0  0  0  0  0  0  0
    9.8849   15.4783    0.0000 H   0  0  0  0  0  0  0  0  0  0  0  0
    9.8375   14.6027    0.0000 H   0  0  0  0  0  0  0  0  0  0  0  0
   10.7130   14.5553    0.0000 H   0  0  0  0  0  0  0  0  0  0  0  0
    5.1088   12.6932    0.0000 H   0  0  0  0  0  0  0  0  0  0  0  0
    0.0000   14.0402    0.0000 H   0  0  0  0  0  0  0  0  0  0  0  0
    7.9385    2.8059    0.0000 H   0  0  0  0  0  0  0  0  0  0  0  0
    0.0000   12.4201    0.0000 H   0  0  0  0  0  0  0  0  0  0  0  0
   11.0751   11.2661    0.0000 H   0  0  0  0  0  0  0  0  0  0  0  0
    4.2326    3.8890    0.0000 H   0  0  0  0  0  0  0  0  0  0  0  0
    8.4080   12.1378    0.0000 H   0  0  0  0  0  0  0  0  0  0  0  0
    5.8504   17.5817    0.0000 H   0  0  0  0  0  0  0  0  0  0  0  0
    3.1833   18.4534    0.0000 H   0  0  0  0  0  0  0  0  0  0  0  0
    7.5085    1.4030    0.0000 H   0  0  0  0  0  0  0  0  0  0  0  0
    4.8826    7.3934    0.0000 H   0  0  0  0  0  0  0  0  0  0  0  0
    4.2326    0.6490    0.0000 H   0  0  0  0  0  0  0  0  0  0  0  0
   10.5718    9.7263    0.0000 H   0  0  0  0  0  0  0  0  0  0  0  0
    6.3537   19.1216    0.0000 H   0  0  0  0  0  0  0  0  0  0  0  0
    3.6866   19.9933    0.0000 H   0  0  0  0  0  0  0  0  0  0  0  0
    9.1285    0.7830    0.0000 H   0  0  0  0  0  0  0  0  0  0  0  0
    9.7485    1.4030    0.0000 H   0  0  0  0  0  0  0  0  0  0  0  0
    9.1285    2.0230    0.0000 H   0  0  0  0  0  0  0  0  0  0  0  0
    7.0915    0.8469    0.0000 H   0  0  0  0  0  0  0  0  0  0  0  0
    7.3185    0.0000    0.0000 H   0  0  0  0  0  0  0  0  0  0  0  0
    8.1654    0.2269    0.0000 H   0  0  0  0  0  0  0  0  0  0  0  0
    8.9867    9.3922    0.0000 H   0  0  0  0  0  0  0  0  0  0  0  0
    5.2718   20.3273    0.0000 H   0  0  0  0  0  0  0  0  0  0  0  0
  1 61  1  0  0  0  0
  2 63  1  0  0  0  0
  3 27  1  0  0  0  0
  3 32  1  0  0  0  0
 24  4  1  1  0  0  0
  4 99  1  0  0  0  0
 28  5  1  6  0  0  0
  5101  1  0  0  0  0
 31  6  1  6  0  0  0
  6103  1  0  0  0  0
 34  7  1  6  0  0  0
  7113  1  0  0  0  0
  8 29  2  0  0  0  0
  9 38  2  0  0  0  0
 10 41  1  0  0  0  0
 10123  1  0  0  0  0
 11 19  1  0  0  0  0
 11 21  1  0  0  0  0
 11 22  1  0  0  0  0
 12 20  1  0  0  0  0
 12 23  1  0  0  0  0
 12 33  1  0  0  0  0
 27 13  1  1  0  0  0
 13 43  1  0  0  0  0
 13 44  1  0  0  0  0
 30 14  1  6  0  0  0
 14 38  1  0  0  0  0
 14 95  1  0  0  0  0
 15 29  1  0  0  0  0
 15 40  1  0  0  0  0
 15 96  1  0  0  0  0
 16 44  2  0  0  0  0
 16 51  1  0  0  0  0
 17 44  1  0  0  0  0
 17 59  1  0  0  0  0
 17115  1  0  0  0  0
 18 56  1  0  0  0  0
 18 68  2  0  0  0  0
 19 20  1  0  0  0  0
 19 29  1  6  0  0  0
 19 70  1  0  0  0  0
 20 71  1  0  0  0  0
 20 72  1  0  0  0  0
 21 23  1  0  0  0  0
 21 73  1  0  0  0  0
 21 74  1  0  0  0  0
 22 24  1  0  0  0  0
 22 75  1  0  0  0  0
 22 76  1  0  0  0  0
 23 77  1  0  0  0  0
 23 78  1  0  0  0  0
 24 25  1  0  0  0  0
 24 79  1  0  0  0  0
 26 25  1  1  0  0  0
 25 80  1  0  0  0  0
 25 81  1  0  0  0  0
 26 35  1  0  0  0  0
 26 38  1  0  0  0  0
 26 82  1  0  0  0  0
 27 28  1  0  0  0  0
 27 83  1  0  0  0  0
 28 31  1  0  0  0  0
 28 84  1  0  0  0  0
 30 34  1  0  0  0  0
 30 37  1  0  0  0  0
 30 86  1  0  0  0  0
 31 32  1  0  0  0  0
 31 85  1  0  0  0  0
 32 41  1  1  0  0  0
 32 87  1  0  0  0  0
 33 42  1  0  0  0  0
 33 88  1  0  0  0  0
 33 89  1  0  0  0  0
 34 36  1  0  0  0  0
 34 90  1  0  0  0  0
 35 45  1  0  0  0  0
 35 91  1  0  0  0  0
 35 92  1  0  0  0  0
 36 39  1  0  0  0  0
 36 93  1  0  0  0  0
 36 94  1  0  0  0  0
 37 39  1  0  0  0  0
 37 46  2  0  0  0  0
 39 47  2  0  0  0  0
 40 48  1  0  0  0  0
 40 49  1  0  0  0  0
 40 50  1  0  0  0  0
 41 97  1  0  0  0  0
 41 98  1  0  0  0  0
 42 53  1  0  0  0  0
 42 56  2  0  0  0  0
 43 51  1  0  0  0  0
 43 55  2  0  0  0  0
 45 57  2  0  0  0  0
 45 58  1  0  0  0  0
 46 52  1  0  0  0  0
 46100  1  0  0  0  0
 47 54  1  0  0  0  0
 47102  1  0  0  0  0
 48104  1  0  0  0  0
 48105  1  0  0  0  0
 48106  1  0  0  0  0
 49107  1  0  0  0  0
 49108  1  0  0  0  0
 49109  1  0  0  0  0
 50110  1  0  0  0  0
 50111  1  0  0  0  0
 50112  1  0  0  0  0
 51 60  2  0  0  0  0
 52 54  2  0  0  0  0
 52114  1  0  0  0  0
 53 62  2  0  0  0  0
 53117  1  0  0  0  0
 54116  1  0  0  0  0
 55 61  1  0  0  0  0
 55118  1  0  0  0  0
 56119  1  0  0  0  0
 57 64  1  0  0  0  0
 57120  1  0  0  0  0
 58 65  2  0  0  0  0
 58121  1  0  0  0  0
 59 66  1  0  0  0  0
 59 67  1  0  0  0  0
 59122  1  0  0  0  0
 60 63  1  0  0  0  0
 60124  1  0  0  0  0
 61 63  2  0  0  0  0
 62 68  1  0  0  0  0
 62125  1  0  0  0  0
 64 69  2  0  0  0  0
 64126  1  0  0  0  0
 65 69  1  0  0  0  0
 65127  1  0  0  0  0
 66128  1  0  0  0  0
 66129  1  0  0  0  0
 66130  1  0  0  0  0
 67131  1  0  0  0  0
 67132  1  0  0  0  0
 67133  1  0  0  0  0
 68134  1  0  0  0  0
 69135  1  0  0  0  0
M  END
> <PUBCHEM_COMPOUND_CID>
507266
> <PUBCHEM_COMPOUND_CANONICALIZED>
1
> <PUBCHEM_CACTVS_COMPLEXITY>
1400
> <PUBCHEM_CACTVS_HBOND_ACCEPTOR>
13
> <PUBCHEM_CACTVS_HBOND_DONOR>
8
> <PUBCHEM_CACTVS_ROTATABLE_BOND>
16
> <PUBCHEM_CACTVS_SUBSKEYS>
AAADcfB//AAGAAAAAAAAAAAAAAAAAeJEAAA8eMECAAAAAHgB/AAAHgIQCAAADb7hniY/0LfMFgCoAzV3dACCgC0xF6AJ2uG4dpiLePrB27GeYAhv1gPbyCf6+fKOgABAAAIQACQAAIAABCAASKAACQgAAA==
> <PUBCHEM_IUPAC_OPENEYE_NAME>
(2S)-1-[(2S,4S)-4-benzyl-2-hydroxy-5-[[(1S,2R)-2-hydroxyindan-1-yl]amino]-5-oxo-pentyl]-N-tert-butyl-4-(3-pyridylmethyl)piperazine-2-carboxamide;(2S,3S,4R,5S)-2-[5,6-dichloro-2-(isopropylamino)benzimidazol-1-yl]-5-(hydroxymethyl)tetrahydrofuran-3,4-diol
> <PUBCHEM_IUPAC_CAS_NAME>
(2S)-N-tert-butyl-1-[(2S,4S)-2-hydroxy-5-[[(1S,2R)-2-hydroxy-2,3-dihydro-1H-inden-1-yl]amino]-5-oxo-4-(phenylmethyl)pentyl]-4-(3-pyridinylmethyl)-2-piperazinecarboxamide;(2S,3S,4R,5S)-2-[5,6-dichloro-2-(propan-2-ylamino)-1-benzimidazolyl]-5-(hydroxymethyl)oxolane-3,4-diol
> <PUBCHEM_IUPAC_NAME_MARKUP>
(2<I>S</I>)-1-[(2<I>S</I>,4<I>S</I>)-4-benzyl-2-hydroxy-5-[[(1<I>S</I>,2<I>R</I>)-2-hydroxy-2,3-dihydro-1<I>H</I>-inden-1-yl]amino]-5-oxopentyl]-<I>N</I>-<I>tert</I>-butyl-4-(pyridin-3-ylmethyl)piperazine-2-carboxamide;(2<I>S</I>,3<I>S</I>,4<I>R</I>,5<I>S</I>)-2-[5,6-dichloro-2-(propan-2-ylamino)benzimidazol-1-yl]-5-(hydroxymethyl)oxolane-3,4-diol
> <PUBCHEM_IUPAC_NAME>
(2S)-1-[(2S,4S)-4-benzyl-2-hydroxy-5-[[(1S,2R)-2-hydroxy-2,3-dihydro-1H-inden-1-yl]amino]-5-oxopentyl]-N-tert-butyl-4-(pyridin-3-ylmethyl)piperazine-2-carboxamide;(2S,3S,4R,5S)-2-[5,6-dichloro-2-(propan-2-ylamino)benzimidazol-1-yl]-5-(hydroxymethyl)oxolane-3,4-diol
> <PUBCHEM_IUPAC_SYSTEMATIC_NAME>
(2S,3S,4R,5S)-2-[5,6-bis(chloranyl)-2-(propan-2-ylamino)benzimidazol-1-yl]-5-(hydroxymethyl)oxolane-3,4-diol;(2S)-N-tert-butyl-1-[(2S,4S)-2-oxidanyl-5-[[(1S,2R)-2-oxidanyl-2,3-dihydro-1H-inden-1-yl]amino]-5-oxidanylidene-4-(phenylmethyl)pentyl]-4-(pyridin-3-ylmethyl)piperazine-2-carboxamide
> <PUBCHEM_IUPAC_TRADITIONAL_NAME>
(2S)-1-[(2S,4S)-4-benzyl-2-hydroxy-5-[[(1S,2R)-2-hydroxyindan-1-yl]amino]-5-keto-pentyl]-N-tert-butyl-4-(3-pyridylmethyl)piperazine-2-carboxamide;(2S,3S,4R,5S)-2-[5,6-dichloro-2-(isopropylamino)benzimidazol-1-yl]-5-methylol-tetrahydrofuran-3,4-diol
> <PUBCHEM_IUPAC_INCHI>
InChI=1S/C36H47N5O4.C15H19Cl2N3O4/c1-36(2,3)39-35(45)31-24-40(22-26-12-9-15-37-21-26)16-17-41(31)23-29(42)19-28(18-25-10-5-4-6-11-25)34(44)38-33-30-14-8-7-13-27(30)20-32(33)43;1-6(2)18-15-19-9-3-7(16)8(17)4-10(9)20(15)14-13(23)12(22)11(5-21)24-14/h4-15,21,28-29,31-33,42-43H,16-20,22-24H2,1-3H3,(H,38,44)(H,39,45);3-4,6,11-14,21-23H,5H2,1-2H3,(H,18,19)/t28-,29-,31-,32+,33-;11-,12-,13-,14-/m00/s1
> <PUBCHEM_IUPAC_INCHIKEY>
VKGGLKIVVSGVDO-KBWRSQSQSA-N
> <PUBCHEM_EXACT_MASS>
988.4380665
> <PUBCHEM_MOLECULAR_FORMULA>
C51H66Cl2N8O8
> <PUBCHEM_MOLECULAR_WEIGHT>
990.0
> <PUBCHEM_OPENEYE_CAN_SMILES>
CC(C)NC1=NC2=CC(=C(C=C2N1C3C(C(C(O3)CO)O)O)Cl)Cl.CC(C)(C)NC(=O)C1CN(CCN1CC(CC(CC2=CC=CC=C2)C(=O)NC3C(CC4=CC=CC=C34)O)O)CC5=CN=CC=C5
> <PUBCHEM_OPENEYE_ISO_SMILES>
CC(C)NC1=NC2=CC(=C(C=C2N1[C@@H]3[C@H]([C@H]([C@@H](O3)CO)O)O)Cl)Cl.CC(C)(C)NC(=O)[C@@H]1CN(CCN1C[C@H](C[C@H](CC2=CC=CC=C2)C(=O)N[C@@H]3[C@@H](CC4=CC=CC=C34)O)O)CC5=CN=CC=C5
> <PUBCHEM_CACTVS_TPSA>
218
> <PUBCHEM_MONOISOTOPIC_WEIGHT>
988.4380665
> <PUBCHEM_TOTAL_CHARGE>
0
> <PUBCHEM_HEAVY_ATOM_COUNT>
69
> <PUBCHEM_ATOM_DEF_STEREO_COUNT>
9
> <PUBCHEM_ATOM_UDEF_STEREO_COUNT>
0
> <PUBCHEM_BOND_DEF_STEREO_COUNT>
0
> <PUBCHEM_BOND_UDEF_STEREO_COUNT>
0
> <PUBCHEM_ISOTOPIC_ATOM_COUNT>
0
> <PUBCHEM_COMPONENT_COUNT>
2
> <PUBCHEM_CACTVS_TAUTO_COUNT>
-1
> <PUBCHEM_COORDINATE_TYPE>
1
5
255
> <PUBCHEM_BONDANNOTATIONS>
27  13  5
13  43  8
13  44  8
30  14  6
16  44  8
16  51  8
18  56  8
18  68  8
19  29  6
26  25  5
32  41  5
37  39  8
37  46  8
39  47  8
24  4  5
42  53  8
42  56  8
43  51  8
43  55  8
45  57  8
45  58  8
46  52  8
47  54  8
28  5  6
51  60  8
52  54  8
53  62  8
55  61  8
57  64  8
58  65  8
31  6  6
60  63  8
61  63  8
62  68  8
64  69  8
65  69  8
34  7  6
$$$$
