507262
  -OEChem-10302200282D
 75 78  0     1  0  0  0  0  0999 V2000
    0.0000    3.2690    0.0000 Cl  0  0  0  0  0  0  0  0  0  0  0  0
    0.0000    1.2690    0.0000 Cl  0  0  0  0  0  0  0  0  0  0  0  0
    3.2686    4.8343    0.0000 O   0  0  0  0  0  0  0  0  0  0  0  0
    4.7480   11.7485    0.0000 O   0  0  0  0  0  0  0  0  0  0  0  0
    5.6146    3.7424    0.0000 O   0  0  0  0  0  0  0  0  0  0  0  0
    5.6183    5.9180    0.0000 O   0  0  0  0  0  0  0  0  0  0  0  0
    2.5726    6.8035    0.0000 O   0  0  0  0  0  0  0  0  0  0  0  0
    6.0213   10.0929    0.0000 O   0  0  0  0  0  0  0  0  0  0  0  0
    5.6710   13.3363    0.0000 O   0  0  0  0  0  0  0  0  0  0  0  0
    3.9390   16.3363    0.0000 O   0  0  0  0  0  0  0  0  0  0  0  0
    3.5443    3.0737    0.0000 N   0  0  0  0  0  0  0  0  0  0  0  0
    3.9390   13.3363    0.0000 N   0  0  0  0  0  0  0  0  0  0  0  0
    3.5443    1.4642    0.0000 N   0  0  0  0  0  0  0  0  0  0  0  0
    5.1279    2.2690    0.0000 N   0  0  0  0  0  0  0  0  0  0  0  0
    2.8512    9.9884    0.0000 N   0  0  0  0  0  0  0  0  0  0  0  0
    4.8050   14.8363    0.0000 N   0  0  0  0  0  0  0  0  0  0  0  0
    1.8567   10.0929    0.0000 N   0  3  0  0  0  0  0  0  0  0  0  0
    0.8622   10.1975    0.0000 N   0  5  0  0  0  0  0  0  0  0  0  0
    3.8550    4.0242    0.0000 C   0  0  2  0  0  0  0  0  0  0  0  0
    4.8066    4.3316    0.0000 C   0  0  2  0  0  0  0  0  0  0  0  0
    4.8083    5.3316    0.0000 C   0  0  2  0  0  0  0  0  0  0  0  0
    3.8578    5.6423    0.0000 C   0  0  2  0  0  0  0  0  0  0  0  0
    3.4390   10.7974    0.0000 C   0  0  1  0  0  0  0  0  0  0  0  0
    3.1300   11.7485    0.0000 C   0  0  0  0  0  0  0  0  0  0  0  0
    4.4390   10.7974    0.0000 C   0  0  1  0  0  0  0  0  0  0  0  0
    3.9390   12.3363    0.0000 C   0  0  1  0  0  0  0  0  0  0  0  0
    3.5504    6.5939    0.0000 C   0  0  0  0  0  0  0  0  0  0  0  0
    2.5981    2.7690    0.0000 C   0  0  0  0  0  0  0  0  0  0  0  0
    4.1279    2.2690    0.0000 C   0  0  0  0  0  0  0  0  0  0  0  0
    2.5981    1.7690    0.0000 C   0  0  0  0  0  0  0  0  0  0  0  0
    5.0268    9.9884    0.0000 C   0  0  0  0  0  0  0  0  0  0  0  0
    1.7320    3.2690    0.0000 C   0  0  0  0  0  0  0  0  0  0  0  0
    5.6279    1.4030    0.0000 C   0  0  0  0  0  0  0  0  0  0  0  0
    1.7320    1.2690    0.0000 C   0  0  0  0  0  0  0  0  0  0  0  0
    3.0730   13.8363    0.0000 C   0  0  0  0  0  0  0  0  0  0  0  0
    4.8050   13.8363    0.0000 C   0  0  0  0  0  0  0  0  0  0  0  0
    0.8660    2.7690    0.0000 C   0  0  0  0  0  0  0  0  0  0  0  0
    0.8660    1.7690    0.0000 C   0  0  0  0  0  0  0  0  0  0  0  0
    3.0730   14.8363    0.0000 C   0  0  0  0  0  0  0  0  0  0  0  0
    6.6279    1.4030    0.0000 C   0  0  0  0  0  0  0  0  0  0  0  0
    5.1279    0.5369    0.0000 C   0  0  0  0  0  0  0  0  0  0  0  0
    3.9390   15.3363    0.0000 C   0  0  0  0  0  0  0  0  0  0  0  0
    2.2070   15.3363    0.0000 C   0  0  0  0  0  0  0  0  0  0  0  0
    4.2926    3.5851    0.0000 H   0  0  0  0  0  0  0  0  0  0  0  0
    5.3595    4.6121    0.0000 H   0  0  0  0  0  0  0  0  0  0  0  0
    5.3602    5.0492    0.0000 H   0  0  0  0  0  0  0  0  0  0  0  0
    3.2456    5.7403    0.0000 H   0  0  0  0  0  0  0  0  0  0  0  0
    2.8266   10.8944    0.0000 H   0  0  0  0  0  0  0  0  0  0  0  0
    2.8200   12.2854    0.0000 H   0  0  0  0  0  0  0  0  0  0  0  0
    2.5636   11.4963    0.0000 H   0  0  0  0  0  0  0  0  0  0  0  0
    5.0514   10.8944    0.0000 H   0  0  0  0  0  0  0  0  0  0  0  0
    3.3866   12.6177    0.0000 H   0  0  0  0  0  0  0  0  0  0  0  0
    4.1645    6.6791    0.0000 H   0  0  0  0  0  0  0  0  0  0  0  0
    3.5731    7.2134    0.0000 H   0  0  0  0  0  0  0  0  0  0  0  0
    6.1814    3.9936    0.0000 H   0  0  0  0  0  0  0  0  0  0  0  0
    5.5546    6.5347    0.0000 H   0  0  0  0  0  0  0  0  0  0  0  0
    4.4695    9.7166    0.0000 H   0  0  0  0  0  0  0  0  0  0  0  0
    5.1977    9.3924    0.0000 H   0  0  0  0  0  0  0  0  0  0  0  0
    5.4379    2.8059    0.0000 H   0  0  0  0  0  0  0  0  0  0  0  0
    1.7320    3.8890    0.0000 H   0  0  0  0  0  0  0  0  0  0  0  0
    5.0079    1.4030    0.0000 H   0  0  0  0  0  0  0  0  0  0  0  0
    2.3820    7.3934    0.0000 H   0  0  0  0  0  0  0  0  0  0  0  0
    1.7320    0.6490    0.0000 H   0  0  0  0  0  0  0  0  0  0  0  0
    2.5360   13.5263    0.0000 H   0  0  0  0  0  0  0  0  0  0  0  0
    6.3857    9.5913    0.0000 H   0  0  0  0  0  0  0  0  0  0  0  0
    6.6279    0.7830    0.0000 H   0  0  0  0  0  0  0  0  0  0  0  0
    7.2479    1.4030    0.0000 H   0  0  0  0  0  0  0  0  0  0  0  0
    6.6279    2.0230    0.0000 H   0  0  0  0  0  0  0  0  0  0  0  0
    4.5910    0.8469    0.0000 H   0  0  0  0  0  0  0  0  0  0  0  0
    4.8179    0.0000    0.0000 H   0  0  0  0  0  0  0  0  0  0  0  0
    5.6648    0.2269    0.0000 H   0  0  0  0  0  0  0  0  0  0  0  0
    5.3420   15.1463    0.0000 H   0  0  0  0  0  0  0  0  0  0  0  0
    2.5170   15.8732    0.0000 H   0  0  0  0  0  0  0  0  0  0  0  0
    1.6700   15.6463    0.0000 H   0  0  0  0  0  0  0  0  0  0  0  0
    1.8970   14.7993    0.0000 H   0  0  0  0  0  0  0  0  0  0  0  0
  1 37  1  0  0  0  0
  2 38  1  0  0  0  0
  3 19  1  0  0  0  0
  3 22  1  0  0  0  0
  4 25  1  0  0  0  0
  4 26  1  0  0  0  0
 20  5  1  6  0  0  0
  5 55  1  0  0  0  0
 21  6  1  6  0  0  0
  6 56  1  0  0  0  0
  7 27  1  0  0  0  0
  7 62  1  0  0  0  0
  8 31  1  0  0  0  0
  8 65  1  0  0  0  0
  9 36  2  0  0  0  0
 10 42  2  0  0  0  0
 19 11  1  1  0  0  0
 11 28  1  0  0  0  0
 11 29  1  0  0  0  0
 26 12  1  6  0  0  0
 12 35  1  0  0  0  0
 12 36  1  0  0  0  0
 13 29  2  0  0  0  0
 13 30  1  0  0  0  0
 14 29  1  0  0  0  0
 14 33  1  0  0  0  0
 14 59  1  0  0  0  0
 15 17  2  0  0  0  0
 23 15  1  1  0  0  0
 16 36  1  0  0  0  0
 16 42  1  0  0  0  0
 16 72  1  0  0  0  0
 17 18  2  0  0  0  0
 19 20  1  0  0  0  0
 19 44  1  0  0  0  0
 20 21  1  0  0  0  0
 20 45  1  0  0  0  0
 21 22  1  0  0  0  0
 21 46  1  0  0  0  0
 22 27  1  1  0  0  0
 22 47  1  0  0  0  0
 23 24  1  0  0  0  0
 23 25  1  0  0  0  0
 23 48  1  0  0  0  0
 24 26  1  0  0  0  0
 24 49  1  0  0  0  0
 24 50  1  0  0  0  0
 25 31  1  6  0  0  0
 25 51  1  0  0  0  0
 26 52  1  0  0  0  0
 27 53  1  0  0  0  0
 27 54  1  0  0  0  0
 28 30  1  0  0  0  0
 28 32  2  0  0  0  0
 30 34  2  0  0  0  0
 31 57  1  0  0  0  0
 31 58  1  0  0  0  0
 32 37  1  0  0  0  0
 32 60  1  0  0  0  0
 33 40  1  0  0  0  0
 33 41  1  0  0  0  0
 33 61  1  0  0  0  0
 34 38  1  0  0  0  0
 34 63  1  0  0  0  0
 35 39  2  0  0  0  0
 35 64  1  0  0  0  0
 37 38  2  0  0  0  0
 39 42  1  0  0  0  0
 39 43  1  0  0  0  0
 40 66  1  0  0  0  0
 40 67  1  0  0  0  0
 40 68  1  0  0  0  0
 41 69  1  0  0  0  0
 41 70  1  0  0  0  0
 41 71  1  0  0  0  0
 43 73  1  0  0  0  0
 43 74  1  0  0  0  0
 43 75  1  0  0  0  0
M  CHG  2  17   1  18  -1
M  END
> <PUBCHEM_COMPOUND_CID>
507262
> <PUBCHEM_COMPOUND_CANONICALIZED>
1
> <PUBCHEM_CACTVS_COMPLEXITY>
931
> <PUBCHEM_CACTVS_HBOND_ACCEPTOR>
12
> <PUBCHEM_CACTVS_HBOND_DONOR>
6
> <PUBCHEM_CACTVS_ROTATABLE_BOND>
7
> <PUBCHEM_CACTVS_SUBSKEYS>
AAADcfB7/AAGAAAAAAAAAAAAAAAAAWJEgAAwQAAAAAAAAFgB8AAAHgIYCAAADD7hliYz0LfMFgCqAyV2dACCgC0hF6AB2uE4dtiLeKLB25GfYAhvlyLbyOfwMAIAAABAAAIAACQAAIAABAAASAAAAAAAAA==
> <PUBCHEM_IUPAC_OPENEYE_NAME>
1-[(2R,4S,5S)-4-azido-5-(hydroxymethyl)tetrahydrofuran-2-yl]-5-methyl-pyrimidine-2,4-dione;(2S,3S,4R,5S)-2-[5,6-dichloro-2-(isopropylamino)benzimidazol-1-yl]-5-(hydroxymethyl)tetrahydrofuran-3,4-diol
> <PUBCHEM_IUPAC_CAS_NAME>
1-[(2R,4S,5S)-4-azido-5-(hydroxymethyl)-2-oxolanyl]-5-methylpyrimidine-2,4-dione;(2S,3S,4R,5S)-2-[5,6-dichloro-2-(propan-2-ylamino)-1-benzimidazolyl]-5-(hydroxymethyl)oxolane-3,4-diol
> <PUBCHEM_IUPAC_NAME_MARKUP>
1-[(2<I>R</I>,4<I>S</I>,5<I>S</I>)-4-azido-5-(hydroxymethyl)oxolan-2-yl]-5-methylpyrimidine-2,4-dione;(2<I>S</I>,3<I>S</I>,4<I>R</I>,5<I>S</I>)-2-[5,6-dichloro-2-(propan-2-ylamino)benzimidazol-1-yl]-5-(hydroxymethyl)oxolane-3,4-diol
> <PUBCHEM_IUPAC_NAME>
1-[(2R,4S,5S)-4-azido-5-(hydroxymethyl)oxolan-2-yl]-5-methylpyrimidine-2,4-dione;(2S,3S,4R,5S)-2-[5,6-dichloro-2-(propan-2-ylamino)benzimidazol-1-yl]-5-(hydroxymethyl)oxolane-3,4-diol
> <PUBCHEM_IUPAC_SYSTEMATIC_NAME>
1-[(2R,4S,5S)-4-azido-5-(hydroxymethyl)oxolan-2-yl]-5-methyl-pyrimidine-2,4-dione;(2S,3S,4R,5S)-2-[5,6-bis(chloranyl)-2-(propan-2-ylamino)benzimidazol-1-yl]-5-(hydroxymethyl)oxolane-3,4-diol
> <PUBCHEM_IUPAC_TRADITIONAL_NAME>
1-[(2R,4S,5S)-4-azido-5-methylol-tetrahydrofuran-2-yl]-5-methyl-pyrimidine-2,4-quinone;(2S,3S,4R,5S)-2-[5,6-dichloro-2-(isopropylamino)benzimidazol-1-yl]-5-methylol-tetrahydrofuran-3,4-diol
> <PUBCHEM_IUPAC_INCHI>
InChI=1S/C15H19Cl2N3O4.C10H13N5O4/c1-6(2)18-15-19-9-3-7(16)8(17)4-10(9)20(15)14-13(23)12(22)11(5-21)24-14;1-5-3-15(10(18)12-9(5)17)8-2-6(13-14-11)7(4-16)19-8/h3-4,6,11-14,21-23H,5H2,1-2H3,(H,18,19);3,6-8,16H,2,4H2,1H3,(H,12,17,18)/t11-,12-,13-,14-;6-,7+,8+/m00/s1
> <PUBCHEM_IUPAC_INCHIKEY>
QSWNAANHOVZWCB-SFICDZINSA-N
> <PUBCHEM_EXACT_MASS>
642.1720154
> <PUBCHEM_MOLECULAR_FORMULA>
C25H32Cl2N8O8
> <PUBCHEM_MOLECULAR_WEIGHT>
643.5
> <PUBCHEM_OPENEYE_CAN_SMILES>
CC1=CN(C(=O)NC1=O)C2CC(C(O2)CO)N=[N+]=[N-].CC(C)NC1=NC2=CC(=C(C=C2N1C3C(C(C(O3)CO)O)O)Cl)Cl
> <PUBCHEM_OPENEYE_ISO_SMILES>
CC1=CN(C(=O)NC1=O)[C@H]2C[C@@H]([C@H](O2)CO)N=[N+]=[N-].CC(C)NC1=NC2=CC(=C(C=C2N1[C@@H]3[C@H]([C@H]([C@@H](O3)CO)O)O)Cl)Cl
> <PUBCHEM_CACTVS_TPSA>
193
> <PUBCHEM_MONOISOTOPIC_WEIGHT>
642.1720154
> <PUBCHEM_TOTAL_CHARGE>
0
> <PUBCHEM_HEAVY_ATOM_COUNT>
43
> <PUBCHEM_ATOM_DEF_STEREO_COUNT>
7
> <PUBCHEM_ATOM_UDEF_STEREO_COUNT>
0
> <PUBCHEM_BOND_DEF_STEREO_COUNT>
0
> <PUBCHEM_BOND_UDEF_STEREO_COUNT>
0
> <PUBCHEM_ISOTOPIC_ATOM_COUNT>
0
> <PUBCHEM_COMPONENT_COUNT>
2
> <PUBCHEM_CACTVS_TAUTO_COUNT>
-1
> <PUBCHEM_COORDINATE_TYPE>
1
5
255
> <PUBCHEM_BONDANNOTATIONS>
19  11  5
11  28  8
11  29  8
26  12  6
12  35  8
12  36  8
13  29  8
13  30  8
23  15  5
16  36  8
16  42  8
22  27  5
25  31  6
28  30  8
28  32  8
30  34  8
32  37  8
34  38  8
35  39  8
37  38  8
39  42  8
20  5  6
21  6  6
$$$$
