507268
  -OEChem-10302200282D
 82 87  0     1  0  0  0  0  0999 V2000
    0.0000    3.2690    0.0000 Cl  0  0  0  0  0  0  0  0  0  0  0  0
    0.0000    1.2690    0.0000 Cl  0  0  0  0  0  0  0  0  0  0  0  0
    3.2686    4.8343    0.0000 O   0  0  0  0  0  0  0  0  0  0  0  0
    5.6146    3.7424    0.0000 O   0  0  0  0  0  0  0  0  0  0  0  0
    5.6183    5.9180    0.0000 O   0  0  0  0  0  0  0  0  0  0  0  0
    2.5726    6.8035    0.0000 O   0  0  0  0  0  0  0  0  0  0  0  0
    6.3905   17.7998    0.0000 O   0  0  0  0  0  0  0  0  0  0  0  0
    2.6070   11.1561    0.0000 N   0  0  0  0  0  0  0  0  0  0  0  0
    3.5443    3.0737    0.0000 N   0  0  0  0  0  0  0  0  0  0  0  0
    4.4192   13.9608    0.0000 N   0  0  0  0  0  0  0  0  0  0  0  0
    3.5443    1.4642    0.0000 N   0  0  0  0  0  0  0  0  0  0  0  0
    5.1279    2.2690    0.0000 N   0  0  0  0  0  0  0  0  0  0  0  0
    4.4192   12.3514    0.0000 N   0  0  0  0  0  0  0  0  0  0  0  0
    1.7410   12.6561    0.0000 N   0  0  0  0  0  0  0  0  0  0  0  0
    2.6070   14.1561    0.0000 N   0  0  0  0  0  0  0  0  0  0  0  0
    0.8750   14.1561    0.0000 N   0  0  0  0  0  0  0  0  0  0  0  0
    1.7410   10.6561    0.0000 C   0  0  0  0  0  0  0  0  0  0  0  0
    0.7410   10.6561    0.0000 C   0  0  0  0  0  0  0  0  0  0  0  0
    1.2410    9.7901    0.0000 C   0  0  0  0  0  0  0  0  0  0  0  0
    3.8550    4.0242    0.0000 C   0  0  2  0  0  0  0  0  0  0  0  0
    4.8066    4.3316    0.0000 C   0  0  2  0  0  0  0  0  0  0  0  0
    4.8083    5.3316    0.0000 C   0  0  2  0  0  0  0  0  0  0  0  0
    3.8578    5.6423    0.0000 C   0  0  2  0  0  0  0  0  0  0  0  0
    4.7299   14.9114    0.0000 C   0  0  2  0  0  0  0  0  0  0  0  0
    5.6815   15.2187    0.0000 C   0  0  0  0  0  0  0  0  0  0  0  0
    5.6832   16.2187    0.0000 C   0  0  1  0  0  0  0  0  0  0  0  0
    3.5504    6.5939    0.0000 C   0  0  0  0  0  0  0  0  0  0  0  0
    2.6070   12.1561    0.0000 C   0  0  0  0  0  0  0  0  0  0  0  0
    2.5981    2.7690    0.0000 C   0  0  0  0  0  0  0  0  0  0  0  0
    4.1279    2.2690    0.0000 C   0  0  0  0  0  0  0  0  0  0  0  0
    3.4730   12.6561    0.0000 C   0  0  0  0  0  0  0  0  0  0  0  0
    4.1435   15.7214    0.0000 C   0  0  0  0  0  0  0  0  0  0  0  0
    3.4730   13.6561    0.0000 C   0  0  0  0  0  0  0  0  0  0  0  0
    4.7327   16.5294    0.0000 C   0  0  0  0  0  0  0  0  0  0  0  0
    2.5981    1.7690    0.0000 C   0  0  0  0  0  0  0  0  0  0  0  0
    6.4933   16.8051    0.0000 C   0  0  0  0  0  0  0  0  0  0  0  0
    5.0029   13.1561    0.0000 C   0  0  0  0  0  0  0  0  0  0  0  0
    1.7320    3.2690    0.0000 C   0  0  0  0  0  0  0  0  0  0  0  0
    5.6279    1.4030    0.0000 C   0  0  0  0  0  0  0  0  0  0  0  0
    1.7320    1.2690    0.0000 C   0  0  0  0  0  0  0  0  0  0  0  0
    1.7410   13.6561    0.0000 C   0  0  0  0  0  0  0  0  0  0  0  0
    0.8660    2.7690    0.0000 C   0  0  0  0  0  0  0  0  0  0  0  0
    0.8660    1.7690    0.0000 C   0  0  0  0  0  0  0  0  0  0  0  0
    6.6279    1.4030    0.0000 C   0  0  0  0  0  0  0  0  0  0  0  0
    5.1279    0.5369    0.0000 C   0  0  0  0  0  0  0  0  0  0  0  0
    2.1794   10.2177    0.0000 H   0  0  0  0  0  0  0  0  0  0  0  0
    0.6333   11.2667    0.0000 H   0  0  0  0  0  0  0  0  0  0  0  0
    0.1584   10.4441    0.0000 H   0  0  0  0  0  0  0  0  0  0  0  0
    0.7660    9.3916    0.0000 H   0  0  0  0  0  0  0  0  0  0  0  0
    1.7159    9.3916    0.0000 H   0  0  0  0  0  0  0  0  0  0  0  0
    4.2926    3.5851    0.0000 H   0  0  0  0  0  0  0  0  0  0  0  0
    5.3595    4.6121    0.0000 H   0  0  0  0  0  0  0  0  0  0  0  0
    5.3602    5.0492    0.0000 H   0  0  0  0  0  0  0  0  0  0  0  0
    3.2456    5.7403    0.0000 H   0  0  0  0  0  0  0  0  0  0  0  0
    3.1439   10.8461    0.0000 H   0  0  0  0  0  0  0  0  0  0  0  0
    5.1676   14.4722    0.0000 H   0  0  0  0  0  0  0  0  0  0  0  0
    5.8094   14.6121    0.0000 H   0  0  0  0  0  0  0  0  0  0  0  0
    6.2982   15.2825    0.0000 H   0  0  0  0  0  0  0  0  0  0  0  0
    6.2352   15.9363    0.0000 H   0  0  0  0  0  0  0  0  0  0  0  0
    4.1645    6.6791    0.0000 H   0  0  0  0  0  0  0  0  0  0  0  0
    3.5731    7.2134    0.0000 H   0  0  0  0  0  0  0  0  0  0  0  0
    3.5235   15.7225    0.0000 H   0  0  0  0  0  0  0  0  0  0  0  0
    4.5421   17.1194    0.0000 H   0  0  0  0  0  0  0  0  0  0  0  0
    6.1814    3.9936    0.0000 H   0  0  0  0  0  0  0  0  0  0  0  0
    5.5546    6.5347    0.0000 H   0  0  0  0  0  0  0  0  0  0  0  0
    6.7641   16.2474    0.0000 H   0  0  0  0  0  0  0  0  0  0  0  0
    7.0895   16.9750    0.0000 H   0  0  0  0  0  0  0  0  0  0  0  0
    5.6229   13.1561    0.0000 H   0  0  0  0  0  0  0  0  0  0  0  0
    5.4379    2.8059    0.0000 H   0  0  0  0  0  0  0  0  0  0  0  0
    1.7320    3.8890    0.0000 H   0  0  0  0  0  0  0  0  0  0  0  0
    5.0079    1.4030    0.0000 H   0  0  0  0  0  0  0  0  0  0  0  0
    2.3820    7.3934    0.0000 H   0  0  0  0  0  0  0  0  0  0  0  0
    1.7320    0.6490    0.0000 H   0  0  0  0  0  0  0  0  0  0  0  0
    6.6279    0.7830    0.0000 H   0  0  0  0  0  0  0  0  0  0  0  0
    7.2479    1.4030    0.0000 H   0  0  0  0  0  0  0  0  0  0  0  0
    6.6279    2.0230    0.0000 H   0  0  0  0  0  0  0  0  0  0  0  0
    4.5910    0.8469    0.0000 H   0  0  0  0  0  0  0  0  0  0  0  0
    4.8179    0.0000    0.0000 H   0  0  0  0  0  0  0  0  0  0  0  0
    5.6648    0.2269    0.0000 H   0  0  0  0  0  0  0  0  0  0  0  0
    6.8927   18.1634    0.0000 H   0  0  0  0  0  0  0  0  0  0  0  0
    0.3380   13.8461    0.0000 H   0  0  0  0  0  0  0  0  0  0  0  0
    0.8750   14.7761    0.0000 H   0  0  0  0  0  0  0  0  0  0  0  0
  1 42  1  0  0  0  0
  2 43  1  0  0  0  0
  3 20  1  0  0  0  0
  3 23  1  0  0  0  0
 21  4  1  6  0  0  0
  4 64  1  0  0  0  0
 22  5  1  6  0  0  0
  5 65  1  0  0  0  0
  6 27  1  0  0  0  0
  6 72  1  0  0  0  0
  7 36  1  0  0  0  0
  7 80  1  0  0  0  0
  8 17  1  0  0  0  0
  8 28  1  0  0  0  0
  8 55  1  0  0  0  0
 20  9  1  1  0  0  0
  9 29  1  0  0  0  0
  9 30  1  0  0  0  0
 24 10  1  1  0  0  0
 10 33  1  0  0  0  0
 10 37  1  0  0  0  0
 11 30  2  0  0  0  0
 11 35  1  0  0  0  0
 12 30  1  0  0  0  0
 12 39  1  0  0  0  0
 12 69  1  0  0  0  0
 13 31  1  0  0  0  0
 13 37  2  0  0  0  0
 14 28  1  0  0  0  0
 14 41  2  0  0  0  0
 15 33  2  0  0  0  0
 15 41  1  0  0  0  0
 16 41  1  0  0  0  0
 16 81  1  0  0  0  0
 16 82  1  0  0  0  0
 17 18  1  0  0  0  0
 17 19  1  0  0  0  0
 17 46  1  0  0  0  0
 18 19  1  0  0  0  0
 18 47  1  0  0  0  0
 18 48  1  0  0  0  0
 19 49  1  0  0  0  0
 19 50  1  0  0  0  0
 20 21  1  0  0  0  0
 20 51  1  0  0  0  0
 21 22  1  0  0  0  0
 21 52  1  0  0  0  0
 22 23  1  0  0  0  0
 22 53  1  0  0  0  0
 23 27  1  1  0  0  0
 23 54  1  0  0  0  0
 24 25  1  0  0  0  0
 24 32  1  0  0  0  0
 24 56  1  0  0  0  0
 25 26  1  0  0  0  0
 25 57  1  0  0  0  0
 25 58  1  0  0  0  0
 26 34  1  0  0  0  0
 26 36  1  1  0  0  0
 26 59  1  0  0  0  0
 27 60  1  0  0  0  0
 27 61  1  0  0  0  0
 28 31  2  0  0  0  0
 29 35  1  0  0  0  0
 29 38  2  0  0  0  0
 31 33  1  0  0  0  0
 32 34  2  0  0  0  0
 32 62  1  0  0  0  0
 34 63  1  0  0  0  0
 35 40  2  0  0  0  0
 36 66  1  0  0  0  0
 36 67  1  0  0  0  0
 37 68  1  0  0  0  0
 38 42  1  0  0  0  0
 38 70  1  0  0  0  0
 39 44  1  0  0  0  0
 39 45  1  0  0  0  0
 39 71  1  0  0  0  0
 40 43  1  0  0  0  0
 40 73  1  0  0  0  0
 42 43  2  0  0  0  0
 44 74  1  0  0  0  0
 44 75  1  0  0  0  0
 44 76  1  0  0  0  0
 45 77  1  0  0  0  0
 45 78  1  0  0  0  0
 45 79  1  0  0  0  0
M  END
> <PUBCHEM_COMPOUND_CID>
507268
> <PUBCHEM_COMPOUND_CANONICALIZED>
1
> <PUBCHEM_CACTVS_COMPLEXITY>
861
> <PUBCHEM_CACTVS_HBOND_ACCEPTOR>
12
> <PUBCHEM_CACTVS_HBOND_DONOR>
7
> <PUBCHEM_CACTVS_ROTATABLE_BOND>
8
> <PUBCHEM_CACTVS_SUBSKEYS>
AAADcfB7+AAGAAAAAAAAAAAAGAAAAWLEiAA8QAAAAAAAAFgB/gAAHgIQCAAADT7hlyY38L/MFgCgASZjZACCgC0xF6AJ2uA4dpiLeKLB29GeZAhv0ALbyCfwMAIMAABAAAIAACQAAIAABAAASAAAAAAAAA==
> <PUBCHEM_IUPAC_OPENEYE_NAME>
[(1S,4R)-4-[2-amino-6-(cyclopropylamino)purin-9-yl]cyclopent-2-en-1-yl]methanol;(2S,3S,4R,5S)-2-[5,6-dichloro-2-(isopropylamino)benzimidazol-1-yl]-5-(hydroxymethyl)tetrahydrofuran-3,4-diol
> <PUBCHEM_IUPAC_CAS_NAME>
[(1S,4R)-4-[2-amino-6-(cyclopropylamino)-9-purinyl]-1-cyclopent-2-enyl]methanol;(2S,3S,4R,5S)-2-[5,6-dichloro-2-(propan-2-ylamino)-1-benzimidazolyl]-5-(hydroxymethyl)oxolane-3,4-diol
> <PUBCHEM_IUPAC_NAME_MARKUP>
[(1<I>S</I>,4<I>R</I>)-4-[2-amino-6-(cyclopropylamino)purin-9-yl]cyclopent-2-en-1-yl]methanol;(2<I>S</I>,3<I>S</I>,4<I>R</I>,5<I>S</I>)-2-[5,6-dichloro-2-(propan-2-ylamino)benzimidazol-1-yl]-5-(hydroxymethyl)oxolane-3,4-diol
> <PUBCHEM_IUPAC_NAME>
[(1S,4R)-4-[2-amino-6-(cyclopropylamino)purin-9-yl]cyclopent-2-en-1-yl]methanol;(2S,3S,4R,5S)-2-[5,6-dichloro-2-(propan-2-ylamino)benzimidazol-1-yl]-5-(hydroxymethyl)oxolane-3,4-diol
> <PUBCHEM_IUPAC_SYSTEMATIC_NAME>
[(1S,4R)-4-[2-azanyl-6-(cyclopropylamino)purin-9-yl]cyclopent-2-en-1-yl]methanol;(2S,3S,4R,5S)-2-[5,6-bis(chloranyl)-2-(propan-2-ylamino)benzimidazol-1-yl]-5-(hydroxymethyl)oxolane-3,4-diol
> <PUBCHEM_IUPAC_TRADITIONAL_NAME>
[(1S,4R)-4-[2-amino-6-(cyclopropylamino)purin-9-yl]cyclopent-2-en-1-yl]methanol;(2S,3S,4R,5S)-2-[5,6-dichloro-2-(isopropylamino)benzimidazol-1-yl]-5-methylol-tetrahydrofuran-3,4-diol
> <PUBCHEM_IUPAC_INCHI>
InChI=1S/C15H19Cl2N3O4.C14H18N6O/c1-6(2)18-15-19-9-3-7(16)8(17)4-10(9)20(15)14-13(23)12(22)11(5-21)24-14;15-14-18-12(17-9-2-3-9)11-13(19-14)20(7-16-11)10-4-1-8(5-10)6-21/h3-4,6,11-14,21-23H,5H2,1-2H3,(H,18,19);1,4,7-10,21H,2-3,5-6H2,(H3,15,17,18,19)/t11-,12-,13-,14-;8-,10+/m01/s1
> <PUBCHEM_IUPAC_INCHIKEY>
SKLOXAGMYMQPDN-PZKZXAGZSA-N
> <PUBCHEM_EXACT_MASS>
661.2294707
> <PUBCHEM_MOLECULAR_FORMULA>
C29H37Cl2N9O5
> <PUBCHEM_MOLECULAR_WEIGHT>
662.6
> <PUBCHEM_OPENEYE_CAN_SMILES>
CC(C)NC1=NC2=CC(=C(C=C2N1C3C(C(C(O3)CO)O)O)Cl)Cl.C1CC1NC2=C3C(=NC(=N2)N)N(C=N3)C4CC(C=C4)CO
> <PUBCHEM_OPENEYE_ISO_SMILES>
CC(C)NC1=NC2=CC(=C(C=C2N1[C@@H]3[C@H]([C@H]([C@@H](O3)CO)O)O)Cl)Cl.C1CC1NC2=C3C(=NC(=N2)N)N(C=N3)[C@@H]4C[C@@H](C=C4)CO
> <PUBCHEM_CACTVS_TPSA>
202
> <PUBCHEM_MONOISOTOPIC_WEIGHT>
661.2294707
> <PUBCHEM_TOTAL_CHARGE>
0
> <PUBCHEM_HEAVY_ATOM_COUNT>
45
> <PUBCHEM_ATOM_DEF_STEREO_COUNT>
6
> <PUBCHEM_ATOM_UDEF_STEREO_COUNT>
0
> <PUBCHEM_BOND_DEF_STEREO_COUNT>
0
> <PUBCHEM_BOND_UDEF_STEREO_COUNT>
0
> <PUBCHEM_ISOTOPIC_ATOM_COUNT>
0
> <PUBCHEM_COMPONENT_COUNT>
2
> <PUBCHEM_CACTVS_TAUTO_COUNT>
-1
> <PUBCHEM_COORDINATE_TYPE>
1
5
255
> <PUBCHEM_BONDANNOTATIONS>
24  10  5
10  33  8
10  37  8
11  30  8
11  35  8
13  31  8
13  37  8
14  28  8
14  41  8
15  33  8
15  41  8
23  27  5
26  36  5
28  31  8
29  35  8
29  38  8
31  33  8
35  40  8
38  42  8
21  4  6
40  43  8
42  43  8
22  5  6
20  9  5
9  29  8
9  30  8
$$$$
