507269
  -OEChem-10302200282D
 36 38  0     1  0  0  0  0  0999 V2000
    7.3435    0.6702    0.0000 O   0  0  0  0  0  0  0  0  0  0  0  0
    4.8055    1.1746    0.0000 O   0  0  0  0  0  0  0  0  0  0  0  0
    6.0873    2.9324    0.0000 O   0  0  0  0  0  0  0  0  0  0  0  0
    9.0681    1.8482    0.0000 O   0  0  0  0  0  0  0  0  0  0  0  0
    4.2690   -3.3924    0.0000 O   0  0  0  0  0  0  0  0  0  0  0  0
    6.0812   -0.5877    0.0000 N   0  0  0  0  0  0  0  0  0  0  0  0
    6.0812   -2.1972    0.0000 N   0  0  0  0  0  0  0  0  0  0  0  0
    3.4030   -1.8924    0.0000 N   0  0  0  0  0  0  0  0  0  0  0  0
    2.5369   -0.3925    0.0000 N   0  0  0  0  0  0  0  0  0  0  0  0
    2.5369   -2.3925    0.0000 N   0  0  0  0  0  0  0  0  0  0  0  0
    6.3919    0.3628    0.0000 C   0  0  1  0  0  0  0  0  0  0  0  0
    5.8055    1.1728    0.0000 C   0  0  1  0  0  0  0  0  0  0  0  0
    6.3947    1.9808    0.0000 C   0  0  1  0  0  0  0  0  0  0  0  0
    7.3452    1.6702    0.0000 C   0  0  1  0  0  0  0  0  0  0  0  0
    8.1552    2.2566    0.0000 C   0  0  0  0  0  0  0  0  0  0  0  0
    5.1350   -0.8925    0.0000 C   0  0  0  0  0  0  0  0  0  0  0  0
    6.6648   -1.3924    0.0000 C   0  0  0  0  0  0  0  0  0  0  0  0
    5.1350   -1.8924    0.0000 C   0  0  0  0  0  0  0  0  0  0  0  0
    4.2690   -0.3925    0.0000 C   0  0  0  0  0  0  0  0  0  0  0  0
    4.2690   -2.3925    0.0000 C   0  0  0  0  0  0  0  0  0  0  0  0
    3.4030   -0.8925    0.0000 C   0  0  0  0  0  0  0  0  0  0  0  0
    5.7794    0.2669    0.0000 H   0  0  0  0  0  0  0  0  0  0  0  0
    5.5250    1.7257    0.0000 H   0  0  0  0  0  0  0  0  0  0  0  0
    5.7825    2.0789    0.0000 H   0  0  0  0  0  0  0  0  0  0  0  0
    7.8972    1.3877    0.0000 H   0  0  0  0  0  0  0  0  0  0  0  0
    8.5028    2.7700    0.0000 H   0  0  0  0  0  0  0  0  0  0  0  0
    7.7100    2.6880    0.0000 H   0  0  0  0  0  0  0  0  0  0  0  0
    7.2848   -1.3924    0.0000 H   0  0  0  0  0  0  0  0  0  0  0  0
    4.4964    1.7120    0.0000 H   0  0  0  0  0  0  0  0  0  0  0  0
    6.5030    3.3924    0.0000 H   0  0  0  0  0  0  0  0  0  0  0  0
    4.2690    0.2275    0.0000 H   0  0  0  0  0  0  0  0  0  0  0  0
    9.5703    2.2118    0.0000 H   0  0  0  0  0  0  0  0  0  0  0  0
    2.5369    0.2275    0.0000 H   0  0  0  0  0  0  0  0  0  0  0  0
    2.0000   -0.7025    0.0000 H   0  0  0  0  0  0  0  0  0  0  0  0
    2.5369   -3.0124    0.0000 H   0  0  0  0  0  0  0  0  0  0  0  0
    2.0000   -2.0824    0.0000 H   0  0  0  0  0  0  0  0  0  0  0  0
  1 11  1  0  0  0  0
  1 14  1  0  0  0  0
 12  2  1  6  0  0  0
  2 29  1  0  0  0  0
 13  3  1  6  0  0  0
  3 30  1  0  0  0  0
  4 15  1  0  0  0  0
  4 32  1  0  0  0  0
  5 20  2  0  0  0  0
 11  6  1  1  0  0  0
  6 16  1  0  0  0  0
  6 17  1  0  0  0  0
  7 17  2  0  0  0  0
  7 18  1  0  0  0  0
  8 10  1  0  0  0  0
  8 20  1  0  0  0  0
  8 21  1  0  0  0  0
  9 21  1  0  0  0  0
  9 33  1  0  0  0  0
  9 34  1  0  0  0  0
 10 35  1  0  0  0  0
 10 36  1  0  0  0  0
 11 12  1  0  0  0  0
 11 22  1  0  0  0  0
 12 13  1  0  0  0  0
 12 23  1  0  0  0  0
 13 14  1  0  0  0  0
 13 24  1  0  0  0  0
 14 15  1  1  0  0  0
 14 25  1  0  0  0  0
 15 26  1  0  0  0  0
 15 27  1  0  0  0  0
 16 18  2  0  0  0  0
 16 19  1  0  0  0  0
 17 28  1  0  0  0  0
 18 20  1  0  0  0  0
 19 21  2  0  0  0  0
 19 31  1  0  0  0  0
M  END
> <PUBCHEM_COMPOUND_CID>
507269
> <PUBCHEM_COMPOUND_CANONICALIZED>
1
> <PUBCHEM_CACTVS_COMPLEXITY>
474
> <PUBCHEM_CACTVS_HBOND_ACCEPTOR>
8
> <PUBCHEM_CACTVS_HBOND_DONOR>
5
> <PUBCHEM_CACTVS_ROTATABLE_BOND>
2
> <PUBCHEM_CACTVS_SUBSKEYS>
AAADccBzuAAAAAAAAAAAAAAAAAAAAWJAAAAgAAAAAAAAAEABgAAAHgAYCAAACBzhlgYFkBdOFgCoASVzdACCgC03EqAX+AG4VFiLWBpAyCAeQYhfgQLTgWDwMAIAAAAAAAAAAAAAAAAAAAAAAAAAAAAAAA==
> <PUBCHEM_IUPAC_OPENEYE_NAME>
5,6-diamino-1-[(2R,3R,4S,5R)-3,4-dihydroxy-5-(hydroxymethyl)tetrahydrofuran-2-yl]imidazo[4,5-c]pyridin-4-one
> <PUBCHEM_IUPAC_CAS_NAME>
5,6-diamino-1-[(2R,3R,4S,5R)-3,4-dihydroxy-5-(hydroxymethyl)-2-oxolanyl]-4-imidazo[4,5-c]pyridinone
> <PUBCHEM_IUPAC_NAME_MARKUP>
5,6-diamino-1-[(2<I>R</I>,3<I>R</I>,4<I>S</I>,5<I>R</I>)-3,4-dihydroxy-5-(hydroxymethyl)oxolan-2-yl]imidazo[4,5-c]pyridin-4-one
> <PUBCHEM_IUPAC_NAME>
5,6-diamino-1-[(2R,3R,4S,5R)-3,4-dihydroxy-5-(hydroxymethyl)oxolan-2-yl]imidazo[4,5-c]pyridin-4-one
> <PUBCHEM_IUPAC_SYSTEMATIC_NAME>
5,6-bis(azanyl)-1-[(2R,3R,4S,5R)-5-(hydroxymethyl)-3,4-bis(oxidanyl)oxolan-2-yl]imidazo[4,5-c]pyridin-4-one
> <PUBCHEM_IUPAC_TRADITIONAL_NAME>
5,6-diamino-1-[(2R,3R,4S,5R)-3,4-dihydroxy-5-methylol-tetrahydrofuran-2-yl]imidazo[4,5-c]pyridin-4-one
> <PUBCHEM_IUPAC_INCHI>
InChI=1S/C11H15N5O5/c12-6-1-4-7(10(20)16(6)13)14-3-15(4)11-9(19)8(18)5(2-17)21-11/h1,3,5,8-9,11,17-19H,2,12-13H2/t5-,8-,9-,11-/m1/s1
> <PUBCHEM_IUPAC_INCHIKEY>
UTVYRLCIIIIABF-MGUDNFKCSA-N
> <PUBCHEM_XLOGP3_AA>
-2.9
> <PUBCHEM_EXACT_MASS>
297.10731860
> <PUBCHEM_MOLECULAR_FORMULA>
C11H15N5O5
> <PUBCHEM_MOLECULAR_WEIGHT>
297.27
> <PUBCHEM_OPENEYE_CAN_SMILES>
C1=C(N(C(=O)C2=C1N(C=N2)C3C(C(C(O3)CO)O)O)N)N
> <PUBCHEM_OPENEYE_ISO_SMILES>
C1=C(N(C(=O)C2=C1N(C=N2)[C@H]3[C@@H]([C@@H]([C@H](O3)CO)O)O)N)N
> <PUBCHEM_CACTVS_TPSA>
160
> <PUBCHEM_MONOISOTOPIC_WEIGHT>
297.10731860
> <PUBCHEM_TOTAL_CHARGE>
0
> <PUBCHEM_HEAVY_ATOM_COUNT>
21
> <PUBCHEM_ATOM_DEF_STEREO_COUNT>
4
> <PUBCHEM_ATOM_UDEF_STEREO_COUNT>
0
> <PUBCHEM_BOND_DEF_STEREO_COUNT>
0
> <PUBCHEM_BOND_UDEF_STEREO_COUNT>
0
> <PUBCHEM_ISOTOPIC_ATOM_COUNT>
0
> <PUBCHEM_COMPONENT_COUNT>
1
> <PUBCHEM_CACTVS_TAUTO_COUNT>
4
> <PUBCHEM_COORDINATE_TYPE>
1
5
255
> <PUBCHEM_BONDANNOTATIONS>
14  15  5
16  18  8
16  19  8
18  20  8
19  21  8
12  2  6
13  3  6
11  6  5
6  16  8
6  17  8
7  17  8
7  18  8
8  20  8
8  21  8
$$$$
