507272
  -OEChem-10302200282D
 66 72  0     1  0  0  0  0  0999 V2000
    7.7569    0.8894    0.0000 O   0  0  0  0  0  0  0  0  0  0  0  0
    3.7970   -2.7283    0.0000 O   0  0  0  0  0  0  0  0  0  0  0  0
    2.6989    1.3618    0.0000 O   0  0  0  0  0  0  0  0  0  0  0  0
    6.0757    2.5331    0.0000 O   0  0  0  0  0  0  0  0  0  0  0  0
    3.9377    2.5723    0.0000 O   0  0  0  0  0  0  0  0  0  0  0  0
    4.4742    1.8732    0.0000 O   0  0  0  0  0  0  0  0  0  0  0  0
    4.3666    0.8942    0.0000 N   0  0  0  0  0  0  0  0  0  0  0  0
    5.8464    0.8163    0.0000 N   0  0  0  0  0  0  0  0  0  0  0  0
    6.0839    0.4411    0.0000 C   0  0  0  0  0  0  0  0  0  0  0  0
    4.8965   -1.3900    0.0000 C   0  0  0  0  0  0  0  0  0  0  0  0
    6.0839    1.8553    0.0000 C   0  0  0  0  0  0  0  0  0  0  0  0
    4.8258   -0.8464    0.0000 C   0  0  0  0  0  0  0  0  0  0  0  0
    5.3768    1.1482    0.0000 C   0  0  3  0  0  0  0  0  0  0  0  0
    6.7910    1.1482    0.0000 C   0  0  3  0  0  0  0  0  0  0  0  0
    4.0893   -0.1099    0.0000 C   0  0  3  0  0  0  0  0  0  0  0  0
    5.1437    0.1030    0.0000 C   0  0  3  0  0  0  0  0  0  0  0  0
    5.8299   -0.5691    0.0000 C   0  0  2  0  0  0  0  0  0  0  0  0
    6.4270   -0.1101    0.0000 C   0  0  1  0  0  0  0  0  0  0  0  0
    7.0498    0.1823    0.0000 C   0  0  0  0  0  0  0  0  0  0  0  0
    4.7331   -2.3765    0.0000 C   0  0  0  0  0  0  0  0  0  0  0  0
    6.0998   -1.5319    0.0000 C   0  0  0  0  0  0  0  0  0  0  0  0
    7.3661   -0.4537    0.0000 C   0  0  0  0  0  0  0  0  0  0  0  0
    3.6677    1.6094    0.0000 C   0  0  0  0  0  0  0  0  0  0  0  0
    5.4654    1.7409    0.0000 C   0  0  0  0  0  0  0  0  0  0  0  0
    5.4009   -2.2472    0.0000 C   0  0  0  0  0  0  0  0  0  0  0  0
    7.5381   -1.4388    0.0000 C   0  0  0  0  0  0  0  0  0  0  0  0
    7.0687   -1.7796    0.0000 C   0  0  0  0  0  0  0  0  0  0  0  0
    8.1333    0.1878    0.0000 C   0  0  0  0  0  0  0  0  0  0  0  0
    5.6709   -3.2100    0.0000 C   0  0  0  0  0  0  0  0  0  0  0  0
    8.4772   -1.7824    0.0000 C   0  0  0  0  0  0  0  0  0  0  0  0
    7.3386   -2.7424    0.0000 C   0  0  0  0  0  0  0  0  0  0  0  0
    9.0724   -0.1559    0.0000 C   0  0  0  0  0  0  0  0  0  0  0  0
    6.6398   -3.4577    0.0000 C   0  0  0  0  0  0  0  0  0  0  0  0
    9.2443   -1.1410    0.0000 C   0  0  0  0  0  0  0  0  0  0  0  0
    2.0000    2.0770    0.0000 C   0  0  0  0  0  0  0  0  0  0  0  0
    5.6947    3.4577    0.0000 C   0  0  0  0  0  0  0  0  0  0  0  0
    6.0839    2.4753    0.0000 H   0  0  0  0  0  0  0  0  0  0  0  0
    4.6677   -1.4459    0.0000 H   0  0  0  0  0  0  0  0  0  0  0  0
    5.0709    1.6875    0.0000 H   0  0  0  0  0  0  0  0  0  0  0  0
    7.4110    1.1482    0.0000 H   0  0  0  0  0  0  0  0  0  0  0  0
    3.4759   -0.2004    0.0000 H   0  0  0  0  0  0  0  0  0  0  0  0
    4.6153    0.4274    0.0000 H   0  0  0  0  0  0  0  0  0  0  0  0
    6.4498   -0.5607    0.0000 H   0  0  0  0  0  0  0  0  0  0  0  0
    6.9026    0.2876    0.0000 H   0  0  0  0  0  0  0  0  0  0  0  0
    6.7878   -0.3796    0.0000 H   0  0  0  0  0  0  0  0  0  0  0  0
    7.5577   -0.1733    0.0000 H   0  0  0  0  0  0  0  0  0  0  0  0
    4.8471   -2.9860    0.0000 H   0  0  0  0  0  0  0  0  0  0  0  0
    5.3531   -2.3701    0.0000 H   0  0  0  0  0  0  0  0  0  0  0  0
    7.5965    1.4883    0.0000 H   0  0  0  0  0  0  0  0  0  0  0  0
    3.6957   -3.3400    0.0000 H   0  0  0  0  0  0  0  0  0  0  0  0
    4.8002   -2.0936    0.0000 H   0  0  0  0  0  0  0  0  0  0  0  0
    7.0625   -1.8366    0.0000 H   0  0  0  0  0  0  0  0  0  0  0  0
    7.5020   -1.3361    0.0000 H   0  0  0  0  0  0  0  0  0  0  0  0
    8.0266    0.7985    0.0000 H   0  0  0  0  0  0  0  0  0  0  0  0
    5.2376   -3.6535    0.0000 H   0  0  0  0  0  0  0  0  0  0  0  0
    8.5838   -2.3932    0.0000 H   0  0  0  0  0  0  0  0  0  0  0  0
    7.9393   -2.8960    0.0000 H   0  0  0  0  0  0  0  0  0  0  0  0
    9.5480    0.2419    0.0000 H   0  0  0  0  0  0  0  0  0  0  0  0
    6.8072   -4.0546    0.0000 H   0  0  0  0  0  0  0  0  0  0  0  0
    9.8266   -1.3540    0.0000 H   0  0  0  0  0  0  0  0  0  0  0  0
    2.4434    2.5103    0.0000 H   0  0  0  0  0  0  0  0  0  0  0  0
    1.5667    2.5204    0.0000 H   0  0  0  0  0  0  0  0  0  0  0  0
    1.5566    1.6437    0.0000 H   0  0  0  0  0  0  0  0  0  0  0  0
    6.2679    3.6939    0.0000 H   0  0  0  0  0  0  0  0  0  0  0  0
    5.4585    4.0309    0.0000 H   0  0  0  0  0  0  0  0  0  0  0  0
    5.1214    3.2215    0.0000 H   0  0  0  0  0  0  0  0  0  0  0  0
  1 19  1  0  0  0  0
  1 49  1  0  0  0  0
  2 20  1  0  0  0  0
  2 50  1  0  0  0  0
  3 23  1  0  0  0  0
  3 35  1  0  0  0  0
  4 24  1  0  0  0  0
  4 36  1  0  0  0  0
  5 23  2  0  0  0  0
  6 24  2  0  0  0  0
  7 13  1  0  0  0  0
  7 15  1  0  0  0  0
  7 23  1  0  0  0  0
  8 14  1  0  0  0  0
  8 16  1  0  0  0  0
  8 24  1  0  0  0  0
  9 13  1  0  0  0  0
  9 14  1  0  0  0  0
  9 17  1  0  0  0  0
  9 19  1  0  0  0  0
 10 15  1  0  0  0  0
 10 16  1  0  0  0  0
 10 18  1  0  0  0  0
 10 20  1  0  0  0  0
 11 13  1  0  0  0  0
 11 14  1  0  0  0  0
 11 18  1  0  0  0  0
 11 37  1  0  0  0  0
 12 15  1  0  0  0  0
 12 16  1  0  0  0  0
 12 17  1  0  0  0  0
 12 38  1  0  0  0  0
 13 39  1  0  0  0  0
 14 40  1  0  0  0  0
 15 41  1  0  0  0  0
 16 42  1  0  0  0  0
 17 21  1  1  0  0  0
 17 43  1  0  0  0  0
 18 22  1  1  0  0  0
 18 44  1  0  0  0  0
 19 45  1  0  0  0  0
 19 46  1  0  0  0  0
 20 47  1  0  0  0  0
 20 48  1  0  0  0  0
 21 25  2  0  0  0  0
 21 27  1  0  0  0  0
 22 26  2  0  0  0  0
 22 28  1  0  0  0  0
 25 29  1  0  0  0  0
 25 51  1  0  0  0  0
 26 30  1  0  0  0  0
 26 52  1  0  0  0  0
 27 31  2  0  0  0  0
 27 53  1  0  0  0  0
 28 32  2  0  0  0  0
 28 54  1  0  0  0  0
 29 33  2  0  0  0  0
 29 55  1  0  0  0  0
 30 34  2  0  0  0  0
 30 56  1  0  0  0  0
 31 33  1  0  0  0  0
 31 57  1  0  0  0  0
 32 34  1  0  0  0  0
 32 58  1  0  0  0  0
 33 59  1  0  0  0  0
 34 60  1  0  0  0  0
 35 61  1  0  0  0  0
 35 62  1  0  0  0  0
 35 63  1  0  0  0  0
 36 64  1  0  0  0  0
 36 65  1  0  0  0  0
 36 66  1  0  0  0  0
M  END
> <PUBCHEM_COMPOUND_CID>
507272
> <PUBCHEM_COMPOUND_CANONICALIZED>
1
> <PUBCHEM_CACTVS_COMPLEXITY>
831
> <PUBCHEM_CACTVS_HBOND_ACCEPTOR>
6
> <PUBCHEM_CACTVS_HBOND_DONOR>
2
> <PUBCHEM_CACTVS_ROTATABLE_BOND>
6
> <PUBCHEM_CACTVS_SUBSKEYS>
AAADceB7OAAAAAAAAAAAAAAAAABgwAAAAAA8eLFiAAAAAAABQAAAHgAACAAADyjhmAYyCIMABgCIAiBCGAACAAAgAAAIiAAIAIgIMCKA0RCEYAAmhgCIiAeQ0PMPgAAAAAAAAAAAAAAAAAAAAAAAAAAAAA==
> <PUBCHEM_IUPAC_OPENEYE_NAME>
dimethyl (6S,12R)-1,5-bis(hydroxymethyl)-6,12-diphenyl-3,9-diazapentacyclo[6.4.0.02,7.04,11.05,10]dodecane-3,9-dicarboxylate
> <PUBCHEM_IUPAC_CAS_NAME>
(6S,12R)-1,5-bis(hydroxymethyl)-6,12-diphenyl-3,9-diazapentacyclo[6.4.0.02,7.04,11.05,10]dodecane-3,9-dicarboxylic acid dimethyl ester
> <PUBCHEM_IUPAC_NAME_MARKUP>
dimethyl (6<I>S</I>,12<I>R</I>)-1,5-bis(hydroxymethyl)-6,12-diphenyl-3,9-diazapentacyclo[6.4.0.0<SUP>2,7</SUP>.0<SUP>4,11</SUP>.0<SUP>5,10</SUP>]dodecane-3,9-dicarboxylate
> <PUBCHEM_IUPAC_NAME>
dimethyl (6S,12R)-1,5-bis(hydroxymethyl)-6,12-diphenyl-3,9-diazapentacyclo[6.4.0.02,7.04,11.05,10]dodecane-3,9-dicarboxylate
> <PUBCHEM_IUPAC_SYSTEMATIC_NAME>
dimethyl (6S,12R)-1,5-bis(hydroxymethyl)-6,12-diphenyl-3,9-diazapentacyclo[6.4.0.02,7.04,11.05,10]dodecane-3,9-dicarboxylate
> <PUBCHEM_IUPAC_TRADITIONAL_NAME>
(6S,12R)-1,5-dimethylol-6,12-diphenyl-3,9-diazapentacyclo[6.4.0.02,7.04,11.05,10]dodecane-3,9-dicarboxylic acid dimethyl ester
> <PUBCHEM_IUPAC_INCHI>
InChI=1S/C28H30N2O6/c1-35-25(33)29-21-17-19(15-9-5-3-6-10-15)27(13-31)22(29)18-20(16-11-7-4-8-12-16)28(21,14-32)23(17)30(24(18)27)26(34)36-2/h3-12,17-24,31-32H,13-14H2,1-2H3/t17?,18?,19-,20+,21?,22?,23?,24?,27?,28?
> <PUBCHEM_IUPAC_INCHIKEY>
AGQNXHHKILGVSY-BEQJAEAJSA-N
> <PUBCHEM_XLOGP3_AA>
2
> <PUBCHEM_EXACT_MASS>
490.21038668
> <PUBCHEM_MOLECULAR_FORMULA>
C28H30N2O6
> <PUBCHEM_MOLECULAR_WEIGHT>
490.5
> <PUBCHEM_OPENEYE_CAN_SMILES>
COC(=O)N1C2C3C(C4(C1C5C4N(C3C2(C5C6=CC=CC=C6)CO)C(=O)OC)CO)C7=CC=CC=C7
> <PUBCHEM_OPENEYE_ISO_SMILES>
COC(=O)N1C2C3[C@@H](C4(C1C5C4N(C3C2([C@@H]5C6=CC=CC=C6)CO)C(=O)OC)CO)C7=CC=CC=C7
> <PUBCHEM_CACTVS_TPSA>
99.5
> <PUBCHEM_MONOISOTOPIC_WEIGHT>
490.21038668
> <PUBCHEM_TOTAL_CHARGE>
0
> <PUBCHEM_HEAVY_ATOM_COUNT>
36
> <PUBCHEM_ATOM_DEF_STEREO_COUNT>
2
> <PUBCHEM_ATOM_UDEF_STEREO_COUNT>
4
> <PUBCHEM_BOND_DEF_STEREO_COUNT>
0
> <PUBCHEM_BOND_UDEF_STEREO_COUNT>
0
> <PUBCHEM_ISOTOPIC_ATOM_COUNT>
0
> <PUBCHEM_COMPONENT_COUNT>
1
> <PUBCHEM_CACTVS_TAUTO_COUNT>
-1
> <PUBCHEM_COORDINATE_TYPE>
1
5
255
> <PUBCHEM_BONDANNOTATIONS>
17  21  5
18  22  5
21  25  8
21  27  8
22  26  8
22  28  8
25  29  8
26  30  8
27  31  8
28  32  8
29  33  8
30  34  8
31  33  8
32  34  8
13  7  3
15  7  3
14  8  3
16  8  3
$$$$
