507238
  -OEChem-10302200282D
 41 44  0     1  0  0  0  0  0999 V2000
    2.0000    0.7422    0.0000 Cl  0  0  0  0  0  0  0  0  0  0  0  0
    9.0973    1.7068    0.0000 S   0  0  0  0  0  0  0  0  0  0  0  0
    5.5301   -1.2820    0.0000 O   0  0  0  0  0  0  0  0  0  0  0  0
    7.2622   -1.2820    0.0000 O   0  0  0  0  0  0  0  0  0  0  0  0
    5.5301    1.7180    0.0000 O   0  0  0  0  0  0  0  0  0  0  0  0
    8.1282    0.2180    0.0000 N   0  0  0  0  0  0  0  0  0  0  0  0
    9.9020    0.3129    0.0000 N   0  0  0  0  0  0  0  0  0  0  0  0
    6.3961   -0.7820    0.0000 C   0  0  3  0  0  0  0  0  0  0  0  0
    6.3961    0.2180    0.0000 C   0  0  0  0  0  0  0  0  0  0  0  0
    4.6641    0.2180    0.0000 C   0  0  0  0  0  0  0  0  0  0  0  0
    4.6641   -0.7820    0.0000 C   0  0  0  0  0  0  0  0  0  0  0  0
    5.5301    0.7180    0.0000 C   0  0  0  0  0  0  0  0  0  0  0  0
    7.2622    0.7180    0.0000 C   0  0  0  0  0  0  0  0  0  0  0  0
    3.7702    0.7527    0.0000 C   0  0  0  0  0  0  0  0  0  0  0  0
    3.7702   -1.3166    0.0000 C   0  0  0  0  0  0  0  0  0  0  0  0
    7.2622   -2.2820    0.0000 C   0  0  0  0  0  0  0  0  0  0  0  0
    2.8641    0.2388    0.0000 C   0  0  0  0  0  0  0  0  0  0  0  0
    2.8641   -0.8028    0.0000 C   0  0  0  0  0  0  0  0  0  0  0  0
    8.9942    0.7180    0.0000 C   0  0  0  0  0  0  0  0  0  0  0  0
   10.0691    1.9160    0.0000 C   0  0  0  0  0  0  0  0  0  0  0  0
   10.5691    1.0499    0.0000 C   0  0  0  0  0  0  0  0  0  0  0  0
    8.1282   -2.7820    0.0000 C   0  0  0  0  0  0  0  0  0  0  0  0
   10.5691    2.7820    0.0000 C   0  0  0  0  0  0  0  0  0  0  0  0
   11.5691    1.0499    0.0000 C   0  0  0  0  0  0  0  0  0  0  0  0
   11.5691    2.7820    0.0000 C   0  0  0  0  0  0  0  0  0  0  0  0
   12.0691    1.9160    0.0000 C   0  0  0  0  0  0  0  0  0  0  0  0
    6.9331   -0.4720    0.0000 H   0  0  0  0  0  0  0  0  0  0  0  0
    7.2622    1.3380    0.0000 H   0  0  0  0  0  0  0  0  0  0  0  0
    3.7773    1.3726    0.0000 H   0  0  0  0  0  0  0  0  0  0  0  0
    3.7773   -1.9366    0.0000 H   0  0  0  0  0  0  0  0  0  0  0  0
    6.6516   -2.1743    0.0000 H   0  0  0  0  0  0  0  0  0  0  0  0
    7.0501   -2.8646    0.0000 H   0  0  0  0  0  0  0  0  0  0  0  0
    8.1282   -0.4020    0.0000 H   0  0  0  0  0  0  0  0  0  0  0  0
    2.3284   -1.1149    0.0000 H   0  0  0  0  0  0  0  0  0  0  0  0
    7.8182   -3.3189    0.0000 H   0  0  0  0  0  0  0  0  0  0  0  0
    8.6651   -3.0920    0.0000 H   0  0  0  0  0  0  0  0  0  0  0  0
    8.4382   -2.2450    0.0000 H   0  0  0  0  0  0  0  0  0  0  0  0
   10.2591    3.3189    0.0000 H   0  0  0  0  0  0  0  0  0  0  0  0
   11.8791    0.5130    0.0000 H   0  0  0  0  0  0  0  0  0  0  0  0
   11.8791    3.3189    0.0000 H   0  0  0  0  0  0  0  0  0  0  0  0
   12.6891    1.9160    0.0000 H   0  0  0  0  0  0  0  0  0  0  0  0
  1 17  1  0  0  0  0
  2 19  1  0  0  0  0
  2 20  1  0  0  0  0
  3  8  1  0  0  0  0
  3 11  1  0  0  0  0
  4  8  1  0  0  0  0
  4 16  1  0  0  0  0
  5 12  2  0  0  0  0
  6 13  1  0  0  0  0
  6 19  1  0  0  0  0
  6 33  1  0  0  0  0
  7 19  2  0  0  0  0
  7 21  1  0  0  0  0
  8  9  1  0  0  0  0
  8 27  1  0  0  0  0
  9 12  1  0  0  0  0
  9 13  2  3  0  0  0
 10 11  2  0  0  0  0
 10 12  1  0  0  0  0
 10 14  1  0  0  0  0
 11 15  1  0  0  0  0
 13 28  1  0  0  0  0
 14 17  2  0  0  0  0
 14 29  1  0  0  0  0
 15 18  2  0  0  0  0
 15 30  1  0  0  0  0
 16 22  1  0  0  0  0
 16 31  1  0  0  0  0
 16 32  1  0  0  0  0
 17 18  1  0  0  0  0
 18 34  1  0  0  0  0
 20 21  1  0  0  0  0
 20 23  2  0  0  0  0
 21 24  2  0  0  0  0
 22 35  1  0  0  0  0
 22 36  1  0  0  0  0
 22 37  1  0  0  0  0
 23 25  1  0  0  0  0
 23 38  1  0  0  0  0
 24 26  1  0  0  0  0
 24 39  1  0  0  0  0
 25 26  2  0  0  0  0
 25 40  1  0  0  0  0
 26 41  1  0  0  0  0
M  END
> <PUBCHEM_COMPOUND_CID>
507238
> <PUBCHEM_COMPOUND_CANONICALIZED>
1
> <PUBCHEM_CACTVS_COMPLEXITY>
561
> <PUBCHEM_CACTVS_HBOND_ACCEPTOR>
6
> <PUBCHEM_CACTVS_HBOND_DONOR>
1
> <PUBCHEM_CACTVS_ROTATABLE_BOND>
4
> <PUBCHEM_CACTVS_SUBSKEYS>
AAADccB7MABEAAAAAAAAAAAAAAAAAWAAAAA0YIAAAAAAAFiR9AAAHgYQAAAADA7x3icz37LIFAisA6R2ZACD+KllLzlJmL0+bticJrblt5umOWjs4BNM6eeY6KyOACAAIAAIAQAAQABAABACAAAAAAAAAA==
> <PUBCHEM_IUPAC_OPENEYE_NAME>
3-[(1,3-benzothiazol-2-ylamino)methylene]-6-chloro-2-ethoxy-chroman-4-one
> <PUBCHEM_IUPAC_CAS_NAME>
3-[(1,3-benzothiazol-2-ylamino)methylidene]-6-chloro-2-ethoxy-3,4-dihydro-2H-1-benzopyran-4-one
> <PUBCHEM_IUPAC_NAME_MARKUP>
3-[(1,3-benzothiazol-2-ylamino)methylidene]-6-chloro-2-ethoxychromen-4-one
> <PUBCHEM_IUPAC_NAME>
3-[(1,3-benzothiazol-2-ylamino)methylidene]-6-chloro-2-ethoxychromen-4-one
> <PUBCHEM_IUPAC_SYSTEMATIC_NAME>
3-[(1,3-benzothiazol-2-ylamino)methylidene]-6-chloranyl-2-ethoxy-chromen-4-one
> <PUBCHEM_IUPAC_TRADITIONAL_NAME>
3-[(1,3-benzothiazol-2-ylamino)methylene]-6-chloro-2-ethoxy-chroman-4-one
> <PUBCHEM_IUPAC_INCHI>
InChI=1S/C19H15ClN2O3S/c1-2-24-18-13(17(23)12-9-11(20)7-8-15(12)25-18)10-21-19-22-14-5-3-4-6-16(14)26-19/h3-10,18H,2H2,1H3,(H,21,22)
> <PUBCHEM_IUPAC_INCHIKEY>
PEQUIEKQBBATTB-UHFFFAOYSA-N
> <PUBCHEM_XLOGP3_AA>
4.8
> <PUBCHEM_EXACT_MASS>
386.0491912
> <PUBCHEM_MOLECULAR_FORMULA>
C19H15ClN2O3S
> <PUBCHEM_MOLECULAR_WEIGHT>
386.9
> <PUBCHEM_OPENEYE_CAN_SMILES>
CCOC1C(=CNC2=NC3=CC=CC=C3S2)C(=O)C4=C(O1)C=CC(=C4)Cl
> <PUBCHEM_OPENEYE_ISO_SMILES>
CCOC1C(=CNC2=NC3=CC=CC=C3S2)C(=O)C4=C(O1)C=CC(=C4)Cl
> <PUBCHEM_CACTVS_TPSA>
88.7
> <PUBCHEM_MONOISOTOPIC_WEIGHT>
386.0491912
> <PUBCHEM_TOTAL_CHARGE>
0
> <PUBCHEM_HEAVY_ATOM_COUNT>
26
> <PUBCHEM_ATOM_DEF_STEREO_COUNT>
0
> <PUBCHEM_ATOM_UDEF_STEREO_COUNT>
1
> <PUBCHEM_BOND_DEF_STEREO_COUNT>
0
> <PUBCHEM_BOND_UDEF_STEREO_COUNT>
1
> <PUBCHEM_ISOTOPIC_ATOM_COUNT>
0
> <PUBCHEM_COMPONENT_COUNT>
1
> <PUBCHEM_CACTVS_TAUTO_COUNT>
-1
> <PUBCHEM_COORDINATE_TYPE>
1
5
255
> <PUBCHEM_BONDANNOTATIONS>
10  11  8
10  14  8
11  15  8
14  17  8
15  18  8
17  18  8
2  19  8
2  20  8
20  21  8
20  23  8
21  24  8
23  25  8
24  26  8
25  26  8
8  4  3
7  19  8
7  21  8
9  13  1
$$$$
