507260
  -OEChem-10302200282D
 53 54  0     1  0  0  0  0  0999 V2000
    0.0000    3.2690    0.0000 Cl  0  0  0  0  0  0  0  0  0  0  0  0
    0.0000    1.2690    0.0000 Cl  0  0  0  0  0  0  0  0  0  0  0  0
    3.1909   10.2580    0.0000 P   0  0  0  0  0  0  0  0  0  0  0  0
    3.2686    4.8343    0.0000 O   0  0  0  0  0  0  0  0  0  0  0  0
    5.6146    3.7424    0.0000 O   0  0  0  0  0  0  0  0  0  0  0  0
    5.6183    5.9180    0.0000 O   0  0  0  0  0  0  0  0  0  0  0  0
    2.5726    6.8035    0.0000 O   0  0  0  0  0  0  0  0  0  0  0  0
    2.3249    9.7580    0.0000 O   0  0  0  0  0  0  0  0  0  0  0  0
    2.6909   11.1240    0.0000 O   0  0  0  0  0  0  0  0  0  0  0  0
    3.6909    9.3920    0.0000 O   0  0  0  0  0  0  0  0  0  0  0  0
    4.9230   10.2580    0.0000 O   0  0  0  0  0  0  0  0  0  0  0  0
    4.0570   11.7580    0.0000 O   0  0  0  0  0  0  0  0  0  0  0  0
    3.5443    3.0737    0.0000 N   0  0  0  0  0  0  0  0  0  0  0  0
    5.1279    2.2690    0.0000 N   0  0  0  0  0  0  0  0  0  0  0  0
    3.5443    1.4642    0.0000 N   0  0  0  0  0  0  0  0  0  0  0  0
    3.8550    4.0242    0.0000 C   0  0  2  0  0  0  0  0  0  0  0  0
    4.8066    4.3316    0.0000 C   0  0  2  0  0  0  0  0  0  0  0  0
    4.8083    5.3316    0.0000 C   0  0  2  0  0  0  0  0  0  0  0  0
    3.8578    5.6423    0.0000 C   0  0  2  0  0  0  0  0  0  0  0  0
    3.5504    6.5939    0.0000 C   0  0  0  0  0  0  0  0  0  0  0  0
    2.5981    2.7690    0.0000 C   0  0  0  0  0  0  0  0  0  0  0  0
    4.1279    2.2690    0.0000 C   0  0  0  0  0  0  0  0  0  0  0  0
    2.5981    1.7690    0.0000 C   0  0  0  0  0  0  0  0  0  0  0  0
    1.7320    3.2690    0.0000 C   0  0  0  0  0  0  0  0  0  0  0  0
    5.6279    1.4030    0.0000 C   0  0  0  0  0  0  0  0  0  0  0  0
    1.7320    1.2690    0.0000 C   0  0  0  0  0  0  0  0  0  0  0  0
    0.8660    2.7690    0.0000 C   0  0  0  0  0  0  0  0  0  0  0  0
    0.8660    1.7690    0.0000 C   0  0  0  0  0  0  0  0  0  0  0  0
    6.6279    1.4030    0.0000 C   0  0  0  0  0  0  0  0  0  0  0  0
    5.1279    0.5369    0.0000 C   0  0  0  0  0  0  0  0  0  0  0  0
    4.0570   10.7580    0.0000 C   0  0  0  0  0  0  0  0  0  0  0  0
    4.2926    3.5851    0.0000 H   0  0  0  0  0  0  0  0  0  0  0  0
    5.3595    4.6121    0.0000 H   0  0  0  0  0  0  0  0  0  0  0  0
    5.3602    5.0492    0.0000 H   0  0  0  0  0  0  0  0  0  0  0  0
    3.2456    5.7403    0.0000 H   0  0  0  0  0  0  0  0  0  0  0  0
    4.1645    6.6791    0.0000 H   0  0  0  0  0  0  0  0  0  0  0  0
    3.5731    7.2134    0.0000 H   0  0  0  0  0  0  0  0  0  0  0  0
    6.1814    3.9936    0.0000 H   0  0  0  0  0  0  0  0  0  0  0  0
    5.5546    6.5347    0.0000 H   0  0  0  0  0  0  0  0  0  0  0  0
    5.4379    2.8059    0.0000 H   0  0  0  0  0  0  0  0  0  0  0  0
    1.7320    3.8890    0.0000 H   0  0  0  0  0  0  0  0  0  0  0  0
    5.0079    1.4030    0.0000 H   0  0  0  0  0  0  0  0  0  0  0  0
    1.7320    0.6490    0.0000 H   0  0  0  0  0  0  0  0  0  0  0  0
    2.3820    7.3934    0.0000 H   0  0  0  0  0  0  0  0  0  0  0  0
    6.6279    0.7830    0.0000 H   0  0  0  0  0  0  0  0  0  0  0  0
    7.2479    1.4030    0.0000 H   0  0  0  0  0  0  0  0  0  0  0  0
    6.6279    2.0230    0.0000 H   0  0  0  0  0  0  0  0  0  0  0  0
    4.5910    0.8469    0.0000 H   0  0  0  0  0  0  0  0  0  0  0  0
    4.8179    0.0000    0.0000 H   0  0  0  0  0  0  0  0  0  0  0  0
    5.6648    0.2269    0.0000 H   0  0  0  0  0  0  0  0  0  0  0  0
    1.7880   10.0680    0.0000 H   0  0  0  0  0  0  0  0  0  0  0  0
    2.0709   11.1240    0.0000 H   0  0  0  0  0  0  0  0  0  0  0  0
    5.4599   10.5680    0.0000 H   0  0  0  0  0  0  0  0  0  0  0  0
  1 27  1  0  0  0  0
  2 28  1  0  0  0  0
  3  8  1  0  0  0  0
  3  9  1  0  0  0  0
  3 10  2  0  0  0  0
  3 31  1  0  0  0  0
  4 16  1  0  0  0  0
  4 19  1  0  0  0  0
 17  5  1  6  0  0  0
  5 38  1  0  0  0  0
 18  6  1  6  0  0  0
  6 39  1  0  0  0  0
  7 20  1  0  0  0  0
  7 44  1  0  0  0  0
  8 51  1  0  0  0  0
  9 52  1  0  0  0  0
 11 31  1  0  0  0  0
 11 53  1  0  0  0  0
 12 31  2  0  0  0  0
 16 13  1  1  0  0  0
 13 21  1  0  0  0  0
 13 22  1  0  0  0  0
 14 22  1  0  0  0  0
 14 25  1  0  0  0  0
 14 40  1  0  0  0  0
 15 22  2  0  0  0  0
 15 23  1  0  0  0  0
 16 17  1  0  0  0  0
 16 32  1  0  0  0  0
 17 18  1  0  0  0  0
 17 33  1  0  0  0  0
 18 19  1  0  0  0  0
 18 34  1  0  0  0  0
 19 20  1  1  0  0  0
 19 35  1  0  0  0  0
 20 36  1  0  0  0  0
 20 37  1  0  0  0  0
 21 23  1  0  0  0  0
 21 24  2  0  0  0  0
 23 26  2  0  0  0  0
 24 27  1  0  0  0  0
 24 41  1  0  0  0  0
 25 29  1  0  0  0  0
 25 30  1  0  0  0  0
 25 42  1  0  0  0  0
 26 28  1  0  0  0  0
 26 43  1  0  0  0  0
 27 28  2  0  0  0  0
 29 45  1  0  0  0  0
 29 46  1  0  0  0  0
 29 47  1  0  0  0  0
 30 48  1  0  0  0  0
 30 49  1  0  0  0  0
 30 50  1  0  0  0  0
M  END
> <PUBCHEM_COMPOUND_CID>
507260
> <PUBCHEM_COMPOUND_CANONICALIZED>
1
> <PUBCHEM_CACTVS_COMPLEXITY>
567
> <PUBCHEM_CACTVS_HBOND_ACCEPTOR>
11
> <PUBCHEM_CACTVS_HBOND_DONOR>
7
> <PUBCHEM_CACTVS_ROTATABLE_BOND>
5
> <PUBCHEM_CACTVS_SUBSKEYS>
AAADceB7PAIGAAAAAAAAAAAAAAAAAWJAAAAwAAAAAAAAAFgB8AAAHgoQCCAACD7hliYz2LfMFhCoQSRibICCgC0hF6AB2uA4dpiLeKLBmpGeYAhvkALbyCfwMAIAAABAAAIAACQAAIAABAAASAAAAAAAAA==
> <PUBCHEM_IUPAC_OPENEYE_NAME>
(2S,3S,4R,5S)-2-[5,6-dichloro-2-(isopropylamino)benzimidazol-1-yl]-5-(hydroxymethyl)tetrahydrofuran-3,4-diol;phosphonoformic acid
> <PUBCHEM_IUPAC_CAS_NAME>
(2S,3S,4R,5S)-2-[5,6-dichloro-2-(propan-2-ylamino)-1-benzimidazolyl]-5-(hydroxymethyl)oxolane-3,4-diol;phosphonoformic acid
> <PUBCHEM_IUPAC_NAME_MARKUP>
(2<I>S</I>,3<I>S</I>,4<I>R</I>,5<I>S</I>)-2-[5,6-dichloro-2-(propan-2-ylamino)benzimidazol-1-yl]-5-(hydroxymethyl)oxolane-3,4-diol;phosphonoformic acid
> <PUBCHEM_IUPAC_NAME>
(2S,3S,4R,5S)-2-[5,6-dichloro-2-(propan-2-ylamino)benzimidazol-1-yl]-5-(hydroxymethyl)oxolane-3,4-diol;phosphonoformic acid
> <PUBCHEM_IUPAC_SYSTEMATIC_NAME>
(2S,3S,4R,5S)-2-[5,6-bis(chloranyl)-2-(propan-2-ylamino)benzimidazol-1-yl]-5-(hydroxymethyl)oxolane-3,4-diol;phosphonomethanoic acid
> <PUBCHEM_IUPAC_TRADITIONAL_NAME>
(2S,3S,4R,5S)-2-[5,6-dichloro-2-(isopropylamino)benzimidazol-1-yl]-5-methylol-tetrahydrofuran-3,4-diol;phosphonoformic acid
> <PUBCHEM_IUPAC_INCHI>
InChI=1S/C15H19Cl2N3O4.CH3O5P/c1-6(2)18-15-19-9-3-7(16)8(17)4-10(9)20(15)14-13(23)12(22)11(5-21)24-14;2-1(3)7(4,5)6/h3-4,6,11-14,21-23H,5H2,1-2H3,(H,18,19);(H,2,3)(H2,4,5,6)/t11-,12-,13-,14-;/m0./s1
> <PUBCHEM_IUPAC_INCHIKEY>
RYHHGYPDABJRBX-ZMNOQRQPSA-N
> <PUBCHEM_EXACT_MASS>
501.0470717
> <PUBCHEM_MOLECULAR_FORMULA>
C16H22Cl2N3O9P
> <PUBCHEM_MOLECULAR_WEIGHT>
502.2
> <PUBCHEM_OPENEYE_CAN_SMILES>
CC(C)NC1=NC2=CC(=C(C=C2N1C3C(C(C(O3)CO)O)O)Cl)Cl.C(=O)(O)P(=O)(O)O
> <PUBCHEM_OPENEYE_ISO_SMILES>
CC(C)NC1=NC2=CC(=C(C=C2N1[C@@H]3[C@H]([C@H]([C@@H](O3)CO)O)O)Cl)Cl.C(=O)(O)P(=O)(O)O
> <PUBCHEM_CACTVS_TPSA>
195
> <PUBCHEM_MONOISOTOPIC_WEIGHT>
501.0470717
> <PUBCHEM_TOTAL_CHARGE>
0
> <PUBCHEM_HEAVY_ATOM_COUNT>
31
> <PUBCHEM_ATOM_DEF_STEREO_COUNT>
4
> <PUBCHEM_ATOM_UDEF_STEREO_COUNT>
0
> <PUBCHEM_BOND_DEF_STEREO_COUNT>
0
> <PUBCHEM_BOND_UDEF_STEREO_COUNT>
0
> <PUBCHEM_ISOTOPIC_ATOM_COUNT>
0
> <PUBCHEM_COMPONENT_COUNT>
2
> <PUBCHEM_CACTVS_TAUTO_COUNT>
-1
> <PUBCHEM_COORDINATE_TYPE>
1
5
255
> <PUBCHEM_BONDANNOTATIONS>
16  13  5
13  21  8
13  22  8
15  22  8
15  23  8
19  20  5
21  23  8
21  24  8
23  26  8
24  27  8
26  28  8
27  28  8
17  5  6
18  6  6
$$$$
