507306
  -OEChem-10302200282D
 43 45  0     1  0  0  0  0  0999 V2000
    6.3981   -0.7500    0.0000 S   0  0  0  0  0  0  0  0  0  0  0  0
    4.6660   -0.7500    0.0000 N   0  0  0  0  0  0  0  0  0  0  0  0
    7.2641   -0.2500    0.0000 C   0  0  3  0  0  0  0  0  0  0  0  0
    8.1301   -0.7500    0.0000 C   0  0  0  0  0  0  0  0  0  0  0  0
    8.1301   -1.7500    0.0000 C   0  0  0  0  0  0  0  0  0  0  0  0
    8.9962   -0.2500    0.0000 C   0  0  0  0  0  0  0  0  0  0  0  0
    7.2641    0.7500    0.0000 C   0  0  0  0  0  0  0  0  0  0  0  0
    9.8622   -0.7500    0.0000 C   0  0  0  0  0  0  0  0  0  0  0  0
    5.5321   -0.2500    0.0000 C   0  0  0  0  0  0  0  0  0  0  0  0
    8.9962   -2.2500    0.0000 C   0  0  0  0  0  0  0  0  0  0  0  0
    3.8000    0.7500    0.0000 C   0  0  0  0  0  0  0  0  0  0  0  0
    4.6660    1.2500    0.0000 C   0  0  0  0  0  0  0  0  0  0  0  0
    9.8622   -1.7500    0.0000 C   0  0  0  0  0  0  0  0  0  0  0  0
    3.8000   -0.2500    0.0000 C   0  0  0  0  0  0  0  0  0  0  0  0
    7.2641   -2.2500    0.0000 C   0  0  0  0  0  0  0  0  0  0  0  0
    5.5321    0.7500    0.0000 C   0  0  0  0  0  0  0  0  0  0  0  0
   10.7282   -0.2500    0.0000 C   0  0  0  0  0  0  0  0  0  0  0  0
    2.9061    1.2847    0.0000 C   0  0  0  0  0  0  0  0  0  0  0  0
    4.6660    2.2500    0.0000 C   0  0  0  0  0  0  0  0  0  0  0  0
    2.9061   -0.7847    0.0000 C   0  0  0  0  0  0  0  0  0  0  0  0
    2.0000    0.7708    0.0000 C   0  0  0  0  0  0  0  0  0  0  0  0
    2.0000   -0.2708    0.0000 C   0  0  0  0  0  0  0  0  0  0  0  0
    6.7272    0.0600    0.0000 H   0  0  0  0  0  0  0  0  0  0  0  0
    8.9962    0.3700    0.0000 H   0  0  0  0  0  0  0  0  0  0  0  0
    7.8841    0.7500    0.0000 H   0  0  0  0  0  0  0  0  0  0  0  0
    7.2641    1.3700    0.0000 H   0  0  0  0  0  0  0  0  0  0  0  0
    6.6441    0.7500    0.0000 H   0  0  0  0  0  0  0  0  0  0  0  0
    8.9962   -2.8700    0.0000 H   0  0  0  0  0  0  0  0  0  0  0  0
   10.3991   -2.0600    0.0000 H   0  0  0  0  0  0  0  0  0  0  0  0
    6.0690    1.0600    0.0000 H   0  0  0  0  0  0  0  0  0  0  0  0
    6.9541   -1.7131    0.0000 H   0  0  0  0  0  0  0  0  0  0  0  0
    6.7272   -2.5600    0.0000 H   0  0  0  0  0  0  0  0  0  0  0  0
    7.5741   -2.7869    0.0000 H   0  0  0  0  0  0  0  0  0  0  0  0
   11.0382   -0.7869    0.0000 H   0  0  0  0  0  0  0  0  0  0  0  0
   11.2651    0.0600    0.0000 H   0  0  0  0  0  0  0  0  0  0  0  0
   10.4182    0.2869    0.0000 H   0  0  0  0  0  0  0  0  0  0  0  0
    2.9132    1.9046    0.0000 H   0  0  0  0  0  0  0  0  0  0  0  0
    5.2860    2.2500    0.0000 H   0  0  0  0  0  0  0  0  0  0  0  0
    4.6660    2.8700    0.0000 H   0  0  0  0  0  0  0  0  0  0  0  0
    4.0460    2.2500    0.0000 H   0  0  0  0  0  0  0  0  0  0  0  0
    2.9132   -1.4046    0.0000 H   0  0  0  0  0  0  0  0  0  0  0  0
    1.4643    1.0829    0.0000 H   0  0  0  0  0  0  0  0  0  0  0  0
    1.4643   -0.5829    0.0000 H   0  0  0  0  0  0  0  0  0  0  0  0
  1  3  1  0  0  0  0
  1  9  1  0  0  0  0
  2  9  2  0  0  0  0
  2 14  1  0  0  0  0
  3  4  1  0  0  0  0
  3  7  1  0  0  0  0
  3 23  1  0  0  0  0
  4  5  2  0  0  0  0
  4  6  1  0  0  0  0
  5 10  1  0  0  0  0
  5 15  1  0  0  0  0
  6  8  2  0  0  0  0
  6 24  1  0  0  0  0
  7 25  1  0  0  0  0
  7 26  1  0  0  0  0
  7 27  1  0  0  0  0
  8 13  1  0  0  0  0
  8 17  1  0  0  0  0
  9 16  1  0  0  0  0
 10 13  2  0  0  0  0
 10 28  1  0  0  0  0
 11 12  1  0  0  0  0
 11 14  1  0  0  0  0
 11 18  2  0  0  0  0
 12 16  2  0  0  0  0
 12 19  1  0  0  0  0
 13 29  1  0  0  0  0
 14 20  2  0  0  0  0
 15 31  1  0  0  0  0
 15 32  1  0  0  0  0
 15 33  1  0  0  0  0
 16 30  1  0  0  0  0
 17 34  1  0  0  0  0
 17 35  1  0  0  0  0
 17 36  1  0  0  0  0
 18 21  1  0  0  0  0
 18 37  1  0  0  0  0
 19 38  1  0  0  0  0
 19 39  1  0  0  0  0
 19 40  1  0  0  0  0
 20 22  1  0  0  0  0
 20 41  1  0  0  0  0
 21 22  2  0  0  0  0
 21 42  1  0  0  0  0
 22 43  1  0  0  0  0
M  END
> <PUBCHEM_COMPOUND_CID>
507306
> <PUBCHEM_COMPOUND_CANONICALIZED>
1
> <PUBCHEM_CACTVS_COMPLEXITY>
358
> <PUBCHEM_CACTVS_HBOND_ACCEPTOR>
2
> <PUBCHEM_CACTVS_HBOND_DONOR>
0
> <PUBCHEM_CACTVS_ROTATABLE_BOND>
3
> <PUBCHEM_CACTVS_SUBSKEYS>
AAADceB6AABAAAAAAAAAAAAAAAAAAAAAAAA8YIAAAAAAAACx9AAAHAQAAAAADAiFXgCywfIIEAigAyRiRACC0CBhCjAImDgwZJgIIOLgkZGEIAhggADoyAcQgMAOwAACAAASAACAAAQAACQAAAAAAAAAAA==
> <PUBCHEM_IUPAC_OPENEYE_NAME>
2-[1-(2,5-dimethylphenyl)ethylsulfanyl]-4-methyl-quinoline
> <PUBCHEM_IUPAC_CAS_NAME>
2-[1-(2,5-dimethylphenyl)ethylthio]-4-methylquinoline
> <PUBCHEM_IUPAC_NAME_MARKUP>
2-[1-(2,5-dimethylphenyl)ethylsulfanyl]-4-methylquinoline
> <PUBCHEM_IUPAC_NAME>
2-[1-(2,5-dimethylphenyl)ethylsulfanyl]-4-methylquinoline
> <PUBCHEM_IUPAC_SYSTEMATIC_NAME>
2-[1-(2,5-dimethylphenyl)ethylsulfanyl]-4-methyl-quinoline
> <PUBCHEM_IUPAC_TRADITIONAL_NAME>
2-[1-(2,5-dimethylphenyl)ethylthio]-4-methyl-quinoline
> <PUBCHEM_IUPAC_INCHI>
InChI=1S/C20H21NS/c1-13-9-10-14(2)18(11-13)16(4)22-20-12-15(3)17-7-5-6-8-19(17)21-20/h5-12,16H,1-4H3
> <PUBCHEM_IUPAC_INCHIKEY>
LAFFJYCRWZMNTE-UHFFFAOYSA-N
> <PUBCHEM_XLOGP3_AA>
6
> <PUBCHEM_EXACT_MASS>
307.13947085
> <PUBCHEM_MOLECULAR_FORMULA>
C20H21NS
> <PUBCHEM_MOLECULAR_WEIGHT>
307.5
> <PUBCHEM_OPENEYE_CAN_SMILES>
CC1=CC(=C(C=C1)C)C(C)SC2=NC3=CC=CC=C3C(=C2)C
> <PUBCHEM_OPENEYE_ISO_SMILES>
CC1=CC(=C(C=C1)C)C(C)SC2=NC3=CC=CC=C3C(=C2)C
> <PUBCHEM_CACTVS_TPSA>
38.2
> <PUBCHEM_MONOISOTOPIC_WEIGHT>
307.13947085
> <PUBCHEM_TOTAL_CHARGE>
0
> <PUBCHEM_HEAVY_ATOM_COUNT>
22
> <PUBCHEM_ATOM_DEF_STEREO_COUNT>
0
> <PUBCHEM_ATOM_UDEF_STEREO_COUNT>
1
> <PUBCHEM_BOND_DEF_STEREO_COUNT>
0
> <PUBCHEM_BOND_UDEF_STEREO_COUNT>
0
> <PUBCHEM_ISOTOPIC_ATOM_COUNT>
0
> <PUBCHEM_COMPONENT_COUNT>
1
> <PUBCHEM_CACTVS_TAUTO_COUNT>
-1
> <PUBCHEM_COORDINATE_TYPE>
1
5
255
> <PUBCHEM_BONDANNOTATIONS>
10  13  8
11  12  8
11  14  8
11  18  8
12  16  8
14  20  8
18  21  8
2  14  8
2  9  8
20  22  8
21  22  8
3  7  3
4  5  8
4  6  8
5  10  8
6  8  8
8  13  8
9  16  8
$$$$
