507400
  -OEChem-10302200282D
 98101  0     1  0  0  0  0  0999 V2000
   11.5263    1.0670    0.0000 O   0  0  0  0  0  0  0  0  0  0  0  0
    4.5981    3.0670    0.0000 O   0  0  0  0  0  0  0  0  0  0  0  0
    8.0622    1.0670    0.0000 O   0  0  0  0  0  0  0  0  0  0  0  0
    5.4641   -1.4330    0.0000 O   0  0  0  0  0  0  0  0  0  0  0  0
    7.1962   -1.4330    0.0000 O   0  0  0  0  0  0  0  0  0  0  0  0
    6.3301    1.0670    0.0000 O   0  0  0  0  0  0  0  0  0  0  0  0
    8.9282   -1.4330    0.0000 O   0  0  0  0  0  0  0  0  0  0  0  0
    3.7320   -0.4330    0.0000 O   0  0  0  0  0  0  0  0  0  0  0  0
   12.3923   -0.4330    0.0000 N   0  0  0  0  0  0  0  0  0  0  0  0
    2.8660    3.0670    0.0000 N   0  0  0  0  0  0  0  0  0  0  0  0
    9.7942    0.0670    0.0000 N   0  0  0  0  0  0  0  0  0  0  0  0
    4.5981    1.0670    0.0000 N   0  0  0  0  0  0  0  0  0  0  0  0
   13.2583    0.0670    0.0000 C   0  0  0  0  0  0  0  0  0  0  0  0
    2.8660    4.0670    0.0000 C   0  0  0  0  0  0  0  0  0  0  0  0
   13.7583    0.9330    0.0000 C   0  0  0  0  0  0  0  0  0  0  0  0
   14.2583    0.0670    0.0000 C   0  0  0  0  0  0  0  0  0  0  0  0
    3.3660    4.9330    0.0000 C   0  0  0  0  0  0  0  0  0  0  0  0
    2.3660    4.9330    0.0000 C   0  0  0  0  0  0  0  0  0  0  0  0
   11.5263    0.0670    0.0000 C   0  0  0  0  0  0  0  0  0  0  0  0
    3.7320    2.5670    0.0000 C   0  0  0  0  0  0  0  0  0  0  0  0
   10.6603   -0.4330    0.0000 C   0  0  2  0  0  0  0  0  0  0  0  0
    3.7320    1.5670    0.0000 C   0  0  3  0  0  0  0  0  0  0  0  0
   10.6603   -1.4330    0.0000 C   0  0  0  0  0  0  0  0  0  0  0  0
    2.8660    1.0670    0.0000 C   0  0  0  0  0  0  0  0  0  0  0  0
    7.1962   -0.4330    0.0000 C   0  0  2  0  0  0  0  0  0  0  0  0
    6.3301    0.0670    0.0000 C   0  0  2  0  0  0  0  0  0  0  0  0
    8.0622    0.0670    0.0000 C   0  0  2  0  0  0  0  0  0  0  0  0
    5.4641   -0.4330    0.0000 C   0  0  2  0  0  0  0  0  0  0  0  0
    8.9282   -0.4330    0.0000 C   0  0  0  0  0  0  0  0  0  0  0  0
    4.5981    0.0670    0.0000 C   0  0  0  0  0  0  0  0  0  0  0  0
   11.5263   -1.9330    0.0000 C   0  0  0  0  0  0  0  0  0  0  0  0
    9.7942   -1.9330    0.0000 C   0  0  0  0  0  0  0  0  0  0  0  0
    2.0000    1.5670    0.0000 C   0  0  0  0  0  0  0  0  0  0  0  0
    2.8660    0.0670    0.0000 C   0  0  0  0  0  0  0  0  0  0  0  0
    8.9282    1.5670    0.0000 C   0  0  0  0  0  0  0  0  0  0  0  0
    4.5981   -1.9330    0.0000 C   0  0  0  0  0  0  0  0  0  0  0  0
    8.9282    2.5670    0.0000 C   0  0  0  0  0  0  0  0  0  0  0  0
    4.5981   -2.9330    0.0000 C   0  0  0  0  0  0  0  0  0  0  0  0
    8.0622    3.0670    0.0000 C   0  0  0  0  0  0  0  0  0  0  0  0
    9.7942    3.0670    0.0000 C   0  0  0  0  0  0  0  0  0  0  0  0
    3.7320   -3.4330    0.0000 C   0  0  0  0  0  0  0  0  0  0  0  0
    5.4641   -3.4330    0.0000 C   0  0  0  0  0  0  0  0  0  0  0  0
    8.0622    4.0670    0.0000 C   0  0  0  0  0  0  0  0  0  0  0  0
    9.7942    4.0670    0.0000 C   0  0  0  0  0  0  0  0  0  0  0  0
    3.7320   -4.4330    0.0000 C   0  0  0  0  0  0  0  0  0  0  0  0
    5.4641   -4.4330    0.0000 C   0  0  0  0  0  0  0  0  0  0  0  0
    8.9282    4.5670    0.0000 C   0  0  0  0  0  0  0  0  0  0  0  0
    4.5981   -4.9330    0.0000 C   0  0  0  0  0  0  0  0  0  0  0  0
   13.4188   -0.5319    0.0000 H   0  0  0  0  0  0  0  0  0  0  0  0
    3.4649    3.9065    0.0000 H   0  0  0  0  0  0  0  0  0  0  0  0
   14.2333    1.3315    0.0000 H   0  0  0  0  0  0  0  0  0  0  0  0
   13.2834    1.3315    0.0000 H   0  0  0  0  0  0  0  0  0  0  0  0
   14.3660   -0.5436    0.0000 H   0  0  0  0  0  0  0  0  0  0  0  0
   14.8409    0.2790    0.0000 H   0  0  0  0  0  0  0  0  0  0  0  0
    3.9486    4.7210    0.0000 H   0  0  0  0  0  0  0  0  0  0  0  0
    3.4737    5.5436    0.0000 H   0  0  0  0  0  0  0  0  0  0  0  0
    2.2584    5.5436    0.0000 H   0  0  0  0  0  0  0  0  0  0  0  0
    1.7834    4.7210    0.0000 H   0  0  0  0  0  0  0  0  0  0  0  0
   12.3923   -1.0530    0.0000 H   0  0  0  0  0  0  0  0  0  0  0  0
    2.3291    2.7570    0.0000 H   0  0  0  0  0  0  0  0  0  0  0  0
   10.6603    0.1870    0.0000 H   0  0  0  0  0  0  0  0  0  0  0  0
    3.7320    0.9470    0.0000 H   0  0  0  0  0  0  0  0  0  0  0  0
   11.1972   -1.1230    0.0000 H   0  0  0  0  0  0  0  0  0  0  0  0
    2.8660    1.6870    0.0000 H   0  0  0  0  0  0  0  0  0  0  0  0
    9.7942    0.6870    0.0000 H   0  0  0  0  0  0  0  0  0  0  0  0
    5.1350    1.3770    0.0000 H   0  0  0  0  0  0  0  0  0  0  0  0
    6.6592   -0.7430    0.0000 H   0  0  0  0  0  0  0  0  0  0  0  0
    6.8671    0.3770    0.0000 H   0  0  0  0  0  0  0  0  0  0  0  0
    7.5252    0.3770    0.0000 H   0  0  0  0  0  0  0  0  0  0  0  0
    6.0010   -0.7430    0.0000 H   0  0  0  0  0  0  0  0  0  0  0  0
   11.2163   -2.4700    0.0000 H   0  0  0  0  0  0  0  0  0  0  0  0
   12.0632   -2.2430    0.0000 H   0  0  0  0  0  0  0  0  0  0  0  0
   11.8363   -1.3961    0.0000 H   0  0  0  0  0  0  0  0  0  0  0  0
    9.4842   -1.3961    0.0000 H   0  0  0  0  0  0  0  0  0  0  0  0
    9.2573   -2.2430    0.0000 H   0  0  0  0  0  0  0  0  0  0  0  0
   10.1042   -2.4700    0.0000 H   0  0  0  0  0  0  0  0  0  0  0  0
    2.3100    2.1039    0.0000 H   0  0  0  0  0  0  0  0  0  0  0  0
    1.4631    1.8770    0.0000 H   0  0  0  0  0  0  0  0  0  0  0  0
    1.6900    1.0300    0.0000 H   0  0  0  0  0  0  0  0  0  0  0  0
    2.2460    0.0670    0.0000 H   0  0  0  0  0  0  0  0  0  0  0  0
    2.8660   -0.5530    0.0000 H   0  0  0  0  0  0  0  0  0  0  0  0
    3.4860    0.0670    0.0000 H   0  0  0  0  0  0  0  0  0  0  0  0
    7.7331   -1.7430    0.0000 H   0  0  0  0  0  0  0  0  0  0  0  0
    6.8671    1.3770    0.0000 H   0  0  0  0  0  0  0  0  0  0  0  0
    9.1403    0.9844    0.0000 H   0  0  0  0  0  0  0  0  0  0  0  0
    9.5388    1.6746    0.0000 H   0  0  0  0  0  0  0  0  0  0  0  0
    4.3860   -1.3504    0.0000 H   0  0  0  0  0  0  0  0  0  0  0  0
    3.9875   -2.0407    0.0000 H   0  0  0  0  0  0  0  0  0  0  0  0
    7.5252    2.7570    0.0000 H   0  0  0  0  0  0  0  0  0  0  0  0
   10.3312    2.7570    0.0000 H   0  0  0  0  0  0  0  0  0  0  0  0
    3.1951   -3.1230    0.0000 H   0  0  0  0  0  0  0  0  0  0  0  0
    6.0010   -3.1230    0.0000 H   0  0  0  0  0  0  0  0  0  0  0  0
    7.5252    4.3770    0.0000 H   0  0  0  0  0  0  0  0  0  0  0  0
   10.3312    4.3770    0.0000 H   0  0  0  0  0  0  0  0  0  0  0  0
    3.1951   -4.7430    0.0000 H   0  0  0  0  0  0  0  0  0  0  0  0
    6.0010   -4.7430    0.0000 H   0  0  0  0  0  0  0  0  0  0  0  0
    8.9282    5.1870    0.0000 H   0  0  0  0  0  0  0  0  0  0  0  0
    4.5981   -5.5530    0.0000 H   0  0  0  0  0  0  0  0  0  0  0  0
  1 19  2  0  0  0  0
  2 20  2  0  0  0  0
 27  3  1  1  0  0  0
  3 35  1  0  0  0  0
 28  4  1  1  0  0  0
  4 36  1  0  0  0  0
 25  5  1  6  0  0  0
  5 83  1  0  0  0  0
 26  6  1  6  0  0  0
  6 84  1  0  0  0  0
  7 29  2  0  0  0  0
  8 30  2  0  0  0  0
  9 13  1  0  0  0  0
  9 19  1  0  0  0  0
  9 59  1  0  0  0  0
 10 14  1  0  0  0  0
 10 20  1  0  0  0  0
 10 60  1  0  0  0  0
 21 11  1  6  0  0  0
 11 29  1  0  0  0  0
 11 65  1  0  0  0  0
 12 22  1  0  0  0  0
 12 30  1  0  0  0  0
 12 66  1  0  0  0  0
 13 15  1  0  0  0  0
 13 16  1  0  0  0  0
 13 49  1  0  0  0  0
 14 17  1  0  0  0  0
 14 18  1  0  0  0  0
 14 50  1  0  0  0  0
 15 16  1  0  0  0  0
 15 51  1  0  0  0  0
 15 52  1  0  0  0  0
 16 53  1  0  0  0  0
 16 54  1  0  0  0  0
 17 18  1  0  0  0  0
 17 55  1  0  0  0  0
 17 56  1  0  0  0  0
 18 57  1  0  0  0  0
 18 58  1  0  0  0  0
 19 21  1  0  0  0  0
 20 22  1  0  0  0  0
 21 23  1  0  0  0  0
 21 61  1  0  0  0  0
 22 24  1  0  0  0  0
 22 62  1  0  0  0  0
 23 31  1  0  0  0  0
 23 32  1  0  0  0  0
 23 63  1  0  0  0  0
 24 33  1  0  0  0  0
 24 34  1  0  0  0  0
 24 64  1  0  0  0  0
 25 26  1  0  0  0  0
 25 27  1  0  0  0  0
 25 67  1  0  0  0  0
 26 28  1  0  0  0  0
 26 68  1  0  0  0  0
 27 29  1  0  0  0  0
 27 69  1  0  0  0  0
 28 30  1  0  0  0  0
 28 70  1  0  0  0  0
 31 71  1  0  0  0  0
 31 72  1  0  0  0  0
 31 73  1  0  0  0  0
 32 74  1  0  0  0  0
 32 75  1  0  0  0  0
 32 76  1  0  0  0  0
 33 77  1  0  0  0  0
 33 78  1  0  0  0  0
 33 79  1  0  0  0  0
 34 80  1  0  0  0  0
 34 81  1  0  0  0  0
 34 82  1  0  0  0  0
 35 37  1  0  0  0  0
 35 85  1  0  0  0  0
 35 86  1  0  0  0  0
 36 38  1  0  0  0  0
 36 87  1  0  0  0  0
 36 88  1  0  0  0  0
 37 39  2  0  0  0  0
 37 40  1  0  0  0  0
 38 41  2  0  0  0  0
 38 42  1  0  0  0  0
 39 43  1  0  0  0  0
 39 89  1  0  0  0  0
 40 44  2  0  0  0  0
 40 90  1  0  0  0  0
 41 45  1  0  0  0  0
 41 91  1  0  0  0  0
 42 46  2  0  0  0  0
 42 92  1  0  0  0  0
 43 47  2  0  0  0  0
 43 93  1  0  0  0  0
 44 47  1  0  0  0  0
 44 94  1  0  0  0  0
 45 48  2  0  0  0  0
 45 95  1  0  0  0  0
 46 48  1  0  0  0  0
 46 96  1  0  0  0  0
 47 97  1  0  0  0  0
 48 98  1  0  0  0  0
M  END
> <PUBCHEM_COMPOUND_CID>
507400
> <PUBCHEM_COMPOUND_CANONICALIZED>
1
> <PUBCHEM_CACTVS_COMPLEXITY>
971
> <PUBCHEM_CACTVS_HBOND_ACCEPTOR>
8
> <PUBCHEM_CACTVS_HBOND_DONOR>
6
> <PUBCHEM_CACTVS_ROTATABLE_BOND>
19
> <PUBCHEM_CACTVS_SUBSKEYS>
AAADcfB/vAAAAAAAAAAAAAAAGDAAAAAAAAAwYAAAAAAAAAABQAAAHgAQCAAADTzhmAYyAILABgCIAiFSEAICAAAgAAAIiIHICIgLdjaAsTyXcAAn9gGbqAf63CJOAAAAAAAAAAAAAAAAAAAAAAAAAAAAAA==
> <PUBCHEM_IUPAC_OPENEYE_NAME>
(2R,3R,4R,5R)-2,5-dibenzyloxy-N-[(1S)-1-(cyclopropylcarbamoyl)-2-methyl-propyl]-N'-[1-(cyclopropylcarbamoyl)-2-methyl-propyl]-3,4-dihydroxy-hexanediamide
> <PUBCHEM_IUPAC_CAS_NAME>
(2R,3R,4R,5R)-N-[1-(cyclopropylamino)-3-methyl-1-oxobutan-2-yl]-N'-[(2S)-1-(cyclopropylamino)-3-methyl-1-oxobutan-2-yl]-3,4-dihydroxy-2,5-bis(phenylmethoxy)hexanediamide
> <PUBCHEM_IUPAC_NAME_MARKUP>
(2<I>R</I>,3<I>R</I>,4<I>R</I>,5<I>R</I>)-<I>N</I>-[1-(cyclopropylamino)-3-methyl-1-oxobutan-2-yl]-<I>N</I>&apos;-[(2<I>S</I>)-1-(cyclopropylamino)-3-methyl-1-oxobutan-2-yl]-3,4-dihydroxy-2,5-bis(phenylmethoxy)hexanediamide
> <PUBCHEM_IUPAC_NAME>
(2R,3R,4R,5R)-N-[1-(cyclopropylamino)-3-methyl-1-oxobutan-2-yl]-N'-[(2S)-1-(cyclopropylamino)-3-methyl-1-oxobutan-2-yl]-3,4-dihydroxy-2,5-bis(phenylmethoxy)hexanediamide
> <PUBCHEM_IUPAC_SYSTEMATIC_NAME>
(2R,3R,4R,5R)-N-[1-(cyclopropylamino)-3-methyl-1-oxidanylidene-butan-2-yl]-N'-[(2S)-1-(cyclopropylamino)-3-methyl-1-oxidanylidene-butan-2-yl]-3,4-bis(oxidanyl)-2,5-bis(phenylmethoxy)hexanediamide
> <PUBCHEM_IUPAC_TRADITIONAL_NAME>
(2R,3R,4R,5R)-2,5-dibenzoxy-N-[(1S)-1-(cyclopropylcarbamoyl)-2-methyl-propyl]-N'-[1-(cyclopropylcarbamoyl)-2-methyl-propyl]-3,4-dihydroxy-adipamide
> <PUBCHEM_IUPAC_INCHI>
InChI=1S/C36H50N4O8/c1-21(2)27(33(43)37-25-15-16-25)39-35(45)31(47-19-23-11-7-5-8-12-23)29(41)30(42)32(48-20-24-13-9-6-10-14-24)36(46)40-28(22(3)4)34(44)38-26-17-18-26/h5-14,21-22,25-32,41-42H,15-20H2,1-4H3,(H,37,43)(H,38,44)(H,39,45)(H,40,46)/t27-,28?,29+,30+,31+,32+/m0/s1
> <PUBCHEM_IUPAC_INCHIKEY>
HZUNCIXFNCNSSU-RZPFDTRGSA-N
> <PUBCHEM_XLOGP3_AA>
3
> <PUBCHEM_EXACT_MASS>
666.36286457
> <PUBCHEM_MOLECULAR_FORMULA>
C36H50N4O8
> <PUBCHEM_MOLECULAR_WEIGHT>
666.8
> <PUBCHEM_OPENEYE_CAN_SMILES>
CC(C)C(C(=O)NC1CC1)NC(=O)C(C(C(C(C(=O)NC(C(C)C)C(=O)NC2CC2)OCC3=CC=CC=C3)O)O)OCC4=CC=CC=C4
> <PUBCHEM_OPENEYE_ISO_SMILES>
CC(C)[C@@H](C(=O)NC1CC1)NC(=O)[C@@H]([C@@H]([C@H]([C@H](C(=O)NC(C(C)C)C(=O)NC2CC2)OCC3=CC=CC=C3)O)O)OCC4=CC=CC=C4
> <PUBCHEM_CACTVS_TPSA>
175
> <PUBCHEM_MONOISOTOPIC_WEIGHT>
666.36286457
> <PUBCHEM_TOTAL_CHARGE>
0
> <PUBCHEM_HEAVY_ATOM_COUNT>
48
> <PUBCHEM_ATOM_DEF_STEREO_COUNT>
5
> <PUBCHEM_ATOM_UDEF_STEREO_COUNT>
1
> <PUBCHEM_BOND_DEF_STEREO_COUNT>
0
> <PUBCHEM_BOND_UDEF_STEREO_COUNT>
0
> <PUBCHEM_ISOTOPIC_ATOM_COUNT>
0
> <PUBCHEM_COMPONENT_COUNT>
1
> <PUBCHEM_CACTVS_TAUTO_COUNT>
-1
> <PUBCHEM_COORDINATE_TYPE>
1
5
255
> <PUBCHEM_BONDANNOTATIONS>
21  11  6
22  24  3
27  3  5
37  39  8
37  40  8
38  41  8
38  42  8
39  43  8
28  4  5
40  44  8
41  45  8
42  46  8
43  47  8
44  47  8
45  48  8
46  48  8
25  5  6
26  6  6
$$$$
