507455
  -OEChem-10302200282D
 90 90  0     1  0  0  0  0  0999 V2000
    4.5981    1.8100    0.0000 S   0  0  0  0  0  0  0  0  0  0  0  0
    5.4641    2.3100    0.0000 O   0  0  0  0  0  0  0  0  0  0  0  0
    5.4641    3.3100    0.0000 O   0  0  0  0  0  0  0  0  0  0  0  0
    4.5981    6.8100    0.0000 O   0  0  0  0  0  0  0  0  0  0  0  0
    6.3301   -1.1900    0.0000 O   0  0  0  0  0  0  0  0  0  0  0  0
    8.0622    7.8100    0.0000 O   0  0  0  0  0  0  0  0  0  0  0  0
    6.3301    6.8100    0.0000 O   0  0  0  0  0  0  0  0  0  0  0  0
    8.9282    6.3100    0.0000 O   0  0  0  0  0  0  0  0  0  0  0  0
    2.0000   -8.6900    0.0000 O   0  0  0  0  0  0  0  0  0  0  0  0
    3.7320   -8.6900    0.0000 O   0  0  0  0  0  0  0  0  0  0  0  0
    7.1962    3.3100    0.0000 N   0  0  0  0  0  0  0  0  0  0  0  0
    6.3301    0.8100    0.0000 N   0  0  0  0  0  0  0  0  0  0  0  0
    5.4641    5.3100    0.0000 N   0  0  0  0  0  0  0  0  0  0  0  0
    4.5981   -1.1900    0.0000 N   0  0  0  0  0  0  0  0  0  0  0  0
    8.0622    1.8100    0.0000 C   0  0  0  0  0  0  0  0  0  0  0  0
    7.1962    2.3100    0.0000 C   0  0  1  0  0  0  0  0  0  0  0  0
    8.9282    2.3100    0.0000 C   0  0  0  0  0  0  0  0  0  0  0  0
    6.3301    1.8100    0.0000 C   0  0  0  0  0  0  0  0  0  0  0  0
    6.3301    4.8100    0.0000 C   0  0  2  0  0  0  0  0  0  0  0  0
    9.7942    1.8100    0.0000 C   0  0  0  0  0  0  0  0  0  0  0  0
    8.9282    3.3100    0.0000 C   0  0  0  0  0  0  0  0  0  0  0  0
    6.3301    3.8100    0.0000 C   0  0  0  0  0  0  0  0  0  0  0  0
    7.1962    5.3100    0.0000 C   0  0  0  0  0  0  0  0  0  0  0  0
    5.4641    0.3100    0.0000 C   0  0  1  0  0  0  0  0  0  0  0  0
    7.1962    6.3100    0.0000 C   0  0  0  0  0  0  0  0  0  0  0  0
    4.5981    0.8100    0.0000 C   0  0  0  0  0  0  0  0  0  0  0  0
    5.4641   -0.6900    0.0000 C   0  0  0  0  0  0  0  0  0  0  0  0
    4.5981   -2.1900    0.0000 C   0  0  0  0  0  0  0  0  0  0  0  0
    3.7320   -2.6900    0.0000 C   0  0  0  0  0  0  0  0  0  0  0  0
    5.4641    6.3100    0.0000 C   0  0  0  0  0  0  0  0  0  0  0  0
    8.0622    6.8100    0.0000 C   0  0  0  0  0  0  0  0  0  0  0  0
    3.7320   -3.6900    0.0000 C   0  0  0  0  0  0  0  0  0  0  0  0
    3.7320    8.3100    0.0000 C   0  0  0  0  0  0  0  0  0  0  0  0
    4.5981    7.8100    0.0000 C   0  0  0  0  0  0  0  0  0  0  0  0
    2.8660   -4.1900    0.0000 C   0  0  0  0  0  0  0  0  0  0  0  0
    4.5981   -4.1900    0.0000 C   0  0  0  0  0  0  0  0  0  0  0  0
    3.7320   -5.6900    0.0000 C   0  0  0  0  0  0  0  0  0  0  0  0
    2.8660   -5.1900    0.0000 C   0  0  0  0  0  0  0  0  0  0  0  0
    4.5981   -5.1900    0.0000 C   0  0  0  0  0  0  0  0  0  0  0  0
    3.7320   -6.6900    0.0000 C   0  0  0  0  0  0  0  0  0  0  0  0
    3.7320    9.3100    0.0000 C   0  0  0  0  0  0  0  0  0  0  0  0
    2.8660    7.8100    0.0000 C   0  0  0  0  0  0  0  0  0  0  0  0
    2.8660   -7.1900    0.0000 C   0  0  0  0  0  0  0  0  0  0  0  0
    2.8660   -8.1900    0.0000 C   0  0  0  0  0  0  0  0  0  0  0  0
    7.6636    1.3350    0.0000 H   0  0  0  0  0  0  0  0  0  0  0  0
    8.4607    1.3350    0.0000 H   0  0  0  0  0  0  0  0  0  0  0  0
    6.6592    2.6200    0.0000 H   0  0  0  0  0  0  0  0  0  0  0  0
    9.4651    2.6200    0.0000 H   0  0  0  0  0  0  0  0  0  0  0  0
    7.7331    3.6200    0.0000 H   0  0  0  0  0  0  0  0  0  0  0  0
    5.7932    4.5000    0.0000 H   0  0  0  0  0  0  0  0  0  0  0  0
    9.4842    1.2731    0.0000 H   0  0  0  0  0  0  0  0  0  0  0  0
   10.3312    1.5000    0.0000 H   0  0  0  0  0  0  0  0  0  0  0  0
   10.1042    2.3469    0.0000 H   0  0  0  0  0  0  0  0  0  0  0  0
    9.5482    3.3100    0.0000 H   0  0  0  0  0  0  0  0  0  0  0  0
    8.9282    3.9300    0.0000 H   0  0  0  0  0  0  0  0  0  0  0  0
    8.3082    3.3100    0.0000 H   0  0  0  0  0  0  0  0  0  0  0  0
    7.4082    4.7274    0.0000 H   0  0  0  0  0  0  0  0  0  0  0  0
    7.8067    5.4177    0.0000 H   0  0  0  0  0  0  0  0  0  0  0  0
    5.4641    0.9300    0.0000 H   0  0  0  0  0  0  0  0  0  0  0  0
    6.8671    0.5000    0.0000 H   0  0  0  0  0  0  0  0  0  0  0  0
    4.9272    5.0000    0.0000 H   0  0  0  0  0  0  0  0  0  0  0  0
    6.9841    6.8926    0.0000 H   0  0  0  0  0  0  0  0  0  0  0  0
    6.5856    6.2023    0.0000 H   0  0  0  0  0  0  0  0  0  0  0  0
    3.9875    0.9177    0.0000 H   0  0  0  0  0  0  0  0  0  0  0  0
    4.3860    0.2274    0.0000 H   0  0  0  0  0  0  0  0  0  0  0  0
    4.0611   -0.8800    0.0000 H   0  0  0  0  0  0  0  0  0  0  0  0
    4.8101   -2.7726    0.0000 H   0  0  0  0  0  0  0  0  0  0  0  0
    5.2087   -2.0823    0.0000 H   0  0  0  0  0  0  0  0  0  0  0  0
    3.5200   -2.1074    0.0000 H   0  0  0  0  0  0  0  0  0  0  0  0
    3.1215   -2.7977    0.0000 H   0  0  0  0  0  0  0  0  0  0  0  0
    4.2690    8.6200    0.0000 H   0  0  0  0  0  0  0  0  0  0  0  0
    5.2087    7.7023    0.0000 H   0  0  0  0  0  0  0  0  0  0  0  0
    4.8101    8.3926    0.0000 H   0  0  0  0  0  0  0  0  0  0  0  0
    4.0611    2.1200    0.0000 H   0  0  0  0  0  0  0  0  0  0  0  0
    2.3291   -3.8800    0.0000 H   0  0  0  0  0  0  0  0  0  0  0  0
    5.1350   -3.8800    0.0000 H   0  0  0  0  0  0  0  0  0  0  0  0
    2.3291   -5.5000    0.0000 H   0  0  0  0  0  0  0  0  0  0  0  0
    5.1350   -5.5000    0.0000 H   0  0  0  0  0  0  0  0  0  0  0  0
    3.9441   -7.2726    0.0000 H   0  0  0  0  0  0  0  0  0  0  0  0
    4.3426   -6.5823    0.0000 H   0  0  0  0  0  0  0  0  0  0  0  0
    4.3520    9.3100    0.0000 H   0  0  0  0  0  0  0  0  0  0  0  0
    3.7320    9.9300    0.0000 H   0  0  0  0  0  0  0  0  0  0  0  0
    3.1120    9.3100    0.0000 H   0  0  0  0  0  0  0  0  0  0  0  0
    2.5560    8.3469    0.0000 H   0  0  0  0  0  0  0  0  0  0  0  0
    2.3291    7.5000    0.0000 H   0  0  0  0  0  0  0  0  0  0  0  0
    3.1760    7.2731    0.0000 H   0  0  0  0  0  0  0  0  0  0  0  0
    2.6540   -6.6074    0.0000 H   0  0  0  0  0  0  0  0  0  0  0  0
    2.2554   -7.2977    0.0000 H   0  0  0  0  0  0  0  0  0  0  0  0
    8.5991    8.1200    0.0000 H   0  0  0  0  0  0  0  0  0  0  0  0
    2.0000   -9.3100    0.0000 H   0  0  0  0  0  0  0  0  0  0  0  0
  1 26  1  0  0  0  0
  1 74  1  0  0  0  0
  2 18  2  0  0  0  0
  3 22  2  0  0  0  0
  4 30  1  0  0  0  0
  4 34  1  0  0  0  0
  5 27  2  0  0  0  0
  6 31  1  0  0  0  0
  6 89  1  0  0  0  0
  7 30  2  0  0  0  0
  8 31  2  0  0  0  0
  9 44  1  0  0  0  0
  9 90  1  0  0  0  0
 10 44  2  0  0  0  0
 16 11  1  1  0  0  0
 11 22  1  0  0  0  0
 11 49  1  0  0  0  0
 12 18  1  0  0  0  0
 24 12  1  6  0  0  0
 12 60  1  0  0  0  0
 19 13  1  1  0  0  0
 13 30  1  0  0  0  0
 13 61  1  0  0  0  0
 14 27  1  0  0  0  0
 14 28  1  0  0  0  0
 14 66  1  0  0  0  0
 15 16  1  0  0  0  0
 15 17  1  0  0  0  0
 15 45  1  0  0  0  0
 15 46  1  0  0  0  0
 16 18  1  0  0  0  0
 16 47  1  0  0  0  0
 17 20  1  0  0  0  0
 17 21  1  0  0  0  0
 17 48  1  0  0  0  0
 19 22  1  0  0  0  0
 19 23  1  0  0  0  0
 19 50  1  0  0  0  0
 20 51  1  0  0  0  0
 20 52  1  0  0  0  0
 20 53  1  0  0  0  0
 21 54  1  0  0  0  0
 21 55  1  0  0  0  0
 21 56  1  0  0  0  0
 23 25  1  0  0  0  0
 23 57  1  0  0  0  0
 23 58  1  0  0  0  0
 24 26  1  0  0  0  0
 24 27  1  0  0  0  0
 24 59  1  0  0  0  0
 25 31  1  0  0  0  0
 25 62  1  0  0  0  0
 25 63  1  0  0  0  0
 26 64  1  0  0  0  0
 26 65  1  0  0  0  0
 28 29  1  0  0  0  0
 28 67  1  0  0  0  0
 28 68  1  0  0  0  0
 29 32  1  0  0  0  0
 29 69  1  0  0  0  0
 29 70  1  0  0  0  0
 32 35  2  0  0  0  0
 32 36  1  0  0  0  0
 33 34  1  0  0  0  0
 33 41  1  0  0  0  0
 33 42  1  0  0  0  0
 33 71  1  0  0  0  0
 34 72  1  0  0  0  0
 34 73  1  0  0  0  0
 35 38  1  0  0  0  0
 35 75  1  0  0  0  0
 36 39  2  0  0  0  0
 36 76  1  0  0  0  0
 37 38  2  0  0  0  0
 37 39  1  0  0  0  0
 37 40  1  0  0  0  0
 38 77  1  0  0  0  0
 39 78  1  0  0  0  0
 40 43  1  0  0  0  0
 40 79  1  0  0  0  0
 40 80  1  0  0  0  0
 41 81  1  0  0  0  0
 41 82  1  0  0  0  0
 41 83  1  0  0  0  0
 42 84  1  0  0  0  0
 42 85  1  0  0  0  0
 42 86  1  0  0  0  0
 43 44  1  0  0  0  0
 43 87  1  0  0  0  0
 43 88  1  0  0  0  0
M  END
> <PUBCHEM_COMPOUND_CID>
507455
> <PUBCHEM_COMPOUND_CANONICALIZED>
1
> <PUBCHEM_CACTVS_COMPLEXITY>
955
> <PUBCHEM_CACTVS_HBOND_ACCEPTOR>
10
> <PUBCHEM_CACTVS_HBOND_DONOR>
7
> <PUBCHEM_CACTVS_ROTATABLE_BOND>
21
> <PUBCHEM_CACTVS_SUBSKEYS>
AAADcfB7vABAAAAAAAAAAAAAAAAAAAAAAAAwAAAAAAAAAAABAAAAHgQQCAAADSjl2AayCILABgSIAiHSGAACAAAgAAAIiIGIAIkIYDKAkTGcYAAklgCIiAe83+KOQAAAAAAAAACAAAAAAAAAAAAAAAAAAA==
> <PUBCHEM_IUPAC_OPENEYE_NAME>
(4S)-5-[[(1S)-1-[[(1R)-2-[2-[4-(2-carboxyethyl)phenyl]ethylamino]-2-oxo-1-(sulfanylmethyl)ethyl]carbamoyl]-3-methyl-butyl]amino]-4-(isobutoxycarbonylamino)-5-oxo-pentanoic acid
> <PUBCHEM_IUPAC_CAS_NAME>
(4S)-5-[[(2S)-1-[[(2R)-1-[2-[4-(2-carboxyethyl)phenyl]ethylamino]-3-mercapto-1-oxopropan-2-yl]amino]-4-methyl-1-oxopentan-2-yl]amino]-4-[[2-methylpropoxy(oxo)methyl]amino]-5-oxopentanoic acid
> <PUBCHEM_IUPAC_NAME_MARKUP>
(4<I>S</I>)-5-[[(2<I>S</I>)-1-[[(2<I>R</I>)-1-[2-[4-(2-carboxyethyl)phenyl]ethylamino]-1-oxo-3-sulfanylpropan-2-yl]amino]-4-methyl-1-oxopentan-2-yl]amino]-4-(2-methylpropoxycarbonylamino)-5-oxopentanoic acid
> <PUBCHEM_IUPAC_NAME>
(4S)-5-[[(2S)-1-[[(2R)-1-[2-[4-(2-carboxyethyl)phenyl]ethylamino]-1-oxo-3-sulfanylpropan-2-yl]amino]-4-methyl-1-oxopentan-2-yl]amino]-4-(2-methylpropoxycarbonylamino)-5-oxopentanoic acid
> <PUBCHEM_IUPAC_SYSTEMATIC_NAME>
(4S)-5-[[(2S)-1-[[(2R)-1-[2-[4-(3-hydroxy-3-oxopropyl)phenyl]ethylamino]-1-oxidanylidene-3-sulfanyl-propan-2-yl]amino]-4-methyl-1-oxidanylidene-pentan-2-yl]amino]-4-(2-methylpropoxycarbonylamino)-5-oxidanylidene-pentanoic acid
> <PUBCHEM_IUPAC_TRADITIONAL_NAME>
(4S)-5-[[(1S)-1-[[(1R)-2-[2-[4-(2-carboxyethyl)phenyl]ethylamino]-2-keto-1-(mercaptomethyl)ethyl]carbamoyl]-3-methyl-butyl]amino]-4-(isobutoxycarbonylamino)-5-keto-valeric acid
> <PUBCHEM_IUPAC_INCHI>
InChI=1S/C30H46N4O9S/c1-18(2)15-23(32-28(40)22(10-12-26(37)38)34-30(42)43-16-19(3)4)29(41)33-24(17-44)27(39)31-14-13-21-7-5-20(6-8-21)9-11-25(35)36/h5-8,18-19,22-24,44H,9-17H2,1-4H3,(H,31,39)(H,32,40)(H,33,41)(H,34,42)(H,35,36)(H,37,38)/t22-,23-,24-/m0/s1
> <PUBCHEM_IUPAC_INCHIKEY>
GFABQCQXCYPYFN-HJOGWXRNSA-N
> <PUBCHEM_XLOGP3_AA>
3
> <PUBCHEM_EXACT_MASS>
638.29855023
> <PUBCHEM_MOLECULAR_FORMULA>
C30H46N4O9S
> <PUBCHEM_MOLECULAR_WEIGHT>
638.8
> <PUBCHEM_OPENEYE_CAN_SMILES>
CC(C)CC(C(=O)NC(CS)C(=O)NCCC1=CC=C(C=C1)CCC(=O)O)NC(=O)C(CCC(=O)O)NC(=O)OCC(C)C
> <PUBCHEM_OPENEYE_ISO_SMILES>
CC(C)C[C@@H](C(=O)N[C@@H](CS)C(=O)NCCC1=CC=C(C=C1)CCC(=O)O)NC(=O)[C@H](CCC(=O)O)NC(=O)OCC(C)C
> <PUBCHEM_CACTVS_TPSA>
201
> <PUBCHEM_MONOISOTOPIC_WEIGHT>
638.29855023
> <PUBCHEM_TOTAL_CHARGE>
0
> <PUBCHEM_HEAVY_ATOM_COUNT>
44
> <PUBCHEM_ATOM_DEF_STEREO_COUNT>
3
> <PUBCHEM_ATOM_UDEF_STEREO_COUNT>
0
> <PUBCHEM_BOND_DEF_STEREO_COUNT>
0
> <PUBCHEM_BOND_UDEF_STEREO_COUNT>
0
> <PUBCHEM_ISOTOPIC_ATOM_COUNT>
0
> <PUBCHEM_COMPONENT_COUNT>
1
> <PUBCHEM_CACTVS_TAUTO_COUNT>
-1
> <PUBCHEM_COORDINATE_TYPE>
1
5
255
> <PUBCHEM_BONDANNOTATIONS>
16  11  5
24  12  6
19  13  5
32  35  8
32  36  8
35  38  8
36  39  8
37  38  8
37  39  8
$$$$
