507407
  -OEChem-10302200282D
130133  0     1  0  0  0  0  0999 V2000
    6.3301   -1.2500    0.0000 O   0  0  0  0  0  0  0  0  0  0  0  0
    8.9282    1.2500    0.0000 O   0  0  0  0  0  0  0  0  0  0  0  0
    7.1962    1.2500    0.0000 O   0  0  0  0  0  0  0  0  0  0  0  0
    8.0622   -1.2500    0.0000 O   0  0  0  0  0  0  0  0  0  0  0  0
    4.5981   -0.2500    0.0000 O   0  0  0  0  0  0  0  0  0  0  0  0
    9.7942   -1.2500    0.0000 O   0  0  0  0  0  0  0  0  0  0  0  0
    5.4641    3.2500    0.0000 O   0  0  0  0  0  0  0  0  0  0  0  0
   12.3923    1.2500    0.0000 O   0  0  0  0  0  0  0  0  0  0  0  0
    3.7320   -5.7500    0.0000 O   0  0  0  0  0  0  0  0  0  0  0  0
    8.0622    5.7500    0.0000 O   0  0  0  0  0  0  0  0  0  0  0  0
    3.7320   -7.7500    0.0000 O   0  0  0  0  0  0  0  0  0  0  0  0
    8.0622    7.7500    0.0000 O   0  0  0  0  0  0  0  0  0  0  0  0
    5.4641    1.2500    0.0000 N   0  0  0  0  0  0  0  0  0  0  0  0
   10.6603    0.2500    0.0000 N   0  0  0  0  0  0  0  0  0  0  0  0
    3.7320    3.2500    0.0000 N   0  0  0  0  0  0  0  0  0  0  0  0
   13.2583   -0.2500    0.0000 N   0  0  0  0  0  0  0  0  0  0  0  0
    7.1962    0.2500    0.0000 C   0  0  2  0  0  0  0  0  0  0  0  0
    8.0622   -0.2500    0.0000 C   0  0  2  0  0  0  0  0  0  0  0  0
    6.3301   -0.2500    0.0000 C   0  0  2  0  0  0  0  0  0  0  0  0
    8.9282    0.2500    0.0000 C   0  0  2  0  0  0  0  0  0  0  0  0
    4.5981    1.7500    0.0000 C   0  0  1  0  0  0  0  0  0  0  0  0
   11.5263   -0.2500    0.0000 C   0  0  1  0  0  0  0  0  0  0  0  0
    5.4641    0.2500    0.0000 C   0  0  0  0  0  0  0  0  0  0  0  0
    9.7942   -0.2500    0.0000 C   0  0  0  0  0  0  0  0  0  0  0  0
    3.7320    1.2500    0.0000 C   0  0  0  0  0  0  0  0  0  0  0  0
   11.5263   -1.2500    0.0000 C   0  0  0  0  0  0  0  0  0  0  0  0
    5.4641   -1.7500    0.0000 C   0  0  0  0  0  0  0  0  0  0  0  0
    9.7942    1.7500    0.0000 C   0  0  0  0  0  0  0  0  0  0  0  0
    2.8660    1.7500    0.0000 C   0  0  0  0  0  0  0  0  0  0  0  0
    3.7320    0.2500    0.0000 C   0  0  0  0  0  0  0  0  0  0  0  0
   12.3923   -1.7500    0.0000 C   0  0  0  0  0  0  0  0  0  0  0  0
   10.6603   -1.7500    0.0000 C   0  0  0  0  0  0  0  0  0  0  0  0
    4.5981    2.7500    0.0000 C   0  0  0  0  0  0  0  0  0  0  0  0
   12.3923    0.2500    0.0000 C   0  0  0  0  0  0  0  0  0  0  0  0
    5.4641   -2.7500    0.0000 C   0  0  0  0  0  0  0  0  0  0  0  0
    9.7942    2.7500    0.0000 C   0  0  0  0  0  0  0  0  0  0  0  0
    6.3301   -6.2500    0.0000 C   0  0  0  0  0  0  0  0  0  0  0  0
   10.6603    6.2500    0.0000 C   0  0  0  0  0  0  0  0  0  0  0  0
    5.4641   -5.7500    0.0000 C   0  0  0  0  0  0  0  0  0  0  0  0
    9.7942    5.7500    0.0000 C   0  0  0  0  0  0  0  0  0  0  0  0
    6.3301   -7.2500    0.0000 C   0  0  0  0  0  0  0  0  0  0  0  0
   10.6603    7.2500    0.0000 C   0  0  0  0  0  0  0  0  0  0  0  0
    5.4641   -4.7500    0.0000 C   0  0  0  0  0  0  0  0  0  0  0  0
    9.7942    4.7500    0.0000 C   0  0  0  0  0  0  0  0  0  0  0  0
    5.4641   -7.7500    0.0000 C   0  0  0  0  0  0  0  0  0  0  0  0
    9.7942    7.7500    0.0000 C   0  0  0  0  0  0  0  0  0  0  0  0
    4.5981   -6.2500    0.0000 C   0  0  0  0  0  0  0  0  0  0  0  0
    8.9282    6.2500    0.0000 C   0  0  0  0  0  0  0  0  0  0  0  0
    4.5981   -3.2500    0.0000 C   0  0  0  0  0  0  0  0  0  0  0  0
    6.3301   -3.2500    0.0000 C   0  0  0  0  0  0  0  0  0  0  0  0
    8.9282    3.2500    0.0000 C   0  0  0  0  0  0  0  0  0  0  0  0
   10.6603    3.2500    0.0000 C   0  0  0  0  0  0  0  0  0  0  0  0
    4.5981   -4.2500    0.0000 C   0  0  0  0  0  0  0  0  0  0  0  0
    6.3301   -4.2500    0.0000 C   0  0  0  0  0  0  0  0  0  0  0  0
    8.9282    4.2500    0.0000 C   0  0  0  0  0  0  0  0  0  0  0  0
   10.6603    4.2500    0.0000 C   0  0  0  0  0  0  0  0  0  0  0  0
    4.5981   -7.2500    0.0000 C   0  0  0  0  0  0  0  0  0  0  0  0
    8.9282    7.2500    0.0000 C   0  0  0  0  0  0  0  0  0  0  0  0
    3.7320    4.2500    0.0000 C   0  0  0  0  0  0  0  0  0  0  0  0
   14.1244    0.2500    0.0000 C   0  0  0  0  0  0  0  0  0  0  0  0
    2.8660   -6.2500    0.0000 C   0  0  0  0  0  0  0  0  0  0  0  0
    7.1962    6.2500    0.0000 C   0  0  0  0  0  0  0  0  0  0  0  0
    2.0000   -5.7500    0.0000 C   0  0  0  0  0  0  0  0  0  0  0  0
    6.3301    5.7500    0.0000 C   0  0  0  0  0  0  0  0  0  0  0  0
    6.6592    0.5600    0.0000 H   0  0  0  0  0  0  0  0  0  0  0  0
    7.5252   -0.5600    0.0000 H   0  0  0  0  0  0  0  0  0  0  0  0
    6.8671   -0.5600    0.0000 H   0  0  0  0  0  0  0  0  0  0  0  0
    9.4651    0.5600    0.0000 H   0  0  0  0  0  0  0  0  0  0  0  0
    4.5981    1.1300    0.0000 H   0  0  0  0  0  0  0  0  0  0  0  0
   10.9893   -0.5600    0.0000 H   0  0  0  0  0  0  0  0  0  0  0  0
    3.7320    1.8700    0.0000 H   0  0  0  0  0  0  0  0  0  0  0  0
   12.0632   -0.9400    0.0000 H   0  0  0  0  0  0  0  0  0  0  0  0
    6.0010    1.5600    0.0000 H   0  0  0  0  0  0  0  0  0  0  0  0
   10.6603    0.8700    0.0000 H   0  0  0  0  0  0  0  0  0  0  0  0
    7.7331    1.5600    0.0000 H   0  0  0  0  0  0  0  0  0  0  0  0
    8.5991   -1.5600    0.0000 H   0  0  0  0  0  0  0  0  0  0  0  0
    5.2520   -1.1674    0.0000 H   0  0  0  0  0  0  0  0  0  0  0  0
    4.8535   -1.8577    0.0000 H   0  0  0  0  0  0  0  0  0  0  0  0
   10.0063    1.1674    0.0000 H   0  0  0  0  0  0  0  0  0  0  0  0
   10.4048    1.8577    0.0000 H   0  0  0  0  0  0  0  0  0  0  0  0
    3.1760    2.2869    0.0000 H   0  0  0  0  0  0  0  0  0  0  0  0
    2.3291    2.0600    0.0000 H   0  0  0  0  0  0  0  0  0  0  0  0
    2.5560    1.2131    0.0000 H   0  0  0  0  0  0  0  0  0  0  0  0
    3.1120    0.2500    0.0000 H   0  0  0  0  0  0  0  0  0  0  0  0
    3.7320   -0.3700    0.0000 H   0  0  0  0  0  0  0  0  0  0  0  0
    4.3520    0.2500    0.0000 H   0  0  0  0  0  0  0  0  0  0  0  0
   12.0823   -2.2869    0.0000 H   0  0  0  0  0  0  0  0  0  0  0  0
   12.9292   -2.0600    0.0000 H   0  0  0  0  0  0  0  0  0  0  0  0
   12.7023   -1.2131    0.0000 H   0  0  0  0  0  0  0  0  0  0  0  0
   10.3503   -1.2131    0.0000 H   0  0  0  0  0  0  0  0  0  0  0  0
   10.1233   -2.0600    0.0000 H   0  0  0  0  0  0  0  0  0  0  0  0
   10.9703   -2.2869    0.0000 H   0  0  0  0  0  0  0  0  0  0  0  0
    6.9407   -6.3577    0.0000 H   0  0  0  0  0  0  0  0  0  0  0  0
    6.5422   -5.6674    0.0000 H   0  0  0  0  0  0  0  0  0  0  0  0
   10.8723    5.6674    0.0000 H   0  0  0  0  0  0  0  0  0  0  0  0
   11.2708    6.3577    0.0000 H   0  0  0  0  0  0  0  0  0  0  0  0
    6.5422   -7.8326    0.0000 H   0  0  0  0  0  0  0  0  0  0  0  0
    6.9407   -7.1423    0.0000 H   0  0  0  0  0  0  0  0  0  0  0  0
   11.2708    7.1423    0.0000 H   0  0  0  0  0  0  0  0  0  0  0  0
   10.8723    7.8326    0.0000 H   0  0  0  0  0  0  0  0  0  0  0  0
    5.0656   -8.2250    0.0000 H   0  0  0  0  0  0  0  0  0  0  0  0
    5.8626   -8.2250    0.0000 H   0  0  0  0  0  0  0  0  0  0  0  0
   10.1928    8.2250    0.0000 H   0  0  0  0  0  0  0  0  0  0  0  0
    9.3957    8.2250    0.0000 H   0  0  0  0  0  0  0  0  0  0  0  0
    4.0611   -2.9400    0.0000 H   0  0  0  0  0  0  0  0  0  0  0  0
    6.8671   -2.9400    0.0000 H   0  0  0  0  0  0  0  0  0  0  0  0
    8.3913    2.9400    0.0000 H   0  0  0  0  0  0  0  0  0  0  0  0
   11.1972    2.9400    0.0000 H   0  0  0  0  0  0  0  0  0  0  0  0
    4.0611   -4.5600    0.0000 H   0  0  0  0  0  0  0  0  0  0  0  0
    6.8671   -4.5600    0.0000 H   0  0  0  0  0  0  0  0  0  0  0  0
    8.3913    4.5600    0.0000 H   0  0  0  0  0  0  0  0  0  0  0  0
   11.1972    4.5600    0.0000 H   0  0  0  0  0  0  0  0  0  0  0  0
    3.1951    2.9400    0.0000 H   0  0  0  0  0  0  0  0  0  0  0  0
   13.2583   -0.8700    0.0000 H   0  0  0  0  0  0  0  0  0  0  0  0
    4.3520    4.2500    0.0000 H   0  0  0  0  0  0  0  0  0  0  0  0
    3.7320    4.8700    0.0000 H   0  0  0  0  0  0  0  0  0  0  0  0
    3.1120    4.2500    0.0000 H   0  0  0  0  0  0  0  0  0  0  0  0
   14.4344   -0.2869    0.0000 H   0  0  0  0  0  0  0  0  0  0  0  0
   14.6613    0.5600    0.0000 H   0  0  0  0  0  0  0  0  0  0  0  0
   13.8144    0.7869    0.0000 H   0  0  0  0  0  0  0  0  0  0  0  0
    2.4675   -6.7250    0.0000 H   0  0  0  0  0  0  0  0  0  0  0  0
    3.2646   -6.7250    0.0000 H   0  0  0  0  0  0  0  0  0  0  0  0
    7.5947    6.7250    0.0000 H   0  0  0  0  0  0  0  0  0  0  0  0
    6.7976    6.7250    0.0000 H   0  0  0  0  0  0  0  0  0  0  0  0
    2.3100   -5.2131    0.0000 H   0  0  0  0  0  0  0  0  0  0  0  0
    1.4631   -5.4400    0.0000 H   0  0  0  0  0  0  0  0  0  0  0  0
    1.6900   -6.2869    0.0000 H   0  0  0  0  0  0  0  0  0  0  0  0
    6.0201    6.2869    0.0000 H   0  0  0  0  0  0  0  0  0  0  0  0
    5.7932    5.4400    0.0000 H   0  0  0  0  0  0  0  0  0  0  0  0
    6.6401    5.2131    0.0000 H   0  0  0  0  0  0  0  0  0  0  0  0
 19  1  1  1  0  0  0
  1 27  1  0  0  0  0
 20  2  1  1  0  0  0
  2 28  1  0  0  0  0
 17  3  1  6  0  0  0
  3 75  1  0  0  0  0
 18  4  1  6  0  0  0
  4 76  1  0  0  0  0
  5 23  2  0  0  0  0
  6 24  2  0  0  0  0
  7 33  2  0  0  0  0
  8 34  2  0  0  0  0
  9 47  1  0  0  0  0
  9 61  1  0  0  0  0
 10 48  1  0  0  0  0
 10 62  1  0  0  0  0
 11 57  2  0  0  0  0
 12 58  2  0  0  0  0
 21 13  1  1  0  0  0
 13 23  1  0  0  0  0
 13 73  1  0  0  0  0
 22 14  1  6  0  0  0
 14 24  1  0  0  0  0
 14 74  1  0  0  0  0
 15 33  1  0  0  0  0
 15 59  1  0  0  0  0
 15113  1  0  0  0  0
 16 34  1  0  0  0  0
 16 60  1  0  0  0  0
 16114  1  0  0  0  0
 17 18  1  0  0  0  0
 17 19  1  0  0  0  0
 17 65  1  0  0  0  0
 18 20  1  0  0  0  0
 18 66  1  0  0  0  0
 19 23  1  0  0  0  0
 19 67  1  0  0  0  0
 20 24  1  0  0  0  0
 20 68  1  0  0  0  0
 21 25  1  0  0  0  0
 21 33  1  0  0  0  0
 21 69  1  0  0  0  0
 22 26  1  0  0  0  0
 22 34  1  0  0  0  0
 22 70  1  0  0  0  0
 25 29  1  0  0  0  0
 25 30  1  0  0  0  0
 25 71  1  0  0  0  0
 26 31  1  0  0  0  0
 26 32  1  0  0  0  0
 26 72  1  0  0  0  0
 27 35  1  0  0  0  0
 27 77  1  0  0  0  0
 27 78  1  0  0  0  0
 28 36  1  0  0  0  0
 28 79  1  0  0  0  0
 28 80  1  0  0  0  0
 29 81  1  0  0  0  0
 29 82  1  0  0  0  0
 29 83  1  0  0  0  0
 30 84  1  0  0  0  0
 30 85  1  0  0  0  0
 30 86  1  0  0  0  0
 31 87  1  0  0  0  0
 31 88  1  0  0  0  0
 31 89  1  0  0  0  0
 32 90  1  0  0  0  0
 32 91  1  0  0  0  0
 32 92  1  0  0  0  0
 35 49  2  0  0  0  0
 35 50  1  0  0  0  0
 36 51  2  0  0  0  0
 36 52  1  0  0  0  0
 37 39  1  0  0  0  0
 37 41  1  0  0  0  0
 37 93  1  0  0  0  0
 37 94  1  0  0  0  0
 38 40  1  0  0  0  0
 38 42  1  0  0  0  0
 38 95  1  0  0  0  0
 38 96  1  0  0  0  0
 39 43  1  0  0  0  0
 39 47  2  0  0  0  0
 40 44  1  0  0  0  0
 40 48  2  0  0  0  0
 41 45  1  0  0  0  0
 41 97  1  0  0  0  0
 41 98  1  0  0  0  0
 42 46  1  0  0  0  0
 42 99  1  0  0  0  0
 42100  1  0  0  0  0
 43 53  2  0  0  0  0
 43 54  1  0  0  0  0
 44 55  2  0  0  0  0
 44 56  1  0  0  0  0
 45 57  1  0  0  0  0
 45101  1  0  0  0  0
 45102  1  0  0  0  0
 46 58  1  0  0  0  0
 46103  1  0  0  0  0
 46104  1  0  0  0  0
 47 57  1  0  0  0  0
 48 58  1  0  0  0  0
 49 53  1  0  0  0  0
 49105  1  0  0  0  0
 50 54  2  0  0  0  0
 50106  1  0  0  0  0
 51 55  1  0  0  0  0
 51107  1  0  0  0  0
 52 56  2  0  0  0  0
 52108  1  0  0  0  0
 53109  1  0  0  0  0
 54110  1  0  0  0  0
 55111  1  0  0  0  0
 56112  1  0  0  0  0
 59115  1  0  0  0  0
 59116  1  0  0  0  0
 59117  1  0  0  0  0
 60118  1  0  0  0  0
 60119  1  0  0  0  0
 60120  1  0  0  0  0
 61 63  1  0  0  0  0
 61121  1  0  0  0  0
 61122  1  0  0  0  0
 62 64  1  0  0  0  0
 62123  1  0  0  0  0
 62124  1  0  0  0  0
 63125  1  0  0  0  0
 63126  1  0  0  0  0
 63127  1  0  0  0  0
 64128  1  0  0  0  0
 64129  1  0  0  0  0
 64130  1  0  0  0  0
M  END
> <PUBCHEM_COMPOUND_CID>
507407
> <PUBCHEM_COMPOUND_CANONICALIZED>
1
> <PUBCHEM_CACTVS_COMPLEXITY>
1540
> <PUBCHEM_CACTVS_HBOND_ACCEPTOR>
12
> <PUBCHEM_CACTVS_HBOND_DONOR>
6
> <PUBCHEM_CACTVS_ROTATABLE_BOND>
23
> <PUBCHEM_CACTVS_SUBSKEYS>
AAADcfB/vAAAAAAAAAAAAAAAAAAAAAAAAAAwYIEAAAAAAAABQAAAHgAQCAAADTzhmAYyAILABgCIAqFSEAICCAAgIAAIiIHICMgLdjaAsTyXcAAn9gGbqQf63PLOQAAAAAAAAACAAAAAAAAAAAAAAAAAAA==
> <PUBCHEM_IUPAC_OPENEYE_NAME>
(2R,3R,4R,5R)-2,5-bis[[4-(2-ethoxy-3-oxo-cyclohexen-1-yl)phenyl]methoxy]-3,4-dihydroxy-N,N'-bis[(1S)-2-methyl-1-(methylcarbamoyl)propyl]hexanediamide
> <PUBCHEM_IUPAC_CAS_NAME>
(2R,3R,4R,5R)-2,5-bis[[4-(2-ethoxy-3-oxo-1-cyclohexenyl)phenyl]methoxy]-3,4-dihydroxy-N,N'-bis[(2S)-3-methyl-1-(methylamino)-1-oxobutan-2-yl]hexanediamide
> <PUBCHEM_IUPAC_NAME_MARKUP>
(2<I>R</I>,3<I>R</I>,4<I>R</I>,5<I>R</I>)-2,5-bis[[4-(2-ethoxy-3-oxocyclohexen-1-yl)phenyl]methoxy]-3,4-dihydroxy-<I>N</I>,<I>N</I>&apos;-bis[(2<I>S</I>)-3-methyl-1-(methylamino)-1-oxobutan-2-yl]hexanediamide
> <PUBCHEM_IUPAC_NAME>
(2R,3R,4R,5R)-2,5-bis[[4-(2-ethoxy-3-oxocyclohexen-1-yl)phenyl]methoxy]-3,4-dihydroxy-N,N'-bis[(2S)-3-methyl-1-(methylamino)-1-oxobutan-2-yl]hexanediamide
> <PUBCHEM_IUPAC_SYSTEMATIC_NAME>
(2R,3R,4R,5R)-2,5-bis[[4-(2-ethoxy-3-oxidanylidene-cyclohexen-1-yl)phenyl]methoxy]-N,N'-bis[(2S)-3-methyl-1-(methylamino)-1-oxidanylidene-butan-2-yl]-3,4-bis(oxidanyl)hexanediamide
> <PUBCHEM_IUPAC_TRADITIONAL_NAME>
(2R,3R,4R,5R)-2,5-bis[[4-(2-ethoxy-3-keto-cyclohexen-1-yl)benzyl]oxy]-3,4-dihydroxy-N,N'-bis[(1S)-2-methyl-1-(methylcarbamoyl)propyl]adipamide
> <PUBCHEM_IUPAC_INCHI>
InChI=1S/C48H66N4O12/c1-9-61-41-33(13-11-15-35(41)53)31-21-17-29(18-22-31)25-63-43(47(59)51-37(27(3)4)45(57)49-7)39(55)40(56)44(48(60)52-38(28(5)6)46(58)50-8)64-26-30-19-23-32(24-20-30)34-14-12-16-36(54)42(34)62-10-2/h17-24,27-28,37-40,43-44,55-56H,9-16,25-26H2,1-8H3,(H,49,57)(H,50,58)(H,51,59)(H,52,60)/t37-,38-,39+,40+,43+,44+/m0/s1
> <PUBCHEM_IUPAC_INCHIKEY>
LMZDJCJHAQPQSA-QDMGSNPFSA-N
> <PUBCHEM_XLOGP3_AA>
3.3
> <PUBCHEM_EXACT_MASS>
890.46772355
> <PUBCHEM_MOLECULAR_FORMULA>
C48H66N4O12
> <PUBCHEM_MOLECULAR_WEIGHT>
891.1
> <PUBCHEM_OPENEYE_CAN_SMILES>
CCOC1=C(CCCC1=O)C2=CC=C(C=C2)COC(C(C(C(C(=O)NC(C(C)C)C(=O)NC)OCC3=CC=C(C=C3)C4=C(C(=O)CCC4)OCC)O)O)C(=O)NC(C(C)C)C(=O)NC
> <PUBCHEM_OPENEYE_ISO_SMILES>
CCOC1=C(CCCC1=O)C2=CC=C(C=C2)CO[C@H]([C@@H]([C@H]([C@H](C(=O)N[C@@H](C(C)C)C(=O)NC)OCC3=CC=C(C=C3)C4=C(C(=O)CCC4)OCC)O)O)C(=O)N[C@@H](C(C)C)C(=O)NC
> <PUBCHEM_CACTVS_TPSA>
228
> <PUBCHEM_MONOISOTOPIC_WEIGHT>
890.46772355
> <PUBCHEM_TOTAL_CHARGE>
0
> <PUBCHEM_HEAVY_ATOM_COUNT>
64
> <PUBCHEM_ATOM_DEF_STEREO_COUNT>
6
> <PUBCHEM_ATOM_UDEF_STEREO_COUNT>
0
> <PUBCHEM_BOND_DEF_STEREO_COUNT>
0
> <PUBCHEM_BOND_UDEF_STEREO_COUNT>
0
> <PUBCHEM_ISOTOPIC_ATOM_COUNT>
0
> <PUBCHEM_COMPONENT_COUNT>
1
> <PUBCHEM_CACTVS_TAUTO_COUNT>
-1
> <PUBCHEM_COORDINATE_TYPE>
1
5
255
> <PUBCHEM_BONDANNOTATIONS>
19  1  5
21  13  5
22  14  6
20  2  5
17  3  6
35  49  8
35  50  8
36  51  8
36  52  8
18  4  6
43  53  8
43  54  8
44  55  8
44  56  8
49  53  8
50  54  8
51  55  8
52  56  8
$$$$
