507470
  -OEChem-10302200282D
 85 86  0     1  0  0  0  0  0999 V2000
    2.0000   -6.3100    0.0000 Cl  0  0  0  0  0  0  0  0  0  0  0  0
    3.7320   -9.3100    0.0000 Cl  0  0  0  0  0  0  0  0  0  0  0  0
    4.5981   -0.8100    0.0000 S   0  0  0  0  0  0  0  0  0  0  0  0
    5.4641   -0.3100    0.0000 O   0  0  0  0  0  0  0  0  0  0  0  0
    5.4641    0.6900    0.0000 O   0  0  0  0  0  0  0  0  0  0  0  0
    6.3301   -3.8100    0.0000 O   0  0  0  0  0  0  0  0  0  0  0  0
    4.5981    4.1900    0.0000 O   0  0  0  0  0  0  0  0  0  0  0  0
    8.0622    5.1900    0.0000 O   0  0  0  0  0  0  0  0  0  0  0  0
    6.3301    4.1900    0.0000 O   0  0  0  0  0  0  0  0  0  0  0  0
    8.9282    3.6900    0.0000 O   0  0  0  0  0  0  0  0  0  0  0  0
    2.0000    8.6900    0.0000 O   0  0  0  0  0  0  0  0  0  0  0  0
    3.7320    8.6900    0.0000 O   0  0  0  0  0  0  0  0  0  0  0  0
    7.1962    0.6900    0.0000 N   0  0  0  0  0  0  0  0  0  0  0  0
    6.3301   -1.8100    0.0000 N   0  0  0  0  0  0  0  0  0  0  0  0
    5.4641    2.6900    0.0000 N   0  0  0  0  0  0  0  0  0  0  0  0
    4.5981   -3.8100    0.0000 N   0  0  0  0  0  0  0  0  0  0  0  0
    8.0622   -0.8100    0.0000 C   0  0  0  0  0  0  0  0  0  0  0  0
    7.1962   -0.3100    0.0000 C   0  0  1  0  0  0  0  0  0  0  0  0
    8.9282   -0.3100    0.0000 C   0  0  0  0  0  0  0  0  0  0  0  0
    6.3301   -0.8100    0.0000 C   0  0  0  0  0  0  0  0  0  0  0  0
    9.7942   -0.8100    0.0000 C   0  0  0  0  0  0  0  0  0  0  0  0
    8.9282    0.6900    0.0000 C   0  0  0  0  0  0  0  0  0  0  0  0
    6.3301    2.1900    0.0000 C   0  0  2  0  0  0  0  0  0  0  0  0
    6.3301    1.1900    0.0000 C   0  0  0  0  0  0  0  0  0  0  0  0
    7.1962    2.6900    0.0000 C   0  0  0  0  0  0  0  0  0  0  0  0
    5.4641   -2.3100    0.0000 C   0  0  1  0  0  0  0  0  0  0  0  0
    7.1962    3.6900    0.0000 C   0  0  0  0  0  0  0  0  0  0  0  0
    4.5981   -1.8100    0.0000 C   0  0  0  0  0  0  0  0  0  0  0  0
    5.4641   -3.3100    0.0000 C   0  0  0  0  0  0  0  0  0  0  0  0
    4.5981   -4.8100    0.0000 C   0  0  0  0  0  0  0  0  0  0  0  0
    5.4641    3.6900    0.0000 C   0  0  0  0  0  0  0  0  0  0  0  0
    8.0622    4.1900    0.0000 C   0  0  0  0  0  0  0  0  0  0  0  0
    3.7320   -5.3100    0.0000 C   0  0  0  0  0  0  0  0  0  0  0  0
    3.7320   -6.3100    0.0000 C   0  0  0  0  0  0  0  0  0  0  0  0
    4.5981    5.1900    0.0000 C   0  0  0  0  0  0  0  0  0  0  0  0
    2.8660   -6.8100    0.0000 C   0  0  0  0  0  0  0  0  0  0  0  0
    4.5981   -6.8100    0.0000 C   0  0  0  0  0  0  0  0  0  0  0  0
    3.7320    5.6900    0.0000 C   0  0  0  0  0  0  0  0  0  0  0  0
    2.8660   -7.8100    0.0000 C   0  0  0  0  0  0  0  0  0  0  0  0
    4.5981   -7.8100    0.0000 C   0  0  0  0  0  0  0  0  0  0  0  0
    3.7320   -8.3100    0.0000 C   0  0  0  0  0  0  0  0  0  0  0  0
    3.7320    6.6900    0.0000 C   0  0  0  0  0  0  0  0  0  0  0  0
    2.8660    5.1900    0.0000 C   0  0  0  0  0  0  0  0  0  0  0  0
    2.8660    7.1900    0.0000 C   0  0  0  0  0  0  0  0  0  0  0  0
    2.0000    5.6900    0.0000 C   0  0  0  0  0  0  0  0  0  0  0  0
    2.0000    6.6900    0.0000 C   0  0  0  0  0  0  0  0  0  0  0  0
    2.8660    8.1900    0.0000 C   0  0  0  0  0  0  0  0  0  0  0  0
    7.6636   -1.2850    0.0000 H   0  0  0  0  0  0  0  0  0  0  0  0
    8.4607   -1.2850    0.0000 H   0  0  0  0  0  0  0  0  0  0  0  0
    6.6592   -0.0000    0.0000 H   0  0  0  0  0  0  0  0  0  0  0  0
    9.4651   -0.0000    0.0000 H   0  0  0  0  0  0  0  0  0  0  0  0
    7.7331    1.0000    0.0000 H   0  0  0  0  0  0  0  0  0  0  0  0
    9.4842   -1.3469    0.0000 H   0  0  0  0  0  0  0  0  0  0  0  0
   10.3312   -1.1200    0.0000 H   0  0  0  0  0  0  0  0  0  0  0  0
   10.1042   -0.2731    0.0000 H   0  0  0  0  0  0  0  0  0  0  0  0
    9.5482    0.6900    0.0000 H   0  0  0  0  0  0  0  0  0  0  0  0
    8.9282    1.3100    0.0000 H   0  0  0  0  0  0  0  0  0  0  0  0
    8.3082    0.6900    0.0000 H   0  0  0  0  0  0  0  0  0  0  0  0
    5.7932    1.8800    0.0000 H   0  0  0  0  0  0  0  0  0  0  0  0
    7.4082    2.1074    0.0000 H   0  0  0  0  0  0  0  0  0  0  0  0
    7.8067    2.7977    0.0000 H   0  0  0  0  0  0  0  0  0  0  0  0
    6.8671   -2.1200    0.0000 H   0  0  0  0  0  0  0  0  0  0  0  0
    5.4641   -1.6900    0.0000 H   0  0  0  0  0  0  0  0  0  0  0  0
    6.9841    4.2726    0.0000 H   0  0  0  0  0  0  0  0  0  0  0  0
    6.5856    3.5823    0.0000 H   0  0  0  0  0  0  0  0  0  0  0  0
    4.9272    2.3800    0.0000 H   0  0  0  0  0  0  0  0  0  0  0  0
    3.9875   -1.7023    0.0000 H   0  0  0  0  0  0  0  0  0  0  0  0
    4.3860   -2.3926    0.0000 H   0  0  0  0  0  0  0  0  0  0  0  0
    4.0611   -3.5000    0.0000 H   0  0  0  0  0  0  0  0  0  0  0  0
    4.8101   -5.3926    0.0000 H   0  0  0  0  0  0  0  0  0  0  0  0
    5.2087   -4.7023    0.0000 H   0  0  0  0  0  0  0  0  0  0  0  0
    3.5200   -4.7274    0.0000 H   0  0  0  0  0  0  0  0  0  0  0  0
    3.1215   -5.4177    0.0000 H   0  0  0  0  0  0  0  0  0  0  0  0
    4.0611   -0.5000    0.0000 H   0  0  0  0  0  0  0  0  0  0  0  0
    5.2087    5.0823    0.0000 H   0  0  0  0  0  0  0  0  0  0  0  0
    4.8101    5.7726    0.0000 H   0  0  0  0  0  0  0  0  0  0  0  0
    5.1350   -6.5000    0.0000 H   0  0  0  0  0  0  0  0  0  0  0  0
    8.5991    5.5000    0.0000 H   0  0  0  0  0  0  0  0  0  0  0  0
    2.3291   -8.1200    0.0000 H   0  0  0  0  0  0  0  0  0  0  0  0
    5.1350   -8.1200    0.0000 H   0  0  0  0  0  0  0  0  0  0  0  0
    4.2690    7.0000    0.0000 H   0  0  0  0  0  0  0  0  0  0  0  0
    2.8660    4.5700    0.0000 H   0  0  0  0  0  0  0  0  0  0  0  0
    1.4631    5.3800    0.0000 H   0  0  0  0  0  0  0  0  0  0  0  0
    1.4631    7.0000    0.0000 H   0  0  0  0  0  0  0  0  0  0  0  0
    2.0000    9.3100    0.0000 H   0  0  0  0  0  0  0  0  0  0  0  0
  1 36  1  0  0  0  0
  2 41  1  0  0  0  0
  3 28  1  0  0  0  0
  3 74  1  0  0  0  0
  4 20  2  0  0  0  0
  5 24  2  0  0  0  0
  6 29  2  0  0  0  0
  7 31  1  0  0  0  0
  7 35  1  0  0  0  0
  8 32  1  0  0  0  0
  8 78  1  0  0  0  0
  9 31  2  0  0  0  0
 10 32  2  0  0  0  0
 11 47  1  0  0  0  0
 11 85  1  0  0  0  0
 12 47  2  0  0  0  0
 18 13  1  1  0  0  0
 13 24  1  0  0  0  0
 13 52  1  0  0  0  0
 14 20  1  0  0  0  0
 26 14  1  6  0  0  0
 14 62  1  0  0  0  0
 23 15  1  1  0  0  0
 15 31  1  0  0  0  0
 15 66  1  0  0  0  0
 16 29  1  0  0  0  0
 16 30  1  0  0  0  0
 16 69  1  0  0  0  0
 17 18  1  0  0  0  0
 17 19  1  0  0  0  0
 17 48  1  0  0  0  0
 17 49  1  0  0  0  0
 18 20  1  0  0  0  0
 18 50  1  0  0  0  0
 19 21  1  0  0  0  0
 19 22  1  0  0  0  0
 19 51  1  0  0  0  0
 21 53  1  0  0  0  0
 21 54  1  0  0  0  0
 21 55  1  0  0  0  0
 22 56  1  0  0  0  0
 22 57  1  0  0  0  0
 22 58  1  0  0  0  0
 23 24  1  0  0  0  0
 23 25  1  0  0  0  0
 23 59  1  0  0  0  0
 25 27  1  0  0  0  0
 25 60  1  0  0  0  0
 25 61  1  0  0  0  0
 26 28  1  0  0  0  0
 26 29  1  0  0  0  0
 26 63  1  0  0  0  0
 27 32  1  0  0  0  0
 27 64  1  0  0  0  0
 27 65  1  0  0  0  0
 28 67  1  0  0  0  0
 28 68  1  0  0  0  0
 30 33  1  0  0  0  0
 30 70  1  0  0  0  0
 30 71  1  0  0  0  0
 33 34  1  0  0  0  0
 33 72  1  0  0  0  0
 33 73  1  0  0  0  0
 34 36  2  0  0  0  0
 34 37  1  0  0  0  0
 35 38  1  0  0  0  0
 35 75  1  0  0  0  0
 35 76  1  0  0  0  0
 36 39  1  0  0  0  0
 37 40  2  0  0  0  0
 37 77  1  0  0  0  0
 38 42  2  0  0  0  0
 38 43  1  0  0  0  0
 39 41  2  0  0  0  0
 39 79  1  0  0  0  0
 40 41  1  0  0  0  0
 40 80  1  0  0  0  0
 42 44  1  0  0  0  0
 42 81  1  0  0  0  0
 43 45  2  0  0  0  0
 43 82  1  0  0  0  0
 44 46  2  0  0  0  0
 44 47  1  0  0  0  0
 45 46  1  0  0  0  0
 45 83  1  0  0  0  0
 46 84  1  0  0  0  0
M  END
> <PUBCHEM_COMPOUND_CID>
507470
> <PUBCHEM_COMPOUND_CANONICALIZED>
1
> <PUBCHEM_CACTVS_COMPLEXITY>
1090
> <PUBCHEM_CACTVS_HBOND_ACCEPTOR>
10
> <PUBCHEM_CACTVS_HBOND_DONOR>
7
> <PUBCHEM_CACTVS_ROTATABLE_BOND>
19
> <PUBCHEM_CACTVS_SUBSKEYS>
AAADcfB7vABGAAAAAAAAAAAAAAAAAAAAAAAwYAAAAAAAAAABQAAAHgYQCAAADSrl2CayCILABgSIAiHSGAACAAAkBQAIiIGICskIZjKBtzmccQAk1gGIuYe8/+qOBAACAACBAAAIAAQAAQIAAAAAAAAAAA==
> <PUBCHEM_IUPAC_OPENEYE_NAME>
3-[[(1S)-3-carboxy-1-[[(1S)-1-[[(1R)-2-[2-(2,4-dichlorophenyl)ethylamino]-2-oxo-1-(sulfanylmethyl)ethyl]carbamoyl]-3-methyl-butyl]carbamoyl]propyl]carbamoyloxymethyl]benzoic acid
> <PUBCHEM_IUPAC_CAS_NAME>
3-[[[[(2S)-4-carboxy-1-[[(2S)-1-[[(2R)-1-[2-(2,4-dichlorophenyl)ethylamino]-3-mercapto-1-oxopropan-2-yl]amino]-4-methyl-1-oxopentan-2-yl]amino]-1-oxobutan-2-yl]amino]-oxomethoxy]methyl]benzoic acid
> <PUBCHEM_IUPAC_NAME_MARKUP>
3-[[(2<I>S</I>)-4-carboxy-1-[[(2<I>S</I>)-1-[[(2<I>R</I>)-1-[2-(2,4-dichlorophenyl)ethylamino]-1-oxo-3-sulfanylpropan-2-yl]amino]-4-methyl-1-oxopentan-2-yl]amino]-1-oxobutan-2-yl]carbamoyloxymethyl]benzoic acid
> <PUBCHEM_IUPAC_NAME>
3-[[(2S)-4-carboxy-1-[[(2S)-1-[[(2R)-1-[2-(2,4-dichlorophenyl)ethylamino]-1-oxo-3-sulfanylpropan-2-yl]amino]-4-methyl-1-oxopentan-2-yl]amino]-1-oxobutan-2-yl]carbamoyloxymethyl]benzoic acid
> <PUBCHEM_IUPAC_SYSTEMATIC_NAME>
3-[[(2S)-1-[[(2S)-1-[[(2R)-1-[2-(2,4-dichlorophenyl)ethylamino]-1-oxidanylidene-3-sulfanyl-propan-2-yl]amino]-4-methyl-1-oxidanylidene-pentan-2-yl]amino]-5-oxidanyl-1,5-bis(oxidanylidene)pentan-2-yl]carbamoyloxymethyl]benzoic acid
> <PUBCHEM_IUPAC_TRADITIONAL_NAME>
3-[[(1S)-3-carboxy-1-[[(1S)-1-[[(1R)-2-[2-(2,4-dichlorophenyl)ethylamino]-2-keto-1-(mercaptomethyl)ethyl]carbamoyl]-3-methyl-butyl]carbamoyl]propyl]carbamoyloxymethyl]benzoic acid
> <PUBCHEM_IUPAC_INCHI>
InChI=1S/C31H38Cl2N4O9S/c1-17(2)12-24(29(42)36-25(16-47)27(40)34-11-10-19-6-7-21(32)14-22(19)33)35-28(41)23(8-9-26(38)39)37-31(45)46-15-18-4-3-5-20(13-18)30(43)44/h3-7,13-14,17,23-25,47H,8-12,15-16H2,1-2H3,(H,34,40)(H,35,41)(H,36,42)(H,37,45)(H,38,39)(H,43,44)/t23-,24-,25-/m0/s1
> <PUBCHEM_IUPAC_INCHIKEY>
ZZVQSTMHSUSUFP-SDHOMARFSA-N
> <PUBCHEM_XLOGP3_AA>
4.1
> <PUBCHEM_EXACT_MASS>
712.1736554
> <PUBCHEM_MOLECULAR_FORMULA>
C31H38Cl2N4O9S
> <PUBCHEM_MOLECULAR_WEIGHT>
713.6
> <PUBCHEM_OPENEYE_CAN_SMILES>
CC(C)CC(C(=O)NC(CS)C(=O)NCCC1=C(C=C(C=C1)Cl)Cl)NC(=O)C(CCC(=O)O)NC(=O)OCC2=CC(=CC=C2)C(=O)O
> <PUBCHEM_OPENEYE_ISO_SMILES>
CC(C)C[C@@H](C(=O)N[C@@H](CS)C(=O)NCCC1=C(C=C(C=C1)Cl)Cl)NC(=O)[C@H](CCC(=O)O)NC(=O)OCC2=CC(=CC=C2)C(=O)O
> <PUBCHEM_CACTVS_TPSA>
201
> <PUBCHEM_MONOISOTOPIC_WEIGHT>
712.1736554
> <PUBCHEM_TOTAL_CHARGE>
0
> <PUBCHEM_HEAVY_ATOM_COUNT>
47
> <PUBCHEM_ATOM_DEF_STEREO_COUNT>
3
> <PUBCHEM_ATOM_UDEF_STEREO_COUNT>
0
> <PUBCHEM_BOND_DEF_STEREO_COUNT>
0
> <PUBCHEM_BOND_UDEF_STEREO_COUNT>
0
> <PUBCHEM_ISOTOPIC_ATOM_COUNT>
0
> <PUBCHEM_COMPONENT_COUNT>
1
> <PUBCHEM_CACTVS_TAUTO_COUNT>
-1
> <PUBCHEM_COORDINATE_TYPE>
1
5
255
> <PUBCHEM_BONDANNOTATIONS>
18  13  5
26  14  6
23  15  5
34  36  8
34  37  8
36  39  8
37  40  8
38  42  8
38  43  8
39  41  8
40  41  8
42  44  8
43  45  8
44  46  8
45  46  8
$$$$
