507458
  -OEChem-10302200282D
 86 86  0     1  0  0  0  0  0999 V2000
    7.1962   -1.1550    0.0000 S   0  0  0  0  0  0  0  0  0  0  0  0
    8.0622    7.3450    0.0000 S   0  0  0  0  0  0  0  0  0  0  0  0
    6.3301   -1.6550    0.0000 O   0  0  0  0  0  0  0  0  0  0  0  0
    6.3301   -2.6550    0.0000 O   0  0  0  0  0  0  0  0  0  0  0  0
    7.1962   -6.1550    0.0000 O   0  0  0  0  0  0  0  0  0  0  0  0
    5.4641    1.8450    0.0000 O   0  0  0  0  0  0  0  0  0  0  0  0
    3.7320   -7.1550    0.0000 O   0  0  0  0  0  0  0  0  0  0  0  0
    5.4641   -6.1550    0.0000 O   0  0  0  0  0  0  0  0  0  0  0  0
    2.8660   -5.6550    0.0000 O   0  0  0  0  0  0  0  0  0  0  0  0
    9.0622    7.3450    0.0000 O   0  0  0  0  0  0  0  0  0  0  0  0
    7.0622    7.3450    0.0000 O   0  0  0  0  0  0  0  0  0  0  0  0
    4.5981   -2.6550    0.0000 N   0  0  0  0  0  0  0  0  0  0  0  0
    5.4641   -0.1550    0.0000 N   0  0  0  0  0  0  0  0  0  0  0  0
    6.3301   -4.6550    0.0000 N   0  0  0  0  0  0  0  0  0  0  0  0
    7.1962    1.8450    0.0000 N   0  0  0  0  0  0  0  0  0  0  0  0
    8.0622    8.3450    0.0000 N   0  0  0  0  0  0  0  0  0  0  0  0
    3.7320   -1.1550    0.0000 C   0  0  0  0  0  0  0  0  0  0  0  0
    4.5981   -1.6550    0.0000 C   0  0  1  0  0  0  0  0  0  0  0  0
    2.8660   -1.6550    0.0000 C   0  0  0  0  0  0  0  0  0  0  0  0
    5.4641   -1.1550    0.0000 C   0  0  0  0  0  0  0  0  0  0  0  0
    5.4641   -4.1550    0.0000 C   0  0  2  0  0  0  0  0  0  0  0  0
    2.0000   -1.1550    0.0000 C   0  0  0  0  0  0  0  0  0  0  0  0
    2.8660   -2.6550    0.0000 C   0  0  0  0  0  0  0  0  0  0  0  0
    5.4641   -3.1550    0.0000 C   0  0  0  0  0  0  0  0  0  0  0  0
    4.5981   -4.6550    0.0000 C   0  0  0  0  0  0  0  0  0  0  0  0
    6.3301    0.3450    0.0000 C   0  0  1  0  0  0  0  0  0  0  0  0
    4.5981   -5.6550    0.0000 C   0  0  0  0  0  0  0  0  0  0  0  0
    7.1962   -0.1550    0.0000 C   0  0  0  0  0  0  0  0  0  0  0  0
    6.3301    1.3450    0.0000 C   0  0  0  0  0  0  0  0  0  0  0  0
    7.1962    2.8450    0.0000 C   0  0  0  0  0  0  0  0  0  0  0  0
    6.3301   -5.6550    0.0000 C   0  0  0  0  0  0  0  0  0  0  0  0
    8.0622    3.3450    0.0000 C   0  0  0  0  0  0  0  0  0  0  0  0
    3.7320   -6.1550    0.0000 C   0  0  0  0  0  0  0  0  0  0  0  0
    8.0622   -7.6550    0.0000 C   0  0  0  0  0  0  0  0  0  0  0  0
    7.1962   -7.1550    0.0000 C   0  0  0  0  0  0  0  0  0  0  0  0
    8.0622    4.3450    0.0000 C   0  0  0  0  0  0  0  0  0  0  0  0
    8.0622   -8.6550    0.0000 C   0  0  0  0  0  0  0  0  0  0  0  0
    8.9282   -7.1550    0.0000 C   0  0  0  0  0  0  0  0  0  0  0  0
    7.1962    4.8450    0.0000 C   0  0  0  0  0  0  0  0  0  0  0  0
    8.9282    4.8450    0.0000 C   0  0  0  0  0  0  0  0  0  0  0  0
    8.0622    6.3450    0.0000 C   0  0  0  0  0  0  0  0  0  0  0  0
    7.1962    5.8450    0.0000 C   0  0  0  0  0  0  0  0  0  0  0  0
    8.9282    5.8450    0.0000 C   0  0  0  0  0  0  0  0  0  0  0  0
    4.1306   -0.6801    0.0000 H   0  0  0  0  0  0  0  0  0  0  0  0
    3.3335   -0.6801    0.0000 H   0  0  0  0  0  0  0  0  0  0  0  0
    5.1350   -1.9650    0.0000 H   0  0  0  0  0  0  0  0  0  0  0  0
    2.8660   -1.0350    0.0000 H   0  0  0  0  0  0  0  0  0  0  0  0
    4.0611   -2.9650    0.0000 H   0  0  0  0  0  0  0  0  0  0  0  0
    5.4641   -4.7750    0.0000 H   0  0  0  0  0  0  0  0  0  0  0  0
    2.3100   -0.6181    0.0000 H   0  0  0  0  0  0  0  0  0  0  0  0
    1.4631   -0.8450    0.0000 H   0  0  0  0  0  0  0  0  0  0  0  0
    1.6900   -1.6919    0.0000 H   0  0  0  0  0  0  0  0  0  0  0  0
    2.2460   -2.6550    0.0000 H   0  0  0  0  0  0  0  0  0  0  0  0
    2.8660   -3.2750    0.0000 H   0  0  0  0  0  0  0  0  0  0  0  0
    3.4860   -2.6550    0.0000 H   0  0  0  0  0  0  0  0  0  0  0  0
    4.3860   -4.0724    0.0000 H   0  0  0  0  0  0  0  0  0  0  0  0
    3.9875   -4.7627    0.0000 H   0  0  0  0  0  0  0  0  0  0  0  0
    5.7932    0.6550    0.0000 H   0  0  0  0  0  0  0  0  0  0  0  0
    4.9272    0.1550    0.0000 H   0  0  0  0  0  0  0  0  0  0  0  0
    6.8671   -4.3450    0.0000 H   0  0  0  0  0  0  0  0  0  0  0  0
    4.8101   -6.2376    0.0000 H   0  0  0  0  0  0  0  0  0  0  0  0
    5.2087   -5.5473    0.0000 H   0  0  0  0  0  0  0  0  0  0  0  0
    7.8067   -0.2627    0.0000 H   0  0  0  0  0  0  0  0  0  0  0  0
    7.4082    0.4276    0.0000 H   0  0  0  0  0  0  0  0  0  0  0  0
    7.7331    1.5350    0.0000 H   0  0  0  0  0  0  0  0  0  0  0  0
    6.9841    3.4276    0.0000 H   0  0  0  0  0  0  0  0  0  0  0  0
    6.5856    2.7373    0.0000 H   0  0  0  0  0  0  0  0  0  0  0  0
    8.2742    2.7624    0.0000 H   0  0  0  0  0  0  0  0  0  0  0  0
    8.6728    3.4527    0.0000 H   0  0  0  0  0  0  0  0  0  0  0  0
    8.0622   -7.0350    0.0000 H   0  0  0  0  0  0  0  0  0  0  0  0
    6.5856   -7.0473    0.0000 H   0  0  0  0  0  0  0  0  0  0  0  0
    6.9841   -7.7376    0.0000 H   0  0  0  0  0  0  0  0  0  0  0  0
    7.7331   -1.4650    0.0000 H   0  0  0  0  0  0  0  0  0  0  0  0
    7.4422   -8.6550    0.0000 H   0  0  0  0  0  0  0  0  0  0  0  0
    8.0622   -9.2750    0.0000 H   0  0  0  0  0  0  0  0  0  0  0  0
    8.6822   -8.6550    0.0000 H   0  0  0  0  0  0  0  0  0  0  0  0
    9.2382   -7.6919    0.0000 H   0  0  0  0  0  0  0  0  0  0  0  0
    9.4651   -6.8450    0.0000 H   0  0  0  0  0  0  0  0  0  0  0  0
    8.6182   -6.6181    0.0000 H   0  0  0  0  0  0  0  0  0  0  0  0
    6.6592    4.5350    0.0000 H   0  0  0  0  0  0  0  0  0  0  0  0
    9.4651    4.5350    0.0000 H   0  0  0  0  0  0  0  0  0  0  0  0
    6.6592    6.1550    0.0000 H   0  0  0  0  0  0  0  0  0  0  0  0
    9.4651    6.1550    0.0000 H   0  0  0  0  0  0  0  0  0  0  0  0
    3.1951   -7.4650    0.0000 H   0  0  0  0  0  0  0  0  0  0  0  0
    8.5991    8.6550    0.0000 H   0  0  0  0  0  0  0  0  0  0  0  0
    7.5252    8.6550    0.0000 H   0  0  0  0  0  0  0  0  0  0  0  0
  1 28  1  0  0  0  0
  1 73  1  0  0  0  0
  2 10  2  0  0  0  0
  2 11  2  0  0  0  0
  2 16  1  0  0  0  0
  2 41  1  0  0  0  0
  3 20  2  0  0  0  0
  4 24  2  0  0  0  0
  5 31  1  0  0  0  0
  5 35  1  0  0  0  0
  6 29  2  0  0  0  0
  7 33  1  0  0  0  0
  7 84  1  0  0  0  0
  8 31  2  0  0  0  0
  9 33  2  0  0  0  0
 18 12  1  1  0  0  0
 12 24  1  0  0  0  0
 12 48  1  0  0  0  0
 13 20  1  0  0  0  0
 26 13  1  6  0  0  0
 13 59  1  0  0  0  0
 21 14  1  1  0  0  0
 14 31  1  0  0  0  0
 14 60  1  0  0  0  0
 15 29  1  0  0  0  0
 15 30  1  0  0  0  0
 15 65  1  0  0  0  0
 16 85  1  0  0  0  0
 16 86  1  0  0  0  0
 17 18  1  0  0  0  0
 17 19  1  0  0  0  0
 17 44  1  0  0  0  0
 17 45  1  0  0  0  0
 18 20  1  0  0  0  0
 18 46  1  0  0  0  0
 19 22  1  0  0  0  0
 19 23  1  0  0  0  0
 19 47  1  0  0  0  0
 21 24  1  0  0  0  0
 21 25  1  0  0  0  0
 21 49  1  0  0  0  0
 22 50  1  0  0  0  0
 22 51  1  0  0  0  0
 22 52  1  0  0  0  0
 23 53  1  0  0  0  0
 23 54  1  0  0  0  0
 23 55  1  0  0  0  0
 25 27  1  0  0  0  0
 25 56  1  0  0  0  0
 25 57  1  0  0  0  0
 26 28  1  0  0  0  0
 26 29  1  0  0  0  0
 26 58  1  0  0  0  0
 27 33  1  0  0  0  0
 27 61  1  0  0  0  0
 27 62  1  0  0  0  0
 28 63  1  0  0  0  0
 28 64  1  0  0  0  0
 30 32  1  0  0  0  0
 30 66  1  0  0  0  0
 30 67  1  0  0  0  0
 32 36  1  0  0  0  0
 32 68  1  0  0  0  0
 32 69  1  0  0  0  0
 34 35  1  0  0  0  0
 34 37  1  0  0  0  0
 34 38  1  0  0  0  0
 34 70  1  0  0  0  0
 35 71  1  0  0  0  0
 35 72  1  0  0  0  0
 36 39  2  0  0  0  0
 36 40  1  0  0  0  0
 37 74  1  0  0  0  0
 37 75  1  0  0  0  0
 37 76  1  0  0  0  0
 38 77  1  0  0  0  0
 38 78  1  0  0  0  0
 38 79  1  0  0  0  0
 39 42  1  0  0  0  0
 39 80  1  0  0  0  0
 40 43  2  0  0  0  0
 40 81  1  0  0  0  0
 41 42  2  0  0  0  0
 41 43  1  0  0  0  0
 42 82  1  0  0  0  0
 43 83  1  0  0  0  0
M  END
> <PUBCHEM_COMPOUND_CID>
507458
> <PUBCHEM_COMPOUND_CANONICALIZED>
1
> <PUBCHEM_CACTVS_COMPLEXITY>
1040
> <PUBCHEM_CACTVS_HBOND_ACCEPTOR>
11
> <PUBCHEM_CACTVS_HBOND_DONOR>
7
> <PUBCHEM_CACTVS_ROTATABLE_BOND>
19
> <PUBCHEM_CACTVS_SUBSKEYS>
AAADcfB7vABgAAAAAAAAAAAAAAAAAAAAAAAwAAAAAAAAAAABAAAAHgQQSAAADSjl2AayCYLABgaIAiHSGHBCABAgAAAIiJmIAIkIYDKAkTGcYAAklgCIiAe8l4IOEAAAAAAAAAAgAAAAAAAAAAAAAAAAAA==
> <PUBCHEM_IUPAC_OPENEYE_NAME>
(4S)-4-(isobutoxycarbonylamino)-5-[[(1S)-3-methyl-1-[[(1R)-2-oxo-2-[2-(4-sulfamoylphenyl)ethylamino]-1-(sulfanylmethyl)ethyl]carbamoyl]butyl]amino]-5-oxo-pentanoic acid
> <PUBCHEM_IUPAC_CAS_NAME>
(4S)-5-[[(2S)-1-[[(2R)-3-mercapto-1-oxo-1-[2-(4-sulfamoylphenyl)ethylamino]propan-2-yl]amino]-4-methyl-1-oxopentan-2-yl]amino]-4-[[2-methylpropoxy(oxo)methyl]amino]-5-oxopentanoic acid
> <PUBCHEM_IUPAC_NAME_MARKUP>
(4<I>S</I>)-5-[[(2<I>S</I>)-4-methyl-1-oxo-1-[[(2<I>R</I>)-1-oxo-1-[2-(4-sulfamoylphenyl)ethylamino]-3-sulfanylpropan-2-yl]amino]pentan-2-yl]amino]-4-(2-methylpropoxycarbonylamino)-5-oxopentanoic acid
> <PUBCHEM_IUPAC_NAME>
(4S)-5-[[(2S)-4-methyl-1-oxo-1-[[(2R)-1-oxo-1-[2-(4-sulfamoylphenyl)ethylamino]-3-sulfanylpropan-2-yl]amino]pentan-2-yl]amino]-4-(2-methylpropoxycarbonylamino)-5-oxopentanoic acid
> <PUBCHEM_IUPAC_SYSTEMATIC_NAME>
(4S)-5-[[(2S)-4-methyl-1-oxidanylidene-1-[[(2R)-1-oxidanylidene-1-[2-(4-sulfamoylphenyl)ethylamino]-3-sulfanyl-propan-2-yl]amino]pentan-2-yl]amino]-4-(2-methylpropoxycarbonylamino)-5-oxidanylidene-pentanoic acid
> <PUBCHEM_IUPAC_TRADITIONAL_NAME>
(4S)-4-(isobutoxycarbonylamino)-5-keto-5-[[(1S)-1-[[(1R)-2-keto-1-(mercaptomethyl)-2-[2-(4-sulfamoylphenyl)ethylamino]ethyl]carbamoyl]-3-methyl-butyl]amino]valeric acid
> <PUBCHEM_IUPAC_INCHI>
InChI=1S/C27H43N5O9S2/c1-16(2)13-21(30-25(36)20(9-10-23(33)34)32-27(38)41-14-17(3)4)26(37)31-22(15-42)24(35)29-12-11-18-5-7-19(8-6-18)43(28,39)40/h5-8,16-17,20-22,42H,9-15H2,1-4H3,(H,29,35)(H,30,36)(H,31,37)(H,32,38)(H,33,34)(H2,28,39,40)/t20-,21-,22-/m0/s1
> <PUBCHEM_IUPAC_INCHIKEY>
YDQQNRRSRWVSGN-FKBYEOEOSA-N
> <PUBCHEM_XLOGP3_AA>
1.8
> <PUBCHEM_EXACT_MASS>
645.25022031
> <PUBCHEM_MOLECULAR_FORMULA>
C27H43N5O9S2
> <PUBCHEM_MOLECULAR_WEIGHT>
645.8
> <PUBCHEM_OPENEYE_CAN_SMILES>
CC(C)CC(C(=O)NC(CS)C(=O)NCCC1=CC=C(C=C1)S(=O)(=O)N)NC(=O)C(CCC(=O)O)NC(=O)OCC(C)C
> <PUBCHEM_OPENEYE_ISO_SMILES>
CC(C)C[C@@H](C(=O)N[C@@H](CS)C(=O)NCCC1=CC=C(C=C1)S(=O)(=O)N)NC(=O)[C@H](CCC(=O)O)NC(=O)OCC(C)C
> <PUBCHEM_CACTVS_TPSA>
233
> <PUBCHEM_MONOISOTOPIC_WEIGHT>
645.25022031
> <PUBCHEM_TOTAL_CHARGE>
0
> <PUBCHEM_HEAVY_ATOM_COUNT>
43
> <PUBCHEM_ATOM_DEF_STEREO_COUNT>
3
> <PUBCHEM_ATOM_UDEF_STEREO_COUNT>
0
> <PUBCHEM_BOND_DEF_STEREO_COUNT>
0
> <PUBCHEM_BOND_UDEF_STEREO_COUNT>
0
> <PUBCHEM_ISOTOPIC_ATOM_COUNT>
0
> <PUBCHEM_COMPONENT_COUNT>
1
> <PUBCHEM_CACTVS_TAUTO_COUNT>
-1
> <PUBCHEM_COORDINATE_TYPE>
1
5
255
> <PUBCHEM_BONDANNOTATIONS>
18  12  5
26  13  6
21  14  5
36  39  8
36  40  8
39  42  8
40  43  8
41  42  8
41  43  8
$$$$
