507482
  -OEChem-10302200282D
 87 87  0     1  0  0  0  0  0999 V2000
    2.0000    4.6900    0.0000 Cl  0  0  0  0  0  0  0  0  0  0  0  0
    4.5981   -0.8100    0.0000 S   0  0  0  0  0  0  0  0  0  0  0  0
    5.4641   -2.3100    0.0000 O   0  0  0  0  0  0  0  0  0  0  0  0
    5.4641   -1.3100    0.0000 O   0  0  0  0  0  0  0  0  0  0  0  0
    4.5981   -5.8100    0.0000 O   0  0  0  0  0  0  0  0  0  0  0  0
    6.3301   -5.8100    0.0000 O   0  0  0  0  0  0  0  0  0  0  0  0
    6.3301    2.1900    0.0000 O   0  0  0  0  0  0  0  0  0  0  0  0
    4.5981    8.1900    0.0000 O   0  0  0  0  0  0  0  0  0  0  0  0
    2.8660    8.1900    0.0000 O   0  0  0  0  0  0  0  0  0  0  0  0
    7.1962   -2.3100    0.0000 N   0  0  0  0  0  0  0  0  0  0  0  0
    5.4641   -4.3100    0.0000 N   0  0  0  0  0  0  0  0  0  0  0  0
    6.3301    0.1900    0.0000 N   0  0  0  0  0  0  0  0  0  0  0  0
    4.5981    2.1900    0.0000 N   0  0  0  0  0  0  0  0  0  0  0  0
    7.1962   -1.3100    0.0000 C   0  0  1  0  0  0  0  0  0  0  0  0
    8.0622   -0.8100    0.0000 C   0  0  0  0  0  0  0  0  0  0  0  0
    8.9282   -1.3100    0.0000 C   0  0  0  0  0  0  0  0  0  0  0  0
    6.3301   -3.8100    0.0000 C   0  0  1  0  0  0  0  0  0  0  0  0
    7.1962   -4.3100    0.0000 C   0  0  0  0  0  0  0  0  0  0  0  0
    6.3301   -2.8100    0.0000 C   0  0  0  0  0  0  0  0  0  0  0  0
    6.3301   -0.8100    0.0000 C   0  0  0  0  0  0  0  0  0  0  0  0
    9.7942   -0.8100    0.0000 C   0  0  0  0  0  0  0  0  0  0  0  0
    8.9282   -2.3100    0.0000 C   0  0  0  0  0  0  0  0  0  0  0  0
    7.1962   -5.3100    0.0000 C   0  0  0  0  0  0  0  0  0  0  0  0
    8.0622   -3.8100    0.0000 C   0  0  0  0  0  0  0  0  0  0  0  0
    5.4641    0.6900    0.0000 C   0  0  1  0  0  0  0  0  0  0  0  0
    4.5981    0.1900    0.0000 C   0  0  0  0  0  0  0  0  0  0  0  0
    5.4641   -5.3100    0.0000 C   0  0  0  0  0  0  0  0  0  0  0  0
    5.4641    1.6900    0.0000 C   0  0  0  0  0  0  0  0  0  0  0  0
    3.7320   -8.3100    0.0000 C   0  0  0  0  0  0  0  0  0  0  0  0
    3.7320   -7.3100    0.0000 C   0  0  0  0  0  0  0  0  0  0  0  0
    4.5981   -6.8100    0.0000 C   0  0  0  0  0  0  0  0  0  0  0  0
    4.5981    3.1900    0.0000 C   0  0  0  0  0  0  0  0  0  0  0  0
    2.8660   -8.8100    0.0000 C   0  0  0  0  0  0  0  0  0  0  0  0
    4.5981   -8.8100    0.0000 C   0  0  0  0  0  0  0  0  0  0  0  0
    3.7320    3.6900    0.0000 C   0  0  0  0  0  0  0  0  0  0  0  0
    3.7320    4.6900    0.0000 C   0  0  0  0  0  0  0  0  0  0  0  0
    2.8660    5.1900    0.0000 C   0  0  0  0  0  0  0  0  0  0  0  0
    4.5981    5.1900    0.0000 C   0  0  0  0  0  0  0  0  0  0  0  0
    2.8660    6.1900    0.0000 C   0  0  0  0  0  0  0  0  0  0  0  0
    4.5981    6.1900    0.0000 C   0  0  0  0  0  0  0  0  0  0  0  0
    3.7320    6.6900    0.0000 C   0  0  0  0  0  0  0  0  0  0  0  0
    3.7320    7.6900    0.0000 C   0  0  0  0  0  0  0  0  0  0  0  0
    6.6592   -1.6200    0.0000 H   0  0  0  0  0  0  0  0  0  0  0  0
    8.4607   -0.3351    0.0000 H   0  0  0  0  0  0  0  0  0  0  0  0
    7.6636   -0.3351    0.0000 H   0  0  0  0  0  0  0  0  0  0  0  0
    9.4651   -1.6200    0.0000 H   0  0  0  0  0  0  0  0  0  0  0  0
    5.7932   -3.5000    0.0000 H   0  0  0  0  0  0  0  0  0  0  0  0
    6.6592   -4.6200    0.0000 H   0  0  0  0  0  0  0  0  0  0  0  0
    7.7331   -2.6200    0.0000 H   0  0  0  0  0  0  0  0  0  0  0  0
   10.1042   -1.3469    0.0000 H   0  0  0  0  0  0  0  0  0  0  0  0
   10.3312   -0.5000    0.0000 H   0  0  0  0  0  0  0  0  0  0  0  0
    9.4842   -0.2731    0.0000 H   0  0  0  0  0  0  0  0  0  0  0  0
    8.3082   -2.3100    0.0000 H   0  0  0  0  0  0  0  0  0  0  0  0
    8.9282   -2.9300    0.0000 H   0  0  0  0  0  0  0  0  0  0  0  0
    9.5482   -2.3100    0.0000 H   0  0  0  0  0  0  0  0  0  0  0  0
    6.5762   -5.3100    0.0000 H   0  0  0  0  0  0  0  0  0  0  0  0
    7.1962   -5.9300    0.0000 H   0  0  0  0  0  0  0  0  0  0  0  0
    7.8162   -5.3100    0.0000 H   0  0  0  0  0  0  0  0  0  0  0  0
    8.3722   -4.3469    0.0000 H   0  0  0  0  0  0  0  0  0  0  0  0
    8.5991   -3.5000    0.0000 H   0  0  0  0  0  0  0  0  0  0  0  0
    7.7522   -3.2731    0.0000 H   0  0  0  0  0  0  0  0  0  0  0  0
    4.9272   -4.0000    0.0000 H   0  0  0  0  0  0  0  0  0  0  0  0
    6.8671    0.5000    0.0000 H   0  0  0  0  0  0  0  0  0  0  0  0
    5.4641    0.0700    0.0000 H   0  0  0  0  0  0  0  0  0  0  0  0
    4.3860    0.7726    0.0000 H   0  0  0  0  0  0  0  0  0  0  0  0
    3.9875    0.0823    0.0000 H   0  0  0  0  0  0  0  0  0  0  0  0
    3.7320   -8.9300    0.0000 H   0  0  0  0  0  0  0  0  0  0  0  0
    3.5200   -6.7274    0.0000 H   0  0  0  0  0  0  0  0  0  0  0  0
    3.1215   -7.4177    0.0000 H   0  0  0  0  0  0  0  0  0  0  0  0
    4.8101   -7.3926    0.0000 H   0  0  0  0  0  0  0  0  0  0  0  0
    5.2087   -6.7023    0.0000 H   0  0  0  0  0  0  0  0  0  0  0  0
    4.0611    1.8800    0.0000 H   0  0  0  0  0  0  0  0  0  0  0  0
    5.2087    3.0823    0.0000 H   0  0  0  0  0  0  0  0  0  0  0  0
    4.8101    3.7726    0.0000 H   0  0  0  0  0  0  0  0  0  0  0  0
    2.5560   -8.2731    0.0000 H   0  0  0  0  0  0  0  0  0  0  0  0
    2.3291   -9.1200    0.0000 H   0  0  0  0  0  0  0  0  0  0  0  0
    3.1760   -9.3469    0.0000 H   0  0  0  0  0  0  0  0  0  0  0  0
    4.2881   -9.3469    0.0000 H   0  0  0  0  0  0  0  0  0  0  0  0
    5.1350   -9.1200    0.0000 H   0  0  0  0  0  0  0  0  0  0  0  0
    4.9081   -8.2731    0.0000 H   0  0  0  0  0  0  0  0  0  0  0  0
    3.1215    3.7977    0.0000 H   0  0  0  0  0  0  0  0  0  0  0  0
    3.5200    3.1074    0.0000 H   0  0  0  0  0  0  0  0  0  0  0  0
    4.0611   -1.1200    0.0000 H   0  0  0  0  0  0  0  0  0  0  0  0
    5.1350    4.8800    0.0000 H   0  0  0  0  0  0  0  0  0  0  0  0
    2.3291    6.5000    0.0000 H   0  0  0  0  0  0  0  0  0  0  0  0
    5.1350    6.5000    0.0000 H   0  0  0  0  0  0  0  0  0  0  0  0
    4.5981    8.8100    0.0000 H   0  0  0  0  0  0  0  0  0  0  0  0
  1 37  1  0  0  0  0
  2 26  1  0  0  0  0
  2 83  1  0  0  0  0
  3 19  2  0  0  0  0
  4 20  2  0  0  0  0
  5 27  1  0  0  0  0
  5 31  1  0  0  0  0
  6 27  2  0  0  0  0
  7 28  2  0  0  0  0
  8 42  1  0  0  0  0
  8 87  1  0  0  0  0
  9 42  2  0  0  0  0
 14 10  1  6  0  0  0
 10 19  1  0  0  0  0
 10 49  1  0  0  0  0
 17 11  1  6  0  0  0
 11 27  1  0  0  0  0
 11 62  1  0  0  0  0
 12 20  1  0  0  0  0
 25 12  1  1  0  0  0
 12 63  1  0  0  0  0
 13 28  1  0  0  0  0
 13 32  1  0  0  0  0
 13 72  1  0  0  0  0
 14 15  1  0  0  0  0
 14 20  1  0  0  0  0
 14 43  1  0  0  0  0
 15 16  1  0  0  0  0
 15 44  1  0  0  0  0
 15 45  1  0  0  0  0
 16 21  1  0  0  0  0
 16 22  1  0  0  0  0
 16 46  1  0  0  0  0
 17 18  1  0  0  0  0
 17 19  1  0  0  0  0
 17 47  1  0  0  0  0
 18 23  1  0  0  0  0
 18 24  1  0  0  0  0
 18 48  1  0  0  0  0
 21 50  1  0  0  0  0
 21 51  1  0  0  0  0
 21 52  1  0  0  0  0
 22 53  1  0  0  0  0
 22 54  1  0  0  0  0
 22 55  1  0  0  0  0
 23 56  1  0  0  0  0
 23 57  1  0  0  0  0
 23 58  1  0  0  0  0
 24 59  1  0  0  0  0
 24 60  1  0  0  0  0
 24 61  1  0  0  0  0
 25 26  1  0  0  0  0
 25 28  1  0  0  0  0
 25 64  1  0  0  0  0
 26 65  1  0  0  0  0
 26 66  1  0  0  0  0
 29 30  1  0  0  0  0
 29 33  1  0  0  0  0
 29 34  1  0  0  0  0
 29 67  1  0  0  0  0
 30 31  1  0  0  0  0
 30 68  1  0  0  0  0
 30 69  1  0  0  0  0
 31 70  1  0  0  0  0
 31 71  1  0  0  0  0
 32 35  1  0  0  0  0
 32 73  1  0  0  0  0
 32 74  1  0  0  0  0
 33 75  1  0  0  0  0
 33 76  1  0  0  0  0
 33 77  1  0  0  0  0
 34 78  1  0  0  0  0
 34 79  1  0  0  0  0
 34 80  1  0  0  0  0
 35 36  1  0  0  0  0
 35 81  1  0  0  0  0
 35 82  1  0  0  0  0
 36 37  2  0  0  0  0
 36 38  1  0  0  0  0
 37 39  1  0  0  0  0
 38 40  2  0  0  0  0
 38 84  1  0  0  0  0
 39 41  2  0  0  0  0
 39 85  1  0  0  0  0
 40 41  1  0  0  0  0
 40 86  1  0  0  0  0
 41 42  1  0  0  0  0
M  END
> <PUBCHEM_COMPOUND_CID>
507482
> <PUBCHEM_COMPOUND_CANONICALIZED>
1
> <PUBCHEM_CACTVS_COMPLEXITY>
905
> <PUBCHEM_CACTVS_HBOND_ACCEPTOR>
8
> <PUBCHEM_CACTVS_HBOND_DONOR>
6
> <PUBCHEM_CACTVS_ROTATABLE_BOND>
18
> <PUBCHEM_CACTVS_SUBSKEYS>
AAADcfB7uABEAAAAAAAAAAAAAAAAAAAAAAAwAAAAAAAAAAABAAAAHgYQCAAADSrl2CayCILABgSIAiHSGAACAAAkBQAIiIGICskIZjKBlzGccQAk1gGImYeYyPCOQAAAIAABAACAAABAAAIAAAAAAAAAAA==
> <PUBCHEM_IUPAC_OPENEYE_NAME>
3-chloro-4-[2-[[(2R)-2-[[(2S)-2-[[(2S)-2-(isopentyloxycarbonylamino)-3-methyl-butanoyl]amino]-4-methyl-pentanoyl]amino]-3-sulfanyl-propanoyl]amino]ethyl]benzoic acid
> <PUBCHEM_IUPAC_CAS_NAME>
3-chloro-4-[2-[[(2R)-3-mercapto-2-[[(2S)-4-methyl-2-[[(2S)-3-methyl-2-[[3-methylbutoxy(oxo)methyl]amino]-1-oxobutyl]amino]-1-oxopentyl]amino]-1-oxopropyl]amino]ethyl]benzoic acid
> <PUBCHEM_IUPAC_NAME_MARKUP>
3-chloro-4-[2-[[(2<I>R</I>)-2-[[(2<I>S</I>)-4-methyl-2-[[(2<I>S</I>)-3-methyl-2-(3-methylbutoxycarbonylamino)butanoyl]amino]pentanoyl]amino]-3-sulfanylpropanoyl]amino]ethyl]benzoic acid
> <PUBCHEM_IUPAC_NAME>
3-chloro-4-[2-[[(2R)-2-[[(2S)-4-methyl-2-[[(2S)-3-methyl-2-(3-methylbutoxycarbonylamino)butanoyl]amino]pentanoyl]amino]-3-sulfanylpropanoyl]amino]ethyl]benzoic acid
> <PUBCHEM_IUPAC_SYSTEMATIC_NAME>
3-chloranyl-4-[2-[[(2R)-2-[[(2S)-4-methyl-2-[[(2S)-3-methyl-2-(3-methylbutoxycarbonylamino)butanoyl]amino]pentanoyl]amino]-3-sulfanyl-propanoyl]amino]ethyl]benzoic acid
> <PUBCHEM_IUPAC_TRADITIONAL_NAME>
3-chloro-4-[2-[[(2R)-2-[[(2S)-2-[[(2S)-2-(isoamoxycarbonylamino)-3-methyl-butanoyl]amino]-4-methyl-pentanoyl]amino]-3-mercapto-propanoyl]amino]ethyl]benzoic acid
> <PUBCHEM_IUPAC_INCHI>
InChI=1S/C29H45ClN4O7S/c1-16(2)10-12-41-29(40)34-24(18(5)6)27(37)32-22(13-17(3)4)26(36)33-23(15-42)25(35)31-11-9-19-7-8-20(28(38)39)14-21(19)30/h7-8,14,16-18,22-24,42H,9-13,15H2,1-6H3,(H,31,35)(H,32,37)(H,33,36)(H,34,40)(H,38,39)/t22-,23-,24-/m0/s1
> <PUBCHEM_IUPAC_INCHIKEY>
IWJZWSSQBCUARW-HJOGWXRNSA-N
> <PUBCHEM_XLOGP3_AA>
5.2
> <PUBCHEM_EXACT_MASS>
628.2697487
> <PUBCHEM_MOLECULAR_FORMULA>
C29H45ClN4O7S
> <PUBCHEM_MOLECULAR_WEIGHT>
629.2
> <PUBCHEM_OPENEYE_CAN_SMILES>
CC(C)CCOC(=O)NC(C(C)C)C(=O)NC(CC(C)C)C(=O)NC(CS)C(=O)NCCC1=C(C=C(C=C1)C(=O)O)Cl
> <PUBCHEM_OPENEYE_ISO_SMILES>
CC(C)CCOC(=O)N[C@@H](C(C)C)C(=O)N[C@@H](CC(C)C)C(=O)N[C@@H](CS)C(=O)NCCC1=C(C=C(C=C1)C(=O)O)Cl
> <PUBCHEM_CACTVS_TPSA>
164
> <PUBCHEM_MONOISOTOPIC_WEIGHT>
628.2697487
> <PUBCHEM_TOTAL_CHARGE>
0
> <PUBCHEM_HEAVY_ATOM_COUNT>
42
> <PUBCHEM_ATOM_DEF_STEREO_COUNT>
3
> <PUBCHEM_ATOM_UDEF_STEREO_COUNT>
0
> <PUBCHEM_BOND_DEF_STEREO_COUNT>
0
> <PUBCHEM_BOND_UDEF_STEREO_COUNT>
0
> <PUBCHEM_ISOTOPIC_ATOM_COUNT>
0
> <PUBCHEM_COMPONENT_COUNT>
1
> <PUBCHEM_CACTVS_TAUTO_COUNT>
-1
> <PUBCHEM_COORDINATE_TYPE>
1
5
255
> <PUBCHEM_BONDANNOTATIONS>
14  10  6
17  11  6
25  12  5
36  37  8
36  38  8
37  39  8
38  40  8
39  41  8
40  41  8
$$$$
