507437
  -OEChem-10302200282D
 91 92  0     1  0  0  0  0  0999 V2000
    8.9282   -0.6900    0.0000 S   0  0  0  0  0  0  0  0  0  0  0  0
    8.9282   -1.6900    0.0000 O   0  0  0  0  0  0  0  0  0  0  0  0
    8.0622   -2.1900    0.0000 O   0  0  0  0  0  0  0  0  0  0  0  0
    4.5981   -3.1900    0.0000 O   0  0  0  0  0  0  0  0  0  0  0  0
   12.3923   -0.6900    0.0000 O   0  0  0  0  0  0  0  0  0  0  0  0
    5.4641   -6.6900    0.0000 O   0  0  0  0  0  0  0  0  0  0  0  0
    5.4641   -4.6900    0.0000 O   0  0  0  0  0  0  0  0  0  0  0  0
    7.1962   -6.6900    0.0000 O   0  0  0  0  0  0  0  0  0  0  0  0
    8.9282   -3.6900    0.0000 N   0  0  0  0  0  0  0  0  0  0  0  0
   10.6603   -1.6900    0.0000 N   0  0  0  0  0  0  0  0  0  0  0  0
    6.3301   -3.1900    0.0000 N   0  0  0  0  0  0  0  0  0  0  0  0
   11.5263    0.8100    0.0000 N   0  0  0  0  0  0  0  0  0  0  0  0
   10.6603   -3.6900    0.0000 C   0  0  0  0  0  0  0  0  0  0  0  0
    9.7942   -3.1900    0.0000 C   0  0  1  0  0  0  0  0  0  0  0  0
   10.6603   -4.6900    0.0000 C   0  0  0  0  0  0  0  0  0  0  0  0
    9.7942   -2.1900    0.0000 C   0  0  0  0  0  0  0  0  0  0  0  0
    7.1962   -3.6900    0.0000 C   0  0  2  0  0  0  0  0  0  0  0  0
   11.5263   -5.1900    0.0000 C   0  0  0  0  0  0  0  0  0  0  0  0
    9.7942   -5.1900    0.0000 C   0  0  0  0  0  0  0  0  0  0  0  0
    8.0622   -3.1900    0.0000 C   0  0  0  0  0  0  0  0  0  0  0  0
    7.1962   -4.6900    0.0000 C   0  0  0  0  0  0  0  0  0  0  0  0
   10.6603   -0.6900    0.0000 C   0  0  1  0  0  0  0  0  0  0  0  0
    6.3301   -5.1900    0.0000 C   0  0  0  0  0  0  0  0  0  0  0  0
    9.7942   -0.1900    0.0000 C   0  0  0  0  0  0  0  0  0  0  0  0
   11.5263   -0.1900    0.0000 C   0  0  0  0  0  0  0  0  0  0  0  0
   12.3923    1.3100    0.0000 C   0  0  0  0  0  0  0  0  0  0  0  0
    5.4641   -3.6900    0.0000 C   0  0  0  0  0  0  0  0  0  0  0  0
   12.3923    2.3100    0.0000 C   0  0  0  0  0  0  0  0  0  0  0  0
    6.3301   -6.1900    0.0000 C   0  0  0  0  0  0  0  0  0  0  0  0
    2.8660   -3.1900    0.0000 C   0  0  0  0  0  0  0  0  0  0  0  0
   13.2583    2.8100    0.0000 C   0  0  0  0  0  0  0  0  0  0  0  0
    3.7320   -3.6900    0.0000 C   0  0  0  0  0  0  0  0  0  0  0  0
   13.2583    3.8100    0.0000 C   0  0  0  0  0  0  0  0  0  0  0  0
   14.1244    2.3100    0.0000 C   0  0  0  0  0  0  0  0  0  0  0  0
    2.0000   -3.6900    0.0000 C   0  0  0  0  0  0  0  0  0  0  0  0
    2.8660   -2.1900    0.0000 C   0  0  0  0  0  0  0  0  0  0  0  0
   14.1244    4.3100    0.0000 C   0  0  0  0  0  0  0  0  0  0  0  0
   14.9904    2.8100    0.0000 C   0  0  0  0  0  0  0  0  0  0  0  0
   14.9904    3.8100    0.0000 C   0  0  0  0  0  0  0  0  0  0  0  0
   14.1244    5.3100    0.0000 C   0  0  0  0  0  0  0  0  0  0  0  0
   13.2583    5.8100    0.0000 C   0  0  0  0  0  0  0  0  0  0  0  0
   14.9904    5.8100    0.0000 C   0  0  0  0  0  0  0  0  0  0  0  0
   13.2583    6.8100    0.0000 C   0  0  0  0  0  0  0  0  0  0  0  0
   14.9904    6.8100    0.0000 C   0  0  0  0  0  0  0  0  0  0  0  0
   14.1244    7.3100    0.0000 C   0  0  0  0  0  0  0  0  0  0  0  0
   11.2708   -3.7977    0.0000 H   0  0  0  0  0  0  0  0  0  0  0  0
   10.8723   -3.1074    0.0000 H   0  0  0  0  0  0  0  0  0  0  0  0
    9.2573   -2.8800    0.0000 H   0  0  0  0  0  0  0  0  0  0  0  0
   11.1972   -4.3800    0.0000 H   0  0  0  0  0  0  0  0  0  0  0  0
    8.9282   -4.3100    0.0000 H   0  0  0  0  0  0  0  0  0  0  0  0
    6.6592   -4.0000    0.0000 H   0  0  0  0  0  0  0  0  0  0  0  0
   11.2163   -5.7269    0.0000 H   0  0  0  0  0  0  0  0  0  0  0  0
   12.0632   -5.5000    0.0000 H   0  0  0  0  0  0  0  0  0  0  0  0
   11.8363   -4.6531    0.0000 H   0  0  0  0  0  0  0  0  0  0  0  0
    9.4842   -4.6531    0.0000 H   0  0  0  0  0  0  0  0  0  0  0  0
    9.2573   -5.5000    0.0000 H   0  0  0  0  0  0  0  0  0  0  0  0
   10.1042   -5.7269    0.0000 H   0  0  0  0  0  0  0  0  0  0  0  0
    7.4082   -5.2726    0.0000 H   0  0  0  0  0  0  0  0  0  0  0  0
    7.8067   -4.5823    0.0000 H   0  0  0  0  0  0  0  0  0  0  0  0
   11.1972   -1.0000    0.0000 H   0  0  0  0  0  0  0  0  0  0  0  0
   11.1972   -2.0000    0.0000 H   0  0  0  0  0  0  0  0  0  0  0  0
    6.3301   -2.5700    0.0000 H   0  0  0  0  0  0  0  0  0  0  0  0
    6.1181   -4.6074    0.0000 H   0  0  0  0  0  0  0  0  0  0  0  0
    5.7196   -5.2977    0.0000 H   0  0  0  0  0  0  0  0  0  0  0  0
   10.1928    0.2849    0.0000 H   0  0  0  0  0  0  0  0  0  0  0  0
    9.3957    0.2849    0.0000 H   0  0  0  0  0  0  0  0  0  0  0  0
   10.9893    1.1200    0.0000 H   0  0  0  0  0  0  0  0  0  0  0  0
   12.6044    0.7274    0.0000 H   0  0  0  0  0  0  0  0  0  0  0  0
   13.0029    1.4177    0.0000 H   0  0  0  0  0  0  0  0  0  0  0  0
   12.1803    2.8926    0.0000 H   0  0  0  0  0  0  0  0  0  0  0  0
   11.7817    2.2023    0.0000 H   0  0  0  0  0  0  0  0  0  0  0  0
    2.8660   -3.8100    0.0000 H   0  0  0  0  0  0  0  0  0  0  0  0
    3.3335   -4.1650    0.0000 H   0  0  0  0  0  0  0  0  0  0  0  0
    4.1306   -4.1650    0.0000 H   0  0  0  0  0  0  0  0  0  0  0  0
    8.3913   -0.3800    0.0000 H   0  0  0  0  0  0  0  0  0  0  0  0
   12.7214    4.1200    0.0000 H   0  0  0  0  0  0  0  0  0  0  0  0
   14.1244    1.6900    0.0000 H   0  0  0  0  0  0  0  0  0  0  0  0
    1.6900   -3.1531    0.0000 H   0  0  0  0  0  0  0  0  0  0  0  0
    1.4631   -4.0000    0.0000 H   0  0  0  0  0  0  0  0  0  0  0  0
    2.3100   -4.2269    0.0000 H   0  0  0  0  0  0  0  0  0  0  0  0
    3.4860   -2.1900    0.0000 H   0  0  0  0  0  0  0  0  0  0  0  0
    2.8660   -1.5700    0.0000 H   0  0  0  0  0  0  0  0  0  0  0  0
    2.2460   -2.1900    0.0000 H   0  0  0  0  0  0  0  0  0  0  0  0
   15.5273    2.5000    0.0000 H   0  0  0  0  0  0  0  0  0  0  0  0
   15.5273    4.1200    0.0000 H   0  0  0  0  0  0  0  0  0  0  0  0
    5.4641   -7.3100    0.0000 H   0  0  0  0  0  0  0  0  0  0  0  0
   12.7214    5.5000    0.0000 H   0  0  0  0  0  0  0  0  0  0  0  0
   15.5273    5.5000    0.0000 H   0  0  0  0  0  0  0  0  0  0  0  0
   12.7214    7.1200    0.0000 H   0  0  0  0  0  0  0  0  0  0  0  0
   15.5273    7.1200    0.0000 H   0  0  0  0  0  0  0  0  0  0  0  0
   14.1244    7.9300    0.0000 H   0  0  0  0  0  0  0  0  0  0  0  0
  1 24  1  0  0  0  0
  1 75  1  0  0  0  0
  2 16  2  0  0  0  0
  3 20  2  0  0  0  0
  4 27  1  0  0  0  0
  4 32  1  0  0  0  0
  5 25  2  0  0  0  0
  6 29  1  0  0  0  0
  6 86  1  0  0  0  0
  7 27  2  0  0  0  0
  8 29  2  0  0  0  0
 14  9  1  6  0  0  0
  9 20  1  0  0  0  0
  9 50  1  0  0  0  0
 10 16  1  0  0  0  0
 22 10  1  1  0  0  0
 10 61  1  0  0  0  0
 17 11  1  6  0  0  0
 11 27  1  0  0  0  0
 11 62  1  0  0  0  0
 12 25  1  0  0  0  0
 12 26  1  0  0  0  0
 12 67  1  0  0  0  0
 13 14  1  0  0  0  0
 13 15  1  0  0  0  0
 13 46  1  0  0  0  0
 13 47  1  0  0  0  0
 14 16  1  0  0  0  0
 14 48  1  0  0  0  0
 15 18  1  0  0  0  0
 15 19  1  0  0  0  0
 15 49  1  0  0  0  0
 17 20  1  0  0  0  0
 17 21  1  0  0  0  0
 17 51  1  0  0  0  0
 18 52  1  0  0  0  0
 18 53  1  0  0  0  0
 18 54  1  0  0  0  0
 19 55  1  0  0  0  0
 19 56  1  0  0  0  0
 19 57  1  0  0  0  0
 21 23  1  0  0  0  0
 21 58  1  0  0  0  0
 21 59  1  0  0  0  0
 22 24  1  0  0  0  0
 22 25  1  0  0  0  0
 22 60  1  0  0  0  0
 23 29  1  0  0  0  0
 23 63  1  0  0  0  0
 23 64  1  0  0  0  0
 24 65  1  0  0  0  0
 24 66  1  0  0  0  0
 26 28  1  0  0  0  0
 26 68  1  0  0  0  0
 26 69  1  0  0  0  0
 28 31  1  0  0  0  0
 28 70  1  0  0  0  0
 28 71  1  0  0  0  0
 30 32  1  0  0  0  0
 30 35  1  0  0  0  0
 30 36  1  0  0  0  0
 30 72  1  0  0  0  0
 31 33  2  0  0  0  0
 31 34  1  0  0  0  0
 32 73  1  0  0  0  0
 32 74  1  0  0  0  0
 33 37  1  0  0  0  0
 33 76  1  0  0  0  0
 34 38  2  0  0  0  0
 34 77  1  0  0  0  0
 35 78  1  0  0  0  0
 35 79  1  0  0  0  0
 35 80  1  0  0  0  0
 36 81  1  0  0  0  0
 36 82  1  0  0  0  0
 36 83  1  0  0  0  0
 37 39  2  0  0  0  0
 37 40  1  0  0  0  0
 38 39  1  0  0  0  0
 38 84  1  0  0  0  0
 39 85  1  0  0  0  0
 40 41  2  0  0  0  0
 40 42  1  0  0  0  0
 41 43  1  0  0  0  0
 41 87  1  0  0  0  0
 42 44  2  0  0  0  0
 42 88  1  0  0  0  0
 43 45  2  0  0  0  0
 43 89  1  0  0  0  0
 44 45  1  0  0  0  0
 44 90  1  0  0  0  0
 45 91  1  0  0  0  0
M  END
> <PUBCHEM_COMPOUND_CID>
507437
> <PUBCHEM_COMPOUND_CANONICALIZED>
1
> <PUBCHEM_CACTVS_COMPLEXITY>
957
> <PUBCHEM_CACTVS_HBOND_ACCEPTOR>
8
> <PUBCHEM_CACTVS_HBOND_DONOR>
6
> <PUBCHEM_CACTVS_ROTATABLE_BOND>
19
> <PUBCHEM_CACTVS_SUBSKEYS>
AAADcfB/uABAAAAAAAAAAAAAAAAAAAAAAAAwYAAAAAAAAAABQAAAHgQQCAAADSjl2AayCILABgSIAiHSGAACAAAgAAAIiIGIAIkIYDKAkTGcYAAklgCIiAe8l8IOgAACAAAAAAAAAAQAAAAAAAAAAAAAAA==
> <PUBCHEM_IUPAC_OPENEYE_NAME>
(4S)-4-(isobutoxycarbonylamino)-5-[[(1S)-3-methyl-1-[[(1R)-2-oxo-2-[2-(3-phenylphenyl)ethylamino]-1-(sulfanylmethyl)ethyl]carbamoyl]butyl]amino]-5-oxo-pentanoic acid
> <PUBCHEM_IUPAC_CAS_NAME>
(4S)-5-[[(2S)-1-[[(2R)-3-mercapto-1-oxo-1-[2-(3-phenylphenyl)ethylamino]propan-2-yl]amino]-4-methyl-1-oxopentan-2-yl]amino]-4-[[2-methylpropoxy(oxo)methyl]amino]-5-oxopentanoic acid
> <PUBCHEM_IUPAC_NAME_MARKUP>
(4<I>S</I>)-5-[[(2<I>S</I>)-4-methyl-1-oxo-1-[[(2<I>R</I>)-1-oxo-1-[2-(3-phenylphenyl)ethylamino]-3-sulfanylpropan-2-yl]amino]pentan-2-yl]amino]-4-(2-methylpropoxycarbonylamino)-5-oxopentanoic acid
> <PUBCHEM_IUPAC_NAME>
(4S)-5-[[(2S)-4-methyl-1-oxo-1-[[(2R)-1-oxo-1-[2-(3-phenylphenyl)ethylamino]-3-sulfanylpropan-2-yl]amino]pentan-2-yl]amino]-4-(2-methylpropoxycarbonylamino)-5-oxopentanoic acid
> <PUBCHEM_IUPAC_SYSTEMATIC_NAME>
(4S)-5-[[(2S)-4-methyl-1-oxidanylidene-1-[[(2R)-1-oxidanylidene-1-[2-(3-phenylphenyl)ethylamino]-3-sulfanyl-propan-2-yl]amino]pentan-2-yl]amino]-4-(2-methylpropoxycarbonylamino)-5-oxidanylidene-pentanoic acid
> <PUBCHEM_IUPAC_TRADITIONAL_NAME>
(4S)-4-(isobutoxycarbonylamino)-5-keto-5-[[(1S)-1-[[(1R)-2-keto-1-(mercaptomethyl)-2-[2-(3-phenylphenyl)ethylamino]ethyl]carbamoyl]-3-methyl-butyl]amino]valeric acid
> <PUBCHEM_IUPAC_INCHI>
InChI=1S/C33H46N4O7S/c1-21(2)17-27(35-31(41)26(13-14-29(38)39)37-33(43)44-19-22(3)4)32(42)36-28(20-45)30(40)34-16-15-23-9-8-12-25(18-23)24-10-6-5-7-11-24/h5-12,18,21-22,26-28,45H,13-17,19-20H2,1-4H3,(H,34,40)(H,35,41)(H,36,42)(H,37,43)(H,38,39)/t26-,27-,28-/m0/s1
> <PUBCHEM_IUPAC_INCHIKEY>
ZRJWJSYDAAIJLU-KCHLEUMXSA-N
> <PUBCHEM_XLOGP3_AA>
4.8
> <PUBCHEM_EXACT_MASS>
642.30872099
> <PUBCHEM_MOLECULAR_FORMULA>
C33H46N4O7S
> <PUBCHEM_MOLECULAR_WEIGHT>
642.8
> <PUBCHEM_OPENEYE_CAN_SMILES>
CC(C)CC(C(=O)NC(CS)C(=O)NCCC1=CC(=CC=C1)C2=CC=CC=C2)NC(=O)C(CCC(=O)O)NC(=O)OCC(C)C
> <PUBCHEM_OPENEYE_ISO_SMILES>
CC(C)C[C@@H](C(=O)N[C@@H](CS)C(=O)NCCC1=CC(=CC=C1)C2=CC=CC=C2)NC(=O)[C@H](CCC(=O)O)NC(=O)OCC(C)C
> <PUBCHEM_CACTVS_TPSA>
164
> <PUBCHEM_MONOISOTOPIC_WEIGHT>
642.30872099
> <PUBCHEM_TOTAL_CHARGE>
0
> <PUBCHEM_HEAVY_ATOM_COUNT>
45
> <PUBCHEM_ATOM_DEF_STEREO_COUNT>
3
> <PUBCHEM_ATOM_UDEF_STEREO_COUNT>
0
> <PUBCHEM_BOND_DEF_STEREO_COUNT>
0
> <PUBCHEM_BOND_UDEF_STEREO_COUNT>
0
> <PUBCHEM_ISOTOPIC_ATOM_COUNT>
0
> <PUBCHEM_COMPONENT_COUNT>
1
> <PUBCHEM_CACTVS_TAUTO_COUNT>
-1
> <PUBCHEM_COORDINATE_TYPE>
1
5
255
> <PUBCHEM_BONDANNOTATIONS>
22  10  5
17  11  6
31  33  8
31  34  8
33  37  8
34  38  8
37  39  8
38  39  8
40  41  8
40  42  8
41  43  8
42  44  8
43  45  8
44  45  8
14  9  6
$$$$
