507481
  -OEChem-10302200282D
 86 87  0     1  0  0  0  0  0999 V2000
    2.0000    4.5412    0.0000 Cl  0  0  0  0  0  0  0  0  0  0  0  0
    4.5981   -0.9588    0.0000 S   0  0  0  0  0  0  0  0  0  0  0  0
    2.6494   -8.6612    0.0000 O   0  0  0  0  0  0  0  0  0  0  0  0
    4.5981   -5.9588    0.0000 O   0  0  0  0  0  0  0  0  0  0  0  0
    5.4641   -2.4588    0.0000 O   0  0  0  0  0  0  0  0  0  0  0  0
    5.4641   -1.4588    0.0000 O   0  0  0  0  0  0  0  0  0  0  0  0
    6.3301   -5.9588    0.0000 O   0  0  0  0  0  0  0  0  0  0  0  0
    6.3301    2.0412    0.0000 O   0  0  0  0  0  0  0  0  0  0  0  0
    4.5981    8.0412    0.0000 O   0  0  0  0  0  0  0  0  0  0  0  0
    2.8660    8.0412    0.0000 O   0  0  0  0  0  0  0  0  0  0  0  0
    7.1962   -2.4588    0.0000 N   0  0  0  0  0  0  0  0  0  0  0  0
    5.4641   -4.4588    0.0000 N   0  0  0  0  0  0  0  0  0  0  0  0
    6.3301    0.0412    0.0000 N   0  0  0  0  0  0  0  0  0  0  0  0
    4.5981    2.0412    0.0000 N   0  0  0  0  0  0  0  0  0  0  0  0
    3.7320   -7.4588    0.0000 C   0  0  3  0  0  0  0  0  0  0  0  0
    2.8185   -7.0520    0.0000 C   0  0  0  0  0  0  0  0  0  0  0  0
    3.6275   -8.4533    0.0000 C   0  0  0  0  0  0  0  0  0  0  0  0
    7.1962   -1.4588    0.0000 C   0  0  1  0  0  0  0  0  0  0  0  0
    2.1494   -7.7952    0.0000 C   0  0  0  0  0  0  0  0  0  0  0  0
    8.0622   -0.9588    0.0000 C   0  0  0  0  0  0  0  0  0  0  0  0
    4.5981   -6.9588    0.0000 C   0  0  0  0  0  0  0  0  0  0  0  0
    6.3301   -3.9588    0.0000 C   0  0  1  0  0  0  0  0  0  0  0  0
    8.9282   -1.4588    0.0000 C   0  0  0  0  0  0  0  0  0  0  0  0
    7.1962   -4.4588    0.0000 C   0  0  0  0  0  0  0  0  0  0  0  0
    6.3301   -2.9588    0.0000 C   0  0  0  0  0  0  0  0  0  0  0  0
    6.3301   -0.9588    0.0000 C   0  0  0  0  0  0  0  0  0  0  0  0
    9.7942   -0.9588    0.0000 C   0  0  0  0  0  0  0  0  0  0  0  0
    8.9282   -2.4588    0.0000 C   0  0  0  0  0  0  0  0  0  0  0  0
    7.1962   -5.4588    0.0000 C   0  0  0  0  0  0  0  0  0  0  0  0
    8.0622   -3.9588    0.0000 C   0  0  0  0  0  0  0  0  0  0  0  0
    5.4641   -5.4588    0.0000 C   0  0  0  0  0  0  0  0  0  0  0  0
    5.4641    0.5412    0.0000 C   0  0  1  0  0  0  0  0  0  0  0  0
    4.5981    0.0412    0.0000 C   0  0  0  0  0  0  0  0  0  0  0  0
    5.4641    1.5412    0.0000 C   0  0  0  0  0  0  0  0  0  0  0  0
    4.5981    3.0412    0.0000 C   0  0  0  0  0  0  0  0  0  0  0  0
    3.7320    3.5412    0.0000 C   0  0  0  0  0  0  0  0  0  0  0  0
    3.7320    4.5412    0.0000 C   0  0  0  0  0  0  0  0  0  0  0  0
    2.8660    5.0412    0.0000 C   0  0  0  0  0  0  0  0  0  0  0  0
    4.5981    5.0412    0.0000 C   0  0  0  0  0  0  0  0  0  0  0  0
    2.8660    6.0412    0.0000 C   0  0  0  0  0  0  0  0  0  0  0  0
    4.5981    6.0412    0.0000 C   0  0  0  0  0  0  0  0  0  0  0  0
    3.7320    6.5412    0.0000 C   0  0  0  0  0  0  0  0  0  0  0  0
    3.7320    7.5412    0.0000 C   0  0  0  0  0  0  0  0  0  0  0  0
    3.6996   -6.8396    0.0000 H   0  0  0  0  0  0  0  0  0  0  0  0
    3.1285   -6.5151    0.0000 H   0  0  0  0  0  0  0  0  0  0  0  0
    2.3169   -6.6876    0.0000 H   0  0  0  0  0  0  0  0  0  0  0  0
    3.6923   -9.0699    0.0000 H   0  0  0  0  0  0  0  0  0  0  0  0
    4.2475   -8.4533    0.0000 H   0  0  0  0  0  0  0  0  0  0  0  0
    6.6592   -1.7688    0.0000 H   0  0  0  0  0  0  0  0  0  0  0  0
    1.7345   -7.3344    0.0000 H   0  0  0  0  0  0  0  0  0  0  0  0
    1.6478   -8.1596    0.0000 H   0  0  0  0  0  0  0  0  0  0  0  0
    8.4607   -0.4838    0.0000 H   0  0  0  0  0  0  0  0  0  0  0  0
    7.6636   -0.4838    0.0000 H   0  0  0  0  0  0  0  0  0  0  0  0
    4.8101   -7.5414    0.0000 H   0  0  0  0  0  0  0  0  0  0  0  0
    5.2087   -6.8511    0.0000 H   0  0  0  0  0  0  0  0  0  0  0  0
    5.7932   -3.6488    0.0000 H   0  0  0  0  0  0  0  0  0  0  0  0
    9.4651   -1.7688    0.0000 H   0  0  0  0  0  0  0  0  0  0  0  0
    6.6592   -4.7688    0.0000 H   0  0  0  0  0  0  0  0  0  0  0  0
    7.7331   -2.7688    0.0000 H   0  0  0  0  0  0  0  0  0  0  0  0
    4.9272   -4.1488    0.0000 H   0  0  0  0  0  0  0  0  0  0  0  0
   10.1042   -1.4957    0.0000 H   0  0  0  0  0  0  0  0  0  0  0  0
   10.3312   -0.6488    0.0000 H   0  0  0  0  0  0  0  0  0  0  0  0
    9.4842   -0.4218    0.0000 H   0  0  0  0  0  0  0  0  0  0  0  0
    8.3082   -2.4588    0.0000 H   0  0  0  0  0  0  0  0  0  0  0  0
    8.9282   -3.0788    0.0000 H   0  0  0  0  0  0  0  0  0  0  0  0
    9.5482   -2.4588    0.0000 H   0  0  0  0  0  0  0  0  0  0  0  0
    6.5762   -5.4588    0.0000 H   0  0  0  0  0  0  0  0  0  0  0  0
    7.1962   -6.0788    0.0000 H   0  0  0  0  0  0  0  0  0  0  0  0
    7.8162   -5.4588    0.0000 H   0  0  0  0  0  0  0  0  0  0  0  0
    8.3722   -4.4957    0.0000 H   0  0  0  0  0  0  0  0  0  0  0  0
    8.5991   -3.6488    0.0000 H   0  0  0  0  0  0  0  0  0  0  0  0
    7.7522   -3.4218    0.0000 H   0  0  0  0  0  0  0  0  0  0  0  0
    6.8671    0.3512    0.0000 H   0  0  0  0  0  0  0  0  0  0  0  0
    5.4641   -0.0788    0.0000 H   0  0  0  0  0  0  0  0  0  0  0  0
    4.3860    0.6238    0.0000 H   0  0  0  0  0  0  0  0  0  0  0  0
    3.9875   -0.0664    0.0000 H   0  0  0  0  0  0  0  0  0  0  0  0
    4.0611    1.7312    0.0000 H   0  0  0  0  0  0  0  0  0  0  0  0
    5.2087    2.9336    0.0000 H   0  0  0  0  0  0  0  0  0  0  0  0
    4.8101    3.6238    0.0000 H   0  0  0  0  0  0  0  0  0  0  0  0
    3.1215    3.6489    0.0000 H   0  0  0  0  0  0  0  0  0  0  0  0
    3.5200    2.9586    0.0000 H   0  0  0  0  0  0  0  0  0  0  0  0
    4.0611   -1.2688    0.0000 H   0  0  0  0  0  0  0  0  0  0  0  0
    5.1350    4.7312    0.0000 H   0  0  0  0  0  0  0  0  0  0  0  0
    2.3291    6.3512    0.0000 H   0  0  0  0  0  0  0  0  0  0  0  0
    5.1350    6.3512    0.0000 H   0  0  0  0  0  0  0  0  0  0  0  0
    4.5981    8.6612    0.0000 H   0  0  0  0  0  0  0  0  0  0  0  0
  1 38  1  0  0  0  0
  2 33  1  0  0  0  0
  2 82  1  0  0  0  0
  3 17  1  0  0  0  0
  3 19  1  0  0  0  0
  4 21  1  0  0  0  0
  4 31  1  0  0  0  0
  5 25  2  0  0  0  0
  6 26  2  0  0  0  0
  7 31  2  0  0  0  0
  8 34  2  0  0  0  0
  9 43  1  0  0  0  0
  9 86  1  0  0  0  0
 10 43  2  0  0  0  0
 18 11  1  6  0  0  0
 11 25  1  0  0  0  0
 11 59  1  0  0  0  0
 22 12  1  6  0  0  0
 12 31  1  0  0  0  0
 12 60  1  0  0  0  0
 13 26  1  0  0  0  0
 32 13  1  1  0  0  0
 13 73  1  0  0  0  0
 14 34  1  0  0  0  0
 14 35  1  0  0  0  0
 14 77  1  0  0  0  0
 15 16  1  0  0  0  0
 15 17  1  0  0  0  0
 15 21  1  0  0  0  0
 15 44  1  0  0  0  0
 16 19  1  0  0  0  0
 16 45  1  0  0  0  0
 16 46  1  0  0  0  0
 17 47  1  0  0  0  0
 17 48  1  0  0  0  0
 18 20  1  0  0  0  0
 18 26  1  0  0  0  0
 18 49  1  0  0  0  0
 19 50  1  0  0  0  0
 19 51  1  0  0  0  0
 20 23  1  0  0  0  0
 20 52  1  0  0  0  0
 20 53  1  0  0  0  0
 21 54  1  0  0  0  0
 21 55  1  0  0  0  0
 22 24  1  0  0  0  0
 22 25  1  0  0  0  0
 22 56  1  0  0  0  0
 23 27  1  0  0  0  0
 23 28  1  0  0  0  0
 23 57  1  0  0  0  0
 24 29  1  0  0  0  0
 24 30  1  0  0  0  0
 24 58  1  0  0  0  0
 27 61  1  0  0  0  0
 27 62  1  0  0  0  0
 27 63  1  0  0  0  0
 28 64  1  0  0  0  0
 28 65  1  0  0  0  0
 28 66  1  0  0  0  0
 29 67  1  0  0  0  0
 29 68  1  0  0  0  0
 29 69  1  0  0  0  0
 30 70  1  0  0  0  0
 30 71  1  0  0  0  0
 30 72  1  0  0  0  0
 32 33  1  0  0  0  0
 32 34  1  0  0  0  0
 32 74  1  0  0  0  0
 33 75  1  0  0  0  0
 33 76  1  0  0  0  0
 35 36  1  0  0  0  0
 35 78  1  0  0  0  0
 35 79  1  0  0  0  0
 36 37  1  0  0  0  0
 36 80  1  0  0  0  0
 36 81  1  0  0  0  0
 37 38  2  0  0  0  0
 37 39  1  0  0  0  0
 38 40  1  0  0  0  0
 39 41  2  0  0  0  0
 39 83  1  0  0  0  0
 40 42  2  0  0  0  0
 40 84  1  0  0  0  0
 41 42  1  0  0  0  0
 41 85  1  0  0  0  0
 42 43  1  0  0  0  0
M  END
> <PUBCHEM_COMPOUND_CID>
507481
> <PUBCHEM_COMPOUND_CANONICALIZED>
1
> <PUBCHEM_CACTVS_COMPLEXITY>
955
> <PUBCHEM_CACTVS_HBOND_ACCEPTOR>
9
> <PUBCHEM_CACTVS_HBOND_DONOR>
6
> <PUBCHEM_CACTVS_ROTATABLE_BOND>
17
> <PUBCHEM_CACTVS_SUBSKEYS>
AAADcfB7vABEAAAAAAAAAAAAAAAAASAAAAAwAAAAAAAAAAABAAAAHgYQCAAADSrl2CayCILABgSIAiHSGAACAAAkBQAIiIGICskIZjKBlzGecQAl1gGImYfYyPCOQAAAIAABAACAAABAAAIAAAAAAAAAAA==
> <PUBCHEM_IUPAC_OPENEYE_NAME>
3-chloro-4-[2-[[(2R)-2-[[(2S)-4-methyl-2-[[(2S)-3-methyl-2-(tetrahydrofuran-3-ylmethoxycarbonylamino)butanoyl]amino]pentanoyl]amino]-3-sulfanyl-propanoyl]amino]ethyl]benzoic acid
> <PUBCHEM_IUPAC_CAS_NAME>
3-chloro-4-[2-[[(2R)-3-mercapto-2-[[(2S)-4-methyl-2-[[(2S)-3-methyl-1-oxo-2-[[oxo(3-oxolanylmethoxy)methyl]amino]butyl]amino]-1-oxopentyl]amino]-1-oxopropyl]amino]ethyl]benzoic acid
> <PUBCHEM_IUPAC_NAME_MARKUP>
3-chloro-4-[2-[[(2<I>R</I>)-2-[[(2<I>S</I>)-4-methyl-2-[[(2<I>S</I>)-3-methyl-2-(oxolan-3-ylmethoxycarbonylamino)butanoyl]amino]pentanoyl]amino]-3-sulfanylpropanoyl]amino]ethyl]benzoic acid
> <PUBCHEM_IUPAC_NAME>
3-chloro-4-[2-[[(2R)-2-[[(2S)-4-methyl-2-[[(2S)-3-methyl-2-(oxolan-3-ylmethoxycarbonylamino)butanoyl]amino]pentanoyl]amino]-3-sulfanylpropanoyl]amino]ethyl]benzoic acid
> <PUBCHEM_IUPAC_SYSTEMATIC_NAME>
3-chloranyl-4-[2-[[(2R)-2-[[(2S)-4-methyl-2-[[(2S)-3-methyl-2-(oxolan-3-ylmethoxycarbonylamino)butanoyl]amino]pentanoyl]amino]-3-sulfanyl-propanoyl]amino]ethyl]benzoic acid
> <PUBCHEM_IUPAC_TRADITIONAL_NAME>
3-chloro-4-[2-[[(2R)-3-mercapto-2-[[(2S)-4-methyl-2-[[(2S)-3-methyl-2-(tetrahydrofuran-3-ylmethoxycarbonylamino)butanoyl]amino]pentanoyl]amino]propanoyl]amino]ethyl]benzoic acid
> <PUBCHEM_IUPAC_INCHI>
InChI=1S/C29H43ClN4O8S/c1-16(2)11-22(32-27(37)24(17(3)4)34-29(40)42-14-18-8-10-41-13-18)26(36)33-23(15-43)25(35)31-9-7-19-5-6-20(28(38)39)12-21(19)30/h5-6,12,16-18,22-24,43H,7-11,13-15H2,1-4H3,(H,31,35)(H,32,37)(H,33,36)(H,34,40)(H,38,39)/t18?,22-,23-,24-/m0/s1
> <PUBCHEM_IUPAC_INCHIKEY>
KBFQSLOBHAKMCU-DJVBROGYSA-N
> <PUBCHEM_XLOGP3_AA>
3.7
> <PUBCHEM_EXACT_MASS>
642.2490132
> <PUBCHEM_MOLECULAR_FORMULA>
C29H43ClN4O8S
> <PUBCHEM_MOLECULAR_WEIGHT>
643.2
> <PUBCHEM_OPENEYE_CAN_SMILES>
CC(C)CC(C(=O)NC(CS)C(=O)NCCC1=C(C=C(C=C1)C(=O)O)Cl)NC(=O)C(C(C)C)NC(=O)OCC2CCOC2
> <PUBCHEM_OPENEYE_ISO_SMILES>
CC(C)C[C@@H](C(=O)N[C@@H](CS)C(=O)NCCC1=C(C=C(C=C1)C(=O)O)Cl)NC(=O)[C@H](C(C)C)NC(=O)OCC2CCOC2
> <PUBCHEM_CACTVS_TPSA>
173
> <PUBCHEM_MONOISOTOPIC_WEIGHT>
642.2490132
> <PUBCHEM_TOTAL_CHARGE>
0
> <PUBCHEM_HEAVY_ATOM_COUNT>
43
> <PUBCHEM_ATOM_DEF_STEREO_COUNT>
3
> <PUBCHEM_ATOM_UDEF_STEREO_COUNT>
1
> <PUBCHEM_BOND_DEF_STEREO_COUNT>
0
> <PUBCHEM_BOND_UDEF_STEREO_COUNT>
0
> <PUBCHEM_ISOTOPIC_ATOM_COUNT>
0
> <PUBCHEM_COMPONENT_COUNT>
1
> <PUBCHEM_CACTVS_TAUTO_COUNT>
-1
> <PUBCHEM_COORDINATE_TYPE>
1
5
255
> <PUBCHEM_BONDANNOTATIONS>
18  11  6
22  12  6
32  13  5
15  21  3
37  38  8
37  39  8
38  40  8
39  41  8
40  42  8
41  42  8
$$$$
