507404
  -OEChem-10302200282D
102109  0     1  0  0  0  0  0999 V2000
    2.4052    3.4496    0.0000 S   0  0  0  0  0  0  0  0  0  0  0  0
   14.0085   -3.1692    0.0000 S   0  0  0  0  0  0  0  0  0  0  0  0
    6.4122   -4.0316    0.0000 O   0  0  0  0  0  0  0  0  0  0  0  0
    8.7123    3.1553    0.0000 O   0  0  0  0  0  0  0  0  0  0  0  0
    5.7606   -0.3754    0.0000 O   0  0  0  0  0  0  0  0  0  0  0  0
    9.3639   -0.5010    0.0000 O   0  0  0  0  0  0  0  0  0  0  0  0
    8.0748   -1.6577    0.0000 O   0  0  0  0  0  0  0  0  0  0  0  0
    7.0497    0.7814    0.0000 O   0  0  0  0  0  0  0  0  0  0  0  0
    6.7856   -2.8145    0.0000 O   0  0  0  0  0  0  0  0  0  0  0  0
    8.3389    1.9381    0.0000 O   0  0  0  0  0  0  0  0  0  0  0  0
    5.1392   -2.2764    0.0000 N   0  0  0  0  0  0  0  0  0  0  0  0
    9.9852    1.4000    0.0000 N   0  0  0  0  0  0  0  0  0  0  0  0
    4.8286   -3.2269    0.0000 C   0  0  3  0  0  0  0  0  0  0  0  0
   10.2959    2.3506    0.0000 C   0  0  2  0  0  0  0  0  0  0  0  0
    5.4122   -4.0316    0.0000 C   0  0  3  0  0  0  0  0  0  0  0  0
    9.7123    3.1553    0.0000 C   0  0  3  0  0  0  0  0  0  0  0  0
    4.8286   -4.8364    0.0000 C   0  0  0  0  0  0  0  0  0  0  0  0
   10.2959    3.9600    0.0000 C   0  0  0  0  0  0  0  0  0  0  0  0
    3.8824   -3.5316    0.0000 C   0  0  0  0  0  0  0  0  0  0  0  0
   11.2421    2.6553    0.0000 C   0  0  0  0  0  0  0  0  0  0  0  0
    3.8824   -4.5316    0.0000 C   0  0  0  0  0  0  0  0  0  0  0  0
   11.2421    3.6553    0.0000 C   0  0  0  0  0  0  0  0  0  0  0  0
    7.4069   -0.9134    0.0000 C   0  0  2  0  0  0  0  0  0  0  0  0
    7.7176    0.0371    0.0000 C   0  0  2  0  0  0  0  0  0  0  0  0
    6.4284   -1.1197    0.0000 C   0  0  2  0  0  0  0  0  0  0  0  0
    8.6961    0.2433    0.0000 C   0  0  2  0  0  0  0  0  0  0  0  0
    6.1178   -2.0702    0.0000 C   0  0  0  0  0  0  0  0  0  0  0  0
    9.0068    1.1938    0.0000 C   0  0  0  0  0  0  0  0  0  0  0  0
    3.0163   -3.0316    0.0000 C   0  0  0  0  0  0  0  0  0  0  0  0
   12.1082    2.1553    0.0000 C   0  0  0  0  0  0  0  0  0  0  0  0
    3.0163   -5.0316    0.0000 C   0  0  0  0  0  0  0  0  0  0  0  0
   12.1082    4.1553    0.0000 C   0  0  0  0  0  0  0  0  0  0  0  0
    2.1503   -3.5316    0.0000 C   0  0  0  0  0  0  0  0  0  0  0  0
   12.9742    2.6553    0.0000 C   0  0  0  0  0  0  0  0  0  0  0  0
    2.1503   -4.5316    0.0000 C   0  0  0  0  0  0  0  0  0  0  0  0
   12.9742    3.6553    0.0000 C   0  0  0  0  0  0  0  0  0  0  0  0
    6.0712    0.5752    0.0000 C   0  0  0  0  0  0  0  0  0  0  0  0
   10.3424   -0.2948    0.0000 C   0  0  0  0  0  0  0  0  0  0  0  0
    5.4034    1.3195    0.0000 C   0  0  0  0  0  0  0  0  0  0  0  0
   11.0103   -1.0391    0.0000 C   0  0  0  0  0  0  0  0  0  0  0  0
    5.7140    2.2700    0.0000 C   0  0  0  0  0  0  0  0  0  0  0  0
    4.4249    1.1132    0.0000 C   0  0  0  0  0  0  0  0  0  0  0  0
   10.6996   -1.9896    0.0000 C   0  0  0  0  0  0  0  0  0  0  0  0
   11.9888   -0.8329    0.0000 C   0  0  0  0  0  0  0  0  0  0  0  0
    5.0462    3.0143    0.0000 C   0  0  0  0  0  0  0  0  0  0  0  0
    3.7570    1.8576    0.0000 C   0  0  0  0  0  0  0  0  0  0  0  0
   11.3675   -2.7339    0.0000 C   0  0  0  0  0  0  0  0  0  0  0  0
   12.6566   -1.5772    0.0000 C   0  0  0  0  0  0  0  0  0  0  0  0
    4.0677    2.8081    0.0000 C   0  0  0  0  0  0  0  0  0  0  0  0
   12.3460   -2.5277    0.0000 C   0  0  0  0  0  0  0  0  0  0  0  0
    3.3999    3.5524    0.0000 C   0  0  0  0  0  0  0  0  0  0  0  0
   13.0138   -3.2720    0.0000 C   0  0  0  0  0  0  0  0  0  0  0  0
    3.6095    4.5302    0.0000 C   0  0  0  0  0  0  0  0  0  0  0  0
   12.8042   -4.2498    0.0000 C   0  0  0  0  0  0  0  0  0  0  0  0
    2.7443    5.0316    0.0000 C   0  0  0  0  0  0  0  0  0  0  0  0
   13.6694   -4.7513    0.0000 C   0  0  0  0  0  0  0  0  0  0  0  0
    2.0000    4.3638    0.0000 C   0  0  0  0  0  0  0  0  0  0  0  0
   14.4137   -4.0834    0.0000 C   0  0  0  0  0  0  0  0  0  0  0  0
    5.4411   -3.1307    0.0000 H   0  0  0  0  0  0  0  0  0  0  0  0
    9.6834    2.2544    0.0000 H   0  0  0  0  0  0  0  0  0  0  0  0
    5.6939   -4.5840    0.0000 H   0  0  0  0  0  0  0  0  0  0  0  0
    9.4306    3.7076    0.0000 H   0  0  0  0  0  0  0  0  0  0  0  0
    4.5775   -5.4033    0.0000 H   0  0  0  0  0  0  0  0  0  0  0  0
    5.3660   -5.1456    0.0000 H   0  0  0  0  0  0  0  0  0  0  0  0
   10.5469    4.5269    0.0000 H   0  0  0  0  0  0  0  0  0  0  0  0
    9.7585    4.2693    0.0000 H   0  0  0  0  0  0  0  0  0  0  0  0
    4.7252   -1.8149    0.0000 H   0  0  0  0  0  0  0  0  0  0  0  0
   10.3993    0.9386    0.0000 H   0  0  0  0  0  0  0  0  0  0  0  0
    8.0136   -0.7856    0.0000 H   0  0  0  0  0  0  0  0  0  0  0  0
    7.1109   -0.0908    0.0000 H   0  0  0  0  0  0  0  0  0  0  0  0
    5.8217   -1.2475    0.0000 H   0  0  0  0  0  0  0  0  0  0  0  0
    8.5035   -0.3460    0.0000 H   0  0  0  0  0  0  0  0  0  0  0  0
    3.0163   -2.4116    0.0000 H   0  0  0  0  0  0  0  0  0  0  0  0
   12.1082    1.5353    0.0000 H   0  0  0  0  0  0  0  0  0  0  0  0
    3.0163   -5.6516    0.0000 H   0  0  0  0  0  0  0  0  0  0  0  0
   12.1082    4.7753    0.0000 H   0  0  0  0  0  0  0  0  0  0  0  0
    6.7222   -4.5686    0.0000 H   0  0  0  0  0  0  0  0  0  0  0  0
    8.4023    3.6922    0.0000 H   0  0  0  0  0  0  0  0  0  0  0  0
    1.6134   -3.2216    0.0000 H   0  0  0  0  0  0  0  0  0  0  0  0
   13.5111    2.3453    0.0000 H   0  0  0  0  0  0  0  0  0  0  0  0
    1.6134   -4.8416    0.0000 H   0  0  0  0  0  0  0  0  0  0  0  0
   13.5111    3.9653    0.0000 H   0  0  0  0  0  0  0  0  0  0  0  0
    8.6814   -1.5299    0.0000 H   0  0  0  0  0  0  0  0  0  0  0  0
    7.2424    1.3707    0.0000 H   0  0  0  0  0  0  0  0  0  0  0  0
    6.6182    0.2831    0.0000 H   0  0  0  0  0  0  0  0  0  0  0  0
    6.4538    1.0631    0.0000 H   0  0  0  0  0  0  0  0  0  0  0  0
   10.8688    0.0329    0.0000 H   0  0  0  0  0  0  0  0  0  0  0  0
   10.1112    0.2805    0.0000 H   0  0  0  0  0  0  0  0  0  0  0  0
    6.3207    2.3978    0.0000 H   0  0  0  0  0  0  0  0  0  0  0  0
    4.2323    0.5239    0.0000 H   0  0  0  0  0  0  0  0  0  0  0  0
   10.0929   -2.1175    0.0000 H   0  0  0  0  0  0  0  0  0  0  0  0
   12.1814   -0.2435    0.0000 H   0  0  0  0  0  0  0  0  0  0  0  0
    5.2388    3.6036    0.0000 H   0  0  0  0  0  0  0  0  0  0  0  0
    3.1504    1.7297    0.0000 H   0  0  0  0  0  0  0  0  0  0  0  0
   11.1749   -3.3232    0.0000 H   0  0  0  0  0  0  0  0  0  0  0  0
   13.2633   -1.4493    0.0000 H   0  0  0  0  0  0  0  0  0  0  0  0
    4.1763    4.7814    0.0000 H   0  0  0  0  0  0  0  0  0  0  0  0
   12.2374   -4.5010    0.0000 H   0  0  0  0  0  0  0  0  0  0  0  0
    2.6806    5.6484    0.0000 H   0  0  0  0  0  0  0  0  0  0  0  0
   13.7331   -5.3680    0.0000 H   0  0  0  0  0  0  0  0  0  0  0  0
    1.3938    4.4938    0.0000 H   0  0  0  0  0  0  0  0  0  0  0  0
   15.0199   -4.2134    0.0000 H   0  0  0  0  0  0  0  0  0  0  0  0
  1 51  1  0  0  0  0
  1 57  1  0  0  0  0
  2 52  1  0  0  0  0
  2 58  1  0  0  0  0
  3 15  1  0  0  0  0
  3 77  1  0  0  0  0
  4 16  1  0  0  0  0
  4 78  1  0  0  0  0
 25  5  1  6  0  0  0
  5 37  1  0  0  0  0
 26  6  1  6  0  0  0
  6 38  1  0  0  0  0
 23  7  1  1  0  0  0
  7 83  1  0  0  0  0
 24  8  1  1  0  0  0
  8 84  1  0  0  0  0
  9 27  2  0  0  0  0
 10 28  2  0  0  0  0
 11 13  1  0  0  0  0
 11 27  1  0  0  0  0
 11 67  1  0  0  0  0
 14 12  1  6  0  0  0
 12 28  1  0  0  0  0
 12 68  1  0  0  0  0
 13 15  1  0  0  0  0
 13 19  1  0  0  0  0
 13 59  1  0  0  0  0
 14 16  1  0  0  0  0
 14 20  1  0  0  0  0
 14 60  1  0  0  0  0
 15 17  1  0  0  0  0
 15 61  1  0  0  0  0
 16 18  1  0  0  0  0
 16 62  1  0  0  0  0
 17 21  1  0  0  0  0
 17 63  1  0  0  0  0
 17 64  1  0  0  0  0
 18 22  1  0  0  0  0
 18 65  1  0  0  0  0
 18 66  1  0  0  0  0
 19 21  1  0  0  0  0
 19 29  2  0  0  0  0
 20 22  1  0  0  0  0
 20 30  2  0  0  0  0
 21 31  2  0  0  0  0
 22 32  2  0  0  0  0
 23 24  1  0  0  0  0
 23 25  1  0  0  0  0
 23 69  1  0  0  0  0
 24 26  1  0  0  0  0
 24 70  1  0  0  0  0
 25 27  1  0  0  0  0
 25 71  1  0  0  0  0
 26 28  1  0  0  0  0
 26 72  1  0  0  0  0
 29 33  1  0  0  0  0
 29 73  1  0  0  0  0
 30 34  1  0  0  0  0
 30 74  1  0  0  0  0
 31 35  1  0  0  0  0
 31 75  1  0  0  0  0
 32 36  1  0  0  0  0
 32 76  1  0  0  0  0
 33 35  2  0  0  0  0
 33 79  1  0  0  0  0
 34 36  2  0  0  0  0
 34 80  1  0  0  0  0
 35 81  1  0  0  0  0
 36 82  1  0  0  0  0
 37 39  1  0  0  0  0
 37 85  1  0  0  0  0
 37 86  1  0  0  0  0
 38 40  1  0  0  0  0
 38 87  1  0  0  0  0
 38 88  1  0  0  0  0
 39 41  2  0  0  0  0
 39 42  1  0  0  0  0
 40 43  2  0  0  0  0
 40 44  1  0  0  0  0
 41 45  1  0  0  0  0
 41 89  1  0  0  0  0
 42 46  2  0  0  0  0
 42 90  1  0  0  0  0
 43 47  1  0  0  0  0
 43 91  1  0  0  0  0
 44 48  2  0  0  0  0
 44 92  1  0  0  0  0
 45 49  2  0  0  0  0
 45 93  1  0  0  0  0
 46 49  1  0  0  0  0
 46 94  1  0  0  0  0
 47 50  2  0  0  0  0
 47 95  1  0  0  0  0
 48 50  1  0  0  0  0
 48 96  1  0  0  0  0
 49 51  1  0  0  0  0
 50 52  1  0  0  0  0
 51 53  2  0  0  0  0
 52 54  2  0  0  0  0
 53 55  1  0  0  0  0
 53 97  1  0  0  0  0
 54 56  1  0  0  0  0
 54 98  1  0  0  0  0
 55 57  2  0  0  0  0
 55 99  1  0  0  0  0
 56 58  2  0  0  0  0
 56100  1  0  0  0  0
 57101  1  0  0  0  0
 58102  1  0  0  0  0
M  END
> <PUBCHEM_COMPOUND_CID>
507404
> <PUBCHEM_COMPOUND_CANONICALIZED>
1
> <PUBCHEM_CACTVS_COMPLEXITY>
1230
> <PUBCHEM_CACTVS_HBOND_ACCEPTOR>
10
> <PUBCHEM_CACTVS_HBOND_DONOR>
6
> <PUBCHEM_CACTVS_ROTATABLE_BOND>
15
> <PUBCHEM_CACTVS_SUBSKEYS>
AAADcfB/PABgAAAAAAAAAAAAAAAAAaNECAAwYMGAAAAAAGAB9AAAHgQQCAAADDzl2AawAYLABgiMAiFSEAKDAIAgCBBIiJlIDIgLNjagsR2HcAhn9gG7qAf63PJOwAAAAAAQAACAAAAAACAAAKAACQgAAA==
> <PUBCHEM_IUPAC_OPENEYE_NAME>
(2R,3R,4R,5R)-3,4-dihydroxy-N-[(1S)-2-hydroxyindan-1-yl]-N'-(2-hydroxyindan-1-yl)-2,5-bis[[4-(2-thienyl)phenyl]methoxy]hexanediamide
> <PUBCHEM_IUPAC_CAS_NAME>
(2R,3R,4R,5R)-3,4-dihydroxy-N-[(1S)-2-hydroxy-2,3-dihydro-1H-inden-1-yl]-N'-(2-hydroxy-2,3-dihydro-1H-inden-1-yl)-2,5-bis[(4-thiophen-2-ylphenyl)methoxy]hexanediamide
> <PUBCHEM_IUPAC_NAME_MARKUP>
(2<I>R</I>,3<I>R</I>,4<I>R</I>,5<I>R</I>)-3,4-dihydroxy-<I>N</I>-[(1<I>S</I>)-2-hydroxy-2,3-dihydro-1<I>H</I>-inden-1-yl]-<I>N</I>&apos;-(2-hydroxy-2,3-dihydro-1<I>H</I>-inden-1-yl)-2,5-bis[(4-thiophen-2-ylphenyl)methoxy]hexanediamide
> <PUBCHEM_IUPAC_NAME>
(2R,3R,4R,5R)-3,4-dihydroxy-N-[(1S)-2-hydroxy-2,3-dihydro-1H-inden-1-yl]-N'-(2-hydroxy-2,3-dihydro-1H-inden-1-yl)-2,5-bis[(4-thiophen-2-ylphenyl)methoxy]hexanediamide
> <PUBCHEM_IUPAC_SYSTEMATIC_NAME>
(2R,3R,4R,5R)-3,4-bis(oxidanyl)-N-[(1S)-2-oxidanyl-2,3-dihydro-1H-inden-1-yl]-N'-(2-oxidanyl-2,3-dihydro-1H-inden-1-yl)-2,5-bis[(4-thiophen-2-ylphenyl)methoxy]hexanediamide
> <PUBCHEM_IUPAC_TRADITIONAL_NAME>
(2R,3R,4R,5R)-3,4-dihydroxy-N-[(1S)-2-hydroxyindan-1-yl]-N'-(2-hydroxyindan-1-yl)-2,5-bis[[4-(2-thienyl)benzyl]oxy]adipamide
> <PUBCHEM_IUPAC_INCHI>
InChI=1S/C46H44N2O8S2/c49-35-23-31-7-1-3-9-33(31)39(35)47-45(53)43(55-25-27-13-17-29(18-14-27)37-11-5-21-57-37)41(51)42(52)44(46(54)48-40-34-10-4-2-8-32(34)24-36(40)50)56-26-28-15-19-30(20-16-28)38-12-6-22-58-38/h1-22,35-36,39-44,49-52H,23-26H2,(H,47,53)(H,48,54)/t35?,36?,39-,40?,41+,42+,43+,44+/m0/s1
> <PUBCHEM_IUPAC_INCHIKEY>
OACABPGSRNVRJX-LABQAIDUSA-N
> <PUBCHEM_XLOGP3_AA>
6.1
> <PUBCHEM_EXACT_MASS>
816.25390871
> <PUBCHEM_MOLECULAR_FORMULA>
C46H44N2O8S2
> <PUBCHEM_MOLECULAR_WEIGHT>
817.0
> <PUBCHEM_OPENEYE_CAN_SMILES>
C1C(C(C2=CC=CC=C21)NC(=O)C(C(C(C(C(=O)NC3C(CC4=CC=CC=C34)O)OCC5=CC=C(C=C5)C6=CC=CS6)O)O)OCC7=CC=C(C=C7)C8=CC=CS8)O
> <PUBCHEM_OPENEYE_ISO_SMILES>
C1C([C@H](C2=CC=CC=C21)NC(=O)[C@@H]([C@@H]([C@H]([C@H](C(=O)NC3C(CC4=CC=CC=C34)O)OCC5=CC=C(C=C5)C6=CC=CS6)O)O)OCC7=CC=C(C=C7)C8=CC=CS8)O
> <PUBCHEM_CACTVS_TPSA>
214
> <PUBCHEM_MONOISOTOPIC_WEIGHT>
816.25390871
> <PUBCHEM_TOTAL_CHARGE>
0
> <PUBCHEM_HEAVY_ATOM_COUNT>
58
> <PUBCHEM_ATOM_DEF_STEREO_COUNT>
5
> <PUBCHEM_ATOM_UDEF_STEREO_COUNT>
3
> <PUBCHEM_BOND_DEF_STEREO_COUNT>
0
> <PUBCHEM_BOND_UDEF_STEREO_COUNT>
0
> <PUBCHEM_ISOTOPIC_ATOM_COUNT>
0
> <PUBCHEM_COMPONENT_COUNT>
1
> <PUBCHEM_CACTVS_TAUTO_COUNT>
-1
> <PUBCHEM_COORDINATE_TYPE>
1
5
255
> <PUBCHEM_BONDANNOTATIONS>
1  51  8
1  57  8
13  11  3
14  12  6
19  21  8
19  29  8
2  52  8
2  58  8
20  22  8
20  30  8
21  31  8
22  32  8
29  33  8
15  3  3
30  34  8
31  35  8
32  36  8
33  35  8
34  36  8
39  41  8
39  42  8
16  4  3
40  43  8
40  44  8
41  45  8
42  46  8
43  47  8
44  48  8
45  49  8
46  49  8
47  50  8
48  50  8
25  5  6
51  53  8
52  54  8
53  55  8
54  56  8
55  57  8
56  58  8
26  6  6
23  7  5
24  8  5
$$$$
