507480
  -OEChem-10302200282D
 88 89  0     1  0  0  0  0  0999 V2000
    2.0000    5.1230    0.0000 Cl  0  0  0  0  0  0  0  0  0  0  0  0
    4.5981   -8.3770    0.0000 S   0  0  0  0  0  0  0  0  0  0  0  0
    4.5981   -0.3770    0.0000 S   0  0  0  0  0  0  0  0  0  0  0  0
    4.5981   -5.3770    0.0000 O   0  0  0  0  0  0  0  0  0  0  0  0
    4.0981   -9.2430    0.0000 O   0  0  0  0  0  0  0  0  0  0  0  0
    5.0981   -9.2430    0.0000 O   0  0  0  0  0  0  0  0  0  0  0  0
    6.3301   -5.3770    0.0000 O   0  0  0  0  0  0  0  0  0  0  0  0
    5.4641   -1.8770    0.0000 O   0  0  0  0  0  0  0  0  0  0  0  0
    5.4641   -0.8770    0.0000 O   0  0  0  0  0  0  0  0  0  0  0  0
    6.3301    2.6230    0.0000 O   0  0  0  0  0  0  0  0  0  0  0  0
    4.5981    8.6230    0.0000 O   0  0  0  0  0  0  0  0  0  0  0  0
    2.8660    8.6230    0.0000 O   0  0  0  0  0  0  0  0  0  0  0  0
    5.4641   -3.8770    0.0000 N   0  0  0  0  0  0  0  0  0  0  0  0
    7.1962   -1.8770    0.0000 N   0  0  0  0  0  0  0  0  0  0  0  0
    6.3301    0.6230    0.0000 N   0  0  0  0  0  0  0  0  0  0  0  0
    4.5981    2.6230    0.0000 N   0  0  0  0  0  0  0  0  0  0  0  0
    4.5981   -6.3770    0.0000 C   0  0  0  0  0  0  0  0  0  0  0  0
    3.7320   -6.8770    0.0000 C   0  0  0  0  0  0  0  0  0  0  0  0
    5.4641   -6.8770    0.0000 C   0  0  0  0  0  0  0  0  0  0  0  0
    3.7320   -7.8770    0.0000 C   0  0  0  0  0  0  0  0  0  0  0  0
    5.4641   -7.8770    0.0000 C   0  0  0  0  0  0  0  0  0  0  0  0
    6.3301   -3.3770    0.0000 C   0  0  1  0  0  0  0  0  0  0  0  0
    7.1962   -3.8770    0.0000 C   0  0  0  0  0  0  0  0  0  0  0  0
    7.1962   -0.8770    0.0000 C   0  0  1  0  0  0  0  0  0  0  0  0
    8.0622   -0.3770    0.0000 C   0  0  0  0  0  0  0  0  0  0  0  0
    5.4641   -4.8770    0.0000 C   0  0  0  0  0  0  0  0  0  0  0  0
    8.9282   -0.8770    0.0000 C   0  0  0  0  0  0  0  0  0  0  0  0
    6.3301   -2.3770    0.0000 C   0  0  0  0  0  0  0  0  0  0  0  0
    7.1962   -4.8770    0.0000 C   0  0  0  0  0  0  0  0  0  0  0  0
    8.0622   -3.3770    0.0000 C   0  0  0  0  0  0  0  0  0  0  0  0
    6.3301   -0.3770    0.0000 C   0  0  0  0  0  0  0  0  0  0  0  0
    9.7942   -0.3770    0.0000 C   0  0  0  0  0  0  0  0  0  0  0  0
    8.9282   -1.8770    0.0000 C   0  0  0  0  0  0  0  0  0  0  0  0
    5.4641    1.1230    0.0000 C   0  0  1  0  0  0  0  0  0  0  0  0
    4.5981    0.6230    0.0000 C   0  0  0  0  0  0  0  0  0  0  0  0
    5.4641    2.1230    0.0000 C   0  0  0  0  0  0  0  0  0  0  0  0
    4.5981    3.6230    0.0000 C   0  0  0  0  0  0  0  0  0  0  0  0
    3.7320    4.1230    0.0000 C   0  0  0  0  0  0  0  0  0  0  0  0
    3.7320    5.1230    0.0000 C   0  0  0  0  0  0  0  0  0  0  0  0
    2.8660    5.6230    0.0000 C   0  0  0  0  0  0  0  0  0  0  0  0
    4.5981    5.6230    0.0000 C   0  0  0  0  0  0  0  0  0  0  0  0
    2.8660    6.6230    0.0000 C   0  0  0  0  0  0  0  0  0  0  0  0
    4.5981    6.6230    0.0000 C   0  0  0  0  0  0  0  0  0  0  0  0
    3.7320    7.1230    0.0000 C   0  0  0  0  0  0  0  0  0  0  0  0
    3.7320    8.1230    0.0000 C   0  0  0  0  0  0  0  0  0  0  0  0
    5.1350   -6.0670    0.0000 H   0  0  0  0  0  0  0  0  0  0  0  0
    3.5200   -6.2944    0.0000 H   0  0  0  0  0  0  0  0  0  0  0  0
    3.1215   -6.9846    0.0000 H   0  0  0  0  0  0  0  0  0  0  0  0
    6.0747   -6.9846    0.0000 H   0  0  0  0  0  0  0  0  0  0  0  0
    5.6762   -6.2944    0.0000 H   0  0  0  0  0  0  0  0  0  0  0  0
    3.1215   -7.7693    0.0000 H   0  0  0  0  0  0  0  0  0  0  0  0
    3.5200   -8.4596    0.0000 H   0  0  0  0  0  0  0  0  0  0  0  0
    5.6762   -8.4596    0.0000 H   0  0  0  0  0  0  0  0  0  0  0  0
    6.0747   -7.7693    0.0000 H   0  0  0  0  0  0  0  0  0  0  0  0
    5.7932   -3.0670    0.0000 H   0  0  0  0  0  0  0  0  0  0  0  0
    6.6592   -4.1870    0.0000 H   0  0  0  0  0  0  0  0  0  0  0  0
    6.6592   -1.1870    0.0000 H   0  0  0  0  0  0  0  0  0  0  0  0
    8.4607    0.0980    0.0000 H   0  0  0  0  0  0  0  0  0  0  0  0
    7.6636    0.0980    0.0000 H   0  0  0  0  0  0  0  0  0  0  0  0
    9.4651   -1.1870    0.0000 H   0  0  0  0  0  0  0  0  0  0  0  0
    4.9272   -3.5670    0.0000 H   0  0  0  0  0  0  0  0  0  0  0  0
    7.7331   -2.1870    0.0000 H   0  0  0  0  0  0  0  0  0  0  0  0
    6.5762   -4.8770    0.0000 H   0  0  0  0  0  0  0  0  0  0  0  0
    7.1962   -5.4970    0.0000 H   0  0  0  0  0  0  0  0  0  0  0  0
    7.8162   -4.8770    0.0000 H   0  0  0  0  0  0  0  0  0  0  0  0
    8.3722   -3.9139    0.0000 H   0  0  0  0  0  0  0  0  0  0  0  0
    8.5991   -3.0670    0.0000 H   0  0  0  0  0  0  0  0  0  0  0  0
    7.7522   -2.8401    0.0000 H   0  0  0  0  0  0  0  0  0  0  0  0
   10.1042   -0.9139    0.0000 H   0  0  0  0  0  0  0  0  0  0  0  0
   10.3312   -0.0670    0.0000 H   0  0  0  0  0  0  0  0  0  0  0  0
    9.4842    0.1599    0.0000 H   0  0  0  0  0  0  0  0  0  0  0  0
    8.3082   -1.8770    0.0000 H   0  0  0  0  0  0  0  0  0  0  0  0
    8.9282   -2.4970    0.0000 H   0  0  0  0  0  0  0  0  0  0  0  0
    9.5482   -1.8770    0.0000 H   0  0  0  0  0  0  0  0  0  0  0  0
    6.8671    0.9330    0.0000 H   0  0  0  0  0  0  0  0  0  0  0  0
    5.4641    0.5030    0.0000 H   0  0  0  0  0  0  0  0  0  0  0  0
    4.3860    1.2056    0.0000 H   0  0  0  0  0  0  0  0  0  0  0  0
    3.9875    0.5154    0.0000 H   0  0  0  0  0  0  0  0  0  0  0  0
    4.0611    2.3130    0.0000 H   0  0  0  0  0  0  0  0  0  0  0  0
    5.2087    3.5154    0.0000 H   0  0  0  0  0  0  0  0  0  0  0  0
    4.8101    4.2056    0.0000 H   0  0  0  0  0  0  0  0  0  0  0  0
    3.1215    4.2307    0.0000 H   0  0  0  0  0  0  0  0  0  0  0  0
    3.5200    3.5404    0.0000 H   0  0  0  0  0  0  0  0  0  0  0  0
    4.0611   -0.6870    0.0000 H   0  0  0  0  0  0  0  0  0  0  0  0
    5.1350    5.3130    0.0000 H   0  0  0  0  0  0  0  0  0  0  0  0
    2.3291    6.9330    0.0000 H   0  0  0  0  0  0  0  0  0  0  0  0
    5.1350    6.9330    0.0000 H   0  0  0  0  0  0  0  0  0  0  0  0
    4.5981    9.2430    0.0000 H   0  0  0  0  0  0  0  0  0  0  0  0
  1 40  1  0  0  0  0
  2  5  2  0  0  0  0
  2  6  2  0  0  0  0
  2 20  1  0  0  0  0
  2 21  1  0  0  0  0
  3 35  1  0  0  0  0
  3 84  1  0  0  0  0
  4 17  1  0  0  0  0
  4 26  1  0  0  0  0
  7 26  2  0  0  0  0
  8 28  2  0  0  0  0
  9 31  2  0  0  0  0
 10 36  2  0  0  0  0
 11 45  1  0  0  0  0
 11 88  1  0  0  0  0
 12 45  2  0  0  0  0
 22 13  1  6  0  0  0
 13 26  1  0  0  0  0
 13 61  1  0  0  0  0
 24 14  1  6  0  0  0
 14 28  1  0  0  0  0
 14 62  1  0  0  0  0
 15 31  1  0  0  0  0
 34 15  1  1  0  0  0
 15 75  1  0  0  0  0
 16 36  1  0  0  0  0
 16 37  1  0  0  0  0
 16 79  1  0  0  0  0
 17 18  1  0  0  0  0
 17 19  1  0  0  0  0
 17 46  1  0  0  0  0
 18 20  1  0  0  0  0
 18 47  1  0  0  0  0
 18 48  1  0  0  0  0
 19 21  1  0  0  0  0
 19 49  1  0  0  0  0
 19 50  1  0  0  0  0
 20 51  1  0  0  0  0
 20 52  1  0  0  0  0
 21 53  1  0  0  0  0
 21 54  1  0  0  0  0
 22 23  1  0  0  0  0
 22 28  1  0  0  0  0
 22 55  1  0  0  0  0
 23 29  1  0  0  0  0
 23 30  1  0  0  0  0
 23 56  1  0  0  0  0
 24 25  1  0  0  0  0
 24 31  1  0  0  0  0
 24 57  1  0  0  0  0
 25 27  1  0  0  0  0
 25 58  1  0  0  0  0
 25 59  1  0  0  0  0
 27 32  1  0  0  0  0
 27 33  1  0  0  0  0
 27 60  1  0  0  0  0
 29 63  1  0  0  0  0
 29 64  1  0  0  0  0
 29 65  1  0  0  0  0
 30 66  1  0  0  0  0
 30 67  1  0  0  0  0
 30 68  1  0  0  0  0
 32 69  1  0  0  0  0
 32 70  1  0  0  0  0
 32 71  1  0  0  0  0
 33 72  1  0  0  0  0
 33 73  1  0  0  0  0
 33 74  1  0  0  0  0
 34 35  1  0  0  0  0
 34 36  1  0  0  0  0
 34 76  1  0  0  0  0
 35 77  1  0  0  0  0
 35 78  1  0  0  0  0
 37 38  1  0  0  0  0
 37 80  1  0  0  0  0
 37 81  1  0  0  0  0
 38 39  1  0  0  0  0
 38 82  1  0  0  0  0
 38 83  1  0  0  0  0
 39 40  2  0  0  0  0
 39 41  1  0  0  0  0
 40 42  1  0  0  0  0
 41 43  2  0  0  0  0
 41 85  1  0  0  0  0
 42 44  2  0  0  0  0
 42 86  1  0  0  0  0
 43 44  1  0  0  0  0
 43 87  1  0  0  0  0
 44 45  1  0  0  0  0
M  END
> <PUBCHEM_COMPOUND_CID>
507480
> <PUBCHEM_COMPOUND_CANONICALIZED>
1
> <PUBCHEM_CACTVS_COMPLEXITY>
1140
> <PUBCHEM_CACTVS_HBOND_ACCEPTOR>
10
> <PUBCHEM_CACTVS_HBOND_DONOR>
6
> <PUBCHEM_CACTVS_ROTATABLE_BOND>
16
> <PUBCHEM_CACTVS_SUBSKEYS>
AAADcfB7vABkAAAAAAAAAAAAAAAAAAAAAAA0QAAAAAAAAAABAAAAHgYQCAAADT7l2CayCILABg6IAiHSGHBCAAAkBRAIiIGICskIZjKhlzGccQAk1gGomYeYyPCOQAAAIAABAACAAABAAAIAAAAAAAAAAA==
> <PUBCHEM_IUPAC_OPENEYE_NAME>
3-chloro-4-[2-[[(2R)-2-[[(2S)-2-[[(2S)-2-[(1,1-dioxothian-4-yl)oxycarbonylamino]-3-methyl-butanoyl]amino]-4-methyl-pentanoyl]amino]-3-sulfanyl-propanoyl]amino]ethyl]benzoic acid
> <PUBCHEM_IUPAC_CAS_NAME>
3-chloro-4-[2-[[(2R)-2-[[(2S)-2-[[(2S)-2-[[(1,1-dioxo-4-thianyl)oxy-oxomethyl]amino]-3-methyl-1-oxobutyl]amino]-4-methyl-1-oxopentyl]amino]-3-mercapto-1-oxopropyl]amino]ethyl]benzoic acid
> <PUBCHEM_IUPAC_NAME_MARKUP>
3-chloro-4-[2-[[(2<I>R</I>)-2-[[(2<I>S</I>)-2-[[(2<I>S</I>)-2-[(1,1-dioxothian-4-yl)oxycarbonylamino]-3-methylbutanoyl]amino]-4-methylpentanoyl]amino]-3-sulfanylpropanoyl]amino]ethyl]benzoic acid
> <PUBCHEM_IUPAC_NAME>
3-chloro-4-[2-[[(2R)-2-[[(2S)-2-[[(2S)-2-[(1,1-dioxothian-4-yl)oxycarbonylamino]-3-methylbutanoyl]amino]-4-methylpentanoyl]amino]-3-sulfanylpropanoyl]amino]ethyl]benzoic acid
> <PUBCHEM_IUPAC_SYSTEMATIC_NAME>
4-[2-[[(2R)-2-[[(2S)-2-[[(2S)-2-[[1,1-bis(oxidanylidene)thian-4-yl]oxycarbonylamino]-3-methyl-butanoyl]amino]-4-methyl-pentanoyl]amino]-3-sulfanyl-propanoyl]amino]ethyl]-3-chloranyl-benzoic acid
> <PUBCHEM_IUPAC_TRADITIONAL_NAME>
3-chloro-4-[2-[[(2R)-2-[[(2S)-2-[[(2S)-2-[(1,1-diketothian-4-yl)oxycarbonylamino]-3-methyl-butanoyl]amino]-4-methyl-pentanoyl]amino]-3-mercapto-propanoyl]amino]ethyl]benzoic acid
> <PUBCHEM_IUPAC_INCHI>
InChI=1S/C29H43ClN4O9S2/c1-16(2)13-22(32-27(37)24(17(3)4)34-29(40)43-20-8-11-45(41,42)12-9-20)26(36)33-23(15-44)25(35)31-10-7-18-5-6-19(28(38)39)14-21(18)30/h5-6,14,16-17,20,22-24,44H,7-13,15H2,1-4H3,(H,31,35)(H,32,37)(H,33,36)(H,34,40)(H,38,39)/t22-,23-,24-/m0/s1
> <PUBCHEM_IUPAC_INCHIKEY>
MUGWCHVAHLNZMQ-HJOGWXRNSA-N
> <PUBCHEM_XLOGP3_AA>
3.4
> <PUBCHEM_EXACT_MASS>
690.2159990
> <PUBCHEM_MOLECULAR_FORMULA>
C29H43ClN4O9S2
> <PUBCHEM_MOLECULAR_WEIGHT>
691.3
> <PUBCHEM_OPENEYE_CAN_SMILES>
CC(C)CC(C(=O)NC(CS)C(=O)NCCC1=C(C=C(C=C1)C(=O)O)Cl)NC(=O)C(C(C)C)NC(=O)OC2CCS(=O)(=O)CC2
> <PUBCHEM_OPENEYE_ISO_SMILES>
CC(C)C[C@@H](C(=O)N[C@@H](CS)C(=O)NCCC1=C(C=C(C=C1)C(=O)O)Cl)NC(=O)[C@H](C(C)C)NC(=O)OC2CCS(=O)(=O)CC2
> <PUBCHEM_CACTVS_TPSA>
206
> <PUBCHEM_MONOISOTOPIC_WEIGHT>
690.2159990
> <PUBCHEM_TOTAL_CHARGE>
0
> <PUBCHEM_HEAVY_ATOM_COUNT>
45
> <PUBCHEM_ATOM_DEF_STEREO_COUNT>
3
> <PUBCHEM_ATOM_UDEF_STEREO_COUNT>
0
> <PUBCHEM_BOND_DEF_STEREO_COUNT>
0
> <PUBCHEM_BOND_UDEF_STEREO_COUNT>
0
> <PUBCHEM_ISOTOPIC_ATOM_COUNT>
0
> <PUBCHEM_COMPONENT_COUNT>
1
> <PUBCHEM_CACTVS_TAUTO_COUNT>
-1
> <PUBCHEM_COORDINATE_TYPE>
1
5
255
> <PUBCHEM_BONDANNOTATIONS>
22  13  6
24  14  6
34  15  5
39  40  8
39  41  8
40  42  8
41  43  8
42  44  8
43  44  8
$$$$
