507453
  -OEChem-10302200282D
 87 87  0     1  0  0  0  0  0999 V2000
    7.1962   -1.4050    0.0000 S   0  0  0  0  0  0  0  0  0  0  0  0
    6.3301   -1.9050    0.0000 O   0  0  0  0  0  0  0  0  0  0  0  0
    6.3301   -2.9050    0.0000 O   0  0  0  0  0  0  0  0  0  0  0  0
    7.1962   -6.4050    0.0000 O   0  0  0  0  0  0  0  0  0  0  0  0
    5.4641    1.5950    0.0000 O   0  0  0  0  0  0  0  0  0  0  0  0
    3.7320   -7.4050    0.0000 O   0  0  0  0  0  0  0  0  0  0  0  0
    5.4641   -6.4050    0.0000 O   0  0  0  0  0  0  0  0  0  0  0  0
    2.8660   -5.9050    0.0000 O   0  0  0  0  0  0  0  0  0  0  0  0
    8.9282    8.5950    0.0000 O   0  0  0  0  0  0  0  0  0  0  0  0
    9.7942    7.0950    0.0000 O   0  0  0  0  0  0  0  0  0  0  0  0
    4.5981   -2.9050    0.0000 N   0  0  0  0  0  0  0  0  0  0  0  0
    5.4641   -0.4050    0.0000 N   0  0  0  0  0  0  0  0  0  0  0  0
    6.3301   -4.9050    0.0000 N   0  0  0  0  0  0  0  0  0  0  0  0
    7.1962    1.5950    0.0000 N   0  0  0  0  0  0  0  0  0  0  0  0
    3.7320   -1.4050    0.0000 C   0  0  0  0  0  0  0  0  0  0  0  0
    4.5981   -1.9050    0.0000 C   0  0  1  0  0  0  0  0  0  0  0  0
    2.8660   -1.9050    0.0000 C   0  0  0  0  0  0  0  0  0  0  0  0
    5.4641   -1.4050    0.0000 C   0  0  0  0  0  0  0  0  0  0  0  0
    5.4641   -4.4050    0.0000 C   0  0  2  0  0  0  0  0  0  0  0  0
    2.0000   -1.4050    0.0000 C   0  0  0  0  0  0  0  0  0  0  0  0
    2.8660   -2.9050    0.0000 C   0  0  0  0  0  0  0  0  0  0  0  0
    5.4641   -3.4050    0.0000 C   0  0  0  0  0  0  0  0  0  0  0  0
    4.5981   -4.9050    0.0000 C   0  0  0  0  0  0  0  0  0  0  0  0
    6.3301    0.0950    0.0000 C   0  0  1  0  0  0  0  0  0  0  0  0
    4.5981   -5.9050    0.0000 C   0  0  0  0  0  0  0  0  0  0  0  0
    7.1962   -0.4050    0.0000 C   0  0  0  0  0  0  0  0  0  0  0  0
    6.3301    1.0950    0.0000 C   0  0  0  0  0  0  0  0  0  0  0  0
    7.1962    2.5950    0.0000 C   0  0  0  0  0  0  0  0  0  0  0  0
    6.3301   -5.9050    0.0000 C   0  0  0  0  0  0  0  0  0  0  0  0
    8.0622    3.0950    0.0000 C   0  0  0  0  0  0  0  0  0  0  0  0
    3.7320   -6.4050    0.0000 C   0  0  0  0  0  0  0  0  0  0  0  0
    8.0622   -7.9050    0.0000 C   0  0  0  0  0  0  0  0  0  0  0  0
    7.1962   -7.4050    0.0000 C   0  0  0  0  0  0  0  0  0  0  0  0
    8.0622    4.0950    0.0000 C   0  0  0  0  0  0  0  0  0  0  0  0
    8.0622   -8.9050    0.0000 C   0  0  0  0  0  0  0  0  0  0  0  0
    8.9282   -7.4050    0.0000 C   0  0  0  0  0  0  0  0  0  0  0  0
    8.9282    4.5950    0.0000 C   0  0  0  0  0  0  0  0  0  0  0  0
    7.1962    4.5950    0.0000 C   0  0  0  0  0  0  0  0  0  0  0  0
    8.0622    6.0950    0.0000 C   0  0  0  0  0  0  0  0  0  0  0  0
    8.9282    5.5950    0.0000 C   0  0  0  0  0  0  0  0  0  0  0  0
    7.1962    5.5950    0.0000 C   0  0  0  0  0  0  0  0  0  0  0  0
    8.0622    7.0950    0.0000 C   0  0  0  0  0  0  0  0  0  0  0  0
    8.9282    7.5950    0.0000 C   0  0  0  0  0  0  0  0  0  0  0  0
    4.1306   -0.9301    0.0000 H   0  0  0  0  0  0  0  0  0  0  0  0
    3.3335   -0.9301    0.0000 H   0  0  0  0  0  0  0  0  0  0  0  0
    5.1350   -2.2150    0.0000 H   0  0  0  0  0  0  0  0  0  0  0  0
    2.8660   -1.2850    0.0000 H   0  0  0  0  0  0  0  0  0  0  0  0
    4.0611   -3.2150    0.0000 H   0  0  0  0  0  0  0  0  0  0  0  0
    5.4641   -5.0250    0.0000 H   0  0  0  0  0  0  0  0  0  0  0  0
    2.3100   -0.8681    0.0000 H   0  0  0  0  0  0  0  0  0  0  0  0
    1.4631   -1.0950    0.0000 H   0  0  0  0  0  0  0  0  0  0  0  0
    1.6900   -1.9419    0.0000 H   0  0  0  0  0  0  0  0  0  0  0  0
    2.2460   -2.9050    0.0000 H   0  0  0  0  0  0  0  0  0  0  0  0
    2.8660   -3.5250    0.0000 H   0  0  0  0  0  0  0  0  0  0  0  0
    3.4860   -2.9050    0.0000 H   0  0  0  0  0  0  0  0  0  0  0  0
    4.3860   -4.3224    0.0000 H   0  0  0  0  0  0  0  0  0  0  0  0
    3.9875   -5.0127    0.0000 H   0  0  0  0  0  0  0  0  0  0  0  0
    4.9272   -0.0950    0.0000 H   0  0  0  0  0  0  0  0  0  0  0  0
    5.7932    0.4050    0.0000 H   0  0  0  0  0  0  0  0  0  0  0  0
    6.8671   -4.5950    0.0000 H   0  0  0  0  0  0  0  0  0  0  0  0
    4.8101   -6.4876    0.0000 H   0  0  0  0  0  0  0  0  0  0  0  0
    5.2087   -5.7973    0.0000 H   0  0  0  0  0  0  0  0  0  0  0  0
    7.8067   -0.5127    0.0000 H   0  0  0  0  0  0  0  0  0  0  0  0
    7.4082    0.1776    0.0000 H   0  0  0  0  0  0  0  0  0  0  0  0
    7.7331    1.2850    0.0000 H   0  0  0  0  0  0  0  0  0  0  0  0
    6.9841    3.1776    0.0000 H   0  0  0  0  0  0  0  0  0  0  0  0
    6.5856    2.4873    0.0000 H   0  0  0  0  0  0  0  0  0  0  0  0
    8.2742    2.5124    0.0000 H   0  0  0  0  0  0  0  0  0  0  0  0
    8.6728    3.2027    0.0000 H   0  0  0  0  0  0  0  0  0  0  0  0
    8.0622   -7.2850    0.0000 H   0  0  0  0  0  0  0  0  0  0  0  0
    6.5856   -7.2973    0.0000 H   0  0  0  0  0  0  0  0  0  0  0  0
    6.9841   -7.9876    0.0000 H   0  0  0  0  0  0  0  0  0  0  0  0
    7.7331   -1.7150    0.0000 H   0  0  0  0  0  0  0  0  0  0  0  0
    7.4422   -8.9050    0.0000 H   0  0  0  0  0  0  0  0  0  0  0  0
    8.0622   -9.5250    0.0000 H   0  0  0  0  0  0  0  0  0  0  0  0
    8.6822   -8.9050    0.0000 H   0  0  0  0  0  0  0  0  0  0  0  0
    9.2382   -7.9419    0.0000 H   0  0  0  0  0  0  0  0  0  0  0  0
    9.4651   -7.0950    0.0000 H   0  0  0  0  0  0  0  0  0  0  0  0
    8.6182   -6.8681    0.0000 H   0  0  0  0  0  0  0  0  0  0  0  0
    9.4651    4.2850    0.0000 H   0  0  0  0  0  0  0  0  0  0  0  0
    6.6592    4.2850    0.0000 H   0  0  0  0  0  0  0  0  0  0  0  0
    9.4651    5.9050    0.0000 H   0  0  0  0  0  0  0  0  0  0  0  0
    6.6592    5.9050    0.0000 H   0  0  0  0  0  0  0  0  0  0  0  0
    3.1951   -7.7150    0.0000 H   0  0  0  0  0  0  0  0  0  0  0  0
    7.8501    7.6776    0.0000 H   0  0  0  0  0  0  0  0  0  0  0  0
    7.4516    6.9873    0.0000 H   0  0  0  0  0  0  0  0  0  0  0  0
    9.4651    8.9050    0.0000 H   0  0  0  0  0  0  0  0  0  0  0  0
  1 26  1  0  0  0  0
  1 73  1  0  0  0  0
  2 18  2  0  0  0  0
  3 22  2  0  0  0  0
  4 29  1  0  0  0  0
  4 33  1  0  0  0  0
  5 27  2  0  0  0  0
  6 31  1  0  0  0  0
  6 84  1  0  0  0  0
  7 29  2  0  0  0  0
  8 31  2  0  0  0  0
  9 43  1  0  0  0  0
  9 87  1  0  0  0  0
 10 43  2  0  0  0  0
 16 11  1  1  0  0  0
 11 22  1  0  0  0  0
 11 48  1  0  0  0  0
 12 18  1  0  0  0  0
 24 12  1  6  0  0  0
 12 58  1  0  0  0  0
 19 13  1  1  0  0  0
 13 29  1  0  0  0  0
 13 60  1  0  0  0  0
 14 27  1  0  0  0  0
 14 28  1  0  0  0  0
 14 65  1  0  0  0  0
 15 16  1  0  0  0  0
 15 17  1  0  0  0  0
 15 44  1  0  0  0  0
 15 45  1  0  0  0  0
 16 18  1  0  0  0  0
 16 46  1  0  0  0  0
 17 20  1  0  0  0  0
 17 21  1  0  0  0  0
 17 47  1  0  0  0  0
 19 22  1  0  0  0  0
 19 23  1  0  0  0  0
 19 49  1  0  0  0  0
 20 50  1  0  0  0  0
 20 51  1  0  0  0  0
 20 52  1  0  0  0  0
 21 53  1  0  0  0  0
 21 54  1  0  0  0  0
 21 55  1  0  0  0  0
 23 25  1  0  0  0  0
 23 56  1  0  0  0  0
 23 57  1  0  0  0  0
 24 26  1  0  0  0  0
 24 27  1  0  0  0  0
 24 59  1  0  0  0  0
 25 31  1  0  0  0  0
 25 61  1  0  0  0  0
 25 62  1  0  0  0  0
 26 63  1  0  0  0  0
 26 64  1  0  0  0  0
 28 30  1  0  0  0  0
 28 66  1  0  0  0  0
 28 67  1  0  0  0  0
 30 34  1  0  0  0  0
 30 68  1  0  0  0  0
 30 69  1  0  0  0  0
 32 33  1  0  0  0  0
 32 35  1  0  0  0  0
 32 36  1  0  0  0  0
 32 70  1  0  0  0  0
 33 71  1  0  0  0  0
 33 72  1  0  0  0  0
 34 37  2  0  0  0  0
 34 38  1  0  0  0  0
 35 74  1  0  0  0  0
 35 75  1  0  0  0  0
 35 76  1  0  0  0  0
 36 77  1  0  0  0  0
 36 78  1  0  0  0  0
 36 79  1  0  0  0  0
 37 40  1  0  0  0  0
 37 80  1  0  0  0  0
 38 41  2  0  0  0  0
 38 81  1  0  0  0  0
 39 40  2  0  0  0  0
 39 41  1  0  0  0  0
 39 42  1  0  0  0  0
 40 82  1  0  0  0  0
 41 83  1  0  0  0  0
 42 43  1  0  0  0  0
 42 85  1  0  0  0  0
 42 86  1  0  0  0  0
M  END
> <PUBCHEM_COMPOUND_CID>
507453
> <PUBCHEM_COMPOUND_CANONICALIZED>
1
> <PUBCHEM_CACTVS_COMPLEXITY>
939
> <PUBCHEM_CACTVS_HBOND_ACCEPTOR>
10
> <PUBCHEM_CACTVS_HBOND_DONOR>
7
> <PUBCHEM_CACTVS_ROTATABLE_BOND>
20
> <PUBCHEM_CACTVS_SUBSKEYS>
AAADcfB7vABAAAAAAAAAAAAAAAAAAAAAAAAwAAAAAAAAAAABAAAAHgQQCAAADSjl2AayCILABgSIAiHSGAACAAAgAAAIiIGIAIkIYDKAlTGcYAAk1gGIiAe83+KOQAAAAAAAAACAAAAAAAAAAAAAAAAAAA==
> <PUBCHEM_IUPAC_OPENEYE_NAME>
(4S)-5-[[(1S)-1-[[(1R)-2-[2-[4-(carboxymethyl)phenyl]ethylamino]-2-oxo-1-(sulfanylmethyl)ethyl]carbamoyl]-3-methyl-butyl]amino]-4-(isobutoxycarbonylamino)-5-oxo-pentanoic acid
> <PUBCHEM_IUPAC_CAS_NAME>
(4S)-5-[[(2S)-1-[[(2R)-1-[2-[4-(carboxymethyl)phenyl]ethylamino]-3-mercapto-1-oxopropan-2-yl]amino]-4-methyl-1-oxopentan-2-yl]amino]-4-[[2-methylpropoxy(oxo)methyl]amino]-5-oxopentanoic acid
> <PUBCHEM_IUPAC_NAME_MARKUP>
(4<I>S</I>)-5-[[(2<I>S</I>)-1-[[(2<I>R</I>)-1-[2-[4-(carboxymethyl)phenyl]ethylamino]-1-oxo-3-sulfanylpropan-2-yl]amino]-4-methyl-1-oxopentan-2-yl]amino]-4-(2-methylpropoxycarbonylamino)-5-oxopentanoic acid
> <PUBCHEM_IUPAC_NAME>
(4S)-5-[[(2S)-1-[[(2R)-1-[2-[4-(carboxymethyl)phenyl]ethylamino]-1-oxo-3-sulfanylpropan-2-yl]amino]-4-methyl-1-oxopentan-2-yl]amino]-4-(2-methylpropoxycarbonylamino)-5-oxopentanoic acid
> <PUBCHEM_IUPAC_SYSTEMATIC_NAME>
(4S)-5-[[(2S)-1-[[(2R)-1-[2-[4-(2-hydroxy-2-oxoethyl)phenyl]ethylamino]-1-oxidanylidene-3-sulfanyl-propan-2-yl]amino]-4-methyl-1-oxidanylidene-pentan-2-yl]amino]-4-(2-methylpropoxycarbonylamino)-5-oxidanylidene-pentanoic acid
> <PUBCHEM_IUPAC_TRADITIONAL_NAME>
(4S)-5-[[(1S)-1-[[(1R)-2-[2-[4-(carboxymethyl)phenyl]ethylamino]-2-keto-1-(mercaptomethyl)ethyl]carbamoyl]-3-methyl-butyl]amino]-4-(isobutoxycarbonylamino)-5-keto-valeric acid
> <PUBCHEM_IUPAC_INCHI>
InChI=1S/C29H44N4O9S/c1-17(2)13-22(31-27(39)21(9-10-24(34)35)33-29(41)42-15-18(3)4)28(40)32-23(16-43)26(38)30-12-11-19-5-7-20(8-6-19)14-25(36)37/h5-8,17-18,21-23,43H,9-16H2,1-4H3,(H,30,38)(H,31,39)(H,32,40)(H,33,41)(H,34,35)(H,36,37)/t21-,22-,23-/m0/s1
> <PUBCHEM_IUPAC_INCHIKEY>
IGYJCHNUVSYKMV-VABKMULXSA-N
> <PUBCHEM_XLOGP3_AA>
2.7
> <PUBCHEM_EXACT_MASS>
624.28290017
> <PUBCHEM_MOLECULAR_FORMULA>
C29H44N4O9S
> <PUBCHEM_MOLECULAR_WEIGHT>
624.7
> <PUBCHEM_OPENEYE_CAN_SMILES>
CC(C)CC(C(=O)NC(CS)C(=O)NCCC1=CC=C(C=C1)CC(=O)O)NC(=O)C(CCC(=O)O)NC(=O)OCC(C)C
> <PUBCHEM_OPENEYE_ISO_SMILES>
CC(C)C[C@@H](C(=O)N[C@@H](CS)C(=O)NCCC1=CC=C(C=C1)CC(=O)O)NC(=O)[C@H](CCC(=O)O)NC(=O)OCC(C)C
> <PUBCHEM_CACTVS_TPSA>
201
> <PUBCHEM_MONOISOTOPIC_WEIGHT>
624.28290017
> <PUBCHEM_TOTAL_CHARGE>
0
> <PUBCHEM_HEAVY_ATOM_COUNT>
43
> <PUBCHEM_ATOM_DEF_STEREO_COUNT>
3
> <PUBCHEM_ATOM_UDEF_STEREO_COUNT>
0
> <PUBCHEM_BOND_DEF_STEREO_COUNT>
0
> <PUBCHEM_BOND_UDEF_STEREO_COUNT>
0
> <PUBCHEM_ISOTOPIC_ATOM_COUNT>
0
> <PUBCHEM_COMPONENT_COUNT>
1
> <PUBCHEM_CACTVS_TAUTO_COUNT>
-1
> <PUBCHEM_COORDINATE_TYPE>
1
5
255
> <PUBCHEM_BONDANNOTATIONS>
16  11  5
24  12  6
19  13  5
34  37  8
34  38  8
37  40  8
38  41  8
39  40  8
39  41  8
$$$$
