507409
  -OEChem-10302200282D
 85 86  0     1  0  0  0  0  0999 V2000
    4.5981   -5.3100    0.0000 S   0  0  0  0  0  0  0  0  0  0  0  0
    4.5981    0.6900    0.0000 O   0  0  0  0  0  0  0  0  0  0  0  0
    3.7320   -2.8100    0.0000 O   0  0  0  0  0  0  0  0  0  0  0  0
    7.1962    3.1900    0.0000 O   0  0  0  0  0  0  0  0  0  0  0  0
    7.1962   -3.8100    0.0000 O   0  0  0  0  0  0  0  0  0  0  0  0
    8.0622    1.6900    0.0000 O   0  0  0  0  0  0  0  0  0  0  0  0
    8.9282    8.1900    0.0000 O   0  0  0  0  0  0  0  0  0  0  0  0
    7.1962    8.1900    0.0000 O   0  0  0  0  0  0  0  0  0  0  0  0
    5.4641   -0.8100    0.0000 N   0  0  0  0  0  0  0  0  0  0  0  0
    5.4641   -2.8100    0.0000 N   0  0  0  0  0  0  0  0  0  0  0  0
    6.3301    1.6900    0.0000 N   0  0  0  0  0  0  0  0  0  0  0  0
    6.3301   -5.3100    0.0000 N   0  0  0  0  0  0  0  0  0  0  0  0
    4.5981   -1.3100    0.0000 C   0  0  1  0  0  0  0  0  0  0  0  0
    3.7320   -0.8100    0.0000 C   0  0  0  0  0  0  0  0  0  0  0  0
    2.8660   -1.3100    0.0000 C   0  0  0  0  0  0  0  0  0  0  0  0
    6.3301    0.6900    0.0000 C   0  0  1  0  0  0  0  0  0  0  0  0
    7.1962    0.1900    0.0000 C   0  0  0  0  0  0  0  0  0  0  0  0
    5.4641    0.1900    0.0000 C   0  0  0  0  0  0  0  0  0  0  0  0
    4.5981   -2.3100    0.0000 C   0  0  0  0  0  0  0  0  0  0  0  0
    2.0000   -0.8100    0.0000 C   0  0  0  0  0  0  0  0  0  0  0  0
    2.8660   -2.3100    0.0000 C   0  0  0  0  0  0  0  0  0  0  0  0
    7.1962   -0.8100    0.0000 C   0  0  0  0  0  0  0  0  0  0  0  0
    8.0622    0.6900    0.0000 C   0  0  0  0  0  0  0  0  0  0  0  0
    5.4641   -3.8100    0.0000 C   0  0  1  0  0  0  0  0  0  0  0  0
    4.5981   -4.3100    0.0000 C   0  0  0  0  0  0  0  0  0  0  0  0
    6.3301   -4.3100    0.0000 C   0  0  0  0  0  0  0  0  0  0  0  0
    7.1962    2.1900    0.0000 C   0  0  0  0  0  0  0  0  0  0  0  0
    7.1962   -5.8100    0.0000 C   0  0  0  0  0  0  0  0  0  0  0  0
    7.1962   -6.8100    0.0000 C   0  0  0  0  0  0  0  0  0  0  0  0
    8.0622   -7.3100    0.0000 C   0  0  0  0  0  0  0  0  0  0  0  0
    8.0622    3.6900    0.0000 C   0  0  0  0  0  0  0  0  0  0  0  0
    8.0622    4.6900    0.0000 C   0  0  0  0  0  0  0  0  0  0  0  0
    8.0622   -8.3100    0.0000 C   0  0  0  0  0  0  0  0  0  0  0  0
    8.9282   -6.8100    0.0000 C   0  0  0  0  0  0  0  0  0  0  0  0
    8.9282    5.1900    0.0000 C   0  0  0  0  0  0  0  0  0  0  0  0
    7.1962    5.1900    0.0000 C   0  0  0  0  0  0  0  0  0  0  0  0
    8.9282   -8.8100    0.0000 C   0  0  0  0  0  0  0  0  0  0  0  0
    9.7942   -7.3100    0.0000 C   0  0  0  0  0  0  0  0  0  0  0  0
    9.7942   -8.3100    0.0000 C   0  0  0  0  0  0  0  0  0  0  0  0
    8.9282    6.1900    0.0000 C   0  0  0  0  0  0  0  0  0  0  0  0
    7.1962    6.1900    0.0000 C   0  0  0  0  0  0  0  0  0  0  0  0
    8.0622    6.6900    0.0000 C   0  0  0  0  0  0  0  0  0  0  0  0
    8.0622    7.6900    0.0000 C   0  0  0  0  0  0  0  0  0  0  0  0
    4.5981   -0.6900    0.0000 H   0  0  0  0  0  0  0  0  0  0  0  0
    4.1306   -0.3351    0.0000 H   0  0  0  0  0  0  0  0  0  0  0  0
    3.3335   -0.3351    0.0000 H   0  0  0  0  0  0  0  0  0  0  0  0
    2.8660   -0.6900    0.0000 H   0  0  0  0  0  0  0  0  0  0  0  0
    6.8671    1.0000    0.0000 H   0  0  0  0  0  0  0  0  0  0  0  0
    6.6592   -0.1200    0.0000 H   0  0  0  0  0  0  0  0  0  0  0  0
    6.0010   -1.1200    0.0000 H   0  0  0  0  0  0  0  0  0  0  0  0
    2.3100   -0.2731    0.0000 H   0  0  0  0  0  0  0  0  0  0  0  0
    1.4631   -0.5000    0.0000 H   0  0  0  0  0  0  0  0  0  0  0  0
    1.6900   -1.3469    0.0000 H   0  0  0  0  0  0  0  0  0  0  0  0
    2.2460   -2.3100    0.0000 H   0  0  0  0  0  0  0  0  0  0  0  0
    2.8660   -2.9300    0.0000 H   0  0  0  0  0  0  0  0  0  0  0  0
    3.4860   -2.3100    0.0000 H   0  0  0  0  0  0  0  0  0  0  0  0
    6.5762   -0.8100    0.0000 H   0  0  0  0  0  0  0  0  0  0  0  0
    7.1962   -1.4300    0.0000 H   0  0  0  0  0  0  0  0  0  0  0  0
    7.8162   -0.8100    0.0000 H   0  0  0  0  0  0  0  0  0  0  0  0
    8.3722    0.1531    0.0000 H   0  0  0  0  0  0  0  0  0  0  0  0
    8.5991    1.0000    0.0000 H   0  0  0  0  0  0  0  0  0  0  0  0
    7.7522    1.2269    0.0000 H   0  0  0  0  0  0  0  0  0  0  0  0
    6.0010   -2.5000    0.0000 H   0  0  0  0  0  0  0  0  0  0  0  0
    5.7932    2.0000    0.0000 H   0  0  0  0  0  0  0  0  0  0  0  0
    6.0010   -3.5000    0.0000 H   0  0  0  0  0  0  0  0  0  0  0  0
    4.3860   -3.7274    0.0000 H   0  0  0  0  0  0  0  0  0  0  0  0
    3.9875   -4.4177    0.0000 H   0  0  0  0  0  0  0  0  0  0  0  0
    5.7932   -5.6200    0.0000 H   0  0  0  0  0  0  0  0  0  0  0  0
    7.8067   -5.9177    0.0000 H   0  0  0  0  0  0  0  0  0  0  0  0
    7.4082   -5.2274    0.0000 H   0  0  0  0  0  0  0  0  0  0  0  0
    6.5856   -6.7023    0.0000 H   0  0  0  0  0  0  0  0  0  0  0  0
    6.9841   -7.3926    0.0000 H   0  0  0  0  0  0  0  0  0  0  0  0
    4.0611   -5.6200    0.0000 H   0  0  0  0  0  0  0  0  0  0  0  0
    8.2742    3.1074    0.0000 H   0  0  0  0  0  0  0  0  0  0  0  0
    8.6728    3.7977    0.0000 H   0  0  0  0  0  0  0  0  0  0  0  0
    7.5252   -8.6200    0.0000 H   0  0  0  0  0  0  0  0  0  0  0  0
    8.9282   -6.1900    0.0000 H   0  0  0  0  0  0  0  0  0  0  0  0
    9.4651    4.8800    0.0000 H   0  0  0  0  0  0  0  0  0  0  0  0
    6.6592    4.8800    0.0000 H   0  0  0  0  0  0  0  0  0  0  0  0
    8.9282   -9.4300    0.0000 H   0  0  0  0  0  0  0  0  0  0  0  0
   10.3312   -7.0000    0.0000 H   0  0  0  0  0  0  0  0  0  0  0  0
   10.3312   -8.6200    0.0000 H   0  0  0  0  0  0  0  0  0  0  0  0
    9.4651    6.5000    0.0000 H   0  0  0  0  0  0  0  0  0  0  0  0
    6.6592    6.5000    0.0000 H   0  0  0  0  0  0  0  0  0  0  0  0
    8.9282    8.8100    0.0000 H   0  0  0  0  0  0  0  0  0  0  0  0
  1 25  1  0  0  0  0
  1 73  1  0  0  0  0
  2 18  2  0  0  0  0
  3 19  2  0  0  0  0
  4 27  1  0  0  0  0
  4 31  1  0  0  0  0
  5 26  2  0  0  0  0
  6 27  2  0  0  0  0
  7 43  1  0  0  0  0
  7 85  1  0  0  0  0
  8 43  2  0  0  0  0
 13  9  1  6  0  0  0
  9 18  1  0  0  0  0
  9 50  1  0  0  0  0
 10 19  1  0  0  0  0
 24 10  1  6  0  0  0
 10 63  1  0  0  0  0
 16 11  1  1  0  0  0
 11 27  1  0  0  0  0
 11 64  1  0  0  0  0
 12 26  1  0  0  0  0
 12 28  1  0  0  0  0
 12 68  1  0  0  0  0
 13 14  1  0  0  0  0
 13 19  1  0  0  0  0
 13 44  1  0  0  0  0
 14 15  1  0  0  0  0
 14 45  1  0  0  0  0
 14 46  1  0  0  0  0
 15 20  1  0  0  0  0
 15 21  1  0  0  0  0
 15 47  1  0  0  0  0
 16 17  1  0  0  0  0
 16 18  1  0  0  0  0
 16 48  1  0  0  0  0
 17 22  1  0  0  0  0
 17 23  1  0  0  0  0
 17 49  1  0  0  0  0
 20 51  1  0  0  0  0
 20 52  1  0  0  0  0
 20 53  1  0  0  0  0
 21 54  1  0  0  0  0
 21 55  1  0  0  0  0
 21 56  1  0  0  0  0
 22 57  1  0  0  0  0
 22 58  1  0  0  0  0
 22 59  1  0  0  0  0
 23 60  1  0  0  0  0
 23 61  1  0  0  0  0
 23 62  1  0  0  0  0
 24 25  1  0  0  0  0
 24 26  1  0  0  0  0
 24 65  1  0  0  0  0
 25 66  1  0  0  0  0
 25 67  1  0  0  0  0
 28 29  1  0  0  0  0
 28 69  1  0  0  0  0
 28 70  1  0  0  0  0
 29 30  1  0  0  0  0
 29 71  1  0  0  0  0
 29 72  1  0  0  0  0
 30 33  2  0  0  0  0
 30 34  1  0  0  0  0
 31 32  1  0  0  0  0
 31 74  1  0  0  0  0
 31 75  1  0  0  0  0
 32 35  2  0  0  0  0
 32 36  1  0  0  0  0
 33 37  1  0  0  0  0
 33 76  1  0  0  0  0
 34 38  2  0  0  0  0
 34 77  1  0  0  0  0
 35 40  1  0  0  0  0
 35 78  1  0  0  0  0
 36 41  2  0  0  0  0
 36 79  1  0  0  0  0
 37 39  2  0  0  0  0
 37 80  1  0  0  0  0
 38 39  1  0  0  0  0
 38 81  1  0  0  0  0
 39 82  1  0  0  0  0
 40 42  2  0  0  0  0
 40 83  1  0  0  0  0
 41 42  1  0  0  0  0
 41 84  1  0  0  0  0
 42 43  1  0  0  0  0
M  END
> <PUBCHEM_COMPOUND_CID>
507409
> <PUBCHEM_COMPOUND_CANONICALIZED>
1
> <PUBCHEM_CACTVS_COMPLEXITY>
918
> <PUBCHEM_CACTVS_HBOND_ACCEPTOR>
8
> <PUBCHEM_CACTVS_HBOND_DONOR>
6
> <PUBCHEM_CACTVS_ROTATABLE_BOND>
17
> <PUBCHEM_CACTVS_SUBSKEYS>
AAADcfB7uABAAAAAAAAAAAAAAAAAAAAAAAAwYAAAAAAAAAABQAAAHgQQCAAADSjl2AayCILABgSIAiHSGAACAAAkAAAIiIGICMkIZjKAtTmccQAk1gGIuYeYyLCOQAAAAAAAAACAAAAAAAAAAAAAAAAAAA==
> <PUBCHEM_IUPAC_OPENEYE_NAME>
4-[[(1S)-2-methyl-1-[[(1S)-3-methyl-1-[[(1R)-2-oxo-2-(2-phenylethylamino)-1-(sulfanylmethyl)ethyl]carbamoyl]butyl]carbamoyl]propyl]carbamoyloxymethyl]benzoic acid
> <PUBCHEM_IUPAC_CAS_NAME>
4-[[[[(2S)-1-[[(2S)-1-[[(2R)-3-mercapto-1-oxo-1-(2-phenylethylamino)propan-2-yl]amino]-4-methyl-1-oxopentan-2-yl]amino]-3-methyl-1-oxobutan-2-yl]amino]-oxomethoxy]methyl]benzoic acid
> <PUBCHEM_IUPAC_NAME_MARKUP>
4-[[(2<I>S</I>)-3-methyl-1-[[(2<I>S</I>)-4-methyl-1-oxo-1-[[(2<I>R</I>)-1-oxo-1-(2-phenylethylamino)-3-sulfanylpropan-2-yl]amino]pentan-2-yl]amino]-1-oxobutan-2-yl]carbamoyloxymethyl]benzoic acid
> <PUBCHEM_IUPAC_NAME>
4-[[(2S)-3-methyl-1-[[(2S)-4-methyl-1-oxo-1-[[(2R)-1-oxo-1-(2-phenylethylamino)-3-sulfanylpropan-2-yl]amino]pentan-2-yl]amino]-1-oxobutan-2-yl]carbamoyloxymethyl]benzoic acid
> <PUBCHEM_IUPAC_SYSTEMATIC_NAME>
4-[[(2S)-3-methyl-1-[[(2S)-4-methyl-1-oxidanylidene-1-[[(2R)-1-oxidanylidene-1-(2-phenylethylamino)-3-sulfanyl-propan-2-yl]amino]pentan-2-yl]amino]-1-oxidanylidene-butan-2-yl]carbamoyloxymethyl]benzoic acid
> <PUBCHEM_IUPAC_TRADITIONAL_NAME>
4-[[(1S)-1-[[(1S)-1-[[(1R)-2-keto-1-(mercaptomethyl)-2-(phenethylamino)ethyl]carbamoyl]-3-methyl-butyl]carbamoyl]-2-methyl-propyl]carbamoyloxymethyl]benzoic acid
> <PUBCHEM_IUPAC_INCHI>
InChI=1S/C31H42N4O7S/c1-19(2)16-24(28(37)34-25(18-43)27(36)32-15-14-21-8-6-5-7-9-21)33-29(38)26(20(3)4)35-31(41)42-17-22-10-12-23(13-11-22)30(39)40/h5-13,19-20,24-26,43H,14-18H2,1-4H3,(H,32,36)(H,33,38)(H,34,37)(H,35,41)(H,39,40)/t24-,25-,26-/m0/s1
> <PUBCHEM_IUPAC_INCHIKEY>
DCQIBVFAMKRGAO-GSDHBNRESA-N
> <PUBCHEM_XLOGP3_AA>
4.4
> <PUBCHEM_EXACT_MASS>
614.27742087
> <PUBCHEM_MOLECULAR_FORMULA>
C31H42N4O7S
> <PUBCHEM_MOLECULAR_WEIGHT>
614.8
> <PUBCHEM_OPENEYE_CAN_SMILES>
CC(C)CC(C(=O)NC(CS)C(=O)NCCC1=CC=CC=C1)NC(=O)C(C(C)C)NC(=O)OCC2=CC=C(C=C2)C(=O)O
> <PUBCHEM_OPENEYE_ISO_SMILES>
CC(C)C[C@@H](C(=O)N[C@@H](CS)C(=O)NCCC1=CC=CC=C1)NC(=O)[C@H](C(C)C)NC(=O)OCC2=CC=C(C=C2)C(=O)O
> <PUBCHEM_CACTVS_TPSA>
164
> <PUBCHEM_MONOISOTOPIC_WEIGHT>
614.27742087
> <PUBCHEM_TOTAL_CHARGE>
0
> <PUBCHEM_HEAVY_ATOM_COUNT>
43
> <PUBCHEM_ATOM_DEF_STEREO_COUNT>
3
> <PUBCHEM_ATOM_UDEF_STEREO_COUNT>
0
> <PUBCHEM_BOND_DEF_STEREO_COUNT>
0
> <PUBCHEM_BOND_UDEF_STEREO_COUNT>
0
> <PUBCHEM_ISOTOPIC_ATOM_COUNT>
0
> <PUBCHEM_COMPONENT_COUNT>
1
> <PUBCHEM_CACTVS_TAUTO_COUNT>
-1
> <PUBCHEM_COORDINATE_TYPE>
1
5
255
> <PUBCHEM_BONDANNOTATIONS>
24  10  6
16  11  5
30  33  8
30  34  8
32  35  8
32  36  8
33  37  8
34  38  8
35  40  8
36  41  8
37  39  8
38  39  8
40  42  8
41  42  8
13  9  6
$$$$
