507537
  -OEChem-10302200282D
 80 80  0     1  0  0  0  0  0999 V2000
    2.0000   -6.0600    0.0000 Cl  0  0  0  0  0  0  0  0  0  0  0  0
    4.5981   -0.5600    0.0000 S   0  0  0  0  0  0  0  0  0  0  0  0
    5.4641   -0.0600    0.0000 O   0  0  0  0  0  0  0  0  0  0  0  0
    5.4641    0.9400    0.0000 O   0  0  0  0  0  0  0  0  0  0  0  0
    6.3301    4.4400    0.0000 O   0  0  0  0  0  0  0  0  0  0  0  0
    6.3301   -3.5600    0.0000 O   0  0  0  0  0  0  0  0  0  0  0  0
    8.0622    5.4400    0.0000 O   0  0  0  0  0  0  0  0  0  0  0  0
    8.9282    3.9400    0.0000 O   0  0  0  0  0  0  0  0  0  0  0  0
    2.8660    7.4400    0.0000 O   0  0  0  0  0  0  0  0  0  0  0  0
    4.5981    7.4400    0.0000 O   0  0  0  0  0  0  0  0  0  0  0  0
    7.1962    0.9400    0.0000 N   0  0  0  0  0  0  0  0  0  0  0  0
    6.3301   -1.5600    0.0000 N   0  0  0  0  0  0  0  0  0  0  0  0
    5.4641    2.9400    0.0000 N   0  0  0  0  0  0  0  0  0  0  0  0
    4.5981   -3.5600    0.0000 N   0  0  0  0  0  0  0  0  0  0  0  0
    7.1962   -0.0600    0.0000 C   0  0  1  0  0  0  0  0  0  0  0  0
    8.0622   -0.5600    0.0000 C   0  0  0  0  0  0  0  0  0  0  0  0
    8.9282   -0.0600    0.0000 C   0  0  0  0  0  0  0  0  0  0  0  0
    6.3301    2.4400    0.0000 C   0  0  2  0  0  0  0  0  0  0  0  0
    6.3301   -0.5600    0.0000 C   0  0  0  0  0  0  0  0  0  0  0  0
    9.7942   -0.5600    0.0000 C   0  0  0  0  0  0  0  0  0  0  0  0
    8.9282    0.9400    0.0000 C   0  0  0  0  0  0  0  0  0  0  0  0
    6.3301    1.4400    0.0000 C   0  0  0  0  0  0  0  0  0  0  0  0
    7.1962    2.9400    0.0000 C   0  0  0  0  0  0  0  0  0  0  0  0
    5.4641   -2.0600    0.0000 C   0  0  1  0  0  0  0  0  0  0  0  0
    7.1962    3.9400    0.0000 C   0  0  0  0  0  0  0  0  0  0  0  0
    4.5981   -1.5600    0.0000 C   0  0  0  0  0  0  0  0  0  0  0  0
    5.4641    3.9400    0.0000 C   0  0  0  0  0  0  0  0  0  0  0  0
    5.4641   -3.0600    0.0000 C   0  0  0  0  0  0  0  0  0  0  0  0
    4.5981    4.4400    0.0000 C   0  0  0  0  0  0  0  0  0  0  0  0
    4.5981    5.4400    0.0000 C   0  0  0  0  0  0  0  0  0  0  0  0
    4.5981   -4.5600    0.0000 C   0  0  0  0  0  0  0  0  0  0  0  0
    8.0622    4.4400    0.0000 C   0  0  0  0  0  0  0  0  0  0  0  0
    3.7320   -5.0600    0.0000 C   0  0  0  0  0  0  0  0  0  0  0  0
    3.7320    5.9400    0.0000 C   0  0  0  0  0  0  0  0  0  0  0  0
    3.7320   -6.0600    0.0000 C   0  0  0  0  0  0  0  0  0  0  0  0
    3.7320    6.9400    0.0000 C   0  0  0  0  0  0  0  0  0  0  0  0
    2.8660   -6.5600    0.0000 C   0  0  0  0  0  0  0  0  0  0  0  0
    4.5981   -6.5600    0.0000 C   0  0  0  0  0  0  0  0  0  0  0  0
    2.8660   -7.5600    0.0000 C   0  0  0  0  0  0  0  0  0  0  0  0
    4.5981   -7.5600    0.0000 C   0  0  0  0  0  0  0  0  0  0  0  0
    3.7320   -8.0600    0.0000 C   0  0  0  0  0  0  0  0  0  0  0  0
    6.6592    0.2500    0.0000 H   0  0  0  0  0  0  0  0  0  0  0  0
    7.6636   -1.0350    0.0000 H   0  0  0  0  0  0  0  0  0  0  0  0
    8.4607   -1.0350    0.0000 H   0  0  0  0  0  0  0  0  0  0  0  0
    9.4651    0.2500    0.0000 H   0  0  0  0  0  0  0  0  0  0  0  0
    7.7331    1.2500    0.0000 H   0  0  0  0  0  0  0  0  0  0  0  0
    5.7932    2.1300    0.0000 H   0  0  0  0  0  0  0  0  0  0  0  0
    9.4842   -1.0969    0.0000 H   0  0  0  0  0  0  0  0  0  0  0  0
   10.3312   -0.8700    0.0000 H   0  0  0  0  0  0  0  0  0  0  0  0
   10.1042   -0.0231    0.0000 H   0  0  0  0  0  0  0  0  0  0  0  0
    9.5482    0.9400    0.0000 H   0  0  0  0  0  0  0  0  0  0  0  0
    8.9282    1.5600    0.0000 H   0  0  0  0  0  0  0  0  0  0  0  0
    8.3082    0.9400    0.0000 H   0  0  0  0  0  0  0  0  0  0  0  0
    7.4082    2.3574    0.0000 H   0  0  0  0  0  0  0  0  0  0  0  0
    7.8067    3.0477    0.0000 H   0  0  0  0  0  0  0  0  0  0  0  0
    6.8671   -1.8700    0.0000 H   0  0  0  0  0  0  0  0  0  0  0  0
    5.4641   -1.4400    0.0000 H   0  0  0  0  0  0  0  0  0  0  0  0
    4.9272    2.6300    0.0000 H   0  0  0  0  0  0  0  0  0  0  0  0
    6.9841    4.5226    0.0000 H   0  0  0  0  0  0  0  0  0  0  0  0
    6.5856    3.8323    0.0000 H   0  0  0  0  0  0  0  0  0  0  0  0
    3.9875   -1.4523    0.0000 H   0  0  0  0  0  0  0  0  0  0  0  0
    4.3860   -2.1426    0.0000 H   0  0  0  0  0  0  0  0  0  0  0  0
    3.9875    4.5477    0.0000 H   0  0  0  0  0  0  0  0  0  0  0  0
    4.3860    3.8574    0.0000 H   0  0  0  0  0  0  0  0  0  0  0  0
    5.2087    5.3323    0.0000 H   0  0  0  0  0  0  0  0  0  0  0  0
    4.8101    6.0226    0.0000 H   0  0  0  0  0  0  0  0  0  0  0  0
    4.0611   -3.2500    0.0000 H   0  0  0  0  0  0  0  0  0  0  0  0
    4.8101   -5.1426    0.0000 H   0  0  0  0  0  0  0  0  0  0  0  0
    5.2087   -4.4523    0.0000 H   0  0  0  0  0  0  0  0  0  0  0  0
    3.5200   -4.4774    0.0000 H   0  0  0  0  0  0  0  0  0  0  0  0
    3.1215   -5.1677    0.0000 H   0  0  0  0  0  0  0  0  0  0  0  0
    3.1215    6.0477    0.0000 H   0  0  0  0  0  0  0  0  0  0  0  0
    3.5200    5.3574    0.0000 H   0  0  0  0  0  0  0  0  0  0  0  0
    4.0611   -0.2500    0.0000 H   0  0  0  0  0  0  0  0  0  0  0  0
    8.5991    5.7500    0.0000 H   0  0  0  0  0  0  0  0  0  0  0  0
    5.1350   -6.2500    0.0000 H   0  0  0  0  0  0  0  0  0  0  0  0
    2.3291   -7.8700    0.0000 H   0  0  0  0  0  0  0  0  0  0  0  0
    5.1350   -7.8700    0.0000 H   0  0  0  0  0  0  0  0  0  0  0  0
    3.7320   -8.6800    0.0000 H   0  0  0  0  0  0  0  0  0  0  0  0
    2.8660    8.0600    0.0000 H   0  0  0  0  0  0  0  0  0  0  0  0
  1 37  1  0  0  0  0
  2 26  1  0  0  0  0
  2 74  1  0  0  0  0
  3 19  2  0  0  0  0
  4 22  2  0  0  0  0
  5 27  2  0  0  0  0
  6 28  2  0  0  0  0
  7 32  1  0  0  0  0
  7 75  1  0  0  0  0
  8 32  2  0  0  0  0
  9 36  1  0  0  0  0
  9 80  1  0  0  0  0
 10 36  2  0  0  0  0
 15 11  1  1  0  0  0
 11 22  1  0  0  0  0
 11 46  1  0  0  0  0
 12 19  1  0  0  0  0
 24 12  1  6  0  0  0
 12 56  1  0  0  0  0
 18 13  1  1  0  0  0
 13 27  1  0  0  0  0
 13 58  1  0  0  0  0
 14 28  1  0  0  0  0
 14 31  1  0  0  0  0
 14 67  1  0  0  0  0
 15 16  1  0  0  0  0
 15 19  1  0  0  0  0
 15 42  1  0  0  0  0
 16 17  1  0  0  0  0
 16 43  1  0  0  0  0
 16 44  1  0  0  0  0
 17 20  1  0  0  0  0
 17 21  1  0  0  0  0
 17 45  1  0  0  0  0
 18 22  1  0  0  0  0
 18 23  1  0  0  0  0
 18 47  1  0  0  0  0
 20 48  1  0  0  0  0
 20 49  1  0  0  0  0
 20 50  1  0  0  0  0
 21 51  1  0  0  0  0
 21 52  1  0  0  0  0
 21 53  1  0  0  0  0
 23 25  1  0  0  0  0
 23 54  1  0  0  0  0
 23 55  1  0  0  0  0
 24 26  1  0  0  0  0
 24 28  1  0  0  0  0
 24 57  1  0  0  0  0
 25 32  1  0  0  0  0
 25 59  1  0  0  0  0
 25 60  1  0  0  0  0
 26 61  1  0  0  0  0
 26 62  1  0  0  0  0
 27 29  1  0  0  0  0
 29 30  1  0  0  0  0
 29 63  1  0  0  0  0
 29 64  1  0  0  0  0
 30 34  1  0  0  0  0
 30 65  1  0  0  0  0
 30 66  1  0  0  0  0
 31 33  1  0  0  0  0
 31 68  1  0  0  0  0
 31 69  1  0  0  0  0
 33 35  1  0  0  0  0
 33 70  1  0  0  0  0
 33 71  1  0  0  0  0
 34 36  1  0  0  0  0
 34 72  1  0  0  0  0
 34 73  1  0  0  0  0
 35 37  1  0  0  0  0
 35 38  2  0  0  0  0
 37 39  2  0  0  0  0
 38 40  1  0  0  0  0
 38 76  1  0  0  0  0
 39 41  1  0  0  0  0
 39 77  1  0  0  0  0
 40 41  2  0  0  0  0
 40 78  1  0  0  0  0
 41 79  1  0  0  0  0
M  END
> <PUBCHEM_COMPOUND_CID>
507537
> <PUBCHEM_COMPOUND_CANONICALIZED>
1
> <PUBCHEM_CACTVS_COMPLEXITY>
907
> <PUBCHEM_CACTVS_HBOND_ACCEPTOR>
9
> <PUBCHEM_CACTVS_HBOND_DONOR>
7
> <PUBCHEM_CACTVS_ROTATABLE_BOND>
19
> <PUBCHEM_CACTVS_SUBSKEYS>
AAADcfB7vABEAAAAAAAAAAAAAAAAAAAAAAAwAAAAAAAAAAABAAAAHgYQCAAADSrF2CSyCILAAgSIAiHSGAACAAAgBQAIiIGIAogIYDKBkzGUYAAklgCIiAe8l4IOAAAAAAABAAAAAAAAAAIAAAAAAAAAAA==
> <PUBCHEM_IUPAC_OPENEYE_NAME>
(4S)-4-(4-carboxybutanoylamino)-5-[[(1S)-1-[[(1R)-2-[2-(2-chlorophenyl)ethylamino]-2-oxo-1-(sulfanylmethyl)ethyl]carbamoyl]-3-methyl-butyl]amino]-5-oxo-pentanoic acid
> <PUBCHEM_IUPAC_CAS_NAME>
(4S)-4-[(4-carboxy-1-oxobutyl)amino]-5-[[(2S)-1-[[(2R)-1-[2-(2-chlorophenyl)ethylamino]-3-mercapto-1-oxopropan-2-yl]amino]-4-methyl-1-oxopentan-2-yl]amino]-5-oxopentanoic acid
> <PUBCHEM_IUPAC_NAME_MARKUP>
(4<I>S</I>)-4-(4-carboxybutanoylamino)-5-[[(2<I>S</I>)-1-[[(2<I>R</I>)-1-[2-(2-chlorophenyl)ethylamino]-1-oxo-3-sulfanylpropan-2-yl]amino]-4-methyl-1-oxopentan-2-yl]amino]-5-oxopentanoic acid
> <PUBCHEM_IUPAC_NAME>
(4S)-4-(4-carboxybutanoylamino)-5-[[(2S)-1-[[(2R)-1-[2-(2-chlorophenyl)ethylamino]-1-oxo-3-sulfanylpropan-2-yl]amino]-4-methyl-1-oxopentan-2-yl]amino]-5-oxopentanoic acid
> <PUBCHEM_IUPAC_SYSTEMATIC_NAME>
(4S)-5-[[(2S)-1-[[(2R)-1-[2-(2-chlorophenyl)ethylamino]-1-oxidanylidene-3-sulfanyl-propan-2-yl]amino]-4-methyl-1-oxidanylidene-pentan-2-yl]amino]-5-oxidanylidene-4-[(5-oxidanyl-5-oxidanylidene-pentanoyl)amino]pentanoic acid
> <PUBCHEM_IUPAC_TRADITIONAL_NAME>
(4S)-4-(4-carboxybutanoylamino)-5-[[(1S)-1-[[(1R)-2-[2-(2-chlorophenyl)ethylamino]-2-keto-1-(mercaptomethyl)ethyl]carbamoyl]-3-methyl-butyl]amino]-5-keto-valeric acid
> <PUBCHEM_IUPAC_INCHI>
InChI=1S/C27H39ClN4O8S/c1-16(2)14-20(31-26(39)19(10-11-24(36)37)30-22(33)8-5-9-23(34)35)27(40)32-21(15-41)25(38)29-13-12-17-6-3-4-7-18(17)28/h3-4,6-7,16,19-21,41H,5,8-15H2,1-2H3,(H,29,38)(H,30,33)(H,31,39)(H,32,40)(H,34,35)(H,36,37)/t19-,20-,21-/m0/s1
> <PUBCHEM_IUPAC_INCHIKEY>
XDWKPQXMQQRJFD-ACRUOGEOSA-N
> <PUBCHEM_XLOGP3_AA>
1.9
> <PUBCHEM_EXACT_MASS>
614.2177131
> <PUBCHEM_MOLECULAR_FORMULA>
C27H39ClN4O8S
> <PUBCHEM_MOLECULAR_WEIGHT>
615.1
> <PUBCHEM_OPENEYE_CAN_SMILES>
CC(C)CC(C(=O)NC(CS)C(=O)NCCC1=CC=CC=C1Cl)NC(=O)C(CCC(=O)O)NC(=O)CCCC(=O)O
> <PUBCHEM_OPENEYE_ISO_SMILES>
CC(C)C[C@@H](C(=O)N[C@@H](CS)C(=O)NCCC1=CC=CC=C1Cl)NC(=O)[C@H](CCC(=O)O)NC(=O)CCCC(=O)O
> <PUBCHEM_CACTVS_TPSA>
192
> <PUBCHEM_MONOISOTOPIC_WEIGHT>
614.2177131
> <PUBCHEM_TOTAL_CHARGE>
0
> <PUBCHEM_HEAVY_ATOM_COUNT>
41
> <PUBCHEM_ATOM_DEF_STEREO_COUNT>
3
> <PUBCHEM_ATOM_UDEF_STEREO_COUNT>
0
> <PUBCHEM_BOND_DEF_STEREO_COUNT>
0
> <PUBCHEM_BOND_UDEF_STEREO_COUNT>
0
> <PUBCHEM_ISOTOPIC_ATOM_COUNT>
0
> <PUBCHEM_COMPONENT_COUNT>
1
> <PUBCHEM_CACTVS_TAUTO_COUNT>
-1
> <PUBCHEM_COORDINATE_TYPE>
1
5
255
> <PUBCHEM_BONDANNOTATIONS>
15  11  5
24  12  6
18  13  5
35  37  8
35  38  8
37  39  8
38  40  8
39  41  8
40  41  8
$$$$
