507585
  -OEChem-10302200282D
 83 85  0     1  0  0  0  0  0999 V2000
   10.7282    5.5000    0.0000 Cl  0  0  0  0  0  0  0  0  0  0  0  0
    8.9962    1.5000    0.0000 S   0  0  0  0  0  0  0  0  0  0  0  0
    7.2641   -1.5000    0.0000 O   0  0  0  0  0  0  0  0  0  0  0  0
    7.2641   -0.5000    0.0000 O   0  0  0  0  0  0  0  0  0  0  0  0
    8.1301   -5.0000    0.0000 O   0  0  0  0  0  0  0  0  0  0  0  0
    6.3981    3.0000    0.0000 O   0  0  0  0  0  0  0  0  0  0  0  0
    6.3981   -5.0000    0.0000 O   0  0  0  0  0  0  0  0  0  0  0  0
    4.6660   -6.0000    0.0000 O   0  0  0  0  0  0  0  0  0  0  0  0
    3.8000   -4.5000    0.0000 O   0  0  0  0  0  0  0  0  0  0  0  0
    5.5321   -1.5000    0.0000 N   0  0  0  0  0  0  0  0  0  0  0  0
    6.3981    1.0000    0.0000 N   0  0  0  0  0  0  0  0  0  0  0  0
    7.2641   -3.5000    0.0000 N   0  0  0  0  0  0  0  0  0  0  0  0
    8.1301    3.0000    0.0000 N   0  0  0  0  0  0  0  0  0  0  0  0
    5.5321   -0.5000    0.0000 C   0  0  1  0  0  0  0  0  0  0  0  0
    4.6660   -0.0000    0.0000 C   0  0  0  0  0  0  0  0  0  0  0  0
    4.6660   -2.0000    0.0000 C   0  0  0  0  0  0  0  0  0  0  0  0
    3.8000   -0.5000    0.0000 C   0  0  0  0  0  0  0  0  0  0  0  0
    3.8000   -1.5000    0.0000 C   0  0  0  0  0  0  0  0  0  0  0  0
    6.3981   -2.0000    0.0000 C   0  0  0  0  0  0  0  0  0  0  0  0
    6.3981   -3.0000    0.0000 C   0  0  1  0  0  0  0  0  0  0  0  0
    6.3981   -0.0000    0.0000 C   0  0  0  0  0  0  0  0  0  0  0  0
    2.9061    0.0347    0.0000 C   0  0  0  0  0  0  0  0  0  0  0  0
    2.9061   -2.0347    0.0000 C   0  0  0  0  0  0  0  0  0  0  0  0
    5.5321   -3.5000    0.0000 C   0  0  0  0  0  0  0  0  0  0  0  0
    7.2641    1.5000    0.0000 C   0  0  1  0  0  0  0  0  0  0  0  0
    2.0000   -0.4792    0.0000 C   0  0  0  0  0  0  0  0  0  0  0  0
    2.0000   -1.5208    0.0000 C   0  0  0  0  0  0  0  0  0  0  0  0
    5.5321   -4.5000    0.0000 C   0  0  0  0  0  0  0  0  0  0  0  0
    8.1301    1.0000    0.0000 C   0  0  0  0  0  0  0  0  0  0  0  0
    7.2641    2.5000    0.0000 C   0  0  0  0  0  0  0  0  0  0  0  0
    7.2641   -4.5000    0.0000 C   0  0  0  0  0  0  0  0  0  0  0  0
    4.6660   -5.0000    0.0000 C   0  0  0  0  0  0  0  0  0  0  0  0
    8.1301    4.0000    0.0000 C   0  0  0  0  0  0  0  0  0  0  0  0
    8.1301   -6.0000    0.0000 C   0  0  0  0  0  0  0  0  0  0  0  0
    8.9962   -6.5000    0.0000 C   0  0  0  0  0  0  0  0  0  0  0  0
    8.9962    4.5000    0.0000 C   0  0  0  0  0  0  0  0  0  0  0  0
    8.9962    5.5000    0.0000 C   0  0  0  0  0  0  0  0  0  0  0  0
    8.9962   -7.5000    0.0000 C   0  0  0  0  0  0  0  0  0  0  0  0
    9.8622   -6.0000    0.0000 C   0  0  0  0  0  0  0  0  0  0  0  0
    9.8622    6.0000    0.0000 C   0  0  0  0  0  0  0  0  0  0  0  0
    8.1301    6.0000    0.0000 C   0  0  0  0  0  0  0  0  0  0  0  0
    9.8622    7.0000    0.0000 C   0  0  0  0  0  0  0  0  0  0  0  0
    8.1301    7.0000    0.0000 C   0  0  0  0  0  0  0  0  0  0  0  0
    8.9962    7.5000    0.0000 C   0  0  0  0  0  0  0  0  0  0  0  0
    6.0690   -0.8100    0.0000 H   0  0  0  0  0  0  0  0  0  0  0  0
    5.0646    0.4749    0.0000 H   0  0  0  0  0  0  0  0  0  0  0  0
    4.2675    0.4749    0.0000 H   0  0  0  0  0  0  0  0  0  0  0  0
    4.2675   -2.4750    0.0000 H   0  0  0  0  0  0  0  0  0  0  0  0
    5.0646   -2.4750    0.0000 H   0  0  0  0  0  0  0  0  0  0  0  0
    6.3981   -3.6200    0.0000 H   0  0  0  0  0  0  0  0  0  0  0  0
    2.9132    0.6546    0.0000 H   0  0  0  0  0  0  0  0  0  0  0  0
    2.9132   -2.6546    0.0000 H   0  0  0  0  0  0  0  0  0  0  0  0
    5.3200   -2.9174    0.0000 H   0  0  0  0  0  0  0  0  0  0  0  0
    4.9215   -3.6077    0.0000 H   0  0  0  0  0  0  0  0  0  0  0  0
    5.8612    1.3100    0.0000 H   0  0  0  0  0  0  0  0  0  0  0  0
    6.7272    1.8100    0.0000 H   0  0  0  0  0  0  0  0  0  0  0  0
    1.4643   -0.1671    0.0000 H   0  0  0  0  0  0  0  0  0  0  0  0
    1.4643   -1.8329    0.0000 H   0  0  0  0  0  0  0  0  0  0  0  0
    7.8010   -3.1900    0.0000 H   0  0  0  0  0  0  0  0  0  0  0  0
    5.7441   -5.0826    0.0000 H   0  0  0  0  0  0  0  0  0  0  0  0
    6.1426   -4.3923    0.0000 H   0  0  0  0  0  0  0  0  0  0  0  0
    7.7316    0.5251    0.0000 H   0  0  0  0  0  0  0  0  0  0  0  0
    8.5287    0.5251    0.0000 H   0  0  0  0  0  0  0  0  0  0  0  0
    8.6671    2.6900    0.0000 H   0  0  0  0  0  0  0  0  0  0  0  0
    7.9181    4.5826    0.0000 H   0  0  0  0  0  0  0  0  0  0  0  0
    7.5196    3.8923    0.0000 H   0  0  0  0  0  0  0  0  0  0  0  0
    7.5196   -5.8923    0.0000 H   0  0  0  0  0  0  0  0  0  0  0  0
    7.9181   -6.5826    0.0000 H   0  0  0  0  0  0  0  0  0  0  0  0
    9.5331   -6.8100    0.0000 H   0  0  0  0  0  0  0  0  0  0  0  0
    9.5331    1.1900    0.0000 H   0  0  0  0  0  0  0  0  0  0  0  0
    9.2082    3.9174    0.0000 H   0  0  0  0  0  0  0  0  0  0  0  0
    9.6067    4.6077    0.0000 H   0  0  0  0  0  0  0  0  0  0  0  0
    4.1291   -6.3100    0.0000 H   0  0  0  0  0  0  0  0  0  0  0  0
    8.3762   -7.5000    0.0000 H   0  0  0  0  0  0  0  0  0  0  0  0
    8.9962   -8.1200    0.0000 H   0  0  0  0  0  0  0  0  0  0  0  0
    9.6162   -7.5000    0.0000 H   0  0  0  0  0  0  0  0  0  0  0  0
   10.1722   -6.5369    0.0000 H   0  0  0  0  0  0  0  0  0  0  0  0
   10.3991   -5.6900    0.0000 H   0  0  0  0  0  0  0  0  0  0  0  0
    9.5522   -5.4631    0.0000 H   0  0  0  0  0  0  0  0  0  0  0  0
    7.5932    5.6900    0.0000 H   0  0  0  0  0  0  0  0  0  0  0  0
   10.3991    7.3100    0.0000 H   0  0  0  0  0  0  0  0  0  0  0  0
    7.5932    7.3100    0.0000 H   0  0  0  0  0  0  0  0  0  0  0  0
    8.9962    8.1200    0.0000 H   0  0  0  0  0  0  0  0  0  0  0  0
  1 40  1  0  0  0  0
  2 29  1  0  0  0  0
  2 70  1  0  0  0  0
  3 19  2  0  0  0  0
  4 21  2  0  0  0  0
  5 31  1  0  0  0  0
  5 34  1  0  0  0  0
  6 30  2  0  0  0  0
  7 31  2  0  0  0  0
  8 32  1  0  0  0  0
  8 73  1  0  0  0  0
  9 32  2  0  0  0  0
 10 14  1  0  0  0  0
 10 16  1  0  0  0  0
 10 19  1  0  0  0  0
 11 21  1  0  0  0  0
 25 11  1  6  0  0  0
 11 55  1  0  0  0  0
 20 12  1  6  0  0  0
 12 31  1  0  0  0  0
 12 59  1  0  0  0  0
 13 30  1  0  0  0  0
 13 33  1  0  0  0  0
 13 64  1  0  0  0  0
 14 15  1  0  0  0  0
 14 21  1  1  0  0  0
 14 45  1  0  0  0  0
 15 17  1  0  0  0  0
 15 46  1  0  0  0  0
 15 47  1  0  0  0  0
 16 18  1  0  0  0  0
 16 48  1  0  0  0  0
 16 49  1  0  0  0  0
 17 18  1  0  0  0  0
 17 22  2  0  0  0  0
 18 23  2  0  0  0  0
 19 20  1  0  0  0  0
 20 24  1  0  0  0  0
 20 50  1  0  0  0  0
 22 26  1  0  0  0  0
 22 51  1  0  0  0  0
 23 27  1  0  0  0  0
 23 52  1  0  0  0  0
 24 28  1  0  0  0  0
 24 53  1  0  0  0  0
 24 54  1  0  0  0  0
 25 29  1  0  0  0  0
 25 30  1  0  0  0  0
 25 56  1  0  0  0  0
 26 27  2  0  0  0  0
 26 57  1  0  0  0  0
 27 58  1  0  0  0  0
 28 32  1  0  0  0  0
 28 60  1  0  0  0  0
 28 61  1  0  0  0  0
 29 62  1  0  0  0  0
 29 63  1  0  0  0  0
 33 36  1  0  0  0  0
 33 65  1  0  0  0  0
 33 66  1  0  0  0  0
 34 35  1  0  0  0  0
 34 67  1  0  0  0  0
 34 68  1  0  0  0  0
 35 38  1  0  0  0  0
 35 39  1  0  0  0  0
 35 69  1  0  0  0  0
 36 37  1  0  0  0  0
 36 71  1  0  0  0  0
 36 72  1  0  0  0  0
 37 40  1  0  0  0  0
 37 41  2  0  0  0  0
 38 74  1  0  0  0  0
 38 75  1  0  0  0  0
 38 76  1  0  0  0  0
 39 77  1  0  0  0  0
 39 78  1  0  0  0  0
 39 79  1  0  0  0  0
 40 42  2  0  0  0  0
 41 43  1  0  0  0  0
 41 80  1  0  0  0  0
 42 44  1  0  0  0  0
 42 81  1  0  0  0  0
 43 44  2  0  0  0  0
 43 82  1  0  0  0  0
 44 83  1  0  0  0  0
M  END
> <PUBCHEM_COMPOUND_CID>
507585
> <PUBCHEM_COMPOUND_CANONICALIZED>
1
> <PUBCHEM_CACTVS_COMPLEXITY>
1000
> <PUBCHEM_CACTVS_HBOND_ACCEPTOR>
8
> <PUBCHEM_CACTVS_HBOND_DONOR>
5
> <PUBCHEM_CACTVS_ROTATABLE_BOND>
15
> <PUBCHEM_CACTVS_SUBSKEYS>
AAADcfB7uABEAAAAAAAAAAAAAAAAAAAAAAA8YIAAAAAAAACxQAAAHgYQCAAADSrl2CayCIPABgSIAiHSGACCAAAgBQAIiIGIBokIYDKBkzGcYAhklgCIiAe8n4KOgAAAAAARAAAAAAAAACIAAAAAAAAAAA==
> <PUBCHEM_IUPAC_OPENEYE_NAME>
(4R)-5-[(3S)-3-[[(1R)-2-[2-(2-chlorophenyl)ethylamino]-2-oxo-1-(sulfanylmethyl)ethyl]carbamoyl]-3,4-dihydro-1H-isoquinolin-2-yl]-4-(isobutoxycarbonylamino)-5-oxo-pentanoic acid
> <PUBCHEM_IUPAC_CAS_NAME>
(4R)-5-[(3S)-3-[[[(2R)-1-[2-(2-chlorophenyl)ethylamino]-3-mercapto-1-oxopropan-2-yl]amino]-oxomethyl]-3,4-dihydro-1H-isoquinolin-2-yl]-4-[[2-methylpropoxy(oxo)methyl]amino]-5-oxopentanoic acid
> <PUBCHEM_IUPAC_NAME_MARKUP>
(4<I>R</I>)-5-[(3<I>S</I>)-3-[[(2<I>R</I>)-1-[2-(2-chlorophenyl)ethylamino]-1-oxo-3-sulfanylpropan-2-yl]carbamoyl]-3,4-dihydro-1<I>H</I>-isoquinolin-2-yl]-4-(2-methylpropoxycarbonylamino)-5-oxopentanoic acid
> <PUBCHEM_IUPAC_NAME>
(4R)-5-[(3S)-3-[[(2R)-1-[2-(2-chlorophenyl)ethylamino]-1-oxo-3-sulfanylpropan-2-yl]carbamoyl]-3,4-dihydro-1H-isoquinolin-2-yl]-4-(2-methylpropoxycarbonylamino)-5-oxopentanoic acid
> <PUBCHEM_IUPAC_SYSTEMATIC_NAME>
(4R)-5-[(3S)-3-[[(2R)-1-[2-(2-chlorophenyl)ethylamino]-1-oxidanylidene-3-sulfanyl-propan-2-yl]carbamoyl]-3,4-dihydro-1H-isoquinolin-2-yl]-4-(2-methylpropoxycarbonylamino)-5-oxidanylidene-pentanoic acid
> <PUBCHEM_IUPAC_TRADITIONAL_NAME>
(4R)-5-[(3S)-3-[[(1R)-2-[2-(2-chlorophenyl)ethylamino]-2-keto-1-(mercaptomethyl)ethyl]carbamoyl]-3,4-dihydro-1H-isoquinolin-2-yl]-4-(isobutoxycarbonylamino)-5-keto-valeric acid
> <PUBCHEM_IUPAC_INCHI>
InChI=1S/C31H39ClN4O7S/c1-19(2)17-43-31(42)35-24(11-12-27(37)38)30(41)36-16-22-9-4-3-8-21(22)15-26(36)29(40)34-25(18-44)28(39)33-14-13-20-7-5-6-10-23(20)32/h3-10,19,24-26,44H,11-18H2,1-2H3,(H,33,39)(H,34,40)(H,35,42)(H,37,38)/t24-,25+,26+/m1/s1
> <PUBCHEM_IUPAC_INCHIKEY>
FDKWZJLTPDAJBO-ZNZIZOMTSA-N
> <PUBCHEM_XLOGP3_AA>
3.9
> <PUBCHEM_EXACT_MASS>
646.2227985
> <PUBCHEM_MOLECULAR_FORMULA>
C31H39ClN4O7S
> <PUBCHEM_MOLECULAR_WEIGHT>
647.2
> <PUBCHEM_OPENEYE_CAN_SMILES>
CC(C)COC(=O)NC(CCC(=O)O)C(=O)N1CC2=CC=CC=C2CC1C(=O)NC(CS)C(=O)NCCC3=CC=CC=C3Cl
> <PUBCHEM_OPENEYE_ISO_SMILES>
CC(C)COC(=O)N[C@H](CCC(=O)O)C(=O)N1CC2=CC=CC=C2C[C@H]1C(=O)N[C@@H](CS)C(=O)NCCC3=CC=CC=C3Cl
> <PUBCHEM_CACTVS_TPSA>
155
> <PUBCHEM_MONOISOTOPIC_WEIGHT>
646.2227985
> <PUBCHEM_TOTAL_CHARGE>
0
> <PUBCHEM_HEAVY_ATOM_COUNT>
44
> <PUBCHEM_ATOM_DEF_STEREO_COUNT>
3
> <PUBCHEM_ATOM_UDEF_STEREO_COUNT>
0
> <PUBCHEM_BOND_DEF_STEREO_COUNT>
0
> <PUBCHEM_BOND_UDEF_STEREO_COUNT>
0
> <PUBCHEM_ISOTOPIC_ATOM_COUNT>
0
> <PUBCHEM_COMPONENT_COUNT>
1
> <PUBCHEM_CACTVS_TAUTO_COUNT>
-1
> <PUBCHEM_COORDINATE_TYPE>
1
5
255
> <PUBCHEM_BONDANNOTATIONS>
25  11  6
20  12  6
14  21  5
17  18  8
17  22  8
18  23  8
22  26  8
23  27  8
26  27  8
37  40  8
37  41  8
40  42  8
41  43  8
42  44  8
43  44  8
$$$$
