507530
  -OEChem-10302200282D
 77 77  0     1  0  0  0  0  0999 V2000
    2.0000   -5.6550    0.0000 Cl  0  0  0  0  0  0  0  0  0  0  0  0
    4.5981   -0.1550    0.0000 S   0  0  0  0  0  0  0  0  0  0  0  0
    5.4641    0.3450    0.0000 O   0  0  0  0  0  0  0  0  0  0  0  0
    5.4641    1.3450    0.0000 O   0  0  0  0  0  0  0  0  0  0  0  0
    6.3301   -3.1550    0.0000 O   0  0  0  0  0  0  0  0  0  0  0  0
    6.3301    4.8450    0.0000 O   0  0  0  0  0  0  0  0  0  0  0  0
    8.0622    5.8450    0.0000 O   0  0  0  0  0  0  0  0  0  0  0  0
    8.9282    4.3450    0.0000 O   0  0  0  0  0  0  0  0  0  0  0  0
    3.7320    7.3450    0.0000 O   0  0  0  0  0  0  0  0  0  0  0  0
    2.8660    5.8450    0.0000 O   0  0  0  0  0  0  0  0  0  0  0  0
    7.1962    1.3450    0.0000 N   0  0  0  0  0  0  0  0  0  0  0  0
    6.3301   -1.1550    0.0000 N   0  0  0  0  0  0  0  0  0  0  0  0
    5.4641    3.3450    0.0000 N   0  0  0  0  0  0  0  0  0  0  0  0
    4.5981   -3.1550    0.0000 N   0  0  0  0  0  0  0  0  0  0  0  0
    7.1962    0.3450    0.0000 C   0  0  1  0  0  0  0  0  0  0  0  0
    8.0622   -0.1550    0.0000 C   0  0  0  0  0  0  0  0  0  0  0  0
    8.9282    0.3450    0.0000 C   0  0  0  0  0  0  0  0  0  0  0  0
    6.3301    2.8450    0.0000 C   0  0  2  0  0  0  0  0  0  0  0  0
    6.3301   -0.1550    0.0000 C   0  0  0  0  0  0  0  0  0  0  0  0
    9.7942   -0.1550    0.0000 C   0  0  0  0  0  0  0  0  0  0  0  0
    8.9282    1.3450    0.0000 C   0  0  0  0  0  0  0  0  0  0  0  0
    6.3301    1.8450    0.0000 C   0  0  0  0  0  0  0  0  0  0  0  0
    7.1962    3.3450    0.0000 C   0  0  0  0  0  0  0  0  0  0  0  0
    5.4641   -1.6550    0.0000 C   0  0  1  0  0  0  0  0  0  0  0  0
    7.1962    4.3450    0.0000 C   0  0  0  0  0  0  0  0  0  0  0  0
    4.5981   -1.1550    0.0000 C   0  0  0  0  0  0  0  0  0  0  0  0
    5.4641   -2.6550    0.0000 C   0  0  0  0  0  0  0  0  0  0  0  0
    5.4641    4.3450    0.0000 C   0  0  0  0  0  0  0  0  0  0  0  0
    4.5981    4.8450    0.0000 C   0  0  0  0  0  0  0  0  0  0  0  0
    4.5981   -4.1550    0.0000 C   0  0  0  0  0  0  0  0  0  0  0  0
    8.0622    4.8450    0.0000 C   0  0  0  0  0  0  0  0  0  0  0  0
    3.7320   -4.6550    0.0000 C   0  0  0  0  0  0  0  0  0  0  0  0
    4.5981    5.8450    0.0000 C   0  0  0  0  0  0  0  0  0  0  0  0
    3.7320   -5.6550    0.0000 C   0  0  0  0  0  0  0  0  0  0  0  0
    2.8660   -6.1550    0.0000 C   0  0  0  0  0  0  0  0  0  0  0  0
    4.5981   -6.1550    0.0000 C   0  0  0  0  0  0  0  0  0  0  0  0
    3.7320    6.3450    0.0000 C   0  0  0  0  0  0  0  0  0  0  0  0
    2.8660   -7.1550    0.0000 C   0  0  0  0  0  0  0  0  0  0  0  0
    4.5981   -7.1550    0.0000 C   0  0  0  0  0  0  0  0  0  0  0  0
    3.7320   -7.6550    0.0000 C   0  0  0  0  0  0  0  0  0  0  0  0
    6.6592    0.6550    0.0000 H   0  0  0  0  0  0  0  0  0  0  0  0
    7.6636   -0.6299    0.0000 H   0  0  0  0  0  0  0  0  0  0  0  0
    8.4607   -0.6299    0.0000 H   0  0  0  0  0  0  0  0  0  0  0  0
    9.4651    0.6550    0.0000 H   0  0  0  0  0  0  0  0  0  0  0  0
    7.7331    1.6550    0.0000 H   0  0  0  0  0  0  0  0  0  0  0  0
    5.7932    2.5350    0.0000 H   0  0  0  0  0  0  0  0  0  0  0  0
    9.4842   -0.6919    0.0000 H   0  0  0  0  0  0  0  0  0  0  0  0
   10.3312   -0.4650    0.0000 H   0  0  0  0  0  0  0  0  0  0  0  0
   10.1042    0.3819    0.0000 H   0  0  0  0  0  0  0  0  0  0  0  0
    9.5482    1.3450    0.0000 H   0  0  0  0  0  0  0  0  0  0  0  0
    8.9282    1.9650    0.0000 H   0  0  0  0  0  0  0  0  0  0  0  0
    8.3082    1.3450    0.0000 H   0  0  0  0  0  0  0  0  0  0  0  0
    7.4082    2.7624    0.0000 H   0  0  0  0  0  0  0  0  0  0  0  0
    7.8067    3.4527    0.0000 H   0  0  0  0  0  0  0  0  0  0  0  0
    6.8671   -1.4650    0.0000 H   0  0  0  0  0  0  0  0  0  0  0  0
    5.4641   -1.0350    0.0000 H   0  0  0  0  0  0  0  0  0  0  0  0
    4.9272    3.0350    0.0000 H   0  0  0  0  0  0  0  0  0  0  0  0
    6.9841    4.9276    0.0000 H   0  0  0  0  0  0  0  0  0  0  0  0
    6.5856    4.2373    0.0000 H   0  0  0  0  0  0  0  0  0  0  0  0
    3.9875   -1.0473    0.0000 H   0  0  0  0  0  0  0  0  0  0  0  0
    4.3860   -1.7376    0.0000 H   0  0  0  0  0  0  0  0  0  0  0  0
    4.0611   -2.8450    0.0000 H   0  0  0  0  0  0  0  0  0  0  0  0
    3.9875    4.9527    0.0000 H   0  0  0  0  0  0  0  0  0  0  0  0
    4.3860    4.2624    0.0000 H   0  0  0  0  0  0  0  0  0  0  0  0
    4.8101   -4.7376    0.0000 H   0  0  0  0  0  0  0  0  0  0  0  0
    5.2087   -4.0473    0.0000 H   0  0  0  0  0  0  0  0  0  0  0  0
    3.5200   -4.0724    0.0000 H   0  0  0  0  0  0  0  0  0  0  0  0
    3.1215   -4.7627    0.0000 H   0  0  0  0  0  0  0  0  0  0  0  0
    5.2087    5.7373    0.0000 H   0  0  0  0  0  0  0  0  0  0  0  0
    4.8101    6.4276    0.0000 H   0  0  0  0  0  0  0  0  0  0  0  0
    4.0611    0.1550    0.0000 H   0  0  0  0  0  0  0  0  0  0  0  0
    5.1350   -5.8450    0.0000 H   0  0  0  0  0  0  0  0  0  0  0  0
    8.5991    6.1550    0.0000 H   0  0  0  0  0  0  0  0  0  0  0  0
    2.3291   -7.4650    0.0000 H   0  0  0  0  0  0  0  0  0  0  0  0
    5.1350   -7.4650    0.0000 H   0  0  0  0  0  0  0  0  0  0  0  0
    3.7320   -8.2750    0.0000 H   0  0  0  0  0  0  0  0  0  0  0  0
    3.1951    7.6550    0.0000 H   0  0  0  0  0  0  0  0  0  0  0  0
  1 35  1  0  0  0  0
  2 26  1  0  0  0  0
  2 71  1  0  0  0  0
  3 19  2  0  0  0  0
  4 22  2  0  0  0  0
  5 27  2  0  0  0  0
  6 28  2  0  0  0  0
  7 31  1  0  0  0  0
  7 73  1  0  0  0  0
  8 31  2  0  0  0  0
  9 37  1  0  0  0  0
  9 77  1  0  0  0  0
 10 37  2  0  0  0  0
 15 11  1  1  0  0  0
 11 22  1  0  0  0  0
 11 45  1  0  0  0  0
 12 19  1  0  0  0  0
 24 12  1  6  0  0  0
 12 55  1  0  0  0  0
 18 13  1  1  0  0  0
 13 28  1  0  0  0  0
 13 57  1  0  0  0  0
 14 27  1  0  0  0  0
 14 30  1  0  0  0  0
 14 62  1  0  0  0  0
 15 16  1  0  0  0  0
 15 19  1  0  0  0  0
 15 41  1  0  0  0  0
 16 17  1  0  0  0  0
 16 42  1  0  0  0  0
 16 43  1  0  0  0  0
 17 20  1  0  0  0  0
 17 21  1  0  0  0  0
 17 44  1  0  0  0  0
 18 22  1  0  0  0  0
 18 23  1  0  0  0  0
 18 46  1  0  0  0  0
 20 47  1  0  0  0  0
 20 48  1  0  0  0  0
 20 49  1  0  0  0  0
 21 50  1  0  0  0  0
 21 51  1  0  0  0  0
 21 52  1  0  0  0  0
 23 25  1  0  0  0  0
 23 53  1  0  0  0  0
 23 54  1  0  0  0  0
 24 26  1  0  0  0  0
 24 27  1  0  0  0  0
 24 56  1  0  0  0  0
 25 31  1  0  0  0  0
 25 58  1  0  0  0  0
 25 59  1  0  0  0  0
 26 60  1  0  0  0  0
 26 61  1  0  0  0  0
 28 29  1  0  0  0  0
 29 33  1  0  0  0  0
 29 63  1  0  0  0  0
 29 64  1  0  0  0  0
 30 32  1  0  0  0  0
 30 65  1  0  0  0  0
 30 66  1  0  0  0  0
 32 34  1  0  0  0  0
 32 67  1  0  0  0  0
 32 68  1  0  0  0  0
 33 37  1  0  0  0  0
 33 69  1  0  0  0  0
 33 70  1  0  0  0  0
 34 35  1  0  0  0  0
 34 36  2  0  0  0  0
 35 38  2  0  0  0  0
 36 39  1  0  0  0  0
 36 72  1  0  0  0  0
 38 40  1  0  0  0  0
 38 74  1  0  0  0  0
 39 40  2  0  0  0  0
 39 75  1  0  0  0  0
 40 76  1  0  0  0  0
M  END
> <PUBCHEM_COMPOUND_CID>
507530
> <PUBCHEM_COMPOUND_CANONICALIZED>
1
> <PUBCHEM_CACTVS_COMPLEXITY>
891
> <PUBCHEM_CACTVS_HBOND_ACCEPTOR>
9
> <PUBCHEM_CACTVS_HBOND_DONOR>
7
> <PUBCHEM_CACTVS_ROTATABLE_BOND>
18
> <PUBCHEM_CACTVS_SUBSKEYS>
AAADcfB7vABEAAAAAAAAAAAAAAAAAAAAAAAwAAAAAAAAAAABAAAAHgYQCAAADSrF2CSyCILAAgSIAiHSGAACAAAgBQAIiIGIAogIYDKBkzGUYAAklgCIiAe/l4IOAAAAAAABAAAAAAAAAAIAAAAAAAAAAA==
> <PUBCHEM_IUPAC_OPENEYE_NAME>
(4S)-4-(3-carboxypropanoylamino)-5-[[(1S)-1-[[(1R)-2-[2-(2-chlorophenyl)ethylamino]-2-oxo-1-(sulfanylmethyl)ethyl]carbamoyl]-3-methyl-butyl]amino]-5-oxo-pentanoic acid
> <PUBCHEM_IUPAC_CAS_NAME>
(4S)-4-[(3-carboxy-1-oxopropyl)amino]-5-[[(2S)-1-[[(2R)-1-[2-(2-chlorophenyl)ethylamino]-3-mercapto-1-oxopropan-2-yl]amino]-4-methyl-1-oxopentan-2-yl]amino]-5-oxopentanoic acid
> <PUBCHEM_IUPAC_NAME_MARKUP>
(4<I>S</I>)-4-(3-carboxypropanoylamino)-5-[[(2<I>S</I>)-1-[[(2<I>R</I>)-1-[2-(2-chlorophenyl)ethylamino]-1-oxo-3-sulfanylpropan-2-yl]amino]-4-methyl-1-oxopentan-2-yl]amino]-5-oxopentanoic acid
> <PUBCHEM_IUPAC_NAME>
(4S)-4-(3-carboxypropanoylamino)-5-[[(2S)-1-[[(2R)-1-[2-(2-chlorophenyl)ethylamino]-1-oxo-3-sulfanylpropan-2-yl]amino]-4-methyl-1-oxopentan-2-yl]amino]-5-oxopentanoic acid
> <PUBCHEM_IUPAC_SYSTEMATIC_NAME>
(4S)-5-[[(2S)-1-[[(2R)-1-[2-(2-chlorophenyl)ethylamino]-1-oxidanylidene-3-sulfanyl-propan-2-yl]amino]-4-methyl-1-oxidanylidene-pentan-2-yl]amino]-5-oxidanylidene-4-[(4-oxidanyl-4-oxidanylidene-butanoyl)amino]pentanoic acid
> <PUBCHEM_IUPAC_TRADITIONAL_NAME>
(4S)-4-(3-carboxypropanoylamino)-5-[[(1S)-1-[[(1R)-2-[2-(2-chlorophenyl)ethylamino]-2-keto-1-(mercaptomethyl)ethyl]carbamoyl]-3-methyl-butyl]amino]-5-keto-valeric acid
> <PUBCHEM_IUPAC_INCHI>
InChI=1S/C26H37ClN4O8S/c1-15(2)13-19(30-25(38)18(7-9-22(33)34)29-21(32)8-10-23(35)36)26(39)31-20(14-40)24(37)28-12-11-16-5-3-4-6-17(16)27/h3-6,15,18-20,40H,7-14H2,1-2H3,(H,28,37)(H,29,32)(H,30,38)(H,31,39)(H,33,34)(H,35,36)/t18-,19-,20-/m0/s1
> <PUBCHEM_IUPAC_INCHIKEY>
CDOIISSCWILBOW-UFYCRDLUSA-N
> <PUBCHEM_XLOGP3_AA>
1.5
> <PUBCHEM_EXACT_MASS>
600.2020630
> <PUBCHEM_MOLECULAR_FORMULA>
C26H37ClN4O8S
> <PUBCHEM_MOLECULAR_WEIGHT>
601.1
> <PUBCHEM_OPENEYE_CAN_SMILES>
CC(C)CC(C(=O)NC(CS)C(=O)NCCC1=CC=CC=C1Cl)NC(=O)C(CCC(=O)O)NC(=O)CCC(=O)O
> <PUBCHEM_OPENEYE_ISO_SMILES>
CC(C)C[C@@H](C(=O)N[C@@H](CS)C(=O)NCCC1=CC=CC=C1Cl)NC(=O)[C@H](CCC(=O)O)NC(=O)CCC(=O)O
> <PUBCHEM_CACTVS_TPSA>
192
> <PUBCHEM_MONOISOTOPIC_WEIGHT>
600.2020630
> <PUBCHEM_TOTAL_CHARGE>
0
> <PUBCHEM_HEAVY_ATOM_COUNT>
40
> <PUBCHEM_ATOM_DEF_STEREO_COUNT>
3
> <PUBCHEM_ATOM_UDEF_STEREO_COUNT>
0
> <PUBCHEM_BOND_DEF_STEREO_COUNT>
0
> <PUBCHEM_BOND_UDEF_STEREO_COUNT>
0
> <PUBCHEM_ISOTOPIC_ATOM_COUNT>
0
> <PUBCHEM_COMPONENT_COUNT>
1
> <PUBCHEM_CACTVS_TAUTO_COUNT>
-1
> <PUBCHEM_COORDINATE_TYPE>
1
5
255
> <PUBCHEM_BONDANNOTATIONS>
15  11  5
24  12  6
18  13  5
34  35  8
34  36  8
35  38  8
36  39  8
38  40  8
39  40  8
$$$$
