507559
  -OEChem-10302200282D
142145  0     1  0  0  0  0  0999 V2000
    8.0622    1.0950    0.0000 S   0  0  0  0  0  0  0  0  0  0  0  0
    8.9282    9.5950    0.0000 S   0  0  0  0  0  0  0  0  0  0  0  0
    7.1962    0.5950    0.0000 O   0  0  0  0  0  0  0  0  0  0  0  0
    7.1962   -0.4050    0.0000 O   0  0  0  0  0  0  0  0  0  0  0  0
    6.3301   -3.9050    0.0000 O   0  0  0  0  0  0  0  0  0  0  0  0
    6.3301    4.0950    0.0000 O   0  0  0  0  0  0  0  0  0  0  0  0
    4.5981   -4.9050    0.0000 O   0  0  0  0  0  0  0  0  0  0  0  0
    3.7320   -3.4050    0.0000 O   0  0  0  0  0  0  0  0  0  0  0  0
    6.3301   -4.9050    0.0000 O   0  0  0  0  0  0  0  0  0  0  0  0
    7.1962   -8.4050    0.0000 O   0  0  0  0  0  0  0  0  0  0  0  0
    5.4641   -9.4050    0.0000 O   0  0  0  0  0  0  0  0  0  0  0  0
    4.5981   -7.9050    0.0000 O   0  0  0  0  0  0  0  0  0  0  0  0
   11.5263   -7.9050    0.0000 O   0  0  0  0  0  0  0  0  0  0  0  0
   10.6603   -9.4050    0.0000 O   0  0  0  0  0  0  0  0  0  0  0  0
    7.1962   -9.4050    0.0000 O   0  0  0  0  0  0  0  0  0  0  0  0
    9.9282    9.5950    0.0000 O   0  0  0  0  0  0  0  0  0  0  0  0
    7.9282    9.5950    0.0000 O   0  0  0  0  0  0  0  0  0  0  0  0
    5.4641   -0.4050    0.0000 N   0  0  0  0  0  0  0  0  0  0  0  0
    6.3301    2.0950    0.0000 N   0  0  0  0  0  0  0  0  0  0  0  0
    7.1962   -2.4050    0.0000 N   0  0  0  0  0  0  0  0  0  0  0  0
    8.0622   -4.9050    0.0000 N   0  0  0  0  0  0  0  0  0  0  0  0
    8.0622    4.0950    0.0000 N   0  0  0  0  0  0  0  0  0  0  0  0
    8.0622   -6.9050    0.0000 N   0  0  0  0  0  0  0  0  0  0  0  0
    8.9282   -9.4050    0.0000 N   0  0  0  0  0  0  0  0  0  0  0  0
    8.9282   10.5950    0.0000 N   0  0  0  0  0  0  0  0  0  0  0  0
    3.7320    0.5950    0.0000 C   0  0  0  0  0  0  0  0  0  0  0  0
    2.8660    1.0950    0.0000 C   0  0  0  0  0  0  0  0  0  0  0  0
    3.7320   -0.4050    0.0000 C   0  0  0  0  0  0  0  0  0  0  0  0
    2.0000    0.5950    0.0000 C   0  0  0  0  0  0  0  0  0  0  0  0
    2.8660   -0.9050    0.0000 C   0  0  0  0  0  0  0  0  0  0  0  0
    4.5981    1.0950    0.0000 C   0  0  0  0  0  0  0  0  0  0  0  0
    2.0000   -0.4050    0.0000 C   0  0  0  0  0  0  0  0  0  0  0  0
    5.4641    0.5950    0.0000 C   0  0  1  0  0  0  0  0  0  0  0  0
    6.3301    1.0950    0.0000 C   0  0  0  0  0  0  0  0  0  0  0  0
    6.3301   -0.9050    0.0000 C   0  0  0  0  0  0  0  0  0  0  0  0
    6.3301   -1.9050    0.0000 C   0  0  2  0  0  0  0  0  0  0  0  0
    7.1962    2.5950    0.0000 C   0  0  1  0  0  0  0  0  0  0  0  0
    5.4641   -2.4050    0.0000 C   0  0  0  0  0  0  0  0  0  0  0  0
    8.0622    2.0950    0.0000 C   0  0  0  0  0  0  0  0  0  0  0  0
    8.0622   -3.9050    0.0000 C   0  0  2  0  0  0  0  0  0  0  0  0
    5.4641   -3.4050    0.0000 C   0  0  0  0  0  0  0  0  0  0  0  0
    7.1962   -3.4050    0.0000 C   0  0  0  0  0  0  0  0  0  0  0  0
    7.1962    3.5950    0.0000 C   0  0  0  0  0  0  0  0  0  0  0  0
    8.9282   -3.4050    0.0000 C   0  0  0  0  0  0  0  0  0  0  0  0
    9.7942   -3.9050    0.0000 C   0  0  0  0  0  0  0  0  0  0  0  0
    9.4282   -2.5390    0.0000 C   0  0  0  0  0  0  0  0  0  0  0  0
    4.5981   -3.9050    0.0000 C   0  0  0  0  0  0  0  0  0  0  0  0
    7.1962   -5.4050    0.0000 C   0  0  0  0  0  0  0  0  0  0  0  0
    7.1962   -6.4050    0.0000 C   0  0  2  0  0  0  0  0  0  0  0  0
    8.0622    5.0950    0.0000 C   0  0  0  0  0  0  0  0  0  0  0  0
    9.7942   -4.9050    0.0000 C   0  0  0  0  0  0  0  0  0  0  0  0
   10.4282   -2.5390    0.0000 C   0  0  0  0  0  0  0  0  0  0  0  0
   10.6603   -3.4050    0.0000 C   0  0  0  0  0  0  0  0  0  0  0  0
    8.9282   -1.6730    0.0000 C   0  0  0  0  0  0  0  0  0  0  0  0
    6.3301   -6.9050    0.0000 C   0  0  0  0  0  0  0  0  0  0  0  0
    8.9282    5.5950    0.0000 C   0  0  0  0  0  0  0  0  0  0  0  0
   10.6603   -5.4050    0.0000 C   0  0  0  0  0  0  0  0  0  0  0  0
   10.9282   -1.6730    0.0000 C   0  0  0  0  0  0  0  0  0  0  0  0
   11.5263   -3.9050    0.0000 C   0  0  0  0  0  0  0  0  0  0  0  0
    9.4282   -0.8069    0.0000 C   0  0  0  0  0  0  0  0  0  0  0  0
    6.3301   -7.9050    0.0000 C   0  0  0  0  0  0  0  0  0  0  0  0
   11.5263   -4.9050    0.0000 C   0  0  0  0  0  0  0  0  0  0  0  0
   10.4282   -0.8069    0.0000 C   0  0  0  0  0  0  0  0  0  0  0  0
    8.9282    6.5950    0.0000 C   0  0  0  0  0  0  0  0  0  0  0  0
    8.0622   -7.9050    0.0000 C   0  0  0  0  0  0  0  0  0  0  0  0
    8.9282   -8.4050    0.0000 C   0  0  2  0  0  0  0  0  0  0  0  0
    5.4641   -8.4050    0.0000 C   0  0  0  0  0  0  0  0  0  0  0  0
    9.7942   -7.9050    0.0000 C   0  0  0  0  0  0  0  0  0  0  0  0
    9.7942    7.0950    0.0000 C   0  0  0  0  0  0  0  0  0  0  0  0
    8.0622    7.0950    0.0000 C   0  0  0  0  0  0  0  0  0  0  0  0
    9.7942    8.0950    0.0000 C   0  0  0  0  0  0  0  0  0  0  0  0
    8.0622    8.0950    0.0000 C   0  0  0  0  0  0  0  0  0  0  0  0
    8.9282    8.5950    0.0000 C   0  0  0  0  0  0  0  0  0  0  0  0
   10.6603   -8.4050    0.0000 C   0  0  0  0  0  0  0  0  0  0  0  0
    8.0622   -9.9050    0.0000 C   0  0  0  0  0  0  0  0  0  0  0  0
    8.0622  -10.9050    0.0000 C   0  0  0  0  0  0  0  0  0  0  0  0
    3.7320    1.2150    0.0000 H   0  0  0  0  0  0  0  0  0  0  0  0
    3.2646    1.5700    0.0000 H   0  0  0  0  0  0  0  0  0  0  0  0
    2.4675    1.5700    0.0000 H   0  0  0  0  0  0  0  0  0  0  0  0
    3.9441   -0.9876    0.0000 H   0  0  0  0  0  0  0  0  0  0  0  0
    4.3426   -0.2973    0.0000 H   0  0  0  0  0  0  0  0  0  0  0  0
    1.7880    1.1776    0.0000 H   0  0  0  0  0  0  0  0  0  0  0  0
    1.3894    0.4873    0.0000 H   0  0  0  0  0  0  0  0  0  0  0  0
    2.4675   -1.3800    0.0000 H   0  0  0  0  0  0  0  0  0  0  0  0
    3.2646   -1.3800    0.0000 H   0  0  0  0  0  0  0  0  0  0  0  0
    4.9966    1.5700    0.0000 H   0  0  0  0  0  0  0  0  0  0  0  0
    4.1996    1.5700    0.0000 H   0  0  0  0  0  0  0  0  0  0  0  0
    1.3894   -0.2973    0.0000 H   0  0  0  0  0  0  0  0  0  0  0  0
    1.7880   -0.9876    0.0000 H   0  0  0  0  0  0  0  0  0  0  0  0
    6.0010    0.2850    0.0000 H   0  0  0  0  0  0  0  0  0  0  0  0
    4.9272   -0.7150    0.0000 H   0  0  0  0  0  0  0  0  0  0  0  0
    5.7932    2.4050    0.0000 H   0  0  0  0  0  0  0  0  0  0  0  0
    6.8671   -1.5950    0.0000 H   0  0  0  0  0  0  0  0  0  0  0  0
    6.6592    2.9050    0.0000 H   0  0  0  0  0  0  0  0  0  0  0  0
    5.2520   -1.8224    0.0000 H   0  0  0  0  0  0  0  0  0  0  0  0
    4.8535   -2.5127    0.0000 H   0  0  0  0  0  0  0  0  0  0  0  0
    7.7331   -2.0950    0.0000 H   0  0  0  0  0  0  0  0  0  0  0  0
    8.6728    1.9873    0.0000 H   0  0  0  0  0  0  0  0  0  0  0  0
    8.2742    2.6776    0.0000 H   0  0  0  0  0  0  0  0  0  0  0  0
    7.5252   -4.2150    0.0000 H   0  0  0  0  0  0  0  0  0  0  0  0
    5.6762   -3.9876    0.0000 H   0  0  0  0  0  0  0  0  0  0  0  0
    6.0747   -3.2973    0.0000 H   0  0  0  0  0  0  0  0  0  0  0  0
    8.4898   -2.9666    0.0000 H   0  0  0  0  0  0  0  0  0  0  0  0
    8.5991   -5.2150    0.0000 H   0  0  0  0  0  0  0  0  0  0  0  0
    8.5991    3.7850    0.0000 H   0  0  0  0  0  0  0  0  0  0  0  0
    8.5991    0.7850    0.0000 H   0  0  0  0  0  0  0  0  0  0  0  0
    7.7331   -6.0950    0.0000 H   0  0  0  0  0  0  0  0  0  0  0  0
    7.8501    5.6776    0.0000 H   0  0  0  0  0  0  0  0  0  0  0  0
    7.4516    4.9873    0.0000 H   0  0  0  0  0  0  0  0  0  0  0  0
    9.2573   -5.2150    0.0000 H   0  0  0  0  0  0  0  0  0  0  0  0
   10.7382   -3.0759    0.0000 H   0  0  0  0  0  0  0  0  0  0  0  0
   10.6603   -2.7850    0.0000 H   0  0  0  0  0  0  0  0  0  0  0  0
    8.3082   -1.6730    0.0000 H   0  0  0  0  0  0  0  0  0  0  0  0
    6.1181   -6.3224    0.0000 H   0  0  0  0  0  0  0  0  0  0  0  0
    5.7196   -7.0127    0.0000 H   0  0  0  0  0  0  0  0  0  0  0  0
    9.1403    5.0124    0.0000 H   0  0  0  0  0  0  0  0  0  0  0  0
    9.5388    5.7027    0.0000 H   0  0  0  0  0  0  0  0  0  0  0  0
    8.5991   -6.5950    0.0000 H   0  0  0  0  0  0  0  0  0  0  0  0
   10.6603   -6.0250    0.0000 H   0  0  0  0  0  0  0  0  0  0  0  0
   11.5482   -1.6730    0.0000 H   0  0  0  0  0  0  0  0  0  0  0  0
   12.0632   -3.5950    0.0000 H   0  0  0  0  0  0  0  0  0  0  0  0
    9.1182   -0.2700    0.0000 H   0  0  0  0  0  0  0  0  0  0  0  0
    6.5422   -8.4876    0.0000 H   0  0  0  0  0  0  0  0  0  0  0  0
    6.9407   -7.7973    0.0000 H   0  0  0  0  0  0  0  0  0  0  0  0
    4.0611   -5.2150    0.0000 H   0  0  0  0  0  0  0  0  0  0  0  0
   12.0632   -5.2150    0.0000 H   0  0  0  0  0  0  0  0  0  0  0  0
   10.7382   -0.2700    0.0000 H   0  0  0  0  0  0  0  0  0  0  0  0
    9.4651   -8.7150    0.0000 H   0  0  0  0  0  0  0  0  0  0  0  0
   10.1928   -7.4300    0.0000 H   0  0  0  0  0  0  0  0  0  0  0  0
    9.3957   -7.4300    0.0000 H   0  0  0  0  0  0  0  0  0  0  0  0
   10.3312    6.7850    0.0000 H   0  0  0  0  0  0  0  0  0  0  0  0
    7.5252    6.7850    0.0000 H   0  0  0  0  0  0  0  0  0  0  0  0
    9.4651   -9.7150    0.0000 H   0  0  0  0  0  0  0  0  0  0  0  0
   10.3312    8.4050    0.0000 H   0  0  0  0  0  0  0  0  0  0  0  0
    7.5252    8.4050    0.0000 H   0  0  0  0  0  0  0  0  0  0  0  0
    4.9272   -9.7150    0.0000 H   0  0  0  0  0  0  0  0  0  0  0  0
    7.4422  -10.9050    0.0000 H   0  0  0  0  0  0  0  0  0  0  0  0
    8.0622  -11.5250    0.0000 H   0  0  0  0  0  0  0  0  0  0  0  0
    8.6822  -10.9050    0.0000 H   0  0  0  0  0  0  0  0  0  0  0  0
   12.0632   -8.2150    0.0000 H   0  0  0  0  0  0  0  0  0  0  0  0
    9.4651   10.9050    0.0000 H   0  0  0  0  0  0  0  0  0  0  0  0
    8.3913   10.9050    0.0000 H   0  0  0  0  0  0  0  0  0  0  0  0
  1 39  1  0  0  0  0
  1106  1  0  0  0  0
  2 16  2  0  0  0  0
  2 17  2  0  0  0  0
  2 25  1  0  0  0  0
  2 73  1  0  0  0  0
  3 34  2  0  0  0  0
  4 35  2  0  0  0  0
  5 42  2  0  0  0  0
  6 43  2  0  0  0  0
  7 47  1  0  0  0  0
  7125  1  0  0  0  0
  8 47  2  0  0  0  0
  9 48  2  0  0  0  0
 10 65  2  0  0  0  0
 11 67  1  0  0  0  0
 11136  1  0  0  0  0
 12 67  2  0  0  0  0
 13 74  1  0  0  0  0
 13140  1  0  0  0  0
 14 74  2  0  0  0  0
 15 75  2  0  0  0  0
 33 18  1  1  0  0  0
 18 35  1  0  0  0  0
 18 91  1  0  0  0  0
 19 34  1  0  0  0  0
 37 19  1  6  0  0  0
 19 92  1  0  0  0  0
 36 20  1  1  0  0  0
 20 42  1  0  0  0  0
 20 97  1  0  0  0  0
 40 21  1  6  0  0  0
 21 48  1  0  0  0  0
 21104  1  0  0  0  0
 22 43  1  0  0  0  0
 22 50  1  0  0  0  0
 22105  1  0  0  0  0
 49 23  1  1  0  0  0
 23 65  1  0  0  0  0
 23118  1  0  0  0  0
 66 24  1  6  0  0  0
 24 75  1  0  0  0  0
 24133  1  0  0  0  0
 25141  1  0  0  0  0
 25142  1  0  0  0  0
 26 27  1  0  0  0  0
 26 28  1  0  0  0  0
 26 31  1  0  0  0  0
 26 77  1  0  0  0  0
 27 29  1  0  0  0  0
 27 78  1  0  0  0  0
 27 79  1  0  0  0  0
 28 30  1  0  0  0  0
 28 80  1  0  0  0  0
 28 81  1  0  0  0  0
 29 32  1  0  0  0  0
 29 82  1  0  0  0  0
 29 83  1  0  0  0  0
 30 32  1  0  0  0  0
 30 84  1  0  0  0  0
 30 85  1  0  0  0  0
 31 33  1  0  0  0  0
 31 86  1  0  0  0  0
 31 87  1  0  0  0  0
 32 88  1  0  0  0  0
 32 89  1  0  0  0  0
 33 34  1  0  0  0  0
 33 90  1  0  0  0  0
 35 36  1  0  0  0  0
 36 38  1  0  0  0  0
 36 93  1  0  0  0  0
 37 39  1  0  0  0  0
 37 43  1  0  0  0  0
 37 94  1  0  0  0  0
 38 41  1  0  0  0  0
 38 95  1  0  0  0  0
 38 96  1  0  0  0  0
 39 98  1  0  0  0  0
 39 99  1  0  0  0  0
 40 42  1  0  0  0  0
 40 44  1  0  0  0  0
 40100  1  0  0  0  0
 41 47  1  0  0  0  0
 41101  1  0  0  0  0
 41102  1  0  0  0  0
 44 45  1  0  0  0  0
 44 46  1  0  0  0  0
 44103  1  0  0  0  0
 45 51  2  0  0  0  0
 45 53  1  0  0  0  0
 46 52  2  0  0  0  0
 46 54  1  0  0  0  0
 48 49  1  0  0  0  0
 49 55  1  0  0  0  0
 49107  1  0  0  0  0
 50 56  1  0  0  0  0
 50108  1  0  0  0  0
 50109  1  0  0  0  0
 51 57  1  0  0  0  0
 51110  1  0  0  0  0
 52 58  1  0  0  0  0
 52111  1  0  0  0  0
 53 59  2  0  0  0  0
 53112  1  0  0  0  0
 54 60  2  0  0  0  0
 54113  1  0  0  0  0
 55 61  1  0  0  0  0
 55114  1  0  0  0  0
 55115  1  0  0  0  0
 56 64  1  0  0  0  0
 56116  1  0  0  0  0
 56117  1  0  0  0  0
 57 62  2  0  0  0  0
 57119  1  0  0  0  0
 58 63  2  0  0  0  0
 58120  1  0  0  0  0
 59 62  1  0  0  0  0
 59121  1  0  0  0  0
 60 63  1  0  0  0  0
 60122  1  0  0  0  0
 61 67  1  0  0  0  0
 61123  1  0  0  0  0
 61124  1  0  0  0  0
 62126  1  0  0  0  0
 63127  1  0  0  0  0
 64 69  2  0  0  0  0
 64 70  1  0  0  0  0
 65 66  1  0  0  0  0
 66 68  1  0  0  0  0
 66128  1  0  0  0  0
 68 74  1  0  0  0  0
 68129  1  0  0  0  0
 68130  1  0  0  0  0
 69 71  1  0  0  0  0
 69131  1  0  0  0  0
 70 72  2  0  0  0  0
 70132  1  0  0  0  0
 71 73  2  0  0  0  0
 71134  1  0  0  0  0
 72 73  1  0  0  0  0
 72135  1  0  0  0  0
 75 76  1  0  0  0  0
 76137  1  0  0  0  0
 76138  1  0  0  0  0
 76139  1  0  0  0  0
M  END
> <PUBCHEM_COMPOUND_CID>
507559
> <PUBCHEM_COMPOUND_CANONICALIZED>
1
> <PUBCHEM_CACTVS_COMPLEXITY>
2080
> <PUBCHEM_CACTVS_HBOND_ACCEPTOR>
17
> <PUBCHEM_CACTVS_HBOND_DONOR>
12
> <PUBCHEM_CACTVS_ROTATABLE_BOND>
30
> <PUBCHEM_CACTVS_SUBSKEYS>
AAADcfB//ABgAAAAAAAAAAAAAAAAAAAAAAAwYMGAAAAAAAABUAAAHgQQSAAADSjF2ASyCYLAAgaIAiHSGHBCABAgAAAIiJmIAIgIYDqAkTGUYAAmlgCIiAe/n8KOkAAAAAAAAAAgAAAAAAAAAAAAAAAAAA==
> <PUBCHEM_IUPAC_OPENEYE_NAME>
(4S)-4-[[(2S)-2-acetamido-3-carboxy-propanoyl]amino]-5-[[(1S)-1-benzhydryl-2-[[(1S)-3-carboxy-1-[[(1S)-1-(cyclohexylmethyl)-2-oxo-2-[[(1R)-2-oxo-2-[2-(4-sulfamoylphenyl)ethylamino]-1-(sulfanylmethyl)ethyl]amino]ethyl]carbamoyl]propyl]amino]-2-oxo-ethyl]amino]-5-oxo-pentanoic acid
> <PUBCHEM_IUPAC_CAS_NAME>
(4S)-4-[[(2S)-2-acetamido-3-carboxy-1-oxopropyl]amino]-5-[[(2S)-1-[[(2S)-4-carboxy-1-[[(2S)-3-cyclohexyl-1-[[(2R)-3-mercapto-1-oxo-1-[2-(4-sulfamoylphenyl)ethylamino]propan-2-yl]amino]-1-oxopropan-2-yl]amino]-1-oxobutan-2-yl]amino]-1-oxo-3,3-diphenylpropan-2-yl]amino]-5-oxopentanoic acid
> <PUBCHEM_IUPAC_NAME_MARKUP>
(4<I>S</I>)-4-[[(2<I>S</I>)-2-acetamido-3-carboxypropanoyl]amino]-5-[[(2<I>S</I>)-1-[[(2<I>S</I>)-4-carboxy-1-[[(2<I>S</I>)-3-cyclohexyl-1-oxo-1-[[(2<I>R</I>)-1-oxo-1-[2-(4-sulfamoylphenyl)ethylamino]-3-sulfanylpropan-2-yl]amino]propan-2-yl]amino]-1-oxobutan-2-yl]amino]-1-oxo-3,3-diphenylpropan-2-yl]amino]-5-oxopentanoic acid
> <PUBCHEM_IUPAC_NAME>
(4S)-4-[[(2S)-2-acetamido-3-carboxypropanoyl]amino]-5-[[(2S)-1-[[(2S)-4-carboxy-1-[[(2S)-3-cyclohexyl-1-oxo-1-[[(2R)-1-oxo-1-[2-(4-sulfamoylphenyl)ethylamino]-3-sulfanylpropan-2-yl]amino]propan-2-yl]amino]-1-oxobutan-2-yl]amino]-1-oxo-3,3-diphenylpropan-2-yl]amino]-5-oxopentanoic acid
> <PUBCHEM_IUPAC_SYSTEMATIC_NAME>
(4S)-4-[[(2S)-2-acetamido-4-oxidanyl-4-oxidanylidene-butanoyl]amino]-5-[[(2S)-1-[[(2S)-1-[[(2S)-3-cyclohexyl-1-oxidanylidene-1-[[(2R)-1-oxidanylidene-1-[2-(4-sulfamoylphenyl)ethylamino]-3-sulfanyl-propan-2-yl]amino]propan-2-yl]amino]-5-oxidanyl-1,5-bis(oxidanylidene)pentan-2-yl]amino]-1-oxidanylidene-3,3-diphenyl-propan-2-yl]amino]-5-oxidanylidene-pentanoic acid
> <PUBCHEM_IUPAC_TRADITIONAL_NAME>
(4S)-4-[[(2S)-2-acetamido-3-carboxy-propanoyl]amino]-5-[[(1S)-1-benzhydryl-2-[[(1S)-3-carboxy-1-[[(1S)-1-(cyclohexylmethyl)-2-keto-2-[[(1R)-2-keto-1-(mercaptomethyl)-2-[2-(4-sulfamoylphenyl)ethylamino]ethyl]amino]ethyl]carbamoyl]propyl]amino]-2-keto-ethyl]amino]-5-keto-valeric acid
> <PUBCHEM_IUPAC_INCHI>
InChI=1S/C51H66N8O15S2/c1-30(60)54-39(28-43(65)66)50(71)55-37(22-24-42(63)64)48(69)59-45(44(33-13-7-3-8-14-33)34-15-9-4-10-16-34)51(72)56-36(21-23-41(61)62)47(68)57-38(27-32-11-5-2-6-12-32)49(70)58-40(29-75)46(67)53-26-25-31-17-19-35(20-18-31)76(52,73)74/h3-4,7-10,13-20,32,36-40,44-45,75H,2,5-6,11-12,21-29H2,1H3,(H,53,67)(H,54,60)(H,55,71)(H,56,72)(H,57,68)(H,58,70)(H,59,69)(H,61,62)(H,63,64)(H,65,66)(H2,52,73,74)/t36-,37-,38-,39-,40-,45-/m0/s1
> <PUBCHEM_IUPAC_INCHIKEY>
VRKXFGIZBPKXAW-VUKWIJDPSA-N
> <PUBCHEM_XLOGP3_AA>
2.3
> <PUBCHEM_EXACT_MASS>
1094.40890578
> <PUBCHEM_MOLECULAR_FORMULA>
C51H66N8O15S2
> <PUBCHEM_MOLECULAR_WEIGHT>
1095.2
> <PUBCHEM_OPENEYE_CAN_SMILES>
CC(=O)NC(CC(=O)O)C(=O)NC(CCC(=O)O)C(=O)NC(C(C1=CC=CC=C1)C2=CC=CC=C2)C(=O)NC(CCC(=O)O)C(=O)NC(CC3CCCCC3)C(=O)NC(CS)C(=O)NCCC4=CC=C(C=C4)S(=O)(=O)N
> <PUBCHEM_OPENEYE_ISO_SMILES>
CC(=O)N[C@@H](CC(=O)O)C(=O)N[C@@H](CCC(=O)O)C(=O)N[C@@H](C(C1=CC=CC=C1)C2=CC=CC=C2)C(=O)N[C@@H](CCC(=O)O)C(=O)N[C@@H](CC3CCCCC3)C(=O)N[C@@H](CS)C(=O)NCCC4=CC=C(C=C4)S(=O)(=O)N
> <PUBCHEM_CACTVS_TPSA>
385
> <PUBCHEM_MONOISOTOPIC_WEIGHT>
1094.40890578
> <PUBCHEM_TOTAL_CHARGE>
0
> <PUBCHEM_HEAVY_ATOM_COUNT>
76
> <PUBCHEM_ATOM_DEF_STEREO_COUNT>
6
> <PUBCHEM_ATOM_UDEF_STEREO_COUNT>
0
> <PUBCHEM_BOND_DEF_STEREO_COUNT>
0
> <PUBCHEM_BOND_UDEF_STEREO_COUNT>
0
> <PUBCHEM_ISOTOPIC_ATOM_COUNT>
0
> <PUBCHEM_COMPONENT_COUNT>
1
> <PUBCHEM_CACTVS_TAUTO_COUNT>
-1
> <PUBCHEM_COORDINATE_TYPE>
1
5
255
> <PUBCHEM_BONDANNOTATIONS>
33  18  5
37  19  6
36  20  5
40  21  6
49  23  5
66  24  6
45  51  8
45  53  8
46  52  8
46  54  8
51  57  8
52  58  8
53  59  8
54  60  8
57  62  8
58  63  8
59  62  8
60  63  8
64  69  8
64  70  8
69  71  8
70  72  8
71  73  8
72  73  8
$$$$
