507505
  -OEChem-10302200282D
 79 80  0     1  0  0  0  0  0999 V2000
    3.7320    1.3450    0.0000 S   0  0  0  0  0  0  0  0  0  0  0  0
    4.5981    1.8450    0.0000 O   0  0  0  0  0  0  0  0  0  0  0  0
    4.5981    2.8450    0.0000 O   0  0  0  0  0  0  0  0  0  0  0  0
    5.4641   -1.6550    0.0000 O   0  0  0  0  0  0  0  0  0  0  0  0
    7.1962    7.3450    0.0000 O   0  0  0  0  0  0  0  0  0  0  0  0
    5.4641    6.3450    0.0000 O   0  0  0  0  0  0  0  0  0  0  0  0
    3.6275    7.3395    0.0000 O   0  0  0  0  0  0  0  0  0  0  0  0
    8.0622    5.8450    0.0000 O   0  0  0  0  0  0  0  0  0  0  0  0
    2.8660   -7.1550    0.0000 O   0  0  0  0  0  0  0  0  0  0  0  0
    6.3301    2.8450    0.0000 N   0  0  0  0  0  0  0  0  0  0  0  0
    5.4641    0.3450    0.0000 N   0  0  0  0  0  0  0  0  0  0  0  0
    4.5981    4.8450    0.0000 N   0  0  0  0  0  0  0  0  0  0  0  0
    3.7320   -1.6550    0.0000 N   0  0  0  0  0  0  0  0  0  0  0  0
    7.1962    1.3450    0.0000 C   0  0  0  0  0  0  0  0  0  0  0  0
    6.3301    1.8450    0.0000 C   0  0  1  0  0  0  0  0  0  0  0  0
    8.0622    1.8450    0.0000 C   0  0  0  0  0  0  0  0  0  0  0  0
    5.4641    1.3450    0.0000 C   0  0  0  0  0  0  0  0  0  0  0  0
    5.4641    4.3450    0.0000 C   0  0  2  0  0  0  0  0  0  0  0  0
    8.9282    1.3450    0.0000 C   0  0  0  0  0  0  0  0  0  0  0  0
    8.0622    2.8450    0.0000 C   0  0  0  0  0  0  0  0  0  0  0  0
    5.4641    3.3450    0.0000 C   0  0  0  0  0  0  0  0  0  0  0  0
    6.3301    4.8450    0.0000 C   0  0  0  0  0  0  0  0  0  0  0  0
    4.5981   -0.1550    0.0000 C   0  0  1  0  0  0  0  0  0  0  0  0
    6.3301    5.8450    0.0000 C   0  0  0  0  0  0  0  0  0  0  0  0
    3.7320    0.3450    0.0000 C   0  0  0  0  0  0  0  0  0  0  0  0
    4.5981   -1.1550    0.0000 C   0  0  0  0  0  0  0  0  0  0  0  0
    3.7320   -2.6550    0.0000 C   0  0  0  0  0  0  0  0  0  0  0  0
    4.5981    5.8450    0.0000 C   0  0  0  0  0  0  0  0  0  0  0  0
    2.8660   -3.1550    0.0000 C   0  0  0  0  0  0  0  0  0  0  0  0
    7.1962    6.3450    0.0000 C   0  0  0  0  0  0  0  0  0  0  0  0
    2.8660   -4.1550    0.0000 C   0  0  0  0  0  0  0  0  0  0  0  0
    3.7320    6.3450    0.0000 C   0  0  0  0  0  0  0  0  0  0  0  0
    3.7320   -4.6550    0.0000 C   0  0  0  0  0  0  0  0  0  0  0  0
    2.0000   -4.6550    0.0000 C   0  0  0  0  0  0  0  0  0  0  0  0
    2.8185    5.9383    0.0000 C   0  0  0  0  0  0  0  0  0  0  0  0
    3.7320   -5.6550    0.0000 C   0  0  0  0  0  0  0  0  0  0  0  0
    2.0000   -5.6550    0.0000 C   0  0  0  0  0  0  0  0  0  0  0  0
    2.8660   -6.1550    0.0000 C   0  0  0  0  0  0  0  0  0  0  0  0
    2.1494    6.6814    0.0000 C   0  0  0  0  0  0  0  0  0  0  0  0
    2.6494    7.5474    0.0000 C   0  0  0  0  0  0  0  0  0  0  0  0
    2.0000   -7.6550    0.0000 C   0  0  0  0  0  0  0  0  0  0  0  0
    6.7976    0.8701    0.0000 H   0  0  0  0  0  0  0  0  0  0  0  0
    7.5947    0.8701    0.0000 H   0  0  0  0  0  0  0  0  0  0  0  0
    6.8671    2.1550    0.0000 H   0  0  0  0  0  0  0  0  0  0  0  0
    8.0622    1.2250    0.0000 H   0  0  0  0  0  0  0  0  0  0  0  0
    6.8671    3.1550    0.0000 H   0  0  0  0  0  0  0  0  0  0  0  0
    5.4641    4.9650    0.0000 H   0  0  0  0  0  0  0  0  0  0  0  0
    8.6182    0.8081    0.0000 H   0  0  0  0  0  0  0  0  0  0  0  0
    9.4651    1.0350    0.0000 H   0  0  0  0  0  0  0  0  0  0  0  0
    9.2382    1.8819    0.0000 H   0  0  0  0  0  0  0  0  0  0  0  0
    8.6822    2.8450    0.0000 H   0  0  0  0  0  0  0  0  0  0  0  0
    8.0622    3.4650    0.0000 H   0  0  0  0  0  0  0  0  0  0  0  0
    7.4422    2.8450    0.0000 H   0  0  0  0  0  0  0  0  0  0  0  0
    6.5422    4.2624    0.0000 H   0  0  0  0  0  0  0  0  0  0  0  0
    6.9407    4.9527    0.0000 H   0  0  0  0  0  0  0  0  0  0  0  0
    4.5981    0.4650    0.0000 H   0  0  0  0  0  0  0  0  0  0  0  0
    6.0010    0.0350    0.0000 H   0  0  0  0  0  0  0  0  0  0  0  0
    4.0611    4.5350    0.0000 H   0  0  0  0  0  0  0  0  0  0  0  0
    6.1181    6.4276    0.0000 H   0  0  0  0  0  0  0  0  0  0  0  0
    5.7196    5.7373    0.0000 H   0  0  0  0  0  0  0  0  0  0  0  0
    3.1215    0.4527    0.0000 H   0  0  0  0  0  0  0  0  0  0  0  0
    3.5200   -0.2376    0.0000 H   0  0  0  0  0  0  0  0  0  0  0  0
    3.1951   -1.3450    0.0000 H   0  0  0  0  0  0  0  0  0  0  0  0
    3.9441   -3.2376    0.0000 H   0  0  0  0  0  0  0  0  0  0  0  0
    4.3426   -2.5473    0.0000 H   0  0  0  0  0  0  0  0  0  0  0  0
    2.6540   -2.5724    0.0000 H   0  0  0  0  0  0  0  0  0  0  0  0
    2.2554   -3.2627    0.0000 H   0  0  0  0  0  0  0  0  0  0  0  0
    3.1951    1.6550    0.0000 H   0  0  0  0  0  0  0  0  0  0  0  0
    4.2690   -4.3450    0.0000 H   0  0  0  0  0  0  0  0  0  0  0  0
    1.4631   -4.3450    0.0000 H   0  0  0  0  0  0  0  0  0  0  0  0
    2.6896    5.3318    0.0000 H   0  0  0  0  0  0  0  0  0  0  0  0
    7.7331    7.6550    0.0000 H   0  0  0  0  0  0  0  0  0  0  0  0
    4.2690   -5.9650    0.0000 H   0  0  0  0  0  0  0  0  0  0  0  0
    1.4631   -5.9650    0.0000 H   0  0  0  0  0  0  0  0  0  0  0  0
    1.5328    6.6166    0.0000 H   0  0  0  0  0  0  0  0  0  0  0  0
    2.3972    8.1138    0.0000 H   0  0  0  0  0  0  0  0  0  0  0  0
    1.6900   -7.1181    0.0000 H   0  0  0  0  0  0  0  0  0  0  0  0
    1.4631   -7.9650    0.0000 H   0  0  0  0  0  0  0  0  0  0  0  0
    2.3100   -8.1919    0.0000 H   0  0  0  0  0  0  0  0  0  0  0  0
  1 25  1  0  0  0  0
  1 68  1  0  0  0  0
  2 17  2  0  0  0  0
  3 21  2  0  0  0  0
  4 26  2  0  0  0  0
  5 30  1  0  0  0  0
  5 72  1  0  0  0  0
  6 28  2  0  0  0  0
  7 32  1  0  0  0  0
  7 40  1  0  0  0  0
  8 30  2  0  0  0  0
  9 38  1  0  0  0  0
  9 41  1  0  0  0  0
 15 10  1  1  0  0  0
 10 21  1  0  0  0  0
 10 46  1  0  0  0  0
 11 17  1  0  0  0  0
 23 11  1  6  0  0  0
 11 57  1  0  0  0  0
 18 12  1  1  0  0  0
 12 28  1  0  0  0  0
 12 58  1  0  0  0  0
 13 26  1  0  0  0  0
 13 27  1  0  0  0  0
 13 63  1  0  0  0  0
 14 15  1  0  0  0  0
 14 16  1  0  0  0  0
 14 42  1  0  0  0  0
 14 43  1  0  0  0  0
 15 17  1  0  0  0  0
 15 44  1  0  0  0  0
 16 19  1  0  0  0  0
 16 20  1  0  0  0  0
 16 45  1  0  0  0  0
 18 21  1  0  0  0  0
 18 22  1  0  0  0  0
 18 47  1  0  0  0  0
 19 48  1  0  0  0  0
 19 49  1  0  0  0  0
 19 50  1  0  0  0  0
 20 51  1  0  0  0  0
 20 52  1  0  0  0  0
 20 53  1  0  0  0  0
 22 24  1  0  0  0  0
 22 54  1  0  0  0  0
 22 55  1  0  0  0  0
 23 25  1  0  0  0  0
 23 26  1  0  0  0  0
 23 56  1  0  0  0  0
 24 30  1  0  0  0  0
 24 59  1  0  0  0  0
 24 60  1  0  0  0  0
 25 61  1  0  0  0  0
 25 62  1  0  0  0  0
 27 29  1  0  0  0  0
 27 64  1  0  0  0  0
 27 65  1  0  0  0  0
 28 32  1  0  0  0  0
 29 31  1  0  0  0  0
 29 66  1  0  0  0  0
 29 67  1  0  0  0  0
 31 33  2  0  0  0  0
 31 34  1  0  0  0  0
 32 35  2  0  0  0  0
 33 36  1  0  0  0  0
 33 69  1  0  0  0  0
 34 37  2  0  0  0  0
 34 70  1  0  0  0  0
 35 39  1  0  0  0  0
 35 71  1  0  0  0  0
 36 38  2  0  0  0  0
 36 73  1  0  0  0  0
 37 38  1  0  0  0  0
 37 74  1  0  0  0  0
 39 40  2  0  0  0  0
 39 75  1  0  0  0  0
 40 76  1  0  0  0  0
 41 77  1  0  0  0  0
 41 78  1  0  0  0  0
 41 79  1  0  0  0  0
M  END
> <PUBCHEM_COMPOUND_CID>
507505
> <PUBCHEM_COMPOUND_CANONICALIZED>
1
> <PUBCHEM_CACTVS_COMPLEXITY>
881
> <PUBCHEM_CACTVS_HBOND_ACCEPTOR>
9
> <PUBCHEM_CACTVS_HBOND_DONOR>
6
> <PUBCHEM_CACTVS_ROTATABLE_BOND>
17
> <PUBCHEM_CACTVS_SUBSKEYS>
AAADcfB7vABAAAAAAAAAAAAAAAAAASAAAAAwAAAAAAAAAAABwAAAHgQQCAAADSzl2AayDoLABkSIAqnSmAKCCAAkIAAIiIHODMgOZjKEtT+XeSjk1hGYqYe814IOIAAAAAAAAABAAAAAAAAAAAAAAAAAAA==
> <PUBCHEM_IUPAC_OPENEYE_NAME>
(4S)-4-(furan-2-carbonylamino)-5-[[(1S)-1-[[(1R)-2-[2-(4-methoxyphenyl)ethylamino]-2-oxo-1-(sulfanylmethyl)ethyl]carbamoyl]-3-methyl-butyl]amino]-5-oxo-pentanoic acid
> <PUBCHEM_IUPAC_CAS_NAME>
(4S)-4-[[2-furanyl(oxo)methyl]amino]-5-[[(2S)-1-[[(2R)-3-mercapto-1-[2-(4-methoxyphenyl)ethylamino]-1-oxopropan-2-yl]amino]-4-methyl-1-oxopentan-2-yl]amino]-5-oxopentanoic acid
> <PUBCHEM_IUPAC_NAME_MARKUP>
(4<I>S</I>)-4-(furan-2-carbonylamino)-5-[[(2<I>S</I>)-1-[[(2<I>R</I>)-1-[2-(4-methoxyphenyl)ethylamino]-1-oxo-3-sulfanylpropan-2-yl]amino]-4-methyl-1-oxopentan-2-yl]amino]-5-oxopentanoic acid
> <PUBCHEM_IUPAC_NAME>
(4S)-4-(furan-2-carbonylamino)-5-[[(2S)-1-[[(2R)-1-[2-(4-methoxyphenyl)ethylamino]-1-oxo-3-sulfanylpropan-2-yl]amino]-4-methyl-1-oxopentan-2-yl]amino]-5-oxopentanoic acid
> <PUBCHEM_IUPAC_SYSTEMATIC_NAME>
(4S)-4-(furan-2-ylcarbonylamino)-5-[[(2S)-1-[[(2R)-1-[2-(4-methoxyphenyl)ethylamino]-1-oxidanylidene-3-sulfanyl-propan-2-yl]amino]-4-methyl-1-oxidanylidene-pentan-2-yl]amino]-5-oxidanylidene-pentanoic acid
> <PUBCHEM_IUPAC_TRADITIONAL_NAME>
(4S)-4-(2-furoylamino)-5-keto-5-[[(1S)-1-[[(1R)-2-keto-1-(mercaptomethyl)-2-[2-(4-methoxyphenyl)ethylamino]ethyl]carbamoyl]-3-methyl-butyl]amino]valeric acid
> <PUBCHEM_IUPAC_INCHI>
InChI=1S/C28H38N4O8S/c1-17(2)15-21(31-26(36)20(10-11-24(33)34)30-28(38)23-5-4-14-40-23)27(37)32-22(16-41)25(35)29-13-12-18-6-8-19(39-3)9-7-18/h4-9,14,17,20-22,41H,10-13,15-16H2,1-3H3,(H,29,35)(H,30,38)(H,31,36)(H,32,37)(H,33,34)/t20-,21-,22-/m0/s1
> <PUBCHEM_IUPAC_INCHIKEY>
DANPDCPCSAIZJD-FKBYEOEOSA-N
> <PUBCHEM_XLOGP3_AA>
2.5
> <PUBCHEM_EXACT_MASS>
590.24103536
> <PUBCHEM_MOLECULAR_FORMULA>
C28H38N4O8S
> <PUBCHEM_MOLECULAR_WEIGHT>
590.7
> <PUBCHEM_OPENEYE_CAN_SMILES>
CC(C)CC(C(=O)NC(CS)C(=O)NCCC1=CC=C(C=C1)OC)NC(=O)C(CCC(=O)O)NC(=O)C2=CC=CO2
> <PUBCHEM_OPENEYE_ISO_SMILES>
CC(C)C[C@@H](C(=O)N[C@@H](CS)C(=O)NCCC1=CC=C(C=C1)OC)NC(=O)[C@H](CCC(=O)O)NC(=O)C2=CC=CO2
> <PUBCHEM_CACTVS_TPSA>
177
> <PUBCHEM_MONOISOTOPIC_WEIGHT>
590.24103536
> <PUBCHEM_TOTAL_CHARGE>
0
> <PUBCHEM_HEAVY_ATOM_COUNT>
41
> <PUBCHEM_ATOM_DEF_STEREO_COUNT>
3
> <PUBCHEM_ATOM_UDEF_STEREO_COUNT>
0
> <PUBCHEM_BOND_DEF_STEREO_COUNT>
0
> <PUBCHEM_BOND_UDEF_STEREO_COUNT>
0
> <PUBCHEM_ISOTOPIC_ATOM_COUNT>
0
> <PUBCHEM_COMPONENT_COUNT>
1
> <PUBCHEM_CACTVS_TAUTO_COUNT>
-1
> <PUBCHEM_COORDINATE_TYPE>
1
5
255
> <PUBCHEM_BONDANNOTATIONS>
15  10  5
23  11  6
18  12  5
31  33  8
31  34  8
32  35  8
33  36  8
34  37  8
35  39  8
36  38  8
37  38  8
39  40  8
7  32  8
7  40  8
$$$$
