507531
  -OEChem-10302200282D
 86 86  0     1  0  0  0  0  0999 V2000
    2.0000   -6.1550    0.0000 Cl  0  0  0  0  0  0  0  0  0  0  0  0
    4.5981   -0.6550    0.0000 S   0  0  0  0  0  0  0  0  0  0  0  0
    6.3301    4.3450    0.0000 O   0  0  0  0  0  0  0  0  0  0  0  0
    5.4641    0.8450    0.0000 O   0  0  0  0  0  0  0  0  0  0  0  0
    5.4641   -0.1550    0.0000 O   0  0  0  0  0  0  0  0  0  0  0  0
    3.7320    7.8450    0.0000 O   0  0  0  0  0  0  0  0  0  0  0  0
    2.8660    6.3450    0.0000 O   0  0  0  0  0  0  0  0  0  0  0  0
    8.0622    5.3450    0.0000 O   0  0  0  0  0  0  0  0  0  0  0  0
    6.3301   -3.6550    0.0000 O   0  0  0  0  0  0  0  0  0  0  0  0
    8.9282    3.8450    0.0000 O   0  0  0  0  0  0  0  0  0  0  0  0
    5.4641    2.8450    0.0000 N   0  0  0  0  0  0  0  0  0  0  0  0
    7.1962    0.8450    0.0000 N   0  0  0  0  0  0  0  0  0  0  0  0
    6.3301   -1.6550    0.0000 N   0  0  0  0  0  0  0  0  0  0  0  0
    4.5981   -3.6550    0.0000 N   0  0  0  0  0  0  0  0  0  0  0  0
    4.5981    5.3450    0.0000 C   0  0  0  0  0  0  0  0  0  0  0  0
    4.5981    4.3450    0.0000 C   0  0  0  0  0  0  0  0  0  0  0  0
    7.1962   -0.1550    0.0000 C   0  0  1  0  0  0  0  0  0  0  0  0
    4.5981    6.3450    0.0000 C   0  0  0  0  0  0  0  0  0  0  0  0
    8.0622   -0.6550    0.0000 C   0  0  0  0  0  0  0  0  0  0  0  0
    6.3301    2.3450    0.0000 C   0  0  1  0  0  0  0  0  0  0  0  0
    8.9282   -0.1550    0.0000 C   0  0  0  0  0  0  0  0  0  0  0  0
    3.5981    5.3450    0.0000 C   0  0  0  0  0  0  0  0  0  0  0  0
    5.5981    5.3450    0.0000 C   0  0  0  0  0  0  0  0  0  0  0  0
    5.4641    3.8450    0.0000 C   0  0  0  0  0  0  0  0  0  0  0  0
    7.1962    2.8450    0.0000 C   0  0  0  0  0  0  0  0  0  0  0  0
    6.3301    1.3450    0.0000 C   0  0  0  0  0  0  0  0  0  0  0  0
    6.3301   -0.6550    0.0000 C   0  0  0  0  0  0  0  0  0  0  0  0
    9.7942   -0.6550    0.0000 C   0  0  0  0  0  0  0  0  0  0  0  0
    8.9282    0.8450    0.0000 C   0  0  0  0  0  0  0  0  0  0  0  0
    3.7320    6.8450    0.0000 C   0  0  0  0  0  0  0  0  0  0  0  0
    7.1962    3.8450    0.0000 C   0  0  0  0  0  0  0  0  0  0  0  0
    5.4641   -2.1550    0.0000 C   0  0  1  0  0  0  0  0  0  0  0  0
    4.5981   -1.6550    0.0000 C   0  0  0  0  0  0  0  0  0  0  0  0
    5.4641   -3.1550    0.0000 C   0  0  0  0  0  0  0  0  0  0  0  0
    8.0622    4.3450    0.0000 C   0  0  0  0  0  0  0  0  0  0  0  0
    4.5981   -4.6550    0.0000 C   0  0  0  0  0  0  0  0  0  0  0  0
    3.7320   -5.1550    0.0000 C   0  0  0  0  0  0  0  0  0  0  0  0
    3.7320   -6.1550    0.0000 C   0  0  0  0  0  0  0  0  0  0  0  0
    2.8660   -6.6550    0.0000 C   0  0  0  0  0  0  0  0  0  0  0  0
    4.5981   -6.6550    0.0000 C   0  0  0  0  0  0  0  0  0  0  0  0
    2.8660   -7.6550    0.0000 C   0  0  0  0  0  0  0  0  0  0  0  0
    4.5981   -7.6550    0.0000 C   0  0  0  0  0  0  0  0  0  0  0  0
    3.7320   -8.1550    0.0000 C   0  0  0  0  0  0  0  0  0  0  0  0
    3.9875    4.4527    0.0000 H   0  0  0  0  0  0  0  0  0  0  0  0
    4.3860    3.7624    0.0000 H   0  0  0  0  0  0  0  0  0  0  0  0
    6.6592    0.1550    0.0000 H   0  0  0  0  0  0  0  0  0  0  0  0
    5.2087    6.2373    0.0000 H   0  0  0  0  0  0  0  0  0  0  0  0
    4.8101    6.9276    0.0000 H   0  0  0  0  0  0  0  0  0  0  0  0
    7.6636   -1.1300    0.0000 H   0  0  0  0  0  0  0  0  0  0  0  0
    8.4607   -1.1300    0.0000 H   0  0  0  0  0  0  0  0  0  0  0  0
    5.7932    2.0350    0.0000 H   0  0  0  0  0  0  0  0  0  0  0  0
    9.4651    0.1550    0.0000 H   0  0  0  0  0  0  0  0  0  0  0  0
    3.5981    5.9650    0.0000 H   0  0  0  0  0  0  0  0  0  0  0  0
    2.9781    5.3450    0.0000 H   0  0  0  0  0  0  0  0  0  0  0  0
    3.5981    4.7250    0.0000 H   0  0  0  0  0  0  0  0  0  0  0  0
    5.5981    4.7250    0.0000 H   0  0  0  0  0  0  0  0  0  0  0  0
    6.2181    5.3450    0.0000 H   0  0  0  0  0  0  0  0  0  0  0  0
    5.5981    5.9650    0.0000 H   0  0  0  0  0  0  0  0  0  0  0  0
    4.9272    2.5350    0.0000 H   0  0  0  0  0  0  0  0  0  0  0  0
    7.7331    1.1550    0.0000 H   0  0  0  0  0  0  0  0  0  0  0  0
    7.4082    2.2624    0.0000 H   0  0  0  0  0  0  0  0  0  0  0  0
    7.8067    2.9527    0.0000 H   0  0  0  0  0  0  0  0  0  0  0  0
    9.4842   -1.1919    0.0000 H   0  0  0  0  0  0  0  0  0  0  0  0
   10.3312   -0.9650    0.0000 H   0  0  0  0  0  0  0  0  0  0  0  0
   10.1042   -0.1181    0.0000 H   0  0  0  0  0  0  0  0  0  0  0  0
    9.5482    0.8450    0.0000 H   0  0  0  0  0  0  0  0  0  0  0  0
    8.9282    1.4650    0.0000 H   0  0  0  0  0  0  0  0  0  0  0  0
    8.3082    0.8450    0.0000 H   0  0  0  0  0  0  0  0  0  0  0  0
    6.9841    4.4276    0.0000 H   0  0  0  0  0  0  0  0  0  0  0  0
    6.5856    3.7373    0.0000 H   0  0  0  0  0  0  0  0  0  0  0  0
    6.8671   -1.9650    0.0000 H   0  0  0  0  0  0  0  0  0  0  0  0
    5.4641   -1.5350    0.0000 H   0  0  0  0  0  0  0  0  0  0  0  0
    3.9875   -1.5473    0.0000 H   0  0  0  0  0  0  0  0  0  0  0  0
    4.3860   -2.2376    0.0000 H   0  0  0  0  0  0  0  0  0  0  0  0
    3.1951    8.1550    0.0000 H   0  0  0  0  0  0  0  0  0  0  0  0
    4.0611   -3.3450    0.0000 H   0  0  0  0  0  0  0  0  0  0  0  0
    4.8101   -5.2376    0.0000 H   0  0  0  0  0  0  0  0  0  0  0  0
    5.2087   -4.5473    0.0000 H   0  0  0  0  0  0  0  0  0  0  0  0
    3.5200   -4.5724    0.0000 H   0  0  0  0  0  0  0  0  0  0  0  0
    3.1215   -5.2627    0.0000 H   0  0  0  0  0  0  0  0  0  0  0  0
    4.0611   -0.3450    0.0000 H   0  0  0  0  0  0  0  0  0  0  0  0
    8.5991    5.6550    0.0000 H   0  0  0  0  0  0  0  0  0  0  0  0
    5.1350   -6.3450    0.0000 H   0  0  0  0  0  0  0  0  0  0  0  0
    2.3291   -7.9650    0.0000 H   0  0  0  0  0  0  0  0  0  0  0  0
    5.1350   -7.9650    0.0000 H   0  0  0  0  0  0  0  0  0  0  0  0
    3.7320   -8.7750    0.0000 H   0  0  0  0  0  0  0  0  0  0  0  0
  1 39  1  0  0  0  0
  2 33  1  0  0  0  0
  2 81  1  0  0  0  0
  3 24  2  0  0  0  0
  4 26  2  0  0  0  0
  5 27  2  0  0  0  0
  6 30  1  0  0  0  0
  6 75  1  0  0  0  0
  7 30  2  0  0  0  0
  8 35  1  0  0  0  0
  8 82  1  0  0  0  0
  9 34  2  0  0  0  0
 10 35  2  0  0  0  0
 20 11  1  1  0  0  0
 11 24  1  0  0  0  0
 11 59  1  0  0  0  0
 17 12  1  1  0  0  0
 12 26  1  0  0  0  0
 12 60  1  0  0  0  0
 13 27  1  0  0  0  0
 32 13  1  6  0  0  0
 13 71  1  0  0  0  0
 14 34  1  0  0  0  0
 14 36  1  0  0  0  0
 14 76  1  0  0  0  0
 15 16  1  0  0  0  0
 15 18  1  0  0  0  0
 15 22  1  0  0  0  0
 15 23  1  0  0  0  0
 16 24  1  0  0  0  0
 16 44  1  0  0  0  0
 16 45  1  0  0  0  0
 17 19  1  0  0  0  0
 17 27  1  0  0  0  0
 17 46  1  0  0  0  0
 18 30  1  0  0  0  0
 18 47  1  0  0  0  0
 18 48  1  0  0  0  0
 19 21  1  0  0  0  0
 19 49  1  0  0  0  0
 19 50  1  0  0  0  0
 20 25  1  0  0  0  0
 20 26  1  0  0  0  0
 20 51  1  0  0  0  0
 21 28  1  0  0  0  0
 21 29  1  0  0  0  0
 21 52  1  0  0  0  0
 22 53  1  0  0  0  0
 22 54  1  0  0  0  0
 22 55  1  0  0  0  0
 23 56  1  0  0  0  0
 23 57  1  0  0  0  0
 23 58  1  0  0  0  0
 25 31  1  0  0  0  0
 25 61  1  0  0  0  0
 25 62  1  0  0  0  0
 28 63  1  0  0  0  0
 28 64  1  0  0  0  0
 28 65  1  0  0  0  0
 29 66  1  0  0  0  0
 29 67  1  0  0  0  0
 29 68  1  0  0  0  0
 31 35  1  0  0  0  0
 31 69  1  0  0  0  0
 31 70  1  0  0  0  0
 32 33  1  0  0  0  0
 32 34  1  0  0  0  0
 32 72  1  0  0  0  0
 33 73  1  0  0  0  0
 33 74  1  0  0  0  0
 36 37  1  0  0  0  0
 36 77  1  0  0  0  0
 36 78  1  0  0  0  0
 37 38  1  0  0  0  0
 37 79  1  0  0  0  0
 37 80  1  0  0  0  0
 38 39  1  0  0  0  0
 38 40  2  0  0  0  0
 39 41  2  0  0  0  0
 40 42  1  0  0  0  0
 40 83  1  0  0  0  0
 41 43  1  0  0  0  0
 41 84  1  0  0  0  0
 42 43  2  0  0  0  0
 42 85  1  0  0  0  0
 43 86  1  0  0  0  0
M  END
> <PUBCHEM_COMPOUND_CID>
507531
> <PUBCHEM_COMPOUND_CANONICALIZED>
1
> <PUBCHEM_CACTVS_COMPLEXITY>
980
> <PUBCHEM_CACTVS_HBOND_ACCEPTOR>
9
> <PUBCHEM_CACTVS_HBOND_DONOR>
7
> <PUBCHEM_CACTVS_ROTATABLE_BOND>
19
> <PUBCHEM_CACTVS_SUBSKEYS>
AAADcfB7vABEAAAAAAAAAAAAAAAAAAAAAAAwAAAAAAAAAAABAAAAHgYQCAAADyrF2CSyCILAAgSIAiHSGAACAAAgBQAIiIGIAogIYDKBkzGUYAAklgCIiAe8l4IPAAAAAAABAAAAAAAAAAIAAAAAAAAAAA==
> <PUBCHEM_IUPAC_OPENEYE_NAME>
5-[[(1S)-3-carboxy-1-[[(1S)-1-[[(1R)-2-[2-(2-chlorophenyl)ethylamino]-2-oxo-1-(sulfanylmethyl)ethyl]carbamoyl]-3-methyl-butyl]carbamoyl]propyl]amino]-3,3-dimethyl-5-oxo-pentanoic acid
> <PUBCHEM_IUPAC_CAS_NAME>
5-[[(2S)-4-carboxy-1-[[(2S)-1-[[(2R)-1-[2-(2-chlorophenyl)ethylamino]-3-mercapto-1-oxopropan-2-yl]amino]-4-methyl-1-oxopentan-2-yl]amino]-1-oxobutan-2-yl]amino]-3,3-dimethyl-5-oxopentanoic acid
> <PUBCHEM_IUPAC_NAME_MARKUP>
5-[[(2<I>S</I>)-4-carboxy-1-[[(2<I>S</I>)-1-[[(2<I>R</I>)-1-[2-(2-chlorophenyl)ethylamino]-1-oxo-3-sulfanylpropan-2-yl]amino]-4-methyl-1-oxopentan-2-yl]amino]-1-oxobutan-2-yl]amino]-3,3-dimethyl-5-oxopentanoic acid
> <PUBCHEM_IUPAC_NAME>
5-[[(2S)-4-carboxy-1-[[(2S)-1-[[(2R)-1-[2-(2-chlorophenyl)ethylamino]-1-oxo-3-sulfanylpropan-2-yl]amino]-4-methyl-1-oxopentan-2-yl]amino]-1-oxobutan-2-yl]amino]-3,3-dimethyl-5-oxopentanoic acid
> <PUBCHEM_IUPAC_SYSTEMATIC_NAME>
5-[[(2S)-1-[[(2S)-1-[[(2R)-1-[2-(2-chlorophenyl)ethylamino]-1-oxidanylidene-3-sulfanyl-propan-2-yl]amino]-4-methyl-1-oxidanylidene-pentan-2-yl]amino]-5-oxidanyl-1,5-bis(oxidanylidene)pentan-2-yl]amino]-3,3-dimethyl-5-oxidanylidene-pentanoic acid
> <PUBCHEM_IUPAC_TRADITIONAL_NAME>
5-[[(1S)-3-carboxy-1-[[(1S)-1-[[(1R)-2-[2-(2-chlorophenyl)ethylamino]-2-keto-1-(mercaptomethyl)ethyl]carbamoyl]-3-methyl-butyl]carbamoyl]propyl]amino]-5-keto-3,3-dimethyl-valeric acid
> <PUBCHEM_IUPAC_INCHI>
InChI=1S/C29H43ClN4O8S/c1-17(2)13-21(28(42)34-22(16-43)26(40)31-12-11-18-7-5-6-8-19(18)30)33-27(41)20(9-10-24(36)37)32-23(35)14-29(3,4)15-25(38)39/h5-8,17,20-22,43H,9-16H2,1-4H3,(H,31,40)(H,32,35)(H,33,41)(H,34,42)(H,36,37)(H,38,39)/t20-,21-,22-/m0/s1
> <PUBCHEM_IUPAC_INCHIKEY>
OFRBBQPNZSQGAB-FKBYEOEOSA-N
> <PUBCHEM_XLOGP3_AA>
2.7
> <PUBCHEM_EXACT_MASS>
642.2490132
> <PUBCHEM_MOLECULAR_FORMULA>
C29H43ClN4O8S
> <PUBCHEM_MOLECULAR_WEIGHT>
643.2
> <PUBCHEM_OPENEYE_CAN_SMILES>
CC(C)CC(C(=O)NC(CS)C(=O)NCCC1=CC=CC=C1Cl)NC(=O)C(CCC(=O)O)NC(=O)CC(C)(C)CC(=O)O
> <PUBCHEM_OPENEYE_ISO_SMILES>
CC(C)C[C@@H](C(=O)N[C@@H](CS)C(=O)NCCC1=CC=CC=C1Cl)NC(=O)[C@H](CCC(=O)O)NC(=O)CC(C)(C)CC(=O)O
> <PUBCHEM_CACTVS_TPSA>
192
> <PUBCHEM_MONOISOTOPIC_WEIGHT>
642.2490132
> <PUBCHEM_TOTAL_CHARGE>
0
> <PUBCHEM_HEAVY_ATOM_COUNT>
43
> <PUBCHEM_ATOM_DEF_STEREO_COUNT>
3
> <PUBCHEM_ATOM_UDEF_STEREO_COUNT>
0
> <PUBCHEM_BOND_DEF_STEREO_COUNT>
0
> <PUBCHEM_BOND_UDEF_STEREO_COUNT>
0
> <PUBCHEM_ISOTOPIC_ATOM_COUNT>
0
> <PUBCHEM_COMPONENT_COUNT>
1
> <PUBCHEM_CACTVS_TAUTO_COUNT>
-1
> <PUBCHEM_COORDINATE_TYPE>
1
5
255
> <PUBCHEM_BONDANNOTATIONS>
20  11  5
17  12  5
32  13  6
38  39  8
38  40  8
39  41  8
40  42  8
41  43  8
42  43  8
$$$$
