507560
  -OEChem-10302200282D
139142  0     1  0  0  0  0  0999 V2000
    8.0622    1.5000    0.0000 S   0  0  0  0  0  0  0  0  0  0  0  0
    7.1962    1.0000    0.0000 O   0  0  0  0  0  0  0  0  0  0  0  0
    7.1962    0.0000    0.0000 O   0  0  0  0  0  0  0  0  0  0  0  0
    6.3301   -3.5000    0.0000 O   0  0  0  0  0  0  0  0  0  0  0  0
    6.3301    4.5000    0.0000 O   0  0  0  0  0  0  0  0  0  0  0  0
    4.5981   -4.5000    0.0000 O   0  0  0  0  0  0  0  0  0  0  0  0
    3.7320   -3.0000    0.0000 O   0  0  0  0  0  0  0  0  0  0  0  0
    6.3301   -4.5000    0.0000 O   0  0  0  0  0  0  0  0  0  0  0  0
    7.1962   -8.0000    0.0000 O   0  0  0  0  0  0  0  0  0  0  0  0
    5.4641   -9.0000    0.0000 O   0  0  0  0  0  0  0  0  0  0  0  0
    4.5981   -7.5000    0.0000 O   0  0  0  0  0  0  0  0  0  0  0  0
   11.5263   -7.5000    0.0000 O   0  0  0  0  0  0  0  0  0  0  0  0
   10.6603   -9.0000    0.0000 O   0  0  0  0  0  0  0  0  0  0  0  0
    7.1962   -9.0000    0.0000 O   0  0  0  0  0  0  0  0  0  0  0  0
    9.7942   10.5000    0.0000 O   0  5  0  0  0  0  0  0  0  0  0  0
    8.0622   10.5000    0.0000 O   0  0  0  0  0  0  0  0  0  0  0  0
    5.4641    0.0000    0.0000 N   0  0  0  0  0  0  0  0  0  0  0  0
    6.3301    2.5000    0.0000 N   0  0  0  0  0  0  0  0  0  0  0  0
    7.1962   -2.0000    0.0000 N   0  0  0  0  0  0  0  0  0  0  0  0
    8.0622   -4.5000    0.0000 N   0  0  0  0  0  0  0  0  0  0  0  0
    8.0622    4.5000    0.0000 N   0  0  0  0  0  0  0  0  0  0  0  0
    8.0622   -6.5000    0.0000 N   0  0  0  0  0  0  0  0  0  0  0  0
    8.9282   -9.0000    0.0000 N   0  0  0  0  0  0  0  0  0  0  0  0
    8.9282   10.0000    0.0000 N   0  3  0  0  0  0  0  0  0  0  0  0
    3.7320    1.0000    0.0000 C   0  0  0  0  0  0  0  0  0  0  0  0
    2.8660    1.5000    0.0000 C   0  0  0  0  0  0  0  0  0  0  0  0
    3.7320    0.0000    0.0000 C   0  0  0  0  0  0  0  0  0  0  0  0
    2.0000    1.0000    0.0000 C   0  0  0  0  0  0  0  0  0  0  0  0
    2.8660   -0.5000    0.0000 C   0  0  0  0  0  0  0  0  0  0  0  0
    4.5981    1.5000    0.0000 C   0  0  0  0  0  0  0  0  0  0  0  0
    2.0000    0.0000    0.0000 C   0  0  0  0  0  0  0  0  0  0  0  0
    5.4641    1.0000    0.0000 C   0  0  1  0  0  0  0  0  0  0  0  0
    6.3301    1.5000    0.0000 C   0  0  0  0  0  0  0  0  0  0  0  0
    6.3301   -0.5000    0.0000 C   0  0  0  0  0  0  0  0  0  0  0  0
    6.3301   -1.5000    0.0000 C   0  0  2  0  0  0  0  0  0  0  0  0
    7.1962    3.0000    0.0000 C   0  0  1  0  0  0  0  0  0  0  0  0
    5.4641   -2.0000    0.0000 C   0  0  0  0  0  0  0  0  0  0  0  0
    8.0622   -3.5000    0.0000 C   0  0  2  0  0  0  0  0  0  0  0  0
    8.0622    2.5000    0.0000 C   0  0  0  0  0  0  0  0  0  0  0  0
    7.1962   -3.0000    0.0000 C   0  0  0  0  0  0  0  0  0  0  0  0
    5.4641   -3.0000    0.0000 C   0  0  0  0  0  0  0  0  0  0  0  0
    7.1962    4.0000    0.0000 C   0  0  0  0  0  0  0  0  0  0  0  0
    8.9282   -3.0000    0.0000 C   0  0  0  0  0  0  0  0  0  0  0  0
    9.7942   -3.5000    0.0000 C   0  0  0  0  0  0  0  0  0  0  0  0
    9.4282   -2.1340    0.0000 C   0  0  0  0  0  0  0  0  0  0  0  0
    4.5981   -3.5000    0.0000 C   0  0  0  0  0  0  0  0  0  0  0  0
    7.1962   -5.0000    0.0000 C   0  0  0  0  0  0  0  0  0  0  0  0
    7.1962   -6.0000    0.0000 C   0  0  2  0  0  0  0  0  0  0  0  0
    8.0622    5.5000    0.0000 C   0  0  0  0  0  0  0  0  0  0  0  0
    9.7942   -4.5000    0.0000 C   0  0  0  0  0  0  0  0  0  0  0  0
   10.4282   -2.1340    0.0000 C   0  0  0  0  0  0  0  0  0  0  0  0
   10.6603   -3.0000    0.0000 C   0  0  0  0  0  0  0  0  0  0  0  0
    8.9282   -1.2680    0.0000 C   0  0  0  0  0  0  0  0  0  0  0  0
    6.3301   -6.5000    0.0000 C   0  0  0  0  0  0  0  0  0  0  0  0
    8.9282    6.0000    0.0000 C   0  0  0  0  0  0  0  0  0  0  0  0
   10.6603   -5.0000    0.0000 C   0  0  0  0  0  0  0  0  0  0  0  0
   10.9282   -1.2680    0.0000 C   0  0  0  0  0  0  0  0  0  0  0  0
   11.5263   -3.5000    0.0000 C   0  0  0  0  0  0  0  0  0  0  0  0
    9.4282   -0.4019    0.0000 C   0  0  0  0  0  0  0  0  0  0  0  0
    6.3301   -7.5000    0.0000 C   0  0  0  0  0  0  0  0  0  0  0  0
   11.5263   -4.5000    0.0000 C   0  0  0  0  0  0  0  0  0  0  0  0
   10.4282   -0.4019    0.0000 C   0  0  0  0  0  0  0  0  0  0  0  0
    8.0622   -7.5000    0.0000 C   0  0  0  0  0  0  0  0  0  0  0  0
    8.9282    7.0000    0.0000 C   0  0  0  0  0  0  0  0  0  0  0  0
    8.9282   -8.0000    0.0000 C   0  0  2  0  0  0  0  0  0  0  0  0
    5.4641   -8.0000    0.0000 C   0  0  0  0  0  0  0  0  0  0  0  0
    9.7942   -7.5000    0.0000 C   0  0  0  0  0  0  0  0  0  0  0  0
    8.0622    7.5000    0.0000 C   0  0  0  0  0  0  0  0  0  0  0  0
    9.7942    7.5000    0.0000 C   0  0  0  0  0  0  0  0  0  0  0  0
    8.0622    8.5000    0.0000 C   0  0  0  0  0  0  0  0  0  0  0  0
    9.7942    8.5000    0.0000 C   0  0  0  0  0  0  0  0  0  0  0  0
   10.6603   -8.0000    0.0000 C   0  0  0  0  0  0  0  0  0  0  0  0
    8.9282    9.0000    0.0000 C   0  0  0  0  0  0  0  0  0  0  0  0
    8.0622   -9.5000    0.0000 C   0  0  0  0  0  0  0  0  0  0  0  0
    8.0622  -10.5000    0.0000 C   0  0  0  0  0  0  0  0  0  0  0  0
    3.7320    1.6200    0.0000 H   0  0  0  0  0  0  0  0  0  0  0  0
    3.2646    1.9750    0.0000 H   0  0  0  0  0  0  0  0  0  0  0  0
    2.4675    1.9750    0.0000 H   0  0  0  0  0  0  0  0  0  0  0  0
    3.9441   -0.5826    0.0000 H   0  0  0  0  0  0  0  0  0  0  0  0
    4.3426    0.1077    0.0000 H   0  0  0  0  0  0  0  0  0  0  0  0
    1.7880    1.5826    0.0000 H   0  0  0  0  0  0  0  0  0  0  0  0
    1.3894    0.8923    0.0000 H   0  0  0  0  0  0  0  0  0  0  0  0
    2.4675   -0.9749    0.0000 H   0  0  0  0  0  0  0  0  0  0  0  0
    3.2646   -0.9749    0.0000 H   0  0  0  0  0  0  0  0  0  0  0  0
    4.9966    1.9750    0.0000 H   0  0  0  0  0  0  0  0  0  0  0  0
    4.1996    1.9750    0.0000 H   0  0  0  0  0  0  0  0  0  0  0  0
    1.3894    0.1077    0.0000 H   0  0  0  0  0  0  0  0  0  0  0  0
    1.7880   -0.5826    0.0000 H   0  0  0  0  0  0  0  0  0  0  0  0
    6.0010    0.6900    0.0000 H   0  0  0  0  0  0  0  0  0  0  0  0
    4.9272   -0.3100    0.0000 H   0  0  0  0  0  0  0  0  0  0  0  0
    5.7932    2.8100    0.0000 H   0  0  0  0  0  0  0  0  0  0  0  0
    6.8671   -1.1900    0.0000 H   0  0  0  0  0  0  0  0  0  0  0  0
    6.6592    3.3100    0.0000 H   0  0  0  0  0  0  0  0  0  0  0  0
    5.2520   -1.4174    0.0000 H   0  0  0  0  0  0  0  0  0  0  0  0
    4.8535   -2.1077    0.0000 H   0  0  0  0  0  0  0  0  0  0  0  0
    7.7331   -1.6900    0.0000 H   0  0  0  0  0  0  0  0  0  0  0  0
    7.5252   -3.8100    0.0000 H   0  0  0  0  0  0  0  0  0  0  0  0
    8.6728    2.3923    0.0000 H   0  0  0  0  0  0  0  0  0  0  0  0
    8.2742    3.0826    0.0000 H   0  0  0  0  0  0  0  0  0  0  0  0
    5.6762   -3.5826    0.0000 H   0  0  0  0  0  0  0  0  0  0  0  0
    6.0747   -2.8923    0.0000 H   0  0  0  0  0  0  0  0  0  0  0  0
    8.4898   -2.5616    0.0000 H   0  0  0  0  0  0  0  0  0  0  0  0
    8.5991   -4.8100    0.0000 H   0  0  0  0  0  0  0  0  0  0  0  0
    8.5991    4.1900    0.0000 H   0  0  0  0  0  0  0  0  0  0  0  0
    7.7331   -5.6900    0.0000 H   0  0  0  0  0  0  0  0  0  0  0  0
    8.5991    1.1900    0.0000 H   0  0  0  0  0  0  0  0  0  0  0  0
    7.8501    6.0826    0.0000 H   0  0  0  0  0  0  0  0  0  0  0  0
    7.4516    5.3923    0.0000 H   0  0  0  0  0  0  0  0  0  0  0  0
    9.2573   -4.8100    0.0000 H   0  0  0  0  0  0  0  0  0  0  0  0
   10.7382   -2.6709    0.0000 H   0  0  0  0  0  0  0  0  0  0  0  0
   10.6603   -2.3800    0.0000 H   0  0  0  0  0  0  0  0  0  0  0  0
    8.3082   -1.2680    0.0000 H   0  0  0  0  0  0  0  0  0  0  0  0
    6.1181   -5.9174    0.0000 H   0  0  0  0  0  0  0  0  0  0  0  0
    5.7196   -6.6077    0.0000 H   0  0  0  0  0  0  0  0  0  0  0  0
    9.1403    5.4174    0.0000 H   0  0  0  0  0  0  0  0  0  0  0  0
    9.5388    6.1077    0.0000 H   0  0  0  0  0  0  0  0  0  0  0  0
    8.5991   -6.1900    0.0000 H   0  0  0  0  0  0  0  0  0  0  0  0
   10.6603   -5.6200    0.0000 H   0  0  0  0  0  0  0  0  0  0  0  0
   11.5482   -1.2680    0.0000 H   0  0  0  0  0  0  0  0  0  0  0  0
   12.0632   -3.1900    0.0000 H   0  0  0  0  0  0  0  0  0  0  0  0
    9.1182    0.1350    0.0000 H   0  0  0  0  0  0  0  0  0  0  0  0
    6.5422   -8.0826    0.0000 H   0  0  0  0  0  0  0  0  0  0  0  0
    6.9407   -7.3923    0.0000 H   0  0  0  0  0  0  0  0  0  0  0  0
    4.0611   -4.8100    0.0000 H   0  0  0  0  0  0  0  0  0  0  0  0
   12.0632   -4.8100    0.0000 H   0  0  0  0  0  0  0  0  0  0  0  0
   10.7382    0.1350    0.0000 H   0  0  0  0  0  0  0  0  0  0  0  0
    9.4651   -8.3100    0.0000 H   0  0  0  0  0  0  0  0  0  0  0  0
   10.1928   -7.0250    0.0000 H   0  0  0  0  0  0  0  0  0  0  0  0
    9.3957   -7.0250    0.0000 H   0  0  0  0  0  0  0  0  0  0  0  0
    7.5252    7.1900    0.0000 H   0  0  0  0  0  0  0  0  0  0  0  0
   10.3312    7.1900    0.0000 H   0  0  0  0  0  0  0  0  0  0  0  0
    9.4651   -9.3100    0.0000 H   0  0  0  0  0  0  0  0  0  0  0  0
    7.5252    8.8100    0.0000 H   0  0  0  0  0  0  0  0  0  0  0  0
   10.3312    8.8100    0.0000 H   0  0  0  0  0  0  0  0  0  0  0  0
    4.9272   -9.3100    0.0000 H   0  0  0  0  0  0  0  0  0  0  0  0
    7.4422  -10.5000    0.0000 H   0  0  0  0  0  0  0  0  0  0  0  0
    8.0622  -11.1200    0.0000 H   0  0  0  0  0  0  0  0  0  0  0  0
    8.6822  -10.5000    0.0000 H   0  0  0  0  0  0  0  0  0  0  0  0
   12.0632   -7.8100    0.0000 H   0  0  0  0  0  0  0  0  0  0  0  0
  1 39  1  0  0  0  0
  1106  1  0  0  0  0
  2 33  2  0  0  0  0
  3 34  2  0  0  0  0
  4 40  2  0  0  0  0
  5 42  2  0  0  0  0
  6 46  1  0  0  0  0
  6124  1  0  0  0  0
  7 46  2  0  0  0  0
  8 47  2  0  0  0  0
  9 63  2  0  0  0  0
 10 66  1  0  0  0  0
 10135  1  0  0  0  0
 11 66  2  0  0  0  0
 12 72  1  0  0  0  0
 12139  1  0  0  0  0
 13 72  2  0  0  0  0
 14 74  2  0  0  0  0
 15 24  1  0  0  0  0
 16 24  2  0  0  0  0
 32 17  1  1  0  0  0
 17 34  1  0  0  0  0
 17 90  1  0  0  0  0
 18 33  1  0  0  0  0
 36 18  1  6  0  0  0
 18 91  1  0  0  0  0
 35 19  1  1  0  0  0
 19 40  1  0  0  0  0
 19 96  1  0  0  0  0
 38 20  1  6  0  0  0
 20 47  1  0  0  0  0
 20103  1  0  0  0  0
 21 42  1  0  0  0  0
 21 49  1  0  0  0  0
 21104  1  0  0  0  0
 48 22  1  1  0  0  0
 22 63  1  0  0  0  0
 22117  1  0  0  0  0
 65 23  1  6  0  0  0
 23 74  1  0  0  0  0
 23132  1  0  0  0  0
 24 73  1  0  0  0  0
 25 26  1  0  0  0  0
 25 27  1  0  0  0  0
 25 30  1  0  0  0  0
 25 76  1  0  0  0  0
 26 28  1  0  0  0  0
 26 77  1  0  0  0  0
 26 78  1  0  0  0  0
 27 29  1  0  0  0  0
 27 79  1  0  0  0  0
 27 80  1  0  0  0  0
 28 31  1  0  0  0  0
 28 81  1  0  0  0  0
 28 82  1  0  0  0  0
 29 31  1  0  0  0  0
 29 83  1  0  0  0  0
 29 84  1  0  0  0  0
 30 32  1  0  0  0  0
 30 85  1  0  0  0  0
 30 86  1  0  0  0  0
 31 87  1  0  0  0  0
 31 88  1  0  0  0  0
 32 33  1  0  0  0  0
 32 89  1  0  0  0  0
 34 35  1  0  0  0  0
 35 37  1  0  0  0  0
 35 92  1  0  0  0  0
 36 39  1  0  0  0  0
 36 42  1  0  0  0  0
 36 93  1  0  0  0  0
 37 41  1  0  0  0  0
 37 94  1  0  0  0  0
 37 95  1  0  0  0  0
 38 40  1  0  0  0  0
 38 43  1  0  0  0  0
 38 97  1  0  0  0  0
 39 98  1  0  0  0  0
 39 99  1  0  0  0  0
 41 46  1  0  0  0  0
 41100  1  0  0  0  0
 41101  1  0  0  0  0
 43 44  1  0  0  0  0
 43 45  1  0  0  0  0
 43102  1  0  0  0  0
 44 50  2  0  0  0  0
 44 52  1  0  0  0  0
 45 51  2  0  0  0  0
 45 53  1  0  0  0  0
 47 48  1  0  0  0  0
 48 54  1  0  0  0  0
 48105  1  0  0  0  0
 49 55  1  0  0  0  0
 49107  1  0  0  0  0
 49108  1  0  0  0  0
 50 56  1  0  0  0  0
 50109  1  0  0  0  0
 51 57  1  0  0  0  0
 51110  1  0  0  0  0
 52 58  2  0  0  0  0
 52111  1  0  0  0  0
 53 59  2  0  0  0  0
 53112  1  0  0  0  0
 54 60  1  0  0  0  0
 54113  1  0  0  0  0
 54114  1  0  0  0  0
 55 64  1  0  0  0  0
 55115  1  0  0  0  0
 55116  1  0  0  0  0
 56 61  2  0  0  0  0
 56118  1  0  0  0  0
 57 62  2  0  0  0  0
 57119  1  0  0  0  0
 58 61  1  0  0  0  0
 58120  1  0  0  0  0
 59 62  1  0  0  0  0
 59121  1  0  0  0  0
 60 66  1  0  0  0  0
 60122  1  0  0  0  0
 60123  1  0  0  0  0
 61125  1  0  0  0  0
 62126  1  0  0  0  0
 63 65  1  0  0  0  0
 64 68  2  0  0  0  0
 64 69  1  0  0  0  0
 65 67  1  0  0  0  0
 65127  1  0  0  0  0
 67 72  1  0  0  0  0
 67128  1  0  0  0  0
 67129  1  0  0  0  0
 68 70  1  0  0  0  0
 68130  1  0  0  0  0
 69 71  2  0  0  0  0
 69131  1  0  0  0  0
 70 73  2  0  0  0  0
 70133  1  0  0  0  0
 71 73  1  0  0  0  0
 71134  1  0  0  0  0
 74 75  1  0  0  0  0
 75136  1  0  0  0  0
 75137  1  0  0  0  0
 75138  1  0  0  0  0
M  CHG  2  15  -1  24   1
M  END
> <PUBCHEM_COMPOUND_CID>
507560
> <PUBCHEM_COMPOUND_CANONICALIZED>
1
> <PUBCHEM_CACTVS_COMPLEXITY>
1950
> <PUBCHEM_CACTVS_HBOND_ACCEPTOR>
16
> <PUBCHEM_CACTVS_HBOND_DONOR>
11
> <PUBCHEM_CACTVS_ROTATABLE_BOND>
29
> <PUBCHEM_CACTVS_SUBSKEYS>
AAADcfB//ABAAAAAAAAAAAAAAAAAAAAAAAAwYMGAAAAAAAABUAAAHgQUCAAADSjF2ASyyILQQgSJAiXSWwCCAAAgAgAoiIGIZIoIYDqAkbGUYABmlgCIyAe/n8KOiAAAAAAAAAAQAAAAAAAAAAAAAAAAAA==
> <PUBCHEM_IUPAC_OPENEYE_NAME>
(4S)-4-[[(2S)-2-acetamido-3-carboxy-propanoyl]amino]-5-[[(1S)-1-benzhydryl-2-[[(1S)-3-carboxy-1-[[(1S)-1-(cyclohexylmethyl)-2-[[(1R)-2-[2-(4-nitrophenyl)ethylamino]-2-oxo-1-(sulfanylmethyl)ethyl]amino]-2-oxo-ethyl]carbamoyl]propyl]amino]-2-oxo-ethyl]amino]-5-oxo-pentanoic acid
> <PUBCHEM_IUPAC_CAS_NAME>
(4S)-4-[[(2S)-2-acetamido-3-carboxy-1-oxopropyl]amino]-5-[[(2S)-1-[[(2S)-4-carboxy-1-[[(2S)-3-cyclohexyl-1-[[(2R)-3-mercapto-1-[2-(4-nitrophenyl)ethylamino]-1-oxopropan-2-yl]amino]-1-oxopropan-2-yl]amino]-1-oxobutan-2-yl]amino]-1-oxo-3,3-diphenylpropan-2-yl]amino]-5-oxopentanoic acid
> <PUBCHEM_IUPAC_NAME_MARKUP>
(4<I>S</I>)-4-[[(2<I>S</I>)-2-acetamido-3-carboxypropanoyl]amino]-5-[[(2<I>S</I>)-1-[[(2<I>S</I>)-4-carboxy-1-[[(2<I>S</I>)-3-cyclohexyl-1-[[(2<I>R</I>)-1-[2-(4-nitrophenyl)ethylamino]-1-oxo-3-sulfanylpropan-2-yl]amino]-1-oxopropan-2-yl]amino]-1-oxobutan-2-yl]amino]-1-oxo-3,3-diphenylpropan-2-yl]amino]-5-oxopentanoic acid
> <PUBCHEM_IUPAC_NAME>
(4S)-4-[[(2S)-2-acetamido-3-carboxypropanoyl]amino]-5-[[(2S)-1-[[(2S)-4-carboxy-1-[[(2S)-3-cyclohexyl-1-[[(2R)-1-[2-(4-nitrophenyl)ethylamino]-1-oxo-3-sulfanylpropan-2-yl]amino]-1-oxopropan-2-yl]amino]-1-oxobutan-2-yl]amino]-1-oxo-3,3-diphenylpropan-2-yl]amino]-5-oxopentanoic acid
> <PUBCHEM_IUPAC_SYSTEMATIC_NAME>
(4S)-4-[[(2S)-2-acetamido-4-oxidanyl-4-oxidanylidene-butanoyl]amino]-5-[[(2S)-1-[[(2S)-1-[[(2S)-3-cyclohexyl-1-[[(2R)-1-[2-(4-nitrophenyl)ethylamino]-1-oxidanylidene-3-sulfanyl-propan-2-yl]amino]-1-oxidanylidene-propan-2-yl]amino]-5-oxidanyl-1,5-bis(oxidanylidene)pentan-2-yl]amino]-1-oxidanylidene-3,3-diphenyl-propan-2-yl]amino]-5-oxidanylidene-pentanoic acid
> <PUBCHEM_IUPAC_TRADITIONAL_NAME>
(4S)-4-[[(2S)-2-acetamido-3-carboxy-propanoyl]amino]-5-[[(1S)-1-benzhydryl-2-[[(1S)-3-carboxy-1-[[(1S)-1-(cyclohexylmethyl)-2-keto-2-[[(1R)-2-keto-1-(mercaptomethyl)-2-[2-(4-nitrophenyl)ethylamino]ethyl]amino]ethyl]carbamoyl]propyl]amino]-2-keto-ethyl]amino]-5-keto-valeric acid
> <PUBCHEM_IUPAC_INCHI>
InChI=1S/C51H64N8O15S/c1-30(60)53-39(28-43(65)66)50(71)54-37(22-24-42(63)64)48(69)58-45(44(33-13-7-3-8-14-33)34-15-9-4-10-16-34)51(72)55-36(21-23-41(61)62)47(68)56-38(27-32-11-5-2-6-12-32)49(70)57-40(29-75)46(67)52-26-25-31-17-19-35(20-18-31)59(73)74/h3-4,7-10,13-20,32,36-40,44-45,75H,2,5-6,11-12,21-29H2,1H3,(H,52,67)(H,53,60)(H,54,71)(H,55,72)(H,56,68)(H,57,70)(H,58,69)(H,61,62)(H,63,64)(H,65,66)/t36-,37-,38-,39-,40-,45-/m0/s1
> <PUBCHEM_IUPAC_INCHIKEY>
RYARPKVYWOOZIQ-VUKWIJDPSA-N
> <PUBCHEM_XLOGP3_AA>
3.6
> <PUBCHEM_EXACT_MASS>
1060.42118454
> <PUBCHEM_MOLECULAR_FORMULA>
C51H64N8O15S
> <PUBCHEM_MOLECULAR_WEIGHT>
1061.2
> <PUBCHEM_OPENEYE_CAN_SMILES>
CC(=O)NC(CC(=O)O)C(=O)NC(CCC(=O)O)C(=O)NC(C(C1=CC=CC=C1)C2=CC=CC=C2)C(=O)NC(CCC(=O)O)C(=O)NC(CC3CCCCC3)C(=O)NC(CS)C(=O)NCCC4=CC=C(C=C4)[N+](=O)[O-]
> <PUBCHEM_OPENEYE_ISO_SMILES>
CC(=O)N[C@@H](CC(=O)O)C(=O)N[C@@H](CCC(=O)O)C(=O)N[C@@H](C(C1=CC=CC=C1)C2=CC=CC=C2)C(=O)N[C@@H](CCC(=O)O)C(=O)N[C@@H](CC3CCCCC3)C(=O)N[C@@H](CS)C(=O)NCCC4=CC=C(C=C4)[N+](=O)[O-]
> <PUBCHEM_CACTVS_TPSA>
362
> <PUBCHEM_MONOISOTOPIC_WEIGHT>
1060.42118454
> <PUBCHEM_TOTAL_CHARGE>
0
> <PUBCHEM_HEAVY_ATOM_COUNT>
75
> <PUBCHEM_ATOM_DEF_STEREO_COUNT>
6
> <PUBCHEM_ATOM_UDEF_STEREO_COUNT>
0
> <PUBCHEM_BOND_DEF_STEREO_COUNT>
0
> <PUBCHEM_BOND_UDEF_STEREO_COUNT>
0
> <PUBCHEM_ISOTOPIC_ATOM_COUNT>
0
> <PUBCHEM_COMPONENT_COUNT>
1
> <PUBCHEM_CACTVS_TAUTO_COUNT>
-1
> <PUBCHEM_COORDINATE_TYPE>
1
5
255
> <PUBCHEM_BONDANNOTATIONS>
32  17  5
36  18  6
35  19  5
38  20  6
48  22  5
65  23  6
44  50  8
44  52  8
45  51  8
45  53  8
50  56  8
51  57  8
52  58  8
53  59  8
56  61  8
57  62  8
58  61  8
59  62  8
64  68  8
64  69  8
68  70  8
69  71  8
70  73  8
71  73  8
$$$$
