507566
  -OEChem-10302200282D
141145  0     1  0  0  0  0  0999 V2000
    7.2101   -2.1243    0.0000 S   0  0  0  0  0  0  0  0  0  0  0  0
    8.1886   -1.9181    0.0000 O   0  0  0  0  0  0  0  0  0  0  0  0
    8.4993   -0.9676    0.0000 O   0  0  0  0  0  0  0  0  0  0  0  0
   10.4097    2.0902    0.0000 O   0  0  0  0  0  0  0  0  0  0  0  0
    7.9244   -5.5140    0.0000 O   0  0  0  0  0  0  0  0  0  0  0  0
   12.3668    2.5026    0.0000 O   0  0  0  0  0  0  0  0  0  0  0  0
   12.7239    0.8078    0.0000 O   0  0  0  0  0  0  0  0  0  0  0  0
   10.7204    3.0407    0.0000 O   0  0  0  0  0  0  0  0  0  0  0  0
   10.9846    6.6366    0.0000 O   0  0  0  0  0  0  0  0  0  0  0  0
   12.9416    7.0490    0.0000 O   0  0  0  0  0  0  0  0  0  0  0  0
   13.2987    5.3542    0.0000 O   0  0  0  0  0  0  0  0  0  0  0  0
    6.7134    7.5065    0.0000 O   0  0  0  0  0  0  0  0  0  0  0  0
    8.0025    8.6633    0.0000 O   0  0  0  0  0  0  0  0  0  0  0  0
   11.2952    7.5871    0.0000 O   0  0  0  0  0  0  0  0  0  0  0  0
   10.1456   -1.5057    0.0000 N   0  0  0  0  0  0  0  0  0  0  0  0
    8.5458   -3.6129    0.0000 N   0  0  0  0  0  0  0  0  0  0  0  0
    9.1206    0.9335    0.0000 N   0  0  0  0  0  0  0  0  0  0  0  0
    9.0741    3.5788    0.0000 N   0  0  0  0  0  0  0  0  0  0  0  0
    6.2781   -4.9759    0.0000 N   0  0  0  0  0  0  0  0  0  0  0  0
    9.6954    5.4798    0.0000 N   0  0  0  0  0  0  0  0  0  0  0  0
    4.6783   -8.6926    0.0000 N   0  0  0  0  0  0  0  0  0  0  0  0
    9.6489    8.1252    0.0000 N   0  0  0  0  0  0  0  0  0  0  0  0
   11.4813   -2.9943    0.0000 C   0  0  0  0  0  0  0  0  0  0  0  0
   12.1491   -3.7386    0.0000 C   0  0  0  0  0  0  0  0  0  0  0  0
   11.7920   -2.0438    0.0000 C   0  0  0  0  0  0  0  0  0  0  0  0
   13.1276   -3.5324    0.0000 C   0  0  0  0  0  0  0  0  0  0  0  0
   12.7705   -1.8375    0.0000 C   0  0  0  0  0  0  0  0  0  0  0  0
   10.5028   -3.2005    0.0000 C   0  0  0  0  0  0  0  0  0  0  0  0
   13.4383   -2.5818    0.0000 C   0  0  0  0  0  0  0  0  0  0  0  0
    9.8349   -2.4562    0.0000 C   0  0  1  0  0  0  0  0  0  0  0  0
    8.8564   -2.6624    0.0000 C   0  0  0  0  0  0  0  0  0  0  0  0
    9.4778   -0.7614    0.0000 C   0  0  0  0  0  0  0  0  0  0  0  0
    9.7884    0.1892    0.0000 C   0  0  2  0  0  0  0  0  0  0  0  0
    7.5673   -3.8191    0.0000 C   0  0  1  0  0  0  0  0  0  0  0  0
   10.7669    0.3954    0.0000 C   0  0  0  0  0  0  0  0  0  0  0  0
    6.8994   -3.0748    0.0000 C   0  0  0  0  0  0  0  0  0  0  0  0
    8.7634    2.6283    0.0000 C   0  0  2  0  0  0  0  0  0  0  0  0
   11.0776    1.3459    0.0000 C   0  0  0  0  0  0  0  0  0  0  0  0
    9.4312    1.8840    0.0000 C   0  0  0  0  0  0  0  0  0  0  0  0
    7.2566   -4.7697    0.0000 C   0  0  0  0  0  0  0  0  0  0  0  0
    7.7849    2.4221    0.0000 C   0  0  0  0  0  0  0  0  0  0  0  0
    7.1170    3.1664    0.0000 C   0  0  0  0  0  0  0  0  0  0  0  0
    7.0406    1.7542    0.0000 C   0  0  0  0  0  0  0  0  0  0  0  0
   12.0561    1.5521    0.0000 C   0  0  0  0  0  0  0  0  0  0  0  0
   10.0526    3.7850    0.0000 C   0  0  0  0  0  0  0  0  0  0  0  0
    5.9674   -5.9264    0.0000 C   0  0  0  0  0  0  0  0  0  0  0  0
   10.3632    4.7355    0.0000 C   0  0  2  0  0  0  0  0  0  0  0  0
    6.1385    2.9602    0.0000 C   0  0  0  0  0  0  0  0  0  0  0  0
    7.2468    0.7757    0.0000 C   0  0  0  0  0  0  0  0  0  0  0  0
    7.4277    4.1169    0.0000 C   0  0  0  0  0  0  0  0  0  0  0  0
    6.0901    2.0649    0.0000 C   0  0  0  0  0  0  0  0  0  0  0  0
    4.9889   -6.1326    0.0000 C   0  0  0  0  0  0  0  0  0  0  0  0
   11.3417    4.9418    0.0000 C   0  0  0  0  0  0  0  0  0  0  0  0
    4.6783   -7.0831    0.0000 C   0  0  0  0  0  0  0  0  0  0  0  0
    5.4707    3.7044    0.0000 C   0  0  0  0  0  0  0  0  0  0  0  0
    6.5025    0.1079    0.0000 C   0  0  0  0  0  0  0  0  0  0  0  0
    6.7599    4.8612    0.0000 C   0  0  0  0  0  0  0  0  0  0  0  0
    5.3458    1.3970    0.0000 C   0  0  0  0  0  0  0  0  0  0  0  0
   11.6524    5.8923    0.0000 C   0  0  0  0  0  0  0  0  0  0  0  0
    5.7814    4.6550    0.0000 C   0  0  0  0  0  0  0  0  0  0  0  0
    5.5520    0.4185    0.0000 C   0  0  0  0  0  0  0  0  0  0  0  0
   10.0060    6.4304    0.0000 C   0  0  0  0  0  0  0  0  0  0  0  0
    3.7320   -7.3879    0.0000 C   0  0  0  0  0  0  0  0  0  0  0  0
    9.3382    7.1747    0.0000 C   0  0  2  0  0  0  0  0  0  0  0  0
    5.2619   -7.8879    0.0000 C   0  0  0  0  0  0  0  0  0  0  0  0
    3.7320   -8.3879    0.0000 C   0  0  0  0  0  0  0  0  0  0  0  0
   12.6309    6.0985    0.0000 C   0  0  0  0  0  0  0  0  0  0  0  0
    8.3597    6.9684    0.0000 C   0  0  0  0  0  0  0  0  0  0  0  0
    2.8660   -6.8879    0.0000 C   0  0  0  0  0  0  0  0  0  0  0  0
    2.8660   -8.8879    0.0000 C   0  0  0  0  0  0  0  0  0  0  0  0
    2.0000   -7.3879    0.0000 C   0  0  0  0  0  0  0  0  0  0  0  0
    2.0000   -8.3879    0.0000 C   0  0  0  0  0  0  0  0  0  0  0  0
    7.6919    7.7128    0.0000 C   0  0  0  0  0  0  0  0  0  0  0  0
   10.6274    8.3314    0.0000 C   0  0  0  0  0  0  0  0  0  0  0  0
   10.9380    9.2819    0.0000 C   0  0  0  0  0  0  0  0  0  0  0  0
   11.0672   -2.5328    0.0000 H   0  0  0  0  0  0  0  0  0  0  0  0
   11.6228   -4.0662    0.0000 H   0  0  0  0  0  0  0  0  0  0  0  0
   12.3804   -4.3138    0.0000 H   0  0  0  0  0  0  0  0  0  0  0  0
   11.7714   -1.4241    0.0000 H   0  0  0  0  0  0  0  0  0  0  0  0
   11.1781   -1.9564    0.0000 H   0  0  0  0  0  0  0  0  0  0  0  0
   13.1482   -4.1520    0.0000 H   0  0  0  0  0  0  0  0  0  0  0  0
   13.7415   -3.6197    0.0000 H   0  0  0  0  0  0  0  0  0  0  0  0
   13.2968   -1.5099    0.0000 H   0  0  0  0  0  0  0  0  0  0  0  0
   12.5392   -1.2623    0.0000 H   0  0  0  0  0  0  0  0  0  0  0  0
    9.9764   -3.5281    0.0000 H   0  0  0  0  0  0  0  0  0  0  0  0
   10.7340   -3.7757    0.0000 H   0  0  0  0  0  0  0  0  0  0  0  0
   13.9852   -2.8738    0.0000 H   0  0  0  0  0  0  0  0  0  0  0  0
   13.8209   -2.0939    0.0000 H   0  0  0  0  0  0  0  0  0  0  0  0
    9.4209   -1.9947    0.0000 H   0  0  0  0  0  0  0  0  0  0  0  0
   10.7523   -1.3778    0.0000 H   0  0  0  0  0  0  0  0  0  0  0  0
    8.9598   -4.0744    0.0000 H   0  0  0  0  0  0  0  0  0  0  0  0
    9.9810    0.7785    0.0000 H   0  0  0  0  0  0  0  0  0  0  0  0
    7.9813   -4.2806    0.0000 H   0  0  0  0  0  0  0  0  0  0  0  0
   10.7875   -0.2243    0.0000 H   0  0  0  0  0  0  0  0  0  0  0  0
   11.3807    0.3080    0.0000 H   0  0  0  0  0  0  0  0  0  0  0  0
    8.5139    0.8056    0.0000 H   0  0  0  0  0  0  0  0  0  0  0  0
    6.3525   -2.7828    0.0000 H   0  0  0  0  0  0  0  0  0  0  0  0
    6.5169   -3.5627    0.0000 H   0  0  0  0  0  0  0  0  0  0  0  0
    9.3701    2.7561    0.0000 H   0  0  0  0  0  0  0  0  0  0  0  0
   11.0570    1.9656    0.0000 H   0  0  0  0  0  0  0  0  0  0  0  0
   10.4638    1.4332    0.0000 H   0  0  0  0  0  0  0  0  0  0  0  0
    8.0654    1.8692    0.0000 H   0  0  0  0  0  0  0  0  0  0  0  0
    8.6600    4.0403    0.0000 H   0  0  0  0  0  0  0  0  0  0  0  0
    5.8640   -4.5144    0.0000 H   0  0  0  0  0  0  0  0  0  0  0  0
    6.7960   -1.6628    0.0000 H   0  0  0  0  0  0  0  0  0  0  0  0
    5.9880   -6.5461    0.0000 H   0  0  0  0  0  0  0  0  0  0  0  0
    6.5812   -6.0138    0.0000 H   0  0  0  0  0  0  0  0  0  0  0  0
    9.7566    4.6077    0.0000 H   0  0  0  0  0  0  0  0  0  0  0  0
    5.9459    2.3708    0.0000 H   0  0  0  0  0  0  0  0  0  0  0  0
    7.8361    0.5831    0.0000 H   0  0  0  0  0  0  0  0  0  0  0  0
    8.0344    4.2447    0.0000 H   0  0  0  0  0  0  0  0  0  0  0  0
    5.9622    2.6716    0.0000 H   0  0  0  0  0  0  0  0  0  0  0  0
   11.3623    4.3221    0.0000 H   0  0  0  0  0  0  0  0  0  0  0  0
   11.9556    4.8544    0.0000 H   0  0  0  0  0  0  0  0  0  0  0  0
    4.9684   -5.5130    0.0000 H   0  0  0  0  0  0  0  0  0  0  0  0
    4.3751   -6.0453    0.0000 H   0  0  0  0  0  0  0  0  0  0  0  0
    9.0887    5.3520    0.0000 H   0  0  0  0  0  0  0  0  0  0  0  0
    4.8640    3.5766    0.0000 H   0  0  0  0  0  0  0  0  0  0  0  0
    6.6304   -0.4988    0.0000 H   0  0  0  0  0  0  0  0  0  0  0  0
    6.9525    5.4505    0.0000 H   0  0  0  0  0  0  0  0  0  0  0  0
    4.7564    1.5896    0.0000 H   0  0  0  0  0  0  0  0  0  0  0  0
   11.6318    6.5119    0.0000 H   0  0  0  0  0  0  0  0  0  0  0  0
   11.0386    5.9796    0.0000 H   0  0  0  0  0  0  0  0  0  0  0  0
   12.9734    2.6305    0.0000 H   0  0  0  0  0  0  0  0  0  0  0  0
    5.3673    5.1164    0.0000 H   0  0  0  0  0  0  0  0  0  0  0  0
    5.0906    0.0044    0.0000 H   0  0  0  0  0  0  0  0  0  0  0  0
    8.9241    7.6361    0.0000 H   0  0  0  0  0  0  0  0  0  0  0  0
    5.8819   -7.8879    0.0000 H   0  0  0  0  0  0  0  0  0  0  0  0
    4.8709   -9.2819    0.0000 H   0  0  0  0  0  0  0  0  0  0  0  0
    7.8333    6.6408    0.0000 H   0  0  0  0  0  0  0  0  0  0  0  0
    8.5910    6.3932    0.0000 H   0  0  0  0  0  0  0  0  0  0  0  0
    2.8660   -6.2679    0.0000 H   0  0  0  0  0  0  0  0  0  0  0  0
    9.2348    8.5866    0.0000 H   0  0  0  0  0  0  0  0  0  0  0  0
    2.8660   -9.5079    0.0000 H   0  0  0  0  0  0  0  0  0  0  0  0
    1.4631   -7.0779    0.0000 H   0  0  0  0  0  0  0  0  0  0  0  0
    1.4631   -8.6979    0.0000 H   0  0  0  0  0  0  0  0  0  0  0  0
   13.5482    7.1769    0.0000 H   0  0  0  0  0  0  0  0  0  0  0  0
   11.5274    9.0893    0.0000 H   0  0  0  0  0  0  0  0  0  0  0  0
   11.1306    9.8712    0.0000 H   0  0  0  0  0  0  0  0  0  0  0  0
   10.3487    9.4745    0.0000 H   0  0  0  0  0  0  0  0  0  0  0  0
    6.2993    7.9680    0.0000 H   0  0  0  0  0  0  0  0  0  0  0  0
  1 36  1  0  0  0  0
  1105  1  0  0  0  0
  2 31  2  0  0  0  0
  3 32  2  0  0  0  0
  4 39  2  0  0  0  0
  5 40  2  0  0  0  0
  6 44  1  0  0  0  0
  6124  1  0  0  0  0
  7 44  2  0  0  0  0
  8 45  2  0  0  0  0
  9 62  2  0  0  0  0
 10 67  1  0  0  0  0
 10137  1  0  0  0  0
 11 67  2  0  0  0  0
 12 73  1  0  0  0  0
 12141  1  0  0  0  0
 13 73  2  0  0  0  0
 14 74  2  0  0  0  0
 30 15  1  1  0  0  0
 15 32  1  0  0  0  0
 15 90  1  0  0  0  0
 16 31  1  0  0  0  0
 34 16  1  6  0  0  0
 16 91  1  0  0  0  0
 33 17  1  1  0  0  0
 17 39  1  0  0  0  0
 17 96  1  0  0  0  0
 37 18  1  6  0  0  0
 18 45  1  0  0  0  0
 18103  1  0  0  0  0
 19 40  1  0  0  0  0
 19 46  1  0  0  0  0
 19104  1  0  0  0  0
 47 20  1  1  0  0  0
 20 62  1  0  0  0  0
 20117  1  0  0  0  0
 21 65  1  0  0  0  0
 21 66  1  0  0  0  0
 21129  1  0  0  0  0
 64 22  1  6  0  0  0
 22 74  1  0  0  0  0
 22133  1  0  0  0  0
 23 24  1  0  0  0  0
 23 25  1  0  0  0  0
 23 28  1  0  0  0  0
 23 76  1  0  0  0  0
 24 26  1  0  0  0  0
 24 77  1  0  0  0  0
 24 78  1  0  0  0  0
 25 27  1  0  0  0  0
 25 79  1  0  0  0  0
 25 80  1  0  0  0  0
 26 29  1  0  0  0  0
 26 81  1  0  0  0  0
 26 82  1  0  0  0  0
 27 29  1  0  0  0  0
 27 83  1  0  0  0  0
 27 84  1  0  0  0  0
 28 30  1  0  0  0  0
 28 85  1  0  0  0  0
 28 86  1  0  0  0  0
 29 87  1  0  0  0  0
 29 88  1  0  0  0  0
 30 31  1  0  0  0  0
 30 89  1  0  0  0  0
 32 33  1  0  0  0  0
 33 35  1  0  0  0  0
 33 92  1  0  0  0  0
 34 36  1  0  0  0  0
 34 40  1  0  0  0  0
 34 93  1  0  0  0  0
 35 38  1  0  0  0  0
 35 94  1  0  0  0  0
 35 95  1  0  0  0  0
 36 97  1  0  0  0  0
 36 98  1  0  0  0  0
 37 39  1  0  0  0  0
 37 41  1  0  0  0  0
 37 99  1  0  0  0  0
 38 44  1  0  0  0  0
 38100  1  0  0  0  0
 38101  1  0  0  0  0
 41 42  1  0  0  0  0
 41 43  1  0  0  0  0
 41102  1  0  0  0  0
 42 48  2  0  0  0  0
 42 50  1  0  0  0  0
 43 49  2  0  0  0  0
 43 51  1  0  0  0  0
 45 47  1  0  0  0  0
 46 52  1  0  0  0  0
 46106  1  0  0  0  0
 46107  1  0  0  0  0
 47 53  1  0  0  0  0
 47108  1  0  0  0  0
 48 55  1  0  0  0  0
 48109  1  0  0  0  0
 49 56  1  0  0  0  0
 49110  1  0  0  0  0
 50 57  2  0  0  0  0
 50111  1  0  0  0  0
 51 58  2  0  0  0  0
 51112  1  0  0  0  0
 52 54  1  0  0  0  0
 52115  1  0  0  0  0
 52116  1  0  0  0  0
 53 59  1  0  0  0  0
 53113  1  0  0  0  0
 53114  1  0  0  0  0
 54 63  1  0  0  0  0
 54 65  2  0  0  0  0
 55 60  2  0  0  0  0
 55118  1  0  0  0  0
 56 61  2  0  0  0  0
 56119  1  0  0  0  0
 57 60  1  0  0  0  0
 57120  1  0  0  0  0
 58 61  1  0  0  0  0
 58121  1  0  0  0  0
 59 67  1  0  0  0  0
 59122  1  0  0  0  0
 59123  1  0  0  0  0
 60125  1  0  0  0  0
 61126  1  0  0  0  0
 62 64  1  0  0  0  0
 63 66  1  0  0  0  0
 63 69  2  0  0  0  0
 64 68  1  0  0  0  0
 64127  1  0  0  0  0
 65128  1  0  0  0  0
 66 70  2  0  0  0  0
 68 73  1  0  0  0  0
 68130  1  0  0  0  0
 68131  1  0  0  0  0
 69 71  1  0  0  0  0
 69132  1  0  0  0  0
 70 72  1  0  0  0  0
 70134  1  0  0  0  0
 71 72  2  0  0  0  0
 71135  1  0  0  0  0
 72136  1  0  0  0  0
 74 75  1  0  0  0  0
 75138  1  0  0  0  0
 75139  1  0  0  0  0
 75140  1  0  0  0  0
M  END
> <PUBCHEM_COMPOUND_CID>
507566
> <PUBCHEM_COMPOUND_CANONICALIZED>
1
> <PUBCHEM_CACTVS_COMPLEXITY>
1940
> <PUBCHEM_CACTVS_HBOND_ACCEPTOR>
14
> <PUBCHEM_CACTVS_HBOND_DONOR>
12
> <PUBCHEM_CACTVS_ROTATABLE_BOND>
29
> <PUBCHEM_CACTVS_SUBSKEYS>
AAADcfB//ABAAAAAAAAAAAAAAAAAAWAAAAAwYMGAAAAAAFgB9AAAHgQQCAAADSjF3gS+yPLJkgSoAzX3XACCgCAxAiAI2aG4ZJgIYPrAkbGUYAhmlgDIyAe/n8KOgAAAAAACAAAAAAAAAAQAAAAAAAAAAA==
> <PUBCHEM_IUPAC_OPENEYE_NAME>
(4S)-4-[[(2S)-2-acetamido-3-carboxy-propanoyl]amino]-5-[[(1S)-1-benzhydryl-2-[[(1S)-3-carboxy-1-[[(1S)-1-(cyclohexylmethyl)-2-[[(1R)-2-[2-(1H-indol-3-yl)ethylamino]-2-oxo-1-(sulfanylmethyl)ethyl]amino]-2-oxo-ethyl]carbamoyl]propyl]amino]-2-oxo-ethyl]amino]-5-oxo-pentanoic acid
> <PUBCHEM_IUPAC_CAS_NAME>
(4S)-4-[[(2S)-2-acetamido-3-carboxy-1-oxopropyl]amino]-5-[[(2S)-1-[[(2S)-4-carboxy-1-[[(2S)-3-cyclohexyl-1-[[(2R)-1-[2-(1H-indol-3-yl)ethylamino]-3-mercapto-1-oxopropan-2-yl]amino]-1-oxopropan-2-yl]amino]-1-oxobutan-2-yl]amino]-1-oxo-3,3-diphenylpropan-2-yl]amino]-5-oxopentanoic acid
> <PUBCHEM_IUPAC_NAME_MARKUP>
(4<I>S</I>)-4-[[(2<I>S</I>)-2-acetamido-3-carboxypropanoyl]amino]-5-[[(2<I>S</I>)-1-[[(2<I>S</I>)-4-carboxy-1-[[(2<I>S</I>)-3-cyclohexyl-1-[[(2<I>R</I>)-1-[2-(1<I>H</I>-indol-3-yl)ethylamino]-1-oxo-3-sulfanylpropan-2-yl]amino]-1-oxopropan-2-yl]amino]-1-oxobutan-2-yl]amino]-1-oxo-3,3-diphenylpropan-2-yl]amino]-5-oxopentanoic acid
> <PUBCHEM_IUPAC_NAME>
(4S)-4-[[(2S)-2-acetamido-3-carboxypropanoyl]amino]-5-[[(2S)-1-[[(2S)-4-carboxy-1-[[(2S)-3-cyclohexyl-1-[[(2R)-1-[2-(1H-indol-3-yl)ethylamino]-1-oxo-3-sulfanylpropan-2-yl]amino]-1-oxopropan-2-yl]amino]-1-oxobutan-2-yl]amino]-1-oxo-3,3-diphenylpropan-2-yl]amino]-5-oxopentanoic acid
> <PUBCHEM_IUPAC_SYSTEMATIC_NAME>
(4S)-4-[[(2S)-2-acetamido-4-oxidanyl-4-oxidanylidene-butanoyl]amino]-5-[[(2S)-1-[[(2S)-1-[[(2S)-3-cyclohexyl-1-[[(2R)-1-[2-(1H-indol-3-yl)ethylamino]-1-oxidanylidene-3-sulfanyl-propan-2-yl]amino]-1-oxidanylidene-propan-2-yl]amino]-5-oxidanyl-1,5-bis(oxidanylidene)pentan-2-yl]amino]-1-oxidanylidene-3,3-diphenyl-propan-2-yl]amino]-5-oxidanylidene-pentanoic acid
> <PUBCHEM_IUPAC_TRADITIONAL_NAME>
(4S)-4-[[(2S)-2-acetamido-3-carboxy-propanoyl]amino]-5-[[(1S)-1-benzhydryl-2-[[(1S)-3-carboxy-1-[[(1S)-1-(cyclohexylmethyl)-2-[[(1R)-2-[2-(1H-indol-3-yl)ethylamino]-2-keto-1-(mercaptomethyl)ethyl]amino]-2-keto-ethyl]carbamoyl]propyl]amino]-2-keto-ethyl]amino]-5-keto-valeric acid
> <PUBCHEM_IUPAC_INCHI>
InChI=1S/C53H66N8O13S/c1-31(62)56-41(28-45(67)68)52(73)57-39(22-24-44(65)66)50(71)61-47(46(33-15-7-3-8-16-33)34-17-9-4-10-18-34)53(74)58-38(21-23-43(63)64)49(70)59-40(27-32-13-5-2-6-14-32)51(72)60-42(30-75)48(69)54-26-25-35-29-55-37-20-12-11-19-36(35)37/h3-4,7-12,15-20,29,32,38-42,46-47,55,75H,2,5-6,13-14,21-28,30H2,1H3,(H,54,69)(H,56,62)(H,57,73)(H,58,74)(H,59,70)(H,60,72)(H,61,71)(H,63,64)(H,65,66)(H,67,68)/t38-,39-,40-,41-,42-,47-/m0/s1
> <PUBCHEM_IUPAC_INCHIKEY>
ORNSYFDAPWPDCA-PZAOAWJUSA-N
> <PUBCHEM_XLOGP3_AA>
3.9
> <PUBCHEM_EXACT_MASS>
1054.44700536
> <PUBCHEM_MOLECULAR_FORMULA>
C53H66N8O13S
> <PUBCHEM_MOLECULAR_WEIGHT>
1055.2
> <PUBCHEM_OPENEYE_CAN_SMILES>
CC(=O)NC(CC(=O)O)C(=O)NC(CCC(=O)O)C(=O)NC(C(C1=CC=CC=C1)C2=CC=CC=C2)C(=O)NC(CCC(=O)O)C(=O)NC(CC3CCCCC3)C(=O)NC(CS)C(=O)NCCC4=CNC5=CC=CC=C54
> <PUBCHEM_OPENEYE_ISO_SMILES>
CC(=O)N[C@@H](CC(=O)O)C(=O)N[C@@H](CCC(=O)O)C(=O)N[C@@H](C(C1=CC=CC=C1)C2=CC=CC=C2)C(=O)N[C@@H](CCC(=O)O)C(=O)N[C@@H](CC3CCCCC3)C(=O)N[C@@H](CS)C(=O)NCCC4=CNC5=CC=CC=C54
> <PUBCHEM_CACTVS_TPSA>
332
> <PUBCHEM_MONOISOTOPIC_WEIGHT>
1054.44700536
> <PUBCHEM_TOTAL_CHARGE>
0
> <PUBCHEM_HEAVY_ATOM_COUNT>
75
> <PUBCHEM_ATOM_DEF_STEREO_COUNT>
6
> <PUBCHEM_ATOM_UDEF_STEREO_COUNT>
0
> <PUBCHEM_BOND_DEF_STEREO_COUNT>
0
> <PUBCHEM_BOND_UDEF_STEREO_COUNT>
0
> <PUBCHEM_ISOTOPIC_ATOM_COUNT>
0
> <PUBCHEM_COMPONENT_COUNT>
1
> <PUBCHEM_CACTVS_TAUTO_COUNT>
-1
> <PUBCHEM_COORDINATE_TYPE>
1
5
255
> <PUBCHEM_BONDANNOTATIONS>
30  15  5
34  16  6
33  17  5
37  18  6
47  20  5
21  65  8
21  66  8
64  22  6
42  48  8
42  50  8
43  49  8
43  51  8
48  55  8
49  56  8
50  57  8
51  58  8
54  63  8
54  65  8
55  60  8
56  61  8
57  60  8
58  61  8
63  66  8
63  69  8
66  70  8
69  71  8
70  72  8
71  72  8
$$$$
