507592
  -OEChem-10302200282D
 81 82  0     1  0  0  0  0  0999 V2000
    5.4641    5.0600    0.0000 F   0  0  0  0  0  0  0  0  0  0  0  0
    3.7320    5.0600    0.0000 F   0  0  0  0  0  0  0  0  0  0  0  0
    5.4641   -0.9400    0.0000 F   0  0  0  0  0  0  0  0  0  0  0  0
    2.0000   -0.9400    0.0000 F   0  0  0  0  0  0  0  0  0  0  0  0
    8.4405    1.5060    0.0000 O   0  0  0  0  0  0  0  0  0  0  0  0
    7.1962    2.0600    0.0000 O   0  0  0  0  0  0  0  0  0  0  0  0
   11.5016   -0.3992    0.0000 O   0  0  0  0  0  0  0  0  0  0  0  0
    6.3301    1.5600    0.0000 O   0  0  0  0  0  0  0  0  0  0  0  0
   12.0368    1.2481    0.0000 O   0  0  0  0  0  0  0  0  0  0  0  0
    2.8660   -4.4400    0.0000 O   0  0  0  0  0  0  0  0  0  0  0  0
    4.5981   -4.4400    0.0000 O   0  0  0  0  0  0  0  0  0  0  0  0
    8.9757    3.1533    0.0000 N   0  0  0  0  0  0  0  0  0  0  0  0
    6.3301    3.5600    0.0000 N   0  0  0  0  0  0  0  0  0  0  0  0
   10.3426    0.8880    0.0000 N   0  0  0  0  0  0  0  0  0  0  0  0
    4.5981    1.5600    0.0000 N   0  0  0  0  0  0  0  0  0  0  0  0
    8.0622    3.5600    0.0000 C   0  0  1  0  0  0  0  0  0  0  0  0
    8.1667    4.5545    0.0000 C   0  0  0  0  0  0  0  0  0  0  0  0
    9.1448    4.7624    0.0000 C   0  0  0  0  0  0  0  0  0  0  0  0
    9.6448    3.8964    0.0000 C   0  0  0  0  0  0  0  0  0  0  0  0
    9.1836    2.1751    0.0000 C   0  0  0  0  0  0  0  0  0  0  0  0
   10.1347    1.8661    0.0000 C   0  0  2  0  0  0  0  0  0  0  0  0
    7.1962    3.0600    0.0000 C   0  0  0  0  0  0  0  0  0  0  0  0
   10.8778    2.5352    0.0000 C   0  0  0  0  0  0  0  0  0  0  0  0
    5.4641    3.0600    0.0000 C   0  0  1  0  0  0  0  0  0  0  0  0
   11.8289    2.2262    0.0000 C   0  0  0  0  0  0  0  0  0  0  0  0
   10.6699    3.5134    0.0000 C   0  0  0  0  0  0  0  0  0  0  0  0
    4.5981    3.5600    0.0000 C   0  0  0  0  0  0  0  0  0  0  0  0
    5.4641    2.0600    0.0000 C   0  0  0  0  0  0  0  0  0  0  0  0
   11.2937    0.5789    0.0000 C   0  0  0  0  0  0  0  0  0  0  0  0
    4.5981    4.5600    0.0000 C   0  0  0  0  0  0  0  0  0  0  0  0
    4.5981    0.5600    0.0000 C   0  0  0  0  0  0  0  0  0  0  0  0
   12.4526   -0.7082    0.0000 C   0  0  0  0  0  0  0  0  0  0  0  0
    3.7320    0.0600    0.0000 C   0  0  0  0  0  0  0  0  0  0  0  0
   12.6605   -1.6864    0.0000 C   0  0  0  0  0  0  0  0  0  0  0  0
    3.7320   -0.9400    0.0000 C   0  0  0  0  0  0  0  0  0  0  0  0
   13.6116   -1.9954    0.0000 C   0  0  0  0  0  0  0  0  0  0  0  0
   11.9174   -2.3555    0.0000 C   0  0  0  0  0  0  0  0  0  0  0  0
    4.5981   -1.4400    0.0000 C   0  0  0  0  0  0  0  0  0  0  0  0
    2.8660   -1.4400    0.0000 C   0  0  0  0  0  0  0  0  0  0  0  0
    4.5981   -2.4400    0.0000 C   0  0  0  0  0  0  0  0  0  0  0  0
    2.8660   -2.4400    0.0000 C   0  0  0  0  0  0  0  0  0  0  0  0
    3.7320   -2.9400    0.0000 C   0  0  0  0  0  0  0  0  0  0  0  0
    3.7320   -3.9400    0.0000 C   0  0  0  0  0  0  0  0  0  0  0  0
    8.0946    2.9409    0.0000 H   0  0  0  0  0  0  0  0  0  0  0  0
    8.1019    5.1711    0.0000 H   0  0  0  0  0  0  0  0  0  0  0  0
    7.5467    4.5545    0.0000 H   0  0  0  0  0  0  0  0  0  0  0  0
    9.7112    5.0146    0.0000 H   0  0  0  0  0  0  0  0  0  0  0  0
    8.9533    5.3521    0.0000 H   0  0  0  0  0  0  0  0  0  0  0  0
   10.0597    3.4357    0.0000 H   0  0  0  0  0  0  0  0  0  0  0  0
   10.1464    4.2608    0.0000 H   0  0  0  0  0  0  0  0  0  0  0  0
   10.7243    1.6745    0.0000 H   0  0  0  0  0  0  0  0  0  0  0  0
   10.2882    2.7268    0.0000 H   0  0  0  0  0  0  0  0  0  0  0  0
    6.3301    4.1800    0.0000 H   0  0  0  0  0  0  0  0  0  0  0  0
    5.4641    3.6800    0.0000 H   0  0  0  0  0  0  0  0  0  0  0  0
    9.8818    0.4731    0.0000 H   0  0  0  0  0  0  0  0  0  0  0  0
   11.6373    1.6366    0.0000 H   0  0  0  0  0  0  0  0  0  0  0  0
   12.4185    2.0346    0.0000 H   0  0  0  0  0  0  0  0  0  0  0  0
   12.0205    2.8159    0.0000 H   0  0  0  0  0  0  0  0  0  0  0  0
   11.2764    3.6423    0.0000 H   0  0  0  0  0  0  0  0  0  0  0  0
   10.5410    4.1198    0.0000 H   0  0  0  0  0  0  0  0  0  0  0  0
   10.0635    3.3845    0.0000 H   0  0  0  0  0  0  0  0  0  0  0  0
    3.9875    3.6677    0.0000 H   0  0  0  0  0  0  0  0  0  0  0  0
    4.3860    2.9774    0.0000 H   0  0  0  0  0  0  0  0  0  0  0  0
    4.5981    5.1800    0.0000 H   0  0  0  0  0  0  0  0  0  0  0  0
    4.0611    1.8700    0.0000 H   0  0  0  0  0  0  0  0  0  0  0  0
    4.8101   -0.0226    0.0000 H   0  0  0  0  0  0  0  0  0  0  0  0
    5.2087    0.6677    0.0000 H   0  0  0  0  0  0  0  0  0  0  0  0
   13.0723   -0.6866    0.0000 H   0  0  0  0  0  0  0  0  0  0  0  0
   12.5389   -0.0943    0.0000 H   0  0  0  0  0  0  0  0  0  0  0  0
    3.5200    0.6426    0.0000 H   0  0  0  0  0  0  0  0  0  0  0  0
    3.1215   -0.0477    0.0000 H   0  0  0  0  0  0  0  0  0  0  0  0
   12.7894   -2.2928    0.0000 H   0  0  0  0  0  0  0  0  0  0  0  0
   13.4200   -2.5850    0.0000 H   0  0  0  0  0  0  0  0  0  0  0  0
   14.2013   -2.1870    0.0000 H   0  0  0  0  0  0  0  0  0  0  0  0
   13.8032   -1.4057    0.0000 H   0  0  0  0  0  0  0  0  0  0  0  0
   11.5025   -1.8948    0.0000 H   0  0  0  0  0  0  0  0  0  0  0  0
   11.4566   -2.7704    0.0000 H   0  0  0  0  0  0  0  0  0  0  0  0
   12.3323   -2.8163    0.0000 H   0  0  0  0  0  0  0  0  0  0  0  0
    5.1350   -2.7500    0.0000 H   0  0  0  0  0  0  0  0  0  0  0  0
    2.3291   -2.7500    0.0000 H   0  0  0  0  0  0  0  0  0  0  0  0
    2.8660   -5.0600    0.0000 H   0  0  0  0  0  0  0  0  0  0  0  0
  1 30  1  0  0  0  0
  2 30  1  0  0  0  0
  3 38  1  0  0  0  0
  4 39  1  0  0  0  0
  5 20  2  0  0  0  0
  6 22  2  0  0  0  0
  7 29  1  0  0  0  0
  7 32  1  0  0  0  0
  8 28  2  0  0  0  0
  9 29  2  0  0  0  0
 10 43  1  0  0  0  0
 10 81  1  0  0  0  0
 11 43  2  0  0  0  0
 12 16  1  0  0  0  0
 12 19  1  0  0  0  0
 12 20  1  0  0  0  0
 13 22  1  0  0  0  0
 24 13  1  6  0  0  0
 13 53  1  0  0  0  0
 21 14  1  6  0  0  0
 14 29  1  0  0  0  0
 14 55  1  0  0  0  0
 15 28  1  0  0  0  0
 15 31  1  0  0  0  0
 15 65  1  0  0  0  0
 16 17  1  0  0  0  0
 16 22  1  6  0  0  0
 16 44  1  0  0  0  0
 17 18  1  0  0  0  0
 17 45  1  0  0  0  0
 17 46  1  0  0  0  0
 18 19  1  0  0  0  0
 18 47  1  0  0  0  0
 18 48  1  0  0  0  0
 19 49  1  0  0  0  0
 19 50  1  0  0  0  0
 20 21  1  0  0  0  0
 21 23  1  0  0  0  0
 21 51  1  0  0  0  0
 23 25  1  0  0  0  0
 23 26  1  0  0  0  0
 23 52  1  0  0  0  0
 24 27  1  0  0  0  0
 24 28  1  0  0  0  0
 24 54  1  0  0  0  0
 25 56  1  0  0  0  0
 25 57  1  0  0  0  0
 25 58  1  0  0  0  0
 26 59  1  0  0  0  0
 26 60  1  0  0  0  0
 26 61  1  0  0  0  0
 27 30  1  0  0  0  0
 27 62  1  0  0  0  0
 27 63  1  0  0  0  0
 30 64  1  0  0  0  0
 31 33  1  0  0  0  0
 31 66  1  0  0  0  0
 31 67  1  0  0  0  0
 32 34  1  0  0  0  0
 32 68  1  0  0  0  0
 32 69  1  0  0  0  0
 33 35  1  0  0  0  0
 33 70  1  0  0  0  0
 33 71  1  0  0  0  0
 34 36  1  0  0  0  0
 34 37  1  0  0  0  0
 34 72  1  0  0  0  0
 35 38  2  0  0  0  0
 35 39  1  0  0  0  0
 36 73  1  0  0  0  0
 36 74  1  0  0  0  0
 36 75  1  0  0  0  0
 37 76  1  0  0  0  0
 37 77  1  0  0  0  0
 37 78  1  0  0  0  0
 38 40  1  0  0  0  0
 39 41  2  0  0  0  0
 40 42  2  0  0  0  0
 40 79  1  0  0  0  0
 41 42  1  0  0  0  0
 41 80  1  0  0  0  0
 42 43  1  0  0  0  0
M  END
> <PUBCHEM_COMPOUND_CID>
507592
> <PUBCHEM_COMPOUND_CANONICALIZED>
1
> <PUBCHEM_CACTVS_COMPLEXITY>
975
> <PUBCHEM_CACTVS_HBOND_ACCEPTOR>
11
> <PUBCHEM_CACTVS_HBOND_DONOR>
4
> <PUBCHEM_CACTVS_ROTATABLE_BOND>
15
> <PUBCHEM_CACTVS_SUBSKEYS>
AAADcfB7ucAAAAAAAAAAAAAAAAAAAWAAAAAwAAAAAAAAAAABAAAAHwAQCAAADSjhmB4yCIPABgCIAiHSGAACAAAkAAAAiIGICMkIZjKAlTGccQAk1gGImYeYyfCOQAAAAAAAAACAAAAAAAAAAAAAAAAAAA==
> <PUBCHEM_IUPAC_OPENEYE_NAME>
4-[2-[[(2S)-4,4-difluoro-2-[[(2S)-1-[(2S)-2-(isobutoxycarbonylamino)-3-methyl-butanoyl]pyrrolidine-2-carbonyl]amino]butanoyl]amino]ethyl]-3,5-difluoro-benzoic acid
> <PUBCHEM_IUPAC_CAS_NAME>
4-[2-[[(2S)-4,4-difluoro-2-[[[(2S)-1-[(2S)-3-methyl-2-[[2-methylpropoxy(oxo)methyl]amino]-1-oxobutyl]-2-pyrrolidinyl]-oxomethyl]amino]-1-oxobutyl]amino]ethyl]-3,5-difluorobenzoic acid
> <PUBCHEM_IUPAC_NAME_MARKUP>
4-[2-[[(2<I>S</I>)-4,4-difluoro-2-[[(2<I>S</I>)-1-[(2<I>S</I>)-3-methyl-2-(2-methylpropoxycarbonylamino)butanoyl]pyrrolidine-2-carbonyl]amino]butanoyl]amino]ethyl]-3,5-difluorobenzoic acid
> <PUBCHEM_IUPAC_NAME>
4-[2-[[(2S)-4,4-difluoro-2-[[(2S)-1-[(2S)-3-methyl-2-(2-methylpropoxycarbonylamino)butanoyl]pyrrolidine-2-carbonyl]amino]butanoyl]amino]ethyl]-3,5-difluorobenzoic acid
> <PUBCHEM_IUPAC_SYSTEMATIC_NAME>
4-[2-[[(2S)-4,4-bis(fluoranyl)-2-[[(2S)-1-[(2S)-3-methyl-2-(2-methylpropoxycarbonylamino)butanoyl]pyrrolidin-2-yl]carbonylamino]butanoyl]amino]ethyl]-3,5-bis(fluoranyl)benzoic acid
> <PUBCHEM_IUPAC_TRADITIONAL_NAME>
4-[2-[[(2S)-4,4-difluoro-2-[[(2S)-1-[(2S)-2-(isobutoxycarbonylamino)-3-methyl-butanoyl]prolyl]amino]butanoyl]amino]ethyl]-3,5-difluoro-benzoic acid
> <PUBCHEM_IUPAC_INCHI>
InChI=1S/C28H38F4N4O7/c1-14(2)13-43-28(42)35-23(15(3)4)26(39)36-9-5-6-21(36)25(38)34-20(12-22(31)32)24(37)33-8-7-17-18(29)10-16(27(40)41)11-19(17)30/h10-11,14-15,20-23H,5-9,12-13H2,1-4H3,(H,33,37)(H,34,38)(H,35,42)(H,40,41)/t20-,21-,23-/m0/s1
> <PUBCHEM_IUPAC_INCHIKEY>
DXDJLQOEZPQUED-FUDKSRODSA-N
> <PUBCHEM_XLOGP3_AA>
4.3
> <PUBCHEM_EXACT_MASS>
618.26766221
> <PUBCHEM_MOLECULAR_FORMULA>
C28H38F4N4O7
> <PUBCHEM_MOLECULAR_WEIGHT>
618.6
> <PUBCHEM_OPENEYE_CAN_SMILES>
CC(C)COC(=O)NC(C(C)C)C(=O)N1CCCC1C(=O)NC(CC(F)F)C(=O)NCCC2=C(C=C(C=C2F)C(=O)O)F
> <PUBCHEM_OPENEYE_ISO_SMILES>
CC(C)COC(=O)N[C@@H](C(C)C)C(=O)N1CCC[C@H]1C(=O)N[C@@H](CC(F)F)C(=O)NCCC2=C(C=C(C=C2F)C(=O)O)F
> <PUBCHEM_CACTVS_TPSA>
154
> <PUBCHEM_MONOISOTOPIC_WEIGHT>
618.26766221
> <PUBCHEM_TOTAL_CHARGE>
0
> <PUBCHEM_HEAVY_ATOM_COUNT>
43
> <PUBCHEM_ATOM_DEF_STEREO_COUNT>
3
> <PUBCHEM_ATOM_UDEF_STEREO_COUNT>
0
> <PUBCHEM_BOND_DEF_STEREO_COUNT>
0
> <PUBCHEM_BOND_UDEF_STEREO_COUNT>
0
> <PUBCHEM_ISOTOPIC_ATOM_COUNT>
0
> <PUBCHEM_COMPONENT_COUNT>
1
> <PUBCHEM_CACTVS_TAUTO_COUNT>
-1
> <PUBCHEM_COORDINATE_TYPE>
1
5
255
> <PUBCHEM_BONDANNOTATIONS>
24  13  6
21  14  6
16  22  6
35  38  8
35  39  8
38  40  8
39  41  8
40  42  8
41  42  8
$$$$
