507510
  -OEChem-10302200282D
 85 87  0     1  0  0  0  0  0999 V2000
    3.0000   -4.9050    0.0000 Cl  0  0  0  0  0  0  0  0  0  0  0  0
    5.5981    0.5950    0.0000 S   0  0  0  0  0  0  0  0  0  0  0  0
    7.3301    5.5950    0.0000 O   0  0  0  0  0  0  0  0  0  0  0  0
    6.4641    2.0950    0.0000 O   0  0  0  0  0  0  0  0  0  0  0  0
    9.0622    6.5950    0.0000 O   0  0  0  0  0  0  0  0  0  0  0  0
    6.4641    1.0950    0.0000 O   0  0  0  0  0  0  0  0  0  0  0  0
    9.9282    5.0950    0.0000 O   0  0  0  0  0  0  0  0  0  0  0  0
    7.3301   -2.4050    0.0000 O   0  0  0  0  0  0  0  0  0  0  0  0
    6.4641    4.0950    0.0000 N   0  0  0  0  0  0  0  0  0  0  0  0
    8.1962    2.0950    0.0000 N   0  0  0  0  0  0  0  0  0  0  0  0
    7.3301   -0.4050    0.0000 N   0  0  0  0  0  0  0  0  0  0  0  0
    5.5981   -2.4050    0.0000 N   0  0  0  0  0  0  0  0  0  0  0  0
    4.5981    5.5950    0.0000 C   0  0  1  0  0  0  0  0  0  0  0  0
    5.5981    5.5950    0.0000 C   0  0  3  0  0  0  0  0  0  0  0  0
    5.0981    6.4610    0.0000 C   0  0  0  0  0  0  0  0  0  0  0  0
    3.7320    5.0950    0.0000 C   0  0  0  0  0  0  0  0  0  0  0  0
    6.4641    5.0950    0.0000 C   0  0  0  0  0  0  0  0  0  0  0  0
    3.7320    4.0950    0.0000 C   0  0  0  0  0  0  0  0  0  0  0  0
    2.8660    5.5950    0.0000 C   0  0  0  0  0  0  0  0  0  0  0  0
    7.3301    3.5950    0.0000 C   0  0  1  0  0  0  0  0  0  0  0  0
    2.8660    3.5950    0.0000 C   0  0  0  0  0  0  0  0  0  0  0  0
    2.0000    5.0950    0.0000 C   0  0  0  0  0  0  0  0  0  0  0  0
    8.1962    4.0950    0.0000 C   0  0  0  0  0  0  0  0  0  0  0  0
    2.0000    4.0950    0.0000 C   0  0  0  0  0  0  0  0  0  0  0  0
    7.3301    2.5950    0.0000 C   0  0  0  0  0  0  0  0  0  0  0  0
    8.1962    5.0950    0.0000 C   0  0  0  0  0  0  0  0  0  0  0  0
    8.1962    1.0950    0.0000 C   0  0  1  0  0  0  0  0  0  0  0  0
    9.0622    0.5950    0.0000 C   0  0  0  0  0  0  0  0  0  0  0  0
    9.9282    1.0950    0.0000 C   0  0  0  0  0  0  0  0  0  0  0  0
    7.3301    0.5950    0.0000 C   0  0  0  0  0  0  0  0  0  0  0  0
    9.0622    5.5950    0.0000 C   0  0  0  0  0  0  0  0  0  0  0  0
   10.7942    0.5950    0.0000 C   0  0  0  0  0  0  0  0  0  0  0  0
    9.9282    2.0950    0.0000 C   0  0  0  0  0  0  0  0  0  0  0  0
    6.4641   -0.9050    0.0000 C   0  0  1  0  0  0  0  0  0  0  0  0
    5.5981   -0.4050    0.0000 C   0  0  0  0  0  0  0  0  0  0  0  0
    6.4641   -1.9050    0.0000 C   0  0  0  0  0  0  0  0  0  0  0  0
    5.5981   -3.4050    0.0000 C   0  0  0  0  0  0  0  0  0  0  0  0
    4.7320   -3.9050    0.0000 C   0  0  0  0  0  0  0  0  0  0  0  0
    4.7320   -4.9050    0.0000 C   0  0  0  0  0  0  0  0  0  0  0  0
    3.8660   -5.4050    0.0000 C   0  0  0  0  0  0  0  0  0  0  0  0
    5.5981   -5.4050    0.0000 C   0  0  0  0  0  0  0  0  0  0  0  0
    3.8660   -6.4050    0.0000 C   0  0  0  0  0  0  0  0  0  0  0  0
    5.5981   -6.4050    0.0000 C   0  0  0  0  0  0  0  0  0  0  0  0
    4.7320   -6.9050    0.0000 C   0  0  0  0  0  0  0  0  0  0  0  0
    4.7585    4.9961    0.0000 H   0  0  0  0  0  0  0  0  0  0  0  0
    5.4376    4.9961    0.0000 H   0  0  0  0  0  0  0  0  0  0  0  0
    5.5730    6.8596    0.0000 H   0  0  0  0  0  0  0  0  0  0  0  0
    4.6231    6.8596    0.0000 H   0  0  0  0  0  0  0  0  0  0  0  0
    5.9272    3.7850    0.0000 H   0  0  0  0  0  0  0  0  0  0  0  0
    4.2690    3.7850    0.0000 H   0  0  0  0  0  0  0  0  0  0  0  0
    2.8660    6.2150    0.0000 H   0  0  0  0  0  0  0  0  0  0  0  0
    7.3301    4.2150    0.0000 H   0  0  0  0  0  0  0  0  0  0  0  0
    2.8660    2.9750    0.0000 H   0  0  0  0  0  0  0  0  0  0  0  0
    1.4631    5.4050    0.0000 H   0  0  0  0  0  0  0  0  0  0  0  0
    8.4082    3.5124    0.0000 H   0  0  0  0  0  0  0  0  0  0  0  0
    8.8067    4.2027    0.0000 H   0  0  0  0  0  0  0  0  0  0  0  0
    1.4631    3.7850    0.0000 H   0  0  0  0  0  0  0  0  0  0  0  0
    7.9841    5.6776    0.0000 H   0  0  0  0  0  0  0  0  0  0  0  0
    7.5856    4.9873    0.0000 H   0  0  0  0  0  0  0  0  0  0  0  0
    8.7331    2.4050    0.0000 H   0  0  0  0  0  0  0  0  0  0  0  0
    8.7331    1.4050    0.0000 H   0  0  0  0  0  0  0  0  0  0  0  0
    8.6636    0.1201    0.0000 H   0  0  0  0  0  0  0  0  0  0  0  0
    9.4607    0.1201    0.0000 H   0  0  0  0  0  0  0  0  0  0  0  0
   10.4651    1.4050    0.0000 H   0  0  0  0  0  0  0  0  0  0  0  0
   10.4842    0.0581    0.0000 H   0  0  0  0  0  0  0  0  0  0  0  0
   11.3312    0.2850    0.0000 H   0  0  0  0  0  0  0  0  0  0  0  0
   11.1042    1.1319    0.0000 H   0  0  0  0  0  0  0  0  0  0  0  0
   10.5482    2.0950    0.0000 H   0  0  0  0  0  0  0  0  0  0  0  0
    9.9282    2.7150    0.0000 H   0  0  0  0  0  0  0  0  0  0  0  0
    9.3082    2.0950    0.0000 H   0  0  0  0  0  0  0  0  0  0  0  0
    7.8671   -0.7150    0.0000 H   0  0  0  0  0  0  0  0  0  0  0  0
    6.4641   -0.2850    0.0000 H   0  0  0  0  0  0  0  0  0  0  0  0
    9.5991    6.9050    0.0000 H   0  0  0  0  0  0  0  0  0  0  0  0
    4.9875   -0.2973    0.0000 H   0  0  0  0  0  0  0  0  0  0  0  0
    5.3860   -0.9876    0.0000 H   0  0  0  0  0  0  0  0  0  0  0  0
    5.0611   -2.0950    0.0000 H   0  0  0  0  0  0  0  0  0  0  0  0
    5.8101   -3.9876    0.0000 H   0  0  0  0  0  0  0  0  0  0  0  0
    6.2087   -3.2973    0.0000 H   0  0  0  0  0  0  0  0  0  0  0  0
    4.5200   -3.3224    0.0000 H   0  0  0  0  0  0  0  0  0  0  0  0
    4.1215   -4.0127    0.0000 H   0  0  0  0  0  0  0  0  0  0  0  0
    5.0611    0.9050    0.0000 H   0  0  0  0  0  0  0  0  0  0  0  0
    6.1350   -5.0950    0.0000 H   0  0  0  0  0  0  0  0  0  0  0  0
    3.3291   -6.7150    0.0000 H   0  0  0  0  0  0  0  0  0  0  0  0
    6.1350   -6.7150    0.0000 H   0  0  0  0  0  0  0  0  0  0  0  0
    4.7320   -7.5250    0.0000 H   0  0  0  0  0  0  0  0  0  0  0  0
  1 40  1  0  0  0  0
  2 35  1  0  0  0  0
  2 81  1  0  0  0  0
  3 17  2  0  0  0  0
  4 25  2  0  0  0  0
  5 31  1  0  0  0  0
  5 73  1  0  0  0  0
  6 30  2  0  0  0  0
  7 31  2  0  0  0  0
  8 36  2  0  0  0  0
  9 17  1  0  0  0  0
 20  9  1  1  0  0  0
  9 49  1  0  0  0  0
 10 25  1  0  0  0  0
 27 10  1  1  0  0  0
 10 60  1  0  0  0  0
 11 30  1  0  0  0  0
 34 11  1  6  0  0  0
 11 71  1  0  0  0  0
 12 36  1  0  0  0  0
 12 37  1  0  0  0  0
 12 76  1  0  0  0  0
 13 14  1  0  0  0  0
 13 15  1  0  0  0  0
 13 16  1  6  0  0  0
 13 45  1  0  0  0  0
 14 15  1  0  0  0  0
 14 17  1  0  0  0  0
 14 46  1  0  0  0  0
 15 47  1  0  0  0  0
 15 48  1  0  0  0  0
 16 18  2  0  0  0  0
 16 19  1  0  0  0  0
 18 21  1  0  0  0  0
 18 50  1  0  0  0  0
 19 22  2  0  0  0  0
 19 51  1  0  0  0  0
 20 23  1  0  0  0  0
 20 25  1  0  0  0  0
 20 52  1  0  0  0  0
 21 24  2  0  0  0  0
 21 53  1  0  0  0  0
 22 24  1  0  0  0  0
 22 54  1  0  0  0  0
 23 26  1  0  0  0  0
 23 55  1  0  0  0  0
 23 56  1  0  0  0  0
 24 57  1  0  0  0  0
 26 31  1  0  0  0  0
 26 58  1  0  0  0  0
 26 59  1  0  0  0  0
 27 28  1  0  0  0  0
 27 30  1  0  0  0  0
 27 61  1  0  0  0  0
 28 29  1  0  0  0  0
 28 62  1  0  0  0  0
 28 63  1  0  0  0  0
 29 32  1  0  0  0  0
 29 33  1  0  0  0  0
 29 64  1  0  0  0  0
 32 65  1  0  0  0  0
 32 66  1  0  0  0  0
 32 67  1  0  0  0  0
 33 68  1  0  0  0  0
 33 69  1  0  0  0  0
 33 70  1  0  0  0  0
 34 35  1  0  0  0  0
 34 36  1  0  0  0  0
 34 72  1  0  0  0  0
 35 74  1  0  0  0  0
 35 75  1  0  0  0  0
 37 38  1  0  0  0  0
 37 77  1  0  0  0  0
 37 78  1  0  0  0  0
 38 39  1  0  0  0  0
 38 79  1  0  0  0  0
 38 80  1  0  0  0  0
 39 40  1  0  0  0  0
 39 41  2  0  0  0  0
 40 42  2  0  0  0  0
 41 43  1  0  0  0  0
 41 82  1  0  0  0  0
 42 44  1  0  0  0  0
 42 83  1  0  0  0  0
 43 44  2  0  0  0  0
 43 84  1  0  0  0  0
 44 85  1  0  0  0  0
M  END
> <PUBCHEM_COMPOUND_CID>
507510
> <PUBCHEM_COMPOUND_CANONICALIZED>
1
> <PUBCHEM_CACTVS_COMPLEXITY>
994
> <PUBCHEM_CACTVS_HBOND_ACCEPTOR>
7
> <PUBCHEM_CACTVS_HBOND_DONOR>
6
> <PUBCHEM_CACTVS_ROTATABLE_BOND>
17
> <PUBCHEM_CACTVS_SUBSKEYS>
AAADcfB/uABEAAAAAAAAAAAAGAAAAAAAAAAwYAAAAAAAAAABQAAAHgYQCAAADSrF2CSyCILAAgSIAiHSGAACAAAgBQAIiIGIAogIYDKBkzGUYAAklgCIiAe8n8KOgAAAAAABAAAAAAAAAAIAAAAAAAAAAA==
> <PUBCHEM_IUPAC_OPENEYE_NAME>
(4S)-5-[[(1S)-1-[[(1R)-2-[2-(2-chlorophenyl)ethylamino]-2-oxo-1-(sulfanylmethyl)ethyl]carbamoyl]-3-methyl-butyl]amino]-5-oxo-4-[[(2R)-2-phenylcyclopropanecarbonyl]amino]pentanoic acid
> <PUBCHEM_IUPAC_CAS_NAME>
(4S)-5-[[(2S)-1-[[(2R)-1-[2-(2-chlorophenyl)ethylamino]-3-mercapto-1-oxopropan-2-yl]amino]-4-methyl-1-oxopentan-2-yl]amino]-5-oxo-4-[[oxo-[(2R)-2-phenylcyclopropyl]methyl]amino]pentanoic acid
> <PUBCHEM_IUPAC_NAME_MARKUP>
(4<I>S</I>)-5-[[(2<I>S</I>)-1-[[(2<I>R</I>)-1-[2-(2-chlorophenyl)ethylamino]-1-oxo-3-sulfanylpropan-2-yl]amino]-4-methyl-1-oxopentan-2-yl]amino]-5-oxo-4-[[(2<I>R</I>)-2-phenylcyclopropanecarbonyl]amino]pentanoic acid
> <PUBCHEM_IUPAC_NAME>
(4S)-5-[[(2S)-1-[[(2R)-1-[2-(2-chlorophenyl)ethylamino]-1-oxo-3-sulfanylpropan-2-yl]amino]-4-methyl-1-oxopentan-2-yl]amino]-5-oxo-4-[[(2R)-2-phenylcyclopropanecarbonyl]amino]pentanoic acid
> <PUBCHEM_IUPAC_SYSTEMATIC_NAME>
(4S)-5-[[(2S)-1-[[(2R)-1-[2-(2-chlorophenyl)ethylamino]-1-oxidanylidene-3-sulfanyl-propan-2-yl]amino]-4-methyl-1-oxidanylidene-pentan-2-yl]amino]-5-oxidanylidene-4-[[(2R)-2-phenylcyclopropyl]carbonylamino]pentanoic acid
> <PUBCHEM_IUPAC_TRADITIONAL_NAME>
(4S)-5-[[(1S)-1-[[(1R)-2-[2-(2-chlorophenyl)ethylamino]-2-keto-1-(mercaptomethyl)ethyl]carbamoyl]-3-methyl-butyl]amino]-5-keto-4-[[(2R)-2-phenylcyclopropanecarbonyl]amino]valeric acid
> <PUBCHEM_IUPAC_INCHI>
InChI=1S/C32H41ClN4O6S/c1-19(2)16-26(32(43)37-27(18-44)30(41)34-15-14-21-10-6-7-11-24(21)33)36-31(42)25(12-13-28(38)39)35-29(40)23-17-22(23)20-8-4-3-5-9-20/h3-11,19,22-23,25-27,44H,12-18H2,1-2H3,(H,34,41)(H,35,40)(H,36,42)(H,37,43)(H,38,39)/t22-,23?,25-,26-,27-/m0/s1
> <PUBCHEM_IUPAC_INCHIKEY>
RRESFTONIFGFPL-BOWAHEBCSA-N
> <PUBCHEM_XLOGP3_AA>
3.9
> <PUBCHEM_EXACT_MASS>
644.2435339
> <PUBCHEM_MOLECULAR_FORMULA>
C32H41ClN4O6S
> <PUBCHEM_MOLECULAR_WEIGHT>
645.2
> <PUBCHEM_OPENEYE_CAN_SMILES>
CC(C)CC(C(=O)NC(CS)C(=O)NCCC1=CC=CC=C1Cl)NC(=O)C(CCC(=O)O)NC(=O)C2CC2C3=CC=CC=C3
> <PUBCHEM_OPENEYE_ISO_SMILES>
CC(C)C[C@@H](C(=O)N[C@@H](CS)C(=O)NCCC1=CC=CC=C1Cl)NC(=O)[C@H](CCC(=O)O)NC(=O)C2C[C@H]2C3=CC=CC=C3
> <PUBCHEM_CACTVS_TPSA>
155
> <PUBCHEM_MONOISOTOPIC_WEIGHT>
644.2435339
> <PUBCHEM_TOTAL_CHARGE>
0
> <PUBCHEM_HEAVY_ATOM_COUNT>
44
> <PUBCHEM_ATOM_DEF_STEREO_COUNT>
4
> <PUBCHEM_ATOM_UDEF_STEREO_COUNT>
1
> <PUBCHEM_BOND_DEF_STEREO_COUNT>
0
> <PUBCHEM_BOND_UDEF_STEREO_COUNT>
0
> <PUBCHEM_ISOTOPIC_ATOM_COUNT>
0
> <PUBCHEM_COMPONENT_COUNT>
1
> <PUBCHEM_CACTVS_TAUTO_COUNT>
-1
> <PUBCHEM_COORDINATE_TYPE>
1
5
255
> <PUBCHEM_BONDANNOTATIONS>
27  10  5
34  11  6
13  16  6
14  17  3
16  18  8
16  19  8
18  21  8
19  22  8
21  24  8
22  24  8
39  40  8
39  41  8
40  42  8
41  43  8
42  44  8
43  44  8
20  9  5
$$$$
