507547
  -OEChem-10302200282D
 76 76  0     1  0  0  0  0  0999 V2000
    4.5981    5.8450    0.0000 S   0  0  0  0  0  0  0  0  0  0  0  0
    3.7320    1.3450    0.0000 S   0  0  0  0  0  0  0  0  0  0  0  0
    4.5981    1.8450    0.0000 O   0  0  0  0  0  0  0  0  0  0  0  0
    4.5981    2.8450    0.0000 O   0  0  0  0  0  0  0  0  0  0  0  0
    3.5981    5.8450    0.0000 O   0  0  0  0  0  0  0  0  0  0  0  0
    5.5981    5.8450    0.0000 O   0  0  0  0  0  0  0  0  0  0  0  0
    5.4641   -1.6550    0.0000 O   0  0  0  0  0  0  0  0  0  0  0  0
    7.1962    7.3450    0.0000 O   0  0  0  0  0  0  0  0  0  0  0  0
    8.0622    5.8450    0.0000 O   0  0  0  0  0  0  0  0  0  0  0  0
    2.8660   -7.1550    0.0000 O   0  0  0  0  0  0  0  0  0  0  0  0
    6.3301    2.8450    0.0000 N   0  0  0  0  0  0  0  0  0  0  0  0
    5.4641    0.3450    0.0000 N   0  0  0  0  0  0  0  0  0  0  0  0
    4.5981    4.8450    0.0000 N   0  0  0  0  0  0  0  0  0  0  0  0
    3.7320   -1.6550    0.0000 N   0  0  0  0  0  0  0  0  0  0  0  0
    6.3301    1.8450    0.0000 C   0  0  1  0  0  0  0  0  0  0  0  0
    7.1962    1.3450    0.0000 C   0  0  0  0  0  0  0  0  0  0  0  0
    8.0622    1.8450    0.0000 C   0  0  0  0  0  0  0  0  0  0  0  0
    5.4641    4.3450    0.0000 C   0  0  2  0  0  0  0  0  0  0  0  0
    5.4641    1.3450    0.0000 C   0  0  0  0  0  0  0  0  0  0  0  0
    5.4641    3.3450    0.0000 C   0  0  0  0  0  0  0  0  0  0  0  0
    8.9282    1.3450    0.0000 C   0  0  0  0  0  0  0  0  0  0  0  0
    8.0622    2.8450    0.0000 C   0  0  0  0  0  0  0  0  0  0  0  0
    6.3301    4.8450    0.0000 C   0  0  0  0  0  0  0  0  0  0  0  0
    4.5981   -0.1550    0.0000 C   0  0  1  0  0  0  0  0  0  0  0  0
    6.3301    5.8450    0.0000 C   0  0  0  0  0  0  0  0  0  0  0  0
    3.7320    0.3450    0.0000 C   0  0  0  0  0  0  0  0  0  0  0  0
    4.5981   -1.1550    0.0000 C   0  0  0  0  0  0  0  0  0  0  0  0
    4.5981    6.8450    0.0000 C   0  0  0  0  0  0  0  0  0  0  0  0
    3.7320   -2.6550    0.0000 C   0  0  0  0  0  0  0  0  0  0  0  0
    7.1962    6.3450    0.0000 C   0  0  0  0  0  0  0  0  0  0  0  0
    2.8660   -3.1550    0.0000 C   0  0  0  0  0  0  0  0  0  0  0  0
    2.8660   -4.1550    0.0000 C   0  0  0  0  0  0  0  0  0  0  0  0
    3.7320   -4.6550    0.0000 C   0  0  0  0  0  0  0  0  0  0  0  0
    2.0000   -4.6550    0.0000 C   0  0  0  0  0  0  0  0  0  0  0  0
    3.7320   -5.6550    0.0000 C   0  0  0  0  0  0  0  0  0  0  0  0
    2.0000   -5.6550    0.0000 C   0  0  0  0  0  0  0  0  0  0  0  0
    2.8660   -6.1550    0.0000 C   0  0  0  0  0  0  0  0  0  0  0  0
    2.0000   -7.6550    0.0000 C   0  0  0  0  0  0  0  0  0  0  0  0
    6.8671    2.1550    0.0000 H   0  0  0  0  0  0  0  0  0  0  0  0
    6.7976    0.8701    0.0000 H   0  0  0  0  0  0  0  0  0  0  0  0
    7.5947    0.8701    0.0000 H   0  0  0  0  0  0  0  0  0  0  0  0
    8.0622    1.2250    0.0000 H   0  0  0  0  0  0  0  0  0  0  0  0
    5.4641    4.9650    0.0000 H   0  0  0  0  0  0  0  0  0  0  0  0
    6.8671    3.1550    0.0000 H   0  0  0  0  0  0  0  0  0  0  0  0
    8.6182    0.8081    0.0000 H   0  0  0  0  0  0  0  0  0  0  0  0
    9.4651    1.0350    0.0000 H   0  0  0  0  0  0  0  0  0  0  0  0
    9.2382    1.8819    0.0000 H   0  0  0  0  0  0  0  0  0  0  0  0
    8.6822    2.8450    0.0000 H   0  0  0  0  0  0  0  0  0  0  0  0
    8.0622    3.4650    0.0000 H   0  0  0  0  0  0  0  0  0  0  0  0
    7.4422    2.8450    0.0000 H   0  0  0  0  0  0  0  0  0  0  0  0
    6.5422    4.2624    0.0000 H   0  0  0  0  0  0  0  0  0  0  0  0
    6.9407    4.9527    0.0000 H   0  0  0  0  0  0  0  0  0  0  0  0
    6.0010    0.0350    0.0000 H   0  0  0  0  0  0  0  0  0  0  0  0
    4.5981    0.4650    0.0000 H   0  0  0  0  0  0  0  0  0  0  0  0
    4.0611    4.5350    0.0000 H   0  0  0  0  0  0  0  0  0  0  0  0
    6.1181    6.4276    0.0000 H   0  0  0  0  0  0  0  0  0  0  0  0
    5.7196    5.7373    0.0000 H   0  0  0  0  0  0  0  0  0  0  0  0
    3.1215    0.4527    0.0000 H   0  0  0  0  0  0  0  0  0  0  0  0
    3.5200   -0.2376    0.0000 H   0  0  0  0  0  0  0  0  0  0  0  0
    3.1951   -1.3450    0.0000 H   0  0  0  0  0  0  0  0  0  0  0  0
    5.2181    6.8450    0.0000 H   0  0  0  0  0  0  0  0  0  0  0  0
    4.5981    7.4650    0.0000 H   0  0  0  0  0  0  0  0  0  0  0  0
    3.9781    6.8450    0.0000 H   0  0  0  0  0  0  0  0  0  0  0  0
    3.9441   -3.2376    0.0000 H   0  0  0  0  0  0  0  0  0  0  0  0
    4.3426   -2.5473    0.0000 H   0  0  0  0  0  0  0  0  0  0  0  0
    2.6540   -2.5724    0.0000 H   0  0  0  0  0  0  0  0  0  0  0  0
    2.2554   -3.2627    0.0000 H   0  0  0  0  0  0  0  0  0  0  0  0
    3.1951    1.6550    0.0000 H   0  0  0  0  0  0  0  0  0  0  0  0
    4.2690   -4.3450    0.0000 H   0  0  0  0  0  0  0  0  0  0  0  0
    1.4631   -4.3450    0.0000 H   0  0  0  0  0  0  0  0  0  0  0  0
    7.7331    7.6550    0.0000 H   0  0  0  0  0  0  0  0  0  0  0  0
    4.2690   -5.9650    0.0000 H   0  0  0  0  0  0  0  0  0  0  0  0
    1.4631   -5.9650    0.0000 H   0  0  0  0  0  0  0  0  0  0  0  0
    1.6900   -7.1181    0.0000 H   0  0  0  0  0  0  0  0  0  0  0  0
    1.4631   -7.9650    0.0000 H   0  0  0  0  0  0  0  0  0  0  0  0
    2.3100   -8.1919    0.0000 H   0  0  0  0  0  0  0  0  0  0  0  0
  1  5  2  0  0  0  0
  1  6  2  0  0  0  0
  1 13  1  0  0  0  0
  1 28  1  0  0  0  0
  2 26  1  0  0  0  0
  2 68  1  0  0  0  0
  3 19  2  0  0  0  0
  4 20  2  0  0  0  0
  7 27  2  0  0  0  0
  8 30  1  0  0  0  0
  8 71  1  0  0  0  0
  9 30  2  0  0  0  0
 10 37  1  0  0  0  0
 10 38  1  0  0  0  0
 15 11  1  1  0  0  0
 11 20  1  0  0  0  0
 11 44  1  0  0  0  0
 12 19  1  0  0  0  0
 24 12  1  6  0  0  0
 12 53  1  0  0  0  0
 18 13  1  1  0  0  0
 13 55  1  0  0  0  0
 14 27  1  0  0  0  0
 14 29  1  0  0  0  0
 14 60  1  0  0  0  0
 15 16  1  0  0  0  0
 15 19  1  0  0  0  0
 15 39  1  0  0  0  0
 16 17  1  0  0  0  0
 16 40  1  0  0  0  0
 16 41  1  0  0  0  0
 17 21  1  0  0  0  0
 17 22  1  0  0  0  0
 17 42  1  0  0  0  0
 18 20  1  0  0  0  0
 18 23  1  0  0  0  0
 18 43  1  0  0  0  0
 21 45  1  0  0  0  0
 21 46  1  0  0  0  0
 21 47  1  0  0  0  0
 22 48  1  0  0  0  0
 22 49  1  0  0  0  0
 22 50  1  0  0  0  0
 23 25  1  0  0  0  0
 23 51  1  0  0  0  0
 23 52  1  0  0  0  0
 24 26  1  0  0  0  0
 24 27  1  0  0  0  0
 24 54  1  0  0  0  0
 25 30  1  0  0  0  0
 25 56  1  0  0  0  0
 25 57  1  0  0  0  0
 26 58  1  0  0  0  0
 26 59  1  0  0  0  0
 28 61  1  0  0  0  0
 28 62  1  0  0  0  0
 28 63  1  0  0  0  0
 29 31  1  0  0  0  0
 29 64  1  0  0  0  0
 29 65  1  0  0  0  0
 31 32  1  0  0  0  0
 31 66  1  0  0  0  0
 31 67  1  0  0  0  0
 32 33  2  0  0  0  0
 32 34  1  0  0  0  0
 33 35  1  0  0  0  0
 33 69  1  0  0  0  0
 34 36  2  0  0  0  0
 34 70  1  0  0  0  0
 35 37  2  0  0  0  0
 35 72  1  0  0  0  0
 36 37  1  0  0  0  0
 36 73  1  0  0  0  0
 38 74  1  0  0  0  0
 38 75  1  0  0  0  0
 38 76  1  0  0  0  0
M  END
> <PUBCHEM_COMPOUND_CID>
507547
> <PUBCHEM_COMPOUND_CANONICALIZED>
1
> <PUBCHEM_CACTVS_COMPLEXITY>
886
> <PUBCHEM_CACTVS_HBOND_ACCEPTOR>
10
> <PUBCHEM_CACTVS_HBOND_DONOR>
6
> <PUBCHEM_CACTVS_ROTATABLE_BOND>
17
> <PUBCHEM_CACTVS_SUBSKEYS>
AAADcfB7vABgAAAAAAAAAAAAAAAAAAAAAAAwAAAAAAAAAAABAAAAHgQQSAAADSzF2AayDoLABgaIAiHSGHACCAAgIAAIiIGOCIgMZjKEsTuUcCAk1hGIqAe814IOIAAAAAAAAABAAAAAAAAAAAAAAAAAAA==
> <PUBCHEM_IUPAC_OPENEYE_NAME>
(4S)-4-(methanesulfonamido)-5-[[(1S)-1-[[(1R)-2-[2-(4-methoxyphenyl)ethylamino]-2-oxo-1-(sulfanylmethyl)ethyl]carbamoyl]-3-methyl-butyl]amino]-5-oxo-pentanoic acid
> <PUBCHEM_IUPAC_CAS_NAME>
(4S)-5-[[(2S)-1-[[(2R)-3-mercapto-1-[2-(4-methoxyphenyl)ethylamino]-1-oxopropan-2-yl]amino]-4-methyl-1-oxopentan-2-yl]amino]-4-(methanesulfonamido)-5-oxopentanoic acid
> <PUBCHEM_IUPAC_NAME_MARKUP>
(4<I>S</I>)-4-(methanesulfonamido)-5-[[(2<I>S</I>)-1-[[(2<I>R</I>)-1-[2-(4-methoxyphenyl)ethylamino]-1-oxo-3-sulfanylpropan-2-yl]amino]-4-methyl-1-oxopentan-2-yl]amino]-5-oxopentanoic acid
> <PUBCHEM_IUPAC_NAME>
(4S)-4-(methanesulfonamido)-5-[[(2S)-1-[[(2R)-1-[2-(4-methoxyphenyl)ethylamino]-1-oxo-3-sulfanylpropan-2-yl]amino]-4-methyl-1-oxopentan-2-yl]amino]-5-oxopentanoic acid
> <PUBCHEM_IUPAC_SYSTEMATIC_NAME>
(4S)-5-[[(2S)-1-[[(2R)-1-[2-(4-methoxyphenyl)ethylamino]-1-oxidanylidene-3-sulfanyl-propan-2-yl]amino]-4-methyl-1-oxidanylidene-pentan-2-yl]amino]-4-(methylsulfonylamino)-5-oxidanylidene-pentanoic acid
> <PUBCHEM_IUPAC_TRADITIONAL_NAME>
(4S)-5-keto-5-[[(1S)-1-[[(1R)-2-keto-1-(mercaptomethyl)-2-[2-(4-methoxyphenyl)ethylamino]ethyl]carbamoyl]-3-methyl-butyl]amino]-4-(methanesulfonamido)valeric acid
> <PUBCHEM_IUPAC_INCHI>
InChI=1S/C24H38N4O8S2/c1-15(2)13-19(26-23(32)18(9-10-21(29)30)28-38(4,34)35)24(33)27-20(14-37)22(31)25-12-11-16-5-7-17(36-3)8-6-16/h5-8,15,18-20,28,37H,9-14H2,1-4H3,(H,25,31)(H,26,32)(H,27,33)(H,29,30)/t18-,19-,20-/m0/s1
> <PUBCHEM_IUPAC_INCHIKEY>
SMUQXPWZDOARCP-UFYCRDLUSA-N
> <PUBCHEM_XLOGP3_AA>
1.2
> <PUBCHEM_EXACT_MASS>
574.21310653
> <PUBCHEM_MOLECULAR_FORMULA>
C24H38N4O8S2
> <PUBCHEM_MOLECULAR_WEIGHT>
574.7
> <PUBCHEM_OPENEYE_CAN_SMILES>
CC(C)CC(C(=O)NC(CS)C(=O)NCCC1=CC=C(C=C1)OC)NC(=O)C(CCC(=O)O)NS(=O)(=O)C
> <PUBCHEM_OPENEYE_ISO_SMILES>
CC(C)C[C@@H](C(=O)N[C@@H](CS)C(=O)NCCC1=CC=C(C=C1)OC)NC(=O)[C@H](CCC(=O)O)NS(=O)(=O)C
> <PUBCHEM_CACTVS_TPSA>
189
> <PUBCHEM_MONOISOTOPIC_WEIGHT>
574.21310653
> <PUBCHEM_TOTAL_CHARGE>
0
> <PUBCHEM_HEAVY_ATOM_COUNT>
38
> <PUBCHEM_ATOM_DEF_STEREO_COUNT>
3
> <PUBCHEM_ATOM_UDEF_STEREO_COUNT>
0
> <PUBCHEM_BOND_DEF_STEREO_COUNT>
0
> <PUBCHEM_BOND_UDEF_STEREO_COUNT>
0
> <PUBCHEM_ISOTOPIC_ATOM_COUNT>
0
> <PUBCHEM_COMPONENT_COUNT>
1
> <PUBCHEM_CACTVS_TAUTO_COUNT>
-1
> <PUBCHEM_COORDINATE_TYPE>
1
5
255
> <PUBCHEM_BONDANNOTATIONS>
15  11  5
24  12  6
18  13  5
32  33  8
32  34  8
33  35  8
34  36  8
35  37  8
36  37  8
$$$$
