507571
  -OEChem-10302200282D
 78 78  0     1  0  0  0  0  0999 V2000
    7.1962   -1.0600    0.0000 S   0  0  0  0  0  0  0  0  0  0  0  0
    2.3660   -0.6940    0.0000 F   0  0  0  0  0  0  0  0  0  0  0  0
    2.0000   -2.0600    0.0000 F   0  0  0  0  0  0  0  0  0  0  0  0
    3.3660   -2.4260    0.0000 F   0  0  0  0  0  0  0  0  0  0  0  0
    6.3301   -2.5600    0.0000 O   0  0  0  0  0  0  0  0  0  0  0  0
    6.3301   -1.5600    0.0000 O   0  0  0  0  0  0  0  0  0  0  0  0
    7.1962   -6.0600    0.0000 O   0  0  0  0  0  0  0  0  0  0  0  0
    5.4641    1.9400    0.0000 O   0  0  0  0  0  0  0  0  0  0  0  0
    3.7320   -7.0600    0.0000 O   0  0  0  0  0  0  0  0  0  0  0  0
    5.4641   -6.0600    0.0000 O   0  0  0  0  0  0  0  0  0  0  0  0
    2.8660   -5.5600    0.0000 O   0  0  0  0  0  0  0  0  0  0  0  0
    8.9282    7.9400    0.0000 O   0  0  0  0  0  0  0  0  0  0  0  0
    7.1962    7.9400    0.0000 O   0  0  0  0  0  0  0  0  0  0  0  0
    4.5981   -2.5600    0.0000 N   0  0  0  0  0  0  0  0  0  0  0  0
    5.4641   -0.0600    0.0000 N   0  0  0  0  0  0  0  0  0  0  0  0
    6.3301   -4.5600    0.0000 N   0  0  0  0  0  0  0  0  0  0  0  0
    7.1962    1.9400    0.0000 N   0  0  0  0  0  0  0  0  0  0  0  0
    4.5981   -1.5600    0.0000 C   0  0  1  0  0  0  0  0  0  0  0  0
    5.4641   -4.0600    0.0000 C   0  0  1  0  0  0  0  0  0  0  0  0
    3.7320   -1.0600    0.0000 C   0  0  0  0  0  0  0  0  0  0  0  0
    4.5981   -4.5600    0.0000 C   0  0  0  0  0  0  0  0  0  0  0  0
    5.4641   -3.0600    0.0000 C   0  0  0  0  0  0  0  0  0  0  0  0
    5.4641   -1.0600    0.0000 C   0  0  0  0  0  0  0  0  0  0  0  0
    6.3301    0.4400    0.0000 C   0  0  1  0  0  0  0  0  0  0  0  0
    4.5981   -5.5600    0.0000 C   0  0  0  0  0  0  0  0  0  0  0  0
    2.8660   -1.5600    0.0000 C   0  0  0  0  0  0  0  0  0  0  0  0
    7.1962   -0.0600    0.0000 C   0  0  0  0  0  0  0  0  0  0  0  0
    6.3301    1.4400    0.0000 C   0  0  0  0  0  0  0  0  0  0  0  0
    7.1962    2.9400    0.0000 C   0  0  0  0  0  0  0  0  0  0  0  0
    6.3301   -5.5600    0.0000 C   0  0  0  0  0  0  0  0  0  0  0  0
    8.0622   -7.5600    0.0000 C   0  0  0  0  0  0  0  0  0  0  0  0
    8.0622    3.4400    0.0000 C   0  0  0  0  0  0  0  0  0  0  0  0
    7.1962   -7.0600    0.0000 C   0  0  0  0  0  0  0  0  0  0  0  0
    3.7320   -6.0600    0.0000 C   0  0  0  0  0  0  0  0  0  0  0  0
    8.0622    4.4400    0.0000 C   0  0  0  0  0  0  0  0  0  0  0  0
    8.0622   -8.5600    0.0000 C   0  0  0  0  0  0  0  0  0  0  0  0
    8.9282   -7.0600    0.0000 C   0  0  0  0  0  0  0  0  0  0  0  0
    8.9282    4.9400    0.0000 C   0  0  0  0  0  0  0  0  0  0  0  0
    7.1962    4.9400    0.0000 C   0  0  0  0  0  0  0  0  0  0  0  0
    8.9282    5.9400    0.0000 C   0  0  0  0  0  0  0  0  0  0  0  0
    7.1962    5.9400    0.0000 C   0  0  0  0  0  0  0  0  0  0  0  0
    8.0622    6.4400    0.0000 C   0  0  0  0  0  0  0  0  0  0  0  0
    8.0622    7.4400    0.0000 C   0  0  0  0  0  0  0  0  0  0  0  0
    5.1350   -1.8700    0.0000 H   0  0  0  0  0  0  0  0  0  0  0  0
    5.4641   -4.6800    0.0000 H   0  0  0  0  0  0  0  0  0  0  0  0
    4.1306   -0.5851    0.0000 H   0  0  0  0  0  0  0  0  0  0  0  0
    3.3335   -0.5851    0.0000 H   0  0  0  0  0  0  0  0  0  0  0  0
    4.3860   -3.9774    0.0000 H   0  0  0  0  0  0  0  0  0  0  0  0
    3.9875   -4.6677    0.0000 H   0  0  0  0  0  0  0  0  0  0  0  0
    4.0611   -2.8700    0.0000 H   0  0  0  0  0  0  0  0  0  0  0  0
    5.7932    0.7500    0.0000 H   0  0  0  0  0  0  0  0  0  0  0  0
    4.9272    0.2500    0.0000 H   0  0  0  0  0  0  0  0  0  0  0  0
    4.8101   -6.1426    0.0000 H   0  0  0  0  0  0  0  0  0  0  0  0
    5.2087   -5.4523    0.0000 H   0  0  0  0  0  0  0  0  0  0  0  0
    6.8671   -4.2500    0.0000 H   0  0  0  0  0  0  0  0  0  0  0  0
    7.8067   -0.1677    0.0000 H   0  0  0  0  0  0  0  0  0  0  0  0
    7.4082    0.5226    0.0000 H   0  0  0  0  0  0  0  0  0  0  0  0
    6.9841    3.5226    0.0000 H   0  0  0  0  0  0  0  0  0  0  0  0
    6.5856    2.8323    0.0000 H   0  0  0  0  0  0  0  0  0  0  0  0
    7.7331    1.6300    0.0000 H   0  0  0  0  0  0  0  0  0  0  0  0
    8.0622   -6.9400    0.0000 H   0  0  0  0  0  0  0  0  0  0  0  0
    8.2742    2.8574    0.0000 H   0  0  0  0  0  0  0  0  0  0  0  0
    8.6728    3.5477    0.0000 H   0  0  0  0  0  0  0  0  0  0  0  0
    6.5856   -6.9523    0.0000 H   0  0  0  0  0  0  0  0  0  0  0  0
    6.9841   -7.6426    0.0000 H   0  0  0  0  0  0  0  0  0  0  0  0
    7.4422   -8.5600    0.0000 H   0  0  0  0  0  0  0  0  0  0  0  0
    8.0622   -9.1800    0.0000 H   0  0  0  0  0  0  0  0  0  0  0  0
    8.6822   -8.5600    0.0000 H   0  0  0  0  0  0  0  0  0  0  0  0
    9.2382   -7.5969    0.0000 H   0  0  0  0  0  0  0  0  0  0  0  0
    9.4651   -6.7500    0.0000 H   0  0  0  0  0  0  0  0  0  0  0  0
    8.6182   -6.5231    0.0000 H   0  0  0  0  0  0  0  0  0  0  0  0
    7.7331   -1.3700    0.0000 H   0  0  0  0  0  0  0  0  0  0  0  0
    9.4651    4.6300    0.0000 H   0  0  0  0  0  0  0  0  0  0  0  0
    6.6592    4.6300    0.0000 H   0  0  0  0  0  0  0  0  0  0  0  0
    9.4651    6.2500    0.0000 H   0  0  0  0  0  0  0  0  0  0  0  0
    6.6592    6.2500    0.0000 H   0  0  0  0  0  0  0  0  0  0  0  0
    3.1951   -7.3700    0.0000 H   0  0  0  0  0  0  0  0  0  0  0  0
    8.9282    8.5600    0.0000 H   0  0  0  0  0  0  0  0  0  0  0  0
  1 27  1  0  0  0  0
  1 72  1  0  0  0  0
  2 26  1  0  0  0  0
  3 26  1  0  0  0  0
  4 26  1  0  0  0  0
  5 22  2  0  0  0  0
  6 23  2  0  0  0  0
  7 30  1  0  0  0  0
  7 33  1  0  0  0  0
  8 28  2  0  0  0  0
  9 34  1  0  0  0  0
  9 77  1  0  0  0  0
 10 30  2  0  0  0  0
 11 34  2  0  0  0  0
 12 43  1  0  0  0  0
 12 78  1  0  0  0  0
 13 43  2  0  0  0  0
 18 14  1  1  0  0  0
 14 22  1  0  0  0  0
 14 50  1  0  0  0  0
 15 23  1  0  0  0  0
 24 15  1  6  0  0  0
 15 52  1  0  0  0  0
 19 16  1  1  0  0  0
 16 30  1  0  0  0  0
 16 55  1  0  0  0  0
 17 28  1  0  0  0  0
 17 29  1  0  0  0  0
 17 60  1  0  0  0  0
 18 20  1  0  0  0  0
 18 23  1  0  0  0  0
 18 44  1  0  0  0  0
 19 21  1  0  0  0  0
 19 22  1  0  0  0  0
 19 45  1  0  0  0  0
 20 26  1  0  0  0  0
 20 46  1  0  0  0  0
 20 47  1  0  0  0  0
 21 25  1  0  0  0  0
 21 48  1  0  0  0  0
 21 49  1  0  0  0  0
 24 27  1  0  0  0  0
 24 28  1  0  0  0  0
 24 51  1  0  0  0  0
 25 34  1  0  0  0  0
 25 53  1  0  0  0  0
 25 54  1  0  0  0  0
 27 56  1  0  0  0  0
 27 57  1  0  0  0  0
 29 32  1  0  0  0  0
 29 58  1  0  0  0  0
 29 59  1  0  0  0  0
 31 33  1  0  0  0  0
 31 36  1  0  0  0  0
 31 37  1  0  0  0  0
 31 61  1  0  0  0  0
 32 35  1  0  0  0  0
 32 62  1  0  0  0  0
 32 63  1  0  0  0  0
 33 64  1  0  0  0  0
 33 65  1  0  0  0  0
 35 38  2  0  0  0  0
 35 39  1  0  0  0  0
 36 66  1  0  0  0  0
 36 67  1  0  0  0  0
 36 68  1  0  0  0  0
 37 69  1  0  0  0  0
 37 70  1  0  0  0  0
 37 71  1  0  0  0  0
 38 40  1  0  0  0  0
 38 73  1  0  0  0  0
 39 41  2  0  0  0  0
 39 74  1  0  0  0  0
 40 42  2  0  0  0  0
 40 75  1  0  0  0  0
 41 42  1  0  0  0  0
 41 76  1  0  0  0  0
 42 43  1  0  0  0  0
M  END
> <PUBCHEM_COMPOUND_CID>
507571
> <PUBCHEM_COMPOUND_CANONICALIZED>
1
> <PUBCHEM_CACTVS_COMPLEXITY>
976
> <PUBCHEM_CACTVS_HBOND_ACCEPTOR>
13
> <PUBCHEM_CACTVS_HBOND_DONOR>
7
> <PUBCHEM_CACTVS_ROTATABLE_BOND>
18
> <PUBCHEM_CACTVS_SUBSKEYS>
AAADcfB7vYBAAAAAAAAAAAAAAAAAAAAAAAAwAAAAAAAAAAABAAAAHwQQCAAADSjl2BayCILABgSIAiHSGAACAAAkAAAIiIGICMkIZjKAlTGccQAk1gGImYe83/KOQAAAAAAAAACAAAAAAAAAAAAAAAAAAA==
> <PUBCHEM_IUPAC_OPENEYE_NAME>
4-[2-[[(2R)-2-[[(2S)-2-[[(2S)-4-carboxy-2-(isobutoxycarbonylamino)butanoyl]amino]-4,4,4-trifluoro-butanoyl]amino]-3-sulfanyl-propanoyl]amino]ethyl]benzoic acid
> <PUBCHEM_IUPAC_CAS_NAME>
4-[2-[[(2R)-2-[[(2S)-2-[[(2S)-4-carboxy-2-[[2-methylpropoxy(oxo)methyl]amino]-1-oxobutyl]amino]-4,4,4-trifluoro-1-oxobutyl]amino]-3-mercapto-1-oxopropyl]amino]ethyl]benzoic acid
> <PUBCHEM_IUPAC_NAME_MARKUP>
4-[2-[[(2<I>R</I>)-2-[[(2<I>S</I>)-2-[[(2<I>S</I>)-4-carboxy-2-(2-methylpropoxycarbonylamino)butanoyl]amino]-4,4,4-trifluorobutanoyl]amino]-3-sulfanylpropanoyl]amino]ethyl]benzoic acid
> <PUBCHEM_IUPAC_NAME>
4-[2-[[(2R)-2-[[(2S)-2-[[(2S)-4-carboxy-2-(2-methylpropoxycarbonylamino)butanoyl]amino]-4,4,4-trifluorobutanoyl]amino]-3-sulfanylpropanoyl]amino]ethyl]benzoic acid
> <PUBCHEM_IUPAC_SYSTEMATIC_NAME>
4-[2-[[(2R)-3-sulfanyl-2-[[(2S)-4,4,4-tris(fluoranyl)-2-[[(2S)-2-(2-methylpropoxycarbonylamino)-5-oxidanyl-5-oxidanylidene-pentanoyl]amino]butanoyl]amino]propanoyl]amino]ethyl]benzoic acid
> <PUBCHEM_IUPAC_TRADITIONAL_NAME>
4-[2-[[(2R)-2-[[(2S)-2-[[(2S)-4-carboxy-2-(isobutoxycarbonylamino)butanoyl]amino]-4,4,4-trifluoro-butanoyl]amino]-3-mercapto-propanoyl]amino]ethyl]benzoic acid
> <PUBCHEM_IUPAC_INCHI>
InChI=1S/C26H35F3N4O9S/c1-14(2)12-42-25(41)33-17(7-8-20(34)35)22(37)31-18(11-26(27,28)29)23(38)32-19(13-43)21(36)30-10-9-15-3-5-16(6-4-15)24(39)40/h3-6,14,17-19,43H,7-13H2,1-2H3,(H,30,36)(H,31,37)(H,32,38)(H,33,41)(H,34,35)(H,39,40)/t17-,18-,19-/m0/s1
> <PUBCHEM_IUPAC_INCHIKEY>
KAVWVSKLIGFBJM-FHWLQOOXSA-N
> <PUBCHEM_XLOGP3_AA>
2.5
> <PUBCHEM_EXACT_MASS>
636.20768437
> <PUBCHEM_MOLECULAR_FORMULA>
C26H35F3N4O9S
> <PUBCHEM_MOLECULAR_WEIGHT>
636.6
> <PUBCHEM_OPENEYE_CAN_SMILES>
CC(C)COC(=O)NC(CCC(=O)O)C(=O)NC(CC(F)(F)F)C(=O)NC(CS)C(=O)NCCC1=CC=C(C=C1)C(=O)O
> <PUBCHEM_OPENEYE_ISO_SMILES>
CC(C)COC(=O)N[C@@H](CCC(=O)O)C(=O)N[C@@H](CC(F)(F)F)C(=O)N[C@@H](CS)C(=O)NCCC1=CC=C(C=C1)C(=O)O
> <PUBCHEM_CACTVS_TPSA>
201
> <PUBCHEM_MONOISOTOPIC_WEIGHT>
636.20768437
> <PUBCHEM_TOTAL_CHARGE>
0
> <PUBCHEM_HEAVY_ATOM_COUNT>
43
> <PUBCHEM_ATOM_DEF_STEREO_COUNT>
3
> <PUBCHEM_ATOM_UDEF_STEREO_COUNT>
0
> <PUBCHEM_BOND_DEF_STEREO_COUNT>
0
> <PUBCHEM_BOND_UDEF_STEREO_COUNT>
0
> <PUBCHEM_ISOTOPIC_ATOM_COUNT>
0
> <PUBCHEM_COMPONENT_COUNT>
1
> <PUBCHEM_CACTVS_TAUTO_COUNT>
-1
> <PUBCHEM_COORDINATE_TYPE>
1
5
255
> <PUBCHEM_BONDANNOTATIONS>
18  14  5
24  15  6
19  16  5
35  38  8
35  39  8
38  40  8
39  41  8
40  42  8
41  42  8
$$$$
