507568
  -OEChem-10302200282D
142145  0     1  0  0  0  0  0999 V2000
    5.1350    3.6900    0.0000 F   0  0  0  0  0  0  0  0  0  0  0  0
    4.2690    2.1900    0.0000 F   0  0  0  0  0  0  0  0  0  0  0  0
    6.8671    0.6900    0.0000 O   0  0  0  0  0  0  0  0  0  0  0  0
    6.8671   -0.3100    0.0000 O   0  0  0  0  0  0  0  0  0  0  0  0
    6.0010    4.1900    0.0000 O   0  0  0  0  0  0  0  0  0  0  0  0
    7.7331   -3.8100    0.0000 O   0  0  0  0  0  0  0  0  0  0  0  0
    9.4651   -4.8100    0.0000 O   0  0  0  0  0  0  0  0  0  0  0  0
   10.3312   -3.3100    0.0000 O   0  0  0  0  0  0  0  0  0  0  0  0
    7.7331   -4.8100    0.0000 O   0  0  0  0  0  0  0  0  0  0  0  0
    6.8671   -8.3100    0.0000 O   0  0  0  0  0  0  0  0  0  0  0  0
    8.5991   -9.3100    0.0000 O   0  0  0  0  0  0  0  0  0  0  0  0
    9.4651   -7.8100    0.0000 O   0  0  0  0  0  0  0  0  0  0  0  0
    2.5369   -7.8100    0.0000 O   0  0  0  0  0  0  0  0  0  0  0  0
    3.4030   -9.3100    0.0000 O   0  0  0  0  0  0  0  0  0  0  0  0
    6.8671   -9.3100    0.0000 O   0  0  0  0  0  0  0  0  0  0  0  0
    9.4651   10.1900    0.0000 O   0  0  0  0  0  0  0  0  0  0  0  0
    7.7331   10.1900    0.0000 O   0  0  0  0  0  0  0  0  0  0  0  0
    8.5991   -0.3100    0.0000 N   0  0  0  0  0  0  0  0  0  0  0  0
    7.7331    2.1900    0.0000 N   0  0  0  0  0  0  0  0  0  0  0  0
    6.8671   -2.3100    0.0000 N   0  0  0  0  0  0  0  0  0  0  0  0
    7.7331    4.1900    0.0000 N   0  0  0  0  0  0  0  0  0  0  0  0
    6.0010   -4.8100    0.0000 N   0  0  0  0  0  0  0  0  0  0  0  0
    6.0010   -6.8100    0.0000 N   0  0  0  0  0  0  0  0  0  0  0  0
    5.1350   -9.3100    0.0000 N   0  0  0  0  0  0  0  0  0  0  0  0
   10.3312    0.6900    0.0000 C   0  0  0  0  0  0  0  0  0  0  0  0
   11.1972    1.1900    0.0000 C   0  0  0  0  0  0  0  0  0  0  0  0
   10.3312   -0.3100    0.0000 C   0  0  0  0  0  0  0  0  0  0  0  0
    9.4651    1.1900    0.0000 C   0  0  0  0  0  0  0  0  0  0  0  0
   12.0632    0.6900    0.0000 C   0  0  0  0  0  0  0  0  0  0  0  0
   11.1972   -0.8100    0.0000 C   0  0  0  0  0  0  0  0  0  0  0  0
   12.0632   -0.3100    0.0000 C   0  0  0  0  0  0  0  0  0  0  0  0
    8.5991    0.6900    0.0000 C   0  0  1  0  0  0  0  0  0  0  0  0
    7.7331    1.1900    0.0000 C   0  0  0  0  0  0  0  0  0  0  0  0
    7.7331   -0.8100    0.0000 C   0  0  0  0  0  0  0  0  0  0  0  0
    7.7331   -1.8100    0.0000 C   0  0  2  0  0  0  0  0  0  0  0  0
    6.8671    2.6900    0.0000 C   0  0  1  0  0  0  0  0  0  0  0  0
    8.5991   -2.3100    0.0000 C   0  0  0  0  0  0  0  0  0  0  0  0
    6.0010    2.1900    0.0000 C   0  0  0  0  0  0  0  0  0  0  0  0
    6.8671    3.6900    0.0000 C   0  0  0  0  0  0  0  0  0  0  0  0
    6.0010   -3.8100    0.0000 C   0  0  2  0  0  0  0  0  0  0  0  0
    8.5991   -3.3100    0.0000 C   0  0  0  0  0  0  0  0  0  0  0  0
    6.8671   -3.3100    0.0000 C   0  0  0  0  0  0  0  0  0  0  0  0
    5.1350   -3.3100    0.0000 C   0  0  0  0  0  0  0  0  0  0  0  0
    5.1350    2.6900    0.0000 C   0  0  0  0  0  0  0  0  0  0  0  0
    4.2690   -3.8100    0.0000 C   0  0  0  0  0  0  0  0  0  0  0  0
    4.6350   -2.4440    0.0000 C   0  0  0  0  0  0  0  0  0  0  0  0
    9.4651   -3.8100    0.0000 C   0  0  0  0  0  0  0  0  0  0  0  0
    7.7331    5.1900    0.0000 C   0  0  0  0  0  0  0  0  0  0  0  0
    6.8671   -5.3100    0.0000 C   0  0  0  0  0  0  0  0  0  0  0  0
    6.8671   -6.3100    0.0000 C   0  0  2  0  0  0  0  0  0  0  0  0
    4.2690   -4.8100    0.0000 C   0  0  0  0  0  0  0  0  0  0  0  0
    3.6350   -2.4440    0.0000 C   0  0  0  0  0  0  0  0  0  0  0  0
    3.4030   -3.3100    0.0000 C   0  0  0  0  0  0  0  0  0  0  0  0
    5.1350   -1.5780    0.0000 C   0  0  0  0  0  0  0  0  0  0  0  0
    7.7331   -6.8100    0.0000 C   0  0  0  0  0  0  0  0  0  0  0  0
    8.5991    5.6900    0.0000 C   0  0  0  0  0  0  0  0  0  0  0  0
    3.4030   -5.3100    0.0000 C   0  0  0  0  0  0  0  0  0  0  0  0
    3.1350   -1.5780    0.0000 C   0  0  0  0  0  0  0  0  0  0  0  0
    2.5369   -3.8100    0.0000 C   0  0  0  0  0  0  0  0  0  0  0  0
    4.6350   -0.7119    0.0000 C   0  0  0  0  0  0  0  0  0  0  0  0
    7.7331   -7.8100    0.0000 C   0  0  0  0  0  0  0  0  0  0  0  0
    8.5991    6.6900    0.0000 C   0  0  0  0  0  0  0  0  0  0  0  0
    2.5369   -4.8100    0.0000 C   0  0  0  0  0  0  0  0  0  0  0  0
    3.6350   -0.7119    0.0000 C   0  0  0  0  0  0  0  0  0  0  0  0
    6.0010   -7.8100    0.0000 C   0  0  0  0  0  0  0  0  0  0  0  0
    5.1350   -8.3100    0.0000 C   0  0  2  0  0  0  0  0  0  0  0  0
    8.5991   -8.3100    0.0000 C   0  0  0  0  0  0  0  0  0  0  0  0
    9.4651    7.1900    0.0000 C   0  0  0  0  0  0  0  0  0  0  0  0
    7.7331    7.1900    0.0000 C   0  0  0  0  0  0  0  0  0  0  0  0
    4.2690   -7.8100    0.0000 C   0  0  0  0  0  0  0  0  0  0  0  0
    9.4651    8.1900    0.0000 C   0  0  0  0  0  0  0  0  0  0  0  0
    7.7331    8.1900    0.0000 C   0  0  0  0  0  0  0  0  0  0  0  0
    8.5991    8.6900    0.0000 C   0  0  0  0  0  0  0  0  0  0  0  0
    3.4030   -8.3100    0.0000 C   0  0  0  0  0  0  0  0  0  0  0  0
    6.0010   -9.8100    0.0000 C   0  0  0  0  0  0  0  0  0  0  0  0
    8.5991    9.6900    0.0000 C   0  0  0  0  0  0  0  0  0  0  0  0
    6.0010  -10.8100    0.0000 C   0  0  0  0  0  0  0  0  0  0  0  0
    9.7942    0.3800    0.0000 H   0  0  0  0  0  0  0  0  0  0  0  0
   11.5957    1.6650    0.0000 H   0  0  0  0  0  0  0  0  0  0  0  0
   10.7987    1.6650    0.0000 H   0  0  0  0  0  0  0  0  0  0  0  0
    9.7206   -0.2023    0.0000 H   0  0  0  0  0  0  0  0  0  0  0  0
   10.1191   -0.8926    0.0000 H   0  0  0  0  0  0  0  0  0  0  0  0
    9.8637    1.6650    0.0000 H   0  0  0  0  0  0  0  0  0  0  0  0
    9.0666    1.6650    0.0000 H   0  0  0  0  0  0  0  0  0  0  0  0
   12.6738    0.5823    0.0000 H   0  0  0  0  0  0  0  0  0  0  0  0
   12.2753    1.2726    0.0000 H   0  0  0  0  0  0  0  0  0  0  0  0
   10.7987   -1.2850    0.0000 H   0  0  0  0  0  0  0  0  0  0  0  0
   11.5957   -1.2850    0.0000 H   0  0  0  0  0  0  0  0  0  0  0  0
   12.2753   -0.8926    0.0000 H   0  0  0  0  0  0  0  0  0  0  0  0
   12.6738   -0.2023    0.0000 H   0  0  0  0  0  0  0  0  0  0  0  0
    8.0622    0.3800    0.0000 H   0  0  0  0  0  0  0  0  0  0  0  0
    9.1360   -0.6200    0.0000 H   0  0  0  0  0  0  0  0  0  0  0  0
    8.2700    2.5000    0.0000 H   0  0  0  0  0  0  0  0  0  0  0  0
    7.7331   -2.4300    0.0000 H   0  0  0  0  0  0  0  0  0  0  0  0
    7.4040    3.0000    0.0000 H   0  0  0  0  0  0  0  0  0  0  0  0
    9.2097   -2.4177    0.0000 H   0  0  0  0  0  0  0  0  0  0  0  0
    8.8112   -1.7274    0.0000 H   0  0  0  0  0  0  0  0  0  0  0  0
    6.3301   -2.0000    0.0000 H   0  0  0  0  0  0  0  0  0  0  0  0
    5.6025    1.7150    0.0000 H   0  0  0  0  0  0  0  0  0  0  0  0
    6.3996    1.7150    0.0000 H   0  0  0  0  0  0  0  0  0  0  0  0
    6.5380   -4.1200    0.0000 H   0  0  0  0  0  0  0  0  0  0  0  0
    7.9885   -3.2023    0.0000 H   0  0  0  0  0  0  0  0  0  0  0  0
    8.3871   -3.8926    0.0000 H   0  0  0  0  0  0  0  0  0  0  0  0
    5.5734   -2.8716    0.0000 H   0  0  0  0  0  0  0  0  0  0  0  0
    5.1350    2.0700    0.0000 H   0  0  0  0  0  0  0  0  0  0  0  0
    5.4641   -5.1200    0.0000 H   0  0  0  0  0  0  0  0  0  0  0  0
    8.2700    3.8800    0.0000 H   0  0  0  0  0  0  0  0  0  0  0  0
    7.5210    5.7726    0.0000 H   0  0  0  0  0  0  0  0  0  0  0  0
    7.1225    5.0823    0.0000 H   0  0  0  0  0  0  0  0  0  0  0  0
    6.3301   -6.0000    0.0000 H   0  0  0  0  0  0  0  0  0  0  0  0
    4.8059   -5.1200    0.0000 H   0  0  0  0  0  0  0  0  0  0  0  0
    3.3250   -2.9809    0.0000 H   0  0  0  0  0  0  0  0  0  0  0  0
    3.4030   -2.6900    0.0000 H   0  0  0  0  0  0  0  0  0  0  0  0
    5.7550   -1.5780    0.0000 H   0  0  0  0  0  0  0  0  0  0  0  0
    8.3437   -6.9177    0.0000 H   0  0  0  0  0  0  0  0  0  0  0  0
    7.9451   -6.2274    0.0000 H   0  0  0  0  0  0  0  0  0  0  0  0
    8.8112    5.1074    0.0000 H   0  0  0  0  0  0  0  0  0  0  0  0
    9.2097    5.7977    0.0000 H   0  0  0  0  0  0  0  0  0  0  0  0
    5.4641   -6.5000    0.0000 H   0  0  0  0  0  0  0  0  0  0  0  0
    3.4030   -5.9300    0.0000 H   0  0  0  0  0  0  0  0  0  0  0  0
    2.5150   -1.5780    0.0000 H   0  0  0  0  0  0  0  0  0  0  0  0
    2.0000   -3.5000    0.0000 H   0  0  0  0  0  0  0  0  0  0  0  0
    4.9450   -0.1750    0.0000 H   0  0  0  0  0  0  0  0  0  0  0  0
    7.1225   -7.7023    0.0000 H   0  0  0  0  0  0  0  0  0  0  0  0
    7.5210   -8.3926    0.0000 H   0  0  0  0  0  0  0  0  0  0  0  0
   10.0021   -5.1200    0.0000 H   0  0  0  0  0  0  0  0  0  0  0  0
    2.0000   -5.1200    0.0000 H   0  0  0  0  0  0  0  0  0  0  0  0
    3.3250   -0.1750    0.0000 H   0  0  0  0  0  0  0  0  0  0  0  0
    5.6720   -8.6200    0.0000 H   0  0  0  0  0  0  0  0  0  0  0  0
   10.0021    6.8800    0.0000 H   0  0  0  0  0  0  0  0  0  0  0  0
    7.1962    6.8800    0.0000 H   0  0  0  0  0  0  0  0  0  0  0  0
    4.6675   -7.3350    0.0000 H   0  0  0  0  0  0  0  0  0  0  0  0
    3.8705   -7.3350    0.0000 H   0  0  0  0  0  0  0  0  0  0  0  0
    4.5981   -9.6200    0.0000 H   0  0  0  0  0  0  0  0  0  0  0  0
   10.0021    8.5000    0.0000 H   0  0  0  0  0  0  0  0  0  0  0  0
    7.1962    8.5000    0.0000 H   0  0  0  0  0  0  0  0  0  0  0  0
    9.1360   -9.6200    0.0000 H   0  0  0  0  0  0  0  0  0  0  0  0
    5.3810  -10.8100    0.0000 H   0  0  0  0  0  0  0  0  0  0  0  0
    6.0010  -11.4300    0.0000 H   0  0  0  0  0  0  0  0  0  0  0  0
    6.6210  -10.8100    0.0000 H   0  0  0  0  0  0  0  0  0  0  0  0
    2.0000   -8.1200    0.0000 H   0  0  0  0  0  0  0  0  0  0  0  0
    9.4651   10.8100    0.0000 H   0  0  0  0  0  0  0  0  0  0  0  0
  1 44  1  0  0  0  0
  2 44  1  0  0  0  0
  3 33  2  0  0  0  0
  4 34  2  0  0  0  0
  5 39  2  0  0  0  0
  6 42  2  0  0  0  0
  7 47  1  0  0  0  0
  7126  1  0  0  0  0
  8 47  2  0  0  0  0
  9 49  2  0  0  0  0
 10 65  2  0  0  0  0
 11 67  1  0  0  0  0
 11137  1  0  0  0  0
 12 67  2  0  0  0  0
 13 74  1  0  0  0  0
 13141  1  0  0  0  0
 14 74  2  0  0  0  0
 15 75  2  0  0  0  0
 16 76  1  0  0  0  0
 16142  1  0  0  0  0
 17 76  2  0  0  0  0
 32 18  1  6  0  0  0
 18 34  1  0  0  0  0
 18 92  1  0  0  0  0
 19 33  1  0  0  0  0
 36 19  1  1  0  0  0
 19 93  1  0  0  0  0
 35 20  1  6  0  0  0
 20 42  1  0  0  0  0
 20 98  1  0  0  0  0
 21 39  1  0  0  0  0
 21 48  1  0  0  0  0
 21107  1  0  0  0  0
 40 22  1  1  0  0  0
 22 49  1  0  0  0  0
 22106  1  0  0  0  0
 50 23  1  6  0  0  0
 23 65  1  0  0  0  0
 23119  1  0  0  0  0
 66 24  1  1  0  0  0
 24 75  1  0  0  0  0
 24134  1  0  0  0  0
 25 26  1  0  0  0  0
 25 27  1  0  0  0  0
 25 28  1  0  0  0  0
 25 78  1  0  0  0  0
 26 29  1  0  0  0  0
 26 79  1  0  0  0  0
 26 80  1  0  0  0  0
 27 30  1  0  0  0  0
 27 81  1  0  0  0  0
 27 82  1  0  0  0  0
 28 32  1  0  0  0  0
 28 83  1  0  0  0  0
 28 84  1  0  0  0  0
 29 31  1  0  0  0  0
 29 85  1  0  0  0  0
 29 86  1  0  0  0  0
 30 31  1  0  0  0  0
 30 87  1  0  0  0  0
 30 88  1  0  0  0  0
 31 89  1  0  0  0  0
 31 90  1  0  0  0  0
 32 33  1  0  0  0  0
 32 91  1  0  0  0  0
 34 35  1  0  0  0  0
 35 37  1  0  0  0  0
 35 94  1  0  0  0  0
 36 38  1  0  0  0  0
 36 39  1  0  0  0  0
 36 95  1  0  0  0  0
 37 41  1  0  0  0  0
 37 96  1  0  0  0  0
 37 97  1  0  0  0  0
 38 44  1  0  0  0  0
 38 99  1  0  0  0  0
 38100  1  0  0  0  0
 40 42  1  0  0  0  0
 40 43  1  0  0  0  0
 40101  1  0  0  0  0
 41 47  1  0  0  0  0
 41102  1  0  0  0  0
 41103  1  0  0  0  0
 43 45  1  0  0  0  0
 43 46  1  0  0  0  0
 43104  1  0  0  0  0
 44105  1  0  0  0  0
 45 51  2  0  0  0  0
 45 53  1  0  0  0  0
 46 52  2  0  0  0  0
 46 54  1  0  0  0  0
 48 56  1  0  0  0  0
 48108  1  0  0  0  0
 48109  1  0  0  0  0
 49 50  1  0  0  0  0
 50 55  1  0  0  0  0
 50110  1  0  0  0  0
 51 57  1  0  0  0  0
 51111  1  0  0  0  0
 52 58  1  0  0  0  0
 52112  1  0  0  0  0
 53 59  2  0  0  0  0
 53113  1  0  0  0  0
 54 60  2  0  0  0  0
 54114  1  0  0  0  0
 55 61  1  0  0  0  0
 55115  1  0  0  0  0
 55116  1  0  0  0  0
 56 62  1  0  0  0  0
 56117  1  0  0  0  0
 56118  1  0  0  0  0
 57 63  2  0  0  0  0
 57120  1  0  0  0  0
 58 64  2  0  0  0  0
 58121  1  0  0  0  0
 59 63  1  0  0  0  0
 59122  1  0  0  0  0
 60 64  1  0  0  0  0
 60123  1  0  0  0  0
 61 67  1  0  0  0  0
 61124  1  0  0  0  0
 61125  1  0  0  0  0
 62 68  2  0  0  0  0
 62 69  1  0  0  0  0
 63127  1  0  0  0  0
 64128  1  0  0  0  0
 65 66  1  0  0  0  0
 66 70  1  0  0  0  0
 66129  1  0  0  0  0
 68 71  1  0  0  0  0
 68130  1  0  0  0  0
 69 72  2  0  0  0  0
 69131  1  0  0  0  0
 70 74  1  0  0  0  0
 70132  1  0  0  0  0
 70133  1  0  0  0  0
 71 73  2  0  0  0  0
 71135  1  0  0  0  0
 72 73  1  0  0  0  0
 72136  1  0  0  0  0
 73 76  1  0  0  0  0
 75 77  1  0  0  0  0
 77138  1  0  0  0  0
 77139  1  0  0  0  0
 77140  1  0  0  0  0
M  END
> <PUBCHEM_COMPOUND_CID>
507568
> <PUBCHEM_COMPOUND_CANONICALIZED>
1
> <PUBCHEM_CACTVS_COMPLEXITY>
2000
> <PUBCHEM_CACTVS_HBOND_ACCEPTOR>
17
> <PUBCHEM_CACTVS_HBOND_DONOR>
11
> <PUBCHEM_CACTVS_ROTATABLE_BOND>
31
> <PUBCHEM_CACTVS_SUBSKEYS>
AAADcfB/vYAAAAAAAAAAAAAAAAAAAAAAAAAwYMGAAAAAAAABUAAAHwAQCAAADSjBmBQyCILAAgCIAiHSGAACAAAkAAAIiIGICMgIZjqAlTGUcQAm1gGImYe/3/KOwAAAAAAAAACAAAAAAAAAAAAAAAAAAA==
> <PUBCHEM_IUPAC_OPENEYE_NAME>
4-[2-[[(2S)-2-[[(2S)-2-[[(2S)-2-[[(2S)-2-[[(2S)-2-[[(2S)-2-acetamido-3-carboxy-propanoyl]amino]-4-carboxy-butanoyl]amino]-3,3-diphenyl-propanoyl]amino]-4-carboxy-butanoyl]amino]-3-cyclohexyl-propanoyl]amino]-4,4-difluoro-butanoyl]amino]ethyl]benzoic acid
> <PUBCHEM_IUPAC_CAS_NAME>
4-[2-[[(2S)-2-[[(2S)-2-[[(2S)-2-[[(2S)-2-[[(2S)-2-[[(2S)-2-acetamido-3-carboxy-1-oxopropyl]amino]-4-carboxy-1-oxobutyl]amino]-1-oxo-3,3-diphenylpropyl]amino]-4-carboxy-1-oxobutyl]amino]-3-cyclohexyl-1-oxopropyl]amino]-4,4-difluoro-1-oxobutyl]amino]ethyl]benzoic acid
> <PUBCHEM_IUPAC_NAME_MARKUP>
4-[2-[[(2<I>S</I>)-2-[[(2<I>S</I>)-2-[[(2<I>S</I>)-2-[[(2<I>S</I>)-2-[[(2<I>S</I>)-2-[[(2<I>S</I>)-2-acetamido-3-carboxypropanoyl]amino]-4-carboxybutanoyl]amino]-3,3-diphenylpropanoyl]amino]-4-carboxybutanoyl]amino]-3-cyclohexylpropanoyl]amino]-4,4-difluorobutanoyl]amino]ethyl]benzoic acid
> <PUBCHEM_IUPAC_NAME>
4-[2-[[(2S)-2-[[(2S)-2-[[(2S)-2-[[(2S)-2-[[(2S)-2-[[(2S)-2-acetamido-3-carboxypropanoyl]amino]-4-carboxybutanoyl]amino]-3,3-diphenylpropanoyl]amino]-4-carboxybutanoyl]amino]-3-cyclohexylpropanoyl]amino]-4,4-difluorobutanoyl]amino]ethyl]benzoic acid
> <PUBCHEM_IUPAC_SYSTEMATIC_NAME>
4-[2-[[(2S)-2-[[(2S)-2-[[(2S)-2-[[(2S)-2-[[(2S)-2-[[(2S)-2-acetamido-4-oxidanyl-4-oxidanylidene-butanoyl]amino]-5-oxidanyl-5-oxidanylidene-pentanoyl]amino]-3,3-diphenyl-propanoyl]amino]-5-oxidanyl-5-oxidanylidene-pentanoyl]amino]-3-cyclohexyl-propanoyl]amino]-4,4-bis(fluoranyl)butanoyl]amino]ethyl]benzoic acid
> <PUBCHEM_IUPAC_TRADITIONAL_NAME>
4-[2-[[(2S)-2-[[(2S)-2-[[(2S)-2-[[(2S)-2-[[(2S)-2-[[(2S)-2-acetamido-3-carboxy-propanoyl]amino]-4-carboxy-butanoyl]amino]-3,3-diphenyl-propanoyl]amino]-4-carboxy-butanoyl]amino]-3-cyclohexyl-propanoyl]amino]-4,4-difluoro-butanoyl]amino]ethyl]benzoic acid
> <PUBCHEM_IUPAC_INCHI>
InChI=1S/C53H65F2N7O15/c1-30(63)57-40(29-44(68)69)51(74)58-37(22-24-43(66)67)49(72)62-46(45(33-13-7-3-8-14-33)34-15-9-4-10-16-34)52(75)59-36(21-23-42(64)65)48(71)60-38(27-32-11-5-2-6-12-32)50(73)61-39(28-41(54)55)47(70)56-26-25-31-17-19-35(20-18-31)53(76)77/h3-4,7-10,13-20,32,36-41,45-46H,2,5-6,11-12,21-29H2,1H3,(H,56,70)(H,57,63)(H,58,74)(H,59,75)(H,60,71)(H,61,73)(H,62,72)(H,64,65)(H,66,67)(H,68,69)(H,76,77)/t36-,37-,38-,39-,40-,46-/m0/s1
> <PUBCHEM_IUPAC_INCHIKEY>
RFXBIMFCODBHTN-ZVNYPHDXSA-N
> <PUBCHEM_XLOGP3_AA>
4.2
> <PUBCHEM_EXACT_MASS>
1077.45067072
> <PUBCHEM_MOLECULAR_FORMULA>
C53H65F2N7O15
> <PUBCHEM_MOLECULAR_WEIGHT>
1078.1
> <PUBCHEM_OPENEYE_CAN_SMILES>
CC(=O)NC(CC(=O)O)C(=O)NC(CCC(=O)O)C(=O)NC(C(C1=CC=CC=C1)C2=CC=CC=C2)C(=O)NC(CCC(=O)O)C(=O)NC(CC3CCCCC3)C(=O)NC(CC(F)F)C(=O)NCCC4=CC=C(C=C4)C(=O)O
> <PUBCHEM_OPENEYE_ISO_SMILES>
CC(=O)N[C@@H](CC(=O)O)C(=O)N[C@@H](CCC(=O)O)C(=O)N[C@@H](C(C1=CC=CC=C1)C2=CC=CC=C2)C(=O)N[C@@H](CCC(=O)O)C(=O)N[C@@H](CC3CCCCC3)C(=O)N[C@@H](CC(F)F)C(=O)NCCC4=CC=C(C=C4)C(=O)O
> <PUBCHEM_CACTVS_TPSA>
353
> <PUBCHEM_MONOISOTOPIC_WEIGHT>
1077.45067072
> <PUBCHEM_TOTAL_CHARGE>
0
> <PUBCHEM_HEAVY_ATOM_COUNT>
77
> <PUBCHEM_ATOM_DEF_STEREO_COUNT>
6
> <PUBCHEM_ATOM_UDEF_STEREO_COUNT>
0
> <PUBCHEM_BOND_DEF_STEREO_COUNT>
0
> <PUBCHEM_BOND_UDEF_STEREO_COUNT>
0
> <PUBCHEM_ISOTOPIC_ATOM_COUNT>
0
> <PUBCHEM_COMPONENT_COUNT>
1
> <PUBCHEM_CACTVS_TAUTO_COUNT>
-1
> <PUBCHEM_COORDINATE_TYPE>
1
5
255
> <PUBCHEM_BONDANNOTATIONS>
32  18  6
36  19  5
35  20  6
40  22  5
50  23  6
66  24  5
45  51  8
45  53  8
46  52  8
46  54  8
51  57  8
52  58  8
53  59  8
54  60  8
57  63  8
58  64  8
59  63  8
60  64  8
62  68  8
62  69  8
68  71  8
69  72  8
71  73  8
72  73  8
$$$$
