507529
  -OEChem-10302200282D
 80 81  0     1  0  0  0  0  0999 V2000
    2.0000   -5.4239    0.0000 Cl  0  0  0  0  0  0  0  0  0  0  0  0
    3.7320   -8.4239    0.0000 Cl  0  0  0  0  0  0  0  0  0  0  0  0
    4.5981    0.0761    0.0000 S   0  0  0  0  0  0  0  0  0  0  0  0
    5.4641    0.5761    0.0000 O   0  0  0  0  0  0  0  0  0  0  0  0
    5.4641    1.5761    0.0000 O   0  0  0  0  0  0  0  0  0  0  0  0
    6.3301    5.0761    0.0000 O   0  0  0  0  0  0  0  0  0  0  0  0
    6.3301   -2.9239    0.0000 O   0  0  0  0  0  0  0  0  0  0  0  0
    2.8380    6.3548    0.0000 O   0  0  0  0  0  0  0  0  0  0  0  0
    8.0622    6.0761    0.0000 O   0  0  0  0  0  0  0  0  0  0  0  0
    8.9282    4.5761    0.0000 O   0  0  0  0  0  0  0  0  0  0  0  0
    5.6859    8.4239    0.0000 O   0  0  0  0  0  0  0  0  0  0  0  0
    7.1962    1.5761    0.0000 N   0  0  0  0  0  0  0  0  0  0  0  0
    5.4641    3.5761    0.0000 N   0  0  0  0  0  0  0  0  0  0  0  0
    6.3301   -0.9239    0.0000 N   0  0  0  0  0  0  0  0  0  0  0  0
    5.4071    6.6639    0.0000 N   0  0  0  0  0  0  0  0  0  0  0  0
    4.5981   -2.9239    0.0000 N   0  0  0  0  0  0  0  0  0  0  0  0
    4.0981    7.6149    0.0000 N   0  0  0  0  0  0  0  0  0  0  0  0
    7.1962    0.5761    0.0000 C   0  0  1  0  0  0  0  0  0  0  0  0
    8.0622    0.0761    0.0000 C   0  0  0  0  0  0  0  0  0  0  0  0
    8.9282    0.5761    0.0000 C   0  0  0  0  0  0  0  0  0  0  0  0
    6.3301    3.0761    0.0000 C   0  0  2  0  0  0  0  0  0  0  0  0
    6.3301    0.0761    0.0000 C   0  0  0  0  0  0  0  0  0  0  0  0
    6.3301    2.0761    0.0000 C   0  0  0  0  0  0  0  0  0  0  0  0
    7.1962    3.5761    0.0000 C   0  0  0  0  0  0  0  0  0  0  0  0
    9.7942    0.0761    0.0000 C   0  0  0  0  0  0  0  0  0  0  0  0
    8.9282    1.5761    0.0000 C   0  0  0  0  0  0  0  0  0  0  0  0
    5.4641   -1.4239    0.0000 C   0  0  1  0  0  0  0  0  0  0  0  0
    4.5981    6.0761    0.0000 C   0  0  3  0  0  0  0  0  0  0  0  0
    4.5981    5.0761    0.0000 C   0  0  0  0  0  0  0  0  0  0  0  0
    7.1962    4.5761    0.0000 C   0  0  0  0  0  0  0  0  0  0  0  0
    5.4641    4.5761    0.0000 C   0  0  0  0  0  0  0  0  0  0  0  0
    4.5981   -0.9239    0.0000 C   0  0  0  0  0  0  0  0  0  0  0  0
    5.4641   -2.4239    0.0000 C   0  0  0  0  0  0  0  0  0  0  0  0
    3.7891    6.6639    0.0000 C   0  0  0  0  0  0  0  0  0  0  0  0
    8.0622    5.0761    0.0000 C   0  0  0  0  0  0  0  0  0  0  0  0
    5.0981    7.6149    0.0000 C   0  0  0  0  0  0  0  0  0  0  0  0
    4.5981   -3.9239    0.0000 C   0  0  0  0  0  0  0  0  0  0  0  0
    3.7320   -4.4239    0.0000 C   0  0  0  0  0  0  0  0  0  0  0  0
    3.7320   -5.4239    0.0000 C   0  0  0  0  0  0  0  0  0  0  0  0
    2.8660   -5.9239    0.0000 C   0  0  0  0  0  0  0  0  0  0  0  0
    4.5981   -5.9239    0.0000 C   0  0  0  0  0  0  0  0  0  0  0  0
    2.8660   -6.9239    0.0000 C   0  0  0  0  0  0  0  0  0  0  0  0
    4.5981   -6.9239    0.0000 C   0  0  0  0  0  0  0  0  0  0  0  0
    3.7320   -7.4239    0.0000 C   0  0  0  0  0  0  0  0  0  0  0  0
    6.6592    0.8861    0.0000 H   0  0  0  0  0  0  0  0  0  0  0  0
    7.6636   -0.3989    0.0000 H   0  0  0  0  0  0  0  0  0  0  0  0
    8.4607   -0.3989    0.0000 H   0  0  0  0  0  0  0  0  0  0  0  0
    9.4651    0.8861    0.0000 H   0  0  0  0  0  0  0  0  0  0  0  0
    5.7932    2.7661    0.0000 H   0  0  0  0  0  0  0  0  0  0  0  0
    7.7331    1.8861    0.0000 H   0  0  0  0  0  0  0  0  0  0  0  0
    7.4082    2.9935    0.0000 H   0  0  0  0  0  0  0  0  0  0  0  0
    7.8067    3.6837    0.0000 H   0  0  0  0  0  0  0  0  0  0  0  0
    9.4842   -0.4609    0.0000 H   0  0  0  0  0  0  0  0  0  0  0  0
   10.3312   -0.2339    0.0000 H   0  0  0  0  0  0  0  0  0  0  0  0
   10.1042    0.6130    0.0000 H   0  0  0  0  0  0  0  0  0  0  0  0
    9.5482    1.5761    0.0000 H   0  0  0  0  0  0  0  0  0  0  0  0
    8.9282    2.1961    0.0000 H   0  0  0  0  0  0  0  0  0  0  0  0
    8.3082    1.5761    0.0000 H   0  0  0  0  0  0  0  0  0  0  0  0
    4.9272    3.2661    0.0000 H   0  0  0  0  0  0  0  0  0  0  0  0
    6.8671   -1.2339    0.0000 H   0  0  0  0  0  0  0  0  0  0  0  0
    5.4641   -0.8039    0.0000 H   0  0  0  0  0  0  0  0  0  0  0  0
    5.1505    5.7946    0.0000 H   0  0  0  0  0  0  0  0  0  0  0  0
    3.9875    5.1837    0.0000 H   0  0  0  0  0  0  0  0  0  0  0  0
    4.3860    4.4935    0.0000 H   0  0  0  0  0  0  0  0  0  0  0  0
    6.9841    5.1587    0.0000 H   0  0  0  0  0  0  0  0  0  0  0  0
    6.5856    4.4684    0.0000 H   0  0  0  0  0  0  0  0  0  0  0  0
    3.9875   -0.8163    0.0000 H   0  0  0  0  0  0  0  0  0  0  0  0
    4.3860   -1.5065    0.0000 H   0  0  0  0  0  0  0  0  0  0  0  0
    5.9967    6.4723    0.0000 H   0  0  0  0  0  0  0  0  0  0  0  0
    4.0611   -2.6139    0.0000 H   0  0  0  0  0  0  0  0  0  0  0  0
    3.7336    8.1165    0.0000 H   0  0  0  0  0  0  0  0  0  0  0  0
    4.8101   -4.5065    0.0000 H   0  0  0  0  0  0  0  0  0  0  0  0
    5.2087   -3.8163    0.0000 H   0  0  0  0  0  0  0  0  0  0  0  0
    3.5200   -3.8413    0.0000 H   0  0  0  0  0  0  0  0  0  0  0  0
    3.1215   -4.5316    0.0000 H   0  0  0  0  0  0  0  0  0  0  0  0
    4.0611    0.3861    0.0000 H   0  0  0  0  0  0  0  0  0  0  0  0
    8.5991    6.3861    0.0000 H   0  0  0  0  0  0  0  0  0  0  0  0
    5.1350   -5.6139    0.0000 H   0  0  0  0  0  0  0  0  0  0  0  0
    2.3291   -7.2339    0.0000 H   0  0  0  0  0  0  0  0  0  0  0  0
    5.1350   -7.2339    0.0000 H   0  0  0  0  0  0  0  0  0  0  0  0
  1 40  1  0  0  0  0
  2 44  1  0  0  0  0
  3 32  1  0  0  0  0
  3 76  1  0  0  0  0
  4 22  2  0  0  0  0
  5 23  2  0  0  0  0
  6 31  2  0  0  0  0
  7 33  2  0  0  0  0
  8 34  2  0  0  0  0
  9 35  1  0  0  0  0
  9 77  1  0  0  0  0
 10 35  2  0  0  0  0
 11 36  2  0  0  0  0
 18 12  1  1  0  0  0
 12 23  1  0  0  0  0
 12 50  1  0  0  0  0
 21 13  1  1  0  0  0
 13 31  1  0  0  0  0
 13 59  1  0  0  0  0
 14 22  1  0  0  0  0
 27 14  1  6  0  0  0
 14 60  1  0  0  0  0
 15 28  1  0  0  0  0
 15 36  1  0  0  0  0
 15 69  1  0  0  0  0
 16 33  1  0  0  0  0
 16 37  1  0  0  0  0
 16 70  1  0  0  0  0
 17 34  1  0  0  0  0
 17 36  1  0  0  0  0
 17 71  1  0  0  0  0
 18 19  1  0  0  0  0
 18 22  1  0  0  0  0
 18 45  1  0  0  0  0
 19 20  1  0  0  0  0
 19 46  1  0  0  0  0
 19 47  1  0  0  0  0
 20 25  1  0  0  0  0
 20 26  1  0  0  0  0
 20 48  1  0  0  0  0
 21 23  1  0  0  0  0
 21 24  1  0  0  0  0
 21 49  1  0  0  0  0
 24 30  1  0  0  0  0
 24 51  1  0  0  0  0
 24 52  1  0  0  0  0
 25 53  1  0  0  0  0
 25 54  1  0  0  0  0
 25 55  1  0  0  0  0
 26 56  1  0  0  0  0
 26 57  1  0  0  0  0
 26 58  1  0  0  0  0
 27 32  1  0  0  0  0
 27 33  1  0  0  0  0
 27 61  1  0  0  0  0
 28 29  1  0  0  0  0
 28 34  1  0  0  0  0
 28 62  1  0  0  0  0
 29 31  1  0  0  0  0
 29 63  1  0  0  0  0
 29 64  1  0  0  0  0
 30 35  1  0  0  0  0
 30 65  1  0  0  0  0
 30 66  1  0  0  0  0
 32 67  1  0  0  0  0
 32 68  1  0  0  0  0
 37 38  1  0  0  0  0
 37 72  1  0  0  0  0
 37 73  1  0  0  0  0
 38 39  1  0  0  0  0
 38 74  1  0  0  0  0
 38 75  1  0  0  0  0
 39 40  2  0  0  0  0
 39 41  1  0  0  0  0
 40 42  1  0  0  0  0
 41 43  2  0  0  0  0
 41 78  1  0  0  0  0
 42 44  2  0  0  0  0
 42 79  1  0  0  0  0
 43 44  1  0  0  0  0
 43 80  1  0  0  0  0
M  END
> <PUBCHEM_COMPOUND_CID>
507529
> <PUBCHEM_COMPOUND_CANONICALIZED>
1
> <PUBCHEM_CACTVS_COMPLEXITY>
1080
> <PUBCHEM_CACTVS_HBOND_ACCEPTOR>
9
> <PUBCHEM_CACTVS_HBOND_DONOR>
8
> <PUBCHEM_CACTVS_ROTATABLE_BOND>
17
> <PUBCHEM_CACTVS_SUBSKEYS>
AAADcfB7vABGAAAAAAAAAAAAAAAAAWAAAAAwAAAAAAAAAAABAAAAHgYQCAAADSrF2CSzCILAAgSIAiHSGAACAAAgBQAIiIGIAoiIYDqB0zGUYAAslyKIiAe9l4IOBAAAAACBAAAIAAAAAQIAAAAAAAAAAA==
> <PUBCHEM_IUPAC_OPENEYE_NAME>
(4S)-5-[[(1S)-1-[[(1R)-2-[2-(2,4-dichlorophenyl)ethylamino]-2-oxo-1-(sulfanylmethyl)ethyl]carbamoyl]-3-methyl-butyl]amino]-4-[[2-(2,5-dioxoimidazolidin-4-yl)acetyl]amino]-5-oxo-pentanoic acid
> <PUBCHEM_IUPAC_CAS_NAME>
(4S)-5-[[(2S)-1-[[(2R)-1-[2-(2,4-dichlorophenyl)ethylamino]-3-mercapto-1-oxopropan-2-yl]amino]-4-methyl-1-oxopentan-2-yl]amino]-4-[[2-(2,5-dioxo-4-imidazolidinyl)-1-oxoethyl]amino]-5-oxopentanoic acid
> <PUBCHEM_IUPAC_NAME_MARKUP>
(4<I>S</I>)-5-[[(2<I>S</I>)-1-[[(2<I>R</I>)-1-[2-(2,4-dichlorophenyl)ethylamino]-1-oxo-3-sulfanylpropan-2-yl]amino]-4-methyl-1-oxopentan-2-yl]amino]-4-[[2-(2,5-dioxoimidazolidin-4-yl)acetyl]amino]-5-oxopentanoic acid
> <PUBCHEM_IUPAC_NAME>
(4S)-5-[[(2S)-1-[[(2R)-1-[2-(2,4-dichlorophenyl)ethylamino]-1-oxo-3-sulfanylpropan-2-yl]amino]-4-methyl-1-oxopentan-2-yl]amino]-4-[[2-(2,5-dioxoimidazolidin-4-yl)acetyl]amino]-5-oxopentanoic acid
> <PUBCHEM_IUPAC_SYSTEMATIC_NAME>
(4S)-4-[2-[2,5-bis(oxidanylidene)imidazolidin-4-yl]ethanoylamino]-5-[[(2S)-1-[[(2R)-1-[2-(2,4-dichlorophenyl)ethylamino]-1-oxidanylidene-3-sulfanyl-propan-2-yl]amino]-4-methyl-1-oxidanylidene-pentan-2-yl]amino]-5-oxidanylidene-pentanoic acid
> <PUBCHEM_IUPAC_TRADITIONAL_NAME>
(4S)-5-[[(1S)-1-[[(1R)-2-[2-(2,4-dichlorophenyl)ethylamino]-2-keto-1-(mercaptomethyl)ethyl]carbamoyl]-3-methyl-butyl]amino]-4-[[2-(2,5-diketoimidazolidin-4-yl)acetyl]amino]-5-keto-valeric acid
> <PUBCHEM_IUPAC_INCHI>
InChI=1S/C27H36Cl2N6O8S/c1-13(2)9-18(25(41)33-20(12-44)23(39)30-8-7-14-3-4-15(28)10-16(14)29)32-24(40)17(5-6-22(37)38)31-21(36)11-19-26(42)35-27(43)34-19/h3-4,10,13,17-20,44H,5-9,11-12H2,1-2H3,(H,30,39)(H,31,36)(H,32,40)(H,33,41)(H,37,38)(H2,34,35,42,43)/t17-,18-,19?,20-/m0/s1
> <PUBCHEM_IUPAC_INCHIKEY>
MOGRYYVPFRAMRD-DQTVCYTJSA-N
> <PUBCHEM_XLOGP3_AA>
1.4
> <PUBCHEM_EXACT_MASS>
674.1692387
> <PUBCHEM_MOLECULAR_FORMULA>
C27H36Cl2N6O8S
> <PUBCHEM_MOLECULAR_WEIGHT>
675.6
> <PUBCHEM_OPENEYE_CAN_SMILES>
CC(C)CC(C(=O)NC(CS)C(=O)NCCC1=C(C=C(C=C1)Cl)Cl)NC(=O)C(CCC(=O)O)NC(=O)CC2C(=O)NC(=O)N2
> <PUBCHEM_OPENEYE_ISO_SMILES>
CC(C)C[C@@H](C(=O)N[C@@H](CS)C(=O)NCCC1=C(C=C(C=C1)Cl)Cl)NC(=O)[C@H](CCC(=O)O)NC(=O)CC2C(=O)NC(=O)N2
> <PUBCHEM_CACTVS_TPSA>
213
> <PUBCHEM_MONOISOTOPIC_WEIGHT>
674.1692387
> <PUBCHEM_TOTAL_CHARGE>
0
> <PUBCHEM_HEAVY_ATOM_COUNT>
44
> <PUBCHEM_ATOM_DEF_STEREO_COUNT>
3
> <PUBCHEM_ATOM_UDEF_STEREO_COUNT>
1
> <PUBCHEM_BOND_DEF_STEREO_COUNT>
0
> <PUBCHEM_BOND_UDEF_STEREO_COUNT>
0
> <PUBCHEM_ISOTOPIC_ATOM_COUNT>
0
> <PUBCHEM_COMPONENT_COUNT>
1
> <PUBCHEM_CACTVS_TAUTO_COUNT>
-1
> <PUBCHEM_COORDINATE_TYPE>
1
5
255
> <PUBCHEM_BONDANNOTATIONS>
18  12  5
21  13  5
27  14  6
28  29  3
39  40  8
39  41  8
40  42  8
41  43  8
42  44  8
43  44  8
$$$$
