507536
  -OEChem-10302200282D
 90 90  0     1  0  0  0  0  0999 V2000
    4.5981    0.3450    0.0000 S   0  0  0  0  0  0  0  0  0  0  0  0
    6.3301    5.3450    0.0000 O   0  0  0  0  0  0  0  0  0  0  0  0
    5.4641    1.8450    0.0000 O   0  0  0  0  0  0  0  0  0  0  0  0
    5.4641    0.8450    0.0000 O   0  0  0  0  0  0  0  0  0  0  0  0
    2.8660    8.3450    0.0000 O   0  0  0  0  0  0  0  0  0  0  0  0
    2.0000    6.8450    0.0000 O   0  0  0  0  0  0  0  0  0  0  0  0
    8.0622    6.3450    0.0000 O   0  0  0  0  0  0  0  0  0  0  0  0
    8.9282    4.8450    0.0000 O   0  0  0  0  0  0  0  0  0  0  0  0
    6.3301   -2.6550    0.0000 O   0  0  0  0  0  0  0  0  0  0  0  0
    3.7320   -8.1550    0.0000 O   0  0  0  0  0  0  0  0  0  0  0  0
    5.4641    3.8450    0.0000 N   0  0  0  0  0  0  0  0  0  0  0  0
    7.1962    1.8450    0.0000 N   0  0  0  0  0  0  0  0  0  0  0  0
    6.3301   -0.6550    0.0000 N   0  0  0  0  0  0  0  0  0  0  0  0
    4.5981   -2.6550    0.0000 N   0  0  0  0  0  0  0  0  0  0  0  0
    4.5981    5.3450    0.0000 C   0  0  0  0  0  0  0  0  0  0  0  0
    3.7320    5.8450    0.0000 C   0  0  0  0  0  0  0  0  0  0  0  0
    6.3301    3.3450    0.0000 C   0  0  1  0  0  0  0  0  0  0  0  0
    7.1962    0.8450    0.0000 C   0  0  1  0  0  0  0  0  0  0  0  0
    8.0622    0.3450    0.0000 C   0  0  0  0  0  0  0  0  0  0  0  0
    5.4641    4.8450    0.0000 C   0  0  0  0  0  0  0  0  0  0  0  0
    8.9282    0.8450    0.0000 C   0  0  0  0  0  0  0  0  0  0  0  0
    5.0981    6.2110    0.0000 C   0  0  0  0  0  0  0  0  0  0  0  0
    4.0981    4.4790    0.0000 C   0  0  0  0  0  0  0  0  0  0  0  0
    7.1962    3.8450    0.0000 C   0  0  0  0  0  0  0  0  0  0  0  0
    6.3301    2.3450    0.0000 C   0  0  0  0  0  0  0  0  0  0  0  0
    3.7320    6.8450    0.0000 C   0  0  0  0  0  0  0  0  0  0  0  0
    6.3301    0.3450    0.0000 C   0  0  0  0  0  0  0  0  0  0  0  0
    9.7942    0.3450    0.0000 C   0  0  0  0  0  0  0  0  0  0  0  0
    8.9282    1.8450    0.0000 C   0  0  0  0  0  0  0  0  0  0  0  0
    7.1962    4.8450    0.0000 C   0  0  0  0  0  0  0  0  0  0  0  0
    5.4641   -1.1550    0.0000 C   0  0  1  0  0  0  0  0  0  0  0  0
    2.8660    7.3450    0.0000 C   0  0  0  0  0  0  0  0  0  0  0  0
    4.5981   -0.6550    0.0000 C   0  0  0  0  0  0  0  0  0  0  0  0
    8.0622    5.3450    0.0000 C   0  0  0  0  0  0  0  0  0  0  0  0
    5.4641   -2.1550    0.0000 C   0  0  0  0  0  0  0  0  0  0  0  0
    4.5981   -3.6550    0.0000 C   0  0  0  0  0  0  0  0  0  0  0  0
    3.7320   -4.1550    0.0000 C   0  0  0  0  0  0  0  0  0  0  0  0
    3.7320   -5.1550    0.0000 C   0  0  0  0  0  0  0  0  0  0  0  0
    4.5981   -5.6550    0.0000 C   0  0  0  0  0  0  0  0  0  0  0  0
    2.8660   -5.6550    0.0000 C   0  0  0  0  0  0  0  0  0  0  0  0
    4.5981   -6.6550    0.0000 C   0  0  0  0  0  0  0  0  0  0  0  0
    2.8660   -6.6550    0.0000 C   0  0  0  0  0  0  0  0  0  0  0  0
    3.7320   -7.1550    0.0000 C   0  0  0  0  0  0  0  0  0  0  0  0
    2.8660   -8.6550    0.0000 C   0  0  0  0  0  0  0  0  0  0  0  0
    3.1215    5.9527    0.0000 H   0  0  0  0  0  0  0  0  0  0  0  0
    3.5200    5.2624    0.0000 H   0  0  0  0  0  0  0  0  0  0  0  0
    5.7932    3.0350    0.0000 H   0  0  0  0  0  0  0  0  0  0  0  0
    6.6592    1.1550    0.0000 H   0  0  0  0  0  0  0  0  0  0  0  0
    7.6636   -0.1299    0.0000 H   0  0  0  0  0  0  0  0  0  0  0  0
    8.4607   -0.1299    0.0000 H   0  0  0  0  0  0  0  0  0  0  0  0
    9.4651    1.1550    0.0000 H   0  0  0  0  0  0  0  0  0  0  0  0
    4.9272    3.5350    0.0000 H   0  0  0  0  0  0  0  0  0  0  0  0
    5.6350    5.9010    0.0000 H   0  0  0  0  0  0  0  0  0  0  0  0
    5.4081    6.7480    0.0000 H   0  0  0  0  0  0  0  0  0  0  0  0
    4.5611    6.5210    0.0000 H   0  0  0  0  0  0  0  0  0  0  0  0
    3.5611    4.7890    0.0000 H   0  0  0  0  0  0  0  0  0  0  0  0
    3.7881    3.9420    0.0000 H   0  0  0  0  0  0  0  0  0  0  0  0
    4.6350    4.1690    0.0000 H   0  0  0  0  0  0  0  0  0  0  0  0
    7.4082    3.2624    0.0000 H   0  0  0  0  0  0  0  0  0  0  0  0
    7.8067    3.9527    0.0000 H   0  0  0  0  0  0  0  0  0  0  0  0
    7.7331    2.1550    0.0000 H   0  0  0  0  0  0  0  0  0  0  0  0
    4.3426    6.7373    0.0000 H   0  0  0  0  0  0  0  0  0  0  0  0
    3.9441    7.4276    0.0000 H   0  0  0  0  0  0  0  0  0  0  0  0
    9.4842   -0.1919    0.0000 H   0  0  0  0  0  0  0  0  0  0  0  0
   10.3312    0.0350    0.0000 H   0  0  0  0  0  0  0  0  0  0  0  0
   10.1042    0.8819    0.0000 H   0  0  0  0  0  0  0  0  0  0  0  0
    9.5482    1.8450    0.0000 H   0  0  0  0  0  0  0  0  0  0  0  0
    8.9282    2.4650    0.0000 H   0  0  0  0  0  0  0  0  0  0  0  0
    8.3082    1.8450    0.0000 H   0  0  0  0  0  0  0  0  0  0  0  0
    6.9841    5.4276    0.0000 H   0  0  0  0  0  0  0  0  0  0  0  0
    6.5856    4.7373    0.0000 H   0  0  0  0  0  0  0  0  0  0  0  0
    6.8671   -0.9650    0.0000 H   0  0  0  0  0  0  0  0  0  0  0  0
    5.4641   -0.5350    0.0000 H   0  0  0  0  0  0  0  0  0  0  0  0
    3.9875   -0.5473    0.0000 H   0  0  0  0  0  0  0  0  0  0  0  0
    4.3860   -1.2376    0.0000 H   0  0  0  0  0  0  0  0  0  0  0  0
    4.0611   -2.3450    0.0000 H   0  0  0  0  0  0  0  0  0  0  0  0
    4.8101   -4.2376    0.0000 H   0  0  0  0  0  0  0  0  0  0  0  0
    5.2087   -3.5473    0.0000 H   0  0  0  0  0  0  0  0  0  0  0  0
    2.3291    8.6550    0.0000 H   0  0  0  0  0  0  0  0  0  0  0  0
    3.5200   -3.5724    0.0000 H   0  0  0  0  0  0  0  0  0  0  0  0
    3.1215   -4.2627    0.0000 H   0  0  0  0  0  0  0  0  0  0  0  0
    4.0611    0.6550    0.0000 H   0  0  0  0  0  0  0  0  0  0  0  0
    8.5991    6.6550    0.0000 H   0  0  0  0  0  0  0  0  0  0  0  0
    5.1350   -5.3450    0.0000 H   0  0  0  0  0  0  0  0  0  0  0  0
    2.3291   -5.3450    0.0000 H   0  0  0  0  0  0  0  0  0  0  0  0
    5.1350   -6.9650    0.0000 H   0  0  0  0  0  0  0  0  0  0  0  0
    2.3291   -6.9650    0.0000 H   0  0  0  0  0  0  0  0  0  0  0  0
    2.5560   -8.1181    0.0000 H   0  0  0  0  0  0  0  0  0  0  0  0
    2.3291   -8.9650    0.0000 H   0  0  0  0  0  0  0  0  0  0  0  0
    3.1760   -9.1919    0.0000 H   0  0  0  0  0  0  0  0  0  0  0  0
  1 33  1  0  0  0  0
  1 82  1  0  0  0  0
  2 20  2  0  0  0  0
  3 25  2  0  0  0  0
  4 27  2  0  0  0  0
  5 32  1  0  0  0  0
  5 79  1  0  0  0  0
  6 32  2  0  0  0  0
  7 34  1  0  0  0  0
  7 83  1  0  0  0  0
  8 34  2  0  0  0  0
  9 35  2  0  0  0  0
 10 43  1  0  0  0  0
 10 44  1  0  0  0  0
 17 11  1  1  0  0  0
 11 20  1  0  0  0  0
 11 52  1  0  0  0  0
 18 12  1  1  0  0  0
 12 25  1  0  0  0  0
 12 61  1  0  0  0  0
 13 27  1  0  0  0  0
 31 13  1  6  0  0  0
 13 72  1  0  0  0  0
 14 35  1  0  0  0  0
 14 36  1  0  0  0  0
 14 76  1  0  0  0  0
 15 16  1  0  0  0  0
 15 20  1  0  0  0  0
 15 22  1  0  0  0  0
 15 23  1  0  0  0  0
 16 26  1  0  0  0  0
 16 45  1  0  0  0  0
 16 46  1  0  0  0  0
 17 24  1  0  0  0  0
 17 25  1  0  0  0  0
 17 47  1  0  0  0  0
 18 19  1  0  0  0  0
 18 27  1  0  0  0  0
 18 48  1  0  0  0  0
 19 21  1  0  0  0  0
 19 49  1  0  0  0  0
 19 50  1  0  0  0  0
 21 28  1  0  0  0  0
 21 29  1  0  0  0  0
 21 51  1  0  0  0  0
 22 53  1  0  0  0  0
 22 54  1  0  0  0  0
 22 55  1  0  0  0  0
 23 56  1  0  0  0  0
 23 57  1  0  0  0  0
 23 58  1  0  0  0  0
 24 30  1  0  0  0  0
 24 59  1  0  0  0  0
 24 60  1  0  0  0  0
 26 32  1  0  0  0  0
 26 62  1  0  0  0  0
 26 63  1  0  0  0  0
 28 64  1  0  0  0  0
 28 65  1  0  0  0  0
 28 66  1  0  0  0  0
 29 67  1  0  0  0  0
 29 68  1  0  0  0  0
 29 69  1  0  0  0  0
 30 34  1  0  0  0  0
 30 70  1  0  0  0  0
 30 71  1  0  0  0  0
 31 33  1  0  0  0  0
 31 35  1  0  0  0  0
 31 73  1  0  0  0  0
 33 74  1  0  0  0  0
 33 75  1  0  0  0  0
 36 37  1  0  0  0  0
 36 77  1  0  0  0  0
 36 78  1  0  0  0  0
 37 38  1  0  0  0  0
 37 80  1  0  0  0  0
 37 81  1  0  0  0  0
 38 39  2  0  0  0  0
 38 40  1  0  0  0  0
 39 41  1  0  0  0  0
 39 84  1  0  0  0  0
 40 42  2  0  0  0  0
 40 85  1  0  0  0  0
 41 43  2  0  0  0  0
 41 86  1  0  0  0  0
 42 43  1  0  0  0  0
 42 87  1  0  0  0  0
 44 88  1  0  0  0  0
 44 89  1  0  0  0  0
 44 90  1  0  0  0  0
M  END
> <PUBCHEM_COMPOUND_CID>
507536
> <PUBCHEM_COMPOUND_CANONICALIZED>
1
> <PUBCHEM_CACTVS_COMPLEXITY>
984
> <PUBCHEM_CACTVS_HBOND_ACCEPTOR>
10
> <PUBCHEM_CACTVS_HBOND_DONOR>
7
> <PUBCHEM_CACTVS_ROTATABLE_BOND>
20
> <PUBCHEM_CACTVS_SUBSKEYS>
AAADcfB7vABAAAAAAAAAAAAAAAAAAAAAAAAwAAAAAAAAAAABAAAAHgQQCAAADyzF2AayDoLABgSIAiHSGAACCAAgIAAIiIGOCIgMZjKEsTuUcCAk1hGIqAe814IPIAAAAAAAAABAAAAAAAAAAAAAAAAAAA==
> <PUBCHEM_IUPAC_OPENEYE_NAME>
5-[[(1S)-3-carboxy-1-[[(1S)-1-[[(1R)-2-[2-(4-methoxyphenyl)ethylamino]-2-oxo-1-(sulfanylmethyl)ethyl]carbamoyl]-3-methyl-butyl]carbamoyl]propyl]amino]-4,4-dimethyl-5-oxo-pentanoic acid
> <PUBCHEM_IUPAC_CAS_NAME>
5-[[(2S)-4-carboxy-1-[[(2S)-1-[[(2R)-3-mercapto-1-[2-(4-methoxyphenyl)ethylamino]-1-oxopropan-2-yl]amino]-4-methyl-1-oxopentan-2-yl]amino]-1-oxobutan-2-yl]amino]-4,4-dimethyl-5-oxopentanoic acid
> <PUBCHEM_IUPAC_NAME_MARKUP>
5-[[(2<I>S</I>)-4-carboxy-1-[[(2<I>S</I>)-1-[[(2<I>R</I>)-1-[2-(4-methoxyphenyl)ethylamino]-1-oxo-3-sulfanylpropan-2-yl]amino]-4-methyl-1-oxopentan-2-yl]amino]-1-oxobutan-2-yl]amino]-4,4-dimethyl-5-oxopentanoic acid
> <PUBCHEM_IUPAC_NAME>
5-[[(2S)-4-carboxy-1-[[(2S)-1-[[(2R)-1-[2-(4-methoxyphenyl)ethylamino]-1-oxo-3-sulfanylpropan-2-yl]amino]-4-methyl-1-oxopentan-2-yl]amino]-1-oxobutan-2-yl]amino]-4,4-dimethyl-5-oxopentanoic acid
> <PUBCHEM_IUPAC_SYSTEMATIC_NAME>
5-[[(2S)-1-[[(2S)-1-[[(2R)-1-[2-(4-methoxyphenyl)ethylamino]-1-oxidanylidene-3-sulfanyl-propan-2-yl]amino]-4-methyl-1-oxidanylidene-pentan-2-yl]amino]-5-oxidanyl-1,5-bis(oxidanylidene)pentan-2-yl]amino]-4,4-dimethyl-5-oxidanylidene-pentanoic acid
> <PUBCHEM_IUPAC_TRADITIONAL_NAME>
5-[[(1S)-3-carboxy-1-[[(1S)-1-[[(1R)-2-keto-1-(mercaptomethyl)-2-[2-(4-methoxyphenyl)ethylamino]ethyl]carbamoyl]-3-methyl-butyl]carbamoyl]propyl]amino]-5-keto-4,4-dimethyl-valeric acid
> <PUBCHEM_IUPAC_INCHI>
InChI=1S/C30H46N4O9S/c1-18(2)16-22(28(41)33-23(17-44)26(39)31-15-13-19-6-8-20(43-5)9-7-19)32-27(40)21(10-11-24(35)36)34-29(42)30(3,4)14-12-25(37)38/h6-9,18,21-23,44H,10-17H2,1-5H3,(H,31,39)(H,32,40)(H,33,41)(H,34,42)(H,35,36)(H,37,38)/t21-,22-,23-/m0/s1
> <PUBCHEM_IUPAC_INCHIKEY>
XWIUJGJWBZZEHF-VABKMULXSA-N
> <PUBCHEM_XLOGP3_AA>
2.2
> <PUBCHEM_EXACT_MASS>
638.29855023
> <PUBCHEM_MOLECULAR_FORMULA>
C30H46N4O9S
> <PUBCHEM_MOLECULAR_WEIGHT>
638.8
> <PUBCHEM_OPENEYE_CAN_SMILES>
CC(C)CC(C(=O)NC(CS)C(=O)NCCC1=CC=C(C=C1)OC)NC(=O)C(CCC(=O)O)NC(=O)C(C)(C)CCC(=O)O
> <PUBCHEM_OPENEYE_ISO_SMILES>
CC(C)C[C@@H](C(=O)N[C@@H](CS)C(=O)NCCC1=CC=C(C=C1)OC)NC(=O)[C@H](CCC(=O)O)NC(=O)C(C)(C)CCC(=O)O
> <PUBCHEM_CACTVS_TPSA>
201
> <PUBCHEM_MONOISOTOPIC_WEIGHT>
638.29855023
> <PUBCHEM_TOTAL_CHARGE>
0
> <PUBCHEM_HEAVY_ATOM_COUNT>
44
> <PUBCHEM_ATOM_DEF_STEREO_COUNT>
3
> <PUBCHEM_ATOM_UDEF_STEREO_COUNT>
0
> <PUBCHEM_BOND_DEF_STEREO_COUNT>
0
> <PUBCHEM_BOND_UDEF_STEREO_COUNT>
0
> <PUBCHEM_ISOTOPIC_ATOM_COUNT>
0
> <PUBCHEM_COMPONENT_COUNT>
1
> <PUBCHEM_CACTVS_TAUTO_COUNT>
-1
> <PUBCHEM_COORDINATE_TYPE>
1
5
255
> <PUBCHEM_BONDANNOTATIONS>
17  11  5
18  12  5
31  13  6
38  39  8
38  40  8
39  41  8
40  42  8
41  43  8
42  43  8
$$$$
