507594
  -OEChem-10302200282D
 82 83  0     1  0  0  0  0  0999 V2000
    5.4641    4.7196    0.0000 F   0  0  0  0  0  0  0  0  0  0  0  0
    3.7320    4.7196    0.0000 F   0  0  0  0  0  0  0  0  0  0  0  0
    5.4641   -1.2804    0.0000 F   0  0  0  0  0  0  0  0  0  0  0  0
    2.0000   -1.2804    0.0000 F   0  0  0  0  0  0  0  0  0  0  0  0
    9.5516    5.3356    0.0000 O   0  0  0  0  0  0  0  0  0  0  0  0
    8.4405    1.1656    0.0000 O   0  0  0  0  0  0  0  0  0  0  0  0
    7.1962    1.7196    0.0000 O   0  0  0  0  0  0  0  0  0  0  0  0
   11.5016   -0.7396    0.0000 O   0  0  0  0  0  0  0  0  0  0  0  0
    6.3301    1.2196    0.0000 O   0  0  0  0  0  0  0  0  0  0  0  0
   12.0368    0.9077    0.0000 O   0  0  0  0  0  0  0  0  0  0  0  0
    2.8660   -4.7804    0.0000 O   0  0  0  0  0  0  0  0  0  0  0  0
    4.5981   -4.7804    0.0000 O   0  0  0  0  0  0  0  0  0  0  0  0
    8.9757    2.8129    0.0000 N   0  0  0  0  0  0  0  0  0  0  0  0
    6.3301    3.2196    0.0000 N   0  0  0  0  0  0  0  0  0  0  0  0
   10.3426    0.5476    0.0000 N   0  0  0  0  0  0  0  0  0  0  0  0
    4.5981    1.2196    0.0000 N   0  0  0  0  0  0  0  0  0  0  0  0
    8.0622    3.2196    0.0000 C   0  0  1  0  0  0  0  0  0  0  0  0
    8.1667    4.2141    0.0000 C   0  0  0  0  0  0  0  0  0  0  0  0
    9.1448    4.4220    0.0000 C   0  0  2  0  0  0  0  0  0  0  0  0
    9.6448    3.5560    0.0000 C   0  0  0  0  0  0  0  0  0  0  0  0
    9.1836    1.8347    0.0000 C   0  0  0  0  0  0  0  0  0  0  0  0
   10.1347    1.5257    0.0000 C   0  0  2  0  0  0  0  0  0  0  0  0
    7.1962    2.7196    0.0000 C   0  0  0  0  0  0  0  0  0  0  0  0
   10.8778    2.1948    0.0000 C   0  0  0  0  0  0  0  0  0  0  0  0
    5.4641    2.7196    0.0000 C   0  0  1  0  0  0  0  0  0  0  0  0
   11.8289    1.8858    0.0000 C   0  0  0  0  0  0  0  0  0  0  0  0
   10.6699    3.1730    0.0000 C   0  0  0  0  0  0  0  0  0  0  0  0
    4.5981    3.2196    0.0000 C   0  0  0  0  0  0  0  0  0  0  0  0
    5.4641    1.7196    0.0000 C   0  0  0  0  0  0  0  0  0  0  0  0
   11.2937    0.2385    0.0000 C   0  0  0  0  0  0  0  0  0  0  0  0
    4.5981    4.2196    0.0000 C   0  0  0  0  0  0  0  0  0  0  0  0
    4.5981    0.2196    0.0000 C   0  0  0  0  0  0  0  0  0  0  0  0
   12.4526   -1.0486    0.0000 C   0  0  0  0  0  0  0  0  0  0  0  0
    3.7320   -0.2804    0.0000 C   0  0  0  0  0  0  0  0  0  0  0  0
   12.6605   -2.0268    0.0000 C   0  0  0  0  0  0  0  0  0  0  0  0
    3.7320   -1.2804    0.0000 C   0  0  0  0  0  0  0  0  0  0  0  0
   13.6116   -2.3358    0.0000 C   0  0  0  0  0  0  0  0  0  0  0  0
   11.9174   -2.6959    0.0000 C   0  0  0  0  0  0  0  0  0  0  0  0
    4.5981   -1.7804    0.0000 C   0  0  0  0  0  0  0  0  0  0  0  0
    2.8660   -1.7804    0.0000 C   0  0  0  0  0  0  0  0  0  0  0  0
    4.5981   -2.7804    0.0000 C   0  0  0  0  0  0  0  0  0  0  0  0
    2.8660   -2.7804    0.0000 C   0  0  0  0  0  0  0  0  0  0  0  0
    3.7320   -3.2804    0.0000 C   0  0  0  0  0  0  0  0  0  0  0  0
    3.7320   -4.2804    0.0000 C   0  0  0  0  0  0  0  0  0  0  0  0
    8.0946    2.6005    0.0000 H   0  0  0  0  0  0  0  0  0  0  0  0
    8.1019    4.8307    0.0000 H   0  0  0  0  0  0  0  0  0  0  0  0
    7.5467    4.2141    0.0000 H   0  0  0  0  0  0  0  0  0  0  0  0
    8.7547    4.9039    0.0000 H   0  0  0  0  0  0  0  0  0  0  0  0
   10.0597    3.0953    0.0000 H   0  0  0  0  0  0  0  0  0  0  0  0
   10.1464    3.9204    0.0000 H   0  0  0  0  0  0  0  0  0  0  0  0
   10.7243    1.3341    0.0000 H   0  0  0  0  0  0  0  0  0  0  0  0
   10.2882    2.3864    0.0000 H   0  0  0  0  0  0  0  0  0  0  0  0
   10.1682    5.4004    0.0000 H   0  0  0  0  0  0  0  0  0  0  0  0
    6.3301    3.8396    0.0000 H   0  0  0  0  0  0  0  0  0  0  0  0
    5.4641    3.3396    0.0000 H   0  0  0  0  0  0  0  0  0  0  0  0
    9.8818    0.1327    0.0000 H   0  0  0  0  0  0  0  0  0  0  0  0
   11.6373    1.2962    0.0000 H   0  0  0  0  0  0  0  0  0  0  0  0
   12.4185    1.6942    0.0000 H   0  0  0  0  0  0  0  0  0  0  0  0
   12.0205    2.4755    0.0000 H   0  0  0  0  0  0  0  0  0  0  0  0
   11.2764    3.3019    0.0000 H   0  0  0  0  0  0  0  0  0  0  0  0
   10.5410    3.7794    0.0000 H   0  0  0  0  0  0  0  0  0  0  0  0
   10.0635    3.0441    0.0000 H   0  0  0  0  0  0  0  0  0  0  0  0
    3.9875    3.3273    0.0000 H   0  0  0  0  0  0  0  0  0  0  0  0
    4.3860    2.6370    0.0000 H   0  0  0  0  0  0  0  0  0  0  0  0
    4.5981    4.8396    0.0000 H   0  0  0  0  0  0  0  0  0  0  0  0
    4.0611    1.5296    0.0000 H   0  0  0  0  0  0  0  0  0  0  0  0
    4.8101   -0.3630    0.0000 H   0  0  0  0  0  0  0  0  0  0  0  0
    5.2087    0.3273    0.0000 H   0  0  0  0  0  0  0  0  0  0  0  0
   13.0723   -1.0270    0.0000 H   0  0  0  0  0  0  0  0  0  0  0  0
   12.5389   -0.4347    0.0000 H   0  0  0  0  0  0  0  0  0  0  0  0
    3.5200    0.3022    0.0000 H   0  0  0  0  0  0  0  0  0  0  0  0
    3.1215   -0.3881    0.0000 H   0  0  0  0  0  0  0  0  0  0  0  0
   12.7894   -2.6332    0.0000 H   0  0  0  0  0  0  0  0  0  0  0  0
   13.4200   -2.9254    0.0000 H   0  0  0  0  0  0  0  0  0  0  0  0
   14.2013   -2.5274    0.0000 H   0  0  0  0  0  0  0  0  0  0  0  0
   13.8032   -1.7461    0.0000 H   0  0  0  0  0  0  0  0  0  0  0  0
   11.5025   -2.2352    0.0000 H   0  0  0  0  0  0  0  0  0  0  0  0
   11.4566   -3.1108    0.0000 H   0  0  0  0  0  0  0  0  0  0  0  0
   12.3323   -3.1566    0.0000 H   0  0  0  0  0  0  0  0  0  0  0  0
    5.1350   -3.0904    0.0000 H   0  0  0  0  0  0  0  0  0  0  0  0
    2.3291   -3.0904    0.0000 H   0  0  0  0  0  0  0  0  0  0  0  0
    2.8660   -5.4004    0.0000 H   0  0  0  0  0  0  0  0  0  0  0  0
  1 31  1  0  0  0  0
  2 31  1  0  0  0  0
  3 39  1  0  0  0  0
  4 40  1  0  0  0  0
 19  5  1  1  0  0  0
  5 53  1  0  0  0  0
  6 21  2  0  0  0  0
  7 23  2  0  0  0  0
  8 30  1  0  0  0  0
  8 33  1  0  0  0  0
  9 29  2  0  0  0  0
 10 30  2  0  0  0  0
 11 44  1  0  0  0  0
 11 82  1  0  0  0  0
 12 44  2  0  0  0  0
 13 17  1  0  0  0  0
 13 20  1  0  0  0  0
 13 21  1  0  0  0  0
 14 23  1  0  0  0  0
 25 14  1  6  0  0  0
 14 54  1  0  0  0  0
 22 15  1  6  0  0  0
 15 30  1  0  0  0  0
 15 56  1  0  0  0  0
 16 29  1  0  0  0  0
 16 32  1  0  0  0  0
 16 66  1  0  0  0  0
 17 18  1  0  0  0  0
 17 23  1  6  0  0  0
 17 45  1  0  0  0  0
 18 19  1  0  0  0  0
 18 46  1  0  0  0  0
 18 47  1  0  0  0  0
 19 20  1  0  0  0  0
 19 48  1  0  0  0  0
 20 49  1  0  0  0  0
 20 50  1  0  0  0  0
 21 22  1  0  0  0  0
 22 24  1  0  0  0  0
 22 51  1  0  0  0  0
 24 26  1  0  0  0  0
 24 27  1  0  0  0  0
 24 52  1  0  0  0  0
 25 28  1  0  0  0  0
 25 29  1  0  0  0  0
 25 55  1  0  0  0  0
 26 57  1  0  0  0  0
 26 58  1  0  0  0  0
 26 59  1  0  0  0  0
 27 60  1  0  0  0  0
 27 61  1  0  0  0  0
 27 62  1  0  0  0  0
 28 31  1  0  0  0  0
 28 63  1  0  0  0  0
 28 64  1  0  0  0  0
 31 65  1  0  0  0  0
 32 34  1  0  0  0  0
 32 67  1  0  0  0  0
 32 68  1  0  0  0  0
 33 35  1  0  0  0  0
 33 69  1  0  0  0  0
 33 70  1  0  0  0  0
 34 36  1  0  0  0  0
 34 71  1  0  0  0  0
 34 72  1  0  0  0  0
 35 37  1  0  0  0  0
 35 38  1  0  0  0  0
 35 73  1  0  0  0  0
 36 39  2  0  0  0  0
 36 40  1  0  0  0  0
 37 74  1  0  0  0  0
 37 75  1  0  0  0  0
 37 76  1  0  0  0  0
 38 77  1  0  0  0  0
 38 78  1  0  0  0  0
 38 79  1  0  0  0  0
 39 41  1  0  0  0  0
 40 42  2  0  0  0  0
 41 43  2  0  0  0  0
 41 80  1  0  0  0  0
 42 43  1  0  0  0  0
 42 81  1  0  0  0  0
 43 44  1  0  0  0  0
M  END
> <PUBCHEM_COMPOUND_CID>
507594
> <PUBCHEM_COMPOUND_CANONICALIZED>
1
> <PUBCHEM_CACTVS_COMPLEXITY>
1010
> <PUBCHEM_CACTVS_HBOND_ACCEPTOR>
12
> <PUBCHEM_CACTVS_HBOND_DONOR>
5
> <PUBCHEM_CACTVS_ROTATABLE_BOND>
15
> <PUBCHEM_CACTVS_SUBSKEYS>
AAADcfB7vcAAAAAAAAAAAAAAAAAAAWAAAAAwAAAAAAAAAAABAAAAHwAQCAAADTzhmB4yCIPABgCIAiHSGAACAAAkAAAAiIGICMkKdjKAlTGccQAm1gGYmYe6yfCOQAAAAAAAAACAAAAAAAAAAAAAAAAAAA==
> <PUBCHEM_IUPAC_OPENEYE_NAME>
4-[2-[[(2S)-4,4-difluoro-2-[[(2S,4R)-4-hydroxy-1-[(2S)-2-(isobutoxycarbonylamino)-3-methyl-butanoyl]pyrrolidine-2-carbonyl]amino]butanoyl]amino]ethyl]-3,5-difluoro-benzoic acid
> <PUBCHEM_IUPAC_CAS_NAME>
4-[2-[[(2S)-4,4-difluoro-2-[[[(2S,4R)-4-hydroxy-1-[(2S)-3-methyl-2-[[2-methylpropoxy(oxo)methyl]amino]-1-oxobutyl]-2-pyrrolidinyl]-oxomethyl]amino]-1-oxobutyl]amino]ethyl]-3,5-difluorobenzoic acid
> <PUBCHEM_IUPAC_NAME_MARKUP>
4-[2-[[(2<I>S</I>)-4,4-difluoro-2-[[(2<I>S</I>,4<I>R</I>)-4-hydroxy-1-[(2<I>S</I>)-3-methyl-2-(2-methylpropoxycarbonylamino)butanoyl]pyrrolidine-2-carbonyl]amino]butanoyl]amino]ethyl]-3,5-difluorobenzoic acid
> <PUBCHEM_IUPAC_NAME>
4-[2-[[(2S)-4,4-difluoro-2-[[(2S,4R)-4-hydroxy-1-[(2S)-3-methyl-2-(2-methylpropoxycarbonylamino)butanoyl]pyrrolidine-2-carbonyl]amino]butanoyl]amino]ethyl]-3,5-difluorobenzoic acid
> <PUBCHEM_IUPAC_SYSTEMATIC_NAME>
4-[2-[[(2S)-4,4-bis(fluoranyl)-2-[[(2S,4R)-1-[(2S)-3-methyl-2-(2-methylpropoxycarbonylamino)butanoyl]-4-oxidanyl-pyrrolidin-2-yl]carbonylamino]butanoyl]amino]ethyl]-3,5-bis(fluoranyl)benzoic acid
> <PUBCHEM_IUPAC_TRADITIONAL_NAME>
4-[2-[[(2S)-4,4-difluoro-2-[[(2S,4R)-4-hydroxy-1-[(2S)-2-(isobutoxycarbonylamino)-3-methyl-butanoyl]prolyl]amino]butanoyl]amino]ethyl]-3,5-difluoro-benzoic acid
> <PUBCHEM_IUPAC_INCHI>
InChI=1S/C28H38F4N4O8/c1-13(2)12-44-28(43)35-23(14(3)4)26(40)36-11-16(37)9-21(36)25(39)34-20(10-22(31)32)24(38)33-6-5-17-18(29)7-15(27(41)42)8-19(17)30/h7-8,13-14,16,20-23,37H,5-6,9-12H2,1-4H3,(H,33,38)(H,34,39)(H,35,43)(H,41,42)/t16-,20+,21+,23+/m1/s1
> <PUBCHEM_IUPAC_INCHIKEY>
QQUKLXDYTCERND-UXYIHQQYSA-N
> <PUBCHEM_XLOGP3_AA>
3.3
> <PUBCHEM_EXACT_MASS>
634.26257683
> <PUBCHEM_MOLECULAR_FORMULA>
C28H38F4N4O8
> <PUBCHEM_MOLECULAR_WEIGHT>
634.6
> <PUBCHEM_OPENEYE_CAN_SMILES>
CC(C)COC(=O)NC(C(C)C)C(=O)N1CC(CC1C(=O)NC(CC(F)F)C(=O)NCCC2=C(C=C(C=C2F)C(=O)O)F)O
> <PUBCHEM_OPENEYE_ISO_SMILES>
CC(C)COC(=O)N[C@@H](C(C)C)C(=O)N1C[C@@H](C[C@H]1C(=O)N[C@@H](CC(F)F)C(=O)NCCC2=C(C=C(C=C2F)C(=O)O)F)O
> <PUBCHEM_CACTVS_TPSA>
174
> <PUBCHEM_MONOISOTOPIC_WEIGHT>
634.26257683
> <PUBCHEM_TOTAL_CHARGE>
0
> <PUBCHEM_HEAVY_ATOM_COUNT>
44
> <PUBCHEM_ATOM_DEF_STEREO_COUNT>
4
> <PUBCHEM_ATOM_UDEF_STEREO_COUNT>
0
> <PUBCHEM_BOND_DEF_STEREO_COUNT>
0
> <PUBCHEM_BOND_UDEF_STEREO_COUNT>
0
> <PUBCHEM_ISOTOPIC_ATOM_COUNT>
0
> <PUBCHEM_COMPONENT_COUNT>
1
> <PUBCHEM_CACTVS_TAUTO_COUNT>
-1
> <PUBCHEM_COORDINATE_TYPE>
1
5
255
> <PUBCHEM_BONDANNOTATIONS>
25  14  6
22  15  6
17  23  6
36  39  8
36  40  8
39  41  8
40  42  8
41  43  8
42  43  8
19  5  5
$$$$
