507552
  -OEChem-10302200282D
137140  0     1  0  0  0  0  0999 V2000
   11.5263    4.5600    0.0000 S   0  0  0  0  0  0  0  0  0  0  0  0
   12.3923    2.0600    0.0000 O   0  0  0  0  0  0  0  0  0  0  0  0
   11.5263   -1.4400    0.0000 O   0  0  0  0  0  0  0  0  0  0  0  0
    8.0622   -2.4400    0.0000 O   0  0  0  0  0  0  0  0  0  0  0  0
    8.9282    3.0600    0.0000 O   0  0  0  0  0  0  0  0  0  0  0  0
    8.0622    1.5600    0.0000 O   0  0  0  0  0  0  0  0  0  0  0  0
    7.1962    0.0600    0.0000 O   0  0  0  0  0  0  0  0  0  0  0  0
    7.1962   -2.9400    0.0000 O   0  0  0  0  0  0  0  0  0  0  0  0
    4.5981   -5.4400    0.0000 O   0  0  0  0  0  0  0  0  0  0  0  0
    4.5981   -7.4400    0.0000 O   0  0  0  0  0  0  0  0  0  0  0  0
    6.3301   -7.4400    0.0000 O   0  0  0  0  0  0  0  0  0  0  0  0
    2.8660   -1.4400    0.0000 O   0  0  0  0  0  0  0  0  0  0  0  0
    2.0000   -2.9400    0.0000 O   0  0  0  0  0  0  0  0  0  0  0  0
    3.7320   -5.9400    0.0000 O   0  0  0  0  0  0  0  0  0  0  0  0
   10.6603    0.0600    0.0000 N   0  0  0  0  0  0  0  0  0  0  0  0
   10.6603    2.0600    0.0000 N   0  0  0  0  0  0  0  0  0  0  0  0
    9.7942   -2.4400    0.0000 N   0  0  0  0  0  0  0  0  0  0  0  0
    8.0622   -4.4400    0.0000 N   0  0  0  0  0  0  0  0  0  0  0  0
    9.7942    4.5600    0.0000 N   0  0  0  0  0  0  0  0  0  0  0  0
    5.4641   -3.9400    0.0000 N   0  0  0  0  0  0  0  0  0  0  0  0
    2.8660   -4.4400    0.0000 N   0  0  0  0  0  0  0  0  0  0  0  0
   13.2583    0.5600    0.0000 C   0  0  0  0  0  0  0  0  0  0  0  0
   13.2583    1.5600    0.0000 C   0  0  0  0  0  0  0  0  0  0  0  0
   14.1244    0.0600    0.0000 C   0  0  0  0  0  0  0  0  0  0  0  0
   14.1244    2.0600    0.0000 C   0  0  0  0  0  0  0  0  0  0  0  0
   14.9904    0.5600    0.0000 C   0  0  0  0  0  0  0  0  0  0  0  0
   12.3923    0.0600    0.0000 C   0  0  0  0  0  0  0  0  0  0  0  0
   14.9904    1.5600    0.0000 C   0  0  0  0  0  0  0  0  0  0  0  0
   11.5263    0.5600    0.0000 C   0  0  1  0  0  0  0  0  0  0  0  0
   11.5263    1.5600    0.0000 C   0  0  0  0  0  0  0  0  0  0  0  0
   10.6603   -0.9400    0.0000 C   0  0  0  0  0  0  0  0  0  0  0  0
    9.7942   -1.4400    0.0000 C   0  0  2  0  0  0  0  0  0  0  0  0
   10.6603    3.0600    0.0000 C   0  0  1  0  0  0  0  0  0  0  0  0
    8.9282   -0.9400    0.0000 C   0  0  0  0  0  0  0  0  0  0  0  0
    8.9282   -3.9400    0.0000 C   0  0  2  0  0  0  0  0  0  0  0  0
   11.5263    3.5600    0.0000 C   0  0  0  0  0  0  0  0  0  0  0  0
    8.9282   -2.9400    0.0000 C   0  0  0  0  0  0  0  0  0  0  0  0
    8.9282    0.0600    0.0000 C   0  0  0  0  0  0  0  0  0  0  0  0
    9.7942   -4.4400    0.0000 C   0  0  0  0  0  0  0  0  0  0  0  0
    9.7942    3.5600    0.0000 C   0  0  0  0  0  0  0  0  0  0  0  0
    9.7942   -5.4400    0.0000 C   0  0  0  0  0  0  0  0  0  0  0  0
   10.7942   -4.4400    0.0000 C   0  0  0  0  0  0  0  0  0  0  0  0
    8.0622    0.5600    0.0000 C   0  0  0  0  0  0  0  0  0  0  0  0
    7.1962   -3.9400    0.0000 C   0  0  0  0  0  0  0  0  0  0  0  0
    6.3301   -4.4400    0.0000 C   0  0  2  0  0  0  0  0  0  0  0  0
    8.9282    5.0600    0.0000 C   0  0  0  0  0  0  0  0  0  0  0  0
   10.6603   -5.9400    0.0000 C   0  0  0  0  0  0  0  0  0  0  0  0
   11.2942   -3.5740    0.0000 C   0  0  0  0  0  0  0  0  0  0  0  0
    8.9282   -5.9400    0.0000 C   0  0  0  0  0  0  0  0  0  0  0  0
   11.2942   -5.3060    0.0000 C   0  0  0  0  0  0  0  0  0  0  0  0
    6.3301   -5.4400    0.0000 C   0  0  0  0  0  0  0  0  0  0  0  0
    8.9282    6.0600    0.0000 C   0  0  0  0  0  0  0  0  0  0  0  0
   10.6603   -6.9400    0.0000 C   0  0  0  0  0  0  0  0  0  0  0  0
   12.2942   -3.5740    0.0000 C   0  0  0  0  0  0  0  0  0  0  0  0
    8.9282   -6.9400    0.0000 C   0  0  0  0  0  0  0  0  0  0  0  0
   12.2942   -5.3060    0.0000 C   0  0  0  0  0  0  0  0  0  0  0  0
    5.4641   -5.9400    0.0000 C   0  0  0  0  0  0  0  0  0  0  0  0
    9.7942   -7.4400    0.0000 C   0  0  0  0  0  0  0  0  0  0  0  0
   12.7942   -4.4400    0.0000 C   0  0  0  0  0  0  0  0  0  0  0  0
    4.5981   -4.4400    0.0000 C   0  0  0  0  0  0  0  0  0  0  0  0
    8.0622    6.5600    0.0000 C   0  0  0  0  0  0  0  0  0  0  0  0
    3.7320   -3.9400    0.0000 C   0  0  2  0  0  0  0  0  0  0  0  0
    5.4641   -6.9400    0.0000 C   0  0  0  0  0  0  0  0  0  0  0  0
    3.7320   -2.9400    0.0000 C   0  0  0  0  0  0  0  0  0  0  0  0
    8.0622    7.5600    0.0000 C   0  0  0  0  0  0  0  0  0  0  0  0
    7.1962    6.0600    0.0000 C   0  0  0  0  0  0  0  0  0  0  0  0
    2.8660   -2.4400    0.0000 C   0  0  0  0  0  0  0  0  0  0  0  0
    7.1962    8.0600    0.0000 C   0  0  0  0  0  0  0  0  0  0  0  0
    6.3301    6.5600    0.0000 C   0  0  0  0  0  0  0  0  0  0  0  0
    2.8660   -5.4400    0.0000 C   0  0  0  0  0  0  0  0  0  0  0  0
    6.3301    7.5600    0.0000 C   0  0  0  0  0  0  0  0  0  0  0  0
    2.0000   -5.9400    0.0000 C   0  0  0  0  0  0  0  0  0  0  0  0
   13.2583   -0.0600    0.0000 H   0  0  0  0  0  0  0  0  0  0  0  0
   13.0463    2.1426    0.0000 H   0  0  0  0  0  0  0  0  0  0  0  0
   12.6477    1.4523    0.0000 H   0  0  0  0  0  0  0  0  0  0  0  0
   13.7258   -0.4149    0.0000 H   0  0  0  0  0  0  0  0  0  0  0  0
   14.5229   -0.4149    0.0000 H   0  0  0  0  0  0  0  0  0  0  0  0
   14.5229    2.5349    0.0000 H   0  0  0  0  0  0  0  0  0  0  0  0
   13.7258    2.5349    0.0000 H   0  0  0  0  0  0  0  0  0  0  0  0
   15.2024   -0.0226    0.0000 H   0  0  0  0  0  0  0  0  0  0  0  0
   15.6010    0.6677    0.0000 H   0  0  0  0  0  0  0  0  0  0  0  0
   11.9938   -0.4149    0.0000 H   0  0  0  0  0  0  0  0  0  0  0  0
   12.7908   -0.4149    0.0000 H   0  0  0  0  0  0  0  0  0  0  0  0
   15.6010    1.4523    0.0000 H   0  0  0  0  0  0  0  0  0  0  0  0
   15.2024    2.1426    0.0000 H   0  0  0  0  0  0  0  0  0  0  0  0
   10.9893    0.8700    0.0000 H   0  0  0  0  0  0  0  0  0  0  0  0
   10.1233    0.3700    0.0000 H   0  0  0  0  0  0  0  0  0  0  0  0
   10.1233    1.7500    0.0000 H   0  0  0  0  0  0  0  0  0  0  0  0
    9.2573   -1.7500    0.0000 H   0  0  0  0  0  0  0  0  0  0  0  0
   11.1972    2.7500    0.0000 H   0  0  0  0  0  0  0  0  0  0  0  0
    8.3176   -0.8323    0.0000 H   0  0  0  0  0  0  0  0  0  0  0  0
    8.7162   -1.5226    0.0000 H   0  0  0  0  0  0  0  0  0  0  0  0
   10.3312   -2.7500    0.0000 H   0  0  0  0  0  0  0  0  0  0  0  0
    8.9282   -4.5600    0.0000 H   0  0  0  0  0  0  0  0  0  0  0  0
   11.7383    2.9774    0.0000 H   0  0  0  0  0  0  0  0  0  0  0  0
   12.1369    3.6677    0.0000 H   0  0  0  0  0  0  0  0  0  0  0  0
    9.5388   -0.0477    0.0000 H   0  0  0  0  0  0  0  0  0  0  0  0
    9.1403    0.6426    0.0000 H   0  0  0  0  0  0  0  0  0  0  0  0
    9.9547   -3.8411    0.0000 H   0  0  0  0  0  0  0  0  0  0  0  0
    8.0622   -5.0600    0.0000 H   0  0  0  0  0  0  0  0  0  0  0  0
   10.3312    4.8700    0.0000 H   0  0  0  0  0  0  0  0  0  0  0  0
    5.7932   -4.7500    0.0000 H   0  0  0  0  0  0  0  0  0  0  0  0
   12.0632    4.8700    0.0000 H   0  0  0  0  0  0  0  0  0  0  0  0
    8.3176    5.1677    0.0000 H   0  0  0  0  0  0  0  0  0  0  0  0
    8.7162    4.4774    0.0000 H   0  0  0  0  0  0  0  0  0  0  0  0
   11.1972   -5.6300    0.0000 H   0  0  0  0  0  0  0  0  0  0  0  0
   10.9842   -3.0370    0.0000 H   0  0  0  0  0  0  0  0  0  0  0  0
    8.3913   -5.6300    0.0000 H   0  0  0  0  0  0  0  0  0  0  0  0
   10.9842   -5.8430    0.0000 H   0  0  0  0  0  0  0  0  0  0  0  0
    6.5422   -6.0226    0.0000 H   0  0  0  0  0  0  0  0  0  0  0  0
    6.9407   -5.3323    0.0000 H   0  0  0  0  0  0  0  0  0  0  0  0
    9.5388    5.9523    0.0000 H   0  0  0  0  0  0  0  0  0  0  0  0
    9.1403    6.6426    0.0000 H   0  0  0  0  0  0  0  0  0  0  0  0
    5.4641   -3.3200    0.0000 H   0  0  0  0  0  0  0  0  0  0  0  0
    5.2520   -5.3574    0.0000 H   0  0  0  0  0  0  0  0  0  0  0  0
    4.8535   -6.0477    0.0000 H   0  0  0  0  0  0  0  0  0  0  0  0
   11.1972   -7.2500    0.0000 H   0  0  0  0  0  0  0  0  0  0  0  0
   12.6042   -3.0370    0.0000 H   0  0  0  0  0  0  0  0  0  0  0  0
    8.3913   -7.2500    0.0000 H   0  0  0  0  0  0  0  0  0  0  0  0
   12.6042   -5.8430    0.0000 H   0  0  0  0  0  0  0  0  0  0  0  0
    7.5252    1.8700    0.0000 H   0  0  0  0  0  0  0  0  0  0  0  0
    9.7942   -8.0600    0.0000 H   0  0  0  0  0  0  0  0  0  0  0  0
   13.4142   -4.4400    0.0000 H   0  0  0  0  0  0  0  0  0  0  0  0
    3.7320   -4.5600    0.0000 H   0  0  0  0  0  0  0  0  0  0  0  0
    4.3426   -3.0477    0.0000 H   0  0  0  0  0  0  0  0  0  0  0  0
    3.9441   -2.3574    0.0000 H   0  0  0  0  0  0  0  0  0  0  0  0
    2.3291   -4.1300    0.0000 H   0  0  0  0  0  0  0  0  0  0  0  0
    8.5991    7.8700    0.0000 H   0  0  0  0  0  0  0  0  0  0  0  0
    7.1962    5.4400    0.0000 H   0  0  0  0  0  0  0  0  0  0  0  0
    7.1962    8.6800    0.0000 H   0  0  0  0  0  0  0  0  0  0  0  0
    5.7932    6.2500    0.0000 H   0  0  0  0  0  0  0  0  0  0  0  0
    4.5981   -8.0600    0.0000 H   0  0  0  0  0  0  0  0  0  0  0  0
    5.7932    7.8700    0.0000 H   0  0  0  0  0  0  0  0  0  0  0  0
    1.6900   -5.4031    0.0000 H   0  0  0  0  0  0  0  0  0  0  0  0
    1.4631   -6.2500    0.0000 H   0  0  0  0  0  0  0  0  0  0  0  0
    2.3100   -6.4769    0.0000 H   0  0  0  0  0  0  0  0  0  0  0  0
    2.3291   -1.1300    0.0000 H   0  0  0  0  0  0  0  0  0  0  0  0
  1 36  1  0  0  0  0
  1103  1  0  0  0  0
  2 30  2  0  0  0  0
  3 31  2  0  0  0  0
  4 37  2  0  0  0  0
  5 40  2  0  0  0  0
  6 43  1  0  0  0  0
  6121  1  0  0  0  0
  7 43  2  0  0  0  0
  8 44  2  0  0  0  0
  9 60  2  0  0  0  0
 10 63  1  0  0  0  0
 10132  1  0  0  0  0
 11 63  2  0  0  0  0
 12 67  1  0  0  0  0
 12137  1  0  0  0  0
 13 67  2  0  0  0  0
 14 70  2  0  0  0  0
 29 15  1  6  0  0  0
 15 31  1  0  0  0  0
 15 87  1  0  0  0  0
 16 30  1  0  0  0  0
 33 16  1  6  0  0  0
 16 88  1  0  0  0  0
 32 17  1  1  0  0  0
 17 37  1  0  0  0  0
 17 93  1  0  0  0  0
 35 18  1  6  0  0  0
 18 44  1  0  0  0  0
 18100  1  0  0  0  0
 19 40  1  0  0  0  0
 19 46  1  0  0  0  0
 19101  1  0  0  0  0
 45 20  1  6  0  0  0
 20 60  1  0  0  0  0
 20114  1  0  0  0  0
 62 21  1  1  0  0  0
 21 70  1  0  0  0  0
 21127  1  0  0  0  0
 22 23  1  0  0  0  0
 22 24  1  0  0  0  0
 22 27  1  0  0  0  0
 22 73  1  0  0  0  0
 23 25  1  0  0  0  0
 23 74  1  0  0  0  0
 23 75  1  0  0  0  0
 24 26  1  0  0  0  0
 24 76  1  0  0  0  0
 24 77  1  0  0  0  0
 25 28  1  0  0  0  0
 25 78  1  0  0  0  0
 25 79  1  0  0  0  0
 26 28  1  0  0  0  0
 26 80  1  0  0  0  0
 26 81  1  0  0  0  0
 27 29  1  0  0  0  0
 27 82  1  0  0  0  0
 27 83  1  0  0  0  0
 28 84  1  0  0  0  0
 28 85  1  0  0  0  0
 29 30  1  0  0  0  0
 29 86  1  0  0  0  0
 31 32  1  0  0  0  0
 32 34  1  0  0  0  0
 32 89  1  0  0  0  0
 33 36  1  0  0  0  0
 33 40  1  0  0  0  0
 33 90  1  0  0  0  0
 34 38  1  0  0  0  0
 34 91  1  0  0  0  0
 34 92  1  0  0  0  0
 35 37  1  0  0  0  0
 35 39  1  0  0  0  0
 35 94  1  0  0  0  0
 36 95  1  0  0  0  0
 36 96  1  0  0  0  0
 38 43  1  0  0  0  0
 38 97  1  0  0  0  0
 38 98  1  0  0  0  0
 39 41  1  0  0  0  0
 39 42  1  0  0  0  0
 39 99  1  0  0  0  0
 41 47  2  0  0  0  0
 41 49  1  0  0  0  0
 42 48  2  0  0  0  0
 42 50  1  0  0  0  0
 44 45  1  0  0  0  0
 45 51  1  0  0  0  0
 45102  1  0  0  0  0
 46 52  1  0  0  0  0
 46104  1  0  0  0  0
 46105  1  0  0  0  0
 47 53  1  0  0  0  0
 47106  1  0  0  0  0
 48 54  1  0  0  0  0
 48107  1  0  0  0  0
 49 55  2  0  0  0  0
 49108  1  0  0  0  0
 50 56  2  0  0  0  0
 50109  1  0  0  0  0
 51 57  1  0  0  0  0
 51110  1  0  0  0  0
 51111  1  0  0  0  0
 52 61  1  0  0  0  0
 52112  1  0  0  0  0
 52113  1  0  0  0  0
 53 58  2  0  0  0  0
 53117  1  0  0  0  0
 54 59  2  0  0  0  0
 54118  1  0  0  0  0
 55 58  1  0  0  0  0
 55119  1  0  0  0  0
 56 59  1  0  0  0  0
 56120  1  0  0  0  0
 57 63  1  0  0  0  0
 57115  1  0  0  0  0
 57116  1  0  0  0  0
 58122  1  0  0  0  0
 59123  1  0  0  0  0
 60 62  1  0  0  0  0
 61 65  2  0  0  0  0
 61 66  1  0  0  0  0
 62 64  1  0  0  0  0
 62124  1  0  0  0  0
 64 67  1  0  0  0  0
 64125  1  0  0  0  0
 64126  1  0  0  0  0
 65 68  1  0  0  0  0
 65128  1  0  0  0  0
 66 69  2  0  0  0  0
 66129  1  0  0  0  0
 68 71  2  0  0  0  0
 68130  1  0  0  0  0
 69 71  1  0  0  0  0
 69131  1  0  0  0  0
 70 72  1  0  0  0  0
 71133  1  0  0  0  0
 72134  1  0  0  0  0
 72135  1  0  0  0  0
 72136  1  0  0  0  0
M  END
> <PUBCHEM_COMPOUND_CID>
507552
> <PUBCHEM_COMPOUND_CANONICALIZED>
1
> <PUBCHEM_CACTVS_COMPLEXITY>
1810
> <PUBCHEM_CACTVS_HBOND_ACCEPTOR>
14
> <PUBCHEM_CACTVS_HBOND_DONOR>
11
> <PUBCHEM_CACTVS_ROTATABLE_BOND>
29
> <PUBCHEM_CACTVS_SUBSKEYS>
AAADcfB/vABAAAAAAAAAAAAAAAAAAAAAAAAwYMGAAAAAAAABUAAAHgQQCAAADSjF2ASyCILAAgSIAiHSGAACAAAgAAAIiIGIAIgIYDqAkTGUYAAmlgCIiAe/n8KOgAAAAAAAAAAAAAAAAAAAAAAAAAAAAA==
> <PUBCHEM_IUPAC_OPENEYE_NAME>
(4S)-4-[[(2S)-2-acetamido-3-carboxy-propanoyl]amino]-5-[[(1S)-1-benzhydryl-2-[[(1S)-3-carboxy-1-[[(1S)-1-(cyclohexylmethyl)-2-oxo-2-[[(1R)-2-oxo-2-(2-phenylethylamino)-1-(sulfanylmethyl)ethyl]amino]ethyl]carbamoyl]propyl]amino]-2-oxo-ethyl]amino]-5-oxo-pentanoic acid
> <PUBCHEM_IUPAC_CAS_NAME>
(4S)-4-[[(2S)-2-acetamido-3-carboxy-1-oxopropyl]amino]-5-[[(2S)-1-[[(2S)-4-carboxy-1-[[(2S)-3-cyclohexyl-1-[[(2R)-3-mercapto-1-oxo-1-(2-phenylethylamino)propan-2-yl]amino]-1-oxopropan-2-yl]amino]-1-oxobutan-2-yl]amino]-1-oxo-3,3-diphenylpropan-2-yl]amino]-5-oxopentanoic acid
> <PUBCHEM_IUPAC_NAME_MARKUP>
(4<I>S</I>)-4-[[(2<I>S</I>)-2-acetamido-3-carboxypropanoyl]amino]-5-[[(2<I>S</I>)-1-[[(2<I>S</I>)-4-carboxy-1-[[(2<I>S</I>)-3-cyclohexyl-1-oxo-1-[[(2<I>R</I>)-1-oxo-1-(2-phenylethylamino)-3-sulfanylpropan-2-yl]amino]propan-2-yl]amino]-1-oxobutan-2-yl]amino]-1-oxo-3,3-diphenylpropan-2-yl]amino]-5-oxopentanoic acid
> <PUBCHEM_IUPAC_NAME>
(4S)-4-[[(2S)-2-acetamido-3-carboxypropanoyl]amino]-5-[[(2S)-1-[[(2S)-4-carboxy-1-[[(2S)-3-cyclohexyl-1-oxo-1-[[(2R)-1-oxo-1-(2-phenylethylamino)-3-sulfanylpropan-2-yl]amino]propan-2-yl]amino]-1-oxobutan-2-yl]amino]-1-oxo-3,3-diphenylpropan-2-yl]amino]-5-oxopentanoic acid
> <PUBCHEM_IUPAC_SYSTEMATIC_NAME>
(4S)-4-[[(2S)-2-acetamido-4-oxidanyl-4-oxidanylidene-butanoyl]amino]-5-[[(2S)-1-[[(2S)-1-[[(2S)-3-cyclohexyl-1-oxidanylidene-1-[[(2R)-1-oxidanylidene-1-(2-phenylethylamino)-3-sulfanyl-propan-2-yl]amino]propan-2-yl]amino]-5-oxidanyl-1,5-bis(oxidanylidene)pentan-2-yl]amino]-1-oxidanylidene-3,3-diphenyl-propan-2-yl]amino]-5-oxidanylidene-pentanoic acid
> <PUBCHEM_IUPAC_TRADITIONAL_NAME>
(4S)-4-[[(2S)-2-acetamido-3-carboxy-propanoyl]amino]-5-[[(1S)-1-benzhydryl-2-[[(1S)-3-carboxy-1-[[(1S)-1-(cyclohexylmethyl)-2-keto-2-[[(1R)-2-keto-1-(mercaptomethyl)-2-(phenethylamino)ethyl]amino]ethyl]carbamoyl]propyl]amino]-2-keto-ethyl]amino]-5-keto-valeric acid
> <PUBCHEM_IUPAC_INCHI>
InChI=1S/C51H65N7O13S/c1-31(59)53-39(29-43(64)65)50(70)54-37(23-25-42(62)63)48(68)58-45(44(34-18-10-4-11-19-34)35-20-12-5-13-21-35)51(71)55-36(22-24-41(60)61)47(67)56-38(28-33-16-8-3-9-17-33)49(69)57-40(30-72)46(66)52-27-26-32-14-6-2-7-15-32/h2,4-7,10-15,18-21,33,36-40,44-45,72H,3,8-9,16-17,22-30H2,1H3,(H,52,66)(H,53,59)(H,54,70)(H,55,71)(H,56,67)(H,57,69)(H,58,68)(H,60,61)(H,62,63)(H,64,65)/t36-,37-,38-,39-,40-,45-/m0/s1
> <PUBCHEM_IUPAC_INCHIKEY>
MAYPPTYEEGIGNJ-VUKWIJDPSA-N
> <PUBCHEM_XLOGP3_AA>
3.8
> <PUBCHEM_EXACT_MASS>
1015.43610633
> <PUBCHEM_MOLECULAR_FORMULA>
C51H65N7O13S
> <PUBCHEM_MOLECULAR_WEIGHT>
1016.2
> <PUBCHEM_OPENEYE_CAN_SMILES>
CC(=O)NC(CC(=O)O)C(=O)NC(CCC(=O)O)C(=O)NC(C(C1=CC=CC=C1)C2=CC=CC=C2)C(=O)NC(CCC(=O)O)C(=O)NC(CC3CCCCC3)C(=O)NC(CS)C(=O)NCCC4=CC=CC=C4
> <PUBCHEM_OPENEYE_ISO_SMILES>
CC(=O)N[C@@H](CC(=O)O)C(=O)N[C@@H](CCC(=O)O)C(=O)N[C@@H](C(C1=CC=CC=C1)C2=CC=CC=C2)C(=O)N[C@@H](CCC(=O)O)C(=O)N[C@@H](CC3CCCCC3)C(=O)N[C@@H](CS)C(=O)NCCC4=CC=CC=C4
> <PUBCHEM_CACTVS_TPSA>
317
> <PUBCHEM_MONOISOTOPIC_WEIGHT>
1015.43610633
> <PUBCHEM_TOTAL_CHARGE>
0
> <PUBCHEM_HEAVY_ATOM_COUNT>
72
> <PUBCHEM_ATOM_DEF_STEREO_COUNT>
6
> <PUBCHEM_ATOM_UDEF_STEREO_COUNT>
0
> <PUBCHEM_BOND_DEF_STEREO_COUNT>
0
> <PUBCHEM_BOND_UDEF_STEREO_COUNT>
0
> <PUBCHEM_ISOTOPIC_ATOM_COUNT>
0
> <PUBCHEM_COMPONENT_COUNT>
1
> <PUBCHEM_CACTVS_TAUTO_COUNT>
-1
> <PUBCHEM_COORDINATE_TYPE>
1
5
255
> <PUBCHEM_BONDANNOTATIONS>
29  15  6
33  16  6
32  17  5
35  18  6
45  20  6
62  21  5
41  47  8
41  49  8
42  48  8
42  50  8
47  53  8
48  54  8
49  55  8
50  56  8
53  58  8
54  59  8
55  58  8
56  59  8
61  65  8
61  66  8
65  68  8
66  69  8
68  71  8
69  71  8
$$$$
