507523
  -OEChem-10302200282D
 91 92  0     1  0  0  0  0  0999 V2000
   12.6906   -1.7320    0.0000 S   0  0  0  0  0  0  0  0  0  0  0  0
    5.6906    1.7320    0.0000 O   0  0  0  0  0  0  0  0  0  0  0  0
    6.6906   -1.7320    0.0000 O   0  0  0  0  0  0  0  0  0  0  0  0
   10.1906   -2.5981    0.0000 O   0  0  0  0  0  0  0  0  0  0  0  0
    9.6906    1.7320    0.0000 O   0  0  0  0  0  0  0  0  0  0  0  0
    8.1906    2.5981    0.0000 O   0  0  0  0  0  0  0  0  0  0  0  0
   11.1906    0.8660    0.0000 O   0  0  0  0  0  0  0  0  0  0  0  0
   16.1906    4.3301    0.0000 O   0  0  0  0  0  0  0  0  0  0  0  0
    5.6906    0.0000    0.0000 N   0  0  0  0  0  0  0  0  0  0  0  0
    8.1906   -0.8660    0.0000 N   0  0  0  0  0  0  0  0  0  0  0  0
   10.1906   -0.8660    0.0000 N   0  0  0  0  0  0  0  0  0  0  0  0
   12.6906    0.0000    0.0000 N   0  0  0  0  0  0  0  0  0  0  0  0
    4.1906    0.8660    0.0000 C   0  0  0  0  0  0  0  0  0  0  0  0
    3.7568   -0.0349    0.0000 C   0  0  0  0  0  0  0  0  0  0  0  0
    3.7568    1.7670    0.0000 C   0  0  0  0  0  0  0  0  0  0  0  0
    2.7818   -0.2575    0.0000 C   0  0  0  0  0  0  0  0  0  0  0  0
    2.7818    1.9895    0.0000 C   0  0  0  0  0  0  0  0  0  0  0  0
    2.0000    0.3660    0.0000 C   0  0  0  0  0  0  0  0  0  0  0  0
    2.0000    1.3660    0.0000 C   0  0  0  0  0  0  0  0  0  0  0  0
    5.1906    0.8660    0.0000 C   0  0  0  0  0  0  0  0  0  0  0  0
    6.6906    0.0000    0.0000 C   0  0  1  0  0  0  0  0  0  0  0  0
    7.1906    0.8660    0.0000 C   0  0  0  0  0  0  0  0  0  0  0  0
    8.6906   -1.7320    0.0000 C   0  0  1  0  0  0  0  0  0  0  0  0
    7.1906   -0.8660    0.0000 C   0  0  0  0  0  0  0  0  0  0  0  0
    8.1906   -2.5981    0.0000 C   0  0  0  0  0  0  0  0  0  0  0  0
    8.6906   -3.4641    0.0000 C   0  0  0  0  0  0  0  0  0  0  0  0
    8.1906    0.8660    0.0000 C   0  0  0  0  0  0  0  0  0  0  0  0
    9.6906   -1.7320    0.0000 C   0  0  0  0  0  0  0  0  0  0  0  0
    8.1906   -4.3301    0.0000 C   0  0  0  0  0  0  0  0  0  0  0  0
    9.6906   -3.4641    0.0000 C   0  0  0  0  0  0  0  0  0  0  0  0
   11.1906   -0.8660    0.0000 C   0  0  1  0  0  0  0  0  0  0  0  0
    8.6906    1.7320    0.0000 C   0  0  0  0  0  0  0  0  0  0  0  0
   11.6906   -1.7320    0.0000 C   0  0  0  0  0  0  0  0  0  0  0  0
   11.6906    0.0000    0.0000 C   0  0  0  0  0  0  0  0  0  0  0  0
   13.1906    0.8660    0.0000 C   0  0  0  0  0  0  0  0  0  0  0  0
   14.1906    0.8660    0.0000 C   0  0  0  0  0  0  0  0  0  0  0  0
   14.6906    1.7320    0.0000 C   0  0  0  0  0  0  0  0  0  0  0  0
   15.6906    1.7320    0.0000 C   0  0  0  0  0  0  0  0  0  0  0  0
   14.1906    2.5981    0.0000 C   0  0  0  0  0  0  0  0  0  0  0  0
   16.1906    2.5981    0.0000 C   0  0  0  0  0  0  0  0  0  0  0  0
   14.6906    3.4641    0.0000 C   0  0  0  0  0  0  0  0  0  0  0  0
   15.6906    3.4641    0.0000 C   0  0  0  0  0  0  0  0  0  0  0  0
   17.1906    4.3301    0.0000 C   0  0  0  0  0  0  0  0  0  0  0  0
    4.5205    0.3411    0.0000 H   0  0  0  0  0  0  0  0  0  0  0  0
    3.7568   -0.6549    0.0000 H   0  0  0  0  0  0  0  0  0  0  0  0
    4.3612   -0.1729    0.0000 H   0  0  0  0  0  0  0  0  0  0  0  0
    4.3612    1.9050    0.0000 H   0  0  0  0  0  0  0  0  0  0  0  0
    3.7568    2.3870    0.0000 H   0  0  0  0  0  0  0  0  0  0  0  0
    2.2971   -0.6440    0.0000 H   0  0  0  0  0  0  0  0  0  0  0  0
    3.0508   -0.8161    0.0000 H   0  0  0  0  0  0  0  0  0  0  0  0
    3.0508    2.5481    0.0000 H   0  0  0  0  0  0  0  0  0  0  0  0
    2.2971    2.3761    0.0000 H   0  0  0  0  0  0  0  0  0  0  0  0
    1.3955    0.5040    0.0000 H   0  0  0  0  0  0  0  0  0  0  0  0
    1.7310   -0.1926    0.0000 H   0  0  0  0  0  0  0  0  0  0  0  0
    1.7310    1.9246    0.0000 H   0  0  0  0  0  0  0  0  0  0  0  0
    1.3955    1.2281    0.0000 H   0  0  0  0  0  0  0  0  0  0  0  0
    6.3806   -0.5369    0.0000 H   0  0  0  0  0  0  0  0  0  0  0  0
    5.3806   -0.5369    0.0000 H   0  0  0  0  0  0  0  0  0  0  0  0
    7.2983    1.4766    0.0000 H   0  0  0  0  0  0  0  0  0  0  0  0
    6.6080    1.0781    0.0000 H   0  0  0  0  0  0  0  0  0  0  0  0
    9.0006   -1.1951    0.0000 H   0  0  0  0  0  0  0  0  0  0  0  0
    7.7157   -2.1996    0.0000 H   0  0  0  0  0  0  0  0  0  0  0  0
    7.7157   -2.9966    0.0000 H   0  0  0  0  0  0  0  0  0  0  0  0
    8.0706   -3.4641    0.0000 H   0  0  0  0  0  0  0  0  0  0  0  0
    8.5006   -0.3291    0.0000 H   0  0  0  0  0  0  0  0  0  0  0  0
    8.0830    0.2554    0.0000 H   0  0  0  0  0  0  0  0  0  0  0  0
    8.7733    0.6540    0.0000 H   0  0  0  0  0  0  0  0  0  0  0  0
    7.6537   -4.0201    0.0000 H   0  0  0  0  0  0  0  0  0  0  0  0
    7.8806   -4.8671    0.0000 H   0  0  0  0  0  0  0  0  0  0  0  0
    8.7276   -4.6401    0.0000 H   0  0  0  0  0  0  0  0  0  0  0  0
    9.6906   -4.0841    0.0000 H   0  0  0  0  0  0  0  0  0  0  0  0
   10.3106   -3.4641    0.0000 H   0  0  0  0  0  0  0  0  0  0  0  0
    9.6906   -2.8441    0.0000 H   0  0  0  0  0  0  0  0  0  0  0  0
    9.8806   -0.3291    0.0000 H   0  0  0  0  0  0  0  0  0  0  0  0
   10.8806   -1.4030    0.0000 H   0  0  0  0  0  0  0  0  0  0  0  0
   11.1080   -1.9441    0.0000 H   0  0  0  0  0  0  0  0  0  0  0  0
   11.7983   -2.3426    0.0000 H   0  0  0  0  0  0  0  0  0  0  0  0
   13.0006   -0.5369    0.0000 H   0  0  0  0  0  0  0  0  0  0  0  0
   13.2983    1.4766    0.0000 H   0  0  0  0  0  0  0  0  0  0  0  0
   12.6080    1.0781    0.0000 H   0  0  0  0  0  0  0  0  0  0  0  0
   10.0006    2.2690    0.0000 H   0  0  0  0  0  0  0  0  0  0  0  0
   14.0830    0.2554    0.0000 H   0  0  0  0  0  0  0  0  0  0  0  0
   14.7733    0.6540    0.0000 H   0  0  0  0  0  0  0  0  0  0  0  0
   13.0006   -2.2690    0.0000 H   0  0  0  0  0  0  0  0  0  0  0  0
   16.0006    1.1951    0.0000 H   0  0  0  0  0  0  0  0  0  0  0  0
   13.5706    2.5981    0.0000 H   0  0  0  0  0  0  0  0  0  0  0  0
   16.8106    2.5981    0.0000 H   0  0  0  0  0  0  0  0  0  0  0  0
   14.3806    4.0010    0.0000 H   0  0  0  0  0  0  0  0  0  0  0  0
   17.1906    3.7101    0.0000 H   0  0  0  0  0  0  0  0  0  0  0  0
   17.8106    4.3301    0.0000 H   0  0  0  0  0  0  0  0  0  0  0  0
   17.1906    4.9501    0.0000 H   0  0  0  0  0  0  0  0  0  0  0  0
  1 33  1  0  0  0  0
  1 84  1  0  0  0  0
  2 20  2  0  0  0  0
  3 24  2  0  0  0  0
  4 28  2  0  0  0  0
  5 32  1  0  0  0  0
  5 81  1  0  0  0  0
  6 32  2  0  0  0  0
  7 34  2  0  0  0  0
  8 42  1  0  0  0  0
  8 43  1  0  0  0  0
  9 20  1  0  0  0  0
 21  9  1  1  0  0  0
  9 58  1  0  0  0  0
 23 10  1  6  0  0  0
 10 24  1  0  0  0  0
 10 65  1  0  0  0  0
 11 28  1  0  0  0  0
 31 11  1  6  0  0  0
 11 74  1  0  0  0  0
 12 34  1  0  0  0  0
 12 35  1  0  0  0  0
 12 78  1  0  0  0  0
 13 14  1  0  0  0  0
 13 15  1  0  0  0  0
 13 20  1  0  0  0  0
 13 44  1  0  0  0  0
 14 16  1  0  0  0  0
 14 45  1  0  0  0  0
 14 46  1  0  0  0  0
 15 17  1  0  0  0  0
 15 47  1  0  0  0  0
 15 48  1  0  0  0  0
 16 18  1  0  0  0  0
 16 49  1  0  0  0  0
 16 50  1  0  0  0  0
 17 19  1  0  0  0  0
 17 51  1  0  0  0  0
 17 52  1  0  0  0  0
 18 19  1  0  0  0  0
 18 53  1  0  0  0  0
 18 54  1  0  0  0  0
 19 55  1  0  0  0  0
 19 56  1  0  0  0  0
 21 22  1  0  0  0  0
 21 24  1  0  0  0  0
 21 57  1  0  0  0  0
 22 27  1  0  0  0  0
 22 59  1  0  0  0  0
 22 60  1  0  0  0  0
 23 25  1  0  0  0  0
 23 28  1  0  0  0  0
 23 61  1  0  0  0  0
 25 26  1  0  0  0  0
 25 62  1  0  0  0  0
 25 63  1  0  0  0  0
 26 29  1  0  0  0  0
 26 30  1  0  0  0  0
 26 64  1  0  0  0  0
 27 32  1  0  0  0  0
 27 66  1  0  0  0  0
 27 67  1  0  0  0  0
 29 68  1  0  0  0  0
 29 69  1  0  0  0  0
 29 70  1  0  0  0  0
 30 71  1  0  0  0  0
 30 72  1  0  0  0  0
 30 73  1  0  0  0  0
 31 33  1  0  0  0  0
 31 34  1  0  0  0  0
 31 75  1  0  0  0  0
 33 76  1  0  0  0  0
 33 77  1  0  0  0  0
 35 36  1  0  0  0  0
 35 79  1  0  0  0  0
 35 80  1  0  0  0  0
 36 37  1  0  0  0  0
 36 82  1  0  0  0  0
 36 83  1  0  0  0  0
 37 38  2  0  0  0  0
 37 39  1  0  0  0  0
 38 40  1  0  0  0  0
 38 85  1  0  0  0  0
 39 41  2  0  0  0  0
 39 86  1  0  0  0  0
 40 42  2  0  0  0  0
 40 87  1  0  0  0  0
 41 42  1  0  0  0  0
 41 88  1  0  0  0  0
 43 89  1  0  0  0  0
 43 90  1  0  0  0  0
 43 91  1  0  0  0  0
M  END
> <PUBCHEM_COMPOUND_CID>
507523
> <PUBCHEM_COMPOUND_CANONICALIZED>
1
> <PUBCHEM_CACTVS_COMPLEXITY>
903
> <PUBCHEM_CACTVS_HBOND_ACCEPTOR>
8
> <PUBCHEM_CACTVS_HBOND_DONOR>
6
> <PUBCHEM_CACTVS_ROTATABLE_BOND>
17
> <PUBCHEM_CACTVS_SUBSKEYS>
AAADcfB7uABAAAAAAAAAAAAAAAAAAAAAAAAwAAAABgAAAAABAAAAHgQQCAAADSzF2AayDoLABgSIAiHSGAACCAAgIAAIiIGOCIgMZjKEsTuUcCAk1hGIqAe838KOIAAAAAAAAABAAAAAAAAAAAAAAAAAAA==
> <PUBCHEM_IUPAC_OPENEYE_NAME>
(4S)-4-(cycloheptanecarbonylamino)-5-[[(1S)-1-[[(1R)-2-[2-(4-methoxyphenyl)ethylamino]-2-oxo-1-(sulfanylmethyl)ethyl]carbamoyl]-3-methyl-butyl]amino]-5-oxo-pentanoic acid
> <PUBCHEM_IUPAC_CAS_NAME>
(4S)-4-[[cycloheptyl(oxo)methyl]amino]-5-[[(2S)-1-[[(2R)-3-mercapto-1-[2-(4-methoxyphenyl)ethylamino]-1-oxopropan-2-yl]amino]-4-methyl-1-oxopentan-2-yl]amino]-5-oxopentanoic acid
> <PUBCHEM_IUPAC_NAME_MARKUP>
(4<I>S</I>)-4-(cycloheptanecarbonylamino)-5-[[(2<I>S</I>)-1-[[(2<I>R</I>)-1-[2-(4-methoxyphenyl)ethylamino]-1-oxo-3-sulfanylpropan-2-yl]amino]-4-methyl-1-oxopentan-2-yl]amino]-5-oxopentanoic acid
> <PUBCHEM_IUPAC_NAME>
(4S)-4-(cycloheptanecarbonylamino)-5-[[(2S)-1-[[(2R)-1-[2-(4-methoxyphenyl)ethylamino]-1-oxo-3-sulfanylpropan-2-yl]amino]-4-methyl-1-oxopentan-2-yl]amino]-5-oxopentanoic acid
> <PUBCHEM_IUPAC_SYSTEMATIC_NAME>
(4S)-4-(cycloheptylcarbonylamino)-5-[[(2S)-1-[[(2R)-1-[2-(4-methoxyphenyl)ethylamino]-1-oxidanylidene-3-sulfanyl-propan-2-yl]amino]-4-methyl-1-oxidanylidene-pentan-2-yl]amino]-5-oxidanylidene-pentanoic acid
> <PUBCHEM_IUPAC_TRADITIONAL_NAME>
(4S)-4-(cycloheptanecarbonylamino)-5-keto-5-[[(1S)-1-[[(1R)-2-keto-1-(mercaptomethyl)-2-[2-(4-methoxyphenyl)ethylamino]ethyl]carbamoyl]-3-methyl-butyl]amino]valeric acid
> <PUBCHEM_IUPAC_INCHI>
InChI=1S/C31H48N4O7S/c1-20(2)18-25(31(41)35-26(19-43)29(39)32-17-16-21-10-12-23(42-3)13-11-21)34-30(40)24(14-15-27(36)37)33-28(38)22-8-6-4-5-7-9-22/h10-13,20,22,24-26,43H,4-9,14-19H2,1-3H3,(H,32,39)(H,33,38)(H,34,40)(H,35,41)(H,36,37)/t24-,25-,26-/m0/s1
> <PUBCHEM_IUPAC_INCHIKEY>
XFUKXGHFAWALES-GSDHBNRESA-N
> <PUBCHEM_XLOGP3_AA>
4.1
> <PUBCHEM_EXACT_MASS>
620.32437106
> <PUBCHEM_MOLECULAR_FORMULA>
C31H48N4O7S
> <PUBCHEM_MOLECULAR_WEIGHT>
620.8
> <PUBCHEM_OPENEYE_CAN_SMILES>
CC(C)CC(C(=O)NC(CS)C(=O)NCCC1=CC=C(C=C1)OC)NC(=O)C(CCC(=O)O)NC(=O)C2CCCCCC2
> <PUBCHEM_OPENEYE_ISO_SMILES>
CC(C)C[C@@H](C(=O)N[C@@H](CS)C(=O)NCCC1=CC=C(C=C1)OC)NC(=O)[C@H](CCC(=O)O)NC(=O)C2CCCCCC2
> <PUBCHEM_CACTVS_TPSA>
164
> <PUBCHEM_MONOISOTOPIC_WEIGHT>
620.32437106
> <PUBCHEM_TOTAL_CHARGE>
0
> <PUBCHEM_HEAVY_ATOM_COUNT>
43
> <PUBCHEM_ATOM_DEF_STEREO_COUNT>
3
> <PUBCHEM_ATOM_UDEF_STEREO_COUNT>
0
> <PUBCHEM_BOND_DEF_STEREO_COUNT>
0
> <PUBCHEM_BOND_UDEF_STEREO_COUNT>
0
> <PUBCHEM_ISOTOPIC_ATOM_COUNT>
0
> <PUBCHEM_COMPONENT_COUNT>
1
> <PUBCHEM_CACTVS_TAUTO_COUNT>
-1
> <PUBCHEM_COORDINATE_TYPE>
1
5
255
> <PUBCHEM_BONDANNOTATIONS>
23  10  6
31  11  6
37  38  8
37  39  8
38  40  8
39  41  8
40  42  8
41  42  8
21  9  5
$$$$
