507579
  -OEChem-10302200282D
 82 83  0     1  0  0  0  0  0999 V2000
    2.0000   -3.2694    0.0000 Cl  0  0  0  0  0  0  0  0  0  0  0  0
    4.5981    2.2306    0.0000 S   0  0  0  0  0  0  0  0  0  0  0  0
    5.4641    2.7306    0.0000 O   0  0  0  0  0  0  0  0  0  0  0  0
    8.9282    3.7306    0.0000 O   0  0  0  0  0  0  0  0  0  0  0  0
    6.3301   -0.7694    0.0000 O   0  0  0  0  0  0  0  0  0  0  0  0
   12.3923    2.7306    0.0000 O   0  0  0  0  0  0  0  0  0  0  0  0
   11.5263    1.2306    0.0000 O   0  0  0  0  0  0  0  0  0  0  0  0
   11.5263   -0.7694    0.0000 O   0  0  0  0  0  0  0  0  0  0  0  0
    9.7942   -0.7694    0.0000 O   0  0  0  0  0  0  0  0  0  0  0  0
    8.0622    2.2306    0.0000 N   0  0  0  0  0  0  0  0  0  0  0  0
    6.3301    1.2306    0.0000 N   0  0  0  0  0  0  0  0  0  0  0  0
   10.6603    2.7306    0.0000 N   0  0  0  0  0  0  0  0  0  0  0  0
    4.5981   -0.7694    0.0000 N   0  0  0  0  0  0  0  0  0  0  0  0
    7.1962    3.7306    0.0000 C   0  0  0  0  0  0  0  0  0  0  0  0
    8.0052    4.3184    0.0000 C   0  0  0  0  0  0  0  0  0  0  0  0
    6.3871    4.3184    0.0000 C   0  0  0  0  0  0  0  0  0  0  0  0
    7.6962    5.2694    0.0000 C   0  0  0  0  0  0  0  0  0  0  0  0
    6.6962    5.2694    0.0000 C   0  0  0  0  0  0  0  0  0  0  0  0
    7.1962    2.7306    0.0000 C   0  0  3  0  0  0  0  0  0  0  0  0
    6.3301    2.2306    0.0000 C   0  0  0  0  0  0  0  0  0  0  0  0
    8.9282    2.7306    0.0000 C   0  0  0  0  0  0  0  0  0  0  0  0
    9.7942    2.2306    0.0000 C   0  0  2  0  0  0  0  0  0  0  0  0
    5.4641    0.7306    0.0000 C   0  0  1  0  0  0  0  0  0  0  0  0
    9.7942    1.2306    0.0000 C   0  0  0  0  0  0  0  0  0  0  0  0
    4.5981    1.2306    0.0000 C   0  0  0  0  0  0  0  0  0  0  0  0
    5.4641   -0.2694    0.0000 C   0  0  0  0  0  0  0  0  0  0  0  0
   10.6603    0.7306    0.0000 C   0  0  0  0  0  0  0  0  0  0  0  0
   11.5263    2.2306    0.0000 C   0  0  0  0  0  0  0  0  0  0  0  0
   10.6603   -0.2694    0.0000 C   0  0  0  0  0  0  0  0  0  0  0  0
    4.5981   -1.7694    0.0000 C   0  0  0  0  0  0  0  0  0  0  0  0
    3.7320   -2.2694    0.0000 C   0  0  0  0  0  0  0  0  0  0  0  0
   13.2583    2.2306    0.0000 C   0  0  0  0  0  0  0  0  0  0  0  0
   14.1244    2.7306    0.0000 C   0  0  0  0  0  0  0  0  0  0  0  0
    3.7320   -3.2694    0.0000 C   0  0  0  0  0  0  0  0  0  0  0  0
   14.9904    2.2306    0.0000 C   0  0  0  0  0  0  0  0  0  0  0  0
   14.1244    3.7306    0.0000 C   0  0  0  0  0  0  0  0  0  0  0  0
    2.8660   -3.7694    0.0000 C   0  0  0  0  0  0  0  0  0  0  0  0
    4.5981   -3.7694    0.0000 C   0  0  0  0  0  0  0  0  0  0  0  0
    2.8660   -4.7694    0.0000 C   0  0  0  0  0  0  0  0  0  0  0  0
    4.5981   -4.7694    0.0000 C   0  0  0  0  0  0  0  0  0  0  0  0
    3.7320   -5.2694    0.0000 C   0  0  0  0  0  0  0  0  0  0  0  0
    6.6437    3.4491    0.0000 H   0  0  0  0  0  0  0  0  0  0  0  0
    8.3152    3.7814    0.0000 H   0  0  0  0  0  0  0  0  0  0  0  0
    8.5716    4.5705    0.0000 H   0  0  0  0  0  0  0  0  0  0  0  0
    5.8207    4.5705    0.0000 H   0  0  0  0  0  0  0  0  0  0  0  0
    6.0771    3.7814    0.0000 H   0  0  0  0  0  0  0  0  0  0  0  0
    8.3026    5.3983    0.0000 H   0  0  0  0  0  0  0  0  0  0  0  0
    7.6313    5.8860    0.0000 H   0  0  0  0  0  0  0  0  0  0  0  0
    6.7610    5.8860    0.0000 H   0  0  0  0  0  0  0  0  0  0  0  0
    6.0897    5.3983    0.0000 H   0  0  0  0  0  0  0  0  0  0  0  0
    7.7331    3.0406    0.0000 H   0  0  0  0  0  0  0  0  0  0  0  0
    8.0622    1.6106    0.0000 H   0  0  0  0  0  0  0  0  0  0  0  0
    6.8671    0.9206    0.0000 H   0  0  0  0  0  0  0  0  0  0  0  0
    9.7942    2.8506    0.0000 H   0  0  0  0  0  0  0  0  0  0  0  0
    5.4641    1.3506    0.0000 H   0  0  0  0  0  0  0  0  0  0  0  0
    9.1836    1.3382    0.0000 H   0  0  0  0  0  0  0  0  0  0  0  0
    9.5822    0.6480    0.0000 H   0  0  0  0  0  0  0  0  0  0  0  0
    3.9875    1.3382    0.0000 H   0  0  0  0  0  0  0  0  0  0  0  0
    4.3860    0.6480    0.0000 H   0  0  0  0  0  0  0  0  0  0  0  0
   10.6603    3.3506    0.0000 H   0  0  0  0  0  0  0  0  0  0  0  0
   11.2708    0.6229    0.0000 H   0  0  0  0  0  0  0  0  0  0  0  0
   10.8723    1.3132    0.0000 H   0  0  0  0  0  0  0  0  0  0  0  0
    4.0611   -0.4594    0.0000 H   0  0  0  0  0  0  0  0  0  0  0  0
    4.8101   -2.3520    0.0000 H   0  0  0  0  0  0  0  0  0  0  0  0
    5.2087   -1.6618    0.0000 H   0  0  0  0  0  0  0  0  0  0  0  0
    4.0611    2.5406    0.0000 H   0  0  0  0  0  0  0  0  0  0  0  0
    3.5200   -1.6868    0.0000 H   0  0  0  0  0  0  0  0  0  0  0  0
    3.1215   -2.3771    0.0000 H   0  0  0  0  0  0  0  0  0  0  0  0
   12.8598    1.7556    0.0000 H   0  0  0  0  0  0  0  0  0  0  0  0
   13.6569    1.7556    0.0000 H   0  0  0  0  0  0  0  0  0  0  0  0
   13.5874    3.0406    0.0000 H   0  0  0  0  0  0  0  0  0  0  0  0
   11.5263   -1.3894    0.0000 H   0  0  0  0  0  0  0  0  0  0  0  0
   14.6804    1.6936    0.0000 H   0  0  0  0  0  0  0  0  0  0  0  0
   15.5273    1.9206    0.0000 H   0  0  0  0  0  0  0  0  0  0  0  0
   15.3004    2.7675    0.0000 H   0  0  0  0  0  0  0  0  0  0  0  0
   14.7444    3.7306    0.0000 H   0  0  0  0  0  0  0  0  0  0  0  0
   14.1244    4.3506    0.0000 H   0  0  0  0  0  0  0  0  0  0  0  0
   13.5044    3.7306    0.0000 H   0  0  0  0  0  0  0  0  0  0  0  0
    5.1350   -3.4594    0.0000 H   0  0  0  0  0  0  0  0  0  0  0  0
    2.3291   -5.0794    0.0000 H   0  0  0  0  0  0  0  0  0  0  0  0
    5.1350   -5.0794    0.0000 H   0  0  0  0  0  0  0  0  0  0  0  0
    3.7320   -5.8894    0.0000 H   0  0  0  0  0  0  0  0  0  0  0  0
  1 37  1  0  0  0  0
  2 25  1  0  0  0  0
  2 66  1  0  0  0  0
  3 20  2  0  0  0  0
  4 21  2  0  0  0  0
  5 26  2  0  0  0  0
  6 28  1  0  0  0  0
  6 32  1  0  0  0  0
  7 28  2  0  0  0  0
  8 29  1  0  0  0  0
  8 72  1  0  0  0  0
  9 29  2  0  0  0  0
 10 19  1  0  0  0  0
 10 21  1  0  0  0  0
 10 52  1  0  0  0  0
 11 20  1  0  0  0  0
 23 11  1  6  0  0  0
 11 53  1  0  0  0  0
 22 12  1  1  0  0  0
 12 28  1  0  0  0  0
 12 60  1  0  0  0  0
 13 26  1  0  0  0  0
 13 30  1  0  0  0  0
 13 63  1  0  0  0  0
 14 15  1  0  0  0  0
 14 16  1  0  0  0  0
 14 19  1  0  0  0  0
 14 42  1  0  0  0  0
 15 17  1  0  0  0  0
 15 43  1  0  0  0  0
 15 44  1  0  0  0  0
 16 18  1  0  0  0  0
 16 45  1  0  0  0  0
 16 46  1  0  0  0  0
 17 18  1  0  0  0  0
 17 47  1  0  0  0  0
 17 48  1  0  0  0  0
 18 49  1  0  0  0  0
 18 50  1  0  0  0  0
 19 20  1  0  0  0  0
 19 51  1  0  0  0  0
 21 22  1  0  0  0  0
 22 24  1  0  0  0  0
 22 54  1  0  0  0  0
 23 25  1  0  0  0  0
 23 26  1  0  0  0  0
 23 55  1  0  0  0  0
 24 27  1  0  0  0  0
 24 56  1  0  0  0  0
 24 57  1  0  0  0  0
 25 58  1  0  0  0  0
 25 59  1  0  0  0  0
 27 29  1  0  0  0  0
 27 61  1  0  0  0  0
 27 62  1  0  0  0  0
 30 31  1  0  0  0  0
 30 64  1  0  0  0  0
 30 65  1  0  0  0  0
 31 34  1  0  0  0  0
 31 67  1  0  0  0  0
 31 68  1  0  0  0  0
 32 33  1  0  0  0  0
 32 69  1  0  0  0  0
 32 70  1  0  0  0  0
 33 35  1  0  0  0  0
 33 36  1  0  0  0  0
 33 71  1  0  0  0  0
 34 37  1  0  0  0  0
 34 38  2  0  0  0  0
 35 73  1  0  0  0  0
 35 74  1  0  0  0  0
 35 75  1  0  0  0  0
 36 76  1  0  0  0  0
 36 77  1  0  0  0  0
 36 78  1  0  0  0  0
 37 39  2  0  0  0  0
 38 40  1  0  0  0  0
 38 79  1  0  0  0  0
 39 41  1  0  0  0  0
 39 80  1  0  0  0  0
 40 41  2  0  0  0  0
 40 81  1  0  0  0  0
 41 82  1  0  0  0  0
M  END
> <PUBCHEM_COMPOUND_CID>
507579
> <PUBCHEM_COMPOUND_CANONICALIZED>
1
> <PUBCHEM_CACTVS_COMPLEXITY>
888
> <PUBCHEM_CACTVS_HBOND_ACCEPTOR>
8
> <PUBCHEM_CACTVS_HBOND_DONOR>
6
> <PUBCHEM_CACTVS_ROTATABLE_BOND>
17
> <PUBCHEM_CACTVS_SUBSKEYS>
AAADcfB7uABEAAAAAAAAAAAAAAAAAYAAAAAwAAAAAAAAAAABAAAAHgYQCAAADSrl2CayCILABgSIAiHSGAACAAAgBQAIiIGIAokIYDKBkzGcYAAklgCIiAe8n4KOAAAAAAABAAAAAAAAAAIAAAAAAAAAAA==
> <PUBCHEM_IUPAC_OPENEYE_NAME>
(4S)-5-[[2-[[(1R)-2-[2-(2-chlorophenyl)ethylamino]-2-oxo-1-(sulfanylmethyl)ethyl]amino]-1-cyclopentyl-2-oxo-ethyl]amino]-4-(isobutoxycarbonylamino)-5-oxo-pentanoic acid
> <PUBCHEM_IUPAC_CAS_NAME>
(4S)-5-[[2-[[(2R)-1-[2-(2-chlorophenyl)ethylamino]-3-mercapto-1-oxopropan-2-yl]amino]-1-cyclopentyl-2-oxoethyl]amino]-4-[[2-methylpropoxy(oxo)methyl]amino]-5-oxopentanoic acid
> <PUBCHEM_IUPAC_NAME_MARKUP>
(4<I>S</I>)-5-[[2-[[(2<I>R</I>)-1-[2-(2-chlorophenyl)ethylamino]-1-oxo-3-sulfanylpropan-2-yl]amino]-1-cyclopentyl-2-oxoethyl]amino]-4-(2-methylpropoxycarbonylamino)-5-oxopentanoic acid
> <PUBCHEM_IUPAC_NAME>
(4S)-5-[[2-[[(2R)-1-[2-(2-chlorophenyl)ethylamino]-1-oxo-3-sulfanylpropan-2-yl]amino]-1-cyclopentyl-2-oxoethyl]amino]-4-(2-methylpropoxycarbonylamino)-5-oxopentanoic acid
> <PUBCHEM_IUPAC_SYSTEMATIC_NAME>
(4S)-5-[[2-[[(2R)-1-[2-(2-chlorophenyl)ethylamino]-1-oxidanylidene-3-sulfanyl-propan-2-yl]amino]-1-cyclopentyl-2-oxidanylidene-ethyl]amino]-4-(2-methylpropoxycarbonylamino)-5-oxidanylidene-pentanoic acid
> <PUBCHEM_IUPAC_TRADITIONAL_NAME>
(4S)-5-[[2-[[(1R)-2-[2-(2-chlorophenyl)ethylamino]-2-keto-1-(mercaptomethyl)ethyl]amino]-1-cyclopentyl-2-keto-ethyl]amino]-4-(isobutoxycarbonylamino)-5-keto-valeric acid
> <PUBCHEM_IUPAC_INCHI>
InChI=1S/C28H41ClN4O7S/c1-17(2)15-40-28(39)32-21(11-12-23(34)35)26(37)33-24(19-8-3-4-9-19)27(38)31-22(16-41)25(36)30-14-13-18-7-5-6-10-20(18)29/h5-7,10,17,19,21-22,24,41H,3-4,8-9,11-16H2,1-2H3,(H,30,36)(H,31,38)(H,32,39)(H,33,37)(H,34,35)/t21-,22-,24?/m0/s1
> <PUBCHEM_IUPAC_INCHIKEY>
KCHDPOKPYNVYEH-AJVCAZFQSA-N
> <PUBCHEM_XLOGP3_AA>
4
> <PUBCHEM_EXACT_MASS>
612.2384485
> <PUBCHEM_MOLECULAR_FORMULA>
C28H41ClN4O7S
> <PUBCHEM_MOLECULAR_WEIGHT>
613.2
> <PUBCHEM_OPENEYE_CAN_SMILES>
CC(C)COC(=O)NC(CCC(=O)O)C(=O)NC(C1CCCC1)C(=O)NC(CS)C(=O)NCCC2=CC=CC=C2Cl
> <PUBCHEM_OPENEYE_ISO_SMILES>
CC(C)COC(=O)N[C@@H](CCC(=O)O)C(=O)NC(C1CCCC1)C(=O)N[C@@H](CS)C(=O)NCCC2=CC=CC=C2Cl
> <PUBCHEM_CACTVS_TPSA>
164
> <PUBCHEM_MONOISOTOPIC_WEIGHT>
612.2384485
> <PUBCHEM_TOTAL_CHARGE>
0
> <PUBCHEM_HEAVY_ATOM_COUNT>
41
> <PUBCHEM_ATOM_DEF_STEREO_COUNT>
2
> <PUBCHEM_ATOM_UDEF_STEREO_COUNT>
1
> <PUBCHEM_BOND_DEF_STEREO_COUNT>
0
> <PUBCHEM_BOND_UDEF_STEREO_COUNT>
0
> <PUBCHEM_ISOTOPIC_ATOM_COUNT>
0
> <PUBCHEM_COMPONENT_COUNT>
1
> <PUBCHEM_CACTVS_TAUTO_COUNT>
-1
> <PUBCHEM_COORDINATE_TYPE>
1
5
255
> <PUBCHEM_BONDANNOTATIONS>
23  11  6
22  12  5
19  20  3
34  37  8
34  38  8
37  39  8
38  40  8
39  41  8
40  41  8
$$$$
