507544
  -OEChem-10302200282D
 82 83  0     1  0  0  0  0  0999 V2000
   12.5263    4.1900    0.0000 Cl  0  0  0  0  0  0  0  0  0  0  0  0
    3.0000   -1.3100    0.0000 S   0  0  0  0  0  0  0  0  0  0  0  0
    8.1962    4.6900    0.0000 S   0  0  0  0  0  0  0  0  0  0  0  0
    5.5981    4.1900    0.0000 O   0  0  0  0  0  0  0  0  0  0  0  0
    3.0000    1.6900    0.0000 O   0  0  0  0  0  0  0  0  0  0  0  0
    4.0000   -1.3100    0.0000 O   0  0  0  0  0  0  0  0  0  0  0  0
    2.0000   -1.3100    0.0000 O   0  0  0  0  0  0  0  0  0  0  0  0
    8.1962    1.6900    0.0000 O   0  0  0  0  0  0  0  0  0  0  0  0
    7.3301    0.1900    0.0000 O   0  0  0  0  0  0  0  0  0  0  0  0
    6.4641   -1.3100    0.0000 O   0  0  0  0  0  0  0  0  0  0  0  0
    4.7320    1.6900    0.0000 N   0  0  0  0  0  0  0  0  0  0  0  0
    3.0000   -0.3100    0.0000 N   0  0  0  0  0  0  0  0  0  0  0  0
    6.4641    2.6900    0.0000 N   0  0  0  0  0  0  0  0  0  0  0  0
    9.0622    3.1900    0.0000 N   0  0  0  0  0  0  0  0  0  0  0  0
    4.7320    2.6900    0.0000 C   0  0  1  0  0  0  0  0  0  0  0  0
    3.8660    3.1900    0.0000 C   0  0  0  0  0  0  0  0  0  0  0  0
    3.8660    4.1900    0.0000 C   0  0  0  0  0  0  0  0  0  0  0  0
    3.8660    0.1900    0.0000 C   0  0  2  0  0  0  0  0  0  0  0  0
    5.5981    3.1900    0.0000 C   0  0  0  0  0  0  0  0  0  0  0  0
    3.8660    1.1900    0.0000 C   0  0  0  0  0  0  0  0  0  0  0  0
    4.7320   -0.3100    0.0000 C   0  0  0  0  0  0  0  0  0  0  0  0
    3.0000    4.6900    0.0000 C   0  0  0  0  0  0  0  0  0  0  0  0
    4.7320    4.6900    0.0000 C   0  0  0  0  0  0  0  0  0  0  0  0
    7.3301    3.1900    0.0000 C   0  0  1  0  0  0  0  0  0  0  0  0
    5.5981    0.1900    0.0000 C   0  0  0  0  0  0  0  0  0  0  0  0
    7.3301    4.1900    0.0000 C   0  0  0  0  0  0  0  0  0  0  0  0
    8.1962    2.6900    0.0000 C   0  0  0  0  0  0  0  0  0  0  0  0
    3.0000   -2.3100    0.0000 C   0  0  0  0  0  0  0  0  0  0  0  0
    6.4641   -0.3100    0.0000 C   0  0  0  0  0  0  0  0  0  0  0  0
    9.9282    2.6900    0.0000 C   0  0  0  0  0  0  0  0  0  0  0  0
    2.1340   -2.8100    0.0000 C   0  0  0  0  0  0  0  0  0  0  0  0
    3.8660   -2.8100    0.0000 C   0  0  0  0  0  0  0  0  0  0  0  0
   10.7942    3.1900    0.0000 C   0  0  0  0  0  0  0  0  0  0  0  0
    2.1340   -3.8100    0.0000 C   0  0  0  0  0  0  0  0  0  0  0  0
    3.8660   -3.8100    0.0000 C   0  0  0  0  0  0  0  0  0  0  0  0
    3.0000   -4.3100    0.0000 C   0  0  0  0  0  0  0  0  0  0  0  0
   11.6603    2.6900    0.0000 C   0  0  0  0  0  0  0  0  0  0  0  0
    3.0000   -5.3100    0.0000 C   0  0  0  0  0  0  0  0  0  0  0  0
   12.5263    3.1900    0.0000 C   0  0  0  0  0  0  0  0  0  0  0  0
   11.6603    1.6900    0.0000 C   0  0  0  0  0  0  0  0  0  0  0  0
   13.3923    2.6900    0.0000 C   0  0  0  0  0  0  0  0  0  0  0  0
   12.5263    1.1900    0.0000 C   0  0  0  0  0  0  0  0  0  0  0  0
   13.3923    1.6900    0.0000 C   0  0  0  0  0  0  0  0  0  0  0  0
    5.2690    2.3800    0.0000 H   0  0  0  0  0  0  0  0  0  0  0  0
    3.2554    3.2977    0.0000 H   0  0  0  0  0  0  0  0  0  0  0  0
    3.6540    2.6074    0.0000 H   0  0  0  0  0  0  0  0  0  0  0  0
    3.8660    4.8100    0.0000 H   0  0  0  0  0  0  0  0  0  0  0  0
    3.8660   -0.4300    0.0000 H   0  0  0  0  0  0  0  0  0  0  0  0
    5.2690    1.3800    0.0000 H   0  0  0  0  0  0  0  0  0  0  0  0
    4.3335   -0.7849    0.0000 H   0  0  0  0  0  0  0  0  0  0  0  0
    5.1306   -0.7849    0.0000 H   0  0  0  0  0  0  0  0  0  0  0  0
    3.3100    5.2269    0.0000 H   0  0  0  0  0  0  0  0  0  0  0  0
    2.4631    5.0000    0.0000 H   0  0  0  0  0  0  0  0  0  0  0  0
    2.6900    4.1531    0.0000 H   0  0  0  0  0  0  0  0  0  0  0  0
    5.0420    4.1531    0.0000 H   0  0  0  0  0  0  0  0  0  0  0  0
    5.2690    5.0000    0.0000 H   0  0  0  0  0  0  0  0  0  0  0  0
    4.4220    5.2269    0.0000 H   0  0  0  0  0  0  0  0  0  0  0  0
    2.4631    0.0000    0.0000 H   0  0  0  0  0  0  0  0  0  0  0  0
    6.4641    2.0700    0.0000 H   0  0  0  0  0  0  0  0  0  0  0  0
    7.3301    2.5700    0.0000 H   0  0  0  0  0  0  0  0  0  0  0  0
    5.9966    0.6649    0.0000 H   0  0  0  0  0  0  0  0  0  0  0  0
    5.1996    0.6649    0.0000 H   0  0  0  0  0  0  0  0  0  0  0  0
    7.1181    4.7726    0.0000 H   0  0  0  0  0  0  0  0  0  0  0  0
    6.7196    4.0823    0.0000 H   0  0  0  0  0  0  0  0  0  0  0  0
    9.0622    3.8100    0.0000 H   0  0  0  0  0  0  0  0  0  0  0  0
    9.5297    2.2151    0.0000 H   0  0  0  0  0  0  0  0  0  0  0  0
   10.3267    2.2151    0.0000 H   0  0  0  0  0  0  0  0  0  0  0  0
    1.5970   -2.5000    0.0000 H   0  0  0  0  0  0  0  0  0  0  0  0
    4.4030   -2.5000    0.0000 H   0  0  0  0  0  0  0  0  0  0  0  0
   11.1928    3.6650    0.0000 H   0  0  0  0  0  0  0  0  0  0  0  0
   10.3957    3.6650    0.0000 H   0  0  0  0  0  0  0  0  0  0  0  0
    1.5970   -4.1200    0.0000 H   0  0  0  0  0  0  0  0  0  0  0  0
    4.4030   -4.1200    0.0000 H   0  0  0  0  0  0  0  0  0  0  0  0
    8.1962    5.3100    0.0000 H   0  0  0  0  0  0  0  0  0  0  0  0
    7.8671   -0.1200    0.0000 H   0  0  0  0  0  0  0  0  0  0  0  0
    2.3800   -5.3100    0.0000 H   0  0  0  0  0  0  0  0  0  0  0  0
    3.0000   -5.9300    0.0000 H   0  0  0  0  0  0  0  0  0  0  0  0
    3.6200   -5.3100    0.0000 H   0  0  0  0  0  0  0  0  0  0  0  0
   11.1233    1.3800    0.0000 H   0  0  0  0  0  0  0  0  0  0  0  0
   13.9292    3.0000    0.0000 H   0  0  0  0  0  0  0  0  0  0  0  0
   12.5263    0.5700    0.0000 H   0  0  0  0  0  0  0  0  0  0  0  0
   13.9292    1.3800    0.0000 H   0  0  0  0  0  0  0  0  0  0  0  0
  1 39  1  0  0  0  0
  2  6  2  0  0  0  0
  2  7  2  0  0  0  0
  2 12  1  0  0  0  0
  2 28  1  0  0  0  0
  3 26  1  0  0  0  0
  3 74  1  0  0  0  0
  4 19  2  0  0  0  0
  5 20  2  0  0  0  0
  8 27  2  0  0  0  0
  9 29  1  0  0  0  0
  9 75  1  0  0  0  0
 10 29  2  0  0  0  0
 15 11  1  1  0  0  0
 11 20  1  0  0  0  0
 11 49  1  0  0  0  0
 18 12  1  6  0  0  0
 12 58  1  0  0  0  0
 13 19  1  0  0  0  0
 24 13  1  1  0  0  0
 13 59  1  0  0  0  0
 14 27  1  0  0  0  0
 14 30  1  0  0  0  0
 14 65  1  0  0  0  0
 15 16  1  0  0  0  0
 15 19  1  0  0  0  0
 15 44  1  0  0  0  0
 16 17  1  0  0  0  0
 16 45  1  0  0  0  0
 16 46  1  0  0  0  0
 17 22  1  0  0  0  0
 17 23  1  0  0  0  0
 17 47  1  0  0  0  0
 18 20  1  0  0  0  0
 18 21  1  0  0  0  0
 18 48  1  0  0  0  0
 21 25  1  0  0  0  0
 21 50  1  0  0  0  0
 21 51  1  0  0  0  0
 22 52  1  0  0  0  0
 22 53  1  0  0  0  0
 22 54  1  0  0  0  0
 23 55  1  0  0  0  0
 23 56  1  0  0  0  0
 23 57  1  0  0  0  0
 24 26  1  0  0  0  0
 24 27  1  0  0  0  0
 24 60  1  0  0  0  0
 25 29  1  0  0  0  0
 25 61  1  0  0  0  0
 25 62  1  0  0  0  0
 26 63  1  0  0  0  0
 26 64  1  0  0  0  0
 28 31  2  0  0  0  0
 28 32  1  0  0  0  0
 30 33  1  0  0  0  0
 30 66  1  0  0  0  0
 30 67  1  0  0  0  0
 31 34  1  0  0  0  0
 31 68  1  0  0  0  0
 32 35  2  0  0  0  0
 32 69  1  0  0  0  0
 33 37  1  0  0  0  0
 33 70  1  0  0  0  0
 33 71  1  0  0  0  0
 34 36  2  0  0  0  0
 34 72  1  0  0  0  0
 35 36  1  0  0  0  0
 35 73  1  0  0  0  0
 36 38  1  0  0  0  0
 37 39  1  0  0  0  0
 37 40  2  0  0  0  0
 38 76  1  0  0  0  0
 38 77  1  0  0  0  0
 38 78  1  0  0  0  0
 39 41  2  0  0  0  0
 40 42  1  0  0  0  0
 40 79  1  0  0  0  0
 41 43  1  0  0  0  0
 41 80  1  0  0  0  0
 42 43  2  0  0  0  0
 42 81  1  0  0  0  0
 43 82  1  0  0  0  0
M  END
> <PUBCHEM_COMPOUND_CID>
507544
> <PUBCHEM_COMPOUND_CANONICALIZED>
1
> <PUBCHEM_CACTVS_COMPLEXITY>
1030
> <PUBCHEM_CACTVS_HBOND_ACCEPTOR>
9
> <PUBCHEM_CACTVS_HBOND_DONOR>
6
> <PUBCHEM_CACTVS_ROTATABLE_BOND>
17
> <PUBCHEM_CACTVS_SUBSKEYS>
AAADcfB7uABkAAAAAAAAAAAAAAAAAAAAAAAwYAAAAAAAAAABQAAAHgYQSAAADSrF2CSyCYLAAgaIAiHSGHBCABAgBQAIiJmIAogIYDKBkzGUYAAklgCIiAe8l4IOEAAAAAABAAAgAAAAAAIAAAAAAAAAAA==
> <PUBCHEM_IUPAC_OPENEYE_NAME>
(4S)-5-[[(1S)-1-[[(1R)-2-[2-(2-chlorophenyl)ethylamino]-2-oxo-1-(sulfanylmethyl)ethyl]carbamoyl]-3-methyl-butyl]amino]-5-oxo-4-(p-tolylsulfonylamino)pentanoic acid
> <PUBCHEM_IUPAC_CAS_NAME>
(4S)-5-[[(2S)-1-[[(2R)-1-[2-(2-chlorophenyl)ethylamino]-3-mercapto-1-oxopropan-2-yl]amino]-4-methyl-1-oxopentan-2-yl]amino]-4-[(4-methylphenyl)sulfonylamino]-5-oxopentanoic acid
> <PUBCHEM_IUPAC_NAME_MARKUP>
(4<I>S</I>)-5-[[(2<I>S</I>)-1-[[(2<I>R</I>)-1-[2-(2-chlorophenyl)ethylamino]-1-oxo-3-sulfanylpropan-2-yl]amino]-4-methyl-1-oxopentan-2-yl]amino]-4-[(4-methylphenyl)sulfonylamino]-5-oxopentanoic acid
> <PUBCHEM_IUPAC_NAME>
(4S)-5-[[(2S)-1-[[(2R)-1-[2-(2-chlorophenyl)ethylamino]-1-oxo-3-sulfanylpropan-2-yl]amino]-4-methyl-1-oxopentan-2-yl]amino]-4-[(4-methylphenyl)sulfonylamino]-5-oxopentanoic acid
> <PUBCHEM_IUPAC_SYSTEMATIC_NAME>
(4S)-5-[[(2S)-1-[[(2R)-1-[2-(2-chlorophenyl)ethylamino]-1-oxidanylidene-3-sulfanyl-propan-2-yl]amino]-4-methyl-1-oxidanylidene-pentan-2-yl]amino]-4-[(4-methylphenyl)sulfonylamino]-5-oxidanylidene-pentanoic acid
> <PUBCHEM_IUPAC_TRADITIONAL_NAME>
(4S)-5-[[(1S)-1-[[(1R)-2-[2-(2-chlorophenyl)ethylamino]-2-keto-1-(mercaptomethyl)ethyl]carbamoyl]-3-methyl-butyl]amino]-5-keto-4-(tosylamino)valeric acid
> <PUBCHEM_IUPAC_INCHI>
InChI=1S/C29H39ClN4O7S2/c1-18(2)16-24(29(39)33-25(17-42)27(37)31-15-14-20-6-4-5-7-22(20)30)32-28(38)23(12-13-26(35)36)34-43(40,41)21-10-8-19(3)9-11-21/h4-11,18,23-25,34,42H,12-17H2,1-3H3,(H,31,37)(H,32,38)(H,33,39)(H,35,36)/t23-,24-,25-/m0/s1
> <PUBCHEM_IUPAC_INCHIKEY>
BWYZQGPYUVRGSK-SDHOMARFSA-N
> <PUBCHEM_XLOGP3_AA>
3.8
> <PUBCHEM_EXACT_MASS>
654.1948696
> <PUBCHEM_MOLECULAR_FORMULA>
C29H39ClN4O7S2
> <PUBCHEM_MOLECULAR_WEIGHT>
655.2
> <PUBCHEM_OPENEYE_CAN_SMILES>
CC1=CC=C(C=C1)S(=O)(=O)NC(CCC(=O)O)C(=O)NC(CC(C)C)C(=O)NC(CS)C(=O)NCCC2=CC=CC=C2Cl
> <PUBCHEM_OPENEYE_ISO_SMILES>
CC1=CC=C(C=C1)S(=O)(=O)N[C@@H](CCC(=O)O)C(=O)N[C@@H](CC(C)C)C(=O)N[C@@H](CS)C(=O)NCCC2=CC=CC=C2Cl
> <PUBCHEM_CACTVS_TPSA>
180
> <PUBCHEM_MONOISOTOPIC_WEIGHT>
654.1948696
> <PUBCHEM_TOTAL_CHARGE>
0
> <PUBCHEM_HEAVY_ATOM_COUNT>
43
> <PUBCHEM_ATOM_DEF_STEREO_COUNT>
3
> <PUBCHEM_ATOM_UDEF_STEREO_COUNT>
0
> <PUBCHEM_BOND_DEF_STEREO_COUNT>
0
> <PUBCHEM_BOND_UDEF_STEREO_COUNT>
0
> <PUBCHEM_ISOTOPIC_ATOM_COUNT>
0
> <PUBCHEM_COMPONENT_COUNT>
1
> <PUBCHEM_CACTVS_TAUTO_COUNT>
-1
> <PUBCHEM_COORDINATE_TYPE>
1
5
255
> <PUBCHEM_BONDANNOTATIONS>
15  11  5
18  12  6
24  13  5
28  31  8
28  32  8
31  34  8
32  35  8
34  36  8
35  36  8
37  39  8
37  40  8
39  41  8
40  42  8
41  43  8
42  43  8
$$$$
