507599
  -OEChem-10302200282D
 95 97  0     1  0  0  0  0  0999 V2000
    5.4641   -4.5918    0.0000 Cl  0  0  0  0  0  0  0  0  0  0  0  0
    2.0000   -4.5918    0.0000 Cl  0  0  0  0  0  0  0  0  0  0  0  0
    3.7320    1.4082    0.0000 F   0  0  0  0  0  0  0  0  0  0  0  0
    5.4641    1.4082    0.0000 F   0  0  0  0  0  0  0  0  0  0  0  0
    9.5516    2.0241    0.0000 O   0  0  0  0  0  0  0  0  0  0  0  0
    8.4405   -2.1459    0.0000 O   0  0  0  0  0  0  0  0  0  0  0  0
    7.1962   -1.5918    0.0000 O   0  0  0  0  0  0  0  0  0  0  0  0
   11.5016   -4.0511    0.0000 O   0  0  0  0  0  0  0  0  0  0  0  0
    6.3301   -2.0918    0.0000 O   0  0  0  0  0  0  0  0  0  0  0  0
   12.0368   -2.4038    0.0000 O   0  0  0  0  0  0  0  0  0  0  0  0
   13.1676    5.8874    0.0000 O   0  0  0  0  0  0  0  0  0  0  0  0
   11.5853    6.5918    0.0000 O   0  0  0  0  0  0  0  0  0  0  0  0
    8.9757   -0.4986    0.0000 N   0  0  0  0  0  0  0  0  0  0  0  0
    6.3301   -0.0919    0.0000 N   0  0  0  0  0  0  0  0  0  0  0  0
   10.3426   -2.7639    0.0000 N   0  0  0  0  0  0  0  0  0  0  0  0
    4.5981   -2.0918    0.0000 N   0  0  0  0  0  0  0  0  0  0  0  0
    8.0622   -0.0919    0.0000 C   0  0  1  0  0  0  0  0  0  0  0  0
    9.1448    1.1106    0.0000 C   0  0  2  0  0  0  0  0  0  0  0  0
    8.1667    0.9027    0.0000 C   0  0  0  0  0  0  0  0  0  0  0  0
    9.6448    0.2446    0.0000 C   0  0  0  0  0  0  0  0  0  0  0  0
    9.1836   -1.4767    0.0000 C   0  0  0  0  0  0  0  0  0  0  0  0
   10.1347   -1.7858    0.0000 C   0  0  2  0  0  0  0  0  0  0  0  0
    7.1962   -0.5919    0.0000 C   0  0  0  0  0  0  0  0  0  0  0  0
   10.8778   -1.1166    0.0000 C   0  0  0  0  0  0  0  0  0  0  0  0
   10.5461    2.1286    0.0000 C   0  0  0  0  0  0  0  0  0  0  0  0
    5.4641   -0.5919    0.0000 C   0  0  1  0  0  0  0  0  0  0  0  0
   11.8289   -1.4256    0.0000 C   0  0  0  0  0  0  0  0  0  0  0  0
   10.6699   -0.1385    0.0000 C   0  0  0  0  0  0  0  0  0  0  0  0
    4.5981   -0.0919    0.0000 C   0  0  0  0  0  0  0  0  0  0  0  0
   10.9528    3.0422    0.0000 C   0  0  0  0  0  0  0  0  0  0  0  0
    5.4641   -1.5918    0.0000 C   0  0  0  0  0  0  0  0  0  0  0  0
   11.2937   -3.0729    0.0000 C   0  0  0  0  0  0  0  0  0  0  0  0
    4.5981    0.9081    0.0000 C   0  0  0  0  0  0  0  0  0  0  0  0
   10.3651    3.8512    0.0000 C   0  0  0  0  0  0  0  0  0  0  0  0
   11.9474    3.1467    0.0000 C   0  0  0  0  0  0  0  0  0  0  0  0
    4.5981   -3.0918    0.0000 C   0  0  0  0  0  0  0  0  0  0  0  0
   10.7718    4.7648    0.0000 C   0  0  0  0  0  0  0  0  0  0  0  0
   12.3541    4.0603    0.0000 C   0  0  0  0  0  0  0  0  0  0  0  0
   12.4526   -4.3601    0.0000 C   0  0  0  0  0  0  0  0  0  0  0  0
   11.7663    4.8693    0.0000 C   0  0  0  0  0  0  0  0  0  0  0  0
   12.6605   -5.3382    0.0000 C   0  0  0  0  0  0  0  0  0  0  0  0
    3.7320   -3.5918    0.0000 C   0  0  0  0  0  0  0  0  0  0  0  0
    3.7320   -4.5918    0.0000 C   0  0  0  0  0  0  0  0  0  0  0  0
   13.6116   -5.6472    0.0000 C   0  0  0  0  0  0  0  0  0  0  0  0
   11.9174   -6.0074    0.0000 C   0  0  0  0  0  0  0  0  0  0  0  0
   12.1731    5.7828    0.0000 C   0  0  0  0  0  0  0  0  0  0  0  0
    4.5981   -5.0918    0.0000 C   0  0  0  0  0  0  0  0  0  0  0  0
    2.8660   -5.0918    0.0000 C   0  0  0  0  0  0  0  0  0  0  0  0
    4.5981   -6.0918    0.0000 C   0  0  0  0  0  0  0  0  0  0  0  0
    2.8660   -6.0918    0.0000 C   0  0  0  0  0  0  0  0  0  0  0  0
    3.7320   -6.5918    0.0000 C   0  0  0  0  0  0  0  0  0  0  0  0
    8.0946   -0.7110    0.0000 H   0  0  0  0  0  0  0  0  0  0  0  0
    8.7547    1.5924    0.0000 H   0  0  0  0  0  0  0  0  0  0  0  0
    8.1019    1.5193    0.0000 H   0  0  0  0  0  0  0  0  0  0  0  0
    7.5467    0.9027    0.0000 H   0  0  0  0  0  0  0  0  0  0  0  0
   10.0597   -0.2162    0.0000 H   0  0  0  0  0  0  0  0  0  0  0  0
   10.1464    0.6090    0.0000 H   0  0  0  0  0  0  0  0  0  0  0  0
   10.7243   -1.9773    0.0000 H   0  0  0  0  0  0  0  0  0  0  0  0
   10.2882   -0.9250    0.0000 H   0  0  0  0  0  0  0  0  0  0  0  0
    6.3301    0.5281    0.0000 H   0  0  0  0  0  0  0  0  0  0  0  0
   10.5029    1.5102    0.0000 H   0  0  0  0  0  0  0  0  0  0  0  0
   11.1477    1.9787    0.0000 H   0  0  0  0  0  0  0  0  0  0  0  0
    5.4641    0.0281    0.0000 H   0  0  0  0  0  0  0  0  0  0  0  0
    9.8818   -3.1788    0.0000 H   0  0  0  0  0  0  0  0  0  0  0  0
   11.6373   -2.0153    0.0000 H   0  0  0  0  0  0  0  0  0  0  0  0
   12.4185   -1.6172    0.0000 H   0  0  0  0  0  0  0  0  0  0  0  0
   12.0205   -0.8360    0.0000 H   0  0  0  0  0  0  0  0  0  0  0  0
   11.2764   -0.0096    0.0000 H   0  0  0  0  0  0  0  0  0  0  0  0
   10.5410    0.4680    0.0000 H   0  0  0  0  0  0  0  0  0  0  0  0
   10.0635   -0.2674    0.0000 H   0  0  0  0  0  0  0  0  0  0  0  0
    3.9875    0.0158    0.0000 H   0  0  0  0  0  0  0  0  0  0  0  0
    4.3860   -0.6745    0.0000 H   0  0  0  0  0  0  0  0  0  0  0  0
    4.5981    1.5281    0.0000 H   0  0  0  0  0  0  0  0  0  0  0  0
    9.7485    3.7864    0.0000 H   0  0  0  0  0  0  0  0  0  0  0  0
   12.3118    2.6451    0.0000 H   0  0  0  0  0  0  0  0  0  0  0  0
    4.0611   -1.7818    0.0000 H   0  0  0  0  0  0  0  0  0  0  0  0
    4.8101   -3.6745    0.0000 H   0  0  0  0  0  0  0  0  0  0  0  0
    5.2087   -2.9842    0.0000 H   0  0  0  0  0  0  0  0  0  0  0  0
   10.4074    5.2664    0.0000 H   0  0  0  0  0  0  0  0  0  0  0  0
   12.9707    4.1251    0.0000 H   0  0  0  0  0  0  0  0  0  0  0  0
   13.0723   -4.3384    0.0000 H   0  0  0  0  0  0  0  0  0  0  0  0
   12.5389   -3.7461    0.0000 H   0  0  0  0  0  0  0  0  0  0  0  0
   12.0709   -5.1466    0.0000 H   0  0  0  0  0  0  0  0  0  0  0  0
    3.5200   -3.0092    0.0000 H   0  0  0  0  0  0  0  0  0  0  0  0
    3.1215   -3.6995    0.0000 H   0  0  0  0  0  0  0  0  0  0  0  0
   13.4200   -6.2369    0.0000 H   0  0  0  0  0  0  0  0  0  0  0  0
   14.2013   -5.8388    0.0000 H   0  0  0  0  0  0  0  0  0  0  0  0
   13.8032   -5.0576    0.0000 H   0  0  0  0  0  0  0  0  0  0  0  0
   11.5025   -5.5466    0.0000 H   0  0  0  0  0  0  0  0  0  0  0  0
   11.4566   -6.4222    0.0000 H   0  0  0  0  0  0  0  0  0  0  0  0
   12.3323   -6.4681    0.0000 H   0  0  0  0  0  0  0  0  0  0  0  0
    5.1350   -6.4018    0.0000 H   0  0  0  0  0  0  0  0  0  0  0  0
    2.3291   -6.4018    0.0000 H   0  0  0  0  0  0  0  0  0  0  0  0
   13.4198    6.4538    0.0000 H   0  0  0  0  0  0  0  0  0  0  0  0
    3.7320   -7.2118    0.0000 H   0  0  0  0  0  0  0  0  0  0  0  0
  1 47  1  0  0  0  0
  2 48  1  0  0  0  0
  3 33  1  0  0  0  0
  4 33  1  0  0  0  0
 18  5  1  1  0  0  0
  5 25  1  0  0  0  0
  6 21  2  0  0  0  0
  7 23  2  0  0  0  0
  8 32  1  0  0  0  0
  8 39  1  0  0  0  0
  9 31  2  0  0  0  0
 10 32  2  0  0  0  0
 11 46  1  0  0  0  0
 11 94  1  0  0  0  0
 12 46  2  0  0  0  0
 13 17  1  0  0  0  0
 13 20  1  0  0  0  0
 13 21  1  0  0  0  0
 14 23  1  0  0  0  0
 26 14  1  6  0  0  0
 14 60  1  0  0  0  0
 22 15  1  6  0  0  0
 15 32  1  0  0  0  0
 15 64  1  0  0  0  0
 16 31  1  0  0  0  0
 16 36  1  0  0  0  0
 16 76  1  0  0  0  0
 17 19  1  0  0  0  0
 17 23  1  6  0  0  0
 17 52  1  0  0  0  0
 18 19  1  0  0  0  0
 18 20  1  0  0  0  0
 18 53  1  0  0  0  0
 19 54  1  0  0  0  0
 19 55  1  0  0  0  0
 20 56  1  0  0  0  0
 20 57  1  0  0  0  0
 21 22  1  0  0  0  0
 22 24  1  0  0  0  0
 22 58  1  0  0  0  0
 24 27  1  0  0  0  0
 24 28  1  0  0  0  0
 24 59  1  0  0  0  0
 25 30  1  0  0  0  0
 25 61  1  0  0  0  0
 25 62  1  0  0  0  0
 26 29  1  0  0  0  0
 26 31  1  0  0  0  0
 26 63  1  0  0  0  0
 27 65  1  0  0  0  0
 27 66  1  0  0  0  0
 27 67  1  0  0  0  0
 28 68  1  0  0  0  0
 28 69  1  0  0  0  0
 28 70  1  0  0  0  0
 29 33  1  0  0  0  0
 29 71  1  0  0  0  0
 29 72  1  0  0  0  0
 30 34  2  0  0  0  0
 30 35  1  0  0  0  0
 33 73  1  0  0  0  0
 34 37  1  0  0  0  0
 34 74  1  0  0  0  0
 35 38  2  0  0  0  0
 35 75  1  0  0  0  0
 36 42  1  0  0  0  0
 36 77  1  0  0  0  0
 36 78  1  0  0  0  0
 37 40  2  0  0  0  0
 37 79  1  0  0  0  0
 38 40  1  0  0  0  0
 38 80  1  0  0  0  0
 39 41  1  0  0  0  0
 39 81  1  0  0  0  0
 39 82  1  0  0  0  0
 40 46  1  0  0  0  0
 41 44  1  0  0  0  0
 41 45  1  0  0  0  0
 41 83  1  0  0  0  0
 42 43  1  0  0  0  0
 42 84  1  0  0  0  0
 42 85  1  0  0  0  0
 43 47  2  0  0  0  0
 43 48  1  0  0  0  0
 44 86  1  0  0  0  0
 44 87  1  0  0  0  0
 44 88  1  0  0  0  0
 45 89  1  0  0  0  0
 45 90  1  0  0  0  0
 45 91  1  0  0  0  0
 47 49  1  0  0  0  0
 48 50  2  0  0  0  0
 49 51  2  0  0  0  0
 49 92  1  0  0  0  0
 50 51  1  0  0  0  0
 50 93  1  0  0  0  0
 51 95  1  0  0  0  0
M  END
> <PUBCHEM_COMPOUND_CID>
507599
> <PUBCHEM_COMPOUND_CANONICALIZED>
1
> <PUBCHEM_CACTVS_COMPLEXITY>
1170
> <PUBCHEM_CACTVS_HBOND_ACCEPTOR>
10
> <PUBCHEM_CACTVS_HBOND_DONOR>
4
> <PUBCHEM_CACTVS_ROTATABLE_BOND>
18
> <PUBCHEM_CACTVS_SUBSKEYS>
AAADcfB/vYAGAAAAAAAAAAAAAAAAAWAAAAAwYAAAAAAAAAABQAAAHwIQCAAADT7hmDYyCIPABgCIAiHSGAACAAAkBQAIiIGICskKZjKBtzmfcQAm1gGYuYe6ybCOQAAAAACBAACAAAAAAQIAAAAAAAAAAA==
> <PUBCHEM_IUPAC_OPENEYE_NAME>
4-[[(3R,5S)-5-[[(1S)-1-[2-(2,6-dichlorophenyl)ethylcarbamoyl]-3,3-difluoro-propyl]carbamoyl]-1-[(2S)-2-(isobutoxycarbonylamino)-3-methyl-butanoyl]pyrrolidin-3-yl]oxymethyl]benzoic acid
> <PUBCHEM_IUPAC_CAS_NAME>
4-[[(3R,5S)-5-[[[(2S)-1-[2-(2,6-dichlorophenyl)ethylamino]-4,4-difluoro-1-oxobutan-2-yl]amino]-oxomethyl]-1-[(2S)-3-methyl-2-[[2-methylpropoxy(oxo)methyl]amino]-1-oxobutyl]-3-pyrrolidinyl]oxymethyl]benzoic acid
> <PUBCHEM_IUPAC_NAME_MARKUP>
4-[[(3<I>R</I>,5<I>S</I>)-5-[[(2<I>S</I>)-1-[2-(2,6-dichlorophenyl)ethylamino]-4,4-difluoro-1-oxobutan-2-yl]carbamoyl]-1-[(2<I>S</I>)-3-methyl-2-(2-methylpropoxycarbonylamino)butanoyl]pyrrolidin-3-yl]oxymethyl]benzoic acid
> <PUBCHEM_IUPAC_NAME>
4-[[(3R,5S)-5-[[(2S)-1-[2-(2,6-dichlorophenyl)ethylamino]-4,4-difluoro-1-oxobutan-2-yl]carbamoyl]-1-[(2S)-3-methyl-2-(2-methylpropoxycarbonylamino)butanoyl]pyrrolidin-3-yl]oxymethyl]benzoic acid
> <PUBCHEM_IUPAC_SYSTEMATIC_NAME>
4-[[(3R,5S)-5-[[(2S)-1-[2-[2,6-bis(chloranyl)phenyl]ethylamino]-4,4-bis(fluoranyl)-1-oxidanylidene-butan-2-yl]carbamoyl]-1-[(2S)-3-methyl-2-(2-methylpropoxycarbonylamino)butanoyl]pyrrolidin-3-yl]oxymethyl]benzoic acid
> <PUBCHEM_IUPAC_TRADITIONAL_NAME>
4-[[(3R,5S)-5-[[(1S)-1-[2-(2,6-dichlorophenyl)ethylcarbamoyl]-3,3-difluoro-propyl]carbamoyl]-1-[(2S)-2-(isobutoxycarbonylamino)-3-methyl-butanoyl]pyrrolidin-3-yl]oxymethyl]benzoic acid
> <PUBCHEM_IUPAC_INCHI>
InChI=1S/C35H44Cl2F2N4O8/c1-19(2)17-51-35(49)42-30(20(3)4)33(46)43-16-23(50-18-21-8-10-22(11-9-21)34(47)48)14-28(43)32(45)41-27(15-29(38)39)31(44)40-13-12-24-25(36)6-5-7-26(24)37/h5-11,19-20,23,27-30H,12-18H2,1-4H3,(H,40,44)(H,41,45)(H,42,49)(H,47,48)/t23-,27+,28+,30+/m1/s1
> <PUBCHEM_IUPAC_INCHIKEY>
GLEAPOLZYHMJJL-PBNCGBIJSA-N
> <PUBCHEM_XLOGP3_AA>
6.4
> <PUBCHEM_EXACT_MASS>
756.2504261
> <PUBCHEM_MOLECULAR_FORMULA>
C35H44Cl2F2N4O8
> <PUBCHEM_MOLECULAR_WEIGHT>
757.6
> <PUBCHEM_OPENEYE_CAN_SMILES>
CC(C)COC(=O)NC(C(C)C)C(=O)N1CC(CC1C(=O)NC(CC(F)F)C(=O)NCCC2=C(C=CC=C2Cl)Cl)OCC3=CC=C(C=C3)C(=O)O
> <PUBCHEM_OPENEYE_ISO_SMILES>
CC(C)COC(=O)N[C@@H](C(C)C)C(=O)N1C[C@@H](C[C@H]1C(=O)N[C@@H](CC(F)F)C(=O)NCCC2=C(C=CC=C2Cl)Cl)OCC3=CC=C(C=C3)C(=O)O
> <PUBCHEM_CACTVS_TPSA>
163
> <PUBCHEM_MONOISOTOPIC_WEIGHT>
756.2504261
> <PUBCHEM_TOTAL_CHARGE>
0
> <PUBCHEM_HEAVY_ATOM_COUNT>
51
> <PUBCHEM_ATOM_DEF_STEREO_COUNT>
4
> <PUBCHEM_ATOM_UDEF_STEREO_COUNT>
0
> <PUBCHEM_BOND_DEF_STEREO_COUNT>
0
> <PUBCHEM_BOND_UDEF_STEREO_COUNT>
0
> <PUBCHEM_ISOTOPIC_ATOM_COUNT>
0
> <PUBCHEM_COMPONENT_COUNT>
1
> <PUBCHEM_CACTVS_TAUTO_COUNT>
-1
> <PUBCHEM_COORDINATE_TYPE>
1
5
255
> <PUBCHEM_BONDANNOTATIONS>
26  14  6
22  15  6
17  23  6
30  34  8
30  35  8
34  37  8
35  38  8
37  40  8
38  40  8
43  47  8
43  48  8
47  49  8
48  50  8
49  51  8
18  5  5
50  51  8
$$$$
