507527
  -OEChem-10302200282D
 91 92  0     1  0  0  0  0  0999 V2000
    4.4487    0.6488    0.0000 S   0  0  0  0  0  0  0  0  0  0  0  0
    6.1808    5.6488    0.0000 O   0  0  0  0  0  0  0  0  0  0  0  0
    5.3147    2.1488    0.0000 O   0  0  0  0  0  0  0  0  0  0  0  0
    5.3147    1.1488    0.0000 O   0  0  0  0  0  0  0  0  0  0  0  0
    7.9128    6.6488    0.0000 O   0  0  0  0  0  0  0  0  0  0  0  0
    8.7788    5.1488    0.0000 O   0  0  0  0  0  0  0  0  0  0  0  0
    6.1808   -2.3512    0.0000 O   0  0  0  0  0  0  0  0  0  0  0  0
    3.5827   -7.8512    0.0000 O   0  0  0  0  0  0  0  0  0  0  0  0
    5.3147    4.1488    0.0000 N   0  0  0  0  0  0  0  0  0  0  0  0
    7.0468    2.1488    0.0000 N   0  0  0  0  0  0  0  0  0  0  0  0
    6.1808   -0.3512    0.0000 N   0  0  0  0  0  0  0  0  0  0  0  0
    4.4487   -2.3512    0.0000 N   0  0  0  0  0  0  0  0  0  0  0  0
    3.5827    7.1488    0.0000 C   0  0  0  0  0  0  0  0  0  0  0  0
    2.6691    6.7420    0.0000 C   0  0  0  0  0  0  0  0  0  0  0  0
    3.4782    8.1433    0.0000 C   0  0  0  0  0  0  0  0  0  0  0  0
    2.0000    7.4852    0.0000 C   0  0  0  0  0  0  0  0  0  0  0  0
    2.5000    8.3512    0.0000 C   0  0  0  0  0  0  0  0  0  0  0  0
    4.4487    6.6488    0.0000 C   0  0  0  0  0  0  0  0  0  0  0  0
    4.4487    5.6488    0.0000 C   0  0  0  0  0  0  0  0  0  0  0  0
    5.3147    5.1488    0.0000 C   0  0  0  0  0  0  0  0  0  0  0  0
    6.1808    3.6488    0.0000 C   0  0  1  0  0  0  0  0  0  0  0  0
    7.0468    4.1488    0.0000 C   0  0  0  0  0  0  0  0  0  0  0  0
    7.0468    1.1488    0.0000 C   0  0  1  0  0  0  0  0  0  0  0  0
    6.1808    2.6488    0.0000 C   0  0  0  0  0  0  0  0  0  0  0  0
    7.9128    0.6488    0.0000 C   0  0  0  0  0  0  0  0  0  0  0  0
    8.7788    1.1488    0.0000 C   0  0  0  0  0  0  0  0  0  0  0  0
    7.0468    5.1488    0.0000 C   0  0  0  0  0  0  0  0  0  0  0  0
    6.1808    0.6488    0.0000 C   0  0  0  0  0  0  0  0  0  0  0  0
    9.6448    0.6488    0.0000 C   0  0  0  0  0  0  0  0  0  0  0  0
    8.7788    2.1488    0.0000 C   0  0  0  0  0  0  0  0  0  0  0  0
    5.3147   -0.8512    0.0000 C   0  0  1  0  0  0  0  0  0  0  0  0
    7.9128    5.6488    0.0000 C   0  0  0  0  0  0  0  0  0  0  0  0
    4.4487   -0.3512    0.0000 C   0  0  0  0  0  0  0  0  0  0  0  0
    5.3147   -1.8512    0.0000 C   0  0  0  0  0  0  0  0  0  0  0  0
    4.4487   -3.3512    0.0000 C   0  0  0  0  0  0  0  0  0  0  0  0
    3.5827   -3.8512    0.0000 C   0  0  0  0  0  0  0  0  0  0  0  0
    3.5827   -4.8512    0.0000 C   0  0  0  0  0  0  0  0  0  0  0  0
    4.4487   -5.3512    0.0000 C   0  0  0  0  0  0  0  0  0  0  0  0
    2.7166   -5.3512    0.0000 C   0  0  0  0  0  0  0  0  0  0  0  0
    4.4487   -6.3512    0.0000 C   0  0  0  0  0  0  0  0  0  0  0  0
    2.7166   -6.3512    0.0000 C   0  0  0  0  0  0  0  0  0  0  0  0
    3.5827   -6.8512    0.0000 C   0  0  0  0  0  0  0  0  0  0  0  0
    2.7166   -8.3512    0.0000 C   0  0  0  0  0  0  0  0  0  0  0  0
    4.1026    7.4865    0.0000 H   0  0  0  0  0  0  0  0  0  0  0  0
    2.1675    6.3776    0.0000 H   0  0  0  0  0  0  0  0  0  0  0  0
    2.9791    6.2051    0.0000 H   0  0  0  0  0  0  0  0  0  0  0  0
    4.0982    8.1433    0.0000 H   0  0  0  0  0  0  0  0  0  0  0  0
    3.5430    8.7599    0.0000 H   0  0  0  0  0  0  0  0  0  0  0  0
    1.4984    7.8496    0.0000 H   0  0  0  0  0  0  0  0  0  0  0  0
    1.5851    7.0244    0.0000 H   0  0  0  0  0  0  0  0  0  0  0  0
    2.6916    8.9409    0.0000 H   0  0  0  0  0  0  0  0  0  0  0  0
    1.9336    8.6034    0.0000 H   0  0  0  0  0  0  0  0  0  0  0  0
    5.0593    6.5411    0.0000 H   0  0  0  0  0  0  0  0  0  0  0  0
    4.6608    7.2314    0.0000 H   0  0  0  0  0  0  0  0  0  0  0  0
    3.8381    5.7564    0.0000 H   0  0  0  0  0  0  0  0  0  0  0  0
    4.2366    5.0662    0.0000 H   0  0  0  0  0  0  0  0  0  0  0  0
    4.7778    3.8388    0.0000 H   0  0  0  0  0  0  0  0  0  0  0  0
    6.1808    4.2688    0.0000 H   0  0  0  0  0  0  0  0  0  0  0  0
    7.2588    3.5662    0.0000 H   0  0  0  0  0  0  0  0  0  0  0  0
    7.6574    4.2564    0.0000 H   0  0  0  0  0  0  0  0  0  0  0  0
    7.5837    1.4588    0.0000 H   0  0  0  0  0  0  0  0  0  0  0  0
    7.5143    0.1738    0.0000 H   0  0  0  0  0  0  0  0  0  0  0  0
    8.3113    0.1738    0.0000 H   0  0  0  0  0  0  0  0  0  0  0  0
    9.3158    1.4588    0.0000 H   0  0  0  0  0  0  0  0  0  0  0  0
    7.5837    2.4588    0.0000 H   0  0  0  0  0  0  0  0  0  0  0  0
    6.8347    5.7314    0.0000 H   0  0  0  0  0  0  0  0  0  0  0  0
    6.4362    5.0411    0.0000 H   0  0  0  0  0  0  0  0  0  0  0  0
    9.3348    0.1118    0.0000 H   0  0  0  0  0  0  0  0  0  0  0  0
   10.1818    0.3388    0.0000 H   0  0  0  0  0  0  0  0  0  0  0  0
    9.9548    1.1857    0.0000 H   0  0  0  0  0  0  0  0  0  0  0  0
    9.3988    2.1488    0.0000 H   0  0  0  0  0  0  0  0  0  0  0  0
    8.7788    2.7688    0.0000 H   0  0  0  0  0  0  0  0  0  0  0  0
    8.1588    2.1488    0.0000 H   0  0  0  0  0  0  0  0  0  0  0  0
    6.7177   -0.6612    0.0000 H   0  0  0  0  0  0  0  0  0  0  0  0
    5.3147   -0.2312    0.0000 H   0  0  0  0  0  0  0  0  0  0  0  0
    3.8381   -0.2436    0.0000 H   0  0  0  0  0  0  0  0  0  0  0  0
    4.2366   -0.9338    0.0000 H   0  0  0  0  0  0  0  0  0  0  0  0
    3.9118   -2.0412    0.0000 H   0  0  0  0  0  0  0  0  0  0  0  0
    4.6608   -3.9338    0.0000 H   0  0  0  0  0  0  0  0  0  0  0  0
    5.0593   -3.2436    0.0000 H   0  0  0  0  0  0  0  0  0  0  0  0
    8.4497    6.9588    0.0000 H   0  0  0  0  0  0  0  0  0  0  0  0
    3.3706   -3.2686    0.0000 H   0  0  0  0  0  0  0  0  0  0  0  0
    2.9721   -3.9589    0.0000 H   0  0  0  0  0  0  0  0  0  0  0  0
    3.9118    0.9588    0.0000 H   0  0  0  0  0  0  0  0  0  0  0  0
    4.9856   -5.0412    0.0000 H   0  0  0  0  0  0  0  0  0  0  0  0
    2.1797   -5.0412    0.0000 H   0  0  0  0  0  0  0  0  0  0  0  0
    4.9856   -6.6612    0.0000 H   0  0  0  0  0  0  0  0  0  0  0  0
    2.1797   -6.6612    0.0000 H   0  0  0  0  0  0  0  0  0  0  0  0
    2.4066   -7.8143    0.0000 H   0  0  0  0  0  0  0  0  0  0  0  0
    2.1797   -8.6612    0.0000 H   0  0  0  0  0  0  0  0  0  0  0  0
    3.0266   -8.8882    0.0000 H   0  0  0  0  0  0  0  0  0  0  0  0
  1 33  1  0  0  0  0
  1 84  1  0  0  0  0
  2 20  2  0  0  0  0
  3 24  2  0  0  0  0
  4 28  2  0  0  0  0
  5 32  1  0  0  0  0
  5 81  1  0  0  0  0
  6 32  2  0  0  0  0
  7 34  2  0  0  0  0
  8 42  1  0  0  0  0
  8 43  1  0  0  0  0
  9 20  1  0  0  0  0
 21  9  1  1  0  0  0
  9 57  1  0  0  0  0
 23 10  1  1  0  0  0
 10 24  1  0  0  0  0
 10 65  1  0  0  0  0
 11 28  1  0  0  0  0
 31 11  1  6  0  0  0
 11 74  1  0  0  0  0
 12 34  1  0  0  0  0
 12 35  1  0  0  0  0
 12 78  1  0  0  0  0
 13 14  1  0  0  0  0
 13 15  1  0  0  0  0
 13 18  1  0  0  0  0
 13 44  1  0  0  0  0
 14 16  1  0  0  0  0
 14 45  1  0  0  0  0
 14 46  1  0  0  0  0
 15 17  1  0  0  0  0
 15 47  1  0  0  0  0
 15 48  1  0  0  0  0
 16 17  1  0  0  0  0
 16 49  1  0  0  0  0
 16 50  1  0  0  0  0
 17 51  1  0  0  0  0
 17 52  1  0  0  0  0
 18 19  1  0  0  0  0
 18 53  1  0  0  0  0
 18 54  1  0  0  0  0
 19 20  1  0  0  0  0
 19 55  1  0  0  0  0
 19 56  1  0  0  0  0
 21 22  1  0  0  0  0
 21 24  1  0  0  0  0
 21 58  1  0  0  0  0
 22 27  1  0  0  0  0
 22 59  1  0  0  0  0
 22 60  1  0  0  0  0
 23 25  1  0  0  0  0
 23 28  1  0  0  0  0
 23 61  1  0  0  0  0
 25 26  1  0  0  0  0
 25 62  1  0  0  0  0
 25 63  1  0  0  0  0
 26 29  1  0  0  0  0
 26 30  1  0  0  0  0
 26 64  1  0  0  0  0
 27 32  1  0  0  0  0
 27 66  1  0  0  0  0
 27 67  1  0  0  0  0
 29 68  1  0  0  0  0
 29 69  1  0  0  0  0
 29 70  1  0  0  0  0
 30 71  1  0  0  0  0
 30 72  1  0  0  0  0
 30 73  1  0  0  0  0
 31 33  1  0  0  0  0
 31 34  1  0  0  0  0
 31 75  1  0  0  0  0
 33 76  1  0  0  0  0
 33 77  1  0  0  0  0
 35 36  1  0  0  0  0
 35 79  1  0  0  0  0
 35 80  1  0  0  0  0
 36 37  1  0  0  0  0
 36 82  1  0  0  0  0
 36 83  1  0  0  0  0
 37 38  2  0  0  0  0
 37 39  1  0  0  0  0
 38 40  1  0  0  0  0
 38 85  1  0  0  0  0
 39 41  2  0  0  0  0
 39 86  1  0  0  0  0
 40 42  2  0  0  0  0
 40 87  1  0  0  0  0
 41 42  1  0  0  0  0
 41 88  1  0  0  0  0
 43 89  1  0  0  0  0
 43 90  1  0  0  0  0
 43 91  1  0  0  0  0
M  END
> <PUBCHEM_COMPOUND_CID>
507527
> <PUBCHEM_COMPOUND_CANONICALIZED>
1
> <PUBCHEM_CACTVS_COMPLEXITY>
905
> <PUBCHEM_CACTVS_HBOND_ACCEPTOR>
8
> <PUBCHEM_CACTVS_HBOND_DONOR>
6
> <PUBCHEM_CACTVS_ROTATABLE_BOND>
19
> <PUBCHEM_CACTVS_SUBSKEYS>
AAADcfB7uABAAAAAAAAAAAAAAAAAAYAAAAAwAAAAAAAAAAABAAAAHgQQCAAADSzF2AayDoLABgSIAiHSGAACCAAgIAAIiIGOCIgMZjKEsTuUcCAk1hGIqAe834KOIAAAAAAAAABAAAAAAAAAAAAAAAAAAA==
> <PUBCHEM_IUPAC_OPENEYE_NAME>
(4S)-4-(3-cyclopentylpropanoylamino)-5-[[(1S)-1-[[(1R)-2-[2-(4-methoxyphenyl)ethylamino]-2-oxo-1-(sulfanylmethyl)ethyl]carbamoyl]-3-methyl-butyl]amino]-5-oxo-pentanoic acid
> <PUBCHEM_IUPAC_CAS_NAME>
(4S)-4-[(3-cyclopentyl-1-oxopropyl)amino]-5-[[(2S)-1-[[(2R)-3-mercapto-1-[2-(4-methoxyphenyl)ethylamino]-1-oxopropan-2-yl]amino]-4-methyl-1-oxopentan-2-yl]amino]-5-oxopentanoic acid
> <PUBCHEM_IUPAC_NAME_MARKUP>
(4<I>S</I>)-4-(3-cyclopentylpropanoylamino)-5-[[(2<I>S</I>)-1-[[(2<I>R</I>)-1-[2-(4-methoxyphenyl)ethylamino]-1-oxo-3-sulfanylpropan-2-yl]amino]-4-methyl-1-oxopentan-2-yl]amino]-5-oxopentanoic acid
> <PUBCHEM_IUPAC_NAME>
(4S)-4-(3-cyclopentylpropanoylamino)-5-[[(2S)-1-[[(2R)-1-[2-(4-methoxyphenyl)ethylamino]-1-oxo-3-sulfanylpropan-2-yl]amino]-4-methyl-1-oxopentan-2-yl]amino]-5-oxopentanoic acid
> <PUBCHEM_IUPAC_SYSTEMATIC_NAME>
(4S)-4-(3-cyclopentylpropanoylamino)-5-[[(2S)-1-[[(2R)-1-[2-(4-methoxyphenyl)ethylamino]-1-oxidanylidene-3-sulfanyl-propan-2-yl]amino]-4-methyl-1-oxidanylidene-pentan-2-yl]amino]-5-oxidanylidene-pentanoic acid
> <PUBCHEM_IUPAC_TRADITIONAL_NAME>
(4S)-4-(3-cyclopentylpropanoylamino)-5-keto-5-[[(1S)-1-[[(1R)-2-keto-1-(mercaptomethyl)-2-[2-(4-methoxyphenyl)ethylamino]ethyl]carbamoyl]-3-methyl-butyl]amino]valeric acid
> <PUBCHEM_IUPAC_INCHI>
InChI=1S/C31H48N4O7S/c1-20(2)18-25(31(41)35-26(19-43)29(39)32-17-16-22-8-11-23(42-3)12-9-22)34-30(40)24(13-15-28(37)38)33-27(36)14-10-21-6-4-5-7-21/h8-9,11-12,20-21,24-26,43H,4-7,10,13-19H2,1-3H3,(H,32,39)(H,33,36)(H,34,40)(H,35,41)(H,37,38)/t24-,25-,26-/m0/s1
> <PUBCHEM_IUPAC_INCHIKEY>
MCNOLAKOALIIGU-GSDHBNRESA-N
> <PUBCHEM_XLOGP3_AA>
3.9
> <PUBCHEM_EXACT_MASS>
620.32437106
> <PUBCHEM_MOLECULAR_FORMULA>
C31H48N4O7S
> <PUBCHEM_MOLECULAR_WEIGHT>
620.8
> <PUBCHEM_OPENEYE_CAN_SMILES>
CC(C)CC(C(=O)NC(CS)C(=O)NCCC1=CC=C(C=C1)OC)NC(=O)C(CCC(=O)O)NC(=O)CCC2CCCC2
> <PUBCHEM_OPENEYE_ISO_SMILES>
CC(C)C[C@@H](C(=O)N[C@@H](CS)C(=O)NCCC1=CC=C(C=C1)OC)NC(=O)[C@H](CCC(=O)O)NC(=O)CCC2CCCC2
> <PUBCHEM_CACTVS_TPSA>
164
> <PUBCHEM_MONOISOTOPIC_WEIGHT>
620.32437106
> <PUBCHEM_TOTAL_CHARGE>
0
> <PUBCHEM_HEAVY_ATOM_COUNT>
43
> <PUBCHEM_ATOM_DEF_STEREO_COUNT>
3
> <PUBCHEM_ATOM_UDEF_STEREO_COUNT>
0
> <PUBCHEM_BOND_DEF_STEREO_COUNT>
0
> <PUBCHEM_BOND_UDEF_STEREO_COUNT>
0
> <PUBCHEM_ISOTOPIC_ATOM_COUNT>
0
> <PUBCHEM_COMPONENT_COUNT>
1
> <PUBCHEM_CACTVS_TAUTO_COUNT>
-1
> <PUBCHEM_COORDINATE_TYPE>
1
5
255
> <PUBCHEM_BONDANNOTATIONS>
23  10  5
31  11  6
37  38  8
37  39  8
38  40  8
39  41  8
40  42  8
41  42  8
21  9  5
$$$$
