507511
  -OEChem-10302200282D
 89 91  0     1  0  0  0  0  0999 V2000
    5.5981    1.3450    0.0000 S   0  0  0  0  0  0  0  0  0  0  0  0
    7.3301    6.3450    0.0000 O   0  0  0  0  0  0  0  0  0  0  0  0
    6.4641    2.8450    0.0000 O   0  0  0  0  0  0  0  0  0  0  0  0
    9.0622    7.3450    0.0000 O   0  0  0  0  0  0  0  0  0  0  0  0
    6.4641    1.8450    0.0000 O   0  0  0  0  0  0  0  0  0  0  0  0
    9.9282    5.8450    0.0000 O   0  0  0  0  0  0  0  0  0  0  0  0
    7.3301   -1.6550    0.0000 O   0  0  0  0  0  0  0  0  0  0  0  0
    4.7320   -7.1550    0.0000 O   0  0  0  0  0  0  0  0  0  0  0  0
    6.4641    4.8450    0.0000 N   0  0  0  0  0  0  0  0  0  0  0  0
    8.1962    2.8450    0.0000 N   0  0  0  0  0  0  0  0  0  0  0  0
    7.3301    0.3450    0.0000 N   0  0  0  0  0  0  0  0  0  0  0  0
    5.5981   -1.6550    0.0000 N   0  0  0  0  0  0  0  0  0  0  0  0
    4.5981    6.3450    0.0000 C   0  0  1  0  0  0  0  0  0  0  0  0
    5.5981    6.3450    0.0000 C   0  0  3  0  0  0  0  0  0  0  0  0
    5.0981    7.2110    0.0000 C   0  0  0  0  0  0  0  0  0  0  0  0
    3.7320    5.8450    0.0000 C   0  0  0  0  0  0  0  0  0  0  0  0
    6.4641    5.8450    0.0000 C   0  0  0  0  0  0  0  0  0  0  0  0
    2.8660    6.3450    0.0000 C   0  0  0  0  0  0  0  0  0  0  0  0
    3.7320    4.8450    0.0000 C   0  0  0  0  0  0  0  0  0  0  0  0
    7.3301    4.3450    0.0000 C   0  0  1  0  0  0  0  0  0  0  0  0
    2.0000    5.8450    0.0000 C   0  0  0  0  0  0  0  0  0  0  0  0
    2.8660    4.3450    0.0000 C   0  0  0  0  0  0  0  0  0  0  0  0
    8.1962    4.8450    0.0000 C   0  0  0  0  0  0  0  0  0  0  0  0
    2.0000    4.8450    0.0000 C   0  0  0  0  0  0  0  0  0  0  0  0
    7.3301    3.3450    0.0000 C   0  0  0  0  0  0  0  0  0  0  0  0
    8.1962    5.8450    0.0000 C   0  0  0  0  0  0  0  0  0  0  0  0
    8.1962    1.8450    0.0000 C   0  0  1  0  0  0  0  0  0  0  0  0
    9.0622    1.3450    0.0000 C   0  0  0  0  0  0  0  0  0  0  0  0
    9.9282    1.8450    0.0000 C   0  0  0  0  0  0  0  0  0  0  0  0
    7.3301    1.3450    0.0000 C   0  0  0  0  0  0  0  0  0  0  0  0
    9.0622    6.3450    0.0000 C   0  0  0  0  0  0  0  0  0  0  0  0
   10.7942    1.3450    0.0000 C   0  0  0  0  0  0  0  0  0  0  0  0
    9.9282    2.8450    0.0000 C   0  0  0  0  0  0  0  0  0  0  0  0
    6.4641   -0.1550    0.0000 C   0  0  1  0  0  0  0  0  0  0  0  0
    5.5981    0.3450    0.0000 C   0  0  0  0  0  0  0  0  0  0  0  0
    6.4641   -1.1550    0.0000 C   0  0  0  0  0  0  0  0  0  0  0  0
    5.5981   -2.6550    0.0000 C   0  0  0  0  0  0  0  0  0  0  0  0
    4.7320   -3.1550    0.0000 C   0  0  0  0  0  0  0  0  0  0  0  0
    4.7320   -4.1550    0.0000 C   0  0  0  0  0  0  0  0  0  0  0  0
    3.8660   -4.6550    0.0000 C   0  0  0  0  0  0  0  0  0  0  0  0
    5.5981   -4.6550    0.0000 C   0  0  0  0  0  0  0  0  0  0  0  0
    3.8660   -5.6550    0.0000 C   0  0  0  0  0  0  0  0  0  0  0  0
    5.5981   -5.6550    0.0000 C   0  0  0  0  0  0  0  0  0  0  0  0
    4.7320   -6.1550    0.0000 C   0  0  0  0  0  0  0  0  0  0  0  0
    3.8660   -7.6550    0.0000 C   0  0  0  0  0  0  0  0  0  0  0  0
    4.7585    5.7461    0.0000 H   0  0  0  0  0  0  0  0  0  0  0  0
    5.4376    5.7461    0.0000 H   0  0  0  0  0  0  0  0  0  0  0  0
    5.5730    7.6096    0.0000 H   0  0  0  0  0  0  0  0  0  0  0  0
    4.6231    7.6096    0.0000 H   0  0  0  0  0  0  0  0  0  0  0  0
    5.9272    4.5350    0.0000 H   0  0  0  0  0  0  0  0  0  0  0  0
    2.8660    6.9650    0.0000 H   0  0  0  0  0  0  0  0  0  0  0  0
    4.2690    4.5350    0.0000 H   0  0  0  0  0  0  0  0  0  0  0  0
    7.3301    4.9650    0.0000 H   0  0  0  0  0  0  0  0  0  0  0  0
    1.4631    6.1550    0.0000 H   0  0  0  0  0  0  0  0  0  0  0  0
    2.8660    3.7250    0.0000 H   0  0  0  0  0  0  0  0  0  0  0  0
    8.4082    4.2624    0.0000 H   0  0  0  0  0  0  0  0  0  0  0  0
    8.8067    4.9527    0.0000 H   0  0  0  0  0  0  0  0  0  0  0  0
    1.4631    4.5350    0.0000 H   0  0  0  0  0  0  0  0  0  0  0  0
    7.9841    6.4276    0.0000 H   0  0  0  0  0  0  0  0  0  0  0  0
    7.5856    5.7373    0.0000 H   0  0  0  0  0  0  0  0  0  0  0  0
    8.7331    3.1550    0.0000 H   0  0  0  0  0  0  0  0  0  0  0  0
    8.7331    2.1550    0.0000 H   0  0  0  0  0  0  0  0  0  0  0  0
    8.6636    0.8701    0.0000 H   0  0  0  0  0  0  0  0  0  0  0  0
    9.4607    0.8701    0.0000 H   0  0  0  0  0  0  0  0  0  0  0  0
   10.4651    2.1550    0.0000 H   0  0  0  0  0  0  0  0  0  0  0  0
   10.4842    0.8081    0.0000 H   0  0  0  0  0  0  0  0  0  0  0  0
   11.3312    1.0350    0.0000 H   0  0  0  0  0  0  0  0  0  0  0  0
   11.1042    1.8819    0.0000 H   0  0  0  0  0  0  0  0  0  0  0  0
   10.5482    2.8450    0.0000 H   0  0  0  0  0  0  0  0  0  0  0  0
    9.9282    3.4650    0.0000 H   0  0  0  0  0  0  0  0  0  0  0  0
    9.3082    2.8450    0.0000 H   0  0  0  0  0  0  0  0  0  0  0  0
    7.8671    0.0350    0.0000 H   0  0  0  0  0  0  0  0  0  0  0  0
    6.4641    0.4650    0.0000 H   0  0  0  0  0  0  0  0  0  0  0  0
    9.5991    7.6550    0.0000 H   0  0  0  0  0  0  0  0  0  0  0  0
    4.9875    0.4527    0.0000 H   0  0  0  0  0  0  0  0  0  0  0  0
    5.3860   -0.2376    0.0000 H   0  0  0  0  0  0  0  0  0  0  0  0
    5.0611   -1.3450    0.0000 H   0  0  0  0  0  0  0  0  0  0  0  0
    5.8101   -3.2376    0.0000 H   0  0  0  0  0  0  0  0  0  0  0  0
    6.2087   -2.5473    0.0000 H   0  0  0  0  0  0  0  0  0  0  0  0
    4.5200   -2.5724    0.0000 H   0  0  0  0  0  0  0  0  0  0  0  0
    4.1215   -3.2627    0.0000 H   0  0  0  0  0  0  0  0  0  0  0  0
    5.0611    1.6550    0.0000 H   0  0  0  0  0  0  0  0  0  0  0  0
    3.3291   -4.3450    0.0000 H   0  0  0  0  0  0  0  0  0  0  0  0
    6.1350   -4.3450    0.0000 H   0  0  0  0  0  0  0  0  0  0  0  0
    3.3291   -5.9650    0.0000 H   0  0  0  0  0  0  0  0  0  0  0  0
    6.1350   -5.9650    0.0000 H   0  0  0  0  0  0  0  0  0  0  0  0
    3.5560   -7.1181    0.0000 H   0  0  0  0  0  0  0  0  0  0  0  0
    3.3291   -7.9650    0.0000 H   0  0  0  0  0  0  0  0  0  0  0  0
    4.1760   -8.1919    0.0000 H   0  0  0  0  0  0  0  0  0  0  0  0
  1 35  1  0  0  0  0
  1 82  1  0  0  0  0
  2 17  2  0  0  0  0
  3 25  2  0  0  0  0
  4 31  1  0  0  0  0
  4 74  1  0  0  0  0
  5 30  2  0  0  0  0
  6 31  2  0  0  0  0
  7 36  2  0  0  0  0
  8 44  1  0  0  0  0
  8 45  1  0  0  0  0
  9 17  1  0  0  0  0
 20  9  1  1  0  0  0
  9 50  1  0  0  0  0
 10 25  1  0  0  0  0
 27 10  1  1  0  0  0
 10 61  1  0  0  0  0
 11 30  1  0  0  0  0
 34 11  1  6  0  0  0
 11 72  1  0  0  0  0
 12 36  1  0  0  0  0
 12 37  1  0  0  0  0
 12 77  1  0  0  0  0
 13 14  1  0  0  0  0
 13 15  1  0  0  0  0
 13 16  1  6  0  0  0
 13 46  1  0  0  0  0
 14 15  1  0  0  0  0
 14 17  1  0  0  0  0
 14 47  1  0  0  0  0
 15 48  1  0  0  0  0
 15 49  1  0  0  0  0
 16 18  2  0  0  0  0
 16 19  1  0  0  0  0
 18 21  1  0  0  0  0
 18 51  1  0  0  0  0
 19 22  2  0  0  0  0
 19 52  1  0  0  0  0
 20 23  1  0  0  0  0
 20 25  1  0  0  0  0
 20 53  1  0  0  0  0
 21 24  2  0  0  0  0
 21 54  1  0  0  0  0
 22 24  1  0  0  0  0
 22 55  1  0  0  0  0
 23 26  1  0  0  0  0
 23 56  1  0  0  0  0
 23 57  1  0  0  0  0
 24 58  1  0  0  0  0
 26 31  1  0  0  0  0
 26 59  1  0  0  0  0
 26 60  1  0  0  0  0
 27 28  1  0  0  0  0
 27 30  1  0  0  0  0
 27 62  1  0  0  0  0
 28 29  1  0  0  0  0
 28 63  1  0  0  0  0
 28 64  1  0  0  0  0
 29 32  1  0  0  0  0
 29 33  1  0  0  0  0
 29 65  1  0  0  0  0
 32 66  1  0  0  0  0
 32 67  1  0  0  0  0
 32 68  1  0  0  0  0
 33 69  1  0  0  0  0
 33 70  1  0  0  0  0
 33 71  1  0  0  0  0
 34 35  1  0  0  0  0
 34 36  1  0  0  0  0
 34 73  1  0  0  0  0
 35 75  1  0  0  0  0
 35 76  1  0  0  0  0
 37 38  1  0  0  0  0
 37 78  1  0  0  0  0
 37 79  1  0  0  0  0
 38 39  1  0  0  0  0
 38 80  1  0  0  0  0
 38 81  1  0  0  0  0
 39 40  2  0  0  0  0
 39 41  1  0  0  0  0
 40 42  1  0  0  0  0
 40 83  1  0  0  0  0
 41 43  2  0  0  0  0
 41 84  1  0  0  0  0
 42 44  2  0  0  0  0
 42 85  1  0  0  0  0
 43 44  1  0  0  0  0
 43 86  1  0  0  0  0
 45 87  1  0  0  0  0
 45 88  1  0  0  0  0
 45 89  1  0  0  0  0
M  END
> <PUBCHEM_COMPOUND_CID>
507511
> <PUBCHEM_COMPOUND_CANONICALIZED>
1
> <PUBCHEM_CACTVS_COMPLEXITY>
998
> <PUBCHEM_CACTVS_HBOND_ACCEPTOR>
8
> <PUBCHEM_CACTVS_HBOND_DONOR>
6
> <PUBCHEM_CACTVS_ROTATABLE_BOND>
18
> <PUBCHEM_CACTVS_SUBSKEYS>
AAADcfB/uABAAAAAAAAAAAAAGAAAAAAAAAAwYAAAAAAAAAABQAAAHgQQCAAADSzF2AayDoLABgSIAiHSGAACCAAgIAAIiIGOCIgMZjKEsTuUcCAk1hGIqAe838KOoAAAAAAAAABAAAAAAAAAAAAAAAAAAA==
> <PUBCHEM_IUPAC_OPENEYE_NAME>
(4S)-5-[[(1S)-1-[[(1R)-2-[2-(4-methoxyphenyl)ethylamino]-2-oxo-1-(sulfanylmethyl)ethyl]carbamoyl]-3-methyl-butyl]amino]-5-oxo-4-[[(2R)-2-phenylcyclopropanecarbonyl]amino]pentanoic acid
> <PUBCHEM_IUPAC_CAS_NAME>
(4S)-5-[[(2S)-1-[[(2R)-3-mercapto-1-[2-(4-methoxyphenyl)ethylamino]-1-oxopropan-2-yl]amino]-4-methyl-1-oxopentan-2-yl]amino]-5-oxo-4-[[oxo-[(2R)-2-phenylcyclopropyl]methyl]amino]pentanoic acid
> <PUBCHEM_IUPAC_NAME_MARKUP>
(4<I>S</I>)-5-[[(2<I>S</I>)-1-[[(2<I>R</I>)-1-[2-(4-methoxyphenyl)ethylamino]-1-oxo-3-sulfanylpropan-2-yl]amino]-4-methyl-1-oxopentan-2-yl]amino]-5-oxo-4-[[(2<I>R</I>)-2-phenylcyclopropanecarbonyl]amino]pentanoic acid
> <PUBCHEM_IUPAC_NAME>
(4S)-5-[[(2S)-1-[[(2R)-1-[2-(4-methoxyphenyl)ethylamino]-1-oxo-3-sulfanylpropan-2-yl]amino]-4-methyl-1-oxopentan-2-yl]amino]-5-oxo-4-[[(2R)-2-phenylcyclopropanecarbonyl]amino]pentanoic acid
> <PUBCHEM_IUPAC_SYSTEMATIC_NAME>
(4S)-5-[[(2S)-1-[[(2R)-1-[2-(4-methoxyphenyl)ethylamino]-1-oxidanylidene-3-sulfanyl-propan-2-yl]amino]-4-methyl-1-oxidanylidene-pentan-2-yl]amino]-5-oxidanylidene-4-[[(2R)-2-phenylcyclopropyl]carbonylamino]pentanoic acid
> <PUBCHEM_IUPAC_TRADITIONAL_NAME>
(4S)-5-keto-5-[[(1S)-1-[[(1R)-2-keto-1-(mercaptomethyl)-2-[2-(4-methoxyphenyl)ethylamino]ethyl]carbamoyl]-3-methyl-butyl]amino]-4-[[(2R)-2-phenylcyclopropanecarbonyl]amino]valeric acid
> <PUBCHEM_IUPAC_INCHI>
InChI=1S/C33H44N4O7S/c1-20(2)17-27(33(43)37-28(19-45)31(41)34-16-15-21-9-11-23(44-3)12-10-21)36-32(42)26(13-14-29(38)39)35-30(40)25-18-24(25)22-7-5-4-6-8-22/h4-12,20,24-28,45H,13-19H2,1-3H3,(H,34,41)(H,35,40)(H,36,42)(H,37,43)(H,38,39)/t24-,25?,26-,27-,28-/m0/s1
> <PUBCHEM_IUPAC_INCHIKEY>
DRZXKFWYVKLLIS-KWMIJKRVSA-N
> <PUBCHEM_XLOGP3_AA>
3.3
> <PUBCHEM_EXACT_MASS>
640.29307093
> <PUBCHEM_MOLECULAR_FORMULA>
C33H44N4O7S
> <PUBCHEM_MOLECULAR_WEIGHT>
640.8
> <PUBCHEM_OPENEYE_CAN_SMILES>
CC(C)CC(C(=O)NC(CS)C(=O)NCCC1=CC=C(C=C1)OC)NC(=O)C(CCC(=O)O)NC(=O)C2CC2C3=CC=CC=C3
> <PUBCHEM_OPENEYE_ISO_SMILES>
CC(C)C[C@@H](C(=O)N[C@@H](CS)C(=O)NCCC1=CC=C(C=C1)OC)NC(=O)[C@H](CCC(=O)O)NC(=O)C2C[C@H]2C3=CC=CC=C3
> <PUBCHEM_CACTVS_TPSA>
164
> <PUBCHEM_MONOISOTOPIC_WEIGHT>
640.29307093
> <PUBCHEM_TOTAL_CHARGE>
0
> <PUBCHEM_HEAVY_ATOM_COUNT>
45
> <PUBCHEM_ATOM_DEF_STEREO_COUNT>
4
> <PUBCHEM_ATOM_UDEF_STEREO_COUNT>
1
> <PUBCHEM_BOND_DEF_STEREO_COUNT>
0
> <PUBCHEM_BOND_UDEF_STEREO_COUNT>
0
> <PUBCHEM_ISOTOPIC_ATOM_COUNT>
0
> <PUBCHEM_COMPONENT_COUNT>
1
> <PUBCHEM_CACTVS_TAUTO_COUNT>
-1
> <PUBCHEM_COORDINATE_TYPE>
1
5
255
> <PUBCHEM_BONDANNOTATIONS>
27  10  5
34  11  6
13  16  6
14  17  3
16  18  8
16  19  8
18  21  8
19  22  8
21  24  8
22  24  8
39  40  8
39  41  8
40  42  8
41  43  8
42  44  8
43  44  8
20  9  5
$$$$
