507556
  -OEChem-10302200282D
141144  0     1  0  0  0  0  0999 V2000
    6.0010   -1.7500    0.0000 S   0  0  0  0  0  0  0  0  0  0  0  0
    6.8671   -1.2500    0.0000 O   0  0  0  0  0  0  0  0  0  0  0  0
    6.8671   -0.2500    0.0000 O   0  0  0  0  0  0  0  0  0  0  0  0
    7.7331    3.2500    0.0000 O   0  0  0  0  0  0  0  0  0  0  0  0
    7.7331   -4.7500    0.0000 O   0  0  0  0  0  0  0  0  0  0  0  0
    9.4651    4.2500    0.0000 O   0  0  0  0  0  0  0  0  0  0  0  0
   10.3312    2.7500    0.0000 O   0  0  0  0  0  0  0  0  0  0  0  0
    7.7331    4.2500    0.0000 O   0  0  0  0  0  0  0  0  0  0  0  0
    6.8671    7.7500    0.0000 O   0  0  0  0  0  0  0  0  0  0  0  0
    8.5991    8.7500    0.0000 O   0  0  0  0  0  0  0  0  0  0  0  0
    9.4651    7.2500    0.0000 O   0  0  0  0  0  0  0  0  0  0  0  0
    3.4030   -9.2500    0.0000 O   0  0  0  0  0  0  0  0  0  0  0  0
    2.5369    7.2500    0.0000 O   0  0  0  0  0  0  0  0  0  0  0  0
    3.4030    8.7500    0.0000 O   0  0  0  0  0  0  0  0  0  0  0  0
    6.8671    8.7500    0.0000 O   0  0  0  0  0  0  0  0  0  0  0  0
    8.5991   -0.2500    0.0000 N   0  0  0  0  0  0  0  0  0  0  0  0
    7.7331   -2.7500    0.0000 N   0  0  0  0  0  0  0  0  0  0  0  0
    6.8671    1.7500    0.0000 N   0  0  0  0  0  0  0  0  0  0  0  0
    6.0010    4.2500    0.0000 N   0  0  0  0  0  0  0  0  0  0  0  0
    6.0010   -4.7500    0.0000 N   0  0  0  0  0  0  0  0  0  0  0  0
    6.0010    6.2500    0.0000 N   0  0  0  0  0  0  0  0  0  0  0  0
    5.1350    8.7500    0.0000 N   0  0  0  0  0  0  0  0  0  0  0  0
   10.3312   -1.2500    0.0000 C   0  0  0  0  0  0  0  0  0  0  0  0
   11.1972   -1.7500    0.0000 C   0  0  0  0  0  0  0  0  0  0  0  0
   10.3312   -0.2500    0.0000 C   0  0  0  0  0  0  0  0  0  0  0  0
   12.0632   -1.2500    0.0000 C   0  0  0  0  0  0  0  0  0  0  0  0
   11.1972    0.2500    0.0000 C   0  0  0  0  0  0  0  0  0  0  0  0
    9.4651   -1.7500    0.0000 C   0  0  0  0  0  0  0  0  0  0  0  0
   12.0632   -0.2500    0.0000 C   0  0  0  0  0  0  0  0  0  0  0  0
    8.5991   -1.2500    0.0000 C   0  0  1  0  0  0  0  0  0  0  0  0
    7.7331   -1.7500    0.0000 C   0  0  0  0  0  0  0  0  0  0  0  0
    7.7331    0.2500    0.0000 C   0  0  0  0  0  0  0  0  0  0  0  0
    7.7331    1.2500    0.0000 C   0  0  2  0  0  0  0  0  0  0  0  0
    6.8671   -3.2500    0.0000 C   0  0  1  0  0  0  0  0  0  0  0  0
    8.5991    1.7500    0.0000 C   0  0  0  0  0  0  0  0  0  0  0  0
    6.0010   -2.7500    0.0000 C   0  0  0  0  0  0  0  0  0  0  0  0
    6.0010    3.2500    0.0000 C   0  0  2  0  0  0  0  0  0  0  0  0
    8.5991    2.7500    0.0000 C   0  0  0  0  0  0  0  0  0  0  0  0
    6.8671    2.7500    0.0000 C   0  0  0  0  0  0  0  0  0  0  0  0
    6.8671   -4.2500    0.0000 C   0  0  0  0  0  0  0  0  0  0  0  0
    5.1350    2.7500    0.0000 C   0  0  0  0  0  0  0  0  0  0  0  0
    4.2690    3.2500    0.0000 C   0  0  0  0  0  0  0  0  0  0  0  0
    4.6351    1.8839    0.0000 C   0  0  0  0  0  0  0  0  0  0  0  0
    9.4651    3.2500    0.0000 C   0  0  0  0  0  0  0  0  0  0  0  0
    6.8671    4.7500    0.0000 C   0  0  0  0  0  0  0  0  0  0  0  0
    6.8671    5.7500    0.0000 C   0  0  2  0  0  0  0  0  0  0  0  0
    6.0010   -5.7500    0.0000 C   0  0  0  0  0  0  0  0  0  0  0  0
    4.2690    4.2500    0.0000 C   0  0  0  0  0  0  0  0  0  0  0  0
    3.6350    1.8839    0.0000 C   0  0  0  0  0  0  0  0  0  0  0  0
    3.4030    2.7500    0.0000 C   0  0  0  0  0  0  0  0  0  0  0  0
    5.1350    1.0180    0.0000 C   0  0  0  0  0  0  0  0  0  0  0  0
    7.7331    6.2500    0.0000 C   0  0  0  0  0  0  0  0  0  0  0  0
    5.1350   -6.2500    0.0000 C   0  0  0  0  0  0  0  0  0  0  0  0
    3.4030    4.7500    0.0000 C   0  0  0  0  0  0  0  0  0  0  0  0
    3.1350    1.0179    0.0000 C   0  0  0  0  0  0  0  0  0  0  0  0
    2.5369    3.2500    0.0000 C   0  0  0  0  0  0  0  0  0  0  0  0
    4.6350    0.1519    0.0000 C   0  0  0  0  0  0  0  0  0  0  0  0
    7.7331    7.2500    0.0000 C   0  0  0  0  0  0  0  0  0  0  0  0
    2.5369    4.2500    0.0000 C   0  0  0  0  0  0  0  0  0  0  0  0
    3.6351    0.1519    0.0000 C   0  0  0  0  0  0  0  0  0  0  0  0
    6.0010    7.2500    0.0000 C   0  0  0  0  0  0  0  0  0  0  0  0
    5.1350   -7.2500    0.0000 C   0  0  0  0  0  0  0  0  0  0  0  0
    5.1350    7.7500    0.0000 C   0  0  2  0  0  0  0  0  0  0  0  0
    8.5991    7.7500    0.0000 C   0  0  0  0  0  0  0  0  0  0  0  0
    4.2690    7.2500    0.0000 C   0  0  0  0  0  0  0  0  0  0  0  0
    4.2690   -7.7500    0.0000 C   0  0  0  0  0  0  0  0  0  0  0  0
    6.0010   -7.7500    0.0000 C   0  0  0  0  0  0  0  0  0  0  0  0
    4.2690   -8.7500    0.0000 C   0  0  0  0  0  0  0  0  0  0  0  0
    6.0010   -8.7500    0.0000 C   0  0  0  0  0  0  0  0  0  0  0  0
    3.4030    7.7500    0.0000 C   0  0  0  0  0  0  0  0  0  0  0  0
    5.1350   -9.2500    0.0000 C   0  0  0  0  0  0  0  0  0  0  0  0
    6.0010    9.2500    0.0000 C   0  0  0  0  0  0  0  0  0  0  0  0
    6.0010   10.2500    0.0000 C   0  0  0  0  0  0  0  0  0  0  0  0
    3.4030  -10.2500    0.0000 C   0  0  0  0  0  0  0  0  0  0  0  0
    9.7942   -0.9400    0.0000 H   0  0  0  0  0  0  0  0  0  0  0  0
   10.7987   -2.2250    0.0000 H   0  0  0  0  0  0  0  0  0  0  0  0
   11.5957   -2.2250    0.0000 H   0  0  0  0  0  0  0  0  0  0  0  0
   10.1191    0.3326    0.0000 H   0  0  0  0  0  0  0  0  0  0  0  0
    9.7206   -0.3577    0.0000 H   0  0  0  0  0  0  0  0  0  0  0  0
   12.2753   -1.8326    0.0000 H   0  0  0  0  0  0  0  0  0  0  0  0
   12.6738   -1.1423    0.0000 H   0  0  0  0  0  0  0  0  0  0  0  0
   11.5957    0.7249    0.0000 H   0  0  0  0  0  0  0  0  0  0  0  0
   10.7987    0.7249    0.0000 H   0  0  0  0  0  0  0  0  0  0  0  0
    9.0666   -2.2250    0.0000 H   0  0  0  0  0  0  0  0  0  0  0  0
    9.8637   -2.2250    0.0000 H   0  0  0  0  0  0  0  0  0  0  0  0
   12.6738   -0.3577    0.0000 H   0  0  0  0  0  0  0  0  0  0  0  0
   12.2753    0.3326    0.0000 H   0  0  0  0  0  0  0  0  0  0  0  0
    8.0622   -0.9400    0.0000 H   0  0  0  0  0  0  0  0  0  0  0  0
    9.1360    0.0600    0.0000 H   0  0  0  0  0  0  0  0  0  0  0  0
    8.2700   -3.0600    0.0000 H   0  0  0  0  0  0  0  0  0  0  0  0
    7.7331    1.8700    0.0000 H   0  0  0  0  0  0  0  0  0  0  0  0
    7.4040   -3.5600    0.0000 H   0  0  0  0  0  0  0  0  0  0  0  0
    8.8112    1.1674    0.0000 H   0  0  0  0  0  0  0  0  0  0  0  0
    9.2097    1.8577    0.0000 H   0  0  0  0  0  0  0  0  0  0  0  0
    6.3301    1.4400    0.0000 H   0  0  0  0  0  0  0  0  0  0  0  0
    6.5380    3.5600    0.0000 H   0  0  0  0  0  0  0  0  0  0  0  0
    5.3905   -2.6423    0.0000 H   0  0  0  0  0  0  0  0  0  0  0  0
    5.7890   -3.3326    0.0000 H   0  0  0  0  0  0  0  0  0  0  0  0
    8.3871    3.3326    0.0000 H   0  0  0  0  0  0  0  0  0  0  0  0
    7.9885    2.6423    0.0000 H   0  0  0  0  0  0  0  0  0  0  0  0
    5.5734    2.3116    0.0000 H   0  0  0  0  0  0  0  0  0  0  0  0
    5.4641    4.5600    0.0000 H   0  0  0  0  0  0  0  0  0  0  0  0
    5.4641   -4.4400    0.0000 H   0  0  0  0  0  0  0  0  0  0  0  0
    5.4641   -1.4400    0.0000 H   0  0  0  0  0  0  0  0  0  0  0  0
    6.3301    5.4400    0.0000 H   0  0  0  0  0  0  0  0  0  0  0  0
    6.2131   -6.3326    0.0000 H   0  0  0  0  0  0  0  0  0  0  0  0
    6.6116   -5.6423    0.0000 H   0  0  0  0  0  0  0  0  0  0  0  0
    4.8059    4.5600    0.0000 H   0  0  0  0  0  0  0  0  0  0  0  0
    3.3250    2.4209    0.0000 H   0  0  0  0  0  0  0  0  0  0  0  0
    3.4030    2.1300    0.0000 H   0  0  0  0  0  0  0  0  0  0  0  0
    5.7550    1.0179    0.0000 H   0  0  0  0  0  0  0  0  0  0  0  0
    7.9451    5.6674    0.0000 H   0  0  0  0  0  0  0  0  0  0  0  0
    8.3437    6.3577    0.0000 H   0  0  0  0  0  0  0  0  0  0  0  0
    4.9230   -5.6674    0.0000 H   0  0  0  0  0  0  0  0  0  0  0  0
    4.5244   -6.3577    0.0000 H   0  0  0  0  0  0  0  0  0  0  0  0
    5.4641    5.9400    0.0000 H   0  0  0  0  0  0  0  0  0  0  0  0
    3.4030    5.3700    0.0000 H   0  0  0  0  0  0  0  0  0  0  0  0
    2.5150    1.0179    0.0000 H   0  0  0  0  0  0  0  0  0  0  0  0
    2.0000    2.9400    0.0000 H   0  0  0  0  0  0  0  0  0  0  0  0
    4.9450   -0.3850    0.0000 H   0  0  0  0  0  0  0  0  0  0  0  0
    7.5210    7.8326    0.0000 H   0  0  0  0  0  0  0  0  0  0  0  0
    7.1225    7.1423    0.0000 H   0  0  0  0  0  0  0  0  0  0  0  0
   10.0021    4.5600    0.0000 H   0  0  0  0  0  0  0  0  0  0  0  0
    2.0000    4.5600    0.0000 H   0  0  0  0  0  0  0  0  0  0  0  0
    3.3251   -0.3851    0.0000 H   0  0  0  0  0  0  0  0  0  0  0  0
    5.6720    8.0600    0.0000 H   0  0  0  0  0  0  0  0  0  0  0  0
    3.8705    6.7750    0.0000 H   0  0  0  0  0  0  0  0  0  0  0  0
    4.6675    6.7750    0.0000 H   0  0  0  0  0  0  0  0  0  0  0  0
    3.7320   -7.4400    0.0000 H   0  0  0  0  0  0  0  0  0  0  0  0
    6.5380   -7.4400    0.0000 H   0  0  0  0  0  0  0  0  0  0  0  0
    4.5981    9.0600    0.0000 H   0  0  0  0  0  0  0  0  0  0  0  0
    6.5380   -9.0600    0.0000 H   0  0  0  0  0  0  0  0  0  0  0  0
    5.1350   -9.8700    0.0000 H   0  0  0  0  0  0  0  0  0  0  0  0
    9.1360    9.0600    0.0000 H   0  0  0  0  0  0  0  0  0  0  0  0
    6.6210   10.2500    0.0000 H   0  0  0  0  0  0  0  0  0  0  0  0
    6.0010   10.8700    0.0000 H   0  0  0  0  0  0  0  0  0  0  0  0
    5.3810   10.2500    0.0000 H   0  0  0  0  0  0  0  0  0  0  0  0
    2.0000    7.5600    0.0000 H   0  0  0  0  0  0  0  0  0  0  0  0
    2.7830  -10.2500    0.0000 H   0  0  0  0  0  0  0  0  0  0  0  0
    3.4030  -10.8700    0.0000 H   0  0  0  0  0  0  0  0  0  0  0  0
    4.0230  -10.2500    0.0000 H   0  0  0  0  0  0  0  0  0  0  0  0
  1 36  1  0  0  0  0
  1104  1  0  0  0  0
  2 31  2  0  0  0  0
  3 32  2  0  0  0  0
  4 39  2  0  0  0  0
  5 40  2  0  0  0  0
  6 44  1  0  0  0  0
  6123  1  0  0  0  0
  7 44  2  0  0  0  0
  8 45  2  0  0  0  0
  9 61  2  0  0  0  0
 10 64  1  0  0  0  0
 10134  1  0  0  0  0
 11 64  2  0  0  0  0
 12 68  1  0  0  0  0
 12 74  1  0  0  0  0
 13 70  1  0  0  0  0
 13138  1  0  0  0  0
 14 70  2  0  0  0  0
 15 72  2  0  0  0  0
 30 16  1  1  0  0  0
 16 32  1  0  0  0  0
 16 89  1  0  0  0  0
 17 31  1  0  0  0  0
 34 17  1  6  0  0  0
 17 90  1  0  0  0  0
 33 18  1  1  0  0  0
 18 39  1  0  0  0  0
 18 95  1  0  0  0  0
 37 19  1  6  0  0  0
 19 45  1  0  0  0  0
 19102  1  0  0  0  0
 20 40  1  0  0  0  0
 20 47  1  0  0  0  0
 20103  1  0  0  0  0
 46 21  1  1  0  0  0
 21 61  1  0  0  0  0
 21116  1  0  0  0  0
 63 22  1  6  0  0  0
 22 72  1  0  0  0  0
 22131  1  0  0  0  0
 23 24  1  0  0  0  0
 23 25  1  0  0  0  0
 23 28  1  0  0  0  0
 23 75  1  0  0  0  0
 24 26  1  0  0  0  0
 24 76  1  0  0  0  0
 24 77  1  0  0  0  0
 25 27  1  0  0  0  0
 25 78  1  0  0  0  0
 25 79  1  0  0  0  0
 26 29  1  0  0  0  0
 26 80  1  0  0  0  0
 26 81  1  0  0  0  0
 27 29  1  0  0  0  0
 27 82  1  0  0  0  0
 27 83  1  0  0  0  0
 28 30  1  0  0  0  0
 28 84  1  0  0  0  0
 28 85  1  0  0  0  0
 29 86  1  0  0  0  0
 29 87  1  0  0  0  0
 30 31  1  0  0  0  0
 30 88  1  0  0  0  0
 32 33  1  0  0  0  0
 33 35  1  0  0  0  0
 33 91  1  0  0  0  0
 34 36  1  0  0  0  0
 34 40  1  0  0  0  0
 34 92  1  0  0  0  0
 35 38  1  0  0  0  0
 35 93  1  0  0  0  0
 35 94  1  0  0  0  0
 36 97  1  0  0  0  0
 36 98  1  0  0  0  0
 37 39  1  0  0  0  0
 37 41  1  0  0  0  0
 37 96  1  0  0  0  0
 38 44  1  0  0  0  0
 38 99  1  0  0  0  0
 38100  1  0  0  0  0
 41 42  1  0  0  0  0
 41 43  1  0  0  0  0
 41101  1  0  0  0  0
 42 48  2  0  0  0  0
 42 50  1  0  0  0  0
 43 49  2  0  0  0  0
 43 51  1  0  0  0  0
 45 46  1  0  0  0  0
 46 52  1  0  0  0  0
 46105  1  0  0  0  0
 47 53  1  0  0  0  0
 47106  1  0  0  0  0
 47107  1  0  0  0  0
 48 54  1  0  0  0  0
 48108  1  0  0  0  0
 49 55  1  0  0  0  0
 49109  1  0  0  0  0
 50 56  2  0  0  0  0
 50110  1  0  0  0  0
 51 57  2  0  0  0  0
 51111  1  0  0  0  0
 52 58  1  0  0  0  0
 52112  1  0  0  0  0
 52113  1  0  0  0  0
 53 62  1  0  0  0  0
 53114  1  0  0  0  0
 53115  1  0  0  0  0
 54 59  2  0  0  0  0
 54117  1  0  0  0  0
 55 60  2  0  0  0  0
 55118  1  0  0  0  0
 56 59  1  0  0  0  0
 56119  1  0  0  0  0
 57 60  1  0  0  0  0
 57120  1  0  0  0  0
 58 64  1  0  0  0  0
 58121  1  0  0  0  0
 58122  1  0  0  0  0
 59124  1  0  0  0  0
 60125  1  0  0  0  0
 61 63  1  0  0  0  0
 62 66  2  0  0  0  0
 62 67  1  0  0  0  0
 63 65  1  0  0  0  0
 63126  1  0  0  0  0
 65 70  1  0  0  0  0
 65127  1  0  0  0  0
 65128  1  0  0  0  0
 66 68  1  0  0  0  0
 66129  1  0  0  0  0
 67 69  2  0  0  0  0
 67130  1  0  0  0  0
 68 71  2  0  0  0  0
 69 71  1  0  0  0  0
 69132  1  0  0  0  0
 71133  1  0  0  0  0
 72 73  1  0  0  0  0
 73135  1  0  0  0  0
 73136  1  0  0  0  0
 73137  1  0  0  0  0
 74139  1  0  0  0  0
 74140  1  0  0  0  0
 74141  1  0  0  0  0
M  END
> <PUBCHEM_COMPOUND_CID>
507556
> <PUBCHEM_COMPOUND_CANONICALIZED>
1
> <PUBCHEM_CACTVS_COMPLEXITY>
1870
> <PUBCHEM_CACTVS_HBOND_ACCEPTOR>
15
> <PUBCHEM_CACTVS_HBOND_DONOR>
11
> <PUBCHEM_CACTVS_ROTATABLE_BOND>
30
> <PUBCHEM_CACTVS_SUBSKEYS>
AAADcfB/vABAAAAAAAAAAAAAAAAAAAAAAAAwYMGAAAAAAAABUAAAHgQQCAAADSzF2AayDoLABgSIAiHSGAACCAAgIAAIiIGOCIgMZjqEsTuUcCAm1hGIqAe/3/KOgAABAAAAAAAAAAIAAAAAAAAAAAAAAA==
> <PUBCHEM_IUPAC_OPENEYE_NAME>
(4S)-4-[[(2S)-2-acetamido-3-carboxy-propanoyl]amino]-5-[[(1S)-1-benzhydryl-2-[[(1S)-3-carboxy-1-[[(1S)-1-(cyclohexylmethyl)-2-[[(1R)-2-[2-(3-methoxyphenyl)ethylamino]-2-oxo-1-(sulfanylmethyl)ethyl]amino]-2-oxo-ethyl]carbamoyl]propyl]amino]-2-oxo-ethyl]amino]-5-oxo-pentanoic acid
> <PUBCHEM_IUPAC_CAS_NAME>
(4S)-4-[[(2S)-2-acetamido-3-carboxy-1-oxopropyl]amino]-5-[[(2S)-1-[[(2S)-4-carboxy-1-[[(2S)-3-cyclohexyl-1-[[(2R)-3-mercapto-1-[2-(3-methoxyphenyl)ethylamino]-1-oxopropan-2-yl]amino]-1-oxopropan-2-yl]amino]-1-oxobutan-2-yl]amino]-1-oxo-3,3-diphenylpropan-2-yl]amino]-5-oxopentanoic acid
> <PUBCHEM_IUPAC_NAME_MARKUP>
(4<I>S</I>)-4-[[(2<I>S</I>)-2-acetamido-3-carboxypropanoyl]amino]-5-[[(2<I>S</I>)-1-[[(2<I>S</I>)-4-carboxy-1-[[(2<I>S</I>)-3-cyclohexyl-1-[[(2<I>R</I>)-1-[2-(3-methoxyphenyl)ethylamino]-1-oxo-3-sulfanylpropan-2-yl]amino]-1-oxopropan-2-yl]amino]-1-oxobutan-2-yl]amino]-1-oxo-3,3-diphenylpropan-2-yl]amino]-5-oxopentanoic acid
> <PUBCHEM_IUPAC_NAME>
(4S)-4-[[(2S)-2-acetamido-3-carboxypropanoyl]amino]-5-[[(2S)-1-[[(2S)-4-carboxy-1-[[(2S)-3-cyclohexyl-1-[[(2R)-1-[2-(3-methoxyphenyl)ethylamino]-1-oxo-3-sulfanylpropan-2-yl]amino]-1-oxopropan-2-yl]amino]-1-oxobutan-2-yl]amino]-1-oxo-3,3-diphenylpropan-2-yl]amino]-5-oxopentanoic acid
> <PUBCHEM_IUPAC_SYSTEMATIC_NAME>
(4S)-4-[[(2S)-2-acetamido-4-oxidanyl-4-oxidanylidene-butanoyl]amino]-5-[[(2S)-1-[[(2S)-1-[[(2S)-3-cyclohexyl-1-[[(2R)-1-[2-(3-methoxyphenyl)ethylamino]-1-oxidanylidene-3-sulfanyl-propan-2-yl]amino]-1-oxidanylidene-propan-2-yl]amino]-5-oxidanyl-1,5-bis(oxidanylidene)pentan-2-yl]amino]-1-oxidanylidene-3,3-diphenyl-propan-2-yl]amino]-5-oxidanylidene-pentanoic acid
> <PUBCHEM_IUPAC_TRADITIONAL_NAME>
(4S)-4-[[(2S)-2-acetamido-3-carboxy-propanoyl]amino]-5-[[(1S)-1-benzhydryl-2-[[(1S)-3-carboxy-1-[[(1S)-1-(cyclohexylmethyl)-2-keto-2-[[(1R)-2-keto-1-(mercaptomethyl)-2-[2-(3-methoxyphenyl)ethylamino]ethyl]amino]ethyl]carbamoyl]propyl]amino]-2-keto-ethyl]amino]-5-keto-valeric acid
> <PUBCHEM_IUPAC_INCHI>
InChI=1S/C52H67N7O14S/c1-31(60)54-40(29-44(65)66)51(71)55-38(22-24-43(63)64)49(69)59-46(45(34-16-8-4-9-17-34)35-18-10-5-11-19-35)52(72)56-37(21-23-42(61)62)48(68)57-39(28-32-13-6-3-7-14-32)50(70)58-41(30-74)47(67)53-26-25-33-15-12-20-36(27-33)73-2/h4-5,8-12,15-20,27,32,37-41,45-46,74H,3,6-7,13-14,21-26,28-30H2,1-2H3,(H,53,67)(H,54,60)(H,55,71)(H,56,72)(H,57,68)(H,58,70)(H,59,69)(H,61,62)(H,63,64)(H,65,66)/t37-,38-,39-,40-,41-,46-/m0/s1
> <PUBCHEM_IUPAC_INCHIKEY>
PIAFVDXNRKWCEB-HWEVAMLISA-N
> <PUBCHEM_XLOGP3_AA>
3.7
> <PUBCHEM_EXACT_MASS>
1045.44667101
> <PUBCHEM_MOLECULAR_FORMULA>
C52H67N7O14S
> <PUBCHEM_MOLECULAR_WEIGHT>
1046.2
> <PUBCHEM_OPENEYE_CAN_SMILES>
CC(=O)NC(CC(=O)O)C(=O)NC(CCC(=O)O)C(=O)NC(C(C1=CC=CC=C1)C2=CC=CC=C2)C(=O)NC(CCC(=O)O)C(=O)NC(CC3CCCCC3)C(=O)NC(CS)C(=O)NCCC4=CC(=CC=C4)OC
> <PUBCHEM_OPENEYE_ISO_SMILES>
CC(=O)N[C@@H](CC(=O)O)C(=O)N[C@@H](CCC(=O)O)C(=O)N[C@@H](C(C1=CC=CC=C1)C2=CC=CC=C2)C(=O)N[C@@H](CCC(=O)O)C(=O)N[C@@H](CC3CCCCC3)C(=O)N[C@@H](CS)C(=O)NCCC4=CC(=CC=C4)OC
> <PUBCHEM_CACTVS_TPSA>
326
> <PUBCHEM_MONOISOTOPIC_WEIGHT>
1045.44667101
> <PUBCHEM_TOTAL_CHARGE>
0
> <PUBCHEM_HEAVY_ATOM_COUNT>
74
> <PUBCHEM_ATOM_DEF_STEREO_COUNT>
6
> <PUBCHEM_ATOM_UDEF_STEREO_COUNT>
0
> <PUBCHEM_BOND_DEF_STEREO_COUNT>
0
> <PUBCHEM_BOND_UDEF_STEREO_COUNT>
0
> <PUBCHEM_ISOTOPIC_ATOM_COUNT>
0
> <PUBCHEM_COMPONENT_COUNT>
1
> <PUBCHEM_CACTVS_TAUTO_COUNT>
-1
> <PUBCHEM_COORDINATE_TYPE>
1
5
255
> <PUBCHEM_BONDANNOTATIONS>
30  16  5
34  17  6
33  18  5
37  19  6
46  21  5
63  22  6
42  48  8
42  50  8
43  49  8
43  51  8
48  54  8
49  55  8
50  56  8
51  57  8
54  59  8
55  60  8
56  59  8
57  60  8
62  66  8
62  67  8
66  68  8
67  69  8
68  71  8
69  71  8
$$$$
