507515
  -OEChem-10302200282D
 77 78  0     1  0  0  0  0  0999 V2000
    2.0000   -5.5194    0.0000 Cl  0  0  0  0  0  0  0  0  0  0  0  0
    4.5981   -0.0194    0.0000 S   0  0  0  0  0  0  0  0  0  0  0  0
    5.4071    6.5684    0.0000 S   0  0  0  0  0  0  0  0  0  0  0  0
    5.4641    0.4806    0.0000 O   0  0  0  0  0  0  0  0  0  0  0  0
    5.4641    1.4806    0.0000 O   0  0  0  0  0  0  0  0  0  0  0  0
    6.3301   -3.0194    0.0000 O   0  0  0  0  0  0  0  0  0  0  0  0
    8.0622    5.9806    0.0000 O   0  0  0  0  0  0  0  0  0  0  0  0
    6.3301    4.9806    0.0000 O   0  0  0  0  0  0  0  0  0  0  0  0
    8.9282    4.4806    0.0000 O   0  0  0  0  0  0  0  0  0  0  0  0
    3.7320    4.4806    0.0000 O   0  0  0  0  0  0  0  0  0  0  0  0
    7.1962    1.4806    0.0000 N   0  0  0  0  0  0  0  0  0  0  0  0
    6.3301   -1.0194    0.0000 N   0  0  0  0  0  0  0  0  0  0  0  0
    5.4641    3.4806    0.0000 N   0  0  0  0  0  0  0  0  0  0  0  0
    4.5981   -3.0194    0.0000 N   0  0  0  0  0  0  0  0  0  0  0  0
    8.0622   -0.0194    0.0000 C   0  0  0  0  0  0  0  0  0  0  0  0
    7.1962    0.4806    0.0000 C   0  0  1  0  0  0  0  0  0  0  0  0
    8.9282    0.4806    0.0000 C   0  0  0  0  0  0  0  0  0  0  0  0
    6.3301   -0.0194    0.0000 C   0  0  0  0  0  0  0  0  0  0  0  0
    6.3301    2.9806    0.0000 C   0  0  2  0  0  0  0  0  0  0  0  0
    9.7942   -0.0194    0.0000 C   0  0  0  0  0  0  0  0  0  0  0  0
    8.9282    1.4806    0.0000 C   0  0  0  0  0  0  0  0  0  0  0  0
    6.3301    1.9806    0.0000 C   0  0  0  0  0  0  0  0  0  0  0  0
    7.1962    3.4806    0.0000 C   0  0  0  0  0  0  0  0  0  0  0  0
    5.4641   -1.5194    0.0000 C   0  0  1  0  0  0  0  0  0  0  0  0
    7.1962    4.4806    0.0000 C   0  0  0  0  0  0  0  0  0  0  0  0
    4.5981   -1.0194    0.0000 C   0  0  0  0  0  0  0  0  0  0  0  0
    5.4641   -2.5194    0.0000 C   0  0  0  0  0  0  0  0  0  0  0  0
    4.5981   -4.0194    0.0000 C   0  0  0  0  0  0  0  0  0  0  0  0
    5.4641    4.4806    0.0000 C   0  0  0  0  0  0  0  0  0  0  0  0
    8.0622    4.9806    0.0000 C   0  0  0  0  0  0  0  0  0  0  0  0
    3.7320   -4.5194    0.0000 C   0  0  0  0  0  0  0  0  0  0  0  0
    3.7320   -5.5194    0.0000 C   0  0  0  0  0  0  0  0  0  0  0  0
    4.5981    4.9806    0.0000 C   0  0  0  0  0  0  0  0  0  0  0  0
    2.8660   -6.0194    0.0000 C   0  0  0  0  0  0  0  0  0  0  0  0
    4.5981   -6.0194    0.0000 C   0  0  0  0  0  0  0  0  0  0  0  0
    4.5981    5.9806    0.0000 C   0  0  0  0  0  0  0  0  0  0  0  0
    2.8660   -7.0194    0.0000 C   0  0  0  0  0  0  0  0  0  0  0  0
    4.5981   -7.0194    0.0000 C   0  0  0  0  0  0  0  0  0  0  0  0
    3.7320   -7.5194    0.0000 C   0  0  0  0  0  0  0  0  0  0  0  0
    3.7891    6.5684    0.0000 C   0  0  0  0  0  0  0  0  0  0  0  0
    4.0981    7.5194    0.0000 C   0  0  0  0  0  0  0  0  0  0  0  0
    5.0981    7.5194    0.0000 C   0  0  0  0  0  0  0  0  0  0  0  0
    7.6636   -0.4944    0.0000 H   0  0  0  0  0  0  0  0  0  0  0  0
    8.4607   -0.4944    0.0000 H   0  0  0  0  0  0  0  0  0  0  0  0
    6.6592    0.7906    0.0000 H   0  0  0  0  0  0  0  0  0  0  0  0
    9.4651    0.7906    0.0000 H   0  0  0  0  0  0  0  0  0  0  0  0
    7.7331    1.7906    0.0000 H   0  0  0  0  0  0  0  0  0  0  0  0
    5.7932    2.6706    0.0000 H   0  0  0  0  0  0  0  0  0  0  0  0
    9.4842   -0.5564    0.0000 H   0  0  0  0  0  0  0  0  0  0  0  0
   10.3312   -0.3294    0.0000 H   0  0  0  0  0  0  0  0  0  0  0  0
   10.1042    0.5175    0.0000 H   0  0  0  0  0  0  0  0  0  0  0  0
    9.5482    1.4806    0.0000 H   0  0  0  0  0  0  0  0  0  0  0  0
    8.9282    2.1006    0.0000 H   0  0  0  0  0  0  0  0  0  0  0  0
    8.3082    1.4806    0.0000 H   0  0  0  0  0  0  0  0  0  0  0  0
    7.4082    2.8980    0.0000 H   0  0  0  0  0  0  0  0  0  0  0  0
    7.8067    3.5882    0.0000 H   0  0  0  0  0  0  0  0  0  0  0  0
    5.4641   -0.8994    0.0000 H   0  0  0  0  0  0  0  0  0  0  0  0
    6.8671   -1.3294    0.0000 H   0  0  0  0  0  0  0  0  0  0  0  0
    6.9841    5.0632    0.0000 H   0  0  0  0  0  0  0  0  0  0  0  0
    6.5856    4.3729    0.0000 H   0  0  0  0  0  0  0  0  0  0  0  0
    4.9272    3.1706    0.0000 H   0  0  0  0  0  0  0  0  0  0  0  0
    3.9875   -0.9118    0.0000 H   0  0  0  0  0  0  0  0  0  0  0  0
    4.3860   -1.6020    0.0000 H   0  0  0  0  0  0  0  0  0  0  0  0
    4.0611   -2.7094    0.0000 H   0  0  0  0  0  0  0  0  0  0  0  0
    4.8101   -4.6020    0.0000 H   0  0  0  0  0  0  0  0  0  0  0  0
    5.2087   -3.9118    0.0000 H   0  0  0  0  0  0  0  0  0  0  0  0
    3.5200   -3.9368    0.0000 H   0  0  0  0  0  0  0  0  0  0  0  0
    3.1215   -4.6271    0.0000 H   0  0  0  0  0  0  0  0  0  0  0  0
    4.0611    0.2906    0.0000 H   0  0  0  0  0  0  0  0  0  0  0  0
    5.1350   -5.7094    0.0000 H   0  0  0  0  0  0  0  0  0  0  0  0
    8.5991    6.2906    0.0000 H   0  0  0  0  0  0  0  0  0  0  0  0
    2.3291   -7.3294    0.0000 H   0  0  0  0  0  0  0  0  0  0  0  0
    5.1350   -7.3294    0.0000 H   0  0  0  0  0  0  0  0  0  0  0  0
    3.7320   -8.1394    0.0000 H   0  0  0  0  0  0  0  0  0  0  0  0
    3.1994    6.3768    0.0000 H   0  0  0  0  0  0  0  0  0  0  0  0
    3.7336    8.0210    0.0000 H   0  0  0  0  0  0  0  0  0  0  0  0
    5.4625    8.0210    0.0000 H   0  0  0  0  0  0  0  0  0  0  0  0
  1 34  1  0  0  0  0
  2 26  1  0  0  0  0
  2 69  1  0  0  0  0
  3 36  1  0  0  0  0
  3 42  1  0  0  0  0
  4 18  2  0  0  0  0
  5 22  2  0  0  0  0
  6 27  2  0  0  0  0
  7 30  1  0  0  0  0
  7 71  1  0  0  0  0
  8 29  2  0  0  0  0
  9 30  2  0  0  0  0
 10 33  2  0  0  0  0
 16 11  1  1  0  0  0
 11 22  1  0  0  0  0
 11 47  1  0  0  0  0
 12 18  1  0  0  0  0
 24 12  1  6  0  0  0
 12 58  1  0  0  0  0
 19 13  1  1  0  0  0
 13 29  1  0  0  0  0
 13 61  1  0  0  0  0
 14 27  1  0  0  0  0
 14 28  1  0  0  0  0
 14 64  1  0  0  0  0
 15 16  1  0  0  0  0
 15 17  1  0  0  0  0
 15 43  1  0  0  0  0
 15 44  1  0  0  0  0
 16 18  1  0  0  0  0
 16 45  1  0  0  0  0
 17 20  1  0  0  0  0
 17 21  1  0  0  0  0
 17 46  1  0  0  0  0
 19 22  1  0  0  0  0
 19 23  1  0  0  0  0
 19 48  1  0  0  0  0
 20 49  1  0  0  0  0
 20 50  1  0  0  0  0
 20 51  1  0  0  0  0
 21 52  1  0  0  0  0
 21 53  1  0  0  0  0
 21 54  1  0  0  0  0
 23 25  1  0  0  0  0
 23 55  1  0  0  0  0
 23 56  1  0  0  0  0
 24 26  1  0  0  0  0
 24 27  1  0  0  0  0
 24 57  1  0  0  0  0
 25 30  1  0  0  0  0
 25 59  1  0  0  0  0
 25 60  1  0  0  0  0
 26 62  1  0  0  0  0
 26 63  1  0  0  0  0
 28 31  1  0  0  0  0
 28 65  1  0  0  0  0
 28 66  1  0  0  0  0
 29 33  1  0  0  0  0
 31 32  1  0  0  0  0
 31 67  1  0  0  0  0
 31 68  1  0  0  0  0
 32 34  1  0  0  0  0
 32 35  2  0  0  0  0
 33 36  1  0  0  0  0
 34 37  2  0  0  0  0
 35 38  1  0  0  0  0
 35 70  1  0  0  0  0
 36 40  2  0  0  0  0
 37 39  1  0  0  0  0
 37 72  1  0  0  0  0
 38 39  2  0  0  0  0
 38 73  1  0  0  0  0
 39 74  1  0  0  0  0
 40 41  1  0  0  0  0
 40 75  1  0  0  0  0
 41 42  2  0  0  0  0
 41 76  1  0  0  0  0
 42 77  1  0  0  0  0
M  END
> <PUBCHEM_COMPOUND_CID>
507515
> <PUBCHEM_COMPOUND_CANONICALIZED>
1
> <PUBCHEM_CACTVS_COMPLEXITY>
971
> <PUBCHEM_CACTVS_HBOND_ACCEPTOR>
9
> <PUBCHEM_CACTVS_HBOND_DONOR>
6
> <PUBCHEM_CACTVS_ROTATABLE_BOND>
17
> <PUBCHEM_CACTVS_SUBSKEYS>
AAADcfB7uABkAAAAAAAAAAAAAAAAASAAAAAwAAAAAAAAAAABwAAAHgYQCAAADS7F2CSyCYLAAgyMAqHSGAADAIAkDRBIiJmIAsgIYDKhlzGUYQAklgCoiYe8n4IOAAAAAAABAAAAAAAAAAIAAAAAAAAAAA==
> <PUBCHEM_IUPAC_OPENEYE_NAME>
(4S)-5-[[(1S)-1-[[(1R)-2-[2-(2-chlorophenyl)ethylamino]-2-oxo-1-(sulfanylmethyl)ethyl]carbamoyl]-3-methyl-butyl]amino]-5-oxo-4-[[2-oxo-2-(2-thienyl)acetyl]amino]pentanoic acid
> <PUBCHEM_IUPAC_CAS_NAME>
(4S)-5-[[(2S)-1-[[(2R)-1-[2-(2-chlorophenyl)ethylamino]-3-mercapto-1-oxopropan-2-yl]amino]-4-methyl-1-oxopentan-2-yl]amino]-4-[(1,2-dioxo-2-thiophen-2-ylethyl)amino]-5-oxopentanoic acid
> <PUBCHEM_IUPAC_NAME_MARKUP>
(4<I>S</I>)-5-[[(2<I>S</I>)-1-[[(2<I>R</I>)-1-[2-(2-chlorophenyl)ethylamino]-1-oxo-3-sulfanylpropan-2-yl]amino]-4-methyl-1-oxopentan-2-yl]amino]-5-oxo-4-[(2-oxo-2-thiophen-2-ylacetyl)amino]pentanoic acid
> <PUBCHEM_IUPAC_NAME>
(4S)-5-[[(2S)-1-[[(2R)-1-[2-(2-chlorophenyl)ethylamino]-1-oxo-3-sulfanylpropan-2-yl]amino]-4-methyl-1-oxopentan-2-yl]amino]-5-oxo-4-[(2-oxo-2-thiophen-2-ylacetyl)amino]pentanoic acid
> <PUBCHEM_IUPAC_SYSTEMATIC_NAME>
(4S)-5-[[(2S)-1-[[(2R)-1-[2-(2-chlorophenyl)ethylamino]-1-oxidanylidene-3-sulfanyl-propan-2-yl]amino]-4-methyl-1-oxidanylidene-pentan-2-yl]amino]-5-oxidanylidene-4-[(2-oxidanylidene-2-thiophen-2-yl-ethanoyl)amino]pentanoic acid
> <PUBCHEM_IUPAC_TRADITIONAL_NAME>
(4S)-5-[[(1S)-1-[[(1R)-2-[2-(2-chlorophenyl)ethylamino]-2-keto-1-(mercaptomethyl)ethyl]carbamoyl]-3-methyl-butyl]amino]-5-keto-4-[[2-keto-2-(2-thienyl)acetyl]amino]valeric acid
> <PUBCHEM_IUPAC_INCHI>
InChI=1S/C28H35ClN4O7S2/c1-16(2)14-20(27(39)33-21(15-41)25(37)30-12-11-17-6-3-4-7-18(17)29)32-26(38)19(9-10-23(34)35)31-28(40)24(36)22-8-5-13-42-22/h3-8,13,16,19-21,41H,9-12,14-15H2,1-2H3,(H,30,37)(H,31,40)(H,32,38)(H,33,39)(H,34,35)/t19-,20-,21-/m0/s1
> <PUBCHEM_IUPAC_INCHIKEY>
ZYQXDMPURMXPJW-ACRUOGEOSA-N
> <PUBCHEM_XLOGP3_AA>
3.6
> <PUBCHEM_EXACT_MASS>
638.1635695
> <PUBCHEM_MOLECULAR_FORMULA>
C28H35ClN4O7S2
> <PUBCHEM_MOLECULAR_WEIGHT>
639.2
> <PUBCHEM_OPENEYE_CAN_SMILES>
CC(C)CC(C(=O)NC(CS)C(=O)NCCC1=CC=CC=C1Cl)NC(=O)C(CCC(=O)O)NC(=O)C(=O)C2=CC=CS2
> <PUBCHEM_OPENEYE_ISO_SMILES>
CC(C)C[C@@H](C(=O)N[C@@H](CS)C(=O)NCCC1=CC=CC=C1Cl)NC(=O)[C@H](CCC(=O)O)NC(=O)C(=O)C2=CC=CS2
> <PUBCHEM_CACTVS_TPSA>
200
> <PUBCHEM_MONOISOTOPIC_WEIGHT>
638.1635695
> <PUBCHEM_TOTAL_CHARGE>
0
> <PUBCHEM_HEAVY_ATOM_COUNT>
42
> <PUBCHEM_ATOM_DEF_STEREO_COUNT>
3
> <PUBCHEM_ATOM_UDEF_STEREO_COUNT>
0
> <PUBCHEM_BOND_DEF_STEREO_COUNT>
0
> <PUBCHEM_BOND_UDEF_STEREO_COUNT>
0
> <PUBCHEM_ISOTOPIC_ATOM_COUNT>
0
> <PUBCHEM_COMPONENT_COUNT>
1
> <PUBCHEM_CACTVS_TAUTO_COUNT>
-1
> <PUBCHEM_COORDINATE_TYPE>
1
5
255
> <PUBCHEM_BONDANNOTATIONS>
16  11  5
24  12  6
19  13  5
3  36  8
3  42  8
32  34  8
32  35  8
34  37  8
35  38  8
36  40  8
37  39  8
38  39  8
40  41  8
41  42  8
$$$$
