507533
  -OEChem-10302200282D
172172  0     1  0  0  0  0  0999 V2000
   10.3312    2.6200    0.0000 Cl  0  0  0  0  0  0  0  0  0  0  0  0
    0.0000    2.6200    0.0000 Cl  0  0  0  0  0  0  0  0  0  0  0  0
   12.9292    8.1200    0.0000 S   0  0  0  0  0  0  0  0  0  0  0  0
    2.5981    8.1200    0.0000 S   0  0  0  0  0  0  0  0  0  0  0  0
   14.6613   13.1200    0.0000 O   0  0  0  0  0  0  0  0  0  0  0  0
   13.7953    9.6200    0.0000 O   0  0  0  0  0  0  0  0  0  0  0  0
   13.7953    8.6200    0.0000 O   0  0  0  0  0  0  0  0  0  0  0  0
   11.1972   16.1200    0.0000 O   0  0  0  0  0  0  0  0  0  0  0  0
    3.4641    9.6200    0.0000 O   0  0  0  0  0  0  0  0  0  0  0  0
    3.4641    8.6200    0.0000 O   0  0  0  0  0  0  0  0  0  0  0  0
   10.3312   14.6200    0.0000 O   0  0  0  0  0  0  0  0  0  0  0  0
    0.8660   16.1200    0.0000 O   0  0  0  0  0  0  0  0  0  0  0  0
    4.3301   13.1200    0.0000 O   0  0  0  0  0  0  0  0  0  0  0  0
    0.0000   14.6200    0.0000 O   0  0  0  0  0  0  0  0  0  0  0  0
   16.3933   14.1200    0.0000 O   0  0  0  0  0  0  0  0  0  0  0  0
   17.2594   12.6200    0.0000 O   0  0  0  0  0  0  0  0  0  0  0  0
   14.6613    5.1200    0.0000 O   0  0  0  0  0  0  0  0  0  0  0  0
    6.0622   14.1200    0.0000 O   0  0  0  0  0  0  0  0  0  0  0  0
    4.3301    5.1200    0.0000 O   0  0  0  0  0  0  0  0  0  0  0  0
    6.9282   12.6200    0.0000 O   0  0  0  0  0  0  0  0  0  0  0  0
   13.7953   11.6200    0.0000 N   0  0  0  0  0  0  0  0  0  0  0  0
   15.5273    9.6200    0.0000 N   0  0  0  0  0  0  0  0  0  0  0  0
    5.1962    9.6200    0.0000 N   0  0  0  0  0  0  0  0  0  0  0  0
    3.4641   11.6200    0.0000 N   0  0  0  0  0  0  0  0  0  0  0  0
   14.6613    7.1200    0.0000 N   0  0  0  0  0  0  0  0  0  0  0  0
    4.3301    7.1200    0.0000 N   0  0  0  0  0  0  0  0  0  0  0  0
   12.9292    5.1200    0.0000 N   0  0  0  0  0  0  0  0  0  0  0  0
    2.5981    5.1200    0.0000 N   0  0  0  0  0  0  0  0  0  0  0  0
   12.9292   13.1200    0.0000 C   0  0  0  0  0  0  0  0  0  0  0  0
   12.0632   13.6200    0.0000 C   0  0  0  0  0  0  0  0  0  0  0  0
   14.6613   11.1200    0.0000 C   0  0  1  0  0  0  0  0  0  0  0  0
   13.7953   12.6200    0.0000 C   0  0  0  0  0  0  0  0  0  0  0  0
   15.5273    8.6200    0.0000 C   0  0  1  0  0  0  0  0  0  0  0  0
   16.3933    8.1200    0.0000 C   0  0  0  0  0  0  0  0  0  0  0  0
   13.4292   13.9860    0.0000 C   0  0  0  0  0  0  0  0  0  0  0  0
   12.4292   12.2540    0.0000 C   0  0  0  0  0  0  0  0  0  0  0  0
   17.2594    8.6200    0.0000 C   0  0  0  0  0  0  0  0  0  0  0  0
   15.5273   11.6200    0.0000 C   0  0  0  0  0  0  0  0  0  0  0  0
   12.0632   14.6200    0.0000 C   0  0  0  0  0  0  0  0  0  0  0  0
   14.6613   10.1200    0.0000 C   0  0  0  0  0  0  0  0  0  0  0  0
    5.1962    8.6200    0.0000 C   0  0  1  0  0  0  0  0  0  0  0  0
    6.0622    8.1200    0.0000 C   0  0  0  0  0  0  0  0  0  0  0  0
    6.9282    8.6200    0.0000 C   0  0  0  0  0  0  0  0  0  0  0  0
    1.7320   14.6200    0.0000 C   0  0  0  0  0  0  0  0  0  0  0  0
   14.6613    8.1200    0.0000 C   0  0  0  0  0  0  0  0  0  0  0  0
    2.5981   14.1200    0.0000 C   0  0  0  0  0  0  0  0  0  0  0  0
    4.3301   11.1200    0.0000 C   0  0  2  0  0  0  0  0  0  0  0  0
   15.5273   12.6200    0.0000 C   0  0  0  0  0  0  0  0  0  0  0  0
   18.1254    8.1200    0.0000 C   0  0  0  0  0  0  0  0  0  0  0  0
   17.2594    9.6200    0.0000 C   0  0  0  0  0  0  0  0  0  0  0  0
    2.5981   13.1200    0.0000 C   0  0  0  0  0  0  0  0  0  0  0  0
    4.3301   10.1200    0.0000 C   0  0  0  0  0  0  0  0  0  0  0  0
    5.1962   11.6200    0.0000 C   0  0  0  0  0  0  0  0  0  0  0  0
    4.3301    8.1200    0.0000 C   0  0  0  0  0  0  0  0  0  0  0  0
    7.7942    8.1200    0.0000 C   0  0  0  0  0  0  0  0  0  0  0  0
    6.9282    9.6200    0.0000 C   0  0  0  0  0  0  0  0  0  0  0  0
    2.2320   15.4860    0.0000 C   0  0  0  0  0  0  0  0  0  0  0  0
    1.2320   13.7540    0.0000 C   0  0  0  0  0  0  0  0  0  0  0  0
   11.1972   15.1200    0.0000 C   0  0  0  0  0  0  0  0  0  0  0  0
    3.4641   12.6200    0.0000 C   0  0  0  0  0  0  0  0  0  0  0  0
   13.7953    6.6200    0.0000 C   0  0  1  0  0  0  0  0  0  0  0  0
    0.8660   15.1200    0.0000 C   0  0  0  0  0  0  0  0  0  0  0  0
    5.1962   12.6200    0.0000 C   0  0  0  0  0  0  0  0  0  0  0  0
    3.4641    6.6200    0.0000 C   0  0  1  0  0  0  0  0  0  0  0  0
   16.3933   13.1200    0.0000 C   0  0  0  0  0  0  0  0  0  0  0  0
   12.9292    7.1200    0.0000 C   0  0  0  0  0  0  0  0  0  0  0  0
   13.7953    5.6200    0.0000 C   0  0  0  0  0  0  0  0  0  0  0  0
    2.5981    7.1200    0.0000 C   0  0  0  0  0  0  0  0  0  0  0  0
    3.4641    5.6200    0.0000 C   0  0  0  0  0  0  0  0  0  0  0  0
    6.0622   13.1200    0.0000 C   0  0  0  0  0  0  0  0  0  0  0  0
   12.9292    4.1200    0.0000 C   0  0  0  0  0  0  0  0  0  0  0  0
    2.5981    4.1200    0.0000 C   0  0  0  0  0  0  0  0  0  0  0  0
   12.0632    3.6200    0.0000 C   0  0  0  0  0  0  0  0  0  0  0  0
    1.7320    3.6200    0.0000 C   0  0  0  0  0  0  0  0  0  0  0  0
   12.0632    2.6200    0.0000 C   0  0  0  0  0  0  0  0  0  0  0  0
    1.7320    2.6200    0.0000 C   0  0  0  0  0  0  0  0  0  0  0  0
   11.1972    2.1200    0.0000 C   0  0  0  0  0  0  0  0  0  0  0  0
   12.9292    2.1200    0.0000 C   0  0  0  0  0  0  0  0  0  0  0  0
    0.8660    2.1200    0.0000 C   0  0  0  0  0  0  0  0  0  0  0  0
    2.5981    2.1200    0.0000 C   0  0  0  0  0  0  0  0  0  0  0  0
   11.1972    1.1200    0.0000 C   0  0  0  0  0  0  0  0  0  0  0  0
   12.9292    1.1200    0.0000 C   0  0  0  0  0  0  0  0  0  0  0  0
    0.8660    1.1200    0.0000 C   0  0  0  0  0  0  0  0  0  0  0  0
    2.5981    1.1200    0.0000 C   0  0  0  0  0  0  0  0  0  0  0  0
   12.0632    0.6200    0.0000 C   0  0  0  0  0  0  0  0  0  0  0  0
    1.7320    0.6200    0.0000 C   0  0  0  0  0  0  0  0  0  0  0  0
   11.4526   13.7277    0.0000 H   0  0  0  0  0  0  0  0  0  0  0  0
   11.8512   13.0374    0.0000 H   0  0  0  0  0  0  0  0  0  0  0  0
   14.1244   10.8100    0.0000 H   0  0  0  0  0  0  0  0  0  0  0  0
   14.9904    8.9300    0.0000 H   0  0  0  0  0  0  0  0  0  0  0  0
   15.9948    7.6450    0.0000 H   0  0  0  0  0  0  0  0  0  0  0  0
   16.7919    7.6450    0.0000 H   0  0  0  0  0  0  0  0  0  0  0  0
   13.9662   13.6760    0.0000 H   0  0  0  0  0  0  0  0  0  0  0  0
   13.7392   14.5230    0.0000 H   0  0  0  0  0  0  0  0  0  0  0  0
   12.8923   14.2960    0.0000 H   0  0  0  0  0  0  0  0  0  0  0  0
   11.8923   12.5640    0.0000 H   0  0  0  0  0  0  0  0  0  0  0  0
   12.1192   11.7170    0.0000 H   0  0  0  0  0  0  0  0  0  0  0  0
   12.9662   11.9440    0.0000 H   0  0  0  0  0  0  0  0  0  0  0  0
   13.2583   11.3100    0.0000 H   0  0  0  0  0  0  0  0  0  0  0  0
   17.7963    8.9300    0.0000 H   0  0  0  0  0  0  0  0  0  0  0  0
   15.7394   11.0374    0.0000 H   0  0  0  0  0  0  0  0  0  0  0  0
   16.1379   11.7277    0.0000 H   0  0  0  0  0  0  0  0  0  0  0  0
   12.6738   14.5123    0.0000 H   0  0  0  0  0  0  0  0  0  0  0  0
   12.2753   15.2026    0.0000 H   0  0  0  0  0  0  0  0  0  0  0  0
   16.0643    9.9300    0.0000 H   0  0  0  0  0  0  0  0  0  0  0  0
    5.7331    8.9300    0.0000 H   0  0  0  0  0  0  0  0  0  0  0  0
    5.6636    7.6450    0.0000 H   0  0  0  0  0  0  0  0  0  0  0  0
    6.4607    7.6450    0.0000 H   0  0  0  0  0  0  0  0  0  0  0  0
    6.3913    8.9300    0.0000 H   0  0  0  0  0  0  0  0  0  0  0  0
    3.2087   14.0123    0.0000 H   0  0  0  0  0  0  0  0  0  0  0  0
    2.8101   14.7026    0.0000 H   0  0  0  0  0  0  0  0  0  0  0  0
    3.7932   10.8100    0.0000 H   0  0  0  0  0  0  0  0  0  0  0  0
   15.3153   13.2026    0.0000 H   0  0  0  0  0  0  0  0  0  0  0  0
   14.9167   12.5123    0.0000 H   0  0  0  0  0  0  0  0  0  0  0  0
   17.8154    7.5831    0.0000 H   0  0  0  0  0  0  0  0  0  0  0  0
   18.6623    7.8100    0.0000 H   0  0  0  0  0  0  0  0  0  0  0  0
   18.4354    8.6569    0.0000 H   0  0  0  0  0  0  0  0  0  0  0  0
   17.8794    9.6200    0.0000 H   0  0  0  0  0  0  0  0  0  0  0  0
   17.2594   10.2400    0.0000 H   0  0  0  0  0  0  0  0  0  0  0  0
   16.6394    9.6200    0.0000 H   0  0  0  0  0  0  0  0  0  0  0  0
    1.9875   13.2277    0.0000 H   0  0  0  0  0  0  0  0  0  0  0  0
    2.3860   12.5374    0.0000 H   0  0  0  0  0  0  0  0  0  0  0  0
    5.7331    9.9300    0.0000 H   0  0  0  0  0  0  0  0  0  0  0  0
    5.4082   11.0374    0.0000 H   0  0  0  0  0  0  0  0  0  0  0  0
    5.8067   11.7277    0.0000 H   0  0  0  0  0  0  0  0  0  0  0  0
    2.9272   11.3100    0.0000 H   0  0  0  0  0  0  0  0  0  0  0  0
   15.1982    6.8100    0.0000 H   0  0  0  0  0  0  0  0  0  0  0  0
    7.4842    7.5831    0.0000 H   0  0  0  0  0  0  0  0  0  0  0  0
    8.3312    7.8100    0.0000 H   0  0  0  0  0  0  0  0  0  0  0  0
    8.1042    8.6569    0.0000 H   0  0  0  0  0  0  0  0  0  0  0  0
    7.5482    9.6200    0.0000 H   0  0  0  0  0  0  0  0  0  0  0  0
    6.9282   10.2400    0.0000 H   0  0  0  0  0  0  0  0  0  0  0  0
    6.3082    9.6200    0.0000 H   0  0  0  0  0  0  0  0  0  0  0  0
    2.7690   15.1760    0.0000 H   0  0  0  0  0  0  0  0  0  0  0  0
    2.5420   16.0230    0.0000 H   0  0  0  0  0  0  0  0  0  0  0  0
    1.6951   15.7960    0.0000 H   0  0  0  0  0  0  0  0  0  0  0  0
    0.6951   14.0640    0.0000 H   0  0  0  0  0  0  0  0  0  0  0  0
    0.9220   13.2170    0.0000 H   0  0  0  0  0  0  0  0  0  0  0  0
    1.7690   13.4440    0.0000 H   0  0  0  0  0  0  0  0  0  0  0  0
   13.7953    7.2400    0.0000 H   0  0  0  0  0  0  0  0  0  0  0  0
    4.9841   13.2026    0.0000 H   0  0  0  0  0  0  0  0  0  0  0  0
    4.5856   12.5123    0.0000 H   0  0  0  0  0  0  0  0  0  0  0  0
    4.8671    6.8100    0.0000 H   0  0  0  0  0  0  0  0  0  0  0  0
    4.0010    6.3100    0.0000 H   0  0  0  0  0  0  0  0  0  0  0  0
   12.3187    7.2277    0.0000 H   0  0  0  0  0  0  0  0  0  0  0  0
   12.7172    6.5374    0.0000 H   0  0  0  0  0  0  0  0  0  0  0  0
    1.9875    7.2277    0.0000 H   0  0  0  0  0  0  0  0  0  0  0  0
    2.3860    6.5374    0.0000 H   0  0  0  0  0  0  0  0  0  0  0  0
   10.6603   16.4300    0.0000 H   0  0  0  0  0  0  0  0  0  0  0  0
   12.3923    5.4300    0.0000 H   0  0  0  0  0  0  0  0  0  0  0  0
    0.3291   16.4300    0.0000 H   0  0  0  0  0  0  0  0  0  0  0  0
   13.1413    3.5374    0.0000 H   0  0  0  0  0  0  0  0  0  0  0  0
   13.5398    4.2277    0.0000 H   0  0  0  0  0  0  0  0  0  0  0  0
   16.9303   14.4300    0.0000 H   0  0  0  0  0  0  0  0  0  0  0  0
    2.0611    5.4300    0.0000 H   0  0  0  0  0  0  0  0  0  0  0  0
    2.8101    3.5374    0.0000 H   0  0  0  0  0  0  0  0  0  0  0  0
    3.2087    4.2277    0.0000 H   0  0  0  0  0  0  0  0  0  0  0  0
   12.3923    8.4300    0.0000 H   0  0  0  0  0  0  0  0  0  0  0  0
   11.8512    4.2026    0.0000 H   0  0  0  0  0  0  0  0  0  0  0  0
   11.4526    3.5123    0.0000 H   0  0  0  0  0  0  0  0  0  0  0  0
    2.0611    8.4300    0.0000 H   0  0  0  0  0  0  0  0  0  0  0  0
    1.5200    4.2026    0.0000 H   0  0  0  0  0  0  0  0  0  0  0  0
    1.1215    3.5123    0.0000 H   0  0  0  0  0  0  0  0  0  0  0  0
    6.5991   14.4300    0.0000 H   0  0  0  0  0  0  0  0  0  0  0  0
   13.4662    2.4300    0.0000 H   0  0  0  0  0  0  0  0  0  0  0  0
    3.1350    2.4300    0.0000 H   0  0  0  0  0  0  0  0  0  0  0  0
   10.6603    0.8100    0.0000 H   0  0  0  0  0  0  0  0  0  0  0  0
   13.4662    0.8100    0.0000 H   0  0  0  0  0  0  0  0  0  0  0  0
    0.3291    0.8100    0.0000 H   0  0  0  0  0  0  0  0  0  0  0  0
    3.1350    0.8100    0.0000 H   0  0  0  0  0  0  0  0  0  0  0  0
   12.0632    0.0000    0.0000 H   0  0  0  0  0  0  0  0  0  0  0  0
    1.7320    0.0000    0.0000 H   0  0  0  0  0  0  0  0  0  0  0  0
  1 77  1  0  0  0  0
  2 79  1  0  0  0  0
  3 66  1  0  0  0  0
  3158  1  0  0  0  0
  4 68  1  0  0  0  0
  4161  1  0  0  0  0
  5 32  2  0  0  0  0
  6 40  2  0  0  0  0
  7 45  2  0  0  0  0
  8 59  1  0  0  0  0
  8149  1  0  0  0  0
  9 52  2  0  0  0  0
 10 54  2  0  0  0  0
 11 59  2  0  0  0  0
 12 62  1  0  0  0  0
 12151  1  0  0  0  0
 13 60  2  0  0  0  0
 14 62  2  0  0  0  0
 15 65  1  0  0  0  0
 15154  1  0  0  0  0
 16 65  2  0  0  0  0
 17 67  2  0  0  0  0
 18 70  1  0  0  0  0
 18164  1  0  0  0  0
 19 69  2  0  0  0  0
 20 70  2  0  0  0  0
 31 21  1  1  0  0  0
 21 32  1  0  0  0  0
 21 99  1  0  0  0  0
 33 22  1  1  0  0  0
 22 40  1  0  0  0  0
 22105  1  0  0  0  0
 41 23  1  1  0  0  0
 23 52  1  0  0  0  0
 23123  1  0  0  0  0
 47 24  1  1  0  0  0
 24 60  1  0  0  0  0
 24126  1  0  0  0  0
 25 45  1  0  0  0  0
 61 25  1  6  0  0  0
 25127  1  0  0  0  0
 26 54  1  0  0  0  0
 64 26  1  6  0  0  0
 26143  1  0  0  0  0
 27 67  1  0  0  0  0
 27 71  1  0  0  0  0
 27150  1  0  0  0  0
 28 69  1  0  0  0  0
 28 72  1  0  0  0  0
 28155  1  0  0  0  0
 29 30  1  0  0  0  0
 29 32  1  0  0  0  0
 29 35  1  0  0  0  0
 29 36  1  0  0  0  0
 30 39  1  0  0  0  0
 30 87  1  0  0  0  0
 30 88  1  0  0  0  0
 31 38  1  0  0  0  0
 31 40  1  0  0  0  0
 31 89  1  0  0  0  0
 33 34  1  0  0  0  0
 33 45  1  0  0  0  0
 33 90  1  0  0  0  0
 34 37  1  0  0  0  0
 34 91  1  0  0  0  0
 34 92  1  0  0  0  0
 35 93  1  0  0  0  0
 35 94  1  0  0  0  0
 35 95  1  0  0  0  0
 36 96  1  0  0  0  0
 36 97  1  0  0  0  0
 36 98  1  0  0  0  0
 37 49  1  0  0  0  0
 37 50  1  0  0  0  0
 37100  1  0  0  0  0
 38 48  1  0  0  0  0
 38101  1  0  0  0  0
 38102  1  0  0  0  0
 39 59  1  0  0  0  0
 39103  1  0  0  0  0
 39104  1  0  0  0  0
 41 42  1  0  0  0  0
 41 54  1  0  0  0  0
 41106  1  0  0  0  0
 42 43  1  0  0  0  0
 42107  1  0  0  0  0
 42108  1  0  0  0  0
 43 55  1  0  0  0  0
 43 56  1  0  0  0  0
 43109  1  0  0  0  0
 44 46  1  0  0  0  0
 44 57  1  0  0  0  0
 44 58  1  0  0  0  0
 44 62  1  0  0  0  0
 46 51  1  0  0  0  0
 46110  1  0  0  0  0
 46111  1  0  0  0  0
 47 52  1  0  0  0  0
 47 53  1  0  0  0  0
 47112  1  0  0  0  0
 48 65  1  0  0  0  0
 48113  1  0  0  0  0
 48114  1  0  0  0  0
 49115  1  0  0  0  0
 49116  1  0  0  0  0
 49117  1  0  0  0  0
 50118  1  0  0  0  0
 50119  1  0  0  0  0
 50120  1  0  0  0  0
 51 60  1  0  0  0  0
 51121  1  0  0  0  0
 51122  1  0  0  0  0
 53 63  1  0  0  0  0
 53124  1  0  0  0  0
 53125  1  0  0  0  0
 55128  1  0  0  0  0
 55129  1  0  0  0  0
 55130  1  0  0  0  0
 56131  1  0  0  0  0
 56132  1  0  0  0  0
 56133  1  0  0  0  0
 57134  1  0  0  0  0
 57135  1  0  0  0  0
 57136  1  0  0  0  0
 58137  1  0  0  0  0
 58138  1  0  0  0  0
 58139  1  0  0  0  0
 61 66  1  0  0  0  0
 61 67  1  0  0  0  0
 61140  1  0  0  0  0
 63 70  1  0  0  0  0
 63141  1  0  0  0  0
 63142  1  0  0  0  0
 64 68  1  0  0  0  0
 64 69  1  0  0  0  0
 64144  1  0  0  0  0
 66145  1  0  0  0  0
 66146  1  0  0  0  0
 68147  1  0  0  0  0
 68148  1  0  0  0  0
 71 73  1  0  0  0  0
 71152  1  0  0  0  0
 71153  1  0  0  0  0
 72 74  1  0  0  0  0
 72156  1  0  0  0  0
 72157  1  0  0  0  0
 73 75  1  0  0  0  0
 73159  1  0  0  0  0
 73160  1  0  0  0  0
 74 76  1  0  0  0  0
 74162  1  0  0  0  0
 74163  1  0  0  0  0
 75 77  1  0  0  0  0
 75 78  2  0  0  0  0
 76 79  1  0  0  0  0
 76 80  2  0  0  0  0
 77 81  2  0  0  0  0
 78 82  1  0  0  0  0
 78165  1  0  0  0  0
 79 83  2  0  0  0  0
 80 84  1  0  0  0  0
 80166  1  0  0  0  0
 81 85  1  0  0  0  0
 81167  1  0  0  0  0
 82 85  2  0  0  0  0
 82168  1  0  0  0  0
 83 86  1  0  0  0  0
 83169  1  0  0  0  0
 84 86  2  0  0  0  0
 84170  1  0  0  0  0
 85171  1  0  0  0  0
 86172  1  0  0  0  0
M  END
> <PUBCHEM_COMPOUND_CID>
507533
> <PUBCHEM_COMPOUND_CANONICALIZED>
1
> <PUBCHEM_CACTVS_COMPLEXITY>
1960
> <PUBCHEM_CACTVS_HBOND_ACCEPTOR>
18
> <PUBCHEM_CACTVS_HBOND_DONOR>
14
> <PUBCHEM_CACTVS_ROTATABLE_BOND>
38
> <PUBCHEM_CACTVS_SUBSKEYS>
AAADcfB//gBmAAAAAAAAAAAAAAAAAAAAAAAwYAAAAAAAAAABQAAAHgYQCAAADyrF2CSyCILAAgSIAiHSGAACAAAgBQAIiIGIAogIYDKBkzGUYAAklgCIiAe8l4IPAAAAAAABAAAAAAAAAAIAAAAAAAAAAA==
> <PUBCHEM_IUPAC_OPENEYE_NAME>
5-[[(1S)-3-carboxy-1-[[(1S)-1-[[(1R)-2-[2-(2-chlorophenyl)ethylamino]-2-oxo-1-(sulfanylmethyl)ethyl]carbamoyl]-3-methyl-butyl]carbamoyl]propyl]amino]-2,2-dimethyl-5-oxo-pentanoic acid;5-[[(1S)-3-carboxy-1-[[(1S)-1-[[(1R)-2-[2-(2-chlorophenyl)ethylamino]-2-oxo-1-(sulfanylmethyl)ethyl]carbamoyl]-3-methyl-butyl]carbamoyl]propyl]amino]-4,4-dimethyl-5-oxo-pentanoic acid
> <PUBCHEM_IUPAC_CAS_NAME>
5-[[(2S)-4-carboxy-1-[[(2S)-1-[[(2R)-1-[2-(2-chlorophenyl)ethylamino]-3-mercapto-1-oxopropan-2-yl]amino]-4-methyl-1-oxopentan-2-yl]amino]-1-oxobutan-2-yl]amino]-2,2-dimethyl-5-oxopentanoic acid;5-[[(2S)-4-carboxy-1-[[(2S)-1-[[(2R)-1-[2-(2-chlorophenyl)ethylamino]-3-mercapto-1-oxopropan-2-yl]amino]-4-methyl-1-oxopentan-2-yl]amino]-1-oxobutan-2-yl]amino]-4,4-dimethyl-5-oxopentanoic acid
> <PUBCHEM_IUPAC_NAME_MARKUP>
5-[[(2<I>S</I>)-4-carboxy-1-[[(2<I>S</I>)-1-[[(2<I>R</I>)-1-[2-(2-chlorophenyl)ethylamino]-1-oxo-3-sulfanylpropan-2-yl]amino]-4-methyl-1-oxopentan-2-yl]amino]-1-oxobutan-2-yl]amino]-2,2-dimethyl-5-oxopentanoic acid;5-[[(2<I>S</I>)-4-carboxy-1-[[(2<I>S</I>)-1-[[(2<I>R</I>)-1-[2-(2-chlorophenyl)ethylamino]-1-oxo-3-sulfanylpropan-2-yl]amino]-4-methyl-1-oxopentan-2-yl]amino]-1-oxobutan-2-yl]amino]-4,4-dimethyl-5-oxopentanoic acid
> <PUBCHEM_IUPAC_NAME>
5-[[(2S)-4-carboxy-1-[[(2S)-1-[[(2R)-1-[2-(2-chlorophenyl)ethylamino]-1-oxo-3-sulfanylpropan-2-yl]amino]-4-methyl-1-oxopentan-2-yl]amino]-1-oxobutan-2-yl]amino]-2,2-dimethyl-5-oxopentanoic acid;5-[[(2S)-4-carboxy-1-[[(2S)-1-[[(2R)-1-[2-(2-chlorophenyl)ethylamino]-1-oxo-3-sulfanylpropan-2-yl]amino]-4-methyl-1-oxopentan-2-yl]amino]-1-oxobutan-2-yl]amino]-4,4-dimethyl-5-oxopentanoic acid
> <PUBCHEM_IUPAC_SYSTEMATIC_NAME>
5-[[(2S)-1-[[(2S)-1-[[(2R)-1-[2-(2-chlorophenyl)ethylamino]-1-oxidanylidene-3-sulfanyl-propan-2-yl]amino]-4-methyl-1-oxidanylidene-pentan-2-yl]amino]-5-oxidanyl-1,5-bis(oxidanylidene)pentan-2-yl]amino]-2,2-dimethyl-5-oxidanylidene-pentanoic acid;5-[[(2S)-1-[[(2S)-1-[[(2R)-1-[2-(2-chlorophenyl)ethylamino]-1-oxidanylidene-3-sulfanyl-propan-2-yl]amino]-4-methyl-1-oxidanylidene-pentan-2-yl]amino]-5-oxidanyl-1,5-bis(oxidanylidene)pentan-2-yl]amino]-4,4-dimethyl-5-oxidanylidene-pentanoic acid
> <PUBCHEM_IUPAC_TRADITIONAL_NAME>
5-[[(1S)-3-carboxy-1-[[(1S)-1-[[(1R)-2-[2-(2-chlorophenyl)ethylamino]-2-keto-1-(mercaptomethyl)ethyl]carbamoyl]-3-methyl-butyl]carbamoyl]propyl]amino]-5-keto-2,2-dimethyl-valeric acid;5-[[(1S)-3-carboxy-1-[[(1S)-1-[[(1R)-2-[2-(2-chlorophenyl)ethylamino]-2-keto-1-(mercaptomethyl)ethyl]carbamoyl]-3-methyl-butyl]carbamoyl]propyl]amino]-5-keto-4,4-dimethyl-valeric acid
> <PUBCHEM_IUPAC_INCHI>
InChI=1S/2C29H43ClN4O8S/c1-17(2)15-21(27(40)34-22(16-43)25(38)31-14-12-18-7-5-6-8-19(18)30)33-26(39)20(9-10-24(36)37)32-23(35)11-13-29(3,4)28(41)42;1-17(2)15-21(27(41)33-22(16-43)25(39)31-14-12-18-7-5-6-8-19(18)30)32-26(40)20(9-10-23(35)36)34-28(42)29(3,4)13-11-24(37)38/h5-8,17,20-22,43H,9-16H2,1-4H3,(H,31,38)(H,32,35)(H,33,39)(H,34,40)(H,36,37)(H,41,42);5-8,17,20-22,43H,9-16H2,1-4H3,(H,31,39)(H,32,40)(H,33,41)(H,34,42)(H,35,36)(H,37,38)/t2*20-,21-,22-/m00/s1
> <PUBCHEM_IUPAC_INCHIKEY>
KHVSZLJPPSOEFJ-PWGSYTEZSA-N
> <PUBCHEM_EXACT_MASS>
1284.4980264
> <PUBCHEM_MOLECULAR_FORMULA>
C58H86Cl2N8O16S2
> <PUBCHEM_MOLECULAR_WEIGHT>
1286.4
> <PUBCHEM_OPENEYE_CAN_SMILES>
CC(C)CC(C(=O)NC(CS)C(=O)NCCC1=CC=CC=C1Cl)NC(=O)C(CCC(=O)O)NC(=O)CCC(C)(C)C(=O)O.CC(C)CC(C(=O)NC(CS)C(=O)NCCC1=CC=CC=C1Cl)NC(=O)C(CCC(=O)O)NC(=O)C(C)(C)CCC(=O)O
> <PUBCHEM_OPENEYE_ISO_SMILES>
CC(C)C[C@@H](C(=O)N[C@@H](CS)C(=O)NCCC1=CC=CC=C1Cl)NC(=O)[C@H](CCC(=O)O)NC(=O)CCC(C)(C)C(=O)O.CC(C)C[C@@H](C(=O)N[C@@H](CS)C(=O)NCCC1=CC=CC=C1Cl)NC(=O)[C@H](CCC(=O)O)NC(=O)C(C)(C)CCC(=O)O
> <PUBCHEM_CACTVS_TPSA>
384
> <PUBCHEM_MONOISOTOPIC_WEIGHT>
1284.4980264
> <PUBCHEM_TOTAL_CHARGE>
0
> <PUBCHEM_HEAVY_ATOM_COUNT>
86
> <PUBCHEM_ATOM_DEF_STEREO_COUNT>
6
> <PUBCHEM_ATOM_UDEF_STEREO_COUNT>
0
> <PUBCHEM_BOND_DEF_STEREO_COUNT>
0
> <PUBCHEM_BOND_UDEF_STEREO_COUNT>
0
> <PUBCHEM_ISOTOPIC_ATOM_COUNT>
0
> <PUBCHEM_COMPONENT_COUNT>
2
> <PUBCHEM_CACTVS_TAUTO_COUNT>
-1
> <PUBCHEM_COORDINATE_TYPE>
1
5
255
> <PUBCHEM_BONDANNOTATIONS>
31  21  5
33  22  5
41  23  5
47  24  5
61  25  6
64  26  6
75  77  8
75  78  8
76  79  8
76  80  8
77  81  8
78  82  8
79  83  8
80  84  8
81  85  8
82  85  8
83  86  8
84  86  8
$$$$
