507590
  -OEChem-10302200282D
 88 90  0     1  0  0  0  0  0999 V2000
    2.0000   -1.9669    0.0000 Cl  0  0  0  0  0  0  0  0  0  0  0  0
    3.7320    4.0331    0.0000 F   0  0  0  0  0  0  0  0  0  0  0  0
    5.4641    4.0331    0.0000 F   0  0  0  0  0  0  0  0  0  0  0  0
    8.4405    0.4791    0.0000 O   0  0  0  0  0  0  0  0  0  0  0  0
    7.1962    1.0331    0.0000 O   0  0  0  0  0  0  0  0  0  0  0  0
    9.9039   -2.2402    0.0000 O   0  0  0  0  0  0  0  0  0  0  0  0
    6.3301    0.5331    0.0000 O   0  0  0  0  0  0  0  0  0  0  0  0
   11.1910   -1.0812    0.0000 O   0  0  0  0  0  0  0  0  0  0  0  0
   13.1473   -0.6654    0.0000 O   0  0  0  0  0  0  0  0  0  0  0  0
   12.7872    1.0288    0.0000 O   0  0  0  0  0  0  0  0  0  0  0  0
    8.9757    2.1264    0.0000 N   0  0  0  0  0  0  0  0  0  0  0  0
    6.3301    2.5331    0.0000 N   0  0  0  0  0  0  0  0  0  0  0  0
    9.5438   -0.5460    0.0000 N   0  0  0  0  0  0  0  0  0  0  0  0
    4.5981    0.5331    0.0000 N   0  0  0  0  0  0  0  0  0  0  0  0
    9.6448    2.8695    0.0000 C   0  0  3  0  0  0  0  0  0  0  0  0
    8.0622    2.5331    0.0000 C   0  0  1  0  0  0  0  0  0  0  0  0
    9.1448    3.7356    0.0000 C   0  0  0  0  0  0  0  0  0  0  0  0
    8.1667    3.5276    0.0000 C   0  0  0  0  0  0  0  0  0  0  0  0
   10.5584    3.2763    0.0000 C   0  0  0  0  0  0  0  0  0  0  0  0
    9.1836    1.1482    0.0000 C   0  0  0  0  0  0  0  0  0  0  0  0
    7.1962    2.0331    0.0000 C   0  0  0  0  0  0  0  0  0  0  0  0
    9.8528    0.4051    0.0000 C   0  0  1  0  0  0  0  0  0  0  0  0
   10.8309    0.6130    0.0000 C   0  0  0  0  0  0  0  0  0  0  0  0
   10.6629    4.2708    0.0000 C   0  0  0  0  0  0  0  0  0  0  0  0
   11.3674    2.6885    0.0000 C   0  0  0  0  0  0  0  0  0  0  0  0
    5.4641    2.0331    0.0000 C   0  0  1  0  0  0  0  0  0  0  0  0
   11.5000   -0.1301    0.0000 C   0  0  0  0  0  0  0  0  0  0  0  0
   11.5765    4.6775    0.0000 C   0  0  0  0  0  0  0  0  0  0  0  0
   12.2810    3.0952    0.0000 C   0  0  0  0  0  0  0  0  0  0  0  0
    4.5981    2.5331    0.0000 C   0  0  0  0  0  0  0  0  0  0  0  0
   12.3855    4.0897    0.0000 C   0  0  0  0  0  0  0  0  0  0  0  0
    5.4641    1.0331    0.0000 C   0  0  0  0  0  0  0  0  0  0  0  0
   10.2129   -1.2891    0.0000 C   0  0  0  0  0  0  0  0  0  0  0  0
    4.5981    3.5331    0.0000 C   0  0  0  0  0  0  0  0  0  0  0  0
   12.4782    0.0778    0.0000 C   0  0  0  0  0  0  0  0  0  0  0  0
    4.5981   -0.4669    0.0000 C   0  0  0  0  0  0  0  0  0  0  0  0
   10.5730   -2.9833    0.0000 C   0  0  0  0  0  0  0  0  0  0  0  0
    3.7320   -0.9669    0.0000 C   0  0  0  0  0  0  0  0  0  0  0  0
   10.2640   -3.9344    0.0000 C   0  0  0  0  0  0  0  0  0  0  0  0
    3.7320   -1.9669    0.0000 C   0  0  0  0  0  0  0  0  0  0  0  0
   10.9331   -4.6775    0.0000 C   0  0  0  0  0  0  0  0  0  0  0  0
    9.2858   -4.1423    0.0000 C   0  0  0  0  0  0  0  0  0  0  0  0
    2.8660   -2.4669    0.0000 C   0  0  0  0  0  0  0  0  0  0  0  0
    4.5981   -2.4669    0.0000 C   0  0  0  0  0  0  0  0  0  0  0  0
    2.8660   -3.4669    0.0000 C   0  0  0  0  0  0  0  0  0  0  0  0
    4.5981   -3.4669    0.0000 C   0  0  0  0  0  0  0  0  0  0  0  0
    3.7320   -3.9669    0.0000 C   0  0  0  0  0  0  0  0  0  0  0  0
   10.0093    2.3679    0.0000 H   0  0  0  0  0  0  0  0  0  0  0  0
    8.0946    1.9140    0.0000 H   0  0  0  0  0  0  0  0  0  0  0  0
    9.7112    3.9877    0.0000 H   0  0  0  0  0  0  0  0  0  0  0  0
    8.9533    4.3252    0.0000 H   0  0  0  0  0  0  0  0  0  0  0  0
    8.1019    4.1442    0.0000 H   0  0  0  0  0  0  0  0  0  0  0  0
    7.5467    3.5276    0.0000 H   0  0  0  0  0  0  0  0  0  0  0  0
   10.2676   -0.0557    0.0000 H   0  0  0  0  0  0  0  0  0  0  0  0
    6.3301    3.1531    0.0000 H   0  0  0  0  0  0  0  0  0  0  0  0
   11.3567    0.9415    0.0000 H   0  0  0  0  0  0  0  0  0  0  0  0
   10.5987    1.1878    0.0000 H   0  0  0  0  0  0  0  0  0  0  0  0
   10.1613    4.6352    0.0000 H   0  0  0  0  0  0  0  0  0  0  0  0
   11.3026    2.0719    0.0000 H   0  0  0  0  0  0  0  0  0  0  0  0
    5.4641    2.6531    0.0000 H   0  0  0  0  0  0  0  0  0  0  0  0
    8.9373   -0.6749    0.0000 H   0  0  0  0  0  0  0  0  0  0  0  0
   10.9743   -0.4587    0.0000 H   0  0  0  0  0  0  0  0  0  0  0  0
   11.7323   -0.7050    0.0000 H   0  0  0  0  0  0  0  0  0  0  0  0
   11.6413    5.2941    0.0000 H   0  0  0  0  0  0  0  0  0  0  0  0
   12.7826    2.7308    0.0000 H   0  0  0  0  0  0  0  0  0  0  0  0
    3.9875    2.6408    0.0000 H   0  0  0  0  0  0  0  0  0  0  0  0
    4.3860    1.9505    0.0000 H   0  0  0  0  0  0  0  0  0  0  0  0
   12.9519    4.3419    0.0000 H   0  0  0  0  0  0  0  0  0  0  0  0
    4.5981    4.1531    0.0000 H   0  0  0  0  0  0  0  0  0  0  0  0
    4.0611    0.8431    0.0000 H   0  0  0  0  0  0  0  0  0  0  0  0
    4.8101   -1.0495    0.0000 H   0  0  0  0  0  0  0  0  0  0  0  0
    5.2087   -0.3592    0.0000 H   0  0  0  0  0  0  0  0  0  0  0  0
   11.1204   -3.2744    0.0000 H   0  0  0  0  0  0  0  0  0  0  0  0
   10.9547   -2.4947    0.0000 H   0  0  0  0  0  0  0  0  0  0  0  0
    3.5200   -0.3843    0.0000 H   0  0  0  0  0  0  0  0  0  0  0  0
    3.1215   -1.0745    0.0000 H   0  0  0  0  0  0  0  0  0  0  0  0
   10.8704   -3.8055    0.0000 H   0  0  0  0  0  0  0  0  0  0  0  0
   13.7538   -0.5365    0.0000 H   0  0  0  0  0  0  0  0  0  0  0  0
   10.4724   -5.0924    0.0000 H   0  0  0  0  0  0  0  0  0  0  0  0
   11.3480   -5.1383    0.0000 H   0  0  0  0  0  0  0  0  0  0  0  0
   11.3939   -4.2627    0.0000 H   0  0  0  0  0  0  0  0  0  0  0  0
    9.1569   -3.5358    0.0000 H   0  0  0  0  0  0  0  0  0  0  0  0
    8.6794   -4.2712    0.0000 H   0  0  0  0  0  0  0  0  0  0  0  0
    9.4147   -4.7487    0.0000 H   0  0  0  0  0  0  0  0  0  0  0  0
    5.1350   -2.1569    0.0000 H   0  0  0  0  0  0  0  0  0  0  0  0
    2.3291   -3.7769    0.0000 H   0  0  0  0  0  0  0  0  0  0  0  0
    5.1350   -3.7769    0.0000 H   0  0  0  0  0  0  0  0  0  0  0  0
    3.7320   -4.5869    0.0000 H   0  0  0  0  0  0  0  0  0  0  0  0
  1 43  1  0  0  0  0
  2 34  1  0  0  0  0
  3 34  1  0  0  0  0
  4 20  2  0  0  0  0
  5 21  2  0  0  0  0
  6 33  1  0  0  0  0
  6 37  1  0  0  0  0
  7 32  2  0  0  0  0
  8 33  2  0  0  0  0
  9 35  1  0  0  0  0
  9 78  1  0  0  0  0
 10 35  2  0  0  0  0
 11 15  1  0  0  0  0
 11 16  1  0  0  0  0
 11 20  1  0  0  0  0
 12 21  1  0  0  0  0
 26 12  1  6  0  0  0
 12 55  1  0  0  0  0
 22 13  1  1  0  0  0
 13 33  1  0  0  0  0
 13 61  1  0  0  0  0
 14 32  1  0  0  0  0
 14 36  1  0  0  0  0
 14 70  1  0  0  0  0
 15 17  1  0  0  0  0
 15 19  1  0  0  0  0
 15 48  1  0  0  0  0
 16 18  1  0  0  0  0
 16 21  1  6  0  0  0
 16 49  1  0  0  0  0
 17 18  1  0  0  0  0
 17 50  1  0  0  0  0
 17 51  1  0  0  0  0
 18 52  1  0  0  0  0
 18 53  1  0  0  0  0
 19 24  2  0  0  0  0
 19 25  1  0  0  0  0
 20 22  1  0  0  0  0
 22 23  1  0  0  0  0
 22 54  1  0  0  0  0
 23 27  1  0  0  0  0
 23 56  1  0  0  0  0
 23 57  1  0  0  0  0
 24 28  1  0  0  0  0
 24 58  1  0  0  0  0
 25 29  2  0  0  0  0
 25 59  1  0  0  0  0
 26 30  1  0  0  0  0
 26 32  1  0  0  0  0
 26 60  1  0  0  0  0
 27 35  1  0  0  0  0
 27 62  1  0  0  0  0
 27 63  1  0  0  0  0
 28 31  2  0  0  0  0
 28 64  1  0  0  0  0
 29 31  1  0  0  0  0
 29 65  1  0  0  0  0
 30 34  1  0  0  0  0
 30 66  1  0  0  0  0
 30 67  1  0  0  0  0
 31 68  1  0  0  0  0
 34 69  1  0  0  0  0
 36 38  1  0  0  0  0
 36 71  1  0  0  0  0
 36 72  1  0  0  0  0
 37 39  1  0  0  0  0
 37 73  1  0  0  0  0
 37 74  1  0  0  0  0
 38 40  1  0  0  0  0
 38 75  1  0  0  0  0
 38 76  1  0  0  0  0
 39 41  1  0  0  0  0
 39 42  1  0  0  0  0
 39 77  1  0  0  0  0
 40 43  1  0  0  0  0
 40 44  2  0  0  0  0
 41 79  1  0  0  0  0
 41 80  1  0  0  0  0
 41 81  1  0  0  0  0
 42 82  1  0  0  0  0
 42 83  1  0  0  0  0
 42 84  1  0  0  0  0
 43 45  2  0  0  0  0
 44 46  1  0  0  0  0
 44 85  1  0  0  0  0
 45 47  1  0  0  0  0
 45 86  1  0  0  0  0
 46 47  2  0  0  0  0
 46 87  1  0  0  0  0
 47 88  1  0  0  0  0
M  END
> <PUBCHEM_COMPOUND_CID>
507590
> <PUBCHEM_COMPOUND_CANONICALIZED>
1
> <PUBCHEM_CACTVS_COMPLEXITY>
1060
> <PUBCHEM_CACTVS_HBOND_ACCEPTOR>
9
> <PUBCHEM_CACTVS_HBOND_DONOR>
4
> <PUBCHEM_CACTVS_ROTATABLE_BOND>
17
> <PUBCHEM_CACTVS_SUBSKEYS>
AAADcfB/uYAEAAAAAAAAAAAAAAAAAWAAAAAwYAAAAAAAAAABQAAAHwIQCAAADSrhmDYyCIPABgCIAiHSGACCAAAgBQAIiIGIBokIYDKBkzGcYAhklgCIiAe8n8KeAAAAAAABAAAAAAAAAAIAAAAAAAAAAA==
> <PUBCHEM_IUPAC_OPENEYE_NAME>
(4R)-5-[(2S)-2-[[(1S)-1-[2-(2-chlorophenyl)ethylcarbamoyl]-3,3-difluoro-propyl]carbamoyl]-5-phenyl-pyrrolidin-1-yl]-4-(isobutoxycarbonylamino)-5-oxo-pentanoic acid
> <PUBCHEM_IUPAC_CAS_NAME>
(4R)-5-[(2S)-2-[[[(2S)-1-[2-(2-chlorophenyl)ethylamino]-4,4-difluoro-1-oxobutan-2-yl]amino]-oxomethyl]-5-phenyl-1-pyrrolidinyl]-4-[[2-methylpropoxy(oxo)methyl]amino]-5-oxopentanoic acid
> <PUBCHEM_IUPAC_NAME_MARKUP>
(4<I>R</I>)-5-[(2<I>S</I>)-2-[[(2<I>S</I>)-1-[2-(2-chlorophenyl)ethylamino]-4,4-difluoro-1-oxobutan-2-yl]carbamoyl]-5-phenylpyrrolidin-1-yl]-4-(2-methylpropoxycarbonylamino)-5-oxopentanoic acid
> <PUBCHEM_IUPAC_NAME>
(4R)-5-[(2S)-2-[[(2S)-1-[2-(2-chlorophenyl)ethylamino]-4,4-difluoro-1-oxobutan-2-yl]carbamoyl]-5-phenylpyrrolidin-1-yl]-4-(2-methylpropoxycarbonylamino)-5-oxopentanoic acid
> <PUBCHEM_IUPAC_SYSTEMATIC_NAME>
(4R)-5-[(2S)-2-[[(2S)-1-[2-(2-chlorophenyl)ethylamino]-4,4-bis(fluoranyl)-1-oxidanylidene-butan-2-yl]carbamoyl]-5-phenyl-pyrrolidin-1-yl]-4-(2-methylpropoxycarbonylamino)-5-oxidanylidene-pentanoic acid
> <PUBCHEM_IUPAC_TRADITIONAL_NAME>
(4R)-5-[(2S)-2-[[(1S)-1-[2-(2-chlorophenyl)ethylcarbamoyl]-3,3-difluoro-propyl]carbamoyl]-5-phenyl-pyrrolidino]-4-(isobutoxycarbonylamino)-5-keto-valeric acid
> <PUBCHEM_IUPAC_INCHI>
InChI=1S/C33H41ClF2N4O7/c1-20(2)19-47-33(46)39-24(12-15-29(41)42)32(45)40-26(22-9-4-3-5-10-22)13-14-27(40)31(44)38-25(18-28(35)36)30(43)37-17-16-21-8-6-7-11-23(21)34/h3-11,20,24-28H,12-19H2,1-2H3,(H,37,43)(H,38,44)(H,39,46)(H,41,42)/t24-,25+,26?,27+/m1/s1
> <PUBCHEM_IUPAC_INCHIKEY>
MOBSDNXRRUCYOK-ZSELOXDISA-N
> <PUBCHEM_XLOGP3_AA>
5.3
> <PUBCHEM_EXACT_MASS>
678.2631837
> <PUBCHEM_MOLECULAR_FORMULA>
C33H41ClF2N4O7
> <PUBCHEM_MOLECULAR_WEIGHT>
679.1
> <PUBCHEM_OPENEYE_CAN_SMILES>
CC(C)COC(=O)NC(CCC(=O)O)C(=O)N1C(CCC1C(=O)NC(CC(F)F)C(=O)NCCC2=CC=CC=C2Cl)C3=CC=CC=C3
> <PUBCHEM_OPENEYE_ISO_SMILES>
CC(C)COC(=O)N[C@H](CCC(=O)O)C(=O)N1[C@@H](CCC1C2=CC=CC=C2)C(=O)N[C@@H](CC(F)F)C(=O)NCCC3=CC=CC=C3Cl
> <PUBCHEM_CACTVS_TPSA>
154
> <PUBCHEM_MONOISOTOPIC_WEIGHT>
678.2631837
> <PUBCHEM_TOTAL_CHARGE>
0
> <PUBCHEM_HEAVY_ATOM_COUNT>
47
> <PUBCHEM_ATOM_DEF_STEREO_COUNT>
3
> <PUBCHEM_ATOM_UDEF_STEREO_COUNT>
1
> <PUBCHEM_BOND_DEF_STEREO_COUNT>
0
> <PUBCHEM_BOND_UDEF_STEREO_COUNT>
0
> <PUBCHEM_ISOTOPIC_ATOM_COUNT>
0
> <PUBCHEM_COMPONENT_COUNT>
1
> <PUBCHEM_CACTVS_TAUTO_COUNT>
-1
> <PUBCHEM_COORDINATE_TYPE>
1
5
255
> <PUBCHEM_BONDANNOTATIONS>
26  12  6
22  13  5
15  19  3
16  21  6
19  24  8
19  25  8
24  28  8
25  29  8
28  31  8
29  31  8
40  43  8
40  44  8
43  45  8
44  46  8
45  47  8
46  47  8
$$$$
