507686
  -OEChem-10302200282D
 78 79  0     1  0  0  0  0  0999 V2000
    5.4641    4.2025    0.0000 F   0  0  0  0  0  0  0  0  0  0  0  0
    3.7320    4.2025    0.0000 F   0  0  0  0  0  0  0  0  0  0  0  0
    5.4641   -1.7975    0.0000 F   0  0  0  0  0  0  0  0  0  0  0  0
    2.0000   -1.7975    0.0000 F   0  0  0  0  0  0  0  0  0  0  0  0
    9.5516    4.8185    0.0000 O   0  0  0  0  0  0  0  0  0  0  0  0
    7.1962    1.2025    0.0000 O   0  0  0  0  0  0  0  0  0  0  0  0
    8.4405    0.6485    0.0000 O   0  0  0  0  0  0  0  0  0  0  0  0
   10.8778    1.6777    0.0000 O   0  0  0  0  0  0  0  0  0  0  0  0
    6.3301    0.7025    0.0000 O   0  0  0  0  0  0  0  0  0  0  0  0
    2.8660   -5.2975    0.0000 O   0  0  0  0  0  0  0  0  0  0  0  0
    4.5981   -5.2975    0.0000 O   0  0  0  0  0  0  0  0  0  0  0  0
    8.9757    2.2958    0.0000 N   0  0  0  0  0  0  0  0  0  0  0  0
    6.3301    2.7025    0.0000 N   0  0  0  0  0  0  0  0  0  0  0  0
    4.5981    0.7025    0.0000 N   0  0  0  0  0  0  0  0  0  0  0  0
    9.1448    3.9049    0.0000 C   0  0  2  0  0  0  0  0  0  0  0  0
    8.0622    2.7025    0.0000 C   0  0  3  0  0  0  0  0  0  0  0  0
    8.1667    3.6970    0.0000 C   0  0  0  0  0  0  0  0  0  0  0  0
    9.6448    3.0389    0.0000 C   0  0  0  0  0  0  0  0  0  0  0  0
    7.1962    2.2025    0.0000 C   0  0  0  0  0  0  0  0  0  0  0  0
    9.1836    1.3176    0.0000 C   0  0  0  0  0  0  0  0  0  0  0  0
   10.5461    4.9230    0.0000 C   0  0  0  0  0  0  0  0  0  0  0  0
   10.1347    1.0086    0.0000 C   0  0  2  0  0  0  0  0  0  0  0  0
   10.3426    0.0304    0.0000 C   0  0  0  0  0  0  0  0  0  0  0  0
   11.5406    5.0275    0.0000 C   0  0  0  0  0  0  0  0  0  0  0  0
   10.4416    5.9175    0.0000 C   0  0  0  0  0  0  0  0  0  0  0  0
   10.6506    3.9285    0.0000 C   0  0  0  0  0  0  0  0  0  0  0  0
    5.4641    2.2025    0.0000 C   0  0  1  0  0  0  0  0  0  0  0  0
   11.2937   -0.2786    0.0000 C   0  0  0  0  0  0  0  0  0  0  0  0
    9.5995   -0.6387    0.0000 C   0  0  0  0  0  0  0  0  0  0  0  0
    4.5981    2.7025    0.0000 C   0  0  0  0  0  0  0  0  0  0  0  0
    5.4641    1.2025    0.0000 C   0  0  0  0  0  0  0  0  0  0  0  0
    4.5981    3.7025    0.0000 C   0  0  0  0  0  0  0  0  0  0  0  0
    4.5981   -0.2975    0.0000 C   0  0  0  0  0  0  0  0  0  0  0  0
    3.7320   -0.7975    0.0000 C   0  0  0  0  0  0  0  0  0  0  0  0
    3.7320   -1.7975    0.0000 C   0  0  0  0  0  0  0  0  0  0  0  0
    4.5981   -2.2975    0.0000 C   0  0  0  0  0  0  0  0  0  0  0  0
    2.8660   -2.2975    0.0000 C   0  0  0  0  0  0  0  0  0  0  0  0
    4.5981   -3.2975    0.0000 C   0  0  0  0  0  0  0  0  0  0  0  0
    2.8660   -3.2975    0.0000 C   0  0  0  0  0  0  0  0  0  0  0  0
    3.7320   -3.7975    0.0000 C   0  0  0  0  0  0  0  0  0  0  0  0
    3.7320   -4.7975    0.0000 C   0  0  0  0  0  0  0  0  0  0  0  0
    8.7547    4.3868    0.0000 H   0  0  0  0  0  0  0  0  0  0  0  0
    8.0946    2.0833    0.0000 H   0  0  0  0  0  0  0  0  0  0  0  0
    8.1019    4.3136    0.0000 H   0  0  0  0  0  0  0  0  0  0  0  0
    7.5467    3.6970    0.0000 H   0  0  0  0  0  0  0  0  0  0  0  0
   10.0597    2.5781    0.0000 H   0  0  0  0  0  0  0  0  0  0  0  0
   10.1464    3.4033    0.0000 H   0  0  0  0  0  0  0  0  0  0  0  0
   10.7243    0.8170    0.0000 H   0  0  0  0  0  0  0  0  0  0  0  0
    9.7530    0.2220    0.0000 H   0  0  0  0  0  0  0  0  0  0  0  0
    6.3301    3.3225    0.0000 H   0  0  0  0  0  0  0  0  0  0  0  0
   11.6054    4.4109    0.0000 H   0  0  0  0  0  0  0  0  0  0  0  0
   12.1572    5.0923    0.0000 H   0  0  0  0  0  0  0  0  0  0  0  0
   11.4758    5.6441    0.0000 H   0  0  0  0  0  0  0  0  0  0  0  0
   11.0582    5.9823    0.0000 H   0  0  0  0  0  0  0  0  0  0  0  0
   10.3768    6.5341    0.0000 H   0  0  0  0  0  0  0  0  0  0  0  0
    9.8250    5.8527    0.0000 H   0  0  0  0  0  0  0  0  0  0  0  0
   10.0340    3.8637    0.0000 H   0  0  0  0  0  0  0  0  0  0  0  0
   10.7154    3.3119    0.0000 H   0  0  0  0  0  0  0  0  0  0  0  0
   11.2672    3.9933    0.0000 H   0  0  0  0  0  0  0  0  0  0  0  0
    5.4641    2.8225    0.0000 H   0  0  0  0  0  0  0  0  0  0  0  0
   11.1021   -0.8682    0.0000 H   0  0  0  0  0  0  0  0  0  0  0  0
   11.8833   -0.4702    0.0000 H   0  0  0  0  0  0  0  0  0  0  0  0
   11.4853    0.3111    0.0000 H   0  0  0  0  0  0  0  0  0  0  0  0
    9.1846   -0.1779    0.0000 H   0  0  0  0  0  0  0  0  0  0  0  0
    9.1387   -1.0536    0.0000 H   0  0  0  0  0  0  0  0  0  0  0  0
   10.0143   -1.0994    0.0000 H   0  0  0  0  0  0  0  0  0  0  0  0
    3.9875    2.8102    0.0000 H   0  0  0  0  0  0  0  0  0  0  0  0
    4.3860    2.1199    0.0000 H   0  0  0  0  0  0  0  0  0  0  0  0
   11.4675    1.4861    0.0000 H   0  0  0  0  0  0  0  0  0  0  0  0
    4.5981    4.3225    0.0000 H   0  0  0  0  0  0  0  0  0  0  0  0
    4.0611    1.0125    0.0000 H   0  0  0  0  0  0  0  0  0  0  0  0
    4.8101   -0.8801    0.0000 H   0  0  0  0  0  0  0  0  0  0  0  0
    5.2087   -0.1899    0.0000 H   0  0  0  0  0  0  0  0  0  0  0  0
    3.5200   -0.2149    0.0000 H   0  0  0  0  0  0  0  0  0  0  0  0
    3.1215   -0.9052    0.0000 H   0  0  0  0  0  0  0  0  0  0  0  0
    5.1350   -3.6075    0.0000 H   0  0  0  0  0  0  0  0  0  0  0  0
    2.3291   -3.6075    0.0000 H   0  0  0  0  0  0  0  0  0  0  0  0
    2.8660   -5.9175    0.0000 H   0  0  0  0  0  0  0  0  0  0  0  0
  1 32  1  0  0  0  0
  2 32  1  0  0  0  0
  3 36  1  0  0  0  0
  4 37  1  0  0  0  0
 15  5  1  1  0  0  0
  5 21  1  0  0  0  0
  6 19  2  0  0  0  0
  7 20  2  0  0  0  0
 22  8  1  1  0  0  0
  8 69  1  0  0  0  0
  9 31  2  0  0  0  0
 10 41  1  0  0  0  0
 10 78  1  0  0  0  0
 11 41  2  0  0  0  0
 12 16  1  0  0  0  0
 12 18  1  0  0  0  0
 12 20  1  0  0  0  0
 13 19  1  0  0  0  0
 27 13  1  6  0  0  0
 13 50  1  0  0  0  0
 14 31  1  0  0  0  0
 14 33  1  0  0  0  0
 14 71  1  0  0  0  0
 15 17  1  0  0  0  0
 15 18  1  0  0  0  0
 15 42  1  0  0  0  0
 16 17  1  0  0  0  0
 16 19  1  0  0  0  0
 16 43  1  0  0  0  0
 17 44  1  0  0  0  0
 17 45  1  0  0  0  0
 18 46  1  0  0  0  0
 18 47  1  0  0  0  0
 20 22  1  0  0  0  0
 21 24  1  0  0  0  0
 21 25  1  0  0  0  0
 21 26  1  0  0  0  0
 22 23  1  0  0  0  0
 22 48  1  0  0  0  0
 23 28  1  0  0  0  0
 23 29  1  0  0  0  0
 23 49  1  0  0  0  0
 24 51  1  0  0  0  0
 24 52  1  0  0  0  0
 24 53  1  0  0  0  0
 25 54  1  0  0  0  0
 25 55  1  0  0  0  0
 25 56  1  0  0  0  0
 26 57  1  0  0  0  0
 26 58  1  0  0  0  0
 26 59  1  0  0  0  0
 27 30  1  0  0  0  0
 27 31  1  0  0  0  0
 27 60  1  0  0  0  0
 28 61  1  0  0  0  0
 28 62  1  0  0  0  0
 28 63  1  0  0  0  0
 29 64  1  0  0  0  0
 29 65  1  0  0  0  0
 29 66  1  0  0  0  0
 30 32  1  0  0  0  0
 30 67  1  0  0  0  0
 30 68  1  0  0  0  0
 32 70  1  0  0  0  0
 33 34  1  0  0  0  0
 33 72  1  0  0  0  0
 33 73  1  0  0  0  0
 34 35  1  0  0  0  0
 34 74  1  0  0  0  0
 34 75  1  0  0  0  0
 35 36  2  0  0  0  0
 35 37  1  0  0  0  0
 36 38  1  0  0  0  0
 37 39  2  0  0  0  0
 38 40  2  0  0  0  0
 38 76  1  0  0  0  0
 39 40  1  0  0  0  0
 39 77  1  0  0  0  0
 40 41  1  0  0  0  0
M  END
> <PUBCHEM_COMPOUND_CID>
507686
> <PUBCHEM_COMPOUND_CANONICALIZED>
1
> <PUBCHEM_CACTVS_COMPLEXITY>
921
> <PUBCHEM_CACTVS_HBOND_ACCEPTOR>
11
> <PUBCHEM_CACTVS_HBOND_DONOR>
4
> <PUBCHEM_CACTVS_ROTATABLE_BOND>
13
> <PUBCHEM_CACTVS_SUBSKEYS>
AAADcfB7OcAAAAAAAAAAAAAAAAAAAWAAAAAwAAAAAAAAAAABAAAAHwAQCAAADXzhmB4yCIPABgCIAiHSGAICAAAkAAAAiIHICMgKdjKAlTGXcQAm1gGYmYe6yfCOQAAAAAAAAACAAAAAAAAAAAAAAAAAAA==
> <PUBCHEM_IUPAC_OPENEYE_NAME>
4-[2-[[(2S)-2-[[(4R)-4-tert-butoxy-1-[(2S)-2-hydroxy-3-methyl-butanoyl]pyrrolidine-2-carbonyl]amino]-4,4-difluoro-butanoyl]amino]ethyl]-3,5-difluoro-benzoic acid
> <PUBCHEM_IUPAC_CAS_NAME>
4-[2-[[(2S)-4,4-difluoro-2-[[[(4R)-1-[(2S)-2-hydroxy-3-methyl-1-oxobutyl]-4-[(2-methylpropan-2-yl)oxy]-2-pyrrolidinyl]-oxomethyl]amino]-1-oxobutyl]amino]ethyl]-3,5-difluorobenzoic acid
> <PUBCHEM_IUPAC_NAME_MARKUP>
4-[2-[[(2<I>S</I>)-4,4-difluoro-2-[[(4<I>R</I>)-1-[(2<I>S</I>)-2-hydroxy-3-methylbutanoyl]-4-[(2-methylpropan-2-yl)oxy]pyrrolidine-2-carbonyl]amino]butanoyl]amino]ethyl]-3,5-difluorobenzoic acid
> <PUBCHEM_IUPAC_NAME>
4-[2-[[(2S)-4,4-difluoro-2-[[(4R)-1-[(2S)-2-hydroxy-3-methylbutanoyl]-4-[(2-methylpropan-2-yl)oxy]pyrrolidine-2-carbonyl]amino]butanoyl]amino]ethyl]-3,5-difluorobenzoic acid
> <PUBCHEM_IUPAC_SYSTEMATIC_NAME>
4-[2-[[(2S)-4,4-bis(fluoranyl)-2-[[(4R)-1-[(2S)-3-methyl-2-oxidanyl-butanoyl]-4-[(2-methylpropan-2-yl)oxy]pyrrolidin-2-yl]carbonylamino]butanoyl]amino]ethyl]-3,5-bis(fluoranyl)benzoic acid
> <PUBCHEM_IUPAC_TRADITIONAL_NAME>
4-[2-[[(2S)-2-[[(4R)-4-tert-butoxy-1-[(2S)-2-hydroxy-3-methyl-butanoyl]prolyl]amino]-4,4-difluoro-butanoyl]amino]ethyl]-3,5-difluoro-benzoic acid
> <PUBCHEM_IUPAC_INCHI>
InChI=1S/C27H37F4N3O7/c1-13(2)22(35)25(38)34-12-15(41-27(3,4)5)10-20(34)24(37)33-19(11-21(30)31)23(36)32-7-6-16-17(28)8-14(26(39)40)9-18(16)29/h8-9,13,15,19-22,35H,6-7,10-12H2,1-5H3,(H,32,36)(H,33,37)(H,39,40)/t15-,19+,20?,22+/m1/s1
> <PUBCHEM_IUPAC_INCHIKEY>
WMQSUXBCCLTPOT-RSGVWAANSA-N
> <PUBCHEM_XLOGP3_AA>
3.1
> <PUBCHEM_EXACT_MASS>
591.25676318
> <PUBCHEM_MOLECULAR_FORMULA>
C27H37F4N3O7
> <PUBCHEM_MOLECULAR_WEIGHT>
591.6
> <PUBCHEM_OPENEYE_CAN_SMILES>
CC(C)C(C(=O)N1CC(CC1C(=O)NC(CC(F)F)C(=O)NCCC2=C(C=C(C=C2F)C(=O)O)F)OC(C)(C)C)O
> <PUBCHEM_OPENEYE_ISO_SMILES>
CC(C)[C@@H](C(=O)N1C[C@@H](CC1C(=O)N[C@@H](CC(F)F)C(=O)NCCC2=C(C=C(C=C2F)C(=O)O)F)OC(C)(C)C)O
> <PUBCHEM_CACTVS_TPSA>
145
> <PUBCHEM_MONOISOTOPIC_WEIGHT>
591.25676318
> <PUBCHEM_TOTAL_CHARGE>
0
> <PUBCHEM_HEAVY_ATOM_COUNT>
41
> <PUBCHEM_ATOM_DEF_STEREO_COUNT>
3
> <PUBCHEM_ATOM_UDEF_STEREO_COUNT>
1
> <PUBCHEM_BOND_DEF_STEREO_COUNT>
0
> <PUBCHEM_BOND_UDEF_STEREO_COUNT>
0
> <PUBCHEM_ISOTOPIC_ATOM_COUNT>
0
> <PUBCHEM_COMPONENT_COUNT>
1
> <PUBCHEM_CACTVS_TAUTO_COUNT>
-1
> <PUBCHEM_COORDINATE_TYPE>
1
5
255
> <PUBCHEM_BONDANNOTATIONS>
27  13  6
16  19  3
35  36  8
35  37  8
36  38  8
37  39  8
38  40  8
39  40  8
15  5  5
22  8  5
$$$$
