507635
  -OEChem-10302200282D
 97 99  0     1  0  0  0  0  0999 V2000
    9.5516    4.2976    0.0000 S   0  0  3  0  0  0  0  0  0  0  0  0
    3.7320    3.6817    0.0000 F   0  0  0  0  0  0  0  0  0  0  0  0
    5.4641    3.6817    0.0000 F   0  0  0  0  0  0  0  0  0  0  0  0
    5.4641   -2.3183    0.0000 F   0  0  0  0  0  0  0  0  0  0  0  0
    2.0000   -2.3183    0.0000 F   0  0  0  0  0  0  0  0  0  0  0  0
    8.4405    0.1277    0.0000 O   0  0  0  0  0  0  0  0  0  0  0  0
    7.1962    0.6817    0.0000 O   0  0  0  0  0  0  0  0  0  0  0  0
    8.9638    5.1067    0.0000 O   0  0  0  0  0  0  0  0  0  0  0  0
   11.5016   -1.7775    0.0000 O   0  0  0  0  0  0  0  0  0  0  0  0
    6.3301    0.1817    0.0000 O   0  0  0  0  0  0  0  0  0  0  0  0
   12.3541    6.3338    0.0000 O   0  0  0  0  0  0  0  0  0  0  0  0
   12.0368   -0.1303    0.0000 O   0  0  0  0  0  0  0  0  0  0  0  0
    2.8660   -5.8183    0.0000 O   0  0  0  0  0  0  0  0  0  0  0  0
    4.5981   -5.8183    0.0000 O   0  0  0  0  0  0  0  0  0  0  0  0
    8.9757    1.7749    0.0000 N   0  0  0  0  0  0  0  0  0  0  0  0
    6.3301    2.1817    0.0000 N   0  0  0  0  0  0  0  0  0  0  0  0
   10.3426   -0.4904    0.0000 N   0  0  0  0  0  0  0  0  0  0  0  0
    4.5981    0.1817    0.0000 N   0  0  0  0  0  0  0  0  0  0  0  0
    9.1448    3.3841    0.0000 C   0  0  2  0  0  0  0  0  0  0  0  0
    8.0622    2.1817    0.0000 C   0  0  1  0  0  0  0  0  0  0  0  0
    8.1667    3.1762    0.0000 C   0  0  0  0  0  0  0  0  0  0  0  0
    9.6448    2.5181    0.0000 C   0  0  0  0  0  0  0  0  0  0  0  0
    9.1836    0.7968    0.0000 C   0  0  0  0  0  0  0  0  0  0  0  0
    7.1962    1.6817    0.0000 C   0  0  0  0  0  0  0  0  0  0  0  0
   10.1347    0.4878    0.0000 C   0  0  2  0  0  0  0  0  0  0  0  0
   10.8778    1.1569    0.0000 C   0  0  0  0  0  0  0  0  0  0  0  0
   10.5461    4.4022    0.0000 C   0  0  0  0  0  0  0  0  0  0  0  0
    5.4641    1.6817    0.0000 C   0  0  1  0  0  0  0  0  0  0  0  0
   11.8289    0.8479    0.0000 C   0  0  0  0  0  0  0  0  0  0  0  0
   10.6699    2.1350    0.0000 C   0  0  0  0  0  0  0  0  0  0  0  0
    4.5981    2.1817    0.0000 C   0  0  0  0  0  0  0  0  0  0  0  0
   10.9528    5.3157    0.0000 C   0  0  0  0  0  0  0  0  0  0  0  0
   11.1339    3.5932    0.0000 C   0  0  0  0  0  0  0  0  0  0  0  0
    5.4641    0.6817    0.0000 C   0  0  0  0  0  0  0  0  0  0  0  0
   11.2937   -0.7994    0.0000 C   0  0  0  0  0  0  0  0  0  0  0  0
   11.9474    5.4202    0.0000 C   0  0  0  0  0  0  0  0  0  0  0  0
   12.1284    3.6977    0.0000 C   0  0  0  0  0  0  0  0  0  0  0  0
    4.5981    3.1817    0.0000 C   0  0  0  0  0  0  0  0  0  0  0  0
   12.5352    4.6112    0.0000 C   0  0  0  0  0  0  0  0  0  0  0  0
    4.5981   -0.8183    0.0000 C   0  0  0  0  0  0  0  0  0  0  0  0
   12.4526   -2.0866    0.0000 C   0  0  0  0  0  0  0  0  0  0  0  0
    3.7320   -1.3183    0.0000 C   0  0  0  0  0  0  0  0  0  0  0  0
   12.6605   -3.0647    0.0000 C   0  0  0  0  0  0  0  0  0  0  0  0
   13.3486    6.4383    0.0000 C   0  0  0  0  0  0  0  0  0  0  0  0
    3.7320   -2.3183    0.0000 C   0  0  0  0  0  0  0  0  0  0  0  0
   13.6116   -3.3737    0.0000 C   0  0  0  0  0  0  0  0  0  0  0  0
   11.9174   -3.7338    0.0000 C   0  0  0  0  0  0  0  0  0  0  0  0
    4.5981   -2.8183    0.0000 C   0  0  0  0  0  0  0  0  0  0  0  0
    2.8660   -2.8183    0.0000 C   0  0  0  0  0  0  0  0  0  0  0  0
    4.5981   -3.8183    0.0000 C   0  0  0  0  0  0  0  0  0  0  0  0
    2.8660   -3.8183    0.0000 C   0  0  0  0  0  0  0  0  0  0  0  0
    3.7320   -4.3183    0.0000 C   0  0  0  0  0  0  0  0  0  0  0  0
    3.7320   -5.3183    0.0000 C   0  0  0  0  0  0  0  0  0  0  0  0
    8.7547    3.8659    0.0000 H   0  0  0  0  0  0  0  0  0  0  0  0
    8.0946    1.5625    0.0000 H   0  0  0  0  0  0  0  0  0  0  0  0
    8.1019    3.7928    0.0000 H   0  0  0  0  0  0  0  0  0  0  0  0
    7.5467    3.1762    0.0000 H   0  0  0  0  0  0  0  0  0  0  0  0
   10.0597    2.0573    0.0000 H   0  0  0  0  0  0  0  0  0  0  0  0
   10.1464    2.8825    0.0000 H   0  0  0  0  0  0  0  0  0  0  0  0
   10.7243    0.2962    0.0000 H   0  0  0  0  0  0  0  0  0  0  0  0
   10.2882    1.3485    0.0000 H   0  0  0  0  0  0  0  0  0  0  0  0
    6.3301    2.8017    0.0000 H   0  0  0  0  0  0  0  0  0  0  0  0
    5.4641    2.3017    0.0000 H   0  0  0  0  0  0  0  0  0  0  0  0
    9.8818   -0.9052    0.0000 H   0  0  0  0  0  0  0  0  0  0  0  0
   11.6373    0.2582    0.0000 H   0  0  0  0  0  0  0  0  0  0  0  0
   12.4185    0.6563    0.0000 H   0  0  0  0  0  0  0  0  0  0  0  0
   12.0205    1.4375    0.0000 H   0  0  0  0  0  0  0  0  0  0  0  0
   11.2764    2.2640    0.0000 H   0  0  0  0  0  0  0  0  0  0  0  0
   10.5410    2.7415    0.0000 H   0  0  0  0  0  0  0  0  0  0  0  0
   10.0635    2.0061    0.0000 H   0  0  0  0  0  0  0  0  0  0  0  0
    3.9875    2.2893    0.0000 H   0  0  0  0  0  0  0  0  0  0  0  0
    4.3860    1.5991    0.0000 H   0  0  0  0  0  0  0  0  0  0  0  0
   10.5884    5.8173    0.0000 H   0  0  0  0  0  0  0  0  0  0  0  0
   10.8817    3.0268    0.0000 H   0  0  0  0  0  0  0  0  0  0  0  0
    4.5981    3.8017    0.0000 H   0  0  0  0  0  0  0  0  0  0  0  0
   12.4928    3.1961    0.0000 H   0  0  0  0  0  0  0  0  0  0  0  0
   13.1518    4.6760    0.0000 H   0  0  0  0  0  0  0  0  0  0  0  0
    4.0611    0.4917    0.0000 H   0  0  0  0  0  0  0  0  0  0  0  0
    4.8101   -1.4009    0.0000 H   0  0  0  0  0  0  0  0  0  0  0  0
    5.2087   -0.7107    0.0000 H   0  0  0  0  0  0  0  0  0  0  0  0
   13.0723   -2.0649    0.0000 H   0  0  0  0  0  0  0  0  0  0  0  0
   12.5389   -1.4726    0.0000 H   0  0  0  0  0  0  0  0  0  0  0  0
    3.5200   -0.7357    0.0000 H   0  0  0  0  0  0  0  0  0  0  0  0
    3.1215   -1.4260    0.0000 H   0  0  0  0  0  0  0  0  0  0  0  0
   12.0709   -2.8731    0.0000 H   0  0  0  0  0  0  0  0  0  0  0  0
   13.4134    5.8217    0.0000 H   0  0  0  0  0  0  0  0  0  0  0  0
   13.9652    6.5031    0.0000 H   0  0  0  0  0  0  0  0  0  0  0  0
   13.2838    7.0549    0.0000 H   0  0  0  0  0  0  0  0  0  0  0  0
   13.4200   -3.9634    0.0000 H   0  0  0  0  0  0  0  0  0  0  0  0
   14.2013   -3.5653    0.0000 H   0  0  0  0  0  0  0  0  0  0  0  0
   13.8032   -2.7841    0.0000 H   0  0  0  0  0  0  0  0  0  0  0  0
   11.5025   -3.2731    0.0000 H   0  0  0  0  0  0  0  0  0  0  0  0
   11.4566   -4.1487    0.0000 H   0  0  0  0  0  0  0  0  0  0  0  0
   12.3323   -4.1946    0.0000 H   0  0  0  0  0  0  0  0  0  0  0  0
    5.1350   -4.1283    0.0000 H   0  0  0  0  0  0  0  0  0  0  0  0
    2.3291   -4.1283    0.0000 H   0  0  0  0  0  0  0  0  0  0  0  0
    2.8660   -6.4383    0.0000 H   0  0  0  0  0  0  0  0  0  0  0  0
  1  8  2  0  0  0  0
 19  1  1  1  0  0  0
  1 27  1  0  0  0  0
  2 38  1  0  0  0  0
  3 38  1  0  0  0  0
  4 48  1  0  0  0  0
  5 49  1  0  0  0  0
  6 23  2  0  0  0  0
  7 24  2  0  0  0  0
  9 35  1  0  0  0  0
  9 41  1  0  0  0  0
 10 34  2  0  0  0  0
 11 36  1  0  0  0  0
 11 44  1  0  0  0  0
 12 35  2  0  0  0  0
 13 53  1  0  0  0  0
 13 97  1  0  0  0  0
 14 53  2  0  0  0  0
 15 20  1  0  0  0  0
 15 22  1  0  0  0  0
 15 23  1  0  0  0  0
 16 24  1  0  0  0  0
 28 16  1  6  0  0  0
 16 62  1  0  0  0  0
 25 17  1  6  0  0  0
 17 35  1  0  0  0  0
 17 64  1  0  0  0  0
 18 34  1  0  0  0  0
 18 40  1  0  0  0  0
 18 78  1  0  0  0  0
 19 21  1  0  0  0  0
 19 22  1  0  0  0  0
 19 54  1  0  0  0  0
 20 21  1  0  0  0  0
 20 24  1  6  0  0  0
 20 55  1  0  0  0  0
 21 56  1  0  0  0  0
 21 57  1  0  0  0  0
 22 58  1  0  0  0  0
 22 59  1  0  0  0  0
 23 25  1  0  0  0  0
 25 26  1  0  0  0  0
 25 60  1  0  0  0  0
 26 29  1  0  0  0  0
 26 30  1  0  0  0  0
 26 61  1  0  0  0  0
 27 32  1  0  0  0  0
 27 33  2  0  0  0  0
 28 31  1  0  0  0  0
 28 34  1  0  0  0  0
 28 63  1  0  0  0  0
 29 65  1  0  0  0  0
 29 66  1  0  0  0  0
 29 67  1  0  0  0  0
 30 68  1  0  0  0  0
 30 69  1  0  0  0  0
 30 70  1  0  0  0  0
 31 38  1  0  0  0  0
 31 71  1  0  0  0  0
 31 72  1  0  0  0  0
 32 36  2  0  0  0  0
 32 73  1  0  0  0  0
 33 37  1  0  0  0  0
 33 74  1  0  0  0  0
 36 39  1  0  0  0  0
 37 39  2  0  0  0  0
 37 76  1  0  0  0  0
 38 75  1  0  0  0  0
 39 77  1  0  0  0  0
 40 42  1  0  0  0  0
 40 79  1  0  0  0  0
 40 80  1  0  0  0  0
 41 43  1  0  0  0  0
 41 81  1  0  0  0  0
 41 82  1  0  0  0  0
 42 45  1  0  0  0  0
 42 83  1  0  0  0  0
 42 84  1  0  0  0  0
 43 46  1  0  0  0  0
 43 47  1  0  0  0  0
 43 85  1  0  0  0  0
 44 86  1  0  0  0  0
 44 87  1  0  0  0  0
 44 88  1  0  0  0  0
 45 48  2  0  0  0  0
 45 49  1  0  0  0  0
 46 89  1  0  0  0  0
 46 90  1  0  0  0  0
 46 91  1  0  0  0  0
 47 92  1  0  0  0  0
 47 93  1  0  0  0  0
 47 94  1  0  0  0  0
 48 50  1  0  0  0  0
 49 51  2  0  0  0  0
 50 52  2  0  0  0  0
 50 95  1  0  0  0  0
 51 52  1  0  0  0  0
 51 96  1  0  0  0  0
 52 53  1  0  0  0  0
M  END
> <PUBCHEM_COMPOUND_CID>
507635
> <PUBCHEM_COMPOUND_CANONICALIZED>
1
> <PUBCHEM_CACTVS_COMPLEXITY>
1290
> <PUBCHEM_CACTVS_HBOND_ACCEPTOR>
14
> <PUBCHEM_CACTVS_HBOND_DONOR>
4
> <PUBCHEM_CACTVS_ROTATABLE_BOND>
18
> <PUBCHEM_CACTVS_SUBSKEYS>
AAADcfB/vcBAAAAAAAAAAAAAAAAAAWAAAAAwYAAAAAAAAAABQAAAHwQQCAAADSzl2B6yD4PABgqIAiHSGEBCCAAkKBAIiJmOCMkMZjKktTuccSAk1hGouYeYyfCOQAAABAAAAACAAAAIAAAAAAAAAAAAAA==
> <PUBCHEM_IUPAC_OPENEYE_NAME>
4-[2-[[(2S)-4,4-difluoro-2-[[(2S,4R)-1-[(2S)-2-(isobutoxycarbonylamino)-3-methyl-butanoyl]-4-(3-methoxyphenyl)sulfinyl-pyrrolidine-2-carbonyl]amino]butanoyl]amino]ethyl]-3,5-difluoro-benzoic acid
> <PUBCHEM_IUPAC_CAS_NAME>
4-[2-[[(2S)-4,4-difluoro-2-[[[(2S,4R)-4-(3-methoxyphenyl)sulfinyl-1-[(2S)-3-methyl-2-[[2-methylpropoxy(oxo)methyl]amino]-1-oxobutyl]-2-pyrrolidinyl]-oxomethyl]amino]-1-oxobutyl]amino]ethyl]-3,5-difluorobenzoic acid
> <PUBCHEM_IUPAC_NAME_MARKUP>
4-[2-[[(2<I>S</I>)-4,4-difluoro-2-[[(2<I>S</I>,4<I>R</I>)-4-(3-methoxyphenyl)sulfinyl-1-[(2<I>S</I>)-3-methyl-2-(2-methylpropoxycarbonylamino)butanoyl]pyrrolidine-2-carbonyl]amino]butanoyl]amino]ethyl]-3,5-difluorobenzoic acid
> <PUBCHEM_IUPAC_NAME>
4-[2-[[(2S)-4,4-difluoro-2-[[(2S,4R)-4-(3-methoxyphenyl)sulfinyl-1-[(2S)-3-methyl-2-(2-methylpropoxycarbonylamino)butanoyl]pyrrolidine-2-carbonyl]amino]butanoyl]amino]ethyl]-3,5-difluorobenzoic acid
> <PUBCHEM_IUPAC_SYSTEMATIC_NAME>
4-[2-[[(2S)-4,4-bis(fluoranyl)-2-[[(2S,4R)-4-(3-methoxyphenyl)sulfinyl-1-[(2S)-3-methyl-2-(2-methylpropoxycarbonylamino)butanoyl]pyrrolidin-2-yl]carbonylamino]butanoyl]amino]ethyl]-3,5-bis(fluoranyl)benzoic acid
> <PUBCHEM_IUPAC_TRADITIONAL_NAME>
4-[2-[[(2S)-4,4-difluoro-2-[[(2S,4R)-1-[(2S)-2-(isobutoxycarbonylamino)-3-methyl-butanoyl]-4-(3-methoxyphenyl)sulfinyl-prolyl]amino]butanoyl]amino]ethyl]-3,5-difluoro-benzoic acid
> <PUBCHEM_IUPAC_INCHI>
InChI=1S/C35H44F4N4O9S/c1-18(2)17-52-35(49)42-30(19(3)4)33(46)43-16-23(53(50)22-8-6-7-21(13-22)51-5)14-28(43)32(45)41-27(15-29(38)39)31(44)40-10-9-24-25(36)11-20(34(47)48)12-26(24)37/h6-8,11-13,18-19,23,27-30H,9-10,14-17H2,1-5H3,(H,40,44)(H,41,45)(H,42,49)(H,47,48)/t23-,27+,28+,30+,53?/m1/s1
> <PUBCHEM_IUPAC_INCHIKEY>
SAZKRSBFJTVTBD-NSQBLSCGSA-N
> <PUBCHEM_XLOGP3_AA>
4.7
> <PUBCHEM_EXACT_MASS>
772.27651282
> <PUBCHEM_MOLECULAR_FORMULA>
C35H44F4N4O9S
> <PUBCHEM_MOLECULAR_WEIGHT>
772.8
> <PUBCHEM_OPENEYE_CAN_SMILES>
CC(C)COC(=O)NC(C(C)C)C(=O)N1CC(CC1C(=O)NC(CC(F)F)C(=O)NCCC2=C(C=C(C=C2F)C(=O)O)F)S(=O)C3=CC=CC(=C3)OC
> <PUBCHEM_OPENEYE_ISO_SMILES>
CC(C)COC(=O)N[C@@H](C(C)C)C(=O)N1C[C@@H](C[C@H]1C(=O)N[C@@H](CC(F)F)C(=O)NCCC2=C(C=C(C=C2F)C(=O)O)F)S(=O)C3=CC=CC(=C3)OC
> <PUBCHEM_CACTVS_TPSA>
200
> <PUBCHEM_MONOISOTOPIC_WEIGHT>
772.27651282
> <PUBCHEM_TOTAL_CHARGE>
0
> <PUBCHEM_HEAVY_ATOM_COUNT>
53
> <PUBCHEM_ATOM_DEF_STEREO_COUNT>
4
> <PUBCHEM_ATOM_UDEF_STEREO_COUNT>
1
> <PUBCHEM_BOND_DEF_STEREO_COUNT>
0
> <PUBCHEM_BOND_UDEF_STEREO_COUNT>
0
> <PUBCHEM_ISOTOPIC_ATOM_COUNT>
0
> <PUBCHEM_COMPONENT_COUNT>
1
> <PUBCHEM_CACTVS_TAUTO_COUNT>
-1
> <PUBCHEM_COORDINATE_TYPE>
1
5
255
> <PUBCHEM_BONDANNOTATIONS>
19  1  5
1  27  3
28  16  6
25  17  6
20  24  6
27  32  8
27  33  8
32  36  8
33  37  8
36  39  8
37  39  8
45  48  8
45  49  8
48  50  8
49  51  8
50  52  8
51  52  8
$$$$
