507654
  -OEChem-10302200282D
101103  0     1  0  0  0  0  0999 V2000
    5.4641    4.1835    0.0000 F   0  0  0  0  0  0  0  0  0  0  0  0
    7.1962    4.1835    0.0000 F   0  0  0  0  0  0  0  0  0  0  0  0
    3.7320   -1.8165    0.0000 F   0  0  0  0  0  0  0  0  0  0  0  0
    7.1962   -1.8165    0.0000 F   0  0  0  0  0  0  0  0  0  0  0  0
   10.1725    0.6294    0.0000 O   0  0  0  0  0  0  0  0  0  0  0  0
    8.9282    1.1835    0.0000 O   0  0  0  0  0  0  0  0  0  0  0  0
   13.2336   -1.2758    0.0000 O   0  0  0  0  0  0  0  0  0  0  0  0
    8.0622    0.6835    0.0000 O   0  0  0  0  0  0  0  0  0  0  0  0
   13.7689    0.3715    0.0000 O   0  0  0  0  0  0  0  0  0  0  0  0
    3.7320   -3.8165    0.0000 O   0  0  0  0  0  0  0  0  0  0  0  0
    2.8660   -6.3165    0.0000 O   0  0  0  0  0  0  0  0  0  0  0  0
    2.0000   -4.8165    0.0000 O   0  0  0  0  0  0  0  0  0  0  0  0
   10.7078    2.2767    0.0000 N   0  0  0  0  0  0  0  0  0  0  0  0
    8.0622    2.6835    0.0000 N   0  0  0  0  0  0  0  0  0  0  0  0
   12.0747    0.0114    0.0000 N   0  0  0  0  0  0  0  0  0  0  0  0
    6.3301    0.6835    0.0000 N   0  0  0  0  0  0  0  0  0  0  0  0
   10.8769    3.8859    0.0000 C   0  0  2  0  0  0  0  0  0  0  0  0
   11.2836    4.7994    0.0000 C   0  0  0  0  0  0  0  0  0  0  0  0
    9.8988    3.6780    0.0000 C   0  0  0  0  0  0  0  0  0  0  0  0
   11.3769    3.0199    0.0000 C   0  0  0  0  0  0  0  0  0  0  0  0
    9.7942    2.6835    0.0000 C   0  0  1  0  0  0  0  0  0  0  0  0
   10.6959    5.6085    0.0000 C   0  0  0  0  0  0  0  0  0  0  0  0
   12.2782    4.9040    0.0000 C   0  0  0  0  0  0  0  0  0  0  0  0
   11.1026    6.5220    0.0000 C   0  0  0  0  0  0  0  0  0  0  0  0
   12.6849    5.8175    0.0000 C   0  0  0  0  0  0  0  0  0  0  0  0
   12.0971    6.6265    0.0000 C   0  0  0  0  0  0  0  0  0  0  0  0
   10.9157    1.2986    0.0000 C   0  0  0  0  0  0  0  0  0  0  0  0
    8.9282    2.1835    0.0000 C   0  0  0  0  0  0  0  0  0  0  0  0
   11.8667    0.9896    0.0000 C   0  0  2  0  0  0  0  0  0  0  0  0
   12.6099    1.6587    0.0000 C   0  0  0  0  0  0  0  0  0  0  0  0
    7.1962    2.1835    0.0000 C   0  0  1  0  0  0  0  0  0  0  0  0
   13.5609    1.3497    0.0000 C   0  0  0  0  0  0  0  0  0  0  0  0
   12.4020    2.6368    0.0000 C   0  0  0  0  0  0  0  0  0  0  0  0
    6.3301    2.6835    0.0000 C   0  0  0  0  0  0  0  0  0  0  0  0
    7.1962    1.1835    0.0000 C   0  0  0  0  0  0  0  0  0  0  0  0
   13.0257   -0.2976    0.0000 C   0  0  0  0  0  0  0  0  0  0  0  0
    6.3301    3.6835    0.0000 C   0  0  0  0  0  0  0  0  0  0  0  0
    6.3301   -0.3165    0.0000 C   0  0  0  0  0  0  0  0  0  0  0  0
   14.1847   -1.5848    0.0000 C   0  0  0  0  0  0  0  0  0  0  0  0
    5.4641   -0.8165    0.0000 C   0  0  0  0  0  0  0  0  0  0  0  0
   14.3926   -2.5629    0.0000 C   0  0  0  0  0  0  0  0  0  0  0  0
    5.4641   -1.8165    0.0000 C   0  0  0  0  0  0  0  0  0  0  0  0
   15.3436   -2.8719    0.0000 C   0  0  0  0  0  0  0  0  0  0  0  0
   13.6494   -3.2320    0.0000 C   0  0  0  0  0  0  0  0  0  0  0  0
    4.5981   -2.3165    0.0000 C   0  0  0  0  0  0  0  0  0  0  0  0
    6.3301   -2.3165    0.0000 C   0  0  0  0  0  0  0  0  0  0  0  0
    4.5981   -3.3165    0.0000 C   0  0  0  0  0  0  0  0  0  0  0  0
    6.3301   -3.3165    0.0000 C   0  0  0  0  0  0  0  0  0  0  0  0
    5.4641   -3.8165    0.0000 C   0  0  0  0  0  0  0  0  0  0  0  0
    3.7320   -4.8165    0.0000 C   0  0  0  0  0  0  0  0  0  0  0  0
    2.8660   -5.3165    0.0000 C   0  0  0  0  0  0  0  0  0  0  0  0
   10.3420    4.5465    0.0000 H   0  0  0  0  0  0  0  0  0  0  0  0
   11.6481    4.2979    0.0000 H   0  0  0  0  0  0  0  0  0  0  0  0
    9.8340    4.2946    0.0000 H   0  0  0  0  0  0  0  0  0  0  0  0
    9.2788    3.6780    0.0000 H   0  0  0  0  0  0  0  0  0  0  0  0
   11.7918    2.5591    0.0000 H   0  0  0  0  0  0  0  0  0  0  0  0
   11.8785    3.3843    0.0000 H   0  0  0  0  0  0  0  0  0  0  0  0
    9.8267    2.0643    0.0000 H   0  0  0  0  0  0  0  0  0  0  0  0
   10.1819    5.9552    0.0000 H   0  0  0  0  0  0  0  0  0  0  0  0
   10.2652    5.1625    0.0000 H   0  0  0  0  0  0  0  0  0  0  0  0
   12.2349    4.2855    0.0000 H   0  0  0  0  0  0  0  0  0  0  0  0
   12.8797    4.7540    0.0000 H   0  0  0  0  0  0  0  0  0  0  0  0
   11.1458    7.1405    0.0000 H   0  0  0  0  0  0  0  0  0  0  0  0
   10.5010    6.6720    0.0000 H   0  0  0  0  0  0  0  0  0  0  0  0
   13.1989    5.4708    0.0000 H   0  0  0  0  0  0  0  0  0  0  0  0
   13.1156    6.2635    0.0000 H   0  0  0  0  0  0  0  0  0  0  0  0
   12.6544    6.8983    0.0000 H   0  0  0  0  0  0  0  0  0  0  0  0
   11.9262    7.2225    0.0000 H   0  0  0  0  0  0  0  0  0  0  0  0
   11.4060    0.5747    0.0000 H   0  0  0  0  0  0  0  0  0  0  0  0
    8.0622    3.3035    0.0000 H   0  0  0  0  0  0  0  0  0  0  0  0
   12.7388    1.0522    0.0000 H   0  0  0  0  0  0  0  0  0  0  0  0
    7.7331    1.8735    0.0000 H   0  0  0  0  0  0  0  0  0  0  0  0
   11.6139   -0.4034    0.0000 H   0  0  0  0  0  0  0  0  0  0  0  0
   13.3694    0.7600    0.0000 H   0  0  0  0  0  0  0  0  0  0  0  0
   14.1506    1.1581    0.0000 H   0  0  0  0  0  0  0  0  0  0  0  0
   13.7525    1.9393    0.0000 H   0  0  0  0  0  0  0  0  0  0  0  0
   13.0084    2.7658    0.0000 H   0  0  0  0  0  0  0  0  0  0  0  0
   12.2731    3.2433    0.0000 H   0  0  0  0  0  0  0  0  0  0  0  0
   11.7955    2.5079    0.0000 H   0  0  0  0  0  0  0  0  0  0  0  0
    5.7196    2.7911    0.0000 H   0  0  0  0  0  0  0  0  0  0  0  0
    6.1181    2.1009    0.0000 H   0  0  0  0  0  0  0  0  0  0  0  0
    6.8671    3.3735    0.0000 H   0  0  0  0  0  0  0  0  0  0  0  0
    5.7932    0.9935    0.0000 H   0  0  0  0  0  0  0  0  0  0  0  0
    6.5422   -0.8991    0.0000 H   0  0  0  0  0  0  0  0  0  0  0  0
    6.9407   -0.2089    0.0000 H   0  0  0  0  0  0  0  0  0  0  0  0
   14.8043   -1.5631    0.0000 H   0  0  0  0  0  0  0  0  0  0  0  0
   14.2710   -0.9708    0.0000 H   0  0  0  0  0  0  0  0  0  0  0  0
    5.2520   -0.2339    0.0000 H   0  0  0  0  0  0  0  0  0  0  0  0
    4.8535   -0.9242    0.0000 H   0  0  0  0  0  0  0  0  0  0  0  0
   14.5215   -3.1694    0.0000 H   0  0  0  0  0  0  0  0  0  0  0  0
   15.1521   -3.4616    0.0000 H   0  0  0  0  0  0  0  0  0  0  0  0
   15.9333   -3.0635    0.0000 H   0  0  0  0  0  0  0  0  0  0  0  0
   15.5352   -2.2823    0.0000 H   0  0  0  0  0  0  0  0  0  0  0  0
   13.2346   -2.7713    0.0000 H   0  0  0  0  0  0  0  0  0  0  0  0
   13.1887   -3.6469    0.0000 H   0  0  0  0  0  0  0  0  0  0  0  0
   14.0643   -3.6928    0.0000 H   0  0  0  0  0  0  0  0  0  0  0  0
    6.8671   -3.6265    0.0000 H   0  0  0  0  0  0  0  0  0  0  0  0
    5.4641   -4.4365    0.0000 H   0  0  0  0  0  0  0  0  0  0  0  0
    3.9441   -5.3991    0.0000 H   0  0  0  0  0  0  0  0  0  0  0  0
    4.3426   -4.7089    0.0000 H   0  0  0  0  0  0  0  0  0  0  0  0
    2.3291   -6.6265    0.0000 H   0  0  0  0  0  0  0  0  0  0  0  0
  1 37  1  0  0  0  0
  2 37  1  0  0  0  0
  3 45  1  0  0  0  0
  4 46  1  0  0  0  0
  5 27  2  0  0  0  0
  6 28  2  0  0  0  0
  7 36  1  0  0  0  0
  7 39  1  0  0  0  0
  8 35  2  0  0  0  0
  9 36  2  0  0  0  0
 10 47  1  0  0  0  0
 10 50  1  0  0  0  0
 11 51  1  0  0  0  0
 11101  1  0  0  0  0
 12 51  2  0  0  0  0
 13 20  1  0  0  0  0
 13 21  1  0  0  0  0
 13 27  1  0  0  0  0
 14 28  1  0  0  0  0
 31 14  1  6  0  0  0
 14 70  1  0  0  0  0
 29 15  1  6  0  0  0
 15 36  1  0  0  0  0
 15 73  1  0  0  0  0
 16 35  1  0  0  0  0
 16 38  1  0  0  0  0
 16 83  1  0  0  0  0
 17 18  1  0  0  0  0
 17 19  1  0  0  0  0
 17 20  1  0  0  0  0
 17 52  1  6  0  0  0
 18 22  1  0  0  0  0
 18 23  1  0  0  0  0
 18 53  1  0  0  0  0
 19 21  1  0  0  0  0
 19 54  1  0  0  0  0
 19 55  1  0  0  0  0
 20 56  1  0  0  0  0
 20 57  1  0  0  0  0
 21 28  1  6  0  0  0
 21 58  1  0  0  0  0
 22 24  1  0  0  0  0
 22 59  1  0  0  0  0
 22 60  1  0  0  0  0
 23 25  1  0  0  0  0
 23 61  1  0  0  0  0
 23 62  1  0  0  0  0
 24 26  1  0  0  0  0
 24 63  1  0  0  0  0
 24 64  1  0  0  0  0
 25 26  1  0  0  0  0
 25 65  1  0  0  0  0
 25 66  1  0  0  0  0
 26 67  1  0  0  0  0
 26 68  1  0  0  0  0
 27 29  1  0  0  0  0
 29 30  1  0  0  0  0
 29 69  1  0  0  0  0
 30 32  1  0  0  0  0
 30 33  1  0  0  0  0
 30 71  1  0  0  0  0
 31 34  1  0  0  0  0
 31 35  1  0  0  0  0
 31 72  1  0  0  0  0
 32 74  1  0  0  0  0
 32 75  1  0  0  0  0
 32 76  1  0  0  0  0
 33 77  1  0  0  0  0
 33 78  1  0  0  0  0
 33 79  1  0  0  0  0
 34 37  1  0  0  0  0
 34 80  1  0  0  0  0
 34 81  1  0  0  0  0
 37 82  1  0  0  0  0
 38 40  1  0  0  0  0
 38 84  1  0  0  0  0
 38 85  1  0  0  0  0
 39 41  1  0  0  0  0
 39 86  1  0  0  0  0
 39 87  1  0  0  0  0
 40 42  1  0  0  0  0
 40 88  1  0  0  0  0
 40 89  1  0  0  0  0
 41 43  1  0  0  0  0
 41 44  1  0  0  0  0
 41 90  1  0  0  0  0
 42 45  1  0  0  0  0
 42 46  2  0  0  0  0
 43 91  1  0  0  0  0
 43 92  1  0  0  0  0
 43 93  1  0  0  0  0
 44 94  1  0  0  0  0
 44 95  1  0  0  0  0
 44 96  1  0  0  0  0
 45 47  2  0  0  0  0
 46 48  1  0  0  0  0
 47 49  1  0  0  0  0
 48 49  2  0  0  0  0
 48 97  1  0  0  0  0
 49 98  1  0  0  0  0
 50 51  1  0  0  0  0
 50 99  1  0  0  0  0
 50100  1  0  0  0  0
M  END
> <PUBCHEM_COMPOUND_CID>
507654
> <PUBCHEM_COMPOUND_CANONICALIZED>
1
> <PUBCHEM_CACTVS_COMPLEXITY>
1170
> <PUBCHEM_CACTVS_HBOND_ACCEPTOR>
12
> <PUBCHEM_CACTVS_HBOND_DONOR>
4
> <PUBCHEM_CACTVS_ROTATABLE_BOND>
18
> <PUBCHEM_CACTVS_SUBSKEYS>
AAADcfB/vcAAAAAAAAAAAAAAAAAAAWAAAAAwYAAAAAAAAAABAAAAHwAQCAAADSzhmB4yDoPABgCIAiHSGAICCAAgIAAIiIHOCIkNZjKEsD+eOCCk1hGLqAeY2fKOgAABAAAAAAAAAAIAAAAAAAAAAAAAAA==
> <PUBCHEM_IUPAC_OPENEYE_NAME>
2-[3-[2-[[(2S)-2-[[(2S,4S)-4-cyclohexyl-1-[(2S)-2-(isobutoxycarbonylamino)-3-methyl-butanoyl]pyrrolidine-2-carbonyl]amino]-4,4-difluoro-butanoyl]amino]ethyl]-2,4-difluoro-phenoxy]acetic acid
> <PUBCHEM_IUPAC_CAS_NAME>
2-[3-[2-[[(2S)-2-[[[(2S,4S)-4-cyclohexyl-1-[(2S)-3-methyl-2-[[2-methylpropoxy(oxo)methyl]amino]-1-oxobutyl]-2-pyrrolidinyl]-oxomethyl]amino]-4,4-difluoro-1-oxobutyl]amino]ethyl]-2,4-difluorophenoxy]acetic acid
> <PUBCHEM_IUPAC_NAME_MARKUP>
2-[3-[2-[[(2<I>S</I>)-2-[[(2<I>S</I>,4<I>S</I>)-4-cyclohexyl-1-[(2<I>S</I>)-3-methyl-2-(2-methylpropoxycarbonylamino)butanoyl]pyrrolidine-2-carbonyl]amino]-4,4-difluorobutanoyl]amino]ethyl]-2,4-difluorophenoxy]acetic acid
> <PUBCHEM_IUPAC_NAME>
2-[3-[2-[[(2S)-2-[[(2S,4S)-4-cyclohexyl-1-[(2S)-3-methyl-2-(2-methylpropoxycarbonylamino)butanoyl]pyrrolidine-2-carbonyl]amino]-4,4-difluorobutanoyl]amino]ethyl]-2,4-difluorophenoxy]acetic acid
> <PUBCHEM_IUPAC_SYSTEMATIC_NAME>
2-[3-[2-[[(2S)-2-[[(2S,4S)-4-cyclohexyl-1-[(2S)-3-methyl-2-(2-methylpropoxycarbonylamino)butanoyl]pyrrolidin-2-yl]carbonylamino]-4,4-bis(fluoranyl)butanoyl]amino]ethyl]-2,4-bis(fluoranyl)phenoxy]ethanoic acid
> <PUBCHEM_IUPAC_TRADITIONAL_NAME>
2-[3-[2-[[(2S)-2-[[(2S,4S)-4-cyclohexyl-1-[(2S)-2-(isobutoxycarbonylamino)-3-methyl-butanoyl]prolyl]amino]-4,4-difluoro-butanoyl]amino]ethyl]-2,4-difluoro-phenoxy]acetic acid
> <PUBCHEM_IUPAC_INCHI>
InChI=1S/C35H50F4N4O8/c1-19(2)17-51-35(49)42-31(20(3)4)34(48)43-16-22(21-8-6-5-7-9-21)14-26(43)33(47)41-25(15-28(37)38)32(46)40-13-12-23-24(36)10-11-27(30(23)39)50-18-29(44)45/h10-11,19-22,25-26,28,31H,5-9,12-18H2,1-4H3,(H,40,46)(H,41,47)(H,42,49)(H,44,45)/t22-,25+,26+,31+/m1/s1
> <PUBCHEM_IUPAC_INCHIKEY>
PLUSLPDTPSRLBI-SFBXWBMZSA-N
> <PUBCHEM_XLOGP3_AA>
7
> <PUBCHEM_EXACT_MASS>
730.35647721
> <PUBCHEM_MOLECULAR_FORMULA>
C35H50F4N4O8
> <PUBCHEM_MOLECULAR_WEIGHT>
730.8
> <PUBCHEM_OPENEYE_CAN_SMILES>
CC(C)COC(=O)NC(C(C)C)C(=O)N1CC(CC1C(=O)NC(CC(F)F)C(=O)NCCC2=C(C=CC(=C2F)OCC(=O)O)F)C3CCCCC3
> <PUBCHEM_OPENEYE_ISO_SMILES>
CC(C)COC(=O)N[C@@H](C(C)C)C(=O)N1C[C@@H](C[C@H]1C(=O)N[C@@H](CC(F)F)C(=O)NCCC2=C(C=CC(=C2F)OCC(=O)O)F)C3CCCCC3
> <PUBCHEM_CACTVS_TPSA>
163
> <PUBCHEM_MONOISOTOPIC_WEIGHT>
730.35647721
> <PUBCHEM_TOTAL_CHARGE>
0
> <PUBCHEM_HEAVY_ATOM_COUNT>
51
> <PUBCHEM_ATOM_DEF_STEREO_COUNT>
4
> <PUBCHEM_ATOM_UDEF_STEREO_COUNT>
0
> <PUBCHEM_BOND_DEF_STEREO_COUNT>
0
> <PUBCHEM_BOND_UDEF_STEREO_COUNT>
0
> <PUBCHEM_ISOTOPIC_ATOM_COUNT>
0
> <PUBCHEM_COMPONENT_COUNT>
1
> <PUBCHEM_CACTVS_TAUTO_COUNT>
-1
> <PUBCHEM_COORDINATE_TYPE>
1
5
255
> <PUBCHEM_BONDANNOTATIONS>
31  14  6
29  15  6
17  52  6
21  28  6
42  45  8
42  46  8
45  47  8
46  48  8
47  49  8
48  49  8
$$$$
