507663
  -OEChem-10302200282D
 92 95  0     1  0  0  0  0  0999 V2000
    8.1886    4.1141    0.0000 F   0  0  0  0  0  0  0  0  0  0  0  0
    6.5422    4.6522    0.0000 F   0  0  0  0  0  0  0  0  0  0  0  0
    9.9136   -0.1887    0.0000 O   0  0  0  0  0  0  0  0  0  0  0  0
    8.9030    0.7244    0.0000 O   0  0  0  0  0  0  0  0  0  0  0  0
   12.2314   -2.9506    0.0000 O   0  0  0  0  0  0  0  0  0  0  0  0
    7.9244    0.5182    0.0000 O   0  0  0  0  0  0  0  0  0  0  0  0
   13.2519   -1.5511    0.0000 O   0  0  0  0  0  0  0  0  0  0  0  0
   10.9341    1.2108    0.0000 N   0  0  0  0  0  0  0  0  0  0  0  0
    8.5458    2.4193    0.0000 N   0  0  0  0  0  0  0  0  0  0  0  0
   11.5296   -1.3671    0.0000 N   0  0  0  0  0  0  0  0  0  0  0  0
    6.2781    1.0563    0.0000 N   0  0  0  0  0  0  0  0  0  0  0  0
    4.6783   -2.6604    0.0000 N   0  0  0  0  0  0  0  0  0  0  0  0
   11.5948    2.6878    0.0000 C   0  0  2  0  0  0  0  0  0  0  0  0
   10.1921    1.8812    0.0000 C   0  0  1  0  0  0  0  0  0  0  0  0
   10.6004    2.7940    0.0000 C   0  0  0  0  0  0  0  0  0  0  0  0
   11.8010    1.7093    0.0000 C   0  0  0  0  0  0  0  0  0  0  0  0
   12.2652    3.4298    0.0000 C   0  0  0  0  0  0  0  0  0  0  0  0
   10.8279    0.2164    0.0000 C   0  0  0  0  0  0  0  0  0  0  0  0
    9.2136    1.6750    0.0000 C   0  0  0  0  0  0  0  0  0  0  0  0
   11.6359   -0.3728    0.0000 C   0  0  2  0  0  0  0  0  0  0  0  0
   12.5501    0.0324    0.0000 C   0  0  0  0  0  0  0  0  0  0  0  0
   13.2430    3.2202    0.0000 C   0  0  0  0  0  0  0  0  0  0  0  0
   11.9578    4.3814    0.0000 C   0  0  0  0  0  0  0  0  0  0  0  0
    7.5673    2.2130    0.0000 C   0  0  1  0  0  0  0  0  0  0  0  0
   13.3581   -0.5568    0.0000 C   0  0  0  0  0  0  0  0  0  0  0  0
   12.6564    1.0267    0.0000 C   0  0  0  0  0  0  0  0  0  0  0  0
   13.9134    3.9621    0.0000 C   0  0  0  0  0  0  0  0  0  0  0  0
   12.6282    5.1233    0.0000 C   0  0  0  0  0  0  0  0  0  0  0  0
    6.8994    2.9574    0.0000 C   0  0  0  0  0  0  0  0  0  0  0  0
   13.6060    4.9137    0.0000 C   0  0  0  0  0  0  0  0  0  0  0  0
    7.2566    1.2625    0.0000 C   0  0  0  0  0  0  0  0  0  0  0  0
   12.3376   -1.9563    0.0000 C   0  0  0  0  0  0  0  0  0  0  0  0
    7.2101    3.9079    0.0000 C   0  0  0  0  0  0  0  0  0  0  0  0
    5.9674    0.1058    0.0000 C   0  0  0  0  0  0  0  0  0  0  0  0
    4.9889   -0.1004    0.0000 C   0  0  0  0  0  0  0  0  0  0  0  0
   13.0394   -3.5398    0.0000 C   0  0  0  0  0  0  0  0  0  0  0  0
   12.9331   -4.5342    0.0000 C   0  0  0  0  0  0  0  0  0  0  0  0
    4.6783   -1.0510    0.0000 C   0  0  0  0  0  0  0  0  0  0  0  0
    3.7320   -1.3557    0.0000 C   0  0  0  0  0  0  0  0  0  0  0  0
    5.2619   -1.8557    0.0000 C   0  0  0  0  0  0  0  0  0  0  0  0
    3.7320   -2.3557    0.0000 C   0  0  0  0  0  0  0  0  0  0  0  0
   13.7411   -5.1233    0.0000 C   0  0  0  0  0  0  0  0  0  0  0  0
   12.0189   -4.9393    0.0000 C   0  0  0  0  0  0  0  0  0  0  0  0
    2.8660   -0.8557    0.0000 C   0  0  0  0  0  0  0  0  0  0  0  0
    2.8660   -2.8557    0.0000 C   0  0  0  0  0  0  0  0  0  0  0  0
    2.0000   -1.3557    0.0000 C   0  0  0  0  0  0  0  0  0  0  0  0
    2.0000   -2.3557    0.0000 C   0  0  0  0  0  0  0  0  0  0  0  0
   11.3736    3.2670    0.0000 H   0  0  0  0  0  0  0  0  0  0  0  0
   10.0306    1.2826    0.0000 H   0  0  0  0  0  0  0  0  0  0  0  0
   10.7304    3.4002    0.0000 H   0  0  0  0  0  0  0  0  0  0  0  0
   10.0111    2.9866    0.0000 H   0  0  0  0  0  0  0  0  0  0  0  0
   12.0522    1.1424    0.0000 H   0  0  0  0  0  0  0  0  0  0  0  0
   12.3910    1.8998    0.0000 H   0  0  0  0  0  0  0  0  0  0  0  0
   11.0690   -0.6240    0.0000 H   0  0  0  0  0  0  0  0  0  0  0  0
   13.1169    0.2836    0.0000 H   0  0  0  0  0  0  0  0  0  0  0  0
    8.7384    3.0086    0.0000 H   0  0  0  0  0  0  0  0  0  0  0  0
   13.4336    2.6302    0.0000 H   0  0  0  0  0  0  0  0  0  0  0  0
   11.3516    4.5113    0.0000 H   0  0  0  0  0  0  0  0  0  0  0  0
    7.9813    1.7516    0.0000 H   0  0  0  0  0  0  0  0  0  0  0  0
   10.9628   -1.6183    0.0000 H   0  0  0  0  0  0  0  0  0  0  0  0
   12.9928   -1.0578    0.0000 H   0  0  0  0  0  0  0  0  0  0  0  0
   13.8591   -0.9221    0.0000 H   0  0  0  0  0  0  0  0  0  0  0  0
   13.7234   -0.0558    0.0000 H   0  0  0  0  0  0  0  0  0  0  0  0
   13.2728    0.9609    0.0000 H   0  0  0  0  0  0  0  0  0  0  0  0
   12.7222    1.6432    0.0000 H   0  0  0  0  0  0  0  0  0  0  0  0
   12.0399    1.0926    0.0000 H   0  0  0  0  0  0  0  0  0  0  0  0
   14.5196    3.8322    0.0000 H   0  0  0  0  0  0  0  0  0  0  0  0
   12.4377    5.7133    0.0000 H   0  0  0  0  0  0  0  0  0  0  0  0
    6.3525    3.2494    0.0000 H   0  0  0  0  0  0  0  0  0  0  0  0
    6.5169    2.4694    0.0000 H   0  0  0  0  0  0  0  0  0  0  0  0
   14.0217    5.3738    0.0000 H   0  0  0  0  0  0  0  0  0  0  0  0
    7.6242    3.4464    0.0000 H   0  0  0  0  0  0  0  0  0  0  0  0
    5.8640    1.5178    0.0000 H   0  0  0  0  0  0  0  0  0  0  0  0
    5.9880   -0.5139    0.0000 H   0  0  0  0  0  0  0  0  0  0  0  0
    6.5812    0.0184    0.0000 H   0  0  0  0  0  0  0  0  0  0  0  0
    4.9684    0.5192    0.0000 H   0  0  0  0  0  0  0  0  0  0  0  0
    4.3751   -0.0131    0.0000 H   0  0  0  0  0  0  0  0  0  0  0  0
   13.6350   -3.7117    0.0000 H   0  0  0  0  0  0  0  0  0  0  0  0
   13.3121   -2.9830    0.0000 H   0  0  0  0  0  0  0  0  0  0  0  0
   12.4321   -4.1688    0.0000 H   0  0  0  0  0  0  0  0  0  0  0  0
    5.8819   -1.8557    0.0000 H   0  0  0  0  0  0  0  0  0  0  0  0
   13.3758   -5.6243    0.0000 H   0  0  0  0  0  0  0  0  0  0  0  0
   14.2421   -5.4886    0.0000 H   0  0  0  0  0  0  0  0  0  0  0  0
   14.1064   -4.6224    0.0000 H   0  0  0  0  0  0  0  0  0  0  0  0
   11.7677   -4.3725    0.0000 H   0  0  0  0  0  0  0  0  0  0  0  0
   11.4520   -5.1905    0.0000 H   0  0  0  0  0  0  0  0  0  0  0  0
   12.2701   -5.5061    0.0000 H   0  0  0  0  0  0  0  0  0  0  0  0
    4.8709   -3.2497    0.0000 H   0  0  0  0  0  0  0  0  0  0  0  0
    2.8660   -0.2357    0.0000 H   0  0  0  0  0  0  0  0  0  0  0  0
    2.8660   -3.4757    0.0000 H   0  0  0  0  0  0  0  0  0  0  0  0
    1.4631   -1.0457    0.0000 H   0  0  0  0  0  0  0  0  0  0  0  0
    1.4631   -2.6657    0.0000 H   0  0  0  0  0  0  0  0  0  0  0  0
  1 33  1  0  0  0  0
  2 33  1  0  0  0  0
  3 18  2  0  0  0  0
  4 19  2  0  0  0  0
  5 32  1  0  0  0  0
  5 36  1  0  0  0  0
  6 31  2  0  0  0  0
  7 32  2  0  0  0  0
  8 14  1  0  0  0  0
  8 16  1  0  0  0  0
  8 18  1  0  0  0  0
  9 19  1  0  0  0  0
 24  9  1  6  0  0  0
  9 56  1  0  0  0  0
 20 10  1  6  0  0  0
 10 32  1  0  0  0  0
 10 60  1  0  0  0  0
 11 31  1  0  0  0  0
 11 34  1  0  0  0  0
 11 73  1  0  0  0  0
 12 40  1  0  0  0  0
 12 41  1  0  0  0  0
 12 88  1  0  0  0  0
 13 15  1  0  0  0  0
 13 16  1  0  0  0  0
 13 17  1  1  0  0  0
 13 48  1  0  0  0  0
 14 15  1  0  0  0  0
 14 19  1  6  0  0  0
 14 49  1  0  0  0  0
 15 50  1  0  0  0  0
 15 51  1  0  0  0  0
 16 52  1  0  0  0  0
 16 53  1  0  0  0  0
 17 22  2  0  0  0  0
 17 23  1  0  0  0  0
 18 20  1  0  0  0  0
 20 21  1  0  0  0  0
 20 54  1  0  0  0  0
 21 25  1  0  0  0  0
 21 26  1  0  0  0  0
 21 55  1  0  0  0  0
 22 27  1  0  0  0  0
 22 57  1  0  0  0  0
 23 28  2  0  0  0  0
 23 58  1  0  0  0  0
 24 29  1  0  0  0  0
 24 31  1  0  0  0  0
 24 59  1  0  0  0  0
 25 61  1  0  0  0  0
 25 62  1  0  0  0  0
 25 63  1  0  0  0  0
 26 64  1  0  0  0  0
 26 65  1  0  0  0  0
 26 66  1  0  0  0  0
 27 30  2  0  0  0  0
 27 67  1  0  0  0  0
 28 30  1  0  0  0  0
 28 68  1  0  0  0  0
 29 33  1  0  0  0  0
 29 69  1  0  0  0  0
 29 70  1  0  0  0  0
 30 71  1  0  0  0  0
 33 72  1  0  0  0  0
 34 35  1  0  0  0  0
 34 74  1  0  0  0  0
 34 75  1  0  0  0  0
 35 38  1  0  0  0  0
 35 76  1  0  0  0  0
 35 77  1  0  0  0  0
 36 37  1  0  0  0  0
 36 78  1  0  0  0  0
 36 79  1  0  0  0  0
 37 42  1  0  0  0  0
 37 43  1  0  0  0  0
 37 80  1  0  0  0  0
 38 39  1  0  0  0  0
 38 40  2  0  0  0  0
 39 41  1  0  0  0  0
 39 44  2  0  0  0  0
 40 81  1  0  0  0  0
 41 45  2  0  0  0  0
 42 82  1  0  0  0  0
 42 83  1  0  0  0  0
 42 84  1  0  0  0  0
 43 85  1  0  0  0  0
 43 86  1  0  0  0  0
 43 87  1  0  0  0  0
 44 46  1  0  0  0  0
 44 89  1  0  0  0  0
 45 47  1  0  0  0  0
 45 90  1  0  0  0  0
 46 47  2  0  0  0  0
 46 91  1  0  0  0  0
 47 92  1  0  0  0  0
M  END
> <PUBCHEM_COMPOUND_CID>
507663
> <PUBCHEM_COMPOUND_CANONICALIZED>
1
> <PUBCHEM_CACTVS_COMPLEXITY>
1060
> <PUBCHEM_CACTVS_HBOND_ACCEPTOR>
7
> <PUBCHEM_CACTVS_HBOND_DONOR>
4
> <PUBCHEM_CACTVS_ROTATABLE_BOND>
15
> <PUBCHEM_CACTVS_SUBSKEYS>
AAADcfB/uYAAAAAAAAAAAAAAAAAAAWLAAAAwYAAAAAAAAFgB9AAAHwAQAAAADSjhnhY+yPPJlACoAzV3XACCgCAxAiAI2aG4ZJkIYPLAkbGcIAhglgDIyAcYicCOgAAAAAACAAAAAAAAAAQAAAAAAAAAAA==
> <PUBCHEM_IUPAC_OPENEYE_NAME>
isobutyl N-[(1S)-1-[(2S,4S)-2-[[(1S)-3,3-difluoro-1-[2-(1H-indol-3-yl)ethylcarbamoyl]propyl]carbamoyl]-4-phenyl-pyrrolidine-1-carbonyl]-2-methyl-propyl]carbamate
> <PUBCHEM_IUPAC_CAS_NAME>
N-[(2S)-1-[(2S,4S)-2-[[[(2S)-4,4-difluoro-1-[2-(1H-indol-3-yl)ethylamino]-1-oxobutan-2-yl]amino]-oxomethyl]-4-phenyl-1-pyrrolidinyl]-3-methyl-1-oxobutan-2-yl]carbamic acid 2-methylpropyl ester
> <PUBCHEM_IUPAC_NAME_MARKUP>
2-methylpropyl <I>N</I>-[(2<I>S</I>)-1-[(2<I>S</I>,4<I>S</I>)-2-[[(2<I>S</I>)-4,4-difluoro-1-[2-(1<I>H</I>-indol-3-yl)ethylamino]-1-oxobutan-2-yl]carbamoyl]-4-phenylpyrrolidin-1-yl]-3-methyl-1-oxobutan-2-yl]carbamate
> <PUBCHEM_IUPAC_NAME>
2-methylpropyl N-[(2S)-1-[(2S,4S)-2-[[(2S)-4,4-difluoro-1-[2-(1H-indol-3-yl)ethylamino]-1-oxobutan-2-yl]carbamoyl]-4-phenylpyrrolidin-1-yl]-3-methyl-1-oxobutan-2-yl]carbamate
> <PUBCHEM_IUPAC_SYSTEMATIC_NAME>
2-methylpropyl N-[(2S)-1-[(2S,4S)-2-[[(2S)-4,4-bis(fluoranyl)-1-[2-(1H-indol-3-yl)ethylamino]-1-oxidanylidene-butan-2-yl]carbamoyl]-4-phenyl-pyrrolidin-1-yl]-3-methyl-1-oxidanylidene-butan-2-yl]carbamate
> <PUBCHEM_IUPAC_TRADITIONAL_NAME>
N-[(1S)-1-[(2S,4S)-2-[[(1S)-3,3-difluoro-1-[2-(1H-indol-3-yl)ethylcarbamoyl]propyl]carbamoyl]-4-phenyl-pyrrolidine-1-carbonyl]-2-methyl-propyl]carbamic acid isobutyl ester
> <PUBCHEM_IUPAC_INCHI>
InChI=1S/C35H45F2N5O5/c1-21(2)20-47-35(46)41-31(22(3)4)34(45)42-19-25(23-10-6-5-7-11-23)16-29(42)33(44)40-28(17-30(36)37)32(43)38-15-14-24-18-39-27-13-9-8-12-26(24)27/h5-13,18,21-22,25,28-31,39H,14-17,19-20H2,1-4H3,(H,38,43)(H,40,44)(H,41,46)/t25-,28+,29+,31+/m1/s1
> <PUBCHEM_IUPAC_INCHIKEY>
DYHPFSFSCZFXBI-GXHWELABSA-N
> <PUBCHEM_XLOGP3_AA>
6.1
> <PUBCHEM_EXACT_MASS>
653.33887588
> <PUBCHEM_MOLECULAR_FORMULA>
C35H45F2N5O5
> <PUBCHEM_MOLECULAR_WEIGHT>
653.8
> <PUBCHEM_OPENEYE_CAN_SMILES>
CC(C)COC(=O)NC(C(C)C)C(=O)N1CC(CC1C(=O)NC(CC(F)F)C(=O)NCCC2=CNC3=CC=CC=C32)C4=CC=CC=C4
> <PUBCHEM_OPENEYE_ISO_SMILES>
CC(C)COC(=O)N[C@@H](C(C)C)C(=O)N1C[C@@H](C[C@H]1C(=O)N[C@@H](CC(F)F)C(=O)NCCC2=CNC3=CC=CC=C32)C4=CC=CC=C4
> <PUBCHEM_CACTVS_TPSA>
133
> <PUBCHEM_MONOISOTOPIC_WEIGHT>
653.33887588
> <PUBCHEM_TOTAL_CHARGE>
0
> <PUBCHEM_HEAVY_ATOM_COUNT>
47
> <PUBCHEM_ATOM_DEF_STEREO_COUNT>
4
> <PUBCHEM_ATOM_UDEF_STEREO_COUNT>
0
> <PUBCHEM_BOND_DEF_STEREO_COUNT>
0
> <PUBCHEM_BOND_UDEF_STEREO_COUNT>
0
> <PUBCHEM_ISOTOPIC_ATOM_COUNT>
0
> <PUBCHEM_COMPONENT_COUNT>
1
> <PUBCHEM_CACTVS_TAUTO_COUNT>
-1
> <PUBCHEM_COORDINATE_TYPE>
1
5
255
> <PUBCHEM_BONDANNOTATIONS>
20  10  6
12  40  8
12  41  8
13  17  5
14  19  6
17  22  8
17  23  8
22  27  8
23  28  8
27  30  8
28  30  8
38  39  8
38  40  8
39  41  8
39  44  8
41  45  8
44  46  8
45  47  8
46  47  8
24  9  6
$$$$
