507645
  -OEChem-10302200282D
102105  0     1  0  0  0  0  0999 V2000
    6.0600   -4.4579    0.0000 S   0  0  0  0  0  0  0  0  0  0  0  0
   11.8795   -3.8419    0.0000 F   0  0  0  0  0  0  0  0  0  0  0  0
   10.1475   -3.8419    0.0000 F   0  0  0  0  0  0  0  0  0  0  0  0
   10.1475    2.1581    0.0000 F   0  0  0  0  0  0  0  0  0  0  0  0
   13.6116    2.1581    0.0000 F   0  0  0  0  0  0  0  0  0  0  0  0
    5.1465   -4.0512    0.0000 O   0  0  0  0  0  0  0  0  0  0  0  0
    6.9736   -4.8646    0.0000 O   0  0  0  0  0  0  0  0  0  0  0  0
    7.1711   -0.2879    0.0000 O   0  0  0  0  0  0  0  0  0  0  0  0
    8.4154   -0.8419    0.0000 O   0  0  0  0  0  0  0  0  0  0  0  0
    4.1100    1.6173    0.0000 O   0  0  0  0  0  0  0  0  0  0  0  0
    9.2815   -0.3419    0.0000 O   0  0  0  0  0  0  0  0  0  0  0  0
    3.5748   -0.0300    0.0000 O   0  0  0  0  0  0  0  0  0  0  0  0
    6.6359   -1.9352    0.0000 N   0  0  0  0  0  0  0  0  0  0  0  0
    9.2815   -2.3419    0.0000 N   0  0  0  0  0  0  0  0  0  0  0  0
    5.2690    0.3301    0.0000 N   0  0  0  0  0  0  0  0  0  0  0  0
   11.0135   -0.3419    0.0000 N   0  0  0  0  0  0  0  0  0  0  0  0
   11.0705    5.7459    0.0000 N   0  0  0  0  0  0  0  0  0  0  0  0
   12.6886    5.7459    0.0000 N   0  0  0  0  0  0  0  0  0  0  0  0
   11.3795    6.6969    0.0000 N   0  0  0  0  0  0  0  0  0  0  0  0
   12.3795    6.6969    0.0000 N   0  0  0  0  0  0  0  0  0  0  0  0
    6.4667   -3.5443    0.0000 C   0  0  2  0  0  0  0  0  0  0  0  0
    5.6533   -5.3714    0.0000 C   0  0  0  0  0  0  0  0  0  0  0  0
    7.4449   -3.3364    0.0000 C   0  0  0  0  0  0  0  0  0  0  0  0
    5.9667   -2.6783    0.0000 C   0  0  0  0  0  0  0  0  0  0  0  0
    7.5494   -2.3419    0.0000 C   0  0  1  0  0  0  0  0  0  0  0  0
    6.2411   -6.1805    0.0000 C   0  0  0  0  0  0  0  0  0  0  0  0
    4.6588   -5.4760    0.0000 C   0  0  0  0  0  0  0  0  0  0  0  0
    5.8343   -7.0940    0.0000 C   0  0  0  0  0  0  0  0  0  0  0  0
    4.2520   -6.3895    0.0000 C   0  0  0  0  0  0  0  0  0  0  0  0
    4.8398   -7.1985    0.0000 C   0  0  0  0  0  0  0  0  0  0  0  0
    6.4280   -0.9570    0.0000 C   0  0  0  0  0  0  0  0  0  0  0  0
    8.4154   -1.8419    0.0000 C   0  0  0  0  0  0  0  0  0  0  0  0
    5.4769   -0.6480    0.0000 C   0  0  2  0  0  0  0  0  0  0  0  0
    4.7338   -1.3171    0.0000 C   0  0  0  0  0  0  0  0  0  0  0  0
   10.1475   -1.8419    0.0000 C   0  0  1  0  0  0  0  0  0  0  0  0
    3.7827   -1.0081    0.0000 C   0  0  0  0  0  0  0  0  0  0  0  0
    4.9417   -2.2953    0.0000 C   0  0  0  0  0  0  0  0  0  0  0  0
   11.0135   -2.3419    0.0000 C   0  0  0  0  0  0  0  0  0  0  0  0
   10.1475   -0.8419    0.0000 C   0  0  0  0  0  0  0  0  0  0  0  0
    4.3179    0.6392    0.0000 C   0  0  0  0  0  0  0  0  0  0  0  0
   11.0135   -3.3419    0.0000 C   0  0  0  0  0  0  0  0  0  0  0  0
   11.0135    0.6581    0.0000 C   0  0  0  0  0  0  0  0  0  0  0  0
    3.1590    1.9263    0.0000 C   0  0  0  0  0  0  0  0  0  0  0  0
   11.8795    1.1581    0.0000 C   0  0  0  0  0  0  0  0  0  0  0  0
    2.9511    2.9045    0.0000 C   0  0  0  0  0  0  0  0  0  0  0  0
   11.8795    2.1581    0.0000 C   0  0  0  0  0  0  0  0  0  0  0  0
    2.0000    3.2135    0.0000 C   0  0  0  0  0  0  0  0  0  0  0  0
    3.6942    3.5736    0.0000 C   0  0  0  0  0  0  0  0  0  0  0  0
   11.0135    2.6581    0.0000 C   0  0  0  0  0  0  0  0  0  0  0  0
   12.7456    2.6581    0.0000 C   0  0  0  0  0  0  0  0  0  0  0  0
   11.0135    3.6581    0.0000 C   0  0  0  0  0  0  0  0  0  0  0  0
   12.7456    3.6581    0.0000 C   0  0  0  0  0  0  0  0  0  0  0  0
   11.8795    4.1581    0.0000 C   0  0  0  0  0  0  0  0  0  0  0  0
   11.8795    5.1581    0.0000 C   0  0  0  0  0  0  0  0  0  0  0  0
    5.8476   -3.5768    0.0000 H   0  0  0  0  0  0  0  0  0  0  0  0
    5.2888   -4.8698    0.0000 H   0  0  0  0  0  0  0  0  0  0  0  0
    7.5097   -3.9530    0.0000 H   0  0  0  0  0  0  0  0  0  0  0  0
    8.0649   -3.3364    0.0000 H   0  0  0  0  0  0  0  0  0  0  0  0
    5.5519   -2.2176    0.0000 H   0  0  0  0  0  0  0  0  0  0  0  0
    5.4652   -3.0427    0.0000 H   0  0  0  0  0  0  0  0  0  0  0  0
    7.5170   -1.7228    0.0000 H   0  0  0  0  0  0  0  0  0  0  0  0
    6.7551   -6.5272    0.0000 H   0  0  0  0  0  0  0  0  0  0  0  0
    6.6717   -5.7345    0.0000 H   0  0  0  0  0  0  0  0  0  0  0  0
    4.7020   -4.8575    0.0000 H   0  0  0  0  0  0  0  0  0  0  0  0
    4.0572   -5.3260    0.0000 H   0  0  0  0  0  0  0  0  0  0  0  0
    5.7911   -7.7125    0.0000 H   0  0  0  0  0  0  0  0  0  0  0  0
    6.4359   -7.2440    0.0000 H   0  0  0  0  0  0  0  0  0  0  0  0
    3.7380   -6.0428    0.0000 H   0  0  0  0  0  0  0  0  0  0  0  0
    3.8213   -6.8355    0.0000 H   0  0  0  0  0  0  0  0  0  0  0  0
    4.2825   -7.4703    0.0000 H   0  0  0  0  0  0  0  0  0  0  0  0
    5.0107   -7.7945    0.0000 H   0  0  0  0  0  0  0  0  0  0  0  0
    4.8872   -0.4564    0.0000 H   0  0  0  0  0  0  0  0  0  0  0  0
    5.3234   -1.5087    0.0000 H   0  0  0  0  0  0  0  0  0  0  0  0
    9.2815   -2.9619    0.0000 H   0  0  0  0  0  0  0  0  0  0  0  0
    9.6106   -1.5319    0.0000 H   0  0  0  0  0  0  0  0  0  0  0  0
    5.7297    0.7450    0.0000 H   0  0  0  0  0  0  0  0  0  0  0  0
    3.9743   -0.4185    0.0000 H   0  0  0  0  0  0  0  0  0  0  0  0
    3.1930   -0.8165    0.0000 H   0  0  0  0  0  0  0  0  0  0  0  0
    3.5911   -1.5978    0.0000 H   0  0  0  0  0  0  0  0  0  0  0  0
    4.3352   -2.4242    0.0000 H   0  0  0  0  0  0  0  0  0  0  0  0
    5.0706   -2.9017    0.0000 H   0  0  0  0  0  0  0  0  0  0  0  0
    5.5481   -2.1664    0.0000 H   0  0  0  0  0  0  0  0  0  0  0  0
   11.6241   -2.4496    0.0000 H   0  0  0  0  0  0  0  0  0  0  0  0
   11.2256   -1.7593    0.0000 H   0  0  0  0  0  0  0  0  0  0  0  0
   11.5505   -3.0319    0.0000 H   0  0  0  0  0  0  0  0  0  0  0  0
   11.5505   -0.6519    0.0000 H   0  0  0  0  0  0  0  0  0  0  0  0
   10.8015    1.2407    0.0000 H   0  0  0  0  0  0  0  0  0  0  0  0
   10.4029    0.5504    0.0000 H   0  0  0  0  0  0  0  0  0  0  0  0
    2.5394    1.9047    0.0000 H   0  0  0  0  0  0  0  0  0  0  0  0
    3.0727    1.3124    0.0000 H   0  0  0  0  0  0  0  0  0  0  0  0
   12.0916    0.5755    0.0000 H   0  0  0  0  0  0  0  0  0  0  0  0
   12.4901    1.2658    0.0000 H   0  0  0  0  0  0  0  0  0  0  0  0
    2.4903    2.4896    0.0000 H   0  0  0  0  0  0  0  0  0  0  0  0
    2.1916    3.8031    0.0000 H   0  0  0  0  0  0  0  0  0  0  0  0
    1.4103    3.4051    0.0000 H   0  0  0  0  0  0  0  0  0  0  0  0
    1.8084    2.6238    0.0000 H   0  0  0  0  0  0  0  0  0  0  0  0
    4.1091    3.1128    0.0000 H   0  0  0  0  0  0  0  0  0  0  0  0
    4.1550    3.9885    0.0000 H   0  0  0  0  0  0  0  0  0  0  0  0
    3.2793    4.0344    0.0000 H   0  0  0  0  0  0  0  0  0  0  0  0
   10.4766    3.9681    0.0000 H   0  0  0  0  0  0  0  0  0  0  0  0
   13.2825    3.9681    0.0000 H   0  0  0  0  0  0  0  0  0  0  0  0
   11.0151    7.1985    0.0000 H   0  0  0  0  0  0  0  0  0  0  0  0
  1  6  2  0  0  0  0
  1  7  2  0  0  0  0
 21  1  1  1  0  0  0
  1 22  1  0  0  0  0
  2 41  1  0  0  0  0
  3 41  1  0  0  0  0
  4 49  1  0  0  0  0
  5 50  1  0  0  0  0
  8 31  2  0  0  0  0
  9 32  2  0  0  0  0
 10 40  1  0  0  0  0
 10 43  1  0  0  0  0
 11 39  2  0  0  0  0
 12 40  2  0  0  0  0
 13 24  1  0  0  0  0
 13 25  1  0  0  0  0
 13 31  1  0  0  0  0
 14 32  1  0  0  0  0
 35 14  1  6  0  0  0
 14 74  1  0  0  0  0
 33 15  1  6  0  0  0
 15 40  1  0  0  0  0
 15 76  1  0  0  0  0
 16 39  1  0  0  0  0
 16 42  1  0  0  0  0
 16 86  1  0  0  0  0
 17 19  1  0  0  0  0
 17 54  2  0  0  0  0
 18 20  2  0  0  0  0
 18 54  1  0  0  0  0
 19 20  1  0  0  0  0
 19102  1  0  0  0  0
 21 23  1  0  0  0  0
 21 24  1  0  0  0  0
 21 55  1  0  0  0  0
 22 26  1  0  0  0  0
 22 27  1  0  0  0  0
 22 56  1  0  0  0  0
 23 25  1  0  0  0  0
 23 57  1  0  0  0  0
 23 58  1  0  0  0  0
 24 59  1  0  0  0  0
 24 60  1  0  0  0  0
 25 32  1  6  0  0  0
 25 61  1  0  0  0  0
 26 28  1  0  0  0  0
 26 62  1  0  0  0  0
 26 63  1  0  0  0  0
 27 29  1  0  0  0  0
 27 64  1  0  0  0  0
 27 65  1  0  0  0  0
 28 30  1  0  0  0  0
 28 66  1  0  0  0  0
 28 67  1  0  0  0  0
 29 30  1  0  0  0  0
 29 68  1  0  0  0  0
 29 69  1  0  0  0  0
 30 70  1  0  0  0  0
 30 71  1  0  0  0  0
 31 33  1  0  0  0  0
 33 34  1  0  0  0  0
 33 72  1  0  0  0  0
 34 36  1  0  0  0  0
 34 37  1  0  0  0  0
 34 73  1  0  0  0  0
 35 38  1  0  0  0  0
 35 39  1  0  0  0  0
 35 75  1  0  0  0  0
 36 77  1  0  0  0  0
 36 78  1  0  0  0  0
 36 79  1  0  0  0  0
 37 80  1  0  0  0  0
 37 81  1  0  0  0  0
 37 82  1  0  0  0  0
 38 41  1  0  0  0  0
 38 83  1  0  0  0  0
 38 84  1  0  0  0  0
 41 85  1  0  0  0  0
 42 44  1  0  0  0  0
 42 87  1  0  0  0  0
 42 88  1  0  0  0  0
 43 45  1  0  0  0  0
 43 89  1  0  0  0  0
 43 90  1  0  0  0  0
 44 46  1  0  0  0  0
 44 91  1  0  0  0  0
 44 92  1  0  0  0  0
 45 47  1  0  0  0  0
 45 48  1  0  0  0  0
 45 93  1  0  0  0  0
 46 49  2  0  0  0  0
 46 50  1  0  0  0  0
 47 94  1  0  0  0  0
 47 95  1  0  0  0  0
 47 96  1  0  0  0  0
 48 97  1  0  0  0  0
 48 98  1  0  0  0  0
 48 99  1  0  0  0  0
 49 51  1  0  0  0  0
 50 52  2  0  0  0  0
 51 53  2  0  0  0  0
 51100  1  0  0  0  0
 52 53  1  0  0  0  0
 52101  1  0  0  0  0
 53 54  1  0  0  0  0
M  END
> <PUBCHEM_COMPOUND_CID>
507645
> <PUBCHEM_COMPOUND_CANONICALIZED>
1
> <PUBCHEM_CACTVS_COMPLEXITY>
1380
> <PUBCHEM_CACTVS_HBOND_ACCEPTOR>
14
> <PUBCHEM_CACTVS_HBOND_DONOR>
4
> <PUBCHEM_CACTVS_ROTATABLE_BOND>
17
> <PUBCHEM_CACTVS_SUBSKEYS>
AAADcfB/+cBAAAAAAAAAAAAAAAAAAWLAAAAwYAAAAAAAAAABwAAAHwQYAAAADSjl2x6zGIfCBAqqAiNyOHDCAAIgABAUqKGoBJkIYLKgkTGcIABglgCoiAcYgcAOQAAAAAAAAACAAAAAAAAAAAAAAAAAAA==
> <PUBCHEM_IUPAC_OPENEYE_NAME>
isobutyl N-[(1S)-1-[(2S,4R)-4-cyclohexylsulfonyl-2-[[(1S)-1-[2-[2,6-difluoro-4-(2H-tetrazol-5-yl)phenyl]ethylcarbamoyl]-3,3-difluoro-propyl]carbamoyl]pyrrolidine-1-carbonyl]-2-methyl-propyl]carbamate
> <PUBCHEM_IUPAC_CAS_NAME>
N-[(2S)-1-[(2S,4R)-4-cyclohexylsulfonyl-2-[[[(2S)-1-[2-[2,6-difluoro-4-(2H-tetrazol-5-yl)phenyl]ethylamino]-4,4-difluoro-1-oxobutan-2-yl]amino]-oxomethyl]-1-pyrrolidinyl]-3-methyl-1-oxobutan-2-yl]carbamic acid 2-methylpropyl ester
> <PUBCHEM_IUPAC_NAME_MARKUP>
2-methylpropyl <I>N</I>-[(2<I>S</I>)-1-[(2<I>S</I>,4<I>R</I>)-4-cyclohexylsulfonyl-2-[[(2<I>S</I>)-1-[2-[2,6-difluoro-4-(2<I>H</I>-tetrazol-5-yl)phenyl]ethylamino]-4,4-difluoro-1-oxobutan-2-yl]carbamoyl]pyrrolidin-1-yl]-3-methyl-1-oxobutan-2-yl]carbamate
> <PUBCHEM_IUPAC_NAME>
2-methylpropyl N-[(2S)-1-[(2S,4R)-4-cyclohexylsulfonyl-2-[[(2S)-1-[2-[2,6-difluoro-4-(2H-tetrazol-5-yl)phenyl]ethylamino]-4,4-difluoro-1-oxobutan-2-yl]carbamoyl]pyrrolidin-1-yl]-3-methyl-1-oxobutan-2-yl]carbamate
> <PUBCHEM_IUPAC_SYSTEMATIC_NAME>
2-methylpropyl N-[(2S)-1-[(2S,4R)-2-[[(2S)-1-[2-[2,6-bis(fluoranyl)-4-(2H-1,2,3,4-tetrazol-5-yl)phenyl]ethylamino]-4,4-bis(fluoranyl)-1-oxidanylidene-butan-2-yl]carbamoyl]-4-cyclohexylsulfonyl-pyrrolidin-1-yl]-3-methyl-1-oxidanylidene-butan-2-yl]carbamate
> <PUBCHEM_IUPAC_TRADITIONAL_NAME>
N-[(1S)-1-[(2S,4R)-4-cyclohexylsulfonyl-2-[[(1S)-1-[2-[2,6-difluoro-4-(2H-tetrazol-5-yl)phenyl]ethylcarbamoyl]-3,3-difluoro-propyl]carbamoyl]pyrrolidine-1-carbonyl]-2-methyl-propyl]carbamic acid isobutyl ester
> <PUBCHEM_IUPAC_INCHI>
InChI=1S/C34H48F4N8O7S/c1-18(2)17-53-34(50)41-29(19(3)4)33(49)46-16-22(54(51,52)21-8-6-5-7-9-21)14-27(46)32(48)40-26(15-28(37)38)31(47)39-11-10-23-24(35)12-20(13-25(23)36)30-42-44-45-43-30/h12-13,18-19,21-22,26-29H,5-11,14-17H2,1-4H3,(H,39,47)(H,40,48)(H,41,50)(H,42,43,44,45)/t22-,26+,27+,29+/m1/s1
> <PUBCHEM_IUPAC_INCHIKEY>
RGKNONVNFOBIIF-NLALRGLNSA-N
> <PUBCHEM_XLOGP3_AA>
4.9
> <PUBCHEM_EXACT_MASS>
788.33027972
> <PUBCHEM_MOLECULAR_FORMULA>
C34H48F4N8O7S
> <PUBCHEM_MOLECULAR_WEIGHT>
788.9
> <PUBCHEM_OPENEYE_CAN_SMILES>
CC(C)COC(=O)NC(C(C)C)C(=O)N1CC(CC1C(=O)NC(CC(F)F)C(=O)NCCC2=C(C=C(C=C2F)C3=NNN=N3)F)S(=O)(=O)C4CCCCC4
> <PUBCHEM_OPENEYE_ISO_SMILES>
CC(C)COC(=O)N[C@@H](C(C)C)C(=O)N1C[C@@H](C[C@H]1C(=O)N[C@@H](CC(F)F)C(=O)NCCC2=C(C=C(C=C2F)C3=NNN=N3)F)S(=O)(=O)C4CCCCC4
> <PUBCHEM_CACTVS_TPSA>
214
> <PUBCHEM_MONOISOTOPIC_WEIGHT>
788.33027972
> <PUBCHEM_TOTAL_CHARGE>
0
> <PUBCHEM_HEAVY_ATOM_COUNT>
54
> <PUBCHEM_ATOM_DEF_STEREO_COUNT>
4
> <PUBCHEM_ATOM_UDEF_STEREO_COUNT>
0
> <PUBCHEM_BOND_DEF_STEREO_COUNT>
0
> <PUBCHEM_BOND_UDEF_STEREO_COUNT>
0
> <PUBCHEM_ISOTOPIC_ATOM_COUNT>
0
> <PUBCHEM_COMPONENT_COUNT>
1
> <PUBCHEM_CACTVS_TAUTO_COUNT>
-1
> <PUBCHEM_COORDINATE_TYPE>
1
5
255
> <PUBCHEM_BONDANNOTATIONS>
21  1  5
35  14  6
33  15  6
17  19  8
17  54  8
18  20  8
18  54  8
19  20  8
25  32  6
46  49  8
46  50  8
49  51  8
50  52  8
51  53  8
52  53  8
$$$$
