507658
  -OEChem-10302200282D
105108  0     1  0  0  0  0  0999 V2000
    2.8660   -2.4648    0.0000 F   0  0  0  0  0  0  0  0  0  0  0  0
    2.0000   -0.9648    0.0000 F   0  0  0  0  0  0  0  0  0  0  0  0
    7.4321   -3.2654    0.0000 O   0  0  0  0  0  0  0  0  0  0  0  0
    6.3301   -2.4648    0.0000 O   0  0  0  0  0  0  0  0  0  0  0  0
   10.6126   -4.9638    0.0000 O   0  0  0  0  0  0  0  0  0  0  0  0
    6.3301   -1.4648    0.0000 O   0  0  0  0  0  0  0  0  0  0  0  0
    9.4536   -6.2509    0.0000 O   0  0  0  0  0  0  0  0  0  0  0  0
    8.0622    4.5352    0.0000 O   0  0  0  0  0  0  0  0  0  0  0  0
   10.6603    5.0352    0.0000 O   0  0  0  0  0  0  0  0  0  0  0  0
    9.7942    3.5352    0.0000 O   0  0  0  0  0  0  0  0  0  0  0  0
    6.2731   -4.5526    0.0000 N   0  0  0  0  0  0  0  0  0  0  0  0
    4.5981   -2.4648    0.0000 N   0  0  0  0  0  0  0  0  0  0  0  0
    8.9184   -4.6037    0.0000 N   0  0  0  0  0  0  0  0  0  0  0  0
    5.4641    0.0352    0.0000 N   0  0  0  0  0  0  0  0  0  0  0  0
    4.9641   -5.5036    0.0000 C   0  0  2  0  0  0  0  0  0  0  0  0
    5.4641   -3.9648    0.0000 C   0  0  1  0  0  0  0  0  0  0  0  0
    4.6551   -4.5526    0.0000 C   0  0  0  0  0  0  0  0  0  0  0  0
    5.9641   -5.5036    0.0000 C   0  0  0  0  0  0  0  0  0  0  0  0
    4.3763   -6.3126    0.0000 C   0  0  0  0  0  0  0  0  0  0  0  0
    7.2242   -4.2436    0.0000 C   0  0  0  0  0  0  0  0  0  0  0  0
    5.4641   -2.9648    0.0000 C   0  0  0  0  0  0  0  0  0  0  0  0
    7.9673   -4.9127    0.0000 C   0  0  2  0  0  0  0  0  0  0  0  0
    7.7594   -5.8908    0.0000 C   0  0  0  0  0  0  0  0  0  0  0  0
    3.3818   -6.2081    0.0000 C   0  0  0  0  0  0  0  0  0  0  0  0
    4.7830   -7.2262    0.0000 C   0  0  0  0  0  0  0  0  0  0  0  0
    4.5981   -1.4648    0.0000 C   0  0  1  0  0  0  0  0  0  0  0  0
    8.5026   -6.5600    0.0000 C   0  0  0  0  0  0  0  0  0  0  0  0
    6.8084   -6.1998    0.0000 C   0  0  0  0  0  0  0  0  0  0  0  0
    2.7940   -7.0171    0.0000 C   0  0  0  0  0  0  0  0  0  0  0  0
    4.1953   -8.0352    0.0000 C   0  0  0  0  0  0  0  0  0  0  0  0
    3.7320   -0.9648    0.0000 C   0  0  0  0  0  0  0  0  0  0  0  0
    3.2008   -7.9307    0.0000 C   0  0  0  0  0  0  0  0  0  0  0  0
    5.4641   -0.9648    0.0000 C   0  0  0  0  0  0  0  0  0  0  0  0
    9.6615   -5.2728    0.0000 C   0  0  0  0  0  0  0  0  0  0  0  0
    2.8660   -1.4648    0.0000 C   0  0  0  0  0  0  0  0  0  0  0  0
    6.3301    0.5352    0.0000 C   0  0  0  0  0  0  0  0  0  0  0  0
   11.3557   -5.6329    0.0000 C   0  0  0  0  0  0  0  0  0  0  0  0
    6.3301    1.5352    0.0000 C   0  0  0  0  0  0  0  0  0  0  0  0
   12.3068   -5.3239    0.0000 C   0  0  0  0  0  0  0  0  0  0  0  0
    7.1962    2.0352    0.0000 C   0  0  0  0  0  0  0  0  0  0  0  0
   13.0499   -5.9930    0.0000 C   0  0  0  0  0  0  0  0  0  0  0  0
   12.5147   -4.3458    0.0000 C   0  0  0  0  0  0  0  0  0  0  0  0
    7.1962    3.0352    0.0000 C   0  0  0  0  0  0  0  0  0  0  0  0
    8.0622    1.5352    0.0000 C   0  0  0  0  0  0  0  0  0  0  0  0
    8.0622    3.5352    0.0000 C   0  0  0  0  0  0  0  0  0  0  0  0
    8.9282    2.0352    0.0000 C   0  0  0  0  0  0  0  0  0  0  0  0
    8.9282    3.0352    0.0000 C   0  0  0  0  0  0  0  0  0  0  0  0
    8.9282    5.0352    0.0000 C   0  0  3  0  0  0  0  0  0  0  0  0
    8.9282    6.0352    0.0000 C   0  0  0  0  0  0  0  0  0  0  0  0
    9.7942    4.5352    0.0000 C   0  0  0  0  0  0  0  0  0  0  0  0
    8.0622    6.5352    0.0000 C   0  0  0  0  0  0  0  0  0  0  0  0
    9.7942    6.5352    0.0000 C   0  0  0  0  0  0  0  0  0  0  0  0
    8.0622    7.5352    0.0000 C   0  0  0  0  0  0  0  0  0  0  0  0
    9.7942    7.5352    0.0000 C   0  0  0  0  0  0  0  0  0  0  0  0
    8.9282    8.0352    0.0000 C   0  0  0  0  0  0  0  0  0  0  0  0
    4.3517   -5.4066    0.0000 H   0  0  0  0  0  0  0  0  0  0  0  0
    6.0165   -3.6833    0.0000 H   0  0  0  0  0  0  0  0  0  0  0  0
    4.3451   -4.0156    0.0000 H   0  0  0  0  0  0  0  0  0  0  0  0
    4.0887   -4.8048    0.0000 H   0  0  0  0  0  0  0  0  0  0  0  0
    5.8993   -6.1202    0.0000 H   0  0  0  0  0  0  0  0  0  0  0  0
    6.5706   -5.6325    0.0000 H   0  0  0  0  0  0  0  0  0  0  0  0
    8.0962   -4.3062    0.0000 H   0  0  0  0  0  0  0  0  0  0  0  0
    8.3491   -5.6992    0.0000 H   0  0  0  0  0  0  0  0  0  0  0  0
    4.0611   -2.7748    0.0000 H   0  0  0  0  0  0  0  0  0  0  0  0
    3.1296   -5.6417    0.0000 H   0  0  0  0  0  0  0  0  0  0  0  0
    5.3997   -7.2910    0.0000 H   0  0  0  0  0  0  0  0  0  0  0  0
    5.1350   -1.7748    0.0000 H   0  0  0  0  0  0  0  0  0  0  0  0
    9.0473   -3.9972    0.0000 H   0  0  0  0  0  0  0  0  0  0  0  0
    8.0877   -7.0207    0.0000 H   0  0  0  0  0  0  0  0  0  0  0  0
    8.9633   -6.9748    0.0000 H   0  0  0  0  0  0  0  0  0  0  0  0
    8.9174   -6.0992    0.0000 H   0  0  0  0  0  0  0  0  0  0  0  0
    6.6168   -5.6102    0.0000 H   0  0  0  0  0  0  0  0  0  0  0  0
    6.2187   -6.3914    0.0000 H   0  0  0  0  0  0  0  0  0  0  0  0
    6.9999   -6.7895    0.0000 H   0  0  0  0  0  0  0  0  0  0  0  0
    2.1774   -6.9523    0.0000 H   0  0  0  0  0  0  0  0  0  0  0  0
    4.4474   -8.6016    0.0000 H   0  0  0  0  0  0  0  0  0  0  0  0
    4.1306   -0.4898    0.0000 H   0  0  0  0  0  0  0  0  0  0  0  0
    3.3335   -0.4898    0.0000 H   0  0  0  0  0  0  0  0  0  0  0  0
    2.8363   -8.4323    0.0000 H   0  0  0  0  0  0  0  0  0  0  0  0
    2.8660   -0.8448    0.0000 H   0  0  0  0  0  0  0  0  0  0  0  0
    4.9272    0.3452    0.0000 H   0  0  0  0  0  0  0  0  0  0  0  0
    6.5422   -0.0474    0.0000 H   0  0  0  0  0  0  0  0  0  0  0  0
    6.9407    0.6429    0.0000 H   0  0  0  0  0  0  0  0  0  0  0  0
   10.8672   -6.0146    0.0000 H   0  0  0  0  0  0  0  0  0  0  0  0
   11.6468   -6.1803    0.0000 H   0  0  0  0  0  0  0  0  0  0  0  0
    6.1181    2.1178    0.0000 H   0  0  0  0  0  0  0  0  0  0  0  0
    5.7196    1.4276    0.0000 H   0  0  0  0  0  0  0  0  0  0  0  0
   12.8964   -5.1323    0.0000 H   0  0  0  0  0  0  0  0  0  0  0  0
   12.6351   -6.4538    0.0000 H   0  0  0  0  0  0  0  0  0  0  0  0
   13.5107   -6.4079    0.0000 H   0  0  0  0  0  0  0  0  0  0  0  0
   13.4648   -5.5323    0.0000 H   0  0  0  0  0  0  0  0  0  0  0  0
   13.1211   -4.4747    0.0000 H   0  0  0  0  0  0  0  0  0  0  0  0
   12.6436   -3.7393    0.0000 H   0  0  0  0  0  0  0  0  0  0  0  0
   11.9082   -4.2168    0.0000 H   0  0  0  0  0  0  0  0  0  0  0  0
    6.6592    3.3452    0.0000 H   0  0  0  0  0  0  0  0  0  0  0  0
    8.0622    0.9152    0.0000 H   0  0  0  0  0  0  0  0  0  0  0  0
    9.4651    1.7252    0.0000 H   0  0  0  0  0  0  0  0  0  0  0  0
    9.4651    3.3452    0.0000 H   0  0  0  0  0  0  0  0  0  0  0  0
    8.9282    4.4152    0.0000 H   0  0  0  0  0  0  0  0  0  0  0  0
    7.5252    6.2252    0.0000 H   0  0  0  0  0  0  0  0  0  0  0  0
   10.3312    6.2252    0.0000 H   0  0  0  0  0  0  0  0  0  0  0  0
    7.5252    7.8452    0.0000 H   0  0  0  0  0  0  0  0  0  0  0  0
   10.3312    7.8452    0.0000 H   0  0  0  0  0  0  0  0  0  0  0  0
    8.9282    8.6552    0.0000 H   0  0  0  0  0  0  0  0  0  0  0  0
   11.1972    4.7252    0.0000 H   0  0  0  0  0  0  0  0  0  0  0  0
  1 35  1  0  0  0  0
  2 35  1  0  0  0  0
  3 20  2  0  0  0  0
  4 21  2  0  0  0  0
  5 34  1  0  0  0  0
  5 37  1  0  0  0  0
  6 33  2  0  0  0  0
  7 34  2  0  0  0  0
  8 45  1  0  0  0  0
  8 48  1  0  0  0  0
  9 50  1  0  0  0  0
  9105  1  0  0  0  0
 10 50  2  0  0  0  0
 11 16  1  0  0  0  0
 11 18  1  0  0  0  0
 11 20  1  0  0  0  0
 12 21  1  0  0  0  0
 26 12  1  1  0  0  0
 12 64  1  0  0  0  0
 22 13  1  1  0  0  0
 13 34  1  0  0  0  0
 13 68  1  0  0  0  0
 14 33  1  0  0  0  0
 14 36  1  0  0  0  0
 14 81  1  0  0  0  0
 15 17  1  0  0  0  0
 15 18  1  0  0  0  0
 15 19  1  6  0  0  0
 15 56  1  0  0  0  0
 16 17  1  0  0  0  0
 16 21  1  1  0  0  0
 16 57  1  0  0  0  0
 17 58  1  0  0  0  0
 17 59  1  0  0  0  0
 18 60  1  0  0  0  0
 18 61  1  0  0  0  0
 19 24  2  0  0  0  0
 19 25  1  0  0  0  0
 20 22  1  0  0  0  0
 22 23  1  0  0  0  0
 22 62  1  0  0  0  0
 23 27  1  0  0  0  0
 23 28  1  0  0  0  0
 23 63  1  0  0  0  0
 24 29  1  0  0  0  0
 24 65  1  0  0  0  0
 25 30  2  0  0  0  0
 25 66  1  0  0  0  0
 26 31  1  0  0  0  0
 26 33  1  0  0  0  0
 26 67  1  0  0  0  0
 27 69  1  0  0  0  0
 27 70  1  0  0  0  0
 27 71  1  0  0  0  0
 28 72  1  0  0  0  0
 28 73  1  0  0  0  0
 28 74  1  0  0  0  0
 29 32  2  0  0  0  0
 29 75  1  0  0  0  0
 30 32  1  0  0  0  0
 30 76  1  0  0  0  0
 31 35  1  0  0  0  0
 31 77  1  0  0  0  0
 31 78  1  0  0  0  0
 32 79  1  0  0  0  0
 35 80  1  0  0  0  0
 36 38  1  0  0  0  0
 36 82  1  0  0  0  0
 36 83  1  0  0  0  0
 37 39  1  0  0  0  0
 37 84  1  0  0  0  0
 37 85  1  0  0  0  0
 38 40  1  0  0  0  0
 38 86  1  0  0  0  0
 38 87  1  0  0  0  0
 39 41  1  0  0  0  0
 39 42  1  0  0  0  0
 39 88  1  0  0  0  0
 40 43  2  0  0  0  0
 40 44  1  0  0  0  0
 41 89  1  0  0  0  0
 41 90  1  0  0  0  0
 41 91  1  0  0  0  0
 42 92  1  0  0  0  0
 42 93  1  0  0  0  0
 42 94  1  0  0  0  0
 43 45  1  0  0  0  0
 43 95  1  0  0  0  0
 44 46  2  0  0  0  0
 44 96  1  0  0  0  0
 45 47  2  0  0  0  0
 46 47  1  0  0  0  0
 46 97  1  0  0  0  0
 47 98  1  0  0  0  0
 48 49  1  0  0  0  0
 48 50  1  0  0  0  0
 48 99  1  0  0  0  0
 49 51  2  0  0  0  0
 49 52  1  0  0  0  0
 51 53  1  0  0  0  0
 51100  1  0  0  0  0
 52 54  2  0  0  0  0
 52101  1  0  0  0  0
 53 55  2  0  0  0  0
 53102  1  0  0  0  0
 54 55  1  0  0  0  0
 54103  1  0  0  0  0
 55104  1  0  0  0  0
M  END
> <PUBCHEM_COMPOUND_CID>
507658
> <PUBCHEM_COMPOUND_CANONICALIZED>
1
> <PUBCHEM_CACTVS_COMPLEXITY>
1260
> <PUBCHEM_CACTVS_HBOND_ACCEPTOR>
10
> <PUBCHEM_CACTVS_HBOND_DONOR>
4
> <PUBCHEM_CACTVS_ROTATABLE_BOND>
19
> <PUBCHEM_CACTVS_SUBSKEYS>
AAADcfB/vYAAAAAAAAAAAAAAAAAAAWAAAAAwYMAAAAAAAAABUAAAHwAQCAAADTzhmBYyDoPABgCIAiHSGAICCAAgIAAIiIHOCIkNZjKEtT+eeCCk1hGLqAeY2fKOgAABAAAAAAAAAAIAAAAAAAAAAAAAAA==
> <PUBCHEM_IUPAC_OPENEYE_NAME>
2-[3-[2-[[(2S)-4,4-difluoro-2-[[(2S,4S)-1-[(2S)-2-(isobutoxycarbonylamino)-3-methyl-butanoyl]-4-phenyl-pyrrolidine-2-carbonyl]amino]butanoyl]amino]ethyl]phenoxy]-2-phenyl-acetic acid
> <PUBCHEM_IUPAC_CAS_NAME>
2-[3-[2-[[(2S)-4,4-difluoro-2-[[[(2S,4S)-1-[(2S)-3-methyl-2-[[2-methylpropoxy(oxo)methyl]amino]-1-oxobutyl]-4-phenyl-2-pyrrolidinyl]-oxomethyl]amino]-1-oxobutyl]amino]ethyl]phenoxy]-2-phenylacetic acid
> <PUBCHEM_IUPAC_NAME_MARKUP>
2-[3-[2-[[(2<I>S</I>)-4,4-difluoro-2-[[(2<I>S</I>,4<I>S</I>)-1-[(2<I>S</I>)-3-methyl-2-(2-methylpropoxycarbonylamino)butanoyl]-4-phenylpyrrolidine-2-carbonyl]amino]butanoyl]amino]ethyl]phenoxy]-2-phenylacetic acid
> <PUBCHEM_IUPAC_NAME>
2-[3-[2-[[(2S)-4,4-difluoro-2-[[(2S,4S)-1-[(2S)-3-methyl-2-(2-methylpropoxycarbonylamino)butanoyl]-4-phenylpyrrolidine-2-carbonyl]amino]butanoyl]amino]ethyl]phenoxy]-2-phenylacetic acid
> <PUBCHEM_IUPAC_SYSTEMATIC_NAME>
2-[3-[2-[[(2S)-4,4-bis(fluoranyl)-2-[[(2S,4S)-1-[(2S)-3-methyl-2-(2-methylpropoxycarbonylamino)butanoyl]-4-phenyl-pyrrolidin-2-yl]carbonylamino]butanoyl]amino]ethyl]phenoxy]-2-phenyl-ethanoic acid
> <PUBCHEM_IUPAC_TRADITIONAL_NAME>
2-[3-[2-[[(2S)-4,4-difluoro-2-[[(2S,4S)-1-[(2S)-2-(isobutoxycarbonylamino)-3-methyl-butanoyl]-4-phenyl-prolyl]amino]butanoyl]amino]ethyl]phenoxy]-2-phenyl-acetic acid
> <PUBCHEM_IUPAC_INCHI>
InChI=1S/C41H50F2N4O8/c1-25(2)24-54-41(53)46-35(26(3)4)39(50)47-23-30(28-13-7-5-8-14-28)21-33(47)38(49)45-32(22-34(42)43)37(48)44-19-18-27-12-11-17-31(20-27)55-36(40(51)52)29-15-9-6-10-16-29/h5-17,20,25-26,30,32-36H,18-19,21-24H2,1-4H3,(H,44,48)(H,45,49)(H,46,53)(H,51,52)/t30-,32+,33+,35+,36?/m1/s1
> <PUBCHEM_IUPAC_INCHIKEY>
GSVABYIDKWHKNL-XFHHEYOWSA-N
> <PUBCHEM_XLOGP3_AA>
7.2
> <PUBCHEM_EXACT_MASS>
764.35967089
> <PUBCHEM_MOLECULAR_FORMULA>
C41H50F2N4O8
> <PUBCHEM_MOLECULAR_WEIGHT>
764.9
> <PUBCHEM_OPENEYE_CAN_SMILES>
CC(C)COC(=O)NC(C(C)C)C(=O)N1CC(CC1C(=O)NC(CC(F)F)C(=O)NCCC2=CC(=CC=C2)OC(C3=CC=CC=C3)C(=O)O)C4=CC=CC=C4
> <PUBCHEM_OPENEYE_ISO_SMILES>
CC(C)COC(=O)N[C@@H](C(C)C)C(=O)N1C[C@@H](C[C@H]1C(=O)N[C@@H](CC(F)F)C(=O)NCCC2=CC(=CC=C2)OC(C3=CC=CC=C3)C(=O)O)C4=CC=CC=C4
> <PUBCHEM_CACTVS_TPSA>
163
> <PUBCHEM_MONOISOTOPIC_WEIGHT>
764.35967089
> <PUBCHEM_TOTAL_CHARGE>
0
> <PUBCHEM_HEAVY_ATOM_COUNT>
55
> <PUBCHEM_ATOM_DEF_STEREO_COUNT>
4
> <PUBCHEM_ATOM_UDEF_STEREO_COUNT>
1
> <PUBCHEM_BOND_DEF_STEREO_COUNT>
0
> <PUBCHEM_BOND_UDEF_STEREO_COUNT>
0
> <PUBCHEM_ISOTOPIC_ATOM_COUNT>
0
> <PUBCHEM_COMPONENT_COUNT>
1
> <PUBCHEM_CACTVS_TAUTO_COUNT>
-1
> <PUBCHEM_COORDINATE_TYPE>
1
5
255
> <PUBCHEM_BONDANNOTATIONS>
26  12  5
22  13  5
15  19  6
16  21  5
19  24  8
19  25  8
24  29  8
25  30  8
29  32  8
30  32  8
40  43  8
40  44  8
43  45  8
44  46  8
45  47  8
46  47  8
48  50  3
49  51  8
49  52  8
51  53  8
52  54  8
53  55  8
54  55  8
$$$$
