507614
  -OEChem-10302200282D
100102  0     1  0  0  0  0  0999 V2000
    5.4641    4.2785    0.0000 F   0  0  0  0  0  0  0  0  0  0  0  0
    3.7320    4.2785    0.0000 F   0  0  0  0  0  0  0  0  0  0  0  0
    2.0000   -1.7215    0.0000 F   0  0  0  0  0  0  0  0  0  0  0  0
    5.4641   -1.7215    0.0000 F   0  0  0  0  0  0  0  0  0  0  0  0
    8.4405    0.7244    0.0000 O   0  0  0  0  0  0  0  0  0  0  0  0
    7.1962    1.2785    0.0000 O   0  0  0  0  0  0  0  0  0  0  0  0
   11.5016   -1.1808    0.0000 O   0  0  0  0  0  0  0  0  0  0  0  0
    6.3301    0.7785    0.0000 O   0  0  0  0  0  0  0  0  0  0  0  0
   12.0368    0.4665    0.0000 O   0  0  0  0  0  0  0  0  0  0  0  0
    2.8660   -5.2215    0.0000 O   0  0  0  0  0  0  0  0  0  0  0  0
    4.5981   -5.2215    0.0000 O   0  0  0  0  0  0  0  0  0  0  0  0
    8.9757    2.3717    0.0000 N   0  0  0  0  0  0  0  0  0  0  0  0
    6.3301    2.7785    0.0000 N   0  0  0  0  0  0  0  0  0  0  0  0
   10.3426    0.1064    0.0000 N   0  0  0  0  0  0  0  0  0  0  0  0
    4.5981    0.7785    0.0000 N   0  0  0  0  0  0  0  0  0  0  0  0
    9.1448    3.9809    0.0000 C   0  0  2  0  0  0  0  0  0  0  0  0
    8.0622    2.7785    0.0000 C   0  0  1  0  0  0  0  0  0  0  0  0
    8.1667    3.7730    0.0000 C   0  0  0  0  0  0  0  0  0  0  0  0
    9.6448    3.1149    0.0000 C   0  0  0  0  0  0  0  0  0  0  0  0
    9.5516    4.8944    0.0000 C   0  0  0  0  0  0  0  0  0  0  0  0
    9.1836    1.3936    0.0000 C   0  0  0  0  0  0  0  0  0  0  0  0
    7.1962    2.2785    0.0000 C   0  0  0  0  0  0  0  0  0  0  0  0
   10.1347    1.0846    0.0000 C   0  0  2  0  0  0  0  0  0  0  0  0
   10.8778    1.7537    0.0000 C   0  0  0  0  0  0  0  0  0  0  0  0
   10.5461    4.9990    0.0000 C   0  0  0  0  0  0  0  0  0  0  0  0
    8.9638    5.7035    0.0000 C   0  0  0  0  0  0  0  0  0  0  0  0
    5.4641    2.2785    0.0000 C   0  0  1  0  0  0  0  0  0  0  0  0
   11.8289    1.4447    0.0000 C   0  0  0  0  0  0  0  0  0  0  0  0
   10.6699    2.7318    0.0000 C   0  0  0  0  0  0  0  0  0  0  0  0
   10.9528    5.9125    0.0000 C   0  0  0  0  0  0  0  0  0  0  0  0
    9.3705    6.6170    0.0000 C   0  0  0  0  0  0  0  0  0  0  0  0
    4.5981    2.7785    0.0000 C   0  0  0  0  0  0  0  0  0  0  0  0
   10.3651    6.7215    0.0000 C   0  0  0  0  0  0  0  0  0  0  0  0
    5.4641    1.2785    0.0000 C   0  0  0  0  0  0  0  0  0  0  0  0
   11.2937   -0.2026    0.0000 C   0  0  0  0  0  0  0  0  0  0  0  0
    4.5981    3.7785    0.0000 C   0  0  0  0  0  0  0  0  0  0  0  0
    4.5981   -0.2215    0.0000 C   0  0  0  0  0  0  0  0  0  0  0  0
   12.4526   -1.4898    0.0000 C   0  0  0  0  0  0  0  0  0  0  0  0
    3.7320   -0.7215    0.0000 C   0  0  0  0  0  0  0  0  0  0  0  0
   12.6605   -2.4679    0.0000 C   0  0  0  0  0  0  0  0  0  0  0  0
    3.7320   -1.7215    0.0000 C   0  0  0  0  0  0  0  0  0  0  0  0
   13.6116   -2.7769    0.0000 C   0  0  0  0  0  0  0  0  0  0  0  0
   11.9174   -3.1370    0.0000 C   0  0  0  0  0  0  0  0  0  0  0  0
    2.8660   -2.2215    0.0000 C   0  0  0  0  0  0  0  0  0  0  0  0
    4.5981   -2.2215    0.0000 C   0  0  0  0  0  0  0  0  0  0  0  0
    2.8660   -3.2215    0.0000 C   0  0  0  0  0  0  0  0  0  0  0  0
    4.5981   -3.2215    0.0000 C   0  0  0  0  0  0  0  0  0  0  0  0
    3.7320   -3.7215    0.0000 C   0  0  0  0  0  0  0  0  0  0  0  0
    3.7320   -4.7215    0.0000 C   0  0  0  0  0  0  0  0  0  0  0  0
    2.8660   -6.2215    0.0000 C   0  0  0  0  0  0  0  0  0  0  0  0
    2.0000   -6.7215    0.0000 C   0  0  0  0  0  0  0  0  0  0  0  0
    3.7320   -6.7215    0.0000 C   0  0  0  0  0  0  0  0  0  0  0  0
    8.7547    4.4627    0.0000 H   0  0  0  0  0  0  0  0  0  0  0  0
    8.0946    2.1593    0.0000 H   0  0  0  0  0  0  0  0  0  0  0  0
    8.1019    4.3896    0.0000 H   0  0  0  0  0  0  0  0  0  0  0  0
    7.5467    3.7730    0.0000 H   0  0  0  0  0  0  0  0  0  0  0  0
   10.0597    2.6541    0.0000 H   0  0  0  0  0  0  0  0  0  0  0  0
   10.1464    3.4793    0.0000 H   0  0  0  0  0  0  0  0  0  0  0  0
   10.7243    0.8930    0.0000 H   0  0  0  0  0  0  0  0  0  0  0  0
   10.2882    1.9453    0.0000 H   0  0  0  0  0  0  0  0  0  0  0  0
    6.3301    3.3985    0.0000 H   0  0  0  0  0  0  0  0  0  0  0  0
   10.9105    4.4974    0.0000 H   0  0  0  0  0  0  0  0  0  0  0  0
    8.3472    5.6386    0.0000 H   0  0  0  0  0  0  0  0  0  0  0  0
    5.4641    2.8985    0.0000 H   0  0  0  0  0  0  0  0  0  0  0  0
    9.8818   -0.3084    0.0000 H   0  0  0  0  0  0  0  0  0  0  0  0
   11.6373    0.8550    0.0000 H   0  0  0  0  0  0  0  0  0  0  0  0
   12.4185    1.2531    0.0000 H   0  0  0  0  0  0  0  0  0  0  0  0
   12.0205    2.0343    0.0000 H   0  0  0  0  0  0  0  0  0  0  0  0
   11.2764    2.8608    0.0000 H   0  0  0  0  0  0  0  0  0  0  0  0
   10.5410    3.3383    0.0000 H   0  0  0  0  0  0  0  0  0  0  0  0
   10.0635    2.6029    0.0000 H   0  0  0  0  0  0  0  0  0  0  0  0
   11.5695    5.9773    0.0000 H   0  0  0  0  0  0  0  0  0  0  0  0
    9.0061    7.1186    0.0000 H   0  0  0  0  0  0  0  0  0  0  0  0
    3.9875    2.8861    0.0000 H   0  0  0  0  0  0  0  0  0  0  0  0
    4.3860    2.1959    0.0000 H   0  0  0  0  0  0  0  0  0  0  0  0
   10.6172    7.2879    0.0000 H   0  0  0  0  0  0  0  0  0  0  0  0
    4.5981    4.3985    0.0000 H   0  0  0  0  0  0  0  0  0  0  0  0
    4.0611    1.0885    0.0000 H   0  0  0  0  0  0  0  0  0  0  0  0
    4.8101   -0.8041    0.0000 H   0  0  0  0  0  0  0  0  0  0  0  0
    5.2087   -0.1139    0.0000 H   0  0  0  0  0  0  0  0  0  0  0  0
   13.0723   -1.4681    0.0000 H   0  0  0  0  0  0  0  0  0  0  0  0
   12.5389   -0.8758    0.0000 H   0  0  0  0  0  0  0  0  0  0  0  0
    3.5200   -0.1389    0.0000 H   0  0  0  0  0  0  0  0  0  0  0  0
    3.1215   -0.8292    0.0000 H   0  0  0  0  0  0  0  0  0  0  0  0
   12.0709   -2.2763    0.0000 H   0  0  0  0  0  0  0  0  0  0  0  0
   13.4200   -3.3666    0.0000 H   0  0  0  0  0  0  0  0  0  0  0  0
   14.2013   -2.9685    0.0000 H   0  0  0  0  0  0  0  0  0  0  0  0
   13.8032   -2.1873    0.0000 H   0  0  0  0  0  0  0  0  0  0  0  0
   11.5025   -2.6763    0.0000 H   0  0  0  0  0  0  0  0  0  0  0  0
   11.4566   -3.5519    0.0000 H   0  0  0  0  0  0  0  0  0  0  0  0
   12.3323   -3.5978    0.0000 H   0  0  0  0  0  0  0  0  0  0  0  0
    2.3291   -3.5315    0.0000 H   0  0  0  0  0  0  0  0  0  0  0  0
    5.1350   -3.5315    0.0000 H   0  0  0  0  0  0  0  0  0  0  0  0
    3.4030   -5.9115    0.0000 H   0  0  0  0  0  0  0  0  0  0  0  0
    1.6900   -6.1846    0.0000 H   0  0  0  0  0  0  0  0  0  0  0  0
    1.4631   -7.0315    0.0000 H   0  0  0  0  0  0  0  0  0  0  0  0
    2.3100   -7.2585    0.0000 H   0  0  0  0  0  0  0  0  0  0  0  0
    3.4220   -7.2585    0.0000 H   0  0  0  0  0  0  0  0  0  0  0  0
    4.2690   -7.0315    0.0000 H   0  0  0  0  0  0  0  0  0  0  0  0
    4.0420   -6.1846    0.0000 H   0  0  0  0  0  0  0  0  0  0  0  0
  1 36  1  0  0  0  0
  2 36  1  0  0  0  0
  3 44  1  0  0  0  0
  4 45  1  0  0  0  0
  5 21  2  0  0  0  0
  6 22  2  0  0  0  0
  7 35  1  0  0  0  0
  7 38  1  0  0  0  0
  8 34  2  0  0  0  0
  9 35  2  0  0  0  0
 10 49  1  0  0  0  0
 10 50  1  0  0  0  0
 11 49  2  0  0  0  0
 12 17  1  0  0  0  0
 12 19  1  0  0  0  0
 12 21  1  0  0  0  0
 13 22  1  0  0  0  0
 27 13  1  6  0  0  0
 13 61  1  0  0  0  0
 23 14  1  6  0  0  0
 14 35  1  0  0  0  0
 14 65  1  0  0  0  0
 15 34  1  0  0  0  0
 15 37  1  0  0  0  0
 15 78  1  0  0  0  0
 16 18  1  0  0  0  0
 16 19  1  0  0  0  0
 16 20  1  1  0  0  0
 16 53  1  0  0  0  0
 17 18  1  0  0  0  0
 17 22  1  6  0  0  0
 17 54  1  0  0  0  0
 18 55  1  0  0  0  0
 18 56  1  0  0  0  0
 19 57  1  0  0  0  0
 19 58  1  0  0  0  0
 20 25  2  0  0  0  0
 20 26  1  0  0  0  0
 21 23  1  0  0  0  0
 23 24  1  0  0  0  0
 23 59  1  0  0  0  0
 24 28  1  0  0  0  0
 24 29  1  0  0  0  0
 24 60  1  0  0  0  0
 25 30  1  0  0  0  0
 25 62  1  0  0  0  0
 26 31  2  0  0  0  0
 26 63  1  0  0  0  0
 27 32  1  0  0  0  0
 27 34  1  0  0  0  0
 27 64  1  0  0  0  0
 28 66  1  0  0  0  0
 28 67  1  0  0  0  0
 28 68  1  0  0  0  0
 29 69  1  0  0  0  0
 29 70  1  0  0  0  0
 29 71  1  0  0  0  0
 30 33  2  0  0  0  0
 30 72  1  0  0  0  0
 31 33  1  0  0  0  0
 31 73  1  0  0  0  0
 32 36  1  0  0  0  0
 32 74  1  0  0  0  0
 32 75  1  0  0  0  0
 33 76  1  0  0  0  0
 36 77  1  0  0  0  0
 37 39  1  0  0  0  0
 37 79  1  0  0  0  0
 37 80  1  0  0  0  0
 38 40  1  0  0  0  0
 38 81  1  0  0  0  0
 38 82  1  0  0  0  0
 39 41  1  0  0  0  0
 39 83  1  0  0  0  0
 39 84  1  0  0  0  0
 40 42  1  0  0  0  0
 40 43  1  0  0  0  0
 40 85  1  0  0  0  0
 41 44  2  0  0  0  0
 41 45  1  0  0  0  0
 42 86  1  0  0  0  0
 42 87  1  0  0  0  0
 42 88  1  0  0  0  0
 43 89  1  0  0  0  0
 43 90  1  0  0  0  0
 43 91  1  0  0  0  0
 44 46  1  0  0  0  0
 45 47  2  0  0  0  0
 46 48  2  0  0  0  0
 46 92  1  0  0  0  0
 47 48  1  0  0  0  0
 47 93  1  0  0  0  0
 48 49  1  0  0  0  0
 50 51  1  0  0  0  0
 50 52  1  0  0  0  0
 50 94  1  0  0  0  0
 51 95  1  0  0  0  0
 51 96  1  0  0  0  0
 51 97  1  0  0  0  0
 52 98  1  0  0  0  0
 52 99  1  0  0  0  0
 52100  1  0  0  0  0
M  END
> <PUBCHEM_COMPOUND_CID>
507614
> <PUBCHEM_COMPOUND_CANONICALIZED>
1
> <PUBCHEM_CACTVS_COMPLEXITY>
1190
> <PUBCHEM_CACTVS_HBOND_ACCEPTOR>
11
> <PUBCHEM_CACTVS_HBOND_DONOR>
3
> <PUBCHEM_CACTVS_ROTATABLE_BOND>
18
> <PUBCHEM_CACTVS_SUBSKEYS>
AAADcfB/ucAAAAAAAAAAAAAAAAAAAWAAAAAwYAAAAAAAAAABQAAAHwAQAAAADTzhmB4yCIPABACIAiHSGAACAAAkAAAIiIGICMkIZjKAtTmeMQAk1gGIqYeYyfCOwAAAAAAAAACAAAAAAAAAAAAAAAAAAA==
> <PUBCHEM_IUPAC_OPENEYE_NAME>
isopropyl 4-[2-[[(2S)-4,4-difluoro-2-[[(2S,4S)-1-[(2S)-2-(isobutoxycarbonylamino)-3-methyl-butanoyl]-4-phenyl-pyrrolidine-2-carbonyl]amino]butanoyl]amino]ethyl]-3,5-difluoro-benzoate
> <PUBCHEM_IUPAC_CAS_NAME>
4-[2-[[(2S)-4,4-difluoro-2-[[[(2S,4S)-1-[(2S)-3-methyl-2-[[2-methylpropoxy(oxo)methyl]amino]-1-oxobutyl]-4-phenyl-2-pyrrolidinyl]-oxomethyl]amino]-1-oxobutyl]amino]ethyl]-3,5-difluorobenzoic acid propan-2-yl ester
> <PUBCHEM_IUPAC_NAME_MARKUP>
propan-2-yl 4-[2-[[(2<I>S</I>)-4,4-difluoro-2-[[(2<I>S</I>,4<I>S</I>)-1-[(2<I>S</I>)-3-methyl-2-(2-methylpropoxycarbonylamino)butanoyl]-4-phenylpyrrolidine-2-carbonyl]amino]butanoyl]amino]ethyl]-3,5-difluorobenzoate
> <PUBCHEM_IUPAC_NAME>
propan-2-yl 4-[2-[[(2S)-4,4-difluoro-2-[[(2S,4S)-1-[(2S)-3-methyl-2-(2-methylpropoxycarbonylamino)butanoyl]-4-phenylpyrrolidine-2-carbonyl]amino]butanoyl]amino]ethyl]-3,5-difluorobenzoate
> <PUBCHEM_IUPAC_SYSTEMATIC_NAME>
propan-2-yl 4-[2-[[(2S)-4,4-bis(fluoranyl)-2-[[(2S,4S)-1-[(2S)-3-methyl-2-(2-methylpropoxycarbonylamino)butanoyl]-4-phenyl-pyrrolidin-2-yl]carbonylamino]butanoyl]amino]ethyl]-3,5-bis(fluoranyl)benzoate
> <PUBCHEM_IUPAC_TRADITIONAL_NAME>
4-[2-[[(2S)-4,4-difluoro-2-[[(2S,4S)-1-[(2S)-2-(isobutoxycarbonylamino)-3-methyl-butanoyl]-4-phenyl-prolyl]amino]butanoyl]amino]ethyl]-3,5-difluoro-benzoic acid isopropyl ester
> <PUBCHEM_IUPAC_INCHI>
InChI=1S/C37H48F4N4O7/c1-20(2)19-51-37(50)44-32(21(3)4)35(48)45-18-25(23-10-8-7-9-11-23)16-30(45)34(47)43-29(17-31(40)41)33(46)42-13-12-26-27(38)14-24(15-28(26)39)36(49)52-22(5)6/h7-11,14-15,20-22,25,29-32H,12-13,16-19H2,1-6H3,(H,42,46)(H,43,47)(H,44,50)/t25-,29+,30+,32+/m1/s1
> <PUBCHEM_IUPAC_INCHIKEY>
CFTSMGSRJACVIW-FCAISAGFSA-N
> <PUBCHEM_XLOGP3_AA>
6.8
> <PUBCHEM_EXACT_MASS>
736.34591253
> <PUBCHEM_MOLECULAR_FORMULA>
C37H48F4N4O7
> <PUBCHEM_MOLECULAR_WEIGHT>
736.8
> <PUBCHEM_OPENEYE_CAN_SMILES>
CC(C)COC(=O)NC(C(C)C)C(=O)N1CC(CC1C(=O)NC(CC(F)F)C(=O)NCCC2=C(C=C(C=C2F)C(=O)OC(C)C)F)C3=CC=CC=C3
> <PUBCHEM_OPENEYE_ISO_SMILES>
CC(C)COC(=O)N[C@@H](C(C)C)C(=O)N1C[C@@H](C[C@H]1C(=O)N[C@@H](CC(F)F)C(=O)NCCC2=C(C=C(C=C2F)C(=O)OC(C)C)F)C3=CC=CC=C3
> <PUBCHEM_CACTVS_TPSA>
143
> <PUBCHEM_MONOISOTOPIC_WEIGHT>
736.34591253
> <PUBCHEM_TOTAL_CHARGE>
0
> <PUBCHEM_HEAVY_ATOM_COUNT>
52
> <PUBCHEM_ATOM_DEF_STEREO_COUNT>
4
> <PUBCHEM_ATOM_UDEF_STEREO_COUNT>
0
> <PUBCHEM_BOND_DEF_STEREO_COUNT>
0
> <PUBCHEM_BOND_UDEF_STEREO_COUNT>
0
> <PUBCHEM_ISOTOPIC_ATOM_COUNT>
0
> <PUBCHEM_COMPONENT_COUNT>
1
> <PUBCHEM_CACTVS_TAUTO_COUNT>
-1
> <PUBCHEM_COORDINATE_TYPE>
1
5
255
> <PUBCHEM_BONDANNOTATIONS>
27  13  6
23  14  6
16  20  5
17  22  6
20  25  8
20  26  8
25  30  8
26  31  8
30  33  8
31  33  8
41  44  8
41  45  8
44  46  8
45  47  8
46  48  8
47  48  8
$$$$
