507608
  -OEChem-10302200282D
 93 96  0     1  0  0  0  0  0999 V2000
    4.5981   -4.2987    0.0000 F   0  0  0  0  0  0  0  0  0  0  0  0
    2.8660   -4.2987    0.0000 F   0  0  0  0  0  0  0  0  0  0  0  0
    7.5745   -0.7447    0.0000 O   0  0  0  0  0  0  0  0  0  0  0  0
    6.3301   -1.2987    0.0000 O   0  0  0  0  0  0  0  0  0  0  0  0
   10.6355    1.1605    0.0000 O   0  0  0  0  0  0  0  0  0  0  0  0
    5.4641   -0.7987    0.0000 O   0  0  0  0  0  0  0  0  0  0  0  0
   11.1708   -0.4867    0.0000 O   0  0  0  0  0  0  0  0  0  0  0  0
    8.1097   -2.3919    0.0000 N   0  0  0  0  0  0  0  0  0  0  0  0
    5.4641   -2.7987    0.0000 N   0  0  0  0  0  0  0  0  0  0  0  0
    9.4766   -0.1266    0.0000 N   0  0  0  0  0  0  0  0  0  0  0  0
    3.7320   -0.7987    0.0000 N   0  0  0  0  0  0  0  0  0  0  0  0
    2.0570    5.2891    0.0000 N   0  0  0  0  0  0  0  0  0  0  0  0
    3.6750    5.2891    0.0000 N   0  0  0  0  0  0  0  0  0  0  0  0
    2.3660    6.2402    0.0000 N   0  0  0  0  0  0  0  0  0  0  0  0
    3.3660    6.2402    0.0000 N   0  0  0  0  0  0  0  0  0  0  0  0
    8.2788   -4.0011    0.0000 C   0  0  2  0  0  0  0  0  0  0  0  0
    7.1962   -2.7987    0.0000 C   0  0  1  0  0  0  0  0  0  0  0  0
    7.3007   -3.7932    0.0000 C   0  0  0  0  0  0  0  0  0  0  0  0
    8.7788   -3.1351    0.0000 C   0  0  0  0  0  0  0  0  0  0  0  0
    8.6856   -4.9147    0.0000 C   0  0  0  0  0  0  0  0  0  0  0  0
    8.3176   -1.4138    0.0000 C   0  0  0  0  0  0  0  0  0  0  0  0
    6.3301   -2.2987    0.0000 C   0  0  0  0  0  0  0  0  0  0  0  0
    9.2687   -1.1048    0.0000 C   0  0  2  0  0  0  0  0  0  0  0  0
   10.0118   -1.7739    0.0000 C   0  0  0  0  0  0  0  0  0  0  0  0
    8.0978   -5.7237    0.0000 C   0  0  0  0  0  0  0  0  0  0  0  0
    9.6801   -5.0192    0.0000 C   0  0  0  0  0  0  0  0  0  0  0  0
    4.5981   -2.2987    0.0000 C   0  0  1  0  0  0  0  0  0  0  0  0
   10.9629   -1.4649    0.0000 C   0  0  0  0  0  0  0  0  0  0  0  0
    9.8039   -2.7521    0.0000 C   0  0  0  0  0  0  0  0  0  0  0  0
    8.5045   -6.6372    0.0000 C   0  0  0  0  0  0  0  0  0  0  0  0
   10.0868   -5.9327    0.0000 C   0  0  0  0  0  0  0  0  0  0  0  0
    3.7320   -2.7987    0.0000 C   0  0  0  0  0  0  0  0  0  0  0  0
    9.4990   -6.7418    0.0000 C   0  0  0  0  0  0  0  0  0  0  0  0
    4.5981   -1.2987    0.0000 C   0  0  0  0  0  0  0  0  0  0  0  0
   10.4276    0.1824    0.0000 C   0  0  0  0  0  0  0  0  0  0  0  0
    3.7320   -3.7987    0.0000 C   0  0  0  0  0  0  0  0  0  0  0  0
    3.7320    0.2013    0.0000 C   0  0  0  0  0  0  0  0  0  0  0  0
   11.5866    1.4696    0.0000 C   0  0  0  0  0  0  0  0  0  0  0  0
    2.8660    0.7013    0.0000 C   0  0  0  0  0  0  0  0  0  0  0  0
   11.7945    2.4477    0.0000 C   0  0  0  0  0  0  0  0  0  0  0  0
    2.8660    1.7013    0.0000 C   0  0  0  0  0  0  0  0  0  0  0  0
   12.7456    2.7567    0.0000 C   0  0  0  0  0  0  0  0  0  0  0  0
   11.0514    3.1168    0.0000 C   0  0  0  0  0  0  0  0  0  0  0  0
    3.7320    2.2013    0.0000 C   0  0  0  0  0  0  0  0  0  0  0  0
    2.0000    2.2013    0.0000 C   0  0  0  0  0  0  0  0  0  0  0  0
    3.7320    3.2013    0.0000 C   0  0  0  0  0  0  0  0  0  0  0  0
    2.0000    3.2013    0.0000 C   0  0  0  0  0  0  0  0  0  0  0  0
    2.8660    3.7013    0.0000 C   0  0  0  0  0  0  0  0  0  0  0  0
    2.8660    4.7013    0.0000 C   0  0  0  0  0  0  0  0  0  0  0  0
    8.8980   -4.0336    0.0000 H   0  0  0  0  0  0  0  0  0  0  0  0
    7.2286   -2.1795    0.0000 H   0  0  0  0  0  0  0  0  0  0  0  0
    6.6807   -3.7932    0.0000 H   0  0  0  0  0  0  0  0  0  0  0  0
    7.2359   -4.4098    0.0000 H   0  0  0  0  0  0  0  0  0  0  0  0
    9.2804   -3.4995    0.0000 H   0  0  0  0  0  0  0  0  0  0  0  0
    9.1937   -2.6743    0.0000 H   0  0  0  0  0  0  0  0  0  0  0  0
    9.8583   -0.9132    0.0000 H   0  0  0  0  0  0  0  0  0  0  0  0
   10.4726   -2.1888    0.0000 H   0  0  0  0  0  0  0  0  0  0  0  0
    5.4641   -3.4187    0.0000 H   0  0  0  0  0  0  0  0  0  0  0  0
    7.4812   -5.6589    0.0000 H   0  0  0  0  0  0  0  0  0  0  0  0
   10.0445   -4.5176    0.0000 H   0  0  0  0  0  0  0  0  0  0  0  0
    4.5981   -2.9187    0.0000 H   0  0  0  0  0  0  0  0  0  0  0  0
    9.0158    0.2882    0.0000 H   0  0  0  0  0  0  0  0  0  0  0  0
   11.1545   -2.0546    0.0000 H   0  0  0  0  0  0  0  0  0  0  0  0
   11.5525   -1.2733    0.0000 H   0  0  0  0  0  0  0  0  0  0  0  0
   10.7713   -0.8752    0.0000 H   0  0  0  0  0  0  0  0  0  0  0  0
    9.1974   -2.6232    0.0000 H   0  0  0  0  0  0  0  0  0  0  0  0
    9.6750   -3.3585    0.0000 H   0  0  0  0  0  0  0  0  0  0  0  0
   10.4103   -2.8810    0.0000 H   0  0  0  0  0  0  0  0  0  0  0  0
    8.1401   -7.1388    0.0000 H   0  0  0  0  0  0  0  0  0  0  0  0
   10.7034   -5.9975    0.0000 H   0  0  0  0  0  0  0  0  0  0  0  0
    3.5200   -2.2161    0.0000 H   0  0  0  0  0  0  0  0  0  0  0  0
    3.1215   -2.9063    0.0000 H   0  0  0  0  0  0  0  0  0  0  0  0
    9.7512   -7.3082    0.0000 H   0  0  0  0  0  0  0  0  0  0  0  0
    3.7320   -4.4187    0.0000 H   0  0  0  0  0  0  0  0  0  0  0  0
    3.1951   -1.1087    0.0000 H   0  0  0  0  0  0  0  0  0  0  0  0
    4.3426    0.0937    0.0000 H   0  0  0  0  0  0  0  0  0  0  0  0
    3.9441    0.7839    0.0000 H   0  0  0  0  0  0  0  0  0  0  0  0
   11.6729    0.8556    0.0000 H   0  0  0  0  0  0  0  0  0  0  0  0
   12.2062    1.4479    0.0000 H   0  0  0  0  0  0  0  0  0  0  0  0
    2.2554    0.8090    0.0000 H   0  0  0  0  0  0  0  0  0  0  0  0
    2.6540    0.1187    0.0000 H   0  0  0  0  0  0  0  0  0  0  0  0
   12.2553    2.0328    0.0000 H   0  0  0  0  0  0  0  0  0  0  0  0
   12.9372    2.1671    0.0000 H   0  0  0  0  0  0  0  0  0  0  0  0
   13.3352    2.9483    0.0000 H   0  0  0  0  0  0  0  0  0  0  0  0
   12.5540    3.3464    0.0000 H   0  0  0  0  0  0  0  0  0  0  0  0
   11.4662    3.5776    0.0000 H   0  0  0  0  0  0  0  0  0  0  0  0
   10.5906    3.5317    0.0000 H   0  0  0  0  0  0  0  0  0  0  0  0
   10.6365    2.6561    0.0000 H   0  0  0  0  0  0  0  0  0  0  0  0
    4.2690    1.8913    0.0000 H   0  0  0  0  0  0  0  0  0  0  0  0
    1.4631    1.8913    0.0000 H   0  0  0  0  0  0  0  0  0  0  0  0
    4.2690    3.5113    0.0000 H   0  0  0  0  0  0  0  0  0  0  0  0
    1.4631    3.5113    0.0000 H   0  0  0  0  0  0  0  0  0  0  0  0
    2.0016    6.7418    0.0000 H   0  0  0  0  0  0  0  0  0  0  0  0
  1 36  1  0  0  0  0
  2 36  1  0  0  0  0
  3 21  2  0  0  0  0
  4 22  2  0  0  0  0
  5 35  1  0  0  0  0
  5 38  1  0  0  0  0
  6 34  2  0  0  0  0
  7 35  2  0  0  0  0
  8 17  1  0  0  0  0
  8 19  1  0  0  0  0
  8 21  1  0  0  0  0
  9 22  1  0  0  0  0
 27  9  1  1  0  0  0
  9 58  1  0  0  0  0
 23 10  1  1  0  0  0
 10 35  1  0  0  0  0
 10 62  1  0  0  0  0
 11 34  1  0  0  0  0
 11 37  1  0  0  0  0
 11 75  1  0  0  0  0
 12 14  1  0  0  0  0
 12 49  2  0  0  0  0
 13 15  2  0  0  0  0
 13 49  1  0  0  0  0
 14 15  1  0  0  0  0
 14 93  1  0  0  0  0
 16 18  1  0  0  0  0
 16 19  1  0  0  0  0
 16 20  1  6  0  0  0
 16 50  1  0  0  0  0
 17 18  1  0  0  0  0
 17 22  1  1  0  0  0
 17 51  1  0  0  0  0
 18 52  1  0  0  0  0
 18 53  1  0  0  0  0
 19 54  1  0  0  0  0
 19 55  1  0  0  0  0
 20 25  2  0  0  0  0
 20 26  1  0  0  0  0
 21 23  1  0  0  0  0
 23 24  1  0  0  0  0
 23 56  1  0  0  0  0
 24 28  1  0  0  0  0
 24 29  1  0  0  0  0
 24 57  1  0  0  0  0
 25 30  1  0  0  0  0
 25 59  1  0  0  0  0
 26 31  2  0  0  0  0
 26 60  1  0  0  0  0
 27 32  1  0  0  0  0
 27 34  1  0  0  0  0
 27 61  1  0  0  0  0
 28 63  1  0  0  0  0
 28 64  1  0  0  0  0
 28 65  1  0  0  0  0
 29 66  1  0  0  0  0
 29 67  1  0  0  0  0
 29 68  1  0  0  0  0
 30 33  2  0  0  0  0
 30 69  1  0  0  0  0
 31 33  1  0  0  0  0
 31 70  1  0  0  0  0
 32 36  1  0  0  0  0
 32 71  1  0  0  0  0
 32 72  1  0  0  0  0
 33 73  1  0  0  0  0
 36 74  1  0  0  0  0
 37 39  1  0  0  0  0
 37 76  1  0  0  0  0
 37 77  1  0  0  0  0
 38 40  1  0  0  0  0
 38 78  1  0  0  0  0
 38 79  1  0  0  0  0
 39 41  1  0  0  0  0
 39 80  1  0  0  0  0
 39 81  1  0  0  0  0
 40 42  1  0  0  0  0
 40 43  1  0  0  0  0
 40 82  1  0  0  0  0
 41 44  2  0  0  0  0
 41 45  1  0  0  0  0
 42 83  1  0  0  0  0
 42 84  1  0  0  0  0
 42 85  1  0  0  0  0
 43 86  1  0  0  0  0
 43 87  1  0  0  0  0
 43 88  1  0  0  0  0
 44 46  1  0  0  0  0
 44 89  1  0  0  0  0
 45 47  2  0  0  0  0
 45 90  1  0  0  0  0
 46 48  2  0  0  0  0
 46 91  1  0  0  0  0
 47 48  1  0  0  0  0
 47 92  1  0  0  0  0
 48 49  1  0  0  0  0
M  END
> <PUBCHEM_COMPOUND_CID>
507608
> <PUBCHEM_COMPOUND_CANONICALIZED>
1
> <PUBCHEM_CACTVS_COMPLEXITY>
1090
> <PUBCHEM_CACTVS_HBOND_ACCEPTOR>
10
> <PUBCHEM_CACTVS_HBOND_DONOR>
4
> <PUBCHEM_CACTVS_ROTATABLE_BOND>
16
> <PUBCHEM_CACTVS_SUBSKEYS>
AAADcfB/+YAAAAAAAAAAAAAAAAAAAWLAAAAwYAAAAAAAAAAB0AAAHwAYAAAADSjhmxYzGIfCBACqAiNyOACCAAIgAAAcqKGoBJkIYLKAkTGcIABglgCIiAcYicCOwAAAAAAAAACAAAAAAAAAAAAAAAAAAA==
> <PUBCHEM_IUPAC_OPENEYE_NAME>
isobutyl N-[(1S)-1-[(2S,4S)-2-[[(1S)-3,3-difluoro-1-[2-[4-(2H-tetrazol-5-yl)phenyl]ethylcarbamoyl]propyl]carbamoyl]-4-phenyl-pyrrolidine-1-carbonyl]-2-methyl-propyl]carbamate
> <PUBCHEM_IUPAC_CAS_NAME>
N-[(2S)-1-[(2S,4S)-2-[[[(2S)-4,4-difluoro-1-oxo-1-[2-[4-(2H-tetrazol-5-yl)phenyl]ethylamino]butan-2-yl]amino]-oxomethyl]-4-phenyl-1-pyrrolidinyl]-3-methyl-1-oxobutan-2-yl]carbamic acid 2-methylpropyl ester
> <PUBCHEM_IUPAC_NAME_MARKUP>
2-methylpropyl <I>N</I>-[(2<I>S</I>)-1-[(2<I>S</I>,4<I>S</I>)-2-[[(2<I>S</I>)-4,4-difluoro-1-oxo-1-[2-[4-(2<I>H</I>-tetrazol-5-yl)phenyl]ethylamino]butan-2-yl]carbamoyl]-4-phenylpyrrolidin-1-yl]-3-methyl-1-oxobutan-2-yl]carbamate
> <PUBCHEM_IUPAC_NAME>
2-methylpropyl N-[(2S)-1-[(2S,4S)-2-[[(2S)-4,4-difluoro-1-oxo-1-[2-[4-(2H-tetrazol-5-yl)phenyl]ethylamino]butan-2-yl]carbamoyl]-4-phenylpyrrolidin-1-yl]-3-methyl-1-oxobutan-2-yl]carbamate
> <PUBCHEM_IUPAC_SYSTEMATIC_NAME>
2-methylpropyl N-[(2S)-1-[(2S,4S)-2-[[(2S)-4,4-bis(fluoranyl)-1-oxidanylidene-1-[2-[4-(2H-1,2,3,4-tetrazol-5-yl)phenyl]ethylamino]butan-2-yl]carbamoyl]-4-phenyl-pyrrolidin-1-yl]-3-methyl-1-oxidanylidene-butan-2-yl]carbamate
> <PUBCHEM_IUPAC_TRADITIONAL_NAME>
N-[(1S)-1-[(2S,4S)-2-[[(1S)-3,3-difluoro-1-[2-[4-(2H-tetrazol-5-yl)phenyl]ethylcarbamoyl]propyl]carbamoyl]-4-phenyl-pyrrolidine-1-carbonyl]-2-methyl-propyl]carbamic acid isobutyl ester
> <PUBCHEM_IUPAC_INCHI>
InChI=1S/C34H44F2N8O5/c1-20(2)19-49-34(48)39-29(21(3)4)33(47)44-18-25(23-8-6-5-7-9-23)16-27(44)32(46)38-26(17-28(35)36)31(45)37-15-14-22-10-12-24(13-11-22)30-40-42-43-41-30/h5-13,20-21,25-29H,14-19H2,1-4H3,(H,37,45)(H,38,46)(H,39,48)(H,40,41,42,43)/t25-,26+,27+,29+/m1/s1
> <PUBCHEM_IUPAC_INCHIKEY>
OKLLTHMLEJNVKF-COROXYKFSA-N
> <PUBCHEM_XLOGP3_AA>
5.2
> <PUBCHEM_EXACT_MASS>
682.34027286
> <PUBCHEM_MOLECULAR_FORMULA>
C34H44F2N8O5
> <PUBCHEM_MOLECULAR_WEIGHT>
682.8
> <PUBCHEM_OPENEYE_CAN_SMILES>
CC(C)COC(=O)NC(C(C)C)C(=O)N1CC(CC1C(=O)NC(CC(F)F)C(=O)NCCC2=CC=C(C=C2)C3=NNN=N3)C4=CC=CC=C4
> <PUBCHEM_OPENEYE_ISO_SMILES>
CC(C)COC(=O)N[C@@H](C(C)C)C(=O)N1C[C@@H](C[C@H]1C(=O)N[C@@H](CC(F)F)C(=O)NCCC2=CC=C(C=C2)C3=NNN=N3)C4=CC=CC=C4
> <PUBCHEM_CACTVS_TPSA>
171
> <PUBCHEM_MONOISOTOPIC_WEIGHT>
682.34027286
> <PUBCHEM_TOTAL_CHARGE>
0
> <PUBCHEM_HEAVY_ATOM_COUNT>
49
> <PUBCHEM_ATOM_DEF_STEREO_COUNT>
4
> <PUBCHEM_ATOM_UDEF_STEREO_COUNT>
0
> <PUBCHEM_BOND_DEF_STEREO_COUNT>
0
> <PUBCHEM_BOND_UDEF_STEREO_COUNT>
0
> <PUBCHEM_ISOTOPIC_ATOM_COUNT>
0
> <PUBCHEM_COMPONENT_COUNT>
1
> <PUBCHEM_CACTVS_TAUTO_COUNT>
-1
> <PUBCHEM_COORDINATE_TYPE>
1
5
255
> <PUBCHEM_BONDANNOTATIONS>
23  10  5
12  14  8
12  49  8
13  15  8
13  49  8
14  15  8
16  20  6
17  22  5
20  25  8
20  26  8
25  30  8
26  31  8
30  33  8
31  33  8
41  44  8
41  45  8
44  46  8
45  47  8
46  48  8
47  48  8
27  9  5
$$$$
