507638
  -OEChem-10302200282D
 92 93  0     1  0  0  0  0  0999 V2000
    9.5516    4.8067    0.0000 S   0  0  3  0  0  0  0  0  0  0  0  0
    3.7320    4.1907    0.0000 F   0  0  0  0  0  0  0  0  0  0  0  0
    5.4641    4.1907    0.0000 F   0  0  0  0  0  0  0  0  0  0  0  0
    5.4641   -1.8093    0.0000 F   0  0  0  0  0  0  0  0  0  0  0  0
    2.0000   -1.8093    0.0000 F   0  0  0  0  0  0  0  0  0  0  0  0
    8.9638    5.6157    0.0000 O   0  0  0  0  0  0  0  0  0  0  0  0
    8.4405    0.6367    0.0000 O   0  0  0  0  0  0  0  0  0  0  0  0
    7.1962    1.1907    0.0000 O   0  0  0  0  0  0  0  0  0  0  0  0
   11.5016   -1.2685    0.0000 O   0  0  0  0  0  0  0  0  0  0  0  0
    6.3301    0.6907    0.0000 O   0  0  0  0  0  0  0  0  0  0  0  0
   12.0368    0.3788    0.0000 O   0  0  0  0  0  0  0  0  0  0  0  0
    2.8660   -5.3093    0.0000 O   0  0  0  0  0  0  0  0  0  0  0  0
    4.5981   -5.3093    0.0000 O   0  0  0  0  0  0  0  0  0  0  0  0
    8.9757    2.2840    0.0000 N   0  0  0  0  0  0  0  0  0  0  0  0
    6.3301    2.6907    0.0000 N   0  0  0  0  0  0  0  0  0  0  0  0
   10.3426    0.0187    0.0000 N   0  0  0  0  0  0  0  0  0  0  0  0
    4.5981    0.6907    0.0000 N   0  0  0  0  0  0  0  0  0  0  0  0
    9.1448    3.8931    0.0000 C   0  0  2  0  0  0  0  0  0  0  0  0
    8.0622    2.6907    0.0000 C   0  0  1  0  0  0  0  0  0  0  0  0
    8.1667    3.6852    0.0000 C   0  0  0  0  0  0  0  0  0  0  0  0
    9.6448    3.0271    0.0000 C   0  0  0  0  0  0  0  0  0  0  0  0
    9.1836    1.3058    0.0000 C   0  0  0  0  0  0  0  0  0  0  0  0
    7.1962    2.1907    0.0000 C   0  0  0  0  0  0  0  0  0  0  0  0
   10.1347    0.9968    0.0000 C   0  0  2  0  0  0  0  0  0  0  0  0
   10.5461    4.9112    0.0000 C   0  0  0  0  0  0  0  0  0  0  0  0
   10.8778    1.6659    0.0000 C   0  0  0  0  0  0  0  0  0  0  0  0
    5.4641    2.1907    0.0000 C   0  0  1  0  0  0  0  0  0  0  0  0
   10.9528    5.8248    0.0000 C   0  0  0  0  0  0  0  0  0  0  0  0
   11.8289    1.3569    0.0000 C   0  0  0  0  0  0  0  0  0  0  0  0
   10.6699    2.6441    0.0000 C   0  0  0  0  0  0  0  0  0  0  0  0
    4.5981    2.6907    0.0000 C   0  0  0  0  0  0  0  0  0  0  0  0
   11.9474    5.9293    0.0000 C   0  0  0  0  0  0  0  0  0  0  0  0
    5.4641    1.1907    0.0000 C   0  0  0  0  0  0  0  0  0  0  0  0
   11.2937   -0.2904    0.0000 C   0  0  0  0  0  0  0  0  0  0  0  0
    4.5981    3.6907    0.0000 C   0  0  0  0  0  0  0  0  0  0  0  0
    4.5981   -0.3093    0.0000 C   0  0  0  0  0  0  0  0  0  0  0  0
   12.4526   -1.5775    0.0000 C   0  0  0  0  0  0  0  0  0  0  0  0
    3.7320   -0.8093    0.0000 C   0  0  0  0  0  0  0  0  0  0  0  0
   12.6605   -2.5557    0.0000 C   0  0  0  0  0  0  0  0  0  0  0  0
    3.7320   -1.8093    0.0000 C   0  0  0  0  0  0  0  0  0  0  0  0
   13.6116   -2.8647    0.0000 C   0  0  0  0  0  0  0  0  0  0  0  0
   11.9174   -3.2248    0.0000 C   0  0  0  0  0  0  0  0  0  0  0  0
    4.5981   -2.3093    0.0000 C   0  0  0  0  0  0  0  0  0  0  0  0
    2.8660   -2.3093    0.0000 C   0  0  0  0  0  0  0  0  0  0  0  0
    4.5981   -3.3093    0.0000 C   0  0  0  0  0  0  0  0  0  0  0  0
    2.8660   -3.3093    0.0000 C   0  0  0  0  0  0  0  0  0  0  0  0
    3.7320   -3.8093    0.0000 C   0  0  0  0  0  0  0  0  0  0  0  0
    3.7320   -4.8093    0.0000 C   0  0  0  0  0  0  0  0  0  0  0  0
    8.7547    4.3750    0.0000 H   0  0  0  0  0  0  0  0  0  0  0  0
    8.0946    2.0716    0.0000 H   0  0  0  0  0  0  0  0  0  0  0  0
    8.1019    4.3018    0.0000 H   0  0  0  0  0  0  0  0  0  0  0  0
    7.5467    3.6852    0.0000 H   0  0  0  0  0  0  0  0  0  0  0  0
   10.0597    2.5664    0.0000 H   0  0  0  0  0  0  0  0  0  0  0  0
   10.1464    3.3915    0.0000 H   0  0  0  0  0  0  0  0  0  0  0  0
    9.6739    0.5819    0.0000 H   0  0  0  0  0  0  0  0  0  0  0  0
   10.5029    4.2927    0.0000 H   0  0  0  0  0  0  0  0  0  0  0  0
   11.1477    4.7612    0.0000 H   0  0  0  0  0  0  0  0  0  0  0  0
   11.0067    1.0595    0.0000 H   0  0  0  0  0  0  0  0  0  0  0  0
    6.3301    3.3107    0.0000 H   0  0  0  0  0  0  0  0  0  0  0  0
    5.4641    2.8107    0.0000 H   0  0  0  0  0  0  0  0  0  0  0  0
   10.9961    6.4432    0.0000 H   0  0  0  0  0  0  0  0  0  0  0  0
   10.3513    5.9748    0.0000 H   0  0  0  0  0  0  0  0  0  0  0  0
    9.8818   -0.3962    0.0000 H   0  0  0  0  0  0  0  0  0  0  0  0
   11.6373    0.7673    0.0000 H   0  0  0  0  0  0  0  0  0  0  0  0
   12.4185    1.1653    0.0000 H   0  0  0  0  0  0  0  0  0  0  0  0
   12.0205    1.9466    0.0000 H   0  0  0  0  0  0  0  0  0  0  0  0
   11.2764    2.7730    0.0000 H   0  0  0  0  0  0  0  0  0  0  0  0
   10.5410    3.2505    0.0000 H   0  0  0  0  0  0  0  0  0  0  0  0
   10.0635    2.5152    0.0000 H   0  0  0  0  0  0  0  0  0  0  0  0
    3.9875    2.7984    0.0000 H   0  0  0  0  0  0  0  0  0  0  0  0
    4.3860    2.1081    0.0000 H   0  0  0  0  0  0  0  0  0  0  0  0
   12.0122    5.3127    0.0000 H   0  0  0  0  0  0  0  0  0  0  0  0
   12.5640    5.9941    0.0000 H   0  0  0  0  0  0  0  0  0  0  0  0
   11.8826    6.5459    0.0000 H   0  0  0  0  0  0  0  0  0  0  0  0
    4.5981    4.3107    0.0000 H   0  0  0  0  0  0  0  0  0  0  0  0
    4.0611    1.0007    0.0000 H   0  0  0  0  0  0  0  0  0  0  0  0
    4.8101   -0.8919    0.0000 H   0  0  0  0  0  0  0  0  0  0  0  0
    5.2087   -0.2016    0.0000 H   0  0  0  0  0  0  0  0  0  0  0  0
   13.0723   -1.5559    0.0000 H   0  0  0  0  0  0  0  0  0  0  0  0
   12.5389   -0.9636    0.0000 H   0  0  0  0  0  0  0  0  0  0  0  0
    3.5200   -0.2267    0.0000 H   0  0  0  0  0  0  0  0  0  0  0  0
    3.1215   -0.9170    0.0000 H   0  0  0  0  0  0  0  0  0  0  0  0
   12.7894   -3.1621    0.0000 H   0  0  0  0  0  0  0  0  0  0  0  0
   13.4200   -3.4543    0.0000 H   0  0  0  0  0  0  0  0  0  0  0  0
   14.2013   -3.0563    0.0000 H   0  0  0  0  0  0  0  0  0  0  0  0
   13.8032   -2.2750    0.0000 H   0  0  0  0  0  0  0  0  0  0  0  0
   11.5025   -2.7640    0.0000 H   0  0  0  0  0  0  0  0  0  0  0  0
   11.4566   -3.6397    0.0000 H   0  0  0  0  0  0  0  0  0  0  0  0
   12.3323   -3.6856    0.0000 H   0  0  0  0  0  0  0  0  0  0  0  0
    5.1350   -3.6193    0.0000 H   0  0  0  0  0  0  0  0  0  0  0  0
    2.3291   -3.6193    0.0000 H   0  0  0  0  0  0  0  0  0  0  0  0
    2.8660   -5.9293    0.0000 H   0  0  0  0  0  0  0  0  0  0  0  0
  1  6  2  0  0  0  0
 18  1  1  1  0  0  0
  1 25  1  0  0  0  0
  2 35  1  0  0  0  0
  3 35  1  0  0  0  0
  4 43  1  0  0  0  0
  5 44  1  0  0  0  0
  7 22  2  0  0  0  0
  8 23  2  0  0  0  0
  9 34  1  0  0  0  0
  9 37  1  0  0  0  0
 10 33  2  0  0  0  0
 11 34  2  0  0  0  0
 12 48  1  0  0  0  0
 12 92  1  0  0  0  0
 13 48  2  0  0  0  0
 14 19  1  0  0  0  0
 14 21  1  0  0  0  0
 14 22  1  0  0  0  0
 15 23  1  0  0  0  0
 27 15  1  6  0  0  0
 15 59  1  0  0  0  0
 24 16  1  6  0  0  0
 16 34  1  0  0  0  0
 16 63  1  0  0  0  0
 17 33  1  0  0  0  0
 17 36  1  0  0  0  0
 17 76  1  0  0  0  0
 18 20  1  0  0  0  0
 18 21  1  0  0  0  0
 18 49  1  0  0  0  0
 19 20  1  0  0  0  0
 19 23  1  6  0  0  0
 19 50  1  0  0  0  0
 20 51  1  0  0  0  0
 20 52  1  0  0  0  0
 21 53  1  0  0  0  0
 21 54  1  0  0  0  0
 22 24  1  0  0  0  0
 24 26  1  0  0  0  0
 24 55  1  0  0  0  0
 25 28  1  0  0  0  0
 25 56  1  0  0  0  0
 25 57  1  0  0  0  0
 26 29  1  0  0  0  0
 26 30  1  0  0  0  0
 26 58  1  0  0  0  0
 27 31  1  0  0  0  0
 27 33  1  0  0  0  0
 27 60  1  0  0  0  0
 28 32  1  0  0  0  0
 28 61  1  0  0  0  0
 28 62  1  0  0  0  0
 29 64  1  0  0  0  0
 29 65  1  0  0  0  0
 29 66  1  0  0  0  0
 30 67  1  0  0  0  0
 30 68  1  0  0  0  0
 30 69  1  0  0  0  0
 31 35  1  0  0  0  0
 31 70  1  0  0  0  0
 31 71  1  0  0  0  0
 32 72  1  0  0  0  0
 32 73  1  0  0  0  0
 32 74  1  0  0  0  0
 35 75  1  0  0  0  0
 36 38  1  0  0  0  0
 36 77  1  0  0  0  0
 36 78  1  0  0  0  0
 37 39  1  0  0  0  0
 37 79  1  0  0  0  0
 37 80  1  0  0  0  0
 38 40  1  0  0  0  0
 38 81  1  0  0  0  0
 38 82  1  0  0  0  0
 39 41  1  0  0  0  0
 39 42  1  0  0  0  0
 39 83  1  0  0  0  0
 40 43  2  0  0  0  0
 40 44  1  0  0  0  0
 41 84  1  0  0  0  0
 41 85  1  0  0  0  0
 41 86  1  0  0  0  0
 42 87  1  0  0  0  0
 42 88  1  0  0  0  0
 42 89  1  0  0  0  0
 43 45  1  0  0  0  0
 44 46  2  0  0  0  0
 45 47  2  0  0  0  0
 45 90  1  0  0  0  0
 46 47  1  0  0  0  0
 46 91  1  0  0  0  0
 47 48  1  0  0  0  0
M  END
> <PUBCHEM_COMPOUND_CID>
507638
> <PUBCHEM_COMPOUND_CANONICALIZED>
1
> <PUBCHEM_CACTVS_COMPLEXITY>
1140
> <PUBCHEM_CACTVS_HBOND_ACCEPTOR>
13
> <PUBCHEM_CACTVS_HBOND_DONOR>
4
> <PUBCHEM_CACTVS_ROTATABLE_BOND>
18
> <PUBCHEM_CACTVS_SUBSKEYS>
AAADcfB7vcBAAAAAAAAAAAAAAAAAAWAAAAAwAAAAAAAAAAABAAAAHwQQCAAADSjl2B6yCIPABgqIAiHSGEBCAAAkABAAiIGICMkIZjKglTGccQAk1gGomYeYyfCOQAAAAAAAAACAAAAAAAAAAAAAAAAAAA==
> <PUBCHEM_IUPAC_OPENEYE_NAME>
4-[2-[[(2S)-4,4-difluoro-2-[[(2S,4R)-1-[(2S)-2-(isobutoxycarbonylamino)-3-methyl-butanoyl]-4-propylsulfinyl-pyrrolidine-2-carbonyl]amino]butanoyl]amino]ethyl]-3,5-difluoro-benzoic acid
> <PUBCHEM_IUPAC_CAS_NAME>
4-[2-[[(2S)-4,4-difluoro-2-[[[(2S,4R)-1-[(2S)-3-methyl-2-[[2-methylpropoxy(oxo)methyl]amino]-1-oxobutyl]-4-propylsulfinyl-2-pyrrolidinyl]-oxomethyl]amino]-1-oxobutyl]amino]ethyl]-3,5-difluorobenzoic acid
> <PUBCHEM_IUPAC_NAME_MARKUP>
4-[2-[[(2<I>S</I>)-4,4-difluoro-2-[[(2<I>S</I>,4<I>R</I>)-1-[(2<I>S</I>)-3-methyl-2-(2-methylpropoxycarbonylamino)butanoyl]-4-propylsulfinylpyrrolidine-2-carbonyl]amino]butanoyl]amino]ethyl]-3,5-difluorobenzoic acid
> <PUBCHEM_IUPAC_NAME>
4-[2-[[(2S)-4,4-difluoro-2-[[(2S,4R)-1-[(2S)-3-methyl-2-(2-methylpropoxycarbonylamino)butanoyl]-4-propylsulfinylpyrrolidine-2-carbonyl]amino]butanoyl]amino]ethyl]-3,5-difluorobenzoic acid
> <PUBCHEM_IUPAC_SYSTEMATIC_NAME>
4-[2-[[(2S)-4,4-bis(fluoranyl)-2-[[(2S,4R)-1-[(2S)-3-methyl-2-(2-methylpropoxycarbonylamino)butanoyl]-4-propylsulfinyl-pyrrolidin-2-yl]carbonylamino]butanoyl]amino]ethyl]-3,5-bis(fluoranyl)benzoic acid
> <PUBCHEM_IUPAC_TRADITIONAL_NAME>
4-[2-[[(2S)-4,4-difluoro-2-[[(2S,4R)-1-[(2S)-2-(isobutoxycarbonylamino)-3-methyl-butanoyl]-4-propylsulfinyl-prolyl]amino]butanoyl]amino]ethyl]-3,5-difluoro-benzoic acid
> <PUBCHEM_IUPAC_INCHI>
InChI=1S/C31H44F4N4O8S/c1-6-9-48(46)19-12-24(39(14-19)29(42)26(17(4)5)38-31(45)47-15-16(2)3)28(41)37-23(13-25(34)35)27(40)36-8-7-20-21(32)10-18(30(43)44)11-22(20)33/h10-11,16-17,19,23-26H,6-9,12-15H2,1-5H3,(H,36,40)(H,37,41)(H,38,45)(H,43,44)/t19-,23+,24+,26+,48?/m1/s1
> <PUBCHEM_IUPAC_INCHIKEY>
BIADIAKCYVIUPP-YUOWDXRVSA-N
> <PUBCHEM_XLOGP3_AA>
3.9
> <PUBCHEM_EXACT_MASS>
708.28159820
> <PUBCHEM_MOLECULAR_FORMULA>
C31H44F4N4O8S
> <PUBCHEM_MOLECULAR_WEIGHT>
708.8
> <PUBCHEM_OPENEYE_CAN_SMILES>
CCCS(=O)C1CC(N(C1)C(=O)C(C(C)C)NC(=O)OCC(C)C)C(=O)NC(CC(F)F)C(=O)NCCC2=C(C=C(C=C2F)C(=O)O)F
> <PUBCHEM_OPENEYE_ISO_SMILES>
CCCS(=O)[C@@H]1C[C@H](N(C1)C(=O)[C@H](C(C)C)NC(=O)OCC(C)C)C(=O)N[C@@H](CC(F)F)C(=O)NCCC2=C(C=C(C=C2F)C(=O)O)F
> <PUBCHEM_CACTVS_TPSA>
190
> <PUBCHEM_MONOISOTOPIC_WEIGHT>
708.28159820
> <PUBCHEM_TOTAL_CHARGE>
0
> <PUBCHEM_HEAVY_ATOM_COUNT>
48
> <PUBCHEM_ATOM_DEF_STEREO_COUNT>
4
> <PUBCHEM_ATOM_UDEF_STEREO_COUNT>
1
> <PUBCHEM_BOND_DEF_STEREO_COUNT>
0
> <PUBCHEM_BOND_UDEF_STEREO_COUNT>
0
> <PUBCHEM_ISOTOPIC_ATOM_COUNT>
0
> <PUBCHEM_COMPONENT_COUNT>
1
> <PUBCHEM_CACTVS_TAUTO_COUNT>
-1
> <PUBCHEM_COORDINATE_TYPE>
1
5
255
> <PUBCHEM_BONDANNOTATIONS>
18  1  5
1  25  3
27  15  6
24  16  6
19  23  6
40  43  8
40  44  8
43  45  8
44  46  8
45  47  8
46  47  8
$$$$
