507652
  -OEChem-10302200282D
102104  0     1  0  0  0  0  0999 V2000
    2.8660   -2.0248    0.0000 F   0  0  0  0  0  0  0  0  0  0  0  0
    2.0000   -0.5248    0.0000 F   0  0  0  0  0  0  0  0  0  0  0  0
    7.4321   -2.8254    0.0000 O   0  0  0  0  0  0  0  0  0  0  0  0
    6.3301   -2.0248    0.0000 O   0  0  0  0  0  0  0  0  0  0  0  0
   10.6126   -4.5238    0.0000 O   0  0  0  0  0  0  0  0  0  0  0  0
    6.3301   -1.0248    0.0000 O   0  0  0  0  0  0  0  0  0  0  0  0
    9.4536   -5.8110    0.0000 O   0  0  0  0  0  0  0  0  0  0  0  0
    9.7942    6.9752    0.0000 O   0  0  0  0  0  0  0  0  0  0  0  0
    8.0622    6.9752    0.0000 O   0  0  0  0  0  0  0  0  0  0  0  0
    6.2731   -4.1126    0.0000 N   0  0  0  0  0  0  0  0  0  0  0  0
    4.5981   -2.0248    0.0000 N   0  0  0  0  0  0  0  0  0  0  0  0
    8.9184   -4.1637    0.0000 N   0  0  0  0  0  0  0  0  0  0  0  0
    5.4641    0.4752    0.0000 N   0  0  0  0  0  0  0  0  0  0  0  0
    8.0622    4.9752    0.0000 N   0  0  0  0  0  0  0  0  0  0  0  0
    4.9641   -5.0636    0.0000 C   0  0  2  0  0  0  0  0  0  0  0  0
    5.4641   -3.5248    0.0000 C   0  0  1  0  0  0  0  0  0  0  0  0
    4.6551   -4.1126    0.0000 C   0  0  0  0  0  0  0  0  0  0  0  0
    5.9641   -5.0636    0.0000 C   0  0  0  0  0  0  0  0  0  0  0  0
    4.3763   -5.8726    0.0000 C   0  0  0  0  0  0  0  0  0  0  0  0
    7.2242   -3.8036    0.0000 C   0  0  0  0  0  0  0  0  0  0  0  0
    5.4641   -2.5248    0.0000 C   0  0  0  0  0  0  0  0  0  0  0  0
    7.9673   -4.4727    0.0000 C   0  0  2  0  0  0  0  0  0  0  0  0
    7.7594   -5.4508    0.0000 C   0  0  0  0  0  0  0  0  0  0  0  0
    3.3818   -5.7681    0.0000 C   0  0  0  0  0  0  0  0  0  0  0  0
    4.7830   -6.7862    0.0000 C   0  0  0  0  0  0  0  0  0  0  0  0
    4.5981   -1.0248    0.0000 C   0  0  1  0  0  0  0  0  0  0  0  0
    8.5026   -6.1200    0.0000 C   0  0  0  0  0  0  0  0  0  0  0  0
    6.8084   -5.7598    0.0000 C   0  0  0  0  0  0  0  0  0  0  0  0
    2.7940   -6.5771    0.0000 C   0  0  0  0  0  0  0  0  0  0  0  0
    4.1953   -7.5952    0.0000 C   0  0  0  0  0  0  0  0  0  0  0  0
    3.7320   -0.5248    0.0000 C   0  0  0  0  0  0  0  0  0  0  0  0
    3.2008   -7.4907    0.0000 C   0  0  0  0  0  0  0  0  0  0  0  0
    5.4641   -0.5248    0.0000 C   0  0  0  0  0  0  0  0  0  0  0  0
    9.6615   -4.8328    0.0000 C   0  0  0  0  0  0  0  0  0  0  0  0
    2.8660   -1.0248    0.0000 C   0  0  0  0  0  0  0  0  0  0  0  0
    6.3301    0.9752    0.0000 C   0  0  0  0  0  0  0  0  0  0  0  0
   11.3557   -5.1929    0.0000 C   0  0  0  0  0  0  0  0  0  0  0  0
    6.3301    1.9752    0.0000 C   0  0  0  0  0  0  0  0  0  0  0  0
   12.3068   -4.8839    0.0000 C   0  0  0  0  0  0  0  0  0  0  0  0
    7.1962    2.4752    0.0000 C   0  0  0  0  0  0  0  0  0  0  0  0
   13.0499   -5.5530    0.0000 C   0  0  0  0  0  0  0  0  0  0  0  0
   12.5147   -3.9058    0.0000 C   0  0  0  0  0  0  0  0  0  0  0  0
    7.1962    3.4752    0.0000 C   0  0  0  0  0  0  0  0  0  0  0  0
    8.0622    1.9752    0.0000 C   0  0  0  0  0  0  0  0  0  0  0  0
    8.0622    3.9752    0.0000 C   0  0  0  0  0  0  0  0  0  0  0  0
    8.9282    2.4752    0.0000 C   0  0  0  0  0  0  0  0  0  0  0  0
    8.9282    3.4752    0.0000 C   0  0  0  0  0  0  0  0  0  0  0  0
    8.9282    5.4752    0.0000 C   0  0  3  0  0  0  0  0  0  0  0  0
    9.7942    4.9752    0.0000 C   0  0  0  0  0  0  0  0  0  0  0  0
    8.9282    6.4752    0.0000 C   0  0  0  0  0  0  0  0  0  0  0  0
   10.6603    5.4752    0.0000 C   0  0  0  0  0  0  0  0  0  0  0  0
    4.3517   -4.9666    0.0000 H   0  0  0  0  0  0  0  0  0  0  0  0
    6.0165   -3.2433    0.0000 H   0  0  0  0  0  0  0  0  0  0  0  0
    4.3451   -3.5756    0.0000 H   0  0  0  0  0  0  0  0  0  0  0  0
    4.0887   -4.3648    0.0000 H   0  0  0  0  0  0  0  0  0  0  0  0
    5.8993   -5.6802    0.0000 H   0  0  0  0  0  0  0  0  0  0  0  0
    6.5706   -5.1925    0.0000 H   0  0  0  0  0  0  0  0  0  0  0  0
    8.0962   -3.8662    0.0000 H   0  0  0  0  0  0  0  0  0  0  0  0
    8.3491   -5.2592    0.0000 H   0  0  0  0  0  0  0  0  0  0  0  0
    4.0611   -2.3348    0.0000 H   0  0  0  0  0  0  0  0  0  0  0  0
    3.1296   -5.2017    0.0000 H   0  0  0  0  0  0  0  0  0  0  0  0
    5.3997   -6.8510    0.0000 H   0  0  0  0  0  0  0  0  0  0  0  0
    5.1350   -1.3348    0.0000 H   0  0  0  0  0  0  0  0  0  0  0  0
    9.0473   -3.5572    0.0000 H   0  0  0  0  0  0  0  0  0  0  0  0
    8.0877   -6.5807    0.0000 H   0  0  0  0  0  0  0  0  0  0  0  0
    8.9633   -6.5348    0.0000 H   0  0  0  0  0  0  0  0  0  0  0  0
    8.9174   -5.6592    0.0000 H   0  0  0  0  0  0  0  0  0  0  0  0
    6.6168   -5.1702    0.0000 H   0  0  0  0  0  0  0  0  0  0  0  0
    6.2187   -5.9514    0.0000 H   0  0  0  0  0  0  0  0  0  0  0  0
    6.9999   -6.3495    0.0000 H   0  0  0  0  0  0  0  0  0  0  0  0
    2.1774   -6.5123    0.0000 H   0  0  0  0  0  0  0  0  0  0  0  0
    4.4474   -8.1616    0.0000 H   0  0  0  0  0  0  0  0  0  0  0  0
    4.1306   -0.0498    0.0000 H   0  0  0  0  0  0  0  0  0  0  0  0
    3.3335   -0.0498    0.0000 H   0  0  0  0  0  0  0  0  0  0  0  0
    2.8363   -7.9923    0.0000 H   0  0  0  0  0  0  0  0  0  0  0  0
    2.8660   -0.4048    0.0000 H   0  0  0  0  0  0  0  0  0  0  0  0
    4.9272    0.7852    0.0000 H   0  0  0  0  0  0  0  0  0  0  0  0
    6.5422    0.3926    0.0000 H   0  0  0  0  0  0  0  0  0  0  0  0
    6.9407    1.0829    0.0000 H   0  0  0  0  0  0  0  0  0  0  0  0
   10.8672   -5.5746    0.0000 H   0  0  0  0  0  0  0  0  0  0  0  0
   11.6468   -5.7403    0.0000 H   0  0  0  0  0  0  0  0  0  0  0  0
    6.1181    2.5578    0.0000 H   0  0  0  0  0  0  0  0  0  0  0  0
    5.7196    1.8676    0.0000 H   0  0  0  0  0  0  0  0  0  0  0  0
   12.8964   -4.6923    0.0000 H   0  0  0  0  0  0  0  0  0  0  0  0
   12.6351   -6.0138    0.0000 H   0  0  0  0  0  0  0  0  0  0  0  0
   13.5107   -5.9679    0.0000 H   0  0  0  0  0  0  0  0  0  0  0  0
   13.4648   -5.0923    0.0000 H   0  0  0  0  0  0  0  0  0  0  0  0
   13.1211   -4.0347    0.0000 H   0  0  0  0  0  0  0  0  0  0  0  0
   12.6436   -3.2993    0.0000 H   0  0  0  0  0  0  0  0  0  0  0  0
   11.9082   -3.7768    0.0000 H   0  0  0  0  0  0  0  0  0  0  0  0
    6.6592    3.7852    0.0000 H   0  0  0  0  0  0  0  0  0  0  0  0
    8.0622    1.3552    0.0000 H   0  0  0  0  0  0  0  0  0  0  0  0
    9.4651    2.1652    0.0000 H   0  0  0  0  0  0  0  0  0  0  0  0
    9.4651    3.7852    0.0000 H   0  0  0  0  0  0  0  0  0  0  0  0
    7.5252    5.2852    0.0000 H   0  0  0  0  0  0  0  0  0  0  0  0
    8.9282    4.8552    0.0000 H   0  0  0  0  0  0  0  0  0  0  0  0
    9.3957    4.5003    0.0000 H   0  0  0  0  0  0  0  0  0  0  0  0
   10.1928    4.5003    0.0000 H   0  0  0  0  0  0  0  0  0  0  0  0
   10.9703    4.9383    0.0000 H   0  0  0  0  0  0  0  0  0  0  0  0
   11.1972    5.7852    0.0000 H   0  0  0  0  0  0  0  0  0  0  0  0
   10.3503    6.0122    0.0000 H   0  0  0  0  0  0  0  0  0  0  0  0
    9.7942    7.5952    0.0000 H   0  0  0  0  0  0  0  0  0  0  0  0
  1 35  1  0  0  0  0
  2 35  1  0  0  0  0
  3 20  2  0  0  0  0
  4 21  2  0  0  0  0
  5 34  1  0  0  0  0
  5 37  1  0  0  0  0
  6 33  2  0  0  0  0
  7 34  2  0  0  0  0
  8 50  1  0  0  0  0
  8102  1  0  0  0  0
  9 50  2  0  0  0  0
 10 16  1  0  0  0  0
 10 18  1  0  0  0  0
 10 20  1  0  0  0  0
 11 21  1  0  0  0  0
 26 11  1  1  0  0  0
 11 60  1  0  0  0  0
 22 12  1  1  0  0  0
 12 34  1  0  0  0  0
 12 64  1  0  0  0  0
 13 33  1  0  0  0  0
 13 36  1  0  0  0  0
 13 77  1  0  0  0  0
 14 45  1  0  0  0  0
 14 48  1  0  0  0  0
 14 95  1  0  0  0  0
 15 17  1  0  0  0  0
 15 18  1  0  0  0  0
 15 19  1  6  0  0  0
 15 52  1  0  0  0  0
 16 17  1  0  0  0  0
 16 21  1  1  0  0  0
 16 53  1  0  0  0  0
 17 54  1  0  0  0  0
 17 55  1  0  0  0  0
 18 56  1  0  0  0  0
 18 57  1  0  0  0  0
 19 24  2  0  0  0  0
 19 25  1  0  0  0  0
 20 22  1  0  0  0  0
 22 23  1  0  0  0  0
 22 58  1  0  0  0  0
 23 27  1  0  0  0  0
 23 28  1  0  0  0  0
 23 59  1  0  0  0  0
 24 29  1  0  0  0  0
 24 61  1  0  0  0  0
 25 30  2  0  0  0  0
 25 62  1  0  0  0  0
 26 31  1  0  0  0  0
 26 33  1  0  0  0  0
 26 63  1  0  0  0  0
 27 65  1  0  0  0  0
 27 66  1  0  0  0  0
 27 67  1  0  0  0  0
 28 68  1  0  0  0  0
 28 69  1  0  0  0  0
 28 70  1  0  0  0  0
 29 32  2  0  0  0  0
 29 71  1  0  0  0  0
 30 32  1  0  0  0  0
 30 72  1  0  0  0  0
 31 35  1  0  0  0  0
 31 73  1  0  0  0  0
 31 74  1  0  0  0  0
 32 75  1  0  0  0  0
 35 76  1  0  0  0  0
 36 38  1  0  0  0  0
 36 78  1  0  0  0  0
 36 79  1  0  0  0  0
 37 39  1  0  0  0  0
 37 80  1  0  0  0  0
 37 81  1  0  0  0  0
 38 40  1  0  0  0  0
 38 82  1  0  0  0  0
 38 83  1  0  0  0  0
 39 41  1  0  0  0  0
 39 42  1  0  0  0  0
 39 84  1  0  0  0  0
 40 43  2  0  0  0  0
 40 44  1  0  0  0  0
 41 85  1  0  0  0  0
 41 86  1  0  0  0  0
 41 87  1  0  0  0  0
 42 88  1  0  0  0  0
 42 89  1  0  0  0  0
 42 90  1  0  0  0  0
 43 45  1  0  0  0  0
 43 91  1  0  0  0  0
 44 46  2  0  0  0  0
 44 92  1  0  0  0  0
 45 47  2  0  0  0  0
 46 47  1  0  0  0  0
 46 93  1  0  0  0  0
 47 94  1  0  0  0  0
 48 49  1  0  0  0  0
 48 50  1  0  0  0  0
 48 96  1  0  0  0  0
 49 51  1  0  0  0  0
 49 97  1  0  0  0  0
 49 98  1  0  0  0  0
 51 99  1  0  0  0  0
 51100  1  0  0  0  0
 51101  1  0  0  0  0
M  END
> <PUBCHEM_COMPOUND_CID>
507652
> <PUBCHEM_COMPOUND_CANONICALIZED>
1
> <PUBCHEM_CACTVS_COMPLEXITY>
1150
> <PUBCHEM_CACTVS_HBOND_ACCEPTOR>
10
> <PUBCHEM_CACTVS_HBOND_DONOR>
5
> <PUBCHEM_CACTVS_ROTATABLE_BOND>
19
> <PUBCHEM_CACTVS_SUBSKEYS>
AAADcfB/uYAAAAAAAAAAAAAAAAAAAWAAAAAwYAAAAAAAAAABQAAAHwAQCAAADSjhmBYyyIPABgCIAiXSWACCAAAhAgAIiIGIZIkKYDLAkbGcYAhklgDYyAcYicCOgAAAQAAAAAAAAACAAAAAAAAAAAAAAA==
> <PUBCHEM_IUPAC_OPENEYE_NAME>
2-[3-[2-[[(2S)-4,4-difluoro-2-[[(2S,4S)-1-[(2S)-2-(isobutoxycarbonylamino)-3-methyl-butanoyl]-4-phenyl-pyrrolidine-2-carbonyl]amino]butanoyl]amino]ethyl]anilino]butanoic acid
> <PUBCHEM_IUPAC_CAS_NAME>
2-[3-[2-[[(2S)-4,4-difluoro-2-[[[(2S,4S)-1-[(2S)-3-methyl-2-[[2-methylpropoxy(oxo)methyl]amino]-1-oxobutyl]-4-phenyl-2-pyrrolidinyl]-oxomethyl]amino]-1-oxobutyl]amino]ethyl]anilino]butanoic acid
> <PUBCHEM_IUPAC_NAME_MARKUP>
2-[3-[2-[[(2<I>S</I>)-4,4-difluoro-2-[[(2<I>S</I>,4<I>S</I>)-1-[(2<I>S</I>)-3-methyl-2-(2-methylpropoxycarbonylamino)butanoyl]-4-phenylpyrrolidine-2-carbonyl]amino]butanoyl]amino]ethyl]anilino]butanoic acid
> <PUBCHEM_IUPAC_NAME>
2-[3-[2-[[(2S)-4,4-difluoro-2-[[(2S,4S)-1-[(2S)-3-methyl-2-(2-methylpropoxycarbonylamino)butanoyl]-4-phenylpyrrolidine-2-carbonyl]amino]butanoyl]amino]ethyl]anilino]butanoic acid
> <PUBCHEM_IUPAC_SYSTEMATIC_NAME>
2-[[3-[2-[[(2S)-4,4-bis(fluoranyl)-2-[[(2S,4S)-1-[(2S)-3-methyl-2-(2-methylpropoxycarbonylamino)butanoyl]-4-phenyl-pyrrolidin-2-yl]carbonylamino]butanoyl]amino]ethyl]phenyl]amino]butanoic acid
> <PUBCHEM_IUPAC_TRADITIONAL_NAME>
2-[3-[2-[[(2S)-4,4-difluoro-2-[[(2S,4S)-1-[(2S)-2-(isobutoxycarbonylamino)-3-methyl-butanoyl]-4-phenyl-prolyl]amino]butanoyl]amino]ethyl]anilino]butyric acid
> <PUBCHEM_IUPAC_INCHI>
InChI=1S/C37H51F2N5O7/c1-6-28(36(48)49)41-27-14-10-11-24(17-27)15-16-40-33(45)29(19-31(38)39)42-34(46)30-18-26(25-12-8-7-9-13-25)20-44(30)35(47)32(23(4)5)43-37(50)51-21-22(2)3/h7-14,17,22-23,26,28-32,41H,6,15-16,18-21H2,1-5H3,(H,40,45)(H,42,46)(H,43,50)(H,48,49)/t26-,28?,29+,30+,32+/m1/s1
> <PUBCHEM_IUPAC_INCHIKEY>
VEPLMMOZBSGQPD-DMLDNTGCSA-N
> <PUBCHEM_XLOGP3_AA>
6.5
> <PUBCHEM_EXACT_MASS>
715.37565531
> <PUBCHEM_MOLECULAR_FORMULA>
C37H51F2N5O7
> <PUBCHEM_MOLECULAR_WEIGHT>
715.8
> <PUBCHEM_OPENEYE_CAN_SMILES>
CCC(C(=O)O)NC1=CC=CC(=C1)CCNC(=O)C(CC(F)F)NC(=O)C2CC(CN2C(=O)C(C(C)C)NC(=O)OCC(C)C)C3=CC=CC=C3
> <PUBCHEM_OPENEYE_ISO_SMILES>
CCC(C(=O)O)NC1=CC=CC(=C1)CCNC(=O)[C@H](CC(F)F)NC(=O)[C@@H]2C[C@H](CN2C(=O)[C@H](C(C)C)NC(=O)OCC(C)C)C3=CC=CC=C3
> <PUBCHEM_CACTVS_TPSA>
166
> <PUBCHEM_MONOISOTOPIC_WEIGHT>
715.37565531
> <PUBCHEM_TOTAL_CHARGE>
0
> <PUBCHEM_HEAVY_ATOM_COUNT>
51
> <PUBCHEM_ATOM_DEF_STEREO_COUNT>
4
> <PUBCHEM_ATOM_UDEF_STEREO_COUNT>
1
> <PUBCHEM_BOND_DEF_STEREO_COUNT>
0
> <PUBCHEM_BOND_UDEF_STEREO_COUNT>
0
> <PUBCHEM_ISOTOPIC_ATOM_COUNT>
0
> <PUBCHEM_COMPONENT_COUNT>
1
> <PUBCHEM_CACTVS_TAUTO_COUNT>
-1
> <PUBCHEM_COORDINATE_TYPE>
1
5
255
> <PUBCHEM_BONDANNOTATIONS>
26  11  5
22  12  5
15  19  6
16  21  5
19  24  8
19  25  8
24  29  8
25  30  8
29  32  8
30  32  8
40  43  8
40  44  8
43  45  8
44  46  8
45  47  8
46  47  8
48  49  3
$$$$
