507688
  -OEChem-10302200282D
 84 85  0     1  0  0  0  0  0999 V2000
    5.4641    3.3817    0.0000 F   0  0  0  0  0  0  0  0  0  0  0  0
    3.7320    3.3817    0.0000 F   0  0  0  0  0  0  0  0  0  0  0  0
    5.4641   -2.6183    0.0000 F   0  0  0  0  0  0  0  0  0  0  0  0
    2.0000   -2.6183    0.0000 F   0  0  0  0  0  0  0  0  0  0  0  0
    9.5516    3.9977    0.0000 O   0  0  0  0  0  0  0  0  0  0  0  0
    7.1962    0.3817    0.0000 O   0  0  0  0  0  0  0  0  0  0  0  0
    8.4405   -0.1723    0.0000 O   0  0  0  0  0  0  0  0  0  0  0  0
   10.8778    0.8569    0.0000 O   0  0  0  0  0  0  0  0  0  0  0  0
    6.3301   -0.1183    0.0000 O   0  0  0  0  0  0  0  0  0  0  0  0
    2.8660   -6.1183    0.0000 O   0  0  0  0  0  0  0  0  0  0  0  0
    4.5981   -6.1183    0.0000 O   0  0  0  0  0  0  0  0  0  0  0  0
    8.9757    1.4750    0.0000 N   0  0  0  0  0  0  0  0  0  0  0  0
    6.3301    1.8817    0.0000 N   0  0  0  0  0  0  0  0  0  0  0  0
    4.5981   -0.1183    0.0000 N   0  0  0  0  0  0  0  0  0  0  0  0
    8.0622    1.8817    0.0000 C   0  0  3  0  0  0  0  0  0  0  0  0
    9.1448    3.0841    0.0000 C   0  0  2  0  0  0  0  0  0  0  0  0
    8.1667    2.8762    0.0000 C   0  0  0  0  0  0  0  0  0  0  0  0
    9.6448    2.2181    0.0000 C   0  0  0  0  0  0  0  0  0  0  0  0
    7.1962    1.3817    0.0000 C   0  0  0  0  0  0  0  0  0  0  0  0
    9.1836    0.4968    0.0000 C   0  0  0  0  0  0  0  0  0  0  0  0
   10.5461    4.1022    0.0000 C   0  0  0  0  0  0  0  0  0  0  0  0
   10.1347    0.1878    0.0000 C   0  0  2  0  0  0  0  0  0  0  0  0
   10.9528    5.0158    0.0000 C   0  0  0  0  0  0  0  0  0  0  0  0
   10.3426   -0.7904    0.0000 C   0  0  0  0  0  0  0  0  0  0  0  0
   11.9474    5.1203    0.0000 C   0  0  0  0  0  0  0  0  0  0  0  0
   10.3651    5.8248    0.0000 C   0  0  0  0  0  0  0  0  0  0  0  0
    5.4641    1.3817    0.0000 C   0  0  1  0  0  0  0  0  0  0  0  0
   11.2937   -1.0994    0.0000 C   0  0  0  0  0  0  0  0  0  0  0  0
    9.5995   -1.4595    0.0000 C   0  0  0  0  0  0  0  0  0  0  0  0
    4.5981    1.8817    0.0000 C   0  0  0  0  0  0  0  0  0  0  0  0
   12.3541    6.0338    0.0000 C   0  0  0  0  0  0  0  0  0  0  0  0
   10.7718    6.7383    0.0000 C   0  0  0  0  0  0  0  0  0  0  0  0
    5.4641    0.3817    0.0000 C   0  0  0  0  0  0  0  0  0  0  0  0
    4.5981    2.8817    0.0000 C   0  0  0  0  0  0  0  0  0  0  0  0
    4.5981   -1.1183    0.0000 C   0  0  0  0  0  0  0  0  0  0  0  0
    3.7320   -1.6183    0.0000 C   0  0  0  0  0  0  0  0  0  0  0  0
    3.7320   -2.6183    0.0000 C   0  0  0  0  0  0  0  0  0  0  0  0
    4.5981   -3.1183    0.0000 C   0  0  0  0  0  0  0  0  0  0  0  0
    2.8660   -3.1183    0.0000 C   0  0  0  0  0  0  0  0  0  0  0  0
    4.5981   -4.1183    0.0000 C   0  0  0  0  0  0  0  0  0  0  0  0
    2.8660   -4.1183    0.0000 C   0  0  0  0  0  0  0  0  0  0  0  0
    3.7320   -4.6183    0.0000 C   0  0  0  0  0  0  0  0  0  0  0  0
    3.7320   -5.6183    0.0000 C   0  0  0  0  0  0  0  0  0  0  0  0
    8.0946    1.2625    0.0000 H   0  0  0  0  0  0  0  0  0  0  0  0
    8.7547    3.5660    0.0000 H   0  0  0  0  0  0  0  0  0  0  0  0
    8.1019    3.4928    0.0000 H   0  0  0  0  0  0  0  0  0  0  0  0
    7.5467    2.8762    0.0000 H   0  0  0  0  0  0  0  0  0  0  0  0
   10.0597    1.7574    0.0000 H   0  0  0  0  0  0  0  0  0  0  0  0
   10.1464    2.5825    0.0000 H   0  0  0  0  0  0  0  0  0  0  0  0
   10.5029    3.4837    0.0000 H   0  0  0  0  0  0  0  0  0  0  0  0
   11.1477    3.9522    0.0000 H   0  0  0  0  0  0  0  0  0  0  0  0
   10.7243   -0.0038    0.0000 H   0  0  0  0  0  0  0  0  0  0  0  0
   11.3173    4.5142    0.0000 H   0  0  0  0  0  0  0  0  0  0  0  0
    9.7530   -0.5988    0.0000 H   0  0  0  0  0  0  0  0  0  0  0  0
    6.3301    2.5017    0.0000 H   0  0  0  0  0  0  0  0  0  0  0  0
   11.9041    4.5018    0.0000 H   0  0  0  0  0  0  0  0  0  0  0  0
   12.5490    4.9703    0.0000 H   0  0  0  0  0  0  0  0  0  0  0  0
    9.8511    6.1715    0.0000 H   0  0  0  0  0  0  0  0  0  0  0  0
    9.9344    5.3788    0.0000 H   0  0  0  0  0  0  0  0  0  0  0  0
    5.4641    2.0017    0.0000 H   0  0  0  0  0  0  0  0  0  0  0  0
   11.1021   -1.6890    0.0000 H   0  0  0  0  0  0  0  0  0  0  0  0
   11.8833   -1.2910    0.0000 H   0  0  0  0  0  0  0  0  0  0  0  0
   11.4853   -0.5097    0.0000 H   0  0  0  0  0  0  0  0  0  0  0  0
    9.1846   -0.9987    0.0000 H   0  0  0  0  0  0  0  0  0  0  0  0
    9.1387   -1.8744    0.0000 H   0  0  0  0  0  0  0  0  0  0  0  0
   10.0143   -1.9202    0.0000 H   0  0  0  0  0  0  0  0  0  0  0  0
    3.9875    1.9894    0.0000 H   0  0  0  0  0  0  0  0  0  0  0  0
    4.3860    1.2991    0.0000 H   0  0  0  0  0  0  0  0  0  0  0  0
   11.4675    0.6653    0.0000 H   0  0  0  0  0  0  0  0  0  0  0  0
   12.9205    5.7816    0.0000 H   0  0  0  0  0  0  0  0  0  0  0  0
   12.6063    6.6002    0.0000 H   0  0  0  0  0  0  0  0  0  0  0  0
   11.7877    6.2860    0.0000 H   0  0  0  0  0  0  0  0  0  0  0  0
   11.3382    6.4861    0.0000 H   0  0  0  0  0  0  0  0  0  0  0  0
   11.0240    7.3047    0.0000 H   0  0  0  0  0  0  0  0  0  0  0  0
   10.2054    6.9905    0.0000 H   0  0  0  0  0  0  0  0  0  0  0  0
    4.5981    3.5017    0.0000 H   0  0  0  0  0  0  0  0  0  0  0  0
    4.0611    0.1917    0.0000 H   0  0  0  0  0  0  0  0  0  0  0  0
    4.8101   -1.7009    0.0000 H   0  0  0  0  0  0  0  0  0  0  0  0
    5.2087   -1.0106    0.0000 H   0  0  0  0  0  0  0  0  0  0  0  0
    3.5200   -1.0357    0.0000 H   0  0  0  0  0  0  0  0  0  0  0  0
    3.1215   -1.7260    0.0000 H   0  0  0  0  0  0  0  0  0  0  0  0
    5.1350   -4.4283    0.0000 H   0  0  0  0  0  0  0  0  0  0  0  0
    2.3291   -4.4283    0.0000 H   0  0  0  0  0  0  0  0  0  0  0  0
    2.8660   -6.7383    0.0000 H   0  0  0  0  0  0  0  0  0  0  0  0
  1 34  1  0  0  0  0
  2 34  1  0  0  0  0
  3 38  1  0  0  0  0
  4 39  1  0  0  0  0
 16  5  1  1  0  0  0
  5 21  1  0  0  0  0
  6 19  2  0  0  0  0
  7 20  2  0  0  0  0
 22  8  1  1  0  0  0
  8 69  1  0  0  0  0
  9 33  2  0  0  0  0
 10 43  1  0  0  0  0
 10 84  1  0  0  0  0
 11 43  2  0  0  0  0
 12 15  1  0  0  0  0
 12 18  1  0  0  0  0
 12 20  1  0  0  0  0
 13 19  1  0  0  0  0
 27 13  1  6  0  0  0
 13 55  1  0  0  0  0
 14 33  1  0  0  0  0
 14 35  1  0  0  0  0
 14 77  1  0  0  0  0
 15 17  1  0  0  0  0
 15 19  1  0  0  0  0
 15 44  1  0  0  0  0
 16 17  1  0  0  0  0
 16 18  1  0  0  0  0
 16 45  1  0  0  0  0
 17 46  1  0  0  0  0
 17 47  1  0  0  0  0
 18 48  1  0  0  0  0
 18 49  1  0  0  0  0
 20 22  1  0  0  0  0
 21 23  1  0  0  0  0
 21 50  1  0  0  0  0
 21 51  1  0  0  0  0
 22 24  1  0  0  0  0
 22 52  1  0  0  0  0
 23 25  1  0  0  0  0
 23 26  1  0  0  0  0
 23 53  1  0  0  0  0
 24 28  1  0  0  0  0
 24 29  1  0  0  0  0
 24 54  1  0  0  0  0
 25 31  1  0  0  0  0
 25 56  1  0  0  0  0
 25 57  1  0  0  0  0
 26 32  1  0  0  0  0
 26 58  1  0  0  0  0
 26 59  1  0  0  0  0
 27 30  1  0  0  0  0
 27 33  1  0  0  0  0
 27 60  1  0  0  0  0
 28 61  1  0  0  0  0
 28 62  1  0  0  0  0
 28 63  1  0  0  0  0
 29 64  1  0  0  0  0
 29 65  1  0  0  0  0
 29 66  1  0  0  0  0
 30 34  1  0  0  0  0
 30 67  1  0  0  0  0
 30 68  1  0  0  0  0
 31 70  1  0  0  0  0
 31 71  1  0  0  0  0
 31 72  1  0  0  0  0
 32 73  1  0  0  0  0
 32 74  1  0  0  0  0
 32 75  1  0  0  0  0
 34 76  1  0  0  0  0
 35 36  1  0  0  0  0
 35 78  1  0  0  0  0
 35 79  1  0  0  0  0
 36 37  1  0  0  0  0
 36 80  1  0  0  0  0
 36 81  1  0  0  0  0
 37 38  2  0  0  0  0
 37 39  1  0  0  0  0
 38 40  1  0  0  0  0
 39 41  2  0  0  0  0
 40 42  2  0  0  0  0
 40 82  1  0  0  0  0
 41 42  1  0  0  0  0
 41 83  1  0  0  0  0
 42 43  1  0  0  0  0
M  END
> <PUBCHEM_COMPOUND_CID>
507688
> <PUBCHEM_COMPOUND_CANONICALIZED>
1
> <PUBCHEM_CACTVS_COMPLEXITY>
928
> <PUBCHEM_CACTVS_HBOND_ACCEPTOR>
11
> <PUBCHEM_CACTVS_HBOND_DONOR>
4
> <PUBCHEM_CACTVS_ROTATABLE_BOND>
16
> <PUBCHEM_CACTVS_SUBSKEYS>
AAADcfB7OcAAAAAAAAAAAAAAAAAAAWAAAAAwAAAAAAAAAAABAAAAHwAQCAAADTzhmB4yCIPABgCIAiHSGAICAAAkAAAAiIHICMgKdjKAlTGXcQAm1gGYmYe6yfCOQAAAAAAAAACAAAAAAAAAAAAAAAAAAA==
> <PUBCHEM_IUPAC_OPENEYE_NAME>
4-[2-[[(2S)-2-[[(4R)-4-(2-ethylbutoxy)-1-[(2S)-2-hydroxy-3-methyl-butanoyl]pyrrolidine-2-carbonyl]amino]-4,4-difluoro-butanoyl]amino]ethyl]-3,5-difluoro-benzoic acid
> <PUBCHEM_IUPAC_CAS_NAME>
4-[2-[[(2S)-2-[[[(4R)-4-(2-ethylbutoxy)-1-[(2S)-2-hydroxy-3-methyl-1-oxobutyl]-2-pyrrolidinyl]-oxomethyl]amino]-4,4-difluoro-1-oxobutyl]amino]ethyl]-3,5-difluorobenzoic acid
> <PUBCHEM_IUPAC_NAME_MARKUP>
4-[2-[[(2<I>S</I>)-2-[[(4<I>R</I>)-4-(2-ethylbutoxy)-1-[(2<I>S</I>)-2-hydroxy-3-methylbutanoyl]pyrrolidine-2-carbonyl]amino]-4,4-difluorobutanoyl]amino]ethyl]-3,5-difluorobenzoic acid
> <PUBCHEM_IUPAC_NAME>
4-[2-[[(2S)-2-[[(4R)-4-(2-ethylbutoxy)-1-[(2S)-2-hydroxy-3-methylbutanoyl]pyrrolidine-2-carbonyl]amino]-4,4-difluorobutanoyl]amino]ethyl]-3,5-difluorobenzoic acid
> <PUBCHEM_IUPAC_SYSTEMATIC_NAME>
4-[2-[[(2S)-2-[[(4R)-4-(2-ethylbutoxy)-1-[(2S)-3-methyl-2-oxidanyl-butanoyl]pyrrolidin-2-yl]carbonylamino]-4,4-bis(fluoranyl)butanoyl]amino]ethyl]-3,5-bis(fluoranyl)benzoic acid
> <PUBCHEM_IUPAC_TRADITIONAL_NAME>
4-[2-[[(2S)-2-[[(4R)-4-(2-ethylbutoxy)-1-[(2S)-2-hydroxy-3-methyl-butanoyl]prolyl]amino]-4,4-difluoro-butanoyl]amino]ethyl]-3,5-difluoro-benzoic acid
> <PUBCHEM_IUPAC_INCHI>
InChI=1S/C29H41F4N3O7/c1-5-16(6-2)14-43-18-11-23(36(13-18)28(40)25(37)15(3)4)27(39)35-22(12-24(32)33)26(38)34-8-7-19-20(30)9-17(29(41)42)10-21(19)31/h9-10,15-16,18,22-25,37H,5-8,11-14H2,1-4H3,(H,34,38)(H,35,39)(H,41,42)/t18-,22+,23?,25+/m1/s1
> <PUBCHEM_IUPAC_INCHIKEY>
BUOMEUBNZSOHAR-URVYHALTSA-N
> <PUBCHEM_XLOGP3_AA>
4.2
> <PUBCHEM_EXACT_MASS>
619.28806330
> <PUBCHEM_MOLECULAR_FORMULA>
C29H41F4N3O7
> <PUBCHEM_MOLECULAR_WEIGHT>
619.6
> <PUBCHEM_OPENEYE_CAN_SMILES>
CCC(CC)COC1CC(N(C1)C(=O)C(C(C)C)O)C(=O)NC(CC(F)F)C(=O)NCCC2=C(C=C(C=C2F)C(=O)O)F
> <PUBCHEM_OPENEYE_ISO_SMILES>
CCC(CC)CO[C@@H]1CC(N(C1)C(=O)[C@H](C(C)C)O)C(=O)N[C@@H](CC(F)F)C(=O)NCCC2=C(C=C(C=C2F)C(=O)O)F
> <PUBCHEM_CACTVS_TPSA>
145
> <PUBCHEM_MONOISOTOPIC_WEIGHT>
619.28806330
> <PUBCHEM_TOTAL_CHARGE>
0
> <PUBCHEM_HEAVY_ATOM_COUNT>
43
> <PUBCHEM_ATOM_DEF_STEREO_COUNT>
3
> <PUBCHEM_ATOM_UDEF_STEREO_COUNT>
1
> <PUBCHEM_BOND_DEF_STEREO_COUNT>
0
> <PUBCHEM_BOND_UDEF_STEREO_COUNT>
0
> <PUBCHEM_ISOTOPIC_ATOM_COUNT>
0
> <PUBCHEM_COMPONENT_COUNT>
1
> <PUBCHEM_CACTVS_TAUTO_COUNT>
-1
> <PUBCHEM_COORDINATE_TYPE>
1
5
255
> <PUBCHEM_BONDANNOTATIONS>
27  13  6
15  19  3
37  38  8
37  39  8
38  40  8
39  41  8
40  42  8
41  42  8
16  5  5
22  8  5
$$$$
