507673
  -OEChem-10302200282D
 95 98  0     1  0  0  0  0  0999 V2000
    5.5981    4.5285    0.0000 F   0  0  0  0  0  0  0  0  0  0  0  0
    3.8660    4.5285    0.0000 F   0  0  0  0  0  0  0  0  0  0  0  0
    5.5981   -1.4715    0.0000 F   0  0  0  0  0  0  0  0  0  0  0  0
    2.1340   -1.4715    0.0000 F   0  0  0  0  0  0  0  0  0  0  0  0
    7.3301    1.5285    0.0000 O   0  0  0  0  0  0  0  0  0  0  0  0
    8.5745    0.9744    0.0000 O   0  0  0  0  0  0  0  0  0  0  0  0
   11.0118    2.0037    0.0000 O   0  0  0  0  0  0  0  0  0  0  0  0
    6.4641    1.0285    0.0000 O   0  0  0  0  0  0  0  0  0  0  0  0
    3.0000   -4.9715    0.0000 O   0  0  0  0  0  0  0  0  0  0  0  0
   13.6571    2.0548    0.0000 O   0  0  0  0  0  0  0  0  0  0  0  0
   12.4981    3.3420    0.0000 O   0  0  0  0  0  0  0  0  0  0  0  0
    4.7320   -4.9715    0.0000 O   0  0  0  0  0  0  0  0  0  0  0  0
    9.1097    2.6217    0.0000 N   0  0  0  0  0  0  0  0  0  0  0  0
    6.4641    3.0285    0.0000 N   0  0  0  0  0  0  0  0  0  0  0  0
    4.7320    1.0285    0.0000 N   0  0  0  0  0  0  0  0  0  0  0  0
    9.2788    4.2309    0.0000 C   0  0  2  0  0  0  0  0  0  0  0  0
    8.1962    3.0285    0.0000 C   0  0  3  0  0  0  0  0  0  0  0  0
    8.3007    4.0230    0.0000 C   0  0  0  0  0  0  0  0  0  0  0  0
    9.7788    3.3649    0.0000 C   0  0  0  0  0  0  0  0  0  0  0  0
    9.6856    5.1444    0.0000 C   0  0  0  0  0  0  0  0  0  0  0  0
    7.3301    2.5285    0.0000 C   0  0  0  0  0  0  0  0  0  0  0  0
    9.3176    1.6436    0.0000 C   0  0  0  0  0  0  0  0  0  0  0  0
   10.6801    5.2490    0.0000 C   0  0  0  0  0  0  0  0  0  0  0  0
    9.0978    5.9535    0.0000 C   0  0  0  0  0  0  0  0  0  0  0  0
    5.5981    2.5285    0.0000 C   0  0  1  0  0  0  0  0  0  0  0  0
   10.2687    1.3346    0.0000 C   0  0  0  0  0  0  0  0  0  0  0  0
   11.0868    6.1625    0.0000 C   0  0  0  0  0  0  0  0  0  0  0  0
    9.5045    6.8670    0.0000 C   0  0  0  0  0  0  0  0  0  0  0  0
    4.7320    3.0285    0.0000 C   0  0  0  0  0  0  0  0  0  0  0  0
   10.4766    0.3564    0.0000 C   0  0  0  0  0  0  0  0  0  0  0  0
   10.4990    6.9715    0.0000 C   0  0  0  0  0  0  0  0  0  0  0  0
    5.5981    1.5285    0.0000 C   0  0  0  0  0  0  0  0  0  0  0  0
   11.4276    0.0474    0.0000 C   0  0  0  0  0  0  0  0  0  0  0  0
    4.7320    4.0285    0.0000 C   0  0  0  0  0  0  0  0  0  0  0  0
   12.1708    0.7165    0.0000 C   0  0  0  0  0  0  0  0  0  0  0  0
    4.7320    0.0285    0.0000 C   0  0  0  0  0  0  0  0  0  0  0  0
   11.6355   -0.9307    0.0000 C   0  0  0  0  0  0  0  0  0  0  0  0
    3.8660   -0.4715    0.0000 C   0  0  0  0  0  0  0  0  0  0  0  0
   11.9629    1.6947    0.0000 C   0  0  0  0  0  0  0  0  0  0  0  0
   13.1218    0.4075    0.0000 C   0  0  0  0  0  0  0  0  0  0  0  0
   12.5866   -1.2398    0.0000 C   0  0  0  0  0  0  0  0  0  0  0  0
   13.3297   -0.5706    0.0000 C   0  0  0  0  0  0  0  0  0  0  0  0
    3.8660   -1.4715    0.0000 C   0  0  0  0  0  0  0  0  0  0  0  0
   12.7060    2.3638    0.0000 C   0  0  0  0  0  0  0  0  0  0  0  0
    4.7320   -1.9715    0.0000 C   0  0  0  0  0  0  0  0  0  0  0  0
    3.0000   -1.9715    0.0000 C   0  0  0  0  0  0  0  0  0  0  0  0
    3.8660   -3.4715    0.0000 C   0  0  0  0  0  0  0  0  0  0  0  0
    4.7320   -2.9715    0.0000 C   0  0  0  0  0  0  0  0  0  0  0  0
    3.0000   -2.9715    0.0000 C   0  0  0  0  0  0  0  0  0  0  0  0
    3.0000   -5.9715    0.0000 C   0  0  0  0  0  0  0  0  0  0  0  0
    3.8660   -4.4715    0.0000 C   0  0  0  0  0  0  0  0  0  0  0  0
    3.0000   -6.9715    0.0000 C   0  0  0  0  0  0  0  0  0  0  0  0
    2.0000   -5.9715    0.0000 C   0  0  0  0  0  0  0  0  0  0  0  0
    4.0000   -5.9715    0.0000 C   0  0  0  0  0  0  0  0  0  0  0  0
    9.8980    4.2634    0.0000 H   0  0  0  0  0  0  0  0  0  0  0  0
    8.2286    2.4093    0.0000 H   0  0  0  0  0  0  0  0  0  0  0  0
    8.2359    4.6396    0.0000 H   0  0  0  0  0  0  0  0  0  0  0  0
    7.6807    4.0230    0.0000 H   0  0  0  0  0  0  0  0  0  0  0  0
   10.1937    2.9041    0.0000 H   0  0  0  0  0  0  0  0  0  0  0  0
   10.2804    3.7293    0.0000 H   0  0  0  0  0  0  0  0  0  0  0  0
    6.4641    3.6485    0.0000 H   0  0  0  0  0  0  0  0  0  0  0  0
   11.0445    4.7474    0.0000 H   0  0  0  0  0  0  0  0  0  0  0  0
    8.4812    5.8886    0.0000 H   0  0  0  0  0  0  0  0  0  0  0  0
    5.5981    3.1485    0.0000 H   0  0  0  0  0  0  0  0  0  0  0  0
   11.7034    6.2273    0.0000 H   0  0  0  0  0  0  0  0  0  0  0  0
    9.1401    7.3686    0.0000 H   0  0  0  0  0  0  0  0  0  0  0  0
    4.1215    3.1361    0.0000 H   0  0  0  0  0  0  0  0  0  0  0  0
    4.5200    2.4459    0.0000 H   0  0  0  0  0  0  0  0  0  0  0  0
    9.8570    0.3348    0.0000 H   0  0  0  0  0  0  0  0  0  0  0  0
   10.3903   -0.2576    0.0000 H   0  0  0  0  0  0  0  0  0  0  0  0
   10.7512    7.5379    0.0000 H   0  0  0  0  0  0  0  0  0  0  0  0
    4.7320    4.6485    0.0000 H   0  0  0  0  0  0  0  0  0  0  0  0
    4.1951    1.3385    0.0000 H   0  0  0  0  0  0  0  0  0  0  0  0
    4.9441   -0.5541    0.0000 H   0  0  0  0  0  0  0  0  0  0  0  0
    5.3426    0.1361    0.0000 H   0  0  0  0  0  0  0  0  0  0  0  0
   11.1748   -1.3456    0.0000 H   0  0  0  0  0  0  0  0  0  0  0  0
    3.6540    0.1111    0.0000 H   0  0  0  0  0  0  0  0  0  0  0  0
    3.2554   -0.5792    0.0000 H   0  0  0  0  0  0  0  0  0  0  0  0
   11.6343    2.2205    0.0000 H   0  0  0  0  0  0  0  0  0  0  0  0
   11.3880    1.4624    0.0000 H   0  0  0  0  0  0  0  0  0  0  0  0
   13.5826    0.8224    0.0000 H   0  0  0  0  0  0  0  0  0  0  0  0
   12.7155   -1.8462    0.0000 H   0  0  0  0  0  0  0  0  0  0  0  0
   13.9194   -0.7622    0.0000 H   0  0  0  0  0  0  0  0  0  0  0  0
    5.2690   -3.2815    0.0000 H   0  0  0  0  0  0  0  0  0  0  0  0
    2.4631   -3.2815    0.0000 H   0  0  0  0  0  0  0  0  0  0  0  0
    2.3800   -6.9715    0.0000 H   0  0  0  0  0  0  0  0  0  0  0  0
    3.0000   -7.5915    0.0000 H   0  0  0  0  0  0  0  0  0  0  0  0
    3.6200   -6.9715    0.0000 H   0  0  0  0  0  0  0  0  0  0  0  0
    2.0000   -5.3515    0.0000 H   0  0  0  0  0  0  0  0  0  0  0  0
    1.3800   -5.9715    0.0000 H   0  0  0  0  0  0  0  0  0  0  0  0
    2.0000   -6.5915    0.0000 H   0  0  0  0  0  0  0  0  0  0  0  0
    4.0000   -6.5915    0.0000 H   0  0  0  0  0  0  0  0  0  0  0  0
    4.6200   -5.9715    0.0000 H   0  0  0  0  0  0  0  0  0  0  0  0
    4.0000   -5.3515    0.0000 H   0  0  0  0  0  0  0  0  0  0  0  0
   14.1178    2.4696    0.0000 H   0  0  0  0  0  0  0  0  0  0  0  0
  1 34  1  0  0  0  0
  2 34  1  0  0  0  0
  3 45  1  0  0  0  0
  4 46  1  0  0  0  0
  5 21  2  0  0  0  0
  6 22  2  0  0  0  0
  7 26  2  0  0  0  0
  8 32  2  0  0  0  0
  9 50  1  0  0  0  0
  9 51  1  0  0  0  0
 10 44  1  0  0  0  0
 10 95  1  0  0  0  0
 11 44  2  0  0  0  0
 12 51  2  0  0  0  0
 13 17  1  0  0  0  0
 13 19  1  0  0  0  0
 13 22  1  0  0  0  0
 14 21  1  0  0  0  0
 25 14  1  6  0  0  0
 14 61  1  0  0  0  0
 15 32  1  0  0  0  0
 15 36  1  0  0  0  0
 15 73  1  0  0  0  0
 16 18  1  0  0  0  0
 16 19  1  0  0  0  0
 16 20  1  1  0  0  0
 16 55  1  0  0  0  0
 17 18  1  0  0  0  0
 17 21  1  0  0  0  0
 17 56  1  0  0  0  0
 18 57  1  0  0  0  0
 18 58  1  0  0  0  0
 19 59  1  0  0  0  0
 19 60  1  0  0  0  0
 20 23  2  0  0  0  0
 20 24  1  0  0  0  0
 22 26  1  0  0  0  0
 23 27  1  0  0  0  0
 23 62  1  0  0  0  0
 24 28  2  0  0  0  0
 24 63  1  0  0  0  0
 25 29  1  0  0  0  0
 25 32  1  0  0  0  0
 25 64  1  0  0  0  0
 26 30  1  0  0  0  0
 27 31  2  0  0  0  0
 27 65  1  0  0  0  0
 28 31  1  0  0  0  0
 28 66  1  0  0  0  0
 29 34  1  0  0  0  0
 29 67  1  0  0  0  0
 29 68  1  0  0  0  0
 30 33  1  0  0  0  0
 30 69  1  0  0  0  0
 30 70  1  0  0  0  0
 31 71  1  0  0  0  0
 33 35  1  0  0  0  0
 33 37  2  0  0  0  0
 34 72  1  0  0  0  0
 35 39  1  0  0  0  0
 35 40  2  0  0  0  0
 36 38  1  0  0  0  0
 36 74  1  0  0  0  0
 36 75  1  0  0  0  0
 37 41  1  0  0  0  0
 37 76  1  0  0  0  0
 38 43  1  0  0  0  0
 38 77  1  0  0  0  0
 38 78  1  0  0  0  0
 39 44  1  0  0  0  0
 39 79  1  0  0  0  0
 39 80  1  0  0  0  0
 40 42  1  0  0  0  0
 40 81  1  0  0  0  0
 41 42  2  0  0  0  0
 41 82  1  0  0  0  0
 42 83  1  0  0  0  0
 43 45  2  0  0  0  0
 43 46  1  0  0  0  0
 45 48  1  0  0  0  0
 46 49  2  0  0  0  0
 47 48  2  0  0  0  0
 47 49  1  0  0  0  0
 47 51  1  0  0  0  0
 48 84  1  0  0  0  0
 49 85  1  0  0  0  0
 50 52  1  0  0  0  0
 50 53  1  0  0  0  0
 50 54  1  0  0  0  0
 52 86  1  0  0  0  0
 52 87  1  0  0  0  0
 52 88  1  0  0  0  0
 53 89  1  0  0  0  0
 53 90  1  0  0  0  0
 53 91  1  0  0  0  0
 54 92  1  0  0  0  0
 54 93  1  0  0  0  0
 54 94  1  0  0  0  0
M  END
> <PUBCHEM_COMPOUND_CID>
507673
> <PUBCHEM_COMPOUND_CANONICALIZED>
1
> <PUBCHEM_CACTVS_COMPLEXITY>
1330
> <PUBCHEM_CACTVS_HBOND_ACCEPTOR>
12
> <PUBCHEM_CACTVS_HBOND_DONOR>
3
> <PUBCHEM_CACTVS_ROTATABLE_BOND>
17
> <PUBCHEM_CACTVS_SUBSKEYS>
AAADcfB/PcAAAAAAAAAAAAAAAAAAAWAAAAAwYMAAAAAAAAABUAAAHwAQCAAADWzBmBwyCIPABgCIAqHSGAACAAAkAAAIiIGICMgIZjKAtTmWcQAk1gGIqYeYyfCOwAAAAAAQAACAAAAAACAAAAAAAAAAAA==
> <PUBCHEM_IUPAC_OPENEYE_NAME>
2-[2-[3-[(4S)-2-[[(1S)-1-[2-(4-tert-butoxycarbonyl-2,6-difluoro-phenyl)ethylcarbamoyl]-3,3-difluoro-propyl]carbamoyl]-4-phenyl-pyrrolidin-1-yl]-2,3-dioxo-propyl]phenyl]acetic acid
> <PUBCHEM_IUPAC_CAS_NAME>
2-[2-[3-[(4S)-2-[[[(2S)-1-[2-[2,6-difluoro-4-[(2-methylpropan-2-yl)oxy-oxomethyl]phenyl]ethylamino]-4,4-difluoro-1-oxobutan-2-yl]amino]-oxomethyl]-4-phenyl-1-pyrrolidinyl]-2,3-dioxopropyl]phenyl]acetic acid
> <PUBCHEM_IUPAC_NAME_MARKUP>
2-[2-[3-[(4<I>S</I>)-2-[[(2<I>S</I>)-1-[2-[2,6-difluoro-4-[(2-methylpropan-2-yl)oxycarbonyl]phenyl]ethylamino]-4,4-difluoro-1-oxobutan-2-yl]carbamoyl]-4-phenylpyrrolidin-1-yl]-2,3-dioxopropyl]phenyl]acetic acid
> <PUBCHEM_IUPAC_NAME>
2-[2-[3-[(4S)-2-[[(2S)-1-[2-[2,6-difluoro-4-[(2-methylpropan-2-yl)oxycarbonyl]phenyl]ethylamino]-4,4-difluoro-1-oxobutan-2-yl]carbamoyl]-4-phenylpyrrolidin-1-yl]-2,3-dioxopropyl]phenyl]acetic acid
> <PUBCHEM_IUPAC_SYSTEMATIC_NAME>
2-[2-[3-[(4S)-2-[[(2S)-1-[2-[2,6-bis(fluoranyl)-4-[(2-methylpropan-2-yl)oxycarbonyl]phenyl]ethylamino]-4,4-bis(fluoranyl)-1-oxidanylidene-butan-2-yl]carbamoyl]-4-phenyl-pyrrolidin-1-yl]-2,3-bis(oxidanylidene)propyl]phenyl]ethanoic acid
> <PUBCHEM_IUPAC_TRADITIONAL_NAME>
2-[2-[3-[(4S)-2-[[(1S)-1-[2-(4-tert-butoxycarbonyl-2,6-difluoro-phenyl)ethylcarbamoyl]-3,3-difluoro-propyl]carbamoyl]-4-phenyl-pyrrolidino]-2,3-diketo-propyl]phenyl]acetic acid
> <PUBCHEM_IUPAC_INCHI>
InChI=1S/C39H41F4N3O8/c1-39(2,3)54-38(53)25-15-28(40)27(29(41)16-25)13-14-44-35(50)30(20-33(42)43)45-36(51)31-17-26(22-9-5-4-6-10-22)21-46(31)37(52)32(47)18-23-11-7-8-12-24(23)19-34(48)49/h4-12,15-16,26,30-31,33H,13-14,17-21H2,1-3H3,(H,44,50)(H,45,51)(H,48,49)/t26-,30+,31?/m1/s1
> <PUBCHEM_IUPAC_INCHIKEY>
GWNVVANPSZSQKC-LJINOMNQSA-N
> <PUBCHEM_XLOGP3_AA>
5.5
> <PUBCHEM_EXACT_MASS>
755.28297792
> <PUBCHEM_MOLECULAR_FORMULA>
C39H41F4N3O8
> <PUBCHEM_MOLECULAR_WEIGHT>
755.7
> <PUBCHEM_OPENEYE_CAN_SMILES>
CC(C)(C)OC(=O)C1=CC(=C(C(=C1)F)CCNC(=O)C(CC(F)F)NC(=O)C2CC(CN2C(=O)C(=O)CC3=CC=CC=C3CC(=O)O)C4=CC=CC=C4)F
> <PUBCHEM_OPENEYE_ISO_SMILES>
CC(C)(C)OC(=O)C1=CC(=C(C(=C1)F)CCNC(=O)[C@H](CC(F)F)NC(=O)C2C[C@H](CN2C(=O)C(=O)CC3=CC=CC=C3CC(=O)O)C4=CC=CC=C4)F
> <PUBCHEM_CACTVS_TPSA>
159
> <PUBCHEM_MONOISOTOPIC_WEIGHT>
755.28297792
> <PUBCHEM_TOTAL_CHARGE>
0
> <PUBCHEM_HEAVY_ATOM_COUNT>
54
> <PUBCHEM_ATOM_DEF_STEREO_COUNT>
2
> <PUBCHEM_ATOM_UDEF_STEREO_COUNT>
1
> <PUBCHEM_BOND_DEF_STEREO_COUNT>
0
> <PUBCHEM_BOND_UDEF_STEREO_COUNT>
0
> <PUBCHEM_ISOTOPIC_ATOM_COUNT>
0
> <PUBCHEM_COMPONENT_COUNT>
1
> <PUBCHEM_CACTVS_TAUTO_COUNT>
-1
> <PUBCHEM_COORDINATE_TYPE>
1
5
255
> <PUBCHEM_BONDANNOTATIONS>
25  14  6
16  20  5
17  21  3
20  23  8
20  24  8
23  27  8
24  28  8
27  31  8
28  31  8
33  35  8
33  37  8
35  40  8
37  41  8
40  42  8
41  42  8
43  45  8
43  46  8
45  48  8
46  49  8
47  48  8
47  49  8
$$$$
