507677
  -OEChem-10302200282D
 77 80  0     1  0  0  0  0  0999 V2000
    8.0034   -4.2987    0.0000 F   0  0  0  0  0  0  0  0  0  0  0  0
    9.7354   -4.2987    0.0000 F   0  0  0  0  0  0  0  0  0  0  0  0
   11.4675    1.7013    0.0000 F   0  0  0  0  0  0  0  0  0  0  0  0
    8.0034    1.7013    0.0000 F   0  0  0  0  0  0  0  0  0  0  0  0
    6.2713   -1.2987    0.0000 O   0  0  0  0  0  0  0  0  0  0  0  0
    5.0270   -0.7447    0.0000 O   0  0  0  0  0  0  0  0  0  0  0  0
    2.5896   -1.7739    0.0000 O   0  0  0  0  0  0  0  0  0  0  0  0
    7.1374   -0.7987    0.0000 O   0  0  0  0  0  0  0  0  0  0  0  0
    4.4918   -2.3919    0.0000 N   0  0  0  0  0  0  0  0  0  0  0  0
    7.1374   -2.7987    0.0000 N   0  0  0  0  0  0  0  0  0  0  0  0
    8.8694   -0.7987    0.0000 N   0  0  0  0  0  0  0  0  0  0  0  0
    8.9264    5.2891    0.0000 N   0  0  0  0  0  0  0  0  0  0  0  0
   10.5445    5.2891    0.0000 N   0  0  0  0  0  0  0  0  0  0  0  0
    9.2354    6.2402    0.0000 N   0  0  0  0  0  0  0  0  0  0  0  0
   10.2354    6.2402    0.0000 N   0  0  0  0  0  0  0  0  0  0  0  0
    4.3226   -4.0011    0.0000 C   0  0  2  0  0  0  0  0  0  0  0  0
    5.4053   -2.7987    0.0000 C   0  0  3  0  0  0  0  0  0  0  0  0
    5.3008   -3.7932    0.0000 C   0  0  0  0  0  0  0  0  0  0  0  0
    3.8226   -3.1351    0.0000 C   0  0  0  0  0  0  0  0  0  0  0  0
    3.9159   -4.9147    0.0000 C   0  0  0  0  0  0  0  0  0  0  0  0
    6.2713   -2.2987    0.0000 C   0  0  0  0  0  0  0  0  0  0  0  0
    4.2839   -1.4138    0.0000 C   0  0  0  0  0  0  0  0  0  0  0  0
    3.3328   -1.1048    0.0000 C   0  0  2  0  0  0  0  0  0  0  0  0
    3.1249   -0.1266    0.0000 C   0  0  0  0  0  0  0  0  0  0  0  0
    2.9214   -5.0192    0.0000 C   0  0  0  0  0  0  0  0  0  0  0  0
    4.5037   -5.7237    0.0000 C   0  0  0  0  0  0  0  0  0  0  0  0
    8.0034   -2.2987    0.0000 C   0  0  1  0  0  0  0  0  0  0  0  0
    2.5146   -5.9327    0.0000 C   0  0  0  0  0  0  0  0  0  0  0  0
    4.0970   -6.6372    0.0000 C   0  0  0  0  0  0  0  0  0  0  0  0
    2.1738    0.1824    0.0000 C   0  0  0  0  0  0  0  0  0  0  0  0
    3.8680    0.5425    0.0000 C   0  0  0  0  0  0  0  0  0  0  0  0
    8.8694   -2.7987    0.0000 C   0  0  0  0  0  0  0  0  0  0  0  0
    3.1024   -6.7418    0.0000 C   0  0  0  0  0  0  0  0  0  0  0  0
    8.0034   -1.2987    0.0000 C   0  0  0  0  0  0  0  0  0  0  0  0
    8.8694   -3.7987    0.0000 C   0  0  0  0  0  0  0  0  0  0  0  0
    8.8694    0.2013    0.0000 C   0  0  0  0  0  0  0  0  0  0  0  0
    9.7354    0.7013    0.0000 C   0  0  0  0  0  0  0  0  0  0  0  0
    9.7354    1.7013    0.0000 C   0  0  0  0  0  0  0  0  0  0  0  0
   10.6015    2.2013    0.0000 C   0  0  0  0  0  0  0  0  0  0  0  0
    8.8694    2.2013    0.0000 C   0  0  0  0  0  0  0  0  0  0  0  0
   10.6015    3.2013    0.0000 C   0  0  0  0  0  0  0  0  0  0  0  0
    8.8694    3.2013    0.0000 C   0  0  0  0  0  0  0  0  0  0  0  0
    9.7354    3.7013    0.0000 C   0  0  0  0  0  0  0  0  0  0  0  0
    9.7354    4.7013    0.0000 C   0  0  0  0  0  0  0  0  0  0  0  0
    4.7128   -4.4830    0.0000 H   0  0  0  0  0  0  0  0  0  0  0  0
    5.3729   -2.1795    0.0000 H   0  0  0  0  0  0  0  0  0  0  0  0
    5.3656   -4.4098    0.0000 H   0  0  0  0  0  0  0  0  0  0  0  0
    5.9208   -3.7932    0.0000 H   0  0  0  0  0  0  0  0  0  0  0  0
    3.4078   -2.6743    0.0000 H   0  0  0  0  0  0  0  0  0  0  0  0
    3.3210   -3.4995    0.0000 H   0  0  0  0  0  0  0  0  0  0  0  0
    3.4617   -1.7112    0.0000 H   0  0  0  0  0  0  0  0  0  0  0  0
    2.6641   -0.5415    0.0000 H   0  0  0  0  0  0  0  0  0  0  0  0
    7.1374   -3.4187    0.0000 H   0  0  0  0  0  0  0  0  0  0  0  0
    2.5570   -4.5176    0.0000 H   0  0  0  0  0  0  0  0  0  0  0  0
    5.1203   -5.6589    0.0000 H   0  0  0  0  0  0  0  0  0  0  0  0
    7.4664   -1.9887    0.0000 H   0  0  0  0  0  0  0  0  0  0  0  0
    1.8980   -5.9975    0.0000 H   0  0  0  0  0  0  0  0  0  0  0  0
    4.4614   -7.1388    0.0000 H   0  0  0  0  0  0  0  0  0  0  0  0
    2.3654    0.7720    0.0000 H   0  0  0  0  0  0  0  0  0  0  0  0
    1.5842    0.3740    0.0000 H   0  0  0  0  0  0  0  0  0  0  0  0
    1.9822   -0.4073    0.0000 H   0  0  0  0  0  0  0  0  0  0  0  0
    4.2829    0.0817    0.0000 H   0  0  0  0  0  0  0  0  0  0  0  0
    4.3288    0.9574    0.0000 H   0  0  0  0  0  0  0  0  0  0  0  0
    3.4532    1.0032    0.0000 H   0  0  0  0  0  0  0  0  0  0  0  0
    9.4800   -2.9063    0.0000 H   0  0  0  0  0  0  0  0  0  0  0  0
    9.0815   -2.2161    0.0000 H   0  0  0  0  0  0  0  0  0  0  0  0
    2.0000   -1.5823    0.0000 H   0  0  0  0  0  0  0  0  0  0  0  0
    2.8502   -7.3082    0.0000 H   0  0  0  0  0  0  0  0  0  0  0  0
    9.4064   -3.4887    0.0000 H   0  0  0  0  0  0  0  0  0  0  0  0
    9.4064   -1.1087    0.0000 H   0  0  0  0  0  0  0  0  0  0  0  0
    8.6574    0.7839    0.0000 H   0  0  0  0  0  0  0  0  0  0  0  0
    8.2588    0.0937    0.0000 H   0  0  0  0  0  0  0  0  0  0  0  0
    9.9475    0.1187    0.0000 H   0  0  0  0  0  0  0  0  0  0  0  0
   10.3460    0.8090    0.0000 H   0  0  0  0  0  0  0  0  0  0  0  0
   11.1384    3.5113    0.0000 H   0  0  0  0  0  0  0  0  0  0  0  0
    8.3325    3.5113    0.0000 H   0  0  0  0  0  0  0  0  0  0  0  0
    8.8710    6.7418    0.0000 H   0  0  0  0  0  0  0  0  0  0  0  0
  1 35  1  0  0  0  0
  2 35  1  0  0  0  0
  3 39  1  0  0  0  0
  4 40  1  0  0  0  0
  5 21  2  0  0  0  0
  6 22  2  0  0  0  0
 23  7  1  1  0  0  0
  7 67  1  0  0  0  0
  8 34  2  0  0  0  0
  9 17  1  0  0  0  0
  9 19  1  0  0  0  0
  9 22  1  0  0  0  0
 10 21  1  0  0  0  0
 27 10  1  6  0  0  0
 10 53  1  0  0  0  0
 11 34  1  0  0  0  0
 11 36  1  0  0  0  0
 11 70  1  0  0  0  0
 12 14  1  0  0  0  0
 12 44  2  0  0  0  0
 13 15  2  0  0  0  0
 13 44  1  0  0  0  0
 14 15  1  0  0  0  0
 14 77  1  0  0  0  0
 16 18  1  0  0  0  0
 16 19  1  0  0  0  0
 16 20  1  1  0  0  0
 16 45  1  0  0  0  0
 17 18  1  0  0  0  0
 17 21  1  0  0  0  0
 17 46  1  0  0  0  0
 18 47  1  0  0  0  0
 18 48  1  0  0  0  0
 19 49  1  0  0  0  0
 19 50  1  0  0  0  0
 20 25  2  0  0  0  0
 20 26  1  0  0  0  0
 22 23  1  0  0  0  0
 23 24  1  0  0  0  0
 23 51  1  0  0  0  0
 24 30  1  0  0  0  0
 24 31  1  0  0  0  0
 24 52  1  0  0  0  0
 25 28  1  0  0  0  0
 25 54  1  0  0  0  0
 26 29  2  0  0  0  0
 26 55  1  0  0  0  0
 27 32  1  0  0  0  0
 27 34  1  0  0  0  0
 27 56  1  0  0  0  0
 28 33  2  0  0  0  0
 28 57  1  0  0  0  0
 29 33  1  0  0  0  0
 29 58  1  0  0  0  0
 30 59  1  0  0  0  0
 30 60  1  0  0  0  0
 30 61  1  0  0  0  0
 31 62  1  0  0  0  0
 31 63  1  0  0  0  0
 31 64  1  0  0  0  0
 32 35  1  0  0  0  0
 32 65  1  0  0  0  0
 32 66  1  0  0  0  0
 33 68  1  0  0  0  0
 35 69  1  0  0  0  0
 36 37  1  0  0  0  0
 36 71  1  0  0  0  0
 36 72  1  0  0  0  0
 37 38  1  0  0  0  0
 37 73  1  0  0  0  0
 37 74  1  0  0  0  0
 38 39  2  0  0  0  0
 38 40  1  0  0  0  0
 39 41  1  0  0  0  0
 40 42  2  0  0  0  0
 41 43  2  0  0  0  0
 41 75  1  0  0  0  0
 42 43  1  0  0  0  0
 42 76  1  0  0  0  0
 43 44  1  0  0  0  0
M  END
> <PUBCHEM_COMPOUND_CID>
507677
> <PUBCHEM_COMPOUND_CANONICALIZED>
1
> <PUBCHEM_CACTVS_COMPLEXITY>
964
> <PUBCHEM_CACTVS_HBOND_ACCEPTOR>
11
> <PUBCHEM_CACTVS_HBOND_DONOR>
4
> <PUBCHEM_CACTVS_ROTATABLE_BOND>
12
> <PUBCHEM_CACTVS_SUBSKEYS>
AAADcfB7ucAAAAAAAAAAAAAAAAAAAWLAAAAwYAAAAAAAAAAB0AAAHwAYCAAADTzhmx4zEIfCAgCqAiNyMAKCAAIgAAAcqKHoBJgKcLKAkTGUYABglgCYiAcYicCOwAAAAAAAAACAAAAAAAAAAAAAAAAAAA==
> <PUBCHEM_IUPAC_OPENEYE_NAME>
(4S)-N-[(1S)-1-[2-[2,6-difluoro-4-(2H-tetrazol-5-yl)phenyl]ethylcarbamoyl]-3,3-difluoro-propyl]-1-[(2S)-2-hydroxy-3-methyl-butanoyl]-4-phenyl-pyrrolidine-2-carboxamide
> <PUBCHEM_IUPAC_CAS_NAME>
(4S)-N-[(2S)-1-[2-[2,6-difluoro-4-(2H-tetrazol-5-yl)phenyl]ethylamino]-4,4-difluoro-1-oxobutan-2-yl]-1-[(2S)-2-hydroxy-3-methyl-1-oxobutyl]-4-phenyl-2-pyrrolidinecarboxamide
> <PUBCHEM_IUPAC_NAME_MARKUP>
(4<I>S</I>)-<I>N</I>-[(2<I>S</I>)-1-[2-[2,6-difluoro-4-(2<I>H</I>-tetrazol-5-yl)phenyl]ethylamino]-4,4-difluoro-1-oxobutan-2-yl]-1-[(2<I>S</I>)-2-hydroxy-3-methylbutanoyl]-4-phenylpyrrolidine-2-carboxamide
> <PUBCHEM_IUPAC_NAME>
(4S)-N-[(2S)-1-[2-[2,6-difluoro-4-(2H-tetrazol-5-yl)phenyl]ethylamino]-4,4-difluoro-1-oxobutan-2-yl]-1-[(2S)-2-hydroxy-3-methylbutanoyl]-4-phenylpyrrolidine-2-carboxamide
> <PUBCHEM_IUPAC_SYSTEMATIC_NAME>
(4S)-N-[(2S)-1-[2-[2,6-bis(fluoranyl)-4-(2H-1,2,3,4-tetrazol-5-yl)phenyl]ethylamino]-4,4-bis(fluoranyl)-1-oxidanylidene-butan-2-yl]-1-[(2S)-3-methyl-2-oxidanyl-butanoyl]-4-phenyl-pyrrolidine-2-carboxamide
> <PUBCHEM_IUPAC_TRADITIONAL_NAME>
(4S)-N-[(1S)-1-[2-[2,6-difluoro-4-(2H-tetrazol-5-yl)phenyl]ethylcarbamoyl]-3,3-difluoro-propyl]-1-[(2S)-2-hydroxy-3-methyl-butanoyl]-4-phenyl-pyrrolidine-2-carboxamide
> <PUBCHEM_IUPAC_INCHI>
InChI=1S/C29H33F4N7O4/c1-15(2)25(41)29(44)40-14-18(16-6-4-3-5-7-16)12-23(40)28(43)35-22(13-24(32)33)27(42)34-9-8-19-20(30)10-17(11-21(19)31)26-36-38-39-37-26/h3-7,10-11,15,18,22-25,41H,8-9,12-14H2,1-2H3,(H,34,42)(H,35,43)(H,36,37,38,39)/t18-,22+,23?,25+/m1/s1
> <PUBCHEM_IUPAC_INCHIKEY>
VUMYCVLUMPJGGR-URVYHALTSA-N
> <PUBCHEM_XLOGP3_AA>
3.7
> <PUBCHEM_EXACT_MASS>
619.25301521
> <PUBCHEM_MOLECULAR_FORMULA>
C29H33F4N7O4
> <PUBCHEM_MOLECULAR_WEIGHT>
619.6
> <PUBCHEM_OPENEYE_CAN_SMILES>
CC(C)C(C(=O)N1CC(CC1C(=O)NC(CC(F)F)C(=O)NCCC2=C(C=C(C=C2F)C3=NNN=N3)F)C4=CC=CC=C4)O
> <PUBCHEM_OPENEYE_ISO_SMILES>
CC(C)[C@@H](C(=O)N1C[C@@H](CC1C(=O)N[C@@H](CC(F)F)C(=O)NCCC2=C(C=C(C=C2F)C3=NNN=N3)F)C4=CC=CC=C4)O
> <PUBCHEM_CACTVS_TPSA>
153
> <PUBCHEM_MONOISOTOPIC_WEIGHT>
619.25301521
> <PUBCHEM_TOTAL_CHARGE>
0
> <PUBCHEM_HEAVY_ATOM_COUNT>
44
> <PUBCHEM_ATOM_DEF_STEREO_COUNT>
3
> <PUBCHEM_ATOM_UDEF_STEREO_COUNT>
1
> <PUBCHEM_BOND_DEF_STEREO_COUNT>
0
> <PUBCHEM_BOND_UDEF_STEREO_COUNT>
0
> <PUBCHEM_ISOTOPIC_ATOM_COUNT>
0
> <PUBCHEM_COMPONENT_COUNT>
1
> <PUBCHEM_CACTVS_TAUTO_COUNT>
-1
> <PUBCHEM_COORDINATE_TYPE>
1
5
255
> <PUBCHEM_BONDANNOTATIONS>
27  10  6
12  14  8
12  44  8
13  15  8
13  44  8
14  15  8
16  20  5
17  21  3
20  25  8
20  26  8
25  28  8
26  29  8
28  33  8
29  33  8
38  39  8
38  40  8
39  41  8
40  42  8
41  43  8
42  43  8
23  7  5
$$$$
