507680
  -OEChem-10302200282D
 85 87  0     1  0  0  0  0  0999 V2000
    5.4641    2.8204    0.0000 F   0  0  0  0  0  0  0  0  0  0  0  0
    3.7320    2.8204    0.0000 F   0  0  0  0  0  0  0  0  0  0  0  0
    2.0000   -3.1796    0.0000 F   0  0  0  0  0  0  0  0  0  0  0  0
    5.4641   -3.1796    0.0000 F   0  0  0  0  0  0  0  0  0  0  0  0
    9.5516    3.4364    0.0000 O   0  0  0  0  0  0  0  0  0  0  0  0
    7.1962   -0.1796    0.0000 O   0  0  0  0  0  0  0  0  0  0  0  0
    8.4405   -0.7336    0.0000 O   0  0  0  0  0  0  0  0  0  0  0  0
   10.8778    0.2956    0.0000 O   0  0  0  0  0  0  0  0  0  0  0  0
    6.3301   -0.6796    0.0000 O   0  0  0  0  0  0  0  0  0  0  0  0
    2.8660   -6.6796    0.0000 O   0  0  0  0  0  0  0  0  0  0  0  0
    4.5981   -6.6796    0.0000 O   0  0  0  0  0  0  0  0  0  0  0  0
    8.9757    0.9137    0.0000 N   0  0  0  0  0  0  0  0  0  0  0  0
    6.3301    1.3204    0.0000 N   0  0  0  0  0  0  0  0  0  0  0  0
    4.5981   -0.6796    0.0000 N   0  0  0  0  0  0  0  0  0  0  0  0
    8.0622    1.3204    0.0000 C   0  0  3  0  0  0  0  0  0  0  0  0
    9.1448    2.5228    0.0000 C   0  0  2  0  0  0  0  0  0  0  0  0
    8.1667    2.3149    0.0000 C   0  0  0  0  0  0  0  0  0  0  0  0
    9.6448    1.6568    0.0000 C   0  0  0  0  0  0  0  0  0  0  0  0
    7.1962    0.8204    0.0000 C   0  0  0  0  0  0  0  0  0  0  0  0
    9.1836   -0.0645    0.0000 C   0  0  0  0  0  0  0  0  0  0  0  0
   10.1347   -0.3735    0.0000 C   0  0  2  0  0  0  0  0  0  0  0  0
   10.3426   -1.3517    0.0000 C   0  0  0  0  0  0  0  0  0  0  0  0
   10.5461    3.5409    0.0000 C   0  0  0  0  0  0  0  0  0  0  0  0
    5.4641    0.8204    0.0000 C   0  0  1  0  0  0  0  0  0  0  0  0
   10.9528    4.4544    0.0000 C   0  0  0  0  0  0  0  0  0  0  0  0
   11.2937   -1.6607    0.0000 C   0  0  0  0  0  0  0  0  0  0  0  0
    9.5995   -2.0208    0.0000 C   0  0  0  0  0  0  0  0  0  0  0  0
    4.5981    1.3204    0.0000 C   0  0  0  0  0  0  0  0  0  0  0  0
   11.9474    4.5590    0.0000 C   0  0  0  0  0  0  0  0  0  0  0  0
    5.4641   -0.1796    0.0000 C   0  0  0  0  0  0  0  0  0  0  0  0
    4.5981    2.3204    0.0000 C   0  0  0  0  0  0  0  0  0  0  0  0
   12.3541    5.4725    0.0000 C   0  0  0  0  0  0  0  0  0  0  0  0
    4.5981   -1.6796    0.0000 C   0  0  0  0  0  0  0  0  0  0  0  0
   13.3486    5.5770    0.0000 C   0  0  0  0  0  0  0  0  0  0  0  0
   11.7663    6.2815    0.0000 C   0  0  0  0  0  0  0  0  0  0  0  0
    3.7320   -2.1796    0.0000 C   0  0  0  0  0  0  0  0  0  0  0  0
    3.7320   -3.1796    0.0000 C   0  0  0  0  0  0  0  0  0  0  0  0
   13.7554    6.4906    0.0000 C   0  0  0  0  0  0  0  0  0  0  0  0
   12.1731    7.1951    0.0000 C   0  0  0  0  0  0  0  0  0  0  0  0
   13.1676    7.2996    0.0000 C   0  0  0  0  0  0  0  0  0  0  0  0
    2.8660   -3.6796    0.0000 C   0  0  0  0  0  0  0  0  0  0  0  0
    4.5981   -3.6796    0.0000 C   0  0  0  0  0  0  0  0  0  0  0  0
    2.8660   -4.6796    0.0000 C   0  0  0  0  0  0  0  0  0  0  0  0
    4.5981   -4.6796    0.0000 C   0  0  0  0  0  0  0  0  0  0  0  0
    3.7320   -5.1796    0.0000 C   0  0  0  0  0  0  0  0  0  0  0  0
    3.7320   -6.1796    0.0000 C   0  0  0  0  0  0  0  0  0  0  0  0
    8.0946    0.7012    0.0000 H   0  0  0  0  0  0  0  0  0  0  0  0
    8.7547    3.0047    0.0000 H   0  0  0  0  0  0  0  0  0  0  0  0
    8.1019    2.9315    0.0000 H   0  0  0  0  0  0  0  0  0  0  0  0
    7.5467    2.3149    0.0000 H   0  0  0  0  0  0  0  0  0  0  0  0
   10.0597    1.1960    0.0000 H   0  0  0  0  0  0  0  0  0  0  0  0
   10.1464    2.0212    0.0000 H   0  0  0  0  0  0  0  0  0  0  0  0
   10.7243   -0.5651    0.0000 H   0  0  0  0  0  0  0  0  0  0  0  0
    9.7530   -1.1601    0.0000 H   0  0  0  0  0  0  0  0  0  0  0  0
    6.3301    1.9404    0.0000 H   0  0  0  0  0  0  0  0  0  0  0  0
   10.5029    2.9224    0.0000 H   0  0  0  0  0  0  0  0  0  0  0  0
   11.1477    3.3909    0.0000 H   0  0  0  0  0  0  0  0  0  0  0  0
    5.4641    1.4404    0.0000 H   0  0  0  0  0  0  0  0  0  0  0  0
   10.9961    5.0729    0.0000 H   0  0  0  0  0  0  0  0  0  0  0  0
   10.3513    4.6044    0.0000 H   0  0  0  0  0  0  0  0  0  0  0  0
   11.1021   -2.2503    0.0000 H   0  0  0  0  0  0  0  0  0  0  0  0
   11.8833   -1.8523    0.0000 H   0  0  0  0  0  0  0  0  0  0  0  0
   11.4853   -1.0710    0.0000 H   0  0  0  0  0  0  0  0  0  0  0  0
    9.1846   -1.5600    0.0000 H   0  0  0  0  0  0  0  0  0  0  0  0
    9.1387   -2.4356    0.0000 H   0  0  0  0  0  0  0  0  0  0  0  0
   10.0143   -2.4815    0.0000 H   0  0  0  0  0  0  0  0  0  0  0  0
    3.9875    1.4280    0.0000 H   0  0  0  0  0  0  0  0  0  0  0  0
    4.3860    0.7378    0.0000 H   0  0  0  0  0  0  0  0  0  0  0  0
   11.4675    0.1040    0.0000 H   0  0  0  0  0  0  0  0  0  0  0  0
   11.9041    3.9405    0.0000 H   0  0  0  0  0  0  0  0  0  0  0  0
   12.5490    4.4090    0.0000 H   0  0  0  0  0  0  0  0  0  0  0  0
    4.5981    2.9404    0.0000 H   0  0  0  0  0  0  0  0  0  0  0  0
    4.0611   -0.3696    0.0000 H   0  0  0  0  0  0  0  0  0  0  0  0
    4.8101   -2.2622    0.0000 H   0  0  0  0  0  0  0  0  0  0  0  0
    5.2087   -1.5720    0.0000 H   0  0  0  0  0  0  0  0  0  0  0  0
   13.7131    5.0755    0.0000 H   0  0  0  0  0  0  0  0  0  0  0  0
   11.1497    6.2167    0.0000 H   0  0  0  0  0  0  0  0  0  0  0  0
    3.5200   -1.5970    0.0000 H   0  0  0  0  0  0  0  0  0  0  0  0
    3.1215   -2.2873    0.0000 H   0  0  0  0  0  0  0  0  0  0  0  0
   14.3720    6.5554    0.0000 H   0  0  0  0  0  0  0  0  0  0  0  0
   11.8086    7.6967    0.0000 H   0  0  0  0  0  0  0  0  0  0  0  0
   13.4198    7.8660    0.0000 H   0  0  0  0  0  0  0  0  0  0  0  0
    2.3291   -4.9896    0.0000 H   0  0  0  0  0  0  0  0  0  0  0  0
    5.1350   -4.9896    0.0000 H   0  0  0  0  0  0  0  0  0  0  0  0
    2.8660   -7.2996    0.0000 H   0  0  0  0  0  0  0  0  0  0  0  0
  1 31  1  0  0  0  0
  2 31  1  0  0  0  0
  3 41  1  0  0  0  0
  4 42  1  0  0  0  0
 16  5  1  1  0  0  0
  5 23  1  0  0  0  0
  6 19  2  0  0  0  0
  7 20  2  0  0  0  0
 21  8  1  1  0  0  0
  8 69  1  0  0  0  0
  9 30  2  0  0  0  0
 10 46  1  0  0  0  0
 10 85  1  0  0  0  0
 11 46  2  0  0  0  0
 12 15  1  0  0  0  0
 12 18  1  0  0  0  0
 12 20  1  0  0  0  0
 13 19  1  0  0  0  0
 24 13  1  6  0  0  0
 13 55  1  0  0  0  0
 14 30  1  0  0  0  0
 14 33  1  0  0  0  0
 14 73  1  0  0  0  0
 15 17  1  0  0  0  0
 15 19  1  0  0  0  0
 15 47  1  0  0  0  0
 16 17  1  0  0  0  0
 16 18  1  0  0  0  0
 16 48  1  0  0  0  0
 17 49  1  0  0  0  0
 17 50  1  0  0  0  0
 18 51  1  0  0  0  0
 18 52  1  0  0  0  0
 20 21  1  0  0  0  0
 21 22  1  0  0  0  0
 21 53  1  0  0  0  0
 22 26  1  0  0  0  0
 22 27  1  0  0  0  0
 22 54  1  0  0  0  0
 23 25  1  0  0  0  0
 23 56  1  0  0  0  0
 23 57  1  0  0  0  0
 24 28  1  0  0  0  0
 24 30  1  0  0  0  0
 24 58  1  0  0  0  0
 25 29  1  0  0  0  0
 25 59  1  0  0  0  0
 25 60  1  0  0  0  0
 26 61  1  0  0  0  0
 26 62  1  0  0  0  0
 26 63  1  0  0  0  0
 27 64  1  0  0  0  0
 27 65  1  0  0  0  0
 27 66  1  0  0  0  0
 28 31  1  0  0  0  0
 28 67  1  0  0  0  0
 28 68  1  0  0  0  0
 29 32  1  0  0  0  0
 29 70  1  0  0  0  0
 29 71  1  0  0  0  0
 31 72  1  0  0  0  0
 32 34  2  0  0  0  0
 32 35  1  0  0  0  0
 33 36  1  0  0  0  0
 33 74  1  0  0  0  0
 33 75  1  0  0  0  0
 34 38  1  0  0  0  0
 34 76  1  0  0  0  0
 35 39  2  0  0  0  0
 35 77  1  0  0  0  0
 36 37  1  0  0  0  0
 36 78  1  0  0  0  0
 36 79  1  0  0  0  0
 37 41  2  0  0  0  0
 37 42  1  0  0  0  0
 38 40  2  0  0  0  0
 38 80  1  0  0  0  0
 39 40  1  0  0  0  0
 39 81  1  0  0  0  0
 40 82  1  0  0  0  0
 41 43  1  0  0  0  0
 42 44  2  0  0  0  0
 43 45  2  0  0  0  0
 43 83  1  0  0  0  0
 44 45  1  0  0  0  0
 44 84  1  0  0  0  0
 45 46  1  0  0  0  0
M  END
> <PUBCHEM_COMPOUND_CID>
507680
> <PUBCHEM_COMPOUND_CANONICALIZED>
1
> <PUBCHEM_CACTVS_COMPLEXITY>
1000
> <PUBCHEM_CACTVS_HBOND_ACCEPTOR>
11
> <PUBCHEM_CACTVS_HBOND_DONOR>
4
> <PUBCHEM_CACTVS_ROTATABLE_BOND>
16
> <PUBCHEM_CACTVS_SUBSKEYS>
AAADcfB/OcAAAAAAAAAAAAAAAAAAAWAAAAAwYAAAAAAAAAABQAAAHwAQCAAADTzhmB4yCIPABgCIAiHSGAICAAAkAAAIiIHICMgKdjKAlTGXcQAm1gGYmYe6yfCOQAAAAAAAAACAAAAAAAAAAAAAAAAAAA==
> <PUBCHEM_IUPAC_OPENEYE_NAME>
4-[2-[[(2S)-4,4-difluoro-2-[[(4R)-1-[(2S)-2-hydroxy-3-methyl-butanoyl]-4-(3-phenylpropoxy)pyrrolidine-2-carbonyl]amino]butanoyl]amino]ethyl]-3,5-difluoro-benzoic acid
> <PUBCHEM_IUPAC_CAS_NAME>
4-[2-[[(2S)-4,4-difluoro-2-[[[(4R)-1-[(2S)-2-hydroxy-3-methyl-1-oxobutyl]-4-(3-phenylpropoxy)-2-pyrrolidinyl]-oxomethyl]amino]-1-oxobutyl]amino]ethyl]-3,5-difluorobenzoic acid
> <PUBCHEM_IUPAC_NAME_MARKUP>
4-[2-[[(2<I>S</I>)-4,4-difluoro-2-[[(4<I>R</I>)-1-[(2<I>S</I>)-2-hydroxy-3-methylbutanoyl]-4-(3-phenylpropoxy)pyrrolidine-2-carbonyl]amino]butanoyl]amino]ethyl]-3,5-difluorobenzoic acid
> <PUBCHEM_IUPAC_NAME>
4-[2-[[(2S)-4,4-difluoro-2-[[(4R)-1-[(2S)-2-hydroxy-3-methylbutanoyl]-4-(3-phenylpropoxy)pyrrolidine-2-carbonyl]amino]butanoyl]amino]ethyl]-3,5-difluorobenzoic acid
> <PUBCHEM_IUPAC_SYSTEMATIC_NAME>
4-[2-[[(2S)-4,4-bis(fluoranyl)-2-[[(4R)-1-[(2S)-3-methyl-2-oxidanyl-butanoyl]-4-(3-phenylpropoxy)pyrrolidin-2-yl]carbonylamino]butanoyl]amino]ethyl]-3,5-bis(fluoranyl)benzoic acid
> <PUBCHEM_IUPAC_TRADITIONAL_NAME>
4-[2-[[(2S)-4,4-difluoro-2-[[(4R)-1-[(2S)-2-hydroxy-3-methyl-butanoyl]-4-(3-phenylpropoxy)prolyl]amino]butanoyl]amino]ethyl]-3,5-difluoro-benzoic acid
> <PUBCHEM_IUPAC_INCHI>
InChI=1S/C32H39F4N3O7/c1-18(2)28(40)31(43)39-17-21(46-12-6-9-19-7-4-3-5-8-19)15-26(39)30(42)38-25(16-27(35)36)29(41)37-11-10-22-23(33)13-20(32(44)45)14-24(22)34/h3-5,7-8,13-14,18,21,25-28,40H,6,9-12,15-17H2,1-2H3,(H,37,41)(H,38,42)(H,44,45)/t21-,25+,26?,28+/m1/s1
> <PUBCHEM_IUPAC_INCHIKEY>
WLARVDDEFGASBQ-CNQGDYNCSA-N
> <PUBCHEM_XLOGP3_AA>
4.5
> <PUBCHEM_EXACT_MASS>
653.27241324
> <PUBCHEM_MOLECULAR_FORMULA>
C32H39F4N3O7
> <PUBCHEM_MOLECULAR_WEIGHT>
653.7
> <PUBCHEM_OPENEYE_CAN_SMILES>
CC(C)C(C(=O)N1CC(CC1C(=O)NC(CC(F)F)C(=O)NCCC2=C(C=C(C=C2F)C(=O)O)F)OCCCC3=CC=CC=C3)O
> <PUBCHEM_OPENEYE_ISO_SMILES>
CC(C)[C@@H](C(=O)N1C[C@@H](CC1C(=O)N[C@@H](CC(F)F)C(=O)NCCC2=C(C=C(C=C2F)C(=O)O)F)OCCCC3=CC=CC=C3)O
> <PUBCHEM_CACTVS_TPSA>
145
> <PUBCHEM_MONOISOTOPIC_WEIGHT>
653.27241324
> <PUBCHEM_TOTAL_CHARGE>
0
> <PUBCHEM_HEAVY_ATOM_COUNT>
46
> <PUBCHEM_ATOM_DEF_STEREO_COUNT>
3
> <PUBCHEM_ATOM_UDEF_STEREO_COUNT>
1
> <PUBCHEM_BOND_DEF_STEREO_COUNT>
0
> <PUBCHEM_BOND_UDEF_STEREO_COUNT>
0
> <PUBCHEM_ISOTOPIC_ATOM_COUNT>
0
> <PUBCHEM_COMPONENT_COUNT>
1
> <PUBCHEM_CACTVS_TAUTO_COUNT>
-1
> <PUBCHEM_COORDINATE_TYPE>
1
5
255
> <PUBCHEM_BONDANNOTATIONS>
24  13  6
15  19  3
32  34  8
32  35  8
34  38  8
35  39  8
37  41  8
37  42  8
38  40  8
39  40  8
41  43  8
42  44  8
43  45  8
44  45  8
16  5  5
21  8  5
$$$$
