507604
  -OEChem-10302200282D
 96100  0     1  0  0  0  0  0999 V2000
    8.5610    5.3451    0.0000 S   0  0  0  0  0  0  0  0  0  0  0  0
    4.6144   -0.2456    0.0000 S   0  0  0  0  0  0  0  0  0  0  0  0
    8.5610    2.3451    0.0000 O   0  0  0  0  0  0  0  0  0  0  0  0
    8.4186    0.9905    0.0000 O   0  0  0  0  0  0  0  0  0  0  0  0
    7.5610    5.3451    0.0000 O   0  0  0  0  0  0  0  0  0  0  0  0
    9.5610    5.3451    0.0000 O   0  0  0  0  0  0  0  0  0  0  0  0
    6.8438   -2.2530    0.0000 O   0  0  0  0  0  0  0  0  0  0  0  0
    5.0968    5.3451    0.0000 O   0  0  0  0  0  0  0  0  0  0  0  0
    4.2308    3.8451    0.0000 O   0  0  0  0  0  0  0  0  0  0  0  0
    2.2079   -7.4016    0.0000 O   0  0  0  0  0  0  0  0  0  0  0  0
    3.9021   -7.7618    0.0000 O   0  0  0  0  0  0  0  0  0  0  0  0
    6.8289    2.3451    0.0000 N   0  0  0  0  0  0  0  0  0  0  0  0
    7.2596   -0.2967    0.0000 N   0  0  0  0  0  0  0  0  0  0  0  0
    8.5610    4.3451    0.0000 N   0  0  0  0  0  0  0  0  0  0  0  0
    5.1496   -1.8929    0.0000 N   0  0  0  0  0  0  0  0  0  0  0  0
    5.2462    2.0087    0.0000 C   0  0  2  0  0  0  0  0  0  0  0  0
    6.7244    1.3506    0.0000 C   0  0  1  0  0  0  0  0  0  0  0  0
    5.7462    1.1427    0.0000 C   0  0  0  0  0  0  0  0  0  0  0  0
    5.9154    2.7519    0.0000 C   0  0  0  0  0  0  0  0  0  0  0  0
    4.2517    2.1132    0.0000 C   0  0  0  0  0  0  0  0  0  0  0  0
    7.6949    2.8451    0.0000 C   0  0  0  0  0  0  0  0  0  0  0  0
    7.4675    0.6815    0.0000 C   0  0  0  0  0  0  0  0  0  0  0  0
    7.6949    3.8451    0.0000 C   0  0  2  0  0  0  0  0  0  0  0  0
    6.8289    4.3451    0.0000 C   0  0  0  0  0  0  0  0  0  0  0  0
    3.8450    3.0268    0.0000 C   0  0  0  0  0  0  0  0  0  0  0  0
    3.6639    1.3042    0.0000 C   0  0  0  0  0  0  0  0  0  0  0  0
    6.3086   -0.6057    0.0000 C   0  0  1  0  0  0  0  0  0  0  0  0
    5.9629    3.8451    0.0000 C   0  0  0  0  0  0  0  0  0  0  0  0
    2.8504    3.1313    0.0000 C   0  0  0  0  0  0  0  0  0  0  0  0
    2.6694    1.4088    0.0000 C   0  0  0  0  0  0  0  0  0  0  0  0
    2.2627    2.3223    0.0000 C   0  0  0  0  0  0  0  0  0  0  0  0
    5.5654    0.0634    0.0000 C   0  0  0  0  0  0  0  0  0  0  0  0
    6.1006   -1.5838    0.0000 C   0  0  0  0  0  0  0  0  0  0  0  0
    8.5610    6.3451    0.0000 C   0  0  0  0  0  0  0  0  0  0  0  0
    5.0968    4.3451    0.0000 C   0  0  0  0  0  0  0  0  0  0  0  0
    9.4270    6.8451    0.0000 C   0  0  0  0  0  0  0  0  0  0  0  0
    7.6949    6.8451    0.0000 C   0  0  0  0  0  0  0  0  0  0  0  0
    9.4270    7.8451    0.0000 C   0  0  0  0  0  0  0  0  0  0  0  0
    4.9417   -2.8710    0.0000 C   0  0  0  0  0  0  0  0  0  0  0  0
    7.6949    7.8451    0.0000 C   0  0  0  0  0  0  0  0  0  0  0  0
   10.3209    6.3105    0.0000 C   0  0  0  0  0  0  0  0  0  0  0  0
    8.5610    8.3451    0.0000 C   0  0  0  0  0  0  0  0  0  0  0  0
    3.9906   -3.1800    0.0000 C   0  0  0  0  0  0  0  0  0  0  0  0
   10.3209    8.3798    0.0000 C   0  0  0  0  0  0  0  0  0  0  0  0
   11.2270    6.8243    0.0000 C   0  0  0  0  0  0  0  0  0  0  0  0
   11.2270    7.8659    0.0000 C   0  0  0  0  0  0  0  0  0  0  0  0
    3.7827   -4.1582    0.0000 C   0  0  0  0  0  0  0  0  0  0  0  0
    4.5258   -4.8273    0.0000 C   0  0  0  0  0  0  0  0  0  0  0  0
    2.8316   -4.4672    0.0000 C   0  0  0  0  0  0  0  0  0  0  0  0
    4.3179   -5.8055    0.0000 C   0  0  0  0  0  0  0  0  0  0  0  0
    2.6237   -5.4453    0.0000 C   0  0  0  0  0  0  0  0  0  0  0  0
    3.3669   -6.1145    0.0000 C   0  0  0  0  0  0  0  0  0  0  0  0
    3.1590   -7.0926    0.0000 C   0  0  0  0  0  0  0  0  0  0  0  0
    2.0000   -8.3798    0.0000 C   0  0  0  0  0  0  0  0  0  0  0  0
    4.9086    1.4887    0.0000 H   0  0  0  0  0  0  0  0  0  0  0  0
    7.3032    1.5728    0.0000 H   0  0  0  0  0  0  0  0  0  0  0  0
    5.1798    0.8905    0.0000 H   0  0  0  0  0  0  0  0  0  0  0  0
    5.9378    0.5530    0.0000 H   0  0  0  0  0  0  0  0  0  0  0  0
    6.2254    3.2888    0.0000 H   0  0  0  0  0  0  0  0  0  0  0  0
    5.4138    3.1163    0.0000 H   0  0  0  0  0  0  0  0  0  0  0  0
    7.6949    4.4651    0.0000 H   0  0  0  0  0  0  0  0  0  0  0  0
    7.2274    4.8201    0.0000 H   0  0  0  0  0  0  0  0  0  0  0  0
    6.4304    4.8201    0.0000 H   0  0  0  0  0  0  0  0  0  0  0  0
    4.2094    3.5284    0.0000 H   0  0  0  0  0  0  0  0  0  0  0  0
    3.9161    0.7378    0.0000 H   0  0  0  0  0  0  0  0  0  0  0  0
    7.7204   -0.7115    0.0000 H   0  0  0  0  0  0  0  0  0  0  0  0
    9.0979    4.0351    0.0000 H   0  0  0  0  0  0  0  0  0  0  0  0
    6.4375    0.0008    0.0000 H   0  0  0  0  0  0  0  0  0  0  0  0
    5.5644    3.3702    0.0000 H   0  0  0  0  0  0  0  0  0  0  0  0
    6.3614    3.3702    0.0000 H   0  0  0  0  0  0  0  0  0  0  0  0
    2.5983    3.6977    0.0000 H   0  0  0  0  0  0  0  0  0  0  0  0
    2.3050    0.9072    0.0000 H   0  0  0  0  0  0  0  0  0  0  0  0
    1.6461    2.3871    0.0000 H   0  0  0  0  0  0  0  0  0  0  0  0
    6.0540    0.4451    0.0000 H   0  0  0  0  0  0  0  0  0  0  0  0
    5.2743    0.6109    0.0000 H   0  0  0  0  0  0  0  0  0  0  0  0
    4.6888   -1.4780    0.0000 H   0  0  0  0  0  0  0  0  0  0  0  0
    7.1580    6.5351    0.0000 H   0  0  0  0  0  0  0  0  0  0  0  0
    4.1536    0.1693    0.0000 H   0  0  0  0  0  0  0  0  0  0  0  0
    5.0280   -3.4850    0.0000 H   0  0  0  0  0  0  0  0  0  0  0  0
    5.5613   -2.8926    0.0000 H   0  0  0  0  0  0  0  0  0  0  0  0
    7.1580    8.1551    0.0000 H   0  0  0  0  0  0  0  0  0  0  0  0
   10.3138    5.6905    0.0000 H   0  0  0  0  0  0  0  0  0  0  0  0
    8.5610    8.9651    0.0000 H   0  0  0  0  0  0  0  0  0  0  0  0
    4.5599    5.6551    0.0000 H   0  0  0  0  0  0  0  0  0  0  0  0
    3.9043   -2.5661    0.0000 H   0  0  0  0  0  0  0  0  0  0  0  0
    3.3710   -3.1584    0.0000 H   0  0  0  0  0  0  0  0  0  0  0  0
   10.3138    8.9997    0.0000 H   0  0  0  0  0  0  0  0  0  0  0  0
   11.7627    6.5122    0.0000 H   0  0  0  0  0  0  0  0  0  0  0  0
   11.7627    8.1780    0.0000 H   0  0  0  0  0  0  0  0  0  0  0  0
    5.1155   -4.6357    0.0000 H   0  0  0  0  0  0  0  0  0  0  0  0
    2.3709   -4.0523    0.0000 H   0  0  0  0  0  0  0  0  0  0  0  0
    4.7787   -6.2203    0.0000 H   0  0  0  0  0  0  0  0  0  0  0  0
    2.0341   -5.6369    0.0000 H   0  0  0  0  0  0  0  0  0  0  0  0
    1.3936   -8.2509    0.0000 H   0  0  0  0  0  0  0  0  0  0  0  0
    1.8711   -8.9862    0.0000 H   0  0  0  0  0  0  0  0  0  0  0  0
    2.6064   -8.5087    0.0000 H   0  0  0  0  0  0  0  0  0  0  0  0
  1  5  2  0  0  0  0
  1  6  2  0  0  0  0
  1 14  1  0  0  0  0
  1 34  1  0  0  0  0
  2 32  1  0  0  0  0
  2 78  1  0  0  0  0
  3 21  2  0  0  0  0
  4 22  2  0  0  0  0
  7 33  2  0  0  0  0
  8 35  1  0  0  0  0
  8 84  1  0  0  0  0
  9 35  2  0  0  0  0
 10 53  1  0  0  0  0
 10 54  1  0  0  0  0
 11 53  2  0  0  0  0
 12 17  1  0  0  0  0
 12 19  1  0  0  0  0
 12 21  1  0  0  0  0
 13 22  1  0  0  0  0
 27 13  1  6  0  0  0
 13 66  1  0  0  0  0
 23 14  1  6  0  0  0
 14 67  1  0  0  0  0
 15 33  1  0  0  0  0
 15 39  1  0  0  0  0
 15 76  1  0  0  0  0
 16 18  1  0  0  0  0
 16 19  1  0  0  0  0
 16 20  1  1  0  0  0
 16 55  1  0  0  0  0
 17 18  1  0  0  0  0
 17 22  1  6  0  0  0
 17 56  1  0  0  0  0
 18 57  1  0  0  0  0
 18 58  1  0  0  0  0
 19 59  1  0  0  0  0
 19 60  1  0  0  0  0
 20 25  2  0  0  0  0
 20 26  1  0  0  0  0
 21 23  1  0  0  0  0
 23 24  1  0  0  0  0
 23 61  1  0  0  0  0
 24 28  1  0  0  0  0
 24 62  1  0  0  0  0
 24 63  1  0  0  0  0
 25 29  1  0  0  0  0
 25 64  1  0  0  0  0
 26 30  2  0  0  0  0
 26 65  1  0  0  0  0
 27 32  1  0  0  0  0
 27 33  1  0  0  0  0
 27 68  1  0  0  0  0
 28 35  1  0  0  0  0
 28 69  1  0  0  0  0
 28 70  1  0  0  0  0
 29 31  2  0  0  0  0
 29 71  1  0  0  0  0
 30 31  1  0  0  0  0
 30 72  1  0  0  0  0
 31 73  1  0  0  0  0
 32 74  1  0  0  0  0
 32 75  1  0  0  0  0
 34 36  1  0  0  0  0
 34 37  2  0  0  0  0
 36 38  1  0  0  0  0
 36 41  2  0  0  0  0
 37 40  1  0  0  0  0
 37 77  1  0  0  0  0
 38 42  1  0  0  0  0
 38 44  2  0  0  0  0
 39 43  1  0  0  0  0
 39 79  1  0  0  0  0
 39 80  1  0  0  0  0
 40 42  2  0  0  0  0
 40 81  1  0  0  0  0
 41 45  1  0  0  0  0
 41 82  1  0  0  0  0
 42 83  1  0  0  0  0
 43 47  1  0  0  0  0
 43 85  1  0  0  0  0
 43 86  1  0  0  0  0
 44 46  1  0  0  0  0
 44 87  1  0  0  0  0
 45 46  2  0  0  0  0
 45 88  1  0  0  0  0
 46 89  1  0  0  0  0
 47 48  2  0  0  0  0
 47 49  1  0  0  0  0
 48 50  1  0  0  0  0
 48 90  1  0  0  0  0
 49 51  2  0  0  0  0
 49 91  1  0  0  0  0
 50 52  2  0  0  0  0
 50 92  1  0  0  0  0
 51 52  1  0  0  0  0
 51 93  1  0  0  0  0
 52 53  1  0  0  0  0
 54 94  1  0  0  0  0
 54 95  1  0  0  0  0
 54 96  1  0  0  0  0
M  END
> <PUBCHEM_COMPOUND_CID>
507604
> <PUBCHEM_COMPOUND_CANONICALIZED>
1
> <PUBCHEM_CACTVS_COMPLEXITY>
1410
> <PUBCHEM_CACTVS_HBOND_ACCEPTOR>
11
> <PUBCHEM_CACTVS_HBOND_DONOR>
5
> <PUBCHEM_CACTVS_ROTATABLE_BOND>
17
> <PUBCHEM_CACTVS_SUBSKEYS>
AAADcfB/vABgAAAAAAAAAAAAAAAAAWAAAAAwYMGAAAAAAADBVAAAHgQQSAAADSjF2AayCcPABgaIAiHSGHBCABAkAAAIiJmICMgIZjKAtTmUcQAk1gGIqYe83/KOwAAAgAAUAACAAAEAACgAAAAAAAAAAA==
> <PUBCHEM_IUPAC_OPENEYE_NAME>
(4S)-5-[(2S,4S)-2-[[(1R)-2-[2-(4-methoxycarbonylphenyl)ethylamino]-2-oxo-1-(sulfanylmethyl)ethyl]carbamoyl]-4-phenyl-pyrrolidin-1-yl]-4-(1-naphthylsulfonylamino)-5-oxo-pentanoic acid
> <PUBCHEM_IUPAC_CAS_NAME>
(4S)-5-[(2S,4S)-2-[[[(2R)-3-mercapto-1-[2-(4-methoxycarbonylphenyl)ethylamino]-1-oxopropan-2-yl]amino]-oxomethyl]-4-phenyl-1-pyrrolidinyl]-4-(1-naphthalenylsulfonylamino)-5-oxopentanoic acid
> <PUBCHEM_IUPAC_NAME_MARKUP>
(4<I>S</I>)-5-[(2<I>S</I>,4<I>S</I>)-2-[[(2<I>R</I>)-1-[2-(4-methoxycarbonylphenyl)ethylamino]-1-oxo-3-sulfanylpropan-2-yl]carbamoyl]-4-phenylpyrrolidin-1-yl]-4-(naphthalen-1-ylsulfonylamino)-5-oxopentanoic acid
> <PUBCHEM_IUPAC_NAME>
(4S)-5-[(2S,4S)-2-[[(2R)-1-[2-(4-methoxycarbonylphenyl)ethylamino]-1-oxo-3-sulfanylpropan-2-yl]carbamoyl]-4-phenylpyrrolidin-1-yl]-4-(naphthalen-1-ylsulfonylamino)-5-oxopentanoic acid
> <PUBCHEM_IUPAC_SYSTEMATIC_NAME>
(4S)-5-[(2S,4S)-2-[[(2R)-1-[2-(4-methoxycarbonylphenyl)ethylamino]-1-oxidanylidene-3-sulfanyl-propan-2-yl]carbamoyl]-4-phenyl-pyrrolidin-1-yl]-4-(naphthalen-1-ylsulfonylamino)-5-oxidanylidene-pentanoic acid
> <PUBCHEM_IUPAC_TRADITIONAL_NAME>
(4S)-5-[(2S,4S)-2-[[(1R)-2-[2-(4-carbomethoxyphenyl)ethylamino]-2-keto-1-(mercaptomethyl)ethyl]carbamoyl]-4-phenyl-pyrrolidino]-5-keto-4-(1-naphthylsulfonylamino)valeric acid
> <PUBCHEM_IUPAC_INCHI>
InChI=1S/C39H42N4O9S2/c1-52-39(49)28-16-14-25(15-17-28)20-21-40-36(46)32(24-53)41-37(47)33-22-29(26-8-3-2-4-9-26)23-43(33)38(48)31(18-19-35(44)45)42-54(50,51)34-13-7-11-27-10-5-6-12-30(27)34/h2-17,29,31-33,42,53H,18-24H2,1H3,(H,40,46)(H,41,47)(H,44,45)/t29-,31+,32+,33+/m1/s1
> <PUBCHEM_IUPAC_INCHIKEY>
USANWWMGLCHPKB-PESDVKBKSA-N
> <PUBCHEM_XLOGP3_AA>
4.3
> <PUBCHEM_EXACT_MASS>
774.23932128
> <PUBCHEM_MOLECULAR_FORMULA>
C39H42N4O9S2
> <PUBCHEM_MOLECULAR_WEIGHT>
774.9
> <PUBCHEM_OPENEYE_CAN_SMILES>
COC(=O)C1=CC=C(C=C1)CCNC(=O)C(CS)NC(=O)C2CC(CN2C(=O)C(CCC(=O)O)NS(=O)(=O)C3=CC=CC4=CC=CC=C43)C5=CC=CC=C5
> <PUBCHEM_OPENEYE_ISO_SMILES>
COC(=O)C1=CC=C(C=C1)CCNC(=O)[C@H](CS)NC(=O)[C@@H]2C[C@H](CN2C(=O)[C@H](CCC(=O)O)NS(=O)(=O)C3=CC=CC4=CC=CC=C43)C5=CC=CC=C5
> <PUBCHEM_CACTVS_TPSA>
198
> <PUBCHEM_MONOISOTOPIC_WEIGHT>
774.23932128
> <PUBCHEM_TOTAL_CHARGE>
0
> <PUBCHEM_HEAVY_ATOM_COUNT>
54
> <PUBCHEM_ATOM_DEF_STEREO_COUNT>
4
> <PUBCHEM_ATOM_UDEF_STEREO_COUNT>
0
> <PUBCHEM_BOND_DEF_STEREO_COUNT>
0
> <PUBCHEM_BOND_UDEF_STEREO_COUNT>
0
> <PUBCHEM_ISOTOPIC_ATOM_COUNT>
0
> <PUBCHEM_COMPONENT_COUNT>
1
> <PUBCHEM_CACTVS_TAUTO_COUNT>
-1
> <PUBCHEM_COORDINATE_TYPE>
1
5
255
> <PUBCHEM_BONDANNOTATIONS>
27  13  6
23  14  6
16  20  5
17  22  6
20  25  8
20  26  8
25  29  8
26  30  8
29  31  8
30  31  8
34  36  8
34  37  8
36  38  8
36  41  8
37  40  8
38  42  8
38  44  8
40  42  8
41  45  8
44  46  8
45  46  8
47  48  8
47  49  8
48  50  8
49  51  8
50  52  8
51  52  8
$$$$
