507662
  -OEChem-10302200282D
101104  0     1  0  0  0  0  0999 V2000
    8.1886    4.3340    0.0000 F   0  0  0  0  0  0  0  0  0  0  0  0
    6.5422    4.8721    0.0000 F   0  0  0  0  0  0  0  0  0  0  0  0
    9.9136    0.0312    0.0000 O   0  0  0  0  0  0  0  0  0  0  0  0
    8.9030    0.9444    0.0000 O   0  0  0  0  0  0  0  0  0  0  0  0
   12.2314   -2.7307    0.0000 O   0  0  0  0  0  0  0  0  0  0  0  0
    7.9244    0.7382    0.0000 O   0  0  0  0  0  0  0  0  0  0  0  0
   13.2519   -1.3312    0.0000 O   0  0  0  0  0  0  0  0  0  0  0  0
    7.2566   -4.7540    0.0000 O   0  0  0  0  0  0  0  0  0  0  0  0
    5.6103   -5.2920    0.0000 O   0  0  0  0  0  0  0  0  0  0  0  0
   10.9341    1.4307    0.0000 N   0  0  0  0  0  0  0  0  0  0  0  0
    8.5458    2.6392    0.0000 N   0  0  0  0  0  0  0  0  0  0  0  0
   11.5296   -1.1472    0.0000 N   0  0  0  0  0  0  0  0  0  0  0  0
    6.2781    1.2763    0.0000 N   0  0  0  0  0  0  0  0  0  0  0  0
    4.6783   -2.4405    0.0000 N   0  0  0  0  0  0  0  0  0  0  0  0
   11.5948    2.9077    0.0000 C   0  0  2  0  0  0  0  0  0  0  0  0
   10.1921    2.1011    0.0000 C   0  0  1  0  0  0  0  0  0  0  0  0
   10.6004    3.0140    0.0000 C   0  0  0  0  0  0  0  0  0  0  0  0
   11.8010    1.9292    0.0000 C   0  0  0  0  0  0  0  0  0  0  0  0
   12.2652    3.6497    0.0000 C   0  0  0  0  0  0  0  0  0  0  0  0
   10.8279    0.4364    0.0000 C   0  0  0  0  0  0  0  0  0  0  0  0
    9.2136    1.8949    0.0000 C   0  0  0  0  0  0  0  0  0  0  0  0
   11.6359   -0.1528    0.0000 C   0  0  2  0  0  0  0  0  0  0  0  0
   12.5501    0.2523    0.0000 C   0  0  0  0  0  0  0  0  0  0  0  0
   13.2430    3.4401    0.0000 C   0  0  0  0  0  0  0  0  0  0  0  0
   11.9578    4.6013    0.0000 C   0  0  0  0  0  0  0  0  0  0  0  0
    7.5673    2.4330    0.0000 C   0  0  1  0  0  0  0  0  0  0  0  0
   13.3581   -0.3368    0.0000 C   0  0  0  0  0  0  0  0  0  0  0  0
   12.6564    1.2467    0.0000 C   0  0  0  0  0  0  0  0  0  0  0  0
   13.9134    4.1821    0.0000 C   0  0  0  0  0  0  0  0  0  0  0  0
   12.6282    5.3433    0.0000 C   0  0  0  0  0  0  0  0  0  0  0  0
    6.8994    3.1773    0.0000 C   0  0  0  0  0  0  0  0  0  0  0  0
   13.6060    5.1337    0.0000 C   0  0  0  0  0  0  0  0  0  0  0  0
    7.2566    1.4825    0.0000 C   0  0  0  0  0  0  0  0  0  0  0  0
   12.3376   -1.7363    0.0000 C   0  0  0  0  0  0  0  0  0  0  0  0
    7.2101    4.1278    0.0000 C   0  0  0  0  0  0  0  0  0  0  0  0
    5.9674    0.3257    0.0000 C   0  0  0  0  0  0  0  0  0  0  0  0
    4.9889    0.1195    0.0000 C   0  0  0  0  0  0  0  0  0  0  0  0
    4.6783   -0.8310    0.0000 C   0  0  0  0  0  0  0  0  0  0  0  0
    3.7320   -1.1357    0.0000 C   0  0  0  0  0  0  0  0  0  0  0  0
   13.0394   -3.3199    0.0000 C   0  0  0  0  0  0  0  0  0  0  0  0
    3.7320   -2.1357    0.0000 C   0  0  0  0  0  0  0  0  0  0  0  0
    5.2619   -1.6357    0.0000 C   0  0  0  0  0  0  0  0  0  0  0  0
   12.9331   -4.3142    0.0000 C   0  0  0  0  0  0  0  0  0  0  0  0
    4.9889   -3.3910    0.0000 C   0  0  0  0  0  0  0  0  0  0  0  0
    2.8660   -0.6357    0.0000 C   0  0  0  0  0  0  0  0  0  0  0  0
    2.8660   -2.6357    0.0000 C   0  0  0  0  0  0  0  0  0  0  0  0
    5.9674   -3.5972    0.0000 C   0  0  0  0  0  0  0  0  0  0  0  0
   13.7411   -4.9034    0.0000 C   0  0  0  0  0  0  0  0  0  0  0  0
   12.0189   -4.7194    0.0000 C   0  0  0  0  0  0  0  0  0  0  0  0
    2.0000   -1.1357    0.0000 C   0  0  0  0  0  0  0  0  0  0  0  0
    2.0000   -2.1357    0.0000 C   0  0  0  0  0  0  0  0  0  0  0  0
    6.2781   -4.5477    0.0000 C   0  0  0  0  0  0  0  0  0  0  0  0
   11.3736    3.4869    0.0000 H   0  0  0  0  0  0  0  0  0  0  0  0
   10.0306    1.5025    0.0000 H   0  0  0  0  0  0  0  0  0  0  0  0
   10.7304    3.6202    0.0000 H   0  0  0  0  0  0  0  0  0  0  0  0
   10.0111    3.2066    0.0000 H   0  0  0  0  0  0  0  0  0  0  0  0
   12.0522    1.3624    0.0000 H   0  0  0  0  0  0  0  0  0  0  0  0
   12.3910    2.1198    0.0000 H   0  0  0  0  0  0  0  0  0  0  0  0
   11.0690   -0.4040    0.0000 H   0  0  0  0  0  0  0  0  0  0  0  0
   13.1169    0.5035    0.0000 H   0  0  0  0  0  0  0  0  0  0  0  0
    8.7384    3.2285    0.0000 H   0  0  0  0  0  0  0  0  0  0  0  0
   13.4336    2.8501    0.0000 H   0  0  0  0  0  0  0  0  0  0  0  0
   11.3516    4.7312    0.0000 H   0  0  0  0  0  0  0  0  0  0  0  0
    7.9813    1.9715    0.0000 H   0  0  0  0  0  0  0  0  0  0  0  0
   10.9628   -1.3984    0.0000 H   0  0  0  0  0  0  0  0  0  0  0  0
   12.9928   -0.8378    0.0000 H   0  0  0  0  0  0  0  0  0  0  0  0
   13.8591   -0.7021    0.0000 H   0  0  0  0  0  0  0  0  0  0  0  0
   13.7234    0.1641    0.0000 H   0  0  0  0  0  0  0  0  0  0  0  0
   13.2728    1.1808    0.0000 H   0  0  0  0  0  0  0  0  0  0  0  0
   12.7222    1.8632    0.0000 H   0  0  0  0  0  0  0  0  0  0  0  0
   12.0399    1.3126    0.0000 H   0  0  0  0  0  0  0  0  0  0  0  0
   14.5196    4.0521    0.0000 H   0  0  0  0  0  0  0  0  0  0  0  0
   12.4377    5.9333    0.0000 H   0  0  0  0  0  0  0  0  0  0  0  0
    6.3525    3.4693    0.0000 H   0  0  0  0  0  0  0  0  0  0  0  0
    6.5169    2.6894    0.0000 H   0  0  0  0  0  0  0  0  0  0  0  0
   14.0217    5.5937    0.0000 H   0  0  0  0  0  0  0  0  0  0  0  0
    7.4027    4.7171    0.0000 H   0  0  0  0  0  0  0  0  0  0  0  0
    5.8640    1.7377    0.0000 H   0  0  0  0  0  0  0  0  0  0  0  0
    5.9880   -0.2939    0.0000 H   0  0  0  0  0  0  0  0  0  0  0  0
    6.5812    0.2384    0.0000 H   0  0  0  0  0  0  0  0  0  0  0  0
    4.9684    0.7392    0.0000 H   0  0  0  0  0  0  0  0  0  0  0  0
    4.3751    0.2069    0.0000 H   0  0  0  0  0  0  0  0  0  0  0  0
   13.6350   -3.4918    0.0000 H   0  0  0  0  0  0  0  0  0  0  0  0
   13.3121   -2.7631    0.0000 H   0  0  0  0  0  0  0  0  0  0  0  0
    5.8819   -1.6357    0.0000 H   0  0  0  0  0  0  0  0  0  0  0  0
   12.4321   -3.9489    0.0000 H   0  0  0  0  0  0  0  0  0  0  0  0
    4.3751   -3.4784    0.0000 H   0  0  0  0  0  0  0  0  0  0  0  0
    4.9684   -4.0106    0.0000 H   0  0  0  0  0  0  0  0  0  0  0  0
    2.8660   -0.0157    0.0000 H   0  0  0  0  0  0  0  0  0  0  0  0
    2.8660   -3.2557    0.0000 H   0  0  0  0  0  0  0  0  0  0  0  0
    6.5812   -3.5099    0.0000 H   0  0  0  0  0  0  0  0  0  0  0  0
    5.9880   -2.9776    0.0000 H   0  0  0  0  0  0  0  0  0  0  0  0
   13.3758   -5.4044    0.0000 H   0  0  0  0  0  0  0  0  0  0  0  0
   14.2421   -5.2687    0.0000 H   0  0  0  0  0  0  0  0  0  0  0  0
   14.1064   -4.4024    0.0000 H   0  0  0  0  0  0  0  0  0  0  0  0
   11.7677   -4.1525    0.0000 H   0  0  0  0  0  0  0  0  0  0  0  0
   11.4520   -4.9706    0.0000 H   0  0  0  0  0  0  0  0  0  0  0  0
   12.2701   -5.2862    0.0000 H   0  0  0  0  0  0  0  0  0  0  0  0
    1.4631   -0.8257    0.0000 H   0  0  0  0  0  0  0  0  0  0  0  0
    1.4631   -2.4457    0.0000 H   0  0  0  0  0  0  0  0  0  0  0  0
    7.4492   -5.3433    0.0000 H   0  0  0  0  0  0  0  0  0  0  0  0
  1 35  1  0  0  0  0
  2 35  1  0  0  0  0
  3 20  2  0  0  0  0
  4 21  2  0  0  0  0
  5 34  1  0  0  0  0
  5 40  1  0  0  0  0
  6 33  2  0  0  0  0
  7 34  2  0  0  0  0
  8 52  1  0  0  0  0
  8101  1  0  0  0  0
  9 52  2  0  0  0  0
 10 16  1  0  0  0  0
 10 18  1  0  0  0  0
 10 20  1  0  0  0  0
 11 21  1  0  0  0  0
 26 11  1  6  0  0  0
 11 61  1  0  0  0  0
 22 12  1  6  0  0  0
 12 34  1  0  0  0  0
 12 65  1  0  0  0  0
 13 33  1  0  0  0  0
 13 36  1  0  0  0  0
 13 78  1  0  0  0  0
 14 41  1  0  0  0  0
 14 42  1  0  0  0  0
 14 44  1  0  0  0  0
 15 17  1  0  0  0  0
 15 18  1  0  0  0  0
 15 19  1  1  0  0  0
 15 53  1  0  0  0  0
 16 17  1  0  0  0  0
 16 21  1  6  0  0  0
 16 54  1  0  0  0  0
 17 55  1  0  0  0  0
 17 56  1  0  0  0  0
 18 57  1  0  0  0  0
 18 58  1  0  0  0  0
 19 24  2  0  0  0  0
 19 25  1  0  0  0  0
 20 22  1  0  0  0  0
 22 23  1  0  0  0  0
 22 59  1  0  0  0  0
 23 27  1  0  0  0  0
 23 28  1  0  0  0  0
 23 60  1  0  0  0  0
 24 29  1  0  0  0  0
 24 62  1  0  0  0  0
 25 30  2  0  0  0  0
 25 63  1  0  0  0  0
 26 31  1  0  0  0  0
 26 33  1  0  0  0  0
 26 64  1  0  0  0  0
 27 66  1  0  0  0  0
 27 67  1  0  0  0  0
 27 68  1  0  0  0  0
 28 69  1  0  0  0  0
 28 70  1  0  0  0  0
 28 71  1  0  0  0  0
 29 32  2  0  0  0  0
 29 72  1  0  0  0  0
 30 32  1  0  0  0  0
 30 73  1  0  0  0  0
 31 35  1  0  0  0  0
 31 74  1  0  0  0  0
 31 75  1  0  0  0  0
 32 76  1  0  0  0  0
 35 77  1  0  0  0  0
 36 37  1  0  0  0  0
 36 79  1  0  0  0  0
 36 80  1  0  0  0  0
 37 38  1  0  0  0  0
 37 81  1  0  0  0  0
 37 82  1  0  0  0  0
 38 39  1  0  0  0  0
 38 42  2  0  0  0  0
 39 41  1  0  0  0  0
 39 45  2  0  0  0  0
 40 43  1  0  0  0  0
 40 83  1  0  0  0  0
 40 84  1  0  0  0  0
 41 46  2  0  0  0  0
 42 85  1  0  0  0  0
 43 48  1  0  0  0  0
 43 49  1  0  0  0  0
 43 86  1  0  0  0  0
 44 47  1  0  0  0  0
 44 87  1  0  0  0  0
 44 88  1  0  0  0  0
 45 50  1  0  0  0  0
 45 89  1  0  0  0  0
 46 51  1  0  0  0  0
 46 90  1  0  0  0  0
 47 52  1  0  0  0  0
 47 91  1  0  0  0  0
 47 92  1  0  0  0  0
 48 93  1  0  0  0  0
 48 94  1  0  0  0  0
 48 95  1  0  0  0  0
 49 96  1  0  0  0  0
 49 97  1  0  0  0  0
 49 98  1  0  0  0  0
 50 51  2  0  0  0  0
 50 99  1  0  0  0  0
 51100  1  0  0  0  0
M  END
> <PUBCHEM_COMPOUND_CID>
507662
> <PUBCHEM_COMPOUND_CANONICALIZED>
1
> <PUBCHEM_CACTVS_COMPLEXITY>
1220
> <PUBCHEM_CACTVS_HBOND_ACCEPTOR>
9
> <PUBCHEM_CACTVS_HBOND_DONOR>
4
> <PUBCHEM_CACTVS_ROTATABLE_BOND>
18
> <PUBCHEM_CACTVS_SUBSKEYS>
AAADcfB/uYAAAAAAAAAAAAAAAAAAAWLAAAAwYAAAAAAAAFgB9AAAHwAQCAAADSjhnhY+yPPMFgCoAzX3XACCgCAxAiAI2KG4ZJkIYPrAkbGcYAhilgDIyAcYicCOgAAAAAACAAAAAAAAAAQAAAAAAAAAAA==
> <PUBCHEM_IUPAC_OPENEYE_NAME>
3-[3-[2-[[(2S)-4,4-difluoro-2-[[(2S,4S)-1-[(2S)-2-(isobutoxycarbonylamino)-3-methyl-butanoyl]-4-phenyl-pyrrolidine-2-carbonyl]amino]butanoyl]amino]ethyl]indol-1-yl]propanoic acid
> <PUBCHEM_IUPAC_CAS_NAME>
3-[3-[2-[[(2S)-4,4-difluoro-2-[[[(2S,4S)-1-[(2S)-3-methyl-2-[[2-methylpropoxy(oxo)methyl]amino]-1-oxobutyl]-4-phenyl-2-pyrrolidinyl]-oxomethyl]amino]-1-oxobutyl]amino]ethyl]-1-indolyl]propanoic acid
> <PUBCHEM_IUPAC_NAME_MARKUP>
3-[3-[2-[[(2<I>S</I>)-4,4-difluoro-2-[[(2<I>S</I>,4<I>S</I>)-1-[(2<I>S</I>)-3-methyl-2-(2-methylpropoxycarbonylamino)butanoyl]-4-phenylpyrrolidine-2-carbonyl]amino]butanoyl]amino]ethyl]indol-1-yl]propanoic acid
> <PUBCHEM_IUPAC_NAME>
3-[3-[2-[[(2S)-4,4-difluoro-2-[[(2S,4S)-1-[(2S)-3-methyl-2-(2-methylpropoxycarbonylamino)butanoyl]-4-phenylpyrrolidine-2-carbonyl]amino]butanoyl]amino]ethyl]indol-1-yl]propanoic acid
> <PUBCHEM_IUPAC_SYSTEMATIC_NAME>
3-[3-[2-[[(2S)-4,4-bis(fluoranyl)-2-[[(2S,4S)-1-[(2S)-3-methyl-2-(2-methylpropoxycarbonylamino)butanoyl]-4-phenyl-pyrrolidin-2-yl]carbonylamino]butanoyl]amino]ethyl]indol-1-yl]propanoic acid
> <PUBCHEM_IUPAC_TRADITIONAL_NAME>
3-[3-[2-[[(2S)-4,4-difluoro-2-[[(2S,4S)-1-[(2S)-2-(isobutoxycarbonylamino)-3-methyl-butanoyl]-4-phenyl-prolyl]amino]butanoyl]amino]ethyl]indol-1-yl]propionic acid
> <PUBCHEM_IUPAC_INCHI>
InChI=1S/C38H49F2N5O7/c1-23(2)22-52-38(51)43-34(24(3)4)37(50)45-21-27(25-10-6-5-7-11-25)18-31(45)36(49)42-29(19-32(39)40)35(48)41-16-14-26-20-44(17-15-33(46)47)30-13-9-8-12-28(26)30/h5-13,20,23-24,27,29,31-32,34H,14-19,21-22H2,1-4H3,(H,41,48)(H,42,49)(H,43,51)(H,46,47)/t27-,29+,31+,34+/m1/s1
> <PUBCHEM_IUPAC_INCHIKEY>
GMKVAQFGWUDTEC-DPLHQFIXSA-N
> <PUBCHEM_XLOGP3_AA>
5.5
> <PUBCHEM_EXACT_MASS>
725.36000524
> <PUBCHEM_MOLECULAR_FORMULA>
C38H49F2N5O7
> <PUBCHEM_MOLECULAR_WEIGHT>
725.8
> <PUBCHEM_OPENEYE_CAN_SMILES>
CC(C)COC(=O)NC(C(C)C)C(=O)N1CC(CC1C(=O)NC(CC(F)F)C(=O)NCCC2=CN(C3=CC=CC=C32)CCC(=O)O)C4=CC=CC=C4
> <PUBCHEM_OPENEYE_ISO_SMILES>
CC(C)COC(=O)N[C@@H](C(C)C)C(=O)N1C[C@@H](C[C@H]1C(=O)N[C@@H](CC(F)F)C(=O)NCCC2=CN(C3=CC=CC=C32)CCC(=O)O)C4=CC=CC=C4
> <PUBCHEM_CACTVS_TPSA>
159
> <PUBCHEM_MONOISOTOPIC_WEIGHT>
725.36000524
> <PUBCHEM_TOTAL_CHARGE>
0
> <PUBCHEM_HEAVY_ATOM_COUNT>
52
> <PUBCHEM_ATOM_DEF_STEREO_COUNT>
4
> <PUBCHEM_ATOM_UDEF_STEREO_COUNT>
0
> <PUBCHEM_BOND_DEF_STEREO_COUNT>
0
> <PUBCHEM_BOND_UDEF_STEREO_COUNT>
0
> <PUBCHEM_ISOTOPIC_ATOM_COUNT>
0
> <PUBCHEM_COMPONENT_COUNT>
1
> <PUBCHEM_CACTVS_TAUTO_COUNT>
-1
> <PUBCHEM_COORDINATE_TYPE>
1
5
255
> <PUBCHEM_BONDANNOTATIONS>
26  11  6
22  12  6
14  41  8
14  42  8
15  19  5
16  21  6
19  24  8
19  25  8
24  29  8
25  30  8
29  32  8
30  32  8
38  39  8
38  42  8
39  41  8
39  45  8
41  46  8
45  50  8
46  51  8
50  51  8
$$$$
