507690
  -OEChem-10302200282D
 79 81  0     1  0  0  0  0  0999 V2000
    9.3705    5.6680    0.0000 Cl  0  0  0  0  0  0  0  0  0  0  0  0
    3.7320    3.3294    0.0000 F   0  0  0  0  0  0  0  0  0  0  0  0
    5.4641    3.3294    0.0000 F   0  0  0  0  0  0  0  0  0  0  0  0
    2.0000   -2.6706    0.0000 F   0  0  0  0  0  0  0  0  0  0  0  0
    5.4641   -2.6706    0.0000 F   0  0  0  0  0  0  0  0  0  0  0  0
    9.5516    3.9454    0.0000 O   0  0  0  0  0  0  0  0  0  0  0  0
    7.1962    0.3294    0.0000 O   0  0  0  0  0  0  0  0  0  0  0  0
    8.4405   -0.2246    0.0000 O   0  0  0  0  0  0  0  0  0  0  0  0
   10.8778    0.8047    0.0000 O   0  0  0  0  0  0  0  0  0  0  0  0
    6.3301   -0.1706    0.0000 O   0  0  0  0  0  0  0  0  0  0  0  0
    2.8660   -6.1706    0.0000 O   0  0  0  0  0  0  0  0  0  0  0  0
    4.5981   -6.1706    0.0000 O   0  0  0  0  0  0  0  0  0  0  0  0
    8.9757    1.4227    0.0000 N   0  0  0  0  0  0  0  0  0  0  0  0
    6.3301    1.8294    0.0000 N   0  0  0  0  0  0  0  0  0  0  0  0
    4.5981   -0.1706    0.0000 N   0  0  0  0  0  0  0  0  0  0  0  0
    8.0622    1.8294    0.0000 C   0  0  3  0  0  0  0  0  0  0  0  0
    9.1448    3.0319    0.0000 C   0  0  2  0  0  0  0  0  0  0  0  0
    8.1667    2.8240    0.0000 C   0  0  0  0  0  0  0  0  0  0  0  0
    9.6448    2.1658    0.0000 C   0  0  0  0  0  0  0  0  0  0  0  0
    7.1962    1.3294    0.0000 C   0  0  0  0  0  0  0  0  0  0  0  0
    9.1836    0.4445    0.0000 C   0  0  0  0  0  0  0  0  0  0  0  0
   10.1347    0.1355    0.0000 C   0  0  2  0  0  0  0  0  0  0  0  0
   10.3426   -0.8426    0.0000 C   0  0  0  0  0  0  0  0  0  0  0  0
    5.4641    1.3294    0.0000 C   0  0  1  0  0  0  0  0  0  0  0  0
   10.5461    4.0499    0.0000 C   0  0  0  0  0  0  0  0  0  0  0  0
   11.2937   -1.1516    0.0000 C   0  0  0  0  0  0  0  0  0  0  0  0
    9.5995   -1.5118    0.0000 C   0  0  0  0  0  0  0  0  0  0  0  0
    4.5981    1.8294    0.0000 C   0  0  0  0  0  0  0  0  0  0  0  0
   10.9528    4.9635    0.0000 C   0  0  0  0  0  0  0  0  0  0  0  0
    5.4641    0.3294    0.0000 C   0  0  0  0  0  0  0  0  0  0  0  0
    4.5981    2.8294    0.0000 C   0  0  0  0  0  0  0  0  0  0  0  0
   10.3651    5.7725    0.0000 C   0  0  0  0  0  0  0  0  0  0  0  0
   11.9474    5.0680    0.0000 C   0  0  0  0  0  0  0  0  0  0  0  0
    4.5981   -1.1706    0.0000 C   0  0  0  0  0  0  0  0  0  0  0  0
    3.7320   -1.6706    0.0000 C   0  0  0  0  0  0  0  0  0  0  0  0
   10.7718    6.6860    0.0000 C   0  0  0  0  0  0  0  0  0  0  0  0
   12.3541    5.9816    0.0000 C   0  0  0  0  0  0  0  0  0  0  0  0
   11.7663    6.7906    0.0000 C   0  0  0  0  0  0  0  0  0  0  0  0
    3.7320   -2.6706    0.0000 C   0  0  0  0  0  0  0  0  0  0  0  0
    2.8660   -3.1706    0.0000 C   0  0  0  0  0  0  0  0  0  0  0  0
    4.5981   -3.1706    0.0000 C   0  0  0  0  0  0  0  0  0  0  0  0
    2.8660   -4.1706    0.0000 C   0  0  0  0  0  0  0  0  0  0  0  0
    4.5981   -4.1706    0.0000 C   0  0  0  0  0  0  0  0  0  0  0  0
    3.7320   -4.6706    0.0000 C   0  0  0  0  0  0  0  0  0  0  0  0
    3.7320   -5.6706    0.0000 C   0  0  0  0  0  0  0  0  0  0  0  0
    8.0946    1.2103    0.0000 H   0  0  0  0  0  0  0  0  0  0  0  0
    8.7547    3.5137    0.0000 H   0  0  0  0  0  0  0  0  0  0  0  0
    8.1019    3.4406    0.0000 H   0  0  0  0  0  0  0  0  0  0  0  0
    7.5467    2.8240    0.0000 H   0  0  0  0  0  0  0  0  0  0  0  0
   10.0597    1.7051    0.0000 H   0  0  0  0  0  0  0  0  0  0  0  0
   10.1464    2.5303    0.0000 H   0  0  0  0  0  0  0  0  0  0  0  0
   10.0058    0.7420    0.0000 H   0  0  0  0  0  0  0  0  0  0  0  0
    9.7530   -0.6510    0.0000 H   0  0  0  0  0  0  0  0  0  0  0  0
    6.3301    2.4494    0.0000 H   0  0  0  0  0  0  0  0  0  0  0  0
    5.4641    1.9494    0.0000 H   0  0  0  0  0  0  0  0  0  0  0  0
   10.5029    3.4314    0.0000 H   0  0  0  0  0  0  0  0  0  0  0  0
   11.1477    3.8999    0.0000 H   0  0  0  0  0  0  0  0  0  0  0  0
   11.1021   -1.7413    0.0000 H   0  0  0  0  0  0  0  0  0  0  0  0
   11.8833   -1.3432    0.0000 H   0  0  0  0  0  0  0  0  0  0  0  0
   11.4853   -0.5620    0.0000 H   0  0  0  0  0  0  0  0  0  0  0  0
    9.1846   -1.0510    0.0000 H   0  0  0  0  0  0  0  0  0  0  0  0
    9.1387   -1.9266    0.0000 H   0  0  0  0  0  0  0  0  0  0  0  0
   10.0143   -1.9725    0.0000 H   0  0  0  0  0  0  0  0  0  0  0  0
    3.9875    1.9371    0.0000 H   0  0  0  0  0  0  0  0  0  0  0  0
    4.3860    1.2468    0.0000 H   0  0  0  0  0  0  0  0  0  0  0  0
   11.4675    0.6131    0.0000 H   0  0  0  0  0  0  0  0  0  0  0  0
    4.5981    3.4494    0.0000 H   0  0  0  0  0  0  0  0  0  0  0  0
    4.0611    0.1394    0.0000 H   0  0  0  0  0  0  0  0  0  0  0  0
   12.3118    4.5664    0.0000 H   0  0  0  0  0  0  0  0  0  0  0  0
    4.8101   -1.7532    0.0000 H   0  0  0  0  0  0  0  0  0  0  0  0
    5.2087   -1.0629    0.0000 H   0  0  0  0  0  0  0  0  0  0  0  0
    3.5200   -1.0880    0.0000 H   0  0  0  0  0  0  0  0  0  0  0  0
    3.1215   -1.7782    0.0000 H   0  0  0  0  0  0  0  0  0  0  0  0
   10.4074    7.1876    0.0000 H   0  0  0  0  0  0  0  0  0  0  0  0
   12.9707    6.0464    0.0000 H   0  0  0  0  0  0  0  0  0  0  0  0
   12.0185    7.3570    0.0000 H   0  0  0  0  0  0  0  0  0  0  0  0
    2.3291   -4.4806    0.0000 H   0  0  0  0  0  0  0  0  0  0  0  0
    5.1350   -4.4806    0.0000 H   0  0  0  0  0  0  0  0  0  0  0  0
    2.8660   -6.7906    0.0000 H   0  0  0  0  0  0  0  0  0  0  0  0
  1 32  1  0  0  0  0
  2 31  1  0  0  0  0
  3 31  1  0  0  0  0
  4 40  1  0  0  0  0
  5 41  1  0  0  0  0
 17  6  1  1  0  0  0
  6 25  1  0  0  0  0
  7 20  2  0  0  0  0
  8 21  2  0  0  0  0
 22  9  1  1  0  0  0
  9 66  1  0  0  0  0
 10 30  2  0  0  0  0
 11 45  1  0  0  0  0
 11 79  1  0  0  0  0
 12 45  2  0  0  0  0
 13 16  1  0  0  0  0
 13 19  1  0  0  0  0
 13 21  1  0  0  0  0
 14 20  1  0  0  0  0
 24 14  1  6  0  0  0
 14 54  1  0  0  0  0
 15 30  1  0  0  0  0
 15 34  1  0  0  0  0
 15 68  1  0  0  0  0
 16 18  1  0  0  0  0
 16 20  1  0  0  0  0
 16 46  1  0  0  0  0
 17 18  1  0  0  0  0
 17 19  1  0  0  0  0
 17 47  1  0  0  0  0
 18 48  1  0  0  0  0
 18 49  1  0  0  0  0
 19 50  1  0  0  0  0
 19 51  1  0  0  0  0
 21 22  1  0  0  0  0
 22 23  1  0  0  0  0
 22 52  1  0  0  0  0
 23 26  1  0  0  0  0
 23 27  1  0  0  0  0
 23 53  1  0  0  0  0
 24 28  1  0  0  0  0
 24 30  1  0  0  0  0
 24 55  1  0  0  0  0
 25 29  1  0  0  0  0
 25 56  1  0  0  0  0
 25 57  1  0  0  0  0
 26 58  1  0  0  0  0
 26 59  1  0  0  0  0
 26 60  1  0  0  0  0
 27 61  1  0  0  0  0
 27 62  1  0  0  0  0
 27 63  1  0  0  0  0
 28 31  1  0  0  0  0
 28 64  1  0  0  0  0
 28 65  1  0  0  0  0
 29 32  1  0  0  0  0
 29 33  2  0  0  0  0
 31 67  1  0  0  0  0
 32 36  2  0  0  0  0
 33 37  1  0  0  0  0
 33 69  1  0  0  0  0
 34 35  1  0  0  0  0
 34 70  1  0  0  0  0
 34 71  1  0  0  0  0
 35 39  1  0  0  0  0
 35 72  1  0  0  0  0
 35 73  1  0  0  0  0
 36 38  1  0  0  0  0
 36 74  1  0  0  0  0
 37 38  2  0  0  0  0
 37 75  1  0  0  0  0
 38 76  1  0  0  0  0
 39 40  2  0  0  0  0
 39 41  1  0  0  0  0
 40 42  1  0  0  0  0
 41 43  2  0  0  0  0
 42 44  2  0  0  0  0
 42 77  1  0  0  0  0
 43 44  1  0  0  0  0
 43 78  1  0  0  0  0
 44 45  1  0  0  0  0
M  END
> <PUBCHEM_COMPOUND_CID>
507690
> <PUBCHEM_COMPOUND_CANONICALIZED>
1
> <PUBCHEM_CACTVS_COMPLEXITY>
1020
> <PUBCHEM_CACTVS_HBOND_ACCEPTOR>
11
> <PUBCHEM_CACTVS_HBOND_DONOR>
4
> <PUBCHEM_CACTVS_ROTATABLE_BOND>
14
> <PUBCHEM_CACTVS_SUBSKEYS>
AAADcfB7OcAEAAAAAAAAAAAAAAAAAWAAAAAwYAAAAAAAAAABQAAAHwIQCAAADT7hmD4yCIPABgCIAiHSGAICAAAkBQAIiIHICsgKdjKBtzmXcQAm1gGYuYe6yfCOQAAAAAABAACAAAAAAAIAAAAAAAAAAA==
> <PUBCHEM_IUPAC_OPENEYE_NAME>
4-[2-[[(2S)-2-[[(4R)-4-[(2-chlorophenyl)methoxy]-1-[(2S)-2-hydroxy-3-methyl-butanoyl]pyrrolidine-2-carbonyl]amino]-4,4-difluoro-butanoyl]amino]ethyl]-3,5-difluoro-benzoic acid
> <PUBCHEM_IUPAC_CAS_NAME>
4-[2-[[(2S)-2-[[[(4R)-4-[(2-chlorophenyl)methoxy]-1-[(2S)-2-hydroxy-3-methyl-1-oxobutyl]-2-pyrrolidinyl]-oxomethyl]amino]-4,4-difluoro-1-oxobutyl]amino]ethyl]-3,5-difluorobenzoic acid
> <PUBCHEM_IUPAC_NAME_MARKUP>
4-[2-[[(2<I>S</I>)-2-[[(4<I>R</I>)-4-[(2-chlorophenyl)methoxy]-1-[(2<I>S</I>)-2-hydroxy-3-methylbutanoyl]pyrrolidine-2-carbonyl]amino]-4,4-difluorobutanoyl]amino]ethyl]-3,5-difluorobenzoic acid
> <PUBCHEM_IUPAC_NAME>
4-[2-[[(2S)-2-[[(4R)-4-[(2-chlorophenyl)methoxy]-1-[(2S)-2-hydroxy-3-methylbutanoyl]pyrrolidine-2-carbonyl]amino]-4,4-difluorobutanoyl]amino]ethyl]-3,5-difluorobenzoic acid
> <PUBCHEM_IUPAC_SYSTEMATIC_NAME>
4-[2-[[(2S)-2-[[(4R)-4-[(2-chlorophenyl)methoxy]-1-[(2S)-3-methyl-2-oxidanyl-butanoyl]pyrrolidin-2-yl]carbonylamino]-4,4-bis(fluoranyl)butanoyl]amino]ethyl]-3,5-bis(fluoranyl)benzoic acid
> <PUBCHEM_IUPAC_TRADITIONAL_NAME>
4-[2-[[(2S)-2-[[(4R)-4-(2-chlorobenzyl)oxy-1-[(2S)-2-hydroxy-3-methyl-butanoyl]prolyl]amino]-4,4-difluoro-butanoyl]amino]ethyl]-3,5-difluoro-benzoic acid
> <PUBCHEM_IUPAC_INCHI>
InChI=1S/C30H34ClF4N3O7/c1-15(2)26(39)29(42)38-13-18(45-14-16-5-3-4-6-20(16)31)11-24(38)28(41)37-23(12-25(34)35)27(40)36-8-7-19-21(32)9-17(30(43)44)10-22(19)33/h3-6,9-10,15,18,23-26,39H,7-8,11-14H2,1-2H3,(H,36,40)(H,37,41)(H,43,44)/t18-,23+,24?,26+/m1/s1
> <PUBCHEM_IUPAC_INCHIKEY>
PHGCPAJICAUKGM-LMTSCQGRSA-N
> <PUBCHEM_XLOGP3_AA>
4.3
> <PUBCHEM_EXACT_MASS>
659.2021408
> <PUBCHEM_MOLECULAR_FORMULA>
C30H34ClF4N3O7
> <PUBCHEM_MOLECULAR_WEIGHT>
660.1
> <PUBCHEM_OPENEYE_CAN_SMILES>
CC(C)C(C(=O)N1CC(CC1C(=O)NC(CC(F)F)C(=O)NCCC2=C(C=C(C=C2F)C(=O)O)F)OCC3=CC=CC=C3Cl)O
> <PUBCHEM_OPENEYE_ISO_SMILES>
CC(C)[C@@H](C(=O)N1C[C@@H](CC1C(=O)N[C@@H](CC(F)F)C(=O)NCCC2=C(C=C(C=C2F)C(=O)O)F)OCC3=CC=CC=C3Cl)O
> <PUBCHEM_CACTVS_TPSA>
145
> <PUBCHEM_MONOISOTOPIC_WEIGHT>
659.2021408
> <PUBCHEM_TOTAL_CHARGE>
0
> <PUBCHEM_HEAVY_ATOM_COUNT>
45
> <PUBCHEM_ATOM_DEF_STEREO_COUNT>
3
> <PUBCHEM_ATOM_UDEF_STEREO_COUNT>
1
> <PUBCHEM_BOND_DEF_STEREO_COUNT>
0
> <PUBCHEM_BOND_UDEF_STEREO_COUNT>
0
> <PUBCHEM_ISOTOPIC_ATOM_COUNT>
0
> <PUBCHEM_COMPONENT_COUNT>
1
> <PUBCHEM_CACTVS_TAUTO_COUNT>
-1
> <PUBCHEM_COORDINATE_TYPE>
1
5
255
> <PUBCHEM_BONDANNOTATIONS>
24  14  6
16  20  3
29  32  8
29  33  8
32  36  8
33  37  8
36  38  8
37  38  8
39  40  8
39  41  8
40  42  8
41  43  8
42  44  8
43  44  8
17  6  5
22  9  5
$$$$
