507642
  -OEChem-10302200282D
100102  0     1  0  0  0  0  0999 V2000
    9.5516    3.9977    0.0000 S   0  0  0  0  0  0  0  0  0  0  0  0
    3.7320    3.3817    0.0000 F   0  0  0  0  0  0  0  0  0  0  0  0
    5.4641    3.3817    0.0000 F   0  0  0  0  0  0  0  0  0  0  0  0
    5.4641   -2.6183    0.0000 F   0  0  0  0  0  0  0  0  0  0  0  0
    2.0000   -2.6183    0.0000 F   0  0  0  0  0  0  0  0  0  0  0  0
   10.4651    3.5909    0.0000 O   0  0  0  0  0  0  0  0  0  0  0  0
    8.6380    4.4044    0.0000 O   0  0  0  0  0  0  0  0  0  0  0  0
    8.4405   -0.1723    0.0000 O   0  0  0  0  0  0  0  0  0  0  0  0
    7.1962    0.3817    0.0000 O   0  0  0  0  0  0  0  0  0  0  0  0
   11.5016   -2.0775    0.0000 O   0  0  0  0  0  0  0  0  0  0  0  0
    6.3301   -0.1183    0.0000 O   0  0  0  0  0  0  0  0  0  0  0  0
   12.0368   -0.4302    0.0000 O   0  0  0  0  0  0  0  0  0  0  0  0
    2.8660   -6.1183    0.0000 O   0  0  0  0  0  0  0  0  0  0  0  0
    4.5981   -6.1183    0.0000 O   0  0  0  0  0  0  0  0  0  0  0  0
    8.9757    1.4750    0.0000 N   0  0  0  0  0  0  0  0  0  0  0  0
    6.3301    1.8817    0.0000 N   0  0  0  0  0  0  0  0  0  0  0  0
   10.3426   -0.7904    0.0000 N   0  0  0  0  0  0  0  0  0  0  0  0
    4.5981   -0.1183    0.0000 N   0  0  0  0  0  0  0  0  0  0  0  0
    9.1448    3.0841    0.0000 C   0  0  2  0  0  0  0  0  0  0  0  0
    9.9583    4.9112    0.0000 C   0  0  0  0  0  0  0  0  0  0  0  0
    8.1667    2.8762    0.0000 C   0  0  0  0  0  0  0  0  0  0  0  0
    9.6448    2.2181    0.0000 C   0  0  0  0  0  0  0  0  0  0  0  0
    8.0622    1.8817    0.0000 C   0  0  1  0  0  0  0  0  0  0  0  0
    9.3705    5.7202    0.0000 C   0  0  0  0  0  0  0  0  0  0  0  0
   10.9528    5.0158    0.0000 C   0  0  0  0  0  0  0  0  0  0  0  0
    9.7773    6.6338    0.0000 C   0  0  0  0  0  0  0  0  0  0  0  0
   11.3596    5.9293    0.0000 C   0  0  0  0  0  0  0  0  0  0  0  0
   10.7718    6.7383    0.0000 C   0  0  0  0  0  0  0  0  0  0  0  0
    9.1836    0.4968    0.0000 C   0  0  0  0  0  0  0  0  0  0  0  0
    7.1962    1.3817    0.0000 C   0  0  0  0  0  0  0  0  0  0  0  0
   10.1347    0.1878    0.0000 C   0  0  2  0  0  0  0  0  0  0  0  0
   10.8778    0.8569    0.0000 C   0  0  0  0  0  0  0  0  0  0  0  0
    5.4641    1.3817    0.0000 C   0  0  1  0  0  0  0  0  0  0  0  0
   11.8289    0.5479    0.0000 C   0  0  0  0  0  0  0  0  0  0  0  0
   10.6699    1.8351    0.0000 C   0  0  0  0  0  0  0  0  0  0  0  0
    4.5981    1.8817    0.0000 C   0  0  0  0  0  0  0  0  0  0  0  0
    5.4641    0.3817    0.0000 C   0  0  0  0  0  0  0  0  0  0  0  0
   11.2937   -1.0994    0.0000 C   0  0  0  0  0  0  0  0  0  0  0  0
    4.5981    2.8817    0.0000 C   0  0  0  0  0  0  0  0  0  0  0  0
    4.5981   -1.1183    0.0000 C   0  0  0  0  0  0  0  0  0  0  0  0
   12.4526   -2.3865    0.0000 C   0  0  0  0  0  0  0  0  0  0  0  0
    3.7320   -1.6183    0.0000 C   0  0  0  0  0  0  0  0  0  0  0  0
   12.6605   -3.3647    0.0000 C   0  0  0  0  0  0  0  0  0  0  0  0
    3.7320   -2.6183    0.0000 C   0  0  0  0  0  0  0  0  0  0  0  0
   13.6116   -3.6737    0.0000 C   0  0  0  0  0  0  0  0  0  0  0  0
   11.9174   -4.0338    0.0000 C   0  0  0  0  0  0  0  0  0  0  0  0
    4.5981   -3.1183    0.0000 C   0  0  0  0  0  0  0  0  0  0  0  0
    2.8660   -3.1183    0.0000 C   0  0  0  0  0  0  0  0  0  0  0  0
    4.5981   -4.1183    0.0000 C   0  0  0  0  0  0  0  0  0  0  0  0
    2.8660   -4.1183    0.0000 C   0  0  0  0  0  0  0  0  0  0  0  0
    3.7320   -4.6183    0.0000 C   0  0  0  0  0  0  0  0  0  0  0  0
    3.7320   -5.6183    0.0000 C   0  0  0  0  0  0  0  0  0  0  0  0
    8.7547    3.5660    0.0000 H   0  0  0  0  0  0  0  0  0  0  0  0
    9.3417    4.8464    0.0000 H   0  0  0  0  0  0  0  0  0  0  0  0
    8.1019    3.4928    0.0000 H   0  0  0  0  0  0  0  0  0  0  0  0
    7.5467    2.8762    0.0000 H   0  0  0  0  0  0  0  0  0  0  0  0
   10.0597    1.7574    0.0000 H   0  0  0  0  0  0  0  0  0  0  0  0
   10.1464    2.5825    0.0000 H   0  0  0  0  0  0  0  0  0  0  0  0
    8.0946    1.2625    0.0000 H   0  0  0  0  0  0  0  0  0  0  0  0
    8.8565    6.0669    0.0000 H   0  0  0  0  0  0  0  0  0  0  0  0
    8.9398    5.2742    0.0000 H   0  0  0  0  0  0  0  0  0  0  0  0
   10.9096    4.3973    0.0000 H   0  0  0  0  0  0  0  0  0  0  0  0
   11.5544    4.8658    0.0000 H   0  0  0  0  0  0  0  0  0  0  0  0
    9.8205    7.2523    0.0000 H   0  0  0  0  0  0  0  0  0  0  0  0
    9.1757    6.7838    0.0000 H   0  0  0  0  0  0  0  0  0  0  0  0
   11.8736    5.5826    0.0000 H   0  0  0  0  0  0  0  0  0  0  0  0
   11.7903    6.3753    0.0000 H   0  0  0  0  0  0  0  0  0  0  0  0
   11.3291    7.0101    0.0000 H   0  0  0  0  0  0  0  0  0  0  0  0
   10.6009    7.3343    0.0000 H   0  0  0  0  0  0  0  0  0  0  0  0
   10.7243   -0.0038    0.0000 H   0  0  0  0  0  0  0  0  0  0  0  0
   10.2882    1.0485    0.0000 H   0  0  0  0  0  0  0  0  0  0  0  0
    6.3301    2.5017    0.0000 H   0  0  0  0  0  0  0  0  0  0  0  0
    5.4641    2.0017    0.0000 H   0  0  0  0  0  0  0  0  0  0  0  0
    9.8818   -1.2052    0.0000 H   0  0  0  0  0  0  0  0  0  0  0  0
   11.6373   -0.0418    0.0000 H   0  0  0  0  0  0  0  0  0  0  0  0
   12.4185    0.3563    0.0000 H   0  0  0  0  0  0  0  0  0  0  0  0
   12.0205    1.1376    0.0000 H   0  0  0  0  0  0  0  0  0  0  0  0
   11.2764    1.9640    0.0000 H   0  0  0  0  0  0  0  0  0  0  0  0
   10.5410    2.4415    0.0000 H   0  0  0  0  0  0  0  0  0  0  0  0
   10.0635    1.7062    0.0000 H   0  0  0  0  0  0  0  0  0  0  0  0
    3.9875    1.9894    0.0000 H   0  0  0  0  0  0  0  0  0  0  0  0
    4.3860    1.2991    0.0000 H   0  0  0  0  0  0  0  0  0  0  0  0
    4.5981    3.5017    0.0000 H   0  0  0  0  0  0  0  0  0  0  0  0
    4.0611    0.1917    0.0000 H   0  0  0  0  0  0  0  0  0  0  0  0
    4.8101   -1.7009    0.0000 H   0  0  0  0  0  0  0  0  0  0  0  0
    5.2087   -1.0106    0.0000 H   0  0  0  0  0  0  0  0  0  0  0  0
   13.0723   -2.3649    0.0000 H   0  0  0  0  0  0  0  0  0  0  0  0
   12.5389   -1.7726    0.0000 H   0  0  0  0  0  0  0  0  0  0  0  0
    3.5200   -1.0357    0.0000 H   0  0  0  0  0  0  0  0  0  0  0  0
    3.1215   -1.7260    0.0000 H   0  0  0  0  0  0  0  0  0  0  0  0
   12.7894   -3.9711    0.0000 H   0  0  0  0  0  0  0  0  0  0  0  0
   13.4200   -4.2634    0.0000 H   0  0  0  0  0  0  0  0  0  0  0  0
   14.2013   -3.8653    0.0000 H   0  0  0  0  0  0  0  0  0  0  0  0
   13.8032   -3.0840    0.0000 H   0  0  0  0  0  0  0  0  0  0  0  0
   11.5025   -3.5731    0.0000 H   0  0  0  0  0  0  0  0  0  0  0  0
   11.4566   -4.4487    0.0000 H   0  0  0  0  0  0  0  0  0  0  0  0
   12.3323   -4.4946    0.0000 H   0  0  0  0  0  0  0  0  0  0  0  0
    5.1350   -4.4283    0.0000 H   0  0  0  0  0  0  0  0  0  0  0  0
    2.3291   -4.4283    0.0000 H   0  0  0  0  0  0  0  0  0  0  0  0
    2.8660   -6.7383    0.0000 H   0  0  0  0  0  0  0  0  0  0  0  0
  1  6  2  0  0  0  0
  1  7  2  0  0  0  0
 19  1  1  1  0  0  0
  1 20  1  0  0  0  0
  2 39  1  0  0  0  0
  3 39  1  0  0  0  0
  4 47  1  0  0  0  0
  5 48  1  0  0  0  0
  8 29  2  0  0  0  0
  9 30  2  0  0  0  0
 10 38  1  0  0  0  0
 10 41  1  0  0  0  0
 11 37  2  0  0  0  0
 12 38  2  0  0  0  0
 13 52  1  0  0  0  0
 13100  1  0  0  0  0
 14 52  2  0  0  0  0
 15 22  1  0  0  0  0
 15 23  1  0  0  0  0
 15 29  1  0  0  0  0
 16 30  1  0  0  0  0
 33 16  1  6  0  0  0
 16 72  1  0  0  0  0
 31 17  1  6  0  0  0
 17 38  1  0  0  0  0
 17 74  1  0  0  0  0
 18 37  1  0  0  0  0
 18 40  1  0  0  0  0
 18 84  1  0  0  0  0
 19 21  1  0  0  0  0
 19 22  1  0  0  0  0
 19 53  1  0  0  0  0
 20 24  1  0  0  0  0
 20 25  1  0  0  0  0
 20 54  1  0  0  0  0
 21 23  1  0  0  0  0
 21 55  1  0  0  0  0
 21 56  1  0  0  0  0
 22 57  1  0  0  0  0
 22 58  1  0  0  0  0
 23 30  1  6  0  0  0
 23 59  1  0  0  0  0
 24 26  1  0  0  0  0
 24 60  1  0  0  0  0
 24 61  1  0  0  0  0
 25 27  1  0  0  0  0
 25 62  1  0  0  0  0
 25 63  1  0  0  0  0
 26 28  1  0  0  0  0
 26 64  1  0  0  0  0
 26 65  1  0  0  0  0
 27 28  1  0  0  0  0
 27 66  1  0  0  0  0
 27 67  1  0  0  0  0
 28 68  1  0  0  0  0
 28 69  1  0  0  0  0
 29 31  1  0  0  0  0
 31 32  1  0  0  0  0
 31 70  1  0  0  0  0
 32 34  1  0  0  0  0
 32 35  1  0  0  0  0
 32 71  1  0  0  0  0
 33 36  1  0  0  0  0
 33 37  1  0  0  0  0
 33 73  1  0  0  0  0
 34 75  1  0  0  0  0
 34 76  1  0  0  0  0
 34 77  1  0  0  0  0
 35 78  1  0  0  0  0
 35 79  1  0  0  0  0
 35 80  1  0  0  0  0
 36 39  1  0  0  0  0
 36 81  1  0  0  0  0
 36 82  1  0  0  0  0
 39 83  1  0  0  0  0
 40 42  1  0  0  0  0
 40 85  1  0  0  0  0
 40 86  1  0  0  0  0
 41 43  1  0  0  0  0
 41 87  1  0  0  0  0
 41 88  1  0  0  0  0
 42 44  1  0  0  0  0
 42 89  1  0  0  0  0
 42 90  1  0  0  0  0
 43 45  1  0  0  0  0
 43 46  1  0  0  0  0
 43 91  1  0  0  0  0
 44 47  2  0  0  0  0
 44 48  1  0  0  0  0
 45 92  1  0  0  0  0
 45 93  1  0  0  0  0
 45 94  1  0  0  0  0
 46 95  1  0  0  0  0
 46 96  1  0  0  0  0
 46 97  1  0  0  0  0
 47 49  1  0  0  0  0
 48 50  2  0  0  0  0
 49 51  2  0  0  0  0
 49 98  1  0  0  0  0
 50 51  1  0  0  0  0
 50 99  1  0  0  0  0
 51 52  1  0  0  0  0
M  END
> <PUBCHEM_COMPOUND_CID>
507642
> <PUBCHEM_COMPOUND_CANONICALIZED>
1
> <PUBCHEM_CACTVS_COMPLEXITY>
1350
> <PUBCHEM_CACTVS_HBOND_ACCEPTOR>
13
> <PUBCHEM_CACTVS_HBOND_DONOR>
4
> <PUBCHEM_CACTVS_ROTATABLE_BOND>
17
> <PUBCHEM_CACTVS_SUBSKEYS>
AAADcfB/vcBAAAAAAAAAAAAAAAAAAWAAAAAwYAAAAAAAAAABAAAAHwQQCAAADSjl2B6yCIPABgqIAiHSGHBCAAAkABAAiIGICMkIZjKglTGccQAk1gGomYeYyfCOQAAAAAAAAACAAAAAAAAAAAAAAAAAAA==
> <PUBCHEM_IUPAC_OPENEYE_NAME>
4-[2-[[(2S)-2-[[(2S,4R)-4-cyclohexylsulfonyl-1-[(2S)-2-(isobutoxycarbonylamino)-3-methyl-butanoyl]pyrrolidine-2-carbonyl]amino]-4,4-difluoro-butanoyl]amino]ethyl]-3,5-difluoro-benzoic acid
> <PUBCHEM_IUPAC_CAS_NAME>
4-[2-[[(2S)-2-[[[(2S,4R)-4-cyclohexylsulfonyl-1-[(2S)-3-methyl-2-[[2-methylpropoxy(oxo)methyl]amino]-1-oxobutyl]-2-pyrrolidinyl]-oxomethyl]amino]-4,4-difluoro-1-oxobutyl]amino]ethyl]-3,5-difluorobenzoic acid
> <PUBCHEM_IUPAC_NAME_MARKUP>
4-[2-[[(2<I>S</I>)-2-[[(2<I>S</I>,4<I>R</I>)-4-cyclohexylsulfonyl-1-[(2<I>S</I>)-3-methyl-2-(2-methylpropoxycarbonylamino)butanoyl]pyrrolidine-2-carbonyl]amino]-4,4-difluorobutanoyl]amino]ethyl]-3,5-difluorobenzoic acid
> <PUBCHEM_IUPAC_NAME>
4-[2-[[(2S)-2-[[(2S,4R)-4-cyclohexylsulfonyl-1-[(2S)-3-methyl-2-(2-methylpropoxycarbonylamino)butanoyl]pyrrolidine-2-carbonyl]amino]-4,4-difluorobutanoyl]amino]ethyl]-3,5-difluorobenzoic acid
> <PUBCHEM_IUPAC_SYSTEMATIC_NAME>
4-[2-[[(2S)-2-[[(2S,4R)-4-cyclohexylsulfonyl-1-[(2S)-3-methyl-2-(2-methylpropoxycarbonylamino)butanoyl]pyrrolidin-2-yl]carbonylamino]-4,4-bis(fluoranyl)butanoyl]amino]ethyl]-3,5-bis(fluoranyl)benzoic acid
> <PUBCHEM_IUPAC_TRADITIONAL_NAME>
4-[2-[[(2S)-2-[[(2S,4R)-4-cyclohexylsulfonyl-1-[(2S)-2-(isobutoxycarbonylamino)-3-methyl-butanoyl]prolyl]amino]-4,4-difluoro-butanoyl]amino]ethyl]-3,5-difluoro-benzoic acid
> <PUBCHEM_IUPAC_INCHI>
InChI=1S/C34H48F4N4O9S/c1-18(2)17-51-34(48)41-29(19(3)4)32(45)42-16-22(52(49,50)21-8-6-5-7-9-21)14-27(42)31(44)40-26(15-28(37)38)30(43)39-11-10-23-24(35)12-20(33(46)47)13-25(23)36/h12-13,18-19,21-22,26-29H,5-11,14-17H2,1-4H3,(H,39,43)(H,40,44)(H,41,48)(H,46,47)/t22-,26+,27+,29+/m1/s1
> <PUBCHEM_IUPAC_INCHIKEY>
QZOWYBWVMQVFQN-NLALRGLNSA-N
> <PUBCHEM_XLOGP3_AA>
5.2
> <PUBCHEM_EXACT_MASS>
764.30781294
> <PUBCHEM_MOLECULAR_FORMULA>
C34H48F4N4O9S
> <PUBCHEM_MOLECULAR_WEIGHT>
764.8
> <PUBCHEM_OPENEYE_CAN_SMILES>
CC(C)COC(=O)NC(C(C)C)C(=O)N1CC(CC1C(=O)NC(CC(F)F)C(=O)NCCC2=C(C=C(C=C2F)C(=O)O)F)S(=O)(=O)C3CCCCC3
> <PUBCHEM_OPENEYE_ISO_SMILES>
CC(C)COC(=O)N[C@@H](C(C)C)C(=O)N1C[C@@H](C[C@H]1C(=O)N[C@@H](CC(F)F)C(=O)NCCC2=C(C=C(C=C2F)C(=O)O)F)S(=O)(=O)C3CCCCC3
> <PUBCHEM_CACTVS_TPSA>
197
> <PUBCHEM_MONOISOTOPIC_WEIGHT>
764.30781294
> <PUBCHEM_TOTAL_CHARGE>
0
> <PUBCHEM_HEAVY_ATOM_COUNT>
52
> <PUBCHEM_ATOM_DEF_STEREO_COUNT>
4
> <PUBCHEM_ATOM_UDEF_STEREO_COUNT>
0
> <PUBCHEM_BOND_DEF_STEREO_COUNT>
0
> <PUBCHEM_BOND_UDEF_STEREO_COUNT>
0
> <PUBCHEM_ISOTOPIC_ATOM_COUNT>
0
> <PUBCHEM_COMPONENT_COUNT>
1
> <PUBCHEM_CACTVS_TAUTO_COUNT>
-1
> <PUBCHEM_COORDINATE_TYPE>
1
5
255
> <PUBCHEM_BONDANNOTATIONS>
19  1  5
33  16  6
31  17  6
23  30  6
44  47  8
44  48  8
47  49  8
48  50  8
49  51  8
50  51  8
$$$$
