507600
  -OEChem-10302200282D
 98101  0     1  0  0  0  0  0999 V2000
    6.5662    4.2918    0.0000 F   0  0  0  0  0  0  0  0  0  0  0  0
    7.4323    5.7918    0.0000 F   0  0  0  0  0  0  0  0  0  0  0  0
    8.1559   -0.0628    0.0000 O   0  0  0  0  0  0  0  0  0  0  0  0
    8.2983    1.2918    0.0000 O   0  0  0  0  0  0  0  0  0  0  0  0
    8.2753   -3.6664    0.0000 O   0  0  0  0  0  0  0  0  0  0  0  0
    9.1643    1.7918    0.0000 O   0  0  0  0  0  0  0  0  0  0  0  0
    6.5811   -3.3063    0.0000 O   0  0  0  0  0  0  0  0  0  0  0  0
    4.6790   -3.9243    0.0000 O   0  0  0  0  0  0  0  0  0  0  0  0
    4.1438   -2.2770    0.0000 O   0  0  0  0  0  0  0  0  0  0  0  0
    6.4617    0.2973    0.0000 N   0  0  0  0  0  0  0  0  0  0  0  0
    7.4323    2.7918    0.0000 N   0  0  0  0  0  0  0  0  0  0  0  0
    7.7401   -2.0191    0.0000 N   0  0  0  0  0  0  0  0  0  0  0  0
   10.0303    3.2918    0.0000 N   0  0  0  0  0  0  0  0  0  0  0  0
    4.9836    0.9554    0.0000 C   0  0  2  0  0  0  0  0  0  0  0  0
    6.5662    1.2918    0.0000 C   0  0  1  0  0  0  0  0  0  0  0  0
    5.6527    1.6986    0.0000 C   0  0  0  0  0  0  0  0  0  0  0  0
    5.4836    0.0894    0.0000 C   0  0  0  0  0  0  0  0  0  0  0  0
    3.9890    1.0599    0.0000 C   0  0  0  0  0  0  0  0  0  0  0  0
    7.2049   -0.3718    0.0000 C   0  0  0  0  0  0  0  0  0  0  0  0
    7.4323    1.7918    0.0000 C   0  0  0  0  0  0  0  0  0  0  0  0
    6.9970   -1.3500    0.0000 C   0  0  2  0  0  0  0  0  0  0  0  0
    3.5823    1.9735    0.0000 C   0  0  0  0  0  0  0  0  0  0  0  0
    3.4013    0.2509    0.0000 C   0  0  0  0  0  0  0  0  0  0  0  0
    6.0459   -1.6590    0.0000 C   0  0  0  0  0  0  0  0  0  0  0  0
    8.2983    3.2918    0.0000 C   0  0  1  0  0  0  0  0  0  0  0  0
    2.5878    2.0780    0.0000 C   0  0  0  0  0  0  0  0  0  0  0  0
    2.4067    0.3554    0.0000 C   0  0  0  0  0  0  0  0  0  0  0  0
    5.8380   -2.6372    0.0000 C   0  0  0  0  0  0  0  0  0  0  0  0
    8.2983    4.2918    0.0000 C   0  0  0  0  0  0  0  0  0  0  0  0
    2.0000    1.2690    0.0000 C   0  0  0  0  0  0  0  0  0  0  0  0
    9.1643    2.7918    0.0000 C   0  0  0  0  0  0  0  0  0  0  0  0
    7.5322   -2.9973    0.0000 C   0  0  0  0  0  0  0  0  0  0  0  0
    7.4323    4.7918    0.0000 C   0  0  0  0  0  0  0  0  0  0  0  0
    4.8869   -2.9462    0.0000 C   0  0  0  0  0  0  0  0  0  0  0  0
   10.8964    2.7918    0.0000 C   0  0  0  0  0  0  0  0  0  0  0  0
   11.7624    3.2918    0.0000 C   0  0  0  0  0  0  0  0  0  0  0  0
    8.0674   -4.6445    0.0000 C   0  0  0  0  0  0  0  0  0  0  0  0
    8.8106   -5.3137    0.0000 C   0  0  0  0  0  0  0  0  0  0  0  0
   12.6284    2.7918    0.0000 C   0  0  0  0  0  0  0  0  0  0  0  0
    8.6026   -6.2918    0.0000 C   0  0  0  0  0  0  0  0  0  0  0  0
    9.7616   -5.0046    0.0000 C   0  0  0  0  0  0  0  0  0  0  0  0
   13.4944    3.2918    0.0000 C   0  0  0  0  0  0  0  0  0  0  0  0
   12.6284    1.7918    0.0000 C   0  0  0  0  0  0  0  0  0  0  0  0
   13.4944    4.2918    0.0000 C   0  0  0  0  0  0  0  0  0  0  0  0
   14.3605    2.7918    0.0000 C   0  0  0  0  0  0  0  0  0  0  0  0
   13.4944    1.2918    0.0000 C   0  0  0  0  0  0  0  0  0  0  0  0
   14.3605    1.7918    0.0000 C   0  0  0  0  0  0  0  0  0  0  0  0
   12.6284    4.7918    0.0000 C   0  0  0  0  0  0  0  0  0  0  0  0
   14.3605    4.7918    0.0000 C   0  0  0  0  0  0  0  0  0  0  0  0
   12.6284    5.7918    0.0000 C   0  0  0  0  0  0  0  0  0  0  0  0
   14.3605    5.7918    0.0000 C   0  0  0  0  0  0  0  0  0  0  0  0
   13.4944    6.2918    0.0000 C   0  0  0  0  0  0  0  0  0  0  0  0
    4.6459    0.4354    0.0000 H   0  0  0  0  0  0  0  0  0  0  0  0
    7.0862    0.9541    0.0000 H   0  0  0  0  0  0  0  0  0  0  0  0
    5.9627    2.2355    0.0000 H   0  0  0  0  0  0  0  0  0  0  0  0
    5.1511    2.0630    0.0000 H   0  0  0  0  0  0  0  0  0  0  0  0
    4.9172   -0.1628    0.0000 H   0  0  0  0  0  0  0  0  0  0  0  0
    5.6752   -0.5003    0.0000 H   0  0  0  0  0  0  0  0  0  0  0  0
    6.8680   -1.9564    0.0000 H   0  0  0  0  0  0  0  0  0  0  0  0
    6.8953    3.1018    0.0000 H   0  0  0  0  0  0  0  0  0  0  0  0
    3.9467    2.4751    0.0000 H   0  0  0  0  0  0  0  0  0  0  0  0
    3.6534   -0.3155    0.0000 H   0  0  0  0  0  0  0  0  0  0  0  0
    5.9596   -1.0450    0.0000 H   0  0  0  0  0  0  0  0  0  0  0  0
    5.4263   -1.6374    0.0000 H   0  0  0  0  0  0  0  0  0  0  0  0
    7.7614    3.6018    0.0000 H   0  0  0  0  0  0  0  0  0  0  0  0
    8.3298   -1.8275    0.0000 H   0  0  0  0  0  0  0  0  0  0  0  0
    2.3356    2.6444    0.0000 H   0  0  0  0  0  0  0  0  0  0  0  0
    2.0423   -0.1461    0.0000 H   0  0  0  0  0  0  0  0  0  0  0  0
    5.9243   -3.2511    0.0000 H   0  0  0  0  0  0  0  0  0  0  0  0
    6.4576   -2.6588    0.0000 H   0  0  0  0  0  0  0  0  0  0  0  0
    8.9089    4.1842    0.0000 H   0  0  0  0  0  0  0  0  0  0  0  0
    8.5103    4.8744    0.0000 H   0  0  0  0  0  0  0  0  0  0  0  0
    1.3834    1.3338    0.0000 H   0  0  0  0  0  0  0  0  0  0  0  0
    7.9692    5.1018    0.0000 H   0  0  0  0  0  0  0  0  0  0  0  0
   10.0303    3.9118    0.0000 H   0  0  0  0  0  0  0  0  0  0  0  0
   10.4978    2.3169    0.0000 H   0  0  0  0  0  0  0  0  0  0  0  0
   11.2949    2.3169    0.0000 H   0  0  0  0  0  0  0  0  0  0  0  0
   12.1609    3.7668    0.0000 H   0  0  0  0  0  0  0  0  0  0  0  0
   11.3639    3.7668    0.0000 H   0  0  0  0  0  0  0  0  0  0  0  0
    7.4926   -4.4123    0.0000 H   0  0  0  0  0  0  0  0  0  0  0  0
    7.7389   -5.1703    0.0000 H   0  0  0  0  0  0  0  0  0  0  0  0
    8.9395   -4.7072    0.0000 H   0  0  0  0  0  0  0  0  0  0  0  0
    4.0893   -4.1159    0.0000 H   0  0  0  0  0  0  0  0  0  0  0  0
    7.9962   -6.1629    0.0000 H   0  0  0  0  0  0  0  0  0  0  0  0
    8.4737   -6.8983    0.0000 H   0  0  0  0  0  0  0  0  0  0  0  0
    9.2091   -6.4207    0.0000 H   0  0  0  0  0  0  0  0  0  0  0  0
    9.9532   -5.5943    0.0000 H   0  0  0  0  0  0  0  0  0  0  0  0
   10.3513   -4.8131    0.0000 H   0  0  0  0  0  0  0  0  0  0  0  0
    9.5700   -4.4150    0.0000 H   0  0  0  0  0  0  0  0  0  0  0  0
   12.0915    1.4818    0.0000 H   0  0  0  0  0  0  0  0  0  0  0  0
   14.8974    3.1018    0.0000 H   0  0  0  0  0  0  0  0  0  0  0  0
   13.4944    0.6718    0.0000 H   0  0  0  0  0  0  0  0  0  0  0  0
   14.8974    1.4818    0.0000 H   0  0  0  0  0  0  0  0  0  0  0  0
   12.0915    4.4818    0.0000 H   0  0  0  0  0  0  0  0  0  0  0  0
   14.8974    4.4818    0.0000 H   0  0  0  0  0  0  0  0  0  0  0  0
   12.0915    6.1018    0.0000 H   0  0  0  0  0  0  0  0  0  0  0  0
   14.8974    6.1018    0.0000 H   0  0  0  0  0  0  0  0  0  0  0  0
   13.4944    6.9118    0.0000 H   0  0  0  0  0  0  0  0  0  0  0  0
  1 33  1  0  0  0  0
  2 33  1  0  0  0  0
  3 19  2  0  0  0  0
  4 20  2  0  0  0  0
  5 32  1  0  0  0  0
  5 37  1  0  0  0  0
  6 31  2  0  0  0  0
  7 32  2  0  0  0  0
  8 34  1  0  0  0  0
  8 83  1  0  0  0  0
  9 34  2  0  0  0  0
 10 15  1  0  0  0  0
 10 17  1  0  0  0  0
 10 19  1  0  0  0  0
 11 20  1  0  0  0  0
 25 11  1  1  0  0  0
 11 60  1  0  0  0  0
 21 12  1  1  0  0  0
 12 32  1  0  0  0  0
 12 66  1  0  0  0  0
 13 31  1  0  0  0  0
 13 35  1  0  0  0  0
 13 75  1  0  0  0  0
 14 16  1  0  0  0  0
 14 17  1  0  0  0  0
 14 18  1  6  0  0  0
 14 53  1  0  0  0  0
 15 16  1  0  0  0  0
 15 20  1  1  0  0  0
 15 54  1  0  0  0  0
 16 55  1  0  0  0  0
 16 56  1  0  0  0  0
 17 57  1  0  0  0  0
 17 58  1  0  0  0  0
 18 22  2  0  0  0  0
 18 23  1  0  0  0  0
 19 21  1  0  0  0  0
 21 24  1  0  0  0  0
 21 59  1  0  0  0  0
 22 26  1  0  0  0  0
 22 61  1  0  0  0  0
 23 27  2  0  0  0  0
 23 62  1  0  0  0  0
 24 28  1  0  0  0  0
 24 63  1  0  0  0  0
 24 64  1  0  0  0  0
 25 29  1  0  0  0  0
 25 31  1  0  0  0  0
 25 65  1  0  0  0  0
 26 30  2  0  0  0  0
 26 67  1  0  0  0  0
 27 30  1  0  0  0  0
 27 68  1  0  0  0  0
 28 34  1  0  0  0  0
 28 69  1  0  0  0  0
 28 70  1  0  0  0  0
 29 33  1  0  0  0  0
 29 71  1  0  0  0  0
 29 72  1  0  0  0  0
 30 73  1  0  0  0  0
 33 74  1  0  0  0  0
 35 36  1  0  0  0  0
 35 76  1  0  0  0  0
 35 77  1  0  0  0  0
 36 39  1  0  0  0  0
 36 78  1  0  0  0  0
 36 79  1  0  0  0  0
 37 38  1  0  0  0  0
 37 80  1  0  0  0  0
 37 81  1  0  0  0  0
 38 40  1  0  0  0  0
 38 41  1  0  0  0  0
 38 82  1  0  0  0  0
 39 42  1  0  0  0  0
 39 43  2  0  0  0  0
 40 84  1  0  0  0  0
 40 85  1  0  0  0  0
 40 86  1  0  0  0  0
 41 87  1  0  0  0  0
 41 88  1  0  0  0  0
 41 89  1  0  0  0  0
 42 44  1  0  0  0  0
 42 45  2  0  0  0  0
 43 46  1  0  0  0  0
 43 90  1  0  0  0  0
 44 48  2  0  0  0  0
 44 49  1  0  0  0  0
 45 47  1  0  0  0  0
 45 91  1  0  0  0  0
 46 47  2  0  0  0  0
 46 92  1  0  0  0  0
 47 93  1  0  0  0  0
 48 50  1  0  0  0  0
 48 94  1  0  0  0  0
 49 51  2  0  0  0  0
 49 95  1  0  0  0  0
 50 52  2  0  0  0  0
 50 96  1  0  0  0  0
 51 52  1  0  0  0  0
 51 97  1  0  0  0  0
 52 98  1  0  0  0  0
M  END
> <PUBCHEM_COMPOUND_CID>
507600
> <PUBCHEM_COMPOUND_CANONICALIZED>
1
> <PUBCHEM_CACTVS_COMPLEXITY>
1180
> <PUBCHEM_CACTVS_HBOND_ACCEPTOR>
9
> <PUBCHEM_CACTVS_HBOND_DONOR>
4
> <PUBCHEM_CACTVS_ROTATABLE_BOND>
18
> <PUBCHEM_CACTVS_SUBSKEYS>
AAADcfB/uYAAAAAAAAAAAAAAAAAAAWAAAAAwYMAAAAAAAAABUAAAHwAQCAAADSjhmBYyCIPABgCIAiHSGAACAAAgAAAIiIGIAIkIYDKAkTGcYAAklgCIiAe8n8KOgAAAAAAQAAAAAAAAACAAAAAAAAAAAA==
> <PUBCHEM_IUPAC_OPENEYE_NAME>
(4S)-5-[(2S,4S)-2-[[(1S)-3,3-difluoro-1-[2-(2-phenylphenyl)ethylcarbamoyl]propyl]carbamoyl]-4-phenyl-pyrrolidin-1-yl]-4-(isobutoxycarbonylamino)-5-oxo-pentanoic acid
> <PUBCHEM_IUPAC_CAS_NAME>
(4S)-5-[(2S,4S)-2-[[[(2S)-4,4-difluoro-1-oxo-1-[2-(2-phenylphenyl)ethylamino]butan-2-yl]amino]-oxomethyl]-4-phenyl-1-pyrrolidinyl]-4-[[2-methylpropoxy(oxo)methyl]amino]-5-oxopentanoic acid
> <PUBCHEM_IUPAC_NAME_MARKUP>
(4<I>S</I>)-5-[(2<I>S</I>,4<I>S</I>)-2-[[(2<I>S</I>)-4,4-difluoro-1-oxo-1-[2-(2-phenylphenyl)ethylamino]butan-2-yl]carbamoyl]-4-phenylpyrrolidin-1-yl]-4-(2-methylpropoxycarbonylamino)-5-oxopentanoic acid
> <PUBCHEM_IUPAC_NAME>
(4S)-5-[(2S,4S)-2-[[(2S)-4,4-difluoro-1-oxo-1-[2-(2-phenylphenyl)ethylamino]butan-2-yl]carbamoyl]-4-phenylpyrrolidin-1-yl]-4-(2-methylpropoxycarbonylamino)-5-oxopentanoic acid
> <PUBCHEM_IUPAC_SYSTEMATIC_NAME>
(4S)-5-[(2S,4S)-2-[[(2S)-4,4-bis(fluoranyl)-1-oxidanylidene-1-[2-(2-phenylphenyl)ethylamino]butan-2-yl]carbamoyl]-4-phenyl-pyrrolidin-1-yl]-4-(2-methylpropoxycarbonylamino)-5-oxidanylidene-pentanoic acid
> <PUBCHEM_IUPAC_TRADITIONAL_NAME>
(4S)-5-[(2S,4S)-2-[[(1S)-3,3-difluoro-1-[2-(2-phenylphenyl)ethylcarbamoyl]propyl]carbamoyl]-4-phenyl-pyrrolidino]-4-(isobutoxycarbonylamino)-5-keto-valeric acid
> <PUBCHEM_IUPAC_INCHI>
InChI=1S/C39H46F2N4O7/c1-25(2)24-52-39(51)44-31(17-18-35(46)47)38(50)45-23-29(26-11-5-3-6-12-26)21-33(45)37(49)43-32(22-34(40)41)36(48)42-20-19-28-15-9-10-16-30(28)27-13-7-4-8-14-27/h3-16,25,29,31-34H,17-24H2,1-2H3,(H,42,48)(H,43,49)(H,44,51)(H,46,47)/t29-,31+,32+,33+/m1/s1
> <PUBCHEM_IUPAC_INCHIKEY>
YWJPTZRZZRLKPL-PESDVKBKSA-N
> <PUBCHEM_XLOGP3_AA>
6.1
> <PUBCHEM_EXACT_MASS>
720.33345614
> <PUBCHEM_MOLECULAR_FORMULA>
C39H46F2N4O7
> <PUBCHEM_MOLECULAR_WEIGHT>
720.8
> <PUBCHEM_OPENEYE_CAN_SMILES>
CC(C)COC(=O)NC(CCC(=O)O)C(=O)N1CC(CC1C(=O)NC(CC(F)F)C(=O)NCCC2=CC=CC=C2C3=CC=CC=C3)C4=CC=CC=C4
> <PUBCHEM_OPENEYE_ISO_SMILES>
CC(C)COC(=O)N[C@@H](CCC(=O)O)C(=O)N1C[C@@H](C[C@H]1C(=O)N[C@@H](CC(F)F)C(=O)NCCC2=CC=CC=C2C3=CC=CC=C3)C4=CC=CC=C4
> <PUBCHEM_CACTVS_TPSA>
154
> <PUBCHEM_MONOISOTOPIC_WEIGHT>
720.33345614
> <PUBCHEM_TOTAL_CHARGE>
0
> <PUBCHEM_HEAVY_ATOM_COUNT>
52
> <PUBCHEM_ATOM_DEF_STEREO_COUNT>
4
> <PUBCHEM_ATOM_UDEF_STEREO_COUNT>
0
> <PUBCHEM_BOND_DEF_STEREO_COUNT>
0
> <PUBCHEM_BOND_UDEF_STEREO_COUNT>
0
> <PUBCHEM_ISOTOPIC_ATOM_COUNT>
0
> <PUBCHEM_COMPONENT_COUNT>
1
> <PUBCHEM_CACTVS_TAUTO_COUNT>
-1
> <PUBCHEM_COORDINATE_TYPE>
1
5
255
> <PUBCHEM_BONDANNOTATIONS>
25  11  5
21  12  5
14  18  6
15  20  5
18  22  8
18  23  8
22  26  8
23  27  8
26  30  8
27  30  8
39  42  8
39  43  8
42  45  8
43  46  8
44  48  8
44  49  8
45  47  8
46  47  8
48  50  8
49  51  8
50  52  8
51  52  8
$$$$
