507636
  -OEChem-10302200282D
 98100  0     1  0  0  0  0  0999 V2000
    9.5516    3.1886    0.0000 S   0  0  0  0  0  0  0  0  0  0  0  0
    3.7320    2.5727    0.0000 F   0  0  0  0  0  0  0  0  0  0  0  0
    5.4641    2.5727    0.0000 F   0  0  0  0  0  0  0  0  0  0  0  0
    2.0000   -3.4273    0.0000 F   0  0  0  0  0  0  0  0  0  0  0  0
    5.4641   -3.4273    0.0000 F   0  0  0  0  0  0  0  0  0  0  0  0
   10.4651    2.7819    0.0000 O   0  0  0  0  0  0  0  0  0  0  0  0
    8.6380    3.5954    0.0000 O   0  0  0  0  0  0  0  0  0  0  0  0
    8.4405   -0.9813    0.0000 O   0  0  0  0  0  0  0  0  0  0  0  0
    7.1962   -0.4273    0.0000 O   0  0  0  0  0  0  0  0  0  0  0  0
    9.1895    6.6338    0.0000 O   0  0  0  0  0  0  0  0  0  0  0  0
   11.5016   -2.8865    0.0000 O   0  0  0  0  0  0  0  0  0  0  0  0
    6.3301   -0.9273    0.0000 O   0  0  0  0  0  0  0  0  0  0  0  0
   12.0368   -1.2393    0.0000 O   0  0  0  0  0  0  0  0  0  0  0  0
    2.8660   -6.9273    0.0000 O   0  0  0  0  0  0  0  0  0  0  0  0
    4.5981   -6.9273    0.0000 O   0  0  0  0  0  0  0  0  0  0  0  0
    8.9757    0.6659    0.0000 N   0  0  0  0  0  0  0  0  0  0  0  0
    6.3301    1.0727    0.0000 N   0  0  0  0  0  0  0  0  0  0  0  0
   10.3426   -1.5994    0.0000 N   0  0  0  0  0  0  0  0  0  0  0  0
    4.5981   -0.9273    0.0000 N   0  0  0  0  0  0  0  0  0  0  0  0
    9.1448    2.2751    0.0000 C   0  0  2  0  0  0  0  0  0  0  0  0
    8.1667    2.0672    0.0000 C   0  0  0  0  0  0  0  0  0  0  0  0
    8.0622    1.0727    0.0000 C   0  0  1  0  0  0  0  0  0  0  0  0
    9.6448    1.4091    0.0000 C   0  0  0  0  0  0  0  0  0  0  0  0
    9.1836   -0.3122    0.0000 C   0  0  0  0  0  0  0  0  0  0  0  0
    7.1962    0.5727    0.0000 C   0  0  0  0  0  0  0  0  0  0  0  0
   10.1347   -0.6212    0.0000 C   0  0  2  0  0  0  0  0  0  0  0  0
    9.9583    4.1022    0.0000 C   0  0  0  0  0  0  0  0  0  0  0  0
   10.8778    0.0479    0.0000 C   0  0  0  0  0  0  0  0  0  0  0  0
    5.4641    0.5727    0.0000 C   0  0  1  0  0  0  0  0  0  0  0  0
    9.3705    4.9112    0.0000 C   0  0  0  0  0  0  0  0  0  0  0  0
   10.9528    4.2067    0.0000 C   0  0  0  0  0  0  0  0  0  0  0  0
   11.8289   -0.2611    0.0000 C   0  0  0  0  0  0  0  0  0  0  0  0
   10.6699    1.0260    0.0000 C   0  0  0  0  0  0  0  0  0  0  0  0
    4.5981    1.0727    0.0000 C   0  0  0  0  0  0  0  0  0  0  0  0
    9.7773    5.8248    0.0000 C   0  0  0  0  0  0  0  0  0  0  0  0
   11.3596    5.1203    0.0000 C   0  0  0  0  0  0  0  0  0  0  0  0
    5.4641   -0.4273    0.0000 C   0  0  0  0  0  0  0  0  0  0  0  0
   11.2937   -1.9084    0.0000 C   0  0  0  0  0  0  0  0  0  0  0  0
   10.7718    5.9293    0.0000 C   0  0  0  0  0  0  0  0  0  0  0  0
    4.5981    2.0727    0.0000 C   0  0  0  0  0  0  0  0  0  0  0  0
    4.5981   -1.9273    0.0000 C   0  0  0  0  0  0  0  0  0  0  0  0
   12.4526   -3.1956    0.0000 C   0  0  0  0  0  0  0  0  0  0  0  0
    3.7320   -2.4273    0.0000 C   0  0  0  0  0  0  0  0  0  0  0  0
   12.6605   -4.1737    0.0000 C   0  0  0  0  0  0  0  0  0  0  0  0
    9.5962    7.5473    0.0000 C   0  0  0  0  0  0  0  0  0  0  0  0
    3.7320   -3.4273    0.0000 C   0  0  0  0  0  0  0  0  0  0  0  0
   13.6116   -4.4827    0.0000 C   0  0  0  0  0  0  0  0  0  0  0  0
   11.9174   -4.8428    0.0000 C   0  0  0  0  0  0  0  0  0  0  0  0
    2.8660   -3.9273    0.0000 C   0  0  0  0  0  0  0  0  0  0  0  0
    4.5981   -3.9273    0.0000 C   0  0  0  0  0  0  0  0  0  0  0  0
    2.8660   -4.9273    0.0000 C   0  0  0  0  0  0  0  0  0  0  0  0
    4.5981   -4.9273    0.0000 C   0  0  0  0  0  0  0  0  0  0  0  0
    3.7320   -5.4273    0.0000 C   0  0  0  0  0  0  0  0  0  0  0  0
    3.7320   -6.4273    0.0000 C   0  0  0  0  0  0  0  0  0  0  0  0
    8.7547    2.7569    0.0000 H   0  0  0  0  0  0  0  0  0  0  0  0
    8.1019    2.6838    0.0000 H   0  0  0  0  0  0  0  0  0  0  0  0
    7.5467    2.0672    0.0000 H   0  0  0  0  0  0  0  0  0  0  0  0
    8.0946    0.4535    0.0000 H   0  0  0  0  0  0  0  0  0  0  0  0
   10.0597    0.9483    0.0000 H   0  0  0  0  0  0  0  0  0  0  0  0
   10.1464    1.7735    0.0000 H   0  0  0  0  0  0  0  0  0  0  0  0
   10.7243   -0.8128    0.0000 H   0  0  0  0  0  0  0  0  0  0  0  0
   10.2882    0.2395    0.0000 H   0  0  0  0  0  0  0  0  0  0  0  0
    6.3301    1.6927    0.0000 H   0  0  0  0  0  0  0  0  0  0  0  0
    6.0010    0.2627    0.0000 H   0  0  0  0  0  0  0  0  0  0  0  0
    9.8818   -2.0142    0.0000 H   0  0  0  0  0  0  0  0  0  0  0  0
    8.7539    4.8464    0.0000 H   0  0  0  0  0  0  0  0  0  0  0  0
   11.3173    3.7051    0.0000 H   0  0  0  0  0  0  0  0  0  0  0  0
   11.6373   -0.8508    0.0000 H   0  0  0  0  0  0  0  0  0  0  0  0
   12.4185   -0.4527    0.0000 H   0  0  0  0  0  0  0  0  0  0  0  0
   12.0205    0.3285    0.0000 H   0  0  0  0  0  0  0  0  0  0  0  0
   11.2764    1.1550    0.0000 H   0  0  0  0  0  0  0  0  0  0  0  0
   10.5410    1.6325    0.0000 H   0  0  0  0  0  0  0  0  0  0  0  0
   10.0635    0.8971    0.0000 H   0  0  0  0  0  0  0  0  0  0  0  0
    3.9875    1.1803    0.0000 H   0  0  0  0  0  0  0  0  0  0  0  0
    4.3860    0.4901    0.0000 H   0  0  0  0  0  0  0  0  0  0  0  0
   11.9762    5.1851    0.0000 H   0  0  0  0  0  0  0  0  0  0  0  0
   11.0240    6.4957    0.0000 H   0  0  0  0  0  0  0  0  0  0  0  0
    4.5981    2.6927    0.0000 H   0  0  0  0  0  0  0  0  0  0  0  0
    4.0611   -0.6173    0.0000 H   0  0  0  0  0  0  0  0  0  0  0  0
    4.8101   -2.5099    0.0000 H   0  0  0  0  0  0  0  0  0  0  0  0
    5.2087   -1.8197    0.0000 H   0  0  0  0  0  0  0  0  0  0  0  0
   13.0723   -3.1739    0.0000 H   0  0  0  0  0  0  0  0  0  0  0  0
   12.5389   -2.5816    0.0000 H   0  0  0  0  0  0  0  0  0  0  0  0
    3.5200   -1.8447    0.0000 H   0  0  0  0  0  0  0  0  0  0  0  0
    3.1215   -2.5350    0.0000 H   0  0  0  0  0  0  0  0  0  0  0  0
   12.0709   -3.9821    0.0000 H   0  0  0  0  0  0  0  0  0  0  0  0
   10.1626    7.2952    0.0000 H   0  0  0  0  0  0  0  0  0  0  0  0
    9.8484    8.1137    0.0000 H   0  0  0  0  0  0  0  0  0  0  0  0
    9.0298    7.7995    0.0000 H   0  0  0  0  0  0  0  0  0  0  0  0
   13.4200   -5.0724    0.0000 H   0  0  0  0  0  0  0  0  0  0  0  0
   14.2013   -4.6743    0.0000 H   0  0  0  0  0  0  0  0  0  0  0  0
   13.8032   -3.8931    0.0000 H   0  0  0  0  0  0  0  0  0  0  0  0
   11.5025   -4.3821    0.0000 H   0  0  0  0  0  0  0  0  0  0  0  0
   11.4566   -5.2577    0.0000 H   0  0  0  0  0  0  0  0  0  0  0  0
   12.3323   -5.3036    0.0000 H   0  0  0  0  0  0  0  0  0  0  0  0
    2.3291   -5.2373    0.0000 H   0  0  0  0  0  0  0  0  0  0  0  0
    5.1350   -5.2373    0.0000 H   0  0  0  0  0  0  0  0  0  0  0  0
    2.8660   -7.5473    0.0000 H   0  0  0  0  0  0  0  0  0  0  0  0
  1  6  2  0  0  0  0
  1  7  2  0  0  0  0
 20  1  1  1  0  0  0
  1 27  1  0  0  0  0
  2 40  1  0  0  0  0
  3 40  1  0  0  0  0
  4 49  1  0  0  0  0
  5 50  1  0  0  0  0
  8 24  2  0  0  0  0
  9 25  2  0  0  0  0
 10 35  1  0  0  0  0
 10 45  1  0  0  0  0
 11 38  1  0  0  0  0
 11 42  1  0  0  0  0
 12 37  2  0  0  0  0
 13 38  2  0  0  0  0
 14 54  1  0  0  0  0
 14 98  1  0  0  0  0
 15 54  2  0  0  0  0
 16 22  1  0  0  0  0
 16 23  1  0  0  0  0
 16 24  1  0  0  0  0
 17 25  1  0  0  0  0
 29 17  1  6  0  0  0
 17 63  1  0  0  0  0
 26 18  1  6  0  0  0
 18 38  1  0  0  0  0
 18 65  1  0  0  0  0
 19 37  1  0  0  0  0
 19 41  1  0  0  0  0
 19 79  1  0  0  0  0
 20 21  1  0  0  0  0
 20 23  1  0  0  0  0
 20 55  1  0  0  0  0
 21 22  1  0  0  0  0
 21 56  1  0  0  0  0
 21 57  1  0  0  0  0
 22 25  1  6  0  0  0
 22 58  1  0  0  0  0
 23 59  1  0  0  0  0
 23 60  1  0  0  0  0
 24 26  1  0  0  0  0
 26 28  1  0  0  0  0
 26 61  1  0  0  0  0
 27 30  1  0  0  0  0
 27 31  2  0  0  0  0
 28 32  1  0  0  0  0
 28 33  1  0  0  0  0
 28 62  1  0  0  0  0
 29 34  1  0  0  0  0
 29 37  1  0  0  0  0
 29 64  1  0  0  0  0
 30 35  2  0  0  0  0
 30 66  1  0  0  0  0
 31 36  1  0  0  0  0
 31 67  1  0  0  0  0
 32 68  1  0  0  0  0
 32 69  1  0  0  0  0
 32 70  1  0  0  0  0
 33 71  1  0  0  0  0
 33 72  1  0  0  0  0
 33 73  1  0  0  0  0
 34 40  1  0  0  0  0
 34 74  1  0  0  0  0
 34 75  1  0  0  0  0
 35 39  1  0  0  0  0
 36 39  2  0  0  0  0
 36 76  1  0  0  0  0
 39 77  1  0  0  0  0
 40 78  1  0  0  0  0
 41 43  1  0  0  0  0
 41 80  1  0  0  0  0
 41 81  1  0  0  0  0
 42 44  1  0  0  0  0
 42 82  1  0  0  0  0
 42 83  1  0  0  0  0
 43 46  1  0  0  0  0
 43 84  1  0  0  0  0
 43 85  1  0  0  0  0
 44 47  1  0  0  0  0
 44 48  1  0  0  0  0
 44 86  1  0  0  0  0
 45 87  1  0  0  0  0
 45 88  1  0  0  0  0
 45 89  1  0  0  0  0
 46 49  2  0  0  0  0
 46 50  1  0  0  0  0
 47 90  1  0  0  0  0
 47 91  1  0  0  0  0
 47 92  1  0  0  0  0
 48 93  1  0  0  0  0
 48 94  1  0  0  0  0
 48 95  1  0  0  0  0
 49 51  1  0  0  0  0
 50 52  2  0  0  0  0
 51 53  2  0  0  0  0
 51 96  1  0  0  0  0
 52 53  1  0  0  0  0
 52 97  1  0  0  0  0
 53 54  1  0  0  0  0
M  END
> <PUBCHEM_COMPOUND_CID>
507636
> <PUBCHEM_COMPOUND_CANONICALIZED>
1
> <PUBCHEM_CACTVS_COMPLEXITY>
1410
> <PUBCHEM_CACTVS_HBOND_ACCEPTOR>
14
> <PUBCHEM_CACTVS_HBOND_DONOR>
4
> <PUBCHEM_CACTVS_ROTATABLE_BOND>
18
> <PUBCHEM_CACTVS_SUBSKEYS>
AAADcfB/vcBAAAAAAAAAAAAAAAAAAWAAAAAwYAAAAAAAAAABQAAAHwQQCAAADSzl2B6yD4PABgqIAiHSGHBCCAAkKBAIiJmOCMkMZjKktTuccSAk1hGouYeYyfCOQAAABAAAAACAAAAIAAAAAAAAAAAAAA==
> <PUBCHEM_IUPAC_OPENEYE_NAME>
4-[2-[[(2S)-4,4-difluoro-2-[[(2S,4R)-1-[(2S)-2-(isobutoxycarbonylamino)-3-methyl-butanoyl]-4-(3-methoxyphenyl)sulfonyl-pyrrolidine-2-carbonyl]amino]butanoyl]amino]ethyl]-3,5-difluoro-benzoic acid
> <PUBCHEM_IUPAC_CAS_NAME>
4-[2-[[(2S)-4,4-difluoro-2-[[[(2S,4R)-4-(3-methoxyphenyl)sulfonyl-1-[(2S)-3-methyl-2-[[2-methylpropoxy(oxo)methyl]amino]-1-oxobutyl]-2-pyrrolidinyl]-oxomethyl]amino]-1-oxobutyl]amino]ethyl]-3,5-difluorobenzoic acid
> <PUBCHEM_IUPAC_NAME_MARKUP>
4-[2-[[(2<I>S</I>)-4,4-difluoro-2-[[(2<I>S</I>,4<I>R</I>)-4-(3-methoxyphenyl)sulfonyl-1-[(2<I>S</I>)-3-methyl-2-(2-methylpropoxycarbonylamino)butanoyl]pyrrolidine-2-carbonyl]amino]butanoyl]amino]ethyl]-3,5-difluorobenzoic acid
> <PUBCHEM_IUPAC_NAME>
4-[2-[[(2S)-4,4-difluoro-2-[[(2S,4R)-4-(3-methoxyphenyl)sulfonyl-1-[(2S)-3-methyl-2-(2-methylpropoxycarbonylamino)butanoyl]pyrrolidine-2-carbonyl]amino]butanoyl]amino]ethyl]-3,5-difluorobenzoic acid
> <PUBCHEM_IUPAC_SYSTEMATIC_NAME>
4-[2-[[(2S)-4,4-bis(fluoranyl)-2-[[(2S,4R)-4-(3-methoxyphenyl)sulfonyl-1-[(2S)-3-methyl-2-(2-methylpropoxycarbonylamino)butanoyl]pyrrolidin-2-yl]carbonylamino]butanoyl]amino]ethyl]-3,5-bis(fluoranyl)benzoic acid
> <PUBCHEM_IUPAC_TRADITIONAL_NAME>
4-[2-[[(2S)-4,4-difluoro-2-[[(2S,4R)-1-[(2S)-2-(isobutoxycarbonylamino)-3-methyl-butanoyl]-4-(3-methoxyphenyl)sulfonyl-prolyl]amino]butanoyl]amino]ethyl]-3,5-difluoro-benzoic acid
> <PUBCHEM_IUPAC_INCHI>
InChI=1S/C35H44F4N4O10S/c1-18(2)17-53-35(49)42-30(19(3)4)33(46)43-16-23(54(50,51)22-8-6-7-21(13-22)52-5)14-28(43)32(45)41-27(15-29(38)39)31(44)40-10-9-24-25(36)11-20(34(47)48)12-26(24)37/h6-8,11-13,18-19,23,27-30H,9-10,14-17H2,1-5H3,(H,40,44)(H,41,45)(H,42,49)(H,47,48)/t23-,27+,28+,30+/m1/s1
> <PUBCHEM_IUPAC_INCHIKEY>
MKYJQESWMLUVPH-PBNCGBIJSA-N
> <PUBCHEM_XLOGP3_AA>
4.9
> <PUBCHEM_EXACT_MASS>
788.27142743
> <PUBCHEM_MOLECULAR_FORMULA>
C35H44F4N4O10S
> <PUBCHEM_MOLECULAR_WEIGHT>
788.8
> <PUBCHEM_OPENEYE_CAN_SMILES>
CC(C)COC(=O)NC(C(C)C)C(=O)N1CC(CC1C(=O)NC(CC(F)F)C(=O)NCCC2=C(C=C(C=C2F)C(=O)O)F)S(=O)(=O)C3=CC=CC(=C3)OC
> <PUBCHEM_OPENEYE_ISO_SMILES>
CC(C)COC(=O)N[C@@H](C(C)C)C(=O)N1C[C@@H](C[C@H]1C(=O)N[C@@H](CC(F)F)C(=O)NCCC2=C(C=C(C=C2F)C(=O)O)F)S(=O)(=O)C3=CC=CC(=C3)OC
> <PUBCHEM_CACTVS_TPSA>
206
> <PUBCHEM_MONOISOTOPIC_WEIGHT>
788.27142743
> <PUBCHEM_TOTAL_CHARGE>
0
> <PUBCHEM_HEAVY_ATOM_COUNT>
54
> <PUBCHEM_ATOM_DEF_STEREO_COUNT>
4
> <PUBCHEM_ATOM_UDEF_STEREO_COUNT>
0
> <PUBCHEM_BOND_DEF_STEREO_COUNT>
0
> <PUBCHEM_BOND_UDEF_STEREO_COUNT>
0
> <PUBCHEM_ISOTOPIC_ATOM_COUNT>
0
> <PUBCHEM_COMPONENT_COUNT>
1
> <PUBCHEM_CACTVS_TAUTO_COUNT>
-1
> <PUBCHEM_COORDINATE_TYPE>
1
5
255
> <PUBCHEM_BONDANNOTATIONS>
20  1  5
29  17  6
26  18  6
22  25  6
27  30  8
27  31  8
30  35  8
31  36  8
35  39  8
36  39  8
46  49  8
46  50  8
49  51  8
50  52  8
51  53  8
52  53  8
$$$$
