507704
  -OEChem-10302200282D
 87 90  0     1  0  0  0  0  0999 V2000
   11.4476   -1.8906    0.0000 S   0  0  0  0  0  0  0  0  0  0  0  0
    5.9664   -4.3310    0.0000 O   0  0  0  0  0  0  0  0  0  0  0  0
    9.5160   -3.6986    0.0000 O   0  0  0  0  0  0  0  0  0  0  0  0
    9.0206   -0.1273    0.0000 O   0  0  0  0  0  0  0  0  0  0  0  0
    6.4618    2.4049    0.0000 O   0  0  0  0  0  0  0  0  0  0  0  0
    4.7392    2.2239    0.0000 O   0  0  0  0  0  0  0  0  0  0  0  0
   13.0929    5.4778    0.0000 O   0  0  0  0  0  0  0  0  0  0  0  0
   11.3703    5.6588    0.0000 O   0  0  0  0  0  0  0  0  0  0  0  0
    4.6783   -3.5534    0.0000 N   0  0  0  0  0  0  0  0  0  0  0  0
    6.9844   -2.9298    0.0000 N   0  0  0  0  0  0  0  0  0  0  0  0
    8.8115   -2.1163    0.0000 N   0  0  0  0  0  0  0  0  0  0  0  0
   10.7432   -0.3083    0.0000 N   0  0  0  0  0  0  0  0  0  0  0  0
    5.2619   -2.7487    0.0000 C   0  0  3  0  0  0  0  0  0  0  0  0
    4.6783   -1.9440    0.0000 C   0  0  0  0  0  0  0  0  0  0  0  0
    6.0709   -2.1609    0.0000 C   0  0  0  0  0  0  0  0  0  0  0  0
    3.7320   -2.2487    0.0000 C   0  0  0  0  0  0  0  0  0  0  0  0
    3.7320   -3.2487    0.0000 C   0  0  0  0  0  0  0  0  0  0  0  0
    6.0709   -3.3365    0.0000 C   0  0  0  0  0  0  0  0  0  0  0  0
    7.7935   -3.5176    0.0000 C   0  0  1  0  0  0  0  0  0  0  0  0
    5.9664   -1.1664    0.0000 C   0  0  0  0  0  0  0  0  0  0  0  0
    2.8660   -1.7487    0.0000 C   0  0  0  0  0  0  0  0  0  0  0  0
    7.6889   -4.5121    0.0000 C   0  0  0  0  0  0  0  0  0  0  0  0
    2.8660   -3.7487    0.0000 C   0  0  0  0  0  0  0  0  0  0  0  0
    8.4980   -5.0999    0.0000 C   0  0  0  0  0  0  0  0  0  0  0  0
    2.0000   -2.2487    0.0000 C   0  0  0  0  0  0  0  0  0  0  0  0
    2.0000   -3.2487    0.0000 C   0  0  0  0  0  0  0  0  0  0  0  0
    8.7070   -3.1108    0.0000 C   0  0  0  0  0  0  0  0  0  0  0  0
    6.7754   -0.5786    0.0000 C   0  0  0  0  0  0  0  0  0  0  0  0
    5.0528   -0.7597    0.0000 C   0  0  0  0  0  0  0  0  0  0  0  0
    8.3934   -6.0944    0.0000 C   0  0  0  0  0  0  0  0  0  0  0  0
    9.4115   -4.6931    0.0000 C   0  0  0  0  0  0  0  0  0  0  0  0
    6.6709    0.4159    0.0000 C   0  0  0  0  0  0  0  0  0  0  0  0
    4.9483    0.2348    0.0000 C   0  0  0  0  0  0  0  0  0  0  0  0
    9.7251   -1.7096    0.0000 C   0  0  1  0  0  0  0  0  0  0  0  0
    5.7573    0.8226    0.0000 C   0  0  0  0  0  0  0  0  0  0  0  0
   10.5341   -2.2973    0.0000 C   0  0  0  0  0  0  0  0  0  0  0  0
    9.8296   -0.7150    0.0000 C   0  0  0  0  0  0  0  0  0  0  0  0
    5.6528    1.8172    0.0000 C   0  0  0  0  0  0  0  0  0  0  0  0
   10.8477    0.6862    0.0000 C   0  0  0  0  0  0  0  0  0  0  0  0
   11.7612    1.0930    0.0000 C   0  0  0  0  0  0  0  0  0  0  0  0
   11.8658    2.0875    0.0000 C   0  0  0  0  0  0  0  0  0  0  0  0
   11.0567    2.6753    0.0000 C   0  0  0  0  0  0  0  0  0  0  0  0
   12.7793    2.4942    0.0000 C   0  0  0  0  0  0  0  0  0  0  0  0
   11.1613    3.6698    0.0000 C   0  0  0  0  0  0  0  0  0  0  0  0
   12.8838    3.4887    0.0000 C   0  0  0  0  0  0  0  0  0  0  0  0
   12.0748    4.0765    0.0000 C   0  0  0  0  0  0  0  0  0  0  0  0
   12.1793    5.0710    0.0000 C   0  0  0  0  0  0  0  0  0  0  0  0
    5.2156   -1.6348    0.0000 H   0  0  0  0  0  0  0  0  0  0  0  0
    4.4272   -1.3771    0.0000 H   0  0  0  0  0  0  0  0  0  0  0  0
    6.3427   -2.7182    0.0000 H   0  0  0  0  0  0  0  0  0  0  0  0
    6.6669   -1.9900    0.0000 H   0  0  0  0  0  0  0  0  0  0  0  0
    4.8709   -4.1428    0.0000 H   0  0  0  0  0  0  0  0  0  0  0  0
    7.2271   -3.7697    0.0000 H   0  0  0  0  0  0  0  0  0  0  0  0
    7.0492   -2.3132    0.0000 H   0  0  0  0  0  0  0  0  0  0  0  0
    2.8660   -1.1287    0.0000 H   0  0  0  0  0  0  0  0  0  0  0  0
    7.0930   -4.3412    0.0000 H   0  0  0  0  0  0  0  0  0  0  0  0
    7.4171   -5.0693    0.0000 H   0  0  0  0  0  0  0  0  0  0  0  0
    2.8660   -4.3687    0.0000 H   0  0  0  0  0  0  0  0  0  0  0  0
    8.5628   -4.4833    0.0000 H   0  0  0  0  0  0  0  0  0  0  0  0
    1.4631   -1.9387    0.0000 H   0  0  0  0  0  0  0  0  0  0  0  0
    1.4631   -3.5587    0.0000 H   0  0  0  0  0  0  0  0  0  0  0  0
    7.3418   -0.8308    0.0000 H   0  0  0  0  0  0  0  0  0  0  0  0
    4.5512   -1.1241    0.0000 H   0  0  0  0  0  0  0  0  0  0  0  0
    7.7768   -6.0296    0.0000 H   0  0  0  0  0  0  0  0  0  0  0  0
    8.3286   -6.7110    0.0000 H   0  0  0  0  0  0  0  0  0  0  0  0
    9.0100   -6.1592    0.0000 H   0  0  0  0  0  0  0  0  0  0  0  0
    9.6637   -5.2595    0.0000 H   0  0  0  0  0  0  0  0  0  0  0  0
    9.9779   -4.4410    0.0000 H   0  0  0  0  0  0  0  0  0  0  0  0
    9.1593   -4.1267    0.0000 H   0  0  0  0  0  0  0  0  0  0  0  0
    8.3099   -1.7519    0.0000 H   0  0  0  0  0  0  0  0  0  0  0  0
    7.1724    0.7803    0.0000 H   0  0  0  0  0  0  0  0  0  0  0  0
    4.3819    0.4870    0.0000 H   0  0  0  0  0  0  0  0  0  0  0  0
    9.6603   -2.3262    0.0000 H   0  0  0  0  0  0  0  0  0  0  0  0
   10.0881   -2.7280    0.0000 H   0  0  0  0  0  0  0  0  0  0  0  0
   10.8808   -2.8114    0.0000 H   0  0  0  0  0  0  0  0  0  0  0  0
   11.2447   -0.6727    0.0000 H   0  0  0  0  0  0  0  0  0  0  0  0
   10.6977    1.2878    0.0000 H   0  0  0  0  0  0  0  0  0  0  0  0
   10.2292    0.6430    0.0000 H   0  0  0  0  0  0  0  0  0  0  0  0
   11.9492   -2.2550    0.0000 H   0  0  0  0  0  0  0  0  0  0  0  0
   11.9112    0.4914    0.0000 H   0  0  0  0  0  0  0  0  0  0  0  0
   12.3797    1.1362    0.0000 H   0  0  0  0  0  0  0  0  0  0  0  0
    6.3970    3.0215    0.0000 H   0  0  0  0  0  0  0  0  0  0  0  0
   10.4903    2.4231    0.0000 H   0  0  0  0  0  0  0  0  0  0  0  0
   13.2809    2.1298    0.0000 H   0  0  0  0  0  0  0  0  0  0  0  0
   10.6597    4.0342    0.0000 H   0  0  0  0  0  0  0  0  0  0  0  0
   13.4502    3.7409    0.0000 H   0  0  0  0  0  0  0  0  0  0  0  0
   13.1577    6.0944    0.0000 H   0  0  0  0  0  0  0  0  0  0  0  0
  1 36  1  0  0  0  0
  1 79  1  0  0  0  0
  2 18  2  0  0  0  0
  3 27  2  0  0  0  0
  4 37  2  0  0  0  0
  5 38  1  0  0  0  0
  5 82  1  0  0  0  0
  6 38  2  0  0  0  0
  7 47  1  0  0  0  0
  7 87  1  0  0  0  0
  8 47  2  0  0  0  0
  9 13  1  0  0  0  0
  9 17  1  0  0  0  0
  9 52  1  0  0  0  0
 10 18  1  0  0  0  0
 19 10  1  6  0  0  0
 10 54  1  0  0  0  0
 11 27  1  0  0  0  0
 34 11  1  6  0  0  0
 11 70  1  0  0  0  0
 12 37  1  0  0  0  0
 12 39  1  0  0  0  0
 12 76  1  0  0  0  0
 13 14  1  0  0  0  0
 13 15  1  0  0  0  0
 13 18  1  0  0  0  0
 14 16  1  0  0  0  0
 14 48  1  0  0  0  0
 14 49  1  0  0  0  0
 15 20  1  0  0  0  0
 15 50  1  0  0  0  0
 15 51  1  0  0  0  0
 16 17  1  0  0  0  0
 16 21  2  0  0  0  0
 17 23  2  0  0  0  0
 19 22  1  0  0  0  0
 19 27  1  0  0  0  0
 19 53  1  0  0  0  0
 20 28  2  0  0  0  0
 20 29  1  0  0  0  0
 21 25  1  0  0  0  0
 21 55  1  0  0  0  0
 22 24  1  0  0  0  0
 22 56  1  0  0  0  0
 22 57  1  0  0  0  0
 23 26  1  0  0  0  0
 23 58  1  0  0  0  0
 24 30  1  0  0  0  0
 24 31  1  0  0  0  0
 24 59  1  0  0  0  0
 25 26  2  0  0  0  0
 25 60  1  0  0  0  0
 26 61  1  0  0  0  0
 28 32  1  0  0  0  0
 28 62  1  0  0  0  0
 29 33  2  0  0  0  0
 29 63  1  0  0  0  0
 30 64  1  0  0  0  0
 30 65  1  0  0  0  0
 30 66  1  0  0  0  0
 31 67  1  0  0  0  0
 31 68  1  0  0  0  0
 31 69  1  0  0  0  0
 32 35  2  0  0  0  0
 32 71  1  0  0  0  0
 33 35  1  0  0  0  0
 33 72  1  0  0  0  0
 34 36  1  0  0  0  0
 34 37  1  0  0  0  0
 34 73  1  0  0  0  0
 35 38  1  0  0  0  0
 36 74  1  0  0  0  0
 36 75  1  0  0  0  0
 39 40  1  0  0  0  0
 39 77  1  0  0  0  0
 39 78  1  0  0  0  0
 40 41  1  0  0  0  0
 40 80  1  0  0  0  0
 40 81  1  0  0  0  0
 41 42  2  0  0  0  0
 41 43  1  0  0  0  0
 42 44  1  0  0  0  0
 42 83  1  0  0  0  0
 43 45  2  0  0  0  0
 43 84  1  0  0  0  0
 44 46  2  0  0  0  0
 44 85  1  0  0  0  0
 45 46  1  0  0  0  0
 45 86  1  0  0  0  0
 46 47  1  0  0  0  0
M  END
> <PUBCHEM_COMPOUND_CID>
507704
> <PUBCHEM_COMPOUND_CANONICALIZED>
1
> <PUBCHEM_CACTVS_COMPLEXITY>
1110
> <PUBCHEM_CACTVS_HBOND_ACCEPTOR>
9
> <PUBCHEM_CACTVS_HBOND_DONOR>
7
> <PUBCHEM_CACTVS_ROTATABLE_BOND>
15
> <PUBCHEM_CACTVS_SUBSKEYS>
AAADcfB/uABAAAAAAAAAAAAAAAAAAWAAAAAwYMAAAAAAAFgBUAAAHgQQCAAADajF2ASyyILAAgSIAiXSWACCAAAlAgAIiIGIbMgIZjLAlbGUcQhk1gHI2YeYyfCeQAAAAAACAACAAAAAAAQAAAAAAAAAAA==
> <PUBCHEM_IUPAC_OPENEYE_NAME>
4-[2-[[(2R)-2-[[(2S)-2-[[2-[(4-carboxyphenyl)methyl]indoline-2-carbonyl]amino]-4-methyl-pentanoyl]amino]-3-sulfanyl-propanoyl]amino]ethyl]benzoic acid
> <PUBCHEM_IUPAC_CAS_NAME>
4-[2-[[(2R)-2-[[(2S)-2-[[[2-[(4-carboxyphenyl)methyl]-1,3-dihydroindol-2-yl]-oxomethyl]amino]-4-methyl-1-oxopentyl]amino]-3-mercapto-1-oxopropyl]amino]ethyl]benzoic acid
> <PUBCHEM_IUPAC_NAME_MARKUP>
4-[2-[[(2<I>R</I>)-2-[[(2<I>S</I>)-2-[[2-[(4-carboxyphenyl)methyl]-1,3-dihydroindole-2-carbonyl]amino]-4-methylpentanoyl]amino]-3-sulfanylpropanoyl]amino]ethyl]benzoic acid
> <PUBCHEM_IUPAC_NAME>
4-[2-[[(2R)-2-[[(2S)-2-[[2-[(4-carboxyphenyl)methyl]-1,3-dihydroindole-2-carbonyl]amino]-4-methylpentanoyl]amino]-3-sulfanylpropanoyl]amino]ethyl]benzoic acid
> <PUBCHEM_IUPAC_SYSTEMATIC_NAME>
4-[2-[[(2R)-2-[[(2S)-2-[[2-[(4-carboxyphenyl)methyl]-1,3-dihydroindol-2-yl]carbonylamino]-4-methyl-pentanoyl]amino]-3-sulfanyl-propanoyl]amino]ethyl]benzoic acid
> <PUBCHEM_IUPAC_TRADITIONAL_NAME>
4-[2-[[(2R)-2-[[(2S)-2-[[2-(4-carboxybenzyl)indoline-2-carbonyl]amino]-4-methyl-pentanoyl]amino]-3-mercapto-propanoyl]amino]ethyl]benzoic acid
> <PUBCHEM_IUPAC_INCHI>
InChI=1S/C35H40N4O7S/c1-21(2)17-28(31(41)37-29(20-47)30(40)36-16-15-22-7-11-24(12-8-22)32(42)43)38-34(46)35(19-26-5-3-4-6-27(26)39-35)18-23-9-13-25(14-10-23)33(44)45/h3-14,21,28-29,39,47H,15-20H2,1-2H3,(H,36,40)(H,37,41)(H,38,46)(H,42,43)(H,44,45)/t28-,29-,35?/m0/s1
> <PUBCHEM_IUPAC_INCHIKEY>
XATGOXKNOXHYKU-WPUZBLJWSA-N
> <PUBCHEM_XLOGP3_AA>
4.8
> <PUBCHEM_EXACT_MASS>
660.26177080
> <PUBCHEM_MOLECULAR_FORMULA>
C35H40N4O7S
> <PUBCHEM_MOLECULAR_WEIGHT>
660.8
> <PUBCHEM_OPENEYE_CAN_SMILES>
CC(C)CC(C(=O)NC(CS)C(=O)NCCC1=CC=C(C=C1)C(=O)O)NC(=O)C2(CC3=CC=CC=C3N2)CC4=CC=C(C=C4)C(=O)O
> <PUBCHEM_OPENEYE_ISO_SMILES>
CC(C)C[C@@H](C(=O)N[C@@H](CS)C(=O)NCCC1=CC=C(C=C1)C(=O)O)NC(=O)C2(CC3=CC=CC=C3N2)CC4=CC=C(C=C4)C(=O)O
> <PUBCHEM_CACTVS_TPSA>
175
> <PUBCHEM_MONOISOTOPIC_WEIGHT>
660.26177080
> <PUBCHEM_TOTAL_CHARGE>
0
> <PUBCHEM_HEAVY_ATOM_COUNT>
47
> <PUBCHEM_ATOM_DEF_STEREO_COUNT>
2
> <PUBCHEM_ATOM_UDEF_STEREO_COUNT>
1
> <PUBCHEM_BOND_DEF_STEREO_COUNT>
0
> <PUBCHEM_BOND_UDEF_STEREO_COUNT>
0
> <PUBCHEM_ISOTOPIC_ATOM_COUNT>
0
> <PUBCHEM_COMPONENT_COUNT>
1
> <PUBCHEM_CACTVS_TAUTO_COUNT>
-1
> <PUBCHEM_COORDINATE_TYPE>
1
5
255
> <PUBCHEM_BONDANNOTATIONS>
19  10  6
34  11  6
13  15  3
16  17  8
16  21  8
17  23  8
20  28  8
20  29  8
21  25  8
23  26  8
25  26  8
28  32  8
29  33  8
32  35  8
33  35  8
41  42  8
41  43  8
42  44  8
43  45  8
44  46  8
45  46  8
$$$$
