507706
  -OEChem-10302200282D
 84 87  0     1  0  0  0  0  0999 V2000
    6.3028    3.7079    0.0000 S   0  0  0  0  0  0  0  0  0  0  0  0
   11.4476    1.4011    0.0000 S   0  0  0  0  0  0  0  0  0  0  0  0
    5.9664   -1.0394    0.0000 O   0  0  0  0  0  0  0  0  0  0  0  0
    8.8115    1.1754    0.0000 O   0  0  0  0  0  0  0  0  0  0  0  0
    8.3568    3.3296    0.0000 O   0  0  0  0  0  0  0  0  0  0  0  0
    7.9967    1.6354    0.0000 O   0  0  0  0  0  0  0  0  0  0  0  0
   11.1341   -1.5825    0.0000 O   0  0  0  0  0  0  0  0  0  0  0  0
   18.0243   -2.3067    0.0000 O   0  0  0  0  0  0  0  0  0  0  0  0
   17.0062   -3.7079    0.0000 O   0  0  0  0  0  0  0  0  0  0  0  0
    4.6783   -0.2618    0.0000 N   0  0  0  0  0  0  0  0  0  0  0  0
    6.9844    0.3619    0.0000 N   0  0  0  0  0  0  0  0  0  0  0  0
    9.5160   -0.4069    0.0000 N   0  0  0  0  0  0  0  0  0  0  0  0
   12.1521   -0.1812    0.0000 N   0  0  0  0  0  0  0  0  0  0  0  0
    5.2619    0.5430    0.0000 C   0  0  3  0  0  0  0  0  0  0  0  0
    4.6783    1.3477    0.0000 C   0  0  0  0  0  0  0  0  0  0  0  0
    6.0709    1.1308    0.0000 C   0  0  0  0  0  0  0  0  0  0  0  0
    3.7320    1.0430    0.0000 C   0  0  0  0  0  0  0  0  0  0  0  0
    3.7320    0.0430    0.0000 C   0  0  0  0  0  0  0  0  0  0  0  0
    6.0709   -0.0448    0.0000 C   0  0  0  0  0  0  0  0  0  0  0  0
    7.7935   -0.2259    0.0000 C   0  0  1  0  0  0  0  0  0  0  0  0
    5.9664    2.1253    0.0000 C   0  0  0  0  0  0  0  0  0  0  0  0
    2.8660    1.5430    0.0000 C   0  0  0  0  0  0  0  0  0  0  0  0
    7.6889   -1.2204    0.0000 C   0  0  0  0  0  0  0  0  0  0  0  0
    2.8660   -0.4570    0.0000 C   0  0  0  0  0  0  0  0  0  0  0  0
    8.0957   -2.1339    0.0000 C   0  0  0  0  0  0  0  0  0  0  0  0
    6.7095    2.7944    0.0000 C   0  0  0  0  0  0  0  0  0  0  0  0
    2.0000    1.0430    0.0000 C   0  0  0  0  0  0  0  0  0  0  0  0
    2.0000    0.0430    0.0000 C   0  0  0  0  0  0  0  0  0  0  0  0
    8.7070    0.1809    0.0000 C   0  0  0  0  0  0  0  0  0  0  0  0
    5.1003    2.6253    0.0000 C   0  0  0  0  0  0  0  0  0  0  0  0
    7.5079   -2.9430    0.0000 C   0  0  0  0  0  0  0  0  0  0  0  0
    9.0902   -2.2385    0.0000 C   0  0  0  0  0  0  0  0  0  0  0  0
    5.3082    3.6034    0.0000 C   0  0  0  0  0  0  0  0  0  0  0  0
   10.4296   -0.0002    0.0000 C   0  0  1  0  0  0  0  0  0  0  0  0
    7.6877    2.5865    0.0000 C   0  0  0  0  0  0  0  0  0  0  0  0
   10.5341    0.9943    0.0000 C   0  0  0  0  0  0  0  0  0  0  0  0
   11.2386   -0.5880    0.0000 C   0  0  0  0  0  0  0  0  0  0  0  0
   12.9611   -0.7690    0.0000 C   0  0  0  0  0  0  0  0  0  0  0  0
   13.8747   -0.3623    0.0000 C   0  0  0  0  0  0  0  0  0  0  0  0
   14.6837   -0.9501    0.0000 C   0  0  0  0  0  0  0  0  0  0  0  0
   14.5792   -1.9446    0.0000 C   0  0  0  0  0  0  0  0  0  0  0  0
   15.5973   -0.5433    0.0000 C   0  0  0  0  0  0  0  0  0  0  0  0
   15.3882   -2.5324    0.0000 C   0  0  0  0  0  0  0  0  0  0  0  0
   16.4063   -1.1311    0.0000 C   0  0  0  0  0  0  0  0  0  0  0  0
   16.3017   -2.1256    0.0000 C   0  0  0  0  0  0  0  0  0  0  0  0
   17.1108   -2.7134    0.0000 C   0  0  0  0  0  0  0  0  0  0  0  0
    5.2156    1.6569    0.0000 H   0  0  0  0  0  0  0  0  0  0  0  0
    4.4272    1.9146    0.0000 H   0  0  0  0  0  0  0  0  0  0  0  0
    6.3427    0.5735    0.0000 H   0  0  0  0  0  0  0  0  0  0  0  0
    6.6669    1.3016    0.0000 H   0  0  0  0  0  0  0  0  0  0  0  0
    4.8709   -0.8511    0.0000 H   0  0  0  0  0  0  0  0  0  0  0  0
    7.2271   -0.4780    0.0000 H   0  0  0  0  0  0  0  0  0  0  0  0
    7.0492    0.9785    0.0000 H   0  0  0  0  0  0  0  0  0  0  0  0
    7.1317   -0.9486    0.0000 H   0  0  0  0  0  0  0  0  0  0  0  0
    8.3013   -1.1234    0.0000 H   0  0  0  0  0  0  0  0  0  0  0  0
    2.8660    2.1630    0.0000 H   0  0  0  0  0  0  0  0  0  0  0  0
    2.8660   -1.0770    0.0000 H   0  0  0  0  0  0  0  0  0  0  0  0
    7.4791   -2.0691    0.0000 H   0  0  0  0  0  0  0  0  0  0  0  0
    1.4631    1.3530    0.0000 H   0  0  0  0  0  0  0  0  0  0  0  0
    1.4631   -0.2670    0.0000 H   0  0  0  0  0  0  0  0  0  0  0  0
    4.5339    2.3731    0.0000 H   0  0  0  0  0  0  0  0  0  0  0  0
    7.0063   -2.5785    0.0000 H   0  0  0  0  0  0  0  0  0  0  0  0
    7.1435   -3.4446    0.0000 H   0  0  0  0  0  0  0  0  0  0  0  0
    8.0095   -3.3074    0.0000 H   0  0  0  0  0  0  0  0  0  0  0  0
    9.0254   -2.8551    0.0000 H   0  0  0  0  0  0  0  0  0  0  0  0
    9.7068   -2.3033    0.0000 H   0  0  0  0  0  0  0  0  0  0  0  0
    9.1550   -1.6219    0.0000 H   0  0  0  0  0  0  0  0  0  0  0  0
    4.8934    4.0642    0.0000 H   0  0  0  0  0  0  0  0  0  0  0  0
    9.4512   -1.0235    0.0000 H   0  0  0  0  0  0  0  0  0  0  0  0
    9.9280    0.3642    0.0000 H   0  0  0  0  0  0  0  0  0  0  0  0
   10.3841    1.5959    0.0000 H   0  0  0  0  0  0  0  0  0  0  0  0
    9.9156    0.9511    0.0000 H   0  0  0  0  0  0  0  0  0  0  0  0
   12.2169    0.4354    0.0000 H   0  0  0  0  0  0  0  0  0  0  0  0
    8.9632    3.2007    0.0000 H   0  0  0  0  0  0  0  0  0  0  0  0
   12.5152   -1.1997    0.0000 H   0  0  0  0  0  0  0  0  0  0  0  0
   13.3078   -1.2830    0.0000 H   0  0  0  0  0  0  0  0  0  0  0  0
   14.3207    0.0684    0.0000 H   0  0  0  0  0  0  0  0  0  0  0  0
   13.5280    0.1517    0.0000 H   0  0  0  0  0  0  0  0  0  0  0  0
   11.5124    2.0177    0.0000 H   0  0  0  0  0  0  0  0  0  0  0  0
   14.0128   -2.1968    0.0000 H   0  0  0  0  0  0  0  0  0  0  0  0
   15.6621    0.0733    0.0000 H   0  0  0  0  0  0  0  0  0  0  0  0
   15.3234   -3.1490    0.0000 H   0  0  0  0  0  0  0  0  0  0  0  0
   16.9727   -0.8789    0.0000 H   0  0  0  0  0  0  0  0  0  0  0  0
   18.5259   -2.6711    0.0000 H   0  0  0  0  0  0  0  0  0  0  0  0
  1 26  1  0  0  0  0
  1 33  1  0  0  0  0
  2 36  1  0  0  0  0
  2 79  1  0  0  0  0
  3 19  2  0  0  0  0
  4 29  2  0  0  0  0
  5 35  1  0  0  0  0
  5 74  1  0  0  0  0
  6 35  2  0  0  0  0
  7 37  2  0  0  0  0
  8 46  1  0  0  0  0
  8 84  1  0  0  0  0
  9 46  2  0  0  0  0
 10 14  1  0  0  0  0
 10 18  1  0  0  0  0
 10 51  1  0  0  0  0
 11 19  1  0  0  0  0
 20 11  1  6  0  0  0
 11 53  1  0  0  0  0
 12 29  1  0  0  0  0
 34 12  1  1  0  0  0
 12 69  1  0  0  0  0
 13 37  1  0  0  0  0
 13 38  1  0  0  0  0
 13 73  1  0  0  0  0
 14 15  1  0  0  0  0
 14 16  1  0  0  0  0
 14 19  1  0  0  0  0
 15 17  1  0  0  0  0
 15 47  1  0  0  0  0
 15 48  1  0  0  0  0
 16 21  1  0  0  0  0
 16 49  1  0  0  0  0
 16 50  1  0  0  0  0
 17 18  1  0  0  0  0
 17 22  2  0  0  0  0
 18 24  2  0  0  0  0
 20 23  1  0  0  0  0
 20 29  1  0  0  0  0
 20 52  1  0  0  0  0
 21 26  2  0  0  0  0
 21 30  1  0  0  0  0
 22 27  1  0  0  0  0
 22 56  1  0  0  0  0
 23 25  1  0  0  0  0
 23 54  1  0  0  0  0
 23 55  1  0  0  0  0
 24 28  1  0  0  0  0
 24 57  1  0  0  0  0
 25 31  1  0  0  0  0
 25 32  1  0  0  0  0
 25 58  1  0  0  0  0
 26 35  1  0  0  0  0
 27 28  2  0  0  0  0
 27 59  1  0  0  0  0
 28 60  1  0  0  0  0
 30 33  2  0  0  0  0
 30 61  1  0  0  0  0
 31 62  1  0  0  0  0
 31 63  1  0  0  0  0
 31 64  1  0  0  0  0
 32 65  1  0  0  0  0
 32 66  1  0  0  0  0
 32 67  1  0  0  0  0
 33 68  1  0  0  0  0
 34 36  1  0  0  0  0
 34 37  1  0  0  0  0
 34 70  1  0  0  0  0
 36 71  1  0  0  0  0
 36 72  1  0  0  0  0
 38 39  1  0  0  0  0
 38 75  1  0  0  0  0
 38 76  1  0  0  0  0
 39 40  1  0  0  0  0
 39 77  1  0  0  0  0
 39 78  1  0  0  0  0
 40 41  2  0  0  0  0
 40 42  1  0  0  0  0
 41 43  1  0  0  0  0
 41 80  1  0  0  0  0
 42 44  2  0  0  0  0
 42 81  1  0  0  0  0
 43 45  2  0  0  0  0
 43 82  1  0  0  0  0
 44 45  1  0  0  0  0
 44 83  1  0  0  0  0
 45 46  1  0  0  0  0
M  END
> <PUBCHEM_COMPOUND_CID>
507706
> <PUBCHEM_COMPOUND_CANONICALIZED>
1
> <PUBCHEM_CACTVS_COMPLEXITY>
1100
> <PUBCHEM_CACTVS_HBOND_ACCEPTOR>
10
> <PUBCHEM_CACTVS_HBOND_DONOR>
7
> <PUBCHEM_CACTVS_ROTATABLE_BOND>
15
> <PUBCHEM_CACTVS_SUBSKEYS>
AAADcfB/uABgAAAAAAAAAAAAAAAAAWJAAAAwYAAAAAAAAFgB0AAAHgQQCAAADajF2ASyyYLAAgyMAiXSWACDAIAlChBIiJmIbMgIZjLglbGUcQhk1gHo2YeY2fOeQAAAAAACAACAAAAAAAQAAAAAAAAAAA==
> <PUBCHEM_IUPAC_OPENEYE_NAME>
3-[[2-[[(1S)-1-[[(1R)-2-[2-(4-carboxyphenyl)ethylamino]-2-oxo-1-(sulfanylmethyl)ethyl]carbamoyl]-3-methyl-butyl]carbamoyl]indolin-2-yl]methyl]thiophene-2-carboxylic acid
> <PUBCHEM_IUPAC_CAS_NAME>
3-[[2-[[[(2S)-1-[[(2R)-1-[2-(4-carboxyphenyl)ethylamino]-3-mercapto-1-oxopropan-2-yl]amino]-4-methyl-1-oxopentan-2-yl]amino]-oxomethyl]-1,3-dihydroindol-2-yl]methyl]-2-thiophenecarboxylic acid
> <PUBCHEM_IUPAC_NAME_MARKUP>
3-[[2-[[(2<I>S</I>)-1-[[(2<I>R</I>)-1-[2-(4-carboxyphenyl)ethylamino]-1-oxo-3-sulfanylpropan-2-yl]amino]-4-methyl-1-oxopentan-2-yl]carbamoyl]-1,3-dihydroindol-2-yl]methyl]thiophene-2-carboxylic acid
> <PUBCHEM_IUPAC_NAME>
3-[[2-[[(2S)-1-[[(2R)-1-[2-(4-carboxyphenyl)ethylamino]-1-oxo-3-sulfanylpropan-2-yl]amino]-4-methyl-1-oxopentan-2-yl]carbamoyl]-1,3-dihydroindol-2-yl]methyl]thiophene-2-carboxylic acid
> <PUBCHEM_IUPAC_SYSTEMATIC_NAME>
3-[[2-[[(2S)-1-[[(2R)-1-[2-(4-carboxyphenyl)ethylamino]-1-oxidanylidene-3-sulfanyl-propan-2-yl]amino]-4-methyl-1-oxidanylidene-pentan-2-yl]carbamoyl]-1,3-dihydroindol-2-yl]methyl]thiophene-2-carboxylic acid
> <PUBCHEM_IUPAC_TRADITIONAL_NAME>
3-[[2-[[(1S)-1-[[(1R)-2-[2-(4-carboxyphenyl)ethylamino]-2-keto-1-(mercaptomethyl)ethyl]carbamoyl]-3-methyl-butyl]carbamoyl]indolin-2-yl]methyl]-2-thenoic acid
> <PUBCHEM_IUPAC_INCHI>
InChI=1S/C33H38N4O7S2/c1-19(2)15-25(29(39)35-26(18-45)28(38)34-13-11-20-7-9-21(10-8-20)30(40)41)36-32(44)33(16-22-5-3-4-6-24(22)37-33)17-23-12-14-46-27(23)31(42)43/h3-10,12,14,19,25-26,37,45H,11,13,15-18H2,1-2H3,(H,34,38)(H,35,39)(H,36,44)(H,40,41)(H,42,43)/t25-,26-,33?/m0/s1
> <PUBCHEM_IUPAC_INCHIKEY>
ZDCZTBJOHMMIGK-XEIHLUHKSA-N
> <PUBCHEM_XLOGP3_AA>
4.9
> <PUBCHEM_EXACT_MASS>
666.21819191
> <PUBCHEM_MOLECULAR_FORMULA>
C33H38N4O7S2
> <PUBCHEM_MOLECULAR_WEIGHT>
666.8
> <PUBCHEM_OPENEYE_CAN_SMILES>
CC(C)CC(C(=O)NC(CS)C(=O)NCCC1=CC=C(C=C1)C(=O)O)NC(=O)C2(CC3=CC=CC=C3N2)CC4=C(SC=C4)C(=O)O
> <PUBCHEM_OPENEYE_ISO_SMILES>
CC(C)C[C@@H](C(=O)N[C@@H](CS)C(=O)NCCC1=CC=C(C=C1)C(=O)O)NC(=O)C2(CC3=CC=CC=C3N2)CC4=C(SC=C4)C(=O)O
> <PUBCHEM_CACTVS_TPSA>
203
> <PUBCHEM_MONOISOTOPIC_WEIGHT>
666.21819191
> <PUBCHEM_TOTAL_CHARGE>
0
> <PUBCHEM_HEAVY_ATOM_COUNT>
46
> <PUBCHEM_ATOM_DEF_STEREO_COUNT>
2
> <PUBCHEM_ATOM_UDEF_STEREO_COUNT>
1
> <PUBCHEM_BOND_DEF_STEREO_COUNT>
0
> <PUBCHEM_BOND_UDEF_STEREO_COUNT>
0
> <PUBCHEM_ISOTOPIC_ATOM_COUNT>
0
> <PUBCHEM_COMPONENT_COUNT>
1
> <PUBCHEM_CACTVS_TAUTO_COUNT>
-1
> <PUBCHEM_COORDINATE_TYPE>
1
5
255
> <PUBCHEM_BONDANNOTATIONS>
1  26  8
1  33  8
20  11  6
34  12  5
14  16  3
17  18  8
17  22  8
18  24  8
21  26  8
21  30  8
22  27  8
24  28  8
27  28  8
30  33  8
40  41  8
40  42  8
41  43  8
42  44  8
43  45  8
44  45  8
$$$$
