507707
  -OEChem-10302200282D
 86 89  0     1  0  0  0  0  0999 V2000
   11.6295   -3.5704    0.0000 Cl  0  0  0  0  0  0  0  0  0  0  0  0
    6.3028    5.2914    0.0000 S   0  0  0  0  0  0  0  0  0  0  0  0
   11.5522    3.9791    0.0000 F   0  0  0  0  0  0  0  0  0  0  0  0
   12.2567    2.3968    0.0000 F   0  0  0  0  0  0  0  0  0  0  0  0
    5.9664    0.5441    0.0000 O   0  0  0  0  0  0  0  0  0  0  0  0
    8.8115    2.7589    0.0000 O   0  0  0  0  0  0  0  0  0  0  0  0
    8.3568    4.9131    0.0000 O   0  0  0  0  0  0  0  0  0  0  0  0
    7.9967    3.2189    0.0000 O   0  0  0  0  0  0  0  0  0  0  0  0
   12.1521    1.4022    0.0000 O   0  0  0  0  0  0  0  0  0  0  0  0
   14.9701   -4.9270    0.0000 O   0  0  0  0  0  0  0  0  0  0  0  0
   15.9882   -3.5257    0.0000 O   0  0  0  0  0  0  0  0  0  0  0  0
    4.6783    1.3217    0.0000 N   0  0  0  0  0  0  0  0  0  0  0  0
    6.9844    1.9454    0.0000 N   0  0  0  0  0  0  0  0  0  0  0  0
    9.5160    1.1766    0.0000 N   0  0  0  0  0  0  0  0  0  0  0  0
   11.1341    0.0010    0.0000 N   0  0  0  0  0  0  0  0  0  0  0  0
    5.2619    2.1264    0.0000 C   0  0  3  0  0  0  0  0  0  0  0  0
    4.6783    2.9312    0.0000 C   0  0  0  0  0  0  0  0  0  0  0  0
    6.0709    2.7142    0.0000 C   0  0  0  0  0  0  0  0  0  0  0  0
    3.7320    2.6264    0.0000 C   0  0  0  0  0  0  0  0  0  0  0  0
    3.7320    1.6264    0.0000 C   0  0  0  0  0  0  0  0  0  0  0  0
    6.0709    1.5386    0.0000 C   0  0  0  0  0  0  0  0  0  0  0  0
    7.7935    1.3576    0.0000 C   0  0  1  0  0  0  0  0  0  0  0  0
    5.9664    3.7087    0.0000 C   0  0  0  0  0  0  0  0  0  0  0  0
    7.6889    0.3631    0.0000 C   0  0  0  0  0  0  0  0  0  0  0  0
    2.8660    3.1264    0.0000 C   0  0  0  0  0  0  0  0  0  0  0  0
    2.8660    1.1264    0.0000 C   0  0  0  0  0  0  0  0  0  0  0  0
    8.0957   -0.5505    0.0000 C   0  0  0  0  0  0  0  0  0  0  0  0
    8.7070    1.7643    0.0000 C   0  0  0  0  0  0  0  0  0  0  0  0
    6.7095    4.3779    0.0000 C   0  0  0  0  0  0  0  0  0  0  0  0
    2.0000    2.6264    0.0000 C   0  0  0  0  0  0  0  0  0  0  0  0
    2.0000    1.6264    0.0000 C   0  0  0  0  0  0  0  0  0  0  0  0
    5.1003    4.2087    0.0000 C   0  0  0  0  0  0  0  0  0  0  0  0
    7.5079   -1.3595    0.0000 C   0  0  0  0  0  0  0  0  0  0  0  0
    9.0902   -0.6550    0.0000 C   0  0  0  0  0  0  0  0  0  0  0  0
   10.4296    1.5833    0.0000 C   0  0  1  0  0  0  0  0  0  0  0  0
    5.3082    5.1869    0.0000 C   0  0  0  0  0  0  0  0  0  0  0  0
    7.6877    4.1700    0.0000 C   0  0  0  0  0  0  0  0  0  0  0  0
   10.5341    2.5778    0.0000 C   0  0  0  0  0  0  0  0  0  0  0  0
   11.2386    0.9955    0.0000 C   0  0  0  0  0  0  0  0  0  0  0  0
   11.4476    2.9846    0.0000 C   0  0  0  0  0  0  0  0  0  0  0  0
   11.9431   -0.5868    0.0000 C   0  0  0  0  0  0  0  0  0  0  0  0
   11.8385   -1.5813    0.0000 C   0  0  0  0  0  0  0  0  0  0  0  0
   12.6476   -2.1691    0.0000 C   0  0  0  0  0  0  0  0  0  0  0  0
   12.5430   -3.1636    0.0000 C   0  0  0  0  0  0  0  0  0  0  0  0
   13.5611   -1.7624    0.0000 C   0  0  0  0  0  0  0  0  0  0  0  0
   13.3520   -3.7514    0.0000 C   0  0  0  0  0  0  0  0  0  0  0  0
   14.3701   -2.3502    0.0000 C   0  0  0  0  0  0  0  0  0  0  0  0
   14.2656   -3.3447    0.0000 C   0  0  0  0  0  0  0  0  0  0  0  0
   15.0746   -3.9325    0.0000 C   0  0  0  0  0  0  0  0  0  0  0  0
    5.2156    3.2404    0.0000 H   0  0  0  0  0  0  0  0  0  0  0  0
    4.4272    3.4981    0.0000 H   0  0  0  0  0  0  0  0  0  0  0  0
    6.3427    2.1570    0.0000 H   0  0  0  0  0  0  0  0  0  0  0  0
    6.6669    2.8851    0.0000 H   0  0  0  0  0  0  0  0  0  0  0  0
    4.8709    0.7324    0.0000 H   0  0  0  0  0  0  0  0  0  0  0  0
    7.2271    1.1054    0.0000 H   0  0  0  0  0  0  0  0  0  0  0  0
    7.0492    2.5620    0.0000 H   0  0  0  0  0  0  0  0  0  0  0  0
    7.1317    0.6349    0.0000 H   0  0  0  0  0  0  0  0  0  0  0  0
    8.3013    0.4601    0.0000 H   0  0  0  0  0  0  0  0  0  0  0  0
    2.8660    3.7464    0.0000 H   0  0  0  0  0  0  0  0  0  0  0  0
    2.8660    0.5064    0.0000 H   0  0  0  0  0  0  0  0  0  0  0  0
    7.4791   -0.4857    0.0000 H   0  0  0  0  0  0  0  0  0  0  0  0
    1.4631    2.9364    0.0000 H   0  0  0  0  0  0  0  0  0  0  0  0
    1.4631    1.3164    0.0000 H   0  0  0  0  0  0  0  0  0  0  0  0
    4.5339    3.9566    0.0000 H   0  0  0  0  0  0  0  0  0  0  0  0
    7.0063   -0.9951    0.0000 H   0  0  0  0  0  0  0  0  0  0  0  0
    7.1435   -1.8611    0.0000 H   0  0  0  0  0  0  0  0  0  0  0  0
    8.0095   -1.7239    0.0000 H   0  0  0  0  0  0  0  0  0  0  0  0
    9.0254   -1.2716    0.0000 H   0  0  0  0  0  0  0  0  0  0  0  0
    9.7068   -0.7198    0.0000 H   0  0  0  0  0  0  0  0  0  0  0  0
    9.1550   -0.0384    0.0000 H   0  0  0  0  0  0  0  0  0  0  0  0
    9.4512    0.5599    0.0000 H   0  0  0  0  0  0  0  0  0  0  0  0
    9.9280    1.9477    0.0000 H   0  0  0  0  0  0  0  0  0  0  0  0
    4.8934    5.6476    0.0000 H   0  0  0  0  0  0  0  0  0  0  0  0
   10.3841    3.1794    0.0000 H   0  0  0  0  0  0  0  0  0  0  0  0
    9.9156    2.5346    0.0000 H   0  0  0  0  0  0  0  0  0  0  0  0
   12.0140    3.2367    0.0000 H   0  0  0  0  0  0  0  0  0  0  0  0
   10.5677   -0.2512    0.0000 H   0  0  0  0  0  0  0  0  0  0  0  0
   12.5391   -0.7577    0.0000 H   0  0  0  0  0  0  0  0  0  0  0  0
   12.2149   -0.0296    0.0000 H   0  0  0  0  0  0  0  0  0  0  0  0
    8.9632    4.7842    0.0000 H   0  0  0  0  0  0  0  0  0  0  0  0
   11.2426   -1.4104    0.0000 H   0  0  0  0  0  0  0  0  0  0  0  0
   11.5668   -2.1386    0.0000 H   0  0  0  0  0  0  0  0  0  0  0  0
   13.6259   -1.1458    0.0000 H   0  0  0  0  0  0  0  0  0  0  0  0
   13.2872   -4.3680    0.0000 H   0  0  0  0  0  0  0  0  0  0  0  0
   14.9365   -2.0980    0.0000 H   0  0  0  0  0  0  0  0  0  0  0  0
   15.4717   -5.2914    0.0000 H   0  0  0  0  0  0  0  0  0  0  0  0
  1 44  1  0  0  0  0
  2 29  1  0  0  0  0
  2 36  1  0  0  0  0
  3 40  1  0  0  0  0
  4 40  1  0  0  0  0
  5 21  2  0  0  0  0
  6 28  2  0  0  0  0
  7 37  1  0  0  0  0
  7 80  1  0  0  0  0
  8 37  2  0  0  0  0
  9 39  2  0  0  0  0
 10 49  1  0  0  0  0
 10 86  1  0  0  0  0
 11 49  2  0  0  0  0
 12 16  1  0  0  0  0
 12 20  1  0  0  0  0
 12 54  1  0  0  0  0
 13 21  1  0  0  0  0
 22 13  1  6  0  0  0
 13 56  1  0  0  0  0
 14 28  1  0  0  0  0
 35 14  1  1  0  0  0
 14 71  1  0  0  0  0
 15 39  1  0  0  0  0
 15 41  1  0  0  0  0
 15 77  1  0  0  0  0
 16 17  1  0  0  0  0
 16 18  1  0  0  0  0
 16 21  1  0  0  0  0
 17 19  1  0  0  0  0
 17 50  1  0  0  0  0
 17 51  1  0  0  0  0
 18 23  1  0  0  0  0
 18 52  1  0  0  0  0
 18 53  1  0  0  0  0
 19 20  1  0  0  0  0
 19 25  2  0  0  0  0
 20 26  2  0  0  0  0
 22 24  1  0  0  0  0
 22 28  1  0  0  0  0
 22 55  1  0  0  0  0
 23 29  2  0  0  0  0
 23 32  1  0  0  0  0
 24 27  1  0  0  0  0
 24 57  1  0  0  0  0
 24 58  1  0  0  0  0
 25 30  1  0  0  0  0
 25 59  1  0  0  0  0
 26 31  1  0  0  0  0
 26 60  1  0  0  0  0
 27 33  1  0  0  0  0
 27 34  1  0  0  0  0
 27 61  1  0  0  0  0
 29 37  1  0  0  0  0
 30 31  2  0  0  0  0
 30 62  1  0  0  0  0
 31 63  1  0  0  0  0
 32 36  2  0  0  0  0
 32 64  1  0  0  0  0
 33 65  1  0  0  0  0
 33 66  1  0  0  0  0
 33 67  1  0  0  0  0
 34 68  1  0  0  0  0
 34 69  1  0  0  0  0
 34 70  1  0  0  0  0
 35 38  1  0  0  0  0
 35 39  1  0  0  0  0
 35 72  1  0  0  0  0
 36 73  1  0  0  0  0
 38 40  1  0  0  0  0
 38 74  1  0  0  0  0
 38 75  1  0  0  0  0
 40 76  1  0  0  0  0
 41 42  1  0  0  0  0
 41 78  1  0  0  0  0
 41 79  1  0  0  0  0
 42 43  1  0  0  0  0
 42 81  1  0  0  0  0
 42 82  1  0  0  0  0
 43 44  2  0  0  0  0
 43 45  1  0  0  0  0
 44 46  1  0  0  0  0
 45 47  2  0  0  0  0
 45 83  1  0  0  0  0
 46 48  2  0  0  0  0
 46 84  1  0  0  0  0
 47 48  1  0  0  0  0
 47 85  1  0  0  0  0
 48 49  1  0  0  0  0
M  END
> <PUBCHEM_COMPOUND_CID>
507707
> <PUBCHEM_COMPOUND_CANONICALIZED>
1
> <PUBCHEM_CACTVS_COMPLEXITY>
1200
> <PUBCHEM_CACTVS_HBOND_ACCEPTOR>
11
> <PUBCHEM_CACTVS_HBOND_DONOR>
6
> <PUBCHEM_CACTVS_ROTATABLE_BOND>
16
> <PUBCHEM_CACTVS_SUBSKEYS>
AAADcfB/uYBEAAAAAAAAAAAAAAAAAWJAAAAwYAAAAAAAAFgB0AAAHwYQCAAADarF2DSyyYLAAgiMAiXSWACDAIAlDxBIiJmIbsgIZjLhl7GUcQhk1gHo2YeY2fOeQAAAIAADAACAAABAAAYAAAAAAAAAAA==
> <PUBCHEM_IUPAC_OPENEYE_NAME>
3-[[2-[[(1S)-1-[[(1S)-1-[2-(4-carboxy-2-chloro-phenyl)ethylcarbamoyl]-3,3-difluoro-propyl]carbamoyl]-3-methyl-butyl]carbamoyl]indolin-2-yl]methyl]thiophene-2-carboxylic acid
> <PUBCHEM_IUPAC_CAS_NAME>
3-[[2-[[[(2S)-1-[[(2S)-1-[2-(4-carboxy-2-chlorophenyl)ethylamino]-4,4-difluoro-1-oxobutan-2-yl]amino]-4-methyl-1-oxopentan-2-yl]amino]-oxomethyl]-1,3-dihydroindol-2-yl]methyl]-2-thiophenecarboxylic acid
> <PUBCHEM_IUPAC_NAME_MARKUP>
3-[[2-[[(2<I>S</I>)-1-[[(2<I>S</I>)-1-[2-(4-carboxy-2-chlorophenyl)ethylamino]-4,4-difluoro-1-oxobutan-2-yl]amino]-4-methyl-1-oxopentan-2-yl]carbamoyl]-1,3-dihydroindol-2-yl]methyl]thiophene-2-carboxylic acid
> <PUBCHEM_IUPAC_NAME>
3-[[2-[[(2S)-1-[[(2S)-1-[2-(4-carboxy-2-chlorophenyl)ethylamino]-4,4-difluoro-1-oxobutan-2-yl]amino]-4-methyl-1-oxopentan-2-yl]carbamoyl]-1,3-dihydroindol-2-yl]methyl]thiophene-2-carboxylic acid
> <PUBCHEM_IUPAC_SYSTEMATIC_NAME>
3-[[2-[[(2S)-1-[[(2S)-1-[2-(4-carboxy-2-chloranyl-phenyl)ethylamino]-4,4-bis(fluoranyl)-1-oxidanylidene-butan-2-yl]amino]-4-methyl-1-oxidanylidene-pentan-2-yl]carbamoyl]-1,3-dihydroindol-2-yl]methyl]thiophene-2-carboxylic acid
> <PUBCHEM_IUPAC_TRADITIONAL_NAME>
3-[[2-[[(1S)-1-[[(1S)-1-[2-(4-carboxy-2-chloro-phenyl)ethylcarbamoyl]-3,3-difluoro-propyl]carbamoyl]-3-methyl-butyl]carbamoyl]indolin-2-yl]methyl]-2-thenoic acid
> <PUBCHEM_IUPAC_INCHI>
InChI=1S/C34H37ClF2N4O7S/c1-18(2)13-25(30(43)39-26(15-27(36)37)29(42)38-11-9-19-7-8-20(31(44)45)14-23(19)35)40-33(48)34(16-21-5-3-4-6-24(21)41-34)17-22-10-12-49-28(22)32(46)47/h3-8,10,12,14,18,25-27,41H,9,11,13,15-17H2,1-2H3,(H,38,42)(H,39,43)(H,40,48)(H,44,45)(H,46,47)/t25-,26-,34?/m0/s1
> <PUBCHEM_IUPAC_INCHIKEY>
PPTYAPBAHCGICR-XLUDPVLTSA-N
> <PUBCHEM_XLOGP3_AA>
6.4
> <PUBCHEM_EXACT_MASS>
718.2039547
> <PUBCHEM_MOLECULAR_FORMULA>
C34H37ClF2N4O7S
> <PUBCHEM_MOLECULAR_WEIGHT>
719.2
> <PUBCHEM_OPENEYE_CAN_SMILES>
CC(C)CC(C(=O)NC(CC(F)F)C(=O)NCCC1=C(C=C(C=C1)C(=O)O)Cl)NC(=O)C2(CC3=CC=CC=C3N2)CC4=C(SC=C4)C(=O)O
> <PUBCHEM_OPENEYE_ISO_SMILES>
CC(C)C[C@@H](C(=O)N[C@@H](CC(F)F)C(=O)NCCC1=C(C=C(C=C1)C(=O)O)Cl)NC(=O)C2(CC3=CC=CC=C3N2)CC4=C(SC=C4)C(=O)O
> <PUBCHEM_CACTVS_TPSA>
202
> <PUBCHEM_MONOISOTOPIC_WEIGHT>
718.2039547
> <PUBCHEM_TOTAL_CHARGE>
0
> <PUBCHEM_HEAVY_ATOM_COUNT>
49
> <PUBCHEM_ATOM_DEF_STEREO_COUNT>
2
> <PUBCHEM_ATOM_UDEF_STEREO_COUNT>
1
> <PUBCHEM_BOND_DEF_STEREO_COUNT>
0
> <PUBCHEM_BOND_UDEF_STEREO_COUNT>
0
> <PUBCHEM_ISOTOPIC_ATOM_COUNT>
0
> <PUBCHEM_COMPONENT_COUNT>
1
> <PUBCHEM_CACTVS_TAUTO_COUNT>
-1
> <PUBCHEM_COORDINATE_TYPE>
1
5
255
> <PUBCHEM_BONDANNOTATIONS>
22  13  6
35  14  5
16  18  3
19  20  8
19  25  8
2  29  8
2  36  8
20  26  8
23  29  8
23  32  8
25  30  8
26  31  8
30  31  8
32  36  8
43  44  8
43  45  8
44  46  8
45  47  8
46  48  8
47  48  8
$$$$
