507779
  -OEChem-10302200282D
 59 62  0     1  0  0  0  0  0999 V2000
    9.2334   -1.0963    0.0000 O   0  0  0  0  0  0  0  0  0  0  0  0
    9.1403    4.1944    0.0000 O   0  0  0  0  0  0  0  0  0  0  0  0
    6.9192    0.1861    0.0000 O   0  0  0  0  0  0  0  0  0  0  0  0
    3.7320   -3.3135    0.0000 O   0  0  0  0  0  0  0  0  0  0  0  0
    6.9192   -4.8130    0.0000 O   0  0  0  0  0  0  0  0  0  0  0  0
    2.8660   -1.8135    0.0000 O   0  0  0  0  0  0  0  0  0  0  0  0
    8.8762    0.5985    0.0000 N   0  0  0  0  0  0  0  0  0  0  0  0
    9.4975    2.4996    0.0000 N   0  0  0  0  0  0  0  0  0  0  0  0
    7.2764   -3.1182    0.0000 N   0  0  0  0  0  0  0  0  0  0  0  0
    5.4641   -3.3135    0.0000 N   0  0  0  0  0  0  0  0  0  0  0  0
    9.8547    0.8047    0.0000 C   0  0  1  0  0  0  0  0  0  0  0  0
   10.1653    1.7552    0.0000 C   0  0  0  0  0  0  0  0  0  0  0  0
    8.2083    1.3428    0.0000 C   0  0  0  0  0  0  0  0  0  0  0  0
    8.5190    2.2933    0.0000 C   0  0  0  0  0  0  0  0  0  0  0  0
   10.5225    0.0604    0.0000 C   0  0  0  0  0  0  0  0  0  0  0  0
    8.5655   -0.3520    0.0000 C   0  0  0  0  0  0  0  0  0  0  0  0
    9.8082    3.4501    0.0000 C   0  0  0  0  0  0  0  0  0  0  0  0
    7.5870   -0.5582    0.0000 C   0  0  0  0  0  0  0  0  0  0  0  0
    7.2764   -1.5088    0.0000 C   0  0  0  0  0  0  0  0  0  0  0  0
   10.7867    3.6563    0.0000 C   0  0  0  0  0  0  0  0  0  0  0  0
    6.3301   -1.8135    0.0000 C   0  0  0  0  0  0  0  0  0  0  0  0
    7.8600   -2.3135    0.0000 C   0  0  0  0  0  0  0  0  0  0  0  0
    6.3301   -2.8135    0.0000 C   0  0  0  0  0  0  0  0  0  0  0  0
   11.0973    4.6068    0.0000 C   0  0  0  0  0  0  0  0  0  0  0  0
   11.4545    2.9120    0.0000 C   0  0  0  0  0  0  0  0  0  0  0  0
    5.4641   -1.3135    0.0000 C   0  0  0  0  0  0  0  0  0  0  0  0
    7.5870   -4.0687    0.0000 C   0  0  0  0  0  0  0  0  0  0  0  0
   12.0758    4.8130    0.0000 C   0  0  0  0  0  0  0  0  0  0  0  0
   12.4330    3.1182    0.0000 C   0  0  0  0  0  0  0  0  0  0  0  0
    4.5981   -1.8135    0.0000 C   0  0  0  0  0  0  0  0  0  0  0  0
    4.5981   -2.8135    0.0000 C   0  0  0  0  0  0  0  0  0  0  0  0
   12.7437    4.0687    0.0000 C   0  0  0  0  0  0  0  0  0  0  0  0
    8.5655   -4.2749    0.0000 C   0  0  0  0  0  0  0  0  0  0  0  0
    2.8660   -2.8135    0.0000 C   0  0  0  0  0  0  0  0  0  0  0  0
    2.0000   -3.3135    0.0000 C   0  0  0  0  0  0  0  0  0  0  0  0
    9.6621    0.2154    0.0000 H   0  0  0  0  0  0  0  0  0  0  0  0
   10.7123    1.4632    0.0000 H   0  0  0  0  0  0  0  0  0  0  0  0
   10.5479    2.2432    0.0000 H   0  0  0  0  0  0  0  0  0  0  0  0
    7.6614    1.6348    0.0000 H   0  0  0  0  0  0  0  0  0  0  0  0
    7.8258    0.8549    0.0000 H   0  0  0  0  0  0  0  0  0  0  0  0
    8.4984    2.9130    0.0000 H   0  0  0  0  0  0  0  0  0  0  0  0
    7.9052    2.3807    0.0000 H   0  0  0  0  0  0  0  0  0  0  0  0
   10.0611   -0.3536    0.0000 H   0  0  0  0  0  0  0  0  0  0  0  0
   10.9366   -0.4010    0.0000 H   0  0  0  0  0  0  0  0  0  0  0  0
   10.9840    0.4745    0.0000 H   0  0  0  0  0  0  0  0  0  0  0  0
    8.4800   -2.3135    0.0000 H   0  0  0  0  0  0  0  0  0  0  0  0
   10.6833    5.0683    0.0000 H   0  0  0  0  0  0  0  0  0  0  0  0
   11.2619    2.3227    0.0000 H   0  0  0  0  0  0  0  0  0  0  0  0
    5.4641   -0.6935    0.0000 H   0  0  0  0  0  0  0  0  0  0  0  0
   12.2684    5.4024    0.0000 H   0  0  0  0  0  0  0  0  0  0  0  0
   12.8471    2.6567    0.0000 H   0  0  0  0  0  0  0  0  0  0  0  0
    4.0611   -1.5035    0.0000 H   0  0  0  0  0  0  0  0  0  0  0  0
   13.3504    4.1966    0.0000 H   0  0  0  0  0  0  0  0  0  0  0  0
    8.4377   -4.8816    0.0000 H   0  0  0  0  0  0  0  0  0  0  0  0
    9.1722   -4.4028    0.0000 H   0  0  0  0  0  0  0  0  0  0  0  0
    8.6934   -3.6683    0.0000 H   0  0  0  0  0  0  0  0  0  0  0  0
    1.6900   -2.7765    0.0000 H   0  0  0  0  0  0  0  0  0  0  0  0
    1.4631   -3.6235    0.0000 H   0  0  0  0  0  0  0  0  0  0  0  0
    2.3100   -3.8504    0.0000 H   0  0  0  0  0  0  0  0  0  0  0  0
  1 16  2  0  0  0  0
  2 17  2  0  0  0  0
  3 18  2  0  0  0  0
  4 31  1  0  0  0  0
  4 34  1  0  0  0  0
  5 27  2  0  0  0  0
  6 34  2  0  0  0  0
  7 11  1  0  0  0  0
  7 13  1  0  0  0  0
  7 16  1  0  0  0  0
  8 12  1  0  0  0  0
  8 14  1  0  0  0  0
  8 17  1  0  0  0  0
  9 22  1  0  0  0  0
  9 23  1  0  0  0  0
  9 27  1  0  0  0  0
 10 23  1  0  0  0  0
 10 31  2  0  0  0  0
 11 12  1  0  0  0  0
 11 15  1  1  0  0  0
 11 36  1  0  0  0  0
 12 37  1  0  0  0  0
 12 38  1  0  0  0  0
 13 14  1  0  0  0  0
 13 39  1  0  0  0  0
 13 40  1  0  0  0  0
 14 41  1  0  0  0  0
 14 42  1  0  0  0  0
 15 43  1  0  0  0  0
 15 44  1  0  0  0  0
 15 45  1  0  0  0  0
 16 18  1  0  0  0  0
 17 20  1  0  0  0  0
 18 19  1  0  0  0  0
 19 21  1  0  0  0  0
 19 22  2  0  0  0  0
 20 24  2  0  0  0  0
 20 25  1  0  0  0  0
 21 23  2  0  0  0  0
 21 26  1  0  0  0  0
 22 46  1  0  0  0  0
 24 28  1  0  0  0  0
 24 47  1  0  0  0  0
 25 29  2  0  0  0  0
 25 48  1  0  0  0  0
 26 30  2  0  0  0  0
 26 49  1  0  0  0  0
 27 33  1  0  0  0  0
 28 32  2  0  0  0  0
 28 50  1  0  0  0  0
 29 32  1  0  0  0  0
 29 51  1  0  0  0  0
 30 31  1  0  0  0  0
 30 52  1  0  0  0  0
 32 53  1  0  0  0  0
 33 54  1  0  0  0  0
 33 55  1  0  0  0  0
 33 56  1  0  0  0  0
 34 35  1  0  0  0  0
 35 57  1  0  0  0  0
 35 58  1  0  0  0  0
 35 59  1  0  0  0  0
M  END
> <PUBCHEM_COMPOUND_CID>
507779
> <PUBCHEM_COMPOUND_CANONICALIZED>
1
> <PUBCHEM_CACTVS_COMPLEXITY>
872
> <PUBCHEM_CACTVS_HBOND_ACCEPTOR>
7
> <PUBCHEM_CACTVS_HBOND_DONOR>
0
> <PUBCHEM_CACTVS_ROTATABLE_BOND>
5
> <PUBCHEM_CACTVS_SUBSKEYS>
AAADceB7uAAAAAAAAAAAAAAAAAAAAWAAAAA8WIAAAAAAAFgB/AAAHgAAAAAADCzBmwQ/vN8MFACoArP3fACCiCk1IqAJ2CG+bNiMbvrEvbueO6jsxxPI6eec2TKOgAAAAAAAAAAAAAAAAAAAAAAAAAAAAA==
> <PUBCHEM_IUPAC_OPENEYE_NAME>
[1-acetyl-3-[2-[(2R)-4-benzoyl-2-methyl-piperazin-1-yl]-2-oxo-acetyl]pyrrolo[2,3-b]pyridin-6-yl] acetate
> <PUBCHEM_IUPAC_CAS_NAME>
acetic acid [1-acetyl-3-[2-[(2R)-4-benzoyl-2-methyl-1-piperazinyl]-1,2-dioxoethyl]-6-pyrrolo[2,3-b]pyridinyl] ester
> <PUBCHEM_IUPAC_NAME_MARKUP>
[1-acetyl-3-[2-[(2<I>R</I>)-4-benzoyl-2-methylpiperazin-1-yl]-2-oxoacetyl]pyrrolo[2,3-b]pyridin-6-yl] acetate
> <PUBCHEM_IUPAC_NAME>
[1-acetyl-3-[2-[(2R)-4-benzoyl-2-methylpiperazin-1-yl]-2-oxoacetyl]pyrrolo[2,3-b]pyridin-6-yl] acetate
> <PUBCHEM_IUPAC_SYSTEMATIC_NAME>
[1-ethanoyl-3-[2-[(2R)-2-methyl-4-(phenylcarbonyl)piperazin-1-yl]-2-oxidanylidene-ethanoyl]pyrrolo[2,3-b]pyridin-6-yl] ethanoate
> <PUBCHEM_IUPAC_TRADITIONAL_NAME>
acetic acid [1-acetyl-3-[2-[(2R)-4-benzoyl-2-methyl-piperazino]-2-keto-acetyl]pyrrolo[2,3-b]pyridin-6-yl] ester
> <PUBCHEM_IUPAC_INCHI>
InChI=1S/C25H24N4O6/c1-15-13-27(24(33)18-7-5-4-6-8-18)11-12-28(15)25(34)22(32)20-14-29(16(2)30)23-19(20)9-10-21(26-23)35-17(3)31/h4-10,14-15H,11-13H2,1-3H3/t15-/m1/s1
> <PUBCHEM_IUPAC_INCHIKEY>
JZLGERJTGWASPZ-OAHLLOKOSA-N
> <PUBCHEM_XLOGP3_AA>
1.9
> <PUBCHEM_EXACT_MASS>
476.16958450
> <PUBCHEM_MOLECULAR_FORMULA>
C25H24N4O6
> <PUBCHEM_MOLECULAR_WEIGHT>
476.5
> <PUBCHEM_OPENEYE_CAN_SMILES>
CC1CN(CCN1C(=O)C(=O)C2=CN(C3=C2C=CC(=N3)OC(=O)C)C(=O)C)C(=O)C4=CC=CC=C4
> <PUBCHEM_OPENEYE_ISO_SMILES>
C[C@@H]1CN(CCN1C(=O)C(=O)C2=CN(C3=C2C=CC(=N3)OC(=O)C)C(=O)C)C(=O)C4=CC=CC=C4
> <PUBCHEM_CACTVS_TPSA>
119
> <PUBCHEM_MONOISOTOPIC_WEIGHT>
476.16958450
> <PUBCHEM_TOTAL_CHARGE>
0
> <PUBCHEM_HEAVY_ATOM_COUNT>
35
> <PUBCHEM_ATOM_DEF_STEREO_COUNT>
1
> <PUBCHEM_ATOM_UDEF_STEREO_COUNT>
0
> <PUBCHEM_BOND_DEF_STEREO_COUNT>
0
> <PUBCHEM_BOND_UDEF_STEREO_COUNT>
0
> <PUBCHEM_ISOTOPIC_ATOM_COUNT>
0
> <PUBCHEM_COMPONENT_COUNT>
1
> <PUBCHEM_CACTVS_TAUTO_COUNT>
-1
> <PUBCHEM_COORDINATE_TYPE>
1
5
255
> <PUBCHEM_BONDANNOTATIONS>
10  23  8
10  31  8
11  15  5
19  21  8
19  22  8
20  24  8
20  25  8
21  23  8
21  26  8
24  28  8
25  29  8
26  30  8
28  32  8
29  32  8
30  31  8
9  22  8
9  23  8
$$$$
