507703
  -OEChem-10302200282D
 87 90  0     1  0  0  0  0  0999 V2000
   11.4476    0.4279    0.0000 S   0  0  0  0  0  0  0  0  0  0  0  0
    5.9664   -2.0125    0.0000 O   0  0  0  0  0  0  0  0  0  0  0  0
    8.8115    0.2022    0.0000 O   0  0  0  0  0  0  0  0  0  0  0  0
    7.3754    4.3167    0.0000 O   0  0  0  0  0  0  0  0  0  0  0  0
    8.3934    2.9154    0.0000 O   0  0  0  0  0  0  0  0  0  0  0  0
   11.1341   -2.5557    0.0000 O   0  0  0  0  0  0  0  0  0  0  0  0
   18.0243   -3.2799    0.0000 O   0  0  0  0  0  0  0  0  0  0  0  0
   17.0062   -4.6811    0.0000 O   0  0  0  0  0  0  0  0  0  0  0  0
    4.6783   -1.2350    0.0000 N   0  0  0  0  0  0  0  0  0  0  0  0
    6.9844   -0.6113    0.0000 N   0  0  0  0  0  0  0  0  0  0  0  0
    9.5160   -1.3801    0.0000 N   0  0  0  0  0  0  0  0  0  0  0  0
   12.1521   -1.1544    0.0000 N   0  0  0  0  0  0  0  0  0  0  0  0
    5.2619   -0.4302    0.0000 C   0  0  3  0  0  0  0  0  0  0  0  0
    4.6783    0.3745    0.0000 C   0  0  0  0  0  0  0  0  0  0  0  0
    6.0709    0.1576    0.0000 C   0  0  0  0  0  0  0  0  0  0  0  0
    3.7320    0.0698    0.0000 C   0  0  0  0  0  0  0  0  0  0  0  0
    3.7320   -0.9302    0.0000 C   0  0  0  0  0  0  0  0  0  0  0  0
    6.0709   -1.0180    0.0000 C   0  0  0  0  0  0  0  0  0  0  0  0
    7.7935   -1.1991    0.0000 C   0  0  1  0  0  0  0  0  0  0  0  0
    5.9664    1.1521    0.0000 C   0  0  0  0  0  0  0  0  0  0  0  0
    2.8660    0.5698    0.0000 C   0  0  0  0  0  0  0  0  0  0  0  0
    7.6889   -2.1936    0.0000 C   0  0  0  0  0  0  0  0  0  0  0  0
    2.8660   -1.4302    0.0000 C   0  0  0  0  0  0  0  0  0  0  0  0
    8.0957   -3.1071    0.0000 C   0  0  0  0  0  0  0  0  0  0  0  0
    2.0000    0.0698    0.0000 C   0  0  0  0  0  0  0  0  0  0  0  0
    2.0000   -0.9302    0.0000 C   0  0  0  0  0  0  0  0  0  0  0  0
    8.7070   -0.7923    0.0000 C   0  0  0  0  0  0  0  0  0  0  0  0
    6.7754    1.7399    0.0000 C   0  0  0  0  0  0  0  0  0  0  0  0
    5.0528    1.5588    0.0000 C   0  0  0  0  0  0  0  0  0  0  0  0
    7.5079   -3.9161    0.0000 C   0  0  0  0  0  0  0  0  0  0  0  0
    9.0902   -3.2116    0.0000 C   0  0  0  0  0  0  0  0  0  0  0  0
    6.6709    2.7344    0.0000 C   0  0  0  0  0  0  0  0  0  0  0  0
    4.9483    2.5533    0.0000 C   0  0  0  0  0  0  0  0  0  0  0  0
   10.4296   -0.9734    0.0000 C   0  0  1  0  0  0  0  0  0  0  0  0
    5.7573    3.1411    0.0000 C   0  0  0  0  0  0  0  0  0  0  0  0
   10.5341    0.0212    0.0000 C   0  0  0  0  0  0  0  0  0  0  0  0
    7.4799    3.3222    0.0000 C   0  0  0  0  0  0  0  0  0  0  0  0
   11.2386   -1.5612    0.0000 C   0  0  0  0  0  0  0  0  0  0  0  0
   12.9611   -1.7422    0.0000 C   0  0  0  0  0  0  0  0  0  0  0  0
   13.8747   -1.3355    0.0000 C   0  0  0  0  0  0  0  0  0  0  0  0
   14.6837   -1.9232    0.0000 C   0  0  0  0  0  0  0  0  0  0  0  0
   14.5792   -2.9178    0.0000 C   0  0  0  0  0  0  0  0  0  0  0  0
   15.5973   -1.5165    0.0000 C   0  0  0  0  0  0  0  0  0  0  0  0
   15.3882   -3.5056    0.0000 C   0  0  0  0  0  0  0  0  0  0  0  0
   16.4063   -2.1043    0.0000 C   0  0  0  0  0  0  0  0  0  0  0  0
   16.3017   -3.0988    0.0000 C   0  0  0  0  0  0  0  0  0  0  0  0
   17.1108   -3.6866    0.0000 C   0  0  0  0  0  0  0  0  0  0  0  0
    5.2156    0.6837    0.0000 H   0  0  0  0  0  0  0  0  0  0  0  0
    4.4272    0.9414    0.0000 H   0  0  0  0  0  0  0  0  0  0  0  0
    6.3427   -0.3997    0.0000 H   0  0  0  0  0  0  0  0  0  0  0  0
    6.6669    0.3285    0.0000 H   0  0  0  0  0  0  0  0  0  0  0  0
    4.8709   -1.8243    0.0000 H   0  0  0  0  0  0  0  0  0  0  0  0
    7.2271   -1.4512    0.0000 H   0  0  0  0  0  0  0  0  0  0  0  0
    7.0492    0.0053    0.0000 H   0  0  0  0  0  0  0  0  0  0  0  0
    2.8660    1.1898    0.0000 H   0  0  0  0  0  0  0  0  0  0  0  0
    7.1317   -1.9218    0.0000 H   0  0  0  0  0  0  0  0  0  0  0  0
    8.3013   -2.0966    0.0000 H   0  0  0  0  0  0  0  0  0  0  0  0
    2.8660   -2.0502    0.0000 H   0  0  0  0  0  0  0  0  0  0  0  0
    7.4791   -3.0423    0.0000 H   0  0  0  0  0  0  0  0  0  0  0  0
    1.4631    0.3798    0.0000 H   0  0  0  0  0  0  0  0  0  0  0  0
    1.4631   -1.2402    0.0000 H   0  0  0  0  0  0  0  0  0  0  0  0
    7.3418    1.4877    0.0000 H   0  0  0  0  0  0  0  0  0  0  0  0
    4.5512    1.1944    0.0000 H   0  0  0  0  0  0  0  0  0  0  0  0
    7.0063   -3.5517    0.0000 H   0  0  0  0  0  0  0  0  0  0  0  0
    7.1435   -4.4177    0.0000 H   0  0  0  0  0  0  0  0  0  0  0  0
    8.0095   -4.2806    0.0000 H   0  0  0  0  0  0  0  0  0  0  0  0
    9.0254   -3.8282    0.0000 H   0  0  0  0  0  0  0  0  0  0  0  0
    9.7068   -3.2765    0.0000 H   0  0  0  0  0  0  0  0  0  0  0  0
    9.1550   -2.5950    0.0000 H   0  0  0  0  0  0  0  0  0  0  0  0
    9.4512   -1.9967    0.0000 H   0  0  0  0  0  0  0  0  0  0  0  0
    4.3819    2.8055    0.0000 H   0  0  0  0  0  0  0  0  0  0  0  0
    9.9280   -0.6089    0.0000 H   0  0  0  0  0  0  0  0  0  0  0  0
    5.6925    3.7577    0.0000 H   0  0  0  0  0  0  0  0  0  0  0  0
   10.3841    0.6227    0.0000 H   0  0  0  0  0  0  0  0  0  0  0  0
    9.9156   -0.0221    0.0000 H   0  0  0  0  0  0  0  0  0  0  0  0
   12.2169   -0.5378    0.0000 H   0  0  0  0  0  0  0  0  0  0  0  0
   12.5152   -2.1729    0.0000 H   0  0  0  0  0  0  0  0  0  0  0  0
   13.3078   -2.2562    0.0000 H   0  0  0  0  0  0  0  0  0  0  0  0
   11.5124    1.0445    0.0000 H   0  0  0  0  0  0  0  0  0  0  0  0
   14.3207   -0.9048    0.0000 H   0  0  0  0  0  0  0  0  0  0  0  0
   13.5280   -0.8215    0.0000 H   0  0  0  0  0  0  0  0  0  0  0  0
    7.8769    4.6811    0.0000 H   0  0  0  0  0  0  0  0  0  0  0  0
   14.0128   -3.1700    0.0000 H   0  0  0  0  0  0  0  0  0  0  0  0
   15.6621   -0.8999    0.0000 H   0  0  0  0  0  0  0  0  0  0  0  0
   15.3234   -4.1222    0.0000 H   0  0  0  0  0  0  0  0  0  0  0  0
   16.9727   -1.8521    0.0000 H   0  0  0  0  0  0  0  0  0  0  0  0
   18.5259   -3.6443    0.0000 H   0  0  0  0  0  0  0  0  0  0  0  0
  1 36  1  0  0  0  0
  1 79  1  0  0  0  0
  2 18  2  0  0  0  0
  3 27  2  0  0  0  0
  4 37  1  0  0  0  0
  4 82  1  0  0  0  0
  5 37  2  0  0  0  0
  6 38  2  0  0  0  0
  7 47  1  0  0  0  0
  7 87  1  0  0  0  0
  8 47  2  0  0  0  0
  9 13  1  0  0  0  0
  9 17  1  0  0  0  0
  9 52  1  0  0  0  0
 10 18  1  0  0  0  0
 19 10  1  6  0  0  0
 10 54  1  0  0  0  0
 11 27  1  0  0  0  0
 34 11  1  1  0  0  0
 11 70  1  0  0  0  0
 12 38  1  0  0  0  0
 12 39  1  0  0  0  0
 12 76  1  0  0  0  0
 13 14  1  0  0  0  0
 13 15  1  0  0  0  0
 13 18  1  0  0  0  0
 14 16  1  0  0  0  0
 14 48  1  0  0  0  0
 14 49  1  0  0  0  0
 15 20  1  0  0  0  0
 15 50  1  0  0  0  0
 15 51  1  0  0  0  0
 16 17  1  0  0  0  0
 16 21  2  0  0  0  0
 17 23  2  0  0  0  0
 19 22  1  0  0  0  0
 19 27  1  0  0  0  0
 19 53  1  0  0  0  0
 20 28  2  0  0  0  0
 20 29  1  0  0  0  0
 21 25  1  0  0  0  0
 21 55  1  0  0  0  0
 22 24  1  0  0  0  0
 22 56  1  0  0  0  0
 22 57  1  0  0  0  0
 23 26  1  0  0  0  0
 23 58  1  0  0  0  0
 24 30  1  0  0  0  0
 24 31  1  0  0  0  0
 24 59  1  0  0  0  0
 25 26  2  0  0  0  0
 25 60  1  0  0  0  0
 26 61  1  0  0  0  0
 28 32  1  0  0  0  0
 28 62  1  0  0  0  0
 29 33  2  0  0  0  0
 29 63  1  0  0  0  0
 30 64  1  0  0  0  0
 30 65  1  0  0  0  0
 30 66  1  0  0  0  0
 31 67  1  0  0  0  0
 31 68  1  0  0  0  0
 31 69  1  0  0  0  0
 32 35  2  0  0  0  0
 32 37  1  0  0  0  0
 33 35  1  0  0  0  0
 33 71  1  0  0  0  0
 34 36  1  0  0  0  0
 34 38  1  0  0  0  0
 34 72  1  0  0  0  0
 35 73  1  0  0  0  0
 36 74  1  0  0  0  0
 36 75  1  0  0  0  0
 39 40  1  0  0  0  0
 39 77  1  0  0  0  0
 39 78  1  0  0  0  0
 40 41  1  0  0  0  0
 40 80  1  0  0  0  0
 40 81  1  0  0  0  0
 41 42  2  0  0  0  0
 41 43  1  0  0  0  0
 42 44  1  0  0  0  0
 42 83  1  0  0  0  0
 43 45  2  0  0  0  0
 43 84  1  0  0  0  0
 44 46  2  0  0  0  0
 44 85  1  0  0  0  0
 45 46  1  0  0  0  0
 45 86  1  0  0  0  0
 46 47  1  0  0  0  0
M  END
> <PUBCHEM_COMPOUND_CID>
507703
> <PUBCHEM_COMPOUND_CANONICALIZED>
1
> <PUBCHEM_CACTVS_COMPLEXITY>
1110
> <PUBCHEM_CACTVS_HBOND_ACCEPTOR>
9
> <PUBCHEM_CACTVS_HBOND_DONOR>
7
> <PUBCHEM_CACTVS_ROTATABLE_BOND>
15
> <PUBCHEM_CACTVS_SUBSKEYS>
AAADcfB/uABAAAAAAAAAAAAAAAAAAWAAAAAwYMAAAAAAAFgBUAAAHgQQCAAADajF2ASyyILAAgSIAiXSWACCAAAlAgAIiIGIbMgIZjLAlbGUcQhk1gHI2YeYyfCeQAACAAACAACAAAQAAAQAAAAAAAAAAA==
> <PUBCHEM_IUPAC_OPENEYE_NAME>
3-[[2-[[(1S)-1-[[(1R)-2-[2-(4-carboxyphenyl)ethylamino]-2-oxo-1-(sulfanylmethyl)ethyl]carbamoyl]-3-methyl-butyl]carbamoyl]indolin-2-yl]methyl]benzoic acid
> <PUBCHEM_IUPAC_CAS_NAME>
3-[[2-[[[(2S)-1-[[(2R)-1-[2-(4-carboxyphenyl)ethylamino]-3-mercapto-1-oxopropan-2-yl]amino]-4-methyl-1-oxopentan-2-yl]amino]-oxomethyl]-1,3-dihydroindol-2-yl]methyl]benzoic acid
> <PUBCHEM_IUPAC_NAME_MARKUP>
3-[[2-[[(2<I>S</I>)-1-[[(2<I>R</I>)-1-[2-(4-carboxyphenyl)ethylamino]-1-oxo-3-sulfanylpropan-2-yl]amino]-4-methyl-1-oxopentan-2-yl]carbamoyl]-1,3-dihydroindol-2-yl]methyl]benzoic acid
> <PUBCHEM_IUPAC_NAME>
3-[[2-[[(2S)-1-[[(2R)-1-[2-(4-carboxyphenyl)ethylamino]-1-oxo-3-sulfanylpropan-2-yl]amino]-4-methyl-1-oxopentan-2-yl]carbamoyl]-1,3-dihydroindol-2-yl]methyl]benzoic acid
> <PUBCHEM_IUPAC_SYSTEMATIC_NAME>
3-[[2-[[(2S)-1-[[(2R)-1-[2-(4-carboxyphenyl)ethylamino]-1-oxidanylidene-3-sulfanyl-propan-2-yl]amino]-4-methyl-1-oxidanylidene-pentan-2-yl]carbamoyl]-1,3-dihydroindol-2-yl]methyl]benzoic acid
> <PUBCHEM_IUPAC_TRADITIONAL_NAME>
3-[[2-[[(1S)-1-[[(1R)-2-[2-(4-carboxyphenyl)ethylamino]-2-keto-1-(mercaptomethyl)ethyl]carbamoyl]-3-methyl-butyl]carbamoyl]indolin-2-yl]methyl]benzoic acid
> <PUBCHEM_IUPAC_INCHI>
InChI=1S/C35H40N4O7S/c1-21(2)16-28(31(41)37-29(20-47)30(40)36-15-14-22-10-12-24(13-11-22)32(42)43)38-34(46)35(19-26-7-3-4-9-27(26)39-35)18-23-6-5-8-25(17-23)33(44)45/h3-13,17,21,28-29,39,47H,14-16,18-20H2,1-2H3,(H,36,40)(H,37,41)(H,38,46)(H,42,43)(H,44,45)/t28-,29-,35?/m0/s1
> <PUBCHEM_IUPAC_INCHIKEY>
ZWCPNGRPFUFPJJ-WPUZBLJWSA-N
> <PUBCHEM_XLOGP3_AA>
4.8
> <PUBCHEM_EXACT_MASS>
660.26177080
> <PUBCHEM_MOLECULAR_FORMULA>
C35H40N4O7S
> <PUBCHEM_MOLECULAR_WEIGHT>
660.8
> <PUBCHEM_OPENEYE_CAN_SMILES>
CC(C)CC(C(=O)NC(CS)C(=O)NCCC1=CC=C(C=C1)C(=O)O)NC(=O)C2(CC3=CC=CC=C3N2)CC4=CC(=CC=C4)C(=O)O
> <PUBCHEM_OPENEYE_ISO_SMILES>
CC(C)C[C@@H](C(=O)N[C@@H](CS)C(=O)NCCC1=CC=C(C=C1)C(=O)O)NC(=O)C2(CC3=CC=CC=C3N2)CC4=CC(=CC=C4)C(=O)O
> <PUBCHEM_CACTVS_TPSA>
175
> <PUBCHEM_MONOISOTOPIC_WEIGHT>
660.26177080
> <PUBCHEM_TOTAL_CHARGE>
0
> <PUBCHEM_HEAVY_ATOM_COUNT>
47
> <PUBCHEM_ATOM_DEF_STEREO_COUNT>
2
> <PUBCHEM_ATOM_UDEF_STEREO_COUNT>
1
> <PUBCHEM_BOND_DEF_STEREO_COUNT>
0
> <PUBCHEM_BOND_UDEF_STEREO_COUNT>
0
> <PUBCHEM_ISOTOPIC_ATOM_COUNT>
0
> <PUBCHEM_COMPONENT_COUNT>
1
> <PUBCHEM_CACTVS_TAUTO_COUNT>
-1
> <PUBCHEM_COORDINATE_TYPE>
1
5
255
> <PUBCHEM_BONDANNOTATIONS>
19  10  6
34  11  5
13  15  3
16  17  8
16  21  8
17  23  8
20  28  8
20  29  8
21  25  8
23  26  8
25  26  8
28  32  8
29  33  8
32  35  8
33  35  8
41  42  8
41  43  8
42  44  8
43  45  8
44  46  8
45  46  8
$$$$
