507733
  -OEChem-10302200282D
 81 83  0     1  0  0  0  0  0999 V2000
    3.7320    1.0670    0.0000 S   0  0  0  0  0  0  0  0  0  0  0  0
    5.4641    1.0670    0.0000 O   0  0  0  0  0  0  0  0  0  0  0  0
    4.7320    1.0670    0.0000 O   0  0  0  0  0  0  0  0  0  0  0  0
    2.7320    1.0670    0.0000 O   0  0  0  0  0  0  0  0  0  0  0  0
    8.6962    0.9330    0.0000 O   0  0  0  0  0  0  0  0  0  0  0  0
    7.1962    1.7990    0.0000 O   0  0  0  0  0  0  0  0  0  0  0  0
    3.7320    0.0670    0.0000 N   0  0  3  0  0  0  0  0  0  0  0  0
    3.7320    2.0670    0.0000 N   0  0  0  0  0  0  0  0  0  0  0  0
    7.1962    0.0670    0.0000 N   0  0  0  0  0  0  0  0  0  0  0  0
    2.8660   -1.4330    0.0000 C   0  0  0  0  0  0  0  0  0  0  0  0
    2.0000   -1.9330    0.0000 C   0  0  0  0  0  0  0  0  0  0  0  0
    3.7320   -1.9330    0.0000 C   0  0  0  0  0  0  0  0  0  0  0  0
    2.8660   -0.4330    0.0000 C   0  0  0  0  0  0  0  0  0  0  0  0
    2.0000   -2.9330    0.0000 C   0  0  0  0  0  0  0  0  0  0  0  0
    3.7320   -2.9330    0.0000 C   0  0  0  0  0  0  0  0  0  0  0  0
    2.8660   -3.4330    0.0000 C   0  0  0  0  0  0  0  0  0  0  0  0
    4.5981   -0.4330    0.0000 C   0  0  0  0  0  0  0  0  0  0  0  0
    5.4641    0.0670    0.0000 C   0  0  2  0  0  0  0  0  0  0  0  0
    6.3301   -0.4330    0.0000 C   0  0  2  0  0  0  0  0  0  0  0  0
    2.8660    2.5670    0.0000 C   0  0  0  0  0  0  0  0  0  0  0  0
    6.3301   -1.4330    0.0000 C   0  0  0  0  0  0  0  0  0  0  0  0
    2.0000    3.0670    0.0000 C   0  0  0  0  0  0  0  0  0  0  0  0
    3.3660    3.4330    0.0000 C   0  0  0  0  0  0  0  0  0  0  0  0
    2.3660    1.7010    0.0000 C   0  0  0  0  0  0  0  0  0  0  0  0
    7.1962   -1.9330    0.0000 C   0  0  0  0  0  0  0  0  0  0  0  0
    7.6962    0.9330    0.0000 C   0  0  0  0  0  0  0  0  0  0  0  0
    8.0622   -1.4330    0.0000 C   0  0  0  0  0  0  0  0  0  0  0  0
    7.1962   -2.9330    0.0000 C   0  0  0  0  0  0  0  0  0  0  0  0
    8.9282   -1.9330    0.0000 C   0  0  0  0  0  0  0  0  0  0  0  0
    8.0622   -3.4330    0.0000 C   0  0  0  0  0  0  0  0  0  0  0  0
    8.9282   -2.9330    0.0000 C   0  0  0  0  0  0  0  0  0  0  0  0
    9.1962    1.7990    0.0000 C   0  0  0  0  0  0  0  0  0  0  0  0
   10.1962    1.7990    0.0000 C   0  0  0  0  0  0  0  0  0  0  0  0
   10.6962    2.6651    0.0000 C   0  0  0  0  0  0  0  0  0  0  0  0
   10.6962    0.9330    0.0000 C   0  0  0  0  0  0  0  0  0  0  0  0
   11.6962    2.6651    0.0000 C   0  0  0  0  0  0  0  0  0  0  0  0
   11.6962    0.9330    0.0000 C   0  0  0  0  0  0  0  0  0  0  0  0
   12.1962    1.7990    0.0000 C   0  0  0  0  0  0  0  0  0  0  0  0
    3.4030   -1.1230    0.0000 H   0  0  0  0  0  0  0  0  0  0  0  0
    1.7880   -1.3504    0.0000 H   0  0  0  0  0  0  0  0  0  0  0  0
    1.3894   -2.0407    0.0000 H   0  0  0  0  0  0  0  0  0  0  0  0
    4.3426   -2.0407    0.0000 H   0  0  0  0  0  0  0  0  0  0  0  0
    3.9441   -1.3504    0.0000 H   0  0  0  0  0  0  0  0  0  0  0  0
    2.6540    0.1496    0.0000 H   0  0  0  0  0  0  0  0  0  0  0  0
    2.2554   -0.5407    0.0000 H   0  0  0  0  0  0  0  0  0  0  0  0
    1.3894   -2.8253    0.0000 H   0  0  0  0  0  0  0  0  0  0  0  0
    1.7880   -3.5156    0.0000 H   0  0  0  0  0  0  0  0  0  0  0  0
    3.9441   -3.5156    0.0000 H   0  0  0  0  0  0  0  0  0  0  0  0
    4.3426   -2.8253    0.0000 H   0  0  0  0  0  0  0  0  0  0  0  0
    2.4675   -3.9080    0.0000 H   0  0  0  0  0  0  0  0  0  0  0  0
    3.2646   -3.9080    0.0000 H   0  0  0  0  0  0  0  0  0  0  0  0
    4.1996   -0.9080    0.0000 H   0  0  0  0  0  0  0  0  0  0  0  0
    4.9966   -0.9080    0.0000 H   0  0  0  0  0  0  0  0  0  0  0  0
    6.0010    0.3770    0.0000 H   0  0  0  0  0  0  0  0  0  0  0  0
    6.8671   -0.7430    0.0000 H   0  0  0  0  0  0  0  0  0  0  0  0
    4.2690    2.3770    0.0000 H   0  0  0  0  0  0  0  0  0  0  0  0
    5.7196   -1.3254    0.0000 H   0  0  0  0  0  0  0  0  0  0  0  0
    6.1181   -2.0156    0.0000 H   0  0  0  0  0  0  0  0  0  0  0  0
    7.7331   -0.2430    0.0000 H   0  0  0  0  0  0  0  0  0  0  0  0
    2.3100    3.6039    0.0000 H   0  0  0  0  0  0  0  0  0  0  0  0
    1.4631    3.3770    0.0000 H   0  0  0  0  0  0  0  0  0  0  0  0
    1.6900    2.5300    0.0000 H   0  0  0  0  0  0  0  0  0  0  0  0
    3.9030    3.1230    0.0000 H   0  0  0  0  0  0  0  0  0  0  0  0
    3.6760    3.9700    0.0000 H   0  0  0  0  0  0  0  0  0  0  0  0
    2.8291    3.7430    0.0000 H   0  0  0  0  0  0  0  0  0  0  0  0
    1.8291    2.0110    0.0000 H   0  0  0  0  0  0  0  0  0  0  0  0
    2.0560    1.1640    0.0000 H   0  0  0  0  0  0  0  0  0  0  0  0
    2.9030    1.3910    0.0000 H   0  0  0  0  0  0  0  0  0  0  0  0
    5.7741    1.6039    0.0000 H   0  0  0  0  0  0  0  0  0  0  0  0
    8.0622   -0.8130    0.0000 H   0  0  0  0  0  0  0  0  0  0  0  0
    6.6592   -3.2430    0.0000 H   0  0  0  0  0  0  0  0  0  0  0  0
    9.4651   -1.6230    0.0000 H   0  0  0  0  0  0  0  0  0  0  0  0
    8.0622   -4.0530    0.0000 H   0  0  0  0  0  0  0  0  0  0  0  0
    9.4651   -3.2430    0.0000 H   0  0  0  0  0  0  0  0  0  0  0  0
    9.3038    2.4096    0.0000 H   0  0  0  0  0  0  0  0  0  0  0  0
    8.6135    2.0111    0.0000 H   0  0  0  0  0  0  0  0  0  0  0  0
   10.3862    3.2020    0.0000 H   0  0  0  0  0  0  0  0  0  0  0  0
   10.3862    0.3961    0.0000 H   0  0  0  0  0  0  0  0  0  0  0  0
   12.0062    3.2020    0.0000 H   0  0  0  0  0  0  0  0  0  0  0  0
   12.0062    0.3961    0.0000 H   0  0  0  0  0  0  0  0  0  0  0  0
   12.8162    1.7990    0.0000 H   0  0  0  0  0  0  0  0  0  0  0  0
  1  3  2  0  0  0  0
  1  4  2  0  0  0  0
  1  7  1  0  0  0  0
  1  8  1  0  0  0  0
 18  2  1  1  0  0  0
  2 69  1  0  0  0  0
  5 26  1  0  0  0  0
  5 32  1  0  0  0  0
  6 26  2  0  0  0  0
  7 13  1  0  0  0  0
  7 17  1  0  0  0  0
  8 20  1  0  0  0  0
  8 56  1  0  0  0  0
 19  9  1  1  0  0  0
  9 26  1  0  0  0  0
  9 59  1  0  0  0  0
 10 11  1  0  0  0  0
 10 12  1  0  0  0  0
 10 13  1  0  0  0  0
 10 39  1  0  0  0  0
 11 14  1  0  0  0  0
 11 40  1  0  0  0  0
 11 41  1  0  0  0  0
 12 15  1  0  0  0  0
 12 42  1  0  0  0  0
 12 43  1  0  0  0  0
 13 44  1  0  0  0  0
 13 45  1  0  0  0  0
 14 16  1  0  0  0  0
 14 46  1  0  0  0  0
 14 47  1  0  0  0  0
 15 16  1  0  0  0  0
 15 48  1  0  0  0  0
 15 49  1  0  0  0  0
 16 50  1  0  0  0  0
 16 51  1  0  0  0  0
 17 18  1  0  0  0  0
 17 52  1  0  0  0  0
 17 53  1  0  0  0  0
 18 19  1  0  0  0  0
 18 54  1  0  0  0  0
 19 21  1  0  0  0  0
 19 55  1  0  0  0  0
 20 22  1  0  0  0  0
 20 23  1  0  0  0  0
 20 24  1  0  0  0  0
 21 25  1  0  0  0  0
 21 57  1  0  0  0  0
 21 58  1  0  0  0  0
 22 60  1  0  0  0  0
 22 61  1  0  0  0  0
 22 62  1  0  0  0  0
 23 63  1  0  0  0  0
 23 64  1  0  0  0  0
 23 65  1  0  0  0  0
 24 66  1  0  0  0  0
 24 67  1  0  0  0  0
 24 68  1  0  0  0  0
 25 27  2  0  0  0  0
 25 28  1  0  0  0  0
 27 29  1  0  0  0  0
 27 70  1  0  0  0  0
 28 30  2  0  0  0  0
 28 71  1  0  0  0  0
 29 31  2  0  0  0  0
 29 72  1  0  0  0  0
 30 31  1  0  0  0  0
 30 73  1  0  0  0  0
 31 74  1  0  0  0  0
 32 33  1  0  0  0  0
 32 75  1  0  0  0  0
 32 76  1  0  0  0  0
 33 34  2  0  0  0  0
 33 35  1  0  0  0  0
 34 36  1  0  0  0  0
 34 77  1  0  0  0  0
 35 37  2  0  0  0  0
 35 78  1  0  0  0  0
 36 38  2  0  0  0  0
 36 79  1  0  0  0  0
 37 38  1  0  0  0  0
 37 80  1  0  0  0  0
 38 81  1  0  0  0  0
M  END
> <PUBCHEM_COMPOUND_CID>
507733
> <PUBCHEM_COMPOUND_CANONICALIZED>
1
> <PUBCHEM_CACTVS_COMPLEXITY>
792
> <PUBCHEM_CACTVS_HBOND_ACCEPTOR>
7
> <PUBCHEM_CACTVS_HBOND_DONOR>
3
> <PUBCHEM_CACTVS_ROTATABLE_BOND>
14
> <PUBCHEM_CACTVS_SUBSKEYS>
AAADcfB7OABAAAAAAAAAAAAAAAAAAAAAAAAwYMAAAAAAAAABQAAAHgAQSAAADbzhmAYyCILABgCIAiBCGDACAAAgAAAIiIAICIkKNiKA8RmMcAAk1gGYqAeQwKAOAAAAAAAAAAAAAAAAAAAAAAAAAAAAAA==
> <PUBCHEM_IUPAC_OPENEYE_NAME>
benzyl N-[(1S,2R)-1-benzyl-3-[tert-butylsulfamoyl(cyclohexylmethyl)amino]-2-hydroxy-propyl]carbamate
> <PUBCHEM_IUPAC_CAS_NAME>
N-[(2S,3R)-4-[tert-butylsulfamoyl(cyclohexylmethyl)amino]-3-hydroxy-1-phenylbutan-2-yl]carbamic acid (phenylmethyl) ester
> <PUBCHEM_IUPAC_NAME_MARKUP>
benzyl <I>N</I>-[(2<I>S</I>,3<I>R</I>)-4-[<I>tert</I>-butylsulfamoyl(cyclohexylmethyl)amino]-3-hydroxy-1-phenylbutan-2-yl]carbamate
> <PUBCHEM_IUPAC_NAME>
benzyl N-[(2S,3R)-4-[tert-butylsulfamoyl(cyclohexylmethyl)amino]-3-hydroxy-1-phenylbutan-2-yl]carbamate
> <PUBCHEM_IUPAC_SYSTEMATIC_NAME>
(phenylmethyl) N-[(2S,3R)-4-[tert-butylsulfamoyl(cyclohexylmethyl)amino]-3-oxidanyl-1-phenyl-butan-2-yl]carbamate
> <PUBCHEM_IUPAC_TRADITIONAL_NAME>
N-[(1S,2R)-1-benzyl-3-[tert-butylsulfamoyl(cyclohexylmethyl)amino]-2-hydroxy-propyl]carbamic acid benzyl ester
> <PUBCHEM_IUPAC_INCHI>
InChI=1S/C29H43N3O5S/c1-29(2,3)31-38(35,36)32(20-24-15-9-5-10-16-24)21-27(33)26(19-23-13-7-4-8-14-23)30-28(34)37-22-25-17-11-6-12-18-25/h4,6-8,11-14,17-18,24,26-27,31,33H,5,9-10,15-16,19-22H2,1-3H3,(H,30,34)/t26-,27+/m0/s1
> <PUBCHEM_IUPAC_INCHIKEY>
PRMACSPFEUUFDA-RRPNLBNLSA-N
> <PUBCHEM_XLOGP3_AA>
5.2
> <PUBCHEM_EXACT_MASS>
545.29234265
> <PUBCHEM_MOLECULAR_FORMULA>
C29H43N3O5S
> <PUBCHEM_MOLECULAR_WEIGHT>
545.7
> <PUBCHEM_OPENEYE_CAN_SMILES>
CC(C)(C)NS(=O)(=O)N(CC1CCCCC1)CC(C(CC2=CC=CC=C2)NC(=O)OCC3=CC=CC=C3)O
> <PUBCHEM_OPENEYE_ISO_SMILES>
CC(C)(C)NS(=O)(=O)N(CC1CCCCC1)C[C@H]([C@H](CC2=CC=CC=C2)NC(=O)OCC3=CC=CC=C3)O
> <PUBCHEM_CACTVS_TPSA>
116
> <PUBCHEM_MONOISOTOPIC_WEIGHT>
545.29234265
> <PUBCHEM_TOTAL_CHARGE>
0
> <PUBCHEM_HEAVY_ATOM_COUNT>
38
> <PUBCHEM_ATOM_DEF_STEREO_COUNT>
2
> <PUBCHEM_ATOM_UDEF_STEREO_COUNT>
0
> <PUBCHEM_BOND_DEF_STEREO_COUNT>
0
> <PUBCHEM_BOND_UDEF_STEREO_COUNT>
0
> <PUBCHEM_ISOTOPIC_ATOM_COUNT>
0
> <PUBCHEM_COMPONENT_COUNT>
1
> <PUBCHEM_CACTVS_TAUTO_COUNT>
-1
> <PUBCHEM_COORDINATE_TYPE>
1
5
255
> <PUBCHEM_BONDANNOTATIONS>
18  2  5
25  27  8
25  28  8
27  29  8
28  30  8
29  31  8
30  31  8
33  34  8
33  35  8
34  36  8
35  37  8
36  38  8
37  38  8
19  9  5
$$$$
