507717
  -OEChem-10302200282D
 80 82  0     1  0  0  0  0  0999 V2000
    8.0622   -2.4400    0.0000 Cl  0  0  0  0  0  0  0  0  0  0  0  0
    2.0000    2.0600    0.0000 F   0  0  0  0  0  0  0  0  0  0  0  0
    2.8660    0.5600    0.0000 F   0  0  0  0  0  0  0  0  0  0  0  0
    4.5981    3.5600    0.0000 O   0  0  0  0  0  0  0  0  0  0  0  0
    3.7320    0.0600    0.0000 O   0  0  0  0  0  0  0  0  0  0  0  0
    8.0622    4.5600    0.0000 O   0  0  0  0  0  0  0  0  0  0  0  0
   12.3923    5.0600    0.0000 O   0  0  0  0  0  0  0  0  0  0  0  0
   11.5263    3.5600    0.0000 O   0  0  0  0  0  0  0  0  0  0  0  0
    7.1962   -5.9400    0.0000 O   0  0  0  0  0  0  0  0  0  0  0  0
    5.4641   -5.9400    0.0000 O   0  0  0  0  0  0  0  0  0  0  0  0
    7.1962    3.0600    0.0000 N   0  0  0  0  0  0  0  0  0  0  0  0
    5.4641    2.0600    0.0000 N   0  0  0  0  0  0  0  0  0  0  0  0
    5.4641    0.0600    0.0000 N   0  0  0  0  0  0  0  0  0  0  0  0
    6.3301    4.5600    0.0000 C   0  0  0  0  0  0  0  0  0  0  0  0
    6.3301    3.5600    0.0000 C   0  0  1  0  0  0  0  0  0  0  0  0
    5.4641    5.0600    0.0000 C   0  0  0  0  0  0  0  0  0  0  0  0
    5.4641    3.0600    0.0000 C   0  0  0  0  0  0  0  0  0  0  0  0
    4.5981    1.5600    0.0000 C   0  0  1  0  0  0  0  0  0  0  0  0
    5.4641    6.0600    0.0000 C   0  0  0  0  0  0  0  0  0  0  0  0
    4.5981    4.5600    0.0000 C   0  0  0  0  0  0  0  0  0  0  0  0
    3.7320    2.0600    0.0000 C   0  0  0  0  0  0  0  0  0  0  0  0
    4.5981    0.5600    0.0000 C   0  0  0  0  0  0  0  0  0  0  0  0
    8.0622    3.5600    0.0000 C   0  0  0  0  0  0  0  0  0  0  0  0
    2.8660    1.5600    0.0000 C   0  0  0  0  0  0  0  0  0  0  0  0
    8.9282    3.0600    0.0000 C   0  0  0  0  0  0  0  0  0  0  0  0
    5.4641   -0.9400    0.0000 C   0  0  0  0  0  0  0  0  0  0  0  0
    9.7942    3.5600    0.0000 C   0  0  0  0  0  0  0  0  0  0  0  0
    6.3301   -1.4400    0.0000 C   0  0  0  0  0  0  0  0  0  0  0  0
    8.9282    2.0600    0.0000 C   0  0  0  0  0  0  0  0  0  0  0  0
    9.7942    4.5600    0.0000 C   0  0  0  0  0  0  0  0  0  0  0  0
    6.3301   -2.4400    0.0000 C   0  0  0  0  0  0  0  0  0  0  0  0
   10.6603    3.0600    0.0000 C   0  0  0  0  0  0  0  0  0  0  0  0
    9.7942    1.5600    0.0000 C   0  0  0  0  0  0  0  0  0  0  0  0
   10.6603    2.0600    0.0000 C   0  0  0  0  0  0  0  0  0  0  0  0
   10.6603    5.0600    0.0000 C   0  0  0  0  0  0  0  0  0  0  0  0
    7.1962   -2.9400    0.0000 C   0  0  0  0  0  0  0  0  0  0  0  0
    5.4641   -2.9400    0.0000 C   0  0  0  0  0  0  0  0  0  0  0  0
    8.9282    5.0600    0.0000 C   0  0  0  0  0  0  0  0  0  0  0  0
    7.1962   -3.9400    0.0000 C   0  0  0  0  0  0  0  0  0  0  0  0
    5.4641   -3.9400    0.0000 C   0  0  0  0  0  0  0  0  0  0  0  0
   10.6603    6.0600    0.0000 C   0  0  0  0  0  0  0  0  0  0  0  0
    6.3301   -4.4400    0.0000 C   0  0  0  0  0  0  0  0  0  0  0  0
    8.9282    6.0600    0.0000 C   0  0  0  0  0  0  0  0  0  0  0  0
    9.7942    6.5600    0.0000 C   0  0  0  0  0  0  0  0  0  0  0  0
   11.5263    4.5600    0.0000 C   0  0  0  0  0  0  0  0  0  0  0  0
    6.3301   -5.4400    0.0000 C   0  0  0  0  0  0  0  0  0  0  0  0
    6.9407    4.4523    0.0000 H   0  0  0  0  0  0  0  0  0  0  0  0
    6.5422    5.1426    0.0000 H   0  0  0  0  0  0  0  0  0  0  0  0
    6.8671    3.8700    0.0000 H   0  0  0  0  0  0  0  0  0  0  0  0
    5.4641    4.4400    0.0000 H   0  0  0  0  0  0  0  0  0  0  0  0
    4.5981    2.1800    0.0000 H   0  0  0  0  0  0  0  0  0  0  0  0
    6.0841    6.0600    0.0000 H   0  0  0  0  0  0  0  0  0  0  0  0
    5.4641    6.6800    0.0000 H   0  0  0  0  0  0  0  0  0  0  0  0
    4.8441    6.0600    0.0000 H   0  0  0  0  0  0  0  0  0  0  0  0
    4.2881    5.0969    0.0000 H   0  0  0  0  0  0  0  0  0  0  0  0
    4.0611    4.2500    0.0000 H   0  0  0  0  0  0  0  0  0  0  0  0
    4.9081    4.0231    0.0000 H   0  0  0  0  0  0  0  0  0  0  0  0
    7.1962    2.4400    0.0000 H   0  0  0  0  0  0  0  0  0  0  0  0
    6.0010    1.7500    0.0000 H   0  0  0  0  0  0  0  0  0  0  0  0
    4.1306    2.5349    0.0000 H   0  0  0  0  0  0  0  0  0  0  0  0
    3.3335    2.5349    0.0000 H   0  0  0  0  0  0  0  0  0  0  0  0
    2.8660    2.1800    0.0000 H   0  0  0  0  0  0  0  0  0  0  0  0
    6.0010    0.3700    0.0000 H   0  0  0  0  0  0  0  0  0  0  0  0
    4.8535   -0.8323    0.0000 H   0  0  0  0  0  0  0  0  0  0  0  0
    5.2520   -1.5226    0.0000 H   0  0  0  0  0  0  0  0  0  0  0  0
    6.9407   -1.5477    0.0000 H   0  0  0  0  0  0  0  0  0  0  0  0
    6.5422   -0.8574    0.0000 H   0  0  0  0  0  0  0  0  0  0  0  0
    8.3913    1.7500    0.0000 H   0  0  0  0  0  0  0  0  0  0  0  0
   11.1972    3.3700    0.0000 H   0  0  0  0  0  0  0  0  0  0  0  0
    9.7942    0.9400    0.0000 H   0  0  0  0  0  0  0  0  0  0  0  0
   11.1972    1.7500    0.0000 H   0  0  0  0  0  0  0  0  0  0  0  0
    4.9272   -2.6300    0.0000 H   0  0  0  0  0  0  0  0  0  0  0  0
    8.3913    4.7500    0.0000 H   0  0  0  0  0  0  0  0  0  0  0  0
    7.7331   -4.2500    0.0000 H   0  0  0  0  0  0  0  0  0  0  0  0
    4.9272   -4.2500    0.0000 H   0  0  0  0  0  0  0  0  0  0  0  0
   11.1972    6.3700    0.0000 H   0  0  0  0  0  0  0  0  0  0  0  0
    8.3913    6.3700    0.0000 H   0  0  0  0  0  0  0  0  0  0  0  0
    9.7942    7.1800    0.0000 H   0  0  0  0  0  0  0  0  0  0  0  0
   12.9292    4.7500    0.0000 H   0  0  0  0  0  0  0  0  0  0  0  0
    7.1962   -6.5600    0.0000 H   0  0  0  0  0  0  0  0  0  0  0  0
  1 36  1  0  0  0  0
  2 24  1  0  0  0  0
  3 24  1  0  0  0  0
  4 17  2  0  0  0  0
  5 22  2  0  0  0  0
  6 23  2  0  0  0  0
  7 45  1  0  0  0  0
  7 79  1  0  0  0  0
  8 45  2  0  0  0  0
  9 46  1  0  0  0  0
  9 80  1  0  0  0  0
 10 46  2  0  0  0  0
 15 11  1  6  0  0  0
 11 23  1  0  0  0  0
 11 58  1  0  0  0  0
 12 17  1  0  0  0  0
 18 12  1  6  0  0  0
 12 59  1  0  0  0  0
 13 22  1  0  0  0  0
 13 26  1  0  0  0  0
 13 63  1  0  0  0  0
 14 15  1  0  0  0  0
 14 16  1  0  0  0  0
 14 47  1  0  0  0  0
 14 48  1  0  0  0  0
 15 17  1  0  0  0  0
 15 49  1  0  0  0  0
 16 19  1  0  0  0  0
 16 20  1  0  0  0  0
 16 50  1  0  0  0  0
 18 21  1  0  0  0  0
 18 22  1  0  0  0  0
 18 51  1  0  0  0  0
 19 52  1  0  0  0  0
 19 53  1  0  0  0  0
 19 54  1  0  0  0  0
 20 55  1  0  0  0  0
 20 56  1  0  0  0  0
 20 57  1  0  0  0  0
 21 24  1  0  0  0  0
 21 60  1  0  0  0  0
 21 61  1  0  0  0  0
 23 25  1  0  0  0  0
 24 62  1  0  0  0  0
 25 27  1  0  0  0  0
 25 29  2  0  0  0  0
 26 28  1  0  0  0  0
 26 64  1  0  0  0  0
 26 65  1  0  0  0  0
 27 30  1  0  0  0  0
 27 32  2  0  0  0  0
 28 31  1  0  0  0  0
 28 66  1  0  0  0  0
 28 67  1  0  0  0  0
 29 33  1  0  0  0  0
 29 68  1  0  0  0  0
 30 35  1  0  0  0  0
 30 38  2  0  0  0  0
 31 36  2  0  0  0  0
 31 37  1  0  0  0  0
 32 34  1  0  0  0  0
 32 69  1  0  0  0  0
 33 34  2  0  0  0  0
 33 70  1  0  0  0  0
 34 71  1  0  0  0  0
 35 41  2  0  0  0  0
 35 45  1  0  0  0  0
 36 39  1  0  0  0  0
 37 40  2  0  0  0  0
 37 72  1  0  0  0  0
 38 43  1  0  0  0  0
 38 73  1  0  0  0  0
 39 42  2  0  0  0  0
 39 74  1  0  0  0  0
 40 42  1  0  0  0  0
 40 75  1  0  0  0  0
 41 44  1  0  0  0  0
 41 76  1  0  0  0  0
 42 46  1  0  0  0  0
 43 44  2  0  0  0  0
 43 77  1  0  0  0  0
 44 78  1  0  0  0  0
M  END
> <PUBCHEM_COMPOUND_CID>
507717
> <PUBCHEM_COMPOUND_CANONICALIZED>
1
> <PUBCHEM_CACTVS_COMPLEXITY>
1060
> <PUBCHEM_CACTVS_HBOND_ACCEPTOR>
9
> <PUBCHEM_CACTVS_HBOND_DONOR>
5
> <PUBCHEM_CACTVS_ROTATABLE_BOND>
15
> <PUBCHEM_CACTVS_SUBSKEYS>
AAADcfB/OYAEAAAAAAAAAAAAAAAAAAAAAAAwYMAAAAAAAAABUAAAHwIQCAAADSrBmDQyCILAAgCIAiHSGACCAAAkBQAIiIGIDsgIZjKBlzGUcQhk1gGImYeYyPCOwAAAIAARAACAAABAACIAAAAAAAAAAA==
> <PUBCHEM_IUPAC_OPENEYE_NAME>
4-[2-[[(2S)-2-[[(2S)-2-[[2-(2-carboxyphenyl)benzoyl]amino]-4-methyl-pentanoyl]amino]-4,4-difluoro-butanoyl]amino]ethyl]-3-chloro-benzoic acid
> <PUBCHEM_IUPAC_CAS_NAME>
4-[2-[[(2S)-2-[[(2S)-2-[[[2-(2-carboxyphenyl)phenyl]-oxomethyl]amino]-4-methyl-1-oxopentyl]amino]-4,4-difluoro-1-oxobutyl]amino]ethyl]-3-chlorobenzoic acid
> <PUBCHEM_IUPAC_NAME_MARKUP>
4-[2-[[(2<I>S</I>)-2-[[(2<I>S</I>)-2-[[2-(2-carboxyphenyl)benzoyl]amino]-4-methylpentanoyl]amino]-4,4-difluorobutanoyl]amino]ethyl]-3-chlorobenzoic acid
> <PUBCHEM_IUPAC_NAME>
4-[2-[[(2S)-2-[[(2S)-2-[[2-(2-carboxyphenyl)benzoyl]amino]-4-methylpentanoyl]amino]-4,4-difluorobutanoyl]amino]ethyl]-3-chlorobenzoic acid
> <PUBCHEM_IUPAC_SYSTEMATIC_NAME>
4-[2-[[(2S)-2-[[(2S)-2-[[2-(2-carboxyphenyl)phenyl]carbonylamino]-4-methyl-pentanoyl]amino]-4,4-bis(fluoranyl)butanoyl]amino]ethyl]-3-chloranyl-benzoic acid
> <PUBCHEM_IUPAC_TRADITIONAL_NAME>
4-[2-[[(2S)-2-[[(2S)-2-[[2-(2-carboxyphenyl)benzoyl]amino]-4-methyl-pentanoyl]amino]-4,4-difluoro-butanoyl]amino]ethyl]-3-chloro-benzoic acid
> <PUBCHEM_IUPAC_INCHI>
InChI=1S/C33H34ClF2N3O7/c1-18(2)15-26(38-29(40)23-9-5-3-7-21(23)22-8-4-6-10-24(22)33(45)46)31(42)39-27(17-28(35)36)30(41)37-14-13-19-11-12-20(32(43)44)16-25(19)34/h3-12,16,18,26-28H,13-15,17H2,1-2H3,(H,37,41)(H,38,40)(H,39,42)(H,43,44)(H,45,46)/t26-,27-/m0/s1
> <PUBCHEM_IUPAC_INCHIKEY>
QQUKQDFYSAMRBR-SVBPBHIXSA-N
> <PUBCHEM_XLOGP3_AA>
6.1
> <PUBCHEM_EXACT_MASS>
657.2053345
> <PUBCHEM_MOLECULAR_FORMULA>
C33H34ClF2N3O7
> <PUBCHEM_MOLECULAR_WEIGHT>
658.1
> <PUBCHEM_OPENEYE_CAN_SMILES>
CC(C)CC(C(=O)NC(CC(F)F)C(=O)NCCC1=C(C=C(C=C1)C(=O)O)Cl)NC(=O)C2=CC=CC=C2C3=CC=CC=C3C(=O)O
> <PUBCHEM_OPENEYE_ISO_SMILES>
CC(C)C[C@@H](C(=O)N[C@@H](CC(F)F)C(=O)NCCC1=C(C=C(C=C1)C(=O)O)Cl)NC(=O)C2=CC=CC=C2C3=CC=CC=C3C(=O)O
> <PUBCHEM_CACTVS_TPSA>
162
> <PUBCHEM_MONOISOTOPIC_WEIGHT>
657.2053345
> <PUBCHEM_TOTAL_CHARGE>
0
> <PUBCHEM_HEAVY_ATOM_COUNT>
46
> <PUBCHEM_ATOM_DEF_STEREO_COUNT>
2
> <PUBCHEM_ATOM_UDEF_STEREO_COUNT>
0
> <PUBCHEM_BOND_DEF_STEREO_COUNT>
0
> <PUBCHEM_BOND_UDEF_STEREO_COUNT>
0
> <PUBCHEM_ISOTOPIC_ATOM_COUNT>
0
> <PUBCHEM_COMPONENT_COUNT>
1
> <PUBCHEM_CACTVS_TAUTO_COUNT>
-1
> <PUBCHEM_COORDINATE_TYPE>
1
5
255
> <PUBCHEM_BONDANNOTATIONS>
15  11  6
18  12  6
25  27  8
25  29  8
27  32  8
29  33  8
30  35  8
30  38  8
31  36  8
31  37  8
32  34  8
33  34  8
35  41  8
36  39  8
37  40  8
38  43  8
39  42  8
40  42  8
41  44  8
43  44  8
$$$$
