507753
  -OEChem-10302200282D
 51 54  0     1  0  0  0  0  0999 V2000
    7.2133   -1.0675    0.0000 O   0  0  0  0  0  0  0  0  0  0  0  0
    9.7781    3.5609    0.0000 O   0  0  0  0  0  0  0  0  0  0  0  0
    5.8503    1.2002    0.0000 O   0  0  0  0  0  0  0  0  0  0  0  0
    3.5000   -3.2509    0.0000 O   0  0  0  0  0  0  0  0  0  0  0  0
    2.0000    0.6151    0.0000 O   0  5  0  0  0  0  0  0  0  0  0  0
    3.5000    1.4812    0.0000 O   0  0  0  0  0  0  0  0  0  0  0  0
    7.7514    0.5789    0.0000 N   0  0  0  0  0  0  0  0  0  0  0  0
    9.2400    1.9146    0.0000 N   0  0  0  0  0  0  0  0  0  0  0  0
    5.3122   -2.0556    0.0000 N   0  0  0  0  0  0  0  0  0  0  0  0
    3.5000   -2.2509    0.0000 N   0  0  0  0  0  0  0  0  0  0  0  0
    3.0000    0.6151    0.0000 N   0  3  0  0  0  0  0  0  0  0  0  0
    8.7019    0.2682    0.0000 C   0  0  1  0  0  0  0  0  0  0  0  0
    9.4462    0.9360    0.0000 C   0  0  0  0  0  0  0  0  0  0  0  0
    7.5452    1.5574    0.0000 C   0  0  0  0  0  0  0  0  0  0  0  0
    8.2894    2.2252    0.0000 C   0  0  0  0  0  0  0  0  0  0  0  0
    8.9081   -0.7103    0.0000 C   0  0  0  0  0  0  0  0  0  0  0  0
    7.0071   -0.0890    0.0000 C   0  0  0  0  0  0  0  0  0  0  0  0
    9.9843    2.5824    0.0000 C   0  0  0  0  0  0  0  0  0  0  0  0
    6.0566    0.2217    0.0000 C   0  0  0  0  0  0  0  0  0  0  0  0
   10.9348    2.2717    0.0000 C   0  0  0  0  0  0  0  0  0  0  0  0
    5.3122   -0.4462    0.0000 C   0  0  0  0  0  0  0  0  0  0  0  0
    4.3660   -0.7509    0.0000 C   0  0  0  0  0  0  0  0  0  0  0  0
    4.3660   -1.7509    0.0000 C   0  0  0  0  0  0  0  0  0  0  0  0
    5.8958   -1.2509    0.0000 C   0  0  0  0  0  0  0  0  0  0  0  0
   11.6791    2.9396    0.0000 C   0  0  0  0  0  0  0  0  0  0  0  0
   11.1410    1.2932    0.0000 C   0  0  0  0  0  0  0  0  0  0  0  0
    3.5000   -0.2509    0.0000 C   0  0  0  0  0  0  0  0  0  0  0  0
    2.6340   -0.7509    0.0000 C   0  0  0  0  0  0  0  0  0  0  0  0
   12.6296    2.6289    0.0000 C   0  0  0  0  0  0  0  0  0  0  0  0
   12.0915    0.9826    0.0000 C   0  0  0  0  0  0  0  0  0  0  0  0
    2.6340   -1.7509    0.0000 C   0  0  0  0  0  0  0  0  0  0  0  0
   12.8358    1.6504    0.0000 C   0  0  0  0  0  0  0  0  0  0  0  0
    8.2404   -0.1459    0.0000 H   0  0  0  0  0  0  0  0  0  0  0  0
    9.7738    0.4097    0.0000 H   0  0  0  0  0  0  0  0  0  0  0  0
   10.0214    1.1673    0.0000 H   0  0  0  0  0  0  0  0  0  0  0  0
    7.2175    2.0837    0.0000 H   0  0  0  0  0  0  0  0  0  0  0  0
    6.9699    1.3261    0.0000 H   0  0  0  0  0  0  0  0  0  0  0  0
    8.5815    2.7721    0.0000 H   0  0  0  0  0  0  0  0  0  0  0  0
    7.8016    2.6078    0.0000 H   0  0  0  0  0  0  0  0  0  0  0  0
    8.3014   -0.8382    0.0000 H   0  0  0  0  0  0  0  0  0  0  0  0
    9.0360   -1.3170    0.0000 H   0  0  0  0  0  0  0  0  0  0  0  0
    9.5148   -0.5825    0.0000 H   0  0  0  0  0  0  0  0  0  0  0  0
    6.5158   -1.2509    0.0000 H   0  0  0  0  0  0  0  0  0  0  0  0
   11.5512    3.5462    0.0000 H   0  0  0  0  0  0  0  0  0  0  0  0
   10.6795    0.8792    0.0000 H   0  0  0  0  0  0  0  0  0  0  0  0
    2.0970   -0.4409    0.0000 H   0  0  0  0  0  0  0  0  0  0  0  0
   13.0911    3.0430    0.0000 H   0  0  0  0  0  0  0  0  0  0  0  0
   12.2194    0.3759    0.0000 H   0  0  0  0  0  0  0  0  0  0  0  0
    2.0970   -2.0609    0.0000 H   0  0  0  0  0  0  0  0  0  0  0  0
   13.4252    1.4578    0.0000 H   0  0  0  0  0  0  0  0  0  0  0  0
    2.9631   -3.5609    0.0000 H   0  0  0  0  0  0  0  0  0  0  0  0
  1 17  2  0  0  0  0
  2 18  2  0  0  0  0
  3 19  2  0  0  0  0
  4 10  1  0  0  0  0
  4 51  1  0  0  0  0
  5 11  1  0  0  0  0
  6 11  2  0  0  0  0
  7 12  1  0  0  0  0
  7 14  1  0  0  0  0
  7 17  1  0  0  0  0
  8 13  1  0  0  0  0
  8 15  1  0  0  0  0
  8 18  1  0  0  0  0
  9 23  2  0  0  0  0
  9 24  1  0  0  0  0
 10 23  1  0  0  0  0
 10 31  1  0  0  0  0
 11 27  1  0  0  0  0
 12 13  1  0  0  0  0
 12 16  1  1  0  0  0
 12 33  1  0  0  0  0
 13 34  1  0  0  0  0
 13 35  1  0  0  0  0
 14 15  1  0  0  0  0
 14 36  1  0  0  0  0
 14 37  1  0  0  0  0
 15 38  1  0  0  0  0
 15 39  1  0  0  0  0
 16 40  1  0  0  0  0
 16 41  1  0  0  0  0
 16 42  1  0  0  0  0
 17 19  1  0  0  0  0
 18 20  1  0  0  0  0
 19 21  1  0  0  0  0
 20 25  2  0  0  0  0
 20 26  1  0  0  0  0
 21 22  1  0  0  0  0
 21 24  2  0  0  0  0
 22 23  1  0  0  0  0
 22 27  2  0  0  0  0
 24 43  1  0  0  0  0
 25 29  1  0  0  0  0
 25 44  1  0  0  0  0
 26 30  2  0  0  0  0
 26 45  1  0  0  0  0
 27 28  1  0  0  0  0
 28 31  2  0  0  0  0
 28 46  1  0  0  0  0
 29 32  2  0  0  0  0
 29 47  1  0  0  0  0
 30 32  1  0  0  0  0
 30 48  1  0  0  0  0
 31 49  1  0  0  0  0
 32 50  1  0  0  0  0
M  CHG  2   5  -1  11   1
M  END
> <PUBCHEM_COMPOUND_CID>
507753
> <PUBCHEM_COMPOUND_CANONICALIZED>
1
> <PUBCHEM_CACTVS_COMPLEXITY>
766
> <PUBCHEM_CACTVS_HBOND_ACCEPTOR>
7
> <PUBCHEM_CACTVS_HBOND_DONOR>
1
> <PUBCHEM_CACTVS_ROTATABLE_BOND>
3
> <PUBCHEM_CACTVS_SUBSKEYS>
AAADceB7uAAAAAAAAAAAAAAAAAAAAWAAAAA8WIAAAAAAAFgBwAAAHgAECAAADCzBmwQ/8N8YUACpArd3dwCCgCk1AqAp2CG4ZNqIaHrA3fGUJYhohgLIyecciQCegAAAAAAAAAAAAAAAAAAAAAAAAAAAAA==
> <PUBCHEM_IUPAC_OPENEYE_NAME>
1-[(2R)-4-benzoyl-2-methyl-piperazin-1-yl]-2-(7-hydroxy-4-nitro-pyrrolo[2,3-b]pyridin-3-yl)ethane-1,2-dione
> <PUBCHEM_IUPAC_CAS_NAME>
1-[(2R)-4-benzoyl-2-methyl-1-piperazinyl]-2-(7-hydroxy-4-nitro-3-pyrrolo[2,3-b]pyridinyl)ethane-1,2-dione
> <PUBCHEM_IUPAC_NAME_MARKUP>
1-[(2<I>R</I>)-4-benzoyl-2-methylpiperazin-1-yl]-2-(7-hydroxy-4-nitropyrrolo[2,3-b]pyridin-3-yl)ethane-1,2-dione
> <PUBCHEM_IUPAC_NAME>
1-[(2R)-4-benzoyl-2-methylpiperazin-1-yl]-2-(7-hydroxy-4-nitropyrrolo[2,3-b]pyridin-3-yl)ethane-1,2-dione
> <PUBCHEM_IUPAC_SYSTEMATIC_NAME>
1-[(2R)-2-methyl-4-(phenylcarbonyl)piperazin-1-yl]-2-(4-nitro-7-oxidanyl-pyrrolo[2,3-b]pyridin-3-yl)ethane-1,2-dione
> <PUBCHEM_IUPAC_TRADITIONAL_NAME>
1-[(2R)-4-benzoyl-2-methyl-piperazino]-2-(7-hydroxy-4-nitro-pyrrolo[2,3-b]pyridin-3-yl)ethane-1,2-dione
> <PUBCHEM_IUPAC_INCHI>
InChI=1S/C21H19N5O6/c1-13-12-23(20(28)14-5-3-2-4-6-14)9-10-24(13)21(29)18(27)15-11-22-19-17(15)16(26(31)32)7-8-25(19)30/h2-8,11,13,30H,9-10,12H2,1H3/t13-/m1/s1
> <PUBCHEM_IUPAC_INCHIKEY>
SDQDEONBYMWYNS-CYBMUJFWSA-N
> <PUBCHEM_XLOGP3_AA>
1.6
> <PUBCHEM_EXACT_MASS>
437.13353334
> <PUBCHEM_MOLECULAR_FORMULA>
C21H19N5O6
> <PUBCHEM_MOLECULAR_WEIGHT>
437.4
> <PUBCHEM_OPENEYE_CAN_SMILES>
CC1CN(CCN1C(=O)C(=O)C2=CN=C3C2=C(C=CN3O)[N+](=O)[O-])C(=O)C4=CC=CC=C4
> <PUBCHEM_OPENEYE_ISO_SMILES>
C[C@@H]1CN(CCN1C(=O)C(=O)C2=CN=C3C2=C(C=CN3O)[N+](=O)[O-])C(=O)C4=CC=CC=C4
> <PUBCHEM_CACTVS_TPSA>
142
> <PUBCHEM_MONOISOTOPIC_WEIGHT>
437.13353334
> <PUBCHEM_TOTAL_CHARGE>
0
> <PUBCHEM_HEAVY_ATOM_COUNT>
32
> <PUBCHEM_ATOM_DEF_STEREO_COUNT>
1
> <PUBCHEM_ATOM_UDEF_STEREO_COUNT>
0
> <PUBCHEM_BOND_DEF_STEREO_COUNT>
0
> <PUBCHEM_BOND_UDEF_STEREO_COUNT>
0
> <PUBCHEM_ISOTOPIC_ATOM_COUNT>
0
> <PUBCHEM_COMPONENT_COUNT>
1
> <PUBCHEM_CACTVS_TAUTO_COUNT>
-1
> <PUBCHEM_COORDINATE_TYPE>
1
5
255
> <PUBCHEM_BONDANNOTATIONS>
10  23  8
10  31  8
12  16  5
20  25  8
20  26  8
21  22  8
21  24  8
22  27  8
25  29  8
26  30  8
27  28  8
28  31  8
29  32  8
30  32  8
9  23  8
9  24  8
$$$$
