507821
  -OEChem-10302200282D
 53 57  0     1  0  0  0  0  0999 V2000
    2.8660    0.4570    0.0000 F   0  0  0  0  0  0  0  0  0  0  0  0
    6.6353   -0.3259    0.0000 O   0  0  0  0  0  0  0  0  0  0  0  0
    6.5422    4.9648    0.0000 O   0  0  0  0  0  0  0  0  0  0  0  0
    4.3211    0.9565    0.0000 O   0  0  0  0  0  0  0  0  0  0  0  0
    6.2781    1.3689    0.0000 N   0  0  0  0  0  0  0  0  0  0  0  0
    6.8994    3.2700    0.0000 N   0  0  0  0  0  0  0  0  0  0  0  0
    4.6783   -2.3478    0.0000 N   0  0  0  0  0  0  0  0  0  0  0  0
    8.4993    5.3772    0.0000 N   0  0  0  0  0  0  0  0  0  0  0  0
    2.0570   -4.1308    0.0000 N   0  0  0  0  0  0  0  0  0  0  0  0
    3.6750   -4.1308    0.0000 N   0  0  0  0  0  0  0  0  0  0  0  0
    2.3660   -5.0819    0.0000 N   0  0  0  0  0  0  0  0  0  0  0  0
    3.3660   -5.0819    0.0000 N   0  0  0  0  0  0  0  0  0  0  0  0
    7.2566    1.5752    0.0000 C   0  0  1  0  0  0  0  0  0  0  0  0
    7.5673    2.5257    0.0000 C   0  0  0  0  0  0  0  0  0  0  0  0
    5.6103    2.1132    0.0000 C   0  0  0  0  0  0  0  0  0  0  0  0
    5.9209    3.0638    0.0000 C   0  0  0  0  0  0  0  0  0  0  0  0
    7.9244    0.8309    0.0000 C   0  0  0  0  0  0  0  0  0  0  0  0
    5.9674    0.4184    0.0000 C   0  0  0  0  0  0  0  0  0  0  0  0
    7.2101    4.2205    0.0000 C   0  0  0  0  0  0  0  0  0  0  0  0
    4.9889    0.2122    0.0000 C   0  0  0  0  0  0  0  0  0  0  0  0
    4.6783   -0.7383    0.0000 C   0  0  0  0  0  0  0  0  0  0  0  0
    3.7320   -1.0430    0.0000 C   0  0  0  0  0  0  0  0  0  0  0  0
    8.1886    4.4267    0.0000 C   0  0  0  0  0  0  0  0  0  0  0  0
    3.7320   -2.0430    0.0000 C   0  0  0  0  0  0  0  0  0  0  0  0
    5.2619   -1.5430    0.0000 C   0  0  0  0  0  0  0  0  0  0  0  0
    2.8660   -2.5430    0.0000 C   0  0  0  0  0  0  0  0  0  0  0  0
    2.8660   -0.5430    0.0000 C   0  0  0  0  0  0  0  0  0  0  0  0
    8.8564    3.6824    0.0000 C   0  0  0  0  0  0  0  0  0  0  0  0
    2.0000   -2.0430    0.0000 C   0  0  0  0  0  0  0  0  0  0  0  0
    2.0000   -1.0430    0.0000 C   0  0  0  0  0  0  0  0  0  0  0  0
    2.8660   -3.5430    0.0000 C   0  0  0  0  0  0  0  0  0  0  0  0
    9.8349    3.8886    0.0000 C   0  0  0  0  0  0  0  0  0  0  0  0
    9.4778    5.5835    0.0000 C   0  0  0  0  0  0  0  0  0  0  0  0
   10.1456    4.8392    0.0000 C   0  0  0  0  0  0  0  0  0  0  0  0
    7.0640    0.9858    0.0000 H   0  0  0  0  0  0  0  0  0  0  0  0
    8.1142    2.2337    0.0000 H   0  0  0  0  0  0  0  0  0  0  0  0
    7.9498    3.0136    0.0000 H   0  0  0  0  0  0  0  0  0  0  0  0
    5.0633    2.4053    0.0000 H   0  0  0  0  0  0  0  0  0  0  0  0
    5.2277    1.6254    0.0000 H   0  0  0  0  0  0  0  0  0  0  0  0
    5.9004    3.6834    0.0000 H   0  0  0  0  0  0  0  0  0  0  0  0
    5.3071    3.1511    0.0000 H   0  0  0  0  0  0  0  0  0  0  0  0
    7.4630    0.4168    0.0000 H   0  0  0  0  0  0  0  0  0  0  0  0
    8.3385    0.3694    0.0000 H   0  0  0  0  0  0  0  0  0  0  0  0
    8.3859    1.2449    0.0000 H   0  0  0  0  0  0  0  0  0  0  0  0
    5.8819   -1.5430    0.0000 H   0  0  0  0  0  0  0  0  0  0  0  0
    4.8709   -2.9371    0.0000 H   0  0  0  0  0  0  0  0  0  0  0  0
    8.6638    3.0931    0.0000 H   0  0  0  0  0  0  0  0  0  0  0  0
    1.4631   -2.3530    0.0000 H   0  0  0  0  0  0  0  0  0  0  0  0
    1.4631   -0.7330    0.0000 H   0  0  0  0  0  0  0  0  0  0  0  0
   10.2490    3.4272    0.0000 H   0  0  0  0  0  0  0  0  0  0  0  0
    9.6704    6.1728    0.0000 H   0  0  0  0  0  0  0  0  0  0  0  0
   10.7523    4.9670    0.0000 H   0  0  0  0  0  0  0  0  0  0  0  0
    2.0016   -5.5835    0.0000 H   0  0  0  0  0  0  0  0  0  0  0  0
  1 27  1  0  0  0  0
  2 18  2  0  0  0  0
  3 19  2  0  0  0  0
  4 20  2  0  0  0  0
  5 13  1  0  0  0  0
  5 15  1  0  0  0  0
  5 18  1  0  0  0  0
  6 14  1  0  0  0  0
  6 16  1  0  0  0  0
  6 19  1  0  0  0  0
  7 24  1  0  0  0  0
  7 25  1  0  0  0  0
  7 46  1  0  0  0  0
  8 23  1  0  0  0  0
  8 33  2  0  0  0  0
  9 11  1  0  0  0  0
  9 31  2  0  0  0  0
 10 12  2  0  0  0  0
 10 31  1  0  0  0  0
 11 12  1  0  0  0  0
 11 53  1  0  0  0  0
 13 14  1  0  0  0  0
 13 17  1  1  0  0  0
 13 35  1  0  0  0  0
 14 36  1  0  0  0  0
 14 37  1  0  0  0  0
 15 16  1  0  0  0  0
 15 38  1  0  0  0  0
 15 39  1  0  0  0  0
 16 40  1  0  0  0  0
 16 41  1  0  0  0  0
 17 42  1  0  0  0  0
 17 43  1  0  0  0  0
 17 44  1  0  0  0  0
 18 20  1  0  0  0  0
 19 23  1  0  0  0  0
 20 21  1  0  0  0  0
 21 22  1  0  0  0  0
 21 25  2  0  0  0  0
 22 24  1  0  0  0  0
 22 27  2  0  0  0  0
 23 28  2  0  0  0  0
 24 26  2  0  0  0  0
 25 45  1  0  0  0  0
 26 29  1  0  0  0  0
 26 31  1  0  0  0  0
 27 30  1  0  0  0  0
 28 32  1  0  0  0  0
 28 47  1  0  0  0  0
 29 30  2  0  0  0  0
 29 48  1  0  0  0  0
 30 49  1  0  0  0  0
 32 34  2  0  0  0  0
 32 50  1  0  0  0  0
 33 34  1  0  0  0  0
 33 51  1  0  0  0  0
 34 52  1  0  0  0  0
M  END
> <PUBCHEM_COMPOUND_CID>
507821
> <PUBCHEM_COMPOUND_CANONICALIZED>
1
> <PUBCHEM_CACTVS_COMPLEXITY>
802
> <PUBCHEM_CACTVS_HBOND_ACCEPTOR>
8
> <PUBCHEM_CACTVS_HBOND_DONOR>
2
> <PUBCHEM_CACTVS_ROTATABLE_BOND>
4
> <PUBCHEM_CACTVS_SUBSKEYS>
AAADceB78QAAAAAAAAAAAAAAAAAAAWLAAAA8WIAAAAAAAFgB/gAAHwAYAAAADCzBnww/0PfLkACqA7d3dACCgCI3AiAc+aG4ZNgIYPrA1bGUIYhghgDIycccicCegAACAAACAAAAAAQAAAQAAAAAAAAAAA==
> <PUBCHEM_IUPAC_OPENEYE_NAME>
1-[4-fluoro-7-(2H-tetrazol-5-yl)-1H-indol-3-yl]-2-[(2R)-2-methyl-4-(pyridine-2-carbonyl)piperazin-1-yl]ethane-1,2-dione
> <PUBCHEM_IUPAC_CAS_NAME>
1-[4-fluoro-7-(2H-tetrazol-5-yl)-1H-indol-3-yl]-2-[(2R)-2-methyl-4-[oxo(2-pyridinyl)methyl]-1-piperazinyl]ethane-1,2-dione
> <PUBCHEM_IUPAC_NAME_MARKUP>
1-[4-fluoro-7-(2<I>H</I>-tetrazol-5-yl)-1<I>H</I>-indol-3-yl]-2-[(2<I>R</I>)-2-methyl-4-(pyridine-2-carbonyl)piperazin-1-yl]ethane-1,2-dione
> <PUBCHEM_IUPAC_NAME>
1-[4-fluoro-7-(2H-tetrazol-5-yl)-1H-indol-3-yl]-2-[(2R)-2-methyl-4-(pyridine-2-carbonyl)piperazin-1-yl]ethane-1,2-dione
> <PUBCHEM_IUPAC_SYSTEMATIC_NAME>
1-[4-fluoranyl-7-(2H-1,2,3,4-tetrazol-5-yl)-1H-indol-3-yl]-2-[(2R)-2-methyl-4-pyridin-2-ylcarbonyl-piperazin-1-yl]ethane-1,2-dione
> <PUBCHEM_IUPAC_TRADITIONAL_NAME>
1-[4-fluoro-7-(2H-tetrazol-5-yl)-1H-indol-3-yl]-2-[(2R)-2-methyl-4-picolinoyl-piperazino]ethane-1,2-dione
> <PUBCHEM_IUPAC_INCHI>
InChI=1S/C22H19FN8O3/c1-12-11-30(21(33)16-4-2-3-7-24-16)8-9-31(12)22(34)19(32)14-10-25-18-13(20-26-28-29-27-20)5-6-15(23)17(14)18/h2-7,10,12,25H,8-9,11H2,1H3,(H,26,27,28,29)/t12-/m1/s1
> <PUBCHEM_IUPAC_INCHIKEY>
DRZLCYPXUIYGGM-GFCCVEGCSA-N
> <PUBCHEM_XLOGP3_AA>
1.3
> <PUBCHEM_EXACT_MASS>
462.15641466
> <PUBCHEM_MOLECULAR_FORMULA>
C22H19FN8O3
> <PUBCHEM_MOLECULAR_WEIGHT>
462.4
> <PUBCHEM_OPENEYE_CAN_SMILES>
CC1CN(CCN1C(=O)C(=O)C2=CNC3=C(C=CC(=C23)F)C4=NNN=N4)C(=O)C5=CC=CC=N5
> <PUBCHEM_OPENEYE_ISO_SMILES>
C[C@@H]1CN(CCN1C(=O)C(=O)C2=CNC3=C(C=CC(=C23)F)C4=NNN=N4)C(=O)C5=CC=CC=N5
> <PUBCHEM_CACTVS_TPSA>
141
> <PUBCHEM_MONOISOTOPIC_WEIGHT>
462.15641466
> <PUBCHEM_TOTAL_CHARGE>
0
> <PUBCHEM_HEAVY_ATOM_COUNT>
34
> <PUBCHEM_ATOM_DEF_STEREO_COUNT>
1
> <PUBCHEM_ATOM_UDEF_STEREO_COUNT>
0
> <PUBCHEM_BOND_DEF_STEREO_COUNT>
0
> <PUBCHEM_BOND_UDEF_STEREO_COUNT>
0
> <PUBCHEM_ISOTOPIC_ATOM_COUNT>
0
> <PUBCHEM_COMPONENT_COUNT>
1
> <PUBCHEM_CACTVS_TAUTO_COUNT>
-1
> <PUBCHEM_COORDINATE_TYPE>
1
5
255
> <PUBCHEM_BONDANNOTATIONS>
10  12  8
10  31  8
11  12  8
13  17  5
21  22  8
21  25  8
22  24  8
22  27  8
23  28  8
24  26  8
26  29  8
27  30  8
28  32  8
29  30  8
32  34  8
33  34  8
7  24  8
7  25  8
8  23  8
8  33  8
9  11  8
9  31  8
$$$$
