507946
  -OEChem-10302200282D
 56 60  0     1  0  0  0  0  0999 V2000
    2.8660    0.8939    0.0000 F   0  0  0  0  0  0  0  0  0  0  0  0
    6.6353    0.1110    0.0000 O   0  0  0  0  0  0  0  0  0  0  0  0
    6.5422    5.4017    0.0000 O   0  0  0  0  0  0  0  0  0  0  0  0
    4.3211    1.3934    0.0000 O   0  0  0  0  0  0  0  0  0  0  0  0
    2.3660   -4.6450    0.0000 O   0  0  0  0  0  0  0  0  0  0  0  0
    6.2781    1.8059    0.0000 N   0  0  0  0  0  0  0  0  0  0  0  0
    6.8994    3.7069    0.0000 N   0  0  0  0  0  0  0  0  0  0  0  0
    4.6783   -1.9109    0.0000 N   0  0  0  0  0  0  0  0  0  0  0  0
    3.6750   -3.6939    0.0000 N   0  0  0  0  0  0  0  0  0  0  0  0
    2.0570   -3.6939    0.0000 N   0  0  0  0  0  0  0  0  0  0  0  0
    3.9538   -5.4540    0.0000 N   0  0  0  0  0  0  0  0  0  0  0  0
    7.2566    2.0121    0.0000 C   0  0  1  0  0  0  0  0  0  0  0  0
    7.5673    2.9626    0.0000 C   0  0  0  0  0  0  0  0  0  0  0  0
    5.6103    2.5502    0.0000 C   0  0  0  0  0  0  0  0  0  0  0  0
    5.9209    3.5007    0.0000 C   0  0  0  0  0  0  0  0  0  0  0  0
    7.9244    1.2678    0.0000 C   0  0  0  0  0  0  0  0  0  0  0  0
    5.9674    0.8553    0.0000 C   0  0  0  0  0  0  0  0  0  0  0  0
    7.2101    4.6574    0.0000 C   0  0  0  0  0  0  0  0  0  0  0  0
    4.9889    0.6491    0.0000 C   0  0  0  0  0  0  0  0  0  0  0  0
    4.6783   -0.3014    0.0000 C   0  0  0  0  0  0  0  0  0  0  0  0
    8.1886    4.8636    0.0000 C   0  0  0  0  0  0  0  0  0  0  0  0
    3.7320   -0.6061    0.0000 C   0  0  0  0  0  0  0  0  0  0  0  0
    3.7320   -1.6061    0.0000 C   0  0  0  0  0  0  0  0  0  0  0  0
    5.2619   -1.1061    0.0000 C   0  0  0  0  0  0  0  0  0  0  0  0
    2.8660   -2.1061    0.0000 C   0  0  0  0  0  0  0  0  0  0  0  0
    2.8660   -0.1061    0.0000 C   0  0  0  0  0  0  0  0  0  0  0  0
    8.4993    5.8142    0.0000 C   0  0  0  0  0  0  0  0  0  0  0  0
    8.8564    4.1193    0.0000 C   0  0  0  0  0  0  0  0  0  0  0  0
    2.0000   -1.6061    0.0000 C   0  0  0  0  0  0  0  0  0  0  0  0
    2.0000   -0.6061    0.0000 C   0  0  0  0  0  0  0  0  0  0  0  0
    2.8660   -3.1061    0.0000 C   0  0  0  0  0  0  0  0  0  0  0  0
    9.4778    6.0204    0.0000 C   0  0  0  0  0  0  0  0  0  0  0  0
    9.8349    4.3256    0.0000 C   0  0  0  0  0  0  0  0  0  0  0  0
   10.1456    5.2761    0.0000 C   0  0  0  0  0  0  0  0  0  0  0  0
    3.3660   -4.6450    0.0000 C   0  0  0  0  0  0  0  0  0  0  0  0
    7.0640    1.4228    0.0000 H   0  0  0  0  0  0  0  0  0  0  0  0
    8.1142    2.6706    0.0000 H   0  0  0  0  0  0  0  0  0  0  0  0
    7.9498    3.4505    0.0000 H   0  0  0  0  0  0  0  0  0  0  0  0
    5.0633    2.8422    0.0000 H   0  0  0  0  0  0  0  0  0  0  0  0
    5.2277    2.0623    0.0000 H   0  0  0  0  0  0  0  0  0  0  0  0
    5.9004    4.1204    0.0000 H   0  0  0  0  0  0  0  0  0  0  0  0
    5.3071    3.5880    0.0000 H   0  0  0  0  0  0  0  0  0  0  0  0
    7.4630    0.8537    0.0000 H   0  0  0  0  0  0  0  0  0  0  0  0
    8.3385    0.8063    0.0000 H   0  0  0  0  0  0  0  0  0  0  0  0
    8.3859    1.6818    0.0000 H   0  0  0  0  0  0  0  0  0  0  0  0
    5.8819   -1.1061    0.0000 H   0  0  0  0  0  0  0  0  0  0  0  0
    4.8709   -2.5002    0.0000 H   0  0  0  0  0  0  0  0  0  0  0  0
    8.0852    6.2756    0.0000 H   0  0  0  0  0  0  0  0  0  0  0  0
    8.6638    3.5300    0.0000 H   0  0  0  0  0  0  0  0  0  0  0  0
    1.4631   -1.9161    0.0000 H   0  0  0  0  0  0  0  0  0  0  0  0
    1.4631   -0.2961    0.0000 H   0  0  0  0  0  0  0  0  0  0  0  0
    9.6704    6.6097    0.0000 H   0  0  0  0  0  0  0  0  0  0  0  0
   10.2490    3.8641    0.0000 H   0  0  0  0  0  0  0  0  0  0  0  0
   10.7523    5.4039    0.0000 H   0  0  0  0  0  0  0  0  0  0  0  0
    3.7016   -6.0204    0.0000 H   0  0  0  0  0  0  0  0  0  0  0  0
    4.5704   -5.3892    0.0000 H   0  0  0  0  0  0  0  0  0  0  0  0
  1 26  1  0  0  0  0
  2 17  2  0  0  0  0
  3 18  2  0  0  0  0
  4 19  2  0  0  0  0
  5 10  1  0  0  0  0
  5 35  1  0  0  0  0
  6 12  1  0  0  0  0
  6 14  1  0  0  0  0
  6 17  1  0  0  0  0
  7 13  1  0  0  0  0
  7 15  1  0  0  0  0
  7 18  1  0  0  0  0
  8 23  1  0  0  0  0
  8 24  1  0  0  0  0
  8 47  1  0  0  0  0
  9 31  1  0  0  0  0
  9 35  2  0  0  0  0
 10 31  2  0  0  0  0
 11 35  1  0  0  0  0
 11 55  1  0  0  0  0
 11 56  1  0  0  0  0
 12 13  1  0  0  0  0
 12 16  1  1  0  0  0
 12 36  1  0  0  0  0
 13 37  1  0  0  0  0
 13 38  1  0  0  0  0
 14 15  1  0  0  0  0
 14 39  1  0  0  0  0
 14 40  1  0  0  0  0
 15 41  1  0  0  0  0
 15 42  1  0  0  0  0
 16 43  1  0  0  0  0
 16 44  1  0  0  0  0
 16 45  1  0  0  0  0
 17 19  1  0  0  0  0
 18 21  1  0  0  0  0
 19 20  1  0  0  0  0
 20 22  1  0  0  0  0
 20 24  2  0  0  0  0
 21 27  2  0  0  0  0
 21 28  1  0  0  0  0
 22 23  1  0  0  0  0
 22 26  2  0  0  0  0
 23 25  2  0  0  0  0
 24 46  1  0  0  0  0
 25 29  1  0  0  0  0
 25 31  1  0  0  0  0
 26 30  1  0  0  0  0
 27 32  1  0  0  0  0
 27 48  1  0  0  0  0
 28 33  2  0  0  0  0
 28 49  1  0  0  0  0
 29 30  2  0  0  0  0
 29 50  1  0  0  0  0
 30 51  1  0  0  0  0
 32 34  2  0  0  0  0
 32 52  1  0  0  0  0
 33 34  1  0  0  0  0
 33 53  1  0  0  0  0
 34 54  1  0  0  0  0
M  END
> <PUBCHEM_COMPOUND_CID>
507946
> <PUBCHEM_COMPOUND_CANONICALIZED>
1
> <PUBCHEM_CACTVS_COMPLEXITY>
826
> <PUBCHEM_CACTVS_HBOND_ACCEPTOR>
8
> <PUBCHEM_CACTVS_HBOND_DONOR>
2
> <PUBCHEM_CACTVS_ROTATABLE_BOND>
4
> <PUBCHEM_CACTVS_SUBSKEYS>
AAADceB7uQAAAAAAAAAAAAAAAAAAAWLAAAA8YIAAAAAAAFgB/AAAHwAUAAAADCzBnww/0PfZkACpA7d3dgCCgCk1AKAp2aGoRNmIaPrA1bGUIYhghwLIycccicCegAACAAACAAAAAAQAAAQAAAAAAAAAAA==
> <PUBCHEM_IUPAC_OPENEYE_NAME>
1-[7-(5-amino-1,2,4-oxadiazol-3-yl)-4-fluoro-1H-indol-3-yl]-2-[(2R)-4-benzoyl-2-methyl-piperazin-1-yl]ethane-1,2-dione
> <PUBCHEM_IUPAC_CAS_NAME>
1-[7-(5-amino-1,2,4-oxadiazol-3-yl)-4-fluoro-1H-indol-3-yl]-2-[(2R)-4-benzoyl-2-methyl-1-piperazinyl]ethane-1,2-dione
> <PUBCHEM_IUPAC_NAME_MARKUP>
1-[7-(5-amino-1,2,4-oxadiazol-3-yl)-4-fluoro-1<I>H</I>-indol-3-yl]-2-[(2<I>R</I>)-4-benzoyl-2-methylpiperazin-1-yl]ethane-1,2-dione
> <PUBCHEM_IUPAC_NAME>
1-[7-(5-amino-1,2,4-oxadiazol-3-yl)-4-fluoro-1H-indol-3-yl]-2-[(2R)-4-benzoyl-2-methylpiperazin-1-yl]ethane-1,2-dione
> <PUBCHEM_IUPAC_SYSTEMATIC_NAME>
1-[7-(5-azanyl-1,2,4-oxadiazol-3-yl)-4-fluoranyl-1H-indol-3-yl]-2-[(2R)-2-methyl-4-(phenylcarbonyl)piperazin-1-yl]ethane-1,2-dione
> <PUBCHEM_IUPAC_TRADITIONAL_NAME>
1-[7-(5-amino-1,2,4-oxadiazol-3-yl)-4-fluoro-1H-indol-3-yl]-2-[(2R)-4-benzoyl-2-methyl-piperazino]ethane-1,2-dione
> <PUBCHEM_IUPAC_INCHI>
InChI=1S/C24H21FN6O4/c1-13-12-30(22(33)14-5-3-2-4-6-14)9-10-31(13)23(34)20(32)16-11-27-19-15(7-8-17(25)18(16)19)21-28-24(26)35-29-21/h2-8,11,13,27H,9-10,12H2,1H3,(H2,26,28,29)/t13-/m1/s1
> <PUBCHEM_IUPAC_INCHIKEY>
NCUWZHURKCQMOY-CYBMUJFWSA-N
> <PUBCHEM_XLOGP3_AA>
2.4
> <PUBCHEM_EXACT_MASS>
476.16083133
> <PUBCHEM_MOLECULAR_FORMULA>
C24H21FN6O4
> <PUBCHEM_MOLECULAR_WEIGHT>
476.5
> <PUBCHEM_OPENEYE_CAN_SMILES>
CC1CN(CCN1C(=O)C(=O)C2=CNC3=C(C=CC(=C23)F)C4=NOC(=N4)N)C(=O)C5=CC=CC=C5
> <PUBCHEM_OPENEYE_ISO_SMILES>
C[C@@H]1CN(CCN1C(=O)C(=O)C2=CNC3=C(C=CC(=C23)F)C4=NOC(=N4)N)C(=O)C5=CC=CC=C5
> <PUBCHEM_CACTVS_TPSA>
138
> <PUBCHEM_MONOISOTOPIC_WEIGHT>
476.16083133
> <PUBCHEM_TOTAL_CHARGE>
0
> <PUBCHEM_HEAVY_ATOM_COUNT>
35
> <PUBCHEM_ATOM_DEF_STEREO_COUNT>
1
> <PUBCHEM_ATOM_UDEF_STEREO_COUNT>
0
> <PUBCHEM_BOND_DEF_STEREO_COUNT>
0
> <PUBCHEM_BOND_UDEF_STEREO_COUNT>
0
> <PUBCHEM_ISOTOPIC_ATOM_COUNT>
0
> <PUBCHEM_COMPONENT_COUNT>
1
> <PUBCHEM_CACTVS_TAUTO_COUNT>
-1
> <PUBCHEM_COORDINATE_TYPE>
1
5
255
> <PUBCHEM_BONDANNOTATIONS>
10  31  8
12  16  5
20  22  8
20  24  8
21  27  8
21  28  8
22  23  8
22  26  8
23  25  8
25  29  8
26  30  8
27  32  8
28  33  8
29  30  8
32  34  8
33  34  8
5  10  8
5  35  8
8  23  8
8  24  8
9  31  8
9  35  8
$$$$
