507956
  -OEChem-10302200282D
 56 60  0     1  0  0  0  0  0999 V2000
    4.7628   -4.7449    0.0000 Cl  0  0  0  0  0  0  0  0  0  0  0  0
    4.5416   -6.1417    0.0000 Cl  0  0  0  0  0  0  0  0  0  0  0  0
    3.1448   -5.9205    0.0000 Cl  0  0  0  0  0  0  0  0  0  0  0  0
    2.8660    1.0152    0.0000 F   0  0  0  0  0  0  0  0  0  0  0  0
    6.6353    0.2324    0.0000 O   0  0  0  0  0  0  0  0  0  0  0  0
    6.5422    5.5230    0.0000 O   0  0  0  0  0  0  0  0  0  0  0  0
    4.3211    1.5147    0.0000 O   0  0  0  0  0  0  0  0  0  0  0  0
    2.3660   -4.5237    0.0000 O   0  0  0  0  0  0  0  0  0  0  0  0
    6.2781    1.9272    0.0000 N   0  0  0  0  0  0  0  0  0  0  0  0
    6.8994    3.8282    0.0000 N   0  0  0  0  0  0  0  0  0  0  0  0
    4.6783   -1.7896    0.0000 N   0  0  0  0  0  0  0  0  0  0  0  0
    8.8564    4.2406    0.0000 N   0  0  0  0  0  0  0  0  0  0  0  0
    3.6750   -3.5726    0.0000 N   0  0  0  0  0  0  0  0  0  0  0  0
    2.0570   -3.5726    0.0000 N   0  0  0  0  0  0  0  0  0  0  0  0
    7.2566    2.1334    0.0000 C   0  0  1  0  0  0  0  0  0  0  0  0
    7.5673    3.0839    0.0000 C   0  0  0  0  0  0  0  0  0  0  0  0
    5.6103    2.6715    0.0000 C   0  0  0  0  0  0  0  0  0  0  0  0
    5.9209    3.6220    0.0000 C   0  0  0  0  0  0  0  0  0  0  0  0
    7.9244    1.3891    0.0000 C   0  0  0  0  0  0  0  0  0  0  0  0
    5.9674    0.9767    0.0000 C   0  0  0  0  0  0  0  0  0  0  0  0
    7.2101    4.7787    0.0000 C   0  0  0  0  0  0  0  0  0  0  0  0
    4.9889    0.7704    0.0000 C   0  0  0  0  0  0  0  0  0  0  0  0
    4.6783   -0.1801    0.0000 C   0  0  0  0  0  0  0  0  0  0  0  0
    3.7320   -0.4848    0.0000 C   0  0  0  0  0  0  0  0  0  0  0  0
    8.1886    4.9850    0.0000 C   0  0  0  0  0  0  0  0  0  0  0  0
    3.7320   -1.4848    0.0000 C   0  0  0  0  0  0  0  0  0  0  0  0
    5.2619   -0.9848    0.0000 C   0  0  0  0  0  0  0  0  0  0  0  0
    2.8660   -1.9848    0.0000 C   0  0  0  0  0  0  0  0  0  0  0  0
    2.8660    0.0152    0.0000 C   0  0  0  0  0  0  0  0  0  0  0  0
    8.4993    5.9355    0.0000 C   0  0  0  0  0  0  0  0  0  0  0  0
    2.0000   -1.4848    0.0000 C   0  0  0  0  0  0  0  0  0  0  0  0
    2.0000   -0.4848    0.0000 C   0  0  0  0  0  0  0  0  0  0  0  0
    2.8660   -2.9848    0.0000 C   0  0  0  0  0  0  0  0  0  0  0  0
    9.4778    6.1417    0.0000 C   0  0  0  0  0  0  0  0  0  0  0  0
    9.8349    4.4469    0.0000 C   0  0  0  0  0  0  0  0  0  0  0  0
   10.1456    5.3974    0.0000 C   0  0  0  0  0  0  0  0  0  0  0  0
    3.3660   -4.5237    0.0000 C   0  0  0  0  0  0  0  0  0  0  0  0
    3.9538   -5.3327    0.0000 C   0  0  0  0  0  0  0  0  0  0  0  0
    7.0640    1.5441    0.0000 H   0  0  0  0  0  0  0  0  0  0  0  0
    8.1142    2.7919    0.0000 H   0  0  0  0  0  0  0  0  0  0  0  0
    7.9498    3.5718    0.0000 H   0  0  0  0  0  0  0  0  0  0  0  0
    5.0633    2.9635    0.0000 H   0  0  0  0  0  0  0  0  0  0  0  0
    5.2277    2.1836    0.0000 H   0  0  0  0  0  0  0  0  0  0  0  0
    5.9004    4.2417    0.0000 H   0  0  0  0  0  0  0  0  0  0  0  0
    5.3071    3.7094    0.0000 H   0  0  0  0  0  0  0  0  0  0  0  0
    7.4630    0.9750    0.0000 H   0  0  0  0  0  0  0  0  0  0  0  0
    8.3385    0.9276    0.0000 H   0  0  0  0  0  0  0  0  0  0  0  0
    8.3859    1.8032    0.0000 H   0  0  0  0  0  0  0  0  0  0  0  0
    5.8819   -0.9848    0.0000 H   0  0  0  0  0  0  0  0  0  0  0  0
    4.8709   -2.3789    0.0000 H   0  0  0  0  0  0  0  0  0  0  0  0
    8.0852    6.3969    0.0000 H   0  0  0  0  0  0  0  0  0  0  0  0
    1.4631   -1.7948    0.0000 H   0  0  0  0  0  0  0  0  0  0  0  0
    1.4631   -0.1748    0.0000 H   0  0  0  0  0  0  0  0  0  0  0  0
    9.6704    6.7310    0.0000 H   0  0  0  0  0  0  0  0  0  0  0  0
   10.2490    3.9854    0.0000 H   0  0  0  0  0  0  0  0  0  0  0  0
   10.7523    5.5252    0.0000 H   0  0  0  0  0  0  0  0  0  0  0  0
  1 38  1  0  0  0  0
  2 38  1  0  0  0  0
  3 38  1  0  0  0  0
  4 29  1  0  0  0  0
  5 20  2  0  0  0  0
  6 21  2  0  0  0  0
  7 22  2  0  0  0  0
  8 14  1  0  0  0  0
  8 37  1  0  0  0  0
  9 15  1  0  0  0  0
  9 17  1  0  0  0  0
  9 20  1  0  0  0  0
 10 16  1  0  0  0  0
 10 18  1  0  0  0  0
 10 21  1  0  0  0  0
 11 26  1  0  0  0  0
 11 27  1  0  0  0  0
 11 50  1  0  0  0  0
 12 25  1  0  0  0  0
 12 35  2  0  0  0  0
 13 33  1  0  0  0  0
 13 37  2  0  0  0  0
 14 33  2  0  0  0  0
 15 16  1  0  0  0  0
 15 19  1  1  0  0  0
 15 39  1  0  0  0  0
 16 40  1  0  0  0  0
 16 41  1  0  0  0  0
 17 18  1  0  0  0  0
 17 42  1  0  0  0  0
 17 43  1  0  0  0  0
 18 44  1  0  0  0  0
 18 45  1  0  0  0  0
 19 46  1  0  0  0  0
 19 47  1  0  0  0  0
 19 48  1  0  0  0  0
 20 22  1  0  0  0  0
 21 25  1  0  0  0  0
 22 23  1  0  0  0  0
 23 24  1  0  0  0  0
 23 27  2  0  0  0  0
 24 26  1  0  0  0  0
 24 29  2  0  0  0  0
 25 30  2  0  0  0  0
 26 28  2  0  0  0  0
 27 49  1  0  0  0  0
 28 31  1  0  0  0  0
 28 33  1  0  0  0  0
 29 32  1  0  0  0  0
 30 34  1  0  0  0  0
 30 51  1  0  0  0  0
 31 32  2  0  0  0  0
 31 52  1  0  0  0  0
 32 53  1  0  0  0  0
 34 36  2  0  0  0  0
 34 54  1  0  0  0  0
 35 36  1  0  0  0  0
 35 55  1  0  0  0  0
 36 56  1  0  0  0  0
 37 38  1  0  0  0  0
M  END
> <PUBCHEM_COMPOUND_CID>
507956
> <PUBCHEM_COMPOUND_CANONICALIZED>
1
> <PUBCHEM_CACTVS_COMPLEXITY>
928
> <PUBCHEM_CACTVS_HBOND_ACCEPTOR>
8
> <PUBCHEM_CACTVS_HBOND_DONOR>
1
> <PUBCHEM_CACTVS_ROTATABLE_BOND>
4
> <PUBCHEM_CACTVS_SUBSKEYS>
AAADceB7uQAGAAAAAAAAAAAAAAAAAWLAAAA8WIAAAAAAAFgB/gAAHwIUAAAADC7Bn4w/0PfZkACpA7d3dgCCgCk3AqAp2aG4ZdjIaPrA3bHUIYhghwLIycccicCegAACAAACAAAAAAQAAAQAAAAAAAAAAA==
> <PUBCHEM_IUPAC_OPENEYE_NAME>
1-[4-fluoro-7-[5-(trichloromethyl)-1,2,4-oxadiazol-3-yl]-1H-indol-3-yl]-2-[(2R)-2-methyl-4-(pyridine-2-carbonyl)piperazin-1-yl]ethane-1,2-dione
> <PUBCHEM_IUPAC_CAS_NAME>
1-[4-fluoro-7-[5-(trichloromethyl)-1,2,4-oxadiazol-3-yl]-1H-indol-3-yl]-2-[(2R)-2-methyl-4-[oxo(2-pyridinyl)methyl]-1-piperazinyl]ethane-1,2-dione
> <PUBCHEM_IUPAC_NAME_MARKUP>
1-[4-fluoro-7-[5-(trichloromethyl)-1,2,4-oxadiazol-3-yl]-1<I>H</I>-indol-3-yl]-2-[(2<I>R</I>)-2-methyl-4-(pyridine-2-carbonyl)piperazin-1-yl]ethane-1,2-dione
> <PUBCHEM_IUPAC_NAME>
1-[4-fluoro-7-[5-(trichloromethyl)-1,2,4-oxadiazol-3-yl]-1H-indol-3-yl]-2-[(2R)-2-methyl-4-(pyridine-2-carbonyl)piperazin-1-yl]ethane-1,2-dione
> <PUBCHEM_IUPAC_SYSTEMATIC_NAME>
1-[4-fluoranyl-7-[5-(trichloromethyl)-1,2,4-oxadiazol-3-yl]-1H-indol-3-yl]-2-[(2R)-2-methyl-4-pyridin-2-ylcarbonyl-piperazin-1-yl]ethane-1,2-dione
> <PUBCHEM_IUPAC_TRADITIONAL_NAME>
1-[4-fluoro-7-[5-(trichloromethyl)-1,2,4-oxadiazol-3-yl]-1H-indol-3-yl]-2-[(2R)-2-methyl-4-picolinoyl-piperazino]ethane-1,2-dione
> <PUBCHEM_IUPAC_INCHI>
InChI=1S/C24H18Cl3FN6O4/c1-12-11-33(21(36)16-4-2-3-7-29-16)8-9-34(12)22(37)19(35)14-10-30-18-13(5-6-15(28)17(14)18)20-31-23(38-32-20)24(25,26)27/h2-7,10,12,30H,8-9,11H2,1H3/t12-/m1/s1
> <PUBCHEM_IUPAC_INCHIKEY>
DASZTQPZDIPXSR-GFCCVEGCSA-N
> <PUBCHEM_XLOGP3_AA>
3.7
> <PUBCHEM_EXACT_MASS>
578.043914
> <PUBCHEM_MOLECULAR_FORMULA>
C24H18Cl3FN6O4
> <PUBCHEM_MOLECULAR_WEIGHT>
579.8
> <PUBCHEM_OPENEYE_CAN_SMILES>
CC1CN(CCN1C(=O)C(=O)C2=CNC3=C(C=CC(=C23)F)C4=NOC(=N4)C(Cl)(Cl)Cl)C(=O)C5=CC=CC=N5
> <PUBCHEM_OPENEYE_ISO_SMILES>
C[C@@H]1CN(CCN1C(=O)C(=O)C2=CNC3=C(C=CC(=C23)F)C4=NOC(=N4)C(Cl)(Cl)Cl)C(=O)C5=CC=CC=N5
> <PUBCHEM_CACTVS_TPSA>
125
> <PUBCHEM_MONOISOTOPIC_WEIGHT>
578.043914
> <PUBCHEM_TOTAL_CHARGE>
0
> <PUBCHEM_HEAVY_ATOM_COUNT>
38
> <PUBCHEM_ATOM_DEF_STEREO_COUNT>
1
> <PUBCHEM_ATOM_UDEF_STEREO_COUNT>
0
> <PUBCHEM_BOND_DEF_STEREO_COUNT>
0
> <PUBCHEM_BOND_UDEF_STEREO_COUNT>
0
> <PUBCHEM_ISOTOPIC_ATOM_COUNT>
0
> <PUBCHEM_COMPONENT_COUNT>
1
> <PUBCHEM_CACTVS_TAUTO_COUNT>
-1
> <PUBCHEM_COORDINATE_TYPE>
1
5
255
> <PUBCHEM_BONDANNOTATIONS>
11  26  8
11  27  8
12  25  8
12  35  8
13  33  8
13  37  8
14  33  8
15  19  5
23  24  8
23  27  8
24  26  8
24  29  8
25  30  8
26  28  8
28  31  8
29  32  8
30  34  8
31  32  8
34  36  8
35  36  8
8  14  8
8  37  8
$$$$
