507949
  -OEChem-10302200282D
 66 71  0     1  0  0  0  0  0999 V2000
    2.8660    1.7134    0.0000 F   0  0  0  0  0  0  0  0  0  0  0  0
    2.3660   -3.8254    0.0000 O   0  0  0  0  0  0  0  0  0  0  0  0
    6.6353    0.9306    0.0000 O   0  0  0  0  0  0  0  0  0  0  0  0
    6.5422    6.2213    0.0000 O   0  0  0  0  0  0  0  0  0  0  0  0
    4.3211    2.2130    0.0000 O   0  0  0  0  0  0  0  0  0  0  0  0
    3.9538   -4.6344    0.0000 N   0  0  0  0  0  0  0  0  0  0  0  0
    6.2781    2.6254    0.0000 N   0  0  0  0  0  0  0  0  0  0  0  0
    6.8994    4.5264    0.0000 N   0  0  0  0  0  0  0  0  0  0  0  0
    3.6750   -2.8744    0.0000 N   0  0  0  0  0  0  0  0  0  0  0  0
    4.6783   -1.0913    0.0000 N   0  0  0  0  0  0  0  0  0  0  0  0
    2.0570   -2.8744    0.0000 N   0  0  0  0  0  0  0  0  0  0  0  0
    3.5471   -5.5480    0.0000 C   0  0  0  0  0  0  0  0  0  0  0  0
    2.6135   -5.9064    0.0000 C   0  0  0  0  0  0  0  0  0  0  0  0
    3.9054   -6.4816    0.0000 C   0  0  0  0  0  0  0  0  0  0  0  0
    2.9719   -6.8399    0.0000 C   0  0  0  0  0  0  0  0  0  0  0  0
    7.2566    2.8316    0.0000 C   0  0  1  0  0  0  0  0  0  0  0  0
    7.5673    3.7822    0.0000 C   0  0  0  0  0  0  0  0  0  0  0  0
    5.6103    3.3697    0.0000 C   0  0  0  0  0  0  0  0  0  0  0  0
    5.9209    4.3202    0.0000 C   0  0  0  0  0  0  0  0  0  0  0  0
    7.9244    2.0873    0.0000 C   0  0  0  0  0  0  0  0  0  0  0  0
    3.3660   -3.8254    0.0000 C   0  0  0  0  0  0  0  0  0  0  0  0
    5.9674    1.6749    0.0000 C   0  0  0  0  0  0  0  0  0  0  0  0
    7.2101    5.4770    0.0000 C   0  0  0  0  0  0  0  0  0  0  0  0
    4.9889    1.4687    0.0000 C   0  0  0  0  0  0  0  0  0  0  0  0
    4.6783    0.5182    0.0000 C   0  0  0  0  0  0  0  0  0  0  0  0
    3.7320    0.2134    0.0000 C   0  0  0  0  0  0  0  0  0  0  0  0
    3.7320   -0.7866    0.0000 C   0  0  0  0  0  0  0  0  0  0  0  0
    8.1886    5.6832    0.0000 C   0  0  0  0  0  0  0  0  0  0  0  0
    2.8660   -1.2866    0.0000 C   0  0  0  0  0  0  0  0  0  0  0  0
    2.8660   -2.2866    0.0000 C   0  0  0  0  0  0  0  0  0  0  0  0
    5.2619   -0.2866    0.0000 C   0  0  0  0  0  0  0  0  0  0  0  0
    2.8660    0.7134    0.0000 C   0  0  0  0  0  0  0  0  0  0  0  0
    2.0000   -0.7866    0.0000 C   0  0  0  0  0  0  0  0  0  0  0  0
    8.4993    6.6337    0.0000 C   0  0  0  0  0  0  0  0  0  0  0  0
    8.8564    4.9389    0.0000 C   0  0  0  0  0  0  0  0  0  0  0  0
    2.0000    0.2134    0.0000 C   0  0  0  0  0  0  0  0  0  0  0  0
    9.4778    6.8399    0.0000 C   0  0  0  0  0  0  0  0  0  0  0  0
    9.8349    5.1451    0.0000 C   0  0  0  0  0  0  0  0  0  0  0  0
   10.1456    6.0956    0.0000 C   0  0  0  0  0  0  0  0  0  0  0  0
    4.1669   -5.5642    0.0000 H   0  0  0  0  0  0  0  0  0  0  0  0
    2.3913   -5.3275    0.0000 H   0  0  0  0  0  0  0  0  0  0  0  0
    2.0347   -6.1285    0.0000 H   0  0  0  0  0  0  0  0  0  0  0  0
    4.1276   -7.0604    0.0000 H   0  0  0  0  0  0  0  0  0  0  0  0
    4.4843   -6.2594    0.0000 H   0  0  0  0  0  0  0  0  0  0  0  0
    2.3930   -7.0621    0.0000 H   0  0  0  0  0  0  0  0  0  0  0  0
    3.1940   -7.4188    0.0000 H   0  0  0  0  0  0  0  0  0  0  0  0
    7.0640    2.2423    0.0000 H   0  0  0  0  0  0  0  0  0  0  0  0
    8.1142    3.4901    0.0000 H   0  0  0  0  0  0  0  0  0  0  0  0
    7.9498    4.2701    0.0000 H   0  0  0  0  0  0  0  0  0  0  0  0
    4.5704   -4.5696    0.0000 H   0  0  0  0  0  0  0  0  0  0  0  0
    5.0633    3.6617    0.0000 H   0  0  0  0  0  0  0  0  0  0  0  0
    5.2277    2.8818    0.0000 H   0  0  0  0  0  0  0  0  0  0  0  0
    5.9004    4.9399    0.0000 H   0  0  0  0  0  0  0  0  0  0  0  0
    5.3071    4.4076    0.0000 H   0  0  0  0  0  0  0  0  0  0  0  0
    7.4630    1.6733    0.0000 H   0  0  0  0  0  0  0  0  0  0  0  0
    8.3385    1.6259    0.0000 H   0  0  0  0  0  0  0  0  0  0  0  0
    8.3859    2.5014    0.0000 H   0  0  0  0  0  0  0  0  0  0  0  0
    5.8819   -0.2866    0.0000 H   0  0  0  0  0  0  0  0  0  0  0  0
    4.8709   -1.6806    0.0000 H   0  0  0  0  0  0  0  0  0  0  0  0
    1.4631   -1.0966    0.0000 H   0  0  0  0  0  0  0  0  0  0  0  0
    8.0852    7.0952    0.0000 H   0  0  0  0  0  0  0  0  0  0  0  0
    8.6638    4.3496    0.0000 H   0  0  0  0  0  0  0  0  0  0  0  0
    1.4631    0.5234    0.0000 H   0  0  0  0  0  0  0  0  0  0  0  0
    9.6704    7.4292    0.0000 H   0  0  0  0  0  0  0  0  0  0  0  0
   10.2490    4.6836    0.0000 H   0  0  0  0  0  0  0  0  0  0  0  0
   10.7523    6.2235    0.0000 H   0  0  0  0  0  0  0  0  0  0  0  0
  1 32  1  0  0  0  0
  2 11  1  0  0  0  0
  2 21  1  0  0  0  0
  3 22  2  0  0  0  0
  4 23  2  0  0  0  0
  5 24  2  0  0  0  0
  6 12  1  0  0  0  0
  6 21  1  0  0  0  0
  6 50  1  0  0  0  0
  7 16  1  0  0  0  0
  7 18  1  0  0  0  0
  7 22  1  0  0  0  0
  8 17  1  0  0  0  0
  8 19  1  0  0  0  0
  8 23  1  0  0  0  0
  9 21  2  0  0  0  0
  9 30  1  0  0  0  0
 10 27  1  0  0  0  0
 10 31  1  0  0  0  0
 10 59  1  0  0  0  0
 11 30  2  0  0  0  0
 12 13  1  0  0  0  0
 12 14  1  0  0  0  0
 12 40  1  0  0  0  0
 13 15  1  0  0  0  0
 13 41  1  0  0  0  0
 13 42  1  0  0  0  0
 14 15  1  0  0  0  0
 14 43  1  0  0  0  0
 14 44  1  0  0  0  0
 15 45  1  0  0  0  0
 15 46  1  0  0  0  0
 16 17  1  0  0  0  0
 16 20  1  1  0  0  0
 16 47  1  0  0  0  0
 17 48  1  0  0  0  0
 17 49  1  0  0  0  0
 18 19  1  0  0  0  0
 18 51  1  0  0  0  0
 18 52  1  0  0  0  0
 19 53  1  0  0  0  0
 19 54  1  0  0  0  0
 20 55  1  0  0  0  0
 20 56  1  0  0  0  0
 20 57  1  0  0  0  0
 22 24  1  0  0  0  0
 23 28  1  0  0  0  0
 24 25  1  0  0  0  0
 25 26  1  0  0  0  0
 25 31  2  0  0  0  0
 26 27  1  0  0  0  0
 26 32  2  0  0  0  0
 27 29  2  0  0  0  0
 28 34  2  0  0  0  0
 28 35  1  0  0  0  0
 29 30  1  0  0  0  0
 29 33  1  0  0  0  0
 31 58  1  0  0  0  0
 32 36  1  0  0  0  0
 33 36  2  0  0  0  0
 33 60  1  0  0  0  0
 34 37  1  0  0  0  0
 34 61  1  0  0  0  0
 35 38  2  0  0  0  0
 35 62  1  0  0  0  0
 36 63  1  0  0  0  0
 37 39  2  0  0  0  0
 37 64  1  0  0  0  0
 38 39  1  0  0  0  0
 38 65  1  0  0  0  0
 39 66  1  0  0  0  0
M  END
> <PUBCHEM_COMPOUND_CID>
507949
> <PUBCHEM_COMPOUND_CANONICALIZED>
1
> <PUBCHEM_CACTVS_COMPLEXITY>
930
> <PUBCHEM_CACTVS_HBOND_ACCEPTOR>
8
> <PUBCHEM_CACTVS_HBOND_DONOR>
2
> <PUBCHEM_CACTVS_ROTATABLE_BOND>
6
> <PUBCHEM_CACTVS_SUBSKEYS>
AAADceB7uQAAAAAAAAAAAAAAAABgAWLAAAA8YIAAAAAAAFgB/AAAHwAUAAAADCzBnww/0PfZkACpA7d3dgCCgCk1AKAp2aGoRNmIaPrA3bGUIYholwLIycccicCegAACAAACAAAAAAQAAAQAAAAAAAAAAA==
> <PUBCHEM_IUPAC_OPENEYE_NAME>
1-[(2R)-4-benzoyl-2-methyl-piperazin-1-yl]-2-[7-[5-(cyclobutylamino)-1,2,4-oxadiazol-3-yl]-4-fluoro-1H-indol-3-yl]ethane-1,2-dione
> <PUBCHEM_IUPAC_CAS_NAME>
1-[(2R)-4-benzoyl-2-methyl-1-piperazinyl]-2-[7-[5-(cyclobutylamino)-1,2,4-oxadiazol-3-yl]-4-fluoro-1H-indol-3-yl]ethane-1,2-dione
> <PUBCHEM_IUPAC_NAME_MARKUP>
1-[(2<I>R</I>)-4-benzoyl-2-methylpiperazin-1-yl]-2-[7-[5-(cyclobutylamino)-1,2,4-oxadiazol-3-yl]-4-fluoro-1<I>H</I>-indol-3-yl]ethane-1,2-dione
> <PUBCHEM_IUPAC_NAME>
1-[(2R)-4-benzoyl-2-methylpiperazin-1-yl]-2-[7-[5-(cyclobutylamino)-1,2,4-oxadiazol-3-yl]-4-fluoro-1H-indol-3-yl]ethane-1,2-dione
> <PUBCHEM_IUPAC_SYSTEMATIC_NAME>
1-[7-[5-(cyclobutylamino)-1,2,4-oxadiazol-3-yl]-4-fluoranyl-1H-indol-3-yl]-2-[(2R)-2-methyl-4-(phenylcarbonyl)piperazin-1-yl]ethane-1,2-dione
> <PUBCHEM_IUPAC_TRADITIONAL_NAME>
1-[(2R)-4-benzoyl-2-methyl-piperazino]-2-[7-[5-(cyclobutylamino)-1,2,4-oxadiazol-3-yl]-4-fluoro-1H-indol-3-yl]ethane-1,2-dione
> <PUBCHEM_IUPAC_INCHI>
InChI=1S/C28H27FN6O4/c1-16-15-34(26(37)17-6-3-2-4-7-17)12-13-35(16)27(38)24(36)20-14-30-23-19(10-11-21(29)22(20)23)25-32-28(39-33-25)31-18-8-5-9-18/h2-4,6-7,10-11,14,16,18,30H,5,8-9,12-13,15H2,1H3,(H,31,32,33)/t16-/m1/s1
> <PUBCHEM_IUPAC_INCHIKEY>
PPMYIJXFIFITKI-MRXNPFEDSA-N
> <PUBCHEM_XLOGP3_AA>
4
> <PUBCHEM_EXACT_MASS>
530.20778153
> <PUBCHEM_MOLECULAR_FORMULA>
C28H27FN6O4
> <PUBCHEM_MOLECULAR_WEIGHT>
530.5
> <PUBCHEM_OPENEYE_CAN_SMILES>
CC1CN(CCN1C(=O)C(=O)C2=CNC3=C(C=CC(=C23)F)C4=NOC(=N4)NC5CCC5)C(=O)C6=CC=CC=C6
> <PUBCHEM_OPENEYE_ISO_SMILES>
C[C@@H]1CN(CCN1C(=O)C(=O)C2=CNC3=C(C=CC(=C23)F)C4=NOC(=N4)NC5CCC5)C(=O)C6=CC=CC=C6
> <PUBCHEM_CACTVS_TPSA>
124
> <PUBCHEM_MONOISOTOPIC_WEIGHT>
530.20778153
> <PUBCHEM_TOTAL_CHARGE>
0
> <PUBCHEM_HEAVY_ATOM_COUNT>
39
> <PUBCHEM_ATOM_DEF_STEREO_COUNT>
1
> <PUBCHEM_ATOM_UDEF_STEREO_COUNT>
0
> <PUBCHEM_BOND_DEF_STEREO_COUNT>
0
> <PUBCHEM_BOND_UDEF_STEREO_COUNT>
0
> <PUBCHEM_ISOTOPIC_ATOM_COUNT>
0
> <PUBCHEM_COMPONENT_COUNT>
1
> <PUBCHEM_CACTVS_TAUTO_COUNT>
-1
> <PUBCHEM_COORDINATE_TYPE>
1
5
255
> <PUBCHEM_BONDANNOTATIONS>
10  27  8
10  31  8
11  30  8
16  20  5
2  11  8
2  21  8
25  26  8
25  31  8
26  27  8
26  32  8
27  29  8
28  34  8
28  35  8
29  33  8
32  36  8
33  36  8
34  37  8
35  38  8
37  39  8
38  39  8
9  21  8
9  30  8
$$$$
