507948
  -OEChem-10302200282D
 75 80  0     1  0  0  0  0  0999 V2000
    2.8660    2.8423    0.0000 F   0  0  0  0  0  0  0  0  0  0  0  0
    2.9146   -7.9688    0.0000 O   0  0  0  0  0  0  0  0  0  0  0  0
    6.6353    2.0594    0.0000 O   0  0  0  0  0  0  0  0  0  0  0  0
    6.5422    7.3501    0.0000 O   0  0  0  0  0  0  0  0  0  0  0  0
    4.3211    3.3418    0.0000 O   0  0  0  0  0  0  0  0  0  0  0  0
    2.3660   -2.6966    0.0000 O   0  0  0  0  0  0  0  0  0  0  0  0
    6.2781    3.7543    0.0000 N   0  0  0  0  0  0  0  0  0  0  0  0
    6.8994    5.6553    0.0000 N   0  0  0  0  0  0  0  0  0  0  0  0
    3.7281   -6.1417    0.0000 N   0  0  0  0  0  0  0  0  0  0  0  0
    4.6783    0.0375    0.0000 N   0  0  0  0  0  0  0  0  0  0  0  0
    3.9538   -3.5056    0.0000 N   0  0  0  0  0  0  0  0  0  0  0  0
    3.6750   -1.7455    0.0000 N   0  0  0  0  0  0  0  0  0  0  0  0
    2.0570   -1.7455    0.0000 N   0  0  0  0  0  0  0  0  0  0  0  0
    7.2566    3.9605    0.0000 C   0  0  1  0  0  0  0  0  0  0  0  0
    7.5673    4.9110    0.0000 C   0  0  0  0  0  0  0  0  0  0  0  0
    5.6103    4.4986    0.0000 C   0  0  0  0  0  0  0  0  0  0  0  0
    5.9209    5.4491    0.0000 C   0  0  0  0  0  0  0  0  0  0  0  0
    7.9244    3.2162    0.0000 C   0  0  0  0  0  0  0  0  0  0  0  0
    5.9674    2.8037    0.0000 C   0  0  0  0  0  0  0  0  0  0  0  0
    7.2101    6.6058    0.0000 C   0  0  0  0  0  0  0  0  0  0  0  0
    4.9889    2.5975    0.0000 C   0  0  0  0  0  0  0  0  0  0  0  0
    2.7336   -6.2462    0.0000 C   0  0  0  0  0  0  0  0  0  0  0  0
    4.3159   -6.9507    0.0000 C   0  0  0  0  0  0  0  0  0  0  0  0
    8.1886    6.8120    0.0000 C   0  0  0  0  0  0  0  0  0  0  0  0
    4.6783    1.6470    0.0000 C   0  0  0  0  0  0  0  0  0  0  0  0
    4.1349   -5.2282    0.0000 C   0  0  0  0  0  0  0  0  0  0  0  0
    2.3269   -7.1598    0.0000 C   0  0  0  0  0  0  0  0  0  0  0  0
    3.9092   -7.8643    0.0000 C   0  0  0  0  0  0  0  0  0  0  0  0
    3.7320    1.3423    0.0000 C   0  0  0  0  0  0  0  0  0  0  0  0
    3.7320    0.3423    0.0000 C   0  0  0  0  0  0  0  0  0  0  0  0
    3.5471   -4.4191    0.0000 C   0  0  0  0  0  0  0  0  0  0  0  0
    5.2619    0.8423    0.0000 C   0  0  0  0  0  0  0  0  0  0  0  0
    2.8660   -0.1577    0.0000 C   0  0  0  0  0  0  0  0  0  0  0  0
    8.4993    7.7626    0.0000 C   0  0  0  0  0  0  0  0  0  0  0  0
    8.8564    6.0677    0.0000 C   0  0  0  0  0  0  0  0  0  0  0  0
    2.8660    1.8423    0.0000 C   0  0  0  0  0  0  0  0  0  0  0  0
    2.0000    0.3423    0.0000 C   0  0  0  0  0  0  0  0  0  0  0  0
    2.8660   -1.1577    0.0000 C   0  0  0  0  0  0  0  0  0  0  0  0
    2.0000    1.3423    0.0000 C   0  0  0  0  0  0  0  0  0  0  0  0
    3.3660   -2.6966    0.0000 C   0  0  0  0  0  0  0  0  0  0  0  0
    9.4778    7.9688    0.0000 C   0  0  0  0  0  0  0  0  0  0  0  0
    9.8349    6.2740    0.0000 C   0  0  0  0  0  0  0  0  0  0  0  0
   10.1456    7.2245    0.0000 C   0  0  0  0  0  0  0  0  0  0  0  0
    7.0640    3.3712    0.0000 H   0  0  0  0  0  0  0  0  0  0  0  0
    8.1142    4.6190    0.0000 H   0  0  0  0  0  0  0  0  0  0  0  0
    7.9498    5.3989    0.0000 H   0  0  0  0  0  0  0  0  0  0  0  0
    5.0633    4.7906    0.0000 H   0  0  0  0  0  0  0  0  0  0  0  0
    5.2277    4.0107    0.0000 H   0  0  0  0  0  0  0  0  0  0  0  0
    5.9004    6.0688    0.0000 H   0  0  0  0  0  0  0  0  0  0  0  0
    5.3071    5.5364    0.0000 H   0  0  0  0  0  0  0  0  0  0  0  0
    7.4630    2.8021    0.0000 H   0  0  0  0  0  0  0  0  0  0  0  0
    8.3385    2.7547    0.0000 H   0  0  0  0  0  0  0  0  0  0  0  0
    8.3859    3.6302    0.0000 H   0  0  0  0  0  0  0  0  0  0  0  0
    2.7768   -5.6277    0.0000 H   0  0  0  0  0  0  0  0  0  0  0  0
    2.1320   -6.0962    0.0000 H   0  0  0  0  0  0  0  0  0  0  0  0
    4.8299   -7.2974    0.0000 H   0  0  0  0  0  0  0  0  0  0  0  0
    4.7466   -6.5047    0.0000 H   0  0  0  0  0  0  0  0  0  0  0  0
    4.6489   -5.5748    0.0000 H   0  0  0  0  0  0  0  0  0  0  0  0
    4.5656   -4.7822    0.0000 H   0  0  0  0  0  0  0  0  0  0  0  0
    1.8129   -6.8131    0.0000 H   0  0  0  0  0  0  0  0  0  0  0  0
    1.8962   -7.6058    0.0000 H   0  0  0  0  0  0  0  0  0  0  0  0
    3.8659   -8.4828    0.0000 H   0  0  0  0  0  0  0  0  0  0  0  0
    4.5108   -8.0142    0.0000 H   0  0  0  0  0  0  0  0  0  0  0  0
    3.0331   -4.0724    0.0000 H   0  0  0  0  0  0  0  0  0  0  0  0
    3.1164   -4.8651    0.0000 H   0  0  0  0  0  0  0  0  0  0  0  0
    5.8819    0.8423    0.0000 H   0  0  0  0  0  0  0  0  0  0  0  0
    4.8709   -0.5518    0.0000 H   0  0  0  0  0  0  0  0  0  0  0  0
    8.0852    8.2240    0.0000 H   0  0  0  0  0  0  0  0  0  0  0  0
    8.6638    5.4784    0.0000 H   0  0  0  0  0  0  0  0  0  0  0  0
    4.5704   -3.4408    0.0000 H   0  0  0  0  0  0  0  0  0  0  0  0
    1.4631    0.0323    0.0000 H   0  0  0  0  0  0  0  0  0  0  0  0
    1.4631    1.6523    0.0000 H   0  0  0  0  0  0  0  0  0  0  0  0
    9.6704    8.5581    0.0000 H   0  0  0  0  0  0  0  0  0  0  0  0
   10.2490    5.8125    0.0000 H   0  0  0  0  0  0  0  0  0  0  0  0
   10.7523    7.3523    0.0000 H   0  0  0  0  0  0  0  0  0  0  0  0
  1 36  1  0  0  0  0
  2 27  1  0  0  0  0
  2 28  1  0  0  0  0
  3 19  2  0  0  0  0
  4 20  2  0  0  0  0
  5 21  2  0  0  0  0
  6 13  1  0  0  0  0
  6 40  1  0  0  0  0
  7 14  1  0  0  0  0
  7 16  1  0  0  0  0
  7 19  1  0  0  0  0
  8 15  1  0  0  0  0
  8 17  1  0  0  0  0
  8 20  1  0  0  0  0
  9 22  1  0  0  0  0
  9 23  1  0  0  0  0
  9 26  1  0  0  0  0
 10 30  1  0  0  0  0
 10 32  1  0  0  0  0
 10 67  1  0  0  0  0
 11 31  1  0  0  0  0
 11 40  1  0  0  0  0
 11 70  1  0  0  0  0
 12 38  1  0  0  0  0
 12 40  2  0  0  0  0
 13 38  2  0  0  0  0
 14 15  1  0  0  0  0
 14 18  1  1  0  0  0
 14 44  1  0  0  0  0
 15 45  1  0  0  0  0
 15 46  1  0  0  0  0
 16 17  1  0  0  0  0
 16 47  1  0  0  0  0
 16 48  1  0  0  0  0
 17 49  1  0  0  0  0
 17 50  1  0  0  0  0
 18 51  1  0  0  0  0
 18 52  1  0  0  0  0
 18 53  1  0  0  0  0
 19 21  1  0  0  0  0
 20 24  1  0  0  0  0
 21 25  1  0  0  0  0
 22 27  1  0  0  0  0
 22 54  1  0  0  0  0
 22 55  1  0  0  0  0
 23 28  1  0  0  0  0
 23 56  1  0  0  0  0
 23 57  1  0  0  0  0
 24 34  2  0  0  0  0
 24 35  1  0  0  0  0
 25 29  1  0  0  0  0
 25 32  2  0  0  0  0
 26 31  1  0  0  0  0
 26 58  1  0  0  0  0
 26 59  1  0  0  0  0
 27 60  1  0  0  0  0
 27 61  1  0  0  0  0
 28 62  1  0  0  0  0
 28 63  1  0  0  0  0
 29 30  1  0  0  0  0
 29 36  2  0  0  0  0
 30 33  2  0  0  0  0
 31 64  1  0  0  0  0
 31 65  1  0  0  0  0
 32 66  1  0  0  0  0
 33 37  1  0  0  0  0
 33 38  1  0  0  0  0
 34 41  1  0  0  0  0
 34 68  1  0  0  0  0
 35 42  2  0  0  0  0
 35 69  1  0  0  0  0
 36 39  1  0  0  0  0
 37 39  2  0  0  0  0
 37 71  1  0  0  0  0
 39 72  1  0  0  0  0
 41 43  2  0  0  0  0
 41 73  1  0  0  0  0
 42 43  1  0  0  0  0
 42 74  1  0  0  0  0
 43 75  1  0  0  0  0
M  END
> <PUBCHEM_COMPOUND_CID>
507948
> <PUBCHEM_COMPOUND_CANONICALIZED>
1
> <PUBCHEM_CACTVS_COMPLEXITY>
996
> <PUBCHEM_CACTVS_HBOND_ACCEPTOR>
10
> <PUBCHEM_CACTVS_HBOND_DONOR>
2
> <PUBCHEM_CACTVS_ROTATABLE_BOND>
8
> <PUBCHEM_CACTVS_SUBSKEYS>
AAADcfB7uQAAAAAAAAAAAAAAAAAAAWLAAAA8eIEAAAAAAFgB/AAAHwAUAAAADCzhnw4/0PfZlACpA7d3dgCCgCk1AKAp2aGoRNmKaPrA3bGXIYholwLYycccicCegAACAAACAAAAAAQAAAQAAAAAAAAAAA==
> <PUBCHEM_IUPAC_OPENEYE_NAME>
1-[(2R)-4-benzoyl-2-methyl-piperazin-1-yl]-2-[4-fluoro-7-[5-(2-morpholinoethylamino)-1,2,4-oxadiazol-3-yl]-1H-indol-3-yl]ethane-1,2-dione
> <PUBCHEM_IUPAC_CAS_NAME>
1-[(2R)-4-benzoyl-2-methyl-1-piperazinyl]-2-[4-fluoro-7-[5-[2-(4-morpholinyl)ethylamino]-1,2,4-oxadiazol-3-yl]-1H-indol-3-yl]ethane-1,2-dione
> <PUBCHEM_IUPAC_NAME_MARKUP>
1-[(2<I>R</I>)-4-benzoyl-2-methylpiperazin-1-yl]-2-[4-fluoro-7-[5-(2-morpholin-4-ylethylamino)-1,2,4-oxadiazol-3-yl]-1<I>H</I>-indol-3-yl]ethane-1,2-dione
> <PUBCHEM_IUPAC_NAME>
1-[(2R)-4-benzoyl-2-methylpiperazin-1-yl]-2-[4-fluoro-7-[5-(2-morpholin-4-ylethylamino)-1,2,4-oxadiazol-3-yl]-1H-indol-3-yl]ethane-1,2-dione
> <PUBCHEM_IUPAC_SYSTEMATIC_NAME>
1-[4-fluoranyl-7-[5-(2-morpholin-4-ylethylamino)-1,2,4-oxadiazol-3-yl]-1H-indol-3-yl]-2-[(2R)-2-methyl-4-(phenylcarbonyl)piperazin-1-yl]ethane-1,2-dione
> <PUBCHEM_IUPAC_TRADITIONAL_NAME>
1-[(2R)-4-benzoyl-2-methyl-piperazino]-2-[4-fluoro-7-[5-(2-morpholinoethylamino)-1,2,4-oxadiazol-3-yl]-1H-indol-3-yl]ethane-1,2-dione
> <PUBCHEM_IUPAC_INCHI>
InChI=1S/C30H32FN7O5/c1-19-18-37(28(40)20-5-3-2-4-6-20)11-12-38(19)29(41)26(39)22-17-33-25-21(7-8-23(31)24(22)25)27-34-30(43-35-27)32-9-10-36-13-15-42-16-14-36/h2-8,17,19,33H,9-16,18H2,1H3,(H,32,34,35)/t19-/m1/s1
> <PUBCHEM_IUPAC_INCHIKEY>
NGKUEAVDWVWBJI-LJQANCHMSA-N
> <PUBCHEM_XLOGP3_AA>
2.7
> <PUBCHEM_EXACT_MASS>
589.24489531
> <PUBCHEM_MOLECULAR_FORMULA>
C30H32FN7O5
> <PUBCHEM_MOLECULAR_WEIGHT>
589.6
> <PUBCHEM_OPENEYE_CAN_SMILES>
CC1CN(CCN1C(=O)C(=O)C2=CNC3=C(C=CC(=C23)F)C4=NOC(=N4)NCCN5CCOCC5)C(=O)C6=CC=CC=C6
> <PUBCHEM_OPENEYE_ISO_SMILES>
C[C@@H]1CN(CCN1C(=O)C(=O)C2=CNC3=C(C=CC(=C23)F)C4=NOC(=N4)NCCN5CCOCC5)C(=O)C6=CC=CC=C6
> <PUBCHEM_CACTVS_TPSA>
137
> <PUBCHEM_MONOISOTOPIC_WEIGHT>
589.24489531
> <PUBCHEM_TOTAL_CHARGE>
0
> <PUBCHEM_HEAVY_ATOM_COUNT>
43
> <PUBCHEM_ATOM_DEF_STEREO_COUNT>
1
> <PUBCHEM_ATOM_UDEF_STEREO_COUNT>
0
> <PUBCHEM_BOND_DEF_STEREO_COUNT>
0
> <PUBCHEM_BOND_UDEF_STEREO_COUNT>
0
> <PUBCHEM_ISOTOPIC_ATOM_COUNT>
0
> <PUBCHEM_COMPONENT_COUNT>
1
> <PUBCHEM_CACTVS_TAUTO_COUNT>
-1
> <PUBCHEM_COORDINATE_TYPE>
1
5
255
> <PUBCHEM_BONDANNOTATIONS>
10  30  8
10  32  8
12  38  8
12  40  8
13  38  8
14  18  5
24  34  8
24  35  8
25  29  8
25  32  8
29  30  8
29  36  8
30  33  8
33  37  8
34  41  8
35  42  8
36  39  8
37  39  8
41  43  8
42  43  8
6  13  8
6  40  8
$$$$
