507930
  -OEChem-10302200282D
 61 66  0     1  0  0  0  0  0999 V2000
    2.8660    1.1079    0.0000 F   0  0  0  0  0  0  0  0  0  0  0  0
    2.3660   -4.4309    0.0000 O   0  0  0  0  0  0  0  0  0  0  0  0
    6.6353    0.3251    0.0000 O   0  0  0  0  0  0  0  0  0  0  0  0
    6.5422    5.6158    0.0000 O   0  0  0  0  0  0  0  0  0  0  0  0
    4.3211    1.6075    0.0000 O   0  0  0  0  0  0  0  0  0  0  0  0
    6.2781    2.0199    0.0000 N   0  0  0  0  0  0  0  0  0  0  0  0
    6.8994    3.9210    0.0000 N   0  0  0  0  0  0  0  0  0  0  0  0
    3.6750   -3.4798    0.0000 N   0  0  0  0  0  0  0  0  0  0  0  0
    2.0570   -3.4798    0.0000 N   0  0  0  0  0  0  0  0  0  0  0  0
    4.6783   -1.6968    0.0000 N   0  0  0  0  0  0  0  0  0  0  0  0
    3.9538   -5.2399    0.0000 C   0  0  0  0  0  0  0  0  0  0  0  0
    4.0583   -6.2344    0.0000 C   0  0  0  0  0  0  0  0  0  0  0  0
    4.8674   -5.6467    0.0000 C   0  0  0  0  0  0  0  0  0  0  0  0
    3.3660   -4.4309    0.0000 C   0  0  0  0  0  0  0  0  0  0  0  0
    7.2566    2.2262    0.0000 C   0  0  1  0  0  0  0  0  0  0  0  0
    7.5673    3.1767    0.0000 C   0  0  0  0  0  0  0  0  0  0  0  0
    5.6103    2.7642    0.0000 C   0  0  0  0  0  0  0  0  0  0  0  0
    5.9209    3.7148    0.0000 C   0  0  0  0  0  0  0  0  0  0  0  0
    7.9244    1.4818    0.0000 C   0  0  0  0  0  0  0  0  0  0  0  0
    5.9674    1.0694    0.0000 C   0  0  0  0  0  0  0  0  0  0  0  0
    2.8660   -2.8921    0.0000 C   0  0  0  0  0  0  0  0  0  0  0  0
    7.2101    4.8715    0.0000 C   0  0  0  0  0  0  0  0  0  0  0  0
    2.8660   -1.8921    0.0000 C   0  0  0  0  0  0  0  0  0  0  0  0
    3.7320   -1.3921    0.0000 C   0  0  0  0  0  0  0  0  0  0  0  0
    4.9889    0.8632    0.0000 C   0  0  0  0  0  0  0  0  0  0  0  0
    4.6783   -0.0873    0.0000 C   0  0  0  0  0  0  0  0  0  0  0  0
    3.7320   -0.3921    0.0000 C   0  0  0  0  0  0  0  0  0  0  0  0
    8.1886    5.0777    0.0000 C   0  0  0  0  0  0  0  0  0  0  0  0
    5.2619   -0.8921    0.0000 C   0  0  0  0  0  0  0  0  0  0  0  0
    2.0000   -1.3921    0.0000 C   0  0  0  0  0  0  0  0  0  0  0  0
    2.8660    0.1079    0.0000 C   0  0  0  0  0  0  0  0  0  0  0  0
    2.0000   -0.3921    0.0000 C   0  0  0  0  0  0  0  0  0  0  0  0
    8.4993    6.0282    0.0000 C   0  0  0  0  0  0  0  0  0  0  0  0
    8.8564    4.3334    0.0000 C   0  0  0  0  0  0  0  0  0  0  0  0
    9.4778    6.2344    0.0000 C   0  0  0  0  0  0  0  0  0  0  0  0
    9.8349    4.5396    0.0000 C   0  0  0  0  0  0  0  0  0  0  0  0
   10.1456    5.4901    0.0000 C   0  0  0  0  0  0  0  0  0  0  0  0
    4.3440   -4.7581    0.0000 H   0  0  0  0  0  0  0  0  0  0  0  0
    3.4624   -6.4053    0.0000 H   0  0  0  0  0  0  0  0  0  0  0  0
    4.3301   -6.7917    0.0000 H   0  0  0  0  0  0  0  0  0  0  0  0
    5.3134   -6.0774    0.0000 H   0  0  0  0  0  0  0  0  0  0  0  0
    5.2141   -5.1327    0.0000 H   0  0  0  0  0  0  0  0  0  0  0  0
    7.0640    1.6368    0.0000 H   0  0  0  0  0  0  0  0  0  0  0  0
    8.1142    2.8846    0.0000 H   0  0  0  0  0  0  0  0  0  0  0  0
    7.9498    3.6646    0.0000 H   0  0  0  0  0  0  0  0  0  0  0  0
    5.0633    3.0562    0.0000 H   0  0  0  0  0  0  0  0  0  0  0  0
    5.2277    2.2763    0.0000 H   0  0  0  0  0  0  0  0  0  0  0  0
    5.9004    4.3344    0.0000 H   0  0  0  0  0  0  0  0  0  0  0  0
    5.3071    3.8021    0.0000 H   0  0  0  0  0  0  0  0  0  0  0  0
    7.4630    1.0678    0.0000 H   0  0  0  0  0  0  0  0  0  0  0  0
    8.3385    1.0204    0.0000 H   0  0  0  0  0  0  0  0  0  0  0  0
    8.3859    1.8959    0.0000 H   0  0  0  0  0  0  0  0  0  0  0  0
    4.8709   -2.2861    0.0000 H   0  0  0  0  0  0  0  0  0  0  0  0
    5.8819   -0.8921    0.0000 H   0  0  0  0  0  0  0  0  0  0  0  0
    1.4631   -1.7021    0.0000 H   0  0  0  0  0  0  0  0  0  0  0  0
    1.4631   -0.0821    0.0000 H   0  0  0  0  0  0  0  0  0  0  0  0
    8.0852    6.4897    0.0000 H   0  0  0  0  0  0  0  0  0  0  0  0
    8.6638    3.7441    0.0000 H   0  0  0  0  0  0  0  0  0  0  0  0
    9.6704    6.8238    0.0000 H   0  0  0  0  0  0  0  0  0  0  0  0
   10.2490    4.0782    0.0000 H   0  0  0  0  0  0  0  0  0  0  0  0
   10.7523    5.6180    0.0000 H   0  0  0  0  0  0  0  0  0  0  0  0
  1 31  1  0  0  0  0
  2  9  1  0  0  0  0
  2 14  1  0  0  0  0
  3 20  2  0  0  0  0
  4 22  2  0  0  0  0
  5 25  2  0  0  0  0
  6 15  1  0  0  0  0
  6 17  1  0  0  0  0
  6 20  1  0  0  0  0
  7 16  1  0  0  0  0
  7 18  1  0  0  0  0
  7 22  1  0  0  0  0
  8 14  2  0  0  0  0
  8 21  1  0  0  0  0
  9 21  2  0  0  0  0
 10 24  1  0  0  0  0
 10 29  1  0  0  0  0
 10 53  1  0  0  0  0
 11 12  1  0  0  0  0
 11 13  1  0  0  0  0
 11 14  1  0  0  0  0
 11 38  1  0  0  0  0
 12 13  1  0  0  0  0
 12 39  1  0  0  0  0
 12 40  1  0  0  0  0
 13 41  1  0  0  0  0
 13 42  1  0  0  0  0
 15 16  1  0  0  0  0
 15 19  1  1  0  0  0
 15 43  1  0  0  0  0
 16 44  1  0  0  0  0
 16 45  1  0  0  0  0
 17 18  1  0  0  0  0
 17 46  1  0  0  0  0
 17 47  1  0  0  0  0
 18 48  1  0  0  0  0
 18 49  1  0  0  0  0
 19 50  1  0  0  0  0
 19 51  1  0  0  0  0
 19 52  1  0  0  0  0
 20 25  1  0  0  0  0
 21 23  1  0  0  0  0
 22 28  1  0  0  0  0
 23 24  2  0  0  0  0
 23 30  1  0  0  0  0
 24 27  1  0  0  0  0
 25 26  1  0  0  0  0
 26 27  1  0  0  0  0
 26 29  2  0  0  0  0
 27 31  2  0  0  0  0
 28 33  2  0  0  0  0
 28 34  1  0  0  0  0
 29 54  1  0  0  0  0
 30 32  2  0  0  0  0
 30 55  1  0  0  0  0
 31 32  1  0  0  0  0
 32 56  1  0  0  0  0
 33 35  1  0  0  0  0
 33 57  1  0  0  0  0
 34 36  2  0  0  0  0
 34 58  1  0  0  0  0
 35 37  2  0  0  0  0
 35 59  1  0  0  0  0
 36 37  1  0  0  0  0
 36 60  1  0  0  0  0
 37 61  1  0  0  0  0
M  END
> <PUBCHEM_COMPOUND_CID>
507930
> <PUBCHEM_COMPOUND_CANONICALIZED>
1
> <PUBCHEM_CACTVS_COMPLEXITY>
896
> <PUBCHEM_CACTVS_HBOND_ACCEPTOR>
7
> <PUBCHEM_CACTVS_HBOND_DONOR>
1
> <PUBCHEM_CACTVS_ROTATABLE_BOND>
5
> <PUBCHEM_CACTVS_SUBSKEYS>
AAADceB7uQAAAAAAAAAAAAAAGAAAAWLAAAA8YIAAAAAAAFgB/AAAHwAUAAAADSzBnww/0PfZkACpA7d3dgCCgCk1AKAp2aG4RNiIaPrA3bGUIYhkhwLIycccicCegAACAAACAAAAAAQAAAQAAAAAAAAAAA==
> <PUBCHEM_IUPAC_OPENEYE_NAME>
1-[(2R)-4-benzoyl-2-methyl-piperazin-1-yl]-2-[7-(5-cyclopropyl-1,2,4-oxadiazol-3-yl)-4-fluoro-1H-indol-3-yl]ethane-1,2-dione
> <PUBCHEM_IUPAC_CAS_NAME>
1-[(2R)-4-benzoyl-2-methyl-1-piperazinyl]-2-[7-(5-cyclopropyl-1,2,4-oxadiazol-3-yl)-4-fluoro-1H-indol-3-yl]ethane-1,2-dione
> <PUBCHEM_IUPAC_NAME_MARKUP>
1-[(2<I>R</I>)-4-benzoyl-2-methylpiperazin-1-yl]-2-[7-(5-cyclopropyl-1,2,4-oxadiazol-3-yl)-4-fluoro-1<I>H</I>-indol-3-yl]ethane-1,2-dione
> <PUBCHEM_IUPAC_NAME>
1-[(2R)-4-benzoyl-2-methylpiperazin-1-yl]-2-[7-(5-cyclopropyl-1,2,4-oxadiazol-3-yl)-4-fluoro-1H-indol-3-yl]ethane-1,2-dione
> <PUBCHEM_IUPAC_SYSTEMATIC_NAME>
1-[7-(5-cyclopropyl-1,2,4-oxadiazol-3-yl)-4-fluoranyl-1H-indol-3-yl]-2-[(2R)-2-methyl-4-(phenylcarbonyl)piperazin-1-yl]ethane-1,2-dione
> <PUBCHEM_IUPAC_TRADITIONAL_NAME>
1-[(2R)-4-benzoyl-2-methyl-piperazino]-2-[7-(5-cyclopropyl-1,2,4-oxadiazol-3-yl)-4-fluoro-1H-indol-3-yl]ethane-1,2-dione
> <PUBCHEM_IUPAC_INCHI>
InChI=1S/C27H24FN5O4/c1-15-14-32(26(35)17-5-3-2-4-6-17)11-12-33(15)27(36)23(34)19-13-29-22-18(9-10-20(28)21(19)22)24-30-25(37-31-24)16-7-8-16/h2-6,9-10,13,15-16,29H,7-8,11-12,14H2,1H3/t15-/m1/s1
> <PUBCHEM_IUPAC_INCHIKEY>
RFSSZXAYBMMZHP-OAHLLOKOSA-N
> <PUBCHEM_XLOGP3_AA>
3.3
> <PUBCHEM_EXACT_MASS>
501.18123243
> <PUBCHEM_MOLECULAR_FORMULA>
C27H24FN5O4
> <PUBCHEM_MOLECULAR_WEIGHT>
501.5
> <PUBCHEM_OPENEYE_CAN_SMILES>
CC1CN(CCN1C(=O)C(=O)C2=CNC3=C(C=CC(=C23)F)C4=NOC(=N4)C5CC5)C(=O)C6=CC=CC=C6
> <PUBCHEM_OPENEYE_ISO_SMILES>
C[C@@H]1CN(CCN1C(=O)C(=O)C2=CNC3=C(C=CC(=C23)F)C4=NOC(=N4)C5CC5)C(=O)C6=CC=CC=C6
> <PUBCHEM_CACTVS_TPSA>
112
> <PUBCHEM_MONOISOTOPIC_WEIGHT>
501.18123243
> <PUBCHEM_TOTAL_CHARGE>
0
> <PUBCHEM_HEAVY_ATOM_COUNT>
37
> <PUBCHEM_ATOM_DEF_STEREO_COUNT>
1
> <PUBCHEM_ATOM_UDEF_STEREO_COUNT>
0
> <PUBCHEM_BOND_DEF_STEREO_COUNT>
0
> <PUBCHEM_BOND_UDEF_STEREO_COUNT>
0
> <PUBCHEM_ISOTOPIC_ATOM_COUNT>
0
> <PUBCHEM_COMPONENT_COUNT>
1
> <PUBCHEM_CACTVS_TAUTO_COUNT>
-1
> <PUBCHEM_COORDINATE_TYPE>
1
5
255
> <PUBCHEM_BONDANNOTATIONS>
10  24  8
10  29  8
15  19  5
2  14  8
2  9  8
23  24  8
23  30  8
24  27  8
26  27  8
26  29  8
27  31  8
28  33  8
28  34  8
30  32  8
31  32  8
33  35  8
34  36  8
35  37  8
36  37  8
8  14  8
8  21  8
9  21  8
$$$$
