508030
  -OEChem-10302200282D
 53 55  0     1  0  0  0  0  0999 V2000
    7.4260    0.3103    0.0000 O   0  0  0  0  0  0  0  0  0  0  0  0
    3.9061    0.3103    0.0000 O   0  0  0  0  0  0  0  0  0  0  0  0
    5.6660    3.3450    0.0000 O   0  0  0  0  0  0  0  0  0  0  0  0
    7.4144    3.3796    0.0000 O   0  0  0  0  0  0  0  0  0  0  0  0
    3.9340   -2.6550    0.0000 O   0  0  0  0  0  0  0  0  0  0  0  0
    5.6660   -2.6550    0.0000 O   0  0  0  0  0  0  0  0  0  0  0  0
    5.6660    0.3450    0.0000 C   0  0  0  0  0  0  0  0  0  0  0  0
    8.3321    1.8658    0.0000 C   0  0  1  0  0  0  0  0  0  0  0  0
    8.3321    0.8242    0.0000 C   0  0  2  0  0  0  0  0  0  0  0  0
    6.5320    0.8450    0.0000 C   0  0  0  0  0  0  0  0  0  0  0  0
    5.6660   -0.6550    0.0000 C   0  0  3  0  0  0  0  0  0  0  0  0
    6.5320    1.8450    0.0000 C   0  0  0  0  0  0  0  0  0  0  0  0
    4.8000    0.8450    0.0000 C   0  0  0  0  0  0  0  0  0  0  0  0
    4.8000    1.8450    0.0000 C   0  0  0  0  0  0  0  0  0  0  0  0
    7.4260    2.3797    0.0000 C   0  0  0  0  0  0  0  0  0  0  0  0
    3.0000    0.8242    0.0000 C   0  0  0  0  0  0  0  0  0  0  0  0
    5.6660    2.3450    0.0000 C   0  0  0  0  0  0  0  0  0  0  0  0
    4.8000   -1.1550    0.0000 C   0  0  0  0  0  0  0  0  0  0  0  0
    9.1962    2.3692    0.0000 C   0  0  0  0  0  0  0  0  0  0  0  0
    9.1962    0.3209    0.0000 C   0  0  0  0  0  0  0  0  0  0  0  0
    3.9061    2.3797    0.0000 C   0  0  0  0  0  0  0  0  0  0  0  0
    3.0000    1.8658    0.0000 C   0  0  0  0  0  0  0  0  0  0  0  0
    6.5320   -1.1550    0.0000 C   0  0  0  0  0  0  0  0  0  0  0  0
    2.0000    0.8203    0.0000 C   0  0  0  0  0  0  0  0  0  0  0  0
    2.5033   -0.0438    0.0000 C   0  0  0  0  0  0  0  0  0  0  0  0
    4.8000   -2.1550    0.0000 C   0  0  0  0  0  0  0  0  0  0  0  0
    3.9340   -3.6550    0.0000 C   0  0  0  0  0  0  0  0  0  0  0  0
    8.8696    1.5568    0.0000 H   0  0  0  0  0  0  0  0  0  0  0  0
    8.3285    0.2042    0.0000 H   0  0  0  0  0  0  0  0  0  0  0  0
    6.2030   -0.3450    0.0000 H   0  0  0  0  0  0  0  0  0  0  0  0
    4.5880   -0.5724    0.0000 H   0  0  0  0  0  0  0  0  0  0  0  0
    4.1894   -1.2627    0.0000 H   0  0  0  0  0  0  0  0  0  0  0  0
    9.5082    1.8334    0.0000 H   0  0  0  0  0  0  0  0  0  0  0  0
    9.7319    2.6812    0.0000 H   0  0  0  0  0  0  0  0  0  0  0  0
    8.8841    2.9049    0.0000 H   0  0  0  0  0  0  0  0  0  0  0  0
    8.8841   -0.2149    0.0000 H   0  0  0  0  0  0  0  0  0  0  0  0
    9.7319    0.0088    0.0000 H   0  0  0  0  0  0  0  0  0  0  0  0
    9.5082    0.8566    0.0000 H   0  0  0  0  0  0  0  0  0  0  0  0
    3.9132    2.9996    0.0000 H   0  0  0  0  0  0  0  0  0  0  0  0
    2.4643    2.1779    0.0000 H   0  0  0  0  0  0  0  0  0  0  0  0
    6.2220   -1.6919    0.0000 H   0  0  0  0  0  0  0  0  0  0  0  0
    7.0690   -1.4650    0.0000 H   0  0  0  0  0  0  0  0  0  0  0  0
    6.8420   -0.6181    0.0000 H   0  0  0  0  0  0  0  0  0  0  0  0
    1.9976    1.4403    0.0000 H   0  0  0  0  0  0  0  0  0  0  0  0
    1.3800    0.8179    0.0000 H   0  0  0  0  0  0  0  0  0  0  0  0
    2.0024    0.2003    0.0000 H   0  0  0  0  0  0  0  0  0  0  0  0
    1.9652    0.2642    0.0000 H   0  0  0  0  0  0  0  0  0  0  0  0
    2.1954   -0.5819    0.0000 H   0  0  0  0  0  0  0  0  0  0  0  0
    3.0415   -0.3517    0.0000 H   0  0  0  0  0  0  0  0  0  0  0  0
    5.1291    3.6550    0.0000 H   0  0  0  0  0  0  0  0  0  0  0  0
    3.3140   -3.6550    0.0000 H   0  0  0  0  0  0  0  0  0  0  0  0
    3.9340   -4.2750    0.0000 H   0  0  0  0  0  0  0  0  0  0  0  0
    4.5540   -3.6550    0.0000 H   0  0  0  0  0  0  0  0  0  0  0  0
  1  9  1  0  0  0  0
  1 10  1  0  0  0  0
  2 13  1  0  0  0  0
  2 16  1  0  0  0  0
  3 17  1  0  0  0  0
  3 50  1  0  0  0  0
  4 15  2  0  0  0  0
  5 26  1  0  0  0  0
  5 27  1  0  0  0  0
  6 26  2  0  0  0  0
  7 10  1  0  0  0  0
  7 11  1  0  0  0  0
  7 13  2  0  0  0  0
  8  9  1  0  0  0  0
  8 15  1  0  0  0  0
  8 19  1  1  0  0  0
  8 28  1  0  0  0  0
  9 20  1  6  0  0  0
  9 29  1  0  0  0  0
 10 12  2  0  0  0  0
 11 18  1  0  0  0  0
 11 23  1  0  0  0  0
 11 30  1  0  0  0  0
 12 15  1  0  0  0  0
 12 17  1  0  0  0  0
 13 14  1  0  0  0  0
 14 17  2  0  0  0  0
 14 21  1  0  0  0  0
 16 22  1  0  0  0  0
 16 24  1  0  0  0  0
 16 25  1  0  0  0  0
 18 26  1  0  0  0  0
 18 31  1  0  0  0  0
 18 32  1  0  0  0  0
 19 33  1  0  0  0  0
 19 34  1  0  0  0  0
 19 35  1  0  0  0  0
 20 36  1  0  0  0  0
 20 37  1  0  0  0  0
 20 38  1  0  0  0  0
 21 22  2  0  0  0  0
 21 39  1  0  0  0  0
 22 40  1  0  0  0  0
 23 41  1  0  0  0  0
 23 42  1  0  0  0  0
 23 43  1  0  0  0  0
 24 44  1  0  0  0  0
 24 45  1  0  0  0  0
 24 46  1  0  0  0  0
 25 47  1  0  0  0  0
 25 48  1  0  0  0  0
 25 49  1  0  0  0  0
 27 51  1  0  0  0  0
 27 52  1  0  0  0  0
 27 53  1  0  0  0  0
M  END
> <PUBCHEM_COMPOUND_CID>
508030
> <PUBCHEM_COMPOUND_CANONICALIZED>
1
> <PUBCHEM_CACTVS_COMPLEXITY>
626
> <PUBCHEM_CACTVS_HBOND_ACCEPTOR>
6
> <PUBCHEM_CACTVS_HBOND_DONOR>
1
> <PUBCHEM_CACTVS_ROTATABLE_BOND>
4
> <PUBCHEM_CACTVS_SUBSKEYS>
AAADceB4OAAAAAAAAAAAAAAAAAAAAAAAAAA0QIAAAAAAAACRAAAAGgAACAAADVSgmAICDoAABgCIAqDSCAACCAAkIAAIiAEECMgMJzaGNBqCeWCl4BUIuQeI7PzOoAACCAAIAABAAAQQABAAAAAAAAAAAA==
> <PUBCHEM_IUPAC_OPENEYE_NAME>
methyl 3-[(7S,8S)-5-hydroxy-2,2,7,8-tetramethyl-6-oxo-7,8-dihydropyrano[3,2-g]chromen-10-yl]butanoate
> <PUBCHEM_IUPAC_CAS_NAME>
3-[(7S,8S)-5-hydroxy-2,2,7,8-tetramethyl-6-oxo-7,8-dihydropyrano[3,2-g][1]benzopyran-10-yl]butanoic acid methyl ester
> <PUBCHEM_IUPAC_NAME_MARKUP>
methyl 3-[(7<I>S</I>,8<I>S</I>)-5-hydroxy-2,2,7,8-tetramethyl-6-oxo-7,8-dihydropyrano[3,2-g]chromen-10-yl]butanoate
> <PUBCHEM_IUPAC_NAME>
methyl 3-[(7S,8S)-5-hydroxy-2,2,7,8-tetramethyl-6-oxo-7,8-dihydropyrano[3,2-g]chromen-10-yl]butanoate
> <PUBCHEM_IUPAC_SYSTEMATIC_NAME>
methyl 3-[(7S,8S)-2,2,7,8-tetramethyl-5-oxidanyl-6-oxidanylidene-7,8-dihydropyrano[3,2-g]chromen-10-yl]butanoate
> <PUBCHEM_IUPAC_TRADITIONAL_NAME>
3-[(7S,8S)-5-hydroxy-6-keto-2,2,7,8-tetramethyl-7,8-dihydropyrano[3,2-g]chromen-10-yl]butyric acid methyl ester
> <PUBCHEM_IUPAC_INCHI>
InChI=1S/C21H26O6/c1-10(9-14(22)25-6)15-19-13(7-8-21(4,5)27-19)18(24)16-17(23)11(2)12(3)26-20(15)16/h7-8,10-12,24H,9H2,1-6H3/t10?,11-,12-/m0/s1
> <PUBCHEM_IUPAC_INCHIKEY>
XTKUXKSLSNDPOT-RAMGSTBQSA-N
> <PUBCHEM_XLOGP3_AA>
3.9
> <PUBCHEM_EXACT_MASS>
374.17293854
> <PUBCHEM_MOLECULAR_FORMULA>
C21H26O6
> <PUBCHEM_MOLECULAR_WEIGHT>
374.4
> <PUBCHEM_OPENEYE_CAN_SMILES>
CC1C(OC2=C(C1=O)C(=C3C=CC(OC3=C2C(C)CC(=O)OC)(C)C)O)C
> <PUBCHEM_OPENEYE_ISO_SMILES>
C[C@H]1[C@@H](OC2=C(C1=O)C(=C3C=CC(OC3=C2C(C)CC(=O)OC)(C)C)O)C
> <PUBCHEM_CACTVS_TPSA>
82.1
> <PUBCHEM_MONOISOTOPIC_WEIGHT>
374.17293854
> <PUBCHEM_TOTAL_CHARGE>
0
> <PUBCHEM_HEAVY_ATOM_COUNT>
27
> <PUBCHEM_ATOM_DEF_STEREO_COUNT>
2
> <PUBCHEM_ATOM_UDEF_STEREO_COUNT>
1
> <PUBCHEM_BOND_DEF_STEREO_COUNT>
0
> <PUBCHEM_BOND_UDEF_STEREO_COUNT>
0
> <PUBCHEM_ISOTOPIC_ATOM_COUNT>
0
> <PUBCHEM_COMPONENT_COUNT>
1
> <PUBCHEM_CACTVS_TAUTO_COUNT>
-1
> <PUBCHEM_COORDINATE_TYPE>
1
5
255
> <PUBCHEM_BONDANNOTATIONS>
10  12  8
11  23  3
12  17  8
13  14  8
14  17  8
7  10  8
7  13  8
8  19  5
9  20  6
$$$$
