508066
  -OEChem-10302200282D
 54 55  0     1  0  0  0  0  0999 V2000
    8.7215    1.0481    0.0000 O   0  0  0  0  0  0  0  0  0  0  0  0
    4.5700    1.4436    0.0000 O   0  0  0  0  0  0  0  0  0  0  0  0
    9.2492    3.3488    0.0000 O   0  0  0  0  0  0  0  0  0  0  0  0
    7.1962   -3.3352    0.0000 O   0  0  0  0  0  0  0  0  0  0  0  0
    5.4641   -3.3352    0.0000 O   0  0  0  0  0  0  0  0  0  0  0  0
    6.3301    1.1648    0.0000 N   0  0  0  0  0  0  0  0  0  0  0  0
    4.5981    0.1648    0.0000 N   0  0  0  0  0  0  0  0  0  0  0  0
    7.1391    1.7526    0.0000 C   0  0  3  0  0  0  0  0  0  0  0  0
    6.8301    2.7036    0.0000 C   0  0  0  0  0  0  0  0  0  0  0  0
    8.0902    2.0616    0.0000 C   0  0  0  0  0  0  0  0  0  0  0  0
    5.8301    2.7036    0.0000 C   0  0  0  0  0  0  0  0  0  0  0  0
    7.7269    0.9436    0.0000 C   0  0  0  0  0  0  0  0  0  0  0  0
    5.5211    1.7526    0.0000 C   0  0  0  0  0  0  0  0  0  0  0  0
    6.3301    0.1648    0.0000 C   0  0  0  0  0  0  0  0  0  0  0  0
    8.2981    3.0397    0.0000 C   0  0  0  0  0  0  0  0  0  0  0  0
    5.4641   -0.3352    0.0000 C   0  0  0  0  0  0  0  0  0  0  0  0
    7.1962   -0.3352    0.0000 C   0  0  0  0  0  0  0  0  0  0  0  0
    3.7320   -0.3352    0.0000 C   0  0  0  0  0  0  0  0  0  0  0  0
    5.4641   -1.3352    0.0000 C   0  0  0  0  0  0  0  0  0  0  0  0
    7.1962   -1.3352    0.0000 C   0  0  0  0  0  0  0  0  0  0  0  0
    2.8660    0.1648    0.0000 C   0  0  0  0  0  0  0  0  0  0  0  0
    3.7320   -1.3352    0.0000 C   0  0  0  0  0  0  0  0  0  0  0  0
    6.3301   -1.8352    0.0000 C   0  0  0  0  0  0  0  0  0  0  0  0
    2.0000   -0.3352    0.0000 C   0  0  0  0  0  0  0  0  0  0  0  0
    2.8660   -1.8352    0.0000 C   0  0  0  0  0  0  0  0  0  0  0  0
    6.3301   -2.8352    0.0000 C   0  0  0  0  0  0  0  0  0  0  0  0
    7.4366    2.8325    0.0000 H   0  0  0  0  0  0  0  0  0  0  0  0
    6.7653    3.3202    0.0000 H   0  0  0  0  0  0  0  0  0  0  0  0
    8.1765    1.4476    0.0000 H   0  0  0  0  0  0  0  0  0  0  0  0
    8.7098    2.0400    0.0000 H   0  0  0  0  0  0  0  0  0  0  0  0
    5.8949    3.3202    0.0000 H   0  0  0  0  0  0  0  0  0  0  0  0
    5.2237    2.8325    0.0000 H   0  0  0  0  0  0  0  0  0  0  0  0
    7.1697    0.6718    0.0000 H   0  0  0  0  0  0  0  0  0  0  0  0
    7.8978    0.3476    0.0000 H   0  0  0  0  0  0  0  0  0  0  0  0
    8.2118    3.6537    0.0000 H   0  0  0  0  0  0  0  0  0  0  0  0
    7.6785    3.0614    0.0000 H   0  0  0  0  0  0  0  0  0  0  0  0
    7.7331   -0.0252    0.0000 H   0  0  0  0  0  0  0  0  0  0  0  0
    3.7320    0.2848    0.0000 H   0  0  0  0  0  0  0  0  0  0  0  0
    9.0859    0.5465    0.0000 H   0  0  0  0  0  0  0  0  0  0  0  0
    4.5981    0.7848    0.0000 H   0  0  0  0  0  0  0  0  0  0  0  0
    4.9272   -1.6452    0.0000 H   0  0  0  0  0  0  0  0  0  0  0  0
    7.7331   -1.6452    0.0000 H   0  0  0  0  0  0  0  0  0  0  0  0
    3.2646    0.6397    0.0000 H   0  0  0  0  0  0  0  0  0  0  0  0
    2.4675    0.6397    0.0000 H   0  0  0  0  0  0  0  0  0  0  0  0
    3.9441   -1.9178    0.0000 H   0  0  0  0  0  0  0  0  0  0  0  0
    4.3426   -1.2276    0.0000 H   0  0  0  0  0  0  0  0  0  0  0  0
    9.3781    3.9552    0.0000 H   0  0  0  0  0  0  0  0  0  0  0  0
    1.6900    0.2017    0.0000 H   0  0  0  0  0  0  0  0  0  0  0  0
    1.4631   -0.6452    0.0000 H   0  0  0  0  0  0  0  0  0  0  0  0
    2.3100   -0.8721    0.0000 H   0  0  0  0  0  0  0  0  0  0  0  0
    2.5560   -1.2983    0.0000 H   0  0  0  0  0  0  0  0  0  0  0  0
    2.3291   -2.1452    0.0000 H   0  0  0  0  0  0  0  0  0  0  0  0
    3.1760   -2.3721    0.0000 H   0  0  0  0  0  0  0  0  0  0  0  0
    7.1962   -3.9552    0.0000 H   0  0  0  0  0  0  0  0  0  0  0  0
  1 12  1  0  0  0  0
  1 39  1  0  0  0  0
  2 13  2  0  0  0  0
  3 15  1  0  0  0  0
  3 47  1  0  0  0  0
  4 26  1  0  0  0  0
  4 54  1  0  0  0  0
  5 26  2  0  0  0  0
  6  8  1  0  0  0  0
  6 13  1  0  0  0  0
  6 14  1  0  0  0  0
  7 16  1  0  0  0  0
  7 18  1  0  0  0  0
  7 40  1  0  0  0  0
  8  9  1  0  0  0  0
  8 10  1  0  0  0  0
  8 12  1  0  0  0  0
  9 11  1  0  0  0  0
  9 27  1  0  0  0  0
  9 28  1  0  0  0  0
 10 15  1  0  0  0  0
 10 29  1  0  0  0  0
 10 30  1  0  0  0  0
 11 13  1  0  0  0  0
 11 31  1  0  0  0  0
 11 32  1  0  0  0  0
 12 33  1  0  0  0  0
 12 34  1  0  0  0  0
 14 16  2  0  0  0  0
 14 17  1  0  0  0  0
 15 35  1  0  0  0  0
 15 36  1  0  0  0  0
 16 19  1  0  0  0  0
 17 20  2  0  0  0  0
 17 37  1  0  0  0  0
 18 21  1  0  0  0  0
 18 22  1  0  0  0  0
 18 38  1  0  0  0  0
 19 23  2  0  0  0  0
 19 41  1  0  0  0  0
 20 23  1  0  0  0  0
 20 42  1  0  0  0  0
 21 24  1  0  0  0  0
 21 43  1  0  0  0  0
 21 44  1  0  0  0  0
 22 25  1  0  0  0  0
 22 45  1  0  0  0  0
 22 46  1  0  0  0  0
 23 26  1  0  0  0  0
 24 48  1  0  0  0  0
 24 49  1  0  0  0  0
 24 50  1  0  0  0  0
 25 51  1  0  0  0  0
 25 52  1  0  0  0  0
 25 53  1  0  0  0  0
M  END
> <PUBCHEM_COMPOUND_CID>
508066
> <PUBCHEM_COMPOUND_CANONICALIZED>
1
> <PUBCHEM_CACTVS_COMPLEXITY>
496
> <PUBCHEM_CACTVS_HBOND_ACCEPTOR>
6
> <PUBCHEM_CACTVS_HBOND_DONOR>
4
> <PUBCHEM_CACTVS_ROTATABLE_BOND>
9
> <PUBCHEM_CACTVS_SUBSKEYS>
AAADceB7OAAAAAAAAAAAAAAAAAAAAWAAAAAwAAAAAAAAAAABAAAAHgAQCAAADKjhmAYyyIPAAgCIAiXSWACCAAAlAgAIiIEIfMgKdjLAlZGUcQhm1AHY2Yf83SOeCAAAQAAAACAQAACAAAAAQAAAAAAAAA==
> <PUBCHEM_IUPAC_OPENEYE_NAME>
3-(1-ethylpropylamino)-4-[2-(2-hydroxyethyl)-2-(hydroxymethyl)-5-oxo-pyrrolidin-1-yl]benzoic acid
> <PUBCHEM_IUPAC_CAS_NAME>
4-[2-(2-hydroxyethyl)-2-(hydroxymethyl)-5-oxo-1-pyrrolidinyl]-3-(pentan-3-ylamino)benzoic acid
> <PUBCHEM_IUPAC_NAME_MARKUP>
4-[2-(2-hydroxyethyl)-2-(hydroxymethyl)-5-oxopyrrolidin-1-yl]-3-(pentan-3-ylamino)benzoic acid
> <PUBCHEM_IUPAC_NAME>
4-[2-(2-hydroxyethyl)-2-(hydroxymethyl)-5-oxopyrrolidin-1-yl]-3-(pentan-3-ylamino)benzoic acid
> <PUBCHEM_IUPAC_SYSTEMATIC_NAME>
4-[2-(2-hydroxyethyl)-2-(hydroxymethyl)-5-oxidanylidene-pyrrolidin-1-yl]-3-(pentan-3-ylamino)benzoic acid
> <PUBCHEM_IUPAC_TRADITIONAL_NAME>
3-(1-ethylpropylamino)-4-[2-(2-hydroxyethyl)-5-keto-2-methylol-pyrrolidino]benzoic acid
> <PUBCHEM_IUPAC_INCHI>
InChI=1S/C19H28N2O5/c1-3-14(4-2)20-15-11-13(18(25)26)5-6-16(15)21-17(24)7-8-19(21,12-23)9-10-22/h5-6,11,14,20,22-23H,3-4,7-10,12H2,1-2H3,(H,25,26)
> <PUBCHEM_IUPAC_INCHIKEY>
OFMFCWIIQBCVLN-UHFFFAOYSA-N
> <PUBCHEM_XLOGP3_AA>
1.6
> <PUBCHEM_EXACT_MASS>
364.19982200
> <PUBCHEM_MOLECULAR_FORMULA>
C19H28N2O5
> <PUBCHEM_MOLECULAR_WEIGHT>
364.4
> <PUBCHEM_OPENEYE_CAN_SMILES>
CCC(CC)NC1=C(C=CC(=C1)C(=O)O)N2C(=O)CCC2(CCO)CO
> <PUBCHEM_OPENEYE_ISO_SMILES>
CCC(CC)NC1=C(C=CC(=C1)C(=O)O)N2C(=O)CCC2(CCO)CO
> <PUBCHEM_CACTVS_TPSA>
110
> <PUBCHEM_MONOISOTOPIC_WEIGHT>
364.19982200
> <PUBCHEM_TOTAL_CHARGE>
0
> <PUBCHEM_HEAVY_ATOM_COUNT>
26
> <PUBCHEM_ATOM_DEF_STEREO_COUNT>
0
> <PUBCHEM_ATOM_UDEF_STEREO_COUNT>
1
> <PUBCHEM_BOND_DEF_STEREO_COUNT>
0
> <PUBCHEM_BOND_UDEF_STEREO_COUNT>
0
> <PUBCHEM_ISOTOPIC_ATOM_COUNT>
0
> <PUBCHEM_COMPONENT_COUNT>
1
> <PUBCHEM_CACTVS_TAUTO_COUNT>
-1
> <PUBCHEM_COORDINATE_TYPE>
1
5
255
> <PUBCHEM_BONDANNOTATIONS>
14  16  8
14  17  8
16  19  8
17  20  8
19  23  8
20  23  8
8  10  3
$$$$
