508061
  -OEChem-10302200282D
 38 41  0     1  0  0  0  0  0999 V2000
    4.6457    0.8872    0.0000 N   0  0  0  0  0  0  0  0  0  0  0  0
    4.5412   -0.1073    0.0000 C   0  0  0  0  0  0  0  0  0  0  0  0
    3.6944    0.3816    0.0000 C   0  0  0  0  0  0  0  0  0  0  0  0
    4.5412   -1.0852    0.0000 C   0  0  0  0  0  0  0  0  0  0  0  0
    2.8475   -1.0852    0.0000 C   0  0  0  0  0  0  0  0  0  0  0  0
    2.9944   -1.5258    0.0000 C   0  0  0  0  0  0  0  0  0  0  0  0
    2.8475   -0.1073    0.0000 C   0  0  0  0  0  0  0  0  0  0  0  0
    2.9944   -0.4672    0.0000 C   0  0  0  0  0  0  0  0  0  0  0  0
    3.6944   -1.3918    0.0000 C   0  0  0  0  0  0  0  0  0  0  0  0
    3.9117   -2.0087    0.0000 C   0  0  0  0  0  0  0  0  0  0  0  0
    2.0000   -1.5741    0.0000 C   0  0  0  0  0  0  0  0  0  0  0  0
    5.4547   -0.5141    0.0000 C   0  0  0  0  0  0  0  0  0  0  0  0
    5.6239    1.0951    0.0000 C   0  0  3  0  0  0  0  0  0  0  0  0
    6.1240    0.2290    0.0000 C   0  0  0  0  0  0  0  0  0  0  0  0
    6.0306    2.0087    0.0000 C   0  0  0  0  0  0  0  0  0  0  0  0
    3.6944    1.0016    0.0000 H   0  0  0  0  0  0  0  0  0  0  0  0
    5.1337   -1.2679    0.0000 H   0  0  0  0  0  0  0  0  0  0  0  0
    3.3551   -0.7291    0.0000 H   0  0  0  0  0  0  0  0  0  0  0  0
    2.8603   -2.1311    0.0000 H   0  0  0  0  0  0  0  0  0  0  0  0
    2.6354    0.4753    0.0000 H   0  0  0  0  0  0  0  0  0  0  0  0
    2.2369   -0.2150    0.0000 H   0  0  0  0  0  0  0  0  0  0  0  0
    2.6508    0.0489    0.0000 H   0  0  0  0  0  0  0  0  0  0  0  0
    2.4010   -0.6467    0.0000 H   0  0  0  0  0  0  0  0  0  0  0  0
    3.3244   -1.8893    0.0000 H   0  0  0  0  0  0  0  0  0  0  0  0
    4.0643   -1.8893    0.0000 H   0  0  0  0  0  0  0  0  0  0  0  0
    3.6023   -2.5460    0.0000 H   0  0  0  0  0  0  0  0  0  0  0  0
    4.4369   -2.3382    0.0000 H   0  0  0  0  0  0  0  0  0  0  0  0
    1.5187   -1.1832    0.0000 H   0  0  0  0  0  0  0  0  0  0  0  0
    1.8068   -2.1632    0.0000 H   0  0  0  0  0  0  0  0  0  0  0  0
    5.1447   -1.0510    0.0000 H   0  0  0  0  0  0  0  0  0  0  0  0
    5.9563   -0.8785    0.0000 H   0  0  0  0  0  0  0  0  0  0  0  0
    4.1850    1.3021    0.0000 H   0  0  0  0  0  0  0  0  0  0  0  0
    5.2337    1.5769    0.0000 H   0  0  0  0  0  0  0  0  0  0  0  0
    6.5388   -0.2318    0.0000 H   0  0  0  0  0  0  0  0  0  0  0  0
    6.6256    0.5934    0.0000 H   0  0  0  0  0  0  0  0  0  0  0  0
    6.5970    1.7565    0.0000 H   0  0  0  0  0  0  0  0  0  0  0  0
    6.2827    2.5751    0.0000 H   0  0  0  0  0  0  0  0  0  0  0  0
    5.4642    2.2608    0.0000 H   0  0  0  0  0  0  0  0  0  0  0  0
  1  2  1  0  0  0  0
  1 13  1  0  0  0  0
  1 32  1  0  0  0  0
  2  3  1  0  0  0  0
  2  4  1  0  0  0  0
  2 12  1  0  0  0  0
  3  7  1  0  0  0  0
  3  8  1  0  0  0  0
  3 16  1  0  0  0  0
  4  9  1  0  0  0  0
  4 10  1  0  0  0  0
  4 17  1  0  0  0  0
  5  7  1  0  0  0  0
  5  9  1  0  0  0  0
  5 11  1  0  0  0  0
  5 18  1  0  0  0  0
  6  8  1  0  0  0  0
  6 10  1  0  0  0  0
  6 11  1  0  0  0  0
  6 19  1  0  0  0  0
  7 20  1  0  0  0  0
  7 21  1  0  0  0  0
  8 22  1  0  0  0  0
  8 23  1  0  0  0  0
  9 24  1  0  0  0  0
  9 25  1  0  0  0  0
 10 26  1  0  0  0  0
 10 27  1  0  0  0  0
 11 28  1  0  0  0  0
 11 29  1  0  0  0  0
 12 14  1  0  0  0  0
 12 30  1  0  0  0  0
 12 31  1  0  0  0  0
 13 14  1  0  0  0  0
 13 15  1  0  0  0  0
 13 33  1  0  0  0  0
 14 34  1  0  0  0  0
 14 35  1  0  0  0  0
 15 36  1  0  0  0  0
 15 37  1  0  0  0  0
 15 38  1  0  0  0  0
M  END
> <PUBCHEM_COMPOUND_CID>
508061
> <PUBCHEM_COMPOUND_CANONICALIZED>
1
> <PUBCHEM_CACTVS_COMPLEXITY>
255
> <PUBCHEM_CACTVS_HBOND_ACCEPTOR>
1
> <PUBCHEM_CACTVS_HBOND_DONOR>
1
> <PUBCHEM_CACTVS_ROTATABLE_BOND>
0
> <PUBCHEM_CACTVS_SUBSKEYS>
AAADceByAAAAAAAAAAAAAAAAAAAAAWAAAAAwYMGAAAAAAAAAAAAAHAAQAAAADajBAAQCAALAAAAAAAAAAAAAAAAAAAAAAIAIAAAAAAIAgAAEAAAAEACAAAEQgMAOgAAAAAAAAACQAAQAACQAAAAAAAAAAA==
> <PUBCHEM_IUPAC_OPENEYE_NAME>
5'-methylspiro[adamantane-2,2'-pyrrolidine]
> <PUBCHEM_IUPAC_CAS_NAME>
5'-methylspiro[adamantane-2,2'-pyrrolidine]
> <PUBCHEM_IUPAC_NAME_MARKUP>
5&apos;-methylspiro[adamantane-2,2&apos;-pyrrolidine]
> <PUBCHEM_IUPAC_NAME>
5'-methylspiro[adamantane-2,2'-pyrrolidine]
> <PUBCHEM_IUPAC_SYSTEMATIC_NAME>
5'-methylspiro[adamantane-2,2'-pyrrolidine]
> <PUBCHEM_IUPAC_TRADITIONAL_NAME>
5'-methylspiro[adamantane-2,2'-pyrrolidine]
> <PUBCHEM_IUPAC_INCHI>
InChI=1S/C14H23N/c1-9-2-3-14(15-9)12-5-10-4-11(7-12)8-13(14)6-10/h9-13,15H,2-8H2,1H3
> <PUBCHEM_IUPAC_INCHIKEY>
ORTXKEKOYJFAGF-UHFFFAOYSA-N
> <PUBCHEM_XLOGP3_AA>
2.9
> <PUBCHEM_EXACT_MASS>
205.183049738
> <PUBCHEM_MOLECULAR_FORMULA>
C14H23N
> <PUBCHEM_MOLECULAR_WEIGHT>
205.34
> <PUBCHEM_OPENEYE_CAN_SMILES>
CC1CCC2(N1)C3CC4CC(C3)CC2C4
> <PUBCHEM_OPENEYE_ISO_SMILES>
CC1CCC2(N1)C3CC4CC(C3)CC2C4
> <PUBCHEM_CACTVS_TPSA>
12
> <PUBCHEM_MONOISOTOPIC_WEIGHT>
205.183049738
> <PUBCHEM_TOTAL_CHARGE>
0
> <PUBCHEM_HEAVY_ATOM_COUNT>
15
> <PUBCHEM_ATOM_DEF_STEREO_COUNT>
0
> <PUBCHEM_ATOM_UDEF_STEREO_COUNT>
1
> <PUBCHEM_BOND_DEF_STEREO_COUNT>
0
> <PUBCHEM_BOND_UDEF_STEREO_COUNT>
0
> <PUBCHEM_ISOTOPIC_ATOM_COUNT>
0
> <PUBCHEM_COMPONENT_COUNT>
1
> <PUBCHEM_CACTVS_TAUTO_COUNT>
-1
> <PUBCHEM_COORDINATE_TYPE>
1
5
255
> <PUBCHEM_BONDANNOTATIONS>
13  15  3
$$$$
