508167
  -OEChem-10302200282D
 60 61  0     1  0  0  0  0  0999 V2000
    3.5219   -3.2601    0.0000 S   0  0  0  0  0  0  0  0  0  0  0  0
    6.1200    1.9720    0.0000 O   0  0  0  0  0  0  0  0  0  0  0  0
    6.9860   -3.2601    0.0000 O   0  0  0  0  0  0  0  0  0  0  0  0
    2.6200    2.8380    0.0000 O   0  0  0  0  0  0  0  0  0  0  0  0
    2.6200    1.1060    0.0000 O   0  0  0  0  0  0  0  0  0  0  0  0
    6.1200   -1.7601    0.0000 N   0  0  0  0  0  0  0  0  0  0  0  0
    4.6200    1.1060    0.0000 N   0  0  0  0  0  0  0  0  0  0  0  0
    5.2540   -4.2601    0.0000 N   0  0  0  0  0  0  0  0  0  0  0  0
    6.1200    0.2399    0.0000 C   0  0  0  0  0  0  0  0  0  0  0  0
    6.9860   -0.2601    0.0000 C   0  0  0  0  0  0  0  0  0  0  0  0
    5.2540   -0.2601    0.0000 C   0  0  0  0  0  0  0  0  0  0  0  0
    6.9860   -1.2601    0.0000 C   0  0  0  0  0  0  0  0  0  0  0  0
    5.2540   -1.2601    0.0000 C   0  0  0  0  0  0  0  0  0  0  0  0
    7.0597    0.5820    0.0000 C   0  0  0  0  0  0  0  0  0  0  0  0
    5.6200    1.1060    0.0000 C   0  0  0  0  0  0  0  0  0  0  0  0
    6.1200   -2.7601    0.0000 C   0  0  0  0  0  0  0  0  0  0  0  0
    4.1200    1.9720    0.0000 C   0  0  1  0  0  0  0  0  0  0  0  0
    7.2333    1.5668    0.0000 C   0  0  0  0  0  0  0  0  0  0  0  0
    7.8257   -0.0608    0.0000 C   0  0  0  0  0  0  0  0  0  0  0  0
    4.6200    2.8380    0.0000 C   0  0  0  0  0  0  0  0  0  0  0  0
    5.2540   -3.2601    0.0000 C   0  0  2  0  0  0  0  0  0  0  0  0
    4.1200    3.7040    0.0000 C   0  0  0  0  0  0  0  0  0  0  0  0
    8.1730    1.9088    0.0000 C   0  0  0  0  0  0  0  0  0  0  0  0
    8.7654    0.2812    0.0000 C   0  0  0  0  0  0  0  0  0  0  0  0
    3.1200    1.9720    0.0000 C   0  0  0  0  0  0  0  0  0  0  0  0
    4.3880   -2.7601    0.0000 C   0  0  0  0  0  0  0  0  0  0  0  0
    8.9391    1.2660    0.0000 C   0  0  0  0  0  0  0  0  0  0  0  0
    4.6200    4.5701    0.0000 C   0  0  0  0  0  0  0  0  0  0  0  0
    3.1200    3.7040    0.0000 C   0  0  0  0  0  0  0  0  0  0  0  0
    7.5966   -0.3677    0.0000 H   0  0  0  0  0  0  0  0  0  0  0  0
    7.1981    0.3225    0.0000 H   0  0  0  0  0  0  0  0  0  0  0  0
    5.0419    0.3225    0.0000 H   0  0  0  0  0  0  0  0  0  0  0  0
    4.6434   -0.3677    0.0000 H   0  0  0  0  0  0  0  0  0  0  0  0
    7.1981   -1.8427    0.0000 H   0  0  0  0  0  0  0  0  0  0  0  0
    7.5966   -1.1524    0.0000 H   0  0  0  0  0  0  0  0  0  0  0  0
    4.6434   -1.1524    0.0000 H   0  0  0  0  0  0  0  0  0  0  0  0
    5.0419   -1.8427    0.0000 H   0  0  0  0  0  0  0  0  0  0  0  0
    4.3100    0.5690    0.0000 H   0  0  0  0  0  0  0  0  0  0  0  0
    3.8100    1.4350    0.0000 H   0  0  0  0  0  0  0  0  0  0  0  0
    6.7584    1.9653    0.0000 H   0  0  0  0  0  0  0  0  0  0  0  0
    7.7181   -0.6714    0.0000 H   0  0  0  0  0  0  0  0  0  0  0  0
    5.0950    2.4395    0.0000 H   0  0  0  0  0  0  0  0  0  0  0  0
    5.0950    3.2365    0.0000 H   0  0  0  0  0  0  0  0  0  0  0  0
    5.7909   -3.5701    0.0000 H   0  0  0  0  0  0  0  0  0  0  0  0
    4.7400    3.7040    0.0000 H   0  0  0  0  0  0  0  0  0  0  0  0
    8.2807    2.5194    0.0000 H   0  0  0  0  0  0  0  0  0  0  0  0
    9.2404   -0.1173    0.0000 H   0  0  0  0  0  0  0  0  0  0  0  0
    4.7865   -2.2851    0.0000 H   0  0  0  0  0  0  0  0  0  0  0  0
    3.9894   -2.2851    0.0000 H   0  0  0  0  0  0  0  0  0  0  0  0
    9.5217    1.4780    0.0000 H   0  0  0  0  0  0  0  0  0  0  0  0
    5.1569    4.2601    0.0000 H   0  0  0  0  0  0  0  0  0  0  0  0
    4.9300    5.1070    0.0000 H   0  0  0  0  0  0  0  0  0  0  0  0
    4.0831    4.8801    0.0000 H   0  0  0  0  0  0  0  0  0  0  0  0
    3.1200    4.3240    0.0000 H   0  0  0  0  0  0  0  0  0  0  0  0
    2.5000    3.7040    0.0000 H   0  0  0  0  0  0  0  0  0  0  0  0
    3.1200    3.0840    0.0000 H   0  0  0  0  0  0  0  0  0  0  0  0
    4.7170   -4.5701    0.0000 H   0  0  0  0  0  0  0  0  0  0  0  0
    5.7909   -4.5701    0.0000 H   0  0  0  0  0  0  0  0  0  0  0  0
    2.0000    2.8380    0.0000 H   0  0  0  0  0  0  0  0  0  0  0  0
    2.9850   -2.9501    0.0000 H   0  0  0  0  0  0  0  0  0  0  0  0
  1 26  1  0  0  0  0
  1 60  1  0  0  0  0
  2 15  2  0  0  0  0
  3 16  2  0  0  0  0
  4 25  1  0  0  0  0
  4 59  1  0  0  0  0
  5 25  2  0  0  0  0
  6 12  1  0  0  0  0
  6 13  1  0  0  0  0
  6 16  1  0  0  0  0
  7 15  1  0  0  0  0
 17  7  1  6  0  0  0
  7 38  1  0  0  0  0
 21  8  1  1  0  0  0
  8 57  1  0  0  0  0
  8 58  1  0  0  0  0
  9 10  1  0  0  0  0
  9 11  1  0  0  0  0
  9 14  1  0  0  0  0
  9 15  1  0  0  0  0
 10 12  1  0  0  0  0
 10 30  1  0  0  0  0
 10 31  1  0  0  0  0
 11 13  1  0  0  0  0
 11 32  1  0  0  0  0
 11 33  1  0  0  0  0
 12 34  1  0  0  0  0
 12 35  1  0  0  0  0
 13 36  1  0  0  0  0
 13 37  1  0  0  0  0
 14 18  2  0  0  0  0
 14 19  1  0  0  0  0
 16 21  1  0  0  0  0
 17 20  1  0  0  0  0
 17 25  1  0  0  0  0
 17 39  1  0  0  0  0
 18 23  1  0  0  0  0
 18 40  1  0  0  0  0
 19 24  2  0  0  0  0
 19 41  1  0  0  0  0
 20 22  1  0  0  0  0
 20 42  1  0  0  0  0
 20 43  1  0  0  0  0
 21 26  1  0  0  0  0
 21 44  1  0  0  0  0
 22 28  1  0  0  0  0
 22 29  1  0  0  0  0
 22 45  1  0  0  0  0
 23 27  2  0  0  0  0
 23 46  1  0  0  0  0
 24 27  1  0  0  0  0
 24 47  1  0  0  0  0
 26 48  1  0  0  0  0
 26 49  1  0  0  0  0
 27 50  1  0  0  0  0
 28 51  1  0  0  0  0
 28 52  1  0  0  0  0
 28 53  1  0  0  0  0
 29 54  1  0  0  0  0
 29 55  1  0  0  0  0
 29 56  1  0  0  0  0
M  END
> <PUBCHEM_COMPOUND_CID>
508167
> <PUBCHEM_COMPOUND_CANONICALIZED>
1
> <PUBCHEM_CACTVS_COMPLEXITY>
585
> <PUBCHEM_CACTVS_HBOND_ACCEPTOR>
6
> <PUBCHEM_CACTVS_HBOND_DONOR>
4
> <PUBCHEM_CACTVS_ROTATABLE_BOND>
8
> <PUBCHEM_CACTVS_SUBSKEYS>
AAADceB7OABAAAAAAAAAAAAAAAAAAAAAAAA8QAAAAAAAAAABAAAAHgQQCAAADyjF2ASyCIPAAgSIAiHSGAACAAAgAAAIiIGIAIgKYDKAlTGUYAAklgCYiAeciMCPgAAAAAAAAAAAAAAAAAAAAAAAAAAAAA==
> <PUBCHEM_IUPAC_OPENEYE_NAME>
(2S)-2-[[1-[(2R)-2-amino-3-sulfanyl-propanoyl]-4-phenyl-piperidine-4-carbonyl]amino]-4-methyl-pentanoic acid
> <PUBCHEM_IUPAC_CAS_NAME>
(2S)-2-[[[1-[(2R)-2-amino-3-mercapto-1-oxopropyl]-4-phenyl-4-piperidinyl]-oxomethyl]amino]-4-methylpentanoic acid
> <PUBCHEM_IUPAC_NAME_MARKUP>
(2<I>S</I>)-2-[[1-[(2<I>R</I>)-2-amino-3-sulfanylpropanoyl]-4-phenylpiperidine-4-carbonyl]amino]-4-methylpentanoic acid
> <PUBCHEM_IUPAC_NAME>
(2S)-2-[[1-[(2R)-2-amino-3-sulfanylpropanoyl]-4-phenylpiperidine-4-carbonyl]amino]-4-methylpentanoic acid
> <PUBCHEM_IUPAC_SYSTEMATIC_NAME>
(2S)-2-[[1-[(2R)-2-azanyl-3-sulfanyl-propanoyl]-4-phenyl-piperidin-4-yl]carbonylamino]-4-methyl-pentanoic acid
> <PUBCHEM_IUPAC_TRADITIONAL_NAME>
(2S)-2-[[1-[(2R)-2-amino-3-mercapto-propanoyl]-4-phenyl-isonipecotoyl]amino]-4-methyl-valeric acid
> <PUBCHEM_IUPAC_INCHI>
InChI=1S/C21H31N3O4S/c1-14(2)12-17(19(26)27)23-20(28)21(15-6-4-3-5-7-15)8-10-24(11-9-21)18(25)16(22)13-29/h3-7,14,16-17,29H,8-13,22H2,1-2H3,(H,23,28)(H,26,27)/t16-,17-/m0/s1
> <PUBCHEM_IUPAC_INCHIKEY>
FLFNSORDYCBQRT-IRXDYDNUSA-N
> <PUBCHEM_XLOGP3_AA>
-0.6
> <PUBCHEM_EXACT_MASS>
421.20352765
> <PUBCHEM_MOLECULAR_FORMULA>
C21H31N3O4S
> <PUBCHEM_MOLECULAR_WEIGHT>
421.6
> <PUBCHEM_OPENEYE_CAN_SMILES>
CC(C)CC(C(=O)O)NC(=O)C1(CCN(CC1)C(=O)C(CS)N)C2=CC=CC=C2
> <PUBCHEM_OPENEYE_ISO_SMILES>
CC(C)C[C@@H](C(=O)O)NC(=O)C1(CCN(CC1)C(=O)[C@H](CS)N)C2=CC=CC=C2
> <PUBCHEM_CACTVS_TPSA>
114
> <PUBCHEM_MONOISOTOPIC_WEIGHT>
421.20352765
> <PUBCHEM_TOTAL_CHARGE>
0
> <PUBCHEM_HEAVY_ATOM_COUNT>
29
> <PUBCHEM_ATOM_DEF_STEREO_COUNT>
2
> <PUBCHEM_ATOM_UDEF_STEREO_COUNT>
0
> <PUBCHEM_BOND_DEF_STEREO_COUNT>
0
> <PUBCHEM_BOND_UDEF_STEREO_COUNT>
0
> <PUBCHEM_ISOTOPIC_ATOM_COUNT>
0
> <PUBCHEM_COMPONENT_COUNT>
1
> <PUBCHEM_CACTVS_TAUTO_COUNT>
-1
> <PUBCHEM_COORDINATE_TYPE>
1
5
255
> <PUBCHEM_BONDANNOTATIONS>
14  18  8
14  19  8
18  23  8
19  24  8
23  27  8
24  27  8
17  7  6
21  8  5
$$$$
