508187
  -OEChem-10302200282D
105110  0     1  0  0  0  0  0999 V2000
   12.0326   -2.5707    0.0000 O   0  0  0  0  0  0  0  0  0  0  0  0
    7.6138    0.9718    0.0000 O   0  0  0  0  0  0  0  0  0  0  0  0
   10.1921    3.2853    0.0000 O   0  0  0  0  0  0  0  0  0  0  0  0
    6.2619   -0.4515    0.0000 O   0  0  0  0  0  0  0  0  0  0  0  0
    6.6353    0.7656    0.0000 O   0  0  0  0  0  0  0  0  0  0  0  0
   10.9065   -0.1043    0.0000 N   0  0  3  0  0  0  0  0  0  0  0  0
    9.5708    1.3843    0.0000 N   0  0  3  0  0  0  0  0  0  0  0  0
   11.8385    2.7472    0.0000 N   0  0  0  0  0  0  0  0  0  0  0  0
    4.9889    1.3037    0.0000 N   0  0  0  0  0  0  0  0  0  0  0  0
   13.2062   -6.0563    0.0000 N   0  0  0  0  0  0  0  0  0  0  0  0
   10.5493    1.5905    0.0000 C   0  0  1  0  0  0  0  0  0  0  0  0
   11.2171    0.8462    0.0000 C   0  0  0  0  0  0  0  0  0  0  0  0
   11.5743   -0.8486    0.0000 C   0  0  0  0  0  0  0  0  0  0  0  0
    9.9280   -0.3105    0.0000 C   0  0  0  0  0  0  0  0  0  0  0  0
    9.2601    0.4338    0.0000 C   0  0  0  0  0  0  0  0  0  0  0  0
    8.9030    2.1286    0.0000 C   0  0  0  0  0  0  0  0  0  0  0  0
    7.9244    1.9224    0.0000 C   0  0  2  0  0  0  0  0  0  0  0  0
   10.8600    2.5410    0.0000 C   0  0  0  0  0  0  0  0  0  0  0  0
    7.2566    2.6667    0.0000 C   0  0  0  0  0  0  0  0  0  0  0  0
   12.2422   -1.5929    0.0000 C   0  0  0  0  0  0  0  0  0  0  0  0
   10.8300   -1.5165    0.0000 C   0  0  0  0  0  0  0  0  0  0  0  0
   12.3186   -0.1808    0.0000 C   0  0  0  0  0  0  0  0  0  0  0  0
    6.2781    2.4604    0.0000 C   0  0  2  0  0  0  0  0  0  0  0  0
    4.6783    0.3532    0.0000 C   0  0  2  0  0  0  0  0  0  0  0  0
   12.5063    2.0029    0.0000 C   0  0  0  0  0  0  0  0  0  0  0  0
    5.6103    3.2048    0.0000 C   0  0  0  0  0  0  0  0  0  0  0  0
    5.2619   -0.4515    0.0000 C   0  0  1  0  0  0  0  0  0  0  0  0
    5.9674    1.5099    0.0000 C   0  0  0  0  0  0  0  0  0  0  0  0
   13.2369   -1.4901    0.0000 C   0  0  0  0  0  0  0  0  0  0  0  0
    3.7320    0.0485    0.0000 C   0  0  0  0  0  0  0  0  0  0  0  0
    4.6783   -1.2563    0.0000 C   0  0  0  0  0  0  0  0  0  0  0  0
    3.7320   -0.9515    0.0000 C   0  0  0  0  0  0  0  0  0  0  0  0
   12.8977   -3.0722    0.0000 C   0  0  0  0  0  0  0  0  0  0  0  0
   13.6420   -2.4044    0.0000 C   0  0  0  0  0  0  0  0  0  0  0  0
   13.1742    1.2586    0.0000 C   0  0  0  0  0  0  0  0  0  0  0  0
   13.2506    2.6708    0.0000 C   0  0  0  0  0  0  0  0  0  0  0  0
   11.7620    1.3351    0.0000 C   0  0  0  0  0  0  0  0  0  0  0  0
    5.9209    4.1553    0.0000 C   0  0  0  0  0  0  0  0  0  0  0  0
    2.8660    0.5485    0.0000 C   0  0  0  0  0  0  0  0  0  0  0  0
    2.8660   -1.4515    0.0000 C   0  0  0  0  0  0  0  0  0  0  0  0
   13.0005   -4.0669    0.0000 C   0  0  0  0  0  0  0  0  0  0  0  0
    2.0000    0.0485    0.0000 C   0  0  0  0  0  0  0  0  0  0  0  0
    2.0000   -0.9515    0.0000 C   0  0  0  0  0  0  0  0  0  0  0  0
    6.8994    4.3615    0.0000 C   0  0  0  0  0  0  0  0  0  0  0  0
    5.2531    4.8996    0.0000 C   0  0  0  0  0  0  0  0  0  0  0  0
   12.1905   -4.6533    0.0000 C   0  0  0  0  0  0  0  0  0  0  0  0
   13.9134   -4.4752    0.0000 C   0  0  0  0  0  0  0  0  0  0  0  0
    7.2101    5.3120    0.0000 C   0  0  0  0  0  0  0  0  0  0  0  0
    5.5637    5.8501    0.0000 C   0  0  0  0  0  0  0  0  0  0  0  0
    6.5422    6.0563    0.0000 C   0  0  0  0  0  0  0  0  0  0  0  0
   12.2933   -5.6480    0.0000 C   0  0  0  0  0  0  0  0  0  0  0  0
   14.0162   -5.4699    0.0000 C   0  0  0  0  0  0  0  0  0  0  0  0
   10.1352    2.0520    0.0000 H   0  0  0  0  0  0  0  0  0  0  0  0
   11.7641    0.5542    0.0000 H   0  0  0  0  0  0  0  0  0  0  0  0
   11.5997    1.3341    0.0000 H   0  0  0  0  0  0  0  0  0  0  0  0
    9.4016   -0.6382    0.0000 H   0  0  0  0  0  0  0  0  0  0  0  0
   10.1592   -0.8858    0.0000 H   0  0  0  0  0  0  0  0  0  0  0  0
    8.7132    0.7258    0.0000 H   0  0  0  0  0  0  0  0  0  0  0  0
    8.8776   -0.0541    0.0000 H   0  0  0  0  0  0  0  0  0  0  0  0
    9.4293    2.4562    0.0000 H   0  0  0  0  0  0  0  0  0  0  0  0
    8.6717    2.7038    0.0000 H   0  0  0  0  0  0  0  0  0  0  0  0
    8.3385    1.4609    0.0000 H   0  0  0  0  0  0  0  0  0  0  0  0
    7.7830    2.9943    0.0000 H   0  0  0  0  0  0  0  0  0  0  0  0
    7.0254    3.2419    0.0000 H   0  0  0  0  0  0  0  0  0  0  0  0
   10.4160   -1.0550    0.0000 H   0  0  0  0  0  0  0  0  0  0  0  0
   10.3686   -1.9305    0.0000 H   0  0  0  0  0  0  0  0  0  0  0  0
   11.2441   -1.9779    0.0000 H   0  0  0  0  0  0  0  0  0  0  0  0
   12.7327   -0.6422    0.0000 H   0  0  0  0  0  0  0  0  0  0  0  0
   12.7801    0.2333    0.0000 H   0  0  0  0  0  0  0  0  0  0  0  0
   11.9046    0.2807    0.0000 H   0  0  0  0  0  0  0  0  0  0  0  0
    6.6922    1.9990    0.0000 H   0  0  0  0  0  0  0  0  0  0  0  0
   12.0311    3.3366    0.0000 H   0  0  0  0  0  0  0  0  0  0  0  0
    5.2908    0.4494    0.0000 H   0  0  0  0  0  0  0  0  0  0  0  0
    5.5436   -1.0038    0.0000 H   0  0  0  0  0  0  0  0  0  0  0  0
    5.0633    3.4968    0.0000 H   0  0  0  0  0  0  0  0  0  0  0  0
    5.2277    2.7168    0.0000 H   0  0  0  0  0  0  0  0  0  0  0  0
   13.5478   -0.9537    0.0000 H   0  0  0  0  0  0  0  0  0  0  0  0
    4.4272   -1.8232    0.0000 H   0  0  0  0  0  0  0  0  0  0  0  0
    5.2156   -1.5655    0.0000 H   0  0  0  0  0  0  0  0  0  0  0  0
    4.5749    1.7652    0.0000 H   0  0  0  0  0  0  0  0  0  0  0  0
    8.0279    0.5104    0.0000 H   0  0  0  0  0  0  0  0  0  0  0  0
   14.2483   -2.5343    0.0000 H   0  0  0  0  0  0  0  0  0  0  0  0
   12.7127    0.8446    0.0000 H   0  0  0  0  0  0  0  0  0  0  0  0
   13.5882    0.7972    0.0000 H   0  0  0  0  0  0  0  0  0  0  0  0
   13.6356    1.6727    0.0000 H   0  0  0  0  0  0  0  0  0  0  0  0
   13.6647    2.2093    0.0000 H   0  0  0  0  0  0  0  0  0  0  0  0
   13.7121    3.0848    0.0000 H   0  0  0  0  0  0  0  0  0  0  0  0
   12.8366    3.1322    0.0000 H   0  0  0  0  0  0  0  0  0  0  0  0
   11.3480    1.7966    0.0000 H   0  0  0  0  0  0  0  0  0  0  0  0
   11.3005    0.9210    0.0000 H   0  0  0  0  0  0  0  0  0  0  0  0
   12.1761    0.8736    0.0000 H   0  0  0  0  0  0  0  0  0  0  0  0
    2.8660    1.1685    0.0000 H   0  0  0  0  0  0  0  0  0  0  0  0
    2.8660   -2.0715    0.0000 H   0  0  0  0  0  0  0  0  0  0  0  0
    6.5719   -0.9885    0.0000 H   0  0  0  0  0  0  0  0  0  0  0  0
    1.4631    0.3585    0.0000 H   0  0  0  0  0  0  0  0  0  0  0  0
    1.4631   -1.2615    0.0000 H   0  0  0  0  0  0  0  0  0  0  0  0
    7.3135    3.9000    0.0000 H   0  0  0  0  0  0  0  0  0  0  0  0
    4.6464    4.7717    0.0000 H   0  0  0  0  0  0  0  0  0  0  0  0
   11.6245   -4.4001    0.0000 H   0  0  0  0  0  0  0  0  0  0  0  0
   14.4156   -4.1117    0.0000 H   0  0  0  0  0  0  0  0  0  0  0  0
    7.8168    5.4399    0.0000 H   0  0  0  0  0  0  0  0  0  0  0  0
    5.1497    6.3116    0.0000 H   0  0  0  0  0  0  0  0  0  0  0  0
    6.7349    6.6456    0.0000 H   0  0  0  0  0  0  0  0  0  0  0  0
   11.7911   -6.0116    0.0000 H   0  0  0  0  0  0  0  0  0  0  0  0
   14.5821   -5.7231    0.0000 H   0  0  0  0  0  0  0  0  0  0  0  0
  1 20  1  0  0  0  0
  1 33  1  0  0  0  0
 17  2  1  1  0  0  0
  2 81  1  0  0  0  0
  3 18  2  0  0  0  0
 27  4  1  6  0  0  0
  4 94  1  0  0  0  0
  5 28  2  0  0  0  0
  6 12  1  0  0  0  0
  6 13  1  0  0  0  0
  6 14  1  0  0  0  0
  7 11  1  0  0  0  0
  7 15  1  0  0  0  0
  7 16  1  0  0  0  0
  8 18  1  0  0  0  0
  8 25  1  0  0  0  0
  8 72  1  0  0  0  0
 24  9  1  6  0  0  0
  9 28  1  0  0  0  0
  9 80  1  0  0  0  0
 10 51  2  0  0  0  0
 10 52  1  0  0  0  0
 11 12  1  0  0  0  0
 11 18  1  6  0  0  0
 11 53  1  0  0  0  0
 12 54  1  0  0  0  0
 12 55  1  0  0  0  0
 13 20  1  0  0  0  0
 13 21  1  0  0  0  0
 13 22  1  0  0  0  0
 14 15  1  0  0  0  0
 14 56  1  0  0  0  0
 14 57  1  0  0  0  0
 15 58  1  0  0  0  0
 15 59  1  0  0  0  0
 16 17  1  0  0  0  0
 16 60  1  0  0  0  0
 16 61  1  0  0  0  0
 17 19  1  0  0  0  0
 17 62  1  0  0  0  0
 23 19  1  1  0  0  0
 19 63  1  0  0  0  0
 19 64  1  0  0  0  0
 20 29  2  0  0  0  0
 21 65  1  0  0  0  0
 21 66  1  0  0  0  0
 21 67  1  0  0  0  0
 22 68  1  0  0  0  0
 22 69  1  0  0  0  0
 22 70  1  0  0  0  0
 23 26  1  0  0  0  0
 23 28  1  0  0  0  0
 23 71  1  0  0  0  0
 24 27  1  0  0  0  0
 24 30  1  0  0  0  0
 24 73  1  0  0  0  0
 25 35  1  0  0  0  0
 25 36  1  0  0  0  0
 25 37  1  0  0  0  0
 26 38  1  0  0  0  0
 26 75  1  0  0  0  0
 26 76  1  0  0  0  0
 27 31  1  0  0  0  0
 27 74  1  0  0  0  0
 29 34  1  0  0  0  0
 29 77  1  0  0  0  0
 30 32  1  0  0  0  0
 30 39  2  0  0  0  0
 31 32  1  0  0  0  0
 31 78  1  0  0  0  0
 31 79  1  0  0  0  0
 32 40  2  0  0  0  0
 33 34  2  0  0  0  0
 33 41  1  0  0  0  0
 34 82  1  0  0  0  0
 35 83  1  0  0  0  0
 35 84  1  0  0  0  0
 35 85  1  0  0  0  0
 36 86  1  0  0  0  0
 36 87  1  0  0  0  0
 36 88  1  0  0  0  0
 37 89  1  0  0  0  0
 37 90  1  0  0  0  0
 37 91  1  0  0  0  0
 38 44  2  0  0  0  0
 38 45  1  0  0  0  0
 39 42  1  0  0  0  0
 39 92  1  0  0  0  0
 40 43  1  0  0  0  0
 40 93  1  0  0  0  0
 41 46  2  0  0  0  0
 41 47  1  0  0  0  0
 42 43  2  0  0  0  0
 42 95  1  0  0  0  0
 43 96  1  0  0  0  0
 44 48  1  0  0  0  0
 44 97  1  0  0  0  0
 45 49  2  0  0  0  0
 45 98  1  0  0  0  0
 46 51  1  0  0  0  0
 46 99  1  0  0  0  0
 47 52  2  0  0  0  0
 47100  1  0  0  0  0
 48 50  2  0  0  0  0
 48101  1  0  0  0  0
 49 50  1  0  0  0  0
 49102  1  0  0  0  0
 50103  1  0  0  0  0
 51104  1  0  0  0  0
 52105  1  0  0  0  0
M  END
> <PUBCHEM_COMPOUND_CID>
508187
> <PUBCHEM_COMPOUND_CANONICALIZED>
1
> <PUBCHEM_CACTVS_COMPLEXITY>
1170
> <PUBCHEM_CACTVS_HBOND_ACCEPTOR>
8
> <PUBCHEM_CACTVS_HBOND_DONOR>
4
> <PUBCHEM_CACTVS_ROTATABLE_BOND>
13
> <PUBCHEM_CACTVS_SUBSKEYS>
AAADcfB/uAAAAAAAAAAAAAAAAAAAAaIAAAA8eIEAAAAAAGAB9AAAHgAQCAAADbzhmgY+hJPIFkCoArF3VACCiCA1IiAI2KG+bNgOdnrE9buXeSjk1hHY6Ye+2fOegAAAAAAQAAAAAAAAACAAAKAACQgAAA==
> <PUBCHEM_IUPAC_OPENEYE_NAME>
(2S)-1-[(2S,4S)-4-benzyl-2-hydroxy-5-[[(1S,2R)-2-hydroxyindan-1-yl]amino]-5-oxo-pentyl]-N-tert-butyl-4-[1-methyl-1-[5-(4-pyridyl)-2-furyl]ethyl]piperazine-2-carboxamide
> <PUBCHEM_IUPAC_CAS_NAME>
(2S)-N-tert-butyl-1-[(2S,4S)-2-hydroxy-5-[[(1S,2R)-2-hydroxy-2,3-dihydro-1H-inden-1-yl]amino]-5-oxo-4-(phenylmethyl)pentyl]-4-[2-(5-pyridin-4-yl-2-furanyl)propan-2-yl]-2-piperazinecarboxamide
> <PUBCHEM_IUPAC_NAME_MARKUP>
(2<I>S</I>)-1-[(2<I>S</I>,4<I>S</I>)-4-benzyl-2-hydroxy-5-[[(1<I>S</I>,2<I>R</I>)-2-hydroxy-2,3-dihydro-1<I>H</I>-inden-1-yl]amino]-5-oxopentyl]-<I>N</I>-<I>tert</I>-butyl-4-[2-(5-pyridin-4-ylfuran-2-yl)propan-2-yl]piperazine-2-carboxamide
> <PUBCHEM_IUPAC_NAME>
(2S)-1-[(2S,4S)-4-benzyl-2-hydroxy-5-[[(1S,2R)-2-hydroxy-2,3-dihydro-1H-inden-1-yl]amino]-5-oxopentyl]-N-tert-butyl-4-[2-(5-pyridin-4-ylfuran-2-yl)propan-2-yl]piperazine-2-carboxamide
> <PUBCHEM_IUPAC_SYSTEMATIC_NAME>
(2S)-N-tert-butyl-1-[(2S,4S)-2-oxidanyl-5-[[(1S,2R)-2-oxidanyl-2,3-dihydro-1H-inden-1-yl]amino]-5-oxidanylidene-4-(phenylmethyl)pentyl]-4-[2-(5-pyridin-4-ylfuran-2-yl)propan-2-yl]piperazine-2-carboxamide
> <PUBCHEM_IUPAC_TRADITIONAL_NAME>
(2S)-1-[(2S,4S)-4-benzyl-2-hydroxy-5-[[(1S,2R)-2-hydroxyindan-1-yl]amino]-5-keto-pentyl]-N-tert-butyl-4-[1-methyl-1-[5-(4-pyridyl)-2-furyl]ethyl]piperazine-2-carboxamide
> <PUBCHEM_IUPAC_INCHI>
InChI=1S/C42H53N5O5/c1-41(2,3)45-40(51)34-27-47(42(4,5)37-16-15-36(52-37)29-17-19-43-20-18-29)22-21-46(34)26-32(48)24-31(23-28-11-7-6-8-12-28)39(50)44-38-33-14-10-9-13-30(33)25-35(38)49/h6-20,31-32,34-35,38,48-49H,21-27H2,1-5H3,(H,44,50)(H,45,51)/t31-,32-,34-,35+,38-/m0/s1
> <PUBCHEM_IUPAC_INCHIKEY>
KVUHGWUFONXVHS-DTQMGJSWSA-N
> <PUBCHEM_XLOGP3_AA>
4.1
> <PUBCHEM_EXACT_MASS>
707.40466981
> <PUBCHEM_MOLECULAR_FORMULA>
C42H53N5O5
> <PUBCHEM_MOLECULAR_WEIGHT>
707.9
> <PUBCHEM_OPENEYE_CAN_SMILES>
CC(C)(C)NC(=O)C1CN(CCN1CC(CC(CC2=CC=CC=C2)C(=O)NC3C(CC4=CC=CC=C34)O)O)C(C)(C)C5=CC=C(O5)C6=CC=NC=C6
> <PUBCHEM_OPENEYE_ISO_SMILES>
CC(C)(C)NC(=O)[C@@H]1CN(CCN1C[C@H](C[C@H](CC2=CC=CC=C2)C(=O)N[C@@H]3[C@@H](CC4=CC=CC=C34)O)O)C(C)(C)C5=CC=C(O5)C6=CC=NC=C6
> <PUBCHEM_CACTVS_TPSA>
131
> <PUBCHEM_MONOISOTOPIC_WEIGHT>
707.40466981
> <PUBCHEM_TOTAL_CHARGE>
0
> <PUBCHEM_HEAVY_ATOM_COUNT>
52
> <PUBCHEM_ATOM_DEF_STEREO_COUNT>
5
> <PUBCHEM_ATOM_UDEF_STEREO_COUNT>
0
> <PUBCHEM_BOND_DEF_STEREO_COUNT>
0
> <PUBCHEM_BOND_UDEF_STEREO_COUNT>
0
> <PUBCHEM_ISOTOPIC_ATOM_COUNT>
0
> <PUBCHEM_COMPONENT_COUNT>
1
> <PUBCHEM_CACTVS_TAUTO_COUNT>
-1
> <PUBCHEM_COORDINATE_TYPE>
1
5
255
> <PUBCHEM_BONDANNOTATIONS>
1  20  8
1  33  8
10  51  8
10  52  8
11  18  6
23  19  5
17  2  5
20  29  8
29  34  8
30  32  8
30  39  8
32  40  8
33  34  8
38  44  8
38  45  8
39  42  8
27  4  6
40  43  8
41  46  8
41  47  8
42  43  8
44  48  8
45  49  8
46  51  8
47  52  8
48  50  8
49  50  8
24  9  6
$$$$
