508198
  -OEChem-10302200282D
109114  0     1  0  0  0  0  0999 V2000
    7.2641    4.5843    0.0000 O   0  0  0  0  0  0  0  0  0  0  0  0
    5.5321    1.5843    0.0000 O   0  0  0  0  0  0  0  0  0  0  0  0
    5.5321    0.5843    0.0000 O   0  0  0  0  0  0  0  0  0  0  0  0
    8.9962   -2.4157    0.0000 O   0  0  0  0  0  0  0  0  0  0  0  0
    5.5321    3.5843    0.0000 N   0  0  3  0  0  0  0  0  0  0  0  0
    6.3981    6.0843    0.0000 N   0  0  0  0  0  0  0  0  0  0  0  0
    7.2641    0.5843    0.0000 N   0  0  0  0  0  0  0  0  0  0  0  0
    8.1301   -3.9157    0.0000 N   0  0  0  0  0  0  0  0  0  0  0  0
    3.8000    4.5843    0.0000 C   0  0  2  0  0  0  0  0  0  0  0  0
    3.8000    3.5843    0.0000 C   0  0  1  0  0  0  0  0  0  0  0  0
    4.6660    5.0843    0.0000 C   0  0  0  0  0  0  0  0  0  0  0  0
    4.6660    3.0843    0.0000 C   0  0  0  0  0  0  0  0  0  0  0  0
    2.9061    5.1190    0.0000 C   0  0  0  0  0  0  0  0  0  0  0  0
    2.9061    3.0497    0.0000 C   0  0  0  0  0  0  0  0  0  0  0  0
    5.5321    4.5843    0.0000 C   0  0  1  0  0  0  0  0  0  0  0  0
    2.0000    4.6051    0.0000 C   0  0  0  0  0  0  0  0  0  0  0  0
    2.0000    3.5635    0.0000 C   0  0  0  0  0  0  0  0  0  0  0  0
    6.3981    3.0843    0.0000 C   0  0  0  0  0  0  0  0  0  0  0  0
    6.3981    5.0843    0.0000 C   0  0  0  0  0  0  0  0  0  0  0  0
    6.3981    2.0843    0.0000 C   0  0  1  0  0  0  0  0  0  0  0  0
    7.2641    1.5843    0.0000 C   0  0  2  0  0  0  0  0  0  0  0  0
    7.2641    6.5843    0.0000 C   0  0  0  0  0  0  0  0  0  0  0  0
    8.1301    2.0843    0.0000 C   0  0  0  0  0  0  0  0  0  0  0  0
    8.1301    7.0843    0.0000 C   0  0  0  0  0  0  0  0  0  0  0  0
    6.7641    7.4503    0.0000 C   0  0  0  0  0  0  0  0  0  0  0  0
    7.7641    5.7183    0.0000 C   0  0  0  0  0  0  0  0  0  0  0  0
    8.9962    1.5843    0.0000 C   0  0  0  0  0  0  0  0  0  0  0  0
    6.3981    0.0843    0.0000 C   0  0  0  0  0  0  0  0  0  0  0  0
    8.9962    0.5843    0.0000 C   0  0  0  0  0  0  0  0  0  0  0  0
    9.8622    2.0843    0.0000 C   0  0  0  0  0  0  0  0  0  0  0  0
    6.3981   -0.9157    0.0000 C   0  0  0  0  0  0  0  0  0  0  0  0
    9.8622    0.0843    0.0000 C   0  0  0  0  0  0  0  0  0  0  0  0
   10.7282    1.5843    0.0000 C   0  0  0  0  0  0  0  0  0  0  0  0
    5.5321   -1.4157    0.0000 C   0  0  0  0  0  0  0  0  0  0  0  0
   10.7282    0.5843    0.0000 C   0  0  0  0  0  0  0  0  0  0  0  0
    7.2641   -1.4157    0.0000 C   0  0  0  0  0  0  0  0  0  0  0  0
    7.2641   -2.4157    0.0000 C   0  0  0  0  0  0  0  0  0  0  0  0
    5.5321   -2.4157    0.0000 C   0  0  0  0  0  0  0  0  0  0  0  0
    4.6660   -0.9157    0.0000 C   0  0  0  0  0  0  0  0  0  0  0  0
    6.3981   -2.9157    0.0000 C   0  0  0  0  0  0  0  0  0  0  0  0
    8.1301   -2.9157    0.0000 C   0  0  0  0  0  0  0  0  0  0  0  0
    8.9962   -4.4157    0.0000 C   0  0  0  0  0  0  0  0  0  0  0  0
    7.2641   -4.4157    0.0000 C   0  0  0  0  0  0  0  0  0  0  0  0
    8.9962   -5.4157    0.0000 C   0  0  0  0  0  0  0  0  0  0  0  0
    9.8622   -5.9157    0.0000 C   0  0  0  0  0  0  0  0  0  0  0  0
    8.1301   -5.9157    0.0000 C   0  0  0  0  0  0  0  0  0  0  0  0
    9.8622   -6.9157    0.0000 C   0  0  0  0  0  0  0  0  0  0  0  0
   10.7561   -5.3810    0.0000 C   0  0  0  0  0  0  0  0  0  0  0  0
    8.1301   -6.9157    0.0000 C   0  0  0  0  0  0  0  0  0  0  0  0
    8.9962   -7.4157    0.0000 C   0  0  0  0  0  0  0  0  0  0  0  0
   10.7561   -7.4503    0.0000 C   0  0  0  0  0  0  0  0  0  0  0  0
   11.6622   -5.8949    0.0000 C   0  0  0  0  0  0  0  0  0  0  0  0
   11.6622   -6.9365    0.0000 C   0  0  0  0  0  0  0  0  0  0  0  0
    3.8066    5.4343    0.0000 H   0  0  0  0  0  0  0  0  0  0  0  0
    3.8066    2.7343    0.0000 H   0  0  0  0  0  0  0  0  0  0  0  0
    5.0646    5.5593    0.0000 H   0  0  0  0  0  0  0  0  0  0  0  0
    4.2675    5.5593    0.0000 H   0  0  0  0  0  0  0  0  0  0  0  0
    4.2675    2.6094    0.0000 H   0  0  0  0  0  0  0  0  0  0  0  0
    5.0646    2.6094    0.0000 H   0  0  0  0  0  0  0  0  0  0  0  0
    3.3107    5.5888    0.0000 H   0  0  0  0  0  0  0  0  0  0  0  0
    2.5124    5.5980    0.0000 H   0  0  0  0  0  0  0  0  0  0  0  0
    2.5124    2.5706    0.0000 H   0  0  0  0  0  0  0  0  0  0  0  0
    3.3107    2.5799    0.0000 H   0  0  0  0  0  0  0  0  0  0  0  0
    6.0690    4.2743    0.0000 H   0  0  0  0  0  0  0  0  0  0  0  0
    1.7909    5.1888    0.0000 H   0  0  0  0  0  0  0  0  0  0  0  0
    1.3891    4.4990    0.0000 H   0  0  0  0  0  0  0  0  0  0  0  0
    1.3891    3.6696    0.0000 H   0  0  0  0  0  0  0  0  0  0  0  0
    1.7909    2.9798    0.0000 H   0  0  0  0  0  0  0  0  0  0  0  0
    7.0087    2.9767    0.0000 H   0  0  0  0  0  0  0  0  0  0  0  0
    6.6101    3.6669    0.0000 H   0  0  0  0  0  0  0  0  0  0  0  0
    6.3981    1.4643    0.0000 H   0  0  0  0  0  0  0  0  0  0  0  0
    7.8010    1.2743    0.0000 H   0  0  0  0  0  0  0  0  0  0  0  0
    5.8612    6.3943    0.0000 H   0  0  0  0  0  0  0  0  0  0  0  0
    8.5287    2.5593    0.0000 H   0  0  0  0  0  0  0  0  0  0  0  0
    7.7316    2.5593    0.0000 H   0  0  0  0  0  0  0  0  0  0  0  0
    4.9951    1.8943    0.0000 H   0  0  0  0  0  0  0  0  0  0  0  0
    7.8010    0.2743    0.0000 H   0  0  0  0  0  0  0  0  0  0  0  0
    8.4401    6.5474    0.0000 H   0  0  0  0  0  0  0  0  0  0  0  0
    8.6671    7.3943    0.0000 H   0  0  0  0  0  0  0  0  0  0  0  0
    7.8201    7.6212    0.0000 H   0  0  0  0  0  0  0  0  0  0  0  0
    7.3010    7.7603    0.0000 H   0  0  0  0  0  0  0  0  0  0  0  0
    6.4541    7.9873    0.0000 H   0  0  0  0  0  0  0  0  0  0  0  0
    6.2272    7.1403    0.0000 H   0  0  0  0  0  0  0  0  0  0  0  0
    7.2272    5.4083    0.0000 H   0  0  0  0  0  0  0  0  0  0  0  0
    8.0741    5.1814    0.0000 H   0  0  0  0  0  0  0  0  0  0  0  0
    8.3010    6.0283    0.0000 H   0  0  0  0  0  0  0  0  0  0  0  0
    8.4592    0.2743    0.0000 H   0  0  0  0  0  0  0  0  0  0  0  0
    9.8622    2.7043    0.0000 H   0  0  0  0  0  0  0  0  0  0  0  0
    9.8622   -0.5357    0.0000 H   0  0  0  0  0  0  0  0  0  0  0  0
   11.2651    1.8943    0.0000 H   0  0  0  0  0  0  0  0  0  0  0  0
   11.2651    0.2743    0.0000 H   0  0  0  0  0  0  0  0  0  0  0  0
    7.8010   -1.1057    0.0000 H   0  0  0  0  0  0  0  0  0  0  0  0
    4.9951   -2.7257    0.0000 H   0  0  0  0  0  0  0  0  0  0  0  0
    4.9760   -0.3787    0.0000 H   0  0  0  0  0  0  0  0  0  0  0  0
    4.1291   -0.6057    0.0000 H   0  0  0  0  0  0  0  0  0  0  0  0
    4.3560   -1.4526    0.0000 H   0  0  0  0  0  0  0  0  0  0  0  0
    6.3981   -3.5357    0.0000 H   0  0  0  0  0  0  0  0  0  0  0  0
    9.6067   -4.5233    0.0000 H   0  0  0  0  0  0  0  0  0  0  0  0
    9.2082   -3.8331    0.0000 H   0  0  0  0  0  0  0  0  0  0  0  0
    6.9541   -3.8788    0.0000 H   0  0  0  0  0  0  0  0  0  0  0  0
    6.7272   -4.7257    0.0000 H   0  0  0  0  0  0  0  0  0  0  0  0
    7.5741   -4.9526    0.0000 H   0  0  0  0  0  0  0  0  0  0  0  0
    7.5932   -5.6057    0.0000 H   0  0  0  0  0  0  0  0  0  0  0  0
   10.7490   -4.7611    0.0000 H   0  0  0  0  0  0  0  0  0  0  0  0
    7.5932   -7.2257    0.0000 H   0  0  0  0  0  0  0  0  0  0  0  0
    8.9962   -8.0357    0.0000 H   0  0  0  0  0  0  0  0  0  0  0  0
   10.7490   -8.0703    0.0000 H   0  0  0  0  0  0  0  0  0  0  0  0
   12.1979   -5.5828    0.0000 H   0  0  0  0  0  0  0  0  0  0  0  0
   12.1979   -7.2486    0.0000 H   0  0  0  0  0  0  0  0  0  0  0  0
  1 19  2  0  0  0  0
 20  2  1  1  0  0  0
  2 76  1  0  0  0  0
  3 28  2  0  0  0  0
  4 41  2  0  0  0  0
  5 12  1  0  0  0  0
  5 15  1  0  0  0  0
  5 18  1  0  0  0  0
  6 19  1  0  0  0  0
  6 22  1  0  0  0  0
  6 73  1  0  0  0  0
 21  7  1  6  0  0  0
  7 28  1  0  0  0  0
  7 77  1  0  0  0  0
  8 41  1  0  0  0  0
  8 42  1  0  0  0  0
  8 43  1  0  0  0  0
  9 10  1  0  0  0  0
  9 11  1  0  0  0  0
  9 13  1  0  0  0  0
  9 54  1  6  0  0  0
 10 12  1  0  0  0  0
 10 14  1  0  0  0  0
 10 55  1  6  0  0  0
 11 15  1  0  0  0  0
 11 56  1  0  0  0  0
 11 57  1  0  0  0  0
 12 58  1  0  0  0  0
 12 59  1  0  0  0  0
 13 16  1  0  0  0  0
 13 60  1  0  0  0  0
 13 61  1  0  0  0  0
 14 17  1  0  0  0  0
 14 62  1  0  0  0  0
 14 63  1  0  0  0  0
 15 19  1  1  0  0  0
 15 64  1  0  0  0  0
 16 17  1  0  0  0  0
 16 65  1  0  0  0  0
 16 66  1  0  0  0  0
 17 67  1  0  0  0  0
 17 68  1  0  0  0  0
 18 20  1  0  0  0  0
 18 69  1  0  0  0  0
 18 70  1  0  0  0  0
 20 21  1  0  0  0  0
 20 71  1  0  0  0  0
 21 23  1  0  0  0  0
 21 72  1  0  0  0  0
 22 24  1  0  0  0  0
 22 25  1  0  0  0  0
 22 26  1  0  0  0  0
 23 27  1  0  0  0  0
 23 74  1  0  0  0  0
 23 75  1  0  0  0  0
 24 78  1  0  0  0  0
 24 79  1  0  0  0  0
 24 80  1  0  0  0  0
 25 81  1  0  0  0  0
 25 82  1  0  0  0  0
 25 83  1  0  0  0  0
 26 84  1  0  0  0  0
 26 85  1  0  0  0  0
 26 86  1  0  0  0  0
 27 29  2  0  0  0  0
 27 30  1  0  0  0  0
 28 31  1  0  0  0  0
 29 32  1  0  0  0  0
 29 87  1  0  0  0  0
 30 33  2  0  0  0  0
 30 88  1  0  0  0  0
 31 34  2  0  0  0  0
 31 36  1  0  0  0  0
 32 35  2  0  0  0  0
 32 89  1  0  0  0  0
 33 35  1  0  0  0  0
 33 90  1  0  0  0  0
 34 38  1  0  0  0  0
 34 39  1  0  0  0  0
 35 91  1  0  0  0  0
 36 37  2  0  0  0  0
 36 92  1  0  0  0  0
 37 40  1  0  0  0  0
 37 41  1  0  0  0  0
 38 40  2  0  0  0  0
 38 93  1  0  0  0  0
 39 94  1  0  0  0  0
 39 95  1  0  0  0  0
 39 96  1  0  0  0  0
 40 97  1  0  0  0  0
 42 44  1  0  0  0  0
 42 98  1  0  0  0  0
 42 99  1  0  0  0  0
 43100  1  0  0  0  0
 43101  1  0  0  0  0
 43102  1  0  0  0  0
 44 45  1  0  0  0  0
 44 46  2  0  0  0  0
 45 47  1  0  0  0  0
 45 48  2  0  0  0  0
 46 49  1  0  0  0  0
 46103  1  0  0  0  0
 47 50  1  0  0  0  0
 47 51  2  0  0  0  0
 48 52  1  0  0  0  0
 48104  1  0  0  0  0
 49 50  2  0  0  0  0
 49105  1  0  0  0  0
 50106  1  0  0  0  0
 51 53  1  0  0  0  0
 51107  1  0  0  0  0
 52 53  2  0  0  0  0
 52108  1  0  0  0  0
 53109  1  0  0  0  0
M  END
> <PUBCHEM_COMPOUND_CID>
508198
> <PUBCHEM_COMPOUND_CANONICALIZED>
1
> <PUBCHEM_CACTVS_COMPLEXITY>
1210
> <PUBCHEM_CACTVS_HBOND_ACCEPTOR>
5
> <PUBCHEM_CACTVS_HBOND_DONOR>
3
> <PUBCHEM_CACTVS_ROTATABLE_BOND>
12
> <PUBCHEM_CACTVS_SUBSKEYS>
AAADcfB/uAAAAAAAAAAAAAAAAAAAAAAAAAA8YMGDAAAAAADxVAAAHgAQCAAADbzhmAYyAMPAAgCIAiFSEACCAAAkAAAIiIGIBMgKcDKA1TGUYQhklgCYiYeYy+COwAACAAAQAACAAAQAACAAAAAAAAAAAA==
> <PUBCHEM_IUPAC_OPENEYE_NAME>
N3-[(1S,2S)-3-[(3S,4aS,8aS)-3-(tert-butylcarbamoyl)-3,4,4a,5,6,7,8,8a-octahydro-1H-isoquinolin-2-yl]-1-benzyl-2-hydroxy-propyl]-N1,4-dimethyl-N1-(1-naphthylmethyl)benzene-1,3-dicarboxamide
> <PUBCHEM_IUPAC_CAS_NAME>
N3-[(2S,3S)-4-[(3S,4aS,8aS)-3-[(tert-butylamino)-oxomethyl]-3,4,4a,5,6,7,8,8a-octahydro-1H-isoquinolin-2-yl]-3-hydroxy-1-phenylbutan-2-yl]-N1,4-dimethyl-N1-(1-naphthalenylmethyl)benzene-1,3-dicarboxamide
> <PUBCHEM_IUPAC_NAME_MARKUP>
3-<I>N</I>-[(2<I>S</I>,3<I>S</I>)-4-[(3<I>S</I>,4<I>a</I><I>S</I>,8<I>a</I><I>S</I>)-3-(<I>tert</I>-butylcarbamoyl)-3,4,4<I>a</I>,5,6,7,8,8<I>a</I>-octahydro-1<I>H</I>-isoquinolin-2-yl]-3-hydroxy-1-phenylbutan-2-yl]-1-<I>N</I>,4-dimethyl-1-<I>N</I>-(naphthalen-1-ylmethyl)benzene-1,3-dicarboxamide
> <PUBCHEM_IUPAC_NAME>
3-N-[(2S,3S)-4-[(3S,4aS,8aS)-3-(tert-butylcarbamoyl)-3,4,4a,5,6,7,8,8a-octahydro-1H-isoquinolin-2-yl]-3-hydroxy-1-phenylbutan-2-yl]-1-N,4-dimethyl-1-N-(naphthalen-1-ylmethyl)benzene-1,3-dicarboxamide
> <PUBCHEM_IUPAC_SYSTEMATIC_NAME>
N3-[(2S,3S)-4-[(3S,4aS,8aS)-3-(tert-butylcarbamoyl)-3,4,4a,5,6,7,8,8a-octahydro-1H-isoquinolin-2-yl]-3-oxidanyl-1-phenyl-butan-2-yl]-N1,4-dimethyl-N1-(naphthalen-1-ylmethyl)benzene-1,3-dicarboxamide
> <PUBCHEM_IUPAC_TRADITIONAL_NAME>
N'-[(1S,2S)-3-[(3S,4aS,8aS)-3-(tert-butylcarbamoyl)-3,4,4a,5,6,7,8,8a-octahydro-1H-isoquinolin-2-yl]-1-benzyl-2-hydroxy-propyl]-N,4-dimethyl-N-(1-naphthylmethyl)isophthalamide
> <PUBCHEM_IUPAC_INCHI>
InChI=1S/C45H56N4O4/c1-30-22-23-34(44(53)48(5)27-36-20-13-19-32-16-11-12-21-37(32)36)25-38(30)42(51)46-39(24-31-14-7-6-8-15-31)41(50)29-49-28-35-18-10-9-17-33(35)26-40(49)43(52)47-45(2,3)4/h6-8,11-16,19-23,25,33,35,39-41,50H,9-10,17-18,24,26-29H2,1-5H3,(H,46,51)(H,47,52)/t33-,35+,39-,40-,41-/m0/s1
> <PUBCHEM_IUPAC_INCHIKEY>
VBQAZTSYWRNVIK-CYJRTLQBSA-N
> <PUBCHEM_XLOGP3_AA>
8
> <PUBCHEM_EXACT_MASS>
716.43015628
> <PUBCHEM_MOLECULAR_FORMULA>
C45H56N4O4
> <PUBCHEM_MOLECULAR_WEIGHT>
716.9
> <PUBCHEM_OPENEYE_CAN_SMILES>
CC1=C(C=C(C=C1)C(=O)N(C)CC2=CC=CC3=CC=CC=C32)C(=O)NC(CC4=CC=CC=C4)C(CN5CC6CCCCC6CC5C(=O)NC(C)(C)C)O
> <PUBCHEM_OPENEYE_ISO_SMILES>
CC1=C(C=C(C=C1)C(=O)N(C)CC2=CC=CC3=CC=CC=C32)C(=O)N[C@@H](CC4=CC=CC=C4)[C@H](CN5C[C@H]6CCCC[C@H]6C[C@H]5C(=O)NC(C)(C)C)O
> <PUBCHEM_CACTVS_TPSA>
102
> <PUBCHEM_MONOISOTOPIC_WEIGHT>
716.43015628
> <PUBCHEM_TOTAL_CHARGE>
0
> <PUBCHEM_HEAVY_ATOM_COUNT>
53
> <PUBCHEM_ATOM_DEF_STEREO_COUNT>
5
> <PUBCHEM_ATOM_UDEF_STEREO_COUNT>
0
> <PUBCHEM_BOND_DEF_STEREO_COUNT>
0
> <PUBCHEM_BOND_UDEF_STEREO_COUNT>
0
> <PUBCHEM_ISOTOPIC_ATOM_COUNT>
0
> <PUBCHEM_COMPONENT_COUNT>
1
> <PUBCHEM_CACTVS_TAUTO_COUNT>
-1
> <PUBCHEM_COORDINATE_TYPE>
1
5
255
> <PUBCHEM_BONDANNOTATIONS>
10  55  6
15  19  5
20  2  5
27  29  8
27  30  8
29  32  8
30  33  8
31  34  8
31  36  8
32  35  8
33  35  8
34  38  8
36  37  8
37  40  8
38  40  8
44  45  8
44  46  8
45  47  8
45  48  8
46  49  8
47  50  8
47  51  8
48  52  8
49  50  8
51  53  8
52  53  8
21  7  6
9  54  6
$$$$
