508168
  -OEChem-10302200282D
 63 64  0     1  0  0  0  0  0999 V2000
    3.9019   -3.2601    0.0000 S   0  0  0  0  0  0  0  0  0  0  0  0
    6.5000    1.9720    0.0000 O   0  0  0  0  0  0  0  0  0  0  0  0
    7.3660   -3.2601    0.0000 O   0  0  0  0  0  0  0  0  0  0  0  0
    3.0000    2.8380    0.0000 O   0  0  0  0  0  0  0  0  0  0  0  0
    3.0000    1.1060    0.0000 O   0  0  0  0  0  0  0  0  0  0  0  0
    6.5000   -1.7601    0.0000 N   0  0  0  0  0  0  0  0  0  0  0  0
    5.0000    1.1060    0.0000 N   0  0  0  0  0  0  0  0  0  0  0  0
    5.6340   -4.2601    0.0000 N   0  0  0  0  0  0  0  0  0  0  0  0
    6.5000    0.2399    0.0000 C   0  0  0  0  0  0  0  0  0  0  0  0
    7.3660   -0.2601    0.0000 C   0  0  0  0  0  0  0  0  0  0  0  0
    5.6340   -0.2601    0.0000 C   0  0  0  0  0  0  0  0  0  0  0  0
    7.3660   -1.2601    0.0000 C   0  0  0  0  0  0  0  0  0  0  0  0
    5.6340   -1.2601    0.0000 C   0  0  0  0  0  0  0  0  0  0  0  0
    7.4397    0.5820    0.0000 C   0  0  0  0  0  0  0  0  0  0  0  0
    6.0000    1.1060    0.0000 C   0  0  0  0  0  0  0  0  0  0  0  0
    6.5000   -2.7601    0.0000 C   0  0  0  0  0  0  0  0  0  0  0  0
    4.5000    1.9720    0.0000 C   0  0  1  0  0  0  0  0  0  0  0  0
    7.6133    1.5668    0.0000 C   0  0  0  0  0  0  0  0  0  0  0  0
    8.2057   -0.0608    0.0000 C   0  0  0  0  0  0  0  0  0  0  0  0
    5.0000    2.8380    0.0000 C   0  0  0  0  0  0  0  0  0  0  0  0
    5.6340   -3.2601    0.0000 C   0  0  2  0  0  0  0  0  0  0  0  0
    4.5000    3.7040    0.0000 C   0  0  0  0  0  0  0  0  0  0  0  0
    8.5530    1.9088    0.0000 C   0  0  0  0  0  0  0  0  0  0  0  0
    9.1454    0.2812    0.0000 C   0  0  0  0  0  0  0  0  0  0  0  0
    3.5000    1.9720    0.0000 C   0  0  0  0  0  0  0  0  0  0  0  0
    4.7680   -2.7601    0.0000 C   0  0  0  0  0  0  0  0  0  0  0  0
    9.3191    1.2660    0.0000 C   0  0  0  0  0  0  0  0  0  0  0  0
    5.0000    4.5701    0.0000 C   0  0  0  0  0  0  0  0  0  0  0  0
    3.5000    3.7040    0.0000 C   0  0  0  0  0  0  0  0  0  0  0  0
    2.0000    2.8380    0.0000 C   0  0  0  0  0  0  0  0  0  0  0  0
    7.9766   -0.3677    0.0000 H   0  0  0  0  0  0  0  0  0  0  0  0
    7.5781    0.3225    0.0000 H   0  0  0  0  0  0  0  0  0  0  0  0
    5.4219    0.3225    0.0000 H   0  0  0  0  0  0  0  0  0  0  0  0
    5.0234   -0.3677    0.0000 H   0  0  0  0  0  0  0  0  0  0  0  0
    7.5781   -1.8427    0.0000 H   0  0  0  0  0  0  0  0  0  0  0  0
    7.9766   -1.1524    0.0000 H   0  0  0  0  0  0  0  0  0  0  0  0
    5.0234   -1.1524    0.0000 H   0  0  0  0  0  0  0  0  0  0  0  0
    5.4219   -1.8427    0.0000 H   0  0  0  0  0  0  0  0  0  0  0  0
    4.6900    0.5690    0.0000 H   0  0  0  0  0  0  0  0  0  0  0  0
    4.1900    1.4350    0.0000 H   0  0  0  0  0  0  0  0  0  0  0  0
    7.1384    1.9653    0.0000 H   0  0  0  0  0  0  0  0  0  0  0  0
    8.0981   -0.6714    0.0000 H   0  0  0  0  0  0  0  0  0  0  0  0
    5.4750    2.4395    0.0000 H   0  0  0  0  0  0  0  0  0  0  0  0
    5.4750    3.2365    0.0000 H   0  0  0  0  0  0  0  0  0  0  0  0
    6.1709   -3.5701    0.0000 H   0  0  0  0  0  0  0  0  0  0  0  0
    5.1200    3.7040    0.0000 H   0  0  0  0  0  0  0  0  0  0  0  0
    8.6607    2.5194    0.0000 H   0  0  0  0  0  0  0  0  0  0  0  0
    9.6204   -0.1173    0.0000 H   0  0  0  0  0  0  0  0  0  0  0  0
    5.1665   -2.2851    0.0000 H   0  0  0  0  0  0  0  0  0  0  0  0
    4.3694   -2.2851    0.0000 H   0  0  0  0  0  0  0  0  0  0  0  0
    9.9017    1.4780    0.0000 H   0  0  0  0  0  0  0  0  0  0  0  0
    5.5369    4.2601    0.0000 H   0  0  0  0  0  0  0  0  0  0  0  0
    5.3100    5.1070    0.0000 H   0  0  0  0  0  0  0  0  0  0  0  0
    4.4631    4.8801    0.0000 H   0  0  0  0  0  0  0  0  0  0  0  0
    3.5000    4.3240    0.0000 H   0  0  0  0  0  0  0  0  0  0  0  0
    2.8800    3.7040    0.0000 H   0  0  0  0  0  0  0  0  0  0  0  0
    3.5000    3.0840    0.0000 H   0  0  0  0  0  0  0  0  0  0  0  0
    5.0970   -4.5701    0.0000 H   0  0  0  0  0  0  0  0  0  0  0  0
    6.1709   -4.5701    0.0000 H   0  0  0  0  0  0  0  0  0  0  0  0
    3.3650   -2.9501    0.0000 H   0  0  0  0  0  0  0  0  0  0  0  0
    2.0000    3.4580    0.0000 H   0  0  0  0  0  0  0  0  0  0  0  0
    1.3800    2.8380    0.0000 H   0  0  0  0  0  0  0  0  0  0  0  0
    2.0000    2.2180    0.0000 H   0  0  0  0  0  0  0  0  0  0  0  0
  1 26  1  0  0  0  0
  1 60  1  0  0  0  0
  2 15  2  0  0  0  0
  3 16  2  0  0  0  0
  4 25  1  0  0  0  0
  4 30  1  0  0  0  0
  5 25  2  0  0  0  0
  6 12  1  0  0  0  0
  6 13  1  0  0  0  0
  6 16  1  0  0  0  0
  7 15  1  0  0  0  0
 17  7  1  6  0  0  0
  7 39  1  0  0  0  0
 21  8  1  1  0  0  0
  8 58  1  0  0  0  0
  8 59  1  0  0  0  0
  9 10  1  0  0  0  0
  9 11  1  0  0  0  0
  9 14  1  0  0  0  0
  9 15  1  0  0  0  0
 10 12  1  0  0  0  0
 10 31  1  0  0  0  0
 10 32  1  0  0  0  0
 11 13  1  0  0  0  0
 11 33  1  0  0  0  0
 11 34  1  0  0  0  0
 12 35  1  0  0  0  0
 12 36  1  0  0  0  0
 13 37  1  0  0  0  0
 13 38  1  0  0  0  0
 14 18  2  0  0  0  0
 14 19  1  0  0  0  0
 16 21  1  0  0  0  0
 17 20  1  0  0  0  0
 17 25  1  0  0  0  0
 17 40  1  0  0  0  0
 18 23  1  0  0  0  0
 18 41  1  0  0  0  0
 19 24  2  0  0  0  0
 19 42  1  0  0  0  0
 20 22  1  0  0  0  0
 20 43  1  0  0  0  0
 20 44  1  0  0  0  0
 21 26  1  0  0  0  0
 21 45  1  0  0  0  0
 22 28  1  0  0  0  0
 22 29  1  0  0  0  0
 22 46  1  0  0  0  0
 23 27  2  0  0  0  0
 23 47  1  0  0  0  0
 24 27  1  0  0  0  0
 24 48  1  0  0  0  0
 26 49  1  0  0  0  0
 26 50  1  0  0  0  0
 27 51  1  0  0  0  0
 28 52  1  0  0  0  0
 28 53  1  0  0  0  0
 28 54  1  0  0  0  0
 29 55  1  0  0  0  0
 29 56  1  0  0  0  0
 29 57  1  0  0  0  0
 30 61  1  0  0  0  0
 30 62  1  0  0  0  0
 30 63  1  0  0  0  0
M  END
> <PUBCHEM_COMPOUND_CID>
508168
> <PUBCHEM_COMPOUND_CANONICALIZED>
1
> <PUBCHEM_CACTVS_COMPLEXITY>
599
> <PUBCHEM_CACTVS_HBOND_ACCEPTOR>
6
> <PUBCHEM_CACTVS_HBOND_DONOR>
3
> <PUBCHEM_CACTVS_ROTATABLE_BOND>
9
> <PUBCHEM_CACTVS_SUBSKEYS>
AAADcfB7OABAAAAAAAAAAAAAAAAAAAAAAAA8QAAAAAAAAAABAAAAHgQQAAAADyjF2AayCIPABASIAiHSGAACAAAgAAAIiIGIAIgKYDKAlTGVIAAklgCYiAeciMCPgAAAAAAAAAAAAAAAAAAAAAAAAAAAAA==
> <PUBCHEM_IUPAC_OPENEYE_NAME>
methyl (2S)-2-[[1-[(2R)-2-amino-3-sulfanyl-propanoyl]-4-phenyl-piperidine-4-carbonyl]amino]-4-methyl-pentanoate
> <PUBCHEM_IUPAC_CAS_NAME>
(2S)-2-[[[1-[(2R)-2-amino-3-mercapto-1-oxopropyl]-4-phenyl-4-piperidinyl]-oxomethyl]amino]-4-methylpentanoic acid methyl ester
> <PUBCHEM_IUPAC_NAME_MARKUP>
methyl (2<I>S</I>)-2-[[1-[(2<I>R</I>)-2-amino-3-sulfanylpropanoyl]-4-phenylpiperidine-4-carbonyl]amino]-4-methylpentanoate
> <PUBCHEM_IUPAC_NAME>
methyl (2S)-2-[[1-[(2R)-2-amino-3-sulfanylpropanoyl]-4-phenylpiperidine-4-carbonyl]amino]-4-methylpentanoate
> <PUBCHEM_IUPAC_SYSTEMATIC_NAME>
methyl (2S)-2-[[1-[(2R)-2-azanyl-3-sulfanyl-propanoyl]-4-phenyl-piperidin-4-yl]carbonylamino]-4-methyl-pentanoate
> <PUBCHEM_IUPAC_TRADITIONAL_NAME>
(2S)-2-[[1-[(2R)-2-amino-3-mercapto-propanoyl]-4-phenyl-isonipecotoyl]amino]-4-methyl-valeric acid methyl ester
> <PUBCHEM_IUPAC_INCHI>
InChI=1S/C22H33N3O4S/c1-15(2)13-18(20(27)29-3)24-21(28)22(16-7-5-4-6-8-16)9-11-25(12-10-22)19(26)17(23)14-30/h4-8,15,17-18,30H,9-14,23H2,1-3H3,(H,24,28)/t17-,18-/m0/s1
> <PUBCHEM_IUPAC_INCHIKEY>
QMCCVNYWKLFKCQ-ROUUACIJSA-N
> <PUBCHEM_XLOGP3_AA>
2
> <PUBCHEM_EXACT_MASS>
435.21917772
> <PUBCHEM_MOLECULAR_FORMULA>
C22H33N3O4S
> <PUBCHEM_MOLECULAR_WEIGHT>
435.6
> <PUBCHEM_OPENEYE_CAN_SMILES>
CC(C)CC(C(=O)OC)NC(=O)C1(CCN(CC1)C(=O)C(CS)N)C2=CC=CC=C2
> <PUBCHEM_OPENEYE_ISO_SMILES>
CC(C)C[C@@H](C(=O)OC)NC(=O)C1(CCN(CC1)C(=O)[C@H](CS)N)C2=CC=CC=C2
> <PUBCHEM_CACTVS_TPSA>
103
> <PUBCHEM_MONOISOTOPIC_WEIGHT>
435.21917772
> <PUBCHEM_TOTAL_CHARGE>
0
> <PUBCHEM_HEAVY_ATOM_COUNT>
30
> <PUBCHEM_ATOM_DEF_STEREO_COUNT>
2
> <PUBCHEM_ATOM_UDEF_STEREO_COUNT>
0
> <PUBCHEM_BOND_DEF_STEREO_COUNT>
0
> <PUBCHEM_BOND_UDEF_STEREO_COUNT>
0
> <PUBCHEM_ISOTOPIC_ATOM_COUNT>
0
> <PUBCHEM_COMPONENT_COUNT>
1
> <PUBCHEM_CACTVS_TAUTO_COUNT>
-1
> <PUBCHEM_COORDINATE_TYPE>
1
5
255
> <PUBCHEM_BONDANNOTATIONS>
14  18  8
14  19  8
18  23  8
19  24  8
23  27  8
24  27  8
17  7  6
21  8  5
$$$$
