508184
  -OEChem-10302200282D
104109  0     1  0  0  0  0  0999 V2000
    7.6138   -0.1687    0.0000 O   0  0  0  0  0  0  0  0  0  0  0  0
   13.2369   -2.6307    0.0000 O   0  0  0  0  0  0  0  0  0  0  0  0
   10.1921    2.1448    0.0000 O   0  0  0  0  0  0  0  0  0  0  0  0
    6.2619   -1.5921    0.0000 O   0  0  0  0  0  0  0  0  0  0  0  0
    6.6353   -0.3749    0.0000 O   0  0  0  0  0  0  0  0  0  0  0  0
   10.9065   -1.2449    0.0000 N   0  0  3  0  0  0  0  0  0  0  0  0
    9.5708    0.2437    0.0000 N   0  0  3  0  0  0  0  0  0  0  0  0
   11.8385    1.6067    0.0000 N   0  0  0  0  0  0  0  0  0  0  0  0
    4.9889    0.1631    0.0000 N   0  0  0  0  0  0  0  0  0  0  0  0
   12.0326   -3.7113    0.0000 N   0  0  0  0  0  0  0  0  0  0  0  0
   15.9050   -4.9157    0.0000 N   0  0  0  0  0  0  0  0  0  0  0  0
   10.5493    0.4499    0.0000 C   0  0  1  0  0  0  0  0  0  0  0  0
   11.2171   -0.2944    0.0000 C   0  0  0  0  0  0  0  0  0  0  0  0
    9.9280   -1.4511    0.0000 C   0  0  0  0  0  0  0  0  0  0  0  0
   11.5743   -1.9892    0.0000 C   0  0  0  0  0  0  0  0  0  0  0  0
    9.2601   -0.7068    0.0000 C   0  0  0  0  0  0  0  0  0  0  0  0
    8.9030    0.9880    0.0000 C   0  0  0  0  0  0  0  0  0  0  0  0
    7.9244    0.7818    0.0000 C   0  0  2  0  0  0  0  0  0  0  0  0
   10.8600    1.4004    0.0000 C   0  0  0  0  0  0  0  0  0  0  0  0
    7.2566    1.5261    0.0000 C   0  0  0  0  0  0  0  0  0  0  0  0
   10.8300   -2.6570    0.0000 C   0  0  0  0  0  0  0  0  0  0  0  0
   12.3186   -1.3214    0.0000 C   0  0  0  0  0  0  0  0  0  0  0  0
    6.2781    1.3199    0.0000 C   0  0  2  0  0  0  0  0  0  0  0  0
   12.2422   -2.7335    0.0000 C   0  0  0  0  0  0  0  0  0  0  0  0
    4.6783   -0.7874    0.0000 C   0  0  2  0  0  0  0  0  0  0  0  0
   12.5063    0.8624    0.0000 C   0  0  0  0  0  0  0  0  0  0  0  0
    5.2619   -1.5921    0.0000 C   0  0  1  0  0  0  0  0  0  0  0  0
    5.6103    2.0642    0.0000 C   0  0  0  0  0  0  0  0  0  0  0  0
    5.9674    0.3694    0.0000 C   0  0  0  0  0  0  0  0  0  0  0  0
    3.7320   -1.0921    0.0000 C   0  0  0  0  0  0  0  0  0  0  0  0
    4.6783   -2.3968    0.0000 C   0  0  0  0  0  0  0  0  0  0  0  0
    3.7320   -2.0921    0.0000 C   0  0  0  0  0  0  0  0  0  0  0  0
   13.1742    0.1181    0.0000 C   0  0  0  0  0  0  0  0  0  0  0  0
   13.2506    1.5302    0.0000 C   0  0  0  0  0  0  0  0  0  0  0  0
   11.7620    0.1945    0.0000 C   0  0  0  0  0  0  0  0  0  0  0  0
    5.9209    3.0147    0.0000 C   0  0  0  0  0  0  0  0  0  0  0  0
   13.6420   -3.5449    0.0000 C   0  0  0  0  0  0  0  0  0  0  0  0
    2.8660   -0.5921    0.0000 C   0  0  0  0  0  0  0  0  0  0  0  0
   12.8977   -4.2128    0.0000 C   0  0  0  0  0  0  0  0  0  0  0  0
    2.8660   -2.5921    0.0000 C   0  0  0  0  0  0  0  0  0  0  0  0
    2.0000   -1.0921    0.0000 C   0  0  0  0  0  0  0  0  0  0  0  0
    2.0000   -2.0921    0.0000 C   0  0  0  0  0  0  0  0  0  0  0  0
    6.8994    3.2209    0.0000 C   0  0  0  0  0  0  0  0  0  0  0  0
    5.2531    3.7590    0.0000 C   0  0  0  0  0  0  0  0  0  0  0  0
   14.6198   -3.7545    0.0000 C   0  0  0  0  0  0  0  0  0  0  0  0
    7.2101    4.1714    0.0000 C   0  0  0  0  0  0  0  0  0  0  0  0
    5.5637    4.7095    0.0000 C   0  0  0  0  0  0  0  0  0  0  0  0
   15.2902   -3.0126    0.0000 C   0  0  0  0  0  0  0  0  0  0  0  0
    6.5422    4.9157    0.0000 C   0  0  0  0  0  0  0  0  0  0  0  0
   14.9272   -4.7061    0.0000 C   0  0  0  0  0  0  0  0  0  0  0  0
   16.2680   -3.2222    0.0000 C   0  0  0  0  0  0  0  0  0  0  0  0
   16.5754   -4.1738    0.0000 C   0  0  0  0  0  0  0  0  0  0  0  0
   10.1352    0.9114    0.0000 H   0  0  0  0  0  0  0  0  0  0  0  0
   11.7641   -0.5864    0.0000 H   0  0  0  0  0  0  0  0  0  0  0  0
   11.5997    0.1935    0.0000 H   0  0  0  0  0  0  0  0  0  0  0  0
    9.4016   -1.7788    0.0000 H   0  0  0  0  0  0  0  0  0  0  0  0
   10.1592   -2.0264    0.0000 H   0  0  0  0  0  0  0  0  0  0  0  0
    8.7132   -0.4148    0.0000 H   0  0  0  0  0  0  0  0  0  0  0  0
    8.8776   -1.1947    0.0000 H   0  0  0  0  0  0  0  0  0  0  0  0
    9.4293    1.3156    0.0000 H   0  0  0  0  0  0  0  0  0  0  0  0
    8.6717    1.5633    0.0000 H   0  0  0  0  0  0  0  0  0  0  0  0
    8.3385    0.3203    0.0000 H   0  0  0  0  0  0  0  0  0  0  0  0
    7.7830    1.8537    0.0000 H   0  0  0  0  0  0  0  0  0  0  0  0
    7.0254    2.1014    0.0000 H   0  0  0  0  0  0  0  0  0  0  0  0
   10.4160   -2.1956    0.0000 H   0  0  0  0  0  0  0  0  0  0  0  0
   10.3686   -3.0711    0.0000 H   0  0  0  0  0  0  0  0  0  0  0  0
   11.2441   -3.1185    0.0000 H   0  0  0  0  0  0  0  0  0  0  0  0
   12.7327   -1.7828    0.0000 H   0  0  0  0  0  0  0  0  0  0  0  0
   12.7801   -0.9073    0.0000 H   0  0  0  0  0  0  0  0  0  0  0  0
   11.9046   -0.8599    0.0000 H   0  0  0  0  0  0  0  0  0  0  0  0
    6.6922    0.8584    0.0000 H   0  0  0  0  0  0  0  0  0  0  0  0
    5.2908   -0.6912    0.0000 H   0  0  0  0  0  0  0  0  0  0  0  0
   12.0311    2.1960    0.0000 H   0  0  0  0  0  0  0  0  0  0  0  0
    5.5436   -2.1444    0.0000 H   0  0  0  0  0  0  0  0  0  0  0  0
    5.0633    2.3562    0.0000 H   0  0  0  0  0  0  0  0  0  0  0  0
    5.2277    1.5763    0.0000 H   0  0  0  0  0  0  0  0  0  0  0  0
    4.4272   -2.9638    0.0000 H   0  0  0  0  0  0  0  0  0  0  0  0
    5.2156   -2.7061    0.0000 H   0  0  0  0  0  0  0  0  0  0  0  0
    4.5749    0.6246    0.0000 H   0  0  0  0  0  0  0  0  0  0  0  0
    8.0279   -0.6302    0.0000 H   0  0  0  0  0  0  0  0  0  0  0  0
   12.7127   -0.2960    0.0000 H   0  0  0  0  0  0  0  0  0  0  0  0
   13.5882   -0.3434    0.0000 H   0  0  0  0  0  0  0  0  0  0  0  0
   13.6356    0.5321    0.0000 H   0  0  0  0  0  0  0  0  0  0  0  0
   13.6647    1.0687    0.0000 H   0  0  0  0  0  0  0  0  0  0  0  0
   13.7121    1.9443    0.0000 H   0  0  0  0  0  0  0  0  0  0  0  0
   12.8366    1.9917    0.0000 H   0  0  0  0  0  0  0  0  0  0  0  0
   11.3480    0.6560    0.0000 H   0  0  0  0  0  0  0  0  0  0  0  0
   11.3005   -0.2195    0.0000 H   0  0  0  0  0  0  0  0  0  0  0  0
   12.1761   -0.2669    0.0000 H   0  0  0  0  0  0  0  0  0  0  0  0
    2.8660    0.0279    0.0000 H   0  0  0  0  0  0  0  0  0  0  0  0
   12.9615   -4.8295    0.0000 H   0  0  0  0  0  0  0  0  0  0  0  0
    2.8660   -3.2121    0.0000 H   0  0  0  0  0  0  0  0  0  0  0  0
    6.5719   -2.1290    0.0000 H   0  0  0  0  0  0  0  0  0  0  0  0
    1.4631   -0.7821    0.0000 H   0  0  0  0  0  0  0  0  0  0  0  0
    1.4631   -2.4021    0.0000 H   0  0  0  0  0  0  0  0  0  0  0  0
    7.3135    2.7594    0.0000 H   0  0  0  0  0  0  0  0  0  0  0  0
    4.6464    3.6311    0.0000 H   0  0  0  0  0  0  0  0  0  0  0  0
    7.8168    4.2993    0.0000 H   0  0  0  0  0  0  0  0  0  0  0  0
    5.1497    5.1710    0.0000 H   0  0  0  0  0  0  0  0  0  0  0  0
   15.0997   -2.4226    0.0000 H   0  0  0  0  0  0  0  0  0  0  0  0
    6.7349    5.5051    0.0000 H   0  0  0  0  0  0  0  0  0  0  0  0
   14.5115   -5.1662    0.0000 H   0  0  0  0  0  0  0  0  0  0  0  0
   16.6837   -2.7621    0.0000 H   0  0  0  0  0  0  0  0  0  0  0  0
   17.1816   -4.3037    0.0000 H   0  0  0  0  0  0  0  0  0  0  0  0
 18  1  1  1  0  0  0
  1 80  1  0  0  0  0
  2 24  1  0  0  0  0
  2 37  1  0  0  0  0
  3 19  2  0  0  0  0
 27  4  1  6  0  0  0
  4 93  1  0  0  0  0
  5 29  2  0  0  0  0
  6 13  1  0  0  0  0
  6 14  1  0  0  0  0
  6 15  1  0  0  0  0
  7 12  1  0  0  0  0
  7 16  1  0  0  0  0
  7 17  1  0  0  0  0
  8 19  1  0  0  0  0
  8 26  1  0  0  0  0
  8 73  1  0  0  0  0
 25  9  1  6  0  0  0
  9 29  1  0  0  0  0
  9 79  1  0  0  0  0
 10 24  2  0  0  0  0
 10 39  1  0  0  0  0
 11 50  1  0  0  0  0
 11 52  2  0  0  0  0
 12 13  1  0  0  0  0
 12 19  1  6  0  0  0
 12 53  1  0  0  0  0
 13 54  1  0  0  0  0
 13 55  1  0  0  0  0
 14 16  1  0  0  0  0
 14 56  1  0  0  0  0
 14 57  1  0  0  0  0
 15 21  1  0  0  0  0
 15 22  1  0  0  0  0
 15 24  1  0  0  0  0
 16 58  1  0  0  0  0
 16 59  1  0  0  0  0
 17 18  1  0  0  0  0
 17 60  1  0  0  0  0
 17 61  1  0  0  0  0
 18 20  1  0  0  0  0
 18 62  1  0  0  0  0
 23 20  1  1  0  0  0
 20 63  1  0  0  0  0
 20 64  1  0  0  0  0
 21 65  1  0  0  0  0
 21 66  1  0  0  0  0
 21 67  1  0  0  0  0
 22 68  1  0  0  0  0
 22 69  1  0  0  0  0
 22 70  1  0  0  0  0
 23 28  1  0  0  0  0
 23 29  1  0  0  0  0
 23 71  1  0  0  0  0
 25 27  1  0  0  0  0
 25 30  1  0  0  0  0
 25 72  1  0  0  0  0
 26 33  1  0  0  0  0
 26 34  1  0  0  0  0
 26 35  1  0  0  0  0
 27 31  1  0  0  0  0
 27 74  1  0  0  0  0
 28 36  1  0  0  0  0
 28 75  1  0  0  0  0
 28 76  1  0  0  0  0
 30 32  1  0  0  0  0
 30 38  2  0  0  0  0
 31 32  1  0  0  0  0
 31 77  1  0  0  0  0
 31 78  1  0  0  0  0
 32 40  2  0  0  0  0
 33 81  1  0  0  0  0
 33 82  1  0  0  0  0
 33 83  1  0  0  0  0
 34 84  1  0  0  0  0
 34 85  1  0  0  0  0
 34 86  1  0  0  0  0
 35 87  1  0  0  0  0
 35 88  1  0  0  0  0
 35 89  1  0  0  0  0
 36 43  2  0  0  0  0
 36 44  1  0  0  0  0
 37 39  2  0  0  0  0
 37 45  1  0  0  0  0
 38 41  1  0  0  0  0
 38 90  1  0  0  0  0
 39 91  1  0  0  0  0
 40 42  1  0  0  0  0
 40 92  1  0  0  0  0
 41 42  2  0  0  0  0
 41 94  1  0  0  0  0
 42 95  1  0  0  0  0
 43 46  1  0  0  0  0
 43 96  1  0  0  0  0
 44 47  2  0  0  0  0
 44 97  1  0  0  0  0
 45 48  1  0  0  0  0
 45 50  2  0  0  0  0
 46 49  2  0  0  0  0
 46 98  1  0  0  0  0
 47 49  1  0  0  0  0
 47 99  1  0  0  0  0
 48 51  2  0  0  0  0
 48100  1  0  0  0  0
 49101  1  0  0  0  0
 50102  1  0  0  0  0
 51 52  1  0  0  0  0
 51103  1  0  0  0  0
 52104  1  0  0  0  0
M  END
> <PUBCHEM_COMPOUND_CID>
508184
> <PUBCHEM_COMPOUND_CANONICALIZED>
1
> <PUBCHEM_CACTVS_COMPLEXITY>
1170
> <PUBCHEM_CACTVS_HBOND_ACCEPTOR>
9
> <PUBCHEM_CACTVS_HBOND_DONOR>
4
> <PUBCHEM_CACTVS_ROTATABLE_BOND>
13
> <PUBCHEM_CACTVS_SUBSKEYS>
AAADcfB/uAAAAAAAAAAAAAAAAAAAAeIAAAA8eIEAAAAAAGAB9AAAHgAQCAAADbzhmgY+hJPIFkCoArF3VASCiCA/QiAI2KG7bNgOdvrA9bmfeYjm1gHY6ce62fKOgAAAAAAQAAAAAAAAACAAAKAACQgAAA==
> <PUBCHEM_IUPAC_OPENEYE_NAME>
(2S)-1-[(2S,4S)-4-benzyl-2-hydroxy-5-[[(1S,2R)-2-hydroxyindan-1-yl]amino]-5-oxo-pentyl]-N-tert-butyl-4-[1-methyl-1-[5-(3-pyridyl)oxazol-2-yl]ethyl]piperazine-2-carboxamide
> <PUBCHEM_IUPAC_CAS_NAME>
(2S)-N-tert-butyl-1-[(2S,4S)-2-hydroxy-5-[[(1S,2R)-2-hydroxy-2,3-dihydro-1H-inden-1-yl]amino]-5-oxo-4-(phenylmethyl)pentyl]-4-[2-[5-(3-pyridinyl)-2-oxazolyl]propan-2-yl]-2-piperazinecarboxamide
> <PUBCHEM_IUPAC_NAME_MARKUP>
(2<I>S</I>)-1-[(2<I>S</I>,4<I>S</I>)-4-benzyl-2-hydroxy-5-[[(1<I>S</I>,2<I>R</I>)-2-hydroxy-2,3-dihydro-1<I>H</I>-inden-1-yl]amino]-5-oxopentyl]-<I>N</I>-<I>tert</I>-butyl-4-[2-(5-pyridin-3-yl-1,3-oxazol-2-yl)propan-2-yl]piperazine-2-carboxamide
> <PUBCHEM_IUPAC_NAME>
(2S)-1-[(2S,4S)-4-benzyl-2-hydroxy-5-[[(1S,2R)-2-hydroxy-2,3-dihydro-1H-inden-1-yl]amino]-5-oxopentyl]-N-tert-butyl-4-[2-(5-pyridin-3-yl-1,3-oxazol-2-yl)propan-2-yl]piperazine-2-carboxamide
> <PUBCHEM_IUPAC_SYSTEMATIC_NAME>
(2S)-N-tert-butyl-1-[(2S,4S)-2-oxidanyl-5-[[(1S,2R)-2-oxidanyl-2,3-dihydro-1H-inden-1-yl]amino]-5-oxidanylidene-4-(phenylmethyl)pentyl]-4-[2-(5-pyridin-3-yl-1,3-oxazol-2-yl)propan-2-yl]piperazine-2-carboxamide
> <PUBCHEM_IUPAC_TRADITIONAL_NAME>
(2S)-1-[(2S,4S)-4-benzyl-2-hydroxy-5-[[(1S,2R)-2-hydroxyindan-1-yl]amino]-5-keto-pentyl]-N-tert-butyl-4-[1-methyl-1-[5-(3-pyridyl)oxazol-2-yl]ethyl]piperazine-2-carboxamide
> <PUBCHEM_IUPAC_INCHI>
InChI=1S/C41H52N6O5/c1-40(2,3)45-38(51)33-26-47(41(4,5)39-43-24-35(52-39)29-15-11-17-42-23-29)19-18-46(33)25-31(48)21-30(20-27-12-7-6-8-13-27)37(50)44-36-32-16-10-9-14-28(32)22-34(36)49/h6-17,23-24,30-31,33-34,36,48-49H,18-22,25-26H2,1-5H3,(H,44,50)(H,45,51)/t30-,31-,33-,34+,36-/m0/s1
> <PUBCHEM_IUPAC_INCHIKEY>
LVHIHLBVAXBSME-RDWKEUFPSA-N
> <PUBCHEM_XLOGP3_AA>
3.5
> <PUBCHEM_EXACT_MASS>
708.39991878
> <PUBCHEM_MOLECULAR_FORMULA>
C41H52N6O5
> <PUBCHEM_MOLECULAR_WEIGHT>
708.9
> <PUBCHEM_OPENEYE_CAN_SMILES>
CC(C)(C)NC(=O)C1CN(CCN1CC(CC(CC2=CC=CC=C2)C(=O)NC3C(CC4=CC=CC=C34)O)O)C(C)(C)C5=NC=C(O5)C6=CN=CC=C6
> <PUBCHEM_OPENEYE_ISO_SMILES>
CC(C)(C)NC(=O)[C@@H]1CN(CCN1C[C@H](C[C@H](CC2=CC=CC=C2)C(=O)N[C@@H]3[C@@H](CC4=CC=CC=C34)O)O)C(C)(C)C5=NC=C(O5)C6=CN=CC=C6
> <PUBCHEM_CACTVS_TPSA>
144
> <PUBCHEM_MONOISOTOPIC_WEIGHT>
708.39991878
> <PUBCHEM_TOTAL_CHARGE>
0
> <PUBCHEM_HEAVY_ATOM_COUNT>
52
> <PUBCHEM_ATOM_DEF_STEREO_COUNT>
5
> <PUBCHEM_ATOM_UDEF_STEREO_COUNT>
0
> <PUBCHEM_BOND_DEF_STEREO_COUNT>
0
> <PUBCHEM_BOND_UDEF_STEREO_COUNT>
0
> <PUBCHEM_ISOTOPIC_ATOM_COUNT>
0
> <PUBCHEM_COMPONENT_COUNT>
1
> <PUBCHEM_CACTVS_TAUTO_COUNT>
-1
> <PUBCHEM_COORDINATE_TYPE>
1
5
255
> <PUBCHEM_BONDANNOTATIONS>
18  1  5
10  24  8
10  39  8
11  50  8
11  52  8
12  19  6
2  24  8
2  37  8
23  20  5
30  32  8
30  38  8
32  40  8
36  43  8
36  44  8
37  39  8
38  41  8
27  4  6
40  42  8
41  42  8
43  46  8
44  47  8
45  48  8
45  50  8
46  49  8
47  49  8
48  51  8
51  52  8
25  9  6
$$$$
