508172
  -OEChem-10302200282D
102106  0     1  0  0  0  0  0999 V2000
    8.4227    1.6664    0.0000 O   0  0  0  0  0  0  0  0  0  0  0  0
    8.0160    0.7529    0.0000 O   0  0  0  0  0  0  0  0  0  0  0  0
    4.6660   -1.9676    0.0000 O   0  0  0  0  0  0  0  0  0  0  0  0
    8.6970   -0.4268    0.0000 O   0  0  0  0  0  0  0  0  0  0  0  0
    9.3295   -3.9764    0.0000 O   0  0  0  0  0  0  0  0  0  0  0  0
    7.7472   -4.6809    0.0000 O   0  0  0  0  0  0  0  0  0  0  0  0
   14.0278    5.7387    0.0000 O   0  0  0  0  0  0  0  0  0  0  0  0
   14.2088    4.0161    0.0000 O   0  0  0  0  0  0  0  0  0  0  0  0
    6.4337    1.4573    0.0000 N   0  0  0  0  0  0  0  0  0  0  0  0
    7.1147   -1.1312    0.0000 N   0  0  0  0  0  0  0  0  0  0  0  0
    8.2417    3.3890    0.0000 N   0  0  0  0  0  0  0  0  0  0  0  0
    7.9282   -2.9583    0.0000 N   0  0  0  0  0  0  0  0  0  0  0  0
    4.6660   -4.9676    0.0000 N   0  0  0  0  0  0  0  0  0  0  0  0
    6.8404    2.3709    0.0000 C   0  0  1  0  0  0  0  0  0  0  0  0
    5.9269    2.7776    0.0000 C   0  0  1  0  0  0  0  0  0  0  0  0
    6.7359    3.3654    0.0000 C   0  0  0  0  0  0  0  0  0  0  0  0
    7.8350    2.4754    0.0000 C   0  0  0  0  0  0  0  0  0  0  0  0
    4.9324    2.6731    0.0000 C   0  0  0  0  0  0  0  0  0  0  0  0
    6.6147   -0.2652    0.0000 C   0  0  3  0  0  0  0  0  0  0  0  0
    7.0215    0.6483    0.0000 C   0  0  0  0  0  0  0  0  0  0  0  0
    5.6366   -0.4731    0.0000 C   0  0  0  0  0  0  0  0  0  0  0  0
    5.5321   -1.4676    0.0000 C   0  0  2  0  0  0  0  0  0  0  0  0
    6.4456   -1.8744    0.0000 C   0  0  0  0  0  0  0  0  0  0  0  0
    4.3446    3.4821    0.0000 C   0  0  0  0  0  0  0  0  0  0  0  0
    8.1093   -1.2358    0.0000 C   0  0  0  0  0  0  0  0  0  0  0  0
    9.2362    3.4935    0.0000 C   0  0  0  0  0  0  0  0  0  0  0  0
    8.5160   -2.1493    0.0000 C   0  0  2  0  0  0  0  0  0  0  0  0
    9.5105   -2.2538    0.0000 C   0  0  0  0  0  0  0  0  0  0  0  0
    9.6429    4.4070    0.0000 C   0  0  0  0  0  0  0  0  0  0  0  0
   10.5050   -2.3584    0.0000 C   0  0  0  0  0  0  0  0  0  0  0  0
    9.6150   -1.2593    0.0000 C   0  0  0  0  0  0  0  0  0  0  0  0
    9.4060   -3.2484    0.0000 C   0  0  0  0  0  0  0  0  0  0  0  0
    4.6660   -2.9676    0.0000 C   0  0  0  0  0  0  0  0  0  0  0  0
   10.6375    4.5116    0.0000 C   0  0  0  0  0  0  0  0  0  0  0  0
    8.3349   -3.8719    0.0000 C   0  0  0  0  0  0  0  0  0  0  0  0
    3.8000   -3.4676    0.0000 C   0  0  0  0  0  0  0  0  0  0  0  0
    5.5321   -3.4676    0.0000 C   0  0  0  0  0  0  0  0  0  0  0  0
   11.2252    3.7026    0.0000 C   0  0  0  0  0  0  0  0  0  0  0  0
   11.0442    5.4251    0.0000 C   0  0  0  0  0  0  0  0  0  0  0  0
    3.8000   -4.4676    0.0000 C   0  0  0  0  0  0  0  0  0  0  0  0
    2.9061   -2.9330    0.0000 C   0  0  0  0  0  0  0  0  0  0  0  0
    5.5321   -4.4676    0.0000 C   0  0  0  0  0  0  0  0  0  0  0  0
    9.7362   -4.8900    0.0000 C   0  0  0  0  0  0  0  0  0  0  0  0
   12.2198    3.8071    0.0000 C   0  0  0  0  0  0  0  0  0  0  0  0
   12.0387    5.5296    0.0000 C   0  0  0  0  0  0  0  0  0  0  0  0
   12.6265    4.7206    0.0000 C   0  0  0  0  0  0  0  0  0  0  0  0
    2.9061   -5.0023    0.0000 C   0  0  0  0  0  0  0  0  0  0  0  0
    2.0000   -3.4468    0.0000 C   0  0  0  0  0  0  0  0  0  0  0  0
    2.0000   -4.4885    0.0000 C   0  0  0  0  0  0  0  0  0  0  0  0
   10.1429   -5.8035    0.0000 C   0  0  0  0  0  0  0  0  0  0  0  0
   10.6497   -4.4832    0.0000 C   0  0  0  0  0  0  0  0  0  0  0  0
    8.8227   -5.2967    0.0000 C   0  0  0  0  0  0  0  0  0  0  0  0
   13.6210    4.8252    0.0000 C   0  0  0  0  0  0  0  0  0  0  0  0
    5.7047    3.3564    0.0000 H   0  0  0  0  0  0  0  0  0  0  0  0
    7.3319    3.5363    0.0000 H   0  0  0  0  0  0  0  0  0  0  0  0
    6.4641    3.9227    0.0000 H   0  0  0  0  0  0  0  0  0  0  0  0
    5.8171    1.3925    0.0000 H   0  0  0  0  0  0  0  0  0  0  0  0
    4.6802    2.1067    0.0000 H   0  0  0  0  0  0  0  0  0  0  0  0
    7.2339   -0.2328    0.0000 H   0  0  0  0  0  0  0  0  0  0  0  0
    5.5718    0.1435    0.0000 H   0  0  0  0  0  0  0  0  0  0  0  0
    5.0166   -0.4731    0.0000 H   0  0  0  0  0  0  0  0  0  0  0  0
    5.5645   -2.0868    0.0000 H   0  0  0  0  0  0  0  0  0  0  0  0
    6.1356   -2.4113    0.0000 H   0  0  0  0  0  0  0  0  0  0  0  0
    6.9472   -2.2388    0.0000 H   0  0  0  0  0  0  0  0  0  0  0  0
    7.8773    3.8906    0.0000 H   0  0  0  0  0  0  0  0  0  0  0  0
    4.5968    4.0485    0.0000 H   0  0  0  0  0  0  0  0  0  0  0  0
    3.7280    3.4173    0.0000 H   0  0  0  0  0  0  0  0  0  0  0  0
    9.1930    2.8750    0.0000 H   0  0  0  0  0  0  0  0  0  0  0  0
    9.8378    3.3435    0.0000 H   0  0  0  0  0  0  0  0  0  0  0  0
    7.8994   -2.0845    0.0000 H   0  0  0  0  0  0  0  0  0  0  0  0
    9.6862    5.0255    0.0000 H   0  0  0  0  0  0  0  0  0  0  0  0
    9.0414    4.5570    0.0000 H   0  0  0  0  0  0  0  0  0  0  0  0
    7.3116   -2.8935    0.0000 H   0  0  0  0  0  0  0  0  0  0  0  0
   10.4402   -2.9750    0.0000 H   0  0  0  0  0  0  0  0  0  0  0  0
   11.1216   -2.4232    0.0000 H   0  0  0  0  0  0  0  0  0  0  0  0
   10.5698   -1.7418    0.0000 H   0  0  0  0  0  0  0  0  0  0  0  0
   10.2316   -1.3241    0.0000 H   0  0  0  0  0  0  0  0  0  0  0  0
    9.6798   -0.6427    0.0000 H   0  0  0  0  0  0  0  0  0  0  0  0
    8.9984   -1.1945    0.0000 H   0  0  0  0  0  0  0  0  0  0  0  0
    8.7894   -3.1836    0.0000 H   0  0  0  0  0  0  0  0  0  0  0  0
    9.3412   -3.8650    0.0000 H   0  0  0  0  0  0  0  0  0  0  0  0
   10.0226   -3.3132    0.0000 H   0  0  0  0  0  0  0  0  0  0  0  0
    6.0690   -3.1576    0.0000 H   0  0  0  0  0  0  0  0  0  0  0  0
   10.9731    3.1362    0.0000 H   0  0  0  0  0  0  0  0  0  0  0  0
   10.6798    5.9267    0.0000 H   0  0  0  0  0  0  0  0  0  0  0  0
    2.9132   -2.3130    0.0000 H   0  0  0  0  0  0  0  0  0  0  0  0
    6.0690   -4.7777    0.0000 H   0  0  0  0  0  0  0  0  0  0  0  0
   12.5842    3.3055    0.0000 H   0  0  0  0  0  0  0  0  0  0  0  0
   12.2909    6.0960    0.0000 H   0  0  0  0  0  0  0  0  0  0  0  0
    2.9132   -5.6223    0.0000 H   0  0  0  0  0  0  0  0  0  0  0  0
    1.4643   -3.1348    0.0000 H   0  0  0  0  0  0  0  0  0  0  0  0
    1.4643   -4.8005    0.0000 H   0  0  0  0  0  0  0  0  0  0  0  0
    9.5765   -6.0557    0.0000 H   0  0  0  0  0  0  0  0  0  0  0  0
   10.3951   -6.3699    0.0000 H   0  0  0  0  0  0  0  0  0  0  0  0
   10.7093   -5.5513    0.0000 H   0  0  0  0  0  0  0  0  0  0  0  0
   10.9019   -5.0496    0.0000 H   0  0  0  0  0  0  0  0  0  0  0  0
   11.2161   -4.2310    0.0000 H   0  0  0  0  0  0  0  0  0  0  0  0
   10.3976   -3.9168    0.0000 H   0  0  0  0  0  0  0  0  0  0  0  0
    8.5705   -4.7303    0.0000 H   0  0  0  0  0  0  0  0  0  0  0  0
    8.2563   -5.5489    0.0000 H   0  0  0  0  0  0  0  0  0  0  0  0
    9.0748   -5.8631    0.0000 H   0  0  0  0  0  0  0  0  0  0  0  0
   14.6444    5.8035    0.0000 H   0  0  0  0  0  0  0  0  0  0  0  0
  1 17  2  0  0  0  0
  2 20  2  0  0  0  0
 22  3  1  6  0  0  0
  3 33  1  0  0  0  0
  4 25  2  0  0  0  0
  5 35  1  0  0  0  0
  5 43  1  0  0  0  0
  6 35  2  0  0  0  0
  7 53  1  0  0  0  0
  7102  1  0  0  0  0
  8 53  2  0  0  0  0
 14  9  1  1  0  0  0
  9 20  1  0  0  0  0
  9 57  1  0  0  0  0
 10 19  1  0  0  0  0
 10 23  1  0  0  0  0
 10 25  1  0  0  0  0
 11 17  1  0  0  0  0
 11 26  1  0  0  0  0
 11 65  1  0  0  0  0
 27 12  1  6  0  0  0
 12 35  1  0  0  0  0
 12 73  1  0  0  0  0
 13 40  1  0  0  0  0
 13 42  2  0  0  0  0
 14 15  1  0  0  0  0
 14 16  1  0  0  0  0
 14 17  1  0  0  0  0
 15 16  1  0  0  0  0
 15 18  1  6  0  0  0
 15 54  1  0  0  0  0
 16 55  1  0  0  0  0
 16 56  1  0  0  0  0
 18 24  2  0  0  0  0
 18 58  1  0  0  0  0
 19 20  1  0  0  0  0
 19 21  1  0  0  0  0
 19 59  1  0  0  0  0
 21 22  1  0  0  0  0
 21 60  1  0  0  0  0
 21 61  1  0  0  0  0
 22 23  1  0  0  0  0
 22 62  1  0  0  0  0
 23 63  1  0  0  0  0
 23 64  1  0  0  0  0
 24 66  1  0  0  0  0
 24 67  1  0  0  0  0
 25 27  1  0  0  0  0
 26 29  1  0  0  0  0
 26 68  1  0  0  0  0
 26 69  1  0  0  0  0
 27 28  1  0  0  0  0
 27 70  1  0  0  0  0
 28 30  1  0  0  0  0
 28 31  1  0  0  0  0
 28 32  1  0  0  0  0
 29 34  1  0  0  0  0
 29 71  1  0  0  0  0
 29 72  1  0  0  0  0
 30 74  1  0  0  0  0
 30 75  1  0  0  0  0
 30 76  1  0  0  0  0
 31 77  1  0  0  0  0
 31 78  1  0  0  0  0
 31 79  1  0  0  0  0
 32 80  1  0  0  0  0
 32 81  1  0  0  0  0
 32 82  1  0  0  0  0
 33 36  1  0  0  0  0
 33 37  2  0  0  0  0
 34 38  2  0  0  0  0
 34 39  1  0  0  0  0
 36 40  1  0  0  0  0
 36 41  2  0  0  0  0
 37 42  1  0  0  0  0
 37 83  1  0  0  0  0
 38 44  1  0  0  0  0
 38 84  1  0  0  0  0
 39 45  2  0  0  0  0
 39 85  1  0  0  0  0
 40 47  2  0  0  0  0
 41 48  1  0  0  0  0
 41 86  1  0  0  0  0
 42 87  1  0  0  0  0
 43 50  1  0  0  0  0
 43 51  1  0  0  0  0
 43 52  1  0  0  0  0
 44 46  2  0  0  0  0
 44 88  1  0  0  0  0
 45 46  1  0  0  0  0
 45 89  1  0  0  0  0
 46 53  1  0  0  0  0
 47 49  1  0  0  0  0
 47 90  1  0  0  0  0
 48 49  2  0  0  0  0
 48 91  1  0  0  0  0
 49 92  1  0  0  0  0
 50 93  1  0  0  0  0
 50 94  1  0  0  0  0
 50 95  1  0  0  0  0
 51 96  1  0  0  0  0
 51 97  1  0  0  0  0
 51 98  1  0  0  0  0
 52 99  1  0  0  0  0
 52100  1  0  0  0  0
 52101  1  0  0  0  0
M  END
> <PUBCHEM_COMPOUND_CID>
508172
> <PUBCHEM_COMPOUND_CANONICALIZED>
1
> <PUBCHEM_CACTVS_COMPLEXITY>
1370
> <PUBCHEM_CACTVS_HBOND_ACCEPTOR>
9
> <PUBCHEM_CACTVS_HBOND_DONOR>
4
> <PUBCHEM_CACTVS_ROTATABLE_BOND>
15
> <PUBCHEM_CACTVS_SUBSKEYS>
AAADcfB/vAAAAAAAAAAAAAAAGAAAAWAAAAA8YIAAAAAAAACx9AAAHgAQCAAAD/zhngY+zvPIFgCoAzX3XACCiCA1IiAI2KG+bNkOZvLEtbufeSjm1hnY+Ye6yfCPQAAAAAACAACAAAAAAAQAAAAAAAAAAA==
> <PUBCHEM_IUPAC_OPENEYE_NAME>
4-[2-[[(1R,2S)-1-[[(4R)-1-[(2S)-2-(tert-butoxycarbonylamino)-3,3-dimethyl-butanoyl]-4-(4-quinolyloxy)pyrrolidine-2-carbonyl]amino]-2-vinyl-cyclopropanecarbonyl]amino]ethyl]benzoic acid
> <PUBCHEM_IUPAC_CAS_NAME>
4-[2-[[[(1R,2S)-1-[[[(4R)-1-[(2S)-3,3-dimethyl-2-[[(2-methylpropan-2-yl)oxy-oxomethyl]amino]-1-oxobutyl]-4-(4-quinolinyloxy)-2-pyrrolidinyl]-oxomethyl]amino]-2-ethenylcyclopropyl]-oxomethyl]amino]ethyl]benzoic acid
> <PUBCHEM_IUPAC_NAME_MARKUP>
4-[2-[[(1<I>R</I>,2<I>S</I>)-1-[[(4<I>R</I>)-1-[(2<I>S</I>)-3,3-dimethyl-2-[(2-methylpropan-2-yl)oxycarbonylamino]butanoyl]-4-quinolin-4-yloxypyrrolidine-2-carbonyl]amino]-2-ethenylcyclopropanecarbonyl]amino]ethyl]benzoic acid
> <PUBCHEM_IUPAC_NAME>
4-[2-[[(1R,2S)-1-[[(4R)-1-[(2S)-3,3-dimethyl-2-[(2-methylpropan-2-yl)oxycarbonylamino]butanoyl]-4-quinolin-4-yloxypyrrolidine-2-carbonyl]amino]-2-ethenylcyclopropanecarbonyl]amino]ethyl]benzoic acid
> <PUBCHEM_IUPAC_SYSTEMATIC_NAME>
4-[2-[[(1R,2S)-1-[[(4R)-1-[(2S)-3,3-dimethyl-2-[(2-methylpropan-2-yl)oxycarbonylamino]butanoyl]-4-quinolin-4-yloxy-pyrrolidin-2-yl]carbonylamino]-2-ethenyl-cyclopropyl]carbonylamino]ethyl]benzoic acid
> <PUBCHEM_IUPAC_TRADITIONAL_NAME>
4-[2-[[(1R,2S)-1-[[(4R)-1-[(2S)-2-(tert-butoxycarbonylamino)-3,3-dimethyl-butanoyl]-4-(4-quinolyloxy)prolyl]amino]-2-vinyl-cyclopropanecarbonyl]amino]ethyl]benzoic acid
> <PUBCHEM_IUPAC_INCHI>
InChI=1S/C40H49N5O8/c1-8-26-22-40(26,36(50)42-19-17-24-13-15-25(16-14-24)35(48)49)44-33(46)30-21-27(52-31-18-20-41-29-12-10-9-11-28(29)31)23-45(30)34(47)32(38(2,3)4)43-37(51)53-39(5,6)7/h8-16,18,20,26-27,30,32H,1,17,19,21-23H2,2-7H3,(H,42,50)(H,43,51)(H,44,46)(H,48,49)/t26-,27-,30?,32-,40-/m1/s1
> <PUBCHEM_IUPAC_INCHIKEY>
PMIZDVKBNHXUSE-SSGUNCCOSA-N
> <PUBCHEM_XLOGP3_AA>
5.4
> <PUBCHEM_EXACT_MASS>
727.35811354
> <PUBCHEM_MOLECULAR_FORMULA>
C40H49N5O8
> <PUBCHEM_MOLECULAR_WEIGHT>
727.8
> <PUBCHEM_OPENEYE_CAN_SMILES>
CC(C)(C)C(C(=O)N1CC(CC1C(=O)NC2(CC2C=C)C(=O)NCCC3=CC=C(C=C3)C(=O)O)OC4=CC=NC5=CC=CC=C54)NC(=O)OC(C)(C)C
> <PUBCHEM_OPENEYE_ISO_SMILES>
CC(C)(C)[C@@H](C(=O)N1C[C@@H](CC1C(=O)N[C@@]2(C[C@H]2C=C)C(=O)NCCC3=CC=C(C=C3)C(=O)O)OC4=CC=NC5=CC=CC=C54)NC(=O)OC(C)(C)C
> <PUBCHEM_CACTVS_TPSA>
176
> <PUBCHEM_MONOISOTOPIC_WEIGHT>
727.35811354
> <PUBCHEM_TOTAL_CHARGE>
0
> <PUBCHEM_HEAVY_ATOM_COUNT>
53
> <PUBCHEM_ATOM_DEF_STEREO_COUNT>
4
> <PUBCHEM_ATOM_UDEF_STEREO_COUNT>
1
> <PUBCHEM_BOND_DEF_STEREO_COUNT>
0
> <PUBCHEM_BOND_UDEF_STEREO_COUNT>
0
> <PUBCHEM_ISOTOPIC_ATOM_COUNT>
0
> <PUBCHEM_COMPONENT_COUNT>
1
> <PUBCHEM_CACTVS_TAUTO_COUNT>
-1
> <PUBCHEM_COORDINATE_TYPE>
1
5
255
> <PUBCHEM_BONDANNOTATIONS>
27  12  6
13  40  8
13  42  8
15  18  6
19  20  3
22  3  6
33  36  8
33  37  8
34  38  8
34  39  8
36  40  8
36  41  8
37  42  8
38  44  8
39  45  8
40  47  8
41  48  8
44  46  8
45  46  8
47  49  8
48  49  8
14  9  5
$$$$
