508192
  -OEChem-10302200282D
108113  0     1  0  0  0  0  0999 V2000
    7.2641    5.3516    0.0000 O   0  0  0  0  0  0  0  0  0  0  0  0
    5.5321    2.3516    0.0000 O   0  0  0  0  0  0  0  0  0  0  0  0
    5.5321    1.3516    0.0000 O   0  0  0  0  0  0  0  0  0  0  0  0
    8.9962   -1.6484    0.0000 O   0  0  0  0  0  0  0  0  0  0  0  0
    5.5321    4.3516    0.0000 N   0  0  3  0  0  0  0  0  0  0  0  0
    6.3981    6.8516    0.0000 N   0  0  0  0  0  0  0  0  0  0  0  0
    7.2641    1.3516    0.0000 N   0  0  0  0  0  0  0  0  0  0  0  0
    8.1301   -3.1484    0.0000 N   0  0  0  0  0  0  0  0  0  0  0  0
    9.8622   -5.1484    0.0000 N   0  0  0  0  0  0  0  0  0  0  0  0
    3.8000    5.3516    0.0000 C   0  0  2  0  0  0  0  0  0  0  0  0
    3.8000    4.3516    0.0000 C   0  0  1  0  0  0  0  0  0  0  0  0
    4.6660    5.8516    0.0000 C   0  0  0  0  0  0  0  0  0  0  0  0
    4.6660    3.8516    0.0000 C   0  0  0  0  0  0  0  0  0  0  0  0
    2.9061    5.8863    0.0000 C   0  0  0  0  0  0  0  0  0  0  0  0
    2.9061    3.8170    0.0000 C   0  0  0  0  0  0  0  0  0  0  0  0
    5.5321    5.3516    0.0000 C   0  0  1  0  0  0  0  0  0  0  0  0
    2.0000    5.3724    0.0000 C   0  0  0  0  0  0  0  0  0  0  0  0
    2.0000    4.3308    0.0000 C   0  0  0  0  0  0  0  0  0  0  0  0
    6.3981    3.8516    0.0000 C   0  0  0  0  0  0  0  0  0  0  0  0
    6.3981    5.8516    0.0000 C   0  0  0  0  0  0  0  0  0  0  0  0
    6.3981    2.8516    0.0000 C   0  0  1  0  0  0  0  0  0  0  0  0
    7.2641    2.3516    0.0000 C   0  0  2  0  0  0  0  0  0  0  0  0
    7.2641    7.3516    0.0000 C   0  0  0  0  0  0  0  0  0  0  0  0
    8.1301    2.8516    0.0000 C   0  0  0  0  0  0  0  0  0  0  0  0
    8.1301    7.8516    0.0000 C   0  0  0  0  0  0  0  0  0  0  0  0
    6.7641    8.2176    0.0000 C   0  0  0  0  0  0  0  0  0  0  0  0
    7.7641    6.4856    0.0000 C   0  0  0  0  0  0  0  0  0  0  0  0
    8.9962    2.3516    0.0000 C   0  0  0  0  0  0  0  0  0  0  0  0
    6.3981    0.8516    0.0000 C   0  0  0  0  0  0  0  0  0  0  0  0
    8.9962    1.3516    0.0000 C   0  0  0  0  0  0  0  0  0  0  0  0
    9.8622    2.8516    0.0000 C   0  0  0  0  0  0  0  0  0  0  0  0
    6.3981   -0.1484    0.0000 C   0  0  0  0  0  0  0  0  0  0  0  0
    9.8622    0.8516    0.0000 C   0  0  0  0  0  0  0  0  0  0  0  0
   10.7282    2.3516    0.0000 C   0  0  0  0  0  0  0  0  0  0  0  0
    5.5321   -0.6484    0.0000 C   0  0  0  0  0  0  0  0  0  0  0  0
   10.7282    1.3516    0.0000 C   0  0  0  0  0  0  0  0  0  0  0  0
    7.2641   -0.6484    0.0000 C   0  0  0  0  0  0  0  0  0  0  0  0
    7.2641   -1.6484    0.0000 C   0  0  0  0  0  0  0  0  0  0  0  0
    5.5321   -1.6484    0.0000 C   0  0  0  0  0  0  0  0  0  0  0  0
    4.6660   -0.1484    0.0000 C   0  0  0  0  0  0  0  0  0  0  0  0
    6.3981   -2.1484    0.0000 C   0  0  0  0  0  0  0  0  0  0  0  0
    8.1301   -2.1484    0.0000 C   0  0  0  0  0  0  0  0  0  0  0  0
    8.9962   -3.6484    0.0000 C   0  0  0  0  0  0  0  0  0  0  0  0
    7.2641   -3.6484    0.0000 C   0  0  0  0  0  0  0  0  0  0  0  0
    8.9962   -4.6484    0.0000 C   0  0  0  0  0  0  0  0  0  0  0  0
    8.1301   -5.1484    0.0000 C   0  0  0  0  0  0  0  0  0  0  0  0
    9.8622   -6.1484    0.0000 C   0  0  0  0  0  0  0  0  0  0  0  0
    8.1301   -6.1484    0.0000 C   0  0  0  0  0  0  0  0  0  0  0  0
    8.9962   -6.6484    0.0000 C   0  0  0  0  0  0  0  0  0  0  0  0
   10.7722   -6.6552    0.0000 C   0  0  0  0  0  0  0  0  0  0  0  0
    8.9801   -7.6899    0.0000 C   0  0  0  0  0  0  0  0  0  0  0  0
   10.7802   -7.6968    0.0000 C   0  0  0  0  0  0  0  0  0  0  0  0
    9.8781   -8.2176    0.0000 C   0  0  0  0  0  0  0  0  0  0  0  0
    3.8066    6.2016    0.0000 H   0  0  0  0  0  0  0  0  0  0  0  0
    3.8066    3.5016    0.0000 H   0  0  0  0  0  0  0  0  0  0  0  0
    5.0646    6.3266    0.0000 H   0  0  0  0  0  0  0  0  0  0  0  0
    4.2675    6.3266    0.0000 H   0  0  0  0  0  0  0  0  0  0  0  0
    4.2675    3.3767    0.0000 H   0  0  0  0  0  0  0  0  0  0  0  0
    5.0646    3.3767    0.0000 H   0  0  0  0  0  0  0  0  0  0  0  0
    3.3107    6.3561    0.0000 H   0  0  0  0  0  0  0  0  0  0  0  0
    2.5124    6.3653    0.0000 H   0  0  0  0  0  0  0  0  0  0  0  0
    2.5124    3.3379    0.0000 H   0  0  0  0  0  0  0  0  0  0  0  0
    3.3107    3.3472    0.0000 H   0  0  0  0  0  0  0  0  0  0  0  0
    6.0690    5.0416    0.0000 H   0  0  0  0  0  0  0  0  0  0  0  0
    1.7909    5.9561    0.0000 H   0  0  0  0  0  0  0  0  0  0  0  0
    1.3891    5.2663    0.0000 H   0  0  0  0  0  0  0  0  0  0  0  0
    1.3891    4.4369    0.0000 H   0  0  0  0  0  0  0  0  0  0  0  0
    1.7909    3.7471    0.0000 H   0  0  0  0  0  0  0  0  0  0  0  0
    7.0087    3.7440    0.0000 H   0  0  0  0  0  0  0  0  0  0  0  0
    6.6101    4.4342    0.0000 H   0  0  0  0  0  0  0  0  0  0  0  0
    6.3981    2.2316    0.0000 H   0  0  0  0  0  0  0  0  0  0  0  0
    7.8010    2.0416    0.0000 H   0  0  0  0  0  0  0  0  0  0  0  0
    5.8612    7.1616    0.0000 H   0  0  0  0  0  0  0  0  0  0  0  0
    8.5287    3.3266    0.0000 H   0  0  0  0  0  0  0  0  0  0  0  0
    7.7316    3.3266    0.0000 H   0  0  0  0  0  0  0  0  0  0  0  0
    4.9951    2.6616    0.0000 H   0  0  0  0  0  0  0  0  0  0  0  0
    7.8010    1.0416    0.0000 H   0  0  0  0  0  0  0  0  0  0  0  0
    8.4401    7.3147    0.0000 H   0  0  0  0  0  0  0  0  0  0  0  0
    8.6671    8.1616    0.0000 H   0  0  0  0  0  0  0  0  0  0  0  0
    7.8201    8.3886    0.0000 H   0  0  0  0  0  0  0  0  0  0  0  0
    7.3010    8.5276    0.0000 H   0  0  0  0  0  0  0  0  0  0  0  0
    6.4541    8.7546    0.0000 H   0  0  0  0  0  0  0  0  0  0  0  0
    6.2272    7.9076    0.0000 H   0  0  0  0  0  0  0  0  0  0  0  0
    7.2272    6.1756    0.0000 H   0  0  0  0  0  0  0  0  0  0  0  0
    8.0741    5.9487    0.0000 H   0  0  0  0  0  0  0  0  0  0  0  0
    8.3010    6.7956    0.0000 H   0  0  0  0  0  0  0  0  0  0  0  0
    8.4592    1.0416    0.0000 H   0  0  0  0  0  0  0  0  0  0  0  0
    9.8622    3.4716    0.0000 H   0  0  0  0  0  0  0  0  0  0  0  0
    9.8622    0.2316    0.0000 H   0  0  0  0  0  0  0  0  0  0  0  0
   11.2651    2.6616    0.0000 H   0  0  0  0  0  0  0  0  0  0  0  0
   11.2651    1.0416    0.0000 H   0  0  0  0  0  0  0  0  0  0  0  0
    7.8010   -0.3384    0.0000 H   0  0  0  0  0  0  0  0  0  0  0  0
    4.9951   -1.9584    0.0000 H   0  0  0  0  0  0  0  0  0  0  0  0
    4.9760    0.3886    0.0000 H   0  0  0  0  0  0  0  0  0  0  0  0
    4.1291    0.1616    0.0000 H   0  0  0  0  0  0  0  0  0  0  0  0
    4.3560   -0.6853    0.0000 H   0  0  0  0  0  0  0  0  0  0  0  0
    6.3981   -2.7684    0.0000 H   0  0  0  0  0  0  0  0  0  0  0  0
    9.6067   -3.7560    0.0000 H   0  0  0  0  0  0  0  0  0  0  0  0
    9.2082   -3.0658    0.0000 H   0  0  0  0  0  0  0  0  0  0  0  0
    6.9541   -3.1114    0.0000 H   0  0  0  0  0  0  0  0  0  0  0  0
    6.7272   -3.9584    0.0000 H   0  0  0  0  0  0  0  0  0  0  0  0
    7.5741   -4.1853    0.0000 H   0  0  0  0  0  0  0  0  0  0  0  0
    7.5932   -4.8384    0.0000 H   0  0  0  0  0  0  0  0  0  0  0  0
    7.5932   -6.4584    0.0000 H   0  0  0  0  0  0  0  0  0  0  0  0
   11.3055   -6.3390    0.0000 H   0  0  0  0  0  0  0  0  0  0  0  0
    8.4396   -7.9937    0.0000 H   0  0  0  0  0  0  0  0  0  0  0  0
   11.3183   -8.0048    0.0000 H   0  0  0  0  0  0  0  0  0  0  0  0
    9.8758   -8.8376    0.0000 H   0  0  0  0  0  0  0  0  0  0  0  0
  1 20  2  0  0  0  0
 21  2  1  1  0  0  0
  2 76  1  0  0  0  0
  3 29  2  0  0  0  0
  4 42  2  0  0  0  0
  5 13  1  0  0  0  0
  5 16  1  0  0  0  0
  5 19  1  0  0  0  0
  6 20  1  0  0  0  0
  6 23  1  0  0  0  0
  6 73  1  0  0  0  0
 22  7  1  6  0  0  0
  7 29  1  0  0  0  0
  7 77  1  0  0  0  0
  8 42  1  0  0  0  0
  8 43  1  0  0  0  0
  8 44  1  0  0  0  0
  9 45  2  0  0  0  0
  9 47  1  0  0  0  0
 10 11  1  0  0  0  0
 10 12  1  0  0  0  0
 10 14  1  0  0  0  0
 10 54  1  6  0  0  0
 11 13  1  0  0  0  0
 11 15  1  0  0  0  0
 11 55  1  6  0  0  0
 12 16  1  0  0  0  0
 12 56  1  0  0  0  0
 12 57  1  0  0  0  0
 13 58  1  0  0  0  0
 13 59  1  0  0  0  0
 14 17  1  0  0  0  0
 14 60  1  0  0  0  0
 14 61  1  0  0  0  0
 15 18  1  0  0  0  0
 15 62  1  0  0  0  0
 15 63  1  0  0  0  0
 16 20  1  1  0  0  0
 16 64  1  0  0  0  0
 17 18  1  0  0  0  0
 17 65  1  0  0  0  0
 17 66  1  0  0  0  0
 18 67  1  0  0  0  0
 18 68  1  0  0  0  0
 19 21  1  0  0  0  0
 19 69  1  0  0  0  0
 19 70  1  0  0  0  0
 21 22  1  0  0  0  0
 21 71  1  0  0  0  0
 22 24  1  0  0  0  0
 22 72  1  0  0  0  0
 23 25  1  0  0  0  0
 23 26  1  0  0  0  0
 23 27  1  0  0  0  0
 24 28  1  0  0  0  0
 24 74  1  0  0  0  0
 24 75  1  0  0  0  0
 25 78  1  0  0  0  0
 25 79  1  0  0  0  0
 25 80  1  0  0  0  0
 26 81  1  0  0  0  0
 26 82  1  0  0  0  0
 26 83  1  0  0  0  0
 27 84  1  0  0  0  0
 27 85  1  0  0  0  0
 27 86  1  0  0  0  0
 28 30  2  0  0  0  0
 28 31  1  0  0  0  0
 29 32  1  0  0  0  0
 30 33  1  0  0  0  0
 30 87  1  0  0  0  0
 31 34  2  0  0  0  0
 31 88  1  0  0  0  0
 32 35  2  0  0  0  0
 32 37  1  0  0  0  0
 33 36  2  0  0  0  0
 33 89  1  0  0  0  0
 34 36  1  0  0  0  0
 34 90  1  0  0  0  0
 35 39  1  0  0  0  0
 35 40  1  0  0  0  0
 36 91  1  0  0  0  0
 37 38  2  0  0  0  0
 37 92  1  0  0  0  0
 38 41  1  0  0  0  0
 38 42  1  0  0  0  0
 39 41  2  0  0  0  0
 39 93  1  0  0  0  0
 40 94  1  0  0  0  0
 40 95  1  0  0  0  0
 40 96  1  0  0  0  0
 41 97  1  0  0  0  0
 43 45  1  0  0  0  0
 43 98  1  0  0  0  0
 43 99  1  0  0  0  0
 44100  1  0  0  0  0
 44101  1  0  0  0  0
 44102  1  0  0  0  0
 45 46  1  0  0  0  0
 46 48  2  0  0  0  0
 46103  1  0  0  0  0
 47 49  1  0  0  0  0
 47 50  2  0  0  0  0
 48 49  1  0  0  0  0
 48104  1  0  0  0  0
 49 51  2  0  0  0  0
 50 52  1  0  0  0  0
 50105  1  0  0  0  0
 51 53  1  0  0  0  0
 51106  1  0  0  0  0
 52 53  2  0  0  0  0
 52107  1  0  0  0  0
 53108  1  0  0  0  0
M  END
> <PUBCHEM_COMPOUND_CID>
508192
> <PUBCHEM_COMPOUND_CANONICALIZED>
1
> <PUBCHEM_CACTVS_COMPLEXITY>
1220
> <PUBCHEM_CACTVS_HBOND_ACCEPTOR>
6
> <PUBCHEM_CACTVS_HBOND_DONOR>
3
> <PUBCHEM_CACTVS_ROTATABLE_BOND>
12
> <PUBCHEM_CACTVS_SUBSKEYS>
AAADcfB/uAAAAAAAAAAAAAAAAAAAAAAAAAA8eMGCAAAAAACx9AAAHgAQCAAADbzhngYywPPIEgCoAyVyVACCgCAlAiAImKG4ZNgKcPLA1bGUYQhklgDYyYeYy+COwAACAAASAACAAAQAACQAAAAAAAAAAA==
> <PUBCHEM_IUPAC_OPENEYE_NAME>
N3-[(1S,2S)-3-[(3S,4aS,8aS)-3-(tert-butylcarbamoyl)-3,4,4a,5,6,7,8,8a-octahydro-1H-isoquinolin-2-yl]-1-benzyl-2-hydroxy-propyl]-N1,4-dimethyl-N1-(2-quinolylmethyl)benzene-1,3-dicarboxamide
> <PUBCHEM_IUPAC_CAS_NAME>
N3-[(2S,3S)-4-[(3S,4aS,8aS)-3-[(tert-butylamino)-oxomethyl]-3,4,4a,5,6,7,8,8a-octahydro-1H-isoquinolin-2-yl]-3-hydroxy-1-phenylbutan-2-yl]-N1,4-dimethyl-N1-(2-quinolinylmethyl)benzene-1,3-dicarboxamide
> <PUBCHEM_IUPAC_NAME_MARKUP>
3-<I>N</I>-[(2<I>S</I>,3<I>S</I>)-4-[(3<I>S</I>,4<I>a</I><I>S</I>,8<I>a</I><I>S</I>)-3-(<I>tert</I>-butylcarbamoyl)-3,4,4<I>a</I>,5,6,7,8,8<I>a</I>-octahydro-1<I>H</I>-isoquinolin-2-yl]-3-hydroxy-1-phenylbutan-2-yl]-1-<I>N</I>,4-dimethyl-1-<I>N</I>-(quinolin-2-ylmethyl)benzene-1,3-dicarboxamide
> <PUBCHEM_IUPAC_NAME>
3-N-[(2S,3S)-4-[(3S,4aS,8aS)-3-(tert-butylcarbamoyl)-3,4,4a,5,6,7,8,8a-octahydro-1H-isoquinolin-2-yl]-3-hydroxy-1-phenylbutan-2-yl]-1-N,4-dimethyl-1-N-(quinolin-2-ylmethyl)benzene-1,3-dicarboxamide
> <PUBCHEM_IUPAC_SYSTEMATIC_NAME>
N3-[(2S,3S)-4-[(3S,4aS,8aS)-3-(tert-butylcarbamoyl)-3,4,4a,5,6,7,8,8a-octahydro-1H-isoquinolin-2-yl]-3-oxidanyl-1-phenyl-butan-2-yl]-N1,4-dimethyl-N1-(quinolin-2-ylmethyl)benzene-1,3-dicarboxamide
> <PUBCHEM_IUPAC_TRADITIONAL_NAME>
N'-[(1S,2S)-3-[(3S,4aS,8aS)-3-(tert-butylcarbamoyl)-3,4,4a,5,6,7,8,8a-octahydro-1H-isoquinolin-2-yl]-1-benzyl-2-hydroxy-propyl]-N,4-dimethyl-N-(2-quinolylmethyl)isophthalamide
> <PUBCHEM_IUPAC_INCHI>
InChI=1S/C44H55N5O4/c1-29-19-20-33(43(53)48(5)27-35-22-21-31-15-11-12-18-37(31)45-35)24-36(29)41(51)46-38(23-30-13-7-6-8-14-30)40(50)28-49-26-34-17-10-9-16-32(34)25-39(49)42(52)47-44(2,3)4/h6-8,11-15,18-22,24,32,34,38-40,50H,9-10,16-17,23,25-28H2,1-5H3,(H,46,51)(H,47,52)/t32-,34+,38-,39-,40-/m0/s1
> <PUBCHEM_IUPAC_INCHIKEY>
ZYMSBYBGIGTGOC-OSGMVBNPSA-N
> <PUBCHEM_XLOGP3_AA>
7
> <PUBCHEM_EXACT_MASS>
717.42540525
> <PUBCHEM_MOLECULAR_FORMULA>
C44H55N5O4
> <PUBCHEM_MOLECULAR_WEIGHT>
717.9
> <PUBCHEM_OPENEYE_CAN_SMILES>
CC1=C(C=C(C=C1)C(=O)N(C)CC2=NC3=CC=CC=C3C=C2)C(=O)NC(CC4=CC=CC=C4)C(CN5CC6CCCCC6CC5C(=O)NC(C)(C)C)O
> <PUBCHEM_OPENEYE_ISO_SMILES>
CC1=C(C=C(C=C1)C(=O)N(C)CC2=NC3=CC=CC=C3C=C2)C(=O)N[C@@H](CC4=CC=CC=C4)[C@H](CN5C[C@H]6CCCC[C@H]6C[C@H]5C(=O)NC(C)(C)C)O
> <PUBCHEM_CACTVS_TPSA>
115
> <PUBCHEM_MONOISOTOPIC_WEIGHT>
717.42540525
> <PUBCHEM_TOTAL_CHARGE>
0
> <PUBCHEM_HEAVY_ATOM_COUNT>
53
> <PUBCHEM_ATOM_DEF_STEREO_COUNT>
5
> <PUBCHEM_ATOM_UDEF_STEREO_COUNT>
0
> <PUBCHEM_BOND_DEF_STEREO_COUNT>
0
> <PUBCHEM_BOND_UDEF_STEREO_COUNT>
0
> <PUBCHEM_ISOTOPIC_ATOM_COUNT>
0
> <PUBCHEM_COMPONENT_COUNT>
1
> <PUBCHEM_CACTVS_TAUTO_COUNT>
-1
> <PUBCHEM_COORDINATE_TYPE>
1
5
255
> <PUBCHEM_BONDANNOTATIONS>
10  54  6
11  55  6
16  20  5
21  2  5
28  30  8
28  31  8
30  33  8
31  34  8
32  35  8
32  37  8
33  36  8
34  36  8
35  39  8
37  38  8
38  41  8
39  41  8
45  46  8
46  48  8
47  49  8
47  50  8
48  49  8
49  51  8
50  52  8
51  53  8
52  53  8
22  7  6
9  45  8
9  47  8
$$$$
