508185
  -OEChem-10302200282D
104109  0     1  0  0  0  0  0999 V2000
   16.9384   -2.4802    0.0000 Cl  0  0  0  0  0  0  0  0  0  0  0  0
    7.6138   -0.1687    0.0000 O   0  0  0  0  0  0  0  0  0  0  0  0
   13.2369   -2.6307    0.0000 O   0  0  0  0  0  0  0  0  0  0  0  0
   10.1921    2.1448    0.0000 O   0  0  0  0  0  0  0  0  0  0  0  0
    6.2619   -1.5921    0.0000 O   0  0  0  0  0  0  0  0  0  0  0  0
    6.6353   -0.3749    0.0000 O   0  0  0  0  0  0  0  0  0  0  0  0
   10.9065   -1.2449    0.0000 N   0  0  3  0  0  0  0  0  0  0  0  0
    9.5708    0.2437    0.0000 N   0  0  3  0  0  0  0  0  0  0  0  0
   11.8385    1.6067    0.0000 N   0  0  0  0  0  0  0  0  0  0  0  0
    4.9889    0.1631    0.0000 N   0  0  0  0  0  0  0  0  0  0  0  0
   12.0326   -3.7113    0.0000 N   0  0  0  0  0  0  0  0  0  0  0  0
   15.9050   -4.9157    0.0000 N   0  0  0  0  0  0  0  0  0  0  0  0
   10.5493    0.4499    0.0000 C   0  0  1  0  0  0  0  0  0  0  0  0
   11.2171   -0.2944    0.0000 C   0  0  0  0  0  0  0  0  0  0  0  0
    9.9280   -1.4511    0.0000 C   0  0  0  0  0  0  0  0  0  0  0  0
   11.5743   -1.9892    0.0000 C   0  0  0  0  0  0  0  0  0  0  0  0
    9.2601   -0.7068    0.0000 C   0  0  0  0  0  0  0  0  0  0  0  0
    8.9030    0.9880    0.0000 C   0  0  0  0  0  0  0  0  0  0  0  0
    7.9244    0.7818    0.0000 C   0  0  2  0  0  0  0  0  0  0  0  0
   10.8600    1.4004    0.0000 C   0  0  0  0  0  0  0  0  0  0  0  0
    7.2566    1.5261    0.0000 C   0  0  0  0  0  0  0  0  0  0  0  0
   10.8300   -2.6570    0.0000 C   0  0  0  0  0  0  0  0  0  0  0  0
   12.3186   -1.3214    0.0000 C   0  0  0  0  0  0  0  0  0  0  0  0
    6.2781    1.3199    0.0000 C   0  0  2  0  0  0  0  0  0  0  0  0
   12.2422   -2.7335    0.0000 C   0  0  0  0  0  0  0  0  0  0  0  0
    4.6783   -0.7874    0.0000 C   0  0  2  0  0  0  0  0  0  0  0  0
   12.5063    0.8624    0.0000 C   0  0  0  0  0  0  0  0  0  0  0  0
    5.2619   -1.5921    0.0000 C   0  0  1  0  0  0  0  0  0  0  0  0
    5.6103    2.0642    0.0000 C   0  0  0  0  0  0  0  0  0  0  0  0
    5.9674    0.3694    0.0000 C   0  0  0  0  0  0  0  0  0  0  0  0
    3.7320   -1.0921    0.0000 C   0  0  0  0  0  0  0  0  0  0  0  0
    4.6783   -2.3968    0.0000 C   0  0  0  0  0  0  0  0  0  0  0  0
    3.7320   -2.0921    0.0000 C   0  0  0  0  0  0  0  0  0  0  0  0
   13.1742    0.1181    0.0000 C   0  0  0  0  0  0  0  0  0  0  0  0
   13.2506    1.5302    0.0000 C   0  0  0  0  0  0  0  0  0  0  0  0
   11.7620    0.1945    0.0000 C   0  0  0  0  0  0  0  0  0  0  0  0
    5.9209    3.0147    0.0000 C   0  0  0  0  0  0  0  0  0  0  0  0
   13.6420   -3.5449    0.0000 C   0  0  0  0  0  0  0  0  0  0  0  0
    2.8660   -0.5921    0.0000 C   0  0  0  0  0  0  0  0  0  0  0  0
   12.8977   -4.2128    0.0000 C   0  0  0  0  0  0  0  0  0  0  0  0
    2.8660   -2.5921    0.0000 C   0  0  0  0  0  0  0  0  0  0  0  0
    2.0000   -1.0921    0.0000 C   0  0  0  0  0  0  0  0  0  0  0  0
    2.0000   -2.0921    0.0000 C   0  0  0  0  0  0  0  0  0  0  0  0
    6.8994    3.2209    0.0000 C   0  0  0  0  0  0  0  0  0  0  0  0
    5.2531    3.7590    0.0000 C   0  0  0  0  0  0  0  0  0  0  0  0
   14.6198   -3.7545    0.0000 C   0  0  0  0  0  0  0  0  0  0  0  0
    7.2101    4.1714    0.0000 C   0  0  0  0  0  0  0  0  0  0  0  0
    5.5637    4.7095    0.0000 C   0  0  0  0  0  0  0  0  0  0  0  0
   15.2902   -3.0126    0.0000 C   0  0  0  0  0  0  0  0  0  0  0  0
    6.5422    4.9157    0.0000 C   0  0  0  0  0  0  0  0  0  0  0  0
   14.9272   -4.7061    0.0000 C   0  0  0  0  0  0  0  0  0  0  0  0
   16.2680   -3.2222    0.0000 C   0  0  0  0  0  0  0  0  0  0  0  0
   16.5754   -4.1738    0.0000 C   0  0  0  0  0  0  0  0  0  0  0  0
   10.1352    0.9114    0.0000 H   0  0  0  0  0  0  0  0  0  0  0  0
   11.7641   -0.5864    0.0000 H   0  0  0  0  0  0  0  0  0  0  0  0
   11.5997    0.1935    0.0000 H   0  0  0  0  0  0  0  0  0  0  0  0
    9.4016   -1.7788    0.0000 H   0  0  0  0  0  0  0  0  0  0  0  0
   10.1592   -2.0264    0.0000 H   0  0  0  0  0  0  0  0  0  0  0  0
    8.7132   -0.4148    0.0000 H   0  0  0  0  0  0  0  0  0  0  0  0
    8.8776   -1.1947    0.0000 H   0  0  0  0  0  0  0  0  0  0  0  0
    9.4293    1.3156    0.0000 H   0  0  0  0  0  0  0  0  0  0  0  0
    8.6717    1.5633    0.0000 H   0  0  0  0  0  0  0  0  0  0  0  0
    8.3385    0.3203    0.0000 H   0  0  0  0  0  0  0  0  0  0  0  0
    7.7830    1.8537    0.0000 H   0  0  0  0  0  0  0  0  0  0  0  0
    7.0254    2.1014    0.0000 H   0  0  0  0  0  0  0  0  0  0  0  0
   10.4160   -2.1956    0.0000 H   0  0  0  0  0  0  0  0  0  0  0  0
   10.3686   -3.0711    0.0000 H   0  0  0  0  0  0  0  0  0  0  0  0
   11.2441   -3.1185    0.0000 H   0  0  0  0  0  0  0  0  0  0  0  0
   12.7327   -1.7828    0.0000 H   0  0  0  0  0  0  0  0  0  0  0  0
   12.7801   -0.9073    0.0000 H   0  0  0  0  0  0  0  0  0  0  0  0
   11.9046   -0.8599    0.0000 H   0  0  0  0  0  0  0  0  0  0  0  0
    6.6922    0.8584    0.0000 H   0  0  0  0  0  0  0  0  0  0  0  0
    5.2908   -0.6912    0.0000 H   0  0  0  0  0  0  0  0  0  0  0  0
   12.0311    2.1960    0.0000 H   0  0  0  0  0  0  0  0  0  0  0  0
    5.5436   -2.1444    0.0000 H   0  0  0  0  0  0  0  0  0  0  0  0
    5.0633    2.3562    0.0000 H   0  0  0  0  0  0  0  0  0  0  0  0
    5.2277    1.5763    0.0000 H   0  0  0  0  0  0  0  0  0  0  0  0
    4.4272   -2.9638    0.0000 H   0  0  0  0  0  0  0  0  0  0  0  0
    5.2156   -2.7061    0.0000 H   0  0  0  0  0  0  0  0  0  0  0  0
    4.5749    0.6246    0.0000 H   0  0  0  0  0  0  0  0  0  0  0  0
    8.0279   -0.6302    0.0000 H   0  0  0  0  0  0  0  0  0  0  0  0
   12.7127   -0.2960    0.0000 H   0  0  0  0  0  0  0  0  0  0  0  0
   13.5882   -0.3434    0.0000 H   0  0  0  0  0  0  0  0  0  0  0  0
   13.6356    0.5321    0.0000 H   0  0  0  0  0  0  0  0  0  0  0  0
   13.6647    1.0687    0.0000 H   0  0  0  0  0  0  0  0  0  0  0  0
   13.7121    1.9443    0.0000 H   0  0  0  0  0  0  0  0  0  0  0  0
   12.8366    1.9917    0.0000 H   0  0  0  0  0  0  0  0  0  0  0  0
   11.3480    0.6560    0.0000 H   0  0  0  0  0  0  0  0  0  0  0  0
   11.3005   -0.2195    0.0000 H   0  0  0  0  0  0  0  0  0  0  0  0
   12.1761   -0.2669    0.0000 H   0  0  0  0  0  0  0  0  0  0  0  0
    2.8660    0.0279    0.0000 H   0  0  0  0  0  0  0  0  0  0  0  0
   12.9615   -4.8295    0.0000 H   0  0  0  0  0  0  0  0  0  0  0  0
    2.8660   -3.2121    0.0000 H   0  0  0  0  0  0  0  0  0  0  0  0
    6.5719   -2.1290    0.0000 H   0  0  0  0  0  0  0  0  0  0  0  0
    1.4631   -0.7821    0.0000 H   0  0  0  0  0  0  0  0  0  0  0  0
    1.4631   -2.4021    0.0000 H   0  0  0  0  0  0  0  0  0  0  0  0
    7.3135    2.7594    0.0000 H   0  0  0  0  0  0  0  0  0  0  0  0
    4.6464    3.6311    0.0000 H   0  0  0  0  0  0  0  0  0  0  0  0
    7.8168    4.2993    0.0000 H   0  0  0  0  0  0  0  0  0  0  0  0
    5.1497    5.1710    0.0000 H   0  0  0  0  0  0  0  0  0  0  0  0
   15.0997   -2.4226    0.0000 H   0  0  0  0  0  0  0  0  0  0  0  0
    6.7349    5.5051    0.0000 H   0  0  0  0  0  0  0  0  0  0  0  0
   14.5115   -5.1662    0.0000 H   0  0  0  0  0  0  0  0  0  0  0  0
   17.1816   -4.3037    0.0000 H   0  0  0  0  0  0  0  0  0  0  0  0
  1 52  1  0  0  0  0
 19  2  1  1  0  0  0
  2 81  1  0  0  0  0
  3 25  1  0  0  0  0
  3 38  1  0  0  0  0
  4 20  2  0  0  0  0
 28  5  1  6  0  0  0
  5 94  1  0  0  0  0
  6 30  2  0  0  0  0
  7 14  1  0  0  0  0
  7 15  1  0  0  0  0
  7 16  1  0  0  0  0
  8 13  1  0  0  0  0
  8 17  1  0  0  0  0
  8 18  1  0  0  0  0
  9 20  1  0  0  0  0
  9 27  1  0  0  0  0
  9 74  1  0  0  0  0
 26 10  1  6  0  0  0
 10 30  1  0  0  0  0
 10 80  1  0  0  0  0
 11 25  2  0  0  0  0
 11 40  1  0  0  0  0
 12 51  2  0  0  0  0
 12 53  1  0  0  0  0
 13 14  1  0  0  0  0
 13 20  1  6  0  0  0
 13 54  1  0  0  0  0
 14 55  1  0  0  0  0
 14 56  1  0  0  0  0
 15 17  1  0  0  0  0
 15 57  1  0  0  0  0
 15 58  1  0  0  0  0
 16 22  1  0  0  0  0
 16 23  1  0  0  0  0
 16 25  1  0  0  0  0
 17 59  1  0  0  0  0
 17 60  1  0  0  0  0
 18 19  1  0  0  0  0
 18 61  1  0  0  0  0
 18 62  1  0  0  0  0
 19 21  1  0  0  0  0
 19 63  1  0  0  0  0
 24 21  1  1  0  0  0
 21 64  1  0  0  0  0
 21 65  1  0  0  0  0
 22 66  1  0  0  0  0
 22 67  1  0  0  0  0
 22 68  1  0  0  0  0
 23 69  1  0  0  0  0
 23 70  1  0  0  0  0
 23 71  1  0  0  0  0
 24 29  1  0  0  0  0
 24 30  1  0  0  0  0
 24 72  1  0  0  0  0
 26 28  1  0  0  0  0
 26 31  1  0  0  0  0
 26 73  1  0  0  0  0
 27 34  1  0  0  0  0
 27 35  1  0  0  0  0
 27 36  1  0  0  0  0
 28 32  1  0  0  0  0
 28 75  1  0  0  0  0
 29 37  1  0  0  0  0
 29 76  1  0  0  0  0
 29 77  1  0  0  0  0
 31 33  1  0  0  0  0
 31 39  2  0  0  0  0
 32 33  1  0  0  0  0
 32 78  1  0  0  0  0
 32 79  1  0  0  0  0
 33 41  2  0  0  0  0
 34 82  1  0  0  0  0
 34 83  1  0  0  0  0
 34 84  1  0  0  0  0
 35 85  1  0  0  0  0
 35 86  1  0  0  0  0
 35 87  1  0  0  0  0
 36 88  1  0  0  0  0
 36 89  1  0  0  0  0
 36 90  1  0  0  0  0
 37 44  2  0  0  0  0
 37 45  1  0  0  0  0
 38 40  2  0  0  0  0
 38 46  1  0  0  0  0
 39 42  1  0  0  0  0
 39 91  1  0  0  0  0
 40 92  1  0  0  0  0
 41 43  1  0  0  0  0
 41 93  1  0  0  0  0
 42 43  2  0  0  0  0
 42 95  1  0  0  0  0
 43 96  1  0  0  0  0
 44 47  1  0  0  0  0
 44 97  1  0  0  0  0
 45 48  2  0  0  0  0
 45 98  1  0  0  0  0
 46 49  2  0  0  0  0
 46 51  1  0  0  0  0
 47 50  2  0  0  0  0
 47 99  1  0  0  0  0
 48 50  1  0  0  0  0
 48100  1  0  0  0  0
 49 52  1  0  0  0  0
 49101  1  0  0  0  0
 50102  1  0  0  0  0
 51103  1  0  0  0  0
 52 53  2  0  0  0  0
 53104  1  0  0  0  0
M  END
> <PUBCHEM_COMPOUND_CID>
508185
> <PUBCHEM_COMPOUND_CANONICALIZED>
1
> <PUBCHEM_CACTVS_COMPLEXITY>
1210
> <PUBCHEM_CACTVS_HBOND_ACCEPTOR>
9
> <PUBCHEM_CACTVS_HBOND_DONOR>
4
> <PUBCHEM_CACTVS_ROTATABLE_BOND>
13
> <PUBCHEM_CACTVS_SUBSKEYS>
AAADcfB/uAAEAAAAAAAAAAAAAAAAAeIAAAA8eIEAAAAAAGAB9AAAHgIQCAAADb7hmiY+hJPIFkCoArF3VASCiCA/RSAI2KGrTtgOdvrB97nfeYjm1gHY6ce62fKOgAAAAAAQAAAAAAAAACAAAKAACQgAAA==
> <PUBCHEM_IUPAC_OPENEYE_NAME>
(2S)-1-[(2S,4S)-4-benzyl-2-hydroxy-5-[[(1S,2R)-2-hydroxyindan-1-yl]amino]-5-oxo-pentyl]-N-tert-butyl-4-[1-[5-(5-chloro-3-pyridyl)oxazol-2-yl]-1-methyl-ethyl]piperazine-2-carboxamide
> <PUBCHEM_IUPAC_CAS_NAME>
(2S)-N-tert-butyl-4-[2-[5-(5-chloro-3-pyridinyl)-2-oxazolyl]propan-2-yl]-1-[(2S,4S)-2-hydroxy-5-[[(1S,2R)-2-hydroxy-2,3-dihydro-1H-inden-1-yl]amino]-5-oxo-4-(phenylmethyl)pentyl]-2-piperazinecarboxamide
> <PUBCHEM_IUPAC_NAME_MARKUP>
(2<I>S</I>)-1-[(2<I>S</I>,4<I>S</I>)-4-benzyl-2-hydroxy-5-[[(1<I>S</I>,2<I>R</I>)-2-hydroxy-2,3-dihydro-1<I>H</I>-inden-1-yl]amino]-5-oxopentyl]-<I>N</I>-<I>tert</I>-butyl-4-[2-[5-(5-chloropyridin-3-yl)-1,3-oxazol-2-yl]propan-2-yl]piperazine-2-carboxamide
> <PUBCHEM_IUPAC_NAME>
(2S)-1-[(2S,4S)-4-benzyl-2-hydroxy-5-[[(1S,2R)-2-hydroxy-2,3-dihydro-1H-inden-1-yl]amino]-5-oxopentyl]-N-tert-butyl-4-[2-[5-(5-chloropyridin-3-yl)-1,3-oxazol-2-yl]propan-2-yl]piperazine-2-carboxamide
> <PUBCHEM_IUPAC_SYSTEMATIC_NAME>
(2S)-N-tert-butyl-4-[2-[5-(5-chloranylpyridin-3-yl)-1,3-oxazol-2-yl]propan-2-yl]-1-[(2S,4S)-2-oxidanyl-5-[[(1S,2R)-2-oxidanyl-2,3-dihydro-1H-inden-1-yl]amino]-5-oxidanylidene-4-(phenylmethyl)pentyl]piperazine-2-carboxamide
> <PUBCHEM_IUPAC_TRADITIONAL_NAME>
(2S)-1-[(2S,4S)-4-benzyl-2-hydroxy-5-[[(1S,2R)-2-hydroxyindan-1-yl]amino]-5-keto-pentyl]-N-tert-butyl-4-[1-[5-(5-chloro-3-pyridyl)oxazol-2-yl]-1-methyl-ethyl]piperazine-2-carboxamide
> <PUBCHEM_IUPAC_INCHI>
InChI=1S/C41H51ClN6O5/c1-40(2,3)46-38(52)33-25-48(41(4,5)39-44-23-35(53-39)29-18-30(42)22-43-21-29)16-15-47(33)24-31(49)19-28(17-26-11-7-6-8-12-26)37(51)45-36-32-14-10-9-13-27(32)20-34(36)50/h6-14,18,21-23,28,31,33-34,36,49-50H,15-17,19-20,24-25H2,1-5H3,(H,45,51)(H,46,52)/t28-,31-,33-,34+,36-/m0/s1
> <PUBCHEM_IUPAC_INCHIKEY>
SAAWRNHGBUOUAU-CHKGKDMASA-N
> <PUBCHEM_XLOGP3_AA>
4.1
> <PUBCHEM_EXACT_MASS>
742.3609464
> <PUBCHEM_MOLECULAR_FORMULA>
C41H51ClN6O5
> <PUBCHEM_MOLECULAR_WEIGHT>
743.3
> <PUBCHEM_OPENEYE_CAN_SMILES>
CC(C)(C)NC(=O)C1CN(CCN1CC(CC(CC2=CC=CC=C2)C(=O)NC3C(CC4=CC=CC=C34)O)O)C(C)(C)C5=NC=C(O5)C6=CC(=CN=C6)Cl
> <PUBCHEM_OPENEYE_ISO_SMILES>
CC(C)(C)NC(=O)[C@@H]1CN(CCN1C[C@H](C[C@H](CC2=CC=CC=C2)C(=O)N[C@@H]3[C@@H](CC4=CC=CC=C34)O)O)C(C)(C)C5=NC=C(O5)C6=CC(=CN=C6)Cl
> <PUBCHEM_CACTVS_TPSA>
144
> <PUBCHEM_MONOISOTOPIC_WEIGHT>
742.3609464
> <PUBCHEM_TOTAL_CHARGE>
0
> <PUBCHEM_HEAVY_ATOM_COUNT>
53
> <PUBCHEM_ATOM_DEF_STEREO_COUNT>
5
> <PUBCHEM_ATOM_UDEF_STEREO_COUNT>
0
> <PUBCHEM_BOND_DEF_STEREO_COUNT>
0
> <PUBCHEM_BOND_UDEF_STEREO_COUNT>
0
> <PUBCHEM_ISOTOPIC_ATOM_COUNT>
0
> <PUBCHEM_COMPONENT_COUNT>
1
> <PUBCHEM_CACTVS_TAUTO_COUNT>
-1
> <PUBCHEM_COORDINATE_TYPE>
1
5
255
> <PUBCHEM_BONDANNOTATIONS>
26  10  6
11  25  8
11  40  8
12  51  8
12  53  8
13  20  6
19  2  5
24  21  5
3  25  8
3  38  8
31  33  8
31  39  8
33  41  8
37  44  8
37  45  8
38  40  8
39  42  8
41  43  8
42  43  8
44  47  8
45  48  8
46  49  8
46  51  8
47  50  8
48  50  8
49  52  8
28  5  6
52  53  8
$$$$
