508270
  -OEChem-10302200282D
 79 81  0     1  0  0  0  0  0999 V2000
    6.6906   -0.5617    0.0000 S   0  0  0  0  0  0  0  0  0  0  0  0
    8.1906    2.0363    0.0000 O   0  0  0  0  0  0  0  0  0  0  0  0
    5.6906    4.6344    0.0000 O   0  0  0  0  0  0  0  0  0  0  0  0
    7.5567   -1.0617    0.0000 O   0  0  0  0  0  0  0  0  0  0  0  0
    5.8246   -0.0617    0.0000 O   0  0  0  0  0  0  0  0  0  0  0  0
    4.6906   -4.0258    0.0000 O   0  0  0  0  0  0  0  0  0  0  0  0
    5.6906    2.9024    0.0000 N   0  0  0  0  0  0  0  0  0  0  0  0
    7.1906    0.3043    0.0000 N   0  0  3  0  0  0  0  0  0  0  0  0
    4.1906    3.7684    0.0000 C   0  0  0  0  0  0  0  0  0  0  0  0
    3.7568    2.8674    0.0000 C   0  0  0  0  0  0  0  0  0  0  0  0
    3.7568    4.6694    0.0000 C   0  0  0  0  0  0  0  0  0  0  0  0
    2.7818    2.6449    0.0000 C   0  0  0  0  0  0  0  0  0  0  0  0
    2.7818    4.8919    0.0000 C   0  0  0  0  0  0  0  0  0  0  0  0
    2.0000    3.2684    0.0000 C   0  0  0  0  0  0  0  0  0  0  0  0
    2.0000    4.2684    0.0000 C   0  0  0  0  0  0  0  0  0  0  0  0
    6.6906    2.9024    0.0000 C   0  0  2  0  0  0  0  0  0  0  0  0
    7.1906    2.0363    0.0000 C   0  0  1  0  0  0  0  0  0  0  0  0
    5.1906    3.7684    0.0000 C   0  0  0  0  0  0  0  0  0  0  0  0
    6.6906    1.1703    0.0000 C   0  0  0  0  0  0  0  0  0  0  0  0
    7.1906    3.7684    0.0000 C   0  0  0  0  0  0  0  0  0  0  0  0
    8.1906    0.3043    0.0000 C   0  0  0  0  0  0  0  0  0  0  0  0
    8.6906   -0.5617    0.0000 C   0  0  0  0  0  0  0  0  0  0  0  0
    8.1906    3.7684    0.0000 C   0  0  0  0  0  0  0  0  0  0  0  0
    6.1906   -1.4278    0.0000 C   0  0  0  0  0  0  0  0  0  0  0  0
    9.6906   -0.5617    0.0000 C   0  0  0  0  0  0  0  0  0  0  0  0
    8.1906   -1.4278    0.0000 C   0  0  0  0  0  0  0  0  0  0  0  0
    8.6906    4.6344    0.0000 C   0  0  0  0  0  0  0  0  0  0  0  0
    8.6906    2.9024    0.0000 C   0  0  0  0  0  0  0  0  0  0  0  0
    6.6906   -2.2938    0.0000 C   0  0  0  0  0  0  0  0  0  0  0  0
    5.1906   -1.4278    0.0000 C   0  0  0  0  0  0  0  0  0  0  0  0
    9.6906    4.6344    0.0000 C   0  0  0  0  0  0  0  0  0  0  0  0
    9.6906    2.9024    0.0000 C   0  0  0  0  0  0  0  0  0  0  0  0
   10.1906    3.7684    0.0000 C   0  0  0  0  0  0  0  0  0  0  0  0
    6.1906   -3.1598    0.0000 C   0  0  0  0  0  0  0  0  0  0  0  0
    4.6906   -2.2938    0.0000 C   0  0  0  0  0  0  0  0  0  0  0  0
    5.1906   -3.1598    0.0000 C   0  0  0  0  0  0  0  0  0  0  0  0
    5.1906   -4.8919    0.0000 C   0  0  0  0  0  0  0  0  0  0  0  0
    4.5205    3.2434    0.0000 H   0  0  0  0  0  0  0  0  0  0  0  0
    3.7568    2.2474    0.0000 H   0  0  0  0  0  0  0  0  0  0  0  0
    4.3612    2.7294    0.0000 H   0  0  0  0  0  0  0  0  0  0  0  0
    4.3612    4.8073    0.0000 H   0  0  0  0  0  0  0  0  0  0  0  0
    3.7568    5.2894    0.0000 H   0  0  0  0  0  0  0  0  0  0  0  0
    2.2971    2.2583    0.0000 H   0  0  0  0  0  0  0  0  0  0  0  0
    3.0508    2.0863    0.0000 H   0  0  0  0  0  0  0  0  0  0  0  0
    3.0508    5.4505    0.0000 H   0  0  0  0  0  0  0  0  0  0  0  0
    2.2971    5.2784    0.0000 H   0  0  0  0  0  0  0  0  0  0  0  0
    1.3955    3.4064    0.0000 H   0  0  0  0  0  0  0  0  0  0  0  0
    1.7310    2.7098    0.0000 H   0  0  0  0  0  0  0  0  0  0  0  0
    1.7310    4.8270    0.0000 H   0  0  0  0  0  0  0  0  0  0  0  0
    1.3955    4.1304    0.0000 H   0  0  0  0  0  0  0  0  0  0  0  0
    6.3806    2.3654    0.0000 H   0  0  0  0  0  0  0  0  0  0  0  0
    7.5006    2.5733    0.0000 H   0  0  0  0  0  0  0  0  0  0  0  0
    5.3806    2.3654    0.0000 H   0  0  0  0  0  0  0  0  0  0  0  0
    6.2157    1.5688    0.0000 H   0  0  0  0  0  0  0  0  0  0  0  0
    6.2157    0.7718    0.0000 H   0  0  0  0  0  0  0  0  0  0  0  0
    7.2983    4.3790    0.0000 H   0  0  0  0  0  0  0  0  0  0  0  0
    6.6080    3.9804    0.0000 H   0  0  0  0  0  0  0  0  0  0  0  0
    8.7733    0.5163    0.0000 H   0  0  0  0  0  0  0  0  0  0  0  0
    8.0830    0.9149    0.0000 H   0  0  0  0  0  0  0  0  0  0  0  0
    9.0006   -1.0987    0.0000 H   0  0  0  0  0  0  0  0  0  0  0  0
    8.5006    1.4994    0.0000 H   0  0  0  0  0  0  0  0  0  0  0  0
    9.6906   -1.1817    0.0000 H   0  0  0  0  0  0  0  0  0  0  0  0
   10.3106   -0.5617    0.0000 H   0  0  0  0  0  0  0  0  0  0  0  0
    9.6906    0.0583    0.0000 H   0  0  0  0  0  0  0  0  0  0  0  0
    7.6537   -1.1178    0.0000 H   0  0  0  0  0  0  0  0  0  0  0  0
    7.8806   -1.9647    0.0000 H   0  0  0  0  0  0  0  0  0  0  0  0
    8.7276   -1.7378    0.0000 H   0  0  0  0  0  0  0  0  0  0  0  0
    8.3806    5.1713    0.0000 H   0  0  0  0  0  0  0  0  0  0  0  0
    8.3806    2.3654    0.0000 H   0  0  0  0  0  0  0  0  0  0  0  0
    7.3106   -2.2938    0.0000 H   0  0  0  0  0  0  0  0  0  0  0  0
    4.8806   -0.8908    0.0000 H   0  0  0  0  0  0  0  0  0  0  0  0
   10.0006    5.1713    0.0000 H   0  0  0  0  0  0  0  0  0  0  0  0
   10.0006    2.3654    0.0000 H   0  0  0  0  0  0  0  0  0  0  0  0
   10.8106    3.7684    0.0000 H   0  0  0  0  0  0  0  0  0  0  0  0
    6.5006   -3.6968    0.0000 H   0  0  0  0  0  0  0  0  0  0  0  0
    4.0706   -2.2938    0.0000 H   0  0  0  0  0  0  0  0  0  0  0  0
    4.6537   -5.2019    0.0000 H   0  0  0  0  0  0  0  0  0  0  0  0
    5.5006   -5.4288    0.0000 H   0  0  0  0  0  0  0  0  0  0  0  0
    5.7276   -4.5819    0.0000 H   0  0  0  0  0  0  0  0  0  0  0  0
  1  4  2  0  0  0  0
  1  5  2  0  0  0  0
  1  8  1  0  0  0  0
  1 24  1  0  0  0  0
 17  2  1  6  0  0  0
  2 61  1  0  0  0  0
  3 18  2  0  0  0  0
  6 36  1  0  0  0  0
  6 37  1  0  0  0  0
 16  7  1  1  0  0  0
  7 18  1  0  0  0  0
  7 53  1  0  0  0  0
  8 19  1  0  0  0  0
  8 21  1  0  0  0  0
  9 10  1  0  0  0  0
  9 11  1  0  0  0  0
  9 18  1  0  0  0  0
  9 38  1  0  0  0  0
 10 12  1  0  0  0  0
 10 39  1  0  0  0  0
 10 40  1  0  0  0  0
 11 13  1  0  0  0  0
 11 41  1  0  0  0  0
 11 42  1  0  0  0  0
 12 14  1  0  0  0  0
 12 43  1  0  0  0  0
 12 44  1  0  0  0  0
 13 15  1  0  0  0  0
 13 45  1  0  0  0  0
 13 46  1  0  0  0  0
 14 15  1  0  0  0  0
 14 47  1  0  0  0  0
 14 48  1  0  0  0  0
 15 49  1  0  0  0  0
 15 50  1  0  0  0  0
 16 17  1  0  0  0  0
 16 20  1  0  0  0  0
 16 51  1  0  0  0  0
 17 19  1  0  0  0  0
 17 52  1  0  0  0  0
 19 54  1  0  0  0  0
 19 55  1  0  0  0  0
 20 23  1  0  0  0  0
 20 56  1  0  0  0  0
 20 57  1  0  0  0  0
 21 22  1  0  0  0  0
 21 58  1  0  0  0  0
 21 59  1  0  0  0  0
 22 25  1  0  0  0  0
 22 26  1  0  0  0  0
 22 60  1  0  0  0  0
 23 27  2  0  0  0  0
 23 28  1  0  0  0  0
 24 29  2  0  0  0  0
 24 30  1  0  0  0  0
 25 62  1  0  0  0  0
 25 63  1  0  0  0  0
 25 64  1  0  0  0  0
 26 65  1  0  0  0  0
 26 66  1  0  0  0  0
 26 67  1  0  0  0  0
 27 31  1  0  0  0  0
 27 68  1  0  0  0  0
 28 32  2  0  0  0  0
 28 69  1  0  0  0  0
 29 34  1  0  0  0  0
 29 70  1  0  0  0  0
 30 35  2  0  0  0  0
 30 71  1  0  0  0  0
 31 33  2  0  0  0  0
 31 72  1  0  0  0  0
 32 33  1  0  0  0  0
 32 73  1  0  0  0  0
 33 74  1  0  0  0  0
 34 36  2  0  0  0  0
 34 75  1  0  0  0  0
 35 36  1  0  0  0  0
 35 76  1  0  0  0  0
 37 77  1  0  0  0  0
 37 78  1  0  0  0  0
 37 79  1  0  0  0  0
M  END
> <PUBCHEM_COMPOUND_CID>
508270
> <PUBCHEM_COMPOUND_CANONICALIZED>
1
> <PUBCHEM_CACTVS_COMPLEXITY>
762
> <PUBCHEM_CACTVS_HBOND_ACCEPTOR>
6
> <PUBCHEM_CACTVS_HBOND_DONOR>
2
> <PUBCHEM_CACTVS_ROTATABLE_BOND>
12
> <PUBCHEM_CACTVS_SUBSKEYS>
AAADcfB7OABAAAAAAAAAAAAAAAAAAAAAAAAwYAAABgAAAAABQAAAHgQQSAAADTzh2AYyB4LABgKIAiFSEHBCCBAgIAAIiJkOCIgONjKE8RuEcCAk1hGYqAeYyOCOAIAAAAAAAAABAAAAAAAAAAAAAAAAAA==
> <PUBCHEM_IUPAC_OPENEYE_NAME>
N-[(1S,2R)-1-benzyl-2-hydroxy-3-[isobutyl-(4-methoxyphenyl)sulfonyl-amino]propyl]cycloheptanecarboxamide
> <PUBCHEM_IUPAC_CAS_NAME>
N-[(2S,3R)-3-hydroxy-4-[(4-methoxyphenyl)sulfonyl-(2-methylpropyl)amino]-1-phenylbutan-2-yl]cycloheptanecarboxamide
> <PUBCHEM_IUPAC_NAME_MARKUP>
<I>N</I>-[(2<I>S</I>,3<I>R</I>)-3-hydroxy-4-[(4-methoxyphenyl)sulfonyl-(2-methylpropyl)amino]-1-phenylbutan-2-yl]cycloheptanecarboxamide
> <PUBCHEM_IUPAC_NAME>
N-[(2S,3R)-3-hydroxy-4-[(4-methoxyphenyl)sulfonyl-(2-methylpropyl)amino]-1-phenylbutan-2-yl]cycloheptanecarboxamide
> <PUBCHEM_IUPAC_SYSTEMATIC_NAME>
N-[(2S,3R)-4-[(4-methoxyphenyl)sulfonyl-(2-methylpropyl)amino]-3-oxidanyl-1-phenyl-butan-2-yl]cycloheptanecarboxamide
> <PUBCHEM_IUPAC_TRADITIONAL_NAME>
N-[(1S,2R)-1-benzyl-2-hydroxy-3-[isobutyl-(4-methoxyphenyl)sulfonyl-amino]propyl]cycloheptanecarboxamide
> <PUBCHEM_IUPAC_INCHI>
InChI=1S/C29H42N2O5S/c1-22(2)20-31(37(34,35)26-17-15-25(36-3)16-18-26)21-28(32)27(19-23-11-7-6-8-12-23)30-29(33)24-13-9-4-5-10-14-24/h6-8,11-12,15-18,22,24,27-28,32H,4-5,9-10,13-14,19-21H2,1-3H3,(H,30,33)/t27-,28+/m0/s1
> <PUBCHEM_IUPAC_INCHIKEY>
IEUREJQDCBVBQE-WUFINQPMSA-N
> <PUBCHEM_XLOGP3_AA>
5.7
> <PUBCHEM_EXACT_MASS>
530.28144362
> <PUBCHEM_MOLECULAR_FORMULA>
C29H42N2O5S
> <PUBCHEM_MOLECULAR_WEIGHT>
530.7
> <PUBCHEM_OPENEYE_CAN_SMILES>
CC(C)CN(CC(C(CC1=CC=CC=C1)NC(=O)C2CCCCCC2)O)S(=O)(=O)C3=CC=C(C=C3)OC
> <PUBCHEM_OPENEYE_ISO_SMILES>
CC(C)CN(C[C@H]([C@H](CC1=CC=CC=C1)NC(=O)C2CCCCCC2)O)S(=O)(=O)C3=CC=C(C=C3)OC
> <PUBCHEM_CACTVS_TPSA>
104
> <PUBCHEM_MONOISOTOPIC_WEIGHT>
530.28144362
> <PUBCHEM_TOTAL_CHARGE>
0
> <PUBCHEM_HEAVY_ATOM_COUNT>
37
> <PUBCHEM_ATOM_DEF_STEREO_COUNT>
2
> <PUBCHEM_ATOM_UDEF_STEREO_COUNT>
0
> <PUBCHEM_BOND_DEF_STEREO_COUNT>
0
> <PUBCHEM_BOND_UDEF_STEREO_COUNT>
0
> <PUBCHEM_ISOTOPIC_ATOM_COUNT>
0
> <PUBCHEM_COMPONENT_COUNT>
1
> <PUBCHEM_CACTVS_TAUTO_COUNT>
-1
> <PUBCHEM_COORDINATE_TYPE>
1
5
255
> <PUBCHEM_BONDANNOTATIONS>
17  2  6
23  27  8
23  28  8
24  29  8
24  30  8
27  31  8
28  32  8
29  34  8
30  35  8
31  33  8
32  33  8
34  36  8
35  36  8
16  7  5
$$$$
