508208
  -OEChem-10302200282D
 89 93  0     1  0  0  0  0  0999 V2000
   11.5942   -0.7673    0.0000 O   0  0  0  0  0  0  0  0  0  0  0  0
    6.3981    1.2327    0.0000 O   0  0  0  0  0  0  0  0  0  0  0  0
   10.7282    2.7327    0.0000 O   0  0  0  0  0  0  0  0  0  0  0  0
    8.1301   -0.7673    0.0000 O   0  0  0  0  0  0  0  0  0  0  0  0
    5.5321    2.7327    0.0000 N   0  0  0  0  0  0  0  0  0  0  0  0
    9.8622    1.2327    0.0000 N   0  0  0  0  0  0  0  0  0  0  0  0
    7.2641   -2.2673    0.0000 N   0  0  0  0  0  0  0  0  0  0  0  0
   10.7282    0.7327    0.0000 C   0  0  2  0  0  0  0  0  0  0  0  0
   10.7282   -0.2673    0.0000 C   0  0  2  0  0  0  0  0  0  0  0  0
    9.8622   -0.7673    0.0000 C   0  0  0  0  0  0  0  0  0  0  0  0
   11.5942    1.2327    0.0000 C   0  0  0  0  0  0  0  0  0  0  0  0
    5.5321    3.7327    0.0000 C   0  0  0  0  0  0  0  0  0  0  0  0
    4.6660    4.2327    0.0000 C   0  0  0  0  0  0  0  0  0  0  0  0
    4.6660    2.2327    0.0000 C   0  0  0  0  0  0  0  0  0  0  0  0
    3.8000    3.7327    0.0000 C   0  0  0  0  0  0  0  0  0  0  0  0
    9.8622   -1.7673    0.0000 C   0  0  0  0  0  0  0  0  0  0  0  0
    3.8000    2.7327    0.0000 C   0  0  0  0  0  0  0  0  0  0  0  0
   12.4603    0.7327    0.0000 C   0  0  0  0  0  0  0  0  0  0  0  0
    8.9962   -2.2673    0.0000 C   0  0  0  0  0  0  0  0  0  0  0  0
    6.3981    2.2327    0.0000 C   0  0  0  0  0  0  0  0  0  0  0  0
    9.8622    2.2327    0.0000 C   0  0  0  0  0  0  0  0  0  0  0  0
    7.2641   -3.2673    0.0000 C   0  0  0  0  0  0  0  0  0  0  0  0
    8.9962    2.7327    0.0000 C   0  0  0  0  0  0  0  0  0  0  0  0
    7.2641    2.7327    0.0000 C   0  0  0  0  0  0  0  0  0  0  0  0
    2.9061    4.2673    0.0000 C   0  0  0  0  0  0  0  0  0  0  0  0
    2.9061    2.1980    0.0000 C   0  0  0  0  0  0  0  0  0  0  0  0
   10.7282   -2.2673    0.0000 C   0  0  0  0  0  0  0  0  0  0  0  0
    8.1301    2.2327    0.0000 C   0  0  0  0  0  0  0  0  0  0  0  0
    8.1301   -1.7673    0.0000 C   0  0  0  0  0  0  0  0  0  0  0  0
    8.9962    3.7327    0.0000 C   0  0  0  0  0  0  0  0  0  0  0  0
   13.3263    1.2327    0.0000 C   0  0  0  0  0  0  0  0  0  0  0  0
   12.4603   -0.2673    0.0000 C   0  0  0  0  0  0  0  0  0  0  0  0
    8.9962   -3.2673    0.0000 C   0  0  0  0  0  0  0  0  0  0  0  0
    7.2641    3.7327    0.0000 C   0  0  0  0  0  0  0  0  0  0  0  0
    2.0000    3.7535    0.0000 C   0  0  0  0  0  0  0  0  0  0  0  0
    2.0000    2.7118    0.0000 C   0  0  0  0  0  0  0  0  0  0  0  0
    7.2641   -4.2673    0.0000 C   0  0  0  0  0  0  0  0  0  0  0  0
    6.2641   -3.2673    0.0000 C   0  0  0  0  0  0  0  0  0  0  0  0
    8.2641   -3.2673    0.0000 C   0  0  0  0  0  0  0  0  0  0  0  0
    8.1301    4.2327    0.0000 C   0  0  0  0  0  0  0  0  0  0  0  0
   10.7282   -3.2673    0.0000 C   0  0  0  0  0  0  0  0  0  0  0  0
    9.8622   -3.7673    0.0000 C   0  0  0  0  0  0  0  0  0  0  0  0
   14.1923    0.7327    0.0000 C   0  0  0  0  0  0  0  0  0  0  0  0
   13.3263   -0.7673    0.0000 C   0  0  0  0  0  0  0  0  0  0  0  0
    9.8622    4.2327    0.0000 C   0  0  0  0  0  0  0  0  0  0  0  0
   14.1923   -0.2673    0.0000 C   0  0  0  0  0  0  0  0  0  0  0  0
   10.7282    1.3527    0.0000 H   0  0  0  0  0  0  0  0  0  0  0  0
   11.2651    0.0427    0.0000 H   0  0  0  0  0  0  0  0  0  0  0  0
    9.6501   -0.1847    0.0000 H   0  0  0  0  0  0  0  0  0  0  0  0
    9.2516   -0.8750    0.0000 H   0  0  0  0  0  0  0  0  0  0  0  0
   11.9928    1.7076    0.0000 H   0  0  0  0  0  0  0  0  0  0  0  0
   11.1957    1.7076    0.0000 H   0  0  0  0  0  0  0  0  0  0  0  0
    6.1426    3.6250    0.0000 H   0  0  0  0  0  0  0  0  0  0  0  0
    5.7441    4.3153    0.0000 H   0  0  0  0  0  0  0  0  0  0  0  0
    5.0646    4.7076    0.0000 H   0  0  0  0  0  0  0  0  0  0  0  0
    4.2675    4.7076    0.0000 H   0  0  0  0  0  0  0  0  0  0  0  0
    4.2675    1.7577    0.0000 H   0  0  0  0  0  0  0  0  0  0  0  0
    5.0646    1.7577    0.0000 H   0  0  0  0  0  0  0  0  0  0  0  0
    9.3252    0.9227    0.0000 H   0  0  0  0  0  0  0  0  0  0  0  0
   11.5942   -1.3873    0.0000 H   0  0  0  0  0  0  0  0  0  0  0  0
    2.9132    4.8873    0.0000 H   0  0  0  0  0  0  0  0  0  0  0  0
    2.9132    1.5780    0.0000 H   0  0  0  0  0  0  0  0  0  0  0  0
   11.2651   -1.9573    0.0000 H   0  0  0  0  0  0  0  0  0  0  0  0
    8.1301    1.6127    0.0000 H   0  0  0  0  0  0  0  0  0  0  0  0
    6.7272   -1.9573    0.0000 H   0  0  0  0  0  0  0  0  0  0  0  0
   13.3263    1.8527    0.0000 H   0  0  0  0  0  0  0  0  0  0  0  0
   11.9233   -0.5773    0.0000 H   0  0  0  0  0  0  0  0  0  0  0  0
    8.4592   -3.5773    0.0000 H   0  0  0  0  0  0  0  0  0  0  0  0
    6.7272    4.0427    0.0000 H   0  0  0  0  0  0  0  0  0  0  0  0
    1.4643    4.0656    0.0000 H   0  0  0  0  0  0  0  0  0  0  0  0
    1.4643    2.3998    0.0000 H   0  0  0  0  0  0  0  0  0  0  0  0
    6.6441   -4.2673    0.0000 H   0  0  0  0  0  0  0  0  0  0  0  0
    7.2641   -4.8873    0.0000 H   0  0  0  0  0  0  0  0  0  0  0  0
    7.8841   -4.2673    0.0000 H   0  0  0  0  0  0  0  0  0  0  0  0
    6.2641   -2.6473    0.0000 H   0  0  0  0  0  0  0  0  0  0  0  0
    5.6441   -3.2673    0.0000 H   0  0  0  0  0  0  0  0  0  0  0  0
    6.2641   -3.8873    0.0000 H   0  0  0  0  0  0  0  0  0  0  0  0
    8.2641   -3.8873    0.0000 H   0  0  0  0  0  0  0  0  0  0  0  0
    8.8841   -3.2673    0.0000 H   0  0  0  0  0  0  0  0  0  0  0  0
    8.2641   -2.6473    0.0000 H   0  0  0  0  0  0  0  0  0  0  0  0
    8.1301    4.8527    0.0000 H   0  0  0  0  0  0  0  0  0  0  0  0
   11.2651   -3.5773    0.0000 H   0  0  0  0  0  0  0  0  0  0  0  0
    9.8622   -4.3873    0.0000 H   0  0  0  0  0  0  0  0  0  0  0  0
   14.7292    1.0427    0.0000 H   0  0  0  0  0  0  0  0  0  0  0  0
   13.3263   -1.3873    0.0000 H   0  0  0  0  0  0  0  0  0  0  0  0
   10.1722    3.6957    0.0000 H   0  0  0  0  0  0  0  0  0  0  0  0
   10.3991    4.5427    0.0000 H   0  0  0  0  0  0  0  0  0  0  0  0
    9.5522    4.7696    0.0000 H   0  0  0  0  0  0  0  0  0  0  0  0
   14.7292   -0.5773    0.0000 H   0  0  0  0  0  0  0  0  0  0  0  0
  9  1  1  1  0  0  0
  1 60  1  0  0  0  0
  2 20  2  0  0  0  0
  3 21  2  0  0  0  0
  4 29  2  0  0  0  0
  5 12  1  0  0  0  0
  5 14  1  0  0  0  0
  5 20  1  0  0  0  0
  8  6  1  1  0  0  0
  6 21  1  0  0  0  0
  6 59  1  0  0  0  0
  7 22  1  0  0  0  0
  7 29  1  0  0  0  0
  7 65  1  0  0  0  0
  8  9  1  0  0  0  0
  8 11  1  0  0  0  0
  8 47  1  0  0  0  0
  9 10  1  0  0  0  0
  9 48  1  0  0  0  0
 10 16  1  0  0  0  0
 10 49  1  0  0  0  0
 10 50  1  0  0  0  0
 11 18  1  0  0  0  0
 11 51  1  0  0  0  0
 11 52  1  0  0  0  0
 12 13  1  0  0  0  0
 12 53  1  0  0  0  0
 12 54  1  0  0  0  0
 13 15  1  0  0  0  0
 13 55  1  0  0  0  0
 13 56  1  0  0  0  0
 14 17  1  0  0  0  0
 14 57  1  0  0  0  0
 14 58  1  0  0  0  0
 15 17  1  0  0  0  0
 15 25  2  0  0  0  0
 16 19  1  0  0  0  0
 16 27  2  0  0  0  0
 17 26  2  0  0  0  0
 18 31  2  0  0  0  0
 18 32  1  0  0  0  0
 19 29  1  0  0  0  0
 19 33  2  0  0  0  0
 20 24  1  0  0  0  0
 21 23  1  0  0  0  0
 22 37  1  0  0  0  0
 22 38  1  0  0  0  0
 22 39  1  0  0  0  0
 23 28  1  0  0  0  0
 23 30  2  0  0  0  0
 24 28  2  0  0  0  0
 24 34  1  0  0  0  0
 25 35  1  0  0  0  0
 25 61  1  0  0  0  0
 26 36  1  0  0  0  0
 26 62  1  0  0  0  0
 27 41  1  0  0  0  0
 27 63  1  0  0  0  0
 28 64  1  0  0  0  0
 30 40  1  0  0  0  0
 30 45  1  0  0  0  0
 31 43  1  0  0  0  0
 31 66  1  0  0  0  0
 32 44  2  0  0  0  0
 32 67  1  0  0  0  0
 33 42  1  0  0  0  0
 33 68  1  0  0  0  0
 34 40  2  0  0  0  0
 34 69  1  0  0  0  0
 35 36  2  0  0  0  0
 35 70  1  0  0  0  0
 36 71  1  0  0  0  0
 37 72  1  0  0  0  0
 37 73  1  0  0  0  0
 37 74  1  0  0  0  0
 38 75  1  0  0  0  0
 38 76  1  0  0  0  0
 38 77  1  0  0  0  0
 39 78  1  0  0  0  0
 39 79  1  0  0  0  0
 39 80  1  0  0  0  0
 40 81  1  0  0  0  0
 41 42  2  0  0  0  0
 41 82  1  0  0  0  0
 42 83  1  0  0  0  0
 43 46  2  0  0  0  0
 43 84  1  0  0  0  0
 44 46  1  0  0  0  0
 44 85  1  0  0  0  0
 45 86  1  0  0  0  0
 45 87  1  0  0  0  0
 45 88  1  0  0  0  0
 46 89  1  0  0  0  0
M  END
> <PUBCHEM_COMPOUND_CID>
508208
> <PUBCHEM_COMPOUND_CANONICALIZED>
1
> <PUBCHEM_CACTVS_COMPLEXITY>
1020
> <PUBCHEM_CACTVS_HBOND_ACCEPTOR>
4
> <PUBCHEM_CACTVS_HBOND_DONOR>
3
> <PUBCHEM_CACTVS_ROTATABLE_BOND>
10
> <PUBCHEM_CACTVS_SUBSKEYS>
AAADcfB/OAAAAAAAAAAAAAAAAAAAAAAAAAA8YMGCAAAAAACxVAAAHgAQCAAADLzhmAYyAIPAAgCIAiFSEACCAAAkAAAIiIEIBMgKMDKAlRGEYQhk1gGYiYeY3+LOwAACAAAQAACAAAQAACAAAAAAAAAAAA==
> <PUBCHEM_IUPAC_OPENEYE_NAME>
N-[(1S,2S)-1-benzyl-3-[2-(tert-butylcarbamoyl)phenyl]-2-hydroxy-propyl]-5-(3,4-dihydro-1H-isoquinoline-2-carbonyl)-2-methyl-benzamide
> <PUBCHEM_IUPAC_CAS_NAME>
N-[(2S,3S)-4-[2-[(tert-butylamino)-oxomethyl]phenyl]-3-hydroxy-1-phenylbutan-2-yl]-5-[3,4-dihydro-1H-isoquinolin-2-yl(oxo)methyl]-2-methylbenzamide
> <PUBCHEM_IUPAC_NAME_MARKUP>
<I>N</I>-[(2<I>S</I>,3<I>S</I>)-4-[2-(<I>tert</I>-butylcarbamoyl)phenyl]-3-hydroxy-1-phenylbutan-2-yl]-5-(3,4-dihydro-1<I>H</I>-isoquinoline-2-carbonyl)-2-methylbenzamide
> <PUBCHEM_IUPAC_NAME>
N-[(2S,3S)-4-[2-(tert-butylcarbamoyl)phenyl]-3-hydroxy-1-phenylbutan-2-yl]-5-(3,4-dihydro-1H-isoquinoline-2-carbonyl)-2-methylbenzamide
> <PUBCHEM_IUPAC_SYSTEMATIC_NAME>
N-[(2S,3S)-4-[2-(tert-butylcarbamoyl)phenyl]-3-oxidanyl-1-phenyl-butan-2-yl]-5-(3,4-dihydro-1H-isoquinolin-2-ylcarbonyl)-2-methyl-benzamide
> <PUBCHEM_IUPAC_TRADITIONAL_NAME>
N-[(1S,2S)-1-benzyl-3-[2-(tert-butylcarbamoyl)phenyl]-2-hydroxy-propyl]-5-(3,4-dihydro-1H-isoquinoline-2-carbonyl)-2-methyl-benzamide
> <PUBCHEM_IUPAC_INCHI>
InChI=1S/C39H43N3O4/c1-26-18-19-30(38(46)42-21-20-28-14-8-9-16-31(28)25-42)23-33(26)36(44)40-34(22-27-12-6-5-7-13-27)35(43)24-29-15-10-11-17-32(29)37(45)41-39(2,3)4/h5-19,23,34-35,43H,20-22,24-25H2,1-4H3,(H,40,44)(H,41,45)/t34-,35-/m0/s1
> <PUBCHEM_IUPAC_INCHIKEY>
KSZTYZFIKNGZHP-PXLJZGITSA-N
> <PUBCHEM_XLOGP3_AA>
6.2
> <PUBCHEM_EXACT_MASS>
617.32535686
> <PUBCHEM_MOLECULAR_FORMULA>
C39H43N3O4
> <PUBCHEM_MOLECULAR_WEIGHT>
617.8
> <PUBCHEM_OPENEYE_CAN_SMILES>
CC1=C(C=C(C=C1)C(=O)N2CCC3=CC=CC=C3C2)C(=O)NC(CC4=CC=CC=C4)C(CC5=CC=CC=C5C(=O)NC(C)(C)C)O
> <PUBCHEM_OPENEYE_ISO_SMILES>
CC1=C(C=C(C=C1)C(=O)N2CCC3=CC=CC=C3C2)C(=O)N[C@@H](CC4=CC=CC=C4)[C@H](CC5=CC=CC=C5C(=O)NC(C)(C)C)O
> <PUBCHEM_CACTVS_TPSA>
98.7
> <PUBCHEM_MONOISOTOPIC_WEIGHT>
617.32535686
> <PUBCHEM_TOTAL_CHARGE>
0
> <PUBCHEM_HEAVY_ATOM_COUNT>
46
> <PUBCHEM_ATOM_DEF_STEREO_COUNT>
2
> <PUBCHEM_ATOM_UDEF_STEREO_COUNT>
0
> <PUBCHEM_BOND_DEF_STEREO_COUNT>
0
> <PUBCHEM_BOND_UDEF_STEREO_COUNT>
0
> <PUBCHEM_ISOTOPIC_ATOM_COUNT>
0
> <PUBCHEM_COMPONENT_COUNT>
1
> <PUBCHEM_CACTVS_TAUTO_COUNT>
-1
> <PUBCHEM_COORDINATE_TYPE>
1
5
255
> <PUBCHEM_BONDANNOTATIONS>
9  1  5
15  17  8
15  25  8
16  19  8
16  27  8
17  26  8
18  31  8
18  32  8
19  33  8
23  28  8
23  30  8
24  28  8
24  34  8
25  35  8
26  36  8
27  41  8
30  40  8
31  43  8
32  44  8
33  42  8
34  40  8
35  36  8
41  42  8
43  46  8
44  46  8
8  6  5
$$$$
