508218
  -OEChem-10302200282D
100103  0     1  0  0  0  0  0999 V2000
    6.7524    0.1530    0.0000 O   0  0  0  0  0  0  0  0  0  0  0  0
    8.0125   -1.1071    0.0000 O   0  0  0  0  0  0  0  0  0  0  0  0
    4.4923   -1.1071    0.0000 O   0  0  0  0  0  0  0  0  0  0  0  0
    6.2524   -2.3858    0.0000 O   0  0  0  0  0  0  0  0  0  0  0  0
    9.9805   -1.8065    0.0000 O   0  0  0  0  0  0  0  0  0  0  0  0
   11.7405   -2.0852    0.0000 O   0  0  0  0  0  0  0  0  0  0  0  0
    8.8927   -4.1543    0.0000 O   0  0  0  0  0  0  0  0  0  0  0  0
   11.0682   -4.1543    0.0000 O   0  0  0  0  0  0  0  0  0  0  0  0
    5.5714    1.8756    0.0000 N   0  0  0  0  0  0  0  0  0  0  0  0
    3.9890    2.5800    0.0000 C   0  0  0  0  0  0  0  0  0  0  0  0
    6.9726    2.8936    0.0000 C   0  0  0  0  0  0  0  0  0  0  0  0
    4.9836    2.6846    0.0000 C   0  0  0  0  0  0  0  0  0  0  0  0
    6.5659    1.9801    0.0000 C   0  0  0  0  0  0  0  0  0  0  0  0
    5.1646    0.9620    0.0000 C   0  0  0  0  0  0  0  0  0  0  0  0
    5.7524    0.1530    0.0000 C   0  0  2  0  0  0  0  0  0  0  0  0
    3.5823    1.6665    0.0000 C   0  0  0  0  0  0  0  0  0  0  0  0
    3.4013    3.3891    0.0000 C   0  0  0  0  0  0  0  0  0  0  0  0
    7.9671    2.9982    0.0000 C   0  0  0  0  0  0  0  0  0  0  0  0
    6.3848    3.7026    0.0000 C   0  0  0  0  0  0  0  0  0  0  0  0
    5.4434   -0.7981    0.0000 C   0  0  2  0  0  0  0  0  0  0  0  0
    2.5878    1.5620    0.0000 C   0  0  0  0  0  0  0  0  0  0  0  0
    2.4067    3.2845    0.0000 C   0  0  0  0  0  0  0  0  0  0  0  0
    8.3739    3.9117    0.0000 C   0  0  0  0  0  0  0  0  0  0  0  0
    6.7916    4.6162    0.0000 C   0  0  0  0  0  0  0  0  0  0  0  0
    2.0000    2.3710    0.0000 C   0  0  0  0  0  0  0  0  0  0  0  0
    7.7861    4.7207    0.0000 C   0  0  0  0  0  0  0  0  0  0  0  0
    6.2524   -1.3858    0.0000 C   0  0  1  0  0  0  0  0  0  0  0  0
    7.0614   -0.7981    0.0000 C   0  0  2  0  0  0  0  0  0  0  0  0
    9.1714   -2.3942    0.0000 C   0  0  2  0  0  0  0  0  0  0  0  0
    8.2204   -2.0852    0.0000 C   0  0  0  0  0  0  0  0  0  0  0  0
    9.4805   -3.3453    0.0000 C   0  0  2  0  0  0  0  0  0  0  0  0
   10.4805   -3.3453    0.0000 C   0  0  1  0  0  0  0  0  0  0  0  0
   10.7895   -2.3942    0.0000 C   0  0  2  0  0  0  0  0  0  0  0  0
   11.9484   -1.1071    0.0000 C   0  0  0  0  0  0  0  0  0  0  0  0
   12.8995   -0.7981    0.0000 C   0  0  0  0  0  0  0  0  0  0  0  0
   13.1074    0.1801    0.0000 C   0  0  0  0  0  0  0  0  0  0  0  0
   14.0585    0.4891    0.0000 C   0  0  0  0  0  0  0  0  0  0  0  0
   14.2664    1.4672    0.0000 C   0  0  0  0  0  0  0  0  0  0  0  0
   15.2174    1.7763    0.0000 C   0  0  0  0  0  0  0  0  0  0  0  0
   15.4253    2.7544    0.0000 C   0  0  0  0  0  0  0  0  0  0  0  0
   16.3764    3.0634    0.0000 C   0  0  0  0  0  0  0  0  0  0  0  0
    4.2412    3.1464    0.0000 H   0  0  0  0  0  0  0  0  0  0  0  0
    7.3370    2.3920    0.0000 H   0  0  0  0  0  0  0  0  0  0  0  0
    5.5408    2.9564    0.0000 H   0  0  0  0  0  0  0  0  0  0  0  0
    4.8127    3.2806    0.0000 H   0  0  0  0  0  0  0  0  0  0  0  0
    6.5226    1.3616    0.0000 H   0  0  0  0  0  0  0  0  0  0  0  0
    7.1675    1.8301    0.0000 H   0  0  0  0  0  0  0  0  0  0  0  0
    4.6506    1.3087    0.0000 H   0  0  0  0  0  0  0  0  0  0  0  0
    4.7339    0.5160    0.0000 H   0  0  0  0  0  0  0  0  0  0  0  0
    6.0339    0.7054    0.0000 H   0  0  0  0  0  0  0  0  0  0  0  0
    3.5391    1.0480    0.0000 H   0  0  0  0  0  0  0  0  0  0  0  0
    4.1839    1.5165    0.0000 H   0  0  0  0  0  0  0  0  0  0  0  0
    3.9585    3.6608    0.0000 H   0  0  0  0  0  0  0  0  0  0  0  0
    3.2304    3.9850    0.0000 H   0  0  0  0  0  0  0  0  0  0  0  0
    7.9239    2.3797    0.0000 H   0  0  0  0  0  0  0  0  0  0  0  0
    8.5687    2.8482    0.0000 H   0  0  0  0  0  0  0  0  0  0  0  0
    5.8708    4.0493    0.0000 H   0  0  0  0  0  0  0  0  0  0  0  0
    5.9541    3.2566    0.0000 H   0  0  0  0  0  0  0  0  0  0  0  0
    5.3464   -1.4104    0.0000 H   0  0  0  0  0  0  0  0  0  0  0  0
    2.0305    1.2902    0.0000 H   0  0  0  0  0  0  0  0  0  0  0  0
    2.7587    0.9660    0.0000 H   0  0  0  0  0  0  0  0  0  0  0  0
    2.4500    3.9030    0.0000 H   0  0  0  0  0  0  0  0  0  0  0  0
    1.8052    3.4345    0.0000 H   0  0  0  0  0  0  0  0  0  0  0  0
    8.8879    3.5650    0.0000 H   0  0  0  0  0  0  0  0  0  0  0  0
    8.8046    4.3577    0.0000 H   0  0  0  0  0  0  0  0  0  0  0  0
    6.8348    5.2347    0.0000 H   0  0  0  0  0  0  0  0  0  0  0  0
    6.1900    4.7662    0.0000 H   0  0  0  0  0  0  0  0  0  0  0  0
    1.4860    2.7177    0.0000 H   0  0  0  0  0  0  0  0  0  0  0  0
    1.5693    1.9250    0.0000 H   0  0  0  0  0  0  0  0  0  0  0  0
    8.3433    4.9925    0.0000 H   0  0  0  0  0  0  0  0  0  0  0  0
    7.6152    5.3167    0.0000 H   0  0  0  0  0  0  0  0  0  0  0  0
    5.7000   -1.6673    0.0000 H   0  0  0  0  0  0  0  0  0  0  0  0
    7.1584   -1.4104    0.0000 H   0  0  0  0  0  0  0  0  0  0  0  0
    9.0744   -1.7819    0.0000 H   0  0  0  0  0  0  0  0  0  0  0  0
    7.6008   -2.1069    0.0000 H   0  0  0  0  0  0  0  0  0  0  0  0
    8.1341   -2.6992    0.0000 H   0  0  0  0  0  0  0  0  0  0  0  0
    9.7619   -3.8977    0.0000 H   0  0  0  0  0  0  0  0  0  0  0  0
    4.3634   -1.7135    0.0000 H   0  0  0  0  0  0  0  0  0  0  0  0
   11.0928   -3.2483    0.0000 H   0  0  0  0  0  0  0  0  0  0  0  0
    5.7155   -2.6958    0.0000 H   0  0  0  0  0  0  0  0  0  0  0  0
   10.8865   -1.7819    0.0000 H   0  0  0  0  0  0  0  0  0  0  0  0
    9.1448   -4.7207    0.0000 H   0  0  0  0  0  0  0  0  0  0  0  0
   11.6848   -4.0895    0.0000 H   0  0  0  0  0  0  0  0  0  0  0  0
   11.8622   -0.4931    0.0000 H   0  0  0  0  0  0  0  0  0  0  0  0
   11.3288   -1.0854    0.0000 H   0  0  0  0  0  0  0  0  0  0  0  0
   12.9858   -1.4120    0.0000 H   0  0  0  0  0  0  0  0  0  0  0  0
   13.5191   -0.8197    0.0000 H   0  0  0  0  0  0  0  0  0  0  0  0
   13.0211    0.7940    0.0000 H   0  0  0  0  0  0  0  0  0  0  0  0
   12.4878    0.2017    0.0000 H   0  0  0  0  0  0  0  0  0  0  0  0
   14.1448   -0.1249    0.0000 H   0  0  0  0  0  0  0  0  0  0  0  0
   14.6781    0.4675    0.0000 H   0  0  0  0  0  0  0  0  0  0  0  0
   14.1801    2.0812    0.0000 H   0  0  0  0  0  0  0  0  0  0  0  0
   13.6468    1.4889    0.0000 H   0  0  0  0  0  0  0  0  0  0  0  0
   15.3037    1.1623    0.0000 H   0  0  0  0  0  0  0  0  0  0  0  0
   15.8371    1.7546    0.0000 H   0  0  0  0  0  0  0  0  0  0  0  0
   15.3391    3.3684    0.0000 H   0  0  0  0  0  0  0  0  0  0  0  0
   14.8057    2.7760    0.0000 H   0  0  0  0  0  0  0  0  0  0  0  0
   16.5680    2.4738    0.0000 H   0  0  0  0  0  0  0  0  0  0  0  0
   16.9661    3.2550    0.0000 H   0  0  0  0  0  0  0  0  0  0  0  0
   16.1848    3.6531    0.0000 H   0  0  0  0  0  0  0  0  0  0  0  0
  1 15  1  0  0  0  0
  1 28  1  0  0  0  0
 28  2  1  6  0  0  0
  2 30  1  0  0  0  0
 20  3  1  6  0  0  0
  3 78  1  0  0  0  0
 27  4  1  1  0  0  0
  4 80  1  0  0  0  0
  5 29  1  0  0  0  0
  5 33  1  0  0  0  0
 33  6  1  6  0  0  0
  6 34  1  0  0  0  0
 31  7  1  6  0  0  0
  7 82  1  0  0  0  0
 32  8  1  1  0  0  0
  8 83  1  0  0  0  0
  9 12  1  0  0  0  0
  9 13  1  0  0  0  0
  9 14  1  0  0  0  0
 10 12  1  0  0  0  0
 10 16  1  0  0  0  0
 10 17  1  0  0  0  0
 10 42  1  0  0  0  0
 11 13  1  0  0  0  0
 11 18  1  0  0  0  0
 11 19  1  0  0  0  0
 11 43  1  0  0  0  0
 12 44  1  0  0  0  0
 12 45  1  0  0  0  0
 13 46  1  0  0  0  0
 13 47  1  0  0  0  0
 15 14  1  1  0  0  0
 14 48  1  0  0  0  0
 14 49  1  0  0  0  0
 15 20  1  0  0  0  0
 15 50  1  0  0  0  0
 16 21  1  0  0  0  0
 16 51  1  0  0  0  0
 16 52  1  0  0  0  0
 17 22  1  0  0  0  0
 17 53  1  0  0  0  0
 17 54  1  0  0  0  0
 18 23  1  0  0  0  0
 18 55  1  0  0  0  0
 18 56  1  0  0  0  0
 19 24  1  0  0  0  0
 19 57  1  0  0  0  0
 19 58  1  0  0  0  0
 20 27  1  0  0  0  0
 20 59  1  0  0  0  0
 21 25  1  0  0  0  0
 21 60  1  0  0  0  0
 21 61  1  0  0  0  0
 22 25  1  0  0  0  0
 22 62  1  0  0  0  0
 22 63  1  0  0  0  0
 23 26  1  0  0  0  0
 23 64  1  0  0  0  0
 23 65  1  0  0  0  0
 24 26  1  0  0  0  0
 24 66  1  0  0  0  0
 24 67  1  0  0  0  0
 25 68  1  0  0  0  0
 25 69  1  0  0  0  0
 26 70  1  0  0  0  0
 26 71  1  0  0  0  0
 27 28  1  0  0  0  0
 27 72  1  0  0  0  0
 28 73  1  0  0  0  0
 29 30  1  1  0  0  0
 29 31  1  0  0  0  0
 29 74  1  0  0  0  0
 30 75  1  0  0  0  0
 30 76  1  0  0  0  0
 31 32  1  0  0  0  0
 31 77  1  0  0  0  0
 32 33  1  0  0  0  0
 32 79  1  0  0  0  0
 33 81  1  0  0  0  0
 34 35  1  0  0  0  0
 34 84  1  0  0  0  0
 34 85  1  0  0  0  0
 35 36  1  0  0  0  0
 35 86  1  0  0  0  0
 35 87  1  0  0  0  0
 36 37  1  0  0  0  0
 36 88  1  0  0  0  0
 36 89  1  0  0  0  0
 37 38  1  0  0  0  0
 37 90  1  0  0  0  0
 37 91  1  0  0  0  0
 38 39  1  0  0  0  0
 38 92  1  0  0  0  0
 38 93  1  0  0  0  0
 39 40  1  0  0  0  0
 39 94  1  0  0  0  0
 39 95  1  0  0  0  0
 40 41  1  0  0  0  0
 40 96  1  0  0  0  0
 40 97  1  0  0  0  0
 41 98  1  0  0  0  0
 41 99  1  0  0  0  0
 41100  1  0  0  0  0
M  END
> <PUBCHEM_COMPOUND_CID>
508218
> <PUBCHEM_COMPOUND_CANONICALIZED>
1
> <PUBCHEM_CACTVS_COMPLEXITY>
683
> <PUBCHEM_CACTVS_HBOND_ACCEPTOR>
9
> <PUBCHEM_CACTVS_HBOND_DONOR>
4
> <PUBCHEM_CACTVS_ROTATABLE_BOND>
17
> <PUBCHEM_CACTVS_SUBSKEYS>
AAADcfB+PAAAAAAAAAAAAAAAAAAAASJAAAAwYAAAAAAAAAAAAAAAHgAACAAADRTxgAcCCAMABgAAAAAAAAAAAAAAAAAAAAAIAAATEAIAgAAnQAAHAACXAAHw8KoOAAAAAAAAAAAAAAAAAAAAAAAAAAAAAA==
> <PUBCHEM_IUPAC_OPENEYE_NAME>
(2R,3S,4S,5S)-2-[[bis(cyclohexylmethyl)amino]methyl]-5-[[(2R,3S,4S,5S)-3,4-dihydroxy-5-octoxy-tetrahydrofuran-2-yl]methoxy]tetrahydrofuran-3,4-diol
> <PUBCHEM_IUPAC_CAS_NAME>
(2R,3S,4S,5S)-2-[[bis(cyclohexylmethyl)amino]methyl]-5-[[(2R,3S,4S,5S)-3,4-dihydroxy-5-octoxy-2-oxolanyl]methoxy]oxolane-3,4-diol
> <PUBCHEM_IUPAC_NAME_MARKUP>
(2<I>R</I>,3<I>S</I>,4<I>S</I>,5<I>S</I>)-2-[[bis(cyclohexylmethyl)amino]methyl]-5-[[(2<I>R</I>,3<I>S</I>,4<I>S</I>,5<I>S</I>)-3,4-dihydroxy-5-octoxyoxolan-2-yl]methoxy]oxolane-3,4-diol
> <PUBCHEM_IUPAC_NAME>
(2R,3S,4S,5S)-2-[[bis(cyclohexylmethyl)amino]methyl]-5-[[(2R,3S,4S,5S)-3,4-dihydroxy-5-octoxyoxolan-2-yl]methoxy]oxolane-3,4-diol
> <PUBCHEM_IUPAC_SYSTEMATIC_NAME>
(2R,3S,4S,5S)-2-[[bis(cyclohexylmethyl)amino]methyl]-5-[[(2R,3S,4S,5S)-5-octoxy-3,4-bis(oxidanyl)oxolan-2-yl]methoxy]oxolane-3,4-diol
> <PUBCHEM_IUPAC_TRADITIONAL_NAME>
(2R,3S,4S,5S)-2-[[bis(cyclohexylmethyl)amino]methyl]-5-[[(2R,3S,4S,5S)-3,4-dihydroxy-5-octoxy-tetrahydrofuran-2-yl]methoxy]tetrahydrofuran-3,4-diol
> <PUBCHEM_IUPAC_INCHI>
InChI=1S/C32H59NO8/c1-2-3-4-5-6-13-18-38-31-30(37)28(35)26(41-31)22-39-32-29(36)27(34)25(40-32)21-33(19-23-14-9-7-10-15-23)20-24-16-11-8-12-17-24/h23-32,34-37H,2-22H2,1H3/t25-,26-,27-,28-,29+,30+,31+,32+/m1/s1
> <PUBCHEM_IUPAC_INCHIKEY>
AOCSNJGDXSCTAW-AUQHPUDISA-N
> <PUBCHEM_XLOGP3_AA>
5.4
> <PUBCHEM_EXACT_MASS>
585.42406784
> <PUBCHEM_MOLECULAR_FORMULA>
C32H59NO8
> <PUBCHEM_MOLECULAR_WEIGHT>
585.8
> <PUBCHEM_OPENEYE_CAN_SMILES>
CCCCCCCCOC1C(C(C(O1)COC2C(C(C(O2)CN(CC3CCCCC3)CC4CCCCC4)O)O)O)O
> <PUBCHEM_OPENEYE_ISO_SMILES>
CCCCCCCCO[C@@H]1[C@H]([C@@H]([C@H](O1)CO[C@@H]2[C@H]([C@@H]([C@H](O2)CN(CC3CCCCC3)CC4CCCCC4)O)O)O)O
> <PUBCHEM_CACTVS_TPSA>
121
> <PUBCHEM_MONOISOTOPIC_WEIGHT>
585.42406784
> <PUBCHEM_TOTAL_CHARGE>
0
> <PUBCHEM_HEAVY_ATOM_COUNT>
41
> <PUBCHEM_ATOM_DEF_STEREO_COUNT>
8
> <PUBCHEM_ATOM_UDEF_STEREO_COUNT>
0
> <PUBCHEM_BOND_DEF_STEREO_COUNT>
0
> <PUBCHEM_BOND_UDEF_STEREO_COUNT>
0
> <PUBCHEM_ISOTOPIC_ATOM_COUNT>
0
> <PUBCHEM_COMPONENT_COUNT>
1
> <PUBCHEM_CACTVS_TAUTO_COUNT>
-1
> <PUBCHEM_COORDINATE_TYPE>
1
5
255
> <PUBCHEM_BONDANNOTATIONS>
15  14  5
28  2  6
29  30  5
20  3  6
27  4  5
33  6  6
31  7  6
32  8  5
$$$$
