508217
  -OEChem-10302200282D
142145  0     1  0  0  0  0  0999 V2000
    7.8982   -3.8880    0.0000 Si  0  0  0  0  0  0  0  0  0  0  0  0
   12.0628   -3.8880    0.0000 Si  0  0  0  0  0  0  0  0  0  0  0  0
    8.8927   -3.9925    0.0000 O   0  0  0  0  0  0  0  0  0  0  0  0
   11.0682   -3.9925    0.0000 O   0  0  0  0  0  0  0  0  0  0  0  0
    9.9805   -1.6447    0.0000 O   0  0  0  0  0  0  0  0  0  0  0  0
    6.7524    0.3148    0.0000 O   0  0  0  0  0  0  0  0  0  0  0  0
    8.0125   -0.9453    0.0000 O   0  0  0  0  0  0  0  0  0  0  0  0
   11.7405   -1.9234    0.0000 O   0  0  0  0  0  0  0  0  0  0  0  0
    4.4923   -0.9453    0.0000 O   0  0  0  0  0  0  0  0  0  0  0  0
    6.2524   -2.2240    0.0000 O   0  0  0  0  0  0  0  0  0  0  0  0
    5.5714    2.0374    0.0000 N   0  0  0  0  0  0  0  0  0  0  0  0
    9.4805   -3.1835    0.0000 C   0  0  1  0  0  0  0  0  0  0  0  0
   10.4805   -3.1835    0.0000 C   0  0  1  0  0  0  0  0  0  0  0  0
    9.1714   -2.2324    0.0000 C   0  0  1  0  0  0  0  0  0  0  0  0
    3.9890    2.7418    0.0000 C   0  0  0  0  0  0  0  0  0  0  0  0
    6.9726    3.0554    0.0000 C   0  0  0  0  0  0  0  0  0  0  0  0
    5.7524    0.3148    0.0000 C   0  0  2  0  0  0  0  0  0  0  0  0
    4.9836    2.8464    0.0000 C   0  0  0  0  0  0  0  0  0  0  0  0
    6.5659    2.1419    0.0000 C   0  0  0  0  0  0  0  0  0  0  0  0
   10.7895   -2.2324    0.0000 C   0  0  2  0  0  0  0  0  0  0  0  0
    5.1646    1.1238    0.0000 C   0  0  0  0  0  0  0  0  0  0  0  0
    5.4434   -0.6363    0.0000 C   0  0  2  0  0  0  0  0  0  0  0  0
    6.9036   -3.7835    0.0000 C   0  0  0  0  0  0  0  0  0  0  0  0
    3.5823    1.8283    0.0000 C   0  0  0  0  0  0  0  0  0  0  0  0
    3.4013    3.5509    0.0000 C   0  0  0  0  0  0  0  0  0  0  0  0
    7.9671    3.1599    0.0000 C   0  0  0  0  0  0  0  0  0  0  0  0
    6.3848    3.8644    0.0000 C   0  0  0  0  0  0  0  0  0  0  0  0
    7.0614   -0.6363    0.0000 C   0  0  2  0  0  0  0  0  0  0  0  0
   13.0573   -3.7835    0.0000 C   0  0  0  0  0  0  0  0  0  0  0  0
    6.2524   -1.2240    0.0000 C   0  0  1  0  0  0  0  0  0  0  0  0
    8.2204   -1.9234    0.0000 C   0  0  0  0  0  0  0  0  0  0  0  0
    2.5878    1.7238    0.0000 C   0  0  0  0  0  0  0  0  0  0  0  0
    2.4067    3.4463    0.0000 C   0  0  0  0  0  0  0  0  0  0  0  0
    8.3739    4.0735    0.0000 C   0  0  0  0  0  0  0  0  0  0  0  0
    6.7916    4.7780    0.0000 C   0  0  0  0  0  0  0  0  0  0  0  0
    2.0000    2.5328    0.0000 C   0  0  0  0  0  0  0  0  0  0  0  0
    7.7861    4.8825    0.0000 C   0  0  0  0  0  0  0  0  0  0  0  0
    7.7936   -4.8825    0.0000 C   0  0  0  0  0  0  0  0  0  0  0  0
    8.0027   -2.8935    0.0000 C   0  0  0  0  0  0  0  0  0  0  0  0
   12.1673   -4.8825    0.0000 C   0  0  0  0  0  0  0  0  0  0  0  0
   11.9582   -2.8935    0.0000 C   0  0  0  0  0  0  0  0  0  0  0  0
    5.9091   -3.6789    0.0000 C   0  0  0  0  0  0  0  0  0  0  0  0
    6.7991   -4.7780    0.0000 C   0  0  0  0  0  0  0  0  0  0  0  0
    7.0082   -2.7889    0.0000 C   0  0  0  0  0  0  0  0  0  0  0  0
   14.0518   -3.6789    0.0000 C   0  0  0  0  0  0  0  0  0  0  0  0
   13.1618   -4.7780    0.0000 C   0  0  0  0  0  0  0  0  0  0  0  0
   12.9528   -2.7889    0.0000 C   0  0  0  0  0  0  0  0  0  0  0  0
   11.9484   -0.9453    0.0000 C   0  0  0  0  0  0  0  0  0  0  0  0
   12.8995   -0.6363    0.0000 C   0  0  0  0  0  0  0  0  0  0  0  0
   13.1074    0.3419    0.0000 C   0  0  0  0  0  0  0  0  0  0  0  0
   14.0585    0.6509    0.0000 C   0  0  0  0  0  0  0  0  0  0  0  0
   14.2664    1.6290    0.0000 C   0  0  0  0  0  0  0  0  0  0  0  0
   15.2174    1.9381    0.0000 C   0  0  0  0  0  0  0  0  0  0  0  0
   15.4253    2.9162    0.0000 C   0  0  0  0  0  0  0  0  0  0  0  0
   16.3764    3.2252    0.0000 C   0  0  0  0  0  0  0  0  0  0  0  0
    9.7619   -3.7359    0.0000 H   0  0  0  0  0  0  0  0  0  0  0  0
   11.0928   -3.0865    0.0000 H   0  0  0  0  0  0  0  0  0  0  0  0
    9.0744   -1.6201    0.0000 H   0  0  0  0  0  0  0  0  0  0  0  0
    4.2412    3.3082    0.0000 H   0  0  0  0  0  0  0  0  0  0  0  0
    7.3370    2.5538    0.0000 H   0  0  0  0  0  0  0  0  0  0  0  0
    6.0339    0.8672    0.0000 H   0  0  0  0  0  0  0  0  0  0  0  0
    5.5408    3.1182    0.0000 H   0  0  0  0  0  0  0  0  0  0  0  0
    4.8127    3.4424    0.0000 H   0  0  0  0  0  0  0  0  0  0  0  0
    6.5226    1.5234    0.0000 H   0  0  0  0  0  0  0  0  0  0  0  0
    7.1675    1.9919    0.0000 H   0  0  0  0  0  0  0  0  0  0  0  0
   11.2279   -2.6709    0.0000 H   0  0  0  0  0  0  0  0  0  0  0  0
    4.6506    1.4705    0.0000 H   0  0  0  0  0  0  0  0  0  0  0  0
    4.7339    0.6778    0.0000 H   0  0  0  0  0  0  0  0  0  0  0  0
    5.0050   -0.1979    0.0000 H   0  0  0  0  0  0  0  0  0  0  0  0
    3.5391    1.2098    0.0000 H   0  0  0  0  0  0  0  0  0  0  0  0
    4.1839    1.6783    0.0000 H   0  0  0  0  0  0  0  0  0  0  0  0
    3.9585    3.8226    0.0000 H   0  0  0  0  0  0  0  0  0  0  0  0
    3.2304    4.1468    0.0000 H   0  0  0  0  0  0  0  0  0  0  0  0
    7.9239    2.5415    0.0000 H   0  0  0  0  0  0  0  0  0  0  0  0
    8.5687    3.0100    0.0000 H   0  0  0  0  0  0  0  0  0  0  0  0
    5.8708    4.2111    0.0000 H   0  0  0  0  0  0  0  0  0  0  0  0
    5.9541    3.4184    0.0000 H   0  0  0  0  0  0  0  0  0  0  0  0
    7.1584   -1.2486    0.0000 H   0  0  0  0  0  0  0  0  0  0  0  0
    5.7000   -1.5055    0.0000 H   0  0  0  0  0  0  0  0  0  0  0  0
    7.6008   -1.9451    0.0000 H   0  0  0  0  0  0  0  0  0  0  0  0
    8.1341   -2.5374    0.0000 H   0  0  0  0  0  0  0  0  0  0  0  0
    2.0305    1.4520    0.0000 H   0  0  0  0  0  0  0  0  0  0  0  0
    2.7587    1.1278    0.0000 H   0  0  0  0  0  0  0  0  0  0  0  0
    2.4500    4.0648    0.0000 H   0  0  0  0  0  0  0  0  0  0  0  0
    1.8052    3.5963    0.0000 H   0  0  0  0  0  0  0  0  0  0  0  0
    8.8879    3.7268    0.0000 H   0  0  0  0  0  0  0  0  0  0  0  0
    8.8046    4.5195    0.0000 H   0  0  0  0  0  0  0  0  0  0  0  0
    6.8348    5.3965    0.0000 H   0  0  0  0  0  0  0  0  0  0  0  0
    6.1900    4.9280    0.0000 H   0  0  0  0  0  0  0  0  0  0  0  0
    1.4860    2.8795    0.0000 H   0  0  0  0  0  0  0  0  0  0  0  0
    1.5693    2.0868    0.0000 H   0  0  0  0  0  0  0  0  0  0  0  0
    8.3433    5.1543    0.0000 H   0  0  0  0  0  0  0  0  0  0  0  0
    7.6152    5.4785    0.0000 H   0  0  0  0  0  0  0  0  0  0  0  0
    7.1770   -4.8177    0.0000 H   0  0  0  0  0  0  0  0  0  0  0  0
    7.7288   -5.4991    0.0000 H   0  0  0  0  0  0  0  0  0  0  0  0
    8.4102   -4.9473    0.0000 H   0  0  0  0  0  0  0  0  0  0  0  0
    8.6193   -2.9583    0.0000 H   0  0  0  0  0  0  0  0  0  0  0  0
    8.0675   -2.2769    0.0000 H   0  0  0  0  0  0  0  0  0  0  0  0
    7.3861   -2.8287    0.0000 H   0  0  0  0  0  0  0  0  0  0  0  0
   11.5507   -4.9473    0.0000 H   0  0  0  0  0  0  0  0  0  0  0  0
   12.2321   -5.4991    0.0000 H   0  0  0  0  0  0  0  0  0  0  0  0
   12.7839   -4.8177    0.0000 H   0  0  0  0  0  0  0  0  0  0  0  0
   12.5748   -2.8287    0.0000 H   0  0  0  0  0  0  0  0  0  0  0  0
   11.8934   -2.2769    0.0000 H   0  0  0  0  0  0  0  0  0  0  0  0
   11.3416   -2.9583    0.0000 H   0  0  0  0  0  0  0  0  0  0  0  0
    5.9739   -3.0623    0.0000 H   0  0  0  0  0  0  0  0  0  0  0  0
    5.2925   -3.6141    0.0000 H   0  0  0  0  0  0  0  0  0  0  0  0
    5.8443   -4.2955    0.0000 H   0  0  0  0  0  0  0  0  0  0  0  0
    6.1825   -4.7132    0.0000 H   0  0  0  0  0  0  0  0  0  0  0  0
    6.7343   -5.3946    0.0000 H   0  0  0  0  0  0  0  0  0  0  0  0
    7.4157   -4.8428    0.0000 H   0  0  0  0  0  0  0  0  0  0  0  0
    7.6248   -2.8537    0.0000 H   0  0  0  0  0  0  0  0  0  0  0  0
    7.0730   -2.1723    0.0000 H   0  0  0  0  0  0  0  0  0  0  0  0
    6.3915   -2.7241    0.0000 H   0  0  0  0  0  0  0  0  0  0  0  0
   14.1166   -4.2955    0.0000 H   0  0  0  0  0  0  0  0  0  0  0  0
   14.6684   -3.6141    0.0000 H   0  0  0  0  0  0  0  0  0  0  0  0
   13.9870   -3.0623    0.0000 H   0  0  0  0  0  0  0  0  0  0  0  0
   12.5452   -4.8428    0.0000 H   0  0  0  0  0  0  0  0  0  0  0  0
   13.2266   -5.3946    0.0000 H   0  0  0  0  0  0  0  0  0  0  0  0
   13.7784   -4.7132    0.0000 H   0  0  0  0  0  0  0  0  0  0  0  0
   13.5694   -2.7241    0.0000 H   0  0  0  0  0  0  0  0  0  0  0  0
   12.8880   -2.1723    0.0000 H   0  0  0  0  0  0  0  0  0  0  0  0
   12.3362   -2.8537    0.0000 H   0  0  0  0  0  0  0  0  0  0  0  0
    4.0316   -0.5304    0.0000 H   0  0  0  0  0  0  0  0  0  0  0  0
    5.7155   -2.5340    0.0000 H   0  0  0  0  0  0  0  0  0  0  0  0
   11.8622   -0.3313    0.0000 H   0  0  0  0  0  0  0  0  0  0  0  0
   11.3288   -0.9236    0.0000 H   0  0  0  0  0  0  0  0  0  0  0  0
   12.9858   -1.2502    0.0000 H   0  0  0  0  0  0  0  0  0  0  0  0
   13.5191   -0.6579    0.0000 H   0  0  0  0  0  0  0  0  0  0  0  0
   13.0211    0.9558    0.0000 H   0  0  0  0  0  0  0  0  0  0  0  0
   12.4878    0.3635    0.0000 H   0  0  0  0  0  0  0  0  0  0  0  0
   14.1448    0.0369    0.0000 H   0  0  0  0  0  0  0  0  0  0  0  0
   14.6781    0.6293    0.0000 H   0  0  0  0  0  0  0  0  0  0  0  0
   14.1801    2.2430    0.0000 H   0  0  0  0  0  0  0  0  0  0  0  0
   13.6468    1.6507    0.0000 H   0  0  0  0  0  0  0  0  0  0  0  0
   15.3037    1.3241    0.0000 H   0  0  0  0  0  0  0  0  0  0  0  0
   15.8371    1.9164    0.0000 H   0  0  0  0  0  0  0  0  0  0  0  0
   15.3391    3.5302    0.0000 H   0  0  0  0  0  0  0  0  0  0  0  0
   14.8057    2.9378    0.0000 H   0  0  0  0  0  0  0  0  0  0  0  0
   16.5680    2.6356    0.0000 H   0  0  0  0  0  0  0  0  0  0  0  0
   16.9661    3.4168    0.0000 H   0  0  0  0  0  0  0  0  0  0  0  0
   16.1848    3.8149    0.0000 H   0  0  0  0  0  0  0  0  0  0  0  0
  1  3  1  0  0  0  0
  1 23  1  0  0  0  0
  1 38  1  0  0  0  0
  1 39  1  0  0  0  0
  2  4  1  0  0  0  0
  2 29  1  0  0  0  0
  2 40  1  0  0  0  0
  2 41  1  0  0  0  0
 12  3  1  6  0  0  0
 13  4  1  1  0  0  0
  5 14  1  0  0  0  0
  5 20  1  0  0  0  0
  6 17  1  0  0  0  0
  6 28  1  0  0  0  0
 28  7  1  6  0  0  0
  7 31  1  0  0  0  0
 20  8  1  6  0  0  0
  8 48  1  0  0  0  0
 22  9  1  6  0  0  0
  9124  1  0  0  0  0
 30 10  1  1  0  0  0
 10125  1  0  0  0  0
 11 18  1  0  0  0  0
 11 19  1  0  0  0  0
 11 21  1  0  0  0  0
 12 13  1  0  0  0  0
 12 14  1  0  0  0  0
 12 56  1  0  0  0  0
 13 20  1  0  0  0  0
 13 57  1  0  0  0  0
 14 31  1  1  0  0  0
 14 58  1  0  0  0  0
 15 18  1  0  0  0  0
 15 24  1  0  0  0  0
 15 25  1  0  0  0  0
 15 59  1  0  0  0  0
 16 19  1  0  0  0  0
 16 26  1  0  0  0  0
 16 27  1  0  0  0  0
 16 60  1  0  0  0  0
 17 21  1  1  0  0  0
 17 22  1  0  0  0  0
 17 61  1  0  0  0  0
 18 62  1  0  0  0  0
 18 63  1  0  0  0  0
 19 64  1  0  0  0  0
 19 65  1  0  0  0  0
 20 66  1  0  0  0  0
 21 67  1  0  0  0  0
 21 68  1  0  0  0  0
 22 30  1  0  0  0  0
 22 69  1  0  0  0  0
 23 42  1  0  0  0  0
 23 43  1  0  0  0  0
 23 44  1  0  0  0  0
 24 32  1  0  0  0  0
 24 70  1  0  0  0  0
 24 71  1  0  0  0  0
 25 33  1  0  0  0  0
 25 72  1  0  0  0  0
 25 73  1  0  0  0  0
 26 34  1  0  0  0  0
 26 74  1  0  0  0  0
 26 75  1  0  0  0  0
 27 35  1  0  0  0  0
 27 76  1  0  0  0  0
 27 77  1  0  0  0  0
 28 30  1  0  0  0  0
 28 78  1  0  0  0  0
 29 45  1  0  0  0  0
 29 46  1  0  0  0  0
 29 47  1  0  0  0  0
 30 79  1  0  0  0  0
 31 80  1  0  0  0  0
 31 81  1  0  0  0  0
 32 36  1  0  0  0  0
 32 82  1  0  0  0  0
 32 83  1  0  0  0  0
 33 36  1  0  0  0  0
 33 84  1  0  0  0  0
 33 85  1  0  0  0  0
 34 37  1  0  0  0  0
 34 86  1  0  0  0  0
 34 87  1  0  0  0  0
 35 37  1  0  0  0  0
 35 88  1  0  0  0  0
 35 89  1  0  0  0  0
 36 90  1  0  0  0  0
 36 91  1  0  0  0  0
 37 92  1  0  0  0  0
 37 93  1  0  0  0  0
 38 94  1  0  0  0  0
 38 95  1  0  0  0  0
 38 96  1  0  0  0  0
 39 97  1  0  0  0  0
 39 98  1  0  0  0  0
 39 99  1  0  0  0  0
 40100  1  0  0  0  0
 40101  1  0  0  0  0
 40102  1  0  0  0  0
 41103  1  0  0  0  0
 41104  1  0  0  0  0
 41105  1  0  0  0  0
 42106  1  0  0  0  0
 42107  1  0  0  0  0
 42108  1  0  0  0  0
 43109  1  0  0  0  0
 43110  1  0  0  0  0
 43111  1  0  0  0  0
 44112  1  0  0  0  0
 44113  1  0  0  0  0
 44114  1  0  0  0  0
 45115  1  0  0  0  0
 45116  1  0  0  0  0
 45117  1  0  0  0  0
 46118  1  0  0  0  0
 46119  1  0  0  0  0
 46120  1  0  0  0  0
 47121  1  0  0  0  0
 47122  1  0  0  0  0
 47123  1  0  0  0  0
 48 49  1  0  0  0  0
 48126  1  0  0  0  0
 48127  1  0  0  0  0
 49 50  1  0  0  0  0
 49128  1  0  0  0  0
 49129  1  0  0  0  0
 50 51  1  0  0  0  0
 50130  1  0  0  0  0
 50131  1  0  0  0  0
 51 52  1  0  0  0  0
 51132  1  0  0  0  0
 51133  1  0  0  0  0
 52 53  1  0  0  0  0
 52134  1  0  0  0  0
 52135  1  0  0  0  0
 53 54  1  0  0  0  0
 53136  1  0  0  0  0
 53137  1  0  0  0  0
 54 55  1  0  0  0  0
 54138  1  0  0  0  0
 54139  1  0  0  0  0
 55140  1  0  0  0  0
 55141  1  0  0  0  0
 55142  1  0  0  0  0
M  END
> <PUBCHEM_COMPOUND_CID>
508217
> <PUBCHEM_COMPOUND_CANONICALIZED>
1
> <PUBCHEM_CACTVS_COMPLEXITY>
1070
> <PUBCHEM_CACTVS_HBOND_ACCEPTOR>
9
> <PUBCHEM_CACTVS_HBOND_DONOR>
2
> <PUBCHEM_CACTVS_ROTATABLE_BOND>
23
> <PUBCHEM_CACTVS_SUBSKEYS>
AAADcfB+PAwAAAAAAAAAAAAAAAAAASJAAAAwYAAAAAAAAAAAAAAAHhAACEAADRTxoAdCCAMABgEAAAAAAAAAAAAAAAAAAAAIAAATEAIAgAAnQAAHAACXAAHw8KoOAAAAAAAAAAAAAAAAAAAAAAAAAAAAAA==
> <PUBCHEM_IUPAC_OPENEYE_NAME>
(2S,3S,4S,5R)-2-[[(2R,3R,4S,5S)-3,4-bis[[tert-butyl(dimethyl)silyl]oxy]-5-octoxy-tetrahydrofuran-2-yl]methoxy]-5-[[bis(cyclohexylmethyl)amino]methyl]tetrahydrofuran-3,4-diol
> <PUBCHEM_IUPAC_CAS_NAME>
(2S,3S,4S,5R)-2-[[(2R,3R,4S,5S)-3,4-bis[[tert-butyl(dimethyl)silyl]oxy]-5-octoxy-2-oxolanyl]methoxy]-5-[[bis(cyclohexylmethyl)amino]methyl]oxolane-3,4-diol
> <PUBCHEM_IUPAC_NAME_MARKUP>
(2<I>S</I>,3<I>S</I>,4<I>S</I>,5<I>R</I>)-2-[[(2<I>R</I>,3<I>R</I>,4<I>S</I>,5<I>S</I>)-3,4-bis[[<I>tert</I>-butyl(dimethyl)silyl]oxy]-5-octoxyoxolan-2-yl]methoxy]-5-[[bis(cyclohexylmethyl)amino]methyl]oxolane-3,4-diol
> <PUBCHEM_IUPAC_NAME>
(2S,3S,4S,5R)-2-[[(2R,3R,4S,5S)-3,4-bis[[tert-butyl(dimethyl)silyl]oxy]-5-octoxyoxolan-2-yl]methoxy]-5-[[bis(cyclohexylmethyl)amino]methyl]oxolane-3,4-diol
> <PUBCHEM_IUPAC_SYSTEMATIC_NAME>
(2S,3S,4S,5R)-2-[[(2R,3R,4S,5S)-3,4-bis[[tert-butyl(dimethyl)silyl]oxy]-5-octoxy-oxolan-2-yl]methoxy]-5-[[bis(cyclohexylmethyl)amino]methyl]oxolane-3,4-diol
> <PUBCHEM_IUPAC_TRADITIONAL_NAME>
(2S,3S,4S,5R)-2-[[(2R,3R,4S,5S)-3,4-bis[[tert-butyl(dimethyl)silyl]oxy]-5-octoxy-tetrahydrofuran-2-yl]methoxy]-5-[[bis(cyclohexylmethyl)amino]methyl]tetrahydrofuran-3,4-diol
> <PUBCHEM_IUPAC_INCHI>
InChI=1S/C44H87NO8Si2/c1-12-13-14-15-16-23-28-48-42-40(53-55(10,11)44(5,6)7)39(52-54(8,9)43(2,3)4)36(51-42)32-49-41-38(47)37(46)35(50-41)31-45(29-33-24-19-17-20-25-33)30-34-26-21-18-22-27-34/h33-42,46-47H,12-32H2,1-11H3/t35-,36-,37-,38+,39-,40+,41+,42+/m1/s1
> <PUBCHEM_IUPAC_INCHIKEY>
PEVYDLUPEXLHEH-FCCHGPNESA-N
> <PUBCHEM_EXACT_MASS>
813.59702180
> <PUBCHEM_MOLECULAR_FORMULA>
C44H87NO8Si2
> <PUBCHEM_MOLECULAR_WEIGHT>
814.3
> <PUBCHEM_OPENEYE_CAN_SMILES>
CCCCCCCCOC1C(C(C(O1)COC2C(C(C(O2)CN(CC3CCCCC3)CC4CCCCC4)O)O)O[Si](C)(C)C(C)(C)C)O[Si](C)(C)C(C)(C)C
> <PUBCHEM_OPENEYE_ISO_SMILES>
CCCCCCCCO[C@@H]1[C@H]([C@@H]([C@H](O1)CO[C@@H]2[C@H]([C@@H]([C@H](O2)CN(CC3CCCCC3)CC4CCCCC4)O)O)O[Si](C)(C)C(C)(C)C)O[Si](C)(C)C(C)(C)C
> <PUBCHEM_CACTVS_TPSA>
99.1
> <PUBCHEM_MONOISOTOPIC_WEIGHT>
813.59702180
> <PUBCHEM_TOTAL_CHARGE>
0
> <PUBCHEM_HEAVY_ATOM_COUNT>
55
> <PUBCHEM_ATOM_DEF_STEREO_COUNT>
8
> <PUBCHEM_ATOM_UDEF_STEREO_COUNT>
0
> <PUBCHEM_BOND_DEF_STEREO_COUNT>
0
> <PUBCHEM_BOND_UDEF_STEREO_COUNT>
0
> <PUBCHEM_ISOTOPIC_ATOM_COUNT>
0
> <PUBCHEM_COMPONENT_COUNT>
1
> <PUBCHEM_CACTVS_TAUTO_COUNT>
-1
> <PUBCHEM_COORDINATE_TYPE>
1
5
255
> <PUBCHEM_BONDANNOTATIONS>
30  10  5
14  31  5
17  21  5
12  3  6
13  4  5
28  7  6
20  8  6
22  9  6
$$$$
