508220
  -OEChem-10302200282D
158160  0     1  0  0  0  0  0999 V2000
    7.9317   -2.8817    0.0000 Si  0  0  0  0  0  0  0  0  0  0  0  0
    6.9670    3.0436    0.0000 Si  0  0  0  0  0  0  0  0  0  0  0  0
    4.2036    2.0256    0.0000 Si  0  0  0  0  0  0  0  0  0  0  0  0
   12.0963   -2.8817    0.0000 Si  0  0  0  0  0  0  0  0  0  0  0  0
    8.9262   -2.9862    0.0000 O   0  0  0  0  0  0  0  0  0  0  0  0
    6.2859   -0.2178    0.0000 O   0  0  0  0  0  0  0  0  0  0  0  0
    7.3737    2.1301    0.0000 O   0  0  0  0  0  0  0  0  0  0  0  0
    5.1981    2.1301    0.0000 O   0  0  0  0  0  0  0  0  0  0  0  0
   10.0140   -0.6384    0.0000 O   0  0  0  0  0  0  0  0  0  0  0  0
   11.1018   -2.9862    0.0000 O   0  0  0  0  0  0  0  0  0  0  0  0
    8.0460    0.0610    0.0000 O   0  0  0  0  0  0  0  0  0  0  0  0
   11.7741   -0.9171    0.0000 O   0  0  0  0  0  0  0  0  0  0  0  0
    2.6237   -0.5570    0.0000 O   0  0  0  0  0  0  0  0  0  0  0  0
    4.3179   -0.9171    0.0000 N   0  0  0  0  0  0  0  0  0  0  0  0
    9.5140   -2.1772    0.0000 C   0  0  1  0  0  0  0  0  0  0  0  0
    6.7859    1.3211    0.0000 C   0  0  1  0  0  0  0  0  0  0  0  0
    5.7859    1.3211    0.0000 C   0  0  1  0  0  0  0  0  0  0  0  0
   10.5140   -2.1772    0.0000 C   0  0  1  0  0  0  0  0  0  0  0  0
    9.2050   -1.2262    0.0000 C   0  0  1  0  0  0  0  0  0  0  0  0
    7.0949    0.3700    0.0000 C   0  0  2  0  0  0  0  0  0  0  0  0
    5.4769    0.3700    0.0000 C   0  0  1  0  0  0  0  0  0  0  0  0
   10.8230   -1.2262    0.0000 C   0  0  2  0  0  0  0  0  0  0  0  0
    8.2539   -0.9171    0.0000 C   0  0  0  0  0  0  0  0  0  0  0  0
    7.8271   -3.8762    0.0000 C   0  0  0  0  0  0  0  0  0  0  0  0
    6.5602    3.9572    0.0000 C   0  0  0  0  0  0  0  0  0  0  0  0
    3.2091    1.9210    0.0000 C   0  0  0  0  0  0  0  0  0  0  0  0
   13.0908   -2.7772    0.0000 C   0  0  0  0  0  0  0  0  0  0  0  0
    4.5258    0.0610    0.0000 C   0  0  0  0  0  0  0  0  0  0  0  0
    6.9372   -2.7772    0.0000 C   0  0  0  0  0  0  0  0  0  0  0  0
    8.0362   -1.8872    0.0000 C   0  0  0  0  0  0  0  0  0  0  0  0
    7.8805    3.4504    0.0000 C   0  0  0  0  0  0  0  0  0  0  0  0
    6.0534    2.6369    0.0000 C   0  0  0  0  0  0  0  0  0  0  0  0
    4.0991    3.0201    0.0000 C   0  0  0  0  0  0  0  0  0  0  0  0
    4.3081    1.0310    0.0000 C   0  0  0  0  0  0  0  0  0  0  0  0
   12.2008   -3.8762    0.0000 C   0  0  0  0  0  0  0  0  0  0  0  0
   11.9918   -1.8872    0.0000 C   0  0  0  0  0  0  0  0  0  0  0  0
    7.7226   -4.8707    0.0000 C   0  0  0  0  0  0  0  0  0  0  0  0
    6.8326   -3.7717    0.0000 C   0  0  0  0  0  0  0  0  0  0  0  0
    8.8217   -3.9808    0.0000 C   0  0  0  0  0  0  0  0  0  0  0  0
    6.1535    4.8707    0.0000 C   0  0  0  0  0  0  0  0  0  0  0  0
    7.4738    4.3639    0.0000 C   0  0  0  0  0  0  0  0  0  0  0  0
    5.6467    3.5505    0.0000 C   0  0  0  0  0  0  0  0  0  0  0  0
    2.2146    1.8165    0.0000 C   0  0  0  0  0  0  0  0  0  0  0  0
    3.1046    2.9156    0.0000 C   0  0  0  0  0  0  0  0  0  0  0  0
    3.3136    0.9265    0.0000 C   0  0  0  0  0  0  0  0  0  0  0  0
   14.0853   -2.6726    0.0000 C   0  0  0  0  0  0  0  0  0  0  0  0
   13.1953   -3.7717    0.0000 C   0  0  0  0  0  0  0  0  0  0  0  0
   12.9863   -1.7826    0.0000 C   0  0  0  0  0  0  0  0  0  0  0  0
   11.9820    0.0610    0.0000 C   0  0  0  0  0  0  0  0  0  0  0  0
   12.9330    0.3700    0.0000 C   0  0  0  0  0  0  0  0  0  0  0  0
    3.3669   -1.2262    0.0000 C   0  0  0  0  0  0  0  0  0  0  0  0
   13.1409    1.3482    0.0000 C   0  0  0  0  0  0  0  0  0  0  0  0
   14.0920    1.6572    0.0000 C   0  0  0  0  0  0  0  0  0  0  0  0
    3.1590   -2.2043    0.0000 C   0  0  0  0  0  0  0  0  0  0  0  0
   14.2999    2.6353    0.0000 C   0  0  0  0  0  0  0  0  0  0  0  0
    3.9021   -2.8734    0.0000 C   0  0  0  0  0  0  0  0  0  0  0  0
    2.2079   -2.5133    0.0000 C   0  0  0  0  0  0  0  0  0  0  0  0
   15.2510    2.9444    0.0000 C   0  0  0  0  0  0  0  0  0  0  0  0
   15.4589    3.9225    0.0000 C   0  0  0  0  0  0  0  0  0  0  0  0
    3.6942   -3.8516    0.0000 C   0  0  0  0  0  0  0  0  0  0  0  0
    2.0000   -3.4915    0.0000 C   0  0  0  0  0  0  0  0  0  0  0  0
    2.7431   -4.1606    0.0000 C   0  0  0  0  0  0  0  0  0  0  0  0
   16.4099    4.2315    0.0000 C   0  0  0  0  0  0  0  0  0  0  0  0
    8.9016   -2.0802    0.0000 H   0  0  0  0  0  0  0  0  0  0  0  0
    6.5044    1.8735    0.0000 H   0  0  0  0  0  0  0  0  0  0  0  0
    5.1736    1.2241    0.0000 H   0  0  0  0  0  0  0  0  0  0  0  0
   10.2325   -2.7296    0.0000 H   0  0  0  0  0  0  0  0  0  0  0  0
    9.1080   -0.6138    0.0000 H   0  0  0  0  0  0  0  0  0  0  0  0
    7.5333    0.8084    0.0000 H   0  0  0  0  0  0  0  0  0  0  0  0
    5.3799   -0.2423    0.0000 H   0  0  0  0  0  0  0  0  0  0  0  0
   11.2614   -1.6646    0.0000 H   0  0  0  0  0  0  0  0  0  0  0  0
    7.6343   -0.9388    0.0000 H   0  0  0  0  0  0  0  0  0  0  0  0
    8.1676   -1.5311    0.0000 H   0  0  0  0  0  0  0  0  0  0  0  0
    4.4396    0.6750    0.0000 H   0  0  0  0  0  0  0  0  0  0  0  0
    3.9062    0.0827    0.0000 H   0  0  0  0  0  0  0  0  0  0  0  0
    7.0020   -2.1606    0.0000 H   0  0  0  0  0  0  0  0  0  0  0  0
    6.3206   -2.7124    0.0000 H   0  0  0  0  0  0  0  0  0  0  0  0
    6.8723   -3.3938    0.0000 H   0  0  0  0  0  0  0  0  0  0  0  0
    8.6528   -1.9520    0.0000 H   0  0  0  0  0  0  0  0  0  0  0  0
    8.1010   -1.2706    0.0000 H   0  0  0  0  0  0  0  0  0  0  0  0
    7.4196   -1.8224    0.0000 H   0  0  0  0  0  0  0  0  0  0  0  0
    8.1327    2.8840    0.0000 H   0  0  0  0  0  0  0  0  0  0  0  0
    8.4469    3.7026    0.0000 H   0  0  0  0  0  0  0  0  0  0  0  0
    7.6283    4.0168    0.0000 H   0  0  0  0  0  0  0  0  0  0  0  0
    5.8012    3.2033    0.0000 H   0  0  0  0  0  0  0  0  0  0  0  0
    5.4870    2.3847    0.0000 H   0  0  0  0  0  0  0  0  0  0  0  0
    6.3056    2.0705    0.0000 H   0  0  0  0  0  0  0  0  0  0  0  0
    4.7157    3.0849    0.0000 H   0  0  0  0  0  0  0  0  0  0  0  0
    4.0343    3.6367    0.0000 H   0  0  0  0  0  0  0  0  0  0  0  0
    3.4825    2.9553    0.0000 H   0  0  0  0  0  0  0  0  0  0  0  0
    3.6915    0.9662    0.0000 H   0  0  0  0  0  0  0  0  0  0  0  0
    4.3730    0.4144    0.0000 H   0  0  0  0  0  0  0  0  0  0  0  0
    4.9248    1.0959    0.0000 H   0  0  0  0  0  0  0  0  0  0  0  0
   11.5842   -3.9410    0.0000 H   0  0  0  0  0  0  0  0  0  0  0  0
   12.2656   -4.4928    0.0000 H   0  0  0  0  0  0  0  0  0  0  0  0
   12.8174   -3.8114    0.0000 H   0  0  0  0  0  0  0  0  0  0  0  0
   12.6084   -1.8224    0.0000 H   0  0  0  0  0  0  0  0  0  0  0  0
   11.9270   -1.2706    0.0000 H   0  0  0  0  0  0  0  0  0  0  0  0
   11.3752   -1.9520    0.0000 H   0  0  0  0  0  0  0  0  0  0  0  0
    7.1060   -4.8059    0.0000 H   0  0  0  0  0  0  0  0  0  0  0  0
    7.6578   -5.4873    0.0000 H   0  0  0  0  0  0  0  0  0  0  0  0
    8.3392   -4.9356    0.0000 H   0  0  0  0  0  0  0  0  0  0  0  0
    6.8974   -3.1551    0.0000 H   0  0  0  0  0  0  0  0  0  0  0  0
    6.2160   -3.7069    0.0000 H   0  0  0  0  0  0  0  0  0  0  0  0
    6.7678   -4.3883    0.0000 H   0  0  0  0  0  0  0  0  0  0  0  0
    8.7569   -4.5973    0.0000 H   0  0  0  0  0  0  0  0  0  0  0  0
    9.4383   -4.0456    0.0000 H   0  0  0  0  0  0  0  0  0  0  0  0
    8.8865   -3.3641    0.0000 H   0  0  0  0  0  0  0  0  0  0  0  0
    6.7199    5.1229    0.0000 H   0  0  0  0  0  0  0  0  0  0  0  0
    5.9013    5.4371    0.0000 H   0  0  0  0  0  0  0  0  0  0  0  0
    5.5871    4.6186    0.0000 H   0  0  0  0  0  0  0  0  0  0  0  0
    7.7260    3.7975    0.0000 H   0  0  0  0  0  0  0  0  0  0  0  0
    8.0402    4.6161    0.0000 H   0  0  0  0  0  0  0  0  0  0  0  0
    7.2216    4.9303    0.0000 H   0  0  0  0  0  0  0  0  0  0  0  0
    5.3945    4.1169    0.0000 H   0  0  0  0  0  0  0  0  0  0  0  0
    5.0803    3.2983    0.0000 H   0  0  0  0  0  0  0  0  0  0  0  0
    5.8989    2.9841    0.0000 H   0  0  0  0  0  0  0  0  0  0  0  0
    2.1498    2.4331    0.0000 H   0  0  0  0  0  0  0  0  0  0  0  0
    1.5980    1.7517    0.0000 H   0  0  0  0  0  0  0  0  0  0  0  0
    2.2794    1.1999    0.0000 H   0  0  0  0  0  0  0  0  0  0  0  0
    3.7212    2.9804    0.0000 H   0  0  0  0  0  0  0  0  0  0  0  0
    3.0398    3.5322    0.0000 H   0  0  0  0  0  0  0  0  0  0  0  0
    2.4880    2.8508    0.0000 H   0  0  0  0  0  0  0  0  0  0  0  0
    2.6970    0.8617    0.0000 H   0  0  0  0  0  0  0  0  0  0  0  0
    3.3784    0.3099    0.0000 H   0  0  0  0  0  0  0  0  0  0  0  0
    3.9302    0.9913    0.0000 H   0  0  0  0  0  0  0  0  0  0  0  0
   14.1501   -3.2892    0.0000 H   0  0  0  0  0  0  0  0  0  0  0  0
   14.7019   -2.6078    0.0000 H   0  0  0  0  0  0  0  0  0  0  0  0
   14.0205   -2.0560    0.0000 H   0  0  0  0  0  0  0  0  0  0  0  0
   12.5787   -3.8365    0.0000 H   0  0  0  0  0  0  0  0  0  0  0  0
   13.2601   -4.3883    0.0000 H   0  0  0  0  0  0  0  0  0  0  0  0
   13.8119   -3.7069    0.0000 H   0  0  0  0  0  0  0  0  0  0  0  0
   13.6029   -1.7178    0.0000 H   0  0  0  0  0  0  0  0  0  0  0  0
   12.9215   -1.1660    0.0000 H   0  0  0  0  0  0  0  0  0  0  0  0
   12.3697   -1.8474    0.0000 H   0  0  0  0  0  0  0  0  0  0  0  0
    4.7787   -1.3320    0.0000 H   0  0  0  0  0  0  0  0  0  0  0  0
   11.8957    0.6750    0.0000 H   0  0  0  0  0  0  0  0  0  0  0  0
   11.3623    0.0827    0.0000 H   0  0  0  0  0  0  0  0  0  0  0  0
   13.0193   -0.2439    0.0000 H   0  0  0  0  0  0  0  0  0  0  0  0
   13.5526    0.3484    0.0000 H   0  0  0  0  0  0  0  0  0  0  0  0
   13.0546    1.9621    0.0000 H   0  0  0  0  0  0  0  0  0  0  0  0
   12.5213    1.3698    0.0000 H   0  0  0  0  0  0  0  0  0  0  0  0
   14.1783    1.0432    0.0000 H   0  0  0  0  0  0  0  0  0  0  0  0
   14.7116    1.6356    0.0000 H   0  0  0  0  0  0  0  0  0  0  0  0
   14.2136    3.2493    0.0000 H   0  0  0  0  0  0  0  0  0  0  0  0
   13.6803    2.6570    0.0000 H   0  0  0  0  0  0  0  0  0  0  0  0
    4.4918   -2.6818    0.0000 H   0  0  0  0  0  0  0  0  0  0  0  0
    1.7472   -2.0984    0.0000 H   0  0  0  0  0  0  0  0  0  0  0  0
   15.3372    2.3304    0.0000 H   0  0  0  0  0  0  0  0  0  0  0  0
   15.8706    2.9227    0.0000 H   0  0  0  0  0  0  0  0  0  0  0  0
   15.3726    4.5365    0.0000 H   0  0  0  0  0  0  0  0  0  0  0  0
   14.8392    3.9441    0.0000 H   0  0  0  0  0  0  0  0  0  0  0  0
    4.1550   -4.2664    0.0000 H   0  0  0  0  0  0  0  0  0  0  0  0
    1.4103   -3.6830    0.0000 H   0  0  0  0  0  0  0  0  0  0  0  0
    2.6142   -4.7670    0.0000 H   0  0  0  0  0  0  0  0  0  0  0  0
   16.6015    3.6419    0.0000 H   0  0  0  0  0  0  0  0  0  0  0  0
   16.9996    4.4231    0.0000 H   0  0  0  0  0  0  0  0  0  0  0  0
   16.2183    4.8212    0.0000 H   0  0  0  0  0  0  0  0  0  0  0  0
  1  5  1  0  0  0  0
  1 24  1  0  0  0  0
  1 29  1  0  0  0  0
  1 30  1  0  0  0  0
  2  7  1  0  0  0  0
  2 25  1  0  0  0  0
  2 31  1  0  0  0  0
  2 32  1  0  0  0  0
  3  8  1  0  0  0  0
  3 26  1  0  0  0  0
  3 33  1  0  0  0  0
  3 34  1  0  0  0  0
  4 10  1  0  0  0  0
  4 27  1  0  0  0  0
  4 35  1  0  0  0  0
  4 36  1  0  0  0  0
 15  5  1  6  0  0  0
  6 20  1  0  0  0  0
  6 21  1  0  0  0  0
 16  7  1  6  0  0  0
 17  8  1  1  0  0  0
  9 19  1  0  0  0  0
  9 22  1  0  0  0  0
 18 10  1  1  0  0  0
 20 11  1  1  0  0  0
 11 23  1  0  0  0  0
 22 12  1  6  0  0  0
 12 49  1  0  0  0  0
 13 51  2  0  0  0  0
 14 28  1  0  0  0  0
 14 51  1  0  0  0  0
 14136  1  0  0  0  0
 15 18  1  0  0  0  0
 15 19  1  0  0  0  0
 15 64  1  0  0  0  0
 16 17  1  0  0  0  0
 16 20  1  0  0  0  0
 16 65  1  0  0  0  0
 17 21  1  0  0  0  0
 17 66  1  0  0  0  0
 18 22  1  0  0  0  0
 18 67  1  0  0  0  0
 19 23  1  1  0  0  0
 19 68  1  0  0  0  0
 20 69  1  0  0  0  0
 21 28  1  6  0  0  0
 21 70  1  0  0  0  0
 22 71  1  0  0  0  0
 23 72  1  0  0  0  0
 23 73  1  0  0  0  0
 24 37  1  0  0  0  0
 24 38  1  0  0  0  0
 24 39  1  0  0  0  0
 25 40  1  0  0  0  0
 25 41  1  0  0  0  0
 25 42  1  0  0  0  0
 26 43  1  0  0  0  0
 26 44  1  0  0  0  0
 26 45  1  0  0  0  0
 27 46  1  0  0  0  0
 27 47  1  0  0  0  0
 27 48  1  0  0  0  0
 28 74  1  0  0  0  0
 28 75  1  0  0  0  0
 29 76  1  0  0  0  0
 29 77  1  0  0  0  0
 29 78  1  0  0  0  0
 30 79  1  0  0  0  0
 30 80  1  0  0  0  0
 30 81  1  0  0  0  0
 31 82  1  0  0  0  0
 31 83  1  0  0  0  0
 31 84  1  0  0  0  0
 32 85  1  0  0  0  0
 32 86  1  0  0  0  0
 32 87  1  0  0  0  0
 33 88  1  0  0  0  0
 33 89  1  0  0  0  0
 33 90  1  0  0  0  0
 34 91  1  0  0  0  0
 34 92  1  0  0  0  0
 34 93  1  0  0  0  0
 35 94  1  0  0  0  0
 35 95  1  0  0  0  0
 35 96  1  0  0  0  0
 36 97  1  0  0  0  0
 36 98  1  0  0  0  0
 36 99  1  0  0  0  0
 37100  1  0  0  0  0
 37101  1  0  0  0  0
 37102  1  0  0  0  0
 38103  1  0  0  0  0
 38104  1  0  0  0  0
 38105  1  0  0  0  0
 39106  1  0  0  0  0
 39107  1  0  0  0  0
 39108  1  0  0  0  0
 40109  1  0  0  0  0
 40110  1  0  0  0  0
 40111  1  0  0  0  0
 41112  1  0  0  0  0
 41113  1  0  0  0  0
 41114  1  0  0  0  0
 42115  1  0  0  0  0
 42116  1  0  0  0  0
 42117  1  0  0  0  0
 43118  1  0  0  0  0
 43119  1  0  0  0  0
 43120  1  0  0  0  0
 44121  1  0  0  0  0
 44122  1  0  0  0  0
 44123  1  0  0  0  0
 45124  1  0  0  0  0
 45125  1  0  0  0  0
 45126  1  0  0  0  0
 46127  1  0  0  0  0
 46128  1  0  0  0  0
 46129  1  0  0  0  0
 47130  1  0  0  0  0
 47131  1  0  0  0  0
 47132  1  0  0  0  0
 48133  1  0  0  0  0
 48134  1  0  0  0  0
 48135  1  0  0  0  0
 49 50  1  0  0  0  0
 49137  1  0  0  0  0
 49138  1  0  0  0  0
 50 52  1  0  0  0  0
 50139  1  0  0  0  0
 50140  1  0  0  0  0
 51 54  1  0  0  0  0
 52 53  1  0  0  0  0
 52141  1  0  0  0  0
 52142  1  0  0  0  0
 53 55  1  0  0  0  0
 53143  1  0  0  0  0
 53144  1  0  0  0  0
 54 56  2  0  0  0  0
 54 57  1  0  0  0  0
 55 58  1  0  0  0  0
 55145  1  0  0  0  0
 55146  1  0  0  0  0
 56 60  1  0  0  0  0
 56147  1  0  0  0  0
 57 61  2  0  0  0  0
 57148  1  0  0  0  0
 58 59  1  0  0  0  0
 58149  1  0  0  0  0
 58150  1  0  0  0  0
 59 63  1  0  0  0  0
 59151  1  0  0  0  0
 59152  1  0  0  0  0
 60 62  2  0  0  0  0
 60153  1  0  0  0  0
 61 62  1  0  0  0  0
 61154  1  0  0  0  0
 62155  1  0  0  0  0
 63156  1  0  0  0  0
 63157  1  0  0  0  0
 63158  1  0  0  0  0
M  END
> <PUBCHEM_COMPOUND_CID>
508220
> <PUBCHEM_COMPOUND_CANONICALIZED>
1
> <PUBCHEM_CACTVS_COMPLEXITY>
1390
> <PUBCHEM_CACTVS_HBOND_ACCEPTOR>
9
> <PUBCHEM_CACTVS_HBOND_DONOR>
1
> <PUBCHEM_CACTVS_ROTATABLE_BOND>
26
> <PUBCHEM_CACTVS_SUBSKEYS>
AAADcfB+PAwAAAAAAAAAAAAAAAAAASJAAAAwAAAAAAAAAAABAAAAHhAQAEAADBTxuAdyCILABAGIAiFSEACCAAAkAAAIiIEIBMgbIDKAlRGnIQhnlgCeiYf4+KqOAAAAAAAAAAAAAAAAAAAAAAAAAAAAAA==
> <PUBCHEM_IUPAC_OPENEYE_NAME>
N-[[(2R,3R,4S,5S)-5-[[(2R,3R,4S,5S)-3,4-bis[[tert-butyl(dimethyl)silyl]oxy]-5-octoxy-tetrahydrofuran-2-yl]methoxy]-3,4-bis[[tert-butyl(dimethyl)silyl]oxy]tetrahydrofuran-2-yl]methyl]benzamide
> <PUBCHEM_IUPAC_CAS_NAME>
N-[[(2R,3R,4S,5S)-5-[[(2R,3R,4S,5S)-3,4-bis[[tert-butyl(dimethyl)silyl]oxy]-5-octoxy-2-oxolanyl]methoxy]-3,4-bis[[tert-butyl(dimethyl)silyl]oxy]-2-oxolanyl]methyl]benzamide
> <PUBCHEM_IUPAC_NAME_MARKUP>
<I>N</I>-[[(2<I>R</I>,3<I>R</I>,4<I>S</I>,5<I>S</I>)-5-[[(2<I>R</I>,3<I>R</I>,4<I>S</I>,5<I>S</I>)-3,4-bis[[<I>tert</I>-butyl(dimethyl)silyl]oxy]-5-octoxyoxolan-2-yl]methoxy]-3,4-bis[[<I>tert</I>-butyl(dimethyl)silyl]oxy]oxolan-2-yl]methyl]benzamide
> <PUBCHEM_IUPAC_NAME>
N-[[(2R,3R,4S,5S)-5-[[(2R,3R,4S,5S)-3,4-bis[[tert-butyl(dimethyl)silyl]oxy]-5-octoxyoxolan-2-yl]methoxy]-3,4-bis[[tert-butyl(dimethyl)silyl]oxy]oxolan-2-yl]methyl]benzamide
> <PUBCHEM_IUPAC_SYSTEMATIC_NAME>
N-[[(2R,3R,4S,5S)-5-[[(2R,3R,4S,5S)-3,4-bis[[tert-butyl(dimethyl)silyl]oxy]-5-octoxy-oxolan-2-yl]methoxy]-3,4-bis[[tert-butyl(dimethyl)silyl]oxy]oxolan-2-yl]methyl]benzamide
> <PUBCHEM_IUPAC_TRADITIONAL_NAME>
N-[[(2R,3R,4S,5S)-5-[[(2R,3R,4S,5S)-3,4-bis[[tert-butyl(dimethyl)silyl]oxy]-5-octoxy-tetrahydrofuran-2-yl]methoxy]-3,4-bis[[tert-butyl(dimethyl)silyl]oxy]tetrahydrofuran-2-yl]methyl]benzamide
> <PUBCHEM_IUPAC_INCHI>
InChI=1S/C49H95NO9Si4/c1-22-23-24-25-26-30-33-52-44-42(59-63(20,21)49(11,12)13)40(57-61(16,17)47(5,6)7)38(55-44)35-53-45-41(58-62(18,19)48(8,9)10)39(56-60(14,15)46(2,3)4)37(54-45)34-50-43(51)36-31-28-27-29-32-36/h27-29,31-32,37-42,44-45H,22-26,30,33-35H2,1-21H3,(H,50,51)/t37-,38-,39-,40-,41+,42+,44+,45+/m1/s1
> <PUBCHEM_IUPAC_INCHIKEY>
MYAVZBFQXWBJFZ-KMRINWKTSA-N
> <PUBCHEM_EXACT_MASS>
953.60838975
> <PUBCHEM_MOLECULAR_FORMULA>
C49H95NO9Si4
> <PUBCHEM_MOLECULAR_WEIGHT>
954.6
> <PUBCHEM_OPENEYE_CAN_SMILES>
CCCCCCCCOC1C(C(C(O1)COC2C(C(C(O2)CNC(=O)C3=CC=CC=C3)O[Si](C)(C)C(C)(C)C)O[Si](C)(C)C(C)(C)C)O[Si](C)(C)C(C)(C)C)O[Si](C)(C)C(C)(C)C
> <PUBCHEM_OPENEYE_ISO_SMILES>
CCCCCCCCO[C@@H]1[C@H]([C@@H]([C@H](O1)CO[C@@H]2[C@H]([C@@H]([C@H](O2)CNC(=O)C3=CC=CC=C3)O[Si](C)(C)C(C)(C)C)O[Si](C)(C)C(C)(C)C)O[Si](C)(C)C(C)(C)C)O[Si](C)(C)C(C)(C)C
> <PUBCHEM_CACTVS_TPSA>
103
> <PUBCHEM_MONOISOTOPIC_WEIGHT>
953.60838975
> <PUBCHEM_TOTAL_CHARGE>
0
> <PUBCHEM_HEAVY_ATOM_COUNT>
63
> <PUBCHEM_ATOM_DEF_STEREO_COUNT>
8
> <PUBCHEM_ATOM_UDEF_STEREO_COUNT>
0
> <PUBCHEM_BOND_DEF_STEREO_COUNT>
0
> <PUBCHEM_BOND_UDEF_STEREO_COUNT>
0
> <PUBCHEM_ISOTOPIC_ATOM_COUNT>
0
> <PUBCHEM_COMPONENT_COUNT>
1
> <PUBCHEM_CACTVS_TAUTO_COUNT>
-1
> <PUBCHEM_COORDINATE_TYPE>
1
5
255
> <PUBCHEM_BONDANNOTATIONS>
18  10  5
20  11  5
22  12  6
19  23  5
21  28  6
15  5  6
54  56  8
54  57  8
56  60  8
57  61  8
60  62  8
61  62  8
16  7  6
17  8  5
$$$$
