508213
  -OEChem-10302200282D
 72 76  0     1  0  0  0  0  0999 V2000
   11.9290    3.7314    0.0000 F   0  0  0  0  0  0  0  0  0  0  0  0
    7.6047    0.1664    0.0000 O   0  0  0  0  0  0  0  0  0  0  0  0
    5.7720   -0.8352    0.0000 O   0  0  0  0  0  0  0  0  0  0  0  0
    8.4650    1.6698    0.0000 O   0  0  0  0  0  0  0  0  0  0  0  0
   15.4592    4.7073    0.0000 O   0  0  0  0  0  0  0  0  0  0  0  0
    5.9764   -2.6603    0.0000 O   0  0  0  0  0  0  0  0  0  0  0  0
   18.0572    3.2073    0.0000 O   0  0  0  0  0  0  0  0  0  0  0  0
   17.1912    4.7073    0.0000 O   0  0  0  0  0  0  0  0  0  0  0  0
    3.1818   -4.7073    0.0000 O   0  0  0  0  0  0  0  0  0  0  0  0
   11.9290    1.6831    0.0000 N   0  0  0  0  0  0  0  0  0  0  0  0
   10.2008    0.6764    0.0000 N   0  0  0  0  0  0  0  0  0  0  0  0
   15.4592    1.7073    0.0000 N   0  0  0  0  0  0  0  0  0  0  0  0
    4.3914   -1.9620    0.0000 N   0  0  0  0  0  0  0  0  0  0  0  0
    4.5791   -3.6838    0.0000 N   0  0  0  0  0  0  0  0  0  0  0  0
   11.0611    2.1798    0.0000 C   0  0  0  0  0  0  0  0  0  0  0  0
   11.9329    0.6831    0.0000 C   0  0  0  0  0  0  0  0  0  0  0  0
   10.1970    1.6764    0.0000 C   0  0  0  0  0  0  0  0  0  0  0  0
   11.0688    0.1798    0.0000 C   0  0  0  0  0  0  0  0  0  0  0  0
   12.7931    2.1864    0.0000 C   0  0  0  0  0  0  0  0  0  0  0  0
    9.3368    0.1731    0.0000 C   0  0  0  0  0  0  0  0  0  0  0  0
   13.6992    1.6726    0.0000 C   0  0  0  0  0  0  0  0  0  0  0  0
   14.5931    2.2073    0.0000 C   0  0  0  0  0  0  0  0  0  0  0  0
   12.7931    3.2281    0.0000 C   0  0  0  0  0  0  0  0  0  0  0  0
   14.5931    3.2073    0.0000 C   0  0  0  0  0  0  0  0  0  0  0  0
    8.4688    0.6698    0.0000 C   0  0  0  0  0  0  0  0  0  0  0  0
    5.8727    0.1598    0.0000 C   0  0  2  0  0  0  0  0  0  0  0  0
   13.6992    3.7419    0.0000 C   0  0  0  0  0  0  0  0  0  0  0  0
    4.7946   -1.0468    0.0000 C   0  0  1  0  0  0  0  0  0  0  0  0
    6.7368    0.6631    0.0000 C   0  0  0  0  0  0  0  0  0  0  0  0
   15.4592    3.7073    0.0000 C   0  0  0  0  0  0  0  0  0  0  0  0
    4.9576    0.5630    0.0000 C   0  0  0  0  0  0  0  0  0  0  0  0
   15.4592    0.7073    0.0000 C   0  0  0  0  0  0  0  0  0  0  0  0
    4.2913   -0.1827    0.0000 C   0  0  0  0  0  0  0  0  0  0  0  0
   16.3252    2.2073    0.0000 C   0  0  0  0  0  0  0  0  0  0  0  0
   16.3252    3.2073    0.0000 C   0  0  0  0  0  0  0  0  0  0  0  0
   16.3252    0.2073    0.0000 C   0  0  0  0  0  0  0  0  0  0  0  0
    3.3973   -2.0703    0.0000 C   0  0  0  0  0  0  0  0  0  0  0  0
    4.9823   -2.7687    0.0000 C   0  0  0  0  0  0  0  0  0  0  0  0
    2.9941   -2.9854    0.0000 C   0  0  0  0  0  0  0  0  0  0  0  0
   17.1912    3.7073    0.0000 C   0  0  0  0  0  0  0  0  0  0  0  0
    3.5850   -3.7922    0.0000 C   0  0  0  0  0  0  0  0  0  0  0  0
    2.0000   -3.0938    0.0000 C   0  0  0  0  0  0  0  0  0  0  0  0
   11.4578    2.6562    0.0000 H   0  0  0  0  0  0  0  0  0  0  0  0
   10.6607    2.6532    0.0000 H   0  0  0  0  0  0  0  0  0  0  0  0
   12.1472    0.1013    0.0000 H   0  0  0  0  0  0  0  0  0  0  0  0
   12.5430    0.7931    0.0000 H   0  0  0  0  0  0  0  0  0  0  0  0
    9.9827    2.2582    0.0000 H   0  0  0  0  0  0  0  0  0  0  0  0
    9.5868    1.5664    0.0000 H   0  0  0  0  0  0  0  0  0  0  0  0
   10.6721   -0.2967    0.0000 H   0  0  0  0  0  0  0  0  0  0  0  0
   11.4692   -0.2936    0.0000 H   0  0  0  0  0  0  0  0  0  0  0  0
    8.9401   -0.3034    0.0000 H   0  0  0  0  0  0  0  0  0  0  0  0
    9.7371   -0.3003    0.0000 H   0  0  0  0  0  0  0  0  0  0  0  0
   13.7064    1.0526    0.0000 H   0  0  0  0  0  0  0  0  0  0  0  0
    6.3940   -0.1759    0.0000 H   0  0  0  0  0  0  0  0  0  0  0  0
   13.7064    4.3619    0.0000 H   0  0  0  0  0  0  0  0  0  0  0  0
    4.1756   -1.0817    0.0000 H   0  0  0  0  0  0  0  0  0  0  0  0
    7.1335    1.1396    0.0000 H   0  0  0  0  0  0  0  0  0  0  0  0
    6.3364    1.1365    0.0000 H   0  0  0  0  0  0  0  0  0  0  0  0
    4.8263    1.1689    0.0000 H   0  0  0  0  0  0  0  0  0  0  0  0
   14.8486    0.8149    0.0000 H   0  0  0  0  0  0  0  0  0  0  0  0
   15.2471    0.1247    0.0000 H   0  0  0  0  0  0  0  0  0  0  0  0
    3.6745   -0.1203    0.0000 H   0  0  0  0  0  0  0  0  0  0  0  0
   16.8621    1.8973    0.0000 H   0  0  0  0  0  0  0  0  0  0  0  0
   16.0152   -0.3297    0.0000 H   0  0  0  0  0  0  0  0  0  0  0  0
   16.8621   -0.1027    0.0000 H   0  0  0  0  0  0  0  0  0  0  0  0
   16.6352    0.7442    0.0000 H   0  0  0  0  0  0  0  0  0  0  0  0
    3.0310   -1.5701    0.0000 H   0  0  0  0  0  0  0  0  0  0  0  0
    4.9455   -4.1840    0.0000 H   0  0  0  0  0  0  0  0  0  0  0  0
    1.9328   -2.4774    0.0000 H   0  0  0  0  0  0  0  0  0  0  0  0
    1.3836   -3.1610    0.0000 H   0  0  0  0  0  0  0  0  0  0  0  0
    2.0672   -3.7101    0.0000 H   0  0  0  0  0  0  0  0  0  0  0  0
   18.5942    3.5173    0.0000 H   0  0  0  0  0  0  0  0  0  0  0  0
  1 23  1  0  0  0  0
  2 25  1  0  0  0  0
  2 29  1  0  0  0  0
  3 26  1  0  0  0  0
  3 28  1  0  0  0  0
  4 25  2  0  0  0  0
  5 30  2  0  0  0  0
  6 38  2  0  0  0  0
  7 40  1  0  0  0  0
  7 72  1  0  0  0  0
  8 40  2  0  0  0  0
  9 41  2  0  0  0  0
 10 15  1  0  0  0  0
 10 16  1  0  0  0  0
 10 19  1  0  0  0  0
 11 17  1  0  0  0  0
 11 18  1  0  0  0  0
 11 20  1  0  0  0  0
 12 22  1  0  0  0  0
 12 32  1  0  0  0  0
 12 34  1  0  0  0  0
 28 13  1  1  0  0  0
 13 37  1  0  0  0  0
 13 38  1  0  0  0  0
 14 38  1  0  0  0  0
 14 41  1  0  0  0  0
 14 68  1  0  0  0  0
 15 17  1  0  0  0  0
 15 43  1  0  0  0  0
 15 44  1  0  0  0  0
 16 18  1  0  0  0  0
 16 45  1  0  0  0  0
 16 46  1  0  0  0  0
 17 47  1  0  0  0  0
 17 48  1  0  0  0  0
 18 49  1  0  0  0  0
 18 50  1  0  0  0  0
 19 21  1  0  0  0  0
 19 23  2  0  0  0  0
 20 25  1  0  0  0  0
 20 51  1  0  0  0  0
 20 52  1  0  0  0  0
 21 22  2  0  0  0  0
 21 53  1  0  0  0  0
 22 24  1  0  0  0  0
 23 27  1  0  0  0  0
 24 27  2  0  0  0  0
 24 30  1  0  0  0  0
 26 29  1  1  0  0  0
 26 31  1  0  0  0  0
 26 54  1  0  0  0  0
 27 55  1  0  0  0  0
 28 33  1  0  0  0  0
 28 56  1  0  0  0  0
 29 57  1  0  0  0  0
 29 58  1  0  0  0  0
 30 35  1  0  0  0  0
 31 33  2  0  0  0  0
 31 59  1  0  0  0  0
 32 36  1  0  0  0  0
 32 60  1  0  0  0  0
 32 61  1  0  0  0  0
 33 62  1  0  0  0  0
 34 35  2  0  0  0  0
 34 63  1  0  0  0  0
 35 40  1  0  0  0  0
 36 64  1  0  0  0  0
 36 65  1  0  0  0  0
 36 66  1  0  0  0  0
 37 39  2  0  0  0  0
 37 67  1  0  0  0  0
 39 41  1  0  0  0  0
 39 42  1  0  0  0  0
 42 69  1  0  0  0  0
 42 70  1  0  0  0  0
 42 71  1  0  0  0  0
M  END
> <PUBCHEM_COMPOUND_CID>
508213
> <PUBCHEM_COMPOUND_CANONICALIZED>
1
> <PUBCHEM_CACTVS_COMPLEXITY>
1230
> <PUBCHEM_CACTVS_HBOND_ACCEPTOR>
12
> <PUBCHEM_CACTVS_HBOND_DONOR>
2
> <PUBCHEM_CACTVS_ROTATABLE_BOND>
9
> <PUBCHEM_CACTVS_SUBSKEYS>
AAADceB7vQAAAAAAAAAAAAAAAAAAAQAAAAA8QIEAAAAAAACBAAAAHwAQCAAADBzhmA4zyIPABgCIAqXWWACCAAAlAgAIiAGIZMiLZD7I9fGfcYhs5yLa+ceY2aOeCAAAAAQCAAAQAAAACAQAAAAAAAAAAA==
> <PUBCHEM_IUPAC_OPENEYE_NAME>
1-ethyl-6-fluoro-7-[4-[2-[[(2S,5R)-5-(5-methyl-2,4-dioxo-pyrimidin-1-yl)-2,5-dihydrofuran-2-yl]methoxy]-2-oxo-ethyl]piperazin-1-yl]-4-oxo-quinoline-3-carboxylic acid
> <PUBCHEM_IUPAC_CAS_NAME>
1-ethyl-6-fluoro-7-[4-[2-[[(2S,5R)-5-(5-methyl-2,4-dioxo-1-pyrimidinyl)-2,5-dihydrofuran-2-yl]methoxy]-2-oxoethyl]-1-piperazinyl]-4-oxo-3-quinolinecarboxylic acid
> <PUBCHEM_IUPAC_NAME_MARKUP>
1-ethyl-6-fluoro-7-[4-[2-[[(2<I>S</I>,5<I>R</I>)-5-(5-methyl-2,4-dioxopyrimidin-1-yl)-2,5-dihydrofuran-2-yl]methoxy]-2-oxoethyl]piperazin-1-yl]-4-oxoquinoline-3-carboxylic acid
> <PUBCHEM_IUPAC_NAME>
1-ethyl-6-fluoro-7-[4-[2-[[(2S,5R)-5-(5-methyl-2,4-dioxopyrimidin-1-yl)-2,5-dihydrofuran-2-yl]methoxy]-2-oxoethyl]piperazin-1-yl]-4-oxoquinoline-3-carboxylic acid
> <PUBCHEM_IUPAC_SYSTEMATIC_NAME>
1-ethyl-6-fluoranyl-7-[4-[2-[[(2S,5R)-5-[5-methyl-2,4-bis(oxidanylidene)pyrimidin-1-yl]-2,5-dihydrofuran-2-yl]methoxy]-2-oxidanylidene-ethyl]piperazin-1-yl]-4-oxidanylidene-quinoline-3-carboxylic acid
> <PUBCHEM_IUPAC_TRADITIONAL_NAME>
7-[4-[2-[[(2S,5R)-5-(2,4-diketo-5-methyl-pyrimidin-1-yl)-2,5-dihydrofuran-2-yl]methoxy]-2-keto-ethyl]piperazino]-1-ethyl-6-fluoro-4-keto-quinoline-3-carboxylic acid
> <PUBCHEM_IUPAC_INCHI>
InChI=1S/C28H30FN5O8/c1-3-32-13-19(27(38)39)25(36)18-10-20(29)22(11-21(18)32)33-8-6-31(7-9-33)14-24(35)41-15-17-4-5-23(42-17)34-12-16(2)26(37)30-28(34)40/h4-5,10-13,17,23H,3,6-9,14-15H2,1-2H3,(H,38,39)(H,30,37,40)/t17-,23+/m0/s1
> <PUBCHEM_IUPAC_INCHIKEY>
QTYCOBPHZQCRJA-GAJHUEQPSA-N
> <PUBCHEM_XLOGP3>
-0.2
> <PUBCHEM_EXACT_MASS>
583.20784109
> <PUBCHEM_MOLECULAR_FORMULA>
C28H30FN5O8
> <PUBCHEM_MOLECULAR_WEIGHT>
583.6
> <PUBCHEM_OPENEYE_CAN_SMILES>
CCN1C=C(C(=O)C2=CC(=C(C=C21)N3CCN(CC3)CC(=O)OCC4C=CC(O4)N5C=C(C(=O)NC5=O)C)F)C(=O)O
> <PUBCHEM_OPENEYE_ISO_SMILES>
CCN1C=C(C(=O)C2=CC(=C(C=C21)N3CCN(CC3)CC(=O)OC[C@@H]4C=C[C@@H](O4)N5C=C(C(=O)NC5=O)C)F)C(=O)O
> <PUBCHEM_CACTVS_TPSA>
149
> <PUBCHEM_MONOISOTOPIC_WEIGHT>
583.20784109
> <PUBCHEM_TOTAL_CHARGE>
0
> <PUBCHEM_HEAVY_ATOM_COUNT>
42
> <PUBCHEM_ATOM_DEF_STEREO_COUNT>
2
> <PUBCHEM_ATOM_UDEF_STEREO_COUNT>
0
> <PUBCHEM_BOND_DEF_STEREO_COUNT>
0
> <PUBCHEM_BOND_UDEF_STEREO_COUNT>
0
> <PUBCHEM_ISOTOPIC_ATOM_COUNT>
0
> <PUBCHEM_COMPONENT_COUNT>
1
> <PUBCHEM_CACTVS_TAUTO_COUNT>
-1
> <PUBCHEM_COORDINATE_TYPE>
1
5
255
> <PUBCHEM_BONDANNOTATIONS>
12  22  8
12  34  8
28  13  5
13  37  8
13  38  8
14  38  8
14  41  8
19  21  8
19  23  8
21  22  8
22  24  8
23  27  8
24  27  8
24  30  8
26  29  5
30  35  8
34  35  8
37  39  8
39  41  8
$$$$
