508200
  -OEChem-10302200282D
103107  0     1  0  0  0  0  0999 V2000
    8.9962   -7.9330    0.0000 F   0  0  0  0  0  0  0  0  0  0  0  0
    7.2641    5.0670    0.0000 O   0  0  0  0  0  0  0  0  0  0  0  0
    5.5321    2.0670    0.0000 O   0  0  0  0  0  0  0  0  0  0  0  0
    5.5321    1.0670    0.0000 O   0  0  0  0  0  0  0  0  0  0  0  0
    8.9962   -1.9330    0.0000 O   0  0  0  0  0  0  0  0  0  0  0  0
    5.5321    4.0670    0.0000 N   0  0  3  0  0  0  0  0  0  0  0  0
    6.3981    6.5670    0.0000 N   0  0  0  0  0  0  0  0  0  0  0  0
    7.2641    1.0670    0.0000 N   0  0  0  0  0  0  0  0  0  0  0  0
    8.1301   -3.4330    0.0000 N   0  0  0  0  0  0  0  0  0  0  0  0
    3.8000    5.0670    0.0000 C   0  0  2  0  0  0  0  0  0  0  0  0
    3.8000    4.0670    0.0000 C   0  0  1  0  0  0  0  0  0  0  0  0
    4.6660    5.5670    0.0000 C   0  0  0  0  0  0  0  0  0  0  0  0
    4.6660    3.5670    0.0000 C   0  0  0  0  0  0  0  0  0  0  0  0
    2.9061    5.6016    0.0000 C   0  0  0  0  0  0  0  0  0  0  0  0
    2.9061    3.5323    0.0000 C   0  0  0  0  0  0  0  0  0  0  0  0
    5.5321    5.0670    0.0000 C   0  0  1  0  0  0  0  0  0  0  0  0
    2.0000    5.0878    0.0000 C   0  0  0  0  0  0  0  0  0  0  0  0
    2.0000    4.0462    0.0000 C   0  0  0  0  0  0  0  0  0  0  0  0
    6.3981    3.5670    0.0000 C   0  0  0  0  0  0  0  0  0  0  0  0
    6.3981    5.5670    0.0000 C   0  0  0  0  0  0  0  0  0  0  0  0
    6.3981    2.5670    0.0000 C   0  0  1  0  0  0  0  0  0  0  0  0
    7.2641    2.0670    0.0000 C   0  0  2  0  0  0  0  0  0  0  0  0
    7.2641    7.0670    0.0000 C   0  0  0  0  0  0  0  0  0  0  0  0
    8.1301    2.5670    0.0000 C   0  0  0  0  0  0  0  0  0  0  0  0
    8.1301    7.5670    0.0000 C   0  0  0  0  0  0  0  0  0  0  0  0
    6.7641    7.9330    0.0000 C   0  0  0  0  0  0  0  0  0  0  0  0
    7.7641    6.2010    0.0000 C   0  0  0  0  0  0  0  0  0  0  0  0
    8.9962    2.0670    0.0000 C   0  0  0  0  0  0  0  0  0  0  0  0
    6.3981    0.5670    0.0000 C   0  0  0  0  0  0  0  0  0  0  0  0
    9.8622    2.5670    0.0000 C   0  0  0  0  0  0  0  0  0  0  0  0
    8.9962    1.0670    0.0000 C   0  0  0  0  0  0  0  0  0  0  0  0
    6.3981   -0.4330    0.0000 C   0  0  0  0  0  0  0  0  0  0  0  0
   10.7282    2.0670    0.0000 C   0  0  0  0  0  0  0  0  0  0  0  0
    9.8622    0.5670    0.0000 C   0  0  0  0  0  0  0  0  0  0  0  0
    5.5321   -0.9330    0.0000 C   0  0  0  0  0  0  0  0  0  0  0  0
   10.7282    1.0670    0.0000 C   0  0  0  0  0  0  0  0  0  0  0  0
    7.2641   -0.9330    0.0000 C   0  0  0  0  0  0  0  0  0  0  0  0
    7.2641   -1.9330    0.0000 C   0  0  0  0  0  0  0  0  0  0  0  0
    5.5321   -1.9330    0.0000 C   0  0  0  0  0  0  0  0  0  0  0  0
    4.6660   -0.4330    0.0000 C   0  0  0  0  0  0  0  0  0  0  0  0
    6.3981   -2.4330    0.0000 C   0  0  0  0  0  0  0  0  0  0  0  0
    8.1301   -2.4330    0.0000 C   0  0  0  0  0  0  0  0  0  0  0  0
    8.9962   -3.9330    0.0000 C   0  0  0  0  0  0  0  0  0  0  0  0
    7.2641   -3.9330    0.0000 C   0  0  0  0  0  0  0  0  0  0  0  0
    8.9962   -4.9330    0.0000 C   0  0  0  0  0  0  0  0  0  0  0  0
    8.1301   -5.4330    0.0000 C   0  0  0  0  0  0  0  0  0  0  0  0
    9.8622   -5.4330    0.0000 C   0  0  0  0  0  0  0  0  0  0  0  0
    8.1301   -6.4330    0.0000 C   0  0  0  0  0  0  0  0  0  0  0  0
    9.8622   -6.4330    0.0000 C   0  0  0  0  0  0  0  0  0  0  0  0
    8.9962   -6.9330    0.0000 C   0  0  0  0  0  0  0  0  0  0  0  0
    3.8066    5.9170    0.0000 H   0  0  0  0  0  0  0  0  0  0  0  0
    3.8066    3.2170    0.0000 H   0  0  0  0  0  0  0  0  0  0  0  0
    5.0646    6.0419    0.0000 H   0  0  0  0  0  0  0  0  0  0  0  0
    4.2675    6.0419    0.0000 H   0  0  0  0  0  0  0  0  0  0  0  0
    4.2675    3.0920    0.0000 H   0  0  0  0  0  0  0  0  0  0  0  0
    5.0646    3.0920    0.0000 H   0  0  0  0  0  0  0  0  0  0  0  0
    3.3107    6.0714    0.0000 H   0  0  0  0  0  0  0  0  0  0  0  0
    2.5124    6.0807    0.0000 H   0  0  0  0  0  0  0  0  0  0  0  0
    2.5124    3.0533    0.0000 H   0  0  0  0  0  0  0  0  0  0  0  0
    3.3107    3.0625    0.0000 H   0  0  0  0  0  0  0  0  0  0  0  0
    6.0690    4.7570    0.0000 H   0  0  0  0  0  0  0  0  0  0  0  0
    1.7909    5.6715    0.0000 H   0  0  0  0  0  0  0  0  0  0  0  0
    1.3891    4.9817    0.0000 H   0  0  0  0  0  0  0  0  0  0  0  0
    1.3891    4.1523    0.0000 H   0  0  0  0  0  0  0  0  0  0  0  0
    1.7909    3.4625    0.0000 H   0  0  0  0  0  0  0  0  0  0  0  0
    7.0087    3.4593    0.0000 H   0  0  0  0  0  0  0  0  0  0  0  0
    6.6101    4.1496    0.0000 H   0  0  0  0  0  0  0  0  0  0  0  0
    6.3981    1.9470    0.0000 H   0  0  0  0  0  0  0  0  0  0  0  0
    7.8010    1.7570    0.0000 H   0  0  0  0  0  0  0  0  0  0  0  0
    5.8612    6.8770    0.0000 H   0  0  0  0  0  0  0  0  0  0  0  0
    8.5287    3.0419    0.0000 H   0  0  0  0  0  0  0  0  0  0  0  0
    7.7316    3.0419    0.0000 H   0  0  0  0  0  0  0  0  0  0  0  0
    4.9951    2.3770    0.0000 H   0  0  0  0  0  0  0  0  0  0  0  0
    7.8010    0.7570    0.0000 H   0  0  0  0  0  0  0  0  0  0  0  0
    8.4401    7.0300    0.0000 H   0  0  0  0  0  0  0  0  0  0  0  0
    8.6671    7.8770    0.0000 H   0  0  0  0  0  0  0  0  0  0  0  0
    7.8201    8.1039    0.0000 H   0  0  0  0  0  0  0  0  0  0  0  0
    7.3010    8.2430    0.0000 H   0  0  0  0  0  0  0  0  0  0  0  0
    6.4541    8.4700    0.0000 H   0  0  0  0  0  0  0  0  0  0  0  0
    6.2272    7.6230    0.0000 H   0  0  0  0  0  0  0  0  0  0  0  0
    7.2272    5.8910    0.0000 H   0  0  0  0  0  0  0  0  0  0  0  0
    8.0741    5.6640    0.0000 H   0  0  0  0  0  0  0  0  0  0  0  0
    8.3010    6.5110    0.0000 H   0  0  0  0  0  0  0  0  0  0  0  0
    9.8622    3.1870    0.0000 H   0  0  0  0  0  0  0  0  0  0  0  0
    8.4592    0.7570    0.0000 H   0  0  0  0  0  0  0  0  0  0  0  0
   11.2651    2.3770    0.0000 H   0  0  0  0  0  0  0  0  0  0  0  0
    9.8622   -0.0530    0.0000 H   0  0  0  0  0  0  0  0  0  0  0  0
   11.2651    0.7570    0.0000 H   0  0  0  0  0  0  0  0  0  0  0  0
    7.8010   -0.6230    0.0000 H   0  0  0  0  0  0  0  0  0  0  0  0
    4.9951   -2.2430    0.0000 H   0  0  0  0  0  0  0  0  0  0  0  0
    4.9760    0.1039    0.0000 H   0  0  0  0  0  0  0  0  0  0  0  0
    4.1291   -0.1230    0.0000 H   0  0  0  0  0  0  0  0  0  0  0  0
    4.3560   -0.9699    0.0000 H   0  0  0  0  0  0  0  0  0  0  0  0
    6.3981   -3.0530    0.0000 H   0  0  0  0  0  0  0  0  0  0  0  0
    9.6067   -4.0407    0.0000 H   0  0  0  0  0  0  0  0  0  0  0  0
    9.2082   -3.3504    0.0000 H   0  0  0  0  0  0  0  0  0  0  0  0
    6.9541   -3.3961    0.0000 H   0  0  0  0  0  0  0  0  0  0  0  0
    6.7272   -4.2430    0.0000 H   0  0  0  0  0  0  0  0  0  0  0  0
    7.5741   -4.4700    0.0000 H   0  0  0  0  0  0  0  0  0  0  0  0
    7.5932   -5.1230    0.0000 H   0  0  0  0  0  0  0  0  0  0  0  0
   10.3991   -5.1230    0.0000 H   0  0  0  0  0  0  0  0  0  0  0  0
    7.5932   -6.7430    0.0000 H   0  0  0  0  0  0  0  0  0  0  0  0
   10.3991   -6.7430    0.0000 H   0  0  0  0  0  0  0  0  0  0  0  0
  1 50  1  0  0  0  0
  2 20  2  0  0  0  0
 21  3  1  1  0  0  0
  3 73  1  0  0  0  0
  4 29  2  0  0  0  0
  5 42  2  0  0  0  0
  6 13  1  0  0  0  0
  6 16  1  0  0  0  0
  6 19  1  0  0  0  0
  7 20  1  0  0  0  0
  7 23  1  0  0  0  0
  7 70  1  0  0  0  0
 22  8  1  6  0  0  0
  8 29  1  0  0  0  0
  8 74  1  0  0  0  0
  9 42  1  0  0  0  0
  9 43  1  0  0  0  0
  9 44  1  0  0  0  0
 10 11  1  0  0  0  0
 10 12  1  0  0  0  0
 10 14  1  0  0  0  0
 10 51  1  6  0  0  0
 11 13  1  0  0  0  0
 11 15  1  0  0  0  0
 11 52  1  6  0  0  0
 12 16  1  0  0  0  0
 12 53  1  0  0  0  0
 12 54  1  0  0  0  0
 13 55  1  0  0  0  0
 13 56  1  0  0  0  0
 14 17  1  0  0  0  0
 14 57  1  0  0  0  0
 14 58  1  0  0  0  0
 15 18  1  0  0  0  0
 15 59  1  0  0  0  0
 15 60  1  0  0  0  0
 16 20  1  1  0  0  0
 16 61  1  0  0  0  0
 17 18  1  0  0  0  0
 17 62  1  0  0  0  0
 17 63  1  0  0  0  0
 18 64  1  0  0  0  0
 18 65  1  0  0  0  0
 19 21  1  0  0  0  0
 19 66  1  0  0  0  0
 19 67  1  0  0  0  0
 21 22  1  0  0  0  0
 21 68  1  0  0  0  0
 22 24  1  0  0  0  0
 22 69  1  0  0  0  0
 23 25  1  0  0  0  0
 23 26  1  0  0  0  0
 23 27  1  0  0  0  0
 24 28  1  0  0  0  0
 24 71  1  0  0  0  0
 24 72  1  0  0  0  0
 25 75  1  0  0  0  0
 25 76  1  0  0  0  0
 25 77  1  0  0  0  0
 26 78  1  0  0  0  0
 26 79  1  0  0  0  0
 26 80  1  0  0  0  0
 27 81  1  0  0  0  0
 27 82  1  0  0  0  0
 27 83  1  0  0  0  0
 28 30  2  0  0  0  0
 28 31  1  0  0  0  0
 29 32  1  0  0  0  0
 30 33  1  0  0  0  0
 30 84  1  0  0  0  0
 31 34  2  0  0  0  0
 31 85  1  0  0  0  0
 32 35  2  0  0  0  0
 32 37  1  0  0  0  0
 33 36  2  0  0  0  0
 33 86  1  0  0  0  0
 34 36  1  0  0  0  0
 34 87  1  0  0  0  0
 35 39  1  0  0  0  0
 35 40  1  0  0  0  0
 36 88  1  0  0  0  0
 37 38  2  0  0  0  0
 37 89  1  0  0  0  0
 38 41  1  0  0  0  0
 38 42  1  0  0  0  0
 39 41  2  0  0  0  0
 39 90  1  0  0  0  0
 40 91  1  0  0  0  0
 40 92  1  0  0  0  0
 40 93  1  0  0  0  0
 41 94  1  0  0  0  0
 43 45  1  0  0  0  0
 43 95  1  0  0  0  0
 43 96  1  0  0  0  0
 44 97  1  0  0  0  0
 44 98  1  0  0  0  0
 44 99  1  0  0  0  0
 45 46  2  0  0  0  0
 45 47  1  0  0  0  0
 46 48  1  0  0  0  0
 46100  1  0  0  0  0
 47 49  2  0  0  0  0
 47101  1  0  0  0  0
 48 50  2  0  0  0  0
 48102  1  0  0  0  0
 49 50  1  0  0  0  0
 49103  1  0  0  0  0
M  END
> <PUBCHEM_COMPOUND_CID>
508200
> <PUBCHEM_COMPOUND_CANONICALIZED>
1
> <PUBCHEM_CACTVS_COMPLEXITY>
1120
> <PUBCHEM_CACTVS_HBOND_ACCEPTOR>
6
> <PUBCHEM_CACTVS_HBOND_DONOR>
3
> <PUBCHEM_CACTVS_ROTATABLE_BOND>
12
> <PUBCHEM_CACTVS_SUBSKEYS>
AAADcfB/uQAAAAAAAAAAAAAAAAAAAAAAAAA8YMGCAAAAAACxUAAAHwAQCAAADbzhmA4yAIPAAgCIAiFSEACCAAAkAAAIiIGIBMgKcDKA1TGUYQhklgCYiYeYy+COwAACAAAQAACAAAQAACAAAAAAAAAAAA==
> <PUBCHEM_IUPAC_OPENEYE_NAME>
N3-[(1S,2S)-3-[(3S,4aS,8aS)-3-(tert-butylcarbamoyl)-3,4,4a,5,6,7,8,8a-octahydro-1H-isoquinolin-2-yl]-1-benzyl-2-hydroxy-propyl]-N1-[(4-fluorophenyl)methyl]-N1,4-dimethyl-benzene-1,3-dicarboxamide
> <PUBCHEM_IUPAC_CAS_NAME>
N3-[(2S,3S)-4-[(3S,4aS,8aS)-3-[(tert-butylamino)-oxomethyl]-3,4,4a,5,6,7,8,8a-octahydro-1H-isoquinolin-2-yl]-3-hydroxy-1-phenylbutan-2-yl]-N1-[(4-fluorophenyl)methyl]-N1,4-dimethylbenzene-1,3-dicarboxamide
> <PUBCHEM_IUPAC_NAME_MARKUP>
3-<I>N</I>-[(2<I>S</I>,3<I>S</I>)-4-[(3<I>S</I>,4<I>a</I><I>S</I>,8<I>a</I><I>S</I>)-3-(<I>tert</I>-butylcarbamoyl)-3,4,4<I>a</I>,5,6,7,8,8<I>a</I>-octahydro-1<I>H</I>-isoquinolin-2-yl]-3-hydroxy-1-phenylbutan-2-yl]-1-<I>N</I>-[(4-fluorophenyl)methyl]-1-<I>N</I>,4-dimethylbenzene-1,3-dicarboxamide
> <PUBCHEM_IUPAC_NAME>
3-N-[(2S,3S)-4-[(3S,4aS,8aS)-3-(tert-butylcarbamoyl)-3,4,4a,5,6,7,8,8a-octahydro-1H-isoquinolin-2-yl]-3-hydroxy-1-phenylbutan-2-yl]-1-N-[(4-fluorophenyl)methyl]-1-N,4-dimethylbenzene-1,3-dicarboxamide
> <PUBCHEM_IUPAC_SYSTEMATIC_NAME>
N3-[(2S,3S)-4-[(3S,4aS,8aS)-3-(tert-butylcarbamoyl)-3,4,4a,5,6,7,8,8a-octahydro-1H-isoquinolin-2-yl]-3-oxidanyl-1-phenyl-butan-2-yl]-N1-[(4-fluorophenyl)methyl]-N1,4-dimethyl-benzene-1,3-dicarboxamide
> <PUBCHEM_IUPAC_TRADITIONAL_NAME>
N'-[(1S,2S)-3-[(3S,4aS,8aS)-3-(tert-butylcarbamoyl)-3,4,4a,5,6,7,8,8a-octahydro-1H-isoquinolin-2-yl]-1-benzyl-2-hydroxy-propyl]-N-(4-fluorobenzyl)-N,4-dimethyl-isophthalamide
> <PUBCHEM_IUPAC_INCHI>
InChI=1S/C41H53FN4O4/c1-27-15-18-31(40(50)45(5)24-29-16-19-33(42)20-17-29)22-34(27)38(48)43-35(21-28-11-7-6-8-12-28)37(47)26-46-25-32-14-10-9-13-30(32)23-36(46)39(49)44-41(2,3)4/h6-8,11-12,15-20,22,30,32,35-37,47H,9-10,13-14,21,23-26H2,1-5H3,(H,43,48)(H,44,49)/t30-,32+,35-,36-,37-/m0/s1
> <PUBCHEM_IUPAC_INCHIKEY>
SMVMVIOXNCHIBI-XASKEDIJSA-N
> <PUBCHEM_XLOGP3_AA>
6.8
> <PUBCHEM_EXACT_MASS>
684.40508435
> <PUBCHEM_MOLECULAR_FORMULA>
C41H53FN4O4
> <PUBCHEM_MOLECULAR_WEIGHT>
684.9
> <PUBCHEM_OPENEYE_CAN_SMILES>
CC1=C(C=C(C=C1)C(=O)N(C)CC2=CC=C(C=C2)F)C(=O)NC(CC3=CC=CC=C3)C(CN4CC5CCCCC5CC4C(=O)NC(C)(C)C)O
> <PUBCHEM_OPENEYE_ISO_SMILES>
CC1=C(C=C(C=C1)C(=O)N(C)CC2=CC=C(C=C2)F)C(=O)N[C@@H](CC3=CC=CC=C3)[C@H](CN4C[C@H]5CCCC[C@H]5C[C@H]4C(=O)NC(C)(C)C)O
> <PUBCHEM_CACTVS_TPSA>
102
> <PUBCHEM_MONOISOTOPIC_WEIGHT>
684.40508435
> <PUBCHEM_TOTAL_CHARGE>
0
> <PUBCHEM_HEAVY_ATOM_COUNT>
50
> <PUBCHEM_ATOM_DEF_STEREO_COUNT>
5
> <PUBCHEM_ATOM_UDEF_STEREO_COUNT>
0
> <PUBCHEM_BOND_DEF_STEREO_COUNT>
0
> <PUBCHEM_BOND_UDEF_STEREO_COUNT>
0
> <PUBCHEM_ISOTOPIC_ATOM_COUNT>
0
> <PUBCHEM_COMPONENT_COUNT>
1
> <PUBCHEM_CACTVS_TAUTO_COUNT>
-1
> <PUBCHEM_COORDINATE_TYPE>
1
5
255
> <PUBCHEM_BONDANNOTATIONS>
10  51  6
11  52  6
16  20  5
28  30  8
28  31  8
21  3  5
30  33  8
31  34  8
32  35  8
32  37  8
33  36  8
34  36  8
35  39  8
37  38  8
38  41  8
39  41  8
45  46  8
45  47  8
46  48  8
47  49  8
48  50  8
49  50  8
22  8  6
$$$$
