508279
  -OEChem-10302200282D
 76 78  0     1  0  0  0  0  0999 V2000
    8.9282    0.9330    0.0000 S   0  0  0  0  0  0  0  0  0  0  0  0
    2.8660   -3.5670    0.0000 S   0  0  0  0  0  0  0  0  0  0  0  0
    6.3301    2.4330    0.0000 O   0  0  0  0  0  0  0  0  0  0  0  0
    9.4282    1.7990    0.0000 O   0  0  0  0  0  0  0  0  0  0  0  0
    8.4282    0.0670    0.0000 O   0  0  0  0  0  0  0  0  0  0  0  0
    3.7320   -0.0670    0.0000 O   0  0  0  0  0  0  0  0  0  0  0  0
   12.3923   -1.0670    0.0000 O   0  0  0  0  0  0  0  0  0  0  0  0
    3.3660   -4.4330    0.0000 O   0  0  0  0  0  0  0  0  0  0  0  0
    2.3660   -2.7010    0.0000 O   0  0  0  0  0  0  0  0  0  0  0  0
    8.0622    1.4330    0.0000 N   0  0  3  0  0  0  0  0  0  0  0  0
    5.4641   -0.0670    0.0000 N   0  0  0  0  0  0  0  0  0  0  0  0
    6.3301    1.4330    0.0000 C   0  0  1  0  0  0  0  0  0  0  0  0
    5.4641    0.9330    0.0000 C   0  0  2  0  0  0  0  0  0  0  0  0
    7.1962    0.9330    0.0000 C   0  0  0  0  0  0  0  0  0  0  0  0
    8.0622    2.4330    0.0000 C   0  0  0  0  0  0  0  0  0  0  0  0
    8.9282    2.9330    0.0000 C   0  0  0  0  0  0  0  0  0  0  0  0
    4.5981    1.4330    0.0000 C   0  0  0  0  0  0  0  0  0  0  0  0
    4.5981    2.4330    0.0000 C   0  0  0  0  0  0  0  0  0  0  0  0
    8.9282    3.9330    0.0000 C   0  0  0  0  0  0  0  0  0  0  0  0
    9.7942    2.4330    0.0000 C   0  0  0  0  0  0  0  0  0  0  0  0
    9.7942    0.4330    0.0000 C   0  0  0  0  0  0  0  0  0  0  0  0
    4.5981   -0.5670    0.0000 C   0  0  0  0  0  0  0  0  0  0  0  0
    3.7320    2.9330    0.0000 C   0  0  0  0  0  0  0  0  0  0  0  0
    5.4641    2.9330    0.0000 C   0  0  0  0  0  0  0  0  0  0  0  0
    9.7942   -0.5670    0.0000 C   0  0  0  0  0  0  0  0  0  0  0  0
   10.6603    0.9330    0.0000 C   0  0  0  0  0  0  0  0  0  0  0  0
    4.5981   -1.5670    0.0000 C   0  0  0  0  0  0  0  0  0  0  0  0
    3.7320    3.9330    0.0000 C   0  0  0  0  0  0  0  0  0  0  0  0
    5.4641    3.9330    0.0000 C   0  0  0  0  0  0  0  0  0  0  0  0
   10.6603   -1.0670    0.0000 C   0  0  0  0  0  0  0  0  0  0  0  0
   11.5263    0.4330    0.0000 C   0  0  0  0  0  0  0  0  0  0  0  0
   11.5263   -0.5670    0.0000 C   0  0  0  0  0  0  0  0  0  0  0  0
    3.7320   -2.0670    0.0000 C   0  0  0  0  0  0  0  0  0  0  0  0
    4.5981    4.4330    0.0000 C   0  0  0  0  0  0  0  0  0  0  0  0
    5.4641   -2.0670    0.0000 C   0  0  0  0  0  0  0  0  0  0  0  0
    3.7320   -3.0670    0.0000 C   0  0  0  0  0  0  0  0  0  0  0  0
    5.4641   -3.0670    0.0000 C   0  0  0  0  0  0  0  0  0  0  0  0
    4.5981   -3.5670    0.0000 C   0  0  0  0  0  0  0  0  0  0  0  0
    2.0000   -4.0670    0.0000 C   0  0  0  0  0  0  0  0  0  0  0  0
   13.2583   -0.5670    0.0000 C   0  0  0  0  0  0  0  0  0  0  0  0
    6.8671    1.7430    0.0000 H   0  0  0  0  0  0  0  0  0  0  0  0
    6.0010    0.6230    0.0000 H   0  0  0  0  0  0  0  0  0  0  0  0
    6.7976    0.4581    0.0000 H   0  0  0  0  0  0  0  0  0  0  0  0
    7.5947    0.4581    0.0000 H   0  0  0  0  0  0  0  0  0  0  0  0
    7.8501    3.0156    0.0000 H   0  0  0  0  0  0  0  0  0  0  0  0
    7.4516    2.3253    0.0000 H   0  0  0  0  0  0  0  0  0  0  0  0
    9.4651    3.2430    0.0000 H   0  0  0  0  0  0  0  0  0  0  0  0
    3.9875    1.5407    0.0000 H   0  0  0  0  0  0  0  0  0  0  0  0
    4.3860    0.8504    0.0000 H   0  0  0  0  0  0  0  0  0  0  0  0
    6.0010   -0.3770    0.0000 H   0  0  0  0  0  0  0  0  0  0  0  0
    9.5482    3.9330    0.0000 H   0  0  0  0  0  0  0  0  0  0  0  0
    8.9282    4.5530    0.0000 H   0  0  0  0  0  0  0  0  0  0  0  0
    8.3082    3.9330    0.0000 H   0  0  0  0  0  0  0  0  0  0  0  0
    9.4842    1.8961    0.0000 H   0  0  0  0  0  0  0  0  0  0  0  0
   10.3312    2.1230    0.0000 H   0  0  0  0  0  0  0  0  0  0  0  0
   10.1042    2.9700    0.0000 H   0  0  0  0  0  0  0  0  0  0  0  0
    6.8671    2.7430    0.0000 H   0  0  0  0  0  0  0  0  0  0  0  0
    3.1951    2.6230    0.0000 H   0  0  0  0  0  0  0  0  0  0  0  0
    6.0010    2.6230    0.0000 H   0  0  0  0  0  0  0  0  0  0  0  0
    9.2573   -0.8770    0.0000 H   0  0  0  0  0  0  0  0  0  0  0  0
   10.6603    1.5530    0.0000 H   0  0  0  0  0  0  0  0  0  0  0  0
    3.1951    4.2430    0.0000 H   0  0  0  0  0  0  0  0  0  0  0  0
    6.0010    4.2430    0.0000 H   0  0  0  0  0  0  0  0  0  0  0  0
   10.6603   -1.6870    0.0000 H   0  0  0  0  0  0  0  0  0  0  0  0
   12.0632    0.7430    0.0000 H   0  0  0  0  0  0  0  0  0  0  0  0
    3.1951   -1.7570    0.0000 H   0  0  0  0  0  0  0  0  0  0  0  0
    4.5981    5.0530    0.0000 H   0  0  0  0  0  0  0  0  0  0  0  0
    6.0010   -1.7570    0.0000 H   0  0  0  0  0  0  0  0  0  0  0  0
    6.0010   -3.3770    0.0000 H   0  0  0  0  0  0  0  0  0  0  0  0
    4.5981   -4.1870    0.0000 H   0  0  0  0  0  0  0  0  0  0  0  0
    1.6900   -3.5300    0.0000 H   0  0  0  0  0  0  0  0  0  0  0  0
    1.4631   -4.3770    0.0000 H   0  0  0  0  0  0  0  0  0  0  0  0
    2.3100   -4.6039    0.0000 H   0  0  0  0  0  0  0  0  0  0  0  0
   13.5683   -1.1039    0.0000 H   0  0  0  0  0  0  0  0  0  0  0  0
   13.7953   -0.2570    0.0000 H   0  0  0  0  0  0  0  0  0  0  0  0
   12.9483   -0.0301    0.0000 H   0  0  0  0  0  0  0  0  0  0  0  0
  1  4  2  0  0  0  0
  1  5  2  0  0  0  0
  1 10  1  0  0  0  0
  1 21  1  0  0  0  0
  2  8  2  0  0  0  0
  2  9  2  0  0  0  0
  2 36  1  0  0  0  0
  2 39  1  0  0  0  0
 12  3  1  6  0  0  0
  3 57  1  0  0  0  0
  6 22  2  0  0  0  0
  7 32  1  0  0  0  0
  7 40  1  0  0  0  0
 10 14  1  0  0  0  0
 10 15  1  0  0  0  0
 13 11  1  1  0  0  0
 11 22  1  0  0  0  0
 11 50  1  0  0  0  0
 12 13  1  0  0  0  0
 12 14  1  0  0  0  0
 12 41  1  0  0  0  0
 13 17  1  0  0  0  0
 13 42  1  0  0  0  0
 14 43  1  0  0  0  0
 14 44  1  0  0  0  0
 15 16  1  0  0  0  0
 15 45  1  0  0  0  0
 15 46  1  0  0  0  0
 16 19  1  0  0  0  0
 16 20  1  0  0  0  0
 16 47  1  0  0  0  0
 17 18  1  0  0  0  0
 17 48  1  0  0  0  0
 17 49  1  0  0  0  0
 18 23  2  0  0  0  0
 18 24  1  0  0  0  0
 19 51  1  0  0  0  0
 19 52  1  0  0  0  0
 19 53  1  0  0  0  0
 20 54  1  0  0  0  0
 20 55  1  0  0  0  0
 20 56  1  0  0  0  0
 21 25  2  0  0  0  0
 21 26  1  0  0  0  0
 22 27  1  0  0  0  0
 23 28  1  0  0  0  0
 23 58  1  0  0  0  0
 24 29  2  0  0  0  0
 24 59  1  0  0  0  0
 25 30  1  0  0  0  0
 25 60  1  0  0  0  0
 26 31  2  0  0  0  0
 26 61  1  0  0  0  0
 27 33  2  0  0  0  0
 27 35  1  0  0  0  0
 28 34  2  0  0  0  0
 28 62  1  0  0  0  0
 29 34  1  0  0  0  0
 29 63  1  0  0  0  0
 30 32  2  0  0  0  0
 30 64  1  0  0  0  0
 31 32  1  0  0  0  0
 31 65  1  0  0  0  0
 33 36  1  0  0  0  0
 33 66  1  0  0  0  0
 34 67  1  0  0  0  0
 35 37  2  0  0  0  0
 35 68  1  0  0  0  0
 36 38  2  0  0  0  0
 37 38  1  0  0  0  0
 37 69  1  0  0  0  0
 38 70  1  0  0  0  0
 39 71  1  0  0  0  0
 39 72  1  0  0  0  0
 39 73  1  0  0  0  0
 40 74  1  0  0  0  0
 40 75  1  0  0  0  0
 40 76  1  0  0  0  0
M  END
> <PUBCHEM_COMPOUND_CID>
508279
> <PUBCHEM_COMPOUND_CANONICALIZED>
1
> <PUBCHEM_CACTVS_COMPLEXITY>
992
> <PUBCHEM_CACTVS_HBOND_ACCEPTOR>
8
> <PUBCHEM_CACTVS_HBOND_DONOR>
2
> <PUBCHEM_CACTVS_ROTATABLE_BOND>
13
> <PUBCHEM_CACTVS_SUBSKEYS>
AAADcfB7OABgAAAAAAAAAAAAAAAAAAAAAAAwYMAAAAAAAAABUAAAHgQQSAAADTzh2AayB4LABgqIAiFSEHDCCBAkKBAIiJkODMgONjKk9RuEcShk1hGYqYeYyKCOAIAAgAAAAAABAAEAAAAAAAAAAAAAAA==
> <PUBCHEM_IUPAC_OPENEYE_NAME>
N-[(1S,2R)-1-benzyl-2-hydroxy-3-[isobutyl-(4-methoxyphenyl)sulfonyl-amino]propyl]-3-methylsulfonyl-benzamide
> <PUBCHEM_IUPAC_CAS_NAME>
N-[(2S,3R)-3-hydroxy-4-[(4-methoxyphenyl)sulfonyl-(2-methylpropyl)amino]-1-phenylbutan-2-yl]-3-methylsulfonylbenzamide
> <PUBCHEM_IUPAC_NAME_MARKUP>
<I>N</I>-[(2<I>S</I>,3<I>R</I>)-3-hydroxy-4-[(4-methoxyphenyl)sulfonyl-(2-methylpropyl)amino]-1-phenylbutan-2-yl]-3-methylsulfonylbenzamide
> <PUBCHEM_IUPAC_NAME>
N-[(2S,3R)-3-hydroxy-4-[(4-methoxyphenyl)sulfonyl-(2-methylpropyl)amino]-1-phenylbutan-2-yl]-3-methylsulfonylbenzamide
> <PUBCHEM_IUPAC_SYSTEMATIC_NAME>
N-[(2S,3R)-4-[(4-methoxyphenyl)sulfonyl-(2-methylpropyl)amino]-3-oxidanyl-1-phenyl-butan-2-yl]-3-methylsulfonyl-benzamide
> <PUBCHEM_IUPAC_TRADITIONAL_NAME>
N-[(1S,2R)-1-benzyl-2-hydroxy-3-[isobutyl-(4-methoxyphenyl)sulfonyl-amino]propyl]-3-mesyl-benzamide
> <PUBCHEM_IUPAC_INCHI>
InChI=1S/C29H36N2O7S2/c1-21(2)19-31(40(36,37)25-15-13-24(38-3)14-16-25)20-28(32)27(17-22-9-6-5-7-10-22)30-29(33)23-11-8-12-26(18-23)39(4,34)35/h5-16,18,21,27-28,32H,17,19-20H2,1-4H3,(H,30,33)/t27-,28+/m0/s1
> <PUBCHEM_IUPAC_INCHIKEY>
XXOKRGKCNZHCRV-WUFINQPMSA-N
> <PUBCHEM_XLOGP3_AA>
4
> <PUBCHEM_EXACT_MASS>
588.19639384
> <PUBCHEM_MOLECULAR_FORMULA>
C29H36N2O7S2
> <PUBCHEM_MOLECULAR_WEIGHT>
588.7
> <PUBCHEM_OPENEYE_CAN_SMILES>
CC(C)CN(CC(C(CC1=CC=CC=C1)NC(=O)C2=CC(=CC=C2)S(=O)(=O)C)O)S(=O)(=O)C3=CC=C(C=C3)OC
> <PUBCHEM_OPENEYE_ISO_SMILES>
CC(C)CN(C[C@H]([C@H](CC1=CC=CC=C1)NC(=O)C2=CC(=CC=C2)S(=O)(=O)C)O)S(=O)(=O)C3=CC=C(C=C3)OC
> <PUBCHEM_CACTVS_TPSA>
147
> <PUBCHEM_MONOISOTOPIC_WEIGHT>
588.19639384
> <PUBCHEM_TOTAL_CHARGE>
0
> <PUBCHEM_HEAVY_ATOM_COUNT>
40
> <PUBCHEM_ATOM_DEF_STEREO_COUNT>
2
> <PUBCHEM_ATOM_UDEF_STEREO_COUNT>
0
> <PUBCHEM_BOND_DEF_STEREO_COUNT>
0
> <PUBCHEM_BOND_UDEF_STEREO_COUNT>
0
> <PUBCHEM_ISOTOPIC_ATOM_COUNT>
0
> <PUBCHEM_COMPONENT_COUNT>
1
> <PUBCHEM_CACTVS_TAUTO_COUNT>
-1
> <PUBCHEM_COORDINATE_TYPE>
1
5
255
> <PUBCHEM_BONDANNOTATIONS>
13  11  5
18  23  8
18  24  8
21  25  8
21  26  8
23  28  8
24  29  8
25  30  8
26  31  8
27  33  8
27  35  8
28  34  8
29  34  8
12  3  6
30  32  8
31  32  8
33  36  8
35  37  8
36  38  8
37  38  8
$$$$
