508370
  -OEChem-10302200282D
 65 70  0     1  0  0  0  0  0999 V2000
    8.5878   -1.5417    0.0000 O   0  0  0  0  0  0  0  0  0  0  0  0
   10.4851    0.0720    0.0000 O   0  0  0  0  0  0  0  0  0  0  0  0
   10.4851   -1.5374    0.0000 O   0  0  0  0  0  0  0  0  0  0  0  0
    8.2788    1.0274    0.0000 O   0  0  0  0  0  0  0  0  0  0  0  0
    5.0000   -2.4647    0.0000 O   0  0  0  0  0  0  0  0  0  0  0  0
    5.0000    0.9994    0.0000 O   0  0  0  0  0  0  0  0  0  0  0  0
    6.5000   -1.5987    0.0000 N   0  0  0  0  0  0  0  0  0  0  0  0
    5.0000   -0.7327    0.0000 N   0  0  0  0  0  0  0  0  0  0  0  0
    7.0000   -2.4647    0.0000 C   0  0  0  0  0  0  0  0  0  0  0  0
    7.0000   -0.7327    0.0000 C   0  0  2  0  0  0  0  0  0  0  0  0
    8.0000   -0.7327    0.0000 C   0  0  3  0  0  0  0  0  0  0  0  0
    7.0000   -3.4647    0.0000 C   0  0  0  0  0  0  0  0  0  0  0  0
    7.8660   -2.9647    0.0000 C   0  0  0  0  0  0  0  0  0  0  0  0
    8.5878    0.0763    0.0000 C   0  0  1  0  0  0  0  0  0  0  0  0
    9.5388   -0.2327    0.0000 C   0  0  3  0  0  0  0  0  0  0  0  0
    9.5388   -1.2327    0.0000 C   0  0  3  0  0  0  0  0  0  0  0  0
    6.5000    0.1333    0.0000 C   0  0  0  0  0  0  0  0  0  0  0  0
    5.5000   -1.5987    0.0000 C   0  0  0  0  0  0  0  0  0  0  0  0
   11.0687   -0.7327    0.0000 C   0  0  0  0  0  0  0  0  0  0  0  0
    5.5000    0.1333    0.0000 C   0  0  0  0  0  0  0  0  0  0  0  0
   11.8777   -1.3205    0.0000 C   0  0  0  0  0  0  0  0  0  0  0  0
   11.8777   -0.1449    0.0000 C   0  0  0  0  0  0  0  0  0  0  0  0
    4.0000   -0.7327    0.0000 C   0  0  0  0  0  0  0  0  0  0  0  0
    8.9479    1.7705    0.0000 C   0  0  0  0  0  0  0  0  0  0  0  0
    3.5000    0.1333    0.0000 C   0  0  0  0  0  0  0  0  0  0  0  0
    9.9260    1.5626    0.0000 C   0  0  0  0  0  0  0  0  0  0  0  0
    8.6389    2.7216    0.0000 C   0  0  0  0  0  0  0  0  0  0  0  0
    4.0000    0.9994    0.0000 C   0  0  0  0  0  0  0  0  0  0  0  0
    2.5000    0.1333    0.0000 C   0  0  0  0  0  0  0  0  0  0  0  0
   10.5952    2.3058    0.0000 C   0  0  0  0  0  0  0  0  0  0  0  0
    9.3080    3.4647    0.0000 C   0  0  0  0  0  0  0  0  0  0  0  0
   10.2862    3.2568    0.0000 C   0  0  0  0  0  0  0  0  0  0  0  0
    3.5000    1.8654    0.0000 C   0  0  0  0  0  0  0  0  0  0  0  0
    2.0000    0.9994    0.0000 C   0  0  0  0  0  0  0  0  0  0  0  0
    2.5000    1.8654    0.0000 C   0  0  0  0  0  0  0  0  0  0  0  0
    6.4011   -2.6252    0.0000 H   0  0  0  0  0  0  0  0  0  0  0  0
    7.4250    0.0034    0.0000 H   0  0  0  0  0  0  0  0  0  0  0  0
    7.7185   -1.2851    0.0000 H   0  0  0  0  0  0  0  0  0  0  0  0
    6.3894   -3.5724    0.0000 H   0  0  0  0  0  0  0  0  0  0  0  0
    7.2120   -4.0473    0.0000 H   0  0  0  0  0  0  0  0  0  0  0  0
    8.2646   -3.4397    0.0000 H   0  0  0  0  0  0  0  0  0  0  0  0
    8.2646   -2.4898    0.0000 H   0  0  0  0  0  0  0  0  0  0  0  0
    9.0262    0.5147    0.0000 H   0  0  0  0  0  0  0  0  0  0  0  0
    9.5396    0.3873    0.0000 H   0  0  0  0  0  0  0  0  0  0  0  0
    9.5396   -1.8527    0.0000 H   0  0  0  0  0  0  0  0  0  0  0  0
    7.0826    0.3454    0.0000 H   0  0  0  0  0  0  0  0  0  0  0  0
    6.3923    0.7439    0.0000 H   0  0  0  0  0  0  0  0  0  0  0  0
   11.5133   -1.8221    0.0000 H   0  0  0  0  0  0  0  0  0  0  0  0
   12.3793   -1.6849    0.0000 H   0  0  0  0  0  0  0  0  0  0  0  0
   12.2421   -0.8189    0.0000 H   0  0  0  0  0  0  0  0  0  0  0  0
   12.2421   -0.6465    0.0000 H   0  0  0  0  0  0  0  0  0  0  0  0
   12.3793    0.2195    0.0000 H   0  0  0  0  0  0  0  0  0  0  0  0
   11.5133    0.3567    0.0000 H   0  0  0  0  0  0  0  0  0  0  0  0
    3.4174   -0.9447    0.0000 H   0  0  0  0  0  0  0  0  0  0  0  0
    4.1077   -1.3433    0.0000 H   0  0  0  0  0  0  0  0  0  0  0  0
   10.1176    0.9730    0.0000 H   0  0  0  0  0  0  0  0  0  0  0  0
    8.0324    2.8505    0.0000 H   0  0  0  0  0  0  0  0  0  0  0  0
    4.6200    0.9994    0.0000 H   0  0  0  0  0  0  0  0  0  0  0  0
    2.1900   -0.4036    0.0000 H   0  0  0  0  0  0  0  0  0  0  0  0
   11.2016    2.1769    0.0000 H   0  0  0  0  0  0  0  0  0  0  0  0
    9.1164    4.0544    0.0000 H   0  0  0  0  0  0  0  0  0  0  0  0
   10.7010    3.7176    0.0000 H   0  0  0  0  0  0  0  0  0  0  0  0
    3.8100    2.4023    0.0000 H   0  0  0  0  0  0  0  0  0  0  0  0
    1.3800    0.9994    0.0000 H   0  0  0  0  0  0  0  0  0  0  0  0
    2.1900    2.4023    0.0000 H   0  0  0  0  0  0  0  0  0  0  0  0
  1 11  1  0  0  0  0
  1 16  1  0  0  0  0
  2 15  1  0  0  0  0
  2 19  1  0  0  0  0
  3 16  1  0  0  0  0
  3 19  1  0  0  0  0
 14  4  1  6  0  0  0
  4 24  1  0  0  0  0
  5 18  2  0  0  0  0
  6 20  2  0  0  0  0
  7  9  1  0  0  0  0
  7 10  1  0  0  0  0
  7 18  1  0  0  0  0
  8 18  1  0  0  0  0
  8 20  1  0  0  0  0
  8 23  1  0  0  0  0
  9 12  1  0  0  0  0
  9 13  1  0  0  0  0
  9 36  1  0  0  0  0
 10 11  1  0  0  0  0
 10 17  1  0  0  0  0
 10 37  1  6  0  0  0
 11 14  1  0  0  0  0
 11 38  1  0  0  0  0
 12 13  1  0  0  0  0
 12 39  1  0  0  0  0
 12 40  1  0  0  0  0
 13 41  1  0  0  0  0
 13 42  1  0  0  0  0
 14 15  1  0  0  0  0
 14 43  1  0  0  0  0
 15 16  1  0  0  0  0
 15 44  1  0  0  0  0
 16 45  1  0  0  0  0
 17 20  1  0  0  0  0
 17 46  1  0  0  0  0
 17 47  1  0  0  0  0
 19 21  1  0  0  0  0
 19 22  1  0  0  0  0
 21 48  1  0  0  0  0
 21 49  1  0  0  0  0
 21 50  1  0  0  0  0
 22 51  1  0  0  0  0
 22 52  1  0  0  0  0
 22 53  1  0  0  0  0
 23 25  1  0  0  0  0
 23 54  1  0  0  0  0
 23 55  1  0  0  0  0
 24 26  2  0  0  0  0
 24 27  1  0  0  0  0
 25 28  2  0  0  0  0
 25 29  1  0  0  0  0
 26 30  1  0  0  0  0
 26 56  1  0  0  0  0
 27 31  2  0  0  0  0
 27 57  1  0  0  0  0
 28 33  1  0  0  0  0
 28 58  1  0  0  0  0
 29 34  2  0  0  0  0
 29 59  1  0  0  0  0
 30 32  2  0  0  0  0
 30 60  1  0  0  0  0
 31 32  1  0  0  0  0
 31 61  1  0  0  0  0
 32 62  1  0  0  0  0
 33 35  2  0  0  0  0
 33 63  1  0  0  0  0
 34 35  1  0  0  0  0
 34 64  1  0  0  0  0
 35 65  1  0  0  0  0
M  END
> <PUBCHEM_COMPOUND_CID>
508370
> <PUBCHEM_COMPOUND_CANONICALIZED>
1
> <PUBCHEM_CACTVS_COMPLEXITY>
804
> <PUBCHEM_CACTVS_HBOND_ACCEPTOR>
6
> <PUBCHEM_CACTVS_HBOND_DONOR>
0
> <PUBCHEM_CACTVS_ROTATABLE_BOND>
6
> <PUBCHEM_CACTVS_SUBSKEYS>
AAADceB7OAAAAAAAAAAAAAAAGAAAASJAAAA8YIAAAAASAAABQAAAHgAAAAAADDzxmAczDoMABACIAiFSEACCCAAgIAAIiAEODIifJjqE8RunOCjvxzOeqAf63CPOAAAAAAAAAAAAAAAAAAAAAAAAAAAAAA==
> <PUBCHEM_IUPAC_OPENEYE_NAME>
(6S)-3-benzyl-1-cyclopropyl-6-[(6S)-2,2-dimethyl-6-phenoxy-3a,5,6,6a-tetrahydrofuro[2,3-d][1,3]dioxol-5-yl]hexahydropyrimidine-2,4-dione
> <PUBCHEM_IUPAC_CAS_NAME>
(6S)-1-cyclopropyl-6-[(6S)-2,2-dimethyl-6-phenoxy-3a,5,6,6a-tetrahydrofuro[2,3-d][1,3]dioxol-5-yl]-3-(phenylmethyl)-1,3-diazinane-2,4-dione
> <PUBCHEM_IUPAC_NAME_MARKUP>
(6<I>S</I>)-3-benzyl-1-cyclopropyl-6-[(6<I>S</I>)-2,2-dimethyl-6-phenoxy-3<I>a</I>,5,6,6<I>a</I>-tetrahydrofuro[2,3-d][1,3]dioxol-5-yl]-1,3-diazinane-2,4-dione
> <PUBCHEM_IUPAC_NAME>
(6S)-3-benzyl-1-cyclopropyl-6-[(6S)-2,2-dimethyl-6-phenoxy-3a,5,6,6a-tetrahydrofuro[2,3-d][1,3]dioxol-5-yl]-1,3-diazinane-2,4-dione
> <PUBCHEM_IUPAC_SYSTEMATIC_NAME>
(6S)-1-cyclopropyl-6-[(6S)-2,2-dimethyl-6-phenoxy-3a,5,6,6a-tetrahydrofuro[2,3-d][1,3]dioxol-5-yl]-3-(phenylmethyl)-1,3-diazinane-2,4-dione
> <PUBCHEM_IUPAC_TRADITIONAL_NAME>
(6S)-3-benzyl-1-cyclopropyl-6-[(6S)-2,2-dimethyl-6-phenoxy-3a,5,6,6a-tetrahydrofuro[2,3-d][1,3]dioxol-5-yl]-5,6-dihydrouracil
> <PUBCHEM_IUPAC_INCHI>
InChI=1S/C27H30N2O6/c1-27(2)34-24-23(32-19-11-7-4-8-12-19)22(33-25(24)35-27)20-15-21(30)28(16-17-9-5-3-6-10-17)26(31)29(20)18-13-14-18/h3-12,18,20,22-25H,13-16H2,1-2H3/t20-,22?,23-,24?,25?/m0/s1
> <PUBCHEM_IUPAC_INCHIKEY>
SCXVPRARQVHEIR-XSSHQBQMSA-N
> <PUBCHEM_XLOGP3_AA>
3.2
> <PUBCHEM_EXACT_MASS>
478.21038668
> <PUBCHEM_MOLECULAR_FORMULA>
C27H30N2O6
> <PUBCHEM_MOLECULAR_WEIGHT>
478.5
> <PUBCHEM_OPENEYE_CAN_SMILES>
CC1(OC2C(C(OC2O1)C3CC(=O)N(C(=O)N3C4CC4)CC5=CC=CC=C5)OC6=CC=CC=C6)C
> <PUBCHEM_OPENEYE_ISO_SMILES>
CC1(OC2[C@H](C(OC2O1)[C@@H]3CC(=O)N(C(=O)N3C4CC4)CC5=CC=CC=C5)OC6=CC=CC=C6)C
> <PUBCHEM_CACTVS_TPSA>
77.5
> <PUBCHEM_MONOISOTOPIC_WEIGHT>
478.21038668
> <PUBCHEM_TOTAL_CHARGE>
0
> <PUBCHEM_HEAVY_ATOM_COUNT>
35
> <PUBCHEM_ATOM_DEF_STEREO_COUNT>
2
> <PUBCHEM_ATOM_UDEF_STEREO_COUNT>
3
> <PUBCHEM_BOND_DEF_STEREO_COUNT>
0
> <PUBCHEM_BOND_UDEF_STEREO_COUNT>
0
> <PUBCHEM_ISOTOPIC_ATOM_COUNT>
0
> <PUBCHEM_COMPONENT_COUNT>
1
> <PUBCHEM_CACTVS_TAUTO_COUNT>
-1
> <PUBCHEM_COORDINATE_TYPE>
1
5
255
> <PUBCHEM_BONDANNOTATIONS>
11  1  3
10  37  6
15  2  3
24  26  8
24  27  8
25  28  8
25  29  8
26  30  8
27  31  8
28  33  8
29  34  8
16  3  3
30  32  8
31  32  8
33  35  8
34  35  8
14  4  6
$$$$
