508353
  -OEChem-10302200282D
 74 78  0     1  0  0  0  0  0999 V2000
    5.9538    0.1234    0.0000 O   0  0  0  0  0  0  0  0  0  0  0  0
    7.8511    1.7371    0.0000 O   0  0  0  0  0  0  0  0  0  0  0  0
    7.8511    0.1276    0.0000 O   0  0  0  0  0  0  0  0  0  0  0  0
    5.6448    2.6924    0.0000 O   0  0  0  0  0  0  0  0  0  0  0  0
    5.3660   -0.7997    0.0000 O   0  0  0  0  0  0  0  0  0  0  0  0
    3.0000    3.2984    0.0000 O   0  0  0  0  0  0  0  0  0  0  0  0
    2.1340    1.7984    0.0000 O   0  0  0  0  0  0  0  0  0  0  0  0
    3.8660    0.0664    0.0000 N   0  0  0  0  0  0  0  0  0  0  0  0
    3.8660   -1.6657    0.0000 N   0  0  0  0  0  0  0  0  0  0  0  0
    2.8660    0.0664    0.0000 C   0  0  0  0  0  0  0  0  0  0  0  0
    5.3660    0.9324    0.0000 C   0  0  3  0  0  0  0  0  0  0  0  0
    4.3660    0.9324    0.0000 C   0  0  2  0  0  0  0  0  0  0  0  0
    2.0000    0.5664    0.0000 C   0  0  0  0  0  0  0  0  0  0  0  0
    2.0000   -0.4336    0.0000 C   0  0  0  0  0  0  0  0  0  0  0  0
    5.9538    1.7414    0.0000 C   0  0  1  0  0  0  0  0  0  0  0  0
    6.9049    1.4324    0.0000 C   0  0  2  0  0  0  0  0  0  0  0  0
    6.9049    0.4324    0.0000 C   0  0  2  0  0  0  0  0  0  0  0  0
    3.8660    1.7984    0.0000 C   0  0  0  0  0  0  0  0  0  0  0  0
    8.4347    0.9324    0.0000 C   0  0  0  0  0  0  0  0  0  0  0  0
    4.3660   -0.7997    0.0000 C   0  0  0  0  0  0  0  0  0  0  0  0
    9.2437    0.3446    0.0000 C   0  0  0  0  0  0  0  0  0  0  0  0
    9.2437    1.5202    0.0000 C   0  0  0  0  0  0  0  0  0  0  0  0
    3.0000    2.2985    0.0000 C   0  0  0  0  0  0  0  0  0  0  0  0
    6.3139    3.4356    0.0000 C   0  0  0  0  0  0  0  0  0  0  0  0
    4.3660   -2.5317    0.0000 C   0  0  0  0  0  0  0  0  0  0  0  0
    6.0049    4.3867    0.0000 C   0  0  0  0  0  0  0  0  0  0  0  0
    7.2921    3.2277    0.0000 C   0  0  0  0  0  0  0  0  0  0  0  0
    3.8660   -3.3978    0.0000 C   0  0  0  0  0  0  0  0  0  0  0  0
    2.1340    3.7984    0.0000 C   0  0  0  0  0  0  0  0  0  0  0  0
    6.6740    5.1298    0.0000 C   0  0  0  0  0  0  0  0  0  0  0  0
    7.9612    3.9708    0.0000 C   0  0  0  0  0  0  0  0  0  0  0  0
    7.6522    4.9219    0.0000 C   0  0  0  0  0  0  0  0  0  0  0  0
    2.1340    4.7984    0.0000 C   0  0  0  0  0  0  0  0  0  0  0  0
    4.3660   -4.2638    0.0000 C   0  0  0  0  0  0  0  0  0  0  0  0
    2.8660   -3.3978    0.0000 C   0  0  0  0  0  0  0  0  0  0  0  0
    3.8660   -5.1298    0.0000 C   0  0  0  0  0  0  0  0  0  0  0  0
    2.3660   -4.2638    0.0000 C   0  0  0  0  0  0  0  0  0  0  0  0
    2.8660   -5.1298    0.0000 C   0  0  0  0  0  0  0  0  0  0  0  0
    3.0265   -0.5325    0.0000 H   0  0  0  0  0  0  0  0  0  0  0  0
    5.9860    0.9324    0.0000 H   0  0  0  0  0  0  0  0  0  0  0  0
    4.6760    0.3954    0.0000 H   0  0  0  0  0  0  0  0  0  0  0  0
    2.2120    1.1490    0.0000 H   0  0  0  0  0  0  0  0  0  0  0  0
    1.3894    0.6740    0.0000 H   0  0  0  0  0  0  0  0  0  0  0  0
    1.3894   -0.5413    0.0000 H   0  0  0  0  0  0  0  0  0  0  0  0
    2.2120   -1.0163    0.0000 H   0  0  0  0  0  0  0  0  0  0  0  0
    6.3922    2.1798    0.0000 H   0  0  0  0  0  0  0  0  0  0  0  0
    6.9060    2.2824    0.0000 H   0  0  0  0  0  0  0  0  0  0  0  0
    6.9060   -0.4176    0.0000 H   0  0  0  0  0  0  0  0  0  0  0  0
    4.4766    1.9060    0.0000 H   0  0  0  0  0  0  0  0  0  0  0  0
    3.4276    1.3600    0.0000 H   0  0  0  0  0  0  0  0  0  0  0  0
    8.8793   -0.1570    0.0000 H   0  0  0  0  0  0  0  0  0  0  0  0
    9.7453   -0.0198    0.0000 H   0  0  0  0  0  0  0  0  0  0  0  0
    9.6081    0.8462    0.0000 H   0  0  0  0  0  0  0  0  0  0  0  0
    9.6081    1.0186    0.0000 H   0  0  0  0  0  0  0  0  0  0  0  0
    9.7453    1.8846    0.0000 H   0  0  0  0  0  0  0  0  0  0  0  0
    8.8793    2.0218    0.0000 H   0  0  0  0  0  0  0  0  0  0  0  0
    3.2460   -1.6657    0.0000 H   0  0  0  0  0  0  0  0  0  0  0  0
    4.8410   -2.9302    0.0000 H   0  0  0  0  0  0  0  0  0  0  0  0
    4.8410   -2.1332    0.0000 H   0  0  0  0  0  0  0  0  0  0  0  0
    5.3985    4.5156    0.0000 H   0  0  0  0  0  0  0  0  0  0  0  0
    7.4837    2.6380    0.0000 H   0  0  0  0  0  0  0  0  0  0  0  0
    1.5234    3.9061    0.0000 H   0  0  0  0  0  0  0  0  0  0  0  0
    1.9219    3.2158    0.0000 H   0  0  0  0  0  0  0  0  0  0  0  0
    6.4824    5.7194    0.0000 H   0  0  0  0  0  0  0  0  0  0  0  0
    8.5676    3.8419    0.0000 H   0  0  0  0  0  0  0  0  0  0  0  0
    8.0670    5.3826    0.0000 H   0  0  0  0  0  0  0  0  0  0  0  0
    2.7540    4.7984    0.0000 H   0  0  0  0  0  0  0  0  0  0  0  0
    2.1340    5.4184    0.0000 H   0  0  0  0  0  0  0  0  0  0  0  0
    1.5140    4.7984    0.0000 H   0  0  0  0  0  0  0  0  0  0  0  0
    4.9860   -4.2638    0.0000 H   0  0  0  0  0  0  0  0  0  0  0  0
    2.5560   -2.8608    0.0000 H   0  0  0  0  0  0  0  0  0  0  0  0
    4.1760   -5.6667    0.0000 H   0  0  0  0  0  0  0  0  0  0  0  0
    1.7460   -4.2638    0.0000 H   0  0  0  0  0  0  0  0  0  0  0  0
    2.5560   -5.6667    0.0000 H   0  0  0  0  0  0  0  0  0  0  0  0
  1 11  1  0  0  0  0
  1 17  1  0  0  0  0
  2 16  1  0  0  0  0
  2 19  1  0  0  0  0
  3 17  1  0  0  0  0
  3 19  1  0  0  0  0
 15  4  1  6  0  0  0
  4 24  1  0  0  0  0
  5 20  2  0  0  0  0
  6 23  1  0  0  0  0
  6 29  1  0  0  0  0
  7 23  2  0  0  0  0
  8 10  1  0  0  0  0
 12  8  1  1  0  0  0
  8 20  1  0  0  0  0
  9 20  1  0  0  0  0
  9 25  1  0  0  0  0
  9 57  1  0  0  0  0
 10 13  1  0  0  0  0
 10 14  1  0  0  0  0
 10 39  1  0  0  0  0
 11 12  1  0  0  0  0
 11 15  1  0  0  0  0
 11 40  1  0  0  0  0
 12 18  1  0  0  0  0
 12 41  1  0  0  0  0
 13 14  1  0  0  0  0
 13 42  1  0  0  0  0
 13 43  1  0  0  0  0
 14 44  1  0  0  0  0
 14 45  1  0  0  0  0
 15 16  1  0  0  0  0
 15 46  1  0  0  0  0
 16 17  1  0  0  0  0
 16 47  1  6  0  0  0
 17 48  1  6  0  0  0
 18 23  1  0  0  0  0
 18 49  1  0  0  0  0
 18 50  1  0  0  0  0
 19 21  1  0  0  0  0
 19 22  1  0  0  0  0
 21 51  1  0  0  0  0
 21 52  1  0  0  0  0
 21 53  1  0  0  0  0
 22 54  1  0  0  0  0
 22 55  1  0  0  0  0
 22 56  1  0  0  0  0
 24 26  2  0  0  0  0
 24 27  1  0  0  0  0
 25 28  1  0  0  0  0
 25 58  1  0  0  0  0
 25 59  1  0  0  0  0
 26 30  1  0  0  0  0
 26 60  1  0  0  0  0
 27 31  2  0  0  0  0
 27 61  1  0  0  0  0
 28 34  2  0  0  0  0
 28 35  1  0  0  0  0
 29 33  1  0  0  0  0
 29 62  1  0  0  0  0
 29 63  1  0  0  0  0
 30 32  2  0  0  0  0
 30 64  1  0  0  0  0
 31 32  1  0  0  0  0
 31 65  1  0  0  0  0
 32 66  1  0  0  0  0
 33 67  1  0  0  0  0
 33 68  1  0  0  0  0
 33 69  1  0  0  0  0
 34 36  1  0  0  0  0
 34 70  1  0  0  0  0
 35 37  2  0  0  0  0
 35 71  1  0  0  0  0
 36 38  2  0  0  0  0
 36 72  1  0  0  0  0
 37 38  1  0  0  0  0
 37 73  1  0  0  0  0
 38 74  1  0  0  0  0
M  END
> <PUBCHEM_COMPOUND_CID>
508353
> <PUBCHEM_COMPOUND_CANONICALIZED>
1
> <PUBCHEM_CACTVS_COMPLEXITY>
807
> <PUBCHEM_CACTVS_HBOND_ACCEPTOR>
7
> <PUBCHEM_CACTVS_HBOND_DONOR>
1
> <PUBCHEM_CACTVS_ROTATABLE_BOND>
11
> <PUBCHEM_CACTVS_SUBSKEYS>
AAADcfB7OAAAAAAAAAAAAAAAGAAAASJAAAAwYAAAAAASAAABQAAAHgAQAAAADDzxmAczDoPABACIAiDSGACCCAAgIAAIiIEODIifJjqEsRunOCjvxhOeqAf6/C/OAAAAAAAAAAAAAAAAAAAAAAAAAAAAAA==
> <PUBCHEM_IUPAC_OPENEYE_NAME>
ethyl (3S)-3-[(3aR,6S,6aR)-2,2-dimethyl-6-phenoxy-3a,5,6,6a-tetrahydrofuro[2,3-d][1,3]dioxol-5-yl]-3-[benzylcarbamoyl(cyclopropyl)amino]propanoate
> <PUBCHEM_IUPAC_CAS_NAME>
(3S)-3-[(3aR,6S,6aR)-2,2-dimethyl-6-phenoxy-3a,5,6,6a-tetrahydrofuro[2,3-d][1,3]dioxol-5-yl]-3-[cyclopropyl-[oxo-[(phenylmethyl)amino]methyl]amino]propanoic acid ethyl ester
> <PUBCHEM_IUPAC_NAME_MARKUP>
ethyl (3<I>S</I>)-3-[(3<I>a</I><I>R</I>,6<I>S</I>,6<I>a</I><I>R</I>)-2,2-dimethyl-6-phenoxy-3<I>a</I>,5,6,6<I>a</I>-tetrahydrofuro[2,3-d][1,3]dioxol-5-yl]-3-[benzylcarbamoyl(cyclopropyl)amino]propanoate
> <PUBCHEM_IUPAC_NAME>
ethyl (3S)-3-[(3aR,6S,6aR)-2,2-dimethyl-6-phenoxy-3a,5,6,6a-tetrahydrofuro[2,3-d][1,3]dioxol-5-yl]-3-[benzylcarbamoyl(cyclopropyl)amino]propanoate
> <PUBCHEM_IUPAC_SYSTEMATIC_NAME>
ethyl (3S)-3-[(3aR,6S,6aR)-2,2-dimethyl-6-phenoxy-3a,5,6,6a-tetrahydrofuro[2,3-d][1,3]dioxol-5-yl]-3-[cyclopropyl-[(phenylmethyl)carbamoyl]amino]propanoate
> <PUBCHEM_IUPAC_TRADITIONAL_NAME>
(3S)-3-[(3aR,6S,6aR)-2,2-dimethyl-6-phenoxy-3a,5,6,6a-tetrahydrofuro[2,3-d][1,3]dioxol-5-yl]-3-[benzylcarbamoyl(cyclopropyl)amino]propionic acid ethyl ester
> <PUBCHEM_IUPAC_INCHI>
InChI=1S/C29H36N2O7/c1-4-34-23(32)17-22(31(20-15-16-20)28(33)30-18-19-11-7-5-8-12-19)24-25(35-21-13-9-6-10-14-21)26-27(36-24)38-29(2,3)37-26/h5-14,20,22,24-27H,4,15-18H2,1-3H3,(H,30,33)/t22-,24?,25-,26+,27+/m0/s1
> <PUBCHEM_IUPAC_INCHIKEY>
MPKMGBIBJJUAJW-LFSLWVPISA-N
> <PUBCHEM_XLOGP3_AA>
3.7
> <PUBCHEM_EXACT_MASS>
524.25225149
> <PUBCHEM_MOLECULAR_FORMULA>
C29H36N2O7
> <PUBCHEM_MOLECULAR_WEIGHT>
524.6
> <PUBCHEM_OPENEYE_CAN_SMILES>
CCOC(=O)CC(C1C(C2C(O1)OC(O2)(C)C)OC3=CC=CC=C3)N(C4CC4)C(=O)NCC5=CC=CC=C5
> <PUBCHEM_OPENEYE_ISO_SMILES>
CCOC(=O)C[C@@H](C1[C@@H]([C@@H]2[C@H](O1)OC(O2)(C)C)OC3=CC=CC=C3)N(C4CC4)C(=O)NCC5=CC=CC=C5
> <PUBCHEM_CACTVS_TPSA>
95.6
> <PUBCHEM_MONOISOTOPIC_WEIGHT>
524.25225149
> <PUBCHEM_TOTAL_CHARGE>
0
> <PUBCHEM_HEAVY_ATOM_COUNT>
38
> <PUBCHEM_ATOM_DEF_STEREO_COUNT>
4
> <PUBCHEM_ATOM_UDEF_STEREO_COUNT>
1
> <PUBCHEM_BOND_DEF_STEREO_COUNT>
0
> <PUBCHEM_BOND_UDEF_STEREO_COUNT>
0
> <PUBCHEM_ISOTOPIC_ATOM_COUNT>
0
> <PUBCHEM_COMPONENT_COUNT>
1
> <PUBCHEM_CACTVS_TAUTO_COUNT>
-1
> <PUBCHEM_COORDINATE_TYPE>
1
5
255
> <PUBCHEM_BONDANNOTATIONS>
11  1  3
16  47  6
17  48  6
24  26  8
24  27  8
26  30  8
27  31  8
28  34  8
28  35  8
30  32  8
31  32  8
34  36  8
35  37  8
36  38  8
37  38  8
15  4  6
12  8  5
$$$$
