508375
  -OEChem-10302200282D
 88 91  0     1  0  0  0  0  0999 V2000
    8.5991   -0.5950    0.0000 O   0  0  0  0  0  0  0  0  0  0  0  0
    9.4651   -2.0950    0.0000 O   0  0  0  0  0  0  0  0  0  0  0  0
   11.1972   -0.0950    0.0000 O   0  0  0  0  0  0  0  0  0  0  0  0
   12.9292   -0.0950    0.0000 O   0  0  0  0  0  0  0  0  0  0  0  0
    6.0010   -2.0950    0.0000 O   0  0  0  0  0  0  0  0  0  0  0  0
    7.7331   -3.0950    0.0000 O   0  0  0  0  0  0  0  0  0  0  0  0
   11.1972   -3.0950    0.0000 O   0  0  0  0  0  0  0  0  0  0  0  0
   12.0632    2.4050    0.0000 O   0  0  0  0  0  0  0  0  0  0  0  0
   12.9292   -2.0950    0.0000 O   0  0  0  0  0  0  0  0  0  0  0  0
    4.2690    0.9050    0.0000 O   0  0  0  0  0  0  0  0  0  0  0  0
    2.5369   -0.0950    0.0000 O   0  0  0  0  0  0  0  0  0  0  0  0
    6.8671    1.4050    0.0000 O   0  0  0  0  0  0  0  0  0  0  0  0
   14.6613    0.9050    0.0000 O   0  0  0  0  0  0  0  0  0  0  0  0
    2.5369   -2.0950    0.0000 O   0  0  0  0  0  0  0  0  0  0  0  0
    9.4651    0.9050    0.0000 O   0  0  0  0  0  0  0  0  0  0  0  0
   14.6613    2.9050    0.0000 O   0  0  0  0  0  0  0  0  0  0  0  0
   12.9292    3.9050    0.0000 O   0  0  0  0  0  0  0  0  0  0  0  0
   10.3312    1.4050    0.0000 O   0  0  0  0  0  0  0  0  0  0  0  0
    3.4030   -3.5950    0.0000 O   0  0  0  0  0  0  0  0  0  0  0  0
    6.0010   -0.0950    0.0000 N   0  0  0  0  0  0  0  0  0  0  0  0
    6.8671   -0.5950    0.0000 C   0  0  1  0  0  0  0  0  0  0  0  0
    6.8671   -1.5950    0.0000 C   0  0  2  0  0  0  0  0  0  0  0  0
    7.7331   -0.0950    0.0000 C   0  0  1  0  0  0  0  0  0  0  0  0
    7.7331   -2.0950    0.0000 C   0  0  2  0  0  0  0  0  0  0  0  0
   10.3312   -1.5950    0.0000 C   0  0  3  0  0  0  0  0  0  0  0  0
    8.5991   -1.5950    0.0000 C   0  0  2  0  0  0  0  0  0  0  0  0
   11.1972   -2.0950    0.0000 C   0  0  2  0  0  0  0  0  0  0  0  0
    5.1350   -0.5950    0.0000 C   0  0  2  0  0  0  0  0  0  0  0  0
   10.3312   -0.5950    0.0000 C   0  0  1  0  0  0  0  0  0  0  0  0
   12.0632   -1.5950    0.0000 C   0  0  2  0  0  0  0  0  0  0  0  0
   12.0632   -0.5950    0.0000 C   0  0  2  0  0  0  0  0  0  0  0  0
    4.2690   -0.0950    0.0000 C   0  0  1  0  0  0  0  0  0  0  0  0
   12.9292    0.9050    0.0000 C   0  0  1  0  0  0  0  0  0  0  0  0
    3.4030   -0.5950    0.0000 C   0  0  1  0  0  0  0  0  0  0  0  0
    7.7331    0.9050    0.0000 C   0  0  0  0  0  0  0  0  0  0  0  0
   13.7953    1.4050    0.0000 C   0  0  2  0  0  0  0  0  0  0  0  0
    5.1350   -1.5950    0.0000 C   0  0  0  0  0  0  0  0  0  0  0  0
   12.0632    1.4050    0.0000 C   0  0  1  0  0  0  0  0  0  0  0  0
    3.4030   -1.5950    0.0000 C   0  0  1  0  0  0  0  0  0  0  0  0
    9.4651   -0.0950    0.0000 C   0  0  0  0  0  0  0  0  0  0  0  0
    4.2690   -2.0950    0.0000 C   0  0  0  0  0  0  0  0  0  0  0  0
   13.7953    2.4050    0.0000 C   0  0  2  0  0  0  0  0  0  0  0  0
   12.9292    2.9050    0.0000 C   0  0  1  0  0  0  0  0  0  0  0  0
   11.1972    0.9050    0.0000 C   0  0  0  0  0  0  0  0  0  0  0  0
    4.2690   -3.0950    0.0000 C   0  0  0  0  0  0  0  0  0  0  0  0
    6.8671    0.0250    0.0000 H   0  0  0  0  0  0  0  0  0  0  0  0
    6.3301   -1.2850    0.0000 H   0  0  0  0  0  0  0  0  0  0  0  0
    8.2700    0.2150    0.0000 H   0  0  0  0  0  0  0  0  0  0  0  0
    7.1962   -2.4050    0.0000 H   0  0  0  0  0  0  0  0  0  0  0  0
    9.7942   -1.2850    0.0000 H   0  0  0  0  0  0  0  0  0  0  0  0
    8.5991   -2.2150    0.0000 H   0  0  0  0  0  0  0  0  0  0  0  0
   11.7341   -2.4050    0.0000 H   0  0  0  0  0  0  0  0  0  0  0  0
    5.6720   -0.9050    0.0000 H   0  0  0  0  0  0  0  0  0  0  0  0
   10.3312    0.0250    0.0000 H   0  0  0  0  0  0  0  0  0  0  0  0
    6.0010    0.5250    0.0000 H   0  0  0  0  0  0  0  0  0  0  0  0
   12.6002   -1.2850    0.0000 H   0  0  0  0  0  0  0  0  0  0  0  0
   12.0632    0.0250    0.0000 H   0  0  0  0  0  0  0  0  0  0  0  0
    4.8059    0.2150    0.0000 H   0  0  0  0  0  0  0  0  0  0  0  0
   12.3923    0.5950    0.0000 H   0  0  0  0  0  0  0  0  0  0  0  0
    3.4030    0.0250    0.0000 H   0  0  0  0  0  0  0  0  0  0  0  0
    8.3437    0.7973    0.0000 H   0  0  0  0  0  0  0  0  0  0  0  0
    7.9451    1.4876    0.0000 H   0  0  0  0  0  0  0  0  0  0  0  0
   13.7953    0.7850    0.0000 H   0  0  0  0  0  0  0  0  0  0  0  0
    5.6720   -1.9050    0.0000 H   0  0  0  0  0  0  0  0  0  0  0  0
   11.5263    1.7150    0.0000 H   0  0  0  0  0  0  0  0  0  0  0  0
    3.4030   -2.2150    0.0000 H   0  0  0  0  0  0  0  0  0  0  0  0
    8.8546    0.0127    0.0000 H   0  0  0  0  0  0  0  0  0  0  0  0
    9.2531   -0.6776    0.0000 H   0  0  0  0  0  0  0  0  0  0  0  0
   14.3322    2.0950    0.0000 H   0  0  0  0  0  0  0  0  0  0  0  0
    6.0010   -2.7150    0.0000 H   0  0  0  0  0  0  0  0  0  0  0  0
    8.2700   -3.4050    0.0000 H   0  0  0  0  0  0  0  0  0  0  0  0
   12.3923    3.2150    0.0000 H   0  0  0  0  0  0  0  0  0  0  0  0
   11.7341   -3.4050    0.0000 H   0  0  0  0  0  0  0  0  0  0  0  0
   13.4662   -1.7850    0.0000 H   0  0  0  0  0  0  0  0  0  0  0  0
   10.7987    0.4301    0.0000 H   0  0  0  0  0  0  0  0  0  0  0  0
   11.5957    0.4301    0.0000 H   0  0  0  0  0  0  0  0  0  0  0  0
    3.7320    1.2150    0.0000 H   0  0  0  0  0  0  0  0  0  0  0  0
    4.4810   -3.6776    0.0000 H   0  0  0  0  0  0  0  0  0  0  0  0
    4.8796   -2.9873    0.0000 H   0  0  0  0  0  0  0  0  0  0  0  0
    2.0000   -0.4050    0.0000 H   0  0  0  0  0  0  0  0  0  0  0  0
    6.8671    2.0250    0.0000 H   0  0  0  0  0  0  0  0  0  0  0  0
   15.1982    1.2150    0.0000 H   0  0  0  0  0  0  0  0  0  0  0  0
    2.0000   -1.7850    0.0000 H   0  0  0  0  0  0  0  0  0  0  0  0
    8.9282    1.2150    0.0000 H   0  0  0  0  0  0  0  0  0  0  0  0
   14.6613    3.5250    0.0000 H   0  0  0  0  0  0  0  0  0  0  0  0
   12.3923    4.2150    0.0000 H   0  0  0  0  0  0  0  0  0  0  0  0
   10.3312    2.0250    0.0000 H   0  0  0  0  0  0  0  0  0  0  0  0
    3.4030   -4.2150    0.0000 H   0  0  0  0  0  0  0  0  0  0  0  0
  1 23  1  0  0  0  0
  1 26  1  0  0  0  0
  2 25  1  0  0  0  0
 26  2  1  6  0  0  0
  3 29  1  0  0  0  0
  3 31  1  0  0  0  0
 31  4  1  6  0  0  0
 33  4  1  6  0  0  0
 22  5  1  6  0  0  0
  5 70  1  0  0  0  0
 24  6  1  6  0  0  0
  6 71  1  0  0  0  0
 27  7  1  6  0  0  0
  7 73  1  0  0  0  0
  8 38  1  0  0  0  0
  8 43  1  0  0  0  0
 30  9  1  6  0  0  0
  9 74  1  0  0  0  0
 32 10  1  1  0  0  0
 10 77  1  0  0  0  0
 34 11  1  1  0  0  0
 11 80  1  0  0  0  0
 12 35  1  0  0  0  0
 12 81  1  0  0  0  0
 36 13  1  6  0  0  0
 13 82  1  0  0  0  0
 39 14  1  1  0  0  0
 14 83  1  0  0  0  0
 15 40  1  0  0  0  0
 15 84  1  0  0  0  0
 42 16  1  6  0  0  0
 16 85  1  0  0  0  0
 43 17  1  1  0  0  0
 17 86  1  0  0  0  0
 18 44  1  0  0  0  0
 18 87  1  0  0  0  0
 19 45  1  0  0  0  0
 19 88  1  0  0  0  0
 21 20  1  6  0  0  0
 28 20  1  1  0  0  0
 20 55  1  0  0  0  0
 21 22  1  0  0  0  0
 21 23  1  0  0  0  0
 21 46  1  0  0  0  0
 22 24  1  0  0  0  0
 22 47  1  0  0  0  0
 23 35  1  1  0  0  0
 23 48  1  0  0  0  0
 24 26  1  0  0  0  0
 24 49  1  0  0  0  0
 25 27  1  0  0  0  0
 25 29  1  0  0  0  0
 25 50  1  0  0  0  0
 26 51  1  0  0  0  0
 27 30  1  0  0  0  0
 27 52  1  0  0  0  0
 28 32  1  0  0  0  0
 28 37  1  0  0  0  0
 28 53  1  0  0  0  0
 29 40  1  1  0  0  0
 29 54  1  0  0  0  0
 30 31  1  0  0  0  0
 30 56  1  0  0  0  0
 31 57  1  0  0  0  0
 32 34  1  0  0  0  0
 32 58  1  0  0  0  0
 33 36  1  0  0  0  0
 33 38  1  0  0  0  0
 33 59  1  0  0  0  0
 34 39  1  0  0  0  0
 34 60  1  0  0  0  0
 35 61  1  0  0  0  0
 35 62  1  0  0  0  0
 36 42  1  0  0  0  0
 36 63  1  0  0  0  0
 37 41  2  0  0  0  0
 37 64  1  0  0  0  0
 38 44  1  1  0  0  0
 38 65  1  0  0  0  0
 39 41  1  0  0  0  0
 39 66  1  0  0  0  0
 40 67  1  0  0  0  0
 40 68  1  0  0  0  0
 41 45  1  0  0  0  0
 42 43  1  0  0  0  0
 42 69  1  0  0  0  0
 43 72  1  0  0  0  0
 44 75  1  0  0  0  0
 44 76  1  0  0  0  0
 45 78  1  0  0  0  0
 45 79  1  0  0  0  0
M  END
> <PUBCHEM_COMPOUND_CID>
508375
> <PUBCHEM_COMPOUND_CANONICALIZED>
1
> <PUBCHEM_CACTVS_COMPLEXITY>
979
> <PUBCHEM_CACTVS_HBOND_ACCEPTOR>
20
> <PUBCHEM_CACTVS_HBOND_DONOR>
15
> <PUBCHEM_CACTVS_ROTATABLE_BOND>
10
> <PUBCHEM_CACTVS_SUBSKEYS>
AAADcfB6PgAAAAAAAAAAAAAAAAAAAAAAAAAkSJEAAAAAAAAAAAAAHgAQCAAADDzxgAcACALABgCAAiBCAACAAAAgAAAACIAIAAgTFAIAgQAnUAAH0ACfEAPw4CwAAAAAAAAAAAAAAAAAAAAAAAAAAAAAAA==
> <PUBCHEM_IUPAC_OPENEYE_NAME>
(2R,3R,4S,5S,6R)-5-[(2R,3R,4S,6R)-5-[(2R,3R,4R,5S,6S)-3,4-dihydroxy-6-(hydroxymethyl)-5-[[(1S,4R,5R,6S)-4,5,6-trihydroxy-3-(hydroxymethyl)cyclohex-2-en-1-yl]amino]tetrahydropyran-2-yl]oxy-3,4-dihydroxy-6-(hydroxymethyl)tetrahydropyran-2-yl]oxy-6-(hydroxymethyl)tetrahydropyran-2,3,4-triol
> <PUBCHEM_IUPAC_CAS_NAME>
(2R,3R,4S,5S,6R)-5-[[(2R,3R,4S,6R)-5-[[(2R,3R,4R,5S,6S)-3,4-dihydroxy-6-(hydroxymethyl)-5-[[(1S,4R,5R,6S)-4,5,6-trihydroxy-3-(hydroxymethyl)-1-cyclohex-2-enyl]amino]-2-oxanyl]oxy]-3,4-dihydroxy-6-(hydroxymethyl)-2-oxanyl]oxy]-6-(hydroxymethyl)oxane-2,3,4-triol
> <PUBCHEM_IUPAC_NAME_MARKUP>
(2<I>R</I>,3<I>R</I>,4<I>S</I>,5<I>S</I>,6<I>R</I>)-5-[(2<I>R</I>,3<I>R</I>,4<I>S</I>,6<I>R</I>)-5-[(2<I>R</I>,3<I>R</I>,4<I>R</I>,5<I>S</I>,6<I>S</I>)-3,4-dihydroxy-6-(hydroxymethyl)-5-[[(1<I>S</I>,4<I>R</I>,5<I>R</I>,6<I>S</I>)-4,5,6-trihydroxy-3-(hydroxymethyl)cyclohex-2-en-1-yl]amino]oxan-2-yl]oxy-3,4-dihydroxy-6-(hydroxymethyl)oxan-2-yl]oxy-6-(hydroxymethyl)oxane-2,3,4-triol
> <PUBCHEM_IUPAC_NAME>
(2R,3R,4S,5S,6R)-5-[(2R,3R,4S,6R)-5-[(2R,3R,4R,5S,6S)-3,4-dihydroxy-6-(hydroxymethyl)-5-[[(1S,4R,5R,6S)-4,5,6-trihydroxy-3-(hydroxymethyl)cyclohex-2-en-1-yl]amino]oxan-2-yl]oxy-3,4-dihydroxy-6-(hydroxymethyl)oxan-2-yl]oxy-6-(hydroxymethyl)oxane-2,3,4-triol
> <PUBCHEM_IUPAC_SYSTEMATIC_NAME>
(2R,3R,4S,5S,6R)-6-(hydroxymethyl)-5-[(2R,3R,4S,6R)-6-(hydroxymethyl)-5-[(2R,3R,4R,5S,6S)-6-(hydroxymethyl)-5-[[(1S,4R,5R,6S)-3-(hydroxymethyl)-4,5,6-tris(oxidanyl)cyclohex-2-en-1-yl]amino]-3,4-bis(oxidanyl)oxan-2-yl]oxy-3,4-bis(oxidanyl)oxan-2-yl]oxy-oxane-2,3,4-triol
> <PUBCHEM_IUPAC_TRADITIONAL_NAME>
(2R,3R,4S,5S,6R)-5-[(2R,3R,4S,6R)-5-[(2R,3R,4R,5S,6S)-3,4-dihydroxy-6-methylol-5-[[(1S,4R,5R,6S)-4,5,6-trihydroxy-3-methylol-cyclohex-2-en-1-yl]amino]tetrahydropyran-2-yl]oxy-3,4-dihydroxy-6-methylol-tetrahydropyran-2-yl]oxy-6-methylol-tetrahydropyran-2,3,4-triol
> <PUBCHEM_IUPAC_INCHI>
InChI=1S/C25H43NO19/c27-2-6-1-7(13(32)15(34)12(6)31)26-11-8(3-28)42-24(19(38)14(11)33)45-22-10(5-30)43-25(20(39)17(22)36)44-21-9(4-29)41-23(40)18(37)16(21)35/h1,7-40H,2-5H2/t7-,8+,9+,10+,11+,12+,13-,14+,15+,16-,17-,18+,19+,20+,21+,22?,23+,24+,25+/m0/s1
> <PUBCHEM_IUPAC_INCHIKEY>
ILBCZTCSQXPTTI-RZPXIRCYSA-N
> <PUBCHEM_XLOGP3_AA>
-9
> <PUBCHEM_EXACT_MASS>
661.24292814
> <PUBCHEM_MOLECULAR_FORMULA>
C25H43NO19
> <PUBCHEM_MOLECULAR_WEIGHT>
661.6
> <PUBCHEM_OPENEYE_CAN_SMILES>
C1=C(C(C(C(C1NC2C(OC(C(C2O)O)OC3C(OC(C(C3O)O)OC4C(OC(C(C4O)O)O)CO)CO)CO)O)O)O)CO
> <PUBCHEM_OPENEYE_ISO_SMILES>
C1=C([C@H]([C@H]([C@H]([C@H]1N[C@@H]2[C@H](O[C@@H]([C@@H]([C@@H]2O)O)OC3[C@H](O[C@@H]([C@@H]([C@@H]3O)O)O[C@@H]4[C@H](O[C@H]([C@@H]([C@@H]4O)O)O)CO)CO)CO)O)O)O)CO
> <PUBCHEM_CACTVS_TPSA>
341
> <PUBCHEM_MONOISOTOPIC_WEIGHT>
661.24292814
> <PUBCHEM_TOTAL_CHARGE>
0
> <PUBCHEM_HEAVY_ATOM_COUNT>
45
> <PUBCHEM_ATOM_DEF_STEREO_COUNT>
18
> <PUBCHEM_ATOM_UDEF_STEREO_COUNT>
1
> <PUBCHEM_BOND_DEF_STEREO_COUNT>
0
> <PUBCHEM_BOND_UDEF_STEREO_COUNT>
0
> <PUBCHEM_ISOTOPIC_ATOM_COUNT>
0
> <PUBCHEM_COMPONENT_COUNT>
1
> <PUBCHEM_CACTVS_TAUTO_COUNT>
-1
> <PUBCHEM_COORDINATE_TYPE>
1
5
255
> <PUBCHEM_BONDANNOTATIONS>
32  10  5
34  11  5
36  13  6
39  14  5
42  16  6
43  17  5
25  2  3
26  2  6
21  20  6
28  20  5
23  35  5
29  40  5
38  44  5
31  4  6
33  4  6
22  5  6
24  6  6
27  7  6
30  9  6
$$$$
