508352
  -OEChem-10302200282D
 71 75  0     1  0  0  0  0  0999 V2000
    5.8660   -5.1298    0.0000 Cl  0  0  0  0  0  0  0  0  0  0  0  0
    5.9538    0.1234    0.0000 O   0  0  0  0  0  0  0  0  0  0  0  0
    7.8511    1.7371    0.0000 O   0  0  0  0  0  0  0  0  0  0  0  0
    7.8511    0.1276    0.0000 O   0  0  0  0  0  0  0  0  0  0  0  0
    5.6448    2.6924    0.0000 O   0  0  0  0  0  0  0  0  0  0  0  0
    5.3660   -0.7997    0.0000 O   0  0  0  0  0  0  0  0  0  0  0  0
    3.0000    3.2984    0.0000 O   0  0  0  0  0  0  0  0  0  0  0  0
    2.1340    1.7984    0.0000 O   0  0  0  0  0  0  0  0  0  0  0  0
    3.8660    0.0664    0.0000 N   0  0  0  0  0  0  0  0  0  0  0  0
    3.8660   -1.6657    0.0000 N   0  0  0  0  0  0  0  0  0  0  0  0
    2.8660    0.0664    0.0000 C   0  0  0  0  0  0  0  0  0  0  0  0
    5.3660    0.9324    0.0000 C   0  0  3  0  0  0  0  0  0  0  0  0
    4.3660    0.9324    0.0000 C   0  0  2  0  0  0  0  0  0  0  0  0
    2.0000    0.5664    0.0000 C   0  0  0  0  0  0  0  0  0  0  0  0
    2.0000   -0.4336    0.0000 C   0  0  0  0  0  0  0  0  0  0  0  0
    5.9538    1.7414    0.0000 C   0  0  1  0  0  0  0  0  0  0  0  0
    6.9049    1.4324    0.0000 C   0  0  2  0  0  0  0  0  0  0  0  0
    6.9049    0.4324    0.0000 C   0  0  2  0  0  0  0  0  0  0  0  0
    3.8660    1.7984    0.0000 C   0  0  0  0  0  0  0  0  0  0  0  0
    8.4347    0.9324    0.0000 C   0  0  0  0  0  0  0  0  0  0  0  0
    4.3660   -0.7997    0.0000 C   0  0  0  0  0  0  0  0  0  0  0  0
    9.2437    0.3446    0.0000 C   0  0  0  0  0  0  0  0  0  0  0  0
    9.2437    1.5202    0.0000 C   0  0  0  0  0  0  0  0  0  0  0  0
    3.0000    2.2985    0.0000 C   0  0  0  0  0  0  0  0  0  0  0  0
    6.3139    3.4356    0.0000 C   0  0  0  0  0  0  0  0  0  0  0  0
    4.3660   -2.5317    0.0000 C   0  0  0  0  0  0  0  0  0  0  0  0
    6.0049    4.3867    0.0000 C   0  0  0  0  0  0  0  0  0  0  0  0
    7.2921    3.2277    0.0000 C   0  0  0  0  0  0  0  0  0  0  0  0
    2.1340    3.7984    0.0000 C   0  0  0  0  0  0  0  0  0  0  0  0
    6.6740    5.1298    0.0000 C   0  0  0  0  0  0  0  0  0  0  0  0
    7.9612    3.9708    0.0000 C   0  0  0  0  0  0  0  0  0  0  0  0
    3.8660   -3.3978    0.0000 C   0  0  0  0  0  0  0  0  0  0  0  0
    5.3660   -2.5317    0.0000 C   0  0  0  0  0  0  0  0  0  0  0  0
    7.6522    4.9219    0.0000 C   0  0  0  0  0  0  0  0  0  0  0  0
    2.1340    4.7984    0.0000 C   0  0  0  0  0  0  0  0  0  0  0  0
    4.3660   -4.2638    0.0000 C   0  0  0  0  0  0  0  0  0  0  0  0
    5.8660   -3.3978    0.0000 C   0  0  0  0  0  0  0  0  0  0  0  0
    5.3660   -4.2638    0.0000 C   0  0  0  0  0  0  0  0  0  0  0  0
    3.0265   -0.5325    0.0000 H   0  0  0  0  0  0  0  0  0  0  0  0
    5.9860    0.9324    0.0000 H   0  0  0  0  0  0  0  0  0  0  0  0
    4.6760    0.3954    0.0000 H   0  0  0  0  0  0  0  0  0  0  0  0
    2.2120    1.1490    0.0000 H   0  0  0  0  0  0  0  0  0  0  0  0
    1.3894    0.6740    0.0000 H   0  0  0  0  0  0  0  0  0  0  0  0
    1.3894   -0.5413    0.0000 H   0  0  0  0  0  0  0  0  0  0  0  0
    2.2120   -1.0163    0.0000 H   0  0  0  0  0  0  0  0  0  0  0  0
    6.3922    2.1798    0.0000 H   0  0  0  0  0  0  0  0  0  0  0  0
    6.9060    2.2824    0.0000 H   0  0  0  0  0  0  0  0  0  0  0  0
    6.9060   -0.4176    0.0000 H   0  0  0  0  0  0  0  0  0  0  0  0
    4.4766    1.9060    0.0000 H   0  0  0  0  0  0  0  0  0  0  0  0
    3.4276    1.3600    0.0000 H   0  0  0  0  0  0  0  0  0  0  0  0
    8.8793   -0.1570    0.0000 H   0  0  0  0  0  0  0  0  0  0  0  0
    9.7453   -0.0198    0.0000 H   0  0  0  0  0  0  0  0  0  0  0  0
    9.6081    0.8462    0.0000 H   0  0  0  0  0  0  0  0  0  0  0  0
    9.6081    1.0186    0.0000 H   0  0  0  0  0  0  0  0  0  0  0  0
    9.7453    1.8846    0.0000 H   0  0  0  0  0  0  0  0  0  0  0  0
    8.8793    2.0218    0.0000 H   0  0  0  0  0  0  0  0  0  0  0  0
    3.2460   -1.6657    0.0000 H   0  0  0  0  0  0  0  0  0  0  0  0
    5.3985    4.5156    0.0000 H   0  0  0  0  0  0  0  0  0  0  0  0
    7.4837    2.6380    0.0000 H   0  0  0  0  0  0  0  0  0  0  0  0
    1.5234    3.9061    0.0000 H   0  0  0  0  0  0  0  0  0  0  0  0
    1.9219    3.2158    0.0000 H   0  0  0  0  0  0  0  0  0  0  0  0
    6.4824    5.7194    0.0000 H   0  0  0  0  0  0  0  0  0  0  0  0
    8.5676    3.8419    0.0000 H   0  0  0  0  0  0  0  0  0  0  0  0
    3.2460   -3.3978    0.0000 H   0  0  0  0  0  0  0  0  0  0  0  0
    5.6760   -1.9948    0.0000 H   0  0  0  0  0  0  0  0  0  0  0  0
    8.0670    5.3826    0.0000 H   0  0  0  0  0  0  0  0  0  0  0  0
    2.7540    4.7984    0.0000 H   0  0  0  0  0  0  0  0  0  0  0  0
    2.1340    5.4184    0.0000 H   0  0  0  0  0  0  0  0  0  0  0  0
    1.5140    4.7984    0.0000 H   0  0  0  0  0  0  0  0  0  0  0  0
    4.0560   -4.8007    0.0000 H   0  0  0  0  0  0  0  0  0  0  0  0
    6.4860   -3.3978    0.0000 H   0  0  0  0  0  0  0  0  0  0  0  0
  1 38  1  0  0  0  0
  2 12  1  0  0  0  0
  2 18  1  0  0  0  0
  3 17  1  0  0  0  0
  3 20  1  0  0  0  0
  4 18  1  0  0  0  0
  4 20  1  0  0  0  0
 16  5  1  6  0  0  0
  5 25  1  0  0  0  0
  6 21  2  0  0  0  0
  7 24  1  0  0  0  0
  7 29  1  0  0  0  0
  8 24  2  0  0  0  0
  9 11  1  0  0  0  0
 13  9  1  1  0  0  0
  9 21  1  0  0  0  0
 10 21  1  0  0  0  0
 10 26  1  0  0  0  0
 10 57  1  0  0  0  0
 11 14  1  0  0  0  0
 11 15  1  0  0  0  0
 11 39  1  0  0  0  0
 12 13  1  0  0  0  0
 12 16  1  0  0  0  0
 12 40  1  0  0  0  0
 13 19  1  0  0  0  0
 13 41  1  0  0  0  0
 14 15  1  0  0  0  0
 14 42  1  0  0  0  0
 14 43  1  0  0  0  0
 15 44  1  0  0  0  0
 15 45  1  0  0  0  0
 16 17  1  0  0  0  0
 16 46  1  0  0  0  0
 17 18  1  0  0  0  0
 17 47  1  6  0  0  0
 18 48  1  6  0  0  0
 19 24  1  0  0  0  0
 19 49  1  0  0  0  0
 19 50  1  0  0  0  0
 20 22  1  0  0  0  0
 20 23  1  0  0  0  0
 22 51  1  0  0  0  0
 22 52  1  0  0  0  0
 22 53  1  0  0  0  0
 23 54  1  0  0  0  0
 23 55  1  0  0  0  0
 23 56  1  0  0  0  0
 25 27  2  0  0  0  0
 25 28  1  0  0  0  0
 26 32  2  0  0  0  0
 26 33  1  0  0  0  0
 27 30  1  0  0  0  0
 27 58  1  0  0  0  0
 28 31  2  0  0  0  0
 28 59  1  0  0  0  0
 29 35  1  0  0  0  0
 29 60  1  0  0  0  0
 29 61  1  0  0  0  0
 30 34  2  0  0  0  0
 30 62  1  0  0  0  0
 31 34  1  0  0  0  0
 31 63  1  0  0  0  0
 32 36  1  0  0  0  0
 32 64  1  0  0  0  0
 33 37  2  0  0  0  0
 33 65  1  0  0  0  0
 34 66  1  0  0  0  0
 35 67  1  0  0  0  0
 35 68  1  0  0  0  0
 35 69  1  0  0  0  0
 36 38  2  0  0  0  0
 36 70  1  0  0  0  0
 37 38  1  0  0  0  0
 37 71  1  0  0  0  0
M  END
> <PUBCHEM_COMPOUND_CID>
508352
> <PUBCHEM_COMPOUND_CANONICALIZED>
1
> <PUBCHEM_CACTVS_COMPLEXITY>
826
> <PUBCHEM_CACTVS_HBOND_ACCEPTOR>
7
> <PUBCHEM_CACTVS_HBOND_DONOR>
1
> <PUBCHEM_CACTVS_ROTATABLE_BOND>
10
> <PUBCHEM_CACTVS_SUBSKEYS>
AAADcfB7OAAEAAAAAAAAAAAAGAAAASJAAAAwYAAAAAASAAABQAAAHgIQAAAACD7xkCczzoPABACIACTSWACCCAAhJwAIiAEOboifJjrFs5unOCjv1hPe6Cf6/C/AAABAAAAAAAAAAIAAAAAAAAAAAAAAAA==
> <PUBCHEM_IUPAC_OPENEYE_NAME>
ethyl (3S)-3-[(3aR,6S,6aR)-2,2-dimethyl-6-phenoxy-3a,5,6,6a-tetrahydrofuro[2,3-d][1,3]dioxol-5-yl]-3-[(4-chlorophenyl)carbamoyl-cyclopropyl-amino]propanoate
> <PUBCHEM_IUPAC_CAS_NAME>
(3S)-3-[(3aR,6S,6aR)-2,2-dimethyl-6-phenoxy-3a,5,6,6a-tetrahydrofuro[2,3-d][1,3]dioxol-5-yl]-3-[[(4-chloroanilino)-oxomethyl]-cyclopropylamino]propanoic acid ethyl ester
> <PUBCHEM_IUPAC_NAME_MARKUP>
ethyl (3<I>S</I>)-3-[(3<I>a</I><I>R</I>,6<I>S</I>,6<I>a</I><I>R</I>)-2,2-dimethyl-6-phenoxy-3<I>a</I>,5,6,6<I>a</I>-tetrahydrofuro[2,3-d][1,3]dioxol-5-yl]-3-[(4-chlorophenyl)carbamoyl-cyclopropylamino]propanoate
> <PUBCHEM_IUPAC_NAME>
ethyl (3S)-3-[(3aR,6S,6aR)-2,2-dimethyl-6-phenoxy-3a,5,6,6a-tetrahydrofuro[2,3-d][1,3]dioxol-5-yl]-3-[(4-chlorophenyl)carbamoyl-cyclopropylamino]propanoate
> <PUBCHEM_IUPAC_SYSTEMATIC_NAME>
ethyl (3S)-3-[(3aR,6S,6aR)-2,2-dimethyl-6-phenoxy-3a,5,6,6a-tetrahydrofuro[2,3-d][1,3]dioxol-5-yl]-3-[(4-chlorophenyl)carbamoyl-cyclopropyl-amino]propanoate
> <PUBCHEM_IUPAC_TRADITIONAL_NAME>
(3S)-3-[(3aR,6S,6aR)-2,2-dimethyl-6-phenoxy-3a,5,6,6a-tetrahydrofuro[2,3-d][1,3]dioxol-5-yl]-3-[(4-chlorophenyl)carbamoyl-cyclopropyl-amino]propionic acid ethyl ester
> <PUBCHEM_IUPAC_INCHI>
InChI=1S/C28H33ClN2O7/c1-4-34-22(32)16-21(31(19-14-15-19)27(33)30-18-12-10-17(29)11-13-18)23-24(35-20-8-6-5-7-9-20)25-26(36-23)38-28(2,3)37-25/h5-13,19,21,23-26H,4,14-16H2,1-3H3,(H,30,33)/t21-,23?,24-,25+,26+/m0/s1
> <PUBCHEM_IUPAC_INCHIKEY>
YWQZBMCTVXGMMS-VARAPWLTSA-N
> <PUBCHEM_XLOGP3_AA>
4.4
> <PUBCHEM_EXACT_MASS>
544.1976291
> <PUBCHEM_MOLECULAR_FORMULA>
C28H33ClN2O7
> <PUBCHEM_MOLECULAR_WEIGHT>
545.0
> <PUBCHEM_OPENEYE_CAN_SMILES>
CCOC(=O)CC(C1C(C2C(O1)OC(O2)(C)C)OC3=CC=CC=C3)N(C4CC4)C(=O)NC5=CC=C(C=C5)Cl
> <PUBCHEM_OPENEYE_ISO_SMILES>
CCOC(=O)C[C@@H](C1[C@@H]([C@@H]2[C@H](O1)OC(O2)(C)C)OC3=CC=CC=C3)N(C4CC4)C(=O)NC5=CC=C(C=C5)Cl
> <PUBCHEM_CACTVS_TPSA>
95.6
> <PUBCHEM_MONOISOTOPIC_WEIGHT>
544.1976291
> <PUBCHEM_TOTAL_CHARGE>
0
> <PUBCHEM_HEAVY_ATOM_COUNT>
38
> <PUBCHEM_ATOM_DEF_STEREO_COUNT>
4
> <PUBCHEM_ATOM_UDEF_STEREO_COUNT>
1
> <PUBCHEM_BOND_DEF_STEREO_COUNT>
0
> <PUBCHEM_BOND_UDEF_STEREO_COUNT>
0
> <PUBCHEM_ISOTOPIC_ATOM_COUNT>
0
> <PUBCHEM_COMPONENT_COUNT>
1
> <PUBCHEM_CACTVS_TAUTO_COUNT>
-1
> <PUBCHEM_COORDINATE_TYPE>
1
5
255
> <PUBCHEM_BONDANNOTATIONS>
17  47  6
18  48  6
12  2  3
25  27  8
25  28  8
26  32  8
26  33  8
27  30  8
28  31  8
30  34  8
31  34  8
32  36  8
33  37  8
36  38  8
37  38  8
16  5  6
13  9  5
$$$$
