508368
  -OEChem-10302200282D
 67 72  0     1  0  0  0  0  0999 V2000
    9.5878   -1.5417    0.0000 O   0  0  0  0  0  0  0  0  0  0  0  0
   11.4851    0.0720    0.0000 O   0  0  0  0  0  0  0  0  0  0  0  0
   11.4851   -1.5374    0.0000 O   0  0  0  0  0  0  0  0  0  0  0  0
    9.2788    1.0274    0.0000 O   0  0  0  0  0  0  0  0  0  0  0  0
    6.0000   -2.4647    0.0000 O   0  0  0  0  0  0  0  0  0  0  0  0
    6.0000    0.9994    0.0000 O   0  0  0  0  0  0  0  0  0  0  0  0
    3.5000    1.8654    0.0000 O   0  0  0  0  0  0  0  0  0  0  0  0
    7.5000   -1.5987    0.0000 N   0  0  0  0  0  0  0  0  0  0  0  0
    6.0000   -0.7327    0.0000 N   0  0  0  0  0  0  0  0  0  0  0  0
    8.0000   -2.4647    0.0000 C   0  0  0  0  0  0  0  0  0  0  0  0
    8.0000   -0.7327    0.0000 C   0  0  2  0  0  0  0  0  0  0  0  0
    9.0000   -0.7327    0.0000 C   0  0  3  0  0  0  0  0  0  0  0  0
    8.0000   -3.4647    0.0000 C   0  0  0  0  0  0  0  0  0  0  0  0
    8.8660   -2.9647    0.0000 C   0  0  0  0  0  0  0  0  0  0  0  0
    9.5878    0.0763    0.0000 C   0  0  1  0  0  0  0  0  0  0  0  0
   10.5388   -0.2327    0.0000 C   0  0  3  0  0  0  0  0  0  0  0  0
   10.5388   -1.2327    0.0000 C   0  0  3  0  0  0  0  0  0  0  0  0
    7.5000    0.1333    0.0000 C   0  0  0  0  0  0  0  0  0  0  0  0
    6.5000   -1.5987    0.0000 C   0  0  0  0  0  0  0  0  0  0  0  0
   12.0687   -0.7327    0.0000 C   0  0  0  0  0  0  0  0  0  0  0  0
    6.5000    0.1333    0.0000 C   0  0  0  0  0  0  0  0  0  0  0  0
   12.8777   -1.3205    0.0000 C   0  0  0  0  0  0  0  0  0  0  0  0
   12.8777   -0.1449    0.0000 C   0  0  0  0  0  0  0  0  0  0  0  0
    5.0000   -0.7327    0.0000 C   0  0  0  0  0  0  0  0  0  0  0  0
    9.9479    1.7705    0.0000 C   0  0  0  0  0  0  0  0  0  0  0  0
    4.5000    0.1333    0.0000 C   0  0  0  0  0  0  0  0  0  0  0  0
    4.5000   -1.5987    0.0000 C   0  0  0  0  0  0  0  0  0  0  0  0
   10.9260    1.5626    0.0000 C   0  0  0  0  0  0  0  0  0  0  0  0
    9.6389    2.7216    0.0000 C   0  0  0  0  0  0  0  0  0  0  0  0
    3.5000    0.1333    0.0000 C   0  0  0  0  0  0  0  0  0  0  0  0
    3.5000   -1.5987    0.0000 C   0  0  0  0  0  0  0  0  0  0  0  0
   11.5952    2.3058    0.0000 C   0  0  0  0  0  0  0  0  0  0  0  0
   10.3080    3.4647    0.0000 C   0  0  0  0  0  0  0  0  0  0  0  0
    3.0000   -0.7327    0.0000 C   0  0  0  0  0  0  0  0  0  0  0  0
   11.2862    3.2568    0.0000 C   0  0  0  0  0  0  0  0  0  0  0  0
    3.0000    0.9994    0.0000 C   0  0  0  0  0  0  0  0  0  0  0  0
    2.0000    0.9994    0.0000 C   0  0  0  0  0  0  0  0  0  0  0  0
    8.4384   -2.0263    0.0000 H   0  0  0  0  0  0  0  0  0  0  0  0
    8.4250    0.0034    0.0000 H   0  0  0  0  0  0  0  0  0  0  0  0
    8.7185   -1.2851    0.0000 H   0  0  0  0  0  0  0  0  0  0  0  0
    7.3894   -3.5724    0.0000 H   0  0  0  0  0  0  0  0  0  0  0  0
    8.2120   -4.0473    0.0000 H   0  0  0  0  0  0  0  0  0  0  0  0
    9.2646   -3.4397    0.0000 H   0  0  0  0  0  0  0  0  0  0  0  0
    9.2646   -2.4898    0.0000 H   0  0  0  0  0  0  0  0  0  0  0  0
   10.0262    0.5147    0.0000 H   0  0  0  0  0  0  0  0  0  0  0  0
   10.5396    0.3873    0.0000 H   0  0  0  0  0  0  0  0  0  0  0  0
   10.5396   -1.8527    0.0000 H   0  0  0  0  0  0  0  0  0  0  0  0
    8.0826    0.3454    0.0000 H   0  0  0  0  0  0  0  0  0  0  0  0
    7.3923    0.7439    0.0000 H   0  0  0  0  0  0  0  0  0  0  0  0
   12.5133   -1.8221    0.0000 H   0  0  0  0  0  0  0  0  0  0  0  0
   13.3793   -1.6849    0.0000 H   0  0  0  0  0  0  0  0  0  0  0  0
   13.2421   -0.8189    0.0000 H   0  0  0  0  0  0  0  0  0  0  0  0
   13.2421   -0.6465    0.0000 H   0  0  0  0  0  0  0  0  0  0  0  0
   13.3793    0.2195    0.0000 H   0  0  0  0  0  0  0  0  0  0  0  0
   12.5133    0.3567    0.0000 H   0  0  0  0  0  0  0  0  0  0  0  0
    4.8100    0.6703    0.0000 H   0  0  0  0  0  0  0  0  0  0  0  0
    4.8100   -2.1356    0.0000 H   0  0  0  0  0  0  0  0  0  0  0  0
   11.1176    0.9730    0.0000 H   0  0  0  0  0  0  0  0  0  0  0  0
    9.0324    2.8505    0.0000 H   0  0  0  0  0  0  0  0  0  0  0  0
    3.1900   -2.1356    0.0000 H   0  0  0  0  0  0  0  0  0  0  0  0
   12.2016    2.1769    0.0000 H   0  0  0  0  0  0  0  0  0  0  0  0
   10.1164    4.0544    0.0000 H   0  0  0  0  0  0  0  0  0  0  0  0
    2.3800   -0.7327    0.0000 H   0  0  0  0  0  0  0  0  0  0  0  0
   11.7010    3.7176    0.0000 H   0  0  0  0  0  0  0  0  0  0  0  0
    2.0000    1.6194    0.0000 H   0  0  0  0  0  0  0  0  0  0  0  0
    1.3800    0.9994    0.0000 H   0  0  0  0  0  0  0  0  0  0  0  0
    2.0000    0.3794    0.0000 H   0  0  0  0  0  0  0  0  0  0  0  0
  1 12  1  0  0  0  0
  1 17  1  0  0  0  0
  2 16  1  0  0  0  0
  2 20  1  0  0  0  0
  3 17  1  0  0  0  0
  3 20  1  0  0  0  0
 15  4  1  6  0  0  0
  4 25  1  0  0  0  0
  5 19  2  0  0  0  0
  6 21  2  0  0  0  0
  7 36  2  0  0  0  0
  8 10  1  0  0  0  0
  8 11  1  0  0  0  0
  8 19  1  0  0  0  0
  9 19  1  0  0  0  0
  9 21  1  0  0  0  0
  9 24  1  0  0  0  0
 10 13  1  0  0  0  0
 10 14  1  0  0  0  0
 10 38  1  0  0  0  0
 11 12  1  0  0  0  0
 11 18  1  0  0  0  0
 11 39  1  6  0  0  0
 12 15  1  0  0  0  0
 12 40  1  0  0  0  0
 13 14  1  0  0  0  0
 13 41  1  0  0  0  0
 13 42  1  0  0  0  0
 14 43  1  0  0  0  0
 14 44  1  0  0  0  0
 15 16  1  0  0  0  0
 15 45  1  0  0  0  0
 16 17  1  0  0  0  0
 16 46  1  0  0  0  0
 17 47  1  0  0  0  0
 18 21  1  0  0  0  0
 18 48  1  0  0  0  0
 18 49  1  0  0  0  0
 20 22  1  0  0  0  0
 20 23  1  0  0  0  0
 22 50  1  0  0  0  0
 22 51  1  0  0  0  0
 22 52  1  0  0  0  0
 23 53  1  0  0  0  0
 23 54  1  0  0  0  0
 23 55  1  0  0  0  0
 24 26  1  0  0  0  0
 24 27  2  0  0  0  0
 25 28  2  0  0  0  0
 25 29  1  0  0  0  0
 26 30  2  0  0  0  0
 26 56  1  0  0  0  0
 27 31  1  0  0  0  0
 27 57  1  0  0  0  0
 28 32  1  0  0  0  0
 28 58  1  0  0  0  0
 29 33  2  0  0  0  0
 29 59  1  0  0  0  0
 30 34  1  0  0  0  0
 30 36  1  0  0  0  0
 31 34  2  0  0  0  0
 31 60  1  0  0  0  0
 32 35  2  0  0  0  0
 32 61  1  0  0  0  0
 33 35  1  0  0  0  0
 33 62  1  0  0  0  0
 34 63  1  0  0  0  0
 35 64  1  0  0  0  0
 36 37  1  0  0  0  0
 37 65  1  0  0  0  0
 37 66  1  0  0  0  0
 37 67  1  0  0  0  0
M  END
> <PUBCHEM_COMPOUND_CID>
508368
> <PUBCHEM_COMPOUND_CANONICALIZED>
1
> <PUBCHEM_CACTVS_COMPLEXITY>
914
> <PUBCHEM_CACTVS_HBOND_ACCEPTOR>
7
> <PUBCHEM_CACTVS_HBOND_DONOR>
0
> <PUBCHEM_CACTVS_ROTATABLE_BOND>
6
> <PUBCHEM_CACTVS_SUBSKEYS>
AAADceB7OAAAAAAAAAAAAAAAGAAAASJAAAA8YIAAAAASAAABQAAAHgAAAAAADDzxmAczzoMABACIAqVSUACCCAAlIgAIiAEObMifJjrE9ZunOSjvxzPe6af+3KPOAAAAQAAAAAAAAACAAAAAAAAAAAAAAA==
> <PUBCHEM_IUPAC_OPENEYE_NAME>
(6S)-3-(3-acetylphenyl)-1-cyclopropyl-6-[(6S)-2,2-dimethyl-6-phenoxy-3a,5,6,6a-tetrahydrofuro[2,3-d][1,3]dioxol-5-yl]hexahydropyrimidine-2,4-dione
> <PUBCHEM_IUPAC_CAS_NAME>
(6S)-3-(3-acetylphenyl)-1-cyclopropyl-6-[(6S)-2,2-dimethyl-6-phenoxy-3a,5,6,6a-tetrahydrofuro[2,3-d][1,3]dioxol-5-yl]-1,3-diazinane-2,4-dione
> <PUBCHEM_IUPAC_NAME_MARKUP>
(6<I>S</I>)-3-(3-acetylphenyl)-1-cyclopropyl-6-[(6<I>S</I>)-2,2-dimethyl-6-phenoxy-3<I>a</I>,5,6,6<I>a</I>-tetrahydrofuro[2,3-d][1,3]dioxol-5-yl]-1,3-diazinane-2,4-dione
> <PUBCHEM_IUPAC_NAME>
(6S)-3-(3-acetylphenyl)-1-cyclopropyl-6-[(6S)-2,2-dimethyl-6-phenoxy-3a,5,6,6a-tetrahydrofuro[2,3-d][1,3]dioxol-5-yl]-1,3-diazinane-2,4-dione
> <PUBCHEM_IUPAC_SYSTEMATIC_NAME>
(6S)-1-cyclopropyl-6-[(6S)-2,2-dimethyl-6-phenoxy-3a,5,6,6a-tetrahydrofuro[2,3-d][1,3]dioxol-5-yl]-3-(3-ethanoylphenyl)-1,3-diazinane-2,4-dione
> <PUBCHEM_IUPAC_TRADITIONAL_NAME>
(6S)-3-(3-acetylphenyl)-1-cyclopropyl-6-[(6S)-2,2-dimethyl-6-phenoxy-3a,5,6,6a-tetrahydrofuro[2,3-d][1,3]dioxol-5-yl]-5,6-dihydrouracil
> <PUBCHEM_IUPAC_INCHI>
InChI=1S/C28H30N2O7/c1-16(31)17-8-7-9-19(14-17)30-22(32)15-21(29(27(30)33)18-12-13-18)23-24(34-20-10-5-4-6-11-20)25-26(35-23)37-28(2,3)36-25/h4-11,14,18,21,23-26H,12-13,15H2,1-3H3/t21-,23?,24-,25?,26?/m0/s1
> <PUBCHEM_IUPAC_INCHIKEY>
ORAAVFPZBIQRAX-IJWZELOBSA-N
> <PUBCHEM_XLOGP3_AA>
2.9
> <PUBCHEM_EXACT_MASS>
506.20530130
> <PUBCHEM_MOLECULAR_FORMULA>
C28H30N2O7
> <PUBCHEM_MOLECULAR_WEIGHT>
506.5
> <PUBCHEM_OPENEYE_CAN_SMILES>
CC(=O)C1=CC(=CC=C1)N2C(=O)CC(N(C2=O)C3CC3)C4C(C5C(O4)OC(O5)(C)C)OC6=CC=CC=C6
> <PUBCHEM_OPENEYE_ISO_SMILES>
CC(=O)C1=CC(=CC=C1)N2C(=O)C[C@H](N(C2=O)C3CC3)C4[C@@H](C5C(O4)OC(O5)(C)C)OC6=CC=CC=C6
> <PUBCHEM_CACTVS_TPSA>
94.6
> <PUBCHEM_MONOISOTOPIC_WEIGHT>
506.20530130
> <PUBCHEM_TOTAL_CHARGE>
0
> <PUBCHEM_HEAVY_ATOM_COUNT>
37
> <PUBCHEM_ATOM_DEF_STEREO_COUNT>
2
> <PUBCHEM_ATOM_UDEF_STEREO_COUNT>
3
> <PUBCHEM_BOND_DEF_STEREO_COUNT>
0
> <PUBCHEM_BOND_UDEF_STEREO_COUNT>
0
> <PUBCHEM_ISOTOPIC_ATOM_COUNT>
0
> <PUBCHEM_COMPONENT_COUNT>
1
> <PUBCHEM_CACTVS_TAUTO_COUNT>
-1
> <PUBCHEM_COORDINATE_TYPE>
1
5
255
> <PUBCHEM_BONDANNOTATIONS>
12  1  3
11  39  6
16  2  3
24  26  8
24  27  8
25  28  8
25  29  8
26  30  8
27  31  8
28  32  8
29  33  8
17  3  3
30  34  8
31  34  8
32  35  8
33  35  8
15  4  6
$$$$
