508309
  -OEChem-10302200282D
 91 95  0     1  0  0  0  0  0999 V2000
    8.1301    2.7047    0.0000 S   0  0  0  0  0  0  0  0  0  0  0  0
   10.7282    1.2047    0.0000 O   0  0  0  0  0  0  0  0  0  0  0  0
    8.6301    3.5707    0.0000 O   0  0  0  0  0  0  0  0  0  0  0  0
    7.6301    1.8387    0.0000 O   0  0  0  0  0  0  0  0  0  0  0  0
    9.8622   -2.2953    0.0000 O   0  0  0  0  0  0  0  0  0  0  0  0
    6.3981   -3.2953    0.0000 O   0  0  0  0  0  0  0  0  0  0  0  0
    8.9962    2.2047    0.0000 N   0  0  3  0  0  0  0  0  0  0  0  0
    8.9962   -0.7953    0.0000 N   0  0  0  0  0  0  0  0  0  0  0  0
    7.2641   -1.7953    0.0000 N   0  0  0  0  0  0  0  0  0  0  0  0
    9.1007   -4.7898    0.0000 N   0  0  0  0  0  0  0  0  0  0  0  0
   10.5788   -4.1317    0.0000 N   0  0  0  0  0  0  0  0  0  0  0  0
    4.6660   -2.2953    0.0000 N   0  0  0  0  0  0  0  0  0  0  0  0
    9.8622    0.7047    0.0000 C   0  0  1  0  0  0  0  0  0  0  0  0
    9.8622   -0.2953    0.0000 C   0  0  2  0  0  0  0  0  0  0  0  0
    8.9962    1.2047    0.0000 C   0  0  0  0  0  0  0  0  0  0  0  0
    9.8622    2.7047    0.0000 C   0  0  0  0  0  0  0  0  0  0  0  0
   10.7282   -0.7953    0.0000 C   0  0  0  0  0  0  0  0  0  0  0  0
    9.8622    3.7047    0.0000 C   0  0  0  0  0  0  0  0  0  0  0  0
   10.7282    4.2047    0.0000 C   0  0  0  0  0  0  0  0  0  0  0  0
   11.5942   -0.2953    0.0000 C   0  0  0  0  0  0  0  0  0  0  0  0
    8.9962   -1.7953    0.0000 C   0  0  0  0  0  0  0  0  0  0  0  0
    8.1301   -2.2953    0.0000 C   0  0  2  0  0  0  0  0  0  0  0  0
    7.2641    3.2047    0.0000 C   0  0  0  0  0  0  0  0  0  0  0  0
   10.7282    5.2047    0.0000 C   0  0  0  0  0  0  0  0  0  0  0  0
   11.5942    3.7047    0.0000 C   0  0  0  0  0  0  0  0  0  0  0  0
    8.1301   -3.2953    0.0000 C   0  0  0  0  0  0  0  0  0  0  0  0
   11.5942    0.7047    0.0000 C   0  0  0  0  0  0  0  0  0  0  0  0
   12.4603   -0.7953    0.0000 C   0  0  0  0  0  0  0  0  0  0  0  0
    6.3981    2.7047    0.0000 C   0  0  0  0  0  0  0  0  0  0  0  0
    7.2641    4.2047    0.0000 C   0  0  0  0  0  0  0  0  0  0  0  0
    8.9962   -3.7953    0.0000 C   0  0  0  0  0  0  0  0  0  0  0  0
   12.4603    1.2047    0.0000 C   0  0  0  0  0  0  0  0  0  0  0  0
   13.3263   -0.2953    0.0000 C   0  0  0  0  0  0  0  0  0  0  0  0
    5.5321    3.2047    0.0000 C   0  0  0  0  0  0  0  0  0  0  0  0
    6.3981    4.7047    0.0000 C   0  0  0  0  0  0  0  0  0  0  0  0
   13.3263    0.7047    0.0000 C   0  0  0  0  0  0  0  0  0  0  0  0
    6.3981   -2.2953    0.0000 C   0  0  0  0  0  0  0  0  0  0  0  0
    5.5321    4.2047    0.0000 C   0  0  0  0  0  0  0  0  0  0  0  0
    9.9097   -3.3886    0.0000 C   0  0  0  0  0  0  0  0  0  0  0  0
    5.5321   -1.7953    0.0000 C   0  0  0  0  0  0  0  0  0  0  0  0
   10.0788   -4.9977    0.0000 C   0  0  0  0  0  0  0  0  0  0  0  0
    5.5321   -0.7953    0.0000 C   0  0  0  0  0  0  0  0  0  0  0  0
    3.8000   -1.7953    0.0000 C   0  0  0  0  0  0  0  0  0  0  0  0
    3.8000   -0.7953    0.0000 C   0  0  0  0  0  0  0  0  0  0  0  0
    4.6660   -0.2953    0.0000 C   0  0  0  0  0  0  0  0  0  0  0  0
    2.9061   -2.3300    0.0000 C   0  0  0  0  0  0  0  0  0  0  0  0
    2.9061   -0.2606    0.0000 C   0  0  0  0  0  0  0  0  0  0  0  0
    2.0000   -1.8161    0.0000 C   0  0  0  0  0  0  0  0  0  0  0  0
    2.0000   -0.7745    0.0000 C   0  0  0  0  0  0  0  0  0  0  0  0
    9.8622    1.3247    0.0000 H   0  0  0  0  0  0  0  0  0  0  0  0
    9.3252    0.0147    0.0000 H   0  0  0  0  0  0  0  0  0  0  0  0
    8.3856    1.3123    0.0000 H   0  0  0  0  0  0  0  0  0  0  0  0
    8.7841    0.6221    0.0000 H   0  0  0  0  0  0  0  0  0  0  0  0
   10.0742    2.1221    0.0000 H   0  0  0  0  0  0  0  0  0  0  0  0
   10.4728    2.8124    0.0000 H   0  0  0  0  0  0  0  0  0  0  0  0
   10.3297   -1.2703    0.0000 H   0  0  0  0  0  0  0  0  0  0  0  0
   11.1267   -1.2703    0.0000 H   0  0  0  0  0  0  0  0  0  0  0  0
    9.6501    4.2873    0.0000 H   0  0  0  0  0  0  0  0  0  0  0  0
    9.2516    3.5970    0.0000 H   0  0  0  0  0  0  0  0  0  0  0  0
   11.2651    4.5147    0.0000 H   0  0  0  0  0  0  0  0  0  0  0  0
    8.4592   -0.4853    0.0000 H   0  0  0  0  0  0  0  0  0  0  0  0
    7.5932   -2.6053    0.0000 H   0  0  0  0  0  0  0  0  0  0  0  0
   10.7282    1.8247    0.0000 H   0  0  0  0  0  0  0  0  0  0  0  0
   11.3482    5.2047    0.0000 H   0  0  0  0  0  0  0  0  0  0  0  0
   10.7282    5.8247    0.0000 H   0  0  0  0  0  0  0  0  0  0  0  0
   10.1082    5.2047    0.0000 H   0  0  0  0  0  0  0  0  0  0  0  0
   11.2842    3.1678    0.0000 H   0  0  0  0  0  0  0  0  0  0  0  0
   12.1312    3.3947    0.0000 H   0  0  0  0  0  0  0  0  0  0  0  0
   11.9042    4.2416    0.0000 H   0  0  0  0  0  0  0  0  0  0  0  0
    7.5196   -3.1876    0.0000 H   0  0  0  0  0  0  0  0  0  0  0  0
    7.9181   -3.8779    0.0000 H   0  0  0  0  0  0  0  0  0  0  0  0
   11.0573    1.0147    0.0000 H   0  0  0  0  0  0  0  0  0  0  0  0
   12.4603   -1.4153    0.0000 H   0  0  0  0  0  0  0  0  0  0  0  0
    6.3981    2.0847    0.0000 H   0  0  0  0  0  0  0  0  0  0  0  0
    7.8010    4.5147    0.0000 H   0  0  0  0  0  0  0  0  0  0  0  0
    7.2641   -1.1753    0.0000 H   0  0  0  0  0  0  0  0  0  0  0  0
   12.4603    1.8247    0.0000 H   0  0  0  0  0  0  0  0  0  0  0  0
   13.8632   -0.6053    0.0000 H   0  0  0  0  0  0  0  0  0  0  0  0
    4.9951    2.8947    0.0000 H   0  0  0  0  0  0  0  0  0  0  0  0
    6.3981    5.3247    0.0000 H   0  0  0  0  0  0  0  0  0  0  0  0
   13.8632    1.0147    0.0000 H   0  0  0  0  0  0  0  0  0  0  0  0
    4.9951    4.5147    0.0000 H   0  0  0  0  0  0  0  0  0  0  0  0
    8.6399   -5.2047    0.0000 H   0  0  0  0  0  0  0  0  0  0  0  0
   10.0386   -2.7821    0.0000 H   0  0  0  0  0  0  0  0  0  0  0  0
   10.3310   -5.5641    0.0000 H   0  0  0  0  0  0  0  0  0  0  0  0
    6.0690   -0.4853    0.0000 H   0  0  0  0  0  0  0  0  0  0  0  0
    4.6660    0.3247    0.0000 H   0  0  0  0  0  0  0  0  0  0  0  0
    2.9132   -2.9499    0.0000 H   0  0  0  0  0  0  0  0  0  0  0  0
    2.9132    0.3593    0.0000 H   0  0  0  0  0  0  0  0  0  0  0  0
    1.4643   -2.1282    0.0000 H   0  0  0  0  0  0  0  0  0  0  0  0
    1.4643   -0.4624    0.0000 H   0  0  0  0  0  0  0  0  0  0  0  0
  1  3  2  0  0  0  0
  1  4  2  0  0  0  0
  1  7  1  0  0  0  0
  1 23  1  0  0  0  0
 13  2  1  1  0  0  0
  2 63  1  0  0  0  0
  5 21  2  0  0  0  0
  6 37  2  0  0  0  0
  7 15  1  0  0  0  0
  7 16  1  0  0  0  0
 14  8  1  6  0  0  0
  8 21  1  0  0  0  0
  8 61  1  0  0  0  0
 22  9  1  6  0  0  0
  9 37  1  0  0  0  0
  9 76  1  0  0  0  0
 10 31  1  0  0  0  0
 10 41  1  0  0  0  0
 10 83  1  0  0  0  0
 11 39  1  0  0  0  0
 11 41  2  0  0  0  0
 12 40  2  0  0  0  0
 12 43  1  0  0  0  0
 13 14  1  0  0  0  0
 13 15  1  0  0  0  0
 13 50  1  0  0  0  0
 14 17  1  0  0  0  0
 14 51  1  0  0  0  0
 15 52  1  0  0  0  0
 15 53  1  0  0  0  0
 16 18  1  0  0  0  0
 16 54  1  0  0  0  0
 16 55  1  0  0  0  0
 17 20  1  0  0  0  0
 17 56  1  0  0  0  0
 17 57  1  0  0  0  0
 18 19  1  0  0  0  0
 18 58  1  0  0  0  0
 18 59  1  0  0  0  0
 19 24  1  0  0  0  0
 19 25  1  0  0  0  0
 19 60  1  0  0  0  0
 20 27  2  0  0  0  0
 20 28  1  0  0  0  0
 21 22  1  0  0  0  0
 22 26  1  0  0  0  0
 22 62  1  0  0  0  0
 23 29  2  0  0  0  0
 23 30  1  0  0  0  0
 24 64  1  0  0  0  0
 24 65  1  0  0  0  0
 24 66  1  0  0  0  0
 25 67  1  0  0  0  0
 25 68  1  0  0  0  0
 25 69  1  0  0  0  0
 26 31  1  0  0  0  0
 26 70  1  0  0  0  0
 26 71  1  0  0  0  0
 27 32  1  0  0  0  0
 27 72  1  0  0  0  0
 28 33  2  0  0  0  0
 28 73  1  0  0  0  0
 29 34  1  0  0  0  0
 29 74  1  0  0  0  0
 30 35  2  0  0  0  0
 30 75  1  0  0  0  0
 31 39  2  0  0  0  0
 32 36  2  0  0  0  0
 32 77  1  0  0  0  0
 33 36  1  0  0  0  0
 33 78  1  0  0  0  0
 34 38  2  0  0  0  0
 34 79  1  0  0  0  0
 35 38  1  0  0  0  0
 35 80  1  0  0  0  0
 36 81  1  0  0  0  0
 37 40  1  0  0  0  0
 38 82  1  0  0  0  0
 39 84  1  0  0  0  0
 40 42  1  0  0  0  0
 41 85  1  0  0  0  0
 42 45  2  0  0  0  0
 42 86  1  0  0  0  0
 43 44  1  0  0  0  0
 43 46  2  0  0  0  0
 44 45  1  0  0  0  0
 44 47  2  0  0  0  0
 45 87  1  0  0  0  0
 46 48  1  0  0  0  0
 46 88  1  0  0  0  0
 47 49  1  0  0  0  0
 47 89  1  0  0  0  0
 48 49  2  0  0  0  0
 48 90  1  0  0  0  0
 49 91  1  0  0  0  0
M  END
> <PUBCHEM_COMPOUND_CID>
508309
> <PUBCHEM_COMPOUND_CANONICALIZED>
1
> <PUBCHEM_CACTVS_COMPLEXITY>
1140
> <PUBCHEM_CACTVS_HBOND_ACCEPTOR>
8
> <PUBCHEM_CACTVS_HBOND_DONOR>
4
> <PUBCHEM_CACTVS_ROTATABLE_BOND>
16
> <PUBCHEM_CACTVS_SUBSKEYS>
AAADcfB/uABAAAAAAAAAAAAAAAAAAWAAAAA8YMEAAAAAAACx/AAAHgQQSAAADTzh3gY/0fbJkgKoAzV3dHDCgD23EqAJ2bm4dNiKePLA3bGUYQhslgLYyaecyaCOAAAAAAACAAAAAAAAAAQAAAAAAAAAAA==
> <PUBCHEM_IUPAC_OPENEYE_NAME>
N-[(1S)-2-[[(1S,2R)-3-[benzenesulfonyl(isopentyl)amino]-1-benzyl-2-hydroxy-propyl]amino]-1-(1H-imidazol-5-ylmethyl)-2-oxo-ethyl]quinoline-2-carboxamide
> <PUBCHEM_IUPAC_CAS_NAME>
N-[(2S)-1-[[(2S,3R)-4-[benzenesulfonyl(3-methylbutyl)amino]-3-hydroxy-1-phenylbutan-2-yl]amino]-3-(1H-imidazol-5-yl)-1-oxopropan-2-yl]-2-quinolinecarboxamide
> <PUBCHEM_IUPAC_NAME_MARKUP>
<I>N</I>-[(2<I>S</I>)-1-[[(2<I>S</I>,3<I>R</I>)-4-[benzenesulfonyl(3-methylbutyl)amino]-3-hydroxy-1-phenylbutan-2-yl]amino]-3-(1<I>H</I>-imidazol-5-yl)-1-oxopropan-2-yl]quinoline-2-carboxamide
> <PUBCHEM_IUPAC_NAME>
N-[(2S)-1-[[(2S,3R)-4-[benzenesulfonyl(3-methylbutyl)amino]-3-hydroxy-1-phenylbutan-2-yl]amino]-3-(1H-imidazol-5-yl)-1-oxopropan-2-yl]quinoline-2-carboxamide
> <PUBCHEM_IUPAC_SYSTEMATIC_NAME>
N-[(2S)-3-(1H-imidazol-5-yl)-1-[[(2S,3R)-4-[3-methylbutyl(phenylsulfonyl)amino]-3-oxidanyl-1-phenyl-butan-2-yl]amino]-1-oxidanylidene-propan-2-yl]quinoline-2-carboxamide
> <PUBCHEM_IUPAC_TRADITIONAL_NAME>
N-[(1S)-2-[[(1S,2R)-1-benzyl-3-[besyl(isoamyl)amino]-2-hydroxy-propyl]amino]-1-(1H-imidazol-5-ylmethyl)-2-keto-ethyl]quinaldamide
> <PUBCHEM_IUPAC_INCHI>
InChI=1S/C37H42N6O5S/c1-26(2)19-20-43(49(47,48)30-14-7-4-8-15-30)24-35(44)33(21-27-11-5-3-6-12-27)41-37(46)34(22-29-23-38-25-39-29)42-36(45)32-18-17-28-13-9-10-16-31(28)40-32/h3-18,23,25-26,33-35,44H,19-22,24H2,1-2H3,(H,38,39)(H,41,46)(H,42,45)/t33-,34-,35+/m0/s1
> <PUBCHEM_IUPAC_INCHIKEY>
LUNWGOAAZDELAC-PUPDPRJKSA-N
> <PUBCHEM_XLOGP3_AA>
5.2
> <PUBCHEM_EXACT_MASS>
682.29373964
> <PUBCHEM_MOLECULAR_FORMULA>
C37H42N6O5S
> <PUBCHEM_MOLECULAR_WEIGHT>
682.8
> <PUBCHEM_OPENEYE_CAN_SMILES>
CC(C)CCN(CC(C(CC1=CC=CC=C1)NC(=O)C(CC2=CN=CN2)NC(=O)C3=NC4=CC=CC=C4C=C3)O)S(=O)(=O)C5=CC=CC=C5
> <PUBCHEM_OPENEYE_ISO_SMILES>
CC(C)CCN(C[C@H]([C@H](CC1=CC=CC=C1)NC(=O)[C@H](CC2=CN=CN2)NC(=O)C3=NC4=CC=CC=C4C=C3)O)S(=O)(=O)C5=CC=CC=C5
> <PUBCHEM_CACTVS_TPSA>
166
> <PUBCHEM_MONOISOTOPIC_WEIGHT>
682.29373964
> <PUBCHEM_TOTAL_CHARGE>
0
> <PUBCHEM_HEAVY_ATOM_COUNT>
49
> <PUBCHEM_ATOM_DEF_STEREO_COUNT>
3
> <PUBCHEM_ATOM_UDEF_STEREO_COUNT>
0
> <PUBCHEM_BOND_DEF_STEREO_COUNT>
0
> <PUBCHEM_BOND_UDEF_STEREO_COUNT>
0
> <PUBCHEM_ISOTOPIC_ATOM_COUNT>
0
> <PUBCHEM_COMPONENT_COUNT>
1
> <PUBCHEM_CACTVS_TAUTO_COUNT>
-1
> <PUBCHEM_COORDINATE_TYPE>
1
5
255
> <PUBCHEM_BONDANNOTATIONS>
10  31  8
10  41  8
11  39  8
11  41  8
12  40  8
12  43  8
13  2  5
20  27  8
20  28  8
23  29  8
23  30  8
27  32  8
28  33  8
29  34  8
30  35  8
31  39  8
32  36  8
33  36  8
34  38  8
35  38  8
40  42  8
42  45  8
43  44  8
43  46  8
44  45  8
44  47  8
46  48  8
47  49  8
48  49  8
14  8  6
22  9  6
$$$$
