508336
  -OEChem-10302200282D
 68 71  0     1  0  0  0  0  0999 V2000
    8.9702   -1.1752    0.0000 P   0  0  3  0  0  0  0  0  0  0  0  0
    7.6811   -0.0184    0.0000 O   0  0  0  0  0  0  0  0  0  0  0  0
    9.9208   -0.8645    0.0000 O   0  0  0  0  0  0  0  0  0  0  0  0
    8.0197   -1.4858    0.0000 O   0  0  0  0  0  0  0  0  0  0  0  0
    8.2559   -4.5648    0.0000 O   0  0  0  0  0  0  0  0  0  0  0  0
    9.9022   -4.0267    0.0000 O   0  0  0  0  0  0  0  0  0  0  0  0
    4.2690    4.8936    0.0000 N   0  0  0  0  0  0  0  0  0  0  0  0
    3.4030    3.3936    0.0000 N   0  0  0  0  0  0  0  0  0  0  0  0
    6.0812    2.0888    0.0000 N   0  0  0  0  0  0  0  0  0  0  0  0
    6.0812    3.6983    0.0000 N   0  0  0  0  0  0  0  0  0  0  0  0
    4.2690    1.8936    0.0000 N   0  0  0  0  0  0  0  0  0  0  0  0
    9.2809   -2.1257    0.0000 N   0  0  0  0  0  0  0  0  0  0  0  0
    2.5369    1.8936    0.0000 N   0  0  0  0  0  0  0  0  0  0  0  0
    3.4030    5.3936    0.0000 C   0  0  0  0  0  0  0  0  0  0  0  0
    2.9030    6.2596    0.0000 C   0  0  0  0  0  0  0  0  0  0  0  0
    2.4030    5.3936    0.0000 C   0  0  0  0  0  0  0  0  0  0  0  0
    4.2690    3.8936    0.0000 C   0  0  0  0  0  0  0  0  0  0  0  0
    5.1350    3.3936    0.0000 C   0  0  0  0  0  0  0  0  0  0  0  0
    5.1350    2.3936    0.0000 C   0  0  0  0  0  0  0  0  0  0  0  0
    6.3919    1.1383    0.0000 C   0  0  0  0  0  0  0  0  0  0  0  0
    3.4030    2.3936    0.0000 C   0  0  0  0  0  0  0  0  0  0  0  0
    6.6648    2.8936    0.0000 C   0  0  0  0  0  0  0  0  0  0  0  0
    7.3704    0.9321    0.0000 C   0  0  0  0  0  0  0  0  0  0  0  0
    8.6596   -0.2246    0.0000 C   0  0  0  0  0  0  0  0  0  0  0  0
    8.6130   -2.8700    0.0000 C   0  0  3  0  0  0  0  0  0  0  0  0
    7.6345   -2.6638    0.0000 C   0  0  0  0  0  0  0  0  0  0  0  0
    8.9237   -3.8205    0.0000 C   0  0  0  0  0  0  0  0  0  0  0  0
   10.6651   -1.5323    0.0000 C   0  0  0  0  0  0  0  0  0  0  0  0
    8.5665   -5.5153    0.0000 C   0  0  0  0  0  0  0  0  0  0  0  0
    7.8987   -6.2596    0.0000 C   0  0  0  0  0  0  0  0  0  0  0  0
    9.5450   -5.7215    0.0000 C   0  0  0  0  0  0  0  0  0  0  0  0
   11.6156   -1.2217    0.0000 C   0  0  0  0  0  0  0  0  0  0  0  0
   10.4588   -2.5108    0.0000 C   0  0  0  0  0  0  0  0  0  0  0  0
   12.3599   -1.8895    0.0000 C   0  0  0  0  0  0  0  0  0  0  0  0
   11.2031   -3.1787    0.0000 C   0  0  0  0  0  0  0  0  0  0  0  0
   12.1537   -2.8680    0.0000 C   0  0  0  0  0  0  0  0  0  0  0  0
    3.2425    4.7947    0.0000 H   0  0  0  0  0  0  0  0  0  0  0  0
    3.3779    6.6581    0.0000 H   0  0  0  0  0  0  0  0  0  0  0  0
    2.4280    6.6581    0.0000 H   0  0  0  0  0  0  0  0  0  0  0  0
    1.8204    5.6056    0.0000 H   0  0  0  0  0  0  0  0  0  0  0  0
    2.2953    4.7830    0.0000 H   0  0  0  0  0  0  0  0  0  0  0  0
    4.8059    5.2036    0.0000 H   0  0  0  0  0  0  0  0  0  0  0  0
    5.7781    1.0510    0.0000 H   0  0  0  0  0  0  0  0  0  0  0  0
    6.3713    0.5187    0.0000 H   0  0  0  0  0  0  0  0  0  0  0  0
    7.2848    2.8936    0.0000 H   0  0  0  0  0  0  0  0  0  0  0  0
    7.9842    1.0195    0.0000 H   0  0  0  0  0  0  0  0  0  0  0  0
    7.3910    1.5518    0.0000 H   0  0  0  0  0  0  0  0  0  0  0  0
    9.2734   -0.1373    0.0000 H   0  0  0  0  0  0  0  0  0  0  0  0
    8.6801    0.3950    0.0000 H   0  0  0  0  0  0  0  0  0  0  0  0
    9.2197   -2.9978    0.0000 H   0  0  0  0  0  0  0  0  0  0  0  0
    9.8876   -2.2535    0.0000 H   0  0  0  0  0  0  0  0  0  0  0  0
    2.5369    1.2736    0.0000 H   0  0  0  0  0  0  0  0  0  0  0  0
    2.0000    2.2036    0.0000 H   0  0  0  0  0  0  0  0  0  0  0  0
    7.7624   -2.0571    0.0000 H   0  0  0  0  0  0  0  0  0  0  0  0
    7.0279   -2.5359    0.0000 H   0  0  0  0  0  0  0  0  0  0  0  0
    7.5067   -3.2704    0.0000 H   0  0  0  0  0  0  0  0  0  0  0  0
    8.9806   -5.0538    0.0000 H   0  0  0  0  0  0  0  0  0  0  0  0
    7.4372   -5.8456    0.0000 H   0  0  0  0  0  0  0  0  0  0  0  0
    7.4846   -6.7211    0.0000 H   0  0  0  0  0  0  0  0  0  0  0  0
    8.3602   -6.6737    0.0000 H   0  0  0  0  0  0  0  0  0  0  0  0
    9.4172   -6.3282    0.0000 H   0  0  0  0  0  0  0  0  0  0  0  0
   10.1517   -5.8494    0.0000 H   0  0  0  0  0  0  0  0  0  0  0  0
    9.6729   -5.1148    0.0000 H   0  0  0  0  0  0  0  0  0  0  0  0
   11.7434   -0.6150    0.0000 H   0  0  0  0  0  0  0  0  0  0  0  0
    9.8695   -2.7034    0.0000 H   0  0  0  0  0  0  0  0  0  0  0  0
   12.9492   -1.6969    0.0000 H   0  0  0  0  0  0  0  0  0  0  0  0
   11.0753   -3.7854    0.0000 H   0  0  0  0  0  0  0  0  0  0  0  0
   12.6151   -3.2821    0.0000 H   0  0  0  0  0  0  0  0  0  0  0  0
  1  3  1  0  0  0  0
  1  4  2  0  0  0  0
  1 12  1  0  0  0  0
  1 24  1  0  0  0  0
  2 23  1  0  0  0  0
  2 24  1  0  0  0  0
  3 28  1  0  0  0  0
  5 27  1  0  0  0  0
  5 29  1  0  0  0  0
  6 27  2  0  0  0  0
  7 14  1  0  0  0  0
  7 17  1  0  0  0  0
  7 42  1  0  0  0  0
  8 17  1  0  0  0  0
  8 21  2  0  0  0  0
  9 19  1  0  0  0  0
  9 20  1  0  0  0  0
  9 22  1  0  0  0  0
 10 18  1  0  0  0  0
 10 22  2  0  0  0  0
 11 19  2  0  0  0  0
 11 21  1  0  0  0  0
 12 25  1  0  0  0  0
 12 51  1  0  0  0  0
 13 21  1  0  0  0  0
 13 52  1  0  0  0  0
 13 53  1  0  0  0  0
 14 15  1  0  0  0  0
 14 16  1  0  0  0  0
 14 37  1  0  0  0  0
 15 16  1  0  0  0  0
 15 38  1  0  0  0  0
 15 39  1  0  0  0  0
 16 40  1  0  0  0  0
 16 41  1  0  0  0  0
 17 18  2  0  0  0  0
 18 19  1  0  0  0  0
 20 23  1  0  0  0  0
 20 43  1  0  0  0  0
 20 44  1  0  0  0  0
 22 45  1  0  0  0  0
 23 46  1  0  0  0  0
 23 47  1  0  0  0  0
 24 48  1  0  0  0  0
 24 49  1  0  0  0  0
 25 26  1  0  0  0  0
 25 27  1  0  0  0  0
 25 50  1  0  0  0  0
 26 54  1  0  0  0  0
 26 55  1  0  0  0  0
 26 56  1  0  0  0  0
 28 32  2  0  0  0  0
 28 33  1  0  0  0  0
 29 30  1  0  0  0  0
 29 31  1  0  0  0  0
 29 57  1  0  0  0  0
 30 58  1  0  0  0  0
 30 59  1  0  0  0  0
 30 60  1  0  0  0  0
 31 61  1  0  0  0  0
 31 62  1  0  0  0  0
 31 63  1  0  0  0  0
 32 34  1  0  0  0  0
 32 64  1  0  0  0  0
 33 35  2  0  0  0  0
 33 65  1  0  0  0  0
 34 36  2  0  0  0  0
 34 66  1  0  0  0  0
 35 36  1  0  0  0  0
 35 67  1  0  0  0  0
 36 68  1  0  0  0  0
M  END
> <PUBCHEM_COMPOUND_CID>
508336
> <PUBCHEM_COMPOUND_CANONICALIZED>
1
> <PUBCHEM_CACTVS_COMPLEXITY>
767
> <PUBCHEM_CACTVS_HBOND_ACCEPTOR>
11
> <PUBCHEM_CACTVS_HBOND_DONOR>
3
> <PUBCHEM_CACTVS_ROTATABLE_BOND>
14
> <PUBCHEM_CACTVS_SUBSKEYS>
AAADcfB7uAIAAAAAAAAAAAAAGAAAAWAAAAA8QAAAAAAAAFgB/AAAHggQgCAACDzhlwY3/r/MFRCoQSbzbICCgC0xMKAJ2KGuXJiKbiLAWVKXNAgs0BPYiCeAQAAAAAAAAAAAAAAAAAAAAAAAAAAAAAAAAA==
> <PUBCHEM_IUPAC_OPENEYE_NAME>
isopropyl 2-[[2-[2-amino-6-(cyclopropylamino)purin-9-yl]ethoxymethyl-phenoxy-phosphoryl]amino]propanoate
> <PUBCHEM_IUPAC_CAS_NAME>
2-[[2-[2-amino-6-(cyclopropylamino)-9-purinyl]ethoxymethyl-phenoxyphosphoryl]amino]propanoic acid propan-2-yl ester
> <PUBCHEM_IUPAC_NAME_MARKUP>
propan-2-yl 2-[[2-[2-amino-6-(cyclopropylamino)purin-9-yl]ethoxymethyl-phenoxyphosphoryl]amino]propanoate
> <PUBCHEM_IUPAC_NAME>
propan-2-yl 2-[[2-[2-amino-6-(cyclopropylamino)purin-9-yl]ethoxymethyl-phenoxyphosphoryl]amino]propanoate
> <PUBCHEM_IUPAC_SYSTEMATIC_NAME>
propan-2-yl 2-[[2-[2-azanyl-6-(cyclopropylamino)purin-9-yl]ethoxymethyl-phenoxy-phosphoryl]amino]propanoate
> <PUBCHEM_IUPAC_TRADITIONAL_NAME>
2-[[2-[2-amino-6-(cyclopropylamino)purin-9-yl]ethoxymethyl-phenoxy-phosphoryl]amino]propionic acid isopropyl ester
> <PUBCHEM_IUPAC_INCHI>
InChI=1S/C23H32N7O5P/c1-15(2)34-22(31)16(3)29-36(32,35-18-7-5-4-6-8-18)14-33-12-11-30-13-25-19-20(26-17-9-10-17)27-23(24)28-21(19)30/h4-8,13,15-17H,9-12,14H2,1-3H3,(H,29,32)(H3,24,26,27,28)
> <PUBCHEM_IUPAC_INCHIKEY>
FXYFKOUCXOUPBQ-UHFFFAOYSA-N
> <PUBCHEM_XLOGP3_AA>
2.4
> <PUBCHEM_EXACT_MASS>
517.22025414
> <PUBCHEM_MOLECULAR_FORMULA>
C23H32N7O5P
> <PUBCHEM_MOLECULAR_WEIGHT>
517.5
> <PUBCHEM_OPENEYE_CAN_SMILES>
CC(C)OC(=O)C(C)NP(=O)(COCCN1C=NC2=C(N=C(N=C21)N)NC3CC3)OC4=CC=CC=C4
> <PUBCHEM_OPENEYE_ISO_SMILES>
CC(C)OC(=O)C(C)NP(=O)(COCCN1C=NC2=C(N=C(N=C21)N)NC3CC3)OC4=CC=CC=C4
> <PUBCHEM_CACTVS_TPSA>
156
> <PUBCHEM_MONOISOTOPIC_WEIGHT>
517.22025414
> <PUBCHEM_TOTAL_CHARGE>
0
> <PUBCHEM_HEAVY_ATOM_COUNT>
36
> <PUBCHEM_ATOM_DEF_STEREO_COUNT>
0
> <PUBCHEM_ATOM_UDEF_STEREO_COUNT>
2
> <PUBCHEM_BOND_DEF_STEREO_COUNT>
0
> <PUBCHEM_BOND_UDEF_STEREO_COUNT>
0
> <PUBCHEM_ISOTOPIC_ATOM_COUNT>
0
> <PUBCHEM_COMPONENT_COUNT>
1
> <PUBCHEM_CACTVS_TAUTO_COUNT>
-1
> <PUBCHEM_COORDINATE_TYPE>
1
5
255
> <PUBCHEM_BONDANNOTATIONS>
1  24  3
10  18  8
10  22  8
11  19  8
11  21  8
17  18  8
18  19  8
25  26  3
28  32  8
28  33  8
32  34  8
33  35  8
34  36  8
35  36  8
8  17  8
8  21  8
9  19  8
9  22  8
$$$$
