508334
  -OEChem-10302200282D
 74 75  0     1  0  0  0  0  0999 V2000
    7.5673   -0.8759    0.0000 P   0  0  0  0  0  0  0  0  0  0  0  0
    6.2781    0.2809    0.0000 O   0  0  0  0  0  0  0  0  0  0  0  0
    6.6168   -1.1866    0.0000 O   0  0  0  0  0  0  0  0  0  0  0  0
   10.1456   -3.1894    0.0000 O   0  0  0  0  0  0  0  0  0  0  0  0
    9.8808    1.7024    0.0000 O   0  0  0  0  0  0  0  0  0  0  0  0
    8.4993   -3.7274    0.0000 O   0  0  0  0  0  0  0  0  0  0  0  0
   10.4188    0.0561    0.0000 O   0  0  0  0  0  0  0  0  0  0  0  0
    7.8779   -1.8264    0.0000 N   0  0  0  0  0  0  0  0  0  0  0  0
    8.5178   -0.5652    0.0000 N   0  0  0  0  0  0  0  0  0  0  0  0
    4.6783    2.3881    0.0000 N   0  0  0  0  0  0  0  0  0  0  0  0
    4.6783    3.9976    0.0000 N   0  0  0  0  0  0  0  0  0  0  0  0
    2.8660    2.1928    0.0000 N   0  0  0  0  0  0  0  0  0  0  0  0
    2.0000    3.6928    0.0000 N   0  0  0  0  0  0  0  0  0  0  0  0
    2.8660    5.1928    0.0000 N   0  0  0  0  0  0  0  0  0  0  0  0
    7.2566    0.0746    0.0000 C   0  0  0  0  0  0  0  0  0  0  0  0
    8.8564   -2.0326    0.0000 C   0  0  3  0  0  0  0  0  0  0  0  0
    8.7240    0.4133    0.0000 C   0  0  3  0  0  0  0  0  0  0  0  0
    5.9674    1.2314    0.0000 C   0  0  0  0  0  0  0  0  0  0  0  0
    9.5243   -1.2883    0.0000 C   0  0  0  0  0  0  0  0  0  0  0  0
    7.9797    1.0811    0.0000 C   0  0  0  0  0  0  0  0  0  0  0  0
    4.9889    1.4376    0.0000 C   0  0  0  0  0  0  0  0  0  0  0  0
    9.1671   -2.9832    0.0000 C   0  0  0  0  0  0  0  0  0  0  0  0
    9.6745    0.7239    0.0000 C   0  0  0  0  0  0  0  0  0  0  0  0
   10.4563   -4.1399    0.0000 C   0  0  0  0  0  0  0  0  0  0  0  0
   10.8313    2.0131    0.0000 C   0  0  0  0  0  0  0  0  0  0  0  0
    3.7320    2.6928    0.0000 C   0  0  0  0  0  0  0  0  0  0  0  0
   11.4348   -4.3461    0.0000 C   0  0  0  0  0  0  0  0  0  0  0  0
   11.0375    2.9916    0.0000 C   0  0  0  0  0  0  0  0  0  0  0  0
    5.2619    3.1928    0.0000 C   0  0  0  0  0  0  0  0  0  0  0  0
    3.7320    3.6928    0.0000 C   0  0  0  0  0  0  0  0  0  0  0  0
   11.7454   -5.2966    0.0000 C   0  0  0  0  0  0  0  0  0  0  0  0
   11.9880    3.3023    0.0000 C   0  0  0  0  0  0  0  0  0  0  0  0
    2.8660    4.1928    0.0000 C   0  0  0  0  0  0  0  0  0  0  0  0
   12.7239   -5.5028    0.0000 C   0  0  0  0  0  0  0  0  0  0  0  0
   12.1942    4.2808    0.0000 C   0  0  0  0  0  0  0  0  0  0  0  0
    2.0000    2.6928    0.0000 C   0  0  0  0  0  0  0  0  0  0  0  0
    7.8704    0.1620    0.0000 H   0  0  0  0  0  0  0  0  0  0  0  0
    7.2772    0.6943    0.0000 H   0  0  0  0  0  0  0  0  0  0  0  0
    7.4639   -2.2879    0.0000 H   0  0  0  0  0  0  0  0  0  0  0  0
    8.9793   -0.9793    0.0000 H   0  0  0  0  0  0  0  0  0  0  0  0
    8.4424   -2.4941    0.0000 H   0  0  0  0  0  0  0  0  0  0  0  0
    9.1855   -0.0008    0.0000 H   0  0  0  0  0  0  0  0  0  0  0  0
    6.5812    1.3187    0.0000 H   0  0  0  0  0  0  0  0  0  0  0  0
    5.9880    1.8510    0.0000 H   0  0  0  0  0  0  0  0  0  0  0  0
    9.9858   -1.7024    0.0000 H   0  0  0  0  0  0  0  0  0  0  0  0
    9.9383   -0.8269    0.0000 H   0  0  0  0  0  0  0  0  0  0  0  0
    9.0628   -0.8743    0.0000 H   0  0  0  0  0  0  0  0  0  0  0  0
    8.3938    1.5426    0.0000 H   0  0  0  0  0  0  0  0  0  0  0  0
    7.5182    1.4952    0.0000 H   0  0  0  0  0  0  0  0  0  0  0  0
    7.5656    0.6197    0.0000 H   0  0  0  0  0  0  0  0  0  0  0  0
    4.3751    1.3502    0.0000 H   0  0  0  0  0  0  0  0  0  0  0  0
    4.9684    0.8179    0.0000 H   0  0  0  0  0  0  0  0  0  0  0  0
    9.8424   -4.2272    0.0000 H   0  0  0  0  0  0  0  0  0  0  0  0
   10.4357   -4.7595    0.0000 H   0  0  0  0  0  0  0  0  0  0  0  0
   10.9186    1.3993    0.0000 H   0  0  0  0  0  0  0  0  0  0  0  0
   11.4509    1.9926    0.0000 H   0  0  0  0  0  0  0  0  0  0  0  0
   12.0486   -4.2588    0.0000 H   0  0  0  0  0  0  0  0  0  0  0  0
   11.4553   -3.7264    0.0000 H   0  0  0  0  0  0  0  0  0  0  0  0
   10.9501    3.6054    0.0000 H   0  0  0  0  0  0  0  0  0  0  0  0
   10.4178    3.0122    0.0000 H   0  0  0  0  0  0  0  0  0  0  0  0
    5.8819    3.1928    0.0000 H   0  0  0  0  0  0  0  0  0  0  0  0
   11.1316   -5.3840    0.0000 H   0  0  0  0  0  0  0  0  0  0  0  0
   11.7249   -5.9163    0.0000 H   0  0  0  0  0  0  0  0  0  0  0  0
   12.0754    2.6885    0.0000 H   0  0  0  0  0  0  0  0  0  0  0  0
   12.6077    3.2817    0.0000 H   0  0  0  0  0  0  0  0  0  0  0  0
   12.5961   -6.1095    0.0000 H   0  0  0  0  0  0  0  0  0  0  0  0
   13.3306   -5.6307    0.0000 H   0  0  0  0  0  0  0  0  0  0  0  0
   12.8518   -4.8962    0.0000 H   0  0  0  0  0  0  0  0  0  0  0  0
   12.8009    4.1529    0.0000 H   0  0  0  0  0  0  0  0  0  0  0  0
   12.3221    4.8875    0.0000 H   0  0  0  0  0  0  0  0  0  0  0  0
   11.5876    4.4086    0.0000 H   0  0  0  0  0  0  0  0  0  0  0  0
    1.4631    2.3828    0.0000 H   0  0  0  0  0  0  0  0  0  0  0  0
    2.3291    5.5028    0.0000 H   0  0  0  0  0  0  0  0  0  0  0  0
    3.4030    5.5028    0.0000 H   0  0  0  0  0  0  0  0  0  0  0  0
  1  3  2  0  0  0  0
  1  8  1  0  0  0  0
  1  9  1  0  0  0  0
  1 15  1  0  0  0  0
  2 15  1  0  0  0  0
  2 18  1  0  0  0  0
  4 22  1  0  0  0  0
  4 24  1  0  0  0  0
  5 23  1  0  0  0  0
  5 25  1  0  0  0  0
  6 22  2  0  0  0  0
  7 23  2  0  0  0  0
  8 16  1  0  0  0  0
  8 39  1  0  0  0  0
  9 17  1  0  0  0  0
  9 40  1  0  0  0  0
 10 21  1  0  0  0  0
 10 26  1  0  0  0  0
 10 29  1  0  0  0  0
 11 29  2  0  0  0  0
 11 30  1  0  0  0  0
 12 26  2  0  0  0  0
 12 36  1  0  0  0  0
 13 33  1  0  0  0  0
 13 36  2  0  0  0  0
 14 33  1  0  0  0  0
 14 73  1  0  0  0  0
 14 74  1  0  0  0  0
 15 37  1  0  0  0  0
 15 38  1  0  0  0  0
 16 19  1  0  0  0  0
 16 22  1  0  0  0  0
 16 41  1  0  0  0  0
 17 20  1  0  0  0  0
 17 23  1  0  0  0  0
 17 42  1  0  0  0  0
 18 21  1  0  0  0  0
 18 43  1  0  0  0  0
 18 44  1  0  0  0  0
 19 45  1  0  0  0  0
 19 46  1  0  0  0  0
 19 47  1  0  0  0  0
 20 48  1  0  0  0  0
 20 49  1  0  0  0  0
 20 50  1  0  0  0  0
 21 51  1  0  0  0  0
 21 52  1  0  0  0  0
 24 27  1  0  0  0  0
 24 53  1  0  0  0  0
 24 54  1  0  0  0  0
 25 28  1  0  0  0  0
 25 55  1  0  0  0  0
 25 56  1  0  0  0  0
 26 30  1  0  0  0  0
 27 31  1  0  0  0  0
 27 57  1  0  0  0  0
 27 58  1  0  0  0  0
 28 32  1  0  0  0  0
 28 59  1  0  0  0  0
 28 60  1  0  0  0  0
 29 61  1  0  0  0  0
 30 33  2  0  0  0  0
 31 34  1  0  0  0  0
 31 62  1  0  0  0  0
 31 63  1  0  0  0  0
 32 35  1  0  0  0  0
 32 64  1  0  0  0  0
 32 65  1  0  0  0  0
 34 66  1  0  0  0  0
 34 67  1  0  0  0  0
 34 68  1  0  0  0  0
 35 69  1  0  0  0  0
 35 70  1  0  0  0  0
 35 71  1  0  0  0  0
 36 72  1  0  0  0  0
M  END
> <PUBCHEM_COMPOUND_CID>
508334
> <PUBCHEM_COMPOUND_CANONICALIZED>
1
> <PUBCHEM_CACTVS_COMPLEXITY>
699
> <PUBCHEM_CACTVS_HBOND_ACCEPTOR>
12
> <PUBCHEM_CACTVS_HBOND_DONOR>
3
> <PUBCHEM_CACTVS_ROTATABLE_BOND>
19
> <PUBCHEM_CACTVS_SUBSKEYS>
AAADcfB7uAIAAAAAAAAAAAAAAAAAAWAAAAAsAAAAAAAAAFgB+AAAHggQgCAACCjhlwYH+L9MFACoQQbxbACAgC0REKABUKGoVBCCSABASEAXBAgMEALQACAAAAAAAAAAAAAAAAAAAAAAAAAAAAAAAAAAAA==
> <PUBCHEM_IUPAC_OPENEYE_NAME>
butyl 2-[[2-(6-aminopurin-9-yl)ethoxymethyl-[(2-butoxy-1-methyl-2-oxo-ethyl)amino]phosphoryl]amino]propanoate
> <PUBCHEM_IUPAC_CAS_NAME>
2-[[2-(6-aminopurin-9-yl)ethoxymethyl-[(1-butoxy-1-oxopropan-2-yl)amino]phosphoryl]amino]propanoic acid butyl ester
> <PUBCHEM_IUPAC_NAME_MARKUP>
butyl 2-[[2-(6-aminopurin-9-yl)ethoxymethyl-[(1-butoxy-1-oxopropan-2-yl)amino]phosphoryl]amino]propanoate
> <PUBCHEM_IUPAC_NAME>
butyl 2-[[2-(6-aminopurin-9-yl)ethoxymethyl-[(1-butoxy-1-oxopropan-2-yl)amino]phosphoryl]amino]propanoate
> <PUBCHEM_IUPAC_SYSTEMATIC_NAME>
butyl 2-[[2-(6-aminopurin-9-yl)ethoxymethyl-[(1-butoxy-1-oxidanylidene-propan-2-yl)amino]phosphoryl]amino]propanoate
> <PUBCHEM_IUPAC_TRADITIONAL_NAME>
2-[[2-adenin-9-ylethoxymethyl-[(2-butoxy-2-keto-1-methyl-ethyl)amino]phosphoryl]amino]propionic acid butyl ester
> <PUBCHEM_IUPAC_INCHI>
InChI=1S/C22H38N7O6P/c1-5-7-10-34-21(30)16(3)27-36(32,28-17(4)22(31)35-11-8-6-2)15-33-12-9-29-14-26-18-19(23)24-13-25-20(18)29/h13-14,16-17H,5-12,15H2,1-4H3,(H2,23,24,25)(H2,27,28,32)
> <PUBCHEM_IUPAC_INCHIKEY>
CIWMMSZISAROPN-UHFFFAOYSA-N
> <PUBCHEM_XLOGP3_AA>
1.4
> <PUBCHEM_EXACT_MASS>
527.26211896
> <PUBCHEM_MOLECULAR_FORMULA>
C22H38N7O6P
> <PUBCHEM_MOLECULAR_WEIGHT>
527.6
> <PUBCHEM_OPENEYE_CAN_SMILES>
CCCCOC(=O)C(C)NP(=O)(COCCN1C=NC2=C(N=CN=C21)N)NC(C)C(=O)OCCCC
> <PUBCHEM_OPENEYE_ISO_SMILES>
CCCCOC(=O)C(C)NP(=O)(COCCN1C=NC2=C(N=CN=C21)N)NC(C)C(=O)OCCCC
> <PUBCHEM_CACTVS_TPSA>
173
> <PUBCHEM_MONOISOTOPIC_WEIGHT>
527.26211896
> <PUBCHEM_TOTAL_CHARGE>
0
> <PUBCHEM_HEAVY_ATOM_COUNT>
36
> <PUBCHEM_ATOM_DEF_STEREO_COUNT>
0
> <PUBCHEM_ATOM_UDEF_STEREO_COUNT>
2
> <PUBCHEM_BOND_DEF_STEREO_COUNT>
0
> <PUBCHEM_BOND_UDEF_STEREO_COUNT>
0
> <PUBCHEM_ISOTOPIC_ATOM_COUNT>
0
> <PUBCHEM_COMPONENT_COUNT>
1
> <PUBCHEM_CACTVS_TAUTO_COUNT>
-1
> <PUBCHEM_COORDINATE_TYPE>
1
5
255
> <PUBCHEM_BONDANNOTATIONS>
10  26  8
10  29  8
11  29  8
11  30  8
12  26  8
12  36  8
13  33  8
13  36  8
16  19  3
17  20  3
26  30  8
30  33  8
$$$$
