508364
  -OEChem-10302200282D
 84 87  0     1  0  0  0  0  0999 V2000
    2.0000    4.3776    0.0000 Cl  0  0  0  0  0  0  0  0  0  0  0  0
    9.5878    3.5685    0.0000 O   0  0  0  0  0  0  0  0  0  0  0  0
   11.4851    5.1823    0.0000 O   0  0  0  0  0  0  0  0  0  0  0  0
   11.4851    3.5728    0.0000 O   0  0  0  0  0  0  0  0  0  0  0  0
    9.2788    6.1376    0.0000 O   0  0  0  0  0  0  0  0  0  0  0  0
    6.0000    2.6455    0.0000 O   0  0  0  0  0  0  0  0  0  0  0  0
    6.0000    6.1096    0.0000 O   0  0  0  0  0  0  0  0  0  0  0  0
    7.5000    3.5115    0.0000 N   0  0  0  0  0  0  0  0  0  0  0  0
    6.0000    4.3776    0.0000 N   0  0  0  0  0  0  0  0  0  0  0  0
    9.0000    4.3776    0.0000 C   0  0  3  0  0  0  0  0  0  0  0  0
   10.5388    4.8776    0.0000 C   0  0  3  0  0  0  0  0  0  0  0  0
    9.5878    5.1866    0.0000 C   0  0  1  0  0  0  0  0  0  0  0  0
    8.0000    4.3776    0.0000 C   0  0  2  0  0  0  0  0  0  0  0  0
   10.5388    3.8776    0.0000 C   0  0  3  0  0  0  0  0  0  0  0  0
   12.0687    4.3776    0.0000 C   0  0  0  0  0  0  0  0  0  0  0  0
    7.5000    5.2436    0.0000 C   0  0  0  0  0  0  0  0  0  0  0  0
    8.0000    2.6455    0.0000 C   0  0  0  0  0  0  0  0  0  0  0  0
    6.5000    3.5115    0.0000 C   0  0  0  0  0  0  0  0  0  0  0  0
    6.5000    5.2436    0.0000 C   0  0  0  0  0  0  0  0  0  0  0  0
   12.8777    3.7898    0.0000 C   0  0  0  0  0  0  0  0  0  0  0  0
   12.8777    4.9653    0.0000 C   0  0  0  0  0  0  0  0  0  0  0  0
    7.5000    1.7795    0.0000 C   0  0  0  0  0  0  0  0  0  0  0  0
    9.9479    6.8808    0.0000 C   0  0  0  0  0  0  0  0  0  0  0  0
    8.0000    0.9135    0.0000 C   0  0  0  0  0  0  0  0  0  0  0  0
    5.0000    4.3776    0.0000 C   0  0  0  0  0  0  0  0  0  0  0  0
    7.5000    0.0474    0.0000 C   0  0  0  0  0  0  0  0  0  0  0  0
    8.0000   -0.8186    0.0000 C   0  0  0  0  0  0  0  0  0  0  0  0
    4.5000    3.5115    0.0000 C   0  0  0  0  0  0  0  0  0  0  0  0
    4.5000    5.2436    0.0000 C   0  0  0  0  0  0  0  0  0  0  0  0
    7.5000   -1.6846    0.0000 C   0  0  0  0  0  0  0  0  0  0  0  0
    8.0000   -2.5506    0.0000 C   0  0  0  0  0  0  0  0  0  0  0  0
    7.5000   -3.4167    0.0000 C   0  0  0  0  0  0  0  0  0  0  0  0
    3.5000    3.5115    0.0000 C   0  0  0  0  0  0  0  0  0  0  0  0
    3.5000    5.2436    0.0000 C   0  0  0  0  0  0  0  0  0  0  0  0
    3.0000    4.3776    0.0000 C   0  0  0  0  0  0  0  0  0  0  0  0
    8.0000   -4.2827    0.0000 C   0  0  0  0  0  0  0  0  0  0  0  0
    7.5000   -5.1487    0.0000 C   0  0  0  0  0  0  0  0  0  0  0  0
    8.0000   -6.0148    0.0000 C   0  0  0  0  0  0  0  0  0  0  0  0
    7.5000   -6.8808    0.0000 C   0  0  0  0  0  0  0  0  0  0  0  0
    8.7185    3.8251    0.0000 H   0  0  0  0  0  0  0  0  0  0  0  0
   10.5396    5.4976    0.0000 H   0  0  0  0  0  0  0  0  0  0  0  0
   10.0262    5.6250    0.0000 H   0  0  0  0  0  0  0  0  0  0  0  0
    8.4250    5.1137    0.0000 H   0  0  0  0  0  0  0  0  0  0  0  0
   10.5396    3.2576    0.0000 H   0  0  0  0  0  0  0  0  0  0  0  0
    8.0826    5.4556    0.0000 H   0  0  0  0  0  0  0  0  0  0  0  0
    7.3923    5.8542    0.0000 H   0  0  0  0  0  0  0  0  0  0  0  0
    8.4750    2.2470    0.0000 H   0  0  0  0  0  0  0  0  0  0  0  0
    8.4750    3.0440    0.0000 H   0  0  0  0  0  0  0  0  0  0  0  0
   12.5133    3.2882    0.0000 H   0  0  0  0  0  0  0  0  0  0  0  0
   13.3793    3.4253    0.0000 H   0  0  0  0  0  0  0  0  0  0  0  0
   13.2421    4.2914    0.0000 H   0  0  0  0  0  0  0  0  0  0  0  0
   13.2421    4.4638    0.0000 H   0  0  0  0  0  0  0  0  0  0  0  0
   13.3793    5.3298    0.0000 H   0  0  0  0  0  0  0  0  0  0  0  0
   12.5133    5.4669    0.0000 H   0  0  0  0  0  0  0  0  0  0  0  0
    7.0250    2.1780    0.0000 H   0  0  0  0  0  0  0  0  0  0  0  0
    7.0250    1.3809    0.0000 H   0  0  0  0  0  0  0  0  0  0  0  0
   10.4086    6.4659    0.0000 H   0  0  0  0  0  0  0  0  0  0  0  0
   10.3628    7.3415    0.0000 H   0  0  0  0  0  0  0  0  0  0  0  0
    9.4872    7.2956    0.0000 H   0  0  0  0  0  0  0  0  0  0  0  0
    8.4750    0.5149    0.0000 H   0  0  0  0  0  0  0  0  0  0  0  0
    8.4750    1.3120    0.0000 H   0  0  0  0  0  0  0  0  0  0  0  0
    7.0250    0.4460    0.0000 H   0  0  0  0  0  0  0  0  0  0  0  0
    7.0250   -0.3511    0.0000 H   0  0  0  0  0  0  0  0  0  0  0  0
    8.4750   -1.2171    0.0000 H   0  0  0  0  0  0  0  0  0  0  0  0
    8.4750   -0.4201    0.0000 H   0  0  0  0  0  0  0  0  0  0  0  0
    7.0250   -1.2861    0.0000 H   0  0  0  0  0  0  0  0  0  0  0  0
    7.0250   -2.0832    0.0000 H   0  0  0  0  0  0  0  0  0  0  0  0
    4.8100    2.9746    0.0000 H   0  0  0  0  0  0  0  0  0  0  0  0
    4.8100    5.7805    0.0000 H   0  0  0  0  0  0  0  0  0  0  0  0
    8.4750   -2.9492    0.0000 H   0  0  0  0  0  0  0  0  0  0  0  0
    8.4750   -2.1521    0.0000 H   0  0  0  0  0  0  0  0  0  0  0  0
    7.0250   -3.0181    0.0000 H   0  0  0  0  0  0  0  0  0  0  0  0
    7.0250   -3.8152    0.0000 H   0  0  0  0  0  0  0  0  0  0  0  0
    3.1900    2.9746    0.0000 H   0  0  0  0  0  0  0  0  0  0  0  0
    3.1900    5.7805    0.0000 H   0  0  0  0  0  0  0  0  0  0  0  0
    8.4750   -4.6812    0.0000 H   0  0  0  0  0  0  0  0  0  0  0  0
    8.4750   -3.8842    0.0000 H   0  0  0  0  0  0  0  0  0  0  0  0
    7.0250   -4.7502    0.0000 H   0  0  0  0  0  0  0  0  0  0  0  0
    7.0250   -5.5472    0.0000 H   0  0  0  0  0  0  0  0  0  0  0  0
    8.4750   -6.4133    0.0000 H   0  0  0  0  0  0  0  0  0  0  0  0
    8.4750   -5.6162    0.0000 H   0  0  0  0  0  0  0  0  0  0  0  0
    6.9631   -6.5708    0.0000 H   0  0  0  0  0  0  0  0  0  0  0  0
    7.1900   -7.4177    0.0000 H   0  0  0  0  0  0  0  0  0  0  0  0
    8.0369   -7.1908    0.0000 H   0  0  0  0  0  0  0  0  0  0  0  0
  1 35  1  0  0  0  0
  2 10  1  0  0  0  0
  2 14  1  0  0  0  0
  3 11  1  0  0  0  0
  3 15  1  0  0  0  0
  4 14  1  0  0  0  0
  4 15  1  0  0  0  0
 12  5  1  6  0  0  0
  5 23  1  0  0  0  0
  6 18  2  0  0  0  0
  7 19  2  0  0  0  0
  8 13  1  0  0  0  0
  8 17  1  0  0  0  0
  8 18  1  0  0  0  0
  9 18  1  0  0  0  0
  9 19  1  0  0  0  0
  9 25  1  0  0  0  0
 10 12  1  0  0  0  0
 10 13  1  0  0  0  0
 10 40  1  0  0  0  0
 11 12  1  0  0  0  0
 11 14  1  0  0  0  0
 11 41  1  0  0  0  0
 12 42  1  0  0  0  0
 13 16  1  0  0  0  0
 13 43  1  6  0  0  0
 14 44  1  0  0  0  0
 15 20  1  0  0  0  0
 15 21  1  0  0  0  0
 16 19  1  0  0  0  0
 16 45  1  0  0  0  0
 16 46  1  0  0  0  0
 17 22  1  0  0  0  0
 17 47  1  0  0  0  0
 17 48  1  0  0  0  0
 20 49  1  0  0  0  0
 20 50  1  0  0  0  0
 20 51  1  0  0  0  0
 21 52  1  0  0  0  0
 21 53  1  0  0  0  0
 21 54  1  0  0  0  0
 22 24  1  0  0  0  0
 22 55  1  0  0  0  0
 22 56  1  0  0  0  0
 23 57  1  0  0  0  0
 23 58  1  0  0  0  0
 23 59  1  0  0  0  0
 24 26  1  0  0  0  0
 24 60  1  0  0  0  0
 24 61  1  0  0  0  0
 25 28  2  0  0  0  0
 25 29  1  0  0  0  0
 26 27  1  0  0  0  0
 26 62  1  0  0  0  0
 26 63  1  0  0  0  0
 27 30  1  0  0  0  0
 27 64  1  0  0  0  0
 27 65  1  0  0  0  0
 28 33  1  0  0  0  0
 28 68  1  0  0  0  0
 29 34  2  0  0  0  0
 29 69  1  0  0  0  0
 30 31  1  0  0  0  0
 30 66  1  0  0  0  0
 30 67  1  0  0  0  0
 31 32  1  0  0  0  0
 31 70  1  0  0  0  0
 31 71  1  0  0  0  0
 32 36  1  0  0  0  0
 32 72  1  0  0  0  0
 32 73  1  0  0  0  0
 33 35  2  0  0  0  0
 33 74  1  0  0  0  0
 34 35  1  0  0  0  0
 34 75  1  0  0  0  0
 36 37  1  0  0  0  0
 36 76  1  0  0  0  0
 36 77  1  0  0  0  0
 37 38  1  0  0  0  0
 37 78  1  0  0  0  0
 37 79  1  0  0  0  0
 38 39  1  0  0  0  0
 38 80  1  0  0  0  0
 38 81  1  0  0  0  0
 39 82  1  0  0  0  0
 39 83  1  0  0  0  0
 39 84  1  0  0  0  0
M  END
> <PUBCHEM_COMPOUND_CID>
508364
> <PUBCHEM_COMPOUND_CANONICALIZED>
1
> <PUBCHEM_CACTVS_COMPLEXITY>
804
> <PUBCHEM_CACTVS_HBOND_ACCEPTOR>
6
> <PUBCHEM_CACTVS_HBOND_DONOR>
0
> <PUBCHEM_CACTVS_ROTATABLE_BOND>
14
> <PUBCHEM_CACTVS_SUBSKEYS>
AAADcfB7OAAEAAAAAAAAAAAAAAAAASJAAAA8QAAAAAASAAABAAAAHgIAAAAACD7xkCczyIMABACIACVSUACCAAAhBwAIiAEIZoibIDrB05GnIAhvhyLeyCf63KPAAABAAAAAAAAAAIAAAAAAAAAAAAAAAA==
> <PUBCHEM_IUPAC_OPENEYE_NAME>
(6S)-3-(4-chlorophenyl)-1-dodecyl-6-[(6S)-6-methoxy-2,2-dimethyl-3a,5,6,6a-tetrahydrofuro[2,3-d][1,3]dioxol-5-yl]hexahydropyrimidine-2,4-dione
> <PUBCHEM_IUPAC_CAS_NAME>
(6S)-3-(4-chlorophenyl)-1-dodecyl-6-[(6S)-6-methoxy-2,2-dimethyl-3a,5,6,6a-tetrahydrofuro[2,3-d][1,3]dioxol-5-yl]-1,3-diazinane-2,4-dione
> <PUBCHEM_IUPAC_NAME_MARKUP>
(6<I>S</I>)-3-(4-chlorophenyl)-1-dodecyl-6-[(6<I>S</I>)-6-methoxy-2,2-dimethyl-3<I>a</I>,5,6,6<I>a</I>-tetrahydrofuro[2,3-d][1,3]dioxol-5-yl]-1,3-diazinane-2,4-dione
> <PUBCHEM_IUPAC_NAME>
(6S)-3-(4-chlorophenyl)-1-dodecyl-6-[(6S)-6-methoxy-2,2-dimethyl-3a,5,6,6a-tetrahydrofuro[2,3-d][1,3]dioxol-5-yl]-1,3-diazinane-2,4-dione
> <PUBCHEM_IUPAC_SYSTEMATIC_NAME>
(6S)-3-(4-chlorophenyl)-1-dodecyl-6-[(6S)-6-methoxy-2,2-dimethyl-3a,5,6,6a-tetrahydrofuro[2,3-d][1,3]dioxol-5-yl]-1,3-diazinane-2,4-dione
> <PUBCHEM_IUPAC_TRADITIONAL_NAME>
(6S)-3-(4-chlorophenyl)-1-lauryl-6-[(6S)-6-methoxy-2,2-dimethyl-3a,5,6,6a-tetrahydrofuro[2,3-d][1,3]dioxol-5-yl]-5,6-dihydrouracil
> <PUBCHEM_IUPAC_INCHI>
InChI=1S/C30H45ClN2O6/c1-5-6-7-8-9-10-11-12-13-14-19-32-23(25-26(36-4)27-28(37-25)39-30(2,3)38-27)20-24(34)33(29(32)35)22-17-15-21(31)16-18-22/h15-18,23,25-28H,5-14,19-20H2,1-4H3/t23-,25?,26-,27?,28?/m0/s1
> <PUBCHEM_IUPAC_INCHIKEY>
GAJNZXLFQUMNDU-LLGPELLRSA-N
> <PUBCHEM_XLOGP3_AA>
7.1
> <PUBCHEM_EXACT_MASS>
564.2966149
> <PUBCHEM_MOLECULAR_FORMULA>
C30H45ClN2O6
> <PUBCHEM_MOLECULAR_WEIGHT>
565.1
> <PUBCHEM_OPENEYE_CAN_SMILES>
CCCCCCCCCCCCN1C(CC(=O)N(C1=O)C2=CC=C(C=C2)Cl)C3C(C4C(O3)OC(O4)(C)C)OC
> <PUBCHEM_OPENEYE_ISO_SMILES>
CCCCCCCCCCCCN1[C@@H](CC(=O)N(C1=O)C2=CC=C(C=C2)Cl)C3[C@@H](C4C(O3)OC(O4)(C)C)OC
> <PUBCHEM_CACTVS_TPSA>
77.5
> <PUBCHEM_MONOISOTOPIC_WEIGHT>
564.2966149
> <PUBCHEM_TOTAL_CHARGE>
0
> <PUBCHEM_HEAVY_ATOM_COUNT>
39
> <PUBCHEM_ATOM_DEF_STEREO_COUNT>
2
> <PUBCHEM_ATOM_UDEF_STEREO_COUNT>
3
> <PUBCHEM_BOND_DEF_STEREO_COUNT>
0
> <PUBCHEM_BOND_UDEF_STEREO_COUNT>
0
> <PUBCHEM_ISOTOPIC_ATOM_COUNT>
0
> <PUBCHEM_COMPONENT_COUNT>
1
> <PUBCHEM_CACTVS_TAUTO_COUNT>
-1
> <PUBCHEM_COORDINATE_TYPE>
1
5
255
> <PUBCHEM_BONDANNOTATIONS>
13  43  6
10  2  3
25  28  8
25  29  8
28  33  8
29  34  8
11  3  3
33  35  8
34  35  8
14  4  3
12  5  6
$$$$
