508365
  -OEChem-10302200282D
 96 99  0     1  0  0  0  0  0999 V2000
    8.5878    5.3006    0.0000 O   0  0  0  0  0  0  0  0  0  0  0  0
   10.4851    6.9143    0.0000 O   0  0  0  0  0  0  0  0  0  0  0  0
   10.4851    5.3049    0.0000 O   0  0  0  0  0  0  0  0  0  0  0  0
    8.2788    7.8697    0.0000 O   0  0  0  0  0  0  0  0  0  0  0  0
    5.0000    4.3776    0.0000 O   0  0  0  0  0  0  0  0  0  0  0  0
    5.0000    7.8417    0.0000 O   0  0  0  0  0  0  0  0  0  0  0  0
    6.5000    5.2436    0.0000 N   0  0  0  0  0  0  0  0  0  0  0  0
    5.0000    6.1096    0.0000 N   0  0  0  0  0  0  0  0  0  0  0  0
    8.0000    6.1096    0.0000 C   0  0  3  0  0  0  0  0  0  0  0  0
    9.5388    6.6096    0.0000 C   0  0  3  0  0  0  0  0  0  0  0  0
    8.5878    6.9186    0.0000 C   0  0  1  0  0  0  0  0  0  0  0  0
    7.0000    6.1096    0.0000 C   0  0  2  0  0  0  0  0  0  0  0  0
    9.5388    5.6096    0.0000 C   0  0  3  0  0  0  0  0  0  0  0  0
   11.0687    6.1096    0.0000 C   0  0  0  0  0  0  0  0  0  0  0  0
    6.5000    6.9756    0.0000 C   0  0  0  0  0  0  0  0  0  0  0  0
    7.0000    4.3776    0.0000 C   0  0  0  0  0  0  0  0  0  0  0  0
    5.5000    5.2436    0.0000 C   0  0  0  0  0  0  0  0  0  0  0  0
    5.5000    6.9756    0.0000 C   0  0  0  0  0  0  0  0  0  0  0  0
   11.8777    5.5218    0.0000 C   0  0  0  0  0  0  0  0  0  0  0  0
   11.8777    6.6974    0.0000 C   0  0  0  0  0  0  0  0  0  0  0  0
    6.5000    3.5115    0.0000 C   0  0  0  0  0  0  0  0  0  0  0  0
    8.9479    8.6128    0.0000 C   0  0  0  0  0  0  0  0  0  0  0  0
    7.0000    2.6455    0.0000 C   0  0  0  0  0  0  0  0  0  0  0  0
    4.0000    6.1096    0.0000 C   0  0  0  0  0  0  0  0  0  0  0  0
    6.5000    1.7795    0.0000 C   0  0  0  0  0  0  0  0  0  0  0  0
    7.0000    0.9135    0.0000 C   0  0  0  0  0  0  0  0  0  0  0  0
    3.5000    6.9756    0.0000 C   0  0  0  0  0  0  0  0  0  0  0  0
    3.5000    5.2436    0.0000 C   0  0  0  0  0  0  0  0  0  0  0  0
    6.5000    0.0474    0.0000 C   0  0  0  0  0  0  0  0  0  0  0  0
    7.0000   -0.8186    0.0000 C   0  0  0  0  0  0  0  0  0  0  0  0
    6.5000   -1.6846    0.0000 C   0  0  0  0  0  0  0  0  0  0  0  0
    2.5000    6.9756    0.0000 C   0  0  0  0  0  0  0  0  0  0  0  0
    2.5000    5.2436    0.0000 C   0  0  0  0  0  0  0  0  0  0  0  0
    7.0000   -2.5506    0.0000 C   0  0  0  0  0  0  0  0  0  0  0  0
    2.0000    6.1096    0.0000 C   0  0  0  0  0  0  0  0  0  0  0  0
    6.5000   -3.4167    0.0000 C   0  0  0  0  0  0  0  0  0  0  0  0
    7.0000   -4.2827    0.0000 C   0  0  0  0  0  0  0  0  0  0  0  0
    6.5000   -5.1487    0.0000 C   0  0  0  0  0  0  0  0  0  0  0  0
    7.0000   -6.0148    0.0000 C   0  0  0  0  0  0  0  0  0  0  0  0
    6.5000   -6.8808    0.0000 C   0  0  0  0  0  0  0  0  0  0  0  0
    7.0000   -7.7468    0.0000 C   0  0  0  0  0  0  0  0  0  0  0  0
    6.5000   -8.6128    0.0000 C   0  0  0  0  0  0  0  0  0  0  0  0
    7.7185    6.6620    0.0000 H   0  0  0  0  0  0  0  0  0  0  0  0
    9.5396    7.2296    0.0000 H   0  0  0  0  0  0  0  0  0  0  0  0
    9.0262    7.3570    0.0000 H   0  0  0  0  0  0  0  0  0  0  0  0
    7.4250    5.3735    0.0000 H   0  0  0  0  0  0  0  0  0  0  0  0
    9.5396    4.9896    0.0000 H   0  0  0  0  0  0  0  0  0  0  0  0
    7.0826    7.1877    0.0000 H   0  0  0  0  0  0  0  0  0  0  0  0
    6.3923    7.5862    0.0000 H   0  0  0  0  0  0  0  0  0  0  0  0
    7.4750    3.9790    0.0000 H   0  0  0  0  0  0  0  0  0  0  0  0
    7.4750    4.7761    0.0000 H   0  0  0  0  0  0  0  0  0  0  0  0
   11.5133    5.0202    0.0000 H   0  0  0  0  0  0  0  0  0  0  0  0
   12.3793    5.1574    0.0000 H   0  0  0  0  0  0  0  0  0  0  0  0
   12.2421    6.0234    0.0000 H   0  0  0  0  0  0  0  0  0  0  0  0
   12.2421    6.1958    0.0000 H   0  0  0  0  0  0  0  0  0  0  0  0
   12.3793    7.0618    0.0000 H   0  0  0  0  0  0  0  0  0  0  0  0
   11.5133    7.1990    0.0000 H   0  0  0  0  0  0  0  0  0  0  0  0
    6.0250    3.9101    0.0000 H   0  0  0  0  0  0  0  0  0  0  0  0
    6.0250    3.1130    0.0000 H   0  0  0  0  0  0  0  0  0  0  0  0
    9.4086    8.1980    0.0000 H   0  0  0  0  0  0  0  0  0  0  0  0
    9.3628    9.0736    0.0000 H   0  0  0  0  0  0  0  0  0  0  0  0
    8.4872    9.0277    0.0000 H   0  0  0  0  0  0  0  0  0  0  0  0
    7.4750    2.2470    0.0000 H   0  0  0  0  0  0  0  0  0  0  0  0
    7.4750    3.0440    0.0000 H   0  0  0  0  0  0  0  0  0  0  0  0
    6.0250    2.1780    0.0000 H   0  0  0  0  0  0  0  0  0  0  0  0
    6.0250    1.3809    0.0000 H   0  0  0  0  0  0  0  0  0  0  0  0
    7.4750    0.5149    0.0000 H   0  0  0  0  0  0  0  0  0  0  0  0
    7.4750    1.3120    0.0000 H   0  0  0  0  0  0  0  0  0  0  0  0
    3.8100    7.5126    0.0000 H   0  0  0  0  0  0  0  0  0  0  0  0
    3.8100    4.7066    0.0000 H   0  0  0  0  0  0  0  0  0  0  0  0
    6.0250    0.4460    0.0000 H   0  0  0  0  0  0  0  0  0  0  0  0
    6.0250   -0.3511    0.0000 H   0  0  0  0  0  0  0  0  0  0  0  0
    7.4750   -1.2171    0.0000 H   0  0  0  0  0  0  0  0  0  0  0  0
    7.4750   -0.4201    0.0000 H   0  0  0  0  0  0  0  0  0  0  0  0
    6.0250   -1.2861    0.0000 H   0  0  0  0  0  0  0  0  0  0  0  0
    6.0250   -2.0832    0.0000 H   0  0  0  0  0  0  0  0  0  0  0  0
    2.1900    7.5126    0.0000 H   0  0  0  0  0  0  0  0  0  0  0  0
    2.1900    4.7066    0.0000 H   0  0  0  0  0  0  0  0  0  0  0  0
    7.4750   -2.9492    0.0000 H   0  0  0  0  0  0  0  0  0  0  0  0
    7.4750   -2.1521    0.0000 H   0  0  0  0  0  0  0  0  0  0  0  0
    1.3800    6.1096    0.0000 H   0  0  0  0  0  0  0  0  0  0  0  0
    6.0250   -3.0181    0.0000 H   0  0  0  0  0  0  0  0  0  0  0  0
    6.0250   -3.8152    0.0000 H   0  0  0  0  0  0  0  0  0  0  0  0
    7.4750   -4.6812    0.0000 H   0  0  0  0  0  0  0  0  0  0  0  0
    7.4750   -3.8842    0.0000 H   0  0  0  0  0  0  0  0  0  0  0  0
    6.0250   -4.7502    0.0000 H   0  0  0  0  0  0  0  0  0  0  0  0
    6.0250   -5.5472    0.0000 H   0  0  0  0  0  0  0  0  0  0  0  0
    7.4750   -6.4133    0.0000 H   0  0  0  0  0  0  0  0  0  0  0  0
    7.4750   -5.6162    0.0000 H   0  0  0  0  0  0  0  0  0  0  0  0
    6.0250   -6.4822    0.0000 H   0  0  0  0  0  0  0  0  0  0  0  0
    6.0250   -7.2793    0.0000 H   0  0  0  0  0  0  0  0  0  0  0  0
    7.4750   -8.1453    0.0000 H   0  0  0  0  0  0  0  0  0  0  0  0
    7.4750   -7.3483    0.0000 H   0  0  0  0  0  0  0  0  0  0  0  0
    5.9631   -8.3028    0.0000 H   0  0  0  0  0  0  0  0  0  0  0  0
    6.1900   -9.1498    0.0000 H   0  0  0  0  0  0  0  0  0  0  0  0
    7.0369   -8.9228    0.0000 H   0  0  0  0  0  0  0  0  0  0  0  0
  1  9  1  0  0  0  0
  1 13  1  0  0  0  0
  2 10  1  0  0  0  0
  2 14  1  0  0  0  0
  3 13  1  0  0  0  0
  3 14  1  0  0  0  0
 11  4  1  6  0  0  0
  4 22  1  0  0  0  0
  5 17  2  0  0  0  0
  6 18  2  0  0  0  0
  7 12  1  0  0  0  0
  7 16  1  0  0  0  0
  7 17  1  0  0  0  0
  8 17  1  0  0  0  0
  8 18  1  0  0  0  0
  8 24  1  0  0  0  0
  9 11  1  0  0  0  0
  9 12  1  0  0  0  0
  9 43  1  0  0  0  0
 10 11  1  0  0  0  0
 10 13  1  0  0  0  0
 10 44  1  0  0  0  0
 11 45  1  0  0  0  0
 12 15  1  0  0  0  0
 12 46  1  6  0  0  0
 13 47  1  0  0  0  0
 14 19  1  0  0  0  0
 14 20  1  0  0  0  0
 15 18  1  0  0  0  0
 15 48  1  0  0  0  0
 15 49  1  0  0  0  0
 16 21  1  0  0  0  0
 16 50  1  0  0  0  0
 16 51  1  0  0  0  0
 19 52  1  0  0  0  0
 19 53  1  0  0  0  0
 19 54  1  0  0  0  0
 20 55  1  0  0  0  0
 20 56  1  0  0  0  0
 20 57  1  0  0  0  0
 21 23  1  0  0  0  0
 21 58  1  0  0  0  0
 21 59  1  0  0  0  0
 22 60  1  0  0  0  0
 22 61  1  0  0  0  0
 22 62  1  0  0  0  0
 23 25  1  0  0  0  0
 23 63  1  0  0  0  0
 23 64  1  0  0  0  0
 24 27  2  0  0  0  0
 24 28  1  0  0  0  0
 25 26  1  0  0  0  0
 25 65  1  0  0  0  0
 25 66  1  0  0  0  0
 26 29  1  0  0  0  0
 26 67  1  0  0  0  0
 26 68  1  0  0  0  0
 27 32  1  0  0  0  0
 27 69  1  0  0  0  0
 28 33  2  0  0  0  0
 28 70  1  0  0  0  0
 29 30  1  0  0  0  0
 29 71  1  0  0  0  0
 29 72  1  0  0  0  0
 30 31  1  0  0  0  0
 30 73  1  0  0  0  0
 30 74  1  0  0  0  0
 31 34  1  0  0  0  0
 31 75  1  0  0  0  0
 31 76  1  0  0  0  0
 32 35  2  0  0  0  0
 32 77  1  0  0  0  0
 33 35  1  0  0  0  0
 33 78  1  0  0  0  0
 34 36  1  0  0  0  0
 34 79  1  0  0  0  0
 34 80  1  0  0  0  0
 35 81  1  0  0  0  0
 36 37  1  0  0  0  0
 36 82  1  0  0  0  0
 36 83  1  0  0  0  0
 37 38  1  0  0  0  0
 37 84  1  0  0  0  0
 37 85  1  0  0  0  0
 38 39  1  0  0  0  0
 38 86  1  0  0  0  0
 38 87  1  0  0  0  0
 39 40  1  0  0  0  0
 39 88  1  0  0  0  0
 39 89  1  0  0  0  0
 40 41  1  0  0  0  0
 40 90  1  0  0  0  0
 40 91  1  0  0  0  0
 41 42  1  0  0  0  0
 41 92  1  0  0  0  0
 41 93  1  0  0  0  0
 42 94  1  0  0  0  0
 42 95  1  0  0  0  0
 42 96  1  0  0  0  0
M  END
> <PUBCHEM_COMPOUND_CID>
508365
> <PUBCHEM_COMPOUND_CANONICALIZED>
1
> <PUBCHEM_CACTVS_COMPLEXITY>
831
> <PUBCHEM_CACTVS_HBOND_ACCEPTOR>
6
> <PUBCHEM_CACTVS_HBOND_DONOR>
0
> <PUBCHEM_CACTVS_ROTATABLE_BOND>
18
> <PUBCHEM_CACTVS_SUBSKEYS>
AAADcfB/OAAAAAAAAAAAAAAAAAAAASJAAAA8QAAAAAASAAABAAAAHgAAAAAACDzxkAczyIMABACIACVSUACCAAAhAgAIiAEIZIibIDrA0ZGnIAhvhyLeyCf63KPAAAAAAAAAAAAAAAAAAAAAAAAAAAAAAA==
> <PUBCHEM_IUPAC_OPENEYE_NAME>
(6S)-1-hexadecyl-6-[(6S)-6-methoxy-2,2-dimethyl-3a,5,6,6a-tetrahydrofuro[2,3-d][1,3]dioxol-5-yl]-3-phenyl-hexahydropyrimidine-2,4-dione
> <PUBCHEM_IUPAC_CAS_NAME>
(6S)-1-hexadecyl-6-[(6S)-6-methoxy-2,2-dimethyl-3a,5,6,6a-tetrahydrofuro[2,3-d][1,3]dioxol-5-yl]-3-phenyl-1,3-diazinane-2,4-dione
> <PUBCHEM_IUPAC_NAME_MARKUP>
(6<I>S</I>)-1-hexadecyl-6-[(6<I>S</I>)-6-methoxy-2,2-dimethyl-3<I>a</I>,5,6,6<I>a</I>-tetrahydrofuro[2,3-d][1,3]dioxol-5-yl]-3-phenyl-1,3-diazinane-2,4-dione
> <PUBCHEM_IUPAC_NAME>
(6S)-1-hexadecyl-6-[(6S)-6-methoxy-2,2-dimethyl-3a,5,6,6a-tetrahydrofuro[2,3-d][1,3]dioxol-5-yl]-3-phenyl-1,3-diazinane-2,4-dione
> <PUBCHEM_IUPAC_SYSTEMATIC_NAME>
(6S)-1-hexadecyl-6-[(6S)-6-methoxy-2,2-dimethyl-3a,5,6,6a-tetrahydrofuro[2,3-d][1,3]dioxol-5-yl]-3-phenyl-1,3-diazinane-2,4-dione
> <PUBCHEM_IUPAC_TRADITIONAL_NAME>
(6S)-1-cetyl-6-[(6S)-6-methoxy-2,2-dimethyl-3a,5,6,6a-tetrahydrofuro[2,3-d][1,3]dioxol-5-yl]-3-phenyl-5,6-dihydrouracil
> <PUBCHEM_IUPAC_INCHI>
InChI=1S/C34H54N2O6/c1-5-6-7-8-9-10-11-12-13-14-15-16-17-21-24-35-27(25-28(37)36(33(35)38)26-22-19-18-20-23-26)29-30(39-4)31-32(40-29)42-34(2,3)41-31/h18-20,22-23,27,29-32H,5-17,21,24-25H2,1-4H3/t27-,29?,30-,31?,32?/m0/s1
> <PUBCHEM_IUPAC_INCHIKEY>
KJQKICDNFPDLCS-OGCWRKDYSA-N
> <PUBCHEM_XLOGP3_AA>
8.6
> <PUBCHEM_EXACT_MASS>
586.39818745
> <PUBCHEM_MOLECULAR_FORMULA>
C34H54N2O6
> <PUBCHEM_MOLECULAR_WEIGHT>
586.8
> <PUBCHEM_OPENEYE_CAN_SMILES>
CCCCCCCCCCCCCCCCN1C(CC(=O)N(C1=O)C2=CC=CC=C2)C3C(C4C(O3)OC(O4)(C)C)OC
> <PUBCHEM_OPENEYE_ISO_SMILES>
CCCCCCCCCCCCCCCCN1[C@@H](CC(=O)N(C1=O)C2=CC=CC=C2)C3[C@@H](C4C(O3)OC(O4)(C)C)OC
> <PUBCHEM_CACTVS_TPSA>
77.5
> <PUBCHEM_MONOISOTOPIC_WEIGHT>
586.39818745
> <PUBCHEM_TOTAL_CHARGE>
0
> <PUBCHEM_HEAVY_ATOM_COUNT>
42
> <PUBCHEM_ATOM_DEF_STEREO_COUNT>
2
> <PUBCHEM_ATOM_UDEF_STEREO_COUNT>
3
> <PUBCHEM_BOND_DEF_STEREO_COUNT>
0
> <PUBCHEM_BOND_UDEF_STEREO_COUNT>
0
> <PUBCHEM_ISOTOPIC_ATOM_COUNT>
0
> <PUBCHEM_COMPONENT_COUNT>
1
> <PUBCHEM_CACTVS_TAUTO_COUNT>
-1
> <PUBCHEM_COORDINATE_TYPE>
1
5
255
> <PUBCHEM_BONDANNOTATIONS>
9  1  3
12  46  6
10  2  3
24  27  8
24  28  8
27  32  8
28  33  8
13  3  3
32  35  8
33  35  8
11  4  6
$$$$
