508361
  -OEChem-10302200282D
 58 62  0     1  0  0  0  0  0999 V2000
    8.5878   -0.7420    0.0000 O   0  0  0  0  0  0  0  0  0  0  0  0
   10.4851    0.8717    0.0000 O   0  0  0  0  0  0  0  0  0  0  0  0
   10.4851   -0.7377    0.0000 O   0  0  0  0  0  0  0  0  0  0  0  0
    8.2788    1.8271    0.0000 O   0  0  0  0  0  0  0  0  0  0  0  0
    5.0000   -1.6651    0.0000 O   0  0  0  0  0  0  0  0  0  0  0  0
    5.0000    1.7990    0.0000 O   0  0  0  0  0  0  0  0  0  0  0  0
    6.5000   -0.7990    0.0000 N   0  0  0  0  0  0  0  0  0  0  0  0
    5.0000    0.0670    0.0000 N   0  0  0  0  0  0  0  0  0  0  0  0
    7.0000   -1.6651    0.0000 C   0  0  0  0  0  0  0  0  0  0  0  0
    7.0000    0.0670    0.0000 C   0  0  2  0  0  0  0  0  0  0  0  0
    8.0000    0.0670    0.0000 C   0  0  3  0  0  0  0  0  0  0  0  0
    7.0000   -2.6651    0.0000 C   0  0  0  0  0  0  0  0  0  0  0  0
    7.8660   -2.1651    0.0000 C   0  0  0  0  0  0  0  0  0  0  0  0
    8.5878    0.8760    0.0000 C   0  0  1  0  0  0  0  0  0  0  0  0
    9.5388    0.5670    0.0000 C   0  0  3  0  0  0  0  0  0  0  0  0
    9.5388   -0.4330    0.0000 C   0  0  3  0  0  0  0  0  0  0  0  0
    6.5000    0.9330    0.0000 C   0  0  0  0  0  0  0  0  0  0  0  0
    5.5000   -0.7990    0.0000 C   0  0  0  0  0  0  0  0  0  0  0  0
   11.0687    0.0670    0.0000 C   0  0  0  0  0  0  0  0  0  0  0  0
    5.5000    0.9330    0.0000 C   0  0  0  0  0  0  0  0  0  0  0  0
   11.8777   -0.5208    0.0000 C   0  0  0  0  0  0  0  0  0  0  0  0
   11.8777    0.6548    0.0000 C   0  0  0  0  0  0  0  0  0  0  0  0
    4.0000    0.0670    0.0000 C   0  0  0  0  0  0  0  0  0  0  0  0
    8.9479    2.5702    0.0000 C   0  0  0  0  0  0  0  0  0  0  0  0
    3.5000    0.9330    0.0000 C   0  0  0  0  0  0  0  0  0  0  0  0
    2.5000    0.9330    0.0000 C   0  0  0  0  0  0  0  0  0  0  0  0
    4.0000    1.7990    0.0000 C   0  0  0  0  0  0  0  0  0  0  0  0
    2.0000    1.7990    0.0000 C   0  0  0  0  0  0  0  0  0  0  0  0
    3.5000    2.6651    0.0000 C   0  0  0  0  0  0  0  0  0  0  0  0
    2.5000    2.6651    0.0000 C   0  0  0  0  0  0  0  0  0  0  0  0
    7.4384   -1.2267    0.0000 H   0  0  0  0  0  0  0  0  0  0  0  0
    7.4250    0.8031    0.0000 H   0  0  0  0  0  0  0  0  0  0  0  0
    7.7185   -0.4854    0.0000 H   0  0  0  0  0  0  0  0  0  0  0  0
    6.3894   -2.7727    0.0000 H   0  0  0  0  0  0  0  0  0  0  0  0
    7.2120   -3.2477    0.0000 H   0  0  0  0  0  0  0  0  0  0  0  0
    8.2646   -2.6400    0.0000 H   0  0  0  0  0  0  0  0  0  0  0  0
    8.2646   -1.6901    0.0000 H   0  0  0  0  0  0  0  0  0  0  0  0
    9.0262    1.3144    0.0000 H   0  0  0  0  0  0  0  0  0  0  0  0
    9.5396    1.1870    0.0000 H   0  0  0  0  0  0  0  0  0  0  0  0
    9.5396   -1.0530    0.0000 H   0  0  0  0  0  0  0  0  0  0  0  0
    7.0826    1.1451    0.0000 H   0  0  0  0  0  0  0  0  0  0  0  0
    6.3923    1.5436    0.0000 H   0  0  0  0  0  0  0  0  0  0  0  0
   11.5133   -1.0224    0.0000 H   0  0  0  0  0  0  0  0  0  0  0  0
   12.3793   -0.8852    0.0000 H   0  0  0  0  0  0  0  0  0  0  0  0
   12.2421   -0.0192    0.0000 H   0  0  0  0  0  0  0  0  0  0  0  0
   12.2421    0.1532    0.0000 H   0  0  0  0  0  0  0  0  0  0  0  0
   12.3793    1.0192    0.0000 H   0  0  0  0  0  0  0  0  0  0  0  0
   11.5133    1.1564    0.0000 H   0  0  0  0  0  0  0  0  0  0  0  0
    3.4174   -0.1451    0.0000 H   0  0  0  0  0  0  0  0  0  0  0  0
    4.1077   -0.5436    0.0000 H   0  0  0  0  0  0  0  0  0  0  0  0
    9.4086    2.1553    0.0000 H   0  0  0  0  0  0  0  0  0  0  0  0
    9.3628    3.0310    0.0000 H   0  0  0  0  0  0  0  0  0  0  0  0
    8.4872    2.9851    0.0000 H   0  0  0  0  0  0  0  0  0  0  0  0
    2.1900    0.3961    0.0000 H   0  0  0  0  0  0  0  0  0  0  0  0
    4.6200    1.7990    0.0000 H   0  0  0  0  0  0  0  0  0  0  0  0
    1.3800    1.7990    0.0000 H   0  0  0  0  0  0  0  0  0  0  0  0
    3.8100    3.2020    0.0000 H   0  0  0  0  0  0  0  0  0  0  0  0
    2.1900    3.2020    0.0000 H   0  0  0  0  0  0  0  0  0  0  0  0
  1 11  1  0  0  0  0
  1 16  1  0  0  0  0
  2 15  1  0  0  0  0
  2 19  1  0  0  0  0
  3 16  1  0  0  0  0
  3 19  1  0  0  0  0
 14  4  1  6  0  0  0
  4 24  1  0  0  0  0
  5 18  2  0  0  0  0
  6 20  2  0  0  0  0
  7  9  1  0  0  0  0
  7 10  1  0  0  0  0
  7 18  1  0  0  0  0
  8 18  1  0  0  0  0
  8 20  1  0  0  0  0
  8 23  1  0  0  0  0
  9 12  1  0  0  0  0
  9 13  1  0  0  0  0
  9 31  1  0  0  0  0
 10 11  1  0  0  0  0
 10 17  1  0  0  0  0
 10 32  1  6  0  0  0
 11 14  1  0  0  0  0
 11 33  1  0  0  0  0
 12 13  1  0  0  0  0
 12 34  1  0  0  0  0
 12 35  1  0  0  0  0
 13 36  1  0  0  0  0
 13 37  1  0  0  0  0
 14 15  1  0  0  0  0
 14 38  1  0  0  0  0
 15 16  1  0  0  0  0
 15 39  1  0  0  0  0
 16 40  1  0  0  0  0
 17 20  1  0  0  0  0
 17 41  1  0  0  0  0
 17 42  1  0  0  0  0
 19 21  1  0  0  0  0
 19 22  1  0  0  0  0
 21 43  1  0  0  0  0
 21 44  1  0  0  0  0
 21 45  1  0  0  0  0
 22 46  1  0  0  0  0
 22 47  1  0  0  0  0
 22 48  1  0  0  0  0
 23 25  1  0  0  0  0
 23 49  1  0  0  0  0
 23 50  1  0  0  0  0
 24 51  1  0  0  0  0
 24 52  1  0  0  0  0
 24 53  1  0  0  0  0
 25 26  2  0  0  0  0
 25 27  1  0  0  0  0
 26 28  1  0  0  0  0
 26 54  1  0  0  0  0
 27 29  2  0  0  0  0
 27 55  1  0  0  0  0
 28 30  2  0  0  0  0
 28 56  1  0  0  0  0
 29 30  1  0  0  0  0
 29 57  1  0  0  0  0
 30 58  1  0  0  0  0
M  END
> <PUBCHEM_COMPOUND_CID>
508361
> <PUBCHEM_COMPOUND_CANONICALIZED>
1
> <PUBCHEM_CACTVS_COMPLEXITY>
689
> <PUBCHEM_CACTVS_HBOND_ACCEPTOR>
6
> <PUBCHEM_CACTVS_HBOND_DONOR>
0
> <PUBCHEM_CACTVS_ROTATABLE_BOND>
5
> <PUBCHEM_CACTVS_SUBSKEYS>
AAADceB7OAAAAAAAAAAAAAAAGAAAASJAAAA8QAAAAAASAAABAAAAHgAAAAAADDzxmAczCIMABACIAiFSEACCAAAgAAAIiAEIBIibIDqA0RGnIAhvhyKeiAf63CPOAAAAAAAAAAAAAAAAAAAAAAAAAAAAAA==
> <PUBCHEM_IUPAC_OPENEYE_NAME>
(6S)-3-benzyl-1-cyclopropyl-6-[(6S)-6-methoxy-2,2-dimethyl-3a,5,6,6a-tetrahydrofuro[2,3-d][1,3]dioxol-5-yl]hexahydropyrimidine-2,4-dione
> <PUBCHEM_IUPAC_CAS_NAME>
(6S)-1-cyclopropyl-6-[(6S)-6-methoxy-2,2-dimethyl-3a,5,6,6a-tetrahydrofuro[2,3-d][1,3]dioxol-5-yl]-3-(phenylmethyl)-1,3-diazinane-2,4-dione
> <PUBCHEM_IUPAC_NAME_MARKUP>
(6<I>S</I>)-3-benzyl-1-cyclopropyl-6-[(6<I>S</I>)-6-methoxy-2,2-dimethyl-3<I>a</I>,5,6,6<I>a</I>-tetrahydrofuro[2,3-d][1,3]dioxol-5-yl]-1,3-diazinane-2,4-dione
> <PUBCHEM_IUPAC_NAME>
(6S)-3-benzyl-1-cyclopropyl-6-[(6S)-6-methoxy-2,2-dimethyl-3a,5,6,6a-tetrahydrofuro[2,3-d][1,3]dioxol-5-yl]-1,3-diazinane-2,4-dione
> <PUBCHEM_IUPAC_SYSTEMATIC_NAME>
(6S)-1-cyclopropyl-6-[(6S)-6-methoxy-2,2-dimethyl-3a,5,6,6a-tetrahydrofuro[2,3-d][1,3]dioxol-5-yl]-3-(phenylmethyl)-1,3-diazinane-2,4-dione
> <PUBCHEM_IUPAC_TRADITIONAL_NAME>
(6S)-3-benzyl-1-cyclopropyl-6-[(6S)-6-methoxy-2,2-dimethyl-3a,5,6,6a-tetrahydrofuro[2,3-d][1,3]dioxol-5-yl]-5,6-dihydrouracil
> <PUBCHEM_IUPAC_INCHI>
InChI=1S/C22H28N2O6/c1-22(2)29-19-18(27-3)17(28-20(19)30-22)15-11-16(25)23(12-13-7-5-4-6-8-13)21(26)24(15)14-9-10-14/h4-8,14-15,17-20H,9-12H2,1-3H3/t15-,17?,18-,19?,20?/m0/s1
> <PUBCHEM_IUPAC_INCHIKEY>
YXSGKOSOQKOFLZ-GGDKKLJYSA-N
> <PUBCHEM_XLOGP3_AA>
1.4
> <PUBCHEM_EXACT_MASS>
416.19473662
> <PUBCHEM_MOLECULAR_FORMULA>
C22H28N2O6
> <PUBCHEM_MOLECULAR_WEIGHT>
416.5
> <PUBCHEM_OPENEYE_CAN_SMILES>
CC1(OC2C(C(OC2O1)C3CC(=O)N(C(=O)N3C4CC4)CC5=CC=CC=C5)OC)C
> <PUBCHEM_OPENEYE_ISO_SMILES>
CC1(OC2[C@H](C(OC2O1)[C@@H]3CC(=O)N(C(=O)N3C4CC4)CC5=CC=CC=C5)OC)C
> <PUBCHEM_CACTVS_TPSA>
77.5
> <PUBCHEM_MONOISOTOPIC_WEIGHT>
416.19473662
> <PUBCHEM_TOTAL_CHARGE>
0
> <PUBCHEM_HEAVY_ATOM_COUNT>
30
> <PUBCHEM_ATOM_DEF_STEREO_COUNT>
2
> <PUBCHEM_ATOM_UDEF_STEREO_COUNT>
3
> <PUBCHEM_BOND_DEF_STEREO_COUNT>
0
> <PUBCHEM_BOND_UDEF_STEREO_COUNT>
0
> <PUBCHEM_ISOTOPIC_ATOM_COUNT>
0
> <PUBCHEM_COMPONENT_COUNT>
1
> <PUBCHEM_CACTVS_TAUTO_COUNT>
-1
> <PUBCHEM_COORDINATE_TYPE>
1
5
255
> <PUBCHEM_BONDANNOTATIONS>
11  1  3
10  32  6
15  2  3
25  26  8
25  27  8
26  28  8
27  29  8
28  30  8
29  30  8
16  3  3
14  4  6
$$$$
