508363
  -OEChem-10302200282D
 72 75  0     1  0  0  0  0  0999 V2000
    8.5878    1.3560    0.0000 O   0  0  0  0  0  0  0  0  0  0  0  0
   10.4851    2.9698    0.0000 O   0  0  0  0  0  0  0  0  0  0  0  0
   10.4851    1.3603    0.0000 O   0  0  0  0  0  0  0  0  0  0  0  0
    8.2788    3.9251    0.0000 O   0  0  0  0  0  0  0  0  0  0  0  0
    5.0000    0.4330    0.0000 O   0  0  0  0  0  0  0  0  0  0  0  0
    5.0000    3.8971    0.0000 O   0  0  0  0  0  0  0  0  0  0  0  0
    6.5000    1.2990    0.0000 N   0  0  0  0  0  0  0  0  0  0  0  0
    5.0000    2.1651    0.0000 N   0  0  0  0  0  0  0  0  0  0  0  0
    8.0000    2.1651    0.0000 C   0  0  3  0  0  0  0  0  0  0  0  0
    8.5878    2.9741    0.0000 C   0  0  1  0  0  0  0  0  0  0  0  0
    9.5388    2.6651    0.0000 C   0  0  3  0  0  0  0  0  0  0  0  0
    7.0000    2.1651    0.0000 C   0  0  2  0  0  0  0  0  0  0  0  0
    9.5388    1.6651    0.0000 C   0  0  3  0  0  0  0  0  0  0  0  0
   11.0687    2.1651    0.0000 C   0  0  0  0  0  0  0  0  0  0  0  0
    6.5000    3.0311    0.0000 C   0  0  0  0  0  0  0  0  0  0  0  0
    7.0000    0.4330    0.0000 C   0  0  0  0  0  0  0  0  0  0  0  0
    5.5000    1.2990    0.0000 C   0  0  0  0  0  0  0  0  0  0  0  0
    5.5000    3.0311    0.0000 C   0  0  0  0  0  0  0  0  0  0  0  0
   11.8777    1.5773    0.0000 C   0  0  0  0  0  0  0  0  0  0  0  0
   11.8777    2.7528    0.0000 C   0  0  0  0  0  0  0  0  0  0  0  0
    6.5000   -0.4330    0.0000 C   0  0  0  0  0  0  0  0  0  0  0  0
    8.9479    4.6683    0.0000 C   0  0  0  0  0  0  0  0  0  0  0  0
    4.0000    2.1651    0.0000 C   0  0  0  0  0  0  0  0  0  0  0  0
    7.0000   -1.2990    0.0000 C   0  0  0  0  0  0  0  0  0  0  0  0
    6.5000   -2.1651    0.0000 C   0  0  0  0  0  0  0  0  0  0  0  0
    3.5000    3.0311    0.0000 C   0  0  0  0  0  0  0  0  0  0  0  0
    7.0000   -3.0311    0.0000 C   0  0  0  0  0  0  0  0  0  0  0  0
    6.5000   -3.8971    0.0000 C   0  0  0  0  0  0  0  0  0  0  0  0
    2.5000    3.0311    0.0000 C   0  0  0  0  0  0  0  0  0  0  0  0
    4.0000    3.8971    0.0000 C   0  0  0  0  0  0  0  0  0  0  0  0
    2.0000    3.8971    0.0000 C   0  0  0  0  0  0  0  0  0  0  0  0
    3.5000    4.7631    0.0000 C   0  0  0  0  0  0  0  0  0  0  0  0
    7.0000   -4.7631    0.0000 C   0  0  0  0  0  0  0  0  0  0  0  0
    2.5000    4.7631    0.0000 C   0  0  0  0  0  0  0  0  0  0  0  0
    7.7185    2.7175    0.0000 H   0  0  0  0  0  0  0  0  0  0  0  0
    9.0262    3.4125    0.0000 H   0  0  0  0  0  0  0  0  0  0  0  0
    9.5396    3.2851    0.0000 H   0  0  0  0  0  0  0  0  0  0  0  0
    7.4250    1.4289    0.0000 H   0  0  0  0  0  0  0  0  0  0  0  0
    9.5396    1.0451    0.0000 H   0  0  0  0  0  0  0  0  0  0  0  0
    7.0826    3.2431    0.0000 H   0  0  0  0  0  0  0  0  0  0  0  0
    6.3923    3.6417    0.0000 H   0  0  0  0  0  0  0  0  0  0  0  0
    7.4750    0.0345    0.0000 H   0  0  0  0  0  0  0  0  0  0  0  0
    7.4750    0.8315    0.0000 H   0  0  0  0  0  0  0  0  0  0  0  0
   11.5133    1.0757    0.0000 H   0  0  0  0  0  0  0  0  0  0  0  0
   12.3793    1.2128    0.0000 H   0  0  0  0  0  0  0  0  0  0  0  0
   12.2421    2.0789    0.0000 H   0  0  0  0  0  0  0  0  0  0  0  0
   12.2421    2.2513    0.0000 H   0  0  0  0  0  0  0  0  0  0  0  0
   12.3793    3.1173    0.0000 H   0  0  0  0  0  0  0  0  0  0  0  0
   11.5133    3.2544    0.0000 H   0  0  0  0  0  0  0  0  0  0  0  0
    6.0250   -0.0345    0.0000 H   0  0  0  0  0  0  0  0  0  0  0  0
    6.0250   -0.8315    0.0000 H   0  0  0  0  0  0  0  0  0  0  0  0
    9.4086    4.2534    0.0000 H   0  0  0  0  0  0  0  0  0  0  0  0
    9.3628    5.1290    0.0000 H   0  0  0  0  0  0  0  0  0  0  0  0
    8.4872    5.0831    0.0000 H   0  0  0  0  0  0  0  0  0  0  0  0
    3.4174    1.9530    0.0000 H   0  0  0  0  0  0  0  0  0  0  0  0
    4.1077    1.5545    0.0000 H   0  0  0  0  0  0  0  0  0  0  0  0
    7.4750   -1.6976    0.0000 H   0  0  0  0  0  0  0  0  0  0  0  0
    7.4750   -0.9005    0.0000 H   0  0  0  0  0  0  0  0  0  0  0  0
    6.0250   -1.7665    0.0000 H   0  0  0  0  0  0  0  0  0  0  0  0
    6.0250   -2.5636    0.0000 H   0  0  0  0  0  0  0  0  0  0  0  0
    7.4750   -3.4296    0.0000 H   0  0  0  0  0  0  0  0  0  0  0  0
    7.4750   -2.6326    0.0000 H   0  0  0  0  0  0  0  0  0  0  0  0
    6.0250   -3.4986    0.0000 H   0  0  0  0  0  0  0  0  0  0  0  0
    6.0250   -4.2956    0.0000 H   0  0  0  0  0  0  0  0  0  0  0  0
    2.1900    2.4942    0.0000 H   0  0  0  0  0  0  0  0  0  0  0  0
    4.6200    3.8971    0.0000 H   0  0  0  0  0  0  0  0  0  0  0  0
    1.3800    3.8971    0.0000 H   0  0  0  0  0  0  0  0  0  0  0  0
    3.8100    5.3001    0.0000 H   0  0  0  0  0  0  0  0  0  0  0  0
    6.4631   -5.0731    0.0000 H   0  0  0  0  0  0  0  0  0  0  0  0
    7.3100   -5.3001    0.0000 H   0  0  0  0  0  0  0  0  0  0  0  0
    7.5369   -4.4531    0.0000 H   0  0  0  0  0  0  0  0  0  0  0  0
    2.1900    5.3001    0.0000 H   0  0  0  0  0  0  0  0  0  0  0  0
  1  9  1  0  0  0  0
  1 13  1  0  0  0  0
  2 11  1  0  0  0  0
  2 14  1  0  0  0  0
  3 13  1  0  0  0  0
  3 14  1  0  0  0  0
 10  4  1  6  0  0  0
  4 22  1  0  0  0  0
  5 17  2  0  0  0  0
  6 18  2  0  0  0  0
  7 12  1  0  0  0  0
  7 16  1  0  0  0  0
  7 17  1  0  0  0  0
  8 17  1  0  0  0  0
  8 18  1  0  0  0  0
  8 23  1  0  0  0  0
  9 10  1  0  0  0  0
  9 12  1  0  0  0  0
  9 35  1  0  0  0  0
 10 11  1  0  0  0  0
 10 36  1  0  0  0  0
 11 13  1  0  0  0  0
 11 37  1  0  0  0  0
 12 15  1  0  0  0  0
 12 38  1  6  0  0  0
 13 39  1  0  0  0  0
 14 19  1  0  0  0  0
 14 20  1  0  0  0  0
 15 18  1  0  0  0  0
 15 40  1  0  0  0  0
 15 41  1  0  0  0  0
 16 21  1  0  0  0  0
 16 42  1  0  0  0  0
 16 43  1  0  0  0  0
 19 44  1  0  0  0  0
 19 45  1  0  0  0  0
 19 46  1  0  0  0  0
 20 47  1  0  0  0  0
 20 48  1  0  0  0  0
 20 49  1  0  0  0  0
 21 24  1  0  0  0  0
 21 50  1  0  0  0  0
 21 51  1  0  0  0  0
 22 52  1  0  0  0  0
 22 53  1  0  0  0  0
 22 54  1  0  0  0  0
 23 26  1  0  0  0  0
 23 55  1  0  0  0  0
 23 56  1  0  0  0  0
 24 25  1  0  0  0  0
 24 57  1  0  0  0  0
 24 58  1  0  0  0  0
 25 27  1  0  0  0  0
 25 59  1  0  0  0  0
 25 60  1  0  0  0  0
 26 29  2  0  0  0  0
 26 30  1  0  0  0  0
 27 28  1  0  0  0  0
 27 61  1  0  0  0  0
 27 62  1  0  0  0  0
 28 33  1  0  0  0  0
 28 63  1  0  0  0  0
 28 64  1  0  0  0  0
 29 31  1  0  0  0  0
 29 65  1  0  0  0  0
 30 32  2  0  0  0  0
 30 66  1  0  0  0  0
 31 34  2  0  0  0  0
 31 67  1  0  0  0  0
 32 34  1  0  0  0  0
 32 68  1  0  0  0  0
 33 69  1  0  0  0  0
 33 70  1  0  0  0  0
 33 71  1  0  0  0  0
 34 72  1  0  0  0  0
M  END
> <PUBCHEM_COMPOUND_CID>
508363
> <PUBCHEM_COMPOUND_CANONICALIZED>
1
> <PUBCHEM_CACTVS_COMPLEXITY>
709
> <PUBCHEM_CACTVS_HBOND_ACCEPTOR>
6
> <PUBCHEM_CACTVS_HBOND_DONOR>
0
> <PUBCHEM_CACTVS_ROTATABLE_BOND>
10
> <PUBCHEM_CACTVS_SUBSKEYS>
AAADcfB7OAAAAAAAAAAAAAAAAAAAASJAAAA8QAAAAAASAAABAAAAHgAAAAAADDzxmAczCIMABACIAiFSEACCAAAgAAAIiAEIBIibIDqA0RGnIAhvhyKeiAf63CPOAAAAAAAAAAAAAAAAAAAAAAAAAAAAAA==
> <PUBCHEM_IUPAC_OPENEYE_NAME>
(6S)-3-benzyl-1-heptyl-6-[(6S)-6-methoxy-2,2-dimethyl-3a,5,6,6a-tetrahydrofuro[2,3-d][1,3]dioxol-5-yl]hexahydropyrimidine-2,4-dione
> <PUBCHEM_IUPAC_CAS_NAME>
(6S)-1-heptyl-6-[(6S)-6-methoxy-2,2-dimethyl-3a,5,6,6a-tetrahydrofuro[2,3-d][1,3]dioxol-5-yl]-3-(phenylmethyl)-1,3-diazinane-2,4-dione
> <PUBCHEM_IUPAC_NAME_MARKUP>
(6<I>S</I>)-3-benzyl-1-heptyl-6-[(6<I>S</I>)-6-methoxy-2,2-dimethyl-3<I>a</I>,5,6,6<I>a</I>-tetrahydrofuro[2,3-d][1,3]dioxol-5-yl]-1,3-diazinane-2,4-dione
> <PUBCHEM_IUPAC_NAME>
(6S)-3-benzyl-1-heptyl-6-[(6S)-6-methoxy-2,2-dimethyl-3a,5,6,6a-tetrahydrofuro[2,3-d][1,3]dioxol-5-yl]-1,3-diazinane-2,4-dione
> <PUBCHEM_IUPAC_SYSTEMATIC_NAME>
(6S)-1-heptyl-6-[(6S)-6-methoxy-2,2-dimethyl-3a,5,6,6a-tetrahydrofuro[2,3-d][1,3]dioxol-5-yl]-3-(phenylmethyl)-1,3-diazinane-2,4-dione
> <PUBCHEM_IUPAC_TRADITIONAL_NAME>
(6S)-3-benzyl-1-heptyl-6-[(6S)-6-methoxy-2,2-dimethyl-3a,5,6,6a-tetrahydrofuro[2,3-d][1,3]dioxol-5-yl]-5,6-dihydrouracil
> <PUBCHEM_IUPAC_INCHI>
InChI=1S/C26H38N2O6/c1-5-6-7-8-12-15-27-19(21-22(31-4)23-24(32-21)34-26(2,3)33-23)16-20(29)28(25(27)30)17-18-13-10-9-11-14-18/h9-11,13-14,19,21-24H,5-8,12,15-17H2,1-4H3/t19-,21?,22-,23?,24?/m0/s1
> <PUBCHEM_IUPAC_INCHIKEY>
LVSDCVDQZOLROB-FKJUHHTKSA-N
> <PUBCHEM_XLOGP3_AA>
3.7
> <PUBCHEM_EXACT_MASS>
474.27298694
> <PUBCHEM_MOLECULAR_FORMULA>
C26H38N2O6
> <PUBCHEM_MOLECULAR_WEIGHT>
474.6
> <PUBCHEM_OPENEYE_CAN_SMILES>
CCCCCCCN1C(CC(=O)N(C1=O)CC2=CC=CC=C2)C3C(C4C(O3)OC(O4)(C)C)OC
> <PUBCHEM_OPENEYE_ISO_SMILES>
CCCCCCCN1[C@@H](CC(=O)N(C1=O)CC2=CC=CC=C2)C3[C@@H](C4C(O3)OC(O4)(C)C)OC
> <PUBCHEM_CACTVS_TPSA>
77.5
> <PUBCHEM_MONOISOTOPIC_WEIGHT>
474.27298694
> <PUBCHEM_TOTAL_CHARGE>
0
> <PUBCHEM_HEAVY_ATOM_COUNT>
34
> <PUBCHEM_ATOM_DEF_STEREO_COUNT>
2
> <PUBCHEM_ATOM_UDEF_STEREO_COUNT>
3
> <PUBCHEM_BOND_DEF_STEREO_COUNT>
0
> <PUBCHEM_BOND_UDEF_STEREO_COUNT>
0
> <PUBCHEM_ISOTOPIC_ATOM_COUNT>
0
> <PUBCHEM_COMPONENT_COUNT>
1
> <PUBCHEM_CACTVS_TAUTO_COUNT>
-1
> <PUBCHEM_COORDINATE_TYPE>
1
5
255
> <PUBCHEM_BONDANNOTATIONS>
9  1  3
12  38  6
11  2  3
26  29  8
26  30  8
29  31  8
13  3  3
30  32  8
31  34  8
32  34  8
10  4  6
$$$$
