508362
  -OEChem-10302200282D
 60 63  0     1  0  0  0  0  0999 V2000
    2.0000    0.9135    0.0000 F   0  0  0  0  0  0  0  0  0  0  0  0
    9.5878    0.1044    0.0000 O   0  0  0  0  0  0  0  0  0  0  0  0
   11.4851    1.7182    0.0000 O   0  0  0  0  0  0  0  0  0  0  0  0
   11.4851    0.1087    0.0000 O   0  0  0  0  0  0  0  0  0  0  0  0
    9.2788    2.6735    0.0000 O   0  0  0  0  0  0  0  0  0  0  0  0
    6.0000    2.6455    0.0000 O   0  0  0  0  0  0  0  0  0  0  0  0
    6.0000   -0.8186    0.0000 O   0  0  0  0  0  0  0  0  0  0  0  0
    7.5000    0.0474    0.0000 N   0  0  0  0  0  0  0  0  0  0  0  0
    6.0000    0.9135    0.0000 N   0  0  0  0  0  0  0  0  0  0  0  0
    9.0000    0.9135    0.0000 C   0  0  3  0  0  0  0  0  0  0  0  0
   10.5388    1.4135    0.0000 C   0  0  3  0  0  0  0  0  0  0  0  0
    9.5878    1.7225    0.0000 C   0  0  1  0  0  0  0  0  0  0  0  0
    8.0000    0.9135    0.0000 C   0  0  2  0  0  0  0  0  0  0  0  0
   10.5388    0.4135    0.0000 C   0  0  3  0  0  0  0  0  0  0  0  0
   12.0687    0.9135    0.0000 C   0  0  0  0  0  0  0  0  0  0  0  0
    7.5000    1.7795    0.0000 C   0  0  0  0  0  0  0  0  0  0  0  0
    8.0000   -0.8186    0.0000 C   0  0  0  0  0  0  0  0  0  0  0  0
    6.5000    1.7795    0.0000 C   0  0  0  0  0  0  0  0  0  0  0  0
    6.5000    0.0474    0.0000 C   0  0  0  0  0  0  0  0  0  0  0  0
   12.8777    0.3257    0.0000 C   0  0  0  0  0  0  0  0  0  0  0  0
   12.8777    1.5012    0.0000 C   0  0  0  0  0  0  0  0  0  0  0  0
    7.5000   -1.6846    0.0000 C   0  0  0  0  0  0  0  0  0  0  0  0
    9.9479    3.4167    0.0000 C   0  0  0  0  0  0  0  0  0  0  0  0
    5.0000    0.9135    0.0000 C   0  0  0  0  0  0  0  0  0  0  0  0
    8.0000   -2.5506    0.0000 C   0  0  0  0  0  0  0  0  0  0  0  0
    7.5000   -3.4167    0.0000 C   0  0  0  0  0  0  0  0  0  0  0  0
    4.5000    0.0474    0.0000 C   0  0  0  0  0  0  0  0  0  0  0  0
    4.5000    1.7795    0.0000 C   0  0  0  0  0  0  0  0  0  0  0  0
    3.5000    0.0474    0.0000 C   0  0  0  0  0  0  0  0  0  0  0  0
    3.5000    1.7795    0.0000 C   0  0  0  0  0  0  0  0  0  0  0  0
    3.0000    0.9135    0.0000 C   0  0  0  0  0  0  0  0  0  0  0  0
    8.7185    0.3610    0.0000 H   0  0  0  0  0  0  0  0  0  0  0  0
   10.5396    2.0335    0.0000 H   0  0  0  0  0  0  0  0  0  0  0  0
   10.0262    2.1609    0.0000 H   0  0  0  0  0  0  0  0  0  0  0  0
    8.4250    1.6496    0.0000 H   0  0  0  0  0  0  0  0  0  0  0  0
   10.5396   -0.2065    0.0000 H   0  0  0  0  0  0  0  0  0  0  0  0
    8.0826    1.9915    0.0000 H   0  0  0  0  0  0  0  0  0  0  0  0
    7.3923    2.3901    0.0000 H   0  0  0  0  0  0  0  0  0  0  0  0
    8.4750   -1.2171    0.0000 H   0  0  0  0  0  0  0  0  0  0  0  0
    8.4750   -0.4201    0.0000 H   0  0  0  0  0  0  0  0  0  0  0  0
   12.5133   -0.1759    0.0000 H   0  0  0  0  0  0  0  0  0  0  0  0
   13.3793   -0.0388    0.0000 H   0  0  0  0  0  0  0  0  0  0  0  0
   13.2421    0.8273    0.0000 H   0  0  0  0  0  0  0  0  0  0  0  0
   13.2421    0.9996    0.0000 H   0  0  0  0  0  0  0  0  0  0  0  0
   13.3793    1.8657    0.0000 H   0  0  0  0  0  0  0  0  0  0  0  0
   12.5133    2.0028    0.0000 H   0  0  0  0  0  0  0  0  0  0  0  0
    7.0250   -1.2861    0.0000 H   0  0  0  0  0  0  0  0  0  0  0  0
    7.0250   -2.0832    0.0000 H   0  0  0  0  0  0  0  0  0  0  0  0
   10.4086    3.0018    0.0000 H   0  0  0  0  0  0  0  0  0  0  0  0
   10.3628    3.8774    0.0000 H   0  0  0  0  0  0  0  0  0  0  0  0
    9.4872    3.8315    0.0000 H   0  0  0  0  0  0  0  0  0  0  0  0
    8.4750   -2.9492    0.0000 H   0  0  0  0  0  0  0  0  0  0  0  0
    8.4750   -2.1521    0.0000 H   0  0  0  0  0  0  0  0  0  0  0  0
    6.9631   -3.1067    0.0000 H   0  0  0  0  0  0  0  0  0  0  0  0
    7.1900   -3.9536    0.0000 H   0  0  0  0  0  0  0  0  0  0  0  0
    8.0369   -3.7267    0.0000 H   0  0  0  0  0  0  0  0  0  0  0  0
    4.8100   -0.4895    0.0000 H   0  0  0  0  0  0  0  0  0  0  0  0
    4.8100    2.3164    0.0000 H   0  0  0  0  0  0  0  0  0  0  0  0
    3.1900   -0.4895    0.0000 H   0  0  0  0  0  0  0  0  0  0  0  0
    3.1900    2.3164    0.0000 H   0  0  0  0  0  0  0  0  0  0  0  0
  1 31  1  0  0  0  0
  2 10  1  0  0  0  0
  2 14  1  0  0  0  0
  3 11  1  0  0  0  0
  3 15  1  0  0  0  0
  4 14  1  0  0  0  0
  4 15  1  0  0  0  0
 12  5  1  6  0  0  0
  5 23  1  0  0  0  0
  6 18  2  0  0  0  0
  7 19  2  0  0  0  0
  8 13  1  0  0  0  0
  8 17  1  0  0  0  0
  8 19  1  0  0  0  0
  9 18  1  0  0  0  0
  9 19  1  0  0  0  0
  9 24  1  0  0  0  0
 10 12  1  0  0  0  0
 10 13  1  0  0  0  0
 10 32  1  0  0  0  0
 11 12  1  0  0  0  0
 11 14  1  0  0  0  0
 11 33  1  0  0  0  0
 12 34  1  0  0  0  0
 13 16  1  0  0  0  0
 13 35  1  6  0  0  0
 14 36  1  0  0  0  0
 15 20  1  0  0  0  0
 15 21  1  0  0  0  0
 16 18  1  0  0  0  0
 16 37  1  0  0  0  0
 16 38  1  0  0  0  0
 17 22  1  0  0  0  0
 17 39  1  0  0  0  0
 17 40  1  0  0  0  0
 20 41  1  0  0  0  0
 20 42  1  0  0  0  0
 20 43  1  0  0  0  0
 21 44  1  0  0  0  0
 21 45  1  0  0  0  0
 21 46  1  0  0  0  0
 22 25  1  0  0  0  0
 22 47  1  0  0  0  0
 22 48  1  0  0  0  0
 23 49  1  0  0  0  0
 23 50  1  0  0  0  0
 23 51  1  0  0  0  0
 24 27  2  0  0  0  0
 24 28  1  0  0  0  0
 25 26  1  0  0  0  0
 25 52  1  0  0  0  0
 25 53  1  0  0  0  0
 26 54  1  0  0  0  0
 26 55  1  0  0  0  0
 26 56  1  0  0  0  0
 27 29  1  0  0  0  0
 27 57  1  0  0  0  0
 28 30  2  0  0  0  0
 28 58  1  0  0  0  0
 29 31  2  0  0  0  0
 29 59  1  0  0  0  0
 30 31  1  0  0  0  0
 30 60  1  0  0  0  0
M  END
> <PUBCHEM_COMPOUND_CID>
508362
> <PUBCHEM_COMPOUND_CANONICALIZED>
1
> <PUBCHEM_CACTVS_COMPLEXITY>
683
> <PUBCHEM_CACTVS_HBOND_ACCEPTOR>
7
> <PUBCHEM_CACTVS_HBOND_DONOR>
0
> <PUBCHEM_CACTVS_ROTATABLE_BOND>
6
> <PUBCHEM_CACTVS_SUBSKEYS>
AAADceB7OQAAAAAAAAAAAAAAAAAAASJAAAA8QAAAAAASAAABAAAAHwAAAAAACDzxkA8zyIMABACIACVSUACCAAAhAgAIiAEIZIibIDrA0ZGnIAhvhyLeyCf63CPAAAAAAAAAAAAAAAAAAAAAAAAAAAAAAA==
> <PUBCHEM_IUPAC_OPENEYE_NAME>
(6S)-1-butyl-3-(4-fluorophenyl)-6-[(6S)-6-methoxy-2,2-dimethyl-3a,5,6,6a-tetrahydrofuro[2,3-d][1,3]dioxol-5-yl]hexahydropyrimidine-2,4-dione
> <PUBCHEM_IUPAC_CAS_NAME>
(6S)-1-butyl-3-(4-fluorophenyl)-6-[(6S)-6-methoxy-2,2-dimethyl-3a,5,6,6a-tetrahydrofuro[2,3-d][1,3]dioxol-5-yl]-1,3-diazinane-2,4-dione
> <PUBCHEM_IUPAC_NAME_MARKUP>
(6<I>S</I>)-1-butyl-3-(4-fluorophenyl)-6-[(6<I>S</I>)-6-methoxy-2,2-dimethyl-3<I>a</I>,5,6,6<I>a</I>-tetrahydrofuro[2,3-d][1,3]dioxol-5-yl]-1,3-diazinane-2,4-dione
> <PUBCHEM_IUPAC_NAME>
(6S)-1-butyl-3-(4-fluorophenyl)-6-[(6S)-6-methoxy-2,2-dimethyl-3a,5,6,6a-tetrahydrofuro[2,3-d][1,3]dioxol-5-yl]-1,3-diazinane-2,4-dione
> <PUBCHEM_IUPAC_SYSTEMATIC_NAME>
(6S)-1-butyl-3-(4-fluorophenyl)-6-[(6S)-6-methoxy-2,2-dimethyl-3a,5,6,6a-tetrahydrofuro[2,3-d][1,3]dioxol-5-yl]-1,3-diazinane-2,4-dione
> <PUBCHEM_IUPAC_TRADITIONAL_NAME>
(6S)-1-butyl-3-(4-fluorophenyl)-6-[(6S)-6-methoxy-2,2-dimethyl-3a,5,6,6a-tetrahydrofuro[2,3-d][1,3]dioxol-5-yl]-5,6-dihydrouracil
> <PUBCHEM_IUPAC_INCHI>
InChI=1S/C22H29FN2O6/c1-5-6-11-24-15(17-18(28-4)19-20(29-17)31-22(2,3)30-19)12-16(26)25(21(24)27)14-9-7-13(23)8-10-14/h7-10,15,17-20H,5-6,11-12H2,1-4H3/t15-,17?,18-,19?,20?/m0/s1
> <PUBCHEM_IUPAC_INCHIKEY>
GSNRAVINPOOLLV-GGDKKLJYSA-N
> <PUBCHEM_XLOGP3_AA>
2.2
> <PUBCHEM_EXACT_MASS>
436.20096481
> <PUBCHEM_MOLECULAR_FORMULA>
C22H29FN2O6
> <PUBCHEM_MOLECULAR_WEIGHT>
436.5
> <PUBCHEM_OPENEYE_CAN_SMILES>
CCCCN1C(CC(=O)N(C1=O)C2=CC=C(C=C2)F)C3C(C4C(O3)OC(O4)(C)C)OC
> <PUBCHEM_OPENEYE_ISO_SMILES>
CCCCN1[C@@H](CC(=O)N(C1=O)C2=CC=C(C=C2)F)C3[C@@H](C4C(O3)OC(O4)(C)C)OC
> <PUBCHEM_CACTVS_TPSA>
77.5
> <PUBCHEM_MONOISOTOPIC_WEIGHT>
436.20096481
> <PUBCHEM_TOTAL_CHARGE>
0
> <PUBCHEM_HEAVY_ATOM_COUNT>
31
> <PUBCHEM_ATOM_DEF_STEREO_COUNT>
2
> <PUBCHEM_ATOM_UDEF_STEREO_COUNT>
3
> <PUBCHEM_BOND_DEF_STEREO_COUNT>
0
> <PUBCHEM_BOND_UDEF_STEREO_COUNT>
0
> <PUBCHEM_ISOTOPIC_ATOM_COUNT>
0
> <PUBCHEM_COMPONENT_COUNT>
1
> <PUBCHEM_CACTVS_TAUTO_COUNT>
-1
> <PUBCHEM_COORDINATE_TYPE>
1
5
255
> <PUBCHEM_BONDANNOTATIONS>
13  35  6
10  2  3
24  27  8
24  28  8
27  29  8
28  30  8
29  31  8
11  3  3
30  31  8
14  4  3
12  5  6
$$$$
