508369
  -OEChem-10302200282D
 62 67  0     1  0  0  0  0  0999 V2000
    2.0000   -0.7327    0.0000 Cl  0  0  0  0  0  0  0  0  0  0  0  0
    9.5878   -1.5417    0.0000 O   0  0  0  0  0  0  0  0  0  0  0  0
   11.4851    0.0720    0.0000 O   0  0  0  0  0  0  0  0  0  0  0  0
   11.4851   -1.5374    0.0000 O   0  0  0  0  0  0  0  0  0  0  0  0
    9.2788    1.0274    0.0000 O   0  0  0  0  0  0  0  0  0  0  0  0
    6.0000   -2.4647    0.0000 O   0  0  0  0  0  0  0  0  0  0  0  0
    6.0000    0.9994    0.0000 O   0  0  0  0  0  0  0  0  0  0  0  0
    7.5000   -1.5987    0.0000 N   0  0  0  0  0  0  0  0  0  0  0  0
    6.0000   -0.7327    0.0000 N   0  0  0  0  0  0  0  0  0  0  0  0
    8.0000   -2.4647    0.0000 C   0  0  0  0  0  0  0  0  0  0  0  0
    8.0000   -0.7327    0.0000 C   0  0  2  0  0  0  0  0  0  0  0  0
    9.0000   -0.7327    0.0000 C   0  0  3  0  0  0  0  0  0  0  0  0
    8.0000   -3.4647    0.0000 C   0  0  0  0  0  0  0  0  0  0  0  0
    8.8660   -2.9647    0.0000 C   0  0  0  0  0  0  0  0  0  0  0  0
    9.5878    0.0763    0.0000 C   0  0  1  0  0  0  0  0  0  0  0  0
   10.5388   -0.2327    0.0000 C   0  0  3  0  0  0  0  0  0  0  0  0
   10.5388   -1.2327    0.0000 C   0  0  3  0  0  0  0  0  0  0  0  0
    7.5000    0.1333    0.0000 C   0  0  0  0  0  0  0  0  0  0  0  0
    6.5000   -1.5987    0.0000 C   0  0  0  0  0  0  0  0  0  0  0  0
   12.0687   -0.7327    0.0000 C   0  0  0  0  0  0  0  0  0  0  0  0
    6.5000    0.1333    0.0000 C   0  0  0  0  0  0  0  0  0  0  0  0
   12.8777   -1.3205    0.0000 C   0  0  0  0  0  0  0  0  0  0  0  0
   12.8777   -0.1449    0.0000 C   0  0  0  0  0  0  0  0  0  0  0  0
    5.0000   -0.7327    0.0000 C   0  0  0  0  0  0  0  0  0  0  0  0
    9.9479    1.7705    0.0000 C   0  0  0  0  0  0  0  0  0  0  0  0
    4.5000   -1.5987    0.0000 C   0  0  0  0  0  0  0  0  0  0  0  0
    4.5000    0.1333    0.0000 C   0  0  0  0  0  0  0  0  0  0  0  0
    9.6389    2.7216    0.0000 C   0  0  0  0  0  0  0  0  0  0  0  0
   10.9260    1.5626    0.0000 C   0  0  0  0  0  0  0  0  0  0  0  0
    3.5000   -1.5987    0.0000 C   0  0  0  0  0  0  0  0  0  0  0  0
    3.5000    0.1333    0.0000 C   0  0  0  0  0  0  0  0  0  0  0  0
   10.3080    3.4647    0.0000 C   0  0  0  0  0  0  0  0  0  0  0  0
   11.5952    2.3058    0.0000 C   0  0  0  0  0  0  0  0  0  0  0  0
    3.0000   -0.7327    0.0000 C   0  0  0  0  0  0  0  0  0  0  0  0
   11.2862    3.2568    0.0000 C   0  0  0  0  0  0  0  0  0  0  0  0
    8.4384   -2.0263    0.0000 H   0  0  0  0  0  0  0  0  0  0  0  0
    8.4250    0.0034    0.0000 H   0  0  0  0  0  0  0  0  0  0  0  0
    8.7185   -1.2851    0.0000 H   0  0  0  0  0  0  0  0  0  0  0  0
    7.3894   -3.5724    0.0000 H   0  0  0  0  0  0  0  0  0  0  0  0
    8.2120   -4.0473    0.0000 H   0  0  0  0  0  0  0  0  0  0  0  0
    9.2646   -3.4397    0.0000 H   0  0  0  0  0  0  0  0  0  0  0  0
    9.2646   -2.4898    0.0000 H   0  0  0  0  0  0  0  0  0  0  0  0
   10.0262    0.5147    0.0000 H   0  0  0  0  0  0  0  0  0  0  0  0
   10.5396    0.3873    0.0000 H   0  0  0  0  0  0  0  0  0  0  0  0
   10.5396   -1.8527    0.0000 H   0  0  0  0  0  0  0  0  0  0  0  0
    8.0826    0.3454    0.0000 H   0  0  0  0  0  0  0  0  0  0  0  0
    7.3923    0.7439    0.0000 H   0  0  0  0  0  0  0  0  0  0  0  0
   12.5133   -1.8221    0.0000 H   0  0  0  0  0  0  0  0  0  0  0  0
   13.3793   -1.6849    0.0000 H   0  0  0  0  0  0  0  0  0  0  0  0
   13.2421   -0.8189    0.0000 H   0  0  0  0  0  0  0  0  0  0  0  0
   13.2421   -0.6465    0.0000 H   0  0  0  0  0  0  0  0  0  0  0  0
   13.3793    0.2195    0.0000 H   0  0  0  0  0  0  0  0  0  0  0  0
   12.5133    0.3567    0.0000 H   0  0  0  0  0  0  0  0  0  0  0  0
    4.8100   -2.1356    0.0000 H   0  0  0  0  0  0  0  0  0  0  0  0
    4.8100    0.6703    0.0000 H   0  0  0  0  0  0  0  0  0  0  0  0
    9.0324    2.8505    0.0000 H   0  0  0  0  0  0  0  0  0  0  0  0
   11.1176    0.9730    0.0000 H   0  0  0  0  0  0  0  0  0  0  0  0
    3.1900   -2.1356    0.0000 H   0  0  0  0  0  0  0  0  0  0  0  0
    3.1900    0.6703    0.0000 H   0  0  0  0  0  0  0  0  0  0  0  0
   10.1164    4.0544    0.0000 H   0  0  0  0  0  0  0  0  0  0  0  0
   12.2016    2.1769    0.0000 H   0  0  0  0  0  0  0  0  0  0  0  0
   11.7010    3.7176    0.0000 H   0  0  0  0  0  0  0  0  0  0  0  0
  1 34  1  0  0  0  0
  2 12  1  0  0  0  0
  2 17  1  0  0  0  0
  3 16  1  0  0  0  0
  3 20  1  0  0  0  0
  4 17  1  0  0  0  0
  4 20  1  0  0  0  0
 15  5  1  6  0  0  0
  5 25  1  0  0  0  0
  6 19  2  0  0  0  0
  7 21  2  0  0  0  0
  8 10  1  0  0  0  0
  8 11  1  0  0  0  0
  8 19  1  0  0  0  0
  9 19  1  0  0  0  0
  9 21  1  0  0  0  0
  9 24  1  0  0  0  0
 10 13  1  0  0  0  0
 10 14  1  0  0  0  0
 10 36  1  0  0  0  0
 11 12  1  0  0  0  0
 11 18  1  0  0  0  0
 11 37  1  6  0  0  0
 12 15  1  0  0  0  0
 12 38  1  0  0  0  0
 13 14  1  0  0  0  0
 13 39  1  0  0  0  0
 13 40  1  0  0  0  0
 14 41  1  0  0  0  0
 14 42  1  0  0  0  0
 15 16  1  0  0  0  0
 15 43  1  0  0  0  0
 16 17  1  0  0  0  0
 16 44  1  0  0  0  0
 17 45  1  0  0  0  0
 18 21  1  0  0  0  0
 18 46  1  0  0  0  0
 18 47  1  0  0  0  0
 20 22  1  0  0  0  0
 20 23  1  0  0  0  0
 22 48  1  0  0  0  0
 22 49  1  0  0  0  0
 22 50  1  0  0  0  0
 23 51  1  0  0  0  0
 23 52  1  0  0  0  0
 23 53  1  0  0  0  0
 24 26  2  0  0  0  0
 24 27  1  0  0  0  0
 25 28  2  0  0  0  0
 25 29  1  0  0  0  0
 26 30  1  0  0  0  0
 26 54  1  0  0  0  0
 27 31  2  0  0  0  0
 27 55  1  0  0  0  0
 28 32  1  0  0  0  0
 28 56  1  0  0  0  0
 29 33  2  0  0  0  0
 29 57  1  0  0  0  0
 30 34  2  0  0  0  0
 30 58  1  0  0  0  0
 31 34  1  0  0  0  0
 31 59  1  0  0  0  0
 32 35  2  0  0  0  0
 32 60  1  0  0  0  0
 33 35  1  0  0  0  0
 33 61  1  0  0  0  0
 35 62  1  0  0  0  0
M  END
> <PUBCHEM_COMPOUND_CID>
508369
> <PUBCHEM_COMPOUND_CANONICALIZED>
1
> <PUBCHEM_CACTVS_COMPLEXITY>
823
> <PUBCHEM_CACTVS_HBOND_ACCEPTOR>
6
> <PUBCHEM_CACTVS_HBOND_DONOR>
0
> <PUBCHEM_CACTVS_ROTATABLE_BOND>
5
> <PUBCHEM_CACTVS_SUBSKEYS>
AAADceB7OAAEAAAAAAAAAAAAGAAAASJAAAA8YIAAAAASAAABQAAAHgIAAAAACD7xkCczzoMABACIACVSUACCCAAhJwAIiAEOboifJjrF85unOCjvxzPe6Cf63CPAAABAAAAAAAAAAIAAAAAAAAAAAAAAAA==
> <PUBCHEM_IUPAC_OPENEYE_NAME>
(6S)-3-(4-chlorophenyl)-1-cyclopropyl-6-[(6S)-2,2-dimethyl-6-phenoxy-3a,5,6,6a-tetrahydrofuro[2,3-d][1,3]dioxol-5-yl]hexahydropyrimidine-2,4-dione
> <PUBCHEM_IUPAC_CAS_NAME>
(6S)-3-(4-chlorophenyl)-1-cyclopropyl-6-[(6S)-2,2-dimethyl-6-phenoxy-3a,5,6,6a-tetrahydrofuro[2,3-d][1,3]dioxol-5-yl]-1,3-diazinane-2,4-dione
> <PUBCHEM_IUPAC_NAME_MARKUP>
(6<I>S</I>)-3-(4-chlorophenyl)-1-cyclopropyl-6-[(6<I>S</I>)-2,2-dimethyl-6-phenoxy-3<I>a</I>,5,6,6<I>a</I>-tetrahydrofuro[2,3-d][1,3]dioxol-5-yl]-1,3-diazinane-2,4-dione
> <PUBCHEM_IUPAC_NAME>
(6S)-3-(4-chlorophenyl)-1-cyclopropyl-6-[(6S)-2,2-dimethyl-6-phenoxy-3a,5,6,6a-tetrahydrofuro[2,3-d][1,3]dioxol-5-yl]-1,3-diazinane-2,4-dione
> <PUBCHEM_IUPAC_SYSTEMATIC_NAME>
(6S)-3-(4-chlorophenyl)-1-cyclopropyl-6-[(6S)-2,2-dimethyl-6-phenoxy-3a,5,6,6a-tetrahydrofuro[2,3-d][1,3]dioxol-5-yl]-1,3-diazinane-2,4-dione
> <PUBCHEM_IUPAC_TRADITIONAL_NAME>
(6S)-3-(4-chlorophenyl)-1-cyclopropyl-6-[(6S)-2,2-dimethyl-6-phenoxy-3a,5,6,6a-tetrahydrofuro[2,3-d][1,3]dioxol-5-yl]-5,6-dihydrouracil
> <PUBCHEM_IUPAC_INCHI>
InChI=1S/C26H27ClN2O6/c1-26(2)34-23-22(32-18-6-4-3-5-7-18)21(33-24(23)35-26)19-14-20(30)29(17-10-8-15(27)9-11-17)25(31)28(19)16-12-13-16/h3-11,16,19,21-24H,12-14H2,1-2H3/t19-,21?,22-,23?,24?/m0/s1
> <PUBCHEM_IUPAC_INCHIKEY>
FSFPHRWFYCPHGM-FKJUHHTKSA-N
> <PUBCHEM_XLOGP3_AA>
3.9
> <PUBCHEM_EXACT_MASS>
498.1557643
> <PUBCHEM_MOLECULAR_FORMULA>
C26H27ClN2O6
> <PUBCHEM_MOLECULAR_WEIGHT>
499.0
> <PUBCHEM_OPENEYE_CAN_SMILES>
CC1(OC2C(C(OC2O1)C3CC(=O)N(C(=O)N3C4CC4)C5=CC=C(C=C5)Cl)OC6=CC=CC=C6)C
> <PUBCHEM_OPENEYE_ISO_SMILES>
CC1(OC2[C@H](C(OC2O1)[C@@H]3CC(=O)N(C(=O)N3C4CC4)C5=CC=C(C=C5)Cl)OC6=CC=CC=C6)C
> <PUBCHEM_CACTVS_TPSA>
77.5
> <PUBCHEM_MONOISOTOPIC_WEIGHT>
498.1557643
> <PUBCHEM_TOTAL_CHARGE>
0
> <PUBCHEM_HEAVY_ATOM_COUNT>
35
> <PUBCHEM_ATOM_DEF_STEREO_COUNT>
2
> <PUBCHEM_ATOM_UDEF_STEREO_COUNT>
3
> <PUBCHEM_BOND_DEF_STEREO_COUNT>
0
> <PUBCHEM_BOND_UDEF_STEREO_COUNT>
0
> <PUBCHEM_ISOTOPIC_ATOM_COUNT>
0
> <PUBCHEM_COMPONENT_COUNT>
1
> <PUBCHEM_CACTVS_TAUTO_COUNT>
-1
> <PUBCHEM_COORDINATE_TYPE>
1
5
255
> <PUBCHEM_BONDANNOTATIONS>
11  37  6
12  2  3
24  26  8
24  27  8
25  28  8
25  29  8
26  30  8
27  31  8
28  32  8
29  33  8
16  3  3
30  34  8
31  34  8
32  35  8
33  35  8
17  4  3
15  5  6
$$$$
