508435
  -OEChem-10302200282D
 50 51  0     1  0  0  0  0  0999 V2000
    3.4600    1.4139    0.0000 S   0  0  0  0  0  0  0  0  0  0  0  0
    5.3568    3.1739    0.0000 O   0  0  0  0  0  0  0  0  0  0  0  0
    7.7233    1.4650    0.0000 O   0  0  0  0  0  0  0  0  0  0  0  0
    6.5643    2.7521    0.0000 O   0  0  0  0  0  0  0  0  0  0  0  0
    2.5369   -0.1739    0.0000 O   0  0  0  0  0  0  0  0  0  0  0  0
    2.5369   -2.1739    0.0000 O   0  0  0  0  0  0  0  0  0  0  0  0
    5.0780    1.4139    0.0000 N   0  0  0  0  0  0  0  0  0  0  0  0
    6.0291    1.1048    0.0000 C   0  0  3  0  0  0  0  0  0  0  0  0
    4.2690    0.8261    0.0000 C   0  0  3  0  0  0  0  0  0  0  0  0
    6.6982    0.3617    0.0000 C   0  0  0  0  0  0  0  0  0  0  0  0
    3.7690    2.3649    0.0000 C   0  0  3  0  0  0  0  0  0  0  0  0
    4.7690    2.3649    0.0000 C   0  0  0  0  0  0  0  0  0  0  0  0
    4.2690   -0.1739    0.0000 C   0  0  0  0  0  0  0  0  0  0  0  0
    6.7722    1.7740    0.0000 C   0  0  0  0  0  0  0  0  0  0  0  0
    7.6763    0.5696    0.0000 C   0  0  0  0  0  0  0  0  0  0  0  0
    6.3892   -0.5893    0.0000 C   0  0  0  0  0  0  0  0  0  0  0  0
    3.1812    3.1739    0.0000 C   0  0  0  0  0  0  0  0  0  0  0  0
    3.4030   -0.6739    0.0000 C   0  0  0  0  0  0  0  0  0  0  0  0
    5.1350   -0.6739    0.0000 C   0  0  0  0  0  0  0  0  0  0  0  0
    3.4030   -1.6739    0.0000 C   0  0  0  0  0  0  0  0  0  0  0  0
    5.1350   -1.6739    0.0000 C   0  0  0  0  0  0  0  0  0  0  0  0
    4.2690   -2.1739    0.0000 C   0  0  0  0  0  0  0  0  0  0  0  0
    8.4664    2.1341    0.0000 C   0  0  0  0  0  0  0  0  0  0  0  0
    9.4175    1.8251    0.0000 C   0  0  0  0  0  0  0  0  0  0  0  0
    2.5369   -3.1739    0.0000 C   0  0  0  0  0  0  0  0  0  0  0  0
    5.9002    1.7113    0.0000 H   0  0  0  0  0  0  0  0  0  0  0  0
    4.8214    0.5446    0.0000 H   0  0  0  0  0  0  0  0  0  0  0  0
    6.0917    0.2328    0.0000 H   0  0  0  0  0  0  0  0  0  0  0  0
    3.1566    2.2679    0.0000 H   0  0  0  0  0  0  0  0  0  0  0  0
    7.8052   -0.0368    0.0000 H   0  0  0  0  0  0  0  0  0  0  0  0
    8.2828    0.6985    0.0000 H   0  0  0  0  0  0  0  0  0  0  0  0
    7.5474    1.1761    0.0000 H   0  0  0  0  0  0  0  0  0  0  0  0
    5.7996   -0.3978    0.0000 H   0  0  0  0  0  0  0  0  0  0  0  0
    6.1977   -1.1790    0.0000 H   0  0  0  0  0  0  0  0  0  0  0  0
    6.9789   -0.7809    0.0000 H   0  0  0  0  0  0  0  0  0  0  0  0
    3.6828    3.5384    0.0000 H   0  0  0  0  0  0  0  0  0  0  0  0
    2.8168    3.6755    0.0000 H   0  0  0  0  0  0  0  0  0  0  0  0
    2.6796    2.8095    0.0000 H   0  0  0  0  0  0  0  0  0  0  0  0
    5.6720   -0.3639    0.0000 H   0  0  0  0  0  0  0  0  0  0  0  0
    5.6720   -1.9839    0.0000 H   0  0  0  0  0  0  0  0  0  0  0  0
    4.2690   -2.7939    0.0000 H   0  0  0  0  0  0  0  0  0  0  0  0
    8.7575    2.6815    0.0000 H   0  0  0  0  0  0  0  0  0  0  0  0
    7.9778    2.5158    0.0000 H   0  0  0  0  0  0  0  0  0  0  0  0
    2.0000   -0.4839    0.0000 H   0  0  0  0  0  0  0  0  0  0  0  0
    9.2259    1.2354    0.0000 H   0  0  0  0  0  0  0  0  0  0  0  0
   10.0071    1.6335    0.0000 H   0  0  0  0  0  0  0  0  0  0  0  0
    9.6090    2.4147    0.0000 H   0  0  0  0  0  0  0  0  0  0  0  0
    1.9169   -3.1739    0.0000 H   0  0  0  0  0  0  0  0  0  0  0  0
    2.5369   -3.7939    0.0000 H   0  0  0  0  0  0  0  0  0  0  0  0
    3.1569   -3.1739    0.0000 H   0  0  0  0  0  0  0  0  0  0  0  0
  1  9  1  0  0  0  0
  1 11  1  0  0  0  0
  2 12  2  0  0  0  0
  3 14  1  0  0  0  0
  3 23  1  0  0  0  0
  4 14  2  0  0  0  0
  5 18  1  0  0  0  0
  5 44  1  0  0  0  0
  6 20  1  0  0  0  0
  6 25  1  0  0  0  0
  7  8  1  0  0  0  0
  7  9  1  0  0  0  0
  7 12  1  0  0  0  0
  8 10  1  0  0  0  0
  8 14  1  0  0  0  0
  8 26  1  0  0  0  0
  9 13  1  0  0  0  0
  9 27  1  0  0  0  0
 10 15  1  0  0  0  0
 10 16  1  0  0  0  0
 10 28  1  0  0  0  0
 11 12  1  0  0  0  0
 11 17  1  0  0  0  0
 11 29  1  0  0  0  0
 13 18  2  0  0  0  0
 13 19  1  0  0  0  0
 15 30  1  0  0  0  0
 15 31  1  0  0  0  0
 15 32  1  0  0  0  0
 16 33  1  0  0  0  0
 16 34  1  0  0  0  0
 16 35  1  0  0  0  0
 17 36  1  0  0  0  0
 17 37  1  0  0  0  0
 17 38  1  0  0  0  0
 18 20  1  0  0  0  0
 19 21  2  0  0  0  0
 19 39  1  0  0  0  0
 20 22  2  0  0  0  0
 21 22  1  0  0  0  0
 21 40  1  0  0  0  0
 22 41  1  0  0  0  0
 23 24  1  0  0  0  0
 23 42  1  0  0  0  0
 23 43  1  0  0  0  0
 24 45  1  0  0  0  0
 24 46  1  0  0  0  0
 24 47  1  0  0  0  0
 25 48  1  0  0  0  0
 25 49  1  0  0  0  0
 25 50  1  0  0  0  0
M  END
> <PUBCHEM_COMPOUND_CID>
508435
> <PUBCHEM_COMPOUND_CANONICALIZED>
1
> <PUBCHEM_CACTVS_COMPLEXITY>
486
> <PUBCHEM_CACTVS_HBOND_ACCEPTOR>
6
> <PUBCHEM_CACTVS_HBOND_DONOR>
1
> <PUBCHEM_CACTVS_ROTATABLE_BOND>
7
> <PUBCHEM_CACTVS_SUBSKEYS>
AAADceB6OABAAAAAAAAAAAAAAAAAAWAAAAAwAAAAAAAAAAABAAAAHgQACAAADSzl2AayDoMABgiIAiHSGACCCABgIBAIiAGOjIgPJjKmsTuHcCtmxhG7uAewwDAOAAABAAAIQAAAAAIAABCAAAAAAAAAAA==
> <PUBCHEM_IUPAC_OPENEYE_NAME>
ethyl 2-[2-(2-hydroxy-3-methoxy-phenyl)-5-methyl-4-oxo-thiazolidin-3-yl]-3-methyl-butanoate
> <PUBCHEM_IUPAC_CAS_NAME>
2-[2-(2-hydroxy-3-methoxyphenyl)-5-methyl-4-oxo-3-thiazolidinyl]-3-methylbutanoic acid ethyl ester
> <PUBCHEM_IUPAC_NAME_MARKUP>
ethyl 2-[2-(2-hydroxy-3-methoxyphenyl)-5-methyl-4-oxo-1,3-thiazolidin-3-yl]-3-methylbutanoate
> <PUBCHEM_IUPAC_NAME>
ethyl 2-[2-(2-hydroxy-3-methoxyphenyl)-5-methyl-4-oxo-1,3-thiazolidin-3-yl]-3-methylbutanoate
> <PUBCHEM_IUPAC_SYSTEMATIC_NAME>
ethyl 2-[2-(3-methoxy-2-oxidanyl-phenyl)-5-methyl-4-oxidanylidene-1,3-thiazolidin-3-yl]-3-methyl-butanoate
> <PUBCHEM_IUPAC_TRADITIONAL_NAME>
2-[2-(2-hydroxy-3-methoxy-phenyl)-4-keto-5-methyl-thiazolidin-3-yl]-3-methyl-butyric acid ethyl ester
> <PUBCHEM_IUPAC_INCHI>
InChI=1S/C18H25NO5S/c1-6-24-18(22)14(10(2)3)19-16(21)11(4)25-17(19)12-8-7-9-13(23-5)15(12)20/h7-11,14,17,20H,6H2,1-5H3
> <PUBCHEM_IUPAC_INCHIKEY>
OHLFHIOUEVQOOH-UHFFFAOYSA-N
> <PUBCHEM_XLOGP3_AA>
3.5
> <PUBCHEM_EXACT_MASS>
367.14534407
> <PUBCHEM_MOLECULAR_FORMULA>
C18H25NO5S
> <PUBCHEM_MOLECULAR_WEIGHT>
367.5
> <PUBCHEM_OPENEYE_CAN_SMILES>
CCOC(=O)C(C(C)C)N1C(SC(C1=O)C)C2=C(C(=CC=C2)OC)O
> <PUBCHEM_OPENEYE_ISO_SMILES>
CCOC(=O)C(C(C)C)N1C(SC(C1=O)C)C2=C(C(=CC=C2)OC)O
> <PUBCHEM_CACTVS_TPSA>
101
> <PUBCHEM_MONOISOTOPIC_WEIGHT>
367.14534407
> <PUBCHEM_TOTAL_CHARGE>
0
> <PUBCHEM_HEAVY_ATOM_COUNT>
25
> <PUBCHEM_ATOM_DEF_STEREO_COUNT>
0
> <PUBCHEM_ATOM_UDEF_STEREO_COUNT>
3
> <PUBCHEM_BOND_DEF_STEREO_COUNT>
0
> <PUBCHEM_BOND_UDEF_STEREO_COUNT>
0
> <PUBCHEM_ISOTOPIC_ATOM_COUNT>
0
> <PUBCHEM_COMPONENT_COUNT>
1
> <PUBCHEM_CACTVS_TAUTO_COUNT>
-1
> <PUBCHEM_COORDINATE_TYPE>
1
5
255
> <PUBCHEM_BONDANNOTATIONS>
11  17  3
13  18  8
13  19  8
18  20  8
19  21  8
20  22  8
21  22  8
8  10  3
9  13  3
$$$$
