508437
  -OEChem-10302200282D
 58 61  0     1  0  0  0  0  0999 V2000
    7.1874   -1.6698    0.0000 S   0  0  0  0  0  0  0  0  0  0  0  0
    9.7746   -1.7186    0.0000 O   0  0  0  0  0  0  0  0  0  0  0  0
   10.4007    1.1325    0.0000 O   0  0  0  0  0  0  0  0  0  0  0  0
   10.3940   -0.5995    0.0000 O   0  0  0  0  0  0  0  0  0  0  0  0
    8.3940   -0.5918    0.0000 N   0  0  0  0  0  0  0  0  0  0  0  0
    4.5274    2.1681    0.0000 N   0  0  0  0  0  0  0  0  0  0  0  0
    7.3991   -0.6925    0.0000 C   0  0  3  0  0  0  0  0  0  0  0  0
    8.8974    0.2723    0.0000 C   0  0  3  0  0  0  0  0  0  0  0  0
    8.9012    1.2723    0.0000 C   0  0  0  0  0  0  0  0  0  0  0  0
    8.0515   -2.1732    0.0000 C   0  0  3  0  0  0  0  0  0  0  0  0
    8.7972   -1.5069    0.0000 C   0  0  0  0  0  0  0  0  0  0  0  0
    6.7328    0.0532    0.0000 C   0  0  0  0  0  0  0  0  0  0  0  0
    5.0274    0.6292    0.0000 C   0  0  0  0  0  0  0  0  0  0  0  0
    5.7123   -0.1555    0.0000 C   0  0  0  0  0  0  0  0  0  0  0  0
    9.8973    0.2684    0.0000 C   0  0  0  0  0  0  0  0  0  0  0  0
    5.3364    1.5803    0.0000 C   0  0  0  0  0  0  0  0  0  0  0  0
    9.7692    1.7689    0.0000 C   0  0  0  0  0  0  0  0  0  0  0  0
    8.0371    1.7756    0.0000 C   0  0  0  0  0  0  0  0  0  0  0  0
    7.0547    1.0439    0.0000 C   0  0  0  0  0  0  0  0  0  0  0  0
    8.1522   -3.1681    0.0000 C   0  0  0  0  0  0  0  0  0  0  0  0
    4.0274    0.6292    0.0000 C   0  0  0  0  0  0  0  0  0  0  0  0
    6.3518    1.8126    0.0000 C   0  0  0  0  0  0  0  0  0  0  0  0
    3.7183    1.5803    0.0000 C   0  0  0  0  0  0  0  0  0  0  0  0
    3.3424   -0.1555    0.0000 C   0  0  0  0  0  0  0  0  0  0  0  0
    4.5274    3.1681    0.0000 C   0  0  0  0  0  0  0  0  0  0  0  0
    2.7029    1.8126    0.0000 C   0  0  0  0  0  0  0  0  0  0  0  0
    2.3219    0.0532    0.0000 C   0  0  0  0  0  0  0  0  0  0  0  0
    2.0000    1.0439    0.0000 C   0  0  0  0  0  0  0  0  0  0  0  0
   11.4007    1.1287    0.0000 C   0  0  0  0  0  0  0  0  0  0  0  0
   11.9040    1.9928    0.0000 C   0  0  0  0  0  0  0  0  0  0  0  0
    7.6235   -0.1145    0.0000 H   0  0  0  0  0  0  0  0  0  0  0  0
    9.2053   -0.2658    0.0000 H   0  0  0  0  0  0  0  0  0  0  0  0
    9.4369    0.9602    0.0000 H   0  0  0  0  0  0  0  0  0  0  0  0
    7.5302   -2.5088    0.0000 H   0  0  0  0  0  0  0  0  0  0  0  0
    5.5139   -0.7429    0.0000 H   0  0  0  0  0  0  0  0  0  0  0  0
   10.0771    1.2308    0.0000 H   0  0  0  0  0  0  0  0  0  0  0  0
   10.3073    2.0769    0.0000 H   0  0  0  0  0  0  0  0  0  0  0  0
    9.4612    2.3071    0.0000 H   0  0  0  0  0  0  0  0  0  0  0  0
    8.3492    2.3114    0.0000 H   0  0  0  0  0  0  0  0  0  0  0  0
    7.5014    2.0877    0.0000 H   0  0  0  0  0  0  0  0  0  0  0  0
    7.7250    1.2399    0.0000 H   0  0  0  0  0  0  0  0  0  0  0  0
    7.6607    1.1751    0.0000 H   0  0  0  0  0  0  0  0  0  0  0  0
    7.5354   -3.2305    0.0000 H   0  0  0  0  0  0  0  0  0  0  0  0
    8.2146   -3.7849    0.0000 H   0  0  0  0  0  0  0  0  0  0  0  0
    8.7690   -3.1057    0.0000 H   0  0  0  0  0  0  0  0  0  0  0  0
    6.5365    2.4044    0.0000 H   0  0  0  0  0  0  0  0  0  0  0  0
    3.5408   -0.7429    0.0000 H   0  0  0  0  0  0  0  0  0  0  0  0
    5.1474    3.1681    0.0000 H   0  0  0  0  0  0  0  0  0  0  0  0
    4.5274    3.7881    0.0000 H   0  0  0  0  0  0  0  0  0  0  0  0
    3.9074    3.1681    0.0000 H   0  0  0  0  0  0  0  0  0  0  0  0
    2.5182    2.4044    0.0000 H   0  0  0  0  0  0  0  0  0  0  0  0
    1.9088   -0.4091    0.0000 H   0  0  0  0  0  0  0  0  0  0  0  0
    1.3940    1.1751    0.0000 H   0  0  0  0  0  0  0  0  0  0  0  0
   11.2907    0.5185    0.0000 H   0  0  0  0  0  0  0  0  0  0  0  0
   11.9825    0.9144    0.0000 H   0  0  0  0  0  0  0  0  0  0  0  0
   12.4397    1.6807    0.0000 H   0  0  0  0  0  0  0  0  0  0  0  0
   12.2161    2.5285    0.0000 H   0  0  0  0  0  0  0  0  0  0  0  0
   11.3683    2.3048    0.0000 H   0  0  0  0  0  0  0  0  0  0  0  0
  1  7  1  0  0  0  0
  1 10  1  0  0  0  0
  2 11  2  0  0  0  0
  3 15  1  0  0  0  0
  3 29  1  0  0  0  0
  4 15  2  0  0  0  0
  5  7  1  0  0  0  0
  5  8  1  0  0  0  0
  5 11  1  0  0  0  0
  6 16  1  0  0  0  0
  6 23  1  0  0  0  0
  6 25  1  0  0  0  0
  7 12  1  0  0  0  0
  7 31  1  0  0  0  0
  8  9  1  0  0  0  0
  8 15  1  0  0  0  0
  8 32  1  0  0  0  0
  9 17  1  0  0  0  0
  9 18  1  0  0  0  0
  9 33  1  0  0  0  0
 10 11  1  0  0  0  0
 10 20  1  0  0  0  0
 10 34  1  0  0  0  0
 12 14  2  0  0  0  0
 12 19  1  0  0  0  0
 13 14  1  0  0  0  0
 13 16  2  0  0  0  0
 13 21  1  0  0  0  0
 14 35  1  0  0  0  0
 16 22  1  0  0  0  0
 17 36  1  0  0  0  0
 17 37  1  0  0  0  0
 17 38  1  0  0  0  0
 18 39  1  0  0  0  0
 18 40  1  0  0  0  0
 18 41  1  0  0  0  0
 19 22  2  0  0  0  0
 19 42  1  0  0  0  0
 20 43  1  0  0  0  0
 20 44  1  0  0  0  0
 20 45  1  0  0  0  0
 21 23  1  0  0  0  0
 21 24  2  0  0  0  0
 22 46  1  0  0  0  0
 23 26  2  0  0  0  0
 24 27  1  0  0  0  0
 24 47  1  0  0  0  0
 25 48  1  0  0  0  0
 25 49  1  0  0  0  0
 25 50  1  0  0  0  0
 26 28  1  0  0  0  0
 26 51  1  0  0  0  0
 27 28  2  0  0  0  0
 27 52  1  0  0  0  0
 28 53  1  0  0  0  0
 29 30  1  0  0  0  0
 29 54  1  0  0  0  0
 29 55  1  0  0  0  0
 30 56  1  0  0  0  0
 30 57  1  0  0  0  0
 30 58  1  0  0  0  0
M  END
> <PUBCHEM_COMPOUND_CID>
508437
> <PUBCHEM_COMPOUND_CANONICALIZED>
1
> <PUBCHEM_CACTVS_COMPLEXITY>
656
> <PUBCHEM_CACTVS_HBOND_ACCEPTOR>
4
> <PUBCHEM_CACTVS_HBOND_DONOR>
0
> <PUBCHEM_CACTVS_ROTATABLE_BOND>
6
> <PUBCHEM_CACTVS_SUBSKEYS>
AAADceB7MABAAAAAAAAAAAAAAAAAAWLAAAAwYAAAAAAAAFgB/AAAHgQAAAAADSjl3gayyPMMFAioAyXyXACCgCBhAjAI2CG4ZJgKIPLgkbGHIAhkhgD4yAcQgMAOiAACAAACAAAQAAQAAAQAAAAAAAAAAA==
> <PUBCHEM_IUPAC_OPENEYE_NAME>
ethyl 3-methyl-2-[5-methyl-2-(9-methylcarbazol-3-yl)-4-oxo-thiazolidin-3-yl]butanoate
> <PUBCHEM_IUPAC_CAS_NAME>
3-methyl-2-[5-methyl-2-(9-methyl-3-carbazolyl)-4-oxo-3-thiazolidinyl]butanoic acid ethyl ester
> <PUBCHEM_IUPAC_NAME_MARKUP>
ethyl 3-methyl-2-[5-methyl-2-(9-methylcarbazol-3-yl)-4-oxo-1,3-thiazolidin-3-yl]butanoate
> <PUBCHEM_IUPAC_NAME>
ethyl 3-methyl-2-[5-methyl-2-(9-methylcarbazol-3-yl)-4-oxo-1,3-thiazolidin-3-yl]butanoate
> <PUBCHEM_IUPAC_SYSTEMATIC_NAME>
ethyl 3-methyl-2-[5-methyl-2-(9-methylcarbazol-3-yl)-4-oxidanylidene-1,3-thiazolidin-3-yl]butanoate
> <PUBCHEM_IUPAC_TRADITIONAL_NAME>
2-[4-keto-5-methyl-2-(9-methylcarbazol-3-yl)thiazolidin-3-yl]-3-methyl-butyric acid ethyl ester
> <PUBCHEM_IUPAC_INCHI>
InChI=1S/C24H28N2O3S/c1-6-29-24(28)21(14(2)3)26-22(27)15(4)30-23(26)16-11-12-20-18(13-16)17-9-7-8-10-19(17)25(20)5/h7-15,21,23H,6H2,1-5H3
> <PUBCHEM_IUPAC_INCHIKEY>
QUUOEKVSXDWQOQ-UHFFFAOYSA-N
> <PUBCHEM_XLOGP3_AA>
5.3
> <PUBCHEM_EXACT_MASS>
424.18206393
> <PUBCHEM_MOLECULAR_FORMULA>
C24H28N2O3S
> <PUBCHEM_MOLECULAR_WEIGHT>
424.6
> <PUBCHEM_OPENEYE_CAN_SMILES>
CCOC(=O)C(C(C)C)N1C(SC(C1=O)C)C2=CC3=C(C=C2)N(C4=CC=CC=C43)C
> <PUBCHEM_OPENEYE_ISO_SMILES>
CCOC(=O)C(C(C)C)N1C(SC(C1=O)C)C2=CC3=C(C=C2)N(C4=CC=CC=C43)C
> <PUBCHEM_CACTVS_TPSA>
76.8
> <PUBCHEM_MONOISOTOPIC_WEIGHT>
424.18206393
> <PUBCHEM_TOTAL_CHARGE>
0
> <PUBCHEM_HEAVY_ATOM_COUNT>
30
> <PUBCHEM_ATOM_DEF_STEREO_COUNT>
0
> <PUBCHEM_ATOM_UDEF_STEREO_COUNT>
3
> <PUBCHEM_BOND_DEF_STEREO_COUNT>
0
> <PUBCHEM_BOND_UDEF_STEREO_COUNT>
0
> <PUBCHEM_ISOTOPIC_ATOM_COUNT>
0
> <PUBCHEM_COMPONENT_COUNT>
1
> <PUBCHEM_CACTVS_TAUTO_COUNT>
-1
> <PUBCHEM_COORDINATE_TYPE>
1
5
255
> <PUBCHEM_BONDANNOTATIONS>
10  20  3
12  14  8
12  19  8
13  14  8
13  16  8
13  21  8
16  22  8
19  22  8
21  23  8
21  24  8
23  26  8
24  27  8
26  28  8
27  28  8
6  16  8
6  23  8
7  12  3
8  9  3
$$$$
