508466
  -OEChem-10302200282D
 46 45  0     1  0  0  0  0  0999 V2000
    4.5981   -0.5670    0.0000 O   0  0  0  0  0  0  0  0  0  0  0  0
    3.7320    0.9330    0.0000 O   0  0  0  0  0  0  0  0  0  0  0  0
    8.9282    0.9330    0.0000 O   0  0  0  0  0  0  0  0  0  0  0  0
   11.5263   -0.5670    0.0000 O   0  0  0  0  0  0  0  0  0  0  0  0
   10.6603    0.9330    0.0000 O   0  0  0  0  0  0  0  0  0  0  0  0
    5.4641   -0.0670    0.0000 C   0  0  3  0  0  0  0  0  0  0  0  0
    6.3301   -0.5670    0.0000 C   0  0  0  0  0  0  0  0  0  0  0  0
    2.8660   -0.5670    0.0000 C   0  0  0  0  0  0  0  0  0  0  0  0
    7.1962   -0.0670    0.0000 C   0  0  0  0  0  0  0  0  0  0  0  0
    5.4641    0.9330    0.0000 C   0  0  0  0  0  0  0  0  0  0  0  0
    8.0622   -0.5670    0.0000 C   0  0  0  0  0  0  0  0  0  0  0  0
    3.7320   -0.0670    0.0000 C   0  0  0  0  0  0  0  0  0  0  0  0
    2.0000   -1.0670    0.0000 C   0  0  0  0  0  0  0  0  0  0  0  0
    2.3660    0.2990    0.0000 C   0  0  0  0  0  0  0  0  0  0  0  0
    3.3660   -1.4330    0.0000 C   0  0  0  0  0  0  0  0  0  0  0  0
    6.3301    1.4330    0.0000 C   0  0  0  0  0  0  0  0  0  0  0  0
    8.9282   -0.0670    0.0000 C   0  0  0  0  0  0  0  0  0  0  0  0
    9.7942   -0.5670    0.0000 C   0  0  0  0  0  0  0  0  0  0  0  0
   10.6603   -0.0670    0.0000 C   0  0  0  0  0  0  0  0  0  0  0  0
   12.3923   -0.0670    0.0000 C   0  0  0  0  0  0  0  0  0  0  0  0
    5.4641   -0.6870    0.0000 H   0  0  0  0  0  0  0  0  0  0  0  0
    5.9316   -1.0419    0.0000 H   0  0  0  0  0  0  0  0  0  0  0  0
    6.7287   -1.0419    0.0000 H   0  0  0  0  0  0  0  0  0  0  0  0
    7.5947    0.4080    0.0000 H   0  0  0  0  0  0  0  0  0  0  0  0
    6.7976    0.4080    0.0000 H   0  0  0  0  0  0  0  0  0  0  0  0
    5.2520    1.5156    0.0000 H   0  0  0  0  0  0  0  0  0  0  0  0
    4.8535    0.8254    0.0000 H   0  0  0  0  0  0  0  0  0  0  0  0
    7.6636   -1.0419    0.0000 H   0  0  0  0  0  0  0  0  0  0  0  0
    8.4607   -1.0419    0.0000 H   0  0  0  0  0  0  0  0  0  0  0  0
    1.6900   -0.5301    0.0000 H   0  0  0  0  0  0  0  0  0  0  0  0
    1.4631   -1.3770    0.0000 H   0  0  0  0  0  0  0  0  0  0  0  0
    2.3100   -1.6039    0.0000 H   0  0  0  0  0  0  0  0  0  0  0  0
    2.9030    0.6090    0.0000 H   0  0  0  0  0  0  0  0  0  0  0  0
    2.0560    0.8360    0.0000 H   0  0  0  0  0  0  0  0  0  0  0  0
    1.8291   -0.0110    0.0000 H   0  0  0  0  0  0  0  0  0  0  0  0
    2.8291   -1.7430    0.0000 H   0  0  0  0  0  0  0  0  0  0  0  0
    3.6760   -1.9700    0.0000 H   0  0  0  0  0  0  0  0  0  0  0  0
    3.9030   -1.1230    0.0000 H   0  0  0  0  0  0  0  0  0  0  0  0
    6.6401    0.8961    0.0000 H   0  0  0  0  0  0  0  0  0  0  0  0
    6.8671    1.7430    0.0000 H   0  0  0  0  0  0  0  0  0  0  0  0
    6.0201    1.9700    0.0000 H   0  0  0  0  0  0  0  0  0  0  0  0
    9.3957   -1.0419    0.0000 H   0  0  0  0  0  0  0  0  0  0  0  0
   10.1928   -1.0419    0.0000 H   0  0  0  0  0  0  0  0  0  0  0  0
   12.7023   -0.6039    0.0000 H   0  0  0  0  0  0  0  0  0  0  0  0
   12.9292    0.2430    0.0000 H   0  0  0  0  0  0  0  0  0  0  0  0
   12.0823    0.4699    0.0000 H   0  0  0  0  0  0  0  0  0  0  0  0
  1  6  1  0  0  0  0
  1 12  1  0  0  0  0
  2 12  2  0  0  0  0
  3 17  2  0  0  0  0
  4 19  1  0  0  0  0
  4 20  1  0  0  0  0
  5 19  2  0  0  0  0
  6  7  1  0  0  0  0
  6 10  1  0  0  0  0
  6 21  1  0  0  0  0
  7  9  1  0  0  0  0
  7 22  1  0  0  0  0
  7 23  1  0  0  0  0
  8 12  1  0  0  0  0
  8 13  1  0  0  0  0
  8 14  1  0  0  0  0
  8 15  1  0  0  0  0
  9 11  1  0  0  0  0
  9 24  1  0  0  0  0
  9 25  1  0  0  0  0
 10 16  1  0  0  0  0
 10 26  1  0  0  0  0
 10 27  1  0  0  0  0
 11 17  1  0  0  0  0
 11 28  1  0  0  0  0
 11 29  1  0  0  0  0
 13 30  1  0  0  0  0
 13 31  1  0  0  0  0
 13 32  1  0  0  0  0
 14 33  1  0  0  0  0
 14 34  1  0  0  0  0
 14 35  1  0  0  0  0
 15 36  1  0  0  0  0
 15 37  1  0  0  0  0
 15 38  1  0  0  0  0
 16 39  1  0  0  0  0
 16 40  1  0  0  0  0
 16 41  1  0  0  0  0
 17 18  1  0  0  0  0
 18 19  1  0  0  0  0
 18 42  1  0  0  0  0
 18 43  1  0  0  0  0
 20 44  1  0  0  0  0
 20 45  1  0  0  0  0
 20 46  1  0  0  0  0
M  END
> <PUBCHEM_COMPOUND_CID>
508466
> <PUBCHEM_COMPOUND_CANONICALIZED>
1
> <PUBCHEM_CACTVS_COMPLEXITY>
341
> <PUBCHEM_CACTVS_HBOND_ACCEPTOR>
5
> <PUBCHEM_CACTVS_HBOND_DONOR>
0
> <PUBCHEM_CACTVS_ROTATABLE_BOND>
11
> <PUBCHEM_CACTVS_SUBSKEYS>
AAADceBwOAAAAAAAAAAAAAAAAAAAAAAAAAAAAAAAAAAAAAAAAAAAGgAAAAAADhSggAICCAAABAAIAICQCAAAAAAAAAAAAAEAAAAAABYIAAACAAAEIAAAAAGIzKDAAAAAAAAAAAAAAAAAAAAAAAAAAAAAAA==
> <PUBCHEM_IUPAC_OPENEYE_NAME>
methyl 7-(2,2-dimethylpropanoyloxy)-3-oxo-nonanoate
> <PUBCHEM_IUPAC_CAS_NAME>
7-(2,2-dimethyl-1-oxopropoxy)-3-oxononanoic acid methyl ester
> <PUBCHEM_IUPAC_NAME_MARKUP>
methyl 7-(2,2-dimethylpropanoyloxy)-3-oxononanoate
> <PUBCHEM_IUPAC_NAME>
methyl 7-(2,2-dimethylpropanoyloxy)-3-oxononanoate
> <PUBCHEM_IUPAC_SYSTEMATIC_NAME>
methyl 7-(2,2-dimethylpropanoyloxy)-3-oxidanylidene-nonanoate
> <PUBCHEM_IUPAC_TRADITIONAL_NAME>
3-keto-7-pivaloyloxy-pelargonic acid methyl ester
> <PUBCHEM_IUPAC_INCHI>
InChI=1S/C15H26O5/c1-6-12(20-14(18)15(2,3)4)9-7-8-11(16)10-13(17)19-5/h12H,6-10H2,1-5H3
> <PUBCHEM_IUPAC_INCHIKEY>
HASQLEZVJKNNCF-UHFFFAOYSA-N
> <PUBCHEM_XLOGP3_AA>
2.9
> <PUBCHEM_EXACT_MASS>
286.17802393
> <PUBCHEM_MOLECULAR_FORMULA>
C15H26O5
> <PUBCHEM_MOLECULAR_WEIGHT>
286.36
> <PUBCHEM_OPENEYE_CAN_SMILES>
CCC(CCCC(=O)CC(=O)OC)OC(=O)C(C)(C)C
> <PUBCHEM_OPENEYE_ISO_SMILES>
CCC(CCCC(=O)CC(=O)OC)OC(=O)C(C)(C)C
> <PUBCHEM_CACTVS_TPSA>
69.7
> <PUBCHEM_MONOISOTOPIC_WEIGHT>
286.17802393
> <PUBCHEM_TOTAL_CHARGE>
0
> <PUBCHEM_HEAVY_ATOM_COUNT>
20
> <PUBCHEM_ATOM_DEF_STEREO_COUNT>
0
> <PUBCHEM_ATOM_UDEF_STEREO_COUNT>
1
> <PUBCHEM_BOND_DEF_STEREO_COUNT>
0
> <PUBCHEM_BOND_UDEF_STEREO_COUNT>
0
> <PUBCHEM_ISOTOPIC_ATOM_COUNT>
0
> <PUBCHEM_COMPONENT_COUNT>
1
> <PUBCHEM_CACTVS_TAUTO_COUNT>
-1
> <PUBCHEM_COORDINATE_TYPE>
1
5
255
> <PUBCHEM_BONDANNOTATIONS>
6  10  3
$$$$
