508442
  -OEChem-10302200282D
 66 71  0     1  0  0  0  0  0999 V2000
    8.7883    1.6548    0.0000 S   0  0  0  0  0  0  0  0  0  0  0  0
   10.8985    0.1572    0.0000 O   0  0  0  0  0  0  0  0  0  0  0  0
    7.9868   -2.3206    0.0000 O   0  0  0  0  0  0  0  0  0  0  0  0
    7.2884   -0.7356    0.0000 O   0  0  0  0  0  0  0  0  0  0  0  0
    9.1186    0.0708    0.0000 N   0  0  0  0  0  0  0  0  0  0  0  0
    4.5274    3.3992    0.0000 N   0  0  0  0  0  0  0  0  0  0  0  0
    9.0458   -3.9750    0.0000 N   0  0  0  0  0  0  0  0  0  0  0  0
    8.3780    0.7428    0.0000 C   0  0  3  0  0  0  0  0  0  0  0  0
    9.0102   -0.9233    0.0000 C   0  0  3  0  0  0  0  0  0  0  0  0
    7.3991    0.5387    0.0000 C   0  0  0  0  0  0  0  0  0  0  0  0
    9.8170   -1.5142    0.0000 C   0  0  0  0  0  0  0  0  0  0  0  0
    6.7328    1.2844    0.0000 C   0  0  0  0  0  0  0  0  0  0  0  0
    9.9866    0.5675    0.0000 C   0  0  0  0  0  0  0  0  0  0  0  0
    9.7824    1.5464    0.0000 C   0  0  0  0  0  0  0  0  0  0  0  0
    5.0274    1.8604    0.0000 C   0  0  0  0  0  0  0  0  0  0  0  0
    5.3364    2.8115    0.0000 C   0  0  0  0  0  0  0  0  0  0  0  0
    9.7086   -2.5083    0.0000 C   0  0  0  0  0  0  0  0  0  0  0  0
    5.7123    1.0757    0.0000 C   0  0  0  0  0  0  0  0  0  0  0  0
    4.0274    1.8604    0.0000 C   0  0  0  0  0  0  0  0  0  0  0  0
    3.7183    2.8115    0.0000 C   0  0  0  0  0  0  0  0  0  0  0  0
    8.0951   -1.3265    0.0000 C   0  0  0  0  0  0  0  0  0  0  0  0
    7.0547    2.2750    0.0000 C   0  0  0  0  0  0  0  0  0  0  0  0
    6.3518    3.0437    0.0000 C   0  0  0  0  0  0  0  0  0  0  0  0
   10.4454   -3.1757    0.0000 C   0  0  0  0  0  0  0  0  0  0  0  0
    4.5274    4.3992    0.0000 C   0  0  0  0  0  0  0  0  0  0  0  0
    8.8454   -3.0013    0.0000 C   0  0  0  0  0  0  0  0  0  0  0  0
   10.0335   -4.0870    0.0000 C   0  0  0  0  0  0  0  0  0  0  0  0
    3.3424    1.0757    0.0000 C   0  0  0  0  0  0  0  0  0  0  0  0
    2.7029    3.0437    0.0000 C   0  0  0  0  0  0  0  0  0  0  0  0
   11.4405   -3.0767    0.0000 C   0  0  0  0  0  0  0  0  0  0  0  0
    3.6613    4.8992    0.0000 C   0  0  0  0  0  0  0  0  0  0  0  0
    2.3219    1.2844    0.0000 C   0  0  0  0  0  0  0  0  0  0  0  0
    2.0000    2.2750    0.0000 C   0  0  0  0  0  0  0  0  0  0  0  0
   10.6168   -4.8992    0.0000 C   0  0  0  0  0  0  0  0  0  0  0  0
   12.0237   -3.8890    0.0000 C   0  0  0  0  0  0  0  0  0  0  0  0
   11.6119   -4.8003    0.0000 C   0  0  0  0  0  0  0  0  0  0  0  0
    7.0717   -2.7238    0.0000 C   0  0  0  0  0  0  0  0  0  0  0  0
    8.2153    0.1445    0.0000 H   0  0  0  0  0  0  0  0  0  0  0  0
    9.5776   -0.6733    0.0000 H   0  0  0  0  0  0  0  0  0  0  0  0
    6.8720    0.2121    0.0000 H   0  0  0  0  0  0  0  0  0  0  0  0
    7.6291   -0.0371    0.0000 H   0  0  0  0  0  0  0  0  0  0  0  0
   10.4123   -1.6874    0.0000 H   0  0  0  0  0  0  0  0  0  0  0  0
   10.0909   -0.9580    0.0000 H   0  0  0  0  0  0  0  0  0  0  0  0
   10.3993    1.6088    0.0000 H   0  0  0  0  0  0  0  0  0  0  0  0
    9.7848    2.1664    0.0000 H   0  0  0  0  0  0  0  0  0  0  0  0
    5.5139    0.4883    0.0000 H   0  0  0  0  0  0  0  0  0  0  0  0
    7.6607    2.4063    0.0000 H   0  0  0  0  0  0  0  0  0  0  0  0
    6.5365    3.6355    0.0000 H   0  0  0  0  0  0  0  0  0  0  0  0
    5.1379    4.2916    0.0000 H   0  0  0  0  0  0  0  0  0  0  0  0
    4.7394    4.9818    0.0000 H   0  0  0  0  0  0  0  0  0  0  0  0
    8.2804   -2.7460    0.0000 H   0  0  0  0  0  0  0  0  0  0  0  0
    3.5408    0.4883    0.0000 H   0  0  0  0  0  0  0  0  0  0  0  0
    2.5182    3.6355    0.0000 H   0  0  0  0  0  0  0  0  0  0  0  0
    8.6276   -4.4327    0.0000 H   0  0  0  0  0  0  0  0  0  0  0  0
   11.6958   -2.5117    0.0000 H   0  0  0  0  0  0  0  0  0  0  0  0
    3.9713    5.4362    0.0000 H   0  0  0  0  0  0  0  0  0  0  0  0
    3.1244    5.2092    0.0000 H   0  0  0  0  0  0  0  0  0  0  0  0
    3.3513    4.3623    0.0000 H   0  0  0  0  0  0  0  0  0  0  0  0
    1.9088    0.8220    0.0000 H   0  0  0  0  0  0  0  0  0  0  0  0
    1.3940    2.4063    0.0000 H   0  0  0  0  0  0  0  0  0  0  0  0
   10.3615   -5.4642    0.0000 H   0  0  0  0  0  0  0  0  0  0  0  0
   12.6407   -3.8276    0.0000 H   0  0  0  0  0  0  0  0  0  0  0  0
   11.9735   -5.3039    0.0000 H   0  0  0  0  0  0  0  0  0  0  0  0
    6.8217   -2.1565    0.0000 H   0  0  0  0  0  0  0  0  0  0  0  0
    6.5043   -2.9738    0.0000 H   0  0  0  0  0  0  0  0  0  0  0  0
    7.3217   -3.2912    0.0000 H   0  0  0  0  0  0  0  0  0  0  0  0
  1  8  1  0  0  0  0
  1 14  1  0  0  0  0
  2 13  2  0  0  0  0
  3 21  1  0  0  0  0
  3 37  1  0  0  0  0
  4 21  2  0  0  0  0
  5  8  1  0  0  0  0
  5  9  1  0  0  0  0
  5 13  1  0  0  0  0
  6 16  1  0  0  0  0
  6 20  1  0  0  0  0
  6 25  1  0  0  0  0
  7 26  1  0  0  0  0
  7 27  1  0  0  0  0
  7 54  1  0  0  0  0
  8 10  1  0  0  0  0
  8 38  1  0  0  0  0
  9 11  1  0  0  0  0
  9 21  1  0  0  0  0
  9 39  1  0  0  0  0
 10 12  1  0  0  0  0
 10 40  1  0  0  0  0
 10 41  1  0  0  0  0
 11 17  1  0  0  0  0
 11 42  1  0  0  0  0
 11 43  1  0  0  0  0
 12 18  2  0  0  0  0
 12 22  1  0  0  0  0
 13 14  1  0  0  0  0
 14 44  1  0  0  0  0
 14 45  1  0  0  0  0
 15 16  2  0  0  0  0
 15 18  1  0  0  0  0
 15 19  1  0  0  0  0
 16 23  1  0  0  0  0
 17 24  1  0  0  0  0
 17 26  2  0  0  0  0
 18 46  1  0  0  0  0
 19 20  1  0  0  0  0
 19 28  2  0  0  0  0
 20 29  2  0  0  0  0
 22 23  2  0  0  0  0
 22 47  1  0  0  0  0
 23 48  1  0  0  0  0
 24 27  1  0  0  0  0
 24 30  2  0  0  0  0
 25 31  1  0  0  0  0
 25 49  1  0  0  0  0
 25 50  1  0  0  0  0
 26 51  1  0  0  0  0
 27 34  2  0  0  0  0
 28 32  1  0  0  0  0
 28 52  1  0  0  0  0
 29 33  1  0  0  0  0
 29 53  1  0  0  0  0
 30 35  1  0  0  0  0
 30 55  1  0  0  0  0
 31 56  1  0  0  0  0
 31 57  1  0  0  0  0
 31 58  1  0  0  0  0
 32 33  2  0  0  0  0
 32 59  1  0  0  0  0
 33 60  1  0  0  0  0
 34 36  1  0  0  0  0
 34 61  1  0  0  0  0
 35 36  2  0  0  0  0
 35 62  1  0  0  0  0
 36 63  1  0  0  0  0
 37 64  1  0  0  0  0
 37 65  1  0  0  0  0
 37 66  1  0  0  0  0
M  END
> <PUBCHEM_COMPOUND_CID>
508442
> <PUBCHEM_COMPOUND_CANONICALIZED>
1
> <PUBCHEM_CACTVS_COMPLEXITY>
841
> <PUBCHEM_CACTVS_HBOND_ACCEPTOR>
4
> <PUBCHEM_CACTVS_HBOND_DONOR>
1
> <PUBCHEM_CACTVS_ROTATABLE_BOND>
8
> <PUBCHEM_CACTVS_SUBSKEYS>
AAADceB7MABAAAAAAAAAAAAAAAAAAWLFgAAwYMAAAAAAAFgB/gAAHgQQAAAADCjF3ga+yPPNlAioAzX3XACCgCBxAjAI2aG4ZJgKIPLgkbGFIAhklgD4yAeY2fKOiAACAAACAAAQAAQAAAQAAAAAAAAAAA==
> <PUBCHEM_IUPAC_OPENEYE_NAME>
methyl 2-[2-[(9-ethylcarbazol-3-yl)methyl]-4-oxo-thiazolidin-3-yl]-3-(1H-indol-3-yl)propanoate
> <PUBCHEM_IUPAC_CAS_NAME>
2-[2-[(9-ethyl-3-carbazolyl)methyl]-4-oxo-3-thiazolidinyl]-3-(1H-indol-3-yl)propanoic acid methyl ester
> <PUBCHEM_IUPAC_NAME_MARKUP>
methyl 2-[2-[(9-ethylcarbazol-3-yl)methyl]-4-oxo-1,3-thiazolidin-3-yl]-3-(1<I>H</I>-indol-3-yl)propanoate
> <PUBCHEM_IUPAC_NAME>
methyl 2-[2-[(9-ethylcarbazol-3-yl)methyl]-4-oxo-1,3-thiazolidin-3-yl]-3-(1H-indol-3-yl)propanoate
> <PUBCHEM_IUPAC_SYSTEMATIC_NAME>
methyl 2-[2-[(9-ethylcarbazol-3-yl)methyl]-4-oxidanylidene-1,3-thiazolidin-3-yl]-3-(1H-indol-3-yl)propanoate
> <PUBCHEM_IUPAC_TRADITIONAL_NAME>
2-[2-[(9-ethylcarbazol-3-yl)methyl]-4-keto-thiazolidin-3-yl]-3-(1H-indol-3-yl)propionic acid methyl ester
> <PUBCHEM_IUPAC_INCHI>
InChI=1S/C30H29N3O3S/c1-3-32-25-11-7-5-9-22(25)23-14-19(12-13-26(23)32)15-29-33(28(34)18-37-29)27(30(35)36-2)16-20-17-31-24-10-6-4-8-21(20)24/h4-14,17,27,29,31H,3,15-16,18H2,1-2H3
> <PUBCHEM_IUPAC_INCHIKEY>
IFCLUVFKDLLNRA-UHFFFAOYSA-N
> <PUBCHEM_XLOGP3_AA>
6.1
> <PUBCHEM_EXACT_MASS>
511.19296297
> <PUBCHEM_MOLECULAR_FORMULA>
C30H29N3O3S
> <PUBCHEM_MOLECULAR_WEIGHT>
511.6
> <PUBCHEM_OPENEYE_CAN_SMILES>
CCN1C2=C(C=C(C=C2)CC3N(C(=O)CS3)C(CC4=CNC5=CC=CC=C54)C(=O)OC)C6=CC=CC=C61
> <PUBCHEM_OPENEYE_ISO_SMILES>
CCN1C2=C(C=C(C=C2)CC3N(C(=O)CS3)C(CC4=CNC5=CC=CC=C54)C(=O)OC)C6=CC=CC=C61
> <PUBCHEM_CACTVS_TPSA>
92.6
> <PUBCHEM_MONOISOTOPIC_WEIGHT>
511.19296297
> <PUBCHEM_TOTAL_CHARGE>
0
> <PUBCHEM_HEAVY_ATOM_COUNT>
37
> <PUBCHEM_ATOM_DEF_STEREO_COUNT>
0
> <PUBCHEM_ATOM_UDEF_STEREO_COUNT>
2
> <PUBCHEM_BOND_DEF_STEREO_COUNT>
0
> <PUBCHEM_BOND_UDEF_STEREO_COUNT>
0
> <PUBCHEM_ISOTOPIC_ATOM_COUNT>
0
> <PUBCHEM_COMPONENT_COUNT>
1
> <PUBCHEM_CACTVS_TAUTO_COUNT>
-1
> <PUBCHEM_COORDINATE_TYPE>
1
5
255
> <PUBCHEM_BONDANNOTATIONS>
12  18  8
12  22  8
15  16  8
15  18  8
15  19  8
16  23  8
17  24  8
17  26  8
19  20  8
19  28  8
20  29  8
22  23  8
24  27  8
24  30  8
27  34  8
28  32  8
29  33  8
30  35  8
32  33  8
34  36  8
35  36  8
6  16  8
6  20  8
7  26  8
7  27  8
8  10  3
9  11  3
$$$$
