508433
  -OEChem-10302200282D
 54 58  0     1  0  0  0  0  0999 V2000
    9.3007    1.6232    0.0000 S   0  0  0  0  0  0  0  0  0  0  0  0
    8.0406    3.8833    0.0000 O   0  0  0  0  0  0  0  0  0  0  0  0
    6.7619    3.8552    0.0000 O   0  0  0  0  0  0  0  0  0  0  0  0
    5.2619    2.9892    0.0000 O   0  0  0  0  0  0  0  0  0  0  0  0
    7.7619    2.1232    0.0000 N   0  0  0  0  0  0  0  0  0  0  0  0
    4.6783    0.4524    0.0000 N   0  0  0  0  0  0  0  0  0  0  0  0
    6.7619    2.1232    0.0000 C   0  0  3  0  0  0  0  0  0  0  0  0
    8.3497    1.3142    0.0000 C   0  0  3  0  0  0  0  0  0  0  0  0
    6.2619    1.2572    0.0000 C   0  0  0  0  0  0  0  0  0  0  0  0
    8.3497    2.9322    0.0000 C   0  0  0  0  0  0  0  0  0  0  0  0
    8.0406    0.3631    0.0000 C   0  0  0  0  0  0  0  0  0  0  0  0
    5.2619    1.2572    0.0000 C   0  0  0  0  0  0  0  0  0  0  0  0
    9.3007    2.6232    0.0000 C   0  0  0  0  0  0  0  0  0  0  0  0
    6.2619    2.9892    0.0000 C   0  0  0  0  0  0  0  0  0  0  0  0
    4.6783    2.0619    0.0000 C   0  0  0  0  0  0  0  0  0  0  0  0
    3.7320    0.7572    0.0000 C   0  0  0  0  0  0  0  0  0  0  0  0
    3.7320    1.7572    0.0000 C   0  0  0  0  0  0  0  0  0  0  0  0
    8.7098   -0.3800    0.0000 C   0  0  0  0  0  0  0  0  0  0  0  0
    7.0625    0.1552    0.0000 C   0  0  0  0  0  0  0  0  0  0  0  0
    8.4008   -1.3311    0.0000 C   0  0  0  0  0  0  0  0  0  0  0  0
    6.7535   -0.7959    0.0000 C   0  0  0  0  0  0  0  0  0  0  0  0
    7.4226   -1.5390    0.0000 C   0  0  0  0  0  0  0  0  0  0  0  0
    2.8660    0.2572    0.0000 C   0  0  0  0  0  0  0  0  0  0  0  0
    2.8660    2.2572    0.0000 C   0  0  0  0  0  0  0  0  0  0  0  0
    7.1136   -2.4901    0.0000 C   0  0  0  0  0  0  0  0  0  0  0  0
    2.0000    0.7572    0.0000 C   0  0  0  0  0  0  0  0  0  0  0  0
    2.0000    1.7572    0.0000 C   0  0  0  0  0  0  0  0  0  0  0  0
    7.7827   -3.2332    0.0000 C   0  0  0  0  0  0  0  0  0  0  0  0
    6.1354   -2.6980    0.0000 C   0  0  0  0  0  0  0  0  0  0  0  0
    7.4737   -4.1843    0.0000 C   0  0  0  0  0  0  0  0  0  0  0  0
    5.8264   -3.6490    0.0000 C   0  0  0  0  0  0  0  0  0  0  0  0
    6.4956   -4.3922    0.0000 C   0  0  0  0  0  0  0  0  0  0  0  0
    7.0719    2.6601    0.0000 H   0  0  0  0  0  0  0  0  0  0  0  0
    8.7881    0.8758    0.0000 H   0  0  0  0  0  0  0  0  0  0  0  0
    6.1542    0.6466    0.0000 H   0  0  0  0  0  0  0  0  0  0  0  0
    6.8445    1.0451    0.0000 H   0  0  0  0  0  0  0  0  0  0  0  0
    9.9173    2.5584    0.0000 H   0  0  0  0  0  0  0  0  0  0  0  0
    9.4296    3.2296    0.0000 H   0  0  0  0  0  0  0  0  0  0  0  0
    4.8709   -0.1369    0.0000 H   0  0  0  0  0  0  0  0  0  0  0  0
    4.8709    2.6512    0.0000 H   0  0  0  0  0  0  0  0  0  0  0  0
    9.3162   -0.2511    0.0000 H   0  0  0  0  0  0  0  0  0  0  0  0
    6.6476    0.6159    0.0000 H   0  0  0  0  0  0  0  0  0  0  0  0
    8.8156   -1.7918    0.0000 H   0  0  0  0  0  0  0  0  0  0  0  0
    6.1470   -0.9248    0.0000 H   0  0  0  0  0  0  0  0  0  0  0  0
    2.8660   -0.3628    0.0000 H   0  0  0  0  0  0  0  0  0  0  0  0
    2.8660    2.8772    0.0000 H   0  0  0  0  0  0  0  0  0  0  0  0
    6.4519    4.3922    0.0000 H   0  0  0  0  0  0  0  0  0  0  0  0
    1.4631    0.4472    0.0000 H   0  0  0  0  0  0  0  0  0  0  0  0
    1.4631    2.0672    0.0000 H   0  0  0  0  0  0  0  0  0  0  0  0
    8.3892   -3.1043    0.0000 H   0  0  0  0  0  0  0  0  0  0  0  0
    5.7206   -2.2372    0.0000 H   0  0  0  0  0  0  0  0  0  0  0  0
    7.8886   -4.6450    0.0000 H   0  0  0  0  0  0  0  0  0  0  0  0
    5.2200   -3.7779    0.0000 H   0  0  0  0  0  0  0  0  0  0  0  0
    6.3040   -4.9818    0.0000 H   0  0  0  0  0  0  0  0  0  0  0  0
  1  8  1  0  0  0  0
  1 13  1  0  0  0  0
  2 10  2  0  0  0  0
  3 14  1  0  0  0  0
  3 47  1  0  0  0  0
  4 14  2  0  0  0  0
  5  7  1  0  0  0  0
  5  8  1  0  0  0  0
  5 10  1  0  0  0  0
  6 12  1  0  0  0  0
  6 16  1  0  0  0  0
  6 39  1  0  0  0  0
  7  9  1  0  0  0  0
  7 14  1  0  0  0  0
  7 33  1  0  0  0  0
  8 11  1  0  0  0  0
  8 34  1  0  0  0  0
  9 12  1  0  0  0  0
  9 35  1  0  0  0  0
  9 36  1  0  0  0  0
 10 13  1  0  0  0  0
 11 18  2  0  0  0  0
 11 19  1  0  0  0  0
 12 15  2  0  0  0  0
 13 37  1  0  0  0  0
 13 38  1  0  0  0  0
 15 17  1  0  0  0  0
 15 40  1  0  0  0  0
 16 17  1  0  0  0  0
 16 23  2  0  0  0  0
 17 24  2  0  0  0  0
 18 20  1  0  0  0  0
 18 41  1  0  0  0  0
 19 21  2  0  0  0  0
 19 42  1  0  0  0  0
 20 22  2  0  0  0  0
 20 43  1  0  0  0  0
 21 22  1  0  0  0  0
 21 44  1  0  0  0  0
 22 25  1  0  0  0  0
 23 26  1  0  0  0  0
 23 45  1  0  0  0  0
 24 27  1  0  0  0  0
 24 46  1  0  0  0  0
 25 28  2  0  0  0  0
 25 29  1  0  0  0  0
 26 27  2  0  0  0  0
 26 48  1  0  0  0  0
 27 49  1  0  0  0  0
 28 30  1  0  0  0  0
 28 50  1  0  0  0  0
 29 31  2  0  0  0  0
 29 51  1  0  0  0  0
 30 32  2  0  0  0  0
 30 52  1  0  0  0  0
 31 32  1  0  0  0  0
 31 53  1  0  0  0  0
 32 54  1  0  0  0  0
M  END
> <PUBCHEM_COMPOUND_CID>
508433
> <PUBCHEM_COMPOUND_CANONICALIZED>
1
> <PUBCHEM_CACTVS_COMPLEXITY>
674
> <PUBCHEM_CACTVS_HBOND_ACCEPTOR>
4
> <PUBCHEM_CACTVS_HBOND_DONOR>
2
> <PUBCHEM_CACTVS_ROTATABLE_BOND>
6
> <PUBCHEM_CACTVS_SUBSKEYS>
AAADceB7MABAAAAAAAAAAAAAAAAAAWLAAAAwYMAAAAAAAFgB9AAAHgQQCAAADCjF3gSwyPPJkgioAyXyXACCgCBhAjAImSG4ZJgKIPLg0bGEYAhklgD4yAe8yOCOwAAAAAACAACAAAAAAAQAAAAAAAAAAA==
> <PUBCHEM_IUPAC_OPENEYE_NAME>
3-(1H-indol-2-yl)-2-[4-oxo-2-(4-phenylphenyl)thiazolidin-3-yl]propanoic acid
> <PUBCHEM_IUPAC_CAS_NAME>
3-(1H-indol-2-yl)-2-[4-oxo-2-(4-phenylphenyl)-3-thiazolidinyl]propanoic acid
> <PUBCHEM_IUPAC_NAME_MARKUP>
3-(1<I>H</I>-indol-2-yl)-2-[4-oxo-2-(4-phenylphenyl)-1,3-thiazolidin-3-yl]propanoic acid
> <PUBCHEM_IUPAC_NAME>
3-(1H-indol-2-yl)-2-[4-oxo-2-(4-phenylphenyl)-1,3-thiazolidin-3-yl]propanoic acid
> <PUBCHEM_IUPAC_SYSTEMATIC_NAME>
3-(1H-indol-2-yl)-2-[4-oxidanylidene-2-(4-phenylphenyl)-1,3-thiazolidin-3-yl]propanoic acid
> <PUBCHEM_IUPAC_TRADITIONAL_NAME>
3-(1H-indol-2-yl)-2-[4-keto-2-(4-phenylphenyl)thiazolidin-3-yl]propionic acid
> <PUBCHEM_IUPAC_INCHI>
InChI=1S/C26H22N2O3S/c29-24-16-32-25(19-12-10-18(11-13-19)17-6-2-1-3-7-17)28(24)23(26(30)31)15-21-14-20-8-4-5-9-22(20)27-21/h1-14,23,25,27H,15-16H2,(H,30,31)
> <PUBCHEM_IUPAC_INCHIKEY>
LONJDBQLSLSMKJ-UHFFFAOYSA-N
> <PUBCHEM_XLOGP3_AA>
5.2
> <PUBCHEM_EXACT_MASS>
442.13511374
> <PUBCHEM_MOLECULAR_FORMULA>
C26H22N2O3S
> <PUBCHEM_MOLECULAR_WEIGHT>
442.5
> <PUBCHEM_OPENEYE_CAN_SMILES>
C1C(=O)N(C(S1)C2=CC=C(C=C2)C3=CC=CC=C3)C(CC4=CC5=CC=CC=C5N4)C(=O)O
> <PUBCHEM_OPENEYE_ISO_SMILES>
C1C(=O)N(C(S1)C2=CC=C(C=C2)C3=CC=CC=C3)C(CC4=CC5=CC=CC=C5N4)C(=O)O
> <PUBCHEM_CACTVS_TPSA>
98.7
> <PUBCHEM_MONOISOTOPIC_WEIGHT>
442.13511374
> <PUBCHEM_TOTAL_CHARGE>
0
> <PUBCHEM_HEAVY_ATOM_COUNT>
32
> <PUBCHEM_ATOM_DEF_STEREO_COUNT>
0
> <PUBCHEM_ATOM_UDEF_STEREO_COUNT>
2
> <PUBCHEM_BOND_DEF_STEREO_COUNT>
0
> <PUBCHEM_BOND_UDEF_STEREO_COUNT>
0
> <PUBCHEM_ISOTOPIC_ATOM_COUNT>
0
> <PUBCHEM_COMPONENT_COUNT>
1
> <PUBCHEM_CACTVS_TAUTO_COUNT>
-1
> <PUBCHEM_COORDINATE_TYPE>
1
5
255
> <PUBCHEM_BONDANNOTATIONS>
11  18  8
11  19  8
12  15  8
15  17  8
16  17  8
16  23  8
17  24  8
18  20  8
19  21  8
20  22  8
21  22  8
23  26  8
24  27  8
25  28  8
25  29  8
26  27  8
28  30  8
29  31  8
30  32  8
31  32  8
6  12  8
6  16  8
7  9  3
8  11  3
$$$$
