508443
  -OEChem-10302200282D
 54 56  0     1  0  0  0  0  0999 V2000
    9.3244    1.5689    0.0000 S   0  0  0  0  0  0  0  0  0  0  0  0
    7.4276    3.3289    0.0000 O   0  0  0  0  0  0  0  0  0  0  0  0
    5.0611    1.6200    0.0000 O   0  0  0  0  0  0  0  0  0  0  0  0
    6.2200    2.9071    0.0000 O   0  0  0  0  0  0  0  0  0  0  0  0
   10.2474   -2.0189    0.0000 O   0  0  0  0  0  0  0  0  0  0  0  0
    6.7833   -2.0189    0.0000 O   0  0  0  0  0  0  0  0  0  0  0  0
    8.5154   -3.0189    0.0000 O   0  0  0  0  0  0  0  0  0  0  0  0
    2.5352   -1.9325    0.0000 O   0  5  0  0  0  0  0  0  0  0  0  0
    2.0000   -0.2852    0.0000 O   0  0  0  0  0  0  0  0  0  0  0  0
    7.7063    1.5689    0.0000 N   0  0  0  0  0  0  0  0  0  0  0  0
    2.7431   -0.9544    0.0000 N   0  3  0  0  0  0  0  0  0  0  0  0
    8.5154    0.9811    0.0000 C   0  0  3  0  0  0  0  0  0  0  0  0
    6.7553    1.2598    0.0000 C   0  0  3  0  0  0  0  0  0  0  0  0
    9.0154    2.5199    0.0000 C   0  0  3  0  0  0  0  0  0  0  0  0
    8.0154    2.5199    0.0000 C   0  0  0  0  0  0  0  0  0  0  0  0
    6.5474    0.2817    0.0000 C   0  0  0  0  0  0  0  0  0  0  0  0
    8.5154   -0.0189    0.0000 C   0  0  0  0  0  0  0  0  0  0  0  0
    9.6031    3.3289    0.0000 C   0  0  0  0  0  0  0  0  0  0  0  0
    6.0121    1.9290    0.0000 C   0  0  0  0  0  0  0  0  0  0  0  0
    5.5963   -0.0273    0.0000 C   0  0  0  0  0  0  0  0  0  0  0  0
    7.6493   -0.5189    0.0000 C   0  0  0  0  0  0  0  0  0  0  0  0
    9.3814   -0.5189    0.0000 C   0  0  0  0  0  0  0  0  0  0  0  0
    9.3814   -1.5189    0.0000 C   0  0  0  0  0  0  0  0  0  0  0  0
    7.6493   -1.5189    0.0000 C   0  0  0  0  0  0  0  0  0  0  0  0
    4.8532    0.6418    0.0000 C   0  0  0  0  0  0  0  0  0  0  0  0
    5.3884   -1.0055    0.0000 C   0  0  0  0  0  0  0  0  0  0  0  0
    8.5154   -2.0189    0.0000 C   0  0  0  0  0  0  0  0  0  0  0  0
    3.9021    0.3328    0.0000 C   0  0  0  0  0  0  0  0  0  0  0  0
    4.4374   -1.3145    0.0000 C   0  0  0  0  0  0  0  0  0  0  0  0
    3.6942   -0.6454    0.0000 C   0  0  0  0  0  0  0  0  0  0  0  0
   11.1134   -1.5189    0.0000 C   0  0  0  0  0  0  0  0  0  0  0  0
    5.9173   -1.5189    0.0000 C   0  0  0  0  0  0  0  0  0  0  0  0
    9.0678    0.6996    0.0000 H   0  0  0  0  0  0  0  0  0  0  0  0
    6.8842    1.8663    0.0000 H   0  0  0  0  0  0  0  0  0  0  0  0
    9.6277    2.4229    0.0000 H   0  0  0  0  0  0  0  0  0  0  0  0
    6.6337   -0.3323    0.0000 H   0  0  0  0  0  0  0  0  0  0  0  0
    7.1670    0.2601    0.0000 H   0  0  0  0  0  0  0  0  0  0  0  0
   10.1047    2.9645    0.0000 H   0  0  0  0  0  0  0  0  0  0  0  0
    9.9676    3.8305    0.0000 H   0  0  0  0  0  0  0  0  0  0  0  0
    9.1016    3.6934    0.0000 H   0  0  0  0  0  0  0  0  0  0  0  0
    7.1124   -0.2089    0.0000 H   0  0  0  0  0  0  0  0  0  0  0  0
    9.9183   -0.2089    0.0000 H   0  0  0  0  0  0  0  0  0  0  0  0
    4.9821    1.2483    0.0000 H   0  0  0  0  0  0  0  0  0  0  0  0
    5.8492   -1.4203    0.0000 H   0  0  0  0  0  0  0  0  0  0  0  0
    4.6003    2.0348    0.0000 H   0  0  0  0  0  0  0  0  0  0  0  0
    3.4414    0.7476    0.0000 H   0  0  0  0  0  0  0  0  0  0  0  0
    4.3084   -1.9209    0.0000 H   0  0  0  0  0  0  0  0  0  0  0  0
    9.0523   -3.3289    0.0000 H   0  0  0  0  0  0  0  0  0  0  0  0
   11.4234   -2.0559    0.0000 H   0  0  0  0  0  0  0  0  0  0  0  0
   11.6504   -1.2089    0.0000 H   0  0  0  0  0  0  0  0  0  0  0  0
   10.8034   -0.9820    0.0000 H   0  0  0  0  0  0  0  0  0  0  0  0
    6.2273   -0.9820    0.0000 H   0  0  0  0  0  0  0  0  0  0  0  0
    5.3803   -1.2089    0.0000 H   0  0  0  0  0  0  0  0  0  0  0  0
    5.6073   -2.0559    0.0000 H   0  0  0  0  0  0  0  0  0  0  0  0
  1 12  1  0  0  0  0
  1 14  1  0  0  0  0
  2 15  2  0  0  0  0
  3 19  1  0  0  0  0
  3 45  1  0  0  0  0
  4 19  2  0  0  0  0
  5 23  1  0  0  0  0
  5 31  1  0  0  0  0
  6 24  1  0  0  0  0
  6 32  1  0  0  0  0
  7 27  1  0  0  0  0
  7 48  1  0  0  0  0
  8 11  1  0  0  0  0
  9 11  2  0  0  0  0
 10 12  1  0  0  0  0
 10 13  1  0  0  0  0
 10 15  1  0  0  0  0
 11 30  1  0  0  0  0
 12 17  1  0  0  0  0
 12 33  1  0  0  0  0
 13 16  1  0  0  0  0
 13 19  1  0  0  0  0
 13 34  1  0  0  0  0
 14 15  1  0  0  0  0
 14 18  1  0  0  0  0
 14 35  1  0  0  0  0
 16 20  1  0  0  0  0
 16 36  1  0  0  0  0
 16 37  1  0  0  0  0
 17 21  2  0  0  0  0
 17 22  1  0  0  0  0
 18 38  1  0  0  0  0
 18 39  1  0  0  0  0
 18 40  1  0  0  0  0
 20 25  2  0  0  0  0
 20 26  1  0  0  0  0
 21 24  1  0  0  0  0
 21 41  1  0  0  0  0
 22 23  2  0  0  0  0
 22 42  1  0  0  0  0
 23 27  1  0  0  0  0
 24 27  2  0  0  0  0
 25 28  1  0  0  0  0
 25 43  1  0  0  0  0
 26 29  2  0  0  0  0
 26 44  1  0  0  0  0
 28 30  2  0  0  0  0
 28 46  1  0  0  0  0
 29 30  1  0  0  0  0
 29 47  1  0  0  0  0
 31 49  1  0  0  0  0
 31 50  1  0  0  0  0
 31 51  1  0  0  0  0
 32 52  1  0  0  0  0
 32 53  1  0  0  0  0
 32 54  1  0  0  0  0
M  CHG  2   8  -1  11   1
M  END
> <PUBCHEM_COMPOUND_CID>
508443
> <PUBCHEM_COMPOUND_CANONICALIZED>
1
> <PUBCHEM_CACTVS_COMPLEXITY>
682
> <PUBCHEM_CACTVS_HBOND_ACCEPTOR>
9
> <PUBCHEM_CACTVS_HBOND_DONOR>
2
> <PUBCHEM_CACTVS_ROTATABLE_BOND>
7
> <PUBCHEM_CACTVS_SUBSKEYS>
AAADceB7PABAAAAAAAAAAAAAAAAAAWAAAAAwYAAAAAAAAAABQAAAHgQECAAADCzF2AayzoMQRgiJAiXSWwCCCABgIhAoiAGO7IoPJzKmsbuEcCtlxhW7+Ae4+L6OKAABCAAAQABQAAIQAACAAAAAAAAAAA==
> <PUBCHEM_IUPAC_OPENEYE_NAME>
2-[2-(4-hydroxy-3,5-dimethoxy-phenyl)-5-methyl-4-oxo-thiazolidin-3-yl]-3-(4-nitrophenyl)propanoic acid
> <PUBCHEM_IUPAC_CAS_NAME>
2-[2-(4-hydroxy-3,5-dimethoxyphenyl)-5-methyl-4-oxo-3-thiazolidinyl]-3-(4-nitrophenyl)propanoic acid
> <PUBCHEM_IUPAC_NAME_MARKUP>
2-[2-(4-hydroxy-3,5-dimethoxyphenyl)-5-methyl-4-oxo-1,3-thiazolidin-3-yl]-3-(4-nitrophenyl)propanoic acid
> <PUBCHEM_IUPAC_NAME>
2-[2-(4-hydroxy-3,5-dimethoxyphenyl)-5-methyl-4-oxo-1,3-thiazolidin-3-yl]-3-(4-nitrophenyl)propanoic acid
> <PUBCHEM_IUPAC_SYSTEMATIC_NAME>
2-[2-(3,5-dimethoxy-4-oxidanyl-phenyl)-5-methyl-4-oxidanylidene-1,3-thiazolidin-3-yl]-3-(4-nitrophenyl)propanoic acid
> <PUBCHEM_IUPAC_TRADITIONAL_NAME>
2-[2-(4-hydroxy-3,5-dimethoxy-phenyl)-4-keto-5-methyl-thiazolidin-3-yl]-3-(4-nitrophenyl)propionic acid
> <PUBCHEM_IUPAC_INCHI>
InChI=1S/C21H22N2O8S/c1-11-19(25)22(15(21(26)27)8-12-4-6-14(7-5-12)23(28)29)20(32-11)13-9-16(30-2)18(24)17(10-13)31-3/h4-7,9-11,15,20,24H,8H2,1-3H3,(H,26,27)
> <PUBCHEM_IUPAC_INCHIKEY>
ZQHLVBFQXDCKIC-UHFFFAOYSA-N
> <PUBCHEM_XLOGP3_AA>
3.2
> <PUBCHEM_EXACT_MASS>
462.10968684
> <PUBCHEM_MOLECULAR_FORMULA>
C21H22N2O8S
> <PUBCHEM_MOLECULAR_WEIGHT>
462.5
> <PUBCHEM_OPENEYE_CAN_SMILES>
CC1C(=O)N(C(S1)C2=CC(=C(C(=C2)OC)O)OC)C(CC3=CC=C(C=C3)[N+](=O)[O-])C(=O)O
> <PUBCHEM_OPENEYE_ISO_SMILES>
CC1C(=O)N(C(S1)C2=CC(=C(C(=C2)OC)O)OC)C(CC3=CC=C(C=C3)[N+](=O)[O-])C(=O)O
> <PUBCHEM_CACTVS_TPSA>
167
> <PUBCHEM_MONOISOTOPIC_WEIGHT>
462.10968684
> <PUBCHEM_TOTAL_CHARGE>
0
> <PUBCHEM_HEAVY_ATOM_COUNT>
32
> <PUBCHEM_ATOM_DEF_STEREO_COUNT>
0
> <PUBCHEM_ATOM_UDEF_STEREO_COUNT>
3
> <PUBCHEM_BOND_DEF_STEREO_COUNT>
0
> <PUBCHEM_BOND_UDEF_STEREO_COUNT>
0
> <PUBCHEM_ISOTOPIC_ATOM_COUNT>
0
> <PUBCHEM_COMPONENT_COUNT>
1
> <PUBCHEM_CACTVS_TAUTO_COUNT>
-1
> <PUBCHEM_COORDINATE_TYPE>
1
5
255
> <PUBCHEM_BONDANNOTATIONS>
12  17  3
13  16  3
14  18  3
17  21  8
17  22  8
20  25  8
20  26  8
21  24  8
22  23  8
23  27  8
24  27  8
25  28  8
26  29  8
28  30  8
29  30  8
$$$$
