508436
  -OEChem-10302200282D
 55 57  0     1  0  0  0  0  0999 V2000
    6.9537    1.3178    0.0000 S   0  0  0  0  0  0  0  0  0  0  0  0
    6.1911    3.7905    0.0000 O   0  0  0  0  0  0  0  0  0  0  0  0
    3.2872    3.4937    0.0000 O   0  0  0  0  0  0  0  0  0  0  0  0
    4.9344    4.0290    0.0000 O   0  0  0  0  0  0  0  0  0  0  0  0
    5.5525    2.1269    0.0000 N   0  0  0  0  0  0  0  0  0  0  0  0
    4.5743    2.3348    0.0000 C   0  0  3  0  0  0  0  0  0  0  0  0
    5.9592    1.2133    0.0000 C   0  0  3  0  0  0  0  0  0  0  0  0
    3.9052    1.5916    0.0000 C   0  0  0  0  0  0  0  0  0  0  0  0
    7.1616    2.2960    0.0000 C   0  0  3  0  0  0  0  0  0  0  0  0
    6.2956    2.7960    0.0000 C   0  0  0  0  0  0  0  0  0  0  0  0
    5.4592    0.3473    0.0000 C   0  0  0  0  0  0  0  0  0  0  0  0
    4.2653    3.2858    0.0000 C   0  0  0  0  0  0  0  0  0  0  0  0
    2.9271    1.7996    0.0000 C   0  0  0  0  0  0  0  0  0  0  0  0
    4.2142    0.6406    0.0000 C   0  0  0  0  0  0  0  0  0  0  0  0
    8.0752    2.7027    0.0000 C   0  0  0  0  0  0  0  0  0  0  0  0
    6.3252   -0.1527    0.0000 C   0  0  0  0  0  0  0  0  0  0  0  0
    4.5932   -0.1527    0.0000 C   0  0  0  0  0  0  0  0  0  0  0  0
    6.3252   -1.1527    0.0000 C   0  0  0  0  0  0  0  0  0  0  0  0
    4.5932   -1.1527    0.0000 C   0  0  0  0  0  0  0  0  0  0  0  0
    5.4592   -1.6527    0.0000 C   0  0  0  0  0  0  0  0  0  0  0  0
    2.9782    4.4448    0.0000 C   0  0  0  0  0  0  0  0  0  0  0  0
    5.4592   -2.6527    0.0000 C   0  0  0  0  0  0  0  0  0  0  0  0
    2.0000    4.6527    0.0000 C   0  0  0  0  0  0  0  0  0  0  0  0
    6.3252   -3.1527    0.0000 C   0  0  0  0  0  0  0  0  0  0  0  0
    4.5932   -3.1527    0.0000 C   0  0  0  0  0  0  0  0  0  0  0  0
    6.3252   -4.1527    0.0000 C   0  0  0  0  0  0  0  0  0  0  0  0
    4.5932   -4.1527    0.0000 C   0  0  0  0  0  0  0  0  0  0  0  0
    5.4592   -4.6527    0.0000 C   0  0  0  0  0  0  0  0  0  0  0  0
    4.9892    2.7955    0.0000 H   0  0  0  0  0  0  0  0  0  0  0  0
    5.3401    1.2458    0.0000 H   0  0  0  0  0  0  0  0  0  0  0  0
    3.4903    1.1309    0.0000 H   0  0  0  0  0  0  0  0  0  0  0  0
    7.6435    1.9058    0.0000 H   0  0  0  0  0  0  0  0  0  0  0  0
    3.0561    2.4061    0.0000 H   0  0  0  0  0  0  0  0  0  0  0  0
    2.3207    1.9286    0.0000 H   0  0  0  0  0  0  0  0  0  0  0  0
    2.7981    1.1932    0.0000 H   0  0  0  0  0  0  0  0  0  0  0  0
    3.6246    0.4490    0.0000 H   0  0  0  0  0  0  0  0  0  0  0  0
    4.4058    0.0510    0.0000 H   0  0  0  0  0  0  0  0  0  0  0  0
    4.8039    0.8322    0.0000 H   0  0  0  0  0  0  0  0  0  0  0  0
    8.3274    2.1363    0.0000 H   0  0  0  0  0  0  0  0  0  0  0  0
    8.6416    2.9549    0.0000 H   0  0  0  0  0  0  0  0  0  0  0  0
    7.8230    3.2691    0.0000 H   0  0  0  0  0  0  0  0  0  0  0  0
    6.8622    0.1573    0.0000 H   0  0  0  0  0  0  0  0  0  0  0  0
    4.0562    0.1573    0.0000 H   0  0  0  0  0  0  0  0  0  0  0  0
    6.8622   -1.4627    0.0000 H   0  0  0  0  0  0  0  0  0  0  0  0
    4.0562   -1.4627    0.0000 H   0  0  0  0  0  0  0  0  0  0  0  0
    3.5921    4.5311    0.0000 H   0  0  0  0  0  0  0  0  0  0  0  0
    2.9998    5.0644    0.0000 H   0  0  0  0  0  0  0  0  0  0  0  0
    2.1289    5.2592    0.0000 H   0  0  0  0  0  0  0  0  0  0  0  0
    1.3936    4.7816    0.0000 H   0  0  0  0  0  0  0  0  0  0  0  0
    1.8711    4.0463    0.0000 H   0  0  0  0  0  0  0  0  0  0  0  0
    6.8622   -2.8427    0.0000 H   0  0  0  0  0  0  0  0  0  0  0  0
    4.0562   -2.8427    0.0000 H   0  0  0  0  0  0  0  0  0  0  0  0
    6.8622   -4.4627    0.0000 H   0  0  0  0  0  0  0  0  0  0  0  0
    4.0562   -4.4627    0.0000 H   0  0  0  0  0  0  0  0  0  0  0  0
    5.4592   -5.2727    0.0000 H   0  0  0  0  0  0  0  0  0  0  0  0
  1  7  1  0  0  0  0
  1  9  1  0  0  0  0
  2 10  2  0  0  0  0
  3 12  1  0  0  0  0
  3 21  1  0  0  0  0
  4 12  2  0  0  0  0
  5  6  1  0  0  0  0
  5  7  1  0  0  0  0
  5 10  1  0  0  0  0
  6  8  1  0  0  0  0
  6 12  1  0  0  0  0
  6 29  1  0  0  0  0
  7 11  1  0  0  0  0
  7 30  1  0  0  0  0
  8 13  1  0  0  0  0
  8 14  1  0  0  0  0
  8 31  1  0  0  0  0
  9 10  1  0  0  0  0
  9 15  1  0  0  0  0
  9 32  1  0  0  0  0
 11 16  2  0  0  0  0
 11 17  1  0  0  0  0
 13 33  1  0  0  0  0
 13 34  1  0  0  0  0
 13 35  1  0  0  0  0
 14 36  1  0  0  0  0
 14 37  1  0  0  0  0
 14 38  1  0  0  0  0
 15 39  1  0  0  0  0
 15 40  1  0  0  0  0
 15 41  1  0  0  0  0
 16 18  1  0  0  0  0
 16 42  1  0  0  0  0
 17 19  2  0  0  0  0
 17 43  1  0  0  0  0
 18 20  2  0  0  0  0
 18 44  1  0  0  0  0
 19 20  1  0  0  0  0
 19 45  1  0  0  0  0
 20 22  1  0  0  0  0
 21 23  1  0  0  0  0
 21 46  1  0  0  0  0
 21 47  1  0  0  0  0
 22 24  2  0  0  0  0
 22 25  1  0  0  0  0
 23 48  1  0  0  0  0
 23 49  1  0  0  0  0
 23 50  1  0  0  0  0
 24 26  1  0  0  0  0
 24 51  1  0  0  0  0
 25 27  2  0  0  0  0
 25 52  1  0  0  0  0
 26 28  2  0  0  0  0
 26 53  1  0  0  0  0
 27 28  1  0  0  0  0
 27 54  1  0  0  0  0
 28 55  1  0  0  0  0
M  END
> <PUBCHEM_COMPOUND_CID>
508436
> <PUBCHEM_COMPOUND_CANONICALIZED>
1
> <PUBCHEM_CACTVS_COMPLEXITY>
538
> <PUBCHEM_CACTVS_HBOND_ACCEPTOR>
4
> <PUBCHEM_CACTVS_HBOND_DONOR>
0
> <PUBCHEM_CACTVS_ROTATABLE_BOND>
7
> <PUBCHEM_CACTVS_SUBSKEYS>
AAADceB6MABAAAAAAAAAAAAAAAAAAWAAAAAwYAAAAAAAAAABQAAAHgQAAAAADSjl2AayCIMABAiIAiHSGACCAABgABAIiAGIBIgKIDKgkTGHIAhkhgC4iAcQgMAOwAAAAAAAAACAAAAAAAAAAAAAAAAAAA==
> <PUBCHEM_IUPAC_OPENEYE_NAME>
ethyl 3-methyl-2-[5-methyl-4-oxo-2-(4-phenylphenyl)thiazolidin-3-yl]butanoate
> <PUBCHEM_IUPAC_CAS_NAME>
3-methyl-2-[5-methyl-4-oxo-2-(4-phenylphenyl)-3-thiazolidinyl]butanoic acid ethyl ester
> <PUBCHEM_IUPAC_NAME_MARKUP>
ethyl 3-methyl-2-[5-methyl-4-oxo-2-(4-phenylphenyl)-1,3-thiazolidin-3-yl]butanoate
> <PUBCHEM_IUPAC_NAME>
ethyl 3-methyl-2-[5-methyl-4-oxo-2-(4-phenylphenyl)-1,3-thiazolidin-3-yl]butanoate
> <PUBCHEM_IUPAC_SYSTEMATIC_NAME>
ethyl 3-methyl-2-[5-methyl-4-oxidanylidene-2-(4-phenylphenyl)-1,3-thiazolidin-3-yl]butanoate
> <PUBCHEM_IUPAC_TRADITIONAL_NAME>
2-[4-keto-5-methyl-2-(4-phenylphenyl)thiazolidin-3-yl]-3-methyl-butyric acid ethyl ester
> <PUBCHEM_IUPAC_INCHI>
InChI=1S/C23H27NO3S/c1-5-27-23(26)20(15(2)3)24-21(25)16(4)28-22(24)19-13-11-18(12-14-19)17-9-7-6-8-10-17/h6-16,20,22H,5H2,1-4H3
> <PUBCHEM_IUPAC_INCHIKEY>
LHUSIXKOKHBCOS-UHFFFAOYSA-N
> <PUBCHEM_XLOGP3_AA>
5.5
> <PUBCHEM_EXACT_MASS>
397.17116490
> <PUBCHEM_MOLECULAR_FORMULA>
C23H27NO3S
> <PUBCHEM_MOLECULAR_WEIGHT>
397.5
> <PUBCHEM_OPENEYE_CAN_SMILES>
CCOC(=O)C(C(C)C)N1C(SC(C1=O)C)C2=CC=C(C=C2)C3=CC=CC=C3
> <PUBCHEM_OPENEYE_ISO_SMILES>
CCOC(=O)C(C(C)C)N1C(SC(C1=O)C)C2=CC=C(C=C2)C3=CC=CC=C3
> <PUBCHEM_CACTVS_TPSA>
71.9
> <PUBCHEM_MONOISOTOPIC_WEIGHT>
397.17116490
> <PUBCHEM_TOTAL_CHARGE>
0
> <PUBCHEM_HEAVY_ATOM_COUNT>
28
> <PUBCHEM_ATOM_DEF_STEREO_COUNT>
0
> <PUBCHEM_ATOM_UDEF_STEREO_COUNT>
3
> <PUBCHEM_BOND_DEF_STEREO_COUNT>
0
> <PUBCHEM_BOND_UDEF_STEREO_COUNT>
0
> <PUBCHEM_ISOTOPIC_ATOM_COUNT>
0
> <PUBCHEM_COMPONENT_COUNT>
1
> <PUBCHEM_CACTVS_TAUTO_COUNT>
-1
> <PUBCHEM_COORDINATE_TYPE>
1
5
255
> <PUBCHEM_BONDANNOTATIONS>
11  16  8
11  17  8
16  18  8
17  19  8
18  20  8
19  20  8
22  24  8
22  25  8
24  26  8
25  27  8
26  28  8
27  28  8
6  8  3
7  11  3
9  15  3
$$$$
