508434
  -OEChem-10302200282D
 59 61  0     1  0  0  0  0  0999 V2000
    3.7891    2.4139    0.0000 S   0  0  0  0  0  0  0  0  0  0  0  0
    8.0524    2.4650    0.0000 O   0  0  0  0  0  0  0  0  0  0  0  0
    5.6859    4.1739    0.0000 O   0  0  0  0  0  0  0  0  0  0  0  0
    6.8934    3.7521    0.0000 O   0  0  0  0  0  0  0  0  0  0  0  0
    8.6761   -0.4695    0.0000 O   0  0  0  0  0  0  0  0  0  0  0  0
    2.8660   -1.1739    0.0000 O   0  0  0  0  0  0  0  0  0  0  0  0
    6.9819   -0.8296    0.0000 O   0  0  0  0  0  0  0  0  0  0  0  0
    5.4071    2.4139    0.0000 N   0  0  0  0  0  0  0  0  0  0  0  0
    6.3582    2.1048    0.0000 C   0  0  3  0  0  0  0  0  0  0  0  0
    4.5981    1.8261    0.0000 C   0  0  3  0  0  0  0  0  0  0  0  0
    6.5661    1.1267    0.0000 C   0  0  0  0  0  0  0  0  0  0  0  0
    5.0981    3.3649    0.0000 C   0  0  0  0  0  0  0  0  0  0  0  0
    4.0981    3.3649    0.0000 C   0  0  0  0  0  0  0  0  0  0  0  0
    4.5981    0.8261    0.0000 C   0  0  0  0  0  0  0  0  0  0  0  0
    7.5171    0.8177    0.0000 C   0  0  0  0  0  0  0  0  0  0  0  0
    7.1013    2.7740    0.0000 C   0  0  0  0  0  0  0  0  0  0  0  0
    3.7320    0.3261    0.0000 C   0  0  0  0  0  0  0  0  0  0  0  0
    5.4641    0.3261    0.0000 C   0  0  0  0  0  0  0  0  0  0  0  0
    7.7250   -0.1605    0.0000 C   0  0  0  0  0  0  0  0  0  0  0  0
    3.7320   -0.6739    0.0000 C   0  0  0  0  0  0  0  0  0  0  0  0
    5.4641   -0.6739    0.0000 C   0  0  0  0  0  0  0  0  0  0  0  0
    4.5981   -1.1739    0.0000 C   0  0  0  0  0  0  0  0  0  0  0  0
    8.7955    3.1341    0.0000 C   0  0  0  0  0  0  0  0  0  0  0  0
    9.7465    2.8251    0.0000 C   0  0  0  0  0  0  0  0  0  0  0  0
    8.8840   -1.4476    0.0000 C   0  0  0  0  0  0  0  0  0  0  0  0
    2.8660   -2.1739    0.0000 C   0  0  0  0  0  0  0  0  0  0  0  0
    9.8351   -1.7566    0.0000 C   0  0  0  0  0  0  0  0  0  0  0  0
    3.7320   -2.6739    0.0000 C   0  0  0  0  0  0  0  0  0  0  0  0
    2.0000   -2.6739    0.0000 C   0  0  0  0  0  0  0  0  0  0  0  0
    3.7320   -3.6739    0.0000 C   0  0  0  0  0  0  0  0  0  0  0  0
    2.0000   -3.6739    0.0000 C   0  0  0  0  0  0  0  0  0  0  0  0
    2.8660   -4.1739    0.0000 C   0  0  0  0  0  0  0  0  0  0  0  0
    5.8974    1.6900    0.0000 H   0  0  0  0  0  0  0  0  0  0  0  0
    5.1505    1.5446    0.0000 H   0  0  0  0  0  0  0  0  0  0  0  0
    5.9464    1.1050    0.0000 H   0  0  0  0  0  0  0  0  0  0  0  0
    6.4798    0.5127    0.0000 H   0  0  0  0  0  0  0  0  0  0  0  0
    4.1629    3.9815    0.0000 H   0  0  0  0  0  0  0  0  0  0  0  0
    3.4916    3.4938    0.0000 H   0  0  0  0  0  0  0  0  0  0  0  0
    8.1367    0.8393    0.0000 H   0  0  0  0  0  0  0  0  0  0  0  0
    7.6034    1.4316    0.0000 H   0  0  0  0  0  0  0  0  0  0  0  0
    3.1951    0.6361    0.0000 H   0  0  0  0  0  0  0  0  0  0  0  0
    6.0010    0.6361    0.0000 H   0  0  0  0  0  0  0  0  0  0  0  0
    6.0010   -0.9839    0.0000 H   0  0  0  0  0  0  0  0  0  0  0  0
    4.5981   -1.7939    0.0000 H   0  0  0  0  0  0  0  0  0  0  0  0
    9.0866    3.6815    0.0000 H   0  0  0  0  0  0  0  0  0  0  0  0
    8.3069    3.5158    0.0000 H   0  0  0  0  0  0  0  0  0  0  0  0
    9.5550    2.2354    0.0000 H   0  0  0  0  0  0  0  0  0  0  0  0
   10.3362    2.6335    0.0000 H   0  0  0  0  0  0  0  0  0  0  0  0
    9.9381    3.4147    0.0000 H   0  0  0  0  0  0  0  0  0  0  0  0
    8.2644   -1.4693    0.0000 H   0  0  0  0  0  0  0  0  0  0  0  0
    8.7977   -2.0616    0.0000 H   0  0  0  0  0  0  0  0  0  0  0  0
    9.6435   -2.3463    0.0000 H   0  0  0  0  0  0  0  0  0  0  0  0
   10.4247   -1.9482    0.0000 H   0  0  0  0  0  0  0  0  0  0  0  0
   10.0266   -1.1670    0.0000 H   0  0  0  0  0  0  0  0  0  0  0  0
    4.2690   -2.3639    0.0000 H   0  0  0  0  0  0  0  0  0  0  0  0
    1.4631   -2.3639    0.0000 H   0  0  0  0  0  0  0  0  0  0  0  0
    4.2690   -3.9839    0.0000 H   0  0  0  0  0  0  0  0  0  0  0  0
    1.4631   -3.9839    0.0000 H   0  0  0  0  0  0  0  0  0  0  0  0
    2.8660   -4.7939    0.0000 H   0  0  0  0  0  0  0  0  0  0  0  0
  1 10  1  0  0  0  0
  1 13  1  0  0  0  0
  2 16  1  0  0  0  0
  2 23  1  0  0  0  0
  3 12  2  0  0  0  0
  4 16  2  0  0  0  0
  5 19  1  0  0  0  0
  5 25  1  0  0  0  0
  6 20  1  0  0  0  0
  6 26  1  0  0  0  0
  7 19  2  0  0  0  0
  8  9  1  0  0  0  0
  8 10  1  0  0  0  0
  8 12  1  0  0  0  0
  9 11  1  0  0  0  0
  9 16  1  0  0  0  0
  9 33  1  0  0  0  0
 10 14  1  0  0  0  0
 10 34  1  0  0  0  0
 11 15  1  0  0  0  0
 11 35  1  0  0  0  0
 11 36  1  0  0  0  0
 12 13  1  0  0  0  0
 13 37  1  0  0  0  0
 13 38  1  0  0  0  0
 14 17  2  0  0  0  0
 14 18  1  0  0  0  0
 15 19  1  0  0  0  0
 15 39  1  0  0  0  0
 15 40  1  0  0  0  0
 17 20  1  0  0  0  0
 17 41  1  0  0  0  0
 18 21  2  0  0  0  0
 18 42  1  0  0  0  0
 20 22  2  0  0  0  0
 21 22  1  0  0  0  0
 21 43  1  0  0  0  0
 22 44  1  0  0  0  0
 23 24  1  0  0  0  0
 23 45  1  0  0  0  0
 23 46  1  0  0  0  0
 24 47  1  0  0  0  0
 24 48  1  0  0  0  0
 24 49  1  0  0  0  0
 25 27  1  0  0  0  0
 25 50  1  0  0  0  0
 25 51  1  0  0  0  0
 26 28  2  0  0  0  0
 26 29  1  0  0  0  0
 27 52  1  0  0  0  0
 27 53  1  0  0  0  0
 27 54  1  0  0  0  0
 28 30  1  0  0  0  0
 28 55  1  0  0  0  0
 29 31  2  0  0  0  0
 29 56  1  0  0  0  0
 30 32  2  0  0  0  0
 30 57  1  0  0  0  0
 31 32  1  0  0  0  0
 31 58  1  0  0  0  0
 32 59  1  0  0  0  0
M  END
> <PUBCHEM_COMPOUND_CID>
508434
> <PUBCHEM_COMPOUND_CANONICALIZED>
1
> <PUBCHEM_CACTVS_COMPLEXITY>
638
> <PUBCHEM_CACTVS_HBOND_ACCEPTOR>
7
> <PUBCHEM_CACTVS_HBOND_DONOR>
0
> <PUBCHEM_CACTVS_ROTATABLE_BOND>
12
> <PUBCHEM_CACTVS_SUBSKEYS>
AAADceB6OABAAAAAAAAAAAAAAAAAAWAAAAAwYAAAAAAAAAABQAAAHgQAAAAADCzl2AayDoMABAiIAiHSGACCCABgIBAIiAGODIgOJjKksTuHOCjkxhG4qAe85hgOAAABAAAAAAAAAAIAAAAAAAAAAAAAAA==
> <PUBCHEM_IUPAC_OPENEYE_NAME>
diethyl 2-[4-oxo-2-(3-phenoxyphenyl)thiazolidin-3-yl]pentanedioate
> <PUBCHEM_IUPAC_CAS_NAME>
2-[4-oxo-2-(3-phenoxyphenyl)-3-thiazolidinyl]pentanedioic acid diethyl ester
> <PUBCHEM_IUPAC_NAME_MARKUP>
diethyl 2-[4-oxo-2-(3-phenoxyphenyl)-1,3-thiazolidin-3-yl]pentanedioate
> <PUBCHEM_IUPAC_NAME>
diethyl 2-[4-oxo-2-(3-phenoxyphenyl)-1,3-thiazolidin-3-yl]pentanedioate
> <PUBCHEM_IUPAC_SYSTEMATIC_NAME>
diethyl 2-[4-oxidanylidene-2-(3-phenoxyphenyl)-1,3-thiazolidin-3-yl]pentanedioate
> <PUBCHEM_IUPAC_TRADITIONAL_NAME>
2-[4-keto-2-(3-phenoxyphenyl)thiazolidin-3-yl]glutaric acid diethyl ester
> <PUBCHEM_IUPAC_INCHI>
InChI=1S/C24H27NO6S/c1-3-29-22(27)14-13-20(24(28)30-4-2)25-21(26)16-32-23(25)17-9-8-12-19(15-17)31-18-10-6-5-7-11-18/h5-12,15,20,23H,3-4,13-14,16H2,1-2H3
> <PUBCHEM_IUPAC_INCHIKEY>
AADAFUXSFAXHGZ-UHFFFAOYSA-N
> <PUBCHEM_XLOGP3_AA>
4.2
> <PUBCHEM_EXACT_MASS>
457.15590875
> <PUBCHEM_MOLECULAR_FORMULA>
C24H27NO6S
> <PUBCHEM_MOLECULAR_WEIGHT>
457.5
> <PUBCHEM_OPENEYE_CAN_SMILES>
CCOC(=O)CCC(C(=O)OCC)N1C(SCC1=O)C2=CC(=CC=C2)OC3=CC=CC=C3
> <PUBCHEM_OPENEYE_ISO_SMILES>
CCOC(=O)CCC(C(=O)OCC)N1C(SCC1=O)C2=CC(=CC=C2)OC3=CC=CC=C3
> <PUBCHEM_CACTVS_TPSA>
107
> <PUBCHEM_MONOISOTOPIC_WEIGHT>
457.15590875
> <PUBCHEM_TOTAL_CHARGE>
0
> <PUBCHEM_HEAVY_ATOM_COUNT>
32
> <PUBCHEM_ATOM_DEF_STEREO_COUNT>
0
> <PUBCHEM_ATOM_UDEF_STEREO_COUNT>
2
> <PUBCHEM_BOND_DEF_STEREO_COUNT>
0
> <PUBCHEM_BOND_UDEF_STEREO_COUNT>
0
> <PUBCHEM_ISOTOPIC_ATOM_COUNT>
0
> <PUBCHEM_COMPONENT_COUNT>
1
> <PUBCHEM_CACTVS_TAUTO_COUNT>
-1
> <PUBCHEM_COORDINATE_TYPE>
1
5
255
> <PUBCHEM_BONDANNOTATIONS>
10  14  3
14  17  8
14  18  8
17  20  8
18  21  8
20  22  8
21  22  8
26  28  8
26  29  8
28  30  8
29  31  8
30  32  8
31  32  8
9  11  3
$$$$
