508531
  -OEChem-10302200282D
 91 94  0     1  0  0  0  0  0999 V2000
    9.3928   -4.5061    0.0000 S   0  0  0  0  0  0  0  0  0  0  0  0
    5.6499    3.5556    0.0000 S   0  0  0  0  0  0  0  0  0  0  0  0
    8.6485   -5.1739    0.0000 O   0  0  0  0  0  0  0  0  0  0  0  0
   10.1371   -3.8382    0.0000 O   0  0  0  0  0  0  0  0  0  0  0  0
   10.6820   -3.3494    0.0000 O   0  0  0  0  0  0  0  0  0  0  0  0
   10.3248   -1.6545    0.0000 O   0  0  0  0  0  0  0  0  0  0  0  0
    6.3642    0.1659    0.0000 O   0  0  0  0  0  0  0  0  0  0  0  0
    6.3942    4.2234    0.0000 O   0  0  0  0  0  0  0  0  0  0  0  0
    4.9056    2.8877    0.0000 O   0  0  0  0  0  0  0  0  0  0  0  0
    3.2892    7.4833    0.0000 O   0  5  0  0  0  0  0  0  0  0  0  0
    2.0000    6.3266    0.0000 O   0  0  0  0  0  0  0  0  0  0  0  0
    8.7250   -3.7618    0.0000 N   0  0  3  0  0  0  0  0  0  0  0  0
    7.6534    1.3227    0.0000 N   0  0  0  0  0  0  0  0  0  0  0  0
    6.3177    2.8113    0.0000 N   0  0  0  0  0  0  0  0  0  0  0  0
    4.7179   -0.9054    0.0000 N   0  0  0  0  0  0  0  0  0  0  0  0
    2.9785    6.5328    0.0000 N   0  3  0  0  0  0  0  0  0  0  0  0
    9.0356   -2.8113    0.0000 C   0  0  1  0  0  0  0  0  0  0  0  0
    8.3678   -2.0670    0.0000 C   0  0  0  0  0  0  0  0  0  0  0  0
    7.7464   -3.9680    0.0000 C   0  0  0  0  0  0  0  0  0  0  0  0
    8.6784   -1.1164    0.0000 C   0  0  0  0  0  0  0  0  0  0  0  0
    7.4358   -4.9185    0.0000 C   0  0  0  0  0  0  0  0  0  0  0  0
    8.0106   -0.3722    0.0000 C   0  0  0  0  0  0  0  0  0  0  0  0
   10.0141   -2.6051    0.0000 C   0  0  0  0  0  0  0  0  0  0  0  0
    8.3212    0.5784    0.0000 C   0  0  0  0  0  0  0  0  0  0  0  0
   10.0606   -5.2504    0.0000 C   0  0  0  0  0  0  0  0  0  0  0  0
    6.4573   -5.1248    0.0000 C   0  0  0  0  0  0  0  0  0  0  0  0
    8.1036   -5.6628    0.0000 C   0  0  0  0  0  0  0  0  0  0  0  0
    6.0071    1.8608    0.0000 C   0  0  1  0  0  0  0  0  0  0  0  0
    5.0286    1.6545    0.0000 C   0  0  0  0  0  0  0  0  0  0  0  0
    6.6749    1.1164    0.0000 C   0  0  0  0  0  0  0  0  0  0  0  0
    4.7179    0.7040    0.0000 C   0  0  0  0  0  0  0  0  0  0  0  0
    9.7500   -6.2009    0.0000 C   0  0  0  0  0  0  0  0  0  0  0  0
   11.0391   -5.0442    0.0000 C   0  0  0  0  0  0  0  0  0  0  0  0
    3.7717    0.3993    0.0000 C   0  0  0  0  0  0  0  0  0  0  0  0
    3.7717   -0.6007    0.0000 C   0  0  0  0  0  0  0  0  0  0  0  0
    5.3015   -0.1007    0.0000 C   0  0  0  0  0  0  0  0  0  0  0  0
   10.4178   -6.9452    0.0000 C   0  0  0  0  0  0  0  0  0  0  0  0
   11.7070   -5.7885    0.0000 C   0  0  0  0  0  0  0  0  0  0  0  0
   11.3963   -6.7390    0.0000 C   0  0  0  0  0  0  0  0  0  0  0  0
    2.9056    0.8993    0.0000 C   0  0  0  0  0  0  0  0  0  0  0  0
    4.9820    4.2999    0.0000 C   0  0  0  0  0  0  0  0  0  0  0  0
    2.9056   -1.1007    0.0000 C   0  0  0  0  0  0  0  0  0  0  0  0
   12.0642   -7.4833    0.0000 C   0  0  0  0  0  0  0  0  0  0  0  0
    2.0396    0.3993    0.0000 C   0  0  0  0  0  0  0  0  0  0  0  0
    2.0396   -0.6007    0.0000 C   0  0  0  0  0  0  0  0  0  0  0  0
    5.2927    5.2504    0.0000 C   0  0  0  0  0  0  0  0  0  0  0  0
    4.0035    4.0937    0.0000 C   0  0  0  0  0  0  0  0  0  0  0  0
    4.6249    5.9947    0.0000 C   0  0  0  0  0  0  0  0  0  0  0  0
    3.3357    4.8380    0.0000 C   0  0  0  0  0  0  0  0  0  0  0  0
    3.6464    5.7885    0.0000 C   0  0  0  0  0  0  0  0  0  0  0  0
    9.4497   -3.2727    0.0000 H   0  0  0  0  0  0  0  0  0  0  0  0
    7.8208   -1.7750    0.0000 H   0  0  0  0  0  0  0  0  0  0  0  0
    7.9852   -2.5549    0.0000 H   0  0  0  0  0  0  0  0  0  0  0  0
    7.7259   -3.3484    0.0000 H   0  0  0  0  0  0  0  0  0  0  0  0
    7.1326   -3.8807    0.0000 H   0  0  0  0  0  0  0  0  0  0  0  0
    9.2254   -1.4085    0.0000 H   0  0  0  0  0  0  0  0  0  0  0  0
    9.0610   -0.6285    0.0000 H   0  0  0  0  0  0  0  0  0  0  0  0
    8.0425   -4.7907    0.0000 H   0  0  0  0  0  0  0  0  0  0  0  0
    7.4637   -0.0801    0.0000 H   0  0  0  0  0  0  0  0  0  0  0  0
    7.6280   -0.8601    0.0000 H   0  0  0  0  0  0  0  0  0  0  0  0
    8.8682    0.2864    0.0000 H   0  0  0  0  0  0  0  0  0  0  0  0
    8.7038    1.0663    0.0000 H   0  0  0  0  0  0  0  0  0  0  0  0
    6.3294   -4.5181    0.0000 H   0  0  0  0  0  0  0  0  0  0  0  0
    5.8506   -5.2526    0.0000 H   0  0  0  0  0  0  0  0  0  0  0  0
    6.5851   -5.7314    0.0000 H   0  0  0  0  0  0  0  0  0  0  0  0
    7.6422   -6.0769    0.0000 H   0  0  0  0  0  0  0  0  0  0  0  0
    8.5177   -6.1243    0.0000 H   0  0  0  0  0  0  0  0  0  0  0  0
    8.5651   -5.2488    0.0000 H   0  0  0  0  0  0  0  0  0  0  0  0
    5.5930    2.3222    0.0000 H   0  0  0  0  0  0  0  0  0  0  0  0
    5.0080    2.2742    0.0000 H   0  0  0  0  0  0  0  0  0  0  0  0
    4.4147    1.7419    0.0000 H   0  0  0  0  0  0  0  0  0  0  0  0
    7.8460    1.9120    0.0000 H   0  0  0  0  0  0  0  0  0  0  0  0
    9.1433   -6.3288    0.0000 H   0  0  0  0  0  0  0  0  0  0  0  0
   11.2318   -4.4549    0.0000 H   0  0  0  0  0  0  0  0  0  0  0  0
    6.9244    2.9391    0.0000 H   0  0  0  0  0  0  0  0  0  0  0  0
    5.9215   -0.1007    0.0000 H   0  0  0  0  0  0  0  0  0  0  0  0
   11.2886   -3.2215    0.0000 H   0  0  0  0  0  0  0  0  0  0  0  0
   10.2252   -7.5345    0.0000 H   0  0  0  0  0  0  0  0  0  0  0  0
   12.3137   -5.6606    0.0000 H   0  0  0  0  0  0  0  0  0  0  0  0
    4.9105   -1.4948    0.0000 H   0  0  0  0  0  0  0  0  0  0  0  0
    2.9056    1.5193    0.0000 H   0  0  0  0  0  0  0  0  0  0  0  0
    2.9056   -1.7207    0.0000 H   0  0  0  0  0  0  0  0  0  0  0  0
    1.5027    0.7093    0.0000 H   0  0  0  0  0  0  0  0  0  0  0  0
   11.6027   -7.8974    0.0000 H   0  0  0  0  0  0  0  0  0  0  0  0
   12.4782   -7.9448    0.0000 H   0  0  0  0  0  0  0  0  0  0  0  0
   12.5256   -7.0692    0.0000 H   0  0  0  0  0  0  0  0  0  0  0  0
    1.5027   -0.9107    0.0000 H   0  0  0  0  0  0  0  0  0  0  0  0
    5.8994    5.3783    0.0000 H   0  0  0  0  0  0  0  0  0  0  0  0
    3.8109    3.5043    0.0000 H   0  0  0  0  0  0  0  0  0  0  0  0
    4.8175    6.5840    0.0000 H   0  0  0  0  0  0  0  0  0  0  0  0
    2.7290    4.7101    0.0000 H   0  0  0  0  0  0  0  0  0  0  0  0
  1  3  2  0  0  0  0
  1  4  2  0  0  0  0
  1 12  1  0  0  0  0
  1 25  1  0  0  0  0
  2  8  2  0  0  0  0
  2  9  2  0  0  0  0
  2 14  1  0  0  0  0
  2 41  1  0  0  0  0
  5 23  1  0  0  0  0
  5 77  1  0  0  0  0
  6 23  2  0  0  0  0
  7 30  2  0  0  0  0
 10 16  1  0  0  0  0
 11 16  2  0  0  0  0
 17 12  1  1  0  0  0
 12 19  1  0  0  0  0
 13 24  1  0  0  0  0
 13 30  1  0  0  0  0
 13 72  1  0  0  0  0
 28 14  1  6  0  0  0
 14 75  1  0  0  0  0
 15 35  1  0  0  0  0
 15 36  1  0  0  0  0
 15 80  1  0  0  0  0
 16 50  1  0  0  0  0
 17 18  1  0  0  0  0
 17 23  1  0  0  0  0
 17 51  1  0  0  0  0
 18 20  1  0  0  0  0
 18 52  1  0  0  0  0
 18 53  1  0  0  0  0
 19 21  1  0  0  0  0
 19 54  1  0  0  0  0
 19 55  1  0  0  0  0
 20 22  1  0  0  0  0
 20 56  1  0  0  0  0
 20 57  1  0  0  0  0
 21 26  1  0  0  0  0
 21 27  1  0  0  0  0
 21 58  1  0  0  0  0
 22 24  1  0  0  0  0
 22 59  1  0  0  0  0
 22 60  1  0  0  0  0
 24 61  1  0  0  0  0
 24 62  1  0  0  0  0
 25 32  2  0  0  0  0
 25 33  1  0  0  0  0
 26 63  1  0  0  0  0
 26 64  1  0  0  0  0
 26 65  1  0  0  0  0
 27 66  1  0  0  0  0
 27 67  1  0  0  0  0
 27 68  1  0  0  0  0
 28 29  1  0  0  0  0
 28 30  1  0  0  0  0
 28 69  1  0  0  0  0
 29 31  1  0  0  0  0
 29 70  1  0  0  0  0
 29 71  1  0  0  0  0
 31 34  1  0  0  0  0
 31 36  2  0  0  0  0
 32 37  1  0  0  0  0
 32 73  1  0  0  0  0
 33 38  2  0  0  0  0
 33 74  1  0  0  0  0
 34 35  1  0  0  0  0
 34 40  2  0  0  0  0
 35 42  2  0  0  0  0
 36 76  1  0  0  0  0
 37 39  2  0  0  0  0
 37 78  1  0  0  0  0
 38 39  1  0  0  0  0
 38 79  1  0  0  0  0
 39 43  1  0  0  0  0
 40 44  1  0  0  0  0
 40 81  1  0  0  0  0
 41 46  2  0  0  0  0
 41 47  1  0  0  0  0
 42 45  1  0  0  0  0
 42 82  1  0  0  0  0
 43 84  1  0  0  0  0
 43 85  1  0  0  0  0
 43 86  1  0  0  0  0
 44 45  2  0  0  0  0
 44 83  1  0  0  0  0
 45 87  1  0  0  0  0
 46 48  1  0  0  0  0
 46 88  1  0  0  0  0
 47 49  2  0  0  0  0
 47 89  1  0  0  0  0
 48 50  2  0  0  0  0
 48 90  1  0  0  0  0
 49 50  1  0  0  0  0
 49 91  1  0  0  0  0
M  CHG  2  10  -1  16   1
M  END
> <PUBCHEM_COMPOUND_CID>
508531
> <PUBCHEM_COMPOUND_CANONICALIZED>
1
> <PUBCHEM_CACTVS_COMPLEXITY>
1350
> <PUBCHEM_CACTVS_HBOND_ACCEPTOR>
11
> <PUBCHEM_CACTVS_HBOND_DONOR>
4
> <PUBCHEM_CACTVS_ROTATABLE_BOND>
17
> <PUBCHEM_CACTVS_SUBSKEYS>
AAADcfB/vABgAAAAAAAAAAAAAAAAAWAAAAAwYMAAAAAAAFgB9AAAHgQUSAAADSjB3gQ+yfLZ0gKpAzX3X3DCgDAxAiAo2bm4ZJoKYPLAkbGUYAhklgDYyAeYycCOkAQAAAACAAAgCAAAAAQAAAAAAAAAAA==
> <PUBCHEM_IUPAC_OPENEYE_NAME>
(2S)-6-[[(2S)-3-(1H-indol-3-yl)-2-[(4-nitrophenyl)sulfonylamino]propanoyl]amino]-2-[isobutyl(p-tolylsulfonyl)amino]hexanoic acid
> <PUBCHEM_IUPAC_CAS_NAME>
(2S)-6-[[(2S)-3-(1H-indol-3-yl)-2-[(4-nitrophenyl)sulfonylamino]-1-oxopropyl]amino]-2-[(4-methylphenyl)sulfonyl-(2-methylpropyl)amino]hexanoic acid
> <PUBCHEM_IUPAC_NAME_MARKUP>
(2<I>S</I>)-6-[[(2<I>S</I>)-3-(1<I>H</I>-indol-3-yl)-2-[(4-nitrophenyl)sulfonylamino]propanoyl]amino]-2-[(4-methylphenyl)sulfonyl-(2-methylpropyl)amino]hexanoic acid
> <PUBCHEM_IUPAC_NAME>
(2S)-6-[[(2S)-3-(1H-indol-3-yl)-2-[(4-nitrophenyl)sulfonylamino]propanoyl]amino]-2-[(4-methylphenyl)sulfonyl-(2-methylpropyl)amino]hexanoic acid
> <PUBCHEM_IUPAC_SYSTEMATIC_NAME>
(2S)-6-[[(2S)-3-(1H-indol-3-yl)-2-[(4-nitrophenyl)sulfonylamino]propanoyl]amino]-2-[(4-methylphenyl)sulfonyl-(2-methylpropyl)amino]hexanoic acid
> <PUBCHEM_IUPAC_TRADITIONAL_NAME>
(2S)-6-[[(2S)-3-(1H-indol-3-yl)-2-(nosylamino)propanoyl]amino]-2-[isobutyl(tosyl)amino]hexanoic acid
> <PUBCHEM_IUPAC_INCHI>
InChI=1S/C34H41N5O9S2/c1-23(2)22-38(50(47,48)28-15-11-24(3)12-16-28)32(34(41)42)10-6-7-19-35-33(40)31(20-25-21-36-30-9-5-4-8-29(25)30)37-49(45,46)27-17-13-26(14-18-27)39(43)44/h4-5,8-9,11-18,21,23,31-32,36-37H,6-7,10,19-20,22H2,1-3H3,(H,35,40)(H,41,42)/t31-,32-/m0/s1
> <PUBCHEM_IUPAC_INCHIKEY>
ZGOHUUUPATXZMI-ACHIHNKUSA-N
> <PUBCHEM_XLOGP3_AA>
5.4
> <PUBCHEM_EXACT_MASS>
727.23457025
> <PUBCHEM_MOLECULAR_FORMULA>
C34H41N5O9S2
> <PUBCHEM_MOLECULAR_WEIGHT>
727.9
> <PUBCHEM_OPENEYE_CAN_SMILES>
CC1=CC=C(C=C1)S(=O)(=O)N(CC(C)C)C(CCCCNC(=O)C(CC2=CNC3=CC=CC=C32)NS(=O)(=O)C4=CC=C(C=C4)[N+](=O)[O-])C(=O)O
> <PUBCHEM_OPENEYE_ISO_SMILES>
CC1=CC=C(C=C1)S(=O)(=O)N(CC(C)C)[C@@H](CCCCNC(=O)[C@H](CC2=CNC3=CC=CC=C32)NS(=O)(=O)C4=CC=C(C=C4)[N+](=O)[O-])C(=O)O
> <PUBCHEM_CACTVS_TPSA>
228
> <PUBCHEM_MONOISOTOPIC_WEIGHT>
727.23457025
> <PUBCHEM_TOTAL_CHARGE>
0
> <PUBCHEM_HEAVY_ATOM_COUNT>
50
> <PUBCHEM_ATOM_DEF_STEREO_COUNT>
2
> <PUBCHEM_ATOM_UDEF_STEREO_COUNT>
0
> <PUBCHEM_BOND_DEF_STEREO_COUNT>
0
> <PUBCHEM_BOND_UDEF_STEREO_COUNT>
0
> <PUBCHEM_ISOTOPIC_ATOM_COUNT>
0
> <PUBCHEM_COMPONENT_COUNT>
1
> <PUBCHEM_CACTVS_TAUTO_COUNT>
-1
> <PUBCHEM_COORDINATE_TYPE>
1
5
255
> <PUBCHEM_BONDANNOTATIONS>
17  12  5
28  14  6
15  35  8
15  36  8
25  32  8
25  33  8
31  34  8
31  36  8
32  37  8
33  38  8
34  35  8
34  40  8
35  42  8
37  39  8
38  39  8
40  44  8
41  46  8
41  47  8
42  45  8
44  45  8
46  48  8
47  49  8
48  50  8
49  50  8
$$$$
