508508
  -OEChem-10302200282D
100100  0     1  0  0  0  0  0999 V2000
    9.0223    2.1133    0.0000 O   0  0  0  0  0  0  0  0  0  0  0  0
   10.7016   -0.9353    0.0000 O   0  0  0  0  0  0  0  0  0  0  0  0
    8.0984   -3.7631    0.0000 O   0  0  0  0  0  0  0  0  0  0  0  0
    4.3073   -3.1305    0.0000 O   0  0  0  0  0  0  0  0  0  0  0  0
    8.7091    3.6070    0.0000 O   0  0  0  0  0  0  0  0  0  0  0  0
    2.6010   -1.8976    0.0000 O   0  0  0  0  0  0  0  0  0  0  0  0
    2.7634    0.3893    0.0000 O   0  0  0  0  0  0  0  0  0  0  0  0
    2.8623    2.4921    0.0000 O   0  0  0  0  0  0  0  0  0  0  0  0
    4.8656    3.6070    0.0000 O   0  0  0  0  0  0  0  0  0  0  0  0
    9.3305   -1.6056    0.0000 N   0  0  0  0  0  0  0  0  0  0  0  0
    6.7873   -2.9819    0.0000 N   0  0  0  0  0  0  0  0  0  0  0  0
    4.2442   -1.6056    0.0000 N   0  0  0  0  0  0  0  0  0  0  0  0
    4.0054    1.2761    0.0000 N   0  0  0  0  0  0  0  0  0  0  0  0
    6.2873    3.0522    0.0000 N   0  0  0  0  0  0  0  0  0  0  0  0
    9.5692    1.2761    0.0000 C   0  0  1  0  0  0  0  0  0  0  0  0
    9.8147    0.3067    0.0000 C   0  0  2  0  0  0  0  0  0  0  0  0
    8.6532   -2.3413    0.0000 C   0  0  1  0  0  0  0  0  0  0  0  0
    5.8010   -2.8173    0.0000 C   0  0  1  0  0  0  0  0  0  0  0  0
    5.4763   -3.7631    0.0000 C   0  0  1  0  0  0  0  0  0  0  0  0
    9.2674   -3.1305    0.0000 C   0  0  0  0  0  0  0  0  0  0  0  0
   10.4850    1.6778    0.0000 C   0  0  0  0  0  0  0  0  0  0  0  0
   10.2579   -2.9931    0.0000 C   0  0  0  0  0  0  0  0  0  0  0  0
   10.5950    2.6718    0.0000 C   0  0  0  0  0  0  0  0  0  0  0  0
    9.7322   -0.6898    0.0000 C   0  0  0  0  0  0  0  0  0  0  0  0
    7.7737   -2.8173    0.0000 C   0  0  0  0  0  0  0  0  0  0  0  0
    6.1330   -4.5172    0.0000 C   0  0  0  0  0  0  0  0  0  0  0  0
   11.5108    3.0735    0.0000 C   0  0  0  0  0  0  0  0  0  0  0  0
   10.8113    0.3893    0.0000 C   0  0  0  0  0  0  0  0  0  0  0  0
    4.9215   -2.3413    0.0000 C   0  0  0  0  0  0  0  0  0  0  0  0
    4.4948   -3.9548    0.0000 C   0  0  0  0  0  0  0  0  0  0  0  0
   11.6208    4.0674    0.0000 C   0  0  0  0  0  0  0  0  0  0  0  0
   10.8721   -3.7823    0.0000 C   0  0  0  0  0  0  0  0  0  0  0  0
   10.6342   -2.0666    0.0000 C   0  0  0  0  0  0  0  0  0  0  0  0
    5.8083   -5.4630    0.0000 C   0  0  0  0  0  0  0  0  0  0  0  0
    3.8425   -0.6898    0.0000 C   0  0  1  0  0  0  0  0  0  0  0  0
   12.5366    4.4691    0.0000 C   0  0  0  0  0  0  0  0  0  0  0  0
    8.2332    2.7275    0.0000 C   0  0  0  0  0  0  0  0  0  0  0  0
    4.5524    2.1133    0.0000 C   0  0  2  0  0  0  0  0  0  0  0  0
    3.7600    0.3067    0.0000 C   0  0  0  0  0  0  0  0  0  0  0  0
    2.8731   -0.9353    0.0000 C   0  0  0  0  0  0  0  0  0  0  0  0
    7.2873    3.0522    0.0000 C   0  0  0  0  0  0  0  0  0  0  0  0
    3.8167    2.7906    0.0000 C   0  0  2  0  0  0  0  0  0  0  0  0
   12.6466    5.4630    0.0000 C   0  0  0  0  0  0  0  0  0  0  0  0
    5.3415    2.7275    0.0000 C   0  0  0  0  0  0  0  0  0  0  0  0
    4.0353    3.7664    0.0000 C   0  0  0  0  0  0  0  0  0  0  0  0
    9.7462    1.8704    0.0000 H   0  0  0  0  0  0  0  0  0  0  0  0
   10.2531   -0.1317    0.0000 H   0  0  0  0  0  0  0  0  0  0  0  0
    9.2726   -2.3670    0.0000 H   0  0  0  0  0  0  0  0  0  0  0  0
    6.2361   -3.5475    0.0000 H   0  0  0  0  0  0  0  0  0  0  0  0
    5.2750   -4.3495    0.0000 H   0  0  0  0  0  0  0  0  0  0  0  0
    8.7194   -3.4205    0.0000 H   0  0  0  0  0  0  0  0  0  0  0  0
    9.4579   -3.7205    0.0000 H   0  0  0  0  0  0  0  0  0  0  0  0
   10.6317    1.0754    0.0000 H   0  0  0  0  0  0  0  0  0  0  0  0
   11.1037    1.7177    0.0000 H   0  0  0  0  0  0  0  0  0  0  0  0
    9.8771   -2.5039    0.0000 H   0  0  0  0  0  0  0  0  0  0  0  0
   10.4484    3.2742    0.0000 H   0  0  0  0  0  0  0  0  0  0  0  0
    9.9763    2.6319    0.0000 H   0  0  0  0  0  0  0  0  0  0  0  0
    9.8495   -1.9447    0.0000 H   0  0  0  0  0  0  0  0  0  0  0  0
    6.7873   -3.6019    0.0000 H   0  0  0  0  0  0  0  0  0  0  0  0
    6.6756   -4.8173    0.0000 H   0  0  0  0  0  0  0  0  0  0  0  0
    6.5228   -4.0350    0.0000 H   0  0  0  0  0  0  0  0  0  0  0  0
   11.6575    2.4711    0.0000 H   0  0  0  0  0  0  0  0  0  0  0  0
   12.1295    3.1133    0.0000 H   0  0  0  0  0  0  0  0  0  0  0  0
   10.8625   -0.2286    0.0000 H   0  0  0  0  0  0  0  0  0  0  0  0
   11.4292    0.4405    0.0000 H   0  0  0  0  0  0  0  0  0  0  0  0
   10.7601    1.0072    0.0000 H   0  0  0  0  0  0  0  0  0  0  0  0
    4.3760   -3.3463    0.0000 H   0  0  0  0  0  0  0  0  0  0  0  0
    3.8863   -4.0737    0.0000 H   0  0  0  0  0  0  0  0  0  0  0  0
    4.6137   -4.5633    0.0000 H   0  0  0  0  0  0  0  0  0  0  0  0
   11.4741    4.6698    0.0000 H   0  0  0  0  0  0  0  0  0  0  0  0
   11.0021    4.0276    0.0000 H   0  0  0  0  0  0  0  0  0  0  0  0
   10.3829   -4.1631    0.0000 H   0  0  0  0  0  0  0  0  0  0  0  0
   11.2529   -4.2715    0.0000 H   0  0  0  0  0  0  0  0  0  0  0  0
   11.3614   -3.4014    0.0000 H   0  0  0  0  0  0  0  0  0  0  0  0
   11.2086   -2.2999    0.0000 H   0  0  0  0  0  0  0  0  0  0  0  0
   10.8675   -1.4922    0.0000 H   0  0  0  0  0  0  0  0  0  0  0  0
   10.0598   -1.8333    0.0000 H   0  0  0  0  0  0  0  0  0  0  0  0
    3.7252   -1.9447    0.0000 H   0  0  0  0  0  0  0  0  0  0  0  0
    5.2219   -5.2617    0.0000 H   0  0  0  0  0  0  0  0  0  0  0  0
    5.6070   -6.0494    0.0000 H   0  0  0  0  0  0  0  0  0  0  0  0
    6.3947   -5.6643    0.0000 H   0  0  0  0  0  0  0  0  0  0  0  0
    3.5702   -1.2468    0.0000 H   0  0  0  0  0  0  0  0  0  0  0  0
   12.6833    3.8667    0.0000 H   0  0  0  0  0  0  0  0  0  0  0  0
   13.1553    4.5089    0.0000 H   0  0  0  0  0  0  0  0  0  0  0  0
    3.7089    2.0082    0.0000 H   0  0  0  0  0  0  0  0  0  0  0  0
    2.8276   -0.3170    0.0000 H   0  0  0  0  0  0  0  0  0  0  0  0
    2.2563   -0.8728    0.0000 H   0  0  0  0  0  0  0  0  0  0  0  0
    7.7073    3.5084    0.0000 H   0  0  0  0  0  0  0  0  0  0  0  0
    7.1853    2.4407    0.0000 H   0  0  0  0  0  0  0  0  0  0  0  0
    3.4377    1.5252    0.0000 H   0  0  0  0  0  0  0  0  0  0  0  0
    3.6811    2.1856    0.0000 H   0  0  0  0  0  0  0  0  0  0  0  0
   13.2628    5.3948    0.0000 H   0  0  0  0  0  0  0  0  0  0  0  0
   12.7148    6.0793    0.0000 H   0  0  0  0  0  0  0  0  0  0  0  0
   12.0304    5.5312    0.0000 H   0  0  0  0  0  0  0  0  0  0  0  0
    6.1853    3.6638    0.0000 H   0  0  0  0  0  0  0  0  0  0  0  0
    4.6403    3.6308    0.0000 H   0  0  0  0  0  0  0  0  0  0  0  0
    4.1709    4.3714    0.0000 H   0  0  0  0  0  0  0  0  0  0  0  0
    3.4304    3.9020    0.0000 H   0  0  0  0  0  0  0  0  0  0  0  0
    2.0000   -2.0498    0.0000 H   0  0  0  0  0  0  0  0  0  0  0  0
    2.4061    2.9120    0.0000 H   0  0  0  0  0  0  0  0  0  0  0  0
  1 15  1  0  0  0  0
  1 37  1  0  0  0  0
  2 24  2  0  0  0  0
  3 25  2  0  0  0  0
  4 29  2  0  0  0  0
  5 37  2  0  0  0  0
  6 40  1  0  0  0  0
  6 99  1  0  0  0  0
  7 39  2  0  0  0  0
 42  8  1  1  0  0  0
  8100  1  0  0  0  0
  9 44  2  0  0  0  0
 10 17  1  0  0  0  0
 10 24  1  0  0  0  0
 10 58  1  0  0  0  0
 11 18  1  0  0  0  0
 11 25  1  0  0  0  0
 11 59  1  0  0  0  0
 12 29  1  0  0  0  0
 12 35  1  0  0  0  0
 12 78  1  0  0  0  0
 13 38  1  0  0  0  0
 13 39  1  0  0  0  0
 13 90  1  0  0  0  0
 14 41  1  0  0  0  0
 14 44  1  0  0  0  0
 14 95  1  0  0  0  0
 15 16  1  0  0  0  0
 15 21  1  6  0  0  0
 15 46  1  0  0  0  0
 16 24  1  0  0  0  0
 16 28  1  1  0  0  0
 16 47  1  0  0  0  0
 17 20  1  1  0  0  0
 17 25  1  0  0  0  0
 17 48  1  0  0  0  0
 18 19  1  0  0  0  0
 18 29  1  0  0  0  0
 18 49  1  6  0  0  0
 19 26  1  0  0  0  0
 19 30  1  1  0  0  0
 19 50  1  0  0  0  0
 20 22  1  0  0  0  0
 20 51  1  0  0  0  0
 20 52  1  0  0  0  0
 21 23  1  0  0  0  0
 21 53  1  0  0  0  0
 21 54  1  0  0  0  0
 22 32  1  0  0  0  0
 22 33  1  0  0  0  0
 22 55  1  0  0  0  0
 23 27  1  0  0  0  0
 23 56  1  0  0  0  0
 23 57  1  0  0  0  0
 26 34  1  0  0  0  0
 26 60  1  0  0  0  0
 26 61  1  0  0  0  0
 27 31  1  0  0  0  0
 27 62  1  0  0  0  0
 27 63  1  0  0  0  0
 28 64  1  0  0  0  0
 28 65  1  0  0  0  0
 28 66  1  0  0  0  0
 30 67  1  0  0  0  0
 30 68  1  0  0  0  0
 30 69  1  0  0  0  0
 31 36  1  0  0  0  0
 31 70  1  0  0  0  0
 31 71  1  0  0  0  0
 32 72  1  0  0  0  0
 32 73  1  0  0  0  0
 32 74  1  0  0  0  0
 33 75  1  0  0  0  0
 33 76  1  0  0  0  0
 33 77  1  0  0  0  0
 34 79  1  0  0  0  0
 34 80  1  0  0  0  0
 34 81  1  0  0  0  0
 35 39  1  0  0  0  0
 35 40  1  6  0  0  0
 35 82  1  0  0  0  0
 36 43  1  0  0  0  0
 36 83  1  0  0  0  0
 36 84  1  0  0  0  0
 37 41  1  0  0  0  0
 38 42  1  0  0  0  0
 38 44  1  0  0  0  0
 38 85  1  1  0  0  0
 40 86  1  0  0  0  0
 40 87  1  0  0  0  0
 41 88  1  0  0  0  0
 41 89  1  0  0  0  0
 42 45  1  0  0  0  0
 42 91  1  0  0  0  0
 43 92  1  0  0  0  0
 43 93  1  0  0  0  0
 43 94  1  0  0  0  0
 45 96  1  0  0  0  0
 45 97  1  0  0  0  0
 45 98  1  0  0  0  0
M  END
> <PUBCHEM_COMPOUND_CID>
508508
> <PUBCHEM_COMPOUND_CANONICALIZED>
1
> <PUBCHEM_CACTVS_COMPLEXITY>
1010
> <PUBCHEM_CACTVS_HBOND_ACCEPTOR>
9
> <PUBCHEM_CACTVS_HBOND_DONOR>
7
> <PUBCHEM_CACTVS_ROTATABLE_BOND>
11
> <PUBCHEM_CACTVS_SUBSKEYS>
AAADcfB7vAAAAAAAAAAAAAAAAAAAAAAAAAAAAAAAAAAAAAAAAAAAHgAQCAAADTzhgAYCCALABgAIAAGQGAAAAAAAAAAAAIGIAAACUBYAgCAXQAAGNgCQAAGYyOCOAAAAAAAAAAAAAAAAAAAAAAAAAAAAAA==
> <PUBCHEM_IUPAC_OPENEYE_NAME>
(6R,9R,12S,15S,18R,19R)-19-hexyl-6-[(1S)-1-hydroxyethyl]-9-(hydroxymethyl)-15-isobutyl-18-methyl-12-[(1R)-1-methylpropyl]-1-oxa-4,7,10,13,16-pentazacyclononadecane-2,5,8,11,14,17-hexone
> <PUBCHEM_IUPAC_CAS_NAME>
(6R,9R,12S,15S,18R,19R)-12-[(2R)-butan-2-yl]-19-hexyl-6-[(1S)-1-hydroxyethyl]-9-(hydroxymethyl)-18-methyl-15-(2-methylpropyl)-1-oxa-4,7,10,13,16-pentazacyclononadecane-2,5,8,11,14,17-hexone
> <PUBCHEM_IUPAC_NAME_MARKUP>
(6<I>R</I>,9<I>R</I>,12<I>S</I>,15<I>S</I>,18<I>R</I>,19<I>R</I>)-12-[(2<I>R</I>)-butan-2-yl]-19-hexyl-6-[(1<I>S</I>)-1-hydroxyethyl]-9-(hydroxymethyl)-18-methyl-15-(2-methylpropyl)-1-oxa-4,7,10,13,16-pentazacyclononadecane-2,5,8,11,14,17-hexone
> <PUBCHEM_IUPAC_NAME>
(6R,9R,12S,15S,18R,19R)-12-[(2R)-butan-2-yl]-19-hexyl-6-[(1S)-1-hydroxyethyl]-9-(hydroxymethyl)-18-methyl-15-(2-methylpropyl)-1-oxa-4,7,10,13,16-pentazacyclononadecane-2,5,8,11,14,17-hexone
> <PUBCHEM_IUPAC_SYSTEMATIC_NAME>
(6R,9R,12S,15S,18R,19R)-12-[(2R)-butan-2-yl]-19-hexyl-9-(hydroxymethyl)-18-methyl-15-(2-methylpropyl)-6-[(1S)-1-oxidanylethyl]-1-oxa-4,7,10,13,16-pentazacyclononadecane-2,5,8,11,14,17-hexone
> <PUBCHEM_IUPAC_TRADITIONAL_NAME>
(6R,9R,12S,15S,18R,19R)-19-hexyl-6-[(1S)-1-hydroxyethyl]-15-isobutyl-18-methyl-9-methylol-12-[(1R)-1-methylpropyl]-1-oxa-4,7,10,13,16-pentazacyclononadecane-2,5,8,11,14,17-triquinone
> <PUBCHEM_IUPAC_INCHI>
InChI=1S/C31H55N5O9/c1-8-10-11-12-13-23-19(6)27(40)33-21(14-17(3)4)28(41)35-25(18(5)9-2)31(44)34-22(16-37)29(42)36-26(20(7)38)30(43)32-15-24(39)45-23/h17-23,25-26,37-38H,8-16H2,1-7H3,(H,32,43)(H,33,40)(H,34,44)(H,35,41)(H,36,42)/t18-,19-,20+,21+,22-,23-,25+,26-/m1/s1
> <PUBCHEM_IUPAC_INCHIKEY>
MOXOSDFPWIMCCF-PBIXGGJMSA-N
> <PUBCHEM_XLOGP3_AA>
3.7
> <PUBCHEM_EXACT_MASS>
641.39997835
> <PUBCHEM_MOLECULAR_FORMULA>
C31H55N5O9
> <PUBCHEM_MOLECULAR_WEIGHT>
641.8
> <PUBCHEM_OPENEYE_CAN_SMILES>
CCCCCCC1C(C(=O)NC(C(=O)NC(C(=O)NC(C(=O)NC(C(=O)NCC(=O)O1)C(C)O)CO)C(C)CC)CC(C)C)C
> <PUBCHEM_OPENEYE_ISO_SMILES>
CCCCCC[C@@H]1[C@H](C(=O)N[C@H](C(=O)N[C@H](C(=O)N[C@@H](C(=O)N[C@@H](C(=O)NCC(=O)O1)[C@H](C)O)CO)[C@H](C)CC)CC(C)C)C
> <PUBCHEM_CACTVS_TPSA>
212
> <PUBCHEM_MONOISOTOPIC_WEIGHT>
641.39997835
> <PUBCHEM_TOTAL_CHARGE>
0
> <PUBCHEM_HEAVY_ATOM_COUNT>
45
> <PUBCHEM_ATOM_DEF_STEREO_COUNT>
8
> <PUBCHEM_ATOM_UDEF_STEREO_COUNT>
0
> <PUBCHEM_BOND_DEF_STEREO_COUNT>
0
> <PUBCHEM_BOND_UDEF_STEREO_COUNT>
0
> <PUBCHEM_ISOTOPIC_ATOM_COUNT>
0
> <PUBCHEM_COMPONENT_COUNT>
1
> <PUBCHEM_CACTVS_TAUTO_COUNT>
-1
> <PUBCHEM_COORDINATE_TYPE>
1
5
255
> <PUBCHEM_BONDANNOTATIONS>
15  21  6
16  28  5
17  20  5
18  49  6
19  30  5
35  40  6
38  85  5
42  8  5
$$$$
