508521
  -OEChem-10302200282D
 47 50  0     1  0  0  0  0  0999 V2000
    5.8660    1.8247    0.0000 N   0  0  0  0  0  0  0  0  0  0  0  0
    5.0000   -1.4074    0.0000 N   0  0  0  0  0  0  0  0  0  0  0  0
    6.7320   -1.4074    0.0000 N   0  0  0  0  0  0  0  0  0  0  0  0
    6.2728    2.7382    0.0000 N   0  0  0  0  0  0  0  0  0  0  0  0
    5.8660   -2.9074    0.0000 N   0  0  0  0  0  0  0  0  0  0  0  0
    4.6636    2.9074    0.0000 N   0  0  0  0  0  0  0  0  0  0  0  0
    6.3660    0.9587    0.0000 C   0  0  3  0  0  0  0  0  0  0  0  0
    5.8660    0.0926    0.0000 C   0  0  0  0  0  0  0  0  0  0  0  0
    7.3660    0.9587    0.0000 C   0  0  0  0  0  0  0  0  0  0  0  0
    5.0000   -0.4074    0.0000 C   0  0  0  0  0  0  0  0  0  0  0  0
    6.7320   -0.4074    0.0000 C   0  0  0  0  0  0  0  0  0  0  0  0
    4.0000   -0.4074    0.0000 C   0  0  0  0  0  0  0  0  0  0  0  0
    7.8660    0.0926    0.0000 C   0  0  0  0  0  0  0  0  0  0  0  0
    7.8660    1.8247    0.0000 C   0  0  0  0  0  0  0  0  0  0  0  0
    5.8660   -1.9074    0.0000 C   0  0  0  0  0  0  0  0  0  0  0  0
    4.8715    1.9292    0.0000 C   0  0  0  0  0  0  0  0  0  0  0  0
    8.8660    0.0926    0.0000 C   0  0  0  0  0  0  0  0  0  0  0  0
    8.8660    1.8247    0.0000 C   0  0  0  0  0  0  0  0  0  0  0  0
    3.5000    0.4587    0.0000 C   0  0  0  0  0  0  0  0  0  0  0  0
    3.5000   -1.2733    0.0000 C   0  0  0  0  0  0  0  0  0  0  0  0
    9.3660    0.9587    0.0000 C   0  0  0  0  0  0  0  0  0  0  0  0
    5.5296    3.4074    0.0000 C   0  0  0  0  0  0  0  0  0  0  0  0
    2.5000    0.4587    0.0000 C   0  0  0  0  0  0  0  0  0  0  0  0
    2.5000   -1.2734    0.0000 C   0  0  0  0  0  0  0  0  0  0  0  0
    6.7320   -3.4074    0.0000 C   0  0  0  0  0  0  0  0  0  0  0  0
    5.0000   -3.4074    0.0000 C   0  0  0  0  0  0  0  0  0  0  0  0
    2.0000   -0.4074    0.0000 C   0  0  0  0  0  0  0  0  0  0  0  0
    6.6760    1.4956    0.0000 H   0  0  0  0  0  0  0  0  0  0  0  0
    7.2690   -0.0974    0.0000 H   0  0  0  0  0  0  0  0  0  0  0  0
    7.5560   -0.4443    0.0000 H   0  0  0  0  0  0  0  0  0  0  0  0
    7.5560    2.3616    0.0000 H   0  0  0  0  0  0  0  0  0  0  0  0
    4.4566    1.4685    0.0000 H   0  0  0  0  0  0  0  0  0  0  0  0
    9.1760   -0.4443    0.0000 H   0  0  0  0  0  0  0  0  0  0  0  0
    9.1760    2.3616    0.0000 H   0  0  0  0  0  0  0  0  0  0  0  0
    3.8100    0.9956    0.0000 H   0  0  0  0  0  0  0  0  0  0  0  0
    3.8100   -1.8102    0.0000 H   0  0  0  0  0  0  0  0  0  0  0  0
    9.9860    0.9587    0.0000 H   0  0  0  0  0  0  0  0  0  0  0  0
    5.5944    4.0240    0.0000 H   0  0  0  0  0  0  0  0  0  0  0  0
    2.1900    0.9956    0.0000 H   0  0  0  0  0  0  0  0  0  0  0  0
    2.1900   -1.8103    0.0000 H   0  0  0  0  0  0  0  0  0  0  0  0
    6.4220   -3.9443    0.0000 H   0  0  0  0  0  0  0  0  0  0  0  0
    7.2690   -3.7174    0.0000 H   0  0  0  0  0  0  0  0  0  0  0  0
    7.0420   -2.8704    0.0000 H   0  0  0  0  0  0  0  0  0  0  0  0
    4.6900   -2.8704    0.0000 H   0  0  0  0  0  0  0  0  0  0  0  0
    4.4631   -3.7174    0.0000 H   0  0  0  0  0  0  0  0  0  0  0  0
    5.3100   -3.9443    0.0000 H   0  0  0  0  0  0  0  0  0  0  0  0
    1.3800   -0.4074    0.0000 H   0  0  0  0  0  0  0  0  0  0  0  0
  1  4  1  0  0  0  0
  1  7  1  0  0  0  0
  1 16  1  0  0  0  0
  2 10  2  0  0  0  0
  2 15  1  0  0  0  0
  3 11  1  0  0  0  0
  3 15  2  0  0  0  0
  4 22  2  0  0  0  0
  5 15  1  0  0  0  0
  5 25  1  0  0  0  0
  5 26  1  0  0  0  0
  6 16  2  0  0  0  0
  6 22  1  0  0  0  0
  7  8  1  0  0  0  0
  7  9  1  0  0  0  0
  7 28  1  0  0  0  0
  8 10  1  0  0  0  0
  8 11  2  0  0  0  0
  9 13  2  0  0  0  0
  9 14  1  0  0  0  0
 10 12  1  0  0  0  0
 11 29  1  0  0  0  0
 12 19  2  0  0  0  0
 12 20  1  0  0  0  0
 13 17  1  0  0  0  0
 13 30  1  0  0  0  0
 14 18  2  0  0  0  0
 14 31  1  0  0  0  0
 16 32  1  0  0  0  0
 17 21  2  0  0  0  0
 17 33  1  0  0  0  0
 18 21  1  0  0  0  0
 18 34  1  0  0  0  0
 19 23  1  0  0  0  0
 19 35  1  0  0  0  0
 20 24  2  0  0  0  0
 20 36  1  0  0  0  0
 21 37  1  0  0  0  0
 22 38  1  0  0  0  0
 23 27  2  0  0  0  0
 23 39  1  0  0  0  0
 24 27  1  0  0  0  0
 24 40  1  0  0  0  0
 25 41  1  0  0  0  0
 25 42  1  0  0  0  0
 25 43  1  0  0  0  0
 26 44  1  0  0  0  0
 26 45  1  0  0  0  0
 26 46  1  0  0  0  0
 27 47  1  0  0  0  0
M  END
> <PUBCHEM_COMPOUND_CID>
508521
> <PUBCHEM_COMPOUND_CANONICALIZED>
1
> <PUBCHEM_CACTVS_COMPLEXITY>
446
> <PUBCHEM_CACTVS_HBOND_ACCEPTOR>
5
> <PUBCHEM_CACTVS_HBOND_DONOR>
0
> <PUBCHEM_CACTVS_ROTATABLE_BOND>
5
> <PUBCHEM_CACTVS_SUBSKEYS>
AAADceB7gAAAAAAAAAAAAAAAAAAAAWAAAAA8YIAAAAAAAAAB9AAAHAAIAAAADCjBHgQ/kJcIEACiAzRnZACSgCsxgKAd2CAoRJiIKKLA2dGEJAhogAJIyCcQgMAOAAAAAAAAAAAAAAAAAAAAAAAAAAAAAA==
> <PUBCHEM_IUPAC_OPENEYE_NAME>
N,N-dimethyl-4-phenyl-5-[phenyl(1,2,4-triazol-1-yl)methyl]pyrimidin-2-amine
> <PUBCHEM_IUPAC_CAS_NAME>
N,N-dimethyl-4-phenyl-5-[phenyl(1,2,4-triazol-1-yl)methyl]-2-pyrimidinamine
> <PUBCHEM_IUPAC_NAME_MARKUP>
<I>N</I>,<I>N</I>-dimethyl-4-phenyl-5-[phenyl(1,2,4-triazol-1-yl)methyl]pyrimidin-2-amine
> <PUBCHEM_IUPAC_NAME>
N,N-dimethyl-4-phenyl-5-[phenyl(1,2,4-triazol-1-yl)methyl]pyrimidin-2-amine
> <PUBCHEM_IUPAC_SYSTEMATIC_NAME>
N,N-dimethyl-4-phenyl-5-[phenyl(1,2,4-triazol-1-yl)methyl]pyrimidin-2-amine
> <PUBCHEM_IUPAC_TRADITIONAL_NAME>
dimethyl-[4-phenyl-5-[phenyl(1,2,4-triazol-1-yl)methyl]pyrimidin-2-yl]amine
> <PUBCHEM_IUPAC_INCHI>
InChI=1S/C21H20N6/c1-26(2)21-23-13-18(19(25-21)16-9-5-3-6-10-16)20(27-15-22-14-24-27)17-11-7-4-8-12-17/h3-15,20H,1-2H3
> <PUBCHEM_IUPAC_INCHIKEY>
ZIUVRQVYQLMYSH-UHFFFAOYSA-N
> <PUBCHEM_XLOGP3_AA>
3.7
> <PUBCHEM_EXACT_MASS>
356.17494466
> <PUBCHEM_MOLECULAR_FORMULA>
C21H20N6
> <PUBCHEM_MOLECULAR_WEIGHT>
356.4
> <PUBCHEM_OPENEYE_CAN_SMILES>
CN(C)C1=NC=C(C(=N1)C2=CC=CC=C2)C(C3=CC=CC=C3)N4C=NC=N4
> <PUBCHEM_OPENEYE_ISO_SMILES>
CN(C)C1=NC=C(C(=N1)C2=CC=CC=C2)C(C3=CC=CC=C3)N4C=NC=N4
> <PUBCHEM_CACTVS_TPSA>
59.7
> <PUBCHEM_MONOISOTOPIC_WEIGHT>
356.17494466
> <PUBCHEM_TOTAL_CHARGE>
0
> <PUBCHEM_HEAVY_ATOM_COUNT>
27
> <PUBCHEM_ATOM_DEF_STEREO_COUNT>
0
> <PUBCHEM_ATOM_UDEF_STEREO_COUNT>
1
> <PUBCHEM_BOND_DEF_STEREO_COUNT>
0
> <PUBCHEM_BOND_UDEF_STEREO_COUNT>
0
> <PUBCHEM_ISOTOPIC_ATOM_COUNT>
0
> <PUBCHEM_COMPONENT_COUNT>
1
> <PUBCHEM_CACTVS_TAUTO_COUNT>
-1
> <PUBCHEM_COORDINATE_TYPE>
1
5
255
> <PUBCHEM_BONDANNOTATIONS>
1  16  8
1  4  8
12  19  8
12  20  8
13  17  8
14  18  8
17  21  8
18  21  8
19  23  8
2  10  8
2  15  8
20  24  8
23  27  8
24  27  8
3  11  8
3  15  8
4  22  8
6  16  8
6  22  8
7  9  3
8  10  8
8  11  8
9  13  8
9  14  8
$$$$
