508580
  -OEChem-10302200282D
 85 87  0     1  0  0  0  0  0999 V2000
    4.5981   -0.5194    0.0000 S   0  0  0  0  0  0  0  0  0  0  0  0
   12.3923    1.9806    0.0000 S   0  0  0  0  0  0  0  0  0  0  0  0
   11.5833    3.5684    0.0000 S   0  0  0  0  0  0  0  0  0  0  0  0
    5.5981   -0.5194    0.0000 O   0  0  0  0  0  0  0  0  0  0  0  0
    3.5981   -0.5194    0.0000 O   0  0  0  0  0  0  0  0  0  0  0  0
    6.3301    2.4806    0.0000 O   0  0  0  0  0  0  0  0  0  0  0  0
    4.5981    2.4806    0.0000 O   0  0  0  0  0  0  0  0  0  0  0  0
   10.6603    1.9806    0.0000 O   0  0  0  0  0  0  0  0  0  0  0  0
   13.3923    1.9806    0.0000 O   0  0  0  0  0  0  0  0  0  0  0  0
   11.3923    1.9806    0.0000 O   0  0  0  0  0  0  0  0  0  0  0  0
    4.5981    0.4806    0.0000 N   0  0  3  0  0  0  0  0  0  0  0  0
    9.7942    0.4806    0.0000 N   0  0  0  0  0  0  0  0  0  0  0  0
   12.3923    0.9806    0.0000 N   0  0  0  0  0  0  0  0  0  0  0  0
    5.4641    0.9806    0.0000 C   0  0  1  0  0  0  0  0  0  0  0  0
    6.3301    0.4806    0.0000 C   0  0  0  0  0  0  0  0  0  0  0  0
    3.7320    0.9806    0.0000 C   0  0  0  0  0  0  0  0  0  0  0  0
    2.8660    0.4806    0.0000 C   0  0  0  0  0  0  0  0  0  0  0  0
    7.1962    0.9806    0.0000 C   0  0  0  0  0  0  0  0  0  0  0  0
    8.0622    0.4806    0.0000 C   0  0  0  0  0  0  0  0  0  0  0  0
    5.4641    1.9806    0.0000 C   0  0  0  0  0  0  0  0  0  0  0  0
    4.5981   -1.5194    0.0000 C   0  0  0  0  0  0  0  0  0  0  0  0
    8.9282    0.9806    0.0000 C   0  0  0  0  0  0  0  0  0  0  0  0
    2.0000    0.9806    0.0000 C   0  0  0  0  0  0  0  0  0  0  0  0
    2.8660   -0.5194    0.0000 C   0  0  0  0  0  0  0  0  0  0  0  0
   11.5263    0.4806    0.0000 C   0  0  2  0  0  0  0  0  0  0  0  0
    3.7320   -2.0194    0.0000 C   0  0  0  0  0  0  0  0  0  0  0  0
    5.4641   -2.0194    0.0000 C   0  0  0  0  0  0  0  0  0  0  0  0
   10.6603    0.9806    0.0000 C   0  0  0  0  0  0  0  0  0  0  0  0
   11.5263   -0.5194    0.0000 C   0  0  0  0  0  0  0  0  0  0  0  0
    3.7320   -3.0194    0.0000 C   0  0  0  0  0  0  0  0  0  0  0  0
    5.4641   -3.0194    0.0000 C   0  0  0  0  0  0  0  0  0  0  0  0
    4.5981   -3.5194    0.0000 C   0  0  0  0  0  0  0  0  0  0  0  0
   12.3923   -1.0194    0.0000 C   0  0  0  0  0  0  0  0  0  0  0  0
    6.3301    3.4806    0.0000 C   0  0  0  0  0  0  0  0  0  0  0  0
    4.5981   -4.5194    0.0000 C   0  0  0  0  0  0  0  0  0  0  0  0
   13.2583   -0.5194    0.0000 C   0  0  0  0  0  0  0  0  0  0  0  0
   12.3923   -2.0194    0.0000 C   0  0  0  0  0  0  0  0  0  0  0  0
   12.3923    2.9806    0.0000 C   0  0  0  0  0  0  0  0  0  0  0  0
   14.1244   -1.0194    0.0000 C   0  0  0  0  0  0  0  0  0  0  0  0
   13.2583   -2.5194    0.0000 C   0  0  0  0  0  0  0  0  0  0  0  0
   13.2013    3.5684    0.0000 C   0  0  0  0  0  0  0  0  0  0  0  0
   14.1244   -2.0194    0.0000 C   0  0  0  0  0  0  0  0  0  0  0  0
   12.8923    4.5194    0.0000 C   0  0  0  0  0  0  0  0  0  0  0  0
   11.8923    4.5194    0.0000 C   0  0  0  0  0  0  0  0  0  0  0  0
    5.4641    0.3606    0.0000 H   0  0  0  0  0  0  0  0  0  0  0  0
    5.9316    0.0056    0.0000 H   0  0  0  0  0  0  0  0  0  0  0  0
    6.7287    0.0056    0.0000 H   0  0  0  0  0  0  0  0  0  0  0  0
    4.1306    1.4555    0.0000 H   0  0  0  0  0  0  0  0  0  0  0  0
    3.3335    1.4555    0.0000 H   0  0  0  0  0  0  0  0  0  0  0  0
    2.8660    1.1006    0.0000 H   0  0  0  0  0  0  0  0  0  0  0  0
    7.5947    1.4555    0.0000 H   0  0  0  0  0  0  0  0  0  0  0  0
    6.7976    1.4555    0.0000 H   0  0  0  0  0  0  0  0  0  0  0  0
    7.6636    0.0056    0.0000 H   0  0  0  0  0  0  0  0  0  0  0  0
    8.4607    0.0056    0.0000 H   0  0  0  0  0  0  0  0  0  0  0  0
    9.3267    1.4555    0.0000 H   0  0  0  0  0  0  0  0  0  0  0  0
    8.5297    1.4555    0.0000 H   0  0  0  0  0  0  0  0  0  0  0  0
    2.3100    1.5175    0.0000 H   0  0  0  0  0  0  0  0  0  0  0  0
    1.4631    1.2906    0.0000 H   0  0  0  0  0  0  0  0  0  0  0  0
    1.6900    0.4436    0.0000 H   0  0  0  0  0  0  0  0  0  0  0  0
    2.2460   -0.5194    0.0000 H   0  0  0  0  0  0  0  0  0  0  0  0
    2.8660   -1.1394    0.0000 H   0  0  0  0  0  0  0  0  0  0  0  0
    3.4860   -0.5194    0.0000 H   0  0  0  0  0  0  0  0  0  0  0  0
    9.7942   -0.1394    0.0000 H   0  0  0  0  0  0  0  0  0  0  0  0
   12.0632    0.1706    0.0000 H   0  0  0  0  0  0  0  0  0  0  0  0
    3.1951   -1.7094    0.0000 H   0  0  0  0  0  0  0  0  0  0  0  0
    6.0010   -1.7094    0.0000 H   0  0  0  0  0  0  0  0  0  0  0  0
   10.9157   -0.4118    0.0000 H   0  0  0  0  0  0  0  0  0  0  0  0
   11.3142   -1.1020    0.0000 H   0  0  0  0  0  0  0  0  0  0  0  0
    3.1951   -3.3294    0.0000 H   0  0  0  0  0  0  0  0  0  0  0  0
    6.0010   -3.3294    0.0000 H   0  0  0  0  0  0  0  0  0  0  0  0
   12.9292    0.6706    0.0000 H   0  0  0  0  0  0  0  0  0  0  0  0
    6.9501    3.4806    0.0000 H   0  0  0  0  0  0  0  0  0  0  0  0
    6.3301    4.1006    0.0000 H   0  0  0  0  0  0  0  0  0  0  0  0
    5.7101    3.4806    0.0000 H   0  0  0  0  0  0  0  0  0  0  0  0
    3.9781   -4.5194    0.0000 H   0  0  0  0  0  0  0  0  0  0  0  0
    4.5981   -5.1394    0.0000 H   0  0  0  0  0  0  0  0  0  0  0  0
    5.2181   -4.5194    0.0000 H   0  0  0  0  0  0  0  0  0  0  0  0
   13.2583    0.1006    0.0000 H   0  0  0  0  0  0  0  0  0  0  0  0
   11.8554   -2.3294    0.0000 H   0  0  0  0  0  0  0  0  0  0  0  0
   14.6613   -0.7094    0.0000 H   0  0  0  0  0  0  0  0  0  0  0  0
   13.2583   -3.1394    0.0000 H   0  0  0  0  0  0  0  0  0  0  0  0
   13.7910    3.3768    0.0000 H   0  0  0  0  0  0  0  0  0  0  0  0
   14.6613   -2.3294    0.0000 H   0  0  0  0  0  0  0  0  0  0  0  0
   13.2567    5.0210    0.0000 H   0  0  0  0  0  0  0  0  0  0  0  0
   11.5279    5.0210    0.0000 H   0  0  0  0  0  0  0  0  0  0  0  0
  1  4  2  0  0  0  0
  1  5  2  0  0  0  0
  1 11  1  0  0  0  0
  1 21  1  0  0  0  0
  2  9  2  0  0  0  0
  2 10  2  0  0  0  0
  2 13  1  0  0  0  0
  2 38  1  0  0  0  0
  3 38  1  0  0  0  0
  3 44  1  0  0  0  0
  6 20  1  0  0  0  0
  6 34  1  0  0  0  0
  7 20  2  0  0  0  0
  8 28  2  0  0  0  0
 14 11  1  6  0  0  0
 11 16  1  0  0  0  0
 12 22  1  0  0  0  0
 12 28  1  0  0  0  0
 12 63  1  0  0  0  0
 25 13  1  1  0  0  0
 13 71  1  0  0  0  0
 14 15  1  0  0  0  0
 14 20  1  0  0  0  0
 14 45  1  0  0  0  0
 15 18  1  0  0  0  0
 15 46  1  0  0  0  0
 15 47  1  0  0  0  0
 16 17  1  0  0  0  0
 16 48  1  0  0  0  0
 16 49  1  0  0  0  0
 17 23  1  0  0  0  0
 17 24  1  0  0  0  0
 17 50  1  0  0  0  0
 18 19  1  0  0  0  0
 18 51  1  0  0  0  0
 18 52  1  0  0  0  0
 19 22  1  0  0  0  0
 19 53  1  0  0  0  0
 19 54  1  0  0  0  0
 21 26  2  0  0  0  0
 21 27  1  0  0  0  0
 22 55  1  0  0  0  0
 22 56  1  0  0  0  0
 23 57  1  0  0  0  0
 23 58  1  0  0  0  0
 23 59  1  0  0  0  0
 24 60  1  0  0  0  0
 24 61  1  0  0  0  0
 24 62  1  0  0  0  0
 25 28  1  0  0  0  0
 25 29  1  0  0  0  0
 25 64  1  0  0  0  0
 26 30  1  0  0  0  0
 26 65  1  0  0  0  0
 27 31  2  0  0  0  0
 27 66  1  0  0  0  0
 29 33  1  0  0  0  0
 29 67  1  0  0  0  0
 29 68  1  0  0  0  0
 30 32  2  0  0  0  0
 30 69  1  0  0  0  0
 31 32  1  0  0  0  0
 31 70  1  0  0  0  0
 32 35  1  0  0  0  0
 33 36  2  0  0  0  0
 33 37  1  0  0  0  0
 34 72  1  0  0  0  0
 34 73  1  0  0  0  0
 34 74  1  0  0  0  0
 35 75  1  0  0  0  0
 35 76  1  0  0  0  0
 35 77  1  0  0  0  0
 36 39  1  0  0  0  0
 36 78  1  0  0  0  0
 37 40  2  0  0  0  0
 37 79  1  0  0  0  0
 38 41  2  0  0  0  0
 39 42  2  0  0  0  0
 39 80  1  0  0  0  0
 40 42  1  0  0  0  0
 40 81  1  0  0  0  0
 41 43  1  0  0  0  0
 41 82  1  0  0  0  0
 42 83  1  0  0  0  0
 43 44  2  0  0  0  0
 43 84  1  0  0  0  0
 44 85  1  0  0  0  0
M  END
> <PUBCHEM_COMPOUND_CID>
508580
> <PUBCHEM_COMPOUND_CANONICALIZED>
1
> <PUBCHEM_CACTVS_COMPLEXITY>
1110
> <PUBCHEM_CACTVS_HBOND_ACCEPTOR>
10
> <PUBCHEM_CACTVS_HBOND_DONOR>
2
> <PUBCHEM_CACTVS_ROTATABLE_BOND>
18
> <PUBCHEM_CACTVS_SUBSKEYS>
AAADcfB7OABgAAAAAAAAAAAAAAAAASAAAAAwYAAAAAAAAAAB0AAAHgQQQAAADSjF2AayCYLABAqMAiHSGHBDAZAgCBBIiJmIAIgKYDKgkTGVIAAklgC4iAeYyICOEAAAAAAAAAAgAAAAAAAAAAAAAAAAAA==
> <PUBCHEM_IUPAC_OPENEYE_NAME>
methyl (2S)-2-[isobutyl(p-tolylsulfonyl)amino]-6-[[(2S)-3-phenyl-2-(2-thienylsulfonylamino)propanoyl]amino]hexanoate
> <PUBCHEM_IUPAC_CAS_NAME>
(2S)-2-[(4-methylphenyl)sulfonyl-(2-methylpropyl)amino]-6-[[(2S)-1-oxo-3-phenyl-2-(thiophen-2-ylsulfonylamino)propyl]amino]hexanoic acid methyl ester
> <PUBCHEM_IUPAC_NAME_MARKUP>
methyl (2<I>S</I>)-2-[(4-methylphenyl)sulfonyl-(2-methylpropyl)amino]-6-[[(2<I>S</I>)-3-phenyl-2-(thiophen-2-ylsulfonylamino)propanoyl]amino]hexanoate
> <PUBCHEM_IUPAC_NAME>
methyl (2S)-2-[(4-methylphenyl)sulfonyl-(2-methylpropyl)amino]-6-[[(2S)-3-phenyl-2-(thiophen-2-ylsulfonylamino)propanoyl]amino]hexanoate
> <PUBCHEM_IUPAC_SYSTEMATIC_NAME>
methyl (2S)-2-[(4-methylphenyl)sulfonyl-(2-methylpropyl)amino]-6-[[(2S)-3-phenyl-2-(thiophen-2-ylsulfonylamino)propanoyl]amino]hexanoate
> <PUBCHEM_IUPAC_TRADITIONAL_NAME>
(2S)-2-[isobutyl(tosyl)amino]-6-[[(2S)-3-phenyl-2-(2-thienylsulfonylamino)propanoyl]amino]hexanoic acid methyl ester
> <PUBCHEM_IUPAC_INCHI>
InChI=1S/C31H41N3O7S3/c1-23(2)22-34(44(39,40)26-17-15-24(3)16-18-26)28(31(36)41-4)13-8-9-19-32-30(35)27(21-25-11-6-5-7-12-25)33-43(37,38)29-14-10-20-42-29/h5-7,10-12,14-18,20,23,27-28,33H,8-9,13,19,21-22H2,1-4H3,(H,32,35)/t27-,28-/m0/s1
> <PUBCHEM_IUPAC_INCHIKEY>
WOITZDHHYRESNT-NSOVKSMOSA-N
> <PUBCHEM_XLOGP3_AA>
5.8
> <PUBCHEM_EXACT_MASS>
663.21066418
> <PUBCHEM_MOLECULAR_FORMULA>
C31H41N3O7S3
> <PUBCHEM_MOLECULAR_WEIGHT>
663.9
> <PUBCHEM_OPENEYE_CAN_SMILES>
CC1=CC=C(C=C1)S(=O)(=O)N(CC(C)C)C(CCCCNC(=O)C(CC2=CC=CC=C2)NS(=O)(=O)C3=CC=CS3)C(=O)OC
> <PUBCHEM_OPENEYE_ISO_SMILES>
CC1=CC=C(C=C1)S(=O)(=O)N(CC(C)C)[C@@H](CCCCNC(=O)[C@H](CC2=CC=CC=C2)NS(=O)(=O)C3=CC=CS3)C(=O)OC
> <PUBCHEM_CACTVS_TPSA>
184
> <PUBCHEM_MONOISOTOPIC_WEIGHT>
663.21066418
> <PUBCHEM_TOTAL_CHARGE>
0
> <PUBCHEM_HEAVY_ATOM_COUNT>
44
> <PUBCHEM_ATOM_DEF_STEREO_COUNT>
2
> <PUBCHEM_ATOM_UDEF_STEREO_COUNT>
0
> <PUBCHEM_BOND_DEF_STEREO_COUNT>
0
> <PUBCHEM_BOND_UDEF_STEREO_COUNT>
0
> <PUBCHEM_ISOTOPIC_ATOM_COUNT>
0
> <PUBCHEM_COMPONENT_COUNT>
1
> <PUBCHEM_CACTVS_TAUTO_COUNT>
-1
> <PUBCHEM_COORDINATE_TYPE>
1
5
255
> <PUBCHEM_BONDANNOTATIONS>
14  11  6
25  13  5
21  26  8
21  27  8
26  30  8
27  31  8
3  38  8
3  44  8
30  32  8
31  32  8
33  36  8
33  37  8
36  39  8
37  40  8
38  41  8
39  42  8
40  42  8
41  43  8
43  44  8
$$$$
