508552
  -OEChem-10302200282D
 81 83  0     1  0  0  0  0  0999 V2000
    4.5981   -0.2694    0.0000 S   0  0  0  0  0  0  0  0  0  0  0  0
   12.3923    2.2306    0.0000 S   0  0  0  0  0  0  0  0  0  0  0  0
   11.5833    3.8184    0.0000 S   0  0  0  0  0  0  0  0  0  0  0  0
    5.5981   -0.2694    0.0000 O   0  0  0  0  0  0  0  0  0  0  0  0
    3.5981   -0.2694    0.0000 O   0  0  0  0  0  0  0  0  0  0  0  0
    6.3301    2.7306    0.0000 O   0  0  0  0  0  0  0  0  0  0  0  0
    4.5981    2.7306    0.0000 O   0  0  0  0  0  0  0  0  0  0  0  0
   10.6603    2.2306    0.0000 O   0  0  0  0  0  0  0  0  0  0  0  0
   13.3923    2.2306    0.0000 O   0  0  0  0  0  0  0  0  0  0  0  0
   11.3923    2.2306    0.0000 O   0  0  0  0  0  0  0  0  0  0  0  0
    3.7320   -4.7694    0.0000 O   0  5  0  0  0  0  0  0  0  0  0  0
    5.4641   -4.7694    0.0000 O   0  0  0  0  0  0  0  0  0  0  0  0
    4.5981    0.7306    0.0000 N   0  0  3  0  0  0  0  0  0  0  0  0
    9.7942    0.7306    0.0000 N   0  0  0  0  0  0  0  0  0  0  0  0
   12.3923    1.2306    0.0000 N   0  0  0  0  0  0  0  0  0  0  0  0
    4.5981   -4.2694    0.0000 N   0  3  0  0  0  0  0  0  0  0  0  0
    5.4641    1.2306    0.0000 C   0  0  1  0  0  0  0  0  0  0  0  0
    6.3301    0.7306    0.0000 C   0  0  0  0  0  0  0  0  0  0  0  0
    3.7320    1.2306    0.0000 C   0  0  0  0  0  0  0  0  0  0  0  0
    2.8660    0.7306    0.0000 C   0  0  0  0  0  0  0  0  0  0  0  0
    7.1962    1.2306    0.0000 C   0  0  0  0  0  0  0  0  0  0  0  0
    8.0622    0.7306    0.0000 C   0  0  0  0  0  0  0  0  0  0  0  0
    5.4641    2.2306    0.0000 C   0  0  0  0  0  0  0  0  0  0  0  0
    8.9282    1.2306    0.0000 C   0  0  0  0  0  0  0  0  0  0  0  0
    2.0000    1.2306    0.0000 C   0  0  0  0  0  0  0  0  0  0  0  0
    2.8660   -0.2694    0.0000 C   0  0  0  0  0  0  0  0  0  0  0  0
    4.5981   -1.2694    0.0000 C   0  0  0  0  0  0  0  0  0  0  0  0
   11.5263    0.7306    0.0000 C   0  0  2  0  0  0  0  0  0  0  0  0
    3.7320   -1.7694    0.0000 C   0  0  0  0  0  0  0  0  0  0  0  0
    5.4641   -1.7694    0.0000 C   0  0  0  0  0  0  0  0  0  0  0  0
   10.6603    1.2306    0.0000 C   0  0  0  0  0  0  0  0  0  0  0  0
   11.5263   -0.2694    0.0000 C   0  0  0  0  0  0  0  0  0  0  0  0
    3.7320   -2.7694    0.0000 C   0  0  0  0  0  0  0  0  0  0  0  0
    5.4641   -2.7694    0.0000 C   0  0  0  0  0  0  0  0  0  0  0  0
   12.3923   -0.7694    0.0000 C   0  0  0  0  0  0  0  0  0  0  0  0
    4.5981   -3.2694    0.0000 C   0  0  0  0  0  0  0  0  0  0  0  0
   13.2583   -0.2694    0.0000 C   0  0  0  0  0  0  0  0  0  0  0  0
   12.3923   -1.7694    0.0000 C   0  0  0  0  0  0  0  0  0  0  0  0
   12.3923    3.2306    0.0000 C   0  0  0  0  0  0  0  0  0  0  0  0
   14.1244   -0.7694    0.0000 C   0  0  0  0  0  0  0  0  0  0  0  0
   13.2583   -2.2694    0.0000 C   0  0  0  0  0  0  0  0  0  0  0  0
   13.2013    3.8184    0.0000 C   0  0  0  0  0  0  0  0  0  0  0  0
   14.1244   -1.7694    0.0000 C   0  0  0  0  0  0  0  0  0  0  0  0
   12.8923    4.7694    0.0000 C   0  0  0  0  0  0  0  0  0  0  0  0
   11.8923    4.7694    0.0000 C   0  0  0  0  0  0  0  0  0  0  0  0
    5.4641    0.6106    0.0000 H   0  0  0  0  0  0  0  0  0  0  0  0
    5.9316    0.2556    0.0000 H   0  0  0  0  0  0  0  0  0  0  0  0
    6.7287    0.2556    0.0000 H   0  0  0  0  0  0  0  0  0  0  0  0
    4.1306    1.7055    0.0000 H   0  0  0  0  0  0  0  0  0  0  0  0
    3.3335    1.7055    0.0000 H   0  0  0  0  0  0  0  0  0  0  0  0
    7.5947    1.7055    0.0000 H   0  0  0  0  0  0  0  0  0  0  0  0
    6.7976    1.7055    0.0000 H   0  0  0  0  0  0  0  0  0  0  0  0
    2.8660    1.3506    0.0000 H   0  0  0  0  0  0  0  0  0  0  0  0
    7.6636    0.2556    0.0000 H   0  0  0  0  0  0  0  0  0  0  0  0
    8.4607    0.2556    0.0000 H   0  0  0  0  0  0  0  0  0  0  0  0
    9.3267    1.7055    0.0000 H   0  0  0  0  0  0  0  0  0  0  0  0
    8.5297    1.7055    0.0000 H   0  0  0  0  0  0  0  0  0  0  0  0
    2.3100    1.7675    0.0000 H   0  0  0  0  0  0  0  0  0  0  0  0
    1.4631    1.5406    0.0000 H   0  0  0  0  0  0  0  0  0  0  0  0
    1.6900    0.6936    0.0000 H   0  0  0  0  0  0  0  0  0  0  0  0
    2.2460   -0.2694    0.0000 H   0  0  0  0  0  0  0  0  0  0  0  0
    2.8660   -0.8894    0.0000 H   0  0  0  0  0  0  0  0  0  0  0  0
    3.4860   -0.2694    0.0000 H   0  0  0  0  0  0  0  0  0  0  0  0
    9.7942    0.1106    0.0000 H   0  0  0  0  0  0  0  0  0  0  0  0
   12.0632    0.4206    0.0000 H   0  0  0  0  0  0  0  0  0  0  0  0
    3.1951   -1.4594    0.0000 H   0  0  0  0  0  0  0  0  0  0  0  0
    6.0010   -1.4594    0.0000 H   0  0  0  0  0  0  0  0  0  0  0  0
   10.9157   -0.1618    0.0000 H   0  0  0  0  0  0  0  0  0  0  0  0
   11.3142   -0.8520    0.0000 H   0  0  0  0  0  0  0  0  0  0  0  0
    6.3301    3.3506    0.0000 H   0  0  0  0  0  0  0  0  0  0  0  0
   12.9292    0.9206    0.0000 H   0  0  0  0  0  0  0  0  0  0  0  0
    3.1951   -3.0794    0.0000 H   0  0  0  0  0  0  0  0  0  0  0  0
    6.0010   -3.0794    0.0000 H   0  0  0  0  0  0  0  0  0  0  0  0
   13.2583    0.3506    0.0000 H   0  0  0  0  0  0  0  0  0  0  0  0
   11.8554   -2.0794    0.0000 H   0  0  0  0  0  0  0  0  0  0  0  0
   14.6613   -0.4594    0.0000 H   0  0  0  0  0  0  0  0  0  0  0  0
   13.2583   -2.8894    0.0000 H   0  0  0  0  0  0  0  0  0  0  0  0
   13.7910    3.6268    0.0000 H   0  0  0  0  0  0  0  0  0  0  0  0
   14.6613   -2.0794    0.0000 H   0  0  0  0  0  0  0  0  0  0  0  0
   13.2567    5.2710    0.0000 H   0  0  0  0  0  0  0  0  0  0  0  0
   11.5279    5.2710    0.0000 H   0  0  0  0  0  0  0  0  0  0  0  0
  1  4  2  0  0  0  0
  1  5  2  0  0  0  0
  1 13  1  0  0  0  0
  1 27  1  0  0  0  0
  2  9  2  0  0  0  0
  2 10  2  0  0  0  0
  2 15  1  0  0  0  0
  2 39  1  0  0  0  0
  3 39  1  0  0  0  0
  3 45  1  0  0  0  0
  6 23  1  0  0  0  0
  6 70  1  0  0  0  0
  7 23  2  0  0  0  0
  8 31  2  0  0  0  0
 11 16  1  0  0  0  0
 12 16  2  0  0  0  0
 17 13  1  6  0  0  0
 13 19  1  0  0  0  0
 14 24  1  0  0  0  0
 14 31  1  0  0  0  0
 14 64  1  0  0  0  0
 28 15  1  1  0  0  0
 15 71  1  0  0  0  0
 16 36  1  0  0  0  0
 17 18  1  0  0  0  0
 17 23  1  0  0  0  0
 17 46  1  0  0  0  0
 18 21  1  0  0  0  0
 18 47  1  0  0  0  0
 18 48  1  0  0  0  0
 19 20  1  0  0  0  0
 19 49  1  0  0  0  0
 19 50  1  0  0  0  0
 20 25  1  0  0  0  0
 20 26  1  0  0  0  0
 20 53  1  0  0  0  0
 21 22  1  0  0  0  0
 21 51  1  0  0  0  0
 21 52  1  0  0  0  0
 22 24  1  0  0  0  0
 22 54  1  0  0  0  0
 22 55  1  0  0  0  0
 24 56  1  0  0  0  0
 24 57  1  0  0  0  0
 25 58  1  0  0  0  0
 25 59  1  0  0  0  0
 25 60  1  0  0  0  0
 26 61  1  0  0  0  0
 26 62  1  0  0  0  0
 26 63  1  0  0  0  0
 27 29  2  0  0  0  0
 27 30  1  0  0  0  0
 28 31  1  0  0  0  0
 28 32  1  0  0  0  0
 28 65  1  0  0  0  0
 29 33  1  0  0  0  0
 29 66  1  0  0  0  0
 30 34  2  0  0  0  0
 30 67  1  0  0  0  0
 32 35  1  0  0  0  0
 32 68  1  0  0  0  0
 32 69  1  0  0  0  0
 33 36  2  0  0  0  0
 33 72  1  0  0  0  0
 34 36  1  0  0  0  0
 34 73  1  0  0  0  0
 35 37  2  0  0  0  0
 35 38  1  0  0  0  0
 37 40  1  0  0  0  0
 37 74  1  0  0  0  0
 38 41  2  0  0  0  0
 38 75  1  0  0  0  0
 39 42  2  0  0  0  0
 40 43  2  0  0  0  0
 40 76  1  0  0  0  0
 41 43  1  0  0  0  0
 41 77  1  0  0  0  0
 42 44  1  0  0  0  0
 42 78  1  0  0  0  0
 43 79  1  0  0  0  0
 44 45  2  0  0  0  0
 44 80  1  0  0  0  0
 45 81  1  0  0  0  0
M  CHG  2  11  -1  16   1
M  END
> <PUBCHEM_COMPOUND_CID>
508552
> <PUBCHEM_COMPOUND_CANONICALIZED>
1
> <PUBCHEM_CACTVS_COMPLEXITY>
1180
> <PUBCHEM_CACTVS_HBOND_ACCEPTOR>
12
> <PUBCHEM_CACTVS_HBOND_DONOR>
3
> <PUBCHEM_CACTVS_ROTATABLE_BOND>
17
> <PUBCHEM_CACTVS_SUBSKEYS>
AAADcfB7vABgAAAAAAAAAAAAAAAAASAAAAAwYAAAAAAAAAAB0AAAHgQUSAAADSjF2ASyyYLQQgqNAiXSW3DDAZAgChBoiJmIZIoKYDKgkbGUYABklgC4yAeYyICOAAQAAAAAAAAACAAAAAAAAAAAAAAAAA==
> <PUBCHEM_IUPAC_OPENEYE_NAME>
(2S)-2-[isobutyl-(4-nitrophenyl)sulfonyl-amino]-6-[[(2S)-3-phenyl-2-(2-thienylsulfonylamino)propanoyl]amino]hexanoic acid
> <PUBCHEM_IUPAC_CAS_NAME>
(2S)-2-[2-methylpropyl-(4-nitrophenyl)sulfonylamino]-6-[[(2S)-1-oxo-3-phenyl-2-(thiophen-2-ylsulfonylamino)propyl]amino]hexanoic acid
> <PUBCHEM_IUPAC_NAME_MARKUP>
(2<I>S</I>)-2-[2-methylpropyl-(4-nitrophenyl)sulfonylamino]-6-[[(2<I>S</I>)-3-phenyl-2-(thiophen-2-ylsulfonylamino)propanoyl]amino]hexanoic acid
> <PUBCHEM_IUPAC_NAME>
(2S)-2-[2-methylpropyl-(4-nitrophenyl)sulfonylamino]-6-[[(2S)-3-phenyl-2-(thiophen-2-ylsulfonylamino)propanoyl]amino]hexanoic acid
> <PUBCHEM_IUPAC_SYSTEMATIC_NAME>
(2S)-2-[2-methylpropyl-(4-nitrophenyl)sulfonyl-amino]-6-[[(2S)-3-phenyl-2-(thiophen-2-ylsulfonylamino)propanoyl]amino]hexanoic acid
> <PUBCHEM_IUPAC_TRADITIONAL_NAME>
(2S)-2-[isobutyl(nosyl)amino]-6-[[(2S)-3-phenyl-2-(2-thienylsulfonylamino)propanoyl]amino]hexanoic acid
> <PUBCHEM_IUPAC_INCHI>
InChI=1S/C29H36N4O9S3/c1-21(2)20-32(45(41,42)24-15-13-23(14-16-24)33(37)38)26(29(35)36)11-6-7-17-30-28(34)25(19-22-9-4-3-5-10-22)31-44(39,40)27-12-8-18-43-27/h3-5,8-10,12-16,18,21,25-26,31H,6-7,11,17,19-20H2,1-2H3,(H,30,34)(H,35,36)/t25-,26-/m0/s1
> <PUBCHEM_IUPAC_INCHIKEY>
AMVXIUBXNJLVKW-UIOOFZCWSA-N
> <PUBCHEM_XLOGP3_AA>
4.9
> <PUBCHEM_EXACT_MASS>
680.16444226
> <PUBCHEM_MOLECULAR_FORMULA>
C29H36N4O9S3
> <PUBCHEM_MOLECULAR_WEIGHT>
680.8
> <PUBCHEM_OPENEYE_CAN_SMILES>
CC(C)CN(C(CCCCNC(=O)C(CC1=CC=CC=C1)NS(=O)(=O)C2=CC=CS2)C(=O)O)S(=O)(=O)C3=CC=C(C=C3)[N+](=O)[O-]
> <PUBCHEM_OPENEYE_ISO_SMILES>
CC(C)CN([C@@H](CCCCNC(=O)[C@H](CC1=CC=CC=C1)NS(=O)(=O)C2=CC=CS2)C(=O)O)S(=O)(=O)C3=CC=C(C=C3)[N+](=O)[O-]
> <PUBCHEM_CACTVS_TPSA>
241
> <PUBCHEM_MONOISOTOPIC_WEIGHT>
680.16444226
> <PUBCHEM_TOTAL_CHARGE>
0
> <PUBCHEM_HEAVY_ATOM_COUNT>
45
> <PUBCHEM_ATOM_DEF_STEREO_COUNT>
2
> <PUBCHEM_ATOM_UDEF_STEREO_COUNT>
0
> <PUBCHEM_BOND_DEF_STEREO_COUNT>
0
> <PUBCHEM_BOND_UDEF_STEREO_COUNT>
0
> <PUBCHEM_ISOTOPIC_ATOM_COUNT>
0
> <PUBCHEM_COMPONENT_COUNT>
1
> <PUBCHEM_CACTVS_TAUTO_COUNT>
-1
> <PUBCHEM_COORDINATE_TYPE>
1
5
255
> <PUBCHEM_BONDANNOTATIONS>
17  13  6
28  15  5
27  29  8
27  30  8
29  33  8
3  39  8
3  45  8
30  34  8
33  36  8
34  36  8
35  37  8
35  38  8
37  40  8
38  41  8
39  42  8
40  43  8
41  43  8
42  44  8
44  45  8
$$$$
