508577
  -OEChem-10302200282D
 82 84  0     1  0  0  0  0  0999 V2000
    3.7320    4.9806    0.0000 S   0  0  0  0  0  0  0  0  0  0  0  0
    2.9230    6.5684    0.0000 S   0  0  0  0  0  0  0  0  0  0  0  0
    6.3301   -3.5194    0.0000 S   0  0  0  0  0  0  0  0  0  0  0  0
    2.7320    4.9806    0.0000 O   0  0  0  0  0  0  0  0  0  0  0  0
    4.7320    4.9806    0.0000 O   0  0  0  0  0  0  0  0  0  0  0  0
    6.3301    3.4806    0.0000 O   0  0  0  0  0  0  0  0  0  0  0  0
    5.4641    4.9806    0.0000 O   0  0  0  0  0  0  0  0  0  0  0  0
    8.0622   -0.5194    0.0000 O   0  0  0  0  0  0  0  0  0  0  0  0
    7.3301   -3.5194    0.0000 O   0  0  0  0  0  0  0  0  0  0  0  0
    5.3301   -3.5194    0.0000 O   0  0  0  0  0  0  0  0  0  0  0  0
    3.7320    3.9806    0.0000 N   0  0  3  0  0  0  0  0  0  0  0  0
    6.3301   -0.5194    0.0000 N   0  0  0  0  0  0  0  0  0  0  0  0
    6.3301   -2.5194    0.0000 N   0  0  0  0  0  0  0  0  0  0  0  0
    4.5981    3.4806    0.0000 C   0  0  1  0  0  0  0  0  0  0  0  0
    4.5981    2.4806    0.0000 C   0  0  0  0  0  0  0  0  0  0  0  0
    2.8660    3.4806    0.0000 C   0  0  0  0  0  0  0  0  0  0  0  0
    5.4641    1.9806    0.0000 C   0  0  0  0  0  0  0  0  0  0  0  0
    2.8660    2.4806    0.0000 C   0  0  0  0  0  0  0  0  0  0  0  0
    5.4641    0.9806    0.0000 C   0  0  0  0  0  0  0  0  0  0  0  0
    5.4641    3.9806    0.0000 C   0  0  0  0  0  0  0  0  0  0  0  0
    6.3301    0.4806    0.0000 C   0  0  0  0  0  0  0  0  0  0  0  0
    2.0000    1.9806    0.0000 C   0  0  0  0  0  0  0  0  0  0  0  0
    3.7320    1.9806    0.0000 C   0  0  0  0  0  0  0  0  0  0  0  0
    3.7320    5.9806    0.0000 C   0  0  0  0  0  0  0  0  0  0  0  0
    7.1962   -2.0194    0.0000 C   0  0  2  0  0  0  0  0  0  0  0  0
    7.1962   -1.0194    0.0000 C   0  0  0  0  0  0  0  0  0  0  0  0
    8.0622   -2.5194    0.0000 C   0  0  0  0  0  0  0  0  0  0  0  0
    4.5411    6.5684    0.0000 C   0  0  0  0  0  0  0  0  0  0  0  0
    8.9282   -2.0194    0.0000 C   0  0  0  0  0  0  0  0  0  0  0  0
    4.2320    7.5194    0.0000 C   0  0  0  0  0  0  0  0  0  0  0  0
    3.2320    7.5194    0.0000 C   0  0  0  0  0  0  0  0  0  0  0  0
    6.3301   -4.5194    0.0000 C   0  0  0  0  0  0  0  0  0  0  0  0
    8.9282   -1.0194    0.0000 C   0  0  0  0  0  0  0  0  0  0  0  0
    9.7942   -2.5194    0.0000 C   0  0  0  0  0  0  0  0  0  0  0  0
    5.4641   -5.0194    0.0000 C   0  0  0  0  0  0  0  0  0  0  0  0
    7.1962   -5.0194    0.0000 C   0  0  0  0  0  0  0  0  0  0  0  0
    9.7942   -0.5194    0.0000 C   0  0  0  0  0  0  0  0  0  0  0  0
   10.6603   -2.0194    0.0000 C   0  0  0  0  0  0  0  0  0  0  0  0
   10.6603   -1.0194    0.0000 C   0  0  0  0  0  0  0  0  0  0  0  0
    5.4641   -6.0194    0.0000 C   0  0  0  0  0  0  0  0  0  0  0  0
    7.1962   -6.0194    0.0000 C   0  0  0  0  0  0  0  0  0  0  0  0
    6.3301   -6.5194    0.0000 C   0  0  0  0  0  0  0  0  0  0  0  0
    6.3301   -7.5194    0.0000 C   0  0  0  0  0  0  0  0  0  0  0  0
    4.5981    4.1006    0.0000 H   0  0  0  0  0  0  0  0  0  0  0  0
    3.9875    2.5882    0.0000 H   0  0  0  0  0  0  0  0  0  0  0  0
    4.3860    1.8980    0.0000 H   0  0  0  0  0  0  0  0  0  0  0  0
    2.6540    4.0632    0.0000 H   0  0  0  0  0  0  0  0  0  0  0  0
    2.2554    3.3729    0.0000 H   0  0  0  0  0  0  0  0  0  0  0  0
    6.0747    1.8729    0.0000 H   0  0  0  0  0  0  0  0  0  0  0  0
    5.6762    2.5632    0.0000 H   0  0  0  0  0  0  0  0  0  0  0  0
    2.8660    1.8606    0.0000 H   0  0  0  0  0  0  0  0  0  0  0  0
    4.8535    1.0882    0.0000 H   0  0  0  0  0  0  0  0  0  0  0  0
    5.2520    0.3980    0.0000 H   0  0  0  0  0  0  0  0  0  0  0  0
    6.9407    0.3729    0.0000 H   0  0  0  0  0  0  0  0  0  0  0  0
    6.5422    1.0632    0.0000 H   0  0  0  0  0  0  0  0  0  0  0  0
    1.6900    2.5175    0.0000 H   0  0  0  0  0  0  0  0  0  0  0  0
    1.4631    1.6706    0.0000 H   0  0  0  0  0  0  0  0  0  0  0  0
    2.3100    1.4436    0.0000 H   0  0  0  0  0  0  0  0  0  0  0  0
    3.4220    1.4436    0.0000 H   0  0  0  0  0  0  0  0  0  0  0  0
    4.2690    1.6706    0.0000 H   0  0  0  0  0  0  0  0  0  0  0  0
    4.0420    2.5175    0.0000 H   0  0  0  0  0  0  0  0  0  0  0  0
    6.6592   -1.7094    0.0000 H   0  0  0  0  0  0  0  0  0  0  0  0
    5.7932   -0.8294    0.0000 H   0  0  0  0  0  0  0  0  0  0  0  0
    7.6636   -2.9944    0.0000 H   0  0  0  0  0  0  0  0  0  0  0  0
    8.4607   -2.9944    0.0000 H   0  0  0  0  0  0  0  0  0  0  0  0
    5.1307    6.3768    0.0000 H   0  0  0  0  0  0  0  0  0  0  0  0
    5.7932   -2.2094    0.0000 H   0  0  0  0  0  0  0  0  0  0  0  0
    6.8671    3.7906    0.0000 H   0  0  0  0  0  0  0  0  0  0  0  0
    4.5965    8.0210    0.0000 H   0  0  0  0  0  0  0  0  0  0  0  0
    2.8676    8.0210    0.0000 H   0  0  0  0  0  0  0  0  0  0  0  0
    8.3913   -0.7094    0.0000 H   0  0  0  0  0  0  0  0  0  0  0  0
    9.7942   -3.1394    0.0000 H   0  0  0  0  0  0  0  0  0  0  0  0
    4.9272   -4.7094    0.0000 H   0  0  0  0  0  0  0  0  0  0  0  0
    7.7331   -4.7094    0.0000 H   0  0  0  0  0  0  0  0  0  0  0  0
    9.7942    0.1006    0.0000 H   0  0  0  0  0  0  0  0  0  0  0  0
   11.1972   -2.3294    0.0000 H   0  0  0  0  0  0  0  0  0  0  0  0
   11.1972   -0.7094    0.0000 H   0  0  0  0  0  0  0  0  0  0  0  0
    4.9272   -6.3294    0.0000 H   0  0  0  0  0  0  0  0  0  0  0  0
    7.7331   -6.3294    0.0000 H   0  0  0  0  0  0  0  0  0  0  0  0
    5.7101   -7.5194    0.0000 H   0  0  0  0  0  0  0  0  0  0  0  0
    6.3301   -8.1394    0.0000 H   0  0  0  0  0  0  0  0  0  0  0  0
    6.9501   -7.5194    0.0000 H   0  0  0  0  0  0  0  0  0  0  0  0
  1  4  2  0  0  0  0
  1  5  2  0  0  0  0
  1 11  1  0  0  0  0
  1 24  1  0  0  0  0
  2 24  1  0  0  0  0
  2 31  1  0  0  0  0
  3  9  2  0  0  0  0
  3 10  2  0  0  0  0
  3 13  1  0  0  0  0
  3 32  1  0  0  0  0
  6 20  1  0  0  0  0
  6 68  1  0  0  0  0
  7 20  2  0  0  0  0
  8 26  2  0  0  0  0
 14 11  1  6  0  0  0
 11 16  1  0  0  0  0
 12 21  1  0  0  0  0
 12 26  1  0  0  0  0
 12 63  1  0  0  0  0
 25 13  1  6  0  0  0
 13 67  1  0  0  0  0
 14 15  1  0  0  0  0
 14 20  1  0  0  0  0
 14 44  1  0  0  0  0
 15 17  1  0  0  0  0
 15 45  1  0  0  0  0
 15 46  1  0  0  0  0
 16 18  1  0  0  0  0
 16 47  1  0  0  0  0
 16 48  1  0  0  0  0
 17 19  1  0  0  0  0
 17 49  1  0  0  0  0
 17 50  1  0  0  0  0
 18 22  1  0  0  0  0
 18 23  1  0  0  0  0
 18 51  1  0  0  0  0
 19 21  1  0  0  0  0
 19 52  1  0  0  0  0
 19 53  1  0  0  0  0
 21 54  1  0  0  0  0
 21 55  1  0  0  0  0
 22 56  1  0  0  0  0
 22 57  1  0  0  0  0
 22 58  1  0  0  0  0
 23 59  1  0  0  0  0
 23 60  1  0  0  0  0
 23 61  1  0  0  0  0
 24 28  2  0  0  0  0
 25 26  1  0  0  0  0
 25 27  1  0  0  0  0
 25 62  1  0  0  0  0
 27 29  1  0  0  0  0
 27 64  1  0  0  0  0
 27 65  1  0  0  0  0
 28 30  1  0  0  0  0
 28 66  1  0  0  0  0
 29 33  2  0  0  0  0
 29 34  1  0  0  0  0
 30 31  2  0  0  0  0
 30 69  1  0  0  0  0
 31 70  1  0  0  0  0
 32 35  2  0  0  0  0
 32 36  1  0  0  0  0
 33 37  1  0  0  0  0
 33 71  1  0  0  0  0
 34 38  2  0  0  0  0
 34 72  1  0  0  0  0
 35 40  1  0  0  0  0
 35 73  1  0  0  0  0
 36 41  2  0  0  0  0
 36 74  1  0  0  0  0
 37 39  2  0  0  0  0
 37 75  1  0  0  0  0
 38 39  1  0  0  0  0
 38 76  1  0  0  0  0
 39 77  1  0  0  0  0
 40 42  2  0  0  0  0
 40 78  1  0  0  0  0
 41 42  1  0  0  0  0
 41 79  1  0  0  0  0
 42 43  1  0  0  0  0
 43 80  1  0  0  0  0
 43 81  1  0  0  0  0
 43 82  1  0  0  0  0
M  END
> <PUBCHEM_COMPOUND_CID>
508577
> <PUBCHEM_COMPOUND_CANONICALIZED>
1
> <PUBCHEM_CACTVS_COMPLEXITY>
1090
> <PUBCHEM_CACTVS_HBOND_ACCEPTOR>
10
> <PUBCHEM_CACTVS_HBOND_DONOR>
3
> <PUBCHEM_CACTVS_ROTATABLE_BOND>
17
> <PUBCHEM_CACTVS_SUBSKEYS>
AAADcfB7OABgAAAAAAAAAAAAAAAAASAAAAAwYAAAAAAAAAAB0AAAHgQQSAAADSjF2ASyCYLAAgqMAiHSGHBDAZAgCBBIiJmIAIgKYDKgkTGUYAAklgC4iAeYyICOEAAAAAAAAAAgAAAAAAAAAAAAAAAAAA==
> <PUBCHEM_IUPAC_OPENEYE_NAME>
(2S)-2-[isobutyl(2-thienylsulfonyl)amino]-6-[[(2S)-3-phenyl-2-(p-tolylsulfonylamino)propanoyl]amino]hexanoic acid
> <PUBCHEM_IUPAC_CAS_NAME>
(2S)-6-[[(2S)-2-[(4-methylphenyl)sulfonylamino]-1-oxo-3-phenylpropyl]amino]-2-[2-methylpropyl(thiophen-2-ylsulfonyl)amino]hexanoic acid
> <PUBCHEM_IUPAC_NAME_MARKUP>
(2<I>S</I>)-6-[[(2<I>S</I>)-2-[(4-methylphenyl)sulfonylamino]-3-phenylpropanoyl]amino]-2-[2-methylpropyl(thiophen-2-ylsulfonyl)amino]hexanoic acid
> <PUBCHEM_IUPAC_NAME>
(2S)-6-[[(2S)-2-[(4-methylphenyl)sulfonylamino]-3-phenylpropanoyl]amino]-2-[2-methylpropyl(thiophen-2-ylsulfonyl)amino]hexanoic acid
> <PUBCHEM_IUPAC_SYSTEMATIC_NAME>
(2S)-6-[[(2S)-2-[(4-methylphenyl)sulfonylamino]-3-phenyl-propanoyl]amino]-2-[2-methylpropyl(thiophen-2-ylsulfonyl)amino]hexanoic acid
> <PUBCHEM_IUPAC_TRADITIONAL_NAME>
(2S)-2-[isobutyl(2-thienylsulfonyl)amino]-6-[[(2S)-3-phenyl-2-(tosylamino)propanoyl]amino]hexanoic acid
> <PUBCHEM_IUPAC_INCHI>
InChI=1S/C30H39N3O7S3/c1-22(2)21-33(43(39,40)28-13-9-19-41-28)27(30(35)36)12-7-8-18-31-29(34)26(20-24-10-5-4-6-11-24)32-42(37,38)25-16-14-23(3)15-17-25/h4-6,9-11,13-17,19,22,26-27,32H,7-8,12,18,20-21H2,1-3H3,(H,31,34)(H,35,36)/t26-,27-/m0/s1
> <PUBCHEM_IUPAC_INCHIKEY>
QRTAVJQMKPUTQI-SVBPBHIXSA-N
> <PUBCHEM_XLOGP3_AA>
5.5
> <PUBCHEM_EXACT_MASS>
649.19501411
> <PUBCHEM_MOLECULAR_FORMULA>
C30H39N3O7S3
> <PUBCHEM_MOLECULAR_WEIGHT>
649.8
> <PUBCHEM_OPENEYE_CAN_SMILES>
CC1=CC=C(C=C1)S(=O)(=O)NC(CC2=CC=CC=C2)C(=O)NCCCCC(C(=O)O)N(CC(C)C)S(=O)(=O)C3=CC=CS3
> <PUBCHEM_OPENEYE_ISO_SMILES>
CC1=CC=C(C=C1)S(=O)(=O)N[C@@H](CC2=CC=CC=C2)C(=O)NCCCC[C@@H](C(=O)O)N(CC(C)C)S(=O)(=O)C3=CC=CS3
> <PUBCHEM_CACTVS_TPSA>
195
> <PUBCHEM_MONOISOTOPIC_WEIGHT>
649.19501411
> <PUBCHEM_TOTAL_CHARGE>
0
> <PUBCHEM_HEAVY_ATOM_COUNT>
43
> <PUBCHEM_ATOM_DEF_STEREO_COUNT>
2
> <PUBCHEM_ATOM_UDEF_STEREO_COUNT>
0
> <PUBCHEM_BOND_DEF_STEREO_COUNT>
0
> <PUBCHEM_BOND_UDEF_STEREO_COUNT>
0
> <PUBCHEM_ISOTOPIC_ATOM_COUNT>
0
> <PUBCHEM_COMPONENT_COUNT>
1
> <PUBCHEM_CACTVS_TAUTO_COUNT>
-1
> <PUBCHEM_COORDINATE_TYPE>
1
5
255
> <PUBCHEM_BONDANNOTATIONS>
14  11  6
25  13  6
2  24  8
2  31  8
24  28  8
28  30  8
29  33  8
29  34  8
30  31  8
32  35  8
32  36  8
33  37  8
34  38  8
35  40  8
36  41  8
37  39  8
38  39  8
40  42  8
41  42  8
$$$$
