508567
  -OEChem-10302200282D
 84 86  0     1  0  0  0  0  0999 V2000
    4.5981   -0.5950    0.0000 S   0  0  0  0  0  0  0  0  0  0  0  0
   12.3923    1.9050    0.0000 S   0  0  0  0  0  0  0  0  0  0  0  0
    5.5981   -0.5950    0.0000 O   0  0  0  0  0  0  0  0  0  0  0  0
    3.5981   -0.5950    0.0000 O   0  0  0  0  0  0  0  0  0  0  0  0
    6.3301    2.4050    0.0000 O   0  0  0  0  0  0  0  0  0  0  0  0
    4.5981    2.4050    0.0000 O   0  0  0  0  0  0  0  0  0  0  0  0
   10.6603    1.9050    0.0000 O   0  0  0  0  0  0  0  0  0  0  0  0
   13.3923    1.9050    0.0000 O   0  0  0  0  0  0  0  0  0  0  0  0
   11.3923    1.9050    0.0000 O   0  0  0  0  0  0  0  0  0  0  0  0
    4.5981    0.4050    0.0000 N   0  0  3  0  0  0  0  0  0  0  0  0
    9.7942    0.4050    0.0000 N   0  0  0  0  0  0  0  0  0  0  0  0
   12.3923    0.9050    0.0000 N   0  0  0  0  0  0  0  0  0  0  0  0
    4.5981   -4.5950    0.0000 N   0  0  0  0  0  0  0  0  0  0  0  0
    5.4641    0.9050    0.0000 C   0  0  1  0  0  0  0  0  0  0  0  0
    6.3301    0.4050    0.0000 C   0  0  0  0  0  0  0  0  0  0  0  0
    3.7320    0.9050    0.0000 C   0  0  0  0  0  0  0  0  0  0  0  0
    2.8660    0.4050    0.0000 C   0  0  0  0  0  0  0  0  0  0  0  0
    7.1962    0.9050    0.0000 C   0  0  0  0  0  0  0  0  0  0  0  0
    8.0622    0.4050    0.0000 C   0  0  0  0  0  0  0  0  0  0  0  0
    5.4641    1.9050    0.0000 C   0  0  0  0  0  0  0  0  0  0  0  0
    8.9282    0.9050    0.0000 C   0  0  0  0  0  0  0  0  0  0  0  0
    2.0000    0.9050    0.0000 C   0  0  0  0  0  0  0  0  0  0  0  0
    2.8660   -0.5950    0.0000 C   0  0  0  0  0  0  0  0  0  0  0  0
    4.5981   -1.5950    0.0000 C   0  0  0  0  0  0  0  0  0  0  0  0
   11.5263    0.4050    0.0000 C   0  0  2  0  0  0  0  0  0  0  0  0
    5.4641   -2.0950    0.0000 C   0  0  0  0  0  0  0  0  0  0  0  0
    3.7320   -2.0950    0.0000 C   0  0  0  0  0  0  0  0  0  0  0  0
   10.6603    0.9050    0.0000 C   0  0  0  0  0  0  0  0  0  0  0  0
   11.5263   -0.5950    0.0000 C   0  0  0  0  0  0  0  0  0  0  0  0
    5.4641   -3.0950    0.0000 C   0  0  0  0  0  0  0  0  0  0  0  0
    3.7320   -3.0950    0.0000 C   0  0  0  0  0  0  0  0  0  0  0  0
   12.3923   -1.0950    0.0000 C   0  0  0  0  0  0  0  0  0  0  0  0
    4.5981   -3.5950    0.0000 C   0  0  0  0  0  0  0  0  0  0  0  0
   12.3923    2.9050    0.0000 C   0  0  0  0  0  0  0  0  0  0  0  0
   13.2583   -0.5950    0.0000 C   0  0  0  0  0  0  0  0  0  0  0  0
   12.3923   -2.0950    0.0000 C   0  0  0  0  0  0  0  0  0  0  0  0
   14.1244   -1.0950    0.0000 C   0  0  0  0  0  0  0  0  0  0  0  0
   13.2583   -2.5950    0.0000 C   0  0  0  0  0  0  0  0  0  0  0  0
   11.5263    3.4050    0.0000 C   0  0  0  0  0  0  0  0  0  0  0  0
   13.2583    3.4050    0.0000 C   0  0  0  0  0  0  0  0  0  0  0  0
   14.1244   -2.0950    0.0000 C   0  0  0  0  0  0  0  0  0  0  0  0
   11.5263    4.4050    0.0000 C   0  0  0  0  0  0  0  0  0  0  0  0
   13.2583    4.4050    0.0000 C   0  0  0  0  0  0  0  0  0  0  0  0
   12.3923    4.9050    0.0000 C   0  0  0  0  0  0  0  0  0  0  0  0
    5.4641    0.2850    0.0000 H   0  0  0  0  0  0  0  0  0  0  0  0
    5.9316   -0.0699    0.0000 H   0  0  0  0  0  0  0  0  0  0  0  0
    6.7287   -0.0699    0.0000 H   0  0  0  0  0  0  0  0  0  0  0  0
    4.1306    1.3800    0.0000 H   0  0  0  0  0  0  0  0  0  0  0  0
    3.3335    1.3800    0.0000 H   0  0  0  0  0  0  0  0  0  0  0  0
    7.5947    1.3800    0.0000 H   0  0  0  0  0  0  0  0  0  0  0  0
    6.7976    1.3800    0.0000 H   0  0  0  0  0  0  0  0  0  0  0  0
    2.8660    1.0250    0.0000 H   0  0  0  0  0  0  0  0  0  0  0  0
    7.6636   -0.0699    0.0000 H   0  0  0  0  0  0  0  0  0  0  0  0
    8.4607   -0.0699    0.0000 H   0  0  0  0  0  0  0  0  0  0  0  0
    9.3267    1.3800    0.0000 H   0  0  0  0  0  0  0  0  0  0  0  0
    8.5297    1.3800    0.0000 H   0  0  0  0  0  0  0  0  0  0  0  0
    2.3100    1.4419    0.0000 H   0  0  0  0  0  0  0  0  0  0  0  0
    1.4631    1.2150    0.0000 H   0  0  0  0  0  0  0  0  0  0  0  0
    1.6900    0.3681    0.0000 H   0  0  0  0  0  0  0  0  0  0  0  0
    2.2460   -0.5950    0.0000 H   0  0  0  0  0  0  0  0  0  0  0  0
    2.8660   -1.2150    0.0000 H   0  0  0  0  0  0  0  0  0  0  0  0
    3.4860   -0.5950    0.0000 H   0  0  0  0  0  0  0  0  0  0  0  0
    9.7942   -0.2150    0.0000 H   0  0  0  0  0  0  0  0  0  0  0  0
   12.0632    0.0950    0.0000 H   0  0  0  0  0  0  0  0  0  0  0  0
    6.0010   -1.7850    0.0000 H   0  0  0  0  0  0  0  0  0  0  0  0
    3.1951   -1.7850    0.0000 H   0  0  0  0  0  0  0  0  0  0  0  0
   10.9157   -0.4873    0.0000 H   0  0  0  0  0  0  0  0  0  0  0  0
   11.3142   -1.1776    0.0000 H   0  0  0  0  0  0  0  0  0  0  0  0
    6.3301    3.0250    0.0000 H   0  0  0  0  0  0  0  0  0  0  0  0
   12.9292    0.5950    0.0000 H   0  0  0  0  0  0  0  0  0  0  0  0
    6.0010   -3.4050    0.0000 H   0  0  0  0  0  0  0  0  0  0  0  0
    3.1951   -3.4050    0.0000 H   0  0  0  0  0  0  0  0  0  0  0  0
   13.2583    0.0250    0.0000 H   0  0  0  0  0  0  0  0  0  0  0  0
   11.8554   -2.4050    0.0000 H   0  0  0  0  0  0  0  0  0  0  0  0
    4.0611   -4.9050    0.0000 H   0  0  0  0  0  0  0  0  0  0  0  0
    5.1350   -4.9050    0.0000 H   0  0  0  0  0  0  0  0  0  0  0  0
   14.6613   -0.7850    0.0000 H   0  0  0  0  0  0  0  0  0  0  0  0
   13.2583   -3.2150    0.0000 H   0  0  0  0  0  0  0  0  0  0  0  0
   10.9893    3.0950    0.0000 H   0  0  0  0  0  0  0  0  0  0  0  0
   13.7953    3.0950    0.0000 H   0  0  0  0  0  0  0  0  0  0  0  0
   14.6613   -2.4050    0.0000 H   0  0  0  0  0  0  0  0  0  0  0  0
   10.9893    4.7150    0.0000 H   0  0  0  0  0  0  0  0  0  0  0  0
   13.7953    4.7150    0.0000 H   0  0  0  0  0  0  0  0  0  0  0  0
   12.3923    5.5250    0.0000 H   0  0  0  0  0  0  0  0  0  0  0  0
  1  3  2  0  0  0  0
  1  4  2  0  0  0  0
  1 10  1  0  0  0  0
  1 24  1  0  0  0  0
  2  8  2  0  0  0  0
  2  9  2  0  0  0  0
  2 12  1  0  0  0  0
  2 34  1  0  0  0  0
  5 20  1  0  0  0  0
  5 69  1  0  0  0  0
  6 20  2  0  0  0  0
  7 28  2  0  0  0  0
 14 10  1  6  0  0  0
 10 16  1  0  0  0  0
 11 21  1  0  0  0  0
 11 28  1  0  0  0  0
 11 63  1  0  0  0  0
 25 12  1  1  0  0  0
 12 70  1  0  0  0  0
 13 33  1  0  0  0  0
 13 75  1  0  0  0  0
 13 76  1  0  0  0  0
 14 15  1  0  0  0  0
 14 20  1  0  0  0  0
 14 45  1  0  0  0  0
 15 18  1  0  0  0  0
 15 46  1  0  0  0  0
 15 47  1  0  0  0  0
 16 17  1  0  0  0  0
 16 48  1  0  0  0  0
 16 49  1  0  0  0  0
 17 22  1  0  0  0  0
 17 23  1  0  0  0  0
 17 52  1  0  0  0  0
 18 19  1  0  0  0  0
 18 50  1  0  0  0  0
 18 51  1  0  0  0  0
 19 21  1  0  0  0  0
 19 53  1  0  0  0  0
 19 54  1  0  0  0  0
 21 55  1  0  0  0  0
 21 56  1  0  0  0  0
 22 57  1  0  0  0  0
 22 58  1  0  0  0  0
 22 59  1  0  0  0  0
 23 60  1  0  0  0  0
 23 61  1  0  0  0  0
 23 62  1  0  0  0  0
 24 26  2  0  0  0  0
 24 27  1  0  0  0  0
 25 28  1  0  0  0  0
 25 29  1  0  0  0  0
 25 64  1  0  0  0  0
 26 30  1  0  0  0  0
 26 65  1  0  0  0  0
 27 31  2  0  0  0  0
 27 66  1  0  0  0  0
 29 32  1  0  0  0  0
 29 67  1  0  0  0  0
 29 68  1  0  0  0  0
 30 33  2  0  0  0  0
 30 71  1  0  0  0  0
 31 33  1  0  0  0  0
 31 72  1  0  0  0  0
 32 35  2  0  0  0  0
 32 36  1  0  0  0  0
 34 39  2  0  0  0  0
 34 40  1  0  0  0  0
 35 37  1  0  0  0  0
 35 73  1  0  0  0  0
 36 38  2  0  0  0  0
 36 74  1  0  0  0  0
 37 41  2  0  0  0  0
 37 77  1  0  0  0  0
 38 41  1  0  0  0  0
 38 78  1  0  0  0  0
 39 42  1  0  0  0  0
 39 79  1  0  0  0  0
 40 43  2  0  0  0  0
 40 80  1  0  0  0  0
 41 81  1  0  0  0  0
 42 44  2  0  0  0  0
 42 82  1  0  0  0  0
 43 44  1  0  0  0  0
 43 83  1  0  0  0  0
 44 84  1  0  0  0  0
M  END
> <PUBCHEM_COMPOUND_CID>
508567
> <PUBCHEM_COMPOUND_CANONICALIZED>
1
> <PUBCHEM_CACTVS_COMPLEXITY>
1100
> <PUBCHEM_CACTVS_HBOND_ACCEPTOR>
10
> <PUBCHEM_CACTVS_HBOND_DONOR>
4
> <PUBCHEM_CACTVS_ROTATABLE_BOND>
17
> <PUBCHEM_CACTVS_SUBSKEYS>
AAADcfB7uABgAAAAAAAAAAAAAAAAAAAAAAAwYMAAAAAAAAABUAAAHgQQSAAADSjB2AQyyYLAAgKIAiXSWHDCABAgAgAIiJmIZIgKYDKAkbGUYABklgCYyAeYyICOAAQAAAAAAAAACAAAAAAAAAAAAAAAAA==
> <PUBCHEM_IUPAC_OPENEYE_NAME>
(2S)-2-[(4-aminophenyl)sulfonyl-isobutyl-amino]-6-[[(2S)-2-(benzenesulfonamido)-3-phenyl-propanoyl]amino]hexanoic acid
> <PUBCHEM_IUPAC_CAS_NAME>
(2S)-2-[(4-aminophenyl)sulfonyl-(2-methylpropyl)amino]-6-[[(2S)-2-(benzenesulfonamido)-1-oxo-3-phenylpropyl]amino]hexanoic acid
> <PUBCHEM_IUPAC_NAME_MARKUP>
(2<I>S</I>)-2-[(4-aminophenyl)sulfonyl-(2-methylpropyl)amino]-6-[[(2<I>S</I>)-2-(benzenesulfonamido)-3-phenylpropanoyl]amino]hexanoic acid
> <PUBCHEM_IUPAC_NAME>
(2S)-2-[(4-aminophenyl)sulfonyl-(2-methylpropyl)amino]-6-[[(2S)-2-(benzenesulfonamido)-3-phenylpropanoyl]amino]hexanoic acid
> <PUBCHEM_IUPAC_SYSTEMATIC_NAME>
(2S)-2-[(4-aminophenyl)sulfonyl-(2-methylpropyl)amino]-6-[[(2S)-3-phenyl-2-(phenylsulfonylamino)propanoyl]amino]hexanoic acid
> <PUBCHEM_IUPAC_TRADITIONAL_NAME>
(2S)-6-[[(2S)-2-(benzenesulfonamido)-3-phenyl-propanoyl]amino]-2-[isobutyl(sulfanilyl)amino]hexanoic acid
> <PUBCHEM_IUPAC_INCHI>
InChI=1S/C31H40N4O7S2/c1-23(2)22-35(44(41,42)27-18-16-25(32)17-19-27)29(31(37)38)15-9-10-20-33-30(36)28(21-24-11-5-3-6-12-24)34-43(39,40)26-13-7-4-8-14-26/h3-8,11-14,16-19,23,28-29,34H,9-10,15,20-22,32H2,1-2H3,(H,33,36)(H,37,38)/t28-,29-/m0/s1
> <PUBCHEM_IUPAC_INCHIKEY>
ZUICVPDJELESSP-VMPREFPWSA-N
> <PUBCHEM_XLOGP3_AA>
4.4
> <PUBCHEM_EXACT_MASS>
644.23384197
> <PUBCHEM_MOLECULAR_FORMULA>
C31H40N4O7S2
> <PUBCHEM_MOLECULAR_WEIGHT>
644.8
> <PUBCHEM_OPENEYE_CAN_SMILES>
CC(C)CN(C(CCCCNC(=O)C(CC1=CC=CC=C1)NS(=O)(=O)C2=CC=CC=C2)C(=O)O)S(=O)(=O)C3=CC=C(C=C3)N
> <PUBCHEM_OPENEYE_ISO_SMILES>
CC(C)CN([C@@H](CCCCNC(=O)[C@H](CC1=CC=CC=C1)NS(=O)(=O)C2=CC=CC=C2)C(=O)O)S(=O)(=O)C3=CC=C(C=C3)N
> <PUBCHEM_CACTVS_TPSA>
193
> <PUBCHEM_MONOISOTOPIC_WEIGHT>
644.23384197
> <PUBCHEM_TOTAL_CHARGE>
0
> <PUBCHEM_HEAVY_ATOM_COUNT>
44
> <PUBCHEM_ATOM_DEF_STEREO_COUNT>
2
> <PUBCHEM_ATOM_UDEF_STEREO_COUNT>
0
> <PUBCHEM_BOND_DEF_STEREO_COUNT>
0
> <PUBCHEM_BOND_UDEF_STEREO_COUNT>
0
> <PUBCHEM_ISOTOPIC_ATOM_COUNT>
0
> <PUBCHEM_COMPONENT_COUNT>
1
> <PUBCHEM_CACTVS_TAUTO_COUNT>
-1
> <PUBCHEM_COORDINATE_TYPE>
1
5
255
> <PUBCHEM_BONDANNOTATIONS>
14  10  6
25  12  5
24  26  8
24  27  8
26  30  8
27  31  8
30  33  8
31  33  8
32  35  8
32  36  8
34  39  8
34  40  8
35  37  8
36  38  8
37  41  8
38  41  8
39  42  8
40  43  8
42  44  8
43  44  8
$$$$
