508565
  -OEChem-10302200282D
 91 94  0     1  0  0  0  0  0999 V2000
    4.0000   -3.0311    0.0000 S   0  0  0  0  0  0  0  0  0  0  0  0
   10.5000    3.0311    0.0000 S   0  0  0  0  0  0  0  0  0  0  0  0
    6.9164    2.2264    0.0000 S   0  0  0  0  0  0  0  0  0  0  0  0
    3.1340   -2.5311    0.0000 O   0  0  0  0  0  0  0  0  0  0  0  0
    4.8660   -3.5311    0.0000 O   0  0  0  0  0  0  0  0  0  0  0  0
    5.5000   -3.8971    0.0000 O   0  0  0  0  0  0  0  0  0  0  0  0
    7.0000   -3.0311    0.0000 O   0  0  0  0  0  0  0  0  0  0  0  0
    7.5000    1.2990    0.0000 O   0  0  0  0  0  0  0  0  0  0  0  0
   11.3660    2.5311    0.0000 O   0  0  0  0  0  0  0  0  0  0  0  0
    9.6340    3.5311    0.0000 O   0  0  0  0  0  0  0  0  0  0  0  0
    4.5000   -2.1651    0.0000 N   0  0  3  0  0  0  0  0  0  0  0  0
    9.0000    0.4330    0.0000 N   0  0  0  0  0  0  0  0  0  0  0  0
   10.0000    2.1651    0.0000 N   0  0  0  0  0  0  0  0  0  0  0  0
    5.5000   -2.1651    0.0000 C   0  0  1  0  0  0  0  0  0  0  0  0
    6.0000   -1.2990    0.0000 C   0  0  0  0  0  0  0  0  0  0  0  0
    4.0000   -1.2990    0.0000 C   0  0  0  0  0  0  0  0  0  0  0  0
    7.0000   -1.2990    0.0000 C   0  0  0  0  0  0  0  0  0  0  0  0
    3.0000   -1.2990    0.0000 C   0  0  0  0  0  0  0  0  0  0  0  0
    7.5000   -0.4330    0.0000 C   0  0  0  0  0  0  0  0  0  0  0  0
    6.0000   -3.0311    0.0000 C   0  0  0  0  0  0  0  0  0  0  0  0
    8.5000   -0.4330    0.0000 C   0  0  0  0  0  0  0  0  0  0  0  0
    3.5000   -3.8971    0.0000 C   0  0  0  0  0  0  0  0  0  0  0  0
    2.5000   -0.4330    0.0000 C   0  0  0  0  0  0  0  0  0  0  0  0
    2.5000   -2.1651    0.0000 C   0  0  0  0  0  0  0  0  0  0  0  0
    9.0000    2.1651    0.0000 C   0  0  2  0  0  0  0  0  0  0  0  0
    8.5000    1.2990    0.0000 C   0  0  0  0  0  0  0  0  0  0  0  0
    2.5000   -3.8971    0.0000 C   0  0  0  0  0  0  0  0  0  0  0  0
    4.0000   -4.7631    0.0000 C   0  0  0  0  0  0  0  0  0  0  0  0
    8.5000    3.0311    0.0000 C   0  0  0  0  0  0  0  0  0  0  0  0
    2.0000   -4.7631    0.0000 C   0  0  0  0  0  0  0  0  0  0  0  0
    3.5000   -5.6292    0.0000 C   0  0  0  0  0  0  0  0  0  0  0  0
    7.5000    3.0311    0.0000 C   0  0  0  0  0  0  0  0  0  0  0  0
    2.5000   -5.6292    0.0000 C   0  0  0  0  0  0  0  0  0  0  0  0
    6.9164    3.8358    0.0000 C   0  0  0  0  0  0  0  0  0  0  0  0
    5.9702    3.5311    0.0000 C   0  0  0  0  0  0  0  0  0  0  0  0
   11.0000    3.8971    0.0000 C   0  0  0  0  0  0  0  0  0  0  0  0
    5.9702    2.5311    0.0000 C   0  0  0  0  0  0  0  0  0  0  0  0
    2.0000   -6.4952    0.0000 C   0  0  0  0  0  0  0  0  0  0  0  0
    5.1042    4.0311    0.0000 C   0  0  0  0  0  0  0  0  0  0  0  0
   10.5000    4.7631    0.0000 C   0  0  0  0  0  0  0  0  0  0  0  0
   12.0000    3.8971    0.0000 C   0  0  0  0  0  0  0  0  0  0  0  0
    5.1042    2.0311    0.0000 C   0  0  0  0  0  0  0  0  0  0  0  0
    4.2381    3.5311    0.0000 C   0  0  0  0  0  0  0  0  0  0  0  0
   11.0000    5.6292    0.0000 C   0  0  0  0  0  0  0  0  0  0  0  0
   12.5000    4.7631    0.0000 C   0  0  0  0  0  0  0  0  0  0  0  0
    4.2381    2.5311    0.0000 C   0  0  0  0  0  0  0  0  0  0  0  0
   12.0000    5.6292    0.0000 C   0  0  0  0  0  0  0  0  0  0  0  0
   12.5000    6.4952    0.0000 C   0  0  0  0  0  0  0  0  0  0  0  0
    5.1900   -2.7020    0.0000 H   0  0  0  0  0  0  0  0  0  0  0  0
    6.1077   -0.6885    0.0000 H   0  0  0  0  0  0  0  0  0  0  0  0
    5.4174   -1.0870    0.0000 H   0  0  0  0  0  0  0  0  0  0  0  0
    4.5826   -1.0870    0.0000 H   0  0  0  0  0  0  0  0  0  0  0  0
    3.8923   -0.6885    0.0000 H   0  0  0  0  0  0  0  0  0  0  0  0
    6.8923   -1.9096    0.0000 H   0  0  0  0  0  0  0  0  0  0  0  0
    7.5826   -1.5111    0.0000 H   0  0  0  0  0  0  0  0  0  0  0  0
    2.3800   -1.2990    0.0000 H   0  0  0  0  0  0  0  0  0  0  0  0
    7.6077    0.1776    0.0000 H   0  0  0  0  0  0  0  0  0  0  0  0
    6.9174   -0.2210    0.0000 H   0  0  0  0  0  0  0  0  0  0  0  0
    8.3923   -1.0436    0.0000 H   0  0  0  0  0  0  0  0  0  0  0  0
    9.0826   -0.6451    0.0000 H   0  0  0  0  0  0  0  0  0  0  0  0
    3.0369   -0.1230    0.0000 H   0  0  0  0  0  0  0  0  0  0  0  0
    2.1900    0.1039    0.0000 H   0  0  0  0  0  0  0  0  0  0  0  0
    1.9631   -0.7430    0.0000 H   0  0  0  0  0  0  0  0  0  0  0  0
    1.9631   -1.8551    0.0000 H   0  0  0  0  0  0  0  0  0  0  0  0
    2.1900   -2.7020    0.0000 H   0  0  0  0  0  0  0  0  0  0  0  0
    3.0369   -2.4751    0.0000 H   0  0  0  0  0  0  0  0  0  0  0  0
    9.3100    2.7020    0.0000 H   0  0  0  0  0  0  0  0  0  0  0  0
    9.6200    0.4330    0.0000 H   0  0  0  0  0  0  0  0  0  0  0  0
    2.1900   -3.3602    0.0000 H   0  0  0  0  0  0  0  0  0  0  0  0
    4.6200   -4.7631    0.0000 H   0  0  0  0  0  0  0  0  0  0  0  0
    9.0826    3.2431    0.0000 H   0  0  0  0  0  0  0  0  0  0  0  0
    8.3923    3.6417    0.0000 H   0  0  0  0  0  0  0  0  0  0  0  0
   10.3100    1.6281    0.0000 H   0  0  0  0  0  0  0  0  0  0  0  0
    5.8100   -4.4340    0.0000 H   0  0  0  0  0  0  0  0  0  0  0  0
    1.3800   -4.7631    0.0000 H   0  0  0  0  0  0  0  0  0  0  0  0
    3.8100   -6.1661    0.0000 H   0  0  0  0  0  0  0  0  0  0  0  0
    7.1090    4.4251    0.0000 H   0  0  0  0  0  0  0  0  0  0  0  0
    1.4631   -6.1852    0.0000 H   0  0  0  0  0  0  0  0  0  0  0  0
    1.6900   -7.0321    0.0000 H   0  0  0  0  0  0  0  0  0  0  0  0
    2.5369   -6.8052    0.0000 H   0  0  0  0  0  0  0  0  0  0  0  0
    5.1042    4.6511    0.0000 H   0  0  0  0  0  0  0  0  0  0  0  0
    9.8800    4.7631    0.0000 H   0  0  0  0  0  0  0  0  0  0  0  0
   12.3100    3.3602    0.0000 H   0  0  0  0  0  0  0  0  0  0  0  0
    5.1042    1.4111    0.0000 H   0  0  0  0  0  0  0  0  0  0  0  0
    3.7012    3.8411    0.0000 H   0  0  0  0  0  0  0  0  0  0  0  0
   10.6900    6.1661    0.0000 H   0  0  0  0  0  0  0  0  0  0  0  0
   13.1200    4.7631    0.0000 H   0  0  0  0  0  0  0  0  0  0  0  0
    3.7012    2.2211    0.0000 H   0  0  0  0  0  0  0  0  0  0  0  0
   13.0369    6.1852    0.0000 H   0  0  0  0  0  0  0  0  0  0  0  0
   12.8100    7.0321    0.0000 H   0  0  0  0  0  0  0  0  0  0  0  0
   11.9631    6.8052    0.0000 H   0  0  0  0  0  0  0  0  0  0  0  0
  1  4  2  0  0  0  0
  1  5  2  0  0  0  0
  1 11  1  0  0  0  0
  1 22  1  0  0  0  0
  2  9  2  0  0  0  0
  2 10  2  0  0  0  0
  2 13  1  0  0  0  0
  2 36  1  0  0  0  0
  3 32  1  0  0  0  0
  3 37  1  0  0  0  0
  6 20  1  0  0  0  0
  6 74  1  0  0  0  0
  7 20  2  0  0  0  0
  8 26  2  0  0  0  0
 14 11  1  1  0  0  0
 11 16  1  0  0  0  0
 12 21  1  0  0  0  0
 12 26  1  0  0  0  0
 12 68  1  0  0  0  0
 25 13  1  6  0  0  0
 13 73  1  0  0  0  0
 14 15  1  0  0  0  0
 14 20  1  0  0  0  0
 14 49  1  0  0  0  0
 15 17  1  0  0  0  0
 15 50  1  0  0  0  0
 15 51  1  0  0  0  0
 16 18  1  0  0  0  0
 16 52  1  0  0  0  0
 16 53  1  0  0  0  0
 17 19  1  0  0  0  0
 17 54  1  0  0  0  0
 17 55  1  0  0  0  0
 18 23  1  0  0  0  0
 18 24  1  0  0  0  0
 18 56  1  0  0  0  0
 19 21  1  0  0  0  0
 19 57  1  0  0  0  0
 19 58  1  0  0  0  0
 21 59  1  0  0  0  0
 21 60  1  0  0  0  0
 22 27  2  0  0  0  0
 22 28  1  0  0  0  0
 23 61  1  0  0  0  0
 23 62  1  0  0  0  0
 23 63  1  0  0  0  0
 24 64  1  0  0  0  0
 24 65  1  0  0  0  0
 24 66  1  0  0  0  0
 25 26  1  0  0  0  0
 25 29  1  0  0  0  0
 25 67  1  0  0  0  0
 27 30  1  0  0  0  0
 27 69  1  0  0  0  0
 28 31  2  0  0  0  0
 28 70  1  0  0  0  0
 29 32  1  0  0  0  0
 29 71  1  0  0  0  0
 29 72  1  0  0  0  0
 30 33  2  0  0  0  0
 30 75  1  0  0  0  0
 31 33  1  0  0  0  0
 31 76  1  0  0  0  0
 32 34  2  0  0  0  0
 33 38  1  0  0  0  0
 34 35  1  0  0  0  0
 34 77  1  0  0  0  0
 35 37  1  0  0  0  0
 35 39  2  0  0  0  0
 36 40  2  0  0  0  0
 36 41  1  0  0  0  0
 37 42  2  0  0  0  0
 38 78  1  0  0  0  0
 38 79  1  0  0  0  0
 38 80  1  0  0  0  0
 39 43  1  0  0  0  0
 39 81  1  0  0  0  0
 40 44  1  0  0  0  0
 40 82  1  0  0  0  0
 41 45  2  0  0  0  0
 41 83  1  0  0  0  0
 42 46  1  0  0  0  0
 42 84  1  0  0  0  0
 43 46  2  0  0  0  0
 43 85  1  0  0  0  0
 44 47  2  0  0  0  0
 44 86  1  0  0  0  0
 45 47  1  0  0  0  0
 45 87  1  0  0  0  0
 46 88  1  0  0  0  0
 47 48  1  0  0  0  0
 48 89  1  0  0  0  0
 48 90  1  0  0  0  0
 48 91  1  0  0  0  0
M  END
> <PUBCHEM_COMPOUND_CID>
508565
> <PUBCHEM_COMPOUND_CANONICALIZED>
1
> <PUBCHEM_CACTVS_COMPLEXITY>
1250
> <PUBCHEM_CACTVS_HBOND_ACCEPTOR>
10
> <PUBCHEM_CACTVS_HBOND_DONOR>
3
> <PUBCHEM_CACTVS_ROTATABLE_BOND>
17
> <PUBCHEM_CACTVS_SUBSKEYS>
AAADcfB/OABgAAAAAAAAAAAAAAAAASAAAAAwYMAAAAAAAEgB9AAAHgQQSAAADSjB2AQyCcLAAgqMAiHSGHBDAJAgCBBIiJmIAIgKYDKgkTGUYAAklgC4iAeYyMCOEAAAAAAEAAAgAAAAAAgAAAAAAAAAAA==
> <PUBCHEM_IUPAC_OPENEYE_NAME>
(2S)-6-[[(2S)-3-(benzothiophen-2-yl)-2-(p-tolylsulfonylamino)propanoyl]amino]-2-[isobutyl(p-tolylsulfonyl)amino]hexanoic acid
> <PUBCHEM_IUPAC_CAS_NAME>
(2S)-6-[[(2S)-3-(1-benzothiophen-2-yl)-2-[(4-methylphenyl)sulfonylamino]-1-oxopropyl]amino]-2-[(4-methylphenyl)sulfonyl-(2-methylpropyl)amino]hexanoic acid
> <PUBCHEM_IUPAC_NAME_MARKUP>
(2<I>S</I>)-6-[[(2<I>S</I>)-3-(1-benzothiophen-2-yl)-2-[(4-methylphenyl)sulfonylamino]propanoyl]amino]-2-[(4-methylphenyl)sulfonyl-(2-methylpropyl)amino]hexanoic acid
> <PUBCHEM_IUPAC_NAME>
(2S)-6-[[(2S)-3-(1-benzothiophen-2-yl)-2-[(4-methylphenyl)sulfonylamino]propanoyl]amino]-2-[(4-methylphenyl)sulfonyl-(2-methylpropyl)amino]hexanoic acid
> <PUBCHEM_IUPAC_SYSTEMATIC_NAME>
(2S)-6-[[(2S)-3-(1-benzothiophen-2-yl)-2-[(4-methylphenyl)sulfonylamino]propanoyl]amino]-2-[(4-methylphenyl)sulfonyl-(2-methylpropyl)amino]hexanoic acid
> <PUBCHEM_IUPAC_TRADITIONAL_NAME>
(2S)-6-[[(2S)-3-(benzothiophen-2-yl)-2-(tosylamino)propanoyl]amino]-2-[isobutyl(tosyl)amino]hexanoic acid
> <PUBCHEM_IUPAC_INCHI>
InChI=1S/C35H43N3O7S3/c1-24(2)23-38(48(44,45)30-18-14-26(4)15-19-30)32(35(40)41)10-7-8-20-36-34(39)31(22-28-21-27-9-5-6-11-33(27)46-28)37-47(42,43)29-16-12-25(3)13-17-29/h5-6,9,11-19,21,24,31-32,37H,7-8,10,20,22-23H2,1-4H3,(H,36,39)(H,40,41)/t31-,32-/m0/s1
> <PUBCHEM_IUPAC_INCHIKEY>
VXDZDKBVBFIKOU-ACHIHNKUSA-N
> <PUBCHEM_XLOGP3_AA>
6.9
> <PUBCHEM_EXACT_MASS>
713.22631424
> <PUBCHEM_MOLECULAR_FORMULA>
C35H43N3O7S3
> <PUBCHEM_MOLECULAR_WEIGHT>
713.9
> <PUBCHEM_OPENEYE_CAN_SMILES>
CC1=CC=C(C=C1)S(=O)(=O)NC(CC2=CC3=CC=CC=C3S2)C(=O)NCCCCC(C(=O)O)N(CC(C)C)S(=O)(=O)C4=CC=C(C=C4)C
> <PUBCHEM_OPENEYE_ISO_SMILES>
CC1=CC=C(C=C1)S(=O)(=O)N[C@@H](CC2=CC3=CC=CC=C3S2)C(=O)NCCCC[C@@H](C(=O)O)N(CC(C)C)S(=O)(=O)C4=CC=C(C=C4)C
> <PUBCHEM_CACTVS_TPSA>
195
> <PUBCHEM_MONOISOTOPIC_WEIGHT>
713.22631424
> <PUBCHEM_TOTAL_CHARGE>
0
> <PUBCHEM_HEAVY_ATOM_COUNT>
48
> <PUBCHEM_ATOM_DEF_STEREO_COUNT>
2
> <PUBCHEM_ATOM_UDEF_STEREO_COUNT>
0
> <PUBCHEM_BOND_DEF_STEREO_COUNT>
0
> <PUBCHEM_BOND_UDEF_STEREO_COUNT>
0
> <PUBCHEM_ISOTOPIC_ATOM_COUNT>
0
> <PUBCHEM_COMPONENT_COUNT>
1
> <PUBCHEM_CACTVS_TAUTO_COUNT>
-1
> <PUBCHEM_COORDINATE_TYPE>
1
5
255
> <PUBCHEM_BONDANNOTATIONS>
14  11  5
25  13  6
22  27  8
22  28  8
27  30  8
28  31  8
3  32  8
3  37  8
30  33  8
31  33  8
32  34  8
34  35  8
35  37  8
35  39  8
36  40  8
36  41  8
37  42  8
39  43  8
40  44  8
41  45  8
42  46  8
43  46  8
44  47  8
45  47  8
$$$$
