508587
  -OEChem-10302200282D
 85 87  0     1  0  0  0  0  0999 V2000
    4.5981   -0.5194    0.0000 S   0  0  0  0  0  0  0  0  0  0  0  0
   12.3923    1.9806    0.0000 S   0  0  0  0  0  0  0  0  0  0  0  0
   11.5833    3.5684    0.0000 S   0  0  0  0  0  0  0  0  0  0  0  0
    5.5981   -0.5194    0.0000 O   0  0  0  0  0  0  0  0  0  0  0  0
    3.5981   -0.5194    0.0000 O   0  0  0  0  0  0  0  0  0  0  0  0
    4.5981    2.4806    0.0000 O   0  0  0  0  0  0  0  0  0  0  0  0
   10.6603    1.9806    0.0000 O   0  0  0  0  0  0  0  0  0  0  0  0
   13.3923    1.9806    0.0000 O   0  0  0  0  0  0  0  0  0  0  0  0
   11.3923    1.9806    0.0000 O   0  0  0  0  0  0  0  0  0  0  0  0
    4.5981    0.4806    0.0000 N   0  0  3  0  0  0  0  0  0  0  0  0
    9.7942    0.4806    0.0000 N   0  0  0  0  0  0  0  0  0  0  0  0
    6.3301    2.4806    0.0000 N   0  0  0  0  0  0  0  0  0  0  0  0
   12.3923    0.9806    0.0000 N   0  0  0  0  0  0  0  0  0  0  0  0
    6.3301    3.4806    0.0000 N   0  0  0  0  0  0  0  0  0  0  0  0
    5.4641    0.9806    0.0000 C   0  0  1  0  0  0  0  0  0  0  0  0
    6.3301    0.4806    0.0000 C   0  0  0  0  0  0  0  0  0  0  0  0
    3.7320    0.9806    0.0000 C   0  0  0  0  0  0  0  0  0  0  0  0
    7.1962    0.9806    0.0000 C   0  0  0  0  0  0  0  0  0  0  0  0
    2.8660    0.4806    0.0000 C   0  0  0  0  0  0  0  0  0  0  0  0
    8.0622    0.4806    0.0000 C   0  0  0  0  0  0  0  0  0  0  0  0
    5.4641    1.9806    0.0000 C   0  0  0  0  0  0  0  0  0  0  0  0
    4.5981   -1.5194    0.0000 C   0  0  0  0  0  0  0  0  0  0  0  0
    8.9282    0.9806    0.0000 C   0  0  0  0  0  0  0  0  0  0  0  0
    2.0000    0.9806    0.0000 C   0  0  0  0  0  0  0  0  0  0  0  0
    2.8660   -0.5194    0.0000 C   0  0  0  0  0  0  0  0  0  0  0  0
   11.5263    0.4806    0.0000 C   0  0  2  0  0  0  0  0  0  0  0  0
    5.4641   -2.0194    0.0000 C   0  0  0  0  0  0  0  0  0  0  0  0
    3.7320   -2.0194    0.0000 C   0  0  0  0  0  0  0  0  0  0  0  0
   10.6603    0.9806    0.0000 C   0  0  0  0  0  0  0  0  0  0  0  0
   11.5263   -0.5194    0.0000 C   0  0  0  0  0  0  0  0  0  0  0  0
    5.4641   -3.0194    0.0000 C   0  0  0  0  0  0  0  0  0  0  0  0
    3.7320   -3.0194    0.0000 C   0  0  0  0  0  0  0  0  0  0  0  0
    4.5981   -3.5194    0.0000 C   0  0  0  0  0  0  0  0  0  0  0  0
   12.3923   -1.0194    0.0000 C   0  0  0  0  0  0  0  0  0  0  0  0
    4.5981   -4.5194    0.0000 C   0  0  0  0  0  0  0  0  0  0  0  0
   13.2583   -0.5194    0.0000 C   0  0  0  0  0  0  0  0  0  0  0  0
   12.3923   -2.0194    0.0000 C   0  0  0  0  0  0  0  0  0  0  0  0
   12.3923    2.9806    0.0000 C   0  0  0  0  0  0  0  0  0  0  0  0
   14.1244   -1.0194    0.0000 C   0  0  0  0  0  0  0  0  0  0  0  0
   13.2583   -2.5194    0.0000 C   0  0  0  0  0  0  0  0  0  0  0  0
   13.2013    3.5684    0.0000 C   0  0  0  0  0  0  0  0  0  0  0  0
   14.1244   -2.0194    0.0000 C   0  0  0  0  0  0  0  0  0  0  0  0
   12.8923    4.5194    0.0000 C   0  0  0  0  0  0  0  0  0  0  0  0
   11.8923    4.5194    0.0000 C   0  0  0  0  0  0  0  0  0  0  0  0
    5.4641    0.3606    0.0000 H   0  0  0  0  0  0  0  0  0  0  0  0
    5.9316    0.0056    0.0000 H   0  0  0  0  0  0  0  0  0  0  0  0
    6.7287    0.0056    0.0000 H   0  0  0  0  0  0  0  0  0  0  0  0
    4.1306    1.4555    0.0000 H   0  0  0  0  0  0  0  0  0  0  0  0
    3.3335    1.4555    0.0000 H   0  0  0  0  0  0  0  0  0  0  0  0
    7.5947    1.4555    0.0000 H   0  0  0  0  0  0  0  0  0  0  0  0
    6.7976    1.4555    0.0000 H   0  0  0  0  0  0  0  0  0  0  0  0
    2.8660    1.1006    0.0000 H   0  0  0  0  0  0  0  0  0  0  0  0
    7.6636    0.0056    0.0000 H   0  0  0  0  0  0  0  0  0  0  0  0
    8.4607    0.0056    0.0000 H   0  0  0  0  0  0  0  0  0  0  0  0
    9.3267    1.4555    0.0000 H   0  0  0  0  0  0  0  0  0  0  0  0
    8.5297    1.4555    0.0000 H   0  0  0  0  0  0  0  0  0  0  0  0
    2.3100    1.5175    0.0000 H   0  0  0  0  0  0  0  0  0  0  0  0
    1.4631    1.2906    0.0000 H   0  0  0  0  0  0  0  0  0  0  0  0
    1.6900    0.4436    0.0000 H   0  0  0  0  0  0  0  0  0  0  0  0
    2.2460   -0.5194    0.0000 H   0  0  0  0  0  0  0  0  0  0  0  0
    2.8660   -1.1394    0.0000 H   0  0  0  0  0  0  0  0  0  0  0  0
    3.4860   -0.5194    0.0000 H   0  0  0  0  0  0  0  0  0  0  0  0
    9.7942   -0.1394    0.0000 H   0  0  0  0  0  0  0  0  0  0  0  0
    6.8671    2.1706    0.0000 H   0  0  0  0  0  0  0  0  0  0  0  0
   12.0632    0.1706    0.0000 H   0  0  0  0  0  0  0  0  0  0  0  0
    6.0010   -1.7094    0.0000 H   0  0  0  0  0  0  0  0  0  0  0  0
    3.1951   -1.7094    0.0000 H   0  0  0  0  0  0  0  0  0  0  0  0
   10.9157   -0.4118    0.0000 H   0  0  0  0  0  0  0  0  0  0  0  0
   11.3142   -1.1020    0.0000 H   0  0  0  0  0  0  0  0  0  0  0  0
    6.0010   -3.3294    0.0000 H   0  0  0  0  0  0  0  0  0  0  0  0
    3.1951   -3.3294    0.0000 H   0  0  0  0  0  0  0  0  0  0  0  0
   12.9292    0.6706    0.0000 H   0  0  0  0  0  0  0  0  0  0  0  0
    6.8671    3.7906    0.0000 H   0  0  0  0  0  0  0  0  0  0  0  0
    5.7932    3.7906    0.0000 H   0  0  0  0  0  0  0  0  0  0  0  0
    3.9781   -4.5194    0.0000 H   0  0  0  0  0  0  0  0  0  0  0  0
    4.5981   -5.1394    0.0000 H   0  0  0  0  0  0  0  0  0  0  0  0
    5.2181   -4.5194    0.0000 H   0  0  0  0  0  0  0  0  0  0  0  0
   13.2583    0.1006    0.0000 H   0  0  0  0  0  0  0  0  0  0  0  0
   11.8554   -2.3294    0.0000 H   0  0  0  0  0  0  0  0  0  0  0  0
   14.6613   -0.7094    0.0000 H   0  0  0  0  0  0  0  0  0  0  0  0
   13.2583   -3.1394    0.0000 H   0  0  0  0  0  0  0  0  0  0  0  0
   13.7910    3.3768    0.0000 H   0  0  0  0  0  0  0  0  0  0  0  0
   14.6613   -2.3294    0.0000 H   0  0  0  0  0  0  0  0  0  0  0  0
   13.2567    5.0210    0.0000 H   0  0  0  0  0  0  0  0  0  0  0  0
   11.5279    5.0210    0.0000 H   0  0  0  0  0  0  0  0  0  0  0  0
  1  4  2  0  0  0  0
  1  5  2  0  0  0  0
  1 10  1  0  0  0  0
  1 22  1  0  0  0  0
  2  8  2  0  0  0  0
  2  9  2  0  0  0  0
  2 13  1  0  0  0  0
  2 38  1  0  0  0  0
  3 38  1  0  0  0  0
  3 44  1  0  0  0  0
  6 21  2  0  0  0  0
  7 29  2  0  0  0  0
 15 10  1  6  0  0  0
 10 17  1  0  0  0  0
 11 23  1  0  0  0  0
 11 29  1  0  0  0  0
 11 63  1  0  0  0  0
 12 14  1  0  0  0  0
 12 21  1  0  0  0  0
 12 64  1  0  0  0  0
 26 13  1  1  0  0  0
 13 72  1  0  0  0  0
 14 73  1  0  0  0  0
 14 74  1  0  0  0  0
 15 16  1  0  0  0  0
 15 21  1  0  0  0  0
 15 45  1  0  0  0  0
 16 18  1  0  0  0  0
 16 46  1  0  0  0  0
 16 47  1  0  0  0  0
 17 19  1  0  0  0  0
 17 48  1  0  0  0  0
 17 49  1  0  0  0  0
 18 20  1  0  0  0  0
 18 50  1  0  0  0  0
 18 51  1  0  0  0  0
 19 24  1  0  0  0  0
 19 25  1  0  0  0  0
 19 52  1  0  0  0  0
 20 23  1  0  0  0  0
 20 53  1  0  0  0  0
 20 54  1  0  0  0  0
 22 27  2  0  0  0  0
 22 28  1  0  0  0  0
 23 55  1  0  0  0  0
 23 56  1  0  0  0  0
 24 57  1  0  0  0  0
 24 58  1  0  0  0  0
 24 59  1  0  0  0  0
 25 60  1  0  0  0  0
 25 61  1  0  0  0  0
 25 62  1  0  0  0  0
 26 29  1  0  0  0  0
 26 30  1  0  0  0  0
 26 65  1  0  0  0  0
 27 31  1  0  0  0  0
 27 66  1  0  0  0  0
 28 32  2  0  0  0  0
 28 67  1  0  0  0  0
 30 34  1  0  0  0  0
 30 68  1  0  0  0  0
 30 69  1  0  0  0  0
 31 33  2  0  0  0  0
 31 70  1  0  0  0  0
 32 33  1  0  0  0  0
 32 71  1  0  0  0  0
 33 35  1  0  0  0  0
 34 36  2  0  0  0  0
 34 37  1  0  0  0  0
 35 75  1  0  0  0  0
 35 76  1  0  0  0  0
 35 77  1  0  0  0  0
 36 39  1  0  0  0  0
 36 78  1  0  0  0  0
 37 40  2  0  0  0  0
 37 79  1  0  0  0  0
 38 41  2  0  0  0  0
 39 42  2  0  0  0  0
 39 80  1  0  0  0  0
 40 42  1  0  0  0  0
 40 81  1  0  0  0  0
 41 43  1  0  0  0  0
 41 82  1  0  0  0  0
 42 83  1  0  0  0  0
 43 44  2  0  0  0  0
 43 84  1  0  0  0  0
 44 85  1  0  0  0  0
M  END
> <PUBCHEM_COMPOUND_CID>
508587
> <PUBCHEM_COMPOUND_CANONICALIZED>
1
> <PUBCHEM_CACTVS_COMPLEXITY>
1110
> <PUBCHEM_CACTVS_HBOND_ACCEPTOR>
10
> <PUBCHEM_CACTVS_HBOND_DONOR>
4
> <PUBCHEM_CACTVS_ROTATABLE_BOND>
17
> <PUBCHEM_CACTVS_SUBSKEYS>
AAADcfB7uABgAAAAAAAAAAAAAAAAASAAAAAwYAAAAAAAAAAB0AAAHgQYQAAADSjF2ASyAYLiAAqMAiFSEHBDAZAgCBJaqJmIAIgIYDKgkTGUIAAglgCoiAcYiICOEAAAAAAAAAAgAAAAAAAAAAAAAAAAAA==
> <PUBCHEM_IUPAC_OPENEYE_NAME>
(2S)-N-[(5S)-6-hydrazino-5-[isobutyl(p-tolylsulfonyl)amino]-6-oxo-hexyl]-3-phenyl-2-(2-thienylsulfonylamino)propanamide
> <PUBCHEM_IUPAC_CAS_NAME>
(2S)-N-[(5S)-6-hydrazinyl-5-[(4-methylphenyl)sulfonyl-(2-methylpropyl)amino]-6-oxohexyl]-3-phenyl-2-(thiophen-2-ylsulfonylamino)propanamide
> <PUBCHEM_IUPAC_NAME_MARKUP>
(2<I>S</I>)-<I>N</I>-[(5<I>S</I>)-6-hydrazinyl-5-[(4-methylphenyl)sulfonyl-(2-methylpropyl)amino]-6-oxohexyl]-3-phenyl-2-(thiophen-2-ylsulfonylamino)propanamide
> <PUBCHEM_IUPAC_NAME>
(2S)-N-[(5S)-6-hydrazinyl-5-[(4-methylphenyl)sulfonyl-(2-methylpropyl)amino]-6-oxohexyl]-3-phenyl-2-(thiophen-2-ylsulfonylamino)propanamide
> <PUBCHEM_IUPAC_SYSTEMATIC_NAME>
(2S)-N-[(5S)-6-diazanyl-5-[(4-methylphenyl)sulfonyl-(2-methylpropyl)amino]-6-oxidanylidene-hexyl]-3-phenyl-2-(thiophen-2-ylsulfonylamino)propanamide
> <PUBCHEM_IUPAC_TRADITIONAL_NAME>
(2S)-N-[(5S)-6-hydrazino-5-[isobutyl(tosyl)amino]-6-keto-hexyl]-3-phenyl-2-(2-thienylsulfonylamino)propionamide
> <PUBCHEM_IUPAC_INCHI>
InChI=1S/C30H41N5O6S3/c1-22(2)21-35(44(40,41)25-16-14-23(3)15-17-25)27(30(37)33-31)12-7-8-18-32-29(36)26(20-24-10-5-4-6-11-24)34-43(38,39)28-13-9-19-42-28/h4-6,9-11,13-17,19,22,26-27,34H,7-8,12,18,20-21,31H2,1-3H3,(H,32,36)(H,33,37)/t26-,27-/m0/s1
> <PUBCHEM_IUPAC_INCHIKEY>
FQHZUMWXCGKAJC-SVBPBHIXSA-N
> <PUBCHEM_XLOGP3_AA>
4.5
> <PUBCHEM_EXACT_MASS>
663.22189757
> <PUBCHEM_MOLECULAR_FORMULA>
C30H41N5O6S3
> <PUBCHEM_MOLECULAR_WEIGHT>
663.9
> <PUBCHEM_OPENEYE_CAN_SMILES>
CC1=CC=C(C=C1)S(=O)(=O)N(CC(C)C)C(CCCCNC(=O)C(CC2=CC=CC=C2)NS(=O)(=O)C3=CC=CS3)C(=O)NN
> <PUBCHEM_OPENEYE_ISO_SMILES>
CC1=CC=C(C=C1)S(=O)(=O)N(CC(C)C)[C@@H](CCCCNC(=O)[C@H](CC2=CC=CC=C2)NS(=O)(=O)C3=CC=CS3)C(=O)NN
> <PUBCHEM_CACTVS_TPSA>
213
> <PUBCHEM_MONOISOTOPIC_WEIGHT>
663.22189757
> <PUBCHEM_TOTAL_CHARGE>
0
> <PUBCHEM_HEAVY_ATOM_COUNT>
44
> <PUBCHEM_ATOM_DEF_STEREO_COUNT>
2
> <PUBCHEM_ATOM_UDEF_STEREO_COUNT>
0
> <PUBCHEM_BOND_DEF_STEREO_COUNT>
0
> <PUBCHEM_BOND_UDEF_STEREO_COUNT>
0
> <PUBCHEM_ISOTOPIC_ATOM_COUNT>
0
> <PUBCHEM_COMPONENT_COUNT>
1
> <PUBCHEM_CACTVS_TAUTO_COUNT>
-1
> <PUBCHEM_COORDINATE_TYPE>
1
5
255
> <PUBCHEM_BONDANNOTATIONS>
15  10  6
26  13  5
22  27  8
22  28  8
27  31  8
28  32  8
3  38  8
3  44  8
31  33  8
32  33  8
34  36  8
34  37  8
36  39  8
37  40  8
38  41  8
39  42  8
40  42  8
41  43  8
43  44  8
$$$$
