508540
  -OEChem-10302200282D
 80 82  0     1  0  0  0  0  0999 V2000
   12.6477    1.7252    0.0000 S   0  0  0  0  0  0  0  0  0  0  0  0
    4.5981   -0.6597    0.0000 S   0  0  0  0  0  0  0  0  0  0  0  0
   13.0157   -1.7756    0.0000 O   0  0  0  0  0  0  0  0  0  0  0  0
   13.6259    1.5173    0.0000 O   0  0  0  0  0  0  0  0  0  0  0  0
   11.6696    1.9331    0.0000 O   0  0  0  0  0  0  0  0  0  0  0  0
   10.6603    1.8403    0.0000 O   0  0  0  0  0  0  0  0  0  0  0  0
    5.5981   -0.6597    0.0000 O   0  0  0  0  0  0  0  0  0  0  0  0
    3.5981   -0.6597    0.0000 O   0  0  0  0  0  0  0  0  0  0  0  0
    6.3301    2.3403    0.0000 O   0  0  0  0  0  0  0  0  0  0  0  0
    4.5981    2.3403    0.0000 O   0  0  0  0  0  0  0  0  0  0  0  0
   12.4398    0.7471    0.0000 N   0  0  3  0  0  0  0  0  0  0  0  0
    9.7942    0.3403    0.0000 N   0  0  0  0  0  0  0  0  0  0  0  0
    4.5981    0.3403    0.0000 N   0  0  3  0  0  0  0  0  0  0  0  0
   11.5263    0.3403    0.0000 C   0  0  1  0  0  0  0  0  0  0  0  0
   11.6308   -0.6542    0.0000 C   0  0  0  0  0  0  0  0  0  0  0  0
   12.6090   -0.8621    0.0000 C   0  0  2  0  0  0  0  0  0  0  0  0
   13.1090    0.0039    0.0000 C   0  0  0  0  0  0  0  0  0  0  0  0
   10.6603    0.8403    0.0000 C   0  0  0  0  0  0  0  0  0  0  0  0
    5.4641    0.8403    0.0000 C   0  0  1  0  0  0  0  0  0  0  0  0
    6.3301    0.3403    0.0000 C   0  0  0  0  0  0  0  0  0  0  0  0
    8.9282    0.8403    0.0000 C   0  0  0  0  0  0  0  0  0  0  0  0
    7.1962    0.8403    0.0000 C   0  0  0  0  0  0  0  0  0  0  0  0
   12.8556    2.7034    0.0000 C   0  0  0  0  0  0  0  0  0  0  0  0
    8.0622    0.3403    0.0000 C   0  0  0  0  0  0  0  0  0  0  0  0
    3.7320    0.8403    0.0000 C   0  0  0  0  0  0  0  0  0  0  0  0
    2.8660    0.3403    0.0000 C   0  0  0  0  0  0  0  0  0  0  0  0
   12.1125    3.3725    0.0000 C   0  0  0  0  0  0  0  0  0  0  0  0
   13.8067    3.0124    0.0000 C   0  0  0  0  0  0  0  0  0  0  0  0
    5.4641    1.8403    0.0000 C   0  0  0  0  0  0  0  0  0  0  0  0
    4.5981   -1.6597    0.0000 C   0  0  0  0  0  0  0  0  0  0  0  0
    2.0000    0.8403    0.0000 C   0  0  0  0  0  0  0  0  0  0  0  0
    2.8660   -0.6597    0.0000 C   0  0  0  0  0  0  0  0  0  0  0  0
   12.3204    4.3506    0.0000 C   0  0  0  0  0  0  0  0  0  0  0  0
   14.0146    3.9905    0.0000 C   0  0  0  0  0  0  0  0  0  0  0  0
   13.2715    4.6597    0.0000 C   0  0  0  0  0  0  0  0  0  0  0  0
    3.7320   -2.1597    0.0000 C   0  0  0  0  0  0  0  0  0  0  0  0
    5.4641   -2.1597    0.0000 C   0  0  0  0  0  0  0  0  0  0  0  0
    3.7320   -3.1597    0.0000 C   0  0  0  0  0  0  0  0  0  0  0  0
    5.4641   -3.1597    0.0000 C   0  0  0  0  0  0  0  0  0  0  0  0
    4.5981   -3.6597    0.0000 C   0  0  0  0  0  0  0  0  0  0  0  0
    4.5981   -4.6597    0.0000 C   0  0  0  0  0  0  0  0  0  0  0  0
   11.5587    0.9595    0.0000 H   0  0  0  0  0  0  0  0  0  0  0  0
   11.0108   -0.6542    0.0000 H   0  0  0  0  0  0  0  0  0  0  0  0
   11.5660   -1.2708    0.0000 H   0  0  0  0  0  0  0  0  0  0  0  0
   13.2281   -0.8945    0.0000 H   0  0  0  0  0  0  0  0  0  0  0  0
   13.6105   -0.3605    0.0000 H   0  0  0  0  0  0  0  0  0  0  0  0
   13.5238    0.4647    0.0000 H   0  0  0  0  0  0  0  0  0  0  0  0
    5.4641    0.2203    0.0000 H   0  0  0  0  0  0  0  0  0  0  0  0
    9.7942   -0.2797    0.0000 H   0  0  0  0  0  0  0  0  0  0  0  0
    5.9316   -0.1346    0.0000 H   0  0  0  0  0  0  0  0  0  0  0  0
    6.7287   -0.1346    0.0000 H   0  0  0  0  0  0  0  0  0  0  0  0
    7.5947    1.3153    0.0000 H   0  0  0  0  0  0  0  0  0  0  0  0
    6.7976    1.3153    0.0000 H   0  0  0  0  0  0  0  0  0  0  0  0
    9.3267    1.3153    0.0000 H   0  0  0  0  0  0  0  0  0  0  0  0
    8.5297    1.3153    0.0000 H   0  0  0  0  0  0  0  0  0  0  0  0
    7.6636   -0.1346    0.0000 H   0  0  0  0  0  0  0  0  0  0  0  0
    8.4607   -0.1346    0.0000 H   0  0  0  0  0  0  0  0  0  0  0  0
   13.6323   -1.8404    0.0000 H   0  0  0  0  0  0  0  0  0  0  0  0
    4.1306    1.3153    0.0000 H   0  0  0  0  0  0  0  0  0  0  0  0
    3.3335    1.3153    0.0000 H   0  0  0  0  0  0  0  0  0  0  0  0
    2.8660    0.9603    0.0000 H   0  0  0  0  0  0  0  0  0  0  0  0
   11.5228    3.1809    0.0000 H   0  0  0  0  0  0  0  0  0  0  0  0
   14.2675    2.5975    0.0000 H   0  0  0  0  0  0  0  0  0  0  0  0
    2.3100    1.3773    0.0000 H   0  0  0  0  0  0  0  0  0  0  0  0
    1.4631    1.1503    0.0000 H   0  0  0  0  0  0  0  0  0  0  0  0
    1.6900    0.3034    0.0000 H   0  0  0  0  0  0  0  0  0  0  0  0
    2.2460   -0.6597    0.0000 H   0  0  0  0  0  0  0  0  0  0  0  0
    2.8660   -1.2797    0.0000 H   0  0  0  0  0  0  0  0  0  0  0  0
    3.4860   -0.6597    0.0000 H   0  0  0  0  0  0  0  0  0  0  0  0
   11.8597    4.7655    0.0000 H   0  0  0  0  0  0  0  0  0  0  0  0
   14.6043    4.1821    0.0000 H   0  0  0  0  0  0  0  0  0  0  0  0
   13.4004    5.2661    0.0000 H   0  0  0  0  0  0  0  0  0  0  0  0
    3.1951   -1.8497    0.0000 H   0  0  0  0  0  0  0  0  0  0  0  0
    6.0010   -1.8497    0.0000 H   0  0  0  0  0  0  0  0  0  0  0  0
    6.3301    2.9603    0.0000 H   0  0  0  0  0  0  0  0  0  0  0  0
    3.1951   -3.4697    0.0000 H   0  0  0  0  0  0  0  0  0  0  0  0
    6.0010   -3.4697    0.0000 H   0  0  0  0  0  0  0  0  0  0  0  0
    3.9781   -4.6597    0.0000 H   0  0  0  0  0  0  0  0  0  0  0  0
    4.5981   -5.2797    0.0000 H   0  0  0  0  0  0  0  0  0  0  0  0
    5.2181   -4.6597    0.0000 H   0  0  0  0  0  0  0  0  0  0  0  0
  1  4  2  0  0  0  0
  1  5  2  0  0  0  0
  1 11  1  0  0  0  0
  1 23  1  0  0  0  0
  2  7  2  0  0  0  0
  2  8  2  0  0  0  0
  2 13  1  0  0  0  0
  2 30  1  0  0  0  0
 16  3  1  6  0  0  0
  3 58  1  0  0  0  0
  6 18  2  0  0  0  0
  9 29  1  0  0  0  0
  9 75  1  0  0  0  0
 10 29  2  0  0  0  0
 11 14  1  0  0  0  0
 11 17  1  0  0  0  0
 12 18  1  0  0  0  0
 12 21  1  0  0  0  0
 12 49  1  0  0  0  0
 19 13  1  6  0  0  0
 13 25  1  0  0  0  0
 14 15  1  0  0  0  0
 14 18  1  1  0  0  0
 14 42  1  0  0  0  0
 15 16  1  0  0  0  0
 15 43  1  0  0  0  0
 15 44  1  0  0  0  0
 16 17  1  0  0  0  0
 16 45  1  0  0  0  0
 17 46  1  0  0  0  0
 17 47  1  0  0  0  0
 19 20  1  0  0  0  0
 19 29  1  0  0  0  0
 19 48  1  0  0  0  0
 20 22  1  0  0  0  0
 20 50  1  0  0  0  0
 20 51  1  0  0  0  0
 21 24  1  0  0  0  0
 21 54  1  0  0  0  0
 21 55  1  0  0  0  0
 22 24  1  0  0  0  0
 22 52  1  0  0  0  0
 22 53  1  0  0  0  0
 23 27  2  0  0  0  0
 23 28  1  0  0  0  0
 24 56  1  0  0  0  0
 24 57  1  0  0  0  0
 25 26  1  0  0  0  0
 25 59  1  0  0  0  0
 25 60  1  0  0  0  0
 26 31  1  0  0  0  0
 26 32  1  0  0  0  0
 26 61  1  0  0  0  0
 27 33  1  0  0  0  0
 27 62  1  0  0  0  0
 28 34  2  0  0  0  0
 28 63  1  0  0  0  0
 30 36  2  0  0  0  0
 30 37  1  0  0  0  0
 31 64  1  0  0  0  0
 31 65  1  0  0  0  0
 31 66  1  0  0  0  0
 32 67  1  0  0  0  0
 32 68  1  0  0  0  0
 32 69  1  0  0  0  0
 33 35  2  0  0  0  0
 33 70  1  0  0  0  0
 34 35  1  0  0  0  0
 34 71  1  0  0  0  0
 35 72  1  0  0  0  0
 36 38  1  0  0  0  0
 36 73  1  0  0  0  0
 37 39  2  0  0  0  0
 37 74  1  0  0  0  0
 38 40  2  0  0  0  0
 38 76  1  0  0  0  0
 39 40  1  0  0  0  0
 39 77  1  0  0  0  0
 40 41  1  0  0  0  0
 41 78  1  0  0  0  0
 41 79  1  0  0  0  0
 41 80  1  0  0  0  0
M  END
> <PUBCHEM_COMPOUND_CID>
508540
> <PUBCHEM_COMPOUND_CANONICALIZED>
1
> <PUBCHEM_CACTVS_COMPLEXITY>
1070
> <PUBCHEM_CACTVS_HBOND_ACCEPTOR>
10
> <PUBCHEM_CACTVS_HBOND_DONOR>
3
> <PUBCHEM_CACTVS_ROTATABLE_BOND>
14
> <PUBCHEM_CACTVS_SUBSKEYS>
AAADcfB7PABgAAAAAAAAAAAAAAAAAWAAAAAwYAAAAAAAAAABQAAAHgQQSAAADTzh2AYyCYLAAgKIAiHSGHBCABAgAAAIiJmIAIgKcDKAkTCUYAAmlgCYiAe6yQAOEAAAAAAAAAAgAAAAAAAAAAAAAAAAAA==
> <PUBCHEM_IUPAC_OPENEYE_NAME>
(2S)-6-[[(2S,4R)-1-(benzenesulfonyl)-4-hydroxy-pyrrolidine-2-carbonyl]amino]-2-[isobutyl(p-tolylsulfonyl)amino]hexanoic acid
> <PUBCHEM_IUPAC_CAS_NAME>
(2S)-6-[[[(2S,4R)-1-(benzenesulfonyl)-4-hydroxy-2-pyrrolidinyl]-oxomethyl]amino]-2-[(4-methylphenyl)sulfonyl-(2-methylpropyl)amino]hexanoic acid
> <PUBCHEM_IUPAC_NAME_MARKUP>
(2<I>S</I>)-6-[[(2<I>S</I>,4<I>R</I>)-1-(benzenesulfonyl)-4-hydroxypyrrolidine-2-carbonyl]amino]-2-[(4-methylphenyl)sulfonyl-(2-methylpropyl)amino]hexanoic acid
> <PUBCHEM_IUPAC_NAME>
(2S)-6-[[(2S,4R)-1-(benzenesulfonyl)-4-hydroxypyrrolidine-2-carbonyl]amino]-2-[(4-methylphenyl)sulfonyl-(2-methylpropyl)amino]hexanoic acid
> <PUBCHEM_IUPAC_SYSTEMATIC_NAME>
(2S)-2-[(4-methylphenyl)sulfonyl-(2-methylpropyl)amino]-6-[[(2S,4R)-4-oxidanyl-1-(phenylsulfonyl)pyrrolidin-2-yl]carbonylamino]hexanoic acid
> <PUBCHEM_IUPAC_TRADITIONAL_NAME>
(2S)-6-[[(2S,4R)-1-besyl-4-hydroxy-prolyl]amino]-2-[isobutyl(tosyl)amino]hexanoic acid
> <PUBCHEM_IUPAC_INCHI>
InChI=1S/C28H39N3O8S2/c1-20(2)18-30(41(38,39)24-14-12-21(3)13-15-24)25(28(34)35)11-7-8-16-29-27(33)26-17-22(32)19-31(26)40(36,37)23-9-5-4-6-10-23/h4-6,9-10,12-15,20,22,25-26,32H,7-8,11,16-19H2,1-3H3,(H,29,33)(H,34,35)/t22-,25+,26+/m1/s1
> <PUBCHEM_IUPAC_INCHIKEY>
YAKJBZJXQSRHOD-RZFJZAQRSA-N
> <PUBCHEM_XLOGP3_AA>
3.2
> <PUBCHEM_EXACT_MASS>
609.21785756
> <PUBCHEM_MOLECULAR_FORMULA>
C28H39N3O8S2
> <PUBCHEM_MOLECULAR_WEIGHT>
609.8
> <PUBCHEM_OPENEYE_CAN_SMILES>
CC1=CC=C(C=C1)S(=O)(=O)N(CC(C)C)C(CCCCNC(=O)C2CC(CN2S(=O)(=O)C3=CC=CC=C3)O)C(=O)O
> <PUBCHEM_OPENEYE_ISO_SMILES>
CC1=CC=C(C=C1)S(=O)(=O)N(CC(C)C)[C@@H](CCCCNC(=O)[C@@H]2C[C@H](CN2S(=O)(=O)C3=CC=CC=C3)O)C(=O)O
> <PUBCHEM_CACTVS_TPSA>
178
> <PUBCHEM_MONOISOTOPIC_WEIGHT>
609.21785756
> <PUBCHEM_TOTAL_CHARGE>
0
> <PUBCHEM_HEAVY_ATOM_COUNT>
41
> <PUBCHEM_ATOM_DEF_STEREO_COUNT>
3
> <PUBCHEM_ATOM_UDEF_STEREO_COUNT>
0
> <PUBCHEM_BOND_DEF_STEREO_COUNT>
0
> <PUBCHEM_BOND_UDEF_STEREO_COUNT>
0
> <PUBCHEM_ISOTOPIC_ATOM_COUNT>
0
> <PUBCHEM_COMPONENT_COUNT>
1
> <PUBCHEM_CACTVS_TAUTO_COUNT>
-1
> <PUBCHEM_COORDINATE_TYPE>
1
5
255
> <PUBCHEM_BONDANNOTATIONS>
19  13  6
14  18  5
23  27  8
23  28  8
27  33  8
28  34  8
16  3  6
30  36  8
30  37  8
33  35  8
34  35  8
36  38  8
37  39  8
38  40  8
39  40  8
$$$$
