508559
  -OEChem-10302200282D
 90 93  0     1  0  0  0  0  0999 V2000
   10.5895    5.4118    0.0000 S   0  0  0  0  0  0  0  0  0  0  0  0
    5.3934   -3.5882    0.0000 O   0  0  0  0  0  0  0  0  0  0  0  0
   10.0895    6.2778    0.0000 O   0  0  0  0  0  0  0  0  0  0  0  0
   11.0895    4.5458    0.0000 O   0  0  0  0  0  0  0  0  0  0  0  0
   10.5895    2.4118    0.0000 O   0  0  0  0  0  0  0  0  0  0  0  0
   11.4556    3.9118    0.0000 O   0  0  0  0  0  0  0  0  0  0  0  0
    7.9915   -1.0882    0.0000 O   0  0  0  0  0  0  0  0  0  0  0  0
    4.5274   -2.0882    0.0000 O   0  0  0  0  0  0  0  0  0  0  0  0
    5.3934    0.4118    0.0000 O   0  0  0  0  0  0  0  0  0  0  0  0
    9.7235    4.9118    0.0000 N   0  0  3  0  0  0  0  0  0  0  0  0
    7.1254    0.4118    0.0000 N   0  0  0  0  0  0  0  0  0  0  0  0
    6.2594   -2.0882    0.0000 N   0  0  0  0  0  0  0  0  0  0  0  0
    9.7235    3.9118    0.0000 C   0  0  1  0  0  0  0  0  0  0  0  0
    8.8575    3.4118    0.0000 C   0  0  0  0  0  0  0  0  0  0  0  0
    8.8575    5.4118    0.0000 C   0  0  0  0  0  0  0  0  0  0  0  0
    4.5274   -5.0882    0.0000 C   0  0  0  0  0  0  0  0  0  0  0  0
    7.9915    4.9118    0.0000 C   0  0  0  0  0  0  0  0  0  0  0  0
    8.8575    2.4118    0.0000 C   0  0  0  0  0  0  0  0  0  0  0  0
    5.3364   -5.6760    0.0000 C   0  0  0  0  0  0  0  0  0  0  0  0
    3.7183   -5.6760    0.0000 C   0  0  0  0  0  0  0  0  0  0  0  0
    5.0274   -6.6270    0.0000 C   0  0  0  0  0  0  0  0  0  0  0  0
    4.0274   -6.6270    0.0000 C   0  0  0  0  0  0  0  0  0  0  0  0
    7.9915    1.9118    0.0000 C   0  0  0  0  0  0  0  0  0  0  0  0
    4.5274   -4.0882    0.0000 C   0  0  0  0  0  0  0  0  0  0  0  0
   10.5895    3.4118    0.0000 C   0  0  0  0  0  0  0  0  0  0  0  0
    7.1254    5.4118    0.0000 C   0  0  0  0  0  0  0  0  0  0  0  0
    7.9915    3.9118    0.0000 C   0  0  0  0  0  0  0  0  0  0  0  0
   11.4556    5.9118    0.0000 C   0  0  0  0  0  0  0  0  0  0  0  0
    7.9915    0.9118    0.0000 C   0  0  0  0  0  0  0  0  0  0  0  0
    6.3518   -5.4438    0.0000 C   0  0  0  0  0  0  0  0  0  0  0  0
    2.7029   -5.4438    0.0000 C   0  0  0  0  0  0  0  0  0  0  0  0
    5.7123   -7.4118    0.0000 C   0  0  0  0  0  0  0  0  0  0  0  0
    3.3424   -7.4118    0.0000 C   0  0  0  0  0  0  0  0  0  0  0  0
    7.0547   -6.2124    0.0000 C   0  0  0  0  0  0  0  0  0  0  0  0
    2.0000   -6.2124    0.0000 C   0  0  0  0  0  0  0  0  0  0  0  0
   12.3216    5.4118    0.0000 C   0  0  0  0  0  0  0  0  0  0  0  0
   11.4556    6.9118    0.0000 C   0  0  0  0  0  0  0  0  0  0  0  0
    6.7328   -7.2031    0.0000 C   0  0  0  0  0  0  0  0  0  0  0  0
    2.3219   -7.2031    0.0000 C   0  0  0  0  0  0  0  0  0  0  0  0
    6.2594   -1.0882    0.0000 C   0  0  2  0  0  0  0  0  0  0  0  0
    7.1254   -0.5882    0.0000 C   0  0  0  0  0  0  0  0  0  0  0  0
   13.1876    5.9118    0.0000 C   0  0  0  0  0  0  0  0  0  0  0  0
   12.3216    7.4118    0.0000 C   0  0  0  0  0  0  0  0  0  0  0  0
   13.1876    6.9118    0.0000 C   0  0  0  0  0  0  0  0  0  0  0  0
    5.3934   -2.5882    0.0000 C   0  0  0  0  0  0  0  0  0  0  0  0
    5.3934   -0.5882    0.0000 C   0  0  0  0  0  0  0  0  0  0  0  0
   14.0536    7.4118    0.0000 C   0  0  0  0  0  0  0  0  0  0  0  0
    9.1866    4.2218    0.0000 H   0  0  0  0  0  0  0  0  0  0  0  0
    8.6454    3.9944    0.0000 H   0  0  0  0  0  0  0  0  0  0  0  0
    8.2469    3.3041    0.0000 H   0  0  0  0  0  0  0  0  0  0  0  0
    9.2560    5.8867    0.0000 H   0  0  0  0  0  0  0  0  0  0  0  0
    8.4590    5.8867    0.0000 H   0  0  0  0  0  0  0  0  0  0  0  0
    5.0798   -4.8067    0.0000 H   0  0  0  0  0  0  0  0  0  0  0  0
    7.9915    5.5318    0.0000 H   0  0  0  0  0  0  0  0  0  0  0  0
    9.0695    1.8292    0.0000 H   0  0  0  0  0  0  0  0  0  0  0  0
    9.4681    2.5194    0.0000 H   0  0  0  0  0  0  0  0  0  0  0  0
    7.7794    2.4944    0.0000 H   0  0  0  0  0  0  0  0  0  0  0  0
    7.3809    1.8041    0.0000 H   0  0  0  0  0  0  0  0  0  0  0  0
    4.3153   -3.5056    0.0000 H   0  0  0  0  0  0  0  0  0  0  0  0
    3.9168   -4.1959    0.0000 H   0  0  0  0  0  0  0  0  0  0  0  0
    7.4354    5.9487    0.0000 H   0  0  0  0  0  0  0  0  0  0  0  0
    6.5885    5.7218    0.0000 H   0  0  0  0  0  0  0  0  0  0  0  0
    6.8154    4.8748    0.0000 H   0  0  0  0  0  0  0  0  0  0  0  0
    7.3715    3.9118    0.0000 H   0  0  0  0  0  0  0  0  0  0  0  0
    7.9915    3.2918    0.0000 H   0  0  0  0  0  0  0  0  0  0  0  0
    8.6115    3.9118    0.0000 H   0  0  0  0  0  0  0  0  0  0  0  0
    8.2035    0.3292    0.0000 H   0  0  0  0  0  0  0  0  0  0  0  0
    8.6020    1.0194    0.0000 H   0  0  0  0  0  0  0  0  0  0  0  0
    6.5365   -4.8519    0.0000 H   0  0  0  0  0  0  0  0  0  0  0  0
    2.5182   -4.8519    0.0000 H   0  0  0  0  0  0  0  0  0  0  0  0
    5.5139   -7.9992    0.0000 H   0  0  0  0  0  0  0  0  0  0  0  0
    3.5408   -7.9992    0.0000 H   0  0  0  0  0  0  0  0  0  0  0  0
    7.6607   -6.0812    0.0000 H   0  0  0  0  0  0  0  0  0  0  0  0
    1.3940   -6.0812    0.0000 H   0  0  0  0  0  0  0  0  0  0  0  0
   12.3216    4.7918    0.0000 H   0  0  0  0  0  0  0  0  0  0  0  0
   10.9186    7.2218    0.0000 H   0  0  0  0  0  0  0  0  0  0  0  0
    7.1459   -7.6654    0.0000 H   0  0  0  0  0  0  0  0  0  0  0  0
    1.9088   -7.6654    0.0000 H   0  0  0  0  0  0  0  0  0  0  0  0
    6.5885    0.7218    0.0000 H   0  0  0  0  0  0  0  0  0  0  0  0
    6.7964   -1.3982    0.0000 H   0  0  0  0  0  0  0  0  0  0  0  0
   11.1265    2.1018    0.0000 H   0  0  0  0  0  0  0  0  0  0  0  0
   13.7245    5.6018    0.0000 H   0  0  0  0  0  0  0  0  0  0  0  0
   12.3216    8.0318    0.0000 H   0  0  0  0  0  0  0  0  0  0  0  0
    6.7964   -2.3982    0.0000 H   0  0  0  0  0  0  0  0  0  0  0  0
    4.7828   -0.4805    0.0000 H   0  0  0  0  0  0  0  0  0  0  0  0
    5.1813   -1.1708    0.0000 H   0  0  0  0  0  0  0  0  0  0  0  0
   14.3636    6.8748    0.0000 H   0  0  0  0  0  0  0  0  0  0  0  0
   14.5906    7.7218    0.0000 H   0  0  0  0  0  0  0  0  0  0  0  0
   13.7436    7.9487    0.0000 H   0  0  0  0  0  0  0  0  0  0  0  0
    4.8564    0.7218    0.0000 H   0  0  0  0  0  0  0  0  0  0  0  0
  1  3  2  0  0  0  0
  1  4  2  0  0  0  0
  1 10  1  0  0  0  0
  1 28  1  0  0  0  0
  2 24  1  0  0  0  0
  2 45  1  0  0  0  0
  5 25  1  0  0  0  0
  5 81  1  0  0  0  0
  6 25  2  0  0  0  0
  7 41  2  0  0  0  0
  8 45  2  0  0  0  0
  9 46  1  0  0  0  0
  9 90  1  0  0  0  0
 13 10  1  6  0  0  0
 10 15  1  0  0  0  0
 11 29  1  0  0  0  0
 11 41  1  0  0  0  0
 11 79  1  0  0  0  0
 40 12  1  1  0  0  0
 12 45  1  0  0  0  0
 12 84  1  0  0  0  0
 13 14  1  0  0  0  0
 13 25  1  0  0  0  0
 13 48  1  0  0  0  0
 14 18  1  0  0  0  0
 14 49  1  0  0  0  0
 14 50  1  0  0  0  0
 15 17  1  0  0  0  0
 15 51  1  0  0  0  0
 15 52  1  0  0  0  0
 16 19  1  0  0  0  0
 16 20  1  0  0  0  0
 16 24  1  0  0  0  0
 16 53  1  0  0  0  0
 17 26  1  0  0  0  0
 17 27  1  0  0  0  0
 17 54  1  0  0  0  0
 18 23  1  0  0  0  0
 18 55  1  0  0  0  0
 18 56  1  0  0  0  0
 19 21  1  0  0  0  0
 19 30  2  0  0  0  0
 20 22  1  0  0  0  0
 20 31  2  0  0  0  0
 21 22  1  0  0  0  0
 21 32  2  0  0  0  0
 22 33  2  0  0  0  0
 23 29  1  0  0  0  0
 23 57  1  0  0  0  0
 23 58  1  0  0  0  0
 24 59  1  0  0  0  0
 24 60  1  0  0  0  0
 26 61  1  0  0  0  0
 26 62  1  0  0  0  0
 26 63  1  0  0  0  0
 27 64  1  0  0  0  0
 27 65  1  0  0  0  0
 27 66  1  0  0  0  0
 28 36  2  0  0  0  0
 28 37  1  0  0  0  0
 29 67  1  0  0  0  0
 29 68  1  0  0  0  0
 30 34  1  0  0  0  0
 30 69  1  0  0  0  0
 31 35  1  0  0  0  0
 31 70  1  0  0  0  0
 32 38  1  0  0  0  0
 32 71  1  0  0  0  0
 33 39  1  0  0  0  0
 33 72  1  0  0  0  0
 34 38  2  0  0  0  0
 34 73  1  0  0  0  0
 35 39  2  0  0  0  0
 35 74  1  0  0  0  0
 36 42  1  0  0  0  0
 36 75  1  0  0  0  0
 37 43  2  0  0  0  0
 37 76  1  0  0  0  0
 38 77  1  0  0  0  0
 39 78  1  0  0  0  0
 40 41  1  0  0  0  0
 40 46  1  0  0  0  0
 40 80  1  0  0  0  0
 42 44  2  0  0  0  0
 42 82  1  0  0  0  0
 43 44  1  0  0  0  0
 43 83  1  0  0  0  0
 44 47  1  0  0  0  0
 46 85  1  0  0  0  0
 46 86  1  0  0  0  0
 47 87  1  0  0  0  0
 47 88  1  0  0  0  0
 47 89  1  0  0  0  0
M  END
> <PUBCHEM_COMPOUND_CID>
508559
> <PUBCHEM_COMPOUND_CANONICALIZED>
1
> <PUBCHEM_CACTVS_COMPLEXITY>
1110
> <PUBCHEM_CACTVS_HBOND_ACCEPTOR>
9
> <PUBCHEM_CACTVS_HBOND_DONOR>
4
> <PUBCHEM_CACTVS_ROTATABLE_BOND>
17
> <PUBCHEM_CACTVS_SUBSKEYS>
AAADcfB/PABAAAAAAAAAAAAAAAAAAYAAAAAwYMAAAAAAAGABUAAAHgQQSAAADSjh2AYyCYLABgKIAiHSGHBCABAgAAAIiJmIAIkKcDaAkTCcYAAm9gGYiAeYyPAOkAAAAAAQAAAgAAAAACAAAQAACAAAAA==
> <PUBCHEM_IUPAC_OPENEYE_NAME>
(2S)-6-[[(2S)-2-(9H-fluoren-9-ylmethoxycarbonylamino)-3-hydroxy-propanoyl]amino]-2-[isobutyl(p-tolylsulfonyl)amino]hexanoic acid
> <PUBCHEM_IUPAC_CAS_NAME>
(2S)-6-[[(2S)-2-[[9H-fluoren-9-ylmethoxy(oxo)methyl]amino]-3-hydroxy-1-oxopropyl]amino]-2-[(4-methylphenyl)sulfonyl-(2-methylpropyl)amino]hexanoic acid
> <PUBCHEM_IUPAC_NAME_MARKUP>
(2<I>S</I>)-6-[[(2<I>S</I>)-2-(9<I>H</I>-fluoren-9-ylmethoxycarbonylamino)-3-hydroxypropanoyl]amino]-2-[(4-methylphenyl)sulfonyl-(2-methylpropyl)amino]hexanoic acid
> <PUBCHEM_IUPAC_NAME>
(2S)-6-[[(2S)-2-(9H-fluoren-9-ylmethoxycarbonylamino)-3-hydroxypropanoyl]amino]-2-[(4-methylphenyl)sulfonyl-(2-methylpropyl)amino]hexanoic acid
> <PUBCHEM_IUPAC_SYSTEMATIC_NAME>
(2S)-6-[[(2S)-2-(9H-fluoren-9-ylmethoxycarbonylamino)-3-oxidanyl-propanoyl]amino]-2-[(4-methylphenyl)sulfonyl-(2-methylpropyl)amino]hexanoic acid
> <PUBCHEM_IUPAC_TRADITIONAL_NAME>
(2S)-6-[[(2S)-2-(9H-fluoren-9-ylmethoxycarbonylamino)-3-hydroxy-propanoyl]amino]-2-[isobutyl(tosyl)amino]hexanoic acid
> <PUBCHEM_IUPAC_INCHI>
InChI=1S/C35H43N3O8S/c1-23(2)20-38(47(44,45)25-17-15-24(3)16-18-25)32(34(41)42)14-8-9-19-36-33(40)31(21-39)37-35(43)46-22-30-28-12-6-4-10-26(28)27-11-5-7-13-29(27)30/h4-7,10-13,15-18,23,30-32,39H,8-9,14,19-22H2,1-3H3,(H,36,40)(H,37,43)(H,41,42)/t31-,32-/m0/s1
> <PUBCHEM_IUPAC_INCHIKEY>
BKOHKPJPRIERHR-ACHIHNKUSA-N
> <PUBCHEM_XLOGP3_AA>
5
> <PUBCHEM_EXACT_MASS>
665.27708651
> <PUBCHEM_MOLECULAR_FORMULA>
C35H43N3O8S
> <PUBCHEM_MOLECULAR_WEIGHT>
665.8
> <PUBCHEM_OPENEYE_CAN_SMILES>
CC1=CC=C(C=C1)S(=O)(=O)N(CC(C)C)C(CCCCNC(=O)C(CO)NC(=O)OCC2C3=CC=CC=C3C4=CC=CC=C24)C(=O)O
> <PUBCHEM_OPENEYE_ISO_SMILES>
CC1=CC=C(C=C1)S(=O)(=O)N(CC(C)C)[C@@H](CCCCNC(=O)[C@H](CO)NC(=O)OCC2C3=CC=CC=C3C4=CC=CC=C24)C(=O)O
> <PUBCHEM_CACTVS_TPSA>
171
> <PUBCHEM_MONOISOTOPIC_WEIGHT>
665.27708651
> <PUBCHEM_TOTAL_CHARGE>
0
> <PUBCHEM_HEAVY_ATOM_COUNT>
47
> <PUBCHEM_ATOM_DEF_STEREO_COUNT>
2
> <PUBCHEM_ATOM_UDEF_STEREO_COUNT>
0
> <PUBCHEM_BOND_DEF_STEREO_COUNT>
0
> <PUBCHEM_BOND_UDEF_STEREO_COUNT>
0
> <PUBCHEM_ISOTOPIC_ATOM_COUNT>
0
> <PUBCHEM_COMPONENT_COUNT>
1
> <PUBCHEM_CACTVS_TAUTO_COUNT>
-1
> <PUBCHEM_COORDINATE_TYPE>
1
5
255
> <PUBCHEM_BONDANNOTATIONS>
13  10  6
40  12  5
19  21  8
19  30  8
20  22  8
20  31  8
21  32  8
22  33  8
28  36  8
28  37  8
30  34  8
31  35  8
32  38  8
33  39  8
34  38  8
35  39  8
36  42  8
37  43  8
42  44  8
43  44  8
$$$$
