508509
  -OEChem-10302200282D
106106  0     1  0  0  0  0  0999 V2000
    9.0223    1.9125    0.0000 O   0  0  0  0  0  0  0  0  0  0  0  0
   10.7016   -1.1362    0.0000 O   0  0  0  0  0  0  0  0  0  0  0  0
    8.0984   -3.9640    0.0000 O   0  0  0  0  0  0  0  0  0  0  0  0
    4.3073   -3.3313    0.0000 O   0  0  0  0  0  0  0  0  0  0  0  0
    8.7091    3.4062    0.0000 O   0  0  0  0  0  0  0  0  0  0  0  0
    2.6010   -2.0984    0.0000 O   0  0  0  0  0  0  0  0  0  0  0  0
    2.7634    0.1885    0.0000 O   0  0  0  0  0  0  0  0  0  0  0  0
    2.8623    2.2912    0.0000 O   0  0  0  0  0  0  0  0  0  0  0  0
    4.8656    3.4062    0.0000 O   0  0  0  0  0  0  0  0  0  0  0  0
    9.3305   -1.8065    0.0000 N   0  0  0  0  0  0  0  0  0  0  0  0
    6.7873   -3.1827    0.0000 N   0  0  0  0  0  0  0  0  0  0  0  0
    4.2442   -1.8065    0.0000 N   0  0  0  0  0  0  0  0  0  0  0  0
    4.0054    1.0753    0.0000 N   0  0  0  0  0  0  0  0  0  0  0  0
    6.2873    2.8514    0.0000 N   0  0  0  0  0  0  0  0  0  0  0  0
    8.6532   -2.5422    0.0000 C   0  0  1  0  0  0  0  0  0  0  0  0
    9.8147    0.1059    0.0000 C   0  0  2  0  0  0  0  0  0  0  0  0
    9.5692    1.0753    0.0000 C   0  0  1  0  0  0  0  0  0  0  0  0
    9.2674   -3.3313    0.0000 C   0  0  0  0  0  0  0  0  0  0  0  0
   10.4850    1.4770    0.0000 C   0  0  0  0  0  0  0  0  0  0  0  0
    5.8010   -3.0181    0.0000 C   0  0  1  0  0  0  0  0  0  0  0  0
   10.1939   -3.7076    0.0000 C   0  0  0  0  0  0  0  0  0  0  0  0
    9.7322   -0.8907    0.0000 C   0  0  0  0  0  0  0  0  0  0  0  0
    5.4763   -3.9640    0.0000 C   0  0  1  0  0  0  0  0  0  0  0  0
   10.5950    2.4709    0.0000 C   0  0  0  0  0  0  0  0  0  0  0  0
    7.7737   -3.0181    0.0000 C   0  0  0  0  0  0  0  0  0  0  0  0
   11.5108    2.8726    0.0000 C   0  0  0  0  0  0  0  0  0  0  0  0
   10.8113    0.1885    0.0000 C   0  0  0  0  0  0  0  0  0  0  0  0
    6.1330   -4.7180    0.0000 C   0  0  0  0  0  0  0  0  0  0  0  0
   10.1676   -2.3534    0.0000 C   0  0  0  0  0  0  0  0  0  0  0  0
   11.6208    3.8666    0.0000 C   0  0  0  0  0  0  0  0  0  0  0  0
   10.3312   -4.6982    0.0000 C   0  0  0  0  0  0  0  0  0  0  0  0
   10.9830   -3.0934    0.0000 C   0  0  0  0  0  0  0  0  0  0  0  0
    4.9215   -2.5422    0.0000 C   0  0  0  0  0  0  0  0  0  0  0  0
    4.4948   -4.1557    0.0000 C   0  0  0  0  0  0  0  0  0  0  0  0
   12.5366    4.2682    0.0000 C   0  0  0  0  0  0  0  0  0  0  0  0
    5.8083   -5.6639    0.0000 C   0  0  0  0  0  0  0  0  0  0  0  0
    3.8425   -0.8907    0.0000 C   0  0  1  0  0  0  0  0  0  0  0  0
    8.2332    2.5267    0.0000 C   0  0  0  0  0  0  0  0  0  0  0  0
   12.6466    5.2622    0.0000 C   0  0  0  0  0  0  0  0  0  0  0  0
    7.2873    2.8514    0.0000 C   0  0  0  0  0  0  0  0  0  0  0  0
    4.5524    1.9125    0.0000 C   0  0  2  0  0  0  0  0  0  0  0  0
    3.7600    0.1059    0.0000 C   0  0  0  0  0  0  0  0  0  0  0  0
    2.8731   -1.1362    0.0000 C   0  0  0  0  0  0  0  0  0  0  0  0
    3.8167    2.5898    0.0000 C   0  0  2  0  0  0  0  0  0  0  0  0
   13.5624    5.6639    0.0000 C   0  0  0  0  0  0  0  0  0  0  0  0
    5.3415    2.5267    0.0000 C   0  0  0  0  0  0  0  0  0  0  0  0
    4.0353    3.5655    0.0000 C   0  0  0  0  0  0  0  0  0  0  0  0
    9.2726   -2.5678    0.0000 H   0  0  0  0  0  0  0  0  0  0  0  0
   10.2531   -0.3325    0.0000 H   0  0  0  0  0  0  0  0  0  0  0  0
    9.7462    1.6695    0.0000 H   0  0  0  0  0  0  0  0  0  0  0  0
    8.6774   -3.5218    0.0000 H   0  0  0  0  0  0  0  0  0  0  0  0
    9.6414   -2.8369    0.0000 H   0  0  0  0  0  0  0  0  0  0  0  0
   10.6317    0.8746    0.0000 H   0  0  0  0  0  0  0  0  0  0  0  0
   11.1037    1.5168    0.0000 H   0  0  0  0  0  0  0  0  0  0  0  0
    6.2361   -3.7483    0.0000 H   0  0  0  0  0  0  0  0  0  0  0  0
    9.7046   -4.0884    0.0000 H   0  0  0  0  0  0  0  0  0  0  0  0
    5.2750   -4.5504    0.0000 H   0  0  0  0  0  0  0  0  0  0  0  0
   10.4484    3.0733    0.0000 H   0  0  0  0  0  0  0  0  0  0  0  0
    9.9763    2.4311    0.0000 H   0  0  0  0  0  0  0  0  0  0  0  0
    6.7873   -3.8027    0.0000 H   0  0  0  0  0  0  0  0  0  0  0  0
   11.6575    2.2702    0.0000 H   0  0  0  0  0  0  0  0  0  0  0  0
   12.1295    2.9125    0.0000 H   0  0  0  0  0  0  0  0  0  0  0  0
   10.8625   -0.4294    0.0000 H   0  0  0  0  0  0  0  0  0  0  0  0
   11.4292    0.2397    0.0000 H   0  0  0  0  0  0  0  0  0  0  0  0
   10.7601    0.8064    0.0000 H   0  0  0  0  0  0  0  0  0  0  0  0
    6.6756   -5.0181    0.0000 H   0  0  0  0  0  0  0  0  0  0  0  0
    6.5228   -4.2359    0.0000 H   0  0  0  0  0  0  0  0  0  0  0  0
    9.8285   -2.8724    0.0000 H   0  0  0  0  0  0  0  0  0  0  0  0
   10.6867   -2.6925    0.0000 H   0  0  0  0  0  0  0  0  0  0  0  0
   10.5067   -1.8344    0.0000 H   0  0  0  0  0  0  0  0  0  0  0  0
   11.4741    4.4690    0.0000 H   0  0  0  0  0  0  0  0  0  0  0  0
   11.0021    3.8267    0.0000 H   0  0  0  0  0  0  0  0  0  0  0  0
    9.7171   -4.7833    0.0000 H   0  0  0  0  0  0  0  0  0  0  0  0
   10.4164   -5.3123    0.0000 H   0  0  0  0  0  0  0  0  0  0  0  0
   10.9454   -4.6130    0.0000 H   0  0  0  0  0  0  0  0  0  0  0  0
   11.3638   -3.5827    0.0000 H   0  0  0  0  0  0  0  0  0  0  0  0
   11.4723   -2.7126    0.0000 H   0  0  0  0  0  0  0  0  0  0  0  0
   10.6022   -2.6042    0.0000 H   0  0  0  0  0  0  0  0  0  0  0  0
    4.3760   -3.5472    0.0000 H   0  0  0  0  0  0  0  0  0  0  0  0
    3.8863   -4.2745    0.0000 H   0  0  0  0  0  0  0  0  0  0  0  0
    4.6137   -4.7642    0.0000 H   0  0  0  0  0  0  0  0  0  0  0  0
   12.6833    3.6658    0.0000 H   0  0  0  0  0  0  0  0  0  0  0  0
   13.1553    4.3081    0.0000 H   0  0  0  0  0  0  0  0  0  0  0  0
    3.7252   -2.1456    0.0000 H   0  0  0  0  0  0  0  0  0  0  0  0
    5.2219   -5.4626    0.0000 H   0  0  0  0  0  0  0  0  0  0  0  0
    5.6070   -6.2503    0.0000 H   0  0  0  0  0  0  0  0  0  0  0  0
    6.3947   -5.8652    0.0000 H   0  0  0  0  0  0  0  0  0  0  0  0
    3.5702   -1.4477    0.0000 H   0  0  0  0  0  0  0  0  0  0  0  0
   12.4999    5.8646    0.0000 H   0  0  0  0  0  0  0  0  0  0  0  0
   12.0279    5.2223    0.0000 H   0  0  0  0  0  0  0  0  0  0  0  0
    7.7073    3.3075    0.0000 H   0  0  0  0  0  0  0  0  0  0  0  0
    7.1853    2.2398    0.0000 H   0  0  0  0  0  0  0  0  0  0  0  0
    3.7089    1.8073    0.0000 H   0  0  0  0  0  0  0  0  0  0  0  0
    2.8276   -0.5178    0.0000 H   0  0  0  0  0  0  0  0  0  0  0  0
    2.2563   -1.0736    0.0000 H   0  0  0  0  0  0  0  0  0  0  0  0
    3.4377    1.3244    0.0000 H   0  0  0  0  0  0  0  0  0  0  0  0
    3.6811    1.9848    0.0000 H   0  0  0  0  0  0  0  0  0  0  0  0
   13.8114    5.0961    0.0000 H   0  0  0  0  0  0  0  0  0  0  0  0
   14.1301    5.9129    0.0000 H   0  0  0  0  0  0  0  0  0  0  0  0
   13.3133    6.2316    0.0000 H   0  0  0  0  0  0  0  0  0  0  0  0
    6.1853    3.4629    0.0000 H   0  0  0  0  0  0  0  0  0  0  0  0
    4.6403    3.4300    0.0000 H   0  0  0  0  0  0  0  0  0  0  0  0
    4.1709    4.1705    0.0000 H   0  0  0  0  0  0  0  0  0  0  0  0
    3.4304    3.7011    0.0000 H   0  0  0  0  0  0  0  0  0  0  0  0
    2.0000   -2.2506    0.0000 H   0  0  0  0  0  0  0  0  0  0  0  0
    2.4061    2.7112    0.0000 H   0  0  0  0  0  0  0  0  0  0  0  0
  1 17  1  0  0  0  0
  1 38  1  0  0  0  0
  2 22  2  0  0  0  0
  3 25  2  0  0  0  0
  4 33  2  0  0  0  0
  5 38  2  0  0  0  0
  6 43  1  0  0  0  0
  6105  1  0  0  0  0
  7 42  2  0  0  0  0
 44  8  1  1  0  0  0
  8106  1  0  0  0  0
  9 46  2  0  0  0  0
 10 15  1  0  0  0  0
 10 22  1  0  0  0  0
 10 29  1  0  0  0  0
 11 20  1  0  0  0  0
 11 25  1  0  0  0  0
 11 60  1  0  0  0  0
 12 33  1  0  0  0  0
 12 37  1  0  0  0  0
 12 84  1  0  0  0  0
 13 41  1  0  0  0  0
 13 42  1  0  0  0  0
 13 96  1  0  0  0  0
 14 40  1  0  0  0  0
 14 46  1  0  0  0  0
 14101  1  0  0  0  0
 15 18  1  1  0  0  0
 15 25  1  0  0  0  0
 15 48  1  0  0  0  0
 16 17  1  0  0  0  0
 16 22  1  0  0  0  0
 16 27  1  1  0  0  0
 16 49  1  0  0  0  0
 17 19  1  6  0  0  0
 17 50  1  0  0  0  0
 18 21  1  0  0  0  0
 18 51  1  0  0  0  0
 18 52  1  0  0  0  0
 19 24  1  0  0  0  0
 19 53  1  0  0  0  0
 19 54  1  0  0  0  0
 20 23  1  0  0  0  0
 20 33  1  0  0  0  0
 20 55  1  6  0  0  0
 21 31  1  0  0  0  0
 21 32  1  0  0  0  0
 21 56  1  0  0  0  0
 23 28  1  0  0  0  0
 23 34  1  1  0  0  0
 23 57  1  0  0  0  0
 24 26  1  0  0  0  0
 24 58  1  0  0  0  0
 24 59  1  0  0  0  0
 26 30  1  0  0  0  0
 26 61  1  0  0  0  0
 26 62  1  0  0  0  0
 27 63  1  0  0  0  0
 27 64  1  0  0  0  0
 27 65  1  0  0  0  0
 28 36  1  0  0  0  0
 28 66  1  0  0  0  0
 28 67  1  0  0  0  0
 29 68  1  0  0  0  0
 29 69  1  0  0  0  0
 29 70  1  0  0  0  0
 30 35  1  0  0  0  0
 30 71  1  0  0  0  0
 30 72  1  0  0  0  0
 31 73  1  0  0  0  0
 31 74  1  0  0  0  0
 31 75  1  0  0  0  0
 32 76  1  0  0  0  0
 32 77  1  0  0  0  0
 32 78  1  0  0  0  0
 34 79  1  0  0  0  0
 34 80  1  0  0  0  0
 34 81  1  0  0  0  0
 35 39  1  0  0  0  0
 35 82  1  0  0  0  0
 35 83  1  0  0  0  0
 36 85  1  0  0  0  0
 36 86  1  0  0  0  0
 36 87  1  0  0  0  0
 37 42  1  0  0  0  0
 37 43  1  6  0  0  0
 37 88  1  0  0  0  0
 38 40  1  0  0  0  0
 39 45  1  0  0  0  0
 39 89  1  0  0  0  0
 39 90  1  0  0  0  0
 40 91  1  0  0  0  0
 40 92  1  0  0  0  0
 41 44  1  0  0  0  0
 41 46  1  0  0  0  0
 41 93  1  1  0  0  0
 43 94  1  0  0  0  0
 43 95  1  0  0  0  0
 44 47  1  0  0  0  0
 44 97  1  0  0  0  0
 45 98  1  0  0  0  0
 45 99  1  0  0  0  0
 45100  1  0  0  0  0
 47102  1  0  0  0  0
 47103  1  0  0  0  0
 47104  1  0  0  0  0
M  END
> <PUBCHEM_COMPOUND_CID>
508509
> <PUBCHEM_COMPOUND_CANONICALIZED>
1
> <PUBCHEM_CACTVS_COMPLEXITY>
1060
> <PUBCHEM_CACTVS_HBOND_ACCEPTOR>
9
> <PUBCHEM_CACTVS_HBOND_DONOR>
6
> <PUBCHEM_CACTVS_ROTATABLE_BOND>
12
> <PUBCHEM_CACTVS_SUBSKEYS>
AAADcfB/vAAAAAAAAAAAAAAAAAAAAAAAAAAAAAAAAAAAAAAAAAAAHgAQCAAADTzhgAYCCAPABgAIAAGQGAAAAAAAAAAAAIGIAAACUBYAgCAXQAAGNgCQAAGYyOCOAAAAAAAAAAAAAAAAAAAAAAAAAAAAAA==
> <PUBCHEM_IUPAC_OPENEYE_NAME>
(6R,9R,12S,15S,18R,19R)-19-heptyl-6-[(1S)-1-hydroxyethyl]-9-(hydroxymethyl)-15-isobutyl-16,18-dimethyl-12-[(1R)-1-methylpropyl]-1-oxa-4,7,10,13,16-pentazacyclononadecane-2,5,8,11,14,17-hexone
> <PUBCHEM_IUPAC_CAS_NAME>
(6R,9R,12S,15S,18R,19R)-12-[(2R)-butan-2-yl]-19-heptyl-6-[(1S)-1-hydroxyethyl]-9-(hydroxymethyl)-16,18-dimethyl-15-(2-methylpropyl)-1-oxa-4,7,10,13,16-pentazacyclononadecane-2,5,8,11,14,17-hexone
> <PUBCHEM_IUPAC_NAME_MARKUP>
(6<I>R</I>,9<I>R</I>,12<I>S</I>,15<I>S</I>,18<I>R</I>,19<I>R</I>)-12-[(2<I>R</I>)-butan-2-yl]-19-heptyl-6-[(1<I>S</I>)-1-hydroxyethyl]-9-(hydroxymethyl)-16,18-dimethyl-15-(2-methylpropyl)-1-oxa-4,7,10,13,16-pentazacyclononadecane-2,5,8,11,14,17-hexone
> <PUBCHEM_IUPAC_NAME>
(6R,9R,12S,15S,18R,19R)-12-[(2R)-butan-2-yl]-19-heptyl-6-[(1S)-1-hydroxyethyl]-9-(hydroxymethyl)-16,18-dimethyl-15-(2-methylpropyl)-1-oxa-4,7,10,13,16-pentazacyclononadecane-2,5,8,11,14,17-hexone
> <PUBCHEM_IUPAC_SYSTEMATIC_NAME>
(6R,9R,12S,15S,18R,19R)-12-[(2R)-butan-2-yl]-19-heptyl-9-(hydroxymethyl)-16,18-dimethyl-15-(2-methylpropyl)-6-[(1S)-1-oxidanylethyl]-1-oxa-4,7,10,13,16-pentazacyclononadecane-2,5,8,11,14,17-hexone
> <PUBCHEM_IUPAC_TRADITIONAL_NAME>
(6R,9R,12S,15S,18R,19R)-19-heptyl-6-[(1S)-1-hydroxyethyl]-15-isobutyl-16,18-dimethyl-9-methylol-12-[(1R)-1-methylpropyl]-1-oxa-4,7,10,13,16-pentazacyclononadecane-2,5,8,11,14,17-triquinone
> <PUBCHEM_IUPAC_INCHI>
InChI=1S/C33H59N5O9/c1-9-11-12-13-14-15-25-21(6)33(46)38(8)24(16-19(3)4)30(43)36-27(20(5)10-2)32(45)35-23(18-39)29(42)37-28(22(7)40)31(44)34-17-26(41)47-25/h19-25,27-28,39-40H,9-18H2,1-8H3,(H,34,44)(H,35,45)(H,36,43)(H,37,42)/t20-,21-,22+,23-,24+,25-,27+,28-/m1/s1
> <PUBCHEM_IUPAC_INCHIKEY>
ZGTIPKVDXBCXIX-OUAHFHOVSA-N
> <PUBCHEM_XLOGP3_AA>
4.5
> <PUBCHEM_EXACT_MASS>
669.43127848
> <PUBCHEM_MOLECULAR_FORMULA>
C33H59N5O9
> <PUBCHEM_MOLECULAR_WEIGHT>
669.8
> <PUBCHEM_OPENEYE_CAN_SMILES>
CCCCCCCC1C(C(=O)N(C(C(=O)NC(C(=O)NC(C(=O)NC(C(=O)NCC(=O)O1)C(C)O)CO)C(C)CC)CC(C)C)C)C
> <PUBCHEM_OPENEYE_ISO_SMILES>
CCCCCCC[C@@H]1[C@H](C(=O)N([C@H](C(=O)N[C@H](C(=O)N[C@@H](C(=O)N[C@@H](C(=O)NCC(=O)O1)[C@H](C)O)CO)[C@H](C)CC)CC(C)C)C)C
> <PUBCHEM_CACTVS_TPSA>
204
> <PUBCHEM_MONOISOTOPIC_WEIGHT>
669.43127848
> <PUBCHEM_TOTAL_CHARGE>
0
> <PUBCHEM_HEAVY_ATOM_COUNT>
47
> <PUBCHEM_ATOM_DEF_STEREO_COUNT>
8
> <PUBCHEM_ATOM_UDEF_STEREO_COUNT>
0
> <PUBCHEM_BOND_DEF_STEREO_COUNT>
0
> <PUBCHEM_BOND_UDEF_STEREO_COUNT>
0
> <PUBCHEM_ISOTOPIC_ATOM_COUNT>
0
> <PUBCHEM_COMPONENT_COUNT>
1
> <PUBCHEM_CACTVS_TAUTO_COUNT>
-1
> <PUBCHEM_COORDINATE_TYPE>
1
5
255
> <PUBCHEM_BONDANNOTATIONS>
15  18  5
16  27  5
17  19  6
20  55  6
23  34  5
37  43  6
41  93  5
44  8  5
$$$$
