508523
  -OEChem-10302200282D
 95 99  0     1  0  0  0  0  0999 V2000
    7.6138   -2.4873    0.0000 O   0  0  0  0  0  0  0  0  0  0  0  0
    6.2619   -3.9107    0.0000 O   0  0  0  0  0  0  0  0  0  0  0  0
   10.5493   -1.8686    0.0000 O   0  0  0  0  0  0  0  0  0  0  0  0
    6.6353   -2.6935    0.0000 O   0  0  0  0  0  0  0  0  0  0  0  0
    9.2136   -0.3800    0.0000 N   0  0  3  0  0  0  0  0  0  0  0  0
    9.8349    1.5210    0.0000 N   0  0  3  0  0  0  0  0  0  0  0  0
    4.9889   -2.1554    0.0000 N   0  0  0  0  0  0  0  0  0  0  0  0
   11.8385   -0.7119    0.0000 N   0  0  0  0  0  0  0  0  0  0  0  0
    7.8314    3.7539    0.0000 N   0  0  0  0  0  0  0  0  0  0  0  0
   10.1921   -0.1738    0.0000 C   0  0  1  0  0  0  0  0  0  0  0  0
    8.9030   -1.3305    0.0000 C   0  0  0  0  0  0  0  0  0  0  0  0
    6.2781   -0.9987    0.0000 C   0  0  2  0  0  0  0  0  0  0  0  0
    8.5458    0.3643    0.0000 C   0  0  0  0  0  0  0  0  0  0  0  0
   10.5028    0.7767    0.0000 C   0  0  0  0  0  0  0  0  0  0  0  0
    7.9244   -1.5368    0.0000 C   0  0  2  0  0  0  0  0  0  0  0  0
    7.2566   -0.7925    0.0000 C   0  0  0  0  0  0  0  0  0  0  0  0
    8.8564    1.3148    0.0000 C   0  0  0  0  0  0  0  0  0  0  0  0
    5.6103   -0.2544    0.0000 C   0  0  3  0  0  0  0  0  0  0  0  0
    4.6783   -3.1059    0.0000 C   0  0  2  0  0  0  0  0  0  0  0  0
    5.2619   -3.9107    0.0000 C   0  0  1  0  0  0  0  0  0  0  0  0
   10.8600   -0.9181    0.0000 C   0  0  0  0  0  0  0  0  0  0  0  0
    5.9674   -1.9492    0.0000 C   0  0  0  0  0  0  0  0  0  0  0  0
   10.1456    2.4715    0.0000 C   0  0  0  0  0  0  0  0  0  0  0  0
    3.7320   -3.4107    0.0000 C   0  0  0  0  0  0  0  0  0  0  0  0
    4.6783   -4.7154    0.0000 C   0  0  0  0  0  0  0  0  0  0  0  0
    3.7320   -4.4107    0.0000 C   0  0  0  0  0  0  0  0  0  0  0  0
    5.9209    0.6961    0.0000 C   0  0  0  0  0  0  0  0  0  0  0  0
    4.6318   -0.4606    0.0000 C   0  0  0  0  0  0  0  0  0  0  0  0
   12.1491    0.2386    0.0000 C   0  0  0  0  0  0  0  0  0  0  0  0
    9.4778    3.2158    0.0000 C   0  0  0  0  0  0  0  0  0  0  0  0
    2.8660   -2.9107    0.0000 C   0  0  0  0  0  0  0  0  0  0  0  0
    2.8660   -4.9107    0.0000 C   0  0  0  0  0  0  0  0  0  0  0  0
    6.8994    0.9024    0.0000 C   0  0  0  0  0  0  0  0  0  0  0  0
    5.2531    1.4404    0.0000 C   0  0  0  0  0  0  0  0  0  0  0  0
   12.4598    1.1892    0.0000 C   0  0  0  0  0  0  0  0  0  0  0  0
   11.1986    0.5493    0.0000 C   0  0  0  0  0  0  0  0  0  0  0  0
   13.0997   -0.0720    0.0000 C   0  0  0  0  0  0  0  0  0  0  0  0
    2.0000   -3.4107    0.0000 C   0  0  0  0  0  0  0  0  0  0  0  0
    2.0000   -4.4107    0.0000 C   0  0  0  0  0  0  0  0  0  0  0  0
    9.7884    4.1664    0.0000 C   0  0  0  0  0  0  0  0  0  0  0  0
    8.4993    3.0096    0.0000 C   0  0  0  0  0  0  0  0  0  0  0  0
    7.2101    1.8529    0.0000 C   0  0  0  0  0  0  0  0  0  0  0  0
    5.5637    2.3910    0.0000 C   0  0  0  0  0  0  0  0  0  0  0  0
    6.5422    2.5972    0.0000 C   0  0  0  0  0  0  0  0  0  0  0  0
    9.1206    4.9107    0.0000 C   0  0  0  0  0  0  0  0  0  0  0  0
    8.1421    4.7044    0.0000 C   0  0  0  0  0  0  0  0  0  0  0  0
    9.9995   -0.7631    0.0000 H   0  0  0  0  0  0  0  0  0  0  0  0
    8.9235   -1.9502    0.0000 H   0  0  0  0  0  0  0  0  0  0  0  0
    9.5168   -1.4179    0.0000 H   0  0  0  0  0  0  0  0  0  0  0  0
    6.6922   -1.4601    0.0000 H   0  0  0  0  0  0  0  0  0  0  0  0
    7.9988    0.6563    0.0000 H   0  0  0  0  0  0  0  0  0  0  0  0
    8.1632   -0.1236    0.0000 H   0  0  0  0  0  0  0  0  0  0  0  0
   11.0497    0.4847    0.0000 H   0  0  0  0  0  0  0  0  0  0  0  0
   10.8853    1.2646    0.0000 H   0  0  0  0  0  0  0  0  0  0  0  0
    8.3385   -1.9982    0.0000 H   0  0  0  0  0  0  0  0  0  0  0  0
    7.7830   -0.4648    0.0000 H   0  0  0  0  0  0  0  0  0  0  0  0
    7.0254   -0.2172    0.0000 H   0  0  0  0  0  0  0  0  0  0  0  0
    8.8359    1.9345    0.0000 H   0  0  0  0  0  0  0  0  0  0  0  0
    8.2426    1.4022    0.0000 H   0  0  0  0  0  0  0  0  0  0  0  0
    5.1962    0.2071    0.0000 H   0  0  0  0  0  0  0  0  0  0  0  0
    5.2908   -3.0097    0.0000 H   0  0  0  0  0  0  0  0  0  0  0  0
    5.5436   -3.3584    0.0000 H   0  0  0  0  0  0  0  0  0  0  0  0
   10.6925    2.1795    0.0000 H   0  0  0  0  0  0  0  0  0  0  0  0
   10.5282    2.9594    0.0000 H   0  0  0  0  0  0  0  0  0  0  0  0
    4.4272   -5.2823    0.0000 H   0  0  0  0  0  0  0  0  0  0  0  0
    5.2156   -5.0246    0.0000 H   0  0  0  0  0  0  0  0  0  0  0  0
    4.5749   -1.6940    0.0000 H   0  0  0  0  0  0  0  0  0  0  0  0
    4.5039    0.1461    0.0000 H   0  0  0  0  0  0  0  0  0  0  0  0
    4.0251   -0.5884    0.0000 H   0  0  0  0  0  0  0  0  0  0  0  0
    4.7596   -1.0673    0.0000 H   0  0  0  0  0  0  0  0  0  0  0  0
   12.2525   -1.1733    0.0000 H   0  0  0  0  0  0  0  0  0  0  0  0
    8.0279   -2.9487    0.0000 H   0  0  0  0  0  0  0  0  0  0  0  0
    2.8660   -2.2907    0.0000 H   0  0  0  0  0  0  0  0  0  0  0  0
    2.8660   -5.5307    0.0000 H   0  0  0  0  0  0  0  0  0  0  0  0
    6.5719   -4.4476    0.0000 H   0  0  0  0  0  0  0  0  0  0  0  0
    7.3135    0.4409    0.0000 H   0  0  0  0  0  0  0  0  0  0  0  0
    4.6464    1.3126    0.0000 H   0  0  0  0  0  0  0  0  0  0  0  0
   13.0491    0.9965    0.0000 H   0  0  0  0  0  0  0  0  0  0  0  0
   12.6524    1.7785    0.0000 H   0  0  0  0  0  0  0  0  0  0  0  0
   11.8705    1.3818    0.0000 H   0  0  0  0  0  0  0  0  0  0  0  0
   11.3912    1.1386    0.0000 H   0  0  0  0  0  0  0  0  0  0  0  0
   10.6093    0.7419    0.0000 H   0  0  0  0  0  0  0  0  0  0  0  0
   11.0060   -0.0400    0.0000 H   0  0  0  0  0  0  0  0  0  0  0  0
   12.9070   -0.6613    0.0000 H   0  0  0  0  0  0  0  0  0  0  0  0
   13.6890   -0.2646    0.0000 H   0  0  0  0  0  0  0  0  0  0  0  0
   13.2923    0.5173    0.0000 H   0  0  0  0  0  0  0  0  0  0  0  0
    1.4631   -3.1007    0.0000 H   0  0  0  0  0  0  0  0  0  0  0  0
    1.4631   -4.7207    0.0000 H   0  0  0  0  0  0  0  0  0  0  0  0
   10.3951    4.2942    0.0000 H   0  0  0  0  0  0  0  0  0  0  0  0
    8.3066    2.4203    0.0000 H   0  0  0  0  0  0  0  0  0  0  0  0
    7.8168    1.9807    0.0000 H   0  0  0  0  0  0  0  0  0  0  0  0
    5.1497    2.8524    0.0000 H   0  0  0  0  0  0  0  0  0  0  0  0
    6.7349    3.1865    0.0000 H   0  0  0  0  0  0  0  0  0  0  0  0
    9.3132    5.5000    0.0000 H   0  0  0  0  0  0  0  0  0  0  0  0
    7.7280    5.1659    0.0000 H   0  0  0  0  0  0  0  0  0  0  0  0
 15  1  1  1  0  0  0
  1 72  1  0  0  0  0
 20  2  1  6  0  0  0
  2 75  1  0  0  0  0
  3 21  2  0  0  0  0
  4 22  2  0  0  0  0
  5 10  1  0  0  0  0
  5 11  1  0  0  0  0
  5 13  1  0  0  0  0
  6 14  1  0  0  0  0
  6 17  1  0  0  0  0
  6 23  1  0  0  0  0
 19  7  1  6  0  0  0
  7 22  1  0  0  0  0
  7 67  1  0  0  0  0
  8 21  1  0  0  0  0
  8 29  1  0  0  0  0
  8 71  1  0  0  0  0
  9 41  1  0  0  0  0
  9 46  2  0  0  0  0
 10 14  1  0  0  0  0
 10 21  1  1  0  0  0
 10 47  1  0  0  0  0
 11 15  1  0  0  0  0
 11 48  1  0  0  0  0
 11 49  1  0  0  0  0
 12 16  1  1  0  0  0
 12 18  1  0  0  0  0
 12 22  1  0  0  0  0
 12 50  1  0  0  0  0
 13 17  1  0  0  0  0
 13 51  1  0  0  0  0
 13 52  1  0  0  0  0
 14 53  1  0  0  0  0
 14 54  1  0  0  0  0
 15 16  1  0  0  0  0
 15 55  1  0  0  0  0
 16 56  1  0  0  0  0
 16 57  1  0  0  0  0
 17 58  1  0  0  0  0
 17 59  1  0  0  0  0
 18 27  1  0  0  0  0
 18 28  1  0  0  0  0
 18 60  1  0  0  0  0
 19 20  1  0  0  0  0
 19 24  1  0  0  0  0
 19 61  1  0  0  0  0
 20 25  1  0  0  0  0
 20 62  1  0  0  0  0
 23 30  1  0  0  0  0
 23 63  1  0  0  0  0
 23 64  1  0  0  0  0
 24 26  1  0  0  0  0
 24 31  2  0  0  0  0
 25 26  1  0  0  0  0
 25 65  1  0  0  0  0
 25 66  1  0  0  0  0
 26 32  2  0  0  0  0
 27 33  2  0  0  0  0
 27 34  1  0  0  0  0
 28 68  1  0  0  0  0
 28 69  1  0  0  0  0
 28 70  1  0  0  0  0
 29 35  1  0  0  0  0
 29 36  1  0  0  0  0
 29 37  1  0  0  0  0
 30 40  1  0  0  0  0
 30 41  2  0  0  0  0
 31 38  1  0  0  0  0
 31 73  1  0  0  0  0
 32 39  1  0  0  0  0
 32 74  1  0  0  0  0
 33 42  1  0  0  0  0
 33 76  1  0  0  0  0
 34 43  2  0  0  0  0
 34 77  1  0  0  0  0
 35 78  1  0  0  0  0
 35 79  1  0  0  0  0
 35 80  1  0  0  0  0
 36 81  1  0  0  0  0
 36 82  1  0  0  0  0
 36 83  1  0  0  0  0
 37 84  1  0  0  0  0
 37 85  1  0  0  0  0
 37 86  1  0  0  0  0
 38 39  2  0  0  0  0
 38 87  1  0  0  0  0
 39 88  1  0  0  0  0
 40 45  2  0  0  0  0
 40 89  1  0  0  0  0
 41 90  1  0  0  0  0
 42 44  2  0  0  0  0
 42 91  1  0  0  0  0
 43 44  1  0  0  0  0
 43 92  1  0  0  0  0
 44 93  1  0  0  0  0
 45 46  1  0  0  0  0
 45 94  1  0  0  0  0
 46 95  1  0  0  0  0
M  END
> <PUBCHEM_COMPOUND_CID>
508523
> <PUBCHEM_COMPOUND_CANONICALIZED>
1
> <PUBCHEM_CACTVS_COMPLEXITY>
983
> <PUBCHEM_CACTVS_HBOND_ACCEPTOR>
7
> <PUBCHEM_CACTVS_HBOND_DONOR>
4
> <PUBCHEM_CACTVS_ROTATABLE_BOND>
12
> <PUBCHEM_CACTVS_SUBSKEYS>
AAADcfB/uAAAAAAAAAAAAAAAAAAAAYAAAAA8eIEAAAAAAGAB0AAAHgAQCAAADbzhmgY+gJPIEgCoAjF3VACCgCAxAiAI2KG4ZJgKcPrA0bGUYAhk1gHYyAe62fKOgAAAAAAQAAAAAAAAACAAAKAACQgAAA==
> <PUBCHEM_IUPAC_OPENEYE_NAME>
(2S)-N-tert-butyl-1-[(2S,4R)-2-hydroxy-4-[[(1S,2R)-2-hydroxyindan-1-yl]carbamoyl]-5-phenyl-hexyl]-4-(3-pyridylmethyl)piperazine-2-carboxamide
> <PUBCHEM_IUPAC_CAS_NAME>
(2S)-N-tert-butyl-1-[(2S,4R)-2-hydroxy-4-[[[(1S,2R)-2-hydroxy-2,3-dihydro-1H-inden-1-yl]amino]-oxomethyl]-5-phenylhexyl]-4-(3-pyridinylmethyl)-2-piperazinecarboxamide
> <PUBCHEM_IUPAC_NAME_MARKUP>
(2<I>S</I>)-<I>N</I>-<I>tert</I>-butyl-1-[(2<I>S</I>,4<I>R</I>)-2-hydroxy-4-[[(1<I>S</I>,2<I>R</I>)-2-hydroxy-2,3-dihydro-1<I>H</I>-inden-1-yl]carbamoyl]-5-phenylhexyl]-4-(pyridin-3-ylmethyl)piperazine-2-carboxamide
> <PUBCHEM_IUPAC_NAME>
(2S)-N-tert-butyl-1-[(2S,4R)-2-hydroxy-4-[[(1S,2R)-2-hydroxy-2,3-dihydro-1H-inden-1-yl]carbamoyl]-5-phenylhexyl]-4-(pyridin-3-ylmethyl)piperazine-2-carboxamide
> <PUBCHEM_IUPAC_SYSTEMATIC_NAME>
(2S)-N-tert-butyl-1-[(2S,4R)-2-oxidanyl-4-[[(1S,2R)-2-oxidanyl-2,3-dihydro-1H-inden-1-yl]carbamoyl]-5-phenyl-hexyl]-4-(pyridin-3-ylmethyl)piperazine-2-carboxamide
> <PUBCHEM_IUPAC_TRADITIONAL_NAME>
(2S)-N-tert-butyl-1-[(2S,4R)-2-hydroxy-4-[[(1S,2R)-2-hydroxyindan-1-yl]carbamoyl]-5-phenyl-hexyl]-4-(3-pyridylmethyl)piperazine-2-carboxamide
> <PUBCHEM_IUPAC_INCHI>
InChI=1S/C37H49N5O4/c1-25(27-12-6-5-7-13-27)31(35(45)39-34-30-15-9-8-14-28(30)19-33(34)44)20-29(43)23-42-18-17-41(22-26-11-10-16-38-21-26)24-32(42)36(46)40-37(2,3)4/h5-16,21,25,29,31-34,43-44H,17-20,22-24H2,1-4H3,(H,39,45)(H,40,46)/t25?,29-,31+,32-,33+,34-/m0/s1
> <PUBCHEM_IUPAC_INCHIKEY>
AITMPVIQUIXEST-OICYMUGLSA-N
> <PUBCHEM_XLOGP3_AA>
3.1
> <PUBCHEM_EXACT_MASS>
627.37845506
> <PUBCHEM_MOLECULAR_FORMULA>
C37H49N5O4
> <PUBCHEM_MOLECULAR_WEIGHT>
627.8
> <PUBCHEM_OPENEYE_CAN_SMILES>
CC(C1=CC=CC=C1)C(CC(CN2CCN(CC2C(=O)NC(C)(C)C)CC3=CN=CC=C3)O)C(=O)NC4C(CC5=CC=CC=C45)O
> <PUBCHEM_OPENEYE_ISO_SMILES>
CC(C1=CC=CC=C1)[C@@H](C[C@@H](CN2CCN(C[C@H]2C(=O)NC(C)(C)C)CC3=CN=CC=C3)O)C(=O)N[C@@H]4[C@@H](CC5=CC=CC=C45)O
> <PUBCHEM_CACTVS_TPSA>
118
> <PUBCHEM_MONOISOTOPIC_WEIGHT>
627.37845506
> <PUBCHEM_TOTAL_CHARGE>
0
> <PUBCHEM_HEAVY_ATOM_COUNT>
46
> <PUBCHEM_ATOM_DEF_STEREO_COUNT>
5
> <PUBCHEM_ATOM_UDEF_STEREO_COUNT>
1
> <PUBCHEM_BOND_DEF_STEREO_COUNT>
0
> <PUBCHEM_BOND_UDEF_STEREO_COUNT>
0
> <PUBCHEM_ISOTOPIC_ATOM_COUNT>
0
> <PUBCHEM_COMPONENT_COUNT>
1
> <PUBCHEM_CACTVS_TAUTO_COUNT>
-1
> <PUBCHEM_COORDINATE_TYPE>
1
5
255
> <PUBCHEM_BONDANNOTATIONS>
15  1  5
10  21  5
12  16  5
18  28  3
20  2  6
24  26  8
24  31  8
26  32  8
27  33  8
27  34  8
30  40  8
30  41  8
31  38  8
32  39  8
33  42  8
34  43  8
38  39  8
40  45  8
42  44  8
43  44  8
45  46  8
19  7  6
9  41  8
9  46  8
$$$$
