508516
  -OEChem-10302200282D
 44 47  0     1  0  0  0  0  0999 V2000
    5.8204   -2.8530    0.0000 O   0  0  0  0  0  0  0  0  0  0  0  0
    5.5197    1.8528    0.0000 N   0  0  0  0  0  0  0  0  0  0  0  0
    4.9544   -1.3530    0.0000 N   0  0  0  0  0  0  0  0  0  0  0  0
    4.9136    3.3530    0.0000 N   0  0  0  0  0  0  0  0  0  0  0  0
    6.6865   -1.3530    0.0000 N   0  0  0  0  0  0  0  0  0  0  0  0
    6.1625    1.0867    0.0000 C   0  0  3  0  0  0  0  0  0  0  0  0
    5.8204    0.1470    0.0000 C   0  0  0  0  0  0  0  0  0  0  0  0
    7.1473    1.2604    0.0000 C   0  0  0  0  0  0  0  0  0  0  0  0
    4.9544   -0.3530    0.0000 C   0  0  0  0  0  0  0  0  0  0  0  0
    6.6865   -0.3530    0.0000 C   0  0  0  0  0  0  0  0  0  0  0  0
    7.4893    2.2001    0.0000 C   0  0  0  0  0  0  0  0  0  0  0  0
    7.7901    0.4943    0.0000 C   0  0  0  0  0  0  0  0  0  0  0  0
    4.5221    1.7830    0.0000 C   0  0  0  0  0  0  0  0  0  0  0  0
    3.9696   -0.1793    0.0000 C   0  0  0  0  0  0  0  0  0  0  0  0
    5.7616    2.8231    0.0000 C   0  0  0  0  0  0  0  0  0  0  0  0
    8.4741    2.3737    0.0000 C   0  0  0  0  0  0  0  0  0  0  0  0
    8.7749    0.6680    0.0000 C   0  0  0  0  0  0  0  0  0  0  0  0
    4.1475    2.7102    0.0000 C   0  0  0  0  0  0  0  0  0  0  0  0
    9.1169    1.6077    0.0000 C   0  0  0  0  0  0  0  0  0  0  0  0
    3.3268   -0.9453    0.0000 C   0  0  0  0  0  0  0  0  0  0  0  0
    3.6276    0.7604    0.0000 C   0  0  0  0  0  0  0  0  0  0  0  0
    5.8204   -1.8530    0.0000 C   0  0  0  0  0  0  0  0  0  0  0  0
    2.3420   -0.7717    0.0000 C   0  0  0  0  0  0  0  0  0  0  0  0
    2.6428    0.9340    0.0000 C   0  0  0  0  0  0  0  0  0  0  0  0
    2.0000    0.1680    0.0000 C   0  0  0  0  0  0  0  0  0  0  0  0
    6.6865   -3.3530    0.0000 C   0  0  0  0  0  0  0  0  0  0  0  0
    6.3745    1.6693    0.0000 H   0  0  0  0  0  0  0  0  0  0  0  0
    7.2234   -0.0430    0.0000 H   0  0  0  0  0  0  0  0  0  0  0  0
    7.0908    2.6750    0.0000 H   0  0  0  0  0  0  0  0  0  0  0  0
    7.5780   -0.0883    0.0000 H   0  0  0  0  0  0  0  0  0  0  0  0
    4.1936    1.2572    0.0000 H   0  0  0  0  0  0  0  0  0  0  0  0
    6.3365    3.0553    0.0000 H   0  0  0  0  0  0  0  0  0  0  0  0
    8.6862    2.9563    0.0000 H   0  0  0  0  0  0  0  0  0  0  0  0
    9.1734    0.1930    0.0000 H   0  0  0  0  0  0  0  0  0  0  0  0
    3.5459    2.8602    0.0000 H   0  0  0  0  0  0  0  0  0  0  0  0
    3.5388   -1.5279    0.0000 H   0  0  0  0  0  0  0  0  0  0  0  0
    4.0261    1.2353    0.0000 H   0  0  0  0  0  0  0  0  0  0  0  0
    9.7275    1.7153    0.0000 H   0  0  0  0  0  0  0  0  0  0  0  0
    1.9435   -1.2467    0.0000 H   0  0  0  0  0  0  0  0  0  0  0  0
    2.4307    1.5166    0.0000 H   0  0  0  0  0  0  0  0  0  0  0  0
    1.3894    0.2756    0.0000 H   0  0  0  0  0  0  0  0  0  0  0  0
    6.3765   -3.8899    0.0000 H   0  0  0  0  0  0  0  0  0  0  0  0
    7.2234   -3.6630    0.0000 H   0  0  0  0  0  0  0  0  0  0  0  0
    6.9965   -2.8160    0.0000 H   0  0  0  0  0  0  0  0  0  0  0  0
  1 22  1  0  0  0  0
  1 26  1  0  0  0  0
  2  6  1  0  0  0  0
  2 13  1  0  0  0  0
  2 15  1  0  0  0  0
  3  9  2  0  0  0  0
  3 22  1  0  0  0  0
  4 15  2  0  0  0  0
  4 18  1  0  0  0  0
  5 10  1  0  0  0  0
  5 22  2  0  0  0  0
  6  7  1  0  0  0  0
  6  8  1  0  0  0  0
  6 27  1  0  0  0  0
  7  9  1  0  0  0  0
  7 10  2  0  0  0  0
  8 11  2  0  0  0  0
  8 12  1  0  0  0  0
  9 14  1  0  0  0  0
 10 28  1  0  0  0  0
 11 16  1  0  0  0  0
 11 29  1  0  0  0  0
 12 17  2  0  0  0  0
 12 30  1  0  0  0  0
 13 18  2  0  0  0  0
 13 31  1  0  0  0  0
 14 20  2  0  0  0  0
 14 21  1  0  0  0  0
 15 32  1  0  0  0  0
 16 19  2  0  0  0  0
 16 33  1  0  0  0  0
 17 19  1  0  0  0  0
 17 34  1  0  0  0  0
 18 35  1  0  0  0  0
 19 38  1  0  0  0  0
 20 23  1  0  0  0  0
 20 36  1  0  0  0  0
 21 24  2  0  0  0  0
 21 37  1  0  0  0  0
 23 25  2  0  0  0  0
 23 39  1  0  0  0  0
 24 25  1  0  0  0  0
 24 40  1  0  0  0  0
 25 41  1  0  0  0  0
 26 42  1  0  0  0  0
 26 43  1  0  0  0  0
 26 44  1  0  0  0  0
M  END
> <PUBCHEM_COMPOUND_CID>
508516
> <PUBCHEM_COMPOUND_CANONICALIZED>
1
> <PUBCHEM_CACTVS_COMPLEXITY>
422
> <PUBCHEM_CACTVS_HBOND_ACCEPTOR>
4
> <PUBCHEM_CACTVS_HBOND_DONOR>
0
> <PUBCHEM_CACTVS_ROTATABLE_BOND>
5
> <PUBCHEM_CACTVS_SUBSKEYS>
AAADceB7oAAAAAAAAAAAAAAAAAAAAWAAAAA8YIAAAAAAAAAB9AAAHgAAAAAADCjBHgY/kJcMFACgAzRnZACCgC0xEqAJ2CA4dJiIaKLA2dGUJAhogALIyCcQgMAOAAAAAAAAAAAAAAAAAAAAAAAAAAAAAA==
> <PUBCHEM_IUPAC_OPENEYE_NAME>
5-[imidazol-1-yl(phenyl)methyl]-2-methoxy-4-phenyl-pyrimidine
> <PUBCHEM_IUPAC_CAS_NAME>
5-[1-imidazolyl(phenyl)methyl]-2-methoxy-4-phenylpyrimidine
> <PUBCHEM_IUPAC_NAME_MARKUP>
5-[imidazol-1-yl(phenyl)methyl]-2-methoxy-4-phenylpyrimidine
> <PUBCHEM_IUPAC_NAME>
5-[imidazol-1-yl(phenyl)methyl]-2-methoxy-4-phenylpyrimidine
> <PUBCHEM_IUPAC_SYSTEMATIC_NAME>
5-[imidazol-1-yl(phenyl)methyl]-2-methoxy-4-phenyl-pyrimidine
> <PUBCHEM_IUPAC_TRADITIONAL_NAME>
5-[imidazol-1-yl(phenyl)methyl]-2-methoxy-4-phenyl-pyrimidine
> <PUBCHEM_IUPAC_INCHI>
InChI=1S/C21H18N4O/c1-26-21-23-14-18(19(24-21)16-8-4-2-5-9-16)20(25-13-12-22-15-25)17-10-6-3-7-11-17/h2-15,20H,1H3
> <PUBCHEM_IUPAC_INCHIKEY>
MLSKXCJYWNOENG-UHFFFAOYSA-N
> <PUBCHEM_XLOGP3_AA>
3.6
> <PUBCHEM_EXACT_MASS>
342.14806121
> <PUBCHEM_MOLECULAR_FORMULA>
C21H18N4O
> <PUBCHEM_MOLECULAR_WEIGHT>
342.4
> <PUBCHEM_OPENEYE_CAN_SMILES>
COC1=NC=C(C(=N1)C2=CC=CC=C2)C(C3=CC=CC=C3)N4C=CN=C4
> <PUBCHEM_OPENEYE_ISO_SMILES>
COC1=NC=C(C(=N1)C2=CC=CC=C2)C(C3=CC=CC=C3)N4C=CN=C4
> <PUBCHEM_CACTVS_TPSA>
52.8
> <PUBCHEM_MONOISOTOPIC_WEIGHT>
342.14806121
> <PUBCHEM_TOTAL_CHARGE>
0
> <PUBCHEM_HEAVY_ATOM_COUNT>
26
> <PUBCHEM_ATOM_DEF_STEREO_COUNT>
0
> <PUBCHEM_ATOM_UDEF_STEREO_COUNT>
1
> <PUBCHEM_BOND_DEF_STEREO_COUNT>
0
> <PUBCHEM_BOND_UDEF_STEREO_COUNT>
0
> <PUBCHEM_ISOTOPIC_ATOM_COUNT>
0
> <PUBCHEM_COMPONENT_COUNT>
1
> <PUBCHEM_CACTVS_TAUTO_COUNT>
-1
> <PUBCHEM_COORDINATE_TYPE>
1
5
255
> <PUBCHEM_BONDANNOTATIONS>
11  16  8
12  17  8
13  18  8
14  20  8
14  21  8
16  19  8
17  19  8
2  13  8
2  15  8
20  23  8
21  24  8
23  25  8
24  25  8
3  22  8
3  9  8
4  15  8
4  18  8
5  10  8
5  22  8
6  8  3
7  10  8
7  9  8
8  11  8
8  12  8
$$$$
