508518
  -OEChem-10302200282D
 37 40  0     1  0  0  0  0  0999 V2000
    6.5358    1.1308    0.0000 O   0  0  0  0  0  0  0  0  0  0  0  0
    3.6023   -0.3980    0.0000 N   0  0  0  0  0  0  0  0  0  0  0  0
    3.1639    0.5008    0.0000 N   0  0  0  0  0  0  0  0  0  0  0  0
    7.0358    0.2647    0.0000 N   0  0  0  0  0  0  0  0  0  0  0  0
    2.0000   -0.6232    0.0000 N   0  0  0  0  0  0  0  0  0  0  0  0
    4.5871   -0.5717    0.0000 C   0  0  3  0  0  0  0  0  0  0  0  0
    5.4531   -0.0717    0.0000 C   0  0  0  0  0  0  0  0  0  0  0  0
    4.5871   -1.5717    0.0000 C   0  0  0  0  0  0  0  0  0  0  0  0
    5.5576    0.9228    0.0000 C   0  0  0  0  0  0  0  0  0  0  0  0
    6.3667   -0.4784    0.0000 C   0  0  0  0  0  0  0  0  0  0  0  0
    5.0882    1.8058    0.0000 C   0  0  0  0  0  0  0  0  0  0  0  0
    3.7211   -2.0717    0.0000 C   0  0  0  0  0  0  0  0  0  0  0  0
    5.4531   -2.0717    0.0000 C   0  0  0  0  0  0  0  0  0  0  0  0
    2.8830   -1.0927    0.0000 C   0  0  0  0  0  0  0  0  0  0  0  0
    3.7211   -3.0717    0.0000 C   0  0  0  0  0  0  0  0  0  0  0  0
    5.4531   -3.0717    0.0000 C   0  0  0  0  0  0  0  0  0  0  0  0
    5.6181    2.6538    0.0000 C   0  0  0  0  0  0  0  0  0  0  0  0
    4.0888    1.8407    0.0000 C   0  0  0  0  0  0  0  0  0  0  0  0
    4.5871   -3.5717    0.0000 C   0  0  0  0  0  0  0  0  0  0  0  0
    2.1736    0.3616    0.0000 C   0  0  0  0  0  0  0  0  0  0  0  0
    5.1486    3.5368    0.0000 C   0  0  0  0  0  0  0  0  0  0  0  0
    3.6193    2.7236    0.0000 C   0  0  0  0  0  0  0  0  0  0  0  0
    4.1492    3.5717    0.0000 C   0  0  0  0  0  0  0  0  0  0  0  0
    4.4794    0.0389    0.0000 H   0  0  0  0  0  0  0  0  0  0  0  0
    6.4956   -1.0849    0.0000 H   0  0  0  0  0  0  0  0  0  0  0  0
    3.1841   -1.7617    0.0000 H   0  0  0  0  0  0  0  0  0  0  0  0
    5.9901   -1.7617    0.0000 H   0  0  0  0  0  0  0  0  0  0  0  0
    2.9692   -1.7067    0.0000 H   0  0  0  0  0  0  0  0  0  0  0  0
    3.1841   -3.3817    0.0000 H   0  0  0  0  0  0  0  0  0  0  0  0
    5.9901   -3.3817    0.0000 H   0  0  0  0  0  0  0  0  0  0  0  0
    6.2377    2.6322    0.0000 H   0  0  0  0  0  0  0  0  0  0  0  0
    3.7602    1.3149    0.0000 H   0  0  0  0  0  0  0  0  0  0  0  0
    4.5871   -4.1917    0.0000 H   0  0  0  0  0  0  0  0  0  0  0  0
    1.7430    0.8076    0.0000 H   0  0  0  0  0  0  0  0  0  0  0  0
    5.4772    4.0626    0.0000 H   0  0  0  0  0  0  0  0  0  0  0  0
    2.9997    2.7453    0.0000 H   0  0  0  0  0  0  0  0  0  0  0  0
    3.8582    4.1191    0.0000 H   0  0  0  0  0  0  0  0  0  0  0  0
  1  4  1  0  0  0  0
  1  9  1  0  0  0  0
  2  3  1  0  0  0  0
  2  6  1  0  0  0  0
  2 14  1  0  0  0  0
  3 20  2  0  0  0  0
  4 10  2  0  0  0  0
  5 14  2  0  0  0  0
  5 20  1  0  0  0  0
  6  7  1  0  0  0  0
  6  8  1  0  0  0  0
  6 24  1  0  0  0  0
  7  9  2  0  0  0  0
  7 10  1  0  0  0  0
  8 12  2  0  0  0  0
  8 13  1  0  0  0  0
  9 11  1  0  0  0  0
 10 25  1  0  0  0  0
 11 17  2  0  0  0  0
 11 18  1  0  0  0  0
 12 15  1  0  0  0  0
 12 26  1  0  0  0  0
 13 16  2  0  0  0  0
 13 27  1  0  0  0  0
 14 28  1  0  0  0  0
 15 19  2  0  0  0  0
 15 29  1  0  0  0  0
 16 19  1  0  0  0  0
 16 30  1  0  0  0  0
 17 21  1  0  0  0  0
 17 31  1  0  0  0  0
 18 22  2  0  0  0  0
 18 32  1  0  0  0  0
 19 33  1  0  0  0  0
 20 34  1  0  0  0  0
 21 23  2  0  0  0  0
 21 35  1  0  0  0  0
 22 23  1  0  0  0  0
 22 36  1  0  0  0  0
 23 37  1  0  0  0  0
M  END
> <PUBCHEM_COMPOUND_CID>
508518
> <PUBCHEM_COMPOUND_CANONICALIZED>
1
> <PUBCHEM_CACTVS_COMPLEXITY>
368
> <PUBCHEM_CACTVS_HBOND_ACCEPTOR>
4
> <PUBCHEM_CACTVS_HBOND_DONOR>
0
> <PUBCHEM_CACTVS_ROTATABLE_BOND>
4
> <PUBCHEM_CACTVS_SUBSKEYS>
AAADccB7oAAAAAAAAAAAAAAAAAAAAWLAAAAwYAAAAAAAAAAB9AAAHgAMAAAADCzBmgQ9lJYYEACrArB3ZgCSAAs0oIA92CEsTNqILjqA3ZOEMYhuwAsIyceYyOCOAAAAAAAAAAAAAAAAAAAAAAAAAAAAAA==
> <PUBCHEM_IUPAC_OPENEYE_NAME>
5-phenyl-4-[phenyl(1,2,4-triazol-1-yl)methyl]isoxazole
> <PUBCHEM_IUPAC_CAS_NAME>
5-phenyl-4-[phenyl(1,2,4-triazol-1-yl)methyl]isoxazole
> <PUBCHEM_IUPAC_NAME_MARKUP>
5-phenyl-4-[phenyl(1,2,4-triazol-1-yl)methyl]-1,2-oxazole
> <PUBCHEM_IUPAC_NAME>
5-phenyl-4-[phenyl(1,2,4-triazol-1-yl)methyl]-1,2-oxazole
> <PUBCHEM_IUPAC_SYSTEMATIC_NAME>
5-phenyl-4-[phenyl(1,2,4-triazol-1-yl)methyl]-1,2-oxazole
> <PUBCHEM_IUPAC_TRADITIONAL_NAME>
5-phenyl-4-[phenyl(1,2,4-triazol-1-yl)methyl]isoxazole
> <PUBCHEM_IUPAC_INCHI>
InChI=1S/C18H14N4O/c1-3-7-14(8-4-1)17(22-13-19-12-20-22)16-11-21-23-18(16)15-9-5-2-6-10-15/h1-13,17H
> <PUBCHEM_IUPAC_INCHIKEY>
DWKXFDRHBJUHGL-UHFFFAOYSA-N
> <PUBCHEM_XLOGP3_AA>
3.4
> <PUBCHEM_EXACT_MASS>
302.11676108
> <PUBCHEM_MOLECULAR_FORMULA>
C18H14N4O
> <PUBCHEM_MOLECULAR_WEIGHT>
302.3
> <PUBCHEM_OPENEYE_CAN_SMILES>
C1=CC=C(C=C1)C2=C(C=NO2)C(C3=CC=CC=C3)N4C=NC=N4
> <PUBCHEM_OPENEYE_ISO_SMILES>
C1=CC=C(C=C1)C2=C(C=NO2)C(C3=CC=CC=C3)N4C=NC=N4
> <PUBCHEM_CACTVS_TPSA>
56.7
> <PUBCHEM_MONOISOTOPIC_WEIGHT>
302.11676108
> <PUBCHEM_TOTAL_CHARGE>
0
> <PUBCHEM_HEAVY_ATOM_COUNT>
23
> <PUBCHEM_ATOM_DEF_STEREO_COUNT>
0
> <PUBCHEM_ATOM_UDEF_STEREO_COUNT>
1
> <PUBCHEM_BOND_DEF_STEREO_COUNT>
0
> <PUBCHEM_BOND_UDEF_STEREO_COUNT>
0
> <PUBCHEM_ISOTOPIC_ATOM_COUNT>
0
> <PUBCHEM_COMPONENT_COUNT>
1
> <PUBCHEM_CACTVS_TAUTO_COUNT>
-1
> <PUBCHEM_COORDINATE_TYPE>
1
5
255
> <PUBCHEM_BONDANNOTATIONS>
1  4  8
1  9  8
11  17  8
11  18  8
12  15  8
13  16  8
15  19  8
16  19  8
17  21  8
18  22  8
2  14  8
2  3  8
21  23  8
22  23  8
3  20  8
4  10  8
5  14  8
5  20  8
6  8  3
7  10  8
7  9  8
8  12  8
8  13  8
$$$$
