508572
  -OEChem-10302200282D
 84 86  0     1  0  0  0  0  0999 V2000
    4.5981   -0.3644    0.0000 S   0  0  0  0  0  0  0  0  0  0  0  0
   12.3923    2.1356    0.0000 S   0  0  0  0  0  0  0  0  0  0  0  0
   11.5833    3.7234    0.0000 S   0  0  0  0  0  0  0  0  0  0  0  0
    5.5981   -0.3644    0.0000 O   0  0  0  0  0  0  0  0  0  0  0  0
    3.5981   -0.3644    0.0000 O   0  0  0  0  0  0  0  0  0  0  0  0
    4.5981    2.6356    0.0000 O   0  0  0  0  0  0  0  0  0  0  0  0
   10.6603    2.1356    0.0000 O   0  0  0  0  0  0  0  0  0  0  0  0
   13.3923    2.1356    0.0000 O   0  0  0  0  0  0  0  0  0  0  0  0
   11.3923    2.1356    0.0000 O   0  0  0  0  0  0  0  0  0  0  0  0
    4.5981    0.6356    0.0000 N   0  0  3  0  0  0  0  0  0  0  0  0
    9.7942    0.6356    0.0000 N   0  0  0  0  0  0  0  0  0  0  0  0
    6.3301    2.6356    0.0000 N   0  0  0  0  0  0  0  0  0  0  0  0
   12.3923    1.1356    0.0000 N   0  0  0  0  0  0  0  0  0  0  0  0
    6.3301    3.6356    0.0000 N   0  0  0  0  0  0  0  0  0  0  0  0
    4.5981   -4.3644    0.0000 N   0  0  0  0  0  0  0  0  0  0  0  0
    5.4641    1.1356    0.0000 C   0  0  1  0  0  0  0  0  0  0  0  0
    6.3301    0.6356    0.0000 C   0  0  0  0  0  0  0  0  0  0  0  0
    3.7320    1.1356    0.0000 C   0  0  0  0  0  0  0  0  0  0  0  0
    7.1962    1.1356    0.0000 C   0  0  0  0  0  0  0  0  0  0  0  0
    2.8660    0.6356    0.0000 C   0  0  0  0  0  0  0  0  0  0  0  0
    8.0622    0.6356    0.0000 C   0  0  0  0  0  0  0  0  0  0  0  0
    5.4641    2.1356    0.0000 C   0  0  0  0  0  0  0  0  0  0  0  0
    8.9282    1.1356    0.0000 C   0  0  0  0  0  0  0  0  0  0  0  0
    2.0000    1.1356    0.0000 C   0  0  0  0  0  0  0  0  0  0  0  0
    2.8660   -0.3644    0.0000 C   0  0  0  0  0  0  0  0  0  0  0  0
    4.5981   -1.3644    0.0000 C   0  0  0  0  0  0  0  0  0  0  0  0
   11.5263    0.6356    0.0000 C   0  0  2  0  0  0  0  0  0  0  0  0
    3.7320   -1.8644    0.0000 C   0  0  0  0  0  0  0  0  0  0  0  0
    5.4641   -1.8644    0.0000 C   0  0  0  0  0  0  0  0  0  0  0  0
   10.6603    1.1356    0.0000 C   0  0  0  0  0  0  0  0  0  0  0  0
   11.5263   -0.3644    0.0000 C   0  0  0  0  0  0  0  0  0  0  0  0
    3.7320   -2.8644    0.0000 C   0  0  0  0  0  0  0  0  0  0  0  0
    5.4641   -2.8644    0.0000 C   0  0  0  0  0  0  0  0  0  0  0  0
    4.5981   -3.3644    0.0000 C   0  0  0  0  0  0  0  0  0  0  0  0
   12.3923   -0.8644    0.0000 C   0  0  0  0  0  0  0  0  0  0  0  0
   13.2583   -0.3644    0.0000 C   0  0  0  0  0  0  0  0  0  0  0  0
   12.3923   -1.8644    0.0000 C   0  0  0  0  0  0  0  0  0  0  0  0
   12.3923    3.1356    0.0000 C   0  0  0  0  0  0  0  0  0  0  0  0
   14.1244   -0.8644    0.0000 C   0  0  0  0  0  0  0  0  0  0  0  0
   13.2583   -2.3644    0.0000 C   0  0  0  0  0  0  0  0  0  0  0  0
   13.2013    3.7234    0.0000 C   0  0  0  0  0  0  0  0  0  0  0  0
   14.1244   -1.8644    0.0000 C   0  0  0  0  0  0  0  0  0  0  0  0
   12.8923    4.6744    0.0000 C   0  0  0  0  0  0  0  0  0  0  0  0
   11.8923    4.6744    0.0000 C   0  0  0  0  0  0  0  0  0  0  0  0
    5.4641    0.5156    0.0000 H   0  0  0  0  0  0  0  0  0  0  0  0
    5.9316    0.1606    0.0000 H   0  0  0  0  0  0  0  0  0  0  0  0
    6.7287    0.1606    0.0000 H   0  0  0  0  0  0  0  0  0  0  0  0
    4.1306    1.6105    0.0000 H   0  0  0  0  0  0  0  0  0  0  0  0
    3.3335    1.6105    0.0000 H   0  0  0  0  0  0  0  0  0  0  0  0
    7.5947    1.6105    0.0000 H   0  0  0  0  0  0  0  0  0  0  0  0
    6.7976    1.6105    0.0000 H   0  0  0  0  0  0  0  0  0  0  0  0
    2.8660    1.2556    0.0000 H   0  0  0  0  0  0  0  0  0  0  0  0
    7.6636    0.1606    0.0000 H   0  0  0  0  0  0  0  0  0  0  0  0
    8.4607    0.1606    0.0000 H   0  0  0  0  0  0  0  0  0  0  0  0
    9.3267    1.6105    0.0000 H   0  0  0  0  0  0  0  0  0  0  0  0
    8.5297    1.6105    0.0000 H   0  0  0  0  0  0  0  0  0  0  0  0
    2.3100    1.6725    0.0000 H   0  0  0  0  0  0  0  0  0  0  0  0
    1.4631    1.4456    0.0000 H   0  0  0  0  0  0  0  0  0  0  0  0
    1.6900    0.5986    0.0000 H   0  0  0  0  0  0  0  0  0  0  0  0
    2.2460   -0.3644    0.0000 H   0  0  0  0  0  0  0  0  0  0  0  0
    2.8660   -0.9844    0.0000 H   0  0  0  0  0  0  0  0  0  0  0  0
    3.4860   -0.3644    0.0000 H   0  0  0  0  0  0  0  0  0  0  0  0
    9.7942    0.0156    0.0000 H   0  0  0  0  0  0  0  0  0  0  0  0
    6.8671    2.3256    0.0000 H   0  0  0  0  0  0  0  0  0  0  0  0
   12.0632    0.3256    0.0000 H   0  0  0  0  0  0  0  0  0  0  0  0
    3.1951   -1.5544    0.0000 H   0  0  0  0  0  0  0  0  0  0  0  0
    6.0010   -1.5544    0.0000 H   0  0  0  0  0  0  0  0  0  0  0  0
   10.9157   -0.2568    0.0000 H   0  0  0  0  0  0  0  0  0  0  0  0
   11.3142   -0.9470    0.0000 H   0  0  0  0  0  0  0  0  0  0  0  0
   12.9292    0.8256    0.0000 H   0  0  0  0  0  0  0  0  0  0  0  0
    3.1951   -3.1744    0.0000 H   0  0  0  0  0  0  0  0  0  0  0  0
    6.0010   -3.1744    0.0000 H   0  0  0  0  0  0  0  0  0  0  0  0
    6.8671    3.9456    0.0000 H   0  0  0  0  0  0  0  0  0  0  0  0
    5.7932    3.9456    0.0000 H   0  0  0  0  0  0  0  0  0  0  0  0
   13.2583    0.2556    0.0000 H   0  0  0  0  0  0  0  0  0  0  0  0
   11.8554   -2.1744    0.0000 H   0  0  0  0  0  0  0  0  0  0  0  0
    4.0611   -4.6744    0.0000 H   0  0  0  0  0  0  0  0  0  0  0  0
    5.1350   -4.6744    0.0000 H   0  0  0  0  0  0  0  0  0  0  0  0
   14.6613   -0.5544    0.0000 H   0  0  0  0  0  0  0  0  0  0  0  0
   13.2583   -2.9844    0.0000 H   0  0  0  0  0  0  0  0  0  0  0  0
   13.7910    3.5318    0.0000 H   0  0  0  0  0  0  0  0  0  0  0  0
   14.6613   -2.1744    0.0000 H   0  0  0  0  0  0  0  0  0  0  0  0
   13.2567    5.1760    0.0000 H   0  0  0  0  0  0  0  0  0  0  0  0
   11.5279    5.1760    0.0000 H   0  0  0  0  0  0  0  0  0  0  0  0
  1  4  2  0  0  0  0
  1  5  2  0  0  0  0
  1 10  1  0  0  0  0
  1 26  1  0  0  0  0
  2  8  2  0  0  0  0
  2  9  2  0  0  0  0
  2 13  1  0  0  0  0
  2 38  1  0  0  0  0
  3 38  1  0  0  0  0
  3 44  1  0  0  0  0
  6 22  2  0  0  0  0
  7 30  2  0  0  0  0
 16 10  1  6  0  0  0
 10 18  1  0  0  0  0
 11 23  1  0  0  0  0
 11 30  1  0  0  0  0
 11 63  1  0  0  0  0
 12 14  1  0  0  0  0
 12 22  1  0  0  0  0
 12 64  1  0  0  0  0
 27 13  1  1  0  0  0
 13 70  1  0  0  0  0
 14 73  1  0  0  0  0
 14 74  1  0  0  0  0
 15 34  1  0  0  0  0
 15 77  1  0  0  0  0
 15 78  1  0  0  0  0
 16 17  1  0  0  0  0
 16 22  1  0  0  0  0
 16 45  1  0  0  0  0
 17 19  1  0  0  0  0
 17 46  1  0  0  0  0
 17 47  1  0  0  0  0
 18 20  1  0  0  0  0
 18 48  1  0  0  0  0
 18 49  1  0  0  0  0
 19 21  1  0  0  0  0
 19 50  1  0  0  0  0
 19 51  1  0  0  0  0
 20 24  1  0  0  0  0
 20 25  1  0  0  0  0
 20 52  1  0  0  0  0
 21 23  1  0  0  0  0
 21 53  1  0  0  0  0
 21 54  1  0  0  0  0
 23 55  1  0  0  0  0
 23 56  1  0  0  0  0
 24 57  1  0  0  0  0
 24 58  1  0  0  0  0
 24 59  1  0  0  0  0
 25 60  1  0  0  0  0
 25 61  1  0  0  0  0
 25 62  1  0  0  0  0
 26 28  2  0  0  0  0
 26 29  1  0  0  0  0
 27 30  1  0  0  0  0
 27 31  1  0  0  0  0
 27 65  1  0  0  0  0
 28 32  1  0  0  0  0
 28 66  1  0  0  0  0
 29 33  2  0  0  0  0
 29 67  1  0  0  0  0
 31 35  1  0  0  0  0
 31 68  1  0  0  0  0
 31 69  1  0  0  0  0
 32 34  2  0  0  0  0
 32 71  1  0  0  0  0
 33 34  1  0  0  0  0
 33 72  1  0  0  0  0
 35 36  2  0  0  0  0
 35 37  1  0  0  0  0
 36 39  1  0  0  0  0
 36 75  1  0  0  0  0
 37 40  2  0  0  0  0
 37 76  1  0  0  0  0
 38 41  2  0  0  0  0
 39 42  2  0  0  0  0
 39 79  1  0  0  0  0
 40 42  1  0  0  0  0
 40 80  1  0  0  0  0
 41 43  1  0  0  0  0
 41 81  1  0  0  0  0
 42 82  1  0  0  0  0
 43 44  2  0  0  0  0
 43 83  1  0  0  0  0
 44 84  1  0  0  0  0
M  END
> <PUBCHEM_COMPOUND_CID>
508572
> <PUBCHEM_COMPOUND_CANONICALIZED>
1
> <PUBCHEM_CACTVS_COMPLEXITY>
1110
> <PUBCHEM_CACTVS_HBOND_ACCEPTOR>
11
> <PUBCHEM_CACTVS_HBOND_DONOR>
5
> <PUBCHEM_CACTVS_ROTATABLE_BOND>
17
> <PUBCHEM_CACTVS_SUBSKEYS>
AAADcfB7uABgAAAAAAAAAAAAAAAAASAAAAAwYAAAAAAAAAAB0AAAHgQYQAAADSjF2ASywYLiAAqMAiVSUHDDAZAgChJaqJmIZIgIYDKgkbGUIABglgCoyAcYiICOAAQAAAAAAAAACAAAAAAAAAAAAAAAAA==
> <PUBCHEM_IUPAC_OPENEYE_NAME>
(2S)-N-[(5S)-5-[(4-aminophenyl)sulfonyl-isobutyl-amino]-6-hydrazino-6-oxo-hexyl]-3-phenyl-2-(2-thienylsulfonylamino)propanamide
> <PUBCHEM_IUPAC_CAS_NAME>
(2S)-N-[(5S)-5-[(4-aminophenyl)sulfonyl-(2-methylpropyl)amino]-6-hydrazinyl-6-oxohexyl]-3-phenyl-2-(thiophen-2-ylsulfonylamino)propanamide
> <PUBCHEM_IUPAC_NAME_MARKUP>
(2<I>S</I>)-<I>N</I>-[(5<I>S</I>)-5-[(4-aminophenyl)sulfonyl-(2-methylpropyl)amino]-6-hydrazinyl-6-oxohexyl]-3-phenyl-2-(thiophen-2-ylsulfonylamino)propanamide
> <PUBCHEM_IUPAC_NAME>
(2S)-N-[(5S)-5-[(4-aminophenyl)sulfonyl-(2-methylpropyl)amino]-6-hydrazinyl-6-oxohexyl]-3-phenyl-2-(thiophen-2-ylsulfonylamino)propanamide
> <PUBCHEM_IUPAC_SYSTEMATIC_NAME>
(2S)-N-[(5S)-5-[(4-aminophenyl)sulfonyl-(2-methylpropyl)amino]-6-diazanyl-6-oxidanylidene-hexyl]-3-phenyl-2-(thiophen-2-ylsulfonylamino)propanamide
> <PUBCHEM_IUPAC_TRADITIONAL_NAME>
(2S)-N-[(5S)-6-hydrazino-5-[isobutyl(sulfanilyl)amino]-6-keto-hexyl]-3-phenyl-2-(2-thienylsulfonylamino)propionamide
> <PUBCHEM_IUPAC_INCHI>
InChI=1S/C29H40N6O6S3/c1-21(2)20-35(44(40,41)24-15-13-23(30)14-16-24)26(29(37)33-31)11-6-7-17-32-28(36)25(19-22-9-4-3-5-10-22)34-43(38,39)27-12-8-18-42-27/h3-5,8-10,12-16,18,21,25-26,34H,6-7,11,17,19-20,30-31H2,1-2H3,(H,32,36)(H,33,37)/t25-,26-/m0/s1
> <PUBCHEM_IUPAC_INCHIKEY>
SXEYMWWJWUMZOI-UIOOFZCWSA-N
> <PUBCHEM_XLOGP3_AA>
3.4
> <PUBCHEM_EXACT_MASS>
664.21714654
> <PUBCHEM_MOLECULAR_FORMULA>
C29H40N6O6S3
> <PUBCHEM_MOLECULAR_WEIGHT>
664.9
> <PUBCHEM_OPENEYE_CAN_SMILES>
CC(C)CN(C(CCCCNC(=O)C(CC1=CC=CC=C1)NS(=O)(=O)C2=CC=CS2)C(=O)NN)S(=O)(=O)C3=CC=C(C=C3)N
> <PUBCHEM_OPENEYE_ISO_SMILES>
CC(C)CN([C@@H](CCCCNC(=O)[C@H](CC1=CC=CC=C1)NS(=O)(=O)C2=CC=CS2)C(=O)NN)S(=O)(=O)C3=CC=C(C=C3)N
> <PUBCHEM_CACTVS_TPSA>
239
> <PUBCHEM_MONOISOTOPIC_WEIGHT>
664.21714654
> <PUBCHEM_TOTAL_CHARGE>
0
> <PUBCHEM_HEAVY_ATOM_COUNT>
44
> <PUBCHEM_ATOM_DEF_STEREO_COUNT>
2
> <PUBCHEM_ATOM_UDEF_STEREO_COUNT>
0
> <PUBCHEM_BOND_DEF_STEREO_COUNT>
0
> <PUBCHEM_BOND_UDEF_STEREO_COUNT>
0
> <PUBCHEM_ISOTOPIC_ATOM_COUNT>
0
> <PUBCHEM_COMPONENT_COUNT>
1
> <PUBCHEM_CACTVS_TAUTO_COUNT>
-1
> <PUBCHEM_COORDINATE_TYPE>
1
5
255
> <PUBCHEM_BONDANNOTATIONS>
16  10  6
27  13  5
26  28  8
26  29  8
28  32  8
29  33  8
3  38  8
3  44  8
32  34  8
33  34  8
35  36  8
35  37  8
36  39  8
37  40  8
38  41  8
39  42  8
40  42  8
41  43  8
43  44  8
$$$$
