508653
  -OEChem-10302200282D
 82 84  0     1  0  0  0  0  0999 V2000
    4.8494    3.6416    0.0000 S   0  0  0  0  0  0  0  0  0  0  0  0
    6.8529    1.4087    0.0000 O   0  0  0  0  0  0  0  0  0  0  0  0
    3.8989    3.9523    0.0000 O   0  0  0  0  0  0  0  0  0  0  0  0
    5.7999    3.3310    0.0000 O   0  0  0  0  0  0  0  0  0  0  0  0
    7.2566   -2.9314    0.0000 O   0  0  0  0  0  0  0  0  0  0  0  0
    7.9244   -3.6757    0.0000 O   0  0  0  0  0  0  0  0  0  0  0  0
    4.5387    2.6911    0.0000 N   0  0  3  0  0  0  0  0  0  0  0  0
    5.6103   -2.3934    0.0000 N   0  0  0  0  0  0  0  0  0  0  0  0
    6.6353   -4.8325    0.0000 N   0  0  0  0  0  0  0  0  0  0  0  0
    4.6783   -6.8544    0.0000 N   0  0  0  0  0  0  0  0  0  0  0  0
    5.2066    1.9468    0.0000 C   0  0  1  0  0  0  0  0  0  0  0  0
    4.8959    0.9963    0.0000 C   0  0  0  0  0  0  0  0  0  0  0  0
    3.5602    2.4849    0.0000 C   0  0  0  0  0  0  0  0  0  0  0  0
    5.5637    0.2520    0.0000 C   0  0  0  0  0  0  0  0  0  0  0  0
    3.2496    1.5344    0.0000 C   0  0  0  0  0  0  0  0  0  0  0  0
    6.1851    2.1530    0.0000 C   0  0  0  0  0  0  0  0  0  0  0  0
    5.2531   -0.6985    0.0000 C   0  0  0  0  0  0  0  0  0  0  0  0
    5.1600    4.5922    0.0000 C   0  0  0  0  0  0  0  0  0  0  0  0
    5.9209   -1.4428    0.0000 C   0  0  0  0  0  0  0  0  0  0  0  0
    2.2710    1.3282    0.0000 C   0  0  0  0  0  0  0  0  0  0  0  0
    3.9174    0.7901    0.0000 C   0  0  0  0  0  0  0  0  0  0  0  0
    5.9674   -4.0882    0.0000 C   0  0  1  0  0  0  0  0  0  0  0  0
    4.4922    5.3364    0.0000 C   0  0  0  0  0  0  0  0  0  0  0  0
    6.1385    4.7984    0.0000 C   0  0  0  0  0  0  0  0  0  0  0  0
    4.9889   -4.2944    0.0000 C   0  0  0  0  0  0  0  0  0  0  0  0
    6.2781   -3.1377    0.0000 C   0  0  0  0  0  0  0  0  0  0  0  0
    4.6783   -5.2449    0.0000 C   0  0  0  0  0  0  0  0  0  0  0  0
    4.8029    6.2870    0.0000 C   0  0  0  0  0  0  0  0  0  0  0  0
    6.4492    5.7489    0.0000 C   0  0  0  0  0  0  0  0  0  0  0  0
    5.7814    6.4932    0.0000 C   0  0  0  0  0  0  0  0  0  0  0  0
    3.7320   -5.5496    0.0000 C   0  0  0  0  0  0  0  0  0  0  0  0
    3.7320   -6.5496    0.0000 C   0  0  0  0  0  0  0  0  0  0  0  0
    5.2619   -6.0496    0.0000 C   0  0  0  0  0  0  0  0  0  0  0  0
    2.8660   -5.0496    0.0000 C   0  0  0  0  0  0  0  0  0  0  0  0
    6.0920    7.4437    0.0000 C   0  0  0  0  0  0  0  0  0  0  0  0
    2.8660   -7.0496    0.0000 C   0  0  0  0  0  0  0  0  0  0  0  0
    7.6138   -4.6263    0.0000 C   0  0  0  0  0  0  0  0  0  0  0  0
    2.0000   -5.5496    0.0000 C   0  0  0  0  0  0  0  0  0  0  0  0
    2.0000   -6.5496    0.0000 C   0  0  0  0  0  0  0  0  0  0  0  0
    8.2816   -5.3706    0.0000 C   0  0  0  0  0  0  0  0  0  0  0  0
    5.3992    2.5361    0.0000 H   0  0  0  0  0  0  0  0  0  0  0  0
    4.3490    1.2883    0.0000 H   0  0  0  0  0  0  0  0  0  0  0  0
    4.5133    0.5084    0.0000 H   0  0  0  0  0  0  0  0  0  0  0  0
    3.5396    3.1046    0.0000 H   0  0  0  0  0  0  0  0  0  0  0  0
    2.9464    2.5722    0.0000 H   0  0  0  0  0  0  0  0  0  0  0  0
    6.1107   -0.0400    0.0000 H   0  0  0  0  0  0  0  0  0  0  0  0
    5.9463    0.7399    0.0000 H   0  0  0  0  0  0  0  0  0  0  0  0
    3.8562    1.6622    0.0000 H   0  0  0  0  0  0  0  0  0  0  0  0
    6.7114    2.4807    0.0000 H   0  0  0  0  0  0  0  0  0  0  0  0
    5.9538    2.7283    0.0000 H   0  0  0  0  0  0  0  0  0  0  0  0
    4.7062   -0.4065    0.0000 H   0  0  0  0  0  0  0  0  0  0  0  0
    4.8705   -1.1864    0.0000 H   0  0  0  0  0  0  0  0  0  0  0  0
    6.4678   -1.7349    0.0000 H   0  0  0  0  0  0  0  0  0  0  0  0
    6.3035   -0.9549    0.0000 H   0  0  0  0  0  0  0  0  0  0  0  0
    2.1432    1.9348    0.0000 H   0  0  0  0  0  0  0  0  0  0  0  0
    1.6644    1.2003    0.0000 H   0  0  0  0  0  0  0  0  0  0  0  0
    2.3989    0.7215    0.0000 H   0  0  0  0  0  0  0  0  0  0  0  0
    3.4559    0.3760    0.0000 H   0  0  0  0  0  0  0  0  0  0  0  0
    4.3314    0.3286    0.0000 H   0  0  0  0  0  0  0  0  0  0  0  0
    4.3789    1.2041    0.0000 H   0  0  0  0  0  0  0  0  0  0  0  0
    5.0036   -2.5212    0.0000 H   0  0  0  0  0  0  0  0  0  0  0  0
    5.7748   -4.6775    0.0000 H   0  0  0  0  0  0  0  0  0  0  0  0
    7.4596    1.5366    0.0000 H   0  0  0  0  0  0  0  0  0  0  0  0
    3.8855    5.2086    0.0000 H   0  0  0  0  0  0  0  0  0  0  0  0
    6.5526    4.3369    0.0000 H   0  0  0  0  0  0  0  0  0  0  0  0
    4.9684   -3.6747    0.0000 H   0  0  0  0  0  0  0  0  0  0  0  0
    4.3751   -4.2070    0.0000 H   0  0  0  0  0  0  0  0  0  0  0  0
    4.3888    6.7484    0.0000 H   0  0  0  0  0  0  0  0  0  0  0  0
    7.0559    5.8767    0.0000 H   0  0  0  0  0  0  0  0  0  0  0  0
    6.4427   -5.4218    0.0000 H   0  0  0  0  0  0  0  0  0  0  0  0
    5.8819   -6.0496    0.0000 H   0  0  0  0  0  0  0  0  0  0  0  0
    4.8709   -7.4437    0.0000 H   0  0  0  0  0  0  0  0  0  0  0  0
    2.8660   -4.4296    0.0000 H   0  0  0  0  0  0  0  0  0  0  0  0
    6.6814    7.2511    0.0000 H   0  0  0  0  0  0  0  0  0  0  0  0
    6.2846    8.0330    0.0000 H   0  0  0  0  0  0  0  0  0  0  0  0
    5.5027    7.6363    0.0000 H   0  0  0  0  0  0  0  0  0  0  0  0
    2.8660   -7.6696    0.0000 H   0  0  0  0  0  0  0  0  0  0  0  0
    1.4631   -5.2396    0.0000 H   0  0  0  0  0  0  0  0  0  0  0  0
    1.4631   -6.8596    0.0000 H   0  0  0  0  0  0  0  0  0  0  0  0
    7.8202   -5.7846    0.0000 H   0  0  0  0  0  0  0  0  0  0  0  0
    8.6957   -5.8320    0.0000 H   0  0  0  0  0  0  0  0  0  0  0  0
    8.7431   -4.9565    0.0000 H   0  0  0  0  0  0  0  0  0  0  0  0
  1  3  2  0  0  0  0
  1  4  2  0  0  0  0
  1  7  1  0  0  0  0
  1 18  1  0  0  0  0
  2 16  1  0  0  0  0
  2 63  1  0  0  0  0
  5 26  2  0  0  0  0
  6 37  2  0  0  0  0
 11  7  1  6  0  0  0
  7 13  1  0  0  0  0
  8 19  1  0  0  0  0
  8 26  1  0  0  0  0
  8 61  1  0  0  0  0
 22  9  1  1  0  0  0
  9 37  1  0  0  0  0
  9 70  1  0  0  0  0
 10 32  1  0  0  0  0
 10 33  1  0  0  0  0
 10 72  1  0  0  0  0
 11 12  1  0  0  0  0
 11 16  1  0  0  0  0
 11 41  1  0  0  0  0
 12 14  1  0  0  0  0
 12 42  1  0  0  0  0
 12 43  1  0  0  0  0
 13 15  1  0  0  0  0
 13 44  1  0  0  0  0
 13 45  1  0  0  0  0
 14 17  1  0  0  0  0
 14 46  1  0  0  0  0
 14 47  1  0  0  0  0
 15 20  1  0  0  0  0
 15 21  1  0  0  0  0
 15 48  1  0  0  0  0
 16 49  1  0  0  0  0
 16 50  1  0  0  0  0
 17 19  1  0  0  0  0
 17 51  1  0  0  0  0
 17 52  1  0  0  0  0
 18 23  2  0  0  0  0
 18 24  1  0  0  0  0
 19 53  1  0  0  0  0
 19 54  1  0  0  0  0
 20 55  1  0  0  0  0
 20 56  1  0  0  0  0
 20 57  1  0  0  0  0
 21 58  1  0  0  0  0
 21 59  1  0  0  0  0
 21 60  1  0  0  0  0
 22 25  1  0  0  0  0
 22 26  1  0  0  0  0
 22 62  1  0  0  0  0
 23 28  1  0  0  0  0
 23 64  1  0  0  0  0
 24 29  2  0  0  0  0
 24 65  1  0  0  0  0
 25 27  1  0  0  0  0
 25 66  1  0  0  0  0
 25 67  1  0  0  0  0
 27 31  1  0  0  0  0
 27 33  2  0  0  0  0
 28 30  2  0  0  0  0
 28 68  1  0  0  0  0
 29 30  1  0  0  0  0
 29 69  1  0  0  0  0
 30 35  1  0  0  0  0
 31 32  1  0  0  0  0
 31 34  2  0  0  0  0
 32 36  2  0  0  0  0
 33 71  1  0  0  0  0
 34 38  1  0  0  0  0
 34 73  1  0  0  0  0
 35 74  1  0  0  0  0
 35 75  1  0  0  0  0
 35 76  1  0  0  0  0
 36 39  1  0  0  0  0
 36 77  1  0  0  0  0
 37 40  1  0  0  0  0
 38 39  2  0  0  0  0
 38 78  1  0  0  0  0
 39 79  1  0  0  0  0
 40 80  1  0  0  0  0
 40 81  1  0  0  0  0
 40 82  1  0  0  0  0
M  END
> <PUBCHEM_COMPOUND_CID>
508653
> <PUBCHEM_COMPOUND_CANONICALIZED>
1
> <PUBCHEM_CACTVS_COMPLEXITY>
900
> <PUBCHEM_CACTVS_HBOND_ACCEPTOR>
6
> <PUBCHEM_CACTVS_HBOND_DONOR>
4
> <PUBCHEM_CACTVS_ROTATABLE_BOND>
15
> <PUBCHEM_CACTVS_SUBSKEYS>
AAADcfB7uABAAAAAAAAAAAAAAAAAAWAAAAAwYAAAAAAAAFgB9AAAHgQQSAAADSjh3gY+wfLJkgKoAzV3VHDCgDAxAiAI2bm4ZJgKcPLAkbGUYAhklgDYyAeYycCOkAAAAAACAAAgAAAAAAQAAAAAAAAAAA==
> <PUBCHEM_IUPAC_OPENEYE_NAME>
(2S)-2-acetamido-N-[(5S)-6-hydroxy-5-[isobutyl(p-tolylsulfonyl)amino]hexyl]-3-(1H-indol-3-yl)propanamide
> <PUBCHEM_IUPAC_CAS_NAME>
(2S)-2-acetamido-N-[(5S)-6-hydroxy-5-[(4-methylphenyl)sulfonyl-(2-methylpropyl)amino]hexyl]-3-(1H-indol-3-yl)propanamide
> <PUBCHEM_IUPAC_NAME_MARKUP>
(2<I>S</I>)-2-acetamido-<I>N</I>-[(5<I>S</I>)-6-hydroxy-5-[(4-methylphenyl)sulfonyl-(2-methylpropyl)amino]hexyl]-3-(1<I>H</I>-indol-3-yl)propanamide
> <PUBCHEM_IUPAC_NAME>
(2S)-2-acetamido-N-[(5S)-6-hydroxy-5-[(4-methylphenyl)sulfonyl-(2-methylpropyl)amino]hexyl]-3-(1H-indol-3-yl)propanamide
> <PUBCHEM_IUPAC_SYSTEMATIC_NAME>
(2S)-2-acetamido-3-(1H-indol-3-yl)-N-[(5S)-5-[(4-methylphenyl)sulfonyl-(2-methylpropyl)amino]-6-oxidanyl-hexyl]propanamide
> <PUBCHEM_IUPAC_TRADITIONAL_NAME>
(2S)-2-acetamido-N-[(5S)-6-hydroxy-5-[isobutyl(tosyl)amino]hexyl]-3-(1H-indol-3-yl)propionamide
> <PUBCHEM_IUPAC_INCHI>
InChI=1S/C30H42N4O5S/c1-21(2)19-34(40(38,39)26-14-12-22(3)13-15-26)25(20-35)9-7-8-16-31-30(37)29(33-23(4)36)17-24-18-32-28-11-6-5-10-27(24)28/h5-6,10-15,18,21,25,29,32,35H,7-9,16-17,19-20H2,1-4H3,(H,31,37)(H,33,36)/t25-,29-/m0/s1
> <PUBCHEM_IUPAC_INCHIKEY>
PJXCGRWTFZQKPP-SVEHJYQDSA-N
> <PUBCHEM_XLOGP3_AA>
4
> <PUBCHEM_EXACT_MASS>
570.28759163
> <PUBCHEM_MOLECULAR_FORMULA>
C30H42N4O5S
> <PUBCHEM_MOLECULAR_WEIGHT>
570.7
> <PUBCHEM_OPENEYE_CAN_SMILES>
CC1=CC=C(C=C1)S(=O)(=O)N(CC(C)C)C(CCCCNC(=O)C(CC2=CNC3=CC=CC=C32)NC(=O)C)CO
> <PUBCHEM_OPENEYE_ISO_SMILES>
CC1=CC=C(C=C1)S(=O)(=O)N(CC(C)C)[C@@H](CCCCNC(=O)[C@H](CC2=CNC3=CC=CC=C32)NC(=O)C)CO
> <PUBCHEM_CACTVS_TPSA>
140
> <PUBCHEM_MONOISOTOPIC_WEIGHT>
570.28759163
> <PUBCHEM_TOTAL_CHARGE>
0
> <PUBCHEM_HEAVY_ATOM_COUNT>
40
> <PUBCHEM_ATOM_DEF_STEREO_COUNT>
2
> <PUBCHEM_ATOM_UDEF_STEREO_COUNT>
0
> <PUBCHEM_BOND_DEF_STEREO_COUNT>
0
> <PUBCHEM_BOND_UDEF_STEREO_COUNT>
0
> <PUBCHEM_ISOTOPIC_ATOM_COUNT>
0
> <PUBCHEM_COMPONENT_COUNT>
1
> <PUBCHEM_CACTVS_TAUTO_COUNT>
-1
> <PUBCHEM_COORDINATE_TYPE>
1
5
255
> <PUBCHEM_BONDANNOTATIONS>
10  32  8
10  33  8
18  23  8
18  24  8
23  28  8
24  29  8
27  31  8
27  33  8
28  30  8
29  30  8
31  32  8
31  34  8
32  36  8
34  38  8
36  39  8
38  39  8
11  7  6
22  9  5
$$$$
