508692
  -OEChem-10302200282D
 91 94  0     1  0  0  0  0  0999 V2000
   13.2207   -1.9382    0.0000 S   0  0  0  0  0  0  0  0  0  0  0  0
   10.2852   -2.5569    0.0000 O   0  0  0  0  0  0  0  0  0  0  0  0
   13.9650   -1.2704    0.0000 O   0  0  0  0  0  0  0  0  0  0  0  0
   12.4764   -2.6061    0.0000 O   0  0  0  0  0  0  0  0  0  0  0  0
    6.5422    5.5048    0.0000 O   0  0  0  0  0  0  0  0  0  0  0  0
    6.3246   -0.7364    0.0000 O   0  0  0  0  0  0  0  0  0  0  0  0
    4.6318    2.4470    0.0000 O   0  0  0  0  0  0  0  0  0  0  0  0
   12.5528   -1.1939    0.0000 N   0  0  3  0  0  0  0  0  0  0  0  0
    7.6138    0.4203    0.0000 N   0  0  0  0  0  0  0  0  0  0  0  0
    6.2781    1.9089    0.0000 N   0  0  0  0  0  0  0  0  0  0  0  0
    5.9209    3.6037    0.0000 N   0  0  0  0  0  0  0  0  0  0  0  0
    4.6783   -1.8078    0.0000 N   0  0  0  0  0  0  0  0  0  0  0  0
   15.8921   -4.9154    0.0000 N   0  0  0  0  0  0  0  0  0  0  0  0
   11.5743   -1.4002    0.0000 C   0  0  1  0  0  0  0  0  0  0  0  0
   10.9065   -0.6559    0.0000 C   0  0  0  0  0  0  0  0  0  0  0  0
   12.8635   -0.2434    0.0000 C   0  0  0  0  0  0  0  0  0  0  0  0
    9.9280   -0.8621    0.0000 C   0  0  0  0  0  0  0  0  0  0  0  0
   12.1957    0.5009    0.0000 C   0  0  0  0  0  0  0  0  0  0  0  0
   11.2637   -2.3507    0.0000 C   0  0  0  0  0  0  0  0  0  0  0  0
    9.2601   -0.1178    0.0000 C   0  0  0  0  0  0  0  0  0  0  0  0
    8.2816   -0.3240    0.0000 C   0  0  0  0  0  0  0  0  0  0  0  0
   13.8885   -2.6826    0.0000 C   0  0  0  0  0  0  0  0  0  0  0  0
   12.5063    1.4514    0.0000 C   0  0  0  0  0  0  0  0  0  0  0  0
   11.2171    0.2947    0.0000 C   0  0  0  0  0  0  0  0  0  0  0  0
    5.9674    0.9584    0.0000 C   0  0  1  0  0  0  0  0  0  0  0  0
    4.9889    0.7522    0.0000 C   0  0  0  0  0  0  0  0  0  0  0  0
    6.6353    0.2141    0.0000 C   0  0  0  0  0  0  0  0  0  0  0  0
   13.5779   -3.6331    0.0000 C   0  0  0  0  0  0  0  0  0  0  0  0
   14.8670   -2.4763    0.0000 C   0  0  0  0  0  0  0  0  0  0  0  0
    4.6783   -0.1983    0.0000 C   0  0  0  0  0  0  0  0  0  0  0  0
    3.7320   -0.5031    0.0000 C   0  0  0  0  0  0  0  0  0  0  0  0
    5.6103    2.6532    0.0000 C   0  0  0  0  0  0  0  0  0  0  0  0
    5.2531    4.3480    0.0000 C   0  0  0  0  0  0  0  0  0  0  0  0
    6.8994    3.8100    0.0000 C   0  0  0  0  0  0  0  0  0  0  0  0
   14.2457   -4.3774    0.0000 C   0  0  0  0  0  0  0  0  0  0  0  0
   15.5349   -3.2206    0.0000 C   0  0  0  0  0  0  0  0  0  0  0  0
    5.2619   -1.0031    0.0000 C   0  0  0  0  0  0  0  0  0  0  0  0
    3.7320   -1.5031    0.0000 C   0  0  0  0  0  0  0  0  0  0  0  0
   15.2242   -4.1712    0.0000 C   0  0  0  0  0  0  0  0  0  0  0  0
    5.5637    5.2986    0.0000 C   0  0  0  0  0  0  0  0  0  0  0  0
    7.2101    4.7605    0.0000 C   0  0  0  0  0  0  0  0  0  0  0  0
    2.8660   -0.0031    0.0000 C   0  0  0  0  0  0  0  0  0  0  0  0
    2.8660   -2.0031    0.0000 C   0  0  0  0  0  0  0  0  0  0  0  0
    2.0000   -0.5031    0.0000 C   0  0  0  0  0  0  0  0  0  0  0  0
    2.0000   -1.5031    0.0000 C   0  0  0  0  0  0  0  0  0  0  0  0
   11.7669   -0.8108    0.0000 H   0  0  0  0  0  0  0  0  0  0  0  0
   11.4328   -0.3282    0.0000 H   0  0  0  0  0  0  0  0  0  0  0  0
   10.6752   -0.0806    0.0000 H   0  0  0  0  0  0  0  0  0  0  0  0
   13.4104   -0.5354    0.0000 H   0  0  0  0  0  0  0  0  0  0  0  0
   13.2461    0.2445    0.0000 H   0  0  0  0  0  0  0  0  0  0  0  0
    9.4016   -1.1897    0.0000 H   0  0  0  0  0  0  0  0  0  0  0  0
   10.1592   -1.4373    0.0000 H   0  0  0  0  0  0  0  0  0  0  0  0
   12.0030   -0.0884    0.0000 H   0  0  0  0  0  0  0  0  0  0  0  0
   11.2842   -2.9703    0.0000 H   0  0  0  0  0  0  0  0  0  0  0  0
   11.8775   -2.4380    0.0000 H   0  0  0  0  0  0  0  0  0  0  0  0
    9.7865    0.2099    0.0000 H   0  0  0  0  0  0  0  0  0  0  0  0
    9.0289    0.4575    0.0000 H   0  0  0  0  0  0  0  0  0  0  0  0
    7.7553   -0.6516    0.0000 H   0  0  0  0  0  0  0  0  0  0  0  0
    8.5129   -0.8992    0.0000 H   0  0  0  0  0  0  0  0  0  0  0  0
   13.0956    1.2588    0.0000 H   0  0  0  0  0  0  0  0  0  0  0  0
   12.6989    2.0407    0.0000 H   0  0  0  0  0  0  0  0  0  0  0  0
   11.9170    1.6440    0.0000 H   0  0  0  0  0  0  0  0  0  0  0  0
   11.0893    0.9013    0.0000 H   0  0  0  0  0  0  0  0  0  0  0  0
   10.6105    0.1668    0.0000 H   0  0  0  0  0  0  0  0  0  0  0  0
   11.3450   -0.3120    0.0000 H   0  0  0  0  0  0  0  0  0  0  0  0
    5.5534    1.4199    0.0000 H   0  0  0  0  0  0  0  0  0  0  0  0
    7.8064    1.0096    0.0000 H   0  0  0  0  0  0  0  0  0  0  0  0
    4.9684    1.3718    0.0000 H   0  0  0  0  0  0  0  0  0  0  0  0
    4.3751    0.8395    0.0000 H   0  0  0  0  0  0  0  0  0  0  0  0
   10.0926   -3.1462    0.0000 H   0  0  0  0  0  0  0  0  0  0  0  0
   12.9712   -3.7609    0.0000 H   0  0  0  0  0  0  0  0  0  0  0  0
   15.0596   -1.8870    0.0000 H   0  0  0  0  0  0  0  0  0  0  0  0
    6.8848    2.0368    0.0000 H   0  0  0  0  0  0  0  0  0  0  0  0
    4.7062    4.6400    0.0000 H   0  0  0  0  0  0  0  0  0  0  0  0
    4.8705    3.8601    0.0000 H   0  0  0  0  0  0  0  0  0  0  0  0
    6.9200    3.1903    0.0000 H   0  0  0  0  0  0  0  0  0  0  0  0
    7.5132    3.7226    0.0000 H   0  0  0  0  0  0  0  0  0  0  0  0
   14.0531   -4.9667    0.0000 H   0  0  0  0  0  0  0  0  0  0  0  0
   16.1415   -3.0928    0.0000 H   0  0  0  0  0  0  0  0  0  0  0  0
    5.8819   -1.0031    0.0000 H   0  0  0  0  0  0  0  0  0  0  0  0
    5.5432    5.9182    0.0000 H   0  0  0  0  0  0  0  0  0  0  0  0
    4.9499    5.3859    0.0000 H   0  0  0  0  0  0  0  0  0  0  0  0
    7.7570    4.4684    0.0000 H   0  0  0  0  0  0  0  0  0  0  0  0
    7.5926    5.2484    0.0000 H   0  0  0  0  0  0  0  0  0  0  0  0
    4.8709   -2.3971    0.0000 H   0  0  0  0  0  0  0  0  0  0  0  0
    2.8660    0.6169    0.0000 H   0  0  0  0  0  0  0  0  0  0  0  0
    2.8660   -2.6231    0.0000 H   0  0  0  0  0  0  0  0  0  0  0  0
    1.4631   -0.1931    0.0000 H   0  0  0  0  0  0  0  0  0  0  0  0
    1.4631   -1.8131    0.0000 H   0  0  0  0  0  0  0  0  0  0  0  0
   16.4987   -4.7876    0.0000 H   0  0  0  0  0  0  0  0  0  0  0  0
   15.6994   -5.5048    0.0000 H   0  0  0  0  0  0  0  0  0  0  0  0
  1  3  2  0  0  0  0
  1  4  2  0  0  0  0
  1  8  1  0  0  0  0
  1 22  1  0  0  0  0
  2 19  1  0  0  0  0
  2 70  1  0  0  0  0
  5 40  1  0  0  0  0
  5 41  1  0  0  0  0
  6 27  2  0  0  0  0
  7 32  2  0  0  0  0
 14  8  1  6  0  0  0
  8 16  1  0  0  0  0
  9 21  1  0  0  0  0
  9 27  1  0  0  0  0
  9 67  1  0  0  0  0
 25 10  1  6  0  0  0
 10 32  1  0  0  0  0
 10 73  1  0  0  0  0
 11 32  1  0  0  0  0
 11 33  1  0  0  0  0
 11 34  1  0  0  0  0
 12 37  1  0  0  0  0
 12 38  1  0  0  0  0
 12 85  1  0  0  0  0
 13 39  1  0  0  0  0
 13 90  1  0  0  0  0
 13 91  1  0  0  0  0
 14 15  1  0  0  0  0
 14 19  1  0  0  0  0
 14 46  1  0  0  0  0
 15 17  1  0  0  0  0
 15 47  1  0  0  0  0
 15 48  1  0  0  0  0
 16 18  1  0  0  0  0
 16 49  1  0  0  0  0
 16 50  1  0  0  0  0
 17 20  1  0  0  0  0
 17 51  1  0  0  0  0
 17 52  1  0  0  0  0
 18 23  1  0  0  0  0
 18 24  1  0  0  0  0
 18 53  1  0  0  0  0
 19 54  1  0  0  0  0
 19 55  1  0  0  0  0
 20 21  1  0  0  0  0
 20 56  1  0  0  0  0
 20 57  1  0  0  0  0
 21 58  1  0  0  0  0
 21 59  1  0  0  0  0
 22 28  2  0  0  0  0
 22 29  1  0  0  0  0
 23 60  1  0  0  0  0
 23 61  1  0  0  0  0
 23 62  1  0  0  0  0
 24 63  1  0  0  0  0
 24 64  1  0  0  0  0
 24 65  1  0  0  0  0
 25 26  1  0  0  0  0
 25 27  1  0  0  0  0
 25 66  1  0  0  0  0
 26 30  1  0  0  0  0
 26 68  1  0  0  0  0
 26 69  1  0  0  0  0
 28 35  1  0  0  0  0
 28 71  1  0  0  0  0
 29 36  2  0  0  0  0
 29 72  1  0  0  0  0
 30 31  1  0  0  0  0
 30 37  2  0  0  0  0
 31 38  1  0  0  0  0
 31 42  2  0  0  0  0
 33 40  1  0  0  0  0
 33 74  1  0  0  0  0
 33 75  1  0  0  0  0
 34 41  1  0  0  0  0
 34 76  1  0  0  0  0
 34 77  1  0  0  0  0
 35 39  2  0  0  0  0
 35 78  1  0  0  0  0
 36 39  1  0  0  0  0
 36 79  1  0  0  0  0
 37 80  1  0  0  0  0
 38 43  2  0  0  0  0
 40 81  1  0  0  0  0
 40 82  1  0  0  0  0
 41 83  1  0  0  0  0
 41 84  1  0  0  0  0
 42 44  1  0  0  0  0
 42 86  1  0  0  0  0
 43 45  1  0  0  0  0
 43 87  1  0  0  0  0
 44 45  2  0  0  0  0
 44 88  1  0  0  0  0
 45 89  1  0  0  0  0
M  END
> <PUBCHEM_COMPOUND_CID>
508692
> <PUBCHEM_COMPOUND_CANONICALIZED>
1
> <PUBCHEM_CACTVS_COMPLEXITY>
1030
> <PUBCHEM_CACTVS_HBOND_ACCEPTOR>
8
> <PUBCHEM_CACTVS_HBOND_DONOR>
5
> <PUBCHEM_CACTVS_ROTATABLE_BOND>
15
> <PUBCHEM_CACTVS_SUBSKEYS>
AAADcfB/uABAAAAAAAAAAAAAAAAAAWAAAAA8YIAAAAAAAFgB9AAAHgQQSAAADSjh3gY/wfPJlgKoAzV3VHDCgDAxAiAI2bm4ZJiKcPLAkbGXYAhslgLYyAeYycCOgAQAAAACAAAACAAAAAQAAAAAAAAAAA==
> <PUBCHEM_IUPAC_OPENEYE_NAME>
N-[(1S)-2-[[(5S)-5-[(4-aminophenyl)sulfonyl-isobutyl-amino]-6-hydroxy-hexyl]amino]-1-(1H-indol-3-ylmethyl)-2-oxo-ethyl]morpholine-4-carboxamide
> <PUBCHEM_IUPAC_CAS_NAME>
N-[(2S)-1-[[(5S)-5-[(4-aminophenyl)sulfonyl-(2-methylpropyl)amino]-6-hydroxyhexyl]amino]-3-(1H-indol-3-yl)-1-oxopropan-2-yl]-4-morpholinecarboxamide
> <PUBCHEM_IUPAC_NAME_MARKUP>
<I>N</I>-[(2<I>S</I>)-1-[[(5<I>S</I>)-5-[(4-aminophenyl)sulfonyl-(2-methylpropyl)amino]-6-hydroxyhexyl]amino]-3-(1<I>H</I>-indol-3-yl)-1-oxopropan-2-yl]morpholine-4-carboxamide
> <PUBCHEM_IUPAC_NAME>
N-[(2S)-1-[[(5S)-5-[(4-aminophenyl)sulfonyl-(2-methylpropyl)amino]-6-hydroxyhexyl]amino]-3-(1H-indol-3-yl)-1-oxopropan-2-yl]morpholine-4-carboxamide
> <PUBCHEM_IUPAC_SYSTEMATIC_NAME>
N-[(2S)-1-[[(5S)-5-[(4-aminophenyl)sulfonyl-(2-methylpropyl)amino]-6-oxidanyl-hexyl]amino]-3-(1H-indol-3-yl)-1-oxidanylidene-propan-2-yl]morpholine-4-carboxamide
> <PUBCHEM_IUPAC_TRADITIONAL_NAME>
N-[(1S)-2-[[(5S)-6-hydroxy-5-[isobutyl(sulfanilyl)amino]hexyl]amino]-1-(1H-indol-3-ylmethyl)-2-keto-ethyl]morpholine-4-carboxamide
> <PUBCHEM_IUPAC_INCHI>
InChI=1S/C32H46N6O6S/c1-23(2)21-38(45(42,43)27-12-10-25(33)11-13-27)26(22-39)7-5-6-14-34-31(40)30(36-32(41)37-15-17-44-18-16-37)19-24-20-35-29-9-4-3-8-28(24)29/h3-4,8-13,20,23,26,30,35,39H,5-7,14-19,21-22,33H2,1-2H3,(H,34,40)(H,36,41)/t26-,30-/m0/s1
> <PUBCHEM_IUPAC_INCHIKEY>
SUYCRUVXUXRVDI-YZNIXAGQSA-N
> <PUBCHEM_XLOGP3_AA>
2.6
> <PUBCHEM_EXACT_MASS>
642.31995438
> <PUBCHEM_MOLECULAR_FORMULA>
C32H46N6O6S
> <PUBCHEM_MOLECULAR_WEIGHT>
642.8
> <PUBCHEM_OPENEYE_CAN_SMILES>
CC(C)CN(C(CCCCNC(=O)C(CC1=CNC2=CC=CC=C21)NC(=O)N3CCOCC3)CO)S(=O)(=O)C4=CC=C(C=C4)N
> <PUBCHEM_OPENEYE_ISO_SMILES>
CC(C)CN([C@@H](CCCCNC(=O)[C@H](CC1=CNC2=CC=CC=C21)NC(=O)N3CCOCC3)CO)S(=O)(=O)C4=CC=C(C=C4)N
> <PUBCHEM_CACTVS_TPSA>
179
> <PUBCHEM_MONOISOTOPIC_WEIGHT>
642.31995438
> <PUBCHEM_TOTAL_CHARGE>
0
> <PUBCHEM_HEAVY_ATOM_COUNT>
45
> <PUBCHEM_ATOM_DEF_STEREO_COUNT>
2
> <PUBCHEM_ATOM_UDEF_STEREO_COUNT>
0
> <PUBCHEM_BOND_DEF_STEREO_COUNT>
0
> <PUBCHEM_BOND_UDEF_STEREO_COUNT>
0
> <PUBCHEM_ISOTOPIC_ATOM_COUNT>
0
> <PUBCHEM_COMPONENT_COUNT>
1
> <PUBCHEM_CACTVS_TAUTO_COUNT>
-1
> <PUBCHEM_COORDINATE_TYPE>
1
5
255
> <PUBCHEM_BONDANNOTATIONS>
25  10  6
12  37  8
12  38  8
22  28  8
22  29  8
28  35  8
29  36  8
30  31  8
30  37  8
31  38  8
31  42  8
35  39  8
36  39  8
38  43  8
42  44  8
43  45  8
44  45  8
14  8  6
$$$$
