508625
  -OEChem-10302200282D
100103  0     1  0  0  0  0  0999 V2000
    9.3532   -3.7618    0.0000 S   0  0  0  0  0  0  0  0  0  0  0  0
    5.6103    4.2999    0.0000 S   0  0  0  0  0  0  0  0  0  0  0  0
   10.2852   -0.9102    0.0000 O   0  0  0  0  0  0  0  0  0  0  0  0
    8.6089   -4.4296    0.0000 O   0  0  0  0  0  0  0  0  0  0  0  0
   10.0975   -3.0940    0.0000 O   0  0  0  0  0  0  0  0  0  0  0  0
   10.6423   -2.6051    0.0000 O   0  0  0  0  0  0  0  0  0  0  0  0
    6.3246    0.9102    0.0000 O   0  0  0  0  0  0  0  0  0  0  0  0
    6.3546    4.9677    0.0000 O   0  0  0  0  0  0  0  0  0  0  0  0
    4.8660    3.6320    0.0000 O   0  0  0  0  0  0  0  0  0  0  0  0
   10.9065    0.9908    0.0000 O   0  0  0  0  0  0  0  0  0  0  0  0
   12.8635    1.4032    0.0000 O   0  0  0  0  0  0  0  0  0  0  0  0
    8.6853   -3.0175    0.0000 N   0  0  3  0  0  0  0  0  0  0  0  0
    7.6138    2.0670    0.0000 N   0  0  0  0  0  0  0  0  0  0  0  0
    6.2781    3.5556    0.0000 N   0  0  0  0  0  0  0  0  0  0  0  0
    4.6783   -0.1611    0.0000 N   0  0  0  0  0  0  0  0  0  0  0  0
    8.9960   -2.0670    0.0000 C   0  0  1  0  0  0  0  0  0  0  0  0
    8.3282   -1.3227    0.0000 C   0  0  0  0  0  0  0  0  0  0  0  0
    7.7068   -3.2237    0.0000 C   0  0  0  0  0  0  0  0  0  0  0  0
    8.6388   -0.3722    0.0000 C   0  0  0  0  0  0  0  0  0  0  0  0
    7.0390   -2.4794    0.0000 C   0  0  0  0  0  0  0  0  0  0  0  0
    7.9710    0.3722    0.0000 C   0  0  0  0  0  0  0  0  0  0  0  0
    4.9889    2.3988    0.0000 C   0  0  0  0  0  0  0  0  0  0  0  0
    4.6783    1.4483    0.0000 C   0  0  3  0  0  0  0  0  0  0  0  0
    5.9674    2.6051    0.0000 C   0  0  1  0  0  0  0  0  0  0  0  0
    9.9745   -1.8608    0.0000 C   0  0  0  0  0  0  0  0  0  0  0  0
    8.2816    1.3227    0.0000 C   0  0  0  0  0  0  0  0  0  0  0  0
    3.7320    1.1436    0.0000 C   0  0  0  0  0  0  0  0  0  0  0  0
   10.0210   -4.5061    0.0000 C   0  0  0  0  0  0  0  0  0  0  0  0
    6.0605   -2.6856    0.0000 C   0  0  0  0  0  0  0  0  0  0  0  0
    7.3496   -1.5289    0.0000 C   0  0  0  0  0  0  0  0  0  0  0  0
    6.6353    1.8608    0.0000 C   0  0  0  0  0  0  0  0  0  0  0  0
    5.2619    0.6436    0.0000 C   0  0  0  0  0  0  0  0  0  0  0  0
    3.7320    0.1436    0.0000 C   0  0  0  0  0  0  0  0  0  0  0  0
    2.8660    1.6436    0.0000 C   0  0  0  0  0  0  0  0  0  0  0  0
   10.9995   -4.2999    0.0000 C   0  0  0  0  0  0  0  0  0  0  0  0
    9.7104   -5.4566    0.0000 C   0  0  0  0  0  0  0  0  0  0  0  0
   11.2637   -0.7040    0.0000 C   0  0  0  0  0  0  0  0  0  0  0  0
    2.8660   -0.3564    0.0000 C   0  0  0  0  0  0  0  0  0  0  0  0
    2.0000    1.1436    0.0000 C   0  0  0  0  0  0  0  0  0  0  0  0
   11.6674   -5.0442    0.0000 C   0  0  0  0  0  0  0  0  0  0  0  0
   10.3782   -6.2009    0.0000 C   0  0  0  0  0  0  0  0  0  0  0  0
    4.9424    5.0442    0.0000 C   0  0  0  0  0  0  0  0  0  0  0  0
   11.3567   -5.9947    0.0000 C   0  0  0  0  0  0  0  0  0  0  0  0
    2.0000    0.1436    0.0000 C   0  0  0  0  0  0  0  0  0  0  0  0
   11.5743    0.2465    0.0000 C   0  0  3  0  0  0  0  0  0  0  0  0
   12.5528    0.4527    0.0000 C   0  0  0  0  0  0  0  0  0  0  0  0
    5.2531    5.9947    0.0000 C   0  0  0  0  0  0  0  0  0  0  0  0
    3.9639    4.8380    0.0000 C   0  0  0  0  0  0  0  0  0  0  0  0
   12.0246   -6.7390    0.0000 C   0  0  0  0  0  0  0  0  0  0  0  0
    4.5852    6.7390    0.0000 C   0  0  0  0  0  0  0  0  0  0  0  0
    3.2961    5.5823    0.0000 C   0  0  0  0  0  0  0  0  0  0  0  0
    3.6067    6.5328    0.0000 C   0  0  0  0  0  0  0  0  0  0  0  0
    8.3893   -2.1948    0.0000 H   0  0  0  0  0  0  0  0  0  0  0  0
    7.7812   -1.0306    0.0000 H   0  0  0  0  0  0  0  0  0  0  0  0
    7.9456   -1.8106    0.0000 H   0  0  0  0  0  0  0  0  0  0  0  0
    7.1805   -3.5514    0.0000 H   0  0  0  0  0  0  0  0  0  0  0  0
    7.9381   -3.7990    0.0000 H   0  0  0  0  0  0  0  0  0  0  0  0
    9.1857   -0.6642    0.0000 H   0  0  0  0  0  0  0  0  0  0  0  0
    9.0214    0.1158    0.0000 H   0  0  0  0  0  0  0  0  0  0  0  0
    7.6457   -2.3516    0.0000 H   0  0  0  0  0  0  0  0  0  0  0  0
    7.4240    0.6642    0.0000 H   0  0  0  0  0  0  0  0  0  0  0  0
    7.5884   -0.1158    0.0000 H   0  0  0  0  0  0  0  0  0  0  0  0
    4.9684    3.0185    0.0000 H   0  0  0  0  0  0  0  0  0  0  0  0
    4.3751    2.4862    0.0000 H   0  0  0  0  0  0  0  0  0  0  0  0
    5.2908    1.5445    0.0000 H   0  0  0  0  0  0  0  0  0  0  0  0
    5.5534    3.0665    0.0000 H   0  0  0  0  0  0  0  0  0  0  0  0
    8.8286    1.0306    0.0000 H   0  0  0  0  0  0  0  0  0  0  0  0
    8.6642    1.8106    0.0000 H   0  0  0  0  0  0  0  0  0  0  0  0
    5.9326   -2.0790    0.0000 H   0  0  0  0  0  0  0  0  0  0  0  0
    5.4538   -2.8135    0.0000 H   0  0  0  0  0  0  0  0  0  0  0  0
    6.1883   -3.2923    0.0000 H   0  0  0  0  0  0  0  0  0  0  0  0
    7.9390   -1.7215    0.0000 H   0  0  0  0  0  0  0  0  0  0  0  0
    7.5423   -0.9396    0.0000 H   0  0  0  0  0  0  0  0  0  0  0  0
    6.7603   -1.3363    0.0000 H   0  0  0  0  0  0  0  0  0  0  0  0
    7.8064    2.6563    0.0000 H   0  0  0  0  0  0  0  0  0  0  0  0
    6.8848    3.6834    0.0000 H   0  0  0  0  0  0  0  0  0  0  0  0
    5.8819    0.6436    0.0000 H   0  0  0  0  0  0  0  0  0  0  0  0
    2.8660    2.2636    0.0000 H   0  0  0  0  0  0  0  0  0  0  0  0
   11.1921   -3.7106    0.0000 H   0  0  0  0  0  0  0  0  0  0  0  0
    9.1037   -5.5845    0.0000 H   0  0  0  0  0  0  0  0  0  0  0  0
   11.2842   -1.3237    0.0000 H   0  0  0  0  0  0  0  0  0  0  0  0
   11.8775   -0.7914    0.0000 H   0  0  0  0  0  0  0  0  0  0  0  0
    2.8660   -0.9764    0.0000 H   0  0  0  0  0  0  0  0  0  0  0  0
    1.4631    1.4536    0.0000 H   0  0  0  0  0  0  0  0  0  0  0  0
   12.2740   -4.9163    0.0000 H   0  0  0  0  0  0  0  0  0  0  0  0
   10.1856   -6.7902    0.0000 H   0  0  0  0  0  0  0  0  0  0  0  0
    1.4631   -0.1664    0.0000 H   0  0  0  0  0  0  0  0  0  0  0  0
   11.7669    0.8358    0.0000 H   0  0  0  0  0  0  0  0  0  0  0  0
   12.5734   -0.1669    0.0000 H   0  0  0  0  0  0  0  0  0  0  0  0
   13.1667    0.3654    0.0000 H   0  0  0  0  0  0  0  0  0  0  0  0
    5.8598    6.1226    0.0000 H   0  0  0  0  0  0  0  0  0  0  0  0
    3.7713    4.2486    0.0000 H   0  0  0  0  0  0  0  0  0  0  0  0
   11.5631   -7.1531    0.0000 H   0  0  0  0  0  0  0  0  0  0  0  0
   12.4386   -7.2005    0.0000 H   0  0  0  0  0  0  0  0  0  0  0  0
   12.4860   -6.3249    0.0000 H   0  0  0  0  0  0  0  0  0  0  0  0
    4.7778    7.3283    0.0000 H   0  0  0  0  0  0  0  0  0  0  0  0
    2.6894    5.4544    0.0000 H   0  0  0  0  0  0  0  0  0  0  0  0
   11.0991    1.5801    0.0000 H   0  0  0  0  0  0  0  0  0  0  0  0
    3.1927    6.9942    0.0000 H   0  0  0  0  0  0  0  0  0  0  0  0
   13.4702    1.5311    0.0000 H   0  0  0  0  0  0  0  0  0  0  0  0
  1  4  2  0  0  0  0
  1  5  2  0  0  0  0
  1 12  1  0  0  0  0
  1 28  1  0  0  0  0
  2  8  2  0  0  0  0
  2  9  2  0  0  0  0
  2 14  1  0  0  0  0
  2 42  1  0  0  0  0
  3 25  1  0  0  0  0
  3 37  1  0  0  0  0
  6 25  2  0  0  0  0
  7 31  2  0  0  0  0
 10 45  1  0  0  0  0
 10 98  1  0  0  0  0
 11 46  1  0  0  0  0
 11100  1  0  0  0  0
 16 12  1  1  0  0  0
 12 18  1  0  0  0  0
 13 26  1  0  0  0  0
 13 31  1  0  0  0  0
 13 75  1  0  0  0  0
 24 14  1  6  0  0  0
 14 76  1  0  0  0  0
 15 32  2  0  0  0  0
 15 33  1  0  0  0  0
 16 17  1  0  0  0  0
 16 25  1  0  0  0  0
 16 53  1  0  0  0  0
 17 19  1  0  0  0  0
 17 54  1  0  0  0  0
 17 55  1  0  0  0  0
 18 20  1  0  0  0  0
 18 56  1  0  0  0  0
 18 57  1  0  0  0  0
 19 21  1  0  0  0  0
 19 58  1  0  0  0  0
 19 59  1  0  0  0  0
 20 29  1  0  0  0  0
 20 30  1  0  0  0  0
 20 60  1  0  0  0  0
 21 26  1  0  0  0  0
 21 61  1  0  0  0  0
 21 62  1  0  0  0  0
 22 23  1  0  0  0  0
 22 24  1  0  0  0  0
 22 63  1  0  0  0  0
 22 64  1  0  0  0  0
 23 27  1  0  0  0  0
 23 32  1  0  0  0  0
 23 65  1  0  0  0  0
 24 31  1  0  0  0  0
 24 66  1  0  0  0  0
 26 67  1  0  0  0  0
 26 68  1  0  0  0  0
 27 33  1  0  0  0  0
 27 34  2  0  0  0  0
 28 35  2  0  0  0  0
 28 36  1  0  0  0  0
 29 69  1  0  0  0  0
 29 70  1  0  0  0  0
 29 71  1  0  0  0  0
 30 72  1  0  0  0  0
 30 73  1  0  0  0  0
 30 74  1  0  0  0  0
 32 77  1  0  0  0  0
 33 38  2  0  0  0  0
 34 39  1  0  0  0  0
 34 78  1  0  0  0  0
 35 40  1  0  0  0  0
 35 79  1  0  0  0  0
 36 41  2  0  0  0  0
 36 80  1  0  0  0  0
 37 45  1  0  0  0  0
 37 81  1  0  0  0  0
 37 82  1  0  0  0  0
 38 44  1  0  0  0  0
 38 83  1  0  0  0  0
 39 44  2  0  0  0  0
 39 84  1  0  0  0  0
 40 43  2  0  0  0  0
 40 85  1  0  0  0  0
 41 43  1  0  0  0  0
 41 86  1  0  0  0  0
 42 47  2  0  0  0  0
 42 48  1  0  0  0  0
 43 49  1  0  0  0  0
 44 87  1  0  0  0  0
 45 46  1  0  0  0  0
 45 88  1  0  0  0  0
 46 89  1  0  0  0  0
 46 90  1  0  0  0  0
 47 50  1  0  0  0  0
 47 91  1  0  0  0  0
 48 51  2  0  0  0  0
 48 92  1  0  0  0  0
 49 93  1  0  0  0  0
 49 94  1  0  0  0  0
 49 95  1  0  0  0  0
 50 52  2  0  0  0  0
 50 96  1  0  0  0  0
 51 52  1  0  0  0  0
 51 97  1  0  0  0  0
 52 99  1  0  0  0  0
M  END
> <PUBCHEM_COMPOUND_CID>
508625
> <PUBCHEM_COMPOUND_CANONICALIZED>
1
> <PUBCHEM_CACTVS_COMPLEXITY>
1370
> <PUBCHEM_CACTVS_HBOND_ACCEPTOR>
12
> <PUBCHEM_CACTVS_HBOND_DONOR>
4
> <PUBCHEM_CACTVS_ROTATABLE_BOND>
21
> <PUBCHEM_CACTVS_SUBSKEYS>
AAADcfB/vABgAAAAAAAAAAAAAAAAAQAAAAAwYMAAAAAAAEABUAAAHgQQSAAADTzh2AYyyYLABgKoAjXzXHDCABAgAgAIiJm4ZIgLcDKAkbGXYABllgCbyAeYyMCOkAAAAAACAAAgAAAAAAQAAAAAAAAAAA==
> <PUBCHEM_IUPAC_OPENEYE_NAME>
2,3-dihydroxypropyl (2S)-6-[[(2S)-2-(benzenesulfonamido)-3-(3H-indol-3-yl)propanoyl]amino]-2-[isobutyl(p-tolylsulfonyl)amino]hexanoate
> <PUBCHEM_IUPAC_CAS_NAME>
(2S)-6-[[(2S)-2-(benzenesulfonamido)-3-(3H-indol-3-yl)-1-oxopropyl]amino]-2-[(4-methylphenyl)sulfonyl-(2-methylpropyl)amino]hexanoic acid 2,3-dihydroxypropyl ester
> <PUBCHEM_IUPAC_NAME_MARKUP>
2,3-dihydroxypropyl (2<I>S</I>)-6-[[(2<I>S</I>)-2-(benzenesulfonamido)-3-(3<I>H</I>-indol-3-yl)propanoyl]amino]-2-[(4-methylphenyl)sulfonyl-(2-methylpropyl)amino]hexanoate
> <PUBCHEM_IUPAC_NAME>
2,3-dihydroxypropyl (2S)-6-[[(2S)-2-(benzenesulfonamido)-3-(3H-indol-3-yl)propanoyl]amino]-2-[(4-methylphenyl)sulfonyl-(2-methylpropyl)amino]hexanoate
> <PUBCHEM_IUPAC_SYSTEMATIC_NAME>
2,3-bis(oxidanyl)propyl (2S)-6-[[(2S)-3-(3H-indol-3-yl)-2-(phenylsulfonylamino)propanoyl]amino]-2-[(4-methylphenyl)sulfonyl-(2-methylpropyl)amino]hexanoate
> <PUBCHEM_IUPAC_TRADITIONAL_NAME>
(2S)-6-[[(2S)-2-(benzenesulfonamido)-3-(3H-indol-3-yl)propanoyl]amino]-2-[isobutyl(tosyl)amino]hexanoic acid glyceryl ester
> <PUBCHEM_IUPAC_INCHI>
InChI=1S/C37H48N4O9S2/c1-26(2)23-41(52(48,49)31-18-16-27(3)17-19-31)35(37(45)50-25-29(43)24-42)15-9-10-20-38-36(44)34(40-51(46,47)30-11-5-4-6-12-30)21-28-22-39-33-14-8-7-13-32(28)33/h4-8,11-14,16-19,22,26,28-29,34-35,40,42-43H,9-10,15,20-21,23-25H2,1-3H3,(H,38,44)/t28?,29?,34-,35-/m0/s1
> <PUBCHEM_IUPAC_INCHIKEY>
YXHBGEWNKRXAKJ-IGCYMHQCSA-N
> <PUBCHEM_XLOGP3_AA>
3.7
> <PUBCHEM_EXACT_MASS>
756.28627147
> <PUBCHEM_MOLECULAR_FORMULA>
C37H48N4O9S2
> <PUBCHEM_MOLECULAR_WEIGHT>
756.9
> <PUBCHEM_OPENEYE_CAN_SMILES>
CC1=CC=C(C=C1)S(=O)(=O)N(CC(C)C)C(CCCCNC(=O)C(CC2C=NC3=CC=CC=C23)NS(=O)(=O)C4=CC=CC=C4)C(=O)OCC(CO)O
> <PUBCHEM_OPENEYE_ISO_SMILES>
CC1=CC=C(C=C1)S(=O)(=O)N(CC(C)C)[C@@H](CCCCNC(=O)[C@H](CC2C=NC3=CC=CC=C23)NS(=O)(=O)C4=CC=CC=C4)C(=O)OCC(CO)O
> <PUBCHEM_CACTVS_TPSA>
209
> <PUBCHEM_MONOISOTOPIC_WEIGHT>
756.28627147
> <PUBCHEM_TOTAL_CHARGE>
0
> <PUBCHEM_HEAVY_ATOM_COUNT>
52
> <PUBCHEM_ATOM_DEF_STEREO_COUNT>
2
> <PUBCHEM_ATOM_UDEF_STEREO_COUNT>
2
> <PUBCHEM_BOND_DEF_STEREO_COUNT>
0
> <PUBCHEM_BOND_UDEF_STEREO_COUNT>
0
> <PUBCHEM_ISOTOPIC_ATOM_COUNT>
0
> <PUBCHEM_COMPONENT_COUNT>
1
> <PUBCHEM_CACTVS_TAUTO_COUNT>
-1
> <PUBCHEM_COORDINATE_TYPE>
1
5
255
> <PUBCHEM_BONDANNOTATIONS>
45  10  3
16  12  5
24  14  6
23  22  3
27  33  8
27  34  8
28  35  8
28  36  8
33  38  8
34  39  8
35  40  8
36  41  8
38  44  8
39  44  8
40  43  8
41  43  8
42  47  8
42  48  8
47  50  8
48  51  8
50  52  8
51  52  8
$$$$
