508674
  -OEChem-10302200282D
 96 99  0     1  0  0  0  0  0999 V2000
   13.2207   -2.0267    0.0000 S   0  0  0  0  0  0  0  0  0  0  0  0
   13.9650   -1.3588    0.0000 O   0  0  0  0  0  0  0  0  0  0  0  0
   12.4764   -2.6945    0.0000 O   0  0  0  0  0  0  0  0  0  0  0  0
   10.2852   -2.6453    0.0000 O   0  0  0  0  0  0  0  0  0  0  0  0
   11.9315   -3.1834    0.0000 O   0  0  0  0  0  0  0  0  0  0  0  0
   15.8921   -5.0039    0.0000 O   0  0  0  0  0  0  0  0  0  0  0  0
    6.3246   -0.8249    0.0000 O   0  0  0  0  0  0  0  0  0  0  0  0
    5.9209    3.5153    0.0000 O   0  0  0  0  0  0  0  0  0  0  0  0
    4.6318    2.3586    0.0000 O   0  0  0  0  0  0  0  0  0  0  0  0
   12.5528   -1.2824    0.0000 N   0  0  3  0  0  0  0  0  0  0  0  0
    7.6138    0.3319    0.0000 N   0  0  0  0  0  0  0  0  0  0  0  0
    6.2781    1.8205    0.0000 N   0  0  0  0  0  0  0  0  0  0  0  0
    4.6783   -1.8963    0.0000 N   0  0  0  0  0  0  0  0  0  0  0  0
   12.1957    0.4124    0.0000 C   0  0  0  0  0  0  0  0  0  0  0  0
   12.4053    1.3902    0.0000 C   0  0  0  0  0  0  0  0  0  0  0  0
   11.2010    0.3096    0.0000 C   0  0  0  0  0  0  0  0  0  0  0  0
   11.5401    1.8917    0.0000 C   0  0  0  0  0  0  0  0  0  0  0  0
   10.7958    1.2239    0.0000 C   0  0  0  0  0  0  0  0  0  0  0  0
   12.8635   -0.3319    0.0000 C   0  0  0  0  0  0  0  0  0  0  0  0
   11.5743   -1.4886    0.0000 C   0  0  1  0  0  0  0  0  0  0  0  0
   10.9065   -0.7443    0.0000 C   0  0  0  0  0  0  0  0  0  0  0  0
    9.9280   -0.9505    0.0000 C   0  0  0  0  0  0  0  0  0  0  0  0
   11.2637   -2.4391    0.0000 C   0  0  0  0  0  0  0  0  0  0  0  0
   13.8885   -2.7710    0.0000 C   0  0  0  0  0  0  0  0  0  0  0  0
    9.2601   -0.2062    0.0000 C   0  0  0  0  0  0  0  0  0  0  0  0
    8.2816   -0.4124    0.0000 C   0  0  0  0  0  0  0  0  0  0  0  0
   13.5779   -3.7215    0.0000 C   0  0  0  0  0  0  0  0  0  0  0  0
   14.8670   -2.5648    0.0000 C   0  0  0  0  0  0  0  0  0  0  0  0
   14.2457   -4.4658    0.0000 C   0  0  0  0  0  0  0  0  0  0  0  0
   15.5349   -3.3091    0.0000 C   0  0  0  0  0  0  0  0  0  0  0  0
   15.2242   -4.2596    0.0000 C   0  0  0  0  0  0  0  0  0  0  0  0
    5.9674    0.8699    0.0000 C   0  0  2  0  0  0  0  0  0  0  0  0
    6.6353    0.1256    0.0000 C   0  0  0  0  0  0  0  0  0  0  0  0
    4.9889    0.6637    0.0000 C   0  0  0  0  0  0  0  0  0  0  0  0
    4.6783   -0.2868    0.0000 C   0  0  0  0  0  0  0  0  0  0  0  0
    3.7320   -0.5915    0.0000 C   0  0  0  0  0  0  0  0  0  0  0  0
    5.2619   -1.0915    0.0000 C   0  0  0  0  0  0  0  0  0  0  0  0
    3.7320   -1.5915    0.0000 C   0  0  0  0  0  0  0  0  0  0  0  0
    5.6103    2.5648    0.0000 C   0  0  0  0  0  0  0  0  0  0  0  0
    2.8660   -0.0915    0.0000 C   0  0  0  0  0  0  0  0  0  0  0  0
   16.8706   -4.7977    0.0000 C   0  0  0  0  0  0  0  0  0  0  0  0
    5.2531    4.2596    0.0000 C   0  0  0  0  0  0  0  0  0  0  0  0
    2.8660   -2.0915    0.0000 C   0  0  0  0  0  0  0  0  0  0  0  0
    2.0000   -0.5915    0.0000 C   0  0  0  0  0  0  0  0  0  0  0  0
    2.0000   -1.5915    0.0000 C   0  0  0  0  0  0  0  0  0  0  0  0
    4.5852    5.0039    0.0000 C   0  0  0  0  0  0  0  0  0  0  0  0
    5.9974    4.9274    0.0000 C   0  0  0  0  0  0  0  0  0  0  0  0
    4.5088    3.5918    0.0000 C   0  0  0  0  0  0  0  0  0  0  0  0
   11.9725   -0.1660    0.0000 H   0  0  0  0  0  0  0  0  0  0  0  0
   12.9946    1.1976    0.0000 H   0  0  0  0  0  0  0  0  0  0  0  0
   12.6584    1.9562    0.0000 H   0  0  0  0  0  0  0  0  0  0  0  0
   10.6110    0.1191    0.0000 H   0  0  0  0  0  0  0  0  0  0  0  0
   11.3288   -0.2970    0.0000 H   0  0  0  0  0  0  0  0  0  0  0  0
   11.9054    2.3927    0.0000 H   0  0  0  0  0  0  0  0  0  0  0  0
   11.0801    2.3074    0.0000 H   0  0  0  0  0  0  0  0  0  0  0  0
   10.4322    1.7261    0.0000 H   0  0  0  0  0  0  0  0  0  0  0  0
   10.2583    0.9148    0.0000 H   0  0  0  0  0  0  0  0  0  0  0  0
   13.4104   -0.6239    0.0000 H   0  0  0  0  0  0  0  0  0  0  0  0
   13.2461    0.1560    0.0000 H   0  0  0  0  0  0  0  0  0  0  0  0
   11.7669   -0.8993    0.0000 H   0  0  0  0  0  0  0  0  0  0  0  0
   11.4328   -0.4167    0.0000 H   0  0  0  0  0  0  0  0  0  0  0  0
   10.6752   -0.1690    0.0000 H   0  0  0  0  0  0  0  0  0  0  0  0
    9.4016   -1.2782    0.0000 H   0  0  0  0  0  0  0  0  0  0  0  0
   10.1592   -1.5258    0.0000 H   0  0  0  0  0  0  0  0  0  0  0  0
    9.7865    0.1214    0.0000 H   0  0  0  0  0  0  0  0  0  0  0  0
    9.0289    0.3690    0.0000 H   0  0  0  0  0  0  0  0  0  0  0  0
    7.7553   -0.7401    0.0000 H   0  0  0  0  0  0  0  0  0  0  0  0
    8.5129   -0.9877    0.0000 H   0  0  0  0  0  0  0  0  0  0  0  0
   12.9712   -3.8494    0.0000 H   0  0  0  0  0  0  0  0  0  0  0  0
   15.0596   -1.9754    0.0000 H   0  0  0  0  0  0  0  0  0  0  0  0
   10.0926   -3.2347    0.0000 H   0  0  0  0  0  0  0  0  0  0  0  0
   14.0531   -5.0551    0.0000 H   0  0  0  0  0  0  0  0  0  0  0  0
   16.1415   -3.1812    0.0000 H   0  0  0  0  0  0  0  0  0  0  0  0
    7.8064    0.9212    0.0000 H   0  0  0  0  0  0  0  0  0  0  0  0
    5.5534    1.3314    0.0000 H   0  0  0  0  0  0  0  0  0  0  0  0
    4.9684    1.2834    0.0000 H   0  0  0  0  0  0  0  0  0  0  0  0
    4.3751    0.7511    0.0000 H   0  0  0  0  0  0  0  0  0  0  0  0
    6.8848    1.9483    0.0000 H   0  0  0  0  0  0  0  0  0  0  0  0
    5.8819   -1.0915    0.0000 H   0  0  0  0  0  0  0  0  0  0  0  0
    4.8709   -2.4856    0.0000 H   0  0  0  0  0  0  0  0  0  0  0  0
    2.8660    0.5285    0.0000 H   0  0  0  0  0  0  0  0  0  0  0  0
   16.9984   -5.4044    0.0000 H   0  0  0  0  0  0  0  0  0  0  0  0
   17.4772   -4.6698    0.0000 H   0  0  0  0  0  0  0  0  0  0  0  0
   16.7427   -4.1910    0.0000 H   0  0  0  0  0  0  0  0  0  0  0  0
    2.8660   -2.7115    0.0000 H   0  0  0  0  0  0  0  0  0  0  0  0
    1.4631   -0.2815    0.0000 H   0  0  0  0  0  0  0  0  0  0  0  0
    1.4631   -1.9015    0.0000 H   0  0  0  0  0  0  0  0  0  0  0  0
    5.0467    5.4180    0.0000 H   0  0  0  0  0  0  0  0  0  0  0  0
    4.1712    5.4654    0.0000 H   0  0  0  0  0  0  0  0  0  0  0  0
    4.1238    4.5898    0.0000 H   0  0  0  0  0  0  0  0  0  0  0  0
    6.4114    4.4660    0.0000 H   0  0  0  0  0  0  0  0  0  0  0  0
    6.4588    5.3415    0.0000 H   0  0  0  0  0  0  0  0  0  0  0  0
    5.5833    5.3889    0.0000 H   0  0  0  0  0  0  0  0  0  0  0  0
    4.0947    4.0532    0.0000 H   0  0  0  0  0  0  0  0  0  0  0  0
    4.0473    3.1777    0.0000 H   0  0  0  0  0  0  0  0  0  0  0  0
    4.9228    3.1303    0.0000 H   0  0  0  0  0  0  0  0  0  0  0  0
  1  2  2  0  0  0  0
  1  3  2  0  0  0  0
  1 10  1  0  0  0  0
  1 24  1  0  0  0  0
  4 23  1  0  0  0  0
  4 71  1  0  0  0  0
  5 23  2  0  0  0  0
  6 31  1  0  0  0  0
  6 41  1  0  0  0  0
  7 33  2  0  0  0  0
  8 39  1  0  0  0  0
  8 42  1  0  0  0  0
  9 39  2  0  0  0  0
 10 19  1  0  0  0  0
 20 10  1  6  0  0  0
 11 26  1  0  0  0  0
 11 33  1  0  0  0  0
 11 74  1  0  0  0  0
 32 12  1  6  0  0  0
 12 39  1  0  0  0  0
 12 78  1  0  0  0  0
 13 37  1  0  0  0  0
 13 38  1  0  0  0  0
 13 80  1  0  0  0  0
 14 15  1  0  0  0  0
 14 16  1  0  0  0  0
 14 19  1  0  0  0  0
 14 49  1  0  0  0  0
 15 17  1  0  0  0  0
 15 50  1  0  0  0  0
 15 51  1  0  0  0  0
 16 18  1  0  0  0  0
 16 52  1  0  0  0  0
 16 53  1  0  0  0  0
 17 18  1  0  0  0  0
 17 54  1  0  0  0  0
 17 55  1  0  0  0  0
 18 56  1  0  0  0  0
 18 57  1  0  0  0  0
 19 58  1  0  0  0  0
 19 59  1  0  0  0  0
 20 21  1  0  0  0  0
 20 23  1  0  0  0  0
 20 60  1  0  0  0  0
 21 22  1  0  0  0  0
 21 61  1  0  0  0  0
 21 62  1  0  0  0  0
 22 25  1  0  0  0  0
 22 63  1  0  0  0  0
 22 64  1  0  0  0  0
 24 27  2  0  0  0  0
 24 28  1  0  0  0  0
 25 26  1  0  0  0  0
 25 65  1  0  0  0  0
 25 66  1  0  0  0  0
 26 67  1  0  0  0  0
 26 68  1  0  0  0  0
 27 29  1  0  0  0  0
 27 69  1  0  0  0  0
 28 30  2  0  0  0  0
 28 70  1  0  0  0  0
 29 31  2  0  0  0  0
 29 72  1  0  0  0  0
 30 31  1  0  0  0  0
 30 73  1  0  0  0  0
 32 33  1  0  0  0  0
 32 34  1  0  0  0  0
 32 75  1  0  0  0  0
 34 35  1  0  0  0  0
 34 76  1  0  0  0  0
 34 77  1  0  0  0  0
 35 36  1  0  0  0  0
 35 37  2  0  0  0  0
 36 38  1  0  0  0  0
 36 40  2  0  0  0  0
 37 79  1  0  0  0  0
 38 43  2  0  0  0  0
 40 44  1  0  0  0  0
 40 81  1  0  0  0  0
 41 82  1  0  0  0  0
 41 83  1  0  0  0  0
 41 84  1  0  0  0  0
 42 46  1  0  0  0  0
 42 47  1  0  0  0  0
 42 48  1  0  0  0  0
 43 45  1  0  0  0  0
 43 85  1  0  0  0  0
 44 45  2  0  0  0  0
 44 86  1  0  0  0  0
 45 87  1  0  0  0  0
 46 88  1  0  0  0  0
 46 89  1  0  0  0  0
 46 90  1  0  0  0  0
 47 91  1  0  0  0  0
 47 92  1  0  0  0  0
 47 93  1  0  0  0  0
 48 94  1  0  0  0  0
 48 95  1  0  0  0  0
 48 96  1  0  0  0  0
M  END
> <PUBCHEM_COMPOUND_CID>
508674
> <PUBCHEM_COMPOUND_CANONICALIZED>
1
> <PUBCHEM_CACTVS_COMPLEXITY>
1160
> <PUBCHEM_CACTVS_HBOND_ACCEPTOR>
9
> <PUBCHEM_CACTVS_HBOND_DONOR>
4
> <PUBCHEM_CACTVS_ROTATABLE_BOND>
18
> <PUBCHEM_CACTVS_SUBSKEYS>
AAADcfB/vABAAAAAAAAAAAAAAAAAAeIAAAAwYAAAAAAAAFgB9AAAHgQQSAAADWzB3gY+z/LJlgKoAzX3XHDCiDAxIiAI2bm+bJkOZvLEsbuccChk1hHY6AeYycCOgIAAAAACAAABAAAAAAQAAAAAAAAAAA==
> <PUBCHEM_IUPAC_OPENEYE_NAME>
(2S)-6-[[(2S)-2-(tert-butoxycarbonylamino)-3-(1H-indol-3-yl)propanoyl]amino]-2-[cyclopentylmethyl-(4-methoxyphenyl)sulfonyl-amino]hexanoic acid
> <PUBCHEM_IUPAC_CAS_NAME>
(2S)-2-[cyclopentylmethyl-(4-methoxyphenyl)sulfonylamino]-6-[[(2S)-3-(1H-indol-3-yl)-2-[[(2-methylpropan-2-yl)oxy-oxomethyl]amino]-1-oxopropyl]amino]hexanoic acid
> <PUBCHEM_IUPAC_NAME_MARKUP>
(2<I>S</I>)-2-[cyclopentylmethyl-(4-methoxyphenyl)sulfonylamino]-6-[[(2<I>S</I>)-3-(1<I>H</I>-indol-3-yl)-2-[(2-methylpropan-2-yl)oxycarbonylamino]propanoyl]amino]hexanoic acid
> <PUBCHEM_IUPAC_NAME>
(2S)-2-[cyclopentylmethyl-(4-methoxyphenyl)sulfonylamino]-6-[[(2S)-3-(1H-indol-3-yl)-2-[(2-methylpropan-2-yl)oxycarbonylamino]propanoyl]amino]hexanoic acid
> <PUBCHEM_IUPAC_SYSTEMATIC_NAME>
(2S)-2-[cyclopentylmethyl-(4-methoxyphenyl)sulfonyl-amino]-6-[[(2S)-3-(1H-indol-3-yl)-2-[(2-methylpropan-2-yl)oxycarbonylamino]propanoyl]amino]hexanoic acid
> <PUBCHEM_IUPAC_TRADITIONAL_NAME>
(2S)-6-[[(2S)-2-(tert-butoxycarbonylamino)-3-(1H-indol-3-yl)propanoyl]amino]-2-[cyclopentylmethyl-(4-methoxyphenyl)sulfonyl-amino]hexanoic acid
> <PUBCHEM_IUPAC_INCHI>
InChI=1S/C35H48N4O8S/c1-35(2,3)47-34(43)38-30(21-25-22-37-29-14-8-7-13-28(25)29)32(40)36-20-10-9-15-31(33(41)42)39(23-24-11-5-6-12-24)48(44,45)27-18-16-26(46-4)17-19-27/h7-8,13-14,16-19,22,24,30-31,37H,5-6,9-12,15,20-21,23H2,1-4H3,(H,36,40)(H,38,43)(H,41,42)/t30-,31-/m0/s1
> <PUBCHEM_IUPAC_INCHIKEY>
YNFAIUKHVIQKRL-CONSDPRKSA-N
> <PUBCHEM_XLOGP3_AA>
5.7
> <PUBCHEM_EXACT_MASS>
684.31928568
> <PUBCHEM_MOLECULAR_FORMULA>
C35H48N4O8S
> <PUBCHEM_MOLECULAR_WEIGHT>
684.8
> <PUBCHEM_OPENEYE_CAN_SMILES>
CC(C)(C)OC(=O)NC(CC1=CNC2=CC=CC=C21)C(=O)NCCCCC(C(=O)O)N(CC3CCCC3)S(=O)(=O)C4=CC=C(C=C4)OC
> <PUBCHEM_OPENEYE_ISO_SMILES>
CC(C)(C)OC(=O)N[C@@H](CC1=CNC2=CC=CC=C21)C(=O)NCCCC[C@@H](C(=O)O)N(CC3CCCC3)S(=O)(=O)C4=CC=C(C=C4)OC
> <PUBCHEM_CACTVS_TPSA>
176
> <PUBCHEM_MONOISOTOPIC_WEIGHT>
684.31928568
> <PUBCHEM_TOTAL_CHARGE>
0
> <PUBCHEM_HEAVY_ATOM_COUNT>
48
> <PUBCHEM_ATOM_DEF_STEREO_COUNT>
2
> <PUBCHEM_ATOM_UDEF_STEREO_COUNT>
0
> <PUBCHEM_BOND_DEF_STEREO_COUNT>
0
> <PUBCHEM_BOND_UDEF_STEREO_COUNT>
0
> <PUBCHEM_ISOTOPIC_ATOM_COUNT>
0
> <PUBCHEM_COMPONENT_COUNT>
1
> <PUBCHEM_CACTVS_TAUTO_COUNT>
-1
> <PUBCHEM_COORDINATE_TYPE>
1
5
255
> <PUBCHEM_BONDANNOTATIONS>
20  10  6
32  12  6
13  37  8
13  38  8
24  27  8
24  28  8
27  29  8
28  30  8
29  31  8
30  31  8
35  36  8
35  37  8
36  38  8
36  40  8
38  43  8
40  44  8
43  45  8
44  45  8
$$$$
