508651
  -OEChem-10302200282D
 87 90  0     1  0  0  0  0  0999 V2000
   13.2207   -1.9189    0.0000 S   0  0  0  0  0  0  0  0  0  0  0  0
    5.6103    2.6725    0.0000 S   0  0  0  0  0  0  0  0  0  0  0  0
    3.9477    3.3140    0.0000 S   0  0  0  0  0  0  0  0  0  0  0  0
   11.9315   -3.0757    0.0000 O   0  0  0  0  0  0  0  0  0  0  0  0
   13.9650   -1.2511    0.0000 O   0  0  0  0  0  0  0  0  0  0  0  0
   12.4764   -2.5868    0.0000 O   0  0  0  0  0  0  0  0  0  0  0  0
    6.3246   -0.7171    0.0000 O   0  0  0  0  0  0  0  0  0  0  0  0
    6.3546    3.3404    0.0000 O   0  0  0  0  0  0  0  0  0  0  0  0
    4.8660    2.0047    0.0000 O   0  0  0  0  0  0  0  0  0  0  0  0
   12.5528   -1.1746    0.0000 N   0  0  3  0  0  0  0  0  0  0  0  0
    7.6138    0.4396    0.0000 N   0  0  0  0  0  0  0  0  0  0  0  0
    6.2781    1.9282    0.0000 N   0  0  0  0  0  0  0  0  0  0  0  0
    4.6783   -1.7885    0.0000 N   0  0  0  0  0  0  0  0  0  0  0  0
   11.5743   -1.3808    0.0000 C   0  0  1  0  0  0  0  0  0  0  0  0
   10.9065   -0.6365    0.0000 C   0  0  0  0  0  0  0  0  0  0  0  0
   12.8635   -0.2241    0.0000 C   0  0  0  0  0  0  0  0  0  0  0  0
    9.9280   -0.8428    0.0000 C   0  0  0  0  0  0  0  0  0  0  0  0
   12.1957    0.5202    0.0000 C   0  0  0  0  0  0  0  0  0  0  0  0
   11.2637   -2.3314    0.0000 C   0  0  0  0  0  0  0  0  0  0  0  0
    9.2601   -0.0984    0.0000 C   0  0  0  0  0  0  0  0  0  0  0  0
    8.2816   -0.3047    0.0000 C   0  0  0  0  0  0  0  0  0  0  0  0
   13.8885   -2.6632    0.0000 C   0  0  0  0  0  0  0  0  0  0  0  0
   12.5063    1.4707    0.0000 C   0  0  0  0  0  0  0  0  0  0  0  0
   11.2171    0.3140    0.0000 C   0  0  0  0  0  0  0  0  0  0  0  0
    5.9674    0.9777    0.0000 C   0  0  1  0  0  0  0  0  0  0  0  0
    4.9889    0.7715    0.0000 C   0  0  0  0  0  0  0  0  0  0  0  0
    6.6353    0.2334    0.0000 C   0  0  0  0  0  0  0  0  0  0  0  0
   13.5779   -3.6137    0.0000 C   0  0  0  0  0  0  0  0  0  0  0  0
   14.8670   -2.4570    0.0000 C   0  0  0  0  0  0  0  0  0  0  0  0
    4.6783   -0.1790    0.0000 C   0  0  0  0  0  0  0  0  0  0  0  0
    3.7320   -0.4838    0.0000 C   0  0  0  0  0  0  0  0  0  0  0  0
   14.2457   -4.3580    0.0000 C   0  0  0  0  0  0  0  0  0  0  0  0
   15.5349   -3.2013    0.0000 C   0  0  0  0  0  0  0  0  0  0  0  0
   15.2242   -4.1518    0.0000 C   0  0  0  0  0  0  0  0  0  0  0  0
    3.7320   -1.4838    0.0000 C   0  0  0  0  0  0  0  0  0  0  0  0
    5.2619   -0.9838    0.0000 C   0  0  0  0  0  0  0  0  0  0  0  0
    2.8660    0.0162    0.0000 C   0  0  0  0  0  0  0  0  0  0  0  0
   15.8921   -4.8961    0.0000 C   0  0  0  0  0  0  0  0  0  0  0  0
    2.8660   -1.9838    0.0000 C   0  0  0  0  0  0  0  0  0  0  0  0
    4.9424    3.4168    0.0000 C   0  0  0  0  0  0  0  0  0  0  0  0
    2.0000   -0.4838    0.0000 C   0  0  0  0  0  0  0  0  0  0  0  0
    2.0000   -1.4838    0.0000 C   0  0  0  0  0  0  0  0  0  0  0  0
    5.1520    4.3946    0.0000 C   0  0  0  0  0  0  0  0  0  0  0  0
    4.2869    4.8961    0.0000 C   0  0  0  0  0  0  0  0  0  0  0  0
    3.5426    4.2283    0.0000 C   0  0  0  0  0  0  0  0  0  0  0  0
   11.7669   -0.7915    0.0000 H   0  0  0  0  0  0  0  0  0  0  0  0
   11.4328   -0.3089    0.0000 H   0  0  0  0  0  0  0  0  0  0  0  0
   10.6752   -0.0613    0.0000 H   0  0  0  0  0  0  0  0  0  0  0  0
   13.4104   -0.5161    0.0000 H   0  0  0  0  0  0  0  0  0  0  0  0
   13.2461    0.2638    0.0000 H   0  0  0  0  0  0  0  0  0  0  0  0
    9.4016   -1.1704    0.0000 H   0  0  0  0  0  0  0  0  0  0  0  0
   10.1592   -1.4180    0.0000 H   0  0  0  0  0  0  0  0  0  0  0  0
   12.0030   -0.0691    0.0000 H   0  0  0  0  0  0  0  0  0  0  0  0
   10.7167   -2.0393    0.0000 H   0  0  0  0  0  0  0  0  0  0  0  0
   10.8811   -2.8193    0.0000 H   0  0  0  0  0  0  0  0  0  0  0  0
    9.7865    0.2292    0.0000 H   0  0  0  0  0  0  0  0  0  0  0  0
    9.0289    0.4768    0.0000 H   0  0  0  0  0  0  0  0  0  0  0  0
    7.7553   -0.6323    0.0000 H   0  0  0  0  0  0  0  0  0  0  0  0
    8.5129   -0.8799    0.0000 H   0  0  0  0  0  0  0  0  0  0  0  0
   13.0956    1.2781    0.0000 H   0  0  0  0  0  0  0  0  0  0  0  0
   12.6989    2.0600    0.0000 H   0  0  0  0  0  0  0  0  0  0  0  0
   11.9170    1.6633    0.0000 H   0  0  0  0  0  0  0  0  0  0  0  0
   11.0893    0.9207    0.0000 H   0  0  0  0  0  0  0  0  0  0  0  0
   10.6105    0.1861    0.0000 H   0  0  0  0  0  0  0  0  0  0  0  0
   11.3450   -0.2927    0.0000 H   0  0  0  0  0  0  0  0  0  0  0  0
    5.5534    1.4392    0.0000 H   0  0  0  0  0  0  0  0  0  0  0  0
    7.8064    1.0290    0.0000 H   0  0  0  0  0  0  0  0  0  0  0  0
    4.9684    1.3912    0.0000 H   0  0  0  0  0  0  0  0  0  0  0  0
    4.3751    0.8588    0.0000 H   0  0  0  0  0  0  0  0  0  0  0  0
   11.7389   -3.6650    0.0000 H   0  0  0  0  0  0  0  0  0  0  0  0
   12.9712   -3.7416    0.0000 H   0  0  0  0  0  0  0  0  0  0  0  0
   15.0596   -1.8677    0.0000 H   0  0  0  0  0  0  0  0  0  0  0  0
    6.8848    2.0561    0.0000 H   0  0  0  0  0  0  0  0  0  0  0  0
   14.0531   -4.9474    0.0000 H   0  0  0  0  0  0  0  0  0  0  0  0
   16.1415   -3.0734    0.0000 H   0  0  0  0  0  0  0  0  0  0  0  0
    5.8819   -0.9838    0.0000 H   0  0  0  0  0  0  0  0  0  0  0  0
    4.8709   -2.3778    0.0000 H   0  0  0  0  0  0  0  0  0  0  0  0
    2.8660    0.6362    0.0000 H   0  0  0  0  0  0  0  0  0  0  0  0
    2.8660   -2.6038    0.0000 H   0  0  0  0  0  0  0  0  0  0  0  0
   15.4306   -5.3102    0.0000 H   0  0  0  0  0  0  0  0  0  0  0  0
   16.3061   -5.3576    0.0000 H   0  0  0  0  0  0  0  0  0  0  0  0
   16.3535   -4.4821    0.0000 H   0  0  0  0  0  0  0  0  0  0  0  0
    1.4631   -0.1738    0.0000 H   0  0  0  0  0  0  0  0  0  0  0  0
    1.4631   -1.7938    0.0000 H   0  0  0  0  0  0  0  0  0  0  0  0
    5.7188    4.6458    0.0000 H   0  0  0  0  0  0  0  0  0  0  0  0
    4.2231    5.5128    0.0000 H   0  0  0  0  0  0  0  0  0  0  0  0
    2.9363    4.3582    0.0000 H   0  0  0  0  0  0  0  0  0  0  0  0
  1  5  2  0  0  0  0
  1  6  2  0  0  0  0
  1 10  1  0  0  0  0
  1 22  1  0  0  0  0
  2  8  2  0  0  0  0
  2  9  2  0  0  0  0
  2 12  1  0  0  0  0
  2 40  1  0  0  0  0
  3 40  1  0  0  0  0
  3 45  1  0  0  0  0
  4 19  1  0  0  0  0
  4 70  1  0  0  0  0
  7 27  2  0  0  0  0
 14 10  1  6  0  0  0
 10 16  1  0  0  0  0
 11 21  1  0  0  0  0
 11 27  1  0  0  0  0
 11 67  1  0  0  0  0
 25 12  1  6  0  0  0
 12 73  1  0  0  0  0
 13 35  1  0  0  0  0
 13 36  1  0  0  0  0
 13 77  1  0  0  0  0
 14 15  1  0  0  0  0
 14 19  1  0  0  0  0
 14 46  1  0  0  0  0
 15 17  1  0  0  0  0
 15 47  1  0  0  0  0
 15 48  1  0  0  0  0
 16 18  1  0  0  0  0
 16 49  1  0  0  0  0
 16 50  1  0  0  0  0
 17 20  1  0  0  0  0
 17 51  1  0  0  0  0
 17 52  1  0  0  0  0
 18 23  1  0  0  0  0
 18 24  1  0  0  0  0
 18 53  1  0  0  0  0
 19 54  1  0  0  0  0
 19 55  1  0  0  0  0
 20 21  1  0  0  0  0
 20 56  1  0  0  0  0
 20 57  1  0  0  0  0
 21 58  1  0  0  0  0
 21 59  1  0  0  0  0
 22 28  2  0  0  0  0
 22 29  1  0  0  0  0
 23 60  1  0  0  0  0
 23 61  1  0  0  0  0
 23 62  1  0  0  0  0
 24 63  1  0  0  0  0
 24 64  1  0  0  0  0
 24 65  1  0  0  0  0
 25 26  1  0  0  0  0
 25 27  1  0  0  0  0
 25 66  1  0  0  0  0
 26 30  1  0  0  0  0
 26 68  1  0  0  0  0
 26 69  1  0  0  0  0
 28 32  1  0  0  0  0
 28 71  1  0  0  0  0
 29 33  2  0  0  0  0
 29 72  1  0  0  0  0
 30 31  1  0  0  0  0
 30 36  2  0  0  0  0
 31 35  1  0  0  0  0
 31 37  2  0  0  0  0
 32 34  2  0  0  0  0
 32 74  1  0  0  0  0
 33 34  1  0  0  0  0
 33 75  1  0  0  0  0
 34 38  1  0  0  0  0
 35 39  2  0  0  0  0
 36 76  1  0  0  0  0
 37 41  1  0  0  0  0
 37 78  1  0  0  0  0
 38 80  1  0  0  0  0
 38 81  1  0  0  0  0
 38 82  1  0  0  0  0
 39 42  1  0  0  0  0
 39 79  1  0  0  0  0
 40 43  2  0  0  0  0
 41 42  2  0  0  0  0
 41 83  1  0  0  0  0
 42 84  1  0  0  0  0
 43 44  1  0  0  0  0
 43 85  1  0  0  0  0
 44 45  2  0  0  0  0
 44 86  1  0  0  0  0
 45 87  1  0  0  0  0
M  END
> <PUBCHEM_COMPOUND_CID>
508651
> <PUBCHEM_COMPOUND_CANONICALIZED>
1
> <PUBCHEM_CACTVS_COMPLEXITY>
1130
> <PUBCHEM_CACTVS_HBOND_ACCEPTOR>
9
> <PUBCHEM_CACTVS_HBOND_DONOR>
4
> <PUBCHEM_CACTVS_ROTATABLE_BOND>
17
> <PUBCHEM_CACTVS_SUBSKEYS>
AAADcfB/uABgAAAAAAAAAAAAAAAAAWJAAAAwYAAAAAAAAFgB/AAAHgQQSAAADSjl3ga+wfLJkgqsAzV3VHDDgbAxCjBI2bm4ZJgKcPLgkZGUYAhklgD4yAeYycCOkAAAAAACAAAgAAAAAAQAAAAAAAAAAA==
> <PUBCHEM_IUPAC_OPENEYE_NAME>
(2S)-N-[(5S)-6-hydroxy-5-[isobutyl(p-tolylsulfonyl)amino]hexyl]-3-(1H-indol-3-yl)-2-(2-thienylsulfonylamino)propanamide
> <PUBCHEM_IUPAC_CAS_NAME>
(2S)-N-[(5S)-6-hydroxy-5-[(4-methylphenyl)sulfonyl-(2-methylpropyl)amino]hexyl]-3-(1H-indol-3-yl)-2-(thiophen-2-ylsulfonylamino)propanamide
> <PUBCHEM_IUPAC_NAME_MARKUP>
(2<I>S</I>)-<I>N</I>-[(5<I>S</I>)-6-hydroxy-5-[(4-methylphenyl)sulfonyl-(2-methylpropyl)amino]hexyl]-3-(1<I>H</I>-indol-3-yl)-2-(thiophen-2-ylsulfonylamino)propanamide
> <PUBCHEM_IUPAC_NAME>
(2S)-N-[(5S)-6-hydroxy-5-[(4-methylphenyl)sulfonyl-(2-methylpropyl)amino]hexyl]-3-(1H-indol-3-yl)-2-(thiophen-2-ylsulfonylamino)propanamide
> <PUBCHEM_IUPAC_SYSTEMATIC_NAME>
(2S)-3-(1H-indol-3-yl)-N-[(5S)-5-[(4-methylphenyl)sulfonyl-(2-methylpropyl)amino]-6-oxidanyl-hexyl]-2-(thiophen-2-ylsulfonylamino)propanamide
> <PUBCHEM_IUPAC_TRADITIONAL_NAME>
(2S)-N-[(5S)-6-hydroxy-5-[isobutyl(tosyl)amino]hexyl]-3-(1H-indol-3-yl)-2-(2-thienylsulfonylamino)propionamide
> <PUBCHEM_IUPAC_INCHI>
InChI=1S/C32H42N4O6S3/c1-23(2)21-36(45(41,42)27-15-13-24(3)14-16-27)26(22-37)9-6-7-17-33-32(38)30(35-44(39,40)31-12-8-18-43-31)19-25-20-34-29-11-5-4-10-28(25)29/h4-5,8,10-16,18,20,23,26,30,34-35,37H,6-7,9,17,19,21-22H2,1-3H3,(H,33,38)/t26-,30-/m0/s1
> <PUBCHEM_IUPAC_INCHIKEY>
AUZISDLBFGXPKK-YZNIXAGQSA-N
> <PUBCHEM_XLOGP3_AA>
5.4
> <PUBCHEM_EXACT_MASS>
674.22664859
> <PUBCHEM_MOLECULAR_FORMULA>
C32H42N4O6S3
> <PUBCHEM_MOLECULAR_WEIGHT>
674.9
> <PUBCHEM_OPENEYE_CAN_SMILES>
CC1=CC=C(C=C1)S(=O)(=O)N(CC(C)C)C(CCCCNC(=O)C(CC2=CNC3=CC=CC=C32)NS(=O)(=O)C4=CC=CS4)CO
> <PUBCHEM_OPENEYE_ISO_SMILES>
CC1=CC=C(C=C1)S(=O)(=O)N(CC(C)C)[C@@H](CCCCNC(=O)[C@H](CC2=CNC3=CC=CC=C32)NS(=O)(=O)C4=CC=CS4)CO
> <PUBCHEM_CACTVS_TPSA>
194
> <PUBCHEM_MONOISOTOPIC_WEIGHT>
674.22664859
> <PUBCHEM_TOTAL_CHARGE>
0
> <PUBCHEM_HEAVY_ATOM_COUNT>
45
> <PUBCHEM_ATOM_DEF_STEREO_COUNT>
2
> <PUBCHEM_ATOM_UDEF_STEREO_COUNT>
0
> <PUBCHEM_BOND_DEF_STEREO_COUNT>
0
> <PUBCHEM_BOND_UDEF_STEREO_COUNT>
0
> <PUBCHEM_ISOTOPIC_ATOM_COUNT>
0
> <PUBCHEM_COMPONENT_COUNT>
1
> <PUBCHEM_CACTVS_TAUTO_COUNT>
-1
> <PUBCHEM_COORDINATE_TYPE>
1
5
255
> <PUBCHEM_BONDANNOTATIONS>
14  10  6
25  12  6
13  35  8
13  36  8
22  28  8
22  29  8
28  32  8
29  33  8
3  40  8
3  45  8
30  31  8
30  36  8
31  35  8
31  37  8
32  34  8
33  34  8
35  39  8
37  41  8
39  42  8
40  43  8
41  42  8
43  44  8
44  45  8
$$$$
