508691
  -OEChem-10302200282D
 90 92  0     1  0  0  0  0  0999 V2000
   13.2207   -1.4630    0.0000 S   0  0  0  0  0  0  0  0  0  0  0  0
   10.2852   -2.0816    0.0000 O   0  0  0  0  0  0  0  0  0  0  0  0
   13.9650   -0.7951    0.0000 O   0  0  0  0  0  0  0  0  0  0  0  0
   12.4764   -2.1308    0.0000 O   0  0  0  0  0  0  0  0  0  0  0  0
    6.3246   -0.2612    0.0000 O   0  0  0  0  0  0  0  0  0  0  0  0
    4.6318    2.9222    0.0000 O   0  0  0  0  0  0  0  0  0  0  0  0
   12.5528   -0.7187    0.0000 N   0  0  3  0  0  0  0  0  0  0  0  0
    7.6138    0.8956    0.0000 N   0  0  0  0  0  0  0  0  0  0  0  0
    6.2781    2.3842    0.0000 N   0  0  0  0  0  0  0  0  0  0  0  0
    4.6783   -1.3325    0.0000 N   0  0  0  0  0  0  0  0  0  0  0  0
   15.8921   -4.4402    0.0000 N   0  0  0  0  0  0  0  0  0  0  0  0
   11.5743   -0.9249    0.0000 C   0  0  1  0  0  0  0  0  0  0  0  0
   10.9065   -0.1806    0.0000 C   0  0  0  0  0  0  0  0  0  0  0  0
   12.8635    0.2318    0.0000 C   0  0  0  0  0  0  0  0  0  0  0  0
    9.9280   -0.3868    0.0000 C   0  0  0  0  0  0  0  0  0  0  0  0
   12.1957    0.9761    0.0000 C   0  0  0  0  0  0  0  0  0  0  0  0
   11.2637   -1.8754    0.0000 C   0  0  0  0  0  0  0  0  0  0  0  0
    9.2601    0.3575    0.0000 C   0  0  0  0  0  0  0  0  0  0  0  0
    8.2816    0.1513    0.0000 C   0  0  0  0  0  0  0  0  0  0  0  0
   13.8885   -2.2073    0.0000 C   0  0  0  0  0  0  0  0  0  0  0  0
   12.5063    1.9267    0.0000 C   0  0  0  0  0  0  0  0  0  0  0  0
   11.2171    0.7699    0.0000 C   0  0  0  0  0  0  0  0  0  0  0  0
    5.9674    1.4336    0.0000 C   0  0  1  0  0  0  0  0  0  0  0  0
    4.9889    1.2274    0.0000 C   0  0  0  0  0  0  0  0  0  0  0  0
    6.6353    0.6893    0.0000 C   0  0  0  0  0  0  0  0  0  0  0  0
    5.9209    4.0790    0.0000 C   0  0  0  0  0  0  0  0  0  0  0  0
    4.6783    0.2769    0.0000 C   0  0  0  0  0  0  0  0  0  0  0  0
   13.5779   -3.1578    0.0000 C   0  0  0  0  0  0  0  0  0  0  0  0
   14.8670   -2.0011    0.0000 C   0  0  0  0  0  0  0  0  0  0  0  0
    5.6103    3.1285    0.0000 C   0  0  0  0  0  0  0  0  0  0  0  0
    3.7320   -0.0278    0.0000 C   0  0  0  0  0  0  0  0  0  0  0  0
    6.2316    5.0295    0.0000 C   0  0  0  0  0  0  0  0  0  0  0  0
    4.9704    4.3896    0.0000 C   0  0  0  0  0  0  0  0  0  0  0  0
    6.8714    3.7683    0.0000 C   0  0  0  0  0  0  0  0  0  0  0  0
    5.2619   -0.5278    0.0000 C   0  0  0  0  0  0  0  0  0  0  0  0
    3.7320   -1.0278    0.0000 C   0  0  0  0  0  0  0  0  0  0  0  0
   14.2457   -3.9021    0.0000 C   0  0  0  0  0  0  0  0  0  0  0  0
   15.5349   -2.7454    0.0000 C   0  0  0  0  0  0  0  0  0  0  0  0
   15.2242   -3.6959    0.0000 C   0  0  0  0  0  0  0  0  0  0  0  0
    2.8660    0.4722    0.0000 C   0  0  0  0  0  0  0  0  0  0  0  0
    2.8660   -1.5278    0.0000 C   0  0  0  0  0  0  0  0  0  0  0  0
    2.0000   -0.0278    0.0000 C   0  0  0  0  0  0  0  0  0  0  0  0
    2.0000   -1.0278    0.0000 C   0  0  0  0  0  0  0  0  0  0  0  0
   11.7669   -0.3356    0.0000 H   0  0  0  0  0  0  0  0  0  0  0  0
   11.4328    0.1470    0.0000 H   0  0  0  0  0  0  0  0  0  0  0  0
   10.6752    0.3947    0.0000 H   0  0  0  0  0  0  0  0  0  0  0  0
   13.4104   -0.0602    0.0000 H   0  0  0  0  0  0  0  0  0  0  0  0
   13.2461    0.7197    0.0000 H   0  0  0  0  0  0  0  0  0  0  0  0
    9.4016   -0.7145    0.0000 H   0  0  0  0  0  0  0  0  0  0  0  0
   10.1592   -0.9621    0.0000 H   0  0  0  0  0  0  0  0  0  0  0  0
   12.0030    0.3868    0.0000 H   0  0  0  0  0  0  0  0  0  0  0  0
   11.2842   -2.4951    0.0000 H   0  0  0  0  0  0  0  0  0  0  0  0
   11.8775   -1.9628    0.0000 H   0  0  0  0  0  0  0  0  0  0  0  0
    9.7865    0.6851    0.0000 H   0  0  0  0  0  0  0  0  0  0  0  0
    9.0289    0.9327    0.0000 H   0  0  0  0  0  0  0  0  0  0  0  0
    7.7553   -0.1764    0.0000 H   0  0  0  0  0  0  0  0  0  0  0  0
    8.5129   -0.4240    0.0000 H   0  0  0  0  0  0  0  0  0  0  0  0
   13.0956    1.7340    0.0000 H   0  0  0  0  0  0  0  0  0  0  0  0
   12.6989    2.5160    0.0000 H   0  0  0  0  0  0  0  0  0  0  0  0
   11.9170    2.1193    0.0000 H   0  0  0  0  0  0  0  0  0  0  0  0
   11.0893    1.3766    0.0000 H   0  0  0  0  0  0  0  0  0  0  0  0
   10.6105    0.6421    0.0000 H   0  0  0  0  0  0  0  0  0  0  0  0
   11.3450    0.1632    0.0000 H   0  0  0  0  0  0  0  0  0  0  0  0
    5.5534    1.8951    0.0000 H   0  0  0  0  0  0  0  0  0  0  0  0
    4.9684    1.8471    0.0000 H   0  0  0  0  0  0  0  0  0  0  0  0
    4.3751    1.3148    0.0000 H   0  0  0  0  0  0  0  0  0  0  0  0
    7.8064    1.4849    0.0000 H   0  0  0  0  0  0  0  0  0  0  0  0
   10.0926   -2.6710    0.0000 H   0  0  0  0  0  0  0  0  0  0  0  0
    6.8848    2.5120    0.0000 H   0  0  0  0  0  0  0  0  0  0  0  0
   12.9712   -3.2857    0.0000 H   0  0  0  0  0  0  0  0  0  0  0  0
   15.0596   -1.4117    0.0000 H   0  0  0  0  0  0  0  0  0  0  0  0
    6.8209    4.8369    0.0000 H   0  0  0  0  0  0  0  0  0  0  0  0
    6.4242    5.6188    0.0000 H   0  0  0  0  0  0  0  0  0  0  0  0
    5.6423    5.2221    0.0000 H   0  0  0  0  0  0  0  0  0  0  0  0
    5.1630    4.9790    0.0000 H   0  0  0  0  0  0  0  0  0  0  0  0
    4.3811    4.5823    0.0000 H   0  0  0  0  0  0  0  0  0  0  0  0
    4.7778    3.8003    0.0000 H   0  0  0  0  0  0  0  0  0  0  0  0
    6.6788    3.1790    0.0000 H   0  0  0  0  0  0  0  0  0  0  0  0
    7.4608    3.5757    0.0000 H   0  0  0  0  0  0  0  0  0  0  0  0
    7.0640    4.3576    0.0000 H   0  0  0  0  0  0  0  0  0  0  0  0
    5.8819   -0.5278    0.0000 H   0  0  0  0  0  0  0  0  0  0  0  0
   14.0531   -4.4914    0.0000 H   0  0  0  0  0  0  0  0  0  0  0  0
   16.1415   -2.6175    0.0000 H   0  0  0  0  0  0  0  0  0  0  0  0
    4.8709   -1.9219    0.0000 H   0  0  0  0  0  0  0  0  0  0  0  0
    2.8660    1.0922    0.0000 H   0  0  0  0  0  0  0  0  0  0  0  0
    2.8660   -2.1478    0.0000 H   0  0  0  0  0  0  0  0  0  0  0  0
    1.4631    0.2822    0.0000 H   0  0  0  0  0  0  0  0  0  0  0  0
    1.4631   -1.3378    0.0000 H   0  0  0  0  0  0  0  0  0  0  0  0
   16.4987   -4.3123    0.0000 H   0  0  0  0  0  0  0  0  0  0  0  0
   15.6994   -5.0295    0.0000 H   0  0  0  0  0  0  0  0  0  0  0  0
  1  3  2  0  0  0  0
  1  4  2  0  0  0  0
  1  7  1  0  0  0  0
  1 20  1  0  0  0  0
  2 17  1  0  0  0  0
  2 68  1  0  0  0  0
  5 25  2  0  0  0  0
  6 30  2  0  0  0  0
 12  7  1  6  0  0  0
  7 14  1  0  0  0  0
  8 19  1  0  0  0  0
  8 25  1  0  0  0  0
  8 67  1  0  0  0  0
 23  9  1  6  0  0  0
  9 30  1  0  0  0  0
  9 69  1  0  0  0  0
 10 35  1  0  0  0  0
 10 36  1  0  0  0  0
 10 84  1  0  0  0  0
 11 39  1  0  0  0  0
 11 89  1  0  0  0  0
 11 90  1  0  0  0  0
 12 13  1  0  0  0  0
 12 17  1  0  0  0  0
 12 44  1  0  0  0  0
 13 15  1  0  0  0  0
 13 45  1  0  0  0  0
 13 46  1  0  0  0  0
 14 16  1  0  0  0  0
 14 47  1  0  0  0  0
 14 48  1  0  0  0  0
 15 18  1  0  0  0  0
 15 49  1  0  0  0  0
 15 50  1  0  0  0  0
 16 21  1  0  0  0  0
 16 22  1  0  0  0  0
 16 51  1  0  0  0  0
 17 52  1  0  0  0  0
 17 53  1  0  0  0  0
 18 19  1  0  0  0  0
 18 54  1  0  0  0  0
 18 55  1  0  0  0  0
 19 56  1  0  0  0  0
 19 57  1  0  0  0  0
 20 28  2  0  0  0  0
 20 29  1  0  0  0  0
 21 58  1  0  0  0  0
 21 59  1  0  0  0  0
 21 60  1  0  0  0  0
 22 61  1  0  0  0  0
 22 62  1  0  0  0  0
 22 63  1  0  0  0  0
 23 24  1  0  0  0  0
 23 25  1  0  0  0  0
 23 64  1  0  0  0  0
 24 27  1  0  0  0  0
 24 65  1  0  0  0  0
 24 66  1  0  0  0  0
 26 30  1  0  0  0  0
 26 32  1  0  0  0  0
 26 33  1  0  0  0  0
 26 34  1  0  0  0  0
 27 31  1  0  0  0  0
 27 35  2  0  0  0  0
 28 37  1  0  0  0  0
 28 70  1  0  0  0  0
 29 38  2  0  0  0  0
 29 71  1  0  0  0  0
 31 36  1  0  0  0  0
 31 40  2  0  0  0  0
 32 72  1  0  0  0  0
 32 73  1  0  0  0  0
 32 74  1  0  0  0  0
 33 75  1  0  0  0  0
 33 76  1  0  0  0  0
 33 77  1  0  0  0  0
 34 78  1  0  0  0  0
 34 79  1  0  0  0  0
 34 80  1  0  0  0  0
 35 81  1  0  0  0  0
 36 41  2  0  0  0  0
 37 39  2  0  0  0  0
 37 82  1  0  0  0  0
 38 39  1  0  0  0  0
 38 83  1  0  0  0  0
 40 42  1  0  0  0  0
 40 85  1  0  0  0  0
 41 43  1  0  0  0  0
 41 86  1  0  0  0  0
 42 43  2  0  0  0  0
 42 87  1  0  0  0  0
 43 88  1  0  0  0  0
M  END
> <PUBCHEM_COMPOUND_CID>
508691
> <PUBCHEM_COMPOUND_CANONICALIZED>
1
> <PUBCHEM_CACTVS_COMPLEXITY>
987
> <PUBCHEM_CACTVS_HBOND_ACCEPTOR>
7
> <PUBCHEM_CACTVS_HBOND_DONOR>
5
> <PUBCHEM_CACTVS_ROTATABLE_BOND>
16
> <PUBCHEM_CACTVS_SUBSKEYS>
AAADcfB/uABAAAAAAAAAAAAAAAAAAWAAAAAwYAAAAAAAAFgB9AAAHgQQSAAADyjh3gY+wfLJkgKoAzV3VHDCgDAxAiAI2bm4ZJgKcPLAkbGUYAhklgDYyAeYycCOgAQAAAACAAAACAAAAAQAAAAAAAAAAA==
> <PUBCHEM_IUPAC_OPENEYE_NAME>
N-[(1S)-2-[[(5S)-5-[(4-aminophenyl)sulfonyl-isobutyl-amino]-6-hydroxy-hexyl]amino]-1-(1H-indol-3-ylmethyl)-2-oxo-ethyl]-2,2-dimethyl-propanamide
> <PUBCHEM_IUPAC_CAS_NAME>
N-[(2S)-1-[[(5S)-5-[(4-aminophenyl)sulfonyl-(2-methylpropyl)amino]-6-hydroxyhexyl]amino]-3-(1H-indol-3-yl)-1-oxopropan-2-yl]-2,2-dimethylpropanamide
> <PUBCHEM_IUPAC_NAME_MARKUP>
<I>N</I>-[(2<I>S</I>)-1-[[(5<I>S</I>)-5-[(4-aminophenyl)sulfonyl-(2-methylpropyl)amino]-6-hydroxyhexyl]amino]-3-(1<I>H</I>-indol-3-yl)-1-oxopropan-2-yl]-2,2-dimethylpropanamide
> <PUBCHEM_IUPAC_NAME>
N-[(2S)-1-[[(5S)-5-[(4-aminophenyl)sulfonyl-(2-methylpropyl)amino]-6-hydroxyhexyl]amino]-3-(1H-indol-3-yl)-1-oxopropan-2-yl]-2,2-dimethylpropanamide
> <PUBCHEM_IUPAC_SYSTEMATIC_NAME>
N-[(2S)-1-[[(5S)-5-[(4-aminophenyl)sulfonyl-(2-methylpropyl)amino]-6-oxidanyl-hexyl]amino]-3-(1H-indol-3-yl)-1-oxidanylidene-propan-2-yl]-2,2-dimethyl-propanamide
> <PUBCHEM_IUPAC_TRADITIONAL_NAME>
N-[(1S)-2-[[(5S)-6-hydroxy-5-[isobutyl(sulfanilyl)amino]hexyl]amino]-1-(1H-indol-3-ylmethyl)-2-keto-ethyl]-2,2-dimethyl-propionamide
> <PUBCHEM_IUPAC_INCHI>
InChI=1S/C32H47N5O5S/c1-22(2)20-37(43(41,42)26-15-13-24(33)14-16-26)25(21-38)10-8-9-17-34-30(39)29(36-31(40)32(3,4)5)18-23-19-35-28-12-7-6-11-27(23)28/h6-7,11-16,19,22,25,29,35,38H,8-10,17-18,20-21,33H2,1-5H3,(H,34,39)(H,36,40)/t25-,29-/m0/s1
> <PUBCHEM_IUPAC_INCHIKEY>
VTWNTKKVMQXHRQ-SVEHJYQDSA-N
> <PUBCHEM_XLOGP3_AA>
4.4
> <PUBCHEM_EXACT_MASS>
613.32979079
> <PUBCHEM_MOLECULAR_FORMULA>
C32H47N5O5S
> <PUBCHEM_MOLECULAR_WEIGHT>
613.8
> <PUBCHEM_OPENEYE_CAN_SMILES>
CC(C)CN(C(CCCCNC(=O)C(CC1=CNC2=CC=CC=C21)NC(=O)C(C)(C)C)CO)S(=O)(=O)C3=CC=C(C=C3)N
> <PUBCHEM_OPENEYE_ISO_SMILES>
CC(C)CN([C@@H](CCCCNC(=O)[C@H](CC1=CNC2=CC=CC=C21)NC(=O)C(C)(C)C)CO)S(=O)(=O)C3=CC=C(C=C3)N
> <PUBCHEM_CACTVS_TPSA>
166
> <PUBCHEM_MONOISOTOPIC_WEIGHT>
613.32979079
> <PUBCHEM_TOTAL_CHARGE>
0
> <PUBCHEM_HEAVY_ATOM_COUNT>
43
> <PUBCHEM_ATOM_DEF_STEREO_COUNT>
2
> <PUBCHEM_ATOM_UDEF_STEREO_COUNT>
0
> <PUBCHEM_BOND_DEF_STEREO_COUNT>
0
> <PUBCHEM_BOND_UDEF_STEREO_COUNT>
0
> <PUBCHEM_ISOTOPIC_ATOM_COUNT>
0
> <PUBCHEM_COMPONENT_COUNT>
1
> <PUBCHEM_CACTVS_TAUTO_COUNT>
-1
> <PUBCHEM_COORDINATE_TYPE>
1
5
255
> <PUBCHEM_BONDANNOTATIONS>
10  35  8
10  36  8
20  28  8
20  29  8
27  31  8
27  35  8
28  37  8
29  38  8
31  36  8
31  40  8
36  41  8
37  39  8
38  39  8
40  42  8
41  43  8
42  43  8
12  7  6
23  9  6
$$$$
