508664
  -OEChem-10302200282D
100101  0     1  0  0  0  0  0999 V2000
    5.4641   -0.3170    0.0000 S   0  0  0  0  0  0  0  0  0  0  0  0
    8.0622    1.1830    0.0000 O   0  0  0  0  0  0  0  0  0  0  0  0
    4.9641   -1.1830    0.0000 O   0  0  0  0  0  0  0  0  0  0  0  0
    5.9641    0.5490    0.0000 O   0  0  0  0  0  0  0  0  0  0  0  0
   12.3923    0.6830    0.0000 O   0  0  0  0  0  0  0  0  0  0  0  0
   14.1244   -3.3170    0.0000 O   0  0  0  0  0  0  0  0  0  0  0  0
   14.9904   -1.8170    0.0000 O   0  0  0  0  0  0  0  0  0  0  0  0
    6.3301   -0.8170    0.0000 N   0  0  3  0  0  0  0  0  0  0  0  0
   11.5263   -0.8170    0.0000 N   0  0  0  0  0  0  0  0  0  0  0  0
   13.2583   -1.8170    0.0000 N   0  0  0  0  0  0  0  0  0  0  0  0
    7.1962   -0.3170    0.0000 C   0  0  1  0  0  0  0  0  0  0  0  0
    8.0622   -0.8170    0.0000 C   0  0  0  0  0  0  0  0  0  0  0  0
    6.3301   -1.8170    0.0000 C   0  0  0  0  0  0  0  0  0  0  0  0
    8.9282   -0.3170    0.0000 C   0  0  0  0  0  0  0  0  0  0  0  0
    7.1962   -2.3170    0.0000 C   0  0  0  0  0  0  0  0  0  0  0  0
    7.1962    0.6830    0.0000 C   0  0  0  0  0  0  0  0  0  0  0  0
    9.7942   -0.8170    0.0000 C   0  0  0  0  0  0  0  0  0  0  0  0
    4.5981    0.1830    0.0000 C   0  0  0  0  0  0  0  0  0  0  0  0
   10.6603   -0.3170    0.0000 C   0  0  0  0  0  0  0  0  0  0  0  0
    7.1962   -3.3170    0.0000 C   0  0  0  0  0  0  0  0  0  0  0  0
    8.0622   -1.8170    0.0000 C   0  0  0  0  0  0  0  0  0  0  0  0
   14.1244    3.6830    0.0000 C   0  0  0  0  0  0  0  0  0  0  0  0
   13.2583   -0.8170    0.0000 C   0  0  1  0  0  0  0  0  0  0  0  0
    4.5981    1.1830    0.0000 C   0  0  0  0  0  0  0  0  0  0  0  0
    3.7320   -0.3170    0.0000 C   0  0  0  0  0  0  0  0  0  0  0  0
   14.1244   -0.3170    0.0000 C   0  0  0  0  0  0  0  0  0  0  0  0
   12.3923   -0.3170    0.0000 C   0  0  0  0  0  0  0  0  0  0  0  0
   14.1244    2.6830    0.0000 C   0  0  0  0  0  0  0  0  0  0  0  0
   14.1244    0.6830    0.0000 C   0  0  0  0  0  0  0  0  0  0  0  0
    3.7320    1.6830    0.0000 C   0  0  0  0  0  0  0  0  0  0  0  0
    2.8660    0.1830    0.0000 C   0  0  0  0  0  0  0  0  0  0  0  0
    2.8660    1.1830    0.0000 C   0  0  0  0  0  0  0  0  0  0  0  0
   14.1244    4.6830    0.0000 C   0  0  0  0  0  0  0  0  0  0  0  0
   15.1244    3.6830    0.0000 C   0  0  0  0  0  0  0  0  0  0  0  0
   13.1244    3.6830    0.0000 C   0  0  0  0  0  0  0  0  0  0  0  0
   13.2583    2.1830    0.0000 C   0  0  0  0  0  0  0  0  0  0  0  0
   14.9904    2.1830    0.0000 C   0  0  0  0  0  0  0  0  0  0  0  0
   13.2583    1.1830    0.0000 C   0  0  0  0  0  0  0  0  0  0  0  0
   14.9904    1.1830    0.0000 C   0  0  0  0  0  0  0  0  0  0  0  0
    2.0000    1.6830    0.0000 C   0  0  0  0  0  0  0  0  0  0  0  0
   14.1244   -2.3170    0.0000 C   0  0  0  0  0  0  0  0  0  0  0  0
   14.9904   -3.8170    0.0000 C   0  0  0  0  0  0  0  0  0  0  0  0
   15.8564   -4.3170    0.0000 C   0  0  0  0  0  0  0  0  0  0  0  0
   14.4904   -4.6830    0.0000 C   0  0  0  0  0  0  0  0  0  0  0  0
   15.4904   -2.9510    0.0000 C   0  0  0  0  0  0  0  0  0  0  0  0
    6.6592   -0.0070    0.0000 H   0  0  0  0  0  0  0  0  0  0  0  0
    7.6636   -1.2919    0.0000 H   0  0  0  0  0  0  0  0  0  0  0  0
    8.4607   -1.2919    0.0000 H   0  0  0  0  0  0  0  0  0  0  0  0
    5.7196   -1.7093    0.0000 H   0  0  0  0  0  0  0  0  0  0  0  0
    6.1181   -2.3996    0.0000 H   0  0  0  0  0  0  0  0  0  0  0  0
    9.3267    0.1580    0.0000 H   0  0  0  0  0  0  0  0  0  0  0  0
    8.5297    0.1580    0.0000 H   0  0  0  0  0  0  0  0  0  0  0  0
    6.6592   -2.6270    0.0000 H   0  0  0  0  0  0  0  0  0  0  0  0
    6.9841    1.2656    0.0000 H   0  0  0  0  0  0  0  0  0  0  0  0
    6.5856    0.5754    0.0000 H   0  0  0  0  0  0  0  0  0  0  0  0
    9.3957   -1.2919    0.0000 H   0  0  0  0  0  0  0  0  0  0  0  0
   10.1928   -1.2919    0.0000 H   0  0  0  0  0  0  0  0  0  0  0  0
   11.0588    0.1580    0.0000 H   0  0  0  0  0  0  0  0  0  0  0  0
   10.2617    0.1580    0.0000 H   0  0  0  0  0  0  0  0  0  0  0  0
    6.5762   -3.3170    0.0000 H   0  0  0  0  0  0  0  0  0  0  0  0
    7.1962   -3.9370    0.0000 H   0  0  0  0  0  0  0  0  0  0  0  0
    7.8162   -3.3170    0.0000 H   0  0  0  0  0  0  0  0  0  0  0  0
    8.3722   -2.3539    0.0000 H   0  0  0  0  0  0  0  0  0  0  0  0
    8.5991   -1.5070    0.0000 H   0  0  0  0  0  0  0  0  0  0  0  0
    7.7522   -1.2800    0.0000 H   0  0  0  0  0  0  0  0  0  0  0  0
   11.5263   -1.4370    0.0000 H   0  0  0  0  0  0  0  0  0  0  0  0
    8.0622    1.8030    0.0000 H   0  0  0  0  0  0  0  0  0  0  0  0
   13.7953   -1.1270    0.0000 H   0  0  0  0  0  0  0  0  0  0  0  0
    5.1350    1.4930    0.0000 H   0  0  0  0  0  0  0  0  0  0  0  0
    3.7320   -0.9370    0.0000 H   0  0  0  0  0  0  0  0  0  0  0  0
   14.3364   -0.8996    0.0000 H   0  0  0  0  0  0  0  0  0  0  0  0
   14.7349   -0.2093    0.0000 H   0  0  0  0  0  0  0  0  0  0  0  0
    3.7320    2.3030    0.0000 H   0  0  0  0  0  0  0  0  0  0  0  0
    2.3291   -0.1270    0.0000 H   0  0  0  0  0  0  0  0  0  0  0  0
   14.7444    4.6830    0.0000 H   0  0  0  0  0  0  0  0  0  0  0  0
   14.1244    5.3030    0.0000 H   0  0  0  0  0  0  0  0  0  0  0  0
   13.5044    4.6830    0.0000 H   0  0  0  0  0  0  0  0  0  0  0  0
   15.1244    3.0630    0.0000 H   0  0  0  0  0  0  0  0  0  0  0  0
   15.7444    3.6830    0.0000 H   0  0  0  0  0  0  0  0  0  0  0  0
   15.1244    4.3030    0.0000 H   0  0  0  0  0  0  0  0  0  0  0  0
   13.1244    4.3030    0.0000 H   0  0  0  0  0  0  0  0  0  0  0  0
   12.5044    3.6830    0.0000 H   0  0  0  0  0  0  0  0  0  0  0  0
   13.1244    3.0630    0.0000 H   0  0  0  0  0  0  0  0  0  0  0  0
   12.7214    2.4930    0.0000 H   0  0  0  0  0  0  0  0  0  0  0  0
   15.5273    2.4930    0.0000 H   0  0  0  0  0  0  0  0  0  0  0  0
   12.7214    0.8730    0.0000 H   0  0  0  0  0  0  0  0  0  0  0  0
   15.5273    0.8730    0.0000 H   0  0  0  0  0  0  0  0  0  0  0  0
   12.7214   -2.1270    0.0000 H   0  0  0  0  0  0  0  0  0  0  0  0
    2.3100    2.2200    0.0000 H   0  0  0  0  0  0  0  0  0  0  0  0
    1.4631    1.9930    0.0000 H   0  0  0  0  0  0  0  0  0  0  0  0
    1.6900    1.1461    0.0000 H   0  0  0  0  0  0  0  0  0  0  0  0
   15.5464   -4.8539    0.0000 H   0  0  0  0  0  0  0  0  0  0  0  0
   16.3933   -4.6270    0.0000 H   0  0  0  0  0  0  0  0  0  0  0  0
   16.1664   -3.7800    0.0000 H   0  0  0  0  0  0  0  0  0  0  0  0
   13.9534   -4.3730    0.0000 H   0  0  0  0  0  0  0  0  0  0  0  0
   14.1804   -5.2200    0.0000 H   0  0  0  0  0  0  0  0  0  0  0  0
   15.0273   -4.9930    0.0000 H   0  0  0  0  0  0  0  0  0  0  0  0
   16.0273   -3.2610    0.0000 H   0  0  0  0  0  0  0  0  0  0  0  0
   15.8004   -2.4140    0.0000 H   0  0  0  0  0  0  0  0  0  0  0  0
   14.9534   -2.6410    0.0000 H   0  0  0  0  0  0  0  0  0  0  0  0
  1  3  2  0  0  0  0
  1  4  2  0  0  0  0
  1  8  1  0  0  0  0
  1 18  1  0  0  0  0
  2 16  1  0  0  0  0
  2 67  1  0  0  0  0
  5 27  2  0  0  0  0
  6 41  1  0  0  0  0
  6 42  1  0  0  0  0
  7 41  2  0  0  0  0
 11  8  1  6  0  0  0
  8 13  1  0  0  0  0
  9 19  1  0  0  0  0
  9 27  1  0  0  0  0
  9 66  1  0  0  0  0
 23 10  1  6  0  0  0
 10 41  1  0  0  0  0
 10 88  1  0  0  0  0
 11 12  1  0  0  0  0
 11 16  1  0  0  0  0
 11 46  1  0  0  0  0
 12 14  1  0  0  0  0
 12 47  1  0  0  0  0
 12 48  1  0  0  0  0
 13 15  1  0  0  0  0
 13 49  1  0  0  0  0
 13 50  1  0  0  0  0
 14 17  1  0  0  0  0
 14 51  1  0  0  0  0
 14 52  1  0  0  0  0
 15 20  1  0  0  0  0
 15 21  1  0  0  0  0
 15 53  1  0  0  0  0
 16 54  1  0  0  0  0
 16 55  1  0  0  0  0
 17 19  1  0  0  0  0
 17 56  1  0  0  0  0
 17 57  1  0  0  0  0
 18 24  2  0  0  0  0
 18 25  1  0  0  0  0
 19 58  1  0  0  0  0
 19 59  1  0  0  0  0
 20 60  1  0  0  0  0
 20 61  1  0  0  0  0
 20 62  1  0  0  0  0
 21 63  1  0  0  0  0
 21 64  1  0  0  0  0
 21 65  1  0  0  0  0
 22 28  1  0  0  0  0
 22 33  1  0  0  0  0
 22 34  1  0  0  0  0
 22 35  1  0  0  0  0
 23 26  1  0  0  0  0
 23 27  1  0  0  0  0
 23 68  1  0  0  0  0
 24 30  1  0  0  0  0
 24 69  1  0  0  0  0
 25 31  2  0  0  0  0
 25 70  1  0  0  0  0
 26 29  1  0  0  0  0
 26 71  1  0  0  0  0
 26 72  1  0  0  0  0
 28 36  2  0  0  0  0
 28 37  1  0  0  0  0
 29 38  2  0  0  0  0
 29 39  1  0  0  0  0
 30 32  2  0  0  0  0
 30 73  1  0  0  0  0
 31 32  1  0  0  0  0
 31 74  1  0  0  0  0
 32 40  1  0  0  0  0
 33 75  1  0  0  0  0
 33 76  1  0  0  0  0
 33 77  1  0  0  0  0
 34 78  1  0  0  0  0
 34 79  1  0  0  0  0
 34 80  1  0  0  0  0
 35 81  1  0  0  0  0
 35 82  1  0  0  0  0
 35 83  1  0  0  0  0
 36 38  1  0  0  0  0
 36 84  1  0  0  0  0
 37 39  2  0  0  0  0
 37 85  1  0  0  0  0
 38 86  1  0  0  0  0
 39 87  1  0  0  0  0
 40 89  1  0  0  0  0
 40 90  1  0  0  0  0
 40 91  1  0  0  0  0
 42 43  1  0  0  0  0
 42 44  1  0  0  0  0
 42 45  1  0  0  0  0
 43 92  1  0  0  0  0
 43 93  1  0  0  0  0
 43 94  1  0  0  0  0
 44 95  1  0  0  0  0
 44 96  1  0  0  0  0
 44 97  1  0  0  0  0
 45 98  1  0  0  0  0
 45 99  1  0  0  0  0
 45100  1  0  0  0  0
M  END
> <PUBCHEM_COMPOUND_CID>
508664
> <PUBCHEM_COMPOUND_CANONICALIZED>
1
> <PUBCHEM_CACTVS_COMPLEXITY>
998
> <PUBCHEM_CACTVS_HBOND_ACCEPTOR>
7
> <PUBCHEM_CACTVS_HBOND_DONOR>
3
> <PUBCHEM_CACTVS_ROTATABLE_BOND>
18
> <PUBCHEM_CACTVS_SUBSKEYS>
AAADcfB/OABAAAAAAAAAAAAAAAAAAAAAAAAwYAAAAAAAAAABQAAAHgQQSAAAD2zh2AYyCYLABgKIAiFSGHBCABAgAAAIiJmIAIkKcDKAkTGcYAAklgCYiAeYyMCP0AAAAAAAAACgAAAAAAAAAAAAAAAAAA==
> <PUBCHEM_IUPAC_OPENEYE_NAME>
tert-butyl N-[(1S)-1-[(4-tert-butylphenyl)methyl]-2-[[(5S)-6-hydroxy-5-[isobutyl(p-tolylsulfonyl)amino]hexyl]amino]-2-oxo-ethyl]carbamate
> <PUBCHEM_IUPAC_CAS_NAME>
N-[(2S)-3-(4-tert-butylphenyl)-1-[[(5S)-6-hydroxy-5-[(4-methylphenyl)sulfonyl-(2-methylpropyl)amino]hexyl]amino]-1-oxopropan-2-yl]carbamic acid tert-butyl ester
> <PUBCHEM_IUPAC_NAME_MARKUP>
<I>tert</I>-butyl <I>N</I>-[(2<I>S</I>)-3-(4-<I>tert</I>-butylphenyl)-1-[[(5<I>S</I>)-6-hydroxy-5-[(4-methylphenyl)sulfonyl-(2-methylpropyl)amino]hexyl]amino]-1-oxopropan-2-yl]carbamate
> <PUBCHEM_IUPAC_NAME>
tert-butyl N-[(2S)-3-(4-tert-butylphenyl)-1-[[(5S)-6-hydroxy-5-[(4-methylphenyl)sulfonyl-(2-methylpropyl)amino]hexyl]amino]-1-oxopropan-2-yl]carbamate
> <PUBCHEM_IUPAC_SYSTEMATIC_NAME>
tert-butyl N-[(2S)-3-(4-tert-butylphenyl)-1-[[(5S)-5-[(4-methylphenyl)sulfonyl-(2-methylpropyl)amino]-6-oxidanyl-hexyl]amino]-1-oxidanylidene-propan-2-yl]carbamate
> <PUBCHEM_IUPAC_TRADITIONAL_NAME>
N-[(1S)-1-(4-tert-butylbenzyl)-2-[[(5S)-6-hydroxy-5-[isobutyl(tosyl)amino]hexyl]amino]-2-keto-ethyl]carbamic acid tert-butyl ester
> <PUBCHEM_IUPAC_INCHI>
InChI=1S/C35H55N3O6S/c1-25(2)23-38(45(42,43)30-19-13-26(3)14-20-30)29(24-39)12-10-11-21-36-32(40)31(37-33(41)44-35(7,8)9)22-27-15-17-28(18-16-27)34(4,5)6/h13-20,25,29,31,39H,10-12,21-24H2,1-9H3,(H,36,40)(H,37,41)/t29-,31-/m0/s1
> <PUBCHEM_IUPAC_INCHIKEY>
IFKCIQMQFVLOQX-SMCANUKXSA-N
> <PUBCHEM_XLOGP3_AA>
6.9
> <PUBCHEM_EXACT_MASS>
645.38115766
> <PUBCHEM_MOLECULAR_FORMULA>
C35H55N3O6S
> <PUBCHEM_MOLECULAR_WEIGHT>
645.9
> <PUBCHEM_OPENEYE_CAN_SMILES>
CC1=CC=C(C=C1)S(=O)(=O)N(CC(C)C)C(CCCCNC(=O)C(CC2=CC=C(C=C2)C(C)(C)C)NC(=O)OC(C)(C)C)CO
> <PUBCHEM_OPENEYE_ISO_SMILES>
CC1=CC=C(C=C1)S(=O)(=O)N(CC(C)C)[C@@H](CCCCNC(=O)[C@H](CC2=CC=C(C=C2)C(C)(C)C)NC(=O)OC(C)(C)C)CO
> <PUBCHEM_CACTVS_TPSA>
133
> <PUBCHEM_MONOISOTOPIC_WEIGHT>
645.38115766
> <PUBCHEM_TOTAL_CHARGE>
0
> <PUBCHEM_HEAVY_ATOM_COUNT>
45
> <PUBCHEM_ATOM_DEF_STEREO_COUNT>
2
> <PUBCHEM_ATOM_UDEF_STEREO_COUNT>
0
> <PUBCHEM_BOND_DEF_STEREO_COUNT>
0
> <PUBCHEM_BOND_UDEF_STEREO_COUNT>
0
> <PUBCHEM_ISOTOPIC_ATOM_COUNT>
0
> <PUBCHEM_COMPONENT_COUNT>
1
> <PUBCHEM_CACTVS_TAUTO_COUNT>
-1
> <PUBCHEM_COORDINATE_TYPE>
1
5
255
> <PUBCHEM_BONDANNOTATIONS>
23  10  6
18  24  8
18  25  8
24  30  8
25  31  8
28  36  8
28  37  8
29  38  8
29  39  8
30  32  8
31  32  8
36  38  8
37  39  8
11  8  6
$$$$
