508668
  -OEChem-10302200282D
 86 87  0     1  0  0  0  0  0999 V2000
    9.9717    9.1590    0.0000 S   0  0  0  0  0  0  0  0  0  0  0  0
    4.8323   16.1389    0.0000 F   0  0  0  0  0  0  0  0  0  0  0  0
    5.1983   17.5049    0.0000 F   0  0  0  0  0  0  0  0  0  0  0  0
    6.1983   15.7729    0.0000 F   0  0  0  0  0  0  0  0  0  0  0  0
    7.0362    8.5403    0.0000 O   0  0  0  0  0  0  0  0  0  0  0  0
   10.9222    8.8483    0.0000 O   0  0  0  0  0  0  0  0  0  0  0  0
    9.0212    9.4696    0.0000 O   0  0  0  0  0  0  0  0  0  0  0  0
    4.1472    5.2763    0.0000 O   0  0  0  0  0  0  0  0  0  0  0  0
   11.2144   12.9610    0.0000 O   0  0  0  0  0  0  0  0  0  0  0  0
    7.4303   16.6389    0.0000 O   0  0  0  0  0  0  0  0  0  0  0  0
    6.5643   18.1389    0.0000 O   0  0  0  0  0  0  0  0  0  0  0  0
    9.6610    8.2084    0.0000 N   0  0  3  0  0  0  0  0  0  0  0  0
    5.7935    4.7382    0.0000 N   0  0  0  0  0  0  0  0  0  0  0  0
    5.1722    2.8372    0.0000 N   0  0  0  0  0  0  0  0  0  0  0  0
    3.2152    0.8153    0.0000 N   0  0  0  0  0  0  0  0  0  0  0  0
    8.6825    8.0022    0.0000 C   0  0  1  0  0  0  0  0  0  0  0  0
    8.3719    7.0517    0.0000 C   0  0  0  0  0  0  0  0  0  0  0  0
   10.3289    7.4641    0.0000 C   0  0  0  0  0  0  0  0  0  0  0  0
    7.3934    6.8455    0.0000 C   0  0  0  0  0  0  0  0  0  0  0  0
   10.0182    6.5136    0.0000 C   0  0  0  0  0  0  0  0  0  0  0  0
    8.0147    8.7465    0.0000 C   0  0  0  0  0  0  0  0  0  0  0  0
    7.0827    5.8950    0.0000 C   0  0  0  0  0  0  0  0  0  0  0  0
   10.2824   10.1095    0.0000 C   0  0  0  0  0  0  0  0  0  0  0  0
   10.6861    5.7693    0.0000 C   0  0  0  0  0  0  0  0  0  0  0  0
    9.0397    6.3074    0.0000 C   0  0  0  0  0  0  0  0  0  0  0  0
    6.1042    5.6887    0.0000 C   0  0  0  0  0  0  0  0  0  0  0  0
    9.6145   10.8538    0.0000 C   0  0  0  0  0  0  0  0  0  0  0  0
   11.2609   10.3157    0.0000 C   0  0  0  0  0  0  0  0  0  0  0  0
    4.5044    3.5815    0.0000 C   0  0  2  0  0  0  0  0  0  0  0  0
    4.8150    4.5320    0.0000 C   0  0  0  0  0  0  0  0  0  0  0  0
    3.5259    3.3752    0.0000 C   0  0  0  0  0  0  0  0  0  0  0  0
    9.9252   11.8043    0.0000 C   0  0  0  0  0  0  0  0  0  0  0  0
   11.5715   11.2662    0.0000 C   0  0  0  0  0  0  0  0  0  0  0  0
    3.2152    2.4247    0.0000 C   0  0  0  0  0  0  0  0  0  0  0  0
   10.9037   12.0105    0.0000 C   0  0  0  0  0  0  0  0  0  0  0  0
    2.2690    2.1200    0.0000 C   0  0  0  0  0  0  0  0  0  0  0  0
    2.2690    1.1200    0.0000 C   0  0  0  0  0  0  0  0  0  0  0  0
    3.7988    1.6200    0.0000 C   0  0  0  0  0  0  0  0  0  0  0  0
    1.4030    2.6200    0.0000 C   0  0  0  0  0  0  0  0  0  0  0  0
    1.4030    0.6200    0.0000 C   0  0  0  0  0  0  0  0  0  0  0  0
    0.5369    2.1200    0.0000 C   0  0  0  0  0  0  0  0  0  0  0  0
    0.5369    1.1200    0.0000 C   0  0  0  0  0  0  0  0  0  0  0  0
   12.1929   13.1672    0.0000 C   0  0  0  0  0  0  0  0  0  0  0  0
    5.6983   16.6389    0.0000 C   0  0  0  0  0  0  0  0  0  0  0  0
    6.5643   17.1389    0.0000 C   0  0  0  0  0  0  0  0  0  0  0  0
    8.8752    8.5915    0.0000 H   0  0  0  0  0  0  0  0  0  0  0  0
    8.3924    6.4320    0.0000 H   0  0  0  0  0  0  0  0  0  0  0  0
    8.9857    6.9643    0.0000 H   0  0  0  0  0  0  0  0  0  0  0  0
   10.8758    7.1721    0.0000 H   0  0  0  0  0  0  0  0  0  0  0  0
   10.7114    7.9520    0.0000 H   0  0  0  0  0  0  0  0  0  0  0  0
    7.3728    7.4651    0.0000 H   0  0  0  0  0  0  0  0  0  0  0  0
    6.7796    6.9328    0.0000 H   0  0  0  0  0  0  0  0  0  0  0  0
    9.6042    6.9751    0.0000 H   0  0  0  0  0  0  0  0  0  0  0  0
    8.5411    9.0742    0.0000 H   0  0  0  0  0  0  0  0  0  0  0  0
    7.7834    9.3218    0.0000 H   0  0  0  0  0  0  0  0  0  0  0  0
    7.1033    5.2753    0.0000 H   0  0  0  0  0  0  0  0  0  0  0  0
    7.6965    5.8076    0.0000 H   0  0  0  0  0  0  0  0  0  0  0  0
   10.2246    5.3552    0.0000 H   0  0  0  0  0  0  0  0  0  0  0  0
   11.1001    5.3078    0.0000 H   0  0  0  0  0  0  0  0  0  0  0  0
   11.1475    6.1834    0.0000 H   0  0  0  0  0  0  0  0  0  0  0  0
    8.9119    6.9141    0.0000 H   0  0  0  0  0  0  0  0  0  0  0  0
    8.4330    6.1795    0.0000 H   0  0  0  0  0  0  0  0  0  0  0  0
    9.1676    5.7007    0.0000 H   0  0  0  0  0  0  0  0  0  0  0  0
    6.0836    6.3084    0.0000 H   0  0  0  0  0  0  0  0  0  0  0  0
    5.4904    5.7761    0.0000 H   0  0  0  0  0  0  0  0  0  0  0  0
    6.6221    9.0018    0.0000 H   0  0  0  0  0  0  0  0  0  0  0  0
    6.2076    4.2767    0.0000 H   0  0  0  0  0  0  0  0  0  0  0  0
    9.0079   10.7259    0.0000 H   0  0  0  0  0  0  0  0  0  0  0  0
   11.6749    9.8542    0.0000 H   0  0  0  0  0  0  0  0  0  0  0  0
    4.3118    2.9922    0.0000 H   0  0  0  0  0  0  0  0  0  0  0  0
    3.5053    3.9949    0.0000 H   0  0  0  0  0  0  0  0  0  0  0  0
    2.9120    3.4626    0.0000 H   0  0  0  0  0  0  0  0  0  0  0  0
    9.5111   12.2658    0.0000 H   0  0  0  0  0  0  0  0  0  0  0  0
   12.1782   11.3941    0.0000 H   0  0  0  0  0  0  0  0  0  0  0  0
    4.4188    1.6200    0.0000 H   0  0  0  0  0  0  0  0  0  0  0  0
    5.7789    2.9650    0.0000 H   0  0  0  0  0  0  0  0  0  0  0  0
    4.9796    2.2478    0.0000 H   0  0  0  0  0  0  0  0  0  0  0  0
    3.4078    0.2259    0.0000 H   0  0  0  0  0  0  0  0  0  0  0  0
    1.4030    3.2400    0.0000 H   0  0  0  0  0  0  0  0  0  0  0  0
    1.4030    0.0000    0.0000 H   0  0  0  0  0  0  0  0  0  0  0  0
    0.0000    2.4300    0.0000 H   0  0  0  0  0  0  0  0  0  0  0  0
    0.0000    0.8100    0.0000 H   0  0  0  0  0  0  0  0  0  0  0  0
   12.3207   12.5606    0.0000 H   0  0  0  0  0  0  0  0  0  0  0  0
   12.7995   13.2951    0.0000 H   0  0  0  0  0  0  0  0  0  0  0  0
   12.0650   13.7739    0.0000 H   0  0  0  0  0  0  0  0  0  0  0  0
    7.9673   16.9489    0.0000 H   0  0  0  0  0  0  0  0  0  0  0  0
  1  6  2  0  0  0  0
  1  7  2  0  0  0  0
  1 12  1  0  0  0  0
  1 23  1  0  0  0  0
  2 44  1  0  0  0  0
  3 44  1  0  0  0  0
  4 44  1  0  0  0  0
  5 21  1  0  0  0  0
  5 66  1  0  0  0  0
  8 30  2  0  0  0  0
  9 35  1  0  0  0  0
  9 43  1  0  0  0  0
 10 45  1  0  0  0  0
 10 86  1  0  0  0  0
 11 45  2  0  0  0  0
 16 12  1  1  0  0  0
 12 18  1  0  0  0  0
 13 26  1  0  0  0  0
 13 30  1  0  0  0  0
 13 67  1  0  0  0  0
 29 14  1  1  0  0  0
 14 76  1  0  0  0  0
 14 77  1  0  0  0  0
 15 37  1  0  0  0  0
 15 38  1  0  0  0  0
 15 78  1  0  0  0  0
 16 17  1  0  0  0  0
 16 21  1  0  0  0  0
 16 46  1  0  0  0  0
 17 19  1  0  0  0  0
 17 47  1  0  0  0  0
 17 48  1  0  0  0  0
 18 20  1  0  0  0  0
 18 49  1  0  0  0  0
 18 50  1  0  0  0  0
 19 22  1  0  0  0  0
 19 51  1  0  0  0  0
 19 52  1  0  0  0  0
 20 24  1  0  0  0  0
 20 25  1  0  0  0  0
 20 53  1  0  0  0  0
 21 54  1  0  0  0  0
 21 55  1  0  0  0  0
 22 26  1  0  0  0  0
 22 56  1  0  0  0  0
 22 57  1  0  0  0  0
 23 27  2  0  0  0  0
 23 28  1  0  0  0  0
 24 58  1  0  0  0  0
 24 59  1  0  0  0  0
 24 60  1  0  0  0  0
 25 61  1  0  0  0  0
 25 62  1  0  0  0  0
 25 63  1  0  0  0  0
 26 64  1  0  0  0  0
 26 65  1  0  0  0  0
 27 32  1  0  0  0  0
 27 68  1  0  0  0  0
 28 33  2  0  0  0  0
 28 69  1  0  0  0  0
 29 30  1  0  0  0  0
 29 31  1  0  0  0  0
 29 70  1  0  0  0  0
 31 34  1  0  0  0  0
 31 71  1  0  0  0  0
 31 72  1  0  0  0  0
 32 35  2  0  0  0  0
 32 73  1  0  0  0  0
 33 35  1  0  0  0  0
 33 74  1  0  0  0  0
 34 36  1  0  0  0  0
 34 38  2  0  0  0  0
 36 37  1  0  0  0  0
 36 39  2  0  0  0  0
 37 40  2  0  0  0  0
 38 75  1  0  0  0  0
 39 41  1  0  0  0  0
 39 79  1  0  0  0  0
 40 42  1  0  0  0  0
 40 80  1  0  0  0  0
 41 42  2  0  0  0  0
 41 81  1  0  0  0  0
 42 82  1  0  0  0  0
 43 83  1  0  0  0  0
 43 84  1  0  0  0  0
 43 85  1  0  0  0  0
 44 45  1  0  0  0  0
M  END
> <PUBCHEM_COMPOUND_CID>
508668
> <PUBCHEM_COMPOUND_CANONICALIZED>
1
> <PUBCHEM_CACTVS_COMPLEXITY>
896
> <PUBCHEM_CACTVS_HBOND_ACCEPTOR>
12
> <PUBCHEM_CACTVS_HBOND_DONOR>
5
> <PUBCHEM_CACTVS_ROTATABLE_BOND>
15
> <PUBCHEM_CACTVS_SUBSKEYS>
AAADcfB7uYBAAAAAAAAAAAAAAAAAAWAAAAAwYAAAAAAAAFgB9AAAHwQQSAAADSzh3hY+z/LJlgKoAzX3XHDCiDAxIiAI2bm+bJgOdvLEsZuUcChk1hHY6AeYycCOgIAAAAACAAABAAAAAAQAAAAAAAAAAA==
> <PUBCHEM_IUPAC_OPENEYE_NAME>
(2S)-2-amino-N-[(5S)-6-hydroxy-5-[isobutyl-(4-methoxyphenyl)sulfonyl-amino]hexyl]-3-(1H-indol-3-yl)propanamide;2,2,2-trifluoroacetic acid
> <PUBCHEM_IUPAC_CAS_NAME>
(2S)-2-amino-N-[(5S)-6-hydroxy-5-[(4-methoxyphenyl)sulfonyl-(2-methylpropyl)amino]hexyl]-3-(1H-indol-3-yl)propanamide;2,2,2-trifluoroacetic acid
> <PUBCHEM_IUPAC_NAME_MARKUP>
(2<I>S</I>)-2-amino-<I>N</I>-[(5<I>S</I>)-6-hydroxy-5-[(4-methoxyphenyl)sulfonyl-(2-methylpropyl)amino]hexyl]-3-(1<I>H</I>-indol-3-yl)propanamide;2,2,2-trifluoroacetic acid
> <PUBCHEM_IUPAC_NAME>
(2S)-2-amino-N-[(5S)-6-hydroxy-5-[(4-methoxyphenyl)sulfonyl-(2-methylpropyl)amino]hexyl]-3-(1H-indol-3-yl)propanamide;2,2,2-trifluoroacetic acid
> <PUBCHEM_IUPAC_SYSTEMATIC_NAME>
(2S)-2-azanyl-3-(1H-indol-3-yl)-N-[(5S)-5-[(4-methoxyphenyl)sulfonyl-(2-methylpropyl)amino]-6-oxidanyl-hexyl]propanamide;2,2,2-tris(fluoranyl)ethanoic acid
> <PUBCHEM_IUPAC_TRADITIONAL_NAME>
(2S)-2-amino-N-[(5S)-6-hydroxy-5-[isobutyl-(4-methoxyphenyl)sulfonyl-amino]hexyl]-3-(1H-indol-3-yl)propionamide;2,2,2-trifluoroacetic acid
> <PUBCHEM_IUPAC_INCHI>
InChI=1S/C28H40N4O5S.C2HF3O2/c1-20(2)18-32(38(35,36)24-13-11-23(37-3)12-14-24)22(19-33)8-6-7-15-30-28(34)26(29)16-21-17-31-27-10-5-4-9-25(21)27;3-2(4,5)1(6)7/h4-5,9-14,17,20,22,26,31,33H,6-8,15-16,18-19,29H2,1-3H3,(H,30,34);(H,6,7)/t22-,26-;/m0./s1
> <PUBCHEM_IUPAC_INCHIKEY>
CMXKBIGMWLCCHB-QHTHEMFPSA-N
> <PUBCHEM_EXACT_MASS>
658.26480532
> <PUBCHEM_MOLECULAR_FORMULA>
C30H41F3N4O7S
> <PUBCHEM_MOLECULAR_WEIGHT>
658.7
> <PUBCHEM_OPENEYE_CAN_SMILES>
CC(C)CN(C(CCCCNC(=O)C(CC1=CNC2=CC=CC=C21)N)CO)S(=O)(=O)C3=CC=C(C=C3)OC.C(=O)(C(F)(F)F)O
> <PUBCHEM_OPENEYE_ISO_SMILES>
CC(C)CN([C@@H](CCCCNC(=O)[C@H](CC1=CNC2=CC=CC=C21)N)CO)S(=O)(=O)C3=CC=C(C=C3)OC.C(=O)(C(F)(F)F)O
> <PUBCHEM_CACTVS_TPSA>
183
> <PUBCHEM_MONOISOTOPIC_WEIGHT>
658.26480532
> <PUBCHEM_TOTAL_CHARGE>
0
> <PUBCHEM_HEAVY_ATOM_COUNT>
45
> <PUBCHEM_ATOM_DEF_STEREO_COUNT>
2
> <PUBCHEM_ATOM_UDEF_STEREO_COUNT>
0
> <PUBCHEM_BOND_DEF_STEREO_COUNT>
0
> <PUBCHEM_BOND_UDEF_STEREO_COUNT>
0
> <PUBCHEM_ISOTOPIC_ATOM_COUNT>
0
> <PUBCHEM_COMPONENT_COUNT>
2
> <PUBCHEM_CACTVS_TAUTO_COUNT>
-1
> <PUBCHEM_COORDINATE_TYPE>
1
5
255
> <PUBCHEM_BONDANNOTATIONS>
16  12  5
29  14  5
15  37  8
15  38  8
23  27  8
23  28  8
27  32  8
28  33  8
32  35  8
33  35  8
34  36  8
34  38  8
36  37  8
36  39  8
37  40  8
39  41  8
40  42  8
41  42  8
$$$$
