508665
  -OEChem-10302200282D
 88 89  0     1  0  0  0  0  0999 V2000
    4.0000    2.8660    0.0000 S   0  0  0  0  0  0  0  0  0  0  0  0
   11.7321   -3.3301    0.0000 F   0  0  0  0  0  0  0  0  0  0  0  0
    8.2680   -3.3301    0.0000 F   0  0  0  0  0  0  0  0  0  0  0  0
    8.2680   -5.3301    0.0000 F   0  0  0  0  0  0  0  0  0  0  0  0
   11.7321   -5.3301    0.0000 F   0  0  0  0  0  0  0  0  0  0  0  0
   10.0000   -6.3301    0.0000 F   0  0  0  0  0  0  0  0  0  0  0  0
    5.5000    3.7320    0.0000 O   0  0  0  0  0  0  0  0  0  0  0  0
    3.1340    2.3660    0.0000 O   0  0  0  0  0  0  0  0  0  0  0  0
    4.8660    3.3660    0.0000 O   0  0  0  0  0  0  0  0  0  0  0  0
   10.5000    0.2679    0.0000 O   0  0  0  0  0  0  0  0  0  0  0  0
   13.0000   -0.5981    0.0000 O   0  0  0  0  0  0  0  0  0  0  0  0
   11.5000    0.2679    0.0000 O   0  0  0  0  0  0  0  0  0  0  0  0
    4.5000    2.0000    0.0000 N   0  0  3  0  0  0  0  0  0  0  0  0
    9.0000   -0.5981    0.0000 N   0  0  0  0  0  0  0  0  0  0  0  0
   11.5000   -1.4641    0.0000 N   0  0  0  0  0  0  0  0  0  0  0  0
    5.5000    2.0000    0.0000 C   0  0  1  0  0  0  0  0  0  0  0  0
    6.0000    1.1340    0.0000 C   0  0  0  0  0  0  0  0  0  0  0  0
    4.0000    1.1340    0.0000 C   0  0  0  0  0  0  0  0  0  0  0  0
    7.0000    1.1340    0.0000 C   0  0  0  0  0  0  0  0  0  0  0  0
    4.5000    0.2679    0.0000 C   0  0  0  0  0  0  0  0  0  0  0  0
    6.0000    2.8660    0.0000 C   0  0  0  0  0  0  0  0  0  0  0  0
    7.5000    0.2679    0.0000 C   0  0  0  0  0  0  0  0  0  0  0  0
    3.5000    3.7320    0.0000 C   0  0  0  0  0  0  0  0  0  0  0  0
    4.0000   -0.5981    0.0000 C   0  0  0  0  0  0  0  0  0  0  0  0
    5.5000    0.2679    0.0000 C   0  0  0  0  0  0  0  0  0  0  0  0
    8.5000    0.2679    0.0000 C   0  0  0  0  0  0  0  0  0  0  0  0
    4.0000    4.5981    0.0000 C   0  0  0  0  0  0  0  0  0  0  0  0
    2.5000    3.7320    0.0000 C   0  0  0  0  0  0  0  0  0  0  0  0
   10.5000   -1.4641    0.0000 C   0  0  2  0  0  0  0  0  0  0  0  0
   10.0000   -0.5981    0.0000 C   0  0  0  0  0  0  0  0  0  0  0  0
    3.5000    5.4641    0.0000 C   0  0  0  0  0  0  0  0  0  0  0  0
    2.0000    4.5981    0.0000 C   0  0  0  0  0  0  0  0  0  0  0  0
    2.5000    5.4641    0.0000 C   0  0  0  0  0  0  0  0  0  0  0  0
   10.0000   -2.3301    0.0000 C   0  0  0  0  0  0  0  0  0  0  0  0
   10.0000   -3.3301    0.0000 C   0  0  0  0  0  0  0  0  0  0  0  0
    2.0000    6.3301    0.0000 C   0  0  0  0  0  0  0  0  0  0  0  0
   13.5000    0.2679    0.0000 C   0  0  0  0  0  0  0  0  0  0  0  0
   12.0000   -0.5981    0.0000 C   0  0  0  0  0  0  0  0  0  0  0  0
   10.8660   -3.8301    0.0000 C   0  0  0  0  0  0  0  0  0  0  0  0
    9.1340   -3.8301    0.0000 C   0  0  0  0  0  0  0  0  0  0  0  0
   14.0000    1.1340    0.0000 C   0  0  0  0  0  0  0  0  0  0  0  0
   14.3660   -0.2321    0.0000 C   0  0  0  0  0  0  0  0  0  0  0  0
   12.6340    0.7679    0.0000 C   0  0  0  0  0  0  0  0  0  0  0  0
    9.1340   -4.8301    0.0000 C   0  0  0  0  0  0  0  0  0  0  0  0
   10.8660   -4.8301    0.0000 C   0  0  0  0  0  0  0  0  0  0  0  0
   10.0000   -5.3301    0.0000 C   0  0  0  0  0  0  0  0  0  0  0  0
    5.1900    2.5369    0.0000 H   0  0  0  0  0  0  0  0  0  0  0  0
    5.4174    0.9219    0.0000 H   0  0  0  0  0  0  0  0  0  0  0  0
    6.1077    0.5234    0.0000 H   0  0  0  0  0  0  0  0  0  0  0  0
    3.5250    1.5325    0.0000 H   0  0  0  0  0  0  0  0  0  0  0  0
    3.5250    0.7354    0.0000 H   0  0  0  0  0  0  0  0  0  0  0  0
    7.5826    1.3460    0.0000 H   0  0  0  0  0  0  0  0  0  0  0  0
    6.8923    1.7446    0.0000 H   0  0  0  0  0  0  0  0  0  0  0  0
    4.8100    0.8049    0.0000 H   0  0  0  0  0  0  0  0  0  0  0  0
    6.4750    2.4675    0.0000 H   0  0  0  0  0  0  0  0  0  0  0  0
    6.4750    3.2646    0.0000 H   0  0  0  0  0  0  0  0  0  0  0  0
    6.9174    0.0559    0.0000 H   0  0  0  0  0  0  0  0  0  0  0  0
    7.6077   -0.3426    0.0000 H   0  0  0  0  0  0  0  0  0  0  0  0
    3.4631   -0.2881    0.0000 H   0  0  0  0  0  0  0  0  0  0  0  0
    3.6900   -1.1350    0.0000 H   0  0  0  0  0  0  0  0  0  0  0  0
    4.5369   -0.9081    0.0000 H   0  0  0  0  0  0  0  0  0  0  0  0
    5.5000   -0.3521    0.0000 H   0  0  0  0  0  0  0  0  0  0  0  0
    6.1200    0.2679    0.0000 H   0  0  0  0  0  0  0  0  0  0  0  0
    5.5000    0.8879    0.0000 H   0  0  0  0  0  0  0  0  0  0  0  0
    9.0826    0.4800    0.0000 H   0  0  0  0  0  0  0  0  0  0  0  0
    8.3923    0.8785    0.0000 H   0  0  0  0  0  0  0  0  0  0  0  0
    5.8100    4.2690    0.0000 H   0  0  0  0  0  0  0  0  0  0  0  0
    4.6200    4.5981    0.0000 H   0  0  0  0  0  0  0  0  0  0  0  0
    2.1900    3.1951    0.0000 H   0  0  0  0  0  0  0  0  0  0  0  0
    8.6900   -1.1350    0.0000 H   0  0  0  0  0  0  0  0  0  0  0  0
   10.8100   -2.0010    0.0000 H   0  0  0  0  0  0  0  0  0  0  0  0
    3.8100    6.0010    0.0000 H   0  0  0  0  0  0  0  0  0  0  0  0
    1.3800    4.5981    0.0000 H   0  0  0  0  0  0  0  0  0  0  0  0
    9.6015   -1.8552    0.0000 H   0  0  0  0  0  0  0  0  0  0  0  0
   10.5989   -2.4906    0.0000 H   0  0  0  0  0  0  0  0  0  0  0  0
   11.8100   -2.0010    0.0000 H   0  0  0  0  0  0  0  0  0  0  0  0
    2.5369    6.6401    0.0000 H   0  0  0  0  0  0  0  0  0  0  0  0
    1.6900    6.8671    0.0000 H   0  0  0  0  0  0  0  0  0  0  0  0
    1.4631    6.0201    0.0000 H   0  0  0  0  0  0  0  0  0  0  0  0
   14.5369    0.8240    0.0000 H   0  0  0  0  0  0  0  0  0  0  0  0
   14.3100    1.6709    0.0000 H   0  0  0  0  0  0  0  0  0  0  0  0
   13.4631    1.4440    0.0000 H   0  0  0  0  0  0  0  0  0  0  0  0
   14.0560   -0.7690    0.0000 H   0  0  0  0  0  0  0  0  0  0  0  0
   14.9030   -0.5421    0.0000 H   0  0  0  0  0  0  0  0  0  0  0  0
   14.6760    0.3049    0.0000 H   0  0  0  0  0  0  0  0  0  0  0  0
   12.9440    1.3049    0.0000 H   0  0  0  0  0  0  0  0  0  0  0  0
   12.0970    1.0780    0.0000 H   0  0  0  0  0  0  0  0  0  0  0  0
   12.3240    0.2310    0.0000 H   0  0  0  0  0  0  0  0  0  0  0  0
  1  8  2  0  0  0  0
  1  9  2  0  0  0  0
  1 13  1  0  0  0  0
  1 23  1  0  0  0  0
  2 39  1  0  0  0  0
  3 40  1  0  0  0  0
  4 44  1  0  0  0  0
  5 45  1  0  0  0  0
  6 46  1  0  0  0  0
  7 21  1  0  0  0  0
  7 67  1  0  0  0  0
 10 30  2  0  0  0  0
 11 37  1  0  0  0  0
 11 38  1  0  0  0  0
 12 38  2  0  0  0  0
 16 13  1  6  0  0  0
 13 18  1  0  0  0  0
 14 26  1  0  0  0  0
 14 30  1  0  0  0  0
 14 70  1  0  0  0  0
 29 15  1  1  0  0  0
 15 38  1  0  0  0  0
 15 76  1  0  0  0  0
 16 17  1  0  0  0  0
 16 21  1  0  0  0  0
 16 47  1  0  0  0  0
 17 19  1  0  0  0  0
 17 48  1  0  0  0  0
 17 49  1  0  0  0  0
 18 20  1  0  0  0  0
 18 50  1  0  0  0  0
 18 51  1  0  0  0  0
 19 22  1  0  0  0  0
 19 52  1  0  0  0  0
 19 53  1  0  0  0  0
 20 24  1  0  0  0  0
 20 25  1  0  0  0  0
 20 54  1  0  0  0  0
 21 55  1  0  0  0  0
 21 56  1  0  0  0  0
 22 26  1  0  0  0  0
 22 57  1  0  0  0  0
 22 58  1  0  0  0  0
 23 27  2  0  0  0  0
 23 28  1  0  0  0  0
 24 59  1  0  0  0  0
 24 60  1  0  0  0  0
 24 61  1  0  0  0  0
 25 62  1  0  0  0  0
 25 63  1  0  0  0  0
 25 64  1  0  0  0  0
 26 65  1  0  0  0  0
 26 66  1  0  0  0  0
 27 31  1  0  0  0  0
 27 68  1  0  0  0  0
 28 32  2  0  0  0  0
 28 69  1  0  0  0  0
 29 30  1  0  0  0  0
 29 34  1  0  0  0  0
 29 71  1  0  0  0  0
 31 33  2  0  0  0  0
 31 72  1  0  0  0  0
 32 33  1  0  0  0  0
 32 73  1  0  0  0  0
 33 36  1  0  0  0  0
 34 35  1  0  0  0  0
 34 74  1  0  0  0  0
 34 75  1  0  0  0  0
 35 39  2  0  0  0  0
 35 40  1  0  0  0  0
 36 77  1  0  0  0  0
 36 78  1  0  0  0  0
 36 79  1  0  0  0  0
 37 41  1  0  0  0  0
 37 42  1  0  0  0  0
 37 43  1  0  0  0  0
 39 45  1  0  0  0  0
 40 44  2  0  0  0  0
 41 80  1  0  0  0  0
 41 81  1  0  0  0  0
 41 82  1  0  0  0  0
 42 83  1  0  0  0  0
 42 84  1  0  0  0  0
 42 85  1  0  0  0  0
 43 86  1  0  0  0  0
 43 87  1  0  0  0  0
 43 88  1  0  0  0  0
 44 46  1  0  0  0  0
 45 46  2  0  0  0  0
M  END
> <PUBCHEM_COMPOUND_CID>
508665
> <PUBCHEM_COMPOUND_CANONICALIZED>
1
> <PUBCHEM_CACTVS_COMPLEXITY>
1050
> <PUBCHEM_CACTVS_HBOND_ACCEPTOR>
12
> <PUBCHEM_CACTVS_HBOND_DONOR>
3
> <PUBCHEM_CACTVS_ROTATABLE_BOND>
17
> <PUBCHEM_CACTVS_SUBSKEYS>
AAADcfB7OcBAAAAAAAAAAAAAAAAAAAAAAAAwYAAAAAAAAAABQAAAHwQQSAAADWzh2A4yCYLABgKIAiFSGHBCABAgAAAIiJmIAIkKcDKAkTGcYAAklgCYiAeYyICOEAAAAAAAAAAgAAAAAAAAAAAAAAAAAA==
> <PUBCHEM_IUPAC_OPENEYE_NAME>
tert-butyl N-[(1S)-2-[[(5S)-6-hydroxy-5-[isobutyl(p-tolylsulfonyl)amino]hexyl]amino]-2-oxo-1-[(2,3,4,5,6-pentafluorophenyl)methyl]ethyl]carbamate
> <PUBCHEM_IUPAC_CAS_NAME>
N-[(2S)-1-[[(5S)-6-hydroxy-5-[(4-methylphenyl)sulfonyl-(2-methylpropyl)amino]hexyl]amino]-1-oxo-3-(2,3,4,5,6-pentafluorophenyl)propan-2-yl]carbamic acid tert-butyl ester
> <PUBCHEM_IUPAC_NAME_MARKUP>
<I>tert</I>-butyl <I>N</I>-[(2<I>S</I>)-1-[[(5<I>S</I>)-6-hydroxy-5-[(4-methylphenyl)sulfonyl-(2-methylpropyl)amino]hexyl]amino]-1-oxo-3-(2,3,4,5,6-pentafluorophenyl)propan-2-yl]carbamate
> <PUBCHEM_IUPAC_NAME>
tert-butyl N-[(2S)-1-[[(5S)-6-hydroxy-5-[(4-methylphenyl)sulfonyl-(2-methylpropyl)amino]hexyl]amino]-1-oxo-3-(2,3,4,5,6-pentafluorophenyl)propan-2-yl]carbamate
> <PUBCHEM_IUPAC_SYSTEMATIC_NAME>
tert-butyl N-[(2S)-1-[[(5S)-5-[(4-methylphenyl)sulfonyl-(2-methylpropyl)amino]-6-oxidanyl-hexyl]amino]-1-oxidanylidene-3-[2,3,4,5,6-pentakis(fluoranyl)phenyl]propan-2-yl]carbamate
> <PUBCHEM_IUPAC_TRADITIONAL_NAME>
N-[(1S)-2-[[(5S)-6-hydroxy-5-[isobutyl(tosyl)amino]hexyl]amino]-2-keto-1-(2,3,4,5,6-pentafluorobenzyl)ethyl]carbamic acid tert-butyl ester
> <PUBCHEM_IUPAC_INCHI>
InChI=1S/C31H42F5N3O6S/c1-18(2)16-39(46(43,44)21-12-10-19(3)11-13-21)20(17-40)9-7-8-14-37-29(41)23(38-30(42)45-31(4,5)6)15-22-24(32)26(34)28(36)27(35)25(22)33/h10-13,18,20,23,40H,7-9,14-17H2,1-6H3,(H,37,41)(H,38,42)/t20-,23-/m0/s1
> <PUBCHEM_IUPAC_INCHIKEY>
VWZSQCMACGELNR-REWPJTCUSA-N
> <PUBCHEM_XLOGP3_AA>
5.8
> <PUBCHEM_EXACT_MASS>
679.27144805
> <PUBCHEM_MOLECULAR_FORMULA>
C31H42F5N3O6S
> <PUBCHEM_MOLECULAR_WEIGHT>
679.7
> <PUBCHEM_OPENEYE_CAN_SMILES>
CC1=CC=C(C=C1)S(=O)(=O)N(CC(C)C)C(CCCCNC(=O)C(CC2=C(C(=C(C(=C2F)F)F)F)F)NC(=O)OC(C)(C)C)CO
> <PUBCHEM_OPENEYE_ISO_SMILES>
CC1=CC=C(C=C1)S(=O)(=O)N(CC(C)C)[C@@H](CCCCNC(=O)[C@H](CC2=C(C(=C(C(=C2F)F)F)F)F)NC(=O)OC(C)(C)C)CO
> <PUBCHEM_CACTVS_TPSA>
133
> <PUBCHEM_MONOISOTOPIC_WEIGHT>
679.27144805
> <PUBCHEM_TOTAL_CHARGE>
0
> <PUBCHEM_HEAVY_ATOM_COUNT>
46
> <PUBCHEM_ATOM_DEF_STEREO_COUNT>
2
> <PUBCHEM_ATOM_UDEF_STEREO_COUNT>
0
> <PUBCHEM_BOND_DEF_STEREO_COUNT>
0
> <PUBCHEM_BOND_UDEF_STEREO_COUNT>
0
> <PUBCHEM_ISOTOPIC_ATOM_COUNT>
0
> <PUBCHEM_COMPONENT_COUNT>
1
> <PUBCHEM_CACTVS_TAUTO_COUNT>
-1
> <PUBCHEM_COORDINATE_TYPE>
1
5
255
> <PUBCHEM_BONDANNOTATIONS>
16  13  6
29  15  5
23  27  8
23  28  8
27  31  8
28  32  8
31  33  8
32  33  8
35  39  8
35  40  8
39  45  8
40  44  8
44  46  8
45  46  8
$$$$
