508622
  -OEChem-10302200282D
 77 78  0     1  0  0  0  0  0999 V2000
    4.5981    0.0670    0.0000 S   0  0  0  0  0  0  0  0  0  0  0  0
   14.1244    3.5670    0.0000 F   0  0  0  0  0  0  0  0  0  0  0  0
   12.7583    3.9330    0.0000 F   0  0  0  0  0  0  0  0  0  0  0  0
   13.7583    2.2010    0.0000 F   0  0  0  0  0  0  0  0  0  0  0  0
    5.5981    0.0670    0.0000 O   0  0  0  0  0  0  0  0  0  0  0  0
    3.5981    0.0670    0.0000 O   0  0  0  0  0  0  0  0  0  0  0  0
    6.3301    3.0670    0.0000 O   0  0  0  0  0  0  0  0  0  0  0  0
    4.5981    3.0670    0.0000 O   0  0  0  0  0  0  0  0  0  0  0  0
   10.6603    2.5670    0.0000 O   0  0  0  0  0  0  0  0  0  0  0  0
   11.5263    3.0670    0.0000 O   0  0  0  0  0  0  0  0  0  0  0  0
    4.5981    1.0670    0.0000 N   0  0  3  0  0  0  0  0  0  0  0  0
    9.7942    1.0670    0.0000 N   0  0  0  0  0  0  0  0  0  0  0  0
   12.3923    1.5670    0.0000 N   0  0  0  0  0  0  0  0  0  0  0  0
    5.4641    1.5670    0.0000 C   0  0  1  0  0  0  0  0  0  0  0  0
    6.3301    1.0670    0.0000 C   0  0  0  0  0  0  0  0  0  0  0  0
    3.7320    1.5670    0.0000 C   0  0  0  0  0  0  0  0  0  0  0  0
    2.8660    1.0670    0.0000 C   0  0  0  0  0  0  0  0  0  0  0  0
    7.1962    1.5670    0.0000 C   0  0  0  0  0  0  0  0  0  0  0  0
    8.0622    1.0670    0.0000 C   0  0  0  0  0  0  0  0  0  0  0  0
    5.4641    2.5670    0.0000 C   0  0  0  0  0  0  0  0  0  0  0  0
    4.5981   -0.9330    0.0000 C   0  0  0  0  0  0  0  0  0  0  0  0
    2.0000    1.5670    0.0000 C   0  0  0  0  0  0  0  0  0  0  0  0
    2.8660    0.0670    0.0000 C   0  0  0  0  0  0  0  0  0  0  0  0
    8.9282    1.5670    0.0000 C   0  0  0  0  0  0  0  0  0  0  0  0
    3.7320   -1.4330    0.0000 C   0  0  0  0  0  0  0  0  0  0  0  0
    5.4641   -1.4330    0.0000 C   0  0  0  0  0  0  0  0  0  0  0  0
   11.5263    1.0670    0.0000 C   0  0  2  0  0  0  0  0  0  0  0  0
   10.6603    1.5670    0.0000 C   0  0  0  0  0  0  0  0  0  0  0  0
   11.5263    0.0670    0.0000 C   0  0  0  0  0  0  0  0  0  0  0  0
    3.7320   -2.4330    0.0000 C   0  0  0  0  0  0  0  0  0  0  0  0
    5.4641   -2.4330    0.0000 C   0  0  0  0  0  0  0  0  0  0  0  0
    4.5981   -2.9330    0.0000 C   0  0  0  0  0  0  0  0  0  0  0  0
   12.3923   -0.4330    0.0000 C   0  0  0  0  0  0  0  0  0  0  0  0
    4.5981   -3.9330    0.0000 C   0  0  0  0  0  0  0  0  0  0  0  0
   13.2583    0.0670    0.0000 C   0  0  0  0  0  0  0  0  0  0  0  0
   12.3923   -1.4330    0.0000 C   0  0  0  0  0  0  0  0  0  0  0  0
   12.3923    2.5670    0.0000 C   0  0  0  0  0  0  0  0  0  0  0  0
   14.1244   -0.4330    0.0000 C   0  0  0  0  0  0  0  0  0  0  0  0
   13.2583   -1.9330    0.0000 C   0  0  0  0  0  0  0  0  0  0  0  0
   13.2583    3.0670    0.0000 C   0  0  0  0  0  0  0  0  0  0  0  0
   14.1244   -1.4330    0.0000 C   0  0  0  0  0  0  0  0  0  0  0  0
    5.4641    0.9470    0.0000 H   0  0  0  0  0  0  0  0  0  0  0  0
    5.9316    0.5920    0.0000 H   0  0  0  0  0  0  0  0  0  0  0  0
    6.7287    0.5920    0.0000 H   0  0  0  0  0  0  0  0  0  0  0  0
    4.1306    2.0419    0.0000 H   0  0  0  0  0  0  0  0  0  0  0  0
    3.3335    2.0419    0.0000 H   0  0  0  0  0  0  0  0  0  0  0  0
    2.8660    1.6870    0.0000 H   0  0  0  0  0  0  0  0  0  0  0  0
    7.5947    2.0419    0.0000 H   0  0  0  0  0  0  0  0  0  0  0  0
    6.7976    2.0419    0.0000 H   0  0  0  0  0  0  0  0  0  0  0  0
    7.6636    0.5920    0.0000 H   0  0  0  0  0  0  0  0  0  0  0  0
    8.4607    0.5920    0.0000 H   0  0  0  0  0  0  0  0  0  0  0  0
    2.3100    2.1039    0.0000 H   0  0  0  0  0  0  0  0  0  0  0  0
    1.4631    1.8770    0.0000 H   0  0  0  0  0  0  0  0  0  0  0  0
    1.6900    1.0300    0.0000 H   0  0  0  0  0  0  0  0  0  0  0  0
    2.2460    0.0670    0.0000 H   0  0  0  0  0  0  0  0  0  0  0  0
    2.8660   -0.5530    0.0000 H   0  0  0  0  0  0  0  0  0  0  0  0
    3.4860    0.0670    0.0000 H   0  0  0  0  0  0  0  0  0  0  0  0
    9.3267    2.0419    0.0000 H   0  0  0  0  0  0  0  0  0  0  0  0
    8.5297    2.0419    0.0000 H   0  0  0  0  0  0  0  0  0  0  0  0
    9.7942    0.4470    0.0000 H   0  0  0  0  0  0  0  0  0  0  0  0
    3.1951   -1.1230    0.0000 H   0  0  0  0  0  0  0  0  0  0  0  0
    6.0010   -1.1230    0.0000 H   0  0  0  0  0  0  0  0  0  0  0  0
   12.0632    0.7570    0.0000 H   0  0  0  0  0  0  0  0  0  0  0  0
    6.3301    3.6870    0.0000 H   0  0  0  0  0  0  0  0  0  0  0  0
   10.9157    0.1746    0.0000 H   0  0  0  0  0  0  0  0  0  0  0  0
   11.3142   -0.5156    0.0000 H   0  0  0  0  0  0  0  0  0  0  0  0
    3.1951   -2.7430    0.0000 H   0  0  0  0  0  0  0  0  0  0  0  0
    6.0010   -2.7430    0.0000 H   0  0  0  0  0  0  0  0  0  0  0  0
   12.9292    1.2570    0.0000 H   0  0  0  0  0  0  0  0  0  0  0  0
    3.9781   -3.9330    0.0000 H   0  0  0  0  0  0  0  0  0  0  0  0
    4.5981   -4.5530    0.0000 H   0  0  0  0  0  0  0  0  0  0  0  0
    5.2181   -3.9330    0.0000 H   0  0  0  0  0  0  0  0  0  0  0  0
   13.2583    0.6870    0.0000 H   0  0  0  0  0  0  0  0  0  0  0  0
   11.8554   -1.7430    0.0000 H   0  0  0  0  0  0  0  0  0  0  0  0
   14.6613   -0.1230    0.0000 H   0  0  0  0  0  0  0  0  0  0  0  0
   13.2583   -2.5530    0.0000 H   0  0  0  0  0  0  0  0  0  0  0  0
   14.6613   -1.7430    0.0000 H   0  0  0  0  0  0  0  0  0  0  0  0
  1  5  2  0  0  0  0
  1  6  2  0  0  0  0
  1 11  1  0  0  0  0
  1 21  1  0  0  0  0
  2 40  1  0  0  0  0
  3 40  1  0  0  0  0
  4 40  1  0  0  0  0
  7 20  1  0  0  0  0
  7 64  1  0  0  0  0
  8 20  2  0  0  0  0
  9 28  2  0  0  0  0
 10 37  2  0  0  0  0
 14 11  1  6  0  0  0
 11 16  1  0  0  0  0
 12 24  1  0  0  0  0
 12 28  1  0  0  0  0
 12 60  1  0  0  0  0
 27 13  1  1  0  0  0
 13 37  1  0  0  0  0
 13 69  1  0  0  0  0
 14 15  1  0  0  0  0
 14 20  1  0  0  0  0
 14 42  1  0  0  0  0
 15 18  1  0  0  0  0
 15 43  1  0  0  0  0
 15 44  1  0  0  0  0
 16 17  1  0  0  0  0
 16 45  1  0  0  0  0
 16 46  1  0  0  0  0
 17 22  1  0  0  0  0
 17 23  1  0  0  0  0
 17 47  1  0  0  0  0
 18 19  1  0  0  0  0
 18 48  1  0  0  0  0
 18 49  1  0  0  0  0
 19 24  1  0  0  0  0
 19 50  1  0  0  0  0
 19 51  1  0  0  0  0
 21 25  2  0  0  0  0
 21 26  1  0  0  0  0
 22 52  1  0  0  0  0
 22 53  1  0  0  0  0
 22 54  1  0  0  0  0
 23 55  1  0  0  0  0
 23 56  1  0  0  0  0
 23 57  1  0  0  0  0
 24 58  1  0  0  0  0
 24 59  1  0  0  0  0
 25 30  1  0  0  0  0
 25 61  1  0  0  0  0
 26 31  2  0  0  0  0
 26 62  1  0  0  0  0
 27 28  1  0  0  0  0
 27 29  1  0  0  0  0
 27 63  1  0  0  0  0
 29 33  1  0  0  0  0
 29 65  1  0  0  0  0
 29 66  1  0  0  0  0
 30 32  2  0  0  0  0
 30 67  1  0  0  0  0
 31 32  1  0  0  0  0
 31 68  1  0  0  0  0
 32 34  1  0  0  0  0
 33 35  2  0  0  0  0
 33 36  1  0  0  0  0
 34 70  1  0  0  0  0
 34 71  1  0  0  0  0
 34 72  1  0  0  0  0
 35 38  1  0  0  0  0
 35 73  1  0  0  0  0
 36 39  2  0  0  0  0
 36 74  1  0  0  0  0
 37 40  1  0  0  0  0
 38 41  2  0  0  0  0
 38 75  1  0  0  0  0
 39 41  1  0  0  0  0
 39 76  1  0  0  0  0
 41 77  1  0  0  0  0
M  END
> <PUBCHEM_COMPOUND_CID>
508622
> <PUBCHEM_COMPOUND_CANONICALIZED>
1
> <PUBCHEM_CACTVS_COMPLEXITY>
956
> <PUBCHEM_CACTVS_HBOND_ACCEPTOR>
10
> <PUBCHEM_CACTVS_HBOND_DONOR>
3
> <PUBCHEM_CACTVS_ROTATABLE_BOND>
15
> <PUBCHEM_CACTVS_SUBSKEYS>
AAADcfB7OYBAAAAAAAAAAAAAAAAAAAAAAAAwYAAAAAAAAAABQAAAHwQQSAAADSjB2BQyCYLAAgKIAiHSGHBCABAgAAAIiJmIAIgKYDKAkTGUYAAklgCYiAeYyICOEAAAAAAAAAAgAAAAAAAAAAAAAAAAAA==
> <PUBCHEM_IUPAC_OPENEYE_NAME>
(2S)-2-[isobutyl(p-tolylsulfonyl)amino]-6-[[(2S)-3-phenyl-2-[(2,2,2-trifluoroacetyl)amino]propanoyl]amino]hexanoic acid
> <PUBCHEM_IUPAC_CAS_NAME>
(2S)-2-[(4-methylphenyl)sulfonyl-(2-methylpropyl)amino]-6-[[(2S)-1-oxo-3-phenyl-2-[(2,2,2-trifluoro-1-oxoethyl)amino]propyl]amino]hexanoic acid
> <PUBCHEM_IUPAC_NAME_MARKUP>
(2<I>S</I>)-2-[(4-methylphenyl)sulfonyl-(2-methylpropyl)amino]-6-[[(2<I>S</I>)-3-phenyl-2-[(2,2,2-trifluoroacetyl)amino]propanoyl]amino]hexanoic acid
> <PUBCHEM_IUPAC_NAME>
(2S)-2-[(4-methylphenyl)sulfonyl-(2-methylpropyl)amino]-6-[[(2S)-3-phenyl-2-[(2,2,2-trifluoroacetyl)amino]propanoyl]amino]hexanoic acid
> <PUBCHEM_IUPAC_SYSTEMATIC_NAME>
(2S)-2-[(4-methylphenyl)sulfonyl-(2-methylpropyl)amino]-6-[[(2S)-3-phenyl-2-[2,2,2-tris(fluoranyl)ethanoylamino]propanoyl]amino]hexanoic acid
> <PUBCHEM_IUPAC_TRADITIONAL_NAME>
(2S)-2-[isobutyl(tosyl)amino]-6-[[(2S)-3-phenyl-2-[(2,2,2-trifluoroacetyl)amino]propanoyl]amino]hexanoic acid
> <PUBCHEM_IUPAC_INCHI>
InChI=1S/C28H36F3N3O6S/c1-19(2)18-34(41(39,40)22-14-12-20(3)13-15-22)24(26(36)37)11-7-8-16-32-25(35)23(33-27(38)28(29,30)31)17-21-9-5-4-6-10-21/h4-6,9-10,12-15,19,23-24H,7-8,11,16-18H2,1-3H3,(H,32,35)(H,33,38)(H,36,37)/t23-,24-/m0/s1
> <PUBCHEM_IUPAC_INCHIKEY>
OQAFABFWFNNRIU-ZEQRLZLVSA-N
> <PUBCHEM_XLOGP3_AA>
5.2
> <PUBCHEM_EXACT_MASS>
599.22769154
> <PUBCHEM_MOLECULAR_FORMULA>
C28H36F3N3O6S
> <PUBCHEM_MOLECULAR_WEIGHT>
599.7
> <PUBCHEM_OPENEYE_CAN_SMILES>
CC1=CC=C(C=C1)S(=O)(=O)N(CC(C)C)C(CCCCNC(=O)C(CC2=CC=CC=C2)NC(=O)C(F)(F)F)C(=O)O
> <PUBCHEM_OPENEYE_ISO_SMILES>
CC1=CC=C(C=C1)S(=O)(=O)N(CC(C)C)[C@@H](CCCCNC(=O)[C@H](CC2=CC=CC=C2)NC(=O)C(F)(F)F)C(=O)O
> <PUBCHEM_CACTVS_TPSA>
141
> <PUBCHEM_MONOISOTOPIC_WEIGHT>
599.22769154
> <PUBCHEM_TOTAL_CHARGE>
0
> <PUBCHEM_HEAVY_ATOM_COUNT>
41
> <PUBCHEM_ATOM_DEF_STEREO_COUNT>
2
> <PUBCHEM_ATOM_UDEF_STEREO_COUNT>
0
> <PUBCHEM_BOND_DEF_STEREO_COUNT>
0
> <PUBCHEM_BOND_UDEF_STEREO_COUNT>
0
> <PUBCHEM_ISOTOPIC_ATOM_COUNT>
0
> <PUBCHEM_COMPONENT_COUNT>
1
> <PUBCHEM_CACTVS_TAUTO_COUNT>
-1
> <PUBCHEM_COORDINATE_TYPE>
1
5
255
> <PUBCHEM_BONDANNOTATIONS>
14  11  6
27  13  5
21  25  8
21  26  8
25  30  8
26  31  8
30  32  8
31  32  8
33  35  8
33  36  8
35  38  8
36  39  8
38  41  8
39  41  8
$$$$
