508650
  -OEChem-10302200282D
 90 93  0     1  0  0  0  0  0999 V2000
    9.3532   -3.7618    0.0000 S   0  0  0  0  0  0  0  0  0  0  0  0
    5.6103    4.2999    0.0000 S   0  0  0  0  0  0  0  0  0  0  0  0
   10.6423   -2.6051    0.0000 O   0  0  0  0  0  0  0  0  0  0  0  0
    8.6089   -4.4296    0.0000 O   0  0  0  0  0  0  0  0  0  0  0  0
   10.0975   -3.0940    0.0000 O   0  0  0  0  0  0  0  0  0  0  0  0
    6.3246    0.9102    0.0000 O   0  0  0  0  0  0  0  0  0  0  0  0
    6.3546    4.9677    0.0000 O   0  0  0  0  0  0  0  0  0  0  0  0
    4.8660    3.6320    0.0000 O   0  0  0  0  0  0  0  0  0  0  0  0
    8.6853   -3.0175    0.0000 N   0  0  3  0  0  0  0  0  0  0  0  0
    7.6138    2.0670    0.0000 N   0  0  0  0  0  0  0  0  0  0  0  0
    6.2781    3.5556    0.0000 N   0  0  0  0  0  0  0  0  0  0  0  0
    4.6783   -0.1611    0.0000 N   0  0  0  0  0  0  0  0  0  0  0  0
    8.9960   -2.0670    0.0000 C   0  0  1  0  0  0  0  0  0  0  0  0
    8.3282   -1.3227    0.0000 C   0  0  0  0  0  0  0  0  0  0  0  0
    7.7068   -3.2237    0.0000 C   0  0  0  0  0  0  0  0  0  0  0  0
    8.6388   -0.3722    0.0000 C   0  0  0  0  0  0  0  0  0  0  0  0
    7.0390   -2.4794    0.0000 C   0  0  0  0  0  0  0  0  0  0  0  0
    9.9745   -1.8608    0.0000 C   0  0  0  0  0  0  0  0  0  0  0  0
    7.9710    0.3722    0.0000 C   0  0  0  0  0  0  0  0  0  0  0  0
    8.2816    1.3227    0.0000 C   0  0  0  0  0  0  0  0  0  0  0  0
   10.0210   -4.5061    0.0000 C   0  0  0  0  0  0  0  0  0  0  0  0
    6.0605   -2.6856    0.0000 C   0  0  0  0  0  0  0  0  0  0  0  0
    7.3496   -1.5289    0.0000 C   0  0  0  0  0  0  0  0  0  0  0  0
    5.9674    2.6051    0.0000 C   0  0  1  0  0  0  0  0  0  0  0  0
    4.9889    2.3988    0.0000 C   0  0  0  0  0  0  0  0  0  0  0  0
    6.6353    1.8608    0.0000 C   0  0  0  0  0  0  0  0  0  0  0  0
   10.9995   -4.2999    0.0000 C   0  0  0  0  0  0  0  0  0  0  0  0
    9.7104   -5.4566    0.0000 C   0  0  0  0  0  0  0  0  0  0  0  0
    4.6783    1.4483    0.0000 C   0  0  0  0  0  0  0  0  0  0  0  0
    3.7320    1.1436    0.0000 C   0  0  0  0  0  0  0  0  0  0  0  0
   11.6674   -5.0442    0.0000 C   0  0  0  0  0  0  0  0  0  0  0  0
   10.3782   -6.2009    0.0000 C   0  0  0  0  0  0  0  0  0  0  0  0
   11.3567   -5.9947    0.0000 C   0  0  0  0  0  0  0  0  0  0  0  0
    5.2619    0.6436    0.0000 C   0  0  0  0  0  0  0  0  0  0  0  0
    3.7320    0.1436    0.0000 C   0  0  0  0  0  0  0  0  0  0  0  0
    2.8660    1.6436    0.0000 C   0  0  0  0  0  0  0  0  0  0  0  0
    4.9424    5.0442    0.0000 C   0  0  0  0  0  0  0  0  0  0  0  0
   12.0246   -6.7390    0.0000 C   0  0  0  0  0  0  0  0  0  0  0  0
    2.8660   -0.3564    0.0000 C   0  0  0  0  0  0  0  0  0  0  0  0
    2.0000    1.1436    0.0000 C   0  0  0  0  0  0  0  0  0  0  0  0
    2.0000    0.1436    0.0000 C   0  0  0  0  0  0  0  0  0  0  0  0
    5.2531    5.9947    0.0000 C   0  0  0  0  0  0  0  0  0  0  0  0
    3.9639    4.8380    0.0000 C   0  0  0  0  0  0  0  0  0  0  0  0
    4.5852    6.7390    0.0000 C   0  0  0  0  0  0  0  0  0  0  0  0
    3.2961    5.5823    0.0000 C   0  0  0  0  0  0  0  0  0  0  0  0
    3.6067    6.5328    0.0000 C   0  0  0  0  0  0  0  0  0  0  0  0
    8.3893   -2.1948    0.0000 H   0  0  0  0  0  0  0  0  0  0  0  0
    7.7812   -1.0306    0.0000 H   0  0  0  0  0  0  0  0  0  0  0  0
    7.9456   -1.8106    0.0000 H   0  0  0  0  0  0  0  0  0  0  0  0
    7.1805   -3.5514    0.0000 H   0  0  0  0  0  0  0  0  0  0  0  0
    7.9381   -3.7990    0.0000 H   0  0  0  0  0  0  0  0  0  0  0  0
    9.1857   -0.6642    0.0000 H   0  0  0  0  0  0  0  0  0  0  0  0
    9.0214    0.1158    0.0000 H   0  0  0  0  0  0  0  0  0  0  0  0
    7.6457   -2.3516    0.0000 H   0  0  0  0  0  0  0  0  0  0  0  0
   10.5009   -1.5331    0.0000 H   0  0  0  0  0  0  0  0  0  0  0  0
    9.7432   -1.2855    0.0000 H   0  0  0  0  0  0  0  0  0  0  0  0
    7.4240    0.6642    0.0000 H   0  0  0  0  0  0  0  0  0  0  0  0
    7.5884   -0.1158    0.0000 H   0  0  0  0  0  0  0  0  0  0  0  0
    8.8286    1.0306    0.0000 H   0  0  0  0  0  0  0  0  0  0  0  0
    8.6642    1.8106    0.0000 H   0  0  0  0  0  0  0  0  0  0  0  0
    5.9326   -2.0790    0.0000 H   0  0  0  0  0  0  0  0  0  0  0  0
    5.4538   -2.8135    0.0000 H   0  0  0  0  0  0  0  0  0  0  0  0
    6.1883   -3.2923    0.0000 H   0  0  0  0  0  0  0  0  0  0  0  0
    7.9390   -1.7215    0.0000 H   0  0  0  0  0  0  0  0  0  0  0  0
    7.5423   -0.9396    0.0000 H   0  0  0  0  0  0  0  0  0  0  0  0
    6.7603   -1.3363    0.0000 H   0  0  0  0  0  0  0  0  0  0  0  0
    5.5534    3.0665    0.0000 H   0  0  0  0  0  0  0  0  0  0  0  0
    7.8064    2.6563    0.0000 H   0  0  0  0  0  0  0  0  0  0  0  0
    4.9684    3.0185    0.0000 H   0  0  0  0  0  0  0  0  0  0  0  0
    4.3751    2.4862    0.0000 H   0  0  0  0  0  0  0  0  0  0  0  0
   11.2490   -2.4772    0.0000 H   0  0  0  0  0  0  0  0  0  0  0  0
   11.1921   -3.7106    0.0000 H   0  0  0  0  0  0  0  0  0  0  0  0
    9.1037   -5.5845    0.0000 H   0  0  0  0  0  0  0  0  0  0  0  0
    6.8848    3.6834    0.0000 H   0  0  0  0  0  0  0  0  0  0  0  0
   12.2740   -4.9163    0.0000 H   0  0  0  0  0  0  0  0  0  0  0  0
   10.1856   -6.7902    0.0000 H   0  0  0  0  0  0  0  0  0  0  0  0
    5.8819    0.6436    0.0000 H   0  0  0  0  0  0  0  0  0  0  0  0
    4.8709   -0.7505    0.0000 H   0  0  0  0  0  0  0  0  0  0  0  0
    2.8660    2.2636    0.0000 H   0  0  0  0  0  0  0  0  0  0  0  0
   11.5631   -7.1531    0.0000 H   0  0  0  0  0  0  0  0  0  0  0  0
   12.4386   -7.2005    0.0000 H   0  0  0  0  0  0  0  0  0  0  0  0
   12.4860   -6.3249    0.0000 H   0  0  0  0  0  0  0  0  0  0  0  0
    2.8660   -0.9764    0.0000 H   0  0  0  0  0  0  0  0  0  0  0  0
    1.4631    1.4536    0.0000 H   0  0  0  0  0  0  0  0  0  0  0  0
    1.4631   -0.1664    0.0000 H   0  0  0  0  0  0  0  0  0  0  0  0
    5.8598    6.1226    0.0000 H   0  0  0  0  0  0  0  0  0  0  0  0
    3.7713    4.2486    0.0000 H   0  0  0  0  0  0  0  0  0  0  0  0
    4.7778    7.3283    0.0000 H   0  0  0  0  0  0  0  0  0  0  0  0
    2.6894    5.4544    0.0000 H   0  0  0  0  0  0  0  0  0  0  0  0
    3.1927    6.9942    0.0000 H   0  0  0  0  0  0  0  0  0  0  0  0
  1  4  2  0  0  0  0
  1  5  2  0  0  0  0
  1  9  1  0  0  0  0
  1 21  1  0  0  0  0
  2  7  2  0  0  0  0
  2  8  2  0  0  0  0
  2 11  1  0  0  0  0
  2 37  1  0  0  0  0
  3 18  1  0  0  0  0
  3 71  1  0  0  0  0
  6 26  2  0  0  0  0
 13  9  1  1  0  0  0
  9 15  1  0  0  0  0
 10 20  1  0  0  0  0
 10 26  1  0  0  0  0
 10 68  1  0  0  0  0
 24 11  1  6  0  0  0
 11 74  1  0  0  0  0
 12 34  1  0  0  0  0
 12 35  1  0  0  0  0
 12 78  1  0  0  0  0
 13 14  1  0  0  0  0
 13 18  1  0  0  0  0
 13 47  1  0  0  0  0
 14 16  1  0  0  0  0
 14 48  1  0  0  0  0
 14 49  1  0  0  0  0
 15 17  1  0  0  0  0
 15 50  1  0  0  0  0
 15 51  1  0  0  0  0
 16 19  1  0  0  0  0
 16 52  1  0  0  0  0
 16 53  1  0  0  0  0
 17 22  1  0  0  0  0
 17 23  1  0  0  0  0
 17 54  1  0  0  0  0
 18 55  1  0  0  0  0
 18 56  1  0  0  0  0
 19 20  1  0  0  0  0
 19 57  1  0  0  0  0
 19 58  1  0  0  0  0
 20 59  1  0  0  0  0
 20 60  1  0  0  0  0
 21 27  2  0  0  0  0
 21 28  1  0  0  0  0
 22 61  1  0  0  0  0
 22 62  1  0  0  0  0
 22 63  1  0  0  0  0
 23 64  1  0  0  0  0
 23 65  1  0  0  0  0
 23 66  1  0  0  0  0
 24 25  1  0  0  0  0
 24 26  1  0  0  0  0
 24 67  1  0  0  0  0
 25 29  1  0  0  0  0
 25 69  1  0  0  0  0
 25 70  1  0  0  0  0
 27 31  1  0  0  0  0
 27 72  1  0  0  0  0
 28 32  2  0  0  0  0
 28 73  1  0  0  0  0
 29 30  1  0  0  0  0
 29 34  2  0  0  0  0
 30 35  1  0  0  0  0
 30 36  2  0  0  0  0
 31 33  2  0  0  0  0
 31 75  1  0  0  0  0
 32 33  1  0  0  0  0
 32 76  1  0  0  0  0
 33 38  1  0  0  0  0
 34 77  1  0  0  0  0
 35 39  2  0  0  0  0
 36 40  1  0  0  0  0
 36 79  1  0  0  0  0
 37 42  2  0  0  0  0
 37 43  1  0  0  0  0
 38 80  1  0  0  0  0
 38 81  1  0  0  0  0
 38 82  1  0  0  0  0
 39 41  1  0  0  0  0
 39 83  1  0  0  0  0
 40 41  2  0  0  0  0
 40 84  1  0  0  0  0
 41 85  1  0  0  0  0
 42 44  1  0  0  0  0
 42 86  1  0  0  0  0
 43 45  2  0  0  0  0
 43 87  1  0  0  0  0
 44 46  2  0  0  0  0
 44 88  1  0  0  0  0
 45 46  1  0  0  0  0
 45 89  1  0  0  0  0
 46 90  1  0  0  0  0
M  END
> <PUBCHEM_COMPOUND_CID>
508650
> <PUBCHEM_COMPOUND_CANONICALIZED>
1
> <PUBCHEM_CACTVS_COMPLEXITY>
1140
> <PUBCHEM_CACTVS_HBOND_ACCEPTOR>
8
> <PUBCHEM_CACTVS_HBOND_DONOR>
4
> <PUBCHEM_CACTVS_ROTATABLE_BOND>
17
> <PUBCHEM_CACTVS_SUBSKEYS>
AAADcfB/uABgAAAAAAAAAAAAAAAAAWAAAAAwYMAAAAAAAFgB9AAAHgQQSAAADSjh3gY+wfLJkgKoAzV3VHDCgDAxAiAI2bm4ZJgKcPLAkZGUYAhklgDYyAeYycCOkAAAAAACAAAgAAAAAAQAAAAAAAAAAA==
> <PUBCHEM_IUPAC_OPENEYE_NAME>
(2S)-2-(benzenesulfonamido)-N-[(5S)-6-hydroxy-5-[isobutyl(p-tolylsulfonyl)amino]hexyl]-3-(1H-indol-3-yl)propanamide
> <PUBCHEM_IUPAC_CAS_NAME>
(2S)-2-(benzenesulfonamido)-N-[(5S)-6-hydroxy-5-[(4-methylphenyl)sulfonyl-(2-methylpropyl)amino]hexyl]-3-(1H-indol-3-yl)propanamide
> <PUBCHEM_IUPAC_NAME_MARKUP>
(2<I>S</I>)-2-(benzenesulfonamido)-<I>N</I>-[(5<I>S</I>)-6-hydroxy-5-[(4-methylphenyl)sulfonyl-(2-methylpropyl)amino]hexyl]-3-(1<I>H</I>-indol-3-yl)propanamide
> <PUBCHEM_IUPAC_NAME>
(2S)-2-(benzenesulfonamido)-N-[(5S)-6-hydroxy-5-[(4-methylphenyl)sulfonyl-(2-methylpropyl)amino]hexyl]-3-(1H-indol-3-yl)propanamide
> <PUBCHEM_IUPAC_SYSTEMATIC_NAME>
(2S)-3-(1H-indol-3-yl)-N-[(5S)-5-[(4-methylphenyl)sulfonyl-(2-methylpropyl)amino]-6-oxidanyl-hexyl]-2-(phenylsulfonylamino)propanamide
> <PUBCHEM_IUPAC_TRADITIONAL_NAME>
(2S)-2-(benzenesulfonamido)-N-[(5S)-6-hydroxy-5-[isobutyl(tosyl)amino]hexyl]-3-(1H-indol-3-yl)propionamide
> <PUBCHEM_IUPAC_INCHI>
InChI=1S/C34H44N4O6S2/c1-25(2)23-38(46(43,44)30-18-16-26(3)17-19-30)28(24-39)11-9-10-20-35-34(40)33(37-45(41,42)29-12-5-4-6-13-29)21-27-22-36-32-15-8-7-14-31(27)32/h4-8,12-19,22,25,28,33,36-37,39H,9-11,20-21,23-24H2,1-3H3,(H,35,40)/t28-,33-/m0/s1
> <PUBCHEM_IUPAC_INCHIKEY>
UWHHPCMBGUOJAI-UVMMSNCQSA-N
> <PUBCHEM_XLOGP3_AA>
5.3
> <PUBCHEM_EXACT_MASS>
668.27022748
> <PUBCHEM_MOLECULAR_FORMULA>
C34H44N4O6S2
> <PUBCHEM_MOLECULAR_WEIGHT>
668.9
> <PUBCHEM_OPENEYE_CAN_SMILES>
CC1=CC=C(C=C1)S(=O)(=O)N(CC(C)C)C(CCCCNC(=O)C(CC2=CNC3=CC=CC=C32)NS(=O)(=O)C4=CC=CC=C4)CO
> <PUBCHEM_OPENEYE_ISO_SMILES>
CC1=CC=C(C=C1)S(=O)(=O)N(CC(C)C)[C@@H](CCCCNC(=O)[C@H](CC2=CNC3=CC=CC=C32)NS(=O)(=O)C4=CC=CC=C4)CO
> <PUBCHEM_CACTVS_TPSA>
165
> <PUBCHEM_MONOISOTOPIC_WEIGHT>
668.27022748
> <PUBCHEM_TOTAL_CHARGE>
0
> <PUBCHEM_HEAVY_ATOM_COUNT>
46
> <PUBCHEM_ATOM_DEF_STEREO_COUNT>
2
> <PUBCHEM_ATOM_UDEF_STEREO_COUNT>
0
> <PUBCHEM_BOND_DEF_STEREO_COUNT>
0
> <PUBCHEM_BOND_UDEF_STEREO_COUNT>
0
> <PUBCHEM_ISOTOPIC_ATOM_COUNT>
0
> <PUBCHEM_COMPONENT_COUNT>
1
> <PUBCHEM_CACTVS_TAUTO_COUNT>
-1
> <PUBCHEM_COORDINATE_TYPE>
1
5
255
> <PUBCHEM_BONDANNOTATIONS>
24  11  6
12  34  8
12  35  8
21  27  8
21  28  8
27  31  8
28  32  8
29  30  8
29  34  8
30  35  8
30  36  8
31  33  8
32  33  8
35  39  8
36  40  8
37  42  8
37  43  8
39  41  8
40  41  8
42  44  8
43  45  8
44  46  8
45  46  8
13  9  5
$$$$
