508677
  -OEChem-10302200282D
 97100  0     1  0  0  0  0  0999 V2000
   13.2207   -2.0267    0.0000 S   0  0  0  0  0  0  0  0  0  0  0  0
   13.9650   -1.3588    0.0000 O   0  0  0  0  0  0  0  0  0  0  0  0
   12.4764   -2.6945    0.0000 O   0  0  0  0  0  0  0  0  0  0  0  0
   10.2852   -2.6453    0.0000 O   0  0  0  0  0  0  0  0  0  0  0  0
   15.8921   -5.0039    0.0000 O   0  0  0  0  0  0  0  0  0  0  0  0
    6.3246   -0.8249    0.0000 O   0  0  0  0  0  0  0  0  0  0  0  0
    5.9209    3.5153    0.0000 O   0  0  0  0  0  0  0  0  0  0  0  0
    4.6318    2.3586    0.0000 O   0  0  0  0  0  0  0  0  0  0  0  0
   12.5528   -1.2824    0.0000 N   0  0  3  0  0  0  0  0  0  0  0  0
    7.6138    0.3319    0.0000 N   0  0  0  0  0  0  0  0  0  0  0  0
    6.2781    1.8205    0.0000 N   0  0  0  0  0  0  0  0  0  0  0  0
    4.6783   -1.8963    0.0000 N   0  0  0  0  0  0  0  0  0  0  0  0
   12.1957    0.4124    0.0000 C   0  0  0  0  0  0  0  0  0  0  0  0
   12.4053    1.3902    0.0000 C   0  0  0  0  0  0  0  0  0  0  0  0
   11.2010    0.3096    0.0000 C   0  0  0  0  0  0  0  0  0  0  0  0
   12.8635   -0.3319    0.0000 C   0  0  0  0  0  0  0  0  0  0  0  0
   11.5401    1.8917    0.0000 C   0  0  0  0  0  0  0  0  0  0  0  0
   10.7958    1.2239    0.0000 C   0  0  0  0  0  0  0  0  0  0  0  0
   11.5743   -1.4886    0.0000 C   0  0  1  0  0  0  0  0  0  0  0  0
   10.9065   -0.7443    0.0000 C   0  0  0  0  0  0  0  0  0  0  0  0
   11.2637   -2.4391    0.0000 C   0  0  0  0  0  0  0  0  0  0  0  0
    9.9280   -0.9505    0.0000 C   0  0  0  0  0  0  0  0  0  0  0  0
   13.8885   -2.7710    0.0000 C   0  0  0  0  0  0  0  0  0  0  0  0
    9.2601   -0.2062    0.0000 C   0  0  0  0  0  0  0  0  0  0  0  0
    8.2816   -0.4124    0.0000 C   0  0  0  0  0  0  0  0  0  0  0  0
   13.5779   -3.7215    0.0000 C   0  0  0  0  0  0  0  0  0  0  0  0
   14.8670   -2.5648    0.0000 C   0  0  0  0  0  0  0  0  0  0  0  0
   14.2457   -4.4658    0.0000 C   0  0  0  0  0  0  0  0  0  0  0  0
   15.5349   -3.3091    0.0000 C   0  0  0  0  0  0  0  0  0  0  0  0
   15.2242   -4.2596    0.0000 C   0  0  0  0  0  0  0  0  0  0  0  0
    6.6353    0.1256    0.0000 C   0  0  0  0  0  0  0  0  0  0  0  0
    5.9674    0.8699    0.0000 C   0  0  2  0  0  0  0  0  0  0  0  0
    4.9889    0.6637    0.0000 C   0  0  0  0  0  0  0  0  0  0  0  0
    4.6783   -0.2868    0.0000 C   0  0  0  0  0  0  0  0  0  0  0  0
    3.7320   -0.5915    0.0000 C   0  0  0  0  0  0  0  0  0  0  0  0
    5.2619   -1.0915    0.0000 C   0  0  0  0  0  0  0  0  0  0  0  0
    3.7320   -1.5915    0.0000 C   0  0  0  0  0  0  0  0  0  0  0  0
    5.6103    2.5648    0.0000 C   0  0  0  0  0  0  0  0  0  0  0  0
   16.8706   -4.7977    0.0000 C   0  0  0  0  0  0  0  0  0  0  0  0
    2.8660   -0.0915    0.0000 C   0  0  0  0  0  0  0  0  0  0  0  0
    5.2531    4.2596    0.0000 C   0  0  0  0  0  0  0  0  0  0  0  0
    2.8660   -2.0915    0.0000 C   0  0  0  0  0  0  0  0  0  0  0  0
    2.0000   -0.5915    0.0000 C   0  0  0  0  0  0  0  0  0  0  0  0
    2.0000   -1.5915    0.0000 C   0  0  0  0  0  0  0  0  0  0  0  0
    4.5852    5.0039    0.0000 C   0  0  0  0  0  0  0  0  0  0  0  0
    5.9974    4.9274    0.0000 C   0  0  0  0  0  0  0  0  0  0  0  0
    4.5088    3.5918    0.0000 C   0  0  0  0  0  0  0  0  0  0  0  0
   11.9725   -0.1660    0.0000 H   0  0  0  0  0  0  0  0  0  0  0  0
   12.9946    1.1976    0.0000 H   0  0  0  0  0  0  0  0  0  0  0  0
   12.6584    1.9562    0.0000 H   0  0  0  0  0  0  0  0  0  0  0  0
   10.6110    0.1191    0.0000 H   0  0  0  0  0  0  0  0  0  0  0  0
   11.3288   -0.2970    0.0000 H   0  0  0  0  0  0  0  0  0  0  0  0
   13.4104   -0.6239    0.0000 H   0  0  0  0  0  0  0  0  0  0  0  0
   13.2461    0.1560    0.0000 H   0  0  0  0  0  0  0  0  0  0  0  0
   11.9054    2.3927    0.0000 H   0  0  0  0  0  0  0  0  0  0  0  0
   11.0801    2.3074    0.0000 H   0  0  0  0  0  0  0  0  0  0  0  0
   10.4322    1.7261    0.0000 H   0  0  0  0  0  0  0  0  0  0  0  0
   10.2583    0.9148    0.0000 H   0  0  0  0  0  0  0  0  0  0  0  0
   11.7669   -0.8993    0.0000 H   0  0  0  0  0  0  0  0  0  0  0  0
   11.4328   -0.4167    0.0000 H   0  0  0  0  0  0  0  0  0  0  0  0
   10.6752   -0.1690    0.0000 H   0  0  0  0  0  0  0  0  0  0  0  0
   11.2842   -3.0588    0.0000 H   0  0  0  0  0  0  0  0  0  0  0  0
   11.8775   -2.5265    0.0000 H   0  0  0  0  0  0  0  0  0  0  0  0
    9.4016   -1.2782    0.0000 H   0  0  0  0  0  0  0  0  0  0  0  0
   10.1592   -1.5258    0.0000 H   0  0  0  0  0  0  0  0  0  0  0  0
    9.7865    0.1214    0.0000 H   0  0  0  0  0  0  0  0  0  0  0  0
    9.0289    0.3690    0.0000 H   0  0  0  0  0  0  0  0  0  0  0  0
    7.7553   -0.7401    0.0000 H   0  0  0  0  0  0  0  0  0  0  0  0
    8.5129   -0.9877    0.0000 H   0  0  0  0  0  0  0  0  0  0  0  0
   10.0926   -3.2347    0.0000 H   0  0  0  0  0  0  0  0  0  0  0  0
   12.9712   -3.8494    0.0000 H   0  0  0  0  0  0  0  0  0  0  0  0
   15.0596   -1.9754    0.0000 H   0  0  0  0  0  0  0  0  0  0  0  0
   14.0531   -5.0551    0.0000 H   0  0  0  0  0  0  0  0  0  0  0  0
   16.1415   -3.1812    0.0000 H   0  0  0  0  0  0  0  0  0  0  0  0
    7.8064    0.9212    0.0000 H   0  0  0  0  0  0  0  0  0  0  0  0
    5.5534    1.3314    0.0000 H   0  0  0  0  0  0  0  0  0  0  0  0
    4.9684    1.2834    0.0000 H   0  0  0  0  0  0  0  0  0  0  0  0
    4.3751    0.7511    0.0000 H   0  0  0  0  0  0  0  0  0  0  0  0
    6.8848    1.9483    0.0000 H   0  0  0  0  0  0  0  0  0  0  0  0
    5.8819   -1.0915    0.0000 H   0  0  0  0  0  0  0  0  0  0  0  0
    4.8709   -2.4856    0.0000 H   0  0  0  0  0  0  0  0  0  0  0  0
   16.9984   -5.4044    0.0000 H   0  0  0  0  0  0  0  0  0  0  0  0
   17.4772   -4.6698    0.0000 H   0  0  0  0  0  0  0  0  0  0  0  0
   16.7427   -4.1910    0.0000 H   0  0  0  0  0  0  0  0  0  0  0  0
    2.8660    0.5285    0.0000 H   0  0  0  0  0  0  0  0  0  0  0  0
    2.8660   -2.7115    0.0000 H   0  0  0  0  0  0  0  0  0  0  0  0
    1.4631   -0.2815    0.0000 H   0  0  0  0  0  0  0  0  0  0  0  0
    1.4631   -1.9015    0.0000 H   0  0  0  0  0  0  0  0  0  0  0  0
    5.0467    5.4180    0.0000 H   0  0  0  0  0  0  0  0  0  0  0  0
    4.1712    5.4654    0.0000 H   0  0  0  0  0  0  0  0  0  0  0  0
    4.1238    4.5898    0.0000 H   0  0  0  0  0  0  0  0  0  0  0  0
    6.4114    4.4660    0.0000 H   0  0  0  0  0  0  0  0  0  0  0  0
    6.4588    5.3415    0.0000 H   0  0  0  0  0  0  0  0  0  0  0  0
    5.5833    5.3889    0.0000 H   0  0  0  0  0  0  0  0  0  0  0  0
    4.0947    4.0532    0.0000 H   0  0  0  0  0  0  0  0  0  0  0  0
    4.0473    3.1777    0.0000 H   0  0  0  0  0  0  0  0  0  0  0  0
    4.9228    3.1303    0.0000 H   0  0  0  0  0  0  0  0  0  0  0  0
  1  2  2  0  0  0  0
  1  3  2  0  0  0  0
  1  9  1  0  0  0  0
  1 23  1  0  0  0  0
  4 21  1  0  0  0  0
  4 70  1  0  0  0  0
  5 30  1  0  0  0  0
  5 39  1  0  0  0  0
  6 31  2  0  0  0  0
  7 38  1  0  0  0  0
  7 41  1  0  0  0  0
  8 38  2  0  0  0  0
  9 16  1  0  0  0  0
 19  9  1  6  0  0  0
 10 25  1  0  0  0  0
 10 31  1  0  0  0  0
 10 75  1  0  0  0  0
 32 11  1  6  0  0  0
 11 38  1  0  0  0  0
 11 79  1  0  0  0  0
 12 36  1  0  0  0  0
 12 37  1  0  0  0  0
 12 81  1  0  0  0  0
 13 14  1  0  0  0  0
 13 15  1  0  0  0  0
 13 16  1  0  0  0  0
 13 48  1  0  0  0  0
 14 17  1  0  0  0  0
 14 49  1  0  0  0  0
 14 50  1  0  0  0  0
 15 18  1  0  0  0  0
 15 51  1  0  0  0  0
 15 52  1  0  0  0  0
 16 53  1  0  0  0  0
 16 54  1  0  0  0  0
 17 18  1  0  0  0  0
 17 55  1  0  0  0  0
 17 56  1  0  0  0  0
 18 57  1  0  0  0  0
 18 58  1  0  0  0  0
 19 20  1  0  0  0  0
 19 21  1  0  0  0  0
 19 59  1  0  0  0  0
 20 22  1  0  0  0  0
 20 60  1  0  0  0  0
 20 61  1  0  0  0  0
 21 62  1  0  0  0  0
 21 63  1  0  0  0  0
 22 24  1  0  0  0  0
 22 64  1  0  0  0  0
 22 65  1  0  0  0  0
 23 26  2  0  0  0  0
 23 27  1  0  0  0  0
 24 25  1  0  0  0  0
 24 66  1  0  0  0  0
 24 67  1  0  0  0  0
 25 68  1  0  0  0  0
 25 69  1  0  0  0  0
 26 28  1  0  0  0  0
 26 71  1  0  0  0  0
 27 29  2  0  0  0  0
 27 72  1  0  0  0  0
 28 30  2  0  0  0  0
 28 73  1  0  0  0  0
 29 30  1  0  0  0  0
 29 74  1  0  0  0  0
 31 32  1  0  0  0  0
 32 33  1  0  0  0  0
 32 76  1  0  0  0  0
 33 34  1  0  0  0  0
 33 77  1  0  0  0  0
 33 78  1  0  0  0  0
 34 35  1  0  0  0  0
 34 36  2  0  0  0  0
 35 37  1  0  0  0  0
 35 40  2  0  0  0  0
 36 80  1  0  0  0  0
 37 42  2  0  0  0  0
 39 82  1  0  0  0  0
 39 83  1  0  0  0  0
 39 84  1  0  0  0  0
 40 43  1  0  0  0  0
 40 85  1  0  0  0  0
 41 45  1  0  0  0  0
 41 46  1  0  0  0  0
 41 47  1  0  0  0  0
 42 44  1  0  0  0  0
 42 86  1  0  0  0  0
 43 44  2  0  0  0  0
 43 87  1  0  0  0  0
 44 88  1  0  0  0  0
 45 89  1  0  0  0  0
 45 90  1  0  0  0  0
 45 91  1  0  0  0  0
 46 92  1  0  0  0  0
 46 93  1  0  0  0  0
 46 94  1  0  0  0  0
 47 95  1  0  0  0  0
 47 96  1  0  0  0  0
 47 97  1  0  0  0  0
M  END
> <PUBCHEM_COMPOUND_CID>
508677
> <PUBCHEM_COMPOUND_CANONICALIZED>
1
> <PUBCHEM_CACTVS_COMPLEXITY>
1080
> <PUBCHEM_CACTVS_HBOND_ACCEPTOR>
8
> <PUBCHEM_CACTVS_HBOND_DONOR>
4
> <PUBCHEM_CACTVS_ROTATABLE_BOND>
18
> <PUBCHEM_CACTVS_SUBSKEYS>
AAADcfB/uABAAAAAAAAAAAAAAAAAAeIAAAAwYAAAAAAAAFgB9AAAHgQQSAAADWzh3gY+z/LJlgKoAzV3XHDCiDAxIiAI2bm+bJkOdvLEsbuccChk1hHY6AeYycCOgIAAAAACAAABAAAAAAQAAAAAAAAAAA==
> <PUBCHEM_IUPAC_OPENEYE_NAME>
tert-butyl N-[(1S)-2-[[(5S)-5-[cyclopentylmethyl-(4-methoxyphenyl)sulfonyl-amino]-6-hydroxy-hexyl]amino]-1-(1H-indol-3-ylmethyl)-2-oxo-ethyl]carbamate
> <PUBCHEM_IUPAC_CAS_NAME>
N-[(2S)-1-[[(5S)-5-[cyclopentylmethyl-(4-methoxyphenyl)sulfonylamino]-6-hydroxyhexyl]amino]-3-(1H-indol-3-yl)-1-oxopropan-2-yl]carbamic acid tert-butyl ester
> <PUBCHEM_IUPAC_NAME_MARKUP>
<I>tert</I>-butyl <I>N</I>-[(2<I>S</I>)-1-[[(5<I>S</I>)-5-[cyclopentylmethyl-(4-methoxyphenyl)sulfonylamino]-6-hydroxyhexyl]amino]-3-(1<I>H</I>-indol-3-yl)-1-oxopropan-2-yl]carbamate
> <PUBCHEM_IUPAC_NAME>
tert-butyl N-[(2S)-1-[[(5S)-5-[cyclopentylmethyl-(4-methoxyphenyl)sulfonylamino]-6-hydroxyhexyl]amino]-3-(1H-indol-3-yl)-1-oxopropan-2-yl]carbamate
> <PUBCHEM_IUPAC_SYSTEMATIC_NAME>
tert-butyl N-[(2S)-1-[[(5S)-5-[cyclopentylmethyl-(4-methoxyphenyl)sulfonyl-amino]-6-oxidanyl-hexyl]amino]-3-(1H-indol-3-yl)-1-oxidanylidene-propan-2-yl]carbamate
> <PUBCHEM_IUPAC_TRADITIONAL_NAME>
N-[(1S)-2-[[(5S)-5-[cyclopentylmethyl-(4-methoxyphenyl)sulfonyl-amino]-6-hydroxy-hexyl]amino]-1-(1H-indol-3-ylmethyl)-2-keto-ethyl]carbamic acid tert-butyl ester
> <PUBCHEM_IUPAC_INCHI>
InChI=1S/C35H50N4O7S/c1-35(2,3)46-34(42)38-32(21-26-22-37-31-15-8-7-14-30(26)31)33(41)36-20-10-9-13-27(24-40)39(23-25-11-5-6-12-25)47(43,44)29-18-16-28(45-4)17-19-29/h7-8,14-19,22,25,27,32,37,40H,5-6,9-13,20-21,23-24H2,1-4H3,(H,36,41)(H,38,42)/t27-,32-/m0/s1
> <PUBCHEM_IUPAC_INCHIKEY>
FPFIDLWGLDRYDT-UCGGBYDDSA-N
> <PUBCHEM_XLOGP3_AA>
5.5
> <PUBCHEM_EXACT_MASS>
670.34002112
> <PUBCHEM_MOLECULAR_FORMULA>
C35H50N4O7S
> <PUBCHEM_MOLECULAR_WEIGHT>
670.9
> <PUBCHEM_OPENEYE_CAN_SMILES>
CC(C)(C)OC(=O)NC(CC1=CNC2=CC=CC=C21)C(=O)NCCCCC(CO)N(CC3CCCC3)S(=O)(=O)C4=CC=C(C=C4)OC
> <PUBCHEM_OPENEYE_ISO_SMILES>
CC(C)(C)OC(=O)N[C@@H](CC1=CNC2=CC=CC=C21)C(=O)NCCCC[C@@H](CO)N(CC3CCCC3)S(=O)(=O)C4=CC=C(C=C4)OC
> <PUBCHEM_CACTVS_TPSA>
158
> <PUBCHEM_MONOISOTOPIC_WEIGHT>
670.34002112
> <PUBCHEM_TOTAL_CHARGE>
0
> <PUBCHEM_HEAVY_ATOM_COUNT>
47
> <PUBCHEM_ATOM_DEF_STEREO_COUNT>
2
> <PUBCHEM_ATOM_UDEF_STEREO_COUNT>
0
> <PUBCHEM_BOND_DEF_STEREO_COUNT>
0
> <PUBCHEM_BOND_UDEF_STEREO_COUNT>
0
> <PUBCHEM_ISOTOPIC_ATOM_COUNT>
0
> <PUBCHEM_COMPONENT_COUNT>
1
> <PUBCHEM_CACTVS_TAUTO_COUNT>
-1
> <PUBCHEM_COORDINATE_TYPE>
1
5
255
> <PUBCHEM_BONDANNOTATIONS>
32  11  6
12  36  8
12  37  8
23  26  8
23  27  8
26  28  8
27  29  8
28  30  8
29  30  8
34  35  8
34  36  8
35  37  8
35  40  8
37  42  8
40  43  8
42  44  8
43  44  8
19  9  6
$$$$
