508699
  -OEChem-10302200282D
 78 79  0     1  0  0  0  0  0999 V2000
    3.7320   -3.0950    0.0000 S   0  0  0  0  0  0  0  0  0  0  0  0
    6.3301   -1.5950    0.0000 O   0  0  0  0  0  0  0  0  0  0  0  0
    4.7320   -3.0950    0.0000 O   0  0  0  0  0  0  0  0  0  0  0  0
    2.7320   -3.0950    0.0000 O   0  0  0  0  0  0  0  0  0  0  0  0
    8.0622    2.4050    0.0000 O   0  0  0  0  0  0  0  0  0  0  0  0
    9.7942    4.4050    0.0000 O   0  0  0  0  0  0  0  0  0  0  0  0
    8.9282    2.9050    0.0000 O   0  0  0  0  0  0  0  0  0  0  0  0
    3.7320   -2.0950    0.0000 N   0  0  3  0  0  0  0  0  0  0  0  0
    6.3301    2.4050    0.0000 N   0  0  0  0  0  0  0  0  0  0  0  0
    8.0622    4.4050    0.0000 N   0  0  0  0  0  0  0  0  0  0  0  0
    3.7320   -7.0950    0.0000 N   0  0  0  0  0  0  0  0  0  0  0  0
    4.5981   -1.5950    0.0000 C   0  0  1  0  0  0  0  0  0  0  0  0
    4.5981   -0.5950    0.0000 C   0  0  0  0  0  0  0  0  0  0  0  0
    2.8660   -1.5950    0.0000 C   0  0  0  0  0  0  0  0  0  0  0  0
    5.4641   -0.0950    0.0000 C   0  0  0  0  0  0  0  0  0  0  0  0
    2.8660   -0.5950    0.0000 C   0  0  0  0  0  0  0  0  0  0  0  0
    5.4641   -2.0950    0.0000 C   0  0  0  0  0  0  0  0  0  0  0  0
    5.4641    0.9050    0.0000 C   0  0  0  0  0  0  0  0  0  0  0  0
    3.7320   -4.0950    0.0000 C   0  0  0  0  0  0  0  0  0  0  0  0
    2.0000   -0.0950    0.0000 C   0  0  0  0  0  0  0  0  0  0  0  0
    3.7320   -0.0950    0.0000 C   0  0  0  0  0  0  0  0  0  0  0  0
    6.3301    1.4050    0.0000 C   0  0  0  0  0  0  0  0  0  0  0  0
    2.8660   -4.5950    0.0000 C   0  0  0  0  0  0  0  0  0  0  0  0
    4.5981   -4.5950    0.0000 C   0  0  0  0  0  0  0  0  0  0  0  0
    7.1962    3.9050    0.0000 C   0  0  2  0  0  0  0  0  0  0  0  0
    7.1962    2.9050    0.0000 C   0  0  0  0  0  0  0  0  0  0  0  0
    2.8660   -5.5950    0.0000 C   0  0  0  0  0  0  0  0  0  0  0  0
    4.5981   -5.5950    0.0000 C   0  0  0  0  0  0  0  0  0  0  0  0
    3.7320   -6.0950    0.0000 C   0  0  0  0  0  0  0  0  0  0  0  0
    6.3301    4.4050    0.0000 C   0  0  0  0  0  0  0  0  0  0  0  0
    6.3301    5.4050    0.0000 C   0  0  0  0  0  0  0  0  0  0  0  0
    5.4641    5.9050    0.0000 C   0  0  0  0  0  0  0  0  0  0  0  0
    7.1962    5.9050    0.0000 C   0  0  0  0  0  0  0  0  0  0  0  0
    8.9282    3.9050    0.0000 C   0  0  0  0  0  0  0  0  0  0  0  0
    5.4641    6.9050    0.0000 C   0  0  0  0  0  0  0  0  0  0  0  0
    7.1962    6.9050    0.0000 C   0  0  0  0  0  0  0  0  0  0  0  0
    6.3301    7.4050    0.0000 C   0  0  0  0  0  0  0  0  0  0  0  0
   10.6603    3.9050    0.0000 C   0  0  0  0  0  0  0  0  0  0  0  0
    4.5981   -2.2150    0.0000 H   0  0  0  0  0  0  0  0  0  0  0  0
    4.3860   -0.0124    0.0000 H   0  0  0  0  0  0  0  0  0  0  0  0
    3.9875   -0.7027    0.0000 H   0  0  0  0  0  0  0  0  0  0  0  0
    2.2554   -1.4873    0.0000 H   0  0  0  0  0  0  0  0  0  0  0  0
    2.6540   -2.1776    0.0000 H   0  0  0  0  0  0  0  0  0  0  0  0
    5.6762   -0.6776    0.0000 H   0  0  0  0  0  0  0  0  0  0  0  0
    6.0747    0.0127    0.0000 H   0  0  0  0  0  0  0  0  0  0  0  0
    2.8660    0.0250    0.0000 H   0  0  0  0  0  0  0  0  0  0  0  0
    5.0656   -2.5700    0.0000 H   0  0  0  0  0  0  0  0  0  0  0  0
    5.8626   -2.5700    0.0000 H   0  0  0  0  0  0  0  0  0  0  0  0
    5.2520    1.4876    0.0000 H   0  0  0  0  0  0  0  0  0  0  0  0
    4.8535    0.7973    0.0000 H   0  0  0  0  0  0  0  0  0  0  0  0
    2.3100    0.4419    0.0000 H   0  0  0  0  0  0  0  0  0  0  0  0
    1.4631    0.2150    0.0000 H   0  0  0  0  0  0  0  0  0  0  0  0
    1.6900   -0.6319    0.0000 H   0  0  0  0  0  0  0  0  0  0  0  0
    4.0420   -0.6319    0.0000 H   0  0  0  0  0  0  0  0  0  0  0  0
    4.2690    0.2150    0.0000 H   0  0  0  0  0  0  0  0  0  0  0  0
    3.4220    0.4419    0.0000 H   0  0  0  0  0  0  0  0  0  0  0  0
    6.5422    0.8224    0.0000 H   0  0  0  0  0  0  0  0  0  0  0  0
    6.9407    1.5127    0.0000 H   0  0  0  0  0  0  0  0  0  0  0  0
    6.8671   -1.9050    0.0000 H   0  0  0  0  0  0  0  0  0  0  0  0
    5.7932    2.7150    0.0000 H   0  0  0  0  0  0  0  0  0  0  0  0
    2.3291   -4.2850    0.0000 H   0  0  0  0  0  0  0  0  0  0  0  0
    5.1350   -4.2850    0.0000 H   0  0  0  0  0  0  0  0  0  0  0  0
    7.7331    3.5950    0.0000 H   0  0  0  0  0  0  0  0  0  0  0  0
    2.3291   -5.9050    0.0000 H   0  0  0  0  0  0  0  0  0  0  0  0
    5.1350   -5.9050    0.0000 H   0  0  0  0  0  0  0  0  0  0  0  0
    5.7196    4.5127    0.0000 H   0  0  0  0  0  0  0  0  0  0  0  0
    6.1181    3.8224    0.0000 H   0  0  0  0  0  0  0  0  0  0  0  0
    8.0622    5.0250    0.0000 H   0  0  0  0  0  0  0  0  0  0  0  0
    3.1951   -7.4050    0.0000 H   0  0  0  0  0  0  0  0  0  0  0  0
    4.2690   -7.4050    0.0000 H   0  0  0  0  0  0  0  0  0  0  0  0
    4.9272    5.5950    0.0000 H   0  0  0  0  0  0  0  0  0  0  0  0
    7.7331    5.5950    0.0000 H   0  0  0  0  0  0  0  0  0  0  0  0
    4.9272    7.2150    0.0000 H   0  0  0  0  0  0  0  0  0  0  0  0
    7.7331    7.2150    0.0000 H   0  0  0  0  0  0  0  0  0  0  0  0
    6.3301    8.0250    0.0000 H   0  0  0  0  0  0  0  0  0  0  0  0
   10.3503    3.3681    0.0000 H   0  0  0  0  0  0  0  0  0  0  0  0
   11.1972    3.5950    0.0000 H   0  0  0  0  0  0  0  0  0  0  0  0
   10.9703    4.4419    0.0000 H   0  0  0  0  0  0  0  0  0  0  0  0
  1  3  2  0  0  0  0
  1  4  2  0  0  0  0
  1  8  1  0  0  0  0
  1 19  1  0  0  0  0
  2 17  1  0  0  0  0
  2 59  1  0  0  0  0
  5 26  2  0  0  0  0
  6 34  1  0  0  0  0
  6 38  1  0  0  0  0
  7 34  2  0  0  0  0
 12  8  1  1  0  0  0
  8 14  1  0  0  0  0
  9 22  1  0  0  0  0
  9 26  1  0  0  0  0
  9 60  1  0  0  0  0
 25 10  1  6  0  0  0
 10 34  1  0  0  0  0
 10 68  1  0  0  0  0
 11 29  1  0  0  0  0
 11 69  1  0  0  0  0
 11 70  1  0  0  0  0
 12 13  1  0  0  0  0
 12 17  1  0  0  0  0
 12 39  1  0  0  0  0
 13 15  1  0  0  0  0
 13 40  1  0  0  0  0
 13 41  1  0  0  0  0
 14 16  1  0  0  0  0
 14 42  1  0  0  0  0
 14 43  1  0  0  0  0
 15 18  1  0  0  0  0
 15 44  1  0  0  0  0
 15 45  1  0  0  0  0
 16 20  1  0  0  0  0
 16 21  1  0  0  0  0
 16 46  1  0  0  0  0
 17 47  1  0  0  0  0
 17 48  1  0  0  0  0
 18 22  1  0  0  0  0
 18 49  1  0  0  0  0
 18 50  1  0  0  0  0
 19 23  2  0  0  0  0
 19 24  1  0  0  0  0
 20 51  1  0  0  0  0
 20 52  1  0  0  0  0
 20 53  1  0  0  0  0
 21 54  1  0  0  0  0
 21 55  1  0  0  0  0
 21 56  1  0  0  0  0
 22 57  1  0  0  0  0
 22 58  1  0  0  0  0
 23 27  1  0  0  0  0
 23 61  1  0  0  0  0
 24 28  2  0  0  0  0
 24 62  1  0  0  0  0
 25 26  1  0  0  0  0
 25 30  1  0  0  0  0
 25 63  1  0  0  0  0
 27 29  2  0  0  0  0
 27 64  1  0  0  0  0
 28 29  1  0  0  0  0
 28 65  1  0  0  0  0
 30 31  1  0  0  0  0
 30 66  1  0  0  0  0
 30 67  1  0  0  0  0
 31 32  2  0  0  0  0
 31 33  1  0  0  0  0
 32 35  1  0  0  0  0
 32 71  1  0  0  0  0
 33 36  2  0  0  0  0
 33 72  1  0  0  0  0
 35 37  2  0  0  0  0
 35 73  1  0  0  0  0
 36 37  1  0  0  0  0
 36 74  1  0  0  0  0
 37 75  1  0  0  0  0
 38 76  1  0  0  0  0
 38 77  1  0  0  0  0
 38 78  1  0  0  0  0
M  END
> <PUBCHEM_COMPOUND_CID>
508699
> <PUBCHEM_COMPOUND_CANONICALIZED>
1
> <PUBCHEM_CACTVS_COMPLEXITY>
805
> <PUBCHEM_CACTVS_HBOND_ACCEPTOR>
8
> <PUBCHEM_CACTVS_HBOND_DONOR>
4
> <PUBCHEM_CACTVS_ROTATABLE_BOND>
16
> <PUBCHEM_CACTVS_SUBSKEYS>
AAADcfB7uABAAAAAAAAAAAAAAAAAAAAAAAAwYAAAAAAAAAABQAAAHgQQSAAADSjh2AYyyYLABgKIAiVSWHDCABAgAgAIiJmIZIkKcDKAkbGUYABklgCYyAeYyICOAAQAAAAAAAAACAAAAAAAAAAAAAAAAA==
> <PUBCHEM_IUPAC_OPENEYE_NAME>
methyl N-[(1S)-2-[[(5S)-5-[(4-aminophenyl)sulfonyl-isobutyl-amino]-6-hydroxy-hexyl]amino]-1-benzyl-2-oxo-ethyl]carbamate
> <PUBCHEM_IUPAC_CAS_NAME>
N-[(2S)-1-[[(5S)-5-[(4-aminophenyl)sulfonyl-(2-methylpropyl)amino]-6-hydroxyhexyl]amino]-1-oxo-3-phenylpropan-2-yl]carbamic acid methyl ester
> <PUBCHEM_IUPAC_NAME_MARKUP>
methyl <I>N</I>-[(2<I>S</I>)-1-[[(5<I>S</I>)-5-[(4-aminophenyl)sulfonyl-(2-methylpropyl)amino]-6-hydroxyhexyl]amino]-1-oxo-3-phenylpropan-2-yl]carbamate
> <PUBCHEM_IUPAC_NAME>
methyl N-[(2S)-1-[[(5S)-5-[(4-aminophenyl)sulfonyl-(2-methylpropyl)amino]-6-hydroxyhexyl]amino]-1-oxo-3-phenylpropan-2-yl]carbamate
> <PUBCHEM_IUPAC_SYSTEMATIC_NAME>
methyl N-[(2S)-1-[[(5S)-5-[(4-aminophenyl)sulfonyl-(2-methylpropyl)amino]-6-oxidanyl-hexyl]amino]-1-oxidanylidene-3-phenyl-propan-2-yl]carbamate
> <PUBCHEM_IUPAC_TRADITIONAL_NAME>
N-[(1S)-1-benzyl-2-[[(5S)-6-hydroxy-5-[isobutyl(sulfanilyl)amino]hexyl]amino]-2-keto-ethyl]carbamic acid methyl ester
> <PUBCHEM_IUPAC_INCHI>
InChI=1S/C27H40N4O6S/c1-20(2)18-31(38(35,36)24-14-12-22(28)13-15-24)23(19-32)11-7-8-16-29-26(33)25(30-27(34)37-3)17-21-9-5-4-6-10-21/h4-6,9-10,12-15,20,23,25,32H,7-8,11,16-19,28H2,1-3H3,(H,29,33)(H,30,34)/t23-,25-/m0/s1
> <PUBCHEM_IUPAC_INCHIKEY>
FJZDIYKKNUTULN-ZCYQVOJMSA-N
> <PUBCHEM_XLOGP3_AA>
3.2
> <PUBCHEM_EXACT_MASS>
548.26685618
> <PUBCHEM_MOLECULAR_FORMULA>
C27H40N4O6S
> <PUBCHEM_MOLECULAR_WEIGHT>
548.7
> <PUBCHEM_OPENEYE_CAN_SMILES>
CC(C)CN(C(CCCCNC(=O)C(CC1=CC=CC=C1)NC(=O)OC)CO)S(=O)(=O)C2=CC=C(C=C2)N
> <PUBCHEM_OPENEYE_ISO_SMILES>
CC(C)CN([C@@H](CCCCNC(=O)[C@H](CC1=CC=CC=C1)NC(=O)OC)CO)S(=O)(=O)C2=CC=C(C=C2)N
> <PUBCHEM_CACTVS_TPSA>
159
> <PUBCHEM_MONOISOTOPIC_WEIGHT>
548.26685618
> <PUBCHEM_TOTAL_CHARGE>
0
> <PUBCHEM_HEAVY_ATOM_COUNT>
38
> <PUBCHEM_ATOM_DEF_STEREO_COUNT>
2
> <PUBCHEM_ATOM_UDEF_STEREO_COUNT>
0
> <PUBCHEM_BOND_DEF_STEREO_COUNT>
0
> <PUBCHEM_BOND_UDEF_STEREO_COUNT>
0
> <PUBCHEM_ISOTOPIC_ATOM_COUNT>
0
> <PUBCHEM_COMPONENT_COUNT>
1
> <PUBCHEM_CACTVS_TAUTO_COUNT>
-1
> <PUBCHEM_COORDINATE_TYPE>
1
5
255
> <PUBCHEM_BONDANNOTATIONS>
25  10  6
19  23  8
19  24  8
23  27  8
24  28  8
27  29  8
28  29  8
31  32  8
31  33  8
32  35  8
33  36  8
35  37  8
36  37  8
12  8  5
$$$$
