508676
  -OEChem-10302200282D
 82 85  0     1  0  0  0  0  0999 V2000
   11.4348    2.4623    0.0000 S   0  0  0  0  0  0  0  0  0  0  0  0
   12.3853    2.1517    0.0000 O   0  0  0  0  0  0  0  0  0  0  0  0
   10.4843    2.7730    0.0000 O   0  0  0  0  0  0  0  0  0  0  0  0
    8.4993    1.8437    0.0000 O   0  0  0  0  0  0  0  0  0  0  0  0
   12.6774    6.2644    0.0000 O   0  0  0  0  0  0  0  0  0  0  0  0
    5.6103   -1.4203    0.0000 O   0  0  0  0  0  0  0  0  0  0  0  0
   11.1241    1.5118    0.0000 N   0  0  3  0  0  0  0  0  0  0  0  0
    7.2566   -1.9584    0.0000 N   0  0  0  0  0  0  0  0  0  0  0  0
    6.6353   -3.8594    0.0000 N   0  0  0  0  0  0  0  0  0  0  0  0
    4.6783   -5.8813    0.0000 N   0  0  0  0  0  0  0  0  0  0  0  0
   11.4813   -0.1830    0.0000 C   0  0  0  0  0  0  0  0  0  0  0  0
   10.5297   -0.4904    0.0000 C   0  0  0  0  0  0  0  0  0  0  0  0
   12.0677   -0.9930    0.0000 C   0  0  0  0  0  0  0  0  0  0  0  0
   11.7920    0.7675    0.0000 C   0  0  0  0  0  0  0  0  0  0  0  0
   10.5280   -1.4904    0.0000 C   0  0  0  0  0  0  0  0  0  0  0  0
   11.4785   -1.8010    0.0000 C   0  0  0  0  0  0  0  0  0  0  0  0
   10.1456    1.3056    0.0000 C   0  0  1  0  0  0  0  0  0  0  0  0
    9.8349    0.3551    0.0000 C   0  0  0  0  0  0  0  0  0  0  0  0
    9.4778    2.0499    0.0000 C   0  0  0  0  0  0  0  0  0  0  0  0
    8.8564    0.1489    0.0000 C   0  0  0  0  0  0  0  0  0  0  0  0
   11.7454    3.4129    0.0000 C   0  0  0  0  0  0  0  0  0  0  0  0
    8.5458   -0.8016    0.0000 C   0  0  0  0  0  0  0  0  0  0  0  0
    7.5673   -1.0079    0.0000 C   0  0  0  0  0  0  0  0  0  0  0  0
   12.7239    3.6191    0.0000 C   0  0  0  0  0  0  0  0  0  0  0  0
   11.0776    4.1572    0.0000 C   0  0  0  0  0  0  0  0  0  0  0  0
   13.0346    4.5696    0.0000 C   0  0  0  0  0  0  0  0  0  0  0  0
   11.3883    5.1077    0.0000 C   0  0  0  0  0  0  0  0  0  0  0  0
   12.3668    5.3139    0.0000 C   0  0  0  0  0  0  0  0  0  0  0  0
    6.2781   -2.1646    0.0000 C   0  0  0  0  0  0  0  0  0  0  0  0
    5.9674   -3.1151    0.0000 C   0  0  2  0  0  0  0  0  0  0  0  0
    4.9889   -3.3213    0.0000 C   0  0  0  0  0  0  0  0  0  0  0  0
    4.6783   -4.2719    0.0000 C   0  0  0  0  0  0  0  0  0  0  0  0
    3.7320   -4.5766    0.0000 C   0  0  0  0  0  0  0  0  0  0  0  0
    3.7320   -5.5766    0.0000 C   0  0  0  0  0  0  0  0  0  0  0  0
    5.2619   -5.0766    0.0000 C   0  0  0  0  0  0  0  0  0  0  0  0
    2.8660   -4.0766    0.0000 C   0  0  0  0  0  0  0  0  0  0  0  0
   13.6559    6.4706    0.0000 C   0  0  0  0  0  0  0  0  0  0  0  0
    2.8660   -6.0766    0.0000 C   0  0  0  0  0  0  0  0  0  0  0  0
    2.0000   -4.5766    0.0000 C   0  0  0  0  0  0  0  0  0  0  0  0
    2.0000   -5.5766    0.0000 C   0  0  0  0  0  0  0  0  0  0  0  0
   11.0436    0.2562    0.0000 H   0  0  0  0  0  0  0  0  0  0  0  0
   10.4018    0.1163    0.0000 H   0  0  0  0  0  0  0  0  0  0  0  0
    9.9130   -0.5541    0.0000 H   0  0  0  0  0  0  0  0  0  0  0  0
   12.5277   -1.4087    0.0000 H   0  0  0  0  0  0  0  0  0  0  0  0
   12.5291   -0.5790    0.0000 H   0  0  0  0  0  0  0  0  0  0  0  0
   12.3389    0.4755    0.0000 H   0  0  0  0  0  0  0  0  0  0  0  0
   12.1745    1.2554    0.0000 H   0  0  0  0  0  0  0  0  0  0  0  0
    9.9115   -1.4245    0.0000 H   0  0  0  0  0  0  0  0  0  0  0  0
   10.3980   -2.0966    0.0000 H   0  0  0  0  0  0  0  0  0  0  0  0
   11.2253   -2.3670    0.0000 H   0  0  0  0  0  0  0  0  0  0  0  0
   12.0149   -2.1120    0.0000 H   0  0  0  0  0  0  0  0  0  0  0  0
   10.3382    1.8949    0.0000 H   0  0  0  0  0  0  0  0  0  0  0  0
    9.8555   -0.2646    0.0000 H   0  0  0  0  0  0  0  0  0  0  0  0
   10.4488    0.2677    0.0000 H   0  0  0  0  0  0  0  0  0  0  0  0
   10.0041    2.3776    0.0000 H   0  0  0  0  0  0  0  0  0  0  0  0
    9.2465    2.6252    0.0000 H   0  0  0  0  0  0  0  0  0  0  0  0
    8.8359    0.7685    0.0000 H   0  0  0  0  0  0  0  0  0  0  0  0
    8.2426    0.2362    0.0000 H   0  0  0  0  0  0  0  0  0  0  0  0
    8.5663   -1.4213    0.0000 H   0  0  0  0  0  0  0  0  0  0  0  0
    9.1596   -0.8890    0.0000 H   0  0  0  0  0  0  0  0  0  0  0  0
    7.5467   -0.3882    0.0000 H   0  0  0  0  0  0  0  0  0  0  0  0
    6.9534   -0.9205    0.0000 H   0  0  0  0  0  0  0  0  0  0  0  0
    8.0852    2.3052    0.0000 H   0  0  0  0  0  0  0  0  0  0  0  0
   13.1380    3.1576    0.0000 H   0  0  0  0  0  0  0  0  0  0  0  0
   10.4709    4.0293    0.0000 H   0  0  0  0  0  0  0  0  0  0  0  0
    7.6707   -2.4198    0.0000 H   0  0  0  0  0  0  0  0  0  0  0  0
   13.6413    4.6975    0.0000 H   0  0  0  0  0  0  0  0  0  0  0  0
   10.9742    5.5692    0.0000 H   0  0  0  0  0  0  0  0  0  0  0  0
    5.7748   -3.7044    0.0000 H   0  0  0  0  0  0  0  0  0  0  0  0
    4.9684   -2.7017    0.0000 H   0  0  0  0  0  0  0  0  0  0  0  0
    4.3751   -3.2340    0.0000 H   0  0  0  0  0  0  0  0  0  0  0  0
    7.2420   -3.7316    0.0000 H   0  0  0  0  0  0  0  0  0  0  0  0
    6.4427   -4.4488    0.0000 H   0  0  0  0  0  0  0  0  0  0  0  0
    5.8819   -5.0766    0.0000 H   0  0  0  0  0  0  0  0  0  0  0  0
    4.8709   -6.4706    0.0000 H   0  0  0  0  0  0  0  0  0  0  0  0
    2.8660   -3.4566    0.0000 H   0  0  0  0  0  0  0  0  0  0  0  0
    2.8660   -6.6966    0.0000 H   0  0  0  0  0  0  0  0  0  0  0  0
   13.7838    5.8640    0.0000 H   0  0  0  0  0  0  0  0  0  0  0  0
   14.2626    6.5985    0.0000 H   0  0  0  0  0  0  0  0  0  0  0  0
   13.5281    7.0773    0.0000 H   0  0  0  0  0  0  0  0  0  0  0  0
    1.4631   -4.2666    0.0000 H   0  0  0  0  0  0  0  0  0  0  0  0
    1.4631   -5.8866    0.0000 H   0  0  0  0  0  0  0  0  0  0  0  0
  1  2  2  0  0  0  0
  1  3  2  0  0  0  0
  1  7  1  0  0  0  0
  1 21  1  0  0  0  0
  4 19  1  0  0  0  0
  4 63  1  0  0  0  0
  5 28  1  0  0  0  0
  5 37  1  0  0  0  0
  6 29  2  0  0  0  0
  7 14  1  0  0  0  0
 17  7  1  1  0  0  0
  8 23  1  0  0  0  0
  8 29  1  0  0  0  0
  8 66  1  0  0  0  0
 30  9  1  1  0  0  0
  9 72  1  0  0  0  0
  9 73  1  0  0  0  0
 10 34  1  0  0  0  0
 10 35  1  0  0  0  0
 10 75  1  0  0  0  0
 11 12  1  0  0  0  0
 11 13  1  0  0  0  0
 11 14  1  0  0  0  0
 11 41  1  0  0  0  0
 12 15  1  0  0  0  0
 12 42  1  0  0  0  0
 12 43  1  0  0  0  0
 13 16  1  0  0  0  0
 13 44  1  0  0  0  0
 13 45  1  0  0  0  0
 14 46  1  0  0  0  0
 14 47  1  0  0  0  0
 15 16  1  0  0  0  0
 15 48  1  0  0  0  0
 15 49  1  0  0  0  0
 16 50  1  0  0  0  0
 16 51  1  0  0  0  0
 17 18  1  0  0  0  0
 17 19  1  0  0  0  0
 17 52  1  0  0  0  0
 18 20  1  0  0  0  0
 18 53  1  0  0  0  0
 18 54  1  0  0  0  0
 19 55  1  0  0  0  0
 19 56  1  0  0  0  0
 20 22  1  0  0  0  0
 20 57  1  0  0  0  0
 20 58  1  0  0  0  0
 21 24  2  0  0  0  0
 21 25  1  0  0  0  0
 22 23  1  0  0  0  0
 22 59  1  0  0  0  0
 22 60  1  0  0  0  0
 23 61  1  0  0  0  0
 23 62  1  0  0  0  0
 24 26  1  0  0  0  0
 24 64  1  0  0  0  0
 25 27  2  0  0  0  0
 25 65  1  0  0  0  0
 26 28  2  0  0  0  0
 26 67  1  0  0  0  0
 27 28  1  0  0  0  0
 27 68  1  0  0  0  0
 29 30  1  0  0  0  0
 30 31  1  0  0  0  0
 30 69  1  0  0  0  0
 31 32  1  0  0  0  0
 31 70  1  0  0  0  0
 31 71  1  0  0  0  0
 32 33  1  0  0  0  0
 32 35  2  0  0  0  0
 33 34  1  0  0  0  0
 33 36  2  0  0  0  0
 34 38  2  0  0  0  0
 35 74  1  0  0  0  0
 36 39  1  0  0  0  0
 36 76  1  0  0  0  0
 37 78  1  0  0  0  0
 37 79  1  0  0  0  0
 37 80  1  0  0  0  0
 38 40  1  0  0  0  0
 38 77  1  0  0  0  0
 39 40  2  0  0  0  0
 39 81  1  0  0  0  0
 40 82  1  0  0  0  0
M  END
> <PUBCHEM_COMPOUND_CID>
508676
> <PUBCHEM_COMPOUND_CANONICALIZED>
1
> <PUBCHEM_CACTVS_COMPLEXITY>
870
> <PUBCHEM_CACTVS_HBOND_ACCEPTOR>
7
> <PUBCHEM_CACTVS_HBOND_DONOR>
4
> <PUBCHEM_CACTVS_ROTATABLE_BOND>
15
> <PUBCHEM_CACTVS_SUBSKEYS>
AAADcfB7uABAAAAAAAAAAAAAAAAAAeIAAAAwYAAAAAAAAFgB9AAAHgQQSAAADSzh3gY+x/LJlgKoAzV3VHDCiDAxIiAI2bm+bJgOdvLEsZuUcChk1hHY6AeYycCOgIAAAAACAAABAAAAAAQAAAAAAAAAAA==
> <PUBCHEM_IUPAC_OPENEYE_NAME>
(2S)-2-amino-N-[(5S)-5-[cyclopentylmethyl-(4-methoxyphenyl)sulfonyl-amino]-6-hydroxy-hexyl]-3-(1H-indol-3-yl)propanamide
> <PUBCHEM_IUPAC_CAS_NAME>
(2S)-2-amino-N-[(5S)-5-[cyclopentylmethyl-(4-methoxyphenyl)sulfonylamino]-6-hydroxyhexyl]-3-(1H-indol-3-yl)propanamide
> <PUBCHEM_IUPAC_NAME_MARKUP>
(2<I>S</I>)-2-amino-<I>N</I>-[(5<I>S</I>)-5-[cyclopentylmethyl-(4-methoxyphenyl)sulfonylamino]-6-hydroxyhexyl]-3-(1<I>H</I>-indol-3-yl)propanamide
> <PUBCHEM_IUPAC_NAME>
(2S)-2-amino-N-[(5S)-5-[cyclopentylmethyl-(4-methoxyphenyl)sulfonylamino]-6-hydroxyhexyl]-3-(1H-indol-3-yl)propanamide
> <PUBCHEM_IUPAC_SYSTEMATIC_NAME>
(2S)-2-azanyl-N-[(5S)-5-[cyclopentylmethyl-(4-methoxyphenyl)sulfonyl-amino]-6-oxidanyl-hexyl]-3-(1H-indol-3-yl)propanamide
> <PUBCHEM_IUPAC_TRADITIONAL_NAME>
(2S)-2-amino-N-[(5S)-5-[cyclopentylmethyl-(4-methoxyphenyl)sulfonyl-amino]-6-hydroxy-hexyl]-3-(1H-indol-3-yl)propionamide
> <PUBCHEM_IUPAC_INCHI>
InChI=1S/C30H42N4O5S/c1-39-25-13-15-26(16-14-25)40(37,38)34(20-22-8-2-3-9-22)24(21-35)10-6-7-17-32-30(36)28(31)18-23-19-33-29-12-5-4-11-27(23)29/h4-5,11-16,19,22,24,28,33,35H,2-3,6-10,17-18,20-21,31H2,1H3,(H,32,36)/t24-,28-/m0/s1
> <PUBCHEM_IUPAC_INCHIKEY>
GVEPFAXCEPQFBV-CUBQBAPOSA-N
> <PUBCHEM_XLOGP3_AA>
3.8
> <PUBCHEM_EXACT_MASS>
570.28759163
> <PUBCHEM_MOLECULAR_FORMULA>
C30H42N4O5S
> <PUBCHEM_MOLECULAR_WEIGHT>
570.7
> <PUBCHEM_OPENEYE_CAN_SMILES>
COC1=CC=C(C=C1)S(=O)(=O)N(CC2CCCC2)C(CCCCNC(=O)C(CC3=CNC4=CC=CC=C43)N)CO
> <PUBCHEM_OPENEYE_ISO_SMILES>
COC1=CC=C(C=C1)S(=O)(=O)N(CC2CCCC2)[C@@H](CCCCNC(=O)[C@H](CC3=CNC4=CC=CC=C43)N)CO
> <PUBCHEM_CACTVS_TPSA>
146
> <PUBCHEM_MONOISOTOPIC_WEIGHT>
570.28759163
> <PUBCHEM_TOTAL_CHARGE>
0
> <PUBCHEM_HEAVY_ATOM_COUNT>
40
> <PUBCHEM_ATOM_DEF_STEREO_COUNT>
2
> <PUBCHEM_ATOM_UDEF_STEREO_COUNT>
0
> <PUBCHEM_BOND_DEF_STEREO_COUNT>
0
> <PUBCHEM_BOND_UDEF_STEREO_COUNT>
0
> <PUBCHEM_ISOTOPIC_ATOM_COUNT>
0
> <PUBCHEM_COMPONENT_COUNT>
1
> <PUBCHEM_CACTVS_TAUTO_COUNT>
-1
> <PUBCHEM_COORDINATE_TYPE>
1
5
255
> <PUBCHEM_BONDANNOTATIONS>
10  34  8
10  35  8
21  24  8
21  25  8
24  26  8
25  27  8
26  28  8
27  28  8
32  33  8
32  35  8
33  34  8
33  36  8
34  38  8
36  39  8
38  40  8
39  40  8
17  7  5
30  9  5
$$$$
