508687
  -OEChem-10302200282D
 96 99  0     1  0  0  0  0  0999 V2000
   13.2207   -3.2462    0.0000 S   0  0  0  0  0  0  0  0  0  0  0  0
   10.2852   -3.8649    0.0000 O   0  0  0  0  0  0  0  0  0  0  0  0
   13.9650   -2.5784    0.0000 O   0  0  0  0  0  0  0  0  0  0  0  0
   12.4764   -3.9141    0.0000 O   0  0  0  0  0  0  0  0  0  0  0  0
    6.3246   -2.0444    0.0000 O   0  0  0  0  0  0  0  0  0  0  0  0
    4.6318    1.1390    0.0000 O   0  0  0  0  0  0  0  0  0  0  0  0
    3.2496    5.2729    0.0000 O   0  0  0  0  0  0  0  0  0  0  0  0
   12.5528   -2.5020    0.0000 N   0  0  3  0  0  0  0  0  0  0  0  0
    7.6138   -0.8877    0.0000 N   0  0  0  0  0  0  0  0  0  0  0  0
    6.2781    0.6009    0.0000 N   0  0  0  0  0  0  0  0  0  0  0  0
    4.6783   -3.1158    0.0000 N   0  0  0  0  0  0  0  0  0  0  0  0
   11.5743   -2.7082    0.0000 C   0  0  1  0  0  0  0  0  0  0  0  0
   10.9065   -1.9639    0.0000 C   0  0  0  0  0  0  0  0  0  0  0  0
   12.8635   -1.5514    0.0000 C   0  0  0  0  0  0  0  0  0  0  0  0
    9.9280   -2.1701    0.0000 C   0  0  0  0  0  0  0  0  0  0  0  0
   12.1957   -0.8071    0.0000 C   0  0  0  0  0  0  0  0  0  0  0  0
   11.2637   -3.6587    0.0000 C   0  0  0  0  0  0  0  0  0  0  0  0
    9.2601   -1.4258    0.0000 C   0  0  0  0  0  0  0  0  0  0  0  0
   13.8885   -3.9906    0.0000 C   0  0  0  0  0  0  0  0  0  0  0  0
    8.2816   -1.6320    0.0000 C   0  0  0  0  0  0  0  0  0  0  0  0
   12.5063    0.1434    0.0000 C   0  0  0  0  0  0  0  0  0  0  0  0
   11.2171   -1.0133    0.0000 C   0  0  0  0  0  0  0  0  0  0  0  0
    5.9674   -0.3496    0.0000 C   0  0  1  0  0  0  0  0  0  0  0  0
   14.8670   -3.7843    0.0000 C   0  0  0  0  0  0  0  0  0  0  0  0
   13.5779   -4.9411    0.0000 C   0  0  0  0  0  0  0  0  0  0  0  0
    4.9889   -0.5558    0.0000 C   0  0  0  0  0  0  0  0  0  0  0  0
    6.6353   -1.0939    0.0000 C   0  0  0  0  0  0  0  0  0  0  0  0
    4.6783   -1.5064    0.0000 C   0  0  0  0  0  0  0  0  0  0  0  0
   15.5349   -4.5286    0.0000 C   0  0  0  0  0  0  0  0  0  0  0  0
   14.2457   -5.6854    0.0000 C   0  0  0  0  0  0  0  0  0  0  0  0
   15.2242   -5.4792    0.0000 C   0  0  0  0  0  0  0  0  0  0  0  0
    3.7320   -1.8111    0.0000 C   0  0  0  0  0  0  0  0  0  0  0  0
    3.7320   -2.8111    0.0000 C   0  0  0  0  0  0  0  0  0  0  0  0
    5.2619   -2.3111    0.0000 C   0  0  0  0  0  0  0  0  0  0  0  0
   15.8921   -6.2234    0.0000 C   0  0  0  0  0  0  0  0  0  0  0  0
    5.6103    1.3452    0.0000 C   0  0  0  0  0  0  0  0  0  0  0  0
    2.8660   -1.3111    0.0000 C   0  0  0  0  0  0  0  0  0  0  0  0
    2.8660   -3.3111    0.0000 C   0  0  0  0  0  0  0  0  0  0  0  0
    5.9209    2.2957    0.0000 C   0  0  0  0  0  0  0  0  0  0  0  0
    2.0000   -1.8111    0.0000 C   0  0  0  0  0  0  0  0  0  0  0  0
    2.0000   -2.8111    0.0000 C   0  0  0  0  0  0  0  0  0  0  0  0
    5.2531    3.0400    0.0000 C   0  0  0  0  0  0  0  0  0  0  0  0
    5.5637    3.9906    0.0000 C   0  0  0  0  0  0  0  0  0  0  0  0
    4.2746    2.8338    0.0000 C   0  0  0  0  0  0  0  0  0  0  0  0
    4.8959    4.7348    0.0000 C   0  0  0  0  0  0  0  0  0  0  0  0
    3.6067    3.5781    0.0000 C   0  0  0  0  0  0  0  0  0  0  0  0
    3.9174    4.5286    0.0000 C   0  0  0  0  0  0  0  0  0  0  0  0
    3.5602    6.2234    0.0000 C   0  0  0  0  0  0  0  0  0  0  0  0
   11.7669   -2.1188    0.0000 H   0  0  0  0  0  0  0  0  0  0  0  0
   11.4328   -1.6362    0.0000 H   0  0  0  0  0  0  0  0  0  0  0  0
   10.6752   -1.3886    0.0000 H   0  0  0  0  0  0  0  0  0  0  0  0
   13.4104   -1.8434    0.0000 H   0  0  0  0  0  0  0  0  0  0  0  0
   13.2461   -1.0635    0.0000 H   0  0  0  0  0  0  0  0  0  0  0  0
    9.4016   -2.4977    0.0000 H   0  0  0  0  0  0  0  0  0  0  0  0
   10.1592   -2.7453    0.0000 H   0  0  0  0  0  0  0  0  0  0  0  0
   12.0030   -1.3964    0.0000 H   0  0  0  0  0  0  0  0  0  0  0  0
   11.2842   -4.2783    0.0000 H   0  0  0  0  0  0  0  0  0  0  0  0
   11.8775   -3.7460    0.0000 H   0  0  0  0  0  0  0  0  0  0  0  0
    9.7865   -1.0981    0.0000 H   0  0  0  0  0  0  0  0  0  0  0  0
    9.0289   -0.8505    0.0000 H   0  0  0  0  0  0  0  0  0  0  0  0
    7.7553   -1.9596    0.0000 H   0  0  0  0  0  0  0  0  0  0  0  0
    8.5129   -2.2072    0.0000 H   0  0  0  0  0  0  0  0  0  0  0  0
   13.0956   -0.0492    0.0000 H   0  0  0  0  0  0  0  0  0  0  0  0
   12.6989    0.7327    0.0000 H   0  0  0  0  0  0  0  0  0  0  0  0
   11.9170    0.3360    0.0000 H   0  0  0  0  0  0  0  0  0  0  0  0
   11.0893   -0.4067    0.0000 H   0  0  0  0  0  0  0  0  0  0  0  0
   10.6105   -1.1412    0.0000 H   0  0  0  0  0  0  0  0  0  0  0  0
   11.3450   -1.6200    0.0000 H   0  0  0  0  0  0  0  0  0  0  0  0
    7.8064   -0.2984    0.0000 H   0  0  0  0  0  0  0  0  0  0  0  0
   10.0926   -4.4542    0.0000 H   0  0  0  0  0  0  0  0  0  0  0  0
    5.5534    0.1119    0.0000 H   0  0  0  0  0  0  0  0  0  0  0  0
   15.0596   -3.1950    0.0000 H   0  0  0  0  0  0  0  0  0  0  0  0
   12.9712   -5.0689    0.0000 H   0  0  0  0  0  0  0  0  0  0  0  0
    4.9684    0.0638    0.0000 H   0  0  0  0  0  0  0  0  0  0  0  0
    4.3751   -0.4685    0.0000 H   0  0  0  0  0  0  0  0  0  0  0  0
   16.1415   -4.4008    0.0000 H   0  0  0  0  0  0  0  0  0  0  0  0
   14.0531   -6.2747    0.0000 H   0  0  0  0  0  0  0  0  0  0  0  0
    6.8848    0.7288    0.0000 H   0  0  0  0  0  0  0  0  0  0  0  0
    5.8819   -2.3111    0.0000 H   0  0  0  0  0  0  0  0  0  0  0  0
    4.8709   -3.7051    0.0000 H   0  0  0  0  0  0  0  0  0  0  0  0
   15.4306   -6.6375    0.0000 H   0  0  0  0  0  0  0  0  0  0  0  0
   16.3061   -6.6849    0.0000 H   0  0  0  0  0  0  0  0  0  0  0  0
   16.3535   -5.8094    0.0000 H   0  0  0  0  0  0  0  0  0  0  0  0
    2.8660   -0.6911    0.0000 H   0  0  0  0  0  0  0  0  0  0  0  0
    2.8660   -3.9311    0.0000 H   0  0  0  0  0  0  0  0  0  0  0  0
    6.4678    2.0037    0.0000 H   0  0  0  0  0  0  0  0  0  0  0  0
    6.3035    2.7836    0.0000 H   0  0  0  0  0  0  0  0  0  0  0  0
    1.4631   -1.5011    0.0000 H   0  0  0  0  0  0  0  0  0  0  0  0
    1.4631   -3.1211    0.0000 H   0  0  0  0  0  0  0  0  0  0  0  0
    6.1704    4.1184    0.0000 H   0  0  0  0  0  0  0  0  0  0  0  0
    4.0820    2.2445    0.0000 H   0  0  0  0  0  0  0  0  0  0  0  0
    5.0885    5.3242    0.0000 H   0  0  0  0  0  0  0  0  0  0  0  0
    3.0000    3.4503    0.0000 H   0  0  0  0  0  0  0  0  0  0  0  0
    4.1495    6.0308    0.0000 H   0  0  0  0  0  0  0  0  0  0  0  0
    3.7528    6.8128    0.0000 H   0  0  0  0  0  0  0  0  0  0  0  0
    2.9709    6.4161    0.0000 H   0  0  0  0  0  0  0  0  0  0  0  0
  1  3  2  0  0  0  0
  1  4  2  0  0  0  0
  1  8  1  0  0  0  0
  1 19  1  0  0  0  0
  2 17  1  0  0  0  0
  2 70  1  0  0  0  0
  5 27  2  0  0  0  0
  6 36  2  0  0  0  0
  7 47  1  0  0  0  0
  7 48  1  0  0  0  0
 12  8  1  6  0  0  0
  8 14  1  0  0  0  0
  9 20  1  0  0  0  0
  9 27  1  0  0  0  0
  9 69  1  0  0  0  0
 23 10  1  6  0  0  0
 10 36  1  0  0  0  0
 10 78  1  0  0  0  0
 11 33  1  0  0  0  0
 11 34  1  0  0  0  0
 11 80  1  0  0  0  0
 12 13  1  0  0  0  0
 12 17  1  0  0  0  0
 12 49  1  0  0  0  0
 13 15  1  0  0  0  0
 13 50  1  0  0  0  0
 13 51  1  0  0  0  0
 14 16  1  0  0  0  0
 14 52  1  0  0  0  0
 14 53  1  0  0  0  0
 15 18  1  0  0  0  0
 15 54  1  0  0  0  0
 15 55  1  0  0  0  0
 16 21  1  0  0  0  0
 16 22  1  0  0  0  0
 16 56  1  0  0  0  0
 17 57  1  0  0  0  0
 17 58  1  0  0  0  0
 18 20  1  0  0  0  0
 18 59  1  0  0  0  0
 18 60  1  0  0  0  0
 19 24  2  0  0  0  0
 19 25  1  0  0  0  0
 20 61  1  0  0  0  0
 20 62  1  0  0  0  0
 21 63  1  0  0  0  0
 21 64  1  0  0  0  0
 21 65  1  0  0  0  0
 22 66  1  0  0  0  0
 22 67  1  0  0  0  0
 22 68  1  0  0  0  0
 23 26  1  0  0  0  0
 23 27  1  0  0  0  0
 23 71  1  0  0  0  0
 24 29  1  0  0  0  0
 24 72  1  0  0  0  0
 25 30  2  0  0  0  0
 25 73  1  0  0  0  0
 26 28  1  0  0  0  0
 26 74  1  0  0  0  0
 26 75  1  0  0  0  0
 28 32  1  0  0  0  0
 28 34  2  0  0  0  0
 29 31  2  0  0  0  0
 29 76  1  0  0  0  0
 30 31  1  0  0  0  0
 30 77  1  0  0  0  0
 31 35  1  0  0  0  0
 32 33  1  0  0  0  0
 32 37  2  0  0  0  0
 33 38  2  0  0  0  0
 34 79  1  0  0  0  0
 35 81  1  0  0  0  0
 35 82  1  0  0  0  0
 35 83  1  0  0  0  0
 36 39  1  0  0  0  0
 37 40  1  0  0  0  0
 37 84  1  0  0  0  0
 38 41  1  0  0  0  0
 38 85  1  0  0  0  0
 39 42  1  0  0  0  0
 39 86  1  0  0  0  0
 39 87  1  0  0  0  0
 40 41  2  0  0  0  0
 40 88  1  0  0  0  0
 41 89  1  0  0  0  0
 42 43  2  0  0  0  0
 42 44  1  0  0  0  0
 43 45  1  0  0  0  0
 43 90  1  0  0  0  0
 44 46  2  0  0  0  0
 44 91  1  0  0  0  0
 45 47  2  0  0  0  0
 45 92  1  0  0  0  0
 46 47  1  0  0  0  0
 46 93  1  0  0  0  0
 48 94  1  0  0  0  0
 48 95  1  0  0  0  0
 48 96  1  0  0  0  0
M  END
> <PUBCHEM_COMPOUND_CID>
508687
> <PUBCHEM_COMPOUND_CANONICALIZED>
1
> <PUBCHEM_CACTVS_COMPLEXITY>
1080
> <PUBCHEM_CACTVS_HBOND_ACCEPTOR>
7
> <PUBCHEM_CACTVS_HBOND_DONOR>
4
> <PUBCHEM_CACTVS_ROTATABLE_BOND>
18
> <PUBCHEM_CACTVS_SUBSKEYS>
AAADcfB/uABAAAAAAAAAAAAAAAAAAWAAAAAwYMAAAAAAAFgB9AAAHgQQSAAADSzh3gY+x/LJlgKoAzV3VHDCiDAxIiAI2bm+bJgOdvLEtbuUcChk1hHY6AeYycCOsAAAAAACAABgAAAAAAQAAAAAAAAAAA==
> <PUBCHEM_IUPAC_OPENEYE_NAME>
(2S)-N-[(5S)-6-hydroxy-5-[isobutyl(p-tolylsulfonyl)amino]hexyl]-3-(1H-indol-3-yl)-2-[[2-(4-methoxyphenyl)acetyl]amino]propanamide
> <PUBCHEM_IUPAC_CAS_NAME>
(2S)-N-[(5S)-6-hydroxy-5-[(4-methylphenyl)sulfonyl-(2-methylpropyl)amino]hexyl]-3-(1H-indol-3-yl)-2-[[2-(4-methoxyphenyl)-1-oxoethyl]amino]propanamide
> <PUBCHEM_IUPAC_NAME_MARKUP>
(2<I>S</I>)-<I>N</I>-[(5<I>S</I>)-6-hydroxy-5-[(4-methylphenyl)sulfonyl-(2-methylpropyl)amino]hexyl]-3-(1<I>H</I>-indol-3-yl)-2-[[2-(4-methoxyphenyl)acetyl]amino]propanamide
> <PUBCHEM_IUPAC_NAME>
(2S)-N-[(5S)-6-hydroxy-5-[(4-methylphenyl)sulfonyl-(2-methylpropyl)amino]hexyl]-3-(1H-indol-3-yl)-2-[[2-(4-methoxyphenyl)acetyl]amino]propanamide
> <PUBCHEM_IUPAC_SYSTEMATIC_NAME>
(2S)-3-(1H-indol-3-yl)-2-[2-(4-methoxyphenyl)ethanoylamino]-N-[(5S)-5-[(4-methylphenyl)sulfonyl-(2-methylpropyl)amino]-6-oxidanyl-hexyl]propanamide
> <PUBCHEM_IUPAC_TRADITIONAL_NAME>
(2S)-N-[(5S)-6-hydroxy-5-[isobutyl(tosyl)amino]hexyl]-3-(1H-indol-3-yl)-2-[[2-(4-methoxyphenyl)acetyl]amino]propionamide
> <PUBCHEM_IUPAC_INCHI>
InChI=1S/C37H48N4O6S/c1-26(2)24-41(48(45,46)32-18-12-27(3)13-19-32)30(25-42)9-7-8-20-38-37(44)35(22-29-23-39-34-11-6-5-10-33(29)34)40-36(43)21-28-14-16-31(47-4)17-15-28/h5-6,10-19,23,26,30,35,39,42H,7-9,20-22,24-25H2,1-4H3,(H,38,44)(H,40,43)/t30-,35-/m0/s1
> <PUBCHEM_IUPAC_INCHIKEY>
GSCWKFKOEZCMKL-QGRQJHSQSA-N
> <PUBCHEM_XLOGP3_AA>
5.6
> <PUBCHEM_EXACT_MASS>
676.32945644
> <PUBCHEM_MOLECULAR_FORMULA>
C37H48N4O6S
> <PUBCHEM_MOLECULAR_WEIGHT>
676.9
> <PUBCHEM_OPENEYE_CAN_SMILES>
CC1=CC=C(C=C1)S(=O)(=O)N(CC(C)C)C(CCCCNC(=O)C(CC2=CNC3=CC=CC=C32)NC(=O)CC4=CC=C(C=C4)OC)CO
> <PUBCHEM_OPENEYE_ISO_SMILES>
CC1=CC=C(C=C1)S(=O)(=O)N(CC(C)C)[C@@H](CCCCNC(=O)[C@H](CC2=CNC3=CC=CC=C32)NC(=O)CC4=CC=C(C=C4)OC)CO
> <PUBCHEM_CACTVS_TPSA>
149
> <PUBCHEM_MONOISOTOPIC_WEIGHT>
676.32945644
> <PUBCHEM_TOTAL_CHARGE>
0
> <PUBCHEM_HEAVY_ATOM_COUNT>
48
> <PUBCHEM_ATOM_DEF_STEREO_COUNT>
2
> <PUBCHEM_ATOM_UDEF_STEREO_COUNT>
0
> <PUBCHEM_BOND_DEF_STEREO_COUNT>
0
> <PUBCHEM_BOND_UDEF_STEREO_COUNT>
0
> <PUBCHEM_ISOTOPIC_ATOM_COUNT>
0
> <PUBCHEM_COMPONENT_COUNT>
1
> <PUBCHEM_CACTVS_TAUTO_COUNT>
-1
> <PUBCHEM_COORDINATE_TYPE>
1
5
255
> <PUBCHEM_BONDANNOTATIONS>
23  10  6
11  33  8
11  34  8
19  24  8
19  25  8
24  29  8
25  30  8
28  32  8
28  34  8
29  31  8
30  31  8
32  33  8
32  37  8
33  38  8
37  40  8
38  41  8
40  41  8
42  43  8
42  44  8
43  45  8
44  46  8
45  47  8
46  47  8
12  8  6
$$$$
