508624
  -OEChem-10302200282D
 94 97  0     1  0  0  0  0  0999 V2000
    8.0640   -4.6092    0.0000 S   0  0  0  0  0  0  0  0  0  0  0  0
    5.6103    4.6092    0.0000 S   0  0  0  0  0  0  0  0  0  0  0  0
    7.3197   -5.2770    0.0000 O   0  0  0  0  0  0  0  0  0  0  0  0
    8.8083   -3.9414    0.0000 O   0  0  0  0  0  0  0  0  0  0  0  0
    9.3532   -3.4525    0.0000 O   0  0  0  0  0  0  0  0  0  0  0  0
    8.9960   -1.7576    0.0000 O   0  0  0  0  0  0  0  0  0  0  0  0
    6.3546    5.2770    0.0000 O   0  0  0  0  0  0  0  0  0  0  0  0
    4.8660    3.9414    0.0000 O   0  0  0  0  0  0  0  0  0  0  0  0
    7.3962   -3.8649    0.0000 N   0  0  3  0  0  0  0  0  0  0  0  0
    6.3246    1.2196    0.0000 N   0  0  0  0  0  0  0  0  0  0  0  0
    6.2781    3.8649    0.0000 N   0  0  0  0  0  0  0  0  0  0  0  0
    4.6783    0.1482    0.0000 N   0  0  0  0  0  0  0  0  0  0  0  0
    7.6138    2.3763    0.0000 N   0  0  0  0  0  0  0  0  0  0  0  0
    8.9495    0.8877    0.0000 N   0  0  0  0  0  0  0  0  0  0  0  0
    7.7068   -2.9144    0.0000 C   0  0  1  0  0  0  0  0  0  0  0  0
    7.0390   -2.1701    0.0000 C   0  0  0  0  0  0  0  0  0  0  0  0
    6.4177   -4.0711    0.0000 C   0  0  0  0  0  0  0  0  0  0  0  0
    5.7498   -3.3268    0.0000 C   0  0  0  0  0  0  0  0  0  0  0  0
    7.3496   -1.2196    0.0000 C   0  0  0  0  0  0  0  0  0  0  0  0
    6.6818   -0.4753    0.0000 C   0  0  0  0  0  0  0  0  0  0  0  0
    8.6853   -2.7082    0.0000 C   0  0  0  0  0  0  0  0  0  0  0  0
    4.7713   -3.5330    0.0000 C   0  0  0  0  0  0  0  0  0  0  0  0
    6.0605   -2.3763    0.0000 C   0  0  0  0  0  0  0  0  0  0  0  0
    8.7318   -5.3535    0.0000 C   0  0  0  0  0  0  0  0  0  0  0  0
    6.9925    0.4753    0.0000 C   0  0  0  0  0  0  0  0  0  0  0  0
    5.9674    2.9144    0.0000 C   0  0  1  0  0  0  0  0  0  0  0  0
    4.9889    2.7082    0.0000 C   0  0  0  0  0  0  0  0  0  0  0  0
    6.6353    2.1701    0.0000 C   0  0  0  0  0  0  0  0  0  0  0  0
    4.6783    1.7576    0.0000 C   0  0  0  0  0  0  0  0  0  0  0  0
    8.4212   -6.3040    0.0000 C   0  0  0  0  0  0  0  0  0  0  0  0
    9.7104   -5.1473    0.0000 C   0  0  0  0  0  0  0  0  0  0  0  0
    3.7320    1.4529    0.0000 C   0  0  0  0  0  0  0  0  0  0  0  0
    3.7320    0.4529    0.0000 C   0  0  0  0  0  0  0  0  0  0  0  0
    5.2619    0.9529    0.0000 C   0  0  0  0  0  0  0  0  0  0  0  0
    9.0890   -7.0483    0.0000 C   0  0  0  0  0  0  0  0  0  0  0  0
   10.3782   -5.8916    0.0000 C   0  0  0  0  0  0  0  0  0  0  0  0
   10.0675   -6.8421    0.0000 C   0  0  0  0  0  0  0  0  0  0  0  0
    2.8660    1.9529    0.0000 C   0  0  0  0  0  0  0  0  0  0  0  0
    4.9424    5.3535    0.0000 C   0  0  0  0  0  0  0  0  0  0  0  0
    2.8660   -0.0471    0.0000 C   0  0  0  0  0  0  0  0  0  0  0  0
   10.7354   -7.5864    0.0000 C   0  0  0  0  0  0  0  0  0  0  0  0
    2.0000    1.4529    0.0000 C   0  0  0  0  0  0  0  0  0  0  0  0
    2.0000    0.4529    0.0000 C   0  0  0  0  0  0  0  0  0  0  0  0
    3.9639    5.1473    0.0000 C   0  0  0  0  0  0  0  0  0  0  0  0
    5.2531    6.3040    0.0000 C   0  0  0  0  0  0  0  0  0  0  0  0
    3.2961    5.8916    0.0000 C   0  0  0  0  0  0  0  0  0  0  0  0
    4.5852    7.0483    0.0000 C   0  0  0  0  0  0  0  0  0  0  0  0
    8.2816    1.6320    0.0000 C   0  0  0  0  0  0  0  0  0  0  0  0
    3.6067    6.8421    0.0000 C   0  0  0  0  0  0  0  0  0  0  0  0
    2.9389    7.5864    0.0000 C   0  0  0  0  0  0  0  0  0  0  0  0
    7.1002   -3.0422    0.0000 H   0  0  0  0  0  0  0  0  0  0  0  0
    6.4921   -1.8781    0.0000 H   0  0  0  0  0  0  0  0  0  0  0  0
    6.6564   -2.6580    0.0000 H   0  0  0  0  0  0  0  0  0  0  0  0
    5.8913   -4.3988    0.0000 H   0  0  0  0  0  0  0  0  0  0  0  0
    6.6489   -4.6464    0.0000 H   0  0  0  0  0  0  0  0  0  0  0  0
    5.5572   -3.9161    0.0000 H   0  0  0  0  0  0  0  0  0  0  0  0
    7.8966   -1.5116    0.0000 H   0  0  0  0  0  0  0  0  0  0  0  0
    7.7322   -0.7317    0.0000 H   0  0  0  0  0  0  0  0  0  0  0  0
    6.1349   -0.1832    0.0000 H   0  0  0  0  0  0  0  0  0  0  0  0
    6.2992   -0.9632    0.0000 H   0  0  0  0  0  0  0  0  0  0  0  0
    4.6434   -2.9264    0.0000 H   0  0  0  0  0  0  0  0  0  0  0  0
    4.1646   -3.6609    0.0000 H   0  0  0  0  0  0  0  0  0  0  0  0
    4.8992   -4.1397    0.0000 H   0  0  0  0  0  0  0  0  0  0  0  0
    6.6498   -2.5689    0.0000 H   0  0  0  0  0  0  0  0  0  0  0  0
    6.2531   -1.7870    0.0000 H   0  0  0  0  0  0  0  0  0  0  0  0
    5.4712   -2.1837    0.0000 H   0  0  0  0  0  0  0  0  0  0  0  0
    7.5394    0.1832    0.0000 H   0  0  0  0  0  0  0  0  0  0  0  0
    7.3750    0.9632    0.0000 H   0  0  0  0  0  0  0  0  0  0  0  0
    5.5534    3.3758    0.0000 H   0  0  0  0  0  0  0  0  0  0  0  0
    4.9684    3.3278    0.0000 H   0  0  0  0  0  0  0  0  0  0  0  0
    4.3751    2.7955    0.0000 H   0  0  0  0  0  0  0  0  0  0  0  0
    7.8145   -6.4319    0.0000 H   0  0  0  0  0  0  0  0  0  0  0  0
    9.9030   -4.5580    0.0000 H   0  0  0  0  0  0  0  0  0  0  0  0
    6.8848    3.9928    0.0000 H   0  0  0  0  0  0  0  0  0  0  0  0
    5.8819    0.9529    0.0000 H   0  0  0  0  0  0  0  0  0  0  0  0
    9.9598   -3.3246    0.0000 H   0  0  0  0  0  0  0  0  0  0  0  0
    8.8964   -7.6376    0.0000 H   0  0  0  0  0  0  0  0  0  0  0  0
   10.9849   -5.7637    0.0000 H   0  0  0  0  0  0  0  0  0  0  0  0
    4.8709   -0.4411    0.0000 H   0  0  0  0  0  0  0  0  0  0  0  0
    7.8064    2.9656    0.0000 H   0  0  0  0  0  0  0  0  0  0  0  0
    2.8660    2.5729    0.0000 H   0  0  0  0  0  0  0  0  0  0  0  0
    2.8660   -0.6671    0.0000 H   0  0  0  0  0  0  0  0  0  0  0  0
    1.4631    1.7629    0.0000 H   0  0  0  0  0  0  0  0  0  0  0  0
   10.2739   -8.0005    0.0000 H   0  0  0  0  0  0  0  0  0  0  0  0
   11.1494   -8.0479    0.0000 H   0  0  0  0  0  0  0  0  0  0  0  0
   11.1968   -7.1724    0.0000 H   0  0  0  0  0  0  0  0  0  0  0  0
    1.4631    0.1429    0.0000 H   0  0  0  0  0  0  0  0  0  0  0  0
    3.7713    4.5580    0.0000 H   0  0  0  0  0  0  0  0  0  0  0  0
    5.8598    6.4319    0.0000 H   0  0  0  0  0  0  0  0  0  0  0  0
    2.6894    5.7637    0.0000 H   0  0  0  0  0  0  0  0  0  0  0  0
    4.7778    7.6376    0.0000 H   0  0  0  0  0  0  0  0  0  0  0  0
    3.4004    8.0005    0.0000 H   0  0  0  0  0  0  0  0  0  0  0  0
    2.5248    8.0479    0.0000 H   0  0  0  0  0  0  0  0  0  0  0  0
    2.4774    7.1724    0.0000 H   0  0  0  0  0  0  0  0  0  0  0  0
  1  3  2  0  0  0  0
  1  4  2  0  0  0  0
  1  9  1  0  0  0  0
  1 24  1  0  0  0  0
  2  7  2  0  0  0  0
  2  8  2  0  0  0  0
  2 11  1  0  0  0  0
  2 39  1  0  0  0  0
  5 21  1  0  0  0  0
  5 76  1  0  0  0  0
  6 21  2  0  0  0  0
 15  9  1  1  0  0  0
  9 17  1  0  0  0  0
 10 25  1  0  0  0  0
 10 28  2  0  0  0  0
 26 11  1  6  0  0  0
 11 74  1  0  0  0  0
 12 33  1  0  0  0  0
 12 34  1  0  0  0  0
 12 79  1  0  0  0  0
 13 28  1  0  0  0  0
 13 48  1  0  0  0  0
 13 80  1  0  0  0  0
 14 48  3  0  0  0  0
 15 16  1  0  0  0  0
 15 21  1  0  0  0  0
 15 51  1  0  0  0  0
 16 19  1  0  0  0  0
 16 52  1  0  0  0  0
 16 53  1  0  0  0  0
 17 18  1  0  0  0  0
 17 54  1  0  0  0  0
 17 55  1  0  0  0  0
 18 22  1  0  0  0  0
 18 23  1  0  0  0  0
 18 56  1  0  0  0  0
 19 20  1  0  0  0  0
 19 57  1  0  0  0  0
 19 58  1  0  0  0  0
 20 25  1  0  0  0  0
 20 59  1  0  0  0  0
 20 60  1  0  0  0  0
 22 61  1  0  0  0  0
 22 62  1  0  0  0  0
 22 63  1  0  0  0  0
 23 64  1  0  0  0  0
 23 65  1  0  0  0  0
 23 66  1  0  0  0  0
 24 30  2  0  0  0  0
 24 31  1  0  0  0  0
 25 67  1  0  0  0  0
 25 68  1  0  0  0  0
 26 27  1  0  0  0  0
 26 28  1  0  0  0  0
 26 69  1  0  0  0  0
 27 29  1  0  0  0  0
 27 70  1  0  0  0  0
 27 71  1  0  0  0  0
 29 32  1  0  0  0  0
 29 34  2  0  0  0  0
 30 35  1  0  0  0  0
 30 72  1  0  0  0  0
 31 36  2  0  0  0  0
 31 73  1  0  0  0  0
 32 33  1  0  0  0  0
 32 38  2  0  0  0  0
 33 40  2  0  0  0  0
 34 75  1  0  0  0  0
 35 37  2  0  0  0  0
 35 77  1  0  0  0  0
 36 37  1  0  0  0  0
 36 78  1  0  0  0  0
 37 41  1  0  0  0  0
 38 42  1  0  0  0  0
 38 81  1  0  0  0  0
 39 44  2  0  0  0  0
 39 45  1  0  0  0  0
 40 43  1  0  0  0  0
 40 82  1  0  0  0  0
 41 84  1  0  0  0  0
 41 85  1  0  0  0  0
 41 86  1  0  0  0  0
 42 43  2  0  0  0  0
 42 83  1  0  0  0  0
 43 87  1  0  0  0  0
 44 46  1  0  0  0  0
 44 88  1  0  0  0  0
 45 47  2  0  0  0  0
 45 89  1  0  0  0  0
 46 49  2  0  0  0  0
 46 90  1  0  0  0  0
 47 49  1  0  0  0  0
 47 91  1  0  0  0  0
 49 50  1  0  0  0  0
 50 92  1  0  0  0  0
 50 93  1  0  0  0  0
 50 94  1  0  0  0  0
M  END
> <PUBCHEM_COMPOUND_CID>
508624
> <PUBCHEM_COMPOUND_CANONICALIZED>
1
> <PUBCHEM_CACTVS_COMPLEXITY>
1390
> <PUBCHEM_CACTVS_HBOND_ACCEPTOR>
10
> <PUBCHEM_CACTVS_HBOND_DONOR>
4
> <PUBCHEM_CACTVS_ROTATABLE_BOND>
18
> <PUBCHEM_CACTVS_SUBSKEYS>
AAADcfB/uABgAAAAAAAAAAAAAAAAAWAAAAAwYMAAAAAAAFgB9AAAHgQQSAAADSjB3gQ/yfLJkgK4Azb3bHDCgDExAiAJ2bm4ZJgKYPLAkbGUYAhkkADYyAeYyMAOkAAAAAACAAAgAAAAAAQAAAAAAAAAAA==
> <PUBCHEM_IUPAC_OPENEYE_NAME>
(2S)-6-[[(2S)-1-(cyanoamino)-3-(1H-indol-3-yl)-2-(p-tolylsulfonylamino)propylidene]amino]-2-[isobutyl(p-tolylsulfonyl)amino]hexanoic acid
> <PUBCHEM_IUPAC_CAS_NAME>
(2S)-6-[[(2S)-1-(cyanoamino)-3-(1H-indol-3-yl)-2-[(4-methylphenyl)sulfonylamino]propylidene]amino]-2-[(4-methylphenyl)sulfonyl-(2-methylpropyl)amino]hexanoic acid
> <PUBCHEM_IUPAC_NAME_MARKUP>
(2<I>S</I>)-6-[[(2<I>S</I>)-1-(cyanoamino)-3-(1<I>H</I>-indol-3-yl)-2-[(4-methylphenyl)sulfonylamino]propylidene]amino]-2-[(4-methylphenyl)sulfonyl-(2-methylpropyl)amino]hexanoic acid
> <PUBCHEM_IUPAC_NAME>
(2S)-6-[[(2S)-1-(cyanoamino)-3-(1H-indol-3-yl)-2-[(4-methylphenyl)sulfonylamino]propylidene]amino]-2-[(4-methylphenyl)sulfonyl-(2-methylpropyl)amino]hexanoic acid
> <PUBCHEM_IUPAC_SYSTEMATIC_NAME>
(2S)-6-[[(2S)-1-(cyanoamino)-3-(1H-indol-3-yl)-2-[(4-methylphenyl)sulfonylamino]propylidene]amino]-2-[(4-methylphenyl)sulfonyl-(2-methylpropyl)amino]hexanoic acid
> <PUBCHEM_IUPAC_TRADITIONAL_NAME>
(2S)-6-[[(2S)-1-(cyanoamino)-3-(1H-indol-3-yl)-2-(tosylamino)propylidene]amino]-2-[isobutyl(tosyl)amino]hexanoic acid
> <PUBCHEM_IUPAC_INCHI>
InChI=1S/C36H44N6O6S2/c1-25(2)23-42(50(47,48)30-18-14-27(4)15-19-30)34(36(43)44)11-7-8-20-38-35(40-24-37)33(21-28-22-39-32-10-6-5-9-31(28)32)41-49(45,46)29-16-12-26(3)13-17-29/h5-6,9-10,12-19,22,25,33-34,39,41H,7-8,11,20-21,23H2,1-4H3,(H,38,40)(H,43,44)/t33-,34-/m0/s1
> <PUBCHEM_IUPAC_INCHIKEY>
MUDDHKLDTOEFRC-HEVIKAOCSA-N
> <PUBCHEM_XLOGP3_AA>
6.1
> <PUBCHEM_EXACT_MASS>
720.27637549
> <PUBCHEM_MOLECULAR_FORMULA>
C36H44N6O6S2
> <PUBCHEM_MOLECULAR_WEIGHT>
720.9
> <PUBCHEM_OPENEYE_CAN_SMILES>
CC1=CC=C(C=C1)S(=O)(=O)NC(CC2=CNC3=CC=CC=C32)C(=NCCCCC(C(=O)O)N(CC(C)C)S(=O)(=O)C4=CC=C(C=C4)C)NC#N
> <PUBCHEM_OPENEYE_ISO_SMILES>
CC1=CC=C(C=C1)S(=O)(=O)N[C@@H](CC2=CNC3=CC=CC=C32)C(=NCCCC[C@@H](C(=O)O)N(CC(C)C)S(=O)(=O)C4=CC=C(C=C4)C)NC#N
> <PUBCHEM_CACTVS_TPSA>
202
> <PUBCHEM_MONOISOTOPIC_WEIGHT>
720.27637549
> <PUBCHEM_TOTAL_CHARGE>
0
> <PUBCHEM_HEAVY_ATOM_COUNT>
50
> <PUBCHEM_ATOM_DEF_STEREO_COUNT>
2
> <PUBCHEM_ATOM_UDEF_STEREO_COUNT>
0
> <PUBCHEM_BOND_DEF_STEREO_COUNT>
0
> <PUBCHEM_BOND_UDEF_STEREO_COUNT>
0
> <PUBCHEM_ISOTOPIC_ATOM_COUNT>
0
> <PUBCHEM_COMPONENT_COUNT>
1
> <PUBCHEM_CACTVS_TAUTO_COUNT>
-1
> <PUBCHEM_COORDINATE_TYPE>
1
5
255
> <PUBCHEM_BONDANNOTATIONS>
26  11  6
12  33  8
12  34  8
24  30  8
24  31  8
29  32  8
29  34  8
30  35  8
31  36  8
32  33  8
32  38  8
33  40  8
35  37  8
36  37  8
38  42  8
39  44  8
39  45  8
40  43  8
42  43  8
44  46  8
45  47  8
46  49  8
47  49  8
15  9  5
$$$$
