508689
  -OEChem-10302200282D
 89 92  0     1  0  0  0  0  0999 V2000
    9.3532   -3.4671    0.0000 S   0  0  0  0  0  0  0  0  0  0  0  0
    5.6103    4.5945    0.0000 S   0  0  0  0  0  0  0  0  0  0  0  0
   10.6423   -2.3104    0.0000 O   0  0  0  0  0  0  0  0  0  0  0  0
    8.6089   -4.1350    0.0000 O   0  0  0  0  0  0  0  0  0  0  0  0
   10.0975   -2.7993    0.0000 O   0  0  0  0  0  0  0  0  0  0  0  0
    6.3246    1.2049    0.0000 O   0  0  0  0  0  0  0  0  0  0  0  0
    6.3546    5.2624    0.0000 O   0  0  0  0  0  0  0  0  0  0  0  0
    4.8660    3.9267    0.0000 O   0  0  0  0  0  0  0  0  0  0  0  0
    8.6853   -2.7228    0.0000 N   0  0  3  0  0  0  0  0  0  0  0  0
    7.6138    2.3616    0.0000 N   0  0  0  0  0  0  0  0  0  0  0  0
    6.2781    3.8502    0.0000 N   0  0  0  0  0  0  0  0  0  0  0  0
    4.6783    0.1335    0.0000 N   0  0  0  0  0  0  0  0  0  0  0  0
   12.0246   -6.4443    0.0000 N   0  0  0  0  0  0  0  0  0  0  0  0
    8.9960   -1.7723    0.0000 C   0  0  1  0  0  0  0  0  0  0  0  0
    8.3282   -1.0280    0.0000 C   0  0  0  0  0  0  0  0  0  0  0  0
    7.7068   -2.9290    0.0000 C   0  0  0  0  0  0  0  0  0  0  0  0
    8.6388   -0.0775    0.0000 C   0  0  0  0  0  0  0  0  0  0  0  0
    7.0390   -2.1848    0.0000 C   0  0  0  0  0  0  0  0  0  0  0  0
    9.9745   -1.5661    0.0000 C   0  0  0  0  0  0  0  0  0  0  0  0
    7.9710    0.6668    0.0000 C   0  0  0  0  0  0  0  0  0  0  0  0
    8.2816    1.6173    0.0000 C   0  0  0  0  0  0  0  0  0  0  0  0
   10.0210   -4.2114    0.0000 C   0  0  0  0  0  0  0  0  0  0  0  0
    6.0605   -2.3910    0.0000 C   0  0  0  0  0  0  0  0  0  0  0  0
    7.3496   -1.2342    0.0000 C   0  0  0  0  0  0  0  0  0  0  0  0
    5.9674    2.8997    0.0000 C   0  0  1  0  0  0  0  0  0  0  0  0
    4.9889    2.6935    0.0000 C   0  0  0  0  0  0  0  0  0  0  0  0
    6.6353    2.1554    0.0000 C   0  0  0  0  0  0  0  0  0  0  0  0
    9.7104   -5.1620    0.0000 C   0  0  0  0  0  0  0  0  0  0  0  0
   10.9995   -4.0052    0.0000 C   0  0  0  0  0  0  0  0  0  0  0  0
    4.6783    1.7430    0.0000 C   0  0  0  0  0  0  0  0  0  0  0  0
    3.7320    1.4382    0.0000 C   0  0  0  0  0  0  0  0  0  0  0  0
   10.3782   -5.9063    0.0000 C   0  0  0  0  0  0  0  0  0  0  0  0
   11.6674   -4.7495    0.0000 C   0  0  0  0  0  0  0  0  0  0  0  0
    3.7320    0.4382    0.0000 C   0  0  0  0  0  0  0  0  0  0  0  0
    5.2619    0.9382    0.0000 C   0  0  0  0  0  0  0  0  0  0  0  0
   11.3567   -5.7000    0.0000 C   0  0  0  0  0  0  0  0  0  0  0  0
    2.8660    1.9382    0.0000 C   0  0  0  0  0  0  0  0  0  0  0  0
    4.9424    5.3388    0.0000 C   0  0  0  0  0  0  0  0  0  0  0  0
    2.8660   -0.0618    0.0000 C   0  0  0  0  0  0  0  0  0  0  0  0
    2.0000    1.4382    0.0000 C   0  0  0  0  0  0  0  0  0  0  0  0
    2.0000    0.4382    0.0000 C   0  0  0  0  0  0  0  0  0  0  0  0
    5.2531    6.2894    0.0000 C   0  0  0  0  0  0  0  0  0  0  0  0
    3.9639    5.1326    0.0000 C   0  0  0  0  0  0  0  0  0  0  0  0
    4.5852    7.0337    0.0000 C   0  0  0  0  0  0  0  0  0  0  0  0
    3.2961    5.8769    0.0000 C   0  0  0  0  0  0  0  0  0  0  0  0
    3.6067    6.8274    0.0000 C   0  0  0  0  0  0  0  0  0  0  0  0
    9.4101   -2.2338    0.0000 H   0  0  0  0  0  0  0  0  0  0  0  0
    7.7812   -0.7360    0.0000 H   0  0  0  0  0  0  0  0  0  0  0  0
    7.9456   -1.5159    0.0000 H   0  0  0  0  0  0  0  0  0  0  0  0
    7.1805   -3.2567    0.0000 H   0  0  0  0  0  0  0  0  0  0  0  0
    7.9381   -3.5043    0.0000 H   0  0  0  0  0  0  0  0  0  0  0  0
    9.1857   -0.3695    0.0000 H   0  0  0  0  0  0  0  0  0  0  0  0
    9.0214    0.4104    0.0000 H   0  0  0  0  0  0  0  0  0  0  0  0
    7.6457   -2.0569    0.0000 H   0  0  0  0  0  0  0  0  0  0  0  0
   10.5009   -1.2384    0.0000 H   0  0  0  0  0  0  0  0  0  0  0  0
    9.7432   -0.9908    0.0000 H   0  0  0  0  0  0  0  0  0  0  0  0
    7.4240    0.9588    0.0000 H   0  0  0  0  0  0  0  0  0  0  0  0
    7.5884    0.1789    0.0000 H   0  0  0  0  0  0  0  0  0  0  0  0
    8.8286    1.3253    0.0000 H   0  0  0  0  0  0  0  0  0  0  0  0
    8.6642    2.1052    0.0000 H   0  0  0  0  0  0  0  0  0  0  0  0
    5.9326   -1.7843    0.0000 H   0  0  0  0  0  0  0  0  0  0  0  0
    5.4538   -2.5188    0.0000 H   0  0  0  0  0  0  0  0  0  0  0  0
    6.1883   -2.9976    0.0000 H   0  0  0  0  0  0  0  0  0  0  0  0
    7.9390   -1.4268    0.0000 H   0  0  0  0  0  0  0  0  0  0  0  0
    7.5423   -0.6449    0.0000 H   0  0  0  0  0  0  0  0  0  0  0  0
    6.7603   -1.0416    0.0000 H   0  0  0  0  0  0  0  0  0  0  0  0
    5.5534    3.3612    0.0000 H   0  0  0  0  0  0  0  0  0  0  0  0
    7.8064    2.9510    0.0000 H   0  0  0  0  0  0  0  0  0  0  0  0
    4.9684    3.3132    0.0000 H   0  0  0  0  0  0  0  0  0  0  0  0
    4.3751    2.7808    0.0000 H   0  0  0  0  0  0  0  0  0  0  0  0
   11.2490   -2.1825    0.0000 H   0  0  0  0  0  0  0  0  0  0  0  0
    9.1037   -5.2898    0.0000 H   0  0  0  0  0  0  0  0  0  0  0  0
   11.1921   -3.4159    0.0000 H   0  0  0  0  0  0  0  0  0  0  0  0
    6.8848    3.9781    0.0000 H   0  0  0  0  0  0  0  0  0  0  0  0
   10.1856   -6.4956    0.0000 H   0  0  0  0  0  0  0  0  0  0  0  0
   12.2740   -4.6217    0.0000 H   0  0  0  0  0  0  0  0  0  0  0  0
    5.8819    0.9382    0.0000 H   0  0  0  0  0  0  0  0  0  0  0  0
    4.8709   -0.4558    0.0000 H   0  0  0  0  0  0  0  0  0  0  0  0
    2.8660    2.5582    0.0000 H   0  0  0  0  0  0  0  0  0  0  0  0
    2.8660   -0.6818    0.0000 H   0  0  0  0  0  0  0  0  0  0  0  0
    1.4631    1.7482    0.0000 H   0  0  0  0  0  0  0  0  0  0  0  0
    1.4631    0.1282    0.0000 H   0  0  0  0  0  0  0  0  0  0  0  0
   11.8319   -7.0337    0.0000 H   0  0  0  0  0  0  0  0  0  0  0  0
   12.6312   -6.3165    0.0000 H   0  0  0  0  0  0  0  0  0  0  0  0
    5.8598    6.4172    0.0000 H   0  0  0  0  0  0  0  0  0  0  0  0
    3.7713    4.5433    0.0000 H   0  0  0  0  0  0  0  0  0  0  0  0
    4.7778    7.6230    0.0000 H   0  0  0  0  0  0  0  0  0  0  0  0
    2.6894    5.7491    0.0000 H   0  0  0  0  0  0  0  0  0  0  0  0
    3.1927    7.2889    0.0000 H   0  0  0  0  0  0  0  0  0  0  0  0
  1  4  2  0  0  0  0
  1  5  2  0  0  0  0
  1  9  1  0  0  0  0
  1 22  1  0  0  0  0
  2  7  2  0  0  0  0
  2  8  2  0  0  0  0
  2 11  1  0  0  0  0
  2 38  1  0  0  0  0
  3 19  1  0  0  0  0
  3 71  1  0  0  0  0
  6 27  2  0  0  0  0
 14  9  1  1  0  0  0
  9 16  1  0  0  0  0
 10 21  1  0  0  0  0
 10 27  1  0  0  0  0
 10 68  1  0  0  0  0
 25 11  1  6  0  0  0
 11 74  1  0  0  0  0
 12 34  1  0  0  0  0
 12 35  1  0  0  0  0
 12 78  1  0  0  0  0
 13 36  1  0  0  0  0
 13 83  1  0  0  0  0
 13 84  1  0  0  0  0
 14 15  1  0  0  0  0
 14 19  1  0  0  0  0
 14 47  1  0  0  0  0
 15 17  1  0  0  0  0
 15 48  1  0  0  0  0
 15 49  1  0  0  0  0
 16 18  1  0  0  0  0
 16 50  1  0  0  0  0
 16 51  1  0  0  0  0
 17 20  1  0  0  0  0
 17 52  1  0  0  0  0
 17 53  1  0  0  0  0
 18 23  1  0  0  0  0
 18 24  1  0  0  0  0
 18 54  1  0  0  0  0
 19 55  1  0  0  0  0
 19 56  1  0  0  0  0
 20 21  1  0  0  0  0
 20 57  1  0  0  0  0
 20 58  1  0  0  0  0
 21 59  1  0  0  0  0
 21 60  1  0  0  0  0
 22 28  2  0  0  0  0
 22 29  1  0  0  0  0
 23 61  1  0  0  0  0
 23 62  1  0  0  0  0
 23 63  1  0  0  0  0
 24 64  1  0  0  0  0
 24 65  1  0  0  0  0
 24 66  1  0  0  0  0
 25 26  1  0  0  0  0
 25 27  1  0  0  0  0
 25 67  1  0  0  0  0
 26 30  1  0  0  0  0
 26 69  1  0  0  0  0
 26 70  1  0  0  0  0
 28 32  1  0  0  0  0
 28 72  1  0  0  0  0
 29 33  2  0  0  0  0
 29 73  1  0  0  0  0
 30 31  1  0  0  0  0
 30 35  2  0  0  0  0
 31 34  1  0  0  0  0
 31 37  2  0  0  0  0
 32 36  2  0  0  0  0
 32 75  1  0  0  0  0
 33 36  1  0  0  0  0
 33 76  1  0  0  0  0
 34 39  2  0  0  0  0
 35 77  1  0  0  0  0
 37 40  1  0  0  0  0
 37 79  1  0  0  0  0
 38 42  2  0  0  0  0
 38 43  1  0  0  0  0
 39 41  1  0  0  0  0
 39 80  1  0  0  0  0
 40 41  2  0  0  0  0
 40 81  1  0  0  0  0
 41 82  1  0  0  0  0
 42 44  1  0  0  0  0
 42 85  1  0  0  0  0
 43 45  2  0  0  0  0
 43 86  1  0  0  0  0
 44 46  2  0  0  0  0
 44 87  1  0  0  0  0
 45 46  1  0  0  0  0
 45 88  1  0  0  0  0
 46 89  1  0  0  0  0
M  END
> <PUBCHEM_COMPOUND_CID>
508689
> <PUBCHEM_COMPOUND_CANONICALIZED>
1
> <PUBCHEM_CACTVS_COMPLEXITY>
1140
> <PUBCHEM_CACTVS_HBOND_ACCEPTOR>
9
> <PUBCHEM_CACTVS_HBOND_DONOR>
5
> <PUBCHEM_CACTVS_ROTATABLE_BOND>
17
> <PUBCHEM_CACTVS_SUBSKEYS>
AAADcfB/uABgAAAAAAAAAAAAAAAAAWAAAAAwYMAAAAAAAFgB9AAAHgQQSAAADSjh3gY+wfLJkgKoAzV3VHDCgDAxAiAI2bm4ZJgKcPLAkZGUYAhklgDYyAeYycCOgAQAAAACAAAACAAAAAQAAAAAAAAAAA==
> <PUBCHEM_IUPAC_OPENEYE_NAME>
(2S)-N-[(5S)-5-[(4-aminophenyl)sulfonyl-isobutyl-amino]-6-hydroxy-hexyl]-2-(benzenesulfonamido)-3-(1H-indol-3-yl)propanamide
> <PUBCHEM_IUPAC_CAS_NAME>
(2S)-N-[(5S)-5-[(4-aminophenyl)sulfonyl-(2-methylpropyl)amino]-6-hydroxyhexyl]-2-(benzenesulfonamido)-3-(1H-indol-3-yl)propanamide
> <PUBCHEM_IUPAC_NAME_MARKUP>
(2<I>S</I>)-<I>N</I>-[(5<I>S</I>)-5-[(4-aminophenyl)sulfonyl-(2-methylpropyl)amino]-6-hydroxyhexyl]-2-(benzenesulfonamido)-3-(1<I>H</I>-indol-3-yl)propanamide
> <PUBCHEM_IUPAC_NAME>
(2S)-N-[(5S)-5-[(4-aminophenyl)sulfonyl-(2-methylpropyl)amino]-6-hydroxyhexyl]-2-(benzenesulfonamido)-3-(1H-indol-3-yl)propanamide
> <PUBCHEM_IUPAC_SYSTEMATIC_NAME>
(2S)-N-[(5S)-5-[(4-aminophenyl)sulfonyl-(2-methylpropyl)amino]-6-oxidanyl-hexyl]-3-(1H-indol-3-yl)-2-(phenylsulfonylamino)propanamide
> <PUBCHEM_IUPAC_TRADITIONAL_NAME>
(2S)-2-(benzenesulfonamido)-N-[(5S)-6-hydroxy-5-[isobutyl(sulfanilyl)amino]hexyl]-3-(1H-indol-3-yl)propionamide
> <PUBCHEM_IUPAC_INCHI>
InChI=1S/C33H43N5O6S2/c1-24(2)22-38(46(43,44)29-17-15-26(34)16-18-29)27(23-39)10-8-9-19-35-33(40)32(37-45(41,42)28-11-4-3-5-12-28)20-25-21-36-31-14-7-6-13-30(25)31/h3-7,11-18,21,24,27,32,36-37,39H,8-10,19-20,22-23,34H2,1-2H3,(H,35,40)/t27-,32-/m0/s1
> <PUBCHEM_IUPAC_INCHIKEY>
NKSGQOYRTKCUEW-UCGGBYDDSA-N
> <PUBCHEM_XLOGP3_AA>
4.3
> <PUBCHEM_EXACT_MASS>
669.26547646
> <PUBCHEM_MOLECULAR_FORMULA>
C33H43N5O6S2
> <PUBCHEM_MOLECULAR_WEIGHT>
669.9
> <PUBCHEM_OPENEYE_CAN_SMILES>
CC(C)CN(C(CCCCNC(=O)C(CC1=CNC2=CC=CC=C21)NS(=O)(=O)C3=CC=CC=C3)CO)S(=O)(=O)C4=CC=C(C=C4)N
> <PUBCHEM_OPENEYE_ISO_SMILES>
CC(C)CN([C@@H](CCCCNC(=O)[C@H](CC1=CNC2=CC=CC=C21)NS(=O)(=O)C3=CC=CC=C3)CO)S(=O)(=O)C4=CC=C(C=C4)N
> <PUBCHEM_CACTVS_TPSA>
191
> <PUBCHEM_MONOISOTOPIC_WEIGHT>
669.26547646
> <PUBCHEM_TOTAL_CHARGE>
0
> <PUBCHEM_HEAVY_ATOM_COUNT>
46
> <PUBCHEM_ATOM_DEF_STEREO_COUNT>
2
> <PUBCHEM_ATOM_UDEF_STEREO_COUNT>
0
> <PUBCHEM_BOND_DEF_STEREO_COUNT>
0
> <PUBCHEM_BOND_UDEF_STEREO_COUNT>
0
> <PUBCHEM_ISOTOPIC_ATOM_COUNT>
0
> <PUBCHEM_COMPONENT_COUNT>
1
> <PUBCHEM_CACTVS_TAUTO_COUNT>
-1
> <PUBCHEM_COORDINATE_TYPE>
1
5
255
> <PUBCHEM_BONDANNOTATIONS>
25  11  6
12  34  8
12  35  8
22  28  8
22  29  8
28  32  8
29  33  8
30  31  8
30  35  8
31  34  8
31  37  8
32  36  8
33  36  8
34  39  8
37  40  8
38  42  8
38  43  8
39  41  8
40  41  8
42  44  8
43  45  8
44  46  8
45  46  8
14  9  5
$$$$
