508639
  -OEChem-10302200282D
 91 93  0     1  0  0  0  0  0999 V2000
   13.2207   -1.7576    0.0000 S   0  0  0  0  0  0  0  0  0  0  0  0
   10.2852   -2.3763    0.0000 O   0  0  0  0  0  0  0  0  0  0  0  0
   13.9650   -1.0898    0.0000 O   0  0  0  0  0  0  0  0  0  0  0  0
   12.4764   -2.4255    0.0000 O   0  0  0  0  0  0  0  0  0  0  0  0
    6.3246   -0.5558    0.0000 O   0  0  0  0  0  0  0  0  0  0  0  0
    4.6318    2.6276    0.0000 O   0  0  0  0  0  0  0  0  0  0  0  0
   12.5528   -1.0133    0.0000 N   0  0  3  0  0  0  0  0  0  0  0  0
    7.6138    0.6009    0.0000 N   0  0  0  0  0  0  0  0  0  0  0  0
    6.2781    2.0895    0.0000 N   0  0  0  0  0  0  0  0  0  0  0  0
    4.6783   -1.6272    0.0000 N   0  0  0  0  0  0  0  0  0  0  0  0
   11.5743   -1.2196    0.0000 C   0  0  1  0  0  0  0  0  0  0  0  0
   10.9065   -0.4753    0.0000 C   0  0  0  0  0  0  0  0  0  0  0  0
   12.8635   -0.0628    0.0000 C   0  0  0  0  0  0  0  0  0  0  0  0
    9.9280   -0.6815    0.0000 C   0  0  0  0  0  0  0  0  0  0  0  0
   12.1957    0.6815    0.0000 C   0  0  0  0  0  0  0  0  0  0  0  0
   11.2637   -2.1701    0.0000 C   0  0  0  0  0  0  0  0  0  0  0  0
    9.2601    0.0628    0.0000 C   0  0  0  0  0  0  0  0  0  0  0  0
    8.2816   -0.1434    0.0000 C   0  0  0  0  0  0  0  0  0  0  0  0
   13.8885   -2.5020    0.0000 C   0  0  0  0  0  0  0  0  0  0  0  0
   12.5063    1.6320    0.0000 C   0  0  0  0  0  0  0  0  0  0  0  0
   11.2171    0.4753    0.0000 C   0  0  0  0  0  0  0  0  0  0  0  0
    5.9674    1.1390    0.0000 C   0  0  1  0  0  0  0  0  0  0  0  0
    4.9889    0.9328    0.0000 C   0  0  0  0  0  0  0  0  0  0  0  0
    6.6353    0.3947    0.0000 C   0  0  0  0  0  0  0  0  0  0  0  0
    5.9209    3.7843    0.0000 C   0  0  0  0  0  0  0  0  0  0  0  0
   13.5779   -3.4525    0.0000 C   0  0  0  0  0  0  0  0  0  0  0  0
   14.8670   -2.2957    0.0000 C   0  0  0  0  0  0  0  0  0  0  0  0
    4.6783   -0.0178    0.0000 C   0  0  0  0  0  0  0  0  0  0  0  0
    5.6103    2.8338    0.0000 C   0  0  0  0  0  0  0  0  0  0  0  0
    3.7320   -0.3225    0.0000 C   0  0  0  0  0  0  0  0  0  0  0  0
   14.2457   -4.1968    0.0000 C   0  0  0  0  0  0  0  0  0  0  0  0
   15.5349   -3.0400    0.0000 C   0  0  0  0  0  0  0  0  0  0  0  0
    6.2316    4.7348    0.0000 C   0  0  0  0  0  0  0  0  0  0  0  0
    4.9704    4.0950    0.0000 C   0  0  0  0  0  0  0  0  0  0  0  0
    6.8714    3.4737    0.0000 C   0  0  0  0  0  0  0  0  0  0  0  0
   15.2242   -3.9906    0.0000 C   0  0  0  0  0  0  0  0  0  0  0  0
    5.2619   -0.8225    0.0000 C   0  0  0  0  0  0  0  0  0  0  0  0
    3.7320   -1.3225    0.0000 C   0  0  0  0  0  0  0  0  0  0  0  0
    2.8660    0.1775    0.0000 C   0  0  0  0  0  0  0  0  0  0  0  0
    2.8660   -1.8225    0.0000 C   0  0  0  0  0  0  0  0  0  0  0  0
   15.8921   -4.7348    0.0000 C   0  0  0  0  0  0  0  0  0  0  0  0
    2.0000   -0.3225    0.0000 C   0  0  0  0  0  0  0  0  0  0  0  0
    2.0000   -1.3225    0.0000 C   0  0  0  0  0  0  0  0  0  0  0  0
   11.7669   -0.6302    0.0000 H   0  0  0  0  0  0  0  0  0  0  0  0
   11.4328   -0.1476    0.0000 H   0  0  0  0  0  0  0  0  0  0  0  0
   10.6752    0.1000    0.0000 H   0  0  0  0  0  0  0  0  0  0  0  0
   13.4104   -0.3548    0.0000 H   0  0  0  0  0  0  0  0  0  0  0  0
   13.2461    0.4251    0.0000 H   0  0  0  0  0  0  0  0  0  0  0  0
    9.4016   -1.0091    0.0000 H   0  0  0  0  0  0  0  0  0  0  0  0
   10.1592   -1.2567    0.0000 H   0  0  0  0  0  0  0  0  0  0  0  0
   12.0030    0.0922    0.0000 H   0  0  0  0  0  0  0  0  0  0  0  0
   11.2842   -2.7897    0.0000 H   0  0  0  0  0  0  0  0  0  0  0  0
   11.8775   -2.2574    0.0000 H   0  0  0  0  0  0  0  0  0  0  0  0
    9.7865    0.3905    0.0000 H   0  0  0  0  0  0  0  0  0  0  0  0
    9.0289    0.6381    0.0000 H   0  0  0  0  0  0  0  0  0  0  0  0
    7.7553   -0.4710    0.0000 H   0  0  0  0  0  0  0  0  0  0  0  0
    8.5129   -0.7187    0.0000 H   0  0  0  0  0  0  0  0  0  0  0  0
   13.0956    1.4394    0.0000 H   0  0  0  0  0  0  0  0  0  0  0  0
   12.6989    2.2213    0.0000 H   0  0  0  0  0  0  0  0  0  0  0  0
   11.9170    1.8246    0.0000 H   0  0  0  0  0  0  0  0  0  0  0  0
   11.0893    1.0819    0.0000 H   0  0  0  0  0  0  0  0  0  0  0  0
   10.6105    0.3474    0.0000 H   0  0  0  0  0  0  0  0  0  0  0  0
   11.3450   -0.1314    0.0000 H   0  0  0  0  0  0  0  0  0  0  0  0
    5.5534    1.6005    0.0000 H   0  0  0  0  0  0  0  0  0  0  0  0
    7.8064    1.1902    0.0000 H   0  0  0  0  0  0  0  0  0  0  0  0
    4.9684    1.5524    0.0000 H   0  0  0  0  0  0  0  0  0  0  0  0
    4.3751    1.0201    0.0000 H   0  0  0  0  0  0  0  0  0  0  0  0
   10.0926   -2.9656    0.0000 H   0  0  0  0  0  0  0  0  0  0  0  0
   12.9712   -3.5803    0.0000 H   0  0  0  0  0  0  0  0  0  0  0  0
   15.0596   -1.7064    0.0000 H   0  0  0  0  0  0  0  0  0  0  0  0
    6.8848    2.2174    0.0000 H   0  0  0  0  0  0  0  0  0  0  0  0
   14.0531   -4.7861    0.0000 H   0  0  0  0  0  0  0  0  0  0  0  0
   16.1415   -2.9122    0.0000 H   0  0  0  0  0  0  0  0  0  0  0  0
    6.8209    4.5422    0.0000 H   0  0  0  0  0  0  0  0  0  0  0  0
    6.4242    5.3242    0.0000 H   0  0  0  0  0  0  0  0  0  0  0  0
    5.6423    4.9275    0.0000 H   0  0  0  0  0  0  0  0  0  0  0  0
    5.1630    4.6843    0.0000 H   0  0  0  0  0  0  0  0  0  0  0  0
    4.3811    4.2876    0.0000 H   0  0  0  0  0  0  0  0  0  0  0  0
    4.7778    3.5057    0.0000 H   0  0  0  0  0  0  0  0  0  0  0  0
    6.6788    2.8844    0.0000 H   0  0  0  0  0  0  0  0  0  0  0  0
    7.4608    3.2811    0.0000 H   0  0  0  0  0  0  0  0  0  0  0  0
    7.0640    4.0630    0.0000 H   0  0  0  0  0  0  0  0  0  0  0  0
    5.8819   -0.8225    0.0000 H   0  0  0  0  0  0  0  0  0  0  0  0
    4.8709   -2.2165    0.0000 H   0  0  0  0  0  0  0  0  0  0  0  0
    2.8660    0.7975    0.0000 H   0  0  0  0  0  0  0  0  0  0  0  0
    2.8660   -2.4425    0.0000 H   0  0  0  0  0  0  0  0  0  0  0  0
   15.4306   -5.1489    0.0000 H   0  0  0  0  0  0  0  0  0  0  0  0
   16.3061   -5.1963    0.0000 H   0  0  0  0  0  0  0  0  0  0  0  0
   16.3535   -4.3208    0.0000 H   0  0  0  0  0  0  0  0  0  0  0  0
    1.4631   -0.0125    0.0000 H   0  0  0  0  0  0  0  0  0  0  0  0
    1.4631   -1.6325    0.0000 H   0  0  0  0  0  0  0  0  0  0  0  0
  1  3  2  0  0  0  0
  1  4  2  0  0  0  0
  1  7  1  0  0  0  0
  1 19  1  0  0  0  0
  2 16  1  0  0  0  0
  2 68  1  0  0  0  0
  5 24  2  0  0  0  0
  6 29  2  0  0  0  0
 11  7  1  6  0  0  0
  7 13  1  0  0  0  0
  8 18  1  0  0  0  0
  8 24  1  0  0  0  0
  8 65  1  0  0  0  0
 22  9  1  6  0  0  0
  9 29  1  0  0  0  0
  9 71  1  0  0  0  0
 10 37  1  0  0  0  0
 10 38  1  0  0  0  0
 10 84  1  0  0  0  0
 11 12  1  0  0  0  0
 11 16  1  0  0  0  0
 11 44  1  0  0  0  0
 12 14  1  0  0  0  0
 12 45  1  0  0  0  0
 12 46  1  0  0  0  0
 13 15  1  0  0  0  0
 13 47  1  0  0  0  0
 13 48  1  0  0  0  0
 14 17  1  0  0  0  0
 14 49  1  0  0  0  0
 14 50  1  0  0  0  0
 15 20  1  0  0  0  0
 15 21  1  0  0  0  0
 15 51  1  0  0  0  0
 16 52  1  0  0  0  0
 16 53  1  0  0  0  0
 17 18  1  0  0  0  0
 17 54  1  0  0  0  0
 17 55  1  0  0  0  0
 18 56  1  0  0  0  0
 18 57  1  0  0  0  0
 19 26  2  0  0  0  0
 19 27  1  0  0  0  0
 20 58  1  0  0  0  0
 20 59  1  0  0  0  0
 20 60  1  0  0  0  0
 21 61  1  0  0  0  0
 21 62  1  0  0  0  0
 21 63  1  0  0  0  0
 22 23  1  0  0  0  0
 22 24  1  0  0  0  0
 22 64  1  0  0  0  0
 23 28  1  0  0  0  0
 23 66  1  0  0  0  0
 23 67  1  0  0  0  0
 25 29  1  0  0  0  0
 25 33  1  0  0  0  0
 25 34  1  0  0  0  0
 25 35  1  0  0  0  0
 26 31  1  0  0  0  0
 26 69  1  0  0  0  0
 27 32  2  0  0  0  0
 27 70  1  0  0  0  0
 28 30  1  0  0  0  0
 28 37  2  0  0  0  0
 30 38  1  0  0  0  0
 30 39  2  0  0  0  0
 31 36  2  0  0  0  0
 31 72  1  0  0  0  0
 32 36  1  0  0  0  0
 32 73  1  0  0  0  0
 33 74  1  0  0  0  0
 33 75  1  0  0  0  0
 33 76  1  0  0  0  0
 34 77  1  0  0  0  0
 34 78  1  0  0  0  0
 34 79  1  0  0  0  0
 35 80  1  0  0  0  0
 35 81  1  0  0  0  0
 35 82  1  0  0  0  0
 36 41  1  0  0  0  0
 37 83  1  0  0  0  0
 38 40  2  0  0  0  0
 39 42  1  0  0  0  0
 39 85  1  0  0  0  0
 40 43  1  0  0  0  0
 40 86  1  0  0  0  0
 41 87  1  0  0  0  0
 41 88  1  0  0  0  0
 41 89  1  0  0  0  0
 42 43  2  0  0  0  0
 42 90  1  0  0  0  0
 43 91  1  0  0  0  0
M  END
> <PUBCHEM_COMPOUND_CID>
508639
> <PUBCHEM_COMPOUND_CANONICALIZED>
1
> <PUBCHEM_CACTVS_COMPLEXITY>
984
> <PUBCHEM_CACTVS_HBOND_ACCEPTOR>
6
> <PUBCHEM_CACTVS_HBOND_DONOR>
4
> <PUBCHEM_CACTVS_ROTATABLE_BOND>
16
> <PUBCHEM_CACTVS_SUBSKEYS>
AAADcfB/uABAAAAAAAAAAAAAAAAAAWAAAAAwYAAAAAAAAFgB9AAAHgQQSAAADyjh3gY+wfLJkgKoAzV3VHDCgDAxAiAI2bm4ZJgKcPLAkbGUYAhklgDYyAeYycCOkAAAAAACAAAgAAAAAAQAAAAAAAAAAA==
> <PUBCHEM_IUPAC_OPENEYE_NAME>
N-[(1S)-2-[[(5S)-6-hydroxy-5-[isobutyl(p-tolylsulfonyl)amino]hexyl]amino]-1-(1H-indol-3-ylmethyl)-2-oxo-ethyl]-2,2-dimethyl-propanamide
> <PUBCHEM_IUPAC_CAS_NAME>
N-[(2S)-1-[[(5S)-6-hydroxy-5-[(4-methylphenyl)sulfonyl-(2-methylpropyl)amino]hexyl]amino]-3-(1H-indol-3-yl)-1-oxopropan-2-yl]-2,2-dimethylpropanamide
> <PUBCHEM_IUPAC_NAME_MARKUP>
<I>N</I>-[(2<I>S</I>)-1-[[(5<I>S</I>)-6-hydroxy-5-[(4-methylphenyl)sulfonyl-(2-methylpropyl)amino]hexyl]amino]-3-(1<I>H</I>-indol-3-yl)-1-oxopropan-2-yl]-2,2-dimethylpropanamide
> <PUBCHEM_IUPAC_NAME>
N-[(2S)-1-[[(5S)-6-hydroxy-5-[(4-methylphenyl)sulfonyl-(2-methylpropyl)amino]hexyl]amino]-3-(1H-indol-3-yl)-1-oxopropan-2-yl]-2,2-dimethylpropanamide
> <PUBCHEM_IUPAC_SYSTEMATIC_NAME>
N-[(2S)-3-(1H-indol-3-yl)-1-[[(5S)-5-[(4-methylphenyl)sulfonyl-(2-methylpropyl)amino]-6-oxidanyl-hexyl]amino]-1-oxidanylidene-propan-2-yl]-2,2-dimethyl-propanamide
> <PUBCHEM_IUPAC_TRADITIONAL_NAME>
N-[(1S)-2-[[(5S)-6-hydroxy-5-[isobutyl(tosyl)amino]hexyl]amino]-1-(1H-indol-3-ylmethyl)-2-keto-ethyl]-2,2-dimethyl-propionamide
> <PUBCHEM_IUPAC_INCHI>
InChI=1S/C33H48N4O5S/c1-23(2)21-37(43(41,42)27-16-14-24(3)15-17-27)26(22-38)11-9-10-18-34-31(39)30(36-32(40)33(4,5)6)19-25-20-35-29-13-8-7-12-28(25)29/h7-8,12-17,20,23,26,30,35,38H,9-11,18-19,21-22H2,1-6H3,(H,34,39)(H,36,40)/t26-,30-/m0/s1
> <PUBCHEM_IUPAC_INCHIKEY>
NVGXHNDIRCLGPV-YZNIXAGQSA-N
> <PUBCHEM_XLOGP3_AA>
5.4
> <PUBCHEM_EXACT_MASS>
612.33454182
> <PUBCHEM_MOLECULAR_FORMULA>
C33H48N4O5S
> <PUBCHEM_MOLECULAR_WEIGHT>
612.8
> <PUBCHEM_OPENEYE_CAN_SMILES>
CC1=CC=C(C=C1)S(=O)(=O)N(CC(C)C)C(CCCCNC(=O)C(CC2=CNC3=CC=CC=C32)NC(=O)C(C)(C)C)CO
> <PUBCHEM_OPENEYE_ISO_SMILES>
CC1=CC=C(C=C1)S(=O)(=O)N(CC(C)C)[C@@H](CCCCNC(=O)[C@H](CC2=CNC3=CC=CC=C32)NC(=O)C(C)(C)C)CO
> <PUBCHEM_CACTVS_TPSA>
140
> <PUBCHEM_MONOISOTOPIC_WEIGHT>
612.33454182
> <PUBCHEM_TOTAL_CHARGE>
0
> <PUBCHEM_HEAVY_ATOM_COUNT>
43
> <PUBCHEM_ATOM_DEF_STEREO_COUNT>
2
> <PUBCHEM_ATOM_UDEF_STEREO_COUNT>
0
> <PUBCHEM_BOND_DEF_STEREO_COUNT>
0
> <PUBCHEM_BOND_UDEF_STEREO_COUNT>
0
> <PUBCHEM_ISOTOPIC_ATOM_COUNT>
0
> <PUBCHEM_COMPONENT_COUNT>
1
> <PUBCHEM_CACTVS_TAUTO_COUNT>
-1
> <PUBCHEM_COORDINATE_TYPE>
1
5
255
> <PUBCHEM_BONDANNOTATIONS>
10  37  8
10  38  8
19  26  8
19  27  8
26  31  8
27  32  8
28  30  8
28  37  8
30  38  8
30  39  8
31  36  8
32  36  8
38  40  8
39  42  8
40  43  8
42  43  8
11  7  6
22  9  6
$$$$
