508739
  -OEChem-10302200282D
 49 51  0     1  0  0  0  0  0999 V2000
    2.8660   -5.6397    0.0000 Cl  0  0  0  0  0  0  0  0  0  0  0  0
   10.4034    4.2384    0.0000 S   0  0  0  0  0  0  0  0  0  0  0  0
    6.8038    0.2718    0.0000 O   0  0  0  0  0  0  0  0  0  0  0  0
    9.6063    2.3080    0.0000 O   0  0  0  0  0  0  0  0  0  0  0  0
    3.7320   -1.1397    0.0000 N   0  0  3  0  0  0  0  0  0  0  0  0
    5.2215    0.9763    0.0000 N   0  0  0  0  0  0  0  0  0  0  0  0
    4.8147    0.0627    0.0000 C   0  0  3  0  0  0  0  0  0  0  0  0
    5.3147   -0.8033    0.0000 C   0  0  0  0  0  0  0  0  0  0  0  0
    3.8366   -0.1452    0.0000 C   0  0  0  0  0  0  0  0  0  0  0  0
    4.6456   -1.5464    0.0000 C   0  0  0  0  0  0  0  0  0  0  0  0
    2.8660   -1.6397    0.0000 C   0  0  0  0  0  0  0  0  0  0  0  0
    2.8660   -2.6397    0.0000 C   0  0  0  0  0  0  0  0  0  0  0  0
    6.2160    1.0808    0.0000 C   0  0  0  0  0  0  0  0  0  0  0  0
    6.6227    1.9944    0.0000 C   0  0  0  0  0  0  0  0  0  0  0  0
    7.6172    2.0989    0.0000 C   0  0  0  0  0  0  0  0  0  0  0  0
    2.0000   -3.1397    0.0000 C   0  0  0  0  0  0  0  0  0  0  0  0
    3.7320   -3.1397    0.0000 C   0  0  0  0  0  0  0  0  0  0  0  0
    8.0240    3.0124    0.0000 C   0  0  0  0  0  0  0  0  0  0  0  0
    2.0000   -4.1397    0.0000 C   0  0  0  0  0  0  0  0  0  0  0  0
    3.7320   -4.1397    0.0000 C   0  0  0  0  0  0  0  0  0  0  0  0
    2.8660   -4.6397    0.0000 C   0  0  0  0  0  0  0  0  0  0  0  0
    9.0185    3.1170    0.0000 C   0  0  0  0  0  0  0  0  0  0  0  0
    9.4252    4.0305    0.0000 C   0  0  0  0  0  0  0  0  0  0  0  0
    8.9252    4.8965    0.0000 C   0  0  0  0  0  0  0  0  0  0  0  0
    9.5944    5.6397    0.0000 C   0  0  0  0  0  0  0  0  0  0  0  0
   10.5079    5.2330    0.0000 C   0  0  0  0  0  0  0  0  0  0  0  0
    4.4246    0.5446    0.0000 H   0  0  0  0  0  0  0  0  0  0  0  0
    5.7296   -1.2640    0.0000 H   0  0  0  0  0  0  0  0  0  0  0  0
    5.8163   -0.4388    0.0000 H   0  0  0  0  0  0  0  0  0  0  0  0
    3.7718    0.4714    0.0000 H   0  0  0  0  0  0  0  0  0  0  0  0
    3.2166   -0.1452    0.0000 H   0  0  0  0  0  0  0  0  0  0  0  0
    4.3356   -2.0834    0.0000 H   0  0  0  0  0  0  0  0  0  0  0  0
    5.1472   -1.9108    0.0000 H   0  0  0  0  0  0  0  0  0  0  0  0
    2.6540   -1.0571    0.0000 H   0  0  0  0  0  0  0  0  0  0  0  0
    2.2554   -1.7474    0.0000 H   0  0  0  0  0  0  0  0  0  0  0  0
    4.8570    1.4779    0.0000 H   0  0  0  0  0  0  0  0  0  0  0  0
    6.6660    2.6129    0.0000 H   0  0  0  0  0  0  0  0  0  0  0  0
    6.0211    2.1444    0.0000 H   0  0  0  0  0  0  0  0  0  0  0  0
    7.5740    1.4804    0.0000 H   0  0  0  0  0  0  0  0  0  0  0  0
    8.2188    1.9489    0.0000 H   0  0  0  0  0  0  0  0  0  0  0  0
    1.4631   -2.8297    0.0000 H   0  0  0  0  0  0  0  0  0  0  0  0
    4.2690   -2.8297    0.0000 H   0  0  0  0  0  0  0  0  0  0  0  0
    8.0672    3.6309    0.0000 H   0  0  0  0  0  0  0  0  0  0  0  0
    7.4224    3.1624    0.0000 H   0  0  0  0  0  0  0  0  0  0  0  0
    1.4631   -4.4497    0.0000 H   0  0  0  0  0  0  0  0  0  0  0  0
    4.2690   -4.4497    0.0000 H   0  0  0  0  0  0  0  0  0  0  0  0
    8.3086    4.9614    0.0000 H   0  0  0  0  0  0  0  0  0  0  0  0
    9.4655    6.2461    0.0000 H   0  0  0  0  0  0  0  0  0  0  0  0
   11.0449    5.5430    0.0000 H   0  0  0  0  0  0  0  0  0  0  0  0
  1 21  1  0  0  0  0
  2 23  1  0  0  0  0
  2 26  1  0  0  0  0
  3 13  2  0  0  0  0
  4 22  2  0  0  0  0
  5  9  1  0  0  0  0
  5 10  1  0  0  0  0
  5 11  1  0  0  0  0
  6  7  1  0  0  0  0
  6 13  1  0  0  0  0
  6 36  1  0  0  0  0
  7  8  1  0  0  0  0
  7  9  1  0  0  0  0
  7 27  1  0  0  0  0
  8 10  1  0  0  0  0
  8 28  1  0  0  0  0
  8 29  1  0  0  0  0
  9 30  1  0  0  0  0
  9 31  1  0  0  0  0
 10 32  1  0  0  0  0
 10 33  1  0  0  0  0
 11 12  1  0  0  0  0
 11 34  1  0  0  0  0
 11 35  1  0  0  0  0
 12 16  2  0  0  0  0
 12 17  1  0  0  0  0
 13 14  1  0  0  0  0
 14 15  1  0  0  0  0
 14 37  1  0  0  0  0
 14 38  1  0  0  0  0
 15 18  1  0  0  0  0
 15 39  1  0  0  0  0
 15 40  1  0  0  0  0
 16 19  1  0  0  0  0
 16 41  1  0  0  0  0
 17 20  2  0  0  0  0
 17 42  1  0  0  0  0
 18 22  1  0  0  0  0
 18 43  1  0  0  0  0
 18 44  1  0  0  0  0
 19 21  2  0  0  0  0
 19 45  1  0  0  0  0
 20 21  1  0  0  0  0
 20 46  1  0  0  0  0
 22 23  1  0  0  0  0
 23 24  2  0  0  0  0
 24 25  1  0  0  0  0
 24 47  1  0  0  0  0
 25 26  2  0  0  0  0
 25 48  1  0  0  0  0
 26 49  1  0  0  0  0
M  END
> <PUBCHEM_COMPOUND_CID>
508739
> <PUBCHEM_COMPOUND_CANONICALIZED>
1
> <PUBCHEM_CACTVS_COMPLEXITY>
482
> <PUBCHEM_CACTVS_HBOND_ACCEPTOR>
4
> <PUBCHEM_CACTVS_HBOND_DONOR>
1
> <PUBCHEM_CACTVS_ROTATABLE_BOND>
8
> <PUBCHEM_CACTVS_SUBSKEYS>
AAADceB7MABEAAAAAAAAAAAAAAAAAWJAAAAwAAAAAAAAAAABwAAAHgYQAAAADC7F2CSwAYPAAAiMAqFSEACDAIAkDRBIiJkIBsgIYDKh1xGUIQhglgCoiYcYi4CuBAAAAAAAAAAIAAAAAAAAAAAAAAAAAA==
> <PUBCHEM_IUPAC_OPENEYE_NAME>
N-[1-[(4-chlorophenyl)methyl]pyrrolidin-3-yl]-5-oxo-5-(2-thienyl)pentanamide
> <PUBCHEM_IUPAC_CAS_NAME>
N-[1-[(4-chlorophenyl)methyl]-3-pyrrolidinyl]-5-oxo-5-thiophen-2-ylpentanamide
> <PUBCHEM_IUPAC_NAME_MARKUP>
<I>N</I>-[1-[(4-chlorophenyl)methyl]pyrrolidin-3-yl]-5-oxo-5-thiophen-2-ylpentanamide
> <PUBCHEM_IUPAC_NAME>
N-[1-[(4-chlorophenyl)methyl]pyrrolidin-3-yl]-5-oxo-5-thiophen-2-ylpentanamide
> <PUBCHEM_IUPAC_SYSTEMATIC_NAME>
N-[1-[(4-chlorophenyl)methyl]pyrrolidin-3-yl]-5-oxidanylidene-5-thiophen-2-yl-pentanamide
> <PUBCHEM_IUPAC_TRADITIONAL_NAME>
N-[1-(4-chlorobenzyl)pyrrolidin-3-yl]-5-keto-5-(2-thienyl)valeramide
> <PUBCHEM_IUPAC_INCHI>
InChI=1S/C20H23ClN2O2S/c21-16-8-6-15(7-9-16)13-23-11-10-17(14-23)22-20(25)5-1-3-18(24)19-4-2-12-26-19/h2,4,6-9,12,17H,1,3,5,10-11,13-14H2,(H,22,25)
> <PUBCHEM_IUPAC_INCHIKEY>
RZHMFUJSAMFMQB-UHFFFAOYSA-N
> <PUBCHEM_XLOGP3_AA>
3.5
> <PUBCHEM_EXACT_MASS>
390.1168768
> <PUBCHEM_MOLECULAR_FORMULA>
C20H23ClN2O2S
> <PUBCHEM_MOLECULAR_WEIGHT>
390.9
> <PUBCHEM_OPENEYE_CAN_SMILES>
C1CN(CC1NC(=O)CCCC(=O)C2=CC=CS2)CC3=CC=C(C=C3)Cl
> <PUBCHEM_OPENEYE_ISO_SMILES>
C1CN(CC1NC(=O)CCCC(=O)C2=CC=CS2)CC3=CC=C(C=C3)Cl
> <PUBCHEM_CACTVS_TPSA>
77.6
> <PUBCHEM_MONOISOTOPIC_WEIGHT>
390.1168768
> <PUBCHEM_TOTAL_CHARGE>
0
> <PUBCHEM_HEAVY_ATOM_COUNT>
26
> <PUBCHEM_ATOM_DEF_STEREO_COUNT>
0
> <PUBCHEM_ATOM_UDEF_STEREO_COUNT>
1
> <PUBCHEM_BOND_DEF_STEREO_COUNT>
0
> <PUBCHEM_BOND_UDEF_STEREO_COUNT>
0
> <PUBCHEM_ISOTOPIC_ATOM_COUNT>
0
> <PUBCHEM_COMPONENT_COUNT>
1
> <PUBCHEM_CACTVS_TAUTO_COUNT>
-1
> <PUBCHEM_COORDINATE_TYPE>
1
5
255
> <PUBCHEM_BONDANNOTATIONS>
12  16  8
12  17  8
16  19  8
17  20  8
19  21  8
2  23  8
2  26  8
20  21  8
23  24  8
24  25  8
25  26  8
7  6  3
$$$$
