508786
  -OEChem-10302200282D
 61 64  0     1  0  0  0  0  0999 V2000
    2.0000   -6.2990    0.0000 Cl  0  0  0  0  0  0  0  0  0  0  0  0
    8.8755    5.9389    0.0000 Cl  0  0  0  0  0  0  0  0  0  0  0  0
    5.4641    1.7010    0.0000 O   0  0  0  0  0  0  0  0  0  0  0  0
    5.6065    3.0556    0.0000 O   0  0  0  0  0  0  0  0  0  0  0  0
    5.4641   -3.2990    0.0000 N   0  0  0  0  0  0  0  0  0  0  0  0
    7.3007    2.6955    0.0000 N   0  0  0  0  0  0  0  0  0  0  0  0
    6.3301    0.2010    0.0000 N   0  0  0  0  0  0  0  0  0  0  0  0
    5.4641   -1.2990    0.0000 C   0  0  0  0  0  0  0  0  0  0  0  0
    4.5981   -1.7990    0.0000 C   0  0  0  0  0  0  0  0  0  0  0  0
    6.3301   -1.7990    0.0000 C   0  0  0  0  0  0  0  0  0  0  0  0
    4.5981   -2.7990    0.0000 C   0  0  0  0  0  0  0  0  0  0  0  0
    6.3301   -2.7990    0.0000 C   0  0  0  0  0  0  0  0  0  0  0  0
    5.4641   -0.2990    0.0000 C   0  0  0  0  0  0  0  0  0  0  0  0
    7.1962    1.7010    0.0000 C   0  0  3  0  0  0  0  0  0  0  0  0
    8.1097    1.2942    0.0000 C   0  0  0  0  0  0  0  0  0  0  0  0
    8.7788    2.0374    0.0000 C   0  0  0  0  0  0  0  0  0  0  0  0
    8.2788    2.9034    0.0000 C   0  0  0  0  0  0  0  0  0  0  0  0
    6.3301    1.2010    0.0000 C   0  0  0  0  0  0  0  0  0  0  0  0
    5.4641   -4.2990    0.0000 C   0  0  0  0  0  0  0  0  0  0  0  0
    6.5575    3.3646    0.0000 C   0  0  0  0  0  0  0  0  0  0  0  0
    4.5981   -4.7990    0.0000 C   0  0  0  0  0  0  0  0  0  0  0  0
    6.7654    4.3428    0.0000 C   0  0  0  0  0  0  0  0  0  0  0  0
    4.5981   -5.7990    0.0000 C   0  0  0  0  0  0  0  0  0  0  0  0
    3.7320   -4.2990    0.0000 C   0  0  0  0  0  0  0  0  0  0  0  0
    7.7165    4.6518    0.0000 C   0  0  0  0  0  0  0  0  0  0  0  0
    6.0223    5.0119    0.0000 C   0  0  0  0  0  0  0  0  0  0  0  0
    3.7320   -6.2990    0.0000 C   0  0  0  0  0  0  0  0  0  0  0  0
    2.8660   -4.7990    0.0000 C   0  0  0  0  0  0  0  0  0  0  0  0
    2.8660   -5.7990    0.0000 C   0  0  0  0  0  0  0  0  0  0  0  0
    7.9244    5.6299    0.0000 C   0  0  0  0  0  0  0  0  0  0  0  0
    6.2302    5.9900    0.0000 C   0  0  0  0  0  0  0  0  0  0  0  0
    7.1813    6.2990    0.0000 C   0  0  0  0  0  0  0  0  0  0  0  0
    6.0010   -0.9890    0.0000 H   0  0  0  0  0  0  0  0  0  0  0  0
    4.3860   -1.2164    0.0000 H   0  0  0  0  0  0  0  0  0  0  0  0
    3.9875   -1.9067    0.0000 H   0  0  0  0  0  0  0  0  0  0  0  0
    6.9407   -1.9067    0.0000 H   0  0  0  0  0  0  0  0  0  0  0  0
    6.5422   -1.2164    0.0000 H   0  0  0  0  0  0  0  0  0  0  0  0
    3.9875   -2.6914    0.0000 H   0  0  0  0  0  0  0  0  0  0  0  0
    4.3860   -3.3817    0.0000 H   0  0  0  0  0  0  0  0  0  0  0  0
    6.5422   -3.3817    0.0000 H   0  0  0  0  0  0  0  0  0  0  0  0
    6.9407   -2.6914    0.0000 H   0  0  0  0  0  0  0  0  0  0  0  0
    5.2520    0.2836    0.0000 H   0  0  0  0  0  0  0  0  0  0  0  0
    4.8535   -0.4067    0.0000 H   0  0  0  0  0  0  0  0  0  0  0  0
    6.6762    2.0386    0.0000 H   0  0  0  0  0  0  0  0  0  0  0  0
    7.7997    0.7573    0.0000 H   0  0  0  0  0  0  0  0  0  0  0  0
    8.6113    0.9298    0.0000 H   0  0  0  0  0  0  0  0  0  0  0  0
    9.1937    1.5766    0.0000 H   0  0  0  0  0  0  0  0  0  0  0  0
    9.2804    2.4018    0.0000 H   0  0  0  0  0  0  0  0  0  0  0  0
    8.8452    3.1556    0.0000 H   0  0  0  0  0  0  0  0  0  0  0  0
    8.0872    3.4930    0.0000 H   0  0  0  0  0  0  0  0  0  0  0  0
    6.8671   -0.1090    0.0000 H   0  0  0  0  0  0  0  0  0  0  0  0
    5.6762   -4.8817    0.0000 H   0  0  0  0  0  0  0  0  0  0  0  0
    6.0747   -4.1914    0.0000 H   0  0  0  0  0  0  0  0  0  0  0  0
    5.1350   -6.1090    0.0000 H   0  0  0  0  0  0  0  0  0  0  0  0
    3.7320   -3.6790    0.0000 H   0  0  0  0  0  0  0  0  0  0  0  0
    8.1773    4.2369    0.0000 H   0  0  0  0  0  0  0  0  0  0  0  0
    5.4326    4.8203    0.0000 H   0  0  0  0  0  0  0  0  0  0  0  0
    3.7320   -6.9190    0.0000 H   0  0  0  0  0  0  0  0  0  0  0  0
    2.3291   -4.4890    0.0000 H   0  0  0  0  0  0  0  0  0  0  0  0
    5.7695    6.4049    0.0000 H   0  0  0  0  0  0  0  0  0  0  0  0
    7.3102    6.9055    0.0000 H   0  0  0  0  0  0  0  0  0  0  0  0
  1 29  1  0  0  0  0
  2 30  1  0  0  0  0
  3 18  2  0  0  0  0
  4 20  2  0  0  0  0
  5 11  1  0  0  0  0
  5 12  1  0  0  0  0
  5 19  1  0  0  0  0
  6 14  1  0  0  0  0
  6 17  1  0  0  0  0
  6 20  1  0  0  0  0
  7 13  1  0  0  0  0
  7 18  1  0  0  0  0
  7 51  1  0  0  0  0
  8  9  1  0  0  0  0
  8 10  1  0  0  0  0
  8 13  1  0  0  0  0
  8 33  1  0  0  0  0
  9 11  1  0  0  0  0
  9 34  1  0  0  0  0
  9 35  1  0  0  0  0
 10 12  1  0  0  0  0
 10 36  1  0  0  0  0
 10 37  1  0  0  0  0
 11 38  1  0  0  0  0
 11 39  1  0  0  0  0
 12 40  1  0  0  0  0
 12 41  1  0  0  0  0
 13 42  1  0  0  0  0
 13 43  1  0  0  0  0
 14 15  1  0  0  0  0
 14 18  1  0  0  0  0
 14 44  1  0  0  0  0
 15 16  1  0  0  0  0
 15 45  1  0  0  0  0
 15 46  1  0  0  0  0
 16 17  1  0  0  0  0
 16 47  1  0  0  0  0
 16 48  1  0  0  0  0
 17 49  1  0  0  0  0
 17 50  1  0  0  0  0
 19 21  1  0  0  0  0
 19 52  1  0  0  0  0
 19 53  1  0  0  0  0
 20 22  1  0  0  0  0
 21 23  2  0  0  0  0
 21 24  1  0  0  0  0
 22 25  2  0  0  0  0
 22 26  1  0  0  0  0
 23 27  1  0  0  0  0
 23 54  1  0  0  0  0
 24 28  2  0  0  0  0
 24 55  1  0  0  0  0
 25 30  1  0  0  0  0
 25 56  1  0  0  0  0
 26 31  2  0  0  0  0
 26 57  1  0  0  0  0
 27 29  2  0  0  0  0
 27 58  1  0  0  0  0
 28 29  1  0  0  0  0
 28 59  1  0  0  0  0
 30 32  2  0  0  0  0
 31 32  1  0  0  0  0
 31 60  1  0  0  0  0
 32 61  1  0  0  0  0
M  END
> <PUBCHEM_COMPOUND_CID>
508786
> <PUBCHEM_COMPOUND_CANONICALIZED>
1
> <PUBCHEM_CACTVS_COMPLEXITY>
633
> <PUBCHEM_CACTVS_HBOND_ACCEPTOR>
3
> <PUBCHEM_CACTVS_HBOND_DONOR>
1
> <PUBCHEM_CACTVS_ROTATABLE_BOND>
6
> <PUBCHEM_CACTVS_SUBSKEYS>
AAADceB7MAAGAAAAAAAAAAAAAAAAAWAAAAA8YIAAAAAAAAABQAAAHgIQAAAADSrBmCQwAIPAAACIAiFSEACCAAAkBQAIiIGIBsgIYDKBlzGUIQhglgCIiYcYiQCOBAAAIAAAAAAIAABAAAAAAAAAAAAAAA==
> <PUBCHEM_IUPAC_OPENEYE_NAME>
1-(3-chlorobenzoyl)-N-[[1-[(4-chlorophenyl)methyl]-4-piperidyl]methyl]pyrrolidine-2-carboxamide
> <PUBCHEM_IUPAC_CAS_NAME>
N-[[1-[(4-chlorophenyl)methyl]-4-piperidinyl]methyl]-1-[(3-chlorophenyl)-oxomethyl]-2-pyrrolidinecarboxamide
> <PUBCHEM_IUPAC_NAME_MARKUP>
1-(3-chlorobenzoyl)-<I>N</I>-[[1-[(4-chlorophenyl)methyl]piperidin-4-yl]methyl]pyrrolidine-2-carboxamide
> <PUBCHEM_IUPAC_NAME>
1-(3-chlorobenzoyl)-N-[[1-[(4-chlorophenyl)methyl]piperidin-4-yl]methyl]pyrrolidine-2-carboxamide
> <PUBCHEM_IUPAC_SYSTEMATIC_NAME>
1-(3-chlorophenyl)carbonyl-N-[[1-[(4-chlorophenyl)methyl]piperidin-4-yl]methyl]pyrrolidine-2-carboxamide
> <PUBCHEM_IUPAC_TRADITIONAL_NAME>
1-(3-chlorobenzoyl)-N-[[1-(4-chlorobenzyl)-4-piperidyl]methyl]pyrrolidine-2-carboxamide
> <PUBCHEM_IUPAC_INCHI>
InChI=1S/C25H29Cl2N3O2/c26-21-8-6-19(7-9-21)17-29-13-10-18(11-14-29)16-28-24(31)23-5-2-12-30(23)25(32)20-3-1-4-22(27)15-20/h1,3-4,6-9,15,18,23H,2,5,10-14,16-17H2,(H,28,31)
> <PUBCHEM_IUPAC_INCHIKEY>
WFEGFXWBFXQNTC-UHFFFAOYSA-N
> <PUBCHEM_XLOGP3_AA>
4.8
> <PUBCHEM_EXACT_MASS>
473.1636826
> <PUBCHEM_MOLECULAR_FORMULA>
C25H29Cl2N3O2
> <PUBCHEM_MOLECULAR_WEIGHT>
474.4
> <PUBCHEM_OPENEYE_CAN_SMILES>
C1CC(N(C1)C(=O)C2=CC(=CC=C2)Cl)C(=O)NCC3CCN(CC3)CC4=CC=C(C=C4)Cl
> <PUBCHEM_OPENEYE_ISO_SMILES>
C1CC(N(C1)C(=O)C2=CC(=CC=C2)Cl)C(=O)NCC3CCN(CC3)CC4=CC=C(C=C4)Cl
> <PUBCHEM_CACTVS_TPSA>
52.6
> <PUBCHEM_MONOISOTOPIC_WEIGHT>
473.1636826
> <PUBCHEM_TOTAL_CHARGE>
0
> <PUBCHEM_HEAVY_ATOM_COUNT>
32
> <PUBCHEM_ATOM_DEF_STEREO_COUNT>
0
> <PUBCHEM_ATOM_UDEF_STEREO_COUNT>
1
> <PUBCHEM_BOND_DEF_STEREO_COUNT>
0
> <PUBCHEM_BOND_UDEF_STEREO_COUNT>
0
> <PUBCHEM_ISOTOPIC_ATOM_COUNT>
0
> <PUBCHEM_COMPONENT_COUNT>
1
> <PUBCHEM_CACTVS_TAUTO_COUNT>
-1
> <PUBCHEM_COORDINATE_TYPE>
1
5
255
> <PUBCHEM_BONDANNOTATIONS>
14  18  3
21  23  8
21  24  8
22  25  8
22  26  8
23  27  8
24  28  8
25  30  8
26  31  8
27  29  8
28  29  8
30  32  8
31  32  8
$$$$
