508796
  -OEChem-10302200282D
 67 69  0     1  0  0  0  0  0999 V2000
   10.6603    6.6830    0.0000 Cl  0  0  0  0  0  0  0  0  0  0  0  0
    2.0000   -6.3170    0.0000 F   0  0  0  0  0  0  0  0  0  0  0  0
    3.3660   -6.6830    0.0000 F   0  0  0  0  0  0  0  0  0  0  0  0
    2.3660   -4.9510    0.0000 F   0  0  0  0  0  0  0  0  0  0  0  0
    7.1962   -1.3170    0.0000 O   0  0  0  0  0  0  0  0  0  0  0  0
    3.7320   -2.3170    0.0000 O   0  0  0  0  0  0  0  0  0  0  0  0
    2.8660    0.1830    0.0000 O   0  0  0  0  0  0  0  0  0  0  0  0
    7.1962    3.6830    0.0000 N   0  0  0  0  0  0  0  0  0  0  0  0
    6.3301    0.1830    0.0000 N   0  0  0  0  0  0  0  0  0  0  0  0
    5.4641   -2.3170    0.0000 N   0  0  0  0  0  0  0  0  0  0  0  0
    3.7320    1.6830    0.0000 N   0  0  0  0  0  0  0  0  0  0  0  0
    7.1962    1.6830    0.0000 C   0  0  0  0  0  0  0  0  0  0  0  0
    6.3301    2.1830    0.0000 C   0  0  0  0  0  0  0  0  0  0  0  0
    8.0622    2.1830    0.0000 C   0  0  0  0  0  0  0  0  0  0  0  0
    6.3301    3.1830    0.0000 C   0  0  0  0  0  0  0  0  0  0  0  0
    8.0622    3.1830    0.0000 C   0  0  0  0  0  0  0  0  0  0  0  0
    7.1962    0.6830    0.0000 C   0  0  0  0  0  0  0  0  0  0  0  0
    7.1962    4.6830    0.0000 C   0  0  0  0  0  0  0  0  0  0  0  0
    8.0622    5.1830    0.0000 C   0  0  0  0  0  0  0  0  0  0  0  0
    6.3301   -0.8170    0.0000 C   0  0  0  0  0  0  0  0  0  0  0  0
    5.4641   -1.3170    0.0000 C   0  0  3  0  0  0  0  0  0  0  0  0
    4.5981   -0.8170    0.0000 C   0  0  0  0  0  0  0  0  0  0  0  0
    8.9282    4.6830    0.0000 C   0  0  0  0  0  0  0  0  0  0  0  0
    8.0622    6.1830    0.0000 C   0  0  0  0  0  0  0  0  0  0  0  0
    4.5981    0.1830    0.0000 C   0  0  0  0  0  0  0  0  0  0  0  0
    9.7942    5.1830    0.0000 C   0  0  0  0  0  0  0  0  0  0  0  0
    8.9282    6.6830    0.0000 C   0  0  0  0  0  0  0  0  0  0  0  0
    9.7942    6.1830    0.0000 C   0  0  0  0  0  0  0  0  0  0  0  0
    4.5981   -2.8170    0.0000 C   0  0  0  0  0  0  0  0  0  0  0  0
    3.7320    0.6830    0.0000 C   0  0  0  0  0  0  0  0  0  0  0  0
    4.5981   -3.8170    0.0000 C   0  0  0  0  0  0  0  0  0  0  0  0
    3.7320   -4.3170    0.0000 C   0  0  0  0  0  0  0  0  0  0  0  0
    5.4641   -4.3170    0.0000 C   0  0  0  0  0  0  0  0  0  0  0  0
    3.7320   -5.3170    0.0000 C   0  0  0  0  0  0  0  0  0  0  0  0
    5.4641   -5.3170    0.0000 C   0  0  0  0  0  0  0  0  0  0  0  0
    4.5981   -5.8170    0.0000 C   0  0  0  0  0  0  0  0  0  0  0  0
    2.8660   -5.8170    0.0000 C   0  0  0  0  0  0  0  0  0  0  0  0
    6.6592    1.3730    0.0000 H   0  0  0  0  0  0  0  0  0  0  0  0
    5.7196    2.2907    0.0000 H   0  0  0  0  0  0  0  0  0  0  0  0
    6.1181    1.6004    0.0000 H   0  0  0  0  0  0  0  0  0  0  0  0
    8.2742    1.6004    0.0000 H   0  0  0  0  0  0  0  0  0  0  0  0
    8.6728    2.2907    0.0000 H   0  0  0  0  0  0  0  0  0  0  0  0
    6.1181    3.7656    0.0000 H   0  0  0  0  0  0  0  0  0  0  0  0
    5.7196    3.0753    0.0000 H   0  0  0  0  0  0  0  0  0  0  0  0
    8.6728    3.0753    0.0000 H   0  0  0  0  0  0  0  0  0  0  0  0
    8.2742    3.7656    0.0000 H   0  0  0  0  0  0  0  0  0  0  0  0
    7.4082    0.1004    0.0000 H   0  0  0  0  0  0  0  0  0  0  0  0
    7.8067    0.7907    0.0000 H   0  0  0  0  0  0  0  0  0  0  0  0
    6.9841    5.2656    0.0000 H   0  0  0  0  0  0  0  0  0  0  0  0
    6.5856    4.5754    0.0000 H   0  0  0  0  0  0  0  0  0  0  0  0
    5.7932    0.4930    0.0000 H   0  0  0  0  0  0  0  0  0  0  0  0
    6.0010   -1.6270    0.0000 H   0  0  0  0  0  0  0  0  0  0  0  0
    3.9875   -0.7093    0.0000 H   0  0  0  0  0  0  0  0  0  0  0  0
    4.3860   -1.3996    0.0000 H   0  0  0  0  0  0  0  0  0  0  0  0
    8.9282    4.0630    0.0000 H   0  0  0  0  0  0  0  0  0  0  0  0
    7.5252    6.4930    0.0000 H   0  0  0  0  0  0  0  0  0  0  0  0
    6.0010   -2.6270    0.0000 H   0  0  0  0  0  0  0  0  0  0  0  0
    5.2087    0.0754    0.0000 H   0  0  0  0  0  0  0  0  0  0  0  0
    4.8101    0.7656    0.0000 H   0  0  0  0  0  0  0  0  0  0  0  0
   10.3312    4.8730    0.0000 H   0  0  0  0  0  0  0  0  0  0  0  0
    8.9282    7.3030    0.0000 H   0  0  0  0  0  0  0  0  0  0  0  0
    3.1951   -4.0070    0.0000 H   0  0  0  0  0  0  0  0  0  0  0  0
    6.0010   -4.0070    0.0000 H   0  0  0  0  0  0  0  0  0  0  0  0
    3.1951    1.9930    0.0000 H   0  0  0  0  0  0  0  0  0  0  0  0
    4.2690    1.9930    0.0000 H   0  0  0  0  0  0  0  0  0  0  0  0
    6.0010   -5.6270    0.0000 H   0  0  0  0  0  0  0  0  0  0  0  0
    4.5981   -6.4370    0.0000 H   0  0  0  0  0  0  0  0  0  0  0  0
  1 28  1  0  0  0  0
  2 37  1  0  0  0  0
  3 37  1  0  0  0  0
  4 37  1  0  0  0  0
  5 20  2  0  0  0  0
  6 29  2  0  0  0  0
  7 30  2  0  0  0  0
  8 15  1  0  0  0  0
  8 16  1  0  0  0  0
  8 18  1  0  0  0  0
  9 17  1  0  0  0  0
  9 20  1  0  0  0  0
  9 51  1  0  0  0  0
 10 21  1  0  0  0  0
 10 29  1  0  0  0  0
 10 57  1  0  0  0  0
 11 30  1  0  0  0  0
 11 64  1  0  0  0  0
 11 65  1  0  0  0  0
 12 13  1  0  0  0  0
 12 14  1  0  0  0  0
 12 17  1  0  0  0  0
 12 38  1  0  0  0  0
 13 15  1  0  0  0  0
 13 39  1  0  0  0  0
 13 40  1  0  0  0  0
 14 16  1  0  0  0  0
 14 41  1  0  0  0  0
 14 42  1  0  0  0  0
 15 43  1  0  0  0  0
 15 44  1  0  0  0  0
 16 45  1  0  0  0  0
 16 46  1  0  0  0  0
 17 47  1  0  0  0  0
 17 48  1  0  0  0  0
 18 19  1  0  0  0  0
 18 49  1  0  0  0  0
 18 50  1  0  0  0  0
 19 23  2  0  0  0  0
 19 24  1  0  0  0  0
 20 21  1  0  0  0  0
 21 22  1  0  0  0  0
 21 52  1  0  0  0  0
 22 25  1  0  0  0  0
 22 53  1  0  0  0  0
 22 54  1  0  0  0  0
 23 26  1  0  0  0  0
 23 55  1  0  0  0  0
 24 27  2  0  0  0  0
 24 56  1  0  0  0  0
 25 30  1  0  0  0  0
 25 58  1  0  0  0  0
 25 59  1  0  0  0  0
 26 28  2  0  0  0  0
 26 60  1  0  0  0  0
 27 28  1  0  0  0  0
 27 61  1  0  0  0  0
 29 31  1  0  0  0  0
 31 32  2  0  0  0  0
 31 33  1  0  0  0  0
 32 34  1  0  0  0  0
 32 62  1  0  0  0  0
 33 35  2  0  0  0  0
 33 63  1  0  0  0  0
 34 36  2  0  0  0  0
 34 37  1  0  0  0  0
 35 36  1  0  0  0  0
 35 66  1  0  0  0  0
 36 67  1  0  0  0  0
M  END
> <PUBCHEM_COMPOUND_CID>
508796
> <PUBCHEM_COMPOUND_CANONICALIZED>
1
> <PUBCHEM_CACTVS_COMPLEXITY>
769
> <PUBCHEM_CACTVS_HBOND_ACCEPTOR>
7
> <PUBCHEM_CACTVS_HBOND_DONOR>
3
> <PUBCHEM_CACTVS_ROTATABLE_BOND>
10
> <PUBCHEM_CACTVS_SUBSKEYS>
AAADceB7sYAEAAAAAAAAAAAAAAAAAAAAAAA8YIAAAAAAAAABQAAAHwIQAAAADSrBmDQwAIPAAACIAiFSEACCAAAkBQAIiIGIBsgIYDKBlzGUIQhglgCIiYcci0COBAACAAAAAAAIAAQAAAAAAAAAAAAAAA==
> <PUBCHEM_IUPAC_OPENEYE_NAME>
N-[[1-[(4-chlorophenyl)methyl]-4-piperidyl]methyl]-2-[[3-(trifluoromethyl)benzoyl]amino]pentanediamide
> <PUBCHEM_IUPAC_CAS_NAME>
N-[[1-[(4-chlorophenyl)methyl]-4-piperidinyl]methyl]-2-[[oxo-[3-(trifluoromethyl)phenyl]methyl]amino]pentanediamide
> <PUBCHEM_IUPAC_NAME_MARKUP>
<I>N</I>-[[1-[(4-chlorophenyl)methyl]piperidin-4-yl]methyl]-2-[[3-(trifluoromethyl)benzoyl]amino]pentanediamide
> <PUBCHEM_IUPAC_NAME>
N-[[1-[(4-chlorophenyl)methyl]piperidin-4-yl]methyl]-2-[[3-(trifluoromethyl)benzoyl]amino]pentanediamide
> <PUBCHEM_IUPAC_SYSTEMATIC_NAME>
N-[[1-[(4-chlorophenyl)methyl]piperidin-4-yl]methyl]-2-[[3-(trifluoromethyl)phenyl]carbonylamino]pentanediamide
> <PUBCHEM_IUPAC_TRADITIONAL_NAME>
N-[[1-(4-chlorobenzyl)-4-piperidyl]methyl]-2-[[3-(trifluoromethyl)benzoyl]amino]glutaramide
> <PUBCHEM_IUPAC_INCHI>
InChI=1S/C26H30ClF3N4O3/c27-21-6-4-18(5-7-21)16-34-12-10-17(11-13-34)15-32-25(37)22(8-9-23(31)35)33-24(36)19-2-1-3-20(14-19)26(28,29)30/h1-7,14,17,22H,8-13,15-16H2,(H2,31,35)(H,32,37)(H,33,36)
> <PUBCHEM_IUPAC_INCHIKEY>
SBQHQNXUKOKCGT-UHFFFAOYSA-N
> <PUBCHEM_XLOGP3_AA>
3.6
> <PUBCHEM_EXACT_MASS>
538.1958530
> <PUBCHEM_MOLECULAR_FORMULA>
C26H30ClF3N4O3
> <PUBCHEM_MOLECULAR_WEIGHT>
539.0
> <PUBCHEM_OPENEYE_CAN_SMILES>
C1CN(CCC1CNC(=O)C(CCC(=O)N)NC(=O)C2=CC(=CC=C2)C(F)(F)F)CC3=CC=C(C=C3)Cl
> <PUBCHEM_OPENEYE_ISO_SMILES>
C1CN(CCC1CNC(=O)C(CCC(=O)N)NC(=O)C2=CC(=CC=C2)C(F)(F)F)CC3=CC=C(C=C3)Cl
> <PUBCHEM_CACTVS_TPSA>
105
> <PUBCHEM_MONOISOTOPIC_WEIGHT>
538.1958530
> <PUBCHEM_TOTAL_CHARGE>
0
> <PUBCHEM_HEAVY_ATOM_COUNT>
37
> <PUBCHEM_ATOM_DEF_STEREO_COUNT>
0
> <PUBCHEM_ATOM_UDEF_STEREO_COUNT>
1
> <PUBCHEM_BOND_DEF_STEREO_COUNT>
0
> <PUBCHEM_BOND_UDEF_STEREO_COUNT>
0
> <PUBCHEM_ISOTOPIC_ATOM_COUNT>
0
> <PUBCHEM_COMPONENT_COUNT>
1
> <PUBCHEM_CACTVS_TAUTO_COUNT>
-1
> <PUBCHEM_COORDINATE_TYPE>
1
5
255
> <PUBCHEM_BONDANNOTATIONS>
19  23  8
19  24  8
21  22  3
23  26  8
24  27  8
26  28  8
27  28  8
31  32  8
31  33  8
32  34  8
33  35  8
34  36  8
35  36  8
$$$$
