508785
  -OEChem-10302200282D
 70 73  0     1  0  0  0  0  0999 V2000
    2.0000    7.4500    0.0000 Cl  0  0  0  0  0  0  0  0  0  0  0  0
    3.7251   -1.0954    0.0000 O   0  0  0  0  0  0  0  0  0  0  0  0
    3.5827   -2.4500    0.0000 O   0  0  0  0  0  0  0  0  0  0  0  0
    4.7647    3.7954    0.0000 N   0  0  0  0  0  0  0  0  0  0  0  0
    5.3148   -2.4500    0.0000 N   0  0  0  0  0  0  0  0  0  0  0  0
    4.8841    0.1918    0.0000 N   0  0  0  0  0  0  0  0  0  0  0  0
    4.3488    1.8391    0.0000 C   0  0  0  0  0  0  0  0  0  0  0  0
    5.2999    2.1481    0.0000 C   0  0  0  0  0  0  0  0  0  0  0  0
    3.6057    2.5082    0.0000 C   0  0  0  0  0  0  0  0  0  0  0  0
    5.5078    3.1262    0.0000 C   0  0  0  0  0  0  0  0  0  0  0  0
    3.8136    3.4863    0.0000 C   0  0  0  0  0  0  0  0  0  0  0  0
    4.1409    0.8609    0.0000 C   0  0  0  0  0  0  0  0  0  0  0  0
    5.4193   -1.4555    0.0000 C   0  0  3  0  0  0  0  0  0  0  0  0
    6.3975   -1.2476    0.0000 C   0  0  0  0  0  0  0  0  0  0  0  0
    6.8975   -2.1136    0.0000 C   0  0  0  0  0  0  0  0  0  0  0  0
    6.2283   -2.8568    0.0000 C   0  0  0  0  0  0  0  0  0  0  0  0
    4.6762   -0.7864    0.0000 C   0  0  0  0  0  0  0  0  0  0  0  0
    4.9726    4.7735    0.0000 C   0  0  0  0  0  0  0  0  0  0  0  0
    4.4488   -2.9500    0.0000 C   0  0  0  0  0  0  0  0  0  0  0  0
    4.2294    5.4426    0.0000 C   0  0  0  0  0  0  0  0  0  0  0  0
    4.4488   -3.9500    0.0000 C   0  0  0  0  0  0  0  0  0  0  0  0
    3.2784    5.1336    0.0000 C   0  0  0  0  0  0  0  0  0  0  0  0
    4.4374    6.4208    0.0000 C   0  0  0  0  0  0  0  0  0  0  0  0
    5.3148   -4.4500    0.0000 C   0  0  0  0  0  0  0  0  0  0  0  0
    3.5827   -4.4500    0.0000 C   0  0  0  0  0  0  0  0  0  0  0  0
    4.4488   -5.9500    0.0000 C   0  0  0  0  0  0  0  0  0  0  0  0
    2.5352    5.8027    0.0000 C   0  0  0  0  0  0  0  0  0  0  0  0
    3.6942    7.0899    0.0000 C   0  0  0  0  0  0  0  0  0  0  0  0
    5.3148   -5.4500    0.0000 C   0  0  0  0  0  0  0  0  0  0  0  0
    3.5827   -5.4500    0.0000 C   0  0  0  0  0  0  0  0  0  0  0  0
    4.4488   -6.9500    0.0000 C   0  0  0  0  0  0  0  0  0  0  0  0
    2.7431    6.7809    0.0000 C   0  0  0  0  0  0  0  0  0  0  0  0
    3.5827   -7.4500    0.0000 C   0  0  0  0  0  0  0  0  0  0  0  0
    5.3148   -7.4500    0.0000 C   0  0  0  0  0  0  0  0  0  0  0  0
    3.7592    1.6475    0.0000 H   0  0  0  0  0  0  0  0  0  0  0  0
    5.3862    1.5341    0.0000 H   0  0  0  0  0  0  0  0  0  0  0  0
    5.9195    2.1264    0.0000 H   0  0  0  0  0  0  0  0  0  0  0  0
    3.0308    2.7404    0.0000 H   0  0  0  0  0  0  0  0  0  0  0  0
    3.2772    1.9824    0.0000 H   0  0  0  0  0  0  0  0  0  0  0  0
    6.0827    2.8940    0.0000 H   0  0  0  0  0  0  0  0  0  0  0  0
    5.8364    3.6520    0.0000 H   0  0  0  0  0  0  0  0  0  0  0  0
    3.7273    4.1003    0.0000 H   0  0  0  0  0  0  0  0  0  0  0  0
    3.1940    3.5080    0.0000 H   0  0  0  0  0  0  0  0  0  0  0  0
    3.5661    1.0932    0.0000 H   0  0  0  0  0  0  0  0  0  0  0  0
    3.8124    0.3351    0.0000 H   0  0  0  0  0  0  0  0  0  0  0  0
    4.8405   -1.6777    0.0000 H   0  0  0  0  0  0  0  0  0  0  0  0
    6.9639   -0.9954    0.0000 H   0  0  0  0  0  0  0  0  0  0  0  0
    6.2059   -0.6579    0.0000 H   0  0  0  0  0  0  0  0  0  0  0  0
    7.3123   -2.5744    0.0000 H   0  0  0  0  0  0  0  0  0  0  0  0
    7.3990   -1.7492    0.0000 H   0  0  0  0  0  0  0  0  0  0  0  0
    5.9183   -3.3937    0.0000 H   0  0  0  0  0  0  0  0  0  0  0  0
    6.7299   -3.2212    0.0000 H   0  0  0  0  0  0  0  0  0  0  0  0
    5.4737    0.3834    0.0000 H   0  0  0  0  0  0  0  0  0  0  0  0
    5.5474    4.5412    0.0000 H   0  0  0  0  0  0  0  0  0  0  0  0
    5.3011    5.2993    0.0000 H   0  0  0  0  0  0  0  0  0  0  0  0
    3.1495    4.5272    0.0000 H   0  0  0  0  0  0  0  0  0  0  0  0
    5.0270    6.6124    0.0000 H   0  0  0  0  0  0  0  0  0  0  0  0
    5.8517   -4.1400    0.0000 H   0  0  0  0  0  0  0  0  0  0  0  0
    3.0458   -4.1400    0.0000 H   0  0  0  0  0  0  0  0  0  0  0  0
    1.9456    5.6112    0.0000 H   0  0  0  0  0  0  0  0  0  0  0  0
    3.8231    7.6964    0.0000 H   0  0  0  0  0  0  0  0  0  0  0  0
    5.8517   -5.7600    0.0000 H   0  0  0  0  0  0  0  0  0  0  0  0
    3.0458   -5.7600    0.0000 H   0  0  0  0  0  0  0  0  0  0  0  0
    4.4488   -7.5700    0.0000 H   0  0  0  0  0  0  0  0  0  0  0  0
    3.2727   -6.9131    0.0000 H   0  0  0  0  0  0  0  0  0  0  0  0
    3.0458   -7.7600    0.0000 H   0  0  0  0  0  0  0  0  0  0  0  0
    3.8927   -7.9870    0.0000 H   0  0  0  0  0  0  0  0  0  0  0  0
    5.0048   -7.9870    0.0000 H   0  0  0  0  0  0  0  0  0  0  0  0
    5.8517   -7.7600    0.0000 H   0  0  0  0  0  0  0  0  0  0  0  0
    5.6248   -6.9131    0.0000 H   0  0  0  0  0  0  0  0  0  0  0  0
  1 32  1  0  0  0  0
  2 17  2  0  0  0  0
  3 19  2  0  0  0  0
  4 10  1  0  0  0  0
  4 11  1  0  0  0  0
  4 18  1  0  0  0  0
  5 13  1  0  0  0  0
  5 16  1  0  0  0  0
  5 19  1  0  0  0  0
  6 12  1  0  0  0  0
  6 17  1  0  0  0  0
  6 53  1  0  0  0  0
  7  8  1  0  0  0  0
  7  9  1  0  0  0  0
  7 12  1  0  0  0  0
  7 35  1  0  0  0  0
  8 10  1  0  0  0  0
  8 36  1  0  0  0  0
  8 37  1  0  0  0  0
  9 11  1  0  0  0  0
  9 38  1  0  0  0  0
  9 39  1  0  0  0  0
 10 40  1  0  0  0  0
 10 41  1  0  0  0  0
 11 42  1  0  0  0  0
 11 43  1  0  0  0  0
 12 44  1  0  0  0  0
 12 45  1  0  0  0  0
 13 14  1  0  0  0  0
 13 17  1  0  0  0  0
 13 46  1  0  0  0  0
 14 15  1  0  0  0  0
 14 47  1  0  0  0  0
 14 48  1  0  0  0  0
 15 16  1  0  0  0  0
 15 49  1  0  0  0  0
 15 50  1  0  0  0  0
 16 51  1  0  0  0  0
 16 52  1  0  0  0  0
 18 20  1  0  0  0  0
 18 54  1  0  0  0  0
 18 55  1  0  0  0  0
 19 21  1  0  0  0  0
 20 22  2  0  0  0  0
 20 23  1  0  0  0  0
 21 24  2  0  0  0  0
 21 25  1  0  0  0  0
 22 27  1  0  0  0  0
 22 56  1  0  0  0  0
 23 28  2  0  0  0  0
 23 57  1  0  0  0  0
 24 29  1  0  0  0  0
 24 58  1  0  0  0  0
 25 30  2  0  0  0  0
 25 59  1  0  0  0  0
 26 29  2  0  0  0  0
 26 30  1  0  0  0  0
 26 31  1  0  0  0  0
 27 32  2  0  0  0  0
 27 60  1  0  0  0  0
 28 32  1  0  0  0  0
 28 61  1  0  0  0  0
 29 62  1  0  0  0  0
 30 63  1  0  0  0  0
 31 33  1  0  0  0  0
 31 34  1  0  0  0  0
 31 64  1  0  0  0  0
 33 65  1  0  0  0  0
 33 66  1  0  0  0  0
 33 67  1  0  0  0  0
 34 68  1  0  0  0  0
 34 69  1  0  0  0  0
 34 70  1  0  0  0  0
M  END
> <PUBCHEM_COMPOUND_CID>
508785
> <PUBCHEM_COMPOUND_CANONICALIZED>
1
> <PUBCHEM_CACTVS_COMPLEXITY>
663
> <PUBCHEM_CACTVS_HBOND_ACCEPTOR>
3
> <PUBCHEM_CACTVS_HBOND_DONOR>
1
> <PUBCHEM_CACTVS_ROTATABLE_BOND>
7
> <PUBCHEM_CACTVS_SUBSKEYS>
AAADcfB7MAAEAAAAAAAAAAAAAAAAAWAAAAA8YIAAAAAAAAABQAAAHgIQAAAADSrBmCQyAIPAAACIAiFSEACCAAAkBQAIiIGIBsgIYDKBlzGUIQhglgCIiYcYicCOxAAAAAAAAACIAAAAAAAAAAAAAAAAAA==
> <PUBCHEM_IUPAC_OPENEYE_NAME>
N-[[1-[(4-chlorophenyl)methyl]-4-piperidyl]methyl]-1-(4-isopropylbenzoyl)pyrrolidine-2-carboxamide
> <PUBCHEM_IUPAC_CAS_NAME>
N-[[1-[(4-chlorophenyl)methyl]-4-piperidinyl]methyl]-1-[oxo-(4-propan-2-ylphenyl)methyl]-2-pyrrolidinecarboxamide
> <PUBCHEM_IUPAC_NAME_MARKUP>
<I>N</I>-[[1-[(4-chlorophenyl)methyl]piperidin-4-yl]methyl]-1-(4-propan-2-ylbenzoyl)pyrrolidine-2-carboxamide
> <PUBCHEM_IUPAC_NAME>
N-[[1-[(4-chlorophenyl)methyl]piperidin-4-yl]methyl]-1-(4-propan-2-ylbenzoyl)pyrrolidine-2-carboxamide
> <PUBCHEM_IUPAC_SYSTEMATIC_NAME>
N-[[1-[(4-chlorophenyl)methyl]piperidin-4-yl]methyl]-1-(4-propan-2-ylphenyl)carbonyl-pyrrolidine-2-carboxamide
> <PUBCHEM_IUPAC_TRADITIONAL_NAME>
N-[[1-(4-chlorobenzyl)-4-piperidyl]methyl]-1-cumoyl-pyrrolidine-2-carboxamide
> <PUBCHEM_IUPAC_INCHI>
InChI=1S/C28H36ClN3O2/c1-20(2)23-7-9-24(10-8-23)28(34)32-15-3-4-26(32)27(33)30-18-21-13-16-31(17-14-21)19-22-5-11-25(29)12-6-22/h5-12,20-21,26H,3-4,13-19H2,1-2H3,(H,30,33)
> <PUBCHEM_IUPAC_INCHIKEY>
SUWBAGDTOGXGQF-UHFFFAOYSA-N
> <PUBCHEM_XLOGP3_AA>
5.3
> <PUBCHEM_EXACT_MASS>
481.2496051
> <PUBCHEM_MOLECULAR_FORMULA>
C28H36ClN3O2
> <PUBCHEM_MOLECULAR_WEIGHT>
482.1
> <PUBCHEM_OPENEYE_CAN_SMILES>
CC(C)C1=CC=C(C=C1)C(=O)N2CCCC2C(=O)NCC3CCN(CC3)CC4=CC=C(C=C4)Cl
> <PUBCHEM_OPENEYE_ISO_SMILES>
CC(C)C1=CC=C(C=C1)C(=O)N2CCCC2C(=O)NCC3CCN(CC3)CC4=CC=C(C=C4)Cl
> <PUBCHEM_CACTVS_TPSA>
52.6
> <PUBCHEM_MONOISOTOPIC_WEIGHT>
481.2496051
> <PUBCHEM_TOTAL_CHARGE>
0
> <PUBCHEM_HEAVY_ATOM_COUNT>
34
> <PUBCHEM_ATOM_DEF_STEREO_COUNT>
0
> <PUBCHEM_ATOM_UDEF_STEREO_COUNT>
1
> <PUBCHEM_BOND_DEF_STEREO_COUNT>
0
> <PUBCHEM_BOND_UDEF_STEREO_COUNT>
0
> <PUBCHEM_ISOTOPIC_ATOM_COUNT>
0
> <PUBCHEM_COMPONENT_COUNT>
1
> <PUBCHEM_CACTVS_TAUTO_COUNT>
-1
> <PUBCHEM_COORDINATE_TYPE>
1
5
255
> <PUBCHEM_BONDANNOTATIONS>
13  17  3
20  22  8
20  23  8
21  24  8
21  25  8
22  27  8
23  28  8
24  29  8
25  30  8
26  29  8
26  30  8
27  32  8
28  32  8
$$$$
