508728
  -OEChem-10302200282D
 48 50  0     1  0  0  0  0  0999 V2000
   11.2585    5.4840    0.0000 Cl  0  0  0  0  0  0  0  0  0  0  0  0
    2.0000   -4.4840    0.0000 F   0  0  0  0  0  0  0  0  0  0  0  0
    3.7320   -5.4840    0.0000 F   0  0  0  0  0  0  0  0  0  0  0  0
    6.3301    0.0160    0.0000 O   0  0  0  0  0  0  0  0  0  0  0  0
    2.8660   -0.9840    0.0000 O   0  0  0  0  0  0  0  0  0  0  0  0
    7.9128    2.3524    0.0000 N   0  0  3  0  0  0  0  0  0  0  0  0
    5.4641    1.5160    0.0000 N   0  0  0  0  0  0  0  0  0  0  0  0
    4.5981   -0.9840    0.0000 N   0  0  0  0  0  0  0  0  0  0  0  0
    6.3301    2.0160    0.0000 C   0  0  2  0  0  0  0  0  0  0  0  0
    6.4347    3.0106    0.0000 C   0  0  0  0  0  0  0  0  0  0  0  0
    7.2437    1.6093    0.0000 C   0  0  0  0  0  0  0  0  0  0  0  0
    7.4128    3.2185    0.0000 C   0  0  0  0  0  0  0  0  0  0  0  0
    8.9073    2.2479    0.0000 C   0  0  0  0  0  0  0  0  0  0  0  0
    9.4951    3.0569    0.0000 C   0  0  0  0  0  0  0  0  0  0  0  0
    5.4641    0.5160    0.0000 C   0  0  0  0  0  0  0  0  0  0  0  0
    4.5981    0.0160    0.0000 C   0  0  0  0  0  0  0  0  0  0  0  0
   10.4896    2.9524    0.0000 C   0  0  0  0  0  0  0  0  0  0  0  0
    9.0884    3.9705    0.0000 C   0  0  0  0  0  0  0  0  0  0  0  0
   11.0774    3.7614    0.0000 C   0  0  0  0  0  0  0  0  0  0  0  0
    9.6762    4.7795    0.0000 C   0  0  0  0  0  0  0  0  0  0  0  0
   10.6707    4.6750    0.0000 C   0  0  0  0  0  0  0  0  0  0  0  0
    3.7320   -1.4840    0.0000 C   0  0  0  0  0  0  0  0  0  0  0  0
    3.7320   -2.4840    0.0000 C   0  0  0  0  0  0  0  0  0  0  0  0
    2.8660   -2.9840    0.0000 C   0  0  0  0  0  0  0  0  0  0  0  0
    4.5981   -2.9840    0.0000 C   0  0  0  0  0  0  0  0  0  0  0  0
    2.8660   -3.9840    0.0000 C   0  0  0  0  0  0  0  0  0  0  0  0
    4.5981   -3.9840    0.0000 C   0  0  0  0  0  0  0  0  0  0  0  0
    3.7320   -4.4840    0.0000 C   0  0  0  0  0  0  0  0  0  0  0  0
    5.8102    2.3537    0.0000 H   0  0  0  0  0  0  0  0  0  0  0  0
    6.3698    3.6272    0.0000 H   0  0  0  0  0  0  0  0  0  0  0  0
    5.8147    3.0106    0.0000 H   0  0  0  0  0  0  0  0  0  0  0  0
    6.9337    1.0724    0.0000 H   0  0  0  0  0  0  0  0  0  0  0  0
    7.7453    1.2449    0.0000 H   0  0  0  0  0  0  0  0  0  0  0  0
    7.9792    3.4706    0.0000 H   0  0  0  0  0  0  0  0  0  0  0  0
    7.2212    3.8081    0.0000 H   0  0  0  0  0  0  0  0  0  0  0  0
    8.7364    1.6519    0.0000 H   0  0  0  0  0  0  0  0  0  0  0  0
    9.4646    1.9761    0.0000 H   0  0  0  0  0  0  0  0  0  0  0  0
    4.9272    1.8260    0.0000 H   0  0  0  0  0  0  0  0  0  0  0  0
    4.3860    0.5986    0.0000 H   0  0  0  0  0  0  0  0  0  0  0  0
    3.9875   -0.0916    0.0000 H   0  0  0  0  0  0  0  0  0  0  0  0
   10.7418    2.3860    0.0000 H   0  0  0  0  0  0  0  0  0  0  0  0
    8.4718    4.0353    0.0000 H   0  0  0  0  0  0  0  0  0  0  0  0
   11.6940    3.6966    0.0000 H   0  0  0  0  0  0  0  0  0  0  0  0
    9.4240    5.3459    0.0000 H   0  0  0  0  0  0  0  0  0  0  0  0
    5.1350   -1.2940    0.0000 H   0  0  0  0  0  0  0  0  0  0  0  0
    2.3291   -2.6740    0.0000 H   0  0  0  0  0  0  0  0  0  0  0  0
    5.1350   -2.6740    0.0000 H   0  0  0  0  0  0  0  0  0  0  0  0
    5.1350   -4.2940    0.0000 H   0  0  0  0  0  0  0  0  0  0  0  0
  1 21  1  0  0  0  0
  2 26  1  0  0  0  0
  3 28  1  0  0  0  0
  4 15  2  0  0  0  0
  5 22  2  0  0  0  0
  6 11  1  0  0  0  0
  6 12  1  0  0  0  0
  6 13  1  0  0  0  0
  9  7  1  6  0  0  0
  7 15  1  0  0  0  0
  7 38  1  0  0  0  0
  8 16  1  0  0  0  0
  8 22  1  0  0  0  0
  8 45  1  0  0  0  0
  9 10  1  0  0  0  0
  9 11  1  0  0  0  0
  9 29  1  0  0  0  0
 10 12  1  0  0  0  0
 10 30  1  0  0  0  0
 10 31  1  0  0  0  0
 11 32  1  0  0  0  0
 11 33  1  0  0  0  0
 12 34  1  0  0  0  0
 12 35  1  0  0  0  0
 13 14  1  0  0  0  0
 13 36  1  0  0  0  0
 13 37  1  0  0  0  0
 14 17  2  0  0  0  0
 14 18  1  0  0  0  0
 15 16  1  0  0  0  0
 16 39  1  0  0  0  0
 16 40  1  0  0  0  0
 17 19  1  0  0  0  0
 17 41  1  0  0  0  0
 18 20  2  0  0  0  0
 18 42  1  0  0  0  0
 19 21  2  0  0  0  0
 19 43  1  0  0  0  0
 20 21  1  0  0  0  0
 20 44  1  0  0  0  0
 22 23  1  0  0  0  0
 23 24  2  0  0  0  0
 23 25  1  0  0  0  0
 24 26  1  0  0  0  0
 24 46  1  0  0  0  0
 25 27  2  0  0  0  0
 25 47  1  0  0  0  0
 26 28  2  0  0  0  0
 27 28  1  0  0  0  0
 27 48  1  0  0  0  0
M  END
> <PUBCHEM_COMPOUND_CID>
508728
> <PUBCHEM_COMPOUND_CANONICALIZED>
1
> <PUBCHEM_CACTVS_COMPLEXITY>
546
> <PUBCHEM_CACTVS_HBOND_ACCEPTOR>
5
> <PUBCHEM_CACTVS_HBOND_DONOR>
2
> <PUBCHEM_CACTVS_ROTATABLE_BOND>
6
> <PUBCHEM_CACTVS_SUBSKEYS>
AAADceB7MYAEAAAAAAAAAAAAAAAAAWAAAAAwYAAAAAAAAAABQAAAHwIQAAAADCrBmCwwAIPAAACIAiFSEACCAAAkBQAIiIGIBsgIYDKB1zGUIQhglgCIiYcYiACOBAAAAAAAAAAIAAAAAAAAAAAAAAAAAA==
> <PUBCHEM_IUPAC_OPENEYE_NAME>
N-[2-[[(3R)-1-[(4-chlorophenyl)methyl]pyrrolidin-3-yl]amino]-2-oxo-ethyl]-3,4-difluoro-benzamide
> <PUBCHEM_IUPAC_CAS_NAME>
N-[2-[[(3R)-1-[(4-chlorophenyl)methyl]-3-pyrrolidinyl]amino]-2-oxoethyl]-3,4-difluorobenzamide
> <PUBCHEM_IUPAC_NAME_MARKUP>
<I>N</I>-[2-[[(3<I>R</I>)-1-[(4-chlorophenyl)methyl]pyrrolidin-3-yl]amino]-2-oxoethyl]-3,4-difluorobenzamide
> <PUBCHEM_IUPAC_NAME>
N-[2-[[(3R)-1-[(4-chlorophenyl)methyl]pyrrolidin-3-yl]amino]-2-oxoethyl]-3,4-difluorobenzamide
> <PUBCHEM_IUPAC_SYSTEMATIC_NAME>
N-[2-[[(3R)-1-[(4-chlorophenyl)methyl]pyrrolidin-3-yl]amino]-2-oxidanylidene-ethyl]-3,4-bis(fluoranyl)benzamide
> <PUBCHEM_IUPAC_TRADITIONAL_NAME>
N-[2-[[(3R)-1-(4-chlorobenzyl)pyrrolidin-3-yl]amino]-2-keto-ethyl]-3,4-difluoro-benzamide
> <PUBCHEM_IUPAC_INCHI>
InChI=1S/C20H20ClF2N3O2/c21-15-4-1-13(2-5-15)11-26-8-7-16(12-26)25-19(27)10-24-20(28)14-3-6-17(22)18(23)9-14/h1-6,9,16H,7-8,10-12H2,(H,24,28)(H,25,27)/t16-/m1/s1
> <PUBCHEM_IUPAC_INCHIKEY>
RQVWVFNNIUEOQW-MRXNPFEDSA-N
> <PUBCHEM_XLOGP3_AA>
3.1
> <PUBCHEM_EXACT_MASS>
407.1212109
> <PUBCHEM_MOLECULAR_FORMULA>
C20H20ClF2N3O2
> <PUBCHEM_MOLECULAR_WEIGHT>
407.8
> <PUBCHEM_OPENEYE_CAN_SMILES>
C1CN(CC1NC(=O)CNC(=O)C2=CC(=C(C=C2)F)F)CC3=CC=C(C=C3)Cl
> <PUBCHEM_OPENEYE_ISO_SMILES>
C1CN(C[C@@H]1NC(=O)CNC(=O)C2=CC(=C(C=C2)F)F)CC3=CC=C(C=C3)Cl
> <PUBCHEM_CACTVS_TPSA>
61.4
> <PUBCHEM_MONOISOTOPIC_WEIGHT>
407.1212109
> <PUBCHEM_TOTAL_CHARGE>
0
> <PUBCHEM_HEAVY_ATOM_COUNT>
28
> <PUBCHEM_ATOM_DEF_STEREO_COUNT>
1
> <PUBCHEM_ATOM_UDEF_STEREO_COUNT>
0
> <PUBCHEM_BOND_DEF_STEREO_COUNT>
0
> <PUBCHEM_BOND_UDEF_STEREO_COUNT>
0
> <PUBCHEM_ISOTOPIC_ATOM_COUNT>
0
> <PUBCHEM_COMPONENT_COUNT>
1
> <PUBCHEM_CACTVS_TAUTO_COUNT>
-1
> <PUBCHEM_COORDINATE_TYPE>
1
5
255
> <PUBCHEM_BONDANNOTATIONS>
14  17  8
14  18  8
17  19  8
18  20  8
19  21  8
20  21  8
23  24  8
23  25  8
24  26  8
25  27  8
26  28  8
27  28  8
9  7  6
$$$$
