508700
  -OEChem-10302200282D
 82 84  0     1  0  0  0  0  0999 V2000
    4.8494    3.4109    0.0000 S   0  0  0  0  0  0  0  0  0  0  0  0
    6.8529    1.1780    0.0000 O   0  0  0  0  0  0  0  0  0  0  0  0
    3.8989    3.7216    0.0000 O   0  0  0  0  0  0  0  0  0  0  0  0
    5.7999    3.1002    0.0000 O   0  0  0  0  0  0  0  0  0  0  0  0
    7.2566   -3.1622    0.0000 O   0  0  0  0  0  0  0  0  0  0  0  0
    8.2816   -5.6013    0.0000 O   0  0  0  0  0  0  0  0  0  0  0  0
    7.9244   -3.9065    0.0000 O   0  0  0  0  0  0  0  0  0  0  0  0
    4.5387    2.4604    0.0000 N   0  0  3  0  0  0  0  0  0  0  0  0
    5.6103   -2.6241    0.0000 N   0  0  0  0  0  0  0  0  0  0  0  0
    6.6353   -5.0632    0.0000 N   0  0  0  0  0  0  0  0  0  0  0  0
    4.6783   -7.0851    0.0000 N   0  0  0  0  0  0  0  0  0  0  0  0
    6.0920    7.2130    0.0000 N   0  0  0  0  0  0  0  0  0  0  0  0
    5.2066    1.7161    0.0000 C   0  0  1  0  0  0  0  0  0  0  0  0
    4.8959    0.7656    0.0000 C   0  0  0  0  0  0  0  0  0  0  0  0
    3.5602    2.2542    0.0000 C   0  0  0  0  0  0  0  0  0  0  0  0
    5.5637    0.0212    0.0000 C   0  0  0  0  0  0  0  0  0  0  0  0
    3.2496    1.3036    0.0000 C   0  0  0  0  0  0  0  0  0  0  0  0
    6.1851    1.9223    0.0000 C   0  0  0  0  0  0  0  0  0  0  0  0
    5.2531   -0.9293    0.0000 C   0  0  0  0  0  0  0  0  0  0  0  0
    5.1600    4.3614    0.0000 C   0  0  0  0  0  0  0  0  0  0  0  0
    5.9209   -1.6736    0.0000 C   0  0  0  0  0  0  0  0  0  0  0  0
    2.2710    1.0974    0.0000 C   0  0  0  0  0  0  0  0  0  0  0  0
    3.9174    0.5593    0.0000 C   0  0  0  0  0  0  0  0  0  0  0  0
    5.9674   -4.3189    0.0000 C   0  0  1  0  0  0  0  0  0  0  0  0
    4.4922    5.1057    0.0000 C   0  0  0  0  0  0  0  0  0  0  0  0
    6.1385    4.5676    0.0000 C   0  0  0  0  0  0  0  0  0  0  0  0
    4.9889   -4.5251    0.0000 C   0  0  0  0  0  0  0  0  0  0  0  0
    6.2781   -3.3684    0.0000 C   0  0  0  0  0  0  0  0  0  0  0  0
    4.6783   -5.4756    0.0000 C   0  0  0  0  0  0  0  0  0  0  0  0
    4.8029    6.0562    0.0000 C   0  0  0  0  0  0  0  0  0  0  0  0
    6.4492    5.5182    0.0000 C   0  0  0  0  0  0  0  0  0  0  0  0
    3.7320   -5.7804    0.0000 C   0  0  0  0  0  0  0  0  0  0  0  0
    5.7814    6.2624    0.0000 C   0  0  0  0  0  0  0  0  0  0  0  0
    3.7320   -6.7804    0.0000 C   0  0  0  0  0  0  0  0  0  0  0  0
    5.2619   -6.2804    0.0000 C   0  0  0  0  0  0  0  0  0  0  0  0
    2.8660   -5.2804    0.0000 C   0  0  0  0  0  0  0  0  0  0  0  0
    2.8660   -7.2804    0.0000 C   0  0  0  0  0  0  0  0  0  0  0  0
    7.6138   -4.8570    0.0000 C   0  0  0  0  0  0  0  0  0  0  0  0
    2.0000   -5.7804    0.0000 C   0  0  0  0  0  0  0  0  0  0  0  0
    2.0000   -6.7804    0.0000 C   0  0  0  0  0  0  0  0  0  0  0  0
    9.2601   -5.3951    0.0000 C   0  0  0  0  0  0  0  0  0  0  0  0
    5.3992    2.3054    0.0000 H   0  0  0  0  0  0  0  0  0  0  0  0
    4.3490    1.0576    0.0000 H   0  0  0  0  0  0  0  0  0  0  0  0
    4.5133    0.2776    0.0000 H   0  0  0  0  0  0  0  0  0  0  0  0
    3.5396    2.8738    0.0000 H   0  0  0  0  0  0  0  0  0  0  0  0
    2.9464    2.3415    0.0000 H   0  0  0  0  0  0  0  0  0  0  0  0
    6.1107   -0.2708    0.0000 H   0  0  0  0  0  0  0  0  0  0  0  0
    5.9463    0.5092    0.0000 H   0  0  0  0  0  0  0  0  0  0  0  0
    3.8562    1.4315    0.0000 H   0  0  0  0  0  0  0  0  0  0  0  0
    6.7114    2.2499    0.0000 H   0  0  0  0  0  0  0  0  0  0  0  0
    5.9538    2.4976    0.0000 H   0  0  0  0  0  0  0  0  0  0  0  0
    4.7062   -0.6373    0.0000 H   0  0  0  0  0  0  0  0  0  0  0  0
    4.8705   -1.4172    0.0000 H   0  0  0  0  0  0  0  0  0  0  0  0
    6.4678   -1.9656    0.0000 H   0  0  0  0  0  0  0  0  0  0  0  0
    6.3035   -1.1857    0.0000 H   0  0  0  0  0  0  0  0  0  0  0  0
    2.1432    1.7041    0.0000 H   0  0  0  0  0  0  0  0  0  0  0  0
    1.6644    0.9696    0.0000 H   0  0  0  0  0  0  0  0  0  0  0  0
    2.3989    0.4907    0.0000 H   0  0  0  0  0  0  0  0  0  0  0  0
    3.4559    0.1453    0.0000 H   0  0  0  0  0  0  0  0  0  0  0  0
    4.3314    0.0979    0.0000 H   0  0  0  0  0  0  0  0  0  0  0  0
    4.3789    0.9734    0.0000 H   0  0  0  0  0  0  0  0  0  0  0  0
    5.0036   -2.7520    0.0000 H   0  0  0  0  0  0  0  0  0  0  0  0
    7.4596    1.3058    0.0000 H   0  0  0  0  0  0  0  0  0  0  0  0
    5.7748   -4.9082    0.0000 H   0  0  0  0  0  0  0  0  0  0  0  0
    3.8855    4.9779    0.0000 H   0  0  0  0  0  0  0  0  0  0  0  0
    6.5526    4.1062    0.0000 H   0  0  0  0  0  0  0  0  0  0  0  0
    4.9684   -3.9055    0.0000 H   0  0  0  0  0  0  0  0  0  0  0  0
    4.3751   -4.4378    0.0000 H   0  0  0  0  0  0  0  0  0  0  0  0
    4.3888    6.5177    0.0000 H   0  0  0  0  0  0  0  0  0  0  0  0
    7.0559    5.6460    0.0000 H   0  0  0  0  0  0  0  0  0  0  0  0
    6.4427   -5.6525    0.0000 H   0  0  0  0  0  0  0  0  0  0  0  0
    5.8819   -6.2804    0.0000 H   0  0  0  0  0  0  0  0  0  0  0  0
    4.8709   -7.6744    0.0000 H   0  0  0  0  0  0  0  0  0  0  0  0
    2.8660   -4.6604    0.0000 H   0  0  0  0  0  0  0  0  0  0  0  0
    2.8660   -7.9004    0.0000 H   0  0  0  0  0  0  0  0  0  0  0  0
    1.4631   -5.4704    0.0000 H   0  0  0  0  0  0  0  0  0  0  0  0
    5.6780    7.6744    0.0000 H   0  0  0  0  0  0  0  0  0  0  0  0
    6.6987    7.3408    0.0000 H   0  0  0  0  0  0  0  0  0  0  0  0
    1.4631   -7.0904    0.0000 H   0  0  0  0  0  0  0  0  0  0  0  0
    9.3880   -6.0018    0.0000 H   0  0  0  0  0  0  0  0  0  0  0  0
    9.8668   -5.2672    0.0000 H   0  0  0  0  0  0  0  0  0  0  0  0
    9.1323   -4.7884    0.0000 H   0  0  0  0  0  0  0  0  0  0  0  0
  1  3  2  0  0  0  0
  1  4  2  0  0  0  0
  1  8  1  0  0  0  0
  1 20  1  0  0  0  0
  2 18  1  0  0  0  0
  2 63  1  0  0  0  0
  5 28  2  0  0  0  0
  6 38  1  0  0  0  0
  6 41  1  0  0  0  0
  7 38  2  0  0  0  0
 13  8  1  6  0  0  0
  8 15  1  0  0  0  0
  9 21  1  0  0  0  0
  9 28  1  0  0  0  0
  9 62  1  0  0  0  0
 24 10  1  1  0  0  0
 10 38  1  0  0  0  0
 10 71  1  0  0  0  0
 11 34  1  0  0  0  0
 11 35  1  0  0  0  0
 11 73  1  0  0  0  0
 12 33  1  0  0  0  0
 12 77  1  0  0  0  0
 12 78  1  0  0  0  0
 13 14  1  0  0  0  0
 13 18  1  0  0  0  0
 13 42  1  0  0  0  0
 14 16  1  0  0  0  0
 14 43  1  0  0  0  0
 14 44  1  0  0  0  0
 15 17  1  0  0  0  0
 15 45  1  0  0  0  0
 15 46  1  0  0  0  0
 16 19  1  0  0  0  0
 16 47  1  0  0  0  0
 16 48  1  0  0  0  0
 17 22  1  0  0  0  0
 17 23  1  0  0  0  0
 17 49  1  0  0  0  0
 18 50  1  0  0  0  0
 18 51  1  0  0  0  0
 19 21  1  0  0  0  0
 19 52  1  0  0  0  0
 19 53  1  0  0  0  0
 20 25  2  0  0  0  0
 20 26  1  0  0  0  0
 21 54  1  0  0  0  0
 21 55  1  0  0  0  0
 22 56  1  0  0  0  0
 22 57  1  0  0  0  0
 22 58  1  0  0  0  0
 23 59  1  0  0  0  0
 23 60  1  0  0  0  0
 23 61  1  0  0  0  0
 24 27  1  0  0  0  0
 24 28  1  0  0  0  0
 24 64  1  0  0  0  0
 25 30  1  0  0  0  0
 25 65  1  0  0  0  0
 26 31  2  0  0  0  0
 26 66  1  0  0  0  0
 27 29  1  0  0  0  0
 27 67  1  0  0  0  0
 27 68  1  0  0  0  0
 29 32  1  0  0  0  0
 29 35  2  0  0  0  0
 30 33  2  0  0  0  0
 30 69  1  0  0  0  0
 31 33  1  0  0  0  0
 31 70  1  0  0  0  0
 32 34  1  0  0  0  0
 32 36  2  0  0  0  0
 34 37  2  0  0  0  0
 35 72  1  0  0  0  0
 36 39  1  0  0  0  0
 36 74  1  0  0  0  0
 37 40  1  0  0  0  0
 37 75  1  0  0  0  0
 39 40  2  0  0  0  0
 39 76  1  0  0  0  0
 40 79  1  0  0  0  0
 41 80  1  0  0  0  0
 41 81  1  0  0  0  0
 41 82  1  0  0  0  0
M  END
> <PUBCHEM_COMPOUND_CID>
508700
> <PUBCHEM_COMPOUND_CANONICALIZED>
1
> <PUBCHEM_CACTVS_COMPLEXITY>
921
> <PUBCHEM_CACTVS_HBOND_ACCEPTOR>
8
> <PUBCHEM_CACTVS_HBOND_DONOR>
5
> <PUBCHEM_CACTVS_ROTATABLE_BOND>
16
> <PUBCHEM_CACTVS_SUBSKEYS>
AAADcfB7uABAAAAAAAAAAAAAAAAAAWAAAAAwYAAAAAAAAFgB9AAAHgQQSAAADSjh3gY+yfLJlgKoAzV3XHDCgDAxAiAI2bm4ZJkKcPLAkbGUYAhklgDYyAeYycCOgAQAAAACAAAACAAAAAQAAAAAAAAAAA==
> <PUBCHEM_IUPAC_OPENEYE_NAME>
methyl N-[(1S)-2-[[(5S)-5-[(4-aminophenyl)sulfonyl-isobutyl-amino]-6-hydroxy-hexyl]amino]-1-(1H-indol-3-ylmethyl)-2-oxo-ethyl]carbamate
> <PUBCHEM_IUPAC_CAS_NAME>
N-[(2S)-1-[[(5S)-5-[(4-aminophenyl)sulfonyl-(2-methylpropyl)amino]-6-hydroxyhexyl]amino]-3-(1H-indol-3-yl)-1-oxopropan-2-yl]carbamic acid methyl ester
> <PUBCHEM_IUPAC_NAME_MARKUP>
methyl <I>N</I>-[(2<I>S</I>)-1-[[(5<I>S</I>)-5-[(4-aminophenyl)sulfonyl-(2-methylpropyl)amino]-6-hydroxyhexyl]amino]-3-(1<I>H</I>-indol-3-yl)-1-oxopropan-2-yl]carbamate
> <PUBCHEM_IUPAC_NAME>
methyl N-[(2S)-1-[[(5S)-5-[(4-aminophenyl)sulfonyl-(2-methylpropyl)amino]-6-hydroxyhexyl]amino]-3-(1H-indol-3-yl)-1-oxopropan-2-yl]carbamate
> <PUBCHEM_IUPAC_SYSTEMATIC_NAME>
methyl N-[(2S)-1-[[(5S)-5-[(4-aminophenyl)sulfonyl-(2-methylpropyl)amino]-6-oxidanyl-hexyl]amino]-3-(1H-indol-3-yl)-1-oxidanylidene-propan-2-yl]carbamate
> <PUBCHEM_IUPAC_TRADITIONAL_NAME>
N-[(1S)-2-[[(5S)-6-hydroxy-5-[isobutyl(sulfanilyl)amino]hexyl]amino]-1-(1H-indol-3-ylmethyl)-2-keto-ethyl]carbamic acid methyl ester
> <PUBCHEM_IUPAC_INCHI>
InChI=1S/C29H41N5O6S/c1-20(2)18-34(41(38,39)24-13-11-22(30)12-14-24)23(19-35)8-6-7-15-31-28(36)27(33-29(37)40-3)16-21-17-32-26-10-5-4-9-25(21)26/h4-5,9-14,17,20,23,27,32,35H,6-8,15-16,18-19,30H2,1-3H3,(H,31,36)(H,33,37)/t23-,27-/m0/s1
> <PUBCHEM_IUPAC_INCHIKEY>
KLFMLSLUVACAEA-HOFKKMOUSA-N
> <PUBCHEM_XLOGP3_AA>
3.4
> <PUBCHEM_EXACT_MASS>
587.27775522
> <PUBCHEM_MOLECULAR_FORMULA>
C29H41N5O6S
> <PUBCHEM_MOLECULAR_WEIGHT>
587.7
> <PUBCHEM_OPENEYE_CAN_SMILES>
CC(C)CN(C(CCCCNC(=O)C(CC1=CNC2=CC=CC=C21)NC(=O)OC)CO)S(=O)(=O)C3=CC=C(C=C3)N
> <PUBCHEM_OPENEYE_ISO_SMILES>
CC(C)CN([C@@H](CCCCNC(=O)[C@H](CC1=CNC2=CC=CC=C21)NC(=O)OC)CO)S(=O)(=O)C3=CC=C(C=C3)N
> <PUBCHEM_CACTVS_TPSA>
175
> <PUBCHEM_MONOISOTOPIC_WEIGHT>
587.27775522
> <PUBCHEM_TOTAL_CHARGE>
0
> <PUBCHEM_HEAVY_ATOM_COUNT>
41
> <PUBCHEM_ATOM_DEF_STEREO_COUNT>
2
> <PUBCHEM_ATOM_UDEF_STEREO_COUNT>
0
> <PUBCHEM_BOND_DEF_STEREO_COUNT>
0
> <PUBCHEM_BOND_UDEF_STEREO_COUNT>
0
> <PUBCHEM_ISOTOPIC_ATOM_COUNT>
0
> <PUBCHEM_COMPONENT_COUNT>
1
> <PUBCHEM_CACTVS_TAUTO_COUNT>
4
> <PUBCHEM_COORDINATE_TYPE>
1
5
255
> <PUBCHEM_BONDANNOTATIONS>
24  10  5
11  34  8
11  35  8
20  25  8
20  26  8
25  30  8
26  31  8
29  32  8
29  35  8
30  33  8
31  33  8
32  34  8
32  36  8
34  37  8
36  39  8
37  40  8
39  40  8
13  8  6
$$$$
