508795
  -OEChem-10302200282D
 68 70  0     1  0  0  0  0  0999 V2000
   10.7942    7.2500    0.0000 Cl  0  0  0  0  0  0  0  0  0  0  0  0
    3.0000   -7.2500    0.0000 F   0  0  0  0  0  0  0  0  0  0  0  0
    2.0000   -6.2500    0.0000 F   0  0  0  0  0  0  0  0  0  0  0  0
    4.0000   -6.2500    0.0000 F   0  0  0  0  0  0  0  0  0  0  0  0
    7.3301   -0.7500    0.0000 O   0  0  0  0  0  0  0  0  0  0  0  0
    3.8660   -1.7500    0.0000 O   0  0  0  0  0  0  0  0  0  0  0  0
    3.0000    0.7500    0.0000 O   0  0  0  0  0  0  0  0  0  0  0  0
    3.0000   -5.2500    0.0000 O   0  0  0  0  0  0  0  0  0  0  0  0
    7.3301    4.2500    0.0000 N   0  0  0  0  0  0  0  0  0  0  0  0
    6.4641    0.7500    0.0000 N   0  0  0  0  0  0  0  0  0  0  0  0
    5.5981   -1.7500    0.0000 N   0  0  0  0  0  0  0  0  0  0  0  0
    3.8660    2.2500    0.0000 N   0  0  0  0  0  0  0  0  0  0  0  0
    7.3301    2.2500    0.0000 C   0  0  0  0  0  0  0  0  0  0  0  0
    6.4641    2.7500    0.0000 C   0  0  0  0  0  0  0  0  0  0  0  0
    8.1962    2.7500    0.0000 C   0  0  0  0  0  0  0  0  0  0  0  0
    6.4641    3.7500    0.0000 C   0  0  0  0  0  0  0  0  0  0  0  0
    8.1962    3.7500    0.0000 C   0  0  0  0  0  0  0  0  0  0  0  0
    7.3301    1.2500    0.0000 C   0  0  0  0  0  0  0  0  0  0  0  0
    7.3301    5.2500    0.0000 C   0  0  0  0  0  0  0  0  0  0  0  0
    8.1962    5.7500    0.0000 C   0  0  0  0  0  0  0  0  0  0  0  0
    6.4641   -0.2500    0.0000 C   0  0  0  0  0  0  0  0  0  0  0  0
    5.5981   -0.7500    0.0000 C   0  0  3  0  0  0  0  0  0  0  0  0
    4.7320   -0.2500    0.0000 C   0  0  0  0  0  0  0  0  0  0  0  0
    9.0622    5.2500    0.0000 C   0  0  0  0  0  0  0  0  0  0  0  0
    8.1962    6.7500    0.0000 C   0  0  0  0  0  0  0  0  0  0  0  0
    4.7320    0.7500    0.0000 C   0  0  0  0  0  0  0  0  0  0  0  0
    9.9282    5.7500    0.0000 C   0  0  0  0  0  0  0  0  0  0  0  0
    9.0622    7.2500    0.0000 C   0  0  0  0  0  0  0  0  0  0  0  0
    9.9282    6.7500    0.0000 C   0  0  0  0  0  0  0  0  0  0  0  0
    4.7320   -2.2500    0.0000 C   0  0  0  0  0  0  0  0  0  0  0  0
    3.8660    1.2500    0.0000 C   0  0  0  0  0  0  0  0  0  0  0  0
    4.7320   -3.2500    0.0000 C   0  0  0  0  0  0  0  0  0  0  0  0
    3.8660   -3.7500    0.0000 C   0  0  0  0  0  0  0  0  0  0  0  0
    5.5981   -3.7500    0.0000 C   0  0  0  0  0  0  0  0  0  0  0  0
    3.8660   -4.7500    0.0000 C   0  0  0  0  0  0  0  0  0  0  0  0
    5.5981   -4.7500    0.0000 C   0  0  0  0  0  0  0  0  0  0  0  0
    4.7320   -5.2500    0.0000 C   0  0  0  0  0  0  0  0  0  0  0  0
    3.0000   -6.2500    0.0000 C   0  0  0  0  0  0  0  0  0  0  0  0
    7.8671    1.9400    0.0000 H   0  0  0  0  0  0  0  0  0  0  0  0
    5.8535    2.8577    0.0000 H   0  0  0  0  0  0  0  0  0  0  0  0
    6.2520    2.1674    0.0000 H   0  0  0  0  0  0  0  0  0  0  0  0
    8.4082    2.1674    0.0000 H   0  0  0  0  0  0  0  0  0  0  0  0
    8.8067    2.8577    0.0000 H   0  0  0  0  0  0  0  0  0  0  0  0
    6.2520    4.3326    0.0000 H   0  0  0  0  0  0  0  0  0  0  0  0
    5.8535    3.6423    0.0000 H   0  0  0  0  0  0  0  0  0  0  0  0
    8.8067    3.6423    0.0000 H   0  0  0  0  0  0  0  0  0  0  0  0
    8.4082    4.3326    0.0000 H   0  0  0  0  0  0  0  0  0  0  0  0
    7.5422    0.6674    0.0000 H   0  0  0  0  0  0  0  0  0  0  0  0
    7.9407    1.3577    0.0000 H   0  0  0  0  0  0  0  0  0  0  0  0
    7.1181    5.8326    0.0000 H   0  0  0  0  0  0  0  0  0  0  0  0
    6.7196    5.1423    0.0000 H   0  0  0  0  0  0  0  0  0  0  0  0
    5.9272    1.0600    0.0000 H   0  0  0  0  0  0  0  0  0  0  0  0
    6.1350   -1.0600    0.0000 H   0  0  0  0  0  0  0  0  0  0  0  0
    4.1215   -0.1423    0.0000 H   0  0  0  0  0  0  0  0  0  0  0  0
    4.5200   -0.8326    0.0000 H   0  0  0  0  0  0  0  0  0  0  0  0
    9.0622    4.6300    0.0000 H   0  0  0  0  0  0  0  0  0  0  0  0
    7.6592    7.0600    0.0000 H   0  0  0  0  0  0  0  0  0  0  0  0
    6.1350   -2.0600    0.0000 H   0  0  0  0  0  0  0  0  0  0  0  0
    5.3426    0.6423    0.0000 H   0  0  0  0  0  0  0  0  0  0  0  0
    4.9441    1.3326    0.0000 H   0  0  0  0  0  0  0  0  0  0  0  0
   10.4651    5.4400    0.0000 H   0  0  0  0  0  0  0  0  0  0  0  0
    9.0622    7.8700    0.0000 H   0  0  0  0  0  0  0  0  0  0  0  0
    3.3291    2.5600    0.0000 H   0  0  0  0  0  0  0  0  0  0  0  0
    4.4030    2.5600    0.0000 H   0  0  0  0  0  0  0  0  0  0  0  0
    3.3291   -3.4400    0.0000 H   0  0  0  0  0  0  0  0  0  0  0  0
    6.1350   -3.4400    0.0000 H   0  0  0  0  0  0  0  0  0  0  0  0
    6.1350   -5.0600    0.0000 H   0  0  0  0  0  0  0  0  0  0  0  0
    4.7320   -5.8700    0.0000 H   0  0  0  0  0  0  0  0  0  0  0  0
  1 29  1  0  0  0  0
  2 38  1  0  0  0  0
  3 38  1  0  0  0  0
  4 38  1  0  0  0  0
  5 21  2  0  0  0  0
  6 30  2  0  0  0  0
  7 31  2  0  0  0  0
  8 35  1  0  0  0  0
  8 38  1  0  0  0  0
  9 16  1  0  0  0  0
  9 17  1  0  0  0  0
  9 19  1  0  0  0  0
 10 18  1  0  0  0  0
 10 21  1  0  0  0  0
 10 52  1  0  0  0  0
 11 22  1  0  0  0  0
 11 30  1  0  0  0  0
 11 58  1  0  0  0  0
 12 31  1  0  0  0  0
 12 63  1  0  0  0  0
 12 64  1  0  0  0  0
 13 14  1  0  0  0  0
 13 15  1  0  0  0  0
 13 18  1  0  0  0  0
 13 39  1  0  0  0  0
 14 16  1  0  0  0  0
 14 40  1  0  0  0  0
 14 41  1  0  0  0  0
 15 17  1  0  0  0  0
 15 42  1  0  0  0  0
 15 43  1  0  0  0  0
 16 44  1  0  0  0  0
 16 45  1  0  0  0  0
 17 46  1  0  0  0  0
 17 47  1  0  0  0  0
 18 48  1  0  0  0  0
 18 49  1  0  0  0  0
 19 20  1  0  0  0  0
 19 50  1  0  0  0  0
 19 51  1  0  0  0  0
 20 24  2  0  0  0  0
 20 25  1  0  0  0  0
 21 22  1  0  0  0  0
 22 23  1  0  0  0  0
 22 53  1  0  0  0  0
 23 26  1  0  0  0  0
 23 54  1  0  0  0  0
 23 55  1  0  0  0  0
 24 27  1  0  0  0  0
 24 56  1  0  0  0  0
 25 28  2  0  0  0  0
 25 57  1  0  0  0  0
 26 31  1  0  0  0  0
 26 59  1  0  0  0  0
 26 60  1  0  0  0  0
 27 29  2  0  0  0  0
 27 61  1  0  0  0  0
 28 29  1  0  0  0  0
 28 62  1  0  0  0  0
 30 32  1  0  0  0  0
 32 33  2  0  0  0  0
 32 34  1  0  0  0  0
 33 35  1  0  0  0  0
 33 65  1  0  0  0  0
 34 36  2  0  0  0  0
 34 66  1  0  0  0  0
 35 37  2  0  0  0  0
 36 37  1  0  0  0  0
 36 67  1  0  0  0  0
 37 68  1  0  0  0  0
M  END
> <PUBCHEM_COMPOUND_CID>
508795
> <PUBCHEM_COMPOUND_CANONICALIZED>
1
> <PUBCHEM_CACTVS_COMPLEXITY>
787
> <PUBCHEM_CACTVS_HBOND_ACCEPTOR>
8
> <PUBCHEM_CACTVS_HBOND_DONOR>
3
> <PUBCHEM_CACTVS_ROTATABLE_BOND>
11
> <PUBCHEM_CACTVS_SUBSKEYS>
AAADceB7uYAEAAAAAAAAAAAAAAAAAAAAAAA8YIAAAAAAAAABQAAAHwIQAAAADS7BmDQwBoPABACIAiFSEACCCAAkJQAIiIGODsgMZjKFtzuUMShk1hGIqYe+yxCOBAABAAAAAAAIAAIAAAAAAAAAAAAAAA==
> <PUBCHEM_IUPAC_OPENEYE_NAME>
N-[[1-[(4-chlorophenyl)methyl]-4-piperidyl]methyl]-2-[[3-(trifluoromethoxy)benzoyl]amino]pentanediamide
> <PUBCHEM_IUPAC_CAS_NAME>
N-[[1-[(4-chlorophenyl)methyl]-4-piperidinyl]methyl]-2-[[oxo-[3-(trifluoromethoxy)phenyl]methyl]amino]pentanediamide
> <PUBCHEM_IUPAC_NAME_MARKUP>
<I>N</I>-[[1-[(4-chlorophenyl)methyl]piperidin-4-yl]methyl]-2-[[3-(trifluoromethoxy)benzoyl]amino]pentanediamide
> <PUBCHEM_IUPAC_NAME>
N-[[1-[(4-chlorophenyl)methyl]piperidin-4-yl]methyl]-2-[[3-(trifluoromethoxy)benzoyl]amino]pentanediamide
> <PUBCHEM_IUPAC_SYSTEMATIC_NAME>
N-[[1-[(4-chlorophenyl)methyl]piperidin-4-yl]methyl]-2-[[3-(trifluoromethyloxy)phenyl]carbonylamino]pentanediamide
> <PUBCHEM_IUPAC_TRADITIONAL_NAME>
N-[[1-(4-chlorobenzyl)-4-piperidyl]methyl]-2-[[3-(trifluoromethoxy)benzoyl]amino]glutaramide
> <PUBCHEM_IUPAC_INCHI>
InChI=1S/C26H30ClF3N4O4/c27-20-6-4-18(5-7-20)16-34-12-10-17(11-13-34)15-32-25(37)22(8-9-23(31)35)33-24(36)19-2-1-3-21(14-19)38-26(28,29)30/h1-7,14,17,22H,8-13,15-16H2,(H2,31,35)(H,32,37)(H,33,36)
> <PUBCHEM_IUPAC_INCHIKEY>
MWQWTOSXYUWAEG-UHFFFAOYSA-N
> <PUBCHEM_XLOGP3_AA>
3.9
> <PUBCHEM_EXACT_MASS>
554.1907676
> <PUBCHEM_MOLECULAR_FORMULA>
C26H30ClF3N4O4
> <PUBCHEM_MOLECULAR_WEIGHT>
555.0
> <PUBCHEM_OPENEYE_CAN_SMILES>
C1CN(CCC1CNC(=O)C(CCC(=O)N)NC(=O)C2=CC(=CC=C2)OC(F)(F)F)CC3=CC=C(C=C3)Cl
> <PUBCHEM_OPENEYE_ISO_SMILES>
C1CN(CCC1CNC(=O)C(CCC(=O)N)NC(=O)C2=CC(=CC=C2)OC(F)(F)F)CC3=CC=C(C=C3)Cl
> <PUBCHEM_CACTVS_TPSA>
114
> <PUBCHEM_MONOISOTOPIC_WEIGHT>
554.1907676
> <PUBCHEM_TOTAL_CHARGE>
0
> <PUBCHEM_HEAVY_ATOM_COUNT>
38
> <PUBCHEM_ATOM_DEF_STEREO_COUNT>
0
> <PUBCHEM_ATOM_UDEF_STEREO_COUNT>
1
> <PUBCHEM_BOND_DEF_STEREO_COUNT>
0
> <PUBCHEM_BOND_UDEF_STEREO_COUNT>
0
> <PUBCHEM_ISOTOPIC_ATOM_COUNT>
0
> <PUBCHEM_COMPONENT_COUNT>
1
> <PUBCHEM_CACTVS_TAUTO_COUNT>
-1
> <PUBCHEM_COORDINATE_TYPE>
1
5
255
> <PUBCHEM_BONDANNOTATIONS>
20  24  8
20  25  8
22  23  3
24  27  8
25  28  8
27  29  8
28  29  8
32  33  8
32  34  8
33  35  8
34  36  8
35  37  8
36  37  8
$$$$
