508722
  -OEChem-10302200282D
 83 84  0     1  0  0  0  0  0999 V2000
    4.5981   -0.9050    0.0000 S   0  0  0  0  0  0  0  0  0  0  0  0
    5.5981   -0.9050    0.0000 O   0  0  0  0  0  0  0  0  0  0  0  0
    3.5981   -0.9050    0.0000 O   0  0  0  0  0  0  0  0  0  0  0  0
    6.3301    2.0950    0.0000 O   0  0  0  0  0  0  0  0  0  0  0  0
    4.5981    2.0950    0.0000 O   0  0  0  0  0  0  0  0  0  0  0  0
   10.6603    1.5950    0.0000 O   0  0  0  0  0  0  0  0  0  0  0  0
   11.5263    2.0950    0.0000 O   0  0  0  0  0  0  0  0  0  0  0  0
   14.1244    4.5950    0.0000 O   0  0  0  0  0  0  0  0  0  0  0  0
    4.5981    0.0950    0.0000 N   0  0  3  0  0  0  0  0  0  0  0  0
    9.7942    0.0950    0.0000 N   0  0  0  0  0  0  0  0  0  0  0  0
   12.3923    0.5950    0.0000 N   0  0  0  0  0  0  0  0  0  0  0  0
   13.2583    2.0950    0.0000 N   0  0  0  0  0  0  0  0  0  0  0  0
    5.4641    0.5950    0.0000 C   0  0  1  0  0  0  0  0  0  0  0  0
    6.3301    0.0950    0.0000 C   0  0  0  0  0  0  0  0  0  0  0  0
    3.7320    0.5950    0.0000 C   0  0  0  0  0  0  0  0  0  0  0  0
    2.8660    0.0950    0.0000 C   0  0  0  0  0  0  0  0  0  0  0  0
    7.1962    0.5950    0.0000 C   0  0  0  0  0  0  0  0  0  0  0  0
    8.0622    0.0950    0.0000 C   0  0  0  0  0  0  0  0  0  0  0  0
    5.4641    1.5950    0.0000 C   0  0  0  0  0  0  0  0  0  0  0  0
    4.5981   -1.9050    0.0000 C   0  0  0  0  0  0  0  0  0  0  0  0
    2.0000    0.5950    0.0000 C   0  0  0  0  0  0  0  0  0  0  0  0
    2.8660   -0.9050    0.0000 C   0  0  0  0  0  0  0  0  0  0  0  0
    8.9282    0.5950    0.0000 C   0  0  0  0  0  0  0  0  0  0  0  0
    3.7320   -2.4050    0.0000 C   0  0  0  0  0  0  0  0  0  0  0  0
    5.4641   -2.4050    0.0000 C   0  0  0  0  0  0  0  0  0  0  0  0
   11.5263    0.0950    0.0000 C   0  0  2  0  0  0  0  0  0  0  0  0
   10.6603    0.5950    0.0000 C   0  0  0  0  0  0  0  0  0  0  0  0
    3.7320   -3.4050    0.0000 C   0  0  0  0  0  0  0  0  0  0  0  0
    5.4641   -3.4050    0.0000 C   0  0  0  0  0  0  0  0  0  0  0  0
   11.5263   -0.9050    0.0000 C   0  0  0  0  0  0  0  0  0  0  0  0
    4.5981   -3.9050    0.0000 C   0  0  0  0  0  0  0  0  0  0  0  0
   12.3923   -1.4050    0.0000 C   0  0  0  0  0  0  0  0  0  0  0  0
    4.5981   -4.9050    0.0000 C   0  0  0  0  0  0  0  0  0  0  0  0
   12.3923    1.5950    0.0000 C   0  0  0  0  0  0  0  0  0  0  0  0
   13.2583   -0.9050    0.0000 C   0  0  0  0  0  0  0  0  0  0  0  0
   12.3923   -2.4050    0.0000 C   0  0  0  0  0  0  0  0  0  0  0  0
   14.1244   -1.4050    0.0000 C   0  0  0  0  0  0  0  0  0  0  0  0
   13.2583   -2.9050    0.0000 C   0  0  0  0  0  0  0  0  0  0  0  0
   14.1244   -2.4050    0.0000 C   0  0  0  0  0  0  0  0  0  0  0  0
   13.2583    3.0950    0.0000 C   0  0  0  0  0  0  0  0  0  0  0  0
   14.1244    3.5950    0.0000 C   0  0  0  0  0  0  0  0  0  0  0  0
    5.4641   -0.0250    0.0000 H   0  0  0  0  0  0  0  0  0  0  0  0
    5.9316   -0.3799    0.0000 H   0  0  0  0  0  0  0  0  0  0  0  0
    6.7287   -0.3799    0.0000 H   0  0  0  0  0  0  0  0  0  0  0  0
    4.1306    1.0700    0.0000 H   0  0  0  0  0  0  0  0  0  0  0  0
    3.3335    1.0700    0.0000 H   0  0  0  0  0  0  0  0  0  0  0  0
    2.8660    0.7150    0.0000 H   0  0  0  0  0  0  0  0  0  0  0  0
    7.5947    1.0700    0.0000 H   0  0  0  0  0  0  0  0  0  0  0  0
    6.7976    1.0700    0.0000 H   0  0  0  0  0  0  0  0  0  0  0  0
    7.6636   -0.3799    0.0000 H   0  0  0  0  0  0  0  0  0  0  0  0
    8.4607   -0.3799    0.0000 H   0  0  0  0  0  0  0  0  0  0  0  0
    2.3100    1.1319    0.0000 H   0  0  0  0  0  0  0  0  0  0  0  0
    1.4631    0.9050    0.0000 H   0  0  0  0  0  0  0  0  0  0  0  0
    1.6900    0.0581    0.0000 H   0  0  0  0  0  0  0  0  0  0  0  0
    2.2460   -0.9050    0.0000 H   0  0  0  0  0  0  0  0  0  0  0  0
    2.8660   -1.5250    0.0000 H   0  0  0  0  0  0  0  0  0  0  0  0
    3.4860   -0.9050    0.0000 H   0  0  0  0  0  0  0  0  0  0  0  0
    9.3267    1.0700    0.0000 H   0  0  0  0  0  0  0  0  0  0  0  0
    8.5297    1.0700    0.0000 H   0  0  0  0  0  0  0  0  0  0  0  0
    9.7942   -0.5250    0.0000 H   0  0  0  0  0  0  0  0  0  0  0  0
    3.1951   -2.0950    0.0000 H   0  0  0  0  0  0  0  0  0  0  0  0
    6.0010   -2.0950    0.0000 H   0  0  0  0  0  0  0  0  0  0  0  0
   12.0632   -0.2150    0.0000 H   0  0  0  0  0  0  0  0  0  0  0  0
    6.3301    2.7150    0.0000 H   0  0  0  0  0  0  0  0  0  0  0  0
    3.1951   -3.7150    0.0000 H   0  0  0  0  0  0  0  0  0  0  0  0
    6.0010   -3.7150    0.0000 H   0  0  0  0  0  0  0  0  0  0  0  0
   10.9157   -0.7973    0.0000 H   0  0  0  0  0  0  0  0  0  0  0  0
   11.3142   -1.4876    0.0000 H   0  0  0  0  0  0  0  0  0  0  0  0
   12.9292    0.2850    0.0000 H   0  0  0  0  0  0  0  0  0  0  0  0
    3.9781   -4.9050    0.0000 H   0  0  0  0  0  0  0  0  0  0  0  0
    4.5981   -5.5250    0.0000 H   0  0  0  0  0  0  0  0  0  0  0  0
    5.2181   -4.9050    0.0000 H   0  0  0  0  0  0  0  0  0  0  0  0
   13.2583   -0.2850    0.0000 H   0  0  0  0  0  0  0  0  0  0  0  0
   11.8554   -2.7150    0.0000 H   0  0  0  0  0  0  0  0  0  0  0  0
   14.6613   -1.0950    0.0000 H   0  0  0  0  0  0  0  0  0  0  0  0
   13.2583   -3.5250    0.0000 H   0  0  0  0  0  0  0  0  0  0  0  0
   13.7953    1.7850    0.0000 H   0  0  0  0  0  0  0  0  0  0  0  0
   14.6613   -2.7150    0.0000 H   0  0  0  0  0  0  0  0  0  0  0  0
   13.0463    3.6776    0.0000 H   0  0  0  0  0  0  0  0  0  0  0  0
   12.6477    2.9873    0.0000 H   0  0  0  0  0  0  0  0  0  0  0  0
   14.3364    3.0124    0.0000 H   0  0  0  0  0  0  0  0  0  0  0  0
   14.7349    3.7027    0.0000 H   0  0  0  0  0  0  0  0  0  0  0  0
   14.6613    4.9050    0.0000 H   0  0  0  0  0  0  0  0  0  0  0  0
  1  2  2  0  0  0  0
  1  3  2  0  0  0  0
  1  9  1  0  0  0  0
  1 20  1  0  0  0  0
  4 19  1  0  0  0  0
  4 64  1  0  0  0  0
  5 19  2  0  0  0  0
  6 27  2  0  0  0  0
  7 34  2  0  0  0  0
  8 41  1  0  0  0  0
  8 83  1  0  0  0  0
 13  9  1  6  0  0  0
  9 15  1  0  0  0  0
 10 23  1  0  0  0  0
 10 27  1  0  0  0  0
 10 60  1  0  0  0  0
 26 11  1  1  0  0  0
 11 34  1  0  0  0  0
 11 69  1  0  0  0  0
 12 34  1  0  0  0  0
 12 40  1  0  0  0  0
 12 77  1  0  0  0  0
 13 14  1  0  0  0  0
 13 19  1  0  0  0  0
 13 42  1  0  0  0  0
 14 17  1  0  0  0  0
 14 43  1  0  0  0  0
 14 44  1  0  0  0  0
 15 16  1  0  0  0  0
 15 45  1  0  0  0  0
 15 46  1  0  0  0  0
 16 21  1  0  0  0  0
 16 22  1  0  0  0  0
 16 47  1  0  0  0  0
 17 18  1  0  0  0  0
 17 48  1  0  0  0  0
 17 49  1  0  0  0  0
 18 23  1  0  0  0  0
 18 50  1  0  0  0  0
 18 51  1  0  0  0  0
 20 24  2  0  0  0  0
 20 25  1  0  0  0  0
 21 52  1  0  0  0  0
 21 53  1  0  0  0  0
 21 54  1  0  0  0  0
 22 55  1  0  0  0  0
 22 56  1  0  0  0  0
 22 57  1  0  0  0  0
 23 58  1  0  0  0  0
 23 59  1  0  0  0  0
 24 28  1  0  0  0  0
 24 61  1  0  0  0  0
 25 29  2  0  0  0  0
 25 62  1  0  0  0  0
 26 27  1  0  0  0  0
 26 30  1  0  0  0  0
 26 63  1  0  0  0  0
 28 31  2  0  0  0  0
 28 65  1  0  0  0  0
 29 31  1  0  0  0  0
 29 66  1  0  0  0  0
 30 32  1  0  0  0  0
 30 67  1  0  0  0  0
 30 68  1  0  0  0  0
 31 33  1  0  0  0  0
 32 35  2  0  0  0  0
 32 36  1  0  0  0  0
 33 70  1  0  0  0  0
 33 71  1  0  0  0  0
 33 72  1  0  0  0  0
 35 37  1  0  0  0  0
 35 73  1  0  0  0  0
 36 38  2  0  0  0  0
 36 74  1  0  0  0  0
 37 39  2  0  0  0  0
 37 75  1  0  0  0  0
 38 39  1  0  0  0  0
 38 76  1  0  0  0  0
 39 78  1  0  0  0  0
 40 41  1  0  0  0  0
 40 79  1  0  0  0  0
 40 80  1  0  0  0  0
 41 81  1  0  0  0  0
 41 82  1  0  0  0  0
M  END
> <PUBCHEM_COMPOUND_CID>
508722
> <PUBCHEM_COMPOUND_CANONICALIZED>
1
> <PUBCHEM_CACTVS_COMPLEXITY>
911
> <PUBCHEM_CACTVS_HBOND_ACCEPTOR>
8
> <PUBCHEM_CACTVS_HBOND_DONOR>
5
> <PUBCHEM_CACTVS_ROTATABLE_BOND>
17
> <PUBCHEM_CACTVS_SUBSKEYS>
AAADcfB7uABAAAAAAAAAAAAAAAAAAAAAAAAwYAAAAAAAAAABQAAAHgQQSAAADSjh2AYzCYLAAgKIAiHSGHBCABAgAAAIiJmIAIiKcDKAkTGUYAAslgKYiAeYyICOEAAAAAAAAAAgAAAAAAAAAAAAAAAAAA==
> <PUBCHEM_IUPAC_OPENEYE_NAME>
(2S)-6-[[(2S)-2-(2-hydroxyethylcarbamoylamino)-3-phenyl-propanoyl]amino]-2-[isobutyl(p-tolylsulfonyl)amino]hexanoic acid
> <PUBCHEM_IUPAC_CAS_NAME>
(2S)-6-[[(2S)-2-[[(2-hydroxyethylamino)-oxomethyl]amino]-1-oxo-3-phenylpropyl]amino]-2-[(4-methylphenyl)sulfonyl-(2-methylpropyl)amino]hexanoic acid
> <PUBCHEM_IUPAC_NAME_MARKUP>
(2<I>S</I>)-6-[[(2<I>S</I>)-2-(2-hydroxyethylcarbamoylamino)-3-phenylpropanoyl]amino]-2-[(4-methylphenyl)sulfonyl-(2-methylpropyl)amino]hexanoic acid
> <PUBCHEM_IUPAC_NAME>
(2S)-6-[[(2S)-2-(2-hydroxyethylcarbamoylamino)-3-phenylpropanoyl]amino]-2-[(4-methylphenyl)sulfonyl-(2-methylpropyl)amino]hexanoic acid
> <PUBCHEM_IUPAC_SYSTEMATIC_NAME>
(2S)-6-[[(2S)-2-(2-hydroxyethylcarbamoylamino)-3-phenyl-propanoyl]amino]-2-[(4-methylphenyl)sulfonyl-(2-methylpropyl)amino]hexanoic acid
> <PUBCHEM_IUPAC_TRADITIONAL_NAME>
(2S)-6-[[(2S)-2-(2-hydroxyethylcarbamoylamino)-3-phenyl-propanoyl]amino]-2-[isobutyl(tosyl)amino]hexanoic acid
> <PUBCHEM_IUPAC_INCHI>
InChI=1S/C29H42N4O7S/c1-21(2)20-33(41(39,40)24-14-12-22(3)13-15-24)26(28(36)37)11-7-8-16-30-27(35)25(32-29(38)31-17-18-34)19-23-9-5-4-6-10-23/h4-6,9-10,12-15,21,25-26,34H,7-8,11,16-20H2,1-3H3,(H,30,35)(H,36,37)(H2,31,32,38)/t25-,26-/m0/s1
> <PUBCHEM_IUPAC_INCHIKEY>
UUJKQTSOGKEUCJ-UIOOFZCWSA-N
> <PUBCHEM_XLOGP3_AA>
3.3
> <PUBCHEM_EXACT_MASS>
590.27742087
> <PUBCHEM_MOLECULAR_FORMULA>
C29H42N4O7S
> <PUBCHEM_MOLECULAR_WEIGHT>
590.7
> <PUBCHEM_OPENEYE_CAN_SMILES>
CC1=CC=C(C=C1)S(=O)(=O)N(CC(C)C)C(CCCCNC(=O)C(CC2=CC=CC=C2)NC(=O)NCCO)C(=O)O
> <PUBCHEM_OPENEYE_ISO_SMILES>
CC1=CC=C(C=C1)S(=O)(=O)N(CC(C)C)[C@@H](CCCCNC(=O)[C@H](CC2=CC=CC=C2)NC(=O)NCCO)C(=O)O
> <PUBCHEM_CACTVS_TPSA>
174
> <PUBCHEM_MONOISOTOPIC_WEIGHT>
590.27742087
> <PUBCHEM_TOTAL_CHARGE>
0
> <PUBCHEM_HEAVY_ATOM_COUNT>
41
> <PUBCHEM_ATOM_DEF_STEREO_COUNT>
2
> <PUBCHEM_ATOM_UDEF_STEREO_COUNT>
0
> <PUBCHEM_BOND_DEF_STEREO_COUNT>
0
> <PUBCHEM_BOND_UDEF_STEREO_COUNT>
0
> <PUBCHEM_ISOTOPIC_ATOM_COUNT>
0
> <PUBCHEM_COMPONENT_COUNT>
1
> <PUBCHEM_CACTVS_TAUTO_COUNT>
-1
> <PUBCHEM_COORDINATE_TYPE>
1
5
255
> <PUBCHEM_BONDANNOTATIONS>
26  11  5
20  24  8
20  25  8
24  28  8
25  29  8
28  31  8
29  31  8
32  35  8
32  36  8
35  37  8
36  38  8
37  39  8
38  39  8
13  9  6
$$$$
