508772
  -OEChem-10302200282D
 60 63  0     1  0  0  0  0  0999 V2000
   15.7619   -3.5311    0.0000 Cl  0  0  0  0  0  0  0  0  0  0  0  0
    4.6783    1.7264    0.0000 S   0  0  0  0  0  0  0  0  0  0  0  0
    7.7619   -0.0670    0.0000 O   0  0  0  0  0  0  0  0  0  0  0  0
    6.7619    3.3971    0.0000 O   0  0  0  0  0  0  0  0  0  0  0  0
   12.7619   -0.0670    0.0000 N   0  0  0  0  0  0  0  0  0  0  0  0
    9.2619    0.7990    0.0000 N   0  0  0  0  0  0  0  0  0  0  0  0
    6.7619    1.6651    0.0000 N   0  0  0  0  0  0  0  0  0  0  0  0
   10.7619   -0.0670    0.0000 C   0  0  0  0  0  0  0  0  0  0  0  0
   11.2619    0.7990    0.0000 C   0  0  0  0  0  0  0  0  0  0  0  0
   11.2619   -0.9330    0.0000 C   0  0  0  0  0  0  0  0  0  0  0  0
   12.2619    0.7990    0.0000 C   0  0  0  0  0  0  0  0  0  0  0  0
   12.2619   -0.9330    0.0000 C   0  0  0  0  0  0  0  0  0  0  0  0
    9.7619   -0.0670    0.0000 C   0  0  0  0  0  0  0  0  0  0  0  0
   13.7619   -0.0670    0.0000 C   0  0  0  0  0  0  0  0  0  0  0  0
   14.2619   -0.9330    0.0000 C   0  0  0  0  0  0  0  0  0  0  0  0
    8.2619    0.7990    0.0000 C   0  0  0  0  0  0  0  0  0  0  0  0
    7.7619    1.6651    0.0000 C   0  0  3  0  0  0  0  0  0  0  0  0
   15.2619   -0.9330    0.0000 C   0  0  0  0  0  0  0  0  0  0  0  0
   13.7619   -1.7990    0.0000 C   0  0  0  0  0  0  0  0  0  0  0  0
    8.2619    2.5311    0.0000 C   0  0  0  0  0  0  0  0  0  0  0  0
   15.7619   -1.7990    0.0000 C   0  0  0  0  0  0  0  0  0  0  0  0
   14.2619   -2.6651    0.0000 C   0  0  0  0  0  0  0  0  0  0  0  0
   15.2619   -2.6651    0.0000 C   0  0  0  0  0  0  0  0  0  0  0  0
    6.2619    2.5311    0.0000 C   0  0  0  0  0  0  0  0  0  0  0  0
    5.2619    2.5311    0.0000 C   0  0  0  0  0  0  0  0  0  0  0  0
    4.6783    3.3358    0.0000 C   0  0  0  0  0  0  0  0  0  0  0  0
    3.7320    3.0311    0.0000 C   0  0  0  0  0  0  0  0  0  0  0  0
    3.7320    2.0311    0.0000 C   0  0  0  0  0  0  0  0  0  0  0  0
    2.8660    3.5311    0.0000 C   0  0  0  0  0  0  0  0  0  0  0  0
    2.8660    1.5311    0.0000 C   0  0  0  0  0  0  0  0  0  0  0  0
    2.0000    3.0311    0.0000 C   0  0  0  0  0  0  0  0  0  0  0  0
    2.0000    2.0311    0.0000 C   0  0  0  0  0  0  0  0  0  0  0  0
   10.4519    0.4699    0.0000 H   0  0  0  0  0  0  0  0  0  0  0  0
   11.3695    1.4096    0.0000 H   0  0  0  0  0  0  0  0  0  0  0  0
   10.6793    1.0111    0.0000 H   0  0  0  0  0  0  0  0  0  0  0  0
   10.6793   -1.1451    0.0000 H   0  0  0  0  0  0  0  0  0  0  0  0
   11.3695   -1.5436    0.0000 H   0  0  0  0  0  0  0  0  0  0  0  0
   12.8445    1.0111    0.0000 H   0  0  0  0  0  0  0  0  0  0  0  0
   12.1542    1.4096    0.0000 H   0  0  0  0  0  0  0  0  0  0  0  0
   12.1542   -1.5436    0.0000 H   0  0  0  0  0  0  0  0  0  0  0  0
   12.8445   -1.1451    0.0000 H   0  0  0  0  0  0  0  0  0  0  0  0
    9.1793   -0.2790    0.0000 H   0  0  0  0  0  0  0  0  0  0  0  0
    9.8695   -0.6776    0.0000 H   0  0  0  0  0  0  0  0  0  0  0  0
   14.3445    0.1451    0.0000 H   0  0  0  0  0  0  0  0  0  0  0  0
   13.6542    0.5436    0.0000 H   0  0  0  0  0  0  0  0  0  0  0  0
    9.5719    1.3360    0.0000 H   0  0  0  0  0  0  0  0  0  0  0  0
    7.4519    2.2020    0.0000 H   0  0  0  0  0  0  0  0  0  0  0  0
   15.5719   -0.3961    0.0000 H   0  0  0  0  0  0  0  0  0  0  0  0
   13.1419   -1.7990    0.0000 H   0  0  0  0  0  0  0  0  0  0  0  0
    8.7988    2.2211    0.0000 H   0  0  0  0  0  0  0  0  0  0  0  0
    8.5719    3.0680    0.0000 H   0  0  0  0  0  0  0  0  0  0  0  0
    7.7249    2.8411    0.0000 H   0  0  0  0  0  0  0  0  0  0  0  0
    6.4519    1.1281    0.0000 H   0  0  0  0  0  0  0  0  0  0  0  0
   16.3819   -1.7990    0.0000 H   0  0  0  0  0  0  0  0  0  0  0  0
   13.9519   -3.2020    0.0000 H   0  0  0  0  0  0  0  0  0  0  0  0
    4.8709    3.9251    0.0000 H   0  0  0  0  0  0  0  0  0  0  0  0
    2.8660    4.1511    0.0000 H   0  0  0  0  0  0  0  0  0  0  0  0
    2.8660    0.9111    0.0000 H   0  0  0  0  0  0  0  0  0  0  0  0
    1.4631    3.3411    0.0000 H   0  0  0  0  0  0  0  0  0  0  0  0
    1.4631    1.7211    0.0000 H   0  0  0  0  0  0  0  0  0  0  0  0
  1 23  1  0  0  0  0
  2 25  1  0  0  0  0
  2 28  1  0  0  0  0
  3 16  2  0  0  0  0
  4 24  2  0  0  0  0
  5 11  1  0  0  0  0
  5 12  1  0  0  0  0
  5 14  1  0  0  0  0
  6 13  1  0  0  0  0
  6 16  1  0  0  0  0
  6 46  1  0  0  0  0
  7 17  1  0  0  0  0
  7 24  1  0  0  0  0
  7 53  1  0  0  0  0
  8  9  1  0  0  0  0
  8 10  1  0  0  0  0
  8 13  1  0  0  0  0
  8 33  1  0  0  0  0
  9 11  1  0  0  0  0
  9 34  1  0  0  0  0
  9 35  1  0  0  0  0
 10 12  1  0  0  0  0
 10 36  1  0  0  0  0
 10 37  1  0  0  0  0
 11 38  1  0  0  0  0
 11 39  1  0  0  0  0
 12 40  1  0  0  0  0
 12 41  1  0  0  0  0
 13 42  1  0  0  0  0
 13 43  1  0  0  0  0
 14 15  1  0  0  0  0
 14 44  1  0  0  0  0
 14 45  1  0  0  0  0
 15 18  2  0  0  0  0
 15 19  1  0  0  0  0
 16 17  1  0  0  0  0
 17 20  1  0  0  0  0
 17 47  1  0  0  0  0
 18 21  1  0  0  0  0
 18 48  1  0  0  0  0
 19 22  2  0  0  0  0
 19 49  1  0  0  0  0
 20 50  1  0  0  0  0
 20 51  1  0  0  0  0
 20 52  1  0  0  0  0
 21 23  2  0  0  0  0
 21 54  1  0  0  0  0
 22 23  1  0  0  0  0
 22 55  1  0  0  0  0
 24 25  1  0  0  0  0
 25 26  2  0  0  0  0
 26 27  1  0  0  0  0
 26 56  1  0  0  0  0
 27 28  1  0  0  0  0
 27 29  2  0  0  0  0
 28 30  2  0  0  0  0
 29 31  1  0  0  0  0
 29 57  1  0  0  0  0
 30 32  1  0  0  0  0
 30 58  1  0  0  0  0
 31 32  2  0  0  0  0
 31 59  1  0  0  0  0
 32 60  1  0  0  0  0
M  END
> <PUBCHEM_COMPOUND_CID>
508772
> <PUBCHEM_COMPOUND_CANONICALIZED>
1
> <PUBCHEM_CACTVS_COMPLEXITY>
635
> <PUBCHEM_CACTVS_HBOND_ACCEPTOR>
4
> <PUBCHEM_CACTVS_HBOND_DONOR>
2
> <PUBCHEM_CACTVS_ROTATABLE_BOND>
7
> <PUBCHEM_CACTVS_SUBSKEYS>
AAADceB7MABEAAAAAAAAAAAAAAAAASAAAAA8YIAAAAAAAEgB9AAAHgYQAAAADSrB2CQyAcPAAAiMAiFSEACDAIAkDRBIiJmIBsgIYDKhlzGUIQhglgCoiYcYiICOBAAAAAAEAAAIAAAAAAgAAAAAAAAAAA==
> <PUBCHEM_IUPAC_OPENEYE_NAME>
N-[2-[[1-[(4-chlorophenyl)methyl]-4-piperidyl]methylamino]-1-methyl-2-oxo-ethyl]benzothiophene-2-carboxamide
> <PUBCHEM_IUPAC_CAS_NAME>
N-[1-[[1-[(4-chlorophenyl)methyl]-4-piperidinyl]methylamino]-1-oxopropan-2-yl]-1-benzothiophene-2-carboxamide
> <PUBCHEM_IUPAC_NAME_MARKUP>
<I>N</I>-[1-[[1-[(4-chlorophenyl)methyl]piperidin-4-yl]methylamino]-1-oxopropan-2-yl]-1-benzothiophene-2-carboxamide
> <PUBCHEM_IUPAC_NAME>
N-[1-[[1-[(4-chlorophenyl)methyl]piperidin-4-yl]methylamino]-1-oxopropan-2-yl]-1-benzothiophene-2-carboxamide
> <PUBCHEM_IUPAC_SYSTEMATIC_NAME>
N-[1-[[1-[(4-chlorophenyl)methyl]piperidin-4-yl]methylamino]-1-oxidanylidene-propan-2-yl]-1-benzothiophene-2-carboxamide
> <PUBCHEM_IUPAC_TRADITIONAL_NAME>
N-[2-[[1-(4-chlorobenzyl)-4-piperidyl]methylamino]-2-keto-1-methyl-ethyl]benzothiophene-2-carboxamide
> <PUBCHEM_IUPAC_INCHI>
InChI=1S/C25H28ClN3O2S/c1-17(28-25(31)23-14-20-4-2-3-5-22(20)32-23)24(30)27-15-18-10-12-29(13-11-18)16-19-6-8-21(26)9-7-19/h2-9,14,17-18H,10-13,15-16H2,1H3,(H,27,30)(H,28,31)
> <PUBCHEM_IUPAC_INCHIKEY>
JOOWNJNLEHRQIY-UHFFFAOYSA-N
> <PUBCHEM_XLOGP3_AA>
5.2
> <PUBCHEM_EXACT_MASS>
469.1590760
> <PUBCHEM_MOLECULAR_FORMULA>
C25H28ClN3O2S
> <PUBCHEM_MOLECULAR_WEIGHT>
470.0
> <PUBCHEM_OPENEYE_CAN_SMILES>
CC(C(=O)NCC1CCN(CC1)CC2=CC=C(C=C2)Cl)NC(=O)C3=CC4=CC=CC=C4S3
> <PUBCHEM_OPENEYE_ISO_SMILES>
CC(C(=O)NCC1CCN(CC1)CC2=CC=C(C=C2)Cl)NC(=O)C3=CC4=CC=CC=C4S3
> <PUBCHEM_CACTVS_TPSA>
89.7
> <PUBCHEM_MONOISOTOPIC_WEIGHT>
469.1590760
> <PUBCHEM_TOTAL_CHARGE>
0
> <PUBCHEM_HEAVY_ATOM_COUNT>
32
> <PUBCHEM_ATOM_DEF_STEREO_COUNT>
0
> <PUBCHEM_ATOM_UDEF_STEREO_COUNT>
1
> <PUBCHEM_BOND_DEF_STEREO_COUNT>
0
> <PUBCHEM_BOND_UDEF_STEREO_COUNT>
0
> <PUBCHEM_ISOTOPIC_ATOM_COUNT>
0
> <PUBCHEM_COMPONENT_COUNT>
1
> <PUBCHEM_CACTVS_TAUTO_COUNT>
-1
> <PUBCHEM_COORDINATE_TYPE>
1
5
255
> <PUBCHEM_BONDANNOTATIONS>
15  18  8
15  19  8
17  20  3
18  21  8
19  22  8
2  25  8
2  28  8
21  23  8
22  23  8
25  26  8
26  27  8
27  28  8
27  29  8
28  30  8
29  31  8
30  32  8
31  32  8
$$$$
