508781
  -OEChem-10302200282D
 62 64  0     1  0  0  0  0  0999 V2000
    2.0000   -6.8807    0.0000 Cl  0  0  0  0  0  0  0  0  0  0  0  0
    8.5622    5.1581    0.0000 S   0  0  0  0  0  0  0  0  0  0  0  0
    5.4641    1.1193    0.0000 O   0  0  0  0  0  0  0  0  0  0  0  0
    8.9282    2.1193    0.0000 O   0  0  0  0  0  0  0  0  0  0  0  0
    7.3811    6.8807    0.0000 O   0  5  0  0  0  0  0  0  0  0  0  0
    5.9799    5.8626    0.0000 O   0  0  0  0  0  0  0  0  0  0  0  0
    5.4641   -3.8807    0.0000 N   0  0  0  0  0  0  0  0  0  0  0  0
    6.3301   -0.3807    0.0000 N   0  0  0  0  0  0  0  0  0  0  0  0
    7.1962    2.1193    0.0000 N   0  0  0  0  0  0  0  0  0  0  0  0
    6.9744    5.9672    0.0000 N   0  3  0  0  0  0  0  0  0  0  0  0
    5.4641   -1.8807    0.0000 C   0  0  0  0  0  0  0  0  0  0  0  0
    4.5981   -2.3807    0.0000 C   0  0  0  0  0  0  0  0  0  0  0  0
    6.3301   -2.3807    0.0000 C   0  0  0  0  0  0  0  0  0  0  0  0
    4.5981   -3.3807    0.0000 C   0  0  0  0  0  0  0  0  0  0  0  0
    6.3301   -3.3807    0.0000 C   0  0  0  0  0  0  0  0  0  0  0  0
    5.4641   -0.8807    0.0000 C   0  0  0  0  0  0  0  0  0  0  0  0
    5.4641   -4.8807    0.0000 C   0  0  0  0  0  0  0  0  0  0  0  0
    7.1962    1.1193    0.0000 C   0  0  3  0  0  0  0  0  0  0  0  0
    4.5981   -5.3807    0.0000 C   0  0  0  0  0  0  0  0  0  0  0  0
    6.3301    0.6193    0.0000 C   0  0  0  0  0  0  0  0  0  0  0  0
    8.0622    0.6193    0.0000 C   0  0  0  0  0  0  0  0  0  0  0  0
    4.5981   -6.3807    0.0000 C   0  0  0  0  0  0  0  0  0  0  0  0
    3.7320   -4.8807    0.0000 C   0  0  0  0  0  0  0  0  0  0  0  0
    8.9282    1.1193    0.0000 C   0  0  0  0  0  0  0  0  0  0  0  0
    8.0622   -0.3807    0.0000 C   0  0  0  0  0  0  0  0  0  0  0  0
    3.7320   -6.8807    0.0000 C   0  0  0  0  0  0  0  0  0  0  0  0
    2.8660   -5.3807    0.0000 C   0  0  0  0  0  0  0  0  0  0  0  0
    8.0622    2.6193    0.0000 C   0  0  0  0  0  0  0  0  0  0  0  0
    2.8660   -6.3807    0.0000 C   0  0  0  0  0  0  0  0  0  0  0  0
    8.0622    3.6193    0.0000 C   0  0  0  0  0  0  0  0  0  0  0  0
    7.2532    4.2071    0.0000 C   0  0  0  0  0  0  0  0  0  0  0  0
    8.8712    4.2071    0.0000 C   0  0  0  0  0  0  0  0  0  0  0  0
    7.5622    5.1581    0.0000 C   0  0  0  0  0  0  0  0  0  0  0  0
    6.0010   -1.5707    0.0000 H   0  0  0  0  0  0  0  0  0  0  0  0
    4.3860   -1.7981    0.0000 H   0  0  0  0  0  0  0  0  0  0  0  0
    3.9875   -2.4884    0.0000 H   0  0  0  0  0  0  0  0  0  0  0  0
    6.9407   -2.4884    0.0000 H   0  0  0  0  0  0  0  0  0  0  0  0
    6.5422   -1.7981    0.0000 H   0  0  0  0  0  0  0  0  0  0  0  0
    3.9875   -3.2730    0.0000 H   0  0  0  0  0  0  0  0  0  0  0  0
    4.3860   -3.9633    0.0000 H   0  0  0  0  0  0  0  0  0  0  0  0
    6.5422   -3.9633    0.0000 H   0  0  0  0  0  0  0  0  0  0  0  0
    6.9407   -3.2730    0.0000 H   0  0  0  0  0  0  0  0  0  0  0  0
    5.2520   -0.2981    0.0000 H   0  0  0  0  0  0  0  0  0  0  0  0
    4.8535   -0.9884    0.0000 H   0  0  0  0  0  0  0  0  0  0  0  0
    5.6762   -5.4633    0.0000 H   0  0  0  0  0  0  0  0  0  0  0  0
    6.0747   -4.7730    0.0000 H   0  0  0  0  0  0  0  0  0  0  0  0
    6.8671   -0.6907    0.0000 H   0  0  0  0  0  0  0  0  0  0  0  0
    6.6592    1.4293    0.0000 H   0  0  0  0  0  0  0  0  0  0  0  0
    8.0622    1.2393    0.0000 H   0  0  0  0  0  0  0  0  0  0  0  0
    6.6592    2.4293    0.0000 H   0  0  0  0  0  0  0  0  0  0  0  0
    5.1350   -6.6907    0.0000 H   0  0  0  0  0  0  0  0  0  0  0  0
    3.7320   -4.2607    0.0000 H   0  0  0  0  0  0  0  0  0  0  0  0
    9.2382    0.5824    0.0000 H   0  0  0  0  0  0  0  0  0  0  0  0
    9.4651    1.4293    0.0000 H   0  0  0  0  0  0  0  0  0  0  0  0
    8.6182    1.6562    0.0000 H   0  0  0  0  0  0  0  0  0  0  0  0
    7.4422   -0.3807    0.0000 H   0  0  0  0  0  0  0  0  0  0  0  0
    8.0622   -1.0007    0.0000 H   0  0  0  0  0  0  0  0  0  0  0  0
    8.6822   -0.3807    0.0000 H   0  0  0  0  0  0  0  0  0  0  0  0
    3.7320   -7.5007    0.0000 H   0  0  0  0  0  0  0  0  0  0  0  0
    2.3291   -5.0707    0.0000 H   0  0  0  0  0  0  0  0  0  0  0  0
    6.6635    4.0155    0.0000 H   0  0  0  0  0  0  0  0  0  0  0  0
    9.4608    4.0155    0.0000 H   0  0  0  0  0  0  0  0  0  0  0  0
  1 29  1  0  0  0  0
  2 32  1  0  0  0  0
  2 33  1  0  0  0  0
  3 20  2  0  0  0  0
  4 28  2  0  0  0  0
  5 10  1  0  0  0  0
  6 10  2  0  0  0  0
  7 14  1  0  0  0  0
  7 15  1  0  0  0  0
  7 17  1  0  0  0  0
  8 16  1  0  0  0  0
  8 20  1  0  0  0  0
  8 47  1  0  0  0  0
  9 18  1  0  0  0  0
  9 28  1  0  0  0  0
  9 50  1  0  0  0  0
 10 33  1  0  0  0  0
 11 12  1  0  0  0  0
 11 13  1  0  0  0  0
 11 16  1  0  0  0  0
 11 34  1  0  0  0  0
 12 14  1  0  0  0  0
 12 35  1  0  0  0  0
 12 36  1  0  0  0  0
 13 15  1  0  0  0  0
 13 37  1  0  0  0  0
 13 38  1  0  0  0  0
 14 39  1  0  0  0  0
 14 40  1  0  0  0  0
 15 41  1  0  0  0  0
 15 42  1  0  0  0  0
 16 43  1  0  0  0  0
 16 44  1  0  0  0  0
 17 19  1  0  0  0  0
 17 45  1  0  0  0  0
 17 46  1  0  0  0  0
 18 20  1  0  0  0  0
 18 21  1  0  0  0  0
 18 48  1  0  0  0  0
 19 22  2  0  0  0  0
 19 23  1  0  0  0  0
 21 24  1  0  0  0  0
 21 25  1  0  0  0  0
 21 49  1  0  0  0  0
 22 26  1  0  0  0  0
 22 51  1  0  0  0  0
 23 27  2  0  0  0  0
 23 52  1  0  0  0  0
 24 53  1  0  0  0  0
 24 54  1  0  0  0  0
 24 55  1  0  0  0  0
 25 56  1  0  0  0  0
 25 57  1  0  0  0  0
 25 58  1  0  0  0  0
 26 29  2  0  0  0  0
 26 59  1  0  0  0  0
 27 29  1  0  0  0  0
 27 60  1  0  0  0  0
 28 30  1  0  0  0  0
 30 31  1  0  0  0  0
 30 32  2  0  0  0  0
 31 33  2  0  0  0  0
 31 61  1  0  0  0  0
 32 62  1  0  0  0  0
M  CHG  2   5  -1  10   1
M  END
> <PUBCHEM_COMPOUND_CID>
508781
> <PUBCHEM_COMPOUND_CANONICALIZED>
1
> <PUBCHEM_CACTVS_COMPLEXITY>
676
> <PUBCHEM_CACTVS_HBOND_ACCEPTOR>
6
> <PUBCHEM_CACTVS_HBOND_DONOR>
2
> <PUBCHEM_CACTVS_ROTATABLE_BOND>
8
> <PUBCHEM_CACTVS_SUBSKEYS>
AAADceB7uABEAAAAAAAAAAAAAAAAASAAAAA8QAAAAAAAAAABwAAAHgYUAAAADSrF2CSygYPQQAiNAiFSUwCDAIBkDxBoiJmIZsoIYDKhl7GUIQhglgCoyYcUgAAOBAAAAAAAAAAIAAAAAAAAAAAAAAAAAA==
> <PUBCHEM_IUPAC_OPENEYE_NAME>
N-[1-[[1-[(4-chlorophenyl)methyl]-4-piperidyl]methylcarbamoyl]-2-methyl-propyl]-5-nitro-thiophene-3-carboxamide
> <PUBCHEM_IUPAC_CAS_NAME>
N-[1-[[1-[(4-chlorophenyl)methyl]-4-piperidinyl]methylamino]-3-methyl-1-oxobutan-2-yl]-5-nitro-3-thiophenecarboxamide
> <PUBCHEM_IUPAC_NAME_MARKUP>
<I>N</I>-[1-[[1-[(4-chlorophenyl)methyl]piperidin-4-yl]methylamino]-3-methyl-1-oxobutan-2-yl]-5-nitrothiophene-3-carboxamide
> <PUBCHEM_IUPAC_NAME>
N-[1-[[1-[(4-chlorophenyl)methyl]piperidin-4-yl]methylamino]-3-methyl-1-oxobutan-2-yl]-5-nitrothiophene-3-carboxamide
> <PUBCHEM_IUPAC_SYSTEMATIC_NAME>
N-[1-[[1-[(4-chlorophenyl)methyl]piperidin-4-yl]methylamino]-3-methyl-1-oxidanylidene-butan-2-yl]-5-nitro-thiophene-3-carboxamide
> <PUBCHEM_IUPAC_TRADITIONAL_NAME>
N-[1-[[1-(4-chlorobenzyl)-4-piperidyl]methylcarbamoyl]-2-methyl-propyl]-5-nitro-thiophene-3-carboxamide
> <PUBCHEM_IUPAC_INCHI>
InChI=1S/C23H29ClN4O4S/c1-15(2)21(26-22(29)18-11-20(28(31)32)33-14-18)23(30)25-12-16-7-9-27(10-8-16)13-17-3-5-19(24)6-4-17/h3-6,11,14-16,21H,7-10,12-13H2,1-2H3,(H,25,30)(H,26,29)
> <PUBCHEM_IUPAC_INCHIKEY>
RCFCJAZLXAUMCK-UHFFFAOYSA-N
> <PUBCHEM_XLOGP3_AA>
4.7
> <PUBCHEM_EXACT_MASS>
492.1598043
> <PUBCHEM_MOLECULAR_FORMULA>
C23H29ClN4O4S
> <PUBCHEM_MOLECULAR_WEIGHT>
493.0
> <PUBCHEM_OPENEYE_CAN_SMILES>
CC(C)C(C(=O)NCC1CCN(CC1)CC2=CC=C(C=C2)Cl)NC(=O)C3=CSC(=C3)[N+](=O)[O-]
> <PUBCHEM_OPENEYE_ISO_SMILES>
CC(C)C(C(=O)NCC1CCN(CC1)CC2=CC=C(C=C2)Cl)NC(=O)C3=CSC(=C3)[N+](=O)[O-]
> <PUBCHEM_CACTVS_TPSA>
136
> <PUBCHEM_MONOISOTOPIC_WEIGHT>
492.1598043
> <PUBCHEM_TOTAL_CHARGE>
0
> <PUBCHEM_HEAVY_ATOM_COUNT>
33
> <PUBCHEM_ATOM_DEF_STEREO_COUNT>
0
> <PUBCHEM_ATOM_UDEF_STEREO_COUNT>
1
> <PUBCHEM_BOND_DEF_STEREO_COUNT>
0
> <PUBCHEM_BOND_UDEF_STEREO_COUNT>
0
> <PUBCHEM_ISOTOPIC_ATOM_COUNT>
0
> <PUBCHEM_COMPONENT_COUNT>
1
> <PUBCHEM_CACTVS_TAUTO_COUNT>
-1
> <PUBCHEM_COORDINATE_TYPE>
1
5
255
> <PUBCHEM_BONDANNOTATIONS>
18  21  3
19  22  8
19  23  8
2  32  8
2  33  8
22  26  8
23  27  8
26  29  8
27  29  8
30  31  8
30  32  8
31  33  8
$$$$
