508708
  -OEChem-10302200282D
 93 95  0     1  0  0  0  0  0999 V2000
   13.2207   -1.7320    0.0000 S   0  0  0  0  0  0  0  0  0  0  0  0
   10.2852   -2.3507    0.0000 O   0  0  0  0  0  0  0  0  0  0  0  0
   13.9650   -1.0642    0.0000 O   0  0  0  0  0  0  0  0  0  0  0  0
   12.4764   -2.3999    0.0000 O   0  0  0  0  0  0  0  0  0  0  0  0
    6.3246   -0.5302    0.0000 O   0  0  0  0  0  0  0  0  0  0  0  0
    4.6318    2.6532    0.0000 O   0  0  0  0  0  0  0  0  0  0  0  0
   12.5528   -0.9877    0.0000 N   0  0  3  0  0  0  0  0  0  0  0  0
    7.6138    0.6265    0.0000 N   0  0  0  0  0  0  0  0  0  0  0  0
    6.2781    2.1151    0.0000 N   0  0  0  0  0  0  0  0  0  0  0  0
    4.6783   -1.6016    0.0000 N   0  0  0  0  0  0  0  0  0  0  0  0
   15.8921   -4.7092    0.0000 N   0  0  0  0  0  0  0  0  0  0  0  0
   11.5743   -1.1939    0.0000 C   0  0  1  0  0  0  0  0  0  0  0  0
   10.9065   -0.4496    0.0000 C   0  0  0  0  0  0  0  0  0  0  0  0
   12.8635   -0.0372    0.0000 C   0  0  0  0  0  0  0  0  0  0  0  0
    9.9280   -0.6559    0.0000 C   0  0  0  0  0  0  0  0  0  0  0  0
   12.1957    0.7071    0.0000 C   0  0  0  0  0  0  0  0  0  0  0  0
   11.2637   -2.1445    0.0000 C   0  0  0  0  0  0  0  0  0  0  0  0
    9.2601    0.0884    0.0000 C   0  0  0  0  0  0  0  0  0  0  0  0
    8.2816   -0.1178    0.0000 C   0  0  0  0  0  0  0  0  0  0  0  0
   13.8885   -2.4763    0.0000 C   0  0  0  0  0  0  0  0  0  0  0  0
   12.5063    1.6576    0.0000 C   0  0  0  0  0  0  0  0  0  0  0  0
   11.2171    0.5009    0.0000 C   0  0  0  0  0  0  0  0  0  0  0  0
    5.2531    4.5542    0.0000 C   0  0  0  0  0  0  0  0  0  0  0  0
    5.9674    1.1646    0.0000 C   0  0  1  0  0  0  0  0  0  0  0  0
    5.9209    3.8100    0.0000 C   0  0  0  0  0  0  0  0  0  0  0  0
    4.9889    0.9584    0.0000 C   0  0  0  0  0  0  0  0  0  0  0  0
    6.6353    0.4203    0.0000 C   0  0  0  0  0  0  0  0  0  0  0  0
    5.6103    2.8594    0.0000 C   0  0  0  0  0  0  0  0  0  0  0  0
    4.6783    0.0079    0.0000 C   0  0  0  0  0  0  0  0  0  0  0  0
   13.5779   -3.4268    0.0000 C   0  0  0  0  0  0  0  0  0  0  0  0
   14.8670   -2.2701    0.0000 C   0  0  0  0  0  0  0  0  0  0  0  0
    4.5852    5.2986    0.0000 C   0  0  0  0  0  0  0  0  0  0  0  0
    5.9974    5.2221    0.0000 C   0  0  0  0  0  0  0  0  0  0  0  0
    4.5088    3.8864    0.0000 C   0  0  0  0  0  0  0  0  0  0  0  0
    3.7320   -0.2969    0.0000 C   0  0  0  0  0  0  0  0  0  0  0  0
    5.2619   -0.7969    0.0000 C   0  0  0  0  0  0  0  0  0  0  0  0
   14.2457   -4.1712    0.0000 C   0  0  0  0  0  0  0  0  0  0  0  0
   15.5349   -3.0144    0.0000 C   0  0  0  0  0  0  0  0  0  0  0  0
    3.7320   -1.2969    0.0000 C   0  0  0  0  0  0  0  0  0  0  0  0
   15.2242   -3.9649    0.0000 C   0  0  0  0  0  0  0  0  0  0  0  0
    2.8660    0.2031    0.0000 C   0  0  0  0  0  0  0  0  0  0  0  0
    2.8660   -1.7969    0.0000 C   0  0  0  0  0  0  0  0  0  0  0  0
    2.0000   -0.2969    0.0000 C   0  0  0  0  0  0  0  0  0  0  0  0
    2.0000   -1.2969    0.0000 C   0  0  0  0  0  0  0  0  0  0  0  0
   11.7669   -0.6046    0.0000 H   0  0  0  0  0  0  0  0  0  0  0  0
   11.4328   -0.1220    0.0000 H   0  0  0  0  0  0  0  0  0  0  0  0
   10.6752    0.1256    0.0000 H   0  0  0  0  0  0  0  0  0  0  0  0
   13.4104   -0.3292    0.0000 H   0  0  0  0  0  0  0  0  0  0  0  0
   13.2461    0.4507    0.0000 H   0  0  0  0  0  0  0  0  0  0  0  0
    9.4016   -0.9835    0.0000 H   0  0  0  0  0  0  0  0  0  0  0  0
   10.1592   -1.2311    0.0000 H   0  0  0  0  0  0  0  0  0  0  0  0
   12.0030    0.1178    0.0000 H   0  0  0  0  0  0  0  0  0  0  0  0
   11.2842   -2.7641    0.0000 H   0  0  0  0  0  0  0  0  0  0  0  0
   11.8775   -2.2318    0.0000 H   0  0  0  0  0  0  0  0  0  0  0  0
    9.7865    0.4161    0.0000 H   0  0  0  0  0  0  0  0  0  0  0  0
    9.0289    0.6637    0.0000 H   0  0  0  0  0  0  0  0  0  0  0  0
    7.7553   -0.4454    0.0000 H   0  0  0  0  0  0  0  0  0  0  0  0
    8.5129   -0.6930    0.0000 H   0  0  0  0  0  0  0  0  0  0  0  0
   13.0956    1.4650    0.0000 H   0  0  0  0  0  0  0  0  0  0  0  0
   12.6989    2.2469    0.0000 H   0  0  0  0  0  0  0  0  0  0  0  0
   11.9170    1.8502    0.0000 H   0  0  0  0  0  0  0  0  0  0  0  0
   11.0893    1.1076    0.0000 H   0  0  0  0  0  0  0  0  0  0  0  0
   10.6105    0.3730    0.0000 H   0  0  0  0  0  0  0  0  0  0  0  0
   11.3450   -0.1058    0.0000 H   0  0  0  0  0  0  0  0  0  0  0  0
    5.5534    1.6261    0.0000 H   0  0  0  0  0  0  0  0  0  0  0  0
    6.4678    3.5179    0.0000 H   0  0  0  0  0  0  0  0  0  0  0  0
    6.3035    4.2979    0.0000 H   0  0  0  0  0  0  0  0  0  0  0  0
    4.9684    1.5780    0.0000 H   0  0  0  0  0  0  0  0  0  0  0  0
    4.3751    1.0457    0.0000 H   0  0  0  0  0  0  0  0  0  0  0  0
    7.8064    1.2159    0.0000 H   0  0  0  0  0  0  0  0  0  0  0  0
    6.8848    2.2430    0.0000 H   0  0  0  0  0  0  0  0  0  0  0  0
   10.0926   -2.9400    0.0000 H   0  0  0  0  0  0  0  0  0  0  0  0
   12.9712   -3.5547    0.0000 H   0  0  0  0  0  0  0  0  0  0  0  0
   15.0596   -1.6808    0.0000 H   0  0  0  0  0  0  0  0  0  0  0  0
    5.0467    5.7126    0.0000 H   0  0  0  0  0  0  0  0  0  0  0  0
    4.1712    5.7600    0.0000 H   0  0  0  0  0  0  0  0  0  0  0  0
    4.1238    4.8845    0.0000 H   0  0  0  0  0  0  0  0  0  0  0  0
    6.4114    4.7606    0.0000 H   0  0  0  0  0  0  0  0  0  0  0  0
    6.4588    5.6362    0.0000 H   0  0  0  0  0  0  0  0  0  0  0  0
    5.5833    5.6836    0.0000 H   0  0  0  0  0  0  0  0  0  0  0  0
    4.0947    4.3479    0.0000 H   0  0  0  0  0  0  0  0  0  0  0  0
    4.0473    3.4724    0.0000 H   0  0  0  0  0  0  0  0  0  0  0  0
    4.9228    3.4249    0.0000 H   0  0  0  0  0  0  0  0  0  0  0  0
    5.8819   -0.7969    0.0000 H   0  0  0  0  0  0  0  0  0  0  0  0
   14.0531   -4.7605    0.0000 H   0  0  0  0  0  0  0  0  0  0  0  0
   16.1415   -2.8866    0.0000 H   0  0  0  0  0  0  0  0  0  0  0  0
    4.8709   -2.1909    0.0000 H   0  0  0  0  0  0  0  0  0  0  0  0
    2.8660    0.8231    0.0000 H   0  0  0  0  0  0  0  0  0  0  0  0
    2.8660   -2.4169    0.0000 H   0  0  0  0  0  0  0  0  0  0  0  0
    1.4631    0.0131    0.0000 H   0  0  0  0  0  0  0  0  0  0  0  0
    1.4631   -1.6069    0.0000 H   0  0  0  0  0  0  0  0  0  0  0  0
   16.4987   -4.5814    0.0000 H   0  0  0  0  0  0  0  0  0  0  0  0
   15.6994   -5.2986    0.0000 H   0  0  0  0  0  0  0  0  0  0  0  0
  1  3  2  0  0  0  0
  1  4  2  0  0  0  0
  1  7  1  0  0  0  0
  1 20  1  0  0  0  0
  2 17  1  0  0  0  0
  2 72  1  0  0  0  0
  5 27  2  0  0  0  0
  6 28  2  0  0  0  0
 12  7  1  6  0  0  0
  7 14  1  0  0  0  0
  8 19  1  0  0  0  0
  8 27  1  0  0  0  0
  8 70  1  0  0  0  0
 24  9  1  6  0  0  0
  9 28  1  0  0  0  0
  9 71  1  0  0  0  0
 10 36  1  0  0  0  0
 10 39  1  0  0  0  0
 10 87  1  0  0  0  0
 11 40  1  0  0  0  0
 11 92  1  0  0  0  0
 11 93  1  0  0  0  0
 12 13  1  0  0  0  0
 12 17  1  0  0  0  0
 12 45  1  0  0  0  0
 13 15  1  0  0  0  0
 13 46  1  0  0  0  0
 13 47  1  0  0  0  0
 14 16  1  0  0  0  0
 14 48  1  0  0  0  0
 14 49  1  0  0  0  0
 15 18  1  0  0  0  0
 15 50  1  0  0  0  0
 15 51  1  0  0  0  0
 16 21  1  0  0  0  0
 16 22  1  0  0  0  0
 16 52  1  0  0  0  0
 17 53  1  0  0  0  0
 17 54  1  0  0  0  0
 18 19  1  0  0  0  0
 18 55  1  0  0  0  0
 18 56  1  0  0  0  0
 19 57  1  0  0  0  0
 19 58  1  0  0  0  0
 20 30  2  0  0  0  0
 20 31  1  0  0  0  0
 21 59  1  0  0  0  0
 21 60  1  0  0  0  0
 21 61  1  0  0  0  0
 22 62  1  0  0  0  0
 22 63  1  0  0  0  0
 22 64  1  0  0  0  0
 23 25  1  0  0  0  0
 23 32  1  0  0  0  0
 23 33  1  0  0  0  0
 23 34  1  0  0  0  0
 24 26  1  0  0  0  0
 24 27  1  0  0  0  0
 24 65  1  0  0  0  0
 25 28  1  0  0  0  0
 25 66  1  0  0  0  0
 25 67  1  0  0  0  0
 26 29  1  0  0  0  0
 26 68  1  0  0  0  0
 26 69  1  0  0  0  0
 29 35  1  0  0  0  0
 29 36  2  0  0  0  0
 30 37  1  0  0  0  0
 30 73  1  0  0  0  0
 31 38  2  0  0  0  0
 31 74  1  0  0  0  0
 32 75  1  0  0  0  0
 32 76  1  0  0  0  0
 32 77  1  0  0  0  0
 33 78  1  0  0  0  0
 33 79  1  0  0  0  0
 33 80  1  0  0  0  0
 34 81  1  0  0  0  0
 34 82  1  0  0  0  0
 34 83  1  0  0  0  0
 35 39  1  0  0  0  0
 35 41  2  0  0  0  0
 36 84  1  0  0  0  0
 37 40  2  0  0  0  0
 37 85  1  0  0  0  0
 38 40  1  0  0  0  0
 38 86  1  0  0  0  0
 39 42  2  0  0  0  0
 41 43  1  0  0  0  0
 41 88  1  0  0  0  0
 42 44  1  0  0  0  0
 42 89  1  0  0  0  0
 43 44  2  0  0  0  0
 43 90  1  0  0  0  0
 44 91  1  0  0  0  0
M  END
> <PUBCHEM_COMPOUND_CID>
508708
> <PUBCHEM_COMPOUND_CANONICALIZED>
1
> <PUBCHEM_CACTVS_COMPLEXITY>
1000
> <PUBCHEM_CACTVS_HBOND_ACCEPTOR>
7
> <PUBCHEM_CACTVS_HBOND_DONOR>
5
> <PUBCHEM_CACTVS_ROTATABLE_BOND>
17
> <PUBCHEM_CACTVS_SUBSKEYS>
AAADcfB/uABAAAAAAAAAAAAAAAAAAWAAAAAwYAAAAAAAAFgB9AAAHgQQSAAADyjh3gY+wfLJkgKoAzV3VHDCgDAxAiAI2bm4ZJgKcPLAkbGUYAhklgDYyAeYycCPgAQAAAACAAAACAAAAAQAAAAAAAAAAA==
> <PUBCHEM_IUPAC_OPENEYE_NAME>
N-[(1S)-2-[[(5S)-5-[(4-aminophenyl)sulfonyl-isobutyl-amino]-6-hydroxy-hexyl]amino]-1-(1H-indol-3-ylmethyl)-2-oxo-ethyl]-3,3-dimethyl-butanamide
> <PUBCHEM_IUPAC_CAS_NAME>
N-[(2S)-1-[[(5S)-5-[(4-aminophenyl)sulfonyl-(2-methylpropyl)amino]-6-hydroxyhexyl]amino]-3-(1H-indol-3-yl)-1-oxopropan-2-yl]-3,3-dimethylbutanamide
> <PUBCHEM_IUPAC_NAME_MARKUP>
<I>N</I>-[(2<I>S</I>)-1-[[(5<I>S</I>)-5-[(4-aminophenyl)sulfonyl-(2-methylpropyl)amino]-6-hydroxyhexyl]amino]-3-(1<I>H</I>-indol-3-yl)-1-oxopropan-2-yl]-3,3-dimethylbutanamide
> <PUBCHEM_IUPAC_NAME>
N-[(2S)-1-[[(5S)-5-[(4-aminophenyl)sulfonyl-(2-methylpropyl)amino]-6-hydroxyhexyl]amino]-3-(1H-indol-3-yl)-1-oxopropan-2-yl]-3,3-dimethylbutanamide
> <PUBCHEM_IUPAC_SYSTEMATIC_NAME>
N-[(2S)-1-[[(5S)-5-[(4-aminophenyl)sulfonyl-(2-methylpropyl)amino]-6-oxidanyl-hexyl]amino]-3-(1H-indol-3-yl)-1-oxidanylidene-propan-2-yl]-3,3-dimethyl-butanamide
> <PUBCHEM_IUPAC_TRADITIONAL_NAME>
N-[(1S)-2-[[(5S)-6-hydroxy-5-[isobutyl(sulfanilyl)amino]hexyl]amino]-1-(1H-indol-3-ylmethyl)-2-keto-ethyl]-3,3-dimethyl-butyramide
> <PUBCHEM_IUPAC_INCHI>
InChI=1S/C33H49N5O5S/c1-23(2)21-38(44(42,43)27-15-13-25(34)14-16-27)26(22-39)10-8-9-17-35-32(41)30(37-31(40)19-33(3,4)5)18-24-20-36-29-12-7-6-11-28(24)29/h6-7,11-16,20,23,26,30,36,39H,8-10,17-19,21-22,34H2,1-5H3,(H,35,41)(H,37,40)/t26-,30-/m0/s1
> <PUBCHEM_IUPAC_INCHIKEY>
RHKROEPQOPUUBY-YZNIXAGQSA-N
> <PUBCHEM_XLOGP3_AA>
4.6
> <PUBCHEM_EXACT_MASS>
627.34544085
> <PUBCHEM_MOLECULAR_FORMULA>
C33H49N5O5S
> <PUBCHEM_MOLECULAR_WEIGHT>
627.8
> <PUBCHEM_OPENEYE_CAN_SMILES>
CC(C)CN(C(CCCCNC(=O)C(CC1=CNC2=CC=CC=C21)NC(=O)CC(C)(C)C)CO)S(=O)(=O)C3=CC=C(C=C3)N
> <PUBCHEM_OPENEYE_ISO_SMILES>
CC(C)CN([C@@H](CCCCNC(=O)[C@H](CC1=CNC2=CC=CC=C21)NC(=O)CC(C)(C)C)CO)S(=O)(=O)C3=CC=C(C=C3)N
> <PUBCHEM_CACTVS_TPSA>
166
> <PUBCHEM_MONOISOTOPIC_WEIGHT>
627.34544085
> <PUBCHEM_TOTAL_CHARGE>
0
> <PUBCHEM_HEAVY_ATOM_COUNT>
44
> <PUBCHEM_ATOM_DEF_STEREO_COUNT>
2
> <PUBCHEM_ATOM_UDEF_STEREO_COUNT>
0
> <PUBCHEM_BOND_DEF_STEREO_COUNT>
0
> <PUBCHEM_BOND_UDEF_STEREO_COUNT>
0
> <PUBCHEM_ISOTOPIC_ATOM_COUNT>
0
> <PUBCHEM_COMPONENT_COUNT>
1
> <PUBCHEM_CACTVS_TAUTO_COUNT>
-1
> <PUBCHEM_COORDINATE_TYPE>
1
5
255
> <PUBCHEM_BONDANNOTATIONS>
10  36  8
10  39  8
20  30  8
20  31  8
29  35  8
29  36  8
30  37  8
31  38  8
35  39  8
35  41  8
37  40  8
38  40  8
39  42  8
41  43  8
42  44  8
43  44  8
12  7  6
24  9  6
$$$$
