508789
  -OEChem-10302200282D
 64 67  0     1  0  0  0  0  0999 V2000
    2.0000   -6.5823    0.0000 Cl  0  0  0  0  0  0  0  0  0  0  0  0
    5.4641    1.4177    0.0000 O   0  0  0  0  0  0  0  0  0  0  0  0
    5.6065    2.7724    0.0000 O   0  0  0  0  0  0  0  0  0  0  0  0
    7.5745    5.4608    0.0000 O   0  0  0  0  0  0  0  0  0  0  0  0
    5.4641   -3.5823    0.0000 N   0  0  0  0  0  0  0  0  0  0  0  0
    7.3007    2.4123    0.0000 N   0  0  0  0  0  0  0  0  0  0  0  0
    6.3301   -0.0823    0.0000 N   0  0  0  0  0  0  0  0  0  0  0  0
    5.4641   -1.5823    0.0000 C   0  0  0  0  0  0  0  0  0  0  0  0
    4.5981   -2.0823    0.0000 C   0  0  0  0  0  0  0  0  0  0  0  0
    6.3301   -2.0823    0.0000 C   0  0  0  0  0  0  0  0  0  0  0  0
    4.5981   -3.0823    0.0000 C   0  0  0  0  0  0  0  0  0  0  0  0
    6.3301   -3.0823    0.0000 C   0  0  0  0  0  0  0  0  0  0  0  0
    5.4641   -0.5823    0.0000 C   0  0  0  0  0  0  0  0  0  0  0  0
    7.1962    1.4177    0.0000 C   0  0  3  0  0  0  0  0  0  0  0  0
    8.1097    1.0110    0.0000 C   0  0  0  0  0  0  0  0  0  0  0  0
    8.7788    1.7542    0.0000 C   0  0  0  0  0  0  0  0  0  0  0  0
    8.2788    2.6202    0.0000 C   0  0  0  0  0  0  0  0  0  0  0  0
    6.3301    0.9177    0.0000 C   0  0  0  0  0  0  0  0  0  0  0  0
    5.4641   -4.5823    0.0000 C   0  0  0  0  0  0  0  0  0  0  0  0
    6.5575    3.0814    0.0000 C   0  0  0  0  0  0  0  0  0  0  0  0
    4.5981   -5.0823    0.0000 C   0  0  0  0  0  0  0  0  0  0  0  0
    6.7654    4.0595    0.0000 C   0  0  0  0  0  0  0  0  0  0  0  0
    4.5981   -6.0823    0.0000 C   0  0  0  0  0  0  0  0  0  0  0  0
    3.7320   -4.5823    0.0000 C   0  0  0  0  0  0  0  0  0  0  0  0
    7.6790    4.4663    0.0000 C   0  0  0  0  0  0  0  0  0  0  0  0
    6.0963    4.8027    0.0000 C   0  0  0  0  0  0  0  0  0  0  0  0
    6.5963    5.6687    0.0000 C   0  0  0  0  0  0  0  0  0  0  0  0
    3.7320   -6.5823    0.0000 C   0  0  0  0  0  0  0  0  0  0  0  0
    2.8660   -5.0823    0.0000 C   0  0  0  0  0  0  0  0  0  0  0  0
    8.5450    3.9663    0.0000 C   0  0  0  0  0  0  0  0  0  0  0  0
    2.8660   -6.0823    0.0000 C   0  0  0  0  0  0  0  0  0  0  0  0
    6.1896    6.5823    0.0000 C   0  0  0  0  0  0  0  0  0  0  0  0
    4.9272   -1.2723    0.0000 H   0  0  0  0  0  0  0  0  0  0  0  0
    4.3860   -1.4996    0.0000 H   0  0  0  0  0  0  0  0  0  0  0  0
    3.9875   -2.1899    0.0000 H   0  0  0  0  0  0  0  0  0  0  0  0
    6.9407   -2.1899    0.0000 H   0  0  0  0  0  0  0  0  0  0  0  0
    6.5422   -1.4996    0.0000 H   0  0  0  0  0  0  0  0  0  0  0  0
    3.9875   -2.9746    0.0000 H   0  0  0  0  0  0  0  0  0  0  0  0
    4.3860   -3.6649    0.0000 H   0  0  0  0  0  0  0  0  0  0  0  0
    6.5422   -3.6649    0.0000 H   0  0  0  0  0  0  0  0  0  0  0  0
    6.9407   -2.9746    0.0000 H   0  0  0  0  0  0  0  0  0  0  0  0
    5.2520    0.0004    0.0000 H   0  0  0  0  0  0  0  0  0  0  0  0
    4.8535   -0.6899    0.0000 H   0  0  0  0  0  0  0  0  0  0  0  0
    6.6762    1.7554    0.0000 H   0  0  0  0  0  0  0  0  0  0  0  0
    7.7997    0.4741    0.0000 H   0  0  0  0  0  0  0  0  0  0  0  0
    8.6113    0.6466    0.0000 H   0  0  0  0  0  0  0  0  0  0  0  0
    9.1937    1.2934    0.0000 H   0  0  0  0  0  0  0  0  0  0  0  0
    9.2804    2.1186    0.0000 H   0  0  0  0  0  0  0  0  0  0  0  0
    8.8452    2.8724    0.0000 H   0  0  0  0  0  0  0  0  0  0  0  0
    8.0872    3.2098    0.0000 H   0  0  0  0  0  0  0  0  0  0  0  0
    6.8671   -0.3923    0.0000 H   0  0  0  0  0  0  0  0  0  0  0  0
    5.6762   -5.1649    0.0000 H   0  0  0  0  0  0  0  0  0  0  0  0
    6.0747   -4.4746    0.0000 H   0  0  0  0  0  0  0  0  0  0  0  0
    5.1350   -6.3923    0.0000 H   0  0  0  0  0  0  0  0  0  0  0  0
    3.7320   -3.9623    0.0000 H   0  0  0  0  0  0  0  0  0  0  0  0
    5.4797    4.7379    0.0000 H   0  0  0  0  0  0  0  0  0  0  0  0
    3.7320   -7.2023    0.0000 H   0  0  0  0  0  0  0  0  0  0  0  0
    2.3291   -4.7723    0.0000 H   0  0  0  0  0  0  0  0  0  0  0  0
    8.2350    3.4293    0.0000 H   0  0  0  0  0  0  0  0  0  0  0  0
    9.0820    3.6563    0.0000 H   0  0  0  0  0  0  0  0  0  0  0  0
    8.8550    4.5032    0.0000 H   0  0  0  0  0  0  0  0  0  0  0  0
    6.7560    6.8344    0.0000 H   0  0  0  0  0  0  0  0  0  0  0  0
    5.9374    7.1487    0.0000 H   0  0  0  0  0  0  0  0  0  0  0  0
    5.6232    6.3301    0.0000 H   0  0  0  0  0  0  0  0  0  0  0  0
  1 31  1  0  0  0  0
  2 18  2  0  0  0  0
  3 20  2  0  0  0  0
  4 25  1  0  0  0  0
  4 27  1  0  0  0  0
  5 11  1  0  0  0  0
  5 12  1  0  0  0  0
  5 19  1  0  0  0  0
  6 14  1  0  0  0  0
  6 17  1  0  0  0  0
  6 20  1  0  0  0  0
  7 13  1  0  0  0  0
  7 18  1  0  0  0  0
  7 51  1  0  0  0  0
  8  9  1  0  0  0  0
  8 10  1  0  0  0  0
  8 13  1  0  0  0  0
  8 33  1  0  0  0  0
  9 11  1  0  0  0  0
  9 34  1  0  0  0  0
  9 35  1  0  0  0  0
 10 12  1  0  0  0  0
 10 36  1  0  0  0  0
 10 37  1  0  0  0  0
 11 38  1  0  0  0  0
 11 39  1  0  0  0  0
 12 40  1  0  0  0  0
 12 41  1  0  0  0  0
 13 42  1  0  0  0  0
 13 43  1  0  0  0  0
 14 15  1  0  0  0  0
 14 18  1  0  0  0  0
 14 44  1  0  0  0  0
 15 16  1  0  0  0  0
 15 45  1  0  0  0  0
 15 46  1  0  0  0  0
 16 17  1  0  0  0  0
 16 47  1  0  0  0  0
 16 48  1  0  0  0  0
 17 49  1  0  0  0  0
 17 50  1  0  0  0  0
 19 21  1  0  0  0  0
 19 52  1  0  0  0  0
 19 53  1  0  0  0  0
 20 22  1  0  0  0  0
 21 23  2  0  0  0  0
 21 24  1  0  0  0  0
 22 25  2  0  0  0  0
 22 26  1  0  0  0  0
 23 28  1  0  0  0  0
 23 54  1  0  0  0  0
 24 29  2  0  0  0  0
 24 55  1  0  0  0  0
 25 30  1  0  0  0  0
 26 27  2  0  0  0  0
 26 56  1  0  0  0  0
 27 32  1  0  0  0  0
 28 31  2  0  0  0  0
 28 57  1  0  0  0  0
 29 31  1  0  0  0  0
 29 58  1  0  0  0  0
 30 59  1  0  0  0  0
 30 60  1  0  0  0  0
 30 61  1  0  0  0  0
 32 62  1  0  0  0  0
 32 63  1  0  0  0  0
 32 64  1  0  0  0  0
M  END
> <PUBCHEM_COMPOUND_CID>
508789
> <PUBCHEM_COMPOUND_CANONICALIZED>
1
> <PUBCHEM_CACTVS_COMPLEXITY>
646
> <PUBCHEM_CACTVS_HBOND_ACCEPTOR>
4
> <PUBCHEM_CACTVS_HBOND_DONOR>
1
> <PUBCHEM_CACTVS_ROTATABLE_BOND>
6
> <PUBCHEM_CACTVS_SUBSKEYS>
AAADcfB7MAAEAAAAAAAAAAAAAAAAAWJAAAA8QAAAAAAAAAABwAAAHgIQAAAADS7BmCQyBIPABECIAqFSEACCCAAkJQAIiIGODsgMZj6NtzuWOWjm9hGIqYe/gQAOBAAAAAAAAAAIAAAAAAAAAAAAAAAAAA==
> <PUBCHEM_IUPAC_OPENEYE_NAME>
N-[[1-[(4-chlorophenyl)methyl]-4-piperidyl]methyl]-1-(2,5-dimethylfuran-3-carbonyl)pyrrolidine-2-carboxamide
> <PUBCHEM_IUPAC_CAS_NAME>
N-[[1-[(4-chlorophenyl)methyl]-4-piperidinyl]methyl]-1-[(2,5-dimethyl-3-furanyl)-oxomethyl]-2-pyrrolidinecarboxamide
> <PUBCHEM_IUPAC_NAME_MARKUP>
<I>N</I>-[[1-[(4-chlorophenyl)methyl]piperidin-4-yl]methyl]-1-(2,5-dimethylfuran-3-carbonyl)pyrrolidine-2-carboxamide
> <PUBCHEM_IUPAC_NAME>
N-[[1-[(4-chlorophenyl)methyl]piperidin-4-yl]methyl]-1-(2,5-dimethylfuran-3-carbonyl)pyrrolidine-2-carboxamide
> <PUBCHEM_IUPAC_SYSTEMATIC_NAME>
N-[[1-[(4-chlorophenyl)methyl]piperidin-4-yl]methyl]-1-(2,5-dimethylfuran-3-yl)carbonyl-pyrrolidine-2-carboxamide
> <PUBCHEM_IUPAC_TRADITIONAL_NAME>
N-[[1-(4-chlorobenzyl)-4-piperidyl]methyl]-1-(2,5-dimethyl-3-furoyl)pyrrolidine-2-carboxamide
> <PUBCHEM_IUPAC_INCHI>
InChI=1S/C25H32ClN3O3/c1-17-14-22(18(2)32-17)25(31)29-11-3-4-23(29)24(30)27-15-19-9-12-28(13-10-19)16-20-5-7-21(26)8-6-20/h5-8,14,19,23H,3-4,9-13,15-16H2,1-2H3,(H,27,30)
> <PUBCHEM_IUPAC_INCHIKEY>
XHVLNCFSAIVRGR-UHFFFAOYSA-N
> <PUBCHEM_XLOGP3_AA>
4
> <PUBCHEM_EXACT_MASS>
457.2132196
> <PUBCHEM_MOLECULAR_FORMULA>
C25H32ClN3O3
> <PUBCHEM_MOLECULAR_WEIGHT>
458.0
> <PUBCHEM_OPENEYE_CAN_SMILES>
CC1=CC(=C(O1)C)C(=O)N2CCCC2C(=O)NCC3CCN(CC3)CC4=CC=C(C=C4)Cl
> <PUBCHEM_OPENEYE_ISO_SMILES>
CC1=CC(=C(O1)C)C(=O)N2CCCC2C(=O)NCC3CCN(CC3)CC4=CC=C(C=C4)Cl
> <PUBCHEM_CACTVS_TPSA>
65.8
> <PUBCHEM_MONOISOTOPIC_WEIGHT>
457.2132196
> <PUBCHEM_TOTAL_CHARGE>
0
> <PUBCHEM_HEAVY_ATOM_COUNT>
32
> <PUBCHEM_ATOM_DEF_STEREO_COUNT>
0
> <PUBCHEM_ATOM_UDEF_STEREO_COUNT>
1
> <PUBCHEM_BOND_DEF_STEREO_COUNT>
0
> <PUBCHEM_BOND_UDEF_STEREO_COUNT>
0
> <PUBCHEM_ISOTOPIC_ATOM_COUNT>
0
> <PUBCHEM_COMPONENT_COUNT>
1
> <PUBCHEM_CACTVS_TAUTO_COUNT>
-1
> <PUBCHEM_COORDINATE_TYPE>
1
5
255
> <PUBCHEM_BONDANNOTATIONS>
14  18  3
21  23  8
21  24  8
22  25  8
22  26  8
23  28  8
24  29  8
26  27  8
28  31  8
29  31  8
4  25  8
4  27  8
$$$$
