508787
  -OEChem-10302200282D
 65 69  0     1  0  0  0  0  0999 V2000
   16.6619   -2.4487    0.0000 Cl  0  0  0  0  0  0  0  0  0  0  0  0
    8.1165   -0.7236    0.0000 O   0  0  0  0  0  0  0  0  0  0  0  0
    6.7619   -0.8660    0.0000 O   0  0  0  0  0  0  0  0  0  0  0  0
   13.0073    0.3159    0.0000 N   0  0  0  0  0  0  0  0  0  0  0  0
    6.7619    0.8661    0.0000 N   0  0  0  0  0  0  0  0  0  0  0  0
    9.4037    0.4353    0.0000 N   0  0  0  0  0  0  0  0  0  0  0  0
    4.6783   -0.8047    0.0000 N   0  0  0  0  0  0  0  0  0  0  0  0
   11.0510   -0.0999    0.0000 C   0  0  0  0  0  0  0  0  0  0  0  0
   11.3600    0.8512    0.0000 C   0  0  0  0  0  0  0  0  0  0  0  0
   11.7201   -0.8430    0.0000 C   0  0  0  0  0  0  0  0  0  0  0  0
   12.3381    1.0591    0.0000 C   0  0  0  0  0  0  0  0  0  0  0  0
   12.6982   -0.6351    0.0000 C   0  0  0  0  0  0  0  0  0  0  0  0
   10.0728   -0.3078    0.0000 C   0  0  0  0  0  0  0  0  0  0  0  0
    7.7564    0.9706    0.0000 C   0  0  3  0  0  0  0  0  0  0  0  0
    7.9643    1.9487    0.0000 C   0  0  0  0  0  0  0  0  0  0  0  0
    7.0983    2.4487    0.0000 C   0  0  0  0  0  0  0  0  0  0  0  0
    6.3551    1.7796    0.0000 C   0  0  0  0  0  0  0  0  0  0  0  0
    8.4255    0.2274    0.0000 C   0  0  0  0  0  0  0  0  0  0  0  0
   13.9854    0.5238    0.0000 C   0  0  0  0  0  0  0  0  0  0  0  0
    6.2619    0.0000    0.0000 C   0  0  0  0  0  0  0  0  0  0  0  0
   14.6545   -0.2193    0.0000 C   0  0  0  0  0  0  0  0  0  0  0  0
    5.2619    0.0000    0.0000 C   0  0  0  0  0  0  0  0  0  0  0  0
   15.6327   -0.0114    0.0000 C   0  0  0  0  0  0  0  0  0  0  0  0
   14.3455   -1.1704    0.0000 C   0  0  0  0  0  0  0  0  0  0  0  0
    4.6783    0.8048    0.0000 C   0  0  0  0  0  0  0  0  0  0  0  0
    3.7320   -0.5000    0.0000 C   0  0  0  0  0  0  0  0  0  0  0  0
    3.7320    0.5000    0.0000 C   0  0  0  0  0  0  0  0  0  0  0  0
   16.3018   -0.7545    0.0000 C   0  0  0  0  0  0  0  0  0  0  0  0
   15.0146   -1.9135    0.0000 C   0  0  0  0  0  0  0  0  0  0  0  0
   15.9928   -1.7056    0.0000 C   0  0  0  0  0  0  0  0  0  0  0  0
    2.8660   -1.0000    0.0000 C   0  0  0  0  0  0  0  0  0  0  0  0
    2.8660    1.0000    0.0000 C   0  0  0  0  0  0  0  0  0  0  0  0
    2.0000   -0.5000    0.0000 C   0  0  0  0  0  0  0  0  0  0  0  0
    2.0000    0.5000    0.0000 C   0  0  0  0  0  0  0  0  0  0  0  0
   10.8594   -0.6895    0.0000 H   0  0  0  0  0  0  0  0  0  0  0  0
   11.3383    1.4708    0.0000 H   0  0  0  0  0  0  0  0  0  0  0  0
   10.7460    0.9375    0.0000 H   0  0  0  0  0  0  0  0  0  0  0  0
   11.1943   -1.1716    0.0000 H   0  0  0  0  0  0  0  0  0  0  0  0
   11.9523   -1.4179    0.0000 H   0  0  0  0  0  0  0  0  0  0  0  0
   12.8639    1.3876    0.0000 H   0  0  0  0  0  0  0  0  0  0  0  0
   12.1059    1.6339    0.0000 H   0  0  0  0  0  0  0  0  0  0  0  0
   12.7199   -1.2547    0.0000 H   0  0  0  0  0  0  0  0  0  0  0  0
   13.3122   -0.7214    0.0000 H   0  0  0  0  0  0  0  0  0  0  0  0
    9.5470   -0.6363    0.0000 H   0  0  0  0  0  0  0  0  0  0  0  0
   10.3051   -0.8826    0.0000 H   0  0  0  0  0  0  0  0  0  0  0  0
    7.5342    0.3918    0.0000 H   0  0  0  0  0  0  0  0  0  0  0  0
    8.5540    1.7571    0.0000 H   0  0  0  0  0  0  0  0  0  0  0  0
    8.2165    2.5151    0.0000 H   0  0  0  0  0  0  0  0  0  0  0  0
    7.4627    2.9503    0.0000 H   0  0  0  0  0  0  0  0  0  0  0  0
    6.6375    2.8636    0.0000 H   0  0  0  0  0  0  0  0  0  0  0  0
    5.9907    2.2812    0.0000 H   0  0  0  0  0  0  0  0  0  0  0  0
    5.8182    1.4696    0.0000 H   0  0  0  0  0  0  0  0  0  0  0  0
    9.5953    1.0250    0.0000 H   0  0  0  0  0  0  0  0  0  0  0  0
   14.5112    0.8524    0.0000 H   0  0  0  0  0  0  0  0  0  0  0  0
   13.7531    1.0987    0.0000 H   0  0  0  0  0  0  0  0  0  0  0  0
   15.8243    0.5783    0.0000 H   0  0  0  0  0  0  0  0  0  0  0  0
   13.7391   -1.2993    0.0000 H   0  0  0  0  0  0  0  0  0  0  0  0
    4.8709   -1.3940    0.0000 H   0  0  0  0  0  0  0  0  0  0  0  0
    4.8709    1.3941    0.0000 H   0  0  0  0  0  0  0  0  0  0  0  0
   16.9083   -0.6256    0.0000 H   0  0  0  0  0  0  0  0  0  0  0  0
   14.8231   -2.5032    0.0000 H   0  0  0  0  0  0  0  0  0  0  0  0
    2.8660   -1.6200    0.0000 H   0  0  0  0  0  0  0  0  0  0  0  0
    2.8660    1.6200    0.0000 H   0  0  0  0  0  0  0  0  0  0  0  0
    1.4631   -0.8100    0.0000 H   0  0  0  0  0  0  0  0  0  0  0  0
    1.4631    0.8100    0.0000 H   0  0  0  0  0  0  0  0  0  0  0  0
  1 30  1  0  0  0  0
  2 18  2  0  0  0  0
  3 20  2  0  0  0  0
  4 11  1  0  0  0  0
  4 12  1  0  0  0  0
  4 19  1  0  0  0  0
  5 14  1  0  0  0  0
  5 17  1  0  0  0  0
  5 20  1  0  0  0  0
  6 13  1  0  0  0  0
  6 18  1  0  0  0  0
  6 53  1  0  0  0  0
  7 22  1  0  0  0  0
  7 26  1  0  0  0  0
  7 58  1  0  0  0  0
  8  9  1  0  0  0  0
  8 10  1  0  0  0  0
  8 13  1  0  0  0  0
  8 35  1  0  0  0  0
  9 11  1  0  0  0  0
  9 36  1  0  0  0  0
  9 37  1  0  0  0  0
 10 12  1  0  0  0  0
 10 38  1  0  0  0  0
 10 39  1  0  0  0  0
 11 40  1  0  0  0  0
 11 41  1  0  0  0  0
 12 42  1  0  0  0  0
 12 43  1  0  0  0  0
 13 44  1  0  0  0  0
 13 45  1  0  0  0  0
 14 15  1  0  0  0  0
 14 18  1  0  0  0  0
 14 46  1  0  0  0  0
 15 16  1  0  0  0  0
 15 47  1  0  0  0  0
 15 48  1  0  0  0  0
 16 17  1  0  0  0  0
 16 49  1  0  0  0  0
 16 50  1  0  0  0  0
 17 51  1  0  0  0  0
 17 52  1  0  0  0  0
 19 21  1  0  0  0  0
 19 54  1  0  0  0  0
 19 55  1  0  0  0  0
 20 22  1  0  0  0  0
 21 23  2  0  0  0  0
 21 24  1  0  0  0  0
 22 25  2  0  0  0  0
 23 28  1  0  0  0  0
 23 56  1  0  0  0  0
 24 29  2  0  0  0  0
 24 57  1  0  0  0  0
 25 27  1  0  0  0  0
 25 59  1  0  0  0  0
 26 27  1  0  0  0  0
 26 31  2  0  0  0  0
 27 32  2  0  0  0  0
 28 30  2  0  0  0  0
 28 60  1  0  0  0  0
 29 30  1  0  0  0  0
 29 61  1  0  0  0  0
 31 33  1  0  0  0  0
 31 62  1  0  0  0  0
 32 34  1  0  0  0  0
 32 63  1  0  0  0  0
 33 34  2  0  0  0  0
 33 64  1  0  0  0  0
 34 65  1  0  0  0  0
M  END
> <PUBCHEM_COMPOUND_CID>
508787
> <PUBCHEM_COMPOUND_CANONICALIZED>
1
> <PUBCHEM_CACTVS_COMPLEXITY>
705
> <PUBCHEM_CACTVS_HBOND_ACCEPTOR>
3
> <PUBCHEM_CACTVS_HBOND_DONOR>
2
> <PUBCHEM_CACTVS_ROTATABLE_BOND>
6
> <PUBCHEM_CACTVS_SUBSKEYS>
AAADceB7sAAEAAAAAAAAAAAAAAAAAWLAAAA8YIAAAAAAAFgB9AAAHgIQAAAADSrBniQwwPPJkACoAyVyVACCgCAnByAImaG4ZtgIYPLBl7GUIQhglgDIyYcYiYCeBAAAAAACAAAIAAAAAAQAAAAAAAAAAA==
> <PUBCHEM_IUPAC_OPENEYE_NAME>
N-[[1-[(4-chlorophenyl)methyl]-4-piperidyl]methyl]-1-(1H-indole-2-carbonyl)pyrrolidine-2-carboxamide
> <PUBCHEM_IUPAC_CAS_NAME>
N-[[1-[(4-chlorophenyl)methyl]-4-piperidinyl]methyl]-1-[1H-indol-2-yl(oxo)methyl]-2-pyrrolidinecarboxamide
> <PUBCHEM_IUPAC_NAME_MARKUP>
<I>N</I>-[[1-[(4-chlorophenyl)methyl]piperidin-4-yl]methyl]-1-(1<I>H</I>-indole-2-carbonyl)pyrrolidine-2-carboxamide
> <PUBCHEM_IUPAC_NAME>
N-[[1-[(4-chlorophenyl)methyl]piperidin-4-yl]methyl]-1-(1H-indole-2-carbonyl)pyrrolidine-2-carboxamide
> <PUBCHEM_IUPAC_SYSTEMATIC_NAME>
N-[[1-[(4-chlorophenyl)methyl]piperidin-4-yl]methyl]-1-(1H-indol-2-ylcarbonyl)pyrrolidine-2-carboxamide
> <PUBCHEM_IUPAC_TRADITIONAL_NAME>
N-[[1-(4-chlorobenzyl)-4-piperidyl]methyl]-1-(1H-indole-2-carbonyl)pyrrolidine-2-carboxamide
> <PUBCHEM_IUPAC_INCHI>
InChI=1S/C27H31ClN4O2/c28-22-9-7-20(8-10-22)18-31-14-11-19(12-15-31)17-29-26(33)25-6-3-13-32(25)27(34)24-16-21-4-1-2-5-23(21)30-24/h1-2,4-5,7-10,16,19,25,30H,3,6,11-15,17-18H2,(H,29,33)
> <PUBCHEM_IUPAC_INCHIKEY>
ZPJMGLJRHHIJTN-UHFFFAOYSA-N
> <PUBCHEM_XLOGP3_AA>
4.6
> <PUBCHEM_EXACT_MASS>
478.2135539
> <PUBCHEM_MOLECULAR_FORMULA>
C27H31ClN4O2
> <PUBCHEM_MOLECULAR_WEIGHT>
479.0
> <PUBCHEM_OPENEYE_CAN_SMILES>
C1CC(N(C1)C(=O)C2=CC3=CC=CC=C3N2)C(=O)NCC4CCN(CC4)CC5=CC=C(C=C5)Cl
> <PUBCHEM_OPENEYE_ISO_SMILES>
C1CC(N(C1)C(=O)C2=CC3=CC=CC=C3N2)C(=O)NCC4CCN(CC4)CC5=CC=C(C=C5)Cl
> <PUBCHEM_CACTVS_TPSA>
68.4
> <PUBCHEM_MONOISOTOPIC_WEIGHT>
478.2135539
> <PUBCHEM_TOTAL_CHARGE>
0
> <PUBCHEM_HEAVY_ATOM_COUNT>
34
> <PUBCHEM_ATOM_DEF_STEREO_COUNT>
0
> <PUBCHEM_ATOM_UDEF_STEREO_COUNT>
1
> <PUBCHEM_BOND_DEF_STEREO_COUNT>
0
> <PUBCHEM_BOND_UDEF_STEREO_COUNT>
0
> <PUBCHEM_ISOTOPIC_ATOM_COUNT>
0
> <PUBCHEM_COMPONENT_COUNT>
1
> <PUBCHEM_CACTVS_TAUTO_COUNT>
-1
> <PUBCHEM_COORDINATE_TYPE>
1
5
255
> <PUBCHEM_BONDANNOTATIONS>
14  18  3
21  23  8
21  24  8
22  25  8
23  28  8
24  29  8
25  27  8
26  27  8
26  31  8
27  32  8
28  30  8
29  30  8
31  33  8
32  34  8
33  34  8
7  22  8
7  26  8
$$$$
