508714
  -OEChem-10302200282D
 89 92  0     1  0  0  0  0  0999 V2000
   13.2207   -2.2329    0.0000 S   0  0  0  0  0  0  0  0  0  0  0  0
   10.2852   -2.8516    0.0000 O   0  0  0  0  0  0  0  0  0  0  0  0
   13.9650   -1.5651    0.0000 O   0  0  0  0  0  0  0  0  0  0  0  0
   12.4764   -2.9008    0.0000 O   0  0  0  0  0  0  0  0  0  0  0  0
    6.3246   -1.0311    0.0000 O   0  0  0  0  0  0  0  0  0  0  0  0
    4.6318    2.1523    0.0000 O   0  0  0  0  0  0  0  0  0  0  0  0
   12.5528   -1.4886    0.0000 N   0  0  3  0  0  0  0  0  0  0  0  0
    7.6138    0.1256    0.0000 N   0  0  0  0  0  0  0  0  0  0  0  0
    6.2781    1.6142    0.0000 N   0  0  0  0  0  0  0  0  0  0  0  0
    4.6783   -2.1025    0.0000 N   0  0  0  0  0  0  0  0  0  0  0  0
   11.5743   -1.6948    0.0000 C   0  0  1  0  0  0  0  0  0  0  0  0
   10.9065   -0.9505    0.0000 C   0  0  0  0  0  0  0  0  0  0  0  0
   12.8635   -0.5381    0.0000 C   0  0  0  0  0  0  0  0  0  0  0  0
    9.9280   -1.1567    0.0000 C   0  0  0  0  0  0  0  0  0  0  0  0
   12.1957    0.2062    0.0000 C   0  0  0  0  0  0  0  0  0  0  0  0
   11.2637   -2.6453    0.0000 C   0  0  0  0  0  0  0  0  0  0  0  0
    9.2601   -0.4124    0.0000 C   0  0  0  0  0  0  0  0  0  0  0  0
   13.8885   -2.9772    0.0000 C   0  0  0  0  0  0  0  0  0  0  0  0
    8.2816   -0.6187    0.0000 C   0  0  0  0  0  0  0  0  0  0  0  0
   12.5063    1.1567    0.0000 C   0  0  0  0  0  0  0  0  0  0  0  0
   11.2171   -0.0000    0.0000 C   0  0  0  0  0  0  0  0  0  0  0  0
    5.9674    0.6637    0.0000 C   0  0  1  0  0  0  0  0  0  0  0  0
   14.8670   -2.7710    0.0000 C   0  0  0  0  0  0  0  0  0  0  0  0
   13.5779   -3.9277    0.0000 C   0  0  0  0  0  0  0  0  0  0  0  0
    4.9889    0.4575    0.0000 C   0  0  0  0  0  0  0  0  0  0  0  0
    6.6353   -0.0806    0.0000 C   0  0  0  0  0  0  0  0  0  0  0  0
    4.6783   -0.4930    0.0000 C   0  0  0  0  0  0  0  0  0  0  0  0
   15.5349   -3.5153    0.0000 C   0  0  0  0  0  0  0  0  0  0  0  0
   14.2457   -4.6720    0.0000 C   0  0  0  0  0  0  0  0  0  0  0  0
   15.2242   -4.4658    0.0000 C   0  0  0  0  0  0  0  0  0  0  0  0
    3.7320   -0.7977    0.0000 C   0  0  0  0  0  0  0  0  0  0  0  0
    3.7320   -1.7977    0.0000 C   0  0  0  0  0  0  0  0  0  0  0  0
    5.2619   -1.2977    0.0000 C   0  0  0  0  0  0  0  0  0  0  0  0
   15.8921   -5.2101    0.0000 C   0  0  0  0  0  0  0  0  0  0  0  0
    2.8660   -0.2977    0.0000 C   0  0  0  0  0  0  0  0  0  0  0  0
    5.6103    2.3586    0.0000 C   0  0  0  0  0  0  0  0  0  0  0  0
    2.8660   -2.2977    0.0000 C   0  0  0  0  0  0  0  0  0  0  0  0
    2.0000   -0.7977    0.0000 C   0  0  0  0  0  0  0  0  0  0  0  0
    2.0000   -1.7977    0.0000 C   0  0  0  0  0  0  0  0  0  0  0  0
    5.9209    3.3091    0.0000 C   0  0  0  0  0  0  0  0  0  0  0  0
    6.8994    3.5153    0.0000 C   0  0  0  0  0  0  0  0  0  0  0  0
    5.2531    4.0534    0.0000 C   0  0  0  0  0  0  0  0  0  0  0  0
    7.2101    4.4658    0.0000 C   0  0  0  0  0  0  0  0  0  0  0  0
    5.5637    5.0039    0.0000 C   0  0  0  0  0  0  0  0  0  0  0  0
    6.5422    5.2101    0.0000 C   0  0  0  0  0  0  0  0  0  0  0  0
   11.7669   -1.1055    0.0000 H   0  0  0  0  0  0  0  0  0  0  0  0
   11.4328   -0.6229    0.0000 H   0  0  0  0  0  0  0  0  0  0  0  0
   10.6752   -0.3753    0.0000 H   0  0  0  0  0  0  0  0  0  0  0  0
   13.4104   -0.8301    0.0000 H   0  0  0  0  0  0  0  0  0  0  0  0
   13.2461   -0.0502    0.0000 H   0  0  0  0  0  0  0  0  0  0  0  0
    9.4016   -1.4844    0.0000 H   0  0  0  0  0  0  0  0  0  0  0  0
   10.1592   -1.7320    0.0000 H   0  0  0  0  0  0  0  0  0  0  0  0
   12.0030   -0.3831    0.0000 H   0  0  0  0  0  0  0  0  0  0  0  0
   11.2842   -3.2650    0.0000 H   0  0  0  0  0  0  0  0  0  0  0  0
   11.8775   -2.7327    0.0000 H   0  0  0  0  0  0  0  0  0  0  0  0
    9.7865   -0.0848    0.0000 H   0  0  0  0  0  0  0  0  0  0  0  0
    9.0289    0.1628    0.0000 H   0  0  0  0  0  0  0  0  0  0  0  0
    7.7553   -0.9463    0.0000 H   0  0  0  0  0  0  0  0  0  0  0  0
    8.5129   -1.1939    0.0000 H   0  0  0  0  0  0  0  0  0  0  0  0
   13.0956    0.9641    0.0000 H   0  0  0  0  0  0  0  0  0  0  0  0
   12.6989    1.7461    0.0000 H   0  0  0  0  0  0  0  0  0  0  0  0
   11.9170    1.3494    0.0000 H   0  0  0  0  0  0  0  0  0  0  0  0
   11.0893    0.6067    0.0000 H   0  0  0  0  0  0  0  0  0  0  0  0
   10.6105   -0.1279    0.0000 H   0  0  0  0  0  0  0  0  0  0  0  0
   11.3450   -0.6067    0.0000 H   0  0  0  0  0  0  0  0  0  0  0  0
    7.8064    0.7150    0.0000 H   0  0  0  0  0  0  0  0  0  0  0  0
   10.0926   -3.4409    0.0000 H   0  0  0  0  0  0  0  0  0  0  0  0
    5.5534    1.1252    0.0000 H   0  0  0  0  0  0  0  0  0  0  0  0
   15.0596   -2.1817    0.0000 H   0  0  0  0  0  0  0  0  0  0  0  0
   12.9712   -4.0556    0.0000 H   0  0  0  0  0  0  0  0  0  0  0  0
    4.9684    1.0772    0.0000 H   0  0  0  0  0  0  0  0  0  0  0  0
    4.3751    0.5449    0.0000 H   0  0  0  0  0  0  0  0  0  0  0  0
   16.1415   -3.3874    0.0000 H   0  0  0  0  0  0  0  0  0  0  0  0
   14.0531   -5.2614    0.0000 H   0  0  0  0  0  0  0  0  0  0  0  0
    6.8848    1.7421    0.0000 H   0  0  0  0  0  0  0  0  0  0  0  0
    5.8819   -1.2977    0.0000 H   0  0  0  0  0  0  0  0  0  0  0  0
    4.8709   -2.6918    0.0000 H   0  0  0  0  0  0  0  0  0  0  0  0
   15.4306   -5.6242    0.0000 H   0  0  0  0  0  0  0  0  0  0  0  0
   16.3061   -5.6716    0.0000 H   0  0  0  0  0  0  0  0  0  0  0  0
   16.3535   -4.7960    0.0000 H   0  0  0  0  0  0  0  0  0  0  0  0
    2.8660    0.3223    0.0000 H   0  0  0  0  0  0  0  0  0  0  0  0
    2.8660   -2.9177    0.0000 H   0  0  0  0  0  0  0  0  0  0  0  0
    1.4631   -0.4877    0.0000 H   0  0  0  0  0  0  0  0  0  0  0  0
    1.4631   -2.1077    0.0000 H   0  0  0  0  0  0  0  0  0  0  0  0
    7.3135    3.0538    0.0000 H   0  0  0  0  0  0  0  0  0  0  0  0
    4.6464    3.9255    0.0000 H   0  0  0  0  0  0  0  0  0  0  0  0
    7.8168    4.5937    0.0000 H   0  0  0  0  0  0  0  0  0  0  0  0
    5.1497    5.4654    0.0000 H   0  0  0  0  0  0  0  0  0  0  0  0
    6.7349    5.7994    0.0000 H   0  0  0  0  0  0  0  0  0  0  0  0
  1  3  2  0  0  0  0
  1  4  2  0  0  0  0
  1  7  1  0  0  0  0
  1 18  1  0  0  0  0
  2 16  1  0  0  0  0
  2 67  1  0  0  0  0
  5 26  2  0  0  0  0
  6 36  2  0  0  0  0
 11  7  1  6  0  0  0
  7 13  1  0  0  0  0
  8 19  1  0  0  0  0
  8 26  1  0  0  0  0
  8 66  1  0  0  0  0
 22  9  1  6  0  0  0
  9 36  1  0  0  0  0
  9 75  1  0  0  0  0
 10 32  1  0  0  0  0
 10 33  1  0  0  0  0
 10 77  1  0  0  0  0
 11 12  1  0  0  0  0
 11 16  1  0  0  0  0
 11 46  1  0  0  0  0
 12 14  1  0  0  0  0
 12 47  1  0  0  0  0
 12 48  1  0  0  0  0
 13 15  1  0  0  0  0
 13 49  1  0  0  0  0
 13 50  1  0  0  0  0
 14 17  1  0  0  0  0
 14 51  1  0  0  0  0
 14 52  1  0  0  0  0
 15 20  1  0  0  0  0
 15 21  1  0  0  0  0
 15 53  1  0  0  0  0
 16 54  1  0  0  0  0
 16 55  1  0  0  0  0
 17 19  1  0  0  0  0
 17 56  1  0  0  0  0
 17 57  1  0  0  0  0
 18 23  2  0  0  0  0
 18 24  1  0  0  0  0
 19 58  1  0  0  0  0
 19 59  1  0  0  0  0
 20 60  1  0  0  0  0
 20 61  1  0  0  0  0
 20 62  1  0  0  0  0
 21 63  1  0  0  0  0
 21 64  1  0  0  0  0
 21 65  1  0  0  0  0
 22 25  1  0  0  0  0
 22 26  1  0  0  0  0
 22 68  1  0  0  0  0
 23 28  1  0  0  0  0
 23 69  1  0  0  0  0
 24 29  2  0  0  0  0
 24 70  1  0  0  0  0
 25 27  1  0  0  0  0
 25 71  1  0  0  0  0
 25 72  1  0  0  0  0
 27 31  1  0  0  0  0
 27 33  2  0  0  0  0
 28 30  2  0  0  0  0
 28 73  1  0  0  0  0
 29 30  1  0  0  0  0
 29 74  1  0  0  0  0
 30 34  1  0  0  0  0
 31 32  1  0  0  0  0
 31 35  2  0  0  0  0
 32 37  2  0  0  0  0
 33 76  1  0  0  0  0
 34 78  1  0  0  0  0
 34 79  1  0  0  0  0
 34 80  1  0  0  0  0
 35 38  1  0  0  0  0
 35 81  1  0  0  0  0
 36 40  1  0  0  0  0
 37 39  1  0  0  0  0
 37 82  1  0  0  0  0
 38 39  2  0  0  0  0
 38 83  1  0  0  0  0
 39 84  1  0  0  0  0
 40 41  2  0  0  0  0
 40 42  1  0  0  0  0
 41 43  1  0  0  0  0
 41 85  1  0  0  0  0
 42 44  2  0  0  0  0
 42 86  1  0  0  0  0
 43 45  2  0  0  0  0
 43 87  1  0  0  0  0
 44 45  1  0  0  0  0
 44 88  1  0  0  0  0
 45 89  1  0  0  0  0
M  END
> <PUBCHEM_COMPOUND_CID>
508714
> <PUBCHEM_COMPOUND_CANONICALIZED>
1
> <PUBCHEM_CACTVS_COMPLEXITY>
1020
> <PUBCHEM_CACTVS_HBOND_ACCEPTOR>
6
> <PUBCHEM_CACTVS_HBOND_DONOR>
4
> <PUBCHEM_CACTVS_ROTATABLE_BOND>
16
> <PUBCHEM_CACTVS_SUBSKEYS>
AAADcfB/uABAAAAAAAAAAAAAAAAAAWAAAAAwYMAAAAAAAFgB9AAAHgQQSAAADSjh3gY+wfLJkgKoAzV3VHDCgDA1AiAI2bm4ZNgKcPLAlbGUYQhklgDYyYeYycCOkAAAAAACAAAgAAAAAAQAAAAAAAAAAA==
> <PUBCHEM_IUPAC_OPENEYE_NAME>
N-[(1S)-2-[[(5S)-6-hydroxy-5-[isobutyl(p-tolylsulfonyl)amino]hexyl]amino]-1-(1H-indol-3-ylmethyl)-2-oxo-ethyl]benzamide
> <PUBCHEM_IUPAC_CAS_NAME>
N-[(2S)-1-[[(5S)-6-hydroxy-5-[(4-methylphenyl)sulfonyl-(2-methylpropyl)amino]hexyl]amino]-3-(1H-indol-3-yl)-1-oxopropan-2-yl]benzamide
> <PUBCHEM_IUPAC_NAME_MARKUP>
<I>N</I>-[(2<I>S</I>)-1-[[(5<I>S</I>)-6-hydroxy-5-[(4-methylphenyl)sulfonyl-(2-methylpropyl)amino]hexyl]amino]-3-(1<I>H</I>-indol-3-yl)-1-oxopropan-2-yl]benzamide
> <PUBCHEM_IUPAC_NAME>
N-[(2S)-1-[[(5S)-6-hydroxy-5-[(4-methylphenyl)sulfonyl-(2-methylpropyl)amino]hexyl]amino]-3-(1H-indol-3-yl)-1-oxopropan-2-yl]benzamide
> <PUBCHEM_IUPAC_SYSTEMATIC_NAME>
N-[(2S)-3-(1H-indol-3-yl)-1-[[(5S)-5-[(4-methylphenyl)sulfonyl-(2-methylpropyl)amino]-6-oxidanyl-hexyl]amino]-1-oxidanylidene-propan-2-yl]benzamide
> <PUBCHEM_IUPAC_TRADITIONAL_NAME>
N-[(1S)-2-[[(5S)-6-hydroxy-5-[isobutyl(tosyl)amino]hexyl]amino]-1-(1H-indol-3-ylmethyl)-2-keto-ethyl]benzamide
> <PUBCHEM_IUPAC_INCHI>
InChI=1S/C35H44N4O5S/c1-25(2)23-39(45(43,44)30-18-16-26(3)17-19-30)29(24-40)13-9-10-20-36-35(42)33(38-34(41)27-11-5-4-6-12-27)21-28-22-37-32-15-8-7-14-31(28)32/h4-8,11-12,14-19,22,25,29,33,37,40H,9-10,13,20-21,23-24H2,1-3H3,(H,36,42)(H,38,41)/t29-,33-/m0/s1
> <PUBCHEM_IUPAC_INCHIKEY>
ZHVOCZVEGVZIBZ-ZQAZVOLISA-N
> <PUBCHEM_XLOGP3_AA>
5.7
> <PUBCHEM_EXACT_MASS>
632.30324169
> <PUBCHEM_MOLECULAR_FORMULA>
C35H44N4O5S
> <PUBCHEM_MOLECULAR_WEIGHT>
632.8
> <PUBCHEM_OPENEYE_CAN_SMILES>
CC1=CC=C(C=C1)S(=O)(=O)N(CC(C)C)C(CCCCNC(=O)C(CC2=CNC3=CC=CC=C32)NC(=O)C4=CC=CC=C4)CO
> <PUBCHEM_OPENEYE_ISO_SMILES>
CC1=CC=C(C=C1)S(=O)(=O)N(CC(C)C)[C@@H](CCCCNC(=O)[C@H](CC2=CNC3=CC=CC=C32)NC(=O)C4=CC=CC=C4)CO
> <PUBCHEM_CACTVS_TPSA>
140
> <PUBCHEM_MONOISOTOPIC_WEIGHT>
632.30324169
> <PUBCHEM_TOTAL_CHARGE>
0
> <PUBCHEM_HEAVY_ATOM_COUNT>
45
> <PUBCHEM_ATOM_DEF_STEREO_COUNT>
2
> <PUBCHEM_ATOM_UDEF_STEREO_COUNT>
0
> <PUBCHEM_BOND_DEF_STEREO_COUNT>
0
> <PUBCHEM_BOND_UDEF_STEREO_COUNT>
0
> <PUBCHEM_ISOTOPIC_ATOM_COUNT>
0
> <PUBCHEM_COMPONENT_COUNT>
1
> <PUBCHEM_CACTVS_TAUTO_COUNT>
-1
> <PUBCHEM_COORDINATE_TYPE>
1
5
255
> <PUBCHEM_BONDANNOTATIONS>
10  32  8
10  33  8
18  23  8
18  24  8
23  28  8
24  29  8
27  31  8
27  33  8
28  30  8
29  30  8
31  32  8
31  35  8
32  37  8
35  38  8
37  39  8
38  39  8
40  41  8
40  42  8
41  43  8
42  44  8
43  45  8
44  45  8
11  7  6
22  9  6
$$$$
