508783
  -OEChem-10302200282D
 61 64  0     1  0  0  0  0  0999 V2000
    2.0000   -6.2990    0.0000 Cl  0  0  0  0  0  0  0  0  0  0  0  0
    5.4641    1.7010    0.0000 O   0  0  0  0  0  0  0  0  0  0  0  0
    5.6065    3.0556    0.0000 O   0  0  0  0  0  0  0  0  0  0  0  0
    5.4641   -3.2990    0.0000 N   0  0  0  0  0  0  0  0  0  0  0  0
    7.3007    2.6955    0.0000 N   0  0  0  0  0  0  0  0  0  0  0  0
    6.3301    0.2010    0.0000 N   0  0  0  0  0  0  0  0  0  0  0  0
    5.4641   -1.2990    0.0000 C   0  0  0  0  0  0  0  0  0  0  0  0
    4.5981   -1.7990    0.0000 C   0  0  0  0  0  0  0  0  0  0  0  0
    6.3301   -1.7990    0.0000 C   0  0  0  0  0  0  0  0  0  0  0  0
    4.5981   -2.7990    0.0000 C   0  0  0  0  0  0  0  0  0  0  0  0
    6.3301   -2.7990    0.0000 C   0  0  0  0  0  0  0  0  0  0  0  0
    5.4641   -0.2990    0.0000 C   0  0  0  0  0  0  0  0  0  0  0  0
    7.1962    1.7010    0.0000 C   0  0  3  0  0  0  0  0  0  0  0  0
    8.1097    1.2942    0.0000 C   0  0  0  0  0  0  0  0  0  0  0  0
    8.7788    2.0374    0.0000 C   0  0  0  0  0  0  0  0  0  0  0  0
    8.2788    2.9034    0.0000 C   0  0  0  0  0  0  0  0  0  0  0  0
    6.3301    1.2010    0.0000 C   0  0  0  0  0  0  0  0  0  0  0  0
    5.4641   -4.2990    0.0000 C   0  0  0  0  0  0  0  0  0  0  0  0
    6.5575    3.3646    0.0000 C   0  0  0  0  0  0  0  0  0  0  0  0
    4.5981   -4.7990    0.0000 C   0  0  0  0  0  0  0  0  0  0  0  0
    6.7654    4.3428    0.0000 C   0  0  0  0  0  0  0  0  0  0  0  0
    3.7320   -4.2990    0.0000 C   0  0  0  0  0  0  0  0  0  0  0  0
    4.5981   -5.7990    0.0000 C   0  0  0  0  0  0  0  0  0  0  0  0
    6.0223    5.0119    0.0000 C   0  0  0  0  0  0  0  0  0  0  0  0
    7.7165    4.6518    0.0000 C   0  0  0  0  0  0  0  0  0  0  0  0
    2.8660   -4.7990    0.0000 C   0  0  0  0  0  0  0  0  0  0  0  0
    3.7320   -6.2990    0.0000 C   0  0  0  0  0  0  0  0  0  0  0  0
    2.8660   -5.7990    0.0000 C   0  0  0  0  0  0  0  0  0  0  0  0
    6.2302    5.9900    0.0000 C   0  0  0  0  0  0  0  0  0  0  0  0
    7.9244    5.6299    0.0000 C   0  0  0  0  0  0  0  0  0  0  0  0
    7.1813    6.2990    0.0000 C   0  0  0  0  0  0  0  0  0  0  0  0
    6.0010   -0.9890    0.0000 H   0  0  0  0  0  0  0  0  0  0  0  0
    4.3860   -1.2164    0.0000 H   0  0  0  0  0  0  0  0  0  0  0  0
    3.9875   -1.9067    0.0000 H   0  0  0  0  0  0  0  0  0  0  0  0
    6.9407   -1.9067    0.0000 H   0  0  0  0  0  0  0  0  0  0  0  0
    6.5422   -1.2164    0.0000 H   0  0  0  0  0  0  0  0  0  0  0  0
    3.9875   -2.6914    0.0000 H   0  0  0  0  0  0  0  0  0  0  0  0
    4.3860   -3.3817    0.0000 H   0  0  0  0  0  0  0  0  0  0  0  0
    6.5422   -3.3817    0.0000 H   0  0  0  0  0  0  0  0  0  0  0  0
    6.9407   -2.6914    0.0000 H   0  0  0  0  0  0  0  0  0  0  0  0
    5.2520    0.2836    0.0000 H   0  0  0  0  0  0  0  0  0  0  0  0
    4.8535   -0.4067    0.0000 H   0  0  0  0  0  0  0  0  0  0  0  0
    6.6762    2.0386    0.0000 H   0  0  0  0  0  0  0  0  0  0  0  0
    7.7997    0.7573    0.0000 H   0  0  0  0  0  0  0  0  0  0  0  0
    8.6113    0.9298    0.0000 H   0  0  0  0  0  0  0  0  0  0  0  0
    9.1937    1.5766    0.0000 H   0  0  0  0  0  0  0  0  0  0  0  0
    9.2804    2.4018    0.0000 H   0  0  0  0  0  0  0  0  0  0  0  0
    8.8452    3.1556    0.0000 H   0  0  0  0  0  0  0  0  0  0  0  0
    8.0872    3.4930    0.0000 H   0  0  0  0  0  0  0  0  0  0  0  0
    6.8671   -0.1090    0.0000 H   0  0  0  0  0  0  0  0  0  0  0  0
    5.6762   -4.8817    0.0000 H   0  0  0  0  0  0  0  0  0  0  0  0
    6.0747   -4.1914    0.0000 H   0  0  0  0  0  0  0  0  0  0  0  0
    3.7320   -3.6790    0.0000 H   0  0  0  0  0  0  0  0  0  0  0  0
    5.1350   -6.1090    0.0000 H   0  0  0  0  0  0  0  0  0  0  0  0
    5.4326    4.8203    0.0000 H   0  0  0  0  0  0  0  0  0  0  0  0
    8.1773    4.2369    0.0000 H   0  0  0  0  0  0  0  0  0  0  0  0
    2.3291   -4.4890    0.0000 H   0  0  0  0  0  0  0  0  0  0  0  0
    3.7320   -6.9190    0.0000 H   0  0  0  0  0  0  0  0  0  0  0  0
    5.7695    6.4049    0.0000 H   0  0  0  0  0  0  0  0  0  0  0  0
    8.5141    5.8215    0.0000 H   0  0  0  0  0  0  0  0  0  0  0  0
    7.3102    6.9055    0.0000 H   0  0  0  0  0  0  0  0  0  0  0  0
  1 28  1  0  0  0  0
  2 17  2  0  0  0  0
  3 19  2  0  0  0  0
  4 10  1  0  0  0  0
  4 11  1  0  0  0  0
  4 18  1  0  0  0  0
  5 13  1  0  0  0  0
  5 16  1  0  0  0  0
  5 19  1  0  0  0  0
  6 12  1  0  0  0  0
  6 17  1  0  0  0  0
  6 50  1  0  0  0  0
  7  8  1  0  0  0  0
  7  9  1  0  0  0  0
  7 12  1  0  0  0  0
  7 32  1  0  0  0  0
  8 10  1  0  0  0  0
  8 33  1  0  0  0  0
  8 34  1  0  0  0  0
  9 11  1  0  0  0  0
  9 35  1  0  0  0  0
  9 36  1  0  0  0  0
 10 37  1  0  0  0  0
 10 38  1  0  0  0  0
 11 39  1  0  0  0  0
 11 40  1  0  0  0  0
 12 41  1  0  0  0  0
 12 42  1  0  0  0  0
 13 14  1  0  0  0  0
 13 17  1  0  0  0  0
 13 43  1  0  0  0  0
 14 15  1  0  0  0  0
 14 44  1  0  0  0  0
 14 45  1  0  0  0  0
 15 16  1  0  0  0  0
 15 46  1  0  0  0  0
 15 47  1  0  0  0  0
 16 48  1  0  0  0  0
 16 49  1  0  0  0  0
 18 20  1  0  0  0  0
 18 51  1  0  0  0  0
 18 52  1  0  0  0  0
 19 21  1  0  0  0  0
 20 22  2  0  0  0  0
 20 23  1  0  0  0  0
 21 24  2  0  0  0  0
 21 25  1  0  0  0  0
 22 26  1  0  0  0  0
 22 53  1  0  0  0  0
 23 27  2  0  0  0  0
 23 54  1  0  0  0  0
 24 29  1  0  0  0  0
 24 55  1  0  0  0  0
 25 30  2  0  0  0  0
 25 56  1  0  0  0  0
 26 28  2  0  0  0  0
 26 57  1  0  0  0  0
 27 28  1  0  0  0  0
 27 58  1  0  0  0  0
 29 31  2  0  0  0  0
 29 59  1  0  0  0  0
 30 31  1  0  0  0  0
 30 60  1  0  0  0  0
 31 61  1  0  0  0  0
M  END
> <PUBCHEM_COMPOUND_CID>
508783
> <PUBCHEM_COMPOUND_CANONICALIZED>
1
> <PUBCHEM_CACTVS_COMPLEXITY>
594
> <PUBCHEM_CACTVS_HBOND_ACCEPTOR>
3
> <PUBCHEM_CACTVS_HBOND_DONOR>
1
> <PUBCHEM_CACTVS_ROTATABLE_BOND>
6
> <PUBCHEM_CACTVS_SUBSKEYS>
AAADceB7MAAEAAAAAAAAAAAAAAAAAWAAAAA8YIAAAAAAAAABQAAAHgIQAAAADSrBmCQwAIPAAACIAiFSEACCAAAkBQAIiIGIBsgIYDKBlzGUIQhglgCIiYcYiQCOBAAAAAAAAAAIAAAAAAAAAAAAAAAAAA==
> <PUBCHEM_IUPAC_OPENEYE_NAME>
1-benzoyl-N-[[1-[(4-chlorophenyl)methyl]-4-piperidyl]methyl]pyrrolidine-2-carboxamide
> <PUBCHEM_IUPAC_CAS_NAME>
1-benzoyl-N-[[1-[(4-chlorophenyl)methyl]-4-piperidinyl]methyl]-2-pyrrolidinecarboxamide
> <PUBCHEM_IUPAC_NAME_MARKUP>
1-benzoyl-<I>N</I>-[[1-[(4-chlorophenyl)methyl]piperidin-4-yl]methyl]pyrrolidine-2-carboxamide
> <PUBCHEM_IUPAC_NAME>
1-benzoyl-N-[[1-[(4-chlorophenyl)methyl]piperidin-4-yl]methyl]pyrrolidine-2-carboxamide
> <PUBCHEM_IUPAC_SYSTEMATIC_NAME>
N-[[1-[(4-chlorophenyl)methyl]piperidin-4-yl]methyl]-1-(phenylcarbonyl)pyrrolidine-2-carboxamide
> <PUBCHEM_IUPAC_TRADITIONAL_NAME>
1-benzoyl-N-[[1-(4-chlorobenzyl)-4-piperidyl]methyl]pyrrolidine-2-carboxamide
> <PUBCHEM_IUPAC_INCHI>
InChI=1S/C25H30ClN3O2/c26-22-10-8-20(9-11-22)18-28-15-12-19(13-16-28)17-27-24(30)23-7-4-14-29(23)25(31)21-5-2-1-3-6-21/h1-3,5-6,8-11,19,23H,4,7,12-18H2,(H,27,30)
> <PUBCHEM_IUPAC_INCHIKEY>
GIOZFMHNIVIVFM-UHFFFAOYSA-N
> <PUBCHEM_XLOGP3_AA>
4.2
> <PUBCHEM_EXACT_MASS>
439.2026549
> <PUBCHEM_MOLECULAR_FORMULA>
C25H30ClN3O2
> <PUBCHEM_MOLECULAR_WEIGHT>
440.0
> <PUBCHEM_OPENEYE_CAN_SMILES>
C1CC(N(C1)C(=O)C2=CC=CC=C2)C(=O)NCC3CCN(CC3)CC4=CC=C(C=C4)Cl
> <PUBCHEM_OPENEYE_ISO_SMILES>
C1CC(N(C1)C(=O)C2=CC=CC=C2)C(=O)NCC3CCN(CC3)CC4=CC=C(C=C4)Cl
> <PUBCHEM_CACTVS_TPSA>
52.6
> <PUBCHEM_MONOISOTOPIC_WEIGHT>
439.2026549
> <PUBCHEM_TOTAL_CHARGE>
0
> <PUBCHEM_HEAVY_ATOM_COUNT>
31
> <PUBCHEM_ATOM_DEF_STEREO_COUNT>
0
> <PUBCHEM_ATOM_UDEF_STEREO_COUNT>
1
> <PUBCHEM_BOND_DEF_STEREO_COUNT>
0
> <PUBCHEM_BOND_UDEF_STEREO_COUNT>
0
> <PUBCHEM_ISOTOPIC_ATOM_COUNT>
0
> <PUBCHEM_COMPONENT_COUNT>
1
> <PUBCHEM_CACTVS_TAUTO_COUNT>
-1
> <PUBCHEM_COORDINATE_TYPE>
1
5
255
> <PUBCHEM_BONDANNOTATIONS>
13  17  3
20  22  8
20  23  8
21  24  8
21  25  8
22  26  8
23  27  8
24  29  8
25  30  8
26  28  8
27  28  8
29  31  8
30  31  8
$$$$
