508709
  -OEChem-10302200282D
 88 91  0     1  0  0  0  0  0999 V2000
   13.2207   -1.9382    0.0000 S   0  0  0  0  0  0  0  0  0  0  0  0
   10.2852   -2.5569    0.0000 O   0  0  0  0  0  0  0  0  0  0  0  0
   13.9650   -1.2704    0.0000 O   0  0  0  0  0  0  0  0  0  0  0  0
   12.4764   -2.6061    0.0000 O   0  0  0  0  0  0  0  0  0  0  0  0
    6.3246   -0.7364    0.0000 O   0  0  0  0  0  0  0  0  0  0  0  0
    4.6318    2.4470    0.0000 O   0  0  0  0  0  0  0  0  0  0  0  0
   12.5528   -1.1939    0.0000 N   0  0  3  0  0  0  0  0  0  0  0  0
    7.6138    0.4203    0.0000 N   0  0  0  0  0  0  0  0  0  0  0  0
    6.2781    1.9089    0.0000 N   0  0  0  0  0  0  0  0  0  0  0  0
    4.6783   -1.8078    0.0000 N   0  0  0  0  0  0  0  0  0  0  0  0
   15.8921   -4.9154    0.0000 N   0  0  0  0  0  0  0  0  0  0  0  0
   11.5743   -1.4002    0.0000 C   0  0  1  0  0  0  0  0  0  0  0  0
   10.9065   -0.6559    0.0000 C   0  0  0  0  0  0  0  0  0  0  0  0
   12.8635   -0.2434    0.0000 C   0  0  0  0  0  0  0  0  0  0  0  0
    9.9280   -0.8621    0.0000 C   0  0  0  0  0  0  0  0  0  0  0  0
   12.1957    0.5009    0.0000 C   0  0  0  0  0  0  0  0  0  0  0  0
   11.2637   -2.3507    0.0000 C   0  0  0  0  0  0  0  0  0  0  0  0
    9.2601   -0.1178    0.0000 C   0  0  0  0  0  0  0  0  0  0  0  0
    8.2816   -0.3240    0.0000 C   0  0  0  0  0  0  0  0  0  0  0  0
   13.8885   -2.6826    0.0000 C   0  0  0  0  0  0  0  0  0  0  0  0
   12.5063    1.4514    0.0000 C   0  0  0  0  0  0  0  0  0  0  0  0
   11.2171    0.2947    0.0000 C   0  0  0  0  0  0  0  0  0  0  0  0
    5.9674    0.9584    0.0000 C   0  0  1  0  0  0  0  0  0  0  0  0
   14.8670   -2.4763    0.0000 C   0  0  0  0  0  0  0  0  0  0  0  0
   13.5779   -3.6331    0.0000 C   0  0  0  0  0  0  0  0  0  0  0  0
    4.9889    0.7522    0.0000 C   0  0  0  0  0  0  0  0  0  0  0  0
    6.6353    0.2141    0.0000 C   0  0  0  0  0  0  0  0  0  0  0  0
    4.6783   -0.1983    0.0000 C   0  0  0  0  0  0  0  0  0  0  0  0
   15.5349   -3.2206    0.0000 C   0  0  0  0  0  0  0  0  0  0  0  0
   14.2457   -4.3774    0.0000 C   0  0  0  0  0  0  0  0  0  0  0  0
    3.7320   -0.5031    0.0000 C   0  0  0  0  0  0  0  0  0  0  0  0
   15.2242   -4.1712    0.0000 C   0  0  0  0  0  0  0  0  0  0  0  0
    3.7320   -1.5031    0.0000 C   0  0  0  0  0  0  0  0  0  0  0  0
    5.2619   -1.0031    0.0000 C   0  0  0  0  0  0  0  0  0  0  0  0
    2.8660   -0.0031    0.0000 C   0  0  0  0  0  0  0  0  0  0  0  0
    5.6103    2.6532    0.0000 C   0  0  0  0  0  0  0  0  0  0  0  0
    2.8660   -2.0031    0.0000 C   0  0  0  0  0  0  0  0  0  0  0  0
    2.0000   -0.5031    0.0000 C   0  0  0  0  0  0  0  0  0  0  0  0
    2.0000   -1.5031    0.0000 C   0  0  0  0  0  0  0  0  0  0  0  0
    5.9209    3.6037    0.0000 C   0  0  0  0  0  0  0  0  0  0  0  0
    6.8994    3.8100    0.0000 C   0  0  0  0  0  0  0  0  0  0  0  0
    5.2531    4.3480    0.0000 C   0  0  0  0  0  0  0  0  0  0  0  0
    7.2101    4.7605    0.0000 C   0  0  0  0  0  0  0  0  0  0  0  0
    5.5637    5.2986    0.0000 C   0  0  0  0  0  0  0  0  0  0  0  0
    6.5422    5.5048    0.0000 C   0  0  0  0  0  0  0  0  0  0  0  0
   11.7669   -0.8108    0.0000 H   0  0  0  0  0  0  0  0  0  0  0  0
   11.4328   -0.3282    0.0000 H   0  0  0  0  0  0  0  0  0  0  0  0
   10.6752   -0.0806    0.0000 H   0  0  0  0  0  0  0  0  0  0  0  0
   13.4104   -0.5354    0.0000 H   0  0  0  0  0  0  0  0  0  0  0  0
   13.2461    0.2445    0.0000 H   0  0  0  0  0  0  0  0  0  0  0  0
    9.4016   -1.1897    0.0000 H   0  0  0  0  0  0  0  0  0  0  0  0
   10.1592   -1.4373    0.0000 H   0  0  0  0  0  0  0  0  0  0  0  0
   12.0030   -0.0884    0.0000 H   0  0  0  0  0  0  0  0  0  0  0  0
   11.2842   -2.9703    0.0000 H   0  0  0  0  0  0  0  0  0  0  0  0
   11.8775   -2.4380    0.0000 H   0  0  0  0  0  0  0  0  0  0  0  0
    9.7865    0.2099    0.0000 H   0  0  0  0  0  0  0  0  0  0  0  0
    9.0289    0.4575    0.0000 H   0  0  0  0  0  0  0  0  0  0  0  0
    7.7553   -0.6516    0.0000 H   0  0  0  0  0  0  0  0  0  0  0  0
    8.5129   -0.8992    0.0000 H   0  0  0  0  0  0  0  0  0  0  0  0
   13.0956    1.2588    0.0000 H   0  0  0  0  0  0  0  0  0  0  0  0
   12.6989    2.0407    0.0000 H   0  0  0  0  0  0  0  0  0  0  0  0
   11.9170    1.6440    0.0000 H   0  0  0  0  0  0  0  0  0  0  0  0
   11.0893    0.9013    0.0000 H   0  0  0  0  0  0  0  0  0  0  0  0
   10.6105    0.1668    0.0000 H   0  0  0  0  0  0  0  0  0  0  0  0
   11.3450   -0.3120    0.0000 H   0  0  0  0  0  0  0  0  0  0  0  0
    7.8064    1.0096    0.0000 H   0  0  0  0  0  0  0  0  0  0  0  0
    5.5534    1.4199    0.0000 H   0  0  0  0  0  0  0  0  0  0  0  0
   10.0926   -3.1462    0.0000 H   0  0  0  0  0  0  0  0  0  0  0  0
   15.0596   -1.8870    0.0000 H   0  0  0  0  0  0  0  0  0  0  0  0
   12.9712   -3.7609    0.0000 H   0  0  0  0  0  0  0  0  0  0  0  0
    4.9684    1.3718    0.0000 H   0  0  0  0  0  0  0  0  0  0  0  0
    4.3751    0.8395    0.0000 H   0  0  0  0  0  0  0  0  0  0  0  0
   16.1415   -3.0928    0.0000 H   0  0  0  0  0  0  0  0  0  0  0  0
   14.0531   -4.9667    0.0000 H   0  0  0  0  0  0  0  0  0  0  0  0
    6.8848    2.0368    0.0000 H   0  0  0  0  0  0  0  0  0  0  0  0
    5.8819   -1.0031    0.0000 H   0  0  0  0  0  0  0  0  0  0  0  0
    4.8709   -2.3971    0.0000 H   0  0  0  0  0  0  0  0  0  0  0  0
    2.8660    0.6169    0.0000 H   0  0  0  0  0  0  0  0  0  0  0  0
    2.8660   -2.6231    0.0000 H   0  0  0  0  0  0  0  0  0  0  0  0
    1.4631   -0.1931    0.0000 H   0  0  0  0  0  0  0  0  0  0  0  0
   16.4987   -4.7876    0.0000 H   0  0  0  0  0  0  0  0  0  0  0  0
   15.6994   -5.5048    0.0000 H   0  0  0  0  0  0  0  0  0  0  0  0
    1.4631   -1.8131    0.0000 H   0  0  0  0  0  0  0  0  0  0  0  0
    7.3135    3.3485    0.0000 H   0  0  0  0  0  0  0  0  0  0  0  0
    4.6464    4.2202    0.0000 H   0  0  0  0  0  0  0  0  0  0  0  0
    7.8168    4.8883    0.0000 H   0  0  0  0  0  0  0  0  0  0  0  0
    5.1497    5.7600    0.0000 H   0  0  0  0  0  0  0  0  0  0  0  0
    6.7349    6.0941    0.0000 H   0  0  0  0  0  0  0  0  0  0  0  0
  1  3  2  0  0  0  0
  1  4  2  0  0  0  0
  1  7  1  0  0  0  0
  1 20  1  0  0  0  0
  2 17  1  0  0  0  0
  2 68  1  0  0  0  0
  5 27  2  0  0  0  0
  6 36  2  0  0  0  0
 12  7  1  6  0  0  0
  7 14  1  0  0  0  0
  8 19  1  0  0  0  0
  8 27  1  0  0  0  0
  8 66  1  0  0  0  0
 23  9  1  6  0  0  0
  9 36  1  0  0  0  0
  9 75  1  0  0  0  0
 10 33  1  0  0  0  0
 10 34  1  0  0  0  0
 10 77  1  0  0  0  0
 11 32  1  0  0  0  0
 11 81  1  0  0  0  0
 11 82  1  0  0  0  0
 12 13  1  0  0  0  0
 12 17  1  0  0  0  0
 12 46  1  0  0  0  0
 13 15  1  0  0  0  0
 13 47  1  0  0  0  0
 13 48  1  0  0  0  0
 14 16  1  0  0  0  0
 14 49  1  0  0  0  0
 14 50  1  0  0  0  0
 15 18  1  0  0  0  0
 15 51  1  0  0  0  0
 15 52  1  0  0  0  0
 16 21  1  0  0  0  0
 16 22  1  0  0  0  0
 16 53  1  0  0  0  0
 17 54  1  0  0  0  0
 17 55  1  0  0  0  0
 18 19  1  0  0  0  0
 18 56  1  0  0  0  0
 18 57  1  0  0  0  0
 19 58  1  0  0  0  0
 19 59  1  0  0  0  0
 20 24  2  0  0  0  0
 20 25  1  0  0  0  0
 21 60  1  0  0  0  0
 21 61  1  0  0  0  0
 21 62  1  0  0  0  0
 22 63  1  0  0  0  0
 22 64  1  0  0  0  0
 22 65  1  0  0  0  0
 23 26  1  0  0  0  0
 23 27  1  0  0  0  0
 23 67  1  0  0  0  0
 24 29  1  0  0  0  0
 24 69  1  0  0  0  0
 25 30  2  0  0  0  0
 25 70  1  0  0  0  0
 26 28  1  0  0  0  0
 26 71  1  0  0  0  0
 26 72  1  0  0  0  0
 28 31  1  0  0  0  0
 28 34  2  0  0  0  0
 29 32  2  0  0  0  0
 29 73  1  0  0  0  0
 30 32  1  0  0  0  0
 30 74  1  0  0  0  0
 31 33  1  0  0  0  0
 31 35  2  0  0  0  0
 33 37  2  0  0  0  0
 34 76  1  0  0  0  0
 35 38  1  0  0  0  0
 35 78  1  0  0  0  0
 36 40  1  0  0  0  0
 37 39  1  0  0  0  0
 37 79  1  0  0  0  0
 38 39  2  0  0  0  0
 38 80  1  0  0  0  0
 39 83  1  0  0  0  0
 40 41  2  0  0  0  0
 40 42  1  0  0  0  0
 41 43  1  0  0  0  0
 41 84  1  0  0  0  0
 42 44  2  0  0  0  0
 42 85  1  0  0  0  0
 43 45  2  0  0  0  0
 43 86  1  0  0  0  0
 44 45  1  0  0  0  0
 44 87  1  0  0  0  0
 45 88  1  0  0  0  0
M  END
> <PUBCHEM_COMPOUND_CID>
508709
> <PUBCHEM_COMPOUND_CANONICALIZED>
1
> <PUBCHEM_CACTVS_COMPLEXITY>
1020
> <PUBCHEM_CACTVS_HBOND_ACCEPTOR>
7
> <PUBCHEM_CACTVS_HBOND_DONOR>
5
> <PUBCHEM_CACTVS_ROTATABLE_BOND>
16
> <PUBCHEM_CACTVS_SUBSKEYS>
AAADcfB/uABAAAAAAAAAAAAAAAAAAWAAAAAwYMAAAAAAAFgB9AAAHgQQSAAADSjh3gY+wfLJkgKoAzV3VHDCgDA1AiAI2bm4ZNgKcPLAlbGUYQhklgDYyYeYycCOgAQAAAACAAAACAAAAAQAAAAAAAAAAA==
> <PUBCHEM_IUPAC_OPENEYE_NAME>
N-[(1S)-2-[[(5S)-5-[(4-aminophenyl)sulfonyl-isobutyl-amino]-6-hydroxy-hexyl]amino]-1-(1H-indol-3-ylmethyl)-2-oxo-ethyl]benzamide
> <PUBCHEM_IUPAC_CAS_NAME>
N-[(2S)-1-[[(5S)-5-[(4-aminophenyl)sulfonyl-(2-methylpropyl)amino]-6-hydroxyhexyl]amino]-3-(1H-indol-3-yl)-1-oxopropan-2-yl]benzamide
> <PUBCHEM_IUPAC_NAME_MARKUP>
<I>N</I>-[(2<I>S</I>)-1-[[(5<I>S</I>)-5-[(4-aminophenyl)sulfonyl-(2-methylpropyl)amino]-6-hydroxyhexyl]amino]-3-(1<I>H</I>-indol-3-yl)-1-oxopropan-2-yl]benzamide
> <PUBCHEM_IUPAC_NAME>
N-[(2S)-1-[[(5S)-5-[(4-aminophenyl)sulfonyl-(2-methylpropyl)amino]-6-hydroxyhexyl]amino]-3-(1H-indol-3-yl)-1-oxopropan-2-yl]benzamide
> <PUBCHEM_IUPAC_SYSTEMATIC_NAME>
N-[(2S)-1-[[(5S)-5-[(4-aminophenyl)sulfonyl-(2-methylpropyl)amino]-6-oxidanyl-hexyl]amino]-3-(1H-indol-3-yl)-1-oxidanylidene-propan-2-yl]benzamide
> <PUBCHEM_IUPAC_TRADITIONAL_NAME>
N-[(1S)-2-[[(5S)-6-hydroxy-5-[isobutyl(sulfanilyl)amino]hexyl]amino]-1-(1H-indol-3-ylmethyl)-2-keto-ethyl]benzamide
> <PUBCHEM_IUPAC_INCHI>
InChI=1S/C34H43N5O5S/c1-24(2)22-39(45(43,44)29-17-15-27(35)16-18-29)28(23-40)12-8-9-19-36-34(42)32(38-33(41)25-10-4-3-5-11-25)20-26-21-37-31-14-7-6-13-30(26)31/h3-7,10-11,13-18,21,24,28,32,37,40H,8-9,12,19-20,22-23,35H2,1-2H3,(H,36,42)(H,38,41)/t28-,32-/m0/s1
> <PUBCHEM_IUPAC_INCHIKEY>
ILPVNMHGKVAQAM-IUDBTDONSA-N
> <PUBCHEM_XLOGP3_AA>
4.6
> <PUBCHEM_EXACT_MASS>
633.29849066
> <PUBCHEM_MOLECULAR_FORMULA>
C34H43N5O5S
> <PUBCHEM_MOLECULAR_WEIGHT>
633.8
> <PUBCHEM_OPENEYE_CAN_SMILES>
CC(C)CN(C(CCCCNC(=O)C(CC1=CNC2=CC=CC=C21)NC(=O)C3=CC=CC=C3)CO)S(=O)(=O)C4=CC=C(C=C4)N
> <PUBCHEM_OPENEYE_ISO_SMILES>
CC(C)CN([C@@H](CCCCNC(=O)[C@H](CC1=CNC2=CC=CC=C21)NC(=O)C3=CC=CC=C3)CO)S(=O)(=O)C4=CC=C(C=C4)N
> <PUBCHEM_CACTVS_TPSA>
166
> <PUBCHEM_MONOISOTOPIC_WEIGHT>
633.29849066
> <PUBCHEM_TOTAL_CHARGE>
0
> <PUBCHEM_HEAVY_ATOM_COUNT>
45
> <PUBCHEM_ATOM_DEF_STEREO_COUNT>
2
> <PUBCHEM_ATOM_UDEF_STEREO_COUNT>
0
> <PUBCHEM_BOND_DEF_STEREO_COUNT>
0
> <PUBCHEM_BOND_UDEF_STEREO_COUNT>
0
> <PUBCHEM_ISOTOPIC_ATOM_COUNT>
0
> <PUBCHEM_COMPONENT_COUNT>
1
> <PUBCHEM_CACTVS_TAUTO_COUNT>
-1
> <PUBCHEM_COORDINATE_TYPE>
1
5
255
> <PUBCHEM_BONDANNOTATIONS>
10  33  8
10  34  8
20  24  8
20  25  8
24  29  8
25  30  8
28  31  8
28  34  8
29  32  8
30  32  8
31  33  8
31  35  8
33  37  8
35  38  8
37  39  8
38  39  8
40  41  8
40  42  8
41  43  8
42  44  8
43  45  8
44  45  8
12  7  6
23  9  6
$$$$
