508736
  -OEChem-10302200282D
 58 61  0     1  0  0  0  0  0999 V2000
   11.7976    3.9148    0.0000 Cl  0  0  0  0  0  0  0  0  0  0  0  0
    2.8660   -4.6193    0.0000 Cl  0  0  0  0  0  0  0  0  0  0  0  0
    3.6750    2.9685    0.0000 S   0  0  0  0  0  0  0  0  0  0  0  0
    4.5981    2.3807    0.0000 O   0  0  0  0  0  0  0  0  0  0  0  0
    2.0000   -0.1193    0.0000 O   0  0  0  0  0  0  0  0  0  0  0  0
    7.4128    2.5831    0.0000 N   0  0  3  0  0  0  0  0  0  0  0  0
    5.4641    0.8807    0.0000 N   0  0  0  0  0  0  0  0  0  0  0  0
    3.7320   -0.1193    0.0000 N   0  0  0  0  0  0  0  0  0  0  0  0
    6.3301    1.3807    0.0000 C   0  0  2  0  0  0  0  0  0  0  0  0
    7.2437    0.9740    0.0000 C   0  0  0  0  0  0  0  0  0  0  0  0
    6.4347    2.3752    0.0000 C   0  0  0  0  0  0  0  0  0  0  0  0
    7.9128    1.7171    0.0000 C   0  0  0  0  0  0  0  0  0  0  0  0
    7.8195    3.4967    0.0000 C   0  0  0  0  0  0  0  0  0  0  0  0
    4.5981    1.3807    0.0000 C   0  0  0  0  0  0  0  0  0  0  0  0
    8.8141    3.6012    0.0000 C   0  0  0  0  0  0  0  0  0  0  0  0
    3.7320    0.8807    0.0000 C   0  0  2  0  0  0  0  0  0  0  0  0
    2.8660    1.3807    0.0000 C   0  0  0  0  0  0  0  0  0  0  0  0
    9.2208    4.5148    0.0000 C   0  0  0  0  0  0  0  0  0  0  0  0
    9.4018    2.7922    0.0000 C   0  0  0  0  0  0  0  0  0  0  0  0
    2.8660    2.3807    0.0000 C   0  0  0  0  0  0  0  0  0  0  0  0
   10.2153    4.6193    0.0000 C   0  0  0  0  0  0  0  0  0  0  0  0
   10.3964    2.8967    0.0000 C   0  0  0  0  0  0  0  0  0  0  0  0
    2.8660   -0.6193    0.0000 C   0  0  0  0  0  0  0  0  0  0  0  0
   10.8031    3.8103    0.0000 C   0  0  0  0  0  0  0  0  0  0  0  0
    2.0570    2.9685    0.0000 C   0  0  0  0  0  0  0  0  0  0  0  0
    2.8660   -1.6193    0.0000 C   0  0  0  0  0  0  0  0  0  0  0  0
    2.3660    3.9196    0.0000 C   0  0  0  0  0  0  0  0  0  0  0  0
    3.3660    3.9196    0.0000 C   0  0  0  0  0  0  0  0  0  0  0  0
    2.0000   -2.1193    0.0000 C   0  0  0  0  0  0  0  0  0  0  0  0
    3.7320   -2.1193    0.0000 C   0  0  0  0  0  0  0  0  0  0  0  0
    2.0000   -3.1193    0.0000 C   0  0  0  0  0  0  0  0  0  0  0  0
    3.7320   -3.1193    0.0000 C   0  0  0  0  0  0  0  0  0  0  0  0
    2.8660   -3.6193    0.0000 C   0  0  0  0  0  0  0  0  0  0  0  0
    5.8102    1.7184    0.0000 H   0  0  0  0  0  0  0  0  0  0  0  0
    6.9337    0.4370    0.0000 H   0  0  0  0  0  0  0  0  0  0  0  0
    7.7453    0.6095    0.0000 H   0  0  0  0  0  0  0  0  0  0  0  0
    6.3698    2.9918    0.0000 H   0  0  0  0  0  0  0  0  0  0  0  0
    5.8147    2.3752    0.0000 H   0  0  0  0  0  0  0  0  0  0  0  0
    8.3277    1.2564    0.0000 H   0  0  0  0  0  0  0  0  0  0  0  0
    8.4144    2.0815    0.0000 H   0  0  0  0  0  0  0  0  0  0  0  0
    7.8628    4.1152    0.0000 H   0  0  0  0  0  0  0  0  0  0  0  0
    7.2180    3.6467    0.0000 H   0  0  0  0  0  0  0  0  0  0  0  0
    5.4641    0.2607    0.0000 H   0  0  0  0  0  0  0  0  0  0  0  0
    4.2690    0.5707    0.0000 H   0  0  0  0  0  0  0  0  0  0  0  0
    2.2554    1.4884    0.0000 H   0  0  0  0  0  0  0  0  0  0  0  0
    2.6540    0.7981    0.0000 H   0  0  0  0  0  0  0  0  0  0  0  0
    8.8564    5.0164    0.0000 H   0  0  0  0  0  0  0  0  0  0  0  0
    9.1497    2.2258    0.0000 H   0  0  0  0  0  0  0  0  0  0  0  0
    4.2690   -0.4293    0.0000 H   0  0  0  0  0  0  0  0  0  0  0  0
   10.4675    5.1857    0.0000 H   0  0  0  0  0  0  0  0  0  0  0  0
   10.7608    2.3951    0.0000 H   0  0  0  0  0  0  0  0  0  0  0  0
    1.4674    2.7769    0.0000 H   0  0  0  0  0  0  0  0  0  0  0  0
    2.0016    4.4211    0.0000 H   0  0  0  0  0  0  0  0  0  0  0  0
    3.7304    4.4211    0.0000 H   0  0  0  0  0  0  0  0  0  0  0  0
    1.4631   -1.8093    0.0000 H   0  0  0  0  0  0  0  0  0  0  0  0
    4.2690   -1.8093    0.0000 H   0  0  0  0  0  0  0  0  0  0  0  0
    1.4631   -3.4293    0.0000 H   0  0  0  0  0  0  0  0  0  0  0  0
    4.2690   -3.4293    0.0000 H   0  0  0  0  0  0  0  0  0  0  0  0
  1 24  1  0  0  0  0
  2 33  1  0  0  0  0
  3 20  1  0  0  0  0
  3 28  1  0  0  0  0
  4 14  2  0  0  0  0
  5 23  2  0  0  0  0
  6 11  1  0  0  0  0
  6 12  1  0  0  0  0
  6 13  1  0  0  0  0
  9  7  1  1  0  0  0
  7 14  1  0  0  0  0
  7 43  1  0  0  0  0
 16  8  1  1  0  0  0
  8 23  1  0  0  0  0
  8 49  1  0  0  0  0
  9 10  1  0  0  0  0
  9 11  1  0  0  0  0
  9 34  1  0  0  0  0
 10 12  1  0  0  0  0
 10 35  1  0  0  0  0
 10 36  1  0  0  0  0
 11 37  1  0  0  0  0
 11 38  1  0  0  0  0
 12 39  1  0  0  0  0
 12 40  1  0  0  0  0
 13 15  1  0  0  0  0
 13 41  1  0  0  0  0
 13 42  1  0  0  0  0
 14 16  1  0  0  0  0
 15 18  2  0  0  0  0
 15 19  1  0  0  0  0
 16 17  1  0  0  0  0
 16 44  1  0  0  0  0
 17 20  1  0  0  0  0
 17 45  1  0  0  0  0
 17 46  1  0  0  0  0
 18 21  1  0  0  0  0
 18 47  1  0  0  0  0
 19 22  2  0  0  0  0
 19 48  1  0  0  0  0
 20 25  2  0  0  0  0
 21 24  2  0  0  0  0
 21 50  1  0  0  0  0
 22 24  1  0  0  0  0
 22 51  1  0  0  0  0
 23 26  1  0  0  0  0
 25 27  1  0  0  0  0
 25 52  1  0  0  0  0
 26 29  2  0  0  0  0
 26 30  1  0  0  0  0
 27 28  2  0  0  0  0
 27 53  1  0  0  0  0
 28 54  1  0  0  0  0
 29 31  1  0  0  0  0
 29 55  1  0  0  0  0
 30 32  2  0  0  0  0
 30 56  1  0  0  0  0
 31 33  2  0  0  0  0
 31 57  1  0  0  0  0
 32 33  1  0  0  0  0
 32 58  1  0  0  0  0
M  END
> <PUBCHEM_COMPOUND_CID>
508736
> <PUBCHEM_COMPOUND_CANONICALIZED>
1
> <PUBCHEM_CACTVS_COMPLEXITY>
654
> <PUBCHEM_CACTVS_HBOND_ACCEPTOR>
4
> <PUBCHEM_CACTVS_HBOND_DONOR>
2
> <PUBCHEM_CACTVS_ROTATABLE_BOND>
8
> <PUBCHEM_CACTVS_SUBSKEYS>
AAADceB7MABGAAAAAAAAAAAAAAAAAWJAAAAwYAAAAAAAAAAB0AAAHgYQAAAADCrF2CSwAYPAAAiMAiFSEACDAIAkDRBIiJmIBsgIYDKh1zGUIQhglgCoiYcYiACOBAAAAAAAAAAIAAAAAAAAAAAAAAAAAA==
> <PUBCHEM_IUPAC_OPENEYE_NAME>
4-chloro-N-[(1S)-2-[[(3R)-1-[(4-chlorophenyl)methyl]pyrrolidin-3-yl]amino]-2-oxo-1-(2-thienylmethyl)ethyl]benzamide
> <PUBCHEM_IUPAC_CAS_NAME>
4-chloro-N-[(2S)-1-[[(3R)-1-[(4-chlorophenyl)methyl]-3-pyrrolidinyl]amino]-1-oxo-3-thiophen-2-ylpropan-2-yl]benzamide
> <PUBCHEM_IUPAC_NAME_MARKUP>
4-chloro-<I>N</I>-[(2<I>S</I>)-1-[[(3<I>R</I>)-1-[(4-chlorophenyl)methyl]pyrrolidin-3-yl]amino]-1-oxo-3-thiophen-2-ylpropan-2-yl]benzamide
> <PUBCHEM_IUPAC_NAME>
4-chloro-N-[(2S)-1-[[(3R)-1-[(4-chlorophenyl)methyl]pyrrolidin-3-yl]amino]-1-oxo-3-thiophen-2-ylpropan-2-yl]benzamide
> <PUBCHEM_IUPAC_SYSTEMATIC_NAME>
4-chloranyl-N-[(2S)-1-[[(3R)-1-[(4-chlorophenyl)methyl]pyrrolidin-3-yl]amino]-1-oxidanylidene-3-thiophen-2-yl-propan-2-yl]benzamide
> <PUBCHEM_IUPAC_TRADITIONAL_NAME>
4-chloro-N-[(1S)-2-[[(3R)-1-(4-chlorobenzyl)pyrrolidin-3-yl]amino]-2-keto-1-(2-thenyl)ethyl]benzamide
> <PUBCHEM_IUPAC_INCHI>
InChI=1S/C25H25Cl2N3O2S/c26-19-7-3-17(4-8-19)15-30-12-11-21(16-30)28-25(32)23(14-22-2-1-13-33-22)29-24(31)18-5-9-20(27)10-6-18/h1-10,13,21,23H,11-12,14-16H2,(H,28,32)(H,29,31)/t21-,23+/m1/s1
> <PUBCHEM_IUPAC_INCHIKEY>
ZAVVJKHLOHKGSW-GGAORHGYSA-N
> <PUBCHEM_XLOGP3_AA>
5.2
> <PUBCHEM_EXACT_MASS>
501.1044536
> <PUBCHEM_MOLECULAR_FORMULA>
C25H25Cl2N3O2S
> <PUBCHEM_MOLECULAR_WEIGHT>
502.5
> <PUBCHEM_OPENEYE_CAN_SMILES>
C1CN(CC1NC(=O)C(CC2=CC=CS2)NC(=O)C3=CC=C(C=C3)Cl)CC4=CC=C(C=C4)Cl
> <PUBCHEM_OPENEYE_ISO_SMILES>
C1CN(C[C@@H]1NC(=O)[C@H](CC2=CC=CS2)NC(=O)C3=CC=C(C=C3)Cl)CC4=CC=C(C=C4)Cl
> <PUBCHEM_CACTVS_TPSA>
89.7
> <PUBCHEM_MONOISOTOPIC_WEIGHT>
501.1044536
> <PUBCHEM_TOTAL_CHARGE>
0
> <PUBCHEM_HEAVY_ATOM_COUNT>
33
> <PUBCHEM_ATOM_DEF_STEREO_COUNT>
2
> <PUBCHEM_ATOM_UDEF_STEREO_COUNT>
0
> <PUBCHEM_BOND_DEF_STEREO_COUNT>
0
> <PUBCHEM_BOND_UDEF_STEREO_COUNT>
0
> <PUBCHEM_ISOTOPIC_ATOM_COUNT>
0
> <PUBCHEM_COMPONENT_COUNT>
1
> <PUBCHEM_CACTVS_TAUTO_COUNT>
-1
> <PUBCHEM_COORDINATE_TYPE>
1
5
255
> <PUBCHEM_BONDANNOTATIONS>
15  18  8
15  19  8
18  21  8
19  22  8
20  25  8
21  24  8
22  24  8
25  27  8
26  29  8
26  30  8
27  28  8
29  31  8
3  20  8
3  28  8
30  32  8
31  33  8
32  33  8
9  7  5
16  8  5
$$$$
