508716
  -OEChem-10302200282D
 91 93  0     1  0  0  0  0  0999 V2000
   13.2207   -2.2073    0.0000 S   0  0  0  0  0  0  0  0  0  0  0  0
   10.2852   -2.8259    0.0000 O   0  0  0  0  0  0  0  0  0  0  0  0
   13.9650   -1.5394    0.0000 O   0  0  0  0  0  0  0  0  0  0  0  0
   12.4764   -2.8751    0.0000 O   0  0  0  0  0  0  0  0  0  0  0  0
    6.3246   -1.0055    0.0000 O   0  0  0  0  0  0  0  0  0  0  0  0
    5.9209    3.3347    0.0000 O   0  0  0  0  0  0  0  0  0  0  0  0
    4.6318    2.1780    0.0000 O   0  0  0  0  0  0  0  0  0  0  0  0
   12.5528   -1.4630    0.0000 N   0  0  3  0  0  0  0  0  0  0  0  0
    7.6138    0.1513    0.0000 N   0  0  0  0  0  0  0  0  0  0  0  0
    6.2781    1.6399    0.0000 N   0  0  0  0  0  0  0  0  0  0  0  0
    4.6783   -2.0769    0.0000 N   0  0  0  0  0  0  0  0  0  0  0  0
   15.8921   -5.1845    0.0000 N   0  0  0  0  0  0  0  0  0  0  0  0
   11.5743   -1.6692    0.0000 C   0  0  1  0  0  0  0  0  0  0  0  0
   10.9065   -0.9249    0.0000 C   0  0  0  0  0  0  0  0  0  0  0  0
   12.8635   -0.5125    0.0000 C   0  0  0  0  0  0  0  0  0  0  0  0
    9.9280   -1.1311    0.0000 C   0  0  0  0  0  0  0  0  0  0  0  0
   12.1957    0.2318    0.0000 C   0  0  0  0  0  0  0  0  0  0  0  0
   11.2637   -2.6197    0.0000 C   0  0  0  0  0  0  0  0  0  0  0  0
    9.2601   -0.3868    0.0000 C   0  0  0  0  0  0  0  0  0  0  0  0
   13.8885   -2.9516    0.0000 C   0  0  0  0  0  0  0  0  0  0  0  0
    8.2816   -0.5930    0.0000 C   0  0  0  0  0  0  0  0  0  0  0  0
   12.5063    1.1824    0.0000 C   0  0  0  0  0  0  0  0  0  0  0  0
   11.2171    0.0256    0.0000 C   0  0  0  0  0  0  0  0  0  0  0  0
    5.9674    0.6893    0.0000 C   0  0  1  0  0  0  0  0  0  0  0  0
   13.5779   -3.9021    0.0000 C   0  0  0  0  0  0  0  0  0  0  0  0
   14.8670   -2.7454    0.0000 C   0  0  0  0  0  0  0  0  0  0  0  0
    4.9889    0.4831    0.0000 C   0  0  0  0  0  0  0  0  0  0  0  0
    6.6353   -0.0550    0.0000 C   0  0  0  0  0  0  0  0  0  0  0  0
    4.6783   -0.4674    0.0000 C   0  0  0  0  0  0  0  0  0  0  0  0
   14.2457   -4.6464    0.0000 C   0  0  0  0  0  0  0  0  0  0  0  0
   15.5349   -3.4897    0.0000 C   0  0  0  0  0  0  0  0  0  0  0  0
    3.7320   -0.7721    0.0000 C   0  0  0  0  0  0  0  0  0  0  0  0
   15.2242   -4.4402    0.0000 C   0  0  0  0  0  0  0  0  0  0  0  0
    3.7320   -1.7721    0.0000 C   0  0  0  0  0  0  0  0  0  0  0  0
    5.2619   -1.2721    0.0000 C   0  0  0  0  0  0  0  0  0  0  0  0
    2.8660   -0.2721    0.0000 C   0  0  0  0  0  0  0  0  0  0  0  0
    5.6103    2.3842    0.0000 C   0  0  0  0  0  0  0  0  0  0  0  0
    2.8660   -2.2721    0.0000 C   0  0  0  0  0  0  0  0  0  0  0  0
    2.0000   -0.7721    0.0000 C   0  0  0  0  0  0  0  0  0  0  0  0
    2.0000   -1.7721    0.0000 C   0  0  0  0  0  0  0  0  0  0  0  0
    5.5637    5.0295    0.0000 C   0  0  0  0  0  0  0  0  0  0  0  0
    5.2531    4.0790    0.0000 C   0  0  0  0  0  0  0  0  0  0  0  0
    4.8959    5.7738    0.0000 C   0  0  0  0  0  0  0  0  0  0  0  0
    6.5422    5.2357    0.0000 C   0  0  0  0  0  0  0  0  0  0  0  0
   11.7669   -1.0799    0.0000 H   0  0  0  0  0  0  0  0  0  0  0  0
   11.4328   -0.5973    0.0000 H   0  0  0  0  0  0  0  0  0  0  0  0
   10.6752   -0.3496    0.0000 H   0  0  0  0  0  0  0  0  0  0  0  0
   13.4104   -0.8045    0.0000 H   0  0  0  0  0  0  0  0  0  0  0  0
   13.2461   -0.0246    0.0000 H   0  0  0  0  0  0  0  0  0  0  0  0
    9.4016   -1.4588    0.0000 H   0  0  0  0  0  0  0  0  0  0  0  0
   10.1592   -1.7064    0.0000 H   0  0  0  0  0  0  0  0  0  0  0  0
   12.0030   -0.3575    0.0000 H   0  0  0  0  0  0  0  0  0  0  0  0
   11.2842   -3.2394    0.0000 H   0  0  0  0  0  0  0  0  0  0  0  0
   11.8775   -2.7071    0.0000 H   0  0  0  0  0  0  0  0  0  0  0  0
    9.7865   -0.0592    0.0000 H   0  0  0  0  0  0  0  0  0  0  0  0
    9.0289    0.1884    0.0000 H   0  0  0  0  0  0  0  0  0  0  0  0
    7.7553   -0.9207    0.0000 H   0  0  0  0  0  0  0  0  0  0  0  0
    8.5129   -1.1683    0.0000 H   0  0  0  0  0  0  0  0  0  0  0  0
   13.0956    0.9897    0.0000 H   0  0  0  0  0  0  0  0  0  0  0  0
   12.6989    1.7717    0.0000 H   0  0  0  0  0  0  0  0  0  0  0  0
   11.9170    1.3750    0.0000 H   0  0  0  0  0  0  0  0  0  0  0  0
   11.0893    0.6323    0.0000 H   0  0  0  0  0  0  0  0  0  0  0  0
   10.6105   -0.1022    0.0000 H   0  0  0  0  0  0  0  0  0  0  0  0
   11.3450   -0.5811    0.0000 H   0  0  0  0  0  0  0  0  0  0  0  0
    7.8064    0.7406    0.0000 H   0  0  0  0  0  0  0  0  0  0  0  0
   10.0926   -3.4153    0.0000 H   0  0  0  0  0  0  0  0  0  0  0  0
    5.5534    1.1508    0.0000 H   0  0  0  0  0  0  0  0  0  0  0  0
   12.9712   -4.0300    0.0000 H   0  0  0  0  0  0  0  0  0  0  0  0
   15.0596   -2.1560    0.0000 H   0  0  0  0  0  0  0  0  0  0  0  0
    4.9684    1.1028    0.0000 H   0  0  0  0  0  0  0  0  0  0  0  0
    4.3751    0.5705    0.0000 H   0  0  0  0  0  0  0  0  0  0  0  0
   14.0531   -5.2357    0.0000 H   0  0  0  0  0  0  0  0  0  0  0  0
   16.1415   -3.3618    0.0000 H   0  0  0  0  0  0  0  0  0  0  0  0
    6.8848    1.7677    0.0000 H   0  0  0  0  0  0  0  0  0  0  0  0
    5.8819   -1.2721    0.0000 H   0  0  0  0  0  0  0  0  0  0  0  0
    4.8709   -2.6662    0.0000 H   0  0  0  0  0  0  0  0  0  0  0  0
    2.8660    0.3479    0.0000 H   0  0  0  0  0  0  0  0  0  0  0  0
    2.8660   -2.8921    0.0000 H   0  0  0  0  0  0  0  0  0  0  0  0
   16.4987   -5.0566    0.0000 H   0  0  0  0  0  0  0  0  0  0  0  0
   15.6994   -5.7738    0.0000 H   0  0  0  0  0  0  0  0  0  0  0  0
    1.4631   -0.4621    0.0000 H   0  0  0  0  0  0  0  0  0  0  0  0
    1.4631   -2.0821    0.0000 H   0  0  0  0  0  0  0  0  0  0  0  0
    4.9571    4.9017    0.0000 H   0  0  0  0  0  0  0  0  0  0  0  0
    4.7062    4.3710    0.0000 H   0  0  0  0  0  0  0  0  0  0  0  0
    4.8705    3.5911    0.0000 H   0  0  0  0  0  0  0  0  0  0  0  0
    5.3574    6.1879    0.0000 H   0  0  0  0  0  0  0  0  0  0  0  0
    4.4818    6.2353    0.0000 H   0  0  0  0  0  0  0  0  0  0  0  0
    4.4344    5.3598    0.0000 H   0  0  0  0  0  0  0  0  0  0  0  0
    6.6701    4.6291    0.0000 H   0  0  0  0  0  0  0  0  0  0  0  0
    7.1489    5.3636    0.0000 H   0  0  0  0  0  0  0  0  0  0  0  0
    6.4144    5.8424    0.0000 H   0  0  0  0  0  0  0  0  0  0  0  0
  1  3  2  0  0  0  0
  1  4  2  0  0  0  0
  1  8  1  0  0  0  0
  1 20  1  0  0  0  0
  2 18  1  0  0  0  0
  2 66  1  0  0  0  0
  5 28  2  0  0  0  0
  6 37  1  0  0  0  0
  6 42  1  0  0  0  0
  7 37  2  0  0  0  0
 13  8  1  6  0  0  0
  8 15  1  0  0  0  0
  9 21  1  0  0  0  0
  9 28  1  0  0  0  0
  9 65  1  0  0  0  0
 24 10  1  6  0  0  0
 10 37  1  0  0  0  0
 10 74  1  0  0  0  0
 11 34  1  0  0  0  0
 11 35  1  0  0  0  0
 11 76  1  0  0  0  0
 12 33  1  0  0  0  0
 12 79  1  0  0  0  0
 12 80  1  0  0  0  0
 13 14  1  0  0  0  0
 13 18  1  0  0  0  0
 13 45  1  0  0  0  0
 14 16  1  0  0  0  0
 14 46  1  0  0  0  0
 14 47  1  0  0  0  0
 15 17  1  0  0  0  0
 15 48  1  0  0  0  0
 15 49  1  0  0  0  0
 16 19  1  0  0  0  0
 16 50  1  0  0  0  0
 16 51  1  0  0  0  0
 17 22  1  0  0  0  0
 17 23  1  0  0  0  0
 17 52  1  0  0  0  0
 18 53  1  0  0  0  0
 18 54  1  0  0  0  0
 19 21  1  0  0  0  0
 19 55  1  0  0  0  0
 19 56  1  0  0  0  0
 20 25  2  0  0  0  0
 20 26  1  0  0  0  0
 21 57  1  0  0  0  0
 21 58  1  0  0  0  0
 22 59  1  0  0  0  0
 22 60  1  0  0  0  0
 22 61  1  0  0  0  0
 23 62  1  0  0  0  0
 23 63  1  0  0  0  0
 23 64  1  0  0  0  0
 24 27  1  0  0  0  0
 24 28  1  0  0  0  0
 24 67  1  0  0  0  0
 25 30  1  0  0  0  0
 25 68  1  0  0  0  0
 26 31  2  0  0  0  0
 26 69  1  0  0  0  0
 27 29  1  0  0  0  0
 27 70  1  0  0  0  0
 27 71  1  0  0  0  0
 29 32  1  0  0  0  0
 29 35  2  0  0  0  0
 30 33  2  0  0  0  0
 30 72  1  0  0  0  0
 31 33  1  0  0  0  0
 31 73  1  0  0  0  0
 32 34  1  0  0  0  0
 32 36  2  0  0  0  0
 34 38  2  0  0  0  0
 35 75  1  0  0  0  0
 36 39  1  0  0  0  0
 36 77  1  0  0  0  0
 38 40  1  0  0  0  0
 38 78  1  0  0  0  0
 39 40  2  0  0  0  0
 39 81  1  0  0  0  0
 40 82  1  0  0  0  0
 41 42  1  0  0  0  0
 41 43  1  0  0  0  0
 41 44  1  0  0  0  0
 41 83  1  0  0  0  0
 42 84  1  0  0  0  0
 42 85  1  0  0  0  0
 43 86  1  0  0  0  0
 43 87  1  0  0  0  0
 43 88  1  0  0  0  0
 44 89  1  0  0  0  0
 44 90  1  0  0  0  0
 44 91  1  0  0  0  0
M  END
> <PUBCHEM_COMPOUND_CID>
508716
> <PUBCHEM_COMPOUND_CANONICALIZED>
1
> <PUBCHEM_CACTVS_COMPLEXITY>
982
> <PUBCHEM_CACTVS_HBOND_ACCEPTOR>
8
> <PUBCHEM_CACTVS_HBOND_DONOR>
5
> <PUBCHEM_CACTVS_ROTATABLE_BOND>
18
> <PUBCHEM_CACTVS_SUBSKEYS>
AAADcfB/uABAAAAAAAAAAAAAAAAAAWAAAAAwYAAAAAAAAFgB9AAAHgQQSAAADSjh3gY+yfLJlgKoAzV3XHDCgDAxAiAI2bm4ZJkKcPLAkbGcYAhklgDYyAeYycCOgAQAAAACAAAACAAAAAQAAAAAAAAAAA==
> <PUBCHEM_IUPAC_OPENEYE_NAME>
isobutyl N-[(1S)-2-[[(5S)-5-[(4-aminophenyl)sulfonyl-isobutyl-amino]-6-hydroxy-hexyl]amino]-1-(1H-indol-3-ylmethyl)-2-oxo-ethyl]carbamate
> <PUBCHEM_IUPAC_CAS_NAME>
N-[(2S)-1-[[(5S)-5-[(4-aminophenyl)sulfonyl-(2-methylpropyl)amino]-6-hydroxyhexyl]amino]-3-(1H-indol-3-yl)-1-oxopropan-2-yl]carbamic acid 2-methylpropyl ester
> <PUBCHEM_IUPAC_NAME_MARKUP>
2-methylpropyl <I>N</I>-[(2<I>S</I>)-1-[[(5<I>S</I>)-5-[(4-aminophenyl)sulfonyl-(2-methylpropyl)amino]-6-hydroxyhexyl]amino]-3-(1<I>H</I>-indol-3-yl)-1-oxopropan-2-yl]carbamate
> <PUBCHEM_IUPAC_NAME>
2-methylpropyl N-[(2S)-1-[[(5S)-5-[(4-aminophenyl)sulfonyl-(2-methylpropyl)amino]-6-hydroxyhexyl]amino]-3-(1H-indol-3-yl)-1-oxopropan-2-yl]carbamate
> <PUBCHEM_IUPAC_SYSTEMATIC_NAME>
2-methylpropyl N-[(2S)-1-[[(5S)-5-[(4-aminophenyl)sulfonyl-(2-methylpropyl)amino]-6-oxidanyl-hexyl]amino]-3-(1H-indol-3-yl)-1-oxidanylidene-propan-2-yl]carbamate
> <PUBCHEM_IUPAC_TRADITIONAL_NAME>
N-[(1S)-2-[[(5S)-6-hydroxy-5-[isobutyl(sulfanilyl)amino]hexyl]amino]-1-(1H-indol-3-ylmethyl)-2-keto-ethyl]carbamic acid isobutyl ester
> <PUBCHEM_IUPAC_INCHI>
InChI=1S/C32H47N5O6S/c1-22(2)19-37(44(41,42)27-14-12-25(33)13-15-27)26(20-38)9-7-8-16-34-31(39)30(36-32(40)43-21-23(3)4)17-24-18-35-29-11-6-5-10-28(24)29/h5-6,10-15,18,22-23,26,30,35,38H,7-9,16-17,19-21,33H2,1-4H3,(H,34,39)(H,36,40)/t26-,30-/m0/s1
> <PUBCHEM_IUPAC_INCHIKEY>
HJNOOWGIBNWSGF-YZNIXAGQSA-N
> <PUBCHEM_XLOGP3_AA>
4.7
> <PUBCHEM_EXACT_MASS>
629.32470541
> <PUBCHEM_MOLECULAR_FORMULA>
C32H47N5O6S
> <PUBCHEM_MOLECULAR_WEIGHT>
629.8
> <PUBCHEM_OPENEYE_CAN_SMILES>
CC(C)CN(C(CCCCNC(=O)C(CC1=CNC2=CC=CC=C21)NC(=O)OCC(C)C)CO)S(=O)(=O)C3=CC=C(C=C3)N
> <PUBCHEM_OPENEYE_ISO_SMILES>
CC(C)CN([C@@H](CCCCNC(=O)[C@H](CC1=CNC2=CC=CC=C21)NC(=O)OCC(C)C)CO)S(=O)(=O)C3=CC=C(C=C3)N
> <PUBCHEM_CACTVS_TPSA>
175
> <PUBCHEM_MONOISOTOPIC_WEIGHT>
629.32470541
> <PUBCHEM_TOTAL_CHARGE>
0
> <PUBCHEM_HEAVY_ATOM_COUNT>
44
> <PUBCHEM_ATOM_DEF_STEREO_COUNT>
2
> <PUBCHEM_ATOM_UDEF_STEREO_COUNT>
0
> <PUBCHEM_BOND_DEF_STEREO_COUNT>
0
> <PUBCHEM_BOND_UDEF_STEREO_COUNT>
0
> <PUBCHEM_ISOTOPIC_ATOM_COUNT>
0
> <PUBCHEM_COMPONENT_COUNT>
1
> <PUBCHEM_CACTVS_TAUTO_COUNT>
-1
> <PUBCHEM_COORDINATE_TYPE>
1
5
255
> <PUBCHEM_BONDANNOTATIONS>
24  10  6
11  34  8
11  35  8
20  25  8
20  26  8
25  30  8
26  31  8
29  32  8
29  35  8
30  33  8
31  33  8
32  34  8
32  36  8
34  38  8
36  39  8
38  40  8
39  40  8
13  8  6
$$$$
