508768
  -OEChem-10302200282D
 57 59  0     1  0  0  0  0  0999 V2000
    2.0000   -6.2500    0.0000 Cl  0  0  0  0  0  0  0  0  0  0  0  0
    5.4641    1.7500    0.0000 O   0  0  0  0  0  0  0  0  0  0  0  0
    8.9282    2.7500    0.0000 O   0  0  0  0  0  0  0  0  0  0  0  0
    5.4641   -3.2500    0.0000 N   0  0  0  0  0  0  0  0  0  0  0  0
    6.3301    0.2500    0.0000 N   0  0  0  0  0  0  0  0  0  0  0  0
    7.1962    2.7500    0.0000 N   0  0  0  0  0  0  0  0  0  0  0  0
    5.4641   -1.2500    0.0000 C   0  0  0  0  0  0  0  0  0  0  0  0
    4.5981   -1.7500    0.0000 C   0  0  0  0  0  0  0  0  0  0  0  0
    6.3301   -1.7500    0.0000 C   0  0  0  0  0  0  0  0  0  0  0  0
    4.5981   -2.7500    0.0000 C   0  0  0  0  0  0  0  0  0  0  0  0
    6.3301   -2.7500    0.0000 C   0  0  0  0  0  0  0  0  0  0  0  0
    5.4641   -0.2500    0.0000 C   0  0  0  0  0  0  0  0  0  0  0  0
    5.4641   -4.2500    0.0000 C   0  0  0  0  0  0  0  0  0  0  0  0
    4.5981   -4.7500    0.0000 C   0  0  0  0  0  0  0  0  0  0  0  0
    6.3301    1.2500    0.0000 C   0  0  0  0  0  0  0  0  0  0  0  0
    7.1962    1.7500    0.0000 C   0  0  3  0  0  0  0  0  0  0  0  0
    3.7320   -4.2500    0.0000 C   0  0  0  0  0  0  0  0  0  0  0  0
    4.5981   -5.7500    0.0000 C   0  0  0  0  0  0  0  0  0  0  0  0
    8.0622    1.2500    0.0000 C   0  0  0  0  0  0  0  0  0  0  0  0
    2.8660   -4.7500    0.0000 C   0  0  0  0  0  0  0  0  0  0  0  0
    3.7320   -6.2500    0.0000 C   0  0  0  0  0  0  0  0  0  0  0  0
    2.8660   -5.7500    0.0000 C   0  0  0  0  0  0  0  0  0  0  0  0
    8.0622    3.2500    0.0000 C   0  0  0  0  0  0  0  0  0  0  0  0
    8.0622    4.2500    0.0000 C   0  0  0  0  0  0  0  0  0  0  0  0
    7.1962    4.7500    0.0000 C   0  0  0  0  0  0  0  0  0  0  0  0
    8.9282    4.7500    0.0000 C   0  0  0  0  0  0  0  0  0  0  0  0
    7.1962    5.7500    0.0000 C   0  0  0  0  0  0  0  0  0  0  0  0
    8.9282    5.7500    0.0000 C   0  0  0  0  0  0  0  0  0  0  0  0
    8.0622    6.2500    0.0000 C   0  0  0  0  0  0  0  0  0  0  0  0
    6.0010   -0.9400    0.0000 H   0  0  0  0  0  0  0  0  0  0  0  0
    4.3860   -1.1674    0.0000 H   0  0  0  0  0  0  0  0  0  0  0  0
    3.9875   -1.8577    0.0000 H   0  0  0  0  0  0  0  0  0  0  0  0
    6.9407   -1.8577    0.0000 H   0  0  0  0  0  0  0  0  0  0  0  0
    6.5422   -1.1674    0.0000 H   0  0  0  0  0  0  0  0  0  0  0  0
    3.9875   -2.6423    0.0000 H   0  0  0  0  0  0  0  0  0  0  0  0
    4.3860   -3.3326    0.0000 H   0  0  0  0  0  0  0  0  0  0  0  0
    6.5422   -3.3326    0.0000 H   0  0  0  0  0  0  0  0  0  0  0  0
    6.9407   -2.6423    0.0000 H   0  0  0  0  0  0  0  0  0  0  0  0
    5.2520    0.3326    0.0000 H   0  0  0  0  0  0  0  0  0  0  0  0
    4.8535   -0.3577    0.0000 H   0  0  0  0  0  0  0  0  0  0  0  0
    5.6762   -4.8326    0.0000 H   0  0  0  0  0  0  0  0  0  0  0  0
    6.0747   -4.1423    0.0000 H   0  0  0  0  0  0  0  0  0  0  0  0
    6.8671   -0.0600    0.0000 H   0  0  0  0  0  0  0  0  0  0  0  0
    6.6592    2.0600    0.0000 H   0  0  0  0  0  0  0  0  0  0  0  0
    3.7320   -3.6300    0.0000 H   0  0  0  0  0  0  0  0  0  0  0  0
    5.1350   -6.0600    0.0000 H   0  0  0  0  0  0  0  0  0  0  0  0
    7.7522    0.7131    0.0000 H   0  0  0  0  0  0  0  0  0  0  0  0
    8.5991    0.9400    0.0000 H   0  0  0  0  0  0  0  0  0  0  0  0
    8.3722    1.7869    0.0000 H   0  0  0  0  0  0  0  0  0  0  0  0
    2.3291   -4.4400    0.0000 H   0  0  0  0  0  0  0  0  0  0  0  0
    3.7320   -6.8700    0.0000 H   0  0  0  0  0  0  0  0  0  0  0  0
    6.6592    3.0600    0.0000 H   0  0  0  0  0  0  0  0  0  0  0  0
    6.6592    4.4400    0.0000 H   0  0  0  0  0  0  0  0  0  0  0  0
    9.4651    4.4400    0.0000 H   0  0  0  0  0  0  0  0  0  0  0  0
    6.6592    6.0600    0.0000 H   0  0  0  0  0  0  0  0  0  0  0  0
    9.4651    6.0600    0.0000 H   0  0  0  0  0  0  0  0  0  0  0  0
    8.0622    6.8700    0.0000 H   0  0  0  0  0  0  0  0  0  0  0  0
  1 22  1  0  0  0  0
  2 15  2  0  0  0  0
  3 23  2  0  0  0  0
  4 10  1  0  0  0  0
  4 11  1  0  0  0  0
  4 13  1  0  0  0  0
  5 12  1  0  0  0  0
  5 15  1  0  0  0  0
  5 43  1  0  0  0  0
  6 16  1  0  0  0  0
  6 23  1  0  0  0  0
  6 52  1  0  0  0  0
  7  8  1  0  0  0  0
  7  9  1  0  0  0  0
  7 12  1  0  0  0  0
  7 30  1  0  0  0  0
  8 10  1  0  0  0  0
  8 31  1  0  0  0  0
  8 32  1  0  0  0  0
  9 11  1  0  0  0  0
  9 33  1  0  0  0  0
  9 34  1  0  0  0  0
 10 35  1  0  0  0  0
 10 36  1  0  0  0  0
 11 37  1  0  0  0  0
 11 38  1  0  0  0  0
 12 39  1  0  0  0  0
 12 40  1  0  0  0  0
 13 14  1  0  0  0  0
 13 41  1  0  0  0  0
 13 42  1  0  0  0  0
 14 17  2  0  0  0  0
 14 18  1  0  0  0  0
 15 16  1  0  0  0  0
 16 19  1  0  0  0  0
 16 44  1  0  0  0  0
 17 20  1  0  0  0  0
 17 45  1  0  0  0  0
 18 21  2  0  0  0  0
 18 46  1  0  0  0  0
 19 47  1  0  0  0  0
 19 48  1  0  0  0  0
 19 49  1  0  0  0  0
 20 22  2  0  0  0  0
 20 50  1  0  0  0  0
 21 22  1  0  0  0  0
 21 51  1  0  0  0  0
 23 24  1  0  0  0  0
 24 25  2  0  0  0  0
 24 26  1  0  0  0  0
 25 27  1  0  0  0  0
 25 53  1  0  0  0  0
 26 28  2  0  0  0  0
 26 54  1  0  0  0  0
 27 29  2  0  0  0  0
 27 55  1  0  0  0  0
 28 29  1  0  0  0  0
 28 56  1  0  0  0  0
 29 57  1  0  0  0  0
M  END
> <PUBCHEM_COMPOUND_CID>
508768
> <PUBCHEM_COMPOUND_CANONICALIZED>
1
> <PUBCHEM_CACTVS_COMPLEXITY>
522
> <PUBCHEM_CACTVS_HBOND_ACCEPTOR>
3
> <PUBCHEM_CACTVS_HBOND_DONOR>
2
> <PUBCHEM_CACTVS_ROTATABLE_BOND>
7
> <PUBCHEM_CACTVS_SUBSKEYS>
AAADceB7MAAEAAAAAAAAAAAAAAAAAAAAAAA8YIAAAAAAAAABQAAAHgIQAAAADSrBmCQyAIPAAACIAiFSEACCAAAkBQAIiIGIBsgIYDKBlzGUIQhglgCIiYcYiACOBAAAAAAAAAAIAAAAAAAAAAAAAAAAAA==
> <PUBCHEM_IUPAC_OPENEYE_NAME>
N-[2-[[1-[(4-chlorophenyl)methyl]-4-piperidyl]methylamino]-1-methyl-2-oxo-ethyl]benzamide
> <PUBCHEM_IUPAC_CAS_NAME>
N-[1-[[1-[(4-chlorophenyl)methyl]-4-piperidinyl]methylamino]-1-oxopropan-2-yl]benzamide
> <PUBCHEM_IUPAC_NAME_MARKUP>
<I>N</I>-[1-[[1-[(4-chlorophenyl)methyl]piperidin-4-yl]methylamino]-1-oxopropan-2-yl]benzamide
> <PUBCHEM_IUPAC_NAME>
N-[1-[[1-[(4-chlorophenyl)methyl]piperidin-4-yl]methylamino]-1-oxopropan-2-yl]benzamide
> <PUBCHEM_IUPAC_SYSTEMATIC_NAME>
N-[1-[[1-[(4-chlorophenyl)methyl]piperidin-4-yl]methylamino]-1-oxidanylidene-propan-2-yl]benzamide
> <PUBCHEM_IUPAC_TRADITIONAL_NAME>
N-[2-[[1-(4-chlorobenzyl)-4-piperidyl]methylamino]-2-keto-1-methyl-ethyl]benzamide
> <PUBCHEM_IUPAC_INCHI>
InChI=1S/C23H28ClN3O2/c1-17(26-23(29)20-5-3-2-4-6-20)22(28)25-15-18-11-13-27(14-12-18)16-19-7-9-21(24)10-8-19/h2-10,17-18H,11-16H2,1H3,(H,25,28)(H,26,29)
> <PUBCHEM_IUPAC_INCHIKEY>
PSODOLGQULILFC-UHFFFAOYSA-N
> <PUBCHEM_XLOGP3_AA>
3.9
> <PUBCHEM_EXACT_MASS>
413.1870048
> <PUBCHEM_MOLECULAR_FORMULA>
C23H28ClN3O2
> <PUBCHEM_MOLECULAR_WEIGHT>
413.9
> <PUBCHEM_OPENEYE_CAN_SMILES>
CC(C(=O)NCC1CCN(CC1)CC2=CC=C(C=C2)Cl)NC(=O)C3=CC=CC=C3
> <PUBCHEM_OPENEYE_ISO_SMILES>
CC(C(=O)NCC1CCN(CC1)CC2=CC=C(C=C2)Cl)NC(=O)C3=CC=CC=C3
> <PUBCHEM_CACTVS_TPSA>
61.4
> <PUBCHEM_MONOISOTOPIC_WEIGHT>
413.1870048
> <PUBCHEM_TOTAL_CHARGE>
0
> <PUBCHEM_HEAVY_ATOM_COUNT>
29
> <PUBCHEM_ATOM_DEF_STEREO_COUNT>
0
> <PUBCHEM_ATOM_UDEF_STEREO_COUNT>
1
> <PUBCHEM_BOND_DEF_STEREO_COUNT>
0
> <PUBCHEM_BOND_UDEF_STEREO_COUNT>
0
> <PUBCHEM_ISOTOPIC_ATOM_COUNT>
0
> <PUBCHEM_COMPONENT_COUNT>
1
> <PUBCHEM_CACTVS_TAUTO_COUNT>
-1
> <PUBCHEM_COORDINATE_TYPE>
1
5
255
> <PUBCHEM_BONDANNOTATIONS>
14  17  8
14  18  8
16  19  3
17  20  8
18  21  8
20  22  8
21  22  8
24  25  8
24  26  8
25  27  8
26  28  8
27  29  8
28  29  8
$$$$
