508836
  -OEChem-10302200282D
 53 55  0     1  0  0  0  0  0999 V2000
   10.9337    3.3841    0.0000 O   0  0  0  0  0  0  0  0  0  0  0  0
    6.8671   -0.5000    0.0000 O   0  0  0  0  0  0  0  0  0  0  0  0
    3.4030   -1.5000    0.0000 O   0  0  0  0  0  0  0  0  0  0  0  0
    7.9497    2.7024    0.0000 N   0  0  3  0  0  0  0  0  0  0  0  0
    6.0010    1.0000    0.0000 N   0  0  0  0  0  0  0  0  0  0  0  0
   10.8291    4.3786    0.0000 N   0  0  0  0  0  0  0  0  0  0  0  0
    5.1350   -1.5000    0.0000 N   0  0  0  0  0  0  0  0  0  0  0  0
    2.5369   -3.0000    0.0000 N   0  0  0  0  0  0  0  0  0  0  0  0
    6.8671   -5.5000    0.0000 N   0  0  0  0  0  0  0  0  0  0  0  0
    6.8671    1.5000    0.0000 C   0  0  1  0  0  0  0  0  0  0  0  0
    6.9716    2.4945    0.0000 C   0  0  0  0  0  0  0  0  0  0  0  0
    7.7806    1.0932    0.0000 C   0  0  0  0  0  0  0  0  0  0  0  0
    8.4497    1.8364    0.0000 C   0  0  0  0  0  0  0  0  0  0  0  0
    8.3565    3.6159    0.0000 C   0  0  0  0  0  0  0  0  0  0  0  0
    9.3510    3.7205    0.0000 C   0  0  0  0  0  0  0  0  0  0  0  0
    6.0010   -0.0000    0.0000 C   0  0  0  0  0  0  0  0  0  0  0  0
   10.0201    2.9773    0.0000 C   0  0  0  0  0  0  0  0  0  0  0  0
    9.8510    4.5865    0.0000 C   0  0  0  0  0  0  0  0  0  0  0  0
    5.1350   -0.5000    0.0000 C   0  0  0  0  0  0  0  0  0  0  0  0
    9.8122    1.9992    0.0000 C   0  0  0  0  0  0  0  0  0  0  0  0
    9.4443    5.5000    0.0000 C   0  0  0  0  0  0  0  0  0  0  0  0
    4.2690   -2.0000    0.0000 C   0  0  0  0  0  0  0  0  0  0  0  0
    4.2690   -3.0000    0.0000 C   0  0  0  0  0  0  0  0  0  0  0  0
    3.4030   -3.5000    0.0000 C   0  0  0  0  0  0  0  0  0  0  0  0
    5.1350   -3.5000    0.0000 C   0  0  0  0  0  0  0  0  0  0  0  0
    3.4030   -4.5000    0.0000 C   0  0  0  0  0  0  0  0  0  0  0  0
    5.1350   -4.5000    0.0000 C   0  0  0  0  0  0  0  0  0  0  0  0
    4.2690   -5.0000    0.0000 C   0  0  0  0  0  0  0  0  0  0  0  0
    6.0010   -5.0000    0.0000 C   0  0  0  0  0  0  0  0  0  0  0  0
    6.3471    1.8376    0.0000 H   0  0  0  0  0  0  0  0  0  0  0  0
    6.9068    3.1111    0.0000 H   0  0  0  0  0  0  0  0  0  0  0  0
    6.3516    2.4945    0.0000 H   0  0  0  0  0  0  0  0  0  0  0  0
    7.4706    0.5563    0.0000 H   0  0  0  0  0  0  0  0  0  0  0  0
    8.2822    0.7288    0.0000 H   0  0  0  0  0  0  0  0  0  0  0  0
    8.8646    1.3756    0.0000 H   0  0  0  0  0  0  0  0  0  0  0  0
    8.9513    2.2008    0.0000 H   0  0  0  0  0  0  0  0  0  0  0  0
    8.3997    4.2344    0.0000 H   0  0  0  0  0  0  0  0  0  0  0  0
    7.7549    3.7659    0.0000 H   0  0  0  0  0  0  0  0  0  0  0  0
    5.4641    1.3100    0.0000 H   0  0  0  0  0  0  0  0  0  0  0  0
    4.9230    0.0826    0.0000 H   0  0  0  0  0  0  0  0  0  0  0  0
    4.5244   -0.6077    0.0000 H   0  0  0  0  0  0  0  0  0  0  0  0
    9.2058    2.1281    0.0000 H   0  0  0  0  0  0  0  0  0  0  0  0
    9.6833    1.3927    0.0000 H   0  0  0  0  0  0  0  0  0  0  0  0
   10.4187    1.8703    0.0000 H   0  0  0  0  0  0  0  0  0  0  0  0
   10.0107    5.7522    0.0000 H   0  0  0  0  0  0  0  0  0  0  0  0
    9.1921    6.0664    0.0000 H   0  0  0  0  0  0  0  0  0  0  0  0
    8.8779    5.2479    0.0000 H   0  0  0  0  0  0  0  0  0  0  0  0
    5.6720   -1.8100    0.0000 H   0  0  0  0  0  0  0  0  0  0  0  0
    5.6720   -3.1900    0.0000 H   0  0  0  0  0  0  0  0  0  0  0  0
    2.8660   -4.8100    0.0000 H   0  0  0  0  0  0  0  0  0  0  0  0
    4.2690   -5.6200    0.0000 H   0  0  0  0  0  0  0  0  0  0  0  0
    2.0000   -3.3100    0.0000 H   0  0  0  0  0  0  0  0  0  0  0  0
    2.5369   -2.3800    0.0000 H   0  0  0  0  0  0  0  0  0  0  0  0
  1  6  1  0  0  0  0
  1 17  1  0  0  0  0
  2 16  2  0  0  0  0
  3 22  2  0  0  0  0
  4 11  1  0  0  0  0
  4 13  1  0  0  0  0
  4 14  1  0  0  0  0
 10  5  1  1  0  0  0
  5 16  1  0  0  0  0
  5 39  1  0  0  0  0
  6 18  2  0  0  0  0
  7 19  1  0  0  0  0
  7 22  1  0  0  0  0
  7 48  1  0  0  0  0
  8 24  1  0  0  0  0
  8 52  1  0  0  0  0
  8 53  1  0  0  0  0
  9 29  3  0  0  0  0
 10 11  1  0  0  0  0
 10 12  1  0  0  0  0
 10 30  1  0  0  0  0
 11 31  1  0  0  0  0
 11 32  1  0  0  0  0
 12 13  1  0  0  0  0
 12 33  1  0  0  0  0
 12 34  1  0  0  0  0
 13 35  1  0  0  0  0
 13 36  1  0  0  0  0
 14 15  1  0  0  0  0
 14 37  1  0  0  0  0
 14 38  1  0  0  0  0
 15 17  2  0  0  0  0
 15 18  1  0  0  0  0
 16 19  1  0  0  0  0
 17 20  1  0  0  0  0
 18 21  1  0  0  0  0
 19 40  1  0  0  0  0
 19 41  1  0  0  0  0
 20 42  1  0  0  0  0
 20 43  1  0  0  0  0
 20 44  1  0  0  0  0
 21 45  1  0  0  0  0
 21 46  1  0  0  0  0
 21 47  1  0  0  0  0
 22 23  1  0  0  0  0
 23 24  2  0  0  0  0
 23 25  1  0  0  0  0
 24 26  1  0  0  0  0
 25 27  2  0  0  0  0
 25 49  1  0  0  0  0
 26 28  2  0  0  0  0
 26 50  1  0  0  0  0
 27 28  1  0  0  0  0
 27 29  1  0  0  0  0
 28 51  1  0  0  0  0
M  END
> <PUBCHEM_COMPOUND_CID>
508836
> <PUBCHEM_COMPOUND_CANONICALIZED>
1
> <PUBCHEM_CACTVS_COMPLEXITY>
649
> <PUBCHEM_CACTVS_HBOND_ACCEPTOR>
7
> <PUBCHEM_CACTVS_HBOND_DONOR>
3
> <PUBCHEM_CACTVS_ROTATABLE_BOND>
6
> <PUBCHEM_CACTVS_SUBSKEYS>
AAADceB7sAAAAAAAAAAAAAAAAAAAAWLAAAAwAAAAAAAAAAABwAAAHgAUAAAADCzBngQyxJPQAAC5B6VyUgCiAAAkIgAomKG8bNoI5jqA1bOUMYhmlhiIyc8YiECOCAACAAACAAAQAAQAAAQAAAAAAAAAAA==
> <PUBCHEM_IUPAC_OPENEYE_NAME>
2-amino-5-cyano-N-[2-[[(3R)-1-[(3,5-dimethylisoxazol-4-yl)methyl]pyrrolidin-3-yl]amino]-2-oxo-ethyl]benzamide
> <PUBCHEM_IUPAC_CAS_NAME>
2-amino-5-cyano-N-[2-[[(3R)-1-[(3,5-dimethyl-4-isoxazolyl)methyl]-3-pyrrolidinyl]amino]-2-oxoethyl]benzamide
> <PUBCHEM_IUPAC_NAME_MARKUP>
2-amino-5-cyano-<I>N</I>-[2-[[(3<I>R</I>)-1-[(3,5-dimethyl-1,2-oxazol-4-yl)methyl]pyrrolidin-3-yl]amino]-2-oxoethyl]benzamide
> <PUBCHEM_IUPAC_NAME>
2-amino-5-cyano-N-[2-[[(3R)-1-[(3,5-dimethyl-1,2-oxazol-4-yl)methyl]pyrrolidin-3-yl]amino]-2-oxoethyl]benzamide
> <PUBCHEM_IUPAC_SYSTEMATIC_NAME>
2-azanyl-5-cyano-N-[2-[[(3R)-1-[(3,5-dimethyl-1,2-oxazol-4-yl)methyl]pyrrolidin-3-yl]amino]-2-oxidanylidene-ethyl]benzamide
> <PUBCHEM_IUPAC_TRADITIONAL_NAME>
2-amino-5-cyano-N-[2-[[(3R)-1-[(3,5-dimethylisoxazol-4-yl)methyl]pyrrolidin-3-yl]amino]-2-keto-ethyl]benzamide
> <PUBCHEM_IUPAC_INCHI>
InChI=1S/C20H24N6O3/c1-12-17(13(2)29-25-12)11-26-6-5-15(10-26)24-19(27)9-23-20(28)16-7-14(8-21)3-4-18(16)22/h3-4,7,15H,5-6,9-11,22H2,1-2H3,(H,23,28)(H,24,27)/t15-/m1/s1
> <PUBCHEM_IUPAC_INCHIKEY>
CCEDIHQSSPIFJZ-OAHLLOKOSA-N
> <PUBCHEM_XLOGP3_AA>
1.1
> <PUBCHEM_EXACT_MASS>
396.19098865
> <PUBCHEM_MOLECULAR_FORMULA>
C20H24N6O3
> <PUBCHEM_MOLECULAR_WEIGHT>
396.4
> <PUBCHEM_OPENEYE_CAN_SMILES>
CC1=C(C(=NO1)C)CN2CCC(C2)NC(=O)CNC(=O)C3=C(C=CC(=C3)C#N)N
> <PUBCHEM_OPENEYE_ISO_SMILES>
CC1=C(C(=NO1)C)CN2CC[C@H](C2)NC(=O)CNC(=O)C3=C(C=CC(=C3)C#N)N
> <PUBCHEM_CACTVS_TPSA>
137
> <PUBCHEM_MONOISOTOPIC_WEIGHT>
396.19098865
> <PUBCHEM_TOTAL_CHARGE>
0
> <PUBCHEM_HEAVY_ATOM_COUNT>
29
> <PUBCHEM_ATOM_DEF_STEREO_COUNT>
1
> <PUBCHEM_ATOM_UDEF_STEREO_COUNT>
0
> <PUBCHEM_BOND_DEF_STEREO_COUNT>
0
> <PUBCHEM_BOND_UDEF_STEREO_COUNT>
0
> <PUBCHEM_ISOTOPIC_ATOM_COUNT>
0
> <PUBCHEM_COMPONENT_COUNT>
1
> <PUBCHEM_CACTVS_TAUTO_COUNT>
-1
> <PUBCHEM_COORDINATE_TYPE>
1
5
255
> <PUBCHEM_BONDANNOTATIONS>
1  17  8
1  6  8
15  17  8
15  18  8
23  24  8
23  25  8
24  26  8
25  27  8
26  28  8
27  28  8
10  5  5
6  18  8
$$$$
