508887
  -OEChem-10302200282D
 64 67  0     1  0  0  0  0  0999 V2000
    4.5411   -0.0945    0.0000 O   0  0  0  0  0  0  0  0  0  0  0  0
    3.6750    3.4055    0.0000 O   0  0  0  0  0  0  0  0  0  0  0  0
    3.3090   -2.6333    0.0000 N   0  0  3  0  0  0  0  0  0  0  0  0
    2.8090   -0.0945    0.0000 N   0  0  0  0  0  0  0  0  0  0  0  0
    4.5411    1.9055    0.0000 N   0  0  0  0  0  0  0  0  0  0  0  0
    2.8090   -1.0945    0.0000 C   0  0  2  0  0  0  0  0  0  0  0  0
    2.0000   -1.6823    0.0000 C   0  0  0  0  0  0  0  0  0  0  0  0
    3.6180   -1.6823    0.0000 C   0  0  0  0  0  0  0  0  0  0  0  0
    2.3090   -2.6333    0.0000 C   0  0  0  0  0  0  0  0  0  0  0  0
    3.8968   -3.4423    0.0000 C   0  0  0  0  0  0  0  0  0  0  0  0
    3.4901   -4.3559    0.0000 C   0  0  0  0  0  0  0  0  0  0  0  0
    3.6750    0.4055    0.0000 C   0  0  0  0  0  0  0  0  0  0  0  0
    4.0778   -5.1649    0.0000 C   0  0  0  0  0  0  0  0  0  0  0  0
    2.4955   -4.4604    0.0000 C   0  0  0  0  0  0  0  0  0  0  0  0
    3.6750    1.4055    0.0000 C   0  0  0  0  0  0  0  0  0  0  0  0
    3.6711   -6.0784    0.0000 C   0  0  0  0  0  0  0  0  0  0  0  0
    2.0888   -5.3740    0.0000 C   0  0  0  0  0  0  0  0  0  0  0  0
    2.6766   -6.1830    0.0000 C   0  0  0  0  0  0  0  0  0  0  0  0
    2.2699   -7.0965    0.0000 C   0  0  0  0  0  0  0  0  0  0  0  0
    4.5411    2.9055    0.0000 C   0  0  0  0  0  0  0  0  0  0  0  0
    2.8576   -7.9055    0.0000 C   0  0  0  0  0  0  0  0  0  0  0  0
    5.4071    3.4055    0.0000 C   0  0  0  0  0  0  0  0  0  0  0  0
    5.4071    4.4055    0.0000 C   0  0  0  0  0  0  0  0  0  0  0  0
    6.2731    4.9055    0.0000 C   0  0  0  0  0  0  0  0  0  0  0  0
    6.2731    2.9055    0.0000 C   0  0  0  0  0  0  0  0  0  0  0  0
    7.1391    4.4055    0.0000 C   0  0  0  0  0  0  0  0  0  0  0  0
    6.2731    5.9055    0.0000 C   0  0  0  0  0  0  0  0  0  0  0  0
    7.1391    3.4055    0.0000 C   0  0  0  0  0  0  0  0  0  0  0  0
    5.4071    6.4055    0.0000 C   0  0  0  0  0  0  0  0  0  0  0  0
    7.1391    6.4055    0.0000 C   0  0  0  0  0  0  0  0  0  0  0  0
    5.4071    7.4055    0.0000 C   0  0  0  0  0  0  0  0  0  0  0  0
    7.1391    7.4055    0.0000 C   0  0  0  0  0  0  0  0  0  0  0  0
    6.2731    7.9055    0.0000 C   0  0  0  0  0  0  0  0  0  0  0  0
    3.3614   -0.8130    0.0000 H   0  0  0  0  0  0  0  0  0  0  0  0
    1.6900   -1.1453    0.0000 H   0  0  0  0  0  0  0  0  0  0  0  0
    1.4336   -1.9344    0.0000 H   0  0  0  0  0  0  0  0  0  0  0  0
    4.1844   -1.9344    0.0000 H   0  0  0  0  0  0  0  0  0  0  0  0
    3.9280   -1.1453    0.0000 H   0  0  0  0  0  0  0  0  0  0  0  0
    1.7026   -2.7622    0.0000 H   0  0  0  0  0  0  0  0  0  0  0  0
    2.3738   -3.2499    0.0000 H   0  0  0  0  0  0  0  0  0  0  0  0
    4.4108   -3.7890    0.0000 H   0  0  0  0  0  0  0  0  0  0  0  0
    4.3275   -2.9963    0.0000 H   0  0  0  0  0  0  0  0  0  0  0  0
    2.2721    0.2155    0.0000 H   0  0  0  0  0  0  0  0  0  0  0  0
    4.6944   -5.1001    0.0000 H   0  0  0  0  0  0  0  0  0  0  0  0
    2.1311   -3.9588    0.0000 H   0  0  0  0  0  0  0  0  0  0  0  0
    3.4630    1.9881    0.0000 H   0  0  0  0  0  0  0  0  0  0  0  0
    3.0645    1.2979    0.0000 H   0  0  0  0  0  0  0  0  0  0  0  0
    4.0355   -6.5800    0.0000 H   0  0  0  0  0  0  0  0  0  0  0  0
    1.4722   -5.4388    0.0000 H   0  0  0  0  0  0  0  0  0  0  0  0
    5.0780    1.5955    0.0000 H   0  0  0  0  0  0  0  0  0  0  0  0
    1.7558   -6.7498    0.0000 H   0  0  0  0  0  0  0  0  0  0  0  0
    1.8392   -7.5425    0.0000 H   0  0  0  0  0  0  0  0  0  0  0  0
    2.3561   -8.2700    0.0000 H   0  0  0  0  0  0  0  0  0  0  0  0
    3.2221   -8.4071    0.0000 H   0  0  0  0  0  0  0  0  0  0  0  0
    3.3592   -7.5411    0.0000 H   0  0  0  0  0  0  0  0  0  0  0  0
    4.8702    4.7155    0.0000 H   0  0  0  0  0  0  0  0  0  0  0  0
    6.2731    2.2855    0.0000 H   0  0  0  0  0  0  0  0  0  0  0  0
    7.6761    4.7155    0.0000 H   0  0  0  0  0  0  0  0  0  0  0  0
    7.6761    3.0955    0.0000 H   0  0  0  0  0  0  0  0  0  0  0  0
    4.8702    6.0955    0.0000 H   0  0  0  0  0  0  0  0  0  0  0  0
    7.6761    6.0955    0.0000 H   0  0  0  0  0  0  0  0  0  0  0  0
    4.8702    7.7155    0.0000 H   0  0  0  0  0  0  0  0  0  0  0  0
    7.6761    7.7155    0.0000 H   0  0  0  0  0  0  0  0  0  0  0  0
    6.2731    8.5255    0.0000 H   0  0  0  0  0  0  0  0  0  0  0  0
  1 12  2  0  0  0  0
  2 20  2  0  0  0  0
  3  8  1  0  0  0  0
  3  9  1  0  0  0  0
  3 10  1  0  0  0  0
  6  4  1  1  0  0  0
  4 12  1  0  0  0  0
  4 43  1  0  0  0  0
  5 15  1  0  0  0  0
  5 20  1  0  0  0  0
  5 50  1  0  0  0  0
  6  7  1  0  0  0  0
  6  8  1  0  0  0  0
  6 34  1  0  0  0  0
  7  9  1  0  0  0  0
  7 35  1  0  0  0  0
  7 36  1  0  0  0  0
  8 37  1  0  0  0  0
  8 38  1  0  0  0  0
  9 39  1  0  0  0  0
  9 40  1  0  0  0  0
 10 11  1  0  0  0  0
 10 41  1  0  0  0  0
 10 42  1  0  0  0  0
 11 13  2  0  0  0  0
 11 14  1  0  0  0  0
 12 15  1  0  0  0  0
 13 16  1  0  0  0  0
 13 44  1  0  0  0  0
 14 17  2  0  0  0  0
 14 45  1  0  0  0  0
 15 46  1  0  0  0  0
 15 47  1  0  0  0  0
 16 18  2  0  0  0  0
 16 48  1  0  0  0  0
 17 18  1  0  0  0  0
 17 49  1  0  0  0  0
 18 19  1  0  0  0  0
 19 21  1  0  0  0  0
 19 51  1  0  0  0  0
 19 52  1  0  0  0  0
 20 22  1  0  0  0  0
 21 53  1  0  0  0  0
 21 54  1  0  0  0  0
 21 55  1  0  0  0  0
 22 23  1  0  0  0  0
 22 25  2  0  0  0  0
 23 24  2  0  0  0  0
 23 56  1  0  0  0  0
 24 26  1  0  0  0  0
 24 27  1  0  0  0  0
 25 28  1  0  0  0  0
 25 57  1  0  0  0  0
 26 28  2  0  0  0  0
 26 58  1  0  0  0  0
 27 29  2  0  0  0  0
 27 30  1  0  0  0  0
 28 59  1  0  0  0  0
 29 31  1  0  0  0  0
 29 60  1  0  0  0  0
 30 32  2  0  0  0  0
 30 61  1  0  0  0  0
 31 33  2  0  0  0  0
 31 62  1  0  0  0  0
 32 33  1  0  0  0  0
 32 63  1  0  0  0  0
 33 64  1  0  0  0  0
M  END
> <PUBCHEM_COMPOUND_CID>
508887
> <PUBCHEM_COMPOUND_CANONICALIZED>
1
> <PUBCHEM_CACTVS_COMPLEXITY>
625
> <PUBCHEM_CACTVS_HBOND_ACCEPTOR>
3
> <PUBCHEM_CACTVS_HBOND_DONOR>
2
> <PUBCHEM_CACTVS_ROTATABLE_BOND>
8
> <PUBCHEM_CACTVS_SUBSKEYS>
AAADceB7MAAAAAAAAAAAAAAAAAAAAWAAAAAwYMAAAAAAAAABUAAAHgAQAAAADCjBmAQyAIPAAACIAiFSEACCAAAkAAAIiIGIBMgIYDKA1TGUIQhglgCIiYcYiMCOwAACAAAAAACAAAQAAAAAAAAAAAAAAA==
> <PUBCHEM_IUPAC_OPENEYE_NAME>
N-[2-[[(3R)-1-[(4-ethylphenyl)methyl]pyrrolidin-3-yl]amino]-2-oxo-ethyl]-3-phenyl-benzamide
> <PUBCHEM_IUPAC_CAS_NAME>
N-[2-[[(3R)-1-[(4-ethylphenyl)methyl]-3-pyrrolidinyl]amino]-2-oxoethyl]-3-phenylbenzamide
> <PUBCHEM_IUPAC_NAME_MARKUP>
<I>N</I>-[2-[[(3<I>R</I>)-1-[(4-ethylphenyl)methyl]pyrrolidin-3-yl]amino]-2-oxoethyl]-3-phenylbenzamide
> <PUBCHEM_IUPAC_NAME>
N-[2-[[(3R)-1-[(4-ethylphenyl)methyl]pyrrolidin-3-yl]amino]-2-oxoethyl]-3-phenylbenzamide
> <PUBCHEM_IUPAC_SYSTEMATIC_NAME>
N-[2-[[(3R)-1-[(4-ethylphenyl)methyl]pyrrolidin-3-yl]amino]-2-oxidanylidene-ethyl]-3-phenyl-benzamide
> <PUBCHEM_IUPAC_TRADITIONAL_NAME>
N-[2-[[(3R)-1-(4-ethylbenzyl)pyrrolidin-3-yl]amino]-2-keto-ethyl]-3-phenyl-benzamide
> <PUBCHEM_IUPAC_INCHI>
InChI=1S/C28H31N3O2/c1-2-21-11-13-22(14-12-21)19-31-16-15-26(20-31)30-27(32)18-29-28(33)25-10-6-9-24(17-25)23-7-4-3-5-8-23/h3-14,17,26H,2,15-16,18-20H2,1H3,(H,29,33)(H,30,32)/t26-/m1/s1
> <PUBCHEM_IUPAC_INCHIKEY>
AUCRKZJNRTVKGT-AREMUKBSSA-N
> <PUBCHEM_XLOGP3_AA>
4.7
> <PUBCHEM_EXACT_MASS>
441.24162724
> <PUBCHEM_MOLECULAR_FORMULA>
C28H31N3O2
> <PUBCHEM_MOLECULAR_WEIGHT>
441.6
> <PUBCHEM_OPENEYE_CAN_SMILES>
CCC1=CC=C(C=C1)CN2CCC(C2)NC(=O)CNC(=O)C3=CC=CC(=C3)C4=CC=CC=C4
> <PUBCHEM_OPENEYE_ISO_SMILES>
CCC1=CC=C(C=C1)CN2CC[C@H](C2)NC(=O)CNC(=O)C3=CC=CC(=C3)C4=CC=CC=C4
> <PUBCHEM_CACTVS_TPSA>
61.4
> <PUBCHEM_MONOISOTOPIC_WEIGHT>
441.24162724
> <PUBCHEM_TOTAL_CHARGE>
0
> <PUBCHEM_HEAVY_ATOM_COUNT>
33
> <PUBCHEM_ATOM_DEF_STEREO_COUNT>
1
> <PUBCHEM_ATOM_UDEF_STEREO_COUNT>
0
> <PUBCHEM_BOND_DEF_STEREO_COUNT>
0
> <PUBCHEM_BOND_UDEF_STEREO_COUNT>
0
> <PUBCHEM_ISOTOPIC_ATOM_COUNT>
0
> <PUBCHEM_COMPONENT_COUNT>
1
> <PUBCHEM_CACTVS_TAUTO_COUNT>
-1
> <PUBCHEM_COORDINATE_TYPE>
1
5
255
> <PUBCHEM_BONDANNOTATIONS>
11  13  8
11  14  8
13  16  8
14  17  8
16  18  8
17  18  8
22  23  8
22  25  8
23  24  8
24  26  8
25  28  8
26  28  8
27  29  8
27  30  8
29  31  8
30  32  8
31  33  8
32  33  8
6  4  5
$$$$
