508853
  -OEChem-10302200282D
 55 57  0     1  0  0  0  0  0999 V2000
    8.0052    3.4055    0.0000 F   0  0  0  0  0  0  0  0  0  0  0  0
    6.2731    7.4055    0.0000 F   0  0  0  0  0  0  0  0  0  0  0  0
    7.2731    6.4055    0.0000 F   0  0  0  0  0  0  0  0  0  0  0  0
    5.2731    6.4055    0.0000 F   0  0  0  0  0  0  0  0  0  0  0  0
    4.5411    0.4055    0.0000 O   0  0  0  0  0  0  0  0  0  0  0  0
    2.2699   -6.5965    0.0000 O   0  0  0  0  0  0  0  0  0  0  0  0
    3.6750    3.9055    0.0000 O   0  0  0  0  0  0  0  0  0  0  0  0
    3.3090   -2.1333    0.0000 N   0  0  3  0  0  0  0  0  0  0  0  0
    2.8090    0.4055    0.0000 N   0  0  0  0  0  0  0  0  0  0  0  0
    4.5411    2.4055    0.0000 N   0  0  0  0  0  0  0  0  0  0  0  0
    2.8090   -0.5945    0.0000 C   0  0  2  0  0  0  0  0  0  0  0  0
    2.0000   -1.1823    0.0000 C   0  0  0  0  0  0  0  0  0  0  0  0
    3.6180   -1.1823    0.0000 C   0  0  0  0  0  0  0  0  0  0  0  0
    2.3090   -2.1333    0.0000 C   0  0  0  0  0  0  0  0  0  0  0  0
    3.8968   -2.9423    0.0000 C   0  0  0  0  0  0  0  0  0  0  0  0
    3.4901   -3.8559    0.0000 C   0  0  0  0  0  0  0  0  0  0  0  0
    3.6750    0.9055    0.0000 C   0  0  0  0  0  0  0  0  0  0  0  0
    3.6750    1.9055    0.0000 C   0  0  0  0  0  0  0  0  0  0  0  0
    4.0778   -4.6649    0.0000 C   0  0  0  0  0  0  0  0  0  0  0  0
    2.4955   -3.9604    0.0000 C   0  0  0  0  0  0  0  0  0  0  0  0
    3.6711   -5.5784    0.0000 C   0  0  0  0  0  0  0  0  0  0  0  0
    2.0888   -4.8740    0.0000 C   0  0  0  0  0  0  0  0  0  0  0  0
    2.6766   -5.6830    0.0000 C   0  0  0  0  0  0  0  0  0  0  0  0
    4.5411    3.4055    0.0000 C   0  0  0  0  0  0  0  0  0  0  0  0
    5.4071    3.9055    0.0000 C   0  0  0  0  0  0  0  0  0  0  0  0
    5.4071    4.9055    0.0000 C   0  0  0  0  0  0  0  0  0  0  0  0
    6.2731    3.4055    0.0000 C   0  0  0  0  0  0  0  0  0  0  0  0
    6.2731    5.4055    0.0000 C   0  0  0  0  0  0  0  0  0  0  0  0
    2.8576   -7.4055    0.0000 C   0  0  0  0  0  0  0  0  0  0  0  0
    7.1391    3.9055    0.0000 C   0  0  0  0  0  0  0  0  0  0  0  0
    7.1391    4.9055    0.0000 C   0  0  0  0  0  0  0  0  0  0  0  0
    6.2731    6.4055    0.0000 C   0  0  0  0  0  0  0  0  0  0  0  0
    3.3614   -0.3130    0.0000 H   0  0  0  0  0  0  0  0  0  0  0  0
    1.6900   -0.6453    0.0000 H   0  0  0  0  0  0  0  0  0  0  0  0
    1.4336   -1.4344    0.0000 H   0  0  0  0  0  0  0  0  0  0  0  0
    4.1844   -1.4344    0.0000 H   0  0  0  0  0  0  0  0  0  0  0  0
    3.9280   -0.6453    0.0000 H   0  0  0  0  0  0  0  0  0  0  0  0
    1.7026   -2.2622    0.0000 H   0  0  0  0  0  0  0  0  0  0  0  0
    2.3738   -2.7499    0.0000 H   0  0  0  0  0  0  0  0  0  0  0  0
    4.4108   -3.2890    0.0000 H   0  0  0  0  0  0  0  0  0  0  0  0
    4.3275   -2.4963    0.0000 H   0  0  0  0  0  0  0  0  0  0  0  0
    2.2721    0.7155    0.0000 H   0  0  0  0  0  0  0  0  0  0  0  0
    3.4630    2.4881    0.0000 H   0  0  0  0  0  0  0  0  0  0  0  0
    3.0645    1.7979    0.0000 H   0  0  0  0  0  0  0  0  0  0  0  0
    4.6944   -4.6001    0.0000 H   0  0  0  0  0  0  0  0  0  0  0  0
    2.1311   -3.4588    0.0000 H   0  0  0  0  0  0  0  0  0  0  0  0
    4.0355   -6.0800    0.0000 H   0  0  0  0  0  0  0  0  0  0  0  0
    1.4722   -4.9388    0.0000 H   0  0  0  0  0  0  0  0  0  0  0  0
    5.0780    2.0955    0.0000 H   0  0  0  0  0  0  0  0  0  0  0  0
    4.8702    5.2155    0.0000 H   0  0  0  0  0  0  0  0  0  0  0  0
    6.2731    2.7855    0.0000 H   0  0  0  0  0  0  0  0  0  0  0  0
    2.3561   -7.7700    0.0000 H   0  0  0  0  0  0  0  0  0  0  0  0
    3.2221   -7.9071    0.0000 H   0  0  0  0  0  0  0  0  0  0  0  0
    3.3592   -7.0411    0.0000 H   0  0  0  0  0  0  0  0  0  0  0  0
    7.6761    5.2155    0.0000 H   0  0  0  0  0  0  0  0  0  0  0  0
  1 30  1  0  0  0  0
  2 32  1  0  0  0  0
  3 32  1  0  0  0  0
  4 32  1  0  0  0  0
  5 17  2  0  0  0  0
  6 23  1  0  0  0  0
  6 29  1  0  0  0  0
  7 24  2  0  0  0  0
  8 13  1  0  0  0  0
  8 14  1  0  0  0  0
  8 15  1  0  0  0  0
 11  9  1  1  0  0  0
  9 17  1  0  0  0  0
  9 42  1  0  0  0  0
 10 18  1  0  0  0  0
 10 24  1  0  0  0  0
 10 49  1  0  0  0  0
 11 12  1  0  0  0  0
 11 13  1  0  0  0  0
 11 33  1  0  0  0  0
 12 14  1  0  0  0  0
 12 34  1  0  0  0  0
 12 35  1  0  0  0  0
 13 36  1  0  0  0  0
 13 37  1  0  0  0  0
 14 38  1  0  0  0  0
 14 39  1  0  0  0  0
 15 16  1  0  0  0  0
 15 40  1  0  0  0  0
 15 41  1  0  0  0  0
 16 19  2  0  0  0  0
 16 20  1  0  0  0  0
 17 18  1  0  0  0  0
 18 43  1  0  0  0  0
 18 44  1  0  0  0  0
 19 21  1  0  0  0  0
 19 45  1  0  0  0  0
 20 22  2  0  0  0  0
 20 46  1  0  0  0  0
 21 23  2  0  0  0  0
 21 47  1  0  0  0  0
 22 23  1  0  0  0  0
 22 48  1  0  0  0  0
 24 25  1  0  0  0  0
 25 26  2  0  0  0  0
 25 27  1  0  0  0  0
 26 28  1  0  0  0  0
 26 50  1  0  0  0  0
 27 30  2  0  0  0  0
 27 51  1  0  0  0  0
 28 31  2  0  0  0  0
 28 32  1  0  0  0  0
 29 52  1  0  0  0  0
 29 53  1  0  0  0  0
 29 54  1  0  0  0  0
 30 31  1  0  0  0  0
 31 55  1  0  0  0  0
M  END
> <PUBCHEM_COMPOUND_CID>
508853
> <PUBCHEM_COMPOUND_CANONICALIZED>
1
> <PUBCHEM_CACTVS_COMPLEXITY>
640
> <PUBCHEM_CACTVS_HBOND_ACCEPTOR>
8
> <PUBCHEM_CACTVS_HBOND_DONOR>
2
> <PUBCHEM_CACTVS_ROTATABLE_BOND>
7
> <PUBCHEM_CACTVS_SUBSKEYS>
AAADceB7McAAAAAAAAAAAAAAAAAAAWAAAAAwYAAAAAAAAAABQAAAHwAQAAAADCzBmB4yBoPABACIAiFSEACCCAAkIAAIiIGODMgMZjKE9TuUMShk1hGIqYeY2EKOIAACAAAAAABAAAQAAAAAAAAAAAAAAA==
> <PUBCHEM_IUPAC_OPENEYE_NAME>
3-fluoro-N-[2-[[(3R)-1-[(4-methoxyphenyl)methyl]pyrrolidin-3-yl]amino]-2-oxo-ethyl]-5-(trifluoromethyl)benzamide
> <PUBCHEM_IUPAC_CAS_NAME>
3-fluoro-N-[2-[[(3R)-1-[(4-methoxyphenyl)methyl]-3-pyrrolidinyl]amino]-2-oxoethyl]-5-(trifluoromethyl)benzamide
> <PUBCHEM_IUPAC_NAME_MARKUP>
3-fluoro-<I>N</I>-[2-[[(3<I>R</I>)-1-[(4-methoxyphenyl)methyl]pyrrolidin-3-yl]amino]-2-oxoethyl]-5-(trifluoromethyl)benzamide
> <PUBCHEM_IUPAC_NAME>
3-fluoro-N-[2-[[(3R)-1-[(4-methoxyphenyl)methyl]pyrrolidin-3-yl]amino]-2-oxoethyl]-5-(trifluoromethyl)benzamide
> <PUBCHEM_IUPAC_SYSTEMATIC_NAME>
3-fluoranyl-N-[2-[[(3R)-1-[(4-methoxyphenyl)methyl]pyrrolidin-3-yl]amino]-2-oxidanylidene-ethyl]-5-(trifluoromethyl)benzamide
> <PUBCHEM_IUPAC_TRADITIONAL_NAME>
3-fluoro-N-[2-keto-2-[[(3R)-1-p-anisylpyrrolidin-3-yl]amino]ethyl]-5-(trifluoromethyl)benzamide
> <PUBCHEM_IUPAC_INCHI>
InChI=1S/C22H23F4N3O3/c1-32-19-4-2-14(3-5-19)12-29-7-6-18(13-29)28-20(30)11-27-21(31)15-8-16(22(24,25)26)10-17(23)9-15/h2-5,8-10,18H,6-7,11-13H2,1H3,(H,27,31)(H,28,30)/t18-/m1/s1
> <PUBCHEM_IUPAC_INCHIKEY>
ZYHAGKMWZYXYJC-GOSISDBHSA-N
> <PUBCHEM_XLOGP3_AA>
3.2
> <PUBCHEM_EXACT_MASS>
453.16755425
> <PUBCHEM_MOLECULAR_FORMULA>
C22H23F4N3O3
> <PUBCHEM_MOLECULAR_WEIGHT>
453.4
> <PUBCHEM_OPENEYE_CAN_SMILES>
COC1=CC=C(C=C1)CN2CCC(C2)NC(=O)CNC(=O)C3=CC(=CC(=C3)F)C(F)(F)F
> <PUBCHEM_OPENEYE_ISO_SMILES>
COC1=CC=C(C=C1)CN2CC[C@H](C2)NC(=O)CNC(=O)C3=CC(=CC(=C3)F)C(F)(F)F
> <PUBCHEM_CACTVS_TPSA>
70.7
> <PUBCHEM_MONOISOTOPIC_WEIGHT>
453.16755425
> <PUBCHEM_TOTAL_CHARGE>
0
> <PUBCHEM_HEAVY_ATOM_COUNT>
32
> <PUBCHEM_ATOM_DEF_STEREO_COUNT>
1
> <PUBCHEM_ATOM_UDEF_STEREO_COUNT>
0
> <PUBCHEM_BOND_DEF_STEREO_COUNT>
0
> <PUBCHEM_BOND_UDEF_STEREO_COUNT>
0
> <PUBCHEM_ISOTOPIC_ATOM_COUNT>
0
> <PUBCHEM_COMPONENT_COUNT>
1
> <PUBCHEM_CACTVS_TAUTO_COUNT>
-1
> <PUBCHEM_COORDINATE_TYPE>
1
5
255
> <PUBCHEM_BONDANNOTATIONS>
16  19  8
16  20  8
19  21  8
20  22  8
21  23  8
22  23  8
25  26  8
25  27  8
26  28  8
27  30  8
28  31  8
30  31  8
11  9  5
$$$$
