508825
  -OEChem-10302200282D
 54 57  0     1  0  0  0  0  0999 V2000
   11.4411   -2.3644    0.0000 F   0  0  0  0  0  0  0  0  0  0  0  0
   12.7614   -2.8713    0.0000 F   0  0  0  0  0  0  0  0  0  0  0  0
   12.2546   -4.1915    0.0000 F   0  0  0  0  0  0  0  0  0  0  0  0
    8.7163    0.0677    0.0000 O   0  0  0  0  0  0  0  0  0  0  0  0
    7.4892   -3.3226    0.0000 O   0  0  0  0  0  0  0  0  0  0  0  0
    6.7619    2.8259    0.0000 N   0  0  3  0  0  0  0  0  0  0  0  0
    6.9938    0.2487    0.0000 N   0  0  0  0  0  0  0  0  0  0  0  0
    4.6783    4.4967    0.0000 N   0  0  0  0  0  0  0  0  0  0  0  0
    4.6783    2.8872    0.0000 N   0  0  0  0  0  0  0  0  0  0  0  0
    8.5073   -1.9214    0.0000 N   0  0  0  0  0  0  0  0  0  0  0  0
    7.0983    1.2432    0.0000 C   0  0  2  0  0  0  0  0  0  0  0  0
    7.9643    1.7432    0.0000 C   0  0  0  0  0  0  0  0  0  0  0  0
    6.3551    1.9124    0.0000 C   0  0  0  0  0  0  0  0  0  0  0  0
    7.7564    2.7214    0.0000 C   0  0  0  0  0  0  0  0  0  0  0  0
    6.2619    3.6919    0.0000 C   0  0  0  0  0  0  0  0  0  0  0  0
    5.2619    3.6919    0.0000 C   0  0  0  0  0  0  0  0  0  0  0  0
    7.8028   -0.3391    0.0000 C   0  0  0  0  0  0  0  0  0  0  0  0
    7.6982   -1.3336    0.0000 C   0  0  0  0  0  0  0  0  0  0  0  0
    3.7320    4.1919    0.0000 C   0  0  0  0  0  0  0  0  0  0  0  0
    3.7320    3.1919    0.0000 C   0  0  0  0  0  0  0  0  0  0  0  0
    2.8660    4.6919    0.0000 C   0  0  0  0  0  0  0  0  0  0  0  0
    2.8660    2.6919    0.0000 C   0  0  0  0  0  0  0  0  0  0  0  0
    2.0000    4.1919    0.0000 C   0  0  0  0  0  0  0  0  0  0  0  0
    2.0000    3.1919    0.0000 C   0  0  0  0  0  0  0  0  0  0  0  0
    8.4027   -2.9159    0.0000 C   0  0  0  0  0  0  0  0  0  0  0  0
    9.2118   -3.5037    0.0000 C   0  0  0  0  0  0  0  0  0  0  0  0
   10.1253   -3.0970    0.0000 C   0  0  0  0  0  0  0  0  0  0  0  0
    9.1072   -4.4982    0.0000 C   0  0  0  0  0  0  0  0  0  0  0  0
   10.9343   -3.6847    0.0000 C   0  0  0  0  0  0  0  0  0  0  0  0
    9.9162   -5.0860    0.0000 C   0  0  0  0  0  0  0  0  0  0  0  0
   10.8298   -4.6793    0.0000 C   0  0  0  0  0  0  0  0  0  0  0  0
   11.8479   -3.2780    0.0000 C   0  0  0  0  0  0  0  0  0  0  0  0
    7.6183    0.9056    0.0000 H   0  0  0  0  0  0  0  0  0  0  0  0
    8.2165    1.1768    0.0000 H   0  0  0  0  0  0  0  0  0  0  0  0
    8.5540    1.9348    0.0000 H   0  0  0  0  0  0  0  0  0  0  0  0
    5.8182    2.2224    0.0000 H   0  0  0  0  0  0  0  0  0  0  0  0
    5.9907    1.4108    0.0000 H   0  0  0  0  0  0  0  0  0  0  0  0
    8.3730    2.7862    0.0000 H   0  0  0  0  0  0  0  0  0  0  0  0
    7.7564    3.3414    0.0000 H   0  0  0  0  0  0  0  0  0  0  0  0
    6.8445    3.9040    0.0000 H   0  0  0  0  0  0  0  0  0  0  0  0
    6.1542    4.3025    0.0000 H   0  0  0  0  0  0  0  0  0  0  0  0
    6.4274   -0.0035    0.0000 H   0  0  0  0  0  0  0  0  0  0  0  0
    4.8709    5.0860    0.0000 H   0  0  0  0  0  0  0  0  0  0  0  0
    7.1023   -1.1627    0.0000 H   0  0  0  0  0  0  0  0  0  0  0  0
    7.4265   -1.8908    0.0000 H   0  0  0  0  0  0  0  0  0  0  0  0
    2.8660    5.3119    0.0000 H   0  0  0  0  0  0  0  0  0  0  0  0
    9.0737   -1.6692    0.0000 H   0  0  0  0  0  0  0  0  0  0  0  0
    2.8660    2.0719    0.0000 H   0  0  0  0  0  0  0  0  0  0  0  0
    1.4631    4.5019    0.0000 H   0  0  0  0  0  0  0  0  0  0  0  0
    1.4631    2.8819    0.0000 H   0  0  0  0  0  0  0  0  0  0  0  0
   10.1901   -2.4804    0.0000 H   0  0  0  0  0  0  0  0  0  0  0  0
    8.5408   -4.7504    0.0000 H   0  0  0  0  0  0  0  0  0  0  0  0
    9.8514   -5.7026    0.0000 H   0  0  0  0  0  0  0  0  0  0  0  0
   11.3314   -5.0437    0.0000 H   0  0  0  0  0  0  0  0  0  0  0  0
  1 32  1  0  0  0  0
  2 32  1  0  0  0  0
  3 32  1  0  0  0  0
  4 17  2  0  0  0  0
  5 25  2  0  0  0  0
  6 13  1  0  0  0  0
  6 14  1  0  0  0  0
  6 15  1  0  0  0  0
 11  7  1  1  0  0  0
  7 17  1  0  0  0  0
  7 42  1  0  0  0  0
  8 16  1  0  0  0  0
  8 19  1  0  0  0  0
  8 43  1  0  0  0  0
  9 16  2  0  0  0  0
  9 20  1  0  0  0  0
 10 18  1  0  0  0  0
 10 25  1  0  0  0  0
 10 47  1  0  0  0  0
 11 12  1  0  0  0  0
 11 13  1  0  0  0  0
 11 33  1  0  0  0  0
 12 14  1  0  0  0  0
 12 34  1  0  0  0  0
 12 35  1  0  0  0  0
 13 36  1  0  0  0  0
 13 37  1  0  0  0  0
 14 38  1  0  0  0  0
 14 39  1  0  0  0  0
 15 16  1  0  0  0  0
 15 40  1  0  0  0  0
 15 41  1  0  0  0  0
 17 18  1  0  0  0  0
 18 44  1  0  0  0  0
 18 45  1  0  0  0  0
 19 20  1  0  0  0  0
 19 21  2  0  0  0  0
 20 22  2  0  0  0  0
 21 23  1  0  0  0  0
 21 46  1  0  0  0  0
 22 24  1  0  0  0  0
 22 48  1  0  0  0  0
 23 24  2  0  0  0  0
 23 49  1  0  0  0  0
 24 50  1  0  0  0  0
 25 26  1  0  0  0  0
 26 27  2  0  0  0  0
 26 28  1  0  0  0  0
 27 29  1  0  0  0  0
 27 51  1  0  0  0  0
 28 30  2  0  0  0  0
 28 52  1  0  0  0  0
 29 31  2  0  0  0  0
 29 32  1  0  0  0  0
 30 31  1  0  0  0  0
 30 53  1  0  0  0  0
 31 54  1  0  0  0  0
M  END
> <PUBCHEM_COMPOUND_CID>
508825
> <PUBCHEM_COMPOUND_CANONICALIZED>
1
> <PUBCHEM_CACTVS_COMPLEXITY>
676
> <PUBCHEM_CACTVS_HBOND_ACCEPTOR>
7
> <PUBCHEM_CACTVS_HBOND_DONOR>
3
> <PUBCHEM_CACTVS_ROTATABLE_BOND>
6
> <PUBCHEM_CACTVS_SUBSKEYS>
AAADceB7sYAAAAAAAAAAAAAAAAAAAWLAAAAwYAAAAAAAAFgB9AAAHwAQAAAADCjBnxQx0LfJkACoAydydACCgC2lEqAJmaG4dNiIaLLA3bGUIQholgLIyacYiECOAAACAAAAACAAAAQAAAAAQAAAAAAAAA==
> <PUBCHEM_IUPAC_OPENEYE_NAME>
N-[2-[[(3R)-1-(1H-benzimidazol-2-ylmethyl)pyrrolidin-3-yl]amino]-2-oxo-ethyl]-3-(trifluoromethyl)benzamide
> <PUBCHEM_IUPAC_CAS_NAME>
N-[2-[[(3R)-1-(1H-benzimidazol-2-ylmethyl)-3-pyrrolidinyl]amino]-2-oxoethyl]-3-(trifluoromethyl)benzamide
> <PUBCHEM_IUPAC_NAME_MARKUP>
<I>N</I>-[2-[[(3<I>R</I>)-1-(1<I>H</I>-benzimidazol-2-ylmethyl)pyrrolidin-3-yl]amino]-2-oxoethyl]-3-(trifluoromethyl)benzamide
> <PUBCHEM_IUPAC_NAME>
N-[2-[[(3R)-1-(1H-benzimidazol-2-ylmethyl)pyrrolidin-3-yl]amino]-2-oxoethyl]-3-(trifluoromethyl)benzamide
> <PUBCHEM_IUPAC_SYSTEMATIC_NAME>
N-[2-[[(3R)-1-(1H-benzimidazol-2-ylmethyl)pyrrolidin-3-yl]amino]-2-oxidanylidene-ethyl]-3-(trifluoromethyl)benzamide
> <PUBCHEM_IUPAC_TRADITIONAL_NAME>
N-[2-[[(3R)-1-(1H-benzimidazol-2-ylmethyl)pyrrolidin-3-yl]amino]-2-keto-ethyl]-3-(trifluoromethyl)benzamide
> <PUBCHEM_IUPAC_INCHI>
InChI=1S/C22H22F3N5O2/c23-22(24,25)15-5-3-4-14(10-15)21(32)26-11-20(31)27-16-8-9-30(12-16)13-19-28-17-6-1-2-7-18(17)29-19/h1-7,10,16H,8-9,11-13H2,(H,26,32)(H,27,31)(H,28,29)/t16-/m1/s1
> <PUBCHEM_IUPAC_INCHIKEY>
DTRBKHGRXGOTCR-MRXNPFEDSA-N
> <PUBCHEM_XLOGP3_AA>
2.8
> <PUBCHEM_EXACT_MASS>
445.17255945
> <PUBCHEM_MOLECULAR_FORMULA>
C22H22F3N5O2
> <PUBCHEM_MOLECULAR_WEIGHT>
445.4
> <PUBCHEM_OPENEYE_CAN_SMILES>
C1CN(CC1NC(=O)CNC(=O)C2=CC(=CC=C2)C(F)(F)F)CC3=NC4=CC=CC=C4N3
> <PUBCHEM_OPENEYE_ISO_SMILES>
C1CN(C[C@@H]1NC(=O)CNC(=O)C2=CC(=CC=C2)C(F)(F)F)CC3=NC4=CC=CC=C4N3
> <PUBCHEM_CACTVS_TPSA>
90.1
> <PUBCHEM_MONOISOTOPIC_WEIGHT>
445.17255945
> <PUBCHEM_TOTAL_CHARGE>
0
> <PUBCHEM_HEAVY_ATOM_COUNT>
32
> <PUBCHEM_ATOM_DEF_STEREO_COUNT>
1
> <PUBCHEM_ATOM_UDEF_STEREO_COUNT>
0
> <PUBCHEM_BOND_DEF_STEREO_COUNT>
0
> <PUBCHEM_BOND_UDEF_STEREO_COUNT>
0
> <PUBCHEM_ISOTOPIC_ATOM_COUNT>
0
> <PUBCHEM_COMPONENT_COUNT>
1
> <PUBCHEM_CACTVS_TAUTO_COUNT>
-1
> <PUBCHEM_COORDINATE_TYPE>
1
5
255
> <PUBCHEM_BONDANNOTATIONS>
19  20  8
19  21  8
20  22  8
21  23  8
22  24  8
23  24  8
26  27  8
26  28  8
27  29  8
28  30  8
29  31  8
30  31  8
11  7  5
8  16  8
8  19  8
9  16  8
9  20  8
$$$$
