508839
  -OEChem-10302200282D
 65 67  0     1  0  0  0  0  0999 V2000
    9.1996   -0.2857    0.0000 O   0  0  0  0  0  0  0  0  0  0  0  0
   11.7976    2.2143    0.0000 O   0  0  0  0  0  0  0  0  0  0  0  0
   15.2617    1.2143    0.0000 O   0  0  0  0  0  0  0  0  0  0  0  0
   13.5297   -1.7857    0.0000 O   0  0  0  0  0  0  0  0  0  0  0  0
   15.2617   -0.7857    0.0000 O   0  0  0  0  0  0  0  0  0  0  0  0
    6.3848   -0.4881    0.0000 N   0  0  3  0  0  0  0  0  0  0  0  0
    8.3335    1.2143    0.0000 N   0  0  0  0  0  0  0  0  0  0  0  0
   10.9316    0.7143    0.0000 N   0  0  0  0  0  0  0  0  0  0  0  0
   13.5297    2.2143    0.0000 N   0  0  0  0  0  0  0  0  0  0  0  0
    7.4675    0.7143    0.0000 C   0  0  2  0  0  0  0  0  0  0  0  0
    6.5540    1.1210    0.0000 C   0  0  0  0  0  0  0  0  0  0  0  0
    7.3630   -0.2802    0.0000 C   0  0  0  0  0  0  0  0  0  0  0  0
    5.8848    0.3779    0.0000 C   0  0  0  0  0  0  0  0  0  0  0  0
    5.9781   -1.4017    0.0000 C   0  0  0  0  0  0  0  0  0  0  0  0
    4.9836   -1.5062    0.0000 C   0  0  0  0  0  0  0  0  0  0  0  0
    9.1996    0.7143    0.0000 C   0  0  0  0  0  0  0  0  0  0  0  0
    4.3958   -0.6972    0.0000 C   0  0  0  0  0  0  0  0  0  0  0  0
    4.5768   -2.4198    0.0000 C   0  0  0  0  0  0  0  0  0  0  0  0
   10.0656    1.2143    0.0000 C   0  0  0  0  0  0  0  0  0  0  0  0
    3.4013   -0.8017    0.0000 C   0  0  0  0  0  0  0  0  0  0  0  0
    3.5823   -2.5243    0.0000 C   0  0  0  0  0  0  0  0  0  0  0  0
    2.9945   -1.7153    0.0000 C   0  0  0  0  0  0  0  0  0  0  0  0
    2.0000   -1.8198    0.0000 C   0  0  0  0  0  0  0  0  0  0  0  0
   11.7976    1.2143    0.0000 C   0  0  0  0  0  0  0  0  0  0  0  0
   12.6637    0.7143    0.0000 C   0  0  0  0  0  0  0  0  0  0  0  0
   13.5297    1.2143    0.0000 C   0  0  0  0  0  0  0  0  0  0  0  0
   12.6637   -0.2857    0.0000 C   0  0  0  0  0  0  0  0  0  0  0  0
   14.3957    0.7143    0.0000 C   0  0  0  0  0  0  0  0  0  0  0  0
   13.5297   -0.7857    0.0000 C   0  0  0  0  0  0  0  0  0  0  0  0
   14.3957   -0.2857    0.0000 C   0  0  0  0  0  0  0  0  0  0  0  0
   16.1278    0.7143    0.0000 C   0  0  0  0  0  0  0  0  0  0  0  0
   12.6637   -2.2857    0.0000 C   0  0  0  0  0  0  0  0  0  0  0  0
   15.2617   -1.7857    0.0000 C   0  0  0  0  0  0  0  0  0  0  0  0
    7.4350    1.3334    0.0000 H   0  0  0  0  0  0  0  0  0  0  0  0
    6.8640    1.6580    0.0000 H   0  0  0  0  0  0  0  0  0  0  0  0
    6.0524    1.4854    0.0000 H   0  0  0  0  0  0  0  0  0  0  0  0
    7.4278   -0.8968    0.0000 H   0  0  0  0  0  0  0  0  0  0  0  0
    7.9830   -0.2802    0.0000 H   0  0  0  0  0  0  0  0  0  0  0  0
    5.4700    0.8386    0.0000 H   0  0  0  0  0  0  0  0  0  0  0  0
    5.3832    0.0135    0.0000 H   0  0  0  0  0  0  0  0  0  0  0  0
    5.9348   -2.0202    0.0000 H   0  0  0  0  0  0  0  0  0  0  0  0
    6.5797   -1.5517    0.0000 H   0  0  0  0  0  0  0  0  0  0  0  0
    8.3335    1.8343    0.0000 H   0  0  0  0  0  0  0  0  0  0  0  0
    4.6480   -0.1308    0.0000 H   0  0  0  0  0  0  0  0  0  0  0  0
    4.9413   -2.9214    0.0000 H   0  0  0  0  0  0  0  0  0  0  0  0
   10.4641    1.6892    0.0000 H   0  0  0  0  0  0  0  0  0  0  0  0
    9.6670    1.6892    0.0000 H   0  0  0  0  0  0  0  0  0  0  0  0
    3.0368   -0.3001    0.0000 H   0  0  0  0  0  0  0  0  0  0  0  0
    3.3301   -3.0907    0.0000 H   0  0  0  0  0  0  0  0  0  0  0  0
   10.9316    0.0943    0.0000 H   0  0  0  0  0  0  0  0  0  0  0  0
    1.9352   -1.2032    0.0000 H   0  0  0  0  0  0  0  0  0  0  0  0
    1.3834   -1.8846    0.0000 H   0  0  0  0  0  0  0  0  0  0  0  0
    2.0648   -2.4364    0.0000 H   0  0  0  0  0  0  0  0  0  0  0  0
   12.1267   -0.5957    0.0000 H   0  0  0  0  0  0  0  0  0  0  0  0
   14.0666    2.5243    0.0000 H   0  0  0  0  0  0  0  0  0  0  0  0
   12.9927    2.5243    0.0000 H   0  0  0  0  0  0  0  0  0  0  0  0
   15.8178    0.1774    0.0000 H   0  0  0  0  0  0  0  0  0  0  0  0
   16.6647    0.4043    0.0000 H   0  0  0  0  0  0  0  0  0  0  0  0
   16.4378    1.2512    0.0000 H   0  0  0  0  0  0  0  0  0  0  0  0
   12.3537   -1.7488    0.0000 H   0  0  0  0  0  0  0  0  0  0  0  0
   12.1267   -2.5957    0.0000 H   0  0  0  0  0  0  0  0  0  0  0  0
   12.9737   -2.8226    0.0000 H   0  0  0  0  0  0  0  0  0  0  0  0
   14.6417   -1.7857    0.0000 H   0  0  0  0  0  0  0  0  0  0  0  0
   15.2617   -2.4057    0.0000 H   0  0  0  0  0  0  0  0  0  0  0  0
   15.8817   -1.7857    0.0000 H   0  0  0  0  0  0  0  0  0  0  0  0
  1 16  2  0  0  0  0
  2 24  2  0  0  0  0
  3 28  1  0  0  0  0
  3 31  1  0  0  0  0
  4 29  1  0  0  0  0
  4 32  1  0  0  0  0
  5 30  1  0  0  0  0
  5 33  1  0  0  0  0
  6 12  1  0  0  0  0
  6 13  1  0  0  0  0
  6 14  1  0  0  0  0
 10  7  1  1  0  0  0
  7 16  1  0  0  0  0
  7 43  1  0  0  0  0
  8 19  1  0  0  0  0
  8 24  1  0  0  0  0
  8 50  1  0  0  0  0
  9 26  1  0  0  0  0
  9 55  1  0  0  0  0
  9 56  1  0  0  0  0
 10 11  1  0  0  0  0
 10 12  1  0  0  0  0
 10 34  1  0  0  0  0
 11 13  1  0  0  0  0
 11 35  1  0  0  0  0
 11 36  1  0  0  0  0
 12 37  1  0  0  0  0
 12 38  1  0  0  0  0
 13 39  1  0  0  0  0
 13 40  1  0  0  0  0
 14 15  1  0  0  0  0
 14 41  1  0  0  0  0
 14 42  1  0  0  0  0
 15 17  2  0  0  0  0
 15 18  1  0  0  0  0
 16 19  1  0  0  0  0
 17 20  1  0  0  0  0
 17 44  1  0  0  0  0
 18 21  2  0  0  0  0
 18 45  1  0  0  0  0
 19 46  1  0  0  0  0
 19 47  1  0  0  0  0
 20 22  2  0  0  0  0
 20 48  1  0  0  0  0
 21 22  1  0  0  0  0
 21 49  1  0  0  0  0
 22 23  1  0  0  0  0
 23 51  1  0  0  0  0
 23 52  1  0  0  0  0
 23 53  1  0  0  0  0
 24 25  1  0  0  0  0
 25 26  1  0  0  0  0
 25 27  2  0  0  0  0
 26 28  2  0  0  0  0
 27 29  1  0  0  0  0
 27 54  1  0  0  0  0
 28 30  1  0  0  0  0
 29 30  2  0  0  0  0
 31 57  1  0  0  0  0
 31 58  1  0  0  0  0
 31 59  1  0  0  0  0
 32 60  1  0  0  0  0
 32 61  1  0  0  0  0
 32 62  1  0  0  0  0
 33 63  1  0  0  0  0
 33 64  1  0  0  0  0
 33 65  1  0  0  0  0
M  END
> <PUBCHEM_COMPOUND_CID>
508839
> <PUBCHEM_COMPOUND_CANONICALIZED>
1
> <PUBCHEM_CACTVS_COMPLEXITY>
642
> <PUBCHEM_CACTVS_HBOND_ACCEPTOR>
7
> <PUBCHEM_CACTVS_HBOND_DONOR>
3
> <PUBCHEM_CACTVS_ROTATABLE_BOND>
9
> <PUBCHEM_CACTVS_SUBSKEYS>
AAADcfB7uAAAAAAAAAAAAAAAAAAAAWAAAAAwYAAAAAAAAAABQAAAHgAQAAAADCzBmAYyxoPABACIAiVSUACCCAAkIAAIiIGPzMgPZzqE9buVMapn1h2K6ce6/B/OYEABCgACUADAgAIUAASgAAAAAAAAAA==
> <PUBCHEM_IUPAC_OPENEYE_NAME>
2-amino-3,4,5-trimethoxy-N-[2-oxo-2-[[(3R)-1-(p-tolylmethyl)pyrrolidin-3-yl]amino]ethyl]benzamide
> <PUBCHEM_IUPAC_CAS_NAME>
2-amino-3,4,5-trimethoxy-N-[2-[[(3R)-1-[(4-methylphenyl)methyl]-3-pyrrolidinyl]amino]-2-oxoethyl]benzamide
> <PUBCHEM_IUPAC_NAME_MARKUP>
2-amino-3,4,5-trimethoxy-<I>N</I>-[2-[[(3<I>R</I>)-1-[(4-methylphenyl)methyl]pyrrolidin-3-yl]amino]-2-oxoethyl]benzamide
> <PUBCHEM_IUPAC_NAME>
2-amino-3,4,5-trimethoxy-N-[2-[[(3R)-1-[(4-methylphenyl)methyl]pyrrolidin-3-yl]amino]-2-oxoethyl]benzamide
> <PUBCHEM_IUPAC_SYSTEMATIC_NAME>
2-azanyl-3,4,5-trimethoxy-N-[2-[[(3R)-1-[(4-methylphenyl)methyl]pyrrolidin-3-yl]amino]-2-oxidanylidene-ethyl]benzamide
> <PUBCHEM_IUPAC_TRADITIONAL_NAME>
2-amino-N-[2-keto-2-[[(3R)-1-(4-methylbenzyl)pyrrolidin-3-yl]amino]ethyl]-3,4,5-trimethoxy-benzamide
> <PUBCHEM_IUPAC_INCHI>
InChI=1S/C24H32N4O5/c1-15-5-7-16(8-6-15)13-28-10-9-17(14-28)27-20(29)12-26-24(30)18-11-19(31-2)22(32-3)23(33-4)21(18)25/h5-8,11,17H,9-10,12-14,25H2,1-4H3,(H,26,30)(H,27,29)/t17-/m1/s1
> <PUBCHEM_IUPAC_INCHIKEY>
FINKFXFQVROLQE-QGZVFWFLSA-N
> <PUBCHEM_XLOGP3_AA>
2.4
> <PUBCHEM_EXACT_MASS>
456.23727013
> <PUBCHEM_MOLECULAR_FORMULA>
C24H32N4O5
> <PUBCHEM_MOLECULAR_WEIGHT>
456.5
> <PUBCHEM_OPENEYE_CAN_SMILES>
CC1=CC=C(C=C1)CN2CCC(C2)NC(=O)CNC(=O)C3=CC(=C(C(=C3N)OC)OC)OC
> <PUBCHEM_OPENEYE_ISO_SMILES>
CC1=CC=C(C=C1)CN2CC[C@H](C2)NC(=O)CNC(=O)C3=CC(=C(C(=C3N)OC)OC)OC
> <PUBCHEM_CACTVS_TPSA>
115
> <PUBCHEM_MONOISOTOPIC_WEIGHT>
456.23727013
> <PUBCHEM_TOTAL_CHARGE>
0
> <PUBCHEM_HEAVY_ATOM_COUNT>
33
> <PUBCHEM_ATOM_DEF_STEREO_COUNT>
1
> <PUBCHEM_ATOM_UDEF_STEREO_COUNT>
0
> <PUBCHEM_BOND_DEF_STEREO_COUNT>
0
> <PUBCHEM_BOND_UDEF_STEREO_COUNT>
0
> <PUBCHEM_ISOTOPIC_ATOM_COUNT>
0
> <PUBCHEM_COMPONENT_COUNT>
1
> <PUBCHEM_CACTVS_TAUTO_COUNT>
-1
> <PUBCHEM_COORDINATE_TYPE>
1
5
255
> <PUBCHEM_BONDANNOTATIONS>
15  17  8
15  18  8
17  20  8
18  21  8
20  22  8
21  22  8
25  26  8
25  27  8
26  28  8
27  29  8
28  30  8
29  30  8
10  7  5
$$$$
