508869
  -OEChem-10302200282D
 57 59  0     1  0  0  0  0  0999 V2000
    5.5010   -5.4068    0.0000 F   0  0  0  0  0  0  0  0  0  0  0  0
    6.8671   -5.0408    0.0000 F   0  0  0  0  0  0  0  0  0  0  0  0
    6.5010   -3.6748    0.0000 F   0  0  0  0  0  0  0  0  0  0  0  0
    6.8671   -0.0408    0.0000 O   0  0  0  0  0  0  0  0  0  0  0  0
    3.4030   -1.0408    0.0000 O   0  0  0  0  0  0  0  0  0  0  0  0
    7.9497    3.1616    0.0000 N   0  0  3  0  0  0  0  0  0  0  0  0
    6.0010    1.4592    0.0000 N   0  0  0  0  0  0  0  0  0  0  0  0
    5.1350   -1.0408    0.0000 N   0  0  0  0  0  0  0  0  0  0  0  0
    2.5369   -2.5408    0.0000 N   0  0  0  0  0  0  0  0  0  0  0  0
    6.8671    1.9592    0.0000 C   0  0  2  0  0  0  0  0  0  0  0  0
    7.7806    1.5525    0.0000 C   0  0  0  0  0  0  0  0  0  0  0  0
    6.9716    2.9537    0.0000 C   0  0  0  0  0  0  0  0  0  0  0  0
    8.4497    2.2956    0.0000 C   0  0  0  0  0  0  0  0  0  0  0  0
    8.3565    4.0752    0.0000 C   0  0  0  0  0  0  0  0  0  0  0  0
    9.3510    4.1797    0.0000 C   0  0  0  0  0  0  0  0  0  0  0  0
    6.0010    0.4592    0.0000 C   0  0  0  0  0  0  0  0  0  0  0  0
    5.1350   -0.0408    0.0000 C   0  0  0  0  0  0  0  0  0  0  0  0
    9.9388    3.3707    0.0000 C   0  0  0  0  0  0  0  0  0  0  0  0
    9.7577    5.0932    0.0000 C   0  0  0  0  0  0  0  0  0  0  0  0
   10.9333    3.4752    0.0000 C   0  0  0  0  0  0  0  0  0  0  0  0
   10.7523    5.1978    0.0000 C   0  0  0  0  0  0  0  0  0  0  0  0
   11.3400    4.3888    0.0000 C   0  0  0  0  0  0  0  0  0  0  0  0
    4.2690   -1.5408    0.0000 C   0  0  0  0  0  0  0  0  0  0  0  0
   12.3346    4.4933    0.0000 C   0  0  0  0  0  0  0  0  0  0  0  0
    4.2690   -2.5408    0.0000 C   0  0  0  0  0  0  0  0  0  0  0  0
    3.4030   -3.0408    0.0000 C   0  0  0  0  0  0  0  0  0  0  0  0
    5.1350   -3.0408    0.0000 C   0  0  0  0  0  0  0  0  0  0  0  0
    5.1350   -4.0408    0.0000 C   0  0  0  0  0  0  0  0  0  0  0  0
    3.4030   -4.0408    0.0000 C   0  0  0  0  0  0  0  0  0  0  0  0
    4.2690   -4.5408    0.0000 C   0  0  0  0  0  0  0  0  0  0  0  0
   12.7413    5.4068    0.0000 C   0  0  0  0  0  0  0  0  0  0  0  0
    6.0010   -4.5408    0.0000 C   0  0  0  0  0  0  0  0  0  0  0  0
    6.3471    2.2969    0.0000 H   0  0  0  0  0  0  0  0  0  0  0  0
    7.4706    1.0155    0.0000 H   0  0  0  0  0  0  0  0  0  0  0  0
    8.2822    1.1880    0.0000 H   0  0  0  0  0  0  0  0  0  0  0  0
    6.9068    3.5703    0.0000 H   0  0  0  0  0  0  0  0  0  0  0  0
    6.3516    2.9537    0.0000 H   0  0  0  0  0  0  0  0  0  0  0  0
    8.8646    1.8348    0.0000 H   0  0  0  0  0  0  0  0  0  0  0  0
    8.9513    2.6600    0.0000 H   0  0  0  0  0  0  0  0  0  0  0  0
    8.3997    4.6937    0.0000 H   0  0  0  0  0  0  0  0  0  0  0  0
    7.7549    4.2252    0.0000 H   0  0  0  0  0  0  0  0  0  0  0  0
    5.4641    1.7692    0.0000 H   0  0  0  0  0  0  0  0  0  0  0  0
    4.9230    0.5418    0.0000 H   0  0  0  0  0  0  0  0  0  0  0  0
    4.5244   -0.1485    0.0000 H   0  0  0  0  0  0  0  0  0  0  0  0
    9.6866    2.8043    0.0000 H   0  0  0  0  0  0  0  0  0  0  0  0
    9.3933    5.5948    0.0000 H   0  0  0  0  0  0  0  0  0  0  0  0
   11.2977    2.9736    0.0000 H   0  0  0  0  0  0  0  0  0  0  0  0
   11.0044    5.7642    0.0000 H   0  0  0  0  0  0  0  0  0  0  0  0
    5.6720   -1.3508    0.0000 H   0  0  0  0  0  0  0  0  0  0  0  0
   12.6990    3.9917    0.0000 H   0  0  0  0  0  0  0  0  0  0  0  0
    5.6720   -2.7308    0.0000 H   0  0  0  0  0  0  0  0  0  0  0  0
    2.8660   -4.3508    0.0000 H   0  0  0  0  0  0  0  0  0  0  0  0
    4.2690   -5.1608    0.0000 H   0  0  0  0  0  0  0  0  0  0  0  0
   13.3579    5.4716    0.0000 H   0  0  0  0  0  0  0  0  0  0  0  0
   12.3769    5.9084    0.0000 H   0  0  0  0  0  0  0  0  0  0  0  0
    2.0000   -2.8508    0.0000 H   0  0  0  0  0  0  0  0  0  0  0  0
    2.5369   -1.9208    0.0000 H   0  0  0  0  0  0  0  0  0  0  0  0
  1 32  1  0  0  0  0
  2 32  1  0  0  0  0
  3 32  1  0  0  0  0
  4 16  2  0  0  0  0
  5 23  2  0  0  0  0
  6 12  1  0  0  0  0
  6 13  1  0  0  0  0
  6 14  1  0  0  0  0
 10  7  1  1  0  0  0
  7 16  1  0  0  0  0
  7 42  1  0  0  0  0
  8 17  1  0  0  0  0
  8 23  1  0  0  0  0
  8 49  1  0  0  0  0
  9 26  1  0  0  0  0
  9 56  1  0  0  0  0
  9 57  1  0  0  0  0
 10 11  1  0  0  0  0
 10 12  1  0  0  0  0
 10 33  1  0  0  0  0
 11 13  1  0  0  0  0
 11 34  1  0  0  0  0
 11 35  1  0  0  0  0
 12 36  1  0  0  0  0
 12 37  1  0  0  0  0
 13 38  1  0  0  0  0
 13 39  1  0  0  0  0
 14 15  1  0  0  0  0
 14 40  1  0  0  0  0
 14 41  1  0  0  0  0
 15 18  2  0  0  0  0
 15 19  1  0  0  0  0
 16 17  1  0  0  0  0
 17 43  1  0  0  0  0
 17 44  1  0  0  0  0
 18 20  1  0  0  0  0
 18 45  1  0  0  0  0
 19 21  2  0  0  0  0
 19 46  1  0  0  0  0
 20 22  2  0  0  0  0
 20 47  1  0  0  0  0
 21 22  1  0  0  0  0
 21 48  1  0  0  0  0
 22 24  1  0  0  0  0
 23 25  1  0  0  0  0
 24 31  2  0  0  0  0
 24 50  1  0  0  0  0
 25 26  2  0  0  0  0
 25 27  1  0  0  0  0
 26 29  1  0  0  0  0
 27 28  2  0  0  0  0
 27 51  1  0  0  0  0
 28 30  1  0  0  0  0
 28 32  1  0  0  0  0
 29 30  2  0  0  0  0
 29 52  1  0  0  0  0
 30 53  1  0  0  0  0
 31 54  1  0  0  0  0
 31 55  1  0  0  0  0
M  END
> <PUBCHEM_COMPOUND_CID>
508869
> <PUBCHEM_COMPOUND_CANONICALIZED>
1
> <PUBCHEM_CACTVS_COMPLEXITY>
664
> <PUBCHEM_CACTVS_HBOND_ACCEPTOR>
7
> <PUBCHEM_CACTVS_HBOND_DONOR>
3
> <PUBCHEM_CACTVS_ROTATABLE_BOND>
7
> <PUBCHEM_CACTVS_SUBSKEYS>
AAADceB7sYAAAAAAAAAAAAAAAAAAAWAAAAAwYAAAAAAAAAABQAAAHwAQAAAADCjBmBQwwIPAAACIAiVSUACCAAAkAgAIiIGIZMgIYDqA1bGUIYhglgCIyccYiECOSAACAAACAACQAAQAAAQAAAAAAAAAAA==
> <PUBCHEM_IUPAC_OPENEYE_NAME>
2-amino-N-[2-oxo-2-[[(3R)-1-[(4-vinylphenyl)methyl]pyrrolidin-3-yl]amino]ethyl]-5-(trifluoromethyl)benzamide
> <PUBCHEM_IUPAC_CAS_NAME>
2-amino-N-[2-[[(3R)-1-[(4-ethenylphenyl)methyl]-3-pyrrolidinyl]amino]-2-oxoethyl]-5-(trifluoromethyl)benzamide
> <PUBCHEM_IUPAC_NAME_MARKUP>
2-amino-<I>N</I>-[2-[[(3<I>R</I>)-1-[(4-ethenylphenyl)methyl]pyrrolidin-3-yl]amino]-2-oxoethyl]-5-(trifluoromethyl)benzamide
> <PUBCHEM_IUPAC_NAME>
2-amino-N-[2-[[(3R)-1-[(4-ethenylphenyl)methyl]pyrrolidin-3-yl]amino]-2-oxoethyl]-5-(trifluoromethyl)benzamide
> <PUBCHEM_IUPAC_SYSTEMATIC_NAME>
2-azanyl-N-[2-[[(3R)-1-[(4-ethenylphenyl)methyl]pyrrolidin-3-yl]amino]-2-oxidanylidene-ethyl]-5-(trifluoromethyl)benzamide
> <PUBCHEM_IUPAC_TRADITIONAL_NAME>
2-amino-N-[2-keto-2-[[(3R)-1-(4-vinylbenzyl)pyrrolidin-3-yl]amino]ethyl]-5-(trifluoromethyl)benzamide
> <PUBCHEM_IUPAC_INCHI>
InChI=1S/C23H25F3N4O2/c1-2-15-3-5-16(6-4-15)13-30-10-9-18(14-30)29-21(31)12-28-22(32)19-11-17(23(24,25)26)7-8-20(19)27/h2-8,11,18H,1,9-10,12-14,27H2,(H,28,32)(H,29,31)/t18-/m1/s1
> <PUBCHEM_IUPAC_INCHIKEY>
CSUBHSWAYVZCDK-GOSISDBHSA-N
> <PUBCHEM_XLOGP3_AA>
3.8
> <PUBCHEM_EXACT_MASS>
446.19296054
> <PUBCHEM_MOLECULAR_FORMULA>
C23H25F3N4O2
> <PUBCHEM_MOLECULAR_WEIGHT>
446.5
> <PUBCHEM_OPENEYE_CAN_SMILES>
C=CC1=CC=C(C=C1)CN2CCC(C2)NC(=O)CNC(=O)C3=C(C=CC(=C3)C(F)(F)F)N
> <PUBCHEM_OPENEYE_ISO_SMILES>
C=CC1=CC=C(C=C1)CN2CC[C@H](C2)NC(=O)CNC(=O)C3=C(C=CC(=C3)C(F)(F)F)N
> <PUBCHEM_CACTVS_TPSA>
87.5
> <PUBCHEM_MONOISOTOPIC_WEIGHT>
446.19296054
> <PUBCHEM_TOTAL_CHARGE>
0
> <PUBCHEM_HEAVY_ATOM_COUNT>
32
> <PUBCHEM_ATOM_DEF_STEREO_COUNT>
1
> <PUBCHEM_ATOM_UDEF_STEREO_COUNT>
0
> <PUBCHEM_BOND_DEF_STEREO_COUNT>
0
> <PUBCHEM_BOND_UDEF_STEREO_COUNT>
0
> <PUBCHEM_ISOTOPIC_ATOM_COUNT>
0
> <PUBCHEM_COMPONENT_COUNT>
1
> <PUBCHEM_CACTVS_TAUTO_COUNT>
-1
> <PUBCHEM_COORDINATE_TYPE>
1
5
255
> <PUBCHEM_BONDANNOTATIONS>
15  18  8
15  19  8
18  20  8
19  21  8
20  22  8
21  22  8
25  26  8
25  27  8
26  29  8
27  28  8
28  30  8
29  30  8
10  7  5
$$$$
