508837
  -OEChem-10302200282D
 61 64  0     1  0  0  0  0  0999 V2000
    4.5411   -0.4990    0.0000 O   0  0  0  0  0  0  0  0  0  0  0  0
    3.6750    3.0010    0.0000 O   0  0  0  0  0  0  0  0  0  0  0  0
    3.3090   -3.0378    0.0000 N   0  0  3  0  0  0  0  0  0  0  0  0
    2.8090   -0.4990    0.0000 N   0  0  0  0  0  0  0  0  0  0  0  0
    4.5411    1.5010    0.0000 N   0  0  0  0  0  0  0  0  0  0  0  0
    2.8090   -1.4990    0.0000 C   0  0  2  0  0  0  0  0  0  0  0  0
    2.0000   -2.0868    0.0000 C   0  0  0  0  0  0  0  0  0  0  0  0
    3.6180   -2.0868    0.0000 C   0  0  0  0  0  0  0  0  0  0  0  0
    2.3090   -3.0378    0.0000 C   0  0  0  0  0  0  0  0  0  0  0  0
    3.8968   -3.8468    0.0000 C   0  0  0  0  0  0  0  0  0  0  0  0
    3.4901   -4.7604    0.0000 C   0  0  0  0  0  0  0  0  0  0  0  0
    3.6750    0.0010    0.0000 C   0  0  0  0  0  0  0  0  0  0  0  0
    4.0778   -5.5694    0.0000 C   0  0  0  0  0  0  0  0  0  0  0  0
    2.4955   -4.8649    0.0000 C   0  0  0  0  0  0  0  0  0  0  0  0
    3.6750    1.0010    0.0000 C   0  0  0  0  0  0  0  0  0  0  0  0
    3.6711   -6.4830    0.0000 C   0  0  0  0  0  0  0  0  0  0  0  0
    2.0888   -5.7785    0.0000 C   0  0  0  0  0  0  0  0  0  0  0  0
    2.6766   -6.5875    0.0000 C   0  0  0  0  0  0  0  0  0  0  0  0
    2.2699   -7.5010    0.0000 C   0  0  0  0  0  0  0  0  0  0  0  0
    4.5411    2.5010    0.0000 C   0  0  0  0  0  0  0  0  0  0  0  0
    5.4071    3.0010    0.0000 C   0  0  0  0  0  0  0  0  0  0  0  0
    5.4071    4.0010    0.0000 C   0  0  0  0  0  0  0  0  0  0  0  0
    6.2731    4.5010    0.0000 C   0  0  0  0  0  0  0  0  0  0  0  0
    6.2731    2.5010    0.0000 C   0  0  0  0  0  0  0  0  0  0  0  0
    6.2731    5.5010    0.0000 C   0  0  0  0  0  0  0  0  0  0  0  0
    7.1391    4.0010    0.0000 C   0  0  0  0  0  0  0  0  0  0  0  0
    7.1391    3.0010    0.0000 C   0  0  0  0  0  0  0  0  0  0  0  0
    5.4071    6.0010    0.0000 C   0  0  0  0  0  0  0  0  0  0  0  0
    7.1391    6.0010    0.0000 C   0  0  0  0  0  0  0  0  0  0  0  0
    5.4071    7.0010    0.0000 C   0  0  0  0  0  0  0  0  0  0  0  0
    7.1391    7.0010    0.0000 C   0  0  0  0  0  0  0  0  0  0  0  0
    6.2731    7.5010    0.0000 C   0  0  0  0  0  0  0  0  0  0  0  0
    3.3614   -1.2175    0.0000 H   0  0  0  0  0  0  0  0  0  0  0  0
    1.6900   -1.5498    0.0000 H   0  0  0  0  0  0  0  0  0  0  0  0
    1.4336   -2.3389    0.0000 H   0  0  0  0  0  0  0  0  0  0  0  0
    4.1844   -2.3389    0.0000 H   0  0  0  0  0  0  0  0  0  0  0  0
    3.9280   -1.5498    0.0000 H   0  0  0  0  0  0  0  0  0  0  0  0
    1.7026   -3.1667    0.0000 H   0  0  0  0  0  0  0  0  0  0  0  0
    2.3738   -3.6544    0.0000 H   0  0  0  0  0  0  0  0  0  0  0  0
    4.4108   -4.1935    0.0000 H   0  0  0  0  0  0  0  0  0  0  0  0
    4.3275   -3.4008    0.0000 H   0  0  0  0  0  0  0  0  0  0  0  0
    2.2721   -0.1890    0.0000 H   0  0  0  0  0  0  0  0  0  0  0  0
    4.6944   -5.5046    0.0000 H   0  0  0  0  0  0  0  0  0  0  0  0
    2.1311   -4.3633    0.0000 H   0  0  0  0  0  0  0  0  0  0  0  0
    3.4630    1.5836    0.0000 H   0  0  0  0  0  0  0  0  0  0  0  0
    3.0645    0.8934    0.0000 H   0  0  0  0  0  0  0  0  0  0  0  0
    4.0355   -6.9845    0.0000 H   0  0  0  0  0  0  0  0  0  0  0  0
    1.4722   -5.8433    0.0000 H   0  0  0  0  0  0  0  0  0  0  0  0
    5.0780    1.1910    0.0000 H   0  0  0  0  0  0  0  0  0  0  0  0
    1.7035   -7.2488    0.0000 H   0  0  0  0  0  0  0  0  0  0  0  0
    2.0177   -8.0674    0.0000 H   0  0  0  0  0  0  0  0  0  0  0  0
    2.8362   -7.7532    0.0000 H   0  0  0  0  0  0  0  0  0  0  0  0
    4.8702    4.3110    0.0000 H   0  0  0  0  0  0  0  0  0  0  0  0
    6.2731    1.8810    0.0000 H   0  0  0  0  0  0  0  0  0  0  0  0
    7.6761    4.3110    0.0000 H   0  0  0  0  0  0  0  0  0  0  0  0
    7.6761    2.6910    0.0000 H   0  0  0  0  0  0  0  0  0  0  0  0
    4.8702    5.6910    0.0000 H   0  0  0  0  0  0  0  0  0  0  0  0
    7.6761    5.6910    0.0000 H   0  0  0  0  0  0  0  0  0  0  0  0
    4.8702    7.3110    0.0000 H   0  0  0  0  0  0  0  0  0  0  0  0
    7.6761    7.3110    0.0000 H   0  0  0  0  0  0  0  0  0  0  0  0
    6.2731    8.1210    0.0000 H   0  0  0  0  0  0  0  0  0  0  0  0
  1 12  2  0  0  0  0
  2 20  2  0  0  0  0
  3  8  1  0  0  0  0
  3  9  1  0  0  0  0
  3 10  1  0  0  0  0
  6  4  1  1  0  0  0
  4 12  1  0  0  0  0
  4 42  1  0  0  0  0
  5 15  1  0  0  0  0
  5 20  1  0  0  0  0
  5 49  1  0  0  0  0
  6  7  1  0  0  0  0
  6  8  1  0  0  0  0
  6 33  1  0  0  0  0
  7  9  1  0  0  0  0
  7 34  1  0  0  0  0
  7 35  1  0  0  0  0
  8 36  1  0  0  0  0
  8 37  1  0  0  0  0
  9 38  1  0  0  0  0
  9 39  1  0  0  0  0
 10 11  1  0  0  0  0
 10 40  1  0  0  0  0
 10 41  1  0  0  0  0
 11 13  2  0  0  0  0
 11 14  1  0  0  0  0
 12 15  1  0  0  0  0
 13 16  1  0  0  0  0
 13 43  1  0  0  0  0
 14 17  2  0  0  0  0
 14 44  1  0  0  0  0
 15 45  1  0  0  0  0
 15 46  1  0  0  0  0
 16 18  2  0  0  0  0
 16 47  1  0  0  0  0
 17 18  1  0  0  0  0
 17 48  1  0  0  0  0
 18 19  1  0  0  0  0
 19 50  1  0  0  0  0
 19 51  1  0  0  0  0
 19 52  1  0  0  0  0
 20 21  1  0  0  0  0
 21 22  1  0  0  0  0
 21 24  2  0  0  0  0
 22 23  2  0  0  0  0
 22 53  1  0  0  0  0
 23 25  1  0  0  0  0
 23 26  1  0  0  0  0
 24 27  1  0  0  0  0
 24 54  1  0  0  0  0
 25 28  2  0  0  0  0
 25 29  1  0  0  0  0
 26 27  2  0  0  0  0
 26 55  1  0  0  0  0
 27 56  1  0  0  0  0
 28 30  1  0  0  0  0
 28 57  1  0  0  0  0
 29 31  2  0  0  0  0
 29 58  1  0  0  0  0
 30 32  2  0  0  0  0
 30 59  1  0  0  0  0
 31 32  1  0  0  0  0
 31 60  1  0  0  0  0
 32 61  1  0  0  0  0
M  END
> <PUBCHEM_COMPOUND_CID>
508837
> <PUBCHEM_COMPOUND_CANONICALIZED>
1
> <PUBCHEM_CACTVS_COMPLEXITY>
610
> <PUBCHEM_CACTVS_HBOND_ACCEPTOR>
3
> <PUBCHEM_CACTVS_HBOND_DONOR>
2
> <PUBCHEM_CACTVS_ROTATABLE_BOND>
7
> <PUBCHEM_CACTVS_SUBSKEYS>
AAADceB7MAAAAAAAAAAAAAAAAAAAAWAAAAAwYMAAAAAAAAABUAAAHgAQAAAADCjBmAQyAIPAAACIAiFSEACCAAAkAAAIiIGIBMgIYDKA1TGUIQhglgCIiYcYiMCOwAACAAAAAACAAAQAAAAAAAAAAAAAAA==
> <PUBCHEM_IUPAC_OPENEYE_NAME>
N-[2-oxo-2-[[(3R)-1-(p-tolylmethyl)pyrrolidin-3-yl]amino]ethyl]-3-phenyl-benzamide
> <PUBCHEM_IUPAC_CAS_NAME>
N-[2-[[(3R)-1-[(4-methylphenyl)methyl]-3-pyrrolidinyl]amino]-2-oxoethyl]-3-phenylbenzamide
> <PUBCHEM_IUPAC_NAME_MARKUP>
<I>N</I>-[2-[[(3<I>R</I>)-1-[(4-methylphenyl)methyl]pyrrolidin-3-yl]amino]-2-oxoethyl]-3-phenylbenzamide
> <PUBCHEM_IUPAC_NAME>
N-[2-[[(3R)-1-[(4-methylphenyl)methyl]pyrrolidin-3-yl]amino]-2-oxoethyl]-3-phenylbenzamide
> <PUBCHEM_IUPAC_SYSTEMATIC_NAME>
N-[2-[[(3R)-1-[(4-methylphenyl)methyl]pyrrolidin-3-yl]amino]-2-oxidanylidene-ethyl]-3-phenyl-benzamide
> <PUBCHEM_IUPAC_TRADITIONAL_NAME>
N-[2-keto-2-[[(3R)-1-(4-methylbenzyl)pyrrolidin-3-yl]amino]ethyl]-3-phenyl-benzamide
> <PUBCHEM_IUPAC_INCHI>
InChI=1S/C27H29N3O2/c1-20-10-12-21(13-11-20)18-30-15-14-25(19-30)29-26(31)17-28-27(32)24-9-5-8-23(16-24)22-6-3-2-4-7-22/h2-13,16,25H,14-15,17-19H2,1H3,(H,28,32)(H,29,31)/t25-/m1/s1
> <PUBCHEM_IUPAC_INCHIKEY>
UCAZBFQOTAPSMO-RUZDIDTESA-N
> <PUBCHEM_XLOGP3_AA>
4.3
> <PUBCHEM_EXACT_MASS>
427.22597718
> <PUBCHEM_MOLECULAR_FORMULA>
C27H29N3O2
> <PUBCHEM_MOLECULAR_WEIGHT>
427.5
> <PUBCHEM_OPENEYE_CAN_SMILES>
CC1=CC=C(C=C1)CN2CCC(C2)NC(=O)CNC(=O)C3=CC=CC(=C3)C4=CC=CC=C4
> <PUBCHEM_OPENEYE_ISO_SMILES>
CC1=CC=C(C=C1)CN2CC[C@H](C2)NC(=O)CNC(=O)C3=CC=CC(=C3)C4=CC=CC=C4
> <PUBCHEM_CACTVS_TPSA>
61.4
> <PUBCHEM_MONOISOTOPIC_WEIGHT>
427.22597718
> <PUBCHEM_TOTAL_CHARGE>
0
> <PUBCHEM_HEAVY_ATOM_COUNT>
32
> <PUBCHEM_ATOM_DEF_STEREO_COUNT>
1
> <PUBCHEM_ATOM_UDEF_STEREO_COUNT>
0
> <PUBCHEM_BOND_DEF_STEREO_COUNT>
0
> <PUBCHEM_BOND_UDEF_STEREO_COUNT>
0
> <PUBCHEM_ISOTOPIC_ATOM_COUNT>
0
> <PUBCHEM_COMPONENT_COUNT>
1
> <PUBCHEM_CACTVS_TAUTO_COUNT>
-1
> <PUBCHEM_COORDINATE_TYPE>
1
5
255
> <PUBCHEM_BONDANNOTATIONS>
11  13  8
11  14  8
13  16  8
14  17  8
16  18  8
17  18  8
21  22  8
21  24  8
22  23  8
23  26  8
24  27  8
25  28  8
25  29  8
26  27  8
28  30  8
29  31  8
30  32  8
31  32  8
6  4  5
$$$$
