508855
  -OEChem-10302200282D
 75 78  0     1  0  0  0  0  0999 V2000
    6.3301   -3.3693    0.0000 Cl  0  0  0  0  0  0  0  0  0  0  0  0
   11.5263    2.6307    0.0000 O   0  0  0  0  0  0  0  0  0  0  0  0
    8.9282    0.1307    0.0000 O   0  0  0  0  0  0  0  0  0  0  0  0
    2.8660   -1.3693    0.0000 O   0  0  0  0  0  0  0  0  0  0  0  0
    6.3301   -0.3693    0.0000 O   0  0  0  0  0  0  0  0  0  0  0  0
    4.5981   -4.3693    0.0000 O   0  0  0  0  0  0  0  0  0  0  0  0
   14.3410    2.8331    0.0000 N   0  0  3  0  0  0  0  0  0  0  0  0
   12.3923    1.1307    0.0000 N   0  0  0  0  0  0  0  0  0  0  0  0
    9.7942    1.6307    0.0000 N   0  0  0  0  0  0  0  0  0  0  0  0
    5.4641    1.1307    0.0000 N   0  0  0  0  0  0  0  0  0  0  0  0
    4.5981   -0.3693    0.0000 N   0  0  0  0  0  0  0  0  0  0  0  0
   13.2583    1.6307    0.0000 C   0  0  2  0  0  0  0  0  0  0  0  0
   14.1719    1.2240    0.0000 C   0  0  0  0  0  0  0  0  0  0  0  0
   13.3629    2.6252    0.0000 C   0  0  0  0  0  0  0  0  0  0  0  0
   14.8410    1.9671    0.0000 C   0  0  0  0  0  0  0  0  0  0  0  0
   14.7477    3.7467    0.0000 C   0  0  0  0  0  0  0  0  0  0  0  0
   15.7423    3.8512    0.0000 C   0  0  0  0  0  0  0  0  0  0  0  0
   11.5263    1.6307    0.0000 C   0  0  0  0  0  0  0  0  0  0  0  0
   16.3300    3.0422    0.0000 C   0  0  0  0  0  0  0  0  0  0  0  0
   16.1490    4.7648    0.0000 C   0  0  0  0  0  0  0  0  0  0  0  0
   10.6603    1.1307    0.0000 C   0  0  0  0  0  0  0  0  0  0  0  0
   17.3246    3.1467    0.0000 C   0  0  0  0  0  0  0  0  0  0  0  0
   17.1435    4.8693    0.0000 C   0  0  0  0  0  0  0  0  0  0  0  0
   17.7313    4.0603    0.0000 C   0  0  0  0  0  0  0  0  0  0  0  0
   18.7258    4.1648    0.0000 C   0  0  0  0  0  0  0  0  0  0  0  0
    8.9282    1.1307    0.0000 C   0  0  0  0  0  0  0  0  0  0  0  0
    8.0622    1.6307    0.0000 C   0  0  0  0  0  0  0  0  0  0  0  0
    7.1962    1.1307    0.0000 C   0  0  0  0  0  0  0  0  0  0  0  0
    8.0622    2.6307    0.0000 C   0  0  0  0  0  0  0  0  0  0  0  0
    6.3301    1.6307    0.0000 C   0  0  0  0  0  0  0  0  0  0  0  0
    7.1962    3.1307    0.0000 C   0  0  0  0  0  0  0  0  0  0  0  0
    6.3301    2.6307    0.0000 C   0  0  0  0  0  0  0  0  0  0  0  0
    5.4641    0.1307    0.0000 C   0  0  0  0  0  0  0  0  0  0  0  0
    4.5981   -1.3693    0.0000 C   0  0  0  0  0  0  0  0  0  0  0  0
    3.7320   -1.8693    0.0000 C   0  0  0  0  0  0  0  0  0  0  0  0
    5.4641   -1.8693    0.0000 C   0  0  0  0  0  0  0  0  0  0  0  0
    3.7320   -2.8693    0.0000 C   0  0  0  0  0  0  0  0  0  0  0  0
    4.5981   -3.3693    0.0000 C   0  0  0  0  0  0  0  0  0  0  0  0
    5.4641   -2.8693    0.0000 C   0  0  0  0  0  0  0  0  0  0  0  0
    2.0000   -1.8693    0.0000 C   0  0  0  0  0  0  0  0  0  0  0  0
    3.7320   -4.8693    0.0000 C   0  0  0  0  0  0  0  0  0  0  0  0
   13.2908    1.0116    0.0000 H   0  0  0  0  0  0  0  0  0  0  0  0
   13.8619    0.6870    0.0000 H   0  0  0  0  0  0  0  0  0  0  0  0
   14.6735    0.8595    0.0000 H   0  0  0  0  0  0  0  0  0  0  0  0
   13.2981    3.2418    0.0000 H   0  0  0  0  0  0  0  0  0  0  0  0
   12.7429    2.6252    0.0000 H   0  0  0  0  0  0  0  0  0  0  0  0
   15.2559    1.5064    0.0000 H   0  0  0  0  0  0  0  0  0  0  0  0
   15.3426    2.3315    0.0000 H   0  0  0  0  0  0  0  0  0  0  0  0
   14.7910    4.3652    0.0000 H   0  0  0  0  0  0  0  0  0  0  0  0
   14.1462    3.8967    0.0000 H   0  0  0  0  0  0  0  0  0  0  0  0
   12.3923    0.5107    0.0000 H   0  0  0  0  0  0  0  0  0  0  0  0
   16.0779    2.4758    0.0000 H   0  0  0  0  0  0  0  0  0  0  0  0
   15.7846    5.2664    0.0000 H   0  0  0  0  0  0  0  0  0  0  0  0
   10.2617    0.6558    0.0000 H   0  0  0  0  0  0  0  0  0  0  0  0
   11.0588    0.6558    0.0000 H   0  0  0  0  0  0  0  0  0  0  0  0
   17.6890    2.6451    0.0000 H   0  0  0  0  0  0  0  0  0  0  0  0
   17.3957    5.4357    0.0000 H   0  0  0  0  0  0  0  0  0  0  0  0
    9.7942    2.2507    0.0000 H   0  0  0  0  0  0  0  0  0  0  0  0
   18.7906    3.5482    0.0000 H   0  0  0  0  0  0  0  0  0  0  0  0
   19.3424    4.2296    0.0000 H   0  0  0  0  0  0  0  0  0  0  0  0
   18.6610    4.7814    0.0000 H   0  0  0  0  0  0  0  0  0  0  0  0
    7.1962    0.5107    0.0000 H   0  0  0  0  0  0  0  0  0  0  0  0
    8.5991    2.9407    0.0000 H   0  0  0  0  0  0  0  0  0  0  0  0
    7.1962    3.7507    0.0000 H   0  0  0  0  0  0  0  0  0  0  0  0
    5.7932    2.9407    0.0000 H   0  0  0  0  0  0  0  0  0  0  0  0
    4.9272    1.4407    0.0000 H   0  0  0  0  0  0  0  0  0  0  0  0
    4.0611   -0.0593    0.0000 H   0  0  0  0  0  0  0  0  0  0  0  0
    6.0010   -1.5593    0.0000 H   0  0  0  0  0  0  0  0  0  0  0  0
    3.1951   -3.1793    0.0000 H   0  0  0  0  0  0  0  0  0  0  0  0
    1.6900   -1.3324    0.0000 H   0  0  0  0  0  0  0  0  0  0  0  0
    1.4631   -2.1793    0.0000 H   0  0  0  0  0  0  0  0  0  0  0  0
    2.3100   -2.4062    0.0000 H   0  0  0  0  0  0  0  0  0  0  0  0
    3.4220   -4.3324    0.0000 H   0  0  0  0  0  0  0  0  0  0  0  0
    3.1951   -5.1793    0.0000 H   0  0  0  0  0  0  0  0  0  0  0  0
    4.0420   -5.4062    0.0000 H   0  0  0  0  0  0  0  0  0  0  0  0
  1 39  1  0  0  0  0
  2 18  2  0  0  0  0
  3 26  2  0  0  0  0
  4 35  1  0  0  0  0
  4 40  1  0  0  0  0
  5 33  2  0  0  0  0
  6 38  1  0  0  0  0
  6 41  1  0  0  0  0
  7 14  1  0  0  0  0
  7 15  1  0  0  0  0
  7 16  1  0  0  0  0
 12  8  1  1  0  0  0
  8 18  1  0  0  0  0
  8 51  1  0  0  0  0
  9 21  1  0  0  0  0
  9 26  1  0  0  0  0
  9 58  1  0  0  0  0
 10 30  1  0  0  0  0
 10 33  1  0  0  0  0
 10 66  1  0  0  0  0
 11 33  1  0  0  0  0
 11 34  1  0  0  0  0
 11 67  1  0  0  0  0
 12 13  1  0  0  0  0
 12 14  1  0  0  0  0
 12 42  1  0  0  0  0
 13 15  1  0  0  0  0
 13 43  1  0  0  0  0
 13 44  1  0  0  0  0
 14 45  1  0  0  0  0
 14 46  1  0  0  0  0
 15 47  1  0  0  0  0
 15 48  1  0  0  0  0
 16 17  1  0  0  0  0
 16 49  1  0  0  0  0
 16 50  1  0  0  0  0
 17 19  2  0  0  0  0
 17 20  1  0  0  0  0
 18 21  1  0  0  0  0
 19 22  1  0  0  0  0
 19 52  1  0  0  0  0
 20 23  2  0  0  0  0
 20 53  1  0  0  0  0
 21 54  1  0  0  0  0
 21 55  1  0  0  0  0
 22 24  2  0  0  0  0
 22 56  1  0  0  0  0
 23 24  1  0  0  0  0
 23 57  1  0  0  0  0
 24 25  1  0  0  0  0
 25 59  1  0  0  0  0
 25 60  1  0  0  0  0
 25 61  1  0  0  0  0
 26 27  1  0  0  0  0
 27 28  2  0  0  0  0
 27 29  1  0  0  0  0
 28 30  1  0  0  0  0
 28 62  1  0  0  0  0
 29 31  2  0  0  0  0
 29 63  1  0  0  0  0
 30 32  2  0  0  0  0
 31 32  1  0  0  0  0
 31 64  1  0  0  0  0
 32 65  1  0  0  0  0
 34 35  1  0  0  0  0
 34 36  2  0  0  0  0
 35 37  2  0  0  0  0
 36 39  1  0  0  0  0
 36 68  1  0  0  0  0
 37 38  1  0  0  0  0
 37 69  1  0  0  0  0
 38 39  2  0  0  0  0
 40 70  1  0  0  0  0
 40 71  1  0  0  0  0
 40 72  1  0  0  0  0
 41 73  1  0  0  0  0
 41 74  1  0  0  0  0
 41 75  1  0  0  0  0
M  END
> <PUBCHEM_COMPOUND_CID>
508855
> <PUBCHEM_COMPOUND_CANONICALIZED>
1
> <PUBCHEM_CACTVS_COMPLEXITY>
872
> <PUBCHEM_CACTVS_HBOND_ACCEPTOR>
6
> <PUBCHEM_CACTVS_HBOND_DONOR>
4
> <PUBCHEM_CACTVS_ROTATABLE_BOND>
10
> <PUBCHEM_CACTVS_SUBSKEYS>
AAADcfB7uAAEAAAAAAAAAAAAAAAAAWAAAAAwYMAAAAAAAAABUAAAHgIQAAAADC7BmCYzxoPABACIAiVSUACCCAAlJ0AIiIGPb8iOZzPF97uVMSht1hfY6ae86AyOQGAASAIAGACAwACQBAAwAAAAAAAAAA==
> <PUBCHEM_IUPAC_OPENEYE_NAME>
3-[(5-chloro-2,4-dimethoxy-phenyl)carbamoylamino]-N-[2-oxo-2-[[(3R)-1-(p-tolylmethyl)pyrrolidin-3-yl]amino]ethyl]benzamide
> <PUBCHEM_IUPAC_CAS_NAME>
3-[[(5-chloro-2,4-dimethoxyanilino)-oxomethyl]amino]-N-[2-[[(3R)-1-[(4-methylphenyl)methyl]-3-pyrrolidinyl]amino]-2-oxoethyl]benzamide
> <PUBCHEM_IUPAC_NAME_MARKUP>
3-[(5-chloro-2,4-dimethoxyphenyl)carbamoylamino]-<I>N</I>-[2-[[(3<I>R</I>)-1-[(4-methylphenyl)methyl]pyrrolidin-3-yl]amino]-2-oxoethyl]benzamide
> <PUBCHEM_IUPAC_NAME>
3-[(5-chloro-2,4-dimethoxyphenyl)carbamoylamino]-N-[2-[[(3R)-1-[(4-methylphenyl)methyl]pyrrolidin-3-yl]amino]-2-oxoethyl]benzamide
> <PUBCHEM_IUPAC_SYSTEMATIC_NAME>
3-[(5-chloranyl-2,4-dimethoxy-phenyl)carbamoylamino]-N-[2-[[(3R)-1-[(4-methylphenyl)methyl]pyrrolidin-3-yl]amino]-2-oxidanylidene-ethyl]benzamide
> <PUBCHEM_IUPAC_TRADITIONAL_NAME>
3-[(5-chloro-2,4-dimethoxy-phenyl)carbamoylamino]-N-[2-keto-2-[[(3R)-1-(4-methylbenzyl)pyrrolidin-3-yl]amino]ethyl]benzamide
> <PUBCHEM_IUPAC_INCHI>
InChI=1S/C30H34ClN5O5/c1-19-7-9-20(10-8-19)17-36-12-11-23(18-36)33-28(37)16-32-29(38)21-5-4-6-22(13-21)34-30(39)35-25-14-24(31)26(40-2)15-27(25)41-3/h4-10,13-15,23H,11-12,16-18H2,1-3H3,(H,32,38)(H,33,37)(H2,34,35,39)/t23-/m1/s1
> <PUBCHEM_IUPAC_INCHIKEY>
VOLHLCXLSWTBLI-HSZRJFAPSA-N
> <PUBCHEM_XLOGP3_AA>
3.8
> <PUBCHEM_EXACT_MASS>
579.2248469
> <PUBCHEM_MOLECULAR_FORMULA>
C30H34ClN5O5
> <PUBCHEM_MOLECULAR_WEIGHT>
580.1
> <PUBCHEM_OPENEYE_CAN_SMILES>
CC1=CC=C(C=C1)CN2CCC(C2)NC(=O)CNC(=O)C3=CC(=CC=C3)NC(=O)NC4=CC(=C(C=C4OC)OC)Cl
> <PUBCHEM_OPENEYE_ISO_SMILES>
CC1=CC=C(C=C1)CN2CC[C@H](C2)NC(=O)CNC(=O)C3=CC(=CC=C3)NC(=O)NC4=CC(=C(C=C4OC)OC)Cl
> <PUBCHEM_CACTVS_TPSA>
121
> <PUBCHEM_MONOISOTOPIC_WEIGHT>
579.2248469
> <PUBCHEM_TOTAL_CHARGE>
0
> <PUBCHEM_HEAVY_ATOM_COUNT>
41
> <PUBCHEM_ATOM_DEF_STEREO_COUNT>
1
> <PUBCHEM_ATOM_UDEF_STEREO_COUNT>
0
> <PUBCHEM_BOND_DEF_STEREO_COUNT>
0
> <PUBCHEM_BOND_UDEF_STEREO_COUNT>
0
> <PUBCHEM_ISOTOPIC_ATOM_COUNT>
0
> <PUBCHEM_COMPONENT_COUNT>
1
> <PUBCHEM_CACTVS_TAUTO_COUNT>
-1
> <PUBCHEM_COORDINATE_TYPE>
1
5
255
> <PUBCHEM_BONDANNOTATIONS>
17  19  8
17  20  8
19  22  8
20  23  8
22  24  8
23  24  8
27  28  8
27  29  8
28  30  8
29  31  8
30  32  8
31  32  8
34  35  8
34  36  8
35  37  8
36  39  8
37  38  8
38  39  8
12  8  5
$$$$
