508842
  -OEChem-10302200282D
 54 56  0     1  0  0  0  0  0999 V2000
    6.0010   -4.2500    0.0000 S   0  0  0  0  0  0  0  0  0  0  0  0
   10.9337    4.1341    0.0000 O   0  0  0  0  0  0  0  0  0  0  0  0
    6.8671    0.2500    0.0000 O   0  0  0  0  0  0  0  0  0  0  0  0
    3.4030   -0.7500    0.0000 O   0  0  0  0  0  0  0  0  0  0  0  0
    7.9497    3.4524    0.0000 N   0  0  3  0  0  0  0  0  0  0  0  0
    6.0010    1.7500    0.0000 N   0  0  0  0  0  0  0  0  0  0  0  0
   10.8291    5.1286    0.0000 N   0  0  0  0  0  0  0  0  0  0  0  0
    5.1350   -0.7500    0.0000 N   0  0  0  0  0  0  0  0  0  0  0  0
    2.5369   -2.2500    0.0000 N   0  0  0  0  0  0  0  0  0  0  0  0
    6.0010   -6.2500    0.0000 N   0  0  0  0  0  0  0  0  0  0  0  0
    6.8671    2.2500    0.0000 C   0  0  1  0  0  0  0  0  0  0  0  0
    6.9716    3.2445    0.0000 C   0  0  0  0  0  0  0  0  0  0  0  0
    7.7806    1.8432    0.0000 C   0  0  0  0  0  0  0  0  0  0  0  0
    8.4497    2.5864    0.0000 C   0  0  0  0  0  0  0  0  0  0  0  0
    8.3565    4.3659    0.0000 C   0  0  0  0  0  0  0  0  0  0  0  0
    9.3510    4.4705    0.0000 C   0  0  0  0  0  0  0  0  0  0  0  0
    6.0010    0.7500    0.0000 C   0  0  0  0  0  0  0  0  0  0  0  0
   10.0201    3.7273    0.0000 C   0  0  0  0  0  0  0  0  0  0  0  0
    9.8510    5.3365    0.0000 C   0  0  0  0  0  0  0  0  0  0  0  0
    5.1350    0.2500    0.0000 C   0  0  0  0  0  0  0  0  0  0  0  0
    9.8122    2.7492    0.0000 C   0  0  0  0  0  0  0  0  0  0  0  0
    9.4443    6.2500    0.0000 C   0  0  0  0  0  0  0  0  0  0  0  0
    4.2690   -1.2500    0.0000 C   0  0  0  0  0  0  0  0  0  0  0  0
    4.2690   -2.2500    0.0000 C   0  0  0  0  0  0  0  0  0  0  0  0
    3.4030   -2.7500    0.0000 C   0  0  0  0  0  0  0  0  0  0  0  0
    5.1350   -2.7500    0.0000 C   0  0  0  0  0  0  0  0  0  0  0  0
    3.4030   -3.7500    0.0000 C   0  0  0  0  0  0  0  0  0  0  0  0
    5.1350   -3.7500    0.0000 C   0  0  0  0  0  0  0  0  0  0  0  0
    4.2690   -4.2500    0.0000 C   0  0  0  0  0  0  0  0  0  0  0  0
    6.0010   -5.2500    0.0000 C   0  0  0  0  0  0  0  0  0  0  0  0
    6.3471    2.5876    0.0000 H   0  0  0  0  0  0  0  0  0  0  0  0
    6.9068    3.8611    0.0000 H   0  0  0  0  0  0  0  0  0  0  0  0
    6.3516    3.2445    0.0000 H   0  0  0  0  0  0  0  0  0  0  0  0
    7.4706    1.3063    0.0000 H   0  0  0  0  0  0  0  0  0  0  0  0
    8.2822    1.4788    0.0000 H   0  0  0  0  0  0  0  0  0  0  0  0
    8.8646    2.1256    0.0000 H   0  0  0  0  0  0  0  0  0  0  0  0
    8.9513    2.9508    0.0000 H   0  0  0  0  0  0  0  0  0  0  0  0
    8.3997    4.9844    0.0000 H   0  0  0  0  0  0  0  0  0  0  0  0
    7.7549    4.5159    0.0000 H   0  0  0  0  0  0  0  0  0  0  0  0
    5.4641    2.0600    0.0000 H   0  0  0  0  0  0  0  0  0  0  0  0
    4.9230    0.8326    0.0000 H   0  0  0  0  0  0  0  0  0  0  0  0
    4.5244    0.1423    0.0000 H   0  0  0  0  0  0  0  0  0  0  0  0
    9.2058    2.8781    0.0000 H   0  0  0  0  0  0  0  0  0  0  0  0
    9.6833    2.1427    0.0000 H   0  0  0  0  0  0  0  0  0  0  0  0
   10.4187    2.6203    0.0000 H   0  0  0  0  0  0  0  0  0  0  0  0
   10.0107    6.5022    0.0000 H   0  0  0  0  0  0  0  0  0  0  0  0
    9.1921    6.8164    0.0000 H   0  0  0  0  0  0  0  0  0  0  0  0
    8.8779    5.9979    0.0000 H   0  0  0  0  0  0  0  0  0  0  0  0
    5.6720   -1.0600    0.0000 H   0  0  0  0  0  0  0  0  0  0  0  0
    5.6720   -2.4400    0.0000 H   0  0  0  0  0  0  0  0  0  0  0  0
    2.8660   -4.0600    0.0000 H   0  0  0  0  0  0  0  0  0  0  0  0
    4.2690   -4.8700    0.0000 H   0  0  0  0  0  0  0  0  0  0  0  0
    2.0000   -2.5600    0.0000 H   0  0  0  0  0  0  0  0  0  0  0  0
    2.5369   -1.6300    0.0000 H   0  0  0  0  0  0  0  0  0  0  0  0
  1 28  1  0  0  0  0
  1 30  1  0  0  0  0
  2  7  1  0  0  0  0
  2 18  1  0  0  0  0
  3 17  2  0  0  0  0
  4 23  2  0  0  0  0
  5 12  1  0  0  0  0
  5 14  1  0  0  0  0
  5 15  1  0  0  0  0
 11  6  1  1  0  0  0
  6 17  1  0  0  0  0
  6 40  1  0  0  0  0
  7 19  2  0  0  0  0
  8 20  1  0  0  0  0
  8 23  1  0  0  0  0
  8 49  1  0  0  0  0
  9 25  1  0  0  0  0
  9 53  1  0  0  0  0
  9 54  1  0  0  0  0
 10 30  3  0  0  0  0
 11 12  1  0  0  0  0
 11 13  1  0  0  0  0
 11 31  1  0  0  0  0
 12 32  1  0  0  0  0
 12 33  1  0  0  0  0
 13 14  1  0  0  0  0
 13 34  1  0  0  0  0
 13 35  1  0  0  0  0
 14 36  1  0  0  0  0
 14 37  1  0  0  0  0
 15 16  1  0  0  0  0
 15 38  1  0  0  0  0
 15 39  1  0  0  0  0
 16 18  2  0  0  0  0
 16 19  1  0  0  0  0
 17 20  1  0  0  0  0
 18 21  1  0  0  0  0
 19 22  1  0  0  0  0
 20 41  1  0  0  0  0
 20 42  1  0  0  0  0
 21 43  1  0  0  0  0
 21 44  1  0  0  0  0
 21 45  1  0  0  0  0
 22 46  1  0  0  0  0
 22 47  1  0  0  0  0
 22 48  1  0  0  0  0
 23 24  1  0  0  0  0
 24 25  2  0  0  0  0
 24 26  1  0  0  0  0
 25 27  1  0  0  0  0
 26 28  2  0  0  0  0
 26 50  1  0  0  0  0
 27 29  2  0  0  0  0
 27 51  1  0  0  0  0
 28 29  1  0  0  0  0
 29 52  1  0  0  0  0
M  END
> <PUBCHEM_COMPOUND_CID>
508842
> <PUBCHEM_COMPOUND_CANONICALIZED>
1
> <PUBCHEM_CACTVS_COMPLEXITY>
670
> <PUBCHEM_CACTVS_HBOND_ACCEPTOR>
8
> <PUBCHEM_CACTVS_HBOND_DONOR>
3
> <PUBCHEM_CACTVS_ROTATABLE_BOND>
7
> <PUBCHEM_CACTVS_SUBSKEYS>
AAADceB7sABAAAAAAAAAAAAAAAAAAWLAAAAwAAAAAAAAAAABwAAAHgQUAAAADCzB3gQyxZPQAAi5A6VyUgCCAAAkKhAomLm8bNoIZjqg1bOUMYhmlhiIyccYiACOAAQAgAACAAAACAEAAAQAAAAAAAAAAA==
> <PUBCHEM_IUPAC_OPENEYE_NAME>
[4-amino-3-[[2-[[(3R)-1-[(3,5-dimethylisoxazol-4-yl)methyl]pyrrolidin-3-yl]amino]-2-oxo-ethyl]carbamoyl]phenyl] thiocyanate
> <PUBCHEM_IUPAC_CAS_NAME>
thiocyanic acid [4-amino-3-[[[2-[[(3R)-1-[(3,5-dimethyl-4-isoxazolyl)methyl]-3-pyrrolidinyl]amino]-2-oxoethyl]amino]-oxomethyl]phenyl] ester
> <PUBCHEM_IUPAC_NAME_MARKUP>
[4-amino-3-[[2-[[(3<I>R</I>)-1-[(3,5-dimethyl-1,2-oxazol-4-yl)methyl]pyrrolidin-3-yl]amino]-2-oxoethyl]carbamoyl]phenyl] thiocyanate
> <PUBCHEM_IUPAC_NAME>
[4-amino-3-[[2-[[(3R)-1-[(3,5-dimethyl-1,2-oxazol-4-yl)methyl]pyrrolidin-3-yl]amino]-2-oxoethyl]carbamoyl]phenyl] thiocyanate
> <PUBCHEM_IUPAC_SYSTEMATIC_NAME>
[4-azanyl-3-[[2-[[(3R)-1-[(3,5-dimethyl-1,2-oxazol-4-yl)methyl]pyrrolidin-3-yl]amino]-2-oxidanylidene-ethyl]carbamoyl]phenyl] thiocyanate
> <PUBCHEM_IUPAC_TRADITIONAL_NAME>
thiocyanic acid [4-amino-3-[[2-[[(3R)-1-[(3,5-dimethylisoxazol-4-yl)methyl]pyrrolidin-3-yl]amino]-2-keto-ethyl]carbamoyl]phenyl] ester
> <PUBCHEM_IUPAC_INCHI>
InChI=1S/C20H24N6O3S/c1-12-17(13(2)29-25-12)10-26-6-5-14(9-26)24-19(27)8-23-20(28)16-7-15(30-11-21)3-4-18(16)22/h3-4,7,14H,5-6,8-10,22H2,1-2H3,(H,23,28)(H,24,27)/t14-/m1/s1
> <PUBCHEM_IUPAC_INCHIKEY>
LFKMGVHMGOHILA-CQSZACIVSA-N
> <PUBCHEM_XLOGP3_AA>
2
> <PUBCHEM_EXACT_MASS>
428.16305982
> <PUBCHEM_MOLECULAR_FORMULA>
C20H24N6O3S
> <PUBCHEM_MOLECULAR_WEIGHT>
428.5
> <PUBCHEM_OPENEYE_CAN_SMILES>
CC1=C(C(=NO1)C)CN2CCC(C2)NC(=O)CNC(=O)C3=C(C=CC(=C3)SC#N)N
> <PUBCHEM_OPENEYE_ISO_SMILES>
CC1=C(C(=NO1)C)CN2CC[C@H](C2)NC(=O)CNC(=O)C3=C(C=CC(=C3)SC#N)N
> <PUBCHEM_CACTVS_TPSA>
163
> <PUBCHEM_MONOISOTOPIC_WEIGHT>
428.16305982
> <PUBCHEM_TOTAL_CHARGE>
0
> <PUBCHEM_HEAVY_ATOM_COUNT>
30
> <PUBCHEM_ATOM_DEF_STEREO_COUNT>
1
> <PUBCHEM_ATOM_UDEF_STEREO_COUNT>
0
> <PUBCHEM_BOND_DEF_STEREO_COUNT>
0
> <PUBCHEM_BOND_UDEF_STEREO_COUNT>
0
> <PUBCHEM_ISOTOPIC_ATOM_COUNT>
0
> <PUBCHEM_COMPONENT_COUNT>
1
> <PUBCHEM_CACTVS_TAUTO_COUNT>
-1
> <PUBCHEM_COORDINATE_TYPE>
1
5
255
> <PUBCHEM_BONDANNOTATIONS>
16  18  8
16  19  8
2  18  8
2  7  8
24  25  8
24  26  8
25  27  8
26  28  8
27  29  8
28  29  8
11  6  5
7  19  8
$$$$
