508841
  -OEChem-10302200282D
 58 60  0     1  0  0  0  0  0999 V2000
    7.1962   -4.8693    0.0000 Cl  0  0  0  0  0  0  0  0  0  0  0  0
    8.0622   -0.3693    0.0000 O   0  0  0  0  0  0  0  0  0  0  0  0
    4.5981   -1.3693    0.0000 O   0  0  0  0  0  0  0  0  0  0  0  0
    2.8660   -4.3693    0.0000 O   0  0  0  0  0  0  0  0  0  0  0  0
    9.1448    2.8331    0.0000 N   0  0  3  0  0  0  0  0  0  0  0  0
    7.1962    1.1307    0.0000 N   0  0  0  0  0  0  0  0  0  0  0  0
    6.3301   -1.3693    0.0000 N   0  0  0  0  0  0  0  0  0  0  0  0
    3.7320   -2.8693    0.0000 N   0  0  0  0  0  0  0  0  0  0  0  0
    8.0622    1.6307    0.0000 C   0  0  2  0  0  0  0  0  0  0  0  0
    8.9757    1.2240    0.0000 C   0  0  0  0  0  0  0  0  0  0  0  0
    8.1667    2.6252    0.0000 C   0  0  0  0  0  0  0  0  0  0  0  0
    9.6448    1.9671    0.0000 C   0  0  0  0  0  0  0  0  0  0  0  0
    9.5516    3.7467    0.0000 C   0  0  0  0  0  0  0  0  0  0  0  0
   10.5461    3.8512    0.0000 C   0  0  0  0  0  0  0  0  0  0  0  0
    7.1962    0.1307    0.0000 C   0  0  0  0  0  0  0  0  0  0  0  0
   11.1339    3.0422    0.0000 C   0  0  0  0  0  0  0  0  0  0  0  0
   10.9528    4.7648    0.0000 C   0  0  0  0  0  0  0  0  0  0  0  0
    6.3301   -0.3693    0.0000 C   0  0  0  0  0  0  0  0  0  0  0  0
   12.1284    3.1467    0.0000 C   0  0  0  0  0  0  0  0  0  0  0  0
   11.9474    4.8693    0.0000 C   0  0  0  0  0  0  0  0  0  0  0  0
   12.5352    4.0603    0.0000 C   0  0  0  0  0  0  0  0  0  0  0  0
   13.5297    4.1648    0.0000 C   0  0  0  0  0  0  0  0  0  0  0  0
    5.4641   -1.8693    0.0000 C   0  0  0  0  0  0  0  0  0  0  0  0
    5.4641   -2.8693    0.0000 C   0  0  0  0  0  0  0  0  0  0  0  0
    4.5981   -3.3693    0.0000 C   0  0  0  0  0  0  0  0  0  0  0  0
    6.3301   -3.3693    0.0000 C   0  0  0  0  0  0  0  0  0  0  0  0
    4.5981   -4.3693    0.0000 C   0  0  0  0  0  0  0  0  0  0  0  0
    6.3301   -4.3693    0.0000 C   0  0  0  0  0  0  0  0  0  0  0  0
    5.4641   -4.8693    0.0000 C   0  0  0  0  0  0  0  0  0  0  0  0
    2.8660   -3.3693    0.0000 C   0  0  0  0  0  0  0  0  0  0  0  0
    2.0000   -2.8693    0.0000 C   0  0  0  0  0  0  0  0  0  0  0  0
    8.0946    1.0116    0.0000 H   0  0  0  0  0  0  0  0  0  0  0  0
    8.6657    0.6870    0.0000 H   0  0  0  0  0  0  0  0  0  0  0  0
    9.4773    0.8595    0.0000 H   0  0  0  0  0  0  0  0  0  0  0  0
    8.1019    3.2418    0.0000 H   0  0  0  0  0  0  0  0  0  0  0  0
    7.5467    2.6252    0.0000 H   0  0  0  0  0  0  0  0  0  0  0  0
   10.0597    1.5064    0.0000 H   0  0  0  0  0  0  0  0  0  0  0  0
   10.1464    2.3315    0.0000 H   0  0  0  0  0  0  0  0  0  0  0  0
    9.5948    4.3652    0.0000 H   0  0  0  0  0  0  0  0  0  0  0  0
    8.9500    3.8967    0.0000 H   0  0  0  0  0  0  0  0  0  0  0  0
    6.6592    1.4407    0.0000 H   0  0  0  0  0  0  0  0  0  0  0  0
   10.8817    2.4758    0.0000 H   0  0  0  0  0  0  0  0  0  0  0  0
   10.5884    5.2664    0.0000 H   0  0  0  0  0  0  0  0  0  0  0  0
    6.1181    0.2133    0.0000 H   0  0  0  0  0  0  0  0  0  0  0  0
    5.7196   -0.4770    0.0000 H   0  0  0  0  0  0  0  0  0  0  0  0
   12.4928    2.6451    0.0000 H   0  0  0  0  0  0  0  0  0  0  0  0
   12.1995    5.4357    0.0000 H   0  0  0  0  0  0  0  0  0  0  0  0
    6.8671   -1.6793    0.0000 H   0  0  0  0  0  0  0  0  0  0  0  0
   13.5945    3.5482    0.0000 H   0  0  0  0  0  0  0  0  0  0  0  0
   14.1463    4.2296    0.0000 H   0  0  0  0  0  0  0  0  0  0  0  0
   13.4649    4.7814    0.0000 H   0  0  0  0  0  0  0  0  0  0  0  0
    6.8671   -3.0593    0.0000 H   0  0  0  0  0  0  0  0  0  0  0  0
    4.0611   -4.6793    0.0000 H   0  0  0  0  0  0  0  0  0  0  0  0
    3.7320   -2.2493    0.0000 H   0  0  0  0  0  0  0  0  0  0  0  0
    5.4641   -5.4893    0.0000 H   0  0  0  0  0  0  0  0  0  0  0  0
    2.3100   -2.3324    0.0000 H   0  0  0  0  0  0  0  0  0  0  0  0
    1.4631   -2.5593    0.0000 H   0  0  0  0  0  0  0  0  0  0  0  0
    1.6900   -3.4062    0.0000 H   0  0  0  0  0  0  0  0  0  0  0  0
  1 28  1  0  0  0  0
  2 15  2  0  0  0  0
  3 23  2  0  0  0  0
  4 30  2  0  0  0  0
  5 11  1  0  0  0  0
  5 12  1  0  0  0  0
  5 13  1  0  0  0  0
  9  6  1  1  0  0  0
  6 15  1  0  0  0  0
  6 41  1  0  0  0  0
  7 18  1  0  0  0  0
  7 23  1  0  0  0  0
  7 48  1  0  0  0  0
  8 25  1  0  0  0  0
  8 30  1  0  0  0  0
  8 54  1  0  0  0  0
  9 10  1  0  0  0  0
  9 11  1  0  0  0  0
  9 32  1  0  0  0  0
 10 12  1  0  0  0  0
 10 33  1  0  0  0  0
 10 34  1  0  0  0  0
 11 35  1  0  0  0  0
 11 36  1  0  0  0  0
 12 37  1  0  0  0  0
 12 38  1  0  0  0  0
 13 14  1  0  0  0  0
 13 39  1  0  0  0  0
 13 40  1  0  0  0  0
 14 16  2  0  0  0  0
 14 17  1  0  0  0  0
 15 18  1  0  0  0  0
 16 19  1  0  0  0  0
 16 42  1  0  0  0  0
 17 20  2  0  0  0  0
 17 43  1  0  0  0  0
 18 44  1  0  0  0  0
 18 45  1  0  0  0  0
 19 21  2  0  0  0  0
 19 46  1  0  0  0  0
 20 21  1  0  0  0  0
 20 47  1  0  0  0  0
 21 22  1  0  0  0  0
 22 49  1  0  0  0  0
 22 50  1  0  0  0  0
 22 51  1  0  0  0  0
 23 24  1  0  0  0  0
 24 25  2  0  0  0  0
 24 26  1  0  0  0  0
 25 27  1  0  0  0  0
 26 28  2  0  0  0  0
 26 52  1  0  0  0  0
 27 29  2  0  0  0  0
 27 53  1  0  0  0  0
 28 29  1  0  0  0  0
 29 55  1  0  0  0  0
 30 31  1  0  0  0  0
 31 56  1  0  0  0  0
 31 57  1  0  0  0  0
 31 58  1  0  0  0  0
M  END
> <PUBCHEM_COMPOUND_CID>
508841
> <PUBCHEM_COMPOUND_CANONICALIZED>
1
> <PUBCHEM_CACTVS_COMPLEXITY>
638
> <PUBCHEM_CACTVS_HBOND_ACCEPTOR>
4
> <PUBCHEM_CACTVS_HBOND_DONOR>
3
> <PUBCHEM_CACTVS_ROTATABLE_BOND>
7
> <PUBCHEM_CACTVS_SUBSKEYS>
AAADceB7sAAEAAAAAAAAAAAAAAAAAWAAAAAwYAAAAAAAAAABQAAAHgIQAAAADCrBmCQywIPAAACIAiVSUACCAAAlBwAIiIGIZsgIYDrB17GUIYhglgDIyccYiACOQABAIAACAACAAIBAAAQAAAAAAAAAAA==
> <PUBCHEM_IUPAC_OPENEYE_NAME>
2-acetamido-5-chloro-N-[2-oxo-2-[[(3R)-1-(p-tolylmethyl)pyrrolidin-3-yl]amino]ethyl]benzamide
> <PUBCHEM_IUPAC_CAS_NAME>
2-acetamido-5-chloro-N-[2-[[(3R)-1-[(4-methylphenyl)methyl]-3-pyrrolidinyl]amino]-2-oxoethyl]benzamide
> <PUBCHEM_IUPAC_NAME_MARKUP>
2-acetamido-5-chloro-<I>N</I>-[2-[[(3<I>R</I>)-1-[(4-methylphenyl)methyl]pyrrolidin-3-yl]amino]-2-oxoethyl]benzamide
> <PUBCHEM_IUPAC_NAME>
2-acetamido-5-chloro-N-[2-[[(3R)-1-[(4-methylphenyl)methyl]pyrrolidin-3-yl]amino]-2-oxoethyl]benzamide
> <PUBCHEM_IUPAC_SYSTEMATIC_NAME>
2-acetamido-5-chloranyl-N-[2-[[(3R)-1-[(4-methylphenyl)methyl]pyrrolidin-3-yl]amino]-2-oxidanylidene-ethyl]benzamide
> <PUBCHEM_IUPAC_TRADITIONAL_NAME>
2-acetamido-5-chloro-N-[2-keto-2-[[(3R)-1-(4-methylbenzyl)pyrrolidin-3-yl]amino]ethyl]benzamide
> <PUBCHEM_IUPAC_INCHI>
InChI=1S/C23H27ClN4O3/c1-15-3-5-17(6-4-15)13-28-10-9-19(14-28)27-22(30)12-25-23(31)20-11-18(24)7-8-21(20)26-16(2)29/h3-8,11,19H,9-10,12-14H2,1-2H3,(H,25,31)(H,26,29)(H,27,30)/t19-/m1/s1
> <PUBCHEM_IUPAC_INCHIKEY>
KZCHUQNXENIAKX-LJQANCHMSA-N
> <PUBCHEM_XLOGP3_AA>
3
> <PUBCHEM_EXACT_MASS>
442.1771684
> <PUBCHEM_MOLECULAR_FORMULA>
C23H27ClN4O3
> <PUBCHEM_MOLECULAR_WEIGHT>
442.9
> <PUBCHEM_OPENEYE_CAN_SMILES>
CC1=CC=C(C=C1)CN2CCC(C2)NC(=O)CNC(=O)C3=C(C=CC(=C3)Cl)NC(=O)C
> <PUBCHEM_OPENEYE_ISO_SMILES>
CC1=CC=C(C=C1)CN2CC[C@H](C2)NC(=O)CNC(=O)C3=C(C=CC(=C3)Cl)NC(=O)C
> <PUBCHEM_CACTVS_TPSA>
90.5
> <PUBCHEM_MONOISOTOPIC_WEIGHT>
442.1771684
> <PUBCHEM_TOTAL_CHARGE>
0
> <PUBCHEM_HEAVY_ATOM_COUNT>
31
> <PUBCHEM_ATOM_DEF_STEREO_COUNT>
1
> <PUBCHEM_ATOM_UDEF_STEREO_COUNT>
0
> <PUBCHEM_BOND_DEF_STEREO_COUNT>
0
> <PUBCHEM_BOND_UDEF_STEREO_COUNT>
0
> <PUBCHEM_ISOTOPIC_ATOM_COUNT>
0
> <PUBCHEM_COMPONENT_COUNT>
1
> <PUBCHEM_CACTVS_TAUTO_COUNT>
-1
> <PUBCHEM_COORDINATE_TYPE>
1
5
255
> <PUBCHEM_BONDANNOTATIONS>
14  16  8
14  17  8
16  19  8
17  20  8
19  21  8
20  21  8
24  25  8
24  26  8
25  27  8
26  28  8
27  29  8
28  29  8
9  6  5
$$$$
