508939
  -OEChem-10302200282D
 65 67  0     1  0  0  0  0  0999 V2000
   11.1590    5.7591    0.0000 Cl  0  0  0  0  0  0  0  0  0  0  0  0
   12.3346    4.1410    0.0000 Cl  0  0  0  0  0  0  0  0  0  0  0  0
    3.4030    1.6070    0.0000 S   0  0  0  0  0  0  0  0  0  0  0  0
    6.8671   -5.3930    0.0000 F   0  0  0  0  0  0  0  0  0  0  0  0
    5.5010   -5.7591    0.0000 F   0  0  0  0  0  0  0  0  0  0  0  0
    6.5010   -4.0270    0.0000 F   0  0  0  0  0  0  0  0  0  0  0  0
    6.8671   -0.3931    0.0000 O   0  0  0  0  0  0  0  0  0  0  0  0
    3.9030    2.4730    0.0000 O   0  0  0  0  0  0  0  0  0  0  0  0
    2.9030    0.7409    0.0000 O   0  0  0  0  0  0  0  0  0  0  0  0
    3.4030   -1.3930    0.0000 O   0  0  0  0  0  0  0  0  0  0  0  0
    7.9497    2.8094    0.0000 N   0  0  3  0  0  0  0  0  0  0  0  0
    6.0010    1.1070    0.0000 N   0  0  0  0  0  0  0  0  0  0  0  0
    5.1350   -1.3930    0.0000 N   0  0  0  0  0  0  0  0  0  0  0  0
    2.5369   -2.8930    0.0000 N   0  0  0  0  0  0  0  0  0  0  0  0
    6.8671    1.6070    0.0000 C   0  0  2  0  0  0  0  0  0  0  0  0
    7.7806    1.2002    0.0000 C   0  0  0  0  0  0  0  0  0  0  0  0
    6.9716    2.6015    0.0000 C   0  0  0  0  0  0  0  0  0  0  0  0
    8.4497    1.9434    0.0000 C   0  0  0  0  0  0  0  0  0  0  0  0
    8.3565    3.7229    0.0000 C   0  0  0  0  0  0  0  0  0  0  0  0
    6.0010    0.1069    0.0000 C   0  0  0  0  0  0  0  0  0  0  0  0
    5.1350   -0.3931    0.0000 C   0  0  2  0  0  0  0  0  0  0  0  0
    9.3510    3.8275    0.0000 C   0  0  0  0  0  0  0  0  0  0  0  0
    4.2690    0.1069    0.0000 C   0  0  0  0  0  0  0  0  0  0  0  0
    4.2690    1.1070    0.0000 C   0  0  0  0  0  0  0  0  0  0  0  0
    9.7577    4.7410    0.0000 C   0  0  0  0  0  0  0  0  0  0  0  0
    9.9388    3.0184    0.0000 C   0  0  0  0  0  0  0  0  0  0  0  0
    4.2690   -1.8930    0.0000 C   0  0  0  0  0  0  0  0  0  0  0  0
   10.7523    4.8455    0.0000 C   0  0  0  0  0  0  0  0  0  0  0  0
   10.9333    3.1230    0.0000 C   0  0  0  0  0  0  0  0  0  0  0  0
    2.5369    2.1070    0.0000 C   0  0  0  0  0  0  0  0  0  0  0  0
   11.3400    4.0365    0.0000 C   0  0  0  0  0  0  0  0  0  0  0  0
    4.2690   -2.8930    0.0000 C   0  0  0  0  0  0  0  0  0  0  0  0
    3.4030   -3.3930    0.0000 C   0  0  0  0  0  0  0  0  0  0  0  0
    5.1350   -3.3930    0.0000 C   0  0  0  0  0  0  0  0  0  0  0  0
    5.1350   -4.3930    0.0000 C   0  0  0  0  0  0  0  0  0  0  0  0
    3.4030   -4.3930    0.0000 C   0  0  0  0  0  0  0  0  0  0  0  0
    4.2690   -4.8930    0.0000 C   0  0  0  0  0  0  0  0  0  0  0  0
    6.0010   -4.8930    0.0000 C   0  0  0  0  0  0  0  0  0  0  0  0
    6.3471    1.9446    0.0000 H   0  0  0  0  0  0  0  0  0  0  0  0
    7.4706    0.6633    0.0000 H   0  0  0  0  0  0  0  0  0  0  0  0
    8.2822    0.8358    0.0000 H   0  0  0  0  0  0  0  0  0  0  0  0
    6.9068    3.2181    0.0000 H   0  0  0  0  0  0  0  0  0  0  0  0
    6.3516    2.6015    0.0000 H   0  0  0  0  0  0  0  0  0  0  0  0
    8.8646    1.4826    0.0000 H   0  0  0  0  0  0  0  0  0  0  0  0
    8.9513    2.3078    0.0000 H   0  0  0  0  0  0  0  0  0  0  0  0
    5.4641    1.4170    0.0000 H   0  0  0  0  0  0  0  0  0  0  0  0
    8.3997    4.3414    0.0000 H   0  0  0  0  0  0  0  0  0  0  0  0
    7.7549    3.8729    0.0000 H   0  0  0  0  0  0  0  0  0  0  0  0
    5.6720   -0.7031    0.0000 H   0  0  0  0  0  0  0  0  0  0  0  0
    3.6584    0.2146    0.0000 H   0  0  0  0  0  0  0  0  0  0  0  0
    4.0569   -0.4757    0.0000 H   0  0  0  0  0  0  0  0  0  0  0  0
    4.8796    0.9993    0.0000 H   0  0  0  0  0  0  0  0  0  0  0  0
    4.4810    1.6896    0.0000 H   0  0  0  0  0  0  0  0  0  0  0  0
    5.6720   -1.7030    0.0000 H   0  0  0  0  0  0  0  0  0  0  0  0
    9.3933    5.2426    0.0000 H   0  0  0  0  0  0  0  0  0  0  0  0
    9.6866    2.4520    0.0000 H   0  0  0  0  0  0  0  0  0  0  0  0
   11.2977    2.6214    0.0000 H   0  0  0  0  0  0  0  0  0  0  0  0
    2.8469    2.6439    0.0000 H   0  0  0  0  0  0  0  0  0  0  0  0
    2.0000    2.4170    0.0000 H   0  0  0  0  0  0  0  0  0  0  0  0
    2.2269    1.5700    0.0000 H   0  0  0  0  0  0  0  0  0  0  0  0
    5.6720   -3.0830    0.0000 H   0  0  0  0  0  0  0  0  0  0  0  0
    2.8660   -4.7030    0.0000 H   0  0  0  0  0  0  0  0  0  0  0  0
    4.2690   -5.5130    0.0000 H   0  0  0  0  0  0  0  0  0  0  0  0
    2.0000   -3.2030    0.0000 H   0  0  0  0  0  0  0  0  0  0  0  0
    2.5369   -2.2730    0.0000 H   0  0  0  0  0  0  0  0  0  0  0  0
  1 28  1  0  0  0  0
  2 31  1  0  0  0  0
  3  8  2  0  0  0  0
  3  9  2  0  0  0  0
  3 24  1  0  0  0  0
  3 30  1  0  0  0  0
  4 38  1  0  0  0  0
  5 38  1  0  0  0  0
  6 38  1  0  0  0  0
  7 20  2  0  0  0  0
 10 27  2  0  0  0  0
 11 17  1  0  0  0  0
 11 18  1  0  0  0  0
 11 19  1  0  0  0  0
 15 12  1  1  0  0  0
 12 20  1  0  0  0  0
 12 46  1  0  0  0  0
 21 13  1  1  0  0  0
 13 27  1  0  0  0  0
 13 54  1  0  0  0  0
 14 33  1  0  0  0  0
 14 64  1  0  0  0  0
 14 65  1  0  0  0  0
 15 16  1  0  0  0  0
 15 17  1  0  0  0  0
 15 39  1  0  0  0  0
 16 18  1  0  0  0  0
 16 40  1  0  0  0  0
 16 41  1  0  0  0  0
 17 42  1  0  0  0  0
 17 43  1  0  0  0  0
 18 44  1  0  0  0  0
 18 45  1  0  0  0  0
 19 22  1  0  0  0  0
 19 47  1  0  0  0  0
 19 48  1  0  0  0  0
 20 21  1  0  0  0  0
 21 23  1  0  0  0  0
 21 49  1  0  0  0  0
 22 25  2  0  0  0  0
 22 26  1  0  0  0  0
 23 24  1  0  0  0  0
 23 50  1  0  0  0  0
 23 51  1  0  0  0  0
 24 52  1  0  0  0  0
 24 53  1  0  0  0  0
 25 28  1  0  0  0  0
 25 55  1  0  0  0  0
 26 29  2  0  0  0  0
 26 56  1  0  0  0  0
 27 32  1  0  0  0  0
 28 31  2  0  0  0  0
 29 31  1  0  0  0  0
 29 57  1  0  0  0  0
 30 58  1  0  0  0  0
 30 59  1  0  0  0  0
 30 60  1  0  0  0  0
 32 33  2  0  0  0  0
 32 34  1  0  0  0  0
 33 36  1  0  0  0  0
 34 35  2  0  0  0  0
 34 61  1  0  0  0  0
 35 37  1  0  0  0  0
 35 38  1  0  0  0  0
 36 37  2  0  0  0  0
 36 62  1  0  0  0  0
 37 63  1  0  0  0  0
M  END
> <PUBCHEM_COMPOUND_CID>
508939
> <PUBCHEM_COMPOUND_CANONICALIZED>
1
> <PUBCHEM_CACTVS_COMPLEXITY>
937
> <PUBCHEM_CACTVS_HBOND_ACCEPTOR>
9
> <PUBCHEM_CACTVS_HBOND_DONOR>
3
> <PUBCHEM_CACTVS_ROTATABLE_BOND>
9
> <PUBCHEM_CACTVS_SUBSKEYS>
AAADceB7uYBGAAAAAAAAAAAAAAAAAWAAAAAwYAAAAAAAAAABQAAAHwYQAAAADCrF2DSywIPAAAqIAiVSUHDCAAAkBxAIisGIZsgIYDqh17GUIYhglgCIyccYiECODAACIAACAAQYAARAAAQACAAAAAAAAA==
> <PUBCHEM_IUPAC_OPENEYE_NAME>
2-amino-N-[(1S)-1-[[(3R)-1-[(3,4-dichlorophenyl)methyl]pyrrolidin-3-yl]carbamoyl]-3-methylsulfonyl-propyl]-5-(trifluoromethyl)benzamide
> <PUBCHEM_IUPAC_CAS_NAME>
2-amino-N-[(2S)-1-[[(3R)-1-[(3,4-dichlorophenyl)methyl]-3-pyrrolidinyl]amino]-4-methylsulfonyl-1-oxobutan-2-yl]-5-(trifluoromethyl)benzamide
> <PUBCHEM_IUPAC_NAME_MARKUP>
2-amino-<I>N</I>-[(2<I>S</I>)-1-[[(3<I>R</I>)-1-[(3,4-dichlorophenyl)methyl]pyrrolidin-3-yl]amino]-4-methylsulfonyl-1-oxobutan-2-yl]-5-(trifluoromethyl)benzamide
> <PUBCHEM_IUPAC_NAME>
2-amino-N-[(2S)-1-[[(3R)-1-[(3,4-dichlorophenyl)methyl]pyrrolidin-3-yl]amino]-4-methylsulfonyl-1-oxobutan-2-yl]-5-(trifluoromethyl)benzamide
> <PUBCHEM_IUPAC_SYSTEMATIC_NAME>
2-azanyl-N-[(2S)-1-[[(3R)-1-[(3,4-dichlorophenyl)methyl]pyrrolidin-3-yl]amino]-4-methylsulfonyl-1-oxidanylidene-butan-2-yl]-5-(trifluoromethyl)benzamide
> <PUBCHEM_IUPAC_TRADITIONAL_NAME>
2-amino-N-[(1S)-1-[[(3R)-1-(3,4-dichlorobenzyl)pyrrolidin-3-yl]carbamoyl]-3-mesyl-propyl]-5-(trifluoromethyl)benzamide
> <PUBCHEM_IUPAC_INCHI>
InChI=1S/C24H27Cl2F3N4O4S/c1-38(36,37)9-7-21(32-22(34)17-11-15(24(27,28)29)3-5-20(17)30)23(35)31-16-6-8-33(13-16)12-14-2-4-18(25)19(26)10-14/h2-5,10-11,16,21H,6-9,12-13,30H2,1H3,(H,31,35)(H,32,34)/t16-,21+/m1/s1
> <PUBCHEM_IUPAC_INCHIKEY>
MLHOXPVUMYKTDD-IERDGZPVSA-N
> <PUBCHEM_XLOGP3_AA>
4.1
> <PUBCHEM_EXACT_MASS>
594.1082164
> <PUBCHEM_MOLECULAR_FORMULA>
C24H27Cl2F3N4O4S
> <PUBCHEM_MOLECULAR_WEIGHT>
595.5
> <PUBCHEM_OPENEYE_CAN_SMILES>
CS(=O)(=O)CCC(C(=O)NC1CCN(C1)CC2=CC(=C(C=C2)Cl)Cl)NC(=O)C3=C(C=CC(=C3)C(F)(F)F)N
> <PUBCHEM_OPENEYE_ISO_SMILES>
CS(=O)(=O)CC[C@@H](C(=O)N[C@@H]1CCN(C1)CC2=CC(=C(C=C2)Cl)Cl)NC(=O)C3=C(C=CC(=C3)C(F)(F)F)N
> <PUBCHEM_CACTVS_TPSA>
130
> <PUBCHEM_MONOISOTOPIC_WEIGHT>
594.1082164
> <PUBCHEM_TOTAL_CHARGE>
0
> <PUBCHEM_HEAVY_ATOM_COUNT>
38
> <PUBCHEM_ATOM_DEF_STEREO_COUNT>
2
> <PUBCHEM_ATOM_UDEF_STEREO_COUNT>
0
> <PUBCHEM_BOND_DEF_STEREO_COUNT>
0
> <PUBCHEM_BOND_UDEF_STEREO_COUNT>
0
> <PUBCHEM_ISOTOPIC_ATOM_COUNT>
0
> <PUBCHEM_COMPONENT_COUNT>
1
> <PUBCHEM_CACTVS_TAUTO_COUNT>
-1
> <PUBCHEM_COORDINATE_TYPE>
1
5
255
> <PUBCHEM_BONDANNOTATIONS>
15  12  5
21  13  5
22  25  8
22  26  8
25  28  8
26  29  8
28  31  8
29  31  8
32  33  8
32  34  8
33  36  8
34  35  8
35  37  8
36  37  8
$$$$
