508963
  -OEChem-10302200282D
 69 71  0     1  0  0  0  0  0999 V2000
   10.3312    4.6830    0.0000 Cl  0  0  0  0  0  0  0  0  0  0  0  0
   10.3312    6.6830    0.0000 Cl  0  0  0  0  0  0  0  0  0  0  0  0
    6.8671   -6.3170    0.0000 F   0  0  0  0  0  0  0  0  0  0  0  0
    5.5010   -6.6830    0.0000 F   0  0  0  0  0  0  0  0  0  0  0  0
    6.5010   -4.9510    0.0000 F   0  0  0  0  0  0  0  0  0  0  0  0
    6.8671   -1.3170    0.0000 O   0  0  0  0  0  0  0  0  0  0  0  0
    3.4030   -2.3170    0.0000 O   0  0  0  0  0  0  0  0  0  0  0  0
    2.5369    0.1830    0.0000 O   0  0  0  0  0  0  0  0  0  0  0  0
    6.8671    3.6830    0.0000 N   0  0  0  0  0  0  0  0  0  0  0  0
    6.0010    0.1830    0.0000 N   0  0  0  0  0  0  0  0  0  0  0  0
    5.1350   -2.3170    0.0000 N   0  0  0  0  0  0  0  0  0  0  0  0
    3.4030    1.6830    0.0000 N   0  0  0  0  0  0  0  0  0  0  0  0
    2.5369   -3.8170    0.0000 N   0  0  0  0  0  0  0  0  0  0  0  0
    6.8671    1.6830    0.0000 C   0  0  0  0  0  0  0  0  0  0  0  0
    6.0010    2.1830    0.0000 C   0  0  0  0  0  0  0  0  0  0  0  0
    7.7331    2.1830    0.0000 C   0  0  0  0  0  0  0  0  0  0  0  0
    6.0010    3.1830    0.0000 C   0  0  0  0  0  0  0  0  0  0  0  0
    7.7331    3.1830    0.0000 C   0  0  0  0  0  0  0  0  0  0  0  0
    6.8671    0.6830    0.0000 C   0  0  0  0  0  0  0  0  0  0  0  0
    6.8671    4.6830    0.0000 C   0  0  0  0  0  0  0  0  0  0  0  0
    7.7331    5.1830    0.0000 C   0  0  0  0  0  0  0  0  0  0  0  0
    6.0010   -0.8170    0.0000 C   0  0  0  0  0  0  0  0  0  0  0  0
    5.1350   -1.3170    0.0000 C   0  0  2  0  0  0  0  0  0  0  0  0
    4.2690   -0.8170    0.0000 C   0  0  0  0  0  0  0  0  0  0  0  0
    8.5991    4.6830    0.0000 C   0  0  0  0  0  0  0  0  0  0  0  0
    7.7331    6.1830    0.0000 C   0  0  0  0  0  0  0  0  0  0  0  0
    4.2690    0.1830    0.0000 C   0  0  0  0  0  0  0  0  0  0  0  0
    9.4651    5.1830    0.0000 C   0  0  0  0  0  0  0  0  0  0  0  0
    8.5991    6.6830    0.0000 C   0  0  0  0  0  0  0  0  0  0  0  0
    9.4651    6.1830    0.0000 C   0  0  0  0  0  0  0  0  0  0  0  0
    4.2690   -2.8170    0.0000 C   0  0  0  0  0  0  0  0  0  0  0  0
    3.4030    0.6830    0.0000 C   0  0  0  0  0  0  0  0  0  0  0  0
    4.2690   -3.8170    0.0000 C   0  0  0  0  0  0  0  0  0  0  0  0
    3.4030   -4.3170    0.0000 C   0  0  0  0  0  0  0  0  0  0  0  0
    5.1350   -4.3170    0.0000 C   0  0  0  0  0  0  0  0  0  0  0  0
    5.1350   -5.3170    0.0000 C   0  0  0  0  0  0  0  0  0  0  0  0
    3.4030   -5.3170    0.0000 C   0  0  0  0  0  0  0  0  0  0  0  0
    4.2690   -5.8170    0.0000 C   0  0  0  0  0  0  0  0  0  0  0  0
    6.0010   -5.8170    0.0000 C   0  0  0  0  0  0  0  0  0  0  0  0
    6.3301    1.3730    0.0000 H   0  0  0  0  0  0  0  0  0  0  0  0
    5.3905    2.2907    0.0000 H   0  0  0  0  0  0  0  0  0  0  0  0
    5.7890    1.6004    0.0000 H   0  0  0  0  0  0  0  0  0  0  0  0
    7.9451    1.6004    0.0000 H   0  0  0  0  0  0  0  0  0  0  0  0
    8.3437    2.2907    0.0000 H   0  0  0  0  0  0  0  0  0  0  0  0
    5.7890    3.7656    0.0000 H   0  0  0  0  0  0  0  0  0  0  0  0
    5.3905    3.0753    0.0000 H   0  0  0  0  0  0  0  0  0  0  0  0
    8.3437    3.0753    0.0000 H   0  0  0  0  0  0  0  0  0  0  0  0
    7.9451    3.7656    0.0000 H   0  0  0  0  0  0  0  0  0  0  0  0
    7.0791    0.1004    0.0000 H   0  0  0  0  0  0  0  0  0  0  0  0
    7.4776    0.7907    0.0000 H   0  0  0  0  0  0  0  0  0  0  0  0
    6.6550    5.2656    0.0000 H   0  0  0  0  0  0  0  0  0  0  0  0
    6.2565    4.5754    0.0000 H   0  0  0  0  0  0  0  0  0  0  0  0
    5.4641    0.4930    0.0000 H   0  0  0  0  0  0  0  0  0  0  0  0
    5.6720   -1.6270    0.0000 H   0  0  0  0  0  0  0  0  0  0  0  0
    3.6584   -0.7093    0.0000 H   0  0  0  0  0  0  0  0  0  0  0  0
    4.0569   -1.3996    0.0000 H   0  0  0  0  0  0  0  0  0  0  0  0
    8.5991    4.0630    0.0000 H   0  0  0  0  0  0  0  0  0  0  0  0
    7.1962    6.4930    0.0000 H   0  0  0  0  0  0  0  0  0  0  0  0
    5.6720   -2.6270    0.0000 H   0  0  0  0  0  0  0  0  0  0  0  0
    4.8796    0.0754    0.0000 H   0  0  0  0  0  0  0  0  0  0  0  0
    4.4810    0.7656    0.0000 H   0  0  0  0  0  0  0  0  0  0  0  0
    8.5991    7.3030    0.0000 H   0  0  0  0  0  0  0  0  0  0  0  0
    5.6720   -4.0070    0.0000 H   0  0  0  0  0  0  0  0  0  0  0  0
    2.8660    1.9930    0.0000 H   0  0  0  0  0  0  0  0  0  0  0  0
    3.9399    1.9930    0.0000 H   0  0  0  0  0  0  0  0  0  0  0  0
    2.8660   -5.6270    0.0000 H   0  0  0  0  0  0  0  0  0  0  0  0
    4.2690   -6.4370    0.0000 H   0  0  0  0  0  0  0  0  0  0  0  0
    2.0000   -4.1270    0.0000 H   0  0  0  0  0  0  0  0  0  0  0  0
    2.5369   -3.1970    0.0000 H   0  0  0  0  0  0  0  0  0  0  0  0
  1 28  1  0  0  0  0
  2 30  1  0  0  0  0
  3 39  1  0  0  0  0
  4 39  1  0  0  0  0
  5 39  1  0  0  0  0
  6 22  2  0  0  0  0
  7 31  2  0  0  0  0
  8 32  2  0  0  0  0
  9 17  1  0  0  0  0
  9 18  1  0  0  0  0
  9 20  1  0  0  0  0
 10 19  1  0  0  0  0
 10 22  1  0  0  0  0
 10 53  1  0  0  0  0
 23 11  1  1  0  0  0
 11 31  1  0  0  0  0
 11 59  1  0  0  0  0
 12 32  1  0  0  0  0
 12 64  1  0  0  0  0
 12 65  1  0  0  0  0
 13 34  1  0  0  0  0
 13 68  1  0  0  0  0
 13 69  1  0  0  0  0
 14 15  1  0  0  0  0
 14 16  1  0  0  0  0
 14 19  1  0  0  0  0
 14 40  1  0  0  0  0
 15 17  1  0  0  0  0
 15 41  1  0  0  0  0
 15 42  1  0  0  0  0
 16 18  1  0  0  0  0
 16 43  1  0  0  0  0
 16 44  1  0  0  0  0
 17 45  1  0  0  0  0
 17 46  1  0  0  0  0
 18 47  1  0  0  0  0
 18 48  1  0  0  0  0
 19 49  1  0  0  0  0
 19 50  1  0  0  0  0
 20 21  1  0  0  0  0
 20 51  1  0  0  0  0
 20 52  1  0  0  0  0
 21 25  2  0  0  0  0
 21 26  1  0  0  0  0
 22 23  1  0  0  0  0
 23 24  1  0  0  0  0
 23 54  1  0  0  0  0
 24 27  1  0  0  0  0
 24 55  1  0  0  0  0
 24 56  1  0  0  0  0
 25 28  1  0  0  0  0
 25 57  1  0  0  0  0
 26 29  2  0  0  0  0
 26 58  1  0  0  0  0
 27 32  1  0  0  0  0
 27 60  1  0  0  0  0
 27 61  1  0  0  0  0
 28 30  2  0  0  0  0
 29 30  1  0  0  0  0
 29 62  1  0  0  0  0
 31 33  1  0  0  0  0
 33 34  2  0  0  0  0
 33 35  1  0  0  0  0
 34 37  1  0  0  0  0
 35 36  2  0  0  0  0
 35 63  1  0  0  0  0
 36 38  1  0  0  0  0
 36 39  1  0  0  0  0
 37 38  2  0  0  0  0
 37 66  1  0  0  0  0
 38 67  1  0  0  0  0
M  END
> <PUBCHEM_COMPOUND_CID>
508963
> <PUBCHEM_COMPOUND_CANONICALIZED>
1
> <PUBCHEM_CACTVS_COMPLEXITY>
844
> <PUBCHEM_CACTVS_HBOND_ACCEPTOR>
8
> <PUBCHEM_CACTVS_HBOND_DONOR>
4
> <PUBCHEM_CACTVS_ROTATABLE_BOND>
10
> <PUBCHEM_CACTVS_SUBSKEYS>
AAADceB7sYAGAAAAAAAAAAAAAAAAAAAAAAA8YIAAAAAAAAABQAAAHwIQAAAADSrBmDQwwIPAAACIAiVSUACCAAAkBwAIisGIZsgIYDqB17GUIYhglgCIyccci0CODAACIAACAAQYAARAAAQACAAAAAAAAA==
> <PUBCHEM_IUPAC_OPENEYE_NAME>
(2S)-2-[[2-amino-5-(trifluoromethyl)benzoyl]amino]-N-[[1-[(3,4-dichlorophenyl)methyl]-4-piperidyl]methyl]pentanediamide
> <PUBCHEM_IUPAC_CAS_NAME>
(2S)-2-[[[2-amino-5-(trifluoromethyl)phenyl]-oxomethyl]amino]-N-[[1-[(3,4-dichlorophenyl)methyl]-4-piperidinyl]methyl]pentanediamide
> <PUBCHEM_IUPAC_NAME_MARKUP>
(2<I>S</I>)-2-[[2-amino-5-(trifluoromethyl)benzoyl]amino]-<I>N</I>-[[1-[(3,4-dichlorophenyl)methyl]piperidin-4-yl]methyl]pentanediamide
> <PUBCHEM_IUPAC_NAME>
(2S)-2-[[2-amino-5-(trifluoromethyl)benzoyl]amino]-N-[[1-[(3,4-dichlorophenyl)methyl]piperidin-4-yl]methyl]pentanediamide
> <PUBCHEM_IUPAC_SYSTEMATIC_NAME>
(2S)-2-[[2-azanyl-5-(trifluoromethyl)phenyl]carbonylamino]-N-[[1-[(3,4-dichlorophenyl)methyl]piperidin-4-yl]methyl]pentanediamide
> <PUBCHEM_IUPAC_TRADITIONAL_NAME>
(2S)-2-[[2-amino-5-(trifluoromethyl)benzoyl]amino]-N-[[1-(3,4-dichlorobenzyl)-4-piperidyl]methyl]glutaramide
> <PUBCHEM_IUPAC_INCHI>
InChI=1S/C26H30Cl2F3N5O3/c27-19-3-1-16(11-20(19)28)14-36-9-7-15(8-10-36)13-34-25(39)22(5-6-23(33)37)35-24(38)18-12-17(26(29,30)31)2-4-21(18)32/h1-4,11-12,15,22H,5-10,13-14,32H2,(H2,33,37)(H,34,39)(H,35,38)/t22-/m0/s1
> <PUBCHEM_IUPAC_INCHIKEY>
PEVUJUZOXXFLJG-QFIPXVFZSA-N
> <PUBCHEM_XLOGP3_AA>
4.1
> <PUBCHEM_EXACT_MASS>
587.1677797
> <PUBCHEM_MOLECULAR_FORMULA>
C26H30Cl2F3N5O3
> <PUBCHEM_MOLECULAR_WEIGHT>
588.4
> <PUBCHEM_OPENEYE_CAN_SMILES>
C1CN(CCC1CNC(=O)C(CCC(=O)N)NC(=O)C2=C(C=CC(=C2)C(F)(F)F)N)CC3=CC(=C(C=C3)Cl)Cl
> <PUBCHEM_OPENEYE_ISO_SMILES>
C1CN(CCC1CNC(=O)[C@H](CCC(=O)N)NC(=O)C2=C(C=CC(=C2)C(F)(F)F)N)CC3=CC(=C(C=C3)Cl)Cl
> <PUBCHEM_CACTVS_TPSA>
131
> <PUBCHEM_MONOISOTOPIC_WEIGHT>
587.1677797
> <PUBCHEM_TOTAL_CHARGE>
0
> <PUBCHEM_HEAVY_ATOM_COUNT>
39
> <PUBCHEM_ATOM_DEF_STEREO_COUNT>
1
> <PUBCHEM_ATOM_UDEF_STEREO_COUNT>
0
> <PUBCHEM_BOND_DEF_STEREO_COUNT>
0
> <PUBCHEM_BOND_UDEF_STEREO_COUNT>
0
> <PUBCHEM_ISOTOPIC_ATOM_COUNT>
0
> <PUBCHEM_COMPONENT_COUNT>
1
> <PUBCHEM_CACTVS_TAUTO_COUNT>
-1
> <PUBCHEM_COORDINATE_TYPE>
1
5
255
> <PUBCHEM_BONDANNOTATIONS>
23  11  5
21  25  8
21  26  8
25  28  8
26  29  8
28  30  8
29  30  8
33  34  8
33  35  8
34  37  8
35  36  8
36  38  8
37  38  8
$$$$
