508912
  -OEChem-10302200282D
 73 75  0     1  0  0  0  0  0999 V2000
    2.0000    7.0000    0.0000 Cl  0  0  0  0  0  0  0  0  0  0  0  0
    5.4641   -1.0000    0.0000 O   0  0  0  0  0  0  0  0  0  0  0  0
    5.4641   -2.0000    0.0000 O   0  0  0  0  0  0  0  0  0  0  0  0
    4.5981   -5.5000    0.0000 O   0  0  0  0  0  0  0  0  0  0  0  0
    5.4641    4.0000    0.0000 N   0  0  0  0  0  0  0  0  0  0  0  0
    6.3301    0.5000    0.0000 N   0  0  0  0  0  0  0  0  0  0  0  0
    7.1962   -2.0000    0.0000 N   0  0  0  0  0  0  0  0  0  0  0  0
    5.4641    2.0000    0.0000 C   0  0  0  0  0  0  0  0  0  0  0  0
    6.3301    2.5000    0.0000 C   0  0  0  0  0  0  0  0  0  0  0  0
    4.5981    2.5000    0.0000 C   0  0  0  0  0  0  0  0  0  0  0  0
    6.3301    3.5000    0.0000 C   0  0  0  0  0  0  0  0  0  0  0  0
    4.5981    3.5000    0.0000 C   0  0  0  0  0  0  0  0  0  0  0  0
    5.4641    1.0000    0.0000 C   0  0  0  0  0  0  0  0  0  0  0  0
    5.4641    5.0000    0.0000 C   0  0  0  0  0  0  0  0  0  0  0  0
    8.0622   -0.5000    0.0000 C   0  0  0  0  0  0  0  0  0  0  0  0
    7.1962   -1.0000    0.0000 C   0  0  2  0  0  0  0  0  0  0  0  0
    6.3301   -0.5000    0.0000 C   0  0  0  0  0  0  0  0  0  0  0  0
    4.5981    5.5000    0.0000 C   0  0  0  0  0  0  0  0  0  0  0  0
    8.9282   -0.0000    0.0000 C   0  0  0  0  0  0  0  0  0  0  0  0
    7.5622    0.3660    0.0000 C   0  0  0  0  0  0  0  0  0  0  0  0
    8.5622   -1.3660    0.0000 C   0  0  0  0  0  0  0  0  0  0  0  0
    4.5981    6.5000    0.0000 C   0  0  0  0  0  0  0  0  0  0  0  0
    3.7320    5.0000    0.0000 C   0  0  0  0  0  0  0  0  0  0  0  0
    6.3301   -2.5000    0.0000 C   0  0  0  0  0  0  0  0  0  0  0  0
    3.7320    7.0000    0.0000 C   0  0  0  0  0  0  0  0  0  0  0  0
    2.8660    5.5000    0.0000 C   0  0  0  0  0  0  0  0  0  0  0  0
    6.3301   -3.5000    0.0000 C   0  0  0  0  0  0  0  0  0  0  0  0
    2.8660    6.5000    0.0000 C   0  0  0  0  0  0  0  0  0  0  0  0
    5.4641   -4.0000    0.0000 C   0  0  0  0  0  0  0  0  0  0  0  0
    7.1962   -4.0000    0.0000 C   0  0  0  0  0  0  0  0  0  0  0  0
    5.4641   -5.0000    0.0000 C   0  0  0  0  0  0  0  0  0  0  0  0
    7.1962   -5.0000    0.0000 C   0  0  0  0  0  0  0  0  0  0  0  0
    6.3301   -5.5000    0.0000 C   0  0  0  0  0  0  0  0  0  0  0  0
    4.5981   -6.5000    0.0000 C   0  0  0  0  0  0  0  0  0  0  0  0
    3.7320   -7.0000    0.0000 C   0  0  0  0  0  0  0  0  0  0  0  0
    6.0010    1.6900    0.0000 H   0  0  0  0  0  0  0  0  0  0  0  0
    6.5422    1.9174    0.0000 H   0  0  0  0  0  0  0  0  0  0  0  0
    6.9407    2.6077    0.0000 H   0  0  0  0  0  0  0  0  0  0  0  0
    3.9875    2.6077    0.0000 H   0  0  0  0  0  0  0  0  0  0  0  0
    4.3860    1.9174    0.0000 H   0  0  0  0  0  0  0  0  0  0  0  0
    6.9407    3.3923    0.0000 H   0  0  0  0  0  0  0  0  0  0  0  0
    6.5422    4.0826    0.0000 H   0  0  0  0  0  0  0  0  0  0  0  0
    4.3860    4.0826    0.0000 H   0  0  0  0  0  0  0  0  0  0  0  0
    3.9875    3.3923    0.0000 H   0  0  0  0  0  0  0  0  0  0  0  0
    4.8535    1.1077    0.0000 H   0  0  0  0  0  0  0  0  0  0  0  0
    5.2520    0.4174    0.0000 H   0  0  0  0  0  0  0  0  0  0  0  0
    6.0747    4.8923    0.0000 H   0  0  0  0  0  0  0  0  0  0  0  0
    5.6762    5.5826    0.0000 H   0  0  0  0  0  0  0  0  0  0  0  0
    6.6592   -1.3100    0.0000 H   0  0  0  0  0  0  0  0  0  0  0  0
    6.8671    0.8100    0.0000 H   0  0  0  0  0  0  0  0  0  0  0  0
    9.2382   -0.5369    0.0000 H   0  0  0  0  0  0  0  0  0  0  0  0
    9.4651    0.3100    0.0000 H   0  0  0  0  0  0  0  0  0  0  0  0
    8.6182    0.5369    0.0000 H   0  0  0  0  0  0  0  0  0  0  0  0
    8.0991    0.6760    0.0000 H   0  0  0  0  0  0  0  0  0  0  0  0
    7.2522    0.9030    0.0000 H   0  0  0  0  0  0  0  0  0  0  0  0
    7.0252    0.0560    0.0000 H   0  0  0  0  0  0  0  0  0  0  0  0
    8.0252   -1.6760    0.0000 H   0  0  0  0  0  0  0  0  0  0  0  0
    8.8722   -1.9030    0.0000 H   0  0  0  0  0  0  0  0  0  0  0  0
    9.0991   -1.0560    0.0000 H   0  0  0  0  0  0  0  0  0  0  0  0
    7.7331   -2.3100    0.0000 H   0  0  0  0  0  0  0  0  0  0  0  0
    5.1350    6.8100    0.0000 H   0  0  0  0  0  0  0  0  0  0  0  0
    3.7320    4.3800    0.0000 H   0  0  0  0  0  0  0  0  0  0  0  0
    3.7320    7.6200    0.0000 H   0  0  0  0  0  0  0  0  0  0  0  0
    2.3291    5.1900    0.0000 H   0  0  0  0  0  0  0  0  0  0  0  0
    4.9272   -3.6900    0.0000 H   0  0  0  0  0  0  0  0  0  0  0  0
    7.7331   -3.6900    0.0000 H   0  0  0  0  0  0  0  0  0  0  0  0
    7.7331   -5.3100    0.0000 H   0  0  0  0  0  0  0  0  0  0  0  0
    6.3301   -6.1200    0.0000 H   0  0  0  0  0  0  0  0  0  0  0  0
    4.8101   -7.0826    0.0000 H   0  0  0  0  0  0  0  0  0  0  0  0
    5.2087   -6.3923    0.0000 H   0  0  0  0  0  0  0  0  0  0  0  0
    3.4220   -6.4631    0.0000 H   0  0  0  0  0  0  0  0  0  0  0  0
    3.1951   -7.3100    0.0000 H   0  0  0  0  0  0  0  0  0  0  0  0
    4.0420   -7.5369    0.0000 H   0  0  0  0  0  0  0  0  0  0  0  0
  1 28  1  0  0  0  0
  2 17  2  0  0  0  0
  3 24  2  0  0  0  0
  4 31  1  0  0  0  0
  4 34  1  0  0  0  0
  5 11  1  0  0  0  0
  5 12  1  0  0  0  0
  5 14  1  0  0  0  0
  6 13  1  0  0  0  0
  6 17  1  0  0  0  0
  6 50  1  0  0  0  0
 16  7  1  1  0  0  0
  7 24  1  0  0  0  0
  7 60  1  0  0  0  0
  8  9  1  0  0  0  0
  8 10  1  0  0  0  0
  8 13  1  0  0  0  0
  8 36  1  0  0  0  0
  9 11  1  0  0  0  0
  9 37  1  0  0  0  0
  9 38  1  0  0  0  0
 10 12  1  0  0  0  0
 10 39  1  0  0  0  0
 10 40  1  0  0  0  0
 11 41  1  0  0  0  0
 11 42  1  0  0  0  0
 12 43  1  0  0  0  0
 12 44  1  0  0  0  0
 13 45  1  0  0  0  0
 13 46  1  0  0  0  0
 14 18  1  0  0  0  0
 14 47  1  0  0  0  0
 14 48  1  0  0  0  0
 15 16  1  0  0  0  0
 15 19  1  0  0  0  0
 15 20  1  0  0  0  0
 15 21  1  0  0  0  0
 16 17  1  0  0  0  0
 16 49  1  0  0  0  0
 18 22  2  0  0  0  0
 18 23  1  0  0  0  0
 19 51  1  0  0  0  0
 19 52  1  0  0  0  0
 19 53  1  0  0  0  0
 20 54  1  0  0  0  0
 20 55  1  0  0  0  0
 20 56  1  0  0  0  0
 21 57  1  0  0  0  0
 21 58  1  0  0  0  0
 21 59  1  0  0  0  0
 22 25  1  0  0  0  0
 22 61  1  0  0  0  0
 23 26  2  0  0  0  0
 23 62  1  0  0  0  0
 24 27  1  0  0  0  0
 25 28  2  0  0  0  0
 25 63  1  0  0  0  0
 26 28  1  0  0  0  0
 26 64  1  0  0  0  0
 27 29  2  0  0  0  0
 27 30  1  0  0  0  0
 29 31  1  0  0  0  0
 29 65  1  0  0  0  0
 30 32  2  0  0  0  0
 30 66  1  0  0  0  0
 31 33  2  0  0  0  0
 32 33  1  0  0  0  0
 32 67  1  0  0  0  0
 33 68  1  0  0  0  0
 34 35  1  0  0  0  0
 34 69  1  0  0  0  0
 34 70  1  0  0  0  0
 35 71  1  0  0  0  0
 35 72  1  0  0  0  0
 35 73  1  0  0  0  0
M  END
> <PUBCHEM_COMPOUND_CID>
508912
> <PUBCHEM_COMPOUND_CANONICALIZED>
1
> <PUBCHEM_CACTVS_COMPLEXITY>
667
> <PUBCHEM_CACTVS_HBOND_ACCEPTOR>
4
> <PUBCHEM_CACTVS_HBOND_DONOR>
2
> <PUBCHEM_CACTVS_ROTATABLE_BOND>
10
> <PUBCHEM_CACTVS_SUBSKEYS>
AAADcfB7MAAEAAAAAAAAAAAAAAAAAAAAAAA8YIAAAAAAAAABQAAAHgIQAAAADy7hmCYyBoPABACIAiFSEACCCAAkJQAIiIGODsgMZjKFtzuWOSjk1hGIqYe6yBCPBAABAAAAAAAIAAIAAAAAAAAAAAAAAA==
> <PUBCHEM_IUPAC_OPENEYE_NAME>
N-[(1R)-1-[[1-[(4-chlorophenyl)methyl]-4-piperidyl]methylcarbamoyl]-2,2-dimethyl-propyl]-3-ethoxy-benzamide
> <PUBCHEM_IUPAC_CAS_NAME>
N-[(2R)-1-[[1-[(4-chlorophenyl)methyl]-4-piperidinyl]methylamino]-3,3-dimethyl-1-oxobutan-2-yl]-3-ethoxybenzamide
> <PUBCHEM_IUPAC_NAME_MARKUP>
<I>N</I>-[(2<I>R</I>)-1-[[1-[(4-chlorophenyl)methyl]piperidin-4-yl]methylamino]-3,3-dimethyl-1-oxobutan-2-yl]-3-ethoxybenzamide
> <PUBCHEM_IUPAC_NAME>
N-[(2R)-1-[[1-[(4-chlorophenyl)methyl]piperidin-4-yl]methylamino]-3,3-dimethyl-1-oxobutan-2-yl]-3-ethoxybenzamide
> <PUBCHEM_IUPAC_SYSTEMATIC_NAME>
N-[(2R)-1-[[1-[(4-chlorophenyl)methyl]piperidin-4-yl]methylamino]-3,3-dimethyl-1-oxidanylidene-butan-2-yl]-3-ethoxy-benzamide
> <PUBCHEM_IUPAC_TRADITIONAL_NAME>
N-[(1R)-1-[[1-(4-chlorobenzyl)-4-piperidyl]methylcarbamoyl]-2,2-dimethyl-propyl]-3-ethoxy-benzamide
> <PUBCHEM_IUPAC_INCHI>
InChI=1S/C28H38ClN3O3/c1-5-35-24-8-6-7-22(17-24)26(33)31-25(28(2,3)4)27(34)30-18-20-13-15-32(16-14-20)19-21-9-11-23(29)12-10-21/h6-12,17,20,25H,5,13-16,18-19H2,1-4H3,(H,30,34)(H,31,33)/t25-/m0/s1
> <PUBCHEM_IUPAC_INCHIKEY>
XBYADNUSKKTDPV-VWLOTQADSA-N
> <PUBCHEM_XLOGP3_AA>
5.5
> <PUBCHEM_EXACT_MASS>
499.2601698
> <PUBCHEM_MOLECULAR_FORMULA>
C28H38ClN3O3
> <PUBCHEM_MOLECULAR_WEIGHT>
500.1
> <PUBCHEM_OPENEYE_CAN_SMILES>
CCOC1=CC=CC(=C1)C(=O)NC(C(=O)NCC2CCN(CC2)CC3=CC=C(C=C3)Cl)C(C)(C)C
> <PUBCHEM_OPENEYE_ISO_SMILES>
CCOC1=CC=CC(=C1)C(=O)N[C@@H](C(=O)NCC2CCN(CC2)CC3=CC=C(C=C3)Cl)C(C)(C)C
> <PUBCHEM_CACTVS_TPSA>
70.7
> <PUBCHEM_MONOISOTOPIC_WEIGHT>
499.2601698
> <PUBCHEM_TOTAL_CHARGE>
0
> <PUBCHEM_HEAVY_ATOM_COUNT>
35
> <PUBCHEM_ATOM_DEF_STEREO_COUNT>
1
> <PUBCHEM_ATOM_UDEF_STEREO_COUNT>
0
> <PUBCHEM_BOND_DEF_STEREO_COUNT>
0
> <PUBCHEM_BOND_UDEF_STEREO_COUNT>
0
> <PUBCHEM_ISOTOPIC_ATOM_COUNT>
0
> <PUBCHEM_COMPONENT_COUNT>
1
> <PUBCHEM_CACTVS_TAUTO_COUNT>
-1
> <PUBCHEM_COORDINATE_TYPE>
1
5
255
> <PUBCHEM_BONDANNOTATIONS>
18  22  8
18  23  8
22  25  8
23  26  8
25  28  8
26  28  8
27  29  8
27  30  8
29  31  8
30  32  8
31  33  8
32  33  8
16  7  5
$$$$
