508919
  -OEChem-10302200282D
 55 58  0     1  0  0  0  0  0999 V2000
    3.8271   -3.2941    0.0000 F   0  0  0  0  0  0  0  0  0  0  0  0
    2.5068   -3.8009    0.0000 F   0  0  0  0  0  0  0  0  0  0  0  0
    2.0000   -2.4806    0.0000 F   0  0  0  0  0  0  0  0  0  0  0  0
    6.9363    1.8894    0.0000 O   0  0  0  0  0  0  0  0  0  0  0  0
   14.4183    1.9962    0.0000 O   0  0  0  0  0  0  0  0  0  0  0  0
    6.3038   -1.6602    0.0000 O   0  0  0  0  0  0  0  0  0  0  0  0
   10.0080    3.3009    0.0000 N   0  0  3  0  0  0  0  0  0  0  0  0
    8.5186    1.1849    0.0000 N   0  0  0  0  0  0  0  0  0  0  0  0
    6.1228    0.0623    0.0000 N   0  0  0  0  0  0  0  0  0  0  0  0
   14.4183    3.6056    0.0000 N   0  0  0  0  0  0  0  0  0  0  0  0
    4.5405    0.7668    0.0000 N   0  0  0  0  0  0  0  0  0  0  0  0
    8.9253    2.0985    0.0000 C   0  0  2  0  0  0  0  0  0  0  0  0
    8.4253    2.9645    0.0000 C   0  0  0  0  0  0  0  0  0  0  0  0
    9.9035    2.3064    0.0000 C   0  0  0  0  0  0  0  0  0  0  0  0
    9.0944    3.7076    0.0000 C   0  0  0  0  0  0  0  0  0  0  0  0
   10.8740    3.8009    0.0000 C   0  0  0  0  0  0  0  0  0  0  0  0
   11.7400    3.3009    0.0000 C   0  0  0  0  0  0  0  0  0  0  0  0
    7.5241    1.0804    0.0000 C   0  0  0  0  0  0  0  0  0  0  0  0
   12.6061    3.8009    0.0000 C   0  0  0  0  0  0  0  0  0  0  0  0
   11.7400    2.3009    0.0000 C   0  0  0  0  0  0  0  0  0  0  0  0
    7.1173    0.1669    0.0000 C   0  0  0  0  0  0  0  0  0  0  0  0
   13.4721    3.3009    0.0000 C   0  0  0  0  0  0  0  0  0  0  0  0
   12.6061    1.8009    0.0000 C   0  0  0  0  0  0  0  0  0  0  0  0
   13.4721    2.3009    0.0000 C   0  0  0  0  0  0  0  0  0  0  0  0
    5.7161   -0.8512    0.0000 C   0  0  0  0  0  0  0  0  0  0  0  0
   15.0019    2.8009    0.0000 C   0  0  0  0  0  0  0  0  0  0  0  0
    4.7215   -0.9557    0.0000 C   0  0  0  0  0  0  0  0  0  0  0  0
    4.1338   -0.1467    0.0000 C   0  0  0  0  0  0  0  0  0  0  0  0
    4.3148   -1.8693    0.0000 C   0  0  0  0  0  0  0  0  0  0  0  0
    3.3203   -1.9738    0.0000 C   0  0  0  0  0  0  0  0  0  0  0  0
    3.1392   -0.2513    0.0000 C   0  0  0  0  0  0  0  0  0  0  0  0
    2.7325   -1.1648    0.0000 C   0  0  0  0  0  0  0  0  0  0  0  0
    2.9136   -2.8874    0.0000 C   0  0  0  0  0  0  0  0  0  0  0  0
    8.3062    2.0660    0.0000 H   0  0  0  0  0  0  0  0  0  0  0  0
    8.0105    3.4252    0.0000 H   0  0  0  0  0  0  0  0  0  0  0  0
    7.9237    2.6001    0.0000 H   0  0  0  0  0  0  0  0  0  0  0  0
    9.9683    1.6898    0.0000 H   0  0  0  0  0  0  0  0  0  0  0  0
   10.5235    2.3064    0.0000 H   0  0  0  0  0  0  0  0  0  0  0  0
    9.4044    4.2446    0.0000 H   0  0  0  0  0  0  0  0  0  0  0  0
    8.5929    4.0721    0.0000 H   0  0  0  0  0  0  0  0  0  0  0  0
   11.2725    4.2759    0.0000 H   0  0  0  0  0  0  0  0  0  0  0  0
   10.4755    4.2759    0.0000 H   0  0  0  0  0  0  0  0  0  0  0  0
    8.8830    0.6833    0.0000 H   0  0  0  0  0  0  0  0  0  0  0  0
   12.6061    4.4209    0.0000 H   0  0  0  0  0  0  0  0  0  0  0  0
   11.2031    1.9909    0.0000 H   0  0  0  0  0  0  0  0  0  0  0  0
    7.0741   -0.4516    0.0000 H   0  0  0  0  0  0  0  0  0  0  0  0
    7.7189    0.0169    0.0000 H   0  0  0  0  0  0  0  0  0  0  0  0
   12.6061    1.1809    0.0000 H   0  0  0  0  0  0  0  0  0  0  0  0
    5.7584    0.5639    0.0000 H   0  0  0  0  0  0  0  0  0  0  0  0
   15.6219    2.8009    0.0000 H   0  0  0  0  0  0  0  0  0  0  0  0
    4.6792   -2.3709    0.0000 H   0  0  0  0  0  0  0  0  0  0  0  0
    2.7748    0.2503    0.0000 H   0  0  0  0  0  0  0  0  0  0  0  0
    2.1159   -1.2296    0.0000 H   0  0  0  0  0  0  0  0  0  0  0  0
    4.1761    1.2684    0.0000 H   0  0  0  0  0  0  0  0  0  0  0  0
    5.1571    0.8316    0.0000 H   0  0  0  0  0  0  0  0  0  0  0  0
  1 33  1  0  0  0  0
  2 33  1  0  0  0  0
  3 33  1  0  0  0  0
  4 18  2  0  0  0  0
  5 24  1  0  0  0  0
  5 26  1  0  0  0  0
  6 25  2  0  0  0  0
  7 14  1  0  0  0  0
  7 15  1  0  0  0  0
  7 16  1  0  0  0  0
 12  8  1  6  0  0  0
  8 18  1  0  0  0  0
  8 43  1  0  0  0  0
  9 21  1  0  0  0  0
  9 25  1  0  0  0  0
  9 49  1  0  0  0  0
 10 22  1  0  0  0  0
 10 26  2  0  0  0  0
 11 28  1  0  0  0  0
 11 54  1  0  0  0  0
 11 55  1  0  0  0  0
 12 13  1  0  0  0  0
 12 14  1  0  0  0  0
 12 34  1  0  0  0  0
 13 15  1  0  0  0  0
 13 35  1  0  0  0  0
 13 36  1  0  0  0  0
 14 37  1  0  0  0  0
 14 38  1  0  0  0  0
 15 39  1  0  0  0  0
 15 40  1  0  0  0  0
 16 17  1  0  0  0  0
 16 41  1  0  0  0  0
 16 42  1  0  0  0  0
 17 19  2  0  0  0  0
 17 20  1  0  0  0  0
 18 21  1  0  0  0  0
 19 22  1  0  0  0  0
 19 44  1  0  0  0  0
 20 23  2  0  0  0  0
 20 45  1  0  0  0  0
 21 46  1  0  0  0  0
 21 47  1  0  0  0  0
 22 24  2  0  0  0  0
 23 24  1  0  0  0  0
 23 48  1  0  0  0  0
 25 27  1  0  0  0  0
 26 50  1  0  0  0  0
 27 28  2  0  0  0  0
 27 29  1  0  0  0  0
 28 31  1  0  0  0  0
 29 30  2  0  0  0  0
 29 51  1  0  0  0  0
 30 32  1  0  0  0  0
 30 33  1  0  0  0  0
 31 32  2  0  0  0  0
 31 52  1  0  0  0  0
 32 53  1  0  0  0  0
M  END
> <PUBCHEM_COMPOUND_CID>
508919
> <PUBCHEM_COMPOUND_CANONICALIZED>
1
> <PUBCHEM_CACTVS_COMPLEXITY>
709
> <PUBCHEM_CACTVS_HBOND_ACCEPTOR>
9
> <PUBCHEM_CACTVS_HBOND_DONOR>
3
> <PUBCHEM_CACTVS_ROTATABLE_BOND>
6
> <PUBCHEM_CACTVS_SUBSKEYS>
AAADceB7sYAAAAAAAAAAAAAAAAAAAWLAAAAwYAAAAAAAAFgB9AAAHwAQAAAADCzBnhY0xrPIFECoA6Vz1ASCiCA/YiAI2KG/bNgOZrrE9budMahk1hHY6ceY2UKOKAACQAACEABQAASAAAQgAAAAAAAAAA==
> <PUBCHEM_IUPAC_OPENEYE_NAME>
2-amino-N-[2-[[(3R)-1-(1,3-benzoxazol-5-ylmethyl)pyrrolidin-3-yl]amino]-2-oxo-ethyl]-5-(trifluoromethyl)benzamide
> <PUBCHEM_IUPAC_CAS_NAME>
2-amino-N-[2-[[(3R)-1-(1,3-benzoxazol-5-ylmethyl)-3-pyrrolidinyl]amino]-2-oxoethyl]-5-(trifluoromethyl)benzamide
> <PUBCHEM_IUPAC_NAME_MARKUP>
2-amino-<I>N</I>-[2-[[(3<I>R</I>)-1-(1,3-benzoxazol-5-ylmethyl)pyrrolidin-3-yl]amino]-2-oxoethyl]-5-(trifluoromethyl)benzamide
> <PUBCHEM_IUPAC_NAME>
2-amino-N-[2-[[(3R)-1-(1,3-benzoxazol-5-ylmethyl)pyrrolidin-3-yl]amino]-2-oxoethyl]-5-(trifluoromethyl)benzamide
> <PUBCHEM_IUPAC_SYSTEMATIC_NAME>
2-azanyl-N-[2-[[(3R)-1-(1,3-benzoxazol-5-ylmethyl)pyrrolidin-3-yl]amino]-2-oxidanylidene-ethyl]-5-(trifluoromethyl)benzamide
> <PUBCHEM_IUPAC_TRADITIONAL_NAME>
2-amino-N-[2-[[(3R)-1-(1,3-benzoxazol-5-ylmethyl)pyrrolidin-3-yl]amino]-2-keto-ethyl]-5-(trifluoromethyl)benzamide
> <PUBCHEM_IUPAC_INCHI>
InChI=1S/C22H22F3N5O3/c23-22(24,25)14-2-3-17(26)16(8-14)21(32)27-9-20(31)29-15-5-6-30(11-15)10-13-1-4-19-18(7-13)28-12-33-19/h1-4,7-8,12,15H,5-6,9-11,26H2,(H,27,32)(H,29,31)/t15-/m1/s1
> <PUBCHEM_IUPAC_INCHIKEY>
ITCFCARAOHYZPZ-OAHLLOKOSA-N
> <PUBCHEM_XLOGP3_AA>
2.9
> <PUBCHEM_EXACT_MASS>
461.16747407
> <PUBCHEM_MOLECULAR_FORMULA>
C22H22F3N5O3
> <PUBCHEM_MOLECULAR_WEIGHT>
461.4
> <PUBCHEM_OPENEYE_CAN_SMILES>
C1CN(CC1NC(=O)CNC(=O)C2=C(C=CC(=C2)C(F)(F)F)N)CC3=CC4=C(C=C3)OC=N4
> <PUBCHEM_OPENEYE_ISO_SMILES>
C1CN(C[C@@H]1NC(=O)CNC(=O)C2=C(C=CC(=C2)C(F)(F)F)N)CC3=CC4=C(C=C3)OC=N4
> <PUBCHEM_CACTVS_TPSA>
114
> <PUBCHEM_MONOISOTOPIC_WEIGHT>
461.16747407
> <PUBCHEM_TOTAL_CHARGE>
0
> <PUBCHEM_HEAVY_ATOM_COUNT>
33
> <PUBCHEM_ATOM_DEF_STEREO_COUNT>
1
> <PUBCHEM_ATOM_UDEF_STEREO_COUNT>
0
> <PUBCHEM_BOND_DEF_STEREO_COUNT>
0
> <PUBCHEM_BOND_UDEF_STEREO_COUNT>
0
> <PUBCHEM_ISOTOPIC_ATOM_COUNT>
0
> <PUBCHEM_COMPONENT_COUNT>
1
> <PUBCHEM_CACTVS_TAUTO_COUNT>
-1
> <PUBCHEM_COORDINATE_TYPE>
1
5
255
> <PUBCHEM_BONDANNOTATIONS>
10  22  8
10  26  8
17  19  8
17  20  8
19  22  8
20  23  8
22  24  8
23  24  8
27  28  8
27  29  8
28  31  8
29  30  8
30  32  8
31  32  8
5  24  8
5  26  8
12  8  6
$$$$
