508944
  -OEChem-10302200282D
 63 65  0     1  0  0  0  0  0999 V2000
   10.3312    4.6830    0.0000 Cl  0  0  0  0  0  0  0  0  0  0  0  0
   10.3312    6.6830    0.0000 Cl  0  0  0  0  0  0  0  0  0  0  0  0
    6.8671   -6.3170    0.0000 F   0  0  0  0  0  0  0  0  0  0  0  0
    5.5010   -6.6830    0.0000 F   0  0  0  0  0  0  0  0  0  0  0  0
    6.5010   -4.9510    0.0000 F   0  0  0  0  0  0  0  0  0  0  0  0
    6.8671   -1.3170    0.0000 O   0  0  0  0  0  0  0  0  0  0  0  0
    4.2690    0.1830    0.0000 O   0  0  0  0  0  0  0  0  0  0  0  0
    3.4030   -2.3170    0.0000 O   0  0  0  0  0  0  0  0  0  0  0  0
    6.8671    3.6830    0.0000 N   0  0  0  0  0  0  0  0  0  0  0  0
    6.0010    0.1830    0.0000 N   0  0  0  0  0  0  0  0  0  0  0  0
    5.1350   -2.3170    0.0000 N   0  0  0  0  0  0  0  0  0  0  0  0
    2.5369   -3.8170    0.0000 N   0  0  0  0  0  0  0  0  0  0  0  0
    6.8671    1.6830    0.0000 C   0  0  0  0  0  0  0  0  0  0  0  0
    6.0010    2.1830    0.0000 C   0  0  0  0  0  0  0  0  0  0  0  0
    7.7331    2.1830    0.0000 C   0  0  0  0  0  0  0  0  0  0  0  0
    6.0010    3.1830    0.0000 C   0  0  0  0  0  0  0  0  0  0  0  0
    7.7331    3.1830    0.0000 C   0  0  0  0  0  0  0  0  0  0  0  0
    6.8671    0.6830    0.0000 C   0  0  0  0  0  0  0  0  0  0  0  0
    6.8671    4.6830    0.0000 C   0  0  0  0  0  0  0  0  0  0  0  0
    7.7331    5.1830    0.0000 C   0  0  0  0  0  0  0  0  0  0  0  0
    6.0010   -0.8170    0.0000 C   0  0  0  0  0  0  0  0  0  0  0  0
    5.1350   -1.3170    0.0000 C   0  0  2  0  0  0  0  0  0  0  0  0
    8.5991    4.6830    0.0000 C   0  0  0  0  0  0  0  0  0  0  0  0
    7.7331    6.1830    0.0000 C   0  0  0  0  0  0  0  0  0  0  0  0
    4.2690   -0.8170    0.0000 C   0  0  0  0  0  0  0  0  0  0  0  0
    9.4651    5.1830    0.0000 C   0  0  0  0  0  0  0  0  0  0  0  0
    8.5991    6.6830    0.0000 C   0  0  0  0  0  0  0  0  0  0  0  0
    9.4651    6.1830    0.0000 C   0  0  0  0  0  0  0  0  0  0  0  0
    4.2690   -2.8170    0.0000 C   0  0  0  0  0  0  0  0  0  0  0  0
    4.2690   -3.8170    0.0000 C   0  0  0  0  0  0  0  0  0  0  0  0
    3.4030   -4.3170    0.0000 C   0  0  0  0  0  0  0  0  0  0  0  0
    5.1350   -4.3170    0.0000 C   0  0  0  0  0  0  0  0  0  0  0  0
    5.1350   -5.3170    0.0000 C   0  0  0  0  0  0  0  0  0  0  0  0
    3.4030   -5.3170    0.0000 C   0  0  0  0  0  0  0  0  0  0  0  0
    4.2690   -5.8170    0.0000 C   0  0  0  0  0  0  0  0  0  0  0  0
    6.0010   -5.8170    0.0000 C   0  0  0  0  0  0  0  0  0  0  0  0
    6.3301    1.3730    0.0000 H   0  0  0  0  0  0  0  0  0  0  0  0
    5.3905    2.2907    0.0000 H   0  0  0  0  0  0  0  0  0  0  0  0
    5.7890    1.6004    0.0000 H   0  0  0  0  0  0  0  0  0  0  0  0
    7.9451    1.6004    0.0000 H   0  0  0  0  0  0  0  0  0  0  0  0
    8.3437    2.2907    0.0000 H   0  0  0  0  0  0  0  0  0  0  0  0
    5.7890    3.7656    0.0000 H   0  0  0  0  0  0  0  0  0  0  0  0
    5.3905    3.0753    0.0000 H   0  0  0  0  0  0  0  0  0  0  0  0
    8.3437    3.0753    0.0000 H   0  0  0  0  0  0  0  0  0  0  0  0
    7.9451    3.7656    0.0000 H   0  0  0  0  0  0  0  0  0  0  0  0
    7.0791    0.1004    0.0000 H   0  0  0  0  0  0  0  0  0  0  0  0
    7.4776    0.7907    0.0000 H   0  0  0  0  0  0  0  0  0  0  0  0
    6.6550    5.2656    0.0000 H   0  0  0  0  0  0  0  0  0  0  0  0
    6.2565    4.5754    0.0000 H   0  0  0  0  0  0  0  0  0  0  0  0
    5.4641    0.4930    0.0000 H   0  0  0  0  0  0  0  0  0  0  0  0
    5.6720   -1.6270    0.0000 H   0  0  0  0  0  0  0  0  0  0  0  0
    8.5991    4.0630    0.0000 H   0  0  0  0  0  0  0  0  0  0  0  0
    7.1962    6.4930    0.0000 H   0  0  0  0  0  0  0  0  0  0  0  0
    3.6584   -0.7093    0.0000 H   0  0  0  0  0  0  0  0  0  0  0  0
    4.0569   -1.3996    0.0000 H   0  0  0  0  0  0  0  0  0  0  0  0
    5.6720   -2.6270    0.0000 H   0  0  0  0  0  0  0  0  0  0  0  0
    8.5991    7.3030    0.0000 H   0  0  0  0  0  0  0  0  0  0  0  0
    3.7320    0.4930    0.0000 H   0  0  0  0  0  0  0  0  0  0  0  0
    5.6720   -4.0070    0.0000 H   0  0  0  0  0  0  0  0  0  0  0  0
    2.8660   -5.6270    0.0000 H   0  0  0  0  0  0  0  0  0  0  0  0
    4.2690   -6.4370    0.0000 H   0  0  0  0  0  0  0  0  0  0  0  0
    2.0000   -4.1270    0.0000 H   0  0  0  0  0  0  0  0  0  0  0  0
    2.5369   -3.1970    0.0000 H   0  0  0  0  0  0  0  0  0  0  0  0
  1 26  1  0  0  0  0
  2 28  1  0  0  0  0
  3 36  1  0  0  0  0
  4 36  1  0  0  0  0
  5 36  1  0  0  0  0
  6 21  2  0  0  0  0
  7 25  1  0  0  0  0
  7 58  1  0  0  0  0
  8 29  2  0  0  0  0
  9 16  1  0  0  0  0
  9 17  1  0  0  0  0
  9 19  1  0  0  0  0
 10 18  1  0  0  0  0
 10 21  1  0  0  0  0
 10 50  1  0  0  0  0
 22 11  1  1  0  0  0
 11 29  1  0  0  0  0
 11 56  1  0  0  0  0
 12 31  1  0  0  0  0
 12 62  1  0  0  0  0
 12 63  1  0  0  0  0
 13 14  1  0  0  0  0
 13 15  1  0  0  0  0
 13 18  1  0  0  0  0
 13 37  1  0  0  0  0
 14 16  1  0  0  0  0
 14 38  1  0  0  0  0
 14 39  1  0  0  0  0
 15 17  1  0  0  0  0
 15 40  1  0  0  0  0
 15 41  1  0  0  0  0
 16 42  1  0  0  0  0
 16 43  1  0  0  0  0
 17 44  1  0  0  0  0
 17 45  1  0  0  0  0
 18 46  1  0  0  0  0
 18 47  1  0  0  0  0
 19 20  1  0  0  0  0
 19 48  1  0  0  0  0
 19 49  1  0  0  0  0
 20 23  2  0  0  0  0
 20 24  1  0  0  0  0
 21 22  1  0  0  0  0
 22 25  1  0  0  0  0
 22 51  1  0  0  0  0
 23 26  1  0  0  0  0
 23 52  1  0  0  0  0
 24 27  2  0  0  0  0
 24 53  1  0  0  0  0
 25 54  1  0  0  0  0
 25 55  1  0  0  0  0
 26 28  2  0  0  0  0
 27 28  1  0  0  0  0
 27 57  1  0  0  0  0
 29 30  1  0  0  0  0
 30 31  2  0  0  0  0
 30 32  1  0  0  0  0
 31 34  1  0  0  0  0
 32 33  2  0  0  0  0
 32 59  1  0  0  0  0
 33 35  1  0  0  0  0
 33 36  1  0  0  0  0
 34 35  2  0  0  0  0
 34 60  1  0  0  0  0
 35 61  1  0  0  0  0
M  END
> <PUBCHEM_COMPOUND_CID>
508944
> <PUBCHEM_COMPOUND_CANONICALIZED>
1
> <PUBCHEM_CACTVS_COMPLEXITY>
740
> <PUBCHEM_CACTVS_HBOND_ACCEPTOR>
8
> <PUBCHEM_CACTVS_HBOND_DONOR>
4
> <PUBCHEM_CACTVS_ROTATABLE_BOND>
8
> <PUBCHEM_CACTVS_SUBSKEYS>
AAADceB7sYAGAAAAAAAAAAAAAAAAAAAAAAA8YIAAAAAAAAABQAAAHwIQCAAADSrhmDYwwIPAAgCIAiVSUACCAAAkBwAIisGIZsgKcD6B17GUYYhitgCYyccYiECODAACIAACAAQYAARAAAQACAAAAAAAAA==
> <PUBCHEM_IUPAC_OPENEYE_NAME>
2-amino-N-[(1S)-2-[[1-[(3,4-dichlorophenyl)methyl]-4-piperidyl]methylamino]-1-(hydroxymethyl)-2-oxo-ethyl]-5-(trifluoromethyl)benzamide
> <PUBCHEM_IUPAC_CAS_NAME>
2-amino-N-[(2S)-1-[[1-[(3,4-dichlorophenyl)methyl]-4-piperidinyl]methylamino]-3-hydroxy-1-oxopropan-2-yl]-5-(trifluoromethyl)benzamide
> <PUBCHEM_IUPAC_NAME_MARKUP>
2-amino-<I>N</I>-[(2<I>S</I>)-1-[[1-[(3,4-dichlorophenyl)methyl]piperidin-4-yl]methylamino]-3-hydroxy-1-oxopropan-2-yl]-5-(trifluoromethyl)benzamide
> <PUBCHEM_IUPAC_NAME>
2-amino-N-[(2S)-1-[[1-[(3,4-dichlorophenyl)methyl]piperidin-4-yl]methylamino]-3-hydroxy-1-oxopropan-2-yl]-5-(trifluoromethyl)benzamide
> <PUBCHEM_IUPAC_SYSTEMATIC_NAME>
2-azanyl-N-[(2S)-1-[[1-[(3,4-dichlorophenyl)methyl]piperidin-4-yl]methylamino]-3-oxidanyl-1-oxidanylidene-propan-2-yl]-5-(trifluoromethyl)benzamide
> <PUBCHEM_IUPAC_TRADITIONAL_NAME>
2-amino-N-[(1S)-2-[[1-(3,4-dichlorobenzyl)-4-piperidyl]methylamino]-2-keto-1-methylol-ethyl]-5-(trifluoromethyl)benzamide
> <PUBCHEM_IUPAC_INCHI>
InChI=1S/C24H27Cl2F3N4O3/c25-18-3-1-15(9-19(18)26)12-33-7-5-14(6-8-33)11-31-23(36)21(13-34)32-22(35)17-10-16(24(27,28)29)2-4-20(17)30/h1-4,9-10,14,21,34H,5-8,11-13,30H2,(H,31,36)(H,32,35)/t21-/m0/s1
> <PUBCHEM_IUPAC_INCHIKEY>
FWPNESDLOPEKAY-NRFANRHFSA-N
> <PUBCHEM_XLOGP3_AA>
4.2
> <PUBCHEM_EXACT_MASS>
546.1412306
> <PUBCHEM_MOLECULAR_FORMULA>
C24H27Cl2F3N4O3
> <PUBCHEM_MOLECULAR_WEIGHT>
547.4
> <PUBCHEM_OPENEYE_CAN_SMILES>
C1CN(CCC1CNC(=O)C(CO)NC(=O)C2=C(C=CC(=C2)C(F)(F)F)N)CC3=CC(=C(C=C3)Cl)Cl
> <PUBCHEM_OPENEYE_ISO_SMILES>
C1CN(CCC1CNC(=O)[C@H](CO)NC(=O)C2=C(C=CC(=C2)C(F)(F)F)N)CC3=CC(=C(C=C3)Cl)Cl
> <PUBCHEM_CACTVS_TPSA>
108
> <PUBCHEM_MONOISOTOPIC_WEIGHT>
546.1412306
> <PUBCHEM_TOTAL_CHARGE>
0
> <PUBCHEM_HEAVY_ATOM_COUNT>
36
> <PUBCHEM_ATOM_DEF_STEREO_COUNT>
1
> <PUBCHEM_ATOM_UDEF_STEREO_COUNT>
0
> <PUBCHEM_BOND_DEF_STEREO_COUNT>
0
> <PUBCHEM_BOND_UDEF_STEREO_COUNT>
0
> <PUBCHEM_ISOTOPIC_ATOM_COUNT>
0
> <PUBCHEM_COMPONENT_COUNT>
1
> <PUBCHEM_CACTVS_TAUTO_COUNT>
-1
> <PUBCHEM_COORDINATE_TYPE>
1
5
255
> <PUBCHEM_BONDANNOTATIONS>
22  11  5
20  23  8
20  24  8
23  26  8
24  27  8
26  28  8
27  28  8
30  31  8
30  32  8
31  34  8
32  33  8
33  35  8
34  35  8
$$$$
