508974
  -OEChem-10302200282D
 57 59  0     1  0  0  0  0  0999 V2000
    2.0000   -3.7444    0.0000 Cl  0  0  0  0  0  0  0  0  0  0  0  0
    3.7320   -4.7444    0.0000 Cl  0  0  0  0  0  0  0  0  0  0  0  0
   11.4277    4.7444    0.0000 Cl  0  0  0  0  0  0  0  0  0  0  0  0
   10.5656   -1.2396    0.0000 S   0  0  0  0  0  0  0  0  0  0  0  0
   10.6187    3.1566    0.0000 S   0  0  0  0  0  0  0  0  0  0  0  0
    7.3563    1.7101    0.0000 O   0  0  0  0  0  0  0  0  0  0  0  0
   11.4791   -0.8329    0.0000 O   0  0  0  0  0  0  0  0  0  0  0  0
    9.6520   -1.6464    0.0000 O   0  0  0  0  0  0  0  0  0  0  0  0
   10.7466    0.4830    0.0000 O   0  0  0  0  0  0  0  0  0  0  0  0
    4.5981   -0.2444    0.0000 N   0  0  3  0  0  0  0  0  0  0  0  0
    7.1753   -0.0125    0.0000 N   0  0  0  0  0  0  0  0  0  0  0  0
    9.3454    1.5010    0.0000 N   0  0  0  0  0  0  0  0  0  0  0  0
    6.1808    0.0921    0.0000 C   0  0  2  0  0  0  0  0  0  0  0  0
    5.6808    0.9581    0.0000 C   0  0  0  0  0  0  0  0  0  0  0  0
    5.5116   -0.6511    0.0000 C   0  0  0  0  0  0  0  0  0  0  0  0
    4.7026    0.7502    0.0000 C   0  0  0  0  0  0  0  0  0  0  0  0
    3.7320   -0.7444    0.0000 C   0  0  0  0  0  0  0  0  0  0  0  0
    8.7576    0.6920    0.0000 C   0  0  2  0  0  0  0  0  0  0  0  0
    7.7631    0.7965    0.0000 C   0  0  0  0  0  0  0  0  0  0  0  0
    3.7320   -1.7444    0.0000 C   0  0  0  0  0  0  0  0  0  0  0  0
    9.1643   -0.2215    0.0000 C   0  0  0  0  0  0  0  0  0  0  0  0
   10.1588   -0.3261    0.0000 C   0  0  0  0  0  0  0  0  0  0  0  0
    2.8660   -2.2444    0.0000 C   0  0  0  0  0  0  0  0  0  0  0  0
    4.5981   -2.2444    0.0000 C   0  0  0  0  0  0  0  0  0  0  0  0
   10.3399    1.3965    0.0000 C   0  0  0  0  0  0  0  0  0  0  0  0
   10.9723   -2.1532    0.0000 C   0  0  0  0  0  0  0  0  0  0  0  0
    2.8660   -3.2444    0.0000 C   0  0  0  0  0  0  0  0  0  0  0  0
    4.5981   -3.2444    0.0000 C   0  0  0  0  0  0  0  0  0  0  0  0
    3.7320   -3.7444    0.0000 C   0  0  0  0  0  0  0  0  0  0  0  0
   10.9277    2.2055    0.0000 C   0  0  0  0  0  0  0  0  0  0  0  0
   11.9277    2.2055    0.0000 C   0  0  0  0  0  0  0  0  0  0  0  0
   12.2367    3.1566    0.0000 C   0  0  0  0  0  0  0  0  0  0  0  0
   11.4277    3.7444    0.0000 C   0  0  0  0  0  0  0  0  0  0  0  0
    6.4029   -0.4868    0.0000 H   0  0  0  0  0  0  0  0  0  0  0  0
    6.2472    1.2102    0.0000 H   0  0  0  0  0  0  0  0  0  0  0  0
    5.4892    1.5477    0.0000 H   0  0  0  0  0  0  0  0  0  0  0  0
    5.2016   -1.1880    0.0000 H   0  0  0  0  0  0  0  0  0  0  0  0
    6.0132   -1.0155    0.0000 H   0  0  0  0  0  0  0  0  0  0  0  0
    4.6378    1.3668    0.0000 H   0  0  0  0  0  0  0  0  0  0  0  0
    4.0826    0.7502    0.0000 H   0  0  0  0  0  0  0  0  0  0  0  0
    7.4274   -0.5789    0.0000 H   0  0  0  0  0  0  0  0  0  0  0  0
    3.5200   -0.1617    0.0000 H   0  0  0  0  0  0  0  0  0  0  0  0
    3.1215   -0.8520    0.0000 H   0  0  0  0  0  0  0  0  0  0  0  0
    9.3742    0.6272    0.0000 H   0  0  0  0  0  0  0  0  0  0  0  0
    8.5627   -0.3715    0.0000 H   0  0  0  0  0  0  0  0  0  0  0  0
    9.2076   -0.8400    0.0000 H   0  0  0  0  0  0  0  0  0  0  0  0
   10.7604   -0.1761    0.0000 H   0  0  0  0  0  0  0  0  0  0  0  0
   10.1156    0.2924    0.0000 H   0  0  0  0  0  0  0  0  0  0  0  0
    9.0932    2.0674    0.0000 H   0  0  0  0  0  0  0  0  0  0  0  0
    2.3291   -1.9344    0.0000 H   0  0  0  0  0  0  0  0  0  0  0  0
    5.1350   -1.9344    0.0000 H   0  0  0  0  0  0  0  0  0  0  0  0
   10.4059   -2.4053    0.0000 H   0  0  0  0  0  0  0  0  0  0  0  0
   11.2245   -2.7196    0.0000 H   0  0  0  0  0  0  0  0  0  0  0  0
   11.5387   -1.9010    0.0000 H   0  0  0  0  0  0  0  0  0  0  0  0
    5.1350   -3.5544    0.0000 H   0  0  0  0  0  0  0  0  0  0  0  0
   12.2921    1.7039    0.0000 H   0  0  0  0  0  0  0  0  0  0  0  0
   12.8263    3.3482    0.0000 H   0  0  0  0  0  0  0  0  0  0  0  0
  1 27  1  0  0  0  0
  2 29  1  0  0  0  0
  3 33  1  0  0  0  0
  4  7  2  0  0  0  0
  4  8  2  0  0  0  0
  4 22  1  0  0  0  0
  4 26  1  0  0  0  0
  5 30  1  0  0  0  0
  5 33  1  0  0  0  0
  6 19  2  0  0  0  0
  9 25  2  0  0  0  0
 10 15  1  0  0  0  0
 10 16  1  0  0  0  0
 10 17  1  0  0  0  0
 13 11  1  1  0  0  0
 11 19  1  0  0  0  0
 11 41  1  0  0  0  0
 18 12  1  1  0  0  0
 12 25  1  0  0  0  0
 12 49  1  0  0  0  0
 13 14  1  0  0  0  0
 13 15  1  0  0  0  0
 13 34  1  0  0  0  0
 14 16  1  0  0  0  0
 14 35  1  0  0  0  0
 14 36  1  0  0  0  0
 15 37  1  0  0  0  0
 15 38  1  0  0  0  0
 16 39  1  0  0  0  0
 16 40  1  0  0  0  0
 17 20  1  0  0  0  0
 17 42  1  0  0  0  0
 17 43  1  0  0  0  0
 18 19  1  0  0  0  0
 18 21  1  0  0  0  0
 18 44  1  0  0  0  0
 20 23  2  0  0  0  0
 20 24  1  0  0  0  0
 21 22  1  0  0  0  0
 21 45  1  0  0  0  0
 21 46  1  0  0  0  0
 22 47  1  0  0  0  0
 22 48  1  0  0  0  0
 23 27  1  0  0  0  0
 23 50  1  0  0  0  0
 24 28  2  0  0  0  0
 24 51  1  0  0  0  0
 25 30  1  0  0  0  0
 26 52  1  0  0  0  0
 26 53  1  0  0  0  0
 26 54  1  0  0  0  0
 27 29  2  0  0  0  0
 28 29  1  0  0  0  0
 28 55  1  0  0  0  0
 30 31  2  0  0  0  0
 31 32  1  0  0  0  0
 31 56  1  0  0  0  0
 32 33  2  0  0  0  0
 32 57  1  0  0  0  0
M  END
> <PUBCHEM_COMPOUND_CID>
508974
> <PUBCHEM_COMPOUND_CANONICALIZED>
1
> <PUBCHEM_CACTVS_COMPLEXITY>
798
> <PUBCHEM_CACTVS_HBOND_ACCEPTOR>
6
> <PUBCHEM_CACTVS_HBOND_DONOR>
2
> <PUBCHEM_CACTVS_ROTATABLE_BOND>
9
> <PUBCHEM_CACTVS_SUBSKEYS>
AAADceB7OABmAAAAAAAAAAAAAAAAAWJAAAAwAAAAAAAAAAABwAAAHgYQAAAADCrF2CSyAYPAAAqMAiFSEHDDAIAkDRBIitmIBsgIYDKh1zGUIQhglgCoiYcYgAAOBAAAIAAAAAQIAABAAAAACAAAAAAAAA==
> <PUBCHEM_IUPAC_OPENEYE_NAME>
5-chloro-N-[(1S)-1-[[(3R)-1-[(3,4-dichlorophenyl)methyl]pyrrolidin-3-yl]carbamoyl]-3-methylsulfonyl-propyl]thiophene-2-carboxamide
> <PUBCHEM_IUPAC_CAS_NAME>
5-chloro-N-[(2S)-1-[[(3R)-1-[(3,4-dichlorophenyl)methyl]-3-pyrrolidinyl]amino]-4-methylsulfonyl-1-oxobutan-2-yl]-2-thiophenecarboxamide
> <PUBCHEM_IUPAC_NAME_MARKUP>
5-chloro-<I>N</I>-[(2<I>S</I>)-1-[[(3<I>R</I>)-1-[(3,4-dichlorophenyl)methyl]pyrrolidin-3-yl]amino]-4-methylsulfonyl-1-oxobutan-2-yl]thiophene-2-carboxamide
> <PUBCHEM_IUPAC_NAME>
5-chloro-N-[(2S)-1-[[(3R)-1-[(3,4-dichlorophenyl)methyl]pyrrolidin-3-yl]amino]-4-methylsulfonyl-1-oxobutan-2-yl]thiophene-2-carboxamide
> <PUBCHEM_IUPAC_SYSTEMATIC_NAME>
5-chloranyl-N-[(2S)-1-[[(3R)-1-[(3,4-dichlorophenyl)methyl]pyrrolidin-3-yl]amino]-4-methylsulfonyl-1-oxidanylidene-butan-2-yl]thiophene-2-carboxamide
> <PUBCHEM_IUPAC_TRADITIONAL_NAME>
5-chloro-N-[(1S)-1-[[(3R)-1-(3,4-dichlorobenzyl)pyrrolidin-3-yl]carbamoyl]-3-mesyl-propyl]thiophene-2-carboxamide
> <PUBCHEM_IUPAC_INCHI>
InChI=1S/C21H24Cl3N3O4S2/c1-33(30,31)9-7-17(26-21(29)18-4-5-19(24)32-18)20(28)25-14-6-8-27(12-14)11-13-2-3-15(22)16(23)10-13/h2-5,10,14,17H,6-9,11-12H2,1H3,(H,25,28)(H,26,29)/t14-,17+/m1/s1
> <PUBCHEM_IUPAC_INCHIKEY>
UFDWITRGSHKMHS-PBHICJAKSA-N
> <PUBCHEM_XLOGP3_AA>
4.3
> <PUBCHEM_EXACT_MASS>
551.027382
> <PUBCHEM_MOLECULAR_FORMULA>
C21H24Cl3N3O4S2
> <PUBCHEM_MOLECULAR_WEIGHT>
552.9
> <PUBCHEM_OPENEYE_CAN_SMILES>
CS(=O)(=O)CCC(C(=O)NC1CCN(C1)CC2=CC(=C(C=C2)Cl)Cl)NC(=O)C3=CC=C(S3)Cl
> <PUBCHEM_OPENEYE_ISO_SMILES>
CS(=O)(=O)CC[C@@H](C(=O)N[C@@H]1CCN(C1)CC2=CC(=C(C=C2)Cl)Cl)NC(=O)C3=CC=C(S3)Cl
> <PUBCHEM_CACTVS_TPSA>
132
> <PUBCHEM_MONOISOTOPIC_WEIGHT>
551.027382
> <PUBCHEM_TOTAL_CHARGE>
0
> <PUBCHEM_HEAVY_ATOM_COUNT>
33
> <PUBCHEM_ATOM_DEF_STEREO_COUNT>
2
> <PUBCHEM_ATOM_UDEF_STEREO_COUNT>
0
> <PUBCHEM_BOND_DEF_STEREO_COUNT>
0
> <PUBCHEM_BOND_UDEF_STEREO_COUNT>
0
> <PUBCHEM_ISOTOPIC_ATOM_COUNT>
0
> <PUBCHEM_COMPONENT_COUNT>
1
> <PUBCHEM_CACTVS_TAUTO_COUNT>
-1
> <PUBCHEM_COORDINATE_TYPE>
1
5
255
> <PUBCHEM_BONDANNOTATIONS>
13  11  5
18  12  5
20  23  8
20  24  8
23  27  8
24  28  8
27  29  8
28  29  8
30  31  8
31  32  8
32  33  8
5  30  8
5  33  8
$$$$
