508975
  -OEChem-10302200282D
 63 65  0     1  0  0  0  0  0999 V2000
    2.0000   -3.6885    0.0000 Cl  0  0  0  0  0  0  0  0  0  0  0  0
    3.7320   -4.6885    0.0000 Cl  0  0  0  0  0  0  0  0  0  0  0  0
   10.5656   -1.1837    0.0000 S   0  0  0  0  0  0  0  0  0  0  0  0
    7.3563    1.7660    0.0000 O   0  0  0  0  0  0  0  0  0  0  0  0
   11.4791   -0.7770    0.0000 O   0  0  0  0  0  0  0  0  0  0  0  0
    9.6520   -1.5904    0.0000 O   0  0  0  0  0  0  0  0  0  0  0  0
   10.7466    0.5388    0.0000 O   0  0  0  0  0  0  0  0  0  0  0  0
    4.5981   -0.1885    0.0000 N   0  0  3  0  0  0  0  0  0  0  0  0
    7.1753    0.0434    0.0000 N   0  0  0  0  0  0  0  0  0  0  0  0
    9.3454    1.5569    0.0000 N   0  0  0  0  0  0  0  0  0  0  0  0
    6.1808    0.1479    0.0000 C   0  0  2  0  0  0  0  0  0  0  0  0
    5.6808    1.0140    0.0000 C   0  0  0  0  0  0  0  0  0  0  0  0
    5.5116   -0.5952    0.0000 C   0  0  0  0  0  0  0  0  0  0  0  0
    4.7026    0.8061    0.0000 C   0  0  0  0  0  0  0  0  0  0  0  0
    3.7320   -0.6885    0.0000 C   0  0  0  0  0  0  0  0  0  0  0  0
    7.7631    0.8524    0.0000 C   0  0  0  0  0  0  0  0  0  0  0  0
    8.7576    0.7479    0.0000 C   0  0  2  0  0  0  0  0  0  0  0  0
    3.7320   -1.6885    0.0000 C   0  0  0  0  0  0  0  0  0  0  0  0
    9.1643   -0.1656    0.0000 C   0  0  0  0  0  0  0  0  0  0  0  0
   10.1588   -0.2702    0.0000 C   0  0  0  0  0  0  0  0  0  0  0  0
    2.8660   -2.1885    0.0000 C   0  0  0  0  0  0  0  0  0  0  0  0
    4.5981   -2.1885    0.0000 C   0  0  0  0  0  0  0  0  0  0  0  0
   10.3399    1.4524    0.0000 C   0  0  0  0  0  0  0  0  0  0  0  0
    2.8660   -3.1885    0.0000 C   0  0  0  0  0  0  0  0  0  0  0  0
    4.5981   -3.1885    0.0000 C   0  0  0  0  0  0  0  0  0  0  0  0
   10.9723   -2.0973    0.0000 C   0  0  0  0  0  0  0  0  0  0  0  0
    3.7320   -3.6885    0.0000 C   0  0  0  0  0  0  0  0  0  0  0  0
   10.9277    2.2614    0.0000 C   0  0  0  0  0  0  0  0  0  0  0  0
   10.5209    3.1750    0.0000 C   0  0  0  0  0  0  0  0  0  0  0  0
   11.9222    2.1569    0.0000 C   0  0  0  0  0  0  0  0  0  0  0  0
   11.1087    3.9840    0.0000 C   0  0  0  0  0  0  0  0  0  0  0  0
   12.5100    2.9659    0.0000 C   0  0  0  0  0  0  0  0  0  0  0  0
   12.1032    3.8794    0.0000 C   0  0  0  0  0  0  0  0  0  0  0  0
   12.6910    4.6885    0.0000 C   0  0  0  0  0  0  0  0  0  0  0  0
    6.4029   -0.4309    0.0000 H   0  0  0  0  0  0  0  0  0  0  0  0
    6.2472    1.2662    0.0000 H   0  0  0  0  0  0  0  0  0  0  0  0
    5.4892    1.6036    0.0000 H   0  0  0  0  0  0  0  0  0  0  0  0
    5.2016   -1.1321    0.0000 H   0  0  0  0  0  0  0  0  0  0  0  0
    6.0132   -0.9596    0.0000 H   0  0  0  0  0  0  0  0  0  0  0  0
    4.6378    1.4227    0.0000 H   0  0  0  0  0  0  0  0  0  0  0  0
    4.0826    0.8061    0.0000 H   0  0  0  0  0  0  0  0  0  0  0  0
    7.4274   -0.5230    0.0000 H   0  0  0  0  0  0  0  0  0  0  0  0
    3.5200   -0.1059    0.0000 H   0  0  0  0  0  0  0  0  0  0  0  0
    3.1215   -0.7961    0.0000 H   0  0  0  0  0  0  0  0  0  0  0  0
    9.3742    0.6831    0.0000 H   0  0  0  0  0  0  0  0  0  0  0  0
    8.5627   -0.3156    0.0000 H   0  0  0  0  0  0  0  0  0  0  0  0
    9.2076   -0.7841    0.0000 H   0  0  0  0  0  0  0  0  0  0  0  0
   10.7604   -0.1202    0.0000 H   0  0  0  0  0  0  0  0  0  0  0  0
   10.1156    0.3483    0.0000 H   0  0  0  0  0  0  0  0  0  0  0  0
    9.0932    2.1233    0.0000 H   0  0  0  0  0  0  0  0  0  0  0  0
    2.3291   -1.8785    0.0000 H   0  0  0  0  0  0  0  0  0  0  0  0
    5.1350   -1.8785    0.0000 H   0  0  0  0  0  0  0  0  0  0  0  0
    5.1350   -3.4985    0.0000 H   0  0  0  0  0  0  0  0  0  0  0  0
   10.4059   -2.3494    0.0000 H   0  0  0  0  0  0  0  0  0  0  0  0
   11.2245   -2.6637    0.0000 H   0  0  0  0  0  0  0  0  0  0  0  0
   11.5387   -1.8451    0.0000 H   0  0  0  0  0  0  0  0  0  0  0  0
    9.9043    3.2398    0.0000 H   0  0  0  0  0  0  0  0  0  0  0  0
   12.1744    1.5905    0.0000 H   0  0  0  0  0  0  0  0  0  0  0  0
   10.8565    4.5504    0.0000 H   0  0  0  0  0  0  0  0  0  0  0  0
   13.1266    2.9011    0.0000 H   0  0  0  0  0  0  0  0  0  0  0  0
   13.1926    4.3240    0.0000 H   0  0  0  0  0  0  0  0  0  0  0  0
   13.0555    5.1900    0.0000 H   0  0  0  0  0  0  0  0  0  0  0  0
   12.1894    5.0529    0.0000 H   0  0  0  0  0  0  0  0  0  0  0  0
  1 24  1  0  0  0  0
  2 27  1  0  0  0  0
  3  5  2  0  0  0  0
  3  6  2  0  0  0  0
  3 20  1  0  0  0  0
  3 26  1  0  0  0  0
  4 16  2  0  0  0  0
  7 23  2  0  0  0  0
  8 13  1  0  0  0  0
  8 14  1  0  0  0  0
  8 15  1  0  0  0  0
 11  9  1  1  0  0  0
  9 16  1  0  0  0  0
  9 42  1  0  0  0  0
 17 10  1  1  0  0  0
 10 23  1  0  0  0  0
 10 50  1  0  0  0  0
 11 12  1  0  0  0  0
 11 13  1  0  0  0  0
 11 35  1  0  0  0  0
 12 14  1  0  0  0  0
 12 36  1  0  0  0  0
 12 37  1  0  0  0  0
 13 38  1  0  0  0  0
 13 39  1  0  0  0  0
 14 40  1  0  0  0  0
 14 41  1  0  0  0  0
 15 18  1  0  0  0  0
 15 43  1  0  0  0  0
 15 44  1  0  0  0  0
 16 17  1  0  0  0  0
 17 19  1  0  0  0  0
 17 45  1  0  0  0  0
 18 21  2  0  0  0  0
 18 22  1  0  0  0  0
 19 20  1  0  0  0  0
 19 46  1  0  0  0  0
 19 47  1  0  0  0  0
 20 48  1  0  0  0  0
 20 49  1  0  0  0  0
 21 24  1  0  0  0  0
 21 51  1  0  0  0  0
 22 25  2  0  0  0  0
 22 52  1  0  0  0  0
 23 28  1  0  0  0  0
 24 27  2  0  0  0  0
 25 27  1  0  0  0  0
 25 53  1  0  0  0  0
 26 54  1  0  0  0  0
 26 55  1  0  0  0  0
 26 56  1  0  0  0  0
 28 29  2  0  0  0  0
 28 30  1  0  0  0  0
 29 31  1  0  0  0  0
 29 57  1  0  0  0  0
 30 32  2  0  0  0  0
 30 58  1  0  0  0  0
 31 33  2  0  0  0  0
 31 59  1  0  0  0  0
 32 33  1  0  0  0  0
 32 60  1  0  0  0  0
 33 34  1  0  0  0  0
 34 61  1  0  0  0  0
 34 62  1  0  0  0  0
 34 63  1  0  0  0  0
M  END
> <PUBCHEM_COMPOUND_CID>
508975
> <PUBCHEM_COMPOUND_CANONICALIZED>
1
> <PUBCHEM_CACTVS_COMPLEXITY>
799
> <PUBCHEM_CACTVS_HBOND_ACCEPTOR>
5
> <PUBCHEM_CACTVS_HBOND_DONOR>
2
> <PUBCHEM_CACTVS_ROTATABLE_BOND>
9
> <PUBCHEM_CACTVS_SUBSKEYS>
AAADceB7OABGAAAAAAAAAAAAAAAAAWAAAAAwYAAAAAAAAAABQAAAHgYQAAAADCrF2CSyAIPAAAqIAiFSEHDCAAAkBRAIisGIBsgIYDKh1zGUIQhglgCIiYcYiACORAAAIAAAAASIAABAAAAACAAAAAAAAA==
> <PUBCHEM_IUPAC_OPENEYE_NAME>
N-[(1S)-1-[[(3R)-1-[(3,4-dichlorophenyl)methyl]pyrrolidin-3-yl]carbamoyl]-3-methylsulfonyl-propyl]-4-methyl-benzamide
> <PUBCHEM_IUPAC_CAS_NAME>
N-[(2S)-1-[[(3R)-1-[(3,4-dichlorophenyl)methyl]-3-pyrrolidinyl]amino]-4-methylsulfonyl-1-oxobutan-2-yl]-4-methylbenzamide
> <PUBCHEM_IUPAC_NAME_MARKUP>
<I>N</I>-[(2<I>S</I>)-1-[[(3<I>R</I>)-1-[(3,4-dichlorophenyl)methyl]pyrrolidin-3-yl]amino]-4-methylsulfonyl-1-oxobutan-2-yl]-4-methylbenzamide
> <PUBCHEM_IUPAC_NAME>
N-[(2S)-1-[[(3R)-1-[(3,4-dichlorophenyl)methyl]pyrrolidin-3-yl]amino]-4-methylsulfonyl-1-oxobutan-2-yl]-4-methylbenzamide
> <PUBCHEM_IUPAC_SYSTEMATIC_NAME>
N-[(2S)-1-[[(3R)-1-[(3,4-dichlorophenyl)methyl]pyrrolidin-3-yl]amino]-4-methylsulfonyl-1-oxidanylidene-butan-2-yl]-4-methyl-benzamide
> <PUBCHEM_IUPAC_TRADITIONAL_NAME>
N-[(1S)-1-[[(3R)-1-(3,4-dichlorobenzyl)pyrrolidin-3-yl]carbamoyl]-3-mesyl-propyl]-4-methyl-benzamide
> <PUBCHEM_IUPAC_INCHI>
InChI=1S/C24H29Cl2N3O4S/c1-16-3-6-18(7-4-16)23(30)28-22(10-12-34(2,32)33)24(31)27-19-9-11-29(15-19)14-17-5-8-20(25)21(26)13-17/h3-8,13,19,22H,9-12,14-15H2,1-2H3,(H,27,31)(H,28,30)/t19-,22+/m1/s1
> <PUBCHEM_IUPAC_INCHIKEY>
SIUVIBRDFBQJHS-KNQAVFIVSA-N
> <PUBCHEM_XLOGP3_AA>
3.7
> <PUBCHEM_EXACT_MASS>
525.1255830
> <PUBCHEM_MOLECULAR_FORMULA>
C24H29Cl2N3O4S
> <PUBCHEM_MOLECULAR_WEIGHT>
526.5
> <PUBCHEM_OPENEYE_CAN_SMILES>
CC1=CC=C(C=C1)C(=O)NC(CCS(=O)(=O)C)C(=O)NC2CCN(C2)CC3=CC(=C(C=C3)Cl)Cl
> <PUBCHEM_OPENEYE_ISO_SMILES>
CC1=CC=C(C=C1)C(=O)N[C@@H](CCS(=O)(=O)C)C(=O)N[C@@H]2CCN(C2)CC3=CC(=C(C=C3)Cl)Cl
> <PUBCHEM_CACTVS_TPSA>
104
> <PUBCHEM_MONOISOTOPIC_WEIGHT>
525.1255830
> <PUBCHEM_TOTAL_CHARGE>
0
> <PUBCHEM_HEAVY_ATOM_COUNT>
34
> <PUBCHEM_ATOM_DEF_STEREO_COUNT>
2
> <PUBCHEM_ATOM_UDEF_STEREO_COUNT>
0
> <PUBCHEM_BOND_DEF_STEREO_COUNT>
0
> <PUBCHEM_BOND_UDEF_STEREO_COUNT>
0
> <PUBCHEM_ISOTOPIC_ATOM_COUNT>
0
> <PUBCHEM_COMPONENT_COUNT>
1
> <PUBCHEM_CACTVS_TAUTO_COUNT>
-1
> <PUBCHEM_COORDINATE_TYPE>
1
5
255
> <PUBCHEM_BONDANNOTATIONS>
17  10  5
18  21  8
18  22  8
21  24  8
22  25  8
24  27  8
25  27  8
28  29  8
28  30  8
29  31  8
30  32  8
31  33  8
32  33  8
11  9  5
$$$$
