509037
  -OEChem-10302200282D
 98 99  0     1  0  0  0  0  0999 V2000
   10.8765   -0.8042    0.0000 O   0  0  0  0  0  0  0  0  0  0  0  0
    8.9086   -0.1049    0.0000 O   0  0  0  0  0  0  0  0  0  0  0  0
    7.1485   -0.3836    0.0000 O   0  0  0  0  0  0  0  0  0  0  0  0
    9.7888   -3.1521    0.0000 O   0  0  0  0  0  0  0  0  0  0  0  0
   11.9643   -3.1521    0.0000 O   0  0  0  0  0  0  0  0  0  0  0  0
    8.2363    1.9642    0.0000 O   0  0  0  0  0  0  0  0  0  0  0  0
    6.0607    1.9642    0.0000 O   0  0  0  0  0  0  0  0  0  0  0  0
   12.6366   -1.0830    0.0000 O   0  0  0  0  0  0  0  0  0  0  0  0
    5.1805   -1.0830    0.0000 O   0  0  0  0  0  0  0  0  0  0  0  0
    8.5812   -2.7303    0.0000 O   0  0  0  0  0  0  0  0  0  0  0  0
    3.6942    0.2552    0.0000 O   0  0  0  0  0  0  0  0  0  0  0  0
    9.6375    0.9462    0.0000 O   0  0  0  0  0  0  0  0  0  0  0  0
    7.4620    2.9823    0.0000 O   0  0  0  0  0  0  0  0  0  0  0  0
    3.4863   -0.7229    0.0000 O   0  0  0  0  0  0  0  0  0  0  0  0
    3.1590    1.9025    0.0000 O   0  0  0  0  0  0  0  0  0  0  0  0
   10.0675   -1.3920    0.0000 C   0  0  3  0  0  0  0  0  0  0  0  0
   10.3765   -2.3431    0.0000 C   0  0  1  0  0  0  0  0  0  0  0  0
    9.1165   -1.0830    0.0000 C   0  0  3  0  0  0  0  0  0  0  0  0
    7.9575    0.2042    0.0000 C   0  0  2  0  0  0  0  0  0  0  0  0
    7.6485    1.1552    0.0000 C   0  0  1  0  0  0  0  0  0  0  0  0
    6.6485    1.1552    0.0000 C   0  0  2  0  0  0  0  0  0  0  0  0
    6.3395    0.2042    0.0000 C   0  0  3  0  0  0  0  0  0  0  0  0
   11.3765   -2.3431    0.0000 C   0  0  2  0  0  0  0  0  0  0  0  0
   11.6856   -1.3920    0.0000 C   0  0  1  0  0  0  0  0  0  0  0  0
    5.3884   -0.1049    0.0000 C   0  0  3  0  0  0  0  0  0  0  0  0
    8.3733   -1.7521    0.0000 C   0  0  0  0  0  0  0  0  0  0  0  0
    4.6453    0.5643    0.0000 C   0  0  0  0  0  0  0  0  0  0  0  0
   12.8445   -0.1049    0.0000 C   0  0  0  0  0  0  0  0  0  0  0  0
   10.1955   -4.0656    0.0000 C   0  0  0  0  0  0  0  0  0  0  0  0
   12.9588   -3.0476    0.0000 C   0  0  0  0  0  0  0  0  0  0  0  0
   13.7956    0.2042    0.0000 C   0  0  0  0  0  0  0  0  0  0  0  0
    9.2308    1.8597    0.0000 C   0  0  0  0  0  0  0  0  0  0  0  0
    6.4674    2.8778    0.0000 C   0  0  0  0  0  0  0  0  0  0  0  0
   14.0035    1.1823    0.0000 C   0  0  0  0  0  0  0  0  0  0  0  0
    4.2294   -1.3920    0.0000 C   0  0  0  0  0  0  0  0  0  0  0  0
    7.8381   -3.3994    0.0000 C   0  0  0  0  0  0  0  0  0  0  0  0
   14.9545    1.4913    0.0000 C   0  0  0  0  0  0  0  0  0  0  0  0
    9.8186    2.6687    0.0000 C   0  0  0  0  0  0  0  0  0  0  0  0
    5.8796    3.6868    0.0000 C   0  0  0  0  0  0  0  0  0  0  0  0
   15.1625    2.4695    0.0000 C   0  0  0  0  0  0  0  0  0  0  0  0
    2.9511    0.9244    0.0000 C   0  0  0  0  0  0  0  0  0  0  0  0
    4.0215   -2.3702    0.0000 C   0  0  0  0  0  0  0  0  0  0  0  0
   16.1135    2.7785    0.0000 C   0  0  0  0  0  0  0  0  0  0  0  0
    2.0000    0.6154    0.0000 C   0  0  0  0  0  0  0  0  0  0  0  0
   16.3214    3.7566    0.0000 C   0  0  0  0  0  0  0  0  0  0  0  0
   17.2725    4.0656    0.0000 C   0  0  0  0  0  0  0  0  0  0  0  0
   10.6572   -1.5836    0.0000 H   0  0  0  0  0  0  0  0  0  0  0  0
    9.7642   -2.2461    0.0000 H   0  0  0  0  0  0  0  0  0  0  0  0
    9.5772   -0.6682    0.0000 H   0  0  0  0  0  0  0  0  0  0  0  0
    8.3959    0.6426    0.0000 H   0  0  0  0  0  0  0  0  0  0  0  0
    7.3670    1.7076    0.0000 H   0  0  0  0  0  0  0  0  0  0  0  0
    6.0361    1.0582    0.0000 H   0  0  0  0  0  0  0  0  0  0  0  0
    6.2425   -0.4082    0.0000 H   0  0  0  0  0  0  0  0  0  0  0  0
   11.0951   -2.8955    0.0000 H   0  0  0  0  0  0  0  0  0  0  0  0
   12.1240   -1.8304    0.0000 H   0  0  0  0  0  0  0  0  0  0  0  0
    4.7988   -0.2965    0.0000 H   0  0  0  0  0  0  0  0  0  0  0  0
    8.0448   -1.2264    0.0000 H   0  0  0  0  0  0  0  0  0  0  0  0
    7.7985   -1.9844    0.0000 H   0  0  0  0  0  0  0  0  0  0  0  0
    5.1338    0.9460    0.0000 H   0  0  0  0  0  0  0  0  0  0  0  0
    4.3542    1.1117    0.0000 H   0  0  0  0  0  0  0  0  0  0  0  0
   12.7582    0.5091    0.0000 H   0  0  0  0  0  0  0  0  0  0  0  0
   12.2249   -0.0832    0.0000 H   0  0  0  0  0  0  0  0  0  0  0  0
    9.6291   -4.3178    0.0000 H   0  0  0  0  0  0  0  0  0  0  0  0
   10.4477   -4.6320    0.0000 H   0  0  0  0  0  0  0  0  0  0  0  0
   10.7619   -3.8135    0.0000 H   0  0  0  0  0  0  0  0  0  0  0  0
   13.0237   -3.6642    0.0000 H   0  0  0  0  0  0  0  0  0  0  0  0
   13.5754   -2.9828    0.0000 H   0  0  0  0  0  0  0  0  0  0  0  0
   12.8940   -2.4310    0.0000 H   0  0  0  0  0  0  0  0  0  0  0  0
   13.8819   -0.4098    0.0000 H   0  0  0  0  0  0  0  0  0  0  0  0
   14.4152    0.1825    0.0000 H   0  0  0  0  0  0  0  0  0  0  0  0
   13.9172    1.7963    0.0000 H   0  0  0  0  0  0  0  0  0  0  0  0
   13.3839    1.2039    0.0000 H   0  0  0  0  0  0  0  0  0  0  0  0
    7.4232   -2.9387    0.0000 H   0  0  0  0  0  0  0  0  0  0  0  0
    7.3773   -3.8143    0.0000 H   0  0  0  0  0  0  0  0  0  0  0  0
    8.2529   -3.8602    0.0000 H   0  0  0  0  0  0  0  0  0  0  0  0
   15.0408    0.8774    0.0000 H   0  0  0  0  0  0  0  0  0  0  0  0
   15.5742    1.4697    0.0000 H   0  0  0  0  0  0  0  0  0  0  0  0
   10.3202    2.3043    0.0000 H   0  0  0  0  0  0  0  0  0  0  0  0
   10.1830    3.1703    0.0000 H   0  0  0  0  0  0  0  0  0  0  0  0
    9.3170    3.0331    0.0000 H   0  0  0  0  0  0  0  0  0  0  0  0
    6.3812    4.0512    0.0000 H   0  0  0  0  0  0  0  0  0  0  0  0
    5.5152    4.1884    0.0000 H   0  0  0  0  0  0  0  0  0  0  0  0
    5.3780    3.3224    0.0000 H   0  0  0  0  0  0  0  0  0  0  0  0
   15.0762    3.0834    0.0000 H   0  0  0  0  0  0  0  0  0  0  0  0
   14.5428    2.4911    0.0000 H   0  0  0  0  0  0  0  0  0  0  0  0
    3.4151   -2.2413    0.0000 H   0  0  0  0  0  0  0  0  0  0  0  0
    3.8926   -2.9766    0.0000 H   0  0  0  0  0  0  0  0  0  0  0  0
    4.6280   -2.4991    0.0000 H   0  0  0  0  0  0  0  0  0  0  0  0
   16.1998    2.1645    0.0000 H   0  0  0  0  0  0  0  0  0  0  0  0
   16.7331    2.7568    0.0000 H   0  0  0  0  0  0  0  0  0  0  0  0
    1.8084    1.2050    0.0000 H   0  0  0  0  0  0  0  0  0  0  0  0
    1.4103    0.4238    0.0000 H   0  0  0  0  0  0  0  0  0  0  0  0
    2.1916    0.0257    0.0000 H   0  0  0  0  0  0  0  0  0  0  0  0
   16.2351    4.3706    0.0000 H   0  0  0  0  0  0  0  0  0  0  0  0
   15.7018    3.7783    0.0000 H   0  0  0  0  0  0  0  0  0  0  0  0
   17.4641    3.4760    0.0000 H   0  0  0  0  0  0  0  0  0  0  0  0
   17.8621    4.2572    0.0000 H   0  0  0  0  0  0  0  0  0  0  0  0
   17.0809    4.6553    0.0000 H   0  0  0  0  0  0  0  0  0  0  0  0
  1 16  1  0  0  0  0
  1 24  1  0  0  0  0
  2 18  1  0  0  0  0
 19  2  1  6  0  0  0
  3 19  1  0  0  0  0
  3 22  1  0  0  0  0
 17  4  1  1  0  0  0
  4 29  1  0  0  0  0
 23  5  1  6  0  0  0
  5 30  1  0  0  0  0
 20  6  1  1  0  0  0
  6 32  1  0  0  0  0
 21  7  1  6  0  0  0
  7 33  1  0  0  0  0
 24  8  1  1  0  0  0
  8 28  1  0  0  0  0
  9 25  1  0  0  0  0
  9 35  1  0  0  0  0
 10 26  1  0  0  0  0
 10 36  1  0  0  0  0
 11 27  1  0  0  0  0
 11 41  1  0  0  0  0
 12 32  2  0  0  0  0
 13 33  2  0  0  0  0
 14 35  2  0  0  0  0
 15 41  2  0  0  0  0
 16 17  1  0  0  0  0
 16 18  1  0  0  0  0
 16 47  1  0  0  0  0
 17 23  1  0  0  0  0
 17 48  1  0  0  0  0
 18 26  1  0  0  0  0
 18 49  1  0  0  0  0
 19 20  1  0  0  0  0
 19 50  1  0  0  0  0
 20 21  1  0  0  0  0
 20 51  1  0  0  0  0
 21 22  1  0  0  0  0
 21 52  1  0  0  0  0
 22 25  1  0  0  0  0
 22 53  1  0  0  0  0
 23 24  1  0  0  0  0
 23 54  1  0  0  0  0
 24 55  1  0  0  0  0
 25 27  1  0  0  0  0
 25 56  1  0  0  0  0
 26 57  1  0  0  0  0
 26 58  1  0  0  0  0
 27 59  1  0  0  0  0
 27 60  1  0  0  0  0
 28 31  1  0  0  0  0
 28 61  1  0  0  0  0
 28 62  1  0  0  0  0
 29 63  1  0  0  0  0
 29 64  1  0  0  0  0
 29 65  1  0  0  0  0
 30 66  1  0  0  0  0
 30 67  1  0  0  0  0
 30 68  1  0  0  0  0
 31 34  1  0  0  0  0
 31 69  1  0  0  0  0
 31 70  1  0  0  0  0
 32 38  1  0  0  0  0
 33 39  1  0  0  0  0
 34 37  1  0  0  0  0
 34 71  1  0  0  0  0
 34 72  1  0  0  0  0
 35 42  1  0  0  0  0
 36 73  1  0  0  0  0
 36 74  1  0  0  0  0
 36 75  1  0  0  0  0
 37 40  1  0  0  0  0
 37 76  1  0  0  0  0
 37 77  1  0  0  0  0
 38 78  1  0  0  0  0
 38 79  1  0  0  0  0
 38 80  1  0  0  0  0
 39 81  1  0  0  0  0
 39 82  1  0  0  0  0
 39 83  1  0  0  0  0
 40 43  1  0  0  0  0
 40 84  1  0  0  0  0
 40 85  1  0  0  0  0
 41 44  1  0  0  0  0
 42 86  1  0  0  0  0
 42 87  1  0  0  0  0
 42 88  1  0  0  0  0
 43 45  1  0  0  0  0
 43 89  1  0  0  0  0
 43 90  1  0  0  0  0
 44 91  1  0  0  0  0
 44 92  1  0  0  0  0
 44 93  1  0  0  0  0
 45 46  1  0  0  0  0
 45 94  1  0  0  0  0
 45 95  1  0  0  0  0
 46 96  1  0  0  0  0
 46 97  1  0  0  0  0
 46 98  1  0  0  0  0
M  END
> <PUBCHEM_COMPOUND_CID>
509037
> <PUBCHEM_COMPOUND_CANONICALIZED>
1
> <PUBCHEM_CACTVS_COMPLEXITY>
945
> <PUBCHEM_CACTVS_HBOND_ACCEPTOR>
15
> <PUBCHEM_CACTVS_HBOND_DONOR>
0
> <PUBCHEM_CACTVS_ROTATABLE_BOND>
25
> <PUBCHEM_CACTVS_SUBSKEYS>
AAADcfB4PAAAAAAAAAAAAAAAAAAAASJAAAAAAAAAAAAAAAAAAAAAGgAAAAAACBSwgAMCCAAABAAIAACQCAAAAAAAAAAAAAAAAAARAAIAAAAiAAAFAAAGAAHA4KwAAAAAAAAAAAAAAAAAAAAAAAAAAAAAAA==
> <PUBCHEM_IUPAC_OPENEYE_NAME>
[2-acetoxy-2-[(3S,4R,5R)-3,4-diacetoxy-5-[1-[(3S,4R,5R)-3,4-dimethoxy-5-octoxy-tetrahydrofuran-2-yl]-2-methoxy-ethoxy]tetrahydrofuran-2-yl]ethyl] acetate
> <PUBCHEM_IUPAC_CAS_NAME>
acetic acid [2-acetyloxy-2-[(3S,4R,5R)-3,4-diacetyloxy-5-[1-[(3S,4R,5R)-3,4-dimethoxy-5-octoxy-2-oxolanyl]-2-methoxyethoxy]-2-oxolanyl]ethyl] ester
> <PUBCHEM_IUPAC_NAME_MARKUP>
[2-acetyloxy-2-[(3<I>S</I>,4<I>R</I>,5<I>R</I>)-3,4-diacetyloxy-5-[1-[(3<I>S</I>,4<I>R</I>,5<I>R</I>)-3,4-dimethoxy-5-octoxyoxolan-2-yl]-2-methoxyethoxy]oxolan-2-yl]ethyl] acetate
> <PUBCHEM_IUPAC_NAME>
[2-acetyloxy-2-[(3S,4R,5R)-3,4-diacetyloxy-5-[1-[(3S,4R,5R)-3,4-dimethoxy-5-octoxyoxolan-2-yl]-2-methoxyethoxy]oxolan-2-yl]ethyl] acetate
> <PUBCHEM_IUPAC_SYSTEMATIC_NAME>
[2-acetyloxy-2-[(3S,4R,5R)-3,4-diacetyloxy-5-[1-[(3S,4R,5R)-3,4-dimethoxy-5-octoxy-oxolan-2-yl]-2-methoxy-ethoxy]oxolan-2-yl]ethyl] ethanoate
> <PUBCHEM_IUPAC_TRADITIONAL_NAME>
acetic acid [2-acetoxy-2-[(3S,4R,5R)-3,4-diacetoxy-5-[1-[(3S,4R,5R)-3,4-dimethoxy-5-octoxy-tetrahydrofuran-2-yl]-2-methoxy-ethoxy]tetrahydrofuran-2-yl]ethyl] ester
> <PUBCHEM_IUPAC_INCHI>
InChI=1S/C31H52O15/c1-9-10-11-12-13-14-15-39-30-28(38-8)26(37-7)24(45-30)22(16-36-6)44-31-29(43-21(5)35)27(42-20(4)34)25(46-31)23(41-19(3)33)17-40-18(2)32/h22-31H,9-17H2,1-8H3/t22?,23?,24?,25?,26-,27-,28+,29+,30+,31+/m0/s1
> <PUBCHEM_IUPAC_INCHIKEY>
FFXQYSJSFUKXNV-GKMIIGMUSA-N
> <PUBCHEM_XLOGP3_AA>
2.6
> <PUBCHEM_EXACT_MASS>
664.33062095
> <PUBCHEM_MOLECULAR_FORMULA>
C31H52O15
> <PUBCHEM_MOLECULAR_WEIGHT>
664.7
> <PUBCHEM_OPENEYE_CAN_SMILES>
CCCCCCCCOC1C(C(C(O1)C(COC)OC2C(C(C(O2)C(COC(=O)C)OC(=O)C)OC(=O)C)OC(=O)C)OC)OC
> <PUBCHEM_OPENEYE_ISO_SMILES>
CCCCCCCCO[C@H]1[C@@H]([C@H](C(O1)C(COC)O[C@H]2[C@@H]([C@H](C(O2)C(COC(=O)C)OC(=O)C)OC(=O)C)OC(=O)C)OC)OC
> <PUBCHEM_CACTVS_TPSA>
170
> <PUBCHEM_MONOISOTOPIC_WEIGHT>
664.33062095
> <PUBCHEM_TOTAL_CHARGE>
0
> <PUBCHEM_HEAVY_ATOM_COUNT>
46
> <PUBCHEM_ATOM_DEF_STEREO_COUNT>
6
> <PUBCHEM_ATOM_UDEF_STEREO_COUNT>
4
> <PUBCHEM_BOND_DEF_STEREO_COUNT>
0
> <PUBCHEM_BOND_UDEF_STEREO_COUNT>
0
> <PUBCHEM_ISOTOPIC_ATOM_COUNT>
0
> <PUBCHEM_COMPONENT_COUNT>
1
> <PUBCHEM_CACTVS_TAUTO_COUNT>
-1
> <PUBCHEM_COORDINATE_TYPE>
1
5
255
> <PUBCHEM_BONDANNOTATIONS>
16  1  3
18  26  3
19  2  6
25  27  3
22  3  3
17  4  5
23  5  6
20  6  5
21  7  6
24  8  5
$$$$
