509033
  -OEChem-10302200282D
 89 92  0     1  0  0  0  0  0999 V2000
    5.8301    5.3541    0.0000 S   0  0  0  0  0  0  0  0  0  0  0  0
    9.7942    1.8152    0.0000 F   0  0  0  0  0  0  0  0  0  0  0  0
    8.4282    2.1813    0.0000 F   0  0  0  0  0  0  0  0  0  0  0  0
    9.4282    0.4492    0.0000 F   0  0  0  0  0  0  0  0  0  0  0  0
    4.5981    2.8152    0.0000 O   0  0  0  0  0  0  0  0  0  0  0  0
    7.1962    2.3152    0.0000 O   0  0  0  0  0  0  0  0  0  0  0  0
    8.2981    3.1158    0.0000 O   0  0  0  0  0  0  0  0  0  0  0  0
    5.4641   -0.6848    0.0000 O   0  0  0  0  0  0  0  0  0  0  0  0
    8.9282   -3.6848    0.0000 O   0  0  0  0  0  0  0  0  0  0  0  0
    8.9282   -1.6848    0.0000 O   0  0  0  0  0  0  0  0  0  0  0  0
    6.3301    3.8152    0.0000 N   0  0  0  0  0  0  0  0  0  0  0  0
    6.3301    0.8152    0.0000 N   0  0  0  0  0  0  0  0  0  0  0  0
    8.8334    4.7631    0.0000 N   0  0  0  0  0  0  0  0  0  0  0  0
    7.1962   -1.6848    0.0000 N   0  0  0  0  0  0  0  0  0  0  0  0
   11.5942   -6.2056    0.0000 N   0  0  0  0  0  0  0  0  0  0  0  0
    7.1391    4.4030    0.0000 C   0  0  1  0  0  0  0  0  0  0  0  0
    5.4641    1.3152    0.0000 C   0  0  2  0  0  0  0  0  0  0  0  0
    5.4641    2.3152    0.0000 C   0  0  1  0  0  0  0  0  0  0  0  0
    6.8301    5.3541    0.0000 C   0  0  0  0  0  0  0  0  0  0  0  0
    6.3301    2.8152    0.0000 C   0  0  0  0  0  0  0  0  0  0  0  0
    5.5211    4.4030    0.0000 C   0  0  0  0  0  0  0  0  0  0  0  0
    4.5981    0.8152    0.0000 C   0  0  0  0  0  0  0  0  0  0  0  0
    8.0902    4.0940    0.0000 C   0  0  0  0  0  0  0  0  0  0  0  0
    8.6254    5.7413    0.0000 C   0  0  0  0  0  0  0  0  0  0  0  0
    7.1962   -0.6848    0.0000 C   0  0  2  0  0  0  0  0  0  0  0  0
    6.3301   -0.1848    0.0000 C   0  0  0  0  0  0  0  0  0  0  0  0
    3.7320    1.3152    0.0000 C   0  0  0  0  0  0  0  0  0  0  0  0
    8.4175    6.7194    0.0000 C   0  0  0  0  0  0  0  0  0  0  0  0
    9.6036    5.9492    0.0000 C   0  0  0  0  0  0  0  0  0  0  0  0
    7.6473    5.5334    0.0000 C   0  0  0  0  0  0  0  0  0  0  0  0
    8.0622   -0.1848    0.0000 C   0  0  0  0  0  0  0  0  0  0  0  0
    8.0622    0.8152    0.0000 C   0  0  0  0  0  0  0  0  0  0  0  0
    2.8660    0.8152    0.0000 C   0  0  0  0  0  0  0  0  0  0  0  0
    3.7320    2.3152    0.0000 C   0  0  0  0  0  0  0  0  0  0  0  0
    8.9282    1.3152    0.0000 C   0  0  0  0  0  0  0  0  0  0  0  0
    2.0000    1.3152    0.0000 C   0  0  0  0  0  0  0  0  0  0  0  0
    2.8660    2.8152    0.0000 C   0  0  0  0  0  0  0  0  0  0  0  0
    8.0622   -2.1848    0.0000 C   0  0  0  0  0  0  0  0  0  0  0  0
    2.0000    2.3152    0.0000 C   0  0  0  0  0  0  0  0  0  0  0  0
    8.0622   -3.1848    0.0000 C   0  0  0  0  0  0  0  0  0  0  0  0
    8.9282   -4.6848    0.0000 C   0  0  0  0  0  0  0  0  0  0  0  0
    9.7942   -5.1848    0.0000 C   0  0  0  0  0  0  0  0  0  0  0  0
    8.0622   -5.1848    0.0000 C   0  0  0  0  0  0  0  0  0  0  0  0
    9.7942   -6.1848    0.0000 C   0  0  0  0  0  0  0  0  0  0  0  0
    8.0622   -6.1848    0.0000 C   0  0  0  0  0  0  0  0  0  0  0  0
    8.9282   -6.6848    0.0000 C   0  0  0  0  0  0  0  0  0  0  0  0
   10.6882   -4.6501    0.0000 C   0  0  0  0  0  0  0  0  0  0  0  0
   10.6882   -6.7194    0.0000 C   0  0  0  0  0  0  0  0  0  0  0  0
   11.5942   -5.1640    0.0000 C   0  0  0  0  0  0  0  0  0  0  0  0
    7.2361    3.7906    0.0000 H   0  0  0  0  0  0  0  0  0  0  0  0
    5.4641    0.6952    0.0000 H   0  0  0  0  0  0  0  0  0  0  0  0
    5.4641    2.9352    0.0000 H   0  0  0  0  0  0  0  0  0  0  0  0
    7.4366    5.4830    0.0000 H   0  0  0  0  0  0  0  0  0  0  0  0
    6.7653    5.9707    0.0000 H   0  0  0  0  0  0  0  0  0  0  0  0
    4.9547    4.6552    0.0000 H   0  0  0  0  0  0  0  0  0  0  0  0
    5.2111    3.8661    0.0000 H   0  0  0  0  0  0  0  0  0  0  0  0
    4.1996    0.3403    0.0000 H   0  0  0  0  0  0  0  0  0  0  0  0
    4.9966    0.3403    0.0000 H   0  0  0  0  0  0  0  0  0  0  0  0
    6.8671    1.1252    0.0000 H   0  0  0  0  0  0  0  0  0  0  0  0
    9.4230    4.5715    0.0000 H   0  0  0  0  0  0  0  0  0  0  0  0
    6.6592   -0.9948    0.0000 H   0  0  0  0  0  0  0  0  0  0  0  0
    9.0240    6.8483    0.0000 H   0  0  0  0  0  0  0  0  0  0  0  0
    8.2886    7.3259    0.0000 H   0  0  0  0  0  0  0  0  0  0  0  0
    7.8111    6.5905    0.0000 H   0  0  0  0  0  0  0  0  0  0  0  0
    9.7325    5.3427    0.0000 H   0  0  0  0  0  0  0  0  0  0  0  0
   10.2100    6.0781    0.0000 H   0  0  0  0  0  0  0  0  0  0  0  0
    9.4747    6.5556    0.0000 H   0  0  0  0  0  0  0  0  0  0  0  0
    7.5184    6.1398    0.0000 H   0  0  0  0  0  0  0  0  0  0  0  0
    7.0408    5.4045    0.0000 H   0  0  0  0  0  0  0  0  0  0  0  0
    7.7762    4.9269    0.0000 H   0  0  0  0  0  0  0  0  0  0  0  0
    8.2742   -0.7674    0.0000 H   0  0  0  0  0  0  0  0  0  0  0  0
    8.6728   -0.0771    0.0000 H   0  0  0  0  0  0  0  0  0  0  0  0
    4.5981    3.4352    0.0000 H   0  0  0  0  0  0  0  0  0  0  0  0
    7.8501    1.3978    0.0000 H   0  0  0  0  0  0  0  0  0  0  0  0
    7.4516    0.7076    0.0000 H   0  0  0  0  0  0  0  0  0  0  0  0
    6.6592   -1.9948    0.0000 H   0  0  0  0  0  0  0  0  0  0  0  0
    2.8660    0.1952    0.0000 H   0  0  0  0  0  0  0  0  0  0  0  0
    4.2690    2.6252    0.0000 H   0  0  0  0  0  0  0  0  0  0  0  0
    1.4631    1.0052    0.0000 H   0  0  0  0  0  0  0  0  0  0  0  0
    2.8660    3.4352    0.0000 H   0  0  0  0  0  0  0  0  0  0  0  0
    1.4631    2.6252    0.0000 H   0  0  0  0  0  0  0  0  0  0  0  0
    7.4516   -3.0771    0.0000 H   0  0  0  0  0  0  0  0  0  0  0  0
    7.8501   -3.7674    0.0000 H   0  0  0  0  0  0  0  0  0  0  0  0
    7.5252   -4.8748    0.0000 H   0  0  0  0  0  0  0  0  0  0  0  0
    7.5252   -6.4948    0.0000 H   0  0  0  0  0  0  0  0  0  0  0  0
    8.9282   -7.3048    0.0000 H   0  0  0  0  0  0  0  0  0  0  0  0
   10.6810   -4.0302    0.0000 H   0  0  0  0  0  0  0  0  0  0  0  0
   10.6810   -7.3394    0.0000 H   0  0  0  0  0  0  0  0  0  0  0  0
   12.1300   -4.8519    0.0000 H   0  0  0  0  0  0  0  0  0  0  0  0
  1 19  1  0  0  0  0
  1 21  1  0  0  0  0
  2 35  1  0  0  0  0
  3 35  1  0  0  0  0
  4 35  1  0  0  0  0
 18  5  1  6  0  0  0
  5 73  1  0  0  0  0
  6 20  2  0  0  0  0
  7 23  2  0  0  0  0
  8 26  2  0  0  0  0
  9 40  1  0  0  0  0
  9 41  1  0  0  0  0
 10 38  2  0  0  0  0
 11 16  1  0  0  0  0
 11 20  1  0  0  0  0
 11 21  1  0  0  0  0
 17 12  1  1  0  0  0
 12 26  1  0  0  0  0
 12 59  1  0  0  0  0
 13 23  1  0  0  0  0
 13 24  1  0  0  0  0
 13 60  1  0  0  0  0
 25 14  1  6  0  0  0
 14 38  1  0  0  0  0
 14 76  1  0  0  0  0
 15 48  2  0  0  0  0
 15 49  1  0  0  0  0
 16 19  1  0  0  0  0
 16 23  1  1  0  0  0
 16 50  1  0  0  0  0
 17 18  1  0  0  0  0
 17 22  1  0  0  0  0
 17 51  1  0  0  0  0
 18 20  1  0  0  0  0
 18 52  1  0  0  0  0
 19 53  1  0  0  0  0
 19 54  1  0  0  0  0
 21 55  1  0  0  0  0
 21 56  1  0  0  0  0
 22 27  1  0  0  0  0
 22 57  1  0  0  0  0
 22 58  1  0  0  0  0
 24 28  1  0  0  0  0
 24 29  1  0  0  0  0
 24 30  1  0  0  0  0
 25 26  1  0  0  0  0
 25 31  1  0  0  0  0
 25 61  1  0  0  0  0
 27 33  2  0  0  0  0
 27 34  1  0  0  0  0
 28 62  1  0  0  0  0
 28 63  1  0  0  0  0
 28 64  1  0  0  0  0
 29 65  1  0  0  0  0
 29 66  1  0  0  0  0
 29 67  1  0  0  0  0
 30 68  1  0  0  0  0
 30 69  1  0  0  0  0
 30 70  1  0  0  0  0
 31 32  1  0  0  0  0
 31 71  1  0  0  0  0
 31 72  1  0  0  0  0
 32 35  1  0  0  0  0
 32 74  1  0  0  0  0
 32 75  1  0  0  0  0
 33 36  1  0  0  0  0
 33 77  1  0  0  0  0
 34 37  2  0  0  0  0
 34 78  1  0  0  0  0
 36 39  2  0  0  0  0
 36 79  1  0  0  0  0
 37 39  1  0  0  0  0
 37 80  1  0  0  0  0
 38 40  1  0  0  0  0
 39 81  1  0  0  0  0
 40 82  1  0  0  0  0
 40 83  1  0  0  0  0
 41 42  1  0  0  0  0
 41 43  2  0  0  0  0
 42 44  2  0  0  0  0
 42 47  1  0  0  0  0
 43 45  1  0  0  0  0
 43 84  1  0  0  0  0
 44 46  1  0  0  0  0
 44 48  1  0  0  0  0
 45 46  2  0  0  0  0
 45 85  1  0  0  0  0
 46 86  1  0  0  0  0
 47 49  2  0  0  0  0
 47 87  1  0  0  0  0
 48 88  1  0  0  0  0
 49 89  1  0  0  0  0
M  END
> <PUBCHEM_COMPOUND_CID>
509033
> <PUBCHEM_COMPOUND_CANONICALIZED>
1
> <PUBCHEM_CACTVS_COMPLEXITY>
1130
> <PUBCHEM_CACTVS_HBOND_ACCEPTOR>
11
> <PUBCHEM_CACTVS_HBOND_DONOR>
4
> <PUBCHEM_CACTVS_ROTATABLE_BOND>
14
> <PUBCHEM_CACTVS_SUBSKEYS>
AAADcfB/uYBAAAAAAAAAAAAAAAAAAWAAAAA8YIAAAAAAAACx9AAAHwQQCAAADLzl2ha+htPIFgioAjF3VAKCiCBxIjAI2KH+bJgOdvrk8b+XeCjk1hHY6Ae4yLCOgAABAAAYAAAAAAIAADAAAAAAAAAAAA==
> <PUBCHEM_IUPAC_OPENEYE_NAME>
(4R)-N-tert-butyl-3-[(2S,3S)-2-hydroxy-4-phenyl-3-[[(2S)-5,5,5-trifluoro-2-[[2-(5-isoquinolyloxy)acetyl]amino]pentanoyl]amino]butanoyl]thiazolidine-4-carboxamide
> <PUBCHEM_IUPAC_CAS_NAME>
(4R)-N-tert-butyl-3-[(2S,3S)-2-hydroxy-1-oxo-4-phenyl-3-[[(2S)-5,5,5-trifluoro-2-[[2-(5-isoquinolinyloxy)-1-oxoethyl]amino]-1-oxopentyl]amino]butyl]-4-thiazolidinecarboxamide
> <PUBCHEM_IUPAC_NAME_MARKUP>
(4<I>R</I>)-<I>N</I>-<I>tert</I>-butyl-3-[(2<I>S</I>,3<I>S</I>)-2-hydroxy-4-phenyl-3-[[(2<I>S</I>)-5,5,5-trifluoro-2-[(2-isoquinolin-5-yloxyacetyl)amino]pentanoyl]amino]butanoyl]-1,3-thiazolidine-4-carboxamide
> <PUBCHEM_IUPAC_NAME>
(4R)-N-tert-butyl-3-[(2S,3S)-2-hydroxy-4-phenyl-3-[[(2S)-5,5,5-trifluoro-2-[(2-isoquinolin-5-yloxyacetyl)amino]pentanoyl]amino]butanoyl]-1,3-thiazolidine-4-carboxamide
> <PUBCHEM_IUPAC_SYSTEMATIC_NAME>
(4R)-N-tert-butyl-3-[(2S,3S)-2-oxidanyl-4-phenyl-3-[[(2S)-5,5,5-tris(fluoranyl)-2-(2-isoquinolin-5-yloxyethanoylamino)pentanoyl]amino]butanoyl]-1,3-thiazolidine-4-carboxamide
> <PUBCHEM_IUPAC_TRADITIONAL_NAME>
(4R)-N-tert-butyl-3-[(2S,3S)-2-hydroxy-4-phenyl-3-[[(2S)-5,5,5-trifluoro-2-[[2-(5-isoquinolyloxy)acetyl]amino]pentanoyl]amino]butanoyl]thiazolidine-4-carboxamide
> <PUBCHEM_IUPAC_INCHI>
InChI=1S/C34H40F3N5O6S/c1-33(2,3)41-31(46)26-19-49-20-42(26)32(47)29(44)25(16-21-8-5-4-6-9-21)40-30(45)24(12-14-34(35,36)37)39-28(43)18-48-27-11-7-10-22-17-38-15-13-23(22)27/h4-11,13,15,17,24-26,29,44H,12,14,16,18-20H2,1-3H3,(H,39,43)(H,40,45)(H,41,46)/t24-,25-,26-,29-/m0/s1
> <PUBCHEM_IUPAC_INCHIKEY>
MZGYQZQOBQDPHG-VZTVMPNDSA-N
> <PUBCHEM_XLOGP3_AA>
4.4
> <PUBCHEM_EXACT_MASS>
703.26513967
> <PUBCHEM_MOLECULAR_FORMULA>
C34H40F3N5O6S
> <PUBCHEM_MOLECULAR_WEIGHT>
703.8
> <PUBCHEM_OPENEYE_CAN_SMILES>
CC(C)(C)NC(=O)C1CSCN1C(=O)C(C(CC2=CC=CC=C2)NC(=O)C(CCC(F)(F)F)NC(=O)COC3=CC=CC4=C3C=CN=C4)O
> <PUBCHEM_OPENEYE_ISO_SMILES>
CC(C)(C)NC(=O)[C@@H]1CSCN1C(=O)[C@H]([C@H](CC2=CC=CC=C2)NC(=O)[C@H](CCC(F)(F)F)NC(=O)COC3=CC=CC4=C3C=CN=C4)O
> <PUBCHEM_CACTVS_TPSA>
175
> <PUBCHEM_MONOISOTOPIC_WEIGHT>
703.26513967
> <PUBCHEM_TOTAL_CHARGE>
0
> <PUBCHEM_HEAVY_ATOM_COUNT>
49
> <PUBCHEM_ATOM_DEF_STEREO_COUNT>
4
> <PUBCHEM_ATOM_UDEF_STEREO_COUNT>
0
> <PUBCHEM_BOND_DEF_STEREO_COUNT>
0
> <PUBCHEM_BOND_UDEF_STEREO_COUNT>
0
> <PUBCHEM_ISOTOPIC_ATOM_COUNT>
0
> <PUBCHEM_COMPONENT_COUNT>
1
> <PUBCHEM_CACTVS_TAUTO_COUNT>
-1
> <PUBCHEM_COORDINATE_TYPE>
1
5
255
> <PUBCHEM_BONDANNOTATIONS>
17  12  5
25  14  6
15  48  8
15  49  8
16  23  5
27  33  8
27  34  8
33  36  8
34  37  8
36  39  8
37  39  8
41  42  8
41  43  8
42  44  8
42  47  8
43  45  8
44  46  8
44  48  8
45  46  8
47  49  8
18  5  6
$$$$
