509016
  -OEChem-10302200282D
 55 57  0     1  0  0  0  0  0999 V2000
    2.0000   -4.8512    0.0000 Cl  0  0  0  0  0  0  0  0  0  0  0  0
    3.7320   -5.8512    0.0000 Cl  0  0  0  0  0  0  0  0  0  0  0  0
    9.8988    5.6433    0.0000 S   0  0  0  0  0  0  0  0  0  0  0  0
    8.9282    1.1488    0.0000 O   0  0  0  0  0  0  0  0  0  0  0  0
    7.1962    4.1488    0.0000 O   0  0  0  0  0  0  0  0  0  0  0  0
    8.0622    4.6488    0.0000 O   0  0  0  0  0  0  0  0  0  0  0  0
    4.5981   -1.3512    0.0000 N   0  0  0  0  0  0  0  0  0  0  0  0
    7.1962    1.1488    0.0000 N   0  0  0  0  0  0  0  0  0  0  0  0
    8.9282    3.1488    0.0000 N   0  0  0  0  0  0  0  0  0  0  0  0
    6.3301   -0.3512    0.0000 C   0  0  0  0  0  0  0  0  0  0  0  0
    5.4641    0.1488    0.0000 C   0  0  0  0  0  0  0  0  0  0  0  0
    6.3301   -1.3512    0.0000 C   0  0  0  0  0  0  0  0  0  0  0  0
    4.5981   -0.3512    0.0000 C   0  0  0  0  0  0  0  0  0  0  0  0
    5.4641   -1.8512    0.0000 C   0  0  0  0  0  0  0  0  0  0  0  0
    7.1962    0.1488    0.0000 C   0  0  0  0  0  0  0  0  0  0  0  0
    3.7320   -1.8512    0.0000 C   0  0  0  0  0  0  0  0  0  0  0  0
    3.7320   -2.8512    0.0000 C   0  0  0  0  0  0  0  0  0  0  0  0
    8.0622    1.6488    0.0000 C   0  0  0  0  0  0  0  0  0  0  0  0
    8.0622    2.6488    0.0000 C   0  0  2  0  0  0  0  0  0  0  0  0
    2.8660   -3.3512    0.0000 C   0  0  0  0  0  0  0  0  0  0  0  0
    4.5981   -3.3512    0.0000 C   0  0  0  0  0  0  0  0  0  0  0  0
    7.1962    3.1488    0.0000 C   0  0  0  0  0  0  0  0  0  0  0  0
    2.8660   -4.3512    0.0000 C   0  0  0  0  0  0  0  0  0  0  0  0
    4.5981   -4.3512    0.0000 C   0  0  0  0  0  0  0  0  0  0  0  0
    3.7320   -4.8512    0.0000 C   0  0  0  0  0  0  0  0  0  0  0  0
    8.9282    4.1488    0.0000 C   0  0  0  0  0  0  0  0  0  0  0  0
    9.7942    4.6488    0.0000 C   0  0  0  0  0  0  0  0  0  0  0  0
   10.7078    4.2420    0.0000 C   0  0  0  0  0  0  0  0  0  0  0  0
   11.3769    4.9852    0.0000 C   0  0  0  0  0  0  0  0  0  0  0  0
   10.8769    5.8512    0.0000 C   0  0  0  0  0  0  0  0  0  0  0  0
    6.8671   -0.6612    0.0000 H   0  0  0  0  0  0  0  0  0  0  0  0
    5.8626    0.6237    0.0000 H   0  0  0  0  0  0  0  0  0  0  0  0
    5.0656    0.6237    0.0000 H   0  0  0  0  0  0  0  0  0  0  0  0
    6.5422   -1.9338    0.0000 H   0  0  0  0  0  0  0  0  0  0  0  0
    6.9407   -1.2436    0.0000 H   0  0  0  0  0  0  0  0  0  0  0  0
    4.3860    0.2314    0.0000 H   0  0  0  0  0  0  0  0  0  0  0  0
    3.9875   -0.4589    0.0000 H   0  0  0  0  0  0  0  0  0  0  0  0
    5.0656   -2.3262    0.0000 H   0  0  0  0  0  0  0  0  0  0  0  0
    5.8626   -2.3262    0.0000 H   0  0  0  0  0  0  0  0  0  0  0  0
    7.4082   -0.4338    0.0000 H   0  0  0  0  0  0  0  0  0  0  0  0
    7.8067    0.2564    0.0000 H   0  0  0  0  0  0  0  0  0  0  0  0
    3.5200   -1.2686    0.0000 H   0  0  0  0  0  0  0  0  0  0  0  0
    3.1215   -1.9589    0.0000 H   0  0  0  0  0  0  0  0  0  0  0  0
    6.6592    1.4588    0.0000 H   0  0  0  0  0  0  0  0  0  0  0  0
    8.0622    3.2688    0.0000 H   0  0  0  0  0  0  0  0  0  0  0  0
    2.3291   -3.0412    0.0000 H   0  0  0  0  0  0  0  0  0  0  0  0
    5.1350   -3.0412    0.0000 H   0  0  0  0  0  0  0  0  0  0  0  0
    6.5856    3.2564    0.0000 H   0  0  0  0  0  0  0  0  0  0  0  0
    6.9841    2.5662    0.0000 H   0  0  0  0  0  0  0  0  0  0  0  0
    9.4651    2.8388    0.0000 H   0  0  0  0  0  0  0  0  0  0  0  0
    5.1350   -4.6612    0.0000 H   0  0  0  0  0  0  0  0  0  0  0  0
    6.6592    4.4588    0.0000 H   0  0  0  0  0  0  0  0  0  0  0  0
   10.8367    3.6356    0.0000 H   0  0  0  0  0  0  0  0  0  0  0  0
   11.9935    4.9204    0.0000 H   0  0  0  0  0  0  0  0  0  0  0  0
   11.1291    6.4176    0.0000 H   0  0  0  0  0  0  0  0  0  0  0  0
  1 23  1  0  0  0  0
  2 25  1  0  0  0  0
  3 27  1  0  0  0  0
  3 30  1  0  0  0  0
  4 18  2  0  0  0  0
  5 22  1  0  0  0  0
  5 52  1  0  0  0  0
  6 26  2  0  0  0  0
  7 13  1  0  0  0  0
  7 14  1  0  0  0  0
  7 16  1  0  0  0  0
  8 15  1  0  0  0  0
  8 18  1  0  0  0  0
  8 44  1  0  0  0  0
 19  9  1  6  0  0  0
  9 26  1  0  0  0  0
  9 50  1  0  0  0  0
 10 11  1  0  0  0  0
 10 12  1  0  0  0  0
 10 15  1  0  0  0  0
 10 31  1  0  0  0  0
 11 13  1  0  0  0  0
 11 32  1  0  0  0  0
 11 33  1  0  0  0  0
 12 14  1  0  0  0  0
 12 34  1  0  0  0  0
 12 35  1  0  0  0  0
 13 36  1  0  0  0  0
 13 37  1  0  0  0  0
 14 38  1  0  0  0  0
 14 39  1  0  0  0  0
 15 40  1  0  0  0  0
 15 41  1  0  0  0  0
 16 17  1  0  0  0  0
 16 42  1  0  0  0  0
 16 43  1  0  0  0  0
 17 20  2  0  0  0  0
 17 21  1  0  0  0  0
 18 19  1  0  0  0  0
 19 22  1  0  0  0  0
 19 45  1  0  0  0  0
 20 23  1  0  0  0  0
 20 46  1  0  0  0  0
 21 24  2  0  0  0  0
 21 47  1  0  0  0  0
 22 48  1  0  0  0  0
 22 49  1  0  0  0  0
 23 25  2  0  0  0  0
 24 25  1  0  0  0  0
 24 51  1  0  0  0  0
 26 27  1  0  0  0  0
 27 28  2  0  0  0  0
 28 29  1  0  0  0  0
 28 53  1  0  0  0  0
 29 30  2  0  0  0  0
 29 54  1  0  0  0  0
 30 55  1  0  0  0  0
M  END
> <PUBCHEM_COMPOUND_CID>
509016
> <PUBCHEM_COMPOUND_CANONICALIZED>
1
> <PUBCHEM_CACTVS_COMPLEXITY>
578
> <PUBCHEM_CACTVS_HBOND_ACCEPTOR>
5
> <PUBCHEM_CACTVS_HBOND_DONOR>
3
> <PUBCHEM_CACTVS_ROTATABLE_BOND>
8
> <PUBCHEM_CACTVS_SUBSKEYS>
AAADceB7MABGAAAAAAAAAAAAAAAAASAAAAA8QAAAAAAAAAABwAAAHgYQCAAADSrl2CawAYPAAgiMAiFSEACDAIAkDRBIitmIBsgKcDahlzGUYQhitgC4iYcYgAAOBAAAIAAAAAQIAABAAAAACAAAAAAAAA==
> <PUBCHEM_IUPAC_OPENEYE_NAME>
N-[(1S)-2-[[1-[(3,4-dichlorophenyl)methyl]-4-piperidyl]methylamino]-1-(hydroxymethyl)-2-oxo-ethyl]thiophene-2-carboxamide
> <PUBCHEM_IUPAC_CAS_NAME>
N-[(2S)-1-[[1-[(3,4-dichlorophenyl)methyl]-4-piperidinyl]methylamino]-3-hydroxy-1-oxopropan-2-yl]-2-thiophenecarboxamide
> <PUBCHEM_IUPAC_NAME_MARKUP>
<I>N</I>-[(2<I>S</I>)-1-[[1-[(3,4-dichlorophenyl)methyl]piperidin-4-yl]methylamino]-3-hydroxy-1-oxopropan-2-yl]thiophene-2-carboxamide
> <PUBCHEM_IUPAC_NAME>
N-[(2S)-1-[[1-[(3,4-dichlorophenyl)methyl]piperidin-4-yl]methylamino]-3-hydroxy-1-oxopropan-2-yl]thiophene-2-carboxamide
> <PUBCHEM_IUPAC_SYSTEMATIC_NAME>
N-[(2S)-1-[[1-[(3,4-dichlorophenyl)methyl]piperidin-4-yl]methylamino]-3-oxidanyl-1-oxidanylidene-propan-2-yl]thiophene-2-carboxamide
> <PUBCHEM_IUPAC_TRADITIONAL_NAME>
N-[(1S)-2-[[1-(3,4-dichlorobenzyl)-4-piperidyl]methylamino]-2-keto-1-methylol-ethyl]thiophene-2-carboxamide
> <PUBCHEM_IUPAC_INCHI>
InChI=1S/C21H25Cl2N3O3S/c22-16-4-3-15(10-17(16)23)12-26-7-5-14(6-8-26)11-24-20(28)18(13-27)25-21(29)19-2-1-9-30-19/h1-4,9-10,14,18,27H,5-8,11-13H2,(H,24,28)(H,25,29)/t18-/m0/s1
> <PUBCHEM_IUPAC_INCHIKEY>
ISBZRCDQLNMHOR-SFHVURJKSA-N
> <PUBCHEM_XLOGP3_AA>
3.4
> <PUBCHEM_EXACT_MASS>
469.0993682
> <PUBCHEM_MOLECULAR_FORMULA>
C21H25Cl2N3O3S
> <PUBCHEM_MOLECULAR_WEIGHT>
470.4
> <PUBCHEM_OPENEYE_CAN_SMILES>
C1CN(CCC1CNC(=O)C(CO)NC(=O)C2=CC=CS2)CC3=CC(=C(C=C3)Cl)Cl
> <PUBCHEM_OPENEYE_ISO_SMILES>
C1CN(CCC1CNC(=O)[C@H](CO)NC(=O)C2=CC=CS2)CC3=CC(=C(C=C3)Cl)Cl
> <PUBCHEM_CACTVS_TPSA>
110
> <PUBCHEM_MONOISOTOPIC_WEIGHT>
469.0993682
> <PUBCHEM_TOTAL_CHARGE>
0
> <PUBCHEM_HEAVY_ATOM_COUNT>
30
> <PUBCHEM_ATOM_DEF_STEREO_COUNT>
1
> <PUBCHEM_ATOM_UDEF_STEREO_COUNT>
0
> <PUBCHEM_BOND_DEF_STEREO_COUNT>
0
> <PUBCHEM_BOND_UDEF_STEREO_COUNT>
0
> <PUBCHEM_ISOTOPIC_ATOM_COUNT>
0
> <PUBCHEM_COMPONENT_COUNT>
1
> <PUBCHEM_CACTVS_TAUTO_COUNT>
-1
> <PUBCHEM_COORDINATE_TYPE>
1
5
255
> <PUBCHEM_BONDANNOTATIONS>
17  20  8
17  21  8
20  23  8
21  24  8
23  25  8
24  25  8
27  28  8
28  29  8
29  30  8
3  27  8
3  30  8
19  9  6
$$$$
