509094
  -OEChem-10302200282D
 72 77  0     1  0  0  0  0  0999 V2000
    6.1279   -0.0490    0.0000 O   0  0  0  0  0  0  0  0  0  0  0  0
    9.9340   -1.9887    0.0000 O   0  0  0  0  0  0  0  0  0  0  0  0
   10.5920   -1.0491    0.0000 O   0  0  0  0  0  0  0  0  0  0  0  0
   11.0088    0.9474    0.0000 O   0  0  0  0  0  0  0  0  0  0  0  0
    5.2619    1.4510    0.0000 O   0  0  0  0  0  0  0  0  0  0  0  0
    2.5836    0.1463    0.0000 O   0  0  0  0  0  0  0  0  0  0  0  0
    2.5836    1.7558    0.0000 O   0  0  0  0  0  0  0  0  0  0  0  0
    7.8600   -0.0490    0.0000 C   0  0  3  0  0  0  0  0  0  0  0  0
    8.7260   -0.5490    0.0000 C   0  0  3  0  0  0  0  0  0  0  0  0
    9.5920   -0.0490    0.0000 C   0  0  3  0  0  0  0  0  0  0  0  0
    9.5920    0.9510    0.0000 C   0  0  1  0  0  0  0  0  0  0  0  0
    7.1229   -0.7161    0.0000 C   0  0  3  0  0  0  0  0  0  0  0  0
    8.7260    1.4510    0.0000 C   0  0  2  0  0  0  0  0  0  0  0  0
    8.1649    0.3302    0.0000 C   0  0  0  0  0  0  0  0  0  0  0  0
    7.8600    0.9510    0.0000 C   0  0  0  0  0  0  0  0  0  0  0  0
    8.5168   -1.5208    0.0000 C   0  0  0  0  0  0  0  0  0  0  0  0
    8.9352    2.4228    0.0000 C   0  0  1  0  0  0  0  0  0  0  0  0
   10.3290    1.6181    0.0000 C   0  0  0  0  0  0  0  0  0  0  0  0
    7.5280   -1.6238    0.0000 C   0  0  0  0  0  0  0  0  0  0  0  0
    6.9939    0.4510    0.0000 C   0  0  0  0  0  0  0  0  0  0  0  0
    9.9239    2.5259    0.0000 C   0  0  0  0  0  0  0  0  0  0  0  0
    9.5920   -1.0490    0.0000 C   0  0  0  0  0  0  0  0  0  0  0  0
   10.5880    0.0402    0.0000 C   0  0  0  0  0  0  0  0  0  0  0  0
    8.7230   -2.4993    0.0000 C   0  0  0  0  0  0  0  0  0  0  0  0
    8.2673    3.1671    0.0000 C   0  0  0  0  0  0  0  0  0  0  0  0
    7.9787   -3.1671    0.0000 C   0  0  0  0  0  0  0  0  0  0  0  0
    9.6735   -2.8100    0.0000 C   0  0  0  0  0  0  0  0  0  0  0  0
    5.2619    0.4510    0.0000 C   0  0  2  0  0  0  0  0  0  0  0  0
    4.3958   -0.0490    0.0000 C   0  0  0  0  0  0  0  0  0  0  0  0
    3.5298    0.4510    0.0000 C   0  0  3  0  0  0  0  0  0  0  0  0
    4.3958    1.9510    0.0000 C   0  0  1  0  0  0  0  0  0  0  0  0
    3.5298    1.4510    0.0000 C   0  0  3  0  0  0  0  0  0  0  0  0
    4.3958    2.9510    0.0000 C   0  0  0  0  0  0  0  0  0  0  0  0
    2.0000    0.9510    0.0000 C   0  0  0  0  0  0  0  0  0  0  0  0
   10.3281    0.5260    0.0000 H   0  0  0  0  0  0  0  0  0  0  0  0
    6.5132   -0.6040    0.0000 H   0  0  0  0  0  0  0  0  0  0  0  0
    7.9899    1.8760    0.0000 H   0  0  0  0  0  0  0  0  0  0  0  0
    8.4258    0.8927    0.0000 H   0  0  0  0  0  0  0  0  0  0  0  0
    7.6563    0.6848    0.0000 H   0  0  0  0  0  0  0  0  0  0  0  0
    7.6479    1.5336    0.0000 H   0  0  0  0  0  0  0  0  0  0  0  0
    7.2494    0.8434    0.0000 H   0  0  0  0  0  0  0  0  0  0  0  0
    9.1581    3.0014    0.0000 H   0  0  0  0  0  0  0  0  0  0  0  0
   10.6945    1.1172    0.0000 H   0  0  0  0  0  0  0  0  0  0  0  0
   10.8655    1.9289    0.0000 H   0  0  0  0  0  0  0  0  0  0  0  0
    7.2180   -2.1608    0.0000 H   0  0  0  0  0  0  0  0  0  0  0  0
    7.3925    0.9260    0.0000 H   0  0  0  0  0  0  0  0  0  0  0  0
    6.5954    0.9260    0.0000 H   0  0  0  0  0  0  0  0  0  0  0  0
   10.5135    2.7177    0.0000 H   0  0  0  0  0  0  0  0  0  0  0  0
    9.7952    3.1324    0.0000 H   0  0  0  0  0  0  0  0  0  0  0  0
   10.9447   -0.4669    0.0000 H   0  0  0  0  0  0  0  0  0  0  0  0
    8.1337   -2.3067    0.0000 H   0  0  0  0  0  0  0  0  0  0  0  0
    8.7288    3.5812    0.0000 H   0  0  0  0  0  0  0  0  0  0  0  0
    7.8533    3.6286    0.0000 H   0  0  0  0  0  0  0  0  0  0  0  0
    7.8059    2.7531    0.0000 H   0  0  0  0  0  0  0  0  0  0  0  0
    7.5646   -2.7057    0.0000 H   0  0  0  0  0  0  0  0  0  0  0  0
    7.5172   -3.5812    0.0000 H   0  0  0  0  0  0  0  0  0  0  0  0
    8.3928   -3.6286    0.0000 H   0  0  0  0  0  0  0  0  0  0  0  0
    9.4809   -3.3993    0.0000 H   0  0  0  0  0  0  0  0  0  0  0  0
   10.2628   -3.0026    0.0000 H   0  0  0  0  0  0  0  0  0  0  0  0
    9.8661   -2.2206    0.0000 H   0  0  0  0  0  0  0  0  0  0  0  0
   10.5446   -2.0963    0.0000 H   0  0  0  0  0  0  0  0  0  0  0  0
    5.2619   -0.1690    0.0000 H   0  0  0  0  0  0  0  0  0  0  0  0
    3.9973   -0.5239    0.0000 H   0  0  0  0  0  0  0  0  0  0  0  0
    4.7944   -0.5239    0.0000 H   0  0  0  0  0  0  0  0  0  0  0  0
    3.4642   -0.1655    0.0000 H   0  0  0  0  0  0  0  0  0  0  0  0
    4.9328    2.2610    0.0000 H   0  0  0  0  0  0  0  0  0  0  0  0
    3.4642    2.0675    0.0000 H   0  0  0  0  0  0  0  0  0  0  0  0
    5.0158    2.9510    0.0000 H   0  0  0  0  0  0  0  0  0  0  0  0
    4.3958    3.5710    0.0000 H   0  0  0  0  0  0  0  0  0  0  0  0
    3.7758    2.9510    0.0000 H   0  0  0  0  0  0  0  0  0  0  0  0
    1.5391    1.3658    0.0000 H   0  0  0  0  0  0  0  0  0  0  0  0
    1.5391    0.5363    0.0000 H   0  0  0  0  0  0  0  0  0  0  0  0
  1 20  1  0  0  0  0
 28  1  1  1  0  0  0
  2 22  1  0  0  0  0
  2 61  1  0  0  0  0
  3 22  2  0  0  0  0
  4 23  2  0  0  0  0
  5 28  1  0  0  0  0
  5 31  1  0  0  0  0
  6 30  1  0  0  0  0
  6 34  1  0  0  0  0
  7 32  1  0  0  0  0
  7 34  1  0  0  0  0
  8  9  1  0  0  0  0
  8 12  1  0  0  0  0
  8 15  1  0  0  0  0
  8 20  1  0  0  0  0
  9 10  1  0  0  0  0
  9 16  1  0  0  0  0
  9 22  1  0  0  0  0
 10 11  1  0  0  0  0
 10 14  1  0  0  0  0
 10 23  1  0  0  0  0
 11 13  1  0  0  0  0
 11 18  1  0  0  0  0
 11 35  1  6  0  0  0
 12 14  1  0  0  0  0
 12 19  1  0  0  0  0
 12 36  1  0  0  0  0
 13 15  1  0  0  0  0
 13 17  1  0  0  0  0
 13 37  1  1  0  0  0
 14 38  1  0  0  0  0
 14 39  1  0  0  0  0
 15 40  1  0  0  0  0
 15 41  1  0  0  0  0
 16 19  2  0  0  0  0
 16 24  1  0  0  0  0
 17 21  1  0  0  0  0
 17 25  1  6  0  0  0
 17 42  1  0  0  0  0
 18 21  1  0  0  0  0
 18 43  1  0  0  0  0
 18 44  1  0  0  0  0
 19 45  1  0  0  0  0
 20 46  1  0  0  0  0
 20 47  1  0  0  0  0
 21 48  1  0  0  0  0
 21 49  1  0  0  0  0
 23 50  1  0  0  0  0
 24 26  1  0  0  0  0
 24 27  1  0  0  0  0
 24 51  1  0  0  0  0
 25 52  1  0  0  0  0
 25 53  1  0  0  0  0
 25 54  1  0  0  0  0
 26 55  1  0  0  0  0
 26 56  1  0  0  0  0
 26 57  1  0  0  0  0
 27 58  1  0  0  0  0
 27 59  1  0  0  0  0
 27 60  1  0  0  0  0
 28 29  1  0  0  0  0
 28 62  1  0  0  0  0
 29 30  1  0  0  0  0
 29 63  1  0  0  0  0
 29 64  1  0  0  0  0
 30 32  1  0  0  0  0
 30 65  1  0  0  0  0
 31 32  1  0  0  0  0
 31 33  1  1  0  0  0
 31 66  1  0  0  0  0
 32 67  1  0  0  0  0
 33 68  1  0  0  0  0
 33 69  1  0  0  0  0
 33 70  1  0  0  0  0
 34 71  1  0  0  0  0
 34 72  1  0  0  0  0
M  END
> <PUBCHEM_COMPOUND_CID>
509094
> <PUBCHEM_COMPOUND_CANONICALIZED>
1
> <PUBCHEM_CACTVS_COMPLEXITY>
915
> <PUBCHEM_CACTVS_HBOND_ACCEPTOR>
7
> <PUBCHEM_CACTVS_HBOND_DONOR>
1
> <PUBCHEM_CACTVS_ROTATABLE_BOND>
6
> <PUBCHEM_CACTVS_SUBSKEYS>
AAADcfB4OAAAAAAAAAAAAAAAAAAAAaMECAA0QIAABgAAAGgAAAAAGgAACAAADxSwgAMCCAAABgCIAijSiAAAAAAgAAAACAEAAAgRABIAAQAiQAAFwAAOAAPL7PyPgAAAAAAAAACAAAQAACAAAQAACAAAAA==
> <PUBCHEM_IUPAC_OPENEYE_NAME>
(4R,5R,8R)-9-formyl-13-isopropyl-5-methyl-2-[[(4R,6R)-4-methyl-4,6,7,7a-tetrahydro-3aH-[1,3]dioxolo[4,5-c]pyran-6-yl]oxymethyl]tetracyclo[7.4.0.02,11.04,8]tridec-12-ene-1-carboxylic acid
> <PUBCHEM_IUPAC_CAS_NAME>
(4R,5R,8R)-9-formyl-5-methyl-2-[[(4R,6R)-4-methyl-4,6,7,7a-tetrahydro-3aH-[1,3]dioxolo[4,5-c]pyran-6-yl]oxymethyl]-13-propan-2-yl-1-tetracyclo[7.4.0.02,11.04,8]tridec-12-enecarboxylic acid
> <PUBCHEM_IUPAC_NAME_MARKUP>
(4<I>R</I>,5<I>R</I>,8<I>R</I>)-9-formyl-5-methyl-2-[[(4<I>R</I>,6<I>R</I>)-4-methyl-4,6,7,7<I>a</I>-tetrahydro-3<I>a</I><I>H</I>-[1,3]dioxolo[4,5-c]pyran-6-yl]oxymethyl]-13-propan-2-yltetracyclo[7.4.0.0<SUP>2,11</SUP>.0<SUP>4,8</SUP>]tridec-12-ene-1-carboxylic acid
> <PUBCHEM_IUPAC_NAME>
(4R,5R,8R)-9-formyl-5-methyl-2-[[(4R,6R)-4-methyl-4,6,7,7a-tetrahydro-3aH-[1,3]dioxolo[4,5-c]pyran-6-yl]oxymethyl]-13-propan-2-yltetracyclo[7.4.0.02,11.04,8]tridec-12-ene-1-carboxylic acid
> <PUBCHEM_IUPAC_SYSTEMATIC_NAME>
(4R,5R,8R)-9-methanoyl-5-methyl-2-[[(4R,6R)-4-methyl-4,6,7,7a-tetrahydro-3aH-[1,3]dioxolo[4,5-c]pyran-6-yl]oxymethyl]-13-propan-2-yl-tetracyclo[7.4.0.02,11.04,8]tridec-12-ene-1-carboxylic acid
> <PUBCHEM_IUPAC_TRADITIONAL_NAME>
(4R,5R,8R)-9-formyl-13-isopropyl-5-methyl-2-[[(4R,6R)-4-methyl-4,6,7,7a-tetrahydro-3aH-[1,3]dioxolo[4,5-c]pyran-6-yl]oxymethyl]tetracyclo[7.4.0.02,11.04,8]tridec-12-ene-1-carboxylic acid
> <PUBCHEM_IUPAC_INCHI>
InChI=1S/C27H38O7/c1-14(2)20-7-17-9-25(11-28)19-6-5-15(3)18(19)10-26(17,27(20,25)24(29)30)12-31-22-8-21-23(16(4)34-22)33-13-32-21/h7,11,14-19,21-23H,5-6,8-10,12-13H2,1-4H3,(H,29,30)/t15-,16-,17?,18-,19-,21?,22-,23?,25?,26?,27?/m1/s1
> <PUBCHEM_IUPAC_INCHIKEY>
VFVJNOUIJKMRRF-DDAKBVGTSA-N
> <PUBCHEM_XLOGP3_AA>
2.9
> <PUBCHEM_EXACT_MASS>
474.26175355
> <PUBCHEM_MOLECULAR_FORMULA>
C27H38O7
> <PUBCHEM_MOLECULAR_WEIGHT>
474.6
> <PUBCHEM_OPENEYE_CAN_SMILES>
CC1CCC2C1CC3(C4CC2(C3(C(=C4)C(C)C)C(=O)O)C=O)COC5CC6C(C(O5)C)OCO6
> <PUBCHEM_OPENEYE_ISO_SMILES>
C[C@@H]1CC[C@@H]2[C@@H]1CC3(C4CC2(C3(C(=C4)C(C)C)C(=O)O)C=O)CO[C@H]5CC6C([C@H](O5)C)OCO6
> <PUBCHEM_CACTVS_TPSA>
91.3
> <PUBCHEM_MONOISOTOPIC_WEIGHT>
474.26175355
> <PUBCHEM_TOTAL_CHARGE>
0
> <PUBCHEM_HEAVY_ATOM_COUNT>
34
> <PUBCHEM_ATOM_DEF_STEREO_COUNT>
5
> <PUBCHEM_ATOM_UDEF_STEREO_COUNT>
6
> <PUBCHEM_BOND_DEF_STEREO_COUNT>
0
> <PUBCHEM_BOND_UDEF_STEREO_COUNT>
0
> <PUBCHEM_ISOTOPIC_ATOM_COUNT>
0
> <PUBCHEM_COMPONENT_COUNT>
1
> <PUBCHEM_CACTVS_TAUTO_COUNT>
-1
> <PUBCHEM_COORDINATE_TYPE>
1
5
255
> <PUBCHEM_BONDANNOTATIONS>
28  1  5
10  14  3
11  35  6
12  14  3
13  37  5
17  25  6
30  29  3
31  33  5
32  7  3
8  20  3
9  22  3
$$$$
