509012
  -OEChem-10302200282D
 64 66  0     1  0  0  0  0  0999 V2000
    2.0000   -6.1830    0.0000 Cl  0  0  0  0  0  0  0  0  0  0  0  0
    3.7320   -7.1830    0.0000 Cl  0  0  0  0  0  0  0  0  0  0  0  0
    9.7942    6.3170    0.0000 S   0  0  0  0  0  0  0  0  0  0  0  0
    6.3301   -1.6830    0.0000 O   0  0  0  0  0  0  0  0  0  0  0  0
    3.7320   -0.1830    0.0000 O   0  0  0  0  0  0  0  0  0  0  0  0
    9.2942    7.1830    0.0000 O   0  0  0  0  0  0  0  0  0  0  0  0
   10.2942    5.4510    0.0000 O   0  0  0  0  0  0  0  0  0  0  0  0
    2.8660   -2.6830    0.0000 O   0  0  0  0  0  0  0  0  0  0  0  0
    6.3301    3.3170    0.0000 N   0  0  0  0  0  0  0  0  0  0  0  0
    5.4641   -0.1830    0.0000 N   0  0  0  0  0  0  0  0  0  0  0  0
    4.5981   -2.6830    0.0000 N   0  0  0  0  0  0  0  0  0  0  0  0
    6.3301    1.3170    0.0000 C   0  0  0  0  0  0  0  0  0  0  0  0
    5.4641    1.8170    0.0000 C   0  0  0  0  0  0  0  0  0  0  0  0
    7.1962    1.8170    0.0000 C   0  0  0  0  0  0  0  0  0  0  0  0
    5.4641    2.8170    0.0000 C   0  0  0  0  0  0  0  0  0  0  0  0
    7.1962    2.8170    0.0000 C   0  0  0  0  0  0  0  0  0  0  0  0
    6.3301    0.3170    0.0000 C   0  0  0  0  0  0  0  0  0  0  0  0
    6.3301    4.3170    0.0000 C   0  0  0  0  0  0  0  0  0  0  0  0
    7.1962    4.8170    0.0000 C   0  0  0  0  0  0  0  0  0  0  0  0
    5.4641   -1.1830    0.0000 C   0  0  0  0  0  0  0  0  0  0  0  0
    7.1962    5.8170    0.0000 C   0  0  0  0  0  0  0  0  0  0  0  0
    8.0622    4.3170    0.0000 C   0  0  0  0  0  0  0  0  0  0  0  0
    4.5981   -1.6830    0.0000 C   0  0  2  0  0  0  0  0  0  0  0  0
    8.0622    6.3170    0.0000 C   0  0  0  0  0  0  0  0  0  0  0  0
    8.9282    4.8170    0.0000 C   0  0  0  0  0  0  0  0  0  0  0  0
    8.9282    5.8170    0.0000 C   0  0  0  0  0  0  0  0  0  0  0  0
    3.7320   -1.1830    0.0000 C   0  0  0  0  0  0  0  0  0  0  0  0
    3.7320   -3.1830    0.0000 C   0  0  0  0  0  0  0  0  0  0  0  0
   10.6603    6.8170    0.0000 C   0  0  0  0  0  0  0  0  0  0  0  0
    3.7320   -4.1830    0.0000 C   0  0  0  0  0  0  0  0  0  0  0  0
    2.8660   -4.6830    0.0000 C   0  0  0  0  0  0  0  0  0  0  0  0
    4.5981   -4.6830    0.0000 C   0  0  0  0  0  0  0  0  0  0  0  0
    2.8660   -5.6830    0.0000 C   0  0  0  0  0  0  0  0  0  0  0  0
    4.5981   -5.6830    0.0000 C   0  0  0  0  0  0  0  0  0  0  0  0
    3.7320   -6.1830    0.0000 C   0  0  0  0  0  0  0  0  0  0  0  0
    6.8671    1.0070    0.0000 H   0  0  0  0  0  0  0  0  0  0  0  0
    4.8535    1.9246    0.0000 H   0  0  0  0  0  0  0  0  0  0  0  0
    5.2520    1.2344    0.0000 H   0  0  0  0  0  0  0  0  0  0  0  0
    7.4082    1.2344    0.0000 H   0  0  0  0  0  0  0  0  0  0  0  0
    7.8067    1.9246    0.0000 H   0  0  0  0  0  0  0  0  0  0  0  0
    5.2520    3.3996    0.0000 H   0  0  0  0  0  0  0  0  0  0  0  0
    4.8535    2.7093    0.0000 H   0  0  0  0  0  0  0  0  0  0  0  0
    7.8067    2.7093    0.0000 H   0  0  0  0  0  0  0  0  0  0  0  0
    7.4082    3.3996    0.0000 H   0  0  0  0  0  0  0  0  0  0  0  0
    6.5422   -0.2656    0.0000 H   0  0  0  0  0  0  0  0  0  0  0  0
    6.9407    0.4246    0.0000 H   0  0  0  0  0  0  0  0  0  0  0  0
    6.1181    4.8996    0.0000 H   0  0  0  0  0  0  0  0  0  0  0  0
    5.7196    4.2093    0.0000 H   0  0  0  0  0  0  0  0  0  0  0  0
    4.9272    0.1270    0.0000 H   0  0  0  0  0  0  0  0  0  0  0  0
    6.6592    6.1270    0.0000 H   0  0  0  0  0  0  0  0  0  0  0  0
    8.0622    3.6970    0.0000 H   0  0  0  0  0  0  0  0  0  0  0  0
    5.1350   -1.9930    0.0000 H   0  0  0  0  0  0  0  0  0  0  0  0
    8.0622    6.9370    0.0000 H   0  0  0  0  0  0  0  0  0  0  0  0
    9.4651    4.5070    0.0000 H   0  0  0  0  0  0  0  0  0  0  0  0
    3.1215   -1.0754    0.0000 H   0  0  0  0  0  0  0  0  0  0  0  0
    3.5200   -1.7656    0.0000 H   0  0  0  0  0  0  0  0  0  0  0  0
    5.1350   -2.9930    0.0000 H   0  0  0  0  0  0  0  0  0  0  0  0
   10.9703    6.2800    0.0000 H   0  0  0  0  0  0  0  0  0  0  0  0
   11.1972    7.1270    0.0000 H   0  0  0  0  0  0  0  0  0  0  0  0
   10.3503    7.3539    0.0000 H   0  0  0  0  0  0  0  0  0  0  0  0
    3.1951    0.1270    0.0000 H   0  0  0  0  0  0  0  0  0  0  0  0
    2.3291   -4.3730    0.0000 H   0  0  0  0  0  0  0  0  0  0  0  0
    5.1350   -4.3730    0.0000 H   0  0  0  0  0  0  0  0  0  0  0  0
    5.1350   -5.9930    0.0000 H   0  0  0  0  0  0  0  0  0  0  0  0
  1 33  1  0  0  0  0
  2 35  1  0  0  0  0
  3  6  2  0  0  0  0
  3  7  2  0  0  0  0
  3 26  1  0  0  0  0
  3 29  1  0  0  0  0
  4 20  2  0  0  0  0
  5 27  1  0  0  0  0
  5 61  1  0  0  0  0
  8 28  2  0  0  0  0
  9 15  1  0  0  0  0
  9 16  1  0  0  0  0
  9 18  1  0  0  0  0
 10 17  1  0  0  0  0
 10 20  1  0  0  0  0
 10 49  1  0  0  0  0
 23 11  1  1  0  0  0
 11 28  1  0  0  0  0
 11 57  1  0  0  0  0
 12 13  1  0  0  0  0
 12 14  1  0  0  0  0
 12 17  1  0  0  0  0
 12 36  1  0  0  0  0
 13 15  1  0  0  0  0
 13 37  1  0  0  0  0
 13 38  1  0  0  0  0
 14 16  1  0  0  0  0
 14 39  1  0  0  0  0
 14 40  1  0  0  0  0
 15 41  1  0  0  0  0
 15 42  1  0  0  0  0
 16 43  1  0  0  0  0
 16 44  1  0  0  0  0
 17 45  1  0  0  0  0
 17 46  1  0  0  0  0
 18 19  1  0  0  0  0
 18 47  1  0  0  0  0
 18 48  1  0  0  0  0
 19 21  2  0  0  0  0
 19 22  1  0  0  0  0
 20 23  1  0  0  0  0
 21 24  1  0  0  0  0
 21 50  1  0  0  0  0
 22 25  2  0  0  0  0
 22 51  1  0  0  0  0
 23 27  1  0  0  0  0
 23 52  1  0  0  0  0
 24 26  2  0  0  0  0
 24 53  1  0  0  0  0
 25 26  1  0  0  0  0
 25 54  1  0  0  0  0
 27 55  1  0  0  0  0
 27 56  1  0  0  0  0
 28 30  1  0  0  0  0
 29 58  1  0  0  0  0
 29 59  1  0  0  0  0
 29 60  1  0  0  0  0
 30 31  2  0  0  0  0
 30 32  1  0  0  0  0
 31 33  1  0  0  0  0
 31 62  1  0  0  0  0
 32 34  2  0  0  0  0
 32 63  1  0  0  0  0
 33 35  2  0  0  0  0
 34 35  1  0  0  0  0
 34 64  1  0  0  0  0
M  END
> <PUBCHEM_COMPOUND_CID>
509012
> <PUBCHEM_COMPOUND_CANONICALIZED>
1
> <PUBCHEM_CACTVS_COMPLEXITY>
809
> <PUBCHEM_CACTVS_HBOND_ACCEPTOR>
6
> <PUBCHEM_CACTVS_HBOND_DONOR>
3
> <PUBCHEM_CACTVS_ROTATABLE_BOND>
9
> <PUBCHEM_CACTVS_SUBSKEYS>
AAADceB7OABGAAAAAAAAAAAAAAAAAAAAAAA8YIAAAAAAAAABQAAAHgYQCAAADSrh2CayAYPAAgqIAiFSEHDCAAAkDRAIitmIBsgKcDahlzGUYQhitgCYiYcYiACOFAAAIAAAAAQoAABAAAAACAAAAAAAAA==
> <PUBCHEM_IUPAC_OPENEYE_NAME>
3,4-dichloro-N-[(1S)-1-(hydroxymethyl)-2-[[1-[(4-methylsulfonylphenyl)methyl]-4-piperidyl]methylamino]-2-oxo-ethyl]benzamide
> <PUBCHEM_IUPAC_CAS_NAME>
3,4-dichloro-N-[(2S)-3-hydroxy-1-[[1-[(4-methylsulfonylphenyl)methyl]-4-piperidinyl]methylamino]-1-oxopropan-2-yl]benzamide
> <PUBCHEM_IUPAC_NAME_MARKUP>
3,4-dichloro-<I>N</I>-[(2<I>S</I>)-3-hydroxy-1-[[1-[(4-methylsulfonylphenyl)methyl]piperidin-4-yl]methylamino]-1-oxopropan-2-yl]benzamide
> <PUBCHEM_IUPAC_NAME>
3,4-dichloro-N-[(2S)-3-hydroxy-1-[[1-[(4-methylsulfonylphenyl)methyl]piperidin-4-yl]methylamino]-1-oxopropan-2-yl]benzamide
> <PUBCHEM_IUPAC_SYSTEMATIC_NAME>
3,4-bis(chloranyl)-N-[(2S)-1-[[1-[(4-methylsulfonylphenyl)methyl]piperidin-4-yl]methylamino]-3-oxidanyl-1-oxidanylidene-propan-2-yl]benzamide
> <PUBCHEM_IUPAC_TRADITIONAL_NAME>
3,4-dichloro-N-[(1S)-2-keto-2-[[1-(4-mesylbenzyl)-4-piperidyl]methylamino]-1-methylol-ethyl]benzamide
> <PUBCHEM_IUPAC_INCHI>
InChI=1S/C24H29Cl2N3O5S/c1-35(33,34)19-5-2-17(3-6-19)14-29-10-8-16(9-11-29)13-27-24(32)22(15-30)28-23(31)18-4-7-20(25)21(26)12-18/h2-7,12,16,22,30H,8-11,13-15H2,1H3,(H,27,32)(H,28,31)/t22-/m0/s1
> <PUBCHEM_IUPAC_INCHIKEY>
QRTHXEJTKGTAJB-QFIPXVFZSA-N
> <PUBCHEM_XLOGP3_AA>
2.7
> <PUBCHEM_EXACT_MASS>
541.1204976
> <PUBCHEM_MOLECULAR_FORMULA>
C24H29Cl2N3O5S
> <PUBCHEM_MOLECULAR_WEIGHT>
542.5
> <PUBCHEM_OPENEYE_CAN_SMILES>
CS(=O)(=O)C1=CC=C(C=C1)CN2CCC(CC2)CNC(=O)C(CO)NC(=O)C3=CC(=C(C=C3)Cl)Cl
> <PUBCHEM_OPENEYE_ISO_SMILES>
CS(=O)(=O)C1=CC=C(C=C1)CN2CCC(CC2)CNC(=O)[C@H](CO)NC(=O)C3=CC(=C(C=C3)Cl)Cl
> <PUBCHEM_CACTVS_TPSA>
124
> <PUBCHEM_MONOISOTOPIC_WEIGHT>
541.1204976
> <PUBCHEM_TOTAL_CHARGE>
0
> <PUBCHEM_HEAVY_ATOM_COUNT>
35
> <PUBCHEM_ATOM_DEF_STEREO_COUNT>
1
> <PUBCHEM_ATOM_UDEF_STEREO_COUNT>
0
> <PUBCHEM_BOND_DEF_STEREO_COUNT>
0
> <PUBCHEM_BOND_UDEF_STEREO_COUNT>
0
> <PUBCHEM_ISOTOPIC_ATOM_COUNT>
0
> <PUBCHEM_COMPONENT_COUNT>
1
> <PUBCHEM_CACTVS_TAUTO_COUNT>
-1
> <PUBCHEM_COORDINATE_TYPE>
1
5
255
> <PUBCHEM_BONDANNOTATIONS>
23  11  5
19  21  8
19  22  8
21  24  8
22  25  8
24  26  8
25  26  8
30  31  8
30  32  8
31  33  8
32  34  8
33  35  8
34  35  8
$$$$
