509093
  -OEChem-10302200282D
 75 80  0     1  0  0  0  0  0999 V2000
    7.1279   -0.0490    0.0000 O   0  0  0  0  0  0  0  0  0  0  0  0
   10.9340   -1.9887    0.0000 O   0  0  0  0  0  0  0  0  0  0  0  0
   11.5920   -1.0491    0.0000 O   0  0  0  0  0  0  0  0  0  0  0  0
   12.0088    0.9474    0.0000 O   0  0  0  0  0  0  0  0  0  0  0  0
    6.2619    1.4510    0.0000 O   0  0  0  0  0  0  0  0  0  0  0  0
    3.5836    0.1463    0.0000 O   0  0  0  0  0  0  0  0  0  0  0  0
    3.5836    1.7558    0.0000 O   0  0  0  0  0  0  0  0  0  0  0  0
    8.8600   -0.0490    0.0000 C   0  0  3  0  0  0  0  0  0  0  0  0
    9.7260   -0.5490    0.0000 C   0  0  3  0  0  0  0  0  0  0  0  0
   10.5920   -0.0490    0.0000 C   0  0  3  0  0  0  0  0  0  0  0  0
   10.5920    0.9510    0.0000 C   0  0  1  0  0  0  0  0  0  0  0  0
    8.1229   -0.7161    0.0000 C   0  0  3  0  0  0  0  0  0  0  0  0
    9.7260    1.4510    0.0000 C   0  0  2  0  0  0  0  0  0  0  0  0
    9.1649    0.3302    0.0000 C   0  0  0  0  0  0  0  0  0  0  0  0
    8.8600    0.9510    0.0000 C   0  0  0  0  0  0  0  0  0  0  0  0
    9.5168   -1.5208    0.0000 C   0  0  0  0  0  0  0  0  0  0  0  0
    9.9352    2.4228    0.0000 C   0  0  1  0  0  0  0  0  0  0  0  0
   11.3290    1.6181    0.0000 C   0  0  0  0  0  0  0  0  0  0  0  0
    8.5280   -1.6238    0.0000 C   0  0  0  0  0  0  0  0  0  0  0  0
    7.9939    0.4510    0.0000 C   0  0  0  0  0  0  0  0  0  0  0  0
   10.9239    2.5259    0.0000 C   0  0  0  0  0  0  0  0  0  0  0  0
   10.5920   -1.0490    0.0000 C   0  0  0  0  0  0  0  0  0  0  0  0
   11.5880    0.0402    0.0000 C   0  0  0  0  0  0  0  0  0  0  0  0
    9.7230   -2.4993    0.0000 C   0  0  0  0  0  0  0  0  0  0  0  0
    9.2673    3.1671    0.0000 C   0  0  0  0  0  0  0  0  0  0  0  0
    8.9787   -3.1671    0.0000 C   0  0  0  0  0  0  0  0  0  0  0  0
   10.6735   -2.8100    0.0000 C   0  0  0  0  0  0  0  0  0  0  0  0
    6.2619    0.4510    0.0000 C   0  0  2  0  0  0  0  0  0  0  0  0
    5.3958   -0.0490    0.0000 C   0  0  0  0  0  0  0  0  0  0  0  0
    4.5298    0.4510    0.0000 C   0  0  3  0  0  0  0  0  0  0  0  0
    5.3958    1.9510    0.0000 C   0  0  1  0  0  0  0  0  0  0  0  0
    4.5298    1.4510    0.0000 C   0  0  3  0  0  0  0  0  0  0  0  0
    5.3958    2.9510    0.0000 C   0  0  0  0  0  0  0  0  0  0  0  0
    3.0000    0.9510    0.0000 C   0  0  3  0  0  0  0  0  0  0  0  0
    2.0000    0.9510    0.0000 C   0  0  0  0  0  0  0  0  0  0  0  0
   11.3281    0.5260    0.0000 H   0  0  0  0  0  0  0  0  0  0  0  0
    7.5132   -0.6040    0.0000 H   0  0  0  0  0  0  0  0  0  0  0  0
    8.9899    1.8760    0.0000 H   0  0  0  0  0  0  0  0  0  0  0  0
    9.4258    0.8927    0.0000 H   0  0  0  0  0  0  0  0  0  0  0  0
    8.6563    0.6848    0.0000 H   0  0  0  0  0  0  0  0  0  0  0  0
    8.6479    1.5336    0.0000 H   0  0  0  0  0  0  0  0  0  0  0  0
    8.2494    0.8434    0.0000 H   0  0  0  0  0  0  0  0  0  0  0  0
   10.1581    3.0014    0.0000 H   0  0  0  0  0  0  0  0  0  0  0  0
   11.6945    1.1172    0.0000 H   0  0  0  0  0  0  0  0  0  0  0  0
   11.8655    1.9289    0.0000 H   0  0  0  0  0  0  0  0  0  0  0  0
    8.2180   -2.1608    0.0000 H   0  0  0  0  0  0  0  0  0  0  0  0
    8.3925    0.9260    0.0000 H   0  0  0  0  0  0  0  0  0  0  0  0
    7.5954    0.9260    0.0000 H   0  0  0  0  0  0  0  0  0  0  0  0
   11.5135    2.7177    0.0000 H   0  0  0  0  0  0  0  0  0  0  0  0
   10.7952    3.1324    0.0000 H   0  0  0  0  0  0  0  0  0  0  0  0
   11.9447   -0.4669    0.0000 H   0  0  0  0  0  0  0  0  0  0  0  0
    9.8508   -3.1060    0.0000 H   0  0  0  0  0  0  0  0  0  0  0  0
    9.7288    3.5812    0.0000 H   0  0  0  0  0  0  0  0  0  0  0  0
    8.8533    3.6286    0.0000 H   0  0  0  0  0  0  0  0  0  0  0  0
    8.8059    2.7531    0.0000 H   0  0  0  0  0  0  0  0  0  0  0  0
    8.5646   -2.7057    0.0000 H   0  0  0  0  0  0  0  0  0  0  0  0
    8.5172   -3.5812    0.0000 H   0  0  0  0  0  0  0  0  0  0  0  0
    9.3928   -3.6286    0.0000 H   0  0  0  0  0  0  0  0  0  0  0  0
   10.4809   -3.3993    0.0000 H   0  0  0  0  0  0  0  0  0  0  0  0
   11.2628   -3.0026    0.0000 H   0  0  0  0  0  0  0  0  0  0  0  0
   10.8661   -2.2206    0.0000 H   0  0  0  0  0  0  0  0  0  0  0  0
   11.5446   -2.0963    0.0000 H   0  0  0  0  0  0  0  0  0  0  0  0
    6.2619   -0.1690    0.0000 H   0  0  0  0  0  0  0  0  0  0  0  0
    4.9973   -0.5239    0.0000 H   0  0  0  0  0  0  0  0  0  0  0  0
    5.7944   -0.5239    0.0000 H   0  0  0  0  0  0  0  0  0  0  0  0
    4.4642   -0.1655    0.0000 H   0  0  0  0  0  0  0  0  0  0  0  0
    5.9328    2.2610    0.0000 H   0  0  0  0  0  0  0  0  0  0  0  0
    4.4642    2.0675    0.0000 H   0  0  0  0  0  0  0  0  0  0  0  0
    6.0158    2.9510    0.0000 H   0  0  0  0  0  0  0  0  0  0  0  0
    5.3958    3.5710    0.0000 H   0  0  0  0  0  0  0  0  0  0  0  0
    4.7758    2.9510    0.0000 H   0  0  0  0  0  0  0  0  0  0  0  0
    2.7183    0.3987    0.0000 H   0  0  0  0  0  0  0  0  0  0  0  0
    2.0000    1.5710    0.0000 H   0  0  0  0  0  0  0  0  0  0  0  0
    1.3800    0.9510    0.0000 H   0  0  0  0  0  0  0  0  0  0  0  0
    2.0000    0.3310    0.0000 H   0  0  0  0  0  0  0  0  0  0  0  0
  1 20  1  0  0  0  0
 28  1  1  1  0  0  0
  2 22  1  0  0  0  0
  2 62  1  0  0  0  0
  3 22  2  0  0  0  0
  4 23  2  0  0  0  0
  5 28  1  0  0  0  0
  5 31  1  0  0  0  0
  6 30  1  0  0  0  0
  6 34  1  0  0  0  0
  7 32  1  0  0  0  0
  7 34  1  0  0  0  0
  8  9  1  0  0  0  0
  8 12  1  0  0  0  0
  8 15  1  0  0  0  0
  8 20  1  0  0  0  0
  9 10  1  0  0  0  0
  9 16  1  0  0  0  0
  9 22  1  0  0  0  0
 10 11  1  0  0  0  0
 10 14  1  0  0  0  0
 10 23  1  0  0  0  0
 11 13  1  0  0  0  0
 11 18  1  0  0  0  0
 11 36  1  6  0  0  0
 12 14  1  0  0  0  0
 12 19  1  0  0  0  0
 12 37  1  0  0  0  0
 13 15  1  0  0  0  0
 13 17  1  0  0  0  0
 13 38  1  1  0  0  0
 14 39  1  0  0  0  0
 14 40  1  0  0  0  0
 15 41  1  0  0  0  0
 15 42  1  0  0  0  0
 16 19  2  0  0  0  0
 16 24  1  0  0  0  0
 17 21  1  0  0  0  0
 17 25  1  6  0  0  0
 17 43  1  0  0  0  0
 18 21  1  0  0  0  0
 18 44  1  0  0  0  0
 18 45  1  0  0  0  0
 19 46  1  0  0  0  0
 20 47  1  0  0  0  0
 20 48  1  0  0  0  0
 21 49  1  0  0  0  0
 21 50  1  0  0  0  0
 23 51  1  0  0  0  0
 24 26  1  0  0  0  0
 24 27  1  0  0  0  0
 24 52  1  0  0  0  0
 25 53  1  0  0  0  0
 25 54  1  0  0  0  0
 25 55  1  0  0  0  0
 26 56  1  0  0  0  0
 26 57  1  0  0  0  0
 26 58  1  0  0  0  0
 27 59  1  0  0  0  0
 27 60  1  0  0  0  0
 27 61  1  0  0  0  0
 28 29  1  0  0  0  0
 28 63  1  0  0  0  0
 29 30  1  0  0  0  0
 29 64  1  0  0  0  0
 29 65  1  0  0  0  0
 30 32  1  0  0  0  0
 30 66  1  0  0  0  0
 31 32  1  0  0  0  0
 31 33  1  1  0  0  0
 31 67  1  0  0  0  0
 32 68  1  0  0  0  0
 33 69  1  0  0  0  0
 33 70  1  0  0  0  0
 33 71  1  0  0  0  0
 34 35  1  0  0  0  0
 34 72  1  0  0  0  0
 35 73  1  0  0  0  0
 35 74  1  0  0  0  0
 35 75  1  0  0  0  0
M  END
> <PUBCHEM_COMPOUND_CID>
509093
> <PUBCHEM_COMPOUND_CANONICALIZED>
1
> <PUBCHEM_CACTVS_COMPLEXITY>
946
> <PUBCHEM_CACTVS_HBOND_ACCEPTOR>
7
> <PUBCHEM_CACTVS_HBOND_DONOR>
1
> <PUBCHEM_CACTVS_ROTATABLE_BOND>
6
> <PUBCHEM_CACTVS_SUBSKEYS>
AAADcfB4OAAAAAAAAAAAAAAAAAAAAaMECAA0QIAABgAAAGgAAAAAGgAACAAADxSwgAMCCAAABgCIAijSiAAAAAAgAAAACAEAAAgRABIAAQAiQAAFwAAOAAPL7PyPgAAAAAAAAACAAAQAACAAAQAACAAAAA==
> <PUBCHEM_IUPAC_OPENEYE_NAME>
(4R,5R,8R)-2-[[(4R,6R)-2,4-dimethyl-4,6,7,7a-tetrahydro-3aH-[1,3]dioxolo[4,5-c]pyran-6-yl]oxymethyl]-9-formyl-13-isopropyl-5-methyl-tetracyclo[7.4.0.02,11.04,8]tridec-12-ene-1-carboxylic acid
> <PUBCHEM_IUPAC_CAS_NAME>
(4R,5R,8R)-2-[[(4R,6R)-2,4-dimethyl-4,6,7,7a-tetrahydro-3aH-[1,3]dioxolo[4,5-c]pyran-6-yl]oxymethyl]-9-formyl-5-methyl-13-propan-2-yl-1-tetracyclo[7.4.0.02,11.04,8]tridec-12-enecarboxylic acid
> <PUBCHEM_IUPAC_NAME_MARKUP>
(4<I>R</I>,5<I>R</I>,8<I>R</I>)-2-[[(4<I>R</I>,6<I>R</I>)-2,4-dimethyl-4,6,7,7<I>a</I>-tetrahydro-3<I>a</I><I>H</I>-[1,3]dioxolo[4,5-c]pyran-6-yl]oxymethyl]-9-formyl-5-methyl-13-propan-2-yltetracyclo[7.4.0.0<SUP>2,11</SUP>.0<SUP>4,8</SUP>]tridec-12-ene-1-carboxylic acid
> <PUBCHEM_IUPAC_NAME>
(4R,5R,8R)-2-[[(4R,6R)-2,4-dimethyl-4,6,7,7a-tetrahydro-3aH-[1,3]dioxolo[4,5-c]pyran-6-yl]oxymethyl]-9-formyl-5-methyl-13-propan-2-yltetracyclo[7.4.0.02,11.04,8]tridec-12-ene-1-carboxylic acid
> <PUBCHEM_IUPAC_SYSTEMATIC_NAME>
(4R,5R,8R)-2-[[(4R,6R)-2,4-dimethyl-4,6,7,7a-tetrahydro-3aH-[1,3]dioxolo[4,5-c]pyran-6-yl]oxymethyl]-9-methanoyl-5-methyl-13-propan-2-yl-tetracyclo[7.4.0.02,11.04,8]tridec-12-ene-1-carboxylic acid
> <PUBCHEM_IUPAC_TRADITIONAL_NAME>
(4R,5R,8R)-2-[[(4R,6R)-2,4-dimethyl-4,6,7,7a-tetrahydro-3aH-[1,3]dioxolo[4,5-c]pyran-6-yl]oxymethyl]-9-formyl-13-isopropyl-5-methyl-tetracyclo[7.4.0.02,11.04,8]tridec-12-ene-1-carboxylic acid
> <PUBCHEM_IUPAC_INCHI>
InChI=1S/C28H40O7/c1-14(2)21-8-18-10-26(12-29)20-7-6-15(3)19(20)11-27(18,28(21,26)25(30)31)13-32-23-9-22-24(16(4)33-23)35-17(5)34-22/h8,12,14-20,22-24H,6-7,9-11,13H2,1-5H3,(H,30,31)/t15-,16-,17?,18?,19-,20-,22?,23-,24?,26?,27?,28?/m1/s1
> <PUBCHEM_IUPAC_INCHIKEY>
XVKAYXBOAPCCHJ-CKZSICFZSA-N
> <PUBCHEM_XLOGP3_AA>
3.3
> <PUBCHEM_EXACT_MASS>
488.27740361
> <PUBCHEM_MOLECULAR_FORMULA>
C28H40O7
> <PUBCHEM_MOLECULAR_WEIGHT>
488.6
> <PUBCHEM_OPENEYE_CAN_SMILES>
CC1CCC2C1CC3(C4CC2(C3(C(=C4)C(C)C)C(=O)O)C=O)COC5CC6C(C(O5)C)OC(O6)C
> <PUBCHEM_OPENEYE_ISO_SMILES>
C[C@@H]1CC[C@@H]2[C@@H]1CC3(C4CC2(C3(C(=C4)C(C)C)C(=O)O)C=O)CO[C@H]5CC6C([C@H](O5)C)OC(O6)C
> <PUBCHEM_CACTVS_TPSA>
91.3
> <PUBCHEM_MONOISOTOPIC_WEIGHT>
488.27740361
> <PUBCHEM_TOTAL_CHARGE>
0
> <PUBCHEM_HEAVY_ATOM_COUNT>
35
> <PUBCHEM_ATOM_DEF_STEREO_COUNT>
5
> <PUBCHEM_ATOM_UDEF_STEREO_COUNT>
7
> <PUBCHEM_BOND_DEF_STEREO_COUNT>
0
> <PUBCHEM_BOND_UDEF_STEREO_COUNT>
0
> <PUBCHEM_ISOTOPIC_ATOM_COUNT>
0
> <PUBCHEM_COMPONENT_COUNT>
1
> <PUBCHEM_CACTVS_TAUTO_COUNT>
-1
> <PUBCHEM_COORDINATE_TYPE>
1
5
255
> <PUBCHEM_BONDANNOTATIONS>
28  1  5
10  14  3
11  36  6
12  14  3
13  38  5
17  25  6
30  29  3
31  33  5
34  35  3
32  7  3
8  20  3
9  22  3
$$$$
