509038
  -OEChem-10302200282D
 78 79  0     1  0  0  0  0  0999 V2000
    8.8209   -0.8042    0.0000 O   0  0  0  0  0  0  0  0  0  0  0  0
    6.8530   -0.1049    0.0000 O   0  0  0  0  0  0  0  0  0  0  0  0
    5.0929   -0.3836    0.0000 O   0  0  0  0  0  0  0  0  0  0  0  0
    7.7332   -3.1521    0.0000 O   0  0  0  0  0  0  0  0  0  0  0  0
    9.9087   -3.1521    0.0000 O   0  0  0  0  0  0  0  0  0  0  0  0
   10.5810   -1.0830    0.0000 O   0  0  0  0  0  0  0  0  0  0  0  0
    6.1807    1.9642    0.0000 O   0  0  0  0  0  0  0  0  0  0  0  0
    4.0051    1.9642    0.0000 O   0  0  0  0  0  0  0  0  0  0  0  0
    5.3667   -1.4431    0.0000 O   0  0  0  0  0  0  0  0  0  0  0  0
    2.5897    0.5643    0.0000 O   0  0  0  0  0  0  0  0  0  0  0  0
    2.1738   -1.3920    0.0000 O   0  0  0  0  0  0  0  0  0  0  0  0
    8.0119   -1.3920    0.0000 C   0  0  3  0  0  0  0  0  0  0  0  0
    8.3209   -2.3431    0.0000 C   0  0  1  0  0  0  0  0  0  0  0  0
    7.0609   -1.0830    0.0000 C   0  0  3  0  0  0  0  0  0  0  0  0
    9.3209   -2.3431    0.0000 C   0  0  2  0  0  0  0  0  0  0  0  0
    9.6299   -1.3920    0.0000 C   0  0  1  0  0  0  0  0  0  0  0  0
    5.9019    0.2042    0.0000 C   0  0  2  0  0  0  0  0  0  0  0  0
    5.5929    1.1552    0.0000 C   0  0  1  0  0  0  0  0  0  0  0  0
    4.2839    0.2042    0.0000 C   0  0  3  0  0  0  0  0  0  0  0  0
    4.5929    1.1552    0.0000 C   0  0  2  0  0  0  0  0  0  0  0  0
    6.3177   -1.7521    0.0000 C   0  0  0  0  0  0  0  0  0  0  0  0
    3.3328   -0.1049    0.0000 C   0  0  3  0  0  0  0  0  0  0  0  0
    3.1249   -1.0830    0.0000 C   0  0  0  0  0  0  0  0  0  0  0  0
   10.7889   -0.1049    0.0000 C   0  0  0  0  0  0  0  0  0  0  0  0
    8.1399   -4.0656    0.0000 C   0  0  0  0  0  0  0  0  0  0  0  0
   11.7400    0.2042    0.0000 C   0  0  0  0  0  0  0  0  0  0  0  0
   10.9032   -3.0476    0.0000 C   0  0  0  0  0  0  0  0  0  0  0  0
   11.9479    1.1823    0.0000 C   0  0  0  0  0  0  0  0  0  0  0  0
   12.8989    1.4913    0.0000 C   0  0  0  0  0  0  0  0  0  0  0  0
    4.6235   -2.1123    0.0000 C   0  0  0  0  0  0  0  0  0  0  0  0
   13.1069    2.4695    0.0000 C   0  0  0  0  0  0  0  0  0  0  0  0
   14.0579    2.7785    0.0000 C   0  0  0  0  0  0  0  0  0  0  0  0
   14.2658    3.7566    0.0000 C   0  0  0  0  0  0  0  0  0  0  0  0
   15.2169    4.0656    0.0000 C   0  0  0  0  0  0  0  0  0  0  0  0
    8.6016   -1.5836    0.0000 H   0  0  0  0  0  0  0  0  0  0  0  0
    8.6024   -2.8955    0.0000 H   0  0  0  0  0  0  0  0  0  0  0  0
    7.5216   -0.6682    0.0000 H   0  0  0  0  0  0  0  0  0  0  0  0
    9.9333   -2.2461    0.0000 H   0  0  0  0  0  0  0  0  0  0  0  0
    9.7269   -0.7797    0.0000 H   0  0  0  0  0  0  0  0  0  0  0  0
    5.9989   -0.4082    0.0000 H   0  0  0  0  0  0  0  0  0  0  0  0
    6.2052    1.0582    0.0000 H   0  0  0  0  0  0  0  0  0  0  0  0
    4.1869   -0.4082    0.0000 H   0  0  0  0  0  0  0  0  0  0  0  0
    4.8744    1.7076    0.0000 H   0  0  0  0  0  0  0  0  0  0  0  0
    6.0266   -2.2996    0.0000 H   0  0  0  0  0  0  0  0  0  0  0  0
    6.8063   -2.1338    0.0000 H   0  0  0  0  0  0  0  0  0  0  0  0
    2.7431   -0.2965    0.0000 H   0  0  0  0  0  0  0  0  0  0  0  0
    3.2112   -1.6970    0.0000 H   0  0  0  0  0  0  0  0  0  0  0  0
    3.7445   -1.1046    0.0000 H   0  0  0  0  0  0  0  0  0  0  0  0
   10.7026    0.5091    0.0000 H   0  0  0  0  0  0  0  0  0  0  0  0
   10.1693   -0.0832    0.0000 H   0  0  0  0  0  0  0  0  0  0  0  0
    5.9285    2.5306    0.0000 H   0  0  0  0  0  0  0  0  0  0  0  0
    3.3885    1.8994    0.0000 H   0  0  0  0  0  0  0  0  0  0  0  0
    7.5735   -4.3178    0.0000 H   0  0  0  0  0  0  0  0  0  0  0  0
    8.3921   -4.6320    0.0000 H   0  0  0  0  0  0  0  0  0  0  0  0
    8.7063   -3.8135    0.0000 H   0  0  0  0  0  0  0  0  0  0  0  0
   11.8263   -0.4098    0.0000 H   0  0  0  0  0  0  0  0  0  0  0  0
   12.3596    0.1825    0.0000 H   0  0  0  0  0  0  0  0  0  0  0  0
   10.9680   -3.6642    0.0000 H   0  0  0  0  0  0  0  0  0  0  0  0
   11.5198   -2.9828    0.0000 H   0  0  0  0  0  0  0  0  0  0  0  0
   10.8384   -2.4310    0.0000 H   0  0  0  0  0  0  0  0  0  0  0  0
    2.0000    0.3727    0.0000 H   0  0  0  0  0  0  0  0  0  0  0  0
   11.8616    1.7963    0.0000 H   0  0  0  0  0  0  0  0  0  0  0  0
   11.3283    1.2039    0.0000 H   0  0  0  0  0  0  0  0  0  0  0  0
   12.9852    0.8774    0.0000 H   0  0  0  0  0  0  0  0  0  0  0  0
   13.5186    1.4697    0.0000 H   0  0  0  0  0  0  0  0  0  0  0  0
    4.2086   -1.6515    0.0000 H   0  0  0  0  0  0  0  0  0  0  0  0
    4.1628   -2.5271    0.0000 H   0  0  0  0  0  0  0  0  0  0  0  0
    5.0384   -2.5730    0.0000 H   0  0  0  0  0  0  0  0  0  0  0  0
    2.0449   -1.9985    0.0000 H   0  0  0  0  0  0  0  0  0  0  0  0
   13.0206    3.0834    0.0000 H   0  0  0  0  0  0  0  0  0  0  0  0
   12.4872    2.4911    0.0000 H   0  0  0  0  0  0  0  0  0  0  0  0
   14.1442    2.1645    0.0000 H   0  0  0  0  0  0  0  0  0  0  0  0
   14.6775    2.7568    0.0000 H   0  0  0  0  0  0  0  0  0  0  0  0
   14.1795    4.3706    0.0000 H   0  0  0  0  0  0  0  0  0  0  0  0
   13.6462    3.7783    0.0000 H   0  0  0  0  0  0  0  0  0  0  0  0
   15.4085    3.4760    0.0000 H   0  0  0  0  0  0  0  0  0  0  0  0
   15.8065    4.2572    0.0000 H   0  0  0  0  0  0  0  0  0  0  0  0
   15.0253    4.6553    0.0000 H   0  0  0  0  0  0  0  0  0  0  0  0
  1 12  1  0  0  0  0
  1 16  1  0  0  0  0
  2 14  1  0  0  0  0
 17  2  1  6  0  0  0
  3 17  1  0  0  0  0
  3 19  1  0  0  0  0
 13  4  1  1  0  0  0
  4 25  1  0  0  0  0
 15  5  1  6  0  0  0
  5 27  1  0  0  0  0
 16  6  1  1  0  0  0
  6 24  1  0  0  0  0
 18  7  1  1  0  0  0
  7 51  1  0  0  0  0
 20  8  1  6  0  0  0
  8 52  1  0  0  0  0
  9 21  1  0  0  0  0
  9 30  1  0  0  0  0
 10 22  1  0  0  0  0
 10 61  1  0  0  0  0
 11 23  1  0  0  0  0
 11 69  1  0  0  0  0
 12 13  1  0  0  0  0
 12 14  1  0  0  0  0
 12 35  1  0  0  0  0
 13 15  1  0  0  0  0
 13 36  1  0  0  0  0
 14 21  1  0  0  0  0
 14 37  1  0  0  0  0
 15 16  1  0  0  0  0
 15 38  1  0  0  0  0
 16 39  1  0  0  0  0
 17 18  1  0  0  0  0
 17 40  1  0  0  0  0
 18 20  1  0  0  0  0
 18 41  1  0  0  0  0
 19 20  1  0  0  0  0
 19 22  1  0  0  0  0
 19 42  1  0  0  0  0
 20 43  1  0  0  0  0
 21 44  1  0  0  0  0
 21 45  1  0  0  0  0
 22 23  1  0  0  0  0
 22 46  1  0  0  0  0
 23 47  1  0  0  0  0
 23 48  1  0  0  0  0
 24 26  1  0  0  0  0
 24 49  1  0  0  0  0
 24 50  1  0  0  0  0
 25 53  1  0  0  0  0
 25 54  1  0  0  0  0
 25 55  1  0  0  0  0
 26 28  1  0  0  0  0
 26 56  1  0  0  0  0
 26 57  1  0  0  0  0
 27 58  1  0  0  0  0
 27 59  1  0  0  0  0
 27 60  1  0  0  0  0
 28 29  1  0  0  0  0
 28 62  1  0  0  0  0
 28 63  1  0  0  0  0
 29 31  1  0  0  0  0
 29 64  1  0  0  0  0
 29 65  1  0  0  0  0
 30 66  1  0  0  0  0
 30 67  1  0  0  0  0
 30 68  1  0  0  0  0
 31 32  1  0  0  0  0
 31 70  1  0  0  0  0
 31 71  1  0  0  0  0
 32 33  1  0  0  0  0
 32 72  1  0  0  0  0
 32 73  1  0  0  0  0
 33 34  1  0  0  0  0
 33 74  1  0  0  0  0
 33 75  1  0  0  0  0
 34 76  1  0  0  0  0
 34 77  1  0  0  0  0
 34 78  1  0  0  0  0
M  END
> <PUBCHEM_COMPOUND_CID>
509038
> <PUBCHEM_COMPOUND_CANONICALIZED>
1
> <PUBCHEM_CACTVS_COMPLEXITY>
539
> <PUBCHEM_CACTVS_HBOND_ACCEPTOR>
11
> <PUBCHEM_CACTVS_HBOND_DONOR>
4
> <PUBCHEM_CACTVS_ROTATABLE_BOND>
17
> <PUBCHEM_CACTVS_SUBSKEYS>
AAADcfB4PAAAAAAAAAAAAAAAAAAAASJAAAAAAAAAAAAAAAAAAAAAGgAACAAACBSwgAMCCAAABgAAAAAAAAAAAAAAAAAAAAAAAAAREAIAAAAiQAAFAAAHAAHA4KwAAAAAAAAAAAAAAAAAAAAAAAAAAAAAAA==
> <PUBCHEM_IUPAC_OPENEYE_NAME>
(3R,4R,5R)-2-(1,2-dihydroxyethyl)-5-[1-[(3S,4R,5R)-3,4-dimethoxy-5-octoxy-tetrahydrofuran-2-yl]-2-methoxy-ethoxy]tetrahydrofuran-3,4-diol
> <PUBCHEM_IUPAC_CAS_NAME>
(3R,4R,5R)-2-(1,2-dihydroxyethyl)-5-[1-[(3S,4R,5R)-3,4-dimethoxy-5-octoxy-2-oxolanyl]-2-methoxyethoxy]oxolane-3,4-diol
> <PUBCHEM_IUPAC_NAME_MARKUP>
(3<I>R</I>,4<I>R</I>,5<I>R</I>)-2-(1,2-dihydroxyethyl)-5-[1-[(3<I>S</I>,4<I>R</I>,5<I>R</I>)-3,4-dimethoxy-5-octoxyoxolan-2-yl]-2-methoxyethoxy]oxolane-3,4-diol
> <PUBCHEM_IUPAC_NAME>
(3R,4R,5R)-2-(1,2-dihydroxyethyl)-5-[1-[(3S,4R,5R)-3,4-dimethoxy-5-octoxyoxolan-2-yl]-2-methoxyethoxy]oxolane-3,4-diol
> <PUBCHEM_IUPAC_SYSTEMATIC_NAME>
(3R,4R,5R)-2-[1,2-bis(oxidanyl)ethyl]-5-[1-[(3S,4R,5R)-3,4-dimethoxy-5-octoxy-oxolan-2-yl]-2-methoxy-ethoxy]oxolane-3,4-diol
> <PUBCHEM_IUPAC_TRADITIONAL_NAME>
(3R,4R,5R)-2-(1,2-dihydroxyethyl)-5-[1-[(3S,4R,5R)-3,4-dimethoxy-5-octoxy-tetrahydrofuran-2-yl]-2-methoxy-ethoxy]tetrahydrofuran-3,4-diol
> <PUBCHEM_IUPAC_INCHI>
InChI=1S/C23H44O11/c1-5-6-7-8-9-10-11-31-23-21(30-4)20(29-3)19(34-23)15(13-28-2)32-22-17(27)16(26)18(33-22)14(25)12-24/h14-27H,5-13H2,1-4H3/t14?,15?,16-,17-,18?,19?,20+,21-,22-,23-/m1/s1
> <PUBCHEM_IUPAC_INCHIKEY>
YLPDPSMIUUUGJS-LVOWUMRXSA-N
> <PUBCHEM_XLOGP3_AA>
0.8
> <PUBCHEM_EXACT_MASS>
496.28836222
> <PUBCHEM_MOLECULAR_FORMULA>
C23H44O11
> <PUBCHEM_MOLECULAR_WEIGHT>
496.6
> <PUBCHEM_OPENEYE_CAN_SMILES>
CCCCCCCCOC1C(C(C(O1)C(COC)OC2C(C(C(O2)C(CO)O)O)O)OC)OC
> <PUBCHEM_OPENEYE_ISO_SMILES>
CCCCCCCCO[C@H]1[C@@H]([C@H](C(O1)C(COC)O[C@H]2[C@@H]([C@H](C(O2)C(CO)O)O)O)OC)OC
> <PUBCHEM_CACTVS_TPSA>
146
> <PUBCHEM_MONOISOTOPIC_WEIGHT>
496.28836222
> <PUBCHEM_TOTAL_CHARGE>
0
> <PUBCHEM_HEAVY_ATOM_COUNT>
34
> <PUBCHEM_ATOM_DEF_STEREO_COUNT>
6
> <PUBCHEM_ATOM_UDEF_STEREO_COUNT>
4
> <PUBCHEM_BOND_DEF_STEREO_COUNT>
0
> <PUBCHEM_BOND_UDEF_STEREO_COUNT>
0
> <PUBCHEM_ISOTOPIC_ATOM_COUNT>
0
> <PUBCHEM_COMPONENT_COUNT>
1
> <PUBCHEM_CACTVS_TAUTO_COUNT>
-1
> <PUBCHEM_COORDINATE_TYPE>
1
5
255
> <PUBCHEM_BONDANNOTATIONS>
12  1  3
22  10  3
14  21  3
17  2  6
19  3  3
13  4  5
15  5  6
16  6  5
18  7  5
20  8  6
$$$$
