509092
  -OEChem-10302200282D
 75 80  0     1  0  0  0  0  0999 V2000
    2.5664    1.5388    0.0000 S   0  0  0  0  0  0  0  0  0  0  0  0
    2.5664    0.3632    0.0000 S   0  0  0  0  0  0  0  0  0  0  0  0
    7.5033   -0.0490    0.0000 O   0  0  0  0  0  0  0  0  0  0  0  0
   11.3094   -1.9887    0.0000 O   0  0  0  0  0  0  0  0  0  0  0  0
   11.9674   -1.0491    0.0000 O   0  0  0  0  0  0  0  0  0  0  0  0
   12.3842    0.9474    0.0000 O   0  0  0  0  0  0  0  0  0  0  0  0
    6.6373    1.4510    0.0000 O   0  0  0  0  0  0  0  0  0  0  0  0
    5.7713   -1.0490    0.0000 O   0  0  0  0  0  0  0  0  0  0  0  0
    3.9590    0.1463    0.0000 O   0  0  0  0  0  0  0  0  0  0  0  0
    3.9590    1.7558    0.0000 O   0  0  0  0  0  0  0  0  0  0  0  0
    9.2354   -0.0490    0.0000 C   0  0  3  0  0  0  0  0  0  0  0  0
   10.1014   -0.5490    0.0000 C   0  0  3  0  0  0  0  0  0  0  0  0
   10.9674   -0.0490    0.0000 C   0  0  3  0  0  0  0  0  0  0  0  0
   10.9674    0.9510    0.0000 C   0  0  1  0  0  0  0  0  0  0  0  0
    8.4984   -0.7161    0.0000 C   0  0  3  0  0  0  0  0  0  0  0  0
   10.1014    1.4510    0.0000 C   0  0  2  0  0  0  0  0  0  0  0  0
    9.5403    0.3302    0.0000 C   0  0  0  0  0  0  0  0  0  0  0  0
    9.2354    0.9510    0.0000 C   0  0  0  0  0  0  0  0  0  0  0  0
    9.8922   -1.5208    0.0000 C   0  0  0  0  0  0  0  0  0  0  0  0
   10.3106    2.4228    0.0000 C   0  0  1  0  0  0  0  0  0  0  0  0
   11.7044    1.6181    0.0000 C   0  0  0  0  0  0  0  0  0  0  0  0
    8.9035   -1.6238    0.0000 C   0  0  0  0  0  0  0  0  0  0  0  0
    8.3694    0.4510    0.0000 C   0  0  0  0  0  0  0  0  0  0  0  0
   11.2993    2.5259    0.0000 C   0  0  0  0  0  0  0  0  0  0  0  0
   10.9674   -1.0490    0.0000 C   0  0  0  0  0  0  0  0  0  0  0  0
   11.9634    0.0402    0.0000 C   0  0  0  0  0  0  0  0  0  0  0  0
   10.0984   -2.4993    0.0000 C   0  0  0  0  0  0  0  0  0  0  0  0
    9.6428    3.1671    0.0000 C   0  0  0  0  0  0  0  0  0  0  0  0
    9.3541   -3.1671    0.0000 C   0  0  0  0  0  0  0  0  0  0  0  0
   11.0489   -2.8100    0.0000 C   0  0  0  0  0  0  0  0  0  0  0  0
    6.6373    0.4510    0.0000 C   0  0  2  0  0  0  0  0  0  0  0  0
    5.7713   -0.0490    0.0000 C   0  0  2  0  0  0  0  0  0  0  0  0
    4.9052    0.4510    0.0000 C   0  0  3  0  0  0  0  0  0  0  0  0
    5.7713    1.9510    0.0000 C   0  0  1  0  0  0  0  0  0  0  0  0
    4.9052    1.4510    0.0000 C   0  0  3  0  0  0  0  0  0  0  0  0
    5.7713    2.9510    0.0000 C   0  0  0  0  0  0  0  0  0  0  0  0
    3.3754    0.9510    0.0000 C   0  0  0  0  0  0  0  0  0  0  0  0
   11.7035    0.5260    0.0000 H   0  0  0  0  0  0  0  0  0  0  0  0
    7.8886   -0.6040    0.0000 H   0  0  0  0  0  0  0  0  0  0  0  0
    9.3653    1.8760    0.0000 H   0  0  0  0  0  0  0  0  0  0  0  0
    9.8012    0.8927    0.0000 H   0  0  0  0  0  0  0  0  0  0  0  0
    9.0317    0.6848    0.0000 H   0  0  0  0  0  0  0  0  0  0  0  0
    9.0233    1.5336    0.0000 H   0  0  0  0  0  0  0  0  0  0  0  0
    8.6248    0.8434    0.0000 H   0  0  0  0  0  0  0  0  0  0  0  0
   10.5335    3.0014    0.0000 H   0  0  0  0  0  0  0  0  0  0  0  0
   12.0699    1.1172    0.0000 H   0  0  0  0  0  0  0  0  0  0  0  0
   12.2409    1.9289    0.0000 H   0  0  0  0  0  0  0  0  0  0  0  0
    8.5935   -2.1608    0.0000 H   0  0  0  0  0  0  0  0  0  0  0  0
    8.7679    0.9260    0.0000 H   0  0  0  0  0  0  0  0  0  0  0  0
    7.9708    0.9260    0.0000 H   0  0  0  0  0  0  0  0  0  0  0  0
   11.8889    2.7176    0.0000 H   0  0  0  0  0  0  0  0  0  0  0  0
   11.1706    3.1324    0.0000 H   0  0  0  0  0  0  0  0  0  0  0  0
   12.3201   -0.4669    0.0000 H   0  0  0  0  0  0  0  0  0  0  0  0
   10.5599   -2.0852    0.0000 H   0  0  0  0  0  0  0  0  0  0  0  0
   10.1042    3.5812    0.0000 H   0  0  0  0  0  0  0  0  0  0  0  0
    9.2287    3.6286    0.0000 H   0  0  0  0  0  0  0  0  0  0  0  0
    9.1813    2.7531    0.0000 H   0  0  0  0  0  0  0  0  0  0  0  0
    8.9400   -2.7057    0.0000 H   0  0  0  0  0  0  0  0  0  0  0  0
    8.8926   -3.5812    0.0000 H   0  0  0  0  0  0  0  0  0  0  0  0
    9.7682   -3.6286    0.0000 H   0  0  0  0  0  0  0  0  0  0  0  0
   10.8563   -3.3993    0.0000 H   0  0  0  0  0  0  0  0  0  0  0  0
   11.6383   -3.0026    0.0000 H   0  0  0  0  0  0  0  0  0  0  0  0
   11.2415   -2.2206    0.0000 H   0  0  0  0  0  0  0  0  0  0  0  0
   11.9200   -2.0963    0.0000 H   0  0  0  0  0  0  0  0  0  0  0  0
    6.6373   -0.1690    0.0000 H   0  0  0  0  0  0  0  0  0  0  0  0
    5.2343   -0.3590    0.0000 H   0  0  0  0  0  0  0  0  0  0  0  0
    4.8396   -0.1655    0.0000 H   0  0  0  0  0  0  0  0  0  0  0  0
    6.3082    2.2610    0.0000 H   0  0  0  0  0  0  0  0  0  0  0  0
    4.8396    2.0675    0.0000 H   0  0  0  0  0  0  0  0  0  0  0  0
    5.2343   -1.3590    0.0000 H   0  0  0  0  0  0  0  0  0  0  0  0
    6.3913    2.9510    0.0000 H   0  0  0  0  0  0  0  0  0  0  0  0
    5.7713    3.5710    0.0000 H   0  0  0  0  0  0  0  0  0  0  0  0
    5.1513    2.9510    0.0000 H   0  0  0  0  0  0  0  0  0  0  0  0
    2.0000    1.2866    0.0000 H   0  0  0  0  0  0  0  0  0  0  0  0
    2.6312   -0.2534    0.0000 H   0  0  0  0  0  0  0  0  0  0  0  0
  1 37  1  0  0  0  0
  1 74  1  0  0  0  0
  2 37  1  0  0  0  0
  2 75  1  0  0  0  0
  3 23  1  0  0  0  0
 31  3  1  1  0  0  0
  4 25  1  0  0  0  0
  4 64  1  0  0  0  0
  5 25  2  0  0  0  0
  6 26  2  0  0  0  0
  7 31  1  0  0  0  0
  7 34  1  0  0  0  0
 32  8  1  1  0  0  0
  8 70  1  0  0  0  0
  9 33  1  0  0  0  0
  9 37  1  0  0  0  0
 10 35  1  0  0  0  0
 10 37  1  0  0  0  0
 11 12  1  0  0  0  0
 11 15  1  0  0  0  0
 11 18  1  0  0  0  0
 11 23  1  0  0  0  0
 12 13  1  0  0  0  0
 12 19  1  0  0  0  0
 12 25  1  0  0  0  0
 13 14  1  0  0  0  0
 13 17  1  0  0  0  0
 13 26  1  0  0  0  0
 14 16  1  0  0  0  0
 14 21  1  0  0  0  0
 14 38  1  6  0  0  0
 15 17  1  0  0  0  0
 15 22  1  0  0  0  0
 15 39  1  0  0  0  0
 16 18  1  0  0  0  0
 16 20  1  0  0  0  0
 16 40  1  1  0  0  0
 17 41  1  0  0  0  0
 17 42  1  0  0  0  0
 18 43  1  0  0  0  0
 18 44  1  0  0  0  0
 19 22  2  0  0  0  0
 19 27  1  0  0  0  0
 20 24  1  0  0  0  0
 20 28  1  6  0  0  0
 20 45  1  0  0  0  0
 21 24  1  0  0  0  0
 21 46  1  0  0  0  0
 21 47  1  0  0  0  0
 22 48  1  0  0  0  0
 23 49  1  0  0  0  0
 23 50  1  0  0  0  0
 24 51  1  0  0  0  0
 24 52  1  0  0  0  0
 26 53  1  0  0  0  0
 27 29  1  0  0  0  0
 27 30  1  0  0  0  0
 27 54  1  0  0  0  0
 28 55  1  0  0  0  0
 28 56  1  0  0  0  0
 28 57  1  0  0  0  0
 29 58  1  0  0  0  0
 29 59  1  0  0  0  0
 29 60  1  0  0  0  0
 30 61  1  0  0  0  0
 30 62  1  0  0  0  0
 30 63  1  0  0  0  0
 31 32  1  0  0  0  0
 31 65  1  0  0  0  0
 32 33  1  0  0  0  0
 32 66  1  0  0  0  0
 33 35  1  0  0  0  0
 33 67  1  0  0  0  0
 34 35  1  0  0  0  0
 34 36  1  1  0  0  0
 34 68  1  0  0  0  0
 35 69  1  0  0  0  0
 36 71  1  0  0  0  0
 36 72  1  0  0  0  0
 36 73  1  0  0  0  0
M  END
> <PUBCHEM_COMPOUND_CID>
509092
> <PUBCHEM_COMPOUND_CANONICALIZED>
1
> <PUBCHEM_CACTVS_COMPLEXITY>
1030
> <PUBCHEM_CACTVS_HBOND_ACCEPTOR>
10
> <PUBCHEM_CACTVS_HBOND_DONOR>
4
> <PUBCHEM_CACTVS_ROTATABLE_BOND>
6
> <PUBCHEM_CACTVS_SUBSKEYS>
AAADcfB4PABgAAAAAAAAAAAAAAAAAaMECAA0QIAABgAAAGgAAAAAGgQACAAADxSwgAMCCAAABgSIAijSiAAAAAAgAAAACAEAAAgREBIAAQAiQAAFwAAPAAPL7PyPgAAAAAAAAACAAAQAACAAAQAACAAAAA==
> <PUBCHEM_IUPAC_OPENEYE_NAME>
(4R,5R,8R)-9-formyl-2-[[(4R,6R,7S)-7-hydroxy-4-methyl-2,2-bis(sulfanyl)-4,6,7,7a-tetrahydro-3aH-[1,3]dioxolo[4,5-c]pyran-6-yl]oxymethyl]-13-isopropyl-5-methyl-tetracyclo[7.4.0.02,11.04,8]tridec-12-ene-1-carboxylic acid
> <PUBCHEM_IUPAC_CAS_NAME>
(4R,5R,8R)-9-formyl-2-[[(4R,6R,7S)-7-hydroxy-2,2-dimercapto-4-methyl-4,6,7,7a-tetrahydro-3aH-[1,3]dioxolo[4,5-c]pyran-6-yl]oxymethyl]-5-methyl-13-propan-2-yl-1-tetracyclo[7.4.0.02,11.04,8]tridec-12-enecarboxylic acid
> <PUBCHEM_IUPAC_NAME_MARKUP>
(4<I>R</I>,5<I>R</I>,8<I>R</I>)-9-formyl-2-[[(4<I>R</I>,6<I>R</I>,7<I>S</I>)-7-hydroxy-4-methyl-2,2-bis(sulfanyl)-4,6,7,7<I>a</I>-tetrahydro-3<I>a</I><I>H</I>-[1,3]dioxolo[4,5-c]pyran-6-yl]oxymethyl]-5-methyl-13-propan-2-yltetracyclo[7.4.0.0<SUP>2,11</SUP>.0<SUP>4,8</SUP>]tridec-12-ene-1-carboxylic acid
> <PUBCHEM_IUPAC_NAME>
(4R,5R,8R)-9-formyl-2-[[(4R,6R,7S)-7-hydroxy-4-methyl-2,2-bis(sulfanyl)-4,6,7,7a-tetrahydro-3aH-[1,3]dioxolo[4,5-c]pyran-6-yl]oxymethyl]-5-methyl-13-propan-2-yltetracyclo[7.4.0.02,11.04,8]tridec-12-ene-1-carboxylic acid
> <PUBCHEM_IUPAC_SYSTEMATIC_NAME>
(4R,5R,8R)-9-methanoyl-5-methyl-2-[[(4R,6R,7S)-4-methyl-7-oxidanyl-2,2-bis(sulfanyl)-4,6,7,7a-tetrahydro-3aH-[1,3]dioxolo[4,5-c]pyran-6-yl]oxymethyl]-13-propan-2-yl-tetracyclo[7.4.0.02,11.04,8]tridec-12-ene-1-carboxylic acid
> <PUBCHEM_IUPAC_TRADITIONAL_NAME>
(4R,5R,8R)-9-formyl-2-[[(4R,6R,7S)-7-hydroxy-2,2-dimercapto-4-methyl-4,6,7,7a-tetrahydro-3aH-[1,3]dioxolo[4,5-c]pyran-6-yl]oxymethyl]-13-isopropyl-5-methyl-tetracyclo[7.4.0.02,11.04,8]tridec-12-ene-1-carboxylic acid
> <PUBCHEM_IUPAC_INCHI>
InChI=1S/C27H38O8S2/c1-12(2)18-7-15-8-24(10-28)17-6-5-13(3)16(17)9-25(15,26(18,24)23(30)31)11-32-22-19(29)21-20(14(4)33-22)34-27(36,37)35-21/h7,10,12-17,19-22,29,36-37H,5-6,8-9,11H2,1-4H3,(H,30,31)/t13-,14-,15?,16-,17-,19+,20?,21?,22-,24?,25?,26?/m1/s1
> <PUBCHEM_IUPAC_INCHIKEY>
XUTORGYVDLQSNG-JFZORHHDSA-N
> <PUBCHEM_XLOGP3_AA>
2.6
> <PUBCHEM_EXACT_MASS>
554.20081051
> <PUBCHEM_MOLECULAR_FORMULA>
C27H38O8S2
> <PUBCHEM_MOLECULAR_WEIGHT>
554.7
> <PUBCHEM_OPENEYE_CAN_SMILES>
CC1CCC2C1CC3(C4CC2(C3(C(=C4)C(C)C)C(=O)O)C=O)COC5C(C6C(C(O5)C)OC(O6)(S)S)O
> <PUBCHEM_OPENEYE_ISO_SMILES>
C[C@@H]1CC[C@@H]2[C@@H]1CC3(C4CC2(C3(C(=C4)C(C)C)C(=O)O)C=O)CO[C@H]5[C@H](C6C([C@H](O5)C)OC(O6)(S)S)O
> <PUBCHEM_CACTVS_TPSA>
114
> <PUBCHEM_MONOISOTOPIC_WEIGHT>
554.20081051
> <PUBCHEM_TOTAL_CHARGE>
0
> <PUBCHEM_HEAVY_ATOM_COUNT>
37
> <PUBCHEM_ATOM_DEF_STEREO_COUNT>
6
> <PUBCHEM_ATOM_UDEF_STEREO_COUNT>
6
> <PUBCHEM_BOND_DEF_STEREO_COUNT>
0
> <PUBCHEM_BOND_UDEF_STEREO_COUNT>
0
> <PUBCHEM_ISOTOPIC_ATOM_COUNT>
0
> <PUBCHEM_COMPONENT_COUNT>
1
> <PUBCHEM_CACTVS_TAUTO_COUNT>
-1
> <PUBCHEM_COORDINATE_TYPE>
1
5
255
> <PUBCHEM_BONDANNOTATIONS>
35  10  3
11  23  3
12  25  3
13  17  3
14  38  6
15  17  3
16  40  5
20  28  6
31  3  5
34  36  5
32  8  5
33  9  3
$$$$
