509035
  -OEChem-10302200282D
 89 92  0     1  0  0  0  0  0999 V2000
    2.0000   -0.5691    0.0000 S   0  0  0  0  0  0  0  0  0  0  0  0
    9.7788    2.7673    0.0000 F   0  0  0  0  0  0  0  0  0  0  0  0
    8.7788    3.7673    0.0000 F   0  0  0  0  0  0  0  0  0  0  0  0
    7.7788    2.7673    0.0000 F   0  0  0  0  0  0  0  0  0  0  0  0
    3.5827    1.7673    0.0000 O   0  0  0  0  0  0  0  0  0  0  0  0
    5.3147   -0.2327    0.0000 O   0  0  0  0  0  0  0  0  0  0  0  0
    5.1724   -1.5873    0.0000 O   0  0  0  0  0  0  0  0  0  0  0  0
    7.0468    2.7673    0.0000 O   0  0  0  0  0  0  0  0  0  0  0  0
    9.6448    0.2673    0.0000 O   0  0  0  0  0  0  0  0  0  0  0  0
    9.6448   -1.7327    0.0000 O   0  0  0  0  0  0  0  0  0  0  0  0
    3.5827   -0.2327    0.0000 N   0  0  0  0  0  0  0  0  0  0  0  0
    6.1808    1.2673    0.0000 N   0  0  0  0  0  0  0  0  0  0  0  0
    4.0134   -2.8745    0.0000 N   0  0  0  0  0  0  0  0  0  0  0  0
    7.9128    0.2673    0.0000 N   0  0  0  0  0  0  0  0  0  0  0  0
   12.3109   -4.2535    0.0000 N   0  0  0  0  0  0  0  0  0  0  0  0
    3.4782   -1.2272    0.0000 C   0  0  1  0  0  0  0  0  0  0  0  0
    5.3147    1.7673    0.0000 C   0  0  2  0  0  0  0  0  0  0  0  0
    4.4487    1.2673    0.0000 C   0  0  1  0  0  0  0  0  0  0  0  0
    2.5000   -1.4351    0.0000 C   0  0  0  0  0  0  0  0  0  0  0  0
    4.4487    0.2673    0.0000 C   0  0  0  0  0  0  0  0  0  0  0  0
    2.6691    0.1741    0.0000 C   0  0  0  0  0  0  0  0  0  0  0  0
    5.3147    2.7673    0.0000 C   0  0  0  0  0  0  0  0  0  0  0  0
    4.2213   -1.8963    0.0000 C   0  0  0  0  0  0  0  0  0  0  0  0
    3.0623   -3.1835    0.0000 C   0  0  0  0  0  0  0  0  0  0  0  0
    7.9128    1.2673    0.0000 C   0  0  2  0  0  0  0  0  0  0  0  0
    7.0468    1.7673    0.0000 C   0  0  0  0  0  0  0  0  0  0  0  0
    4.4487    3.2673    0.0000 C   0  0  0  0  0  0  0  0  0  0  0  0
    2.1113   -3.4925    0.0000 C   0  0  0  0  0  0  0  0  0  0  0  0
    3.3713   -4.1345    0.0000 C   0  0  0  0  0  0  0  0  0  0  0  0
    2.7533   -2.2324    0.0000 C   0  0  0  0  0  0  0  0  0  0  0  0
    8.7788    1.7673    0.0000 C   0  0  0  0  0  0  0  0  0  0  0  0
    4.4487    4.2673    0.0000 C   0  0  0  0  0  0  0  0  0  0  0  0
    3.5827    2.7673    0.0000 C   0  0  0  0  0  0  0  0  0  0  0  0
    8.7788    2.7673    0.0000 C   0  0  0  0  0  0  0  0  0  0  0  0
    7.0468   -0.2327    0.0000 C   0  0  0  0  0  0  0  0  0  0  0  0
    8.7788   -0.2327    0.0000 C   0  0  0  0  0  0  0  0  0  0  0  0
    3.5827    4.7673    0.0000 C   0  0  0  0  0  0  0  0  0  0  0  0
    2.7166    3.2673    0.0000 C   0  0  0  0  0  0  0  0  0  0  0  0
    2.7166    4.2673    0.0000 C   0  0  0  0  0  0  0  0  0  0  0  0
    8.7788   -1.2327    0.0000 C   0  0  0  0  0  0  0  0  0  0  0  0
    9.6448   -2.7327    0.0000 C   0  0  0  0  0  0  0  0  0  0  0  0
   10.5109   -3.2327    0.0000 C   0  0  0  0  0  0  0  0  0  0  0  0
    8.7788   -3.2327    0.0000 C   0  0  0  0  0  0  0  0  0  0  0  0
   10.5109   -4.2327    0.0000 C   0  0  0  0  0  0  0  0  0  0  0  0
    8.7788   -4.2327    0.0000 C   0  0  0  0  0  0  0  0  0  0  0  0
    9.6448   -4.7327    0.0000 C   0  0  0  0  0  0  0  0  0  0  0  0
   11.4048   -2.6980    0.0000 C   0  0  0  0  0  0  0  0  0  0  0  0
   11.4048   -4.7673    0.0000 C   0  0  0  0  0  0  0  0  0  0  0  0
   12.3109   -3.2118    0.0000 C   0  0  0  0  0  0  0  0  0  0  0  0
    4.0570   -1.0050    0.0000 H   0  0  0  0  0  0  0  0  0  0  0  0
    5.3147    1.1473    0.0000 H   0  0  0  0  0  0  0  0  0  0  0  0
    3.9118    0.9573    0.0000 H   0  0  0  0  0  0  0  0  0  0  0  0
    1.9336   -1.6873    0.0000 H   0  0  0  0  0  0  0  0  0  0  0  0
    2.6916   -2.0248    0.0000 H   0  0  0  0  0  0  0  0  0  0  0  0
    2.9791    0.7110    0.0000 H   0  0  0  0  0  0  0  0  0  0  0  0
    2.1675    0.5385    0.0000 H   0  0  0  0  0  0  0  0  0  0  0  0
    5.9253    2.6597    0.0000 H   0  0  0  0  0  0  0  0  0  0  0  0
    5.5268    3.3499    0.0000 H   0  0  0  0  0  0  0  0  0  0  0  0
    6.1808    0.6473    0.0000 H   0  0  0  0  0  0  0  0  0  0  0  0
    4.4741   -3.2893    0.0000 H   0  0  0  0  0  0  0  0  0  0  0  0
    8.4497    0.9573    0.0000 H   0  0  0  0  0  0  0  0  0  0  0  0
    1.9197   -2.9028    0.0000 H   0  0  0  0  0  0  0  0  0  0  0  0
    1.5216   -3.6841    0.0000 H   0  0  0  0  0  0  0  0  0  0  0  0
    2.3029   -4.0822    0.0000 H   0  0  0  0  0  0  0  0  0  0  0  0
    2.7817   -4.3261    0.0000 H   0  0  0  0  0  0  0  0  0  0  0  0
    3.5629   -4.7242    0.0000 H   0  0  0  0  0  0  0  0  0  0  0  0
    3.9610   -3.9430    0.0000 H   0  0  0  0  0  0  0  0  0  0  0  0
    3.3430   -2.0408    0.0000 H   0  0  0  0  0  0  0  0  0  0  0  0
    2.5617   -1.6428    0.0000 H   0  0  0  0  0  0  0  0  0  0  0  0
    2.1636   -2.4240    0.0000 H   0  0  0  0  0  0  0  0  0  0  0  0
    8.9909    1.1847    0.0000 H   0  0  0  0  0  0  0  0  0  0  0  0
    9.3894    1.8750    0.0000 H   0  0  0  0  0  0  0  0  0  0  0  0
    3.0457    1.4573    0.0000 H   0  0  0  0  0  0  0  0  0  0  0  0
    4.9856    4.5773    0.0000 H   0  0  0  0  0  0  0  0  0  0  0  0
    3.5827    2.1473    0.0000 H   0  0  0  0  0  0  0  0  0  0  0  0
    6.7368    0.3043    0.0000 H   0  0  0  0  0  0  0  0  0  0  0  0
    6.5098   -0.5427    0.0000 H   0  0  0  0  0  0  0  0  0  0  0  0
    7.3568   -0.7696    0.0000 H   0  0  0  0  0  0  0  0  0  0  0  0
    3.5827    5.3873    0.0000 H   0  0  0  0  0  0  0  0  0  0  0  0
    2.1797    2.9573    0.0000 H   0  0  0  0  0  0  0  0  0  0  0  0
    2.1797    4.5773    0.0000 H   0  0  0  0  0  0  0  0  0  0  0  0
    8.1682   -1.1250    0.0000 H   0  0  0  0  0  0  0  0  0  0  0  0
    8.5668   -1.8153    0.0000 H   0  0  0  0  0  0  0  0  0  0  0  0
    8.2419   -2.9227    0.0000 H   0  0  0  0  0  0  0  0  0  0  0  0
    8.2419   -4.5427    0.0000 H   0  0  0  0  0  0  0  0  0  0  0  0
    9.6448   -5.3527    0.0000 H   0  0  0  0  0  0  0  0  0  0  0  0
   11.3977   -2.0780    0.0000 H   0  0  0  0  0  0  0  0  0  0  0  0
   11.3977   -5.3873    0.0000 H   0  0  0  0  0  0  0  0  0  0  0  0
   12.8466   -2.8998    0.0000 H   0  0  0  0  0  0  0  0  0  0  0  0
  1 19  1  0  0  0  0
  1 21  1  0  0  0  0
  2 34  1  0  0  0  0
  3 34  1  0  0  0  0
  4 34  1  0  0  0  0
 18  5  1  1  0  0  0
  5 73  1  0  0  0  0
  6 20  2  0  0  0  0
  7 23  2  0  0  0  0
  8 26  2  0  0  0  0
  9 36  2  0  0  0  0
 10 40  1  0  0  0  0
 10 41  1  0  0  0  0
 11 16  1  0  0  0  0
 11 20  1  0  0  0  0
 11 21  1  0  0  0  0
 17 12  1  6  0  0  0
 12 26  1  0  0  0  0
 12 59  1  0  0  0  0
 13 23  1  0  0  0  0
 13 24  1  0  0  0  0
 13 60  1  0  0  0  0
 25 14  1  6  0  0  0
 14 35  1  0  0  0  0
 14 36  1  0  0  0  0
 15 48  2  0  0  0  0
 15 49  1  0  0  0  0
 16 19  1  0  0  0  0
 16 23  1  6  0  0  0
 16 50  1  0  0  0  0
 17 18  1  0  0  0  0
 17 22  1  0  0  0  0
 17 51  1  0  0  0  0
 18 20  1  0  0  0  0
 18 52  1  0  0  0  0
 19 53  1  0  0  0  0
 19 54  1  0  0  0  0
 21 55  1  0  0  0  0
 21 56  1  0  0  0  0
 22 27  1  0  0  0  0
 22 57  1  0  0  0  0
 22 58  1  0  0  0  0
 24 28  1  0  0  0  0
 24 29  1  0  0  0  0
 24 30  1  0  0  0  0
 25 26  1  0  0  0  0
 25 31  1  0  0  0  0
 25 61  1  0  0  0  0
 27 32  2  0  0  0  0
 27 33  1  0  0  0  0
 28 62  1  0  0  0  0
 28 63  1  0  0  0  0
 28 64  1  0  0  0  0
 29 65  1  0  0  0  0
 29 66  1  0  0  0  0
 29 67  1  0  0  0  0
 30 68  1  0  0  0  0
 30 69  1  0  0  0  0
 30 70  1  0  0  0  0
 31 34  1  0  0  0  0
 31 71  1  0  0  0  0
 31 72  1  0  0  0  0
 32 37  1  0  0  0  0
 32 74  1  0  0  0  0
 33 38  2  0  0  0  0
 33 75  1  0  0  0  0
 35 76  1  0  0  0  0
 35 77  1  0  0  0  0
 35 78  1  0  0  0  0
 36 40  1  0  0  0  0
 37 39  2  0  0  0  0
 37 79  1  0  0  0  0
 38 39  1  0  0  0  0
 38 80  1  0  0  0  0
 39 81  1  0  0  0  0
 40 82  1  0  0  0  0
 40 83  1  0  0  0  0
 41 42  1  0  0  0  0
 41 43  2  0  0  0  0
 42 44  2  0  0  0  0
 42 47  1  0  0  0  0
 43 45  1  0  0  0  0
 43 84  1  0  0  0  0
 44 46  1  0  0  0  0
 44 48  1  0  0  0  0
 45 46  2  0  0  0  0
 45 85  1  0  0  0  0
 46 86  1  0  0  0  0
 47 49  2  0  0  0  0
 47 87  1  0  0  0  0
 48 88  1  0  0  0  0
 49 89  1  0  0  0  0
M  END
> <PUBCHEM_COMPOUND_CID>
509035
> <PUBCHEM_COMPOUND_CANONICALIZED>
1
> <PUBCHEM_CACTVS_COMPLEXITY>
1150
> <PUBCHEM_CACTVS_HBOND_ACCEPTOR>
11
> <PUBCHEM_CACTVS_HBOND_DONOR>
3
> <PUBCHEM_CACTVS_ROTATABLE_BOND>
13
> <PUBCHEM_CACTVS_SUBSKEYS>
AAADcfB/uYBAAAAAAAAAAAAAAAAAAWAAAAA8YIAAAAAAAACx9AAAHwQQCAAADLzl2ha+htPIFgioAjF3VAKCiCBxIjAI2KH+bJgOdvrk8b+XeCjk1hHY6Ae4yLCOgAABAAAYAAAAAAIAADAAAAAAAAAAAA==
> <PUBCHEM_IUPAC_OPENEYE_NAME>
(4R)-N-tert-butyl-3-[(2S,3S)-2-hydroxy-4-phenyl-3-[[(2S)-4,4,4-trifluoro-2-[[2-(5-isoquinolyloxy)acetyl]-methyl-amino]butanoyl]amino]butanoyl]thiazolidine-4-carboxamide
> <PUBCHEM_IUPAC_CAS_NAME>
(4R)-N-tert-butyl-3-[(2S,3S)-2-hydroxy-1-oxo-4-phenyl-3-[[(2S)-4,4,4-trifluoro-2-[[2-(5-isoquinolinyloxy)-1-oxoethyl]-methylamino]-1-oxobutyl]amino]butyl]-4-thiazolidinecarboxamide
> <PUBCHEM_IUPAC_NAME_MARKUP>
(4<I>R</I>)-<I>N</I>-<I>tert</I>-butyl-3-[(2<I>S</I>,3<I>S</I>)-2-hydroxy-4-phenyl-3-[[(2<I>S</I>)-4,4,4-trifluoro-2-[(2-isoquinolin-5-yloxyacetyl)-methylamino]butanoyl]amino]butanoyl]-1,3-thiazolidine-4-carboxamide
> <PUBCHEM_IUPAC_NAME>
(4R)-N-tert-butyl-3-[(2S,3S)-2-hydroxy-4-phenyl-3-[[(2S)-4,4,4-trifluoro-2-[(2-isoquinolin-5-yloxyacetyl)-methylamino]butanoyl]amino]butanoyl]-1,3-thiazolidine-4-carboxamide
> <PUBCHEM_IUPAC_SYSTEMATIC_NAME>
(4R)-N-tert-butyl-3-[(2S,3S)-2-oxidanyl-4-phenyl-3-[[(2S)-4,4,4-tris(fluoranyl)-2-[2-isoquinolin-5-yloxyethanoyl(methyl)amino]butanoyl]amino]butanoyl]-1,3-thiazolidine-4-carboxamide
> <PUBCHEM_IUPAC_TRADITIONAL_NAME>
(4R)-N-tert-butyl-3-[(2S,3S)-2-hydroxy-4-phenyl-3-[[(2S)-4,4,4-trifluoro-2-[[2-(5-isoquinolyloxy)acetyl]-methyl-amino]butanoyl]amino]butanoyl]thiazolidine-4-carboxamide
> <PUBCHEM_IUPAC_INCHI>
InChI=1S/C34H40F3N5O6S/c1-33(2,3)40-31(46)26-19-49-20-42(26)32(47)29(44)24(15-21-9-6-5-7-10-21)39-30(45)25(16-34(35,36)37)41(4)28(43)18-48-27-12-8-11-22-17-38-14-13-23(22)27/h5-14,17,24-26,29,44H,15-16,18-20H2,1-4H3,(H,39,45)(H,40,46)/t24-,25-,26-,29-/m0/s1
> <PUBCHEM_IUPAC_INCHIKEY>
XNJBWJOVSBPUHM-VZTVMPNDSA-N
> <PUBCHEM_XLOGP3_AA>
4.2
> <PUBCHEM_EXACT_MASS>
703.26513967
> <PUBCHEM_MOLECULAR_FORMULA>
C34H40F3N5O6S
> <PUBCHEM_MOLECULAR_WEIGHT>
703.8
> <PUBCHEM_OPENEYE_CAN_SMILES>
CC(C)(C)NC(=O)C1CSCN1C(=O)C(C(CC2=CC=CC=C2)NC(=O)C(CC(F)(F)F)N(C)C(=O)COC3=CC=CC4=C3C=CN=C4)O
> <PUBCHEM_OPENEYE_ISO_SMILES>
CC(C)(C)NC(=O)[C@@H]1CSCN1C(=O)[C@H]([C@H](CC2=CC=CC=C2)NC(=O)[C@H](CC(F)(F)F)N(C)C(=O)COC3=CC=CC4=C3C=CN=C4)O
> <PUBCHEM_CACTVS_TPSA>
167
> <PUBCHEM_MONOISOTOPIC_WEIGHT>
703.26513967
> <PUBCHEM_TOTAL_CHARGE>
0
> <PUBCHEM_HEAVY_ATOM_COUNT>
49
> <PUBCHEM_ATOM_DEF_STEREO_COUNT>
4
> <PUBCHEM_ATOM_UDEF_STEREO_COUNT>
0
> <PUBCHEM_BOND_DEF_STEREO_COUNT>
0
> <PUBCHEM_BOND_UDEF_STEREO_COUNT>
0
> <PUBCHEM_ISOTOPIC_ATOM_COUNT>
0
> <PUBCHEM_COMPONENT_COUNT>
1
> <PUBCHEM_CACTVS_TAUTO_COUNT>
-1
> <PUBCHEM_COORDINATE_TYPE>
1
5
255
> <PUBCHEM_BONDANNOTATIONS>
17  12  6
25  14  6
15  48  8
15  49  8
16  23  6
27  32  8
27  33  8
32  37  8
33  38  8
37  39  8
38  39  8
41  42  8
41  43  8
42  44  8
42  47  8
43  45  8
44  46  8
44  48  8
45  46  8
47  49  8
18  5  5
$$$$
