509194
  -OEChem-10302200282D
 67 68  0     1  0  0  0  0  0999 V2000
    7.1505   -2.1105    0.0000 O   0  0  0  0  0  0  0  0  0  0  0  0
    3.6304    0.6593    0.0000 O   0  0  0  0  0  0  0  0  0  0  0  0
    5.7584    1.1116    0.0000 O   0  0  0  0  0  0  0  0  0  0  0  0
    6.0627   -4.4583    0.0000 O   0  0  0  0  0  0  0  0  0  0  0  0
    8.9106   -2.3892    0.0000 O   0  0  0  0  0  0  0  0  0  0  0  0
    8.2383   -4.4583    0.0000 O   0  0  0  0  0  0  0  0  0  0  0  0
    2.5369   -1.0044    0.0000 O   0  0  0  0  0  0  0  0  0  0  0  0
   14.7054    4.0466    0.0000 O   0  0  0  0  0  0  0  0  0  0  0  0
   13.0112    4.4067    0.0000 O   0  0  0  0  0  0  0  0  0  0  0  0
    5.1825   -1.4111    0.0000 N   0  0  3  0  0  0  0  0  0  0  0  0
    4.2690   -1.0044    0.0000 C   0  0  1  0  0  0  0  0  0  0  0  0
    4.3735   -0.0098    0.0000 C   0  0  2  0  0  0  0  0  0  0  0  0
    5.3904   -2.3892    0.0000 C   0  0  0  0  0  0  0  0  0  0  0  0
    6.3415   -2.6983    0.0000 C   0  0  2  0  0  0  0  0  0  0  0  0
    5.8517   -0.6679    0.0000 C   0  0  0  0  0  0  0  0  0  0  0  0
    5.3517    0.1981    0.0000 C   0  0  1  0  0  0  0  0  0  0  0  0
    6.6505   -3.6493    0.0000 C   0  0  2  0  0  0  0  0  0  0  0  0
    7.6505   -3.6493    0.0000 C   0  0  1  0  0  0  0  0  0  0  0  0
    7.9595   -2.6983    0.0000 C   0  0  2  0  0  0  0  0  0  0  0  0
    3.4030   -1.5044    0.0000 C   0  0  0  0  0  0  0  0  0  0  0  0
    9.1185   -1.4111    0.0000 C   0  0  0  0  0  0  0  0  0  0  0  0
   10.0696   -1.1021    0.0000 C   0  0  0  0  0  0  0  0  0  0  0  0
   10.2775   -0.1239    0.0000 C   0  0  0  0  0  0  0  0  0  0  0  0
   11.2285    0.1851    0.0000 C   0  0  0  0  0  0  0  0  0  0  0  0
   11.4364    1.1632    0.0000 C   0  0  0  0  0  0  0  0  0  0  0  0
   12.3875    1.4722    0.0000 C   0  0  0  0  0  0  0  0  0  0  0  0
   12.5954    2.4504    0.0000 C   0  0  0  0  0  0  0  0  0  0  0  0
   13.5465    2.7594    0.0000 C   0  0  0  0  0  0  0  0  0  0  0  0
   13.7544    3.7376    0.0000 C   0  0  0  0  0  0  0  0  0  0  0  0
   14.9133    5.0247    0.0000 C   0  0  0  0  0  0  0  0  0  0  0  0
    4.3014   -1.6235    0.0000 H   0  0  0  0  0  0  0  0  0  0  0  0
    4.5340    0.5890    0.0000 H   0  0  0  0  0  0  0  0  0  0  0  0
    4.7708   -2.4109    0.0000 H   0  0  0  0  0  0  0  0  0  0  0  0
    5.3042   -3.0032    0.0000 H   0  0  0  0  0  0  0  0  0  0  0  0
    6.2445   -2.0859    0.0000 H   0  0  0  0  0  0  0  0  0  0  0  0
    6.2665   -1.1287    0.0000 H   0  0  0  0  0  0  0  0  0  0  0  0
    6.3532   -0.3035    0.0000 H   0  0  0  0  0  0  0  0  0  0  0  0
    4.9615    0.6799    0.0000 H   0  0  0  0  0  0  0  0  0  0  0  0
    6.0382   -3.5523    0.0000 H   0  0  0  0  0  0  0  0  0  0  0  0
    7.3690   -4.2017    0.0000 H   0  0  0  0  0  0  0  0  0  0  0  0
    8.3979   -3.1367    0.0000 H   0  0  0  0  0  0  0  0  0  0  0  0
    3.0044   -1.9793    0.0000 H   0  0  0  0  0  0  0  0  0  0  0  0
    3.8015   -1.9793    0.0000 H   0  0  0  0  0  0  0  0  0  0  0  0
    3.7593    1.2658    0.0000 H   0  0  0  0  0  0  0  0  0  0  0  0
    6.3750    1.1764    0.0000 H   0  0  0  0  0  0  0  0  0  0  0  0
    6.3149   -5.0247    0.0000 H   0  0  0  0  0  0  0  0  0  0  0  0
    8.8549   -4.3935    0.0000 H   0  0  0  0  0  0  0  0  0  0  0  0
    2.0000   -1.3144    0.0000 H   0  0  0  0  0  0  0  0  0  0  0  0
    9.0322   -0.7971    0.0000 H   0  0  0  0  0  0  0  0  0  0  0  0
    8.4989   -1.3895    0.0000 H   0  0  0  0  0  0  0  0  0  0  0  0
   10.1558   -1.7160    0.0000 H   0  0  0  0  0  0  0  0  0  0  0  0
   10.6892   -1.1237    0.0000 H   0  0  0  0  0  0  0  0  0  0  0  0
   10.1912    0.4900    0.0000 H   0  0  0  0  0  0  0  0  0  0  0  0
    9.6578   -0.1023    0.0000 H   0  0  0  0  0  0  0  0  0  0  0  0
   11.3148   -0.4289    0.0000 H   0  0  0  0  0  0  0  0  0  0  0  0
   11.8481    0.1635    0.0000 H   0  0  0  0  0  0  0  0  0  0  0  0
   11.3502    1.7772    0.0000 H   0  0  0  0  0  0  0  0  0  0  0  0
   10.8168    1.1849    0.0000 H   0  0  0  0  0  0  0  0  0  0  0  0
   12.4738    0.8583    0.0000 H   0  0  0  0  0  0  0  0  0  0  0  0
   13.0071    1.4506    0.0000 H   0  0  0  0  0  0  0  0  0  0  0  0
   12.5091    3.0644    0.0000 H   0  0  0  0  0  0  0  0  0  0  0  0
   11.9758    2.4720    0.0000 H   0  0  0  0  0  0  0  0  0  0  0  0
   13.6328    2.1454    0.0000 H   0  0  0  0  0  0  0  0  0  0  0  0
   14.1661    2.7378    0.0000 H   0  0  0  0  0  0  0  0  0  0  0  0
   15.5198    4.8958    0.0000 H   0  0  0  0  0  0  0  0  0  0  0  0
   15.0422    5.6312    0.0000 H   0  0  0  0  0  0  0  0  0  0  0  0
   14.3069    5.1536    0.0000 H   0  0  0  0  0  0  0  0  0  0  0  0
  1 14  1  0  0  0  0
  1 19  1  0  0  0  0
 12  2  1  1  0  0  0
  2 44  1  0  0  0  0
 16  3  1  6  0  0  0
  3 45  1  0  0  0  0
 17  4  1  6  0  0  0
  4 46  1  0  0  0  0
 19  5  1  6  0  0  0
  5 21  1  0  0  0  0
 18  6  1  1  0  0  0
  6 47  1  0  0  0  0
  7 20  1  0  0  0  0
  7 48  1  0  0  0  0
  8 29  1  0  0  0  0
  8 30  1  0  0  0  0
  9 29  2  0  0  0  0
 10 11  1  0  0  0  0
 10 13  1  0  0  0  0
 10 15  1  0  0  0  0
 11 12  1  0  0  0  0
 11 20  1  6  0  0  0
 11 31  1  0  0  0  0
 12 16  1  0  0  0  0
 12 32  1  0  0  0  0
 14 13  1  1  0  0  0
 13 33  1  0  0  0  0
 13 34  1  0  0  0  0
 14 17  1  0  0  0  0
 14 35  1  0  0  0  0
 15 16  1  0  0  0  0
 15 36  1  0  0  0  0
 15 37  1  0  0  0  0
 16 38  1  0  0  0  0
 17 18  1  0  0  0  0
 17 39  1  0  0  0  0
 18 19  1  0  0  0  0
 18 40  1  0  0  0  0
 19 41  1  0  0  0  0
 20 42  1  0  0  0  0
 20 43  1  0  0  0  0
 21 22  1  0  0  0  0
 21 49  1  0  0  0  0
 21 50  1  0  0  0  0
 22 23  1  0  0  0  0
 22 51  1  0  0  0  0
 22 52  1  0  0  0  0
 23 24  1  0  0  0  0
 23 53  1  0  0  0  0
 23 54  1  0  0  0  0
 24 25  1  0  0  0  0
 24 55  1  0  0  0  0
 24 56  1  0  0  0  0
 25 26  1  0  0  0  0
 25 57  1  0  0  0  0
 25 58  1  0  0  0  0
 26 27  1  0  0  0  0
 26 59  1  0  0  0  0
 26 60  1  0  0  0  0
 27 28  1  0  0  0  0
 27 61  1  0  0  0  0
 27 62  1  0  0  0  0
 28 29  1  0  0  0  0
 28 63  1  0  0  0  0
 28 64  1  0  0  0  0
 30 65  1  0  0  0  0
 30 66  1  0  0  0  0
 30 67  1  0  0  0  0
M  END
> <PUBCHEM_COMPOUND_CID>
509194
> <PUBCHEM_COMPOUND_CANONICALIZED>
1
> <PUBCHEM_CACTVS_COMPLEXITY>
509
> <PUBCHEM_CACTVS_HBOND_ACCEPTOR>
10
> <PUBCHEM_CACTVS_HBOND_DONOR>
5
> <PUBCHEM_CACTVS_ROTATABLE_BOND>
14
> <PUBCHEM_CACTVS_SUBSKEYS>
AAADcfB6PAAAAAAAAAAAAAAAAAAAAWJAAAAAAAAAAAAAAAAAAAAAHgAACAAACDzxgAcCCAMABgAIAACQCAAAAAAAAAAAAAEIAAATEBIAgAAnQAAHAACXAAH42KKAAAAAAAAAAAAAAAAAAAAAAAAAAAAAAA==
> <PUBCHEM_IUPAC_OPENEYE_NAME>
methyl 9-[(2S,3S,4S,5R)-5-[[(2R,3R,4R)-3,4-dihydroxy-2-(hydroxymethyl)pyrrolidin-1-yl]methyl]-3,4-dihydroxy-tetrahydrofuran-2-yl]oxynonanoate
> <PUBCHEM_IUPAC_CAS_NAME>
9-[[(2S,3S,4S,5R)-5-[[(2R,3R,4R)-3,4-dihydroxy-2-(hydroxymethyl)-1-pyrrolidinyl]methyl]-3,4-dihydroxy-2-oxolanyl]oxy]nonanoic acid methyl ester
> <PUBCHEM_IUPAC_NAME_MARKUP>
methyl 9-[(2<I>S</I>,3<I>S</I>,4<I>S</I>,5<I>R</I>)-5-[[(2<I>R</I>,3<I>R</I>,4<I>R</I>)-3,4-dihydroxy-2-(hydroxymethyl)pyrrolidin-1-yl]methyl]-3,4-dihydroxyoxolan-2-yl]oxynonanoate
> <PUBCHEM_IUPAC_NAME>
methyl 9-[(2S,3S,4S,5R)-5-[[(2R,3R,4R)-3,4-dihydroxy-2-(hydroxymethyl)pyrrolidin-1-yl]methyl]-3,4-dihydroxyoxolan-2-yl]oxynonanoate
> <PUBCHEM_IUPAC_SYSTEMATIC_NAME>
methyl 9-[(2S,3S,4S,5R)-5-[[(2R,3R,4R)-2-(hydroxymethyl)-3,4-bis(oxidanyl)pyrrolidin-1-yl]methyl]-3,4-bis(oxidanyl)oxolan-2-yl]oxynonanoate
> <PUBCHEM_IUPAC_TRADITIONAL_NAME>
9-[(2S,3S,4S,5R)-5-[[(2R,3R,4R)-3,4-dihydroxy-2-methylol-pyrrolidino]methyl]-3,4-dihydroxy-tetrahydrofuran-2-yl]oxypelargonic acid methyl ester
> <PUBCHEM_IUPAC_INCHI>
InChI=1S/C20H37NO9/c1-28-16(24)8-6-4-2-3-5-7-9-29-20-19(27)18(26)15(30-20)11-21-10-14(23)17(25)13(21)12-22/h13-15,17-20,22-23,25-27H,2-12H2,1H3/t13-,14-,15-,17-,18-,19+,20+/m1/s1
> <PUBCHEM_IUPAC_INCHIKEY>
UISITKULOJZQEY-CJSYXLNHSA-N
> <PUBCHEM_XLOGP3_AA>
-0.3
> <PUBCHEM_EXACT_MASS>
435.24683176
> <PUBCHEM_MOLECULAR_FORMULA>
C20H37NO9
> <PUBCHEM_MOLECULAR_WEIGHT>
435.5
> <PUBCHEM_OPENEYE_CAN_SMILES>
COC(=O)CCCCCCCCOC1C(C(C(O1)CN2CC(C(C2CO)O)O)O)O
> <PUBCHEM_OPENEYE_ISO_SMILES>
COC(=O)CCCCCCCCO[C@@H]1[C@H]([C@@H]([C@H](O1)CN2C[C@H]([C@@H]([C@H]2CO)O)O)O)O
> <PUBCHEM_CACTVS_TPSA>
149
> <PUBCHEM_MONOISOTOPIC_WEIGHT>
435.24683176
> <PUBCHEM_TOTAL_CHARGE>
0
> <PUBCHEM_HEAVY_ATOM_COUNT>
30
> <PUBCHEM_ATOM_DEF_STEREO_COUNT>
7
> <PUBCHEM_ATOM_UDEF_STEREO_COUNT>
0
> <PUBCHEM_BOND_DEF_STEREO_COUNT>
0
> <PUBCHEM_BOND_UDEF_STEREO_COUNT>
0
> <PUBCHEM_ISOTOPIC_ATOM_COUNT>
0
> <PUBCHEM_COMPONENT_COUNT>
1
> <PUBCHEM_CACTVS_TAUTO_COUNT>
-1
> <PUBCHEM_COORDINATE_TYPE>
1
5
255
> <PUBCHEM_BONDANNOTATIONS>
11  20  6
14  13  5
12  2  5
16  3  6
17  4  6
19  5  6
18  6  5
$$$$
