509191
  -OEChem-10302200282D
 23 23  0     1  0  0  0  0  0999 V2000
    6.1807    1.6982    0.0000 F   0  0  0  0  0  0  0  0  0  0  0  0
    4.0051    1.6982    0.0000 O   0  0  0  0  0  0  0  0  0  0  0  0
    2.5896    0.2982    0.0000 O   0  0  0  0  0  0  0  0  0  0  0  0
    2.1738   -1.6581    0.0000 O   0  0  0  0  0  0  0  0  0  0  0  0
    5.0929   -0.6497    0.0000 N   0  0  0  0  0  0  0  0  0  0  0  0
    4.2839   -0.0619    0.0000 C   0  0  1  0  0  0  0  0  0  0  0  0
    4.5929    0.8891    0.0000 C   0  0  1  0  0  0  0  0  0  0  0  0
    5.5929    0.8891    0.0000 C   0  0  2  0  0  0  0  0  0  0  0  0
    5.9019   -0.0619    0.0000 C   0  0  0  0  0  0  0  0  0  0  0  0
    3.3328   -0.3709    0.0000 C   0  0  2  0  0  0  0  0  0  0  0  0
    3.1249   -1.3491    0.0000 C   0  0  0  0  0  0  0  0  0  0  0  0
    4.1509   -0.9015    0.0000 H   0  0  0  0  0  0  0  0  0  0  0  0
    4.8744    1.4416    0.0000 H   0  0  0  0  0  0  0  0  0  0  0  0
    6.2052    0.7921    0.0000 H   0  0  0  0  0  0  0  0  0  0  0  0
    6.2119   -0.5989    0.0000 H   0  0  0  0  0  0  0  0  0  0  0  0
    6.4683    0.1903    0.0000 H   0  0  0  0  0  0  0  0  0  0  0  0
    3.4617    0.2355    0.0000 H   0  0  0  0  0  0  0  0  0  0  0  0
    5.0929   -1.2697    0.0000 H   0  0  0  0  0  0  0  0  0  0  0  0
    3.2112   -1.9630    0.0000 H   0  0  0  0  0  0  0  0  0  0  0  0
    3.7445   -1.3707    0.0000 H   0  0  0  0  0  0  0  0  0  0  0  0
    4.2573    2.2646    0.0000 H   0  0  0  0  0  0  0  0  0  0  0  0
    2.0000    0.1066    0.0000 H   0  0  0  0  0  0  0  0  0  0  0  0
    2.0449   -2.2646    0.0000 H   0  0  0  0  0  0  0  0  0  0  0  0
  8  1  1  1  0  0  0
  7  2  1  6  0  0  0
  2 21  1  0  0  0  0
 10  3  1  6  0  0  0
  3 22  1  0  0  0  0
  4 11  1  0  0  0  0
  4 23  1  0  0  0  0
  5  6  1  0  0  0  0
  5  9  1  0  0  0  0
  5 18  1  0  0  0  0
  6  7  1  0  0  0  0
  6 10  1  0  0  0  0
  6 12  1  1  0  0  0
  7  8  1  0  0  0  0
  7 13  1  0  0  0  0
  8  9  1  0  0  0  0
  8 14  1  0  0  0  0
  9 15  1  0  0  0  0
  9 16  1  0  0  0  0
 10 11  1  0  0  0  0
 10 17  1  0  0  0  0
 11 19  1  0  0  0  0
 11 20  1  0  0  0  0
M  END
> <PUBCHEM_COMPOUND_CID>
509191
> <PUBCHEM_COMPOUND_CANONICALIZED>
1
> <PUBCHEM_CACTVS_COMPLEXITY>
135
> <PUBCHEM_CACTVS_HBOND_ACCEPTOR>
5
> <PUBCHEM_CACTVS_HBOND_DONOR>
4
> <PUBCHEM_CACTVS_ROTATABLE_BOND>
2
> <PUBCHEM_CACTVS_SUBSKEYS>
AAADccBiMQAAAAAAAAAAAAAAAAAAAWAAAAAAAAAAAAAAAAAAAAAAHwAQCAAACDzhgAYAAALAAgAAAAAAAAAAAAAAAAAAAIAIAAADEAIAgAAEQAAHEACRAAHQUAAAAAAAAAAAAAAAAAAAAAAAAAAAAAAAAA==
> <PUBCHEM_IUPAC_OPENEYE_NAME>
(1R)-1-[(2R,3S,4S)-4-fluoro-3-hydroxy-pyrrolidin-2-yl]ethane-1,2-diol
> <PUBCHEM_IUPAC_CAS_NAME>
(1R)-1-[(2R,3S,4S)-4-fluoro-3-hydroxy-2-pyrrolidinyl]ethane-1,2-diol
> <PUBCHEM_IUPAC_NAME_MARKUP>
(1<I>R</I>)-1-[(2<I>R</I>,3<I>S</I>,4<I>S</I>)-4-fluoro-3-hydroxypyrrolidin-2-yl]ethane-1,2-diol
> <PUBCHEM_IUPAC_NAME>
(1R)-1-[(2R,3S,4S)-4-fluoro-3-hydroxypyrrolidin-2-yl]ethane-1,2-diol
> <PUBCHEM_IUPAC_SYSTEMATIC_NAME>
(1R)-1-[(2R,3S,4S)-4-fluoranyl-3-oxidanyl-pyrrolidin-2-yl]ethane-1,2-diol
> <PUBCHEM_IUPAC_TRADITIONAL_NAME>
(1R)-1-[(2R,3S,4S)-4-fluoro-3-hydroxy-pyrrolidin-2-yl]ethane-1,2-diol
> <PUBCHEM_IUPAC_INCHI>
InChI=1S/C6H12FNO3/c7-3-1-8-5(6(3)11)4(10)2-9/h3-6,8-11H,1-2H2/t3-,4-,5+,6+/m0/s1
> <PUBCHEM_IUPAC_INCHIKEY>
BMXQZCXMHVVLLT-UNTFVMJOSA-N
> <PUBCHEM_XLOGP3_AA>
-1.3
> <PUBCHEM_EXACT_MASS>
165.08012141
> <PUBCHEM_MOLECULAR_FORMULA>
C6H12FNO3
> <PUBCHEM_MOLECULAR_WEIGHT>
165.16
> <PUBCHEM_OPENEYE_CAN_SMILES>
C1C(C(C(N1)C(CO)O)O)F
> <PUBCHEM_OPENEYE_ISO_SMILES>
C1[C@@H]([C@H]([C@H](N1)[C@H](CO)O)O)F
> <PUBCHEM_CACTVS_TPSA>
72.7
> <PUBCHEM_MONOISOTOPIC_WEIGHT>
165.08012141
> <PUBCHEM_TOTAL_CHARGE>
0
> <PUBCHEM_HEAVY_ATOM_COUNT>
11
> <PUBCHEM_ATOM_DEF_STEREO_COUNT>
4
> <PUBCHEM_ATOM_UDEF_STEREO_COUNT>
0
> <PUBCHEM_BOND_DEF_STEREO_COUNT>
0
> <PUBCHEM_BOND_UDEF_STEREO_COUNT>
0
> <PUBCHEM_ISOTOPIC_ATOM_COUNT>
0
> <PUBCHEM_COMPONENT_COUNT>
1
> <PUBCHEM_CACTVS_TAUTO_COUNT>
-1
> <PUBCHEM_COORDINATE_TYPE>
1
5
255
> <PUBCHEM_BONDANNOTATIONS>
8  1  5
7  2  6
10  3  6
6  12  5
$$$$
