509192
  -OEChem-10302200282D
 65 66  0     1  0  0  0  0  0999 V2000
    4.8815   -2.1105    0.0000 O   0  0  0  0  0  0  0  0  0  0  0  0
    6.6416   -2.3892    0.0000 O   0  0  0  0  0  0  0  0  0  0  0  0
    3.7938   -4.4583    0.0000 O   0  0  0  0  0  0  0  0  0  0  0  0
    5.9693   -4.4583    0.0000 O   0  0  0  0  0  0  0  0  0  0  0  0
    5.1650    0.0365    0.0000 O   0  0  0  0  0  0  0  0  0  0  0  0
   12.4364    4.0466    0.0000 O   0  0  0  0  0  0  0  0  0  0  0  0
   10.7422    4.4067    0.0000 O   0  0  0  0  0  0  0  0  0  0  0  0
    2.9136   -1.4111    0.0000 N   0  0  3  0  0  0  0  0  0  0  0  0
    3.5827   -0.6679    0.0000 C   0  0  1  0  0  0  0  0  0  0  0  0
    4.0725   -2.6983    0.0000 C   0  0  2  0  0  0  0  0  0  0  0  0
    3.1215   -2.3892    0.0000 C   0  0  0  0  0  0  0  0  0  0  0  0
    3.0827    0.1981    0.0000 C   0  0  0  0  0  0  0  0  0  0  0  0
    2.0000   -1.0044    0.0000 C   0  0  0  0  0  0  0  0  0  0  0  0
    4.3815   -3.6493    0.0000 C   0  0  2  0  0  0  0  0  0  0  0  0
    2.1045   -0.0098    0.0000 C   0  0  0  0  0  0  0  0  0  0  0  0
    5.3815   -3.6493    0.0000 C   0  0  1  0  0  0  0  0  0  0  0  0
    5.6906   -2.6983    0.0000 C   0  0  2  0  0  0  0  0  0  0  0  0
    4.5772   -0.7725    0.0000 C   0  0  0  0  0  0  0  0  0  0  0  0
    6.8495   -1.4111    0.0000 C   0  0  0  0  0  0  0  0  0  0  0  0
    7.8006   -1.1021    0.0000 C   0  0  0  0  0  0  0  0  0  0  0  0
    8.0085   -0.1239    0.0000 C   0  0  0  0  0  0  0  0  0  0  0  0
    8.9595    0.1851    0.0000 C   0  0  0  0  0  0  0  0  0  0  0  0
    9.1674    1.1632    0.0000 C   0  0  0  0  0  0  0  0  0  0  0  0
   10.1185    1.4722    0.0000 C   0  0  0  0  0  0  0  0  0  0  0  0
   10.3264    2.4504    0.0000 C   0  0  0  0  0  0  0  0  0  0  0  0
   11.2775    2.7594    0.0000 C   0  0  0  0  0  0  0  0  0  0  0  0
   11.4854    3.7376    0.0000 C   0  0  0  0  0  0  0  0  0  0  0  0
   12.6444    5.0247    0.0000 C   0  0  0  0  0  0  0  0  0  0  0  0
    3.8049   -1.2468    0.0000 H   0  0  0  0  0  0  0  0  0  0  0  0
    3.9755   -2.0859    0.0000 H   0  0  0  0  0  0  0  0  0  0  0  0
    2.5018   -2.4109    0.0000 H   0  0  0  0  0  0  0  0  0  0  0  0
    3.0352   -3.0032    0.0000 H   0  0  0  0  0  0  0  0  0  0  0  0
    3.6491    0.4503    0.0000 H   0  0  0  0  0  0  0  0  0  0  0  0
    2.8911    0.7877    0.0000 H   0  0  0  0  0  0  0  0  0  0  0  0
    1.3936   -0.8755    0.0000 H   0  0  0  0  0  0  0  0  0  0  0  0
    1.8084   -1.5940    0.0000 H   0  0  0  0  0  0  0  0  0  0  0  0
    4.6630   -4.2017    0.0000 H   0  0  0  0  0  0  0  0  0  0  0  0
    2.0397    0.6068    0.0000 H   0  0  0  0  0  0  0  0  0  0  0  0
    1.4845   -0.0098    0.0000 H   0  0  0  0  0  0  0  0  0  0  0  0
    5.9939   -3.5523    0.0000 H   0  0  0  0  0  0  0  0  0  0  0  0
    6.1290   -3.1367    0.0000 H   0  0  0  0  0  0  0  0  0  0  0  0
    4.4063   -1.3685    0.0000 H   0  0  0  0  0  0  0  0  0  0  0  0
    5.1344   -1.0443    0.0000 H   0  0  0  0  0  0  0  0  0  0  0  0
    4.0459   -5.0247    0.0000 H   0  0  0  0  0  0  0  0  0  0  0  0
    6.5859   -4.3935    0.0000 H   0  0  0  0  0  0  0  0  0  0  0  0
    6.7632   -0.7971    0.0000 H   0  0  0  0  0  0  0  0  0  0  0  0
    6.2299   -1.3895    0.0000 H   0  0  0  0  0  0  0  0  0  0  0  0
    4.9128    0.6029    0.0000 H   0  0  0  0  0  0  0  0  0  0  0  0
    7.8869   -1.7160    0.0000 H   0  0  0  0  0  0  0  0  0  0  0  0
    8.4202   -1.1237    0.0000 H   0  0  0  0  0  0  0  0  0  0  0  0
    7.9222    0.4900    0.0000 H   0  0  0  0  0  0  0  0  0  0  0  0
    7.3889   -0.1023    0.0000 H   0  0  0  0  0  0  0  0  0  0  0  0
    9.0458   -0.4289    0.0000 H   0  0  0  0  0  0  0  0  0  0  0  0
    9.5792    0.1635    0.0000 H   0  0  0  0  0  0  0  0  0  0  0  0
    9.0812    1.7772    0.0000 H   0  0  0  0  0  0  0  0  0  0  0  0
    8.5478    1.1849    0.0000 H   0  0  0  0  0  0  0  0  0  0  0  0
   10.2048    0.8583    0.0000 H   0  0  0  0  0  0  0  0  0  0  0  0
   10.7381    1.4506    0.0000 H   0  0  0  0  0  0  0  0  0  0  0  0
   10.2401    3.0644    0.0000 H   0  0  0  0  0  0  0  0  0  0  0  0
    9.7068    2.4720    0.0000 H   0  0  0  0  0  0  0  0  0  0  0  0
   11.3638    2.1454    0.0000 H   0  0  0  0  0  0  0  0  0  0  0  0
   11.8971    2.7378    0.0000 H   0  0  0  0  0  0  0  0  0  0  0  0
   13.2508    4.8958    0.0000 H   0  0  0  0  0  0  0  0  0  0  0  0
   12.7733    5.6312    0.0000 H   0  0  0  0  0  0  0  0  0  0  0  0
   12.0379    5.1536    0.0000 H   0  0  0  0  0  0  0  0  0  0  0  0
  1 10  1  0  0  0  0
  1 17  1  0  0  0  0
 17  2  1  6  0  0  0
  2 19  1  0  0  0  0
 14  3  1  6  0  0  0
  3 44  1  0  0  0  0
 16  4  1  1  0  0  0
  4 45  1  0  0  0  0
  5 18  1  0  0  0  0
  5 48  1  0  0  0  0
  6 27  1  0  0  0  0
  6 28  1  0  0  0  0
  7 27  2  0  0  0  0
  8  9  1  0  0  0  0
  8 11  1  0  0  0  0
  8 13  1  0  0  0  0
  9 12  1  0  0  0  0
  9 18  1  1  0  0  0
  9 29  1  0  0  0  0
 10 11  1  1  0  0  0
 10 14  1  0  0  0  0
 10 30  1  0  0  0  0
 11 31  1  0  0  0  0
 11 32  1  0  0  0  0
 12 15  1  0  0  0  0
 12 33  1  0  0  0  0
 12 34  1  0  0  0  0
 13 15  1  0  0  0  0
 13 35  1  0  0  0  0
 13 36  1  0  0  0  0
 14 16  1  0  0  0  0
 14 37  1  0  0  0  0
 15 38  1  0  0  0  0
 15 39  1  0  0  0  0
 16 17  1  0  0  0  0
 16 40  1  0  0  0  0
 17 41  1  0  0  0  0
 18 42  1  0  0  0  0
 18 43  1  0  0  0  0
 19 20  1  0  0  0  0
 19 46  1  0  0  0  0
 19 47  1  0  0  0  0
 20 21  1  0  0  0  0
 20 49  1  0  0  0  0
 20 50  1  0  0  0  0
 21 22  1  0  0  0  0
 21 51  1  0  0  0  0
 21 52  1  0  0  0  0
 22 23  1  0  0  0  0
 22 53  1  0  0  0  0
 22 54  1  0  0  0  0
 23 24  1  0  0  0  0
 23 55  1  0  0  0  0
 23 56  1  0  0  0  0
 24 25  1  0  0  0  0
 24 57  1  0  0  0  0
 24 58  1  0  0  0  0
 25 26  1  0  0  0  0
 25 59  1  0  0  0  0
 25 60  1  0  0  0  0
 26 27  1  0  0  0  0
 26 61  1  0  0  0  0
 26 62  1  0  0  0  0
 28 63  1  0  0  0  0
 28 64  1  0  0  0  0
 28 65  1  0  0  0  0
M  END
> <PUBCHEM_COMPOUND_CID>
509192
> <PUBCHEM_COMPOUND_CANONICALIZED>
1
> <PUBCHEM_CACTVS_COMPLEXITY>
450
> <PUBCHEM_CACTVS_HBOND_ACCEPTOR>
8
> <PUBCHEM_CACTVS_HBOND_DONOR>
3
> <PUBCHEM_CACTVS_ROTATABLE_BOND>
14
> <PUBCHEM_CACTVS_SUBSKEYS>
AAADcfB6OAAAAAAAAAAAAAAAAAAAAWJAAAAAAAAAAAAAAAAAAAAAHgAACAAACDzxgAcCCAMABgAIAACQCAAAAAAAAAAAAAEIAAATEBIAgAAnQAAHAACXAAH42KKAAAAAAAAAAAAAAAAAAAAAAAAAAAAAAA==
> <PUBCHEM_IUPAC_OPENEYE_NAME>
methyl 9-[(2S,3S,4S,5R)-3,4-dihydroxy-5-[[(2S)-2-(hydroxymethyl)pyrrolidin-1-yl]methyl]tetrahydrofuran-2-yl]oxynonanoate
> <PUBCHEM_IUPAC_CAS_NAME>
9-[[(2S,3S,4S,5R)-3,4-dihydroxy-5-[[(2S)-2-(hydroxymethyl)-1-pyrrolidinyl]methyl]-2-oxolanyl]oxy]nonanoic acid methyl ester
> <PUBCHEM_IUPAC_NAME_MARKUP>
methyl 9-[(2<I>S</I>,3<I>S</I>,4<I>S</I>,5<I>R</I>)-3,4-dihydroxy-5-[[(2<I>S</I>)-2-(hydroxymethyl)pyrrolidin-1-yl]methyl]oxolan-2-yl]oxynonanoate
> <PUBCHEM_IUPAC_NAME>
methyl 9-[(2S,3S,4S,5R)-3,4-dihydroxy-5-[[(2S)-2-(hydroxymethyl)pyrrolidin-1-yl]methyl]oxolan-2-yl]oxynonanoate
> <PUBCHEM_IUPAC_SYSTEMATIC_NAME>
methyl 9-[(2S,3S,4S,5R)-5-[[(2S)-2-(hydroxymethyl)pyrrolidin-1-yl]methyl]-3,4-bis(oxidanyl)oxolan-2-yl]oxynonanoate
> <PUBCHEM_IUPAC_TRADITIONAL_NAME>
9-[(2S,3S,4S,5R)-3,4-dihydroxy-5-[[(2S)-2-methylolpyrrolidino]methyl]tetrahydrofuran-2-yl]oxypelargonic acid methyl ester
> <PUBCHEM_IUPAC_INCHI>
InChI=1S/C20H37NO7/c1-26-17(23)10-6-4-2-3-5-7-12-27-20-19(25)18(24)16(28-20)13-21-11-8-9-15(21)14-22/h15-16,18-20,22,24-25H,2-14H2,1H3/t15-,16+,18+,19-,20-/m0/s1
> <PUBCHEM_IUPAC_INCHIKEY>
MRNWGRASAUJIIL-NXHKRRBXSA-N
> <PUBCHEM_XLOGP3_AA>
1.1
> <PUBCHEM_EXACT_MASS>
403.25700252
> <PUBCHEM_MOLECULAR_FORMULA>
C20H37NO7
> <PUBCHEM_MOLECULAR_WEIGHT>
403.5
> <PUBCHEM_OPENEYE_CAN_SMILES>
COC(=O)CCCCCCCCOC1C(C(C(O1)CN2CCCC2CO)O)O
> <PUBCHEM_OPENEYE_ISO_SMILES>
COC(=O)CCCCCCCCO[C@@H]1[C@H]([C@@H]([C@H](O1)CN2CCC[C@H]2CO)O)O
> <PUBCHEM_CACTVS_TPSA>
109
> <PUBCHEM_MONOISOTOPIC_WEIGHT>
403.25700252
> <PUBCHEM_TOTAL_CHARGE>
0
> <PUBCHEM_HEAVY_ATOM_COUNT>
28
> <PUBCHEM_ATOM_DEF_STEREO_COUNT>
5
> <PUBCHEM_ATOM_UDEF_STEREO_COUNT>
0
> <PUBCHEM_BOND_DEF_STEREO_COUNT>
0
> <PUBCHEM_BOND_UDEF_STEREO_COUNT>
0
> <PUBCHEM_ISOTOPIC_ATOM_COUNT>
0
> <PUBCHEM_COMPONENT_COUNT>
1
> <PUBCHEM_CACTVS_TAUTO_COUNT>
-1
> <PUBCHEM_COORDINATE_TYPE>
1
5
255
> <PUBCHEM_BONDANNOTATIONS>
10  11  5
17  2  6
14  3  6
16  4  5
9  18  5
$$$$
