509188
  -OEChem-10302200282D
 32 33  0     1  0  0  0  0  0999 V2000
    2.0000   -0.8216    0.0000 Cl  0  0  0  0  0  0  0  0  0  0  0  0
    4.5691   -1.1307    0.0000 O   0  0  0  0  0  0  0  0  0  0  0  0
    5.8424   -2.7862    0.0000 O   0  0  0  0  0  0  0  0  0  0  0  0
    5.4921    0.4571    0.0000 O   0  0  0  0  0  0  0  0  0  0  0  0
    3.7601    3.4571    0.0000 O   0  0  0  0  0  0  0  0  0  0  0  0
    3.7601    0.4571    0.0000 N   0  0  0  0  0  0  0  0  0  0  0  0
    2.6723   -2.8907    0.0000 N   0  0  0  0  0  0  0  0  0  0  0  0
    4.6261    1.9571    0.0000 N   0  0  0  0  0  0  0  0  0  0  0  0
    3.2601   -2.0817    0.0000 C   0  0  1  0  0  0  0  0  0  0  0  0
    2.9511   -1.1307    0.0000 C   0  0  2  0  0  0  0  0  0  0  0  0
    4.2601   -2.0817    0.0000 C   0  0  1  0  0  0  0  0  0  0  0  0
    3.7601   -0.5429    0.0000 C   0  0  1  0  0  0  0  0  0  0  0  0
    4.8479   -2.8907    0.0000 C   0  0  0  0  0  0  0  0  0  0  0  0
    2.8940    0.9571    0.0000 C   0  0  0  0  0  0  0  0  0  0  0  0
    4.6261    0.9571    0.0000 C   0  0  0  0  0  0  0  0  0  0  0  0
    2.8940    1.9571    0.0000 C   0  0  0  0  0  0  0  0  0  0  0  0
    3.7601    2.4571    0.0000 C   0  0  0  0  0  0  0  0  0  0  0  0
    2.0280    2.4571    0.0000 C   0  0  0  0  0  0  0  0  0  0  0  0
    2.6477   -1.9847    0.0000 H   0  0  0  0  0  0  0  0  0  0  0  0
    2.5126   -1.5691    0.0000 H   0  0  0  0  0  0  0  0  0  0  0  0
    4.8724   -1.9847    0.0000 H   0  0  0  0  0  0  0  0  0  0  0  0
    4.3125   -0.2614    0.0000 H   0  0  0  0  0  0  0  0  0  0  0  0
    4.2906   -3.1625    0.0000 H   0  0  0  0  0  0  0  0  0  0  0  0
    5.0188   -3.4867    0.0000 H   0  0  0  0  0  0  0  0  0  0  0  0
    2.9245   -3.4571    0.0000 H   0  0  0  0  0  0  0  0  0  0  0  0
    2.0557   -2.8259    0.0000 H   0  0  0  0  0  0  0  0  0  0  0  0
    2.3571    0.6471    0.0000 H   0  0  0  0  0  0  0  0  0  0  0  0
    5.1630    2.2671    0.0000 H   0  0  0  0  0  0  0  0  0  0  0  0
    6.2068   -3.2878    0.0000 H   0  0  0  0  0  0  0  0  0  0  0  0
    2.3380    2.9941    0.0000 H   0  0  0  0  0  0  0  0  0  0  0  0
    1.4911    2.7671    0.0000 H   0  0  0  0  0  0  0  0  0  0  0  0
    1.7180    1.9202    0.0000 H   0  0  0  0  0  0  0  0  0  0  0  0
 10  1  1  1  0  0  0
  2 11  1  0  0  0  0
  2 12  1  0  0  0  0
  3 13  1  0  0  0  0
  3 29  1  0  0  0  0
  4 15  2  0  0  0  0
  5 17  2  0  0  0  0
 12  6  1  6  0  0  0
  6 14  1  0  0  0  0
  6 15  1  0  0  0  0
  9  7  1  1  0  0  0
  7 25  1  0  0  0  0
  7 26  1  0  0  0  0
  8 15  1  0  0  0  0
  8 17  1  0  0  0  0
  8 28  1  0  0  0  0
  9 10  1  0  0  0  0
  9 11  1  0  0  0  0
  9 19  1  0  0  0  0
 10 12  1  0  0  0  0
 10 20  1  0  0  0  0
 11 13  1  6  0  0  0
 11 21  1  0  0  0  0
 12 22  1  0  0  0  0
 13 23  1  0  0  0  0
 13 24  1  0  0  0  0
 14 16  2  0  0  0  0
 14 27  1  0  0  0  0
 16 17  1  0  0  0  0
 16 18  1  0  0  0  0
 18 30  1  0  0  0  0
 18 31  1  0  0  0  0
 18 32  1  0  0  0  0
M  END
> <PUBCHEM_COMPOUND_CID>
509188
> <PUBCHEM_COMPOUND_CANONICALIZED>
1
> <PUBCHEM_CACTVS_COMPLEXITY>
414
> <PUBCHEM_CACTVS_HBOND_ACCEPTOR>
5
> <PUBCHEM_CACTVS_HBOND_DONOR>
3
> <PUBCHEM_CACTVS_ROTATABLE_BOND>
2
> <PUBCHEM_CACTVS_SUBSKEYS>
AAADccBzOAAEAAAAAAAAAAAAAAAAASAAAAAgAAAAAAAAAAAAAAAAHgIQCAAADD/hgEYDAAPABgCIAgFWUACAAAAAAAAAAIEIA0CDEAIBwQBPQAAOFyIDAMCwMAIAAAAAAAAAAAAAAAAAAAAAAAAAAAAAAA==
> <PUBCHEM_IUPAC_OPENEYE_NAME>
1-[(2R,3R,4R,5S)-4-amino-3-chloro-5-(hydroxymethyl)tetrahydrofuran-2-yl]-5-methyl-pyrimidine-2,4-dione
> <PUBCHEM_IUPAC_CAS_NAME>
1-[(2R,3R,4R,5S)-4-amino-3-chloro-5-(hydroxymethyl)-2-oxolanyl]-5-methylpyrimidine-2,4-dione
> <PUBCHEM_IUPAC_NAME_MARKUP>
1-[(2<I>R</I>,3<I>R</I>,4<I>R</I>,5<I>S</I>)-4-amino-3-chloro-5-(hydroxymethyl)oxolan-2-yl]-5-methylpyrimidine-2,4-dione
> <PUBCHEM_IUPAC_NAME>
1-[(2R,3R,4R,5S)-4-amino-3-chloro-5-(hydroxymethyl)oxolan-2-yl]-5-methylpyrimidine-2,4-dione
> <PUBCHEM_IUPAC_SYSTEMATIC_NAME>
1-[(2R,3R,4R,5S)-4-azanyl-3-chloranyl-5-(hydroxymethyl)oxolan-2-yl]-5-methyl-pyrimidine-2,4-dione
> <PUBCHEM_IUPAC_TRADITIONAL_NAME>
1-[(2R,3R,4R,5S)-4-amino-3-chloro-5-methylol-tetrahydrofuran-2-yl]-5-methyl-pyrimidine-2,4-quinone
> <PUBCHEM_IUPAC_INCHI>
InChI=1S/C10H14ClN3O4/c1-4-2-14(10(17)13-8(4)16)9-6(11)7(12)5(3-15)18-9/h2,5-7,9,15H,3,12H2,1H3,(H,13,16,17)/t5-,6-,7-,9-/m1/s1
> <PUBCHEM_IUPAC_INCHIKEY>
LJBNMBQJXKTNLH-JXOAFFINSA-N
> <PUBCHEM_XLOGP3>
-0.9
> <PUBCHEM_EXACT_MASS>
275.0672836
> <PUBCHEM_MOLECULAR_FORMULA>
C10H14ClN3O4
> <PUBCHEM_MOLECULAR_WEIGHT>
275.69
> <PUBCHEM_OPENEYE_CAN_SMILES>
CC1=CN(C(=O)NC1=O)C2C(C(C(O2)CO)N)Cl
> <PUBCHEM_OPENEYE_ISO_SMILES>
CC1=CN(C(=O)NC1=O)[C@H]2[C@@H]([C@@H]([C@H](O2)CO)N)Cl
> <PUBCHEM_CACTVS_TPSA>
105
> <PUBCHEM_MONOISOTOPIC_WEIGHT>
275.0672836
> <PUBCHEM_TOTAL_CHARGE>
0
> <PUBCHEM_HEAVY_ATOM_COUNT>
18
> <PUBCHEM_ATOM_DEF_STEREO_COUNT>
4
> <PUBCHEM_ATOM_UDEF_STEREO_COUNT>
0
> <PUBCHEM_BOND_DEF_STEREO_COUNT>
0
> <PUBCHEM_BOND_UDEF_STEREO_COUNT>
0
> <PUBCHEM_ISOTOPIC_ATOM_COUNT>
0
> <PUBCHEM_COMPONENT_COUNT>
1
> <PUBCHEM_CACTVS_TAUTO_COUNT>
-1
> <PUBCHEM_COORDINATE_TYPE>
1
5
255
> <PUBCHEM_BONDANNOTATIONS>
10  1  5
11  13  6
14  16  8
16  17  8
12  6  6
6  14  8
6  15  8
9  7  5
8  15  8
8  17  8
$$$$
