509195
  -OEChem-10302200282D
 66 67  0     1  0  0  0  0  0999 V2000
    2.0000    0.6593    0.0000 F   0  0  0  0  0  0  0  0  0  0  0  0
    5.5202   -2.1105    0.0000 O   0  0  0  0  0  0  0  0  0  0  0  0
    4.1280    1.1116    0.0000 O   0  0  0  0  0  0  0  0  0  0  0  0
    4.4324   -4.4583    0.0000 O   0  0  0  0  0  0  0  0  0  0  0  0
    7.2802   -2.3892    0.0000 O   0  0  0  0  0  0  0  0  0  0  0  0
    6.6079   -4.4583    0.0000 O   0  0  0  0  0  0  0  0  0  0  0  0
    5.8036    0.0365    0.0000 O   0  0  0  0  0  0  0  0  0  0  0  0
   13.0751    4.0466    0.0000 O   0  0  0  0  0  0  0  0  0  0  0  0
   11.3809    4.4067    0.0000 O   0  0  0  0  0  0  0  0  0  0  0  0
    3.5522   -1.4111    0.0000 N   0  0  3  0  0  0  0  0  0  0  0  0
    4.2213   -0.6679    0.0000 C   0  0  1  0  0  0  0  0  0  0  0  0
    4.7111   -2.6983    0.0000 C   0  0  2  0  0  0  0  0  0  0  0  0
    3.7601   -2.3892    0.0000 C   0  0  0  0  0  0  0  0  0  0  0  0
    3.7213    0.1981    0.0000 C   0  0  2  0  0  0  0  0  0  0  0  0
    2.6386   -1.0044    0.0000 C   0  0  0  0  0  0  0  0  0  0  0  0
    2.7431   -0.0098    0.0000 C   0  0  1  0  0  0  0  0  0  0  0  0
    5.0202   -3.6493    0.0000 C   0  0  2  0  0  0  0  0  0  0  0  0
    6.0202   -3.6493    0.0000 C   0  0  1  0  0  0  0  0  0  0  0  0
    6.3292   -2.6983    0.0000 C   0  0  2  0  0  0  0  0  0  0  0  0
    5.2158   -0.7725    0.0000 C   0  0  0  0  0  0  0  0  0  0  0  0
    7.4881   -1.4111    0.0000 C   0  0  0  0  0  0  0  0  0  0  0  0
    8.4392   -1.1021    0.0000 C   0  0  0  0  0  0  0  0  0  0  0  0
    8.6471   -0.1239    0.0000 C   0  0  0  0  0  0  0  0  0  0  0  0
    9.5982    0.1851    0.0000 C   0  0  0  0  0  0  0  0  0  0  0  0
    9.8061    1.1632    0.0000 C   0  0  0  0  0  0  0  0  0  0  0  0
   10.7571    1.4722    0.0000 C   0  0  0  0  0  0  0  0  0  0  0  0
   10.9650    2.4504    0.0000 C   0  0  0  0  0  0  0  0  0  0  0  0
   11.9161    2.7594    0.0000 C   0  0  0  0  0  0  0  0  0  0  0  0
   12.1240    3.7376    0.0000 C   0  0  0  0  0  0  0  0  0  0  0  0
   13.2830    5.0247    0.0000 C   0  0  0  0  0  0  0  0  0  0  0  0
    4.4435   -1.2468    0.0000 H   0  0  0  0  0  0  0  0  0  0  0  0
    4.6141   -2.0859    0.0000 H   0  0  0  0  0  0  0  0  0  0  0  0
    3.1404   -2.4109    0.0000 H   0  0  0  0  0  0  0  0  0  0  0  0
    3.6738   -3.0032    0.0000 H   0  0  0  0  0  0  0  0  0  0  0  0
    4.3404    0.2305    0.0000 H   0  0  0  0  0  0  0  0  0  0  0  0
    2.0322   -0.8755    0.0000 H   0  0  0  0  0  0  0  0  0  0  0  0
    2.4470   -1.5940    0.0000 H   0  0  0  0  0  0  0  0  0  0  0  0
    2.1643   -0.2320    0.0000 H   0  0  0  0  0  0  0  0  0  0  0  0
    4.4078   -3.5523    0.0000 H   0  0  0  0  0  0  0  0  0  0  0  0
    6.6325   -3.5523    0.0000 H   0  0  0  0  0  0  0  0  0  0  0  0
    6.7676   -3.1367    0.0000 H   0  0  0  0  0  0  0  0  0  0  0  0
    5.0449   -1.3685    0.0000 H   0  0  0  0  0  0  0  0  0  0  0  0
    5.7731   -1.0443    0.0000 H   0  0  0  0  0  0  0  0  0  0  0  0
    3.7636    1.6132    0.0000 H   0  0  0  0  0  0  0  0  0  0  0  0
    4.6845   -5.0247    0.0000 H   0  0  0  0  0  0  0  0  0  0  0  0
    7.2245   -4.3935    0.0000 H   0  0  0  0  0  0  0  0  0  0  0  0
    7.4018   -0.7971    0.0000 H   0  0  0  0  0  0  0  0  0  0  0  0
    6.8685   -1.3895    0.0000 H   0  0  0  0  0  0  0  0  0  0  0  0
    6.4202   -0.0283    0.0000 H   0  0  0  0  0  0  0  0  0  0  0  0
    8.5255   -1.7160    0.0000 H   0  0  0  0  0  0  0  0  0  0  0  0
    9.0588   -1.1237    0.0000 H   0  0  0  0  0  0  0  0  0  0  0  0
    8.5608    0.4900    0.0000 H   0  0  0  0  0  0  0  0  0  0  0  0
    8.0275   -0.1023    0.0000 H   0  0  0  0  0  0  0  0  0  0  0  0
    9.6844   -0.4289    0.0000 H   0  0  0  0  0  0  0  0  0  0  0  0
   10.2178    0.1635    0.0000 H   0  0  0  0  0  0  0  0  0  0  0  0
    9.7198    1.7772    0.0000 H   0  0  0  0  0  0  0  0  0  0  0  0
    9.1864    1.1849    0.0000 H   0  0  0  0  0  0  0  0  0  0  0  0
   10.8434    0.8583    0.0000 H   0  0  0  0  0  0  0  0  0  0  0  0
   11.3767    1.4506    0.0000 H   0  0  0  0  0  0  0  0  0  0  0  0
   10.8787    3.0644    0.0000 H   0  0  0  0  0  0  0  0  0  0  0  0
   10.3454    2.4720    0.0000 H   0  0  0  0  0  0  0  0  0  0  0  0
   12.0024    2.1454    0.0000 H   0  0  0  0  0  0  0  0  0  0  0  0
   12.5357    2.7378    0.0000 H   0  0  0  0  0  0  0  0  0  0  0  0
   13.8894    4.8958    0.0000 H   0  0  0  0  0  0  0  0  0  0  0  0
   13.4119    5.6312    0.0000 H   0  0  0  0  0  0  0  0  0  0  0  0
   12.6765    5.1536    0.0000 H   0  0  0  0  0  0  0  0  0  0  0  0
 16  1  1  1  0  0  0
  2 12  1  0  0  0  0
  2 19  1  0  0  0  0
 14  3  1  6  0  0  0
  3 44  1  0  0  0  0
 17  4  1  6  0  0  0
  4 45  1  0  0  0  0
 19  5  1  6  0  0  0
  5 21  1  0  0  0  0
 18  6  1  1  0  0  0
  6 46  1  0  0  0  0
  7 20  1  0  0  0  0
  7 49  1  0  0  0  0
  8 29  1  0  0  0  0
  8 30  1  0  0  0  0
  9 29  2  0  0  0  0
 10 11  1  0  0  0  0
 10 13  1  0  0  0  0
 10 15  1  0  0  0  0
 11 14  1  0  0  0  0
 11 20  1  1  0  0  0
 11 31  1  0  0  0  0
 12 13  1  1  0  0  0
 12 17  1  0  0  0  0
 12 32  1  0  0  0  0
 13 33  1  0  0  0  0
 13 34  1  0  0  0  0
 14 16  1  0  0  0  0
 14 35  1  0  0  0  0
 15 16  1  0  0  0  0
 15 36  1  0  0  0  0
 15 37  1  0  0  0  0
 16 38  1  0  0  0  0
 17 18  1  0  0  0  0
 17 39  1  0  0  0  0
 18 19  1  0  0  0  0
 18 40  1  0  0  0  0
 19 41  1  0  0  0  0
 20 42  1  0  0  0  0
 20 43  1  0  0  0  0
 21 22  1  0  0  0  0
 21 47  1  0  0  0  0
 21 48  1  0  0  0  0
 22 23  1  0  0  0  0
 22 50  1  0  0  0  0
 22 51  1  0  0  0  0
 23 24  1  0  0  0  0
 23 52  1  0  0  0  0
 23 53  1  0  0  0  0
 24 25  1  0  0  0  0
 24 54  1  0  0  0  0
 24 55  1  0  0  0  0
 25 26  1  0  0  0  0
 25 56  1  0  0  0  0
 25 57  1  0  0  0  0
 26 27  1  0  0  0  0
 26 58  1  0  0  0  0
 26 59  1  0  0  0  0
 27 28  1  0  0  0  0
 27 60  1  0  0  0  0
 27 61  1  0  0  0  0
 28 29  1  0  0  0  0
 28 62  1  0  0  0  0
 28 63  1  0  0  0  0
 30 64  1  0  0  0  0
 30 65  1  0  0  0  0
 30 66  1  0  0  0  0
M  END
> <PUBCHEM_COMPOUND_CID>
509195
> <PUBCHEM_COMPOUND_CANONICALIZED>
1
> <PUBCHEM_CACTVS_COMPLEXITY>
513
> <PUBCHEM_CACTVS_HBOND_ACCEPTOR>
10
> <PUBCHEM_CACTVS_HBOND_DONOR>
4
> <PUBCHEM_CACTVS_ROTATABLE_BOND>
14
> <PUBCHEM_CACTVS_SUBSKEYS>
AAADcfB6PQAAAAAAAAAAAAAAAAAAAWJAAAAAAAAAAAAAAAAAAAAAHwAACAAACDzxgAcCCAMABgAIAACQCAAAAAAAAAAAAAEIAAATEBIAgAAnQAAHAACXAAH42KKAAAAAAAAAAAAAAAAAAAAAAAAAAAAAAA==
> <PUBCHEM_IUPAC_OPENEYE_NAME>
methyl 9-[(2S,3S,4S,5R)-5-[[(2R,3R,4R)-4-fluoro-3-hydroxy-2-(hydroxymethyl)pyrrolidin-1-yl]methyl]-3,4-dihydroxy-tetrahydrofuran-2-yl]oxynonanoate
> <PUBCHEM_IUPAC_CAS_NAME>
9-[[(2S,3S,4S,5R)-5-[[(2R,3R,4R)-4-fluoro-3-hydroxy-2-(hydroxymethyl)-1-pyrrolidinyl]methyl]-3,4-dihydroxy-2-oxolanyl]oxy]nonanoic acid methyl ester
> <PUBCHEM_IUPAC_NAME_MARKUP>
methyl 9-[(2<I>S</I>,3<I>S</I>,4<I>S</I>,5<I>R</I>)-5-[[(2<I>R</I>,3<I>R</I>,4<I>R</I>)-4-fluoro-3-hydroxy-2-(hydroxymethyl)pyrrolidin-1-yl]methyl]-3,4-dihydroxyoxolan-2-yl]oxynonanoate
> <PUBCHEM_IUPAC_NAME>
methyl 9-[(2S,3S,4S,5R)-5-[[(2R,3R,4R)-4-fluoro-3-hydroxy-2-(hydroxymethyl)pyrrolidin-1-yl]methyl]-3,4-dihydroxyoxolan-2-yl]oxynonanoate
> <PUBCHEM_IUPAC_SYSTEMATIC_NAME>
methyl 9-[(2S,3S,4S,5R)-5-[[(2R,3R,4R)-4-fluoranyl-2-(hydroxymethyl)-3-oxidanyl-pyrrolidin-1-yl]methyl]-3,4-bis(oxidanyl)oxolan-2-yl]oxynonanoate
> <PUBCHEM_IUPAC_TRADITIONAL_NAME>
9-[(2S,3S,4S,5R)-5-[[(2R,3R,4R)-4-fluoro-3-hydroxy-2-methylol-pyrrolidino]methyl]-3,4-dihydroxy-tetrahydrofuran-2-yl]oxypelargonic acid methyl ester
> <PUBCHEM_IUPAC_INCHI>
InChI=1S/C20H36FNO8/c1-28-16(24)8-6-4-2-3-5-7-9-29-20-19(27)18(26)15(30-20)11-22-10-13(21)17(25)14(22)12-23/h13-15,17-20,23,25-27H,2-12H2,1H3/t13-,14-,15-,17+,18-,19+,20+/m1/s1
> <PUBCHEM_IUPAC_INCHIKEY>
UHUNAJWFRWOYGD-BHJGDWCPSA-N
> <PUBCHEM_XLOGP3_AA>
0.8
> <PUBCHEM_EXACT_MASS>
437.24249527
> <PUBCHEM_MOLECULAR_FORMULA>
C20H36FNO8
> <PUBCHEM_MOLECULAR_WEIGHT>
437.5
> <PUBCHEM_OPENEYE_CAN_SMILES>
COC(=O)CCCCCCCCOC1C(C(C(O1)CN2CC(C(C2CO)O)F)O)O
> <PUBCHEM_OPENEYE_ISO_SMILES>
COC(=O)CCCCCCCCO[C@@H]1[C@H]([C@@H]([C@H](O1)CN2C[C@H]([C@@H]([C@H]2CO)O)F)O)O
> <PUBCHEM_CACTVS_TPSA>
129
> <PUBCHEM_MONOISOTOPIC_WEIGHT>
437.24249527
> <PUBCHEM_TOTAL_CHARGE>
0
> <PUBCHEM_HEAVY_ATOM_COUNT>
30
> <PUBCHEM_ATOM_DEF_STEREO_COUNT>
7
> <PUBCHEM_ATOM_UDEF_STEREO_COUNT>
0
> <PUBCHEM_BOND_DEF_STEREO_COUNT>
0
> <PUBCHEM_BOND_UDEF_STEREO_COUNT>
0
> <PUBCHEM_ISOTOPIC_ATOM_COUNT>
0
> <PUBCHEM_COMPONENT_COUNT>
1
> <PUBCHEM_CACTVS_TAUTO_COUNT>
-1
> <PUBCHEM_COORDINATE_TYPE>
1
5
255
> <PUBCHEM_BONDANNOTATIONS>
16  1  5
11  20  5
12  13  5
14  3  6
17  4  6
19  5  6
18  6  5
$$$$
