509110
  -OEChem-10302200282D
 58 62  0     1  0  0  0  0  0999 V2000
    2.0000   -3.3441    0.0000 Cl  0  0  0  0  0  0  0  0  0  0  0  0
    7.1962   -6.3441    0.0000 Cl  0  0  0  0  0  0  0  0  0  0  0  0
    7.3077    5.0125    0.0000 S   0  0  0  0  0  0  0  0  0  0  0  0
    3.9595    1.8195    0.0000 O   0  0  0  0  0  0  0  0  0  0  0  0
    7.1753    0.3877    0.0000 O   0  0  0  0  0  0  0  0  0  0  0  0
    3.7320   -4.3441    0.0000 O   0  0  0  0  0  0  0  0  0  0  0  0
   11.6925    6.3441    0.0000 O   0  5  0  0  0  0  0  0  0  0  0  0
   11.8736    4.6216    0.0000 O   0  0  0  0  0  0  0  0  0  0  0  0
    5.6808    1.3583    0.0000 N   0  0  0  0  0  0  0  0  0  0  0  0
    3.7320   -0.3441    0.0000 N   0  0  0  0  0  0  0  0  0  0  0  0
   11.2858    5.4306    0.0000 N   0  3  0  0  0  0  0  0  0  0  0  0
    4.5981    0.1559    0.0000 C   0  0  3  0  0  0  0  0  0  0  0  0
    5.5116   -0.2509    0.0000 C   0  0  0  0  0  0  0  0  0  0  0  0
    4.7026    1.1504    0.0000 C   0  0  0  0  0  0  0  0  0  0  0  0
    6.1808    0.4923    0.0000 C   0  0  0  0  0  0  0  0  0  0  0  0
    6.0875    2.2718    0.0000 C   0  0  0  0  0  0  0  0  0  0  0  0
    3.7320   -1.3441    0.0000 C   0  0  0  0  0  0  0  0  0  0  0  0
    7.0820    2.3764    0.0000 C   0  0  0  0  0  0  0  0  0  0  0  0
    5.4997    3.0809    0.0000 C   0  0  0  0  0  0  0  0  0  0  0  0
    2.8660   -1.8441    0.0000 C   0  0  0  0  0  0  0  0  0  0  0  0
    4.5981   -1.8441    0.0000 C   0  0  0  0  0  0  0  0  0  0  0  0
    7.4888    3.2899    0.0000 C   0  0  0  0  0  0  0  0  0  0  0  0
    5.9064    3.9944    0.0000 C   0  0  0  0  0  0  0  0  0  0  0  0
    6.9010    4.0989    0.0000 C   0  0  0  0  0  0  0  0  0  0  0  0
    2.8660   -2.8441    0.0000 C   0  0  0  0  0  0  0  0  0  0  0  0
    4.5981   -2.8441    0.0000 C   0  0  0  0  0  0  0  0  0  0  0  0
    3.7320   -3.3441    0.0000 C   0  0  0  0  0  0  0  0  0  0  0  0
    8.3022    5.1170    0.0000 C   0  0  0  0  0  0  0  0  0  0  0  0
    4.5981   -4.8441    0.0000 C   0  0  0  0  0  0  0  0  0  0  0  0
    8.8900    4.3080    0.0000 C   0  0  0  0  0  0  0  0  0  0  0  0
    8.7090    6.0306    0.0000 C   0  0  0  0  0  0  0  0  0  0  0  0
    9.8845    4.4125    0.0000 C   0  0  0  0  0  0  0  0  0  0  0  0
    9.7035    6.1351    0.0000 C   0  0  0  0  0  0  0  0  0  0  0  0
    4.5981   -5.8441    0.0000 C   0  0  0  0  0  0  0  0  0  0  0  0
    5.4641   -4.3441    0.0000 C   0  0  0  0  0  0  0  0  0  0  0  0
   10.2913    5.3261    0.0000 C   0  0  0  0  0  0  0  0  0  0  0  0
    5.4641   -6.3441    0.0000 C   0  0  0  0  0  0  0  0  0  0  0  0
    6.3301   -4.8441    0.0000 C   0  0  0  0  0  0  0  0  0  0  0  0
    6.3301   -5.8441    0.0000 C   0  0  0  0  0  0  0  0  0  0  0  0
    4.0781    0.4935    0.0000 H   0  0  0  0  0  0  0  0  0  0  0  0
    5.2016   -0.7878    0.0000 H   0  0  0  0  0  0  0  0  0  0  0  0
    6.0132   -0.6153    0.0000 H   0  0  0  0  0  0  0  0  0  0  0  0
    3.1951   -0.0341    0.0000 H   0  0  0  0  0  0  0  0  0  0  0  0
    7.4464    1.8748    0.0000 H   0  0  0  0  0  0  0  0  0  0  0  0
    4.8831    3.0160    0.0000 H   0  0  0  0  0  0  0  0  0  0  0  0
    2.3291   -1.5341    0.0000 H   0  0  0  0  0  0  0  0  0  0  0  0
    5.1350   -1.5341    0.0000 H   0  0  0  0  0  0  0  0  0  0  0  0
    8.1054    3.3547    0.0000 H   0  0  0  0  0  0  0  0  0  0  0  0
    5.5420    4.4960    0.0000 H   0  0  0  0  0  0  0  0  0  0  0  0
    5.1350   -3.1541    0.0000 H   0  0  0  0  0  0  0  0  0  0  0  0
    8.6378    3.7416    0.0000 H   0  0  0  0  0  0  0  0  0  0  0  0
    8.3445    6.5321    0.0000 H   0  0  0  0  0  0  0  0  0  0  0  0
   10.2490    3.9109    0.0000 H   0  0  0  0  0  0  0  0  0  0  0  0
    9.9557    6.7015    0.0000 H   0  0  0  0  0  0  0  0  0  0  0  0
    4.0611   -6.1541    0.0000 H   0  0  0  0  0  0  0  0  0  0  0  0
    5.4641   -3.7241    0.0000 H   0  0  0  0  0  0  0  0  0  0  0  0
    5.4641   -6.9641    0.0000 H   0  0  0  0  0  0  0  0  0  0  0  0
    6.8671   -4.5341    0.0000 H   0  0  0  0  0  0  0  0  0  0  0  0
  1 25  1  0  0  0  0
  2 39  1  0  0  0  0
  3 24  1  0  0  0  0
  3 28  1  0  0  0  0
  4 14  2  0  0  0  0
  5 15  2  0  0  0  0
  6 27  1  0  0  0  0
  6 29  1  0  0  0  0
  7 11  1  0  0  0  0
  8 11  2  0  0  0  0
  9 14  1  0  0  0  0
  9 15  1  0  0  0  0
  9 16  1  0  0  0  0
 10 12  1  0  0  0  0
 10 17  1  0  0  0  0
 10 43  1  0  0  0  0
 11 36  1  0  0  0  0
 12 13  1  0  0  0  0
 12 14  1  0  0  0  0
 12 40  1  0  0  0  0
 13 15  1  0  0  0  0
 13 41  1  0  0  0  0
 13 42  1  0  0  0  0
 16 18  2  0  0  0  0
 16 19  1  0  0  0  0
 17 20  2  0  0  0  0
 17 21  1  0  0  0  0
 18 22  1  0  0  0  0
 18 44  1  0  0  0  0
 19 23  2  0  0  0  0
 19 45  1  0  0  0  0
 20 25  1  0  0  0  0
 20 46  1  0  0  0  0
 21 26  2  0  0  0  0
 21 47  1  0  0  0  0
 22 24  2  0  0  0  0
 22 48  1  0  0  0  0
 23 24  1  0  0  0  0
 23 49  1  0  0  0  0
 25 27  2  0  0  0  0
 26 27  1  0  0  0  0
 26 50  1  0  0  0  0
 28 30  2  0  0  0  0
 28 31  1  0  0  0  0
 29 34  2  0  0  0  0
 29 35  1  0  0  0  0
 30 32  1  0  0  0  0
 30 51  1  0  0  0  0
 31 33  2  0  0  0  0
 31 52  1  0  0  0  0
 32 36  2  0  0  0  0
 32 53  1  0  0  0  0
 33 36  1  0  0  0  0
 33 54  1  0  0  0  0
 34 37  1  0  0  0  0
 34 55  1  0  0  0  0
 35 38  2  0  0  0  0
 35 56  1  0  0  0  0
 37 39  2  0  0  0  0
 37 57  1  0  0  0  0
 38 39  1  0  0  0  0
 38 58  1  0  0  0  0
M  CHG  2   7  -1  11   1
M  END
> <PUBCHEM_COMPOUND_CID>
509110
> <PUBCHEM_COMPOUND_CANONICALIZED>
1
> <PUBCHEM_CACTVS_COMPLEXITY>
870
> <PUBCHEM_CACTVS_HBOND_ACCEPTOR>
7
> <PUBCHEM_CACTVS_HBOND_DONOR>
1
> <PUBCHEM_CACTVS_ROTATABLE_BOND>
7
> <PUBCHEM_CACTVS_SUBSKEYS>
AAADceB7OABGAAAAAAAAAAAAAAAAAWAAAAAwYMGAAAAAAAABVAAAHgYUAAAACC7B0CQwx4PQRAiJACVSUwCCCAAhL1AoiJmOb4oMZjvl87uWOCjk1DHo6Ae1QAAAAGQAAAIACAAAyAAABAAQAAAAAAAAAA==
> <PUBCHEM_IUPAC_OPENEYE_NAME>
3-[3-chloro-4-(4-chlorophenoxy)anilino]-1-[4-(4-nitrophenyl)sulfanylphenyl]pyrrolidine-2,5-dione
> <PUBCHEM_IUPAC_CAS_NAME>
3-[3-chloro-4-(4-chlorophenoxy)anilino]-1-[4-[(4-nitrophenyl)thio]phenyl]pyrrolidine-2,5-dione
> <PUBCHEM_IUPAC_NAME_MARKUP>
3-[3-chloro-4-(4-chlorophenoxy)anilino]-1-[4-(4-nitrophenyl)sulfanylphenyl]pyrrolidine-2,5-dione
> <PUBCHEM_IUPAC_NAME>
3-[3-chloro-4-(4-chlorophenoxy)anilino]-1-[4-(4-nitrophenyl)sulfanylphenyl]pyrrolidine-2,5-dione
> <PUBCHEM_IUPAC_SYSTEMATIC_NAME>
3-[[3-chloranyl-4-(4-chloranylphenoxy)phenyl]amino]-1-[4-(4-nitrophenyl)sulfanylphenyl]pyrrolidine-2,5-dione
> <PUBCHEM_IUPAC_TRADITIONAL_NAME>
3-[3-chloro-4-(4-chlorophenoxy)anilino]-1-[4-[(4-nitrophenyl)thio]phenyl]pyrrolidine-2,5-quinone
> <PUBCHEM_IUPAC_INCHI>
InChI=1S/C28H19Cl2N3O5S/c29-17-1-8-21(9-2-17)38-26-14-3-18(15-24(26)30)31-25-16-27(34)32(28(25)35)19-4-10-22(11-5-19)39-23-12-6-20(7-13-23)33(36)37/h1-15,25,31H,16H2
> <PUBCHEM_IUPAC_INCHIKEY>
GTTRZOCWMOGMEB-UHFFFAOYSA-N
> <PUBCHEM_XLOGP3_AA>
7.2
> <PUBCHEM_EXACT_MASS>
579.0422473
> <PUBCHEM_MOLECULAR_FORMULA>
C28H19Cl2N3O5S
> <PUBCHEM_MOLECULAR_WEIGHT>
580.4
> <PUBCHEM_OPENEYE_CAN_SMILES>
C1C(C(=O)N(C1=O)C2=CC=C(C=C2)SC3=CC=C(C=C3)[N+](=O)[O-])NC4=CC(=C(C=C4)OC5=CC=C(C=C5)Cl)Cl
> <PUBCHEM_OPENEYE_ISO_SMILES>
C1C(C(=O)N(C1=O)C2=CC=C(C=C2)SC3=CC=C(C=C3)[N+](=O)[O-])NC4=CC(=C(C=C4)OC5=CC=C(C=C5)Cl)Cl
> <PUBCHEM_CACTVS_TPSA>
130
> <PUBCHEM_MONOISOTOPIC_WEIGHT>
579.0422473
> <PUBCHEM_TOTAL_CHARGE>
0
> <PUBCHEM_HEAVY_ATOM_COUNT>
39
> <PUBCHEM_ATOM_DEF_STEREO_COUNT>
0
> <PUBCHEM_ATOM_UDEF_STEREO_COUNT>
1
> <PUBCHEM_BOND_DEF_STEREO_COUNT>
0
> <PUBCHEM_BOND_UDEF_STEREO_COUNT>
0
> <PUBCHEM_ISOTOPIC_ATOM_COUNT>
0
> <PUBCHEM_COMPONENT_COUNT>
1
> <PUBCHEM_CACTVS_TAUTO_COUNT>
-1
> <PUBCHEM_COORDINATE_TYPE>
1
5
255
> <PUBCHEM_BONDANNOTATIONS>
12  10  3
16  18  8
16  19  8
17  20  8
17  21  8
18  22  8
19  23  8
20  25  8
21  26  8
22  24  8
23  24  8
25  27  8
26  27  8
28  30  8
28  31  8
29  34  8
29  35  8
30  32  8
31  33  8
32  36  8
33  36  8
34  37  8
35  38  8
37  39  8
38  39  8
$$$$
