509108
  -OEChem-10302200282D
 55 58  0     1  0  0  0  0  0999 V2000
    2.0000   -3.2396    0.0000 Cl  0  0  0  0  0  0  0  0  0  0  0  0
    7.1962   -6.2396    0.0000 Cl  0  0  0  0  0  0  0  0  0  0  0  0
    3.9595    1.9240    0.0000 O   0  0  0  0  0  0  0  0  0  0  0  0
    7.1753    0.4923    0.0000 O   0  0  0  0  0  0  0  0  0  0  0  0
    7.3077    5.1170    0.0000 O   0  0  0  0  0  0  0  0  0  0  0  0
    3.7320   -4.2396    0.0000 O   0  0  0  0  0  0  0  0  0  0  0  0
    5.6808    1.4628    0.0000 N   0  0  0  0  0  0  0  0  0  0  0  0
    3.7320   -0.2396    0.0000 N   0  0  0  0  0  0  0  0  0  0  0  0
    4.5981    0.2604    0.0000 C   0  0  3  0  0  0  0  0  0  0  0  0
    5.5116   -0.1463    0.0000 C   0  0  0  0  0  0  0  0  0  0  0  0
    4.7026    1.2549    0.0000 C   0  0  0  0  0  0  0  0  0  0  0  0
    6.1808    0.5968    0.0000 C   0  0  0  0  0  0  0  0  0  0  0  0
    6.0875    2.3764    0.0000 C   0  0  0  0  0  0  0  0  0  0  0  0
    3.7320   -1.2396    0.0000 C   0  0  0  0  0  0  0  0  0  0  0  0
    5.4997    3.1854    0.0000 C   0  0  0  0  0  0  0  0  0  0  0  0
    7.0820    2.4809    0.0000 C   0  0  0  0  0  0  0  0  0  0  0  0
    2.8660   -1.7396    0.0000 C   0  0  0  0  0  0  0  0  0  0  0  0
    4.5981   -1.7396    0.0000 C   0  0  0  0  0  0  0  0  0  0  0  0
    5.9064    4.0989    0.0000 C   0  0  0  0  0  0  0  0  0  0  0  0
    7.4888    3.3944    0.0000 C   0  0  0  0  0  0  0  0  0  0  0  0
    6.9010    4.2035    0.0000 C   0  0  0  0  0  0  0  0  0  0  0  0
    2.8660   -2.7396    0.0000 C   0  0  0  0  0  0  0  0  0  0  0  0
    4.5981   -2.7396    0.0000 C   0  0  0  0  0  0  0  0  0  0  0  0
    3.7320   -3.2396    0.0000 C   0  0  0  0  0  0  0  0  0  0  0  0
    8.3022    5.2215    0.0000 C   0  0  0  0  0  0  0  0  0  0  0  0
    8.7090    6.1351    0.0000 C   0  0  0  0  0  0  0  0  0  0  0  0
    9.7035    6.2396    0.0000 C   0  0  0  0  0  0  0  0  0  0  0  0
    4.5981   -4.7396    0.0000 C   0  0  0  0  0  0  0  0  0  0  0  0
    5.4641   -4.2396    0.0000 C   0  0  0  0  0  0  0  0  0  0  0  0
    4.5981   -5.7396    0.0000 C   0  0  0  0  0  0  0  0  0  0  0  0
    6.3301   -4.7396    0.0000 C   0  0  0  0  0  0  0  0  0  0  0  0
    5.4641   -6.2396    0.0000 C   0  0  0  0  0  0  0  0  0  0  0  0
    6.3301   -5.7396    0.0000 C   0  0  0  0  0  0  0  0  0  0  0  0
    4.0781    0.5981    0.0000 H   0  0  0  0  0  0  0  0  0  0  0  0
    5.2016   -0.6833    0.0000 H   0  0  0  0  0  0  0  0  0  0  0  0
    6.0132   -0.5108    0.0000 H   0  0  0  0  0  0  0  0  0  0  0  0
    3.1951    0.0704    0.0000 H   0  0  0  0  0  0  0  0  0  0  0  0
    4.8831    3.1206    0.0000 H   0  0  0  0  0  0  0  0  0  0  0  0
    7.4464    1.9793    0.0000 H   0  0  0  0  0  0  0  0  0  0  0  0
    2.3291   -1.4296    0.0000 H   0  0  0  0  0  0  0  0  0  0  0  0
    5.1350   -1.4296    0.0000 H   0  0  0  0  0  0  0  0  0  0  0  0
    5.5420    4.6005    0.0000 H   0  0  0  0  0  0  0  0  0  0  0  0
    8.1054    3.4592    0.0000 H   0  0  0  0  0  0  0  0  0  0  0  0
    5.1350   -3.0496    0.0000 H   0  0  0  0  0  0  0  0  0  0  0  0
    8.2590    4.6030    0.0000 H   0  0  0  0  0  0  0  0  0  0  0  0
    8.9038    5.0715    0.0000 H   0  0  0  0  0  0  0  0  0  0  0  0
    8.7522    6.7536    0.0000 H   0  0  0  0  0  0  0  0  0  0  0  0
    8.1074    6.2851    0.0000 H   0  0  0  0  0  0  0  0  0  0  0  0
    9.7683    5.6230    0.0000 H   0  0  0  0  0  0  0  0  0  0  0  0
   10.3201    6.3044    0.0000 H   0  0  0  0  0  0  0  0  0  0  0  0
    9.6387    6.8562    0.0000 H   0  0  0  0  0  0  0  0  0  0  0  0
    5.4641   -3.6196    0.0000 H   0  0  0  0  0  0  0  0  0  0  0  0
    4.0611   -6.0496    0.0000 H   0  0  0  0  0  0  0  0  0  0  0  0
    6.8671   -4.4296    0.0000 H   0  0  0  0  0  0  0  0  0  0  0  0
    5.4641   -6.8596    0.0000 H   0  0  0  0  0  0  0  0  0  0  0  0
  1 22  1  0  0  0  0
  2 33  1  0  0  0  0
  3 11  2  0  0  0  0
  4 12  2  0  0  0  0
  5 21  1  0  0  0  0
  5 25  1  0  0  0  0
  6 24  1  0  0  0  0
  6 28  1  0  0  0  0
  7 11  1  0  0  0  0
  7 12  1  0  0  0  0
  7 13  1  0  0  0  0
  8  9  1  0  0  0  0
  8 14  1  0  0  0  0
  8 37  1  0  0  0  0
  9 10  1  0  0  0  0
  9 11  1  0  0  0  0
  9 34  1  0  0  0  0
 10 12  1  0  0  0  0
 10 35  1  0  0  0  0
 10 36  1  0  0  0  0
 13 15  2  0  0  0  0
 13 16  1  0  0  0  0
 14 17  2  0  0  0  0
 14 18  1  0  0  0  0
 15 19  1  0  0  0  0
 15 38  1  0  0  0  0
 16 20  2  0  0  0  0
 16 39  1  0  0  0  0
 17 22  1  0  0  0  0
 17 40  1  0  0  0  0
 18 23  2  0  0  0  0
 18 41  1  0  0  0  0
 19 21  2  0  0  0  0
 19 42  1  0  0  0  0
 20 21  1  0  0  0  0
 20 43  1  0  0  0  0
 22 24  2  0  0  0  0
 23 24  1  0  0  0  0
 23 44  1  0  0  0  0
 25 26  1  0  0  0  0
 25 45  1  0  0  0  0
 25 46  1  0  0  0  0
 26 27  1  0  0  0  0
 26 47  1  0  0  0  0
 26 48  1  0  0  0  0
 27 49  1  0  0  0  0
 27 50  1  0  0  0  0
 27 51  1  0  0  0  0
 28 29  2  0  0  0  0
 28 30  1  0  0  0  0
 29 31  1  0  0  0  0
 29 52  1  0  0  0  0
 30 32  2  0  0  0  0
 30 53  1  0  0  0  0
 31 33  2  0  0  0  0
 31 54  1  0  0  0  0
 32 33  1  0  0  0  0
 32 55  1  0  0  0  0
M  END
> <PUBCHEM_COMPOUND_CID>
509108
> <PUBCHEM_COMPOUND_CANONICALIZED>
1
> <PUBCHEM_CACTVS_COMPLEXITY>
665
> <PUBCHEM_CACTVS_HBOND_ACCEPTOR>
5
> <PUBCHEM_CACTVS_HBOND_DONOR>
1
> <PUBCHEM_CACTVS_ROTATABLE_BOND>
8
> <PUBCHEM_CACTVS_SUBSKEYS>
AAADceB7OAAGAAAAAAAAAAAAAAAAAWAAAAAwYMAAAAAAAAABUAAAHgIQAAAACC7hkCYyxoPABACIACVSUACCCAAhJ0AIiIGOb4gMZjvF87uWOCjk1DHI6Ae1QAAAAGAAAAIACAAAwAAABAAQAAAAAAAAAA==
> <PUBCHEM_IUPAC_OPENEYE_NAME>
3-[3-chloro-4-(4-chlorophenoxy)anilino]-1-(4-propoxyphenyl)pyrrolidine-2,5-dione
> <PUBCHEM_IUPAC_CAS_NAME>
3-[3-chloro-4-(4-chlorophenoxy)anilino]-1-(4-propoxyphenyl)pyrrolidine-2,5-dione
> <PUBCHEM_IUPAC_NAME_MARKUP>
3-[3-chloro-4-(4-chlorophenoxy)anilino]-1-(4-propoxyphenyl)pyrrolidine-2,5-dione
> <PUBCHEM_IUPAC_NAME>
3-[3-chloro-4-(4-chlorophenoxy)anilino]-1-(4-propoxyphenyl)pyrrolidine-2,5-dione
> <PUBCHEM_IUPAC_SYSTEMATIC_NAME>
3-[[3-chloranyl-4-(4-chloranylphenoxy)phenyl]amino]-1-(4-propoxyphenyl)pyrrolidine-2,5-dione
> <PUBCHEM_IUPAC_TRADITIONAL_NAME>
3-[3-chloro-4-(4-chlorophenoxy)anilino]-1-(4-propoxyphenyl)pyrrolidine-2,5-quinone
> <PUBCHEM_IUPAC_INCHI>
InChI=1S/C25H22Cl2N2O4/c1-2-13-32-19-10-6-18(7-11-19)29-24(30)15-22(25(29)31)28-17-5-12-23(21(27)14-17)33-20-8-3-16(26)4-9-20/h3-12,14,22,28H,2,13,15H2,1H3
> <PUBCHEM_IUPAC_INCHIKEY>
GPWLLHJUTCKGSP-UHFFFAOYSA-N
> <PUBCHEM_XLOGP3_AA>
6.2
> <PUBCHEM_EXACT_MASS>
484.0956626
> <PUBCHEM_MOLECULAR_FORMULA>
C25H22Cl2N2O4
> <PUBCHEM_MOLECULAR_WEIGHT>
485.4
> <PUBCHEM_OPENEYE_CAN_SMILES>
CCCOC1=CC=C(C=C1)N2C(=O)CC(C2=O)NC3=CC(=C(C=C3)OC4=CC=C(C=C4)Cl)Cl
> <PUBCHEM_OPENEYE_ISO_SMILES>
CCCOC1=CC=C(C=C1)N2C(=O)CC(C2=O)NC3=CC(=C(C=C3)OC4=CC=C(C=C4)Cl)Cl
> <PUBCHEM_CACTVS_TPSA>
67.9
> <PUBCHEM_MONOISOTOPIC_WEIGHT>
484.0956626
> <PUBCHEM_TOTAL_CHARGE>
0
> <PUBCHEM_HEAVY_ATOM_COUNT>
33
> <PUBCHEM_ATOM_DEF_STEREO_COUNT>
0
> <PUBCHEM_ATOM_UDEF_STEREO_COUNT>
1
> <PUBCHEM_BOND_DEF_STEREO_COUNT>
0
> <PUBCHEM_BOND_UDEF_STEREO_COUNT>
0
> <PUBCHEM_ISOTOPIC_ATOM_COUNT>
0
> <PUBCHEM_COMPONENT_COUNT>
1
> <PUBCHEM_CACTVS_TAUTO_COUNT>
-1
> <PUBCHEM_COORDINATE_TYPE>
1
5
255
> <PUBCHEM_BONDANNOTATIONS>
13  15  8
13  16  8
14  17  8
14  18  8
15  19  8
16  20  8
17  22  8
18  23  8
19  21  8
20  21  8
22  24  8
23  24  8
28  29  8
28  30  8
29  31  8
30  32  8
31  33  8
32  33  8
9  8  3
$$$$
