509197
  -OEChem-10302200282D
 70 71  0     1  0  0  0  0  0999 V2000
    6.6244    1.1116    0.0000 F   0  0  0  0  0  0  0  0  0  0  0  0
    8.0165   -2.1105    0.0000 O   0  0  0  0  0  0  0  0  0  0  0  0
    4.4964    0.6593    0.0000 O   0  0  0  0  0  0  0  0  0  0  0  0
    4.2690   -2.5044    0.0000 O   0  0  0  0  0  0  0  0  0  0  0  0
    6.9288   -4.4583    0.0000 O   0  0  0  0  0  0  0  0  0  0  0  0
    9.7766   -2.3892    0.0000 O   0  0  0  0  0  0  0  0  0  0  0  0
    9.1043   -4.4583    0.0000 O   0  0  0  0  0  0  0  0  0  0  0  0
    2.5369   -1.5044    0.0000 O   0  0  0  0  0  0  0  0  0  0  0  0
   15.5715    4.0466    0.0000 O   0  0  0  0  0  0  0  0  0  0  0  0
   13.8773    4.4067    0.0000 O   0  0  0  0  0  0  0  0  0  0  0  0
    6.0486   -1.4111    0.0000 N   0  0  3  0  0  0  0  0  0  0  0  0
    5.1350   -1.0044    0.0000 C   0  0  2  0  0  0  0  0  0  0  0  0
    5.2395   -0.0098    0.0000 C   0  0  2  0  0  0  0  0  0  0  0  0
    6.2565   -2.3892    0.0000 C   0  0  0  0  0  0  0  0  0  0  0  0
    6.7177   -0.6679    0.0000 C   0  0  0  0  0  0  0  0  0  0  0  0
    6.2177    0.1981    0.0000 C   0  0  1  0  0  0  0  0  0  0  0  0
    7.2075   -2.6983    0.0000 C   0  0  2  0  0  0  0  0  0  0  0  0
    4.2690   -1.5044    0.0000 C   0  0  2  0  0  0  0  0  0  0  0  0
    7.5165   -3.6493    0.0000 C   0  0  2  0  0  0  0  0  0  0  0  0
    8.5165   -3.6493    0.0000 C   0  0  1  0  0  0  0  0  0  0  0  0
    8.8256   -2.6983    0.0000 C   0  0  2  0  0  0  0  0  0  0  0  0
    3.4030   -1.0044    0.0000 C   0  0  0  0  0  0  0  0  0  0  0  0
    9.9845   -1.4111    0.0000 C   0  0  0  0  0  0  0  0  0  0  0  0
   10.9356   -1.1021    0.0000 C   0  0  0  0  0  0  0  0  0  0  0  0
   11.1435   -0.1239    0.0000 C   0  0  0  0  0  0  0  0  0  0  0  0
   12.0946    0.1851    0.0000 C   0  0  0  0  0  0  0  0  0  0  0  0
   12.3025    1.1632    0.0000 C   0  0  0  0  0  0  0  0  0  0  0  0
   13.2535    1.4722    0.0000 C   0  0  0  0  0  0  0  0  0  0  0  0
   13.4614    2.4504    0.0000 C   0  0  0  0  0  0  0  0  0  0  0  0
   14.4125    2.7594    0.0000 C   0  0  0  0  0  0  0  0  0  0  0  0
   14.6204    3.7376    0.0000 C   0  0  0  0  0  0  0  0  0  0  0  0
   15.7794    5.0247    0.0000 C   0  0  0  0  0  0  0  0  0  0  0  0
    5.8711   -0.5794    0.0000 H   0  0  0  0  0  0  0  0  0  0  0  0
    5.4000    0.5890    0.0000 H   0  0  0  0  0  0  0  0  0  0  0  0
    5.6368   -2.4109    0.0000 H   0  0  0  0  0  0  0  0  0  0  0  0
    6.1702   -3.0032    0.0000 H   0  0  0  0  0  0  0  0  0  0  0  0
    7.1326   -1.1287    0.0000 H   0  0  0  0  0  0  0  0  0  0  0  0
    7.2193   -0.3035    0.0000 H   0  0  0  0  0  0  0  0  0  0  0  0
    5.8275    0.6799    0.0000 H   0  0  0  0  0  0  0  0  0  0  0  0
    7.1105   -2.0859    0.0000 H   0  0  0  0  0  0  0  0  0  0  0  0
    4.8059   -1.8144    0.0000 H   0  0  0  0  0  0  0  0  0  0  0  0
    6.9042   -3.5523    0.0000 H   0  0  0  0  0  0  0  0  0  0  0  0
    8.2351   -4.2017    0.0000 H   0  0  0  0  0  0  0  0  0  0  0  0
    9.2640   -3.1367    0.0000 H   0  0  0  0  0  0  0  0  0  0  0  0
    3.8015   -0.5294    0.0000 H   0  0  0  0  0  0  0  0  0  0  0  0
    3.0044   -0.5294    0.0000 H   0  0  0  0  0  0  0  0  0  0  0  0
    4.6253    1.2658    0.0000 H   0  0  0  0  0  0  0  0  0  0  0  0
    3.7320   -2.8144    0.0000 H   0  0  0  0  0  0  0  0  0  0  0  0
    7.1809   -5.0247    0.0000 H   0  0  0  0  0  0  0  0  0  0  0  0
    9.7209   -4.3935    0.0000 H   0  0  0  0  0  0  0  0  0  0  0  0
    9.8982   -0.7971    0.0000 H   0  0  0  0  0  0  0  0  0  0  0  0
    9.3649   -1.3895    0.0000 H   0  0  0  0  0  0  0  0  0  0  0  0
   11.0219   -1.7160    0.0000 H   0  0  0  0  0  0  0  0  0  0  0  0
   11.5552   -1.1237    0.0000 H   0  0  0  0  0  0  0  0  0  0  0  0
    2.0000   -1.1944    0.0000 H   0  0  0  0  0  0  0  0  0  0  0  0
   11.0572    0.4900    0.0000 H   0  0  0  0  0  0  0  0  0  0  0  0
   10.5239   -0.1023    0.0000 H   0  0  0  0  0  0  0  0  0  0  0  0
   12.1808   -0.4289    0.0000 H   0  0  0  0  0  0  0  0  0  0  0  0
   12.7142    0.1635    0.0000 H   0  0  0  0  0  0  0  0  0  0  0  0
   12.2162    1.7772    0.0000 H   0  0  0  0  0  0  0  0  0  0  0  0
   11.6828    1.1849    0.0000 H   0  0  0  0  0  0  0  0  0  0  0  0
   13.3398    0.8583    0.0000 H   0  0  0  0  0  0  0  0  0  0  0  0
   13.8731    1.4506    0.0000 H   0  0  0  0  0  0  0  0  0  0  0  0
   13.3751    3.0644    0.0000 H   0  0  0  0  0  0  0  0  0  0  0  0
   12.8418    2.4720    0.0000 H   0  0  0  0  0  0  0  0  0  0  0  0
   14.4988    2.1454    0.0000 H   0  0  0  0  0  0  0  0  0  0  0  0
   15.0321    2.7378    0.0000 H   0  0  0  0  0  0  0  0  0  0  0  0
   16.3858    4.8958    0.0000 H   0  0  0  0  0  0  0  0  0  0  0  0
   15.9083    5.6312    0.0000 H   0  0  0  0  0  0  0  0  0  0  0  0
   15.1729    5.1536    0.0000 H   0  0  0  0  0  0  0  0  0  0  0  0
 16  1  1  6  0  0  0
  2 17  1  0  0  0  0
  2 21  1  0  0  0  0
 13  3  1  1  0  0  0
  3 47  1  0  0  0  0
 18  4  1  1  0  0  0
  4 48  1  0  0  0  0
 19  5  1  6  0  0  0
  5 49  1  0  0  0  0
 21  6  1  6  0  0  0
  6 23  1  0  0  0  0
 20  7  1  1  0  0  0
  7 50  1  0  0  0  0
  8 22  1  0  0  0  0
  8 55  1  0  0  0  0
  9 31  1  0  0  0  0
  9 32  1  0  0  0  0
 10 31  2  0  0  0  0
 11 12  1  0  0  0  0
 11 14  1  0  0  0  0
 11 15  1  0  0  0  0
 12 13  1  0  0  0  0
 12 18  1  0  0  0  0
 12 33  1  6  0  0  0
 13 16  1  0  0  0  0
 13 34  1  0  0  0  0
 17 14  1  1  0  0  0
 14 35  1  0  0  0  0
 14 36  1  0  0  0  0
 15 16  1  0  0  0  0
 15 37  1  0  0  0  0
 15 38  1  0  0  0  0
 16 39  1  0  0  0  0
 17 19  1  0  0  0  0
 17 40  1  0  0  0  0
 18 22  1  0  0  0  0
 18 41  1  0  0  0  0
 19 20  1  0  0  0  0
 19 42  1  0  0  0  0
 20 21  1  0  0  0  0
 20 43  1  0  0  0  0
 21 44  1  0  0  0  0
 22 45  1  0  0  0  0
 22 46  1  0  0  0  0
 23 24  1  0  0  0  0
 23 51  1  0  0  0  0
 23 52  1  0  0  0  0
 24 25  1  0  0  0  0
 24 53  1  0  0  0  0
 24 54  1  0  0  0  0
 25 26  1  0  0  0  0
 25 56  1  0  0  0  0
 25 57  1  0  0  0  0
 26 27  1  0  0  0  0
 26 58  1  0  0  0  0
 26 59  1  0  0  0  0
 27 28  1  0  0  0  0
 27 60  1  0  0  0  0
 27 61  1  0  0  0  0
 28 29  1  0  0  0  0
 28 62  1  0  0  0  0
 28 63  1  0  0  0  0
 29 30  1  0  0  0  0
 29 64  1  0  0  0  0
 29 65  1  0  0  0  0
 30 31  1  0  0  0  0
 30 66  1  0  0  0  0
 30 67  1  0  0  0  0
 32 68  1  0  0  0  0
 32 69  1  0  0  0  0
 32 70  1  0  0  0  0
M  END
> <PUBCHEM_COMPOUND_CID>
509197
> <PUBCHEM_COMPOUND_CANONICALIZED>
1
> <PUBCHEM_CACTVS_COMPLEXITY>
557
> <PUBCHEM_CACTVS_HBOND_ACCEPTOR>
11
> <PUBCHEM_CACTVS_HBOND_DONOR>
5
> <PUBCHEM_CACTVS_ROTATABLE_BOND>
15
> <PUBCHEM_CACTVS_SUBSKEYS>
AAADcfB6PQAAAAAAAAAAAAAAAAAAAWJAAAAAAAAAAAAAAAAAAAAAHwAACAAACDzxgAcCCAMABgAIAACQCAAAAAAAAAAAAAEIAAATEBIAgAAnQAAHAACXAAH42KKAAAAAAAAAAAAAAAAAAAAAAAAAAAAAAA==
> <PUBCHEM_IUPAC_OPENEYE_NAME>
methyl 9-[(2S,3S,4S,5R)-5-[[(2S,3R,4R)-2-[(1R)-1,2-dihydroxyethyl]-4-fluoro-3-hydroxy-pyrrolidin-1-yl]methyl]-3,4-dihydroxy-tetrahydrofuran-2-yl]oxynonanoate
> <PUBCHEM_IUPAC_CAS_NAME>
9-[[(2S,3S,4S,5R)-5-[[(2S,3R,4R)-2-[(1R)-1,2-dihydroxyethyl]-4-fluoro-3-hydroxy-1-pyrrolidinyl]methyl]-3,4-dihydroxy-2-oxolanyl]oxy]nonanoic acid methyl ester
> <PUBCHEM_IUPAC_NAME_MARKUP>
methyl 9-[(2<I>S</I>,3<I>S</I>,4<I>S</I>,5<I>R</I>)-5-[[(2<I>S</I>,3<I>R</I>,4<I>R</I>)-2-[(1<I>R</I>)-1,2-dihydroxyethyl]-4-fluoro-3-hydroxypyrrolidin-1-yl]methyl]-3,4-dihydroxyoxolan-2-yl]oxynonanoate
> <PUBCHEM_IUPAC_NAME>
methyl 9-[(2S,3S,4S,5R)-5-[[(2S,3R,4R)-2-[(1R)-1,2-dihydroxyethyl]-4-fluoro-3-hydroxypyrrolidin-1-yl]methyl]-3,4-dihydroxyoxolan-2-yl]oxynonanoate
> <PUBCHEM_IUPAC_SYSTEMATIC_NAME>
methyl 9-[(2S,3S,4S,5R)-5-[[(2S,3R,4R)-2-[(1R)-1,2-bis(oxidanyl)ethyl]-4-fluoranyl-3-oxidanyl-pyrrolidin-1-yl]methyl]-3,4-bis(oxidanyl)oxolan-2-yl]oxynonanoate
> <PUBCHEM_IUPAC_TRADITIONAL_NAME>
9-[(2S,3S,4S,5R)-5-[[(2S,3R,4R)-2-[(1R)-1,2-dihydroxyethyl]-4-fluoro-3-hydroxy-pyrrolidino]methyl]-3,4-dihydroxy-tetrahydrofuran-2-yl]oxypelargonic acid methyl ester
> <PUBCHEM_IUPAC_INCHI>
InChI=1S/C21H38FNO9/c1-30-16(26)8-6-4-2-3-5-7-9-31-21-20(29)19(28)15(32-21)11-23-10-13(22)18(27)17(23)14(25)12-24/h13-15,17-21,24-25,27-29H,2-12H2,1H3/t13-,14+,15-,17+,18+,19-,20+,21+/m1/s1
> <PUBCHEM_IUPAC_INCHIKEY>
FTMIKMQTZGGIKB-TWGYPCCDSA-N
> <PUBCHEM_XLOGP3_AA>
0.1
> <PUBCHEM_EXACT_MASS>
467.25305995
> <PUBCHEM_MOLECULAR_FORMULA>
C21H38FNO9
> <PUBCHEM_MOLECULAR_WEIGHT>
467.5
> <PUBCHEM_OPENEYE_CAN_SMILES>
COC(=O)CCCCCCCCOC1C(C(C(O1)CN2CC(C(C2C(CO)O)O)F)O)O
> <PUBCHEM_OPENEYE_ISO_SMILES>
COC(=O)CCCCCCCCO[C@@H]1[C@H]([C@@H]([C@H](O1)CN2C[C@H]([C@@H]([C@@H]2[C@H](CO)O)O)F)O)O
> <PUBCHEM_CACTVS_TPSA>
149
> <PUBCHEM_MONOISOTOPIC_WEIGHT>
467.25305995
> <PUBCHEM_TOTAL_CHARGE>
0
> <PUBCHEM_HEAVY_ATOM_COUNT>
32
> <PUBCHEM_ATOM_DEF_STEREO_COUNT>
8
> <PUBCHEM_ATOM_UDEF_STEREO_COUNT>
0
> <PUBCHEM_BOND_DEF_STEREO_COUNT>
0
> <PUBCHEM_BOND_UDEF_STEREO_COUNT>
0
> <PUBCHEM_ISOTOPIC_ATOM_COUNT>
0
> <PUBCHEM_COMPONENT_COUNT>
1
> <PUBCHEM_CACTVS_TAUTO_COUNT>
-1
> <PUBCHEM_COORDINATE_TYPE>
1
5
255
> <PUBCHEM_BONDANNOTATIONS>
16  1  6
12  33  6
17  14  5
13  3  5
18  4  5
19  5  6
21  6  6
20  7  5
$$$$
