509259
  -OEChem-10302200282D
 97 99  0     1  0  0  0  0  0999 V2000
   18.5182   -5.9568    0.0000 O   0  0  0  0  0  0  0  0  0  0  0  0
   16.8354   -5.1464    0.0000 O   0  0  0  0  0  0  0  0  0  0  0  0
   16.8052   -1.6369    0.0000 O   0  0  0  0  0  0  0  0  0  0  0  0
   11.0705    3.9603    0.0000 O   0  0  0  0  0  0  0  0  0  0  0  0
   14.2659    0.7193    0.0000 O   0  0  0  0  0  0  0  0  0  0  0  0
    9.0058    0.1433    0.0000 O   0  0  0  0  0  0  0  0  0  0  0  0
   10.6609    0.6538    0.0000 O   0  0  0  0  0  0  0  0  0  0  0  0
    8.9152   -2.5009    0.0000 O   0  0  0  0  0  0  0  0  0  0  0  0
    2.6802   -2.8544    0.0000 O   0  0  0  0  0  0  0  0  0  0  0  0
   10.3538    5.6512    0.0000 O   0  0  0  0  0  0  0  0  0  0  0  0
    3.9499   -4.0325    0.0000 O   0  0  0  0  0  0  0  0  0  0  0  0
   16.4198   -3.3255    0.0000 N   0  0  0  0  0  0  0  0  0  0  0  0
   18.5182   -4.9568    0.0000 N   0  0  0  0  0  0  0  0  0  0  0  0
   12.3160    1.1644    0.0000 N   0  0  0  0  0  0  0  0  0  0  0  0
   13.8805   -0.9693    0.0000 N   0  0  0  0  0  0  0  0  0  0  0  0
    9.3006   -0.8123    0.0000 N   0  0  0  0  0  0  0  0  0  0  0  0
   14.4700   -2.8804    0.0000 N   0  0  0  0  0  0  0  0  0  0  0  0
   10.1000    2.6657    0.0000 N   0  0  0  0  0  0  0  0  0  0  0  0
   17.3948   -3.5480    0.0000 C   0  0  3  0  0  0  0  0  0  0  0  0
   18.0182   -2.7662    0.0000 C   0  0  0  0  0  0  0  0  0  0  0  0
   19.0182   -2.7662    0.0000 C   0  0  0  0  0  0  0  0  0  0  0  0
   19.6417   -3.5480    0.0000 C   0  0  0  0  0  0  0  0  0  0  0  0
   19.4192   -4.5229    0.0000 C   0  0  0  0  0  0  0  0  0  0  0  0
   17.6173   -4.5229    0.0000 C   0  0  0  0  0  0  0  0  0  0  0  0
   12.6108    0.2088    0.0000 C   0  0  1  0  0  0  0  0  0  0  0  0
   11.9306   -0.5243    0.0000 C   0  0  0  0  0  0  0  0  0  0  0  0
   15.1501   -2.1474    0.0000 C   0  0  1  0  0  0  0  0  0  0  0  0
   10.9557   -0.3017    0.0000 C   0  0  0  0  0  0  0  0  0  0  0  0
   16.1251   -2.3699    0.0000 C   0  0  0  0  0  0  0  0  0  0  0  0
   14.8554   -1.1918    0.0000 C   0  0  0  0  0  0  0  0  0  0  0  0
   13.5857   -0.0137    0.0000 C   0  0  0  0  0  0  0  0  0  0  0  0
   10.2755   -1.0348    0.0000 C   0  0  0  0  0  0  0  0  0  0  0  0
   11.0463    2.3425    0.0000 C   0  0  2  0  0  0  0  0  0  0  0  0
   11.3411    1.3869    0.0000 C   0  0  0  0  0  0  0  0  0  0  0  0
    6.9653   -2.0558    0.0000 C   0  0  0  0  0  0  0  0  0  0  0  0
    7.6455   -1.3228    0.0000 C   0  0  0  0  0  0  0  0  0  0  0  0
   11.6462    3.1426    0.0000 C   0  0  0  0  0  0  0  0  0  0  0  0
    5.9904   -1.8333    0.0000 C   0  0  0  0  0  0  0  0  0  0  0  0
    8.6204   -1.5453    0.0000 C   0  0  0  0  0  0  0  0  0  0  0  0
    5.3102   -2.5664    0.0000 C   0  0  0  0  0  0  0  0  0  0  0  0
   10.1150    3.6656    0.0000 C   0  0  0  0  0  0  0  0  0  0  0  0
    4.3353   -2.3439    0.0000 C   0  0  0  0  0  0  0  0  0  0  0  0
    9.3148    4.2654    0.0000 C   0  0  0  0  0  0  0  0  0  0  0  0
    3.6551   -3.0769    0.0000 C   0  0  0  0  0  0  0  0  0  0  0  0
    9.4342    5.2582    0.0000 C   0  0  0  0  0  0  0  0  0  0  0  0
    8.3953    3.8724    0.0000 C   0  0  0  0  0  0  0  0  0  0  0  0
    8.6341    5.8581    0.0000 C   0  0  0  0  0  0  0  0  0  0  0  0
    7.5952    4.4722    0.0000 C   0  0  0  0  0  0  0  0  0  0  0  0
    7.7146    5.4650    0.0000 C   0  0  0  0  0  0  0  0  0  0  0  0
    2.0000   -3.5874    0.0000 C   0  0  0  0  0  0  0  0  0  0  0  0
   17.1900   -2.9628    0.0000 H   0  0  0  0  0  0  0  0  0  0  0  0
   18.1562   -2.1617    0.0000 H   0  0  0  0  0  0  0  0  0  0  0  0
   17.4596   -2.4972    0.0000 H   0  0  0  0  0  0  0  0  0  0  0  0
   19.5768   -2.4972    0.0000 H   0  0  0  0  0  0  0  0  0  0  0  0
   18.8803   -2.1617    0.0000 H   0  0  0  0  0  0  0  0  0  0  0  0
   20.2003   -3.8170    0.0000 H   0  0  0  0  0  0  0  0  0  0  0  0
   20.0283   -3.0633    0.0000 H   0  0  0  0  0  0  0  0  0  0  0  0
   19.5572   -5.1274    0.0000 H   0  0  0  0  0  0  0  0  0  0  0  0
   20.0392   -4.5229    0.0000 H   0  0  0  0  0  0  0  0  0  0  0  0
   15.9981   -3.7800    0.0000 H   0  0  0  0  0  0  0  0  0  0  0  0
   12.0063    0.3468    0.0000 H   0  0  0  0  0  0  0  0  0  0  0  0
   11.6898   -1.0956    0.0000 H   0  0  0  0  0  0  0  0  0  0  0  0
   12.4514   -0.8606    0.0000 H   0  0  0  0  0  0  0  0  0  0  0  0
   15.3329   -2.7398    0.0000 H   0  0  0  0  0  0  0  0  0  0  0  0
   11.1965    0.2696    0.0000 H   0  0  0  0  0  0  0  0  0  0  0  0
   10.4349    0.0346    0.0000 H   0  0  0  0  0  0  0  0  0  0  0  0
   15.4706   -1.1147    0.0000 H   0  0  0  0  0  0  0  0  0  0  0  0
   14.8863   -0.5726    0.0000 H   0  0  0  0  0  0  0  0  0  0  0  0
   10.0347   -1.6061    0.0000 H   0  0  0  0  0  0  0  0  0  0  0  0
   10.7963   -1.3712    0.0000 H   0  0  0  0  0  0  0  0  0  0  0  0
   12.7377    1.6189    0.0000 H   0  0  0  0  0  0  0  0  0  0  0  0
   13.4588   -1.4238    0.0000 H   0  0  0  0  0  0  0  0  0  0  0  0
   10.6014    1.9107    0.0000 H   0  0  0  0  0  0  0  0  0  0  0  0
   13.8655   -2.7425    0.0000 H   0  0  0  0  0  0  0  0  0  0  0  0
   14.6527   -3.4729    0.0000 H   0  0  0  0  0  0  0  0  0  0  0  0
   19.0552   -6.2668    0.0000 H   0  0  0  0  0  0  0  0  0  0  0  0
    6.7245   -2.6272    0.0000 H   0  0  0  0  0  0  0  0  0  0  0  0
    7.4861   -2.3922    0.0000 H   0  0  0  0  0  0  0  0  0  0  0  0
    7.8863   -0.7515    0.0000 H   0  0  0  0  0  0  0  0  0  0  0  0
    7.1247   -0.9864    0.0000 H   0  0  0  0  0  0  0  0  0  0  0  0
   12.1007    2.7209    0.0000 H   0  0  0  0  0  0  0  0  0  0  0  0
   12.1131    3.5505    0.0000 H   0  0  0  0  0  0  0  0  0  0  0  0
    6.2312   -1.2620    0.0000 H   0  0  0  0  0  0  0  0  0  0  0  0
    5.4696   -1.4970    0.0000 H   0  0  0  0  0  0  0  0  0  0  0  0
    5.0694   -3.1377    0.0000 H   0  0  0  0  0  0  0  0  0  0  0  0
    5.8310   -2.9028    0.0000 H   0  0  0  0  0  0  0  0  0  0  0  0
    4.5761   -1.7725    0.0000 H   0  0  0  0  0  0  0  0  0  0  0  0
    3.8145   -2.0075    0.0000 H   0  0  0  0  0  0  0  0  0  0  0  0
    8.4014    0.2813    0.0000 H   0  0  0  0  0  0  0  0  0  0  0  0
    8.3213    3.2568    0.0000 H   0  0  0  0  0  0  0  0  0  0  0  0
    8.7081    6.4736    0.0000 H   0  0  0  0  0  0  0  0  0  0  0  0
    7.0251    4.2285    0.0000 H   0  0  0  0  0  0  0  0  0  0  0  0
    7.2185    5.8369    0.0000 H   0  0  0  0  0  0  0  0  0  0  0  0
   10.4278    6.2668    0.0000 H   0  0  0  0  0  0  0  0  0  0  0  0
    1.5455   -3.1657    0.0000 H   0  0  0  0  0  0  0  0  0  0  0  0
    1.5783   -4.0419    0.0000 H   0  0  0  0  0  0  0  0  0  0  0  0
    2.4545   -4.0092    0.0000 H   0  0  0  0  0  0  0  0  0  0  0  0
  1 13  1  0  0  0  0
  1 76  1  0  0  0  0
  2 24  2  0  0  0  0
  3 29  2  0  0  0  0
  4 37  1  0  0  0  0
  4 41  1  0  0  0  0
  5 31  2  0  0  0  0
  6 16  1  0  0  0  0
  6 89  1  0  0  0  0
  7 34  2  0  0  0  0
  8 39  2  0  0  0  0
  9 44  1  0  0  0  0
  9 50  1  0  0  0  0
 10 45  1  0  0  0  0
 10 94  1  0  0  0  0
 11 44  2  0  0  0  0
 12 19  1  0  0  0  0
 12 29  1  0  0  0  0
 12 60  1  0  0  0  0
 13 23  1  0  0  0  0
 13 24  1  0  0  0  0
 25 14  1  6  0  0  0
 14 34  1  0  0  0  0
 14 71  1  0  0  0  0
 15 30  1  0  0  0  0
 15 31  1  0  0  0  0
 15 72  1  0  0  0  0
 16 32  1  0  0  0  0
 16 39  1  0  0  0  0
 27 17  1  6  0  0  0
 17 74  1  0  0  0  0
 17 75  1  0  0  0  0
 18 33  1  0  0  0  0
 18 41  2  0  0  0  0
 19 20  1  0  0  0  0
 19 24  1  0  0  0  0
 19 51  1  0  0  0  0
 20 21  1  0  0  0  0
 20 52  1  0  0  0  0
 20 53  1  0  0  0  0
 21 22  1  0  0  0  0
 21 54  1  0  0  0  0
 21 55  1  0  0  0  0
 22 23  1  0  0  0  0
 22 56  1  0  0  0  0
 22 57  1  0  0  0  0
 23 58  1  0  0  0  0
 23 59  1  0  0  0  0
 25 26  1  0  0  0  0
 25 31  1  0  0  0  0
 25 61  1  0  0  0  0
 26 28  1  0  0  0  0
 26 62  1  0  0  0  0
 26 63  1  0  0  0  0
 27 29  1  0  0  0  0
 27 30  1  0  0  0  0
 27 64  1  0  0  0  0
 28 32  1  0  0  0  0
 28 65  1  0  0  0  0
 28 66  1  0  0  0  0
 30 67  1  0  0  0  0
 30 68  1  0  0  0  0
 32 69  1  0  0  0  0
 32 70  1  0  0  0  0
 33 34  1  1  0  0  0
 33 37  1  0  0  0  0
 33 73  1  0  0  0  0
 35 36  1  0  0  0  0
 35 38  1  0  0  0  0
 35 77  1  0  0  0  0
 35 78  1  0  0  0  0
 36 39  1  0  0  0  0
 36 79  1  0  0  0  0
 36 80  1  0  0  0  0
 37 81  1  0  0  0  0
 37 82  1  0  0  0  0
 38 40  1  0  0  0  0
 38 83  1  0  0  0  0
 38 84  1  0  0  0  0
 40 42  1  0  0  0  0
 40 85  1  0  0  0  0
 40 86  1  0  0  0  0
 41 43  1  0  0  0  0
 42 44  1  0  0  0  0
 42 87  1  0  0  0  0
 42 88  1  0  0  0  0
 43 45  1  0  0  0  0
 43 46  2  0  0  0  0
 45 47  2  0  0  0  0
 46 48  1  0  0  0  0
 46 90  1  0  0  0  0
 47 49  1  0  0  0  0
 47 91  1  0  0  0  0
 48 49  2  0  0  0  0
 48 92  1  0  0  0  0
 49 93  1  0  0  0  0
 50 95  1  0  0  0  0
 50 96  1  0  0  0  0
 50 97  1  0  0  0  0
M  END
> <PUBCHEM_COMPOUND_CID>
509259
> <PUBCHEM_COMPOUND_CANONICALIZED>
1
> <PUBCHEM_CACTVS_COMPLEXITY>
1220
> <PUBCHEM_CACTVS_HBOND_ACCEPTOR>
13
> <PUBCHEM_CACTVS_HBOND_DONOR>
7
> <PUBCHEM_CACTVS_ROTATABLE_BOND>
19
> <PUBCHEM_CACTVS_SUBSKEYS>
AAADcfB/vAAAAAAAAAAAAAAAAAAAAQAAAAAwAAAABYAAAAABAAAAHgAUCAAADCzhmAYyDoLQBgCoAiHyHAACAAAgIAAoiIGuCJgKZ76C8TqXcAAn9hGIuAeYySCOAAAAAAAIAAAAAAAAABAAAAAAAAAAAA==
> <PUBCHEM_IUPAC_OPENEYE_NAME>
methyl 7-[[(4S)-5-[[(2R)-2-amino-3-[(1-hydroxy-2-oxo-azepan-3-yl)amino]-3-oxo-propyl]amino]-4-[[(4S)-2-(2-hydroxyphenyl)-4,5-dihydrooxazole-4-carbonyl]amino]-5-oxo-pentyl]-hydroxy-amino]-7-oxo-heptanoate
> <PUBCHEM_IUPAC_CAS_NAME>
7-[[(4S)-5-[[(2R)-2-amino-3-[(1-hydroxy-2-oxo-3-azepanyl)amino]-3-oxopropyl]amino]-4-[[[(4S)-2-(2-hydroxyphenyl)-4,5-dihydrooxazol-4-yl]-oxomethyl]amino]-5-oxopentyl]-hydroxyamino]-7-oxoheptanoic acid methyl ester
> <PUBCHEM_IUPAC_NAME_MARKUP>
methyl 7-[[(4<I>S</I>)-5-[[(2<I>R</I>)-2-amino-3-[(1-hydroxy-2-oxoazepan-3-yl)amino]-3-oxopropyl]amino]-4-[[(4<I>S</I>)-2-(2-hydroxyphenyl)-4,5-dihydro-1,3-oxazole-4-carbonyl]amino]-5-oxopentyl]-hydroxyamino]-7-oxoheptanoate
> <PUBCHEM_IUPAC_NAME>
methyl 7-[[(4S)-5-[[(2R)-2-amino-3-[(1-hydroxy-2-oxoazepan-3-yl)amino]-3-oxopropyl]amino]-4-[[(4S)-2-(2-hydroxyphenyl)-4,5-dihydro-1,3-oxazole-4-carbonyl]amino]-5-oxopentyl]-hydroxyamino]-7-oxoheptanoate
> <PUBCHEM_IUPAC_SYSTEMATIC_NAME>
methyl 7-[[(4S)-5-[[(2R)-2-azanyl-3-oxidanylidene-3-[(1-oxidanyl-2-oxidanylidene-azepan-3-yl)amino]propyl]amino]-4-[[(4S)-2-(2-hydroxyphenyl)-4,5-dihydro-1,3-oxazol-4-yl]carbonylamino]-5-oxidanylidene-pentyl]-oxidanyl-amino]-7-oxidanylidene-heptanoate
> <PUBCHEM_IUPAC_TRADITIONAL_NAME>
7-[[(4S)-5-[[(2R)-2-amino-3-[(1-hydroxy-2-keto-azepan-3-yl)amino]-3-keto-propyl]amino]-4-[[(4S)-2-(2-hydroxyphenyl)-2-oxazoline-4-carbonyl]amino]-5-keto-pentyl]-hydroxy-amino]-7-keto-enanthic acid methyl ester
> <PUBCHEM_IUPAC_INCHI>
InChI=1S/C32H47N7O11/c1-49-27(42)15-4-2-3-14-26(41)38(47)17-9-12-22(35-30(45)24-19-50-31(37-24)20-10-5-6-13-25(20)40)29(44)34-18-21(33)28(43)36-23-11-7-8-16-39(48)32(23)46/h5-6,10,13,21-24,40,47-48H,2-4,7-9,11-12,14-19,33H2,1H3,(H,34,44)(H,35,45)(H,36,43)/t21-,22+,23?,24+/m1/s1
> <PUBCHEM_IUPAC_INCHIKEY>
ANTRXZWXKBWUDZ-FOOJTEKUSA-N
> <PUBCHEM_XLOGP3_AA>
-0.9
> <PUBCHEM_EXACT_MASS>
705.33335534
> <PUBCHEM_MOLECULAR_FORMULA>
C32H47N7O11
> <PUBCHEM_MOLECULAR_WEIGHT>
705.8
> <PUBCHEM_OPENEYE_CAN_SMILES>
COC(=O)CCCCCC(=O)N(CCCC(C(=O)NCC(C(=O)NC1CCCCN(C1=O)O)N)NC(=O)C2COC(=N2)C3=CC=CC=C3O)O
> <PUBCHEM_OPENEYE_ISO_SMILES>
COC(=O)CCCCCC(=O)N(CCC[C@@H](C(=O)NC[C@H](C(=O)NC1CCCCN(C1=O)O)N)NC(=O)[C@@H]2COC(=N2)C3=CC=CC=C3O)O
> <PUBCHEM_CACTVS_TPSA>
263
> <PUBCHEM_MONOISOTOPIC_WEIGHT>
705.33335534
> <PUBCHEM_TOTAL_CHARGE>
0
> <PUBCHEM_HEAVY_ATOM_COUNT>
50
> <PUBCHEM_ATOM_DEF_STEREO_COUNT>
3
> <PUBCHEM_ATOM_UDEF_STEREO_COUNT>
1
> <PUBCHEM_BOND_DEF_STEREO_COUNT>
0
> <PUBCHEM_BOND_UDEF_STEREO_COUNT>
0
> <PUBCHEM_ISOTOPIC_ATOM_COUNT>
0
> <PUBCHEM_COMPONENT_COUNT>
1
> <PUBCHEM_CACTVS_TAUTO_COUNT>
-1
> <PUBCHEM_COORDINATE_TYPE>
1
5
255
> <PUBCHEM_BONDANNOTATIONS>
19  12  3
25  14  6
27  17  6
33  34  5
43  45  8
43  46  8
45  47  8
46  48  8
47  49  8
48  49  8
$$$$
