509286
  -OEChem-10302200282D
 83 84  0     1  0  0  0  0  0999 V2000
    7.6756    1.7506    0.0000 S   0  0  0  0  0  0  0  0  0  0  0  0
    9.9709   -0.1755    0.0000 O   0  0  0  0  0  0  0  0  0  0  0  0
    3.5827   -0.5520    0.0000 N   0  0  3  0  0  0  0  0  0  0  0  0
    5.9155    1.4718    0.0000 N   0  0  0  0  0  0  0  0  0  0  0  0
    7.1756    0.2117    0.0000 N   0  0  0  0  0  0  0  0  0  0  0  0
    8.1756    0.2117    0.0000 N   0  0  0  0  0  0  0  0  0  0  0  0
    9.4356    1.4718    0.0000 N   0  0  0  0  0  0  0  0  0  0  0  0
    3.4782    0.4426    0.0000 C   0  0  3  0  0  0  0  0  0  0  0  0
    2.5000    0.6505    0.0000 C   0  0  0  0  0  0  0  0  0  0  0  0
    2.0000   -0.2156    0.0000 C   0  0  0  0  0  0  0  0  0  0  0  0
    2.6691   -0.9587    0.0000 C   0  0  0  0  0  0  0  0  0  0  0  0
    4.2213    1.1117    0.0000 C   0  0  0  0  0  0  0  0  0  0  0  0
    4.4487   -1.0520    0.0000 C   0  0  0  0  0  0  0  0  0  0  0  0
    5.1724    0.8027    0.0000 C   0  0  0  0  0  0  0  0  0  0  0  0
    6.8666    1.1628    0.0000 C   0  0  0  0  0  0  0  0  0  0  0  0
   13.5672    0.0824    0.0000 C   0  0  0  0  0  0  0  0  0  0  0  0
   14.5182    0.3915    0.0000 C   0  0  0  0  0  0  0  0  0  0  0  0
   21.2950   -1.0490    0.0000 C   0  0  0  0  0  0  0  0  0  0  0  0
   20.3440   -1.3580    0.0000 C   0  0  0  0  0  0  0  0  0  0  0  0
   12.8240    0.7516    0.0000 C   0  0  0  0  0  0  0  0  0  0  0  0
   15.2614   -0.2777    0.0000 C   0  0  0  0  0  0  0  0  0  0  0  0
   22.0382   -1.7181    0.0000 C   0  0  0  0  0  0  0  0  0  0  0  0
   19.6008   -0.6889    0.0000 C   0  0  0  0  0  0  0  0  0  0  0  0
   11.8730    0.4426    0.0000 C   0  0  0  0  0  0  0  0  0  0  0  0
   22.9893   -1.4091    0.0000 C   0  0  0  0  0  0  0  0  0  0  0  0
   16.2124    0.0313    0.0000 C   0  0  0  0  0  0  0  0  0  0  0  0
   18.6498   -0.9979    0.0000 C   0  0  0  0  0  0  0  0  0  0  0  0
   11.1298    1.1117    0.0000 C   0  0  0  0  0  0  0  0  0  0  0  0
    8.4846    1.1628    0.0000 C   0  0  0  0  0  0  0  0  0  0  0  0
   23.7324   -2.0782    0.0000 C   0  0  0  0  0  0  0  0  0  0  0  0
   16.9556   -0.6378    0.0000 C   0  0  0  0  0  0  0  0  0  0  0  0
   17.9066   -0.3288    0.0000 C   0  0  0  0  0  0  0  0  0  0  0  0
   10.1788    0.8027    0.0000 C   0  0  0  0  0  0  0  0  0  0  0  0
   24.6835   -1.7692    0.0000 C   0  0  0  0  0  0  0  0  0  0  0  0
    4.0570    0.2204    0.0000 H   0  0  0  0  0  0  0  0  0  0  0  0
    2.6916    1.2401    0.0000 H   0  0  0  0  0  0  0  0  0  0  0  0
    1.9336    0.9026    0.0000 H   0  0  0  0  0  0  0  0  0  0  0  0
    1.4984    0.1489    0.0000 H   0  0  0  0  0  0  0  0  0  0  0  0
    1.5851   -0.6763    0.0000 H   0  0  0  0  0  0  0  0  0  0  0  0
    2.1675   -1.3231    0.0000 H   0  0  0  0  0  0  0  0  0  0  0  0
    2.9791   -1.4956    0.0000 H   0  0  0  0  0  0  0  0  0  0  0  0
    4.5124    1.6591    0.0000 H   0  0  0  0  0  0  0  0  0  0  0  0
    3.7327    1.4934    0.0000 H   0  0  0  0  0  0  0  0  0  0  0  0
    4.1387   -1.5889    0.0000 H   0  0  0  0  0  0  0  0  0  0  0  0
    4.9856   -1.3620    0.0000 H   0  0  0  0  0  0  0  0  0  0  0  0
    4.7587   -0.5150    0.0000 H   0  0  0  0  0  0  0  0  0  0  0  0
    4.8813    0.2552    0.0000 H   0  0  0  0  0  0  0  0  0  0  0  0
    5.6609    0.4210    0.0000 H   0  0  0  0  0  0  0  0  0  0  0  0
    5.7866    2.0782    0.0000 H   0  0  0  0  0  0  0  0  0  0  0  0
   13.0786   -0.2993    0.0000 H   0  0  0  0  0  0  0  0  0  0  0  0
   13.8583   -0.4650    0.0000 H   0  0  0  0  0  0  0  0  0  0  0  0
   15.0068    0.7732    0.0000 H   0  0  0  0  0  0  0  0  0  0  0  0
   14.2272    0.9389    0.0000 H   0  0  0  0  0  0  0  0  0  0  0  0
   21.7836   -0.6673    0.0000 H   0  0  0  0  0  0  0  0  0  0  0  0
   21.0040   -0.5016    0.0000 H   0  0  0  0  0  0  0  0  0  0  0  0
   19.8554   -1.7397    0.0000 H   0  0  0  0  0  0  0  0  0  0  0  0
   20.6351   -1.9054    0.0000 H   0  0  0  0  0  0  0  0  0  0  0  0
   13.3126    1.1333    0.0000 H   0  0  0  0  0  0  0  0  0  0  0  0
   12.5330    1.2990    0.0000 H   0  0  0  0  0  0  0  0  0  0  0  0
   21.5496   -2.0998    0.0000 H   0  0  0  0  0  0  0  0  0  0  0  0
   22.3293   -2.2656    0.0000 H   0  0  0  0  0  0  0  0  0  0  0  0
   14.7728   -0.6594    0.0000 H   0  0  0  0  0  0  0  0  0  0  0  0
   15.5525   -0.8251    0.0000 H   0  0  0  0  0  0  0  0  0  0  0  0
   20.0894   -0.3072    0.0000 H   0  0  0  0  0  0  0  0  0  0  0  0
   19.3098   -0.1415    0.0000 H   0  0  0  0  0  0  0  0  0  0  0  0
   11.3844    0.0608    0.0000 H   0  0  0  0  0  0  0  0  0  0  0  0
   12.1641   -0.1049    0.0000 H   0  0  0  0  0  0  0  0  0  0  0  0
   23.4778   -1.0274    0.0000 H   0  0  0  0  0  0  0  0  0  0  0  0
   22.6982   -0.8617    0.0000 H   0  0  0  0  0  0  0  0  0  0  0  0
   16.7010    0.4130    0.0000 H   0  0  0  0  0  0  0  0  0  0  0  0
   15.9214    0.5788    0.0000 H   0  0  0  0  0  0  0  0  0  0  0  0
   18.1612   -1.3796    0.0000 H   0  0  0  0  0  0  0  0  0  0  0  0
   18.9409   -1.5453    0.0000 H   0  0  0  0  0  0  0  0  0  0  0  0
   11.6184    1.4934    0.0000 H   0  0  0  0  0  0  0  0  0  0  0  0
   10.8388    1.6591    0.0000 H   0  0  0  0  0  0  0  0  0  0  0  0
   23.2438   -2.4600    0.0000 H   0  0  0  0  0  0  0  0  0  0  0  0
   24.0235   -2.6257    0.0000 H   0  0  0  0  0  0  0  0  0  0  0  0
   16.8267   -1.2442    0.0000 H   0  0  0  0  0  0  0  0  0  0  0  0
   18.0356    0.2777    0.0000 H   0  0  0  0  0  0  0  0  0  0  0  0
    9.5646    2.0782    0.0000 H   0  0  0  0  0  0  0  0  0  0  0  0
   24.8750   -2.3589    0.0000 H   0  0  0  0  0  0  0  0  0  0  0  0
   25.2731   -1.5776    0.0000 H   0  0  0  0  0  0  0  0  0  0  0  0
   24.4919   -1.1796    0.0000 H   0  0  0  0  0  0  0  0  0  0  0  0
  1 15  1  0  0  0  0
  1 29  1  0  0  0  0
  2 33  2  0  0  0  0
  3  8  1  0  0  0  0
  3 11  1  0  0  0  0
  3 13  1  0  0  0  0
  4 14  1  0  0  0  0
  4 15  1  0  0  0  0
  4 49  1  0  0  0  0
  5  6  1  0  0  0  0
  5 15  2  0  0  0  0
  6 29  2  0  0  0  0
  7 29  1  0  0  0  0
  7 33  1  0  0  0  0
  7 80  1  0  0  0  0
  8  9  1  0  0  0  0
  8 12  1  0  0  0  0
  8 35  1  0  0  0  0
  9 10  1  0  0  0  0
  9 36  1  0  0  0  0
  9 37  1  0  0  0  0
 10 11  1  0  0  0  0
 10 38  1  0  0  0  0
 10 39  1  0  0  0  0
 11 40  1  0  0  0  0
 11 41  1  0  0  0  0
 12 14  1  0  0  0  0
 12 42  1  0  0  0  0
 12 43  1  0  0  0  0
 13 44  1  0  0  0  0
 13 45  1  0  0  0  0
 13 46  1  0  0  0  0
 14 47  1  0  0  0  0
 14 48  1  0  0  0  0
 16 17  1  0  0  0  0
 16 20  1  0  0  0  0
 16 50  1  0  0  0  0
 16 51  1  0  0  0  0
 17 21  1  0  0  0  0
 17 52  1  0  0  0  0
 17 53  1  0  0  0  0
 18 19  1  0  0  0  0
 18 22  1  0  0  0  0
 18 54  1  0  0  0  0
 18 55  1  0  0  0  0
 19 23  1  0  0  0  0
 19 56  1  0  0  0  0
 19 57  1  0  0  0  0
 20 24  1  0  0  0  0
 20 58  1  0  0  0  0
 20 59  1  0  0  0  0
 21 26  1  0  0  0  0
 21 62  1  0  0  0  0
 21 63  1  0  0  0  0
 22 25  1  0  0  0  0
 22 60  1  0  0  0  0
 22 61  1  0  0  0  0
 23 27  1  0  0  0  0
 23 64  1  0  0  0  0
 23 65  1  0  0  0  0
 24 28  1  0  0  0  0
 24 66  1  0  0  0  0
 24 67  1  0  0  0  0
 25 30  1  0  0  0  0
 25 68  1  0  0  0  0
 25 69  1  0  0  0  0
 26 31  1  0  0  0  0
 26 70  1  0  0  0  0
 26 71  1  0  0  0  0
 27 32  1  0  0  0  0
 27 72  1  0  0  0  0
 27 73  1  0  0  0  0
 28 33  1  0  0  0  0
 28 74  1  0  0  0  0
 28 75  1  0  0  0  0
 30 34  1  0  0  0  0
 30 76  1  0  0  0  0
 30 77  1  0  0  0  0
 31 32  2  3  0  0  0
 31 78  1  0  0  0  0
 32 79  1  0  0  0  0
 34 81  1  0  0  0  0
 34 82  1  0  0  0  0
 34 83  1  0  0  0  0
M  END
> <PUBCHEM_COMPOUND_CID>
509286
> <PUBCHEM_COMPOUND_CANONICALIZED>
1
> <PUBCHEM_CACTVS_COMPLEXITY>
547
> <PUBCHEM_CACTVS_HBOND_ACCEPTOR>
6
> <PUBCHEM_CACTVS_HBOND_DONOR>
2
> <PUBCHEM_CACTVS_ROTATABLE_BOND>
20
> <PUBCHEM_CACTVS_SUBSKEYS>
AAADcfB7oABAAAAAAAAAAAAAAAAAAWLAAAAAAAAAAAAAAAABgAAAHgQYAAAACCjBgAQDEAPAAAiuACFSMAAQAAJgAAkNCIEIAAiAABIAyQAEAAAQkQKIAAMYiICAAAAAAAAAAAAAAAAAAAAAAAAAAAAAAA==
> <PUBCHEM_IUPAC_OPENEYE_NAME>
N-[5-[2-(1-methylpyrrolidin-2-yl)ethylamino]-1,3,4-thiadiazol-2-yl]octadec-9-enamide
> <PUBCHEM_IUPAC_CAS_NAME>
N-[5-[2-(1-methyl-2-pyrrolidinyl)ethylamino]-1,3,4-thiadiazol-2-yl]-9-octadecenamide
> <PUBCHEM_IUPAC_NAME_MARKUP>
<I>N</I>-[5-[2-(1-methylpyrrolidin-2-yl)ethylamino]-1,3,4-thiadiazol-2-yl]octadec-9-enamide
> <PUBCHEM_IUPAC_NAME>
N-[5-[2-(1-methylpyrrolidin-2-yl)ethylamino]-1,3,4-thiadiazol-2-yl]octadec-9-enamide
> <PUBCHEM_IUPAC_SYSTEMATIC_NAME>
N-[5-[2-(1-methylpyrrolidin-2-yl)ethylamino]-1,3,4-thiadiazol-2-yl]octadec-9-enamide
> <PUBCHEM_IUPAC_TRADITIONAL_NAME>
N-[5-[2-(1-methylpyrrolidin-2-yl)ethylamino]-1,3,4-thiadiazol-2-yl]octadec-9-enamide
> <PUBCHEM_IUPAC_INCHI>
InChI=1S/C27H49N5OS/c1-3-4-5-6-7-8-9-10-11-12-13-14-15-16-17-20-25(33)29-27-31-30-26(34-27)28-22-21-24-19-18-23-32(24)2/h10-11,24H,3-9,12-23H2,1-2H3,(H,28,30)(H,29,31,33)
> <PUBCHEM_IUPAC_INCHIKEY>
PZLOFIRNKQPCHQ-UHFFFAOYSA-N
> <PUBCHEM_XLOGP3_AA>
8.6
> <PUBCHEM_EXACT_MASS>
491.36578238
> <PUBCHEM_MOLECULAR_FORMULA>
C27H49N5OS
> <PUBCHEM_MOLECULAR_WEIGHT>
491.8
> <PUBCHEM_OPENEYE_CAN_SMILES>
CCCCCCCCC=CCCCCCCCC(=O)NC1=NN=C(S1)NCCC2CCCN2C
> <PUBCHEM_OPENEYE_ISO_SMILES>
CCCCCCCCC=CCCCCCCCC(=O)NC1=NN=C(S1)NCCC2CCCN2C
> <PUBCHEM_CACTVS_TPSA>
98.4
> <PUBCHEM_MONOISOTOPIC_WEIGHT>
491.36578238
> <PUBCHEM_TOTAL_CHARGE>
0
> <PUBCHEM_HEAVY_ATOM_COUNT>
34
> <PUBCHEM_ATOM_DEF_STEREO_COUNT>
0
> <PUBCHEM_ATOM_UDEF_STEREO_COUNT>
1
> <PUBCHEM_BOND_DEF_STEREO_COUNT>
0
> <PUBCHEM_BOND_UDEF_STEREO_COUNT>
1
> <PUBCHEM_ISOTOPIC_ATOM_COUNT>
0
> <PUBCHEM_COMPONENT_COUNT>
1
> <PUBCHEM_CACTVS_TAUTO_COUNT>
-1
> <PUBCHEM_COORDINATE_TYPE>
1
5
255
> <PUBCHEM_BONDANNOTATIONS>
1  15  8
1  29  8
31  32  1
5  15  8
5  6  8
6  29  8
8  12  3
$$$$
