509391
  -OEChem-10302200282D
 50 52  0     1  0  0  0  0  0999 V2000
    7.5887   -0.2130    0.0000 S   0  0  0  0  0  0  0  0  0  0  0  0
   13.5531   -2.2075    0.0000 O   0  0  0  0  0  0  0  0  0  0  0  0
    9.4252   -0.2075    0.0000 O   0  0  0  0  0  0  0  0  0  0  0  0
   13.2802   -0.4522    0.0000 O   0  0  0  0  0  0  0  0  0  0  0  0
   13.2802   -3.9627    0.0000 O   0  0  0  0  0  0  0  0  0  0  0  0
    6.2038    0.9085    0.0000 N   0  0  0  0  0  0  0  0  0  0  0  0
    6.1105   -0.8711    0.0000 N   0  0  0  0  0  0  0  0  0  0  0  0
    6.7796   -1.6142    0.0000 N   0  0  0  0  0  0  0  0  0  0  0  0
    8.5592   -1.7075    0.0000 N   0  0  0  0  0  0  0  0  0  0  0  0
    4.8025    1.9266    0.0000 C   0  0  3  0  0  0  0  0  0  0  0  0
    3.8080    2.0311    0.0000 C   0  0  0  0  0  0  0  0  0  0  0  0
    5.3903    2.7356    0.0000 C   0  0  0  0  0  0  0  0  0  0  0  0
    5.2092    1.0130    0.0000 C   0  0  0  0  0  0  0  0  0  0  0  0
    3.4013    2.9447    0.0000 C   0  0  0  0  0  0  0  0  0  0  0  0
    2.4067    3.0492    0.0000 C   0  0  0  0  0  0  0  0  0  0  0  0
    4.9836    3.6491    0.0000 C   0  0  0  0  0  0  0  0  0  0  0  0
    2.0000    3.9627    0.0000 C   0  0  0  0  0  0  0  0  0  0  0  0
    6.6105   -0.0050    0.0000 C   0  0  0  0  0  0  0  0  0  0  0  0
    7.6932   -1.2075    0.0000 C   0  0  0  0  0  0  0  0  0  0  0  0
   12.0233   -1.7075    0.0000 C   0  0  0  0  0  0  0  0  0  0  0  0
   10.2913   -1.7075    0.0000 C   0  0  0  0  0  0  0  0  0  0  0  0
   12.0233   -2.7075    0.0000 C   0  0  0  0  0  0  0  0  0  0  0  0
   11.1573   -1.2075    0.0000 C   0  0  0  0  0  0  0  0  0  0  0  0
    9.4252   -1.2075    0.0000 C   0  0  0  0  0  0  0  0  0  0  0  0
   10.2913   -2.7075    0.0000 C   0  0  0  0  0  0  0  0  0  0  0  0
   11.1573   -3.2075    0.0000 C   0  0  0  0  0  0  0  0  0  0  0  0
   12.9695   -1.4027    0.0000 C   0  0  0  0  0  0  0  0  0  0  0  0
   12.9695   -3.0122    0.0000 C   0  0  0  0  0  0  0  0  0  0  0  0
    4.4381    1.4250    0.0000 H   0  0  0  0  0  0  0  0  0  0  0  0
    3.2064    1.8811    0.0000 H   0  0  0  0  0  0  0  0  0  0  0  0
    3.8512    1.4126    0.0000 H   0  0  0  0  0  0  0  0  0  0  0  0
    5.8210    2.2896    0.0000 H   0  0  0  0  0  0  0  0  0  0  0  0
    5.9043    3.0823    0.0000 H   0  0  0  0  0  0  0  0  0  0  0  0
    4.6077    0.8630    0.0000 H   0  0  0  0  0  0  0  0  0  0  0  0
    5.2525    0.3945    0.0000 H   0  0  0  0  0  0  0  0  0  0  0  0
    4.0028    3.0946    0.0000 H   0  0  0  0  0  0  0  0  0  0  0  0
    3.3580    3.5631    0.0000 H   0  0  0  0  0  0  0  0  0  0  0  0
    1.8052    2.8992    0.0000 H   0  0  0  0  0  0  0  0  0  0  0  0
    2.4500    2.4307    0.0000 H   0  0  0  0  0  0  0  0  0  0  0  0
    5.5500    3.9013    0.0000 H   0  0  0  0  0  0  0  0  0  0  0  0
    4.7314    4.2155    0.0000 H   0  0  0  0  0  0  0  0  0  0  0  0
    4.4172    3.3970    0.0000 H   0  0  0  0  0  0  0  0  0  0  0  0
    6.5682    1.4101    0.0000 H   0  0  0  0  0  0  0  0  0  0  0  0
    2.5664    4.2149    0.0000 H   0  0  0  0  0  0  0  0  0  0  0  0
    1.7478    4.5291    0.0000 H   0  0  0  0  0  0  0  0  0  0  0  0
    1.4336    3.7106    0.0000 H   0  0  0  0  0  0  0  0  0  0  0  0
   11.1573   -0.5875    0.0000 H   0  0  0  0  0  0  0  0  0  0  0  0
    8.5592   -2.3275    0.0000 H   0  0  0  0  0  0  0  0  0  0  0  0
    9.7543   -3.0175    0.0000 H   0  0  0  0  0  0  0  0  0  0  0  0
   11.1573   -3.8275    0.0000 H   0  0  0  0  0  0  0  0  0  0  0  0
  1 18  1  0  0  0  0
  1 19  1  0  0  0  0
  2 27  1  0  0  0  0
  2 28  1  0  0  0  0
  3 24  2  0  0  0  0
  4 27  2  0  0  0  0
  5 28  2  0  0  0  0
  6 13  1  0  0  0  0
  6 18  1  0  0  0  0
  6 43  1  0  0  0  0
  7  8  1  0  0  0  0
  7 18  2  0  0  0  0
  8 19  2  0  0  0  0
  9 19  1  0  0  0  0
  9 24  1  0  0  0  0
  9 48  1  0  0  0  0
 10 11  1  0  0  0  0
 10 12  1  0  0  0  0
 10 13  1  0  0  0  0
 10 29  1  0  0  0  0
 11 14  1  0  0  0  0
 11 30  1  0  0  0  0
 11 31  1  0  0  0  0
 12 16  1  0  0  0  0
 12 32  1  0  0  0  0
 12 33  1  0  0  0  0
 13 34  1  0  0  0  0
 13 35  1  0  0  0  0
 14 15  1  0  0  0  0
 14 36  1  0  0  0  0
 14 37  1  0  0  0  0
 15 17  1  0  0  0  0
 15 38  1  0  0  0  0
 15 39  1  0  0  0  0
 16 40  1  0  0  0  0
 16 41  1  0  0  0  0
 16 42  1  0  0  0  0
 17 44  1  0  0  0  0
 17 45  1  0  0  0  0
 17 46  1  0  0  0  0
 20 22  2  0  0  0  0
 20 23  1  0  0  0  0
 20 27  1  0  0  0  0
 21 23  2  0  0  0  0
 21 24  1  0  0  0  0
 21 25  1  0  0  0  0
 22 26  1  0  0  0  0
 22 28  1  0  0  0  0
 23 47  1  0  0  0  0
 25 26  2  0  0  0  0
 25 49  1  0  0  0  0
 26 50  1  0  0  0  0
M  END
> <PUBCHEM_COMPOUND_CID>
509391
> <PUBCHEM_COMPOUND_CANONICALIZED>
1
> <PUBCHEM_CACTVS_COMPLEXITY>
590
> <PUBCHEM_CACTVS_HBOND_ACCEPTOR>
8
> <PUBCHEM_CACTVS_HBOND_DONOR>
2
> <PUBCHEM_CACTVS_ROTATABLE_BOND>
9
> <PUBCHEM_CACTVS_SUBSKEYS>
AAADceB7uABAAAAAAAAAAAAAAAAAAWJAAAAwAAAAAAAAAEgBwAAAHgQYAAAADQDBmAQzGILABAiuAiHSOACSAAJkAAkNiIEIDMiIJjKAvRmGMQh00QMIqYeb3/KOwAACAAAQAACAAAQAACAAAAAAAAAAAA==
> <PUBCHEM_IUPAC_OPENEYE_NAME>
N-[5-(2-ethylhexylamino)-1,3,4-thiadiazol-2-yl]-1,3-dioxo-isobenzofuran-5-carboxamide
> <PUBCHEM_IUPAC_CAS_NAME>
N-[5-(2-ethylhexylamino)-1,3,4-thiadiazol-2-yl]-1,3-dioxo-5-isobenzofurancarboxamide
> <PUBCHEM_IUPAC_NAME_MARKUP>
<I>N</I>-[5-(2-ethylhexylamino)-1,3,4-thiadiazol-2-yl]-1,3-dioxo-2-benzofuran-5-carboxamide
> <PUBCHEM_IUPAC_NAME>
N-[5-(2-ethylhexylamino)-1,3,4-thiadiazol-2-yl]-1,3-dioxo-2-benzofuran-5-carboxamide
> <PUBCHEM_IUPAC_SYSTEMATIC_NAME>
N-[5-(2-ethylhexylamino)-1,3,4-thiadiazol-2-yl]-1,3-bis(oxidanylidene)-2-benzofuran-5-carboxamide
> <PUBCHEM_IUPAC_TRADITIONAL_NAME>
N-[5-(2-ethylhexylamino)-1,3,4-thiadiazol-2-yl]-1,3-diketo-phthalan-5-carboxamide
> <PUBCHEM_IUPAC_INCHI>
InChI=1S/C19H22N4O4S/c1-3-5-6-11(4-2)10-20-18-22-23-19(28-18)21-15(24)12-7-8-13-14(9-12)17(26)27-16(13)25/h7-9,11H,3-6,10H2,1-2H3,(H,20,22)(H,21,23,24)
> <PUBCHEM_IUPAC_INCHIKEY>
XUXLDNRSILMETA-UHFFFAOYSA-N
> <PUBCHEM_XLOGP3_AA>
4.4
> <PUBCHEM_EXACT_MASS>
402.13617637
> <PUBCHEM_MOLECULAR_FORMULA>
C19H22N4O4S
> <PUBCHEM_MOLECULAR_WEIGHT>
402.5
> <PUBCHEM_OPENEYE_CAN_SMILES>
CCCCC(CC)CNC1=NN=C(S1)NC(=O)C2=CC3=C(C=C2)C(=O)OC3=O
> <PUBCHEM_OPENEYE_ISO_SMILES>
CCCCC(CC)CNC1=NN=C(S1)NC(=O)C2=CC3=C(C=C2)C(=O)OC3=O
> <PUBCHEM_CACTVS_TPSA>
139
> <PUBCHEM_MONOISOTOPIC_WEIGHT>
402.13617637
> <PUBCHEM_TOTAL_CHARGE>
0
> <PUBCHEM_HEAVY_ATOM_COUNT>
28
> <PUBCHEM_ATOM_DEF_STEREO_COUNT>
0
> <PUBCHEM_ATOM_UDEF_STEREO_COUNT>
1
> <PUBCHEM_BOND_DEF_STEREO_COUNT>
0
> <PUBCHEM_BOND_UDEF_STEREO_COUNT>
0
> <PUBCHEM_ISOTOPIC_ATOM_COUNT>
0
> <PUBCHEM_COMPONENT_COUNT>
1
> <PUBCHEM_CACTVS_TAUTO_COUNT>
-1
> <PUBCHEM_COORDINATE_TYPE>
1
5
255
> <PUBCHEM_BONDANNOTATIONS>
1  18  8
1  19  8
10  12  3
20  22  8
20  23  8
21  23  8
21  25  8
22  26  8
25  26  8
7  18  8
7  8  8
8  19  8
$$$$
