509382
  -OEChem-10302200282D
 82 84  0     1  0  0  0  0  0999 V2000
   17.9044    1.9778    0.0000 S   0  0  0  0  0  0  0  0  0  0  0  0
   16.0597   -0.3834    0.0000 O   0  0  0  0  0  0  0  0  0  0  0  0
   19.6840    2.0711    0.0000 N   0  0  0  0  0  0  0  0  0  0  0  0
   18.7134    0.5766    0.0000 N   0  0  0  0  0  0  0  0  0  0  0  0
   16.2408    1.3392    0.0000 N   0  0  0  0  0  0  0  0  0  0  0  0
   17.7353    0.3686    0.0000 N   0  0  0  0  0  0  0  0  0  0  0  0
   19.6840    3.0711    0.0000 C   0  0  3  0  0  0  0  0  0  0  0  0
   18.8180    3.5711    0.0000 C   0  0  0  0  0  0  0  0  0  0  0  0
   18.8180    4.5711    0.0000 C   0  0  0  0  0  0  0  0  0  0  0  0
   19.6840    5.0711    0.0000 C   0  0  0  0  0  0  0  0  0  0  0  0
   20.5500    3.5711    0.0000 C   0  0  0  0  0  0  0  0  0  0  0  0
   20.5500    4.5711    0.0000 C   0  0  0  0  0  0  0  0  0  0  0  0
   21.4440    3.0364    0.0000 C   0  0  0  0  0  0  0  0  0  0  0  0
   21.4440    5.1057    0.0000 C   0  0  0  0  0  0  0  0  0  0  0  0
   22.3500    3.5503    0.0000 C   0  0  0  0  0  0  0  0  0  0  0  0
   22.3500    4.5919    0.0000 C   0  0  0  0  0  0  0  0  0  0  0  0
   18.8180    1.5711    0.0000 C   0  0  0  0  0  0  0  0  0  0  0  0
   12.4884   -0.8788    0.0000 C   0  0  0  0  0  0  0  0  0  0  0  0
   11.4938   -0.7743    0.0000 C   0  0  0  0  0  0  0  0  0  0  0  0
    5.1646   -3.5922    0.0000 C   0  0  0  0  0  0  0  0  0  0  0  0
    6.1591   -3.6968    0.0000 C   0  0  0  0  0  0  0  0  0  0  0  0
   13.0761   -0.0698    0.0000 C   0  0  0  0  0  0  0  0  0  0  0  0
   10.9061   -1.5833    0.0000 C   0  0  0  0  0  0  0  0  0  0  0  0
    4.5768   -4.4012    0.0000 C   0  0  0  0  0  0  0  0  0  0  0  0
    6.7469   -2.8877    0.0000 C   0  0  0  0  0  0  0  0  0  0  0  0
   14.0707   -0.1743    0.0000 C   0  0  0  0  0  0  0  0  0  0  0  0
    3.5823   -4.2967    0.0000 C   0  0  0  0  0  0  0  0  0  0  0  0
    9.9115   -1.4788    0.0000 C   0  0  0  0  0  0  0  0  0  0  0  0
    7.7414   -2.9923    0.0000 C   0  0  0  0  0  0  0  0  0  0  0  0
   14.6585    0.6347    0.0000 C   0  0  0  0  0  0  0  0  0  0  0  0
    2.9945   -5.1057    0.0000 C   0  0  0  0  0  0  0  0  0  0  0  0
    9.3238   -2.2878    0.0000 C   0  0  0  0  0  0  0  0  0  0  0  0
    8.3292   -2.1832    0.0000 C   0  0  0  0  0  0  0  0  0  0  0  0
   17.2353    1.2347    0.0000 C   0  0  0  0  0  0  0  0  0  0  0  0
   15.6530    0.5302    0.0000 C   0  0  0  0  0  0  0  0  0  0  0  0
    2.0000   -5.0012    0.0000 C   0  0  0  0  0  0  0  0  0  0  0  0
   20.2209    2.7611    0.0000 H   0  0  0  0  0  0  0  0  0  0  0  0
   18.2074    3.6787    0.0000 H   0  0  0  0  0  0  0  0  0  0  0  0
   18.6059    2.9885    0.0000 H   0  0  0  0  0  0  0  0  0  0  0  0
   18.6059    5.1537    0.0000 H   0  0  0  0  0  0  0  0  0  0  0  0
   18.2074    4.4634    0.0000 H   0  0  0  0  0  0  0  0  0  0  0  0
   20.0825    5.5460    0.0000 H   0  0  0  0  0  0  0  0  0  0  0  0
   19.2855    5.5460    0.0000 H   0  0  0  0  0  0  0  0  0  0  0  0
   20.2209    1.7611    0.0000 H   0  0  0  0  0  0  0  0  0  0  0  0
   21.4368    2.4165    0.0000 H   0  0  0  0  0  0  0  0  0  0  0  0
   21.4368    5.7257    0.0000 H   0  0  0  0  0  0  0  0  0  0  0  0
   22.8858    3.2382    0.0000 H   0  0  0  0  0  0  0  0  0  0  0  0
   22.8858    4.9040    0.0000 H   0  0  0  0  0  0  0  0  0  0  0  0
   12.3175   -1.4748    0.0000 H   0  0  0  0  0  0  0  0  0  0  0  0
   13.0456   -1.1506    0.0000 H   0  0  0  0  0  0  0  0  0  0  0  0
   11.6647   -0.1783    0.0000 H   0  0  0  0  0  0  0  0  0  0  0  0
   10.9366   -0.5025    0.0000 H   0  0  0  0  0  0  0  0  0  0  0  0
    5.3355   -2.9962    0.0000 H   0  0  0  0  0  0  0  0  0  0  0  0
    4.6074   -3.3204    0.0000 H   0  0  0  0  0  0  0  0  0  0  0  0
    5.9882   -4.2927    0.0000 H   0  0  0  0  0  0  0  0  0  0  0  0
    6.7164   -3.9686    0.0000 H   0  0  0  0  0  0  0  0  0  0  0  0
   13.2470    0.5262    0.0000 H   0  0  0  0  0  0  0  0  0  0  0  0
   12.5189    0.2020    0.0000 H   0  0  0  0  0  0  0  0  0  0  0  0
   10.7352   -2.1793    0.0000 H   0  0  0  0  0  0  0  0  0  0  0  0
   11.4633   -1.8551    0.0000 H   0  0  0  0  0  0  0  0  0  0  0  0
    4.4059   -4.9972    0.0000 H   0  0  0  0  0  0  0  0  0  0  0  0
    5.1341   -4.6730    0.0000 H   0  0  0  0  0  0  0  0  0  0  0  0
    6.9178   -2.2918    0.0000 H   0  0  0  0  0  0  0  0  0  0  0  0
    6.1897   -2.6160    0.0000 H   0  0  0  0  0  0  0  0  0  0  0  0
   13.8998   -0.7703    0.0000 H   0  0  0  0  0  0  0  0  0  0  0  0
   14.6279   -0.4461    0.0000 H   0  0  0  0  0  0  0  0  0  0  0  0
    3.7532   -3.7007    0.0000 H   0  0  0  0  0  0  0  0  0  0  0  0
    3.0250   -4.0249    0.0000 H   0  0  0  0  0  0  0  0  0  0  0  0
   10.0824   -0.8828    0.0000 H   0  0  0  0  0  0  0  0  0  0  0  0
    9.3543   -1.2070    0.0000 H   0  0  0  0  0  0  0  0  0  0  0  0
    7.5706   -3.5882    0.0000 H   0  0  0  0  0  0  0  0  0  0  0  0
    8.2987   -3.2641    0.0000 H   0  0  0  0  0  0  0  0  0  0  0  0
   14.8294    1.2307    0.0000 H   0  0  0  0  0  0  0  0  0  0  0  0
   14.1012    0.9065    0.0000 H   0  0  0  0  0  0  0  0  0  0  0  0
    2.8236   -5.7017    0.0000 H   0  0  0  0  0  0  0  0  0  0  0  0
    3.5518   -5.3775    0.0000 H   0  0  0  0  0  0  0  0  0  0  0  0
    9.5759   -2.8542    0.0000 H   0  0  0  0  0  0  0  0  0  0  0  0
    8.0770   -1.6168    0.0000 H   0  0  0  0  0  0  0  0  0  0  0  0
   15.9886    1.9056    0.0000 H   0  0  0  0  0  0  0  0  0  0  0  0
    2.0648   -4.3846    0.0000 H   0  0  0  0  0  0  0  0  0  0  0  0
    1.3834   -4.9364    0.0000 H   0  0  0  0  0  0  0  0  0  0  0  0
    1.9352   -5.6178    0.0000 H   0  0  0  0  0  0  0  0  0  0  0  0
  1 17  1  0  0  0  0
  1 34  1  0  0  0  0
  2 35  2  0  0  0  0
  3  7  1  0  0  0  0
  3 17  1  0  0  0  0
  3 44  1  0  0  0  0
  4  6  1  0  0  0  0
  4 17  2  0  0  0  0
  5 34  1  0  0  0  0
  5 35  1  0  0  0  0
  5 79  1  0  0  0  0
  6 34  2  0  0  0  0
  7  8  1  0  0  0  0
  7 11  1  0  0  0  0
  7 37  1  0  0  0  0
  8  9  1  0  0  0  0
  8 38  1  0  0  0  0
  8 39  1  0  0  0  0
  9 10  1  0  0  0  0
  9 40  1  0  0  0  0
  9 41  1  0  0  0  0
 10 12  1  0  0  0  0
 10 42  1  0  0  0  0
 10 43  1  0  0  0  0
 11 12  1  0  0  0  0
 11 13  2  0  0  0  0
 12 14  2  0  0  0  0
 13 15  1  0  0  0  0
 13 45  1  0  0  0  0
 14 16  1  0  0  0  0
 14 46  1  0  0  0  0
 15 16  2  0  0  0  0
 15 47  1  0  0  0  0
 16 48  1  0  0  0  0
 18 19  1  0  0  0  0
 18 22  1  0  0  0  0
 18 49  1  0  0  0  0
 18 50  1  0  0  0  0
 19 23  1  0  0  0  0
 19 51  1  0  0  0  0
 19 52  1  0  0  0  0
 20 21  1  0  0  0  0
 20 24  1  0  0  0  0
 20 53  1  0  0  0  0
 20 54  1  0  0  0  0
 21 25  1  0  0  0  0
 21 55  1  0  0  0  0
 21 56  1  0  0  0  0
 22 26  1  0  0  0  0
 22 57  1  0  0  0  0
 22 58  1  0  0  0  0
 23 28  1  0  0  0  0
 23 59  1  0  0  0  0
 23 60  1  0  0  0  0
 24 27  1  0  0  0  0
 24 61  1  0  0  0  0
 24 62  1  0  0  0  0
 25 29  1  0  0  0  0
 25 63  1  0  0  0  0
 25 64  1  0  0  0  0
 26 30  1  0  0  0  0
 26 65  1  0  0  0  0
 26 66  1  0  0  0  0
 27 31  1  0  0  0  0
 27 67  1  0  0  0  0
 27 68  1  0  0  0  0
 28 32  1  0  0  0  0
 28 69  1  0  0  0  0
 28 70  1  0  0  0  0
 29 33  1  0  0  0  0
 29 71  1  0  0  0  0
 29 72  1  0  0  0  0
 30 35  1  0  0  0  0
 30 73  1  0  0  0  0
 30 74  1  0  0  0  0
 31 36  1  0  0  0  0
 31 75  1  0  0  0  0
 31 76  1  0  0  0  0
 32 33  2  3  0  0  0
 32 77  1  0  0  0  0
 33 78  1  0  0  0  0
 36 80  1  0  0  0  0
 36 81  1  0  0  0  0
 36 82  1  0  0  0  0
M  END
> <PUBCHEM_COMPOUND_CID>
509382
> <PUBCHEM_COMPOUND_CANONICALIZED>
1
> <PUBCHEM_CACTVS_COMPLEXITY>
616
> <PUBCHEM_CACTVS_HBOND_ACCEPTOR>
5
> <PUBCHEM_CACTVS_HBOND_DONOR>
2
> <PUBCHEM_CACTVS_ROTATABLE_BOND>
18
> <PUBCHEM_CACTVS_SUBSKEYS>
AAADcfB7oABAAAAAAAAAAAAAAAAAAWAAAAAwYAAAAAAAAADBwAAAHgQYAAAADCjBmAQzEILAAAiuAiFSMACSAAJgAAkNiIEIBIiIIDKAmRGEIAhwkQIIiAcYiICOgAAAAAAQAAAAAACAACQAAAAAAAAAAA==
> <PUBCHEM_IUPAC_OPENEYE_NAME>
N-[5-(tetralin-1-ylamino)-1,3,4-thiadiazol-2-yl]octadec-9-enamide
> <PUBCHEM_IUPAC_CAS_NAME>
N-[5-(1,2,3,4-tetrahydronaphthalen-1-ylamino)-1,3,4-thiadiazol-2-yl]-9-octadecenamide
> <PUBCHEM_IUPAC_NAME_MARKUP>
<I>N</I>-[5-(1,2,3,4-tetrahydronaphthalen-1-ylamino)-1,3,4-thiadiazol-2-yl]octadec-9-enamide
> <PUBCHEM_IUPAC_NAME>
N-[5-(1,2,3,4-tetrahydronaphthalen-1-ylamino)-1,3,4-thiadiazol-2-yl]octadec-9-enamide
> <PUBCHEM_IUPAC_SYSTEMATIC_NAME>
N-[5-(1,2,3,4-tetrahydronaphthalen-1-ylamino)-1,3,4-thiadiazol-2-yl]octadec-9-enamide
> <PUBCHEM_IUPAC_TRADITIONAL_NAME>
N-[5-(tetralin-1-ylamino)-1,3,4-thiadiazol-2-yl]octadec-9-enamide
> <PUBCHEM_IUPAC_INCHI>
InChI=1S/C30H46N4OS/c1-2-3-4-5-6-7-8-9-10-11-12-13-14-15-16-24-28(35)32-30-34-33-29(36-30)31-27-23-19-21-25-20-17-18-22-26(25)27/h9-10,17-18,20,22,27H,2-8,11-16,19,21,23-24H2,1H3,(H,31,33)(H,32,34,35)
> <PUBCHEM_IUPAC_INCHIKEY>
JECQWULOHLLKHA-UHFFFAOYSA-N
> <PUBCHEM_XLOGP3_AA>
9.9
> <PUBCHEM_EXACT_MASS>
510.33923328
> <PUBCHEM_MOLECULAR_FORMULA>
C30H46N4OS
> <PUBCHEM_MOLECULAR_WEIGHT>
510.8
> <PUBCHEM_OPENEYE_CAN_SMILES>
CCCCCCCCC=CCCCCCCCC(=O)NC1=NN=C(S1)NC2CCCC3=CC=CC=C23
> <PUBCHEM_OPENEYE_ISO_SMILES>
CCCCCCCCC=CCCCCCCCC(=O)NC1=NN=C(S1)NC2CCCC3=CC=CC=C23
> <PUBCHEM_CACTVS_TPSA>
95.2
> <PUBCHEM_MONOISOTOPIC_WEIGHT>
510.33923328
> <PUBCHEM_TOTAL_CHARGE>
0
> <PUBCHEM_HEAVY_ATOM_COUNT>
36
> <PUBCHEM_ATOM_DEF_STEREO_COUNT>
0
> <PUBCHEM_ATOM_UDEF_STEREO_COUNT>
1
> <PUBCHEM_BOND_DEF_STEREO_COUNT>
0
> <PUBCHEM_BOND_UDEF_STEREO_COUNT>
1
> <PUBCHEM_ISOTOPIC_ATOM_COUNT>
0
> <PUBCHEM_COMPONENT_COUNT>
1
> <PUBCHEM_CACTVS_TAUTO_COUNT>
-1
> <PUBCHEM_COORDINATE_TYPE>
1
5
255
> <PUBCHEM_BONDANNOTATIONS>
1  17  8
1  34  8
11  12  8
11  13  8
12  14  8
13  15  8
14  16  8
15  16  8
7  3  3
32  33  1
4  17  8
4  6  8
6  34  8
$$$$
