509486
  -OEChem-10302200282D
 54 57  0     1  0  0  0  0  0999 V2000
    5.2619    1.8704    0.0000 O   0  0  0  0  0  0  0  0  0  0  0  0
    6.9939   -5.1296    0.0000 O   0  0  0  0  0  0  0  0  0  0  0  0
    4.3958   -2.6296    0.0000 O   0  0  0  0  0  0  0  0  0  0  0  0
    7.8600   -3.6296    0.0000 O   0  0  0  0  0  0  0  0  0  0  0  0
    4.3958   -6.6296    0.0000 O   0  0  0  0  0  0  0  0  0  0  0  0
    3.5298   -5.1296    0.0000 O   0  0  0  0  0  0  0  0  0  0  0  0
    3.5298    4.8704    0.0000 N   0  0  0  0  0  0  0  0  0  0  0  0
    5.2619    3.8704    0.0000 N   0  0  0  0  0  0  0  0  0  0  0  0
    6.1279   -2.6296    0.0000 N   0  0  0  0  0  0  0  0  0  0  0  0
    3.5298    3.8704    0.0000 C   0  0  0  0  0  0  0  0  0  0  0  0
    4.3958    5.3704    0.0000 C   0  0  0  0  0  0  0  0  0  0  0  0
    4.3958    3.3704    0.0000 C   0  0  0  0  0  0  0  0  0  0  0  0
    6.1279   -3.6296    0.0000 C   0  0  3  0  0  0  0  0  0  0  0  0
    5.2619    4.8704    0.0000 C   0  0  0  0  0  0  0  0  0  0  0  0
    5.2619   -4.1296    0.0000 C   0  0  0  0  0  0  0  0  0  0  0  0
    2.5836    5.1751    0.0000 C   0  0  0  0  0  0  0  0  0  0  0  0
    2.5836    3.5656    0.0000 C   0  0  0  0  0  0  0  0  0  0  0  0
    4.3958    2.3704    0.0000 C   0  0  0  0  0  0  0  0  0  0  0  0
    2.0000    4.3704    0.0000 C   0  0  0  0  0  0  0  0  0  0  0  0
    4.3798    6.4119    0.0000 C   0  0  0  0  0  0  0  0  0  0  0  0
    5.2619   -5.1296    0.0000 C   0  0  0  0  0  0  0  0  0  0  0  0
    6.1719    5.3772    0.0000 C   0  0  0  0  0  0  0  0  0  0  0  0
    5.2778    6.9396    0.0000 C   0  0  0  0  0  0  0  0  0  0  0  0
    5.2619   -2.1296    0.0000 C   0  0  0  0  0  0  0  0  0  0  0  0
    5.2619   -1.1296    0.0000 C   0  0  0  0  0  0  0  0  0  0  0  0
    6.9939   -4.1296    0.0000 C   0  0  0  0  0  0  0  0  0  0  0  0
    6.1799    6.4188    0.0000 C   0  0  0  0  0  0  0  0  0  0  0  0
    5.2619    0.8704    0.0000 C   0  0  0  0  0  0  0  0  0  0  0  0
    6.1279   -0.6296    0.0000 C   0  0  0  0  0  0  0  0  0  0  0  0
    4.3958   -0.6296    0.0000 C   0  0  0  0  0  0  0  0  0  0  0  0
    6.1279    0.3704    0.0000 C   0  0  0  0  0  0  0  0  0  0  0  0
    4.3958    0.3704    0.0000 C   0  0  0  0  0  0  0  0  0  0  0  0
    4.3958   -5.6296    0.0000 C   0  0  0  0  0  0  0  0  0  0  0  0
    6.6648   -3.3196    0.0000 H   0  0  0  0  0  0  0  0  0  0  0  0
    5.0498   -3.5470    0.0000 H   0  0  0  0  0  0  0  0  0  0  0  0
    4.6513   -4.2373    0.0000 H   0  0  0  0  0  0  0  0  0  0  0  0
    2.3910    5.7644    0.0000 H   0  0  0  0  0  0  0  0  0  0  0  0
    2.3910    2.9763    0.0000 H   0  0  0  0  0  0  0  0  0  0  0  0
    3.7853    2.4780    0.0000 H   0  0  0  0  0  0  0  0  0  0  0  0
    4.1838    1.7878    0.0000 H   0  0  0  0  0  0  0  0  0  0  0  0
    1.3800    4.3704    0.0000 H   0  0  0  0  0  0  0  0  0  0  0  0
    5.4739   -5.7122    0.0000 H   0  0  0  0  0  0  0  0  0  0  0  0
    5.8725   -5.0220    0.0000 H   0  0  0  0  0  0  0  0  0  0  0  0
    3.8393    6.7156    0.0000 H   0  0  0  0  0  0  0  0  0  0  0  0
    6.6648   -2.3196    0.0000 H   0  0  0  0  0  0  0  0  0  0  0  0
    6.7052    5.0610    0.0000 H   0  0  0  0  0  0  0  0  0  0  0  0
    5.2754    7.5596    0.0000 H   0  0  0  0  0  0  0  0  0  0  0  0
    6.7180    6.7267    0.0000 H   0  0  0  0  0  0  0  0  0  0  0  0
    6.6648   -0.9396    0.0000 H   0  0  0  0  0  0  0  0  0  0  0  0
    3.8589   -0.9396    0.0000 H   0  0  0  0  0  0  0  0  0  0  0  0
    6.6648    0.6804    0.0000 H   0  0  0  0  0  0  0  0  0  0  0  0
    3.8589    0.6804    0.0000 H   0  0  0  0  0  0  0  0  0  0  0  0
    7.5309   -5.4396    0.0000 H   0  0  0  0  0  0  0  0  0  0  0  0
    3.8589   -6.9396    0.0000 H   0  0  0  0  0  0  0  0  0  0  0  0
  1 18  1  0  0  0  0
  1 28  1  0  0  0  0
  2 26  1  0  0  0  0
  2 53  1  0  0  0  0
  3 24  2  0  0  0  0
  4 26  2  0  0  0  0
  5 33  1  0  0  0  0
  5 54  1  0  0  0  0
  6 33  2  0  0  0  0
  7 10  1  0  0  0  0
  7 11  1  0  0  0  0
  7 16  1  0  0  0  0
  8 12  2  0  0  0  0
  8 14  1  0  0  0  0
  9 13  1  0  0  0  0
  9 24  1  0  0  0  0
  9 45  1  0  0  0  0
 10 12  1  0  0  0  0
 10 17  2  0  0  0  0
 11 14  1  0  0  0  0
 11 20  2  0  0  0  0
 12 18  1  0  0  0  0
 13 15  1  0  0  0  0
 13 26  1  0  0  0  0
 13 34  1  0  0  0  0
 14 22  2  0  0  0  0
 15 21  1  0  0  0  0
 15 35  1  0  0  0  0
 15 36  1  0  0  0  0
 16 19  2  0  0  0  0
 16 37  1  0  0  0  0
 17 19  1  0  0  0  0
 17 38  1  0  0  0  0
 18 39  1  0  0  0  0
 18 40  1  0  0  0  0
 19 41  1  0  0  0  0
 20 23  1  0  0  0  0
 20 44  1  0  0  0  0
 21 33  1  0  0  0  0
 21 42  1  0  0  0  0
 21 43  1  0  0  0  0
 22 27  1  0  0  0  0
 22 46  1  0  0  0  0
 23 27  2  0  0  0  0
 23 47  1  0  0  0  0
 24 25  1  0  0  0  0
 25 29  2  0  0  0  0
 25 30  1  0  0  0  0
 27 48  1  0  0  0  0
 28 31  2  0  0  0  0
 28 32  1  0  0  0  0
 29 31  1  0  0  0  0
 29 49  1  0  0  0  0
 30 32  2  0  0  0  0
 30 50  1  0  0  0  0
 31 51  1  0  0  0  0
 32 52  1  0  0  0  0
M  END
> <PUBCHEM_COMPOUND_CID>
509486
> <PUBCHEM_COMPOUND_CANONICALIZED>
1
> <PUBCHEM_CACTVS_COMPLEXITY>
710
> <PUBCHEM_CACTVS_HBOND_ACCEPTOR>
7
> <PUBCHEM_CACTVS_HBOND_DONOR>
3
> <PUBCHEM_CACTVS_ROTATABLE_BOND>
9
> <PUBCHEM_CACTVS_SUBSKEYS>
AAADceB7OAAAAAAAAAAAAAAAAAAAAWAAAAA8YIAAAAAAAFix9AAAHgAQCAAADCzhngY8zrPMHgCoAzX3XASCiCQ1MiAI2KG+fNgOZvLEtbuXeSjm1hHY6Ye8/gLOIAAAAAAAACBAAAAAAAAAQAAAAAAAAA==
> <PUBCHEM_IUPAC_OPENEYE_NAME>
2-[[4-(pyrrolo[1,2-a]quinoxalin-4-ylmethoxy)benzoyl]amino]pentanedioic acid
> <PUBCHEM_IUPAC_CAS_NAME>
2-[[oxo-[4-(4-pyrrolo[1,2-a]quinoxalinylmethoxy)phenyl]methyl]amino]pentanedioic acid
> <PUBCHEM_IUPAC_NAME_MARKUP>
2-[[4-(pyrrolo[1,2-a]quinoxalin-4-ylmethoxy)benzoyl]amino]pentanedioic acid
> <PUBCHEM_IUPAC_NAME>
2-[[4-(pyrrolo[1,2-a]quinoxalin-4-ylmethoxy)benzoyl]amino]pentanedioic acid
> <PUBCHEM_IUPAC_SYSTEMATIC_NAME>
2-[[4-(pyrrolo[1,2-a]quinoxalin-4-ylmethoxy)phenyl]carbonylamino]pentanedioic acid
> <PUBCHEM_IUPAC_TRADITIONAL_NAME>
2-[[4-(pyrrolo[1,2-a]quinoxalin-4-ylmethoxy)benzoyl]amino]glutaric acid
> <PUBCHEM_IUPAC_INCHI>
InChI=1S/C24H21N3O6/c28-22(29)12-11-18(24(31)32)26-23(30)15-7-9-16(10-8-15)33-14-19-21-6-3-13-27(21)20-5-2-1-4-17(20)25-19/h1-10,13,18H,11-12,14H2,(H,26,30)(H,28,29)(H,31,32)
> <PUBCHEM_IUPAC_INCHIKEY>
UMKPSUQUAAKVFR-UHFFFAOYSA-N
> <PUBCHEM_XLOGP3_AA>
3.1
> <PUBCHEM_EXACT_MASS>
447.14303540
> <PUBCHEM_MOLECULAR_FORMULA>
C24H21N3O6
> <PUBCHEM_MOLECULAR_WEIGHT>
447.4
> <PUBCHEM_OPENEYE_CAN_SMILES>
C1=CC=C2C(=C1)N=C(C3=CC=CN23)COC4=CC=C(C=C4)C(=O)NC(CCC(=O)O)C(=O)O
> <PUBCHEM_OPENEYE_ISO_SMILES>
C1=CC=C2C(=C1)N=C(C3=CC=CN23)COC4=CC=C(C=C4)C(=O)NC(CCC(=O)O)C(=O)O
> <PUBCHEM_CACTVS_TPSA>
130
> <PUBCHEM_MONOISOTOPIC_WEIGHT>
447.14303540
> <PUBCHEM_TOTAL_CHARGE>
0
> <PUBCHEM_HEAVY_ATOM_COUNT>
33
> <PUBCHEM_ATOM_DEF_STEREO_COUNT>
0
> <PUBCHEM_ATOM_UDEF_STEREO_COUNT>
1
> <PUBCHEM_BOND_DEF_STEREO_COUNT>
0
> <PUBCHEM_BOND_UDEF_STEREO_COUNT>
0
> <PUBCHEM_ISOTOPIC_ATOM_COUNT>
0
> <PUBCHEM_COMPONENT_COUNT>
1
> <PUBCHEM_CACTVS_TAUTO_COUNT>
-1
> <PUBCHEM_COORDINATE_TYPE>
1
5
255
> <PUBCHEM_BONDANNOTATIONS>
10  12  8
10  17  8
11  14  8
11  20  8
13  15  3
14  22  8
16  19  8
17  19  8
20  23  8
22  27  8
23  27  8
25  29  8
25  30  8
28  31  8
28  32  8
29  31  8
30  32  8
7  10  8
7  11  8
7  16  8
8  12  8
8  14  8
$$$$
