509599
  -OEChem-10302200282D
 94 99  0     1  0  0  0  0  0999 V2000
    9.3056   -0.4032    0.0000 S   0  0  0  0  0  0  0  0  0  0  0  0
   12.8499   -0.5984    0.0000 S   0  0  0  0  0  0  0  0  0  0  0  0
    4.6095    4.1357    0.0000 O   0  0  0  0  0  0  0  0  0  0  0  0
    2.8037    4.7179    0.0000 O   0  0  0  0  0  0  0  0  0  0  0  0
    4.1095    1.5968    0.0000 O   0  0  0  0  0  0  0  0  0  0  0  0
    6.7075    1.0968    0.0000 O   0  0  0  0  0  0  0  0  0  0  0  0
    5.8415    1.5968    0.0000 O   0  0  0  0  0  0  0  0  0  0  0  0
    8.8056   -1.2692    0.0000 O   0  0  0  0  0  0  0  0  0  0  0  0
    9.8056    0.4629    0.0000 O   0  0  0  0  0  0  0  0  0  0  0  0
   14.4335   -3.1352    0.0000 O   0  0  0  0  0  0  0  0  0  0  0  0
    4.9755    0.0968    0.0000 N   0  0  0  0  0  0  0  0  0  0  0  0
    8.4396    0.0968    0.0000 N   0  0  3  0  0  0  0  0  0  0  0  0
   16.4335   -3.1352    0.0000 N   0  0  0  0  0  0  0  0  0  0  0  0
   14.4335   -1.4032    0.0000 N   0  0  0  0  0  0  0  0  0  0  0  0
   12.8499   -2.2079    0.0000 N   0  0  0  0  0  0  0  0  0  0  0  0
    3.3004    3.1846    0.0000 C   0  0  1  0  0  0  0  0  0  0  0  0
    3.6095    4.1357    0.0000 C   0  0  2  0  0  0  0  0  0  0  0  0
    4.1095    2.5968    0.0000 C   0  0  1  0  0  0  0  0  0  0  0  0
    2.3064    3.1872    0.0000 C   0  0  0  0  0  0  0  0  0  0  0  0
    4.9185    3.1846    0.0000 C   0  0  0  0  0  0  0  0  0  0  0  0
    2.0000    4.1329    0.0000 C   0  0  0  0  0  0  0  0  0  0  0  0
    5.8415   -0.4032    0.0000 C   0  0  2  0  0  0  0  0  0  0  0  0
    4.9755    1.0968    0.0000 C   0  0  0  0  0  0  0  0  0  0  0  0
    6.7075    0.0968    0.0000 C   0  0  1  0  0  0  0  0  0  0  0  0
    7.5736   -0.4032    0.0000 C   0  0  0  0  0  0  0  0  0  0  0  0
    5.8415   -1.4032    0.0000 C   0  0  0  0  0  0  0  0  0  0  0  0
    8.4396    1.0968    0.0000 C   0  0  0  0  0  0  0  0  0  0  0  0
    9.3056    1.5968    0.0000 C   0  0  0  0  0  0  0  0  0  0  0  0
   16.7699   -4.7179    0.0000 C   0  0  0  0  0  0  0  0  0  0  0  0
   17.6360   -4.2179    0.0000 C   0  0  0  0  0  0  0  0  0  0  0  0
   16.0268   -4.0488    0.0000 C   0  0  0  0  0  0  0  0  0  0  0  0
   17.4280   -3.2397    0.0000 C   0  0  0  0  0  0  0  0  0  0  0  0
    4.9755   -1.9032    0.0000 C   0  0  0  0  0  0  0  0  0  0  0  0
   10.1716   -0.9032    0.0000 C   0  0  0  0  0  0  0  0  0  0  0  0
   15.9335   -2.2692    0.0000 C   0  0  0  0  0  0  0  0  0  0  0  0
    9.3056    2.5968    0.0000 C   0  0  0  0  0  0  0  0  0  0  0  0
   10.1716    1.0968    0.0000 C   0  0  0  0  0  0  0  0  0  0  0  0
    4.9755   -2.9032    0.0000 C   0  0  0  0  0  0  0  0  0  0  0  0
    4.1095   -1.4032    0.0000 C   0  0  0  0  0  0  0  0  0  0  0  0
   11.0377   -0.4032    0.0000 C   0  0  0  0  0  0  0  0  0  0  0  0
   10.1716   -1.9032    0.0000 C   0  0  0  0  0  0  0  0  0  0  0  0
   14.9335   -2.2692    0.0000 C   0  0  0  0  0  0  0  0  0  0  0  0
   11.9037   -0.9032    0.0000 C   0  0  0  0  0  0  0  0  0  0  0  0
   11.9037   -1.9032    0.0000 C   0  0  0  0  0  0  0  0  0  0  0  0
   11.0377   -2.4032    0.0000 C   0  0  0  0  0  0  0  0  0  0  0  0
    4.1095   -3.4032    0.0000 C   0  0  0  0  0  0  0  0  0  0  0  0
    3.2434   -1.9032    0.0000 C   0  0  0  0  0  0  0  0  0  0  0  0
   13.4335   -1.4032    0.0000 C   0  0  0  0  0  0  0  0  0  0  0  0
    3.2434   -2.9032    0.0000 C   0  0  0  0  0  0  0  0  0  0  0  0
    3.0367    2.3766    0.0000 H   0  0  0  0  0  0  0  0  0  0  0  0
    3.8711    4.9444    0.0000 H   0  0  0  0  0  0  0  0  0  0  0  0
    3.5570    2.3154    0.0000 H   0  0  0  0  0  0  0  0  0  0  0  0
    1.6997    3.0592    0.0000 H   0  0  0  0  0  0  0  0  0  0  0  0
    2.3699    2.5705    0.0000 H   0  0  0  0  0  0  0  0  0  0  0  0
    5.2285    2.6477    0.0000 H   0  0  0  0  0  0  0  0  0  0  0  0
    5.4849    3.4368    0.0000 H   0  0  0  0  0  0  0  0  0  0  0  0
    1.6898    4.6697    0.0000 H   0  0  0  0  0  0  0  0  0  0  0  0
    1.4335    3.8809    0.0000 H   0  0  0  0  0  0  0  0  0  0  0  0
    5.8415    0.2168    0.0000 H   0  0  0  0  0  0  0  0  0  0  0  0
    7.2445    0.4068    0.0000 H   0  0  0  0  0  0  0  0  0  0  0  0
    4.4386   -0.2132    0.0000 H   0  0  0  0  0  0  0  0  0  0  0  0
    7.1750   -0.8781    0.0000 H   0  0  0  0  0  0  0  0  0  0  0  0
    7.9721   -0.8781    0.0000 H   0  0  0  0  0  0  0  0  0  0  0  0
    6.0536   -1.9858    0.0000 H   0  0  0  0  0  0  0  0  0  0  0  0
    6.4521   -1.2955    0.0000 H   0  0  0  0  0  0  0  0  0  0  0  0
    8.2275    1.6794    0.0000 H   0  0  0  0  0  0  0  0  0  0  0  0
    7.8290    0.9892    0.0000 H   0  0  0  0  0  0  0  0  0  0  0  0
    8.7687    1.9068    0.0000 H   0  0  0  0  0  0  0  0  0  0  0  0
   16.3092   -5.1328    0.0000 H   0  0  0  0  0  0  0  0  0  0  0  0
   17.1344   -5.2195    0.0000 H   0  0  0  0  0  0  0  0  0  0  0  0
   17.8881   -4.7843    0.0000 H   0  0  0  0  0  0  0  0  0  0  0  0
   18.2256   -4.0263    0.0000 H   0  0  0  0  0  0  0  0  0  0  0  0
   15.4898   -3.7388    0.0000 H   0  0  0  0  0  0  0  0  0  0  0  0
   15.6624   -4.5504    0.0000 H   0  0  0  0  0  0  0  0  0  0  0  0
   18.0446   -3.1749    0.0000 H   0  0  0  0  0  0  0  0  0  0  0  0
   17.4280   -2.6197    0.0000 H   0  0  0  0  0  0  0  0  0  0  0  0
    7.2445    1.4068    0.0000 H   0  0  0  0  0  0  0  0  0  0  0  0
   16.5161   -2.0571    0.0000 H   0  0  0  0  0  0  0  0  0  0  0  0
   15.8259   -1.6586    0.0000 H   0  0  0  0  0  0  0  0  0  0  0  0
    9.9256    2.5968    0.0000 H   0  0  0  0  0  0  0  0  0  0  0  0
    9.3056    3.2168    0.0000 H   0  0  0  0  0  0  0  0  0  0  0  0
    8.6856    2.5968    0.0000 H   0  0  0  0  0  0  0  0  0  0  0  0
    9.8616    0.5599    0.0000 H   0  0  0  0  0  0  0  0  0  0  0  0
   10.7086    0.7868    0.0000 H   0  0  0  0  0  0  0  0  0  0  0  0
   10.4816    1.6338    0.0000 H   0  0  0  0  0  0  0  0  0  0  0  0
    5.5124   -3.2132    0.0000 H   0  0  0  0  0  0  0  0  0  0  0  0
    4.1095   -0.7832    0.0000 H   0  0  0  0  0  0  0  0  0  0  0  0
   11.0377    0.2168    0.0000 H   0  0  0  0  0  0  0  0  0  0  0  0
    9.6347   -2.2132    0.0000 H   0  0  0  0  0  0  0  0  0  0  0  0
   11.0377   -3.0232    0.0000 H   0  0  0  0  0  0  0  0  0  0  0  0
    4.1095   -4.0232    0.0000 H   0  0  0  0  0  0  0  0  0  0  0  0
    2.7065   -1.5932    0.0000 H   0  0  0  0  0  0  0  0  0  0  0  0
   14.7435   -0.8662    0.0000 H   0  0  0  0  0  0  0  0  0  0  0  0
    2.7065   -3.2132    0.0000 H   0  0  0  0  0  0  0  0  0  0  0  0
  1  8  2  0  0  0  0
  1  9  2  0  0  0  0
  1 12  1  0  0  0  0
  1 34  1  0  0  0  0
  2 43  1  0  0  0  0
  2 48  1  0  0  0  0
  3 17  1  0  0  0  0
  3 20  1  0  0  0  0
  4 17  1  0  0  0  0
  4 21  1  0  0  0  0
 18  5  1  1  0  0  0
  5 23  1  0  0  0  0
 24  6  1  6  0  0  0
  6 77  1  0  0  0  0
  7 23  2  0  0  0  0
 10 42  2  0  0  0  0
 22 11  1  6  0  0  0
 11 23  1  0  0  0  0
 11 61  1  0  0  0  0
 12 25  1  0  0  0  0
 12 27  1  0  0  0  0
 13 31  1  0  0  0  0
 13 32  1  0  0  0  0
 13 35  1  0  0  0  0
 14 42  1  0  0  0  0
 14 48  1  0  0  0  0
 14 93  1  0  0  0  0
 15 44  1  0  0  0  0
 15 48  2  0  0  0  0
 16 17  1  0  0  0  0
 16 18  1  0  0  0  0
 16 19  1  0  0  0  0
 16 50  1  6  0  0  0
 17 51  1  6  0  0  0
 18 20  1  0  0  0  0
 18 52  1  0  0  0  0
 19 21  1  0  0  0  0
 19 53  1  0  0  0  0
 19 54  1  0  0  0  0
 20 55  1  0  0  0  0
 20 56  1  0  0  0  0
 21 57  1  0  0  0  0
 21 58  1  0  0  0  0
 22 24  1  0  0  0  0
 22 26  1  0  0  0  0
 22 59  1  0  0  0  0
 24 25  1  0  0  0  0
 24 60  1  0  0  0  0
 25 62  1  0  0  0  0
 25 63  1  0  0  0  0
 26 33  1  0  0  0  0
 26 64  1  0  0  0  0
 26 65  1  0  0  0  0
 27 28  1  0  0  0  0
 27 66  1  0  0  0  0
 27 67  1  0  0  0  0
 28 36  1  0  0  0  0
 28 37  1  0  0  0  0
 28 68  1  0  0  0  0
 29 30  1  0  0  0  0
 29 31  1  0  0  0  0
 29 69  1  0  0  0  0
 29 70  1  0  0  0  0
 30 32  1  0  0  0  0
 30 71  1  0  0  0  0
 30 72  1  0  0  0  0
 31 73  1  0  0  0  0
 31 74  1  0  0  0  0
 32 75  1  0  0  0  0
 32 76  1  0  0  0  0
 33 38  2  0  0  0  0
 33 39  1  0  0  0  0
 34 40  2  0  0  0  0
 34 41  1  0  0  0  0
 35 42  1  0  0  0  0
 35 78  1  0  0  0  0
 35 79  1  0  0  0  0
 36 80  1  0  0  0  0
 36 81  1  0  0  0  0
 36 82  1  0  0  0  0
 37 83  1  0  0  0  0
 37 84  1  0  0  0  0
 37 85  1  0  0  0  0
 38 46  1  0  0  0  0
 38 86  1  0  0  0  0
 39 47  2  0  0  0  0
 39 87  1  0  0  0  0
 40 43  1  0  0  0  0
 40 88  1  0  0  0  0
 41 45  2  0  0  0  0
 41 89  1  0  0  0  0
 43 44  2  0  0  0  0
 44 45  1  0  0  0  0
 45 90  1  0  0  0  0
 46 49  2  0  0  0  0
 46 91  1  0  0  0  0
 47 49  1  0  0  0  0
 47 92  1  0  0  0  0
 49 94  1  0  0  0  0
M  END
> <PUBCHEM_COMPOUND_CID>
509599
> <PUBCHEM_COMPOUND_CANONICALIZED>
1
> <PUBCHEM_CACTVS_COMPLEXITY>
1210
> <PUBCHEM_CACTVS_HBOND_ACCEPTOR>
12
> <PUBCHEM_CACTVS_HBOND_DONOR>
3
> <PUBCHEM_CACTVS_ROTATABLE_BOND>
15
> <PUBCHEM_CACTVS_SUBSKEYS>
AAADcfB/vABgAAAAAAAAAAAAAAAAAWLEiQAwYAAAAAASAFgB9AAAHgQQSAAADTzx3gcz2bPIFgqsAyVyfHDD8LlhCjlJmLy4ZJmbcKLg2bG+YAhtlwLeyCfQ4KgOAAQAAEAAAQAACAAAgAACAAAAAAAAAA==
> <PUBCHEM_IUPAC_OPENEYE_NAME>
[(3aR,4S,6aS)-2,3,3a,4,5,6a-hexahydrofuro[2,3-b]furan-4-yl] N-[(1S,2R)-1-benzyl-2-hydroxy-3-[isobutyl-[[2-[(2-pyrrolidin-1-ylacetyl)amino]-1,3-benzothiazol-6-yl]sulfonyl]amino]propyl]carbamate
> <PUBCHEM_IUPAC_CAS_NAME>
N-[(2S,3R)-3-hydroxy-4-[2-methylpropyl-[[2-[[1-oxo-2-(1-pyrrolidinyl)ethyl]amino]-1,3-benzothiazol-6-yl]sulfonyl]amino]-1-phenylbutan-2-yl]carbamic acid [(3aR,4S,6aS)-2,3,3a,4,5,6a-hexahydrofuro[2,3-b]furan-4-yl] ester
> <PUBCHEM_IUPAC_NAME_MARKUP>
[(3<I>a</I><I>R</I>,4<I>S</I>,6<I>a</I><I>S</I>)-2,3,3<I>a</I>,4,5,6<I>a</I>-hexahydrofuro[2,3-b]furan-4-yl] <I>N</I>-[(2<I>S</I>,3<I>R</I>)-3-hydroxy-4-[2-methylpropyl-[[2-[(2-pyrrolidin-1-ylacetyl)amino]-1,3-benzothiazol-6-yl]sulfonyl]amino]-1-phenylbutan-2-yl]carbamate
> <PUBCHEM_IUPAC_NAME>
[(3aR,4S,6aS)-2,3,3a,4,5,6a-hexahydrofuro[2,3-b]furan-4-yl] N-[(2S,3R)-3-hydroxy-4-[2-methylpropyl-[[2-[(2-pyrrolidin-1-ylacetyl)amino]-1,3-benzothiazol-6-yl]sulfonyl]amino]-1-phenylbutan-2-yl]carbamate
> <PUBCHEM_IUPAC_SYSTEMATIC_NAME>
[(3aR,4S,6aS)-2,3,3a,4,5,6a-hexahydrofuro[2,3-b]furan-4-yl] N-[(2S,3R)-4-[2-methylpropyl-[[2-(2-pyrrolidin-1-ylethanoylamino)-1,3-benzothiazol-6-yl]sulfonyl]amino]-3-oxidanyl-1-phenyl-butan-2-yl]carbamate
> <PUBCHEM_IUPAC_TRADITIONAL_NAME>
N-[(1S,2R)-1-benzyl-2-hydroxy-3-[isobutyl-[[2-[(2-pyrrolidinoacetyl)amino]-1,3-benzothiazol-6-yl]sulfonyl]amino]propyl]carbamic acid [(3aR,4S,6aS)-2,3,3a,4,5,6a-hexahydrofuro[2,3-b]furan-4-yl] ester
> <PUBCHEM_IUPAC_INCHI>
InChI=1S/C34H45N5O8S2/c1-22(2)18-39(49(43,44)24-10-11-26-30(17-24)48-33(35-26)37-31(41)20-38-13-6-7-14-38)19-28(40)27(16-23-8-4-3-5-9-23)36-34(42)47-29-21-46-32-25(29)12-15-45-32/h3-5,8-11,17,22,25,27-29,32,40H,6-7,12-16,18-21H2,1-2H3,(H,36,42)(H,35,37,41)/t25-,27+,28-,29-,32+/m1/s1
> <PUBCHEM_IUPAC_INCHIKEY>
POHAENLFPGAEOQ-GSDXJCRYSA-N
> <PUBCHEM_XLOGP3_AA>
4.1
> <PUBCHEM_EXACT_MASS>
715.27095576
> <PUBCHEM_MOLECULAR_FORMULA>
C34H45N5O8S2
> <PUBCHEM_MOLECULAR_WEIGHT>
715.9
> <PUBCHEM_OPENEYE_CAN_SMILES>
CC(C)CN(CC(C(CC1=CC=CC=C1)NC(=O)OC2COC3C2CCO3)O)S(=O)(=O)C4=CC5=C(C=C4)N=C(S5)NC(=O)CN6CCCC6
> <PUBCHEM_OPENEYE_ISO_SMILES>
CC(C)CN(C[C@H]([C@H](CC1=CC=CC=C1)NC(=O)O[C@@H]2CO[C@H]3[C@@H]2CCO3)O)S(=O)(=O)C4=CC5=C(C=C4)N=C(S5)NC(=O)CN6CCCC6
> <PUBCHEM_CACTVS_TPSA>
196
> <PUBCHEM_MONOISOTOPIC_WEIGHT>
715.27095576
> <PUBCHEM_TOTAL_CHARGE>
0
> <PUBCHEM_HEAVY_ATOM_COUNT>
49
> <PUBCHEM_ATOM_DEF_STEREO_COUNT>
5
> <PUBCHEM_ATOM_UDEF_STEREO_COUNT>
0
> <PUBCHEM_BOND_DEF_STEREO_COUNT>
0
> <PUBCHEM_BOND_UDEF_STEREO_COUNT>
0
> <PUBCHEM_ISOTOPIC_ATOM_COUNT>
0
> <PUBCHEM_COMPONENT_COUNT>
1
> <PUBCHEM_CACTVS_TAUTO_COUNT>
-1
> <PUBCHEM_COORDINATE_TYPE>
1
5
255
> <PUBCHEM_BONDANNOTATIONS>
22  11  6
15  44  8
15  48  8
16  50  6
17  51  6
2  43  8
2  48  8
33  38  8
33  39  8
34  40  8
34  41  8
38  46  8
39  47  8
40  43  8
41  45  8
43  44  8
44  45  8
46  49  8
47  49  8
18  5  5
24  6  6
$$$$
