509531
  -OEChem-10302200282D
137147  0     1  0  0  0  0  0999 V2000
   11.8426    4.1194    0.0000 Cl  0  0  0  0  0  0  0  0  0  0  0  0
    6.6465   -2.8806    0.0000 O   0  0  0  0  0  0  0  0  0  0  0  0
    3.1824   -2.8806    0.0000 O   0  0  0  0  0  0  0  0  0  0  0  0
    7.5125   -2.3806    0.0000 O   0  0  0  0  0  0  0  0  0  0  0  0
    6.6634   -0.3564    0.0000 O   0  0  0  0  0  0  0  0  0  0  0  0
    6.5456    1.0529    0.0000 O   0  0  0  0  0  0  0  0  0  0  0  0
    3.1824    2.1194    0.0000 O   0  0  0  0  0  0  0  0  0  0  0  0
    5.7777    2.6146    0.0000 O   0  0  0  0  0  0  0  0  0  0  0  0
    4.2073    3.8265    0.0000 O   0  0  0  0  0  0  0  0  0  0  0  0
    9.2432    0.6194    0.0000 O   0  0  0  0  0  0  0  0  0  0  0  0
    8.3785    5.1194    0.0000 O   0  0  0  0  0  0  0  0  0  0  0  0
   11.8426    3.1194    0.0000 O   0  0  0  0  0  0  0  0  0  0  0  0
   11.8426    5.1194    0.0000 O   0  0  0  0  0  0  0  0  0  0  0  0
   10.1106    6.1194    0.0000 O   0  0  0  0  0  0  0  0  0  0  0  0
   14.4407    0.6194    0.0000 O   0  0  0  0  0  0  0  0  0  0  0  0
   11.2944    0.2052    0.0000 O   0  0  0  0  0  0  0  0  0  0  0  0
   16.0138    3.8265    0.0000 O   0  0  0  0  0  0  0  0  0  0  0  0
    4.0484    0.6194    0.0000 N   0  0  0  0  0  0  0  0  0  0  0  0
    5.7804    1.6194    0.0000 N   0  0  0  0  0  0  0  0  0  0  0  0
    8.3785    2.1194    0.0000 N   0  0  0  0  0  0  0  0  0  0  0  0
   10.9766    1.6194    0.0000 N   0  0  0  0  0  0  0  0  0  0  0  0
   13.5747    2.1194    0.0000 N   0  0  0  0  0  0  0  0  0  0  0  0
   12.5192   -1.0195    0.0000 N   0  0  0  0  0  0  0  0  0  0  0  0
   16.2726    1.8606    0.0000 N   0  0  0  0  0  0  0  0  0  0  0  0
    4.2983   -5.3132    0.0000 C   0  0  0  0  0  0  0  0  0  0  0  0
    3.1157   -4.1307    0.0000 C   0  0  0  0  0  0  0  0  0  0  0  0
    4.0484   -4.3806    0.0000 C   0  0  0  0  0  0  0  0  0  0  0  0
    2.6829   -5.7461    0.0000 C   0  0  0  0  0  0  0  0  0  0  0  0
    2.3002   -5.4933    0.0000 C   0  0  0  0  0  0  0  0  0  0  0  0
    3.6155   -5.9960    0.0000 C   0  0  0  0  0  0  0  0  0  0  0  0
    3.3099   -5.7638    0.0000 C   0  0  0  0  0  0  0  0  0  0  0  0
    2.0740   -4.4951    0.0000 C   0  0  0  0  0  0  0  0  0  0  0  0
    2.6069   -4.8600    0.0000 C   0  0  0  0  0  0  0  0  0  0  0  0
    2.0000   -6.4294    0.0000 C   0  0  0  0  0  0  0  0  0  0  0  0
    4.9144   -3.8806    0.0000 C   0  0  0  0  0  0  0  0  0  0  0  0
    4.9144   -2.8806    0.0000 C   0  0  0  0  0  0  0  0  0  0  0  0
    5.7804   -2.3806    0.0000 C   0  0  0  0  0  0  0  0  0  0  0  0
    4.0484   -2.3806    0.0000 C   0  0  0  0  0  0  0  0  0  0  0  0
    5.7804   -1.3806    0.0000 C   0  0  0  0  0  0  0  0  0  0  0  0
    4.0484   -1.3806    0.0000 C   0  0  0  0  0  0  0  0  0  0  0  0
    4.9144   -0.8806    0.0000 C   0  0  0  0  0  0  0  0  0  0  0  0
    6.6465   -0.8806    0.0000 C   0  0  0  0  0  0  0  0  0  0  0  0
    4.9144    0.1194    0.0000 C   0  0  1  0  0  0  0  0  0  0  0  0
    6.6465    0.1194    0.0000 C   0  0  0  0  0  0  0  0  0  0  0  0
    7.5125   -1.3806    0.0000 C   0  0  0  0  0  0  0  0  0  0  0  0
    5.8999    0.2893    0.0000 C   0  0  0  0  0  0  0  0  0  0  0  0
    7.5125    0.6194    0.0000 C   0  0  0  0  0  0  0  0  0  0  0  0
    8.3785   -0.8806    0.0000 C   0  0  0  0  0  0  0  0  0  0  0  0
    4.0484    1.6194    0.0000 C   0  0  0  0  0  0  0  0  0  0  0  0
    8.3785    0.1194    0.0000 C   0  0  0  0  0  0  0  0  0  0  0  0
    7.5125    1.6194    0.0000 C   0  0  2  0  0  0  0  0  0  0  0  0
    4.9144    2.1194    0.0000 C   0  0  2  0  0  0  0  0  0  0  0  0
    6.6465    2.1194    0.0000 C   0  0  0  0  0  0  0  0  0  0  0  0
    4.9144    3.1194    0.0000 C   0  0  1  0  0  0  0  0  0  0  0  0
    5.7804    3.6194    0.0000 C   0  0  0  0  0  0  0  0  0  0  0  0
    9.2445    1.6194    0.0000 C   0  0  0  0  0  0  0  0  0  0  0  0
   10.1106    2.1194    0.0000 C   0  0  1  0  0  0  0  0  0  0  0  0
    5.7804    4.6194    0.0000 C   0  0  0  0  0  0  0  0  0  0  0  0
    6.6465    3.1194    0.0000 C   0  0  0  0  0  0  0  0  0  0  0  0
   10.1106    3.1194    0.0000 C   0  0  0  0  0  0  0  0  0  0  0  0
    6.6465    5.1194    0.0000 C   0  0  0  0  0  0  0  0  0  0  0  0
    7.5125    3.6194    0.0000 C   0  0  0  0  0  0  0  0  0  0  0  0
    7.5125    4.6194    0.0000 C   0  0  0  0  0  0  0  0  0  0  0  0
    9.2445    3.6194    0.0000 C   0  0  0  0  0  0  0  0  0  0  0  0
   10.9766    3.6194    0.0000 C   0  0  0  0  0  0  0  0  0  0  0  0
   11.8426    2.1194    0.0000 C   0  0  0  0  0  0  0  0  0  0  0  0
    9.2445    4.6194    0.0000 C   0  0  0  0  0  0  0  0  0  0  0  0
   10.9766    4.6194    0.0000 C   0  0  0  0  0  0  0  0  0  0  0  0
   12.7086    1.6194    0.0000 C   0  0  2  0  0  0  0  0  0  0  0  0
   10.1106    5.1194    0.0000 C   0  0  0  0  0  0  0  0  0  0  0  0
   12.9675    0.6535    0.0000 C   0  0  0  0  0  0  0  0  0  0  0  0
   14.4407    1.6194    0.0000 C   0  0  0  0  0  0  0  0  0  0  0  0
   12.2604   -0.0536    0.0000 C   0  0  0  0  0  0  0  0  0  0  0  0
   12.7086    4.6194    0.0000 C   0  0  0  0  0  0  0  0  0  0  0  0
   15.3067    2.1194    0.0000 C   0  0  1  0  0  0  0  0  0  0  0  0
   15.3067    3.1194    0.0000 C   0  0  1  0  0  0  0  0  0  0  0  0
   14.4407    3.6194    0.0000 C   0  0  0  0  0  0  0  0  0  0  0  0
   12.7086    3.6194    0.0000 C   0  0  0  0  0  0  0  0  0  0  0  0
   13.5747    5.1194    0.0000 C   0  0  0  0  0  0  0  0  0  0  0  0
   13.5747    3.1194    0.0000 C   0  0  0  0  0  0  0  0  0  0  0  0
   14.4407    4.6194    0.0000 C   0  0  0  0  0  0  0  0  0  0  0  0
    4.8972   -5.4737    0.0000 H   0  0  0  0  0  0  0  0  0  0  0  0
    3.0926   -3.5111    0.0000 H   0  0  0  0  0  0  0  0  0  0  0  0
    3.9674   -3.7659    0.0000 H   0  0  0  0  0  0  0  0  0  0  0  0
    3.1582   -5.3480    0.0000 H   0  0  0  0  0  0  0  0  0  0  0  0
    1.6808   -5.4662    0.0000 H   0  0  0  0  0  0  0  0  0  0  0  0
    3.3535   -6.5579    0.0000 H   0  0  0  0  0  0  0  0  0  0  0  0
    4.1234   -6.3516    0.0000 H   0  0  0  0  0  0  0  0  0  0  0  0
    2.9829   -6.2906    0.0000 H   0  0  0  0  0  0  0  0  0  0  0  0
    3.7194   -6.2293    0.0000 H   0  0  0  0  0  0  0  0  0  0  0  0
    1.8916   -3.9025    0.0000 H   0  0  0  0  0  0  0  0  0  0  0  0
    1.4750   -4.6549    0.0000 H   0  0  0  0  0  0  0  0  0  0  0  0
    2.2220   -4.3739    0.0000 H   0  0  0  0  0  0  0  0  0  0  0  0
    2.0305   -5.0886    0.0000 H   0  0  0  0  0  0  0  0  0  0  0  0
    1.3809   -6.4635    0.0000 H   0  0  0  0  0  0  0  0  0  0  0  0
    2.2530   -6.9954    0.0000 H   0  0  0  0  0  0  0  0  0  0  0  0
    5.1265   -4.4632    0.0000 H   0  0  0  0  0  0  0  0  0  0  0  0
    5.5250   -3.7729    0.0000 H   0  0  0  0  0  0  0  0  0  0  0  0
    3.5114   -1.0706    0.0000 H   0  0  0  0  0  0  0  0  0  0  0  0
    6.6465   -3.5006    0.0000 H   0  0  0  0  0  0  0  0  0  0  0  0
    2.6454   -2.5706    0.0000 H   0  0  0  0  0  0  0  0  0  0  0  0
    5.3909    0.5161    0.0000 H   0  0  0  0  0  0  0  0  0  0  0  0
    6.1095    0.4294    0.0000 H   0  0  0  0  0  0  0  0  0  0  0  0
    3.5114    0.3094    0.0000 H   0  0  0  0  0  0  0  0  0  0  0  0
    8.9154   -1.1906    0.0000 H   0  0  0  0  0  0  0  0  0  0  0  0
    8.9154    0.4294    0.0000 H   0  0  0  0  0  0  0  0  0  0  0  0
    8.1768    1.0892    0.0000 H   0  0  0  0  0  0  0  0  0  0  0  0
    8.0494   -2.6906    0.0000 H   0  0  0  0  0  0  0  0  0  0  0  0
    4.1783    2.5444    0.0000 H   0  0  0  0  0  0  0  0  0  0  0  0
    7.2469   -0.1466    0.0000 H   0  0  0  0  0  0  0  0  0  0  0  0
    5.7804    0.9994    0.0000 H   0  0  0  0  0  0  0  0  0  0  0  0
    4.3155    3.2799    0.0000 H   0  0  0  0  0  0  0  0  0  0  0  0
    8.3785    2.7394    0.0000 H   0  0  0  0  0  0  0  0  0  0  0  0
    4.3678    4.4254    0.0000 H   0  0  0  0  0  0  0  0  0  0  0  0
   10.1106    1.2694    0.0000 H   0  0  0  0  0  0  0  0  0  0  0  0
    5.2435    4.9294    0.0000 H   0  0  0  0  0  0  0  0  0  0  0  0
    6.6465    2.4994    0.0000 H   0  0  0  0  0  0  0  0  0  0  0  0
   10.9766    0.9994    0.0000 H   0  0  0  0  0  0  0  0  0  0  0  0
    6.6465    5.7394    0.0000 H   0  0  0  0  0  0  0  0  0  0  0  0
    8.0494    3.3094    0.0000 H   0  0  0  0  0  0  0  0  0  0  0  0
    8.7076    3.3094    0.0000 H   0  0  0  0  0  0  0  0  0  0  0  0
   11.5135    3.3094    0.0000 H   0  0  0  0  0  0  0  0  0  0  0  0
   12.5482    1.0205    0.0000 H   0  0  0  0  0  0  0  0  0  0  0  0
   13.3231    0.1456    0.0000 H   0  0  0  0  0  0  0  0  0  0  0  0
   13.5294    0.9155    0.0000 H   0  0  0  0  0  0  0  0  0  0  0  0
   13.0796    2.4927    0.0000 H   0  0  0  0  0  0  0  0  0  0  0  0
   10.6475    6.4294    0.0000 H   0  0  0  0  0  0  0  0  0  0  0  0
   15.7451    1.6810    0.0000 H   0  0  0  0  0  0  0  0  0  0  0  0
   15.9056    3.2799    0.0000 H   0  0  0  0  0  0  0  0  0  0  0  0
   13.5747    5.7394    0.0000 H   0  0  0  0  0  0  0  0  0  0  0  0
   13.1180   -1.1800    0.0000 H   0  0  0  0  0  0  0  0  0  0  0  0
   12.0808   -1.4580    0.0000 H   0  0  0  0  0  0  0  0  0  0  0  0
   13.5747    2.4994    0.0000 H   0  0  0  0  0  0  0  0  0  0  0  0
   14.9776    4.9294    0.0000 H   0  0  0  0  0  0  0  0  0  0  0  0
   16.4331    1.2617    0.0000 H   0  0  0  0  0  0  0  0  0  0  0  0
   16.7110    2.2990    0.0000 H   0  0  0  0  0  0  0  0  0  0  0  0
   15.8533    4.4254    0.0000 H   0  0  0  0  0  0  0  0  0  0  0  0
  1 78  1  0  0  0  0
  2 37  1  0  0  0  0
  2100  1  0  0  0  0
  3 38  1  0  0  0  0
  3101  1  0  0  0  0
  4 45  1  0  0  0  0
  4108  1  0  0  0  0
  5 46  1  0  0  0  0
  5110  1  0  0  0  0
  6 46  2  0  0  0  0
  7 49  2  0  0  0  0
  8 53  2  0  0  0  0
 54  9  1  6  0  0  0
  9114  1  0  0  0  0
 10 56  2  0  0  0  0
 11 63  1  0  0  0  0
 11 67  1  0  0  0  0
 12 66  2  0  0  0  0
 13 68  1  0  0  0  0
 13 74  1  0  0  0  0
 14 70  1  0  0  0  0
 14127  1  0  0  0  0
 15 72  2  0  0  0  0
 16 73  2  0  0  0  0
 76 17  1  1  0  0  0
 17137  1  0  0  0  0
 18 43  1  0  0  0  0
 18 49  1  0  0  0  0
 18104  1  0  0  0  0
 19 52  1  0  0  0  0
 19 53  1  0  0  0  0
 19111  1  0  0  0  0
 20 51  1  0  0  0  0
 20 56  1  0  0  0  0
 20113  1  0  0  0  0
 21 57  1  0  0  0  0
 21 66  1  0  0  0  0
 21118  1  0  0  0  0
 22 69  1  0  0  0  0
 22 72  1  0  0  0  0
 22126  1  0  0  0  0
 23 73  1  0  0  0  0
 23131  1  0  0  0  0
 23132  1  0  0  0  0
 75 24  1  1  0  0  0
 24135  1  0  0  0  0
 24136  1  0  0  0  0
 25 27  1  0  0  0  0
 25 30  1  0  0  0  0
 25 31  1  0  0  0  0
 25 82  1  0  0  0  0
 26 27  1  0  0  0  0
 26 32  1  0  0  0  0
 26 33  1  0  0  0  0
 26 83  1  0  0  0  0
 27 35  1  0  0  0  0
 27 84  1  0  0  0  0
 28 30  1  0  0  0  0
 28 33  1  0  0  0  0
 28 34  1  0  0  0  0
 28 85  1  0  0  0  0
 29 31  1  0  0  0  0
 29 32  1  0  0  0  0
 29 34  1  0  0  0  0
 29 86  1  0  0  0  0
 30 87  1  0  0  0  0
 30 88  1  0  0  0  0
 31 89  1  0  0  0  0
 31 90  1  0  0  0  0
 32 91  1  0  0  0  0
 32 92  1  0  0  0  0
 33 93  1  0  0  0  0
 33 94  1  0  0  0  0
 34 95  1  0  0  0  0
 34 96  1  0  0  0  0
 35 36  1  0  0  0  0
 35 97  1  0  0  0  0
 35 98  1  0  0  0  0
 36 37  1  0  0  0  0
 36 38  2  0  0  0  0
 37 39  2  0  0  0  0
 38 40  1  0  0  0  0
 39 41  1  0  0  0  0
 39 42  1  0  0  0  0
 40 41  2  0  0  0  0
 40 99  1  0  0  0  0
 41 43  1  0  0  0  0
 42 44  1  0  0  0  0
 42 45  2  0  0  0  0
 43 46  1  6  0  0  0
 43102  1  0  0  0  0
 44 47  2  0  0  0  0
 44103  1  0  0  0  0
 45 48  1  0  0  0  0
 47 50  1  0  0  0  0
 47 51  1  0  0  0  0
 48 50  2  0  0  0  0
 48105  1  0  0  0  0
 49 52  1  0  0  0  0
 50106  1  0  0  0  0
 51 53  1  0  0  0  0
 51107  1  1  0  0  0
 52 54  1  0  0  0  0
 52109  1  1  0  0  0
 54 55  1  0  0  0  0
 54112  1  0  0  0  0
 55 58  2  0  0  0  0
 55 59  1  0  0  0  0
 56 57  1  0  0  0  0
 57 60  1  0  0  0  0
 57115  1  6  0  0  0
 58 61  1  0  0  0  0
 58116  1  0  0  0  0
 59 62  2  0  0  0  0
 59117  1  0  0  0  0
 60 64  2  0  0  0  0
 60 65  1  0  0  0  0
 61 63  2  0  0  0  0
 61119  1  0  0  0  0
 62 63  1  0  0  0  0
 62120  1  0  0  0  0
 64 67  1  0  0  0  0
 64121  1  0  0  0  0
 65 68  2  0  0  0  0
 65122  1  0  0  0  0
 66 69  1  0  0  0  0
 67 70  2  0  0  0  0
 68 70  1  0  0  0  0
 69 71  1  1  0  0  0
 69123  1  0  0  0  0
 71 73  1  0  0  0  0
 71124  1  0  0  0  0
 71125  1  0  0  0  0
 72 75  1  0  0  0  0
 74 78  2  0  0  0  0
 74 79  1  0  0  0  0
 75 76  1  0  0  0  0
 75128  1  0  0  0  0
 76 77  1  0  0  0  0
 76129  1  0  0  0  0
 77 80  2  0  0  0  0
 77 81  1  0  0  0  0
 78 80  1  0  0  0  0
 79 81  2  0  0  0  0
 79130  1  0  0  0  0
 80133  1  0  0  0  0
 81134  1  0  0  0  0
M  END
> <PUBCHEM_COMPOUND_CID>
509531
> <PUBCHEM_COMPOUND_CANONICALIZED>
1
> <PUBCHEM_CACTVS_COMPLEXITY>
2360
> <PUBCHEM_CACTVS_HBOND_ACCEPTOR>
17
> <PUBCHEM_CACTVS_HBOND_DONOR>
14
> <PUBCHEM_CACTVS_ROTATABLE_BOND>
5
> <PUBCHEM_CACTVS_SUBSKEYS>
AAADcfB/vgAEAAAAAAAAAAAAAAAAAAAAAAAwYMGDAAAAAAABVAAAHgIQCAAADT7hmCYwDoLABgCIAiHSGACCCAAgJUAIiIGOj4gPdz+H9zuWeCvn9hWbuAf9/P/O4AADKAAYSADAAAZQADCQAAAAAAAAAA==
> <PUBCHEM_IUPAC_OPENEYE_NAME>
(1S,2R,18R,19R,22S,25R,28R,40S)-36-(2-adamantylmethyl)-19-amino-22-(2-amino-2-oxo-ethyl)-15-chloro-2,18,32,35,37,48-hexahydroxy-20,23,26,42,44-pentaoxo-7,13-dioxa-21,24,27,41,43-pentazaoctacyclo[26.14.2.23,6.214,17.18,12.129,33.010,25.034,39]pentaconta-3(50),4,6(49),8(48),9,11,14,16,29(45),30,32,34,36,38,46-pentadecaene-40-carboxylic acid
> <PUBCHEM_IUPAC_CAS_NAME>
(1S,2R,18R,19R,22S,25R,28R,40S)-36-(2-adamantylmethyl)-19-amino-22-(2-amino-2-oxoethyl)-15-chloro-2,18,32,35,37,48-hexahydroxy-20,23,26,42,44-pentaoxo-7,13-dioxa-21,24,27,41,43-pentazaoctacyclo[26.14.2.23,6.214,17.18,12.129,33.010,25.034,39]pentaconta-3(50),4,6(49),8(48),9,11,14,16,29(45),30,32,34,36,38,46-pentadecaene-40-carboxylic acid
> <PUBCHEM_IUPAC_NAME_MARKUP>
(1<I>S</I>,2<I>R</I>,18<I>R</I>,19<I>R</I>,22<I>S</I>,25<I>R</I>,28<I>R</I>,40<I>S</I>)-36-(2-adamantylmethyl)-19-amino-22-(2-amino-2-oxoethyl)-15-chloro-2,18,32,35,37,48-hexahydroxy-20,23,26,42,44-pentaoxo-7,13-dioxa-21,24,27,41,43-pentazaoctacyclo[26.14.2.2<SUP>3,6</SUP>.2<SUP>14,17</SUP>.1<SUP>8,12</SUP>.1<SUP>29,33</SUP>.0<SUP>10,25</SUP>.0<SUP>34,39</SUP>]pentaconta-3(50),4,6(49),8(48),9,11,14,16,29(45),30,32,34,36,38,46-pentadecaene-40-carboxylic acid
> <PUBCHEM_IUPAC_NAME>
(1S,2R,18R,19R,22S,25R,28R,40S)-36-(2-adamantylmethyl)-19-amino-22-(2-amino-2-oxoethyl)-15-chloro-2,18,32,35,37,48-hexahydroxy-20,23,26,42,44-pentaoxo-7,13-dioxa-21,24,27,41,43-pentazaoctacyclo[26.14.2.23,6.214,17.18,12.129,33.010,25.034,39]pentaconta-3(50),4,6(49),8(48),9,11,14,16,29(45),30,32,34,36,38,46-pentadecaene-40-carboxylic acid
> <PUBCHEM_IUPAC_SYSTEMATIC_NAME>
(1S,2R,18R,19R,22S,25R,28R,40S)-36-(2-adamantylmethyl)-19-azanyl-22-(2-azanyl-2-oxidanylidene-ethyl)-15-chloranyl-2,18,32,35,37,48-hexakis(oxidanyl)-20,23,26,42,44-pentakis(oxidanylidene)-7,13-dioxa-21,24,27,41,43-pentazaoctacyclo[26.14.2.23,6.214,17.18,12.129,33.010,25.034,39]pentaconta-3(50),4,6(49),8(48),9,11,14,16,29(45),30,32,34,36,38,46-pentadecaene-40-carboxylic acid
> <PUBCHEM_IUPAC_TRADITIONAL_NAME>
(1S,2R,18R,19R,22S,25R,28R,40S)-36-(2-adamantylmethyl)-19-amino-22-(2-amino-2-keto-ethyl)-15-chloro-2,18,32,35,37,48-hexahydroxy-20,23,26,42,44-pentaketo-7,13-dioxa-21,24,27,41,43-pentazaoctacyclo[26.14.2.23,6.214,17.18,12.129,33.010,25.034,39]pentaconta-3(50),4,6(49),8(48),9,11,14,16,29(45),30,32,34,36,38,46-pentadecaene-40-carboxylic acid
> <PUBCHEM_IUPAC_INCHI>
InChI=1S/C57H56ClN7O16/c58-34-15-25-4-8-38(34)81-40-17-28-16-39(51(40)72)80-29-5-1-23(2-6-29)49(70)47-56(77)64-46(57(78)79)33-19-37(67)32(18-30-26-10-21-9-22(12-26)13-27(30)11-21)50(71)42(33)31-14-24(3-7-36(31)66)44(54(75)65-47)63-55(76)45(28)62-52(73)35(20-41(59)68)61-53(74)43(60)48(25)69/h1-8,14-17,19,21-22,26-27,30,35,43-49,66-67,69-72H,9-13,18,20,60H2,(H2,59,68)(H,61,74)(H,62,73)(H,63,76)(H,64,77)(H,65,75)(H,78,79)/t21?,22?,26?,27?,30?,35-,43+,44+,45+,46-,47-,48+,49+/m0/s1
> <PUBCHEM_IUPAC_INCHIKEY>
VADYNDIXZGALFR-ORAWRPTHSA-N
> <PUBCHEM_XLOGP3_AA>
0.8
> <PUBCHEM_EXACT_MASS>
1129.3472064
> <PUBCHEM_MOLECULAR_FORMULA>
C57H56ClN7O16
> <PUBCHEM_MOLECULAR_WEIGHT>
1130.5
> <PUBCHEM_OPENEYE_CAN_SMILES>
C1C2CC3CC1CC(C2)C3CC4=C(C=C5C(NC(=O)C6C(C7=CC=C(C=C7)OC8=C(C9=CC(=C8)C(C(=O)NC(C1=CC(=C(C=C1)O)C5=C4O)C(=O)N6)NC(=O)C(NC(=O)C(C(C1=CC(=C(O9)C=C1)Cl)O)N)CC(=O)N)O)O)C(=O)O)O
> <PUBCHEM_OPENEYE_ISO_SMILES>
C1C2CC3CC1CC(C2)C3CC4=C(C=C5[C@H](NC(=O)[C@@H]6[C@@H](C7=CC=C(C=C7)OC8=C(C9=CC(=C8)[C@H](C(=O)N[C@H](C1=CC(=C(C=C1)O)C5=C4O)C(=O)N6)NC(=O)[C@@H](NC(=O)[C@@H]([C@@H](C1=CC(=C(O9)C=C1)Cl)O)N)CC(=O)N)O)O)C(=O)O)O
> <PUBCHEM_CACTVS_TPSA>
392
> <PUBCHEM_MONOISOTOPIC_WEIGHT>
1129.3472064
> <PUBCHEM_TOTAL_CHARGE>
0
> <PUBCHEM_HEAVY_ATOM_COUNT>
81
> <PUBCHEM_ATOM_DEF_STEREO_COUNT>
8
> <PUBCHEM_ATOM_UDEF_STEREO_COUNT>
0
> <PUBCHEM_BOND_DEF_STEREO_COUNT>
0
> <PUBCHEM_BOND_UDEF_STEREO_COUNT>
0
> <PUBCHEM_ISOTOPIC_ATOM_COUNT>
0
> <PUBCHEM_COMPONENT_COUNT>
1
> <PUBCHEM_CACTVS_TAUTO_COUNT>
-1
> <PUBCHEM_COORDINATE_TYPE>
1
5
255
> <PUBCHEM_BONDANNOTATIONS>
76  17  5
75  24  5
36  37  8
36  38  8
37  39  8
38  40  8
39  41  8
40  41  8
42  44  8
42  45  8
43  46  6
44  47  8
45  48  8
47  50  8
48  50  8
51  107  5
52  109  5
55  58  8
55  59  8
57  115  6
58  61  8
59  62  8
60  64  8
60  65  8
61  63  8
62  63  8
64  67  8
65  68  8
67  70  8
68  70  8
69  71  5
74  78  8
74  79  8
77  80  8
77  81  8
78  80  8
79  81  8
54  9  6
$$$$
