509507
  -OEChem-10302200282D
 28 29  0     1  0  0  0  0  0999 V2000
    2.9511   -3.3214    0.0000 F   0  0  0  0  0  0  0  0  0  0  0  0
    2.0000   -2.6304    0.0000 F   0  0  0  0  0  0  0  0  0  0  0  0
    4.2601   -1.3703    0.0000 O   0  0  0  0  0  0  0  0  0  0  0  0
    5.5334   -3.0259    0.0000 O   0  0  0  0  0  0  0  0  0  0  0  0
    5.1831    0.2175    0.0000 O   0  0  0  0  0  0  0  0  0  0  0  0
    3.4511    0.2175    0.0000 N   0  0  0  0  0  0  0  0  0  0  0  0
    4.3171    1.7175    0.0000 N   0  0  0  0  0  0  0  0  0  0  0  0
    3.4511    3.2175    0.0000 N   0  0  0  0  0  0  0  0  0  0  0  0
    3.4511   -0.7825    0.0000 C   0  0  1  0  0  0  0  0  0  0  0  0
    2.6420   -1.3703    0.0000 C   0  0  0  0  0  0  0  0  0  0  0  0
    2.9511   -2.3214    0.0000 C   0  0  0  0  0  0  0  0  0  0  0  0
    3.9511   -2.3214    0.0000 C   0  0  2  0  0  0  0  0  0  0  0  0
    4.5388   -3.1304    0.0000 C   0  0  0  0  0  0  0  0  0  0  0  0
    2.5850    0.7175    0.0000 C   0  0  0  0  0  0  0  0  0  0  0  0
    4.3171    0.7175    0.0000 C   0  0  0  0  0  0  0  0  0  0  0  0
    2.5850    1.7175    0.0000 C   0  0  0  0  0  0  0  0  0  0  0  0
    3.4511    2.2175    0.0000 C   0  0  0  0  0  0  0  0  0  0  0  0
    2.8986   -0.5011    0.0000 H   0  0  0  0  0  0  0  0  0  0  0  0
    2.3320   -0.8334    0.0000 H   0  0  0  0  0  0  0  0  0  0  0  0
    2.0756   -1.6225    0.0000 H   0  0  0  0  0  0  0  0  0  0  0  0
    4.5634   -2.2244    0.0000 H   0  0  0  0  0  0  0  0  0  0  0  0
    3.9816   -3.4022    0.0000 H   0  0  0  0  0  0  0  0  0  0  0  0
    4.7097   -3.7264    0.0000 H   0  0  0  0  0  0  0  0  0  0  0  0
    2.0481    0.4075    0.0000 H   0  0  0  0  0  0  0  0  0  0  0  0
    5.8978   -3.5275    0.0000 H   0  0  0  0  0  0  0  0  0  0  0  0
    2.0481    2.0275    0.0000 H   0  0  0  0  0  0  0  0  0  0  0  0
    2.9141    3.5275    0.0000 H   0  0  0  0  0  0  0  0  0  0  0  0
    3.9880    3.5275    0.0000 H   0  0  0  0  0  0  0  0  0  0  0  0
  1 11  1  0  0  0  0
  2 11  1  0  0  0  0
  3  9  1  0  0  0  0
  3 12  1  0  0  0  0
  4 13  1  0  0  0  0
  4 25  1  0  0  0  0
  5 15  2  0  0  0  0
  9  6  1  6  0  0  0
  6 14  1  0  0  0  0
  6 15  1  0  0  0  0
  7 15  1  0  0  0  0
  7 17  2  0  0  0  0
  8 17  1  0  0  0  0
  8 27  1  0  0  0  0
  8 28  1  0  0  0  0
  9 10  1  0  0  0  0
  9 18  1  0  0  0  0
 10 11  1  0  0  0  0
 10 19  1  0  0  0  0
 10 20  1  0  0  0  0
 11 12  1  0  0  0  0
 12 13  1  1  0  0  0
 12 21  1  0  0  0  0
 13 22  1  0  0  0  0
 13 23  1  0  0  0  0
 14 16  2  0  0  0  0
 14 24  1  0  0  0  0
 16 17  1  0  0  0  0
 16 26  1  0  0  0  0
M  END
> <PUBCHEM_COMPOUND_CID>
509507
> <PUBCHEM_COMPOUND_CANONICALIZED>
1
> <PUBCHEM_CACTVS_COMPLEXITY>
397
> <PUBCHEM_CACTVS_HBOND_ACCEPTOR>
5
> <PUBCHEM_CACTVS_HBOND_DONOR>
2
> <PUBCHEM_CACTVS_ROTATABLE_BOND>
2
> <PUBCHEM_CACTVS_SUBSKEYS>
AAADccBzMYAAAAAAAAAAAAAAAAAAASAAAAAgAAAAAAAAAAAAAAAAHwAQCAAACBThgBYBAANABgCoACJmdACAAAEAAgAIAAAYABCBEAIAgAAOQAAEFgIDAACwMAIAAAAAAAAAAAAAAAAAAAAAAAAAAAAAAA==
> <PUBCHEM_IUPAC_OPENEYE_NAME>
4-amino-1-[(2R,5S)-4,4-difluoro-5-(hydroxymethyl)tetrahydrofuran-2-yl]pyrimidin-2-one
> <PUBCHEM_IUPAC_CAS_NAME>
4-amino-1-[(2R,5S)-4,4-difluoro-5-(hydroxymethyl)-2-oxolanyl]-2-pyrimidinone
> <PUBCHEM_IUPAC_NAME_MARKUP>
4-amino-1-[(2<I>R</I>,5<I>S</I>)-4,4-difluoro-5-(hydroxymethyl)oxolan-2-yl]pyrimidin-2-one
> <PUBCHEM_IUPAC_NAME>
4-amino-1-[(2R,5S)-4,4-difluoro-5-(hydroxymethyl)oxolan-2-yl]pyrimidin-2-one
> <PUBCHEM_IUPAC_SYSTEMATIC_NAME>
4-azanyl-1-[(2R,5S)-4,4-bis(fluoranyl)-5-(hydroxymethyl)oxolan-2-yl]pyrimidin-2-one
> <PUBCHEM_IUPAC_TRADITIONAL_NAME>
4-amino-1-[(2R,5S)-4,4-difluoro-5-methylol-tetrahydrofuran-2-yl]pyrimidin-2-one
> <PUBCHEM_IUPAC_INCHI>
InChI=1S/C9H11F2N3O3/c10-9(11)3-7(17-5(9)4-15)14-2-1-6(12)13-8(14)16/h1-2,5,7,15H,3-4H2,(H2,12,13,16)/t5-,7+/m0/s1
> <PUBCHEM_IUPAC_INCHIKEY>
BBEGIDJAWYEEOT-CAHLUQPWSA-N
> <PUBCHEM_XLOGP3>
-0.8
> <PUBCHEM_EXACT_MASS>
247.07684755
> <PUBCHEM_MOLECULAR_FORMULA>
C9H11F2N3O3
> <PUBCHEM_MOLECULAR_WEIGHT>
247.20
> <PUBCHEM_OPENEYE_CAN_SMILES>
C1C(OC(C1(F)F)CO)N2C=CC(=NC2=O)N
> <PUBCHEM_OPENEYE_ISO_SMILES>
C1[C@@H](O[C@H](C1(F)F)CO)N2C=CC(=NC2=O)N
> <PUBCHEM_CACTVS_TPSA>
88.2
> <PUBCHEM_MONOISOTOPIC_WEIGHT>
247.07684755
> <PUBCHEM_TOTAL_CHARGE>
0
> <PUBCHEM_HEAVY_ATOM_COUNT>
17
> <PUBCHEM_ATOM_DEF_STEREO_COUNT>
2
> <PUBCHEM_ATOM_UDEF_STEREO_COUNT>
0
> <PUBCHEM_BOND_DEF_STEREO_COUNT>
0
> <PUBCHEM_BOND_UDEF_STEREO_COUNT>
0
> <PUBCHEM_ISOTOPIC_ATOM_COUNT>
0
> <PUBCHEM_COMPONENT_COUNT>
1
> <PUBCHEM_CACTVS_TAUTO_COUNT>
-1
> <PUBCHEM_COORDINATE_TYPE>
1
5
255
> <PUBCHEM_BONDANNOTATIONS>
12  13  5
14  16  8
16  17  8
6  14  8
6  15  8
9  6  6
7  15  8
7  17  8
$$$$
