509522
  -OEChem-10302200282D
 28 30  0     1  0  0  0  0  0999 V2000
    4.6844    3.3174    0.0000 F   0  0  0  0  0  0  0  0  0  0  0  0
    5.9405    1.0552    0.0000 O   0  0  0  0  0  0  0  0  0  0  0  0
    7.6651    2.2332    0.0000 O   0  0  0  0  0  0  0  0  0  0  0  0
    4.6783   -0.2027    0.0000 N   0  0  0  0  0  0  0  0  0  0  0  0
    4.6783   -1.8122    0.0000 N   0  0  0  0  0  0  0  0  0  0  0  0
    2.8660   -0.0074    0.0000 N   0  0  0  0  0  0  0  0  0  0  0  0
    2.0000   -1.5074    0.0000 N   0  0  0  0  0  0  0  0  0  0  0  0
    2.8660   -3.0074    0.0000 N   0  0  0  0  0  0  0  0  0  0  0  0
    4.9889    0.7478    0.0000 C   0  0  1  0  0  0  0  0  0  0  0  0
    5.9422    2.0552    0.0000 C   0  0  2  0  0  0  0  0  0  0  0  0
    4.4026    1.5578    0.0000 C   0  0  0  0  0  0  0  0  0  0  0  0
    4.9917    2.3658    0.0000 C   0  0  0  0  0  0  0  0  0  0  0  0
    3.7320   -0.5074    0.0000 C   0  0  0  0  0  0  0  0  0  0  0  0
    6.7523    2.6416    0.0000 C   0  0  0  0  0  0  0  0  0  0  0  0
    5.2619   -1.0074    0.0000 C   0  0  0  0  0  0  0  0  0  0  0  0
    3.7320   -1.5074    0.0000 C   0  0  0  0  0  0  0  0  0  0  0  0
    2.8660   -2.0074    0.0000 C   0  0  0  0  0  0  0  0  0  0  0  0
    2.0000   -0.5074    0.0000 C   0  0  0  0  0  0  0  0  0  0  0  0
    5.4266    0.3087    0.0000 H   0  0  0  0  0  0  0  0  0  0  0  0
    6.4942    1.7728    0.0000 H   0  0  0  0  0  0  0  0  0  0  0  0
    3.7826    1.5589    0.0000 H   0  0  0  0  0  0  0  0  0  0  0  0
    7.0999    3.1550    0.0000 H   0  0  0  0  0  0  0  0  0  0  0  0
    6.3070    3.0730    0.0000 H   0  0  0  0  0  0  0  0  0  0  0  0
    5.8819   -1.0074    0.0000 H   0  0  0  0  0  0  0  0  0  0  0  0
    1.4631   -0.1974    0.0000 H   0  0  0  0  0  0  0  0  0  0  0  0
    8.1674    2.5968    0.0000 H   0  0  0  0  0  0  0  0  0  0  0  0
    2.3291   -3.3174    0.0000 H   0  0  0  0  0  0  0  0  0  0  0  0
    3.4030   -3.3174    0.0000 H   0  0  0  0  0  0  0  0  0  0  0  0
  1 12  1  0  0  0  0
  2  9  1  0  0  0  0
  2 10  1  0  0  0  0
  3 14  1  0  0  0  0
  3 26  1  0  0  0  0
  9  4  1  1  0  0  0
  4 13  1  0  0  0  0
  4 15  1  0  0  0  0
  5 15  2  0  0  0  0
  5 16  1  0  0  0  0
  6 13  2  0  0  0  0
  6 18  1  0  0  0  0
  7 17  1  0  0  0  0
  7 18  2  0  0  0  0
  8 17  1  0  0  0  0
  8 27  1  0  0  0  0
  8 28  1  0  0  0  0
  9 11  1  0  0  0  0
  9 19  1  0  0  0  0
 10 12  1  0  0  0  0
 10 14  1  6  0  0  0
 10 20  1  0  0  0  0
 11 12  2  0  0  0  0
 11 21  1  0  0  0  0
 13 16  1  0  0  0  0
 14 22  1  0  0  0  0
 14 23  1  0  0  0  0
 15 24  1  0  0  0  0
 16 17  2  0  0  0  0
 18 25  1  0  0  0  0
M  END
> <PUBCHEM_COMPOUND_CID>
509522
> <PUBCHEM_COMPOUND_CANONICALIZED>
1
> <PUBCHEM_CACTVS_COMPLEXITY>
355
> <PUBCHEM_CACTVS_HBOND_ACCEPTOR>
7
> <PUBCHEM_CACTVS_HBOND_DONOR>
2
> <PUBCHEM_CACTVS_ROTATABLE_BOND>
2
> <PUBCHEM_CACTVS_SUBSKEYS>
AAADccBzsQAAAAAAAAAAAAAAAAAAAWIAAAAsAAAAAAAAAFgB+AAAHwAQCAAACBzhlwYF8L9MFgCgASZjZACAgC0xEKABWCAoVBiBXABAaUAeVAgIQALLICIAAAAAAAAAAAAAAAAAAAAAAAAAAAAAAAAAAA==
> <PUBCHEM_IUPAC_OPENEYE_NAME>
[(2S,5R)-5-(6-aminopurin-9-yl)-3-fluoro-2,5-dihydrofuran-2-yl]methanol
> <PUBCHEM_IUPAC_CAS_NAME>
[(2S,5R)-5-(6-aminopurin-9-yl)-3-fluoro-2,5-dihydrofuran-2-yl]methanol
> <PUBCHEM_IUPAC_NAME_MARKUP>
[(2<I>S</I>,5<I>R</I>)-5-(6-aminopurin-9-yl)-3-fluoro-2,5-dihydrofuran-2-yl]methanol
> <PUBCHEM_IUPAC_NAME>
[(2S,5R)-5-(6-aminopurin-9-yl)-3-fluoro-2,5-dihydrofuran-2-yl]methanol
> <PUBCHEM_IUPAC_SYSTEMATIC_NAME>
[(2S,5R)-5-(6-aminopurin-9-yl)-3-fluoranyl-2,5-dihydrofuran-2-yl]methanol
> <PUBCHEM_IUPAC_TRADITIONAL_NAME>
[(2S,5R)-5-adenin-9-yl-3-fluoro-2,5-dihydrofuran-2-yl]methanol
> <PUBCHEM_IUPAC_INCHI>
InChI=1S/C10H10FN5O2/c11-5-1-7(18-6(5)2-17)16-4-15-8-9(12)13-3-14-10(8)16/h1,3-4,6-7,17H,2H2,(H2,12,13,14)/t6-,7+/m0/s1
> <PUBCHEM_IUPAC_INCHIKEY>
ZRZZDWJPUBTIIV-NKWVEPMBSA-N
> <PUBCHEM_XLOGP3>
-0.5
> <PUBCHEM_EXACT_MASS>
251.08185274
> <PUBCHEM_MOLECULAR_FORMULA>
C10H10FN5O2
> <PUBCHEM_MOLECULAR_WEIGHT>
251.22
> <PUBCHEM_OPENEYE_CAN_SMILES>
C1=C(C(OC1N2C=NC3=C(N=CN=C32)N)CO)F
> <PUBCHEM_OPENEYE_ISO_SMILES>
C1=C([C@@H](O[C@H]1N2C=NC3=C(N=CN=C32)N)CO)F
> <PUBCHEM_CACTVS_TPSA>
99.1
> <PUBCHEM_MONOISOTOPIC_WEIGHT>
251.08185274
> <PUBCHEM_TOTAL_CHARGE>
0
> <PUBCHEM_HEAVY_ATOM_COUNT>
18
> <PUBCHEM_ATOM_DEF_STEREO_COUNT>
2
> <PUBCHEM_ATOM_UDEF_STEREO_COUNT>
0
> <PUBCHEM_BOND_DEF_STEREO_COUNT>
0
> <PUBCHEM_BOND_UDEF_STEREO_COUNT>
0
> <PUBCHEM_ISOTOPIC_ATOM_COUNT>
0
> <PUBCHEM_COMPONENT_COUNT>
1
> <PUBCHEM_CACTVS_TAUTO_COUNT>
-1
> <PUBCHEM_COORDINATE_TYPE>
1
5
255
> <PUBCHEM_BONDANNOTATIONS>
10  14  6
13  16  8
16  17  8
4  13  8
4  15  8
9  4  5
5  15  8
5  16  8
6  13  8
6  18  8
7  17  8
7  18  8
$$$$
