509597
  -OEChem-10302200282D
 96101  0     1  0  0  0  0  0999 V2000
    9.3056   -0.0600    0.0000 S   0  0  0  0  0  0  0  0  0  0  0  0
   12.8499   -0.2553    0.0000 S   0  0  0  0  0  0  0  0  0  0  0  0
    4.6095    4.4788    0.0000 O   0  0  0  0  0  0  0  0  0  0  0  0
    2.8037    5.0610    0.0000 O   0  0  0  0  0  0  0  0  0  0  0  0
    4.1095    1.9400    0.0000 O   0  0  0  0  0  0  0  0  0  0  0  0
    6.7075    1.4400    0.0000 O   0  0  0  0  0  0  0  0  0  0  0  0
    5.8415    1.9400    0.0000 O   0  0  0  0  0  0  0  0  0  0  0  0
    8.8056   -0.9260    0.0000 O   0  0  0  0  0  0  0  0  0  0  0  0
    9.8056    0.8060    0.0000 O   0  0  0  0  0  0  0  0  0  0  0  0
   14.4335   -2.7921    0.0000 O   0  0  0  0  0  0  0  0  0  0  0  0
    4.9755    0.4400    0.0000 N   0  0  0  0  0  0  0  0  0  0  0  0
    8.4396    0.4400    0.0000 N   0  0  3  0  0  0  0  0  0  0  0  0
   16.4335   -2.7921    0.0000 N   0  0  0  0  0  0  0  0  0  0  0  0
   17.4335   -4.5241    0.0000 N   0  0  0  0  0  0  0  0  0  0  0  0
   12.8499   -1.8647    0.0000 N   0  0  0  0  0  0  0  0  0  0  0  0
   14.4335   -1.0600    0.0000 N   0  0  0  0  0  0  0  0  0  0  0  0
    3.3004    3.5278    0.0000 C   0  0  1  0  0  0  0  0  0  0  0  0
    3.6095    4.4788    0.0000 C   0  0  2  0  0  0  0  0  0  0  0  0
    4.1095    2.9400    0.0000 C   0  0  1  0  0  0  0  0  0  0  0  0
    2.3064    3.5304    0.0000 C   0  0  0  0  0  0  0  0  0  0  0  0
    4.9185    3.5278    0.0000 C   0  0  0  0  0  0  0  0  0  0  0  0
    2.0000    4.4760    0.0000 C   0  0  0  0  0  0  0  0  0  0  0  0
    5.8415   -0.0600    0.0000 C   0  0  2  0  0  0  0  0  0  0  0  0
    4.9755    1.4400    0.0000 C   0  0  0  0  0  0  0  0  0  0  0  0
    6.7075    0.4400    0.0000 C   0  0  1  0  0  0  0  0  0  0  0  0
    7.5736   -0.0600    0.0000 C   0  0  0  0  0  0  0  0  0  0  0  0
    5.8415   -1.0600    0.0000 C   0  0  0  0  0  0  0  0  0  0  0  0
    8.4396    1.4400    0.0000 C   0  0  0  0  0  0  0  0  0  0  0  0
    9.3056    1.9400    0.0000 C   0  0  0  0  0  0  0  0  0  0  0  0
    4.9755   -1.5600    0.0000 C   0  0  0  0  0  0  0  0  0  0  0  0
   10.1716   -0.5600    0.0000 C   0  0  0  0  0  0  0  0  0  0  0  0
    9.3056    2.9400    0.0000 C   0  0  0  0  0  0  0  0  0  0  0  0
   10.1716    1.4400    0.0000 C   0  0  0  0  0  0  0  0  0  0  0  0
    4.9755   -2.5600    0.0000 C   0  0  0  0  0  0  0  0  0  0  0  0
    4.1095   -1.0600    0.0000 C   0  0  0  0  0  0  0  0  0  0  0  0
   11.0377   -0.0600    0.0000 C   0  0  0  0  0  0  0  0  0  0  0  0
   10.1716   -1.5600    0.0000 C   0  0  0  0  0  0  0  0  0  0  0  0
   15.9335   -3.6581    0.0000 C   0  0  0  0  0  0  0  0  0  0  0  0
   17.4335   -2.7921    0.0000 C   0  0  0  0  0  0  0  0  0  0  0  0
   16.4335   -4.5241    0.0000 C   0  0  0  0  0  0  0  0  0  0  0  0
   17.9335   -3.6581    0.0000 C   0  0  0  0  0  0  0  0  0  0  0  0
   11.9037   -0.5600    0.0000 C   0  0  0  0  0  0  0  0  0  0  0  0
   15.9335   -1.9260    0.0000 C   0  0  0  0  0  0  0  0  0  0  0  0
    4.1095   -3.0600    0.0000 C   0  0  0  0  0  0  0  0  0  0  0  0
    3.2434   -1.5600    0.0000 C   0  0  0  0  0  0  0  0  0  0  0  0
   11.9037   -1.5600    0.0000 C   0  0  0  0  0  0  0  0  0  0  0  0
   11.0377   -2.0600    0.0000 C   0  0  0  0  0  0  0  0  0  0  0  0
    3.2434   -2.5600    0.0000 C   0  0  0  0  0  0  0  0  0  0  0  0
   14.9335   -1.9260    0.0000 C   0  0  0  0  0  0  0  0  0  0  0  0
   13.4335   -1.0600    0.0000 C   0  0  0  0  0  0  0  0  0  0  0  0
    3.0367    2.7197    0.0000 H   0  0  0  0  0  0  0  0  0  0  0  0
    3.8711    5.2876    0.0000 H   0  0  0  0  0  0  0  0  0  0  0  0
    3.5570    2.6585    0.0000 H   0  0  0  0  0  0  0  0  0  0  0  0
    1.6997    3.4023    0.0000 H   0  0  0  0  0  0  0  0  0  0  0  0
    2.3699    2.9136    0.0000 H   0  0  0  0  0  0  0  0  0  0  0  0
    5.2285    2.9908    0.0000 H   0  0  0  0  0  0  0  0  0  0  0  0
    5.4849    3.7800    0.0000 H   0  0  0  0  0  0  0  0  0  0  0  0
    1.6898    5.0129    0.0000 H   0  0  0  0  0  0  0  0  0  0  0  0
    1.4335    4.2240    0.0000 H   0  0  0  0  0  0  0  0  0  0  0  0
    5.8415    0.5600    0.0000 H   0  0  0  0  0  0  0  0  0  0  0  0
    7.2445    0.7500    0.0000 H   0  0  0  0  0  0  0  0  0  0  0  0
    4.4386    0.1300    0.0000 H   0  0  0  0  0  0  0  0  0  0  0  0
    7.1750   -0.5350    0.0000 H   0  0  0  0  0  0  0  0  0  0  0  0
    7.9721   -0.5350    0.0000 H   0  0  0  0  0  0  0  0  0  0  0  0
    6.0536   -1.6426    0.0000 H   0  0  0  0  0  0  0  0  0  0  0  0
    6.4521   -0.9523    0.0000 H   0  0  0  0  0  0  0  0  0  0  0  0
    8.2275    2.0226    0.0000 H   0  0  0  0  0  0  0  0  0  0  0  0
    7.8290    1.3323    0.0000 H   0  0  0  0  0  0  0  0  0  0  0  0
    8.7687    2.2500    0.0000 H   0  0  0  0  0  0  0  0  0  0  0  0
    7.2445    1.7500    0.0000 H   0  0  0  0  0  0  0  0  0  0  0  0
    9.9256    2.9400    0.0000 H   0  0  0  0  0  0  0  0  0  0  0  0
    9.3056    3.5600    0.0000 H   0  0  0  0  0  0  0  0  0  0  0  0
    8.6856    2.9400    0.0000 H   0  0  0  0  0  0  0  0  0  0  0  0
    9.8616    0.9031    0.0000 H   0  0  0  0  0  0  0  0  0  0  0  0
   10.7086    1.1300    0.0000 H   0  0  0  0  0  0  0  0  0  0  0  0
   10.4816    1.9769    0.0000 H   0  0  0  0  0  0  0  0  0  0  0  0
    5.5124   -2.8700    0.0000 H   0  0  0  0  0  0  0  0  0  0  0  0
    4.1095   -0.4400    0.0000 H   0  0  0  0  0  0  0  0  0  0  0  0
   11.0377    0.5600    0.0000 H   0  0  0  0  0  0  0  0  0  0  0  0
   15.4586   -3.2596    0.0000 H   0  0  0  0  0  0  0  0  0  0  0  0
   15.4586   -4.0566    0.0000 H   0  0  0  0  0  0  0  0  0  0  0  0
   18.0161   -2.5800    0.0000 H   0  0  0  0  0  0  0  0  0  0  0  0
   17.3259   -2.1815    0.0000 H   0  0  0  0  0  0  0  0  0  0  0  0
    9.6347   -1.8700    0.0000 H   0  0  0  0  0  0  0  0  0  0  0  0
   15.8509   -4.7362    0.0000 H   0  0  0  0  0  0  0  0  0  0  0  0
   16.5412   -5.1347    0.0000 H   0  0  0  0  0  0  0  0  0  0  0  0
   18.4085   -4.0566    0.0000 H   0  0  0  0  0  0  0  0  0  0  0  0
   18.4085   -3.2596    0.0000 H   0  0  0  0  0  0  0  0  0  0  0  0
   16.5161   -1.7140    0.0000 H   0  0  0  0  0  0  0  0  0  0  0  0
   15.8259   -1.3154    0.0000 H   0  0  0  0  0  0  0  0  0  0  0  0
   17.7435   -5.0610    0.0000 H   0  0  0  0  0  0  0  0  0  0  0  0
    4.1095   -3.6800    0.0000 H   0  0  0  0  0  0  0  0  0  0  0  0
    2.7065   -1.2500    0.0000 H   0  0  0  0  0  0  0  0  0  0  0  0
   11.0377   -2.6800    0.0000 H   0  0  0  0  0  0  0  0  0  0  0  0
    2.7065   -2.8700    0.0000 H   0  0  0  0  0  0  0  0  0  0  0  0
   14.7435   -0.5231    0.0000 H   0  0  0  0  0  0  0  0  0  0  0  0
  1  8  2  0  0  0  0
  1  9  2  0  0  0  0
  1 12  1  0  0  0  0
  1 31  1  0  0  0  0
  2 42  1  0  0  0  0
  2 50  1  0  0  0  0
  3 18  1  0  0  0  0
  3 21  1  0  0  0  0
  4 18  1  0  0  0  0
  4 22  1  0  0  0  0
 19  5  1  1  0  0  0
  5 24  1  0  0  0  0
 25  6  1  6  0  0  0
  6 70  1  0  0  0  0
  7 24  2  0  0  0  0
 10 49  2  0  0  0  0
 23 11  1  6  0  0  0
 11 24  1  0  0  0  0
 11 62  1  0  0  0  0
 12 26  1  0  0  0  0
 12 28  1  0  0  0  0
 13 38  1  0  0  0  0
 13 39  1  0  0  0  0
 13 43  1  0  0  0  0
 14 40  1  0  0  0  0
 14 41  1  0  0  0  0
 14 91  1  0  0  0  0
 15 46  1  0  0  0  0
 15 50  2  0  0  0  0
 16 49  1  0  0  0  0
 16 50  1  0  0  0  0
 16 96  1  0  0  0  0
 17 18  1  0  0  0  0
 17 19  1  0  0  0  0
 17 20  1  0  0  0  0
 17 51  1  6  0  0  0
 18 52  1  6  0  0  0
 19 21  1  0  0  0  0
 19 53  1  0  0  0  0
 20 22  1  0  0  0  0
 20 54  1  0  0  0  0
 20 55  1  0  0  0  0
 21 56  1  0  0  0  0
 21 57  1  0  0  0  0
 22 58  1  0  0  0  0
 22 59  1  0  0  0  0
 23 25  1  0  0  0  0
 23 27  1  0  0  0  0
 23 60  1  0  0  0  0
 25 26  1  0  0  0  0
 25 61  1  0  0  0  0
 26 63  1  0  0  0  0
 26 64  1  0  0  0  0
 27 30  1  0  0  0  0
 27 65  1  0  0  0  0
 27 66  1  0  0  0  0
 28 29  1  0  0  0  0
 28 67  1  0  0  0  0
 28 68  1  0  0  0  0
 29 32  1  0  0  0  0
 29 33  1  0  0  0  0
 29 69  1  0  0  0  0
 30 34  2  0  0  0  0
 30 35  1  0  0  0  0
 31 36  2  0  0  0  0
 31 37  1  0  0  0  0
 32 71  1  0  0  0  0
 32 72  1  0  0  0  0
 32 73  1  0  0  0  0
 33 74  1  0  0  0  0
 33 75  1  0  0  0  0
 33 76  1  0  0  0  0
 34 44  1  0  0  0  0
 34 77  1  0  0  0  0
 35 45  2  0  0  0  0
 35 78  1  0  0  0  0
 36 42  1  0  0  0  0
 36 79  1  0  0  0  0
 37 47  2  0  0  0  0
 37 84  1  0  0  0  0
 38 40  1  0  0  0  0
 38 80  1  0  0  0  0
 38 81  1  0  0  0  0
 39 41  1  0  0  0  0
 39 82  1  0  0  0  0
 39 83  1  0  0  0  0
 40 85  1  0  0  0  0
 40 86  1  0  0  0  0
 41 87  1  0  0  0  0
 41 88  1  0  0  0  0
 42 46  2  0  0  0  0
 43 49  1  0  0  0  0
 43 89  1  0  0  0  0
 43 90  1  0  0  0  0
 44 48  2  0  0  0  0
 44 92  1  0  0  0  0
 45 48  1  0  0  0  0
 45 93  1  0  0  0  0
 46 47  1  0  0  0  0
 47 94  1  0  0  0  0
 48 95  1  0  0  0  0
M  END
> <PUBCHEM_COMPOUND_CID>
509597
> <PUBCHEM_COMPOUND_CANONICALIZED>
1
> <PUBCHEM_CACTVS_COMPLEXITY>
1230
> <PUBCHEM_CACTVS_HBOND_ACCEPTOR>
13
> <PUBCHEM_CACTVS_HBOND_DONOR>
4
> <PUBCHEM_CACTVS_ROTATABLE_BOND>
15
> <PUBCHEM_CACTVS_SUBSKEYS>
AAADcfB/vABgAAAAAAAAAAAAAAAAAWJEgAA8YIAAAAASAFgB9AAAHgQQSAAADTzx3gcz2bPIFgqsAyVyfHDD8LlhCjlJmLy4ZJmbcKLg2bG+YAhtlwLeyCfQ4KgOAAQAAEAAAQAACAAAgAACAAAAAAAAAA==
> <PUBCHEM_IUPAC_OPENEYE_NAME>
[(3aR,4S,6aS)-2,3,3a,4,5,6a-hexahydrofuro[2,3-b]furan-4-yl] N-[(1S,2R)-1-benzyl-2-hydroxy-3-[isobutyl-[[2-[(2-piperazin-1-ylacetyl)amino]-1,3-benzothiazol-6-yl]sulfonyl]amino]propyl]carbamate
> <PUBCHEM_IUPAC_CAS_NAME>
N-[(2S,3R)-3-hydroxy-4-[2-methylpropyl-[[2-[[1-oxo-2-(1-piperazinyl)ethyl]amino]-1,3-benzothiazol-6-yl]sulfonyl]amino]-1-phenylbutan-2-yl]carbamic acid [(3aR,4S,6aS)-2,3,3a,4,5,6a-hexahydrofuro[2,3-b]furan-4-yl] ester
> <PUBCHEM_IUPAC_NAME_MARKUP>
[(3<I>a</I><I>R</I>,4<I>S</I>,6<I>a</I><I>S</I>)-2,3,3<I>a</I>,4,5,6<I>a</I>-hexahydrofuro[2,3-b]furan-4-yl] <I>N</I>-[(2<I>S</I>,3<I>R</I>)-3-hydroxy-4-[2-methylpropyl-[[2-[(2-piperazin-1-ylacetyl)amino]-1,3-benzothiazol-6-yl]sulfonyl]amino]-1-phenylbutan-2-yl]carbamate
> <PUBCHEM_IUPAC_NAME>
[(3aR,4S,6aS)-2,3,3a,4,5,6a-hexahydrofuro[2,3-b]furan-4-yl] N-[(2S,3R)-3-hydroxy-4-[2-methylpropyl-[[2-[(2-piperazin-1-ylacetyl)amino]-1,3-benzothiazol-6-yl]sulfonyl]amino]-1-phenylbutan-2-yl]carbamate
> <PUBCHEM_IUPAC_SYSTEMATIC_NAME>
[(3aR,4S,6aS)-2,3,3a,4,5,6a-hexahydrofuro[2,3-b]furan-4-yl] N-[(2S,3R)-4-[2-methylpropyl-[[2-(2-piperazin-1-ylethanoylamino)-1,3-benzothiazol-6-yl]sulfonyl]amino]-3-oxidanyl-1-phenyl-butan-2-yl]carbamate
> <PUBCHEM_IUPAC_TRADITIONAL_NAME>
N-[(1S,2R)-1-benzyl-2-hydroxy-3-[isobutyl-[[2-[(2-piperazinoacetyl)amino]-1,3-benzothiazol-6-yl]sulfonyl]amino]propyl]carbamic acid [(3aR,4S,6aS)-2,3,3a,4,5,6a-hexahydrofuro[2,3-b]furan-4-yl] ester
> <PUBCHEM_IUPAC_INCHI>
InChI=1S/C34H46N6O8S2/c1-22(2)18-40(50(44,45)24-8-9-26-30(17-24)49-33(36-26)38-31(42)20-39-13-11-35-12-14-39)19-28(41)27(16-23-6-4-3-5-7-23)37-34(43)48-29-21-47-32-25(29)10-15-46-32/h3-9,17,22,25,27-29,32,35,41H,10-16,18-21H2,1-2H3,(H,37,43)(H,36,38,42)/t25-,27+,28-,29-,32+/m1/s1
> <PUBCHEM_IUPAC_INCHIKEY>
FEYFBVMWYJDLMX-GSDXJCRYSA-N
> <PUBCHEM_XLOGP3_AA>
3
> <PUBCHEM_EXACT_MASS>
730.28185479
> <PUBCHEM_MOLECULAR_FORMULA>
C34H46N6O8S2
> <PUBCHEM_MOLECULAR_WEIGHT>
730.9
> <PUBCHEM_OPENEYE_CAN_SMILES>
CC(C)CN(CC(C(CC1=CC=CC=C1)NC(=O)OC2COC3C2CCO3)O)S(=O)(=O)C4=CC5=C(C=C4)N=C(S5)NC(=O)CN6CCNCC6
> <PUBCHEM_OPENEYE_ISO_SMILES>
CC(C)CN(C[C@H]([C@H](CC1=CC=CC=C1)NC(=O)O[C@@H]2CO[C@H]3[C@@H]2CCO3)O)S(=O)(=O)C4=CC5=C(C=C4)N=C(S5)NC(=O)CN6CCNCC6
> <PUBCHEM_CACTVS_TPSA>
208
> <PUBCHEM_MONOISOTOPIC_WEIGHT>
730.28185479
> <PUBCHEM_TOTAL_CHARGE>
0
> <PUBCHEM_HEAVY_ATOM_COUNT>
50
> <PUBCHEM_ATOM_DEF_STEREO_COUNT>
5
> <PUBCHEM_ATOM_UDEF_STEREO_COUNT>
0
> <PUBCHEM_BOND_DEF_STEREO_COUNT>
0
> <PUBCHEM_BOND_UDEF_STEREO_COUNT>
0
> <PUBCHEM_ISOTOPIC_ATOM_COUNT>
0
> <PUBCHEM_COMPONENT_COUNT>
1
> <PUBCHEM_CACTVS_TAUTO_COUNT>
-1
> <PUBCHEM_COORDINATE_TYPE>
1
5
255
> <PUBCHEM_BONDANNOTATIONS>
23  11  6
15  46  8
15  50  8
17  51  6
18  52  6
2  42  8
2  50  8
30  34  8
30  35  8
31  36  8
31  37  8
34  44  8
35  45  8
36  42  8
37  47  8
42  46  8
44  48  8
45  48  8
46  47  8
19  5  5
25  6  6
$$$$
