509651
  -OEChem-10302200282D
 91 95  0     1  0  0  0  0  0999 V2000
    9.6448   -0.6506    0.0000 S   0  0  0  0  0  0  0  0  0  0  0  0
   13.1891   -0.8459    0.0000 S   0  0  0  0  0  0  0  0  0  0  0  0
    7.0468    0.8494    0.0000 O   0  0  0  0  0  0  0  0  0  0  0  0
    9.1448   -1.5166    0.0000 O   0  0  0  0  0  0  0  0  0  0  0  0
   10.1449    0.2154    0.0000 O   0  0  0  0  0  0  0  0  0  0  0  0
    6.1808    1.3494    0.0000 O   0  0  0  0  0  0  0  0  0  0  0  0
    4.4487    2.3494    0.0000 O   0  0  0  0  0  0  0  0  0  0  0  0
    2.0000    3.1858    0.0000 O   0  0  0  0  0  0  0  0  0  0  0  0
   16.7728   -3.3827    0.0000 N   0  0  0  0  0  0  0  0  0  0  0  0
    8.7788   -0.1506    0.0000 N   0  0  3  0  0  0  0  0  0  0  0  0
    5.3147   -0.1506    0.0000 N   0  0  0  0  0  0  0  0  0  0  0  0
   14.7728   -1.6506    0.0000 N   0  0  0  0  0  0  0  0  0  0  0  0
   13.1891   -2.4554    0.0000 N   0  0  0  0  0  0  0  0  0  0  0  0
    2.6691    2.4426    0.0000 N   0  0  0  0  0  0  0  0  0  0  0  0
   16.3660   -4.2962    0.0000 C   0  0  0  0  0  0  0  0  0  0  0  0
   17.7673   -3.4872    0.0000 C   0  0  0  0  0  0  0  0  0  0  0  0
   17.1092   -4.9654    0.0000 C   0  0  0  0  0  0  0  0  0  0  0  0
   17.9752   -4.4654    0.0000 C   0  0  0  0  0  0  0  0  0  0  0  0
    7.0468   -0.1506    0.0000 C   0  0  2  0  0  0  0  0  0  0  0  0
    7.9128   -0.6506    0.0000 C   0  0  0  0  0  0  0  0  0  0  0  0
    6.1808   -0.6506    0.0000 C   0  0  2  0  0  0  0  0  0  0  0  0
   16.2728   -2.5166    0.0000 C   0  0  0  0  0  0  0  0  0  0  0  0
    8.7788    0.8494    0.0000 C   0  0  0  0  0  0  0  0  0  0  0  0
    9.6448    1.3494    0.0000 C   0  0  0  0  0  0  0  0  0  0  0  0
    6.1808   -1.6506    0.0000 C   0  0  0  0  0  0  0  0  0  0  0  0
   15.2728   -2.5166    0.0000 C   0  0  0  0  0  0  0  0  0  0  0  0
   10.5109   -1.1506    0.0000 C   0  0  0  0  0  0  0  0  0  0  0  0
    9.6448    2.3494    0.0000 C   0  0  0  0  0  0  0  0  0  0  0  0
   10.5109    0.8494    0.0000 C   0  0  0  0  0  0  0  0  0  0  0  0
    5.3147   -2.1506    0.0000 C   0  0  0  0  0  0  0  0  0  0  0  0
   11.3769   -0.6506    0.0000 C   0  0  0  0  0  0  0  0  0  0  0  0
   10.5109   -2.1506    0.0000 C   0  0  0  0  0  0  0  0  0  0  0  0
   12.2429   -1.1506    0.0000 C   0  0  0  0  0  0  0  0  0  0  0  0
   13.7728   -1.6506    0.0000 C   0  0  0  0  0  0  0  0  0  0  0  0
    5.3147    0.8494    0.0000 C   0  0  0  0  0  0  0  0  0  0  0  0
   12.2429   -2.1506    0.0000 C   0  0  0  0  0  0  0  0  0  0  0  0
   11.3769   -2.6506    0.0000 C   0  0  0  0  0  0  0  0  0  0  0  0
    5.3147   -3.1506    0.0000 C   0  0  0  0  0  0  0  0  0  0  0  0
    4.4487   -1.6506    0.0000 C   0  0  0  0  0  0  0  0  0  0  0  0
    4.4487    1.3494    0.0000 C   0  0  0  0  0  0  0  0  0  0  0  0
    4.4487   -3.6506    0.0000 C   0  0  0  0  0  0  0  0  0  0  0  0
    3.5827   -2.1506    0.0000 C   0  0  0  0  0  0  0  0  0  0  0  0
    3.5827   -3.1506    0.0000 C   0  0  0  0  0  0  0  0  0  0  0  0
    3.5827    2.8494    0.0000 C   0  0  0  0  0  0  0  0  0  0  0  0
    3.4782    3.8439    0.0000 C   0  0  0  0  0  0  0  0  0  0  0  0
    2.5000    4.0518    0.0000 C   0  0  0  0  0  0  0  0  0  0  0  0
    2.0933    4.9654    0.0000 C   0  0  0  0  0  0  0  0  0  0  0  0
   15.8291   -3.9862    0.0000 H   0  0  0  0  0  0  0  0  0  0  0  0
   16.0016   -4.7978    0.0000 H   0  0  0  0  0  0  0  0  0  0  0  0
   18.3839   -3.4224    0.0000 H   0  0  0  0  0  0  0  0  0  0  0  0
   17.7673   -2.8672    0.0000 H   0  0  0  0  0  0  0  0  0  0  0  0
   16.6484   -5.3802    0.0000 H   0  0  0  0  0  0  0  0  0  0  0  0
   17.4736   -5.4669    0.0000 H   0  0  0  0  0  0  0  0  0  0  0  0
   18.2274   -5.0318    0.0000 H   0  0  0  0  0  0  0  0  0  0  0  0
   18.5648   -4.2738    0.0000 H   0  0  0  0  0  0  0  0  0  0  0  0
    7.5837    0.1594    0.0000 H   0  0  0  0  0  0  0  0  0  0  0  0
    7.5143   -1.1256    0.0000 H   0  0  0  0  0  0  0  0  0  0  0  0
    8.3113   -1.1256    0.0000 H   0  0  0  0  0  0  0  0  0  0  0  0
    6.1808   -0.0306    0.0000 H   0  0  0  0  0  0  0  0  0  0  0  0
   16.8554   -2.3046    0.0000 H   0  0  0  0  0  0  0  0  0  0  0  0
   16.1651   -1.9061    0.0000 H   0  0  0  0  0  0  0  0  0  0  0  0
    8.5668    1.4320    0.0000 H   0  0  0  0  0  0  0  0  0  0  0  0
    8.1682    0.7417    0.0000 H   0  0  0  0  0  0  0  0  0  0  0  0
    9.1079    1.6594    0.0000 H   0  0  0  0  0  0  0  0  0  0  0  0
    6.3928   -2.2332    0.0000 H   0  0  0  0  0  0  0  0  0  0  0  0
    6.7913   -1.5430    0.0000 H   0  0  0  0  0  0  0  0  0  0  0  0
   14.6902   -2.7287    0.0000 H   0  0  0  0  0  0  0  0  0  0  0  0
   15.3804   -3.1272    0.0000 H   0  0  0  0  0  0  0  0  0  0  0  0
    4.7778   -0.4606    0.0000 H   0  0  0  0  0  0  0  0  0  0  0  0
   10.2649    2.3494    0.0000 H   0  0  0  0  0  0  0  0  0  0  0  0
    9.6448    2.9694    0.0000 H   0  0  0  0  0  0  0  0  0  0  0  0
    9.0248    2.3494    0.0000 H   0  0  0  0  0  0  0  0  0  0  0  0
   10.2009    0.3124    0.0000 H   0  0  0  0  0  0  0  0  0  0  0  0
   11.0478    0.5394    0.0000 H   0  0  0  0  0  0  0  0  0  0  0  0
   10.8209    1.3863    0.0000 H   0  0  0  0  0  0  0  0  0  0  0  0
    7.5837    1.1594    0.0000 H   0  0  0  0  0  0  0  0  0  0  0  0
   15.0828   -1.1137    0.0000 H   0  0  0  0  0  0  0  0  0  0  0  0
   11.3769   -0.0306    0.0000 H   0  0  0  0  0  0  0  0  0  0  0  0
    9.9739   -2.4606    0.0000 H   0  0  0  0  0  0  0  0  0  0  0  0
   11.3769   -3.2706    0.0000 H   0  0  0  0  0  0  0  0  0  0  0  0
    5.8517   -3.4606    0.0000 H   0  0  0  0  0  0  0  0  0  0  0  0
    4.4487   -1.0306    0.0000 H   0  0  0  0  0  0  0  0  0  0  0  0
    3.8381    1.4570    0.0000 H   0  0  0  0  0  0  0  0  0  0  0  0
    4.2366    0.7668    0.0000 H   0  0  0  0  0  0  0  0  0  0  0  0
    4.4487   -4.2706    0.0000 H   0  0  0  0  0  0  0  0  0  0  0  0
    3.0457   -1.8406    0.0000 H   0  0  0  0  0  0  0  0  0  0  0  0
    3.0457   -3.4606    0.0000 H   0  0  0  0  0  0  0  0  0  0  0  0
    3.9389    4.2588    0.0000 H   0  0  0  0  0  0  0  0  0  0  0  0
    2.6597    5.2175    0.0000 H   0  0  0  0  0  0  0  0  0  0  0  0
    1.8411    5.5318    0.0000 H   0  0  0  0  0  0  0  0  0  0  0  0
    1.5269    4.7132    0.0000 H   0  0  0  0  0  0  0  0  0  0  0  0
  1  4  2  0  0  0  0
  1  5  2  0  0  0  0
  1 10  1  0  0  0  0
  1 27  1  0  0  0  0
  2 33  1  0  0  0  0
  2 34  1  0  0  0  0
 19  3  1  6  0  0  0
  3 76  1  0  0  0  0
  6 35  2  0  0  0  0
  7 40  1  0  0  0  0
  7 44  1  0  0  0  0
  8 14  1  0  0  0  0
  8 46  1  0  0  0  0
  9 15  1  0  0  0  0
  9 16  1  0  0  0  0
  9 22  1  0  0  0  0
 10 20  1  0  0  0  0
 10 23  1  0  0  0  0
 21 11  1  6  0  0  0
 11 35  1  0  0  0  0
 11 69  1  0  0  0  0
 12 26  1  0  0  0  0
 12 34  1  0  0  0  0
 12 77  1  0  0  0  0
 13 34  2  0  0  0  0
 13 36  1  0  0  0  0
 14 44  2  0  0  0  0
 15 17  1  0  0  0  0
 15 48  1  0  0  0  0
 15 49  1  0  0  0  0
 16 18  1  0  0  0  0
 16 50  1  0  0  0  0
 16 51  1  0  0  0  0
 17 18  1  0  0  0  0
 17 52  1  0  0  0  0
 17 53  1  0  0  0  0
 18 54  1  0  0  0  0
 18 55  1  0  0  0  0
 19 20  1  0  0  0  0
 19 21  1  0  0  0  0
 19 56  1  0  0  0  0
 20 57  1  0  0  0  0
 20 58  1  0  0  0  0
 21 25  1  0  0  0  0
 21 59  1  0  0  0  0
 22 26  1  0  0  0  0
 22 60  1  0  0  0  0
 22 61  1  0  0  0  0
 23 24  1  0  0  0  0
 23 62  1  0  0  0  0
 23 63  1  0  0  0  0
 24 28  1  0  0  0  0
 24 29  1  0  0  0  0
 24 64  1  0  0  0  0
 25 30  1  0  0  0  0
 25 65  1  0  0  0  0
 25 66  1  0  0  0  0
 26 67  1  0  0  0  0
 26 68  1  0  0  0  0
 27 31  2  0  0  0  0
 27 32  1  0  0  0  0
 28 70  1  0  0  0  0
 28 71  1  0  0  0  0
 28 72  1  0  0  0  0
 29 73  1  0  0  0  0
 29 74  1  0  0  0  0
 29 75  1  0  0  0  0
 30 38  2  0  0  0  0
 30 39  1  0  0  0  0
 31 33  1  0  0  0  0
 31 78  1  0  0  0  0
 32 37  2  0  0  0  0
 32 79  1  0  0  0  0
 33 36  2  0  0  0  0
 35 40  1  0  0  0  0
 36 37  1  0  0  0  0
 37 80  1  0  0  0  0
 38 41  1  0  0  0  0
 38 81  1  0  0  0  0
 39 42  2  0  0  0  0
 39 82  1  0  0  0  0
 40 83  1  0  0  0  0
 40 84  1  0  0  0  0
 41 43  2  0  0  0  0
 41 85  1  0  0  0  0
 42 43  1  0  0  0  0
 42 86  1  0  0  0  0
 43 87  1  0  0  0  0
 44 45  1  0  0  0  0
 45 46  2  0  0  0  0
 45 88  1  0  0  0  0
 46 47  1  0  0  0  0
 47 89  1  0  0  0  0
 47 90  1  0  0  0  0
 47 91  1  0  0  0  0
M  END
> <PUBCHEM_COMPOUND_CID>
509651
> <PUBCHEM_COMPOUND_CANONICALIZED>
1
> <PUBCHEM_CACTVS_COMPLEXITY>
1070
> <PUBCHEM_CACTVS_HBOND_ACCEPTOR>
12
> <PUBCHEM_CACTVS_HBOND_DONOR>
3
> <PUBCHEM_CACTVS_ROTATABLE_BOND>
17
> <PUBCHEM_CACTVS_SUBSKEYS>
AAADcfB/uABgAAAAAAAAAAAAAAAAAWLFgAAwYAAAAAAAAFgB/AAAHgQUSAAADTzh3gYz1bPYFgqtA6VydnLD+LllKjlpmL1+bNqOd67k+Z+feOjvth7Y6GeQwKAOAAQAAEAAAQAACAAAgAACAAAAAAAAAA==
> <PUBCHEM_IUPAC_OPENEYE_NAME>
N-[(1S,2R)-1-benzyl-2-hydroxy-3-[isobutyl-[[2-(2-pyrrolidin-1-ylethylamino)-1,3-benzothiazol-6-yl]sulfonyl]amino]propyl]-2-(5-methylisoxazol-3-yl)oxy-acetamide
> <PUBCHEM_IUPAC_CAS_NAME>
N-[(2S,3R)-3-hydroxy-4-[2-methylpropyl-[[2-[2-(1-pyrrolidinyl)ethylamino]-1,3-benzothiazol-6-yl]sulfonyl]amino]-1-phenylbutan-2-yl]-2-[(5-methyl-3-isoxazolyl)oxy]acetamide
> <PUBCHEM_IUPAC_NAME_MARKUP>
<I>N</I>-[(2<I>S</I>,3<I>R</I>)-3-hydroxy-4-[2-methylpropyl-[[2-(2-pyrrolidin-1-ylethylamino)-1,3-benzothiazol-6-yl]sulfonyl]amino]-1-phenylbutan-2-yl]-2-[(5-methyl-1,2-oxazol-3-yl)oxy]acetamide
> <PUBCHEM_IUPAC_NAME>
N-[(2S,3R)-3-hydroxy-4-[2-methylpropyl-[[2-(2-pyrrolidin-1-ylethylamino)-1,3-benzothiazol-6-yl]sulfonyl]amino]-1-phenylbutan-2-yl]-2-[(5-methyl-1,2-oxazol-3-yl)oxy]acetamide
> <PUBCHEM_IUPAC_SYSTEMATIC_NAME>
2-[(5-methyl-1,2-oxazol-3-yl)oxy]-N-[(2S,3R)-4-[2-methylpropyl-[[2-(2-pyrrolidin-1-ylethylamino)-1,3-benzothiazol-6-yl]sulfonyl]amino]-3-oxidanyl-1-phenyl-butan-2-yl]ethanamide
> <PUBCHEM_IUPAC_TRADITIONAL_NAME>
N-[(1S,2R)-1-benzyl-2-hydroxy-3-[isobutyl-[[2-(2-pyrrolidinoethylamino)-1,3-benzothiazol-6-yl]sulfonyl]amino]propyl]-2-(5-methylisoxazol-3-yl)oxy-acetamide
> <PUBCHEM_IUPAC_INCHI>
InChI=1S/C33H44N6O6S2/c1-23(2)20-39(47(42,43)26-11-12-27-30(19-26)46-33(36-27)34-13-16-38-14-7-8-15-38)21-29(40)28(18-25-9-5-4-6-10-25)35-31(41)22-44-32-17-24(3)45-37-32/h4-6,9-12,17,19,23,28-29,40H,7-8,13-16,18,20-22H2,1-3H3,(H,34,36)(H,35,41)/t28-,29+/m0/s1
> <PUBCHEM_IUPAC_INCHIKEY>
GCIJKQLZMMXGPF-URLMMPGGSA-N
> <PUBCHEM_XLOGP3_AA>
5.3
> <PUBCHEM_EXACT_MASS>
684.27637549
> <PUBCHEM_MOLECULAR_FORMULA>
C33H44N6O6S2
> <PUBCHEM_MOLECULAR_WEIGHT>
684.9
> <PUBCHEM_OPENEYE_CAN_SMILES>
CC1=CC(=NO1)OCC(=O)NC(CC2=CC=CC=C2)C(CN(CC(C)C)S(=O)(=O)C3=CC4=C(C=C3)N=C(S4)NCCN5CCCC5)O
> <PUBCHEM_OPENEYE_ISO_SMILES>
CC1=CC(=NO1)OCC(=O)N[C@@H](CC2=CC=CC=C2)[C@@H](CN(CC(C)C)S(=O)(=O)C3=CC4=C(C=C3)N=C(S4)NCCN5CCCC5)O
> <PUBCHEM_CACTVS_TPSA>
187
> <PUBCHEM_MONOISOTOPIC_WEIGHT>
684.27637549
> <PUBCHEM_TOTAL_CHARGE>
0
> <PUBCHEM_HEAVY_ATOM_COUNT>
47
> <PUBCHEM_ATOM_DEF_STEREO_COUNT>
2
> <PUBCHEM_ATOM_UDEF_STEREO_COUNT>
0
> <PUBCHEM_BOND_DEF_STEREO_COUNT>
0
> <PUBCHEM_BOND_UDEF_STEREO_COUNT>
0
> <PUBCHEM_ISOTOPIC_ATOM_COUNT>
0
> <PUBCHEM_COMPONENT_COUNT>
1
> <PUBCHEM_CACTVS_TAUTO_COUNT>
-1
> <PUBCHEM_COORDINATE_TYPE>
1
5
255
> <PUBCHEM_BONDANNOTATIONS>
21  11  6
13  34  8
13  36  8
14  44  8
2  33  8
2  34  8
27  31  8
27  32  8
19  3  6
30  38  8
30  39  8
31  33  8
32  37  8
33  36  8
36  37  8
38  41  8
39  42  8
41  43  8
42  43  8
44  45  8
45  46  8
8  14  8
8  46  8
$$$$
