509623
  -OEChem-10302200282D
 85 88  0     1  0  0  0  0  0999 V2000
    8.2839   -0.8749    0.0000 S   0  0  0  0  0  0  0  0  0  0  0  0
   11.8282   -1.0702    0.0000 S   0  0  0  0  0  0  0  0  0  0  0  0
    5.6859    0.6251    0.0000 O   0  0  0  0  0  0  0  0  0  0  0  0
    3.0878    1.1251    0.0000 O   0  0  0  0  0  0  0  0  0  0  0  0
    7.7839   -1.7409    0.0000 O   0  0  0  0  0  0  0  0  0  0  0  0
    8.7839   -0.0089    0.0000 O   0  0  0  0  0  0  0  0  0  0  0  0
    4.8198    1.1251    0.0000 O   0  0  0  0  0  0  0  0  0  0  0  0
    2.0000    4.4730    0.0000 O   0  0  0  0  0  0  0  0  0  0  0  0
   13.4118   -3.6069    0.0000 O   0  0  0  0  0  0  0  0  0  0  0  0
    7.4179   -0.3749    0.0000 N   0  0  3  0  0  0  0  0  0  0  0  0
    3.9538   -0.3749    0.0000 N   0  0  0  0  0  0  0  0  0  0  0  0
    3.5878    3.6640    0.0000 N   0  0  0  0  0  0  0  0  0  0  0  0
   11.8282   -2.6796    0.0000 N   0  0  0  0  0  0  0  0  0  0  0  0
   13.4118   -1.8749    0.0000 N   0  0  0  0  0  0  0  0  0  0  0  0
   15.4118   -3.6069    0.0000 N   0  0  0  0  0  0  0  0  0  0  0  0
    5.6859   -0.3749    0.0000 C   0  0  1  0  0  0  0  0  0  0  0  0
    4.8198   -0.8749    0.0000 C   0  0  2  0  0  0  0  0  0  0  0  0
    6.5519   -0.8749    0.0000 C   0  0  0  0  0  0  0  0  0  0  0  0
    7.4179    0.6251    0.0000 C   0  0  0  0  0  0  0  0  0  0  0  0
    8.2839    1.1251    0.0000 C   0  0  0  0  0  0  0  0  0  0  0  0
    4.8198   -1.8749    0.0000 C   0  0  0  0  0  0  0  0  0  0  0  0
    9.1500   -1.3749    0.0000 C   0  0  0  0  0  0  0  0  0  0  0  0
    3.9538   -2.3749    0.0000 C   0  0  0  0  0  0  0  0  0  0  0  0
    8.2839    2.1251    0.0000 C   0  0  0  0  0  0  0  0  0  0  0  0
    9.1500    0.6251    0.0000 C   0  0  0  0  0  0  0  0  0  0  0  0
    3.0878    2.1251    0.0000 C   0  0  2  0  0  0  0  0  0  0  0  0
    3.9538    0.6251    0.0000 C   0  0  0  0  0  0  0  0  0  0  0  0
    3.8968    2.7129    0.0000 C   0  0  0  0  0  0  0  0  0  0  0  0
    2.2788    2.7129    0.0000 C   0  0  0  0  0  0  0  0  0  0  0  0
   10.0160   -0.8749    0.0000 C   0  0  0  0  0  0  0  0  0  0  0  0
    9.1500   -2.3749    0.0000 C   0  0  0  0  0  0  0  0  0  0  0  0
    3.9538   -3.3749    0.0000 C   0  0  0  0  0  0  0  0  0  0  0  0
    3.0878   -1.8749    0.0000 C   0  0  0  0  0  0  0  0  0  0  0  0
    2.5878    3.6640    0.0000 C   0  0  0  0  0  0  0  0  0  0  0  0
   10.8820   -1.3749    0.0000 C   0  0  0  0  0  0  0  0  0  0  0  0
   10.0160   -2.8749    0.0000 C   0  0  0  0  0  0  0  0  0  0  0  0
   10.8820   -2.3749    0.0000 C   0  0  0  0  0  0  0  0  0  0  0  0
    3.0878   -3.8749    0.0000 C   0  0  0  0  0  0  0  0  0  0  0  0
    2.2218   -2.3749    0.0000 C   0  0  0  0  0  0  0  0  0  0  0  0
    2.2218   -3.3749    0.0000 C   0  0  0  0  0  0  0  0  0  0  0  0
   12.4118   -1.8749    0.0000 C   0  0  0  0  0  0  0  0  0  0  0  0
   13.9118   -2.7409    0.0000 C   0  0  0  0  0  0  0  0  0  0  0  0
   14.9118   -2.7409    0.0000 C   0  0  0  0  0  0  0  0  0  0  0  0
   16.4118   -3.6069    0.0000 C   0  0  0  0  0  0  0  0  0  0  0  0
   14.9118   -4.4730    0.0000 C   0  0  0  0  0  0  0  0  0  0  0  0
    6.2228   -0.0649    0.0000 H   0  0  0  0  0  0  0  0  0  0  0  0
    4.8198   -0.2549    0.0000 H   0  0  0  0  0  0  0  0  0  0  0  0
    6.1534   -1.3498    0.0000 H   0  0  0  0  0  0  0  0  0  0  0  0
    6.9504   -1.3498    0.0000 H   0  0  0  0  0  0  0  0  0  0  0  0
    7.2059    1.2077    0.0000 H   0  0  0  0  0  0  0  0  0  0  0  0
    6.8073    0.5174    0.0000 H   0  0  0  0  0  0  0  0  0  0  0  0
    7.7470    1.4351    0.0000 H   0  0  0  0  0  0  0  0  0  0  0  0
    5.0319   -2.4575    0.0000 H   0  0  0  0  0  0  0  0  0  0  0  0
    5.4304   -1.7672    0.0000 H   0  0  0  0  0  0  0  0  0  0  0  0
    3.4169   -0.6849    0.0000 H   0  0  0  0  0  0  0  0  0  0  0  0
    8.9039    2.1251    0.0000 H   0  0  0  0  0  0  0  0  0  0  0  0
    8.2839    2.7451    0.0000 H   0  0  0  0  0  0  0  0  0  0  0  0
    7.6639    2.1251    0.0000 H   0  0  0  0  0  0  0  0  0  0  0  0
    8.8400    0.0882    0.0000 H   0  0  0  0  0  0  0  0  0  0  0  0
    9.6869    0.3151    0.0000 H   0  0  0  0  0  0  0  0  0  0  0  0
    9.4600    1.1620    0.0000 H   0  0  0  0  0  0  0  0  0  0  0  0
    6.2228    0.9351    0.0000 H   0  0  0  0  0  0  0  0  0  0  0  0
    3.6402    1.8436    0.0000 H   0  0  0  0  0  0  0  0  0  0  0  0
    4.2068    2.1760    0.0000 H   0  0  0  0  0  0  0  0  0  0  0  0
    4.4632    2.9651    0.0000 H   0  0  0  0  0  0  0  0  0  0  0  0
    1.7124    2.9651    0.0000 H   0  0  0  0  0  0  0  0  0  0  0  0
    1.9688    2.1760    0.0000 H   0  0  0  0  0  0  0  0  0  0  0  0
   10.0160   -0.2549    0.0000 H   0  0  0  0  0  0  0  0  0  0  0  0
    8.6130   -2.6849    0.0000 H   0  0  0  0  0  0  0  0  0  0  0  0
    4.4908   -3.6849    0.0000 H   0  0  0  0  0  0  0  0  0  0  0  0
    3.0878   -1.2549    0.0000 H   0  0  0  0  0  0  0  0  0  0  0  0
    3.9522    4.1655    0.0000 H   0  0  0  0  0  0  0  0  0  0  0  0
   10.0160   -3.4949    0.0000 H   0  0  0  0  0  0  0  0  0  0  0  0
    3.0878   -4.4949    0.0000 H   0  0  0  0  0  0  0  0  0  0  0  0
    1.6848   -2.0649    0.0000 H   0  0  0  0  0  0  0  0  0  0  0  0
    1.6848   -3.6849    0.0000 H   0  0  0  0  0  0  0  0  0  0  0  0
   13.7218   -1.3380    0.0000 H   0  0  0  0  0  0  0  0  0  0  0  0
   15.4945   -2.5289    0.0000 H   0  0  0  0  0  0  0  0  0  0  0  0
   14.8042   -2.1303    0.0000 H   0  0  0  0  0  0  0  0  0  0  0  0
   16.4118   -4.2269    0.0000 H   0  0  0  0  0  0  0  0  0  0  0  0
   17.0318   -3.6069    0.0000 H   0  0  0  0  0  0  0  0  0  0  0  0
   16.4118   -2.9869    0.0000 H   0  0  0  0  0  0  0  0  0  0  0  0
   14.3749   -4.1630    0.0000 H   0  0  0  0  0  0  0  0  0  0  0  0
   14.6018   -5.0099    0.0000 H   0  0  0  0  0  0  0  0  0  0  0  0
   15.4488   -4.7830    0.0000 H   0  0  0  0  0  0  0  0  0  0  0  0
  1  5  2  0  0  0  0
  1  6  2  0  0  0  0
  1 10  1  0  0  0  0
  1 22  1  0  0  0  0
  2 35  1  0  0  0  0
  2 41  1  0  0  0  0
 16  3  1  6  0  0  0
  3 62  1  0  0  0  0
 26  4  1  1  0  0  0
  4 27  1  0  0  0  0
  7 27  2  0  0  0  0
  8 34  2  0  0  0  0
  9 42  2  0  0  0  0
 10 18  1  0  0  0  0
 10 19  1  0  0  0  0
 17 11  1  6  0  0  0
 11 27  1  0  0  0  0
 11 55  1  0  0  0  0
 12 28  1  0  0  0  0
 12 34  1  0  0  0  0
 12 72  1  0  0  0  0
 13 37  1  0  0  0  0
 13 41  2  0  0  0  0
 14 41  1  0  0  0  0
 14 42  1  0  0  0  0
 14 77  1  0  0  0  0
 15 43  1  0  0  0  0
 15 44  1  0  0  0  0
 15 45  1  0  0  0  0
 16 17  1  0  0  0  0
 16 18  1  0  0  0  0
 16 46  1  0  0  0  0
 17 21  1  0  0  0  0
 17 47  1  0  0  0  0
 18 48  1  0  0  0  0
 18 49  1  0  0  0  0
 19 20  1  0  0  0  0
 19 50  1  0  0  0  0
 19 51  1  0  0  0  0
 20 24  1  0  0  0  0
 20 25  1  0  0  0  0
 20 52  1  0  0  0  0
 21 23  1  0  0  0  0
 21 53  1  0  0  0  0
 21 54  1  0  0  0  0
 22 30  2  0  0  0  0
 22 31  1  0  0  0  0
 23 32  2  0  0  0  0
 23 33  1  0  0  0  0
 24 56  1  0  0  0  0
 24 57  1  0  0  0  0
 24 58  1  0  0  0  0
 25 59  1  0  0  0  0
 25 60  1  0  0  0  0
 25 61  1  0  0  0  0
 26 28  1  0  0  0  0
 26 29  1  0  0  0  0
 26 63  1  0  0  0  0
 28 64  1  0  0  0  0
 28 65  1  0  0  0  0
 29 34  1  0  0  0  0
 29 66  1  0  0  0  0
 29 67  1  0  0  0  0
 30 35  1  0  0  0  0
 30 68  1  0  0  0  0
 31 36  2  0  0  0  0
 31 69  1  0  0  0  0
 32 38  1  0  0  0  0
 32 70  1  0  0  0  0
 33 39  2  0  0  0  0
 33 71  1  0  0  0  0
 35 37  2  0  0  0  0
 36 37  1  0  0  0  0
 36 73  1  0  0  0  0
 38 40  2  0  0  0  0
 38 74  1  0  0  0  0
 39 40  1  0  0  0  0
 39 75  1  0  0  0  0
 40 76  1  0  0  0  0
 42 43  1  0  0  0  0
 43 78  1  0  0  0  0
 43 79  1  0  0  0  0
 44 80  1  0  0  0  0
 44 81  1  0  0  0  0
 44 82  1  0  0  0  0
 45 83  1  0  0  0  0
 45 84  1  0  0  0  0
 45 85  1  0  0  0  0
M  END
> <PUBCHEM_COMPOUND_CID>
509623
> <PUBCHEM_COMPOUND_CANONICALIZED>
1
> <PUBCHEM_CACTVS_COMPLEXITY>
1110
> <PUBCHEM_CACTVS_HBOND_ACCEPTOR>
11
> <PUBCHEM_CACTVS_HBOND_DONOR>
4
> <PUBCHEM_CACTVS_ROTATABLE_BOND>
15
> <PUBCHEM_CACTVS_SUBSKEYS>
AAADcfB7uABgAAAAAAAAAAAAAAAAAWLAAAAwYAAAAAAAAFgB9AAAHgQQSAAADTzh3gYz2bPIFgqsAyVyfHDD8LlhCjlJmL24ZJmKcLbg2bGdYAhutwLYyCeUwKAOAAQAAEAAAQAACAAAgAACAAAAAAAAAA==
> <PUBCHEM_IUPAC_OPENEYE_NAME>
[(3S)-5-oxopyrrolidin-3-yl] N-[(1S,2R)-1-benzyl-3-[[2-[[2-(dimethylamino)acetyl]amino]-1,3-benzothiazol-6-yl]sulfonyl-isobutyl-amino]-2-hydroxy-propyl]carbamate
> <PUBCHEM_IUPAC_CAS_NAME>
N-[(2S,3R)-4-[[2-[[2-(dimethylamino)-1-oxoethyl]amino]-1,3-benzothiazol-6-yl]sulfonyl-(2-methylpropyl)amino]-3-hydroxy-1-phenylbutan-2-yl]carbamic acid [(3S)-5-oxo-3-pyrrolidinyl] ester
> <PUBCHEM_IUPAC_NAME_MARKUP>
[(3<I>S</I>)-5-oxopyrrolidin-3-yl] <I>N</I>-[(2<I>S</I>,3<I>R</I>)-4-[[2-[[2-(dimethylamino)acetyl]amino]-1,3-benzothiazol-6-yl]sulfonyl-(2-methylpropyl)amino]-3-hydroxy-1-phenylbutan-2-yl]carbamate
> <PUBCHEM_IUPAC_NAME>
[(3S)-5-oxopyrrolidin-3-yl] N-[(2S,3R)-4-[[2-[[2-(dimethylamino)acetyl]amino]-1,3-benzothiazol-6-yl]sulfonyl-(2-methylpropyl)amino]-3-hydroxy-1-phenylbutan-2-yl]carbamate
> <PUBCHEM_IUPAC_SYSTEMATIC_NAME>
[(3S)-5-oxidanylidenepyrrolidin-3-yl] N-[(2S,3R)-4-[[2-[2-(dimethylamino)ethanoylamino]-1,3-benzothiazol-6-yl]sulfonyl-(2-methylpropyl)amino]-3-oxidanyl-1-phenyl-butan-2-yl]carbamate
> <PUBCHEM_IUPAC_TRADITIONAL_NAME>
N-[(1S,2R)-1-benzyl-3-[[2-[[2-(dimethylamino)acetyl]amino]-1,3-benzothiazol-6-yl]sulfonyl-isobutyl-amino]-2-hydroxy-propyl]carbamic acid [(3S)-5-ketopyrrolidin-3-yl] ester
> <PUBCHEM_IUPAC_INCHI>
InChI=1S/C30H40N6O7S2/c1-19(2)16-36(45(41,42)22-10-11-23-26(14-22)44-29(32-23)34-28(39)18-35(3)4)17-25(37)24(12-20-8-6-5-7-9-20)33-30(40)43-21-13-27(38)31-15-21/h5-11,14,19,21,24-25,37H,12-13,15-18H2,1-4H3,(H,31,38)(H,33,40)(H,32,34,39)/t21-,24-,25+/m0/s1
> <PUBCHEM_IUPAC_INCHIKEY>
RDNPUKIWHJBUDN-GVXSCFBNSA-N
> <PUBCHEM_XLOGP3_AA>
2.6
> <PUBCHEM_EXACT_MASS>
660.23998998
> <PUBCHEM_MOLECULAR_FORMULA>
C30H40N6O7S2
> <PUBCHEM_MOLECULAR_WEIGHT>
660.8
> <PUBCHEM_OPENEYE_CAN_SMILES>
CC(C)CN(CC(C(CC1=CC=CC=C1)NC(=O)OC2CC(=O)NC2)O)S(=O)(=O)C3=CC4=C(C=C3)N=C(S4)NC(=O)CN(C)C
> <PUBCHEM_OPENEYE_ISO_SMILES>
CC(C)CN(C[C@H]([C@H](CC1=CC=CC=C1)NC(=O)O[C@H]2CC(=O)NC2)O)S(=O)(=O)C3=CC4=C(C=C3)N=C(S4)NC(=O)CN(C)C
> <PUBCHEM_CACTVS_TPSA>
207
> <PUBCHEM_MONOISOTOPIC_WEIGHT>
660.23998998
> <PUBCHEM_TOTAL_CHARGE>
0
> <PUBCHEM_HEAVY_ATOM_COUNT>
45
> <PUBCHEM_ATOM_DEF_STEREO_COUNT>
3
> <PUBCHEM_ATOM_UDEF_STEREO_COUNT>
0
> <PUBCHEM_BOND_DEF_STEREO_COUNT>
0
> <PUBCHEM_BOND_UDEF_STEREO_COUNT>
0
> <PUBCHEM_ISOTOPIC_ATOM_COUNT>
0
> <PUBCHEM_COMPONENT_COUNT>
1
> <PUBCHEM_CACTVS_TAUTO_COUNT>
-1
> <PUBCHEM_COORDINATE_TYPE>
1
5
255
> <PUBCHEM_BONDANNOTATIONS>
17  11  6
13  37  8
13  41  8
2  35  8
2  41  8
22  30  8
22  31  8
23  32  8
23  33  8
16  3  6
30  35  8
31  36  8
32  38  8
33  39  8
35  37  8
36  37  8
38  40  8
39  40  8
26  4  5
$$$$
