509667
  -OEChem-10302200282D
115119  0     1  0  0  0  0  0999 V2000
   14.1244   -0.0926    0.0000 S   0  0  0  0  0  0  0  0  0  0  0  0
   17.6687   -0.2879    0.0000 S   0  0  0  0  0  0  0  0  0  0  0  0
    2.8660    4.4074    0.0000 F   0  0  0  0  0  0  0  0  0  0  0  0
   11.5263    1.4074    0.0000 O   0  0  0  0  0  0  0  0  0  0  0  0
   10.6603    1.9074    0.0000 O   0  0  0  0  0  0  0  0  0  0  0  0
   13.6244   -0.9587    0.0000 O   0  0  0  0  0  0  0  0  0  0  0  0
   14.6244    0.7734    0.0000 O   0  0  0  0  0  0  0  0  0  0  0  0
    7.1962    2.9074    0.0000 O   0  0  0  0  0  0  0  0  0  0  0  0
   13.2583    0.4074    0.0000 N   0  0  3  0  0  0  0  0  0  0  0  0
    9.7942    0.4074    0.0000 N   0  0  0  0  0  0  0  0  0  0  0  0
   21.2523   -2.8247    0.0000 N   0  0  0  0  0  0  0  0  0  0  0  0
    8.0622    1.4074    0.0000 N   0  0  0  0  0  0  0  0  0  0  0  0
   19.2523   -1.0926    0.0000 N   0  0  0  0  0  0  0  0  0  0  0  0
   17.6687   -1.8974    0.0000 N   0  0  0  0  0  0  0  0  0  0  0  0
    5.4641    1.9074    0.0000 N   0  0  0  0  0  0  0  0  0  0  0  0
    8.9282    2.9074    0.0000 C   0  0  0  0  0  0  0  0  0  0  0  0
   10.6603   -0.0926    0.0000 C   0  0  2  0  0  0  0  0  0  0  0  0
   11.5263    0.4074    0.0000 C   0  0  1  0  0  0  0  0  0  0  0  0
    8.9282    1.9074    0.0000 C   0  0  1  0  0  0  0  0  0  0  0  0
   12.3923   -0.0926    0.0000 C   0  0  0  0  0  0  0  0  0  0  0  0
   10.6603   -1.0926    0.0000 C   0  0  0  0  0  0  0  0  0  0  0  0
    9.7942    1.4074    0.0000 C   0  0  0  0  0  0  0  0  0  0  0  0
   20.8455   -3.7382    0.0000 C   0  0  0  0  0  0  0  0  0  0  0  0
   22.2468   -2.9292    0.0000 C   0  0  0  0  0  0  0  0  0  0  0  0
   21.5887   -4.4074    0.0000 C   0  0  0  0  0  0  0  0  0  0  0  0
   22.4547   -3.9074    0.0000 C   0  0  0  0  0  0  0  0  0  0  0  0
   13.2583    1.4074    0.0000 C   0  0  0  0  0  0  0  0  0  0  0  0
    8.9282    3.9074    0.0000 C   0  0  0  0  0  0  0  0  0  0  0  0
    7.9282    2.9074    0.0000 C   0  0  0  0  0  0  0  0  0  0  0  0
    9.9282    2.9074    0.0000 C   0  0  0  0  0  0  0  0  0  0  0  0
   14.1244    1.9074    0.0000 C   0  0  0  0  0  0  0  0  0  0  0  0
   20.7523   -1.9587    0.0000 C   0  0  0  0  0  0  0  0  0  0  0  0
    9.7942   -1.5926    0.0000 C   0  0  0  0  0  0  0  0  0  0  0  0
   19.7523   -1.9587    0.0000 C   0  0  0  0  0  0  0  0  0  0  0  0
   14.9904   -0.5926    0.0000 C   0  0  0  0  0  0  0  0  0  0  0  0
   14.1244    2.9074    0.0000 C   0  0  0  0  0  0  0  0  0  0  0  0
   14.9904    1.4074    0.0000 C   0  0  0  0  0  0  0  0  0  0  0  0
    7.1962    1.9074    0.0000 C   0  0  0  0  0  0  0  0  0  0  0  0
   15.8564   -0.0926    0.0000 C   0  0  0  0  0  0  0  0  0  0  0  0
    9.7942   -2.5926    0.0000 C   0  0  0  0  0  0  0  0  0  0  0  0
    8.9282   -1.0926    0.0000 C   0  0  0  0  0  0  0  0  0  0  0  0
   14.9904   -1.5926    0.0000 C   0  0  0  0  0  0  0  0  0  0  0  0
   16.7224   -0.5926    0.0000 C   0  0  0  0  0  0  0  0  0  0  0  0
    6.3301    1.4074    0.0000 C   0  0  0  0  0  0  0  0  0  0  0  0
   16.7224   -1.5926    0.0000 C   0  0  0  0  0  0  0  0  0  0  0  0
   18.2523   -1.0926    0.0000 C   0  0  0  0  0  0  0  0  0  0  0  0
   15.8564   -2.0926    0.0000 C   0  0  0  0  0  0  0  0  0  0  0  0
    8.9282   -3.0926    0.0000 C   0  0  0  0  0  0  0  0  0  0  0  0
    8.0622   -1.5926    0.0000 C   0  0  0  0  0  0  0  0  0  0  0  0
    8.0622   -2.5926    0.0000 C   0  0  0  0  0  0  0  0  0  0  0  0
    4.5981    1.4074    0.0000 C   0  0  0  0  0  0  0  0  0  0  0  0
    3.7320    1.9074    0.0000 C   0  0  0  0  0  0  0  0  0  0  0  0
    3.7320    2.9074    0.0000 C   0  0  0  0  0  0  0  0  0  0  0  0
    2.8660    1.4074    0.0000 C   0  0  0  0  0  0  0  0  0  0  0  0
    2.8660    3.4074    0.0000 C   0  0  0  0  0  0  0  0  0  0  0  0
    2.0000    1.9074    0.0000 C   0  0  0  0  0  0  0  0  0  0  0  0
    2.0000    2.9074    0.0000 C   0  0  0  0  0  0  0  0  0  0  0  0
   10.6603    0.5274    0.0000 H   0  0  0  0  0  0  0  0  0  0  0  0
   12.0632    0.7174    0.0000 H   0  0  0  0  0  0  0  0  0  0  0  0
    8.9282    1.2874    0.0000 H   0  0  0  0  0  0  0  0  0  0  0  0
   11.9938   -0.5676    0.0000 H   0  0  0  0  0  0  0  0  0  0  0  0
   12.7908   -0.5676    0.0000 H   0  0  0  0  0  0  0  0  0  0  0  0
   10.8723   -1.6752    0.0000 H   0  0  0  0  0  0  0  0  0  0  0  0
   11.2708   -0.9850    0.0000 H   0  0  0  0  0  0  0  0  0  0  0  0
    9.2573    0.0974    0.0000 H   0  0  0  0  0  0  0  0  0  0  0  0
   20.3086   -3.4282    0.0000 H   0  0  0  0  0  0  0  0  0  0  0  0
   20.4811   -4.2398    0.0000 H   0  0  0  0  0  0  0  0  0  0  0  0
   22.8634   -2.8644    0.0000 H   0  0  0  0  0  0  0  0  0  0  0  0
   22.2468   -2.3092    0.0000 H   0  0  0  0  0  0  0  0  0  0  0  0
   21.1279   -4.8222    0.0000 H   0  0  0  0  0  0  0  0  0  0  0  0
   21.9531   -4.9090    0.0000 H   0  0  0  0  0  0  0  0  0  0  0  0
   22.7069   -4.4738    0.0000 H   0  0  0  0  0  0  0  0  0  0  0  0
   23.0443   -3.7158    0.0000 H   0  0  0  0  0  0  0  0  0  0  0  0
   13.0463    1.9900    0.0000 H   0  0  0  0  0  0  0  0  0  0  0  0
   12.6477    1.2997    0.0000 H   0  0  0  0  0  0  0  0  0  0  0  0
    9.5482    3.9074    0.0000 H   0  0  0  0  0  0  0  0  0  0  0  0
    8.9282    4.5274    0.0000 H   0  0  0  0  0  0  0  0  0  0  0  0
    8.3082    3.9074    0.0000 H   0  0  0  0  0  0  0  0  0  0  0  0
    7.9282    3.5274    0.0000 H   0  0  0  0  0  0  0  0  0  0  0  0
    7.3082    2.9074    0.0000 H   0  0  0  0  0  0  0  0  0  0  0  0
    7.9282    2.2874    0.0000 H   0  0  0  0  0  0  0  0  0  0  0  0
    9.9282    2.2874    0.0000 H   0  0  0  0  0  0  0  0  0  0  0  0
   10.5482    2.9074    0.0000 H   0  0  0  0  0  0  0  0  0  0  0  0
    9.9282    3.5274    0.0000 H   0  0  0  0  0  0  0  0  0  0  0  0
   13.5874    2.2174    0.0000 H   0  0  0  0  0  0  0  0  0  0  0  0
   21.3349   -1.7466    0.0000 H   0  0  0  0  0  0  0  0  0  0  0  0
   20.6446   -1.3481    0.0000 H   0  0  0  0  0  0  0  0  0  0  0  0
    8.0622    0.7874    0.0000 H   0  0  0  0  0  0  0  0  0  0  0  0
   19.1697   -2.1707    0.0000 H   0  0  0  0  0  0  0  0  0  0  0  0
   19.8599   -2.5692    0.0000 H   0  0  0  0  0  0  0  0  0  0  0  0
   12.0632    1.7174    0.0000 H   0  0  0  0  0  0  0  0  0  0  0  0
   14.7444    2.9074    0.0000 H   0  0  0  0  0  0  0  0  0  0  0  0
   14.1244    3.5274    0.0000 H   0  0  0  0  0  0  0  0  0  0  0  0
   13.5044    2.9074    0.0000 H   0  0  0  0  0  0  0  0  0  0  0  0
   14.6804    0.8704    0.0000 H   0  0  0  0  0  0  0  0  0  0  0  0
   15.5273    1.0974    0.0000 H   0  0  0  0  0  0  0  0  0  0  0  0
   15.3004    1.9443    0.0000 H   0  0  0  0  0  0  0  0  0  0  0  0
   15.8564    0.5274    0.0000 H   0  0  0  0  0  0  0  0  0  0  0  0
   10.3312   -2.9026    0.0000 H   0  0  0  0  0  0  0  0  0  0  0  0
    8.9282   -0.4726    0.0000 H   0  0  0  0  0  0  0  0  0  0  0  0
   19.5623   -0.5557    0.0000 H   0  0  0  0  0  0  0  0  0  0  0  0
   14.4534   -1.9026    0.0000 H   0  0  0  0  0  0  0  0  0  0  0  0
    5.9316    0.9324    0.0000 H   0  0  0  0  0  0  0  0  0  0  0  0
    6.7287    0.9324    0.0000 H   0  0  0  0  0  0  0  0  0  0  0  0
   15.8564   -2.7126    0.0000 H   0  0  0  0  0  0  0  0  0  0  0  0
    8.9282   -3.7126    0.0000 H   0  0  0  0  0  0  0  0  0  0  0  0
    7.5252   -1.2826    0.0000 H   0  0  0  0  0  0  0  0  0  0  0  0
    7.5252   -2.9026    0.0000 H   0  0  0  0  0  0  0  0  0  0  0  0
    5.4641    2.5274    0.0000 H   0  0  0  0  0  0  0  0  0  0  0  0
    4.1996    0.9324    0.0000 H   0  0  0  0  0  0  0  0  0  0  0  0
    4.9966    0.9324    0.0000 H   0  0  0  0  0  0  0  0  0  0  0  0
    4.2690    3.2174    0.0000 H   0  0  0  0  0  0  0  0  0  0  0  0
    2.8660    0.7874    0.0000 H   0  0  0  0  0  0  0  0  0  0  0  0
    1.4631    1.5974    0.0000 H   0  0  0  0  0  0  0  0  0  0  0  0
    1.4631    3.2174    0.0000 H   0  0  0  0  0  0  0  0  0  0  0  0
  1  6  2  0  0  0  0
  1  7  2  0  0  0  0
  1  9  1  0  0  0  0
  1 35  1  0  0  0  0
  2 43  1  0  0  0  0
  2 46  1  0  0  0  0
  3 55  1  0  0  0  0
 18  4  1  6  0  0  0
  4 91  1  0  0  0  0
  5 22  2  0  0  0  0
  8 38  2  0  0  0  0
  9 20  1  0  0  0  0
  9 27  1  0  0  0  0
 17 10  1  6  0  0  0
 10 22  1  0  0  0  0
 10 65  1  0  0  0  0
 11 23  1  0  0  0  0
 11 24  1  0  0  0  0
 11 32  1  0  0  0  0
 19 12  1  1  0  0  0
 12 38  1  0  0  0  0
 12 88  1  0  0  0  0
 13 34  1  0  0  0  0
 13 46  1  0  0  0  0
 13101  1  0  0  0  0
 14 45  1  0  0  0  0
 14 46  2  0  0  0  0
 15 44  1  0  0  0  0
 15 51  1  0  0  0  0
 15109  1  0  0  0  0
 16 19  1  0  0  0  0
 16 28  1  0  0  0  0
 16 29  1  0  0  0  0
 16 30  1  0  0  0  0
 17 18  1  0  0  0  0
 17 21  1  0  0  0  0
 17 58  1  0  0  0  0
 18 20  1  0  0  0  0
 18 59  1  0  0  0  0
 19 22  1  0  0  0  0
 19 60  1  0  0  0  0
 20 61  1  0  0  0  0
 20 62  1  0  0  0  0
 21 33  1  0  0  0  0
 21 63  1  0  0  0  0
 21 64  1  0  0  0  0
 23 25  1  0  0  0  0
 23 66  1  0  0  0  0
 23 67  1  0  0  0  0
 24 26  1  0  0  0  0
 24 68  1  0  0  0  0
 24 69  1  0  0  0  0
 25 26  1  0  0  0  0
 25 70  1  0  0  0  0
 25 71  1  0  0  0  0
 26 72  1  0  0  0  0
 26 73  1  0  0  0  0
 27 31  1  0  0  0  0
 27 74  1  0  0  0  0
 27 75  1  0  0  0  0
 28 76  1  0  0  0  0
 28 77  1  0  0  0  0
 28 78  1  0  0  0  0
 29 79  1  0  0  0  0
 29 80  1  0  0  0  0
 29 81  1  0  0  0  0
 30 82  1  0  0  0  0
 30 83  1  0  0  0  0
 30 84  1  0  0  0  0
 31 36  1  0  0  0  0
 31 37  1  0  0  0  0
 31 85  1  0  0  0  0
 32 34  1  0  0  0  0
 32 86  1  0  0  0  0
 32 87  1  0  0  0  0
 33 40  2  0  0  0  0
 33 41  1  0  0  0  0
 34 89  1  0  0  0  0
 34 90  1  0  0  0  0
 35 39  2  0  0  0  0
 35 42  1  0  0  0  0
 36 92  1  0  0  0  0
 36 93  1  0  0  0  0
 36 94  1  0  0  0  0
 37 95  1  0  0  0  0
 37 96  1  0  0  0  0
 37 97  1  0  0  0  0
 38 44  1  0  0  0  0
 39 43  1  0  0  0  0
 39 98  1  0  0  0  0
 40 48  1  0  0  0  0
 40 99  1  0  0  0  0
 41 49  2  0  0  0  0
 41100  1  0  0  0  0
 42 47  2  0  0  0  0
 42102  1  0  0  0  0
 43 45  2  0  0  0  0
 44103  1  0  0  0  0
 44104  1  0  0  0  0
 45 47  1  0  0  0  0
 47105  1  0  0  0  0
 48 50  2  0  0  0  0
 48106  1  0  0  0  0
 49 50  1  0  0  0  0
 49107  1  0  0  0  0
 50108  1  0  0  0  0
 51 52  1  0  0  0  0
 51110  1  0  0  0  0
 51111  1  0  0  0  0
 52 53  2  0  0  0  0
 52 54  1  0  0  0  0
 53 55  1  0  0  0  0
 53112  1  0  0  0  0
 54 56  2  0  0  0  0
 54113  1  0  0  0  0
 55 57  2  0  0  0  0
 56 57  1  0  0  0  0
 56114  1  0  0  0  0
 57115  1  0  0  0  0
M  END
> <PUBCHEM_COMPOUND_CID>
509667
> <PUBCHEM_COMPOUND_CANONICALIZED>
1
> <PUBCHEM_CACTVS_COMPLEXITY>
1350
> <PUBCHEM_CACTVS_HBOND_ACCEPTOR>
12
> <PUBCHEM_CACTVS_HBOND_DONOR>
5
> <PUBCHEM_CACTVS_ROTATABLE_BOND>
21
> <PUBCHEM_CACTVS_SUBSKEYS>
AAADcfB/uQBgAAAAAAAAAAAAAAAAAWLAAAAwYMAAAAAAAFgB9AAAHwQQSAAADzzh3g4z0bPIEgqsAyVydHDD8LlhCjlJmL24ZJiKcLLg2bGUYAhslgLYyCeQwKAPAAQAAEAAAQAACAAAgAACAAAAAAAAAA==
> <PUBCHEM_IUPAC_OPENEYE_NAME>
(2S)-N-[(1S,2R)-1-benzyl-2-hydroxy-3-[isobutyl-[[2-(2-pyrrolidin-1-ylethylamino)-1,3-benzothiazol-6-yl]sulfonyl]amino]propyl]-2-[[2-[(3-fluorophenyl)methylamino]acetyl]amino]-3,3-dimethyl-butanamide
> <PUBCHEM_IUPAC_CAS_NAME>
(2S)-2-[[2-[(3-fluorophenyl)methylamino]-1-oxoethyl]amino]-N-[(2S,3R)-3-hydroxy-4-[2-methylpropyl-[[2-[2-(1-pyrrolidinyl)ethylamino]-1,3-benzothiazol-6-yl]sulfonyl]amino]-1-phenylbutan-2-yl]-3,3-dimethylbutanamide
> <PUBCHEM_IUPAC_NAME_MARKUP>
(2<I>S</I>)-2-[[2-[(3-fluorophenyl)methylamino]acetyl]amino]-<I>N</I>-[(2<I>S</I>,3<I>R</I>)-3-hydroxy-4-[2-methylpropyl-[[2-(2-pyrrolidin-1-ylethylamino)-1,3-benzothiazol-6-yl]sulfonyl]amino]-1-phenylbutan-2-yl]-3,3-dimethylbutanamide
> <PUBCHEM_IUPAC_NAME>
(2S)-2-[[2-[(3-fluorophenyl)methylamino]acetyl]amino]-N-[(2S,3R)-3-hydroxy-4-[2-methylpropyl-[[2-(2-pyrrolidin-1-ylethylamino)-1,3-benzothiazol-6-yl]sulfonyl]amino]-1-phenylbutan-2-yl]-3,3-dimethylbutanamide
> <PUBCHEM_IUPAC_SYSTEMATIC_NAME>
(2S)-2-[2-[(3-fluorophenyl)methylamino]ethanoylamino]-3,3-dimethyl-N-[(2S,3R)-4-[2-methylpropyl-[[2-(2-pyrrolidin-1-ylethylamino)-1,3-benzothiazol-6-yl]sulfonyl]amino]-3-oxidanyl-1-phenyl-butan-2-yl]butanamide
> <PUBCHEM_IUPAC_TRADITIONAL_NAME>
(2S)-N-[(1S,2R)-1-benzyl-2-hydroxy-3-[isobutyl-[[2-(2-pyrrolidinoethylamino)-1,3-benzothiazol-6-yl]sulfonyl]amino]propyl]-2-[[2-[(3-fluorobenzyl)amino]acetyl]amino]-3,3-dimethyl-butyramide
> <PUBCHEM_IUPAC_INCHI>
InChI=1S/C42H58FN7O5S2/c1-29(2)27-50(57(54,55)33-16-17-34-37(24-33)56-41(47-34)45-18-21-49-19-9-10-20-49)28-36(51)35(23-30-12-7-6-8-13-30)46-40(53)39(42(3,4)5)48-38(52)26-44-25-31-14-11-15-32(43)22-31/h6-8,11-17,22,24,29,35-36,39,44,51H,9-10,18-21,23,25-28H2,1-5H3,(H,45,47)(H,46,53)(H,48,52)/t35-,36+,39+/m0/s1
> <PUBCHEM_IUPAC_INCHIKEY>
ANILTVOYGYDEJP-RETAKORUSA-N
> <PUBCHEM_XLOGP3_AA>
6.7
> <PUBCHEM_EXACT_MASS>
823.39248849
> <PUBCHEM_MOLECULAR_FORMULA>
C42H58FN7O5S2
> <PUBCHEM_MOLECULAR_WEIGHT>
824.1
> <PUBCHEM_OPENEYE_CAN_SMILES>
CC(C)CN(CC(C(CC1=CC=CC=C1)NC(=O)C(C(C)(C)C)NC(=O)CNCC2=CC(=CC=C2)F)O)S(=O)(=O)C3=CC4=C(C=C3)N=C(S4)NCCN5CCCC5
> <PUBCHEM_OPENEYE_ISO_SMILES>
CC(C)CN(C[C@H]([C@H](CC1=CC=CC=C1)NC(=O)[C@H](C(C)(C)C)NC(=O)CNCC2=CC(=CC=C2)F)O)S(=O)(=O)C3=CC4=C(C=C3)N=C(S4)NCCN5CCCC5
> <PUBCHEM_CACTVS_TPSA>
193
> <PUBCHEM_MONOISOTOPIC_WEIGHT>
823.39248849
> <PUBCHEM_TOTAL_CHARGE>
0
> <PUBCHEM_HEAVY_ATOM_COUNT>
57
> <PUBCHEM_ATOM_DEF_STEREO_COUNT>
3
> <PUBCHEM_ATOM_UDEF_STEREO_COUNT>
0
> <PUBCHEM_BOND_DEF_STEREO_COUNT>
0
> <PUBCHEM_BOND_UDEF_STEREO_COUNT>
0
> <PUBCHEM_ISOTOPIC_ATOM_COUNT>
0
> <PUBCHEM_COMPONENT_COUNT>
1
> <PUBCHEM_CACTVS_TAUTO_COUNT>
-1
> <PUBCHEM_COORDINATE_TYPE>
1
5
255
> <PUBCHEM_BONDANNOTATIONS>
17  10  6
19  12  5
14  45  8
14  46  8
2  43  8
2  46  8
33  40  8
33  41  8
35  39  8
35  42  8
39  43  8
18  4  6
40  48  8
41  49  8
42  47  8
43  45  8
45  47  8
48  50  8
49  50  8
52  53  8
52  54  8
53  55  8
54  56  8
55  57  8
56  57  8
$$$$
