509657
  -OEChem-10302200282D
 98102  0     1  0  0  0  0  0999 V2000
   11.5263   -0.5926    0.0000 S   0  0  0  0  0  0  0  0  0  0  0  0
   15.0706   -0.7879    0.0000 S   0  0  0  0  0  0  0  0  0  0  0  0
    8.9282    0.9074    0.0000 O   0  0  0  0  0  0  0  0  0  0  0  0
   11.0263   -1.4587    0.0000 O   0  0  0  0  0  0  0  0  0  0  0  0
   12.0263    0.2734    0.0000 O   0  0  0  0  0  0  0  0  0  0  0  0
   16.6542   -3.3247    0.0000 O   0  0  0  0  0  0  0  0  0  0  0  0
    8.0622    1.4074    0.0000 O   0  0  0  0  0  0  0  0  0  0  0  0
    6.3301    2.4074    0.0000 O   0  0  0  0  0  0  0  0  0  0  0  0
   10.6603   -0.0926    0.0000 N   0  0  3  0  0  0  0  0  0  0  0  0
   18.6542   -3.3247    0.0000 N   0  0  0  0  0  0  0  0  0  0  0  0
    7.1962   -0.0926    0.0000 N   0  0  0  0  0  0  0  0  0  0  0  0
   16.6542   -1.5926    0.0000 N   0  0  0  0  0  0  0  0  0  0  0  0
   15.0706   -2.3974    0.0000 N   0  0  0  0  0  0  0  0  0  0  0  0
    2.0000    4.9074    0.0000 N   0  0  0  0  0  0  0  0  0  0  0  0
    8.9282   -0.0926    0.0000 C   0  0  2  0  0  0  0  0  0  0  0  0
    9.7942   -0.5926    0.0000 C   0  0  0  0  0  0  0  0  0  0  0  0
    8.0622   -0.5926    0.0000 C   0  0  2  0  0  0  0  0  0  0  0  0
   18.9906   -4.9074    0.0000 C   0  0  0  0  0  0  0  0  0  0  0  0
   19.8566   -4.4074    0.0000 C   0  0  0  0  0  0  0  0  0  0  0  0
   10.6603    0.9074    0.0000 C   0  0  0  0  0  0  0  0  0  0  0  0
   18.2474   -4.2382    0.0000 C   0  0  0  0  0  0  0  0  0  0  0  0
   19.6487   -3.4292    0.0000 C   0  0  0  0  0  0  0  0  0  0  0  0
   11.5263    1.4074    0.0000 C   0  0  0  0  0  0  0  0  0  0  0  0
    8.0622   -1.5926    0.0000 C   0  0  0  0  0  0  0  0  0  0  0  0
   18.1542   -2.4587    0.0000 C   0  0  0  0  0  0  0  0  0  0  0  0
   12.3923   -1.0926    0.0000 C   0  0  0  0  0  0  0  0  0  0  0  0
   11.5263    2.4074    0.0000 C   0  0  0  0  0  0  0  0  0  0  0  0
   12.3923    0.9074    0.0000 C   0  0  0  0  0  0  0  0  0  0  0  0
    7.1962   -2.0926    0.0000 C   0  0  0  0  0  0  0  0  0  0  0  0
   17.1542   -2.4587    0.0000 C   0  0  0  0  0  0  0  0  0  0  0  0
   13.2583   -0.5926    0.0000 C   0  0  0  0  0  0  0  0  0  0  0  0
    7.1962    0.9074    0.0000 C   0  0  0  0  0  0  0  0  0  0  0  0
   12.3923   -2.0926    0.0000 C   0  0  0  0  0  0  0  0  0  0  0  0
   14.1244   -1.0926    0.0000 C   0  0  0  0  0  0  0  0  0  0  0  0
    7.1962   -3.0926    0.0000 C   0  0  0  0  0  0  0  0  0  0  0  0
    6.3301   -1.5926    0.0000 C   0  0  0  0  0  0  0  0  0  0  0  0
   14.1244   -2.0926    0.0000 C   0  0  0  0  0  0  0  0  0  0  0  0
   13.2583   -2.5926    0.0000 C   0  0  0  0  0  0  0  0  0  0  0  0
   15.6542   -1.5926    0.0000 C   0  0  0  0  0  0  0  0  0  0  0  0
    6.3301    1.4074    0.0000 C   0  0  0  0  0  0  0  0  0  0  0  0
    6.3301   -3.5926    0.0000 C   0  0  0  0  0  0  0  0  0  0  0  0
    5.4641   -2.0926    0.0000 C   0  0  0  0  0  0  0  0  0  0  0  0
    5.4641   -3.0926    0.0000 C   0  0  0  0  0  0  0  0  0  0  0  0
    5.4641    2.9074    0.0000 C   0  0  0  0  0  0  0  0  0  0  0  0
    5.4641    3.9074    0.0000 C   0  0  0  0  0  0  0  0  0  0  0  0
    4.5981    2.4074    0.0000 C   0  0  0  0  0  0  0  0  0  0  0  0
    4.5981    4.4074    0.0000 C   0  0  0  0  0  0  0  0  0  0  0  0
    3.7320    2.9074    0.0000 C   0  0  0  0  0  0  0  0  0  0  0  0
    6.3301    4.4074    0.0000 C   0  0  0  0  0  0  0  0  0  0  0  0
    4.5981    1.4074    0.0000 C   0  0  0  0  0  0  0  0  0  0  0  0
    3.7320    3.9074    0.0000 C   0  0  0  0  0  0  0  0  0  0  0  0
    2.8660    4.4074    0.0000 C   0  0  0  0  0  0  0  0  0  0  0  0
    9.4651    0.2174    0.0000 H   0  0  0  0  0  0  0  0  0  0  0  0
    9.3957   -1.0676    0.0000 H   0  0  0  0  0  0  0  0  0  0  0  0
   10.1928   -1.0676    0.0000 H   0  0  0  0  0  0  0  0  0  0  0  0
    8.0622    0.0274    0.0000 H   0  0  0  0  0  0  0  0  0  0  0  0
   10.4482    1.4900    0.0000 H   0  0  0  0  0  0  0  0  0  0  0  0
   10.0497    0.7997    0.0000 H   0  0  0  0  0  0  0  0  0  0  0  0
   18.5298   -5.3222    0.0000 H   0  0  0  0  0  0  0  0  0  0  0  0
   19.3550   -5.4090    0.0000 H   0  0  0  0  0  0  0  0  0  0  0  0
   20.1088   -4.9738    0.0000 H   0  0  0  0  0  0  0  0  0  0  0  0
   20.4463   -4.2158    0.0000 H   0  0  0  0  0  0  0  0  0  0  0  0
   17.7105   -3.9282    0.0000 H   0  0  0  0  0  0  0  0  0  0  0  0
   17.8830   -4.7398    0.0000 H   0  0  0  0  0  0  0  0  0  0  0  0
   20.2653   -3.3644    0.0000 H   0  0  0  0  0  0  0  0  0  0  0  0
   19.6487   -2.8092    0.0000 H   0  0  0  0  0  0  0  0  0  0  0  0
   12.0632    1.7174    0.0000 H   0  0  0  0  0  0  0  0  0  0  0  0
    8.2742   -2.1752    0.0000 H   0  0  0  0  0  0  0  0  0  0  0  0
    8.6728   -1.4850    0.0000 H   0  0  0  0  0  0  0  0  0  0  0  0
   18.7368   -2.2466    0.0000 H   0  0  0  0  0  0  0  0  0  0  0  0
   18.0465   -1.8481    0.0000 H   0  0  0  0  0  0  0  0  0  0  0  0
    6.6592   -0.4026    0.0000 H   0  0  0  0  0  0  0  0  0  0  0  0
   12.1463    2.4074    0.0000 H   0  0  0  0  0  0  0  0  0  0  0  0
   11.5263    3.0274    0.0000 H   0  0  0  0  0  0  0  0  0  0  0  0
   10.9063    2.4074    0.0000 H   0  0  0  0  0  0  0  0  0  0  0  0
   12.0823    0.3704    0.0000 H   0  0  0  0  0  0  0  0  0  0  0  0
   12.9292    0.5974    0.0000 H   0  0  0  0  0  0  0  0  0  0  0  0
   12.7023    1.4443    0.0000 H   0  0  0  0  0  0  0  0  0  0  0  0
    9.4651    1.2174    0.0000 H   0  0  0  0  0  0  0  0  0  0  0  0
   13.2583    0.0274    0.0000 H   0  0  0  0  0  0  0  0  0  0  0  0
   11.8554   -2.4026    0.0000 H   0  0  0  0  0  0  0  0  0  0  0  0
    7.7331   -3.4026    0.0000 H   0  0  0  0  0  0  0  0  0  0  0  0
    6.3301   -0.9726    0.0000 H   0  0  0  0  0  0  0  0  0  0  0  0
   13.2583   -3.2126    0.0000 H   0  0  0  0  0  0  0  0  0  0  0  0
   16.9642   -1.0557    0.0000 H   0  0  0  0  0  0  0  0  0  0  0  0
    5.7196    1.5150    0.0000 H   0  0  0  0  0  0  0  0  0  0  0  0
    6.1181    0.8248    0.0000 H   0  0  0  0  0  0  0  0  0  0  0  0
    6.3301   -4.2126    0.0000 H   0  0  0  0  0  0  0  0  0  0  0  0
    4.9272   -1.7826    0.0000 H   0  0  0  0  0  0  0  0  0  0  0  0
    4.9272   -3.4026    0.0000 H   0  0  0  0  0  0  0  0  0  0  0  0
    4.5981    5.0274    0.0000 H   0  0  0  0  0  0  0  0  0  0  0  0
    3.1951    2.5974    0.0000 H   0  0  0  0  0  0  0  0  0  0  0  0
    6.6401    3.8704    0.0000 H   0  0  0  0  0  0  0  0  0  0  0  0
    6.8671    4.7174    0.0000 H   0  0  0  0  0  0  0  0  0  0  0  0
    6.0201    4.9443    0.0000 H   0  0  0  0  0  0  0  0  0  0  0  0
    3.9781    1.4074    0.0000 H   0  0  0  0  0  0  0  0  0  0  0  0
    4.5981    0.7874    0.0000 H   0  0  0  0  0  0  0  0  0  0  0  0
    5.2181    1.4074    0.0000 H   0  0  0  0  0  0  0  0  0  0  0  0
  1  4  2  0  0  0  0
  1  5  2  0  0  0  0
  1  9  1  0  0  0  0
  1 26  1  0  0  0  0
  2 34  1  0  0  0  0
  2 39  1  0  0  0  0
 15  3  1  6  0  0  0
  3 79  1  0  0  0  0
  6 30  2  0  0  0  0
  7 32  2  0  0  0  0
  8 40  1  0  0  0  0
  8 44  1  0  0  0  0
  9 16  1  0  0  0  0
  9 20  1  0  0  0  0
 10 21  1  0  0  0  0
 10 22  1  0  0  0  0
 10 25  1  0  0  0  0
 17 11  1  6  0  0  0
 11 32  1  0  0  0  0
 11 72  1  0  0  0  0
 12 30  1  0  0  0  0
 12 39  1  0  0  0  0
 12 85  1  0  0  0  0
 13 37  1  0  0  0  0
 13 39  2  0  0  0  0
 14 52  3  0  0  0  0
 15 16  1  0  0  0  0
 15 17  1  0  0  0  0
 15 53  1  0  0  0  0
 16 54  1  0  0  0  0
 16 55  1  0  0  0  0
 17 24  1  0  0  0  0
 17 56  1  0  0  0  0
 18 19  1  0  0  0  0
 18 21  1  0  0  0  0
 18 59  1  0  0  0  0
 18 60  1  0  0  0  0
 19 22  1  0  0  0  0
 19 61  1  0  0  0  0
 19 62  1  0  0  0  0
 20 23  1  0  0  0  0
 20 57  1  0  0  0  0
 20 58  1  0  0  0  0
 21 63  1  0  0  0  0
 21 64  1  0  0  0  0
 22 65  1  0  0  0  0
 22 66  1  0  0  0  0
 23 27  1  0  0  0  0
 23 28  1  0  0  0  0
 23 67  1  0  0  0  0
 24 29  1  0  0  0  0
 24 68  1  0  0  0  0
 24 69  1  0  0  0  0
 25 30  1  0  0  0  0
 25 70  1  0  0  0  0
 25 71  1  0  0  0  0
 26 31  2  0  0  0  0
 26 33  1  0  0  0  0
 27 73  1  0  0  0  0
 27 74  1  0  0  0  0
 27 75  1  0  0  0  0
 28 76  1  0  0  0  0
 28 77  1  0  0  0  0
 28 78  1  0  0  0  0
 29 35  2  0  0  0  0
 29 36  1  0  0  0  0
 31 34  1  0  0  0  0
 31 80  1  0  0  0  0
 32 40  1  0  0  0  0
 33 38  2  0  0  0  0
 33 81  1  0  0  0  0
 34 37  2  0  0  0  0
 35 41  1  0  0  0  0
 35 82  1  0  0  0  0
 36 42  2  0  0  0  0
 36 83  1  0  0  0  0
 37 38  1  0  0  0  0
 38 84  1  0  0  0  0
 40 86  1  0  0  0  0
 40 87  1  0  0  0  0
 41 43  2  0  0  0  0
 41 88  1  0  0  0  0
 42 43  1  0  0  0  0
 42 89  1  0  0  0  0
 43 90  1  0  0  0  0
 44 45  2  0  0  0  0
 44 46  1  0  0  0  0
 45 47  1  0  0  0  0
 45 49  1  0  0  0  0
 46 48  2  0  0  0  0
 46 50  1  0  0  0  0
 47 51  2  0  0  0  0
 47 91  1  0  0  0  0
 48 51  1  0  0  0  0
 48 92  1  0  0  0  0
 49 93  1  0  0  0  0
 49 94  1  0  0  0  0
 49 95  1  0  0  0  0
 50 96  1  0  0  0  0
 50 97  1  0  0  0  0
 50 98  1  0  0  0  0
 51 52  1  0  0  0  0
M  END
> <PUBCHEM_COMPOUND_CID>
509657
> <PUBCHEM_COMPOUND_CANONICALIZED>
1
> <PUBCHEM_CACTVS_COMPLEXITY>
1310
> <PUBCHEM_CACTVS_HBOND_ACCEPTOR>
11
> <PUBCHEM_CACTVS_HBOND_DONOR>
3
> <PUBCHEM_CACTVS_ROTATABLE_BOND>
16
> <PUBCHEM_CACTVS_SUBSKEYS>
AAADcfB/uABgAAAAAAAAAAAAAAAAAWLAAAAwYMAAAAAAAFgB9AAAHgQQSAAADTzh3gYz17PIFgq8ByVydHLj+LlhKjlJmLz8bJiO9qLk+b+XeCjs1xPY6C+QwOAOIAQCAEAIAQBACAQAgBACAAAAAAAAAA==
> <PUBCHEM_IUPAC_OPENEYE_NAME>
N-[6-[[(2R,3S)-3-[[2-(4-cyano-2,6-dimethyl-phenoxy)acetyl]amino]-2-hydroxy-4-phenyl-butyl]-isobutyl-sulfamoyl]-1,3-benzothiazol-2-yl]-2-pyrrolidin-1-yl-acetamide
> <PUBCHEM_IUPAC_CAS_NAME>
N-[6-[[(2R,3S)-3-[[2-(4-cyano-2,6-dimethylphenoxy)-1-oxoethyl]amino]-2-hydroxy-4-phenylbutyl]-(2-methylpropyl)sulfamoyl]-1,3-benzothiazol-2-yl]-2-(1-pyrrolidinyl)acetamide
> <PUBCHEM_IUPAC_NAME_MARKUP>
<I>N</I>-[6-[[(2<I>R</I>,3<I>S</I>)-3-[[2-(4-cyano-2,6-dimethylphenoxy)acetyl]amino]-2-hydroxy-4-phenylbutyl]-(2-methylpropyl)sulfamoyl]-1,3-benzothiazol-2-yl]-2-pyrrolidin-1-ylacetamide
> <PUBCHEM_IUPAC_NAME>
N-[6-[[(2R,3S)-3-[[2-(4-cyano-2,6-dimethylphenoxy)acetyl]amino]-2-hydroxy-4-phenylbutyl]-(2-methylpropyl)sulfamoyl]-1,3-benzothiazol-2-yl]-2-pyrrolidin-1-ylacetamide
> <PUBCHEM_IUPAC_SYSTEMATIC_NAME>
N-[6-[[(2R,3S)-3-[2-(4-cyano-2,6-dimethyl-phenoxy)ethanoylamino]-2-oxidanyl-4-phenyl-butyl]-(2-methylpropyl)sulfamoyl]-1,3-benzothiazol-2-yl]-2-pyrrolidin-1-yl-ethanamide
> <PUBCHEM_IUPAC_TRADITIONAL_NAME>
N-[6-[[(2R,3S)-3-[[2-(4-cyano-2,6-dimethyl-phenoxy)acetyl]amino]-2-hydroxy-4-phenyl-butyl]-isobutyl-sulfamoyl]-1,3-benzothiazol-2-yl]-2-pyrrolidino-acetamide
> <PUBCHEM_IUPAC_INCHI>
InChI=1S/C38H46N6O6S2/c1-25(2)21-44(52(48,49)30-12-13-31-34(19-30)51-38(41-31)42-35(46)23-43-14-8-9-15-43)22-33(45)32(18-28-10-6-5-7-11-28)40-36(47)24-50-37-26(3)16-29(20-39)17-27(37)4/h5-7,10-13,16-17,19,25,32-33,45H,8-9,14-15,18,21-24H2,1-4H3,(H,40,47)(H,41,42,46)/t32-,33+/m0/s1
> <PUBCHEM_IUPAC_INCHIKEY>
BUORABGJEWPEPY-JHOUSYSJSA-N
> <PUBCHEM_XLOGP3_AA>
5.8
> <PUBCHEM_EXACT_MASS>
746.29202556
> <PUBCHEM_MOLECULAR_FORMULA>
C38H46N6O6S2
> <PUBCHEM_MOLECULAR_WEIGHT>
746.9
> <PUBCHEM_OPENEYE_CAN_SMILES>
CC1=CC(=CC(=C1OCC(=O)NC(CC2=CC=CC=C2)C(CN(CC(C)C)S(=O)(=O)C3=CC4=C(C=C3)N=C(S4)NC(=O)CN5CCCC5)O)C)C#N
> <PUBCHEM_OPENEYE_ISO_SMILES>
CC1=CC(=CC(=C1OCC(=O)N[C@@H](CC2=CC=CC=C2)[C@@H](CN(CC(C)C)S(=O)(=O)C3=CC4=C(C=C3)N=C(S4)NC(=O)CN5CCCC5)O)C)C#N
> <PUBCHEM_CACTVS_TPSA>
202
> <PUBCHEM_MONOISOTOPIC_WEIGHT>
746.29202556
> <PUBCHEM_TOTAL_CHARGE>
0
> <PUBCHEM_HEAVY_ATOM_COUNT>
52
> <PUBCHEM_ATOM_DEF_STEREO_COUNT>
2
> <PUBCHEM_ATOM_UDEF_STEREO_COUNT>
0
> <PUBCHEM_BOND_DEF_STEREO_COUNT>
0
> <PUBCHEM_BOND_UDEF_STEREO_COUNT>
0
> <PUBCHEM_ISOTOPIC_ATOM_COUNT>
0
> <PUBCHEM_COMPONENT_COUNT>
1
> <PUBCHEM_CACTVS_TAUTO_COUNT>
-1
> <PUBCHEM_COORDINATE_TYPE>
1
5
255
> <PUBCHEM_BONDANNOTATIONS>
17  11  6
13  37  8
13  39  8
2  34  8
2  39  8
26  31  8
26  33  8
29  35  8
29  36  8
15  3  6
31  34  8
33  38  8
34  37  8
35  41  8
36  42  8
37  38  8
41  43  8
42  43  8
44  45  8
44  46  8
45  47  8
46  48  8
47  51  8
48  51  8
$$$$
