509670
  -OEChem-10302200282D
 98103  0     1  0  0  0  0  0999 V2000
    9.3056   -0.3759    0.0000 S   0  0  0  0  0  0  0  0  0  0  0  0
   12.8499   -0.5712    0.0000 S   0  0  0  0  0  0  0  0  0  0  0  0
    4.6095    4.1629    0.0000 O   0  0  0  0  0  0  0  0  0  0  0  0
    2.8037    4.7452    0.0000 O   0  0  0  0  0  0  0  0  0  0  0  0
    4.1095    1.6241    0.0000 O   0  0  0  0  0  0  0  0  0  0  0  0
    6.7075    1.1241    0.0000 O   0  0  0  0  0  0  0  0  0  0  0  0
    5.8415    1.6241    0.0000 O   0  0  0  0  0  0  0  0  0  0  0  0
    8.8056   -1.2419    0.0000 O   0  0  0  0  0  0  0  0  0  0  0  0
    9.8056    0.4901    0.0000 O   0  0  0  0  0  0  0  0  0  0  0  0
   16.5213   -3.0510    0.0000 N   0  0  3  0  0  0  0  0  0  0  0  0
    4.9755    0.1241    0.0000 N   0  0  0  0  0  0  0  0  0  0  0  0
   14.4335   -1.3759    0.0000 N   0  0  0  0  0  0  0  0  0  0  0  0
    8.4396    0.1241    0.0000 N   0  0  3  0  0  0  0  0  0  0  0  0
   12.8499   -2.1806    0.0000 N   0  0  0  0  0  0  0  0  0  0  0  0
    3.3004    3.2119    0.0000 C   0  0  2  0  0  0  0  0  0  0  0  0
    3.6095    4.1629    0.0000 C   0  0  1  0  0  0  0  0  0  0  0  0
    4.1095    2.6241    0.0000 C   0  0  2  0  0  0  0  0  0  0  0  0
    2.3064    3.2145    0.0000 C   0  0  0  0  0  0  0  0  0  0  0  0
    4.9185    3.2119    0.0000 C   0  0  0  0  0  0  0  0  0  0  0  0
    2.0000    4.1602    0.0000 C   0  0  0  0  0  0  0  0  0  0  0  0
   15.9335   -2.2419    0.0000 C   0  0  3  0  0  0  0  0  0  0  0  0
   16.5213   -1.4329    0.0000 C   0  0  0  0  0  0  0  0  0  0  0  0
   17.4724   -1.7419    0.0000 C   0  0  0  0  0  0  0  0  0  0  0  0
   17.4724   -2.7419    0.0000 C   0  0  0  0  0  0  0  0  0  0  0  0
   14.9335   -2.2419    0.0000 C   0  0  0  0  0  0  0  0  0  0  0  0
   16.2123   -4.0020    0.0000 C   0  0  0  0  0  0  0  0  0  0  0  0
    5.8415   -0.3759    0.0000 C   0  0  2  0  0  0  0  0  0  0  0  0
    4.9755    1.1241    0.0000 C   0  0  0  0  0  0  0  0  0  0  0  0
    6.7075    0.1241    0.0000 C   0  0  1  0  0  0  0  0  0  0  0  0
    7.5736   -0.3759    0.0000 C   0  0  0  0  0  0  0  0  0  0  0  0
   16.8814   -4.7452    0.0000 C   0  0  0  0  0  0  0  0  0  0  0  0
    5.8415   -1.3759    0.0000 C   0  0  0  0  0  0  0  0  0  0  0  0
    8.4396    1.1241    0.0000 C   0  0  0  0  0  0  0  0  0  0  0  0
    9.3056    1.6241    0.0000 C   0  0  0  0  0  0  0  0  0  0  0  0
   13.4335   -1.3759    0.0000 C   0  0  0  0  0  0  0  0  0  0  0  0
    4.9755   -1.8759    0.0000 C   0  0  0  0  0  0  0  0  0  0  0  0
   10.1716   -0.8759    0.0000 C   0  0  0  0  0  0  0  0  0  0  0  0
   11.9037   -0.8759    0.0000 C   0  0  0  0  0  0  0  0  0  0  0  0
   11.9037   -1.8759    0.0000 C   0  0  0  0  0  0  0  0  0  0  0  0
   11.0377   -0.3759    0.0000 C   0  0  0  0  0  0  0  0  0  0  0  0
    9.3056    2.6241    0.0000 C   0  0  0  0  0  0  0  0  0  0  0  0
   10.1716    1.1241    0.0000 C   0  0  0  0  0  0  0  0  0  0  0  0
   10.1716   -1.8759    0.0000 C   0  0  0  0  0  0  0  0  0  0  0  0
   11.0377   -2.3759    0.0000 C   0  0  0  0  0  0  0  0  0  0  0  0
    4.9755   -2.8759    0.0000 C   0  0  0  0  0  0  0  0  0  0  0  0
    4.1095   -1.3759    0.0000 C   0  0  0  0  0  0  0  0  0  0  0  0
    4.1095   -3.3759    0.0000 C   0  0  0  0  0  0  0  0  0  0  0  0
    3.2434   -1.8759    0.0000 C   0  0  0  0  0  0  0  0  0  0  0  0
    3.2434   -2.8759    0.0000 C   0  0  0  0  0  0  0  0  0  0  0  0
    3.0367    2.4038    0.0000 H   0  0  0  0  0  0  0  0  0  0  0  0
    3.8711    4.9717    0.0000 H   0  0  0  0  0  0  0  0  0  0  0  0
    3.5570    2.3426    0.0000 H   0  0  0  0  0  0  0  0  0  0  0  0
    1.6997    3.0864    0.0000 H   0  0  0  0  0  0  0  0  0  0  0  0
    2.3699    2.5977    0.0000 H   0  0  0  0  0  0  0  0  0  0  0  0
    5.2285    2.6749    0.0000 H   0  0  0  0  0  0  0  0  0  0  0  0
    5.4849    3.4641    0.0000 H   0  0  0  0  0  0  0  0  0  0  0  0
    1.6898    4.6970    0.0000 H   0  0  0  0  0  0  0  0  0  0  0  0
    1.4335    3.9081    0.0000 H   0  0  0  0  0  0  0  0  0  0  0  0
   15.6520   -2.7944    0.0000 H   0  0  0  0  0  0  0  0  0  0  0  0
   16.7735   -0.8665    0.0000 H   0  0  0  0  0  0  0  0  0  0  0  0
   15.9844   -1.1229    0.0000 H   0  0  0  0  0  0  0  0  0  0  0  0
   18.0890   -1.8067    0.0000 H   0  0  0  0  0  0  0  0  0  0  0  0
   17.6013   -1.1355    0.0000 H   0  0  0  0  0  0  0  0  0  0  0  0
   17.6013   -3.3484    0.0000 H   0  0  0  0  0  0  0  0  0  0  0  0
   18.0890   -2.6771    0.0000 H   0  0  0  0  0  0  0  0  0  0  0  0
   14.3509   -2.4540    0.0000 H   0  0  0  0  0  0  0  0  0  0  0  0
   15.0412   -2.8525    0.0000 H   0  0  0  0  0  0  0  0  0  0  0  0
   15.6649   -3.7109    0.0000 H   0  0  0  0  0  0  0  0  0  0  0  0
   15.8306   -4.4906    0.0000 H   0  0  0  0  0  0  0  0  0  0  0  0
    5.8415    0.2441    0.0000 H   0  0  0  0  0  0  0  0  0  0  0  0
    7.2445    0.4341    0.0000 H   0  0  0  0  0  0  0  0  0  0  0  0
    4.4386   -0.1859    0.0000 H   0  0  0  0  0  0  0  0  0  0  0  0
    7.1750   -0.8509    0.0000 H   0  0  0  0  0  0  0  0  0  0  0  0
    7.9721   -0.8509    0.0000 H   0  0  0  0  0  0  0  0  0  0  0  0
   14.7435   -0.8390    0.0000 H   0  0  0  0  0  0  0  0  0  0  0  0
   16.4207   -5.1600    0.0000 H   0  0  0  0  0  0  0  0  0  0  0  0
   17.2963   -5.2059    0.0000 H   0  0  0  0  0  0  0  0  0  0  0  0
   17.3422   -4.3303    0.0000 H   0  0  0  0  0  0  0  0  0  0  0  0
    6.0536   -1.9585    0.0000 H   0  0  0  0  0  0  0  0  0  0  0  0
    6.4521   -1.2682    0.0000 H   0  0  0  0  0  0  0  0  0  0  0  0
    8.2275    1.7067    0.0000 H   0  0  0  0  0  0  0  0  0  0  0  0
    7.8290    1.0164    0.0000 H   0  0  0  0  0  0  0  0  0  0  0  0
    8.7687    1.9341    0.0000 H   0  0  0  0  0  0  0  0  0  0  0  0
    7.2445    1.4341    0.0000 H   0  0  0  0  0  0  0  0  0  0  0  0
   11.0377    0.2441    0.0000 H   0  0  0  0  0  0  0  0  0  0  0  0
    9.9256    2.6241    0.0000 H   0  0  0  0  0  0  0  0  0  0  0  0
    9.3056    3.2441    0.0000 H   0  0  0  0  0  0  0  0  0  0  0  0
    8.6856    2.6241    0.0000 H   0  0  0  0  0  0  0  0  0  0  0  0
    9.8616    0.5872    0.0000 H   0  0  0  0  0  0  0  0  0  0  0  0
   10.7086    0.8141    0.0000 H   0  0  0  0  0  0  0  0  0  0  0  0
   10.4816    1.6610    0.0000 H   0  0  0  0  0  0  0  0  0  0  0  0
    9.6347   -2.1859    0.0000 H   0  0  0  0  0  0  0  0  0  0  0  0
   11.0377   -2.9959    0.0000 H   0  0  0  0  0  0  0  0  0  0  0  0
    5.5124   -3.1859    0.0000 H   0  0  0  0  0  0  0  0  0  0  0  0
    4.1095   -0.7559    0.0000 H   0  0  0  0  0  0  0  0  0  0  0  0
    4.1095   -3.9959    0.0000 H   0  0  0  0  0  0  0  0  0  0  0  0
    2.7065   -1.5659    0.0000 H   0  0  0  0  0  0  0  0  0  0  0  0
    2.7065   -3.1859    0.0000 H   0  0  0  0  0  0  0  0  0  0  0  0
  1  8  2  0  0  0  0
  1  9  2  0  0  0  0
  1 13  1  0  0  0  0
  1 37  1  0  0  0  0
  2 35  1  0  0  0  0
  2 38  1  0  0  0  0
  3 16  1  0  0  0  0
  3 19  1  0  0  0  0
  4 16  1  0  0  0  0
  4 20  1  0  0  0  0
 17  5  1  6  0  0  0
  5 28  1  0  0  0  0
 29  6  1  6  0  0  0
  6 84  1  0  0  0  0
  7 28  2  0  0  0  0
 10 21  1  0  0  0  0
 10 24  1  0  0  0  0
 10 26  1  0  0  0  0
 27 11  1  6  0  0  0
 11 28  1  0  0  0  0
 11 72  1  0  0  0  0
 12 25  1  0  0  0  0
 12 35  1  0  0  0  0
 12 75  1  0  0  0  0
 13 30  1  0  0  0  0
 13 33  1  0  0  0  0
 14 35  2  0  0  0  0
 14 39  1  0  0  0  0
 15 16  1  0  0  0  0
 15 17  1  0  0  0  0
 15 18  1  0  0  0  0
 15 50  1  1  0  0  0
 16 51  1  1  0  0  0
 17 19  1  0  0  0  0
 17 52  1  0  0  0  0
 18 20  1  0  0  0  0
 18 53  1  0  0  0  0
 18 54  1  0  0  0  0
 19 55  1  0  0  0  0
 19 56  1  0  0  0  0
 20 57  1  0  0  0  0
 20 58  1  0  0  0  0
 21 22  1  0  0  0  0
 21 25  1  0  0  0  0
 21 59  1  0  0  0  0
 22 23  1  0  0  0  0
 22 60  1  0  0  0  0
 22 61  1  0  0  0  0
 23 24  1  0  0  0  0
 23 62  1  0  0  0  0
 23 63  1  0  0  0  0
 24 64  1  0  0  0  0
 24 65  1  0  0  0  0
 25 66  1  0  0  0  0
 25 67  1  0  0  0  0
 26 31  1  0  0  0  0
 26 68  1  0  0  0  0
 26 69  1  0  0  0  0
 27 29  1  0  0  0  0
 27 32  1  0  0  0  0
 27 70  1  0  0  0  0
 29 30  1  0  0  0  0
 29 71  1  0  0  0  0
 30 73  1  0  0  0  0
 30 74  1  0  0  0  0
 31 76  1  0  0  0  0
 31 77  1  0  0  0  0
 31 78  1  0  0  0  0
 32 36  1  0  0  0  0
 32 79  1  0  0  0  0
 32 80  1  0  0  0  0
 33 34  1  0  0  0  0
 33 81  1  0  0  0  0
 33 82  1  0  0  0  0
 34 41  1  0  0  0  0
 34 42  1  0  0  0  0
 34 83  1  0  0  0  0
 36 45  2  0  0  0  0
 36 46  1  0  0  0  0
 37 40  2  0  0  0  0
 37 43  1  0  0  0  0
 38 39  2  0  0  0  0
 38 40  1  0  0  0  0
 39 44  1  0  0  0  0
 40 85  1  0  0  0  0
 41 86  1  0  0  0  0
 41 87  1  0  0  0  0
 41 88  1  0  0  0  0
 42 89  1  0  0  0  0
 42 90  1  0  0  0  0
 42 91  1  0  0  0  0
 43 44  2  0  0  0  0
 43 92  1  0  0  0  0
 44 93  1  0  0  0  0
 45 47  1  0  0  0  0
 45 94  1  0  0  0  0
 46 48  2  0  0  0  0
 46 95  1  0  0  0  0
 47 49  2  0  0  0  0
 47 96  1  0  0  0  0
 48 49  1  0  0  0  0
 48 97  1  0  0  0  0
 49 98  1  0  0  0  0
M  END
> <PUBCHEM_COMPOUND_CID>
509670
> <PUBCHEM_COMPOUND_CANONICALIZED>
1
> <PUBCHEM_CACTVS_COMPLEXITY>
1170
> <PUBCHEM_CACTVS_HBOND_ACCEPTOR>
12
> <PUBCHEM_CACTVS_HBOND_DONOR>
3
> <PUBCHEM_CACTVS_ROTATABLE_BOND>
16
> <PUBCHEM_CACTVS_SUBSKEYS>
AAADcfB/uABgAAAAAAAAAAAAAAAAAWLEiQAwYAAAAAASAFgB9AAAHgQQSAAADTzx3gcz2bPIFgqsAyRifHDD8LlhCjlJmLw4ZJmbcKLg2ZG+YAhtlgLeyCfQ4KgOAAQAAEAAAQAACAAAgAACAAAAAAAAAA==
> <PUBCHEM_IUPAC_OPENEYE_NAME>
[(3aS,4R,6aR)-2,3,3a,4,5,6a-hexahydrofuro[2,3-b]furan-4-yl] N-[(1S,2R)-1-benzyl-3-[[2-[(1-ethylpyrrolidin-2-yl)methylamino]-1,3-benzothiazol-6-yl]sulfonyl-isobutyl-amino]-2-hydroxy-propyl]carbamate
> <PUBCHEM_IUPAC_CAS_NAME>
N-[(2S,3R)-4-[[2-[(1-ethyl-2-pyrrolidinyl)methylamino]-1,3-benzothiazol-6-yl]sulfonyl-(2-methylpropyl)amino]-3-hydroxy-1-phenylbutan-2-yl]carbamic acid [(3aS,4R,6aR)-2,3,3a,4,5,6a-hexahydrofuro[2,3-b]furan-4-yl] ester
> <PUBCHEM_IUPAC_NAME_MARKUP>
[(3<I>a</I><I>S</I>,4<I>R</I>,6<I>a</I><I>R</I>)-2,3,3<I>a</I>,4,5,6<I>a</I>-hexahydrofuro[2,3-b]furan-4-yl] <I>N</I>-[(2<I>S</I>,3<I>R</I>)-4-[[2-[(1-ethylpyrrolidin-2-yl)methylamino]-1,3-benzothiazol-6-yl]sulfonyl-(2-methylpropyl)amino]-3-hydroxy-1-phenylbutan-2-yl]carbamate
> <PUBCHEM_IUPAC_NAME>
[(3aS,4R,6aR)-2,3,3a,4,5,6a-hexahydrofuro[2,3-b]furan-4-yl] N-[(2S,3R)-4-[[2-[(1-ethylpyrrolidin-2-yl)methylamino]-1,3-benzothiazol-6-yl]sulfonyl-(2-methylpropyl)amino]-3-hydroxy-1-phenylbutan-2-yl]carbamate
> <PUBCHEM_IUPAC_SYSTEMATIC_NAME>
[(3aS,4R,6aR)-2,3,3a,4,5,6a-hexahydrofuro[2,3-b]furan-4-yl] N-[(2S,3R)-4-[[2-[(1-ethylpyrrolidin-2-yl)methylamino]-1,3-benzothiazol-6-yl]sulfonyl-(2-methylpropyl)amino]-3-oxidanyl-1-phenyl-butan-2-yl]carbamate
> <PUBCHEM_IUPAC_TRADITIONAL_NAME>
N-[(1S,2R)-1-benzyl-3-[[2-[(1-ethylpyrrolidin-2-yl)methylamino]-1,3-benzothiazol-6-yl]sulfonyl-isobutyl-amino]-2-hydroxy-propyl]carbamic acid [(3aS,4R,6aR)-2,3,3a,4,5,6a-hexahydrofuro[2,3-b]furan-4-yl] ester
> <PUBCHEM_IUPAC_INCHI>
InChI=1S/C35H49N5O7S2/c1-4-39-15-8-11-25(39)19-36-34-37-28-13-12-26(18-32(28)48-34)49(43,44)40(20-23(2)3)21-30(41)29(17-24-9-6-5-7-10-24)38-35(42)47-31-22-46-33-27(31)14-16-45-33/h5-7,9-10,12-13,18,23,25,27,29-31,33,41H,4,8,11,14-17,19-22H2,1-3H3,(H,36,37)(H,38,42)/t25?,27-,29-,30+,31-,33+/m0/s1
> <PUBCHEM_IUPAC_INCHIKEY>
CSOOJXHGLYGRJL-GGTVDRLGSA-N
> <PUBCHEM_XLOGP3_AA>
5.4
> <PUBCHEM_EXACT_MASS>
715.30734127
> <PUBCHEM_MOLECULAR_FORMULA>
C35H49N5O7S2
> <PUBCHEM_MOLECULAR_WEIGHT>
715.9
> <PUBCHEM_OPENEYE_CAN_SMILES>
CCN1CCCC1CNC2=NC3=C(S2)C=C(C=C3)S(=O)(=O)N(CC(C)C)CC(C(CC4=CC=CC=C4)NC(=O)OC5COC6C5CCO6)O
> <PUBCHEM_OPENEYE_ISO_SMILES>
CCN1CCCC1CNC2=NC3=C(S2)C=C(C=C3)S(=O)(=O)N(C[C@H]([C@H](CC4=CC=CC=C4)NC(=O)O[C@H]5CO[C@@H]6[C@H]5CCO6)O)CC(C)C
> <PUBCHEM_CACTVS_TPSA>
179
> <PUBCHEM_MONOISOTOPIC_WEIGHT>
715.30734127
> <PUBCHEM_TOTAL_CHARGE>
0
> <PUBCHEM_HEAVY_ATOM_COUNT>
49
> <PUBCHEM_ATOM_DEF_STEREO_COUNT>
5
> <PUBCHEM_ATOM_UDEF_STEREO_COUNT>
1
> <PUBCHEM_BOND_DEF_STEREO_COUNT>
0
> <PUBCHEM_BOND_UDEF_STEREO_COUNT>
0
> <PUBCHEM_ISOTOPIC_ATOM_COUNT>
0
> <PUBCHEM_COMPONENT_COUNT>
1
> <PUBCHEM_CACTVS_TAUTO_COUNT>
-1
> <PUBCHEM_COORDINATE_TYPE>
1
5
255
> <PUBCHEM_BONDANNOTATIONS>
27  11  6
14  35  8
14  39  8
15  50  5
16  51  5
2  35  8
2  38  8
21  25  3
36  45  8
36  46  8
37  40  8
37  43  8
38  39  8
38  40  8
39  44  8
43  44  8
45  47  8
46  48  8
47  49  8
48  49  8
17  5  6
29  6  6
$$$$
