509684
  -OEChem-10302200282D
103108  0     1  0  0  0  0  0999 V2000
    9.7942    0.2655    0.0000 S   0  0  0  0  0  0  0  0  0  0  0  0
   13.3385    0.0702    0.0000 S   0  0  0  0  0  0  0  0  0  0  0  0
    4.5981    3.2655    0.0000 S   0  0  0  0  0  0  0  0  0  0  0  0
    7.1962    1.7655    0.0000 O   0  0  0  0  0  0  0  0  0  0  0  0
    9.2942   -0.6005    0.0000 O   0  0  0  0  0  0  0  0  0  0  0  0
   10.2942    1.1315    0.0000 O   0  0  0  0  0  0  0  0  0  0  0  0
   18.7700   -0.5127    0.0000 O   0  0  0  0  0  0  0  0  0  0  0  0
   14.9221   -2.4665    0.0000 O   0  0  0  0  0  0  0  0  0  0  0  0
   17.7994   -4.1828    0.0000 O   0  0  0  0  0  0  0  0  0  0  0  0
    6.3301    2.2655    0.0000 O   0  0  0  0  0  0  0  0  0  0  0  0
    8.9282    0.7655    0.0000 N   0  0  3  0  0  0  0  0  0  0  0  0
   17.9610   -2.1005    0.0000 N   0  0  0  0  0  0  0  0  0  0  0  0
    5.4641    0.7655    0.0000 N   0  0  0  0  0  0  0  0  0  0  0  0
   14.9221   -0.7345    0.0000 N   0  0  0  0  0  0  0  0  0  0  0  0
   13.3385   -1.5392    0.0000 N   0  0  0  0  0  0  0  0  0  0  0  0
    7.1962    0.7655    0.0000 C   0  0  2  0  0  0  0  0  0  0  0  0
    8.0622    0.2655    0.0000 C   0  0  0  0  0  0  0  0  0  0  0  0
    6.3301    0.2655    0.0000 C   0  0  2  0  0  0  0  0  0  0  0  0
   16.4221   -1.6005    0.0000 C   0  0  3  0  0  0  0  0  0  0  0  0
    8.9282    1.7655    0.0000 C   0  0  0  0  0  0  0  0  0  0  0  0
   17.0099   -2.4095    0.0000 C   0  0  0  0  0  0  0  0  0  0  0  0
   17.0099   -0.7915    0.0000 C   0  0  0  0  0  0  0  0  0  0  0  0
    9.7942    2.2655    0.0000 C   0  0  0  0  0  0  0  0  0  0  0  0
    6.3301   -0.7345    0.0000 C   0  0  0  0  0  0  0  0  0  0  0  0
   17.9610   -1.1005    0.0000 C   0  0  0  0  0  0  0  0  0  0  0  0
   18.7700   -2.6883    0.0000 C   0  0  0  0  0  0  0  0  0  0  0  0
   15.4221   -1.6005    0.0000 C   0  0  0  0  0  0  0  0  0  0  0  0
   10.6603   -0.2345    0.0000 C   0  0  0  0  0  0  0  0  0  0  0  0
    9.7942    3.2655    0.0000 C   0  0  0  0  0  0  0  0  0  0  0  0
   10.6603    1.7655    0.0000 C   0  0  0  0  0  0  0  0  0  0  0  0
    5.4641   -1.2345    0.0000 C   0  0  0  0  0  0  0  0  0  0  0  0
   11.5263    0.2655    0.0000 C   0  0  0  0  0  0  0  0  0  0  0  0
   18.6655   -3.6828    0.0000 C   0  0  0  0  0  0  0  0  0  0  0  0
   10.6603   -1.2345    0.0000 C   0  0  0  0  0  0  0  0  0  0  0  0
   12.3923   -0.2345    0.0000 C   0  0  0  0  0  0  0  0  0  0  0  0
    5.4641    1.7655    0.0000 C   0  0  0  0  0  0  0  0  0  0  0  0
   12.3923   -1.2345    0.0000 C   0  0  0  0  0  0  0  0  0  0  0  0
   13.9221   -0.7345    0.0000 C   0  0  0  0  0  0  0  0  0  0  0  0
    5.4641   -2.2345    0.0000 C   0  0  0  0  0  0  0  0  0  0  0  0
    4.5981   -0.7345    0.0000 C   0  0  0  0  0  0  0  0  0  0  0  0
   11.5263   -1.7345    0.0000 C   0  0  0  0  0  0  0  0  0  0  0  0
    4.5981    2.2655    0.0000 C   0  0  0  0  0  0  0  0  0  0  0  0
   19.4086   -4.3520    0.0000 C   0  0  0  0  0  0  0  0  0  0  0  0
    4.5981   -2.7345    0.0000 C   0  0  0  0  0  0  0  0  0  0  0  0
    3.7320   -1.2345    0.0000 C   0  0  0  0  0  0  0  0  0  0  0  0
    3.7320   -2.2345    0.0000 C   0  0  0  0  0  0  0  0  0  0  0  0
   19.0019   -5.2655    0.0000 C   0  0  0  0  0  0  0  0  0  0  0  0
   18.0074   -5.1610    0.0000 C   0  0  0  0  0  0  0  0  0  0  0  0
    3.7320    3.7655    0.0000 C   0  0  0  0  0  0  0  0  0  0  0  0
    2.8660    3.2655    0.0000 C   0  0  0  0  0  0  0  0  0  0  0  0
    3.7320    4.7655    0.0000 C   0  0  0  0  0  0  0  0  0  0  0  0
    2.0000    3.7655    0.0000 C   0  0  0  0  0  0  0  0  0  0  0  0
    2.8660    5.2655    0.0000 C   0  0  0  0  0  0  0  0  0  0  0  0
    2.8660    2.2655    0.0000 C   0  0  0  0  0  0  0  0  0  0  0  0
    4.5981    5.2655    0.0000 C   0  0  0  0  0  0  0  0  0  0  0  0
    2.0000    4.7655    0.0000 C   0  0  0  0  0  0  0  0  0  0  0  0
    6.6592    1.0755    0.0000 H   0  0  0  0  0  0  0  0  0  0  0  0
    7.6636   -0.2094    0.0000 H   0  0  0  0  0  0  0  0  0  0  0  0
    8.4607   -0.2094    0.0000 H   0  0  0  0  0  0  0  0  0  0  0  0
    5.7932   -0.0445    0.0000 H   0  0  0  0  0  0  0  0  0  0  0  0
   16.1407   -2.1530    0.0000 H   0  0  0  0  0  0  0  0  0  0  0  0
    8.7162    2.3481    0.0000 H   0  0  0  0  0  0  0  0  0  0  0  0
    8.3176    1.6578    0.0000 H   0  0  0  0  0  0  0  0  0  0  0  0
   16.4730   -2.7195    0.0000 H   0  0  0  0  0  0  0  0  0  0  0  0
   17.2621   -2.9759    0.0000 H   0  0  0  0  0  0  0  0  0  0  0  0
   17.2621   -0.2251    0.0000 H   0  0  0  0  0  0  0  0  0  0  0  0
   16.4730   -0.4815    0.0000 H   0  0  0  0  0  0  0  0  0  0  0  0
    9.2573    2.5755    0.0000 H   0  0  0  0  0  0  0  0  0  0  0  0
    6.5422   -1.3171    0.0000 H   0  0  0  0  0  0  0  0  0  0  0  0
    6.9407   -0.6268    0.0000 H   0  0  0  0  0  0  0  0  0  0  0  0
   19.3660   -2.8592    0.0000 H   0  0  0  0  0  0  0  0  0  0  0  0
   19.0418   -2.1310    0.0000 H   0  0  0  0  0  0  0  0  0  0  0  0
    4.9272    0.4555    0.0000 H   0  0  0  0  0  0  0  0  0  0  0  0
   10.4142    3.2655    0.0000 H   0  0  0  0  0  0  0  0  0  0  0  0
    9.7942    3.8855    0.0000 H   0  0  0  0  0  0  0  0  0  0  0  0
    9.1742    3.2655    0.0000 H   0  0  0  0  0  0  0  0  0  0  0  0
   10.3503    1.2286    0.0000 H   0  0  0  0  0  0  0  0  0  0  0  0
   11.1972    1.4555    0.0000 H   0  0  0  0  0  0  0  0  0  0  0  0
   10.9703    2.3024    0.0000 H   0  0  0  0  0  0  0  0  0  0  0  0
    7.7331    2.0755    0.0000 H   0  0  0  0  0  0  0  0  0  0  0  0
   11.5263    0.8855    0.0000 H   0  0  0  0  0  0  0  0  0  0  0  0
   15.2321   -0.1976    0.0000 H   0  0  0  0  0  0  0  0  0  0  0  0
   10.1233   -1.5445    0.0000 H   0  0  0  0  0  0  0  0  0  0  0  0
    6.0010   -2.5445    0.0000 H   0  0  0  0  0  0  0  0  0  0  0  0
    4.5981   -0.1145    0.0000 H   0  0  0  0  0  0  0  0  0  0  0  0
   11.5263   -2.3545    0.0000 H   0  0  0  0  0  0  0  0  0  0  0  0
    3.9875    2.3732    0.0000 H   0  0  0  0  0  0  0  0  0  0  0  0
    4.3860    1.6829    0.0000 H   0  0  0  0  0  0  0  0  0  0  0  0
   20.0151   -4.2230    0.0000 H   0  0  0  0  0  0  0  0  0  0  0  0
    4.5981   -3.3545    0.0000 H   0  0  0  0  0  0  0  0  0  0  0  0
    3.1951   -0.9245    0.0000 H   0  0  0  0  0  0  0  0  0  0  0  0
    3.1951   -2.5445    0.0000 H   0  0  0  0  0  0  0  0  0  0  0  0
   19.3119   -5.8024    0.0000 H   0  0  0  0  0  0  0  0  0  0  0  0
   17.5925   -5.6217    0.0000 H   0  0  0  0  0  0  0  0  0  0  0  0
    1.4631    3.4555    0.0000 H   0  0  0  0  0  0  0  0  0  0  0  0
    2.8660    5.8855    0.0000 H   0  0  0  0  0  0  0  0  0  0  0  0
    2.2460    2.2655    0.0000 H   0  0  0  0  0  0  0  0  0  0  0  0
    2.8660    1.6455    0.0000 H   0  0  0  0  0  0  0  0  0  0  0  0
    3.4860    2.2655    0.0000 H   0  0  0  0  0  0  0  0  0  0  0  0
    4.9081    4.7286    0.0000 H   0  0  0  0  0  0  0  0  0  0  0  0
    5.1350    5.5755    0.0000 H   0  0  0  0  0  0  0  0  0  0  0  0
    4.2881    5.8024    0.0000 H   0  0  0  0  0  0  0  0  0  0  0  0
    1.4631    5.0755    0.0000 H   0  0  0  0  0  0  0  0  0  0  0  0
  1  5  2  0  0  0  0
  1  6  2  0  0  0  0
  1 11  1  0  0  0  0
  1 28  1  0  0  0  0
  2 35  1  0  0  0  0
  2 38  1  0  0  0  0
  3 42  1  0  0  0  0
  3 49  1  0  0  0  0
 16  4  1  6  0  0  0
  4 80  1  0  0  0  0
  7 25  2  0  0  0  0
  8 27  2  0  0  0  0
  9 33  1  0  0  0  0
  9 48  1  0  0  0  0
 10 36  2  0  0  0  0
 11 17  1  0  0  0  0
 11 20  1  0  0  0  0
 12 21  1  0  0  0  0
 12 25  1  0  0  0  0
 12 26  1  0  0  0  0
 18 13  1  6  0  0  0
 13 36  1  0  0  0  0
 13 73  1  0  0  0  0
 14 27  1  0  0  0  0
 14 38  1  0  0  0  0
 14 82  1  0  0  0  0
 15 37  1  0  0  0  0
 15 38  2  0  0  0  0
 16 17  1  0  0  0  0
 16 18  1  0  0  0  0
 16 57  1  0  0  0  0
 17 58  1  0  0  0  0
 17 59  1  0  0  0  0
 18 24  1  0  0  0  0
 18 60  1  0  0  0  0
 19 21  1  0  0  0  0
 19 22  1  0  0  0  0
 19 27  1  0  0  0  0
 19 61  1  0  0  0  0
 20 23  1  0  0  0  0
 20 62  1  0  0  0  0
 20 63  1  0  0  0  0
 21 64  1  0  0  0  0
 21 65  1  0  0  0  0
 22 25  1  0  0  0  0
 22 66  1  0  0  0  0
 22 67  1  0  0  0  0
 23 29  1  0  0  0  0
 23 30  1  0  0  0  0
 23 68  1  0  0  0  0
 24 31  1  0  0  0  0
 24 69  1  0  0  0  0
 24 70  1  0  0  0  0
 26 33  1  0  0  0  0
 26 71  1  0  0  0  0
 26 72  1  0  0  0  0
 28 32  2  0  0  0  0
 28 34  1  0  0  0  0
 29 74  1  0  0  0  0
 29 75  1  0  0  0  0
 29 76  1  0  0  0  0
 30 77  1  0  0  0  0
 30 78  1  0  0  0  0
 30 79  1  0  0  0  0
 31 39  2  0  0  0  0
 31 40  1  0  0  0  0
 32 35  1  0  0  0  0
 32 81  1  0  0  0  0
 33 43  2  0  0  0  0
 34 41  2  0  0  0  0
 34 83  1  0  0  0  0
 35 37  2  0  0  0  0
 36 42  1  0  0  0  0
 37 41  1  0  0  0  0
 39 44  1  0  0  0  0
 39 84  1  0  0  0  0
 40 45  2  0  0  0  0
 40 85  1  0  0  0  0
 41 86  1  0  0  0  0
 42 87  1  0  0  0  0
 42 88  1  0  0  0  0
 43 47  1  0  0  0  0
 43 89  1  0  0  0  0
 44 46  2  0  0  0  0
 44 90  1  0  0  0  0
 45 46  1  0  0  0  0
 45 91  1  0  0  0  0
 46 92  1  0  0  0  0
 47 48  2  0  0  0  0
 47 93  1  0  0  0  0
 48 94  1  0  0  0  0
 49 50  2  0  0  0  0
 49 51  1  0  0  0  0
 50 52  1  0  0  0  0
 50 54  1  0  0  0  0
 51 53  2  0  0  0  0
 51 55  1  0  0  0  0
 52 56  2  0  0  0  0
 52 95  1  0  0  0  0
 53 56  1  0  0  0  0
 53 96  1  0  0  0  0
 54 97  1  0  0  0  0
 54 98  1  0  0  0  0
 54 99  1  0  0  0  0
 55100  1  0  0  0  0
 55101  1  0  0  0  0
 55102  1  0  0  0  0
 56103  1  0  0  0  0
M  END
> <PUBCHEM_COMPOUND_CID>
509684
> <PUBCHEM_COMPOUND_CANONICALIZED>
1
> <PUBCHEM_CACTVS_COMPLEXITY>
1420
> <PUBCHEM_CACTVS_HBOND_ACCEPTOR>
11
> <PUBCHEM_CACTVS_HBOND_DONOR>
3
> <PUBCHEM_CACTVS_ROTATABLE_BOND>
17
> <PUBCHEM_CACTVS_SUBSKEYS>
AAADcfB/uABgAAAAAAAAAAAAAAAAAWLEgAAwYMAAAAAAAFgB/AAAHgQQSAAADTzl3gaz1bPIFkqsA61y9HDD+LllKjlJmL2+bNiONrrk/buHeSjs1xP46aed0eIOAAQCAEAEAQAACAQAgAgCAAAAAAAAAA==
> <PUBCHEM_IUPAC_OPENEYE_NAME>
N-[6-[[(2R,3S)-3-[[2-(2,6-dimethylphenyl)sulfanylacetyl]amino]-2-hydroxy-4-phenyl-butyl]-isobutyl-sulfamoyl]-1,3-benzothiazol-2-yl]-1-(2-furylmethyl)-5-oxo-pyrrolidine-3-carboxamide
> <PUBCHEM_IUPAC_CAS_NAME>
N-[6-[[(2R,3S)-3-[[2-[(2,6-dimethylphenyl)thio]-1-oxoethyl]amino]-2-hydroxy-4-phenylbutyl]-(2-methylpropyl)sulfamoyl]-1,3-benzothiazol-2-yl]-1-(2-furanylmethyl)-5-oxo-3-pyrrolidinecarboxamide
> <PUBCHEM_IUPAC_NAME_MARKUP>
<I>N</I>-[6-[[(2<I>R</I>,3<I>S</I>)-3-[[2-(2,6-dimethylphenyl)sulfanylacetyl]amino]-2-hydroxy-4-phenylbutyl]-(2-methylpropyl)sulfamoyl]-1,3-benzothiazol-2-yl]-1-(furan-2-ylmethyl)-5-oxopyrrolidine-3-carboxamide
> <PUBCHEM_IUPAC_NAME>
N-[6-[[(2R,3S)-3-[[2-(2,6-dimethylphenyl)sulfanylacetyl]amino]-2-hydroxy-4-phenylbutyl]-(2-methylpropyl)sulfamoyl]-1,3-benzothiazol-2-yl]-1-(furan-2-ylmethyl)-5-oxopyrrolidine-3-carboxamide
> <PUBCHEM_IUPAC_SYSTEMATIC_NAME>
N-[6-[[(2R,3S)-3-[2-(2,6-dimethylphenyl)sulfanylethanoylamino]-2-oxidanyl-4-phenyl-butyl]-(2-methylpropyl)sulfamoyl]-1,3-benzothiazol-2-yl]-1-(furan-2-ylmethyl)-5-oxidanylidene-pyrrolidine-3-carboxamide
> <PUBCHEM_IUPAC_TRADITIONAL_NAME>
N-[6-[[(2R,3S)-3-[[2-[(2,6-dimethylphenyl)thio]acetyl]amino]-2-hydroxy-4-phenyl-butyl]-isobutyl-sulfamoyl]-1,3-benzothiazol-2-yl]-1-(2-furfuryl)-5-keto-pyrrolidine-3-carboxamide
> <PUBCHEM_IUPAC_INCHI>
InChI=1S/C41H47N5O7S3/c1-26(2)21-46(24-35(47)34(18-29-12-6-5-7-13-29)42-37(48)25-54-39-27(3)10-8-11-28(39)4)56(51,52)32-15-16-33-36(20-32)55-41(43-33)44-40(50)30-19-38(49)45(22-30)23-31-14-9-17-53-31/h5-17,20,26,30,34-35,47H,18-19,21-25H2,1-4H3,(H,42,48)(H,43,44,50)/t30?,34-,35+/m0/s1
> <PUBCHEM_IUPAC_INCHIKEY>
WRXOWINVEPKEQA-NSAPJXRQSA-N
> <PUBCHEM_XLOGP3_AA>
5.8
> <PUBCHEM_EXACT_MASS>
817.26376238
> <PUBCHEM_MOLECULAR_FORMULA>
C41H47N5O7S3
> <PUBCHEM_MOLECULAR_WEIGHT>
818.0
> <PUBCHEM_OPENEYE_CAN_SMILES>
CC1=C(C(=CC=C1)C)SCC(=O)NC(CC2=CC=CC=C2)C(CN(CC(C)C)S(=O)(=O)C3=CC4=C(C=C3)N=C(S4)NC(=O)C5CC(=O)N(C5)CC6=CC=CO6)O
> <PUBCHEM_OPENEYE_ISO_SMILES>
CC1=C(C(=CC=C1)C)SCC(=O)N[C@@H](CC2=CC=CC=C2)[C@@H](CN(CC(C)C)S(=O)(=O)C3=CC4=C(C=C3)N=C(S4)NC(=O)C5CC(=O)N(C5)CC6=CC=CO6)O
> <PUBCHEM_CACTVS_TPSA>
224
> <PUBCHEM_MONOISOTOPIC_WEIGHT>
817.26376238
> <PUBCHEM_TOTAL_CHARGE>
0
> <PUBCHEM_HEAVY_ATOM_COUNT>
56
> <PUBCHEM_ATOM_DEF_STEREO_COUNT>
2
> <PUBCHEM_ATOM_UDEF_STEREO_COUNT>
1
> <PUBCHEM_BOND_DEF_STEREO_COUNT>
0
> <PUBCHEM_BOND_UDEF_STEREO_COUNT>
0
> <PUBCHEM_ISOTOPIC_ATOM_COUNT>
0
> <PUBCHEM_COMPONENT_COUNT>
1
> <PUBCHEM_CACTVS_TAUTO_COUNT>
-1
> <PUBCHEM_COORDINATE_TYPE>
1
5
255
> <PUBCHEM_BONDANNOTATIONS>
18  13  6
15  37  8
15  38  8
19  27  3
2  35  8
2  38  8
28  32  8
28  34  8
31  39  8
31  40  8
32  35  8
33  43  8
34  41  8
35  37  8
37  41  8
39  44  8
16  4  6
40  45  8
43  47  8
44  46  8
45  46  8
47  48  8
49  50  8
49  51  8
50  52  8
51  53  8
52  56  8
53  56  8
9  33  8
9  48  8
$$$$
