509619
  -OEChem-10302200282D
 88 92  0     1  0  0  0  0  0999 V2000
    8.0622    2.0981    0.0000 S   0  0  0  0  0  0  0  0  0  0  0  0
   11.6065    1.9028    0.0000 S   0  0  0  0  0  0  0  0  0  0  0  0
    7.1962    0.5981    0.0000 O   0  0  0  0  0  0  0  0  0  0  0  0
    7.5622    1.2320    0.0000 O   0  0  0  0  0  0  0  0  0  0  0  0
    8.5622    2.9641    0.0000 O   0  0  0  0  0  0  0  0  0  0  0  0
    5.9641   -3.0000    0.0000 O   0  0  0  0  0  0  0  0  0  0  0  0
    6.9641   -1.2680    0.0000 O   0  0  0  0  0  0  0  0  0  0  0  0
   13.1901   -0.6340    0.0000 O   0  0  0  0  0  0  0  0  0  0  0  0
    7.1962    2.5981    0.0000 N   0  0  3  0  0  0  0  0  0  0  0  0
    5.4641   -0.4019    0.0000 N   0  0  0  0  0  0  0  0  0  0  0  0
    5.4641    3.5981    0.0000 N   0  0  0  0  0  0  0  0  0  0  0  0
   11.6065    0.2933    0.0000 N   0  0  0  0  0  0  0  0  0  0  0  0
   13.1901    1.0981    0.0000 N   0  0  0  0  0  0  0  0  0  0  0  0
    5.4641    0.5981    0.0000 C   0  0  2  0  0  0  0  0  0  0  0  0
    6.3301    1.0981    0.0000 C   0  0  1  0  0  0  0  0  0  0  0  0
    6.3301    2.0981    0.0000 C   0  0  0  0  0  0  0  0  0  0  0  0
    4.5981    1.0981    0.0000 C   0  0  0  0  0  0  0  0  0  0  0  0
    7.1962    3.5981    0.0000 C   0  0  0  0  0  0  0  0  0  0  0  0
    3.7320    0.5981    0.0000 C   0  0  0  0  0  0  0  0  0  0  0  0
    8.9282    1.5981    0.0000 C   0  0  0  0  0  0  0  0  0  0  0  0
    6.3301    4.0981    0.0000 C   0  0  0  0  0  0  0  0  0  0  0  0
    5.9641   -1.2680    0.0000 C   0  0  0  0  0  0  0  0  0  0  0  0
    3.7320   -0.4019    0.0000 C   0  0  0  0  0  0  0  0  0  0  0  0
    2.8660    1.0981    0.0000 C   0  0  0  0  0  0  0  0  0  0  0  0
    9.7942    2.0981    0.0000 C   0  0  0  0  0  0  0  0  0  0  0  0
    8.9282    0.5981    0.0000 C   0  0  0  0  0  0  0  0  0  0  0  0
    5.4641   -2.1340    0.0000 C   0  0  0  0  0  0  0  0  0  0  0  0
   10.6603    1.5981    0.0000 C   0  0  0  0  0  0  0  0  0  0  0  0
   10.6603    0.5981    0.0000 C   0  0  0  0  0  0  0  0  0  0  0  0
    6.3301    5.0981    0.0000 C   0  0  0  0  0  0  0  0  0  0  0  0
    9.7942    0.0981    0.0000 C   0  0  0  0  0  0  0  0  0  0  0  0
    2.8660   -0.9019    0.0000 C   0  0  0  0  0  0  0  0  0  0  0  0
    2.0000    0.5981    0.0000 C   0  0  0  0  0  0  0  0  0  0  0  0
    2.0000   -0.4019    0.0000 C   0  0  0  0  0  0  0  0  0  0  0  0
    5.4641    5.5981    0.0000 C   0  0  0  0  0  0  0  0  0  0  0  0
   12.1901    1.0981    0.0000 C   0  0  0  0  0  0  0  0  0  0  0  0
    4.5981    4.0981    0.0000 C   0  0  0  0  0  0  0  0  0  0  0  0
    4.5981    5.0981    0.0000 C   0  0  0  0  0  0  0  0  0  0  0  0
    5.4641   -3.8660    0.0000 C   0  0  0  0  0  0  0  0  0  0  0  0
    4.4641   -3.8660    0.0000 C   0  0  0  0  0  0  0  0  0  0  0  0
    5.9641   -4.7320    0.0000 C   0  0  0  0  0  0  0  0  0  0  0  0
   13.6901    1.9641    0.0000 C   0  0  0  0  0  0  0  0  0  0  0  0
    3.9641   -4.7320    0.0000 C   0  0  0  0  0  0  0  0  0  0  0  0
    5.4641   -5.5981    0.0000 C   0  0  0  0  0  0  0  0  0  0  0  0
   13.6901    0.2321    0.0000 C   0  0  0  0  0  0  0  0  0  0  0  0
    3.9642   -3.0000    0.0000 C   0  0  0  0  0  0  0  0  0  0  0  0
    6.9641   -4.7320    0.0000 C   0  0  0  0  0  0  0  0  0  0  0  0
    4.4641   -5.5981    0.0000 C   0  0  0  0  0  0  0  0  0  0  0  0
   14.6901    0.2321    0.0000 C   0  0  0  0  0  0  0  0  0  0  0  0
    6.0010    0.2881    0.0000 H   0  0  0  0  0  0  0  0  0  0  0  0
    6.8671    1.4081    0.0000 H   0  0  0  0  0  0  0  0  0  0  0  0
    6.1181    2.6807    0.0000 H   0  0  0  0  0  0  0  0  0  0  0  0
    5.7196    1.9904    0.0000 H   0  0  0  0  0  0  0  0  0  0  0  0
    4.9966    1.5730    0.0000 H   0  0  0  0  0  0  0  0  0  0  0  0
    4.1996    1.5730    0.0000 H   0  0  0  0  0  0  0  0  0  0  0  0
    4.9272   -0.7119    0.0000 H   0  0  0  0  0  0  0  0  0  0  0  0
    7.8067    3.4904    0.0000 H   0  0  0  0  0  0  0  0  0  0  0  0
    7.4082    4.1807    0.0000 H   0  0  0  0  0  0  0  0  0  0  0  0
    7.5062    0.0612    0.0000 H   0  0  0  0  0  0  0  0  0  0  0  0
    4.2690   -0.7119    0.0000 H   0  0  0  0  0  0  0  0  0  0  0  0
    2.8660    1.7181    0.0000 H   0  0  0  0  0  0  0  0  0  0  0  0
    9.7942    2.7181    0.0000 H   0  0  0  0  0  0  0  0  0  0  0  0
    8.3913    0.2881    0.0000 H   0  0  0  0  0  0  0  0  0  0  0  0
    4.9892   -1.7354    0.0000 H   0  0  0  0  0  0  0  0  0  0  0  0
    4.9892   -2.5325    0.0000 H   0  0  0  0  0  0  0  0  0  0  0  0
    6.8671    5.4081    0.0000 H   0  0  0  0  0  0  0  0  0  0  0  0
    9.7942   -0.5219    0.0000 H   0  0  0  0  0  0  0  0  0  0  0  0
    2.8660   -1.5219    0.0000 H   0  0  0  0  0  0  0  0  0  0  0  0
    1.4631    0.9081    0.0000 H   0  0  0  0  0  0  0  0  0  0  0  0
    1.4631   -0.7119    0.0000 H   0  0  0  0  0  0  0  0  0  0  0  0
    5.4641    6.2181    0.0000 H   0  0  0  0  0  0  0  0  0  0  0  0
    4.0611    3.7881    0.0000 H   0  0  0  0  0  0  0  0  0  0  0  0
    4.0611    5.4081    0.0000 H   0  0  0  0  0  0  0  0  0  0  0  0
   14.2270    1.6541    0.0000 H   0  0  0  0  0  0  0  0  0  0  0  0
   14.0001    2.5010    0.0000 H   0  0  0  0  0  0  0  0  0  0  0  0
   13.1531    2.2741    0.0000 H   0  0  0  0  0  0  0  0  0  0  0  0
    3.3441   -4.7320    0.0000 H   0  0  0  0  0  0  0  0  0  0  0  0
    5.7741   -6.1350    0.0000 H   0  0  0  0  0  0  0  0  0  0  0  0
    4.5011   -2.6901    0.0000 H   0  0  0  0  0  0  0  0  0  0  0  0
    3.6542   -2.4631    0.0000 H   0  0  0  0  0  0  0  0  0  0  0  0
    3.4272   -3.3100    0.0000 H   0  0  0  0  0  0  0  0  0  0  0  0
    6.9641   -5.3520    0.0000 H   0  0  0  0  0  0  0  0  0  0  0  0
    7.5841   -4.7320    0.0000 H   0  0  0  0  0  0  0  0  0  0  0  0
    6.9641   -4.1120    0.0000 H   0  0  0  0  0  0  0  0  0  0  0  0
    4.1541   -6.1350    0.0000 H   0  0  0  0  0  0  0  0  0  0  0  0
   14.6901   -0.3879    0.0000 H   0  0  0  0  0  0  0  0  0  0  0  0
   15.3101    0.2321    0.0000 H   0  0  0  0  0  0  0  0  0  0  0  0
   14.6901    0.8521    0.0000 H   0  0  0  0  0  0  0  0  0  0  0  0
  1  4  2  0  0  0  0
  1  5  2  0  0  0  0
  1  9  1  0  0  0  0
  1 20  1  0  0  0  0
  2 28  1  0  0  0  0
  2 36  1  0  0  0  0
 15  3  1  1  0  0  0
  3 59  1  0  0  0  0
  6 27  1  0  0  0  0
  6 39  1  0  0  0  0
  7 22  2  0  0  0  0
  8 45  2  0  0  0  0
  9 16  1  0  0  0  0
  9 18  1  0  0  0  0
 14 10  1  1  0  0  0
 10 22  1  0  0  0  0
 10 56  1  0  0  0  0
 11 21  1  0  0  0  0
 11 37  2  0  0  0  0
 12 29  1  0  0  0  0
 12 36  2  0  0  0  0
 13 36  1  0  0  0  0
 13 42  1  0  0  0  0
 13 45  1  0  0  0  0
 14 15  1  0  0  0  0
 14 17  1  0  0  0  0
 14 50  1  0  0  0  0
 15 16  1  0  0  0  0
 15 51  1  0  0  0  0
 16 52  1  0  0  0  0
 16 53  1  0  0  0  0
 17 19  1  0  0  0  0
 17 54  1  0  0  0  0
 17 55  1  0  0  0  0
 18 21  1  0  0  0  0
 18 57  1  0  0  0  0
 18 58  1  0  0  0  0
 19 23  2  0  0  0  0
 19 24  1  0  0  0  0
 20 25  2  0  0  0  0
 20 26  1  0  0  0  0
 21 30  2  0  0  0  0
 22 27  1  0  0  0  0
 23 32  1  0  0  0  0
 23 60  1  0  0  0  0
 24 33  2  0  0  0  0
 24 61  1  0  0  0  0
 25 28  1  0  0  0  0
 25 62  1  0  0  0  0
 26 31  2  0  0  0  0
 26 63  1  0  0  0  0
 27 64  1  0  0  0  0
 27 65  1  0  0  0  0
 28 29  2  0  0  0  0
 29 31  1  0  0  0  0
 30 35  1  0  0  0  0
 30 66  1  0  0  0  0
 31 67  1  0  0  0  0
 32 34  2  0  0  0  0
 32 68  1  0  0  0  0
 33 34  1  0  0  0  0
 33 69  1  0  0  0  0
 34 70  1  0  0  0  0
 35 38  2  0  0  0  0
 35 71  1  0  0  0  0
 37 38  1  0  0  0  0
 37 72  1  0  0  0  0
 38 73  1  0  0  0  0
 39 40  2  0  0  0  0
 39 41  1  0  0  0  0
 40 43  1  0  0  0  0
 40 46  1  0  0  0  0
 41 44  2  0  0  0  0
 41 47  1  0  0  0  0
 42 74  1  0  0  0  0
 42 75  1  0  0  0  0
 42 76  1  0  0  0  0
 43 48  2  0  0  0  0
 43 77  1  0  0  0  0
 44 48  1  0  0  0  0
 44 78  1  0  0  0  0
 45 49  1  0  0  0  0
 46 79  1  0  0  0  0
 46 80  1  0  0  0  0
 46 81  1  0  0  0  0
 47 82  1  0  0  0  0
 47 83  1  0  0  0  0
 47 84  1  0  0  0  0
 48 85  1  0  0  0  0
 49 86  1  0  0  0  0
 49 87  1  0  0  0  0
 49 88  1  0  0  0  0
M  END
> <PUBCHEM_COMPOUND_CID>
509619
> <PUBCHEM_COMPOUND_CANONICALIZED>
1
> <PUBCHEM_CACTVS_COMPLEXITY>
1170
> <PUBCHEM_CACTVS_HBOND_ACCEPTOR>
10
> <PUBCHEM_CACTVS_HBOND_DONOR>
2
> <PUBCHEM_CACTVS_ROTATABLE_BOND>
14
> <PUBCHEM_CACTVS_SUBSKEYS>
AAADcfB/uABgAAAAAAAAAAAAAAAAAWAAAAA8YMEAAAAAAFgB/AAAHgQQSAAADDzh3gY/17PIFgqsAzV3dHLD+LlxKjhJ2Lx8bJiOduLk+Z+XeCjs1xPY6CeQwOAOAAQCAEAIAQAACAQAgBACAAAAAAAAAA==
> <PUBCHEM_IUPAC_OPENEYE_NAME>
N-[(1S,2R)-3-[[2-[acetyl(methyl)amino]-1,3-benzothiazol-6-yl]sulfonyl-(2-pyridylmethyl)amino]-1-benzyl-2-hydroxy-propyl]-2-(2,6-dimethylphenoxy)acetamide
> <PUBCHEM_IUPAC_CAS_NAME>
N-[(2S,3R)-4-[[2-[acetyl(methyl)amino]-1,3-benzothiazol-6-yl]sulfonyl-(2-pyridinylmethyl)amino]-3-hydroxy-1-phenylbutan-2-yl]-2-(2,6-dimethylphenoxy)acetamide
> <PUBCHEM_IUPAC_NAME_MARKUP>
<I>N</I>-[(2<I>S</I>,3<I>R</I>)-4-[[2-[acetyl(methyl)amino]-1,3-benzothiazol-6-yl]sulfonyl-(pyridin-2-ylmethyl)amino]-3-hydroxy-1-phenylbutan-2-yl]-2-(2,6-dimethylphenoxy)acetamide
> <PUBCHEM_IUPAC_NAME>
N-[(2S,3R)-4-[[2-[acetyl(methyl)amino]-1,3-benzothiazol-6-yl]sulfonyl-(pyridin-2-ylmethyl)amino]-3-hydroxy-1-phenylbutan-2-yl]-2-(2,6-dimethylphenoxy)acetamide
> <PUBCHEM_IUPAC_SYSTEMATIC_NAME>
2-(2,6-dimethylphenoxy)-N-[(2S,3R)-4-[[2-[ethanoyl(methyl)amino]-1,3-benzothiazol-6-yl]sulfonyl-(pyridin-2-ylmethyl)amino]-3-oxidanyl-1-phenyl-butan-2-yl]ethanamide
> <PUBCHEM_IUPAC_TRADITIONAL_NAME>
N-[(1S,2R)-3-[[2-[acetyl(methyl)amino]-1,3-benzothiazol-6-yl]sulfonyl-(2-pyridylmethyl)amino]-1-benzyl-2-hydroxy-propyl]-2-(2,6-dimethylphenoxy)acetamide
> <PUBCHEM_IUPAC_INCHI>
InChI=1S/C36H39N5O6S2/c1-24-11-10-12-25(2)35(24)47-23-34(44)38-31(19-27-13-6-5-7-14-27)32(43)22-41(21-28-15-8-9-18-37-28)49(45,46)29-16-17-30-33(20-29)48-36(39-30)40(4)26(3)42/h5-18,20,31-32,43H,19,21-23H2,1-4H3,(H,38,44)/t31-,32+/m0/s1
> <PUBCHEM_IUPAC_INCHIKEY>
WTQOABDCILXUJS-AJQTZOPKSA-N
> <PUBCHEM_XLOGP3_AA>
4.8
> <PUBCHEM_EXACT_MASS>
701.23417633
> <PUBCHEM_MOLECULAR_FORMULA>
C36H39N5O6S2
> <PUBCHEM_MOLECULAR_WEIGHT>
701.9
> <PUBCHEM_OPENEYE_CAN_SMILES>
CC1=C(C(=CC=C1)C)OCC(=O)NC(CC2=CC=CC=C2)C(CN(CC3=CC=CC=N3)S(=O)(=O)C4=CC5=C(C=C4)N=C(S5)N(C)C(=O)C)O
> <PUBCHEM_OPENEYE_ISO_SMILES>
CC1=C(C(=CC=C1)C)OCC(=O)N[C@@H](CC2=CC=CC=C2)[C@@H](CN(CC3=CC=CC=N3)S(=O)(=O)C4=CC5=C(C=C4)N=C(S5)N(C)C(=O)C)O
> <PUBCHEM_CACTVS_TPSA>
179
> <PUBCHEM_MONOISOTOPIC_WEIGHT>
701.23417633
> <PUBCHEM_TOTAL_CHARGE>
0
> <PUBCHEM_HEAVY_ATOM_COUNT>
49
> <PUBCHEM_ATOM_DEF_STEREO_COUNT>
2
> <PUBCHEM_ATOM_UDEF_STEREO_COUNT>
0
> <PUBCHEM_BOND_DEF_STEREO_COUNT>
0
> <PUBCHEM_BOND_UDEF_STEREO_COUNT>
0
> <PUBCHEM_ISOTOPIC_ATOM_COUNT>
0
> <PUBCHEM_COMPONENT_COUNT>
1
> <PUBCHEM_CACTVS_TAUTO_COUNT>
-1
> <PUBCHEM_COORDINATE_TYPE>
1
5
255
> <PUBCHEM_BONDANNOTATIONS>
14  10  5
11  21  8
11  37  8
12  29  8
12  36  8
19  23  8
19  24  8
2  28  8
2  36  8
20  25  8
20  26  8
21  30  8
23  32  8
24  33  8
25  28  8
26  31  8
28  29  8
29  31  8
15  3  5
30  35  8
32  34  8
33  34  8
35  38  8
37  38  8
39  40  8
39  41  8
40  43  8
41  44  8
43  48  8
44  48  8
$$$$
