509686
  -OEChem-10302200282D
101105  0     1  0  0  0  0  0999 V2000
    9.7942   -0.2679    0.0000 S   0  0  0  0  0  0  0  0  0  0  0  0
   13.3385   -0.4632    0.0000 S   0  0  0  0  0  0  0  0  0  0  0  0
    7.1962    1.2320    0.0000 O   0  0  0  0  0  0  0  0  0  0  0  0
    9.2942   -1.1340    0.0000 O   0  0  0  0  0  0  0  0  0  0  0  0
   10.2942    0.5981    0.0000 O   0  0  0  0  0  0  0  0  0  0  0  0
    6.3301    1.7320    0.0000 O   0  0  0  0  0  0  0  0  0  0  0  0
    4.5981    2.7320    0.0000 O   0  0  0  0  0  0  0  0  0  0  0  0
   14.9221   -3.0000    0.0000 O   0  0  0  0  0  0  0  0  0  0  0  0
   18.4221   -3.8660    0.0000 O   0  0  0  0  0  0  0  0  0  0  0  0
   18.4221   -0.4019    0.0000 O   0  0  0  0  0  0  0  0  0  0  0  0
   19.4221   -2.1340    0.0000 O   0  0  0  0  0  0  0  0  0  0  0  0
    8.9282    0.2321    0.0000 N   0  0  3  0  0  0  0  0  0  0  0  0
    5.4641    0.2321    0.0000 N   0  0  0  0  0  0  0  0  0  0  0  0
   13.3385   -2.0727    0.0000 N   0  0  0  0  0  0  0  0  0  0  0  0
   14.9221   -1.2680    0.0000 N   0  0  0  0  0  0  0  0  0  0  0  0
    7.1962    0.2321    0.0000 C   0  0  2  0  0  0  0  0  0  0  0  0
    8.0622   -0.2679    0.0000 C   0  0  0  0  0  0  0  0  0  0  0  0
    6.3301   -0.2679    0.0000 C   0  0  2  0  0  0  0  0  0  0  0  0
    8.9282    1.2320    0.0000 C   0  0  0  0  0  0  0  0  0  0  0  0
    9.7942    1.7320    0.0000 C   0  0  0  0  0  0  0  0  0  0  0  0
    6.3301   -1.2680    0.0000 C   0  0  0  0  0  0  0  0  0  0  0  0
   10.6603   -0.7679    0.0000 C   0  0  0  0  0  0  0  0  0  0  0  0
    5.4641   -1.7680    0.0000 C   0  0  0  0  0  0  0  0  0  0  0  0
    9.7942    2.7320    0.0000 C   0  0  0  0  0  0  0  0  0  0  0  0
   10.6603    1.2320    0.0000 C   0  0  0  0  0  0  0  0  0  0  0  0
    5.4641    1.2320    0.0000 C   0  0  0  0  0  0  0  0  0  0  0  0
   11.5263   -0.2679    0.0000 C   0  0  0  0  0  0  0  0  0  0  0  0
   10.6603   -1.7680    0.0000 C   0  0  0  0  0  0  0  0  0  0  0  0
    5.4641   -2.7680    0.0000 C   0  0  0  0  0  0  0  0  0  0  0  0
    4.5981   -1.2680    0.0000 C   0  0  0  0  0  0  0  0  0  0  0  0
   12.3923   -0.7679    0.0000 C   0  0  0  0  0  0  0  0  0  0  0  0
    4.5981    1.7320    0.0000 C   0  0  0  0  0  0  0  0  0  0  0  0
   11.5263   -2.2680    0.0000 C   0  0  0  0  0  0  0  0  0  0  0  0
   12.3923   -1.7680    0.0000 C   0  0  0  0  0  0  0  0  0  0  0  0
    4.5981   -3.2680    0.0000 C   0  0  0  0  0  0  0  0  0  0  0  0
    3.7320   -1.7680    0.0000 C   0  0  0  0  0  0  0  0  0  0  0  0
    3.7320   -2.7680    0.0000 C   0  0  0  0  0  0  0  0  0  0  0  0
   13.9221   -1.2680    0.0000 C   0  0  0  0  0  0  0  0  0  0  0  0
    3.7320    3.2320    0.0000 C   0  0  0  0  0  0  0  0  0  0  0  0
    2.8660    2.7320    0.0000 C   0  0  0  0  0  0  0  0  0  0  0  0
    3.7320    4.2320    0.0000 C   0  0  0  0  0  0  0  0  0  0  0  0
    2.0000    3.2320    0.0000 C   0  0  0  0  0  0  0  0  0  0  0  0
    2.8660    4.7320    0.0000 C   0  0  0  0  0  0  0  0  0  0  0  0
   15.4221   -2.1340    0.0000 C   0  0  0  0  0  0  0  0  0  0  0  0
    2.8660    1.7320    0.0000 C   0  0  0  0  0  0  0  0  0  0  0  0
    4.5981    4.7320    0.0000 C   0  0  0  0  0  0  0  0  0  0  0  0
    2.0000    4.2320    0.0000 C   0  0  0  0  0  0  0  0  0  0  0  0
   16.4221   -2.1340    0.0000 C   0  0  0  0  0  0  0  0  0  0  0  0
   16.9221   -1.2680    0.0000 C   0  0  0  0  0  0  0  0  0  0  0  0
   16.9221   -3.0000    0.0000 C   0  0  0  0  0  0  0  0  0  0  0  0
   17.9221   -3.0000    0.0000 C   0  0  0  0  0  0  0  0  0  0  0  0
   17.9221   -1.2680    0.0000 C   0  0  0  0  0  0  0  0  0  0  0  0
   18.4221   -2.1340    0.0000 C   0  0  0  0  0  0  0  0  0  0  0  0
   17.9221   -4.7320    0.0000 C   0  0  0  0  0  0  0  0  0  0  0  0
   17.9221    0.4641    0.0000 C   0  0  0  0  0  0  0  0  0  0  0  0
    6.6592    0.5421    0.0000 H   0  0  0  0  0  0  0  0  0  0  0  0
    7.6636   -0.7429    0.0000 H   0  0  0  0  0  0  0  0  0  0  0  0
    8.4607   -0.7429    0.0000 H   0  0  0  0  0  0  0  0  0  0  0  0
    5.7932   -0.5779    0.0000 H   0  0  0  0  0  0  0  0  0  0  0  0
    8.7162    1.8147    0.0000 H   0  0  0  0  0  0  0  0  0  0  0  0
    8.3176    1.1244    0.0000 H   0  0  0  0  0  0  0  0  0  0  0  0
    9.2573    2.0420    0.0000 H   0  0  0  0  0  0  0  0  0  0  0  0
    6.5422   -1.8506    0.0000 H   0  0  0  0  0  0  0  0  0  0  0  0
    6.9407   -1.1603    0.0000 H   0  0  0  0  0  0  0  0  0  0  0  0
    4.9272   -0.0779    0.0000 H   0  0  0  0  0  0  0  0  0  0  0  0
   10.4142    2.7320    0.0000 H   0  0  0  0  0  0  0  0  0  0  0  0
    9.7942    3.3520    0.0000 H   0  0  0  0  0  0  0  0  0  0  0  0
    9.1742    2.7320    0.0000 H   0  0  0  0  0  0  0  0  0  0  0  0
   10.3503    0.6951    0.0000 H   0  0  0  0  0  0  0  0  0  0  0  0
   11.1972    0.9221    0.0000 H   0  0  0  0  0  0  0  0  0  0  0  0
   10.9703    1.7690    0.0000 H   0  0  0  0  0  0  0  0  0  0  0  0
    7.7331    1.5420    0.0000 H   0  0  0  0  0  0  0  0  0  0  0  0
   11.5263    0.3521    0.0000 H   0  0  0  0  0  0  0  0  0  0  0  0
   10.1233   -2.0780    0.0000 H   0  0  0  0  0  0  0  0  0  0  0  0
    6.0010   -3.0780    0.0000 H   0  0  0  0  0  0  0  0  0  0  0  0
    4.5981   -0.6479    0.0000 H   0  0  0  0  0  0  0  0  0  0  0  0
    3.9875    1.8397    0.0000 H   0  0  0  0  0  0  0  0  0  0  0  0
    4.3860    1.1494    0.0000 H   0  0  0  0  0  0  0  0  0  0  0  0
   11.5263   -2.8880    0.0000 H   0  0  0  0  0  0  0  0  0  0  0  0
    4.5981   -3.8880    0.0000 H   0  0  0  0  0  0  0  0  0  0  0  0
    3.1951   -1.4580    0.0000 H   0  0  0  0  0  0  0  0  0  0  0  0
    3.1951   -3.0780    0.0000 H   0  0  0  0  0  0  0  0  0  0  0  0
   15.2321   -0.7310    0.0000 H   0  0  0  0  0  0  0  0  0  0  0  0
    1.4631    2.9220    0.0000 H   0  0  0  0  0  0  0  0  0  0  0  0
    2.8660    5.3520    0.0000 H   0  0  0  0  0  0  0  0  0  0  0  0
    2.2460    1.7320    0.0000 H   0  0  0  0  0  0  0  0  0  0  0  0
    2.8660    1.1120    0.0000 H   0  0  0  0  0  0  0  0  0  0  0  0
    3.4860    1.7320    0.0000 H   0  0  0  0  0  0  0  0  0  0  0  0
    4.9081    4.1951    0.0000 H   0  0  0  0  0  0  0  0  0  0  0  0
    5.1350    5.0420    0.0000 H   0  0  0  0  0  0  0  0  0  0  0  0
    4.2881    5.2690    0.0000 H   0  0  0  0  0  0  0  0  0  0  0  0
    1.4631    4.5420    0.0000 H   0  0  0  0  0  0  0  0  0  0  0  0
   16.6121   -0.7310    0.0000 H   0  0  0  0  0  0  0  0  0  0  0  0
   16.6121   -3.5369    0.0000 H   0  0  0  0  0  0  0  0  0  0  0  0
   19.7321   -2.6709    0.0000 H   0  0  0  0  0  0  0  0  0  0  0  0
   17.3852   -4.4220    0.0000 H   0  0  0  0  0  0  0  0  0  0  0  0
   17.6121   -5.2690    0.0000 H   0  0  0  0  0  0  0  0  0  0  0  0
   18.4591   -5.0420    0.0000 H   0  0  0  0  0  0  0  0  0  0  0  0
   18.4591    0.7741    0.0000 H   0  0  0  0  0  0  0  0  0  0  0  0
   17.6121    1.0010    0.0000 H   0  0  0  0  0  0  0  0  0  0  0  0
   17.3852    0.1541    0.0000 H   0  0  0  0  0  0  0  0  0  0  0  0
  1  4  2  0  0  0  0
  1  5  2  0  0  0  0
  1 12  1  0  0  0  0
  1 22  1  0  0  0  0
  2 31  1  0  0  0  0
  2 38  1  0  0  0  0
 16  3  1  6  0  0  0
  3 72  1  0  0  0  0
  6 26  2  0  0  0  0
  7 32  1  0  0  0  0
  7 39  1  0  0  0  0
  8 44  2  0  0  0  0
  9 51  1  0  0  0  0
  9 54  1  0  0  0  0
 10 52  1  0  0  0  0
 10 55  1  0  0  0  0
 11 53  1  0  0  0  0
 11 95  1  0  0  0  0
 12 17  1  0  0  0  0
 12 19  1  0  0  0  0
 18 13  1  6  0  0  0
 13 26  1  0  0  0  0
 13 65  1  0  0  0  0
 14 34  1  0  0  0  0
 14 38  2  0  0  0  0
 15 38  1  0  0  0  0
 15 44  1  0  0  0  0
 15 83  1  0  0  0  0
 16 17  1  0  0  0  0
 16 18  1  0  0  0  0
 16 56  1  0  0  0  0
 17 57  1  0  0  0  0
 17 58  1  0  0  0  0
 18 21  1  0  0  0  0
 18 59  1  0  0  0  0
 19 20  1  0  0  0  0
 19 60  1  0  0  0  0
 19 61  1  0  0  0  0
 20 24  1  0  0  0  0
 20 25  1  0  0  0  0
 20 62  1  0  0  0  0
 21 23  1  0  0  0  0
 21 63  1  0  0  0  0
 21 64  1  0  0  0  0
 22 27  2  0  0  0  0
 22 28  1  0  0  0  0
 23 29  2  0  0  0  0
 23 30  1  0  0  0  0
 24 66  1  0  0  0  0
 24 67  1  0  0  0  0
 24 68  1  0  0  0  0
 25 69  1  0  0  0  0
 25 70  1  0  0  0  0
 25 71  1  0  0  0  0
 26 32  1  0  0  0  0
 27 31  1  0  0  0  0
 27 73  1  0  0  0  0
 28 33  2  0  0  0  0
 28 74  1  0  0  0  0
 29 35  1  0  0  0  0
 29 75  1  0  0  0  0
 30 36  2  0  0  0  0
 30 76  1  0  0  0  0
 31 34  2  0  0  0  0
 32 77  1  0  0  0  0
 32 78  1  0  0  0  0
 33 34  1  0  0  0  0
 33 79  1  0  0  0  0
 35 37  2  0  0  0  0
 35 80  1  0  0  0  0
 36 37  1  0  0  0  0
 36 81  1  0  0  0  0
 37 82  1  0  0  0  0
 39 40  2  0  0  0  0
 39 41  1  0  0  0  0
 40 42  1  0  0  0  0
 40 45  1  0  0  0  0
 41 43  2  0  0  0  0
 41 46  1  0  0  0  0
 42 47  2  0  0  0  0
 42 84  1  0  0  0  0
 43 47  1  0  0  0  0
 43 85  1  0  0  0  0
 44 48  1  0  0  0  0
 45 86  1  0  0  0  0
 45 87  1  0  0  0  0
 45 88  1  0  0  0  0
 46 89  1  0  0  0  0
 46 90  1  0  0  0  0
 46 91  1  0  0  0  0
 47 92  1  0  0  0  0
 48 49  2  0  0  0  0
 48 50  1  0  0  0  0
 49 52  1  0  0  0  0
 49 93  1  0  0  0  0
 50 51  2  0  0  0  0
 50 94  1  0  0  0  0
 51 53  1  0  0  0  0
 52 53  2  0  0  0  0
 54 96  1  0  0  0  0
 54 97  1  0  0  0  0
 54 98  1  0  0  0  0
 55 99  1  0  0  0  0
 55100  1  0  0  0  0
 55101  1  0  0  0  0
M  END
> <PUBCHEM_COMPOUND_CID>
509686
> <PUBCHEM_COMPOUND_CANONICALIZED>
1
> <PUBCHEM_CACTVS_COMPLEXITY>
1310
> <PUBCHEM_CACTVS_HBOND_ACCEPTOR>
12
> <PUBCHEM_CACTVS_HBOND_DONOR>
4
> <PUBCHEM_CACTVS_ROTATABLE_BOND>
17
> <PUBCHEM_CACTVS_SUBSKEYS>
AAADcfB/vABgAAAAAAAAAAAAAAAAAWAAAAAwYMGAAAAAAFgB9AAAHgQQSAAADTzh3gYz17LIFgqsAyVydHLD+LllKjlJmL1+7NiPN7Lm/Z+HeSvt1xfb+ae6/P7OIAQDCEAIQQBACAYQgBCCAAAAAAAAAA==
> <PUBCHEM_IUPAC_OPENEYE_NAME>
N-[6-[[(2R,3S)-3-[[2-(2,6-dimethylphenoxy)acetyl]amino]-2-hydroxy-4-phenyl-butyl]-isobutyl-sulfamoyl]-1,3-benzothiazol-2-yl]-4-hydroxy-3,5-dimethoxy-benzamide
> <PUBCHEM_IUPAC_CAS_NAME>
N-[6-[[(2R,3S)-3-[[2-(2,6-dimethylphenoxy)-1-oxoethyl]amino]-2-hydroxy-4-phenylbutyl]-(2-methylpropyl)sulfamoyl]-1,3-benzothiazol-2-yl]-4-hydroxy-3,5-dimethoxybenzamide
> <PUBCHEM_IUPAC_NAME_MARKUP>
<I>N</I>-[6-[[(2<I>R</I>,3<I>S</I>)-3-[[2-(2,6-dimethylphenoxy)acetyl]amino]-2-hydroxy-4-phenylbutyl]-(2-methylpropyl)sulfamoyl]-1,3-benzothiazol-2-yl]-4-hydroxy-3,5-dimethoxybenzamide
> <PUBCHEM_IUPAC_NAME>
N-[6-[[(2R,3S)-3-[[2-(2,6-dimethylphenoxy)acetyl]amino]-2-hydroxy-4-phenylbutyl]-(2-methylpropyl)sulfamoyl]-1,3-benzothiazol-2-yl]-4-hydroxy-3,5-dimethoxybenzamide
> <PUBCHEM_IUPAC_SYSTEMATIC_NAME>
N-[6-[[(2R,3S)-3-[2-(2,6-dimethylphenoxy)ethanoylamino]-2-oxidanyl-4-phenyl-butyl]-(2-methylpropyl)sulfamoyl]-1,3-benzothiazol-2-yl]-3,5-dimethoxy-4-oxidanyl-benzamide
> <PUBCHEM_IUPAC_TRADITIONAL_NAME>
N-[6-[[(2R,3S)-3-[[2-(2,6-dimethylphenoxy)acetyl]amino]-2-hydroxy-4-phenyl-butyl]-isobutyl-sulfamoyl]-1,3-benzothiazol-2-yl]-4-hydroxy-3,5-dimethoxy-benzamide
> <PUBCHEM_IUPAC_INCHI>
InChI=1S/C40H46N4O9S2/c1-24(2)21-44(22-32(45)31(17-27-13-8-7-9-14-27)41-36(46)23-53-38-25(3)11-10-12-26(38)4)55(49,50)29-15-16-30-35(20-29)54-40(42-30)43-39(48)28-18-33(51-5)37(47)34(19-28)52-6/h7-16,18-20,24,31-32,45,47H,17,21-23H2,1-6H3,(H,41,46)(H,42,43,48)/t31-,32+/m0/s1
> <PUBCHEM_IUPAC_INCHIKEY>
RFWOTPFZGISIRM-AJQTZOPKSA-N
> <PUBCHEM_XLOGP3_AA>
6.8
> <PUBCHEM_EXACT_MASS>
790.27062140
> <PUBCHEM_MOLECULAR_FORMULA>
C40H46N4O9S2
> <PUBCHEM_MOLECULAR_WEIGHT>
790.9
> <PUBCHEM_OPENEYE_CAN_SMILES>
CC1=C(C(=CC=C1)C)OCC(=O)NC(CC2=CC=CC=C2)C(CN(CC(C)C)S(=O)(=O)C3=CC4=C(C=C3)N=C(S4)NC(=O)C5=CC(=C(C(=C5)OC)O)OC)O
> <PUBCHEM_OPENEYE_ISO_SMILES>
CC1=C(C(=CC=C1)C)OCC(=O)N[C@@H](CC2=CC=CC=C2)[C@@H](CN(CC(C)C)S(=O)(=O)C3=CC4=C(C=C3)N=C(S4)NC(=O)C5=CC(=C(C(=C5)OC)O)OC)O
> <PUBCHEM_CACTVS_TPSA>
213
> <PUBCHEM_MONOISOTOPIC_WEIGHT>
790.27062140
> <PUBCHEM_TOTAL_CHARGE>
0
> <PUBCHEM_HEAVY_ATOM_COUNT>
55
> <PUBCHEM_ATOM_DEF_STEREO_COUNT>
2
> <PUBCHEM_ATOM_UDEF_STEREO_COUNT>
0
> <PUBCHEM_BOND_DEF_STEREO_COUNT>
0
> <PUBCHEM_BOND_UDEF_STEREO_COUNT>
0
> <PUBCHEM_ISOTOPIC_ATOM_COUNT>
0
> <PUBCHEM_COMPONENT_COUNT>
1
> <PUBCHEM_CACTVS_TAUTO_COUNT>
-1
> <PUBCHEM_COORDINATE_TYPE>
1
5
255
> <PUBCHEM_BONDANNOTATIONS>
18  13  6
14  34  8
14  38  8
2  31  8
2  38  8
22  27  8
22  28  8
23  29  8
23  30  8
27  31  8
28  33  8
29  35  8
16  3  6
30  36  8
31  34  8
33  34  8
35  37  8
36  37  8
39  40  8
39  41  8
40  42  8
41  43  8
42  47  8
43  47  8
48  49  8
48  50  8
49  52  8
50  51  8
51  53  8
52  53  8
$$$$
