509602
  -OEChem-10302200282D
 90 94  0     1  0  0  0  0  0999 V2000
    9.3056   -0.7615    0.0000 S   0  0  0  0  0  0  0  0  0  0  0  0
   12.8499   -0.9568    0.0000 S   0  0  0  0  0  0  0  0  0  0  0  0
    4.6095    3.7774    0.0000 O   0  0  0  0  0  0  0  0  0  0  0  0
    2.8037    4.3596    0.0000 O   0  0  0  0  0  0  0  0  0  0  0  0
    4.1095    1.2385    0.0000 O   0  0  0  0  0  0  0  0  0  0  0  0
    6.7075    0.7385    0.0000 O   0  0  0  0  0  0  0  0  0  0  0  0
    5.8415    1.2385    0.0000 O   0  0  0  0  0  0  0  0  0  0  0  0
    8.8056   -1.6275    0.0000 O   0  0  0  0  0  0  0  0  0  0  0  0
    9.8056    0.1045    0.0000 O   0  0  0  0  0  0  0  0  0  0  0  0
   14.4335   -3.4935    0.0000 O   0  0  0  0  0  0  0  0  0  0  0  0
    4.9755   -0.2615    0.0000 N   0  0  0  0  0  0  0  0  0  0  0  0
    8.4396   -0.2615    0.0000 N   0  0  3  0  0  0  0  0  0  0  0  0
   12.8499   -2.5662    0.0000 N   0  0  0  0  0  0  0  0  0  0  0  0
   14.4335   -1.7615    0.0000 N   0  0  0  0  0  0  0  0  0  0  0  0
   16.4335   -3.4935    0.0000 N   0  0  0  0  0  0  0  0  0  0  0  0
    3.3004    2.8263    0.0000 C   0  0  2  0  0  0  0  0  0  0  0  0
    3.6095    3.7774    0.0000 C   0  0  1  0  0  0  0  0  0  0  0  0
    4.1095    2.2385    0.0000 C   0  0  2  0  0  0  0  0  0  0  0  0
    2.3064    2.8289    0.0000 C   0  0  0  0  0  0  0  0  0  0  0  0
    4.9185    2.8263    0.0000 C   0  0  0  0  0  0  0  0  0  0  0  0
    2.0000    3.7746    0.0000 C   0  0  0  0  0  0  0  0  0  0  0  0
    5.8415   -0.7615    0.0000 C   0  0  2  0  0  0  0  0  0  0  0  0
    4.9755    0.7385    0.0000 C   0  0  0  0  0  0  0  0  0  0  0  0
    6.7075   -0.2615    0.0000 C   0  0  1  0  0  0  0  0  0  0  0  0
    7.5736   -0.7615    0.0000 C   0  0  0  0  0  0  0  0  0  0  0  0
    5.8415   -1.7615    0.0000 C   0  0  0  0  0  0  0  0  0  0  0  0
    8.4396    0.7385    0.0000 C   0  0  0  0  0  0  0  0  0  0  0  0
    9.3056    1.2385    0.0000 C   0  0  0  0  0  0  0  0  0  0  0  0
    4.9755   -2.2615    0.0000 C   0  0  0  0  0  0  0  0  0  0  0  0
   10.1716   -1.2615    0.0000 C   0  0  0  0  0  0  0  0  0  0  0  0
    9.3056    2.2385    0.0000 C   0  0  0  0  0  0  0  0  0  0  0  0
   10.1716    0.7385    0.0000 C   0  0  0  0  0  0  0  0  0  0  0  0
    4.9755   -3.2615    0.0000 C   0  0  0  0  0  0  0  0  0  0  0  0
    4.1095   -1.7615    0.0000 C   0  0  0  0  0  0  0  0  0  0  0  0
   11.0377   -0.7615    0.0000 C   0  0  0  0  0  0  0  0  0  0  0  0
   10.1716   -2.2615    0.0000 C   0  0  0  0  0  0  0  0  0  0  0  0
   11.9037   -1.2615    0.0000 C   0  0  0  0  0  0  0  0  0  0  0  0
    4.1095   -3.7615    0.0000 C   0  0  0  0  0  0  0  0  0  0  0  0
    3.2434   -2.2615    0.0000 C   0  0  0  0  0  0  0  0  0  0  0  0
   11.0377   -2.7615    0.0000 C   0  0  0  0  0  0  0  0  0  0  0  0
   11.9037   -2.2615    0.0000 C   0  0  0  0  0  0  0  0  0  0  0  0
    3.2434   -3.2615    0.0000 C   0  0  0  0  0  0  0  0  0  0  0  0
   13.4335   -1.7615    0.0000 C   0  0  0  0  0  0  0  0  0  0  0  0
   14.9335   -2.6275    0.0000 C   0  0  0  0  0  0  0  0  0  0  0  0
   15.9335   -2.6275    0.0000 C   0  0  0  0  0  0  0  0  0  0  0  0
   17.4335   -3.4935    0.0000 C   0  0  0  0  0  0  0  0  0  0  0  0
   15.9335   -4.3596    0.0000 C   0  0  0  0  0  0  0  0  0  0  0  0
    3.0367    2.0182    0.0000 H   0  0  0  0  0  0  0  0  0  0  0  0
    3.8711    4.5861    0.0000 H   0  0  0  0  0  0  0  0  0  0  0  0
    3.5570    1.9570    0.0000 H   0  0  0  0  0  0  0  0  0  0  0  0
    1.6997    2.7008    0.0000 H   0  0  0  0  0  0  0  0  0  0  0  0
    2.3699    2.2121    0.0000 H   0  0  0  0  0  0  0  0  0  0  0  0
    5.2285    2.2894    0.0000 H   0  0  0  0  0  0  0  0  0  0  0  0
    5.4849    3.0785    0.0000 H   0  0  0  0  0  0  0  0  0  0  0  0
    1.6898    4.3114    0.0000 H   0  0  0  0  0  0  0  0  0  0  0  0
    1.4335    3.5226    0.0000 H   0  0  0  0  0  0  0  0  0  0  0  0
    5.8415   -0.1415    0.0000 H   0  0  0  0  0  0  0  0  0  0  0  0
    7.2445    0.0485    0.0000 H   0  0  0  0  0  0  0  0  0  0  0  0
    4.4386   -0.5715    0.0000 H   0  0  0  0  0  0  0  0  0  0  0  0
    7.1750   -1.2364    0.0000 H   0  0  0  0  0  0  0  0  0  0  0  0
    7.9721   -1.2364    0.0000 H   0  0  0  0  0  0  0  0  0  0  0  0
    6.0536   -2.3441    0.0000 H   0  0  0  0  0  0  0  0  0  0  0  0
    6.4521   -1.6538    0.0000 H   0  0  0  0  0  0  0  0  0  0  0  0
    8.2275    1.3211    0.0000 H   0  0  0  0  0  0  0  0  0  0  0  0
    7.8290    0.6308    0.0000 H   0  0  0  0  0  0  0  0  0  0  0  0
    8.7687    1.5485    0.0000 H   0  0  0  0  0  0  0  0  0  0  0  0
    7.2445    1.0485    0.0000 H   0  0  0  0  0  0  0  0  0  0  0  0
    9.9256    2.2385    0.0000 H   0  0  0  0  0  0  0  0  0  0  0  0
    9.3056    2.8585    0.0000 H   0  0  0  0  0  0  0  0  0  0  0  0
    8.6856    2.2385    0.0000 H   0  0  0  0  0  0  0  0  0  0  0  0
    9.8616    0.2016    0.0000 H   0  0  0  0  0  0  0  0  0  0  0  0
   10.7086    0.4285    0.0000 H   0  0  0  0  0  0  0  0  0  0  0  0
   10.4816    1.2754    0.0000 H   0  0  0  0  0  0  0  0  0  0  0  0
    5.5124   -3.5715    0.0000 H   0  0  0  0  0  0  0  0  0  0  0  0
    4.1095   -1.1415    0.0000 H   0  0  0  0  0  0  0  0  0  0  0  0
   11.0377   -0.1415    0.0000 H   0  0  0  0  0  0  0  0  0  0  0  0
    9.6347   -2.5715    0.0000 H   0  0  0  0  0  0  0  0  0  0  0  0
    4.1095   -4.3815    0.0000 H   0  0  0  0  0  0  0  0  0  0  0  0
    2.7065   -1.9515    0.0000 H   0  0  0  0  0  0  0  0  0  0  0  0
   11.0377   -3.3815    0.0000 H   0  0  0  0  0  0  0  0  0  0  0  0
    2.7065   -3.5715    0.0000 H   0  0  0  0  0  0  0  0  0  0  0  0
   14.7435   -1.2246    0.0000 H   0  0  0  0  0  0  0  0  0  0  0  0
   16.5161   -2.4155    0.0000 H   0  0  0  0  0  0  0  0  0  0  0  0
   15.8259   -2.0169    0.0000 H   0  0  0  0  0  0  0  0  0  0  0  0
   17.4335   -4.1135    0.0000 H   0  0  0  0  0  0  0  0  0  0  0  0
   18.0535   -3.4935    0.0000 H   0  0  0  0  0  0  0  0  0  0  0  0
   17.4335   -2.8735    0.0000 H   0  0  0  0  0  0  0  0  0  0  0  0
   15.3966   -4.0496    0.0000 H   0  0  0  0  0  0  0  0  0  0  0  0
   15.6235   -4.8965    0.0000 H   0  0  0  0  0  0  0  0  0  0  0  0
   16.4705   -4.6696    0.0000 H   0  0  0  0  0  0  0  0  0  0  0  0
  1  8  2  0  0  0  0
  1  9  2  0  0  0  0
  1 12  1  0  0  0  0
  1 30  1  0  0  0  0
  2 37  1  0  0  0  0
  2 43  1  0  0  0  0
  3 17  1  0  0  0  0
  3 20  1  0  0  0  0
  4 17  1  0  0  0  0
  4 21  1  0  0  0  0
 18  5  1  6  0  0  0
  5 23  1  0  0  0  0
 24  6  1  6  0  0  0
  6 67  1  0  0  0  0
  7 23  2  0  0  0  0
 10 44  2  0  0  0  0
 22 11  1  6  0  0  0
 11 23  1  0  0  0  0
 11 59  1  0  0  0  0
 12 25  1  0  0  0  0
 12 27  1  0  0  0  0
 13 41  1  0  0  0  0
 13 43  2  0  0  0  0
 14 43  1  0  0  0  0
 14 44  1  0  0  0  0
 14 82  1  0  0  0  0
 15 45  1  0  0  0  0
 15 46  1  0  0  0  0
 15 47  1  0  0  0  0
 16 17  1  0  0  0  0
 16 18  1  0  0  0  0
 16 19  1  0  0  0  0
 16 48  1  1  0  0  0
 17 49  1  1  0  0  0
 18 20  1  0  0  0  0
 18 50  1  0  0  0  0
 19 21  1  0  0  0  0
 19 51  1  0  0  0  0
 19 52  1  0  0  0  0
 20 53  1  0  0  0  0
 20 54  1  0  0  0  0
 21 55  1  0  0  0  0
 21 56  1  0  0  0  0
 22 24  1  0  0  0  0
 22 26  1  0  0  0  0
 22 57  1  0  0  0  0
 24 25  1  0  0  0  0
 24 58  1  0  0  0  0
 25 60  1  0  0  0  0
 25 61  1  0  0  0  0
 26 29  1  0  0  0  0
 26 62  1  0  0  0  0
 26 63  1  0  0  0  0
 27 28  1  0  0  0  0
 27 64  1  0  0  0  0
 27 65  1  0  0  0  0
 28 31  1  0  0  0  0
 28 32  1  0  0  0  0
 28 66  1  0  0  0  0
 29 33  2  0  0  0  0
 29 34  1  0  0  0  0
 30 35  2  0  0  0  0
 30 36  1  0  0  0  0
 31 68  1  0  0  0  0
 31 69  1  0  0  0  0
 31 70  1  0  0  0  0
 32 71  1  0  0  0  0
 32 72  1  0  0  0  0
 32 73  1  0  0  0  0
 33 38  1  0  0  0  0
 33 74  1  0  0  0  0
 34 39  2  0  0  0  0
 34 75  1  0  0  0  0
 35 37  1  0  0  0  0
 35 76  1  0  0  0  0
 36 40  2  0  0  0  0
 36 77  1  0  0  0  0
 37 41  2  0  0  0  0
 38 42  2  0  0  0  0
 38 78  1  0  0  0  0
 39 42  1  0  0  0  0
 39 79  1  0  0  0  0
 40 41  1  0  0  0  0
 40 80  1  0  0  0  0
 42 81  1  0  0  0  0
 44 45  1  0  0  0  0
 45 83  1  0  0  0  0
 45 84  1  0  0  0  0
 46 85  1  0  0  0  0
 46 86  1  0  0  0  0
 46 87  1  0  0  0  0
 47 88  1  0  0  0  0
 47 89  1  0  0  0  0
 47 90  1  0  0  0  0
M  END
> <PUBCHEM_COMPOUND_CID>
509602
> <PUBCHEM_COMPOUND_CANONICALIZED>
1
> <PUBCHEM_CACTVS_COMPLEXITY>
1150
> <PUBCHEM_CACTVS_HBOND_ACCEPTOR>
12
> <PUBCHEM_CACTVS_HBOND_DONOR>
3
> <PUBCHEM_CACTVS_ROTATABLE_BOND>
15
> <PUBCHEM_CACTVS_SUBSKEYS>
AAADcfB/vABgAAAAAAAAAAAAAAAAAWJEgAAwYAAAAAASAFgB9AAAHgQQSAAADTzx3gcz2bPIFgqsAyVyfHDD8LlhCjlJmLy4ZJmbcKLg2bG+YAhtlwLeyCfQ4KgOAAQAAEAAAQAACAAAgAACAAAAAAAAAA==
> <PUBCHEM_IUPAC_OPENEYE_NAME>
[(3aS,4R,6aR)-2,3,3a,4,5,6a-hexahydrofuro[2,3-b]furan-4-yl] N-[(1S,2R)-1-benzyl-3-[[2-[[2-(dimethylamino)acetyl]amino]-1,3-benzothiazol-6-yl]sulfonyl-isobutyl-amino]-2-hydroxy-propyl]carbamate
> <PUBCHEM_IUPAC_CAS_NAME>
N-[(2S,3R)-4-[[2-[[2-(dimethylamino)-1-oxoethyl]amino]-1,3-benzothiazol-6-yl]sulfonyl-(2-methylpropyl)amino]-3-hydroxy-1-phenylbutan-2-yl]carbamic acid [(3aS,4R,6aR)-2,3,3a,4,5,6a-hexahydrofuro[2,3-b]furan-4-yl] ester
> <PUBCHEM_IUPAC_NAME_MARKUP>
[(3<I>a</I><I>S</I>,4<I>R</I>,6<I>a</I><I>R</I>)-2,3,3<I>a</I>,4,5,6<I>a</I>-hexahydrofuro[2,3-b]furan-4-yl] <I>N</I>-[(2<I>S</I>,3<I>R</I>)-4-[[2-[[2-(dimethylamino)acetyl]amino]-1,3-benzothiazol-6-yl]sulfonyl-(2-methylpropyl)amino]-3-hydroxy-1-phenylbutan-2-yl]carbamate
> <PUBCHEM_IUPAC_NAME>
[(3aS,4R,6aR)-2,3,3a,4,5,6a-hexahydrofuro[2,3-b]furan-4-yl] N-[(2S,3R)-4-[[2-[[2-(dimethylamino)acetyl]amino]-1,3-benzothiazol-6-yl]sulfonyl-(2-methylpropyl)amino]-3-hydroxy-1-phenylbutan-2-yl]carbamate
> <PUBCHEM_IUPAC_SYSTEMATIC_NAME>
[(3aS,4R,6aR)-2,3,3a,4,5,6a-hexahydrofuro[2,3-b]furan-4-yl] N-[(2S,3R)-4-[[2-[2-(dimethylamino)ethanoylamino]-1,3-benzothiazol-6-yl]sulfonyl-(2-methylpropyl)amino]-3-oxidanyl-1-phenyl-butan-2-yl]carbamate
> <PUBCHEM_IUPAC_TRADITIONAL_NAME>
N-[(1S,2R)-1-benzyl-3-[[2-[[2-(dimethylamino)acetyl]amino]-1,3-benzothiazol-6-yl]sulfonyl-isobutyl-amino]-2-hydroxy-propyl]carbamic acid [(3aS,4R,6aR)-2,3,3a,4,5,6a-hexahydrofuro[2,3-b]furan-4-yl] ester
> <PUBCHEM_IUPAC_INCHI>
InChI=1S/C32H43N5O8S2/c1-20(2)16-37(47(41,42)22-10-11-24-28(15-22)46-31(33-24)35-29(39)18-36(3)4)17-26(38)25(14-21-8-6-5-7-9-21)34-32(40)45-27-19-44-30-23(27)12-13-43-30/h5-11,15,20,23,25-27,30,38H,12-14,16-19H2,1-4H3,(H,34,40)(H,33,35,39)/t23-,25-,26+,27-,30+/m0/s1
> <PUBCHEM_IUPAC_INCHIKEY>
CJFKQGMQMJLKHX-PPIPVMRRSA-N
> <PUBCHEM_XLOGP3_AA>
3.7
> <PUBCHEM_EXACT_MASS>
689.25530569
> <PUBCHEM_MOLECULAR_FORMULA>
C32H43N5O8S2
> <PUBCHEM_MOLECULAR_WEIGHT>
689.8
> <PUBCHEM_OPENEYE_CAN_SMILES>
CC(C)CN(CC(C(CC1=CC=CC=C1)NC(=O)OC2COC3C2CCO3)O)S(=O)(=O)C4=CC5=C(C=C4)N=C(S5)NC(=O)CN(C)C
> <PUBCHEM_OPENEYE_ISO_SMILES>
CC(C)CN(C[C@H]([C@H](CC1=CC=CC=C1)NC(=O)O[C@H]2CO[C@@H]3[C@H]2CCO3)O)S(=O)(=O)C4=CC5=C(C=C4)N=C(S5)NC(=O)CN(C)C
> <PUBCHEM_CACTVS_TPSA>
196
> <PUBCHEM_MONOISOTOPIC_WEIGHT>
689.25530569
> <PUBCHEM_TOTAL_CHARGE>
0
> <PUBCHEM_HEAVY_ATOM_COUNT>
47
> <PUBCHEM_ATOM_DEF_STEREO_COUNT>
5
> <PUBCHEM_ATOM_UDEF_STEREO_COUNT>
0
> <PUBCHEM_BOND_DEF_STEREO_COUNT>
0
> <PUBCHEM_BOND_UDEF_STEREO_COUNT>
0
> <PUBCHEM_ISOTOPIC_ATOM_COUNT>
0
> <PUBCHEM_COMPONENT_COUNT>
1
> <PUBCHEM_CACTVS_TAUTO_COUNT>
-1
> <PUBCHEM_COORDINATE_TYPE>
1
5
255
> <PUBCHEM_BONDANNOTATIONS>
22  11  6
13  41  8
13  43  8
16  48  5
17  49  5
2  37  8
2  43  8
29  33  8
29  34  8
30  35  8
30  36  8
33  38  8
34  39  8
35  37  8
36  40  8
37  41  8
38  42  8
39  42  8
40  41  8
18  5  6
24  6  6
$$$$
