509644
  -OEChem-10302200282D
100104  0     1  0  0  0  0  0999 V2000
    9.7942    0.0005    0.0000 S   0  0  0  0  0  0  0  0  0  0  0  0
   13.3385   -0.1947    0.0000 S   0  0  0  0  0  0  0  0  0  0  0  0
    7.1962    1.5005    0.0000 O   0  0  0  0  0  0  0  0  0  0  0  0
    9.2942   -0.8655    0.0000 O   0  0  0  0  0  0  0  0  0  0  0  0
   10.2942    0.8665    0.0000 O   0  0  0  0  0  0  0  0  0  0  0  0
    6.3301    2.0005    0.0000 O   0  0  0  0  0  0  0  0  0  0  0  0
    4.5981    3.0005    0.0000 O   0  0  0  0  0  0  0  0  0  0  0  0
    8.9282    0.5005    0.0000 N   0  0  3  0  0  0  0  0  0  0  0  0
    5.4641    0.5005    0.0000 N   0  0  0  0  0  0  0  0  0  0  0  0
   16.9221   -2.7315    0.0000 N   0  0  0  0  0  0  0  0  0  0  0  0
   17.9221   -4.4636    0.0000 N   0  0  0  0  0  0  0  0  0  0  0  0
   14.9221   -0.9995    0.0000 N   0  0  0  0  0  0  0  0  0  0  0  0
   13.3385   -1.8042    0.0000 N   0  0  0  0  0  0  0  0  0  0  0  0
    7.1962    0.5005    0.0000 C   0  0  2  0  0  0  0  0  0  0  0  0
    8.0622    0.0005    0.0000 C   0  0  0  0  0  0  0  0  0  0  0  0
    6.3301    0.0005    0.0000 C   0  0  2  0  0  0  0  0  0  0  0  0
    8.9282    1.5005    0.0000 C   0  0  0  0  0  0  0  0  0  0  0  0
    9.7942    2.0005    0.0000 C   0  0  0  0  0  0  0  0  0  0  0  0
    6.3301   -0.9995    0.0000 C   0  0  0  0  0  0  0  0  0  0  0  0
   10.6603   -0.4995    0.0000 C   0  0  0  0  0  0  0  0  0  0  0  0
   16.4221   -3.5976    0.0000 C   0  0  0  0  0  0  0  0  0  0  0  0
   17.9221   -2.7315    0.0000 C   0  0  0  0  0  0  0  0  0  0  0  0
    9.7942    3.0005    0.0000 C   0  0  0  0  0  0  0  0  0  0  0  0
   10.6603    1.5005    0.0000 C   0  0  0  0  0  0  0  0  0  0  0  0
    5.4641   -1.4995    0.0000 C   0  0  0  0  0  0  0  0  0  0  0  0
   16.4221   -1.8655    0.0000 C   0  0  0  0  0  0  0  0  0  0  0  0
   16.9221   -4.4636    0.0000 C   0  0  0  0  0  0  0  0  0  0  0  0
   18.4221   -3.5976    0.0000 C   0  0  0  0  0  0  0  0  0  0  0  0
   15.4221   -1.8655    0.0000 C   0  0  0  0  0  0  0  0  0  0  0  0
   11.5263    0.0005    0.0000 C   0  0  0  0  0  0  0  0  0  0  0  0
   10.6603   -1.4995    0.0000 C   0  0  0  0  0  0  0  0  0  0  0  0
    5.4641    1.5005    0.0000 C   0  0  0  0  0  0  0  0  0  0  0  0
   12.3923   -0.4995    0.0000 C   0  0  0  0  0  0  0  0  0  0  0  0
    5.4641   -2.4995    0.0000 C   0  0  0  0  0  0  0  0  0  0  0  0
    4.5981   -0.9995    0.0000 C   0  0  0  0  0  0  0  0  0  0  0  0
   12.3923   -1.4995    0.0000 C   0  0  0  0  0  0  0  0  0  0  0  0
   11.5263   -1.9995    0.0000 C   0  0  0  0  0  0  0  0  0  0  0  0
   13.9221   -0.9995    0.0000 C   0  0  0  0  0  0  0  0  0  0  0  0
    4.5981    2.0005    0.0000 C   0  0  0  0  0  0  0  0  0  0  0  0
    4.5981   -2.9995    0.0000 C   0  0  0  0  0  0  0  0  0  0  0  0
    3.7320   -1.4995    0.0000 C   0  0  0  0  0  0  0  0  0  0  0  0
    3.7320   -2.4995    0.0000 C   0  0  0  0  0  0  0  0  0  0  0  0
    3.7320    3.5005    0.0000 C   0  0  0  0  0  0  0  0  0  0  0  0
    2.8660    3.0005    0.0000 C   0  0  0  0  0  0  0  0  0  0  0  0
    3.7320    4.5005    0.0000 C   0  0  0  0  0  0  0  0  0  0  0  0
    2.0000    3.5005    0.0000 C   0  0  0  0  0  0  0  0  0  0  0  0
    2.8660    5.0005    0.0000 C   0  0  0  0  0  0  0  0  0  0  0  0
    2.8660    2.0005    0.0000 C   0  0  0  0  0  0  0  0  0  0  0  0
    4.5981    5.0005    0.0000 C   0  0  0  0  0  0  0  0  0  0  0  0
    2.0000    4.5005    0.0000 C   0  0  0  0  0  0  0  0  0  0  0  0
    6.6592    0.8105    0.0000 H   0  0  0  0  0  0  0  0  0  0  0  0
    7.6636   -0.4744    0.0000 H   0  0  0  0  0  0  0  0  0  0  0  0
    8.4607   -0.4744    0.0000 H   0  0  0  0  0  0  0  0  0  0  0  0
    5.7932   -0.3095    0.0000 H   0  0  0  0  0  0  0  0  0  0  0  0
    8.7162    2.0831    0.0000 H   0  0  0  0  0  0  0  0  0  0  0  0
    8.3176    1.3929    0.0000 H   0  0  0  0  0  0  0  0  0  0  0  0
    9.2573    2.3105    0.0000 H   0  0  0  0  0  0  0  0  0  0  0  0
    6.5422   -1.5821    0.0000 H   0  0  0  0  0  0  0  0  0  0  0  0
    6.9407   -0.8918    0.0000 H   0  0  0  0  0  0  0  0  0  0  0  0
    4.9272    0.1905    0.0000 H   0  0  0  0  0  0  0  0  0  0  0  0
   15.9472   -3.1990    0.0000 H   0  0  0  0  0  0  0  0  0  0  0  0
   15.9472   -3.9961    0.0000 H   0  0  0  0  0  0  0  0  0  0  0  0
   18.5047   -2.5195    0.0000 H   0  0  0  0  0  0  0  0  0  0  0  0
   17.8145   -2.1210    0.0000 H   0  0  0  0  0  0  0  0  0  0  0  0
   10.4142    3.0005    0.0000 H   0  0  0  0  0  0  0  0  0  0  0  0
    9.7942    3.6205    0.0000 H   0  0  0  0  0  0  0  0  0  0  0  0
    9.1742    3.0005    0.0000 H   0  0  0  0  0  0  0  0  0  0  0  0
   10.3503    0.9636    0.0000 H   0  0  0  0  0  0  0  0  0  0  0  0
   11.1972    1.1905    0.0000 H   0  0  0  0  0  0  0  0  0  0  0  0
   10.9703    2.0375    0.0000 H   0  0  0  0  0  0  0  0  0  0  0  0
   17.0047   -1.6534    0.0000 H   0  0  0  0  0  0  0  0  0  0  0  0
   16.3145   -1.2549    0.0000 H   0  0  0  0  0  0  0  0  0  0  0  0
   16.3395   -4.6756    0.0000 H   0  0  0  0  0  0  0  0  0  0  0  0
   17.0298   -5.0742    0.0000 H   0  0  0  0  0  0  0  0  0  0  0  0
   18.8971   -3.9961    0.0000 H   0  0  0  0  0  0  0  0  0  0  0  0
   18.8971   -3.1990    0.0000 H   0  0  0  0  0  0  0  0  0  0  0  0
    7.7331    1.8105    0.0000 H   0  0  0  0  0  0  0  0  0  0  0  0
   18.2321   -5.0005    0.0000 H   0  0  0  0  0  0  0  0  0  0  0  0
   14.8395   -2.0776    0.0000 H   0  0  0  0  0  0  0  0  0  0  0  0
   15.5298   -2.4761    0.0000 H   0  0  0  0  0  0  0  0  0  0  0  0
   11.5263    0.6205    0.0000 H   0  0  0  0  0  0  0  0  0  0  0  0
   10.1233   -1.8095    0.0000 H   0  0  0  0  0  0  0  0  0  0  0  0
    6.0010   -2.8095    0.0000 H   0  0  0  0  0  0  0  0  0  0  0  0
    4.5981   -0.3795    0.0000 H   0  0  0  0  0  0  0  0  0  0  0  0
   11.5263   -2.6195    0.0000 H   0  0  0  0  0  0  0  0  0  0  0  0
   15.2321   -0.4625    0.0000 H   0  0  0  0  0  0  0  0  0  0  0  0
    3.9875    2.1082    0.0000 H   0  0  0  0  0  0  0  0  0  0  0  0
    4.3860    1.4179    0.0000 H   0  0  0  0  0  0  0  0  0  0  0  0
    4.5981   -3.6195    0.0000 H   0  0  0  0  0  0  0  0  0  0  0  0
    3.1951   -1.1895    0.0000 H   0  0  0  0  0  0  0  0  0  0  0  0
    3.1951   -2.8095    0.0000 H   0  0  0  0  0  0  0  0  0  0  0  0
    1.4631    3.1905    0.0000 H   0  0  0  0  0  0  0  0  0  0  0  0
    2.8660    5.6205    0.0000 H   0  0  0  0  0  0  0  0  0  0  0  0
    2.2460    2.0005    0.0000 H   0  0  0  0  0  0  0  0  0  0  0  0
    2.8660    1.3805    0.0000 H   0  0  0  0  0  0  0  0  0  0  0  0
    3.4860    2.0005    0.0000 H   0  0  0  0  0  0  0  0  0  0  0  0
    4.9081    4.4636    0.0000 H   0  0  0  0  0  0  0  0  0  0  0  0
    5.1350    5.3105    0.0000 H   0  0  0  0  0  0  0  0  0  0  0  0
    4.2881    5.5374    0.0000 H   0  0  0  0  0  0  0  0  0  0  0  0
    1.4631    4.8105    0.0000 H   0  0  0  0  0  0  0  0  0  0  0  0
  1  4  2  0  0  0  0
  1  5  2  0  0  0  0
  1  8  1  0  0  0  0
  1 20  1  0  0  0  0
  2 33  1  0  0  0  0
  2 38  1  0  0  0  0
 14  3  1  6  0  0  0
  3 77  1  0  0  0  0
  6 32  2  0  0  0  0
  7 39  1  0  0  0  0
  7 43  1  0  0  0  0
  8 15  1  0  0  0  0
  8 17  1  0  0  0  0
 16  9  1  6  0  0  0
  9 32  1  0  0  0  0
  9 60  1  0  0  0  0
 10 21  1  0  0  0  0
 10 22  1  0  0  0  0
 10 26  1  0  0  0  0
 11 27  1  0  0  0  0
 11 28  1  0  0  0  0
 11 78  1  0  0  0  0
 12 29  1  0  0  0  0
 12 38  1  0  0  0  0
 12 86  1  0  0  0  0
 13 36  1  0  0  0  0
 13 38  2  0  0  0  0
 14 15  1  0  0  0  0
 14 16  1  0  0  0  0
 14 51  1  0  0  0  0
 15 52  1  0  0  0  0
 15 53  1  0  0  0  0
 16 19  1  0  0  0  0
 16 54  1  0  0  0  0
 17 18  1  0  0  0  0
 17 55  1  0  0  0  0
 17 56  1  0  0  0  0
 18 23  1  0  0  0  0
 18 24  1  0  0  0  0
 18 57  1  0  0  0  0
 19 25  1  0  0  0  0
 19 58  1  0  0  0  0
 19 59  1  0  0  0  0
 20 30  2  0  0  0  0
 20 31  1  0  0  0  0
 21 27  1  0  0  0  0
 21 61  1  0  0  0  0
 21 62  1  0  0  0  0
 22 28  1  0  0  0  0
 22 63  1  0  0  0  0
 22 64  1  0  0  0  0
 23 65  1  0  0  0  0
 23 66  1  0  0  0  0
 23 67  1  0  0  0  0
 24 68  1  0  0  0  0
 24 69  1  0  0  0  0
 24 70  1  0  0  0  0
 25 34  2  0  0  0  0
 25 35  1  0  0  0  0
 26 29  1  0  0  0  0
 26 71  1  0  0  0  0
 26 72  1  0  0  0  0
 27 73  1  0  0  0  0
 27 74  1  0  0  0  0
 28 75  1  0  0  0  0
 28 76  1  0  0  0  0
 29 79  1  0  0  0  0
 29 80  1  0  0  0  0
 30 33  1  0  0  0  0
 30 81  1  0  0  0  0
 31 37  2  0  0  0  0
 31 82  1  0  0  0  0
 32 39  1  0  0  0  0
 33 36  2  0  0  0  0
 34 40  1  0  0  0  0
 34 83  1  0  0  0  0
 35 41  2  0  0  0  0
 35 84  1  0  0  0  0
 36 37  1  0  0  0  0
 37 85  1  0  0  0  0
 39 87  1  0  0  0  0
 39 88  1  0  0  0  0
 40 42  2  0  0  0  0
 40 89  1  0  0  0  0
 41 42  1  0  0  0  0
 41 90  1  0  0  0  0
 42 91  1  0  0  0  0
 43 44  2  0  0  0  0
 43 45  1  0  0  0  0
 44 46  1  0  0  0  0
 44 48  1  0  0  0  0
 45 47  2  0  0  0  0
 45 49  1  0  0  0  0
 46 50  2  0  0  0  0
 46 92  1  0  0  0  0
 47 50  1  0  0  0  0
 47 93  1  0  0  0  0
 48 94  1  0  0  0  0
 48 95  1  0  0  0  0
 48 96  1  0  0  0  0
 49 97  1  0  0  0  0
 49 98  1  0  0  0  0
 49 99  1  0  0  0  0
 50100  1  0  0  0  0
M  END
> <PUBCHEM_COMPOUND_CID>
509644
> <PUBCHEM_COMPOUND_CANONICALIZED>
1
> <PUBCHEM_CACTVS_COMPLEXITY>
1120
> <PUBCHEM_CACTVS_HBOND_ACCEPTOR>
11
> <PUBCHEM_CACTVS_HBOND_DONOR>
4
> <PUBCHEM_CACTVS_ROTATABLE_BOND>
17
> <PUBCHEM_CACTVS_SUBSKEYS>
AAADcfB/uABgAAAAAAAAAAAAAAAAAWAAAAA8YMEAAAAAAFgB9AAAHgQQSAAADTzh3gYz17PIFgqsAyVydHLD+LlhKjlJmLx8bJiOdqLk+Z+XeCjs1hPY6CeQwOAOAAQCAEAIAQAACAQAgBACAAAAAAAAAA==
> <PUBCHEM_IUPAC_OPENEYE_NAME>
N-[(1S,2R)-1-benzyl-2-hydroxy-3-[isobutyl-[[2-(2-piperazin-1-ylethylamino)-1,3-benzothiazol-6-yl]sulfonyl]amino]propyl]-2-(2,6-dimethylphenoxy)acetamide
> <PUBCHEM_IUPAC_CAS_NAME>
2-(2,6-dimethylphenoxy)-N-[(2S,3R)-3-hydroxy-4-[2-methylpropyl-[[2-[2-(1-piperazinyl)ethylamino]-1,3-benzothiazol-6-yl]sulfonyl]amino]-1-phenylbutan-2-yl]acetamide
> <PUBCHEM_IUPAC_NAME_MARKUP>
2-(2,6-dimethylphenoxy)-<I>N</I>-[(2<I>S</I>,3<I>R</I>)-3-hydroxy-4-[2-methylpropyl-[[2-(2-piperazin-1-ylethylamino)-1,3-benzothiazol-6-yl]sulfonyl]amino]-1-phenylbutan-2-yl]acetamide
> <PUBCHEM_IUPAC_NAME>
2-(2,6-dimethylphenoxy)-N-[(2S,3R)-3-hydroxy-4-[2-methylpropyl-[[2-(2-piperazin-1-ylethylamino)-1,3-benzothiazol-6-yl]sulfonyl]amino]-1-phenylbutan-2-yl]acetamide
> <PUBCHEM_IUPAC_SYSTEMATIC_NAME>
2-(2,6-dimethylphenoxy)-N-[(2S,3R)-4-[2-methylpropyl-[[2-(2-piperazin-1-ylethylamino)-1,3-benzothiazol-6-yl]sulfonyl]amino]-3-oxidanyl-1-phenyl-butan-2-yl]ethanamide
> <PUBCHEM_IUPAC_TRADITIONAL_NAME>
N-[(1S,2R)-1-benzyl-2-hydroxy-3-[isobutyl-[[2-(2-piperazinoethylamino)-1,3-benzothiazol-6-yl]sulfonyl]amino]propyl]-2-(2,6-dimethylphenoxy)acetamide
> <PUBCHEM_IUPAC_INCHI>
InChI=1S/C37H50N6O5S2/c1-26(2)23-43(50(46,47)30-13-14-31-34(22-30)49-37(41-31)39-17-20-42-18-15-38-16-19-42)24-33(44)32(21-29-11-6-5-7-12-29)40-35(45)25-48-36-27(3)9-8-10-28(36)4/h5-14,22,26,32-33,38,44H,15-21,23-25H2,1-4H3,(H,39,41)(H,40,45)/t32-,33+/m0/s1
> <PUBCHEM_IUPAC_INCHIKEY>
MVRCKRPOJMBUOC-JHOUSYSJSA-N
> <PUBCHEM_XLOGP3_AA>
5.7
> <PUBCHEM_EXACT_MASS>
722.32841106
> <PUBCHEM_MOLECULAR_FORMULA>
C37H50N6O5S2
> <PUBCHEM_MOLECULAR_WEIGHT>
723.0
> <PUBCHEM_OPENEYE_CAN_SMILES>
CC1=C(C(=CC=C1)C)OCC(=O)NC(CC2=CC=CC=C2)C(CN(CC(C)C)S(=O)(=O)C3=CC4=C(C=C3)N=C(S4)NCCN5CCNCC5)O
> <PUBCHEM_OPENEYE_ISO_SMILES>
CC1=C(C(=CC=C1)C)OCC(=O)N[C@@H](CC2=CC=CC=C2)[C@@H](CN(CC(C)C)S(=O)(=O)C3=CC4=C(C=C3)N=C(S4)NCCN5CCNCC5)O
> <PUBCHEM_CACTVS_TPSA>
173
> <PUBCHEM_MONOISOTOPIC_WEIGHT>
722.32841106
> <PUBCHEM_TOTAL_CHARGE>
0
> <PUBCHEM_HEAVY_ATOM_COUNT>
50
> <PUBCHEM_ATOM_DEF_STEREO_COUNT>
2
> <PUBCHEM_ATOM_UDEF_STEREO_COUNT>
0
> <PUBCHEM_BOND_DEF_STEREO_COUNT>
0
> <PUBCHEM_BOND_UDEF_STEREO_COUNT>
0
> <PUBCHEM_ISOTOPIC_ATOM_COUNT>
0
> <PUBCHEM_COMPONENT_COUNT>
1
> <PUBCHEM_CACTVS_TAUTO_COUNT>
-1
> <PUBCHEM_COORDINATE_TYPE>
1
5
255
> <PUBCHEM_BONDANNOTATIONS>
13  36  8
13  38  8
2  33  8
2  38  8
20  30  8
20  31  8
25  34  8
25  35  8
14  3  6
30  33  8
31  37  8
33  36  8
34  40  8
35  41  8
36  37  8
40  42  8
41  42  8
43  44  8
43  45  8
44  46  8
45  47  8
46  50  8
47  50  8
16  9  6
$$$$
