509673
  -OEChem-10302200282D
 72 75  0     1  0  0  0  0  0999 V2000
    8.0622   -0.7694    0.0000 S   0  0  0  0  0  0  0  0  0  0  0  0
   11.6065   -0.9647    0.0000 S   0  0  0  0  0  0  0  0  0  0  0  0
    5.4641    0.7306    0.0000 O   0  0  0  0  0  0  0  0  0  0  0  0
    7.5622   -1.6354    0.0000 O   0  0  0  0  0  0  0  0  0  0  0  0
    8.5622    0.0966    0.0000 O   0  0  0  0  0  0  0  0  0  0  0  0
    2.8660    1.2306    0.0000 O   0  0  0  0  0  0  0  0  0  0  0  0
    4.5981    1.2306    0.0000 O   0  0  0  0  0  0  0  0  0  0  0  0
    2.3660    3.7694    0.0000 O   0  0  0  0  0  0  0  0  0  0  0  0
   13.1901   -3.5015    0.0000 O   0  0  0  0  0  0  0  0  0  0  0  0
    7.1962   -0.2694    0.0000 N   0  0  3  0  0  0  0  0  0  0  0  0
    3.7320   -0.2694    0.0000 N   0  0  0  0  0  0  0  0  0  0  0  0
   11.6065   -2.5742    0.0000 N   0  0  0  0  0  0  0  0  0  0  0  0
   13.1901   -1.7694    0.0000 N   0  0  0  0  0  0  0  0  0  0  0  0
    2.0570    2.8184    0.0000 N   0  0  0  0  0  0  0  0  0  0  0  0
    5.4641   -0.2694    0.0000 C   0  0  2  0  0  0  0  0  0  0  0  0
    6.3301   -0.7694    0.0000 C   0  0  0  0  0  0  0  0  0  0  0  0
    4.5981   -0.7694    0.0000 C   0  0  2  0  0  0  0  0  0  0  0  0
    7.1962    0.7306    0.0000 C   0  0  0  0  0  0  0  0  0  0  0  0
    8.0622    1.2306    0.0000 C   0  0  0  0  0  0  0  0  0  0  0  0
    4.5981   -1.7694    0.0000 C   0  0  0  0  0  0  0  0  0  0  0  0
    8.9282   -1.2694    0.0000 C   0  0  0  0  0  0  0  0  0  0  0  0
    8.0622    2.2306    0.0000 C   0  0  0  0  0  0  0  0  0  0  0  0
    8.9282    0.7306    0.0000 C   0  0  0  0  0  0  0  0  0  0  0  0
    3.7320   -2.2694    0.0000 C   0  0  0  0  0  0  0  0  0  0  0  0
    9.7942   -0.7694    0.0000 C   0  0  0  0  0  0  0  0  0  0  0  0
    8.9282   -2.2694    0.0000 C   0  0  0  0  0  0  0  0  0  0  0  0
    3.7320    0.7306    0.0000 C   0  0  0  0  0  0  0  0  0  0  0  0
    3.7320   -3.2694    0.0000 C   0  0  0  0  0  0  0  0  0  0  0  0
    2.8660   -1.7694    0.0000 C   0  0  0  0  0  0  0  0  0  0  0  0
   10.6603   -1.2694    0.0000 C   0  0  0  0  0  0  0  0  0  0  0  0
    9.7942   -2.7694    0.0000 C   0  0  0  0  0  0  0  0  0  0  0  0
   10.6603   -2.2694    0.0000 C   0  0  0  0  0  0  0  0  0  0  0  0
    2.8660   -3.7694    0.0000 C   0  0  0  0  0  0  0  0  0  0  0  0
    2.0000   -2.2694    0.0000 C   0  0  0  0  0  0  0  0  0  0  0  0
    2.0000   -3.2694    0.0000 C   0  0  0  0  0  0  0  0  0  0  0  0
   12.1901   -1.7694    0.0000 C   0  0  0  0  0  0  0  0  0  0  0  0
    2.8660    2.2306    0.0000 C   0  0  0  0  0  0  0  0  0  0  0  0
    3.6750    2.8184    0.0000 C   0  0  0  0  0  0  0  0  0  0  0  0
   13.6901   -2.6354    0.0000 C   0  0  0  0  0  0  0  0  0  0  0  0
    3.3660    3.7694    0.0000 C   0  0  0  0  0  0  0  0  0  0  0  0
   14.6901   -2.6354    0.0000 C   0  0  0  0  0  0  0  0  0  0  0  0
    6.0010    0.0406    0.0000 H   0  0  0  0  0  0  0  0  0  0  0  0
    5.9316   -1.2444    0.0000 H   0  0  0  0  0  0  0  0  0  0  0  0
    6.7287   -1.2444    0.0000 H   0  0  0  0  0  0  0  0  0  0  0  0
    4.5981   -0.1494    0.0000 H   0  0  0  0  0  0  0  0  0  0  0  0
    6.9841    1.3132    0.0000 H   0  0  0  0  0  0  0  0  0  0  0  0
    6.5856    0.6229    0.0000 H   0  0  0  0  0  0  0  0  0  0  0  0
    8.0622    0.6106    0.0000 H   0  0  0  0  0  0  0  0  0  0  0  0
    4.8101   -2.3520    0.0000 H   0  0  0  0  0  0  0  0  0  0  0  0
    5.2087   -1.6618    0.0000 H   0  0  0  0  0  0  0  0  0  0  0  0
    3.1951   -0.5794    0.0000 H   0  0  0  0  0  0  0  0  0  0  0  0
    8.6822    2.2306    0.0000 H   0  0  0  0  0  0  0  0  0  0  0  0
    8.0622    2.8506    0.0000 H   0  0  0  0  0  0  0  0  0  0  0  0
    7.4422    2.2306    0.0000 H   0  0  0  0  0  0  0  0  0  0  0  0
    8.6182    0.1936    0.0000 H   0  0  0  0  0  0  0  0  0  0  0  0
    9.4651    0.4206    0.0000 H   0  0  0  0  0  0  0  0  0  0  0  0
    9.2382    1.2675    0.0000 H   0  0  0  0  0  0  0  0  0  0  0  0
    6.0010    1.0406    0.0000 H   0  0  0  0  0  0  0  0  0  0  0  0
    9.7942   -0.1494    0.0000 H   0  0  0  0  0  0  0  0  0  0  0  0
    8.3913   -2.5794    0.0000 H   0  0  0  0  0  0  0  0  0  0  0  0
    4.2690   -3.5794    0.0000 H   0  0  0  0  0  0  0  0  0  0  0  0
    2.8660   -1.1494    0.0000 H   0  0  0  0  0  0  0  0  0  0  0  0
    9.7942   -3.3894    0.0000 H   0  0  0  0  0  0  0  0  0  0  0  0
    2.8660   -4.3894    0.0000 H   0  0  0  0  0  0  0  0  0  0  0  0
    1.4631   -1.9594    0.0000 H   0  0  0  0  0  0  0  0  0  0  0  0
    1.4631   -3.5794    0.0000 H   0  0  0  0  0  0  0  0  0  0  0  0
   13.5001   -1.2325    0.0000 H   0  0  0  0  0  0  0  0  0  0  0  0
    4.2647    2.6268    0.0000 H   0  0  0  0  0  0  0  0  0  0  0  0
    3.7304    4.2710    0.0000 H   0  0  0  0  0  0  0  0  0  0  0  0
   14.6901   -3.2554    0.0000 H   0  0  0  0  0  0  0  0  0  0  0  0
   15.3101   -2.6354    0.0000 H   0  0  0  0  0  0  0  0  0  0  0  0
   14.6901   -2.0154    0.0000 H   0  0  0  0  0  0  0  0  0  0  0  0
  1  4  2  0  0  0  0
  1  5  2  0  0  0  0
  1 10  1  0  0  0  0
  1 21  1  0  0  0  0
  2 30  1  0  0  0  0
  2 36  1  0  0  0  0
 15  3  1  6  0  0  0
  3 58  1  0  0  0  0
  6 27  1  0  0  0  0
  6 37  1  0  0  0  0
  7 27  2  0  0  0  0
  8 14  1  0  0  0  0
  8 40  1  0  0  0  0
  9 39  2  0  0  0  0
 10 16  1  0  0  0  0
 10 18  1  0  0  0  0
 17 11  1  6  0  0  0
 11 27  1  0  0  0  0
 11 51  1  0  0  0  0
 12 32  1  0  0  0  0
 12 36  2  0  0  0  0
 13 36  1  0  0  0  0
 13 39  1  0  0  0  0
 13 67  1  0  0  0  0
 14 37  2  0  0  0  0
 15 16  1  0  0  0  0
 15 17  1  0  0  0  0
 15 42  1  0  0  0  0
 16 43  1  0  0  0  0
 16 44  1  0  0  0  0
 17 20  1  0  0  0  0
 17 45  1  0  0  0  0
 18 19  1  0  0  0  0
 18 46  1  0  0  0  0
 18 47  1  0  0  0  0
 19 22  1  0  0  0  0
 19 23  1  0  0  0  0
 19 48  1  0  0  0  0
 20 24  1  0  0  0  0
 20 49  1  0  0  0  0
 20 50  1  0  0  0  0
 21 25  2  0  0  0  0
 21 26  1  0  0  0  0
 22 52  1  0  0  0  0
 22 53  1  0  0  0  0
 22 54  1  0  0  0  0
 23 55  1  0  0  0  0
 23 56  1  0  0  0  0
 23 57  1  0  0  0  0
 24 28  2  0  0  0  0
 24 29  1  0  0  0  0
 25 30  1  0  0  0  0
 25 59  1  0  0  0  0
 26 31  2  0  0  0  0
 26 60  1  0  0  0  0
 28 33  1  0  0  0  0
 28 61  1  0  0  0  0
 29 34  2  0  0  0  0
 29 62  1  0  0  0  0
 30 32  2  0  0  0  0
 31 32  1  0  0  0  0
 31 63  1  0  0  0  0
 33 35  2  0  0  0  0
 33 64  1  0  0  0  0
 34 35  1  0  0  0  0
 34 65  1  0  0  0  0
 35 66  1  0  0  0  0
 37 38  1  0  0  0  0
 38 40  2  0  0  0  0
 38 68  1  0  0  0  0
 39 41  1  0  0  0  0
 40 69  1  0  0  0  0
 41 70  1  0  0  0  0
 41 71  1  0  0  0  0
 41 72  1  0  0  0  0
M  END
> <PUBCHEM_COMPOUND_CID>
509673
> <PUBCHEM_COMPOUND_CANONICALIZED>
1
> <PUBCHEM_CACTVS_COMPLEXITY>
976
> <PUBCHEM_CACTVS_HBOND_ACCEPTOR>
11
> <PUBCHEM_CACTVS_HBOND_DONOR>
3
> <PUBCHEM_CACTVS_ROTATABLE_BOND>
13
> <PUBCHEM_CACTVS_SUBSKEYS>
AAADceB7uABgAAAAAAAAAAAAAAAAAWLAAAAwYAAAAAAAAFgB/AAAHgQUSAAADTzh3gYz3bLYFgqtAy1y/nDD+LllKjlpmL0+bNuONa7k+ZmMYuhvtw7Y6GeQwKAOAAQAAEAAAQAACAAAgAACAAAAAAAAAA==
> <PUBCHEM_IUPAC_OPENEYE_NAME>
isoxazol-3-yl N-[(1S,2R)-3-[(2-acetamido-1,3-benzothiazol-6-yl)sulfonyl-isobutyl-amino]-1-benzyl-2-hydroxy-propyl]carbamate
> <PUBCHEM_IUPAC_CAS_NAME>
N-[(2S,3R)-4-[(2-acetamido-1,3-benzothiazol-6-yl)sulfonyl-(2-methylpropyl)amino]-3-hydroxy-1-phenylbutan-2-yl]carbamic acid 3-isoxazolyl ester
> <PUBCHEM_IUPAC_NAME_MARKUP>
1,2-oxazol-3-yl <I>N</I>-[(2<I>S</I>,3<I>R</I>)-4-[(2-acetamido-1,3-benzothiazol-6-yl)sulfonyl-(2-methylpropyl)amino]-3-hydroxy-1-phenylbutan-2-yl]carbamate
> <PUBCHEM_IUPAC_NAME>
1,2-oxazol-3-yl N-[(2S,3R)-4-[(2-acetamido-1,3-benzothiazol-6-yl)sulfonyl-(2-methylpropyl)amino]-3-hydroxy-1-phenylbutan-2-yl]carbamate
> <PUBCHEM_IUPAC_SYSTEMATIC_NAME>
1,2-oxazol-3-yl N-[(2S,3R)-4-[(2-acetamido-1,3-benzothiazol-6-yl)sulfonyl-(2-methylpropyl)amino]-3-oxidanyl-1-phenyl-butan-2-yl]carbamate
> <PUBCHEM_IUPAC_TRADITIONAL_NAME>
N-[(1S,2R)-3-[(2-acetamido-1,3-benzothiazol-6-yl)sulfonyl-isobutyl-amino]-1-benzyl-2-hydroxy-propyl]carbamic acid isoxazol-3-yl ester
> <PUBCHEM_IUPAC_INCHI>
InChI=1S/C27H31N5O7S2/c1-17(2)15-32(41(36,37)20-9-10-21-24(14-20)40-26(29-21)28-18(3)33)16-23(34)22(13-19-7-5-4-6-8-19)30-27(35)39-25-11-12-38-31-25/h4-12,14,17,22-23,34H,13,15-16H2,1-3H3,(H,30,35)(H,28,29,33)/t22-,23+/m0/s1
> <PUBCHEM_IUPAC_INCHIKEY>
DDPVDODZKDNFKP-XZOQPEGZSA-N
> <PUBCHEM_XLOGP3_AA>
3.8
> <PUBCHEM_EXACT_MASS>
601.16649069
> <PUBCHEM_MOLECULAR_FORMULA>
C27H31N5O7S2
> <PUBCHEM_MOLECULAR_WEIGHT>
601.7
> <PUBCHEM_OPENEYE_CAN_SMILES>
CC(C)CN(CC(C(CC1=CC=CC=C1)NC(=O)OC2=NOC=C2)O)S(=O)(=O)C3=CC4=C(C=C3)N=C(S4)NC(=O)C
> <PUBCHEM_OPENEYE_ISO_SMILES>
CC(C)CN(C[C@H]([C@H](CC1=CC=CC=C1)NC(=O)OC2=NOC=C2)O)S(=O)(=O)C3=CC4=C(C=C3)N=C(S4)NC(=O)C
> <PUBCHEM_CACTVS_TPSA>
201
> <PUBCHEM_MONOISOTOPIC_WEIGHT>
601.16649069
> <PUBCHEM_TOTAL_CHARGE>
0
> <PUBCHEM_HEAVY_ATOM_COUNT>
41
> <PUBCHEM_ATOM_DEF_STEREO_COUNT>
2
> <PUBCHEM_ATOM_UDEF_STEREO_COUNT>
0
> <PUBCHEM_BOND_DEF_STEREO_COUNT>
0
> <PUBCHEM_BOND_UDEF_STEREO_COUNT>
0
> <PUBCHEM_ISOTOPIC_ATOM_COUNT>
0
> <PUBCHEM_COMPONENT_COUNT>
1
> <PUBCHEM_CACTVS_TAUTO_COUNT>
-1
> <PUBCHEM_COORDINATE_TYPE>
1
5
255
> <PUBCHEM_BONDANNOTATIONS>
17  11  6
12  32  8
12  36  8
14  37  8
2  30  8
2  36  8
21  25  8
21  26  8
24  28  8
24  29  8
25  30  8
26  31  8
28  33  8
29  34  8
15  3  6
30  32  8
31  32  8
33  35  8
34  35  8
37  38  8
38  40  8
8  14  8
8  40  8
$$$$
