509680
  -OEChem-10302200282D
 98103  0     1  0  0  0  0  0999 V2000
    9.3056   -0.4032    0.0000 S   0  0  0  0  0  0  0  0  0  0  0  0
   12.8499   -0.5984    0.0000 S   0  0  0  0  0  0  0  0  0  0  0  0
    4.6095    4.1357    0.0000 O   0  0  0  0  0  0  0  0  0  0  0  0
    2.8037    4.7179    0.0000 O   0  0  0  0  0  0  0  0  0  0  0  0
    4.1095    1.5968    0.0000 O   0  0  0  0  0  0  0  0  0  0  0  0
    6.7075    1.0968    0.0000 O   0  0  0  0  0  0  0  0  0  0  0  0
    5.8415    1.5968    0.0000 O   0  0  0  0  0  0  0  0  0  0  0  0
    8.8056   -1.2692    0.0000 O   0  0  0  0  0  0  0  0  0  0  0  0
    9.8056    0.4629    0.0000 O   0  0  0  0  0  0  0  0  0  0  0  0
    4.9755    0.0968    0.0000 N   0  0  0  0  0  0  0  0  0  0  0  0
   16.4335   -3.1352    0.0000 N   0  0  0  0  0  0  0  0  0  0  0  0
    8.4396    0.0968    0.0000 N   0  0  3  0  0  0  0  0  0  0  0  0
   14.4335   -1.4032    0.0000 N   0  0  3  0  0  0  0  0  0  0  0  0
   12.8499   -2.2079    0.0000 N   0  0  0  0  0  0  0  0  0  0  0  0
    3.3004    3.1846    0.0000 C   0  0  2  0  0  0  0  0  0  0  0  0
    3.6095    4.1357    0.0000 C   0  0  1  0  0  0  0  0  0  0  0  0
    4.1095    2.5968    0.0000 C   0  0  2  0  0  0  0  0  0  0  0  0
    2.3064    3.1872    0.0000 C   0  0  0  0  0  0  0  0  0  0  0  0
    4.9185    3.1846    0.0000 C   0  0  0  0  0  0  0  0  0  0  0  0
    2.0000    4.1329    0.0000 C   0  0  0  0  0  0  0  0  0  0  0  0
    5.8415   -0.4032    0.0000 C   0  0  2  0  0  0  0  0  0  0  0  0
    4.9755    1.0968    0.0000 C   0  0  0  0  0  0  0  0  0  0  0  0
    6.7075    0.0968    0.0000 C   0  0  1  0  0  0  0  0  0  0  0  0
    7.5736   -0.4032    0.0000 C   0  0  0  0  0  0  0  0  0  0  0  0
    5.8415   -1.4032    0.0000 C   0  0  0  0  0  0  0  0  0  0  0  0
   16.0268   -4.0488    0.0000 C   0  0  0  0  0  0  0  0  0  0  0  0
   17.4280   -3.2397    0.0000 C   0  0  0  0  0  0  0  0  0  0  0  0
   16.7699   -4.7179    0.0000 C   0  0  0  0  0  0  0  0  0  0  0  0
   17.6360   -4.2179    0.0000 C   0  0  0  0  0  0  0  0  0  0  0  0
    8.4396    1.0968    0.0000 C   0  0  0  0  0  0  0  0  0  0  0  0
   15.9335   -2.2692    0.0000 C   0  0  0  0  0  0  0  0  0  0  0  0
    9.3056    1.5968    0.0000 C   0  0  0  0  0  0  0  0  0  0  0  0
   14.9335   -2.2692    0.0000 C   0  0  0  0  0  0  0  0  0  0  0  0
    4.9755   -1.9032    0.0000 C   0  0  0  0  0  0  0  0  0  0  0  0
   10.1716   -0.9032    0.0000 C   0  0  0  0  0  0  0  0  0  0  0  0
    9.3056    2.5968    0.0000 C   0  0  0  0  0  0  0  0  0  0  0  0
   10.1716    1.0968    0.0000 C   0  0  0  0  0  0  0  0  0  0  0  0
   11.0377   -0.4032    0.0000 C   0  0  0  0  0  0  0  0  0  0  0  0
    4.9755   -2.9032    0.0000 C   0  0  0  0  0  0  0  0  0  0  0  0
    4.1095   -1.4032    0.0000 C   0  0  0  0  0  0  0  0  0  0  0  0
   13.4335   -1.4032    0.0000 C   0  0  0  0  0  0  0  0  0  0  0  0
   10.1716   -1.9032    0.0000 C   0  0  0  0  0  0  0  0  0  0  0  0
   11.9037   -0.9032    0.0000 C   0  0  0  0  0  0  0  0  0  0  0  0
   11.9037   -1.9032    0.0000 C   0  0  0  0  0  0  0  0  0  0  0  0
   14.9335   -0.5371    0.0000 C   0  0  0  0  0  0  0  0  0  0  0  0
   11.0377   -2.4032    0.0000 C   0  0  0  0  0  0  0  0  0  0  0  0
    4.1095   -3.4032    0.0000 C   0  0  0  0  0  0  0  0  0  0  0  0
    3.2434   -1.9032    0.0000 C   0  0  0  0  0  0  0  0  0  0  0  0
    3.2434   -2.9032    0.0000 C   0  0  0  0  0  0  0  0  0  0  0  0
    3.0367    2.3766    0.0000 H   0  0  0  0  0  0  0  0  0  0  0  0
    3.8711    4.9444    0.0000 H   0  0  0  0  0  0  0  0  0  0  0  0
    3.5570    2.3154    0.0000 H   0  0  0  0  0  0  0  0  0  0  0  0
    1.6997    3.0592    0.0000 H   0  0  0  0  0  0  0  0  0  0  0  0
    2.3699    2.5705    0.0000 H   0  0  0  0  0  0  0  0  0  0  0  0
    5.2285    2.6477    0.0000 H   0  0  0  0  0  0  0  0  0  0  0  0
    5.4849    3.4368    0.0000 H   0  0  0  0  0  0  0  0  0  0  0  0
    1.6898    4.6697    0.0000 H   0  0  0  0  0  0  0  0  0  0  0  0
    1.4335    3.8809    0.0000 H   0  0  0  0  0  0  0  0  0  0  0  0
    5.8415    0.2168    0.0000 H   0  0  0  0  0  0  0  0  0  0  0  0
    7.2445    0.4068    0.0000 H   0  0  0  0  0  0  0  0  0  0  0  0
    4.4386   -0.2132    0.0000 H   0  0  0  0  0  0  0  0  0  0  0  0
    7.1750   -0.8781    0.0000 H   0  0  0  0  0  0  0  0  0  0  0  0
    7.9721   -0.8781    0.0000 H   0  0  0  0  0  0  0  0  0  0  0  0
    6.0536   -1.9858    0.0000 H   0  0  0  0  0  0  0  0  0  0  0  0
    6.4521   -1.2955    0.0000 H   0  0  0  0  0  0  0  0  0  0  0  0
   15.4898   -3.7388    0.0000 H   0  0  0  0  0  0  0  0  0  0  0  0
   15.6624   -4.5504    0.0000 H   0  0  0  0  0  0  0  0  0  0  0  0
   18.0446   -3.1749    0.0000 H   0  0  0  0  0  0  0  0  0  0  0  0
   17.4280   -2.6197    0.0000 H   0  0  0  0  0  0  0  0  0  0  0  0
   16.3092   -5.1328    0.0000 H   0  0  0  0  0  0  0  0  0  0  0  0
   17.1344   -5.2195    0.0000 H   0  0  0  0  0  0  0  0  0  0  0  0
   17.8881   -4.7843    0.0000 H   0  0  0  0  0  0  0  0  0  0  0  0
   18.2256   -4.0263    0.0000 H   0  0  0  0  0  0  0  0  0  0  0  0
    8.2275    1.6794    0.0000 H   0  0  0  0  0  0  0  0  0  0  0  0
    7.8290    0.9892    0.0000 H   0  0  0  0  0  0  0  0  0  0  0  0
   16.5161   -2.0571    0.0000 H   0  0  0  0  0  0  0  0  0  0  0  0
   15.8259   -1.6586    0.0000 H   0  0  0  0  0  0  0  0  0  0  0  0
    8.7687    1.9068    0.0000 H   0  0  0  0  0  0  0  0  0  0  0  0
   14.3509   -2.4812    0.0000 H   0  0  0  0  0  0  0  0  0  0  0  0
   15.0412   -2.8798    0.0000 H   0  0  0  0  0  0  0  0  0  0  0  0
    7.2445    1.4068    0.0000 H   0  0  0  0  0  0  0  0  0  0  0  0
    9.9256    2.5968    0.0000 H   0  0  0  0  0  0  0  0  0  0  0  0
    9.3056    3.2168    0.0000 H   0  0  0  0  0  0  0  0  0  0  0  0
    8.6856    2.5968    0.0000 H   0  0  0  0  0  0  0  0  0  0  0  0
    9.8616    0.5599    0.0000 H   0  0  0  0  0  0  0  0  0  0  0  0
   10.7086    0.7868    0.0000 H   0  0  0  0  0  0  0  0  0  0  0  0
   10.4816    1.6338    0.0000 H   0  0  0  0  0  0  0  0  0  0  0  0
   11.0377    0.2168    0.0000 H   0  0  0  0  0  0  0  0  0  0  0  0
    5.5124   -3.2132    0.0000 H   0  0  0  0  0  0  0  0  0  0  0  0
    4.1095   -0.7832    0.0000 H   0  0  0  0  0  0  0  0  0  0  0  0
    9.6347   -2.2132    0.0000 H   0  0  0  0  0  0  0  0  0  0  0  0
   15.4705   -0.8471    0.0000 H   0  0  0  0  0  0  0  0  0  0  0  0
   15.2435   -0.0002    0.0000 H   0  0  0  0  0  0  0  0  0  0  0  0
   14.3966   -0.2271    0.0000 H   0  0  0  0  0  0  0  0  0  0  0  0
   11.0377   -3.0232    0.0000 H   0  0  0  0  0  0  0  0  0  0  0  0
    4.1095   -4.0232    0.0000 H   0  0  0  0  0  0  0  0  0  0  0  0
    2.7065   -1.5932    0.0000 H   0  0  0  0  0  0  0  0  0  0  0  0
    2.7065   -3.2132    0.0000 H   0  0  0  0  0  0  0  0  0  0  0  0
  1  8  2  0  0  0  0
  1  9  2  0  0  0  0
  1 12  1  0  0  0  0
  1 35  1  0  0  0  0
  2 41  1  0  0  0  0
  2 43  1  0  0  0  0
  3 16  1  0  0  0  0
  3 19  1  0  0  0  0
  4 16  1  0  0  0  0
  4 20  1  0  0  0  0
 17  5  1  6  0  0  0
  5 22  1  0  0  0  0
 23  6  1  6  0  0  0
  6 81  1  0  0  0  0
  7 22  2  0  0  0  0
 21 10  1  6  0  0  0
 10 22  1  0  0  0  0
 10 61  1  0  0  0  0
 11 26  1  0  0  0  0
 11 27  1  0  0  0  0
 11 31  1  0  0  0  0
 12 24  1  0  0  0  0
 12 30  1  0  0  0  0
 13 33  1  0  0  0  0
 13 41  1  0  0  0  0
 13 45  1  0  0  0  0
 14 41  2  0  0  0  0
 14 44  1  0  0  0  0
 15 16  1  0  0  0  0
 15 17  1  0  0  0  0
 15 18  1  0  0  0  0
 15 50  1  1  0  0  0
 16 51  1  1  0  0  0
 17 19  1  0  0  0  0
 17 52  1  0  0  0  0
 18 20  1  0  0  0  0
 18 53  1  0  0  0  0
 18 54  1  0  0  0  0
 19 55  1  0  0  0  0
 19 56  1  0  0  0  0
 20 57  1  0  0  0  0
 20 58  1  0  0  0  0
 21 23  1  0  0  0  0
 21 25  1  0  0  0  0
 21 59  1  0  0  0  0
 23 24  1  0  0  0  0
 23 60  1  0  0  0  0
 24 62  1  0  0  0  0
 24 63  1  0  0  0  0
 25 34  1  0  0  0  0
 25 64  1  0  0  0  0
 25 65  1  0  0  0  0
 26 28  1  0  0  0  0
 26 66  1  0  0  0  0
 26 67  1  0  0  0  0
 27 29  1  0  0  0  0
 27 68  1  0  0  0  0
 27 69  1  0  0  0  0
 28 29  1  0  0  0  0
 28 70  1  0  0  0  0
 28 71  1  0  0  0  0
 29 72  1  0  0  0  0
 29 73  1  0  0  0  0
 30 32  1  0  0  0  0
 30 74  1  0  0  0  0
 30 75  1  0  0  0  0
 31 33  1  0  0  0  0
 31 76  1  0  0  0  0
 31 77  1  0  0  0  0
 32 36  1  0  0  0  0
 32 37  1  0  0  0  0
 32 78  1  0  0  0  0
 33 79  1  0  0  0  0
 33 80  1  0  0  0  0
 34 39  2  0  0  0  0
 34 40  1  0  0  0  0
 35 38  2  0  0  0  0
 35 42  1  0  0  0  0
 36 82  1  0  0  0  0
 36 83  1  0  0  0  0
 36 84  1  0  0  0  0
 37 85  1  0  0  0  0
 37 86  1  0  0  0  0
 37 87  1  0  0  0  0
 38 43  1  0  0  0  0
 38 88  1  0  0  0  0
 39 47  1  0  0  0  0
 39 89  1  0  0  0  0
 40 48  2  0  0  0  0
 40 90  1  0  0  0  0
 42 46  2  0  0  0  0
 42 91  1  0  0  0  0
 43 44  2  0  0  0  0
 44 46  1  0  0  0  0
 45 92  1  0  0  0  0
 45 93  1  0  0  0  0
 45 94  1  0  0  0  0
 46 95  1  0  0  0  0
 47 49  2  0  0  0  0
 47 96  1  0  0  0  0
 48 49  1  0  0  0  0
 48 97  1  0  0  0  0
 49 98  1  0  0  0  0
M  END
> <PUBCHEM_COMPOUND_CID>
509680
> <PUBCHEM_COMPOUND_CANONICALIZED>
1
> <PUBCHEM_CACTVS_COMPLEXITY>
1170
> <PUBCHEM_CACTVS_HBOND_ACCEPTOR>
12
> <PUBCHEM_CACTVS_HBOND_DONOR>
2
> <PUBCHEM_CACTVS_ROTATABLE_BOND>
16
> <PUBCHEM_CACTVS_SUBSKEYS>
AAADcfB/uABgAAAAAAAAAAAAAAAAAWLEiQAwYAAAAAASAFgB9AAAHgQQSAAADTzx3gcz2bPIFgqsAyRifHDD8LlhCjhJmLw4ZJmbcKLg2ZG+YAhtlgLeyCfQ4KgOAAQAAEAAAQAACAAAgAACAAAAAAAAAA==
> <PUBCHEM_IUPAC_OPENEYE_NAME>
[(3aS,4R,6aR)-2,3,3a,4,5,6a-hexahydrofuro[2,3-b]furan-4-yl] N-[(1S,2R)-1-benzyl-2-hydroxy-3-[isobutyl-[[2-[methyl(2-pyrrolidin-1-ylethyl)amino]-1,3-benzothiazol-6-yl]sulfonyl]amino]propyl]carbamate
> <PUBCHEM_IUPAC_CAS_NAME>
N-[(2S,3R)-3-hydroxy-4-[2-methylpropyl-[[2-[methyl-[2-(1-pyrrolidinyl)ethyl]amino]-1,3-benzothiazol-6-yl]sulfonyl]amino]-1-phenylbutan-2-yl]carbamic acid [(3aS,4R,6aR)-2,3,3a,4,5,6a-hexahydrofuro[2,3-b]furan-4-yl] ester
> <PUBCHEM_IUPAC_NAME_MARKUP>
[(3<I>a</I><I>S</I>,4<I>R</I>,6<I>a</I><I>R</I>)-2,3,3<I>a</I>,4,5,6<I>a</I>-hexahydrofuro[2,3-b]furan-4-yl] <I>N</I>-[(2<I>S</I>,3<I>R</I>)-3-hydroxy-4-[2-methylpropyl-[[2-[methyl(2-pyrrolidin-1-ylethyl)amino]-1,3-benzothiazol-6-yl]sulfonyl]amino]-1-phenylbutan-2-yl]carbamate
> <PUBCHEM_IUPAC_NAME>
[(3aS,4R,6aR)-2,3,3a,4,5,6a-hexahydrofuro[2,3-b]furan-4-yl] N-[(2S,3R)-3-hydroxy-4-[2-methylpropyl-[[2-[methyl(2-pyrrolidin-1-ylethyl)amino]-1,3-benzothiazol-6-yl]sulfonyl]amino]-1-phenylbutan-2-yl]carbamate
> <PUBCHEM_IUPAC_SYSTEMATIC_NAME>
[(3aS,4R,6aR)-2,3,3a,4,5,6a-hexahydrofuro[2,3-b]furan-4-yl] N-[(2S,3R)-4-[2-methylpropyl-[[2-[methyl(2-pyrrolidin-1-ylethyl)amino]-1,3-benzothiazol-6-yl]sulfonyl]amino]-3-oxidanyl-1-phenyl-butan-2-yl]carbamate
> <PUBCHEM_IUPAC_TRADITIONAL_NAME>
N-[(1S,2R)-1-benzyl-2-hydroxy-3-[isobutyl-[[2-[methyl(2-pyrrolidinoethyl)amino]-1,3-benzothiazol-6-yl]sulfonyl]amino]propyl]carbamic acid [(3aS,4R,6aR)-2,3,3a,4,5,6a-hexahydrofuro[2,3-b]furan-4-yl] ester
> <PUBCHEM_IUPAC_INCHI>
InChI=1S/C35H49N5O7S2/c1-24(2)21-40(49(43,44)26-11-12-28-32(20-26)48-34(36-28)38(3)16-17-39-14-7-8-15-39)22-30(41)29(19-25-9-5-4-6-10-25)37-35(42)47-31-23-46-33-27(31)13-18-45-33/h4-6,9-12,20,24,27,29-31,33,41H,7-8,13-19,21-23H2,1-3H3,(H,37,42)/t27-,29-,30+,31-,33+/m0/s1
> <PUBCHEM_IUPAC_INCHIKEY>
MKLOOYNBRYBTHY-OMBKUMFSSA-N
> <PUBCHEM_XLOGP3_AA>
5.1
> <PUBCHEM_EXACT_MASS>
715.30734127
> <PUBCHEM_MOLECULAR_FORMULA>
C35H49N5O7S2
> <PUBCHEM_MOLECULAR_WEIGHT>
715.9
> <PUBCHEM_OPENEYE_CAN_SMILES>
CC(C)CN(CC(C(CC1=CC=CC=C1)NC(=O)OC2COC3C2CCO3)O)S(=O)(=O)C4=CC5=C(C=C4)N=C(S5)N(C)CCN6CCCC6
> <PUBCHEM_OPENEYE_ISO_SMILES>
CC(C)CN(C[C@H]([C@H](CC1=CC=CC=C1)NC(=O)O[C@H]2CO[C@@H]3[C@H]2CCO3)O)S(=O)(=O)C4=CC5=C(C=C4)N=C(S5)N(C)CCN6CCCC6
> <PUBCHEM_CACTVS_TPSA>
170
> <PUBCHEM_MONOISOTOPIC_WEIGHT>
715.30734127
> <PUBCHEM_TOTAL_CHARGE>
0
> <PUBCHEM_HEAVY_ATOM_COUNT>
49
> <PUBCHEM_ATOM_DEF_STEREO_COUNT>
5
> <PUBCHEM_ATOM_UDEF_STEREO_COUNT>
0
> <PUBCHEM_BOND_DEF_STEREO_COUNT>
0
> <PUBCHEM_BOND_UDEF_STEREO_COUNT>
0
> <PUBCHEM_ISOTOPIC_ATOM_COUNT>
0
> <PUBCHEM_COMPONENT_COUNT>
1
> <PUBCHEM_CACTVS_TAUTO_COUNT>
-1
> <PUBCHEM_COORDINATE_TYPE>
1
5
255
> <PUBCHEM_BONDANNOTATIONS>
21  10  6
14  41  8
14  44  8
15  50  5
16  51  5
2  41  8
2  43  8
34  39  8
34  40  8
35  38  8
35  42  8
38  43  8
39  47  8
40  48  8
42  46  8
43  44  8
44  46  8
47  49  8
48  49  8
17  5  6
23  6  6
$$$$
