509650
  -OEChem-10302200282D
 90 94  0     1  0  0  0  0  0999 V2000
    8.0622   -0.1121    0.0000 S   0  0  0  0  0  0  0  0  0  0  0  0
   11.6065   -0.3073    0.0000 S   0  0  0  0  0  0  0  0  0  0  0  0
    5.4641    1.3879    0.0000 O   0  0  0  0  0  0  0  0  0  0  0  0
    2.8660    1.8879    0.0000 O   0  0  0  0  0  0  0  0  0  0  0  0
    7.5622   -0.9781    0.0000 O   0  0  0  0  0  0  0  0  0  0  0  0
    8.5622    0.7540    0.0000 O   0  0  0  0  0  0  0  0  0  0  0  0
    2.3660    4.4268    0.0000 O   0  0  0  0  0  0  0  0  0  0  0  0
    4.5981    1.8879    0.0000 O   0  0  0  0  0  0  0  0  0  0  0  0
   15.1901   -2.8441    0.0000 N   0  0  0  0  0  0  0  0  0  0  0  0
    7.1962    0.3879    0.0000 N   0  0  3  0  0  0  0  0  0  0  0  0
    3.7320    0.3879    0.0000 N   0  0  0  0  0  0  0  0  0  0  0  0
   13.1901   -1.1121    0.0000 N   0  0  0  0  0  0  0  0  0  0  0  0
   11.6065   -1.9168    0.0000 N   0  0  0  0  0  0  0  0  0  0  0  0
   14.7833   -3.7576    0.0000 C   0  0  0  0  0  0  0  0  0  0  0  0
   16.1846   -2.9486    0.0000 C   0  0  0  0  0  0  0  0  0  0  0  0
   15.5265   -4.4268    0.0000 C   0  0  0  0  0  0  0  0  0  0  0  0
   16.3925   -3.9268    0.0000 C   0  0  0  0  0  0  0  0  0  0  0  0
    5.4641    0.3879    0.0000 C   0  0  1  0  0  0  0  0  0  0  0  0
    4.5981   -0.1121    0.0000 C   0  0  2  0  0  0  0  0  0  0  0  0
    6.3301   -0.1121    0.0000 C   0  0  0  0  0  0  0  0  0  0  0  0
    7.1962    1.3879    0.0000 C   0  0  0  0  0  0  0  0  0  0  0  0
   14.6901   -1.9781    0.0000 C   0  0  0  0  0  0  0  0  0  0  0  0
    8.0622    1.8879    0.0000 C   0  0  0  0  0  0  0  0  0  0  0  0
    4.5981   -1.1121    0.0000 C   0  0  0  0  0  0  0  0  0  0  0  0
   13.6901   -1.9781    0.0000 C   0  0  0  0  0  0  0  0  0  0  0  0
    8.9282   -0.6121    0.0000 C   0  0  0  0  0  0  0  0  0  0  0  0
    3.7320   -1.6121    0.0000 C   0  0  0  0  0  0  0  0  0  0  0  0
    8.0622    2.8879    0.0000 C   0  0  0  0  0  0  0  0  0  0  0  0
    8.9282    1.3879    0.0000 C   0  0  0  0  0  0  0  0  0  0  0  0
    2.8660    2.8879    0.0000 C   0  0  1  0  0  0  0  0  0  0  0  0
    3.6750    3.4757    0.0000 C   0  0  0  0  0  0  0  0  0  0  0  0
    3.7320    1.3879    0.0000 C   0  0  0  0  0  0  0  0  0  0  0  0
    9.7942   -0.1121    0.0000 C   0  0  0  0  0  0  0  0  0  0  0  0
    2.0570    3.4757    0.0000 C   0  0  0  0  0  0  0  0  0  0  0  0
    8.9282   -1.6121    0.0000 C   0  0  0  0  0  0  0  0  0  0  0  0
    3.3660    4.4268    0.0000 C   0  0  0  0  0  0  0  0  0  0  0  0
   10.6603   -0.6121    0.0000 C   0  0  0  0  0  0  0  0  0  0  0  0
   12.1901   -1.1121    0.0000 C   0  0  0  0  0  0  0  0  0  0  0  0
   10.6603   -1.6121    0.0000 C   0  0  0  0  0  0  0  0  0  0  0  0
    3.7320   -2.6121    0.0000 C   0  0  0  0  0  0  0  0  0  0  0  0
    2.8660   -1.1121    0.0000 C   0  0  0  0  0  0  0  0  0  0  0  0
    9.7942   -2.1121    0.0000 C   0  0  0  0  0  0  0  0  0  0  0  0
    2.8660   -3.1121    0.0000 C   0  0  0  0  0  0  0  0  0  0  0  0
    2.0000   -1.6121    0.0000 C   0  0  0  0  0  0  0  0  0  0  0  0
    2.0000   -2.6121    0.0000 C   0  0  0  0  0  0  0  0  0  0  0  0
   14.2464   -3.4476    0.0000 H   0  0  0  0  0  0  0  0  0  0  0  0
   14.4189   -4.2592    0.0000 H   0  0  0  0  0  0  0  0  0  0  0  0
   16.8012   -2.8838    0.0000 H   0  0  0  0  0  0  0  0  0  0  0  0
   16.1846   -2.3286    0.0000 H   0  0  0  0  0  0  0  0  0  0  0  0
   15.0657   -4.8416    0.0000 H   0  0  0  0  0  0  0  0  0  0  0  0
   15.8909   -4.9284    0.0000 H   0  0  0  0  0  0  0  0  0  0  0  0
   16.6447   -4.4932    0.0000 H   0  0  0  0  0  0  0  0  0  0  0  0
   16.9822   -3.7352    0.0000 H   0  0  0  0  0  0  0  0  0  0  0  0
    6.0010    0.6979    0.0000 H   0  0  0  0  0  0  0  0  0  0  0  0
    4.5981    0.5079    0.0000 H   0  0  0  0  0  0  0  0  0  0  0  0
    5.9316   -0.5870    0.0000 H   0  0  0  0  0  0  0  0  0  0  0  0
    6.7287   -0.5870    0.0000 H   0  0  0  0  0  0  0  0  0  0  0  0
    6.9841    1.9706    0.0000 H   0  0  0  0  0  0  0  0  0  0  0  0
    6.5856    1.2803    0.0000 H   0  0  0  0  0  0  0  0  0  0  0  0
   15.2727   -1.7660    0.0000 H   0  0  0  0  0  0  0  0  0  0  0  0
   14.5824   -1.3675    0.0000 H   0  0  0  0  0  0  0  0  0  0  0  0
    8.0622    1.2679    0.0000 H   0  0  0  0  0  0  0  0  0  0  0  0
    4.8101   -1.6947    0.0000 H   0  0  0  0  0  0  0  0  0  0  0  0
    5.2087   -1.0044    0.0000 H   0  0  0  0  0  0  0  0  0  0  0  0
   13.1075   -2.1901    0.0000 H   0  0  0  0  0  0  0  0  0  0  0  0
   13.7977   -2.5887    0.0000 H   0  0  0  0  0  0  0  0  0  0  0  0
    3.1951    0.0779    0.0000 H   0  0  0  0  0  0  0  0  0  0  0  0
    8.6822    2.8879    0.0000 H   0  0  0  0  0  0  0  0  0  0  0  0
    8.0622    3.5079    0.0000 H   0  0  0  0  0  0  0  0  0  0  0  0
    7.4422    2.8879    0.0000 H   0  0  0  0  0  0  0  0  0  0  0  0
    8.6182    0.8510    0.0000 H   0  0  0  0  0  0  0  0  0  0  0  0
    9.4651    1.0779    0.0000 H   0  0  0  0  0  0  0  0  0  0  0  0
    9.2382    1.9249    0.0000 H   0  0  0  0  0  0  0  0  0  0  0  0
    3.4184    2.6065    0.0000 H   0  0  0  0  0  0  0  0  0  0  0  0
    6.0010    1.6979    0.0000 H   0  0  0  0  0  0  0  0  0  0  0  0
    3.9850    2.9388    0.0000 H   0  0  0  0  0  0  0  0  0  0  0  0
    4.2414    3.7279    0.0000 H   0  0  0  0  0  0  0  0  0  0  0  0
   13.5001   -0.5751    0.0000 H   0  0  0  0  0  0  0  0  0  0  0  0
    9.7942    0.5079    0.0000 H   0  0  0  0  0  0  0  0  0  0  0  0
    1.4906    3.7279    0.0000 H   0  0  0  0  0  0  0  0  0  0  0  0
    1.7470    2.9388    0.0000 H   0  0  0  0  0  0  0  0  0  0  0  0
    8.3913   -1.9221    0.0000 H   0  0  0  0  0  0  0  0  0  0  0  0
    3.9725    4.5557    0.0000 H   0  0  0  0  0  0  0  0  0  0  0  0
    3.3012    5.0434    0.0000 H   0  0  0  0  0  0  0  0  0  0  0  0
    4.2690   -2.9221    0.0000 H   0  0  0  0  0  0  0  0  0  0  0  0
    2.8660   -0.4921    0.0000 H   0  0  0  0  0  0  0  0  0  0  0  0
    9.7942   -2.7321    0.0000 H   0  0  0  0  0  0  0  0  0  0  0  0
    2.8660   -3.7321    0.0000 H   0  0  0  0  0  0  0  0  0  0  0  0
    1.4631   -1.3021    0.0000 H   0  0  0  0  0  0  0  0  0  0  0  0
    1.4631   -2.9221    0.0000 H   0  0  0  0  0  0  0  0  0  0  0  0
  1  5  2  0  0  0  0
  1  6  2  0  0  0  0
  1 10  1  0  0  0  0
  1 26  1  0  0  0  0
  2 37  1  0  0  0  0
  2 38  1  0  0  0  0
 18  3  1  6  0  0  0
  3 75  1  0  0  0  0
 30  4  1  6  0  0  0
  4 32  1  0  0  0  0
  7 34  1  0  0  0  0
  7 36  1  0  0  0  0
  8 32  2  0  0  0  0
  9 14  1  0  0  0  0
  9 15  1  0  0  0  0
  9 22  1  0  0  0  0
 10 20  1  0  0  0  0
 10 21  1  0  0  0  0
 19 11  1  6  0  0  0
 11 32  1  0  0  0  0
 11 67  1  0  0  0  0
 12 25  1  0  0  0  0
 12 38  1  0  0  0  0
 12 78  1  0  0  0  0
 13 38  2  0  0  0  0
 13 39  1  0  0  0  0
 14 16  1  0  0  0  0
 14 46  1  0  0  0  0
 14 47  1  0  0  0  0
 15 17  1  0  0  0  0
 15 48  1  0  0  0  0
 15 49  1  0  0  0  0
 16 17  1  0  0  0  0
 16 50  1  0  0  0  0
 16 51  1  0  0  0  0
 17 52  1  0  0  0  0
 17 53  1  0  0  0  0
 18 19  1  0  0  0  0
 18 20  1  0  0  0  0
 18 54  1  0  0  0  0
 19 24  1  0  0  0  0
 19 55  1  0  0  0  0
 20 56  1  0  0  0  0
 20 57  1  0  0  0  0
 21 23  1  0  0  0  0
 21 58  1  0  0  0  0
 21 59  1  0  0  0  0
 22 25  1  0  0  0  0
 22 60  1  0  0  0  0
 22 61  1  0  0  0  0
 23 28  1  0  0  0  0
 23 29  1  0  0  0  0
 23 62  1  0  0  0  0
 24 27  1  0  0  0  0
 24 63  1  0  0  0  0
 24 64  1  0  0  0  0
 25 65  1  0  0  0  0
 25 66  1  0  0  0  0
 26 33  2  0  0  0  0
 26 35  1  0  0  0  0
 27 40  2  0  0  0  0
 27 41  1  0  0  0  0
 28 68  1  0  0  0  0
 28 69  1  0  0  0  0
 28 70  1  0  0  0  0
 29 71  1  0  0  0  0
 29 72  1  0  0  0  0
 29 73  1  0  0  0  0
 30 31  1  0  0  0  0
 30 34  1  0  0  0  0
 30 74  1  0  0  0  0
 31 36  1  0  0  0  0
 31 76  1  0  0  0  0
 31 77  1  0  0  0  0
 33 37  1  0  0  0  0
 33 79  1  0  0  0  0
 34 80  1  0  0  0  0
 34 81  1  0  0  0  0
 35 42  2  0  0  0  0
 35 82  1  0  0  0  0
 36 83  1  0  0  0  0
 36 84  1  0  0  0  0
 37 39  2  0  0  0  0
 39 42  1  0  0  0  0
 40 43  1  0  0  0  0
 40 85  1  0  0  0  0
 41 44  2  0  0  0  0
 41 86  1  0  0  0  0
 42 87  1  0  0  0  0
 43 45  2  0  0  0  0
 43 88  1  0  0  0  0
 44 45  1  0  0  0  0
 44 89  1  0  0  0  0
 45 90  1  0  0  0  0
M  END
> <PUBCHEM_COMPOUND_CID>
509650
> <PUBCHEM_COMPOUND_CANONICALIZED>
1
> <PUBCHEM_CACTVS_COMPLEXITY>
1020
> <PUBCHEM_CACTVS_HBOND_ACCEPTOR>
11
> <PUBCHEM_CACTVS_HBOND_DONOR>
3
> <PUBCHEM_CACTVS_ROTATABLE_BOND>
16
> <PUBCHEM_CACTVS_SUBSKEYS>
AAADcfB/uABgAAAAAAAAAAAAAAAAAWLEgAAwYAAAAAAAAFgB9AAAHgQQSAAADTzh3gYz2bPIFgqsAyRifHDD8LlhCjlJmLw4ZJmLcKLg2ZGeYAhtlgLayCeQwKAOAAQAAEAAAQAACAAAgAACAAAAAAAAAA==
> <PUBCHEM_IUPAC_OPENEYE_NAME>
[(3S)-tetrahydrofuran-3-yl] N-[(1S,2R)-1-benzyl-2-hydroxy-3-[isobutyl-[[2-(2-pyrrolidin-1-ylethylamino)-1,3-benzothiazol-6-yl]sulfonyl]amino]propyl]carbamate
> <PUBCHEM_IUPAC_CAS_NAME>
N-[(2S,3R)-3-hydroxy-4-[2-methylpropyl-[[2-[2-(1-pyrrolidinyl)ethylamino]-1,3-benzothiazol-6-yl]sulfonyl]amino]-1-phenylbutan-2-yl]carbamic acid [(3S)-3-oxolanyl] ester
> <PUBCHEM_IUPAC_NAME_MARKUP>
[(3<I>S</I>)-oxolan-3-yl] <I>N</I>-[(2<I>S</I>,3<I>R</I>)-3-hydroxy-4-[2-methylpropyl-[[2-(2-pyrrolidin-1-ylethylamino)-1,3-benzothiazol-6-yl]sulfonyl]amino]-1-phenylbutan-2-yl]carbamate
> <PUBCHEM_IUPAC_NAME>
[(3S)-oxolan-3-yl] N-[(2S,3R)-3-hydroxy-4-[2-methylpropyl-[[2-(2-pyrrolidin-1-ylethylamino)-1,3-benzothiazol-6-yl]sulfonyl]amino]-1-phenylbutan-2-yl]carbamate
> <PUBCHEM_IUPAC_SYSTEMATIC_NAME>
[(3S)-oxolan-3-yl] N-[(2S,3R)-4-[2-methylpropyl-[[2-(2-pyrrolidin-1-ylethylamino)-1,3-benzothiazol-6-yl]sulfonyl]amino]-3-oxidanyl-1-phenyl-butan-2-yl]carbamate
> <PUBCHEM_IUPAC_TRADITIONAL_NAME>
N-[(1S,2R)-1-benzyl-2-hydroxy-3-[isobutyl-[[2-(2-pyrrolidinoethylamino)-1,3-benzothiazol-6-yl]sulfonyl]amino]propyl]carbamic acid [(3S)-tetrahydrofuran-3-yl] ester
> <PUBCHEM_IUPAC_INCHI>
InChI=1S/C32H45N5O6S2/c1-23(2)20-37(21-29(38)28(18-24-8-4-3-5-9-24)35-32(39)43-25-12-17-42-22-25)45(40,41)26-10-11-27-30(19-26)44-31(34-27)33-13-16-36-14-6-7-15-36/h3-5,8-11,19,23,25,28-29,38H,6-7,12-18,20-22H2,1-2H3,(H,33,34)(H,35,39)/t25-,28-,29+/m0/s1
> <PUBCHEM_IUPAC_INCHIKEY>
NDMHIDHKTFSYCN-OWPQXHQJSA-N
> <PUBCHEM_XLOGP3_AA>
4.9
> <PUBCHEM_EXACT_MASS>
659.28112652
> <PUBCHEM_MOLECULAR_FORMULA>
C32H45N5O6S2
> <PUBCHEM_MOLECULAR_WEIGHT>
659.9
> <PUBCHEM_OPENEYE_CAN_SMILES>
CC(C)CN(CC(C(CC1=CC=CC=C1)NC(=O)OC2CCOC2)O)S(=O)(=O)C3=CC4=C(C=C3)N=C(S4)NCCN5CCCC5
> <PUBCHEM_OPENEYE_ISO_SMILES>
CC(C)CN(C[C@H]([C@H](CC1=CC=CC=C1)NC(=O)O[C@H]2CCOC2)O)S(=O)(=O)C3=CC4=C(C=C3)N=C(S4)NCCN5CCCC5
> <PUBCHEM_CACTVS_TPSA>
170
> <PUBCHEM_MONOISOTOPIC_WEIGHT>
659.28112652
> <PUBCHEM_TOTAL_CHARGE>
0
> <PUBCHEM_HEAVY_ATOM_COUNT>
45
> <PUBCHEM_ATOM_DEF_STEREO_COUNT>
3
> <PUBCHEM_ATOM_UDEF_STEREO_COUNT>
0
> <PUBCHEM_BOND_DEF_STEREO_COUNT>
0
> <PUBCHEM_BOND_UDEF_STEREO_COUNT>
0
> <PUBCHEM_ISOTOPIC_ATOM_COUNT>
0
> <PUBCHEM_COMPONENT_COUNT>
1
> <PUBCHEM_CACTVS_TAUTO_COUNT>
-1
> <PUBCHEM_COORDINATE_TYPE>
1
5
255
> <PUBCHEM_BONDANNOTATIONS>
19  11  6
13  38  8
13  39  8
2  37  8
2  38  8
26  33  8
26  35  8
27  40  8
27  41  8
18  3  6
33  37  8
35  42  8
37  39  8
39  42  8
30  4  6
40  43  8
41  44  8
43  45  8
44  45  8
$$$$
