509624
  -OEChem-10302200282D
 97101  0     1  0  0  0  0  0999 V2000
    9.7942   -0.3426    0.0000 S   0  0  0  0  0  0  0  0  0  0  0  0
   13.3385   -0.5379    0.0000 S   0  0  0  0  0  0  0  0  0  0  0  0
    7.1962    1.1574    0.0000 O   0  0  0  0  0  0  0  0  0  0  0  0
    9.2942   -1.2087    0.0000 O   0  0  0  0  0  0  0  0  0  0  0  0
   10.2942    0.5234    0.0000 O   0  0  0  0  0  0  0  0  0  0  0  0
   14.9221   -3.0747    0.0000 O   0  0  0  0  0  0  0  0  0  0  0  0
    6.3301    1.6574    0.0000 O   0  0  0  0  0  0  0  0  0  0  0  0
    4.5981    2.6574    0.0000 O   0  0  0  0  0  0  0  0  0  0  0  0
    8.9282    0.1574    0.0000 N   0  0  3  0  0  0  0  0  0  0  0  0
   16.9221   -3.0747    0.0000 N   0  0  0  0  0  0  0  0  0  0  0  0
    5.4641    0.1574    0.0000 N   0  0  0  0  0  0  0  0  0  0  0  0
   14.9221   -1.3426    0.0000 N   0  0  0  0  0  0  0  0  0  0  0  0
   13.3385   -2.1474    0.0000 N   0  0  0  0  0  0  0  0  0  0  0  0
    7.1962    0.1574    0.0000 C   0  0  2  0  0  0  0  0  0  0  0  0
    8.0622   -0.3426    0.0000 C   0  0  0  0  0  0  0  0  0  0  0  0
    6.3301   -0.3426    0.0000 C   0  0  2  0  0  0  0  0  0  0  0  0
   17.2585   -4.6574    0.0000 C   0  0  0  0  0  0  0  0  0  0  0  0
   18.1246   -4.1574    0.0000 C   0  0  0  0  0  0  0  0  0  0  0  0
    8.9282    1.1574    0.0000 C   0  0  0  0  0  0  0  0  0  0  0  0
   16.5154   -3.9882    0.0000 C   0  0  0  0  0  0  0  0  0  0  0  0
   17.9167   -3.1792    0.0000 C   0  0  0  0  0  0  0  0  0  0  0  0
    9.7942    1.6574    0.0000 C   0  0  0  0  0  0  0  0  0  0  0  0
    6.3301   -1.3426    0.0000 C   0  0  0  0  0  0  0  0  0  0  0  0
   16.4221   -2.2087    0.0000 C   0  0  0  0  0  0  0  0  0  0  0  0
   10.6603   -0.8426    0.0000 C   0  0  0  0  0  0  0  0  0  0  0  0
    9.7942    2.6574    0.0000 C   0  0  0  0  0  0  0  0  0  0  0  0
   10.6603    1.1574    0.0000 C   0  0  0  0  0  0  0  0  0  0  0  0
    5.4641   -1.8426    0.0000 C   0  0  0  0  0  0  0  0  0  0  0  0
   15.4221   -2.2087    0.0000 C   0  0  0  0  0  0  0  0  0  0  0  0
   11.5263   -0.3426    0.0000 C   0  0  0  0  0  0  0  0  0  0  0  0
    5.4641    1.1574    0.0000 C   0  0  0  0  0  0  0  0  0  0  0  0
   10.6603   -1.8426    0.0000 C   0  0  0  0  0  0  0  0  0  0  0  0
   12.3923   -0.8426    0.0000 C   0  0  0  0  0  0  0  0  0  0  0  0
    5.4641   -2.8426    0.0000 C   0  0  0  0  0  0  0  0  0  0  0  0
    4.5981   -1.3426    0.0000 C   0  0  0  0  0  0  0  0  0  0  0  0
   12.3923   -1.8426    0.0000 C   0  0  0  0  0  0  0  0  0  0  0  0
   11.5263   -2.3426    0.0000 C   0  0  0  0  0  0  0  0  0  0  0  0
   13.9221   -1.3426    0.0000 C   0  0  0  0  0  0  0  0  0  0  0  0
    4.5981    1.6574    0.0000 C   0  0  0  0  0  0  0  0  0  0  0  0
    4.5981   -3.3426    0.0000 C   0  0  0  0  0  0  0  0  0  0  0  0
    3.7320   -1.8426    0.0000 C   0  0  0  0  0  0  0  0  0  0  0  0
    3.7320   -2.8426    0.0000 C   0  0  0  0  0  0  0  0  0  0  0  0
    3.7320    3.1574    0.0000 C   0  0  0  0  0  0  0  0  0  0  0  0
    3.7320    4.1574    0.0000 C   0  0  0  0  0  0  0  0  0  0  0  0
    2.8660    2.6574    0.0000 C   0  0  0  0  0  0  0  0  0  0  0  0
    2.8660    4.6574    0.0000 C   0  0  0  0  0  0  0  0  0  0  0  0
    2.0000    3.1574    0.0000 C   0  0  0  0  0  0  0  0  0  0  0  0
    4.5981    4.6574    0.0000 C   0  0  0  0  0  0  0  0  0  0  0  0
    2.8660    1.6574    0.0000 C   0  0  0  0  0  0  0  0  0  0  0  0
    2.0000    4.1574    0.0000 C   0  0  0  0  0  0  0  0  0  0  0  0
    6.6592    0.4674    0.0000 H   0  0  0  0  0  0  0  0  0  0  0  0
    7.6636   -0.8176    0.0000 H   0  0  0  0  0  0  0  0  0  0  0  0
    8.4607   -0.8176    0.0000 H   0  0  0  0  0  0  0  0  0  0  0  0
    5.7932   -0.6526    0.0000 H   0  0  0  0  0  0  0  0  0  0  0  0
    8.7162    1.7400    0.0000 H   0  0  0  0  0  0  0  0  0  0  0  0
    8.3176    1.0497    0.0000 H   0  0  0  0  0  0  0  0  0  0  0  0
   16.7978   -5.0722    0.0000 H   0  0  0  0  0  0  0  0  0  0  0  0
   17.6230   -5.1590    0.0000 H   0  0  0  0  0  0  0  0  0  0  0  0
   18.3767   -4.7238    0.0000 H   0  0  0  0  0  0  0  0  0  0  0  0
   18.7142   -3.9658    0.0000 H   0  0  0  0  0  0  0  0  0  0  0  0
   15.9785   -3.6782    0.0000 H   0  0  0  0  0  0  0  0  0  0  0  0
   16.1510   -4.4898    0.0000 H   0  0  0  0  0  0  0  0  0  0  0  0
   18.5333   -3.1144    0.0000 H   0  0  0  0  0  0  0  0  0  0  0  0
   17.9167   -2.5592    0.0000 H   0  0  0  0  0  0  0  0  0  0  0  0
    9.2573    1.9674    0.0000 H   0  0  0  0  0  0  0  0  0  0  0  0
    6.5422   -1.9252    0.0000 H   0  0  0  0  0  0  0  0  0  0  0  0
    6.9407   -1.2350    0.0000 H   0  0  0  0  0  0  0  0  0  0  0  0
   17.0047   -1.9966    0.0000 H   0  0  0  0  0  0  0  0  0  0  0  0
   16.3145   -1.5981    0.0000 H   0  0  0  0  0  0  0  0  0  0  0  0
    4.9272   -0.1526    0.0000 H   0  0  0  0  0  0  0  0  0  0  0  0
   10.4142    2.6574    0.0000 H   0  0  0  0  0  0  0  0  0  0  0  0
    9.7942    3.2774    0.0000 H   0  0  0  0  0  0  0  0  0  0  0  0
    9.1742    2.6574    0.0000 H   0  0  0  0  0  0  0  0  0  0  0  0
   10.3503    0.6204    0.0000 H   0  0  0  0  0  0  0  0  0  0  0  0
   11.1972    0.8474    0.0000 H   0  0  0  0  0  0  0  0  0  0  0  0
   10.9703    1.6943    0.0000 H   0  0  0  0  0  0  0  0  0  0  0  0
    7.7331    1.4674    0.0000 H   0  0  0  0  0  0  0  0  0  0  0  0
   11.5263    0.2774    0.0000 H   0  0  0  0  0  0  0  0  0  0  0  0
   10.1233   -2.1526    0.0000 H   0  0  0  0  0  0  0  0  0  0  0  0
    6.0010   -3.1526    0.0000 H   0  0  0  0  0  0  0  0  0  0  0  0
    4.5981   -0.7226    0.0000 H   0  0  0  0  0  0  0  0  0  0  0  0
   11.5263   -2.9626    0.0000 H   0  0  0  0  0  0  0  0  0  0  0  0
   15.2321   -0.8057    0.0000 H   0  0  0  0  0  0  0  0  0  0  0  0
    3.9875    1.7650    0.0000 H   0  0  0  0  0  0  0  0  0  0  0  0
    4.3860    1.0748    0.0000 H   0  0  0  0  0  0  0  0  0  0  0  0
    4.5981   -3.9626    0.0000 H   0  0  0  0  0  0  0  0  0  0  0  0
    3.1951   -1.5326    0.0000 H   0  0  0  0  0  0  0  0  0  0  0  0
    3.1951   -3.1526    0.0000 H   0  0  0  0  0  0  0  0  0  0  0  0
    2.8660    5.2774    0.0000 H   0  0  0  0  0  0  0  0  0  0  0  0
    1.4631    2.8474    0.0000 H   0  0  0  0  0  0  0  0  0  0  0  0
    4.9081    4.1204    0.0000 H   0  0  0  0  0  0  0  0  0  0  0  0
    5.1350    4.9674    0.0000 H   0  0  0  0  0  0  0  0  0  0  0  0
    4.2881    5.1943    0.0000 H   0  0  0  0  0  0  0  0  0  0  0  0
    2.2460    1.6574    0.0000 H   0  0  0  0  0  0  0  0  0  0  0  0
    2.8660    1.0374    0.0000 H   0  0  0  0  0  0  0  0  0  0  0  0
    3.4860    1.6574    0.0000 H   0  0  0  0  0  0  0  0  0  0  0  0
    1.4631    4.4674    0.0000 H   0  0  0  0  0  0  0  0  0  0  0  0
  1  4  2  0  0  0  0
  1  5  2  0  0  0  0
  1  9  1  0  0  0  0
  1 25  1  0  0  0  0
  2 33  1  0  0  0  0
  2 38  1  0  0  0  0
 14  3  1  6  0  0  0
  3 77  1  0  0  0  0
  6 29  2  0  0  0  0
  7 31  2  0  0  0  0
  8 39  1  0  0  0  0
  8 43  1  0  0  0  0
  9 15  1  0  0  0  0
  9 19  1  0  0  0  0
 10 20  1  0  0  0  0
 10 21  1  0  0  0  0
 10 24  1  0  0  0  0
 16 11  1  6  0  0  0
 11 31  1  0  0  0  0
 11 70  1  0  0  0  0
 12 29  1  0  0  0  0
 12 38  1  0  0  0  0
 12 83  1  0  0  0  0
 13 36  1  0  0  0  0
 13 38  2  0  0  0  0
 14 15  1  0  0  0  0
 14 16  1  0  0  0  0
 14 51  1  0  0  0  0
 15 52  1  0  0  0  0
 15 53  1  0  0  0  0
 16 23  1  0  0  0  0
 16 54  1  0  0  0  0
 17 18  1  0  0  0  0
 17 20  1  0  0  0  0
 17 57  1  0  0  0  0
 17 58  1  0  0  0  0
 18 21  1  0  0  0  0
 18 59  1  0  0  0  0
 18 60  1  0  0  0  0
 19 22  1  0  0  0  0
 19 55  1  0  0  0  0
 19 56  1  0  0  0  0
 20 61  1  0  0  0  0
 20 62  1  0  0  0  0
 21 63  1  0  0  0  0
 21 64  1  0  0  0  0
 22 26  1  0  0  0  0
 22 27  1  0  0  0  0
 22 65  1  0  0  0  0
 23 28  1  0  0  0  0
 23 66  1  0  0  0  0
 23 67  1  0  0  0  0
 24 29  1  0  0  0  0
 24 68  1  0  0  0  0
 24 69  1  0  0  0  0
 25 30  2  0  0  0  0
 25 32  1  0  0  0  0
 26 71  1  0  0  0  0
 26 72  1  0  0  0  0
 26 73  1  0  0  0  0
 27 74  1  0  0  0  0
 27 75  1  0  0  0  0
 27 76  1  0  0  0  0
 28 34  2  0  0  0  0
 28 35  1  0  0  0  0
 30 33  1  0  0  0  0
 30 78  1  0  0  0  0
 31 39  1  0  0  0  0
 32 37  2  0  0  0  0
 32 79  1  0  0  0  0
 33 36  2  0  0  0  0
 34 40  1  0  0  0  0
 34 80  1  0  0  0  0
 35 41  2  0  0  0  0
 35 81  1  0  0  0  0
 36 37  1  0  0  0  0
 37 82  1  0  0  0  0
 39 84  1  0  0  0  0
 39 85  1  0  0  0  0
 40 42  2  0  0  0  0
 40 86  1  0  0  0  0
 41 42  1  0  0  0  0
 41 87  1  0  0  0  0
 42 88  1  0  0  0  0
 43 44  2  0  0  0  0
 43 45  1  0  0  0  0
 44 46  1  0  0  0  0
 44 48  1  0  0  0  0
 45 47  2  0  0  0  0
 45 49  1  0  0  0  0
 46 50  2  0  0  0  0
 46 89  1  0  0  0  0
 47 50  1  0  0  0  0
 47 90  1  0  0  0  0
 48 91  1  0  0  0  0
 48 92  1  0  0  0  0
 48 93  1  0  0  0  0
 49 94  1  0  0  0  0
 49 95  1  0  0  0  0
 49 96  1  0  0  0  0
 50 97  1  0  0  0  0
M  END
> <PUBCHEM_COMPOUND_CID>
509624
> <PUBCHEM_COMPOUND_CANONICALIZED>
1
> <PUBCHEM_CACTVS_COMPLEXITY>
1180
> <PUBCHEM_CACTVS_HBOND_ACCEPTOR>
10
> <PUBCHEM_CACTVS_HBOND_DONOR>
3
> <PUBCHEM_CACTVS_ROTATABLE_BOND>
16
> <PUBCHEM_CACTVS_SUBSKEYS>
AAADcfB/uABgAAAAAAAAAAAAAAAAAWLAAAAwYMAAAAAAAFgB9AAAHgQQSAAADTzh3gYz17PIFgqsAyVydHLD+LlhKjlJmLz8bJiOdqLk+b+XeCjs1xPY6CeQwOAOAAQCAEAIAQAACAQAgBACAAAAAAAAAA==
> <PUBCHEM_IUPAC_OPENEYE_NAME>
N-[6-[[(2R,3S)-3-[[2-(2,6-dimethylphenoxy)acetyl]amino]-2-hydroxy-4-phenyl-butyl]-isobutyl-sulfamoyl]-1,3-benzothiazol-2-yl]-2-pyrrolidin-1-yl-acetamide
> <PUBCHEM_IUPAC_CAS_NAME>
N-[6-[[(2R,3S)-3-[[2-(2,6-dimethylphenoxy)-1-oxoethyl]amino]-2-hydroxy-4-phenylbutyl]-(2-methylpropyl)sulfamoyl]-1,3-benzothiazol-2-yl]-2-(1-pyrrolidinyl)acetamide
> <PUBCHEM_IUPAC_NAME_MARKUP>
<I>N</I>-[6-[[(2<I>R</I>,3<I>S</I>)-3-[[2-(2,6-dimethylphenoxy)acetyl]amino]-2-hydroxy-4-phenylbutyl]-(2-methylpropyl)sulfamoyl]-1,3-benzothiazol-2-yl]-2-pyrrolidin-1-ylacetamide
> <PUBCHEM_IUPAC_NAME>
N-[6-[[(2R,3S)-3-[[2-(2,6-dimethylphenoxy)acetyl]amino]-2-hydroxy-4-phenylbutyl]-(2-methylpropyl)sulfamoyl]-1,3-benzothiazol-2-yl]-2-pyrrolidin-1-ylacetamide
> <PUBCHEM_IUPAC_SYSTEMATIC_NAME>
N-[6-[[(2R,3S)-3-[2-(2,6-dimethylphenoxy)ethanoylamino]-2-oxidanyl-4-phenyl-butyl]-(2-methylpropyl)sulfamoyl]-1,3-benzothiazol-2-yl]-2-pyrrolidin-1-yl-ethanamide
> <PUBCHEM_IUPAC_TRADITIONAL_NAME>
N-[6-[[(2R,3S)-3-[[2-(2,6-dimethylphenoxy)acetyl]amino]-2-hydroxy-4-phenyl-butyl]-isobutyl-sulfamoyl]-1,3-benzothiazol-2-yl]-2-pyrrolidino-acetamide
> <PUBCHEM_IUPAC_INCHI>
InChI=1S/C37H47N5O6S2/c1-25(2)21-42(50(46,47)29-15-16-30-33(20-29)49-37(39-30)40-34(44)23-41-17-8-9-18-41)22-32(43)31(19-28-13-6-5-7-14-28)38-35(45)24-48-36-26(3)11-10-12-27(36)4/h5-7,10-16,20,25,31-32,43H,8-9,17-19,21-24H2,1-4H3,(H,38,45)(H,39,40,44)/t31-,32+/m0/s1
> <PUBCHEM_IUPAC_INCHIKEY>
PKJHKBQHBQJMPU-AJQTZOPKSA-N
> <PUBCHEM_XLOGP3_AA>
6.1
> <PUBCHEM_EXACT_MASS>
721.29677658
> <PUBCHEM_MOLECULAR_FORMULA>
C37H47N5O6S2
> <PUBCHEM_MOLECULAR_WEIGHT>
721.9
> <PUBCHEM_OPENEYE_CAN_SMILES>
CC1=C(C(=CC=C1)C)OCC(=O)NC(CC2=CC=CC=C2)C(CN(CC(C)C)S(=O)(=O)C3=CC4=C(C=C3)N=C(S4)NC(=O)CN5CCCC5)O
> <PUBCHEM_OPENEYE_ISO_SMILES>
CC1=C(C(=CC=C1)C)OCC(=O)N[C@@H](CC2=CC=CC=C2)[C@@H](CN(CC(C)C)S(=O)(=O)C3=CC4=C(C=C3)N=C(S4)NC(=O)CN5CCCC5)O
> <PUBCHEM_CACTVS_TPSA>
178
> <PUBCHEM_MONOISOTOPIC_WEIGHT>
721.29677658
> <PUBCHEM_TOTAL_CHARGE>
0
> <PUBCHEM_HEAVY_ATOM_COUNT>
50
> <PUBCHEM_ATOM_DEF_STEREO_COUNT>
2
> <PUBCHEM_ATOM_UDEF_STEREO_COUNT>
0
> <PUBCHEM_BOND_DEF_STEREO_COUNT>
0
> <PUBCHEM_BOND_UDEF_STEREO_COUNT>
0
> <PUBCHEM_ISOTOPIC_ATOM_COUNT>
0
> <PUBCHEM_COMPONENT_COUNT>
1
> <PUBCHEM_CACTVS_TAUTO_COUNT>
-1
> <PUBCHEM_COORDINATE_TYPE>
1
5
255
> <PUBCHEM_BONDANNOTATIONS>
16  11  6
13  36  8
13  38  8
2  33  8
2  38  8
25  30  8
25  32  8
28  34  8
28  35  8
14  3  6
30  33  8
32  37  8
33  36  8
34  40  8
35  41  8
36  37  8
40  42  8
41  42  8
43  44  8
43  45  8
44  46  8
45  47  8
46  50  8
47  50  8
$$$$
