509646
  -OEChem-10302200282D
 90 94  0     1  0  0  0  0  0999 V2000
    9.7942   -0.3426    0.0000 S   0  0  0  0  0  0  0  0  0  0  0  0
   13.3385   -0.5379    0.0000 S   0  0  0  0  0  0  0  0  0  0  0  0
    7.1962    1.1574    0.0000 O   0  0  0  0  0  0  0  0  0  0  0  0
    9.2942   -1.2087    0.0000 O   0  0  0  0  0  0  0  0  0  0  0  0
   10.2942    0.5234    0.0000 O   0  0  0  0  0  0  0  0  0  0  0  0
    4.5981    1.6574    0.0000 O   0  0  0  0  0  0  0  0  0  0  0  0
   14.9221   -3.0747    0.0000 O   0  0  0  0  0  0  0  0  0  0  0  0
    6.3301    1.6574    0.0000 O   0  0  0  0  0  0  0  0  0  0  0  0
    8.9282    0.1574    0.0000 N   0  0  3  0  0  0  0  0  0  0  0  0
   16.9221   -3.0747    0.0000 N   0  0  0  0  0  0  0  0  0  0  0  0
    5.4641    0.1574    0.0000 N   0  0  0  0  0  0  0  0  0  0  0  0
   14.9221   -1.3426    0.0000 N   0  0  0  0  0  0  0  0  0  0  0  0
   13.3385   -2.1474    0.0000 N   0  0  0  0  0  0  0  0  0  0  0  0
    2.0000    3.1574    0.0000 N   0  0  0  0  0  0  0  0  0  0  0  0
    7.1962    0.1574    0.0000 C   0  0  2  0  0  0  0  0  0  0  0  0
    8.0622   -0.3426    0.0000 C   0  0  0  0  0  0  0  0  0  0  0  0
    6.3301   -0.3426    0.0000 C   0  0  2  0  0  0  0  0  0  0  0  0
   17.2585   -4.6574    0.0000 C   0  0  0  0  0  0  0  0  0  0  0  0
   18.1246   -4.1574    0.0000 C   0  0  0  0  0  0  0  0  0  0  0  0
   16.5154   -3.9882    0.0000 C   0  0  0  0  0  0  0  0  0  0  0  0
   17.9167   -3.1792    0.0000 C   0  0  0  0  0  0  0  0  0  0  0  0
    8.9282    1.1574    0.0000 C   0  0  0  0  0  0  0  0  0  0  0  0
    9.7942    1.6574    0.0000 C   0  0  0  0  0  0  0  0  0  0  0  0
    6.3301   -1.3426    0.0000 C   0  0  0  0  0  0  0  0  0  0  0  0
   16.4221   -2.2087    0.0000 C   0  0  0  0  0  0  0  0  0  0  0  0
   10.6603   -0.8426    0.0000 C   0  0  0  0  0  0  0  0  0  0  0  0
    9.7942    2.6574    0.0000 C   0  0  0  0  0  0  0  0  0  0  0  0
   10.6603    1.1574    0.0000 C   0  0  0  0  0  0  0  0  0  0  0  0
    5.4641   -1.8426    0.0000 C   0  0  0  0  0  0  0  0  0  0  0  0
   15.4221   -2.2087    0.0000 C   0  0  0  0  0  0  0  0  0  0  0  0
   11.5263   -0.3426    0.0000 C   0  0  0  0  0  0  0  0  0  0  0  0
   10.6603   -1.8426    0.0000 C   0  0  0  0  0  0  0  0  0  0  0  0
   12.3923   -0.8426    0.0000 C   0  0  0  0  0  0  0  0  0  0  0  0
    5.4641    1.1574    0.0000 C   0  0  0  0  0  0  0  0  0  0  0  0
   12.3923   -1.8426    0.0000 C   0  0  0  0  0  0  0  0  0  0  0  0
    5.4641   -2.8426    0.0000 C   0  0  0  0  0  0  0  0  0  0  0  0
    4.5981   -1.3426    0.0000 C   0  0  0  0  0  0  0  0  0  0  0  0
   11.5263   -2.3426    0.0000 C   0  0  0  0  0  0  0  0  0  0  0  0
   13.9221   -1.3426    0.0000 C   0  0  0  0  0  0  0  0  0  0  0  0
    4.5981   -3.3426    0.0000 C   0  0  0  0  0  0  0  0  0  0  0  0
    3.7320   -1.8426    0.0000 C   0  0  0  0  0  0  0  0  0  0  0  0
    3.7320   -2.8426    0.0000 C   0  0  0  0  0  0  0  0  0  0  0  0
    4.5981    2.6574    0.0000 C   0  0  0  0  0  0  0  0  0  0  0  0
    3.7320    3.1574    0.0000 C   0  0  0  0  0  0  0  0  0  0  0  0
    3.7320    4.1574    0.0000 C   0  0  0  0  0  0  0  0  0  0  0  0
    2.8660    2.6574    0.0000 C   0  0  0  0  0  0  0  0  0  0  0  0
    2.8660    4.6574    0.0000 C   0  0  0  0  0  0  0  0  0  0  0  0
    2.0000    4.1574    0.0000 C   0  0  0  0  0  0  0  0  0  0  0  0
    6.6592    0.4674    0.0000 H   0  0  0  0  0  0  0  0  0  0  0  0
    7.6636   -0.8176    0.0000 H   0  0  0  0  0  0  0  0  0  0  0  0
    8.4607   -0.8176    0.0000 H   0  0  0  0  0  0  0  0  0  0  0  0
    5.7932   -0.6526    0.0000 H   0  0  0  0  0  0  0  0  0  0  0  0
   16.7978   -5.0722    0.0000 H   0  0  0  0  0  0  0  0  0  0  0  0
   17.6230   -5.1590    0.0000 H   0  0  0  0  0  0  0  0  0  0  0  0
   18.3767   -4.7238    0.0000 H   0  0  0  0  0  0  0  0  0  0  0  0
   18.7142   -3.9658    0.0000 H   0  0  0  0  0  0  0  0  0  0  0  0
   15.9785   -3.6782    0.0000 H   0  0  0  0  0  0  0  0  0  0  0  0
   16.1510   -4.4898    0.0000 H   0  0  0  0  0  0  0  0  0  0  0  0
   18.5333   -3.1144    0.0000 H   0  0  0  0  0  0  0  0  0  0  0  0
   17.9167   -2.5592    0.0000 H   0  0  0  0  0  0  0  0  0  0  0  0
    8.7162    1.7400    0.0000 H   0  0  0  0  0  0  0  0  0  0  0  0
    8.3176    1.0497    0.0000 H   0  0  0  0  0  0  0  0  0  0  0  0
    9.2573    1.9674    0.0000 H   0  0  0  0  0  0  0  0  0  0  0  0
    6.5422   -1.9252    0.0000 H   0  0  0  0  0  0  0  0  0  0  0  0
    6.9407   -1.2350    0.0000 H   0  0  0  0  0  0  0  0  0  0  0  0
   17.0047   -1.9966    0.0000 H   0  0  0  0  0  0  0  0  0  0  0  0
   16.3145   -1.5981    0.0000 H   0  0  0  0  0  0  0  0  0  0  0  0
    4.9272   -0.1526    0.0000 H   0  0  0  0  0  0  0  0  0  0  0  0
   10.4142    2.6574    0.0000 H   0  0  0  0  0  0  0  0  0  0  0  0
    9.7942    3.2774    0.0000 H   0  0  0  0  0  0  0  0  0  0  0  0
    9.1742    2.6574    0.0000 H   0  0  0  0  0  0  0  0  0  0  0  0
   10.3503    0.6204    0.0000 H   0  0  0  0  0  0  0  0  0  0  0  0
   11.1972    0.8474    0.0000 H   0  0  0  0  0  0  0  0  0  0  0  0
   10.9703    1.6943    0.0000 H   0  0  0  0  0  0  0  0  0  0  0  0
    7.7331    1.4674    0.0000 H   0  0  0  0  0  0  0  0  0  0  0  0
   11.5263    0.2774    0.0000 H   0  0  0  0  0  0  0  0  0  0  0  0
   10.1233   -2.1526    0.0000 H   0  0  0  0  0  0  0  0  0  0  0  0
    6.0010   -3.1526    0.0000 H   0  0  0  0  0  0  0  0  0  0  0  0
    4.5981   -0.7226    0.0000 H   0  0  0  0  0  0  0  0  0  0  0  0
   15.2321   -0.8057    0.0000 H   0  0  0  0  0  0  0  0  0  0  0  0
   11.5263   -2.9626    0.0000 H   0  0  0  0  0  0  0  0  0  0  0  0
    4.5981   -3.9626    0.0000 H   0  0  0  0  0  0  0  0  0  0  0  0
    3.1951   -1.5326    0.0000 H   0  0  0  0  0  0  0  0  0  0  0  0
    3.1951   -3.1526    0.0000 H   0  0  0  0  0  0  0  0  0  0  0  0
    5.2087    2.5497    0.0000 H   0  0  0  0  0  0  0  0  0  0  0  0
    4.8101    3.2400    0.0000 H   0  0  0  0  0  0  0  0  0  0  0  0
    4.2690    4.4674    0.0000 H   0  0  0  0  0  0  0  0  0  0  0  0
    2.8660    2.0374    0.0000 H   0  0  0  0  0  0  0  0  0  0  0  0
    2.8660    5.2774    0.0000 H   0  0  0  0  0  0  0  0  0  0  0  0
    1.4631    4.4674    0.0000 H   0  0  0  0  0  0  0  0  0  0  0  0
  1  4  2  0  0  0  0
  1  5  2  0  0  0  0
  1  9  1  0  0  0  0
  1 26  1  0  0  0  0
  2 33  1  0  0  0  0
  2 39  1  0  0  0  0
 15  3  1  6  0  0  0
  3 75  1  0  0  0  0
  6 34  1  0  0  0  0
  6 43  1  0  0  0  0
  7 30  2  0  0  0  0
  8 34  2  0  0  0  0
  9 16  1  0  0  0  0
  9 22  1  0  0  0  0
 10 20  1  0  0  0  0
 10 21  1  0  0  0  0
 10 25  1  0  0  0  0
 17 11  1  6  0  0  0
 11 34  1  0  0  0  0
 11 68  1  0  0  0  0
 12 30  1  0  0  0  0
 12 39  1  0  0  0  0
 12 80  1  0  0  0  0
 13 35  1  0  0  0  0
 13 39  2  0  0  0  0
 14 46  1  0  0  0  0
 14 48  2  0  0  0  0
 15 16  1  0  0  0  0
 15 17  1  0  0  0  0
 15 49  1  0  0  0  0
 16 50  1  0  0  0  0
 16 51  1  0  0  0  0
 17 24  1  0  0  0  0
 17 52  1  0  0  0  0
 18 19  1  0  0  0  0
 18 20  1  0  0  0  0
 18 53  1  0  0  0  0
 18 54  1  0  0  0  0
 19 21  1  0  0  0  0
 19 55  1  0  0  0  0
 19 56  1  0  0  0  0
 20 57  1  0  0  0  0
 20 58  1  0  0  0  0
 21 59  1  0  0  0  0
 21 60  1  0  0  0  0
 22 23  1  0  0  0  0
 22 61  1  0  0  0  0
 22 62  1  0  0  0  0
 23 27  1  0  0  0  0
 23 28  1  0  0  0  0
 23 63  1  0  0  0  0
 24 29  1  0  0  0  0
 24 64  1  0  0  0  0
 24 65  1  0  0  0  0
 25 30  1  0  0  0  0
 25 66  1  0  0  0  0
 25 67  1  0  0  0  0
 26 31  2  0  0  0  0
 26 32  1  0  0  0  0
 27 69  1  0  0  0  0
 27 70  1  0  0  0  0
 27 71  1  0  0  0  0
 28 72  1  0  0  0  0
 28 73  1  0  0  0  0
 28 74  1  0  0  0  0
 29 36  2  0  0  0  0
 29 37  1  0  0  0  0
 31 33  1  0  0  0  0
 31 76  1  0  0  0  0
 32 38  2  0  0  0  0
 32 77  1  0  0  0  0
 33 35  2  0  0  0  0
 35 38  1  0  0  0  0
 36 40  1  0  0  0  0
 36 78  1  0  0  0  0
 37 41  2  0  0  0  0
 37 79  1  0  0  0  0
 38 81  1  0  0  0  0
 40 42  2  0  0  0  0
 40 82  1  0  0  0  0
 41 42  1  0  0  0  0
 41 83  1  0  0  0  0
 42 84  1  0  0  0  0
 43 44  1  0  0  0  0
 43 85  1  0  0  0  0
 43 86  1  0  0  0  0
 44 45  1  0  0  0  0
 44 46  2  0  0  0  0
 45 47  2  0  0  0  0
 45 87  1  0  0  0  0
 46 88  1  0  0  0  0
 47 48  1  0  0  0  0
 47 89  1  0  0  0  0
 48 90  1  0  0  0  0
M  END
> <PUBCHEM_COMPOUND_CID>
509646
> <PUBCHEM_COMPOUND_CANONICALIZED>
1
> <PUBCHEM_CACTVS_COMPLEXITY>
1130
> <PUBCHEM_CACTVS_HBOND_ACCEPTOR>
11
> <PUBCHEM_CACTVS_HBOND_DONOR>
3
> <PUBCHEM_CACTVS_ROTATABLE_BOND>
16
> <PUBCHEM_CACTVS_SUBSKEYS>
AAADcfB/uABgAAAAAAAAAAAAAAAAAWLAAAA8YIAAAAAAAFgB/AAAHgQQSAAADTzh3gY/2bPIFgqsAzV3fHDD8LlxCjlJ2Ly4bJmKduLg+bmccAhu1wPY6CeQ0KIOAAQAAEAAAQAACAAAgAACAAAAAAAAAA==
> <PUBCHEM_IUPAC_OPENEYE_NAME>
3-pyridylmethyl N-[(1S,2R)-1-benzyl-2-hydroxy-3-[isobutyl-[[2-[(2-pyrrolidin-1-ylacetyl)amino]-1,3-benzothiazol-6-yl]sulfonyl]amino]propyl]carbamate
> <PUBCHEM_IUPAC_CAS_NAME>
N-[(2S,3R)-3-hydroxy-4-[2-methylpropyl-[[2-[[1-oxo-2-(1-pyrrolidinyl)ethyl]amino]-1,3-benzothiazol-6-yl]sulfonyl]amino]-1-phenylbutan-2-yl]carbamic acid 3-pyridinylmethyl ester
> <PUBCHEM_IUPAC_NAME_MARKUP>
pyridin-3-ylmethyl <I>N</I>-[(2<I>S</I>,3<I>R</I>)-3-hydroxy-4-[2-methylpropyl-[[2-[(2-pyrrolidin-1-ylacetyl)amino]-1,3-benzothiazol-6-yl]sulfonyl]amino]-1-phenylbutan-2-yl]carbamate
> <PUBCHEM_IUPAC_NAME>
pyridin-3-ylmethyl N-[(2S,3R)-3-hydroxy-4-[2-methylpropyl-[[2-[(2-pyrrolidin-1-ylacetyl)amino]-1,3-benzothiazol-6-yl]sulfonyl]amino]-1-phenylbutan-2-yl]carbamate
> <PUBCHEM_IUPAC_SYSTEMATIC_NAME>
pyridin-3-ylmethyl N-[(2S,3R)-4-[2-methylpropyl-[[2-(2-pyrrolidin-1-ylethanoylamino)-1,3-benzothiazol-6-yl]sulfonyl]amino]-3-oxidanyl-1-phenyl-butan-2-yl]carbamate
> <PUBCHEM_IUPAC_TRADITIONAL_NAME>
N-[(1S,2R)-1-benzyl-2-hydroxy-3-[isobutyl-[[2-[(2-pyrrolidinoacetyl)amino]-1,3-benzothiazol-6-yl]sulfonyl]amino]propyl]carbamic acid 3-pyridylmethyl ester
> <PUBCHEM_IUPAC_INCHI>
InChI=1S/C34H42N6O6S2/c1-24(2)20-40(21-30(41)29(17-25-9-4-3-5-10-25)37-34(43)46-23-26-11-8-14-35-19-26)48(44,45)27-12-13-28-31(18-27)47-33(36-28)38-32(42)22-39-15-6-7-16-39/h3-5,8-14,18-19,24,29-30,41H,6-7,15-17,20-23H2,1-2H3,(H,37,43)(H,36,38,42)/t29-,30+/m0/s1
> <PUBCHEM_IUPAC_INCHIKEY>
FIHBWPLCRLDGKD-XZWHSSHBSA-N
> <PUBCHEM_XLOGP3_AA>
4.5
> <PUBCHEM_EXACT_MASS>
694.26072543
> <PUBCHEM_MOLECULAR_FORMULA>
C34H42N6O6S2
> <PUBCHEM_MOLECULAR_WEIGHT>
694.9
> <PUBCHEM_OPENEYE_CAN_SMILES>
CC(C)CN(CC(C(CC1=CC=CC=C1)NC(=O)OCC2=CN=CC=C2)O)S(=O)(=O)C3=CC4=C(C=C3)N=C(S4)NC(=O)CN5CCCC5
> <PUBCHEM_OPENEYE_ISO_SMILES>
CC(C)CN(C[C@H]([C@H](CC1=CC=CC=C1)NC(=O)OCC2=CN=CC=C2)O)S(=O)(=O)C3=CC4=C(C=C3)N=C(S4)NC(=O)CN5CCCC5
> <PUBCHEM_CACTVS_TPSA>
191
> <PUBCHEM_MONOISOTOPIC_WEIGHT>
694.26072543
> <PUBCHEM_TOTAL_CHARGE>
0
> <PUBCHEM_HEAVY_ATOM_COUNT>
48
> <PUBCHEM_ATOM_DEF_STEREO_COUNT>
2
> <PUBCHEM_ATOM_UDEF_STEREO_COUNT>
0
> <PUBCHEM_BOND_DEF_STEREO_COUNT>
0
> <PUBCHEM_BOND_UDEF_STEREO_COUNT>
0
> <PUBCHEM_ISOTOPIC_ATOM_COUNT>
0
> <PUBCHEM_COMPONENT_COUNT>
1
> <PUBCHEM_CACTVS_TAUTO_COUNT>
-1
> <PUBCHEM_COORDINATE_TYPE>
1
5
255
> <PUBCHEM_BONDANNOTATIONS>
17  11  6
13  35  8
13  39  8
14  46  8
14  48  8
2  33  8
2  39  8
26  31  8
26  32  8
29  36  8
29  37  8
15  3  6
31  33  8
32  38  8
33  35  8
35  38  8
36  40  8
37  41  8
40  42  8
41  42  8
44  45  8
44  46  8
45  47  8
47  48  8
$$$$
