509620
  -OEChem-10302200282D
 85 90  0     1  0  0  0  0  0999 V2000
    8.0622    2.0439    0.0000 S   0  0  0  0  0  0  0  0  0  0  0  0
   11.6065    1.8486    0.0000 S   0  0  0  0  0  0  0  0  0  0  0  0
    7.1665   -4.1368    0.0000 O   0  0  0  0  0  0  0  0  0  0  0  0
    5.8938   -5.5439    0.0000 O   0  0  0  0  0  0  0  0  0  0  0  0
    5.4641   -2.1881    0.0000 O   0  0  0  0  0  0  0  0  0  0  0  0
    7.1962    0.5439    0.0000 O   0  0  0  0  0  0  0  0  0  0  0  0
    6.9641   -1.3221    0.0000 O   0  0  0  0  0  0  0  0  0  0  0  0
    7.5622    1.1779    0.0000 O   0  0  0  0  0  0  0  0  0  0  0  0
    8.5622    2.9099    0.0000 O   0  0  0  0  0  0  0  0  0  0  0  0
   13.1901   -0.6881    0.0000 O   0  0  0  0  0  0  0  0  0  0  0  0
    5.4641   -0.4561    0.0000 N   0  0  0  0  0  0  0  0  0  0  0  0
    7.1962    2.5439    0.0000 N   0  0  3  0  0  0  0  0  0  0  0  0
    5.4641    3.5439    0.0000 N   0  0  0  0  0  0  0  0  0  0  0  0
   11.6065    0.2392    0.0000 N   0  0  0  0  0  0  0  0  0  0  0  0
   13.1901    1.0439    0.0000 N   0  0  0  0  0  0  0  0  0  0  0  0
    5.5574   -3.9677    0.0000 C   0  0  2  0  0  0  0  0  0  0  0  0
    6.3005   -4.6368    0.0000 C   0  0  1  0  0  0  0  0  0  0  0  0
    5.9641   -3.0542    0.0000 C   0  0  2  0  0  0  0  0  0  0  0  0
    4.6978   -4.4670    0.0000 C   0  0  0  0  0  0  0  0  0  0  0  0
    6.9586   -3.1587    0.0000 C   0  0  0  0  0  0  0  0  0  0  0  0
    4.9053   -5.4392    0.0000 C   0  0  0  0  0  0  0  0  0  0  0  0
    5.9641   -1.3221    0.0000 C   0  0  0  0  0  0  0  0  0  0  0  0
    5.4641    0.5439    0.0000 C   0  0  2  0  0  0  0  0  0  0  0  0
    6.3301    1.0439    0.0000 C   0  0  1  0  0  0  0  0  0  0  0  0
    4.5981    1.0439    0.0000 C   0  0  0  0  0  0  0  0  0  0  0  0
    6.3301    2.0439    0.0000 C   0  0  0  0  0  0  0  0  0  0  0  0
    3.7320    0.5439    0.0000 C   0  0  0  0  0  0  0  0  0  0  0  0
    7.1962    3.5439    0.0000 C   0  0  0  0  0  0  0  0  0  0  0  0
    8.9282    1.5439    0.0000 C   0  0  0  0  0  0  0  0  0  0  0  0
    3.7320   -0.4561    0.0000 C   0  0  0  0  0  0  0  0  0  0  0  0
    2.8660    1.0439    0.0000 C   0  0  0  0  0  0  0  0  0  0  0  0
    6.3301    4.0439    0.0000 C   0  0  0  0  0  0  0  0  0  0  0  0
    9.7942    2.0439    0.0000 C   0  0  0  0  0  0  0  0  0  0  0  0
    8.9282    0.5439    0.0000 C   0  0  0  0  0  0  0  0  0  0  0  0
    2.8660   -0.9561    0.0000 C   0  0  0  0  0  0  0  0  0  0  0  0
    2.0000    0.5439    0.0000 C   0  0  0  0  0  0  0  0  0  0  0  0
   10.6603    1.5439    0.0000 C   0  0  0  0  0  0  0  0  0  0  0  0
    6.3301    5.0439    0.0000 C   0  0  0  0  0  0  0  0  0  0  0  0
    2.0000   -0.4561    0.0000 C   0  0  0  0  0  0  0  0  0  0  0  0
    9.7942    0.0439    0.0000 C   0  0  0  0  0  0  0  0  0  0  0  0
   10.6603    0.5439    0.0000 C   0  0  0  0  0  0  0  0  0  0  0  0
    5.4641    5.5439    0.0000 C   0  0  0  0  0  0  0  0  0  0  0  0
    4.5981    4.0439    0.0000 C   0  0  0  0  0  0  0  0  0  0  0  0
   12.1901    1.0439    0.0000 C   0  0  0  0  0  0  0  0  0  0  0  0
    4.5981    5.0439    0.0000 C   0  0  0  0  0  0  0  0  0  0  0  0
   13.6901    1.9099    0.0000 C   0  0  0  0  0  0  0  0  0  0  0  0
   13.6901    0.1779    0.0000 C   0  0  0  0  0  0  0  0  0  0  0  0
   14.6901    0.1779    0.0000 C   0  0  0  0  0  0  0  0  0  0  0  0
    4.9250   -3.3998    0.0000 H   0  0  0  0  0  0  0  0  0  0  0  0
    6.9314   -5.2064    0.0000 H   0  0  0  0  0  0  0  0  0  0  0  0
    6.3018   -2.5342    0.0000 H   0  0  0  0  0  0  0  0  0  0  0  0
    4.4444   -3.9011    0.0000 H   0  0  0  0  0  0  0  0  0  0  0  0
    4.1084   -4.6594    0.0000 H   0  0  0  0  0  0  0  0  0  0  0  0
    7.5752   -3.0939    0.0000 H   0  0  0  0  0  0  0  0  0  0  0  0
    6.9586   -2.5387    0.0000 H   0  0  0  0  0  0  0  0  0  0  0  0
    4.2887   -5.5041    0.0000 H   0  0  0  0  0  0  0  0  0  0  0  0
    4.9051   -6.0592    0.0000 H   0  0  0  0  0  0  0  0  0  0  0  0
    6.0010    0.2339    0.0000 H   0  0  0  0  0  0  0  0  0  0  0  0
    6.8671    1.3539    0.0000 H   0  0  0  0  0  0  0  0  0  0  0  0
    4.9272   -0.7661    0.0000 H   0  0  0  0  0  0  0  0  0  0  0  0
    4.9966    1.5189    0.0000 H   0  0  0  0  0  0  0  0  0  0  0  0
    4.1996    1.5189    0.0000 H   0  0  0  0  0  0  0  0  0  0  0  0
    6.1181    2.6265    0.0000 H   0  0  0  0  0  0  0  0  0  0  0  0
    5.7196    1.9363    0.0000 H   0  0  0  0  0  0  0  0  0  0  0  0
    7.8067    3.4363    0.0000 H   0  0  0  0  0  0  0  0  0  0  0  0
    7.4082    4.1265    0.0000 H   0  0  0  0  0  0  0  0  0  0  0  0
    7.5062    0.0070    0.0000 H   0  0  0  0  0  0  0  0  0  0  0  0
    4.2690   -0.7661    0.0000 H   0  0  0  0  0  0  0  0  0  0  0  0
    2.8660    1.6639    0.0000 H   0  0  0  0  0  0  0  0  0  0  0  0
    9.7942    2.6639    0.0000 H   0  0  0  0  0  0  0  0  0  0  0  0
    8.3913    0.2339    0.0000 H   0  0  0  0  0  0  0  0  0  0  0  0
    2.8660   -1.5761    0.0000 H   0  0  0  0  0  0  0  0  0  0  0  0
    1.4631    0.8539    0.0000 H   0  0  0  0  0  0  0  0  0  0  0  0
    6.8671    5.3539    0.0000 H   0  0  0  0  0  0  0  0  0  0  0  0
    1.4631   -0.7661    0.0000 H   0  0  0  0  0  0  0  0  0  0  0  0
    9.7942   -0.5761    0.0000 H   0  0  0  0  0  0  0  0  0  0  0  0
    5.4641    6.1639    0.0000 H   0  0  0  0  0  0  0  0  0  0  0  0
    4.0611    3.7339    0.0000 H   0  0  0  0  0  0  0  0  0  0  0  0
    4.0611    5.3539    0.0000 H   0  0  0  0  0  0  0  0  0  0  0  0
   14.2270    1.5999    0.0000 H   0  0  0  0  0  0  0  0  0  0  0  0
   14.0001    2.4469    0.0000 H   0  0  0  0  0  0  0  0  0  0  0  0
   13.1531    2.2199    0.0000 H   0  0  0  0  0  0  0  0  0  0  0  0
   14.6901   -0.4421    0.0000 H   0  0  0  0  0  0  0  0  0  0  0  0
   15.3101    0.1779    0.0000 H   0  0  0  0  0  0  0  0  0  0  0  0
   14.6901    0.7979    0.0000 H   0  0  0  0  0  0  0  0  0  0  0  0
  1  8  2  0  0  0  0
  1  9  2  0  0  0  0
  1 12  1  0  0  0  0
  1 29  1  0  0  0  0
  2 37  1  0  0  0  0
  2 44  1  0  0  0  0
  3 17  1  0  0  0  0
  3 20  1  0  0  0  0
  4 17  1  0  0  0  0
  4 21  1  0  0  0  0
 18  5  1  1  0  0  0
  5 22  1  0  0  0  0
 24  6  1  1  0  0  0
  6 67  1  0  0  0  0
  7 22  2  0  0  0  0
 10 47  2  0  0  0  0
 11 22  1  0  0  0  0
 23 11  1  1  0  0  0
 11 60  1  0  0  0  0
 12 26  1  0  0  0  0
 12 28  1  0  0  0  0
 13 32  1  0  0  0  0
 13 43  2  0  0  0  0
 14 41  1  0  0  0  0
 14 44  2  0  0  0  0
 15 44  1  0  0  0  0
 15 46  1  0  0  0  0
 15 47  1  0  0  0  0
 16 17  1  0  0  0  0
 16 18  1  0  0  0  0
 16 19  1  0  0  0  0
 16 49  1  6  0  0  0
 17 50  1  6  0  0  0
 18 20  1  0  0  0  0
 18 51  1  0  0  0  0
 19 21  1  0  0  0  0
 19 52  1  0  0  0  0
 19 53  1  0  0  0  0
 20 54  1  0  0  0  0
 20 55  1  0  0  0  0
 21 56  1  0  0  0  0
 21 57  1  0  0  0  0
 23 24  1  0  0  0  0
 23 25  1  0  0  0  0
 23 58  1  0  0  0  0
 24 26  1  0  0  0  0
 24 59  1  0  0  0  0
 25 27  1  0  0  0  0
 25 61  1  0  0  0  0
 25 62  1  0  0  0  0
 26 63  1  0  0  0  0
 26 64  1  0  0  0  0
 27 30  2  0  0  0  0
 27 31  1  0  0  0  0
 28 32  1  0  0  0  0
 28 65  1  0  0  0  0
 28 66  1  0  0  0  0
 29 33  2  0  0  0  0
 29 34  1  0  0  0  0
 30 35  1  0  0  0  0
 30 68  1  0  0  0  0
 31 36  2  0  0  0  0
 31 69  1  0  0  0  0
 32 38  2  0  0  0  0
 33 37  1  0  0  0  0
 33 70  1  0  0  0  0
 34 40  2  0  0  0  0
 34 71  1  0  0  0  0
 35 39  2  0  0  0  0
 35 72  1  0  0  0  0
 36 39  1  0  0  0  0
 36 73  1  0  0  0  0
 37 41  2  0  0  0  0
 38 42  1  0  0  0  0
 38 74  1  0  0  0  0
 39 75  1  0  0  0  0
 40 41  1  0  0  0  0
 40 76  1  0  0  0  0
 42 45  2  0  0  0  0
 42 77  1  0  0  0  0
 43 45  1  0  0  0  0
 43 78  1  0  0  0  0
 45 79  1  0  0  0  0
 46 80  1  0  0  0  0
 46 81  1  0  0  0  0
 46 82  1  0  0  0  0
 47 48  1  0  0  0  0
 48 83  1  0  0  0  0
 48 84  1  0  0  0  0
 48 85  1  0  0  0  0
M  END
> <PUBCHEM_COMPOUND_CID>
509620
> <PUBCHEM_COMPOUND_CANONICALIZED>
1
> <PUBCHEM_CACTVS_COMPLEXITY>
1200
> <PUBCHEM_CACTVS_HBOND_ACCEPTOR>
12
> <PUBCHEM_CACTVS_HBOND_DONOR>
2
> <PUBCHEM_CACTVS_ROTATABLE_BOND>
13
> <PUBCHEM_CACTVS_SUBSKEYS>
AAADcfB/vABgAAAAAAAAAAAAAAAAAWJEgAA8YIAAAAASAFgB/AAAHgQQSAAADTzx3gc/2bPIFgqsAzV3fHDD8LlxCjhJ2Lw4ZJmbcOLg2ZG+YAhtlwLeyCfQ4KgOAAQAAEAAAQAACAAAgAACAAAAAAAAAA==
> <PUBCHEM_IUPAC_OPENEYE_NAME>
[(3aS,4R,6aR)-2,3,3a,4,5,6a-hexahydrofuro[2,3-b]furan-4-yl] N-[(1S,2R)-3-[[2-[acetyl(methyl)amino]-1,3-benzothiazol-6-yl]sulfonyl-(2-pyridylmethyl)amino]-1-benzyl-2-hydroxy-propyl]carbamate
> <PUBCHEM_IUPAC_CAS_NAME>
N-[(2S,3R)-4-[[2-[acetyl(methyl)amino]-1,3-benzothiazol-6-yl]sulfonyl-(2-pyridinylmethyl)amino]-3-hydroxy-1-phenylbutan-2-yl]carbamic acid [(3aS,4R,6aR)-2,3,3a,4,5,6a-hexahydrofuro[2,3-b]furan-4-yl] ester
> <PUBCHEM_IUPAC_NAME_MARKUP>
[(3<I>a</I><I>S</I>,4<I>R</I>,6<I>a</I><I>R</I>)-2,3,3<I>a</I>,4,5,6<I>a</I>-hexahydrofuro[2,3-b]furan-4-yl] <I>N</I>-[(2<I>S</I>,3<I>R</I>)-4-[[2-[acetyl(methyl)amino]-1,3-benzothiazol-6-yl]sulfonyl-(pyridin-2-ylmethyl)amino]-3-hydroxy-1-phenylbutan-2-yl]carbamate
> <PUBCHEM_IUPAC_NAME>
[(3aS,4R,6aR)-2,3,3a,4,5,6a-hexahydrofuro[2,3-b]furan-4-yl] N-[(2S,3R)-4-[[2-[acetyl(methyl)amino]-1,3-benzothiazol-6-yl]sulfonyl-(pyridin-2-ylmethyl)amino]-3-hydroxy-1-phenylbutan-2-yl]carbamate
> <PUBCHEM_IUPAC_SYSTEMATIC_NAME>
[(3aS,4R,6aR)-2,3,3a,4,5,6a-hexahydrofuro[2,3-b]furan-4-yl] N-[(2S,3R)-4-[[2-[ethanoyl(methyl)amino]-1,3-benzothiazol-6-yl]sulfonyl-(pyridin-2-ylmethyl)amino]-3-oxidanyl-1-phenyl-butan-2-yl]carbamate
> <PUBCHEM_IUPAC_TRADITIONAL_NAME>
N-[(1S,2R)-3-[[2-[acetyl(methyl)amino]-1,3-benzothiazol-6-yl]sulfonyl-(2-pyridylmethyl)amino]-1-benzyl-2-hydroxy-propyl]carbamic acid [(3aS,4R,6aR)-2,3,3a,4,5,6a-hexahydrofuro[2,3-b]furan-4-yl] ester
> <PUBCHEM_IUPAC_INCHI>
InChI=1S/C33H37N5O8S2/c1-21(39)37(2)32-35-26-12-11-24(17-30(26)47-32)48(42,43)38(18-23-10-6-7-14-34-23)19-28(40)27(16-22-8-4-3-5-9-22)36-33(41)46-29-20-45-31-25(29)13-15-44-31/h3-12,14,17,25,27-29,31,40H,13,15-16,18-20H2,1-2H3,(H,36,41)/t25-,27-,28+,29-,31+/m0/s1
> <PUBCHEM_IUPAC_INCHIKEY>
QXOWOMCRWGOITD-WCKDLAHTSA-N
> <PUBCHEM_XLOGP3_AA>
2.9
> <PUBCHEM_EXACT_MASS>
695.20835550
> <PUBCHEM_MOLECULAR_FORMULA>
C33H37N5O8S2
> <PUBCHEM_MOLECULAR_WEIGHT>
695.8
> <PUBCHEM_OPENEYE_CAN_SMILES>
CC(=O)N(C)C1=NC2=C(S1)C=C(C=C2)S(=O)(=O)N(CC3=CC=CC=N3)CC(C(CC4=CC=CC=C4)NC(=O)OC5COC6C5CCO6)O
> <PUBCHEM_OPENEYE_ISO_SMILES>
CC(=O)N(C)C1=NC2=C(S1)C=C(C=C2)S(=O)(=O)N(CC3=CC=CC=N3)C[C@H]([C@H](CC4=CC=CC=C4)NC(=O)O[C@H]5CO[C@@H]6[C@H]5CCO6)O
> <PUBCHEM_CACTVS_TPSA>
197
> <PUBCHEM_MONOISOTOPIC_WEIGHT>
695.20835550
> <PUBCHEM_TOTAL_CHARGE>
0
> <PUBCHEM_HEAVY_ATOM_COUNT>
48
> <PUBCHEM_ATOM_DEF_STEREO_COUNT>
5
> <PUBCHEM_ATOM_UDEF_STEREO_COUNT>
0
> <PUBCHEM_BOND_DEF_STEREO_COUNT>
0
> <PUBCHEM_BOND_UDEF_STEREO_COUNT>
0
> <PUBCHEM_ISOTOPIC_ATOM_COUNT>
0
> <PUBCHEM_COMPONENT_COUNT>
1
> <PUBCHEM_CACTVS_TAUTO_COUNT>
-1
> <PUBCHEM_COORDINATE_TYPE>
1
5
255
> <PUBCHEM_BONDANNOTATIONS>
23  11  5
13  32  8
13  43  8
14  41  8
14  44  8
16  49  6
17  50  6
2  37  8
2  44  8
27  30  8
27  31  8
29  33  8
29  34  8
30  35  8
31  36  8
32  38  8
33  37  8
34  40  8
35  39  8
36  39  8
37  41  8
38  42  8
40  41  8
42  45  8
43  45  8
18  5  5
24  6  5
$$$$
