509692
  -OEChem-10302200282D
 84 87  0     1  0  0  0  0  0999 V2000
    8.1962   -0.5000    0.0000 S   0  0  0  0  0  0  0  0  0  0  0  0
   11.7404   -0.6953    0.0000 S   0  0  0  0  0  0  0  0  0  0  0  0
    5.5981    1.0000    0.0000 O   0  0  0  0  0  0  0  0  0  0  0  0
    7.6962   -1.3660    0.0000 O   0  0  0  0  0  0  0  0  0  0  0  0
    8.6962    0.3660    0.0000 O   0  0  0  0  0  0  0  0  0  0  0  0
    3.0000    1.5000    0.0000 O   0  0  0  0  0  0  0  0  0  0  0  0
   15.3241   -1.5000    0.0000 O   0  0  0  0  0  0  0  0  0  0  0  0
    4.7320    1.5000    0.0000 O   0  0  0  0  0  0  0  0  0  0  0  0
    7.3301    0.0000    0.0000 N   0  0  3  0  0  0  0  0  0  0  0  0
    3.8660    0.0000    0.0000 N   0  0  0  0  0  0  0  0  0  0  0  0
   13.3241   -1.5000    0.0000 N   0  0  0  0  0  0  0  0  0  0  0  0
   11.7404   -2.3047    0.0000 N   0  0  0  0  0  0  0  0  0  0  0  0
    5.5981    0.0000    0.0000 C   0  0  2  0  0  0  0  0  0  0  0  0
    6.4641   -0.5000    0.0000 C   0  0  0  0  0  0  0  0  0  0  0  0
    4.7320   -0.5000    0.0000 C   0  0  2  0  0  0  0  0  0  0  0  0
    7.3301    1.0000    0.0000 C   0  0  0  0  0  0  0  0  0  0  0  0
    8.1962    1.5000    0.0000 C   0  0  0  0  0  0  0  0  0  0  0  0
    4.7320   -1.5000    0.0000 C   0  0  0  0  0  0  0  0  0  0  0  0
    9.0622   -1.0000    0.0000 C   0  0  0  0  0  0  0  0  0  0  0  0
    8.1962    2.5000    0.0000 C   0  0  0  0  0  0  0  0  0  0  0  0
    9.0622    1.0000    0.0000 C   0  0  0  0  0  0  0  0  0  0  0  0
    3.8660   -2.0000    0.0000 C   0  0  0  0  0  0  0  0  0  0  0  0
    9.9282   -0.5000    0.0000 C   0  0  0  0  0  0  0  0  0  0  0  0
    9.0622   -2.0000    0.0000 C   0  0  0  0  0  0  0  0  0  0  0  0
   10.7942   -1.0000    0.0000 C   0  0  0  0  0  0  0  0  0  0  0  0
    3.8660    1.0000    0.0000 C   0  0  0  0  0  0  0  0  0  0  0  0
   10.7942   -2.0000    0.0000 C   0  0  0  0  0  0  0  0  0  0  0  0
    3.8660   -3.0000    0.0000 C   0  0  0  0  0  0  0  0  0  0  0  0
    3.0000   -1.5000    0.0000 C   0  0  0  0  0  0  0  0  0  0  0  0
    9.9282   -2.5000    0.0000 C   0  0  0  0  0  0  0  0  0  0  0  0
   12.3241   -1.5000    0.0000 C   0  0  0  0  0  0  0  0  0  0  0  0
   13.8241   -2.3660    0.0000 C   0  0  0  0  0  0  0  0  0  0  0  0
   13.8241   -0.6340    0.0000 C   0  0  0  0  0  0  0  0  0  0  0  0
    3.0000    2.5000    0.0000 C   0  0  0  0  0  0  0  0  0  0  0  0
   14.8241   -2.3660    0.0000 C   0  0  0  0  0  0  0  0  0  0  0  0
   14.8241   -0.6340    0.0000 C   0  0  0  0  0  0  0  0  0  0  0  0
    3.0000   -3.5000    0.0000 C   0  0  0  0  0  0  0  0  0  0  0  0
    2.1340   -2.0000    0.0000 C   0  0  0  0  0  0  0  0  0  0  0  0
    3.0000    3.5000    0.0000 C   0  0  0  0  0  0  0  0  0  0  0  0
    2.0000    2.5000    0.0000 C   0  0  0  0  0  0  0  0  0  0  0  0
    4.0000    2.5000    0.0000 C   0  0  0  0  0  0  0  0  0  0  0  0
    2.1340   -3.0000    0.0000 C   0  0  0  0  0  0  0  0  0  0  0  0
    6.1350    0.3100    0.0000 H   0  0  0  0  0  0  0  0  0  0  0  0
    6.0656   -0.9749    0.0000 H   0  0  0  0  0  0  0  0  0  0  0  0
    6.8626   -0.9749    0.0000 H   0  0  0  0  0  0  0  0  0  0  0  0
    4.7320    0.1200    0.0000 H   0  0  0  0  0  0  0  0  0  0  0  0
    7.1181    1.5826    0.0000 H   0  0  0  0  0  0  0  0  0  0  0  0
    6.7196    0.8923    0.0000 H   0  0  0  0  0  0  0  0  0  0  0  0
    8.7331    1.8100    0.0000 H   0  0  0  0  0  0  0  0  0  0  0  0
    4.9441   -2.0826    0.0000 H   0  0  0  0  0  0  0  0  0  0  0  0
    5.3426   -1.3923    0.0000 H   0  0  0  0  0  0  0  0  0  0  0  0
    3.3291   -0.3100    0.0000 H   0  0  0  0  0  0  0  0  0  0  0  0
    8.8162    2.5000    0.0000 H   0  0  0  0  0  0  0  0  0  0  0  0
    8.1962    3.1200    0.0000 H   0  0  0  0  0  0  0  0  0  0  0  0
    7.5762    2.5000    0.0000 H   0  0  0  0  0  0  0  0  0  0  0  0
    8.7522    0.4631    0.0000 H   0  0  0  0  0  0  0  0  0  0  0  0
    9.5991    0.6900    0.0000 H   0  0  0  0  0  0  0  0  0  0  0  0
    9.3722    1.5369    0.0000 H   0  0  0  0  0  0  0  0  0  0  0  0
    6.1350    1.3100    0.0000 H   0  0  0  0  0  0  0  0  0  0  0  0
    9.9282    0.1200    0.0000 H   0  0  0  0  0  0  0  0  0  0  0  0
    8.5252   -2.3100    0.0000 H   0  0  0  0  0  0  0  0  0  0  0  0
    4.4030   -3.3100    0.0000 H   0  0  0  0  0  0  0  0  0  0  0  0
    3.0000   -0.8800    0.0000 H   0  0  0  0  0  0  0  0  0  0  0  0
    9.9282   -3.1200    0.0000 H   0  0  0  0  0  0  0  0  0  0  0  0
   13.2414   -2.5781    0.0000 H   0  0  0  0  0  0  0  0  0  0  0  0
   13.9317   -2.9766    0.0000 H   0  0  0  0  0  0  0  0  0  0  0  0
   13.9317   -0.0234    0.0000 H   0  0  0  0  0  0  0  0  0  0  0  0
   13.2414   -0.4219    0.0000 H   0  0  0  0  0  0  0  0  0  0  0  0
   14.7164   -2.9766    0.0000 H   0  0  0  0  0  0  0  0  0  0  0  0
   15.4067   -2.5781    0.0000 H   0  0  0  0  0  0  0  0  0  0  0  0
   15.4067   -0.4219    0.0000 H   0  0  0  0  0  0  0  0  0  0  0  0
   14.7164   -0.0234    0.0000 H   0  0  0  0  0  0  0  0  0  0  0  0
    3.0000   -4.1200    0.0000 H   0  0  0  0  0  0  0  0  0  0  0  0
    1.5970   -1.6900    0.0000 H   0  0  0  0  0  0  0  0  0  0  0  0
    3.6200    3.5000    0.0000 H   0  0  0  0  0  0  0  0  0  0  0  0
    3.0000    4.1200    0.0000 H   0  0  0  0  0  0  0  0  0  0  0  0
    2.3800    3.5000    0.0000 H   0  0  0  0  0  0  0  0  0  0  0  0
    2.0000    3.1200    0.0000 H   0  0  0  0  0  0  0  0  0  0  0  0
    1.3800    2.5000    0.0000 H   0  0  0  0  0  0  0  0  0  0  0  0
    2.0000    1.8800    0.0000 H   0  0  0  0  0  0  0  0  0  0  0  0
    4.0000    1.8800    0.0000 H   0  0  0  0  0  0  0  0  0  0  0  0
    4.6200    2.5000    0.0000 H   0  0  0  0  0  0  0  0  0  0  0  0
    4.0000    3.1200    0.0000 H   0  0  0  0  0  0  0  0  0  0  0  0
    1.5970   -3.3100    0.0000 H   0  0  0  0  0  0  0  0  0  0  0  0
  1  4  2  0  0  0  0
  1  5  2  0  0  0  0
  1  9  1  0  0  0  0
  1 19  1  0  0  0  0
  2 25  1  0  0  0  0
  2 31  1  0  0  0  0
 13  3  1  6  0  0  0
  3 59  1  0  0  0  0
  6 26  1  0  0  0  0
  6 34  1  0  0  0  0
  7 35  1  0  0  0  0
  7 36  1  0  0  0  0
  8 26  2  0  0  0  0
  9 14  1  0  0  0  0
  9 16  1  0  0  0  0
 15 10  1  6  0  0  0
 10 26  1  0  0  0  0
 10 52  1  0  0  0  0
 11 31  1  0  0  0  0
 11 32  1  0  0  0  0
 11 33  1  0  0  0  0
 12 27  1  0  0  0  0
 12 31  2  0  0  0  0
 13 14  1  0  0  0  0
 13 15  1  0  0  0  0
 13 43  1  0  0  0  0
 14 44  1  0  0  0  0
 14 45  1  0  0  0  0
 15 18  1  0  0  0  0
 15 46  1  0  0  0  0
 16 17  1  0  0  0  0
 16 47  1  0  0  0  0
 16 48  1  0  0  0  0
 17 20  1  0  0  0  0
 17 21  1  0  0  0  0
 17 49  1  0  0  0  0
 18 22  1  0  0  0  0
 18 50  1  0  0  0  0
 18 51  1  0  0  0  0
 19 23  2  0  0  0  0
 19 24  1  0  0  0  0
 20 53  1  0  0  0  0
 20 54  1  0  0  0  0
 20 55  1  0  0  0  0
 21 56  1  0  0  0  0
 21 57  1  0  0  0  0
 21 58  1  0  0  0  0
 22 28  2  0  0  0  0
 22 29  1  0  0  0  0
 23 25  1  0  0  0  0
 23 60  1  0  0  0  0
 24 30  2  0  0  0  0
 24 61  1  0  0  0  0
 25 27  2  0  0  0  0
 27 30  1  0  0  0  0
 28 37  1  0  0  0  0
 28 62  1  0  0  0  0
 29 38  2  0  0  0  0
 29 63  1  0  0  0  0
 30 64  1  0  0  0  0
 32 35  1  0  0  0  0
 32 65  1  0  0  0  0
 32 66  1  0  0  0  0
 33 36  1  0  0  0  0
 33 67  1  0  0  0  0
 33 68  1  0  0  0  0
 34 39  1  0  0  0  0
 34 40  1  0  0  0  0
 34 41  1  0  0  0  0
 35 69  1  0  0  0  0
 35 70  1  0  0  0  0
 36 71  1  0  0  0  0
 36 72  1  0  0  0  0
 37 42  2  0  0  0  0
 37 73  1  0  0  0  0
 38 42  1  0  0  0  0
 38 74  1  0  0  0  0
 39 75  1  0  0  0  0
 39 76  1  0  0  0  0
 39 77  1  0  0  0  0
 40 78  1  0  0  0  0
 40 79  1  0  0  0  0
 40 80  1  0  0  0  0
 41 81  1  0  0  0  0
 41 82  1  0  0  0  0
 41 83  1  0  0  0  0
 42 84  1  0  0  0  0
M  END
> <PUBCHEM_COMPOUND_CID>
509692
> <PUBCHEM_COMPOUND_CANONICALIZED>
1
> <PUBCHEM_CACTVS_COMPLEXITY>
960
> <PUBCHEM_CACTVS_HBOND_ACCEPTOR>
10
> <PUBCHEM_CACTVS_HBOND_DONOR>
2
> <PUBCHEM_CACTVS_ROTATABLE_BOND>
13
> <PUBCHEM_CACTVS_SUBSKEYS>
AAADcfB7uABgAAAAAAAAAAAAAAAAAWAAAAA8YIAAAAAAAFgB9AAAHgQQSAAADXzh3gYz2bPIFgqsAyRifHDD8LlhCjhJmLw4ZJmKMKLg2ZGPYAhslgLYyCeQwKAOAAQAAEAAAQAACAAAgAACAAAAAAAAAA==
> <PUBCHEM_IUPAC_OPENEYE_NAME>
tert-butyl N-[(1S,2R)-1-benzyl-2-hydroxy-3-[isobutyl-[(2-morpholino-1,3-benzothiazol-6-yl)sulfonyl]amino]propyl]carbamate
> <PUBCHEM_IUPAC_CAS_NAME>
N-[(2S,3R)-3-hydroxy-4-[2-methylpropyl-[[2-(4-morpholinyl)-1,3-benzothiazol-6-yl]sulfonyl]amino]-1-phenylbutan-2-yl]carbamic acid tert-butyl ester
> <PUBCHEM_IUPAC_NAME_MARKUP>
<I>tert</I>-butyl <I>N</I>-[(2<I>S</I>,3<I>R</I>)-3-hydroxy-4-[2-methylpropyl-[(2-morpholin-4-yl-1,3-benzothiazol-6-yl)sulfonyl]amino]-1-phenylbutan-2-yl]carbamate
> <PUBCHEM_IUPAC_NAME>
tert-butyl N-[(2S,3R)-3-hydroxy-4-[2-methylpropyl-[(2-morpholin-4-yl-1,3-benzothiazol-6-yl)sulfonyl]amino]-1-phenylbutan-2-yl]carbamate
> <PUBCHEM_IUPAC_SYSTEMATIC_NAME>
tert-butyl N-[(2S,3R)-4-[2-methylpropyl-[(2-morpholin-4-yl-1,3-benzothiazol-6-yl)sulfonyl]amino]-3-oxidanyl-1-phenyl-butan-2-yl]carbamate
> <PUBCHEM_IUPAC_TRADITIONAL_NAME>
N-[(1S,2R)-1-benzyl-2-hydroxy-3-[isobutyl-[(2-morpholino-1,3-benzothiazol-6-yl)sulfonyl]amino]propyl]carbamic acid tert-butyl ester
> <PUBCHEM_IUPAC_INCHI>
InChI=1S/C30H42N4O6S2/c1-21(2)19-34(20-26(35)25(17-22-9-7-6-8-10-22)32-29(36)40-30(3,4)5)42(37,38)23-11-12-24-27(18-23)41-28(31-24)33-13-15-39-16-14-33/h6-12,18,21,25-26,35H,13-17,19-20H2,1-5H3,(H,32,36)/t25-,26+/m0/s1
> <PUBCHEM_IUPAC_INCHIKEY>
JJUSUYZCQJCOCJ-IZZNHLLZSA-N
> <PUBCHEM_XLOGP3_AA>
5
> <PUBCHEM_EXACT_MASS>
618.25457742
> <PUBCHEM_MOLECULAR_FORMULA>
C30H42N4O6S2
> <PUBCHEM_MOLECULAR_WEIGHT>
618.8
> <PUBCHEM_OPENEYE_CAN_SMILES>
CC(C)CN(CC(C(CC1=CC=CC=C1)NC(=O)OC(C)(C)C)O)S(=O)(=O)C2=CC3=C(C=C2)N=C(S3)N4CCOCC4
> <PUBCHEM_OPENEYE_ISO_SMILES>
CC(C)CN(C[C@H]([C@H](CC1=CC=CC=C1)NC(=O)OC(C)(C)C)O)S(=O)(=O)C2=CC3=C(C=C2)N=C(S3)N4CCOCC4
> <PUBCHEM_CACTVS_TPSA>
158
> <PUBCHEM_MONOISOTOPIC_WEIGHT>
618.25457742
> <PUBCHEM_TOTAL_CHARGE>
0
> <PUBCHEM_HEAVY_ATOM_COUNT>
42
> <PUBCHEM_ATOM_DEF_STEREO_COUNT>
2
> <PUBCHEM_ATOM_UDEF_STEREO_COUNT>
0
> <PUBCHEM_BOND_DEF_STEREO_COUNT>
0
> <PUBCHEM_BOND_UDEF_STEREO_COUNT>
0
> <PUBCHEM_ISOTOPIC_ATOM_COUNT>
0
> <PUBCHEM_COMPONENT_COUNT>
1
> <PUBCHEM_CACTVS_TAUTO_COUNT>
-1
> <PUBCHEM_COORDINATE_TYPE>
1
5
255
> <PUBCHEM_BONDANNOTATIONS>
15  10  6
12  27  8
12  31  8
19  23  8
19  24  8
2  25  8
2  31  8
22  28  8
22  29  8
23  25  8
24  30  8
25  27  8
27  30  8
28  37  8
29  38  8
13  3  6
37  42  8
38  42  8
$$$$
