509666
  -OEChem-10302200282D
 77 80  0     1  0  0  0  0  0999 V2000
    8.2839   -1.1739    0.0000 S   0  0  0  0  0  0  0  0  0  0  0  0
   11.8282   -1.3692    0.0000 S   0  0  0  0  0  0  0  0  0  0  0  0
    5.6859    0.3261    0.0000 O   0  0  0  0  0  0  0  0  0  0  0  0
    7.7839   -2.0400    0.0000 O   0  0  0  0  0  0  0  0  0  0  0  0
    8.7839   -0.3079    0.0000 O   0  0  0  0  0  0  0  0  0  0  0  0
    4.8198    0.8261    0.0000 O   0  0  0  0  0  0  0  0  0  0  0  0
    3.8968    2.4139    0.0000 O   0  0  0  0  0  0  0  0  0  0  0  0
   13.4118   -3.9060    0.0000 O   0  0  0  0  0  0  0  0  0  0  0  0
    7.4179   -0.6739    0.0000 N   0  0  3  0  0  0  0  0  0  0  0  0
    3.9538   -0.6739    0.0000 N   0  0  0  0  0  0  0  0  0  0  0  0
   11.8282   -2.9787    0.0000 N   0  0  0  0  0  0  0  0  0  0  0  0
   13.4118   -2.1739    0.0000 N   0  0  0  0  0  0  0  0  0  0  0  0
    3.5878    3.3649    0.0000 N   0  0  0  0  0  0  0  0  0  0  0  0
    5.6859   -0.6739    0.0000 C   0  0  1  0  0  0  0  0  0  0  0  0
    4.8198   -1.1739    0.0000 C   0  0  2  0  0  0  0  0  0  0  0  0
    6.5519   -1.1739    0.0000 C   0  0  0  0  0  0  0  0  0  0  0  0
    7.4179    0.3261    0.0000 C   0  0  0  0  0  0  0  0  0  0  0  0
    8.2839    0.8261    0.0000 C   0  0  0  0  0  0  0  0  0  0  0  0
    4.8198   -2.1739    0.0000 C   0  0  0  0  0  0  0  0  0  0  0  0
    9.1500   -1.6739    0.0000 C   0  0  0  0  0  0  0  0  0  0  0  0
    3.9538   -2.6739    0.0000 C   0  0  0  0  0  0  0  0  0  0  0  0
    8.2839    1.8261    0.0000 C   0  0  0  0  0  0  0  0  0  0  0  0
    9.1500    0.3261    0.0000 C   0  0  0  0  0  0  0  0  0  0  0  0
    3.9538    0.3261    0.0000 C   0  0  0  0  0  0  0  0  0  0  0  0
   10.0160   -1.1739    0.0000 C   0  0  0  0  0  0  0  0  0  0  0  0
    9.1500   -2.6739    0.0000 C   0  0  0  0  0  0  0  0  0  0  0  0
    3.9538   -3.6739    0.0000 C   0  0  0  0  0  0  0  0  0  0  0  0
    3.0878   -2.1739    0.0000 C   0  0  0  0  0  0  0  0  0  0  0  0
    3.0878    0.8261    0.0000 C   0  0  0  0  0  0  0  0  0  0  0  0
   10.8820   -1.6739    0.0000 C   0  0  0  0  0  0  0  0  0  0  0  0
   10.0160   -3.1739    0.0000 C   0  0  0  0  0  0  0  0  0  0  0  0
   10.8820   -2.6739    0.0000 C   0  0  0  0  0  0  0  0  0  0  0  0
    3.0878   -4.1739    0.0000 C   0  0  0  0  0  0  0  0  0  0  0  0
    2.2218   -2.6739    0.0000 C   0  0  0  0  0  0  0  0  0  0  0  0
    3.0878    1.8261    0.0000 C   0  0  0  0  0  0  0  0  0  0  0  0
    2.2218   -3.6739    0.0000 C   0  0  0  0  0  0  0  0  0  0  0  0
   12.4118   -2.1739    0.0000 C   0  0  0  0  0  0  0  0  0  0  0  0
    2.2788    2.4139    0.0000 C   0  0  0  0  0  0  0  0  0  0  0  0
    2.5878    3.3649    0.0000 C   0  0  0  0  0  0  0  0  0  0  0  0
    2.0000    4.1739    0.0000 C   0  0  0  0  0  0  0  0  0  0  0  0
   13.9118   -3.0400    0.0000 C   0  0  0  0  0  0  0  0  0  0  0  0
   14.9118   -3.0400    0.0000 C   0  0  0  0  0  0  0  0  0  0  0  0
    6.2228   -0.3639    0.0000 H   0  0  0  0  0  0  0  0  0  0  0  0
    4.8198   -0.5539    0.0000 H   0  0  0  0  0  0  0  0  0  0  0  0
    6.1534   -1.6489    0.0000 H   0  0  0  0  0  0  0  0  0  0  0  0
    6.9504   -1.6489    0.0000 H   0  0  0  0  0  0  0  0  0  0  0  0
    7.2059    0.9087    0.0000 H   0  0  0  0  0  0  0  0  0  0  0  0
    6.8073    0.2184    0.0000 H   0  0  0  0  0  0  0  0  0  0  0  0
    7.7470    1.1361    0.0000 H   0  0  0  0  0  0  0  0  0  0  0  0
    5.0319   -2.7565    0.0000 H   0  0  0  0  0  0  0  0  0  0  0  0
    5.4304   -2.0663    0.0000 H   0  0  0  0  0  0  0  0  0  0  0  0
    3.4169   -0.9839    0.0000 H   0  0  0  0  0  0  0  0  0  0  0  0
    8.9039    1.8261    0.0000 H   0  0  0  0  0  0  0  0  0  0  0  0
    8.2839    2.4461    0.0000 H   0  0  0  0  0  0  0  0  0  0  0  0
    7.6639    1.8261    0.0000 H   0  0  0  0  0  0  0  0  0  0  0  0
    8.8400   -0.2109    0.0000 H   0  0  0  0  0  0  0  0  0  0  0  0
    9.6869    0.0161    0.0000 H   0  0  0  0  0  0  0  0  0  0  0  0
    9.4600    0.8630    0.0000 H   0  0  0  0  0  0  0  0  0  0  0  0
    6.2228    0.6361    0.0000 H   0  0  0  0  0  0  0  0  0  0  0  0
   10.0160   -0.5539    0.0000 H   0  0  0  0  0  0  0  0  0  0  0  0
    8.6130   -2.9839    0.0000 H   0  0  0  0  0  0  0  0  0  0  0  0
    4.4908   -3.9839    0.0000 H   0  0  0  0  0  0  0  0  0  0  0  0
    3.0878   -1.5539    0.0000 H   0  0  0  0  0  0  0  0  0  0  0  0
    2.4772    0.9337    0.0000 H   0  0  0  0  0  0  0  0  0  0  0  0
    2.8757    0.2435    0.0000 H   0  0  0  0  0  0  0  0  0  0  0  0
   10.0160   -3.7939    0.0000 H   0  0  0  0  0  0  0  0  0  0  0  0
    3.0878   -4.7939    0.0000 H   0  0  0  0  0  0  0  0  0  0  0  0
    1.6848   -2.3639    0.0000 H   0  0  0  0  0  0  0  0  0  0  0  0
    1.6848   -3.9839    0.0000 H   0  0  0  0  0  0  0  0  0  0  0  0
    1.6891    2.2223    0.0000 H   0  0  0  0  0  0  0  0  0  0  0  0
   13.7218   -1.6370    0.0000 H   0  0  0  0  0  0  0  0  0  0  0  0
    2.5016    4.5384    0.0000 H   0  0  0  0  0  0  0  0  0  0  0  0
    1.6356    4.6755    0.0000 H   0  0  0  0  0  0  0  0  0  0  0  0
    1.4984    3.8095    0.0000 H   0  0  0  0  0  0  0  0  0  0  0  0
   14.9118   -3.6600    0.0000 H   0  0  0  0  0  0  0  0  0  0  0  0
   15.5318   -3.0400    0.0000 H   0  0  0  0  0  0  0  0  0  0  0  0
   14.9118   -2.4200    0.0000 H   0  0  0  0  0  0  0  0  0  0  0  0
  1  4  2  0  0  0  0
  1  5  2  0  0  0  0
  1  9  1  0  0  0  0
  1 20  1  0  0  0  0
  2 30  1  0  0  0  0
  2 37  1  0  0  0  0
 14  3  1  6  0  0  0
  3 59  1  0  0  0  0
  6 24  2  0  0  0  0
  7 13  1  0  0  0  0
  7 35  1  0  0  0  0
  8 41  2  0  0  0  0
  9 16  1  0  0  0  0
  9 17  1  0  0  0  0
 15 10  1  6  0  0  0
 10 24  1  0  0  0  0
 10 52  1  0  0  0  0
 11 32  1  0  0  0  0
 11 37  2  0  0  0  0
 12 37  1  0  0  0  0
 12 41  1  0  0  0  0
 12 71  1  0  0  0  0
 13 39  2  0  0  0  0
 14 15  1  0  0  0  0
 14 16  1  0  0  0  0
 14 43  1  0  0  0  0
 15 19  1  0  0  0  0
 15 44  1  0  0  0  0
 16 45  1  0  0  0  0
 16 46  1  0  0  0  0
 17 18  1  0  0  0  0
 17 47  1  0  0  0  0
 17 48  1  0  0  0  0
 18 22  1  0  0  0  0
 18 23  1  0  0  0  0
 18 49  1  0  0  0  0
 19 21  1  0  0  0  0
 19 50  1  0  0  0  0
 19 51  1  0  0  0  0
 20 25  2  0  0  0  0
 20 26  1  0  0  0  0
 21 27  2  0  0  0  0
 21 28  1  0  0  0  0
 22 53  1  0  0  0  0
 22 54  1  0  0  0  0
 22 55  1  0  0  0  0
 23 56  1  0  0  0  0
 23 57  1  0  0  0  0
 23 58  1  0  0  0  0
 24 29  1  0  0  0  0
 25 30  1  0  0  0  0
 25 60  1  0  0  0  0
 26 31  2  0  0  0  0
 26 61  1  0  0  0  0
 27 33  1  0  0  0  0
 27 62  1  0  0  0  0
 28 34  2  0  0  0  0
 28 63  1  0  0  0  0
 29 35  1  0  0  0  0
 29 64  1  0  0  0  0
 29 65  1  0  0  0  0
 30 32  2  0  0  0  0
 31 32  1  0  0  0  0
 31 66  1  0  0  0  0
 33 36  2  0  0  0  0
 33 67  1  0  0  0  0
 34 36  1  0  0  0  0
 34 68  1  0  0  0  0
 35 38  2  0  0  0  0
 36 69  1  0  0  0  0
 38 39  1  0  0  0  0
 38 70  1  0  0  0  0
 39 40  1  0  0  0  0
 40 72  1  0  0  0  0
 40 73  1  0  0  0  0
 40 74  1  0  0  0  0
 41 42  1  0  0  0  0
 42 75  1  0  0  0  0
 42 76  1  0  0  0  0
 42 77  1  0  0  0  0
M  END
> <PUBCHEM_COMPOUND_CID>
509666
> <PUBCHEM_COMPOUND_CANONICALIZED>
1
> <PUBCHEM_CACTVS_COMPLEXITY>
1010
> <PUBCHEM_CACTVS_HBOND_ACCEPTOR>
10
> <PUBCHEM_CACTVS_HBOND_DONOR>
3
> <PUBCHEM_CACTVS_ROTATABLE_BOND>
13
> <PUBCHEM_CACTVS_SUBSKEYS>
AAADcfB7uABgAAAAAAAAAAAAAAAAAWLAAAAwYAAAAAAAAFgB/AAAHgQUSAAADTzh3gYz1bLYEgqtA6VydnDD8LllKjlpmL0+bNqKNr7o3ZOEcYhutxrYyWeYyaAeAAQAAEAAAQAACAAAgAACAAAAAAAAAA==
> <PUBCHEM_IUPAC_OPENEYE_NAME>
N-[(1S,2R)-3-[(2-acetamido-1,3-benzothiazol-6-yl)sulfonyl-isobutyl-amino]-1-benzyl-2-hydroxy-propyl]-2-(3-methylisoxazol-5-yl)acetamide
> <PUBCHEM_IUPAC_CAS_NAME>
N-[(2S,3R)-4-[(2-acetamido-1,3-benzothiazol-6-yl)sulfonyl-(2-methylpropyl)amino]-3-hydroxy-1-phenylbutan-2-yl]-2-(3-methyl-5-isoxazolyl)acetamide
> <PUBCHEM_IUPAC_NAME_MARKUP>
<I>N</I>-[(2<I>S</I>,3<I>R</I>)-4-[(2-acetamido-1,3-benzothiazol-6-yl)sulfonyl-(2-methylpropyl)amino]-3-hydroxy-1-phenylbutan-2-yl]-2-(3-methyl-1,2-oxazol-5-yl)acetamide
> <PUBCHEM_IUPAC_NAME>
N-[(2S,3R)-4-[(2-acetamido-1,3-benzothiazol-6-yl)sulfonyl-(2-methylpropyl)amino]-3-hydroxy-1-phenylbutan-2-yl]-2-(3-methyl-1,2-oxazol-5-yl)acetamide
> <PUBCHEM_IUPAC_SYSTEMATIC_NAME>
N-[(2S,3R)-4-[(2-acetamido-1,3-benzothiazol-6-yl)sulfonyl-(2-methylpropyl)amino]-3-oxidanyl-1-phenyl-butan-2-yl]-2-(3-methyl-1,2-oxazol-5-yl)ethanamide
> <PUBCHEM_IUPAC_TRADITIONAL_NAME>
N-[(1S,2R)-3-[(2-acetamido-1,3-benzothiazol-6-yl)sulfonyl-isobutyl-amino]-1-benzyl-2-hydroxy-propyl]-2-(3-methylisoxazol-5-yl)acetamide
> <PUBCHEM_IUPAC_INCHI>
InChI=1S/C29H35N5O6S2/c1-18(2)16-34(42(38,39)23-10-11-24-27(15-23)41-29(32-24)30-20(4)35)17-26(36)25(13-21-8-6-5-7-9-21)31-28(37)14-22-12-19(3)33-40-22/h5-12,15,18,25-26,36H,13-14,16-17H2,1-4H3,(H,31,37)(H,30,32,35)/t25-,26+/m0/s1
> <PUBCHEM_IUPAC_INCHIKEY>
GCSQNFCMSCHSQE-IZZNHLLZSA-N
> <PUBCHEM_XLOGP3_AA>
3.6
> <PUBCHEM_EXACT_MASS>
613.20287620
> <PUBCHEM_MOLECULAR_FORMULA>
C29H35N5O6S2
> <PUBCHEM_MOLECULAR_WEIGHT>
613.8
> <PUBCHEM_OPENEYE_CAN_SMILES>
CC1=NOC(=C1)CC(=O)NC(CC2=CC=CC=C2)C(CN(CC(C)C)S(=O)(=O)C3=CC4=C(C=C3)N=C(S4)NC(=O)C)O
> <PUBCHEM_OPENEYE_ISO_SMILES>
CC1=NOC(=C1)CC(=O)N[C@@H](CC2=CC=CC=C2)[C@@H](CN(CC(C)C)S(=O)(=O)C3=CC4=C(C=C3)N=C(S4)NC(=O)C)O
> <PUBCHEM_CACTVS_TPSA>
191
> <PUBCHEM_MONOISOTOPIC_WEIGHT>
613.20287620
> <PUBCHEM_TOTAL_CHARGE>
0
> <PUBCHEM_HEAVY_ATOM_COUNT>
42
> <PUBCHEM_ATOM_DEF_STEREO_COUNT>
2
> <PUBCHEM_ATOM_UDEF_STEREO_COUNT>
0
> <PUBCHEM_BOND_DEF_STEREO_COUNT>
0
> <PUBCHEM_BOND_UDEF_STEREO_COUNT>
0
> <PUBCHEM_ISOTOPIC_ATOM_COUNT>
0
> <PUBCHEM_COMPONENT_COUNT>
1
> <PUBCHEM_CACTVS_TAUTO_COUNT>
-1
> <PUBCHEM_COORDINATE_TYPE>
1
5
255
> <PUBCHEM_BONDANNOTATIONS>
15  10  6
11  32  8
11  37  8
13  39  8
2  30  8
2  37  8
20  25  8
20  26  8
21  27  8
21  28  8
25  30  8
26  31  8
27  33  8
28  34  8
14  3  6
30  32  8
31  32  8
33  36  8
34  36  8
35  38  8
38  39  8
7  13  8
7  35  8
$$$$
