509629
  -OEChem-10302200282D
 92 96  0     1  0  0  0  0  0999 V2000
   10.3312    0.0974    0.0000 S   0  0  0  0  0  0  0  0  0  0  0  0
   13.8755   -0.0979    0.0000 S   0  0  0  0  0  0  0  0  0  0  0  0
    7.7331    1.5974    0.0000 O   0  0  0  0  0  0  0  0  0  0  0  0
    9.8312   -0.7687    0.0000 O   0  0  0  0  0  0  0  0  0  0  0  0
   10.8312    0.9634    0.0000 O   0  0  0  0  0  0  0  0  0  0  0  0
   15.4591   -2.6347    0.0000 O   0  0  0  0  0  0  0  0  0  0  0  0
    6.8671    2.0974    0.0000 O   0  0  0  0  0  0  0  0  0  0  0  0
    9.4651    0.5974    0.0000 N   0  0  3  0  0  0  0  0  0  0  0  0
   17.4591   -2.6347    0.0000 N   0  0  0  0  0  0  0  0  0  0  0  0
    6.0010    0.5974    0.0000 N   0  0  0  0  0  0  0  0  0  0  0  0
   15.4591   -0.9026    0.0000 N   0  0  0  0  0  0  0  0  0  0  0  0
   13.8755   -1.7074    0.0000 N   0  0  0  0  0  0  0  0  0  0  0  0
    2.5369    3.5974    0.0000 N   0  0  0  0  0  0  0  0  0  0  0  0
    7.7331    0.5974    0.0000 C   0  0  2  0  0  0  0  0  0  0  0  0
    8.5991    0.0974    0.0000 C   0  0  0  0  0  0  0  0  0  0  0  0
    6.8671    0.0974    0.0000 C   0  0  2  0  0  0  0  0  0  0  0  0
    9.4651    1.5974    0.0000 C   0  0  0  0  0  0  0  0  0  0  0  0
   17.7955   -4.2174    0.0000 C   0  0  0  0  0  0  0  0  0  0  0  0
   18.6615   -3.7174    0.0000 C   0  0  0  0  0  0  0  0  0  0  0  0
   17.0523   -3.5482    0.0000 C   0  0  0  0  0  0  0  0  0  0  0  0
   18.4536   -2.7392    0.0000 C   0  0  0  0  0  0  0  0  0  0  0  0
   10.3312    2.0974    0.0000 C   0  0  0  0  0  0  0  0  0  0  0  0
    6.8671   -0.9026    0.0000 C   0  0  0  0  0  0  0  0  0  0  0  0
   16.9591   -1.7687    0.0000 C   0  0  0  0  0  0  0  0  0  0  0  0
   11.1972   -0.4026    0.0000 C   0  0  0  0  0  0  0  0  0  0  0  0
    6.0010   -1.4026    0.0000 C   0  0  0  0  0  0  0  0  0  0  0  0
   10.3312    3.0974    0.0000 C   0  0  0  0  0  0  0  0  0  0  0  0
   11.1972    1.5974    0.0000 C   0  0  0  0  0  0  0  0  0  0  0  0
   15.9591   -1.7687    0.0000 C   0  0  0  0  0  0  0  0  0  0  0  0
   12.0632    0.0974    0.0000 C   0  0  0  0  0  0  0  0  0  0  0  0
    6.0010    1.5974    0.0000 C   0  0  0  0  0  0  0  0  0  0  0  0
   11.1972   -1.4026    0.0000 C   0  0  0  0  0  0  0  0  0  0  0  0
   12.9292   -0.4026    0.0000 C   0  0  0  0  0  0  0  0  0  0  0  0
    6.0010   -2.4026    0.0000 C   0  0  0  0  0  0  0  0  0  0  0  0
    5.1350   -0.9026    0.0000 C   0  0  0  0  0  0  0  0  0  0  0  0
   12.9292   -1.4026    0.0000 C   0  0  0  0  0  0  0  0  0  0  0  0
   12.0632   -1.9026    0.0000 C   0  0  0  0  0  0  0  0  0  0  0  0
    5.1350    2.0974    0.0000 C   0  0  0  0  0  0  0  0  0  0  0  0
   14.4591   -0.9026    0.0000 C   0  0  0  0  0  0  0  0  0  0  0  0
    5.1350   -2.9026    0.0000 C   0  0  0  0  0  0  0  0  0  0  0  0
    4.2690   -1.4026    0.0000 C   0  0  0  0  0  0  0  0  0  0  0  0
    5.1350    3.0974    0.0000 C   0  0  0  0  0  0  0  0  0  0  0  0
    4.2690   -2.4026    0.0000 C   0  0  0  0  0  0  0  0  0  0  0  0
    4.2690    1.5974    0.0000 C   0  0  0  0  0  0  0  0  0  0  0  0
    4.2690    3.5974    0.0000 C   0  0  0  0  0  0  0  0  0  0  0  0
    6.0010    3.5974    0.0000 C   0  0  0  0  0  0  0  0  0  0  0  0
    3.4030    2.0974    0.0000 C   0  0  0  0  0  0  0  0  0  0  0  0
    3.4030    3.0974    0.0000 C   0  0  0  0  0  0  0  0  0  0  0  0
    8.2700    0.9074    0.0000 H   0  0  0  0  0  0  0  0  0  0  0  0
    8.2006   -0.3776    0.0000 H   0  0  0  0  0  0  0  0  0  0  0  0
    8.9976   -0.3776    0.0000 H   0  0  0  0  0  0  0  0  0  0  0  0
    6.3301   -0.2126    0.0000 H   0  0  0  0  0  0  0  0  0  0  0  0
    9.2531    2.1800    0.0000 H   0  0  0  0  0  0  0  0  0  0  0  0
    8.8546    1.4897    0.0000 H   0  0  0  0  0  0  0  0  0  0  0  0
   17.3347   -4.6322    0.0000 H   0  0  0  0  0  0  0  0  0  0  0  0
   18.1599   -4.7190    0.0000 H   0  0  0  0  0  0  0  0  0  0  0  0
   18.9137   -4.2838    0.0000 H   0  0  0  0  0  0  0  0  0  0  0  0
   19.2512   -3.5258    0.0000 H   0  0  0  0  0  0  0  0  0  0  0  0
   16.5154   -3.2382    0.0000 H   0  0  0  0  0  0  0  0  0  0  0  0
   16.6879   -4.0498    0.0000 H   0  0  0  0  0  0  0  0  0  0  0  0
   19.0702   -2.6744    0.0000 H   0  0  0  0  0  0  0  0  0  0  0  0
   18.4536   -2.1192    0.0000 H   0  0  0  0  0  0  0  0  0  0  0  0
   10.8681    2.4074    0.0000 H   0  0  0  0  0  0  0  0  0  0  0  0
    7.0791   -1.4852    0.0000 H   0  0  0  0  0  0  0  0  0  0  0  0
    7.4776   -0.7950    0.0000 H   0  0  0  0  0  0  0  0  0  0  0  0
   17.5417   -1.5566    0.0000 H   0  0  0  0  0  0  0  0  0  0  0  0
   16.8514   -1.1581    0.0000 H   0  0  0  0  0  0  0  0  0  0  0  0
    5.4641    0.2874    0.0000 H   0  0  0  0  0  0  0  0  0  0  0  0
   10.9512    3.0974    0.0000 H   0  0  0  0  0  0  0  0  0  0  0  0
   10.3312    3.7174    0.0000 H   0  0  0  0  0  0  0  0  0  0  0  0
    9.7112    3.0974    0.0000 H   0  0  0  0  0  0  0  0  0  0  0  0
   10.8872    1.0604    0.0000 H   0  0  0  0  0  0  0  0  0  0  0  0
   11.7341    1.2874    0.0000 H   0  0  0  0  0  0  0  0  0  0  0  0
   11.5072    2.1343    0.0000 H   0  0  0  0  0  0  0  0  0  0  0  0
    8.2700    1.9074    0.0000 H   0  0  0  0  0  0  0  0  0  0  0  0
   12.0632    0.7174    0.0000 H   0  0  0  0  0  0  0  0  0  0  0  0
   10.6603   -1.7126    0.0000 H   0  0  0  0  0  0  0  0  0  0  0  0
    6.5380   -2.7126    0.0000 H   0  0  0  0  0  0  0  0  0  0  0  0
    5.1350   -0.2826    0.0000 H   0  0  0  0  0  0  0  0  0  0  0  0
   12.0632   -2.5226    0.0000 H   0  0  0  0  0  0  0  0  0  0  0  0
   15.7691   -0.3657    0.0000 H   0  0  0  0  0  0  0  0  0  0  0  0
    5.1350   -3.5226    0.0000 H   0  0  0  0  0  0  0  0  0  0  0  0
    3.7320   -1.0926    0.0000 H   0  0  0  0  0  0  0  0  0  0  0  0
    3.7320   -2.7126    0.0000 H   0  0  0  0  0  0  0  0  0  0  0  0
    4.2690    0.9774    0.0000 H   0  0  0  0  0  0  0  0  0  0  0  0
    4.2690    4.2174    0.0000 H   0  0  0  0  0  0  0  0  0  0  0  0
    6.3110    3.0604    0.0000 H   0  0  0  0  0  0  0  0  0  0  0  0
    6.5380    3.9074    0.0000 H   0  0  0  0  0  0  0  0  0  0  0  0
    5.6910    4.1343    0.0000 H   0  0  0  0  0  0  0  0  0  0  0  0
    2.8660    1.7874    0.0000 H   0  0  0  0  0  0  0  0  0  0  0  0
    2.5369    4.2174    0.0000 H   0  0  0  0  0  0  0  0  0  0  0  0
    2.0000    3.2874    0.0000 H   0  0  0  0  0  0  0  0  0  0  0  0
  1  4  2  0  0  0  0
  1  5  2  0  0  0  0
  1  8  1  0  0  0  0
  1 25  1  0  0  0  0
  2 33  1  0  0  0  0
  2 39  1  0  0  0  0
 14  3  1  6  0  0  0
  3 75  1  0  0  0  0
  6 29  2  0  0  0  0
  7 31  2  0  0  0  0
  8 15  1  0  0  0  0
  8 17  1  0  0  0  0
  9 20  1  0  0  0  0
  9 21  1  0  0  0  0
  9 24  1  0  0  0  0
 16 10  1  6  0  0  0
 10 31  1  0  0  0  0
 10 68  1  0  0  0  0
 11 29  1  0  0  0  0
 11 39  1  0  0  0  0
 11 81  1  0  0  0  0
 12 36  1  0  0  0  0
 12 39  2  0  0  0  0
 13 48  1  0  0  0  0
 13 91  1  0  0  0  0
 13 92  1  0  0  0  0
 14 15  1  0  0  0  0
 14 16  1  0  0  0  0
 14 49  1  0  0  0  0
 15 50  1  0  0  0  0
 15 51  1  0  0  0  0
 16 23  1  0  0  0  0
 16 52  1  0  0  0  0
 17 22  1  0  0  0  0
 17 53  1  0  0  0  0
 17 54  1  0  0  0  0
 18 19  1  0  0  0  0
 18 20  1  0  0  0  0
 18 55  1  0  0  0  0
 18 56  1  0  0  0  0
 19 21  1  0  0  0  0
 19 57  1  0  0  0  0
 19 58  1  0  0  0  0
 20 59  1  0  0  0  0
 20 60  1  0  0  0  0
 21 61  1  0  0  0  0
 21 62  1  0  0  0  0
 22 27  1  0  0  0  0
 22 28  1  0  0  0  0
 22 63  1  0  0  0  0
 23 26  1  0  0  0  0
 23 64  1  0  0  0  0
 23 65  1  0  0  0  0
 24 29  1  0  0  0  0
 24 66  1  0  0  0  0
 24 67  1  0  0  0  0
 25 30  2  0  0  0  0
 25 32  1  0  0  0  0
 26 34  2  0  0  0  0
 26 35  1  0  0  0  0
 27 69  1  0  0  0  0
 27 70  1  0  0  0  0
 27 71  1  0  0  0  0
 28 72  1  0  0  0  0
 28 73  1  0  0  0  0
 28 74  1  0  0  0  0
 30 33  1  0  0  0  0
 30 76  1  0  0  0  0
 31 38  1  0  0  0  0
 32 37  2  0  0  0  0
 32 77  1  0  0  0  0
 33 36  2  0  0  0  0
 34 40  1  0  0  0  0
 34 78  1  0  0  0  0
 35 41  2  0  0  0  0
 35 79  1  0  0  0  0
 36 37  1  0  0  0  0
 37 80  1  0  0  0  0
 38 42  2  0  0  0  0
 38 44  1  0  0  0  0
 40 43  2  0  0  0  0
 40 82  1  0  0  0  0
 41 43  1  0  0  0  0
 41 83  1  0  0  0  0
 42 45  1  0  0  0  0
 42 46  1  0  0  0  0
 43 84  1  0  0  0  0
 44 47  2  0  0  0  0
 44 85  1  0  0  0  0
 45 48  2  0  0  0  0
 45 86  1  0  0  0  0
 46 87  1  0  0  0  0
 46 88  1  0  0  0  0
 46 89  1  0  0  0  0
 47 48  1  0  0  0  0
 47 90  1  0  0  0  0
M  END
> <PUBCHEM_COMPOUND_CID>
509629
> <PUBCHEM_COMPOUND_CANONICALIZED>
1
> <PUBCHEM_CACTVS_COMPLEXITY>
1160
> <PUBCHEM_CACTVS_HBOND_ACCEPTOR>
10
> <PUBCHEM_CACTVS_HBOND_DONOR>
4
> <PUBCHEM_CACTVS_ROTATABLE_BOND>
14
> <PUBCHEM_CACTVS_SUBSKEYS>
AAADcfB/uABgAAAAAAAAAAAAAAAAAWLAAAAwYMAAAAAAAFgB9AAAHgQQSAAADTzh3gYz0bPIEgqsAyVydHDD8LllCjlJmL24ZNiKcLLg3bGUYQhslwLYyaeYyaCeiAQAQEAQAQAQCACAgCACAAAAAAAAAA==
> <PUBCHEM_IUPAC_OPENEYE_NAME>
4-amino-N-[(1S,2R)-1-benzyl-2-hydroxy-3-[isobutyl-[[2-[(2-pyrrolidin-1-ylacetyl)amino]-1,3-benzothiazol-6-yl]sulfonyl]amino]propyl]-2-methyl-benzamide
> <PUBCHEM_IUPAC_CAS_NAME>
4-amino-N-[(2S,3R)-3-hydroxy-4-[2-methylpropyl-[[2-[[1-oxo-2-(1-pyrrolidinyl)ethyl]amino]-1,3-benzothiazol-6-yl]sulfonyl]amino]-1-phenylbutan-2-yl]-2-methylbenzamide
> <PUBCHEM_IUPAC_NAME_MARKUP>
4-amino-<I>N</I>-[(2<I>S</I>,3<I>R</I>)-3-hydroxy-4-[2-methylpropyl-[[2-[(2-pyrrolidin-1-ylacetyl)amino]-1,3-benzothiazol-6-yl]sulfonyl]amino]-1-phenylbutan-2-yl]-2-methylbenzamide
> <PUBCHEM_IUPAC_NAME>
4-amino-N-[(2S,3R)-3-hydroxy-4-[2-methylpropyl-[[2-[(2-pyrrolidin-1-ylacetyl)amino]-1,3-benzothiazol-6-yl]sulfonyl]amino]-1-phenylbutan-2-yl]-2-methylbenzamide
> <PUBCHEM_IUPAC_SYSTEMATIC_NAME>
4-azanyl-2-methyl-N-[(2S,3R)-4-[2-methylpropyl-[[2-(2-pyrrolidin-1-ylethanoylamino)-1,3-benzothiazol-6-yl]sulfonyl]amino]-3-oxidanyl-1-phenyl-butan-2-yl]benzamide
> <PUBCHEM_IUPAC_TRADITIONAL_NAME>
4-amino-N-[(1S,2R)-1-benzyl-2-hydroxy-3-[isobutyl-[[2-[(2-pyrrolidinoacetyl)amino]-1,3-benzothiazol-6-yl]sulfonyl]amino]propyl]-2-methyl-benzamide
> <PUBCHEM_IUPAC_INCHI>
InChI=1S/C35H44N6O5S2/c1-23(2)20-41(21-31(42)30(18-25-9-5-4-6-10-25)37-34(44)28-13-11-26(36)17-24(28)3)48(45,46)27-12-14-29-32(19-27)47-35(38-29)39-33(43)22-40-15-7-8-16-40/h4-6,9-14,17,19,23,30-31,42H,7-8,15-16,18,20-22,36H2,1-3H3,(H,37,44)(H,38,39,43)/t30-,31+/m0/s1
> <PUBCHEM_IUPAC_INCHIKEY>
HXAXFKLXEQRYIN-IOWSJCHKSA-N
> <PUBCHEM_XLOGP3_AA>
5
> <PUBCHEM_EXACT_MASS>
692.28146087
> <PUBCHEM_MOLECULAR_FORMULA>
C35H44N6O5S2
> <PUBCHEM_MOLECULAR_WEIGHT>
692.9
> <PUBCHEM_OPENEYE_CAN_SMILES>
CC1=C(C=CC(=C1)N)C(=O)NC(CC2=CC=CC=C2)C(CN(CC(C)C)S(=O)(=O)C3=CC4=C(C=C3)N=C(S4)NC(=O)CN5CCCC5)O
> <PUBCHEM_OPENEYE_ISO_SMILES>
CC1=C(C=CC(=C1)N)C(=O)N[C@@H](CC2=CC=CC=C2)[C@@H](CN(CC(C)C)S(=O)(=O)C3=CC4=C(C=C3)N=C(S4)NC(=O)CN5CCCC5)O
> <PUBCHEM_CACTVS_TPSA>
195
> <PUBCHEM_MONOISOTOPIC_WEIGHT>
692.28146087
> <PUBCHEM_TOTAL_CHARGE>
0
> <PUBCHEM_HEAVY_ATOM_COUNT>
48
> <PUBCHEM_ATOM_DEF_STEREO_COUNT>
2
> <PUBCHEM_ATOM_UDEF_STEREO_COUNT>
0
> <PUBCHEM_BOND_DEF_STEREO_COUNT>
0
> <PUBCHEM_BOND_UDEF_STEREO_COUNT>
0
> <PUBCHEM_ISOTOPIC_ATOM_COUNT>
0
> <PUBCHEM_COMPONENT_COUNT>
1
> <PUBCHEM_CACTVS_TAUTO_COUNT>
-1
> <PUBCHEM_COORDINATE_TYPE>
1
5
255
> <PUBCHEM_BONDANNOTATIONS>
16  10  6
12  36  8
12  39  8
2  33  8
2  39  8
25  30  8
25  32  8
26  34  8
26  35  8
14  3  6
30  33  8
32  37  8
33  36  8
34  40  8
35  41  8
36  37  8
38  42  8
38  44  8
40  43  8
41  43  8
42  45  8
44  47  8
45  48  8
47  48  8
$$$$
