509685
  -OEChem-10302200282D
101105  0     1  0  0  0  0  0999 V2000
    9.7942   -0.3426    0.0000 S   0  0  0  0  0  0  0  0  0  0  0  0
   13.3385   -0.5379    0.0000 S   0  0  0  0  0  0  0  0  0  0  0  0
    7.1962    1.1574    0.0000 O   0  0  0  0  0  0  0  0  0  0  0  0
    9.2942   -1.2087    0.0000 O   0  0  0  0  0  0  0  0  0  0  0  0
   10.2942    0.5234    0.0000 O   0  0  0  0  0  0  0  0  0  0  0  0
    6.3301    1.6574    0.0000 O   0  0  0  0  0  0  0  0  0  0  0  0
    4.5981    2.6574    0.0000 O   0  0  0  0  0  0  0  0  0  0  0  0
   16.9221   -3.0747    0.0000 N   0  0  0  0  0  0  0  0  0  0  0  0
    8.9282    0.1574    0.0000 N   0  0  3  0  0  0  0  0  0  0  0  0
   14.9221   -1.3426    0.0000 N   0  0  3  0  0  0  0  0  0  0  0  0
    5.4641    0.1574    0.0000 N   0  0  0  0  0  0  0  0  0  0  0  0
   13.3385   -2.1474    0.0000 N   0  0  0  0  0  0  0  0  0  0  0  0
   16.5154   -3.9882    0.0000 C   0  0  0  0  0  0  0  0  0  0  0  0
   17.9167   -3.1792    0.0000 C   0  0  0  0  0  0  0  0  0  0  0  0
   17.2585   -4.6574    0.0000 C   0  0  0  0  0  0  0  0  0  0  0  0
   18.1246   -4.1574    0.0000 C   0  0  0  0  0  0  0  0  0  0  0  0
   16.4221   -2.2087    0.0000 C   0  0  0  0  0  0  0  0  0  0  0  0
    7.1962    0.1574    0.0000 C   0  0  2  0  0  0  0  0  0  0  0  0
    8.0622   -0.3426    0.0000 C   0  0  0  0  0  0  0  0  0  0  0  0
    6.3301   -0.3426    0.0000 C   0  0  2  0  0  0  0  0  0  0  0  0
    8.9282    1.1574    0.0000 C   0  0  0  0  0  0  0  0  0  0  0  0
   15.4221   -2.2087    0.0000 C   0  0  0  0  0  0  0  0  0  0  0  0
    9.7942    1.6574    0.0000 C   0  0  0  0  0  0  0  0  0  0  0  0
    6.3301   -1.3426    0.0000 C   0  0  0  0  0  0  0  0  0  0  0  0
   10.6603   -0.8426    0.0000 C   0  0  0  0  0  0  0  0  0  0  0  0
    9.7942    2.6574    0.0000 C   0  0  0  0  0  0  0  0  0  0  0  0
   10.6603    1.1574    0.0000 C   0  0  0  0  0  0  0  0  0  0  0  0
    5.4641   -1.8426    0.0000 C   0  0  0  0  0  0  0  0  0  0  0  0
   13.9221   -1.3426    0.0000 C   0  0  0  0  0  0  0  0  0  0  0  0
   11.5263   -0.3426    0.0000 C   0  0  0  0  0  0  0  0  0  0  0  0
   12.3923   -0.8426    0.0000 C   0  0  0  0  0  0  0  0  0  0  0  0
   10.6603   -1.8426    0.0000 C   0  0  0  0  0  0  0  0  0  0  0  0
   12.3923   -1.8426    0.0000 C   0  0  0  0  0  0  0  0  0  0  0  0
   15.4221   -0.4766    0.0000 C   0  0  0  0  0  0  0  0  0  0  0  0
    5.4641    1.1574    0.0000 C   0  0  0  0  0  0  0  0  0  0  0  0
   11.5263   -2.3426    0.0000 C   0  0  0  0  0  0  0  0  0  0  0  0
    5.4641   -2.8426    0.0000 C   0  0  0  0  0  0  0  0  0  0  0  0
    4.5981   -1.3426    0.0000 C   0  0  0  0  0  0  0  0  0  0  0  0
    4.5981    1.6574    0.0000 C   0  0  0  0  0  0  0  0  0  0  0  0
    4.5981   -3.3426    0.0000 C   0  0  0  0  0  0  0  0  0  0  0  0
    3.7320   -1.8426    0.0000 C   0  0  0  0  0  0  0  0  0  0  0  0
    3.7320   -2.8426    0.0000 C   0  0  0  0  0  0  0  0  0  0  0  0
    3.7320    3.1574    0.0000 C   0  0  0  0  0  0  0  0  0  0  0  0
    3.7320    4.1574    0.0000 C   0  0  0  0  0  0  0  0  0  0  0  0
    2.8660    2.6574    0.0000 C   0  0  0  0  0  0  0  0  0  0  0  0
    2.8660    4.6574    0.0000 C   0  0  0  0  0  0  0  0  0  0  0  0
    2.0000    3.1574    0.0000 C   0  0  0  0  0  0  0  0  0  0  0  0
    4.5981    4.6574    0.0000 C   0  0  0  0  0  0  0  0  0  0  0  0
    2.8660    1.6574    0.0000 C   0  0  0  0  0  0  0  0  0  0  0  0
    2.0000    4.1574    0.0000 C   0  0  0  0  0  0  0  0  0  0  0  0
   15.9785   -3.6782    0.0000 H   0  0  0  0  0  0  0  0  0  0  0  0
   16.1510   -4.4898    0.0000 H   0  0  0  0  0  0  0  0  0  0  0  0
   18.5333   -3.1144    0.0000 H   0  0  0  0  0  0  0  0  0  0  0  0
   17.9167   -2.5592    0.0000 H   0  0  0  0  0  0  0  0  0  0  0  0
   16.7978   -5.0722    0.0000 H   0  0  0  0  0  0  0  0  0  0  0  0
   17.6230   -5.1590    0.0000 H   0  0  0  0  0  0  0  0  0  0  0  0
   18.3767   -4.7238    0.0000 H   0  0  0  0  0  0  0  0  0  0  0  0
   18.7142   -3.9658    0.0000 H   0  0  0  0  0  0  0  0  0  0  0  0
   17.0047   -1.9966    0.0000 H   0  0  0  0  0  0  0  0  0  0  0  0
   16.3145   -1.5981    0.0000 H   0  0  0  0  0  0  0  0  0  0  0  0
    6.6592    0.4674    0.0000 H   0  0  0  0  0  0  0  0  0  0  0  0
    7.6636   -0.8176    0.0000 H   0  0  0  0  0  0  0  0  0  0  0  0
    8.4607   -0.8176    0.0000 H   0  0  0  0  0  0  0  0  0  0  0  0
    5.7932   -0.6526    0.0000 H   0  0  0  0  0  0  0  0  0  0  0  0
    8.7162    1.7400    0.0000 H   0  0  0  0  0  0  0  0  0  0  0  0
    8.3176    1.0497    0.0000 H   0  0  0  0  0  0  0  0  0  0  0  0
   14.8395   -2.4207    0.0000 H   0  0  0  0  0  0  0  0  0  0  0  0
   15.5298   -2.8192    0.0000 H   0  0  0  0  0  0  0  0  0  0  0  0
    9.2573    1.9674    0.0000 H   0  0  0  0  0  0  0  0  0  0  0  0
    6.5422   -1.9252    0.0000 H   0  0  0  0  0  0  0  0  0  0  0  0
    6.9407   -1.2350    0.0000 H   0  0  0  0  0  0  0  0  0  0  0  0
    4.9272   -0.1526    0.0000 H   0  0  0  0  0  0  0  0  0  0  0  0
   10.4142    2.6574    0.0000 H   0  0  0  0  0  0  0  0  0  0  0  0
    9.7942    3.2774    0.0000 H   0  0  0  0  0  0  0  0  0  0  0  0
    9.1742    2.6574    0.0000 H   0  0  0  0  0  0  0  0  0  0  0  0
   10.3503    0.6204    0.0000 H   0  0  0  0  0  0  0  0  0  0  0  0
   11.1972    0.8474    0.0000 H   0  0  0  0  0  0  0  0  0  0  0  0
   10.9703    1.6943    0.0000 H   0  0  0  0  0  0  0  0  0  0  0  0
    7.7331    1.4674    0.0000 H   0  0  0  0  0  0  0  0  0  0  0  0
   11.5263    0.2774    0.0000 H   0  0  0  0  0  0  0  0  0  0  0  0
   10.1233   -2.1526    0.0000 H   0  0  0  0  0  0  0  0  0  0  0  0
   15.9591   -0.7866    0.0000 H   0  0  0  0  0  0  0  0  0  0  0  0
   15.7321    0.0603    0.0000 H   0  0  0  0  0  0  0  0  0  0  0  0
   14.8852   -0.1666    0.0000 H   0  0  0  0  0  0  0  0  0  0  0  0
   11.5263   -2.9626    0.0000 H   0  0  0  0  0  0  0  0  0  0  0  0
    6.0010   -3.1526    0.0000 H   0  0  0  0  0  0  0  0  0  0  0  0
    4.5981   -0.7226    0.0000 H   0  0  0  0  0  0  0  0  0  0  0  0
    3.9875    1.7650    0.0000 H   0  0  0  0  0  0  0  0  0  0  0  0
    4.3860    1.0748    0.0000 H   0  0  0  0  0  0  0  0  0  0  0  0
    4.5981   -3.9626    0.0000 H   0  0  0  0  0  0  0  0  0  0  0  0
    3.1951   -1.5326    0.0000 H   0  0  0  0  0  0  0  0  0  0  0  0
    3.1951   -3.1526    0.0000 H   0  0  0  0  0  0  0  0  0  0  0  0
    2.8660    5.2774    0.0000 H   0  0  0  0  0  0  0  0  0  0  0  0
    1.4631    2.8474    0.0000 H   0  0  0  0  0  0  0  0  0  0  0  0
    4.9081    4.1204    0.0000 H   0  0  0  0  0  0  0  0  0  0  0  0
    5.1350    4.9674    0.0000 H   0  0  0  0  0  0  0  0  0  0  0  0
    4.2881    5.1943    0.0000 H   0  0  0  0  0  0  0  0  0  0  0  0
    2.2460    1.6574    0.0000 H   0  0  0  0  0  0  0  0  0  0  0  0
    2.8660    1.0374    0.0000 H   0  0  0  0  0  0  0  0  0  0  0  0
    3.4860    1.6574    0.0000 H   0  0  0  0  0  0  0  0  0  0  0  0
    1.4631    4.4674    0.0000 H   0  0  0  0  0  0  0  0  0  0  0  0
  1  4  2  0  0  0  0
  1  5  2  0  0  0  0
  1  9  1  0  0  0  0
  1 25  1  0  0  0  0
  2 29  1  0  0  0  0
  2 31  1  0  0  0  0
 18  3  1  6  0  0  0
  3 79  1  0  0  0  0
  6 35  2  0  0  0  0
  7 39  1  0  0  0  0
  7 43  1  0  0  0  0
  8 13  1  0  0  0  0
  8 14  1  0  0  0  0
  8 17  1  0  0  0  0
  9 19  1  0  0  0  0
  9 21  1  0  0  0  0
 10 22  1  0  0  0  0
 10 29  1  0  0  0  0
 10 34  1  0  0  0  0
 20 11  1  6  0  0  0
 11 35  1  0  0  0  0
 11 72  1  0  0  0  0
 12 29  2  0  0  0  0
 12 33  1  0  0  0  0
 13 15  1  0  0  0  0
 13 51  1  0  0  0  0
 13 52  1  0  0  0  0
 14 16  1  0  0  0  0
 14 53  1  0  0  0  0
 14 54  1  0  0  0  0
 15 16  1  0  0  0  0
 15 55  1  0  0  0  0
 15 56  1  0  0  0  0
 16 57  1  0  0  0  0
 16 58  1  0  0  0  0
 17 22  1  0  0  0  0
 17 59  1  0  0  0  0
 17 60  1  0  0  0  0
 18 19  1  0  0  0  0
 18 20  1  0  0  0  0
 18 61  1  0  0  0  0
 19 62  1  0  0  0  0
 19 63  1  0  0  0  0
 20 24  1  0  0  0  0
 20 64  1  0  0  0  0
 21 23  1  0  0  0  0
 21 65  1  0  0  0  0
 21 66  1  0  0  0  0
 22 67  1  0  0  0  0
 22 68  1  0  0  0  0
 23 26  1  0  0  0  0
 23 27  1  0  0  0  0
 23 69  1  0  0  0  0
 24 28  1  0  0  0  0
 24 70  1  0  0  0  0
 24 71  1  0  0  0  0
 25 30  2  0  0  0  0
 25 32  1  0  0  0  0
 26 73  1  0  0  0  0
 26 74  1  0  0  0  0
 26 75  1  0  0  0  0
 27 76  1  0  0  0  0
 27 77  1  0  0  0  0
 27 78  1  0  0  0  0
 28 37  2  0  0  0  0
 28 38  1  0  0  0  0
 30 31  1  0  0  0  0
 30 80  1  0  0  0  0
 31 33  2  0  0  0  0
 32 36  2  0  0  0  0
 32 81  1  0  0  0  0
 33 36  1  0  0  0  0
 34 82  1  0  0  0  0
 34 83  1  0  0  0  0
 34 84  1  0  0  0  0
 35 39  1  0  0  0  0
 36 85  1  0  0  0  0
 37 40  1  0  0  0  0
 37 86  1  0  0  0  0
 38 41  2  0  0  0  0
 38 87  1  0  0  0  0
 39 88  1  0  0  0  0
 39 89  1  0  0  0  0
 40 42  2  0  0  0  0
 40 90  1  0  0  0  0
 41 42  1  0  0  0  0
 41 91  1  0  0  0  0
 42 92  1  0  0  0  0
 43 44  2  0  0  0  0
 43 45  1  0  0  0  0
 44 46  1  0  0  0  0
 44 48  1  0  0  0  0
 45 47  2  0  0  0  0
 45 49  1  0  0  0  0
 46 50  2  0  0  0  0
 46 93  1  0  0  0  0
 47 50  1  0  0  0  0
 47 94  1  0  0  0  0
 48 95  1  0  0  0  0
 48 96  1  0  0  0  0
 48 97  1  0  0  0  0
 49 98  1  0  0  0  0
 49 99  1  0  0  0  0
 49100  1  0  0  0  0
 50101  1  0  0  0  0
M  END
> <PUBCHEM_COMPOUND_CID>
509685
> <PUBCHEM_COMPOUND_CANONICALIZED>
1
> <PUBCHEM_CACTVS_COMPLEXITY>
1130
> <PUBCHEM_CACTVS_HBOND_ACCEPTOR>
10
> <PUBCHEM_CACTVS_HBOND_DONOR>
2
> <PUBCHEM_CACTVS_ROTATABLE_BOND>
17
> <PUBCHEM_CACTVS_SUBSKEYS>
AAADcfB/uABgAAAAAAAAAAAAAAAAAWLAAAAwYMAAAAAAAFgB9AAAHgQQSAAADTzh3gYz17PIFgqsAyVydHLD+LlhKjhJmLx8bJiOdqLk+Z+XeCjs1hPY6CeQwOAOAAQCAEAIAQAACAQAgBACAAAAAAAAAA==
> <PUBCHEM_IUPAC_OPENEYE_NAME>
N-[(1S,2R)-1-benzyl-2-hydroxy-3-[isobutyl-[[2-[methyl(2-pyrrolidin-1-ylethyl)amino]-1,3-benzothiazol-6-yl]sulfonyl]amino]propyl]-2-(2,6-dimethylphenoxy)acetamide
> <PUBCHEM_IUPAC_CAS_NAME>
2-(2,6-dimethylphenoxy)-N-[(2S,3R)-3-hydroxy-4-[2-methylpropyl-[[2-[methyl-[2-(1-pyrrolidinyl)ethyl]amino]-1,3-benzothiazol-6-yl]sulfonyl]amino]-1-phenylbutan-2-yl]acetamide
> <PUBCHEM_IUPAC_NAME_MARKUP>
2-(2,6-dimethylphenoxy)-<I>N</I>-[(2<I>S</I>,3<I>R</I>)-3-hydroxy-4-[2-methylpropyl-[[2-[methyl(2-pyrrolidin-1-ylethyl)amino]-1,3-benzothiazol-6-yl]sulfonyl]amino]-1-phenylbutan-2-yl]acetamide
> <PUBCHEM_IUPAC_NAME>
2-(2,6-dimethylphenoxy)-N-[(2S,3R)-3-hydroxy-4-[2-methylpropyl-[[2-[methyl(2-pyrrolidin-1-ylethyl)amino]-1,3-benzothiazol-6-yl]sulfonyl]amino]-1-phenylbutan-2-yl]acetamide
> <PUBCHEM_IUPAC_SYSTEMATIC_NAME>
2-(2,6-dimethylphenoxy)-N-[(2S,3R)-4-[2-methylpropyl-[[2-[methyl(2-pyrrolidin-1-ylethyl)amino]-1,3-benzothiazol-6-yl]sulfonyl]amino]-3-oxidanyl-1-phenyl-butan-2-yl]ethanamide
> <PUBCHEM_IUPAC_TRADITIONAL_NAME>
N-[(1S,2R)-1-benzyl-2-hydroxy-3-[isobutyl-[[2-[methyl(2-pyrrolidinoethyl)amino]-1,3-benzothiazol-6-yl]sulfonyl]amino]propyl]-2-(2,6-dimethylphenoxy)acetamide
> <PUBCHEM_IUPAC_INCHI>
InChI=1S/C38H51N5O5S2/c1-27(2)24-43(50(46,47)31-16-17-32-35(23-31)49-38(40-32)41(5)20-21-42-18-9-10-19-42)25-34(44)33(22-30-14-7-6-8-15-30)39-36(45)26-48-37-28(3)12-11-13-29(37)4/h6-8,11-17,23,27,33-34,44H,9-10,18-22,24-26H2,1-5H3,(H,39,45)/t33-,34+/m0/s1
> <PUBCHEM_IUPAC_INCHIKEY>
CNHGPLHBBOHEPM-SZAHLOSFSA-N
> <PUBCHEM_XLOGP3_AA>
7
> <PUBCHEM_EXACT_MASS>
721.33316209
> <PUBCHEM_MOLECULAR_FORMULA>
C38H51N5O5S2
> <PUBCHEM_MOLECULAR_WEIGHT>
722.0
> <PUBCHEM_OPENEYE_CAN_SMILES>
CC1=C(C(=CC=C1)C)OCC(=O)NC(CC2=CC=CC=C2)C(CN(CC(C)C)S(=O)(=O)C3=CC4=C(C=C3)N=C(S4)N(C)CCN5CCCC5)O
> <PUBCHEM_OPENEYE_ISO_SMILES>
CC1=C(C(=CC=C1)C)OCC(=O)N[C@@H](CC2=CC=CC=C2)[C@@H](CN(CC(C)C)S(=O)(=O)C3=CC4=C(C=C3)N=C(S4)N(C)CCN5CCCC5)O
> <PUBCHEM_CACTVS_TPSA>
152
> <PUBCHEM_MONOISOTOPIC_WEIGHT>
721.33316209
> <PUBCHEM_TOTAL_CHARGE>
0
> <PUBCHEM_HEAVY_ATOM_COUNT>
50
> <PUBCHEM_ATOM_DEF_STEREO_COUNT>
2
> <PUBCHEM_ATOM_UDEF_STEREO_COUNT>
0
> <PUBCHEM_BOND_DEF_STEREO_COUNT>
0
> <PUBCHEM_BOND_UDEF_STEREO_COUNT>
0
> <PUBCHEM_ISOTOPIC_ATOM_COUNT>
0
> <PUBCHEM_COMPONENT_COUNT>
1
> <PUBCHEM_CACTVS_TAUTO_COUNT>
-1
> <PUBCHEM_COORDINATE_TYPE>
1
5
255
> <PUBCHEM_BONDANNOTATIONS>
20  11  6
12  29  8
12  33  8
2  29  8
2  31  8
25  30  8
25  32  8
28  37  8
28  38  8
18  3  6
30  31  8
31  33  8
32  36  8
33  36  8
37  40  8
38  41  8
40  42  8
41  42  8
43  44  8
43  45  8
44  46  8
45  47  8
46  50  8
47  50  8
$$$$
