509612
  -OEChem-10302200282D
 91 96  0     1  0  0  0  0  0999 V2000
    9.3056   -1.0605    0.0000 S   0  0  0  0  0  0  0  0  0  0  0  0
   12.8499   -1.2558    0.0000 S   0  0  0  0  0  0  0  0  0  0  0  0
    4.6095    3.4783    0.0000 O   0  0  0  0  0  0  0  0  0  0  0  0
    2.8037    4.0605    0.0000 O   0  0  0  0  0  0  0  0  0  0  0  0
    4.1095    0.9395    0.0000 O   0  0  0  0  0  0  0  0  0  0  0  0
    6.7075    0.4395    0.0000 O   0  0  0  0  0  0  0  0  0  0  0  0
    5.8415    0.9395    0.0000 O   0  0  0  0  0  0  0  0  0  0  0  0
    8.8056   -1.9266    0.0000 O   0  0  0  0  0  0  0  0  0  0  0  0
    9.8056   -0.1945    0.0000 O   0  0  0  0  0  0  0  0  0  0  0  0
   16.4335   -3.7926    0.0000 O   0  0  0  0  0  0  0  0  0  0  0  0
    4.9755   -0.5605    0.0000 N   0  0  0  0  0  0  0  0  0  0  0  0
    8.4396   -0.5605    0.0000 N   0  0  3  0  0  0  0  0  0  0  0  0
   14.4335   -2.0605    0.0000 N   0  0  3  0  0  0  0  0  0  0  0  0
   16.4335   -2.0605    0.0000 N   0  0  0  0  0  0  0  0  0  0  0  0
   12.8499   -2.8653    0.0000 N   0  0  0  0  0  0  0  0  0  0  0  0
    3.3004    2.5273    0.0000 C   0  0  2  0  0  0  0  0  0  0  0  0
    3.6095    3.4783    0.0000 C   0  0  1  0  0  0  0  0  0  0  0  0
    4.1095    1.9395    0.0000 C   0  0  2  0  0  0  0  0  0  0  0  0
    2.3064    2.5298    0.0000 C   0  0  0  0  0  0  0  0  0  0  0  0
    4.9185    2.5273    0.0000 C   0  0  0  0  0  0  0  0  0  0  0  0
    2.0000    3.4755    0.0000 C   0  0  0  0  0  0  0  0  0  0  0  0
    5.8415   -1.0605    0.0000 C   0  0  2  0  0  0  0  0  0  0  0  0
    4.9755    0.4395    0.0000 C   0  0  0  0  0  0  0  0  0  0  0  0
    6.7075   -0.5605    0.0000 C   0  0  1  0  0  0  0  0  0  0  0  0
    7.5736   -1.0605    0.0000 C   0  0  0  0  0  0  0  0  0  0  0  0
    5.8415   -2.0605    0.0000 C   0  0  0  0  0  0  0  0  0  0  0  0
    8.4396    0.4395    0.0000 C   0  0  0  0  0  0  0  0  0  0  0  0
    9.3056    0.9395    0.0000 C   0  0  0  0  0  0  0  0  0  0  0  0
    4.9755   -2.5605    0.0000 C   0  0  0  0  0  0  0  0  0  0  0  0
   10.1716   -1.5605    0.0000 C   0  0  0  0  0  0  0  0  0  0  0  0
    9.3056    1.9395    0.0000 C   0  0  0  0  0  0  0  0  0  0  0  0
   10.1716    0.4395    0.0000 C   0  0  0  0  0  0  0  0  0  0  0  0
   11.0377   -1.0605    0.0000 C   0  0  0  0  0  0  0  0  0  0  0  0
    4.9755   -3.5605    0.0000 C   0  0  0  0  0  0  0  0  0  0  0  0
    4.1095   -2.0605    0.0000 C   0  0  0  0  0  0  0  0  0  0  0  0
   10.1716   -2.5605    0.0000 C   0  0  0  0  0  0  0  0  0  0  0  0
   11.9037   -1.5605    0.0000 C   0  0  0  0  0  0  0  0  0  0  0  0
   11.9037   -2.5605    0.0000 C   0  0  0  0  0  0  0  0  0  0  0  0
   14.9335   -1.1945    0.0000 C   0  0  0  0  0  0  0  0  0  0  0  0
   11.0377   -3.0605    0.0000 C   0  0  0  0  0  0  0  0  0  0  0  0
   13.4335   -2.0605    0.0000 C   0  0  0  0  0  0  0  0  0  0  0  0
   15.9335   -1.1945    0.0000 C   0  0  0  0  0  0  0  0  0  0  0  0
   14.9335   -2.9266    0.0000 C   0  0  0  0  0  0  0  0  0  0  0  0
    4.1095   -4.0605    0.0000 C   0  0  0  0  0  0  0  0  0  0  0  0
    3.2434   -2.5605    0.0000 C   0  0  0  0  0  0  0  0  0  0  0  0
   15.9335   -2.9266    0.0000 C   0  0  0  0  0  0  0  0  0  0  0  0
    3.2434   -3.5605    0.0000 C   0  0  0  0  0  0  0  0  0  0  0  0
   17.4335   -2.0605    0.0000 C   0  0  0  0  0  0  0  0  0  0  0  0
    3.0367    1.7192    0.0000 H   0  0  0  0  0  0  0  0  0  0  0  0
    3.8711    4.2870    0.0000 H   0  0  0  0  0  0  0  0  0  0  0  0
    3.5570    1.6580    0.0000 H   0  0  0  0  0  0  0  0  0  0  0  0
    1.6997    2.4018    0.0000 H   0  0  0  0  0  0  0  0  0  0  0  0
    2.3699    1.9131    0.0000 H   0  0  0  0  0  0  0  0  0  0  0  0
    5.2285    1.9903    0.0000 H   0  0  0  0  0  0  0  0  0  0  0  0
    5.4849    2.7794    0.0000 H   0  0  0  0  0  0  0  0  0  0  0  0
    1.6898    4.0124    0.0000 H   0  0  0  0  0  0  0  0  0  0  0  0
    1.4335    3.2235    0.0000 H   0  0  0  0  0  0  0  0  0  0  0  0
    5.3046   -1.3705    0.0000 H   0  0  0  0  0  0  0  0  0  0  0  0
    7.2445   -0.2505    0.0000 H   0  0  0  0  0  0  0  0  0  0  0  0
    4.4386   -0.8705    0.0000 H   0  0  0  0  0  0  0  0  0  0  0  0
    7.1750   -1.5355    0.0000 H   0  0  0  0  0  0  0  0  0  0  0  0
    7.9721   -1.5355    0.0000 H   0  0  0  0  0  0  0  0  0  0  0  0
    6.0536   -2.6431    0.0000 H   0  0  0  0  0  0  0  0  0  0  0  0
    6.4521   -1.9529    0.0000 H   0  0  0  0  0  0  0  0  0  0  0  0
    8.2275    1.0221    0.0000 H   0  0  0  0  0  0  0  0  0  0  0  0
    7.8290    0.3318    0.0000 H   0  0  0  0  0  0  0  0  0  0  0  0
    8.7687    1.2495    0.0000 H   0  0  0  0  0  0  0  0  0  0  0  0
    7.2445    0.7495    0.0000 H   0  0  0  0  0  0  0  0  0  0  0  0
    9.9256    1.9395    0.0000 H   0  0  0  0  0  0  0  0  0  0  0  0
    9.3056    2.5595    0.0000 H   0  0  0  0  0  0  0  0  0  0  0  0
    8.6856    1.9395    0.0000 H   0  0  0  0  0  0  0  0  0  0  0  0
    9.8616   -0.0975    0.0000 H   0  0  0  0  0  0  0  0  0  0  0  0
   10.7086    0.1295    0.0000 H   0  0  0  0  0  0  0  0  0  0  0  0
   10.4816    0.9764    0.0000 H   0  0  0  0  0  0  0  0  0  0  0  0
   11.0377   -0.4405    0.0000 H   0  0  0  0  0  0  0  0  0  0  0  0
    5.5124   -3.8705    0.0000 H   0  0  0  0  0  0  0  0  0  0  0  0
    4.1095   -1.4405    0.0000 H   0  0  0  0  0  0  0  0  0  0  0  0
    9.6347   -2.8705    0.0000 H   0  0  0  0  0  0  0  0  0  0  0  0
   15.0412   -0.5839    0.0000 H   0  0  0  0  0  0  0  0  0  0  0  0
   14.3509   -0.9825    0.0000 H   0  0  0  0  0  0  0  0  0  0  0  0
   11.0377   -3.6805    0.0000 H   0  0  0  0  0  0  0  0  0  0  0  0
   16.5161   -0.9825    0.0000 H   0  0  0  0  0  0  0  0  0  0  0  0
   15.8259   -0.5839    0.0000 H   0  0  0  0  0  0  0  0  0  0  0  0
   14.3509   -3.1386    0.0000 H   0  0  0  0  0  0  0  0  0  0  0  0
   15.0412   -3.5371    0.0000 H   0  0  0  0  0  0  0  0  0  0  0  0
    4.1095   -4.6805    0.0000 H   0  0  0  0  0  0  0  0  0  0  0  0
    2.7065   -2.2505    0.0000 H   0  0  0  0  0  0  0  0  0  0  0  0
    2.7065   -3.8705    0.0000 H   0  0  0  0  0  0  0  0  0  0  0  0
   17.4335   -2.6805    0.0000 H   0  0  0  0  0  0  0  0  0  0  0  0
   18.0535   -2.0605    0.0000 H   0  0  0  0  0  0  0  0  0  0  0  0
   17.4335   -1.4405    0.0000 H   0  0  0  0  0  0  0  0  0  0  0  0
  1  8  2  0  0  0  0
  1  9  2  0  0  0  0
  1 12  1  0  0  0  0
  1 30  1  0  0  0  0
  2 37  1  0  0  0  0
  2 41  1  0  0  0  0
  3 17  1  0  0  0  0
  3 20  1  0  0  0  0
  4 17  1  0  0  0  0
  4 21  1  0  0  0  0
 18  5  1  6  0  0  0
  5 23  1  0  0  0  0
 24  6  1  6  0  0  0
  6 68  1  0  0  0  0
  7 23  2  0  0  0  0
 10 46  2  0  0  0  0
 22 11  1  6  0  0  0
 11 23  1  0  0  0  0
 11 60  1  0  0  0  0
 12 25  1  0  0  0  0
 12 27  1  0  0  0  0
 13 39  1  0  0  0  0
 13 41  1  0  0  0  0
 13 43  1  0  0  0  0
 14 42  1  0  0  0  0
 14 46  1  0  0  0  0
 14 48  1  0  0  0  0
 15 38  1  0  0  0  0
 15 41  2  0  0  0  0
 16 17  1  0  0  0  0
 16 18  1  0  0  0  0
 16 19  1  0  0  0  0
 16 49  1  1  0  0  0
 17 50  1  1  0  0  0
 18 20  1  0  0  0  0
 18 51  1  0  0  0  0
 19 21  1  0  0  0  0
 19 52  1  0  0  0  0
 19 53  1  0  0  0  0
 20 54  1  0  0  0  0
 20 55  1  0  0  0  0
 21 56  1  0  0  0  0
 21 57  1  0  0  0  0
 22 24  1  0  0  0  0
 22 26  1  0  0  0  0
 22 58  1  0  0  0  0
 24 25  1  0  0  0  0
 24 59  1  0  0  0  0
 25 61  1  0  0  0  0
 25 62  1  0  0  0  0
 26 29  1  0  0  0  0
 26 63  1  0  0  0  0
 26 64  1  0  0  0  0
 27 28  1  0  0  0  0
 27 65  1  0  0  0  0
 27 66  1  0  0  0  0
 28 31  1  0  0  0  0
 28 32  1  0  0  0  0
 28 67  1  0  0  0  0
 29 34  2  0  0  0  0
 29 35  1  0  0  0  0
 30 33  2  0  0  0  0
 30 36  1  0  0  0  0
 31 69  1  0  0  0  0
 31 70  1  0  0  0  0
 31 71  1  0  0  0  0
 32 72  1  0  0  0  0
 32 73  1  0  0  0  0
 32 74  1  0  0  0  0
 33 37  1  0  0  0  0
 33 75  1  0  0  0  0
 34 44  1  0  0  0  0
 34 76  1  0  0  0  0
 35 45  2  0  0  0  0
 35 77  1  0  0  0  0
 36 40  2  0  0  0  0
 36 78  1  0  0  0  0
 37 38  2  0  0  0  0
 38 40  1  0  0  0  0
 39 42  1  0  0  0  0
 39 79  1  0  0  0  0
 39 80  1  0  0  0  0
 40 81  1  0  0  0  0
 42 82  1  0  0  0  0
 42 83  1  0  0  0  0
 43 46  1  0  0  0  0
 43 84  1  0  0  0  0
 43 85  1  0  0  0  0
 44 47  2  0  0  0  0
 44 86  1  0  0  0  0
 45 47  1  0  0  0  0
 45 87  1  0  0  0  0
 47 88  1  0  0  0  0
 48 89  1  0  0  0  0
 48 90  1  0  0  0  0
 48 91  1  0  0  0  0
M  END
> <PUBCHEM_COMPOUND_CID>
509612
> <PUBCHEM_COMPOUND_CANONICALIZED>
1
> <PUBCHEM_CACTVS_COMPLEXITY>
1220
> <PUBCHEM_CACTVS_HBOND_ACCEPTOR>
12
> <PUBCHEM_CACTVS_HBOND_DONOR>
2
> <PUBCHEM_CACTVS_ROTATABLE_BOND>
13
> <PUBCHEM_CACTVS_SUBSKEYS>
AAADcfB/vABgAAAAAAAAAAAAAAAAAWJEgAA8YIAAAAASAFgB9AAAHgQQSAAADTzx3gcz2bPIFgqsAyVyfHDD8LlhCjhJmLy4ZJmbcKLg2bG+YAhtlgLeyCfQ4KgOAAQAAEAAAQAACAAAgAACAAAAAAAAAA==
> <PUBCHEM_IUPAC_OPENEYE_NAME>
[(3aS,4R,6aR)-2,3,3a,4,5,6a-hexahydrofuro[2,3-b]furan-4-yl] N-[(1S,2R)-1-benzyl-2-hydroxy-3-[isobutyl-[[2-(4-methyl-3-oxo-piperazin-1-yl)-1,3-benzothiazol-6-yl]sulfonyl]amino]propyl]carbamate
> <PUBCHEM_IUPAC_CAS_NAME>
N-[(2S,3R)-3-hydroxy-4-[[2-(4-methyl-3-oxo-1-piperazinyl)-1,3-benzothiazol-6-yl]sulfonyl-(2-methylpropyl)amino]-1-phenylbutan-2-yl]carbamic acid [(3aS,4R,6aR)-2,3,3a,4,5,6a-hexahydrofuro[2,3-b]furan-4-yl] ester
> <PUBCHEM_IUPAC_NAME_MARKUP>
[(3<I>a</I><I>S</I>,4<I>R</I>,6<I>a</I><I>R</I>)-2,3,3<I>a</I>,4,5,6<I>a</I>-hexahydrofuro[2,3-b]furan-4-yl] <I>N</I>-[(2<I>S</I>,3<I>R</I>)-3-hydroxy-4-[[2-(4-methyl-3-oxopiperazin-1-yl)-1,3-benzothiazol-6-yl]sulfonyl-(2-methylpropyl)amino]-1-phenylbutan-2-yl]carbamate
> <PUBCHEM_IUPAC_NAME>
[(3aS,4R,6aR)-2,3,3a,4,5,6a-hexahydrofuro[2,3-b]furan-4-yl] N-[(2S,3R)-3-hydroxy-4-[[2-(4-methyl-3-oxopiperazin-1-yl)-1,3-benzothiazol-6-yl]sulfonyl-(2-methylpropyl)amino]-1-phenylbutan-2-yl]carbamate
> <PUBCHEM_IUPAC_SYSTEMATIC_NAME>
[(3aS,4R,6aR)-2,3,3a,4,5,6a-hexahydrofuro[2,3-b]furan-4-yl] N-[(2S,3R)-4-[[2-(4-methyl-3-oxidanylidene-piperazin-1-yl)-1,3-benzothiazol-6-yl]sulfonyl-(2-methylpropyl)amino]-3-oxidanyl-1-phenyl-butan-2-yl]carbamate
> <PUBCHEM_IUPAC_TRADITIONAL_NAME>
N-[(1S,2R)-1-benzyl-2-hydroxy-3-[isobutyl-[[2-(3-keto-4-methyl-piperazino)-1,3-benzothiazol-6-yl]sulfonyl]amino]propyl]carbamic acid [(3aS,4R,6aR)-2,3,3a,4,5,6a-hexahydrofuro[2,3-b]furan-4-yl] ester
> <PUBCHEM_IUPAC_INCHI>
InChI=1S/C33H43N5O8S2/c1-21(2)17-38(48(42,43)23-9-10-25-29(16-23)47-32(34-25)37-13-12-36(3)30(40)19-37)18-27(39)26(15-22-7-5-4-6-8-22)35-33(41)46-28-20-45-31-24(28)11-14-44-31/h4-10,16,21,24,26-28,31,39H,11-15,17-20H2,1-3H3,(H,35,41)/t24-,26-,27+,28-,31+/m0/s1
> <PUBCHEM_IUPAC_INCHIKEY>
SEJJJDDCYAXDQS-WUPSDHEXSA-N
> <PUBCHEM_XLOGP3_AA>
3.8
> <PUBCHEM_EXACT_MASS>
701.25530569
> <PUBCHEM_MOLECULAR_FORMULA>
C33H43N5O8S2
> <PUBCHEM_MOLECULAR_WEIGHT>
701.9
> <PUBCHEM_OPENEYE_CAN_SMILES>
CC(C)CN(CC(C(CC1=CC=CC=C1)NC(=O)OC2COC3C2CCO3)O)S(=O)(=O)C4=CC5=C(C=C4)N=C(S5)N6CCN(C(=O)C6)C
> <PUBCHEM_OPENEYE_ISO_SMILES>
CC(C)CN(C[C@H]([C@H](CC1=CC=CC=C1)NC(=O)O[C@H]2CO[C@@H]3[C@H]2CCO3)O)S(=O)(=O)C4=CC5=C(C=C4)N=C(S5)N6CCN(C(=O)C6)C
> <PUBCHEM_CACTVS_TPSA>
188
> <PUBCHEM_MONOISOTOPIC_WEIGHT>
701.25530569
> <PUBCHEM_TOTAL_CHARGE>
0
> <PUBCHEM_HEAVY_ATOM_COUNT>
48
> <PUBCHEM_ATOM_DEF_STEREO_COUNT>
5
> <PUBCHEM_ATOM_UDEF_STEREO_COUNT>
0
> <PUBCHEM_BOND_DEF_STEREO_COUNT>
0
> <PUBCHEM_BOND_UDEF_STEREO_COUNT>
0
> <PUBCHEM_ISOTOPIC_ATOM_COUNT>
0
> <PUBCHEM_COMPONENT_COUNT>
1
> <PUBCHEM_CACTVS_TAUTO_COUNT>
-1
> <PUBCHEM_COORDINATE_TYPE>
1
5
255
> <PUBCHEM_BONDANNOTATIONS>
22  11  6
15  38  8
15  41  8
16  49  5
17  50  5
2  37  8
2  41  8
29  34  8
29  35  8
30  33  8
30  36  8
33  37  8
34  44  8
35  45  8
36  40  8
37  38  8
38  40  8
44  47  8
45  47  8
18  5  6
24  6  6
$$$$
