509618
  -OEChem-10302200282D
102107  0     1  0  0  0  0  0999 V2000
    8.0622    2.0981    0.0000 S   0  0  0  0  0  0  0  0  0  0  0  0
   11.6065    1.9028    0.0000 S   0  0  0  0  0  0  0  0  0  0  0  0
    7.1962    0.5981    0.0000 O   0  0  0  0  0  0  0  0  0  0  0  0
    7.5622    1.2320    0.0000 O   0  0  0  0  0  0  0  0  0  0  0  0
    8.5622    2.9641    0.0000 O   0  0  0  0  0  0  0  0  0  0  0  0
    6.9641   -1.2680    0.0000 O   0  0  0  0  0  0  0  0  0  0  0  0
    5.9641   -3.0000    0.0000 O   0  0  0  0  0  0  0  0  0  0  0  0
   15.1901   -0.6340    0.0000 O   0  0  0  0  0  0  0  0  0  0  0  0
   13.1901   -0.6340    0.0000 O   0  0  0  0  0  0  0  0  0  0  0  0
    7.1962    2.5981    0.0000 N   0  0  3  0  0  0  0  0  0  0  0  0
    5.4641   -0.4019    0.0000 N   0  0  0  0  0  0  0  0  0  0  0  0
    5.4641    3.5981    0.0000 N   0  0  0  0  0  0  0  0  0  0  0  0
   11.6065    0.2933    0.0000 N   0  0  0  0  0  0  0  0  0  0  0  0
   13.1901    1.0981    0.0000 N   0  0  0  0  0  0  0  0  0  0  0  0
    5.4641    0.5981    0.0000 C   0  0  2  0  0  0  0  0  0  0  0  0
    6.3301    1.0981    0.0000 C   0  0  1  0  0  0  0  0  0  0  0  0
    6.3301    2.0981    0.0000 C   0  0  0  0  0  0  0  0  0  0  0  0
    4.5981    1.0981    0.0000 C   0  0  0  0  0  0  0  0  0  0  0  0
    7.1962    3.5981    0.0000 C   0  0  0  0  0  0  0  0  0  0  0  0
    3.7320    0.5981    0.0000 C   0  0  0  0  0  0  0  0  0  0  0  0
    8.9282    1.5981    0.0000 C   0  0  0  0  0  0  0  0  0  0  0  0
    5.9641   -1.2680    0.0000 C   0  0  0  0  0  0  0  0  0  0  0  0
    6.3301    4.0981    0.0000 C   0  0  0  0  0  0  0  0  0  0  0  0
    3.7320   -0.4019    0.0000 C   0  0  0  0  0  0  0  0  0  0  0  0
    2.8660    1.0981    0.0000 C   0  0  0  0  0  0  0  0  0  0  0  0
    9.7942    2.0981    0.0000 C   0  0  0  0  0  0  0  0  0  0  0  0
    8.9282    0.5981    0.0000 C   0  0  0  0  0  0  0  0  0  0  0  0
    5.4641   -2.1340    0.0000 C   0  0  0  0  0  0  0  0  0  0  0  0
   10.6603    1.5981    0.0000 C   0  0  0  0  0  0  0  0  0  0  0  0
    6.3301    5.0981    0.0000 C   0  0  0  0  0  0  0  0  0  0  0  0
    2.8660   -0.9019    0.0000 C   0  0  0  0  0  0  0  0  0  0  0  0
    2.0000    0.5981    0.0000 C   0  0  0  0  0  0  0  0  0  0  0  0
    9.7942    0.0981    0.0000 C   0  0  0  0  0  0  0  0  0  0  0  0
   10.6603    0.5981    0.0000 C   0  0  0  0  0  0  0  0  0  0  0  0
    2.0000   -0.4019    0.0000 C   0  0  0  0  0  0  0  0  0  0  0  0
    5.4641    5.5981    0.0000 C   0  0  0  0  0  0  0  0  0  0  0  0
    4.5981    4.0981    0.0000 C   0  0  0  0  0  0  0  0  0  0  0  0
   12.1901    1.0981    0.0000 C   0  0  0  0  0  0  0  0  0  0  0  0
    4.5981    5.0981    0.0000 C   0  0  0  0  0  0  0  0  0  0  0  0
    5.4641   -3.8660    0.0000 C   0  0  0  0  0  0  0  0  0  0  0  0
    4.4641   -3.8660    0.0000 C   0  0  0  0  0  0  0  0  0  0  0  0
    5.9641   -4.7320    0.0000 C   0  0  0  0  0  0  0  0  0  0  0  0
    3.9641   -4.7320    0.0000 C   0  0  0  0  0  0  0  0  0  0  0  0
    5.4641   -5.5981    0.0000 C   0  0  0  0  0  0  0  0  0  0  0  0
    3.9642   -3.0000    0.0000 C   0  0  0  0  0  0  0  0  0  0  0  0
    6.9641   -4.7320    0.0000 C   0  0  0  0  0  0  0  0  0  0  0  0
    4.4641   -5.5981    0.0000 C   0  0  0  0  0  0  0  0  0  0  0  0
   13.6901    0.2321    0.0000 C   0  0  0  0  0  0  0  0  0  0  0  0
   14.6901    0.2321    0.0000 C   0  0  0  0  0  0  0  0  0  0  0  0
   16.1901   -0.6340    0.0000 C   0  0  0  0  0  0  0  0  0  0  0  0
   16.6901   -1.5000    0.0000 C   0  0  0  0  0  0  0  0  0  0  0  0
   16.6901    0.2321    0.0000 C   0  0  0  0  0  0  0  0  0  0  0  0
   17.6901   -1.5000    0.0000 C   0  0  0  0  0  0  0  0  0  0  0  0
   17.6901    0.2321    0.0000 C   0  0  0  0  0  0  0  0  0  0  0  0
   16.1901   -2.3660    0.0000 C   0  0  0  0  0  0  0  0  0  0  0  0
   16.1901    1.0981    0.0000 C   0  0  0  0  0  0  0  0  0  0  0  0
   18.1901   -0.6340    0.0000 C   0  0  0  0  0  0  0  0  0  0  0  0
    6.0010    0.2881    0.0000 H   0  0  0  0  0  0  0  0  0  0  0  0
    6.8671    1.4081    0.0000 H   0  0  0  0  0  0  0  0  0  0  0  0
    6.1181    2.6807    0.0000 H   0  0  0  0  0  0  0  0  0  0  0  0
    5.7196    1.9904    0.0000 H   0  0  0  0  0  0  0  0  0  0  0  0
    4.9966    1.5730    0.0000 H   0  0  0  0  0  0  0  0  0  0  0  0
    4.1996    1.5730    0.0000 H   0  0  0  0  0  0  0  0  0  0  0  0
    4.9272   -0.7119    0.0000 H   0  0  0  0  0  0  0  0  0  0  0  0
    7.8067    3.4904    0.0000 H   0  0  0  0  0  0  0  0  0  0  0  0
    7.4082    4.1807    0.0000 H   0  0  0  0  0  0  0  0  0  0  0  0
    7.5062    0.0612    0.0000 H   0  0  0  0  0  0  0  0  0  0  0  0
    4.2690   -0.7119    0.0000 H   0  0  0  0  0  0  0  0  0  0  0  0
    2.8660    1.7181    0.0000 H   0  0  0  0  0  0  0  0  0  0  0  0
    9.7942    2.7181    0.0000 H   0  0  0  0  0  0  0  0  0  0  0  0
    8.3913    0.2881    0.0000 H   0  0  0  0  0  0  0  0  0  0  0  0
    4.9892   -1.7354    0.0000 H   0  0  0  0  0  0  0  0  0  0  0  0
    4.9892   -2.5325    0.0000 H   0  0  0  0  0  0  0  0  0  0  0  0
    6.8671    5.4081    0.0000 H   0  0  0  0  0  0  0  0  0  0  0  0
    2.8660   -1.5219    0.0000 H   0  0  0  0  0  0  0  0  0  0  0  0
    1.4631    0.9081    0.0000 H   0  0  0  0  0  0  0  0  0  0  0  0
    9.7942   -0.5219    0.0000 H   0  0  0  0  0  0  0  0  0  0  0  0
    1.4631   -0.7119    0.0000 H   0  0  0  0  0  0  0  0  0  0  0  0
    5.4641    6.2181    0.0000 H   0  0  0  0  0  0  0  0  0  0  0  0
    4.0611    3.7881    0.0000 H   0  0  0  0  0  0  0  0  0  0  0  0
    4.0611    5.4081    0.0000 H   0  0  0  0  0  0  0  0  0  0  0  0
   13.5001    1.6350    0.0000 H   0  0  0  0  0  0  0  0  0  0  0  0
    3.3441   -4.7320    0.0000 H   0  0  0  0  0  0  0  0  0  0  0  0
    5.7741   -6.1350    0.0000 H   0  0  0  0  0  0  0  0  0  0  0  0
    4.5011   -2.6901    0.0000 H   0  0  0  0  0  0  0  0  0  0  0  0
    3.6542   -2.4631    0.0000 H   0  0  0  0  0  0  0  0  0  0  0  0
    3.4272   -3.3100    0.0000 H   0  0  0  0  0  0  0  0  0  0  0  0
    6.9641   -5.3520    0.0000 H   0  0  0  0  0  0  0  0  0  0  0  0
    7.5841   -4.7320    0.0000 H   0  0  0  0  0  0  0  0  0  0  0  0
    6.9641   -4.1120    0.0000 H   0  0  0  0  0  0  0  0  0  0  0  0
    4.1541   -6.1350    0.0000 H   0  0  0  0  0  0  0  0  0  0  0  0
   15.2727    0.4441    0.0000 H   0  0  0  0  0  0  0  0  0  0  0  0
   14.5824    0.8426    0.0000 H   0  0  0  0  0  0  0  0  0  0  0  0
   18.0001   -2.0369    0.0000 H   0  0  0  0  0  0  0  0  0  0  0  0
   18.0001    0.7690    0.0000 H   0  0  0  0  0  0  0  0  0  0  0  0
   15.6531   -2.0560    0.0000 H   0  0  0  0  0  0  0  0  0  0  0  0
   15.8801   -2.9030    0.0000 H   0  0  0  0  0  0  0  0  0  0  0  0
   16.7270   -2.6760    0.0000 H   0  0  0  0  0  0  0  0  0  0  0  0
   16.7270    1.4081    0.0000 H   0  0  0  0  0  0  0  0  0  0  0  0
   15.8801    1.6350    0.0000 H   0  0  0  0  0  0  0  0  0  0  0  0
   15.6531    0.7881    0.0000 H   0  0  0  0  0  0  0  0  0  0  0  0
   18.8101   -0.6340    0.0000 H   0  0  0  0  0  0  0  0  0  0  0  0
  1  4  2  0  0  0  0
  1  5  2  0  0  0  0
  1 10  1  0  0  0  0
  1 21  1  0  0  0  0
  2 29  1  0  0  0  0
  2 38  1  0  0  0  0
 16  3  1  1  0  0  0
  3 67  1  0  0  0  0
  6 22  2  0  0  0  0
  7 28  1  0  0  0  0
  7 40  1  0  0  0  0
  8 49  1  0  0  0  0
  8 50  1  0  0  0  0
  9 48  2  0  0  0  0
 10 17  1  0  0  0  0
 10 19  1  0  0  0  0
 15 11  1  1  0  0  0
 11 22  1  0  0  0  0
 11 64  1  0  0  0  0
 12 23  1  0  0  0  0
 12 37  2  0  0  0  0
 13 34  1  0  0  0  0
 13 38  2  0  0  0  0
 14 38  1  0  0  0  0
 14 48  1  0  0  0  0
 14 82  1  0  0  0  0
 15 16  1  0  0  0  0
 15 18  1  0  0  0  0
 15 58  1  0  0  0  0
 16 17  1  0  0  0  0
 16 59  1  0  0  0  0
 17 60  1  0  0  0  0
 17 61  1  0  0  0  0
 18 20  1  0  0  0  0
 18 62  1  0  0  0  0
 18 63  1  0  0  0  0
 19 23  1  0  0  0  0
 19 65  1  0  0  0  0
 19 66  1  0  0  0  0
 20 24  2  0  0  0  0
 20 25  1  0  0  0  0
 21 26  2  0  0  0  0
 21 27  1  0  0  0  0
 22 28  1  0  0  0  0
 23 30  2  0  0  0  0
 24 31  1  0  0  0  0
 24 68  1  0  0  0  0
 25 32  2  0  0  0  0
 25 69  1  0  0  0  0
 26 29  1  0  0  0  0
 26 70  1  0  0  0  0
 27 33  2  0  0  0  0
 27 71  1  0  0  0  0
 28 72  1  0  0  0  0
 28 73  1  0  0  0  0
 29 34  2  0  0  0  0
 30 36  1  0  0  0  0
 30 74  1  0  0  0  0
 31 35  2  0  0  0  0
 31 75  1  0  0  0  0
 32 35  1  0  0  0  0
 32 76  1  0  0  0  0
 33 34  1  0  0  0  0
 33 77  1  0  0  0  0
 35 78  1  0  0  0  0
 36 39  2  0  0  0  0
 36 79  1  0  0  0  0
 37 39  1  0  0  0  0
 37 80  1  0  0  0  0
 39 81  1  0  0  0  0
 40 41  2  0  0  0  0
 40 42  1  0  0  0  0
 41 43  1  0  0  0  0
 41 45  1  0  0  0  0
 42 44  2  0  0  0  0
 42 46  1  0  0  0  0
 43 47  2  0  0  0  0
 43 83  1  0  0  0  0
 44 47  1  0  0  0  0
 44 84  1  0  0  0  0
 45 85  1  0  0  0  0
 45 86  1  0  0  0  0
 45 87  1  0  0  0  0
 46 88  1  0  0  0  0
 46 89  1  0  0  0  0
 46 90  1  0  0  0  0
 47 91  1  0  0  0  0
 48 49  1  0  0  0  0
 49 92  1  0  0  0  0
 49 93  1  0  0  0  0
 50 51  2  0  0  0  0
 50 52  1  0  0  0  0
 51 53  1  0  0  0  0
 51 55  1  0  0  0  0
 52 54  2  0  0  0  0
 52 56  1  0  0  0  0
 53 57  2  0  0  0  0
 53 94  1  0  0  0  0
 54 57  1  0  0  0  0
 54 95  1  0  0  0  0
 55 96  1  0  0  0  0
 55 97  1  0  0  0  0
 55 98  1  0  0  0  0
 56 99  1  0  0  0  0
 56100  1  0  0  0  0
 56101  1  0  0  0  0
 57102  1  0  0  0  0
M  END
> <PUBCHEM_COMPOUND_CID>
509618
> <PUBCHEM_COMPOUND_CANONICALIZED>
1
> <PUBCHEM_CACTVS_COMPLEXITY>
1360
> <PUBCHEM_CACTVS_HBOND_ACCEPTOR>
11
> <PUBCHEM_CACTVS_HBOND_DONOR>
3
> <PUBCHEM_CACTVS_ROTATABLE_BOND>
17
> <PUBCHEM_CACTVS_SUBSKEYS>
AAADcfB/uABgAAAAAAAAAAAAAAAAAWAAAAA8YMGCAAAAAFgB/AAAHgQQSAAADDzh3gY/17LIFgqsAzV3dHLD+LlxKjlJ2Lx8bJiOduLk+Z+XeCjs1xPY6CeQwOAOAAQCAEAIAQAACAQAgBACAAAAAAAAAA==
> <PUBCHEM_IUPAC_OPENEYE_NAME>
2-(2,6-dimethylphenoxy)-N-[6-[[(2R,3S)-3-[[2-(2,6-dimethylphenoxy)acetyl]amino]-2-hydroxy-4-phenyl-butyl]-(2-pyridylmethyl)sulfamoyl]-1,3-benzothiazol-2-yl]acetamide
> <PUBCHEM_IUPAC_CAS_NAME>
2-(2,6-dimethylphenoxy)-N-[6-[[(2R,3S)-3-[[2-(2,6-dimethylphenoxy)-1-oxoethyl]amino]-2-hydroxy-4-phenylbutyl]-(2-pyridinylmethyl)sulfamoyl]-1,3-benzothiazol-2-yl]acetamide
> <PUBCHEM_IUPAC_NAME_MARKUP>
2-(2,6-dimethylphenoxy)-<I>N</I>-[6-[[(2<I>R</I>,3<I>S</I>)-3-[[2-(2,6-dimethylphenoxy)acetyl]amino]-2-hydroxy-4-phenylbutyl]-(pyridin-2-ylmethyl)sulfamoyl]-1,3-benzothiazol-2-yl]acetamide
> <PUBCHEM_IUPAC_NAME>
2-(2,6-dimethylphenoxy)-N-[6-[[(2R,3S)-3-[[2-(2,6-dimethylphenoxy)acetyl]amino]-2-hydroxy-4-phenylbutyl]-(pyridin-2-ylmethyl)sulfamoyl]-1,3-benzothiazol-2-yl]acetamide
> <PUBCHEM_IUPAC_SYSTEMATIC_NAME>
2-(2,6-dimethylphenoxy)-N-[6-[[(2R,3S)-3-[2-(2,6-dimethylphenoxy)ethanoylamino]-2-oxidanyl-4-phenyl-butyl]-(pyridin-2-ylmethyl)sulfamoyl]-1,3-benzothiazol-2-yl]ethanamide
> <PUBCHEM_IUPAC_TRADITIONAL_NAME>
2-(2,6-dimethylphenoxy)-N-[6-[[(2R,3S)-3-[[2-(2,6-dimethylphenoxy)acetyl]amino]-2-hydroxy-4-phenyl-butyl]-(2-pyridylmethyl)sulfamoyl]-1,3-benzothiazol-2-yl]acetamide
> <PUBCHEM_IUPAC_INCHI>
InChI=1S/C43H45N5O7S2/c1-28-12-10-13-29(2)41(28)54-26-39(50)45-36(22-32-16-6-5-7-17-32)37(49)25-48(24-33-18-8-9-21-44-33)57(52,53)34-19-20-35-38(23-34)56-43(46-35)47-40(51)27-55-42-30(3)14-11-15-31(42)4/h5-21,23,36-37,49H,22,24-27H2,1-4H3,(H,45,50)(H,46,47,51)/t36-,37+/m0/s1
> <PUBCHEM_IUPAC_INCHIKEY>
NTGVRWHKXYTRFK-PQQNNWGCSA-N
> <PUBCHEM_XLOGP3_AA>
7.1
> <PUBCHEM_EXACT_MASS>
807.27604114
> <PUBCHEM_MOLECULAR_FORMULA>
C43H45N5O7S2
> <PUBCHEM_MOLECULAR_WEIGHT>
808.0
> <PUBCHEM_OPENEYE_CAN_SMILES>
CC1=C(C(=CC=C1)C)OCC(=O)NC2=NC3=C(S2)C=C(C=C3)S(=O)(=O)N(CC4=CC=CC=N4)CC(C(CC5=CC=CC=C5)NC(=O)COC6=C(C=CC=C6C)C)O
> <PUBCHEM_OPENEYE_ISO_SMILES>
CC1=C(C(=CC=C1)C)OCC(=O)NC2=NC3=C(S2)C=C(C=C3)S(=O)(=O)N(CC4=CC=CC=N4)C[C@H]([C@H](CC5=CC=CC=C5)NC(=O)COC6=C(C=CC=C6C)C)O
> <PUBCHEM_CACTVS_TPSA>
197
> <PUBCHEM_MONOISOTOPIC_WEIGHT>
807.27604114
> <PUBCHEM_TOTAL_CHARGE>
0
> <PUBCHEM_HEAVY_ATOM_COUNT>
57
> <PUBCHEM_ATOM_DEF_STEREO_COUNT>
2
> <PUBCHEM_ATOM_UDEF_STEREO_COUNT>
0
> <PUBCHEM_BOND_DEF_STEREO_COUNT>
0
> <PUBCHEM_BOND_UDEF_STEREO_COUNT>
0
> <PUBCHEM_ISOTOPIC_ATOM_COUNT>
0
> <PUBCHEM_COMPONENT_COUNT>
1
> <PUBCHEM_CACTVS_TAUTO_COUNT>
-1
> <PUBCHEM_COORDINATE_TYPE>
1
5
255
> <PUBCHEM_BONDANNOTATIONS>
15  11  5
12  23  8
12  37  8
13  34  8
13  38  8
2  29  8
2  38  8
20  24  8
20  25  8
21  26  8
21  27  8
23  30  8
24  31  8
25  32  8
26  29  8
27  33  8
29  34  8
16  3  5
30  36  8
31  35  8
32  35  8
33  34  8
36  39  8
37  39  8
40  41  8
40  42  8
41  43  8
42  44  8
43  47  8
44  47  8
50  51  8
50  52  8
51  53  8
52  54  8
53  57  8
54  57  8
$$$$
