509604
  -OEChem-10302200282D
 91 95  0     1  0  0  0  0  0999 V2000
    9.3056   -0.7615    0.0000 S   0  0  0  0  0  0  0  0  0  0  0  0
   12.8499   -0.9568    0.0000 S   0  0  0  0  0  0  0  0  0  0  0  0
    4.6095    3.7774    0.0000 O   0  0  0  0  0  0  0  0  0  0  0  0
    2.8037    4.3596    0.0000 O   0  0  0  0  0  0  0  0  0  0  0  0
    4.1095    1.2385    0.0000 O   0  0  0  0  0  0  0  0  0  0  0  0
    6.7075    0.7385    0.0000 O   0  0  0  0  0  0  0  0  0  0  0  0
    5.8415    1.2385    0.0000 O   0  0  0  0  0  0  0  0  0  0  0  0
    8.8056   -1.6275    0.0000 O   0  0  0  0  0  0  0  0  0  0  0  0
    9.8056    0.1045    0.0000 O   0  0  0  0  0  0  0  0  0  0  0  0
    4.9755   -0.2615    0.0000 N   0  0  0  0  0  0  0  0  0  0  0  0
    8.4396   -0.2615    0.0000 N   0  0  3  0  0  0  0  0  0  0  0  0
   12.8499   -2.5662    0.0000 N   0  0  0  0  0  0  0  0  0  0  0  0
   14.4335   -1.7615    0.0000 N   0  0  0  0  0  0  0  0  0  0  0  0
   16.4335   -3.4935    0.0000 N   0  0  0  0  0  0  0  0  0  0  0  0
    3.3004    2.8263    0.0000 C   0  0  2  0  0  0  0  0  0  0  0  0
    3.6095    3.7774    0.0000 C   0  0  1  0  0  0  0  0  0  0  0  0
    4.1095    2.2385    0.0000 C   0  0  2  0  0  0  0  0  0  0  0  0
    2.3064    2.8289    0.0000 C   0  0  0  0  0  0  0  0  0  0  0  0
    4.9185    2.8263    0.0000 C   0  0  0  0  0  0  0  0  0  0  0  0
    2.0000    3.7746    0.0000 C   0  0  0  0  0  0  0  0  0  0  0  0
    5.8415   -0.7615    0.0000 C   0  0  2  0  0  0  0  0  0  0  0  0
    4.9755    0.7385    0.0000 C   0  0  0  0  0  0  0  0  0  0  0  0
    6.7075   -0.2615    0.0000 C   0  0  1  0  0  0  0  0  0  0  0  0
    7.5736   -0.7615    0.0000 C   0  0  0  0  0  0  0  0  0  0  0  0
    5.8415   -1.7615    0.0000 C   0  0  0  0  0  0  0  0  0  0  0  0
    8.4396    0.7385    0.0000 C   0  0  0  0  0  0  0  0  0  0  0  0
    9.3056    1.2385    0.0000 C   0  0  0  0  0  0  0  0  0  0  0  0
    4.9755   -2.2615    0.0000 C   0  0  0  0  0  0  0  0  0  0  0  0
   10.1716   -1.2615    0.0000 C   0  0  0  0  0  0  0  0  0  0  0  0
    9.3056    2.2385    0.0000 C   0  0  0  0  0  0  0  0  0  0  0  0
   10.1716    0.7385    0.0000 C   0  0  0  0  0  0  0  0  0  0  0  0
    4.1095   -1.7615    0.0000 C   0  0  0  0  0  0  0  0  0  0  0  0
    4.9755   -3.2615    0.0000 C   0  0  0  0  0  0  0  0  0  0  0  0
   11.0377   -0.7615    0.0000 C   0  0  0  0  0  0  0  0  0  0  0  0
   10.1716   -2.2615    0.0000 C   0  0  0  0  0  0  0  0  0  0  0  0
   11.9037   -1.2615    0.0000 C   0  0  0  0  0  0  0  0  0  0  0  0
    3.2434   -2.2615    0.0000 C   0  0  0  0  0  0  0  0  0  0  0  0
    4.1095   -3.7615    0.0000 C   0  0  0  0  0  0  0  0  0  0  0  0
   11.0377   -2.7615    0.0000 C   0  0  0  0  0  0  0  0  0  0  0  0
   11.9037   -2.2615    0.0000 C   0  0  0  0  0  0  0  0  0  0  0  0
    3.2434   -3.2615    0.0000 C   0  0  0  0  0  0  0  0  0  0  0  0
   13.4335   -1.7615    0.0000 C   0  0  0  0  0  0  0  0  0  0  0  0
   14.9335   -2.6275    0.0000 C   0  0  0  0  0  0  0  0  0  0  0  0
   15.9335   -2.6275    0.0000 C   0  0  0  0  0  0  0  0  0  0  0  0
   17.4335   -3.4935    0.0000 C   0  0  0  0  0  0  0  0  0  0  0  0
   15.9335   -4.3596    0.0000 C   0  0  0  0  0  0  0  0  0  0  0  0
    3.0367    2.0182    0.0000 H   0  0  0  0  0  0  0  0  0  0  0  0
    3.8711    4.5861    0.0000 H   0  0  0  0  0  0  0  0  0  0  0  0
    3.5570    1.9570    0.0000 H   0  0  0  0  0  0  0  0  0  0  0  0
    1.6997    2.7008    0.0000 H   0  0  0  0  0  0  0  0  0  0  0  0
    2.3699    2.2121    0.0000 H   0  0  0  0  0  0  0  0  0  0  0  0
    5.2285    2.2894    0.0000 H   0  0  0  0  0  0  0  0  0  0  0  0
    5.4849    3.0785    0.0000 H   0  0  0  0  0  0  0  0  0  0  0  0
    1.6898    4.3114    0.0000 H   0  0  0  0  0  0  0  0  0  0  0  0
    1.4335    3.5226    0.0000 H   0  0  0  0  0  0  0  0  0  0  0  0
    5.8415   -0.1415    0.0000 H   0  0  0  0  0  0  0  0  0  0  0  0
    7.2445    0.0485    0.0000 H   0  0  0  0  0  0  0  0  0  0  0  0
    4.4386   -0.5715    0.0000 H   0  0  0  0  0  0  0  0  0  0  0  0
    7.1750   -1.2364    0.0000 H   0  0  0  0  0  0  0  0  0  0  0  0
    7.9721   -1.2364    0.0000 H   0  0  0  0  0  0  0  0  0  0  0  0
    6.0536   -2.3441    0.0000 H   0  0  0  0  0  0  0  0  0  0  0  0
    6.4521   -1.6538    0.0000 H   0  0  0  0  0  0  0  0  0  0  0  0
    8.2275    1.3211    0.0000 H   0  0  0  0  0  0  0  0  0  0  0  0
    7.8290    0.6308    0.0000 H   0  0  0  0  0  0  0  0  0  0  0  0
    8.7687    1.5485    0.0000 H   0  0  0  0  0  0  0  0  0  0  0  0
    7.2445    1.0485    0.0000 H   0  0  0  0  0  0  0  0  0  0  0  0
    9.9256    2.2385    0.0000 H   0  0  0  0  0  0  0  0  0  0  0  0
    9.3056    2.8585    0.0000 H   0  0  0  0  0  0  0  0  0  0  0  0
    8.6856    2.2385    0.0000 H   0  0  0  0  0  0  0  0  0  0  0  0
    9.8616    0.2016    0.0000 H   0  0  0  0  0  0  0  0  0  0  0  0
   10.7086    0.4285    0.0000 H   0  0  0  0  0  0  0  0  0  0  0  0
   10.4816    1.2754    0.0000 H   0  0  0  0  0  0  0  0  0  0  0  0
    4.1095   -1.1415    0.0000 H   0  0  0  0  0  0  0  0  0  0  0  0
    5.5124   -3.5715    0.0000 H   0  0  0  0  0  0  0  0  0  0  0  0
   11.0377   -0.1415    0.0000 H   0  0  0  0  0  0  0  0  0  0  0  0
    9.6347   -2.5715    0.0000 H   0  0  0  0  0  0  0  0  0  0  0  0
    2.7065   -1.9515    0.0000 H   0  0  0  0  0  0  0  0  0  0  0  0
    4.1095   -4.3815    0.0000 H   0  0  0  0  0  0  0  0  0  0  0  0
   11.0377   -3.3815    0.0000 H   0  0  0  0  0  0  0  0  0  0  0  0
    2.7065   -3.5715    0.0000 H   0  0  0  0  0  0  0  0  0  0  0  0
   14.7435   -1.2246    0.0000 H   0  0  0  0  0  0  0  0  0  0  0  0
   14.3509   -2.8396    0.0000 H   0  0  0  0  0  0  0  0  0  0  0  0
   15.0412   -3.2381    0.0000 H   0  0  0  0  0  0  0  0  0  0  0  0
   16.5161   -2.4155    0.0000 H   0  0  0  0  0  0  0  0  0  0  0  0
   15.8259   -2.0169    0.0000 H   0  0  0  0  0  0  0  0  0  0  0  0
   17.4335   -4.1135    0.0000 H   0  0  0  0  0  0  0  0  0  0  0  0
   18.0535   -3.4935    0.0000 H   0  0  0  0  0  0  0  0  0  0  0  0
   17.4335   -2.8735    0.0000 H   0  0  0  0  0  0  0  0  0  0  0  0
   15.3966   -4.0496    0.0000 H   0  0  0  0  0  0  0  0  0  0  0  0
   15.6235   -4.8965    0.0000 H   0  0  0  0  0  0  0  0  0  0  0  0
   16.4705   -4.6696    0.0000 H   0  0  0  0  0  0  0  0  0  0  0  0
  1  8  2  0  0  0  0
  1  9  2  0  0  0  0
  1 11  1  0  0  0  0
  1 29  1  0  0  0  0
  2 36  1  0  0  0  0
  2 42  1  0  0  0  0
  3 16  1  0  0  0  0
  3 19  1  0  0  0  0
  4 16  1  0  0  0  0
  4 20  1  0  0  0  0
 17  5  1  6  0  0  0
  5 22  1  0  0  0  0
 23  6  1  6  0  0  0
  6 66  1  0  0  0  0
  7 22  2  0  0  0  0
 21 10  1  6  0  0  0
 10 22  1  0  0  0  0
 10 58  1  0  0  0  0
 11 24  1  0  0  0  0
 11 26  1  0  0  0  0
 12 40  1  0  0  0  0
 12 42  2  0  0  0  0
 13 42  1  0  0  0  0
 13 43  1  0  0  0  0
 13 81  1  0  0  0  0
 14 44  1  0  0  0  0
 14 45  1  0  0  0  0
 14 46  1  0  0  0  0
 15 16  1  0  0  0  0
 15 17  1  0  0  0  0
 15 18  1  0  0  0  0
 15 47  1  1  0  0  0
 16 48  1  1  0  0  0
 17 19  1  0  0  0  0
 17 49  1  0  0  0  0
 18 20  1  0  0  0  0
 18 50  1  0  0  0  0
 18 51  1  0  0  0  0
 19 52  1  0  0  0  0
 19 53  1  0  0  0  0
 20 54  1  0  0  0  0
 20 55  1  0  0  0  0
 21 23  1  0  0  0  0
 21 25  1  0  0  0  0
 21 56  1  0  0  0  0
 23 24  1  0  0  0  0
 23 57  1  0  0  0  0
 24 59  1  0  0  0  0
 24 60  1  0  0  0  0
 25 28  1  0  0  0  0
 25 61  1  0  0  0  0
 25 62  1  0  0  0  0
 26 27  1  0  0  0  0
 26 63  1  0  0  0  0
 26 64  1  0  0  0  0
 27 30  1  0  0  0  0
 27 31  1  0  0  0  0
 27 65  1  0  0  0  0
 28 32  2  0  0  0  0
 28 33  1  0  0  0  0
 29 34  2  0  0  0  0
 29 35  1  0  0  0  0
 30 67  1  0  0  0  0
 30 68  1  0  0  0  0
 30 69  1  0  0  0  0
 31 70  1  0  0  0  0
 31 71  1  0  0  0  0
 31 72  1  0  0  0  0
 32 37  1  0  0  0  0
 32 73  1  0  0  0  0
 33 38  2  0  0  0  0
 33 74  1  0  0  0  0
 34 36  1  0  0  0  0
 34 75  1  0  0  0  0
 35 39  2  0  0  0  0
 35 76  1  0  0  0  0
 36 40  2  0  0  0  0
 37 41  2  0  0  0  0
 37 77  1  0  0  0  0
 38 41  1  0  0  0  0
 38 78  1  0  0  0  0
 39 40  1  0  0  0  0
 39 79  1  0  0  0  0
 41 80  1  0  0  0  0
 43 44  1  0  0  0  0
 43 82  1  0  0  0  0
 43 83  1  0  0  0  0
 44 84  1  0  0  0  0
 44 85  1  0  0  0  0
 45 86  1  0  0  0  0
 45 87  1  0  0  0  0
 45 88  1  0  0  0  0
 46 89  1  0  0  0  0
 46 90  1  0  0  0  0
 46 91  1  0  0  0  0
M  END
> <PUBCHEM_COMPOUND_CID>
509604
> <PUBCHEM_COMPOUND_CANONICALIZED>
1
> <PUBCHEM_CACTVS_COMPLEXITY>
1070
> <PUBCHEM_CACTVS_HBOND_ACCEPTOR>
12
> <PUBCHEM_CACTVS_HBOND_DONOR>
3
> <PUBCHEM_CACTVS_ROTATABLE_BOND>
16
> <PUBCHEM_CACTVS_SUBSKEYS>
AAADcfB/uABgAAAAAAAAAAAAAAAAAWJEgAAwYAAAAAASAFgB9AAAHgQQSAAADTzx3gcz2bPIFgqsAyRifHDD8LlhCjlJmLw4ZJmbcKLg2ZG+YAhtlgLeyCfQ4KgOAAQAAEAAAQAACAAAgAACAAAAAAAAAA==
> <PUBCHEM_IUPAC_OPENEYE_NAME>
[(3aS,4R,6aR)-2,3,3a,4,5,6a-hexahydrofuro[2,3-b]furan-4-yl] N-[(1S,2R)-1-benzyl-3-[[2-[2-(dimethylamino)ethylamino]-1,3-benzothiazol-6-yl]sulfonyl-isobutyl-amino]-2-hydroxy-propyl]carbamate
> <PUBCHEM_IUPAC_CAS_NAME>
N-[(2S,3R)-4-[[2-[2-(dimethylamino)ethylamino]-1,3-benzothiazol-6-yl]sulfonyl-(2-methylpropyl)amino]-3-hydroxy-1-phenylbutan-2-yl]carbamic acid [(3aS,4R,6aR)-2,3,3a,4,5,6a-hexahydrofuro[2,3-b]furan-4-yl] ester
> <PUBCHEM_IUPAC_NAME_MARKUP>
[(3<I>a</I><I>S</I>,4<I>R</I>,6<I>a</I><I>R</I>)-2,3,3<I>a</I>,4,5,6<I>a</I>-hexahydrofuro[2,3-b]furan-4-yl] <I>N</I>-[(2<I>S</I>,3<I>R</I>)-4-[[2-[2-(dimethylamino)ethylamino]-1,3-benzothiazol-6-yl]sulfonyl-(2-methylpropyl)amino]-3-hydroxy-1-phenylbutan-2-yl]carbamate
> <PUBCHEM_IUPAC_NAME>
[(3aS,4R,6aR)-2,3,3a,4,5,6a-hexahydrofuro[2,3-b]furan-4-yl] N-[(2S,3R)-4-[[2-[2-(dimethylamino)ethylamino]-1,3-benzothiazol-6-yl]sulfonyl-(2-methylpropyl)amino]-3-hydroxy-1-phenylbutan-2-yl]carbamate
> <PUBCHEM_IUPAC_SYSTEMATIC_NAME>
[(3aS,4R,6aR)-2,3,3a,4,5,6a-hexahydrofuro[2,3-b]furan-4-yl] N-[(2S,3R)-4-[[2-[2-(dimethylamino)ethylamino]-1,3-benzothiazol-6-yl]sulfonyl-(2-methylpropyl)amino]-3-oxidanyl-1-phenyl-butan-2-yl]carbamate
> <PUBCHEM_IUPAC_TRADITIONAL_NAME>
N-[(1S,2R)-1-benzyl-3-[[2-[2-(dimethylamino)ethylamino]-1,3-benzothiazol-6-yl]sulfonyl-isobutyl-amino]-2-hydroxy-propyl]carbamic acid [(3aS,4R,6aR)-2,3,3a,4,5,6a-hexahydrofuro[2,3-b]furan-4-yl] ester
> <PUBCHEM_IUPAC_INCHI>
InChI=1S/C32H45N5O7S2/c1-21(2)18-37(46(40,41)23-10-11-25-29(17-23)45-31(34-25)33-13-14-36(3)4)19-27(38)26(16-22-8-6-5-7-9-22)35-32(39)44-28-20-43-30-24(28)12-15-42-30/h5-11,17,21,24,26-28,30,38H,12-16,18-20H2,1-4H3,(H,33,34)(H,35,39)/t24-,26-,27+,28-,30+/m0/s1
> <PUBCHEM_IUPAC_INCHIKEY>
BIPRNLSSLKASRT-JMLJTDODSA-N
> <PUBCHEM_XLOGP3_AA>
4.4
> <PUBCHEM_EXACT_MASS>
675.27604114
> <PUBCHEM_MOLECULAR_FORMULA>
C32H45N5O7S2
> <PUBCHEM_MOLECULAR_WEIGHT>
675.9
> <PUBCHEM_OPENEYE_CAN_SMILES>
CC(C)CN(CC(C(CC1=CC=CC=C1)NC(=O)OC2COC3C2CCO3)O)S(=O)(=O)C4=CC5=C(C=C4)N=C(S5)NCCN(C)C
> <PUBCHEM_OPENEYE_ISO_SMILES>
CC(C)CN(C[C@H]([C@H](CC1=CC=CC=C1)NC(=O)O[C@H]2CO[C@@H]3[C@H]2CCO3)O)S(=O)(=O)C4=CC5=C(C=C4)N=C(S5)NCCN(C)C
> <PUBCHEM_CACTVS_TPSA>
179
> <PUBCHEM_MONOISOTOPIC_WEIGHT>
675.27604114
> <PUBCHEM_TOTAL_CHARGE>
0
> <PUBCHEM_HEAVY_ATOM_COUNT>
46
> <PUBCHEM_ATOM_DEF_STEREO_COUNT>
5
> <PUBCHEM_ATOM_UDEF_STEREO_COUNT>
0
> <PUBCHEM_BOND_DEF_STEREO_COUNT>
0
> <PUBCHEM_BOND_UDEF_STEREO_COUNT>
0
> <PUBCHEM_ISOTOPIC_ATOM_COUNT>
0
> <PUBCHEM_COMPONENT_COUNT>
1
> <PUBCHEM_CACTVS_TAUTO_COUNT>
-1
> <PUBCHEM_COORDINATE_TYPE>
1
5
255
> <PUBCHEM_BONDANNOTATIONS>
21  10  6
12  40  8
12  42  8
15  47  5
16  48  5
2  36  8
2  42  8
28  32  8
28  33  8
29  34  8
29  35  8
32  37  8
33  38  8
34  36  8
35  39  8
36  40  8
37  41  8
38  41  8
39  40  8
17  5  6
23  6  6
$$$$
