509690
  -OEChem-10302200282D
 88 91  0     1  0  0  0  0  0999 V2000
    8.1962    0.2321    0.0000 S   0  0  0  0  0  0  0  0  0  0  0  0
   11.7404    0.0368    0.0000 S   0  0  0  0  0  0  0  0  0  0  0  0
    5.5981    1.7320    0.0000 O   0  0  0  0  0  0  0  0  0  0  0  0
    7.6962   -0.6340    0.0000 O   0  0  0  0  0  0  0  0  0  0  0  0
    8.6962    1.0981    0.0000 O   0  0  0  0  0  0  0  0  0  0  0  0
    3.0000    2.2320    0.0000 O   0  0  0  0  0  0  0  0  0  0  0  0
    4.7320    2.2320    0.0000 O   0  0  0  0  0  0  0  0  0  0  0  0
    7.3301    0.7321    0.0000 N   0  0  3  0  0  0  0  0  0  0  0  0
    3.8660    0.7321    0.0000 N   0  0  0  0  0  0  0  0  0  0  0  0
   11.7404   -1.5727    0.0000 N   0  0  0  0  0  0  0  0  0  0  0  0
   13.3241   -0.7679    0.0000 N   0  0  0  0  0  0  0  0  0  0  0  0
   14.8241   -3.3660    0.0000 N   0  0  0  0  0  0  0  0  0  0  0  0
    5.5981    0.7321    0.0000 C   0  0  2  0  0  0  0  0  0  0  0  0
    6.4641    0.2321    0.0000 C   0  0  0  0  0  0  0  0  0  0  0  0
    4.7320    0.2321    0.0000 C   0  0  2  0  0  0  0  0  0  0  0  0
    7.3301    1.7320    0.0000 C   0  0  0  0  0  0  0  0  0  0  0  0
    8.1962    2.2320    0.0000 C   0  0  0  0  0  0  0  0  0  0  0  0
    4.7320   -0.7679    0.0000 C   0  0  0  0  0  0  0  0  0  0  0  0
    9.0622   -0.2679    0.0000 C   0  0  0  0  0  0  0  0  0  0  0  0
    3.8660   -1.2680    0.0000 C   0  0  0  0  0  0  0  0  0  0  0  0
    8.1962    3.2320    0.0000 C   0  0  0  0  0  0  0  0  0  0  0  0
    9.0622    1.7320    0.0000 C   0  0  0  0  0  0  0  0  0  0  0  0
    3.8660    1.7320    0.0000 C   0  0  0  0  0  0  0  0  0  0  0  0
    9.9282    0.2321    0.0000 C   0  0  0  0  0  0  0  0  0  0  0  0
    9.0622   -1.2680    0.0000 C   0  0  0  0  0  0  0  0  0  0  0  0
    3.8660   -2.2680    0.0000 C   0  0  0  0  0  0  0  0  0  0  0  0
    3.0000   -0.7679    0.0000 C   0  0  0  0  0  0  0  0  0  0  0  0
    3.0000    3.2320    0.0000 C   0  0  0  0  0  0  0  0  0  0  0  0
   10.7942   -0.2679    0.0000 C   0  0  0  0  0  0  0  0  0  0  0  0
    9.9282   -1.7680    0.0000 C   0  0  0  0  0  0  0  0  0  0  0  0
   10.7942   -1.2680    0.0000 C   0  0  0  0  0  0  0  0  0  0  0  0
    3.0000   -2.7680    0.0000 C   0  0  0  0  0  0  0  0  0  0  0  0
    2.1340   -1.2680    0.0000 C   0  0  0  0  0  0  0  0  0  0  0  0
    3.0000    4.2320    0.0000 C   0  0  0  0  0  0  0  0  0  0  0  0
    2.0000    3.2320    0.0000 C   0  0  0  0  0  0  0  0  0  0  0  0
    4.0000    3.2320    0.0000 C   0  0  0  0  0  0  0  0  0  0  0  0
    2.1340   -2.2680    0.0000 C   0  0  0  0  0  0  0  0  0  0  0  0
   12.3241   -0.7679    0.0000 C   0  0  0  0  0  0  0  0  0  0  0  0
   13.8241   -1.6340    0.0000 C   0  0  0  0  0  0  0  0  0  0  0  0
   14.8241   -1.6340    0.0000 C   0  0  0  0  0  0  0  0  0  0  0  0
   15.3241   -2.5000    0.0000 C   0  0  0  0  0  0  0  0  0  0  0  0
   16.3241   -2.5000    0.0000 C   0  0  0  0  0  0  0  0  0  0  0  0
   16.8241   -3.3660    0.0000 C   0  0  0  0  0  0  0  0  0  0  0  0
   15.3241   -4.2320    0.0000 C   0  0  0  0  0  0  0  0  0  0  0  0
   16.3241   -4.2320    0.0000 C   0  0  0  0  0  0  0  0  0  0  0  0
    6.1350    1.0420    0.0000 H   0  0  0  0  0  0  0  0  0  0  0  0
    6.0656   -0.2429    0.0000 H   0  0  0  0  0  0  0  0  0  0  0  0
    6.8626   -0.2429    0.0000 H   0  0  0  0  0  0  0  0  0  0  0  0
    4.7320    0.8521    0.0000 H   0  0  0  0  0  0  0  0  0  0  0  0
    7.1181    2.3147    0.0000 H   0  0  0  0  0  0  0  0  0  0  0  0
    6.7196    1.6244    0.0000 H   0  0  0  0  0  0  0  0  0  0  0  0
    8.7331    2.5420    0.0000 H   0  0  0  0  0  0  0  0  0  0  0  0
    4.9441   -1.3506    0.0000 H   0  0  0  0  0  0  0  0  0  0  0  0
    5.3426   -0.6603    0.0000 H   0  0  0  0  0  0  0  0  0  0  0  0
    3.3291    0.4221    0.0000 H   0  0  0  0  0  0  0  0  0  0  0  0
    8.8162    3.2320    0.0000 H   0  0  0  0  0  0  0  0  0  0  0  0
    8.1962    3.8520    0.0000 H   0  0  0  0  0  0  0  0  0  0  0  0
    7.5762    3.2320    0.0000 H   0  0  0  0  0  0  0  0  0  0  0  0
    8.7522    1.1951    0.0000 H   0  0  0  0  0  0  0  0  0  0  0  0
    9.5991    1.4220    0.0000 H   0  0  0  0  0  0  0  0  0  0  0  0
    9.3722    2.2690    0.0000 H   0  0  0  0  0  0  0  0  0  0  0  0
    6.1350    2.0420    0.0000 H   0  0  0  0  0  0  0  0  0  0  0  0
    9.9282    0.8521    0.0000 H   0  0  0  0  0  0  0  0  0  0  0  0
    8.5252   -1.5780    0.0000 H   0  0  0  0  0  0  0  0  0  0  0  0
    4.4030   -2.5780    0.0000 H   0  0  0  0  0  0  0  0  0  0  0  0
    3.0000   -0.1479    0.0000 H   0  0  0  0  0  0  0  0  0  0  0  0
    9.9282   -2.3880    0.0000 H   0  0  0  0  0  0  0  0  0  0  0  0
    3.0000   -3.3880    0.0000 H   0  0  0  0  0  0  0  0  0  0  0  0
    1.5970   -0.9579    0.0000 H   0  0  0  0  0  0  0  0  0  0  0  0
    3.6200    4.2320    0.0000 H   0  0  0  0  0  0  0  0  0  0  0  0
    3.0000    4.8520    0.0000 H   0  0  0  0  0  0  0  0  0  0  0  0
    2.3800    4.2320    0.0000 H   0  0  0  0  0  0  0  0  0  0  0  0
    2.0000    3.8520    0.0000 H   0  0  0  0  0  0  0  0  0  0  0  0
    1.3800    3.2320    0.0000 H   0  0  0  0  0  0  0  0  0  0  0  0
    2.0000    2.6120    0.0000 H   0  0  0  0  0  0  0  0  0  0  0  0
    4.0000    2.6120    0.0000 H   0  0  0  0  0  0  0  0  0  0  0  0
    4.6200    3.2320    0.0000 H   0  0  0  0  0  0  0  0  0  0  0  0
    4.0000    3.8520    0.0000 H   0  0  0  0  0  0  0  0  0  0  0  0
    1.5970   -2.5780    0.0000 H   0  0  0  0  0  0  0  0  0  0  0  0
   13.6341   -0.2310    0.0000 H   0  0  0  0  0  0  0  0  0  0  0  0
   13.2414   -1.8460    0.0000 H   0  0  0  0  0  0  0  0  0  0  0  0
   13.9317   -2.2446    0.0000 H   0  0  0  0  0  0  0  0  0  0  0  0
   15.4067   -1.4219    0.0000 H   0  0  0  0  0  0  0  0  0  0  0  0
   14.7164   -1.0234    0.0000 H   0  0  0  0  0  0  0  0  0  0  0  0
   16.6341   -1.9631    0.0000 H   0  0  0  0  0  0  0  0  0  0  0  0
   17.4441   -3.3660    0.0000 H   0  0  0  0  0  0  0  0  0  0  0  0
   15.0141   -4.7690    0.0000 H   0  0  0  0  0  0  0  0  0  0  0  0
   16.6341   -4.7690    0.0000 H   0  0  0  0  0  0  0  0  0  0  0  0
  1  4  2  0  0  0  0
  1  5  2  0  0  0  0
  1  8  1  0  0  0  0
  1 19  1  0  0  0  0
  2 29  1  0  0  0  0
  2 38  1  0  0  0  0
 13  3  1  6  0  0  0
  3 62  1  0  0  0  0
  6 23  1  0  0  0  0
  6 28  1  0  0  0  0
  7 23  2  0  0  0  0
  8 14  1  0  0  0  0
  8 16  1  0  0  0  0
 15  9  1  6  0  0  0
  9 23  1  0  0  0  0
  9 55  1  0  0  0  0
 10 31  1  0  0  0  0
 10 38  2  0  0  0  0
 11 38  1  0  0  0  0
 11 39  1  0  0  0  0
 11 80  1  0  0  0  0
 12 41  1  0  0  0  0
 12 44  2  0  0  0  0
 13 14  1  0  0  0  0
 13 15  1  0  0  0  0
 13 46  1  0  0  0  0
 14 47  1  0  0  0  0
 14 48  1  0  0  0  0
 15 18  1  0  0  0  0
 15 49  1  0  0  0  0
 16 17  1  0  0  0  0
 16 50  1  0  0  0  0
 16 51  1  0  0  0  0
 17 21  1  0  0  0  0
 17 22  1  0  0  0  0
 17 52  1  0  0  0  0
 18 20  1  0  0  0  0
 18 53  1  0  0  0  0
 18 54  1  0  0  0  0
 19 24  2  0  0  0  0
 19 25  1  0  0  0  0
 20 26  2  0  0  0  0
 20 27  1  0  0  0  0
 21 56  1  0  0  0  0
 21 57  1  0  0  0  0
 21 58  1  0  0  0  0
 22 59  1  0  0  0  0
 22 60  1  0  0  0  0
 22 61  1  0  0  0  0
 24 29  1  0  0  0  0
 24 63  1  0  0  0  0
 25 30  2  0  0  0  0
 25 64  1  0  0  0  0
 26 32  1  0  0  0  0
 26 65  1  0  0  0  0
 27 33  2  0  0  0  0
 27 66  1  0  0  0  0
 28 34  1  0  0  0  0
 28 35  1  0  0  0  0
 28 36  1  0  0  0  0
 29 31  2  0  0  0  0
 30 31  1  0  0  0  0
 30 67  1  0  0  0  0
 32 37  2  0  0  0  0
 32 68  1  0  0  0  0
 33 37  1  0  0  0  0
 33 69  1  0  0  0  0
 34 70  1  0  0  0  0
 34 71  1  0  0  0  0
 34 72  1  0  0  0  0
 35 73  1  0  0  0  0
 35 74  1  0  0  0  0
 35 75  1  0  0  0  0
 36 76  1  0  0  0  0
 36 77  1  0  0  0  0
 36 78  1  0  0  0  0
 37 79  1  0  0  0  0
 39 40  1  0  0  0  0
 39 81  1  0  0  0  0
 39 82  1  0  0  0  0
 40 41  1  0  0  0  0
 40 83  1  0  0  0  0
 40 84  1  0  0  0  0
 41 42  2  0  0  0  0
 42 43  1  0  0  0  0
 42 85  1  0  0  0  0
 43 45  2  0  0  0  0
 43 86  1  0  0  0  0
 44 45  1  0  0  0  0
 44 87  1  0  0  0  0
 45 88  1  0  0  0  0
M  END
> <PUBCHEM_COMPOUND_CID>
509690
> <PUBCHEM_COMPOUND_CANONICALIZED>
1
> <PUBCHEM_CACTVS_COMPLEXITY>
1010
> <PUBCHEM_CACTVS_HBOND_ACCEPTOR>
10
> <PUBCHEM_CACTVS_HBOND_DONOR>
3
> <PUBCHEM_CACTVS_ROTATABLE_BOND>
16
> <PUBCHEM_CACTVS_SUBSKEYS>
AAADcfB/uABgAAAAAAAAAAAAAAAAAWAAAAA8YIAAAAAAAFgB/AAAHgQQSAAADXzh3gY/2bLIFgqsAzRnfHDD8LlxCjlJ2Lw4ZJmKMOLg2ZGMYAhslgLYyCeQwKAOAAQAAEAAAQAACAAAgAACAAAAAAAAAA==
> <PUBCHEM_IUPAC_OPENEYE_NAME>
tert-butyl N-[(1S,2R)-1-benzyl-2-hydroxy-3-[isobutyl-[[2-[2-(2-pyridyl)ethylamino]-1,3-benzothiazol-6-yl]sulfonyl]amino]propyl]carbamate
> <PUBCHEM_IUPAC_CAS_NAME>
N-[(2S,3R)-3-hydroxy-4-[2-methylpropyl-[[2-[2-(2-pyridinyl)ethylamino]-1,3-benzothiazol-6-yl]sulfonyl]amino]-1-phenylbutan-2-yl]carbamic acid tert-butyl ester
> <PUBCHEM_IUPAC_NAME_MARKUP>
<I>tert</I>-butyl <I>N</I>-[(2<I>S</I>,3<I>R</I>)-3-hydroxy-4-[2-methylpropyl-[[2-(2-pyridin-2-ylethylamino)-1,3-benzothiazol-6-yl]sulfonyl]amino]-1-phenylbutan-2-yl]carbamate
> <PUBCHEM_IUPAC_NAME>
tert-butyl N-[(2S,3R)-3-hydroxy-4-[2-methylpropyl-[[2-(2-pyridin-2-ylethylamino)-1,3-benzothiazol-6-yl]sulfonyl]amino]-1-phenylbutan-2-yl]carbamate
> <PUBCHEM_IUPAC_SYSTEMATIC_NAME>
tert-butyl N-[(2S,3R)-4-[2-methylpropyl-[[2-(2-pyridin-2-ylethylamino)-1,3-benzothiazol-6-yl]sulfonyl]amino]-3-oxidanyl-1-phenyl-butan-2-yl]carbamate
> <PUBCHEM_IUPAC_TRADITIONAL_NAME>
N-[(1S,2R)-1-benzyl-2-hydroxy-3-[isobutyl-[[2-[2-(2-pyridyl)ethylamino]-1,3-benzothiazol-6-yl]sulfonyl]amino]propyl]carbamic acid tert-butyl ester
> <PUBCHEM_IUPAC_INCHI>
InChI=1S/C33H43N5O5S2/c1-23(2)21-38(22-29(39)28(19-24-11-7-6-8-12-24)37-32(40)43-33(3,4)5)45(41,42)26-14-15-27-30(20-26)44-31(36-27)35-18-16-25-13-9-10-17-34-25/h6-15,17,20,23,28-29,39H,16,18-19,21-22H2,1-5H3,(H,35,36)(H,37,40)/t28-,29+/m0/s1
> <PUBCHEM_IUPAC_INCHIKEY>
LJLNTMVFURRMTK-URLMMPGGSA-N
> <PUBCHEM_XLOGP3_AA>
6.2
> <PUBCHEM_EXACT_MASS>
653.27056184
> <PUBCHEM_MOLECULAR_FORMULA>
C33H43N5O5S2
> <PUBCHEM_MOLECULAR_WEIGHT>
653.9
> <PUBCHEM_OPENEYE_CAN_SMILES>
CC(C)CN(CC(C(CC1=CC=CC=C1)NC(=O)OC(C)(C)C)O)S(=O)(=O)C2=CC3=C(C=C2)N=C(S3)NCCC4=CC=CC=N4
> <PUBCHEM_OPENEYE_ISO_SMILES>
CC(C)CN(C[C@H]([C@H](CC1=CC=CC=C1)NC(=O)OC(C)(C)C)O)S(=O)(=O)C2=CC3=C(C=C2)N=C(S3)NCCC4=CC=CC=N4
> <PUBCHEM_CACTVS_TPSA>
170
> <PUBCHEM_MONOISOTOPIC_WEIGHT>
653.27056184
> <PUBCHEM_TOTAL_CHARGE>
0
> <PUBCHEM_HEAVY_ATOM_COUNT>
45
> <PUBCHEM_ATOM_DEF_STEREO_COUNT>
2
> <PUBCHEM_ATOM_UDEF_STEREO_COUNT>
0
> <PUBCHEM_BOND_DEF_STEREO_COUNT>
0
> <PUBCHEM_BOND_UDEF_STEREO_COUNT>
0
> <PUBCHEM_ISOTOPIC_ATOM_COUNT>
0
> <PUBCHEM_COMPONENT_COUNT>
1
> <PUBCHEM_CACTVS_TAUTO_COUNT>
-1
> <PUBCHEM_COORDINATE_TYPE>
1
5
255
> <PUBCHEM_BONDANNOTATIONS>
10  31  8
10  38  8
12  41  8
12  44  8
19  24  8
19  25  8
2  29  8
2  38  8
20  26  8
20  27  8
24  29  8
25  30  8
26  32  8
27  33  8
29  31  8
13  3  6
30  31  8
32  37  8
33  37  8
41  42  8
42  43  8
43  45  8
44  45  8
15  9  6
$$$$
