509652
  -OEChem-10302200282D
 90 94  0     1  0  0  0  0  0999 V2000
    2.0000    3.9074    0.0000 Br  0  0  0  0  0  0  0  0  0  0  0  0
    9.7942    0.4074    0.0000 S   0  0  0  0  0  0  0  0  0  0  0  0
   13.3385    0.2121    0.0000 S   0  0  0  0  0  0  0  0  0  0  0  0
    7.1962    1.9074    0.0000 O   0  0  0  0  0  0  0  0  0  0  0  0
    9.2942   -0.4587    0.0000 O   0  0  0  0  0  0  0  0  0  0  0  0
   10.2942    1.2734    0.0000 O   0  0  0  0  0  0  0  0  0  0  0  0
   14.9221   -2.3247    0.0000 O   0  0  0  0  0  0  0  0  0  0  0  0
    6.3301    2.4074    0.0000 O   0  0  0  0  0  0  0  0  0  0  0  0
    8.9282    0.9074    0.0000 N   0  0  3  0  0  0  0  0  0  0  0  0
   16.9221   -2.3247    0.0000 N   0  0  0  0  0  0  0  0  0  0  0  0
    5.4641    0.9074    0.0000 N   0  0  0  0  0  0  0  0  0  0  0  0
   14.9221   -0.5926    0.0000 N   0  0  0  0  0  0  0  0  0  0  0  0
   13.3385   -1.3974    0.0000 N   0  0  0  0  0  0  0  0  0  0  0  0
    7.1962    0.9074    0.0000 C   0  0  2  0  0  0  0  0  0  0  0  0
    8.0622    0.4074    0.0000 C   0  0  0  0  0  0  0  0  0  0  0  0
    6.3301    0.4074    0.0000 C   0  0  2  0  0  0  0  0  0  0  0  0
    8.9282    1.9074    0.0000 C   0  0  0  0  0  0  0  0  0  0  0  0
   17.2585   -3.9074    0.0000 C   0  0  0  0  0  0  0  0  0  0  0  0
   18.1246   -3.4074    0.0000 C   0  0  0  0  0  0  0  0  0  0  0  0
   16.5154   -3.2382    0.0000 C   0  0  0  0  0  0  0  0  0  0  0  0
   17.9167   -2.4292    0.0000 C   0  0  0  0  0  0  0  0  0  0  0  0
    9.7942    2.4074    0.0000 C   0  0  0  0  0  0  0  0  0  0  0  0
    6.3301   -0.5926    0.0000 C   0  0  0  0  0  0  0  0  0  0  0  0
   16.4221   -1.4587    0.0000 C   0  0  0  0  0  0  0  0  0  0  0  0
   10.6603   -0.0926    0.0000 C   0  0  0  0  0  0  0  0  0  0  0  0
    5.4641   -1.0926    0.0000 C   0  0  0  0  0  0  0  0  0  0  0  0
    9.7942    3.4074    0.0000 C   0  0  0  0  0  0  0  0  0  0  0  0
   10.6603    1.9074    0.0000 C   0  0  0  0  0  0  0  0  0  0  0  0
   15.4221   -1.4587    0.0000 C   0  0  0  0  0  0  0  0  0  0  0  0
   11.5263    0.4074    0.0000 C   0  0  0  0  0  0  0  0  0  0  0  0
    5.4641    1.9074    0.0000 C   0  0  0  0  0  0  0  0  0  0  0  0
   10.6603   -1.0926    0.0000 C   0  0  0  0  0  0  0  0  0  0  0  0
   12.3923   -0.0926    0.0000 C   0  0  0  0  0  0  0  0  0  0  0  0
    5.4641   -2.0926    0.0000 C   0  0  0  0  0  0  0  0  0  0  0  0
    4.5981   -0.5926    0.0000 C   0  0  0  0  0  0  0  0  0  0  0  0
   12.3923   -1.0926    0.0000 C   0  0  0  0  0  0  0  0  0  0  0  0
   11.5263   -1.5926    0.0000 C   0  0  0  0  0  0  0  0  0  0  0  0
    4.5981    2.4074    0.0000 C   0  0  0  0  0  0  0  0  0  0  0  0
   13.9221   -0.5926    0.0000 C   0  0  0  0  0  0  0  0  0  0  0  0
    4.5981   -2.5926    0.0000 C   0  0  0  0  0  0  0  0  0  0  0  0
    3.7320   -1.0926    0.0000 C   0  0  0  0  0  0  0  0  0  0  0  0
    4.5981    3.4074    0.0000 C   0  0  0  0  0  0  0  0  0  0  0  0
    3.7320   -2.0926    0.0000 C   0  0  0  0  0  0  0  0  0  0  0  0
    3.7320    1.9074    0.0000 C   0  0  0  0  0  0  0  0  0  0  0  0
    3.7320    3.9074    0.0000 C   0  0  0  0  0  0  0  0  0  0  0  0
    5.4641    3.9074    0.0000 C   0  0  0  0  0  0  0  0  0  0  0  0
    2.8660    2.4074    0.0000 C   0  0  0  0  0  0  0  0  0  0  0  0
    2.8660    3.4074    0.0000 C   0  0  0  0  0  0  0  0  0  0  0  0
    6.6592    1.2174    0.0000 H   0  0  0  0  0  0  0  0  0  0  0  0
    7.6636   -0.0676    0.0000 H   0  0  0  0  0  0  0  0  0  0  0  0
    8.4607   -0.0676    0.0000 H   0  0  0  0  0  0  0  0  0  0  0  0
    5.7932    0.0974    0.0000 H   0  0  0  0  0  0  0  0  0  0  0  0
    8.7162    2.4900    0.0000 H   0  0  0  0  0  0  0  0  0  0  0  0
    8.3176    1.7997    0.0000 H   0  0  0  0  0  0  0  0  0  0  0  0
   16.7978   -4.3222    0.0000 H   0  0  0  0  0  0  0  0  0  0  0  0
   17.6230   -4.4090    0.0000 H   0  0  0  0  0  0  0  0  0  0  0  0
   18.3767   -3.9738    0.0000 H   0  0  0  0  0  0  0  0  0  0  0  0
   18.7142   -3.2158    0.0000 H   0  0  0  0  0  0  0  0  0  0  0  0
   15.9785   -2.9282    0.0000 H   0  0  0  0  0  0  0  0  0  0  0  0
   16.1510   -3.7398    0.0000 H   0  0  0  0  0  0  0  0  0  0  0  0
   18.5333   -2.3644    0.0000 H   0  0  0  0  0  0  0  0  0  0  0  0
   17.9167   -1.8092    0.0000 H   0  0  0  0  0  0  0  0  0  0  0  0
    9.2573    2.7174    0.0000 H   0  0  0  0  0  0  0  0  0  0  0  0
    6.5422   -1.1752    0.0000 H   0  0  0  0  0  0  0  0  0  0  0  0
    6.9407   -0.4850    0.0000 H   0  0  0  0  0  0  0  0  0  0  0  0
   17.0047   -1.2466    0.0000 H   0  0  0  0  0  0  0  0  0  0  0  0
   16.3145   -0.8481    0.0000 H   0  0  0  0  0  0  0  0  0  0  0  0
    4.9272    0.5974    0.0000 H   0  0  0  0  0  0  0  0  0  0  0  0
   10.4142    3.4074    0.0000 H   0  0  0  0  0  0  0  0  0  0  0  0
    9.7942    4.0274    0.0000 H   0  0  0  0  0  0  0  0  0  0  0  0
    9.1742    3.4074    0.0000 H   0  0  0  0  0  0  0  0  0  0  0  0
   10.3503    1.3704    0.0000 H   0  0  0  0  0  0  0  0  0  0  0  0
   11.1972    1.5974    0.0000 H   0  0  0  0  0  0  0  0  0  0  0  0
   10.9703    2.4443    0.0000 H   0  0  0  0  0  0  0  0  0  0  0  0
    7.7331    2.2174    0.0000 H   0  0  0  0  0  0  0  0  0  0  0  0
   11.5263    1.0274    0.0000 H   0  0  0  0  0  0  0  0  0  0  0  0
   10.1233   -1.4026    0.0000 H   0  0  0  0  0  0  0  0  0  0  0  0
    6.0010   -2.4026    0.0000 H   0  0  0  0  0  0  0  0  0  0  0  0
    4.5981    0.0274    0.0000 H   0  0  0  0  0  0  0  0  0  0  0  0
   11.5263   -2.2126    0.0000 H   0  0  0  0  0  0  0  0  0  0  0  0
   15.2321   -0.0557    0.0000 H   0  0  0  0  0  0  0  0  0  0  0  0
    4.5981   -3.2126    0.0000 H   0  0  0  0  0  0  0  0  0  0  0  0
    3.1951   -0.7826    0.0000 H   0  0  0  0  0  0  0  0  0  0  0  0
    3.1951   -2.4026    0.0000 H   0  0  0  0  0  0  0  0  0  0  0  0
    3.7320    1.2874    0.0000 H   0  0  0  0  0  0  0  0  0  0  0  0
    3.7320    4.5274    0.0000 H   0  0  0  0  0  0  0  0  0  0  0  0
    5.7741    3.3704    0.0000 H   0  0  0  0  0  0  0  0  0  0  0  0
    6.0010    4.2174    0.0000 H   0  0  0  0  0  0  0  0  0  0  0  0
    5.1541    4.4443    0.0000 H   0  0  0  0  0  0  0  0  0  0  0  0
    2.3291    2.0974    0.0000 H   0  0  0  0  0  0  0  0  0  0  0  0
  1 48  1  0  0  0  0
  2  5  2  0  0  0  0
  2  6  2  0  0  0  0
  2  9  1  0  0  0  0
  2 25  1  0  0  0  0
  3 33  1  0  0  0  0
  3 39  1  0  0  0  0
 14  4  1  6  0  0  0
  4 75  1  0  0  0  0
  7 29  2  0  0  0  0
  8 31  2  0  0  0  0
  9 15  1  0  0  0  0
  9 17  1  0  0  0  0
 10 20  1  0  0  0  0
 10 21  1  0  0  0  0
 10 24  1  0  0  0  0
 16 11  1  6  0  0  0
 11 31  1  0  0  0  0
 11 68  1  0  0  0  0
 12 29  1  0  0  0  0
 12 39  1  0  0  0  0
 12 81  1  0  0  0  0
 13 36  1  0  0  0  0
 13 39  2  0  0  0  0
 14 15  1  0  0  0  0
 14 16  1  0  0  0  0
 14 49  1  0  0  0  0
 15 50  1  0  0  0  0
 15 51  1  0  0  0  0
 16 23  1  0  0  0  0
 16 52  1  0  0  0  0
 17 22  1  0  0  0  0
 17 53  1  0  0  0  0
 17 54  1  0  0  0  0
 18 19  1  0  0  0  0
 18 20  1  0  0  0  0
 18 55  1  0  0  0  0
 18 56  1  0  0  0  0
 19 21  1  0  0  0  0
 19 57  1  0  0  0  0
 19 58  1  0  0  0  0
 20 59  1  0  0  0  0
 20 60  1  0  0  0  0
 21 61  1  0  0  0  0
 21 62  1  0  0  0  0
 22 27  1  0  0  0  0
 22 28  1  0  0  0  0
 22 63  1  0  0  0  0
 23 26  1  0  0  0  0
 23 64  1  0  0  0  0
 23 65  1  0  0  0  0
 24 29  1  0  0  0  0
 24 66  1  0  0  0  0
 24 67  1  0  0  0  0
 25 30  2  0  0  0  0
 25 32  1  0  0  0  0
 26 34  2  0  0  0  0
 26 35  1  0  0  0  0
 27 69  1  0  0  0  0
 27 70  1  0  0  0  0
 27 71  1  0  0  0  0
 28 72  1  0  0  0  0
 28 73  1  0  0  0  0
 28 74  1  0  0  0  0
 30 33  1  0  0  0  0
 30 76  1  0  0  0  0
 31 38  1  0  0  0  0
 32 37  2  0  0  0  0
 32 77  1  0  0  0  0
 33 36  2  0  0  0  0
 34 40  1  0  0  0  0
 34 78  1  0  0  0  0
 35 41  2  0  0  0  0
 35 79  1  0  0  0  0
 36 37  1  0  0  0  0
 37 80  1  0  0  0  0
 38 42  2  0  0  0  0
 38 44  1  0  0  0  0
 40 43  2  0  0  0  0
 40 82  1  0  0  0  0
 41 43  1  0  0  0  0
 41 83  1  0  0  0  0
 42 45  1  0  0  0  0
 42 46  1  0  0  0  0
 43 84  1  0  0  0  0
 44 47  2  0  0  0  0
 44 85  1  0  0  0  0
 45 48  2  0  0  0  0
 45 86  1  0  0  0  0
 46 87  1  0  0  0  0
 46 88  1  0  0  0  0
 46 89  1  0  0  0  0
 47 48  1  0  0  0  0
 47 90  1  0  0  0  0
M  END
> <PUBCHEM_COMPOUND_CID>
509652
> <PUBCHEM_COMPOUND_CANONICALIZED>
1
> <PUBCHEM_CACTVS_COMPLEXITY>
1160
> <PUBCHEM_CACTVS_HBOND_ACCEPTOR>
9
> <PUBCHEM_CACTVS_HBOND_DONOR>
3
> <PUBCHEM_CACTVS_ROTATABLE_BOND>
14
> <PUBCHEM_CACTVS_SUBSKEYS>
AAADcfB/uABgEAAAAAAAAAAAAAAAAWLAAAAwYMAAAAAAAFgB9AAAHgRQSAABrTzh3gYz0bPIEgqsAyVydHDD8LllCj1JmL24ZPiKcLLg3bGUYQhslwLYy7eYyKCOggQAEEAQAQAECAAggCACAAAAAAAAAA==
> <PUBCHEM_IUPAC_OPENEYE_NAME>
N-[(1S,2R)-1-benzyl-2-hydroxy-3-[isobutyl-[[2-[(2-pyrrolidin-1-ylacetyl)amino]-1,3-benzothiazol-6-yl]sulfonyl]amino]propyl]-4-bromo-2-methyl-benzamide
> <PUBCHEM_IUPAC_CAS_NAME>
4-bromo-N-[(2S,3R)-3-hydroxy-4-[2-methylpropyl-[[2-[[1-oxo-2-(1-pyrrolidinyl)ethyl]amino]-1,3-benzothiazol-6-yl]sulfonyl]amino]-1-phenylbutan-2-yl]-2-methylbenzamide
> <PUBCHEM_IUPAC_NAME_MARKUP>
4-bromo-<I>N</I>-[(2<I>S</I>,3<I>R</I>)-3-hydroxy-4-[2-methylpropyl-[[2-[(2-pyrrolidin-1-ylacetyl)amino]-1,3-benzothiazol-6-yl]sulfonyl]amino]-1-phenylbutan-2-yl]-2-methylbenzamide
> <PUBCHEM_IUPAC_NAME>
4-bromo-N-[(2S,3R)-3-hydroxy-4-[2-methylpropyl-[[2-[(2-pyrrolidin-1-ylacetyl)amino]-1,3-benzothiazol-6-yl]sulfonyl]amino]-1-phenylbutan-2-yl]-2-methylbenzamide
> <PUBCHEM_IUPAC_SYSTEMATIC_NAME>
4-bromanyl-2-methyl-N-[(2S,3R)-4-[2-methylpropyl-[[2-(2-pyrrolidin-1-ylethanoylamino)-1,3-benzothiazol-6-yl]sulfonyl]amino]-3-oxidanyl-1-phenyl-butan-2-yl]benzamide
> <PUBCHEM_IUPAC_TRADITIONAL_NAME>
N-[(1S,2R)-1-benzyl-2-hydroxy-3-[isobutyl-[[2-[(2-pyrrolidinoacetyl)amino]-1,3-benzothiazol-6-yl]sulfonyl]amino]propyl]-4-bromo-2-methyl-benzamide
> <PUBCHEM_IUPAC_INCHI>
InChI=1S/C35H42BrN5O5S2/c1-23(2)20-41(21-31(42)30(18-25-9-5-4-6-10-25)37-34(44)28-13-11-26(36)17-24(28)3)48(45,46)27-12-14-29-32(19-27)47-35(38-29)39-33(43)22-40-15-7-8-16-40/h4-6,9-14,17,19,23,30-31,42H,7-8,15-16,18,20-22H2,1-3H3,(H,37,44)(H,38,39,43)/t30-,31+/m0/s1
> <PUBCHEM_IUPAC_INCHIKEY>
CXKUGLFKSKOWHQ-IOWSJCHKSA-N
> <PUBCHEM_XLOGP3_AA>
6.4
> <PUBCHEM_EXACT_MASS>
755.18107
> <PUBCHEM_MOLECULAR_FORMULA>
C35H42BrN5O5S2
> <PUBCHEM_MOLECULAR_WEIGHT>
756.8
> <PUBCHEM_OPENEYE_CAN_SMILES>
CC1=C(C=CC(=C1)Br)C(=O)NC(CC2=CC=CC=C2)C(CN(CC(C)C)S(=O)(=O)C3=CC4=C(C=C3)N=C(S4)NC(=O)CN5CCCC5)O
> <PUBCHEM_OPENEYE_ISO_SMILES>
CC1=C(C=CC(=C1)Br)C(=O)N[C@@H](CC2=CC=CC=C2)[C@@H](CN(CC(C)C)S(=O)(=O)C3=CC4=C(C=C3)N=C(S4)NC(=O)CN5CCCC5)O
> <PUBCHEM_CACTVS_TPSA>
169
> <PUBCHEM_MONOISOTOPIC_WEIGHT>
755.18107
> <PUBCHEM_TOTAL_CHARGE>
0
> <PUBCHEM_HEAVY_ATOM_COUNT>
48
> <PUBCHEM_ATOM_DEF_STEREO_COUNT>
2
> <PUBCHEM_ATOM_UDEF_STEREO_COUNT>
0
> <PUBCHEM_BOND_DEF_STEREO_COUNT>
0
> <PUBCHEM_BOND_UDEF_STEREO_COUNT>
0
> <PUBCHEM_ISOTOPIC_ATOM_COUNT>
0
> <PUBCHEM_COMPONENT_COUNT>
1
> <PUBCHEM_CACTVS_TAUTO_COUNT>
-1
> <PUBCHEM_COORDINATE_TYPE>
1
5
255
> <PUBCHEM_BONDANNOTATIONS>
16  11  6
13  36  8
13  39  8
25  30  8
25  32  8
26  34  8
26  35  8
3  33  8
3  39  8
30  33  8
32  37  8
33  36  8
34  40  8
35  41  8
36  37  8
38  42  8
38  44  8
14  4  6
40  43  8
41  43  8
42  45  8
44  47  8
45  48  8
47  48  8
$$$$
