509626
  -OEChem-10302200282D
 89 92  0     1  0  0  0  0  0999 V2000
    8.9282   -0.6060    0.0000 S   0  0  0  0  0  0  0  0  0  0  0  0
   12.4725   -0.8012    0.0000 S   0  0  0  0  0  0  0  0  0  0  0  0
    6.3301    0.8940    0.0000 O   0  0  0  0  0  0  0  0  0  0  0  0
    8.4282   -1.4720    0.0000 O   0  0  0  0  0  0  0  0  0  0  0  0
    9.4282    0.2601    0.0000 O   0  0  0  0  0  0  0  0  0  0  0  0
    5.4641    1.3940    0.0000 O   0  0  0  0  0  0  0  0  0  0  0  0
    8.0622   -0.1060    0.0000 N   0  0  3  0  0  0  0  0  0  0  0  0
    4.5981   -0.1060    0.0000 N   0  0  0  0  0  0  0  0  0  0  0  0
   12.4725   -2.4107    0.0000 N   0  0  0  0  0  0  0  0  0  0  0  0
   14.0561   -1.6060    0.0000 N   0  0  0  0  0  0  0  0  0  0  0  0
    2.8660    3.8940    0.0000 N   0  0  0  0  0  0  0  0  0  0  0  0
   16.0561   -3.3380    0.0000 N   0  0  0  0  0  0  0  0  0  0  0  0
    6.3301   -0.1060    0.0000 C   0  0  2  0  0  0  0  0  0  0  0  0
    7.1962   -0.6060    0.0000 C   0  0  0  0  0  0  0  0  0  0  0  0
    5.4641   -0.6060    0.0000 C   0  0  2  0  0  0  0  0  0  0  0  0
    8.0622    0.8940    0.0000 C   0  0  0  0  0  0  0  0  0  0  0  0
    8.9282    1.3940    0.0000 C   0  0  0  0  0  0  0  0  0  0  0  0
    5.4641   -1.6060    0.0000 C   0  0  0  0  0  0  0  0  0  0  0  0
    9.7942   -1.1060    0.0000 C   0  0  0  0  0  0  0  0  0  0  0  0
    4.5981   -2.1060    0.0000 C   0  0  0  0  0  0  0  0  0  0  0  0
    8.9282    2.3940    0.0000 C   0  0  0  0  0  0  0  0  0  0  0  0
    9.7942    0.8940    0.0000 C   0  0  0  0  0  0  0  0  0  0  0  0
    4.5981    0.8940    0.0000 C   0  0  0  0  0  0  0  0  0  0  0  0
   10.6603   -0.6060    0.0000 C   0  0  0  0  0  0  0  0  0  0  0  0
    9.7942   -2.1060    0.0000 C   0  0  0  0  0  0  0  0  0  0  0  0
    4.5981   -3.1060    0.0000 C   0  0  0  0  0  0  0  0  0  0  0  0
    3.7320   -1.6060    0.0000 C   0  0  0  0  0  0  0  0  0  0  0  0
   11.5263   -1.1060    0.0000 C   0  0  0  0  0  0  0  0  0  0  0  0
    3.7320    1.3940    0.0000 C   0  0  0  0  0  0  0  0  0  0  0  0
   10.6603   -2.6060    0.0000 C   0  0  0  0  0  0  0  0  0  0  0  0
   11.5263   -2.1060    0.0000 C   0  0  0  0  0  0  0  0  0  0  0  0
    3.7320   -3.6060    0.0000 C   0  0  0  0  0  0  0  0  0  0  0  0
    2.8660   -2.1060    0.0000 C   0  0  0  0  0  0  0  0  0  0  0  0
    3.7320    2.3940    0.0000 C   0  0  0  0  0  0  0  0  0  0  0  0
    2.8660   -3.1060    0.0000 C   0  0  0  0  0  0  0  0  0  0  0  0
    2.8660    0.8940    0.0000 C   0  0  0  0  0  0  0  0  0  0  0  0
   13.0561   -1.6060    0.0000 C   0  0  0  0  0  0  0  0  0  0  0  0
    2.8660    2.8940    0.0000 C   0  0  0  0  0  0  0  0  0  0  0  0
    4.5981    2.8940    0.0000 C   0  0  0  0  0  0  0  0  0  0  0  0
    2.0000    1.3940    0.0000 C   0  0  0  0  0  0  0  0  0  0  0  0
    2.0000    2.3940    0.0000 C   0  0  0  0  0  0  0  0  0  0  0  0
   14.5561   -2.4720    0.0000 C   0  0  0  0  0  0  0  0  0  0  0  0
   15.5561   -2.4720    0.0000 C   0  0  0  0  0  0  0  0  0  0  0  0
   17.0561   -3.3380    0.0000 C   0  0  0  0  0  0  0  0  0  0  0  0
   15.5561   -4.2040    0.0000 C   0  0  0  0  0  0  0  0  0  0  0  0
    6.8671    0.2040    0.0000 H   0  0  0  0  0  0  0  0  0  0  0  0
    6.7976   -1.0809    0.0000 H   0  0  0  0  0  0  0  0  0  0  0  0
    7.5947   -1.0809    0.0000 H   0  0  0  0  0  0  0  0  0  0  0  0
    5.4641    0.0140    0.0000 H   0  0  0  0  0  0  0  0  0  0  0  0
    7.8501    1.4766    0.0000 H   0  0  0  0  0  0  0  0  0  0  0  0
    7.4516    0.7864    0.0000 H   0  0  0  0  0  0  0  0  0  0  0  0
    9.4651    1.7040    0.0000 H   0  0  0  0  0  0  0  0  0  0  0  0
    5.6762   -2.1886    0.0000 H   0  0  0  0  0  0  0  0  0  0  0  0
    6.0747   -1.4983    0.0000 H   0  0  0  0  0  0  0  0  0  0  0  0
    4.0611   -0.4160    0.0000 H   0  0  0  0  0  0  0  0  0  0  0  0
    9.5482    2.3940    0.0000 H   0  0  0  0  0  0  0  0  0  0  0  0
    8.9282    3.0140    0.0000 H   0  0  0  0  0  0  0  0  0  0  0  0
    8.3082    2.3940    0.0000 H   0  0  0  0  0  0  0  0  0  0  0  0
    9.4842    0.3571    0.0000 H   0  0  0  0  0  0  0  0  0  0  0  0
   10.3312    0.5840    0.0000 H   0  0  0  0  0  0  0  0  0  0  0  0
   10.1042    1.4310    0.0000 H   0  0  0  0  0  0  0  0  0  0  0  0
    6.8671    1.2040    0.0000 H   0  0  0  0  0  0  0  0  0  0  0  0
   10.6603    0.0140    0.0000 H   0  0  0  0  0  0  0  0  0  0  0  0
    9.2573   -2.4160    0.0000 H   0  0  0  0  0  0  0  0  0  0  0  0
    5.1350   -3.4160    0.0000 H   0  0  0  0  0  0  0  0  0  0  0  0
    3.7320   -0.9860    0.0000 H   0  0  0  0  0  0  0  0  0  0  0  0
   10.6603   -3.2260    0.0000 H   0  0  0  0  0  0  0  0  0  0  0  0
    3.7320   -4.2260    0.0000 H   0  0  0  0  0  0  0  0  0  0  0  0
    2.3291   -1.7960    0.0000 H   0  0  0  0  0  0  0  0  0  0  0  0
    2.3291   -3.4160    0.0000 H   0  0  0  0  0  0  0  0  0  0  0  0
    2.8660    0.2740    0.0000 H   0  0  0  0  0  0  0  0  0  0  0  0
    4.9081    2.3571    0.0000 H   0  0  0  0  0  0  0  0  0  0  0  0
    5.1350    3.2040    0.0000 H   0  0  0  0  0  0  0  0  0  0  0  0
    4.2881    3.4310    0.0000 H   0  0  0  0  0  0  0  0  0  0  0  0
    1.4631    1.0840    0.0000 H   0  0  0  0  0  0  0  0  0  0  0  0
   14.3661   -1.0690    0.0000 H   0  0  0  0  0  0  0  0  0  0  0  0
    1.4631    2.7040    0.0000 H   0  0  0  0  0  0  0  0  0  0  0  0
   13.9735   -2.6840    0.0000 H   0  0  0  0  0  0  0  0  0  0  0  0
   14.6638   -3.0826    0.0000 H   0  0  0  0  0  0  0  0  0  0  0  0
   16.1387   -2.2599    0.0000 H   0  0  0  0  0  0  0  0  0  0  0  0
   15.4484   -1.8614    0.0000 H   0  0  0  0  0  0  0  0  0  0  0  0
    2.3291    4.2040    0.0000 H   0  0  0  0  0  0  0  0  0  0  0  0
    3.4030    4.2040    0.0000 H   0  0  0  0  0  0  0  0  0  0  0  0
   17.0561   -3.9580    0.0000 H   0  0  0  0  0  0  0  0  0  0  0  0
   17.6761   -3.3380    0.0000 H   0  0  0  0  0  0  0  0  0  0  0  0
   17.0561   -2.7180    0.0000 H   0  0  0  0  0  0  0  0  0  0  0  0
   15.0192   -3.8940    0.0000 H   0  0  0  0  0  0  0  0  0  0  0  0
   15.2461   -4.7410    0.0000 H   0  0  0  0  0  0  0  0  0  0  0  0
   16.0930   -4.5140    0.0000 H   0  0  0  0  0  0  0  0  0  0  0  0
  1  4  2  0  0  0  0
  1  5  2  0  0  0  0
  1  7  1  0  0  0  0
  1 19  1  0  0  0  0
  2 28  1  0  0  0  0
  2 37  1  0  0  0  0
 13  3  1  6  0  0  0
  3 62  1  0  0  0  0
  6 23  2  0  0  0  0
  7 14  1  0  0  0  0
  7 16  1  0  0  0  0
 15  8  1  6  0  0  0
  8 23  1  0  0  0  0
  8 55  1  0  0  0  0
  9 31  1  0  0  0  0
  9 37  2  0  0  0  0
 10 37  1  0  0  0  0
 10 42  1  0  0  0  0
 10 76  1  0  0  0  0
 11 38  1  0  0  0  0
 11 82  1  0  0  0  0
 11 83  1  0  0  0  0
 12 43  1  0  0  0  0
 12 44  1  0  0  0  0
 12 45  1  0  0  0  0
 13 14  1  0  0  0  0
 13 15  1  0  0  0  0
 13 46  1  0  0  0  0
 14 47  1  0  0  0  0
 14 48  1  0  0  0  0
 15 18  1  0  0  0  0
 15 49  1  0  0  0  0
 16 17  1  0  0  0  0
 16 50  1  0  0  0  0
 16 51  1  0  0  0  0
 17 21  1  0  0  0  0
 17 22  1  0  0  0  0
 17 52  1  0  0  0  0
 18 20  1  0  0  0  0
 18 53  1  0  0  0  0
 18 54  1  0  0  0  0
 19 24  2  0  0  0  0
 19 25  1  0  0  0  0
 20 26  2  0  0  0  0
 20 27  1  0  0  0  0
 21 56  1  0  0  0  0
 21 57  1  0  0  0  0
 21 58  1  0  0  0  0
 22 59  1  0  0  0  0
 22 60  1  0  0  0  0
 22 61  1  0  0  0  0
 23 29  1  0  0  0  0
 24 28  1  0  0  0  0
 24 63  1  0  0  0  0
 25 30  2  0  0  0  0
 25 64  1  0  0  0  0
 26 32  1  0  0  0  0
 26 65  1  0  0  0  0
 27 33  2  0  0  0  0
 27 66  1  0  0  0  0
 28 31  2  0  0  0  0
 29 34  2  0  0  0  0
 29 36  1  0  0  0  0
 30 31  1  0  0  0  0
 30 67  1  0  0  0  0
 32 35  2  0  0  0  0
 32 68  1  0  0  0  0
 33 35  1  0  0  0  0
 33 69  1  0  0  0  0
 34 38  1  0  0  0  0
 34 39  1  0  0  0  0
 35 70  1  0  0  0  0
 36 40  2  0  0  0  0
 36 71  1  0  0  0  0
 38 41  2  0  0  0  0
 39 72  1  0  0  0  0
 39 73  1  0  0  0  0
 39 74  1  0  0  0  0
 40 41  1  0  0  0  0
 40 75  1  0  0  0  0
 41 77  1  0  0  0  0
 42 43  1  0  0  0  0
 42 78  1  0  0  0  0
 42 79  1  0  0  0  0
 43 80  1  0  0  0  0
 43 81  1  0  0  0  0
 44 84  1  0  0  0  0
 44 85  1  0  0  0  0
 44 86  1  0  0  0  0
 45 87  1  0  0  0  0
 45 88  1  0  0  0  0
 45 89  1  0  0  0  0
M  END
> <PUBCHEM_COMPOUND_CID>
509626
> <PUBCHEM_COMPOUND_CANONICALIZED>
1
> <PUBCHEM_CACTVS_COMPLEXITY>
1020
> <PUBCHEM_CACTVS_HBOND_ACCEPTOR>
10
> <PUBCHEM_CACTVS_HBOND_DONOR>
4
> <PUBCHEM_CACTVS_ROTATABLE_BOND>
15
> <PUBCHEM_CACTVS_SUBSKEYS>
AAADcfB/uABgAAAAAAAAAAAAAAAAAWAAAAAwYMAAAAAAAFgB9AAAHgQQSAAADTzh3gYz0bPIEgqsAyVydHDD8LllCjlJmL04ZNiKcLLg3ZGUYQhslgLYyaecyKCOgAQAQEASAQAACACAgCQCAAAAAAAAAA==
> <PUBCHEM_IUPAC_OPENEYE_NAME>
3-amino-N-[(1S,2R)-1-benzyl-3-[[2-[2-(dimethylamino)ethylamino]-1,3-benzothiazol-6-yl]sulfonyl-isobutyl-amino]-2-hydroxy-propyl]-2-methyl-benzamide
> <PUBCHEM_IUPAC_CAS_NAME>
3-amino-N-[(2S,3R)-4-[[2-[2-(dimethylamino)ethylamino]-1,3-benzothiazol-6-yl]sulfonyl-(2-methylpropyl)amino]-3-hydroxy-1-phenylbutan-2-yl]-2-methylbenzamide
> <PUBCHEM_IUPAC_NAME_MARKUP>
3-amino-<I>N</I>-[(2<I>S</I>,3<I>R</I>)-4-[[2-[2-(dimethylamino)ethylamino]-1,3-benzothiazol-6-yl]sulfonyl-(2-methylpropyl)amino]-3-hydroxy-1-phenylbutan-2-yl]-2-methylbenzamide
> <PUBCHEM_IUPAC_NAME>
3-amino-N-[(2S,3R)-4-[[2-[2-(dimethylamino)ethylamino]-1,3-benzothiazol-6-yl]sulfonyl-(2-methylpropyl)amino]-3-hydroxy-1-phenylbutan-2-yl]-2-methylbenzamide
> <PUBCHEM_IUPAC_SYSTEMATIC_NAME>
3-azanyl-N-[(2S,3R)-4-[[2-[2-(dimethylamino)ethylamino]-1,3-benzothiazol-6-yl]sulfonyl-(2-methylpropyl)amino]-3-oxidanyl-1-phenyl-butan-2-yl]-2-methyl-benzamide
> <PUBCHEM_IUPAC_TRADITIONAL_NAME>
3-amino-N-[(1S,2R)-1-benzyl-3-[[2-[2-(dimethylamino)ethylamino]-1,3-benzothiazol-6-yl]sulfonyl-isobutyl-amino]-2-hydroxy-propyl]-2-methyl-benzamide
> <PUBCHEM_IUPAC_INCHI>
InChI=1S/C33H44N6O4S2/c1-22(2)20-39(45(42,43)25-14-15-28-31(19-25)44-33(37-28)35-16-17-38(4)5)21-30(40)29(18-24-10-7-6-8-11-24)36-32(41)26-12-9-13-27(34)23(26)3/h6-15,19,22,29-30,40H,16-18,20-21,34H2,1-5H3,(H,35,37)(H,36,41)/t29-,30+/m0/s1
> <PUBCHEM_IUPAC_INCHIKEY>
JEHWGWGGBYJQDJ-XZWHSSHBSA-N
> <PUBCHEM_XLOGP3_AA>
5.3
> <PUBCHEM_EXACT_MASS>
652.28654625
> <PUBCHEM_MOLECULAR_FORMULA>
C33H44N6O4S2
> <PUBCHEM_MOLECULAR_WEIGHT>
652.9
> <PUBCHEM_OPENEYE_CAN_SMILES>
CC1=C(C=CC=C1N)C(=O)NC(CC2=CC=CC=C2)C(CN(CC(C)C)S(=O)(=O)C3=CC4=C(C=C3)N=C(S4)NCCN(C)C)O
> <PUBCHEM_OPENEYE_ISO_SMILES>
CC1=C(C=CC=C1N)C(=O)N[C@@H](CC2=CC=CC=C2)[C@@H](CN(CC(C)C)S(=O)(=O)C3=CC4=C(C=C3)N=C(S4)NCCN(C)C)O
> <PUBCHEM_CACTVS_TPSA>
178
> <PUBCHEM_MONOISOTOPIC_WEIGHT>
652.28654625
> <PUBCHEM_TOTAL_CHARGE>
0
> <PUBCHEM_HEAVY_ATOM_COUNT>
45
> <PUBCHEM_ATOM_DEF_STEREO_COUNT>
2
> <PUBCHEM_ATOM_UDEF_STEREO_COUNT>
0
> <PUBCHEM_BOND_DEF_STEREO_COUNT>
0
> <PUBCHEM_BOND_UDEF_STEREO_COUNT>
0
> <PUBCHEM_ISOTOPIC_ATOM_COUNT>
0
> <PUBCHEM_COMPONENT_COUNT>
1
> <PUBCHEM_CACTVS_TAUTO_COUNT>
-1
> <PUBCHEM_COORDINATE_TYPE>
1
5
255
> <PUBCHEM_BONDANNOTATIONS>
19  24  8
19  25  8
2  28  8
2  37  8
20  26  8
20  27  8
24  28  8
25  30  8
26  32  8
27  33  8
28  31  8
29  34  8
29  36  8
13  3  6
30  31  8
32  35  8
33  35  8
34  38  8
36  40  8
38  41  8
40  41  8
15  8  6
9  31  8
9  37  8
$$$$
