509725
  -OEChem-10302200282D
 87 90  0     1  0  0  0  0  0999 V2000
    9.6448   -0.1192    0.0000 S   0  0  0  0  0  0  0  0  0  0  0  0
   13.1891   -0.3144    0.0000 S   0  0  0  0  0  0  0  0  0  0  0  0
    2.6691    2.9741    0.0000 S   0  0  0  0  0  0  0  0  0  0  0  0
    7.0468    1.3808    0.0000 O   0  0  0  0  0  0  0  0  0  0  0  0
    9.1448   -0.9852    0.0000 O   0  0  0  0  0  0  0  0  0  0  0  0
   10.1449    0.7469    0.0000 O   0  0  0  0  0  0  0  0  0  0  0  0
    4.4487    1.8808    0.0000 O   0  0  0  0  0  0  0  0  0  0  0  0
    6.1808    1.8808    0.0000 O   0  0  0  0  0  0  0  0  0  0  0  0
   14.7728   -2.8512    0.0000 O   0  0  0  0  0  0  0  0  0  0  0  0
   19.2728   -3.7172    0.0000 O   0  0  0  0  0  0  0  0  0  0  0  0
   17.7728   -4.5833    0.0000 O   0  0  0  0  0  0  0  0  0  0  0  0
    8.7788    0.3808    0.0000 N   0  0  3  0  0  0  0  0  0  0  0  0
    5.3147    0.3808    0.0000 N   0  0  0  0  0  0  0  0  0  0  0  0
   13.1891   -1.9239    0.0000 N   0  0  0  0  0  0  0  0  0  0  0  0
   14.7728   -1.1192    0.0000 N   0  0  0  0  0  0  0  0  0  0  0  0
    2.5000    4.5833    0.0000 N   0  0  0  0  0  0  0  0  0  0  0  0
    7.0468    0.3808    0.0000 C   0  0  2  0  0  0  0  0  0  0  0  0
    7.9128   -0.1192    0.0000 C   0  0  0  0  0  0  0  0  0  0  0  0
    6.1808   -0.1192    0.0000 C   0  0  2  0  0  0  0  0  0  0  0  0
    8.7788    1.3808    0.0000 C   0  0  0  0  0  0  0  0  0  0  0  0
    9.6448    1.8808    0.0000 C   0  0  0  0  0  0  0  0  0  0  0  0
    6.1808   -1.1192    0.0000 C   0  0  0  0  0  0  0  0  0  0  0  0
   10.5109   -0.6192    0.0000 C   0  0  0  0  0  0  0  0  0  0  0  0
    9.6448    2.8808    0.0000 C   0  0  0  0  0  0  0  0  0  0  0  0
   10.5109    1.3808    0.0000 C   0  0  0  0  0  0  0  0  0  0  0  0
    5.3147   -1.6192    0.0000 C   0  0  0  0  0  0  0  0  0  0  0  0
   11.3769   -0.1192    0.0000 C   0  0  0  0  0  0  0  0  0  0  0  0
   10.5109   -1.6192    0.0000 C   0  0  0  0  0  0  0  0  0  0  0  0
    5.3147    1.3808    0.0000 C   0  0  0  0  0  0  0  0  0  0  0  0
    5.3147   -2.6192    0.0000 C   0  0  0  0  0  0  0  0  0  0  0  0
    4.4487   -1.1192    0.0000 C   0  0  0  0  0  0  0  0  0  0  0  0
   12.2429   -0.6192    0.0000 C   0  0  0  0  0  0  0  0  0  0  0  0
   12.2429   -1.6192    0.0000 C   0  0  0  0  0  0  0  0  0  0  0  0
   11.3769   -2.1192    0.0000 C   0  0  0  0  0  0  0  0  0  0  0  0
    4.4487   -3.1192    0.0000 C   0  0  0  0  0  0  0  0  0  0  0  0
    3.5827   -1.6192    0.0000 C   0  0  0  0  0  0  0  0  0  0  0  0
    3.5827   -2.6192    0.0000 C   0  0  0  0  0  0  0  0  0  0  0  0
   13.7728   -1.1192    0.0000 C   0  0  0  0  0  0  0  0  0  0  0  0
    4.4487    2.8808    0.0000 C   0  0  0  0  0  0  0  0  0  0  0  0
   15.2728   -1.9852    0.0000 C   0  0  0  0  0  0  0  0  0  0  0  0
   16.2728   -1.9852    0.0000 C   0  0  0  0  0  0  0  0  0  0  0  0
   15.2728   -0.2531    0.0000 C   0  0  0  0  0  0  0  0  0  0  0  0
   16.7728   -2.8512    0.0000 C   0  0  0  0  0  0  0  0  0  0  0  0
    3.5827    3.3808    0.0000 C   0  0  0  0  0  0  0  0  0  0  0  0
   17.7728   -2.8512    0.0000 C   0  0  0  0  0  0  0  0  0  0  0  0
    3.4782    4.3754    0.0000 C   0  0  0  0  0  0  0  0  0  0  0  0
   18.2728   -3.7172    0.0000 C   0  0  0  0  0  0  0  0  0  0  0  0
    2.0000    3.7172    0.0000 C   0  0  0  0  0  0  0  0  0  0  0  0
    7.5837    0.6908    0.0000 H   0  0  0  0  0  0  0  0  0  0  0  0
    7.5143   -0.5941    0.0000 H   0  0  0  0  0  0  0  0  0  0  0  0
    8.3113   -0.5941    0.0000 H   0  0  0  0  0  0  0  0  0  0  0  0
    6.1808    0.5008    0.0000 H   0  0  0  0  0  0  0  0  0  0  0  0
    8.5668    1.9634    0.0000 H   0  0  0  0  0  0  0  0  0  0  0  0
    8.1682    1.2732    0.0000 H   0  0  0  0  0  0  0  0  0  0  0  0
    9.1079    2.1908    0.0000 H   0  0  0  0  0  0  0  0  0  0  0  0
    6.3928   -1.7018    0.0000 H   0  0  0  0  0  0  0  0  0  0  0  0
    6.7913   -1.0115    0.0000 H   0  0  0  0  0  0  0  0  0  0  0  0
    4.7778    0.0708    0.0000 H   0  0  0  0  0  0  0  0  0  0  0  0
   10.2649    2.8808    0.0000 H   0  0  0  0  0  0  0  0  0  0  0  0
    9.6448    3.5008    0.0000 H   0  0  0  0  0  0  0  0  0  0  0  0
    9.0248    2.8808    0.0000 H   0  0  0  0  0  0  0  0  0  0  0  0
   10.2009    0.8439    0.0000 H   0  0  0  0  0  0  0  0  0  0  0  0
   11.0478    1.0708    0.0000 H   0  0  0  0  0  0  0  0  0  0  0  0
   10.8209    1.9178    0.0000 H   0  0  0  0  0  0  0  0  0  0  0  0
    7.5837    1.6908    0.0000 H   0  0  0  0  0  0  0  0  0  0  0  0
   11.3769    0.5008    0.0000 H   0  0  0  0  0  0  0  0  0  0  0  0
    9.9739   -1.9292    0.0000 H   0  0  0  0  0  0  0  0  0  0  0  0
    5.8517   -2.9292    0.0000 H   0  0  0  0  0  0  0  0  0  0  0  0
    4.4487   -0.4992    0.0000 H   0  0  0  0  0  0  0  0  0  0  0  0
   11.3769   -2.7392    0.0000 H   0  0  0  0  0  0  0  0  0  0  0  0
    4.4487   -3.7392    0.0000 H   0  0  0  0  0  0  0  0  0  0  0  0
    3.0457   -1.3092    0.0000 H   0  0  0  0  0  0  0  0  0  0  0  0
    3.0457   -2.9292    0.0000 H   0  0  0  0  0  0  0  0  0  0  0  0
    5.0593    2.7732    0.0000 H   0  0  0  0  0  0  0  0  0  0  0  0
    4.6608    3.4634    0.0000 H   0  0  0  0  0  0  0  0  0  0  0  0
   16.8554   -1.7731    0.0000 H   0  0  0  0  0  0  0  0  0  0  0  0
   16.1651   -1.3746    0.0000 H   0  0  0  0  0  0  0  0  0  0  0  0
   15.8097   -0.5631    0.0000 H   0  0  0  0  0  0  0  0  0  0  0  0
   15.5828    0.2838    0.0000 H   0  0  0  0  0  0  0  0  0  0  0  0
   14.7358    0.0569    0.0000 H   0  0  0  0  0  0  0  0  0  0  0  0
   16.1901   -3.0633    0.0000 H   0  0  0  0  0  0  0  0  0  0  0  0
   16.8804   -3.4618    0.0000 H   0  0  0  0  0  0  0  0  0  0  0  0
   18.3554   -2.6392    0.0000 H   0  0  0  0  0  0  0  0  0  0  0  0
   17.6651   -2.2406    0.0000 H   0  0  0  0  0  0  0  0  0  0  0  0
    3.9389    4.7902    0.0000 H   0  0  0  0  0  0  0  0  0  0  0  0
    1.3834    3.6524    0.0000 H   0  0  0  0  0  0  0  0  0  0  0  0
   19.5828   -4.2542    0.0000 H   0  0  0  0  0  0  0  0  0  0  0  0
  1  5  2  0  0  0  0
  1  6  2  0  0  0  0
  1 12  1  0  0  0  0
  1 23  1  0  0  0  0
  2 32  1  0  0  0  0
  2 38  1  0  0  0  0
  3 44  1  0  0  0  0
  3 48  1  0  0  0  0
 17  4  1  6  0  0  0
  4 65  1  0  0  0  0
  7 29  1  0  0  0  0
  7 39  1  0  0  0  0
  8 29  2  0  0  0  0
  9 40  2  0  0  0  0
 10 47  1  0  0  0  0
 10 87  1  0  0  0  0
 11 47  2  0  0  0  0
 12 18  1  0  0  0  0
 12 20  1  0  0  0  0
 19 13  1  6  0  0  0
 13 29  1  0  0  0  0
 13 58  1  0  0  0  0
 14 33  1  0  0  0  0
 14 38  2  0  0  0  0
 15 38  1  0  0  0  0
 15 40  1  0  0  0  0
 15 42  1  0  0  0  0
 16 46  1  0  0  0  0
 16 48  2  0  0  0  0
 17 18  1  0  0  0  0
 17 19  1  0  0  0  0
 17 49  1  0  0  0  0
 18 50  1  0  0  0  0
 18 51  1  0  0  0  0
 19 22  1  0  0  0  0
 19 52  1  0  0  0  0
 20 21  1  0  0  0  0
 20 53  1  0  0  0  0
 20 54  1  0  0  0  0
 21 24  1  0  0  0  0
 21 25  1  0  0  0  0
 21 55  1  0  0  0  0
 22 26  1  0  0  0  0
 22 56  1  0  0  0  0
 22 57  1  0  0  0  0
 23 27  2  0  0  0  0
 23 28  1  0  0  0  0
 24 59  1  0  0  0  0
 24 60  1  0  0  0  0
 24 61  1  0  0  0  0
 25 62  1  0  0  0  0
 25 63  1  0  0  0  0
 25 64  1  0  0  0  0
 26 30  2  0  0  0  0
 26 31  1  0  0  0  0
 27 32  1  0  0  0  0
 27 66  1  0  0  0  0
 28 34  2  0  0  0  0
 28 67  1  0  0  0  0
 30 35  1  0  0  0  0
 30 68  1  0  0  0  0
 31 36  2  0  0  0  0
 31 69  1  0  0  0  0
 32 33  2  0  0  0  0
 33 34  1  0  0  0  0
 34 70  1  0  0  0  0
 35 37  2  0  0  0  0
 35 71  1  0  0  0  0
 36 37  1  0  0  0  0
 36 72  1  0  0  0  0
 37 73  1  0  0  0  0
 39 44  1  0  0  0  0
 39 74  1  0  0  0  0
 39 75  1  0  0  0  0
 40 41  1  0  0  0  0
 41 43  1  0  0  0  0
 41 76  1  0  0  0  0
 41 77  1  0  0  0  0
 42 78  1  0  0  0  0
 42 79  1  0  0  0  0
 42 80  1  0  0  0  0
 43 45  1  0  0  0  0
 43 81  1  0  0  0  0
 43 82  1  0  0  0  0
 44 46  2  0  0  0  0
 45 47  1  0  0  0  0
 45 83  1  0  0  0  0
 45 84  1  0  0  0  0
 46 85  1  0  0  0  0
 48 86  1  0  0  0  0
M  END
> <PUBCHEM_COMPOUND_CID>
509725
> <PUBCHEM_COMPOUND_CANONICALIZED>
1
> <PUBCHEM_CACTVS_COMPLEXITY>
1170
> <PUBCHEM_CACTVS_HBOND_ACCEPTOR>
13
> <PUBCHEM_CACTVS_HBOND_DONOR>
3
> <PUBCHEM_CACTVS_ROTATABLE_BOND>
18
> <PUBCHEM_CACTVS_SUBSKEYS>
AAADcfB/vABgAAAAAAAAAAAAAAAAAWLAAAAwYAAAAAAAAFgB/AAAHgQQSAAADTzh3ga/2bPIFgqsAzX3fHDD8LlxCjhJ2L04bJmKNLLg+ZmMYAhulwLY6CeY16IOAAQAAEAAAQAACAAAgAACAAAAAAAAAA==
> <PUBCHEM_IUPAC_OPENEYE_NAME>
5-[[6-[[(2R,3S)-2-hydroxy-4-phenyl-3-(thiazol-5-ylmethoxycarbonylamino)butyl]-isobutyl-sulfamoyl]-1,3-benzothiazol-2-yl]-methyl-amino]-5-oxo-pentanoic acid
> <PUBCHEM_IUPAC_CAS_NAME>
5-[[6-[[(2R,3S)-2-hydroxy-3-[[oxo(5-thiazolylmethoxy)methyl]amino]-4-phenylbutyl]-(2-methylpropyl)sulfamoyl]-1,3-benzothiazol-2-yl]-methylamino]-5-oxopentanoic acid
> <PUBCHEM_IUPAC_NAME_MARKUP>
5-[[6-[[(2<I>R</I>,3<I>S</I>)-2-hydroxy-4-phenyl-3-(1,3-thiazol-5-ylmethoxycarbonylamino)butyl]-(2-methylpropyl)sulfamoyl]-1,3-benzothiazol-2-yl]-methylamino]-5-oxopentanoic acid
> <PUBCHEM_IUPAC_NAME>
5-[[6-[[(2R,3S)-2-hydroxy-4-phenyl-3-(1,3-thiazol-5-ylmethoxycarbonylamino)butyl]-(2-methylpropyl)sulfamoyl]-1,3-benzothiazol-2-yl]-methylamino]-5-oxopentanoic acid
> <PUBCHEM_IUPAC_SYSTEMATIC_NAME>
5-[methyl-[6-[2-methylpropyl-[(2R,3S)-2-oxidanyl-4-phenyl-3-(1,3-thiazol-5-ylmethoxycarbonylamino)butyl]sulfamoyl]-1,3-benzothiazol-2-yl]amino]-5-oxidanylidene-pentanoic acid
> <PUBCHEM_IUPAC_TRADITIONAL_NAME>
5-[[6-[[(2R,3S)-2-hydroxy-4-phenyl-3-(thiazol-5-ylmethoxycarbonylamino)butyl]-isobutyl-sulfamoyl]-1,3-benzothiazol-2-yl]-methyl-amino]-5-keto-valeric acid
> <PUBCHEM_IUPAC_INCHI>
InChI=1S/C32H39N5O8S3/c1-21(2)17-37(18-27(38)26(14-22-8-5-4-6-9-22)35-32(42)45-19-23-16-33-20-46-23)48(43,44)24-12-13-25-28(15-24)47-31(34-25)36(3)29(39)10-7-11-30(40)41/h4-6,8-9,12-13,15-16,20-21,26-27,38H,7,10-11,14,17-19H2,1-3H3,(H,35,42)(H,40,41)/t26-,27+/m0/s1
> <PUBCHEM_IUPAC_INCHIKEY>
VDURQXPMYIVFEX-RRPNLBNLSA-N
> <PUBCHEM_XLOGP3_AA>
4
> <PUBCHEM_EXACT_MASS>
717.19607674
> <PUBCHEM_MOLECULAR_FORMULA>
C32H39N5O8S3
> <PUBCHEM_MOLECULAR_WEIGHT>
717.9
> <PUBCHEM_OPENEYE_CAN_SMILES>
CC(C)CN(CC(C(CC1=CC=CC=C1)NC(=O)OCC2=CN=CS2)O)S(=O)(=O)C3=CC4=C(C=C3)N=C(S4)N(C)C(=O)CCCC(=O)O
> <PUBCHEM_OPENEYE_ISO_SMILES>
CC(C)CN(C[C@H]([C@H](CC1=CC=CC=C1)NC(=O)OCC2=CN=CS2)O)S(=O)(=O)C3=CC4=C(C=C3)N=C(S4)N(C)C(=O)CCCC(=O)O
> <PUBCHEM_CACTVS_TPSA>
244
> <PUBCHEM_MONOISOTOPIC_WEIGHT>
717.19607674
> <PUBCHEM_TOTAL_CHARGE>
0
> <PUBCHEM_HEAVY_ATOM_COUNT>
48
> <PUBCHEM_ATOM_DEF_STEREO_COUNT>
2
> <PUBCHEM_ATOM_UDEF_STEREO_COUNT>
0
> <PUBCHEM_BOND_DEF_STEREO_COUNT>
0
> <PUBCHEM_BOND_UDEF_STEREO_COUNT>
0
> <PUBCHEM_ISOTOPIC_ATOM_COUNT>
0
> <PUBCHEM_COMPONENT_COUNT>
1
> <PUBCHEM_CACTVS_TAUTO_COUNT>
-1
> <PUBCHEM_COORDINATE_TYPE>
1
5
255
> <PUBCHEM_BONDANNOTATIONS>
19  13  6
14  33  8
14  38  8
16  46  8
16  48  8
2  32  8
2  38  8
23  27  8
23  28  8
26  30  8
26  31  8
27  32  8
28  34  8
3  44  8
3  48  8
30  35  8
31  36  8
32  33  8
33  34  8
35  37  8
36  37  8
17  4  6
44  46  8
$$$$
