509707
  -OEChem-10302200282D
102106  0     1  0  0  0  0  0999 V2000
    9.7942   -0.2679    0.0000 S   0  0  0  0  0  0  0  0  0  0  0  0
   13.3385   -0.4632    0.0000 S   0  0  0  0  0  0  0  0  0  0  0  0
    7.1962    1.2320    0.0000 O   0  0  0  0  0  0  0  0  0  0  0  0
    9.2942   -1.1340    0.0000 O   0  0  0  0  0  0  0  0  0  0  0  0
   10.2942    0.5981    0.0000 O   0  0  0  0  0  0  0  0  0  0  0  0
   17.9221   -4.7320    0.0000 O   0  0  0  0  0  0  0  0  0  0  0  0
    6.3301    1.7320    0.0000 O   0  0  0  0  0  0  0  0  0  0  0  0
    4.5981    2.7320    0.0000 O   0  0  0  0  0  0  0  0  0  0  0  0
    8.9282    0.2321    0.0000 N   0  0  3  0  0  0  0  0  0  0  0  0
    5.4641    0.2321    0.0000 N   0  0  0  0  0  0  0  0  0  0  0  0
   16.9221   -3.0000    0.0000 N   0  0  0  0  0  0  0  0  0  0  0  0
   14.9221   -1.2680    0.0000 N   0  0  3  0  0  0  0  0  0  0  0  0
   13.3385   -2.0727    0.0000 N   0  0  0  0  0  0  0  0  0  0  0  0
    7.1962    0.2321    0.0000 C   0  0  2  0  0  0  0  0  0  0  0  0
    8.0622   -0.2679    0.0000 C   0  0  0  0  0  0  0  0  0  0  0  0
    6.3301   -0.2679    0.0000 C   0  0  2  0  0  0  0  0  0  0  0  0
    8.9282    1.2320    0.0000 C   0  0  0  0  0  0  0  0  0  0  0  0
    9.7942    1.7320    0.0000 C   0  0  0  0  0  0  0  0  0  0  0  0
    6.3301   -1.2680    0.0000 C   0  0  0  0  0  0  0  0  0  0  0  0
   10.6603   -0.7679    0.0000 C   0  0  0  0  0  0  0  0  0  0  0  0
    9.7942    2.7320    0.0000 C   0  0  0  0  0  0  0  0  0  0  0  0
   10.6603    1.2320    0.0000 C   0  0  0  0  0  0  0  0  0  0  0  0
    5.4641   -1.7680    0.0000 C   0  0  0  0  0  0  0  0  0  0  0  0
   16.4221   -2.1340    0.0000 C   0  0  0  0  0  0  0  0  0  0  0  0
   11.5263   -0.2679    0.0000 C   0  0  0  0  0  0  0  0  0  0  0  0
   17.9221   -3.0000    0.0000 C   0  0  0  0  0  0  0  0  0  0  0  0
   16.4221   -3.8660    0.0000 C   0  0  0  0  0  0  0  0  0  0  0  0
   10.6603   -1.7680    0.0000 C   0  0  0  0  0  0  0  0  0  0  0  0
   15.4221   -2.1340    0.0000 C   0  0  0  0  0  0  0  0  0  0  0  0
    5.4641    1.2320    0.0000 C   0  0  0  0  0  0  0  0  0  0  0  0
   12.3923   -0.7679    0.0000 C   0  0  0  0  0  0  0  0  0  0  0  0
   18.4221   -3.8660    0.0000 C   0  0  0  0  0  0  0  0  0  0  0  0
   16.9221   -4.7320    0.0000 C   0  0  0  0  0  0  0  0  0  0  0  0
   12.3923   -1.7680    0.0000 C   0  0  0  0  0  0  0  0  0  0  0  0
    5.4641   -2.7680    0.0000 C   0  0  0  0  0  0  0  0  0  0  0  0
    4.5981   -1.2680    0.0000 C   0  0  0  0  0  0  0  0  0  0  0  0
   11.5263   -2.2680    0.0000 C   0  0  0  0  0  0  0  0  0  0  0  0
   13.9221   -1.2680    0.0000 C   0  0  0  0  0  0  0  0  0  0  0  0
    4.5981    1.7320    0.0000 C   0  0  0  0  0  0  0  0  0  0  0  0
    4.5981   -3.2680    0.0000 C   0  0  0  0  0  0  0  0  0  0  0  0
    3.7320   -1.7680    0.0000 C   0  0  0  0  0  0  0  0  0  0  0  0
   15.4221   -0.4019    0.0000 C   0  0  0  0  0  0  0  0  0  0  0  0
    3.7320   -2.7680    0.0000 C   0  0  0  0  0  0  0  0  0  0  0  0
    3.7320    3.2320    0.0000 C   0  0  0  0  0  0  0  0  0  0  0  0
    2.8660    2.7320    0.0000 C   0  0  0  0  0  0  0  0  0  0  0  0
    3.7320    4.2320    0.0000 C   0  0  0  0  0  0  0  0  0  0  0  0
    2.0000    3.2320    0.0000 C   0  0  0  0  0  0  0  0  0  0  0  0
    2.8660    4.7320    0.0000 C   0  0  0  0  0  0  0  0  0  0  0  0
    2.8660    1.7320    0.0000 C   0  0  0  0  0  0  0  0  0  0  0  0
    4.5981    4.7320    0.0000 C   0  0  0  0  0  0  0  0  0  0  0  0
    2.0000    4.2320    0.0000 C   0  0  0  0  0  0  0  0  0  0  0  0
    6.6592    0.5421    0.0000 H   0  0  0  0  0  0  0  0  0  0  0  0
    7.6636   -0.7429    0.0000 H   0  0  0  0  0  0  0  0  0  0  0  0
    8.4607   -0.7429    0.0000 H   0  0  0  0  0  0  0  0  0  0  0  0
    5.7932   -0.5779    0.0000 H   0  0  0  0  0  0  0  0  0  0  0  0
    8.7162    1.8147    0.0000 H   0  0  0  0  0  0  0  0  0  0  0  0
    8.3176    1.1244    0.0000 H   0  0  0  0  0  0  0  0  0  0  0  0
    9.2573    2.0420    0.0000 H   0  0  0  0  0  0  0  0  0  0  0  0
    6.5422   -1.8506    0.0000 H   0  0  0  0  0  0  0  0  0  0  0  0
    6.9407   -1.1603    0.0000 H   0  0  0  0  0  0  0  0  0  0  0  0
    4.9272   -0.0779    0.0000 H   0  0  0  0  0  0  0  0  0  0  0  0
   10.4142    2.7320    0.0000 H   0  0  0  0  0  0  0  0  0  0  0  0
    9.7942    3.3520    0.0000 H   0  0  0  0  0  0  0  0  0  0  0  0
    9.1742    2.7320    0.0000 H   0  0  0  0  0  0  0  0  0  0  0  0
   10.3503    0.6951    0.0000 H   0  0  0  0  0  0  0  0  0  0  0  0
   11.1972    0.9221    0.0000 H   0  0  0  0  0  0  0  0  0  0  0  0
   10.9703    1.7690    0.0000 H   0  0  0  0  0  0  0  0  0  0  0  0
    7.7331    1.5420    0.0000 H   0  0  0  0  0  0  0  0  0  0  0  0
   17.0047   -1.9219    0.0000 H   0  0  0  0  0  0  0  0  0  0  0  0
   16.3145   -1.5234    0.0000 H   0  0  0  0  0  0  0  0  0  0  0  0
   11.5263    0.3521    0.0000 H   0  0  0  0  0  0  0  0  0  0  0  0
   18.5047   -2.7880    0.0000 H   0  0  0  0  0  0  0  0  0  0  0  0
   17.8145   -2.3894    0.0000 H   0  0  0  0  0  0  0  0  0  0  0  0
   15.9472   -3.4675    0.0000 H   0  0  0  0  0  0  0  0  0  0  0  0
   15.9472   -4.2646    0.0000 H   0  0  0  0  0  0  0  0  0  0  0  0
   14.8395   -2.3460    0.0000 H   0  0  0  0  0  0  0  0  0  0  0  0
   15.5298   -2.7446    0.0000 H   0  0  0  0  0  0  0  0  0  0  0  0
   10.1233   -2.0780    0.0000 H   0  0  0  0  0  0  0  0  0  0  0  0
   18.8971   -4.2646    0.0000 H   0  0  0  0  0  0  0  0  0  0  0  0
   18.8971   -3.4675    0.0000 H   0  0  0  0  0  0  0  0  0  0  0  0
   16.3395   -4.9441    0.0000 H   0  0  0  0  0  0  0  0  0  0  0  0
   17.0298   -5.3426    0.0000 H   0  0  0  0  0  0  0  0  0  0  0  0
    6.0010   -3.0780    0.0000 H   0  0  0  0  0  0  0  0  0  0  0  0
    4.5981   -0.6479    0.0000 H   0  0  0  0  0  0  0  0  0  0  0  0
   11.5263   -2.8880    0.0000 H   0  0  0  0  0  0  0  0  0  0  0  0
    3.9875    1.8397    0.0000 H   0  0  0  0  0  0  0  0  0  0  0  0
    4.3860    1.1494    0.0000 H   0  0  0  0  0  0  0  0  0  0  0  0
    4.5981   -3.8880    0.0000 H   0  0  0  0  0  0  0  0  0  0  0  0
    3.1951   -1.4580    0.0000 H   0  0  0  0  0  0  0  0  0  0  0  0
   15.9591   -0.7119    0.0000 H   0  0  0  0  0  0  0  0  0  0  0  0
   15.7321    0.1350    0.0000 H   0  0  0  0  0  0  0  0  0  0  0  0
   14.8852   -0.0919    0.0000 H   0  0  0  0  0  0  0  0  0  0  0  0
    3.1951   -3.0780    0.0000 H   0  0  0  0  0  0  0  0  0  0  0  0
    1.4631    2.9220    0.0000 H   0  0  0  0  0  0  0  0  0  0  0  0
    2.8660    5.3520    0.0000 H   0  0  0  0  0  0  0  0  0  0  0  0
    2.2460    1.7320    0.0000 H   0  0  0  0  0  0  0  0  0  0  0  0
    2.8660    1.1120    0.0000 H   0  0  0  0  0  0  0  0  0  0  0  0
    3.4860    1.7320    0.0000 H   0  0  0  0  0  0  0  0  0  0  0  0
    4.9081    4.1951    0.0000 H   0  0  0  0  0  0  0  0  0  0  0  0
    5.1350    5.0420    0.0000 H   0  0  0  0  0  0  0  0  0  0  0  0
    4.2881    5.2690    0.0000 H   0  0  0  0  0  0  0  0  0  0  0  0
    1.4631    4.5420    0.0000 H   0  0  0  0  0  0  0  0  0  0  0  0
  1  4  2  0  0  0  0
  1  5  2  0  0  0  0
  1  9  1  0  0  0  0
  1 20  1  0  0  0  0
  2 31  1  0  0  0  0
  2 38  1  0  0  0  0
 14  3  1  6  0  0  0
  3 68  1  0  0  0  0
  6 32  1  0  0  0  0
  6 33  1  0  0  0  0
  7 30  2  0  0  0  0
  8 39  1  0  0  0  0
  8 44  1  0  0  0  0
  9 15  1  0  0  0  0
  9 17  1  0  0  0  0
 16 10  1  6  0  0  0
 10 30  1  0  0  0  0
 10 61  1  0  0  0  0
 11 24  1  0  0  0  0
 11 26  1  0  0  0  0
 11 27  1  0  0  0  0
 12 29  1  0  0  0  0
 12 38  1  0  0  0  0
 12 42  1  0  0  0  0
 13 34  1  0  0  0  0
 13 38  2  0  0  0  0
 14 15  1  0  0  0  0
 14 16  1  0  0  0  0
 14 52  1  0  0  0  0
 15 53  1  0  0  0  0
 15 54  1  0  0  0  0
 16 19  1  0  0  0  0
 16 55  1  0  0  0  0
 17 18  1  0  0  0  0
 17 56  1  0  0  0  0
 17 57  1  0  0  0  0
 18 21  1  0  0  0  0
 18 22  1  0  0  0  0
 18 58  1  0  0  0  0
 19 23  1  0  0  0  0
 19 59  1  0  0  0  0
 19 60  1  0  0  0  0
 20 25  2  0  0  0  0
 20 28  1  0  0  0  0
 21 62  1  0  0  0  0
 21 63  1  0  0  0  0
 21 64  1  0  0  0  0
 22 65  1  0  0  0  0
 22 66  1  0  0  0  0
 22 67  1  0  0  0  0
 23 35  2  0  0  0  0
 23 36  1  0  0  0  0
 24 29  1  0  0  0  0
 24 69  1  0  0  0  0
 24 70  1  0  0  0  0
 25 31  1  0  0  0  0
 25 71  1  0  0  0  0
 26 32  1  0  0  0  0
 26 72  1  0  0  0  0
 26 73  1  0  0  0  0
 27 33  1  0  0  0  0
 27 74  1  0  0  0  0
 27 75  1  0  0  0  0
 28 37  2  0  0  0  0
 28 78  1  0  0  0  0
 29 76  1  0  0  0  0
 29 77  1  0  0  0  0
 30 39  1  0  0  0  0
 31 34  2  0  0  0  0
 32 79  1  0  0  0  0
 32 80  1  0  0  0  0
 33 81  1  0  0  0  0
 33 82  1  0  0  0  0
 34 37  1  0  0  0  0
 35 40  1  0  0  0  0
 35 83  1  0  0  0  0
 36 41  2  0  0  0  0
 36 84  1  0  0  0  0
 37 85  1  0  0  0  0
 39 86  1  0  0  0  0
 39 87  1  0  0  0  0
 40 43  2  0  0  0  0
 40 88  1  0  0  0  0
 41 43  1  0  0  0  0
 41 89  1  0  0  0  0
 42 90  1  0  0  0  0
 42 91  1  0  0  0  0
 42 92  1  0  0  0  0
 43 93  1  0  0  0  0
 44 45  2  0  0  0  0
 44 46  1  0  0  0  0
 45 47  1  0  0  0  0
 45 49  1  0  0  0  0
 46 48  2  0  0  0  0
 46 50  1  0  0  0  0
 47 51  2  0  0  0  0
 47 94  1  0  0  0  0
 48 51  1  0  0  0  0
 48 95  1  0  0  0  0
 49 96  1  0  0  0  0
 49 97  1  0  0  0  0
 49 98  1  0  0  0  0
 50 99  1  0  0  0  0
 50100  1  0  0  0  0
 50101  1  0  0  0  0
 51102  1  0  0  0  0
M  END
> <PUBCHEM_COMPOUND_CID>
509707
> <PUBCHEM_COMPOUND_CANONICALIZED>
1
> <PUBCHEM_CACTVS_COMPLEXITY>
1150
> <PUBCHEM_CACTVS_HBOND_ACCEPTOR>
11
> <PUBCHEM_CACTVS_HBOND_DONOR>
2
> <PUBCHEM_CACTVS_ROTATABLE_BOND>
17
> <PUBCHEM_CACTVS_SUBSKEYS>
AAADcfB/uABgAAAAAAAAAAAAAAAAAWAAAAA8YMEAAAAAAFgB9AAAHgQQSAAADTzh3gYz17PIFgqsAyVydHLD+LlhKjhJmLx8bJiOdqLk+Z+XeCjs1hPY6CeQwOAOAAQCAEAIAQAACAQAgBACAAAAAAAAAA==
> <PUBCHEM_IUPAC_OPENEYE_NAME>
N-[(1S,2R)-1-benzyl-2-hydroxy-3-[isobutyl-[[2-[methyl(2-morpholinoethyl)amino]-1,3-benzothiazol-6-yl]sulfonyl]amino]propyl]-2-(2,6-dimethylphenoxy)acetamide
> <PUBCHEM_IUPAC_CAS_NAME>
2-(2,6-dimethylphenoxy)-N-[(2S,3R)-3-hydroxy-4-[[2-[methyl-[2-(4-morpholinyl)ethyl]amino]-1,3-benzothiazol-6-yl]sulfonyl-(2-methylpropyl)amino]-1-phenylbutan-2-yl]acetamide
> <PUBCHEM_IUPAC_NAME_MARKUP>
2-(2,6-dimethylphenoxy)-<I>N</I>-[(2<I>S</I>,3<I>R</I>)-3-hydroxy-4-[[2-[methyl(2-morpholin-4-ylethyl)amino]-1,3-benzothiazol-6-yl]sulfonyl-(2-methylpropyl)amino]-1-phenylbutan-2-yl]acetamide
> <PUBCHEM_IUPAC_NAME>
2-(2,6-dimethylphenoxy)-N-[(2S,3R)-3-hydroxy-4-[[2-[methyl(2-morpholin-4-ylethyl)amino]-1,3-benzothiazol-6-yl]sulfonyl-(2-methylpropyl)amino]-1-phenylbutan-2-yl]acetamide
> <PUBCHEM_IUPAC_SYSTEMATIC_NAME>
2-(2,6-dimethylphenoxy)-N-[(2S,3R)-4-[[2-[methyl(2-morpholin-4-ylethyl)amino]-1,3-benzothiazol-6-yl]sulfonyl-(2-methylpropyl)amino]-3-oxidanyl-1-phenyl-butan-2-yl]ethanamide
> <PUBCHEM_IUPAC_TRADITIONAL_NAME>
N-[(1S,2R)-1-benzyl-2-hydroxy-3-[isobutyl-[[2-[methyl(2-morpholinoethyl)amino]-1,3-benzothiazol-6-yl]sulfonyl]amino]propyl]-2-(2,6-dimethylphenoxy)acetamide
> <PUBCHEM_IUPAC_INCHI>
InChI=1S/C38H51N5O6S2/c1-27(2)24-43(51(46,47)31-14-15-32-35(23-31)50-38(40-32)41(5)16-17-42-18-20-48-21-19-42)25-34(44)33(22-30-12-7-6-8-13-30)39-36(45)26-49-37-28(3)10-9-11-29(37)4/h6-15,23,27,33-34,44H,16-22,24-26H2,1-5H3,(H,39,45)/t33-,34+/m0/s1
> <PUBCHEM_IUPAC_INCHIKEY>
IHMFVOMXHJTAMA-SZAHLOSFSA-N
> <PUBCHEM_XLOGP3_AA>
6.1
> <PUBCHEM_EXACT_MASS>
737.32807671
> <PUBCHEM_MOLECULAR_FORMULA>
C38H51N5O6S2
> <PUBCHEM_MOLECULAR_WEIGHT>
738.0
> <PUBCHEM_OPENEYE_CAN_SMILES>
CC1=C(C(=CC=C1)C)OCC(=O)NC(CC2=CC=CC=C2)C(CN(CC(C)C)S(=O)(=O)C3=CC4=C(C=C3)N=C(S4)N(C)CCN5CCOCC5)O
> <PUBCHEM_OPENEYE_ISO_SMILES>
CC1=C(C(=CC=C1)C)OCC(=O)N[C@@H](CC2=CC=CC=C2)[C@@H](CN(CC(C)C)S(=O)(=O)C3=CC4=C(C=C3)N=C(S4)N(C)CCN5CCOCC5)O
> <PUBCHEM_CACTVS_TPSA>
161
> <PUBCHEM_MONOISOTOPIC_WEIGHT>
737.32807671
> <PUBCHEM_TOTAL_CHARGE>
0
> <PUBCHEM_HEAVY_ATOM_COUNT>
51
> <PUBCHEM_ATOM_DEF_STEREO_COUNT>
2
> <PUBCHEM_ATOM_UDEF_STEREO_COUNT>
0
> <PUBCHEM_BOND_DEF_STEREO_COUNT>
0
> <PUBCHEM_BOND_UDEF_STEREO_COUNT>
0
> <PUBCHEM_ISOTOPIC_ATOM_COUNT>
0
> <PUBCHEM_COMPONENT_COUNT>
1
> <PUBCHEM_CACTVS_TAUTO_COUNT>
-1
> <PUBCHEM_COORDINATE_TYPE>
1
5
255
> <PUBCHEM_BONDANNOTATIONS>
16  10  6
13  34  8
13  38  8
2  31  8
2  38  8
20  25  8
20  28  8
23  35  8
23  36  8
25  31  8
28  37  8
14  3  6
31  34  8
34  37  8
35  40  8
36  41  8
40  43  8
41  43  8
44  45  8
44  46  8
45  47  8
46  48  8
47  51  8
48  51  8
$$$$
