509742
  -OEChem-10302200282D
 85 90  0     1  0  0  0  0  0999 V2000
    9.3056   -1.0605    0.0000 S   0  0  0  0  0  0  0  0  0  0  0  0
   12.8499   -1.2558    0.0000 S   0  0  0  0  0  0  0  0  0  0  0  0
   16.5213   -3.7356    0.0000 S   0  0  0  0  0  0  0  0  0  0  0  0
    4.6095    3.4783    0.0000 O   0  0  0  0  0  0  0  0  0  0  0  0
    2.8037    4.0605    0.0000 O   0  0  0  0  0  0  0  0  0  0  0  0
    4.1095    0.9395    0.0000 O   0  0  0  0  0  0  0  0  0  0  0  0
    6.7075    0.4395    0.0000 O   0  0  0  0  0  0  0  0  0  0  0  0
    5.8415    0.9395    0.0000 O   0  0  0  0  0  0  0  0  0  0  0  0
    8.8056   -1.9266    0.0000 O   0  0  0  0  0  0  0  0  0  0  0  0
    9.8056   -0.1945    0.0000 O   0  0  0  0  0  0  0  0  0  0  0  0
   14.4335   -3.7926    0.0000 O   0  0  0  0  0  0  0  0  0  0  0  0
    4.9755   -0.5605    0.0000 N   0  0  0  0  0  0  0  0  0  0  0  0
    8.4396   -0.5605    0.0000 N   0  0  3  0  0  0  0  0  0  0  0  0
   12.8499   -2.8653    0.0000 N   0  0  0  0  0  0  0  0  0  0  0  0
   14.4335   -2.0605    0.0000 N   0  0  0  0  0  0  0  0  0  0  0  0
   17.4724   -2.4266    0.0000 N   0  0  0  0  0  0  0  0  0  0  0  0
    3.3004    2.5273    0.0000 C   0  0  2  0  0  0  0  0  0  0  0  0
    3.6095    3.4783    0.0000 C   0  0  1  0  0  0  0  0  0  0  0  0
    4.1095    1.9395    0.0000 C   0  0  2  0  0  0  0  0  0  0  0  0
    2.3064    2.5298    0.0000 C   0  0  0  0  0  0  0  0  0  0  0  0
    4.9185    2.5273    0.0000 C   0  0  0  0  0  0  0  0  0  0  0  0
    2.0000    3.4755    0.0000 C   0  0  0  0  0  0  0  0  0  0  0  0
    5.8415   -1.0605    0.0000 C   0  0  2  0  0  0  0  0  0  0  0  0
    4.9755    0.4395    0.0000 C   0  0  0  0  0  0  0  0  0  0  0  0
    6.7075   -0.5605    0.0000 C   0  0  1  0  0  0  0  0  0  0  0  0
    7.5736   -1.0605    0.0000 C   0  0  0  0  0  0  0  0  0  0  0  0
    5.8415   -2.0605    0.0000 C   0  0  0  0  0  0  0  0  0  0  0  0
    8.4396    0.4395    0.0000 C   0  0  0  0  0  0  0  0  0  0  0  0
    9.3056    0.9395    0.0000 C   0  0  0  0  0  0  0  0  0  0  0  0
    4.9755   -2.5605    0.0000 C   0  0  0  0  0  0  0  0  0  0  0  0
   10.1716   -1.5605    0.0000 C   0  0  0  0  0  0  0  0  0  0  0  0
    9.3056    1.9395    0.0000 C   0  0  0  0  0  0  0  0  0  0  0  0
   10.1716    0.4395    0.0000 C   0  0  0  0  0  0  0  0  0  0  0  0
    4.9755   -3.5605    0.0000 C   0  0  0  0  0  0  0  0  0  0  0  0
    4.1095   -2.0605    0.0000 C   0  0  0  0  0  0  0  0  0  0  0  0
   11.0377   -1.0605    0.0000 C   0  0  0  0  0  0  0  0  0  0  0  0
   10.1716   -2.5605    0.0000 C   0  0  0  0  0  0  0  0  0  0  0  0
   11.9037   -1.5605    0.0000 C   0  0  0  0  0  0  0  0  0  0  0  0
    4.1095   -4.0605    0.0000 C   0  0  0  0  0  0  0  0  0  0  0  0
    3.2434   -2.5605    0.0000 C   0  0  0  0  0  0  0  0  0  0  0  0
   11.0377   -3.0605    0.0000 C   0  0  0  0  0  0  0  0  0  0  0  0
   11.9037   -2.5605    0.0000 C   0  0  0  0  0  0  0  0  0  0  0  0
    3.2434   -3.5605    0.0000 C   0  0  0  0  0  0  0  0  0  0  0  0
   13.4335   -2.0605    0.0000 C   0  0  0  0  0  0  0  0  0  0  0  0
   14.9335   -2.9266    0.0000 C   0  0  0  0  0  0  0  0  0  0  0  0
   15.9335   -2.9266    0.0000 C   0  0  0  0  0  0  0  0  0  0  0  0
   16.5213   -2.1175    0.0000 C   0  0  0  0  0  0  0  0  0  0  0  0
   17.4724   -3.4266    0.0000 C   0  0  0  0  0  0  0  0  0  0  0  0
    3.0367    1.7192    0.0000 H   0  0  0  0  0  0  0  0  0  0  0  0
    3.8711    4.2870    0.0000 H   0  0  0  0  0  0  0  0  0  0  0  0
    3.5570    1.6580    0.0000 H   0  0  0  0  0  0  0  0  0  0  0  0
    1.6997    2.4018    0.0000 H   0  0  0  0  0  0  0  0  0  0  0  0
    2.3699    1.9131    0.0000 H   0  0  0  0  0  0  0  0  0  0  0  0
    5.2285    1.9903    0.0000 H   0  0  0  0  0  0  0  0  0  0  0  0
    5.4849    2.7794    0.0000 H   0  0  0  0  0  0  0  0  0  0  0  0
    1.6898    4.0124    0.0000 H   0  0  0  0  0  0  0  0  0  0  0  0
    1.4335    3.2235    0.0000 H   0  0  0  0  0  0  0  0  0  0  0  0
    5.3046   -1.3705    0.0000 H   0  0  0  0  0  0  0  0  0  0  0  0
    7.2445   -0.2505    0.0000 H   0  0  0  0  0  0  0  0  0  0  0  0
    7.1750   -1.5355    0.0000 H   0  0  0  0  0  0  0  0  0  0  0  0
    7.9721   -1.5355    0.0000 H   0  0  0  0  0  0  0  0  0  0  0  0
    4.4386   -0.8705    0.0000 H   0  0  0  0  0  0  0  0  0  0  0  0
    6.0536   -2.6431    0.0000 H   0  0  0  0  0  0  0  0  0  0  0  0
    6.4521   -1.9529    0.0000 H   0  0  0  0  0  0  0  0  0  0  0  0
    8.2275    1.0221    0.0000 H   0  0  0  0  0  0  0  0  0  0  0  0
    7.8290    0.3318    0.0000 H   0  0  0  0  0  0  0  0  0  0  0  0
    8.7687    1.2495    0.0000 H   0  0  0  0  0  0  0  0  0  0  0  0
    7.2445    0.7495    0.0000 H   0  0  0  0  0  0  0  0  0  0  0  0
    9.9256    1.9395    0.0000 H   0  0  0  0  0  0  0  0  0  0  0  0
    9.3056    2.5595    0.0000 H   0  0  0  0  0  0  0  0  0  0  0  0
    8.6856    1.9395    0.0000 H   0  0  0  0  0  0  0  0  0  0  0  0
    9.8616   -0.0975    0.0000 H   0  0  0  0  0  0  0  0  0  0  0  0
   10.7086    0.1295    0.0000 H   0  0  0  0  0  0  0  0  0  0  0  0
   10.4816    0.9764    0.0000 H   0  0  0  0  0  0  0  0  0  0  0  0
    5.5124   -3.8705    0.0000 H   0  0  0  0  0  0  0  0  0  0  0  0
    4.1095   -1.4405    0.0000 H   0  0  0  0  0  0  0  0  0  0  0  0
   11.0377   -0.4405    0.0000 H   0  0  0  0  0  0  0  0  0  0  0  0
    9.6347   -2.8705    0.0000 H   0  0  0  0  0  0  0  0  0  0  0  0
    4.1095   -4.6805    0.0000 H   0  0  0  0  0  0  0  0  0  0  0  0
    2.7065   -2.2505    0.0000 H   0  0  0  0  0  0  0  0  0  0  0  0
   11.0377   -3.6805    0.0000 H   0  0  0  0  0  0  0  0  0  0  0  0
    2.7065   -3.8705    0.0000 H   0  0  0  0  0  0  0  0  0  0  0  0
   14.7435   -1.5236    0.0000 H   0  0  0  0  0  0  0  0  0  0  0  0
   16.3297   -1.5279    0.0000 H   0  0  0  0  0  0  0  0  0  0  0  0
   17.9740   -3.7910    0.0000 H   0  0  0  0  0  0  0  0  0  0  0  0
  1  9  2  0  0  0  0
  1 10  2  0  0  0  0
  1 13  1  0  0  0  0
  1 31  1  0  0  0  0
  2 38  1  0  0  0  0
  2 44  1  0  0  0  0
  3 46  1  0  0  0  0
  3 48  1  0  0  0  0
  4 18  1  0  0  0  0
  4 21  1  0  0  0  0
  5 18  1  0  0  0  0
  5 22  1  0  0  0  0
 19  6  1  6  0  0  0
  6 24  1  0  0  0  0
 25  7  1  6  0  0  0
  7 68  1  0  0  0  0
  8 24  2  0  0  0  0
 11 45  2  0  0  0  0
 23 12  1  6  0  0  0
 12 24  1  0  0  0  0
 12 62  1  0  0  0  0
 13 26  1  0  0  0  0
 13 28  1  0  0  0  0
 14 42  1  0  0  0  0
 14 44  2  0  0  0  0
 15 44  1  0  0  0  0
 15 45  1  0  0  0  0
 15 83  1  0  0  0  0
 16 47  1  0  0  0  0
 16 48  2  0  0  0  0
 17 18  1  0  0  0  0
 17 19  1  0  0  0  0
 17 20  1  0  0  0  0
 17 49  1  1  0  0  0
 18 50  1  1  0  0  0
 19 21  1  0  0  0  0
 19 51  1  0  0  0  0
 20 22  1  0  0  0  0
 20 52  1  0  0  0  0
 20 53  1  0  0  0  0
 21 54  1  0  0  0  0
 21 55  1  0  0  0  0
 22 56  1  0  0  0  0
 22 57  1  0  0  0  0
 23 25  1  0  0  0  0
 23 27  1  0  0  0  0
 23 58  1  0  0  0  0
 25 26  1  0  0  0  0
 25 59  1  0  0  0  0
 26 60  1  0  0  0  0
 26 61  1  0  0  0  0
 27 30  1  0  0  0  0
 27 63  1  0  0  0  0
 27 64  1  0  0  0  0
 28 29  1  0  0  0  0
 28 65  1  0  0  0  0
 28 66  1  0  0  0  0
 29 32  1  0  0  0  0
 29 33  1  0  0  0  0
 29 67  1  0  0  0  0
 30 34  2  0  0  0  0
 30 35  1  0  0  0  0
 31 36  2  0  0  0  0
 31 37  1  0  0  0  0
 32 69  1  0  0  0  0
 32 70  1  0  0  0  0
 32 71  1  0  0  0  0
 33 72  1  0  0  0  0
 33 73  1  0  0  0  0
 33 74  1  0  0  0  0
 34 39  1  0  0  0  0
 34 75  1  0  0  0  0
 35 40  2  0  0  0  0
 35 76  1  0  0  0  0
 36 38  1  0  0  0  0
 36 77  1  0  0  0  0
 37 41  2  0  0  0  0
 37 78  1  0  0  0  0
 38 42  2  0  0  0  0
 39 43  2  0  0  0  0
 39 79  1  0  0  0  0
 40 43  1  0  0  0  0
 40 80  1  0  0  0  0
 41 42  1  0  0  0  0
 41 81  1  0  0  0  0
 43 82  1  0  0  0  0
 45 46  1  0  0  0  0
 46 47  2  0  0  0  0
 47 84  1  0  0  0  0
 48 85  1  0  0  0  0
M  END
> <PUBCHEM_COMPOUND_CID>
509742
> <PUBCHEM_COMPOUND_CANONICALIZED>
1
> <PUBCHEM_CACTVS_COMPLEXITY>
1200
> <PUBCHEM_CACTVS_HBOND_ACCEPTOR>
13
> <PUBCHEM_CACTVS_HBOND_DONOR>
3
> <PUBCHEM_CACTVS_ROTATABLE_BOND>
14
> <PUBCHEM_CACTVS_SUBSKEYS>
AAADcfB/vABgAAAAAAAAAAAAAAAAAWLEiQAwYAAAAAASAFgB/AAAHgQQSAAADTzx3ge/2bLIFgqsAzV3fHDD8Ll1CjlJ2L04ZNmbMKrg2ZGuYIhtlwLeyOfQ4KgOAAQAAEAAAQAACAAAgAACAAAAAAAAAA==
> <PUBCHEM_IUPAC_OPENEYE_NAME>
[(3aS,4R,6aR)-2,3,3a,4,5,6a-hexahydrofuro[2,3-b]furan-4-yl] N-[(1S,2R)-1-benzyl-2-hydroxy-3-[isobutyl-[[2-(thiazole-5-carbonylamino)-1,3-benzothiazol-6-yl]sulfonyl]amino]propyl]carbamate
> <PUBCHEM_IUPAC_CAS_NAME>
N-[(2S,3R)-3-hydroxy-4-[2-methylpropyl-[[2-[[oxo(5-thiazolyl)methyl]amino]-1,3-benzothiazol-6-yl]sulfonyl]amino]-1-phenylbutan-2-yl]carbamic acid [(3aS,4R,6aR)-2,3,3a,4,5,6a-hexahydrofuro[2,3-b]furan-4-yl] ester
> <PUBCHEM_IUPAC_NAME_MARKUP>
[(3<I>a</I><I>S</I>,4<I>R</I>,6<I>a</I><I>R</I>)-2,3,3<I>a</I>,4,5,6<I>a</I>-hexahydrofuro[2,3-b]furan-4-yl] <I>N</I>-[(2<I>S</I>,3<I>R</I>)-3-hydroxy-4-[2-methylpropyl-[[2-(1,3-thiazole-5-carbonylamino)-1,3-benzothiazol-6-yl]sulfonyl]amino]-1-phenylbutan-2-yl]carbamate
> <PUBCHEM_IUPAC_NAME>
[(3aS,4R,6aR)-2,3,3a,4,5,6a-hexahydrofuro[2,3-b]furan-4-yl] N-[(2S,3R)-3-hydroxy-4-[2-methylpropyl-[[2-(1,3-thiazole-5-carbonylamino)-1,3-benzothiazol-6-yl]sulfonyl]amino]-1-phenylbutan-2-yl]carbamate
> <PUBCHEM_IUPAC_SYSTEMATIC_NAME>
[(3aS,4R,6aR)-2,3,3a,4,5,6a-hexahydrofuro[2,3-b]furan-4-yl] N-[(2S,3R)-4-[2-methylpropyl-[[2-(1,3-thiazol-5-ylcarbonylamino)-1,3-benzothiazol-6-yl]sulfonyl]amino]-3-oxidanyl-1-phenyl-butan-2-yl]carbamate
> <PUBCHEM_IUPAC_TRADITIONAL_NAME>
N-[(1S,2R)-1-benzyl-2-hydroxy-3-[isobutyl-[[2-(thiazole-5-carbonylamino)-1,3-benzothiazol-6-yl]sulfonyl]amino]propyl]carbamic acid [(3aS,4R,6aR)-2,3,3a,4,5,6a-hexahydrofuro[2,3-b]furan-4-yl] ester
> <PUBCHEM_IUPAC_INCHI>
InChI=1S/C32H37N5O8S3/c1-19(2)15-37(48(41,42)21-8-9-23-27(13-21)47-31(34-23)36-29(39)28-14-33-18-46-28)16-25(38)24(12-20-6-4-3-5-7-20)35-32(40)45-26-17-44-30-22(26)10-11-43-30/h3-9,13-14,18-19,22,24-26,30,38H,10-12,15-17H2,1-2H3,(H,35,40)(H,34,36,39)/t22-,24-,25+,26-,30+/m0/s1
> <PUBCHEM_IUPAC_INCHIKEY>
WVANLLBSRXMZSF-LIYUXILZSA-N
> <PUBCHEM_XLOGP3_AA>
4.6
> <PUBCHEM_EXACT_MASS>
715.18042668
> <PUBCHEM_MOLECULAR_FORMULA>
C32H37N5O8S3
> <PUBCHEM_MOLECULAR_WEIGHT>
715.9
> <PUBCHEM_OPENEYE_CAN_SMILES>
CC(C)CN(CC(C(CC1=CC=CC=C1)NC(=O)OC2COC3C2CCO3)O)S(=O)(=O)C4=CC5=C(C=C4)N=C(S5)NC(=O)C6=CN=CS6
> <PUBCHEM_OPENEYE_ISO_SMILES>
CC(C)CN(C[C@H]([C@H](CC1=CC=CC=C1)NC(=O)O[C@H]2CO[C@@H]3[C@H]2CCO3)O)S(=O)(=O)C4=CC5=C(C=C4)N=C(S5)NC(=O)C6=CN=CS6
> <PUBCHEM_CACTVS_TPSA>
234
> <PUBCHEM_MONOISOTOPIC_WEIGHT>
715.18042668
> <PUBCHEM_TOTAL_CHARGE>
0
> <PUBCHEM_HEAVY_ATOM_COUNT>
48
> <PUBCHEM_ATOM_DEF_STEREO_COUNT>
5
> <PUBCHEM_ATOM_UDEF_STEREO_COUNT>
0
> <PUBCHEM_BOND_DEF_STEREO_COUNT>
0
> <PUBCHEM_BOND_UDEF_STEREO_COUNT>
0
> <PUBCHEM_ISOTOPIC_ATOM_COUNT>
0
> <PUBCHEM_COMPONENT_COUNT>
1
> <PUBCHEM_CACTVS_TAUTO_COUNT>
-1
> <PUBCHEM_COORDINATE_TYPE>
1
5
255
> <PUBCHEM_BONDANNOTATIONS>
23  12  6
14  42  8
14  44  8
16  47  8
16  48  8
17  49  5
18  50  5
2  38  8
2  44  8
3  46  8
3  48  8
30  34  8
30  35  8
31  36  8
31  37  8
34  39  8
35  40  8
36  38  8
37  41  8
38  42  8
39  43  8
40  43  8
41  42  8
46  47  8
19  6  6
25  7  6
$$$$
