509779
  -OEChem-10302200282D
 51 53  0     1  0  0  0  0  0999 V2000
    2.2560   -6.4554    0.0000 Cl  0  0  0  0  0  0  0  0  0  0  0  0
    2.8357    0.4968    0.0000 S   0  0  0  0  0  0  0  0  0  0  0  0
    4.0544   -2.2404    0.0000 O   0  0  0  0  0  0  0  0  0  0  0  0
    3.5888    2.1119    0.0000 N   0  0  0  0  0  0  0  0  0  0  0  0
    4.4527    0.5533    0.0000 N   0  0  0  0  0  0  0  0  0  0  0  0
    4.1771   -0.4080    0.0000 N   0  0  0  0  0  0  0  0  0  0  0  0
    2.6185   -1.2719    0.0000 N   0  0  0  0  0  0  0  0  0  0  0  0
    7.0219    4.5157    0.0000 C   0  0  0  0  0  0  0  0  0  0  0  0
    5.6230    4.5068    0.0000 C   0  0  3  0  0  0  0  0  0  0  0  0
    5.8818    5.4728    0.0000 C   0  0  3  0  0  0  0  0  0  0  0  0
    5.1452    6.4554    0.0000 C   0  0  0  0  0  0  0  0  0  0  0  0
    4.4019    3.6412    0.0000 C   0  0  1  0  0  0  0  0  0  0  0  0
    3.8485    5.1616    0.0000 C   0  0  0  0  0  0  0  0  0  0  0  0
    3.5729    4.2004    0.0000 C   0  0  0  0  0  0  0  0  0  0  0  0
    7.5219    3.6496    0.0000 C   0  0  0  0  0  0  0  0  0  0  0  0
    7.8879    5.0157    0.0000 C   0  0  0  0  0  0  0  0  0  0  0  0
    4.4368    2.6418    0.0000 C   0  0  0  0  0  0  0  0  0  0  0  0
    3.6237    1.1125    0.0000 C   0  0  0  0  0  0  0  0  0  0  0  0
    3.1777   -0.4429    0.0000 C   0  0  0  0  0  0  0  0  0  0  0  0
    3.0569   -2.1707    0.0000 C   0  0  0  0  0  0  0  0  0  0  0  0
    2.4977   -2.9997    0.0000 C   0  0  0  0  0  0  0  0  0  0  0  0
    2.9360   -3.8985    0.0000 C   0  0  0  0  0  0  0  0  0  0  0  0
    2.3768   -4.7276    0.0000 C   0  0  0  0  0  0  0  0  0  0  0  0
    2.8152   -5.6264    0.0000 C   0  0  0  0  0  0  0  0  0  0  0  0
    5.8130    3.9167    0.0000 H   0  0  0  0  0  0  0  0  0  0  0  0
    6.3321    5.8990    0.0000 H   0  0  0  0  0  0  0  0  0  0  0  0
    5.4630    6.9878    0.0000 H   0  0  0  0  0  0  0  0  0  0  0  0
    4.5320    6.5474    0.0000 H   0  0  0  0  0  0  0  0  0  0  0  0
    3.8597    3.3406    0.0000 H   0  0  0  0  0  0  0  0  0  0  0  0
    3.8435    5.7816    0.0000 H   0  0  0  0  0  0  0  0  0  0  0  0
    3.2342    5.2454    0.0000 H   0  0  0  0  0  0  0  0  0  0  0  0
    2.9980    4.4326    0.0000 H   0  0  0  0  0  0  0  0  0  0  0  0
    3.2818    3.6530    0.0000 H   0  0  0  0  0  0  0  0  0  0  0  0
    6.9850    3.3396    0.0000 H   0  0  0  0  0  0  0  0  0  0  0  0
    7.8319    3.1127    0.0000 H   0  0  0  0  0  0  0  0  0  0  0  0
    8.0588    3.9596    0.0000 H   0  0  0  0  0  0  0  0  0  0  0  0
    8.1979    4.4787    0.0000 H   0  0  0  0  0  0  0  0  0  0  0  0
    8.4248    5.3257    0.0000 H   0  0  0  0  0  0  0  0  0  0  0  0
    7.5779    5.5526    0.0000 H   0  0  0  0  0  0  0  0  0  0  0  0
    4.6691    2.0670    0.0000 H   0  0  0  0  0  0  0  0  0  0  0  0
    5.0433    2.7707    0.0000 H   0  0  0  0  0  0  0  0  0  0  0  0
    3.0414    2.4030    0.0000 H   0  0  0  0  0  0  0  0  0  0  0  0
    2.0000   -1.2286    0.0000 H   0  0  0  0  0  0  0  0  0  0  0  0
    2.0517   -2.5690    0.0000 H   0  0  0  0  0  0  0  0  0  0  0  0
    1.9961   -3.3642    0.0000 H   0  0  0  0  0  0  0  0  0  0  0  0
    3.3820   -4.3292    0.0000 H   0  0  0  0  0  0  0  0  0  0  0  0
    3.4376   -3.5341    0.0000 H   0  0  0  0  0  0  0  0  0  0  0  0
    1.9309   -4.2969    0.0000 H   0  0  0  0  0  0  0  0  0  0  0  0
    1.8753   -5.0920    0.0000 H   0  0  0  0  0  0  0  0  0  0  0  0
    3.2612   -6.0570    0.0000 H   0  0  0  0  0  0  0  0  0  0  0  0
    3.3168   -5.2619    0.0000 H   0  0  0  0  0  0  0  0  0  0  0  0
  1 24  1  0  0  0  0
  2 18  1  0  0  0  0
  2 19  1  0  0  0  0
  3 20  2  0  0  0  0
  4 17  1  0  0  0  0
  4 18  1  0  0  0  0
  4 42  1  0  0  0  0
  5  6  1  0  0  0  0
  5 18  2  0  0  0  0
  6 19  2  0  0  0  0
  7 19  1  0  0  0  0
  7 20  1  0  0  0  0
  7 43  1  0  0  0  0
  8  9  1  0  0  0  0
  8 10  1  0  0  0  0
  8 15  1  0  0  0  0
  8 16  1  0  0  0  0
  9 11  1  0  0  0  0
  9 12  1  0  0  0  0
  9 25  1  0  0  0  0
 10 11  1  0  0  0  0
 10 13  1  0  0  0  0
 10 26  1  0  0  0  0
 11 27  1  0  0  0  0
 11 28  1  0  0  0  0
 12 14  1  0  0  0  0
 12 17  1  6  0  0  0
 12 29  1  0  0  0  0
 13 14  1  0  0  0  0
 13 30  1  0  0  0  0
 13 31  1  0  0  0  0
 14 32  1  0  0  0  0
 14 33  1  0  0  0  0
 15 34  1  0  0  0  0
 15 35  1  0  0  0  0
 15 36  1  0  0  0  0
 16 37  1  0  0  0  0
 16 38  1  0  0  0  0
 16 39  1  0  0  0  0
 17 40  1  0  0  0  0
 17 41  1  0  0  0  0
 20 21  1  0  0  0  0
 21 22  1  0  0  0  0
 21 44  1  0  0  0  0
 21 45  1  0  0  0  0
 22 23  1  0  0  0  0
 22 46  1  0  0  0  0
 22 47  1  0  0  0  0
 23 24  1  0  0  0  0
 23 48  1  0  0  0  0
 23 49  1  0  0  0  0
 24 50  1  0  0  0  0
 24 51  1  0  0  0  0
M  END
> <PUBCHEM_COMPOUND_CID>
509779
> <PUBCHEM_COMPOUND_CANONICALIZED>
1
> <PUBCHEM_CACTVS_COMPLEXITY>
450
> <PUBCHEM_CACTVS_HBOND_ACCEPTOR>
5
> <PUBCHEM_CACTVS_HBOND_DONOR>
2
> <PUBCHEM_CACTVS_ROTATABLE_BOND>
8
> <PUBCHEM_CACTVS_SUBSKEYS>
AAADceB7oABEAAAAAAAAAAAAAABgAWAAAAAwYAAAAAAAAAABgAAAHgYYAAAADwPBgEQDEALAAAguAAEQMAAQAAJAAAkFAIEIAgCAABIBiAAEAAAQEQIAAAEYgMAPgAAAAAAAAACAAAQAACAAAAAAAAAAAA==
> <PUBCHEM_IUPAC_OPENEYE_NAME>
5-chloro-N-[5-[[(2R)-6,6-dimethylnorpinan-2-yl]methylamino]-1,3,4-thiadiazol-2-yl]pentanamide
> <PUBCHEM_IUPAC_CAS_NAME>
5-chloro-N-[5-[[(2R)-6,6-dimethyl-2-bicyclo[3.1.1]heptanyl]methylamino]-1,3,4-thiadiazol-2-yl]pentanamide
> <PUBCHEM_IUPAC_NAME_MARKUP>
5-chloro-<I>N</I>-[5-[[(2<I>R</I>)-6,6-dimethyl-2-bicyclo[3.1.1]heptanyl]methylamino]-1,3,4-thiadiazol-2-yl]pentanamide
> <PUBCHEM_IUPAC_NAME>
5-chloro-N-[5-[[(2R)-6,6-dimethyl-2-bicyclo[3.1.1]heptanyl]methylamino]-1,3,4-thiadiazol-2-yl]pentanamide
> <PUBCHEM_IUPAC_SYSTEMATIC_NAME>
5-chloranyl-N-[5-[[(2R)-6,6-dimethyl-2-bicyclo[3.1.1]heptanyl]methylamino]-1,3,4-thiadiazol-2-yl]pentanamide
> <PUBCHEM_IUPAC_TRADITIONAL_NAME>
5-chloro-N-[5-[[(2R)-6,6-dimethylnorpinan-2-yl]methylamino]-1,3,4-thiadiazol-2-yl]valeramide
> <PUBCHEM_IUPAC_INCHI>
InChI=1S/C17H27ClN4OS/c1-17(2)12-7-6-11(13(17)9-12)10-19-15-21-22-16(24-15)20-14(23)5-3-4-8-18/h11-13H,3-10H2,1-2H3,(H,19,21)(H,20,22,23)/t11-,12?,13?/m0/s1
> <PUBCHEM_IUPAC_INCHIKEY>
OMVFYFDJOFRFDZ-HIFPTAJRSA-N
> <PUBCHEM_XLOGP3_AA>
4.4
> <PUBCHEM_EXACT_MASS>
370.1594104
> <PUBCHEM_MOLECULAR_FORMULA>
C17H27ClN4OS
> <PUBCHEM_MOLECULAR_WEIGHT>
370.9
> <PUBCHEM_OPENEYE_CAN_SMILES>
CC1(C2CCC(C1C2)CNC3=NN=C(S3)NC(=O)CCCCCl)C
> <PUBCHEM_OPENEYE_ISO_SMILES>
CC1(C2CC[C@H](C1C2)CNC3=NN=C(S3)NC(=O)CCCCCl)C
> <PUBCHEM_CACTVS_TPSA>
95.2
> <PUBCHEM_MONOISOTOPIC_WEIGHT>
370.1594104
> <PUBCHEM_TOTAL_CHARGE>
0
> <PUBCHEM_HEAVY_ATOM_COUNT>
24
> <PUBCHEM_ATOM_DEF_STEREO_COUNT>
1
> <PUBCHEM_ATOM_UDEF_STEREO_COUNT>
2
> <PUBCHEM_BOND_DEF_STEREO_COUNT>
0
> <PUBCHEM_BOND_UDEF_STEREO_COUNT>
0
> <PUBCHEM_ISOTOPIC_ATOM_COUNT>
0
> <PUBCHEM_COMPONENT_COUNT>
1
> <PUBCHEM_CACTVS_TAUTO_COUNT>
-1
> <PUBCHEM_COORDINATE_TYPE>
1
5
255
> <PUBCHEM_BONDANNOTATIONS>
10  13  3
12  17  6
2  18  8
2  19  8
5  18  8
5  6  8
6  19  8
9  11  3
$$$$
