509716
  -OEChem-10302200282D
 96 99  0     1  0  0  0  0  0999 V2000
    9.6448   -0.0522    0.0000 S   0  0  0  0  0  0  0  0  0  0  0  0
   13.1891   -0.2474    0.0000 S   0  0  0  0  0  0  0  0  0  0  0  0
    3.4782    4.4423    0.0000 S   0  0  0  0  0  0  0  0  0  0  0  0
    7.0468    1.4478    0.0000 O   0  0  0  0  0  0  0  0  0  0  0  0
    9.1448   -0.9182    0.0000 O   0  0  0  0  0  0  0  0  0  0  0  0
   10.1449    0.8138    0.0000 O   0  0  0  0  0  0  0  0  0  0  0  0
    4.4487    1.9478    0.0000 O   0  0  0  0  0  0  0  0  0  0  0  0
    6.1808    1.9478    0.0000 O   0  0  0  0  0  0  0  0  0  0  0  0
   18.2728   -3.6502    0.0000 O   0  0  0  0  0  0  0  0  0  0  0  0
   18.2728   -1.9182    0.0000 O   0  0  0  0  0  0  0  0  0  0  0  0
    8.7788    0.4478    0.0000 N   0  0  3  0  0  0  0  0  0  0  0  0
    5.3147    0.4478    0.0000 N   0  0  0  0  0  0  0  0  0  0  0  0
   13.1891   -1.8569    0.0000 N   0  0  0  0  0  0  0  0  0  0  0  0
   14.7728   -1.0522    0.0000 N   0  0  0  0  0  0  0  0  0  0  0  0
   16.7728   -2.7842    0.0000 N   0  0  0  0  0  0  0  0  0  0  0  0
    2.0000    3.7842    0.0000 N   0  0  0  0  0  0  0  0  0  0  0  0
    7.0468    0.4478    0.0000 C   0  0  2  0  0  0  0  0  0  0  0  0
    7.9128   -0.0522    0.0000 C   0  0  0  0  0  0  0  0  0  0  0  0
    6.1808   -0.0522    0.0000 C   0  0  2  0  0  0  0  0  0  0  0  0
    8.7788    1.4478    0.0000 C   0  0  0  0  0  0  0  0  0  0  0  0
    9.6448    1.9478    0.0000 C   0  0  0  0  0  0  0  0  0  0  0  0
    6.1808   -1.0522    0.0000 C   0  0  0  0  0  0  0  0  0  0  0  0
   10.5109   -0.5522    0.0000 C   0  0  0  0  0  0  0  0  0  0  0  0
    9.6448    2.9478    0.0000 C   0  0  0  0  0  0  0  0  0  0  0  0
   10.5109    1.4478    0.0000 C   0  0  0  0  0  0  0  0  0  0  0  0
    5.3147   -1.5522    0.0000 C   0  0  0  0  0  0  0  0  0  0  0  0
   11.3769   -0.0522    0.0000 C   0  0  0  0  0  0  0  0  0  0  0  0
   10.5109   -1.5522    0.0000 C   0  0  0  0  0  0  0  0  0  0  0  0
    5.3147    1.4478    0.0000 C   0  0  0  0  0  0  0  0  0  0  0  0
    4.4487   -1.0522    0.0000 C   0  0  0  0  0  0  0  0  0  0  0  0
    5.3147   -2.5522    0.0000 C   0  0  0  0  0  0  0  0  0  0  0  0
   12.2429   -0.5522    0.0000 C   0  0  0  0  0  0  0  0  0  0  0  0
   12.2429   -1.5522    0.0000 C   0  0  0  0  0  0  0  0  0  0  0  0
   11.3769   -2.0522    0.0000 C   0  0  0  0  0  0  0  0  0  0  0  0
    3.5827   -1.5522    0.0000 C   0  0  0  0  0  0  0  0  0  0  0  0
    4.4487   -3.0522    0.0000 C   0  0  0  0  0  0  0  0  0  0  0  0
    3.5827   -2.5522    0.0000 C   0  0  0  0  0  0  0  0  0  0  0  0
   13.7728   -1.0522    0.0000 C   0  0  0  0  0  0  0  0  0  0  0  0
    4.4487    2.9478    0.0000 C   0  0  0  0  0  0  0  0  0  0  0  0
   15.2728   -1.9182    0.0000 C   0  0  0  0  0  0  0  0  0  0  0  0
   16.2728   -1.9182    0.0000 C   0  0  0  0  0  0  0  0  0  0  0  0
   19.2728   -3.6502    0.0000 C   0  0  0  0  0  0  0  0  0  0  0  0
    3.5827    3.4478    0.0000 C   0  0  0  0  0  0  0  0  0  0  0  0
   20.2728   -3.6502    0.0000 C   0  0  0  0  0  0  0  0  0  0  0  0
   19.2728   -4.6502    0.0000 C   0  0  0  0  0  0  0  0  0  0  0  0
   19.2728   -2.6503    0.0000 C   0  0  0  0  0  0  0  0  0  0  0  0
   17.7728   -2.7842    0.0000 C   0  0  0  0  0  0  0  0  0  0  0  0
   16.2728   -3.6502    0.0000 C   0  0  0  0  0  0  0  0  0  0  0  0
    2.6691    3.0411    0.0000 C   0  0  0  0  0  0  0  0  0  0  0  0
    2.5000    4.6502    0.0000 C   0  0  0  0  0  0  0  0  0  0  0  0
    7.5837    0.7578    0.0000 H   0  0  0  0  0  0  0  0  0  0  0  0
    7.5143   -0.5271    0.0000 H   0  0  0  0  0  0  0  0  0  0  0  0
    8.3113   -0.5271    0.0000 H   0  0  0  0  0  0  0  0  0  0  0  0
    6.1808    0.5678    0.0000 H   0  0  0  0  0  0  0  0  0  0  0  0
    8.5668    2.0304    0.0000 H   0  0  0  0  0  0  0  0  0  0  0  0
    8.1682    1.3402    0.0000 H   0  0  0  0  0  0  0  0  0  0  0  0
    9.1079    2.2578    0.0000 H   0  0  0  0  0  0  0  0  0  0  0  0
    6.3928   -1.6348    0.0000 H   0  0  0  0  0  0  0  0  0  0  0  0
    6.7913   -0.9445    0.0000 H   0  0  0  0  0  0  0  0  0  0  0  0
    4.7778    0.1378    0.0000 H   0  0  0  0  0  0  0  0  0  0  0  0
   10.2649    2.9478    0.0000 H   0  0  0  0  0  0  0  0  0  0  0  0
    9.6448    3.5678    0.0000 H   0  0  0  0  0  0  0  0  0  0  0  0
    9.0248    2.9478    0.0000 H   0  0  0  0  0  0  0  0  0  0  0  0
   10.2009    0.9109    0.0000 H   0  0  0  0  0  0  0  0  0  0  0  0
   11.0478    1.1378    0.0000 H   0  0  0  0  0  0  0  0  0  0  0  0
   10.8209    1.9848    0.0000 H   0  0  0  0  0  0  0  0  0  0  0  0
    7.5837    1.7578    0.0000 H   0  0  0  0  0  0  0  0  0  0  0  0
   11.3769    0.5678    0.0000 H   0  0  0  0  0  0  0  0  0  0  0  0
    9.9739   -1.8622    0.0000 H   0  0  0  0  0  0  0  0  0  0  0  0
    4.4487   -0.4322    0.0000 H   0  0  0  0  0  0  0  0  0  0  0  0
    5.8517   -2.8622    0.0000 H   0  0  0  0  0  0  0  0  0  0  0  0
   11.3769   -2.6722    0.0000 H   0  0  0  0  0  0  0  0  0  0  0  0
    3.0457   -1.2422    0.0000 H   0  0  0  0  0  0  0  0  0  0  0  0
    4.4487   -3.6722    0.0000 H   0  0  0  0  0  0  0  0  0  0  0  0
    3.0457   -2.8622    0.0000 H   0  0  0  0  0  0  0  0  0  0  0  0
   15.0828   -0.5152    0.0000 H   0  0  0  0  0  0  0  0  0  0  0  0
    5.0593    2.8402    0.0000 H   0  0  0  0  0  0  0  0  0  0  0  0
    4.6608    3.5304    0.0000 H   0  0  0  0  0  0  0  0  0  0  0  0
   14.6902   -2.1303    0.0000 H   0  0  0  0  0  0  0  0  0  0  0  0
   15.3804   -2.5288    0.0000 H   0  0  0  0  0  0  0  0  0  0  0  0
   16.8554   -1.7062    0.0000 H   0  0  0  0  0  0  0  0  0  0  0  0
   16.1651   -1.3076    0.0000 H   0  0  0  0  0  0  0  0  0  0  0  0
   20.2728   -4.2703    0.0000 H   0  0  0  0  0  0  0  0  0  0  0  0
   20.8928   -3.6502    0.0000 H   0  0  0  0  0  0  0  0  0  0  0  0
   20.2728   -3.0303    0.0000 H   0  0  0  0  0  0  0  0  0  0  0  0
   18.6528   -4.6502    0.0000 H   0  0  0  0  0  0  0  0  0  0  0  0
   19.2728   -5.2702    0.0000 H   0  0  0  0  0  0  0  0  0  0  0  0
   19.8928   -4.6502    0.0000 H   0  0  0  0  0  0  0  0  0  0  0  0
   19.8928   -2.6503    0.0000 H   0  0  0  0  0  0  0  0  0  0  0  0
   19.2728   -2.0303    0.0000 H   0  0  0  0  0  0  0  0  0  0  0  0
   18.6528   -2.6503    0.0000 H   0  0  0  0  0  0  0  0  0  0  0  0
   15.7358   -3.3403    0.0000 H   0  0  0  0  0  0  0  0  0  0  0  0
   15.9628   -4.1872    0.0000 H   0  0  0  0  0  0  0  0  0  0  0  0
   16.8097   -3.9602    0.0000 H   0  0  0  0  0  0  0  0  0  0  0  0
    2.5402    2.4346    0.0000 H   0  0  0  0  0  0  0  0  0  0  0  0
    2.2478    5.2166    0.0000 H   0  0  0  0  0  0  0  0  0  0  0  0
  1  5  2  0  0  0  0
  1  6  2  0  0  0  0
  1 11  1  0  0  0  0
  1 23  1  0  0  0  0
  2 32  1  0  0  0  0
  2 38  1  0  0  0  0
  3 43  1  0  0  0  0
  3 50  1  0  0  0  0
 17  4  1  6  0  0  0
  4 67  1  0  0  0  0
  7 29  1  0  0  0  0
  7 39  1  0  0  0  0
  8 29  2  0  0  0  0
  9 42  1  0  0  0  0
  9 47  1  0  0  0  0
 10 47  2  0  0  0  0
 11 18  1  0  0  0  0
 11 20  1  0  0  0  0
 19 12  1  6  0  0  0
 12 29  1  0  0  0  0
 12 60  1  0  0  0  0
 13 33  1  0  0  0  0
 13 38  2  0  0  0  0
 14 38  1  0  0  0  0
 14 40  1  0  0  0  0
 14 76  1  0  0  0  0
 15 41  1  0  0  0  0
 15 47  1  0  0  0  0
 15 48  1  0  0  0  0
 16 49  1  0  0  0  0
 16 50  2  0  0  0  0
 17 18  1  0  0  0  0
 17 19  1  0  0  0  0
 17 51  1  0  0  0  0
 18 52  1  0  0  0  0
 18 53  1  0  0  0  0
 19 22  1  0  0  0  0
 19 54  1  0  0  0  0
 20 21  1  0  0  0  0
 20 55  1  0  0  0  0
 20 56  1  0  0  0  0
 21 24  1  0  0  0  0
 21 25  1  0  0  0  0
 21 57  1  0  0  0  0
 22 26  1  0  0  0  0
 22 58  1  0  0  0  0
 22 59  1  0  0  0  0
 23 27  2  0  0  0  0
 23 28  1  0  0  0  0
 24 61  1  0  0  0  0
 24 62  1  0  0  0  0
 24 63  1  0  0  0  0
 25 64  1  0  0  0  0
 25 65  1  0  0  0  0
 25 66  1  0  0  0  0
 26 30  2  0  0  0  0
 26 31  1  0  0  0  0
 27 32  1  0  0  0  0
 27 68  1  0  0  0  0
 28 34  2  0  0  0  0
 28 69  1  0  0  0  0
 30 35  1  0  0  0  0
 30 70  1  0  0  0  0
 31 36  2  0  0  0  0
 31 71  1  0  0  0  0
 32 33  2  0  0  0  0
 33 34  1  0  0  0  0
 34 72  1  0  0  0  0
 35 37  2  0  0  0  0
 35 73  1  0  0  0  0
 36 37  1  0  0  0  0
 36 74  1  0  0  0  0
 37 75  1  0  0  0  0
 39 43  1  0  0  0  0
 39 77  1  0  0  0  0
 39 78  1  0  0  0  0
 40 41  1  0  0  0  0
 40 79  1  0  0  0  0
 40 80  1  0  0  0  0
 41 81  1  0  0  0  0
 41 82  1  0  0  0  0
 42 44  1  0  0  0  0
 42 45  1  0  0  0  0
 42 46  1  0  0  0  0
 43 49  2  0  0  0  0
 44 83  1  0  0  0  0
 44 84  1  0  0  0  0
 44 85  1  0  0  0  0
 45 86  1  0  0  0  0
 45 87  1  0  0  0  0
 45 88  1  0  0  0  0
 46 89  1  0  0  0  0
 46 90  1  0  0  0  0
 46 91  1  0  0  0  0
 48 92  1  0  0  0  0
 48 93  1  0  0  0  0
 48 94  1  0  0  0  0
 49 95  1  0  0  0  0
 50 96  1  0  0  0  0
M  END
> <PUBCHEM_COMPOUND_CID>
509716
> <PUBCHEM_COMPOUND_CANONICALIZED>
1
> <PUBCHEM_CACTVS_COMPLEXITY>
1180
> <PUBCHEM_CACTVS_HBOND_ACCEPTOR>
13
> <PUBCHEM_CACTVS_HBOND_DONOR>
3
> <PUBCHEM_CACTVS_ROTATABLE_BOND>
19
> <PUBCHEM_CACTVS_SUBSKEYS>
AAADcfB/uABgAAAAAAAAAAAAAAAAAWLAAAAwYAAAAAAAAFgB/AAAHgQQSAAADXzh3ga/2bPIFgqsAzRnfHDD8LlxCjlJ2Lw4bJmKdKLg+ZmcYAhulgLY6CeQwKAOAAQAAEAAAQAACAAAgAACAAAAAAAAAA==
> <PUBCHEM_IUPAC_OPENEYE_NAME>
tert-butyl N-[2-[[6-[[(2R,3S)-2-hydroxy-4-phenyl-3-(thiazol-5-ylmethoxycarbonylamino)butyl]-isobutyl-sulfamoyl]-1,3-benzothiazol-2-yl]amino]ethyl]-N-methyl-carbamate
> <PUBCHEM_IUPAC_CAS_NAME>
N-[2-[[6-[[(2R,3S)-2-hydroxy-3-[[oxo(5-thiazolylmethoxy)methyl]amino]-4-phenylbutyl]-(2-methylpropyl)sulfamoyl]-1,3-benzothiazol-2-yl]amino]ethyl]-N-methylcarbamic acid tert-butyl ester
> <PUBCHEM_IUPAC_NAME_MARKUP>
<I>tert</I>-butyl <I>N</I>-[2-[[6-[[(2<I>R</I>,3<I>S</I>)-2-hydroxy-4-phenyl-3-(1,3-thiazol-5-ylmethoxycarbonylamino)butyl]-(2-methylpropyl)sulfamoyl]-1,3-benzothiazol-2-yl]amino]ethyl]-<I>N</I>-methylcarbamate
> <PUBCHEM_IUPAC_NAME>
tert-butyl N-[2-[[6-[[(2R,3S)-2-hydroxy-4-phenyl-3-(1,3-thiazol-5-ylmethoxycarbonylamino)butyl]-(2-methylpropyl)sulfamoyl]-1,3-benzothiazol-2-yl]amino]ethyl]-N-methylcarbamate
> <PUBCHEM_IUPAC_SYSTEMATIC_NAME>
tert-butyl N-methyl-N-[2-[[6-[2-methylpropyl-[(2R,3S)-2-oxidanyl-4-phenyl-3-(1,3-thiazol-5-ylmethoxycarbonylamino)butyl]sulfamoyl]-1,3-benzothiazol-2-yl]amino]ethyl]carbamate
> <PUBCHEM_IUPAC_TRADITIONAL_NAME>
N-[2-[[6-[[(2R,3S)-2-hydroxy-4-phenyl-3-(thiazol-5-ylmethoxycarbonylamino)butyl]-isobutyl-sulfamoyl]-1,3-benzothiazol-2-yl]amino]ethyl]-N-methyl-carbamic acid tert-butyl ester
> <PUBCHEM_IUPAC_INCHI>
InChI=1S/C34H46N6O7S3/c1-23(2)19-40(20-29(41)28(16-24-10-8-7-9-11-24)38-32(42)46-21-25-18-35-22-48-25)50(44,45)26-12-13-27-30(17-26)49-31(37-27)36-14-15-39(6)33(43)47-34(3,4)5/h7-13,17-18,22-23,28-29,41H,14-16,19-21H2,1-6H3,(H,36,37)(H,38,42)/t28-,29+/m0/s1
> <PUBCHEM_IUPAC_INCHIKEY>
QDLGEIJNAHMBMA-URLMMPGGSA-N
> <PUBCHEM_XLOGP3_AA>
5.7
> <PUBCHEM_EXACT_MASS>
746.25901135
> <PUBCHEM_MOLECULAR_FORMULA>
C34H46N6O7S3
> <PUBCHEM_MOLECULAR_WEIGHT>
747.0
> <PUBCHEM_OPENEYE_CAN_SMILES>
CC(C)CN(CC(C(CC1=CC=CC=C1)NC(=O)OCC2=CN=CS2)O)S(=O)(=O)C3=CC4=C(C=C3)N=C(S4)NCCN(C)C(=O)OC(C)(C)C
> <PUBCHEM_OPENEYE_ISO_SMILES>
CC(C)CN(C[C@H]([C@H](CC1=CC=CC=C1)NC(=O)OCC2=CN=CS2)O)S(=O)(=O)C3=CC4=C(C=C3)N=C(S4)NCCN(C)C(=O)OC(C)(C)C
> <PUBCHEM_CACTVS_TPSA>
228
> <PUBCHEM_MONOISOTOPIC_WEIGHT>
746.25901135
> <PUBCHEM_TOTAL_CHARGE>
0
> <PUBCHEM_HEAVY_ATOM_COUNT>
50
> <PUBCHEM_ATOM_DEF_STEREO_COUNT>
2
> <PUBCHEM_ATOM_UDEF_STEREO_COUNT>
0
> <PUBCHEM_BOND_DEF_STEREO_COUNT>
0
> <PUBCHEM_BOND_UDEF_STEREO_COUNT>
0
> <PUBCHEM_ISOTOPIC_ATOM_COUNT>
0
> <PUBCHEM_COMPONENT_COUNT>
1
> <PUBCHEM_CACTVS_TAUTO_COUNT>
-1
> <PUBCHEM_COORDINATE_TYPE>
1
5
255
> <PUBCHEM_BONDANNOTATIONS>
19  12  6
13  33  8
13  38  8
16  49  8
16  50  8
2  32  8
2  38  8
23  27  8
23  28  8
26  30  8
26  31  8
27  32  8
28  34  8
3  43  8
3  50  8
30  35  8
31  36  8
32  33  8
33  34  8
35  37  8
36  37  8
17  4  6
43  49  8
$$$$
