509715
  -OEChem-10302200282D
 86 89  0     1  0  0  0  0  0999 V2000
    8.0622   -0.4704    0.0000 S   0  0  0  0  0  0  0  0  0  0  0  0
   11.6065   -0.6656    0.0000 S   0  0  0  0  0  0  0  0  0  0  0  0
    5.4641    1.0296    0.0000 O   0  0  0  0  0  0  0  0  0  0  0  0
    2.8660    1.5296    0.0000 O   0  0  0  0  0  0  0  0  0  0  0  0
    7.5622   -1.3364    0.0000 O   0  0  0  0  0  0  0  0  0  0  0  0
    8.5622    0.3956    0.0000 O   0  0  0  0  0  0  0  0  0  0  0  0
    3.3660    4.0685    0.0000 O   0  0  0  0  0  0  0  0  0  0  0  0
    4.5981    1.5296    0.0000 O   0  0  0  0  0  0  0  0  0  0  0  0
    7.1962    0.0296    0.0000 N   0  0  3  0  0  0  0  0  0  0  0  0
    3.7320    0.0296    0.0000 N   0  0  0  0  0  0  0  0  0  0  0  0
   11.6065   -2.2751    0.0000 N   0  0  0  0  0  0  0  0  0  0  0  0
   13.1901   -1.4704    0.0000 N   0  0  0  0  0  0  0  0  0  0  0  0
   15.1901   -3.2024    0.0000 N   0  0  0  0  0  0  0  0  0  0  0  0
    5.4641    0.0296    0.0000 C   0  0  1  0  0  0  0  0  0  0  0  0
    4.5981   -0.4704    0.0000 C   0  0  2  0  0  0  0  0  0  0  0  0
    6.3301   -0.4704    0.0000 C   0  0  0  0  0  0  0  0  0  0  0  0
    7.1962    1.0296    0.0000 C   0  0  0  0  0  0  0  0  0  0  0  0
    8.0622    1.5296    0.0000 C   0  0  0  0  0  0  0  0  0  0  0  0
    4.5981   -1.4704    0.0000 C   0  0  0  0  0  0  0  0  0  0  0  0
    8.9282   -0.9704    0.0000 C   0  0  0  0  0  0  0  0  0  0  0  0
    3.7320   -1.9704    0.0000 C   0  0  0  0  0  0  0  0  0  0  0  0
    2.8660    2.5296    0.0000 C   0  0  1  0  0  0  0  0  0  0  0  0
    8.0622    2.5296    0.0000 C   0  0  0  0  0  0  0  0  0  0  0  0
    8.9282    1.0296    0.0000 C   0  0  0  0  0  0  0  0  0  0  0  0
    2.0570    3.1174    0.0000 C   0  0  0  0  0  0  0  0  0  0  0  0
    3.7320    1.0296    0.0000 C   0  0  0  0  0  0  0  0  0  0  0  0
    3.6750    3.1174    0.0000 C   0  0  0  0  0  0  0  0  0  0  0  0
    2.3660    4.0685    0.0000 C   0  0  0  0  0  0  0  0  0  0  0  0
    9.7942   -0.4704    0.0000 C   0  0  0  0  0  0  0  0  0  0  0  0
    8.9282   -1.9704    0.0000 C   0  0  0  0  0  0  0  0  0  0  0  0
    3.7320   -2.9704    0.0000 C   0  0  0  0  0  0  0  0  0  0  0  0
    2.8660   -1.4704    0.0000 C   0  0  0  0  0  0  0  0  0  0  0  0
   10.6603   -0.9704    0.0000 C   0  0  0  0  0  0  0  0  0  0  0  0
    9.7942   -2.4704    0.0000 C   0  0  0  0  0  0  0  0  0  0  0  0
   10.6603   -1.9704    0.0000 C   0  0  0  0  0  0  0  0  0  0  0  0
    2.8660   -3.4704    0.0000 C   0  0  0  0  0  0  0  0  0  0  0  0
    2.0000   -1.9704    0.0000 C   0  0  0  0  0  0  0  0  0  0  0  0
    2.0000   -2.9704    0.0000 C   0  0  0  0  0  0  0  0  0  0  0  0
   12.1901   -1.4704    0.0000 C   0  0  0  0  0  0  0  0  0  0  0  0
   13.6901   -2.3364    0.0000 C   0  0  0  0  0  0  0  0  0  0  0  0
   14.6901   -2.3364    0.0000 C   0  0  0  0  0  0  0  0  0  0  0  0
   16.1901   -3.2024    0.0000 C   0  0  0  0  0  0  0  0  0  0  0  0
   14.6901   -4.0685    0.0000 C   0  0  0  0  0  0  0  0  0  0  0  0
    6.0010    0.3396    0.0000 H   0  0  0  0  0  0  0  0  0  0  0  0
    4.5981    0.1496    0.0000 H   0  0  0  0  0  0  0  0  0  0  0  0
    5.9316   -0.9453    0.0000 H   0  0  0  0  0  0  0  0  0  0  0  0
    6.7287   -0.9453    0.0000 H   0  0  0  0  0  0  0  0  0  0  0  0
    6.9841    1.6122    0.0000 H   0  0  0  0  0  0  0  0  0  0  0  0
    6.5856    0.9220    0.0000 H   0  0  0  0  0  0  0  0  0  0  0  0
    8.0622    0.9096    0.0000 H   0  0  0  0  0  0  0  0  0  0  0  0
    4.8101   -2.0530    0.0000 H   0  0  0  0  0  0  0  0  0  0  0  0
    5.2087   -1.3627    0.0000 H   0  0  0  0  0  0  0  0  0  0  0  0
    3.1951   -0.2804    0.0000 H   0  0  0  0  0  0  0  0  0  0  0  0
    3.4184    2.2481    0.0000 H   0  0  0  0  0  0  0  0  0  0  0  0
    8.6822    2.5296    0.0000 H   0  0  0  0  0  0  0  0  0  0  0  0
    8.0622    3.1496    0.0000 H   0  0  0  0  0  0  0  0  0  0  0  0
    7.4422    2.5296    0.0000 H   0  0  0  0  0  0  0  0  0  0  0  0
    8.6182    0.4927    0.0000 H   0  0  0  0  0  0  0  0  0  0  0  0
    9.4651    0.7196    0.0000 H   0  0  0  0  0  0  0  0  0  0  0  0
    9.2382    1.5666    0.0000 H   0  0  0  0  0  0  0  0  0  0  0  0
    6.0010    1.3396    0.0000 H   0  0  0  0  0  0  0  0  0  0  0  0
    1.4906    3.3696    0.0000 H   0  0  0  0  0  0  0  0  0  0  0  0
    1.7470    2.5805    0.0000 H   0  0  0  0  0  0  0  0  0  0  0  0
    3.9850    2.5805    0.0000 H   0  0  0  0  0  0  0  0  0  0  0  0
    4.2414    3.3696    0.0000 H   0  0  0  0  0  0  0  0  0  0  0  0
    2.4308    4.6851    0.0000 H   0  0  0  0  0  0  0  0  0  0  0  0
    1.7596    4.1974    0.0000 H   0  0  0  0  0  0  0  0  0  0  0  0
    9.7942    0.1496    0.0000 H   0  0  0  0  0  0  0  0  0  0  0  0
    8.3913   -2.2804    0.0000 H   0  0  0  0  0  0  0  0  0  0  0  0
    4.2690   -3.2804    0.0000 H   0  0  0  0  0  0  0  0  0  0  0  0
    2.8660   -0.8504    0.0000 H   0  0  0  0  0  0  0  0  0  0  0  0
    9.7942   -3.0904    0.0000 H   0  0  0  0  0  0  0  0  0  0  0  0
    2.8660   -4.0904    0.0000 H   0  0  0  0  0  0  0  0  0  0  0  0
    1.4631   -1.6604    0.0000 H   0  0  0  0  0  0  0  0  0  0  0  0
    1.4631   -3.2804    0.0000 H   0  0  0  0  0  0  0  0  0  0  0  0
   13.5001   -0.9334    0.0000 H   0  0  0  0  0  0  0  0  0  0  0  0
   13.1075   -2.5485    0.0000 H   0  0  0  0  0  0  0  0  0  0  0  0
   13.7977   -2.9470    0.0000 H   0  0  0  0  0  0  0  0  0  0  0  0
   15.2727   -2.1244    0.0000 H   0  0  0  0  0  0  0  0  0  0  0  0
   14.5824   -1.7258    0.0000 H   0  0  0  0  0  0  0  0  0  0  0  0
   16.1901   -3.8224    0.0000 H   0  0  0  0  0  0  0  0  0  0  0  0
   16.8101   -3.2024    0.0000 H   0  0  0  0  0  0  0  0  0  0  0  0
   16.1901   -2.5824    0.0000 H   0  0  0  0  0  0  0  0  0  0  0  0
   14.1531   -3.7585    0.0000 H   0  0  0  0  0  0  0  0  0  0  0  0
   14.3801   -4.6054    0.0000 H   0  0  0  0  0  0  0  0  0  0  0  0
   15.2270   -4.3785    0.0000 H   0  0  0  0  0  0  0  0  0  0  0  0
  1  5  2  0  0  0  0
  1  6  2  0  0  0  0
  1  9  1  0  0  0  0
  1 20  1  0  0  0  0
  2 33  1  0  0  0  0
  2 39  1  0  0  0  0
 14  3  1  6  0  0  0
  3 61  1  0  0  0  0
 22  4  1  1  0  0  0
  4 26  1  0  0  0  0
  7 27  1  0  0  0  0
  7 28  1  0  0  0  0
  8 26  2  0  0  0  0
  9 16  1  0  0  0  0
  9 17  1  0  0  0  0
 15 10  1  6  0  0  0
 10 26  1  0  0  0  0
 10 53  1  0  0  0  0
 11 35  1  0  0  0  0
 11 39  2  0  0  0  0
 12 39  1  0  0  0  0
 12 40  1  0  0  0  0
 12 76  1  0  0  0  0
 13 41  1  0  0  0  0
 13 42  1  0  0  0  0
 13 43  1  0  0  0  0
 14 15  1  0  0  0  0
 14 16  1  0  0  0  0
 14 44  1  0  0  0  0
 15 19  1  0  0  0  0
 15 45  1  0  0  0  0
 16 46  1  0  0  0  0
 16 47  1  0  0  0  0
 17 18  1  0  0  0  0
 17 48  1  0  0  0  0
 17 49  1  0  0  0  0
 18 23  1  0  0  0  0
 18 24  1  0  0  0  0
 18 50  1  0  0  0  0
 19 21  1  0  0  0  0
 19 51  1  0  0  0  0
 19 52  1  0  0  0  0
 20 29  2  0  0  0  0
 20 30  1  0  0  0  0
 21 31  2  0  0  0  0
 21 32  1  0  0  0  0
 22 25  1  0  0  0  0
 22 27  1  0  0  0  0
 22 54  1  0  0  0  0
 23 55  1  0  0  0  0
 23 56  1  0  0  0  0
 23 57  1  0  0  0  0
 24 58  1  0  0  0  0
 24 59  1  0  0  0  0
 24 60  1  0  0  0  0
 25 28  1  0  0  0  0
 25 62  1  0  0  0  0
 25 63  1  0  0  0  0
 27 64  1  0  0  0  0
 27 65  1  0  0  0  0
 28 66  1  0  0  0  0
 28 67  1  0  0  0  0
 29 33  1  0  0  0  0
 29 68  1  0  0  0  0
 30 34  2  0  0  0  0
 30 69  1  0  0  0  0
 31 36  1  0  0  0  0
 31 70  1  0  0  0  0
 32 37  2  0  0  0  0
 32 71  1  0  0  0  0
 33 35  2  0  0  0  0
 34 35  1  0  0  0  0
 34 72  1  0  0  0  0
 36 38  2  0  0  0  0
 36 73  1  0  0  0  0
 37 38  1  0  0  0  0
 37 74  1  0  0  0  0
 38 75  1  0  0  0  0
 40 41  1  0  0  0  0
 40 77  1  0  0  0  0
 40 78  1  0  0  0  0
 41 79  1  0  0  0  0
 41 80  1  0  0  0  0
 42 81  1  0  0  0  0
 42 82  1  0  0  0  0
 42 83  1  0  0  0  0
 43 84  1  0  0  0  0
 43 85  1  0  0  0  0
 43 86  1  0  0  0  0
M  END
> <PUBCHEM_COMPOUND_CID>
509715
> <PUBCHEM_COMPOUND_CANONICALIZED>
1
> <PUBCHEM_CACTVS_COMPLEXITY>
961
> <PUBCHEM_CACTVS_HBOND_ACCEPTOR>
11
> <PUBCHEM_CACTVS_HBOND_DONOR>
3
> <PUBCHEM_CACTVS_ROTATABLE_BOND>
16
> <PUBCHEM_CACTVS_SUBSKEYS>
AAADcfB7uABgAAAAAAAAAAAAAAAAAWJAAAAwYAAAAAAAAFgB9AAAHgQQSAAADTzh3gYz2bPIFgqsAyRifHDD8LlhCjlJmLw4ZJmLcKLg2ZGeYAhtlgLayCeQwKAOAAQAAEAAAQAACAAAgAACAAAAAAAAAA==
> <PUBCHEM_IUPAC_OPENEYE_NAME>
[(3S)-tetrahydrofuran-3-yl] N-[(1S,2R)-1-benzyl-3-[[2-[2-(dimethylamino)ethylamino]-1,3-benzothiazol-6-yl]sulfonyl-isobutyl-amino]-2-hydroxy-propyl]carbamate
> <PUBCHEM_IUPAC_CAS_NAME>
N-[(2S,3R)-4-[[2-[2-(dimethylamino)ethylamino]-1,3-benzothiazol-6-yl]sulfonyl-(2-methylpropyl)amino]-3-hydroxy-1-phenylbutan-2-yl]carbamic acid [(3S)-3-oxolanyl] ester
> <PUBCHEM_IUPAC_NAME_MARKUP>
[(3<I>S</I>)-oxolan-3-yl] <I>N</I>-[(2<I>S</I>,3<I>R</I>)-4-[[2-[2-(dimethylamino)ethylamino]-1,3-benzothiazol-6-yl]sulfonyl-(2-methylpropyl)amino]-3-hydroxy-1-phenylbutan-2-yl]carbamate
> <PUBCHEM_IUPAC_NAME>
[(3S)-oxolan-3-yl] N-[(2S,3R)-4-[[2-[2-(dimethylamino)ethylamino]-1,3-benzothiazol-6-yl]sulfonyl-(2-methylpropyl)amino]-3-hydroxy-1-phenylbutan-2-yl]carbamate
> <PUBCHEM_IUPAC_SYSTEMATIC_NAME>
[(3S)-oxolan-3-yl] N-[(2S,3R)-4-[[2-[2-(dimethylamino)ethylamino]-1,3-benzothiazol-6-yl]sulfonyl-(2-methylpropyl)amino]-3-oxidanyl-1-phenyl-butan-2-yl]carbamate
> <PUBCHEM_IUPAC_TRADITIONAL_NAME>
N-[(1S,2R)-1-benzyl-3-[[2-[2-(dimethylamino)ethylamino]-1,3-benzothiazol-6-yl]sulfonyl-isobutyl-amino]-2-hydroxy-propyl]carbamic acid [(3S)-tetrahydrofuran-3-yl] ester
> <PUBCHEM_IUPAC_INCHI>
InChI=1S/C30H43N5O6S2/c1-21(2)18-35(43(38,39)24-10-11-25-28(17-24)42-29(32-25)31-13-14-34(3)4)19-27(36)26(16-22-8-6-5-7-9-22)33-30(37)41-23-12-15-40-20-23/h5-11,17,21,23,26-27,36H,12-16,18-20H2,1-4H3,(H,31,32)(H,33,37)/t23-,26-,27+/m0/s1
> <PUBCHEM_IUPAC_INCHIKEY>
KRLZUGUOORSXFA-MSLLRLGPSA-N
> <PUBCHEM_XLOGP3_AA>
4.4
> <PUBCHEM_EXACT_MASS>
633.26547646
> <PUBCHEM_MOLECULAR_FORMULA>
C30H43N5O6S2
> <PUBCHEM_MOLECULAR_WEIGHT>
633.8
> <PUBCHEM_OPENEYE_CAN_SMILES>
CC(C)CN(CC(C(CC1=CC=CC=C1)NC(=O)OC2CCOC2)O)S(=O)(=O)C3=CC4=C(C=C3)N=C(S4)NCCN(C)C
> <PUBCHEM_OPENEYE_ISO_SMILES>
CC(C)CN(C[C@H]([C@H](CC1=CC=CC=C1)NC(=O)O[C@H]2CCOC2)O)S(=O)(=O)C3=CC4=C(C=C3)N=C(S4)NCCN(C)C
> <PUBCHEM_CACTVS_TPSA>
170
> <PUBCHEM_MONOISOTOPIC_WEIGHT>
633.26547646
> <PUBCHEM_TOTAL_CHARGE>
0
> <PUBCHEM_HEAVY_ATOM_COUNT>
43
> <PUBCHEM_ATOM_DEF_STEREO_COUNT>
3
> <PUBCHEM_ATOM_UDEF_STEREO_COUNT>
0
> <PUBCHEM_BOND_DEF_STEREO_COUNT>
0
> <PUBCHEM_BOND_UDEF_STEREO_COUNT>
0
> <PUBCHEM_ISOTOPIC_ATOM_COUNT>
0
> <PUBCHEM_COMPONENT_COUNT>
1
> <PUBCHEM_CACTVS_TAUTO_COUNT>
-1
> <PUBCHEM_COORDINATE_TYPE>
1
5
255
> <PUBCHEM_BONDANNOTATIONS>
15  10  6
11  35  8
11  39  8
2  33  8
2  39  8
20  29  8
20  30  8
21  31  8
21  32  8
29  33  8
14  3  6
30  34  8
31  36  8
32  37  8
33  35  8
34  35  8
36  38  8
37  38  8
22  4  5
$$$$
