509708
  -OEChem-10302200282D
104108  0     1  0  0  0  0  0999 V2000
    9.7942   -0.7295    0.0000 S   0  0  0  0  0  0  0  0  0  0  0  0
   13.3385   -0.9247    0.0000 S   0  0  0  0  0  0  0  0  0  0  0  0
    7.1962    0.7705    0.0000 O   0  0  0  0  0  0  0  0  0  0  0  0
    9.2942   -1.5955    0.0000 O   0  0  0  0  0  0  0  0  0  0  0  0
   10.2942    0.1366    0.0000 O   0  0  0  0  0  0  0  0  0  0  0  0
    6.3301    1.2705    0.0000 O   0  0  0  0  0  0  0  0  0  0  0  0
    4.5981    2.2705    0.0000 O   0  0  0  0  0  0  0  0  0  0  0  0
   17.9221   -3.4615    0.0000 N   0  0  0  0  0  0  0  0  0  0  0  0
    8.9282   -0.2295    0.0000 N   0  0  3  0  0  0  0  0  0  0  0  0
    5.4641   -0.2295    0.0000 N   0  0  0  0  0  0  0  0  0  0  0  0
   14.9221   -1.7295    0.0000 N   0  0  3  0  0  0  0  0  0  0  0  0
   13.3385   -2.5342    0.0000 N   0  0  0  0  0  0  0  0  0  0  0  0
   18.5099   -4.2705    0.0000 C   0  0  0  0  0  0  0  0  0  0  0  0
   18.5099   -2.6525    0.0000 C   0  0  0  0  0  0  0  0  0  0  0  0
   19.4610   -3.9615    0.0000 C   0  0  0  0  0  0  0  0  0  0  0  0
   19.4610   -2.9615    0.0000 C   0  0  0  0  0  0  0  0  0  0  0  0
   16.9221   -3.4615    0.0000 C   0  0  0  0  0  0  0  0  0  0  0  0
    7.1962   -0.2295    0.0000 C   0  0  2  0  0  0  0  0  0  0  0  0
   16.4221   -2.5955    0.0000 C   0  0  0  0  0  0  0  0  0  0  0  0
    8.0622   -0.7295    0.0000 C   0  0  0  0  0  0  0  0  0  0  0  0
    6.3301   -0.7295    0.0000 C   0  0  2  0  0  0  0  0  0  0  0  0
    8.9282    0.7705    0.0000 C   0  0  0  0  0  0  0  0  0  0  0  0
    9.7942    1.2705    0.0000 C   0  0  0  0  0  0  0  0  0  0  0  0
   15.4221   -2.5955    0.0000 C   0  0  0  0  0  0  0  0  0  0  0  0
    6.3301   -1.7295    0.0000 C   0  0  0  0  0  0  0  0  0  0  0  0
   10.6603   -1.2295    0.0000 C   0  0  0  0  0  0  0  0  0  0  0  0
    9.7942    2.2705    0.0000 C   0  0  0  0  0  0  0  0  0  0  0  0
   10.6603    0.7705    0.0000 C   0  0  0  0  0  0  0  0  0  0  0  0
    5.4641   -2.2295    0.0000 C   0  0  0  0  0  0  0  0  0  0  0  0
   13.9221   -1.7295    0.0000 C   0  0  0  0  0  0  0  0  0  0  0  0
   11.5263   -0.7295    0.0000 C   0  0  0  0  0  0  0  0  0  0  0  0
   12.3923   -1.2295    0.0000 C   0  0  0  0  0  0  0  0  0  0  0  0
   10.6603   -2.2295    0.0000 C   0  0  0  0  0  0  0  0  0  0  0  0
   12.3923   -2.2295    0.0000 C   0  0  0  0  0  0  0  0  0  0  0  0
   15.4221   -0.8634    0.0000 C   0  0  0  0  0  0  0  0  0  0  0  0
    5.4641    0.7705    0.0000 C   0  0  0  0  0  0  0  0  0  0  0  0
   11.5263   -2.7295    0.0000 C   0  0  0  0  0  0  0  0  0  0  0  0
    5.4641   -3.2295    0.0000 C   0  0  0  0  0  0  0  0  0  0  0  0
    4.5981   -1.7295    0.0000 C   0  0  0  0  0  0  0  0  0  0  0  0
    4.5981    1.2705    0.0000 C   0  0  0  0  0  0  0  0  0  0  0  0
    4.5981   -3.7295    0.0000 C   0  0  0  0  0  0  0  0  0  0  0  0
    3.7320   -2.2295    0.0000 C   0  0  0  0  0  0  0  0  0  0  0  0
    3.7320   -3.2295    0.0000 C   0  0  0  0  0  0  0  0  0  0  0  0
    3.7320    2.7705    0.0000 C   0  0  0  0  0  0  0  0  0  0  0  0
    3.7320    3.7705    0.0000 C   0  0  0  0  0  0  0  0  0  0  0  0
    2.8660    2.2705    0.0000 C   0  0  0  0  0  0  0  0  0  0  0  0
    2.8660    4.2705    0.0000 C   0  0  0  0  0  0  0  0  0  0  0  0
    2.0000    2.7705    0.0000 C   0  0  0  0  0  0  0  0  0  0  0  0
    4.5981    4.2705    0.0000 C   0  0  0  0  0  0  0  0  0  0  0  0
    2.8660    1.2705    0.0000 C   0  0  0  0  0  0  0  0  0  0  0  0
    2.0000    3.7705    0.0000 C   0  0  0  0  0  0  0  0  0  0  0  0
   17.9730   -4.5805    0.0000 H   0  0  0  0  0  0  0  0  0  0  0  0
   18.7621   -4.8369    0.0000 H   0  0  0  0  0  0  0  0  0  0  0  0
   18.7621   -2.0861    0.0000 H   0  0  0  0  0  0  0  0  0  0  0  0
   17.9730   -2.3425    0.0000 H   0  0  0  0  0  0  0  0  0  0  0  0
   19.5899   -4.5680    0.0000 H   0  0  0  0  0  0  0  0  0  0  0  0
   20.0776   -3.8967    0.0000 H   0  0  0  0  0  0  0  0  0  0  0  0
   20.0776   -3.0263    0.0000 H   0  0  0  0  0  0  0  0  0  0  0  0
   19.5899   -2.3551    0.0000 H   0  0  0  0  0  0  0  0  0  0  0  0
   16.3395   -3.6736    0.0000 H   0  0  0  0  0  0  0  0  0  0  0  0
   17.0298   -4.0721    0.0000 H   0  0  0  0  0  0  0  0  0  0  0  0
    6.6592    0.0805    0.0000 H   0  0  0  0  0  0  0  0  0  0  0  0
    7.6636   -1.2044    0.0000 H   0  0  0  0  0  0  0  0  0  0  0  0
    8.4607   -1.2044    0.0000 H   0  0  0  0  0  0  0  0  0  0  0  0
   17.0047   -2.3834    0.0000 H   0  0  0  0  0  0  0  0  0  0  0  0
   16.3145   -1.9849    0.0000 H   0  0  0  0  0  0  0  0  0  0  0  0
    5.7932   -1.0395    0.0000 H   0  0  0  0  0  0  0  0  0  0  0  0
    8.7162    1.3531    0.0000 H   0  0  0  0  0  0  0  0  0  0  0  0
    8.3176    0.6629    0.0000 H   0  0  0  0  0  0  0  0  0  0  0  0
    9.2573    1.5805    0.0000 H   0  0  0  0  0  0  0  0  0  0  0  0
   14.8395   -2.8075    0.0000 H   0  0  0  0  0  0  0  0  0  0  0  0
   15.5298   -3.2061    0.0000 H   0  0  0  0  0  0  0  0  0  0  0  0
    6.5422   -2.3121    0.0000 H   0  0  0  0  0  0  0  0  0  0  0  0
    6.9407   -1.6218    0.0000 H   0  0  0  0  0  0  0  0  0  0  0  0
    4.9272   -0.5395    0.0000 H   0  0  0  0  0  0  0  0  0  0  0  0
   10.4142    2.2705    0.0000 H   0  0  0  0  0  0  0  0  0  0  0  0
    9.7942    2.8905    0.0000 H   0  0  0  0  0  0  0  0  0  0  0  0
    9.1742    2.2705    0.0000 H   0  0  0  0  0  0  0  0  0  0  0  0
   10.3503    0.2336    0.0000 H   0  0  0  0  0  0  0  0  0  0  0  0
   11.1972    0.4605    0.0000 H   0  0  0  0  0  0  0  0  0  0  0  0
   10.9703    1.3075    0.0000 H   0  0  0  0  0  0  0  0  0  0  0  0
    7.7331    1.0805    0.0000 H   0  0  0  0  0  0  0  0  0  0  0  0
   11.5263   -0.1095    0.0000 H   0  0  0  0  0  0  0  0  0  0  0  0
   10.1233   -2.5395    0.0000 H   0  0  0  0  0  0  0  0  0  0  0  0
   15.9591   -1.1734    0.0000 H   0  0  0  0  0  0  0  0  0  0  0  0
   15.7321   -0.3265    0.0000 H   0  0  0  0  0  0  0  0  0  0  0  0
   14.8852   -0.5534    0.0000 H   0  0  0  0  0  0  0  0  0  0  0  0
   11.5263   -3.3495    0.0000 H   0  0  0  0  0  0  0  0  0  0  0  0
    6.0010   -3.5395    0.0000 H   0  0  0  0  0  0  0  0  0  0  0  0
    4.5981   -1.1095    0.0000 H   0  0  0  0  0  0  0  0  0  0  0  0
    3.9875    1.3782    0.0000 H   0  0  0  0  0  0  0  0  0  0  0  0
    4.3860    0.6879    0.0000 H   0  0  0  0  0  0  0  0  0  0  0  0
    4.5981   -4.3495    0.0000 H   0  0  0  0  0  0  0  0  0  0  0  0
    3.1951   -1.9195    0.0000 H   0  0  0  0  0  0  0  0  0  0  0  0
    3.1951   -3.5395    0.0000 H   0  0  0  0  0  0  0  0  0  0  0  0
    2.8660    4.8905    0.0000 H   0  0  0  0  0  0  0  0  0  0  0  0
    1.4631    2.4605    0.0000 H   0  0  0  0  0  0  0  0  0  0  0  0
    4.9081    3.7336    0.0000 H   0  0  0  0  0  0  0  0  0  0  0  0
    5.1350    4.5805    0.0000 H   0  0  0  0  0  0  0  0  0  0  0  0
    4.2881    4.8075    0.0000 H   0  0  0  0  0  0  0  0  0  0  0  0
    2.2460    1.2705    0.0000 H   0  0  0  0  0  0  0  0  0  0  0  0
    2.8660    0.6505    0.0000 H   0  0  0  0  0  0  0  0  0  0  0  0
    3.4860    1.2705    0.0000 H   0  0  0  0  0  0  0  0  0  0  0  0
    1.4631    4.0805    0.0000 H   0  0  0  0  0  0  0  0  0  0  0  0
  1  4  2  0  0  0  0
  1  5  2  0  0  0  0
  1  9  1  0  0  0  0
  1 26  1  0  0  0  0
  2 30  1  0  0  0  0
  2 32  1  0  0  0  0
 18  3  1  6  0  0  0
  3 82  1  0  0  0  0
  6 36  2  0  0  0  0
  7 40  1  0  0  0  0
  7 44  1  0  0  0  0
  8 13  1  0  0  0  0
  8 14  1  0  0  0  0
  8 17  1  0  0  0  0
  9 20  1  0  0  0  0
  9 22  1  0  0  0  0
 21 10  1  6  0  0  0
 10 36  1  0  0  0  0
 10 75  1  0  0  0  0
 11 24  1  0  0  0  0
 11 30  1  0  0  0  0
 11 35  1  0  0  0  0
 12 30  2  0  0  0  0
 12 34  1  0  0  0  0
 13 15  1  0  0  0  0
 13 52  1  0  0  0  0
 13 53  1  0  0  0  0
 14 16  1  0  0  0  0
 14 54  1  0  0  0  0
 14 55  1  0  0  0  0
 15 16  1  0  0  0  0
 15 56  1  0  0  0  0
 15 57  1  0  0  0  0
 16 58  1  0  0  0  0
 16 59  1  0  0  0  0
 17 19  1  0  0  0  0
 17 60  1  0  0  0  0
 17 61  1  0  0  0  0
 18 20  1  0  0  0  0
 18 21  1  0  0  0  0
 18 62  1  0  0  0  0
 19 24  1  0  0  0  0
 19 65  1  0  0  0  0
 19 66  1  0  0  0  0
 20 63  1  0  0  0  0
 20 64  1  0  0  0  0
 21 25  1  0  0  0  0
 21 67  1  0  0  0  0
 22 23  1  0  0  0  0
 22 68  1  0  0  0  0
 22 69  1  0  0  0  0
 23 27  1  0  0  0  0
 23 28  1  0  0  0  0
 23 70  1  0  0  0  0
 24 71  1  0  0  0  0
 24 72  1  0  0  0  0
 25 29  1  0  0  0  0
 25 73  1  0  0  0  0
 25 74  1  0  0  0  0
 26 31  2  0  0  0  0
 26 33  1  0  0  0  0
 27 76  1  0  0  0  0
 27 77  1  0  0  0  0
 27 78  1  0  0  0  0
 28 79  1  0  0  0  0
 28 80  1  0  0  0  0
 28 81  1  0  0  0  0
 29 38  2  0  0  0  0
 29 39  1  0  0  0  0
 31 32  1  0  0  0  0
 31 83  1  0  0  0  0
 32 34  2  0  0  0  0
 33 37  2  0  0  0  0
 33 84  1  0  0  0  0
 34 37  1  0  0  0  0
 35 85  1  0  0  0  0
 35 86  1  0  0  0  0
 35 87  1  0  0  0  0
 36 40  1  0  0  0  0
 37 88  1  0  0  0  0
 38 41  1  0  0  0  0
 38 89  1  0  0  0  0
 39 42  2  0  0  0  0
 39 90  1  0  0  0  0
 40 91  1  0  0  0  0
 40 92  1  0  0  0  0
 41 43  2  0  0  0  0
 41 93  1  0  0  0  0
 42 43  1  0  0  0  0
 42 94  1  0  0  0  0
 43 95  1  0  0  0  0
 44 45  2  0  0  0  0
 44 46  1  0  0  0  0
 45 47  1  0  0  0  0
 45 49  1  0  0  0  0
 46 48  2  0  0  0  0
 46 50  1  0  0  0  0
 47 51  2  0  0  0  0
 47 96  1  0  0  0  0
 48 51  1  0  0  0  0
 48 97  1  0  0  0  0
 49 98  1  0  0  0  0
 49 99  1  0  0  0  0
 49100  1  0  0  0  0
 50101  1  0  0  0  0
 50102  1  0  0  0  0
 50103  1  0  0  0  0
 51104  1  0  0  0  0
M  END
> <PUBCHEM_COMPOUND_CID>
509708
> <PUBCHEM_COMPOUND_CANONICALIZED>
1
> <PUBCHEM_CACTVS_COMPLEXITY>
1150
> <PUBCHEM_CACTVS_HBOND_ACCEPTOR>
10
> <PUBCHEM_CACTVS_HBOND_DONOR>
2
> <PUBCHEM_CACTVS_ROTATABLE_BOND>
18
> <PUBCHEM_CACTVS_SUBSKEYS>
AAADcfB/uABgAAAAAAAAAAAAAAAAAWLAAAAwYMAAAAAAAFgB9AAAHgQQSAAADTzh3gYz17PIFgqsAyVydHLD+LlhKjhJmLx8bJiONqLk+Z+HeCjs1hPY6CeQwOAOAAQCAEAIAQAACAQAgBACAAAAAAAAAA==
> <PUBCHEM_IUPAC_OPENEYE_NAME>
N-[(1S,2R)-1-benzyl-2-hydroxy-3-[isobutyl-[[2-[methyl(3-pyrrolidin-1-ylpropyl)amino]-1,3-benzothiazol-6-yl]sulfonyl]amino]propyl]-2-(2,6-dimethylphenoxy)acetamide
> <PUBCHEM_IUPAC_CAS_NAME>
2-(2,6-dimethylphenoxy)-N-[(2S,3R)-3-hydroxy-4-[2-methylpropyl-[[2-[methyl-[3-(1-pyrrolidinyl)propyl]amino]-1,3-benzothiazol-6-yl]sulfonyl]amino]-1-phenylbutan-2-yl]acetamide
> <PUBCHEM_IUPAC_NAME_MARKUP>
2-(2,6-dimethylphenoxy)-<I>N</I>-[(2<I>S</I>,3<I>R</I>)-3-hydroxy-4-[2-methylpropyl-[[2-[methyl(3-pyrrolidin-1-ylpropyl)amino]-1,3-benzothiazol-6-yl]sulfonyl]amino]-1-phenylbutan-2-yl]acetamide
> <PUBCHEM_IUPAC_NAME>
2-(2,6-dimethylphenoxy)-N-[(2S,3R)-3-hydroxy-4-[2-methylpropyl-[[2-[methyl(3-pyrrolidin-1-ylpropyl)amino]-1,3-benzothiazol-6-yl]sulfonyl]amino]-1-phenylbutan-2-yl]acetamide
> <PUBCHEM_IUPAC_SYSTEMATIC_NAME>
2-(2,6-dimethylphenoxy)-N-[(2S,3R)-4-[2-methylpropyl-[[2-[methyl(3-pyrrolidin-1-ylpropyl)amino]-1,3-benzothiazol-6-yl]sulfonyl]amino]-3-oxidanyl-1-phenyl-butan-2-yl]ethanamide
> <PUBCHEM_IUPAC_TRADITIONAL_NAME>
N-[(1S,2R)-1-benzyl-2-hydroxy-3-[isobutyl-[[2-[methyl(3-pyrrolidinopropyl)amino]-1,3-benzothiazol-6-yl]sulfonyl]amino]propyl]-2-(2,6-dimethylphenoxy)acetamide
> <PUBCHEM_IUPAC_INCHI>
InChI=1S/C39H53N5O5S2/c1-28(2)25-44(51(47,48)32-17-18-33-36(24-32)50-39(41-33)42(5)19-12-22-43-20-9-10-21-43)26-35(45)34(23-31-15-7-6-8-16-31)40-37(46)27-49-38-29(3)13-11-14-30(38)4/h6-8,11,13-18,24,28,34-35,45H,9-10,12,19-23,25-27H2,1-5H3,(H,40,46)/t34-,35+/m0/s1
> <PUBCHEM_IUPAC_INCHIKEY>
RMECLDXNWQORPS-OIDHKYIRSA-N
> <PUBCHEM_XLOGP3_AA>
7.3
> <PUBCHEM_EXACT_MASS>
735.34881216
> <PUBCHEM_MOLECULAR_FORMULA>
C39H53N5O5S2
> <PUBCHEM_MOLECULAR_WEIGHT>
736.0
> <PUBCHEM_OPENEYE_CAN_SMILES>
CC1=C(C(=CC=C1)C)OCC(=O)NC(CC2=CC=CC=C2)C(CN(CC(C)C)S(=O)(=O)C3=CC4=C(C=C3)N=C(S4)N(C)CCCN5CCCC5)O
> <PUBCHEM_OPENEYE_ISO_SMILES>
CC1=C(C(=CC=C1)C)OCC(=O)N[C@@H](CC2=CC=CC=C2)[C@@H](CN(CC(C)C)S(=O)(=O)C3=CC4=C(C=C3)N=C(S4)N(C)CCCN5CCCC5)O
> <PUBCHEM_CACTVS_TPSA>
152
> <PUBCHEM_MONOISOTOPIC_WEIGHT>
735.34881216
> <PUBCHEM_TOTAL_CHARGE>
0
> <PUBCHEM_HEAVY_ATOM_COUNT>
51
> <PUBCHEM_ATOM_DEF_STEREO_COUNT>
2
> <PUBCHEM_ATOM_UDEF_STEREO_COUNT>
0
> <PUBCHEM_BOND_DEF_STEREO_COUNT>
0
> <PUBCHEM_BOND_UDEF_STEREO_COUNT>
0
> <PUBCHEM_ISOTOPIC_ATOM_COUNT>
0
> <PUBCHEM_COMPONENT_COUNT>
1
> <PUBCHEM_CACTVS_TAUTO_COUNT>
-1
> <PUBCHEM_COORDINATE_TYPE>
1
5
255
> <PUBCHEM_BONDANNOTATIONS>
21  10  6
12  30  8
12  34  8
2  30  8
2  32  8
26  31  8
26  33  8
29  38  8
29  39  8
18  3  6
31  32  8
32  34  8
33  37  8
34  37  8
38  41  8
39  42  8
41  43  8
42  43  8
44  45  8
44  46  8
45  47  8
46  48  8
47  51  8
48  51  8
$$$$
