509703
  -OEChem-10302200282D
 93 96  0     1  0  0  0  0  0999 V2000
    9.7942   -0.7010    0.0000 S   0  0  0  0  0  0  0  0  0  0  0  0
   13.3385   -0.8962    0.0000 S   0  0  0  0  0  0  0  0  0  0  0  0
    7.1962    0.7990    0.0000 O   0  0  0  0  0  0  0  0  0  0  0  0
    9.2942   -1.5670    0.0000 O   0  0  0  0  0  0  0  0  0  0  0  0
   10.2942    0.1651    0.0000 O   0  0  0  0  0  0  0  0  0  0  0  0
    6.3301    1.2990    0.0000 O   0  0  0  0  0  0  0  0  0  0  0  0
    4.5981    2.2990    0.0000 O   0  0  0  0  0  0  0  0  0  0  0  0
   18.4221   -2.5670    0.0000 O   0  0  0  0  0  0  0  0  0  0  0  0
    8.9282   -0.2010    0.0000 N   0  0  3  0  0  0  0  0  0  0  0  0
    5.4641   -0.2010    0.0000 N   0  0  0  0  0  0  0  0  0  0  0  0
   13.3385   -2.5057    0.0000 N   0  0  0  0  0  0  0  0  0  0  0  0
   14.9221   -1.7010    0.0000 N   0  0  0  0  0  0  0  0  0  0  0  0
   16.9221   -3.4330    0.0000 N   0  0  0  0  0  0  0  0  0  0  0  0
    7.1962   -0.2010    0.0000 C   0  0  2  0  0  0  0  0  0  0  0  0
    8.0622   -0.7010    0.0000 C   0  0  0  0  0  0  0  0  0  0  0  0
    6.3301   -0.7010    0.0000 C   0  0  2  0  0  0  0  0  0  0  0  0
    8.9282    0.7990    0.0000 C   0  0  0  0  0  0  0  0  0  0  0  0
    9.7942    1.2990    0.0000 C   0  0  0  0  0  0  0  0  0  0  0  0
    6.3301   -1.7010    0.0000 C   0  0  0  0  0  0  0  0  0  0  0  0
   10.6603   -1.2010    0.0000 C   0  0  0  0  0  0  0  0  0  0  0  0
    5.4641   -2.2010    0.0000 C   0  0  0  0  0  0  0  0  0  0  0  0
    9.7942    2.2990    0.0000 C   0  0  0  0  0  0  0  0  0  0  0  0
   10.6603    0.7990    0.0000 C   0  0  0  0  0  0  0  0  0  0  0  0
    5.4641    0.7990    0.0000 C   0  0  0  0  0  0  0  0  0  0  0  0
   11.5263   -0.7010    0.0000 C   0  0  0  0  0  0  0  0  0  0  0  0
   10.6603   -2.2010    0.0000 C   0  0  0  0  0  0  0  0  0  0  0  0
    5.4641   -3.2010    0.0000 C   0  0  0  0  0  0  0  0  0  0  0  0
    4.5981   -1.7010    0.0000 C   0  0  0  0  0  0  0  0  0  0  0  0
   12.3923   -1.2010    0.0000 C   0  0  0  0  0  0  0  0  0  0  0  0
    4.5981    1.2990    0.0000 C   0  0  0  0  0  0  0  0  0  0  0  0
   11.5263   -2.7010    0.0000 C   0  0  0  0  0  0  0  0  0  0  0  0
   12.3923   -2.2010    0.0000 C   0  0  0  0  0  0  0  0  0  0  0  0
    4.5981   -3.7010    0.0000 C   0  0  0  0  0  0  0  0  0  0  0  0
    3.7320   -2.2010    0.0000 C   0  0  0  0  0  0  0  0  0  0  0  0
    3.7320   -3.2010    0.0000 C   0  0  0  0  0  0  0  0  0  0  0  0
   13.9221   -1.7010    0.0000 C   0  0  0  0  0  0  0  0  0  0  0  0
    3.7320    2.7990    0.0000 C   0  0  0  0  0  0  0  0  0  0  0  0
   15.4221   -2.5670    0.0000 C   0  0  0  0  0  0  0  0  0  0  0  0
    2.8660    2.2990    0.0000 C   0  0  0  0  0  0  0  0  0  0  0  0
    3.7320    3.7990    0.0000 C   0  0  0  0  0  0  0  0  0  0  0  0
   16.4221   -2.5670    0.0000 C   0  0  0  0  0  0  0  0  0  0  0  0
    2.0000    2.7990    0.0000 C   0  0  0  0  0  0  0  0  0  0  0  0
    2.8660    4.2990    0.0000 C   0  0  0  0  0  0  0  0  0  0  0  0
    2.8660    1.2990    0.0000 C   0  0  0  0  0  0  0  0  0  0  0  0
    4.5981    4.2990    0.0000 C   0  0  0  0  0  0  0  0  0  0  0  0
    2.0000    3.7990    0.0000 C   0  0  0  0  0  0  0  0  0  0  0  0
   17.9221   -3.4330    0.0000 C   0  0  0  0  0  0  0  0  0  0  0  0
   18.4221   -4.2990    0.0000 C   0  0  0  0  0  0  0  0  0  0  0  0
    6.6592    0.1090    0.0000 H   0  0  0  0  0  0  0  0  0  0  0  0
    7.6636   -1.1759    0.0000 H   0  0  0  0  0  0  0  0  0  0  0  0
    8.4607   -1.1759    0.0000 H   0  0  0  0  0  0  0  0  0  0  0  0
    5.7932   -1.0110    0.0000 H   0  0  0  0  0  0  0  0  0  0  0  0
    8.7162    1.3816    0.0000 H   0  0  0  0  0  0  0  0  0  0  0  0
    8.3176    0.6914    0.0000 H   0  0  0  0  0  0  0  0  0  0  0  0
    9.2573    1.6090    0.0000 H   0  0  0  0  0  0  0  0  0  0  0  0
    6.5422   -2.2836    0.0000 H   0  0  0  0  0  0  0  0  0  0  0  0
    6.9407   -1.5933    0.0000 H   0  0  0  0  0  0  0  0  0  0  0  0
    4.9272   -0.5110    0.0000 H   0  0  0  0  0  0  0  0  0  0  0  0
   10.4142    2.2990    0.0000 H   0  0  0  0  0  0  0  0  0  0  0  0
    9.7942    2.9190    0.0000 H   0  0  0  0  0  0  0  0  0  0  0  0
    9.1742    2.2990    0.0000 H   0  0  0  0  0  0  0  0  0  0  0  0
   10.3503    0.2621    0.0000 H   0  0  0  0  0  0  0  0  0  0  0  0
   11.1972    0.4890    0.0000 H   0  0  0  0  0  0  0  0  0  0  0  0
   10.9703    1.3360    0.0000 H   0  0  0  0  0  0  0  0  0  0  0  0
    7.7331    1.1090    0.0000 H   0  0  0  0  0  0  0  0  0  0  0  0
   11.5263   -0.0810    0.0000 H   0  0  0  0  0  0  0  0  0  0  0  0
   10.1233   -2.5110    0.0000 H   0  0  0  0  0  0  0  0  0  0  0  0
    6.0010   -3.5110    0.0000 H   0  0  0  0  0  0  0  0  0  0  0  0
    4.5981   -1.0810    0.0000 H   0  0  0  0  0  0  0  0  0  0  0  0
    3.9875    1.4067    0.0000 H   0  0  0  0  0  0  0  0  0  0  0  0
    4.3860    0.7164    0.0000 H   0  0  0  0  0  0  0  0  0  0  0  0
   11.5263   -3.3210    0.0000 H   0  0  0  0  0  0  0  0  0  0  0  0
    4.5981   -4.3210    0.0000 H   0  0  0  0  0  0  0  0  0  0  0  0
    3.1951   -1.8910    0.0000 H   0  0  0  0  0  0  0  0  0  0  0  0
    3.1951   -3.5110    0.0000 H   0  0  0  0  0  0  0  0  0  0  0  0
   15.2321   -1.1640    0.0000 H   0  0  0  0  0  0  0  0  0  0  0  0
   14.8395   -2.7790    0.0000 H   0  0  0  0  0  0  0  0  0  0  0  0
   15.5298   -3.1776    0.0000 H   0  0  0  0  0  0  0  0  0  0  0  0
   17.0047   -2.3549    0.0000 H   0  0  0  0  0  0  0  0  0  0  0  0
   16.3145   -1.9564    0.0000 H   0  0  0  0  0  0  0  0  0  0  0  0
    1.4631    2.4890    0.0000 H   0  0  0  0  0  0  0  0  0  0  0  0
    2.8660    4.9190    0.0000 H   0  0  0  0  0  0  0  0  0  0  0  0
    2.2460    1.2990    0.0000 H   0  0  0  0  0  0  0  0  0  0  0  0
    2.8660    0.6790    0.0000 H   0  0  0  0  0  0  0  0  0  0  0  0
    3.4860    1.2990    0.0000 H   0  0  0  0  0  0  0  0  0  0  0  0
    4.9081    3.7621    0.0000 H   0  0  0  0  0  0  0  0  0  0  0  0
    5.1350    4.6090    0.0000 H   0  0  0  0  0  0  0  0  0  0  0  0
    4.2881    4.8360    0.0000 H   0  0  0  0  0  0  0  0  0  0  0  0
    1.4631    4.1090    0.0000 H   0  0  0  0  0  0  0  0  0  0  0  0
   16.6121   -3.9700    0.0000 H   0  0  0  0  0  0  0  0  0  0  0  0
   17.8852   -4.6090    0.0000 H   0  0  0  0  0  0  0  0  0  0  0  0
   18.7321   -4.8360    0.0000 H   0  0  0  0  0  0  0  0  0  0  0  0
   18.9591   -3.9890    0.0000 H   0  0  0  0  0  0  0  0  0  0  0  0
  1  4  2  0  0  0  0
  1  5  2  0  0  0  0
  1  9  1  0  0  0  0
  1 20  1  0  0  0  0
  2 29  1  0  0  0  0
  2 36  1  0  0  0  0
 14  3  1  6  0  0  0
  3 65  1  0  0  0  0
  6 24  2  0  0  0  0
  7 30  1  0  0  0  0
  7 37  1  0  0  0  0
  8 47  2  0  0  0  0
  9 15  1  0  0  0  0
  9 17  1  0  0  0  0
 16 10  1  6  0  0  0
 10 24  1  0  0  0  0
 10 58  1  0  0  0  0
 11 32  1  0  0  0  0
 11 36  2  0  0  0  0
 12 36  1  0  0  0  0
 12 38  1  0  0  0  0
 12 76  1  0  0  0  0
 13 41  1  0  0  0  0
 13 47  1  0  0  0  0
 13 90  1  0  0  0  0
 14 15  1  0  0  0  0
 14 16  1  0  0  0  0
 14 49  1  0  0  0  0
 15 50  1  0  0  0  0
 15 51  1  0  0  0  0
 16 19  1  0  0  0  0
 16 52  1  0  0  0  0
 17 18  1  0  0  0  0
 17 53  1  0  0  0  0
 17 54  1  0  0  0  0
 18 22  1  0  0  0  0
 18 23  1  0  0  0  0
 18 55  1  0  0  0  0
 19 21  1  0  0  0  0
 19 56  1  0  0  0  0
 19 57  1  0  0  0  0
 20 25  2  0  0  0  0
 20 26  1  0  0  0  0
 21 27  2  0  0  0  0
 21 28  1  0  0  0  0
 22 59  1  0  0  0  0
 22 60  1  0  0  0  0
 22 61  1  0  0  0  0
 23 62  1  0  0  0  0
 23 63  1  0  0  0  0
 23 64  1  0  0  0  0
 24 30  1  0  0  0  0
 25 29  1  0  0  0  0
 25 66  1  0  0  0  0
 26 31  2  0  0  0  0
 26 67  1  0  0  0  0
 27 33  1  0  0  0  0
 27 68  1  0  0  0  0
 28 34  2  0  0  0  0
 28 69  1  0  0  0  0
 29 32  2  0  0  0  0
 30 70  1  0  0  0  0
 30 71  1  0  0  0  0
 31 32  1  0  0  0  0
 31 72  1  0  0  0  0
 33 35  2  0  0  0  0
 33 73  1  0  0  0  0
 34 35  1  0  0  0  0
 34 74  1  0  0  0  0
 35 75  1  0  0  0  0
 37 39  2  0  0  0  0
 37 40  1  0  0  0  0
 38 41  1  0  0  0  0
 38 77  1  0  0  0  0
 38 78  1  0  0  0  0
 39 42  1  0  0  0  0
 39 44  1  0  0  0  0
 40 43  2  0  0  0  0
 40 45  1  0  0  0  0
 41 79  1  0  0  0  0
 41 80  1  0  0  0  0
 42 46  2  0  0  0  0
 42 81  1  0  0  0  0
 43 46  1  0  0  0  0
 43 82  1  0  0  0  0
 44 83  1  0  0  0  0
 44 84  1  0  0  0  0
 44 85  1  0  0  0  0
 45 86  1  0  0  0  0
 45 87  1  0  0  0  0
 45 88  1  0  0  0  0
 46 89  1  0  0  0  0
 47 48  1  0  0  0  0
 48 91  1  0  0  0  0
 48 92  1  0  0  0  0
 48 93  1  0  0  0  0
M  END
> <PUBCHEM_COMPOUND_CID>
509703
> <PUBCHEM_COMPOUND_CANONICALIZED>
1
> <PUBCHEM_CACTVS_COMPLEXITY>
1110
> <PUBCHEM_CACTVS_HBOND_ACCEPTOR>
10
> <PUBCHEM_CACTVS_HBOND_DONOR>
4
> <PUBCHEM_CACTVS_ROTATABLE_BOND>
17
> <PUBCHEM_CACTVS_SUBSKEYS>
AAADcfB/uABgAAAAAAAAAAAAAAAAAWAAAAAwYMAAAAAAAFgB9AAAHgQQSAAADTzh3gYz17LIFgqsAyVydHLD+LlhKjlJmLx8bJiOdqLk+Z+XeCjs1hPY6CeQwOAOAAQCAEAIAQAACAQAgBACAAAAAAAAAA==
> <PUBCHEM_IUPAC_OPENEYE_NAME>
N-[(1S,2R)-3-[[2-(2-acetamidoethylamino)-1,3-benzothiazol-6-yl]sulfonyl-isobutyl-amino]-1-benzyl-2-hydroxy-propyl]-2-(2,6-dimethylphenoxy)acetamide
> <PUBCHEM_IUPAC_CAS_NAME>
N-[(2S,3R)-4-[[2-(2-acetamidoethylamino)-1,3-benzothiazol-6-yl]sulfonyl-(2-methylpropyl)amino]-3-hydroxy-1-phenylbutan-2-yl]-2-(2,6-dimethylphenoxy)acetamide
> <PUBCHEM_IUPAC_NAME_MARKUP>
<I>N</I>-[(2<I>S</I>,3<I>R</I>)-4-[[2-(2-acetamidoethylamino)-1,3-benzothiazol-6-yl]sulfonyl-(2-methylpropyl)amino]-3-hydroxy-1-phenylbutan-2-yl]-2-(2,6-dimethylphenoxy)acetamide
> <PUBCHEM_IUPAC_NAME>
N-[(2S,3R)-4-[[2-(2-acetamidoethylamino)-1,3-benzothiazol-6-yl]sulfonyl-(2-methylpropyl)amino]-3-hydroxy-1-phenylbutan-2-yl]-2-(2,6-dimethylphenoxy)acetamide
> <PUBCHEM_IUPAC_SYSTEMATIC_NAME>
N-[(2S,3R)-4-[[2-(2-acetamidoethylamino)-1,3-benzothiazol-6-yl]sulfonyl-(2-methylpropyl)amino]-3-oxidanyl-1-phenyl-butan-2-yl]-2-(2,6-dimethylphenoxy)ethanamide
> <PUBCHEM_IUPAC_TRADITIONAL_NAME>
N-[(1S,2R)-3-[[2-(2-acetamidoethylamino)-1,3-benzothiazol-6-yl]sulfonyl-isobutyl-amino]-1-benzyl-2-hydroxy-propyl]-2-(2,6-dimethylphenoxy)acetamide
> <PUBCHEM_IUPAC_INCHI>
InChI=1S/C35H45N5O6S2/c1-23(2)20-40(48(44,45)28-14-15-29-32(19-28)47-35(39-29)37-17-16-36-26(5)41)21-31(42)30(18-27-12-7-6-8-13-27)38-33(43)22-46-34-24(3)10-9-11-25(34)4/h6-15,19,23,30-31,42H,16-18,20-22H2,1-5H3,(H,36,41)(H,37,39)(H,38,43)/t30-,31+/m0/s1
> <PUBCHEM_IUPAC_INCHIKEY>
QNPAUEQCGIKHAP-IOWSJCHKSA-N
> <PUBCHEM_XLOGP3_AA>
5.6
> <PUBCHEM_EXACT_MASS>
695.28112652
> <PUBCHEM_MOLECULAR_FORMULA>
C35H45N5O6S2
> <PUBCHEM_MOLECULAR_WEIGHT>
695.9
> <PUBCHEM_OPENEYE_CAN_SMILES>
CC1=C(C(=CC=C1)C)OCC(=O)NC(CC2=CC=CC=C2)C(CN(CC(C)C)S(=O)(=O)C3=CC4=C(C=C3)N=C(S4)NCCNC(=O)C)O
> <PUBCHEM_OPENEYE_ISO_SMILES>
CC1=C(C(=CC=C1)C)OCC(=O)N[C@@H](CC2=CC=CC=C2)[C@@H](CN(CC(C)C)S(=O)(=O)C3=CC4=C(C=C3)N=C(S4)NCCNC(=O)C)O
> <PUBCHEM_CACTVS_TPSA>
187
> <PUBCHEM_MONOISOTOPIC_WEIGHT>
695.28112652
> <PUBCHEM_TOTAL_CHARGE>
0
> <PUBCHEM_HEAVY_ATOM_COUNT>
48
> <PUBCHEM_ATOM_DEF_STEREO_COUNT>
2
> <PUBCHEM_ATOM_UDEF_STEREO_COUNT>
0
> <PUBCHEM_BOND_DEF_STEREO_COUNT>
0
> <PUBCHEM_BOND_UDEF_STEREO_COUNT>
0
> <PUBCHEM_ISOTOPIC_ATOM_COUNT>
0
> <PUBCHEM_COMPONENT_COUNT>
1
> <PUBCHEM_CACTVS_TAUTO_COUNT>
-1
> <PUBCHEM_COORDINATE_TYPE>
1
5
255
> <PUBCHEM_BONDANNOTATIONS>
16  10  6
11  32  8
11  36  8
2  29  8
2  36  8
20  25  8
20  26  8
21  27  8
21  28  8
25  29  8
26  31  8
27  33  8
28  34  8
29  32  8
14  3  6
31  32  8
33  35  8
34  35  8
37  39  8
37  40  8
39  42  8
40  43  8
42  46  8
43  46  8
$$$$
