509753
  -OEChem-10302200282D
 86 86  0     1  0  0  0  0  0999 V2000
    8.8427    1.5903    0.0000 S   0  0  0  0  0  0  0  0  0  0  0  0
   11.1380   -0.3358    0.0000 O   0  0  0  0  0  0  0  0  0  0  0  0
    7.0826    1.3115    0.0000 N   0  0  0  0  0  0  0  0  0  0  0  0
   10.6028    1.3115    0.0000 N   0  0  0  0  0  0  0  0  0  0  0  0
    8.3427    0.0514    0.0000 N   0  0  0  0  0  0  0  0  0  0  0  0
    9.3427    0.0514    0.0000 N   0  0  0  0  0  0  0  0  0  0  0  0
    5.3884    0.9514    0.0000 C   0  0  3  0  0  0  0  0  0  0  0  0
    4.6453    0.2822    0.0000 C   0  0  0  0  0  0  0  0  0  0  0  0
    5.1805    1.9295    0.0000 C   0  0  0  0  0  0  0  0  0  0  0  0
    6.3395    0.6424    0.0000 C   0  0  0  0  0  0  0  0  0  0  0  0
    3.6942    0.5913    0.0000 C   0  0  0  0  0  0  0  0  0  0  0  0
    2.9511   -0.0779    0.0000 C   0  0  0  0  0  0  0  0  0  0  0  0
    4.2294    2.2386    0.0000 C   0  0  0  0  0  0  0  0  0  0  0  0
   14.7343   -0.0779    0.0000 C   0  0  0  0  0  0  0  0  0  0  0  0
   15.6854    0.2312    0.0000 C   0  0  0  0  0  0  0  0  0  0  0  0
   22.4622   -1.2093    0.0000 C   0  0  0  0  0  0  0  0  0  0  0  0
   21.5111   -1.5183    0.0000 C   0  0  0  0  0  0  0  0  0  0  0  0
   13.9912    0.5913    0.0000 C   0  0  0  0  0  0  0  0  0  0  0  0
   23.2053   -1.8784    0.0000 C   0  0  0  0  0  0  0  0  0  0  0  0
   16.4285   -0.4380    0.0000 C   0  0  0  0  0  0  0  0  0  0  0  0
   20.7680   -0.8492    0.0000 C   0  0  0  0  0  0  0  0  0  0  0  0
   13.0401    0.2822    0.0000 C   0  0  0  0  0  0  0  0  0  0  0  0
    2.0000    0.2312    0.0000 C   0  0  0  0  0  0  0  0  0  0  0  0
   24.1564   -1.5694    0.0000 C   0  0  0  0  0  0  0  0  0  0  0  0
   17.3796   -0.1290    0.0000 C   0  0  0  0  0  0  0  0  0  0  0  0
   19.8169   -1.1582    0.0000 C   0  0  0  0  0  0  0  0  0  0  0  0
    8.0337    1.0025    0.0000 C   0  0  0  0  0  0  0  0  0  0  0  0
   12.2970    0.9514    0.0000 C   0  0  0  0  0  0  0  0  0  0  0  0
   24.8995   -2.2386    0.0000 C   0  0  0  0  0  0  0  0  0  0  0  0
   18.1227   -0.7981    0.0000 C   0  0  0  0  0  0  0  0  0  0  0  0
   19.0738   -0.4891    0.0000 C   0  0  0  0  0  0  0  0  0  0  0  0
   11.3459    0.6424    0.0000 C   0  0  0  0  0  0  0  0  0  0  0  0
   25.8506   -1.9295    0.0000 C   0  0  0  0  0  0  0  0  0  0  0  0
    9.6517    1.0025    0.0000 C   0  0  0  0  0  0  0  0  0  0  0  0
    4.7988    1.1430    0.0000 H   0  0  0  0  0  0  0  0  0  0  0  0
    4.3542   -0.2652    0.0000 H   0  0  0  0  0  0  0  0  0  0  0  0
    5.1338   -0.0995    0.0000 H   0  0  0  0  0  0  0  0  0  0  0  0
    5.8001    1.9512    0.0000 H   0  0  0  0  0  0  0  0  0  0  0  0
    5.2668    2.5435    0.0000 H   0  0  0  0  0  0  0  0  0  0  0  0
    6.0484    0.0949    0.0000 H   0  0  0  0  0  0  0  0  0  0  0  0
    6.8280    0.2607    0.0000 H   0  0  0  0  0  0  0  0  0  0  0  0
    3.9853    1.1387    0.0000 H   0  0  0  0  0  0  0  0  0  0  0  0
    3.2056    0.9730    0.0000 H   0  0  0  0  0  0  0  0  0  0  0  0
    2.6600   -0.6253    0.0000 H   0  0  0  0  0  0  0  0  0  0  0  0
    3.4396   -0.4596    0.0000 H   0  0  0  0  0  0  0  0  0  0  0  0
    4.4210    2.8282    0.0000 H   0  0  0  0  0  0  0  0  0  0  0  0
    3.6398    2.4301    0.0000 H   0  0  0  0  0  0  0  0  0  0  0  0
    4.0378    1.6489    0.0000 H   0  0  0  0  0  0  0  0  0  0  0  0
    6.9537    1.9180    0.0000 H   0  0  0  0  0  0  0  0  0  0  0  0
   14.2457   -0.4596    0.0000 H   0  0  0  0  0  0  0  0  0  0  0  0
   15.0254   -0.6253    0.0000 H   0  0  0  0  0  0  0  0  0  0  0  0
   16.1739    0.6129    0.0000 H   0  0  0  0  0  0  0  0  0  0  0  0
   15.3943    0.7786    0.0000 H   0  0  0  0  0  0  0  0  0  0  0  0
   22.9507   -0.8276    0.0000 H   0  0  0  0  0  0  0  0  0  0  0  0
   22.1711   -0.6619    0.0000 H   0  0  0  0  0  0  0  0  0  0  0  0
   21.0225   -1.9000    0.0000 H   0  0  0  0  0  0  0  0  0  0  0  0
   21.8022   -2.0658    0.0000 H   0  0  0  0  0  0  0  0  0  0  0  0
   14.4797    0.9730    0.0000 H   0  0  0  0  0  0  0  0  0  0  0  0
   13.7001    1.1387    0.0000 H   0  0  0  0  0  0  0  0  0  0  0  0
   22.7167   -2.2601    0.0000 H   0  0  0  0  0  0  0  0  0  0  0  0
   23.4964   -2.4259    0.0000 H   0  0  0  0  0  0  0  0  0  0  0  0
   15.9399   -0.8197    0.0000 H   0  0  0  0  0  0  0  0  0  0  0  0
   16.7196   -0.9854    0.0000 H   0  0  0  0  0  0  0  0  0  0  0  0
   21.2565   -0.4675    0.0000 H   0  0  0  0  0  0  0  0  0  0  0  0
   20.4769   -0.3018    0.0000 H   0  0  0  0  0  0  0  0  0  0  0  0
   12.5515   -0.0995    0.0000 H   0  0  0  0  0  0  0  0  0  0  0  0
   13.3312   -0.2652    0.0000 H   0  0  0  0  0  0  0  0  0  0  0  0
    2.1916    0.8208    0.0000 H   0  0  0  0  0  0  0  0  0  0  0  0
    1.4103    0.4227    0.0000 H   0  0  0  0  0  0  0  0  0  0  0  0
    1.8084   -0.3585    0.0000 H   0  0  0  0  0  0  0  0  0  0  0  0
   24.6449   -1.1877    0.0000 H   0  0  0  0  0  0  0  0  0  0  0  0
   23.8653   -1.0220    0.0000 H   0  0  0  0  0  0  0  0  0  0  0  0
   17.8681    0.2527    0.0000 H   0  0  0  0  0  0  0  0  0  0  0  0
   17.0885    0.4185    0.0000 H   0  0  0  0  0  0  0  0  0  0  0  0
   19.3283   -1.5399    0.0000 H   0  0  0  0  0  0  0  0  0  0  0  0
   20.1080   -1.7056    0.0000 H   0  0  0  0  0  0  0  0  0  0  0  0
   12.7855    1.3331    0.0000 H   0  0  0  0  0  0  0  0  0  0  0  0
   12.0059    1.4988    0.0000 H   0  0  0  0  0  0  0  0  0  0  0  0
   24.4109   -2.6203    0.0000 H   0  0  0  0  0  0  0  0  0  0  0  0
   25.1906   -2.7860    0.0000 H   0  0  0  0  0  0  0  0  0  0  0  0
   17.9938   -1.4045    0.0000 H   0  0  0  0  0  0  0  0  0  0  0  0
   19.2027    0.1174    0.0000 H   0  0  0  0  0  0  0  0  0  0  0  0
   26.0422   -2.5192    0.0000 H   0  0  0  0  0  0  0  0  0  0  0  0
   26.4402   -1.7379    0.0000 H   0  0  0  0  0  0  0  0  0  0  0  0
   25.6590   -1.3399    0.0000 H   0  0  0  0  0  0  0  0  0  0  0  0
   10.7317    1.9180    0.0000 H   0  0  0  0  0  0  0  0  0  0  0  0
  1 27  1  0  0  0  0
  1 34  1  0  0  0  0
  2 32  2  0  0  0  0
  3 10  1  0  0  0  0
  3 27  1  0  0  0  0
  3 49  1  0  0  0  0
  4 32  1  0  0  0  0
  4 34  1  0  0  0  0
  4 86  1  0  0  0  0
  5  6  1  0  0  0  0
  5 27  2  0  0  0  0
  6 34  2  0  0  0  0
  7  8  1  0  0  0  0
  7  9  1  0  0  0  0
  7 10  1  0  0  0  0
  7 35  1  0  0  0  0
  8 11  1  0  0  0  0
  8 36  1  0  0  0  0
  8 37  1  0  0  0  0
  9 13  1  0  0  0  0
  9 38  1  0  0  0  0
  9 39  1  0  0  0  0
 10 40  1  0  0  0  0
 10 41  1  0  0  0  0
 11 12  1  0  0  0  0
 11 42  1  0  0  0  0
 11 43  1  0  0  0  0
 12 23  1  0  0  0  0
 12 44  1  0  0  0  0
 12 45  1  0  0  0  0
 13 46  1  0  0  0  0
 13 47  1  0  0  0  0
 13 48  1  0  0  0  0
 14 15  1  0  0  0  0
 14 18  1  0  0  0  0
 14 50  1  0  0  0  0
 14 51  1  0  0  0  0
 15 20  1  0  0  0  0
 15 52  1  0  0  0  0
 15 53  1  0  0  0  0
 16 17  1  0  0  0  0
 16 19  1  0  0  0  0
 16 54  1  0  0  0  0
 16 55  1  0  0  0  0
 17 21  1  0  0  0  0
 17 56  1  0  0  0  0
 17 57  1  0  0  0  0
 18 22  1  0  0  0  0
 18 58  1  0  0  0  0
 18 59  1  0  0  0  0
 19 24  1  0  0  0  0
 19 60  1  0  0  0  0
 19 61  1  0  0  0  0
 20 25  1  0  0  0  0
 20 62  1  0  0  0  0
 20 63  1  0  0  0  0
 21 26  1  0  0  0  0
 21 64  1  0  0  0  0
 21 65  1  0  0  0  0
 22 28  1  0  0  0  0
 22 66  1  0  0  0  0
 22 67  1  0  0  0  0
 23 68  1  0  0  0  0
 23 69  1  0  0  0  0
 23 70  1  0  0  0  0
 24 29  1  0  0  0  0
 24 71  1  0  0  0  0
 24 72  1  0  0  0  0
 25 30  1  0  0  0  0
 25 73  1  0  0  0  0
 25 74  1  0  0  0  0
 26 31  1  0  0  0  0
 26 75  1  0  0  0  0
 26 76  1  0  0  0  0
 28 32  1  0  0  0  0
 28 77  1  0  0  0  0
 28 78  1  0  0  0  0
 29 33  1  0  0  0  0
 29 79  1  0  0  0  0
 29 80  1  0  0  0  0
 30 31  2  3  0  0  0
 30 81  1  0  0  0  0
 31 82  1  0  0  0  0
 33 83  1  0  0  0  0
 33 84  1  0  0  0  0
 33 85  1  0  0  0  0
M  END
> <PUBCHEM_COMPOUND_CID>
509753
> <PUBCHEM_COMPOUND_CANONICALIZED>
1
> <PUBCHEM_CACTVS_COMPLEXITY>
503
> <PUBCHEM_CACTVS_HBOND_ACCEPTOR>
5
> <PUBCHEM_CACTVS_HBOND_DONOR>
2
> <PUBCHEM_CACTVS_ROTATABLE_BOND>
23
> <PUBCHEM_CACTVS_SUBSKEYS>
AAADcfB7oABAAAAAAAAAAAAAAAAAAWAAAAAAAAAAAAAAAAABgAAAHgQYAAAADQDBgAQDEALAAAiuACFSMAAQAAJgAAkNCIEIAAiAABIAiQAEAAAQkQIIAAMYiICOAAAAAAAAAAAAAAAAAAAAAAAAAAAAAA==
> <PUBCHEM_IUPAC_OPENEYE_NAME>
N-[5-(2-ethylhexylamino)-1,3,4-thiadiazol-2-yl]octadec-9-enamide
> <PUBCHEM_IUPAC_CAS_NAME>
N-[5-(2-ethylhexylamino)-1,3,4-thiadiazol-2-yl]-9-octadecenamide
> <PUBCHEM_IUPAC_NAME_MARKUP>
<I>N</I>-[5-(2-ethylhexylamino)-1,3,4-thiadiazol-2-yl]octadec-9-enamide
> <PUBCHEM_IUPAC_NAME>
N-[5-(2-ethylhexylamino)-1,3,4-thiadiazol-2-yl]octadec-9-enamide
> <PUBCHEM_IUPAC_SYSTEMATIC_NAME>
N-[5-(2-ethylhexylamino)-1,3,4-thiadiazol-2-yl]octadec-9-enamide
> <PUBCHEM_IUPAC_TRADITIONAL_NAME>
N-[5-(2-ethylhexylamino)-1,3,4-thiadiazol-2-yl]octadec-9-enamide
> <PUBCHEM_IUPAC_INCHI>
InChI=1S/C28H52N4OS/c1-4-7-9-10-11-12-13-14-15-16-17-18-19-20-21-23-26(33)30-28-32-31-27(34-28)29-24-25(6-3)22-8-5-2/h14-15,25H,4-13,16-24H2,1-3H3,(H,29,31)(H,30,32,33)
> <PUBCHEM_IUPAC_INCHIKEY>
MRJMKDGCWTTYEU-UHFFFAOYSA-N
> <PUBCHEM_XLOGP3_AA>
10.8
> <PUBCHEM_EXACT_MASS>
492.38618347
> <PUBCHEM_MOLECULAR_FORMULA>
C28H52N4OS
> <PUBCHEM_MOLECULAR_WEIGHT>
492.8
> <PUBCHEM_OPENEYE_CAN_SMILES>
CCCCCCCCC=CCCCCCCCC(=O)NC1=NN=C(S1)NCC(CC)CCCC
> <PUBCHEM_OPENEYE_ISO_SMILES>
CCCCCCCCC=CCCCCCCCC(=O)NC1=NN=C(S1)NCC(CC)CCCC
> <PUBCHEM_CACTVS_TPSA>
95.2
> <PUBCHEM_MONOISOTOPIC_WEIGHT>
492.38618347
> <PUBCHEM_TOTAL_CHARGE>
0
> <PUBCHEM_HEAVY_ATOM_COUNT>
34
> <PUBCHEM_ATOM_DEF_STEREO_COUNT>
0
> <PUBCHEM_ATOM_UDEF_STEREO_COUNT>
1
> <PUBCHEM_BOND_DEF_STEREO_COUNT>
0
> <PUBCHEM_BOND_UDEF_STEREO_COUNT>
1
> <PUBCHEM_ISOTOPIC_ATOM_COUNT>
0
> <PUBCHEM_COMPONENT_COUNT>
1
> <PUBCHEM_CACTVS_TAUTO_COUNT>
-1
> <PUBCHEM_COORDINATE_TYPE>
1
5
255
> <PUBCHEM_BONDANNOTATIONS>
1  27  8
1  34  8
30  31  1
5  27  8
5  6  8
6  34  8
7  9  3
$$$$
