509854
  -OEChem-10302200282D
 49 52  0     1  0  0  0  0  0999 V2000
    4.8923    0.0823    0.0000 S   0  0  0  0  0  0  0  0  0  0  0  0
    4.8719   -6.0409    0.0000 F   0  0  0  0  0  0  0  0  0  0  0  0
    2.0000   -4.1038    0.0000 F   0  0  0  0  0  0  0  0  0  0  0  0
    6.1111   -2.6550    0.0000 O   0  0  0  0  0  0  0  0  0  0  0  0
    5.6454    1.6974    0.0000 N   0  0  0  0  0  0  0  0  0  0  0  0
    6.5094    0.1388    0.0000 N   0  0  0  0  0  0  0  0  0  0  0  0
    6.2337   -0.8225    0.0000 N   0  0  0  0  0  0  0  0  0  0  0  0
    4.6751   -1.6864    0.0000 N   0  0  0  0  0  0  0  0  0  0  0  0
    9.0785    4.1011    0.0000 C   0  0  0  0  0  0  0  0  0  0  0  0
    7.6796    4.0923    0.0000 C   0  0  3  0  0  0  0  0  0  0  0  0
    7.9384    5.0583    0.0000 C   0  0  3  0  0  0  0  0  0  0  0  0
    7.2018    6.0409    0.0000 C   0  0  0  0  0  0  0  0  0  0  0  0
    6.4586    3.2267    0.0000 C   0  0  1  0  0  0  0  0  0  0  0  0
    5.9052    4.7471    0.0000 C   0  0  0  0  0  0  0  0  0  0  0  0
    5.6295    3.7859    0.0000 C   0  0  0  0  0  0  0  0  0  0  0  0
    9.5785    3.2351    0.0000 C   0  0  0  0  0  0  0  0  0  0  0  0
    9.9446    4.6011    0.0000 C   0  0  0  0  0  0  0  0  0  0  0  0
    6.4935    2.2273    0.0000 C   0  0  0  0  0  0  0  0  0  0  0  0
    5.6803    0.6980    0.0000 C   0  0  0  0  0  0  0  0  0  0  0  0
    5.2343   -0.8574    0.0000 C   0  0  0  0  0  0  0  0  0  0  0  0
    5.1135   -2.5852    0.0000 C   0  0  0  0  0  0  0  0  0  0  0  0
    4.5543   -3.4142    0.0000 C   0  0  0  0  0  0  0  0  0  0  0  0
    3.5568   -3.3445    0.0000 C   0  0  0  0  0  0  0  0  0  0  0  0
    4.9927   -4.3130    0.0000 C   0  0  0  0  0  0  0  0  0  0  0  0
    4.4335   -5.1421    0.0000 C   0  0  0  0  0  0  0  0  0  0  0  0
    2.9976   -4.1735    0.0000 C   0  0  0  0  0  0  0  0  0  0  0  0
    3.4359   -5.0723    0.0000 C   0  0  0  0  0  0  0  0  0  0  0  0
    7.8696    3.5022    0.0000 H   0  0  0  0  0  0  0  0  0  0  0  0
    8.3887    5.4844    0.0000 H   0  0  0  0  0  0  0  0  0  0  0  0
    7.5196    6.5732    0.0000 H   0  0  0  0  0  0  0  0  0  0  0  0
    6.5887    6.1328    0.0000 H   0  0  0  0  0  0  0  0  0  0  0  0
    5.9163    2.9261    0.0000 H   0  0  0  0  0  0  0  0  0  0  0  0
    5.9001    5.3671    0.0000 H   0  0  0  0  0  0  0  0  0  0  0  0
    5.2909    4.8309    0.0000 H   0  0  0  0  0  0  0  0  0  0  0  0
    5.0547    4.0181    0.0000 H   0  0  0  0  0  0  0  0  0  0  0  0
    5.3385    3.2384    0.0000 H   0  0  0  0  0  0  0  0  0  0  0  0
    9.0416    2.9251    0.0000 H   0  0  0  0  0  0  0  0  0  0  0  0
    9.8885    2.6982    0.0000 H   0  0  0  0  0  0  0  0  0  0  0  0
   10.1155    3.5451    0.0000 H   0  0  0  0  0  0  0  0  0  0  0  0
   10.2546    4.0642    0.0000 H   0  0  0  0  0  0  0  0  0  0  0  0
   10.4815    4.9112    0.0000 H   0  0  0  0  0  0  0  0  0  0  0  0
    9.6346    5.1381    0.0000 H   0  0  0  0  0  0  0  0  0  0  0  0
    6.7257    1.6524    0.0000 H   0  0  0  0  0  0  0  0  0  0  0  0
    7.0999    2.3562    0.0000 H   0  0  0  0  0  0  0  0  0  0  0  0
    5.0980    1.9884    0.0000 H   0  0  0  0  0  0  0  0  0  0  0  0
    4.0566   -1.6432    0.0000 H   0  0  0  0  0  0  0  0  0  0  0  0
    3.2850   -2.7872    0.0000 H   0  0  0  0  0  0  0  0  0  0  0  0
    5.6112   -4.3563    0.0000 H   0  0  0  0  0  0  0  0  0  0  0  0
    3.0892   -5.5863    0.0000 H   0  0  0  0  0  0  0  0  0  0  0  0
  1 19  1  0  0  0  0
  1 20  1  0  0  0  0
  2 25  1  0  0  0  0
  3 26  1  0  0  0  0
  4 21  2  0  0  0  0
  5 18  1  0  0  0  0
  5 19  1  0  0  0  0
  5 45  1  0  0  0  0
  6  7  1  0  0  0  0
  6 19  2  0  0  0  0
  7 20  2  0  0  0  0
  8 20  1  0  0  0  0
  8 21  1  0  0  0  0
  8 46  1  0  0  0  0
  9 10  1  0  0  0  0
  9 11  1  0  0  0  0
  9 16  1  0  0  0  0
  9 17  1  0  0  0  0
 10 12  1  0  0  0  0
 10 13  1  0  0  0  0
 10 28  1  0  0  0  0
 11 12  1  0  0  0  0
 11 14  1  0  0  0  0
 11 29  1  0  0  0  0
 12 30  1  0  0  0  0
 12 31  1  0  0  0  0
 13 15  1  0  0  0  0
 13 18  1  6  0  0  0
 13 32  1  0  0  0  0
 14 15  1  0  0  0  0
 14 33  1  0  0  0  0
 14 34  1  0  0  0  0
 15 35  1  0  0  0  0
 15 36  1  0  0  0  0
 16 37  1  0  0  0  0
 16 38  1  0  0  0  0
 16 39  1  0  0  0  0
 17 40  1  0  0  0  0
 17 41  1  0  0  0  0
 17 42  1  0  0  0  0
 18 43  1  0  0  0  0
 18 44  1  0  0  0  0
 21 22  1  0  0  0  0
 22 23  2  0  0  0  0
 22 24  1  0  0  0  0
 23 26  1  0  0  0  0
 23 47  1  0  0  0  0
 24 25  2  0  0  0  0
 24 48  1  0  0  0  0
 25 27  1  0  0  0  0
 26 27  2  0  0  0  0
 27 49  1  0  0  0  0
M  END
> <PUBCHEM_COMPOUND_CID>
509854
> <PUBCHEM_COMPOUND_CANONICALIZED>
1
> <PUBCHEM_CACTVS_COMPLEXITY>
556
> <PUBCHEM_CACTVS_HBOND_ACCEPTOR>
7
> <PUBCHEM_CACTVS_HBOND_DONOR>
2
> <PUBCHEM_CACTVS_ROTATABLE_BOND>
5
> <PUBCHEM_CACTVS_SUBSKEYS>
AAADceB7oYBAAAAAAAAAAAAAAABgAWAAAAAwYMAAAAAAAAABwAAAHwQYAAAADwDBmAwzEILAAAiuAiFSMACSAAJkAAkFiIEIBMiIIDKAnRGEIQhwkQIIiYcYiMCPgAAAAAAAAACAAAQAACAAAAAAAAAAAA==
> <PUBCHEM_IUPAC_OPENEYE_NAME>
N-[5-[[(2R)-6,6-dimethylnorpinan-2-yl]methylamino]-1,3,4-thiadiazol-2-yl]-3,5-difluoro-benzamide
> <PUBCHEM_IUPAC_CAS_NAME>
N-[5-[[(2R)-6,6-dimethyl-2-bicyclo[3.1.1]heptanyl]methylamino]-1,3,4-thiadiazol-2-yl]-3,5-difluorobenzamide
> <PUBCHEM_IUPAC_NAME_MARKUP>
<I>N</I>-[5-[[(2<I>R</I>)-6,6-dimethyl-2-bicyclo[3.1.1]heptanyl]methylamino]-1,3,4-thiadiazol-2-yl]-3,5-difluorobenzamide
> <PUBCHEM_IUPAC_NAME>
N-[5-[[(2R)-6,6-dimethyl-2-bicyclo[3.1.1]heptanyl]methylamino]-1,3,4-thiadiazol-2-yl]-3,5-difluorobenzamide
> <PUBCHEM_IUPAC_SYSTEMATIC_NAME>
N-[5-[[(2R)-6,6-dimethyl-2-bicyclo[3.1.1]heptanyl]methylamino]-1,3,4-thiadiazol-2-yl]-3,5-bis(fluoranyl)benzamide
> <PUBCHEM_IUPAC_TRADITIONAL_NAME>
N-[5-[[(2R)-6,6-dimethylnorpinan-2-yl]methylamino]-1,3,4-thiadiazol-2-yl]-3,5-difluoro-benzamide
> <PUBCHEM_IUPAC_INCHI>
InChI=1S/C19H22F2N4OS/c1-19(2)12-4-3-10(15(19)7-12)9-22-17-24-25-18(27-17)23-16(26)11-5-13(20)8-14(21)6-11/h5-6,8,10,12,15H,3-4,7,9H2,1-2H3,(H,22,24)(H,23,25,26)/t10-,12?,15?/m0/s1
> <PUBCHEM_IUPAC_INCHIKEY>
RDKOBCSMBMJYDT-VLRKGOCCSA-N
> <PUBCHEM_XLOGP3_AA>
5
> <PUBCHEM_EXACT_MASS>
392.14823884
> <PUBCHEM_MOLECULAR_FORMULA>
C19H22F2N4OS
> <PUBCHEM_MOLECULAR_WEIGHT>
392.5
> <PUBCHEM_OPENEYE_CAN_SMILES>
CC1(C2CCC(C1C2)CNC3=NN=C(S3)NC(=O)C4=CC(=CC(=C4)F)F)C
> <PUBCHEM_OPENEYE_ISO_SMILES>
CC1(C2CC[C@H](C1C2)CNC3=NN=C(S3)NC(=O)C4=CC(=CC(=C4)F)F)C
> <PUBCHEM_CACTVS_TPSA>
95.2
> <PUBCHEM_MONOISOTOPIC_WEIGHT>
392.14823884
> <PUBCHEM_TOTAL_CHARGE>
0
> <PUBCHEM_HEAVY_ATOM_COUNT>
27
> <PUBCHEM_ATOM_DEF_STEREO_COUNT>
1
> <PUBCHEM_ATOM_UDEF_STEREO_COUNT>
2
> <PUBCHEM_BOND_DEF_STEREO_COUNT>
0
> <PUBCHEM_BOND_UDEF_STEREO_COUNT>
0
> <PUBCHEM_ISOTOPIC_ATOM_COUNT>
0
> <PUBCHEM_COMPONENT_COUNT>
1
> <PUBCHEM_CACTVS_TAUTO_COUNT>
-1
> <PUBCHEM_COORDINATE_TYPE>
1
5
255
> <PUBCHEM_BONDANNOTATIONS>
1  19  8
1  20  8
10  12  3
11  14  3
13  18  6
22  23  8
22  24  8
23  26  8
24  25  8
25  27  8
26  27  8
6  19  8
6  7  8
7  20  8
$$$$
