509804
  -OEChem-10302200282D
 44 45  0     1  0  0  0  0  0999 V2000
    2.8697   -3.1988    0.0000 Cl  0  0  0  0  0  0  0  0  0  0  0  0
    6.3338   -3.1988    0.0000 Cl  0  0  0  0  0  0  0  0  0  0  0  0
    4.6587   -0.1110    0.0000 S   0  0  0  0  0  0  0  0  0  0  0  0
    2.6166    4.0762    0.0000 O   0  0  0  0  0  0  0  0  0  0  0  0
    2.7976    2.3536    0.0000 O   0  0  0  0  0  0  0  0  0  0  0  0
    3.7357   -1.6988    0.0000 O   0  0  0  0  0  0  0  0  0  0  0  0
    4.3800    1.6491    0.0000 N   0  0  0  0  0  0  0  0  0  0  0  0
    5.9677    0.8401    0.0000 N   0  0  0  0  0  0  0  0  0  0  0  0
    6.2768   -0.1110    0.0000 N   0  0  0  0  0  0  0  0  0  0  0  0
    5.4677   -1.6988    0.0000 N   0  0  0  0  0  0  0  0  0  0  0  0
    4.6056    4.2852    0.0000 C   0  0  0  0  0  0  0  0  0  0  0  0
    4.1989    3.3717    0.0000 C   0  0  3  0  0  0  0  0  0  0  0  0
    4.7867    2.5626    0.0000 C   0  0  0  0  0  0  0  0  0  0  0  0
    5.0124    5.1988    0.0000 C   0  0  0  0  0  0  0  0  0  0  0  0
    3.6921    4.6920    0.0000 C   0  0  0  0  0  0  0  0  0  0  0  0
    5.5192    3.8785    0.0000 C   0  0  0  0  0  0  0  0  0  0  0  0
    3.2044    3.2671    0.0000 C   0  0  0  0  0  0  0  0  0  0  0  0
    4.9677    0.8401    0.0000 C   0  0  0  0  0  0  0  0  0  0  0  0
    5.4677   -0.6988    0.0000 C   0  0  0  0  0  0  0  0  0  0  0  0
    4.6017   -2.1988    0.0000 C   0  0  0  0  0  0  0  0  0  0  0  0
    4.6017   -3.1988    0.0000 C   0  0  0  0  0  0  0  0  0  0  0  0
    3.7357   -3.6988    0.0000 C   0  0  0  0  0  0  0  0  0  0  0  0
    5.4677   -3.6988    0.0000 C   0  0  0  0  0  0  0  0  0  0  0  0
    3.7357   -4.6988    0.0000 C   0  0  0  0  0  0  0  0  0  0  0  0
    5.4677   -4.6988    0.0000 C   0  0  0  0  0  0  0  0  0  0  0  0
    4.6017   -5.1988    0.0000 C   0  0  0  0  0  0  0  0  0  0  0  0
    3.8345    3.8733    0.0000 H   0  0  0  0  0  0  0  0  0  0  0  0
    5.3007    2.2160    0.0000 H   0  0  0  0  0  0  0  0  0  0  0  0
    5.2174    3.0086    0.0000 H   0  0  0  0  0  0  0  0  0  0  0  0
    5.5788    4.9466    0.0000 H   0  0  0  0  0  0  0  0  0  0  0  0
    5.2646    5.7652    0.0000 H   0  0  0  0  0  0  0  0  0  0  0  0
    4.4460    5.4509    0.0000 H   0  0  0  0  0  0  0  0  0  0  0  0
    3.9443    5.2584    0.0000 H   0  0  0  0  0  0  0  0  0  0  0  0
    3.1257    4.9441    0.0000 H   0  0  0  0  0  0  0  0  0  0  0  0
    3.4399    4.1255    0.0000 H   0  0  0  0  0  0  0  0  0  0  0  0
    5.2670    3.3121    0.0000 H   0  0  0  0  0  0  0  0  0  0  0  0
    6.0856    3.6263    0.0000 H   0  0  0  0  0  0  0  0  0  0  0  0
    5.7714    4.4449    0.0000 H   0  0  0  0  0  0  0  0  0  0  0  0
    3.7634    1.5843    0.0000 H   0  0  0  0  0  0  0  0  0  0  0  0
    2.0000    4.0114    0.0000 H   0  0  0  0  0  0  0  0  0  0  0  0
    6.0047   -2.0088    0.0000 H   0  0  0  0  0  0  0  0  0  0  0  0
    3.1988   -5.0088    0.0000 H   0  0  0  0  0  0  0  0  0  0  0  0
    6.0047   -5.0088    0.0000 H   0  0  0  0  0  0  0  0  0  0  0  0
    4.6017   -5.8188    0.0000 H   0  0  0  0  0  0  0  0  0  0  0  0
  1 22  1  0  0  0  0
  2 23  1  0  0  0  0
  3 18  1  0  0  0  0
  3 19  1  0  0  0  0
  4 17  1  0  0  0  0
  4 40  1  0  0  0  0
  5 17  2  0  0  0  0
  6 20  2  0  0  0  0
  7 13  1  0  0  0  0
  7 18  1  0  0  0  0
  7 39  1  0  0  0  0
  8  9  1  0  0  0  0
  8 18  2  0  0  0  0
  9 19  2  0  0  0  0
 10 19  1  0  0  0  0
 10 20  1  0  0  0  0
 10 41  1  0  0  0  0
 11 12  1  0  0  0  0
 11 14  1  0  0  0  0
 11 15  1  0  0  0  0
 11 16  1  0  0  0  0
 12 13  1  0  0  0  0
 12 17  1  0  0  0  0
 12 27  1  0  0  0  0
 13 28  1  0  0  0  0
 13 29  1  0  0  0  0
 14 30  1  0  0  0  0
 14 31  1  0  0  0  0
 14 32  1  0  0  0  0
 15 33  1  0  0  0  0
 15 34  1  0  0  0  0
 15 35  1  0  0  0  0
 16 36  1  0  0  0  0
 16 37  1  0  0  0  0
 16 38  1  0  0  0  0
 20 21  1  0  0  0  0
 21 22  2  0  0  0  0
 21 23  1  0  0  0  0
 22 24  1  0  0  0  0
 23 25  2  0  0  0  0
 24 26  2  0  0  0  0
 24 42  1  0  0  0  0
 25 26  1  0  0  0  0
 25 43  1  0  0  0  0
 26 44  1  0  0  0  0
M  END
> <PUBCHEM_COMPOUND_CID>
509804
> <PUBCHEM_COMPOUND_CANONICALIZED>
1
> <PUBCHEM_CACTVS_COMPLEXITY>
510
> <PUBCHEM_CACTVS_HBOND_ACCEPTOR>
7
> <PUBCHEM_CACTVS_HBOND_DONOR>
3
> <PUBCHEM_CACTVS_ROTATABLE_BOND>
7
> <PUBCHEM_CACTVS_SUBSKEYS>
AAADceB7sABGAAAAAAAAAAAAAAAAAWAAAAAwAAAAAAAAAAABwAAAHgYYCAAADwLBmCQzGILAAgiuAiHSOACSAAJkBQkNiIEIBsiIIDqBnxGEYQh2kQIIjQcYiACPgAAAAACBAAAAAAAAAQIAAAAAAAAAAA==
> <PUBCHEM_IUPAC_OPENEYE_NAME>
2-[[[5-[(2,6-dichlorobenzoyl)amino]-1,3,4-thiadiazol-2-yl]amino]methyl]-3,3-dimethyl-butanoic acid
> <PUBCHEM_IUPAC_CAS_NAME>
2-[[[5-[[(2,6-dichlorophenyl)-oxomethyl]amino]-1,3,4-thiadiazol-2-yl]amino]methyl]-3,3-dimethylbutanoic acid
> <PUBCHEM_IUPAC_NAME_MARKUP>
2-[[[5-[(2,6-dichlorobenzoyl)amino]-1,3,4-thiadiazol-2-yl]amino]methyl]-3,3-dimethylbutanoic acid
> <PUBCHEM_IUPAC_NAME>
2-[[[5-[(2,6-dichlorobenzoyl)amino]-1,3,4-thiadiazol-2-yl]amino]methyl]-3,3-dimethylbutanoic acid
> <PUBCHEM_IUPAC_SYSTEMATIC_NAME>
2-[[[5-[[2,6-bis(chloranyl)phenyl]carbonylamino]-1,3,4-thiadiazol-2-yl]amino]methyl]-3,3-dimethyl-butanoic acid
> <PUBCHEM_IUPAC_TRADITIONAL_NAME>
2-[[[5-[(2,6-dichlorobenzoyl)amino]-1,3,4-thiadiazol-2-yl]amino]methyl]-3,3-dimethyl-butyric acid
> <PUBCHEM_IUPAC_INCHI>
InChI=1S/C16H18Cl2N4O3S/c1-16(2,3)8(13(24)25)7-19-14-21-22-15(26-14)20-12(23)11-9(17)5-4-6-10(11)18/h4-6,8H,7H2,1-3H3,(H,19,21)(H,24,25)(H,20,22,23)
> <PUBCHEM_IUPAC_INCHIKEY>
KKUBGCVGINKOPY-UHFFFAOYSA-N
> <PUBCHEM_XLOGP3_AA>
4.9
> <PUBCHEM_EXACT_MASS>
416.0476670
> <PUBCHEM_MOLECULAR_FORMULA>
C16H18Cl2N4O3S
> <PUBCHEM_MOLECULAR_WEIGHT>
417.3
> <PUBCHEM_OPENEYE_CAN_SMILES>
CC(C)(C)C(CNC1=NN=C(S1)NC(=O)C2=C(C=CC=C2Cl)Cl)C(=O)O
> <PUBCHEM_OPENEYE_ISO_SMILES>
CC(C)(C)C(CNC1=NN=C(S1)NC(=O)C2=C(C=CC=C2Cl)Cl)C(=O)O
> <PUBCHEM_CACTVS_TPSA>
132
> <PUBCHEM_MONOISOTOPIC_WEIGHT>
416.0476670
> <PUBCHEM_TOTAL_CHARGE>
0
> <PUBCHEM_HEAVY_ATOM_COUNT>
26
> <PUBCHEM_ATOM_DEF_STEREO_COUNT>
0
> <PUBCHEM_ATOM_UDEF_STEREO_COUNT>
1
> <PUBCHEM_BOND_DEF_STEREO_COUNT>
0
> <PUBCHEM_BOND_UDEF_STEREO_COUNT>
0
> <PUBCHEM_ISOTOPIC_ATOM_COUNT>
0
> <PUBCHEM_COMPONENT_COUNT>
1
> <PUBCHEM_CACTVS_TAUTO_COUNT>
-1
> <PUBCHEM_COORDINATE_TYPE>
1
5
255
> <PUBCHEM_BONDANNOTATIONS>
12  13  3
21  22  8
21  23  8
22  24  8
23  25  8
24  26  8
25  26  8
3  18  8
3  19  8
8  18  8
8  9  8
9  19  8
$$$$
