509949
  -OEChem-10302200282D
 62 66  0     1  0  0  0  0  0999 V2000
    3.7891    0.7245    0.0000 S   0  0  0  0  0  0  0  0  0  0  0  0
    6.3301    2.3123    0.0000 O   0  0  0  0  0  0  0  0  0  0  0  0
    3.7320    3.8123    0.0000 O   0  0  0  0  0  0  0  0  0  0  0  0
    3.5103   -1.0356    0.0000 N   0  0  0  0  0  0  0  0  0  0  0  0
    5.0981   -0.2265    0.0000 N   0  0  0  0  0  0  0  0  0  0  0  0
    5.4071    0.7245    0.0000 N   0  0  0  0  0  0  0  0  0  0  0  0
    4.5981    2.3123    0.0000 N   0  0  0  0  0  0  0  0  0  0  0  0
    5.0123   -4.9482    0.0000 C   0  0  0  0  0  0  0  0  0  0  0  0
    3.8574   -4.1586    0.0000 C   0  0  3  0  0  0  0  0  0  0  0  0
    3.5319   -5.1041    0.0000 C   0  0  3  0  0  0  0  0  0  0  0  0
    2.3717   -5.5068    0.0000 C   0  0  0  0  0  0  0  0  0  0  0  0
    3.3292   -2.7581    0.0000 C   0  0  1  0  0  0  0  0  0  0  0  0
    2.0202   -3.7092    0.0000 C   0  0  0  0  0  0  0  0  0  0  0  0
    2.3292   -2.7581    0.0000 C   0  0  0  0  0  0  0  0  0  0  0  0
    5.4507   -5.8470    0.0000 C   0  0  0  0  0  0  0  0  0  0  0  0
    5.9111   -4.5098    0.0000 C   0  0  0  0  0  0  0  0  0  0  0  0
    3.9170   -1.9491    0.0000 C   0  0  0  0  0  0  0  0  0  0  0  0
    4.0981   -0.2265    0.0000 C   0  0  0  0  0  0  0  0  0  0  0  0
    4.5981    1.3123    0.0000 C   0  0  0  0  0  0  0  0  0  0  0  0
    5.4641    2.8123    0.0000 C   0  0  0  0  0  0  0  0  0  0  0  0
    5.4641    3.8123    0.0000 C   0  0  0  0  0  0  0  0  0  0  0  0
    6.3301    4.3123    0.0000 C   0  0  0  0  0  0  0  0  0  0  0  0
    4.5981    4.3123    0.0000 C   0  0  0  0  0  0  0  0  0  0  0  0
    6.3301    5.3123    0.0000 C   0  0  0  0  0  0  0  0  0  0  0  0
    4.5981    5.3123    0.0000 C   0  0  0  0  0  0  0  0  0  0  0  0
    7.2241    3.7776    0.0000 C   0  0  0  0  0  0  0  0  0  0  0  0
    5.4641    5.8123    0.0000 C   0  0  0  0  0  0  0  0  0  0  0  0
    7.2241    5.8470    0.0000 C   0  0  0  0  0  0  0  0  0  0  0  0
    8.1301    4.2915    0.0000 C   0  0  0  0  0  0  0  0  0  0  0  0
    8.1301    5.3331    0.0000 C   0  0  0  0  0  0  0  0  0  0  0  0
    2.8660    4.3123    0.0000 C   0  0  0  0  0  0  0  0  0  0  0  0
    2.0000    3.8123    0.0000 C   0  0  0  0  0  0  0  0  0  0  0  0
    4.3450   -3.7756    0.0000 H   0  0  0  0  0  0  0  0  0  0  0  0
    3.6669   -5.7092    0.0000 H   0  0  0  0  0  0  0  0  0  0  0  0
    1.8120   -5.2402    0.0000 H   0  0  0  0  0  0  0  0  0  0  0  0
    2.3375   -6.1259    0.0000 H   0  0  0  0  0  0  0  0  0  0  0  0
    3.0478   -2.2057    0.0000 H   0  0  0  0  0  0  0  0  0  0  0  0
    1.4641   -3.4351    0.0000 H   0  0  0  0  0  0  0  0  0  0  0  0
    1.6694   -4.2203    0.0000 H   0  0  0  0  0  0  0  0  0  0  0  0
    2.3940   -2.1415    0.0000 H   0  0  0  0  0  0  0  0  0  0  0  0
    1.7228   -2.6292    0.0000 H   0  0  0  0  0  0  0  0  0  0  0  0
    4.8934   -6.1188    0.0000 H   0  0  0  0  0  0  0  0  0  0  0  0
    5.7224   -6.4042    0.0000 H   0  0  0  0  0  0  0  0  0  0  0  0
    6.0079   -5.5752    0.0000 H   0  0  0  0  0  0  0  0  0  0  0  0
    6.1829   -5.0670    0.0000 H   0  0  0  0  0  0  0  0  0  0  0  0
    6.4683   -4.2380    0.0000 H   0  0  0  0  0  0  0  0  0  0  0  0
    5.6393   -3.9525    0.0000 H   0  0  0  0  0  0  0  0  0  0  0  0
    4.3477   -2.3951    0.0000 H   0  0  0  0  0  0  0  0  0  0  0  0
    4.4310   -1.6024    0.0000 H   0  0  0  0  0  0  0  0  0  0  0  0
    2.8937   -0.9708    0.0000 H   0  0  0  0  0  0  0  0  0  0  0  0
    4.0611    2.6223    0.0000 H   0  0  0  0  0  0  0  0  0  0  0  0
    4.0611    5.6223    0.0000 H   0  0  0  0  0  0  0  0  0  0  0  0
    7.2169    3.1577    0.0000 H   0  0  0  0  0  0  0  0  0  0  0  0
    5.4641    6.4323    0.0000 H   0  0  0  0  0  0  0  0  0  0  0  0
    7.2169    6.4669    0.0000 H   0  0  0  0  0  0  0  0  0  0  0  0
    8.6659    3.9794    0.0000 H   0  0  0  0  0  0  0  0  0  0  0  0
    8.6659    5.6452    0.0000 H   0  0  0  0  0  0  0  0  0  0  0  0
    3.2646    4.7872    0.0000 H   0  0  0  0  0  0  0  0  0  0  0  0
    2.4675    4.7872    0.0000 H   0  0  0  0  0  0  0  0  0  0  0  0
    1.6900    4.3492    0.0000 H   0  0  0  0  0  0  0  0  0  0  0  0
    1.4631    3.5023    0.0000 H   0  0  0  0  0  0  0  0  0  0  0  0
    2.3100    3.2754    0.0000 H   0  0  0  0  0  0  0  0  0  0  0  0
  1 18  1  0  0  0  0
  1 19  1  0  0  0  0
  2 20  2  0  0  0  0
  3 23  1  0  0  0  0
  3 31  1  0  0  0  0
  4 17  1  0  0  0  0
  4 18  1  0  0  0  0
  4 50  1  0  0  0  0
  5  6  1  0  0  0  0
  5 18  2  0  0  0  0
  6 19  2  0  0  0  0
  7 19  1  0  0  0  0
  7 20  1  0  0  0  0
  7 51  1  0  0  0  0
  8  9  1  0  0  0  0
  8 10  1  0  0  0  0
  8 15  1  0  0  0  0
  8 16  1  0  0  0  0
  9 11  1  0  0  0  0
  9 12  1  0  0  0  0
  9 33  1  0  0  0  0
 10 11  1  0  0  0  0
 10 13  1  0  0  0  0
 10 34  1  0  0  0  0
 11 35  1  0  0  0  0
 11 36  1  0  0  0  0
 12 14  1  0  0  0  0
 12 17  1  1  0  0  0
 12 37  1  0  0  0  0
 13 14  1  0  0  0  0
 13 38  1  0  0  0  0
 13 39  1  0  0  0  0
 14 40  1  0  0  0  0
 14 41  1  0  0  0  0
 15 42  1  0  0  0  0
 15 43  1  0  0  0  0
 15 44  1  0  0  0  0
 16 45  1  0  0  0  0
 16 46  1  0  0  0  0
 16 47  1  0  0  0  0
 17 48  1  0  0  0  0
 17 49  1  0  0  0  0
 20 21  1  0  0  0  0
 21 22  1  0  0  0  0
 21 23  2  0  0  0  0
 22 24  1  0  0  0  0
 22 26  2  0  0  0  0
 23 25  1  0  0  0  0
 24 27  1  0  0  0  0
 24 28  2  0  0  0  0
 25 27  2  0  0  0  0
 25 52  1  0  0  0  0
 26 29  1  0  0  0  0
 26 53  1  0  0  0  0
 27 54  1  0  0  0  0
 28 30  1  0  0  0  0
 28 55  1  0  0  0  0
 29 30  2  0  0  0  0
 29 56  1  0  0  0  0
 30 57  1  0  0  0  0
 31 32  1  0  0  0  0
 31 58  1  0  0  0  0
 31 59  1  0  0  0  0
 32 60  1  0  0  0  0
 32 61  1  0  0  0  0
 32 62  1  0  0  0  0
M  END
> <PUBCHEM_COMPOUND_CID>
509949
> <PUBCHEM_COMPOUND_CANONICALIZED>
1
> <PUBCHEM_CACTVS_COMPLEXITY>
676
> <PUBCHEM_CACTVS_HBOND_ACCEPTOR>
6
> <PUBCHEM_CACTVS_HBOND_DONOR>
2
> <PUBCHEM_CACTVS_ROTATABLE_BOND>
7
> <PUBCHEM_CACTVS_SUBSKEYS>
AAADceB7sABAAAAAAAAAAAAAAABgAWAAAAAwYMGAAAAAAADB1AAAHgQYAAAADwThmAYzFsLABAiuAiFSMACSCAJkIAkNiIEODMiMJjaEvRuGOWj28RMIqQeYyPCPoAADAAAYAADAAAYAADAAAAAAAAAAAA==
> <PUBCHEM_IUPAC_OPENEYE_NAME>
N-[5-[[(2R)-6,6-dimethylnorpinan-2-yl]methylamino]-1,3,4-thiadiazol-2-yl]-2-ethoxy-naphthalene-1-carboxamide
> <PUBCHEM_IUPAC_CAS_NAME>
N-[5-[[(2R)-6,6-dimethyl-2-bicyclo[3.1.1]heptanyl]methylamino]-1,3,4-thiadiazol-2-yl]-2-ethoxy-1-naphthalenecarboxamide
> <PUBCHEM_IUPAC_NAME_MARKUP>
<I>N</I>-[5-[[(2<I>R</I>)-6,6-dimethyl-2-bicyclo[3.1.1]heptanyl]methylamino]-1,3,4-thiadiazol-2-yl]-2-ethoxynaphthalene-1-carboxamide
> <PUBCHEM_IUPAC_NAME>
N-[5-[[(2R)-6,6-dimethyl-2-bicyclo[3.1.1]heptanyl]methylamino]-1,3,4-thiadiazol-2-yl]-2-ethoxynaphthalene-1-carboxamide
> <PUBCHEM_IUPAC_SYSTEMATIC_NAME>
N-[5-[[(2R)-6,6-dimethyl-2-bicyclo[3.1.1]heptanyl]methylamino]-1,3,4-thiadiazol-2-yl]-2-ethoxy-naphthalene-1-carboxamide
> <PUBCHEM_IUPAC_TRADITIONAL_NAME>
N-[5-[[(2R)-6,6-dimethylnorpinan-2-yl]methylamino]-1,3,4-thiadiazol-2-yl]-2-ethoxy-1-naphthamide
> <PUBCHEM_IUPAC_INCHI>
InChI=1S/C25H30N4O2S/c1-4-31-20-12-10-15-7-5-6-8-18(15)21(20)22(30)27-24-29-28-23(32-24)26-14-16-9-11-17-13-19(16)25(17,2)3/h5-8,10,12,16-17,19H,4,9,11,13-14H2,1-3H3,(H,26,28)(H,27,29,30)/t16-,17?,19?/m0/s1
> <PUBCHEM_IUPAC_INCHIKEY>
PBARWJJKWDTOCV-MUYFXNHWSA-N
> <PUBCHEM_XLOGP3_AA>
6.4
> <PUBCHEM_EXACT_MASS>
450.20894739
> <PUBCHEM_MOLECULAR_FORMULA>
C25H30N4O2S
> <PUBCHEM_MOLECULAR_WEIGHT>
450.6
> <PUBCHEM_OPENEYE_CAN_SMILES>
CCOC1=C(C2=CC=CC=C2C=C1)C(=O)NC3=NN=C(S3)NCC4CCC5CC4C5(C)C
> <PUBCHEM_OPENEYE_ISO_SMILES>
CCOC1=C(C2=CC=CC=C2C=C1)C(=O)NC3=NN=C(S3)NC[C@@H]4CCC5CC4C5(C)C
> <PUBCHEM_CACTVS_TPSA>
104
> <PUBCHEM_MONOISOTOPIC_WEIGHT>
450.20894739
> <PUBCHEM_TOTAL_CHARGE>
0
> <PUBCHEM_HEAVY_ATOM_COUNT>
32
> <PUBCHEM_ATOM_DEF_STEREO_COUNT>
1
> <PUBCHEM_ATOM_UDEF_STEREO_COUNT>
2
> <PUBCHEM_BOND_DEF_STEREO_COUNT>
0
> <PUBCHEM_BOND_UDEF_STEREO_COUNT>
0
> <PUBCHEM_ISOTOPIC_ATOM_COUNT>
0
> <PUBCHEM_COMPONENT_COUNT>
1
> <PUBCHEM_CACTVS_TAUTO_COUNT>
-1
> <PUBCHEM_COORDINATE_TYPE>
1
5
255
> <PUBCHEM_BONDANNOTATIONS>
1  18  8
1  19  8
10  13  3
12  17  5
21  22  8
21  23  8
22  24  8
22  26  8
23  25  8
24  27  8
24  28  8
25  27  8
26  29  8
28  30  8
29  30  8
5  18  8
5  6  8
6  19  8
9  11  3
$$$$
