509934
  -OEChem-10302200282D
 76 77  0     1  0  0  0  0  0999 V2000
    7.0723    1.7506    0.0000 S   0  0  0  0  0  0  0  0  0  0  0  0
    2.8090    0.5239    0.0000 O   0  0  0  0  0  0  0  0  0  0  0  0
    9.3676   -0.1755    0.0000 O   0  0  0  0  0  0  0  0  0  0  0  0
    5.3122    1.4718    0.0000 N   0  0  0  0  0  0  0  0  0  0  0  0
    8.8324    1.4718    0.0000 N   0  0  0  0  0  0  0  0  0  0  0  0
    6.5723    0.2117    0.0000 N   0  0  0  0  0  0  0  0  0  0  0  0
    7.5723    0.2117    0.0000 N   0  0  0  0  0  0  0  0  0  0  0  0
    3.6180    1.1117    0.0000 C   0  0  3  0  0  0  0  0  0  0  0  0
    3.3090    2.0627    0.0000 C   0  0  0  0  0  0  0  0  0  0  0  0
    2.3090    2.0627    0.0000 C   0  0  0  0  0  0  0  0  0  0  0  0
    2.0000    1.1117    0.0000 C   0  0  0  0  0  0  0  0  0  0  0  0
    4.5691    0.8027    0.0000 C   0  0  0  0  0  0  0  0  0  0  0  0
   12.9639    0.0824    0.0000 C   0  0  0  0  0  0  0  0  0  0  0  0
   13.9150    0.3915    0.0000 C   0  0  0  0  0  0  0  0  0  0  0  0
   20.6918   -1.0490    0.0000 C   0  0  0  0  0  0  0  0  0  0  0  0
   19.7407   -1.3580    0.0000 C   0  0  0  0  0  0  0  0  0  0  0  0
   12.2208    0.7516    0.0000 C   0  0  0  0  0  0  0  0  0  0  0  0
   21.4349   -1.7181    0.0000 C   0  0  0  0  0  0  0  0  0  0  0  0
   14.6581   -0.2777    0.0000 C   0  0  0  0  0  0  0  0  0  0  0  0
   18.9976   -0.6889    0.0000 C   0  0  0  0  0  0  0  0  0  0  0  0
   11.2697    0.4426    0.0000 C   0  0  0  0  0  0  0  0  0  0  0  0
   22.3860   -1.4091    0.0000 C   0  0  0  0  0  0  0  0  0  0  0  0
   15.6092    0.0313    0.0000 C   0  0  0  0  0  0  0  0  0  0  0  0
   18.0465   -0.9979    0.0000 C   0  0  0  0  0  0  0  0  0  0  0  0
   10.5266    1.1117    0.0000 C   0  0  0  0  0  0  0  0  0  0  0  0
   23.1291   -2.0782    0.0000 C   0  0  0  0  0  0  0  0  0  0  0  0
   16.3523   -0.6378    0.0000 C   0  0  0  0  0  0  0  0  0  0  0  0
   17.3034   -0.3288    0.0000 C   0  0  0  0  0  0  0  0  0  0  0  0
    6.2633    1.1628    0.0000 C   0  0  0  0  0  0  0  0  0  0  0  0
    9.5755    0.8027    0.0000 C   0  0  0  0  0  0  0  0  0  0  0  0
   24.0802   -1.7692    0.0000 C   0  0  0  0  0  0  0  0  0  0  0  0
    7.8813    1.1628    0.0000 C   0  0  0  0  0  0  0  0  0  0  0  0
    3.7150    0.4993    0.0000 H   0  0  0  0  0  0  0  0  0  0  0  0
    3.9155    2.1916    0.0000 H   0  0  0  0  0  0  0  0  0  0  0  0
    3.2442    2.6793    0.0000 H   0  0  0  0  0  0  0  0  0  0  0  0
    2.3738    2.6793    0.0000 H   0  0  0  0  0  0  0  0  0  0  0  0
    1.7026    2.1916    0.0000 H   0  0  0  0  0  0  0  0  0  0  0  0
    1.4336    1.3639    0.0000 H   0  0  0  0  0  0  0  0  0  0  0  0
    1.6900    0.5747    0.0000 H   0  0  0  0  0  0  0  0  0  0  0  0
    4.2780    0.2552    0.0000 H   0  0  0  0  0  0  0  0  0  0  0  0
    5.0577    0.4210    0.0000 H   0  0  0  0  0  0  0  0  0  0  0  0
   12.4754   -0.2993    0.0000 H   0  0  0  0  0  0  0  0  0  0  0  0
   13.2550   -0.4650    0.0000 H   0  0  0  0  0  0  0  0  0  0  0  0
   14.4036    0.7732    0.0000 H   0  0  0  0  0  0  0  0  0  0  0  0
   13.6239    0.9389    0.0000 H   0  0  0  0  0  0  0  0  0  0  0  0
   21.1804   -0.6673    0.0000 H   0  0  0  0  0  0  0  0  0  0  0  0
   20.4007   -0.5016    0.0000 H   0  0  0  0  0  0  0  0  0  0  0  0
   19.2522   -1.7397    0.0000 H   0  0  0  0  0  0  0  0  0  0  0  0
   20.0318   -1.9054    0.0000 H   0  0  0  0  0  0  0  0  0  0  0  0
   12.7094    1.1333    0.0000 H   0  0  0  0  0  0  0  0  0  0  0  0
   11.9297    1.2990    0.0000 H   0  0  0  0  0  0  0  0  0  0  0  0
   20.9464   -2.0998    0.0000 H   0  0  0  0  0  0  0  0  0  0  0  0
   21.7260   -2.2656    0.0000 H   0  0  0  0  0  0  0  0  0  0  0  0
   14.1696   -0.6594    0.0000 H   0  0  0  0  0  0  0  0  0  0  0  0
   14.9492   -0.8251    0.0000 H   0  0  0  0  0  0  0  0  0  0  0  0
   19.4862   -0.3072    0.0000 H   0  0  0  0  0  0  0  0  0  0  0  0
   18.7065   -0.1415    0.0000 H   0  0  0  0  0  0  0  0  0  0  0  0
    5.1833    2.0782    0.0000 H   0  0  0  0  0  0  0  0  0  0  0  0
   10.7812    0.0608    0.0000 H   0  0  0  0  0  0  0  0  0  0  0  0
   11.5608   -0.1049    0.0000 H   0  0  0  0  0  0  0  0  0  0  0  0
   22.8746   -1.0274    0.0000 H   0  0  0  0  0  0  0  0  0  0  0  0
   22.0949   -0.8617    0.0000 H   0  0  0  0  0  0  0  0  0  0  0  0
   16.0978    0.4130    0.0000 H   0  0  0  0  0  0  0  0  0  0  0  0
   15.3181    0.5788    0.0000 H   0  0  0  0  0  0  0  0  0  0  0  0
   17.5580   -1.3796    0.0000 H   0  0  0  0  0  0  0  0  0  0  0  0
   18.3376   -1.5453    0.0000 H   0  0  0  0  0  0  0  0  0  0  0  0
   11.0152    1.4934    0.0000 H   0  0  0  0  0  0  0  0  0  0  0  0
   10.2355    1.6591    0.0000 H   0  0  0  0  0  0  0  0  0  0  0  0
   22.6406   -2.4600    0.0000 H   0  0  0  0  0  0  0  0  0  0  0  0
   23.4202   -2.6257    0.0000 H   0  0  0  0  0  0  0  0  0  0  0  0
   16.2234   -1.2442    0.0000 H   0  0  0  0  0  0  0  0  0  0  0  0
   17.4323    0.2777    0.0000 H   0  0  0  0  0  0  0  0  0  0  0  0
   24.2718   -2.3589    0.0000 H   0  0  0  0  0  0  0  0  0  0  0  0
   24.6698   -1.5776    0.0000 H   0  0  0  0  0  0  0  0  0  0  0  0
   23.8886   -1.1796    0.0000 H   0  0  0  0  0  0  0  0  0  0  0  0
    8.9613    2.0782    0.0000 H   0  0  0  0  0  0  0  0  0  0  0  0
  1 29  1  0  0  0  0
  1 32  1  0  0  0  0
  2  8  1  0  0  0  0
  2 11  1  0  0  0  0
  3 30  2  0  0  0  0
  4 12  1  0  0  0  0
  4 29  1  0  0  0  0
  4 58  1  0  0  0  0
  5 30  1  0  0  0  0
  5 32  1  0  0  0  0
  5 76  1  0  0  0  0
  6  7  1  0  0  0  0
  6 29  2  0  0  0  0
  7 32  2  0  0  0  0
  8  9  1  0  0  0  0
  8 12  1  0  0  0  0
  8 33  1  0  0  0  0
  9 10  1  0  0  0  0
  9 34  1  0  0  0  0
  9 35  1  0  0  0  0
 10 11  1  0  0  0  0
 10 36  1  0  0  0  0
 10 37  1  0  0  0  0
 11 38  1  0  0  0  0
 11 39  1  0  0  0  0
 12 40  1  0  0  0  0
 12 41  1  0  0  0  0
 13 14  1  0  0  0  0
 13 17  1  0  0  0  0
 13 42  1  0  0  0  0
 13 43  1  0  0  0  0
 14 19  1  0  0  0  0
 14 44  1  0  0  0  0
 14 45  1  0  0  0  0
 15 16  1  0  0  0  0
 15 18  1  0  0  0  0
 15 46  1  0  0  0  0
 15 47  1  0  0  0  0
 16 20  1  0  0  0  0
 16 48  1  0  0  0  0
 16 49  1  0  0  0  0
 17 21  1  0  0  0  0
 17 50  1  0  0  0  0
 17 51  1  0  0  0  0
 18 22  1  0  0  0  0
 18 52  1  0  0  0  0
 18 53  1  0  0  0  0
 19 23  1  0  0  0  0
 19 54  1  0  0  0  0
 19 55  1  0  0  0  0
 20 24  1  0  0  0  0
 20 56  1  0  0  0  0
 20 57  1  0  0  0  0
 21 25  1  0  0  0  0
 21 59  1  0  0  0  0
 21 60  1  0  0  0  0
 22 26  1  0  0  0  0
 22 61  1  0  0  0  0
 22 62  1  0  0  0  0
 23 27  1  0  0  0  0
 23 63  1  0  0  0  0
 23 64  1  0  0  0  0
 24 28  1  0  0  0  0
 24 65  1  0  0  0  0
 24 66  1  0  0  0  0
 25 30  1  0  0  0  0
 25 67  1  0  0  0  0
 25 68  1  0  0  0  0
 26 31  1  0  0  0  0
 26 69  1  0  0  0  0
 26 70  1  0  0  0  0
 27 28  2  3  0  0  0
 27 71  1  0  0  0  0
 28 72  1  0  0  0  0
 31 73  1  0  0  0  0
 31 74  1  0  0  0  0
 31 75  1  0  0  0  0
M  END
> <PUBCHEM_COMPOUND_CID>
509934
> <PUBCHEM_COMPOUND_CANONICALIZED>
1
> <PUBCHEM_CACTVS_COMPLEXITY>
506
> <PUBCHEM_CACTVS_HBOND_ACCEPTOR>
6
> <PUBCHEM_CACTVS_HBOND_DONOR>
2
> <PUBCHEM_CACTVS_ROTATABLE_BOND>
19
> <PUBCHEM_CACTVS_SUBSKEYS>
AAADcfB7sABAAAAAAAAAAAAAAAAAAWJAAAAAAAAAAAAAAAABgAAAHgQYAAAACBThgAYDEALABAiuACFSMAAQAAJgAAkNCIEIAAiCABIAiQAHAAAUkQIYAAOYmIKAAAAAAAAAAAAAAAAAAAAAAAAAAAAAAA==
> <PUBCHEM_IUPAC_OPENEYE_NAME>
N-[5-(tetrahydrofuran-2-ylmethylamino)-1,3,4-thiadiazol-2-yl]octadec-9-enamide
> <PUBCHEM_IUPAC_CAS_NAME>
N-[5-(2-oxolanylmethylamino)-1,3,4-thiadiazol-2-yl]-9-octadecenamide
> <PUBCHEM_IUPAC_NAME_MARKUP>
<I>N</I>-[5-(oxolan-2-ylmethylamino)-1,3,4-thiadiazol-2-yl]octadec-9-enamide
> <PUBCHEM_IUPAC_NAME>
N-[5-(oxolan-2-ylmethylamino)-1,3,4-thiadiazol-2-yl]octadec-9-enamide
> <PUBCHEM_IUPAC_SYSTEMATIC_NAME>
N-[5-(oxolan-2-ylmethylamino)-1,3,4-thiadiazol-2-yl]octadec-9-enamide
> <PUBCHEM_IUPAC_TRADITIONAL_NAME>
N-[5-(tetrahydrofurfurylamino)-1,3,4-thiadiazol-2-yl]octadec-9-enamide
> <PUBCHEM_IUPAC_INCHI>
InChI=1S/C25H44N4O2S/c1-2-3-4-5-6-7-8-9-10-11-12-13-14-15-16-19-23(30)27-25-29-28-24(32-25)26-21-22-18-17-20-31-22/h9-10,22H,2-8,11-21H2,1H3,(H,26,28)(H,27,29,30)
> <PUBCHEM_IUPAC_INCHIKEY>
XRKKWLYTFZBDRB-UHFFFAOYSA-N
> <PUBCHEM_XLOGP3_AA>
8.1
> <PUBCHEM_EXACT_MASS>
464.31849783
> <PUBCHEM_MOLECULAR_FORMULA>
C25H44N4O2S
> <PUBCHEM_MOLECULAR_WEIGHT>
464.7
> <PUBCHEM_OPENEYE_CAN_SMILES>
CCCCCCCCC=CCCCCCCCC(=O)NC1=NN=C(S1)NCC2CCCO2
> <PUBCHEM_OPENEYE_ISO_SMILES>
CCCCCCCCC=CCCCCCCCC(=O)NC1=NN=C(S1)NCC2CCCO2
> <PUBCHEM_CACTVS_TPSA>
104
> <PUBCHEM_MONOISOTOPIC_WEIGHT>
464.31849783
> <PUBCHEM_TOTAL_CHARGE>
0
> <PUBCHEM_HEAVY_ATOM_COUNT>
32
> <PUBCHEM_ATOM_DEF_STEREO_COUNT>
0
> <PUBCHEM_ATOM_UDEF_STEREO_COUNT>
1
> <PUBCHEM_BOND_DEF_STEREO_COUNT>
0
> <PUBCHEM_BOND_UDEF_STEREO_COUNT>
1
> <PUBCHEM_ISOTOPIC_ATOM_COUNT>
0
> <PUBCHEM_COMPONENT_COUNT>
1
> <PUBCHEM_CACTVS_TAUTO_COUNT>
-1
> <PUBCHEM_COORDINATE_TYPE>
1
5
255
> <PUBCHEM_BONDANNOTATIONS>
1  29  8
1  32  8
27  28  1
6  29  8
6  7  8
7  32  8
8  12  3
$$$$
