509967
  -OEChem-10302200282D
 79 81  0     1  0  0  0  0  0999 V2000
    6.3758   -0.7764    0.0000 S   0  0  0  0  0  0  0  0  0  0  0  0
    9.3257   -1.3019    0.0000 O   0  0  0  0  0  0  0  0  0  0  0  0
    4.9889   -1.8955    0.0000 N   0  0  0  0  0  0  0  0  0  0  0  0
    6.7094   -2.3597    0.0000 N   0  0  0  0  0  0  0  0  0  0  0  0
    8.0405   -0.1407    0.0000 N   0  0  0  0  0  0  0  0  0  0  0  0
    7.5763   -1.8612    0.0000 N   0  0  0  0  0  0  0  0  0  0  0  0
    4.6783   -2.8460    0.0000 C   0  0  3  0  0  0  0  0  0  0  0  0
    5.2619   -3.6507    0.0000 C   0  0  0  0  0  0  0  0  0  0  0  0
    4.6783   -4.4555    0.0000 C   0  0  0  0  0  0  0  0  0  0  0  0
    3.7320   -3.1507    0.0000 C   0  0  0  0  0  0  0  0  0  0  0  0
    3.7320   -4.1507    0.0000 C   0  0  0  0  0  0  0  0  0  0  0  0
    2.8660   -2.6507    0.0000 C   0  0  0  0  0  0  0  0  0  0  0  0
    2.8660   -4.6507    0.0000 C   0  0  0  0  0  0  0  0  0  0  0  0
    2.0000   -3.1507    0.0000 C   0  0  0  0  0  0  0  0  0  0  0  0
    2.0000   -4.1507    0.0000 C   0  0  0  0  0  0  0  0  0  0  0  0
    5.9674   -1.6893    0.0000 C   0  0  0  0  0  0  0  0  0  0  0  0
   12.3147    0.7145    0.0000 C   0  0  0  0  0  0  0  0  0  0  0  0
   12.9851    1.4564    0.0000 C   0  0  0  0  0  0  0  0  0  0  0  0
   19.5779    3.5860    0.0000 C   0  0  0  0  0  0  0  0  0  0  0  0
   18.9075    2.8440    0.0000 C   0  0  0  0  0  0  0  0  0  0  0  0
   11.3369    0.9241    0.0000 C   0  0  0  0  0  0  0  0  0  0  0  0
   13.9629    1.2468    0.0000 C   0  0  0  0  0  0  0  0  0  0  0  0
   20.5557    3.3764    0.0000 C   0  0  0  0  0  0  0  0  0  0  0  0
   17.9297    3.0536    0.0000 C   0  0  0  0  0  0  0  0  0  0  0  0
   10.6665    0.1821    0.0000 C   0  0  0  0  0  0  0  0  0  0  0  0
   21.2261    4.1184    0.0000 C   0  0  0  0  0  0  0  0  0  0  0  0
   14.6333    1.9888    0.0000 C   0  0  0  0  0  0  0  0  0  0  0  0
   17.2593    2.3116    0.0000 C   0  0  0  0  0  0  0  0  0  0  0  0
    9.6887    0.3917    0.0000 C   0  0  0  0  0  0  0  0  0  0  0  0
   22.2039    3.9088    0.0000 C   0  0  0  0  0  0  0  0  0  0  0  0
   15.6111    1.7792    0.0000 C   0  0  0  0  0  0  0  0  0  0  0  0
   16.2815    2.5212    0.0000 C   0  0  0  0  0  0  0  0  0  0  0  0
    7.3701   -0.8827    0.0000 C   0  0  0  0  0  0  0  0  0  0  0  0
    9.0183   -0.3503    0.0000 C   0  0  0  0  0  0  0  0  0  0  0  0
   22.8743    4.6507    0.0000 C   0  0  0  0  0  0  0  0  0  0  0  0
    5.2908   -2.7498    0.0000 H   0  0  0  0  0  0  0  0  0  0  0  0
    5.7227   -4.0655    0.0000 H   0  0  0  0  0  0  0  0  0  0  0  0
    5.7227   -3.2360    0.0000 H   0  0  0  0  0  0  0  0  0  0  0  0
    4.4272   -5.0224    0.0000 H   0  0  0  0  0  0  0  0  0  0  0  0
    5.2156   -4.7647    0.0000 H   0  0  0  0  0  0  0  0  0  0  0  0
    4.5749   -1.4340    0.0000 H   0  0  0  0  0  0  0  0  0  0  0  0
    2.8660   -2.0307    0.0000 H   0  0  0  0  0  0  0  0  0  0  0  0
    2.8660   -5.2707    0.0000 H   0  0  0  0  0  0  0  0  0  0  0  0
    1.4631   -2.8407    0.0000 H   0  0  0  0  0  0  0  0  0  0  0  0
    1.4631   -4.4607    0.0000 H   0  0  0  0  0  0  0  0  0  0  0  0
   12.0815    0.1400    0.0000 H   0  0  0  0  0  0  0  0  0  0  0  0
   12.8399    0.3850    0.0000 H   0  0  0  0  0  0  0  0  0  0  0  0
   13.2184    2.0309    0.0000 H   0  0  0  0  0  0  0  0  0  0  0  0
   12.4599    1.7859    0.0000 H   0  0  0  0  0  0  0  0  0  0  0  0
   19.8112    4.1604    0.0000 H   0  0  0  0  0  0  0  0  0  0  0  0
   19.0527    3.9154    0.0000 H   0  0  0  0  0  0  0  0  0  0  0  0
   18.6743    2.2695    0.0000 H   0  0  0  0  0  0  0  0  0  0  0  0
   19.4327    2.5145    0.0000 H   0  0  0  0  0  0  0  0  0  0  0  0
   11.5702    1.4985    0.0000 H   0  0  0  0  0  0  0  0  0  0  0  0
   10.8117    1.2535    0.0000 H   0  0  0  0  0  0  0  0  0  0  0  0
   13.7297    0.6724    0.0000 H   0  0  0  0  0  0  0  0  0  0  0  0
   14.4881    0.9174    0.0000 H   0  0  0  0  0  0  0  0  0  0  0  0
   20.3225    2.8019    0.0000 H   0  0  0  0  0  0  0  0  0  0  0  0
   21.0809    3.0469    0.0000 H   0  0  0  0  0  0  0  0  0  0  0  0
   18.1630    3.6280    0.0000 H   0  0  0  0  0  0  0  0  0  0  0  0
   17.4045    3.3831    0.0000 H   0  0  0  0  0  0  0  0  0  0  0  0
   10.4332   -0.3924    0.0000 H   0  0  0  0  0  0  0  0  0  0  0  0
   11.1917   -0.1474    0.0000 H   0  0  0  0  0  0  0  0  0  0  0  0
   21.4594    4.6928    0.0000 H   0  0  0  0  0  0  0  0  0  0  0  0
   20.7009    4.4478    0.0000 H   0  0  0  0  0  0  0  0  0  0  0  0
   14.8666    2.5633    0.0000 H   0  0  0  0  0  0  0  0  0  0  0  0
   14.1081    2.3183    0.0000 H   0  0  0  0  0  0  0  0  0  0  0  0
   17.0261    1.7372    0.0000 H   0  0  0  0  0  0  0  0  0  0  0  0
   17.7845    1.9822    0.0000 H   0  0  0  0  0  0  0  0  0  0  0  0
    9.9220    0.9661    0.0000 H   0  0  0  0  0  0  0  0  0  0  0  0
    9.1635    0.7211    0.0000 H   0  0  0  0  0  0  0  0  0  0  0  0
   21.9707    3.3343    0.0000 H   0  0  0  0  0  0  0  0  0  0  0  0
   22.7291    3.5793    0.0000 H   0  0  0  0  0  0  0  0  0  0  0  0
   15.8017    1.1892    0.0000 H   0  0  0  0  0  0  0  0  0  0  0  0
   16.0910    3.1112    0.0000 H   0  0  0  0  0  0  0  0  0  0  0  0
    7.8499    0.4493    0.0000 H   0  0  0  0  0  0  0  0  0  0  0  0
   23.3344    4.2351    0.0000 H   0  0  0  0  0  0  0  0  0  0  0  0
   23.2900    5.1108    0.0000 H   0  0  0  0  0  0  0  0  0  0  0  0
   22.4143    5.0664    0.0000 H   0  0  0  0  0  0  0  0  0  0  0  0
  1 16  1  0  0  0  0
  1 33  1  0  0  0  0
  2 34  2  0  0  0  0
  3  7  1  0  0  0  0
  3 16  1  0  0  0  0
  3 41  1  0  0  0  0
  4  6  1  0  0  0  0
  4 16  2  0  0  0  0
  5 33  1  0  0  0  0
  5 34  1  0  0  0  0
  5 76  1  0  0  0  0
  6 33  2  0  0  0  0
  7  8  1  0  0  0  0
  7 10  1  0  0  0  0
  7 36  1  0  0  0  0
  8  9  1  0  0  0  0
  8 37  1  0  0  0  0
  8 38  1  0  0  0  0
  9 11  1  0  0  0  0
  9 39  1  0  0  0  0
  9 40  1  0  0  0  0
 10 11  1  0  0  0  0
 10 12  2  0  0  0  0
 11 13  2  0  0  0  0
 12 14  1  0  0  0  0
 12 42  1  0  0  0  0
 13 15  1  0  0  0  0
 13 43  1  0  0  0  0
 14 15  2  0  0  0  0
 14 44  1  0  0  0  0
 15 45  1  0  0  0  0
 17 18  1  0  0  0  0
 17 21  1  0  0  0  0
 17 46  1  0  0  0  0
 17 47  1  0  0  0  0
 18 22  1  0  0  0  0
 18 48  1  0  0  0  0
 18 49  1  0  0  0  0
 19 20  1  0  0  0  0
 19 23  1  0  0  0  0
 19 50  1  0  0  0  0
 19 51  1  0  0  0  0
 20 24  1  0  0  0  0
 20 52  1  0  0  0  0
 20 53  1  0  0  0  0
 21 25  1  0  0  0  0
 21 54  1  0  0  0  0
 21 55  1  0  0  0  0
 22 27  1  0  0  0  0
 22 56  1  0  0  0  0
 22 57  1  0  0  0  0
 23 26  1  0  0  0  0
 23 58  1  0  0  0  0
 23 59  1  0  0  0  0
 24 28  1  0  0  0  0
 24 60  1  0  0  0  0
 24 61  1  0  0  0  0
 25 29  1  0  0  0  0
 25 62  1  0  0  0  0
 25 63  1  0  0  0  0
 26 30  1  0  0  0  0
 26 64  1  0  0  0  0
 26 65  1  0  0  0  0
 27 31  1  0  0  0  0
 27 66  1  0  0  0  0
 27 67  1  0  0  0  0
 28 32  1  0  0  0  0
 28 68  1  0  0  0  0
 28 69  1  0  0  0  0
 29 34  1  0  0  0  0
 29 70  1  0  0  0  0
 29 71  1  0  0  0  0
 30 35  1  0  0  0  0
 30 72  1  0  0  0  0
 30 73  1  0  0  0  0
 31 32  2  3  0  0  0
 31 74  1  0  0  0  0
 32 75  1  0  0  0  0
 35 77  1  0  0  0  0
 35 78  1  0  0  0  0
 35 79  1  0  0  0  0
M  END
> <PUBCHEM_COMPOUND_CID>
509967
> <PUBCHEM_COMPOUND_CANONICALIZED>
1
> <PUBCHEM_CACTVS_COMPLEXITY>
601
> <PUBCHEM_CACTVS_HBOND_ACCEPTOR>
5
> <PUBCHEM_CACTVS_HBOND_DONOR>
2
> <PUBCHEM_CACTVS_ROTATABLE_BOND>
18
> <PUBCHEM_CACTVS_SUBSKEYS>
AAADcfB7oABAAAAAAAAAAAAAAAAAAeIAAAAwAAAAAAAAAGABwAAAHgQYAAAADCjBmAQzEILAAAiuAiFSMACSAAJgAAkNiIEIBIiIIDKAmRGEIAhwkQIIiAcYiICOgAAAAAAQAAAAAAAAACAAACAACQAAAA==
> <PUBCHEM_IUPAC_OPENEYE_NAME>
N-[5-(indan-1-ylamino)-1,3,4-thiadiazol-2-yl]octadec-9-enamide
> <PUBCHEM_IUPAC_CAS_NAME>
N-[5-(2,3-dihydro-1H-inden-1-ylamino)-1,3,4-thiadiazol-2-yl]-9-octadecenamide
> <PUBCHEM_IUPAC_NAME_MARKUP>
<I>N</I>-[5-(2,3-dihydro-1<I>H</I>-inden-1-ylamino)-1,3,4-thiadiazol-2-yl]octadec-9-enamide
> <PUBCHEM_IUPAC_NAME>
N-[5-(2,3-dihydro-1H-inden-1-ylamino)-1,3,4-thiadiazol-2-yl]octadec-9-enamide
> <PUBCHEM_IUPAC_SYSTEMATIC_NAME>
N-[5-(2,3-dihydro-1H-inden-1-ylamino)-1,3,4-thiadiazol-2-yl]octadec-9-enamide
> <PUBCHEM_IUPAC_TRADITIONAL_NAME>
N-[5-(indan-1-ylamino)-1,3,4-thiadiazol-2-yl]octadec-9-enamide
> <PUBCHEM_IUPAC_INCHI>
InChI=1S/C29H44N4OS/c1-2-3-4-5-6-7-8-9-10-11-12-13-14-15-16-21-27(34)31-29-33-32-28(35-29)30-26-23-22-24-19-17-18-20-25(24)26/h9-10,17-20,26H,2-8,11-16,21-23H2,1H3,(H,30,32)(H,31,33,34)
> <PUBCHEM_IUPAC_INCHIKEY>
FYCLVZMUQJKIDM-UHFFFAOYSA-N
> <PUBCHEM_XLOGP3_AA>
9.6
> <PUBCHEM_EXACT_MASS>
496.32358321
> <PUBCHEM_MOLECULAR_FORMULA>
C29H44N4OS
> <PUBCHEM_MOLECULAR_WEIGHT>
496.8
> <PUBCHEM_OPENEYE_CAN_SMILES>
CCCCCCCCC=CCCCCCCCC(=O)NC1=NN=C(S1)NC2CCC3=CC=CC=C23
> <PUBCHEM_OPENEYE_ISO_SMILES>
CCCCCCCCC=CCCCCCCCC(=O)NC1=NN=C(S1)NC2CCC3=CC=CC=C23
> <PUBCHEM_CACTVS_TPSA>
95.2
> <PUBCHEM_MONOISOTOPIC_WEIGHT>
496.32358321
> <PUBCHEM_TOTAL_CHARGE>
0
> <PUBCHEM_HEAVY_ATOM_COUNT>
35
> <PUBCHEM_ATOM_DEF_STEREO_COUNT>
0
> <PUBCHEM_ATOM_UDEF_STEREO_COUNT>
1
> <PUBCHEM_BOND_DEF_STEREO_COUNT>
0
> <PUBCHEM_BOND_UDEF_STEREO_COUNT>
1
> <PUBCHEM_ISOTOPIC_ATOM_COUNT>
0
> <PUBCHEM_COMPONENT_COUNT>
1
> <PUBCHEM_CACTVS_TAUTO_COUNT>
-1
> <PUBCHEM_COORDINATE_TYPE>
1
5
255
> <PUBCHEM_BONDANNOTATIONS>
1  16  8
1  33  8
10  11  8
10  12  8
11  13  8
12  14  8
13  15  8
14  15  8
7  3  3
31  32  1
4  16  8
4  6  8
6  33  8
$$$$
