510065
  -OEChem-10302200282D
 54 58  0     1  0  0  0  0  0999 V2000
    9.1266    1.9828    0.0000 Cl  0  0  0  0  0  0  0  0  0  0  0  0
    6.1724    1.0828    0.0000 O   0  0  0  0  0  0  0  0  0  0  0  0
    4.8633    2.0339    0.0000 O   0  0  0  0  0  0  0  0  0  0  0  0
    7.6403    3.3210    0.0000 O   0  0  0  0  0  0  0  0  0  0  0  0
    8.1756    1.6737    0.0000 O   0  0  0  0  0  0  0  0  0  0  0  0
    3.4782    1.4429    0.0000 N   0  0  0  0  0  0  0  0  0  0  0  0
    2.6691    2.8442    0.0000 N   0  0  0  0  0  0  0  0  0  0  0  0
    5.1724    1.0828    0.0000 C   0  0  1  0  0  0  0  0  0  0  0  0
    4.2213    0.7738    0.0000 C   0  0  0  0  0  0  0  0  0  0  0  0
    6.4814    2.0339    0.0000 C   0  0  1  0  0  0  0  0  0  0  0  0
    5.6724    2.6216    0.0000 C   0  0  0  0  0  0  0  0  0  0  0  0
    5.1724    0.0828    0.0000 C   0  0  0  0  0  0  0  0  0  0  0  0
    4.3063   -0.4172    0.0000 C   0  0  0  0  0  0  0  0  0  0  0  0
    6.0384   -0.4172    0.0000 C   0  0  0  0  0  0  0  0  0  0  0  0
    7.4324    2.3429    0.0000 C   0  0  0  0  0  0  0  0  0  0  0  0
    4.3063   -1.4172    0.0000 C   0  0  0  0  0  0  0  0  0  0  0  0
    6.0384   -1.4172    0.0000 C   0  0  0  0  0  0  0  0  0  0  0  0
    5.1724   -1.9172    0.0000 C   0  0  0  0  0  0  0  0  0  0  0  0
    2.5000    1.2350    0.0000 C   0  0  0  0  0  0  0  0  0  0  0  0
    3.5827    2.4374    0.0000 C   0  0  0  0  0  0  0  0  0  0  0  0
    5.1724   -2.9172    0.0000 C   0  0  0  0  0  0  0  0  0  0  0  0
    2.0000    2.1010    0.0000 C   0  0  0  0  0  0  0  0  0  0  0  0
    8.5914    3.6300    0.0000 C   0  0  0  0  0  0  0  0  0  0  0  0
    6.0384   -3.4172    0.0000 C   0  0  0  0  0  0  0  0  0  0  0  0
    4.3063   -3.4172    0.0000 C   0  0  0  0  0  0  0  0  0  0  0  0
    6.0384   -4.4172    0.0000 C   0  0  0  0  0  0  0  0  0  0  0  0
    4.3063   -4.4172    0.0000 C   0  0  0  0  0  0  0  0  0  0  0  0
    9.3345    2.9609    0.0000 C   0  0  0  0  0  0  0  0  0  0  0  0
    8.7993    4.6082    0.0000 C   0  0  0  0  0  0  0  0  0  0  0  0
    5.1724   -4.9172    0.0000 C   0  0  0  0  0  0  0  0  0  0  0  0
   10.2856    3.2699    0.0000 C   0  0  0  0  0  0  0  0  0  0  0  0
    9.7504    4.9172    0.0000 C   0  0  0  0  0  0  0  0  0  0  0  0
   10.4935    4.2481    0.0000 C   0  0  0  0  0  0  0  0  0  0  0  0
    3.7327    0.3921    0.0000 H   0  0  0  0  0  0  0  0  0  0  0  0
    4.5124    0.2264    0.0000 H   0  0  0  0  0  0  0  0  0  0  0  0
    6.9198    1.5954    0.0000 H   0  0  0  0  0  0  0  0  0  0  0  0
    6.0872    3.0824    0.0000 H   0  0  0  0  0  0  0  0  0  0  0  0
    5.2575    3.0824    0.0000 H   0  0  0  0  0  0  0  0  0  0  0  0
    3.7694   -0.1072    0.0000 H   0  0  0  0  0  0  0  0  0  0  0  0
    6.5753   -0.1072    0.0000 H   0  0  0  0  0  0  0  0  0  0  0  0
    3.7694   -1.7272    0.0000 H   0  0  0  0  0  0  0  0  0  0  0  0
    6.5753   -1.7272    0.0000 H   0  0  0  0  0  0  0  0  0  0  0  0
    2.2478    0.6686    0.0000 H   0  0  0  0  0  0  0  0  0  0  0  0
    4.1196    2.7474    0.0000 H   0  0  0  0  0  0  0  0  0  0  0  0
    1.3834    2.1658    0.0000 H   0  0  0  0  0  0  0  0  0  0  0  0
    6.5753   -3.1072    0.0000 H   0  0  0  0  0  0  0  0  0  0  0  0
    3.7694   -3.1072    0.0000 H   0  0  0  0  0  0  0  0  0  0  0  0
    6.5753   -4.7272    0.0000 H   0  0  0  0  0  0  0  0  0  0  0  0
    3.7694   -4.7272    0.0000 H   0  0  0  0  0  0  0  0  0  0  0  0
    8.3386    5.0230    0.0000 H   0  0  0  0  0  0  0  0  0  0  0  0
    5.1724   -5.5372    0.0000 H   0  0  0  0  0  0  0  0  0  0  0  0
   10.7463    2.8551    0.0000 H   0  0  0  0  0  0  0  0  0  0  0  0
    9.8793    5.5236    0.0000 H   0  0  0  0  0  0  0  0  0  0  0  0
   11.0832    4.4397    0.0000 H   0  0  0  0  0  0  0  0  0  0  0  0
  1 28  1  0  0  0  0
  2  8  1  0  0  0  0
  2 10  1  0  0  0  0
  3  8  1  0  0  0  0
  3 11  1  0  0  0  0
  4 15  1  0  0  0  0
  4 23  1  0  0  0  0
  5 15  2  0  0  0  0
  6  9  1  0  0  0  0
  6 19  1  0  0  0  0
  6 20  1  0  0  0  0
  7 20  2  0  0  0  0
  7 22  1  0  0  0  0
  8  9  1  6  0  0  0
  8 12  1  0  0  0  0
  9 34  1  0  0  0  0
  9 35  1  0  0  0  0
 10 11  1  0  0  0  0
 10 15  1  1  0  0  0
 10 36  1  0  0  0  0
 11 37  1  0  0  0  0
 11 38  1  0  0  0  0
 12 13  2  0  0  0  0
 12 14  1  0  0  0  0
 13 16  1  0  0  0  0
 13 39  1  0  0  0  0
 14 17  2  0  0  0  0
 14 40  1  0  0  0  0
 16 18  2  0  0  0  0
 16 41  1  0  0  0  0
 17 18  1  0  0  0  0
 17 42  1  0  0  0  0
 18 21  1  0  0  0  0
 19 22  2  0  0  0  0
 19 43  1  0  0  0  0
 20 44  1  0  0  0  0
 21 24  2  0  0  0  0
 21 25  1  0  0  0  0
 22 45  1  0  0  0  0
 23 28  1  0  0  0  0
 23 29  2  0  0  0  0
 24 26  1  0  0  0  0
 24 46  1  0  0  0  0
 25 27  2  0  0  0  0
 25 47  1  0  0  0  0
 26 30  2  0  0  0  0
 26 48  1  0  0  0  0
 27 30  1  0  0  0  0
 27 49  1  0  0  0  0
 28 31  2  0  0  0  0
 29 32  1  0  0  0  0
 29 50  1  0  0  0  0
 30 51  1  0  0  0  0
 31 33  1  0  0  0  0
 31 52  1  0  0  0  0
 32 33  2  0  0  0  0
 32 53  1  0  0  0  0
 33 54  1  0  0  0  0
M  END
> <PUBCHEM_COMPOUND_CID>
510065
> <PUBCHEM_COMPOUND_CANONICALIZED>
1
> <PUBCHEM_CACTVS_COMPLEXITY>
652
> <PUBCHEM_CACTVS_HBOND_ACCEPTOR>
5
> <PUBCHEM_CACTVS_HBOND_DONOR>
0
> <PUBCHEM_CACTVS_ROTATABLE_BOND>
7
> <PUBCHEM_CACTVS_SUBSKEYS>
AAADceB7OAAEAAAAAAAAAAAAAAAAAWJAAAAwYMAAAAAAAAAB1AAAHgIAAAAADBbhmiY9npcMFACoAjD3bAICiC0xN+AJyAFeO4ifbieFux+3OiCt4BOeqCeQwPAOwAAAAAAACACAAAAAAAAQAAAAAAAAAA==
> <PUBCHEM_IUPAC_OPENEYE_NAME>
(2-chlorophenyl) (2R,4S)-2-(imidazol-1-ylmethyl)-2-(4-phenylphenyl)-1,3-dioxolane-4-carboxylate
> <PUBCHEM_IUPAC_CAS_NAME>
(2R,4S)-2-(1-imidazolylmethyl)-2-(4-phenylphenyl)-1,3-dioxolane-4-carboxylic acid (2-chlorophenyl) ester
> <PUBCHEM_IUPAC_NAME_MARKUP>
(2-chlorophenyl) (2<I>R</I>,4<I>S</I>)-2-(imidazol-1-ylmethyl)-2-(4-phenylphenyl)-1,3-dioxolane-4-carboxylate
> <PUBCHEM_IUPAC_NAME>
(2-chlorophenyl) (2R,4S)-2-(imidazol-1-ylmethyl)-2-(4-phenylphenyl)-1,3-dioxolane-4-carboxylate
> <PUBCHEM_IUPAC_SYSTEMATIC_NAME>
(2-chlorophenyl) (2R,4S)-2-(imidazol-1-ylmethyl)-2-(4-phenylphenyl)-1,3-dioxolane-4-carboxylate
> <PUBCHEM_IUPAC_TRADITIONAL_NAME>
(2R,4S)-2-(imidazol-1-ylmethyl)-2-(4-phenylphenyl)-1,3-dioxolane-4-carboxylic acid (2-chlorophenyl) ester
> <PUBCHEM_IUPAC_INCHI>
InChI=1S/C26H21ClN2O4/c27-22-8-4-5-9-23(22)32-25(30)24-16-31-26(33-24,17-29-15-14-28-18-29)21-12-10-20(11-13-21)19-6-2-1-3-7-19/h1-15,18,24H,16-17H2/t24-,26-/m0/s1
> <PUBCHEM_IUPAC_INCHIKEY>
RFERPGXGMTXBSB-AHWVRZQESA-N
> <PUBCHEM_XLOGP3_AA>
4.6
> <PUBCHEM_EXACT_MASS>
460.1189848
> <PUBCHEM_MOLECULAR_FORMULA>
C26H21ClN2O4
> <PUBCHEM_MOLECULAR_WEIGHT>
460.9
> <PUBCHEM_OPENEYE_CAN_SMILES>
C1C(OC(O1)(CN2C=CN=C2)C3=CC=C(C=C3)C4=CC=CC=C4)C(=O)OC5=CC=CC=C5Cl
> <PUBCHEM_OPENEYE_ISO_SMILES>
C1[C@H](O[C@@](O1)(CN2C=CN=C2)C3=CC=C(C=C3)C4=CC=CC=C4)C(=O)OC5=CC=CC=C5Cl
> <PUBCHEM_CACTVS_TPSA>
62.6
> <PUBCHEM_MONOISOTOPIC_WEIGHT>
460.1189848
> <PUBCHEM_TOTAL_CHARGE>
0
> <PUBCHEM_HEAVY_ATOM_COUNT>
33
> <PUBCHEM_ATOM_DEF_STEREO_COUNT>
2
> <PUBCHEM_ATOM_UDEF_STEREO_COUNT>
0
> <PUBCHEM_BOND_DEF_STEREO_COUNT>
0
> <PUBCHEM_BOND_UDEF_STEREO_COUNT>
0
> <PUBCHEM_ISOTOPIC_ATOM_COUNT>
0
> <PUBCHEM_COMPONENT_COUNT>
1
> <PUBCHEM_CACTVS_TAUTO_COUNT>
-1
> <PUBCHEM_COORDINATE_TYPE>
1
5
255
> <PUBCHEM_BONDANNOTATIONS>
10  15  5
12  13  8
12  14  8
13  16  8
14  17  8
16  18  8
17  18  8
19  22  8
21  24  8
21  25  8
23  28  8
23  29  8
24  26  8
25  27  8
26  30  8
27  30  8
28  31  8
29  32  8
31  33  8
32  33  8
6  19  8
6  20  8
7  20  8
7  22  8
8  9  6
$$$$
