510049
  -OEChem-10302200282D
 51 54  0     1  0  0  0  0  0999 V2000
    6.3301   -2.9806    0.0000 N   0  0  0  0  0  0  0  0  0  0  0  0
    6.8301   -4.5194    0.0000 N   0  0  0  0  0  0  0  0  0  0  0  0
    6.3301   -1.9806    0.0000 C   0  0  3  0  0  0  0  0  0  0  0  0
    7.1962   -1.4806    0.0000 C   0  0  0  0  0  0  0  0  0  0  0  0
    5.4641   -1.4806    0.0000 C   0  0  0  0  0  0  0  0  0  0  0  0
    7.1962   -0.4806    0.0000 C   0  0  0  0  0  0  0  0  0  0  0  0
    4.5981   -1.9806    0.0000 C   0  0  0  0  0  0  0  0  0  0  0  0
    5.5211   -3.5684    0.0000 C   0  0  0  0  0  0  0  0  0  0  0  0
    7.1391   -3.5684    0.0000 C   0  0  0  0  0  0  0  0  0  0  0  0
    8.0622    0.0194    0.0000 C   0  0  0  0  0  0  0  0  0  0  0  0
    6.3301    0.0194    0.0000 C   0  0  0  0  0  0  0  0  0  0  0  0
    4.5981   -2.9806    0.0000 C   0  0  0  0  0  0  0  0  0  0  0  0
    3.7320   -1.4806    0.0000 C   0  0  0  0  0  0  0  0  0  0  0  0
    7.1962    1.5194    0.0000 C   0  0  0  0  0  0  0  0  0  0  0  0
    8.0622    1.0194    0.0000 C   0  0  0  0  0  0  0  0  0  0  0  0
    6.3301    1.0194    0.0000 C   0  0  0  0  0  0  0  0  0  0  0  0
    5.8301   -4.5194    0.0000 C   0  0  0  0  0  0  0  0  0  0  0  0
    3.7320   -3.4806    0.0000 C   0  0  0  0  0  0  0  0  0  0  0  0
    2.8660   -1.9806    0.0000 C   0  0  0  0  0  0  0  0  0  0  0  0
    2.8660   -2.9806    0.0000 C   0  0  0  0  0  0  0  0  0  0  0  0
    7.1962    2.5194    0.0000 C   0  0  0  0  0  0  0  0  0  0  0  0
    2.0000   -3.4806    0.0000 C   0  0  0  0  0  0  0  0  0  0  0  0
    6.3301    3.0194    0.0000 C   0  0  0  0  0  0  0  0  0  0  0  0
    8.0622    3.0194    0.0000 C   0  0  0  0  0  0  0  0  0  0  0  0
    6.3301    4.0194    0.0000 C   0  0  0  0  0  0  0  0  0  0  0  0
    8.0622    4.0194    0.0000 C   0  0  0  0  0  0  0  0  0  0  0  0
    7.1962    4.5194    0.0000 C   0  0  0  0  0  0  0  0  0  0  0  0
    6.8671   -2.2906    0.0000 H   0  0  0  0  0  0  0  0  0  0  0  0
    7.4082   -2.0632    0.0000 H   0  0  0  0  0  0  0  0  0  0  0  0
    7.8067   -1.3729    0.0000 H   0  0  0  0  0  0  0  0  0  0  0  0
    5.8626   -1.0056    0.0000 H   0  0  0  0  0  0  0  0  0  0  0  0
    5.0656   -1.0056    0.0000 H   0  0  0  0  0  0  0  0  0  0  0  0
    4.9315   -3.3768    0.0000 H   0  0  0  0  0  0  0  0  0  0  0  0
    7.7288   -3.3768    0.0000 H   0  0  0  0  0  0  0  0  0  0  0  0
    8.5991   -0.2906    0.0000 H   0  0  0  0  0  0  0  0  0  0  0  0
    5.7932   -0.2906    0.0000 H   0  0  0  0  0  0  0  0  0  0  0  0
    5.1350   -3.2906    0.0000 H   0  0  0  0  0  0  0  0  0  0  0  0
    3.7320   -0.8606    0.0000 H   0  0  0  0  0  0  0  0  0  0  0  0
    8.5991    1.3294    0.0000 H   0  0  0  0  0  0  0  0  0  0  0  0
    5.7932    1.3294    0.0000 H   0  0  0  0  0  0  0  0  0  0  0  0
    5.4657   -5.0210    0.0000 H   0  0  0  0  0  0  0  0  0  0  0  0
    3.7320   -4.1006    0.0000 H   0  0  0  0  0  0  0  0  0  0  0  0
    2.3291   -1.6706    0.0000 H   0  0  0  0  0  0  0  0  0  0  0  0
    1.6900   -2.9436    0.0000 H   0  0  0  0  0  0  0  0  0  0  0  0
    1.4631   -3.7906    0.0000 H   0  0  0  0  0  0  0  0  0  0  0  0
    2.3100   -4.0175    0.0000 H   0  0  0  0  0  0  0  0  0  0  0  0
    5.7932    2.7094    0.0000 H   0  0  0  0  0  0  0  0  0  0  0  0
    8.5991    2.7094    0.0000 H   0  0  0  0  0  0  0  0  0  0  0  0
    5.7932    4.3294    0.0000 H   0  0  0  0  0  0  0  0  0  0  0  0
    8.5991    4.3294    0.0000 H   0  0  0  0  0  0  0  0  0  0  0  0
    7.1962    5.1394    0.0000 H   0  0  0  0  0  0  0  0  0  0  0  0
  1  3  1  0  0  0  0
  1  8  1  0  0  0  0
  1  9  1  0  0  0  0
  2  9  2  0  0  0  0
  2 17  1  0  0  0  0
  3  4  1  0  0  0  0
  3  5  1  0  0  0  0
  3 28  1  0  0  0  0
  4  6  1  0  0  0  0
  4 29  1  0  0  0  0
  4 30  1  0  0  0  0
  5  7  1  0  0  0  0
  5 31  1  0  0  0  0
  5 32  1  0  0  0  0
  6 10  2  0  0  0  0
  6 11  1  0  0  0  0
  7 12  2  0  0  0  0
  7 13  1  0  0  0  0
  8 17  2  0  0  0  0
  8 33  1  0  0  0  0
  9 34  1  0  0  0  0
 10 15  1  0  0  0  0
 10 35  1  0  0  0  0
 11 16  2  0  0  0  0
 11 36  1  0  0  0  0
 12 18  1  0  0  0  0
 12 37  1  0  0  0  0
 13 19  2  0  0  0  0
 13 38  1  0  0  0  0
 14 15  2  0  0  0  0
 14 16  1  0  0  0  0
 14 21  1  0  0  0  0
 15 39  1  0  0  0  0
 16 40  1  0  0  0  0
 17 41  1  0  0  0  0
 18 20  2  0  0  0  0
 18 42  1  0  0  0  0
 19 20  1  0  0  0  0
 19 43  1  0  0  0  0
 20 22  1  0  0  0  0
 21 23  2  0  0  0  0
 21 24  1  0  0  0  0
 22 44  1  0  0  0  0
 22 45  1  0  0  0  0
 22 46  1  0  0  0  0
 23 25  1  0  0  0  0
 23 47  1  0  0  0  0
 24 26  2  0  0  0  0
 24 48  1  0  0  0  0
 25 27  2  0  0  0  0
 25 49  1  0  0  0  0
 26 27  1  0  0  0  0
 26 50  1  0  0  0  0
 27 51  1  0  0  0  0
M  END
> <PUBCHEM_COMPOUND_CID>
510049
> <PUBCHEM_COMPOUND_CANONICALIZED>
1
> <PUBCHEM_CACTVS_COMPLEXITY>
414
> <PUBCHEM_CACTVS_HBOND_ACCEPTOR>
1
> <PUBCHEM_CACTVS_HBOND_DONOR>
0
> <PUBCHEM_CACTVS_ROTATABLE_BOND>
6
> <PUBCHEM_CACTVS_SUBSKEYS>
AAADceB7AAAAAAAAAAAAAAAAAAAAAWAAAAAwYMAAAAAAAAAB1AAAHAAAAAAADCjBGgQ/kJcMEACgAjBnZAACgC0xEqAJyAAYMIiIaCKAmRGUIAAogAKIiCcQgMAOwAAAAAAAAACAAAAAAAAAAAAAAAAAAA==
> <PUBCHEM_IUPAC_OPENEYE_NAME>
1-[1-[(4-phenylphenyl)methyl]-2-(p-tolyl)ethyl]imidazole
> <PUBCHEM_IUPAC_CAS_NAME>
1-[1-(4-methylphenyl)-3-(4-phenylphenyl)propan-2-yl]imidazole
> <PUBCHEM_IUPAC_NAME_MARKUP>
1-[1-(4-methylphenyl)-3-(4-phenylphenyl)propan-2-yl]imidazole
> <PUBCHEM_IUPAC_NAME>
1-[1-(4-methylphenyl)-3-(4-phenylphenyl)propan-2-yl]imidazole
> <PUBCHEM_IUPAC_SYSTEMATIC_NAME>
1-[1-(4-methylphenyl)-3-(4-phenylphenyl)propan-2-yl]imidazole
> <PUBCHEM_IUPAC_TRADITIONAL_NAME>
1-[1-(4-methylbenzyl)-2-(4-phenylphenyl)ethyl]imidazole
> <PUBCHEM_IUPAC_INCHI>
InChI=1S/C25H24N2/c1-20-7-9-21(10-8-20)17-25(27-16-15-26-19-27)18-22-11-13-24(14-12-22)23-5-3-2-4-6-23/h2-16,19,25H,17-18H2,1H3
> <PUBCHEM_IUPAC_INCHIKEY>
NUNGTNMUNRDUFU-UHFFFAOYSA-N
> <PUBCHEM_XLOGP3>
5.7
> <PUBCHEM_EXACT_MASS>
352.193948774
> <PUBCHEM_MOLECULAR_FORMULA>
C25H24N2
> <PUBCHEM_MOLECULAR_WEIGHT>
352.5
> <PUBCHEM_OPENEYE_CAN_SMILES>
CC1=CC=C(C=C1)CC(CC2=CC=C(C=C2)C3=CC=CC=C3)N4C=CN=C4
> <PUBCHEM_OPENEYE_ISO_SMILES>
CC1=CC=C(C=C1)CC(CC2=CC=C(C=C2)C3=CC=CC=C3)N4C=CN=C4
> <PUBCHEM_CACTVS_TPSA>
17.8
> <PUBCHEM_MONOISOTOPIC_WEIGHT>
352.193948774
> <PUBCHEM_TOTAL_CHARGE>
0
> <PUBCHEM_HEAVY_ATOM_COUNT>
27
> <PUBCHEM_ATOM_DEF_STEREO_COUNT>
0
> <PUBCHEM_ATOM_UDEF_STEREO_COUNT>
1
> <PUBCHEM_BOND_DEF_STEREO_COUNT>
0
> <PUBCHEM_BOND_UDEF_STEREO_COUNT>
0
> <PUBCHEM_ISOTOPIC_ATOM_COUNT>
0
> <PUBCHEM_COMPONENT_COUNT>
1
> <PUBCHEM_CACTVS_TAUTO_COUNT>
-1
> <PUBCHEM_COORDINATE_TYPE>
1
5
255
> <PUBCHEM_BONDANNOTATIONS>
1  8  8
1  9  8
10  15  8
11  16  8
12  18  8
13  19  8
14  15  8
14  16  8
18  20  8
19  20  8
2  17  8
2  9  8
21  23  8
21  24  8
23  25  8
24  26  8
25  27  8
26  27  8
3  5  3
6  10  8
6  11  8
7  12  8
7  13  8
8  17  8
$$$$
