510085
  -OEChem-10302200282D
142146  0     1  0  0  0  0  0999 V2000
   18.4545   -4.4699    0.0000 O   0  0  0  0  0  0  0  0  0  0  0  0
   16.7224   -4.4699    0.0000 O   0  0  0  0  0  0  0  0  0  0  0  0
   18.4545   -6.4699    0.0000 O   0  0  0  0  0  0  0  0  0  0  0  0
   16.7224   -7.4699    0.0000 O   0  0  0  0  0  0  0  0  0  0  0  0
   14.9904   -6.4699    0.0000 O   0  0  0  0  0  0  0  0  0  0  0  0
   14.1244   -4.9699    0.0000 O   0  0  0  0  0  0  0  0  0  0  0  0
   13.2583   -3.4699    0.0000 O   0  0  0  0  0  0  0  0  0  0  0  0
   18.4837    1.7270    0.0000 C   0  0  1  0  0  0  0  0  0  0  0  0
   19.3517    1.2303    0.0000 C   0  0  3  0  0  0  0  0  0  0  0  0
   19.3555    0.2303    0.0000 C   0  0  3  0  0  0  0  0  0  0  0  0
   18.4915   -0.2730    0.0000 C   0  0  3  0  0  0  0  0  0  0  0  0
   18.6892    2.6996    0.0000 C   0  0  2  0  0  0  0  0  0  0  0  0
   17.6197    1.2236    0.0000 C   0  0  0  0  0  0  0  0  0  0  0  0
   18.4794   -1.3146    0.0000 C   0  0  2  0  0  0  0  0  0  0  0  0
   20.0861    1.9002    0.0000 C   0  0  0  0  0  0  0  0  0  0  0  0
   17.6235    0.2237    0.0000 C   0  0  0  0  0  0  0  0  0  0  0  0
   19.6775    2.8065    0.0000 C   0  0  0  0  0  0  0  0  0  0  0  0
   20.2675   -0.2730    0.0000 C   0  0  0  0  0  0  0  0  0  0  0  0
   18.0185    3.4413    0.0000 C   0  0  1  0  0  0  0  0  0  0  0  0
   17.6158    2.2236    0.0000 C   0  0  0  0  0  0  0  0  0  0  0  0
   19.3795   -1.8389    0.0000 C   0  0  0  0  0  0  0  0  0  0  0  0
   17.5295   -1.8389    0.0000 C   0  0  0  0  0  0  0  0  0  0  0  0
   20.2795   -1.3146    0.0000 C   0  0  0  0  0  0  0  0  0  0  0  0
   17.6153   -0.8112    0.0000 C   0  0  0  0  0  0  0  0  0  0  0  0
   19.3920   -2.9238    0.0000 C   0  0  0  0  0  0  0  0  0  0  0  0
   17.5169   -2.9238    0.0000 C   0  0  0  0  0  0  0  0  0  0  0  0
   18.3255    4.3930    0.0000 C   0  0  0  0  0  0  0  0  0  0  0  0
   18.4545   -3.4699    0.0000 C   0  0  2  0  0  0  0  0  0  0  0  0
   17.0408    3.2313    0.0000 C   0  0  0  0  0  0  0  0  0  0  0  0
   17.6548    5.1348    0.0000 C   0  0  0  0  0  0  0  0  0  0  0  0
   17.9618    6.0865    0.0000 C   0  0  1  0  0  0  0  0  0  0  0  0
   17.5885   -4.9699    0.0000 C   0  0  3  0  0  0  0  0  0  0  0  0
   17.2911    6.8282    0.0000 C   0  0  0  0  0  0  0  0  0  0  0  0
   18.9395    6.2964    0.0000 C   0  0  0  0  0  0  0  0  0  0  0  0
   17.5885   -5.9699    0.0000 C   0  0  3  0  0  0  0  0  0  0  0  0
   17.5981    7.7799    0.0000 C   0  0  0  0  0  0  0  0  0  0  0  0
   16.3134    6.6182    0.0000 C   0  0  0  0  0  0  0  0  0  0  0  0
   19.2465    7.2482    0.0000 C   0  0  0  0  0  0  0  0  0  0  0  0
   16.7224   -6.4699    0.0000 C   0  0  3  0  0  0  0  0  0  0  0  0
   15.8564   -4.9699    0.0000 C   0  0  3  0  0  0  0  0  0  0  0  0
   15.8564   -5.9699    0.0000 C   0  0  3  0  0  0  0  0  0  0  0  0
   14.9904   -4.4699    0.0000 C   0  0  0  0  0  0  0  0  0  0  0  0
   13.2583   -4.4699    0.0000 C   0  0  0  0  0  0  0  0  0  0  0  0
   12.3923   -4.9699    0.0000 C   0  0  0  0  0  0  0  0  0  0  0  0
   11.5263   -4.4699    0.0000 C   0  0  0  0  0  0  0  0  0  0  0  0
   10.6603   -4.9699    0.0000 C   0  0  0  0  0  0  0  0  0  0  0  0
    9.7942   -4.4699    0.0000 C   0  0  0  0  0  0  0  0  0  0  0  0
    8.9282   -4.9699    0.0000 C   0  0  0  0  0  0  0  0  0  0  0  0
    8.0622   -4.4699    0.0000 C   0  0  0  0  0  0  0  0  0  0  0  0
    7.1962   -4.9699    0.0000 C   0  0  0  0  0  0  0  0  0  0  0  0
    6.3301   -4.4699    0.0000 C   0  0  0  0  0  0  0  0  0  0  0  0
    5.4641   -4.9699    0.0000 C   0  0  0  0  0  0  0  0  0  0  0  0
    4.5981   -4.4699    0.0000 C   0  0  0  0  0  0  0  0  0  0  0  0
    3.7320   -4.9699    0.0000 C   0  0  0  0  0  0  0  0  0  0  0  0
    2.8660   -4.4699    0.0000 C   0  0  0  0  0  0  0  0  0  0  0  0
    2.0000   -4.9699    0.0000 C   0  0  0  0  0  0  0  0  0  0  0  0
   19.9194    0.9811    0.0000 H   0  0  0  0  0  0  0  0  0  0  0  0
   19.8889    0.5465    0.0000 H   0  0  0  0  0  0  0  0  0  0  0  0
   19.0272   -0.5851    0.0000 H   0  0  0  0  0  0  0  0  0  0  0  0
   18.9918    3.4939    0.0000 H   0  0  0  0  0  0  0  0  0  0  0  0
   17.4054    1.8054    0.0000 H   0  0  0  0  0  0  0  0  0  0  0  0
   17.0095    1.1136    0.0000 H   0  0  0  0  0  0  0  0  0  0  0  0
   20.4535    1.4008    0.0000 H   0  0  0  0  0  0  0  0  0  0  0  0
   20.6214    2.2131    0.0000 H   0  0  0  0  0  0  0  0  0  0  0  0
   17.0125    0.3290    0.0000 H   0  0  0  0  0  0  0  0  0  0  0  0
   17.4137   -0.3598    0.0000 H   0  0  0  0  0  0  0  0  0  0  0  0
   20.2664    3.0005    0.0000 H   0  0  0  0  0  0  0  0  0  0  0  0
   19.5464    3.4124    0.0000 H   0  0  0  0  0  0  0  0  0  0  0  0
   20.8795   -0.3720    0.0000 H   0  0  0  0  0  0  0  0  0  0  0  0
   20.4698    0.3131    0.0000 H   0  0  0  0  0  0  0  0  0  0  0  0
   17.8282    2.8513    0.0000 H   0  0  0  0  0  0  0  0  0  0  0  0
   17.9237    2.7618    0.0000 H   0  0  0  0  0  0  0  0  0  0  0  0
   17.0777    2.5316    0.0000 H   0  0  0  0  0  0  0  0  0  0  0  0
   17.3079    1.6855    0.0000 H   0  0  0  0  0  0  0  0  0  0  0  0
   17.3272   -1.2528    0.0000 H   0  0  0  0  0  0  0  0  0  0  0  0
   16.9175   -1.9379    0.0000 H   0  0  0  0  0  0  0  0  0  0  0  0
   20.8188   -1.6204    0.0000 H   0  0  0  0  0  0  0  0  0  0  0  0
   17.9274   -0.2755    0.0000 H   0  0  0  0  0  0  0  0  0  0  0  0
   17.0796   -0.4992    0.0000 H   0  0  0  0  0  0  0  0  0  0  0  0
   17.3032   -1.3470    0.0000 H   0  0  0  0  0  0  0  0  0  0  0  0
   19.6078   -3.5050    0.0000 H   0  0  0  0  0  0  0  0  0  0  0  0
   20.0016   -2.8106    0.0000 H   0  0  0  0  0  0  0  0  0  0  0  0
   16.9074   -2.8106    0.0000 H   0  0  0  0  0  0  0  0  0  0  0  0
   17.3012   -3.5050    0.0000 H   0  0  0  0  0  0  0  0  0  0  0  0
   18.8735    4.1031    0.0000 H   0  0  0  0  0  0  0  0  0  0  0  0
   18.7062    4.8824    0.0000 H   0  0  0  0  0  0  0  0  0  0  0  0
   18.9920   -3.7789    0.0000 H   0  0  0  0  0  0  0  0  0  0  0  0
   16.9106    3.8375    0.0000 H   0  0  0  0  0  0  0  0  0  0  0  0
   16.4346    3.1011    0.0000 H   0  0  0  0  0  0  0  0  0  0  0  0
   17.1710    2.6252    0.0000 H   0  0  0  0  0  0  0  0  0  0  0  0
   17.1067    5.4247    0.0000 H   0  0  0  0  0  0  0  0  0  0  0  0
   17.2741    4.6454    0.0000 H   0  0  0  0  0  0  0  0  0  0  0  0
   18.3776    5.6266    0.0000 H   0  0  0  0  0  0  0  0  0  0  0  0
   17.5885   -4.3499    0.0000 H   0  0  0  0  0  0  0  0  0  0  0  0
   17.8972    6.9584    0.0000 H   0  0  0  0  0  0  0  0  0  0  0  0
   18.9624    5.6769    0.0000 H   0  0  0  0  0  0  0  0  0  0  0  0
   19.5536    6.2115    0.0000 H   0  0  0  0  0  0  0  0  0  0  0  0
   17.5885   -6.5899    0.0000 H   0  0  0  0  0  0  0  0  0  0  0  0
   18.1881    7.5896    0.0000 H   0  0  0  0  0  0  0  0  0  0  0  0
   17.7884    8.3700    0.0000 H   0  0  0  0  0  0  0  0  0  0  0  0
   17.0080    7.9702    0.0000 H   0  0  0  0  0  0  0  0  0  0  0  0
   16.1832    7.2244    0.0000 H   0  0  0  0  0  0  0  0  0  0  0  0
   15.7072    6.4880    0.0000 H   0  0  0  0  0  0  0  0  0  0  0  0
   16.4436    6.0120    0.0000 H   0  0  0  0  0  0  0  0  0  0  0  0
   16.1855   -6.7799    0.0000 H   0  0  0  0  0  0  0  0  0  0  0  0
   19.8365    7.0578    0.0000 H   0  0  0  0  0  0  0  0  0  0  0  0
   19.4368    7.8382    0.0000 H   0  0  0  0  0  0  0  0  0  0  0  0
   18.6564    7.4385    0.0000 H   0  0  0  0  0  0  0  0  0  0  0  0
   15.8564   -4.3499    0.0000 H   0  0  0  0  0  0  0  0  0  0  0  0
   15.3195   -5.6599    0.0000 H   0  0  0  0  0  0  0  0  0  0  0  0
   18.4545   -7.0899    0.0000 H   0  0  0  0  0  0  0  0  0  0  0  0
   15.3889   -3.9950    0.0000 H   0  0  0  0  0  0  0  0  0  0  0  0
   14.5919   -3.9950    0.0000 H   0  0  0  0  0  0  0  0  0  0  0  0
   16.1855   -7.7799    0.0000 H   0  0  0  0  0  0  0  0  0  0  0  0
   14.9904   -7.0899    0.0000 H   0  0  0  0  0  0  0  0  0  0  0  0
   11.9938   -5.4448    0.0000 H   0  0  0  0  0  0  0  0  0  0  0  0
   12.7908   -5.4448    0.0000 H   0  0  0  0  0  0  0  0  0  0  0  0
   11.9248   -3.9950    0.0000 H   0  0  0  0  0  0  0  0  0  0  0  0
   11.1278   -3.9950    0.0000 H   0  0  0  0  0  0  0  0  0  0  0  0
   10.2617   -5.4448    0.0000 H   0  0  0  0  0  0  0  0  0  0  0  0
   11.0588   -5.4448    0.0000 H   0  0  0  0  0  0  0  0  0  0  0  0
   10.1928   -3.9950    0.0000 H   0  0  0  0  0  0  0  0  0  0  0  0
    9.3957   -3.9950    0.0000 H   0  0  0  0  0  0  0  0  0  0  0  0
    8.5297   -5.4448    0.0000 H   0  0  0  0  0  0  0  0  0  0  0  0
    9.3267   -5.4448    0.0000 H   0  0  0  0  0  0  0  0  0  0  0  0
    8.4607   -3.9950    0.0000 H   0  0  0  0  0  0  0  0  0  0  0  0
    7.6636   -3.9950    0.0000 H   0  0  0  0  0  0  0  0  0  0  0  0
    6.7976   -5.4448    0.0000 H   0  0  0  0  0  0  0  0  0  0  0  0
    7.5947   -5.4448    0.0000 H   0  0  0  0  0  0  0  0  0  0  0  0
    6.7287   -3.9950    0.0000 H   0  0  0  0  0  0  0  0  0  0  0  0
    5.9316   -3.9950    0.0000 H   0  0  0  0  0  0  0  0  0  0  0  0
    5.0656   -5.4448    0.0000 H   0  0  0  0  0  0  0  0  0  0  0  0
    5.8626   -5.4448    0.0000 H   0  0  0  0  0  0  0  0  0  0  0  0
    4.9966   -3.9950    0.0000 H   0  0  0  0  0  0  0  0  0  0  0  0
    4.1996   -3.9950    0.0000 H   0  0  0  0  0  0  0  0  0  0  0  0
    3.3335   -5.4448    0.0000 H   0  0  0  0  0  0  0  0  0  0  0  0
    4.1306   -5.4448    0.0000 H   0  0  0  0  0  0  0  0  0  0  0  0
    3.2646   -3.9950    0.0000 H   0  0  0  0  0  0  0  0  0  0  0  0
    2.4675   -3.9950    0.0000 H   0  0  0  0  0  0  0  0  0  0  0  0
    1.6900   -4.4330    0.0000 H   0  0  0  0  0  0  0  0  0  0  0  0
    1.4631   -5.2799    0.0000 H   0  0  0  0  0  0  0  0  0  0  0  0
    2.3100   -5.5068    0.0000 H   0  0  0  0  0  0  0  0  0  0  0  0
 28  1  1  1  0  0  0
  1 32  1  0  0  0  0
  2 32  1  0  0  0  0
  2 40  1  0  0  0  0
  3 35  1  0  0  0  0
  3111  1  0  0  0  0
  4 39  1  0  0  0  0
  4114  1  0  0  0  0
  5 41  1  0  0  0  0
  5115  1  0  0  0  0
  6 42  1  0  0  0  0
  6 43  1  0  0  0  0
  7 43  2  0  0  0  0
  8  9  1  0  0  0  0
  8 12  1  0  0  0  0
  8 13  1  0  0  0  0
  8 20  1  1  0  0  0
  9 10  1  0  0  0  0
  9 15  1  0  0  0  0
  9 57  1  0  0  0  0
 10 11  1  0  0  0  0
 10 18  1  0  0  0  0
 10 58  1  0  0  0  0
 11 14  1  0  0  0  0
 11 16  1  0  0  0  0
 11 59  1  0  0  0  0
 12 17  1  0  0  0  0
 12 19  1  0  0  0  0
 12 60  1  6  0  0  0
 13 16  1  0  0  0  0
 13 61  1  0  0  0  0
 13 62  1  0  0  0  0
 14 21  1  0  0  0  0
 14 22  1  0  0  0  0
 14 24  1  1  0  0  0
 15 17  1  0  0  0  0
 15 63  1  0  0  0  0
 15 64  1  0  0  0  0
 16 65  1  0  0  0  0
 16 66  1  0  0  0  0
 17 67  1  0  0  0  0
 17 68  1  0  0  0  0
 18 23  1  0  0  0  0
 18 69  1  0  0  0  0
 18 70  1  0  0  0  0
 19 27  1  0  0  0  0
 19 29  1  6  0  0  0
 19 71  1  0  0  0  0
 20 72  1  0  0  0  0
 20 73  1  0  0  0  0
 20 74  1  0  0  0  0
 21 23  2  0  0  0  0
 21 25  1  0  0  0  0
 22 26  1  0  0  0  0
 22 75  1  0  0  0  0
 22 76  1  0  0  0  0
 23 77  1  0  0  0  0
 24 78  1  0  0  0  0
 24 79  1  0  0  0  0
 24 80  1  0  0  0  0
 25 28  1  0  0  0  0
 25 81  1  0  0  0  0
 25 82  1  0  0  0  0
 26 28  1  0  0  0  0
 26 83  1  0  0  0  0
 26 84  1  0  0  0  0
 27 30  1  0  0  0  0
 27 85  1  0  0  0  0
 27 86  1  0  0  0  0
 28 87  1  0  0  0  0
 29 88  1  0  0  0  0
 29 89  1  0  0  0  0
 29 90  1  0  0  0  0
 31 30  1  1  0  0  0
 30 91  1  0  0  0  0
 30 92  1  0  0  0  0
 31 33  1  0  0  0  0
 31 34  1  0  0  0  0
 31 93  1  0  0  0  0
 32 35  1  0  0  0  0
 32 94  1  0  0  0  0
 33 36  1  0  0  0  0
 33 37  1  0  0  0  0
 33 95  1  0  0  0  0
 34 38  1  0  0  0  0
 34 96  1  0  0  0  0
 34 97  1  0  0  0  0
 35 39  1  0  0  0  0
 35 98  1  0  0  0  0
 36 99  1  0  0  0  0
 36100  1  0  0  0  0
 36101  1  0  0  0  0
 37102  1  0  0  0  0
 37103  1  0  0  0  0
 37104  1  0  0  0  0
 38106  1  0  0  0  0
 38107  1  0  0  0  0
 38108  1  0  0  0  0
 39 41  1  0  0  0  0
 39105  1  0  0  0  0
 40 41  1  0  0  0  0
 40 42  1  0  0  0  0
 40109  1  0  0  0  0
 41110  1  0  0  0  0
 42112  1  0  0  0  0
 42113  1  0  0  0  0
 43 44  1  0  0  0  0
 44 45  1  0  0  0  0
 44116  1  0  0  0  0
 44117  1  0  0  0  0
 45 46  1  0  0  0  0
 45118  1  0  0  0  0
 45119  1  0  0  0  0
 46 47  1  0  0  0  0
 46120  1  0  0  0  0
 46121  1  0  0  0  0
 47 48  1  0  0  0  0
 47122  1  0  0  0  0
 47123  1  0  0  0  0
 48 49  1  0  0  0  0
 48124  1  0  0  0  0
 48125  1  0  0  0  0
 49 50  1  0  0  0  0
 49126  1  0  0  0  0
 49127  1  0  0  0  0
 50 51  1  0  0  0  0
 50128  1  0  0  0  0
 50129  1  0  0  0  0
 51 52  1  0  0  0  0
 51130  1  0  0  0  0
 51131  1  0  0  0  0
 52 53  1  0  0  0  0
 52132  1  0  0  0  0
 52133  1  0  0  0  0
 53 54  1  0  0  0  0
 53134  1  0  0  0  0
 53135  1  0  0  0  0
 54 55  1  0  0  0  0
 54136  1  0  0  0  0
 54137  1  0  0  0  0
 55 56  1  0  0  0  0
 55138  1  0  0  0  0
 55139  1  0  0  0  0
 56140  1  0  0  0  0
 56141  1  0  0  0  0
 56142  1  0  0  0  0
M  END
> <PUBCHEM_COMPOUND_CID>
510085
> <PUBCHEM_COMPOUND_CANONICALIZED>
1
> <PUBCHEM_CACTVS_COMPLEXITY>
1220
> <PUBCHEM_CACTVS_HBOND_ACCEPTOR>
7
> <PUBCHEM_CACTVS_HBOND_DONOR>
3
> <PUBCHEM_CACTVS_ROTATABLE_BOND>
23
> <PUBCHEM_CACTVS_SUBSKEYS>
AAADcfB8OAAAAAAAAAAAAAAAAAAAAYAAAAA0YIEAAAAAAGCAAAAAGgAACAAADxSwgAMCCAAABgCIAiDSCAAAAAAgAAAACAEAAAgREBIAAQAiQAAFwAAPAAPI6PyPgAAAAAAAAADAAAQAACAAAQAACAAAAA==
> <PUBCHEM_IUPAC_OPENEYE_NAME>
[6-[[(3S,10R,13R,17R)-17-[(1R,4S)-4-ethyl-1,5-dimethyl-hexyl]-10,13-dimethyl-2,3,4,7,8,9,11,12,14,15,16,17-dodecahydro-1H-cyclopenta[a]phenanthren-3-yl]oxy]-3,4,5-trihydroxy-tetrahydropyran-2-yl]methyl tetradecanoate
> <PUBCHEM_IUPAC_CAS_NAME>
tetradecanoic acid [6-[[(3S,10R,13R,17R)-17-[(2R,5S)-5-ethyl-6-methylheptan-2-yl]-10,13-dimethyl-2,3,4,7,8,9,11,12,14,15,16,17-dodecahydro-1H-cyclopenta[a]phenanthren-3-yl]oxy]-3,4,5-trihydroxy-2-oxanyl]methyl ester
> <PUBCHEM_IUPAC_NAME_MARKUP>
[6-[[(3<I>S</I>,10<I>R</I>,13<I>R</I>,17<I>R</I>)-17-[(2<I>R</I>,5<I>S</I>)-5-ethyl-6-methylheptan-2-yl]-10,13-dimethyl-2,3,4,7,8,9,11,12,14,15,16,17-dodecahydro-1<I>H</I>-cyclopenta[a]phenanthren-3-yl]oxy]-3,4,5-trihydroxyoxan-2-yl]methyl tetradecanoate
> <PUBCHEM_IUPAC_NAME>
[6-[[(3S,10R,13R,17R)-17-[(2R,5S)-5-ethyl-6-methylheptan-2-yl]-10,13-dimethyl-2,3,4,7,8,9,11,12,14,15,16,17-dodecahydro-1H-cyclopenta[a]phenanthren-3-yl]oxy]-3,4,5-trihydroxyoxan-2-yl]methyl tetradecanoate
> <PUBCHEM_IUPAC_SYSTEMATIC_NAME>
[6-[[(3S,10R,13R,17R)-17-[(2R,5S)-5-ethyl-6-methyl-heptan-2-yl]-10,13-dimethyl-2,3,4,7,8,9,11,12,14,15,16,17-dodecahydro-1H-cyclopenta[a]phenanthren-3-yl]oxy]-3,4,5-tris(oxidanyl)oxan-2-yl]methyl tetradecanoate
> <PUBCHEM_IUPAC_TRADITIONAL_NAME>
myristic acid [6-[[(3S,10R,13R,17R)-17-[(1R,4S)-4-ethyl-1,5-dimethyl-hexyl]-10,13-dimethyl-2,3,4,7,8,9,11,12,14,15,16,17-dodecahydro-1H-cyclopenta[a]phenanthren-3-yl]oxy]-3,4,5-trihydroxy-tetrahydropyran-2-yl]methyl ester
> <PUBCHEM_IUPAC_INCHI>
InChI=1S/C49H86O7/c1-8-10-11-12-13-14-15-16-17-18-19-20-43(50)54-32-42-44(51)45(52)46(53)47(56-42)55-37-27-29-48(6)36(31-37)23-24-38-40-26-25-39(49(40,7)30-28-41(38)48)34(5)21-22-35(9-2)33(3)4/h23,33-35,37-42,44-47,51-53H,8-22,24-32H2,1-7H3/t34-,35+,37+,38?,39-,40?,41?,42?,44?,45?,46?,47?,48+,49-/m1/s1
> <PUBCHEM_IUPAC_INCHIKEY>
CSXINXSKAXRKKW-PASVIEQNSA-N
> <PUBCHEM_XLOGP3_AA>
14
> <PUBCHEM_EXACT_MASS>
786.63735508
> <PUBCHEM_MOLECULAR_FORMULA>
C49H86O7
> <PUBCHEM_MOLECULAR_WEIGHT>
787.2
> <PUBCHEM_OPENEYE_CAN_SMILES>
CCCCCCCCCCCCCC(=O)OCC1C(C(C(C(O1)OC2CCC3(C4CCC5(C(C4CC=C3C2)CCC5C(C)CCC(CC)C(C)C)C)C)O)O)O
> <PUBCHEM_OPENEYE_ISO_SMILES>
CCCCCCCCCCCCCC(=O)OCC1C(C(C(C(O1)O[C@H]2CC[C@@]3(C4CC[C@@]5([C@H](CCC5C4CC=C3C2)[C@H](C)CC[C@H](CC)C(C)C)C)C)O)O)O
> <PUBCHEM_CACTVS_TPSA>
105
> <PUBCHEM_MONOISOTOPIC_WEIGHT>
786.63735508
> <PUBCHEM_TOTAL_CHARGE>
0
> <PUBCHEM_HEAVY_ATOM_COUNT>
56
> <PUBCHEM_ATOM_DEF_STEREO_COUNT>
6
> <PUBCHEM_ATOM_UDEF_STEREO_COUNT>
8
> <PUBCHEM_BOND_DEF_STEREO_COUNT>
0
> <PUBCHEM_BOND_UDEF_STEREO_COUNT>
0
> <PUBCHEM_ISOTOPIC_ATOM_COUNT>
0
> <PUBCHEM_COMPONENT_COUNT>
1
> <PUBCHEM_CACTVS_TAUTO_COUNT>
-1
> <PUBCHEM_COORDINATE_TYPE>
1
5
255
> <PUBCHEM_BONDANNOTATIONS>
28  1  5
32  1  3
10  18  3
11  16  3
12  60  6
14  24  5
19  29  6
35  3  3
31  30  5
39  4  3
40  42  3
41  5  3
8  20  5
9  15  3
$$$$
