510073
  -OEChem-10302200282D
 54 58  0     1  0  0  0  0  0999 V2000
   11.0287    2.1117    0.0000 Cl  0  0  0  0  0  0  0  0  0  0  0  0
    9.9583    5.4063    0.0000 Cl  0  0  0  0  0  0  0  0  0  0  0  0
    6.1724    0.5937    0.0000 O   0  0  0  0  0  0  0  0  0  0  0  0
    4.8633    1.5448    0.0000 O   0  0  0  0  0  0  0  0  0  0  0  0
    7.6403    2.8320    0.0000 O   0  0  0  0  0  0  0  0  0  0  0  0
    8.1756    1.1847    0.0000 O   0  0  0  0  0  0  0  0  0  0  0  0
    3.4782    0.9538    0.0000 N   0  0  0  0  0  0  0  0  0  0  0  0
    2.6691    2.3551    0.0000 N   0  0  0  0  0  0  0  0  0  0  0  0
    5.1724    0.5937    0.0000 C   0  0  1  0  0  0  0  0  0  0  0  0
    4.2213    0.2847    0.0000 C   0  0  0  0  0  0  0  0  0  0  0  0
    6.4814    1.5448    0.0000 C   0  0  1  0  0  0  0  0  0  0  0  0
    5.6724    2.1326    0.0000 C   0  0  0  0  0  0  0  0  0  0  0  0
    5.1724   -0.4063    0.0000 C   0  0  0  0  0  0  0  0  0  0  0  0
    4.3063   -0.9063    0.0000 C   0  0  0  0  0  0  0  0  0  0  0  0
    6.0384   -0.9063    0.0000 C   0  0  0  0  0  0  0  0  0  0  0  0
    7.4324    1.8538    0.0000 C   0  0  0  0  0  0  0  0  0  0  0  0
    4.3063   -1.9063    0.0000 C   0  0  0  0  0  0  0  0  0  0  0  0
    6.0384   -1.9063    0.0000 C   0  0  0  0  0  0  0  0  0  0  0  0
    5.1724   -2.4063    0.0000 C   0  0  0  0  0  0  0  0  0  0  0  0
    2.5000    0.7459    0.0000 C   0  0  0  0  0  0  0  0  0  0  0  0
    3.5827    1.9484    0.0000 C   0  0  0  0  0  0  0  0  0  0  0  0
    5.1724   -3.4063    0.0000 C   0  0  0  0  0  0  0  0  0  0  0  0
    2.0000    1.6120    0.0000 C   0  0  0  0  0  0  0  0  0  0  0  0
    8.5914    3.1410    0.0000 C   0  0  0  0  0  0  0  0  0  0  0  0
    6.0384   -3.9063    0.0000 C   0  0  0  0  0  0  0  0  0  0  0  0
    4.3063   -3.9063    0.0000 C   0  0  0  0  0  0  0  0  0  0  0  0
    6.0384   -4.9063    0.0000 C   0  0  0  0  0  0  0  0  0  0  0  0
    4.3063   -4.9063    0.0000 C   0  0  0  0  0  0  0  0  0  0  0  0
    8.7993    4.1191    0.0000 C   0  0  0  0  0  0  0  0  0  0  0  0
    9.3345    2.4718    0.0000 C   0  0  0  0  0  0  0  0  0  0  0  0
    5.1724   -5.4063    0.0000 C   0  0  0  0  0  0  0  0  0  0  0  0
   10.2856    2.7808    0.0000 C   0  0  0  0  0  0  0  0  0  0  0  0
    9.7504    4.4281    0.0000 C   0  0  0  0  0  0  0  0  0  0  0  0
   10.4935    3.7590    0.0000 C   0  0  0  0  0  0  0  0  0  0  0  0
    3.7327   -0.0970    0.0000 H   0  0  0  0  0  0  0  0  0  0  0  0
    4.5124   -0.2627    0.0000 H   0  0  0  0  0  0  0  0  0  0  0  0
    6.9198    1.1064    0.0000 H   0  0  0  0  0  0  0  0  0  0  0  0
    6.0872    2.5933    0.0000 H   0  0  0  0  0  0  0  0  0  0  0  0
    5.2575    2.5933    0.0000 H   0  0  0  0  0  0  0  0  0  0  0  0
    3.7694   -0.5963    0.0000 H   0  0  0  0  0  0  0  0  0  0  0  0
    6.5753   -0.5963    0.0000 H   0  0  0  0  0  0  0  0  0  0  0  0
    3.7694   -2.2163    0.0000 H   0  0  0  0  0  0  0  0  0  0  0  0
    6.5753   -2.2163    0.0000 H   0  0  0  0  0  0  0  0  0  0  0  0
    2.2478    0.1795    0.0000 H   0  0  0  0  0  0  0  0  0  0  0  0
    4.1196    2.2584    0.0000 H   0  0  0  0  0  0  0  0  0  0  0  0
    1.3834    1.6768    0.0000 H   0  0  0  0  0  0  0  0  0  0  0  0
    6.5753   -3.5963    0.0000 H   0  0  0  0  0  0  0  0  0  0  0  0
    3.7694   -3.5963    0.0000 H   0  0  0  0  0  0  0  0  0  0  0  0
    6.5753   -5.2163    0.0000 H   0  0  0  0  0  0  0  0  0  0  0  0
    3.7694   -5.2163    0.0000 H   0  0  0  0  0  0  0  0  0  0  0  0
    8.3386    4.5340    0.0000 H   0  0  0  0  0  0  0  0  0  0  0  0
    9.2056    1.8654    0.0000 H   0  0  0  0  0  0  0  0  0  0  0  0
    5.1724   -6.0263    0.0000 H   0  0  0  0  0  0  0  0  0  0  0  0
   11.0832    3.9506    0.0000 H   0  0  0  0  0  0  0  0  0  0  0  0
  1 32  1  0  0  0  0
  2 33  1  0  0  0  0
  3  9  1  0  0  0  0
  3 11  1  0  0  0  0
  4  9  1  0  0  0  0
  4 12  1  0  0  0  0
  5 16  1  0  0  0  0
  5 24  1  0  0  0  0
  6 16  2  0  0  0  0
  7 10  1  0  0  0  0
  7 20  1  0  0  0  0
  7 21  1  0  0  0  0
  8 21  2  0  0  0  0
  8 23  1  0  0  0  0
  9 10  1  6  0  0  0
  9 13  1  0  0  0  0
 10 35  1  0  0  0  0
 10 36  1  0  0  0  0
 11 12  1  0  0  0  0
 11 16  1  1  0  0  0
 11 37  1  0  0  0  0
 12 38  1  0  0  0  0
 12 39  1  0  0  0  0
 13 14  2  0  0  0  0
 13 15  1  0  0  0  0
 14 17  1  0  0  0  0
 14 40  1  0  0  0  0
 15 18  2  0  0  0  0
 15 41  1  0  0  0  0
 17 19  2  0  0  0  0
 17 42  1  0  0  0  0
 18 19  1  0  0  0  0
 18 43  1  0  0  0  0
 19 22  1  0  0  0  0
 20 23  2  0  0  0  0
 20 44  1  0  0  0  0
 21 45  1  0  0  0  0
 22 25  2  0  0  0  0
 22 26  1  0  0  0  0
 23 46  1  0  0  0  0
 24 29  2  0  0  0  0
 24 30  1  0  0  0  0
 25 27  1  0  0  0  0
 25 47  1  0  0  0  0
 26 28  2  0  0  0  0
 26 48  1  0  0  0  0
 27 31  2  0  0  0  0
 27 49  1  0  0  0  0
 28 31  1  0  0  0  0
 28 50  1  0  0  0  0
 29 33  1  0  0  0  0
 29 51  1  0  0  0  0
 30 32  2  0  0  0  0
 30 52  1  0  0  0  0
 31 53  1  0  0  0  0
 32 34  1  0  0  0  0
 33 34  2  0  0  0  0
 34 54  1  0  0  0  0
M  END
> <PUBCHEM_COMPOUND_CID>
510073
> <PUBCHEM_COMPOUND_CANONICALIZED>
1
> <PUBCHEM_CACTVS_COMPLEXITY>
676
> <PUBCHEM_CACTVS_HBOND_ACCEPTOR>
5
> <PUBCHEM_CACTVS_HBOND_DONOR>
0
> <PUBCHEM_CACTVS_ROTATABLE_BOND>
7
> <PUBCHEM_CACTVS_SUBSKEYS>
AAADceB7OAAGAAAAAAAAAAAAAAAAAWJAAAAwYMAAAAAAAAAB1AAAHgIAAAAADBbhmiY9npcMFACoAjD3bAICiC0xN6AJyAFeOoifbiaFux+3OiCt4BOeqCeQwPAOwAAAAQCAAACAAAACAQAAAAAAAAAAAA==
> <PUBCHEM_IUPAC_OPENEYE_NAME>
(3,5-dichlorophenyl) (2R,4S)-2-(imidazol-1-ylmethyl)-2-(4-phenylphenyl)-1,3-dioxolane-4-carboxylate
> <PUBCHEM_IUPAC_CAS_NAME>
(2R,4S)-2-(1-imidazolylmethyl)-2-(4-phenylphenyl)-1,3-dioxolane-4-carboxylic acid (3,5-dichlorophenyl) ester
> <PUBCHEM_IUPAC_NAME_MARKUP>
(3,5-dichlorophenyl) (2<I>R</I>,4<I>S</I>)-2-(imidazol-1-ylmethyl)-2-(4-phenylphenyl)-1,3-dioxolane-4-carboxylate
> <PUBCHEM_IUPAC_NAME>
(3,5-dichlorophenyl) (2R,4S)-2-(imidazol-1-ylmethyl)-2-(4-phenylphenyl)-1,3-dioxolane-4-carboxylate
> <PUBCHEM_IUPAC_SYSTEMATIC_NAME>
[3,5-bis(chloranyl)phenyl] (2R,4S)-2-(imidazol-1-ylmethyl)-2-(4-phenylphenyl)-1,3-dioxolane-4-carboxylate
> <PUBCHEM_IUPAC_TRADITIONAL_NAME>
(2R,4S)-2-(imidazol-1-ylmethyl)-2-(4-phenylphenyl)-1,3-dioxolane-4-carboxylic acid (3,5-dichlorophenyl) ester
> <PUBCHEM_IUPAC_INCHI>
InChI=1S/C26H20Cl2N2O4/c27-21-12-22(28)14-23(13-21)33-25(31)24-15-32-26(34-24,16-30-11-10-29-17-30)20-8-6-19(7-9-20)18-4-2-1-3-5-18/h1-14,17,24H,15-16H2/t24-,26-/m0/s1
> <PUBCHEM_IUPAC_INCHIKEY>
CBNHFSBIMQYYEW-AHWVRZQESA-N
> <PUBCHEM_XLOGP3_AA>
5.3
> <PUBCHEM_EXACT_MASS>
494.0800125
> <PUBCHEM_MOLECULAR_FORMULA>
C26H20Cl2N2O4
> <PUBCHEM_MOLECULAR_WEIGHT>
495.3
> <PUBCHEM_OPENEYE_CAN_SMILES>
C1C(OC(O1)(CN2C=CN=C2)C3=CC=C(C=C3)C4=CC=CC=C4)C(=O)OC5=CC(=CC(=C5)Cl)Cl
> <PUBCHEM_OPENEYE_ISO_SMILES>
C1[C@H](O[C@@](O1)(CN2C=CN=C2)C3=CC=C(C=C3)C4=CC=CC=C4)C(=O)OC5=CC(=CC(=C5)Cl)Cl
> <PUBCHEM_CACTVS_TPSA>
62.6
> <PUBCHEM_MONOISOTOPIC_WEIGHT>
494.0800125
> <PUBCHEM_TOTAL_CHARGE>
0
> <PUBCHEM_HEAVY_ATOM_COUNT>
34
> <PUBCHEM_ATOM_DEF_STEREO_COUNT>
2
> <PUBCHEM_ATOM_UDEF_STEREO_COUNT>
0
> <PUBCHEM_BOND_DEF_STEREO_COUNT>
0
> <PUBCHEM_BOND_UDEF_STEREO_COUNT>
0
> <PUBCHEM_ISOTOPIC_ATOM_COUNT>
0
> <PUBCHEM_COMPONENT_COUNT>
1
> <PUBCHEM_CACTVS_TAUTO_COUNT>
-1
> <PUBCHEM_COORDINATE_TYPE>
1
5
255
> <PUBCHEM_BONDANNOTATIONS>
11  16  5
13  14  8
13  15  8
14  17  8
15  18  8
17  19  8
18  19  8
20  23  8
22  25  8
22  26  8
24  29  8
24  30  8
25  27  8
26  28  8
27  31  8
28  31  8
29  33  8
30  32  8
32  34  8
33  34  8
7  20  8
7  21  8
8  21  8
8  23  8
9  10  6
$$$$
