510019
  -OEChem-10302200282D
 70 74  0     1  0  0  0  0  0999 V2000
   12.4544   -1.5171    0.0000 O   0  0  0  0  0  0  0  0  0  0  0  0
   11.5826   -3.0137    0.0000 O   0  0  0  0  0  0  0  0  0  0  0  0
    3.7320   -0.4796    0.0000 N   0  0  0  0  0  0  0  0  0  0  0  0
    8.9942   -0.5037    0.0000 N   0  0  0  0  0  0  0  0  0  0  0  0
   10.7224   -1.5104    0.0000 N   0  0  0  0  0  0  0  0  0  0  0  0
    5.4641   -0.4796    0.0000 N   0  0  0  0  0  0  0  0  0  0  0  0
    7.2241   -0.5142    0.0000 N   0  0  0  0  0  0  0  0  0  0  0  0
    2.8660    0.0204    0.0000 C   0  0  0  0  0  0  0  0  0  0  0  0
    3.7320   -1.4796    0.0000 C   0  0  0  0  0  0  0  0  0  0  0  0
    2.0000   -0.4796    0.0000 C   0  0  0  0  0  0  0  0  0  0  0  0
    2.8660   -1.9796    0.0000 C   0  0  0  0  0  0  0  0  0  0  0  0
    2.0000   -1.4796    0.0000 C   0  0  0  0  0  0  0  0  0  0  0  0
    9.8622   -0.0071    0.0000 C   0  0  0  0  0  0  0  0  0  0  0  0
    8.9904   -1.5037    0.0000 C   0  0  0  0  0  0  0  0  0  0  0  0
   10.7263   -0.5104    0.0000 C   0  0  0  0  0  0  0  0  0  0  0  0
    9.8545   -2.0071    0.0000 C   0  0  0  0  0  0  0  0  0  0  0  0
    4.5981    0.0204    0.0000 C   0  0  0  0  0  0  0  0  0  0  0  0
    8.1301   -0.0004    0.0000 C   0  0  0  0  0  0  0  0  0  0  0  0
    4.5981    1.0204    0.0000 C   0  0  0  0  0  0  0  0  0  0  0  0
    6.3301    0.0204    0.0000 C   0  0  0  0  0  0  0  0  0  0  0  0
    6.3301    1.0204    0.0000 C   0  0  0  0  0  0  0  0  0  0  0  0
    5.4641    1.5204    0.0000 C   0  0  0  0  0  0  0  0  0  0  0  0
    8.1301    1.0412    0.0000 C   0  0  0  0  0  0  0  0  0  0  0  0
   11.5865   -2.0137    0.0000 C   0  0  0  0  0  0  0  0  0  0  0  0
    7.2241    1.5551    0.0000 C   0  0  0  0  0  0  0  0  0  0  0  0
    3.7320    1.5204    0.0000 C   0  0  0  0  0  0  0  0  0  0  0  0
   13.3185   -2.0204    0.0000 C   0  0  3  0  0  0  0  0  0  0  0  0
    2.8660    1.0204    0.0000 C   0  0  0  0  0  0  0  0  0  0  0  0
    3.7320    2.5204    0.0000 C   0  0  0  0  0  0  0  0  0  0  0  0
   14.1865   -1.5238    0.0000 C   0  0  0  0  0  0  0  0  0  0  0  0
   13.3147   -3.0204    0.0000 C   0  0  0  0  0  0  0  0  0  0  0  0
    2.0000    1.5204    0.0000 C   0  0  0  0  0  0  0  0  0  0  0  0
    2.8660    3.0204    0.0000 C   0  0  0  0  0  0  0  0  0  0  0  0
   15.0506   -2.0271    0.0000 C   0  0  0  0  0  0  0  0  0  0  0  0
    2.0000    2.5204    0.0000 C   0  0  0  0  0  0  0  0  0  0  0  0
    3.2646    0.4954    0.0000 H   0  0  0  0  0  0  0  0  0  0  0  0
    2.4675    0.4954    0.0000 H   0  0  0  0  0  0  0  0  0  0  0  0
    3.9441   -2.0622    0.0000 H   0  0  0  0  0  0  0  0  0  0  0  0
    4.3426   -1.3719    0.0000 H   0  0  0  0  0  0  0  0  0  0  0  0
    1.7880    0.1030    0.0000 H   0  0  0  0  0  0  0  0  0  0  0  0
    1.3894   -0.5873    0.0000 H   0  0  0  0  0  0  0  0  0  0  0  0
    2.4675   -2.4545    0.0000 H   0  0  0  0  0  0  0  0  0  0  0  0
    3.2646   -2.4545    0.0000 H   0  0  0  0  0  0  0  0  0  0  0  0
    1.3894   -1.3719    0.0000 H   0  0  0  0  0  0  0  0  0  0  0  0
    1.7880   -2.0622    0.0000 H   0  0  0  0  0  0  0  0  0  0  0  0
   10.2625    0.4663    0.0000 H   0  0  0  0  0  0  0  0  0  0  0  0
    9.4655    0.4694    0.0000 H   0  0  0  0  0  0  0  0  0  0  0  0
    8.3802   -1.3937    0.0000 H   0  0  0  0  0  0  0  0  0  0  0  0
    8.7761   -2.0855    0.0000 H   0  0  0  0  0  0  0  0  0  0  0  0
   11.3364   -0.6204    0.0000 H   0  0  0  0  0  0  0  0  0  0  0  0
   10.9406    0.0714    0.0000 H   0  0  0  0  0  0  0  0  0  0  0  0
    9.4541   -2.4805    0.0000 H   0  0  0  0  0  0  0  0  0  0  0  0
   10.2512   -2.4836    0.0000 H   0  0  0  0  0  0  0  0  0  0  0  0
    5.4641    2.1404    0.0000 H   0  0  0  0  0  0  0  0  0  0  0  0
    8.6659    1.3533    0.0000 H   0  0  0  0  0  0  0  0  0  0  0  0
    7.2169    2.1750    0.0000 H   0  0  0  0  0  0  0  0  0  0  0  0
   13.3209   -1.4004    0.0000 H   0  0  0  0  0  0  0  0  0  0  0  0
    2.8660    0.4004    0.0000 H   0  0  0  0  0  0  0  0  0  0  0  0
    4.2690    2.8304    0.0000 H   0  0  0  0  0  0  0  0  0  0  0  0
   14.5868   -1.0503    0.0000 H   0  0  0  0  0  0  0  0  0  0  0  0
   13.7898   -1.0473    0.0000 H   0  0  0  0  0  0  0  0  0  0  0  0
   12.6947   -3.0180    0.0000 H   0  0  0  0  0  0  0  0  0  0  0  0
   13.3123   -3.6404    0.0000 H   0  0  0  0  0  0  0  0  0  0  0  0
   13.9347   -3.0228    0.0000 H   0  0  0  0  0  0  0  0  0  0  0  0
    1.4631    1.2104    0.0000 H   0  0  0  0  0  0  0  0  0  0  0  0
    2.8660    3.6404    0.0000 H   0  0  0  0  0  0  0  0  0  0  0  0
   14.7385   -2.5628    0.0000 H   0  0  0  0  0  0  0  0  0  0  0  0
   15.5863   -2.3392    0.0000 H   0  0  0  0  0  0  0  0  0  0  0  0
   15.3626   -1.4914    0.0000 H   0  0  0  0  0  0  0  0  0  0  0  0
    1.4631    2.8304    0.0000 H   0  0  0  0  0  0  0  0  0  0  0  0
  1 24  1  0  0  0  0
  1 27  1  0  0  0  0
  2 24  2  0  0  0  0
  3  8  1  0  0  0  0
  3  9  1  0  0  0  0
  3 17  1  0  0  0  0
  4 13  1  0  0  0  0
  4 14  1  0  0  0  0
  4 18  1  0  0  0  0
  5 15  1  0  0  0  0
  5 16  1  0  0  0  0
  5 24  1  0  0  0  0
  6 17  1  0  0  0  0
  6 20  2  0  0  0  0
  7 18  2  0  0  0  0
  7 20  1  0  0  0  0
  8 10  1  0  0  0  0
  8 36  1  0  0  0  0
  8 37  1  0  0  0  0
  9 11  1  0  0  0  0
  9 38  1  0  0  0  0
  9 39  1  0  0  0  0
 10 12  1  0  0  0  0
 10 40  1  0  0  0  0
 10 41  1  0  0  0  0
 11 12  1  0  0  0  0
 11 42  1  0  0  0  0
 11 43  1  0  0  0  0
 12 44  1  0  0  0  0
 12 45  1  0  0  0  0
 13 15  1  0  0  0  0
 13 46  1  0  0  0  0
 13 47  1  0  0  0  0
 14 16  1  0  0  0  0
 14 48  1  0  0  0  0
 14 49  1  0  0  0  0
 15 50  1  0  0  0  0
 15 51  1  0  0  0  0
 16 52  1  0  0  0  0
 16 53  1  0  0  0  0
 17 19  2  0  0  0  0
 18 23  1  0  0  0  0
 19 22  1  0  0  0  0
 19 26  1  0  0  0  0
 20 21  1  0  0  0  0
 21 22  2  0  0  0  0
 21 25  1  0  0  0  0
 22 54  1  0  0  0  0
 23 25  2  0  0  0  0
 23 55  1  0  0  0  0
 25 56  1  0  0  0  0
 26 28  2  0  0  0  0
 26 29  1  0  0  0  0
 27 30  1  0  0  0  0
 27 31  1  0  0  0  0
 27 57  1  0  0  0  0
 28 32  1  0  0  0  0
 28 58  1  0  0  0  0
 29 33  2  0  0  0  0
 29 59  1  0  0  0  0
 30 34  1  0  0  0  0
 30 60  1  0  0  0  0
 30 61  1  0  0  0  0
 31 62  1  0  0  0  0
 31 63  1  0  0  0  0
 31 64  1  0  0  0  0
 32 35  2  0  0  0  0
 32 65  1  0  0  0  0
 33 35  1  0  0  0  0
 33 66  1  0  0  0  0
 34 67  1  0  0  0  0
 34 68  1  0  0  0  0
 34 69  1  0  0  0  0
 35 70  1  0  0  0  0
M  END
> <PUBCHEM_COMPOUND_CID>
510019
> <PUBCHEM_COMPOUND_CANONICALIZED>
1
> <PUBCHEM_CACTVS_COMPLEXITY>
672
> <PUBCHEM_CACTVS_HBOND_ACCEPTOR>
6
> <PUBCHEM_CACTVS_HBOND_DONOR>
0
> <PUBCHEM_CACTVS_ROTATABLE_BOND>
6
> <PUBCHEM_CACTVS_SUBSKEYS>
AAADcfB7sAAAAAAAAAAAAAAAAAAAAAAAAAA8WLFiAAAAAACx/AAAHgAAAAAADBThmwYzuN8IFACoAiJifACCgCkhAqAJmCA4ZJiIaOLAmZGcIAhohgLIyCcQgMAOgAAAAAAAAAAAAAAAAAAAAAAAAAAAAA==
> <PUBCHEM_IUPAC_OPENEYE_NAME>
sec-butyl 4-[6-phenyl-7-(1-piperidyl)-1,8-naphthyridin-2-yl]piperazine-1-carboxylate
> <PUBCHEM_IUPAC_CAS_NAME>
4-[6-phenyl-7-(1-piperidinyl)-1,8-naphthyridin-2-yl]-1-piperazinecarboxylic acid butan-2-yl ester
> <PUBCHEM_IUPAC_NAME_MARKUP>
butan-2-yl 4-(6-phenyl-7-piperidin-1-yl-1,8-naphthyridin-2-yl)piperazine-1-carboxylate
> <PUBCHEM_IUPAC_NAME>
butan-2-yl 4-(6-phenyl-7-piperidin-1-yl-1,8-naphthyridin-2-yl)piperazine-1-carboxylate
> <PUBCHEM_IUPAC_SYSTEMATIC_NAME>
butan-2-yl 4-(6-phenyl-7-piperidin-1-yl-1,8-naphthyridin-2-yl)piperazine-1-carboxylate
> <PUBCHEM_IUPAC_TRADITIONAL_NAME>
4-(6-phenyl-7-piperidino-1,8-naphthyridin-2-yl)piperazine-1-carboxylic acid sec-butyl ester
> <PUBCHEM_IUPAC_INCHI>
InChI=1S/C28H35N5O2/c1-3-21(2)35-28(34)33-18-16-31(17-19-33)25-13-12-23-20-24(22-10-6-4-7-11-22)27(30-26(23)29-25)32-14-8-5-9-15-32/h4,6-7,10-13,20-21H,3,5,8-9,14-19H2,1-2H3
> <PUBCHEM_IUPAC_INCHIKEY>
LEKYSNFCZOQDRF-UHFFFAOYSA-N
> <PUBCHEM_XLOGP3_AA>
5.8
> <PUBCHEM_EXACT_MASS>
473.27907538
> <PUBCHEM_MOLECULAR_FORMULA>
C28H35N5O2
> <PUBCHEM_MOLECULAR_WEIGHT>
473.6
> <PUBCHEM_OPENEYE_CAN_SMILES>
CCC(C)OC(=O)N1CCN(CC1)C2=NC3=NC(=C(C=C3C=C2)C4=CC=CC=C4)N5CCCCC5
> <PUBCHEM_OPENEYE_ISO_SMILES>
CCC(C)OC(=O)N1CCN(CC1)C2=NC3=NC(=C(C=C3C=C2)C4=CC=CC=C4)N5CCCCC5
> <PUBCHEM_CACTVS_TPSA>
61.8
> <PUBCHEM_MONOISOTOPIC_WEIGHT>
473.27907538
> <PUBCHEM_TOTAL_CHARGE>
0
> <PUBCHEM_HEAVY_ATOM_COUNT>
35
> <PUBCHEM_ATOM_DEF_STEREO_COUNT>
0
> <PUBCHEM_ATOM_UDEF_STEREO_COUNT>
1
> <PUBCHEM_BOND_DEF_STEREO_COUNT>
0
> <PUBCHEM_BOND_UDEF_STEREO_COUNT>
0
> <PUBCHEM_ISOTOPIC_ATOM_COUNT>
0
> <PUBCHEM_COMPONENT_COUNT>
1
> <PUBCHEM_CACTVS_TAUTO_COUNT>
-1
> <PUBCHEM_COORDINATE_TYPE>
1
5
255
> <PUBCHEM_BONDANNOTATIONS>
17  19  8
18  23  8
19  22  8
20  21  8
21  22  8
21  25  8
23  25  8
26  28  8
26  29  8
27  31  3
28  32  8
29  33  8
32  35  8
33  35  8
6  17  8
6  20  8
7  18  8
7  20  8
$$$$
