510060
  -OEChem-10302200282D
 57 61  0     1  0  0  0  0  0999 V2000
   10.9093    5.2007    0.0000 Cl  0  0  0  0  0  0  0  0  0  0  0  0
    7.5209    5.9209    0.0000 Cl  0  0  0  0  0  0  0  0  0  0  0  0
    6.1724    0.0791    0.0000 O   0  0  0  0  0  0  0  0  0  0  0  0
    4.8633    1.0302    0.0000 O   0  0  0  0  0  0  0  0  0  0  0  0
    8.5914    2.6263    0.0000 O   0  0  0  0  0  0  0  0  0  0  0  0
    6.8972    2.9864    0.0000 O   0  0  0  0  0  0  0  0  0  0  0  0
    3.4782    0.4392    0.0000 N   0  0  0  0  0  0  0  0  0  0  0  0
    2.6691    1.8405    0.0000 N   0  0  0  0  0  0  0  0  0  0  0  0
    5.1724    0.0791    0.0000 C   0  0  1  0  0  0  0  0  0  0  0  0
    6.4814    1.0302    0.0000 C   0  0  2  0  0  0  0  0  0  0  0  0
    5.6724    1.6179    0.0000 C   0  0  0  0  0  0  0  0  0  0  0  0
    4.2213   -0.2299    0.0000 C   0  0  0  0  0  0  0  0  0  0  0  0
    5.1724   -0.9209    0.0000 C   0  0  0  0  0  0  0  0  0  0  0  0
    7.4324    1.3392    0.0000 C   0  0  0  0  0  0  0  0  0  0  0  0
    4.3063   -1.4209    0.0000 C   0  0  0  0  0  0  0  0  0  0  0  0
    6.0384   -1.4209    0.0000 C   0  0  0  0  0  0  0  0  0  0  0  0
    7.6403    2.3173    0.0000 C   0  0  0  0  0  0  0  0  0  0  0  0
    4.3063   -2.4209    0.0000 C   0  0  0  0  0  0  0  0  0  0  0  0
    6.0384   -2.4209    0.0000 C   0  0  0  0  0  0  0  0  0  0  0  0
    5.1724   -2.9209    0.0000 C   0  0  0  0  0  0  0  0  0  0  0  0
    2.5000    0.2313    0.0000 C   0  0  0  0  0  0  0  0  0  0  0  0
    3.5827    1.4337    0.0000 C   0  0  0  0  0  0  0  0  0  0  0  0
    2.0000    1.0973    0.0000 C   0  0  0  0  0  0  0  0  0  0  0  0
    5.1724   -3.9209    0.0000 C   0  0  0  0  0  0  0  0  0  0  0  0
    6.0384   -4.4209    0.0000 C   0  0  0  0  0  0  0  0  0  0  0  0
    4.3063   -4.4209    0.0000 C   0  0  0  0  0  0  0  0  0  0  0  0
    8.7993    3.6045    0.0000 C   0  0  0  0  0  0  0  0  0  0  0  0
    6.0384   -5.4209    0.0000 C   0  0  0  0  0  0  0  0  0  0  0  0
    4.3063   -5.4209    0.0000 C   0  0  0  0  0  0  0  0  0  0  0  0
    5.1724   -5.9209    0.0000 C   0  0  0  0  0  0  0  0  0  0  0  0
    8.0562    4.2736    0.0000 C   0  0  0  0  0  0  0  0  0  0  0  0
    9.7504    3.9135    0.0000 C   0  0  0  0  0  0  0  0  0  0  0  0
    9.9583    4.8916    0.0000 C   0  0  0  0  0  0  0  0  0  0  0  0
    8.2641    5.2518    0.0000 C   0  0  0  0  0  0  0  0  0  0  0  0
    9.2151    5.5608    0.0000 C   0  0  0  0  0  0  0  0  0  0  0  0
    6.9198    0.5918    0.0000 H   0  0  0  0  0  0  0  0  0  0  0  0
    6.0872    2.0787    0.0000 H   0  0  0  0  0  0  0  0  0  0  0  0
    5.2575    2.0787    0.0000 H   0  0  0  0  0  0  0  0  0  0  0  0
    3.7327   -0.6116    0.0000 H   0  0  0  0  0  0  0  0  0  0  0  0
    4.5124   -0.7773    0.0000 H   0  0  0  0  0  0  0  0  0  0  0  0
    7.5187    0.7252    0.0000 H   0  0  0  0  0  0  0  0  0  0  0  0
    8.0520    1.3175    0.0000 H   0  0  0  0  0  0  0  0  0  0  0  0
    3.7694   -1.1109    0.0000 H   0  0  0  0  0  0  0  0  0  0  0  0
    6.5753   -1.1109    0.0000 H   0  0  0  0  0  0  0  0  0  0  0  0
    3.7694   -2.7309    0.0000 H   0  0  0  0  0  0  0  0  0  0  0  0
    6.5753   -2.7309    0.0000 H   0  0  0  0  0  0  0  0  0  0  0  0
    2.2478   -0.3351    0.0000 H   0  0  0  0  0  0  0  0  0  0  0  0
    4.1196    1.7437    0.0000 H   0  0  0  0  0  0  0  0  0  0  0  0
    1.3834    1.1621    0.0000 H   0  0  0  0  0  0  0  0  0  0  0  0
    6.5753   -4.1109    0.0000 H   0  0  0  0  0  0  0  0  0  0  0  0
    3.7694   -4.1109    0.0000 H   0  0  0  0  0  0  0  0  0  0  0  0
    6.5753   -5.7309    0.0000 H   0  0  0  0  0  0  0  0  0  0  0  0
    3.7694   -5.7309    0.0000 H   0  0  0  0  0  0  0  0  0  0  0  0
    5.1724   -6.5409    0.0000 H   0  0  0  0  0  0  0  0  0  0  0  0
    7.4665    4.0820    0.0000 H   0  0  0  0  0  0  0  0  0  0  0  0
   10.2111    3.4986    0.0000 H   0  0  0  0  0  0  0  0  0  0  0  0
    9.3440    6.1672    0.0000 H   0  0  0  0  0  0  0  0  0  0  0  0
  1 33  1  0  0  0  0
  2 34  1  0  0  0  0
  3  9  1  0  0  0  0
  3 10  1  0  0  0  0
  4  9  1  0  0  0  0
  4 11  1  0  0  0  0
  5 17  1  0  0  0  0
  5 27  1  0  0  0  0
  6 17  2  0  0  0  0
  7 12  1  0  0  0  0
  7 21  1  0  0  0  0
  7 22  1  0  0  0  0
  8 22  2  0  0  0  0
  8 23  1  0  0  0  0
  9 12  1  6  0  0  0
  9 13  1  0  0  0  0
 10 11  1  0  0  0  0
 10 14  1  6  0  0  0
 10 36  1  0  0  0  0
 11 37  1  0  0  0  0
 11 38  1  0  0  0  0
 12 39  1  0  0  0  0
 12 40  1  0  0  0  0
 13 15  2  0  0  0  0
 13 16  1  0  0  0  0
 14 17  1  0  0  0  0
 14 41  1  0  0  0  0
 14 42  1  0  0  0  0
 15 18  1  0  0  0  0
 15 43  1  0  0  0  0
 16 19  2  0  0  0  0
 16 44  1  0  0  0  0
 18 20  2  0  0  0  0
 18 45  1  0  0  0  0
 19 20  1  0  0  0  0
 19 46  1  0  0  0  0
 20 24  1  0  0  0  0
 21 23  2  0  0  0  0
 21 47  1  0  0  0  0
 22 48  1  0  0  0  0
 23 49  1  0  0  0  0
 24 25  2  0  0  0  0
 24 26  1  0  0  0  0
 25 28  1  0  0  0  0
 25 50  1  0  0  0  0
 26 29  2  0  0  0  0
 26 51  1  0  0  0  0
 27 31  2  0  0  0  0
 27 32  1  0  0  0  0
 28 30  2  0  0  0  0
 28 52  1  0  0  0  0
 29 30  1  0  0  0  0
 29 53  1  0  0  0  0
 30 54  1  0  0  0  0
 31 34  1  0  0  0  0
 31 55  1  0  0  0  0
 32 33  2  0  0  0  0
 32 56  1  0  0  0  0
 33 35  1  0  0  0  0
 34 35  2  0  0  0  0
 35 57  1  0  0  0  0
M  END
> <PUBCHEM_COMPOUND_CID>
510060
> <PUBCHEM_COMPOUND_CANONICALIZED>
1
> <PUBCHEM_CACTVS_COMPLEXITY>
691
> <PUBCHEM_CACTVS_HBOND_ACCEPTOR>
5
> <PUBCHEM_CACTVS_HBOND_DONOR>
0
> <PUBCHEM_CACTVS_ROTATABLE_BOND>
8
> <PUBCHEM_CACTVS_SUBSKEYS>
AAADceB7OAAGAAAAAAAAAAAAAAAAAWJAAAAwYMAAAAAAAAAB1AAAHgIAAAAADBbhmiY9npcMFACoAjD3bAACiC0xN6AJyAEeOoifbjaFuxu3OiCt4BOeqCfSwPAOwAAAAQCAAACAAAACAQAAAAAAAAAAAA==
> <PUBCHEM_IUPAC_OPENEYE_NAME>
(3,5-dichlorophenyl) 2-[(2R,4S)-2-(imidazol-1-ylmethyl)-2-(4-phenylphenyl)-1,3-dioxolan-4-yl]acetate
> <PUBCHEM_IUPAC_CAS_NAME>
2-[(2R,4S)-2-(1-imidazolylmethyl)-2-(4-phenylphenyl)-1,3-dioxolan-4-yl]acetic acid (3,5-dichlorophenyl) ester
> <PUBCHEM_IUPAC_NAME_MARKUP>
(3,5-dichlorophenyl) 2-[(2<I>R</I>,4<I>S</I>)-2-(imidazol-1-ylmethyl)-2-(4-phenylphenyl)-1,3-dioxolan-4-yl]acetate
> <PUBCHEM_IUPAC_NAME>
(3,5-dichlorophenyl) 2-[(2R,4S)-2-(imidazol-1-ylmethyl)-2-(4-phenylphenyl)-1,3-dioxolan-4-yl]acetate
> <PUBCHEM_IUPAC_SYSTEMATIC_NAME>
[3,5-bis(chloranyl)phenyl] 2-[(2R,4S)-2-(imidazol-1-ylmethyl)-2-(4-phenylphenyl)-1,3-dioxolan-4-yl]ethanoate
> <PUBCHEM_IUPAC_TRADITIONAL_NAME>
2-[(2R,4S)-2-(imidazol-1-ylmethyl)-2-(4-phenylphenyl)-1,3-dioxolan-4-yl]acetic acid (3,5-dichlorophenyl) ester
> <PUBCHEM_IUPAC_INCHI>
InChI=1S/C27H22Cl2N2O4/c28-22-12-23(29)14-24(13-22)34-26(32)15-25-16-33-27(35-25,17-31-11-10-30-18-31)21-8-6-20(7-9-21)19-4-2-1-3-5-19/h1-14,18,25H,15-17H2/t25-,27-/m0/s1
> <PUBCHEM_IUPAC_INCHIKEY>
MNKMJLNQFMYAHT-BDYUSTAISA-N
> <PUBCHEM_XLOGP3_AA>
5.2
> <PUBCHEM_EXACT_MASS>
508.0956626
> <PUBCHEM_MOLECULAR_FORMULA>
C27H22Cl2N2O4
> <PUBCHEM_MOLECULAR_WEIGHT>
509.4
> <PUBCHEM_OPENEYE_CAN_SMILES>
C1C(OC(O1)(CN2C=CN=C2)C3=CC=C(C=C3)C4=CC=CC=C4)CC(=O)OC5=CC(=CC(=C5)Cl)Cl
> <PUBCHEM_OPENEYE_ISO_SMILES>
C1[C@@H](O[C@@](O1)(CN2C=CN=C2)C3=CC=C(C=C3)C4=CC=CC=C4)CC(=O)OC5=CC(=CC(=C5)Cl)Cl
> <PUBCHEM_CACTVS_TPSA>
62.6
> <PUBCHEM_MONOISOTOPIC_WEIGHT>
508.0956626
> <PUBCHEM_TOTAL_CHARGE>
0
> <PUBCHEM_HEAVY_ATOM_COUNT>
35
> <PUBCHEM_ATOM_DEF_STEREO_COUNT>
2
> <PUBCHEM_ATOM_UDEF_STEREO_COUNT>
0
> <PUBCHEM_BOND_DEF_STEREO_COUNT>
0
> <PUBCHEM_BOND_UDEF_STEREO_COUNT>
0
> <PUBCHEM_ISOTOPIC_ATOM_COUNT>
0
> <PUBCHEM_COMPONENT_COUNT>
1
> <PUBCHEM_CACTVS_TAUTO_COUNT>
-1
> <PUBCHEM_COORDINATE_TYPE>
1
5
255
> <PUBCHEM_BONDANNOTATIONS>
10  14  6
13  15  8
13  16  8
15  18  8
16  19  8
18  20  8
19  20  8
21  23  8
24  25  8
24  26  8
25  28  8
26  29  8
27  31  8
27  32  8
28  30  8
29  30  8
31  34  8
32  33  8
33  35  8
34  35  8
7  21  8
7  22  8
8  22  8
8  23  8
9  12  6
$$$$
