510077
  -OEChem-10302200282D
 54 58  0     1  0  0  0  0  0999 V2000
    8.0562    5.0973    0.0000 F   0  0  0  0  0  0  0  0  0  0  0  0
    9.1266    1.8027    0.0000 F   0  0  0  0  0  0  0  0  0  0  0  0
    6.1724    0.9027    0.0000 O   0  0  0  0  0  0  0  0  0  0  0  0
    4.8633    1.8538    0.0000 O   0  0  0  0  0  0  0  0  0  0  0  0
    7.6403    3.1410    0.0000 O   0  0  0  0  0  0  0  0  0  0  0  0
    8.1756    1.4937    0.0000 O   0  0  0  0  0  0  0  0  0  0  0  0
    3.4782    1.2629    0.0000 N   0  0  0  0  0  0  0  0  0  0  0  0
    2.6691    2.6641    0.0000 N   0  0  0  0  0  0  0  0  0  0  0  0
    5.1724    0.9027    0.0000 C   0  0  1  0  0  0  0  0  0  0  0  0
    4.2213    0.5937    0.0000 C   0  0  0  0  0  0  0  0  0  0  0  0
    6.4814    1.8538    0.0000 C   0  0  1  0  0  0  0  0  0  0  0  0
    5.6724    2.4416    0.0000 C   0  0  0  0  0  0  0  0  0  0  0  0
    5.1724   -0.0973    0.0000 C   0  0  0  0  0  0  0  0  0  0  0  0
    4.3063   -0.5973    0.0000 C   0  0  0  0  0  0  0  0  0  0  0  0
    6.0384   -0.5973    0.0000 C   0  0  0  0  0  0  0  0  0  0  0  0
    7.4324    2.1628    0.0000 C   0  0  0  0  0  0  0  0  0  0  0  0
    4.3063   -1.5973    0.0000 C   0  0  0  0  0  0  0  0  0  0  0  0
    6.0384   -1.5973    0.0000 C   0  0  0  0  0  0  0  0  0  0  0  0
    5.1724   -2.0973    0.0000 C   0  0  0  0  0  0  0  0  0  0  0  0
    2.5000    1.0549    0.0000 C   0  0  0  0  0  0  0  0  0  0  0  0
    3.5827    2.2574    0.0000 C   0  0  0  0  0  0  0  0  0  0  0  0
    5.1724   -3.0973    0.0000 C   0  0  0  0  0  0  0  0  0  0  0  0
    2.0000    1.9210    0.0000 C   0  0  0  0  0  0  0  0  0  0  0  0
    8.5914    3.4500    0.0000 C   0  0  0  0  0  0  0  0  0  0  0  0
    4.3063   -3.5973    0.0000 C   0  0  0  0  0  0  0  0  0  0  0  0
    6.0384   -3.5973    0.0000 C   0  0  0  0  0  0  0  0  0  0  0  0
    4.3063   -4.5973    0.0000 C   0  0  0  0  0  0  0  0  0  0  0  0
    6.0384   -4.5973    0.0000 C   0  0  0  0  0  0  0  0  0  0  0  0
    8.7993    4.4281    0.0000 C   0  0  0  0  0  0  0  0  0  0  0  0
    9.3345    2.7808    0.0000 C   0  0  0  0  0  0  0  0  0  0  0  0
    5.1724   -5.0973    0.0000 C   0  0  0  0  0  0  0  0  0  0  0  0
    9.7504    4.7371    0.0000 C   0  0  0  0  0  0  0  0  0  0  0  0
   10.2856    3.0899    0.0000 C   0  0  0  0  0  0  0  0  0  0  0  0
   10.4935    4.0680    0.0000 C   0  0  0  0  0  0  0  0  0  0  0  0
    3.7327    0.2120    0.0000 H   0  0  0  0  0  0  0  0  0  0  0  0
    4.5124    0.0463    0.0000 H   0  0  0  0  0  0  0  0  0  0  0  0
    6.9198    1.4154    0.0000 H   0  0  0  0  0  0  0  0  0  0  0  0
    6.0872    2.9023    0.0000 H   0  0  0  0  0  0  0  0  0  0  0  0
    5.2575    2.9023    0.0000 H   0  0  0  0  0  0  0  0  0  0  0  0
    3.7694   -0.2873    0.0000 H   0  0  0  0  0  0  0  0  0  0  0  0
    6.5753   -0.2873    0.0000 H   0  0  0  0  0  0  0  0  0  0  0  0
    3.7694   -1.9073    0.0000 H   0  0  0  0  0  0  0  0  0  0  0  0
    6.5753   -1.9073    0.0000 H   0  0  0  0  0  0  0  0  0  0  0  0
    2.2478    0.4885    0.0000 H   0  0  0  0  0  0  0  0  0  0  0  0
    4.1196    2.5674    0.0000 H   0  0  0  0  0  0  0  0  0  0  0  0
    1.3834    1.9858    0.0000 H   0  0  0  0  0  0  0  0  0  0  0  0
    3.7694   -3.2873    0.0000 H   0  0  0  0  0  0  0  0  0  0  0  0
    6.5753   -3.2873    0.0000 H   0  0  0  0  0  0  0  0  0  0  0  0
    3.7694   -4.9073    0.0000 H   0  0  0  0  0  0  0  0  0  0  0  0
    6.5753   -4.9073    0.0000 H   0  0  0  0  0  0  0  0  0  0  0  0
    5.1724   -5.7173    0.0000 H   0  0  0  0  0  0  0  0  0  0  0  0
    9.8793    5.3436    0.0000 H   0  0  0  0  0  0  0  0  0  0  0  0
   10.7463    2.6750    0.0000 H   0  0  0  0  0  0  0  0  0  0  0  0
   11.0832    4.2596    0.0000 H   0  0  0  0  0  0  0  0  0  0  0  0
  1 29  1  0  0  0  0
  2 30  1  0  0  0  0
  3  9  1  0  0  0  0
  3 11  1  0  0  0  0
  4  9  1  0  0  0  0
  4 12  1  0  0  0  0
  5 16  1  0  0  0  0
  5 24  1  0  0  0  0
  6 16  2  0  0  0  0
  7 10  1  0  0  0  0
  7 20  1  0  0  0  0
  7 21  1  0  0  0  0
  8 21  2  0  0  0  0
  8 23  1  0  0  0  0
  9 10  1  6  0  0  0
  9 13  1  0  0  0  0
 10 35  1  0  0  0  0
 10 36  1  0  0  0  0
 11 12  1  0  0  0  0
 11 16  1  1  0  0  0
 11 37  1  0  0  0  0
 12 38  1  0  0  0  0
 12 39  1  0  0  0  0
 13 14  2  0  0  0  0
 13 15  1  0  0  0  0
 14 17  1  0  0  0  0
 14 40  1  0  0  0  0
 15 18  2  0  0  0  0
 15 41  1  0  0  0  0
 17 19  2  0  0  0  0
 17 42  1  0  0  0  0
 18 19  1  0  0  0  0
 18 43  1  0  0  0  0
 19 22  1  0  0  0  0
 20 23  2  0  0  0  0
 20 44  1  0  0  0  0
 21 45  1  0  0  0  0
 22 25  2  0  0  0  0
 22 26  1  0  0  0  0
 23 46  1  0  0  0  0
 24 29  2  0  0  0  0
 24 30  1  0  0  0  0
 25 27  1  0  0  0  0
 25 47  1  0  0  0  0
 26 28  2  0  0  0  0
 26 48  1  0  0  0  0
 27 31  2  0  0  0  0
 27 49  1  0  0  0  0
 28 31  1  0  0  0  0
 28 50  1  0  0  0  0
 29 32  1  0  0  0  0
 30 33  2  0  0  0  0
 31 51  1  0  0  0  0
 32 34  2  0  0  0  0
 32 52  1  0  0  0  0
 33 34  1  0  0  0  0
 33 53  1  0  0  0  0
 34 54  1  0  0  0  0
M  END
> <PUBCHEM_COMPOUND_CID>
510077
> <PUBCHEM_COMPOUND_CANONICALIZED>
1
> <PUBCHEM_CACTVS_COMPLEXITY>
676
> <PUBCHEM_CACTVS_HBOND_ACCEPTOR>
7
> <PUBCHEM_CACTVS_HBOND_DONOR>
0
> <PUBCHEM_CACTVS_ROTATABLE_BOND>
7
> <PUBCHEM_CACTVS_SUBSKEYS>
AAADceB7OYAAAAAAAAAAAAAAAAAAAWJAAAAwYMAAAAAAAAAB1AAAHwAAAAAADBThmg49npcMFACoAjD3bAICiC0xMqAJyAFcOIifbiaEuR+3OiCt4BOeqCeQwPAOwAAAAAAAAACAAAAAAAAAAAAAAAAAAA==
> <PUBCHEM_IUPAC_OPENEYE_NAME>
(2,6-difluorophenyl) (2R,4S)-2-(imidazol-1-ylmethyl)-2-(4-phenylphenyl)-1,3-dioxolane-4-carboxylate
> <PUBCHEM_IUPAC_CAS_NAME>
(2R,4S)-2-(1-imidazolylmethyl)-2-(4-phenylphenyl)-1,3-dioxolane-4-carboxylic acid (2,6-difluorophenyl) ester
> <PUBCHEM_IUPAC_NAME_MARKUP>
(2,6-difluorophenyl) (2<I>R</I>,4<I>S</I>)-2-(imidazol-1-ylmethyl)-2-(4-phenylphenyl)-1,3-dioxolane-4-carboxylate
> <PUBCHEM_IUPAC_NAME>
(2,6-difluorophenyl) (2R,4S)-2-(imidazol-1-ylmethyl)-2-(4-phenylphenyl)-1,3-dioxolane-4-carboxylate
> <PUBCHEM_IUPAC_SYSTEMATIC_NAME>
[2,6-bis(fluoranyl)phenyl] (2R,4S)-2-(imidazol-1-ylmethyl)-2-(4-phenylphenyl)-1,3-dioxolane-4-carboxylate
> <PUBCHEM_IUPAC_TRADITIONAL_NAME>
(2R,4S)-2-(imidazol-1-ylmethyl)-2-(4-phenylphenyl)-1,3-dioxolane-4-carboxylic acid (2,6-difluorophenyl) ester
> <PUBCHEM_IUPAC_INCHI>
InChI=1S/C26H20F2N2O4/c27-21-7-4-8-22(28)24(21)33-25(31)23-15-32-26(34-23,16-30-14-13-29-17-30)20-11-9-19(10-12-20)18-5-2-1-3-6-18/h1-14,17,23H,15-16H2/t23-,26-/m0/s1
> <PUBCHEM_IUPAC_INCHIKEY>
APLVNLNZZHWQIL-OZXSUGGESA-N
> <PUBCHEM_XLOGP3_AA>
4.2
> <PUBCHEM_EXACT_MASS>
462.13911345
> <PUBCHEM_MOLECULAR_FORMULA>
C26H20F2N2O4
> <PUBCHEM_MOLECULAR_WEIGHT>
462.4
> <PUBCHEM_OPENEYE_CAN_SMILES>
C1C(OC(O1)(CN2C=CN=C2)C3=CC=C(C=C3)C4=CC=CC=C4)C(=O)OC5=C(C=CC=C5F)F
> <PUBCHEM_OPENEYE_ISO_SMILES>
C1[C@H](O[C@@](O1)(CN2C=CN=C2)C3=CC=C(C=C3)C4=CC=CC=C4)C(=O)OC5=C(C=CC=C5F)F
> <PUBCHEM_CACTVS_TPSA>
62.6
> <PUBCHEM_MONOISOTOPIC_WEIGHT>
462.13911345
> <PUBCHEM_TOTAL_CHARGE>
0
> <PUBCHEM_HEAVY_ATOM_COUNT>
34
> <PUBCHEM_ATOM_DEF_STEREO_COUNT>
2
> <PUBCHEM_ATOM_UDEF_STEREO_COUNT>
0
> <PUBCHEM_BOND_DEF_STEREO_COUNT>
0
> <PUBCHEM_BOND_UDEF_STEREO_COUNT>
0
> <PUBCHEM_ISOTOPIC_ATOM_COUNT>
0
> <PUBCHEM_COMPONENT_COUNT>
1
> <PUBCHEM_CACTVS_TAUTO_COUNT>
-1
> <PUBCHEM_COORDINATE_TYPE>
1
5
255
> <PUBCHEM_BONDANNOTATIONS>
11  16  5
13  14  8
13  15  8
14  17  8
15  18  8
17  19  8
18  19  8
20  23  8
22  25  8
22  26  8
24  29  8
24  30  8
25  27  8
26  28  8
27  31  8
28  31  8
29  32  8
30  33  8
32  34  8
33  34  8
7  20  8
7  21  8
8  21  8
8  23  8
9  10  6
$$$$
