510094
  -OEChem-10302200282D
 61 63  0     1  0  0  0  0  0999 V2000
    5.2835   -1.5416    0.0000 O   0  0  0  0  0  0  0  0  0  0  0  0
    5.3036   -3.2735    0.0000 O   0  0  0  0  0  0  0  0  0  0  0  0
    2.3038   -3.3082    0.0000 O   0  0  0  0  0  0  0  0  0  0  0  0
    3.8137   -4.1569    0.0000 O   0  0  0  0  0  0  0  0  0  0  0  0
    7.6674    0.8764    0.0000 C   0  0  2  0  0  0  0  0  0  0  0  0
    7.6674   -0.1236    0.0000 C   0  0  3  0  0  0  0  0  0  0  0  0
    6.7734   -0.6583    0.0000 C   0  0  1  0  0  0  0  0  0  0  0  0
    8.5334    1.3764    0.0000 C   0  0  0  0  0  0  0  0  0  0  0  0
    9.3994    0.8764    0.0000 C   0  0  3  0  0  0  0  0  0  0  0  0
    8.5334   -0.6236    0.0000 C   0  0  0  0  0  0  0  0  0  0  0  0
    6.7734    1.4110    0.0000 C   0  0  0  0  0  0  0  0  0  0  0  0
    5.8674   -0.1444    0.0000 C   0  0  0  0  0  0  0  0  0  0  0  0
    9.3994   -0.1236    0.0000 C   0  0  0  0  0  0  0  0  0  0  0  0
    5.8674    0.8972    0.0000 C   0  0  0  0  0  0  0  0  0  0  0  0
   10.3094    1.3832    0.0000 C   0  0  0  0  0  0  0  0  0  0  0  0
    7.6674    1.8764    0.0000 C   0  0  0  0  0  0  0  0  0  0  0  0
   10.3175    2.4248    0.0000 C   0  0  2  0  0  0  0  0  0  0  0  0
    6.2835   -1.5300    0.0000 C   0  0  0  0  0  0  0  0  0  0  0  0
    7.2834   -1.5185    0.0000 C   0  0  0  0  0  0  0  0  0  0  0  0
    8.5173    2.4179    0.0000 C   0  0  0  0  0  0  0  0  0  0  0  0
    9.4154    2.9456    0.0000 C   0  0  0  0  0  0  0  0  0  0  0  0
   11.3174    2.4210    0.0000 C   0  0  0  0  0  0  0  0  0  0  0  0
   10.8208    3.2889    0.0000 C   0  0  0  0  0  0  0  0  0  0  0  0
   10.3241    4.1569    0.0000 C   0  0  0  0  0  0  0  0  0  0  0  0
    4.7936   -2.4134    0.0000 C   0  0  0  0  0  0  0  0  0  0  0  0
    3.7937   -2.4249    0.0000 C   0  0  0  0  0  0  0  0  0  0  0  0
    3.3037   -3.2967    0.0000 C   0  0  0  0  0  0  0  0  0  0  0  0
    7.6722   -0.7436    0.0000 H   0  0  0  0  0  0  0  0  0  0  0  0
    9.9340    0.5622    0.0000 H   0  0  0  0  0  0  0  0  0  0  0  0
    8.1349   -1.0986    0.0000 H   0  0  0  0  0  0  0  0  0  0  0  0
    8.9319   -1.0986    0.0000 H   0  0  0  0  0  0  0  0  0  0  0  0
    7.1780    1.8808    0.0000 H   0  0  0  0  0  0  0  0  0  0  0  0
    6.3798    1.8900    0.0000 H   0  0  0  0  0  0  0  0  0  0  0  0
    5.2565   -0.0384    0.0000 H   0  0  0  0  0  0  0  0  0  0  0  0
    5.6583   -0.7281    0.0000 H   0  0  0  0  0  0  0  0  0  0  0  0
    9.6115   -0.7062    0.0000 H   0  0  0  0  0  0  0  0  0  0  0  0
   10.0100   -0.0160    0.0000 H   0  0  0  0  0  0  0  0  0  0  0  0
    5.6583    1.4809    0.0000 H   0  0  0  0  0  0  0  0  0  0  0  0
    5.2565    0.7911    0.0000 H   0  0  0  0  0  0  0  0  0  0  0  0
   10.5140    0.7979    0.0000 H   0  0  0  0  0  0  0  0  0  0  0  0
   10.9211    1.4846    0.0000 H   0  0  0  0  0  0  0  0  0  0  0  0
    8.2874    1.8764    0.0000 H   0  0  0  0  0  0  0  0  0  0  0  0
    7.6674    2.4964    0.0000 H   0  0  0  0  0  0  0  0  0  0  0  0
    7.0474    1.8764    0.0000 H   0  0  0  0  0  0  0  0  0  0  0  0
    6.1829   -2.1418    0.0000 H   0  0  0  0  0  0  0  0  0  0  0  0
    6.8685   -1.7353    0.0000 H   0  0  0  0  0  0  0  0  0  0  0  0
    6.7501   -1.8347    0.0000 H   0  0  0  0  0  0  0  0  0  0  0  0
    7.5996   -2.0518    0.0000 H   0  0  0  0  0  0  0  0  0  0  0  0
    7.8167   -1.2023    0.0000 H   0  0  0  0  0  0  0  0  0  0  0  0
    7.9768    2.7216    0.0000 H   0  0  0  0  0  0  0  0  0  0  0  0
    9.8127    3.4216    0.0000 H   0  0  0  0  0  0  0  0  0  0  0  0
    9.0144    3.4185    0.0000 H   0  0  0  0  0  0  0  0  0  0  0  0
   11.3151    1.8010    0.0000 H   0  0  0  0  0  0  0  0  0  0  0  0
   11.9374    2.4186    0.0000 H   0  0  0  0  0  0  0  0  0  0  0  0
   11.3198    3.0410    0.0000 H   0  0  0  0  0  0  0  0  0  0  0  0
   11.4408    3.2865    0.0000 H   0  0  0  0  0  0  0  0  0  0  0  0
   10.6362    4.6926    0.0000 H   0  0  0  0  0  0  0  0  0  0  0  0
    9.7041    4.1592    0.0000 H   0  0  0  0  0  0  0  0  0  0  0  0
    3.8942   -1.8131    0.0000 H   0  0  0  0  0  0  0  0  0  0  0  0
    3.2086   -2.2196    0.0000 H   0  0  0  0  0  0  0  0  0  0  0  0
    2.0000   -3.8487    0.0000 H   0  0  0  0  0  0  0  0  0  0  0  0
  1 18  1  0  0  0  0
  1 25  1  0  0  0  0
  2 25  2  0  0  0  0
  3 27  1  0  0  0  0
  3 61  1  0  0  0  0
  4 27  2  0  0  0  0
  5  6  1  0  0  0  0
  5  8  1  0  0  0  0
  5 11  1  0  0  0  0
  5 16  1  6  0  0  0
  6  7  1  0  0  0  0
  6 10  1  0  0  0  0
  6 28  1  0  0  0  0
  7 12  1  0  0  0  0
  7 18  1  0  0  0  0
  7 19  1  1  0  0  0
  8  9  1  0  0  0  0
  8 20  2  0  0  0  0
  9 13  1  0  0  0  0
  9 15  1  0  0  0  0
  9 29  1  0  0  0  0
 10 13  1  0  0  0  0
 10 30  1  0  0  0  0
 10 31  1  0  0  0  0
 11 14  1  0  0  0  0
 11 32  1  0  0  0  0
 11 33  1  0  0  0  0
 12 14  1  0  0  0  0
 12 34  1  0  0  0  0
 12 35  1  0  0  0  0
 13 36  1  0  0  0  0
 13 37  1  0  0  0  0
 14 38  1  0  0  0  0
 14 39  1  0  0  0  0
 15 17  1  0  0  0  0
 15 40  1  0  0  0  0
 15 41  1  0  0  0  0
 16 42  1  0  0  0  0
 16 43  1  0  0  0  0
 16 44  1  0  0  0  0
 17 21  1  0  0  0  0
 17 22  1  6  0  0  0
 17 23  1  0  0  0  0
 18 45  1  0  0  0  0
 18 46  1  0  0  0  0
 19 47  1  0  0  0  0
 19 48  1  0  0  0  0
 19 49  1  0  0  0  0
 20 21  1  0  0  0  0
 20 50  1  0  0  0  0
 21 51  1  0  0  0  0
 21 52  1  0  0  0  0
 22 53  1  0  0  0  0
 22 54  1  0  0  0  0
 22 55  1  0  0  0  0
 23 24  2  0  0  0  0
 23 56  1  0  0  0  0
 24 57  1  0  0  0  0
 24 58  1  0  0  0  0
 25 26  1  0  0  0  0
 26 27  1  0  0  0  0
 26 59  1  0  0  0  0
 26 60  1  0  0  0  0
M  END
> <PUBCHEM_COMPOUND_CID>
510094
> <PUBCHEM_COMPOUND_CANONICALIZED>
1
> <PUBCHEM_CACTVS_COMPLEXITY>
665
> <PUBCHEM_CACTVS_HBOND_ACCEPTOR>
4
> <PUBCHEM_CACTVS_HBOND_DONOR>
1
> <PUBCHEM_CACTVS_ROTATABLE_BOND>
6
> <PUBCHEM_CACTVS_SUBSKEYS>
AAADcfB4OAAAAAAAAAAAAAAAAAAAAAAAAAAwYIAAAAAAAADAAAAAGgAACAAADwCggAICCAAABgCIAiDSCAAAAAAgAAAICAEAAAgAAAYIAQACQAAFoAAIAAOAwOAPgAAAAAAAAACAAAQAACAAAAAAAAAAAA==
> <PUBCHEM_IUPAC_OPENEYE_NAME>
3-[[(1R,4aR,7R)-1,4a,7-trimethyl-7-vinyl-3,4,6,8,8a,9,10,10a-octahydro-2H-phenanthren-1-yl]methoxy]-3-oxo-propanoic acid
> <PUBCHEM_IUPAC_CAS_NAME>
3-[[(1R,4aR,7R)-7-ethenyl-1,4a,7-trimethyl-3,4,6,8,8a,9,10,10a-octahydro-2H-phenanthren-1-yl]methoxy]-3-oxopropanoic acid
> <PUBCHEM_IUPAC_NAME_MARKUP>
3-[[(1<I>R</I>,4<I>a</I><I>R</I>,7<I>R</I>)-7-ethenyl-1,4<I>a</I>,7-trimethyl-3,4,6,8,8<I>a</I>,9,10,10<I>a</I>-octahydro-2<I>H</I>-phenanthren-1-yl]methoxy]-3-oxopropanoic acid
> <PUBCHEM_IUPAC_NAME>
3-[[(1R,4aR,7R)-7-ethenyl-1,4a,7-trimethyl-3,4,6,8,8a,9,10,10a-octahydro-2H-phenanthren-1-yl]methoxy]-3-oxopropanoic acid
> <PUBCHEM_IUPAC_SYSTEMATIC_NAME>
3-[[(1R,4aR,7R)-7-ethenyl-1,4a,7-trimethyl-3,4,6,8,8a,9,10,10a-octahydro-2H-phenanthren-1-yl]methoxy]-3-oxidanylidene-propanoic acid
> <PUBCHEM_IUPAC_TRADITIONAL_NAME>
3-[[(1R,4aR,7R)-1,4a,7-trimethyl-7-vinyl-3,4,6,8,8a,9,10,10a-octahydro-2H-phenanthren-1-yl]methoxy]-3-keto-propionic acid
> <PUBCHEM_IUPAC_INCHI>
InChI=1S/C23H34O4/c1-5-21(2)12-9-17-16(14-21)7-8-18-22(3,10-6-11-23(17,18)4)15-27-20(26)13-19(24)25/h5,9,16,18H,1,6-8,10-15H2,2-4H3,(H,24,25)/t16?,18?,21-,22+,23+/m1/s1
> <PUBCHEM_IUPAC_INCHIKEY>
ADRMEPMWXLEIKU-YVDDLQSZSA-N
> <PUBCHEM_XLOGP3_AA>
5.9
> <PUBCHEM_EXACT_MASS>
374.24570956
> <PUBCHEM_MOLECULAR_FORMULA>
C23H34O4
> <PUBCHEM_MOLECULAR_WEIGHT>
374.5
> <PUBCHEM_OPENEYE_CAN_SMILES>
CC1(CCCC2(C1CCC3C2=CCC(C3)(C)C=C)C)COC(=O)CC(=O)O
> <PUBCHEM_OPENEYE_ISO_SMILES>
C[C@]1(CCC[C@@]2(C1CCC3C2=CC[C@@](C3)(C)C=C)C)COC(=O)CC(=O)O
> <PUBCHEM_CACTVS_TPSA>
63.6
> <PUBCHEM_MONOISOTOPIC_WEIGHT>
374.24570956
> <PUBCHEM_TOTAL_CHARGE>
0
> <PUBCHEM_HEAVY_ATOM_COUNT>
27
> <PUBCHEM_ATOM_DEF_STEREO_COUNT>
3
> <PUBCHEM_ATOM_UDEF_STEREO_COUNT>
2
> <PUBCHEM_BOND_DEF_STEREO_COUNT>
0
> <PUBCHEM_BOND_UDEF_STEREO_COUNT>
0
> <PUBCHEM_ISOTOPIC_ATOM_COUNT>
0
> <PUBCHEM_COMPONENT_COUNT>
1
> <PUBCHEM_CACTVS_TAUTO_COUNT>
-1
> <PUBCHEM_COORDINATE_TYPE>
1
5
255
> <PUBCHEM_BONDANNOTATIONS>
17  22  6
5  16  6
6  10  3
7  19  5
9  13  3
$$$$
