510079
  -OEChem-10302200282D
 57 61  0     1  0  0  0  0  0999 V2000
    6.1724    0.2592    0.0000 O   0  0  0  0  0  0  0  0  0  0  0  0
    4.8633    1.2102    0.0000 O   0  0  0  0  0  0  0  0  0  0  0  0
    8.5914    2.8064    0.0000 O   0  0  0  0  0  0  0  0  0  0  0  0
    6.8972    3.1665    0.0000 O   0  0  0  0  0  0  0  0  0  0  0  0
    3.4782    0.6193    0.0000 N   0  0  0  0  0  0  0  0  0  0  0  0
    2.6691    2.0205    0.0000 N   0  0  0  0  0  0  0  0  0  0  0  0
    5.1724    0.2592    0.0000 C   0  0  1  0  0  0  0  0  0  0  0  0
    6.4814    1.2102    0.0000 C   0  0  2  0  0  0  0  0  0  0  0  0
    5.6724    1.7980    0.0000 C   0  0  0  0  0  0  0  0  0  0  0  0
    4.2213   -0.0499    0.0000 C   0  0  0  0  0  0  0  0  0  0  0  0
    5.1724   -0.7408    0.0000 C   0  0  0  0  0  0  0  0  0  0  0  0
    7.4324    1.5192    0.0000 C   0  0  0  0  0  0  0  0  0  0  0  0
    6.0384   -1.2408    0.0000 C   0  0  0  0  0  0  0  0  0  0  0  0
    4.3063   -1.2408    0.0000 C   0  0  0  0  0  0  0  0  0  0  0  0
    7.6403    2.4974    0.0000 C   0  0  0  0  0  0  0  0  0  0  0  0
    6.0384   -2.2408    0.0000 C   0  0  0  0  0  0  0  0  0  0  0  0
    4.3063   -2.2408    0.0000 C   0  0  0  0  0  0  0  0  0  0  0  0
    5.1724   -2.7408    0.0000 C   0  0  0  0  0  0  0  0  0  0  0  0
    2.5000    0.4114    0.0000 C   0  0  0  0  0  0  0  0  0  0  0  0
    3.5827    1.6138    0.0000 C   0  0  0  0  0  0  0  0  0  0  0  0
    2.0000    1.2774    0.0000 C   0  0  0  0  0  0  0  0  0  0  0  0
    5.1724   -3.7408    0.0000 C   0  0  0  0  0  0  0  0  0  0  0  0
    6.0384   -4.2408    0.0000 C   0  0  0  0  0  0  0  0  0  0  0  0
    4.3063   -4.2408    0.0000 C   0  0  0  0  0  0  0  0  0  0  0  0
    8.7993    3.7846    0.0000 C   0  0  0  0  0  0  0  0  0  0  0  0
    6.0384   -5.2408    0.0000 C   0  0  0  0  0  0  0  0  0  0  0  0
    4.3063   -5.2408    0.0000 C   0  0  0  0  0  0  0  0  0  0  0  0
    5.1724   -5.7408    0.0000 C   0  0  0  0  0  0  0  0  0  0  0  0
    8.0562    4.4537    0.0000 C   0  0  0  0  0  0  0  0  0  0  0  0
    9.7504    4.0936    0.0000 C   0  0  0  0  0  0  0  0  0  0  0  0
    8.2641    5.4318    0.0000 C   0  0  0  0  0  0  0  0  0  0  0  0
    9.9583    5.0717    0.0000 C   0  0  0  0  0  0  0  0  0  0  0  0
    9.2151    5.7408    0.0000 C   0  0  0  0  0  0  0  0  0  0  0  0
    6.9198    0.7718    0.0000 H   0  0  0  0  0  0  0  0  0  0  0  0
    6.0872    2.2588    0.0000 H   0  0  0  0  0  0  0  0  0  0  0  0
    5.2575    2.2588    0.0000 H   0  0  0  0  0  0  0  0  0  0  0  0
    3.7327   -0.4316    0.0000 H   0  0  0  0  0  0  0  0  0  0  0  0
    4.5124   -0.5973    0.0000 H   0  0  0  0  0  0  0  0  0  0  0  0
    7.5187    0.9053    0.0000 H   0  0  0  0  0  0  0  0  0  0  0  0
    8.0520    1.4976    0.0000 H   0  0  0  0  0  0  0  0  0  0  0  0
    6.5753   -0.9308    0.0000 H   0  0  0  0  0  0  0  0  0  0  0  0
    3.7694   -0.9308    0.0000 H   0  0  0  0  0  0  0  0  0  0  0  0
    6.5753   -2.5508    0.0000 H   0  0  0  0  0  0  0  0  0  0  0  0
    3.7694   -2.5508    0.0000 H   0  0  0  0  0  0  0  0  0  0  0  0
    2.2478   -0.1550    0.0000 H   0  0  0  0  0  0  0  0  0  0  0  0
    4.1196    1.9238    0.0000 H   0  0  0  0  0  0  0  0  0  0  0  0
    1.3834    1.3422    0.0000 H   0  0  0  0  0  0  0  0  0  0  0  0
    6.5753   -3.9308    0.0000 H   0  0  0  0  0  0  0  0  0  0  0  0
    3.7694   -3.9308    0.0000 H   0  0  0  0  0  0  0  0  0  0  0  0
    6.5753   -5.5508    0.0000 H   0  0  0  0  0  0  0  0  0  0  0  0
    3.7694   -5.5508    0.0000 H   0  0  0  0  0  0  0  0  0  0  0  0
    5.1724   -6.3608    0.0000 H   0  0  0  0  0  0  0  0  0  0  0  0
    7.4665    4.2621    0.0000 H   0  0  0  0  0  0  0  0  0  0  0  0
   10.2111    3.6787    0.0000 H   0  0  0  0  0  0  0  0  0  0  0  0
    7.8033    5.8467    0.0000 H   0  0  0  0  0  0  0  0  0  0  0  0
   10.5479    5.2633    0.0000 H   0  0  0  0  0  0  0  0  0  0  0  0
    9.3440    6.3473    0.0000 H   0  0  0  0  0  0  0  0  0  0  0  0
  1  7  1  0  0  0  0
  1  8  1  0  0  0  0
  2  7  1  0  0  0  0
  2  9  1  0  0  0  0
  3 15  1  0  0  0  0
  3 25  1  0  0  0  0
  4 15  2  0  0  0  0
  5 10  1  0  0  0  0
  5 19  1  0  0  0  0
  5 20  1  0  0  0  0
  6 20  2  0  0  0  0
  6 21  1  0  0  0  0
  7 10  1  6  0  0  0
  7 11  1  0  0  0  0
  8  9  1  0  0  0  0
  8 12  1  6  0  0  0
  8 34  1  0  0  0  0
  9 35  1  0  0  0  0
  9 36  1  0  0  0  0
 10 37  1  0  0  0  0
 10 38  1  0  0  0  0
 11 13  2  0  0  0  0
 11 14  1  0  0  0  0
 12 15  1  0  0  0  0
 12 39  1  0  0  0  0
 12 40  1  0  0  0  0
 13 16  1  0  0  0  0
 13 41  1  0  0  0  0
 14 17  2  0  0  0  0
 14 42  1  0  0  0  0
 16 18  2  0  0  0  0
 16 43  1  0  0  0  0
 17 18  1  0  0  0  0
 17 44  1  0  0  0  0
 18 22  1  0  0  0  0
 19 21  2  0  0  0  0
 19 45  1  0  0  0  0
 20 46  1  0  0  0  0
 21 47  1  0  0  0  0
 22 23  2  0  0  0  0
 22 24  1  0  0  0  0
 23 26  1  0  0  0  0
 23 48  1  0  0  0  0
 24 27  2  0  0  0  0
 24 49  1  0  0  0  0
 25 29  2  0  0  0  0
 25 30  1  0  0  0  0
 26 28  2  0  0  0  0
 26 50  1  0  0  0  0
 27 28  1  0  0  0  0
 27 51  1  0  0  0  0
 28 52  1  0  0  0  0
 29 31  1  0  0  0  0
 29 53  1  0  0  0  0
 30 32  2  0  0  0  0
 30 54  1  0  0  0  0
 31 33  2  0  0  0  0
 31 55  1  0  0  0  0
 32 33  1  0  0  0  0
 32 56  1  0  0  0  0
 33 57  1  0  0  0  0
M  END
> <PUBCHEM_COMPOUND_CID>
510079
> <PUBCHEM_COMPOUND_CANONICALIZED>
1
> <PUBCHEM_CACTVS_COMPLEXITY>
626
> <PUBCHEM_CACTVS_HBOND_ACCEPTOR>
5
> <PUBCHEM_CACTVS_HBOND_DONOR>
0
> <PUBCHEM_CACTVS_ROTATABLE_BOND>
8
> <PUBCHEM_CACTVS_SUBSKEYS>
AAADceB7OAAAAAAAAAAAAAAAAAAAAWJAAAAwYMAAAAAAAAAB1AAAHgAAAAAADBThmgY9npcMFACoAjD3bAACiC0xMqAJyAEeOIifbjaEuRu3OiCt4BOeqCfSwPAOwAAAAAAAAACAAAAAAAAAAAAAAAAAAA==
> <PUBCHEM_IUPAC_OPENEYE_NAME>
phenyl 2-[(2R,4S)-2-(imidazol-1-ylmethyl)-2-(4-phenylphenyl)-1,3-dioxolan-4-yl]acetate
> <PUBCHEM_IUPAC_CAS_NAME>
2-[(2R,4S)-2-(1-imidazolylmethyl)-2-(4-phenylphenyl)-1,3-dioxolan-4-yl]acetic acid phenyl ester
> <PUBCHEM_IUPAC_NAME_MARKUP>
phenyl 2-[(2<I>R</I>,4<I>S</I>)-2-(imidazol-1-ylmethyl)-2-(4-phenylphenyl)-1,3-dioxolan-4-yl]acetate
> <PUBCHEM_IUPAC_NAME>
phenyl 2-[(2R,4S)-2-(imidazol-1-ylmethyl)-2-(4-phenylphenyl)-1,3-dioxolan-4-yl]acetate
> <PUBCHEM_IUPAC_SYSTEMATIC_NAME>
phenyl 2-[(2R,4S)-2-(imidazol-1-ylmethyl)-2-(4-phenylphenyl)-1,3-dioxolan-4-yl]ethanoate
> <PUBCHEM_IUPAC_TRADITIONAL_NAME>
2-[(2R,4S)-2-(imidazol-1-ylmethyl)-2-(4-phenylphenyl)-1,3-dioxolan-4-yl]acetic acid phenyl ester
> <PUBCHEM_IUPAC_INCHI>
InChI=1S/C27H24N2O4/c30-26(32-24-9-5-2-6-10-24)17-25-18-31-27(33-25,19-29-16-15-28-20-29)23-13-11-22(12-14-23)21-7-3-1-4-8-21/h1-16,20,25H,17-19H2/t25-,27-/m0/s1
> <PUBCHEM_IUPAC_INCHIKEY>
ZBPKYNOYYMRIMQ-BDYUSTAISA-N
> <PUBCHEM_XLOGP3_AA>
3.9
> <PUBCHEM_EXACT_MASS>
440.17360725
> <PUBCHEM_MOLECULAR_FORMULA>
C27H24N2O4
> <PUBCHEM_MOLECULAR_WEIGHT>
440.5
> <PUBCHEM_OPENEYE_CAN_SMILES>
C1C(OC(O1)(CN2C=CN=C2)C3=CC=C(C=C3)C4=CC=CC=C4)CC(=O)OC5=CC=CC=C5
> <PUBCHEM_OPENEYE_ISO_SMILES>
C1[C@@H](O[C@@](O1)(CN2C=CN=C2)C3=CC=C(C=C3)C4=CC=CC=C4)CC(=O)OC5=CC=CC=C5
> <PUBCHEM_CACTVS_TPSA>
62.6
> <PUBCHEM_MONOISOTOPIC_WEIGHT>
440.17360725
> <PUBCHEM_TOTAL_CHARGE>
0
> <PUBCHEM_HEAVY_ATOM_COUNT>
33
> <PUBCHEM_ATOM_DEF_STEREO_COUNT>
2
> <PUBCHEM_ATOM_UDEF_STEREO_COUNT>
0
> <PUBCHEM_BOND_DEF_STEREO_COUNT>
0
> <PUBCHEM_BOND_UDEF_STEREO_COUNT>
0
> <PUBCHEM_ISOTOPIC_ATOM_COUNT>
0
> <PUBCHEM_COMPONENT_COUNT>
1
> <PUBCHEM_CACTVS_TAUTO_COUNT>
-1
> <PUBCHEM_COORDINATE_TYPE>
1
5
255
> <PUBCHEM_BONDANNOTATIONS>
11  13  8
11  14  8
13  16  8
14  17  8
16  18  8
17  18  8
19  21  8
22  23  8
22  24  8
23  26  8
24  27  8
25  29  8
25  30  8
26  28  8
27  28  8
29  31  8
30  32  8
31  33  8
32  33  8
5  19  8
5  20  8
6  20  8
6  21  8
7  10  6
8  12  6
$$$$
