510091
  -OEChem-10302200282D
 64 66  0     1  0  0  0  0  0999 V2000
    5.4697   -1.5300    0.0000 O   0  0  0  0  0  0  0  0  0  0  0  0
    5.4898   -3.2620    0.0000 O   0  0  0  0  0  0  0  0  0  0  0  0
    2.4900   -3.2967    0.0000 O   0  0  0  0  0  0  0  0  0  0  0  0
    3.9999   -4.1453    0.0000 O   0  0  0  0  0  0  0  0  0  0  0  0
    7.8536    0.8879    0.0000 C   0  0  2  0  0  0  0  0  0  0  0  0
    7.8536   -0.1121    0.0000 C   0  0  3  0  0  0  0  0  0  0  0  0
    6.9596   -0.6467    0.0000 C   0  0  1  0  0  0  0  0  0  0  0  0
    8.7196    1.3879    0.0000 C   0  0  0  0  0  0  0  0  0  0  0  0
    6.9596    1.4226    0.0000 C   0  0  0  0  0  0  0  0  0  0  0  0
    8.7196   -0.6121    0.0000 C   0  0  0  0  0  0  0  0  0  0  0  0
    6.0535   -0.1329    0.0000 C   0  0  0  0  0  0  0  0  0  0  0  0
    6.0535    0.9087    0.0000 C   0  0  0  0  0  0  0  0  0  0  0  0
    9.5856    0.8879    0.0000 C   0  0  0  0  0  0  0  0  0  0  0  0
    9.5856   -0.1121    0.0000 C   0  0  0  0  0  0  0  0  0  0  0  0
    7.8536    1.8879    0.0000 C   0  0  0  0  0  0  0  0  0  0  0  0
    8.7035    2.4294    0.0000 C   0  0  0  0  0  0  0  0  0  0  0  0
    6.4697   -1.5185    0.0000 C   0  0  0  0  0  0  0  0  0  0  0  0
   10.4956    1.3948    0.0000 C   0  0  0  0  0  0  0  0  0  0  0  0
   10.5036    2.4364    0.0000 C   0  0  2  0  0  0  0  0  0  0  0  0
    7.4696   -1.5069    0.0000 C   0  0  0  0  0  0  0  0  0  0  0  0
    9.6016    2.9572    0.0000 C   0  0  0  0  0  0  0  0  0  0  0  0
   11.5036    2.4325    0.0000 C   0  0  0  0  0  0  0  0  0  0  0  0
   11.0070    3.3005    0.0000 C   0  0  0  0  0  0  0  0  0  0  0  0
   10.5103    4.1684    0.0000 C   0  0  0  0  0  0  0  0  0  0  0  0
    4.9798   -2.4018    0.0000 C   0  0  0  0  0  0  0  0  0  0  0  0
    3.9798   -2.4134    0.0000 C   0  0  0  0  0  0  0  0  0  0  0  0
    3.4899   -3.2851    0.0000 C   0  0  0  0  0  0  0  0  0  0  0  0
    2.0000   -4.1684    0.0000 C   0  0  0  0  0  0  0  0  0  0  0  0
    7.8583   -0.7320    0.0000 H   0  0  0  0  0  0  0  0  0  0  0  0
    7.3642    1.8924    0.0000 H   0  0  0  0  0  0  0  0  0  0  0  0
    6.5660    1.9016    0.0000 H   0  0  0  0  0  0  0  0  0  0  0  0
    8.3210   -1.0870    0.0000 H   0  0  0  0  0  0  0  0  0  0  0  0
    9.1181   -1.0870    0.0000 H   0  0  0  0  0  0  0  0  0  0  0  0
    5.4427   -0.0268    0.0000 H   0  0  0  0  0  0  0  0  0  0  0  0
    5.8445   -0.7166    0.0000 H   0  0  0  0  0  0  0  0  0  0  0  0
    5.8445    1.4924    0.0000 H   0  0  0  0  0  0  0  0  0  0  0  0
    5.4427    0.8027    0.0000 H   0  0  0  0  0  0  0  0  0  0  0  0
    9.7977   -0.6947    0.0000 H   0  0  0  0  0  0  0  0  0  0  0  0
   10.1962   -0.0044    0.0000 H   0  0  0  0  0  0  0  0  0  0  0  0
    8.4736    1.8879    0.0000 H   0  0  0  0  0  0  0  0  0  0  0  0
    7.8536    2.5079    0.0000 H   0  0  0  0  0  0  0  0  0  0  0  0
    7.2336    1.8879    0.0000 H   0  0  0  0  0  0  0  0  0  0  0  0
    8.4855    3.0098    0.0000 H   0  0  0  0  0  0  0  0  0  0  0  0
    8.0944    2.3139    0.0000 H   0  0  0  0  0  0  0  0  0  0  0  0
    6.3691   -2.1303    0.0000 H   0  0  0  0  0  0  0  0  0  0  0  0
    7.0547   -1.7238    0.0000 H   0  0  0  0  0  0  0  0  0  0  0  0
   10.7002    0.8095    0.0000 H   0  0  0  0  0  0  0  0  0  0  0  0
   11.1073    1.4962    0.0000 H   0  0  0  0  0  0  0  0  0  0  0  0
    6.9363   -1.8231    0.0000 H   0  0  0  0  0  0  0  0  0  0  0  0
    7.7858   -2.0402    0.0000 H   0  0  0  0  0  0  0  0  0  0  0  0
    8.0029   -1.1907    0.0000 H   0  0  0  0  0  0  0  0  0  0  0  0
    9.9989    3.4332    0.0000 H   0  0  0  0  0  0  0  0  0  0  0  0
    9.2006    3.4301    0.0000 H   0  0  0  0  0  0  0  0  0  0  0  0
   11.5012    1.8125    0.0000 H   0  0  0  0  0  0  0  0  0  0  0  0
   12.1236    2.4301    0.0000 H   0  0  0  0  0  0  0  0  0  0  0  0
   11.5060    3.0525    0.0000 H   0  0  0  0  0  0  0  0  0  0  0  0
   11.6270    3.2981    0.0000 H   0  0  0  0  0  0  0  0  0  0  0  0
   10.8224    4.7042    0.0000 H   0  0  0  0  0  0  0  0  0  0  0  0
    9.8903    4.1708    0.0000 H   0  0  0  0  0  0  0  0  0  0  0  0
    4.0804   -1.8016    0.0000 H   0  0  0  0  0  0  0  0  0  0  0  0
    3.3948   -2.2080    0.0000 H   0  0  0  0  0  0  0  0  0  0  0  0
    1.4595   -3.8646    0.0000 H   0  0  0  0  0  0  0  0  0  0  0  0
    1.6962   -4.7089    0.0000 H   0  0  0  0  0  0  0  0  0  0  0  0
    2.5405   -4.4722    0.0000 H   0  0  0  0  0  0  0  0  0  0  0  0
  1 17  1  0  0  0  0
  1 25  1  0  0  0  0
  2 25  2  0  0  0  0
  3 27  1  0  0  0  0
  3 28  1  0  0  0  0
  4 27  2  0  0  0  0
  5  6  1  0  0  0  0
  5  8  1  0  0  0  0
  5  9  1  0  0  0  0
  5 15  1  6  0  0  0
  6  7  1  0  0  0  0
  6 10  1  0  0  0  0
  6 29  1  0  0  0  0
  7 11  1  0  0  0  0
  7 17  1  0  0  0  0
  7 20  1  1  0  0  0
  8 13  2  0  0  0  0
  8 16  1  0  0  0  0
  9 12  1  0  0  0  0
  9 30  1  0  0  0  0
  9 31  1  0  0  0  0
 10 14  1  0  0  0  0
 10 32  1  0  0  0  0
 10 33  1  0  0  0  0
 11 12  1  0  0  0  0
 11 34  1  0  0  0  0
 11 35  1  0  0  0  0
 12 36  1  0  0  0  0
 12 37  1  0  0  0  0
 13 14  1  0  0  0  0
 13 18  1  0  0  0  0
 14 38  1  0  0  0  0
 14 39  1  0  0  0  0
 15 40  1  0  0  0  0
 15 41  1  0  0  0  0
 15 42  1  0  0  0  0
 16 21  1  0  0  0  0
 16 43  1  0  0  0  0
 16 44  1  0  0  0  0
 17 45  1  0  0  0  0
 17 46  1  0  0  0  0
 18 19  1  0  0  0  0
 18 47  1  0  0  0  0
 18 48  1  0  0  0  0
 19 21  1  0  0  0  0
 19 22  1  6  0  0  0
 19 23  1  0  0  0  0
 20 49  1  0  0  0  0
 20 50  1  0  0  0  0
 20 51  1  0  0  0  0
 21 52  1  0  0  0  0
 21 53  1  0  0  0  0
 22 54  1  0  0  0  0
 22 55  1  0  0  0  0
 22 56  1  0  0  0  0
 23 24  2  0  0  0  0
 23 57  1  0  0  0  0
 24 58  1  0  0  0  0
 24 59  1  0  0  0  0
 25 26  1  0  0  0  0
 26 27  1  0  0  0  0
 26 60  1  0  0  0  0
 26 61  1  0  0  0  0
 28 62  1  0  0  0  0
 28 63  1  0  0  0  0
 28 64  1  0  0  0  0
M  END
> <PUBCHEM_COMPOUND_CID>
510091
> <PUBCHEM_COMPOUND_CANONICALIZED>
1
> <PUBCHEM_CACTVS_COMPLEXITY>
693
> <PUBCHEM_CACTVS_HBOND_ACCEPTOR>
4
> <PUBCHEM_CACTVS_HBOND_DONOR>
0
> <PUBCHEM_CACTVS_ROTATABLE_BOND>
7
> <PUBCHEM_CACTVS_SUBSKEYS>
AAADcfB4OAAAAAAAAAAAAAAAAAAAAAAAAAAwQIAAAAAAAADAAAAAGgAAAAAADwCggAICCAAABACIAiDSCAAAAAAgAAAICAEAAAgAAAYIAAACAAAFoAAIAAOAwOAPgAAAAAAAAAAAAAQAACAAAAAAAAAAAA==
> <PUBCHEM_IUPAC_OPENEYE_NAME>
O3-[[(1R,4aR,7R)-1,4a,7-trimethyl-7-vinyl-3,4,5,6,8,9,10,10a-octahydro-2H-phenanthren-1-yl]methyl] O1-methyl propanedioate
> <PUBCHEM_IUPAC_CAS_NAME>
propanedioic acid O3-[[(1R,4aR,7R)-7-ethenyl-1,4a,7-trimethyl-3,4,5,6,8,9,10,10a-octahydro-2H-phenanthren-1-yl]methyl] ester O1-methyl ester
> <PUBCHEM_IUPAC_NAME_MARKUP>
3-<I>O</I>-[[(1<I>R</I>,4<I>a</I><I>R</I>,7<I>R</I>)-7-ethenyl-1,4<I>a</I>,7-trimethyl-3,4,5,6,8,9,10,10<I>a</I>-octahydro-2<I>H</I>-phenanthren-1-yl]methyl] 1-<I>O</I>-methyl propanedioate
> <PUBCHEM_IUPAC_NAME>
3-O-[[(1R,4aR,7R)-7-ethenyl-1,4a,7-trimethyl-3,4,5,6,8,9,10,10a-octahydro-2H-phenanthren-1-yl]methyl] 1-O-methyl propanedioate
> <PUBCHEM_IUPAC_SYSTEMATIC_NAME>
O3-[[(1R,4aR,7R)-7-ethenyl-1,4a,7-trimethyl-3,4,5,6,8,9,10,10a-octahydro-2H-phenanthren-1-yl]methyl] O1-methyl propanedioate
> <PUBCHEM_IUPAC_TRADITIONAL_NAME>
malonic acid O3-[[(1R,4aR,7R)-1,4a,7-trimethyl-7-vinyl-3,4,5,6,8,9,10,10a-octahydro-2H-phenanthren-1-yl]methyl] ester O1-methyl ester
> <PUBCHEM_IUPAC_INCHI>
InChI=1S/C24H36O4/c1-6-22(2)13-10-18-17(15-22)8-9-19-23(3,11-7-12-24(18,19)4)16-28-21(26)14-20(25)27-5/h6,19H,1,7-16H2,2-5H3/t19?,22-,23+,24+/m1/s1
> <PUBCHEM_IUPAC_INCHIKEY>
ALDRNKFKKDHRPU-BSAJRSAISA-N
> <PUBCHEM_XLOGP3_AA>
5.7
> <PUBCHEM_EXACT_MASS>
388.26135963
> <PUBCHEM_MOLECULAR_FORMULA>
C24H36O4
> <PUBCHEM_MOLECULAR_WEIGHT>
388.5
> <PUBCHEM_OPENEYE_CAN_SMILES>
CC1(CCC2=C(C1)CCC3C2(CCCC3(C)COC(=O)CC(=O)OC)C)C=C
> <PUBCHEM_OPENEYE_ISO_SMILES>
C[C@]1(CCC2=C(C1)CCC3[C@]2(CCC[C@@]3(C)COC(=O)CC(=O)OC)C)C=C
> <PUBCHEM_CACTVS_TPSA>
52.6
> <PUBCHEM_MONOISOTOPIC_WEIGHT>
388.26135963
> <PUBCHEM_TOTAL_CHARGE>
0
> <PUBCHEM_HEAVY_ATOM_COUNT>
28
> <PUBCHEM_ATOM_DEF_STEREO_COUNT>
3
> <PUBCHEM_ATOM_UDEF_STEREO_COUNT>
1
> <PUBCHEM_BOND_DEF_STEREO_COUNT>
0
> <PUBCHEM_BOND_UDEF_STEREO_COUNT>
0
> <PUBCHEM_ISOTOPIC_ATOM_COUNT>
0
> <PUBCHEM_COMPONENT_COUNT>
1
> <PUBCHEM_CACTVS_TAUTO_COUNT>
-1
> <PUBCHEM_COORDINATE_TYPE>
1
5
255
> <PUBCHEM_BONDANNOTATIONS>
19  22  6
5  15  6
6  10  3
7  20  5
$$$$
