510040
  -OEChem-10302200282D
 48 51  0     1  0  0  0  0  0999 V2000
    5.4641   -2.9806    0.0000 N   0  0  0  0  0  0  0  0  0  0  0  0
    5.9641   -4.5194    0.0000 N   0  0  0  0  0  0  0  0  0  0  0  0
    5.4641   -1.9806    0.0000 C   0  0  3  0  0  0  0  0  0  0  0  0
    6.3301   -1.4806    0.0000 C   0  0  0  0  0  0  0  0  0  0  0  0
    4.5981   -1.4806    0.0000 C   0  0  0  0  0  0  0  0  0  0  0  0
    6.3301   -0.4806    0.0000 C   0  0  0  0  0  0  0  0  0  0  0  0
    3.7320   -1.9806    0.0000 C   0  0  0  0  0  0  0  0  0  0  0  0
    4.6551   -3.5684    0.0000 C   0  0  0  0  0  0  0  0  0  0  0  0
    6.2731   -3.5684    0.0000 C   0  0  0  0  0  0  0  0  0  0  0  0
    5.4641    0.0194    0.0000 C   0  0  0  0  0  0  0  0  0  0  0  0
    7.1962    0.0194    0.0000 C   0  0  0  0  0  0  0  0  0  0  0  0
    3.7320   -2.9806    0.0000 C   0  0  0  0  0  0  0  0  0  0  0  0
    2.8660   -1.4806    0.0000 C   0  0  0  0  0  0  0  0  0  0  0  0
    6.3301    1.5194    0.0000 C   0  0  0  0  0  0  0  0  0  0  0  0
    5.4641    1.0194    0.0000 C   0  0  0  0  0  0  0  0  0  0  0  0
    7.1962    1.0194    0.0000 C   0  0  0  0  0  0  0  0  0  0  0  0
    4.9641   -4.5194    0.0000 C   0  0  0  0  0  0  0  0  0  0  0  0
    6.3301    2.5194    0.0000 C   0  0  0  0  0  0  0  0  0  0  0  0
    2.8660   -3.4806    0.0000 C   0  0  0  0  0  0  0  0  0  0  0  0
    2.0000   -1.9806    0.0000 C   0  0  0  0  0  0  0  0  0  0  0  0
    2.0000   -2.9806    0.0000 C   0  0  0  0  0  0  0  0  0  0  0  0
    5.4641    3.0194    0.0000 C   0  0  0  0  0  0  0  0  0  0  0  0
    7.1962    3.0194    0.0000 C   0  0  0  0  0  0  0  0  0  0  0  0
    5.4641    4.0194    0.0000 C   0  0  0  0  0  0  0  0  0  0  0  0
    7.1962    4.0194    0.0000 C   0  0  0  0  0  0  0  0  0  0  0  0
    6.3301    4.5194    0.0000 C   0  0  0  0  0  0  0  0  0  0  0  0
    6.0010   -2.2906    0.0000 H   0  0  0  0  0  0  0  0  0  0  0  0
    6.5422   -2.0632    0.0000 H   0  0  0  0  0  0  0  0  0  0  0  0
    6.9407   -1.3729    0.0000 H   0  0  0  0  0  0  0  0  0  0  0  0
    4.9966   -1.0056    0.0000 H   0  0  0  0  0  0  0  0  0  0  0  0
    4.1996   -1.0056    0.0000 H   0  0  0  0  0  0  0  0  0  0  0  0
    4.0654   -3.3768    0.0000 H   0  0  0  0  0  0  0  0  0  0  0  0
    6.8628   -3.3768    0.0000 H   0  0  0  0  0  0  0  0  0  0  0  0
    4.9272   -0.2906    0.0000 H   0  0  0  0  0  0  0  0  0  0  0  0
    7.7331   -0.2906    0.0000 H   0  0  0  0  0  0  0  0  0  0  0  0
    4.2690   -3.2906    0.0000 H   0  0  0  0  0  0  0  0  0  0  0  0
    2.8660   -0.8606    0.0000 H   0  0  0  0  0  0  0  0  0  0  0  0
    4.9272    1.3294    0.0000 H   0  0  0  0  0  0  0  0  0  0  0  0
    7.7331    1.3294    0.0000 H   0  0  0  0  0  0  0  0  0  0  0  0
    4.5997   -5.0210    0.0000 H   0  0  0  0  0  0  0  0  0  0  0  0
    2.8660   -4.1006    0.0000 H   0  0  0  0  0  0  0  0  0  0  0  0
    1.4631   -1.6706    0.0000 H   0  0  0  0  0  0  0  0  0  0  0  0
    1.4631   -3.2906    0.0000 H   0  0  0  0  0  0  0  0  0  0  0  0
    4.9272    2.7094    0.0000 H   0  0  0  0  0  0  0  0  0  0  0  0
    7.7331    2.7094    0.0000 H   0  0  0  0  0  0  0  0  0  0  0  0
    4.9272    4.3294    0.0000 H   0  0  0  0  0  0  0  0  0  0  0  0
    7.7331    4.3294    0.0000 H   0  0  0  0  0  0  0  0  0  0  0  0
    6.3301    5.1394    0.0000 H   0  0  0  0  0  0  0  0  0  0  0  0
  1  3  1  0  0  0  0
  1  8  1  0  0  0  0
  1  9  1  0  0  0  0
  2  9  2  0  0  0  0
  2 17  1  0  0  0  0
  3  4  1  0  0  0  0
  3  5  1  0  0  0  0
  3 27  1  0  0  0  0
  4  6  1  0  0  0  0
  4 28  1  0  0  0  0
  4 29  1  0  0  0  0
  5  7  1  0  0  0  0
  5 30  1  0  0  0  0
  5 31  1  0  0  0  0
  6 10  2  0  0  0  0
  6 11  1  0  0  0  0
  7 12  2  0  0  0  0
  7 13  1  0  0  0  0
  8 17  2  0  0  0  0
  8 32  1  0  0  0  0
  9 33  1  0  0  0  0
 10 15  1  0  0  0  0
 10 34  1  0  0  0  0
 11 16  2  0  0  0  0
 11 35  1  0  0  0  0
 12 19  1  0  0  0  0
 12 36  1  0  0  0  0
 13 20  2  0  0  0  0
 13 37  1  0  0  0  0
 14 15  2  0  0  0  0
 14 16  1  0  0  0  0
 14 18  1  0  0  0  0
 15 38  1  0  0  0  0
 16 39  1  0  0  0  0
 17 40  1  0  0  0  0
 18 22  2  0  0  0  0
 18 23  1  0  0  0  0
 19 21  2  0  0  0  0
 19 41  1  0  0  0  0
 20 21  1  0  0  0  0
 20 42  1  0  0  0  0
 21 43  1  0  0  0  0
 22 24  1  0  0  0  0
 22 44  1  0  0  0  0
 23 25  2  0  0  0  0
 23 45  1  0  0  0  0
 24 26  2  0  0  0  0
 24 46  1  0  0  0  0
 25 26  1  0  0  0  0
 25 47  1  0  0  0  0
 26 48  1  0  0  0  0
M  END
> <PUBCHEM_COMPOUND_CID>
510040
> <PUBCHEM_COMPOUND_CANONICALIZED>
1
> <PUBCHEM_CACTVS_COMPLEXITY>
389
> <PUBCHEM_CACTVS_HBOND_ACCEPTOR>
1
> <PUBCHEM_CACTVS_HBOND_DONOR>
0
> <PUBCHEM_CACTVS_ROTATABLE_BOND>
6
> <PUBCHEM_CACTVS_SUBSKEYS>
AAADceB7AAAAAAAAAAAAAAAAAAAAAWAAAAAwYMAAAAAAAAAB1AAAHAAAAAAADCjBGgQ9kJcMEACgAjBnZAACgC0xEqAJyAAYMIiIaCKAmRGUIAAogAKIiCcQgMAOwAAAAAAAAACAAAAAAAAAAAAAAAAAAA==
> <PUBCHEM_IUPAC_OPENEYE_NAME>
1-[1-benzyl-2-(4-phenylphenyl)ethyl]imidazole
> <PUBCHEM_IUPAC_CAS_NAME>
1-[1-phenyl-3-(4-phenylphenyl)propan-2-yl]imidazole
> <PUBCHEM_IUPAC_NAME_MARKUP>
1-[1-phenyl-3-(4-phenylphenyl)propan-2-yl]imidazole
> <PUBCHEM_IUPAC_NAME>
1-[1-phenyl-3-(4-phenylphenyl)propan-2-yl]imidazole
> <PUBCHEM_IUPAC_SYSTEMATIC_NAME>
1-[1-phenyl-3-(4-phenylphenyl)propan-2-yl]imidazole
> <PUBCHEM_IUPAC_TRADITIONAL_NAME>
1-[1-benzyl-2-(4-phenylphenyl)ethyl]imidazole
> <PUBCHEM_IUPAC_INCHI>
InChI=1S/C24H22N2/c1-3-7-20(8-4-1)17-24(26-16-15-25-19-26)18-21-11-13-23(14-12-21)22-9-5-2-6-10-22/h1-16,19,24H,17-18H2
> <PUBCHEM_IUPAC_INCHIKEY>
BHZGAVDQPKAVLD-UHFFFAOYSA-N
> <PUBCHEM_XLOGP3>
5.4
> <PUBCHEM_EXACT_MASS>
338.178298710
> <PUBCHEM_MOLECULAR_FORMULA>
C24H22N2
> <PUBCHEM_MOLECULAR_WEIGHT>
338.4
> <PUBCHEM_OPENEYE_CAN_SMILES>
C1=CC=C(C=C1)CC(CC2=CC=C(C=C2)C3=CC=CC=C3)N4C=CN=C4
> <PUBCHEM_OPENEYE_ISO_SMILES>
C1=CC=C(C=C1)CC(CC2=CC=C(C=C2)C3=CC=CC=C3)N4C=CN=C4
> <PUBCHEM_CACTVS_TPSA>
17.8
> <PUBCHEM_MONOISOTOPIC_WEIGHT>
338.178298710
> <PUBCHEM_TOTAL_CHARGE>
0
> <PUBCHEM_HEAVY_ATOM_COUNT>
26
> <PUBCHEM_ATOM_DEF_STEREO_COUNT>
0
> <PUBCHEM_ATOM_UDEF_STEREO_COUNT>
1
> <PUBCHEM_BOND_DEF_STEREO_COUNT>
0
> <PUBCHEM_BOND_UDEF_STEREO_COUNT>
0
> <PUBCHEM_ISOTOPIC_ATOM_COUNT>
0
> <PUBCHEM_COMPONENT_COUNT>
1
> <PUBCHEM_CACTVS_TAUTO_COUNT>
-1
> <PUBCHEM_COORDINATE_TYPE>
1
5
255
> <PUBCHEM_BONDANNOTATIONS>
1  8  8
1  9  8
10  15  8
11  16  8
12  19  8
13  20  8
14  15  8
14  16  8
18  22  8
18  23  8
19  21  8
2  17  8
2  9  8
20  21  8
22  24  8
23  25  8
24  26  8
25  26  8
3  5  3
6  10  8
6  11  8
7  12  8
7  13  8
8  17  8
$$$$
