510096
  -OEChem-10302200282D
 78 82  0     1  0  0  0  0  0999 V2000
    2.5357   -2.5933    0.0000 O   0  0  0  0  0  0  0  0  0  0  0  0
   11.4608    0.4932    0.0000 O   0  0  0  0  0  0  0  0  0  0  0  0
   10.6064   -1.0134    0.0000 O   0  0  0  0  0  0  0  0  0  0  0  0
    7.0628   -1.0410    0.0000 C   0  0  2  0  0  0  0  0  0  0  0  0
    5.2868   -1.0478    0.0000 C   0  0  2  0  0  0  0  0  0  0  0  0
    6.1968   -0.5410    0.0000 C   0  0  3  0  0  0  0  0  0  0  0  0
    5.2787   -2.0894    0.0000 C   0  0  3  0  0  0  0  0  0  0  0  0
    7.9288   -0.5410    0.0000 C   0  0  3  0  0  0  0  0  0  0  0  0
    7.0789   -2.0825    0.0000 C   0  0  0  0  0  0  0  0  0  0  0  0
    4.3433   -2.6391    0.0000 C   0  0  0  0  0  0  0  0  0  0  0  0
    6.1808   -2.6102    0.0000 C   0  0  0  0  0  0  0  0  0  0  0  0
    4.3599   -0.4837    0.0000 C   0  0  0  0  0  0  0  0  0  0  0  0
    7.9288    0.4590    0.0000 C   0  0  0  0  0  0  0  0  0  0  0  0
    6.1968    0.4590    0.0000 C   0  0  0  0  0  0  0  0  0  0  0  0
    8.8228    0.9937    0.0000 C   0  0  3  0  0  0  0  0  0  0  0  0
    9.7288    0.4799    0.0000 C   0  0  1  0  0  0  0  0  0  0  0  0
    8.8228   -1.0756    0.0000 C   0  0  0  0  0  0  0  0  0  0  0  0
    3.4037   -2.0966    0.0000 C   0  0  1  0  0  0  0  0  0  0  0  0
    7.9288   -1.5410    0.0000 C   0  0  0  0  0  0  0  0  0  0  0  0
    5.2945   -0.0478    0.0000 C   0  0  0  0  0  0  0  0  0  0  0  0
    3.4120   -1.0117    0.0000 C   0  0  0  0  0  0  0  0  0  0  0  0
    9.7288   -0.5618    0.0000 C   0  0  0  0  0  0  0  0  0  0  0  0
    7.0628    0.9590    0.0000 C   0  0  0  0  0  0  0  0  0  0  0  0
    8.7977    2.0784    0.0000 C   0  0  0  0  0  0  0  0  0  0  0  0
   10.6726    1.0151    0.0000 C   0  0  0  0  0  0  0  0  0  0  0  0
    9.7288    2.6353    0.0000 C   0  0  0  0  0  0  0  0  0  0  0  0
    3.8467   -3.5071    0.0000 C   0  0  0  0  0  0  0  0  0  0  0  0
    4.8466   -3.5032    0.0000 C   0  0  0  0  0  0  0  0  0  0  0  0
   10.6726    2.1001    0.0000 C   0  0  0  0  0  0  0  0  0  0  0  0
   10.5987   -0.0135    0.0000 C   0  0  0  0  0  0  0  0  0  0  0  0
   10.2188    3.5071    0.0000 C   0  0  0  0  0  0  0  0  0  0  0  0
    9.2188    3.4955    0.0000 C   0  0  0  0  0  0  0  0  0  0  0  0
    6.7337   -0.2310    0.0000 H   0  0  0  0  0  0  0  0  0  0  0  0
    5.2811   -2.7094    0.0000 H   0  0  0  0  0  0  0  0  0  0  0  0
    8.4681   -0.2351    0.0000 H   0  0  0  0  0  0  0  0  0  0  0  0
    7.2969   -2.6629    0.0000 H   0  0  0  0  0  0  0  0  0  0  0  0
    7.6880   -1.9670    0.0000 H   0  0  0  0  0  0  0  0  0  0  0  0
    5.7835   -3.0862    0.0000 H   0  0  0  0  0  0  0  0  0  0  0  0
    6.5818   -3.0831    0.0000 H   0  0  0  0  0  0  0  0  0  0  0  0
    4.7681   -0.0171    0.0000 H   0  0  0  0  0  0  0  0  0  0  0  0
    3.9700   -0.0017    0.0000 H   0  0  0  0  0  0  0  0  0  0  0  0
    5.9847    1.0416    0.0000 H   0  0  0  0  0  0  0  0  0  0  0  0
    5.5862    0.3514    0.0000 H   0  0  0  0  0  0  0  0  0  0  0  0
    9.3549    1.3119    0.0000 H   0  0  0  0  0  0  0  0  0  0  0  0
    8.4182   -1.5454    0.0000 H   0  0  0  0  0  0  0  0  0  0  0  0
    9.2164   -1.5546    0.0000 H   0  0  0  0  0  0  0  0  0  0  0  0
    3.4025   -2.7166    0.0000 H   0  0  0  0  0  0  0  0  0  0  0  0
    7.6188   -2.0779    0.0000 H   0  0  0  0  0  0  0  0  0  0  0  0
    8.4658   -1.8510    0.0000 H   0  0  0  0  0  0  0  0  0  0  0  0
    8.2388   -1.0040    0.0000 H   0  0  0  0  0  0  0  0  0  0  0  0
    5.9145   -0.0526    0.0000 H   0  0  0  0  0  0  0  0  0  0  0  0
    5.2993    0.5721    0.0000 H   0  0  0  0  0  0  0  0  0  0  0  0
    4.6745   -0.0431    0.0000 H   0  0  0  0  0  0  0  0  0  0  0  0
    3.2075   -0.4264    0.0000 H   0  0  0  0  0  0  0  0  0  0  0  0
    2.8004   -1.1131    0.0000 H   0  0  0  0  0  0  0  0  0  0  0  0
    9.9379   -1.1455    0.0000 H   0  0  0  0  0  0  0  0  0  0  0  0
   10.3397   -0.4557    0.0000 H   0  0  0  0  0  0  0  0  0  0  0  0
    7.0628    1.5790    0.0000 H   0  0  0  0  0  0  0  0  0  0  0  0
    8.5752    2.6571    0.0000 H   0  0  0  0  0  0  0  0  0  0  0  0
    8.1894    1.9582    0.0000 H   0  0  0  0  0  0  0  0  0  0  0  0
   10.8817    0.4314    0.0000 H   0  0  0  0  0  0  0  0  0  0  0  0
   11.2835    1.1212    0.0000 H   0  0  0  0  0  0  0  0  0  0  0  0
    3.3085   -3.1992    0.0000 H   0  0  0  0  0  0  0  0  0  0  0  0
    3.5387   -4.0452    0.0000 H   0  0  0  0  0  0  0  0  0  0  0  0
    4.3848   -3.8150    0.0000 H   0  0  0  0  0  0  0  0  0  0  0  0
    4.3109   -3.8153    0.0000 H   0  0  0  0  0  0  0  0  0  0  0  0
    5.1587   -4.0390    0.0000 H   0  0  0  0  0  0  0  0  0  0  0  0
    5.3824   -3.1912    0.0000 H   0  0  0  0  0  0  0  0  0  0  0  0
   11.2835    1.9940    0.0000 H   0  0  0  0  0  0  0  0  0  0  0  0
   10.8817    2.6838    0.0000 H   0  0  0  0  0  0  0  0  0  0  0  0
    2.0000   -2.2812    0.0000 H   0  0  0  0  0  0  0  0  0  0  0  0
   10.7593    3.2033    0.0000 H   0  0  0  0  0  0  0  0  0  0  0  0
   10.5226    4.0476    0.0000 H   0  0  0  0  0  0  0  0  0  0  0  0
    9.6783    3.8108    0.0000 H   0  0  0  0  0  0  0  0  0  0  0  0
    9.7522    3.8117    0.0000 H   0  0  0  0  0  0  0  0  0  0  0  0
    8.9027    4.0288    0.0000 H   0  0  0  0  0  0  0  0  0  0  0  0
    8.6855    3.1793    0.0000 H   0  0  0  0  0  0  0  0  0  0  0  0
   12.0001    0.1874    0.0000 H   0  0  0  0  0  0  0  0  0  0  0  0
 18  1  1  6  0  0  0
  1 71  1  0  0  0  0
  2 30  1  0  0  0  0
  2 78  1  0  0  0  0
  3 30  2  0  0  0  0
  4  6  1  0  0  0  0
  4  8  1  0  0  0  0
  4  9  1  0  0  0  0
  4 19  1  1  0  0  0
  5  6  1  0  0  0  0
  5  7  1  0  0  0  0
  5 12  1  0  0  0  0
  5 20  1  1  0  0  0
  6 14  1  0  0  0  0
  6 33  1  0  0  0  0
  7 10  1  0  0  0  0
  7 11  1  0  0  0  0
  7 34  1  0  0  0  0
  8 13  1  0  0  0  0
  8 17  1  0  0  0  0
  8 35  1  0  0  0  0
  9 11  1  0  0  0  0
  9 36  1  0  0  0  0
  9 37  1  0  0  0  0
 10 18  1  0  0  0  0
 10 27  1  0  0  0  0
 10 28  1  0  0  0  0
 11 38  1  0  0  0  0
 11 39  1  0  0  0  0
 12 21  1  0  0  0  0
 12 40  1  0  0  0  0
 12 41  1  0  0  0  0
 13 15  1  0  0  0  0
 13 23  2  0  0  0  0
 14 23  1  0  0  0  0
 14 42  1  0  0  0  0
 14 43  1  0  0  0  0
 15 16  1  0  0  0  0
 15 24  1  0  0  0  0
 15 44  1  0  0  0  0
 16 22  1  0  0  0  0
 16 25  1  0  0  0  0
 16 30  1  1  0  0  0
 17 22  1  0  0  0  0
 17 45  1  0  0  0  0
 17 46  1  0  0  0  0
 18 21  1  0  0  0  0
 18 47  1  0  0  0  0
 19 48  1  0  0  0  0
 19 49  1  0  0  0  0
 19 50  1  0  0  0  0
 20 51  1  0  0  0  0
 20 52  1  0  0  0  0
 20 53  1  0  0  0  0
 21 54  1  0  0  0  0
 21 55  1  0  0  0  0
 22 56  1  0  0  0  0
 22 57  1  0  0  0  0
 23 58  1  0  0  0  0
 24 26  1  0  0  0  0
 24 59  1  0  0  0  0
 24 60  1  0  0  0  0
 25 29  1  0  0  0  0
 25 61  1  0  0  0  0
 25 62  1  0  0  0  0
 26 29  1  0  0  0  0
 26 31  1  0  0  0  0
 26 32  1  0  0  0  0
 27 63  1  0  0  0  0
 27 64  1  0  0  0  0
 27 65  1  0  0  0  0
 28 66  1  0  0  0  0
 28 67  1  0  0  0  0
 28 68  1  0  0  0  0
 29 69  1  0  0  0  0
 29 70  1  0  0  0  0
 31 72  1  0  0  0  0
 31 73  1  0  0  0  0
 31 74  1  0  0  0  0
 32 75  1  0  0  0  0
 32 76  1  0  0  0  0
 32 77  1  0  0  0  0
M  END
> <PUBCHEM_COMPOUND_CID>
510096
> <PUBCHEM_COMPOUND_CANONICALIZED>
1
> <PUBCHEM_CACTVS_COMPLEXITY>
839
> <PUBCHEM_CACTVS_HBOND_ACCEPTOR>
3
> <PUBCHEM_CACTVS_HBOND_DONOR>
2
> <PUBCHEM_CACTVS_ROTATABLE_BOND>
1
> <PUBCHEM_CACTVS_SUBSKEYS>
AAADcfB4MAAAAAAAAAAAAAAAAAAAAAAAAAAwYMGCAAAAAADAAAAAGgAACAAADxSggAICCAAAAgCIAiDSCAAAAAAgAAAACAEAAAgAEBIAAQAAQAAEgAAIAAOIyPCPgAAAAAAAAADAAAYAADAAAAAAAAAAAA==
> <PUBCHEM_IUPAC_OPENEYE_NAME>
(4aR,6bR,10R,12aR)-10-hydroxy-2,2,6b,9,9,12a-hexamethyl-3,4,5,6,6a,6a,7,8,8a,10,11,12,13,14b-tetradecahydro-1H-picene-4a-carboxylic acid
> <PUBCHEM_IUPAC_CAS_NAME>
(4aR,6bR,10R,12aR)-10-hydroxy-2,2,6b,9,9,12a-hexamethyl-3,4,5,6,6a,6a,7,8,8a,10,11,12,13,14b-tetradecahydro-1H-picene-4a-carboxylic acid
> <PUBCHEM_IUPAC_NAME_MARKUP>
(4<I>a</I><I>R</I>,6<I>b</I><I>R</I>,10<I>R</I>,12<I>a</I><I>R</I>)-10-hydroxy-2,2,6<I>b</I>,9,9,12<I>a</I>-hexamethyl-3,4,5,6,6<I>a</I>,6<I>a</I>,7,8,8<I>a</I>,10,11,12,13,14<I>b</I>-tetradecahydro-1<I>H</I>-picene-4<I>a</I>-carboxylic acid
> <PUBCHEM_IUPAC_NAME>
(4aR,6bR,10R,12aR)-10-hydroxy-2,2,6b,9,9,12a-hexamethyl-3,4,5,6,6a,6a,7,8,8a,10,11,12,13,14b-tetradecahydro-1H-picene-4a-carboxylic acid
> <PUBCHEM_IUPAC_SYSTEMATIC_NAME>
(4aR,6bR,10R,12aR)-2,2,6b,9,9,12a-hexamethyl-10-oxidanyl-3,4,5,6,6a,6a,7,8,8a,10,11,12,13,14b-tetradecahydro-1H-picene-4a-carboxylic acid
> <PUBCHEM_IUPAC_TRADITIONAL_NAME>
(4aR,6bR,10R,12aR)-10-hydroxy-2,2,6b,9,9,12a-hexamethyl-3,4,5,6,6a,6a,7,8,8a,10,11,12,13,14b-tetradecahydro-1H-picene-4a-carboxylic acid
> <PUBCHEM_IUPAC_INCHI>
InChI=1S/C29H46O3/c1-25(2)15-16-29(24(31)32)14-9-19-18(20(29)17-25)7-8-22-27(19,5)12-10-21-26(3,4)23(30)11-13-28(21,22)6/h7,19-23,30H,8-17H2,1-6H3,(H,31,32)/t19?,20?,21?,22?,23-,27+,28+,29-/m1/s1
> <PUBCHEM_IUPAC_INCHIKEY>
CMHDHRBVZJATBG-RVMGLHFNSA-N
> <PUBCHEM_XLOGP3_AA>
6.9
> <PUBCHEM_EXACT_MASS>
442.34469533
> <PUBCHEM_MOLECULAR_FORMULA>
C29H46O3
> <PUBCHEM_MOLECULAR_WEIGHT>
442.7
> <PUBCHEM_OPENEYE_CAN_SMILES>
CC1(CCC2(CCC3C(=CCC4C3(CCC5C4(CCC(C5(C)C)O)C)C)C2C1)C(=O)O)C
> <PUBCHEM_OPENEYE_ISO_SMILES>
C[C@@]12CCC3[C@@](C1CC=C4C2CC[C@@]5(C4CC(CC5)(C)C)C(=O)O)(CC[C@H](C3(C)C)O)C
> <PUBCHEM_CACTVS_TPSA>
57.5
> <PUBCHEM_MONOISOTOPIC_WEIGHT>
442.34469533
> <PUBCHEM_TOTAL_CHARGE>
0
> <PUBCHEM_HEAVY_ATOM_COUNT>
32
> <PUBCHEM_ATOM_DEF_STEREO_COUNT>
4
> <PUBCHEM_ATOM_UDEF_STEREO_COUNT>
4
> <PUBCHEM_BOND_DEF_STEREO_COUNT>
0
> <PUBCHEM_BOND_UDEF_STEREO_COUNT>
0
> <PUBCHEM_ISOTOPIC_ATOM_COUNT>
0
> <PUBCHEM_COMPONENT_COUNT>
1
> <PUBCHEM_CACTVS_TAUTO_COUNT>
-1
> <PUBCHEM_COORDINATE_TYPE>
1
5
255
> <PUBCHEM_BONDANNOTATIONS>
18  1  6
15  24  3
16  30  5
4  19  5
5  20  5
6  14  3
7  11  3
8  17  3
$$$$
