510175
  -OEChem-10302200282D
117120  0     1  0  0  0  0  0999 V2000
    6.4781    0.5492    0.0000 O   0  0  0  0  0  0  0  0  0  0  0  0
    7.9915   -0.8902    0.0000 O   0  0  0  0  0  0  0  0  0  0  0  0
    6.2314   -0.6114    0.0000 O   0  0  0  0  0  0  0  0  0  0  0  0
    8.2036    2.5177    0.0000 O   0  0  0  0  0  0  0  0  0  0  0  0
    6.4393    3.1365    0.0000 O   0  0  0  0  0  0  0  0  0  0  0  0
    7.3192   -2.9593    0.0000 O   0  0  0  0  0  0  0  0  0  0  0  0
    5.1436   -2.9593    0.0000 O   0  0  0  0  0  0  0  0  0  0  0  0
   10.6072   -2.5958    0.0000 O   0  0  0  0  0  0  0  0  0  0  0  0
    9.2592    1.7841    0.0000 O   0  0  0  0  0  0  0  0  0  0  0  0
    5.1646    3.2423    0.0000 O   0  0  0  0  0  0  0  0  0  0  0  0
   12.4765   -0.0334    0.0000 O   0  0  0  0  0  0  0  0  0  0  0  0
   14.4450   -2.9517    0.0000 O   0  0  0  0  0  0  0  0  0  0  0  0
    2.0000    1.8333    0.0000 O   0  0  0  0  0  0  0  0  0  0  0  0
    9.6682   -0.8299    0.0000 N   0  0  3  0  0  0  0  0  0  0  0  0
    4.9836    1.5197    0.0000 N   0  0  0  0  0  0  0  0  0  0  0  0
   12.6957   -2.6117    0.0000 N   0  0  0  0  0  0  0  0  0  0  0  0
   10.7281    0.8662    0.0000 N   0  0  0  0  0  0  0  0  0  0  0  0
   13.6918   -1.3366    0.0000 N   0  0  0  0  0  0  0  0  0  0  0  0
    3.5823    2.5378    0.0000 N   0  0  0  0  0  0  0  0  0  0  0  0
    3.7282   -1.5593    0.0000 N   0  0  0  0  0  0  0  0  0  0  0  0
    7.4562    0.7571    0.0000 C   0  0  3  0  0  0  0  0  0  0  0  0
    8.1994    0.0880    0.0000 C   0  0  1  0  0  0  0  0  0  0  0  0
    7.5608    1.7516    0.0000 C   0  0  2  0  0  0  0  0  0  0  0  0
    6.6472    2.1584    0.0000 C   0  0  2  0  0  0  0  0  0  0  0  0
    9.1988    0.0531    0.0000 C   0  0  1  0  0  0  0  0  0  0  0  0
    5.9781    1.4152    0.0000 C   0  0  3  0  0  0  0  0  0  0  0  0
    7.0404   -1.1992    0.0000 C   0  0  3  0  0  0  0  0  0  0  0  0
    6.7314   -2.1503    0.0000 C   0  0  1  0  0  0  0  0  0  0  0  0
    5.7314   -2.1503    0.0000 C   0  0  1  0  0  0  0  0  0  0  0  0
    5.4224   -1.1992    0.0000 C   0  0  1  0  0  0  0  0  0  0  0  0
   10.6676   -0.8648    0.0000 C   0  0  0  0  0  0  0  0  0  0  0  0
    9.7287    0.9011    0.0000 C   0  0  0  0  0  0  0  0  0  0  0  0
   11.1371   -1.7477    0.0000 C   0  0  1  0  0  0  0  0  0  0  0  0
   12.1365   -1.7826    0.0000 C   0  0  3  0  0  0  0  0  0  0  0  0
    9.1383   -1.6779    0.0000 C   0  0  0  0  0  0  0  0  0  0  0  0
    4.4713   -0.8902    0.0000 C   0  0  0  0  0  0  0  0  0  0  0  0
    4.5768    2.4333    0.0000 C   0  0  0  0  0  0  0  0  0  0  0  0
    4.3958    0.7107    0.0000 C   0  0  0  0  0  0  0  0  0  0  0  0
   12.7522   -0.9946    0.0000 C   0  0  0  0  0  0  0  0  0  0  0  0
   13.6569   -2.3360    0.0000 C   0  0  0  0  0  0  0  0  0  0  0  0
   14.5209   -0.7774    0.0000 C   0  0  0  0  0  0  0  0  0  0  0  0
    3.4013    0.8152    0.0000 C   0  0  0  0  0  0  0  0  0  0  0  0
   12.3537   -3.5514    0.0000 C   0  0  0  0  0  0  0  0  0  0  0  0
   11.1976   -0.0167    0.0000 C   0  0  0  0  0  0  0  0  0  0  0  0
   15.4197   -1.2158    0.0000 C   0  0  0  0  0  0  0  0  0  0  0  0
    2.9945    1.7288    0.0000 C   0  0  0  0  0  0  0  0  0  0  0  0
   16.2487   -0.6566    0.0000 C   0  0  0  0  0  0  0  0  0  0  0  0
   17.1475   -1.0950    0.0000 C   0  0  0  0  0  0  0  0  0  0  0  0
   17.9766   -0.5358    0.0000 C   0  0  0  0  0  0  0  0  0  0  0  0
   18.8753   -0.9742    0.0000 C   0  0  0  0  0  0  0  0  0  0  0  0
   19.7044   -0.4150    0.0000 C   0  0  0  0  0  0  0  0  0  0  0  0
   20.6032   -0.8534    0.0000 C   0  0  0  0  0  0  0  0  0  0  0  0
   21.4322   -0.2942    0.0000 C   0  0  0  0  0  0  0  0  0  0  0  0
   22.3310   -0.7325    0.0000 C   0  0  0  0  0  0  0  0  0  0  0  0
   23.1600   -0.1733    0.0000 C   0  0  0  0  0  0  0  0  0  0  0  0
   24.0588   -0.6117    0.0000 C   0  0  0  0  0  0  0  0  0  0  0  0
    8.0351    0.9793    0.0000 H   0  0  0  0  0  0  0  0  0  0  0  0
    7.6097   -0.1036    0.0000 H   0  0  0  0  0  0  0  0  0  0  0  0
    8.1315    1.5094    0.0000 H   0  0  0  0  0  0  0  0  0  0  0  0
    7.1290    2.5485    0.0000 H   0  0  0  0  0  0  0  0  0  0  0  0
    8.8702   -0.4727    0.0000 H   0  0  0  0  0  0  0  0  0  0  0  0
    5.7559    1.9940    0.0000 H   0  0  0  0  0  0  0  0  0  0  0  0
    7.4788   -1.6376    0.0000 H   0  0  0  0  0  0  0  0  0  0  0  0
    6.4499   -2.7027    0.0000 H   0  0  0  0  0  0  0  0  0  0  0  0
    5.1190   -2.0533    0.0000 H   0  0  0  0  0  0  0  0  0  0  0  0
    5.3254   -0.5868    0.0000 H   0  0  0  0  0  0  0  0  0  0  0  0
   11.2573   -0.6732    0.0000 H   0  0  0  0  0  0  0  0  0  0  0  0
   10.5813   -0.2508    0.0000 H   0  0  0  0  0  0  0  0  0  0  0  0
   11.4282   -2.2952    0.0000 H   0  0  0  0  0  0  0  0  0  0  0  0
    7.9915    3.1003    0.0000 H   0  0  0  0  0  0  0  0  0  0  0  0
   12.7561   -1.8043    0.0000 H   0  0  0  0  0  0  0  0  0  0  0  0
    6.9001    3.5514    0.0000 H   0  0  0  0  0  0  0  0  0  0  0  0
    8.6125   -1.3494    0.0000 H   0  0  0  0  0  0  0  0  0  0  0  0
    8.8098   -2.2037    0.0000 H   0  0  0  0  0  0  0  0  0  0  0  0
    9.6641   -2.0065    0.0000 H   0  0  0  0  0  0  0  0  0  0  0  0
    4.7624   -0.3428    0.0000 H   0  0  0  0  0  0  0  0  0  0  0  0
    3.9828   -0.5085    0.0000 H   0  0  0  0  0  0  0  0  0  0  0  0
    4.6480    0.1443    0.0000 H   0  0  0  0  0  0  0  0  0  0  0  0
    7.0670   -3.5257    0.0000 H   0  0  0  0  0  0  0  0  0  0  0  0
   11.0566    1.3920    0.0000 H   0  0  0  0  0  0  0  0  0  0  0  0
    4.5270   -2.8945    0.0000 H   0  0  0  0  0  0  0  0  0  0  0  0
   10.8983   -3.1432    0.0000 H   0  0  0  0  0  0  0  0  0  0  0  0
   14.8853   -0.2759    0.0000 H   0  0  0  0  0  0  0  0  0  0  0  0
   14.0902   -0.3315    0.0000 H   0  0  0  0  0  0  0  0  0  0  0  0
    3.3301    3.1042    0.0000 H   0  0  0  0  0  0  0  0  0  0  0  0
    3.0368    0.3137    0.0000 H   0  0  0  0  0  0  0  0  0  0  0  0
    3.1385   -1.3677    0.0000 H   0  0  0  0  0  0  0  0  0  0  0  0
    3.8571   -2.1658    0.0000 H   0  0  0  0  0  0  0  0  0  0  0  0
   11.7711   -3.3393    0.0000 H   0  0  0  0  0  0  0  0  0  0  0  0
   12.1416   -4.1340    0.0000 H   0  0  0  0  0  0  0  0  0  0  0  0
   12.9363   -3.7634    0.0000 H   0  0  0  0  0  0  0  0  0  0  0  0
   10.6501   -0.3078    0.0000 H   0  0  0  0  0  0  0  0  0  0  0  0
   11.4886   -0.5642    0.0000 H   0  0  0  0  0  0  0  0  0  0  0  0
   11.7450    0.2743    0.0000 H   0  0  0  0  0  0  0  0  0  0  0  0
   15.0553   -1.7174    0.0000 H   0  0  0  0  0  0  0  0  0  0  0  0
   15.8504   -1.6618    0.0000 H   0  0  0  0  0  0  0  0  0  0  0  0
   16.6131   -0.1550    0.0000 H   0  0  0  0  0  0  0  0  0  0  0  0
   15.8180   -0.2106    0.0000 H   0  0  0  0  0  0  0  0  0  0  0  0
   16.7831   -1.5966    0.0000 H   0  0  0  0  0  0  0  0  0  0  0  0
   17.5782   -1.5410    0.0000 H   0  0  0  0  0  0  0  0  0  0  0  0
   18.3410   -0.0342    0.0000 H   0  0  0  0  0  0  0  0  0  0  0  0
   17.5459   -0.0898    0.0000 H   0  0  0  0  0  0  0  0  0  0  0  0
   18.5109   -1.4758    0.0000 H   0  0  0  0  0  0  0  0  0  0  0  0
   19.3060   -1.4202    0.0000 H   0  0  0  0  0  0  0  0  0  0  0  0
   20.0688    0.0866    0.0000 H   0  0  0  0  0  0  0  0  0  0  0  0
   19.2737    0.0310    0.0000 H   0  0  0  0  0  0  0  0  0  0  0  0
   20.2387   -1.3549    0.0000 H   0  0  0  0  0  0  0  0  0  0  0  0
   21.0339   -1.2993    0.0000 H   0  0  0  0  0  0  0  0  0  0  0  0
   21.7966    0.2074    0.0000 H   0  0  0  0  0  0  0  0  0  0  0  0
   21.0015    0.1518    0.0000 H   0  0  0  0  0  0  0  0  0  0  0  0
   21.9666   -1.2341    0.0000 H   0  0  0  0  0  0  0  0  0  0  0  0
   22.7617   -1.1785    0.0000 H   0  0  0  0  0  0  0  0  0  0  0  0
   23.5245    0.3283    0.0000 H   0  0  0  0  0  0  0  0  0  0  0  0
   22.7294    0.2727    0.0000 H   0  0  0  0  0  0  0  0  0  0  0  0
   23.7871   -1.1690    0.0000 H   0  0  0  0  0  0  0  0  0  0  0  0
   24.6161   -0.8835    0.0000 H   0  0  0  0  0  0  0  0  0  0  0  0
   24.3306   -0.0545    0.0000 H   0  0  0  0  0  0  0  0  0  0  0  0
  1 21  1  0  0  0  0
  1 26  1  0  0  0  0
 22  2  1  1  0  0  0
  2 27  1  0  0  0  0
  3 27  1  0  0  0  0
  3 30  1  0  0  0  0
 23  4  1  6  0  0  0
  4 70  1  0  0  0  0
 24  5  1  6  0  0  0
  5 72  1  0  0  0  0
 28  6  1  6  0  0  0
  6 79  1  0  0  0  0
 29  7  1  6  0  0  0
  7 81  1  0  0  0  0
 33  8  1  1  0  0  0
  8 82  1  0  0  0  0
  9 32  2  0  0  0  0
 10 37  2  0  0  0  0
 11 39  2  0  0  0  0
 12 40  2  0  0  0  0
 13 46  2  0  0  0  0
 25 14  1  1  0  0  0
 14 31  1  0  0  0  0
 14 35  1  0  0  0  0
 15 26  1  0  0  0  0
 15 37  1  0  0  0  0
 15 38  1  0  0  0  0
 16 34  1  0  0  0  0
 16 40  1  0  0  0  0
 16 43  1  0  0  0  0
 17 32  1  0  0  0  0
 17 44  1  0  0  0  0
 17 80  1  0  0  0  0
 18 39  1  0  0  0  0
 18 40  1  0  0  0  0
 18 41  1  0  0  0  0
 19 37  1  0  0  0  0
 19 46  1  0  0  0  0
 19 85  1  0  0  0  0
 20 36  1  0  0  0  0
 20 87  1  0  0  0  0
 20 88  1  0  0  0  0
 21 22  1  0  0  0  0
 21 23  1  0  0  0  0
 21 57  1  0  0  0  0
 22 25  1  0  0  0  0
 22 58  1  0  0  0  0
 23 24  1  0  0  0  0
 23 59  1  0  0  0  0
 24 26  1  0  0  0  0
 24 60  1  0  0  0  0
 25 32  1  0  0  0  0
 25 61  1  0  0  0  0
 26 62  1  0  0  0  0
 27 28  1  0  0  0  0
 27 63  1  0  0  0  0
 28 29  1  0  0  0  0
 28 64  1  0  0  0  0
 29 30  1  0  0  0  0
 29 65  1  0  0  0  0
 30 36  1  1  0  0  0
 30 66  1  0  0  0  0
 31 33  1  0  0  0  0
 31 67  1  0  0  0  0
 31 68  1  0  0  0  0
 33 34  1  0  0  0  0
 33 69  1  0  0  0  0
 34 39  1  0  0  0  0
 34 71  1  0  0  0  0
 35 73  1  0  0  0  0
 35 74  1  0  0  0  0
 35 75  1  0  0  0  0
 36 76  1  0  0  0  0
 36 77  1  0  0  0  0
 38 42  2  0  0  0  0
 38 78  1  0  0  0  0
 41 45  1  0  0  0  0
 41 83  1  0  0  0  0
 41 84  1  0  0  0  0
 42 46  1  0  0  0  0
 42 86  1  0  0  0  0
 43 89  1  0  0  0  0
 43 90  1  0  0  0  0
 43 91  1  0  0  0  0
 44 92  1  0  0  0  0
 44 93  1  0  0  0  0
 44 94  1  0  0  0  0
 45 47  1  0  0  0  0
 45 95  1  0  0  0  0
 45 96  1  0  0  0  0
 47 48  1  0  0  0  0
 47 97  1  0  0  0  0
 47 98  1  0  0  0  0
 48 49  1  0  0  0  0
 48 99  1  0  0  0  0
 48100  1  0  0  0  0
 49 50  1  0  0  0  0
 49101  1  0  0  0  0
 49102  1  0  0  0  0
 50 51  1  0  0  0  0
 50103  1  0  0  0  0
 50104  1  0  0  0  0
 51 52  1  0  0  0  0
 51105  1  0  0  0  0
 51106  1  0  0  0  0
 52 53  1  0  0  0  0
 52107  1  0  0  0  0
 52108  1  0  0  0  0
 53 54  1  0  0  0  0
 53109  1  0  0  0  0
 53110  1  0  0  0  0
 54 55  1  0  0  0  0
 54111  1  0  0  0  0
 54112  1  0  0  0  0
 55 56  1  0  0  0  0
 55113  1  0  0  0  0
 55114  1  0  0  0  0
 56115  1  0  0  0  0
 56116  1  0  0  0  0
 56117  1  0  0  0  0
M  END
> <PUBCHEM_COMPOUND_CID>
510175
> <PUBCHEM_COMPOUND_CANONICALIZED>
1
> <PUBCHEM_CACTVS_COMPLEXITY>
1390
> <PUBCHEM_CACTVS_HBOND_ACCEPTOR>
15
> <PUBCHEM_CACTVS_HBOND_DONOR>
8
> <PUBCHEM_CACTVS_ROTATABLE_BOND>
22
> <PUBCHEM_CACTVS_SUBSKEYS>
AAADcfB/vAAAAAAAAAAAAAAAAAAAAWJEgAAgAAAAAAAAAAAAAAAAHgAQCAAACDzxgAcDCAPABgCIACFWUACAAAAAAgAIAIGIAECTUBYAwCA/QAAPNyKXAMH+/K/AAAAAAAAAAAAAAAAAAAAAAAAAAAAAAA==
> <PUBCHEM_IUPAC_OPENEYE_NAME>
(2S,3R)-3-[(3R,4S,5R)-5-(aminomethyl)-3,4-dihydroxy-tetrahydrofuran-2-yl]oxy-3-[(3S,4R)-5-(2,4-dioxopyrimidin-1-yl)-3,4-dihydroxy-tetrahydrofuran-2-yl]-2-[[(2S)-2-(1-dodecyl-3-methyl-2,5-dioxo-imidazolidin-4-yl)-2-hydroxy-ethyl]-methyl-amino]-N-methyl-propanamide
> <PUBCHEM_IUPAC_CAS_NAME>
(2S,3R)-3-[[(3R,4S,5R)-5-(aminomethyl)-3,4-dihydroxy-2-oxolanyl]oxy]-3-[(3S,4R)-5-(2,4-dioxo-1-pyrimidinyl)-3,4-dihydroxy-2-oxolanyl]-2-[[(2S)-2-(1-dodecyl-3-methyl-2,5-dioxo-4-imidazolidinyl)-2-hydroxyethyl]-methylamino]-N-methylpropanamide
> <PUBCHEM_IUPAC_NAME_MARKUP>
(2<I>S</I>,3<I>R</I>)-3-[(3<I>R</I>,4<I>S</I>,5<I>R</I>)-5-(aminomethyl)-3,4-dihydroxyoxolan-2-yl]oxy-3-[(3<I>S</I>,4<I>R</I>)-5-(2,4-dioxopyrimidin-1-yl)-3,4-dihydroxyoxolan-2-yl]-2-[[(2<I>S</I>)-2-(1-dodecyl-3-methyl-2,5-dioxoimidazolidin-4-yl)-2-hydroxyethyl]-methylamino]-<I>N</I>-methylpropanamide
> <PUBCHEM_IUPAC_NAME>
(2S,3R)-3-[(3R,4S,5R)-5-(aminomethyl)-3,4-dihydroxyoxolan-2-yl]oxy-3-[(3S,4R)-5-(2,4-dioxopyrimidin-1-yl)-3,4-dihydroxyoxolan-2-yl]-2-[[(2S)-2-(1-dodecyl-3-methyl-2,5-dioxoimidazolidin-4-yl)-2-hydroxyethyl]-methylamino]-N-methylpropanamide
> <PUBCHEM_IUPAC_SYSTEMATIC_NAME>
(2S,3R)-3-[(3R,4S,5R)-5-(aminomethyl)-3,4-bis(oxidanyl)oxolan-2-yl]oxy-3-[(3S,4R)-5-[2,4-bis(oxidanylidene)pyrimidin-1-yl]-3,4-bis(oxidanyl)oxolan-2-yl]-2-[[(2S)-2-[1-dodecyl-3-methyl-2,5-bis(oxidanylidene)imidazolidin-4-yl]-2-oxidanyl-ethyl]-methyl-amino]-N-methyl-propanamide
> <PUBCHEM_IUPAC_TRADITIONAL_NAME>
(2S,3R)-3-[(3R,4S,5R)-5-(aminomethyl)-3,4-dihydroxy-tetrahydrofuran-2-yl]oxy-2-[[(2S)-2-(2,5-diketo-1-lauryl-3-methyl-imidazolidin-4-yl)-2-hydroxy-ethyl]-methyl-amino]-3-[(3S,4R)-5-(2,4-diketopyrimidin-1-yl)-3,4-dihydroxy-tetrahydrofuran-2-yl]-N-methyl-propionamide
> <PUBCHEM_IUPAC_INCHI>
InChI=1S/C36H61N7O13/c1-5-6-7-8-9-10-11-12-13-14-16-42-32(51)23(41(4)36(42)53)20(44)19-40(3)24(31(50)38-2)29(56-34-28(49)25(46)21(18-37)54-34)30-26(47)27(48)33(55-30)43-17-15-22(45)39-35(43)52/h15,17,20-21,23-30,33-34,44,46-49H,5-14,16,18-19,37H2,1-4H3,(H,38,50)(H,39,45,52)/t20-,21+,23?,24-,25+,26-,27+,28+,29+,30?,33?,34?/m0/s1
> <PUBCHEM_IUPAC_INCHIKEY>
LGAVPVQNPVXBOL-GZZASCIQSA-N
> <PUBCHEM_XLOGP3_AA>
0
> <PUBCHEM_EXACT_MASS>
799.43273503
> <PUBCHEM_MOLECULAR_FORMULA>
C36H61N7O13
> <PUBCHEM_MOLECULAR_WEIGHT>
799.9
> <PUBCHEM_OPENEYE_CAN_SMILES>
CCCCCCCCCCCCN1C(=O)C(N(C1=O)C)C(CN(C)C(C(C2C(C(C(O2)N3C=CC(=O)NC3=O)O)O)OC4C(C(C(O4)CN)O)O)C(=O)NC)O
> <PUBCHEM_OPENEYE_ISO_SMILES>
CCCCCCCCCCCCN1C(=O)C(N(C1=O)C)[C@H](CN(C)[C@@H]([C@H](C2[C@H]([C@H](C(O2)N3C=CC(=O)NC3=O)O)O)OC4[C@@H]([C@@H]([C@H](O4)CN)O)O)C(=O)NC)O
> <PUBCHEM_CACTVS_TPSA>
277
> <PUBCHEM_MONOISOTOPIC_WEIGHT>
799.43273503
> <PUBCHEM_TOTAL_CHARGE>
0
> <PUBCHEM_HEAVY_ATOM_COUNT>
56
> <PUBCHEM_ATOM_DEF_STEREO_COUNT>
8
> <PUBCHEM_ATOM_UDEF_STEREO_COUNT>
4
> <PUBCHEM_BOND_DEF_STEREO_COUNT>
0
> <PUBCHEM_BOND_UDEF_STEREO_COUNT>
0
> <PUBCHEM_ISOTOPIC_ATOM_COUNT>
0
> <PUBCHEM_COMPONENT_COUNT>
1
> <PUBCHEM_CACTVS_TAUTO_COUNT>
-1
> <PUBCHEM_COORDINATE_TYPE>
1
5
255
> <PUBCHEM_BONDANNOTATIONS>
21  1  3
25  14  5
26  15  3
15  37  8
15  38  8
19  37  8
19  46  8
22  2  5
27  2  3
30  36  5
34  39  3
38  42  8
23  4  6
42  46  8
24  5  6
28  6  6
29  7  6
33  8  5
$$$$
