510148
  -OEChem-10302200282D
106109  0     1  0  0  0  0  0999 V2000
   12.9296    1.7244    0.0000 O   0  0  0  0  0  0  0  0  0  0  0  0
   10.5983    2.8472    0.0000 O   0  0  0  0  0  0  0  0  0  0  0  0
   10.5658    0.6719    0.0000 O   0  0  0  0  0  0  0  0  0  0  0  0
   13.2141   -1.9424    0.0000 O   0  0  0  0  0  0  0  0  0  0  0  0
   10.5840   -2.2304    0.0000 O   0  0  0  0  0  0  0  0  0  0  0  0
   13.8942   -1.2094    0.0000 O   0  0  0  0  0  0  0  0  0  0  0  0
   11.1736   -4.1416    0.0000 O   0  0  0  0  0  0  0  0  0  0  0  0
   14.3163    2.9286    0.0000 O   0  0  0  0  0  0  0  0  0  0  0  0
   15.1639   -2.3875    0.0000 O   0  0  0  0  0  0  0  0  0  0  0  0
   13.6469    6.3274    0.0000 O   0  0  0  0  0  0  0  0  0  0  0  0
   15.1941   -5.8970    0.0000 O   0  0  0  0  0  0  0  0  0  0  0  0
   12.6772    3.4885    0.0000 N   0  0  0  0  0  0  0  0  0  0  0  0
   14.2797    0.4792    0.0000 N   0  0  0  0  0  0  0  0  0  0  0  0
   13.9816    4.6280    0.0000 N   0  0  0  0  0  0  0  0  0  0  0  0
   14.7785   -4.0761    0.0000 N   0  0  0  0  0  0  0  0  0  0  0  0
   16.8769   -5.7074    0.0000 N   0  0  0  0  0  0  0  0  0  0  0  0
   12.3298    0.9243    0.0000 C   0  0  1  0  0  0  0  0  0  0  0  0
   11.3835    1.2475    0.0000 C   0  0  2  0  0  0  0  0  0  0  0  0
   11.3984    2.2474    0.0000 C   0  0  2  0  0  0  0  0  0  0  0  0
   12.6246   -0.0313    0.0000 C   0  0  1  0  0  0  0  0  0  0  0  0
   12.3540    2.5421    0.0000 C   0  0  1  0  0  0  0  0  0  0  0  0
   11.9444   -0.7643    0.0000 C   0  0  0  0  0  0  0  0  0  0  0  0
   12.2391   -1.7199    0.0000 C   0  0  2  0  0  0  0  0  0  0  0  0
   11.5590   -2.4530    0.0000 C   0  0  2  0  0  0  0  0  0  0  0  0
   13.5995   -0.2538    0.0000 C   0  0  0  0  0  0  0  0  0  0  0  0
   11.8537   -3.4085    0.0000 C   0  0  2  0  0  0  0  0  0  0  0  0
    9.6788    2.4542    0.0000 C   0  0  0  0  0  0  0  0  0  0  0  0
   13.6584    3.6817    0.0000 C   0  0  0  0  0  0  0  0  0  0  0  0
   12.0193    4.2415    0.0000 C   0  0  0  0  0  0  0  0  0  0  0  0
    9.6584    1.0922    0.0000 C   0  0  0  0  0  0  0  0  0  0  0  0
   13.5088   -2.8980    0.0000 C   0  0  0  0  0  0  0  0  0  0  0  0
    8.8786    3.0540    0.0000 C   0  0  0  0  0  0  0  0  0  0  0  0
   12.8287   -3.6311    0.0000 C   0  0  0  0  0  0  0  0  0  0  0  0
    7.9591    2.6610    0.0000 C   0  0  0  0  0  0  0  0  0  0  0  0
   12.3425    5.1879    0.0000 C   0  0  0  0  0  0  0  0  0  0  0  0
   14.4838   -3.1205    0.0000 C   0  0  0  0  0  0  0  0  0  0  0  0
    7.1590    3.2608    0.0000 C   0  0  0  0  0  0  0  0  0  0  0  0
   13.3236    5.3811    0.0000 C   0  0  0  0  0  0  0  0  0  0  0  0
   15.7534   -4.2986    0.0000 C   0  0  1  0  0  0  0  0  0  0  0  0
   16.3769   -3.5168    0.0000 C   0  0  0  0  0  0  0  0  0  0  0  0
    6.2395    2.8678    0.0000 C   0  0  0  0  0  0  0  0  0  0  0  0
   17.3769   -3.5168    0.0000 C   0  0  0  0  0  0  0  0  0  0  0  0
   18.0004   -4.2986    0.0000 C   0  0  0  0  0  0  0  0  0  0  0  0
   17.7779   -5.2736    0.0000 C   0  0  1  0  0  0  0  0  0  0  0  0
   15.9760   -5.2736    0.0000 C   0  0  0  0  0  0  0  0  0  0  0  0
    5.4393    3.4676    0.0000 C   0  0  0  0  0  0  0  0  0  0  0  0
    4.5198    3.0746    0.0000 C   0  0  0  0  0  0  0  0  0  0  0  0
   18.5597   -5.8970    0.0000 C   0  0  0  0  0  0  0  0  0  0  0  0
    3.7197    3.6744    0.0000 C   0  0  0  0  0  0  0  0  0  0  0  0
    2.8001    3.2814    0.0000 C   0  0  0  0  0  0  0  0  0  0  0  0
    2.0000    3.8812    0.0000 C   0  0  0  0  0  0  0  0  0  0  0  0
   13.1673    0.7788    0.0000 H   0  0  0  0  0  0  0  0  0  0  0  0
   11.4713    0.6337    0.0000 H   0  0  0  0  0  0  0  0  0  0  0  0
   10.8419    1.9742    0.0000 H   0  0  0  0  0  0  0  0  0  0  0  0
   12.8073   -0.6238    0.0000 H   0  0  0  0  0  0  0  0  0  0  0  0
   11.9222    2.9870    0.0000 H   0  0  0  0  0  0  0  0  0  0  0  0
   11.5700   -0.2701    0.0000 H   0  0  0  0  0  0  0  0  0  0  0  0
   11.3927   -1.0472    0.0000 H   0  0  0  0  0  0  0  0  0  0  0  0
   12.6609   -1.2654    0.0000 H   0  0  0  0  0  0  0  0  0  0  0  0
   11.1373   -2.9075    0.0000 H   0  0  0  0  0  0  0  0  0  0  0  0
   12.0365   -4.0010    0.0000 H   0  0  0  0  0  0  0  0  0  0  0  0
    9.2264    2.0302    0.0000 H   0  0  0  0  0  0  0  0  0  0  0  0
   10.0178    1.9350    0.0000 H   0  0  0  0  0  0  0  0  0  0  0  0
   11.4110    4.1217    0.0000 H   0  0  0  0  0  0  0  0  0  0  0  0
    9.9190    1.6548    0.0000 H   0  0  0  0  0  0  0  0  0  0  0  0
    9.0958    1.3529    0.0000 H   0  0  0  0  0  0  0  0  0  0  0  0
    9.3978    0.5297    0.0000 H   0  0  0  0  0  0  0  0  0  0  0  0
    9.3310    3.4780    0.0000 H   0  0  0  0  0  0  0  0  0  0  0  0
    8.5397    3.5731    0.0000 H   0  0  0  0  0  0  0  0  0  0  0  0
   13.0114   -4.2235    0.0000 H   0  0  0  0  0  0  0  0  0  0  0  0
   14.8841    0.3413    0.0000 H   0  0  0  0  0  0  0  0  0  0  0  0
   14.0969    1.0717    0.0000 H   0  0  0  0  0  0  0  0  0  0  0  0
   10.1623   -2.6849    0.0000 H   0  0  0  0  0  0  0  0  0  0  0  0
    7.5067    2.2370    0.0000 H   0  0  0  0  0  0  0  0  0  0  0  0
    8.2981    2.1418    0.0000 H   0  0  0  0  0  0  0  0  0  0  0  0
   14.5899    4.7479    0.0000 H   0  0  0  0  0  0  0  0  0  0  0  0
   11.9346    5.6548    0.0000 H   0  0  0  0  0  0  0  0  0  0  0  0
   11.3563   -4.7340    0.0000 H   0  0  0  0  0  0  0  0  0  0  0  0
    7.6114    3.6848    0.0000 H   0  0  0  0  0  0  0  0  0  0  0  0
    6.8200    3.7799    0.0000 H   0  0  0  0  0  0  0  0  0  0  0  0
   15.5487   -3.7134    0.0000 H   0  0  0  0  0  0  0  0  0  0  0  0
   14.3568   -4.5306    0.0000 H   0  0  0  0  0  0  0  0  0  0  0  0
   16.5149   -2.9123    0.0000 H   0  0  0  0  0  0  0  0  0  0  0  0
   15.8183   -3.2478    0.0000 H   0  0  0  0  0  0  0  0  0  0  0  0
    5.7871    2.4438    0.0000 H   0  0  0  0  0  0  0  0  0  0  0  0
    6.5784    2.3486    0.0000 H   0  0  0  0  0  0  0  0  0  0  0  0
   17.9355   -3.2478    0.0000 H   0  0  0  0  0  0  0  0  0  0  0  0
   17.2390   -2.9123    0.0000 H   0  0  0  0  0  0  0  0  0  0  0  0
   18.5590   -4.5676    0.0000 H   0  0  0  0  0  0  0  0  0  0  0  0
   18.3870   -3.8139    0.0000 H   0  0  0  0  0  0  0  0  0  0  0  0
   17.7085   -5.8897    0.0000 H   0  0  0  0  0  0  0  0  0  0  0  0
    5.8917    3.8916    0.0000 H   0  0  0  0  0  0  0  0  0  0  0  0
    5.1004    3.9867    0.0000 H   0  0  0  0  0  0  0  0  0  0  0  0
   16.8769   -6.3274    0.0000 H   0  0  0  0  0  0  0  0  0  0  0  0
    4.0674    2.6506    0.0000 H   0  0  0  0  0  0  0  0  0  0  0  0
    4.8588    2.5554    0.0000 H   0  0  0  0  0  0  0  0  0  0  0  0
   18.1732   -6.3818    0.0000 H   0  0  0  0  0  0  0  0  0  0  0  0
   19.0445   -6.2836    0.0000 H   0  0  0  0  0  0  0  0  0  0  0  0
   18.9463   -5.4123    0.0000 H   0  0  0  0  0  0  0  0  0  0  0  0
    4.1720    4.0984    0.0000 H   0  0  0  0  0  0  0  0  0  0  0  0
    3.3807    4.1935    0.0000 H   0  0  0  0  0  0  0  0  0  0  0  0
    2.3478    2.8574    0.0000 H   0  0  0  0  0  0  0  0  0  0  0  0
    3.1391    2.7622    0.0000 H   0  0  0  0  0  0  0  0  0  0  0  0
    2.3719    4.3773    0.0000 H   0  0  0  0  0  0  0  0  0  0  0  0
    1.5039    4.2531    0.0000 H   0  0  0  0  0  0  0  0  0  0  0  0
    1.6281    3.3851    0.0000 H   0  0  0  0  0  0  0  0  0  0  0  0
  1 17  1  0  0  0  0
  1 21  1  0  0  0  0
 19  2  1  1  0  0  0
  2 27  1  0  0  0  0
 18  3  1  1  0  0  0
  3 30  1  0  0  0  0
  4 23  1  0  0  0  0
  4 31  1  0  0  0  0
 24  5  1  6  0  0  0
  5 73  1  0  0  0  0
  6 25  2  0  0  0  0
 26  7  1  6  0  0  0
  7 78  1  0  0  0  0
  8 28  2  0  0  0  0
  9 36  2  0  0  0  0
 10 38  2  0  0  0  0
 11 45  2  0  0  0  0
 21 12  1  6  0  0  0
 12 28  1  0  0  0  0
 12 29  1  0  0  0  0
 13 25  1  0  0  0  0
 13 71  1  0  0  0  0
 13 72  1  0  0  0  0
 14 28  1  0  0  0  0
 14 38  1  0  0  0  0
 14 76  1  0  0  0  0
 15 36  1  0  0  0  0
 39 15  1  1  0  0  0
 15 82  1  0  0  0  0
 16 44  1  0  0  0  0
 16 45  1  0  0  0  0
 16 94  1  0  0  0  0
 17 18  1  0  0  0  0
 17 20  1  0  0  0  0
 17 52  1  1  0  0  0
 18 19  1  0  0  0  0
 18 53  1  0  0  0  0
 19 21  1  0  0  0  0
 19 54  1  0  0  0  0
 20 22  1  6  0  0  0
 20 25  1  0  0  0  0
 20 55  1  0  0  0  0
 21 56  1  0  0  0  0
 23 22  1  1  0  0  0
 22 57  1  0  0  0  0
 22 58  1  0  0  0  0
 23 24  1  0  0  0  0
 23 59  1  0  0  0  0
 24 26  1  0  0  0  0
 24 60  1  0  0  0  0
 26 33  1  0  0  0  0
 26 61  1  0  0  0  0
 27 32  1  0  0  0  0
 27 62  1  0  0  0  0
 27 63  1  0  0  0  0
 29 35  2  0  0  0  0
 29 64  1  0  0  0  0
 30 65  1  0  0  0  0
 30 66  1  0  0  0  0
 30 67  1  0  0  0  0
 31 33  2  0  0  0  0
 31 36  1  0  0  0  0
 32 34  1  0  0  0  0
 32 68  1  0  0  0  0
 32 69  1  0  0  0  0
 33 70  1  0  0  0  0
 34 37  1  0  0  0  0
 34 74  1  0  0  0  0
 34 75  1  0  0  0  0
 35 38  1  0  0  0  0
 35 77  1  0  0  0  0
 37 41  1  0  0  0  0
 37 79  1  0  0  0  0
 37 80  1  0  0  0  0
 39 40  1  0  0  0  0
 39 45  1  0  0  0  0
 39 81  1  0  0  0  0
 40 42  1  0  0  0  0
 40 83  1  0  0  0  0
 40 84  1  0  0  0  0
 41 46  1  0  0  0  0
 41 85  1  0  0  0  0
 41 86  1  0  0  0  0
 42 43  1  0  0  0  0
 42 87  1  0  0  0  0
 42 88  1  0  0  0  0
 43 44  1  0  0  0  0
 43 89  1  0  0  0  0
 43 90  1  0  0  0  0
 44 48  1  1  0  0  0
 44 91  1  0  0  0  0
 46 47  1  0  0  0  0
 46 92  1  0  0  0  0
 46 93  1  0  0  0  0
 47 49  1  0  0  0  0
 47 95  1  0  0  0  0
 47 96  1  0  0  0  0
 48 97  1  0  0  0  0
 48 98  1  0  0  0  0
 48 99  1  0  0  0  0
 49 50  1  0  0  0  0
 49100  1  0  0  0  0
 49101  1  0  0  0  0
 50 51  1  0  0  0  0
 50102  1  0  0  0  0
 50103  1  0  0  0  0
 51104  1  0  0  0  0
 51105  1  0  0  0  0
 51106  1  0  0  0  0
M  END
> <PUBCHEM_COMPOUND_CID>
510148
> <PUBCHEM_COMPOUND_CANONICALIZED>
1
> <PUBCHEM_CACTVS_COMPLEXITY>
1290
> <PUBCHEM_CACTVS_HBOND_ACCEPTOR>
11
> <PUBCHEM_CACTVS_HBOND_DONOR>
6
> <PUBCHEM_CACTVS_ROTATABLE_BOND>
18
> <PUBCHEM_CACTVS_SUBSKEYS>
AAADcfB/vAAAAAAAAAAAAAAAAAAAASAAAAAgQAAABYAAAAAAAAAAHgAQCAAADTzhgAYDAAPABgCIACFWUAKACAAgIgAICIHIAEiDVBYAgCQfUAAP9yKbEcP6/PzOAAAAAAAAAAAAAAAAAAAAAAAAAAAAAA==
> <PUBCHEM_IUPAC_OPENEYE_NAME>
(2R,3S,4S)-2-[(2R)-3-amino-2-[(2R,3R,4R,5R)-4-decoxy-5-(2,4-dioxopyrimidin-1-yl)-3-methoxy-tetrahydrofuran-2-yl]-3-oxo-propyl]-3,4-dihydroxy-N-[(3S,7R)-7-methyl-2-oxo-azepan-3-yl]-3,4-dihydro-2H-pyran-6-carboxamide
> <PUBCHEM_IUPAC_CAS_NAME>
(2R,3S,4S)-2-[(2R)-3-amino-2-[(2R,3R,4R,5R)-4-decoxy-5-(2,4-dioxo-1-pyrimidinyl)-3-methoxy-2-oxolanyl]-3-oxopropyl]-3,4-dihydroxy-N-[(3S,7R)-7-methyl-2-oxo-3-azepanyl]-3,4-dihydro-2H-pyran-6-carboxamide
> <PUBCHEM_IUPAC_NAME_MARKUP>
(2<I>R</I>,3<I>S</I>,4<I>S</I>)-2-[(2<I>R</I>)-3-amino-2-[(2<I>R</I>,3<I>R</I>,4<I>R</I>,5<I>R</I>)-4-decoxy-5-(2,4-dioxopyrimidin-1-yl)-3-methoxyoxolan-2-yl]-3-oxopropyl]-3,4-dihydroxy-<I>N</I>-[(3<I>S</I>,7<I>R</I>)-7-methyl-2-oxoazepan-3-yl]-3,4-dihydro-2<I>H</I>-pyran-6-carboxamide
> <PUBCHEM_IUPAC_NAME>
(2R,3S,4S)-2-[(2R)-3-amino-2-[(2R,3R,4R,5R)-4-decoxy-5-(2,4-dioxopyrimidin-1-yl)-3-methoxyoxolan-2-yl]-3-oxopropyl]-3,4-dihydroxy-N-[(3S,7R)-7-methyl-2-oxoazepan-3-yl]-3,4-dihydro-2H-pyran-6-carboxamide
> <PUBCHEM_IUPAC_SYSTEMATIC_NAME>
(2R,3S,4S)-2-[(2R)-3-azanyl-2-[(2R,3R,4R,5R)-5-[2,4-bis(oxidanylidene)pyrimidin-1-yl]-4-decoxy-3-methoxy-oxolan-2-yl]-3-oxidanylidene-propyl]-N-[(3S,7R)-7-methyl-2-oxidanylidene-azepan-3-yl]-3,4-bis(oxidanyl)-3,4-dihydro-2H-pyran-6-carboxamide
> <PUBCHEM_IUPAC_TRADITIONAL_NAME>
(2R,3S,4S)-2-[(2R)-3-amino-2-[(2R,3R,4R,5R)-4-decoxy-5-(2,4-diketopyrimidin-1-yl)-3-methoxy-tetrahydrofuran-2-yl]-3-keto-propyl]-3,4-dihydroxy-N-[(3S,7R)-2-keto-7-methyl-azepan-3-yl]-3,4-dihydro-2H-pyran-6-carboxamide
> <PUBCHEM_IUPAC_INCHI>
InChI=1S/C35H55N5O11/c1-4-5-6-7-8-9-10-11-17-49-30-29(48-3)28(51-34(30)40-16-15-26(42)39-35(40)47)21(31(36)44)18-24-27(43)23(41)19-25(50-24)33(46)38-22-14-12-13-20(2)37-32(22)45/h15-16,19-24,27-30,34,41,43H,4-14,17-18H2,1-3H3,(H2,36,44)(H,37,45)(H,38,46)(H,39,42,47)/t20-,21-,22+,23+,24-,27+,28-,29-,30-,34-/m1/s1
> <PUBCHEM_IUPAC_INCHIKEY>
ZFWBRFPHLLTICJ-NGXBFPLYSA-N
> <PUBCHEM_XLOGP3_AA>
1.7
> <PUBCHEM_EXACT_MASS>
721.38980759
> <PUBCHEM_MOLECULAR_FORMULA>
C35H55N5O11
> <PUBCHEM_MOLECULAR_WEIGHT>
721.8
> <PUBCHEM_OPENEYE_CAN_SMILES>
CCCCCCCCCCOC1C(C(OC1N2C=CC(=O)NC2=O)C(CC3C(C(C=C(O3)C(=O)NC4CCCC(NC4=O)C)O)O)C(=O)N)OC
> <PUBCHEM_OPENEYE_ISO_SMILES>
CCCCCCCCCCO[C@@H]1[C@@H]([C@H](O[C@H]1N2C=CC(=O)NC2=O)[C@@H](C[C@@H]3[C@H]([C@H](C=C(O3)C(=O)N[C@H]4CCC[C@H](NC4=O)C)O)O)C(=O)N)OC
> <PUBCHEM_CACTVS_TPSA>
228
> <PUBCHEM_MONOISOTOPIC_WEIGHT>
721.38980759
> <PUBCHEM_TOTAL_CHARGE>
0
> <PUBCHEM_HEAVY_ATOM_COUNT>
51
> <PUBCHEM_ATOM_DEF_STEREO_COUNT>
10
> <PUBCHEM_ATOM_UDEF_STEREO_COUNT>
0
> <PUBCHEM_BOND_DEF_STEREO_COUNT>
0
> <PUBCHEM_BOND_UDEF_STEREO_COUNT>
0
> <PUBCHEM_ISOTOPIC_ATOM_COUNT>
0
> <PUBCHEM_COMPONENT_COUNT>
1
> <PUBCHEM_CACTVS_TAUTO_COUNT>
-1
> <PUBCHEM_COORDINATE_TYPE>
1
5
255
> <PUBCHEM_BONDANNOTATIONS>
21  12  6
12  28  8
12  29  8
14  28  8
14  38  8
39  15  5
17  52  5
19  2  5
20  22  6
23  22  5
29  35  8
18  3  5
35  38  8
44  48  5
24  5  6
26  7  6
$$$$
