510171
  -OEChem-10302200282D
157160  0     1  0  0  0  0  0999 V2000
    6.4781    5.1246    0.0000 O   0  0  0  0  0  0  0  0  0  0  0  0
    7.9915    3.6853    0.0000 O   0  0  0  0  0  0  0  0  0  0  0  0
    6.2314    3.9640    0.0000 O   0  0  0  0  0  0  0  0  0  0  0  0
    8.2036    7.0931    0.0000 O   0  0  0  0  0  0  0  0  0  0  0  0
    6.4393    7.7120    0.0000 O   0  0  0  0  0  0  0  0  0  0  0  0
   12.2559    3.5873    0.0000 O   0  0  0  0  0  0  0  0  0  0  0  0
    7.3192    1.6162    0.0000 O   0  0  0  0  0  0  0  0  0  0  0  0
    9.0680    6.3169    0.0000 O   0  0  0  0  0  0  0  0  0  0  0  0
    5.1436    1.6162    0.0000 O   0  0  0  0  0  0  0  0  0  0  0  0
   12.4306    6.4479    0.0000 O   0  0  0  0  0  0  0  0  0  0  0  0
    5.1646    7.8178    0.0000 O   0  0  0  0  0  0  0  0  0  0  0  0
   11.4504    2.0540    0.0000 O   0  0  0  0  0  0  0  0  0  0  0  0
    2.0000    6.4088    0.0000 O   0  0  0  0  0  0  0  0  0  0  0  0
    9.6009    3.7130    0.0000 N   0  0  3  0  0  0  0  0  0  0  0  0
   10.6459    5.7022    0.0000 N   0  0  0  0  0  0  0  0  0  0  0  0
    4.9836    6.0952    0.0000 N   0  0  0  0  0  0  0  0  0  0  0  0
   13.1272    4.8621    0.0000 N   0  0  0  0  0  0  0  0  0  0  0  0
    3.5823    7.1133    0.0000 N   0  0  0  0  0  0  0  0  0  0  0  0
    3.7282    3.0162    0.0000 N   0  0  0  0  0  0  0  0  0  0  0  0
    7.4562    5.3326    0.0000 C   0  0  3  0  0  0  0  0  0  0  0  0
    8.1994    4.6634    0.0000 C   0  0  1  0  0  0  0  0  0  0  0  0
    9.1988    4.6285    0.0000 C   0  0  3  0  0  0  0  0  0  0  0  0
    7.5608    6.3271    0.0000 C   0  0  2  0  0  0  0  0  0  0  0  0
    6.6472    6.7338    0.0000 C   0  0  2  0  0  0  0  0  0  0  0  0
    5.9781    5.9907    0.0000 C   0  0  3  0  0  0  0  0  0  0  0  0
    7.0404    3.3763    0.0000 C   0  0  3  0  0  0  0  0  0  0  0  0
   10.5675    3.4566    0.0000 C   0  0  0  0  0  0  0  0  0  0  0  0
    9.6638    5.5138    0.0000 C   0  0  0  0  0  0  0  0  0  0  0  0
   11.3706    4.0524    0.0000 C   0  0  1  0  0  0  0  0  0  0  0  0
   11.4055    5.0518    0.0000 C   0  0  3  0  0  0  0  0  0  0  0  0
    6.7314    2.4252    0.0000 C   0  0  1  0  0  0  0  0  0  0  0  0
    5.7314    2.4252    0.0000 C   0  0  1  0  0  0  0  0  0  0  0  0
    5.4224    3.3763    0.0000 C   0  0  1  0  0  0  0  0  0  0  0  0
    8.9506    2.9534    0.0000 C   0  0  0  0  0  0  0  0  0  0  0  0
   12.3211    5.4539    0.0000 C   0  0  0  0  0  0  0  0  0  0  0  0
   10.9023    6.6687    0.0000 C   0  0  0  0  0  0  0  0  0  0  0  0
    4.4713    3.6853    0.0000 C   0  0  0  0  0  0  0  0  0  0  0  0
    4.5768    7.0087    0.0000 C   0  0  0  0  0  0  0  0  0  0  0  0
    4.3958    5.2862    0.0000 C   0  0  0  0  0  0  0  0  0  0  0  0
   12.2958    2.5881    0.0000 C   0  0  0  0  0  0  0  0  0  0  0  0
    3.4013    5.3907    0.0000 C   0  0  0  0  0  0  0  0  0  0  0  0
   14.0427    5.2643    0.0000 C   0  0  0  0  0  0  0  0  0  0  0  0
    2.9945    6.3042    0.0000 C   0  0  0  0  0  0  0  0  0  0  0  0
   13.1811    2.1230    0.0000 C   0  0  0  0  0  0  0  0  0  0  0  0
   14.8488    4.6725    0.0000 C   0  0  0  0  0  0  0  0  0  0  0  0
   13.2210    1.1238    0.0000 C   0  0  0  0  0  0  0  0  0  0  0  0
   15.7644    5.0747    0.0000 C   0  0  0  0  0  0  0  0  0  0  0  0
   14.1062    0.6588    0.0000 C   0  0  0  0  0  0  0  0  0  0  0  0
   16.5704    4.4829    0.0000 C   0  0  0  0  0  0  0  0  0  0  0  0
   14.1461   -0.3404    0.0000 C   0  0  0  0  0  0  0  0  0  0  0  0
   17.4860    4.8850    0.0000 C   0  0  0  0  0  0  0  0  0  0  0  0
   15.0314   -0.8055    0.0000 C   0  0  0  0  0  0  0  0  0  0  0  0
   18.2921    4.2932    0.0000 C   0  0  0  0  0  0  0  0  0  0  0  0
   15.0713   -1.8047    0.0000 C   0  0  0  0  0  0  0  0  0  0  0  0
   15.9565   -2.2698    0.0000 C   0  0  0  0  0  0  0  0  0  0  0  0
   19.2076    4.6954    0.0000 C   0  0  0  0  0  0  0  0  0  0  0  0
   15.9964   -3.2690    0.0000 C   0  0  0  0  0  0  0  0  0  0  0  0
   20.0137    4.1036    0.0000 C   0  0  0  0  0  0  0  0  0  0  0  0
   16.8817   -3.7340    0.0000 C   0  0  0  0  0  0  0  0  0  0  0  0
   20.9293    4.5058    0.0000 C   0  0  0  0  0  0  0  0  0  0  0  0
   16.9216   -4.7332    0.0000 C   0  0  0  0  0  0  0  0  0  0  0  0
   17.8069   -5.1983    0.0000 C   0  0  0  0  0  0  0  0  0  0  0  0
   21.7354    3.9140    0.0000 C   0  0  0  0  0  0  0  0  0  0  0  0
   17.8468   -6.1975    0.0000 C   0  0  0  0  0  0  0  0  0  0  0  0
   22.6509    4.3161    0.0000 C   0  0  0  0  0  0  0  0  0  0  0  0
   18.7320   -6.6626    0.0000 C   0  0  0  0  0  0  0  0  0  0  0  0
   18.7719   -7.6618    0.0000 C   0  0  0  0  0  0  0  0  0  0  0  0
   23.4570    3.7243    0.0000 C   0  0  0  0  0  0  0  0  0  0  0  0
   19.6572   -8.1268    0.0000 C   0  0  0  0  0  0  0  0  0  0  0  0
    8.0351    5.5547    0.0000 H   0  0  0  0  0  0  0  0  0  0  0  0
    7.6097    4.4718    0.0000 H   0  0  0  0  0  0  0  0  0  0  0  0
    8.8508    4.1154    0.0000 H   0  0  0  0  0  0  0  0  0  0  0  0
    8.1315    6.0848    0.0000 H   0  0  0  0  0  0  0  0  0  0  0  0
    7.1290    7.1240    0.0000 H   0  0  0  0  0  0  0  0  0  0  0  0
    5.7559    6.5695    0.0000 H   0  0  0  0  0  0  0  0  0  0  0  0
    7.1374    3.9886    0.0000 H   0  0  0  0  0  0  0  0  0  0  0  0
   10.2792    2.9077    0.0000 H   0  0  0  0  0  0  0  0  0  0  0  0
   11.0385    3.0533    0.0000 H   0  0  0  0  0  0  0  0  0  0  0  0
   11.9068    4.3637    0.0000 H   0  0  0  0  0  0  0  0  0  0  0  0
   11.4964    5.6651    0.0000 H   0  0  0  0  0  0  0  0  0  0  0  0
    6.4499    1.8728    0.0000 H   0  0  0  0  0  0  0  0  0  0  0  0
    5.1190    2.5222    0.0000 H   0  0  0  0  0  0  0  0  0  0  0  0
    5.3254    3.9886    0.0000 H   0  0  0  0  0  0  0  0  0  0  0  0
    8.4796    3.3566    0.0000 H   0  0  0  0  0  0  0  0  0  0  0  0
    8.5473    2.4824    0.0000 H   0  0  0  0  0  0  0  0  0  0  0  0
    9.4215    2.5501    0.0000 H   0  0  0  0  0  0  0  0  0  0  0  0
    7.9915    7.6757    0.0000 H   0  0  0  0  0  0  0  0  0  0  0  0
    6.9001    8.1268    0.0000 H   0  0  0  0  0  0  0  0  0  0  0  0
   11.5016    6.5098    0.0000 H   0  0  0  0  0  0  0  0  0  0  0  0
   11.0613    7.2680    0.0000 H   0  0  0  0  0  0  0  0  0  0  0  0
   10.3031    6.8277    0.0000 H   0  0  0  0  0  0  0  0  0  0  0  0
    4.7624    4.2327    0.0000 H   0  0  0  0  0  0  0  0  0  0  0  0
    3.9828    4.0670    0.0000 H   0  0  0  0  0  0  0  0  0  0  0  0
    4.6480    4.7198    0.0000 H   0  0  0  0  0  0  0  0  0  0  0  0
    7.0670    1.0498    0.0000 H   0  0  0  0  0  0  0  0  0  0  0  0
    4.5270    1.6810    0.0000 H   0  0  0  0  0  0  0  0  0  0  0  0
   13.0593    4.2459    0.0000 H   0  0  0  0  0  0  0  0  0  0  0  0
    3.3301    7.6797    0.0000 H   0  0  0  0  0  0  0  0  0  0  0  0
    3.0368    4.8891    0.0000 H   0  0  0  0  0  0  0  0  0  0  0  0
    3.1385    3.2077    0.0000 H   0  0  0  0  0  0  0  0  0  0  0  0
    3.8571    2.4097    0.0000 H   0  0  0  0  0  0  0  0  0  0  0  0
   14.4909    5.6928    0.0000 H   0  0  0  0  0  0  0  0  0  0  0  0
   13.6986    5.7800    0.0000 H   0  0  0  0  0  0  0  0  0  0  0  0
   13.7955    2.0398    0.0000 H   0  0  0  0  0  0  0  0  0  0  0  0
   13.3697    2.7136    0.0000 H   0  0  0  0  0  0  0  0  0  0  0  0
   14.4007    4.2440    0.0000 H   0  0  0  0  0  0  0  0  0  0  0  0
   15.1929    4.1568    0.0000 H   0  0  0  0  0  0  0  0  0  0  0  0
   12.6066    1.2071    0.0000 H   0  0  0  0  0  0  0  0  0  0  0  0
   13.0323    0.5332    0.0000 H   0  0  0  0  0  0  0  0  0  0  0  0
   16.2125    5.5031    0.0000 H   0  0  0  0  0  0  0  0  0  0  0  0
   15.4202    5.5904    0.0000 H   0  0  0  0  0  0  0  0  0  0  0  0
   14.7206    0.5756    0.0000 H   0  0  0  0  0  0  0  0  0  0  0  0
   14.2949    1.2494    0.0000 H   0  0  0  0  0  0  0  0  0  0  0  0
   16.1223    4.0544    0.0000 H   0  0  0  0  0  0  0  0  0  0  0  0
   16.9146    3.9671    0.0000 H   0  0  0  0  0  0  0  0  0  0  0  0
   13.5317   -0.2572    0.0000 H   0  0  0  0  0  0  0  0  0  0  0  0
   13.9575   -0.9310    0.0000 H   0  0  0  0  0  0  0  0  0  0  0  0
   17.9341    5.3135    0.0000 H   0  0  0  0  0  0  0  0  0  0  0  0
   17.1419    5.4008    0.0000 H   0  0  0  0  0  0  0  0  0  0  0  0
   15.6458   -0.8887    0.0000 H   0  0  0  0  0  0  0  0  0  0  0  0
   15.2200   -0.2149    0.0000 H   0  0  0  0  0  0  0  0  0  0  0  0
   17.8439    3.8648    0.0000 H   0  0  0  0  0  0  0  0  0  0  0  0
   18.6362    3.7775    0.0000 H   0  0  0  0  0  0  0  0  0  0  0  0
   14.4569   -1.7215    0.0000 H   0  0  0  0  0  0  0  0  0  0  0  0
   14.8826   -2.3953    0.0000 H   0  0  0  0  0  0  0  0  0  0  0  0
   16.5709   -2.3530    0.0000 H   0  0  0  0  0  0  0  0  0  0  0  0
   16.1452   -1.6792    0.0000 H   0  0  0  0  0  0  0  0  0  0  0  0
   19.6558    5.1239    0.0000 H   0  0  0  0  0  0  0  0  0  0  0  0
   18.8635    5.2111    0.0000 H   0  0  0  0  0  0  0  0  0  0  0  0
   15.3820   -3.1857    0.0000 H   0  0  0  0  0  0  0  0  0  0  0  0
   15.8078   -3.8596    0.0000 H   0  0  0  0  0  0  0  0  0  0  0  0
   19.5656    3.6751    0.0000 H   0  0  0  0  0  0  0  0  0  0  0  0
   20.3579    3.5879    0.0000 H   0  0  0  0  0  0  0  0  0  0  0  0
   17.4961   -3.8172    0.0000 H   0  0  0  0  0  0  0  0  0  0  0  0
   17.0704   -3.1434    0.0000 H   0  0  0  0  0  0  0  0  0  0  0  0
   21.3774    4.9342    0.0000 H   0  0  0  0  0  0  0  0  0  0  0  0
   20.5852    5.0215    0.0000 H   0  0  0  0  0  0  0  0  0  0  0  0
   16.3072   -4.6500    0.0000 H   0  0  0  0  0  0  0  0  0  0  0  0
   16.7329   -5.3238    0.0000 H   0  0  0  0  0  0  0  0  0  0  0  0
   18.4213   -5.2815    0.0000 H   0  0  0  0  0  0  0  0  0  0  0  0
   17.9955   -4.6077    0.0000 H   0  0  0  0  0  0  0  0  0  0  0  0
   21.2872    3.4855    0.0000 H   0  0  0  0  0  0  0  0  0  0  0  0
   22.0795    3.3982    0.0000 H   0  0  0  0  0  0  0  0  0  0  0  0
   17.2324   -6.1143    0.0000 H   0  0  0  0  0  0  0  0  0  0  0  0
   17.6581   -6.7881    0.0000 H   0  0  0  0  0  0  0  0  0  0  0  0
   23.0991    4.7446    0.0000 H   0  0  0  0  0  0  0  0  0  0  0  0
   22.3068    4.8318    0.0000 H   0  0  0  0  0  0  0  0  0  0  0  0
   19.3464   -6.7458    0.0000 H   0  0  0  0  0  0  0  0  0  0  0  0
   18.9207   -6.0720    0.0000 H   0  0  0  0  0  0  0  0  0  0  0  0
   18.1575   -7.5785    0.0000 H   0  0  0  0  0  0  0  0  0  0  0  0
   18.5833   -8.2524    0.0000 H   0  0  0  0  0  0  0  0  0  0  0  0
   23.0901    3.2245    0.0000 H   0  0  0  0  0  0  0  0  0  0  0  0
   23.9568    3.3574    0.0000 H   0  0  0  0  0  0  0  0  0  0  0  0
   23.8239    4.2241    0.0000 H   0  0  0  0  0  0  0  0  0  0  0  0
   19.3689   -8.6757    0.0000 H   0  0  0  0  0  0  0  0  0  0  0  0
   20.2061   -8.4152    0.0000 H   0  0  0  0  0  0  0  0  0  0  0  0
   19.9455   -7.5780    0.0000 H   0  0  0  0  0  0  0  0  0  0  0  0
  1 20  1  0  0  0  0
  1 25  1  0  0  0  0
 21  2  1  1  0  0  0
  2 26  1  0  0  0  0
  3 26  1  0  0  0  0
  3 33  1  0  0  0  0
 23  4  1  6  0  0  0
  4 87  1  0  0  0  0
 24  5  1  6  0  0  0
  5 88  1  0  0  0  0
 29  6  1  1  0  0  0
  6 40  1  0  0  0  0
 31  7  1  6  0  0  0
  7 95  1  0  0  0  0
  8 28  2  0  0  0  0
 32  9  1  6  0  0  0
  9 96  1  0  0  0  0
 10 35  2  0  0  0  0
 11 38  2  0  0  0  0
 12 40  2  0  0  0  0
 13 43  2  0  0  0  0
 14 22  1  0  0  0  0
 14 27  1  0  0  0  0
 14 34  1  0  0  0  0
 15 28  1  0  0  0  0
 15 30  1  0  0  0  0
 15 36  1  0  0  0  0
 16 25  1  0  0  0  0
 16 38  1  0  0  0  0
 16 39  1  0  0  0  0
 17 35  1  0  0  0  0
 17 42  1  0  0  0  0
 17 97  1  0  0  0  0
 18 38  1  0  0  0  0
 18 43  1  0  0  0  0
 18 98  1  0  0  0  0
 19 37  1  0  0  0  0
 19100  1  0  0  0  0
 19101  1  0  0  0  0
 20 21  1  0  0  0  0
 20 23  1  0  0  0  0
 20 70  1  0  0  0  0
 21 22  1  0  0  0  0
 21 71  1  0  0  0  0
 22 28  1  0  0  0  0
 22 72  1  0  0  0  0
 23 24  1  0  0  0  0
 23 73  1  0  0  0  0
 24 25  1  0  0  0  0
 24 74  1  0  0  0  0
 25 75  1  0  0  0  0
 26 31  1  0  0  0  0
 26 76  1  0  0  0  0
 27 29  1  0  0  0  0
 27 77  1  0  0  0  0
 27 78  1  0  0  0  0
 29 30  1  0  0  0  0
 29 79  1  0  0  0  0
 30 35  1  0  0  0  0
 30 80  1  0  0  0  0
 31 32  1  0  0  0  0
 31 81  1  0  0  0  0
 32 33  1  0  0  0  0
 32 82  1  0  0  0  0
 33 37  1  1  0  0  0
 33 83  1  0  0  0  0
 34 84  1  0  0  0  0
 34 85  1  0  0  0  0
 34 86  1  0  0  0  0
 36 89  1  0  0  0  0
 36 90  1  0  0  0  0
 36 91  1  0  0  0  0
 37 92  1  0  0  0  0
 37 93  1  0  0  0  0
 39 41  2  0  0  0  0
 39 94  1  0  0  0  0
 40 44  1  0  0  0  0
 41 43  1  0  0  0  0
 41 99  1  0  0  0  0
 42 45  1  0  0  0  0
 42102  1  0  0  0  0
 42103  1  0  0  0  0
 44 46  1  0  0  0  0
 44104  1  0  0  0  0
 44105  1  0  0  0  0
 45 47  1  0  0  0  0
 45106  1  0  0  0  0
 45107  1  0  0  0  0
 46 48  1  0  0  0  0
 46108  1  0  0  0  0
 46109  1  0  0  0  0
 47 49  1  0  0  0  0
 47110  1  0  0  0  0
 47111  1  0  0  0  0
 48 50  1  0  0  0  0
 48112  1  0  0  0  0
 48113  1  0  0  0  0
 49 51  1  0  0  0  0
 49114  1  0  0  0  0
 49115  1  0  0  0  0
 50 52  1  0  0  0  0
 50116  1  0  0  0  0
 50117  1  0  0  0  0
 51 53  1  0  0  0  0
 51118  1  0  0  0  0
 51119  1  0  0  0  0
 52 54  1  0  0  0  0
 52120  1  0  0  0  0
 52121  1  0  0  0  0
 53 56  1  0  0  0  0
 53122  1  0  0  0  0
 53123  1  0  0  0  0
 54 55  1  0  0  0  0
 54124  1  0  0  0  0
 54125  1  0  0  0  0
 55 57  1  0  0  0  0
 55126  1  0  0  0  0
 55127  1  0  0  0  0
 56 58  1  0  0  0  0
 56128  1  0  0  0  0
 56129  1  0  0  0  0
 57 59  1  0  0  0  0
 57130  1  0  0  0  0
 57131  1  0  0  0  0
 58 60  1  0  0  0  0
 58132  1  0  0  0  0
 58133  1  0  0  0  0
 59 61  1  0  0  0  0
 59134  1  0  0  0  0
 59135  1  0  0  0  0
 60 63  1  0  0  0  0
 60136  1  0  0  0  0
 60137  1  0  0  0  0
 61 62  1  0  0  0  0
 61138  1  0  0  0  0
 61139  1  0  0  0  0
 62 64  1  0  0  0  0
 62140  1  0  0  0  0
 62141  1  0  0  0  0
 63 65  1  0  0  0  0
 63142  1  0  0  0  0
 63143  1  0  0  0  0
 64 66  1  0  0  0  0
 64144  1  0  0  0  0
 64145  1  0  0  0  0
 65 68  1  0  0  0  0
 65146  1  0  0  0  0
 65147  1  0  0  0  0
 66 67  1  0  0  0  0
 66148  1  0  0  0  0
 66149  1  0  0  0  0
 67 69  1  0  0  0  0
 67150  1  0  0  0  0
 67151  1  0  0  0  0
 68152  1  0  0  0  0
 68153  1  0  0  0  0
 68154  1  0  0  0  0
 69155  1  0  0  0  0
 69156  1  0  0  0  0
 69157  1  0  0  0  0
M  END
> <PUBCHEM_COMPOUND_CID>
510171
> <PUBCHEM_COMPOUND_CANONICALIZED>
1
> <PUBCHEM_CACTVS_COMPLEXITY>
1590
> <PUBCHEM_CACTVS_HBOND_ACCEPTOR>
15
> <PUBCHEM_CACTVS_HBOND_DONOR>
7
> <PUBCHEM_CACTVS_ROTATABLE_BOND>
34
> <PUBCHEM_CACTVS_SUBSKEYS>
AAADcfB/vAAAAAAAAAAAAAAAAAAAASJAAAAgAAAABYAAAAAAAAAAHgAQCAAACDzxgAcDCAPABgCIACHWWACAAAAAAgAIAIGIAECTUBYAwCA/QAAPNyKXAMH+/K/AAAAAAAAAAAAAAAAAAAAAAAAAAAAAAA==
> <PUBCHEM_IUPAC_OPENEYE_NAME>
[(6S)-2-[(R)-[(3R,4S,5R)-5-(aminomethyl)-3,4-dihydroxy-tetrahydrofuran-2-yl]oxy-[(3S,4R)-5-(2,4-dioxopyrimidin-1-yl)-3,4-dihydroxy-tetrahydrofuran-2-yl]methyl]-5-(dodecylcarbamoyl)-1,4-dimethyl-3-oxo-1,4-diazepan-6-yl] hexadecanoate
> <PUBCHEM_IUPAC_CAS_NAME>
hexadecanoic acid [(6S)-2-[(R)-[(3R,4S,5R)-5-(aminomethyl)-3,4-dihydroxy-2-oxolanyl]oxy-[(3S,4R)-5-(2,4-dioxo-1-pyrimidinyl)-3,4-dihydroxy-2-oxolanyl]methyl]-5-[(dodecylamino)-oxomethyl]-1,4-dimethyl-3-oxo-1,4-diazepan-6-yl] ester
> <PUBCHEM_IUPAC_NAME_MARKUP>
[(6<I>S</I>)-2-[(<I>R</I>)-[(3<I>R</I>,4<I>S</I>,5<I>R</I>)-5-(aminomethyl)-3,4-dihydroxyoxolan-2-yl]oxy-[(3<I>S</I>,4<I>R</I>)-5-(2,4-dioxopyrimidin-1-yl)-3,4-dihydroxyoxolan-2-yl]methyl]-5-(dodecylcarbamoyl)-1,4-dimethyl-3-oxo-1,4-diazepan-6-yl] hexadecanoate
> <PUBCHEM_IUPAC_NAME>
[(6S)-2-[(R)-[(3R,4S,5R)-5-(aminomethyl)-3,4-dihydroxyoxolan-2-yl]oxy-[(3S,4R)-5-(2,4-dioxopyrimidin-1-yl)-3,4-dihydroxyoxolan-2-yl]methyl]-5-(dodecylcarbamoyl)-1,4-dimethyl-3-oxo-1,4-diazepan-6-yl] hexadecanoate
> <PUBCHEM_IUPAC_SYSTEMATIC_NAME>
[(6S)-2-[(R)-[(3R,4S,5R)-5-(aminomethyl)-3,4-bis(oxidanyl)oxolan-2-yl]oxy-[(3S,4R)-5-[2,4-bis(oxidanylidene)pyrimidin-1-yl]-3,4-bis(oxidanyl)oxolan-2-yl]methyl]-5-(dodecylcarbamoyl)-1,4-dimethyl-3-oxidanylidene-1,4-diazepan-6-yl] hexadecanoate
> <PUBCHEM_IUPAC_TRADITIONAL_NAME>
palmitic acid [(6S)-2-[(R)-[(3R,4S,5R)-5-(aminomethyl)-3,4-dihydroxy-tetrahydrofuran-2-yl]oxy-[(3S,4R)-5-(2,4-diketopyrimidin-1-yl)-3,4-dihydroxy-tetrahydrofuran-2-yl]methyl]-3-keto-5-(laurylcarbamoyl)-1,4-dimethyl-1,4-diazepan-6-yl] ester
> <PUBCHEM_IUPAC_INCHI>
InChI=1S/C50H88N6O13/c1-5-7-9-11-13-15-17-18-19-20-22-24-26-28-37(58)66-35-33-54(3)39(47(64)55(4)38(35)46(63)52-30-27-25-23-21-16-14-12-10-8-6-2)44(69-49-43(62)40(59)34(32-51)67-49)45-41(60)42(61)48(68-45)56-31-29-36(57)53-50(56)65/h29,31,34-35,38-45,48-49,59-62H,5-28,30,32-33,51H2,1-4H3,(H,52,63)(H,53,57,65)/t34-,35+,38?,39?,40-,41+,42-,43-,44-,45?,48?,49?/m1/s1
> <PUBCHEM_IUPAC_INCHIKEY>
FSPBJNNAOIUOBE-SBLWMRAZSA-N
> <PUBCHEM_XLOGP3_AA>
7.6
> <PUBCHEM_EXACT_MASS>
980.64093688
> <PUBCHEM_MOLECULAR_FORMULA>
C50H88N6O13
> <PUBCHEM_MOLECULAR_WEIGHT>
981.3
> <PUBCHEM_OPENEYE_CAN_SMILES>
CCCCCCCCCCCCCCCC(=O)OC1CN(C(C(=O)N(C1C(=O)NCCCCCCCCCCCC)C)C(C2C(C(C(O2)N3C=CC(=O)NC3=O)O)O)OC4C(C(C(O4)CN)O)O)C
> <PUBCHEM_OPENEYE_ISO_SMILES>
CCCCCCCCCCCCCCCC(=O)O[C@H]1CN(C(C(=O)N(C1C(=O)NCCCCCCCCCCCC)C)[C@H](C2[C@H]([C@H](C(O2)N3C=CC(=O)NC3=O)O)O)OC4[C@@H]([C@@H]([C@H](O4)CN)O)O)C
> <PUBCHEM_CACTVS_TPSA>
263
> <PUBCHEM_MONOISOTOPIC_WEIGHT>
980.64093688
> <PUBCHEM_TOTAL_CHARGE>
0
> <PUBCHEM_HEAVY_ATOM_COUNT>
69
> <PUBCHEM_ATOM_DEF_STEREO_COUNT>
7
> <PUBCHEM_ATOM_UDEF_STEREO_COUNT>
5
> <PUBCHEM_BOND_DEF_STEREO_COUNT>
0
> <PUBCHEM_BOND_UDEF_STEREO_COUNT>
0
> <PUBCHEM_ISOTOPIC_ATOM_COUNT>
0
> <PUBCHEM_COMPONENT_COUNT>
1
> <PUBCHEM_CACTVS_TAUTO_COUNT>
-1
> <PUBCHEM_COORDINATE_TYPE>
1
5
255
> <PUBCHEM_BONDANNOTATIONS>
20  1  3
25  16  3
16  38  8
16  39  8
18  38  8
18  43  8
21  2  5
26  2  3
22  28  3
30  35  3
33  37  5
39  41  8
23  4  6
41  43  8
24  5  6
29  6  5
31  7  6
32  9  6
$$$$
