510166
  -OEChem-10302200282D
110113  0     1  0  0  0  0  0999 V2000
    8.8810   -5.7570    0.0000 O   0  0  0  0  0  0  0  0  0  0  0  0
    6.3177   -6.5280    0.0000 O   0  0  0  0  0  0  0  0  0  0  0  0
    4.5576   -6.2492    0.0000 O   0  0  0  0  0  0  0  0  0  0  0  0
    7.6320   -8.0233    0.0000 O   0  0  0  0  0  0  0  0  0  0  0  0
    9.8023   -8.1751    0.0000 O   0  0  0  0  0  0  0  0  0  0  0  0
    5.6454   -8.5971    0.0000 O   0  0  0  0  0  0  0  0  0  0  0  0
    5.6115   -1.9905    0.0000 O   0  0  0  0  0  0  0  0  0  0  0  0
    8.6594   -4.8756    0.0000 O   0  0  0  0  0  0  0  0  0  0  0  0
    3.4698   -8.5971    0.0000 O   0  0  0  0  0  0  0  0  0  0  0  0
    8.4382   -1.5178    0.0000 O   0  0  0  0  0  0  0  0  0  0  0  0
   11.0363   -7.8385    0.0000 O   0  0  0  0  0  0  0  0  0  0  0  0
   13.5282   -5.4322    0.0000 O   0  0  0  0  0  0  0  0  0  0  0  0
    6.0140   -4.6178    0.0000 N   0  0  3  0  0  0  0  0  0  0  0  0
    7.8830   -3.3706    0.0000 N   0  0  0  0  0  0  0  0  0  0  0  0
   10.6173   -6.1579    0.0000 N   0  0  0  0  0  0  0  0  0  0  0  0
    6.7882   -0.9908    0.0000 N   0  0  0  0  0  0  0  0  0  0  0  0
   12.2823   -6.6353    0.0000 N   0  0  0  0  0  0  0  0  0  0  0  0
    2.5896   -5.5499    0.0000 N   0  0  0  0  0  0  0  0  0  0  0  0
    8.0329   -6.2870    0.0000 C   0  0  3  0  0  0  0  0  0  0  0  0
    7.1057   -5.9124    0.0000 C   0  0  1  0  0  0  0  0  0  0  0  0
    6.9666   -4.9221    0.0000 C   0  0  3  0  0  0  0  0  0  0  0  0
    8.2748   -7.2573    0.0000 C   0  0  2  0  0  0  0  0  0  0  0  0
    9.2724   -7.3270    0.0000 C   0  0  2  0  0  0  0  0  0  0  0  0
    9.6470   -6.3998    0.0000 C   0  0  3  0  0  0  0  0  0  0  0  0
    5.3667   -6.8370    0.0000 C   0  0  3  0  0  0  0  0  0  0  0  0
    7.7984   -4.3670    0.0000 C   0  0  0  0  0  0  0  0  0  0  0  0
    5.6579   -3.6834    0.0000 C   0  0  0  0  0  0  0  0  0  0  0  0
    5.0576   -7.7881    0.0000 C   0  0  1  0  0  0  0  0  0  0  0  0
    6.1665   -2.8224    0.0000 C   0  0  1  0  0  0  0  0  0  0  0  0
    7.1568   -2.6832    0.0000 C   0  0  3  0  0  0  0  0  0  0  0  0
    4.0576   -7.7881    0.0000 C   0  0  1  0  0  0  0  0  0  0  0  0
    3.7486   -6.8370    0.0000 C   0  0  1  0  0  0  0  0  0  0  0  0
    5.3265   -5.3440    0.0000 C   0  0  0  0  0  0  0  0  0  0  0  0
    2.7976   -6.5280    0.0000 C   0  0  0  0  0  0  0  0  0  0  0  0
    7.4611   -1.7306    0.0000 C   0  0  0  0  0  0  0  0  0  0  0  0
    8.8175   -3.0146    0.0000 C   0  0  0  0  0  0  0  0  0  0  0  0
   11.3120   -6.8772    0.0000 C   0  0  0  0  0  0  0  0  0  0  0  0
   10.8929   -5.1966    0.0000 C   0  0  0  0  0  0  0  0  0  0  0  0
   11.8632   -4.9547    0.0000 C   0  0  0  0  0  0  0  0  0  0  0  0
    7.0925   -0.0382    0.0000 C   0  0  0  0  0  0  0  0  0  0  0  0
   12.5579   -5.6741    0.0000 C   0  0  0  0  0  0  0  0  0  0  0  0
    6.4197    0.7016    0.0000 C   0  0  0  0  0  0  0  0  0  0  0  0
    6.7240    1.6542    0.0000 C   0  0  0  0  0  0  0  0  0  0  0  0
    6.0511    2.3940    0.0000 C   0  0  0  0  0  0  0  0  0  0  0  0
    6.3554    3.3466    0.0000 C   0  0  0  0  0  0  0  0  0  0  0  0
    5.6826    4.0864    0.0000 C   0  0  0  0  0  0  0  0  0  0  0  0
    5.9868    5.0389    0.0000 C   0  0  0  0  0  0  0  0  0  0  0  0
    5.3140    5.7787    0.0000 C   0  0  0  0  0  0  0  0  0  0  0  0
    5.6183    6.7313    0.0000 C   0  0  0  0  0  0  0  0  0  0  0  0
    4.9455    7.4711    0.0000 C   0  0  0  0  0  0  0  0  0  0  0  0
    5.2497    8.4237    0.0000 C   0  0  0  0  0  0  0  0  0  0  0  0
    4.5769    9.1635    0.0000 C   0  0  0  0  0  0  0  0  0  0  0  0
    7.9789   -5.6693    0.0000 H   0  0  0  0  0  0  0  0  0  0  0  0
    7.1920   -6.5263    0.0000 H   0  0  0  0  0  0  0  0  0  0  0  0
    6.4926   -5.3218    0.0000 H   0  0  0  0  0  0  0  0  0  0  0  0
    7.6707   -7.1178    0.0000 H   0  0  0  0  0  0  0  0  0  0  0  0
    8.9531   -7.8585    0.0000 H   0  0  0  0  0  0  0  0  0  0  0  0
   10.0538   -6.8678    0.0000 H   0  0  0  0  0  0  0  0  0  0  0  0
    5.8051   -7.2754    0.0000 H   0  0  0  0  0  0  0  0  0  0  0  0
    5.2077   -3.2571    0.0000 H   0  0  0  0  0  0  0  0  0  0  0  0
    5.1422   -4.0275    0.0000 H   0  0  0  0  0  0  0  0  0  0  0  0
    4.7762   -8.3405    0.0000 H   0  0  0  0  0  0  0  0  0  0  0  0
    5.5468   -2.8394    0.0000 H   0  0  0  0  0  0  0  0  0  0  0  0
    7.7572   -2.5287    0.0000 H   0  0  0  0  0  0  0  0  0  0  0  0
    4.3391   -8.3405    0.0000 H   0  0  0  0  0  0  0  0  0  0  0  0
    3.6516   -6.2247    0.0000 H   0  0  0  0  0  0  0  0  0  0  0  0
    4.8762   -4.9178    0.0000 H   0  0  0  0  0  0  0  0  0  0  0  0
    4.9003   -5.7943    0.0000 H   0  0  0  0  0  0  0  0  0  0  0  0
    5.7768   -5.7703    0.0000 H   0  0  0  0  0  0  0  0  0  0  0  0
    7.8441   -8.6059    0.0000 H   0  0  0  0  0  0  0  0  0  0  0  0
    9.5112   -8.7225    0.0000 H   0  0  0  0  0  0  0  0  0  0  0  0
    2.1779   -6.5497    0.0000 H   0  0  0  0  0  0  0  0  0  0  0  0
    2.7113   -7.1420    0.0000 H   0  0  0  0  0  0  0  0  0  0  0  0
    9.0382   -3.5940    0.0000 H   0  0  0  0  0  0  0  0  0  0  0  0
    9.3969   -2.7938    0.0000 H   0  0  0  0  0  0  0  0  0  0  0  0
    8.5968   -2.4352    0.0000 H   0  0  0  0  0  0  0  0  0  0  0  0
   10.4622   -4.7507    0.0000 H   0  0  0  0  0  0  0  0  0  0  0  0
    5.3932   -9.1635    0.0000 H   0  0  0  0  0  0  0  0  0  0  0  0
    4.9928   -2.0307    0.0000 H   0  0  0  0  0  0  0  0  0  0  0  0
    2.8532   -8.5323    0.0000 H   0  0  0  0  0  0  0  0  0  0  0  0
    6.1824   -1.1227    0.0000 H   0  0  0  0  0  0  0  0  0  0  0  0
   12.7129   -7.0813    0.0000 H   0  0  0  0  0  0  0  0  0  0  0  0
   12.0341   -4.3588    0.0000 H   0  0  0  0  0  0  0  0  0  0  0  0
    2.0000   -5.3583    0.0000 H   0  0  0  0  0  0  0  0  0  0  0  0
    3.0504   -5.1350    0.0000 H   0  0  0  0  0  0  0  0  0  0  0  0
    7.6414   -0.3266    0.0000 H   0  0  0  0  0  0  0  0  0  0  0  0
    7.4718    0.4523    0.0000 H   0  0  0  0  0  0  0  0  0  0  0  0
    5.8708    0.9899    0.0000 H   0  0  0  0  0  0  0  0  0  0  0  0
    6.0404    0.2111    0.0000 H   0  0  0  0  0  0  0  0  0  0  0  0
    7.2728    1.3658    0.0000 H   0  0  0  0  0  0  0  0  0  0  0  0
    7.1032    2.1446    0.0000 H   0  0  0  0  0  0  0  0  0  0  0  0
    5.5023    2.6823    0.0000 H   0  0  0  0  0  0  0  0  0  0  0  0
    5.6719    1.9035    0.0000 H   0  0  0  0  0  0  0  0  0  0  0  0
    6.9043    3.0582    0.0000 H   0  0  0  0  0  0  0  0  0  0  0  0
    6.7347    3.8370    0.0000 H   0  0  0  0  0  0  0  0  0  0  0  0
    5.1337    4.3747    0.0000 H   0  0  0  0  0  0  0  0  0  0  0  0
    5.3033    3.5959    0.0000 H   0  0  0  0  0  0  0  0  0  0  0  0
    6.5357    4.7506    0.0000 H   0  0  0  0  0  0  0  0  0  0  0  0
    6.3661    5.5294    0.0000 H   0  0  0  0  0  0  0  0  0  0  0  0
    4.7652    6.0671    0.0000 H   0  0  0  0  0  0  0  0  0  0  0  0
    4.9348    5.2883    0.0000 H   0  0  0  0  0  0  0  0  0  0  0  0
    6.1672    6.4430    0.0000 H   0  0  0  0  0  0  0  0  0  0  0  0
    5.9976    7.2218    0.0000 H   0  0  0  0  0  0  0  0  0  0  0  0
    4.3966    7.7595    0.0000 H   0  0  0  0  0  0  0  0  0  0  0  0
    4.5662    6.9807    0.0000 H   0  0  0  0  0  0  0  0  0  0  0  0
    5.7986    8.1354    0.0000 H   0  0  0  0  0  0  0  0  0  0  0  0
    5.6290    8.9142    0.0000 H   0  0  0  0  0  0  0  0  0  0  0  0
    5.0356    9.5807    0.0000 H   0  0  0  0  0  0  0  0  0  0  0  0
    4.1598    9.6222    0.0000 H   0  0  0  0  0  0  0  0  0  0  0  0
    4.1182    8.7464    0.0000 H   0  0  0  0  0  0  0  0  0  0  0  0
  1 19  1  0  0  0  0
  1 24  1  0  0  0  0
 20  2  1  6  0  0  0
  2 25  1  0  0  0  0
  3 25  1  0  0  0  0
  3 32  1  0  0  0  0
 22  4  1  6  0  0  0
  4 70  1  0  0  0  0
 23  5  1  6  0  0  0
  5 71  1  0  0  0  0
 28  6  1  6  0  0  0
  6 78  1  0  0  0  0
 29  7  1  6  0  0  0
  7 79  1  0  0  0  0
  8 26  2  0  0  0  0
 31  9  1  6  0  0  0
  9 80  1  0  0  0  0
 10 35  2  0  0  0  0
 11 37  2  0  0  0  0
 12 41  2  0  0  0  0
 13 21  1  0  0  0  0
 13 27  1  0  0  0  0
 13 33  1  0  0  0  0
 14 26  1  0  0  0  0
 14 30  1  0  0  0  0
 14 36  1  0  0  0  0
 15 24  1  0  0  0  0
 15 37  1  0  0  0  0
 15 38  1  0  0  0  0
 16 35  1  0  0  0  0
 16 40  1  0  0  0  0
 16 81  1  0  0  0  0
 17 37  1  0  0  0  0
 17 41  1  0  0  0  0
 17 82  1  0  0  0  0
 18 34  1  0  0  0  0
 18 84  1  0  0  0  0
 18 85  1  0  0  0  0
 19 20  1  0  0  0  0
 19 22  1  0  0  0  0
 19 53  1  0  0  0  0
 20 21  1  0  0  0  0
 20 54  1  0  0  0  0
 21 26  1  0  0  0  0
 21 55  1  0  0  0  0
 22 23  1  0  0  0  0
 22 56  1  0  0  0  0
 23 24  1  0  0  0  0
 23 57  1  0  0  0  0
 24 58  1  0  0  0  0
 25 28  1  0  0  0  0
 25 59  1  0  0  0  0
 27 29  1  0  0  0  0
 27 60  1  0  0  0  0
 27 61  1  0  0  0  0
 28 31  1  0  0  0  0
 28 62  1  0  0  0  0
 29 30  1  0  0  0  0
 29 63  1  0  0  0  0
 30 35  1  0  0  0  0
 30 64  1  0  0  0  0
 31 32  1  0  0  0  0
 31 65  1  0  0  0  0
 32 34  1  1  0  0  0
 32 66  1  0  0  0  0
 33 67  1  0  0  0  0
 33 68  1  0  0  0  0
 33 69  1  0  0  0  0
 34 72  1  0  0  0  0
 34 73  1  0  0  0  0
 36 74  1  0  0  0  0
 36 75  1  0  0  0  0
 36 76  1  0  0  0  0
 38 39  2  0  0  0  0
 38 77  1  0  0  0  0
 39 41  1  0  0  0  0
 39 83  1  0  0  0  0
 40 42  1  0  0  0  0
 40 86  1  0  0  0  0
 40 87  1  0  0  0  0
 42 43  1  0  0  0  0
 42 88  1  0  0  0  0
 42 89  1  0  0  0  0
 43 44  1  0  0  0  0
 43 90  1  0  0  0  0
 43 91  1  0  0  0  0
 44 45  1  0  0  0  0
 44 92  1  0  0  0  0
 44 93  1  0  0  0  0
 45 46  1  0  0  0  0
 45 94  1  0  0  0  0
 45 95  1  0  0  0  0
 46 47  1  0  0  0  0
 46 96  1  0  0  0  0
 46 97  1  0  0  0  0
 47 48  1  0  0  0  0
 47 98  1  0  0  0  0
 47 99  1  0  0  0  0
 48 49  1  0  0  0  0
 48100  1  0  0  0  0
 48101  1  0  0  0  0
 49 50  1  0  0  0  0
 49102  1  0  0  0  0
 49103  1  0  0  0  0
 50 51  1  0  0  0  0
 50104  1  0  0  0  0
 50105  1  0  0  0  0
 51 52  1  0  0  0  0
 51106  1  0  0  0  0
 51107  1  0  0  0  0
 52108  1  0  0  0  0
 52109  1  0  0  0  0
 52110  1  0  0  0  0
M  END
> <PUBCHEM_COMPOUND_CID>
510166
> <PUBCHEM_COMPOUND_CANONICALIZED>
1
> <PUBCHEM_CACTVS_COMPLEXITY>
1250
> <PUBCHEM_CACTVS_HBOND_ACCEPTOR>
14
> <PUBCHEM_CACTVS_HBOND_DONOR>
8
> <PUBCHEM_CACTVS_ROTATABLE_BOND>
18
> <PUBCHEM_CACTVS_SUBSKEYS>
AAADcfB/vAAAAAAAAAAAAAAAAAAAASJAAAAgAAAABYAAAAAAAAAAHgAQCAAACDzxgAcDCAPABgCIACFWUACAAAAAAgAIAIGIAECTUBYAwCA/QAAPNyKXAMH+/K/AAAAAAAAAAAAAAAAAAAAAAAAAAAAAAA==
> <PUBCHEM_IUPAC_OPENEYE_NAME>
(6S)-2-[(R)-[(3R,4S,5R)-5-(aminomethyl)-3,4-dihydroxy-tetrahydrofuran-2-yl]oxy-[(3S,4R)-5-(2,4-dioxopyrimidin-1-yl)-3,4-dihydroxy-tetrahydrofuran-2-yl]methyl]-N-dodecyl-6-hydroxy-1,4-dimethyl-3-oxo-1,4-diazepane-5-carboxamide
> <PUBCHEM_IUPAC_CAS_NAME>
(6S)-2-[(R)-[(3R,4S,5R)-5-(aminomethyl)-3,4-dihydroxy-2-oxolanyl]oxy-[(3S,4R)-5-(2,4-dioxo-1-pyrimidinyl)-3,4-dihydroxy-2-oxolanyl]methyl]-N-dodecyl-6-hydroxy-1,4-dimethyl-3-oxo-1,4-diazepane-5-carboxamide
> <PUBCHEM_IUPAC_NAME_MARKUP>
(6<I>S</I>)-2-[(<I>R</I>)-[(3<I>R</I>,4<I>S</I>,5<I>R</I>)-5-(aminomethyl)-3,4-dihydroxyoxolan-2-yl]oxy-[(3<I>S</I>,4<I>R</I>)-5-(2,4-dioxopyrimidin-1-yl)-3,4-dihydroxyoxolan-2-yl]methyl]-<I>N</I>-dodecyl-6-hydroxy-1,4-dimethyl-3-oxo-1,4-diazepane-5-carboxamide
> <PUBCHEM_IUPAC_NAME>
(6S)-2-[(R)-[(3R,4S,5R)-5-(aminomethyl)-3,4-dihydroxyoxolan-2-yl]oxy-[(3S,4R)-5-(2,4-dioxopyrimidin-1-yl)-3,4-dihydroxyoxolan-2-yl]methyl]-N-dodecyl-6-hydroxy-1,4-dimethyl-3-oxo-1,4-diazepane-5-carboxamide
> <PUBCHEM_IUPAC_SYSTEMATIC_NAME>
(6S)-2-[(R)-[(3R,4S,5R)-5-(aminomethyl)-3,4-bis(oxidanyl)oxolan-2-yl]oxy-[(3S,4R)-5-[2,4-bis(oxidanylidene)pyrimidin-1-yl]-3,4-bis(oxidanyl)oxolan-2-yl]methyl]-N-dodecyl-1,4-dimethyl-6-oxidanyl-3-oxidanylidene-1,4-diazepane-5-carboxamide
> <PUBCHEM_IUPAC_TRADITIONAL_NAME>
(6S)-2-[(R)-[(3R,4S,5R)-5-(aminomethyl)-3,4-dihydroxy-tetrahydrofuran-2-yl]oxy-[(3S,4R)-5-(2,4-diketopyrimidin-1-yl)-3,4-dihydroxy-tetrahydrofuran-2-yl]methyl]-6-hydroxy-3-keto-N-lauryl-1,4-dimethyl-1,4-diazepane-5-carboxamide
> <PUBCHEM_IUPAC_INCHI>
InChI=1S/C34H58N6O12/c1-4-5-6-7-8-9-10-11-12-13-15-36-30(47)22-19(41)18-38(2)23(31(48)39(22)3)28(52-33-27(46)24(43)20(17-35)50-33)29-25(44)26(45)32(51-29)40-16-14-21(42)37-34(40)49/h14,16,19-20,22-29,32-33,41,43-46H,4-13,15,17-18,35H2,1-3H3,(H,36,47)(H,37,42,49)/t19-,20+,22?,23?,24+,25-,26+,27+,28+,29?,32?,33?/m0/s1
> <PUBCHEM_IUPAC_INCHIKEY>
JJEJLZSQWOVQLQ-AQFKQONDSA-N
> <PUBCHEM_XLOGP3_AA>
0.3
> <PUBCHEM_EXACT_MASS>
742.41127131
> <PUBCHEM_MOLECULAR_FORMULA>
C34H58N6O12
> <PUBCHEM_MOLECULAR_WEIGHT>
742.9
> <PUBCHEM_OPENEYE_CAN_SMILES>
CCCCCCCCCCCCNC(=O)C1C(CN(C(C(=O)N1C)C(C2C(C(C(O2)N3C=CC(=O)NC3=O)O)O)OC4C(C(C(O4)CN)O)O)C)O
> <PUBCHEM_OPENEYE_ISO_SMILES>
CCCCCCCCCCCCNC(=O)C1[C@H](CN(C(C(=O)N1C)[C@H](C2[C@H]([C@H](C(O2)N3C=CC(=O)NC3=O)O)O)OC4[C@@H]([C@@H]([C@H](O4)CN)O)O)C)O
> <PUBCHEM_CACTVS_TPSA>
257
> <PUBCHEM_MONOISOTOPIC_WEIGHT>
742.41127131
> <PUBCHEM_TOTAL_CHARGE>
0
> <PUBCHEM_HEAVY_ATOM_COUNT>
52
> <PUBCHEM_ATOM_DEF_STEREO_COUNT>
7
> <PUBCHEM_ATOM_UDEF_STEREO_COUNT>
5
> <PUBCHEM_BOND_DEF_STEREO_COUNT>
0
> <PUBCHEM_BOND_UDEF_STEREO_COUNT>
0
> <PUBCHEM_ISOTOPIC_ATOM_COUNT>
0
> <PUBCHEM_COMPONENT_COUNT>
1
> <PUBCHEM_CACTVS_TAUTO_COUNT>
-1
> <PUBCHEM_COORDINATE_TYPE>
1
5
255
> <PUBCHEM_BONDANNOTATIONS>
19  1  3
24  15  3
15  37  8
15  38  8
17  37  8
17  41  8
20  2  6
25  2  3
21  26  3
30  35  3
32  34  5
38  39  8
39  41  8
22  4  6
23  5  6
28  6  6
29  7  6
31  9  6
$$$$
