510170
  -OEChem-10302200282D
145148  0     1  0  0  0  0  0999 V2000
    6.4781    3.6604    0.0000 O   0  0  0  0  0  0  0  0  0  0  0  0
    7.9915    2.2210    0.0000 O   0  0  0  0  0  0  0  0  0  0  0  0
    6.2314    2.4998    0.0000 O   0  0  0  0  0  0  0  0  0  0  0  0
    8.2036    5.6288    0.0000 O   0  0  0  0  0  0  0  0  0  0  0  0
    6.4393    6.2477    0.0000 O   0  0  0  0  0  0  0  0  0  0  0  0
   12.2559    2.1230    0.0000 O   0  0  0  0  0  0  0  0  0  0  0  0
    7.3192    0.1519    0.0000 O   0  0  0  0  0  0  0  0  0  0  0  0
    9.0680    4.8526    0.0000 O   0  0  0  0  0  0  0  0  0  0  0  0
    5.1436    0.1519    0.0000 O   0  0  0  0  0  0  0  0  0  0  0  0
   12.4306    4.9837    0.0000 O   0  0  0  0  0  0  0  0  0  0  0  0
    5.1646    6.3535    0.0000 O   0  0  0  0  0  0  0  0  0  0  0  0
   11.4504    0.5897    0.0000 O   0  0  0  0  0  0  0  0  0  0  0  0
    2.0000    4.9445    0.0000 O   0  0  0  0  0  0  0  0  0  0  0  0
    9.6009    2.2487    0.0000 N   0  0  3  0  0  0  0  0  0  0  0  0
   10.6459    4.2379    0.0000 N   0  0  0  0  0  0  0  0  0  0  0  0
    4.9836    4.6309    0.0000 N   0  0  0  0  0  0  0  0  0  0  0  0
   13.1272    3.3979    0.0000 N   0  0  0  0  0  0  0  0  0  0  0  0
    3.5823    5.6490    0.0000 N   0  0  0  0  0  0  0  0  0  0  0  0
    3.7282    1.5519    0.0000 N   0  0  0  0  0  0  0  0  0  0  0  0
    7.4562    3.8683    0.0000 C   0  0  3  0  0  0  0  0  0  0  0  0
    8.1994    3.1992    0.0000 C   0  0  1  0  0  0  0  0  0  0  0  0
    9.1988    3.1643    0.0000 C   0  0  3  0  0  0  0  0  0  0  0  0
    7.5608    4.8628    0.0000 C   0  0  2  0  0  0  0  0  0  0  0  0
    6.6472    5.2696    0.0000 C   0  0  2  0  0  0  0  0  0  0  0  0
    5.9781    4.5264    0.0000 C   0  0  3  0  0  0  0  0  0  0  0  0
    7.0404    1.9120    0.0000 C   0  0  3  0  0  0  0  0  0  0  0  0
   10.5675    1.9923    0.0000 C   0  0  0  0  0  0  0  0  0  0  0  0
    9.6638    4.0495    0.0000 C   0  0  0  0  0  0  0  0  0  0  0  0
   11.3706    2.5881    0.0000 C   0  0  1  0  0  0  0  0  0  0  0  0
   11.4055    3.5875    0.0000 C   0  0  3  0  0  0  0  0  0  0  0  0
    6.7314    0.9609    0.0000 C   0  0  1  0  0  0  0  0  0  0  0  0
    5.7314    0.9609    0.0000 C   0  0  1  0  0  0  0  0  0  0  0  0
    5.4224    1.9120    0.0000 C   0  0  1  0  0  0  0  0  0  0  0  0
    8.9506    1.4891    0.0000 C   0  0  0  0  0  0  0  0  0  0  0  0
   12.3211    3.9897    0.0000 C   0  0  0  0  0  0  0  0  0  0  0  0
   10.9023    5.2045    0.0000 C   0  0  0  0  0  0  0  0  0  0  0  0
    4.4713    2.2210    0.0000 C   0  0  0  0  0  0  0  0  0  0  0  0
    4.5768    5.5445    0.0000 C   0  0  0  0  0  0  0  0  0  0  0  0
    4.3958    3.8219    0.0000 C   0  0  0  0  0  0  0  0  0  0  0  0
   12.2958    1.1238    0.0000 C   0  0  0  0  0  0  0  0  0  0  0  0
    3.4013    3.9264    0.0000 C   0  0  0  0  0  0  0  0  0  0  0  0
   14.0427    3.8000    0.0000 C   0  0  0  0  0  0  0  0  0  0  0  0
    2.9945    4.8400    0.0000 C   0  0  0  0  0  0  0  0  0  0  0  0
   13.1811    0.6588    0.0000 C   0  0  0  0  0  0  0  0  0  0  0  0
   14.8488    3.2082    0.0000 C   0  0  0  0  0  0  0  0  0  0  0  0
   13.2210   -0.3404    0.0000 C   0  0  0  0  0  0  0  0  0  0  0  0
   15.7644    3.6104    0.0000 C   0  0  0  0  0  0  0  0  0  0  0  0
   14.1062   -0.8055    0.0000 C   0  0  0  0  0  0  0  0  0  0  0  0
   16.5704    3.0186    0.0000 C   0  0  0  0  0  0  0  0  0  0  0  0
   14.1461   -1.8047    0.0000 C   0  0  0  0  0  0  0  0  0  0  0  0
   17.4860    3.4208    0.0000 C   0  0  0  0  0  0  0  0  0  0  0  0
   15.0314   -2.2698    0.0000 C   0  0  0  0  0  0  0  0  0  0  0  0
   18.2921    2.8290    0.0000 C   0  0  0  0  0  0  0  0  0  0  0  0
   15.0713   -3.2690    0.0000 C   0  0  0  0  0  0  0  0  0  0  0  0
   19.2076    3.2311    0.0000 C   0  0  0  0  0  0  0  0  0  0  0  0
   15.9565   -3.7340    0.0000 C   0  0  0  0  0  0  0  0  0  0  0  0
   20.0137    2.6393    0.0000 C   0  0  0  0  0  0  0  0  0  0  0  0
   15.9964   -4.7332    0.0000 C   0  0  0  0  0  0  0  0  0  0  0  0
   20.9293    3.0415    0.0000 C   0  0  0  0  0  0  0  0  0  0  0  0
   16.8817   -5.1983    0.0000 C   0  0  0  0  0  0  0  0  0  0  0  0
   21.7354    2.4497    0.0000 C   0  0  0  0  0  0  0  0  0  0  0  0
   16.9216   -6.1975    0.0000 C   0  0  0  0  0  0  0  0  0  0  0  0
   22.6509    2.8519    0.0000 C   0  0  0  0  0  0  0  0  0  0  0  0
   17.8069   -6.6626    0.0000 C   0  0  0  0  0  0  0  0  0  0  0  0
   23.4570    2.2600    0.0000 C   0  0  0  0  0  0  0  0  0  0  0  0
    8.0351    4.0905    0.0000 H   0  0  0  0  0  0  0  0  0  0  0  0
    7.6097    3.0076    0.0000 H   0  0  0  0  0  0  0  0  0  0  0  0
    8.8508    2.6511    0.0000 H   0  0  0  0  0  0  0  0  0  0  0  0
    8.1315    4.6206    0.0000 H   0  0  0  0  0  0  0  0  0  0  0  0
    7.1290    5.6597    0.0000 H   0  0  0  0  0  0  0  0  0  0  0  0
    5.7559    5.1052    0.0000 H   0  0  0  0  0  0  0  0  0  0  0  0
    7.4788    1.4736    0.0000 H   0  0  0  0  0  0  0  0  0  0  0  0
   10.2792    1.4434    0.0000 H   0  0  0  0  0  0  0  0  0  0  0  0
   11.0385    1.5890    0.0000 H   0  0  0  0  0  0  0  0  0  0  0  0
   11.9068    2.8994    0.0000 H   0  0  0  0  0  0  0  0  0  0  0  0
   11.4964    4.2008    0.0000 H   0  0  0  0  0  0  0  0  0  0  0  0
    6.4499    0.4085    0.0000 H   0  0  0  0  0  0  0  0  0  0  0  0
    5.1190    1.0579    0.0000 H   0  0  0  0  0  0  0  0  0  0  0  0
    5.3254    2.5244    0.0000 H   0  0  0  0  0  0  0  0  0  0  0  0
    8.4796    1.8924    0.0000 H   0  0  0  0  0  0  0  0  0  0  0  0
    8.5473    1.0182    0.0000 H   0  0  0  0  0  0  0  0  0  0  0  0
    9.4215    1.0858    0.0000 H   0  0  0  0  0  0  0  0  0  0  0  0
    7.9915    6.2115    0.0000 H   0  0  0  0  0  0  0  0  0  0  0  0
    6.9001    6.6626    0.0000 H   0  0  0  0  0  0  0  0  0  0  0  0
   11.5016    5.0455    0.0000 H   0  0  0  0  0  0  0  0  0  0  0  0
   11.0613    5.8037    0.0000 H   0  0  0  0  0  0  0  0  0  0  0  0
   10.3031    5.3634    0.0000 H   0  0  0  0  0  0  0  0  0  0  0  0
    4.7624    2.7684    0.0000 H   0  0  0  0  0  0  0  0  0  0  0  0
    3.9828    2.6027    0.0000 H   0  0  0  0  0  0  0  0  0  0  0  0
    4.6480    3.2555    0.0000 H   0  0  0  0  0  0  0  0  0  0  0  0
    7.0670   -0.4145    0.0000 H   0  0  0  0  0  0  0  0  0  0  0  0
    4.5270    0.2167    0.0000 H   0  0  0  0  0  0  0  0  0  0  0  0
   13.0593    2.7816    0.0000 H   0  0  0  0  0  0  0  0  0  0  0  0
    3.3301    6.2154    0.0000 H   0  0  0  0  0  0  0  0  0  0  0  0
    3.0368    3.4248    0.0000 H   0  0  0  0  0  0  0  0  0  0  0  0
    3.1385    1.7435    0.0000 H   0  0  0  0  0  0  0  0  0  0  0  0
    3.8571    0.9454    0.0000 H   0  0  0  0  0  0  0  0  0  0  0  0
   14.4909    4.2285    0.0000 H   0  0  0  0  0  0  0  0  0  0  0  0
   13.6986    4.3158    0.0000 H   0  0  0  0  0  0  0  0  0  0  0  0
   13.7955    0.5756    0.0000 H   0  0  0  0  0  0  0  0  0  0  0  0
   13.3697    1.2494    0.0000 H   0  0  0  0  0  0  0  0  0  0  0  0
   14.4007    2.7798    0.0000 H   0  0  0  0  0  0  0  0  0  0  0  0
   15.1929    2.6925    0.0000 H   0  0  0  0  0  0  0  0  0  0  0  0
   12.6066   -0.2572    0.0000 H   0  0  0  0  0  0  0  0  0  0  0  0
   13.0323   -0.9310    0.0000 H   0  0  0  0  0  0  0  0  0  0  0  0
   16.2125    4.0389    0.0000 H   0  0  0  0  0  0  0  0  0  0  0  0
   15.4202    4.1261    0.0000 H   0  0  0  0  0  0  0  0  0  0  0  0
   14.7206   -0.8887    0.0000 H   0  0  0  0  0  0  0  0  0  0  0  0
   14.2949   -0.2149    0.0000 H   0  0  0  0  0  0  0  0  0  0  0  0
   16.1223    2.5901    0.0000 H   0  0  0  0  0  0  0  0  0  0  0  0
   16.9146    2.5029    0.0000 H   0  0  0  0  0  0  0  0  0  0  0  0
   13.5317   -1.7215    0.0000 H   0  0  0  0  0  0  0  0  0  0  0  0
   13.9575   -2.3953    0.0000 H   0  0  0  0  0  0  0  0  0  0  0  0
   17.9341    3.8492    0.0000 H   0  0  0  0  0  0  0  0  0  0  0  0
   17.1419    3.9365    0.0000 H   0  0  0  0  0  0  0  0  0  0  0  0
   15.6458   -2.3530    0.0000 H   0  0  0  0  0  0  0  0  0  0  0  0
   15.2200   -1.6792    0.0000 H   0  0  0  0  0  0  0  0  0  0  0  0
   17.8439    2.4005    0.0000 H   0  0  0  0  0  0  0  0  0  0  0  0
   18.6362    2.3132    0.0000 H   0  0  0  0  0  0  0  0  0  0  0  0
   14.4569   -3.1857    0.0000 H   0  0  0  0  0  0  0  0  0  0  0  0
   14.8826   -3.8596    0.0000 H   0  0  0  0  0  0  0  0  0  0  0  0
   19.6558    3.6596    0.0000 H   0  0  0  0  0  0  0  0  0  0  0  0
   18.8635    3.7469    0.0000 H   0  0  0  0  0  0  0  0  0  0  0  0
   16.5709   -3.8172    0.0000 H   0  0  0  0  0  0  0  0  0  0  0  0
   16.1452   -3.1434    0.0000 H   0  0  0  0  0  0  0  0  0  0  0  0
   19.5656    2.2109    0.0000 H   0  0  0  0  0  0  0  0  0  0  0  0
   20.3579    2.1236    0.0000 H   0  0  0  0  0  0  0  0  0  0  0  0
   15.3820   -4.6500    0.0000 H   0  0  0  0  0  0  0  0  0  0  0  0
   15.8078   -5.3238    0.0000 H   0  0  0  0  0  0  0  0  0  0  0  0
   21.3774    3.4700    0.0000 H   0  0  0  0  0  0  0  0  0  0  0  0
   20.5852    3.5572    0.0000 H   0  0  0  0  0  0  0  0  0  0  0  0
   17.4961   -5.2815    0.0000 H   0  0  0  0  0  0  0  0  0  0  0  0
   17.0704   -4.6077    0.0000 H   0  0  0  0  0  0  0  0  0  0  0  0
   21.2872    2.0212    0.0000 H   0  0  0  0  0  0  0  0  0  0  0  0
   22.0795    1.9340    0.0000 H   0  0  0  0  0  0  0  0  0  0  0  0
   16.3072   -6.1143    0.0000 H   0  0  0  0  0  0  0  0  0  0  0  0
   16.7329   -6.7881    0.0000 H   0  0  0  0  0  0  0  0  0  0  0  0
   23.0991    3.2803    0.0000 H   0  0  0  0  0  0  0  0  0  0  0  0
   22.3068    3.3676    0.0000 H   0  0  0  0  0  0  0  0  0  0  0  0
   17.5185   -7.2114    0.0000 H   0  0  0  0  0  0  0  0  0  0  0  0
   18.3557   -6.9509    0.0000 H   0  0  0  0  0  0  0  0  0  0  0  0
   18.0952   -6.1137    0.0000 H   0  0  0  0  0  0  0  0  0  0  0  0
   23.0901    1.7603    0.0000 H   0  0  0  0  0  0  0  0  0  0  0  0
   23.9568    1.8931    0.0000 H   0  0  0  0  0  0  0  0  0  0  0  0
   23.8239    2.7598    0.0000 H   0  0  0  0  0  0  0  0  0  0  0  0
  1 20  1  0  0  0  0
  1 25  1  0  0  0  0
 21  2  1  1  0  0  0
  2 26  1  0  0  0  0
  3 26  1  0  0  0  0
  3 33  1  0  0  0  0
 23  4  1  6  0  0  0
  4 83  1  0  0  0  0
 24  5  1  6  0  0  0
  5 84  1  0  0  0  0
 29  6  1  1  0  0  0
  6 40  1  0  0  0  0
 31  7  1  6  0  0  0
  7 91  1  0  0  0  0
  8 28  2  0  0  0  0
 32  9  1  6  0  0  0
  9 92  1  0  0  0  0
 10 35  2  0  0  0  0
 11 38  2  0  0  0  0
 12 40  2  0  0  0  0
 13 43  2  0  0  0  0
 14 22  1  0  0  0  0
 14 27  1  0  0  0  0
 14 34  1  0  0  0  0
 15 28  1  0  0  0  0
 15 30  1  0  0  0  0
 15 36  1  0  0  0  0
 16 25  1  0  0  0  0
 16 38  1  0  0  0  0
 16 39  1  0  0  0  0
 17 35  1  0  0  0  0
 17 42  1  0  0  0  0
 17 93  1  0  0  0  0
 18 38  1  0  0  0  0
 18 43  1  0  0  0  0
 18 94  1  0  0  0  0
 19 37  1  0  0  0  0
 19 96  1  0  0  0  0
 19 97  1  0  0  0  0
 20 21  1  0  0  0  0
 20 23  1  0  0  0  0
 20 66  1  0  0  0  0
 21 22  1  0  0  0  0
 21 67  1  0  0  0  0
 22 28  1  0  0  0  0
 22 68  1  0  0  0  0
 23 24  1  0  0  0  0
 23 69  1  0  0  0  0
 24 25  1  0  0  0  0
 24 70  1  0  0  0  0
 25 71  1  0  0  0  0
 26 31  1  0  0  0  0
 26 72  1  0  0  0  0
 27 29  1  0  0  0  0
 27 73  1  0  0  0  0
 27 74  1  0  0  0  0
 29 30  1  0  0  0  0
 29 75  1  0  0  0  0
 30 35  1  0  0  0  0
 30 76  1  0  0  0  0
 31 32  1  0  0  0  0
 31 77  1  0  0  0  0
 32 33  1  0  0  0  0
 32 78  1  0  0  0  0
 33 37  1  1  0  0  0
 33 79  1  0  0  0  0
 34 80  1  0  0  0  0
 34 81  1  0  0  0  0
 34 82  1  0  0  0  0
 36 85  1  0  0  0  0
 36 86  1  0  0  0  0
 36 87  1  0  0  0  0
 37 88  1  0  0  0  0
 37 89  1  0  0  0  0
 39 41  2  0  0  0  0
 39 90  1  0  0  0  0
 40 44  1  0  0  0  0
 41 43  1  0  0  0  0
 41 95  1  0  0  0  0
 42 45  1  0  0  0  0
 42 98  1  0  0  0  0
 42 99  1  0  0  0  0
 44 46  1  0  0  0  0
 44100  1  0  0  0  0
 44101  1  0  0  0  0
 45 47  1  0  0  0  0
 45102  1  0  0  0  0
 45103  1  0  0  0  0
 46 48  1  0  0  0  0
 46104  1  0  0  0  0
 46105  1  0  0  0  0
 47 49  1  0  0  0  0
 47106  1  0  0  0  0
 47107  1  0  0  0  0
 48 50  1  0  0  0  0
 48108  1  0  0  0  0
 48109  1  0  0  0  0
 49 51  1  0  0  0  0
 49110  1  0  0  0  0
 49111  1  0  0  0  0
 50 52  1  0  0  0  0
 50112  1  0  0  0  0
 50113  1  0  0  0  0
 51 53  1  0  0  0  0
 51114  1  0  0  0  0
 51115  1  0  0  0  0
 52 54  1  0  0  0  0
 52116  1  0  0  0  0
 52117  1  0  0  0  0
 53 55  1  0  0  0  0
 53118  1  0  0  0  0
 53119  1  0  0  0  0
 54 56  1  0  0  0  0
 54120  1  0  0  0  0
 54121  1  0  0  0  0
 55 57  1  0  0  0  0
 55122  1  0  0  0  0
 55123  1  0  0  0  0
 56 58  1  0  0  0  0
 56124  1  0  0  0  0
 56125  1  0  0  0  0
 57 59  1  0  0  0  0
 57126  1  0  0  0  0
 57127  1  0  0  0  0
 58 60  1  0  0  0  0
 58128  1  0  0  0  0
 58129  1  0  0  0  0
 59 61  1  0  0  0  0
 59130  1  0  0  0  0
 59131  1  0  0  0  0
 60 62  1  0  0  0  0
 60132  1  0  0  0  0
 60133  1  0  0  0  0
 61 63  1  0  0  0  0
 61134  1  0  0  0  0
 61135  1  0  0  0  0
 62 64  1  0  0  0  0
 62136  1  0  0  0  0
 62137  1  0  0  0  0
 63 65  1  0  0  0  0
 63138  1  0  0  0  0
 63139  1  0  0  0  0
 64140  1  0  0  0  0
 64141  1  0  0  0  0
 64142  1  0  0  0  0
 65143  1  0  0  0  0
 65144  1  0  0  0  0
 65145  1  0  0  0  0
M  END
> <PUBCHEM_COMPOUND_CID>
510170
> <PUBCHEM_COMPOUND_CANONICALIZED>
1
> <PUBCHEM_CACTVS_COMPLEXITY>
1530
> <PUBCHEM_CACTVS_HBOND_ACCEPTOR>
15
> <PUBCHEM_CACTVS_HBOND_DONOR>
7
> <PUBCHEM_CACTVS_ROTATABLE_BOND>
30
> <PUBCHEM_CACTVS_SUBSKEYS>
AAADcfB/vAAAAAAAAAAAAAAAAAAAASJAAAAgAAAABYAAAAAAAAAAHgAQCAAACDzxgAcDCAPABgCIACHWWACAAAAAAgAIAIGIAECTUBYAwCA/QAAPNyKXAMH+/K/AAAAAAAAAAAAAAAAAAAAAAAAAAAAAAA==
> <PUBCHEM_IUPAC_OPENEYE_NAME>
[(6S)-2-[(R)-[(3R,4S,5R)-5-(aminomethyl)-3,4-dihydroxy-tetrahydrofuran-2-yl]oxy-[(3S,4R)-5-(2,4-dioxopyrimidin-1-yl)-3,4-dihydroxy-tetrahydrofuran-2-yl]methyl]-5-(dodecylcarbamoyl)-1,4-dimethyl-3-oxo-1,4-diazepan-6-yl] dodecanoate
> <PUBCHEM_IUPAC_CAS_NAME>
dodecanoic acid [(6S)-2-[(R)-[(3R,4S,5R)-5-(aminomethyl)-3,4-dihydroxy-2-oxolanyl]oxy-[(3S,4R)-5-(2,4-dioxo-1-pyrimidinyl)-3,4-dihydroxy-2-oxolanyl]methyl]-5-[(dodecylamino)-oxomethyl]-1,4-dimethyl-3-oxo-1,4-diazepan-6-yl] ester
> <PUBCHEM_IUPAC_NAME_MARKUP>
[(6<I>S</I>)-2-[(<I>R</I>)-[(3<I>R</I>,4<I>S</I>,5<I>R</I>)-5-(aminomethyl)-3,4-dihydroxyoxolan-2-yl]oxy-[(3<I>S</I>,4<I>R</I>)-5-(2,4-dioxopyrimidin-1-yl)-3,4-dihydroxyoxolan-2-yl]methyl]-5-(dodecylcarbamoyl)-1,4-dimethyl-3-oxo-1,4-diazepan-6-yl] dodecanoate
> <PUBCHEM_IUPAC_NAME>
[(6S)-2-[(R)-[(3R,4S,5R)-5-(aminomethyl)-3,4-dihydroxyoxolan-2-yl]oxy-[(3S,4R)-5-(2,4-dioxopyrimidin-1-yl)-3,4-dihydroxyoxolan-2-yl]methyl]-5-(dodecylcarbamoyl)-1,4-dimethyl-3-oxo-1,4-diazepan-6-yl] dodecanoate
> <PUBCHEM_IUPAC_SYSTEMATIC_NAME>
[(6S)-2-[(R)-[(3R,4S,5R)-5-(aminomethyl)-3,4-bis(oxidanyl)oxolan-2-yl]oxy-[(3S,4R)-5-[2,4-bis(oxidanylidene)pyrimidin-1-yl]-3,4-bis(oxidanyl)oxolan-2-yl]methyl]-5-(dodecylcarbamoyl)-1,4-dimethyl-3-oxidanylidene-1,4-diazepan-6-yl] dodecanoate
> <PUBCHEM_IUPAC_TRADITIONAL_NAME>
lauric acid [(6S)-2-[(R)-[(3R,4S,5R)-5-(aminomethyl)-3,4-dihydroxy-tetrahydrofuran-2-yl]oxy-[(3S,4R)-5-(2,4-diketopyrimidin-1-yl)-3,4-dihydroxy-tetrahydrofuran-2-yl]methyl]-3-keto-5-(laurylcarbamoyl)-1,4-dimethyl-1,4-diazepan-6-yl] ester
> <PUBCHEM_IUPAC_INCHI>
InChI=1S/C46H80N6O13/c1-5-7-9-11-13-15-17-19-21-23-26-48-42(59)34-31(62-33(54)24-22-20-18-16-14-12-10-8-6-2)29-50(3)35(43(60)51(34)4)40(65-45-39(58)36(55)30(28-47)63-45)41-37(56)38(57)44(64-41)52-27-25-32(53)49-46(52)61/h25,27,30-31,34-41,44-45,55-58H,5-24,26,28-29,47H2,1-4H3,(H,48,59)(H,49,53,61)/t30-,31+,34?,35?,36-,37+,38-,39-,40-,41?,44?,45?/m1/s1
> <PUBCHEM_IUPAC_INCHIKEY>
ASNOMKMDNPDQRE-HTUUVWEESA-N
> <PUBCHEM_XLOGP3_AA>
5.4
> <PUBCHEM_EXACT_MASS>
924.57833663
> <PUBCHEM_MOLECULAR_FORMULA>
C46H80N6O13
> <PUBCHEM_MOLECULAR_WEIGHT>
925.2
> <PUBCHEM_OPENEYE_CAN_SMILES>
CCCCCCCCCCCCNC(=O)C1C(CN(C(C(=O)N1C)C(C2C(C(C(O2)N3C=CC(=O)NC3=O)O)O)OC4C(C(C(O4)CN)O)O)C)OC(=O)CCCCCCCCCCC
> <PUBCHEM_OPENEYE_ISO_SMILES>
CCCCCCCCCCCCNC(=O)C1[C@H](CN(C(C(=O)N1C)[C@H](C2[C@H]([C@H](C(O2)N3C=CC(=O)NC3=O)O)O)OC4[C@@H]([C@@H]([C@H](O4)CN)O)O)C)OC(=O)CCCCCCCCCCC
> <PUBCHEM_CACTVS_TPSA>
263
> <PUBCHEM_MONOISOTOPIC_WEIGHT>
924.57833663
> <PUBCHEM_TOTAL_CHARGE>
0
> <PUBCHEM_HEAVY_ATOM_COUNT>
65
> <PUBCHEM_ATOM_DEF_STEREO_COUNT>
7
> <PUBCHEM_ATOM_UDEF_STEREO_COUNT>
5
> <PUBCHEM_BOND_DEF_STEREO_COUNT>
0
> <PUBCHEM_BOND_UDEF_STEREO_COUNT>
0
> <PUBCHEM_ISOTOPIC_ATOM_COUNT>
0
> <PUBCHEM_COMPONENT_COUNT>
1
> <PUBCHEM_CACTVS_TAUTO_COUNT>
-1
> <PUBCHEM_COORDINATE_TYPE>
1
5
255
> <PUBCHEM_BONDANNOTATIONS>
20  1  3
25  16  3
16  38  8
16  39  8
18  38  8
18  43  8
21  2  5
26  2  3
22  28  3
30  35  3
33  37  5
39  41  8
23  4  6
41  43  8
24  5  6
29  6  5
31  7  6
32  9  6
$$$$
