510178
  -OEChem-10302200282D
157159  0     1  0  0  0  0  0999 V2000
    6.4781    5.9683    0.0000 O   0  0  0  0  0  0  0  0  0  0  0  0
    7.9915    4.5289    0.0000 O   0  0  0  0  0  0  0  0  0  0  0  0
    6.2314    4.8077    0.0000 O   0  0  0  0  0  0  0  0  0  0  0  0
    8.2036    7.9368    0.0000 O   0  0  0  0  0  0  0  0  0  0  0  0
    6.4393    8.5556    0.0000 O   0  0  0  0  0  0  0  0  0  0  0  0
    7.3192    2.4598    0.0000 O   0  0  0  0  0  0  0  0  0  0  0  0
    5.1436    2.4598    0.0000 O   0  0  0  0  0  0  0  0  0  0  0  0
    9.2592    7.2032    0.0000 O   0  0  0  0  0  0  0  0  0  0  0  0
   10.6072    2.8233    0.0000 O   0  0  0  0  0  0  0  0  0  0  0  0
    5.1646    8.6614    0.0000 O   0  0  0  0  0  0  0  0  0  0  0  0
   12.1969    5.3675    0.0000 O   0  0  0  0  0  0  0  0  0  0  0  0
    2.0000    7.2524    0.0000 O   0  0  0  0  0  0  0  0  0  0  0  0
   11.0767    1.9404    0.0000 O   0  0  0  0  0  0  0  0  0  0  0  0
    9.6682    4.5892    0.0000 N   0  0  3  0  0  0  0  0  0  0  0  0
    4.9836    6.9389    0.0000 N   0  0  0  0  0  0  0  0  0  0  0  0
   10.7281    6.2853    0.0000 N   0  0  0  0  0  0  0  0  0  0  0  0
    3.5823    7.9569    0.0000 N   0  0  0  0  0  0  0  0  0  0  0  0
    3.7282    3.8598    0.0000 N   0  0  0  0  0  0  0  0  0  0  0  0
   12.6060    2.7535    0.0000 N   0  0  0  0  0  0  0  0  0  0  0  0
   13.6658    4.4496    0.0000 N   0  0  0  0  0  0  0  0  0  0  0  0
   12.5455    1.0226    0.0000 N   0  0  0  0  0  0  0  0  0  0  0  0
    7.4562    6.1762    0.0000 C   0  0  3  0  0  0  0  0  0  0  0  0
    8.1994    5.5071    0.0000 C   0  0  1  0  0  0  0  0  0  0  0  0
    7.5608    7.1707    0.0000 C   0  0  2  0  0  0  0  0  0  0  0  0
    6.6472    7.5775    0.0000 C   0  0  2  0  0  0  0  0  0  0  0  0
    5.9781    6.8343    0.0000 C   0  0  3  0  0  0  0  0  0  0  0  0
    9.1988    5.4722    0.0000 C   0  0  1  0  0  0  0  0  0  0  0  0
    7.0404    4.2199    0.0000 C   0  0  3  0  0  0  0  0  0  0  0  0
    6.7314    3.2689    0.0000 C   0  0  1  0  0  0  0  0  0  0  0  0
    5.7314    3.2689    0.0000 C   0  0  1  0  0  0  0  0  0  0  0  0
    5.4224    4.2199    0.0000 C   0  0  1  0  0  0  0  0  0  0  0  0
    9.7287    6.3202    0.0000 C   0  0  0  0  0  0  0  0  0  0  0  0
   10.6676    4.5543    0.0000 C   0  0  0  0  0  0  0  0  0  0  0  0
   11.1371    3.6714    0.0000 C   0  0  1  0  0  0  0  0  0  0  0  0
    4.4713    4.5289    0.0000 C   0  0  0  0  0  0  0  0  0  0  0  0
    9.1383    3.7412    0.0000 C   0  0  0  0  0  0  0  0  0  0  0  0
    4.5768    7.8524    0.0000 C   0  0  0  0  0  0  0  0  0  0  0  0
    4.3958    6.1298    0.0000 C   0  0  0  0  0  0  0  0  0  0  0  0
   12.1365    3.6365    0.0000 C   0  0  3  0  0  0  0  0  0  0  0  0
    3.4013    6.2344    0.0000 C   0  0  0  0  0  0  0  0  0  0  0  0
   12.6664    4.4845    0.0000 C   0  0  0  0  0  0  0  0  0  0  0  0
    2.9945    7.1479    0.0000 C   0  0  0  0  0  0  0  0  0  0  0  0
   11.1976    5.4024    0.0000 C   0  0  0  0  0  0  0  0  0  0  0  0
   13.6054    2.7186    0.0000 C   0  0  0  0  0  0  0  0  0  0  0  0
   12.0760    1.9055    0.0000 C   0  0  0  0  0  0  0  0  0  0  0  0
   14.1957    5.2977    0.0000 C   0  0  0  0  0  0  0  0  0  0  0  0
   15.1951    5.2628    0.0000 C   0  0  0  0  0  0  0  0  0  0  0  0
   12.0156    0.1745    0.0000 C   0  0  0  0  0  0  0  0  0  0  0  0
   15.7250    6.1108    0.0000 C   0  0  0  0  0  0  0  0  0  0  0  0
   12.4851   -0.7084    0.0000 C   0  0  0  0  0  0  0  0  0  0  0  0
   16.7244    6.0759    0.0000 C   0  0  0  0  0  0  0  0  0  0  0  0
   11.9552   -1.5565    0.0000 C   0  0  0  0  0  0  0  0  0  0  0  0
   17.2543    6.9240    0.0000 C   0  0  0  0  0  0  0  0  0  0  0  0
   12.4246   -2.4394    0.0000 C   0  0  0  0  0  0  0  0  0  0  0  0
   18.2537    6.8891    0.0000 C   0  0  0  0  0  0  0  0  0  0  0  0
   11.8947   -3.2875    0.0000 C   0  0  0  0  0  0  0  0  0  0  0  0
   18.7837    7.7371    0.0000 C   0  0  0  0  0  0  0  0  0  0  0  0
   12.3642   -4.1704    0.0000 C   0  0  0  0  0  0  0  0  0  0  0  0
   19.7830    7.7022    0.0000 C   0  0  0  0  0  0  0  0  0  0  0  0
   11.8343   -5.0185    0.0000 C   0  0  0  0  0  0  0  0  0  0  0  0
   20.3130    8.5503    0.0000 C   0  0  0  0  0  0  0  0  0  0  0  0
   12.3037   -5.9014    0.0000 C   0  0  0  0  0  0  0  0  0  0  0  0
   11.7738   -6.7495    0.0000 C   0  0  0  0  0  0  0  0  0  0  0  0
   21.3124    8.5154    0.0000 C   0  0  0  0  0  0  0  0  0  0  0  0
   12.2433   -7.6324    0.0000 C   0  0  0  0  0  0  0  0  0  0  0  0
   21.8423    9.3634    0.0000 C   0  0  0  0  0  0  0  0  0  0  0  0
   11.7134   -8.4805    0.0000 C   0  0  0  0  0  0  0  0  0  0  0  0
   22.8417    9.3285    0.0000 C   0  0  0  0  0  0  0  0  0  0  0  0
   12.1828   -9.3634    0.0000 C   0  0  0  0  0  0  0  0  0  0  0  0
    8.0351    6.3984    0.0000 H   0  0  0  0  0  0  0  0  0  0  0  0
    7.6097    5.3155    0.0000 H   0  0  0  0  0  0  0  0  0  0  0  0
    8.1315    6.9285    0.0000 H   0  0  0  0  0  0  0  0  0  0  0  0
    7.1290    7.9676    0.0000 H   0  0  0  0  0  0  0  0  0  0  0  0
    5.7559    7.4132    0.0000 H   0  0  0  0  0  0  0  0  0  0  0  0
    8.8702    4.9464    0.0000 H   0  0  0  0  0  0  0  0  0  0  0  0
    7.1374    4.8323    0.0000 H   0  0  0  0  0  0  0  0  0  0  0  0
    6.4499    2.7164    0.0000 H   0  0  0  0  0  0  0  0  0  0  0  0
    5.1190    3.3658    0.0000 H   0  0  0  0  0  0  0  0  0  0  0  0
    5.3254    4.8323    0.0000 H   0  0  0  0  0  0  0  0  0  0  0  0
   11.2573    4.7459    0.0000 H   0  0  0  0  0  0  0  0  0  0  0  0
   10.5813    5.1683    0.0000 H   0  0  0  0  0  0  0  0  0  0  0  0
    7.9915    8.5194    0.0000 H   0  0  0  0  0  0  0  0  0  0  0  0
    6.9001    8.9705    0.0000 H   0  0  0  0  0  0  0  0  0  0  0  0
   11.4282    3.1240    0.0000 H   0  0  0  0  0  0  0  0  0  0  0  0
    4.7624    5.0764    0.0000 H   0  0  0  0  0  0  0  0  0  0  0  0
    3.9828    4.9106    0.0000 H   0  0  0  0  0  0  0  0  0  0  0  0
    8.6125    4.0697    0.0000 H   0  0  0  0  0  0  0  0  0  0  0  0
    8.8098    3.2154    0.0000 H   0  0  0  0  0  0  0  0  0  0  0  0
    9.6641    3.4126    0.0000 H   0  0  0  0  0  0  0  0  0  0  0  0
    4.6480    5.5634    0.0000 H   0  0  0  0  0  0  0  0  0  0  0  0
   12.7561    3.6148    0.0000 H   0  0  0  0  0  0  0  0  0  0  0  0
    7.0670    1.8934    0.0000 H   0  0  0  0  0  0  0  0  0  0  0  0
   11.0566    6.8111    0.0000 H   0  0  0  0  0  0  0  0  0  0  0  0
    4.5270    2.5246    0.0000 H   0  0  0  0  0  0  0  0  0  0  0  0
    3.3301    8.5233    0.0000 H   0  0  0  0  0  0  0  0  0  0  0  0
    3.0368    5.7328    0.0000 H   0  0  0  0  0  0  0  0  0  0  0  0
    3.1385    4.0514    0.0000 H   0  0  0  0  0  0  0  0  0  0  0  0
    3.8571    3.2534    0.0000 H   0  0  0  0  0  0  0  0  0  0  0  0
    9.9876    2.8450    0.0000 H   0  0  0  0  0  0  0  0  0  0  0  0
   10.6501    5.1113    0.0000 H   0  0  0  0  0  0  0  0  0  0  0  0
   11.4886    4.8550    0.0000 H   0  0  0  0  0  0  0  0  0  0  0  0
   11.7450    5.6935    0.0000 H   0  0  0  0  0  0  0  0  0  0  0  0
   13.5837    2.0990    0.0000 H   0  0  0  0  0  0  0  0  0  0  0  0
   14.2250    2.6970    0.0000 H   0  0  0  0  0  0  0  0  0  0  0  0
   13.6270    3.3383    0.0000 H   0  0  0  0  0  0  0  0  0  0  0  0
   13.9569    3.9022    0.0000 H   0  0  0  0  0  0  0  0  0  0  0  0
   14.3246    5.9041    0.0000 H   0  0  0  0  0  0  0  0  0  0  0  0
   13.6209    5.5299    0.0000 H   0  0  0  0  0  0  0  0  0  0  0  0
   13.1651    1.0009    0.0000 H   0  0  0  0  0  0  0  0  0  0  0  0
   15.0662    4.6563    0.0000 H   0  0  0  0  0  0  0  0  0  0  0  0
   15.7700    5.0305    0.0000 H   0  0  0  0  0  0  0  0  0  0  0  0
   11.5549    0.5894    0.0000 H   0  0  0  0  0  0  0  0  0  0  0  0
   11.5270   -0.2072    0.0000 H   0  0  0  0  0  0  0  0  0  0  0  0
   15.8539    6.7173    0.0000 H   0  0  0  0  0  0  0  0  0  0  0  0
   15.1502    6.3431    0.0000 H   0  0  0  0  0  0  0  0  0  0  0  0
   12.9458   -1.1233    0.0000 H   0  0  0  0  0  0  0  0  0  0  0  0
   12.9736   -0.3267    0.0000 H   0  0  0  0  0  0  0  0  0  0  0  0
   16.5955    5.4695    0.0000 H   0  0  0  0  0  0  0  0  0  0  0  0
   17.2993    5.8437    0.0000 H   0  0  0  0  0  0  0  0  0  0  0  0
   11.4944   -1.1416    0.0000 H   0  0  0  0  0  0  0  0  0  0  0  0
   11.4666   -1.9382    0.0000 H   0  0  0  0  0  0  0  0  0  0  0  0
   17.3832    7.5304    0.0000 H   0  0  0  0  0  0  0  0  0  0  0  0
   16.6795    7.1562    0.0000 H   0  0  0  0  0  0  0  0  0  0  0  0
   12.8854   -2.8543    0.0000 H   0  0  0  0  0  0  0  0  0  0  0  0
   12.9132   -2.0577    0.0000 H   0  0  0  0  0  0  0  0  0  0  0  0
   18.1248    6.2826    0.0000 H   0  0  0  0  0  0  0  0  0  0  0  0
   18.8286    6.6568    0.0000 H   0  0  0  0  0  0  0  0  0  0  0  0
   11.4340   -2.8726    0.0000 H   0  0  0  0  0  0  0  0  0  0  0  0
   11.4061   -3.6692    0.0000 H   0  0  0  0  0  0  0  0  0  0  0  0
   18.9126    8.3436    0.0000 H   0  0  0  0  0  0  0  0  0  0  0  0
   18.2088    7.9694    0.0000 H   0  0  0  0  0  0  0  0  0  0  0  0
   12.8249   -4.5853    0.0000 H   0  0  0  0  0  0  0  0  0  0  0  0
   12.8527   -3.7887    0.0000 H   0  0  0  0  0  0  0  0  0  0  0  0
   19.6541    7.0958    0.0000 H   0  0  0  0  0  0  0  0  0  0  0  0
   20.3579    7.4700    0.0000 H   0  0  0  0  0  0  0  0  0  0  0  0
   11.3735   -4.6036    0.0000 H   0  0  0  0  0  0  0  0  0  0  0  0
   11.3457   -5.4002    0.0000 H   0  0  0  0  0  0  0  0  0  0  0  0
   20.4419    9.1567    0.0000 H   0  0  0  0  0  0  0  0  0  0  0  0
   19.7381    8.7825    0.0000 H   0  0  0  0  0  0  0  0  0  0  0  0
   12.7645   -6.3163    0.0000 H   0  0  0  0  0  0  0  0  0  0  0  0
   12.7923   -5.5197    0.0000 H   0  0  0  0  0  0  0  0  0  0  0  0
   11.3131   -6.3346    0.0000 H   0  0  0  0  0  0  0  0  0  0  0  0
   11.2852   -7.1312    0.0000 H   0  0  0  0  0  0  0  0  0  0  0  0
   21.1835    7.9089    0.0000 H   0  0  0  0  0  0  0  0  0  0  0  0
   21.8872    8.2831    0.0000 H   0  0  0  0  0  0  0  0  0  0  0  0
   12.7040   -8.0473    0.0000 H   0  0  0  0  0  0  0  0  0  0  0  0
   12.7318   -7.2507    0.0000 H   0  0  0  0  0  0  0  0  0  0  0  0
   21.9712    9.9699    0.0000 H   0  0  0  0  0  0  0  0  0  0  0  0
   21.2674    9.5957    0.0000 H   0  0  0  0  0  0  0  0  0  0  0  0
   11.2526   -8.0656    0.0000 H   0  0  0  0  0  0  0  0  0  0  0  0
   11.2248   -8.8622    0.0000 H   0  0  0  0  0  0  0  0  0  0  0  0
   22.8200    8.7089    0.0000 H   0  0  0  0  0  0  0  0  0  0  0  0
   23.4613    9.3069    0.0000 H   0  0  0  0  0  0  0  0  0  0  0  0
   22.8633    9.9482    0.0000 H   0  0  0  0  0  0  0  0  0  0  0  0
   11.6354   -9.6545    0.0000 H   0  0  0  0  0  0  0  0  0  0  0  0
   12.4739   -9.9109    0.0000 H   0  0  0  0  0  0  0  0  0  0  0  0
   12.7303   -9.0724    0.0000 H   0  0  0  0  0  0  0  0  0  0  0  0
  1 22  1  0  0  0  0
  1 26  1  0  0  0  0
 23  2  1  1  0  0  0
  2 28  1  0  0  0  0
  3 28  1  0  0  0  0
  3 31  1  0  0  0  0
 24  4  1  6  0  0  0
  4 82  1  0  0  0  0
 25  5  1  6  0  0  0
  5 83  1  0  0  0  0
 29  6  1  6  0  0  0
  6 92  1  0  0  0  0
 30  7  1  6  0  0  0
  7 94  1  0  0  0  0
  8 32  2  0  0  0  0
 34  9  1  1  0  0  0
  9 99  1  0  0  0  0
 10 37  2  0  0  0  0
 11 41  2  0  0  0  0
 12 42  2  0  0  0  0
 13 45  2  0  0  0  0
 27 14  1  1  0  0  0
 14 33  1  0  0  0  0
 14 36  1  0  0  0  0
 15 26  1  0  0  0  0
 15 37  1  0  0  0  0
 15 38  1  0  0  0  0
 16 32  1  0  0  0  0
 16 43  1  0  0  0  0
 16 93  1  0  0  0  0
 17 37  1  0  0  0  0
 17 42  1  0  0  0  0
 17 95  1  0  0  0  0
 18 35  1  0  0  0  0
 18 97  1  0  0  0  0
 18 98  1  0  0  0  0
 19 39  1  0  0  0  0
 19 44  1  0  0  0  0
 19 45  1  0  0  0  0
 20 41  1  0  0  0  0
 20 46  1  0  0  0  0
 20106  1  0  0  0  0
 21 45  1  0  0  0  0
 21 48  1  0  0  0  0
 21109  1  0  0  0  0
 22 23  1  0  0  0  0
 22 24  1  0  0  0  0
 22 70  1  0  0  0  0
 23 27  1  0  0  0  0
 23 71  1  0  0  0  0
 24 25  1  0  0  0  0
 24 72  1  0  0  0  0
 25 26  1  0  0  0  0
 25 73  1  0  0  0  0
 26 74  1  0  0  0  0
 27 32  1  0  0  0  0
 27 75  1  0  0  0  0
 28 29  1  0  0  0  0
 28 76  1  0  0  0  0
 29 30  1  0  0  0  0
 29 77  1  0  0  0  0
 30 31  1  0  0  0  0
 30 78  1  0  0  0  0
 31 35  1  1  0  0  0
 31 79  1  0  0  0  0
 33 34  1  0  0  0  0
 33 80  1  0  0  0  0
 33 81  1  0  0  0  0
 34 39  1  0  0  0  0
 34 84  1  0  0  0  0
 35 85  1  0  0  0  0
 35 86  1  0  0  0  0
 36 87  1  0  0  0  0
 36 88  1  0  0  0  0
 36 89  1  0  0  0  0
 38 40  2  0  0  0  0
 38 90  1  0  0  0  0
 39 41  1  0  0  0  0
 39 91  1  0  0  0  0
 40 42  1  0  0  0  0
 40 96  1  0  0  0  0
 43100  1  0  0  0  0
 43101  1  0  0  0  0
 43102  1  0  0  0  0
 44103  1  0  0  0  0
 44104  1  0  0  0  0
 44105  1  0  0  0  0
 46 47  1  0  0  0  0
 46107  1  0  0  0  0
 46108  1  0  0  0  0
 47 49  1  0  0  0  0
 47110  1  0  0  0  0
 47111  1  0  0  0  0
 48 50  1  0  0  0  0
 48112  1  0  0  0  0
 48113  1  0  0  0  0
 49 51  1  0  0  0  0
 49114  1  0  0  0  0
 49115  1  0  0  0  0
 50 52  1  0  0  0  0
 50116  1  0  0  0  0
 50117  1  0  0  0  0
 51 53  1  0  0  0  0
 51118  1  0  0  0  0
 51119  1  0  0  0  0
 52 54  1  0  0  0  0
 52120  1  0  0  0  0
 52121  1  0  0  0  0
 53 55  1  0  0  0  0
 53122  1  0  0  0  0
 53123  1  0  0  0  0
 54 56  1  0  0  0  0
 54124  1  0  0  0  0
 54125  1  0  0  0  0
 55 57  1  0  0  0  0
 55126  1  0  0  0  0
 55127  1  0  0  0  0
 56 58  1  0  0  0  0
 56128  1  0  0  0  0
 56129  1  0  0  0  0
 57 59  1  0  0  0  0
 57130  1  0  0  0  0
 57131  1  0  0  0  0
 58 60  1  0  0  0  0
 58132  1  0  0  0  0
 58133  1  0  0  0  0
 59 61  1  0  0  0  0
 59134  1  0  0  0  0
 59135  1  0  0  0  0
 60 62  1  0  0  0  0
 60136  1  0  0  0  0
 60137  1  0  0  0  0
 61 64  1  0  0  0  0
 61138  1  0  0  0  0
 61139  1  0  0  0  0
 62 63  1  0  0  0  0
 62140  1  0  0  0  0
 62141  1  0  0  0  0
 63 65  1  0  0  0  0
 63142  1  0  0  0  0
 63143  1  0  0  0  0
 64 66  1  0  0  0  0
 64144  1  0  0  0  0
 64145  1  0  0  0  0
 65 67  1  0  0  0  0
 65146  1  0  0  0  0
 65147  1  0  0  0  0
 66 68  1  0  0  0  0
 66148  1  0  0  0  0
 66149  1  0  0  0  0
 67 69  1  0  0  0  0
 67150  1  0  0  0  0
 67151  1  0  0  0  0
 68152  1  0  0  0  0
 68153  1  0  0  0  0
 68154  1  0  0  0  0
 69155  1  0  0  0  0
 69156  1  0  0  0  0
 69157  1  0  0  0  0
M  END
> <PUBCHEM_COMPOUND_CID>
510178
> <PUBCHEM_COMPOUND_CANONICALIZED>
1
> <PUBCHEM_CACTVS_COMPLEXITY>
1570
> <PUBCHEM_CACTVS_HBOND_ACCEPTOR>
15
> <PUBCHEM_CACTVS_HBOND_DONOR>
10
> <PUBCHEM_CACTVS_ROTATABLE_BOND>
35
> <PUBCHEM_CACTVS_SUBSKEYS>
AAADcfB//AAAAAAAAAAAAAAAAAAAASJAAAAgAAAAAAAAAAAAAAAAHgAQCAAACDzxgAcDCAPABgCIACFWUACAAAAAAgAIAIGIAECTUBYAwCA/QAAPNyKXAMH+/K/AAAAAAAAAAAAAAAAAAAAAAAAAAAAAAA==
> <PUBCHEM_IUPAC_OPENEYE_NAME>
(3S)-4-[[(1S)-1-[(R)-[(3R,4S,5R)-5-(aminomethyl)-3,4-dihydroxy-tetrahydrofuran-2-yl]oxy-[(3S,4R)-5-(2,4-dioxopyrimidin-1-yl)-3,4-dihydroxy-tetrahydrofuran-2-yl]methyl]-2-(methylamino)-2-oxo-ethyl]-methyl-amino]-N-dodecyl-2-[dodecylcarbamoyl(methyl)amino]-3-hydroxy-butanamide
> <PUBCHEM_IUPAC_CAS_NAME>
(3S)-4-[[(1R,2S)-1-[[(3R,4S,5R)-5-(aminomethyl)-3,4-dihydroxy-2-oxolanyl]oxy]-1-[(3S,4R)-5-(2,4-dioxo-1-pyrimidinyl)-3,4-dihydroxy-2-oxolanyl]-3-(methylamino)-3-oxopropan-2-yl]-methylamino]-N-dodecyl-2-[[(dodecylamino)-oxomethyl]-methylamino]-3-hydroxybutanamide
> <PUBCHEM_IUPAC_NAME_MARKUP>
(3<I>S</I>)-4-[[(1<I>R</I>,2<I>S</I>)-1-[(3<I>R</I>,4<I>S</I>,5<I>R</I>)-5-(aminomethyl)-3,4-dihydroxyoxolan-2-yl]oxy-1-[(3<I>S</I>,4<I>R</I>)-5-(2,4-dioxopyrimidin-1-yl)-3,4-dihydroxyoxolan-2-yl]-3-(methylamino)-3-oxopropan-2-yl]-methylamino]-<I>N</I>-dodecyl-2-[dodecylcarbamoyl(methyl)amino]-3-hydroxybutanamide
> <PUBCHEM_IUPAC_NAME>
(3S)-4-[[(1R,2S)-1-[(3R,4S,5R)-5-(aminomethyl)-3,4-dihydroxyoxolan-2-yl]oxy-1-[(3S,4R)-5-(2,4-dioxopyrimidin-1-yl)-3,4-dihydroxyoxolan-2-yl]-3-(methylamino)-3-oxopropan-2-yl]-methylamino]-N-dodecyl-2-[dodecylcarbamoyl(methyl)amino]-3-hydroxybutanamide
> <PUBCHEM_IUPAC_SYSTEMATIC_NAME>
(3S)-4-[[(1R,2S)-1-[(3R,4S,5R)-5-(aminomethyl)-3,4-bis(oxidanyl)oxolan-2-yl]oxy-1-[(3S,4R)-5-[2,4-bis(oxidanylidene)pyrimidin-1-yl]-3,4-bis(oxidanyl)oxolan-2-yl]-3-(methylamino)-3-oxidanylidene-propan-2-yl]-methyl-amino]-N-dodecyl-2-[dodecylcarbamoyl(methyl)amino]-3-oxidanyl-butanamide
> <PUBCHEM_IUPAC_TRADITIONAL_NAME>
(3S)-4-[[(1S)-1-[(R)-[(3R,4S,5R)-5-(aminomethyl)-3,4-dihydroxy-tetrahydrofuran-2-yl]oxy-[(3S,4R)-5-(2,4-diketopyrimidin-1-yl)-3,4-dihydroxy-tetrahydrofuran-2-yl]methyl]-2-keto-2-(methylamino)ethyl]-methyl-amino]-3-hydroxy-N-lauryl-2-[laurylcarbamoyl(methyl)amino]butyramide
> <PUBCHEM_IUPAC_INCHI>
InChI=1S/C48H88N8O13/c1-6-8-10-12-14-16-18-20-22-24-27-51-44(64)35(55(5)47(65)52-28-25-23-21-19-17-15-13-11-9-7-2)32(57)31-54(4)36(43(63)50-3)41(69-46-40(62)37(59)33(30-49)67-46)42-38(60)39(61)45(68-42)56-29-26-34(58)53-48(56)66/h26,29,32-33,35-42,45-46,57,59-62H,6-25,27-28,30-31,49H2,1-5H3,(H,50,63)(H,51,64)(H,52,65)(H,53,58,66)/t32-,33+,35?,36-,37+,38-,39+,40+,41+,42?,45?,46?/m0/s1
> <PUBCHEM_IUPAC_INCHIKEY>
IKZQLRPTUPOHFB-PACMMWIUSA-N
> <PUBCHEM_XLOGP3_AA>
4.7
> <PUBCHEM_EXACT_MASS>
984.64708489
> <PUBCHEM_MOLECULAR_FORMULA>
C48H88N8O13
> <PUBCHEM_MOLECULAR_WEIGHT>
985.3
> <PUBCHEM_OPENEYE_CAN_SMILES>
CCCCCCCCCCCCNC(=O)C(C(CN(C)C(C(C1C(C(C(O1)N2C=CC(=O)NC2=O)O)O)OC3C(C(C(O3)CN)O)O)C(=O)NC)O)N(C)C(=O)NCCCCCCCCCCCC
> <PUBCHEM_OPENEYE_ISO_SMILES>
CCCCCCCCCCCCNC(=O)C([C@H](CN(C)[C@@H]([C@H](C1[C@H]([C@H](C(O1)N2C=CC(=O)NC2=O)O)O)OC3[C@@H]([C@@H]([C@H](O3)CN)O)O)C(=O)NC)O)N(C)C(=O)NCCCCCCCCCCCC
> <PUBCHEM_CACTVS_TPSA>
298
> <PUBCHEM_MONOISOTOPIC_WEIGHT>
984.64708489
> <PUBCHEM_TOTAL_CHARGE>
0
> <PUBCHEM_HEAVY_ATOM_COUNT>
69
> <PUBCHEM_ATOM_DEF_STEREO_COUNT>
8
> <PUBCHEM_ATOM_UDEF_STEREO_COUNT>
4
> <PUBCHEM_BOND_DEF_STEREO_COUNT>
0
> <PUBCHEM_BOND_UDEF_STEREO_COUNT>
0
> <PUBCHEM_ISOTOPIC_ATOM_COUNT>
0
> <PUBCHEM_COMPONENT_COUNT>
1
> <PUBCHEM_CACTVS_TAUTO_COUNT>
-1
> <PUBCHEM_COORDINATE_TYPE>
1
5
255
> <PUBCHEM_BONDANNOTATIONS>
22  1  3
27  14  5
26  15  3
15  37  8
15  38  8
17  37  8
17  42  8
23  2  5
28  2  3
31  35  5
38  40  8
39  41  3
24  4  6
40  42  8
25  5  6
29  6  6
30  7  6
34  9  5
$$$$
