510168
  -OEChem-10302200282D
108111  0     1  0  0  0  0  0999 V2000
    6.4781    0.5363    0.0000 O   0  0  0  0  0  0  0  0  0  0  0  0
    7.9915   -0.9030    0.0000 O   0  0  0  0  0  0  0  0  0  0  0  0
    6.2314   -0.6243    0.0000 O   0  0  0  0  0  0  0  0  0  0  0  0
    8.2036    2.5048    0.0000 O   0  0  0  0  0  0  0  0  0  0  0  0
    6.4393    3.1237    0.0000 O   0  0  0  0  0  0  0  0  0  0  0  0
   12.3211    0.8656    0.0000 O   0  0  0  0  0  0  0  0  0  0  0  0
    7.3192   -2.9721    0.0000 O   0  0  0  0  0  0  0  0  0  0  0  0
    8.9506   -1.6349    0.0000 O   0  0  0  0  0  0  0  0  0  0  0  0
    5.1436   -2.9721    0.0000 O   0  0  0  0  0  0  0  0  0  0  0  0
   13.1013   -0.4668    0.0000 O   0  0  0  0  0  0  0  0  0  0  0  0
   12.2958   -2.0002    0.0000 O   0  0  0  0  0  0  0  0  0  0  0  0
    5.1646    3.2294    0.0000 O   0  0  0  0  0  0  0  0  0  0  0  0
   11.6245    2.4514    0.0000 O   0  0  0  0  0  0  0  0  0  0  0  0
    2.0000    1.8205    0.0000 O   0  0  0  0  0  0  0  0  0  0  0  0
    9.6638    0.9255    0.0000 N   0  0  3  0  0  0  0  0  0  0  0  0
   10.5675   -1.1318    0.0000 N   0  0  0  0  0  0  0  0  0  0  0  0
    4.9836    1.5069    0.0000 N   0  0  0  0  0  0  0  0  0  0  0  0
    3.5823    2.5250    0.0000 N   0  0  0  0  0  0  0  0  0  0  0  0
    3.7282   -1.5722    0.0000 N   0  0  0  0  0  0  0  0  0  0  0  0
    7.4562    0.7442    0.0000 C   0  0  3  0  0  0  0  0  0  0  0  0
    8.1994    0.0751    0.0000 C   0  0  1  0  0  0  0  0  0  0  0  0
    9.1988    0.0402    0.0000 C   0  0  3  0  0  0  0  0  0  0  0  0
    7.5608    1.7388    0.0000 C   0  0  2  0  0  0  0  0  0  0  0  0
    6.6472    2.1455    0.0000 C   0  0  2  0  0  0  0  0  0  0  0  0
    5.9781    1.4024    0.0000 C   0  0  3  0  0  0  0  0  0  0  0  0
    7.0404   -1.2120    0.0000 C   0  0  3  0  0  0  0  0  0  0  0  0
   10.6459    1.1139    0.0000 C   0  0  0  0  0  0  0  0  0  0  0  0
    9.6009   -0.8753    0.0000 C   0  0  0  0  0  0  0  0  0  0  0  0
   11.4055    0.4635    0.0000 C   0  0  1  0  0  0  0  0  0  0  0  0
    6.7314   -2.1631    0.0000 C   0  0  1  0  0  0  0  0  0  0  0  0
   11.3706   -0.5359    0.0000 C   0  0  3  0  0  0  0  0  0  0  0  0
    5.7314   -2.1631    0.0000 C   0  0  1  0  0  0  0  0  0  0  0  0
    5.4224   -1.2120    0.0000 C   0  0  1  0  0  0  0  0  0  0  0  0
    9.0680    1.7286    0.0000 C   0  0  0  0  0  0  0  0  0  0  0  0
    4.4713   -0.9030    0.0000 C   0  0  0  0  0  0  0  0  0  0  0  0
   10.7559   -2.1138    0.0000 C   0  0  0  0  0  0  0  0  0  0  0  0
   12.2559   -1.0010    0.0000 C   0  0  0  0  0  0  0  0  0  0  0  0
    4.5768    2.4204    0.0000 C   0  0  0  0  0  0  0  0  0  0  0  0
    4.3958    0.6979    0.0000 C   0  0  0  0  0  0  0  0  0  0  0  0
    3.4013    0.8024    0.0000 C   0  0  0  0  0  0  0  0  0  0  0  0
   12.4306    1.8596    0.0000 C   0  0  0  0  0  0  0  0  0  0  0  0
    2.9945    1.7160    0.0000 C   0  0  0  0  0  0  0  0  0  0  0  0
   13.3461    2.2618    0.0000 C   0  0  0  0  0  0  0  0  0  0  0  0
   14.1522    1.6700    0.0000 C   0  0  0  0  0  0  0  0  0  0  0  0
   15.0678    2.0722    0.0000 C   0  0  0  0  0  0  0  0  0  0  0  0
   15.8739    1.4804    0.0000 C   0  0  0  0  0  0  0  0  0  0  0  0
   16.7894    1.8825    0.0000 C   0  0  0  0  0  0  0  0  0  0  0  0
   17.5955    1.2907    0.0000 C   0  0  0  0  0  0  0  0  0  0  0  0
   18.5111    1.6929    0.0000 C   0  0  0  0  0  0  0  0  0  0  0  0
   19.3171    1.1011    0.0000 C   0  0  0  0  0  0  0  0  0  0  0  0
   20.2327    1.5033    0.0000 C   0  0  0  0  0  0  0  0  0  0  0  0
   21.0388    0.9114    0.0000 C   0  0  0  0  0  0  0  0  0  0  0  0
   21.9543    1.3136    0.0000 C   0  0  0  0  0  0  0  0  0  0  0  0
    8.0351    0.9664    0.0000 H   0  0  0  0  0  0  0  0  0  0  0  0
    7.6097   -0.1165    0.0000 H   0  0  0  0  0  0  0  0  0  0  0  0
    8.8874    0.5764    0.0000 H   0  0  0  0  0  0  0  0  0  0  0  0
    8.1315    1.4965    0.0000 H   0  0  0  0  0  0  0  0  0  0  0  0
    7.1290    2.5357    0.0000 H   0  0  0  0  0  0  0  0  0  0  0  0
    5.7559    1.9812    0.0000 H   0  0  0  0  0  0  0  0  0  0  0  0
    7.4788   -1.6504    0.0000 H   0  0  0  0  0  0  0  0  0  0  0  0
   11.1439    1.4833    0.0000 H   0  0  0  0  0  0  0  0  0  0  0  0
   10.3966    1.6815    0.0000 H   0  0  0  0  0  0  0  0  0  0  0  0
   11.4964    1.0768    0.0000 H   0  0  0  0  0  0  0  0  0  0  0  0
    7.3438   -2.0661    0.0000 H   0  0  0  0  0  0  0  0  0  0  0  0
   11.4185   -1.1541    0.0000 H   0  0  0  0  0  0  0  0  0  0  0  0
    5.1190   -2.0661    0.0000 H   0  0  0  0  0  0  0  0  0  0  0  0
    5.3254   -0.5997    0.0000 H   0  0  0  0  0  0  0  0  0  0  0  0
    9.5659    2.0980    0.0000 H   0  0  0  0  0  0  0  0  0  0  0  0
    8.6986    2.2265    0.0000 H   0  0  0  0  0  0  0  0  0  0  0  0
    8.5701    1.3592    0.0000 H   0  0  0  0  0  0  0  0  0  0  0  0
    7.9915    3.0874    0.0000 H   0  0  0  0  0  0  0  0  0  0  0  0
    6.9001    3.5385    0.0000 H   0  0  0  0  0  0  0  0  0  0  0  0
    4.7624   -0.3556    0.0000 H   0  0  0  0  0  0  0  0  0  0  0  0
    3.9828   -0.5213    0.0000 H   0  0  0  0  0  0  0  0  0  0  0  0
   10.1470   -2.2306    0.0000 H   0  0  0  0  0  0  0  0  0  0  0  0
   10.8727   -2.7228    0.0000 H   0  0  0  0  0  0  0  0  0  0  0  0
   11.3648   -1.9971    0.0000 H   0  0  0  0  0  0  0  0  0  0  0  0
    4.6480    0.1315    0.0000 H   0  0  0  0  0  0  0  0  0  0  0  0
    7.0670   -3.5385    0.0000 H   0  0  0  0  0  0  0  0  0  0  0  0
    4.5270   -2.9073    0.0000 H   0  0  0  0  0  0  0  0  0  0  0  0
    3.3301    3.0914    0.0000 H   0  0  0  0  0  0  0  0  0  0  0  0
    3.0368    0.3008    0.0000 H   0  0  0  0  0  0  0  0  0  0  0  0
    3.1385   -1.3806    0.0000 H   0  0  0  0  0  0  0  0  0  0  0  0
    3.8571   -2.1786    0.0000 H   0  0  0  0  0  0  0  0  0  0  0  0
   13.7943    2.6903    0.0000 H   0  0  0  0  0  0  0  0  0  0  0  0
   13.0020    2.7775    0.0000 H   0  0  0  0  0  0  0  0  0  0  0  0
   13.6502   -0.7552    0.0000 H   0  0  0  0  0  0  0  0  0  0  0  0
   13.7041    1.2415    0.0000 H   0  0  0  0  0  0  0  0  0  0  0  0
   14.4963    1.1543    0.0000 H   0  0  0  0  0  0  0  0  0  0  0  0
   15.5159    2.5006    0.0000 H   0  0  0  0  0  0  0  0  0  0  0  0
   14.7236    2.5879    0.0000 H   0  0  0  0  0  0  0  0  0  0  0  0
   15.4257    1.0519    0.0000 H   0  0  0  0  0  0  0  0  0  0  0  0
   16.2180    0.9646    0.0000 H   0  0  0  0  0  0  0  0  0  0  0  0
   17.2376    2.3110    0.0000 H   0  0  0  0  0  0  0  0  0  0  0  0
   16.4453    2.3983    0.0000 H   0  0  0  0  0  0  0  0  0  0  0  0
   17.1474    0.8623    0.0000 H   0  0  0  0  0  0  0  0  0  0  0  0
   17.9396    0.7750    0.0000 H   0  0  0  0  0  0  0  0  0  0  0  0
   18.9592    2.1214    0.0000 H   0  0  0  0  0  0  0  0  0  0  0  0
   18.1669    2.2086    0.0000 H   0  0  0  0  0  0  0  0  0  0  0  0
   18.8690    0.6726    0.0000 H   0  0  0  0  0  0  0  0  0  0  0  0
   19.6613    0.5854    0.0000 H   0  0  0  0  0  0  0  0  0  0  0  0
   20.6808    1.9317    0.0000 H   0  0  0  0  0  0  0  0  0  0  0  0
   19.8886    2.0190    0.0000 H   0  0  0  0  0  0  0  0  0  0  0  0
   20.5906    0.4830    0.0000 H   0  0  0  0  0  0  0  0  0  0  0  0
   21.3829    0.3957    0.0000 H   0  0  0  0  0  0  0  0  0  0  0  0
   22.2037    0.7460    0.0000 H   0  0  0  0  0  0  0  0  0  0  0  0
   22.5220    1.5630    0.0000 H   0  0  0  0  0  0  0  0  0  0  0  0
   21.7050    1.8813    0.0000 H   0  0  0  0  0  0  0  0  0  0  0  0
  1 20  1  0  0  0  0
  1 25  1  0  0  0  0
 21  2  1  1  0  0  0
  2 26  1  0  0  0  0
  3 26  1  0  0  0  0
  3 33  1  0  0  0  0
 23  4  1  6  0  0  0
  4 71  1  0  0  0  0
 24  5  1  6  0  0  0
  5 72  1  0  0  0  0
 29  6  1  6  0  0  0
  6 41  1  0  0  0  0
 30  7  1  6  0  0  0
  7 79  1  0  0  0  0
  8 28  2  0  0  0  0
 32  9  1  6  0  0  0
  9 80  1  0  0  0  0
 10 37  1  0  0  0  0
 10 87  1  0  0  0  0
 11 37  2  0  0  0  0
 12 38  2  0  0  0  0
 13 41  2  0  0  0  0
 14 42  2  0  0  0  0
 15 22  1  0  0  0  0
 15 27  1  0  0  0  0
 15 34  1  0  0  0  0
 16 28  1  0  0  0  0
 16 31  1  0  0  0  0
 16 36  1  0  0  0  0
 17 25  1  0  0  0  0
 17 38  1  0  0  0  0
 17 39  1  0  0  0  0
 18 38  1  0  0  0  0
 18 42  1  0  0  0  0
 18 81  1  0  0  0  0
 19 35  1  0  0  0  0
 19 83  1  0  0  0  0
 19 84  1  0  0  0  0
 20 21  1  0  0  0  0
 20 23  1  0  0  0  0
 20 54  1  0  0  0  0
 21 22  1  0  0  0  0
 21 55  1  0  0  0  0
 22 28  1  0  0  0  0
 22 56  1  0  0  0  0
 23 24  1  0  0  0  0
 23 57  1  0  0  0  0
 24 25  1  0  0  0  0
 24 58  1  0  0  0  0
 25 59  1  0  0  0  0
 26 30  1  0  0  0  0
 26 60  1  0  0  0  0
 27 29  1  0  0  0  0
 27 61  1  0  0  0  0
 27 62  1  0  0  0  0
 29 31  1  0  0  0  0
 29 63  1  0  0  0  0
 30 32  1  0  0  0  0
 30 64  1  0  0  0  0
 31 37  1  0  0  0  0
 31 65  1  0  0  0  0
 32 33  1  0  0  0  0
 32 66  1  0  0  0  0
 33 35  1  1  0  0  0
 33 67  1  0  0  0  0
 34 68  1  0  0  0  0
 34 69  1  0  0  0  0
 34 70  1  0  0  0  0
 35 73  1  0  0  0  0
 35 74  1  0  0  0  0
 36 75  1  0  0  0  0
 36 76  1  0  0  0  0
 36 77  1  0  0  0  0
 39 40  2  0  0  0  0
 39 78  1  0  0  0  0
 40 42  1  0  0  0  0
 40 82  1  0  0  0  0
 41 43  1  0  0  0  0
 43 44  1  0  0  0  0
 43 85  1  0  0  0  0
 43 86  1  0  0  0  0
 44 45  1  0  0  0  0
 44 88  1  0  0  0  0
 44 89  1  0  0  0  0
 45 46  1  0  0  0  0
 45 90  1  0  0  0  0
 45 91  1  0  0  0  0
 46 47  1  0  0  0  0
 46 92  1  0  0  0  0
 46 93  1  0  0  0  0
 47 48  1  0  0  0  0
 47 94  1  0  0  0  0
 47 95  1  0  0  0  0
 48 49  1  0  0  0  0
 48 96  1  0  0  0  0
 48 97  1  0  0  0  0
 49 50  1  0  0  0  0
 49 98  1  0  0  0  0
 49 99  1  0  0  0  0
 50 51  1  0  0  0  0
 50100  1  0  0  0  0
 50101  1  0  0  0  0
 51 52  1  0  0  0  0
 51102  1  0  0  0  0
 51103  1  0  0  0  0
 52 53  1  0  0  0  0
 52104  1  0  0  0  0
 52105  1  0  0  0  0
 53106  1  0  0  0  0
 53107  1  0  0  0  0
 53108  1  0  0  0  0
M  END
> <PUBCHEM_COMPOUND_CID>
510168
> <PUBCHEM_COMPOUND_CANONICALIZED>
1
> <PUBCHEM_CACTVS_COMPLEXITY>
1320
> <PUBCHEM_CACTVS_HBOND_ACCEPTOR>
16
> <PUBCHEM_CACTVS_HBOND_DONOR>
7
> <PUBCHEM_CACTVS_ROTATABLE_BOND>
19
> <PUBCHEM_CACTVS_SUBSKEYS>
AAADcfB/vAAAAAAAAAAAAAAAAAAAASJAAAAgAAAABYAAAAAAAAAAHgAQCAAACDzxgAcDCAPABgCIACHWWACAAAAAAgAIAIGIAECTUBYAwCA/QAAPNyKXAMH+/K/AAAAAAAAAAAAAAAAAAAAAAAAAAAAAAA==
> <PUBCHEM_IUPAC_OPENEYE_NAME>
(6S)-2-[(R)-[(3R,4S,5R)-5-(aminomethyl)-3,4-dihydroxy-tetrahydrofuran-2-yl]oxy-[(3S,4R)-5-(2,4-dioxopyrimidin-1-yl)-3,4-dihydroxy-tetrahydrofuran-2-yl]methyl]-6-dodecanoyloxy-1,4-dimethyl-3-oxo-1,4-diazepane-5-carboxylic acid
> <PUBCHEM_IUPAC_CAS_NAME>
(6S)-2-[(R)-[(3R,4S,5R)-5-(aminomethyl)-3,4-dihydroxy-2-oxolanyl]oxy-[(3S,4R)-5-(2,4-dioxo-1-pyrimidinyl)-3,4-dihydroxy-2-oxolanyl]methyl]-1,4-dimethyl-3-oxo-6-(1-oxododecoxy)-1,4-diazepane-5-carboxylic acid
> <PUBCHEM_IUPAC_NAME_MARKUP>
(6<I>S</I>)-2-[(<I>R</I>)-[(3<I>R</I>,4<I>S</I>,5<I>R</I>)-5-(aminomethyl)-3,4-dihydroxyoxolan-2-yl]oxy-[(3<I>S</I>,4<I>R</I>)-5-(2,4-dioxopyrimidin-1-yl)-3,4-dihydroxyoxolan-2-yl]methyl]-6-dodecanoyloxy-1,4-dimethyl-3-oxo-1,4-diazepane-5-carboxylic acid
> <PUBCHEM_IUPAC_NAME>
(6S)-2-[(R)-[(3R,4S,5R)-5-(aminomethyl)-3,4-dihydroxyoxolan-2-yl]oxy-[(3S,4R)-5-(2,4-dioxopyrimidin-1-yl)-3,4-dihydroxyoxolan-2-yl]methyl]-6-dodecanoyloxy-1,4-dimethyl-3-oxo-1,4-diazepane-5-carboxylic acid
> <PUBCHEM_IUPAC_SYSTEMATIC_NAME>
(6S)-2-[(R)-[(3R,4S,5R)-5-(aminomethyl)-3,4-bis(oxidanyl)oxolan-2-yl]oxy-[(3S,4R)-5-[2,4-bis(oxidanylidene)pyrimidin-1-yl]-3,4-bis(oxidanyl)oxolan-2-yl]methyl]-6-dodecanoyloxy-1,4-dimethyl-3-oxidanylidene-1,4-diazepane-5-carboxylic acid
> <PUBCHEM_IUPAC_TRADITIONAL_NAME>
(6S)-2-[(R)-[(3R,4S,5R)-5-(aminomethyl)-3,4-dihydroxy-tetrahydrofuran-2-yl]oxy-[(3S,4R)-5-(2,4-diketopyrimidin-1-yl)-3,4-dihydroxy-tetrahydrofuran-2-yl]methyl]-3-keto-6-lauroyloxy-1,4-dimethyl-1,4-diazepane-5-carboxylic acid
> <PUBCHEM_IUPAC_INCHI>
InChI=1S/C34H55N5O14/c1-4-5-6-7-8-9-10-11-12-13-21(41)50-19-17-37(2)23(30(46)38(3)22(19)32(47)48)28(53-33-27(45)24(42)18(16-35)51-33)29-25(43)26(44)31(52-29)39-15-14-20(40)36-34(39)49/h14-15,18-19,22-29,31,33,42-45H,4-13,16-17,35H2,1-3H3,(H,47,48)(H,36,40,49)/t18-,19+,22?,23?,24-,25+,26-,27-,28-,29?,31?,33?/m1/s1
> <PUBCHEM_IUPAC_INCHIKEY>
QVRICHLLIUPVKE-WIWDNJSYSA-N
> <PUBCHEM_XLOGP3_AA>
-2.2
> <PUBCHEM_EXACT_MASS>
757.37455145
> <PUBCHEM_MOLECULAR_FORMULA>
C34H55N5O14
> <PUBCHEM_MOLECULAR_WEIGHT>
757.8
> <PUBCHEM_OPENEYE_CAN_SMILES>
CCCCCCCCCCCC(=O)OC1CN(C(C(=O)N(C1C(=O)O)C)C(C2C(C(C(O2)N3C=CC(=O)NC3=O)O)O)OC4C(C(C(O4)CN)O)O)C
> <PUBCHEM_OPENEYE_ISO_SMILES>
CCCCCCCCCCCC(=O)O[C@H]1CN(C(C(=O)N(C1C(=O)O)C)[C@H](C2[C@H]([C@H](C(O2)N3C=CC(=O)NC3=O)O)O)OC4[C@@H]([C@@H]([C@H](O4)CN)O)O)C
> <PUBCHEM_CACTVS_TPSA>
271
> <PUBCHEM_MONOISOTOPIC_WEIGHT>
757.37455145
> <PUBCHEM_TOTAL_CHARGE>
0
> <PUBCHEM_HEAVY_ATOM_COUNT>
53
> <PUBCHEM_ATOM_DEF_STEREO_COUNT>
7
> <PUBCHEM_ATOM_UDEF_STEREO_COUNT>
5
> <PUBCHEM_BOND_DEF_STEREO_COUNT>
0
> <PUBCHEM_BOND_UDEF_STEREO_COUNT>
0
> <PUBCHEM_ISOTOPIC_ATOM_COUNT>
0
> <PUBCHEM_COMPONENT_COUNT>
1
> <PUBCHEM_CACTVS_TAUTO_COUNT>
-1
> <PUBCHEM_COORDINATE_TYPE>
1
5
255
> <PUBCHEM_BONDANNOTATIONS>
20  1  3
25  17  3
17  38  8
17  39  8
18  38  8
18  42  8
21  2  5
26  2  3
22  28  3
31  37  3
33  35  5
39  40  8
23  4  6
40  42  8
24  5  6
29  6  6
30  7  6
32  9  6
$$$$
