510147
  -OEChem-10302200282D
103106  0     1  0  0  0  0  0999 V2000
   12.9296    1.7244    0.0000 O   0  0  0  0  0  0  0  0  0  0  0  0
   10.5658    0.6719    0.0000 O   0  0  0  0  0  0  0  0  0  0  0  0
   10.5983    2.8472    0.0000 O   0  0  0  0  0  0  0  0  0  0  0  0
   13.2141   -1.9424    0.0000 O   0  0  0  0  0  0  0  0  0  0  0  0
   10.5840   -2.2304    0.0000 O   0  0  0  0  0  0  0  0  0  0  0  0
   13.8942   -1.2094    0.0000 O   0  0  0  0  0  0  0  0  0  0  0  0
   11.1736   -4.1416    0.0000 O   0  0  0  0  0  0  0  0  0  0  0  0
    8.8786    3.0540    0.0000 O   0  0  0  0  0  0  0  0  0  0  0  0
   14.3163    2.9286    0.0000 O   0  0  0  0  0  0  0  0  0  0  0  0
    9.5594    1.4613    0.0000 O   0  0  0  0  0  0  0  0  0  0  0  0
   15.1639   -2.3875    0.0000 O   0  0  0  0  0  0  0  0  0  0  0  0
   13.6469    6.3274    0.0000 O   0  0  0  0  0  0  0  0  0  0  0  0
   15.1941   -5.8970    0.0000 O   0  0  0  0  0  0  0  0  0  0  0  0
   12.6772    3.4885    0.0000 N   0  0  0  0  0  0  0  0  0  0  0  0
   14.2797    0.4792    0.0000 N   0  0  0  0  0  0  0  0  0  0  0  0
   13.9816    4.6280    0.0000 N   0  0  0  0  0  0  0  0  0  0  0  0
   14.7785   -4.0761    0.0000 N   0  0  0  0  0  0  0  0  0  0  0  0
   16.8769   -5.7074    0.0000 N   0  0  0  0  0  0  0  0  0  0  0  0
   12.3298    0.9243    0.0000 C   0  0  1  0  0  0  0  0  0  0  0  0
   11.3835    1.2475    0.0000 C   0  0  2  0  0  0  0  0  0  0  0  0
   12.6246   -0.0313    0.0000 C   0  0  1  0  0  0  0  0  0  0  0  0
   11.3984    2.2474    0.0000 C   0  0  2  0  0  0  0  0  0  0  0  0
   12.3540    2.5421    0.0000 C   0  0  1  0  0  0  0  0  0  0  0  0
   11.9444   -0.7643    0.0000 C   0  0  0  0  0  0  0  0  0  0  0  0
   12.2391   -1.7199    0.0000 C   0  0  2  0  0  0  0  0  0  0  0  0
   11.5590   -2.4530    0.0000 C   0  0  2  0  0  0  0  0  0  0  0  0
   13.5995   -0.2538    0.0000 C   0  0  0  0  0  0  0  0  0  0  0  0
   11.8537   -3.4085    0.0000 C   0  0  2  0  0  0  0  0  0  0  0  0
   13.6584    3.6817    0.0000 C   0  0  0  0  0  0  0  0  0  0  0  0
   12.0193    4.2415    0.0000 C   0  0  0  0  0  0  0  0  0  0  0  0
   13.5088   -2.8980    0.0000 C   0  0  0  0  0  0  0  0  0  0  0  0
   12.8287   -3.6311    0.0000 C   0  0  0  0  0  0  0  0  0  0  0  0
   10.6554   -0.3241    0.0000 C   0  0  0  0  0  0  0  0  0  0  0  0
    9.6788    2.4542    0.0000 C   0  0  0  0  0  0  0  0  0  0  0  0
   12.3425    5.1879    0.0000 C   0  0  0  0  0  0  0  0  0  0  0  0
   14.4838   -3.1205    0.0000 C   0  0  0  0  0  0  0  0  0  0  0  0
   15.7534   -4.2986    0.0000 C   0  0  1  0  0  0  0  0  0  0  0  0
   13.3236    5.3811    0.0000 C   0  0  0  0  0  0  0  0  0  0  0  0
   16.3769   -3.5168    0.0000 C   0  0  0  0  0  0  0  0  0  0  0  0
   17.3769   -3.5168    0.0000 C   0  0  0  0  0  0  0  0  0  0  0  0
   18.0004   -4.2986    0.0000 C   0  0  0  0  0  0  0  0  0  0  0  0
   17.7779   -5.2736    0.0000 C   0  0  1  0  0  0  0  0  0  0  0  0
   15.9760   -5.2736    0.0000 C   0  0  0  0  0  0  0  0  0  0  0  0
    7.9591    2.6610    0.0000 C   0  0  0  0  0  0  0  0  0  0  0  0
   18.5597   -5.8970    0.0000 C   0  0  0  0  0  0  0  0  0  0  0  0
    7.1590    3.2608    0.0000 C   0  0  0  0  0  0  0  0  0  0  0  0
    6.2395    2.8678    0.0000 C   0  0  0  0  0  0  0  0  0  0  0  0
    5.4393    3.4676    0.0000 C   0  0  0  0  0  0  0  0  0  0  0  0
    4.5198    3.0746    0.0000 C   0  0  0  0  0  0  0  0  0  0  0  0
    3.7197    3.6744    0.0000 C   0  0  0  0  0  0  0  0  0  0  0  0
    2.8001    3.2814    0.0000 C   0  0  0  0  0  0  0  0  0  0  0  0
    2.0000    3.8812    0.0000 C   0  0  0  0  0  0  0  0  0  0  0  0
   13.1673    0.7788    0.0000 H   0  0  0  0  0  0  0  0  0  0  0  0
   11.4713    0.6337    0.0000 H   0  0  0  0  0  0  0  0  0  0  0  0
   12.8073   -0.6238    0.0000 H   0  0  0  0  0  0  0  0  0  0  0  0
   10.8419    1.9742    0.0000 H   0  0  0  0  0  0  0  0  0  0  0  0
   11.9222    2.9870    0.0000 H   0  0  0  0  0  0  0  0  0  0  0  0
   11.5700   -0.2701    0.0000 H   0  0  0  0  0  0  0  0  0  0  0  0
   11.3927   -1.0472    0.0000 H   0  0  0  0  0  0  0  0  0  0  0  0
   12.6609   -1.2654    0.0000 H   0  0  0  0  0  0  0  0  0  0  0  0
   11.1373   -2.9075    0.0000 H   0  0  0  0  0  0  0  0  0  0  0  0
   12.0365   -4.0010    0.0000 H   0  0  0  0  0  0  0  0  0  0  0  0
   11.4110    4.1217    0.0000 H   0  0  0  0  0  0  0  0  0  0  0  0
   13.0114   -4.2235    0.0000 H   0  0  0  0  0  0  0  0  0  0  0  0
   10.0379   -0.3797    0.0000 H   0  0  0  0  0  0  0  0  0  0  0  0
   10.7110   -0.9416    0.0000 H   0  0  0  0  0  0  0  0  0  0  0  0
   11.2729   -0.2685    0.0000 H   0  0  0  0  0  0  0  0  0  0  0  0
   14.8841    0.3413    0.0000 H   0  0  0  0  0  0  0  0  0  0  0  0
   14.0969    1.0717    0.0000 H   0  0  0  0  0  0  0  0  0  0  0  0
   10.1623   -2.6849    0.0000 H   0  0  0  0  0  0  0  0  0  0  0  0
   14.5899    4.7479    0.0000 H   0  0  0  0  0  0  0  0  0  0  0  0
   11.9346    5.6548    0.0000 H   0  0  0  0  0  0  0  0  0  0  0  0
   11.3563   -4.7340    0.0000 H   0  0  0  0  0  0  0  0  0  0  0  0
   15.5487   -3.7134    0.0000 H   0  0  0  0  0  0  0  0  0  0  0  0
   16.5149   -2.9123    0.0000 H   0  0  0  0  0  0  0  0  0  0  0  0
   15.8183   -3.2478    0.0000 H   0  0  0  0  0  0  0  0  0  0  0  0
   14.3568   -4.5306    0.0000 H   0  0  0  0  0  0  0  0  0  0  0  0
   17.9355   -3.2478    0.0000 H   0  0  0  0  0  0  0  0  0  0  0  0
   17.2390   -2.9123    0.0000 H   0  0  0  0  0  0  0  0  0  0  0  0
   18.5590   -4.5676    0.0000 H   0  0  0  0  0  0  0  0  0  0  0  0
   18.3870   -3.8139    0.0000 H   0  0  0  0  0  0  0  0  0  0  0  0
   17.7085   -5.8897    0.0000 H   0  0  0  0  0  0  0  0  0  0  0  0
   16.8769   -6.3274    0.0000 H   0  0  0  0  0  0  0  0  0  0  0  0
    7.5067    2.2370    0.0000 H   0  0  0  0  0  0  0  0  0  0  0  0
    8.2981    2.1418    0.0000 H   0  0  0  0  0  0  0  0  0  0  0  0
   18.1732   -6.3818    0.0000 H   0  0  0  0  0  0  0  0  0  0  0  0
   19.0445   -6.2836    0.0000 H   0  0  0  0  0  0  0  0  0  0  0  0
   18.9463   -5.4123    0.0000 H   0  0  0  0  0  0  0  0  0  0  0  0
    7.6114    3.6848    0.0000 H   0  0  0  0  0  0  0  0  0  0  0  0
    6.8200    3.7799    0.0000 H   0  0  0  0  0  0  0  0  0  0  0  0
    5.7871    2.4438    0.0000 H   0  0  0  0  0  0  0  0  0  0  0  0
    6.5784    2.3486    0.0000 H   0  0  0  0  0  0  0  0  0  0  0  0
    5.8917    3.8916    0.0000 H   0  0  0  0  0  0  0  0  0  0  0  0
    5.1004    3.9867    0.0000 H   0  0  0  0  0  0  0  0  0  0  0  0
    4.0674    2.6506    0.0000 H   0  0  0  0  0  0  0  0  0  0  0  0
    4.8588    2.5554    0.0000 H   0  0  0  0  0  0  0  0  0  0  0  0
    4.1720    4.0984    0.0000 H   0  0  0  0  0  0  0  0  0  0  0  0
    3.3807    4.1935    0.0000 H   0  0  0  0  0  0  0  0  0  0  0  0
    2.3478    2.8574    0.0000 H   0  0  0  0  0  0  0  0  0  0  0  0
    3.1391    2.7622    0.0000 H   0  0  0  0  0  0  0  0  0  0  0  0
    2.3719    4.3773    0.0000 H   0  0  0  0  0  0  0  0  0  0  0  0
    1.5039    4.2531    0.0000 H   0  0  0  0  0  0  0  0  0  0  0  0
    1.6281    3.3851    0.0000 H   0  0  0  0  0  0  0  0  0  0  0  0
  1 19  1  0  0  0  0
  1 23  1  0  0  0  0
 20  2  1  1  0  0  0
  2 33  1  0  0  0  0
 22  3  1  1  0  0  0
  3 34  1  0  0  0  0
  4 25  1  0  0  0  0
  4 31  1  0  0  0  0
 26  5  1  6  0  0  0
  5 70  1  0  0  0  0
  6 27  2  0  0  0  0
 28  7  1  6  0  0  0
  7 73  1  0  0  0  0
  8 34  1  0  0  0  0
  8 44  1  0  0  0  0
  9 29  2  0  0  0  0
 10 34  2  0  0  0  0
 11 36  2  0  0  0  0
 12 38  2  0  0  0  0
 13 43  2  0  0  0  0
 23 14  1  6  0  0  0
 14 29  1  0  0  0  0
 14 30  1  0  0  0  0
 15 27  1  0  0  0  0
 15 68  1  0  0  0  0
 15 69  1  0  0  0  0
 16 29  1  0  0  0  0
 16 38  1  0  0  0  0
 16 71  1  0  0  0  0
 17 36  1  0  0  0  0
 37 17  1  1  0  0  0
 17 77  1  0  0  0  0
 18 42  1  0  0  0  0
 18 43  1  0  0  0  0
 18 83  1  0  0  0  0
 19 20  1  0  0  0  0
 19 21  1  0  0  0  0
 19 53  1  1  0  0  0
 20 22  1  0  0  0  0
 20 54  1  0  0  0  0
 21 24  1  6  0  0  0
 21 27  1  0  0  0  0
 21 55  1  0  0  0  0
 22 23  1  0  0  0  0
 22 56  1  0  0  0  0
 23 57  1  0  0  0  0
 25 24  1  1  0  0  0
 24 58  1  0  0  0  0
 24 59  1  0  0  0  0
 25 26  1  0  0  0  0
 25 60  1  0  0  0  0
 26 28  1  0  0  0  0
 26 61  1  0  0  0  0
 28 32  1  0  0  0  0
 28 62  1  0  0  0  0
 30 35  2  0  0  0  0
 30 63  1  0  0  0  0
 31 32  2  0  0  0  0
 31 36  1  0  0  0  0
 32 64  1  0  0  0  0
 33 65  1  0  0  0  0
 33 66  1  0  0  0  0
 33 67  1  0  0  0  0
 35 38  1  0  0  0  0
 35 72  1  0  0  0  0
 37 39  1  0  0  0  0
 37 43  1  0  0  0  0
 37 74  1  0  0  0  0
 39 40  1  0  0  0  0
 39 75  1  0  0  0  0
 39 76  1  0  0  0  0
 40 41  1  0  0  0  0
 40 78  1  0  0  0  0
 40 79  1  0  0  0  0
 41 42  1  0  0  0  0
 41 80  1  0  0  0  0
 41 81  1  0  0  0  0
 42 45  1  1  0  0  0
 42 82  1  0  0  0  0
 44 46  1  0  0  0  0
 44 84  1  0  0  0  0
 44 85  1  0  0  0  0
 45 86  1  0  0  0  0
 45 87  1  0  0  0  0
 45 88  1  0  0  0  0
 46 47  1  0  0  0  0
 46 89  1  0  0  0  0
 46 90  1  0  0  0  0
 47 48  1  0  0  0  0
 47 91  1  0  0  0  0
 47 92  1  0  0  0  0
 48 49  1  0  0  0  0
 48 93  1  0  0  0  0
 48 94  1  0  0  0  0
 49 50  1  0  0  0  0
 49 95  1  0  0  0  0
 49 96  1  0  0  0  0
 50 51  1  0  0  0  0
 50 97  1  0  0  0  0
 50 98  1  0  0  0  0
 51 52  1  0  0  0  0
 51 99  1  0  0  0  0
 51100  1  0  0  0  0
 52101  1  0  0  0  0
 52102  1  0  0  0  0
 52103  1  0  0  0  0
M  END
> <PUBCHEM_COMPOUND_CID>
510147
> <PUBCHEM_COMPOUND_CANONICALIZED>
1
> <PUBCHEM_CACTVS_COMPLEXITY>
1370
> <PUBCHEM_CACTVS_HBOND_ACCEPTOR>
13
> <PUBCHEM_CACTVS_HBOND_DONOR>
6
> <PUBCHEM_CACTVS_ROTATABLE_BOND>
18
> <PUBCHEM_CACTVS_SUBSKEYS>
AAADcfB/vAAAAAAAAAAAAAAAAAAAASAAAAAgQAAABYAAAAAAAAAAHgAQCAAADTzhgAYDCAPABgCIACFWWAKACAAgIgAICIHIAEiTVBYAgCQ/UAAP9yKfEcP6/PzOAAAAAAAAAAAAAAAAAAAAAAAAAAAAAA==
> <PUBCHEM_IUPAC_OPENEYE_NAME>
[(2R,3R,4R,5R)-5-[(1R)-2-amino-1-[[(2R,3S,4S)-3,4-dihydroxy-6-[[(3S,7R)-7-methyl-2-oxo-azepan-3-yl]carbamoyl]-3,4-dihydro-2H-pyran-2-yl]methyl]-2-oxo-ethyl]-2-(2,4-dioxopyrimidin-1-yl)-4-methoxy-tetrahydrofuran-3-yl] octyl carbonate
> <PUBCHEM_IUPAC_CAS_NAME>
carbonic acid [(2R,3R,4R,5R)-5-[(2R)-1-amino-3-[(2R,3S,4S)-3,4-dihydroxy-6-[[[(3S,7R)-7-methyl-2-oxo-3-azepanyl]amino]-oxomethyl]-3,4-dihydro-2H-pyran-2-yl]-1-oxopropan-2-yl]-2-(2,4-dioxo-1-pyrimidinyl)-4-methoxy-3-oxolanyl] octyl ester
> <PUBCHEM_IUPAC_NAME_MARKUP>
[(2<I>R</I>,3<I>R</I>,4<I>R</I>,5<I>R</I>)-5-[(2<I>R</I>)-1-amino-3-[(2<I>R</I>,3<I>S</I>,4<I>S</I>)-3,4-dihydroxy-6-[[(3<I>S</I>,7<I>R</I>)-7-methyl-2-oxoazepan-3-yl]carbamoyl]-3,4-dihydro-2<I>H</I>-pyran-2-yl]-1-oxopropan-2-yl]-2-(2,4-dioxopyrimidin-1-yl)-4-methoxyoxolan-3-yl] octyl carbonate
> <PUBCHEM_IUPAC_NAME>
[(2R,3R,4R,5R)-5-[(2R)-1-amino-3-[(2R,3S,4S)-3,4-dihydroxy-6-[[(3S,7R)-7-methyl-2-oxoazepan-3-yl]carbamoyl]-3,4-dihydro-2H-pyran-2-yl]-1-oxopropan-2-yl]-2-(2,4-dioxopyrimidin-1-yl)-4-methoxyoxolan-3-yl] octyl carbonate
> <PUBCHEM_IUPAC_SYSTEMATIC_NAME>
[(2R,3R,4R,5R)-5-[(2R)-1-azanyl-3-[(2R,3S,4S)-6-[[(3S,7R)-7-methyl-2-oxidanylidene-azepan-3-yl]carbamoyl]-3,4-bis(oxidanyl)-3,4-dihydro-2H-pyran-2-yl]-1-oxidanylidene-propan-2-yl]-2-[2,4-bis(oxidanylidene)pyrimidin-1-yl]-4-methoxy-oxolan-3-yl] octyl carbonate
> <PUBCHEM_IUPAC_TRADITIONAL_NAME>
carbonic acid [(2R,3R,4R,5R)-5-[(1R)-2-amino-1-[[(2R,3S,4S)-3,4-dihydroxy-6-[[(3S,7R)-2-keto-7-methyl-azepan-3-yl]carbamoyl]-3,4-dihydro-2H-pyran-2-yl]methyl]-2-keto-ethyl]-2-(2,4-diketopyrimidin-1-yl)-4-methoxy-tetrahydrofuran-3-yl] octyl ester
> <PUBCHEM_IUPAC_INCHI>
InChI=1S/C34H51N5O13/c1-4-5-6-7-8-9-15-49-34(47)52-28-27(48-3)26(51-32(28)39-14-13-24(41)38-33(39)46)19(29(35)43)16-22-25(42)21(40)17-23(50-22)31(45)37-20-12-10-11-18(2)36-30(20)44/h13-14,17-22,25-28,32,40,42H,4-12,15-16H2,1-3H3,(H2,35,43)(H,36,44)(H,37,45)(H,38,41,46)/t18-,19-,20+,21+,22-,25+,26-,27-,28-,32-/m1/s1
> <PUBCHEM_IUPAC_INCHIKEY>
FSCBHZCWRCOEMD-MENIGUIESA-N
> <PUBCHEM_XLOGP3_AA>
1.1
> <PUBCHEM_EXACT_MASS>
737.34833670
> <PUBCHEM_MOLECULAR_FORMULA>
C34H51N5O13
> <PUBCHEM_MOLECULAR_WEIGHT>
737.8
> <PUBCHEM_OPENEYE_CAN_SMILES>
CCCCCCCCOC(=O)OC1C(C(OC1N2C=CC(=O)NC2=O)C(CC3C(C(C=C(O3)C(=O)NC4CCCC(NC4=O)C)O)O)C(=O)N)OC
> <PUBCHEM_OPENEYE_ISO_SMILES>
CCCCCCCCOC(=O)O[C@@H]1[C@@H]([C@H](O[C@H]1N2C=CC(=O)NC2=O)[C@@H](C[C@@H]3[C@H]([C@H](C=C(O3)C(=O)N[C@H]4CCC[C@H](NC4=O)C)O)O)C(=O)N)OC
> <PUBCHEM_CACTVS_TPSA>
254
> <PUBCHEM_MONOISOTOPIC_WEIGHT>
737.34833670
> <PUBCHEM_TOTAL_CHARGE>
0
> <PUBCHEM_HEAVY_ATOM_COUNT>
52
> <PUBCHEM_ATOM_DEF_STEREO_COUNT>
10
> <PUBCHEM_ATOM_UDEF_STEREO_COUNT>
0
> <PUBCHEM_BOND_DEF_STEREO_COUNT>
0
> <PUBCHEM_BOND_UDEF_STEREO_COUNT>
0
> <PUBCHEM_ISOTOPIC_ATOM_COUNT>
0
> <PUBCHEM_COMPONENT_COUNT>
1
> <PUBCHEM_CACTVS_TAUTO_COUNT>
-1
> <PUBCHEM_COORDINATE_TYPE>
1
5
255
> <PUBCHEM_BONDANNOTATIONS>
23  14  6
14  29  8
14  30  8
16  29  8
16  38  8
37  17  5
19  53  5
20  2  5
21  24  6
25  24  5
22  3  5
30  35  8
35  38  8
42  45  5
26  5  6
28  7  6
$$$$
