510138
  -OEChem-10302200282D
 39 40  0     1  0  0  0  0  0999 V2000
    6.8909   -2.6126    0.0000 P   0  0  0  0  0  0  0  0  0  0  0  0
    5.0298   -0.1481    0.0000 O   0  0  0  0  0  0  0  0  0  0  0  0
    2.4608    0.1610    0.0000 O   0  0  0  0  0  0  0  0  0  0  0  0
    6.3031   -1.8036    0.0000 O   0  0  0  0  0  0  0  0  0  0  0  0
    5.9529    1.4397    0.0000 O   0  0  0  0  0  0  0  0  0  0  0  0
    4.2208    4.4397    0.0000 O   0  0  0  0  0  0  0  0  0  0  0  0
    7.4787   -3.4216    0.0000 O   0  5  0  0  0  0  0  0  0  0  0  0
    7.6999   -2.0248    0.0000 O   0  5  0  0  0  0  0  0  0  0  0  0
    6.0819   -3.2004    0.0000 O   0  0  0  0  0  0  0  0  0  0  0  0
    4.2208    1.4397    0.0000 N   0  0  0  0  0  0  0  0  0  0  0  0
    3.5398   -2.8217    0.0000 N   0  0  0  0  0  0  0  0  0  0  0  0
    5.0868    2.9397    0.0000 N   0  0  0  0  0  0  0  0  0  0  0  0
    2.9520   -3.6307    0.0000 N   0  3  0  0  0  0  0  0  0  0  0  0
    2.3642   -4.4397    0.0000 N   0  5  0  0  0  0  0  0  0  0  0  0
    3.7208   -1.0991    0.0000 C   0  0  1  0  0  0  0  0  0  0  0  0
    3.4118   -0.1481    0.0000 C   0  0  2  0  0  0  0  0  0  0  0  0
    4.7208   -1.0991    0.0000 C   0  0  1  0  0  0  0  0  0  0  0  0
    4.2208    0.4397    0.0000 C   0  0  1  0  0  0  0  0  0  0  0  0
    3.1330   -1.9081    0.0000 C   0  0  0  0  0  0  0  0  0  0  0  0
    5.3086   -1.9081    0.0000 C   0  0  0  0  0  0  0  0  0  0  0  0
    3.3548    1.9397    0.0000 C   0  0  0  0  0  0  0  0  0  0  0  0
    5.0868    1.9397    0.0000 C   0  0  0  0  0  0  0  0  0  0  0  0
    3.3548    2.9397    0.0000 C   0  0  0  0  0  0  0  0  0  0  0  0
    4.2208    3.4397    0.0000 C   0  0  0  0  0  0  0  0  0  0  0  0
    2.4888    3.4397    0.0000 C   0  0  0  0  0  0  0  0  0  0  0  0
    3.1085   -1.0021    0.0000 H   0  0  0  0  0  0  0  0  0  0  0  0
    2.9734   -0.5865    0.0000 H   0  0  0  0  0  0  0  0  0  0  0  0
    5.3332   -1.0021    0.0000 H   0  0  0  0  0  0  0  0  0  0  0  0
    3.6684    0.7212    0.0000 H   0  0  0  0  0  0  0  0  0  0  0  0
    2.7024   -1.4622    0.0000 H   0  0  0  0  0  0  0  0  0  0  0  0
    2.6190   -2.2548    0.0000 H   0  0  0  0  0  0  0  0  0  0  0  0
    4.7514   -2.1799    0.0000 H   0  0  0  0  0  0  0  0  0  0  0  0
    5.4795   -2.5041    0.0000 H   0  0  0  0  0  0  0  0  0  0  0  0
    2.0000   -0.2539    0.0000 H   0  0  0  0  0  0  0  0  0  0  0  0
    2.8179    1.6297    0.0000 H   0  0  0  0  0  0  0  0  0  0  0  0
    5.6238    3.2497    0.0000 H   0  0  0  0  0  0  0  0  0  0  0  0
    2.7988    3.9767    0.0000 H   0  0  0  0  0  0  0  0  0  0  0  0
    1.9518    3.7497    0.0000 H   0  0  0  0  0  0  0  0  0  0  0  0
    2.1788    2.9028    0.0000 H   0  0  0  0  0  0  0  0  0  0  0  0
  1  4  1  0  0  0  0
  1  7  1  0  0  0  0
  1  8  1  0  0  0  0
  1  9  2  0  0  0  0
  2 17  1  0  0  0  0
  2 18  1  0  0  0  0
 16  3  1  1  0  0  0
  3 34  1  0  0  0  0
  4 20  1  0  0  0  0
  5 22  2  0  0  0  0
  6 24  2  0  0  0  0
 18 10  1  6  0  0  0
 10 21  1  0  0  0  0
 10 22  1  0  0  0  0
 11 13  2  0  0  0  0
 11 19  1  0  0  0  0
 12 22  1  0  0  0  0
 12 24  1  0  0  0  0
 12 36  1  0  0  0  0
 13 14  2  0  0  0  0
 15 16  1  0  0  0  0
 15 17  1  0  0  0  0
 15 19  1  1  0  0  0
 15 26  1  0  0  0  0
 16 18  1  0  0  0  0
 16 27  1  0  0  0  0
 17 20  1  6  0  0  0
 17 28  1  0  0  0  0
 18 29  1  0  0  0  0
 19 30  1  0  0  0  0
 19 31  1  0  0  0  0
 20 32  1  0  0  0  0
 20 33  1  0  0  0  0
 21 23  2  0  0  0  0
 21 35  1  0  0  0  0
 23 24  1  0  0  0  0
 23 25  1  0  0  0  0
 25 37  1  0  0  0  0
 25 38  1  0  0  0  0
 25 39  1  0  0  0  0
M  CHG  4   7  -1   8  -1  13   1  14  -1
M  END
> <PUBCHEM_COMPOUND_CID>
510138
> <PUBCHEM_COMPOUND_CANONICALIZED>
1
> <PUBCHEM_CACTVS_COMPLEXITY>
674
> <PUBCHEM_CACTVS_HBOND_ACCEPTOR>
10
> <PUBCHEM_CACTVS_HBOND_DONOR>
2
> <PUBCHEM_CACTVS_ROTATABLE_BOND>
5
> <PUBCHEM_CACTVS_SUBSKEYS>
AAADccBzvAIAAAAAAAAAAAAAAAAAASAAAAAgAAAAAAAAAAAAAAAAHgAYCCAADRThgAYDAAPABxCKQgFWUICAAAAAAAAAAAEIAECDEAIAgQAOQAAPByITAMDwMAIKAAAAAAAAAAAAAAAAAAAAAAAAAAAAAA==
> <PUBCHEM_IUPAC_OPENEYE_NAME>
[(2S,3S,4R,5R)-3-(azidomethyl)-4-hydroxy-5-(5-methyl-2,4-dioxo-pyrimidin-1-yl)tetrahydrofuran-2-yl]methyl phosphate
> <PUBCHEM_IUPAC_CAS_NAME>
[(2S,3S,4R,5R)-3-(azidomethyl)-4-hydroxy-5-(5-methyl-2,4-dioxo-1-pyrimidinyl)-2-oxolanyl]methyl phosphate
> <PUBCHEM_IUPAC_NAME_MARKUP>
[(2<I>S</I>,3<I>S</I>,4<I>R</I>,5<I>R</I>)-3-(azidomethyl)-4-hydroxy-5-(5-methyl-2,4-dioxopyrimidin-1-yl)oxolan-2-yl]methyl phosphate
> <PUBCHEM_IUPAC_NAME>
[(2S,3S,4R,5R)-3-(azidomethyl)-4-hydroxy-5-(5-methyl-2,4-dioxopyrimidin-1-yl)oxolan-2-yl]methyl phosphate
> <PUBCHEM_IUPAC_SYSTEMATIC_NAME>
[(2S,3S,4R,5R)-3-(azidomethyl)-5-[5-methyl-2,4-bis(oxidanylidene)pyrimidin-1-yl]-4-oxidanyl-oxolan-2-yl]methyl phosphate
> <PUBCHEM_IUPAC_TRADITIONAL_NAME>
[(2S,3S,4R,5R)-3-(azidomethyl)-5-(2,4-diketo-5-methyl-pyrimidin-1-yl)-4-hydroxy-tetrahydrofuran-2-yl]methyl phosphate
> <PUBCHEM_IUPAC_INCHI>
InChI=1S/C11H16N5O8P/c1-5-3-16(11(19)14-9(5)18)10-8(17)6(2-13-15-12)7(24-10)4-23-25(20,21)22/h3,6-8,10,17H,2,4H2,1H3,(H,14,18,19)(H2,20,21,22)/p-2/t6-,7-,8-,10-/m1/s1
> <PUBCHEM_IUPAC_INCHIKEY>
FROSCFRFIGNCPC-FDDDBJFASA-L
> <PUBCHEM_XLOGP3_AA>
-2
> <PUBCHEM_EXACT_MASS>
375.05799942
> <PUBCHEM_MOLECULAR_FORMULA>
C11H14N5O8P-2
> <PUBCHEM_MOLECULAR_WEIGHT>
375.23
> <PUBCHEM_OPENEYE_CAN_SMILES>
CC1=CN(C(=O)NC1=O)C2C(C(C(O2)COP(=O)([O-])[O-])CN=[N+]=[N-])O
> <PUBCHEM_OPENEYE_ISO_SMILES>
CC1=CN(C(=O)NC1=O)[C@H]2[C@@H]([C@@H]([C@H](O2)COP(=O)([O-])[O-])CN=[N+]=[N-])O
> <PUBCHEM_CACTVS_TPSA>
166
> <PUBCHEM_MONOISOTOPIC_WEIGHT>
375.05799942
> <PUBCHEM_TOTAL_CHARGE>
-2
> <PUBCHEM_HEAVY_ATOM_COUNT>
25
> <PUBCHEM_ATOM_DEF_STEREO_COUNT>
4
> <PUBCHEM_ATOM_UDEF_STEREO_COUNT>
0
> <PUBCHEM_BOND_DEF_STEREO_COUNT>
0
> <PUBCHEM_BOND_UDEF_STEREO_COUNT>
0
> <PUBCHEM_ISOTOPIC_ATOM_COUNT>
0
> <PUBCHEM_COMPONENT_COUNT>
1
> <PUBCHEM_CACTVS_TAUTO_COUNT>
-1
> <PUBCHEM_COORDINATE_TYPE>
1
5
255
> <PUBCHEM_BONDANNOTATIONS>
18  10  6
10  21  8
10  22  8
12  22  8
12  24  8
15  19  5
17  20  6
21  23  8
23  24  8
16  3  5
$$$$
