510279
  -OEChem-10302200282D
 46 47  0     1  0  0  0  0  0999 V2000
    2.0280    1.2420    0.0000 F   0  0  0  0  0  0  0  0  0  0  0  0
    3.2601   -3.2969    0.0000 O   0  0  0  0  0  0  0  0  0  0  0  0
    2.0000   -2.0368    0.0000 O   0  0  0  0  0  0  0  0  0  0  0  0
    6.0234   -5.7239    0.0000 O   0  0  0  0  0  0  0  0  0  0  0  0
    5.4921    2.2420    0.0000 O   0  0  0  0  0  0  0  0  0  0  0  0
    5.4921    5.2420    0.0000 O   0  0  0  0  0  0  0  0  0  0  0  0
    6.3582    3.7420    0.0000 O   0  0  0  0  0  0  0  0  0  0  0  0
    3.7601   -1.7580    0.0000 N   0  0  0  0  0  0  0  0  0  0  0  0
    4.4411   -5.0194    0.0000 N   0  0  0  0  0  0  0  0  0  0  0  0
    3.7601    2.2420    0.0000 N   0  0  0  0  0  0  0  0  0  0  0  0
    4.6261    3.7420    0.0000 N   0  0  0  0  0  0  0  0  0  0  0  0
    4.2601   -3.2969    0.0000 C   0  0  2  0  0  0  0  0  0  0  0  0
    4.5691   -2.3458    0.0000 C   0  0  0  0  0  0  0  0  0  0  0  0
    4.8479   -4.1059    0.0000 C   0  0  0  0  0  0  0  0  0  0  0  0
    2.9511   -2.3458    0.0000 C   0  0  0  0  0  0  0  0  0  0  0  0
    3.7601   -0.7580    0.0000 C   0  0  0  0  0  0  0  0  0  0  0  0
    2.8940   -0.2580    0.0000 C   0  0  0  0  0  0  0  0  0  0  0  0
    4.6261   -0.2580    0.0000 C   0  0  0  0  0  0  0  0  0  0  0  0
    2.8940    0.7420    0.0000 C   0  0  0  0  0  0  0  0  0  0  0  0
    4.6261    0.7420    0.0000 C   0  0  0  0  0  0  0  0  0  0  0  0
    3.7601    1.2420    0.0000 C   0  0  0  0  0  0  0  0  0  0  0  0
    5.0289   -5.8284    0.0000 C   0  0  0  0  0  0  0  0  0  0  0  0
    4.6222   -6.7420    0.0000 C   0  0  0  0  0  0  0  0  0  0  0  0
    4.6261    2.7420    0.0000 C   0  0  0  0  0  0  0  0  0  0  0  0
    5.4921    4.2420    0.0000 C   0  0  0  0  0  0  0  0  0  0  0  0
    6.3582    5.7420    0.0000 C   0  0  0  0  0  0  0  0  0  0  0  0
    6.3582    6.7420    0.0000 C   0  0  0  0  0  0  0  0  0  0  0  0
    3.9786   -3.8493    0.0000 H   0  0  0  0  0  0  0  0  0  0  0  0
    5.1355   -2.5980    0.0000 H   0  0  0  0  0  0  0  0  0  0  0  0
    4.8791   -1.8089    0.0000 H   0  0  0  0  0  0  0  0  0  0  0  0
    5.3619   -4.4526    0.0000 H   0  0  0  0  0  0  0  0  0  0  0  0
    5.2786   -3.6599    0.0000 H   0  0  0  0  0  0  0  0  0  0  0  0
    3.8245   -5.0842    0.0000 H   0  0  0  0  0  0  0  0  0  0  0  0
    2.3571   -0.5680    0.0000 H   0  0  0  0  0  0  0  0  0  0  0  0
    5.1630   -0.5680    0.0000 H   0  0  0  0  0  0  0  0  0  0  0  0
    5.1630    1.0520    0.0000 H   0  0  0  0  0  0  0  0  0  0  0  0
    3.2231    2.5520    0.0000 H   0  0  0  0  0  0  0  0  0  0  0  0
    4.0558   -6.4898    0.0000 H   0  0  0  0  0  0  0  0  0  0  0  0
    4.3700   -7.3084    0.0000 H   0  0  0  0  0  0  0  0  0  0  0  0
    5.1886   -6.9942    0.0000 H   0  0  0  0  0  0  0  0  0  0  0  0
    4.0892    4.0520    0.0000 H   0  0  0  0  0  0  0  0  0  0  0  0
    6.5702    5.1594    0.0000 H   0  0  0  0  0  0  0  0  0  0  0  0
    6.9687    5.8496    0.0000 H   0  0  0  0  0  0  0  0  0  0  0  0
    6.9782    6.7420    0.0000 H   0  0  0  0  0  0  0  0  0  0  0  0
    6.3582    7.3620    0.0000 H   0  0  0  0  0  0  0  0  0  0  0  0
    5.7382    6.7420    0.0000 H   0  0  0  0  0  0  0  0  0  0  0  0
  1 19  1  0  0  0  0
  2 12  1  0  0  0  0
  2 15  1  0  0  0  0
  3 15  2  0  0  0  0
  4 22  2  0  0  0  0
  5 24  2  0  0  0  0
  6 25  1  0  0  0  0
  6 26  1  0  0  0  0
  7 25  2  0  0  0  0
  8 13  1  0  0  0  0
  8 15  1  0  0  0  0
  8 16  1  0  0  0  0
  9 14  1  0  0  0  0
  9 22  1  0  0  0  0
  9 33  1  0  0  0  0
 10 21  1  0  0  0  0
 10 24  1  0  0  0  0
 10 37  1  0  0  0  0
 11 24  1  0  0  0  0
 11 25  1  0  0  0  0
 11 41  1  0  0  0  0
 12 13  1  0  0  0  0
 12 14  1  6  0  0  0
 12 28  1  0  0  0  0
 13 29  1  0  0  0  0
 13 30  1  0  0  0  0
 14 31  1  0  0  0  0
 14 32  1  0  0  0  0
 16 17  2  0  0  0  0
 16 18  1  0  0  0  0
 17 19  1  0  0  0  0
 17 34  1  0  0  0  0
 18 20  2  0  0  0  0
 18 35  1  0  0  0  0
 19 21  2  0  0  0  0
 20 21  1  0  0  0  0
 20 36  1  0  0  0  0
 22 23  1  0  0  0  0
 23 38  1  0  0  0  0
 23 39  1  0  0  0  0
 23 40  1  0  0  0  0
 26 27  1  0  0  0  0
 26 42  1  0  0  0  0
 26 43  1  0  0  0  0
 27 44  1  0  0  0  0
 27 45  1  0  0  0  0
 27 46  1  0  0  0  0
M  END
> <PUBCHEM_COMPOUND_CID>
510279
> <PUBCHEM_COMPOUND_CANONICALIZED>
1
> <PUBCHEM_CACTVS_COMPLEXITY>
589
> <PUBCHEM_CACTVS_HBOND_ACCEPTOR>
7
> <PUBCHEM_CACTVS_HBOND_DONOR>
3
> <PUBCHEM_CACTVS_ROTATABLE_BOND>
6
> <PUBCHEM_CACTVS_SUBSKEYS>
AAADceB7uQAAAAAAAAAAAAAAAAAAAWAAAAAwAAAAAAAAAAABAAAAHwAQAAAACBzhkA4zyIPABACIACVSWACCAAAhAgAIiIAIZImKICLA0ZGNIAholyLYyCcQAAAAAACAAAAAAAAAAQAAAAAAAAAAAAAAAA==
> <PUBCHEM_IUPAC_OPENEYE_NAME>
ethyl N-[[4-[(5S)-5-(acetamidomethyl)-2-oxo-oxazolidin-3-yl]-2-fluoro-phenyl]carbamoyl]carbamate
> <PUBCHEM_IUPAC_CAS_NAME>
N-[[4-[(5S)-5-(acetamidomethyl)-2-oxo-3-oxazolidinyl]-2-fluoroanilino]-oxomethyl]carbamic acid ethyl ester
> <PUBCHEM_IUPAC_NAME_MARKUP>
ethyl <I>N</I>-[[4-[(5<I>S</I>)-5-(acetamidomethyl)-2-oxo-1,3-oxazolidin-3-yl]-2-fluorophenyl]carbamoyl]carbamate
> <PUBCHEM_IUPAC_NAME>
ethyl N-[[4-[(5S)-5-(acetamidomethyl)-2-oxo-1,3-oxazolidin-3-yl]-2-fluorophenyl]carbamoyl]carbamate
> <PUBCHEM_IUPAC_SYSTEMATIC_NAME>
ethyl N-[[4-[(5S)-5-(acetamidomethyl)-2-oxidanylidene-1,3-oxazolidin-3-yl]-2-fluoranyl-phenyl]carbamoyl]carbamate
> <PUBCHEM_IUPAC_TRADITIONAL_NAME>
N-[[4-[(5S)-5-(acetamidomethyl)-2-keto-oxazolidin-3-yl]-2-fluoro-phenyl]carbamoyl]carbamic acid ethyl ester
> <PUBCHEM_IUPAC_INCHI>
InChI=1S/C16H19FN4O6/c1-3-26-15(24)20-14(23)19-13-5-4-10(6-12(13)17)21-8-11(27-16(21)25)7-18-9(2)22/h4-6,11H,3,7-8H2,1-2H3,(H,18,22)(H2,19,20,23,24)/t11-/m0/s1
> <PUBCHEM_IUPAC_INCHIKEY>
WRRBITMRLSUTSI-NSHDSACASA-N
> <PUBCHEM_XLOGP3_AA>
1
> <PUBCHEM_EXACT_MASS>
382.12886250
> <PUBCHEM_MOLECULAR_FORMULA>
C16H19FN4O6
> <PUBCHEM_MOLECULAR_WEIGHT>
382.34
> <PUBCHEM_OPENEYE_CAN_SMILES>
CCOC(=O)NC(=O)NC1=C(C=C(C=C1)N2CC(OC2=O)CNC(=O)C)F
> <PUBCHEM_OPENEYE_ISO_SMILES>
CCOC(=O)NC(=O)NC1=C(C=C(C=C1)N2C[C@@H](OC2=O)CNC(=O)C)F
> <PUBCHEM_CACTVS_TPSA>
126
> <PUBCHEM_MONOISOTOPIC_WEIGHT>
382.12886250
> <PUBCHEM_TOTAL_CHARGE>
0
> <PUBCHEM_HEAVY_ATOM_COUNT>
27
> <PUBCHEM_ATOM_DEF_STEREO_COUNT>
1
> <PUBCHEM_ATOM_UDEF_STEREO_COUNT>
0
> <PUBCHEM_BOND_DEF_STEREO_COUNT>
0
> <PUBCHEM_BOND_UDEF_STEREO_COUNT>
0
> <PUBCHEM_ISOTOPIC_ATOM_COUNT>
0
> <PUBCHEM_COMPONENT_COUNT>
1
> <PUBCHEM_CACTVS_TAUTO_COUNT>
-1
> <PUBCHEM_COORDINATE_TYPE>
1
5
255
> <PUBCHEM_BONDANNOTATIONS>
12  14  6
16  17  8
16  18  8
17  19  8
18  20  8
19  21  8
20  21  8
$$$$
