510312
  -OEChem-10302200282D
 44 46  0     1  0  0  0  0  0999 V2000
    5.8412   -6.6537    0.0000 I   0  0  0  0  0  0  0  0  0  0  0  0
    3.6750    5.3437    0.0000 S   0  0  0  0  0  0  0  0  0  0  0  0
    3.6180   -0.7440    0.0000 S   0  0  0  0  0  0  0  0  0  0  0  0
    4.6750    5.3437    0.0000 O   0  0  0  0  0  0  0  0  0  0  0  0
    2.6750    5.3437    0.0000 O   0  0  0  0  0  0  0  0  0  0  0  0
    2.4955   -3.5222    0.0000 O   0  0  0  0  0  0  0  0  0  0  0  0
    2.8090    0.8437    0.0000 N   0  0  0  0  0  0  0  0  0  0  0  0
    3.6750    6.3437    0.0000 N   0  0  0  0  0  0  0  0  0  0  0  0
    2.0000   -0.7440    0.0000 N   0  0  0  0  0  0  0  0  0  0  0  0
    3.8968   -2.5041    0.0000 N   0  0  0  0  0  0  0  0  0  0  0  0
    2.3090   -1.6951    0.0000 N   0  0  0  0  0  0  0  0  0  0  0  0
    3.6750    1.3437    0.0000 C   0  0  3  0  0  0  0  0  0  0  0  0
    3.6750    2.3437    0.0000 C   0  0  0  0  0  0  0  0  0  0  0  0
    4.5411    0.8437    0.0000 C   0  0  0  0  0  0  0  0  0  0  0  0
    2.8090    2.8437    0.0000 C   0  0  0  0  0  0  0  0  0  0  0  0
    4.5411    2.8437    0.0000 C   0  0  0  0  0  0  0  0  0  0  0  0
    3.6750    4.3437    0.0000 C   0  0  0  0  0  0  0  0  0  0  0  0
    2.8090    3.8437    0.0000 C   0  0  0  0  0  0  0  0  0  0  0  0
    4.5411    3.8437    0.0000 C   0  0  0  0  0  0  0  0  0  0  0  0
    2.8090   -0.1563    0.0000 C   0  0  0  0  0  0  0  0  0  0  0  0
    3.3090   -1.6951    0.0000 C   0  0  0  0  0  0  0  0  0  0  0  0
    4.0778   -4.2267    0.0000 C   0  0  0  0  0  0  0  0  0  0  0  0
    3.4901   -3.4177    0.0000 C   0  0  0  0  0  0  0  0  0  0  0  0
    5.0724   -4.1222    0.0000 C   0  0  0  0  0  0  0  0  0  0  0  0
    3.6711   -5.1402    0.0000 C   0  0  0  0  0  0  0  0  0  0  0  0
    5.6602   -4.9312    0.0000 C   0  0  0  0  0  0  0  0  0  0  0  0
    4.2589   -5.9492    0.0000 C   0  0  0  0  0  0  0  0  0  0  0  0
    5.2534   -5.8447    0.0000 C   0  0  0  0  0  0  0  0  0  0  0  0
    3.6750    0.7237    0.0000 H   0  0  0  0  0  0  0  0  0  0  0  0
    4.2311    0.3068    0.0000 H   0  0  0  0  0  0  0  0  0  0  0  0
    5.0780    0.5337    0.0000 H   0  0  0  0  0  0  0  0  0  0  0  0
    4.8511    1.3807    0.0000 H   0  0  0  0  0  0  0  0  0  0  0  0
    2.2721    1.1537    0.0000 H   0  0  0  0  0  0  0  0  0  0  0  0
    2.2721    2.5337    0.0000 H   0  0  0  0  0  0  0  0  0  0  0  0
    5.0780    2.5337    0.0000 H   0  0  0  0  0  0  0  0  0  0  0  0
    2.2721    4.1537    0.0000 H   0  0  0  0  0  0  0  0  0  0  0  0
    5.0780    4.1537    0.0000 H   0  0  0  0  0  0  0  0  0  0  0  0
    4.2120    6.6537    0.0000 H   0  0  0  0  0  0  0  0  0  0  0  0
    3.1381    6.6537    0.0000 H   0  0  0  0  0  0  0  0  0  0  0  0
    4.5134   -2.4393    0.0000 H   0  0  0  0  0  0  0  0  0  0  0  0
    5.3246   -3.5558    0.0000 H   0  0  0  0  0  0  0  0  0  0  0  0
    3.0545   -5.2050    0.0000 H   0  0  0  0  0  0  0  0  0  0  0  0
    6.2768   -4.8664    0.0000 H   0  0  0  0  0  0  0  0  0  0  0  0
    4.0067   -6.5156    0.0000 H   0  0  0  0  0  0  0  0  0  0  0  0
  1 28  1  0  0  0  0
  2  4  2  0  0  0  0
  2  5  2  0  0  0  0
  2  8  1  0  0  0  0
  2 17  1  0  0  0  0
  3 20  1  0  0  0  0
  3 21  1  0  0  0  0
  6 23  2  0  0  0  0
  7 12  1  0  0  0  0
  7 20  1  0  0  0  0
  7 33  1  0  0  0  0
  8 38  1  0  0  0  0
  8 39  1  0  0  0  0
  9 11  1  0  0  0  0
  9 20  2  0  0  0  0
 10 21  1  0  0  0  0
 10 23  1  0  0  0  0
 10 40  1  0  0  0  0
 11 21  2  0  0  0  0
 12 13  1  0  0  0  0
 12 14  1  0  0  0  0
 12 29  1  0  0  0  0
 13 15  2  0  0  0  0
 13 16  1  0  0  0  0
 14 30  1  0  0  0  0
 14 31  1  0  0  0  0
 14 32  1  0  0  0  0
 15 18  1  0  0  0  0
 15 34  1  0  0  0  0
 16 19  2  0  0  0  0
 16 35  1  0  0  0  0
 17 18  2  0  0  0  0
 17 19  1  0  0  0  0
 18 36  1  0  0  0  0
 19 37  1  0  0  0  0
 22 23  1  0  0  0  0
 22 24  2  0  0  0  0
 22 25  1  0  0  0  0
 24 26  1  0  0  0  0
 24 41  1  0  0  0  0
 25 27  2  0  0  0  0
 25 42  1  0  0  0  0
 26 28  2  0  0  0  0
 26 43  1  0  0  0  0
 27 28  1  0  0  0  0
 27 44  1  0  0  0  0
M  END
> <PUBCHEM_COMPOUND_CID>
510312
> <PUBCHEM_COMPOUND_CANONICALIZED>
1
> <PUBCHEM_CACTVS_COMPLEXITY>
631
> <PUBCHEM_CACTVS_HBOND_ACCEPTOR>
8
> <PUBCHEM_CACTVS_HBOND_DONOR>
3
> <PUBCHEM_CACTVS_ROTATABLE_BOND>
6
> <PUBCHEM_CACTVS_SUBSKEYS>
AAADceB7sABgAgAAAAAAAAAAAAAAAWAAAAAwYAAAAAAAAAAB0AAAHgQ4QAAADCjD2AQzEYLAAAquAiFSMHDSABJkAAkNiJkIBMiIIDKAnRGEIQhwkQIIiYcYiICOEAAAAAAAAAAgAAAAAAAAAAAAAAAAAA==
> <PUBCHEM_IUPAC_OPENEYE_NAME>
4-iodo-N-[5-[1-(4-sulfamoylphenyl)ethylamino]-1,3,4-thiadiazol-2-yl]benzamide
> <PUBCHEM_IUPAC_CAS_NAME>
4-iodo-N-[5-[1-(4-sulfamoylphenyl)ethylamino]-1,3,4-thiadiazol-2-yl]benzamide
> <PUBCHEM_IUPAC_NAME_MARKUP>
4-iodo-<I>N</I>-[5-[1-(4-sulfamoylphenyl)ethylamino]-1,3,4-thiadiazol-2-yl]benzamide
> <PUBCHEM_IUPAC_NAME>
4-iodo-N-[5-[1-(4-sulfamoylphenyl)ethylamino]-1,3,4-thiadiazol-2-yl]benzamide
> <PUBCHEM_IUPAC_SYSTEMATIC_NAME>
4-iodanyl-N-[5-[1-(4-sulfamoylphenyl)ethylamino]-1,3,4-thiadiazol-2-yl]benzamide
> <PUBCHEM_IUPAC_TRADITIONAL_NAME>
4-iodo-N-[5-[1-(4-sulfamoylphenyl)ethylamino]-1,3,4-thiadiazol-2-yl]benzamide
> <PUBCHEM_IUPAC_INCHI>
InChI=1S/C17H16IN5O3S2/c1-10(11-4-8-14(9-5-11)28(19,25)26)20-16-22-23-17(27-16)21-15(24)12-2-6-13(18)7-3-12/h2-10H,1H3,(H,20,22)(H2,19,25,26)(H,21,23,24)
> <PUBCHEM_IUPAC_INCHIKEY>
RHSGAMPGPTYWJO-UHFFFAOYSA-N
> <PUBCHEM_XLOGP3_AA>
3
> <PUBCHEM_EXACT_MASS>
528.97393
> <PUBCHEM_MOLECULAR_FORMULA>
C17H16IN5O3S2
> <PUBCHEM_MOLECULAR_WEIGHT>
529.4
> <PUBCHEM_OPENEYE_CAN_SMILES>
CC(C1=CC=C(C=C1)S(=O)(=O)N)NC2=NN=C(S2)NC(=O)C3=CC=C(C=C3)I
> <PUBCHEM_OPENEYE_ISO_SMILES>
CC(C1=CC=C(C=C1)S(=O)(=O)N)NC2=NN=C(S2)NC(=O)C3=CC=C(C=C3)I
> <PUBCHEM_CACTVS_TPSA>
164
> <PUBCHEM_MONOISOTOPIC_WEIGHT>
528.97393
> <PUBCHEM_TOTAL_CHARGE>
0
> <PUBCHEM_HEAVY_ATOM_COUNT>
28
> <PUBCHEM_ATOM_DEF_STEREO_COUNT>
0
> <PUBCHEM_ATOM_UDEF_STEREO_COUNT>
1
> <PUBCHEM_BOND_DEF_STEREO_COUNT>
0
> <PUBCHEM_BOND_UDEF_STEREO_COUNT>
0
> <PUBCHEM_ISOTOPIC_ATOM_COUNT>
0
> <PUBCHEM_COMPONENT_COUNT>
1
> <PUBCHEM_CACTVS_TAUTO_COUNT>
-1
> <PUBCHEM_COORDINATE_TYPE>
1
5
255
> <PUBCHEM_BONDANNOTATIONS>
11  21  8
12  14  3
13  15  8
13  16  8
15  18  8
16  19  8
17  18  8
17  19  8
22  24  8
22  25  8
24  26  8
25  27  8
26  28  8
27  28  8
3  20  8
3  21  8
9  11  8
9  20  8
$$$$
