510399
  -OEChem-10302200282D
101105  0     1  0  0  0  0  0999 V2000
    8.0622    2.9569    0.0000 O   0  0  0  0  0  0  0  0  0  0  0  0
   11.1603    6.3229    0.0000 O   0  0  0  0  0  0  0  0  0  0  0  0
   11.6603    5.4569    0.0000 O   0  0  0  0  0  0  0  0  0  0  0  0
    8.9428    7.5431    0.0000 O   0  0  0  0  0  0  0  0  0  0  0  0
    6.3301    2.9569    0.0000 O   0  0  0  0  0  0  0  0  0  0  0  0
    8.0622    0.9569    0.0000 O   0  0  0  0  0  0  0  0  0  0  0  0
    6.3301   -0.0431    0.0000 O   0  0  0  0  0  0  0  0  0  0  0  0
    4.5981    0.9569    0.0000 O   0  0  0  0  0  0  0  0  0  0  0  0
    4.5981   -0.0431    0.0000 O   0  0  0  0  0  0  0  0  0  0  0  0
    8.9282    4.4569    0.0000 C   0  0  3  0  0  0  0  0  0  0  0  0
    9.7942    4.9569    0.0000 C   0  0  3  0  0  0  0  0  0  0  0  0
    9.5863    5.9350    0.0000 C   0  0  3  0  0  0  0  0  0  0  0  0
    8.1851    5.1260    0.0000 C   0  0  1  0  0  0  0  0  0  0  0  0
    8.5918    6.0396    0.0000 C   0  0  1  0  0  0  0  0  0  0  0  0
    9.1374    3.4851    0.0000 C   0  0  3  0  0  0  0  0  0  0  0  0
   10.0691    4.5805    0.0000 C   0  0  0  0  0  0  0  0  0  0  0  0
    7.1967    5.2325    0.0000 C   0  0  1  0  0  0  0  0  0  0  0  0
   10.5312    4.2898    0.0000 C   0  0  0  0  0  0  0  0  0  0  0  0
    7.8513    6.7028    0.0000 C   0  0  0  0  0  0  0  0  0  0  0  0
    8.0622    3.9569    0.0000 C   0  0  0  0  0  0  0  0  0  0  0  0
   10.1261    3.3820    0.0000 C   0  0  0  0  0  0  0  0  0  0  0  0
    6.9909    6.2050    0.0000 C   0  0  0  0  0  0  0  0  0  0  0  0
   10.6603    5.4569    0.0000 C   0  0  0  0  0  0  0  0  0  0  0  0
    9.7288    6.9248    0.0000 C   0  0  0  0  0  0  0  0  0  0  0  0
   11.4818    3.9791    0.0000 C   0  0  0  0  0  0  0  0  0  0  0  0
    6.5263    4.4905    0.0000 C   0  0  0  0  0  0  0  0  0  0  0  0
   11.6880    3.0006    0.0000 C   0  0  0  0  0  0  0  0  0  0  0  0
   12.2261    4.6470    0.0000 C   0  0  0  0  0  0  0  0  0  0  0  0
    7.1962    2.4569    0.0000 C   0  0  2  0  0  0  0  0  0  0  0  0
    7.1962    1.4569    0.0000 C   0  0  2  0  0  0  0  0  0  0  0  0
    6.3301    0.9569    0.0000 C   0  0  1  0  0  0  0  0  0  0  0  0
    5.4641    2.4569    0.0000 C   0  0  1  0  0  0  0  0  0  0  0  0
    5.4641    1.4569    0.0000 C   0  0  1  0  0  0  0  0  0  0  0  0
    4.5981    2.9569    0.0000 C   0  0  0  0  0  0  0  0  0  0  0  0
    5.4641   -0.5431    0.0000 C   0  0  0  0  0  0  0  0  0  0  0  0
    3.7320    1.4569    0.0000 C   0  0  0  0  0  0  0  0  0  0  0  0
    5.4641   -1.5431    0.0000 C   0  0  0  0  0  0  0  0  0  0  0  0
    4.5981   -2.0431    0.0000 C   0  0  0  0  0  0  0  0  0  0  0  0
    4.5981   -3.0431    0.0000 C   0  0  0  0  0  0  0  0  0  0  0  0
    3.7320   -3.5431    0.0000 C   0  0  0  0  0  0  0  0  0  0  0  0
    3.7320   -4.5431    0.0000 C   0  0  0  0  0  0  0  0  0  0  0  0
    2.8660   -5.0431    0.0000 C   0  0  0  0  0  0  0  0  0  0  0  0
    2.8660   -6.0431    0.0000 C   0  0  0  0  0  0  0  0  0  0  0  0
    2.0000   -6.5431    0.0000 C   0  0  0  0  0  0  0  0  0  0  0  0
    2.0000   -7.5431    0.0000 C   0  0  0  0  0  0  0  0  0  0  0  0
    7.8393    4.3495    0.0000 H   0  0  0  0  0  0  0  0  0  0  0  0
    8.9375    6.8161    0.0000 H   0  0  0  0  0  0  0  0  0  0  0  0
    8.7233    3.0236    0.0000 H   0  0  0  0  0  0  0  0  0  0  0  0
   10.4644    4.1029    0.0000 H   0  0  0  0  0  0  0  0  0  0  0  0
   10.6081    4.8869    0.0000 H   0  0  0  0  0  0  0  0  0  0  0  0
    6.5980    5.3937    0.0000 H   0  0  0  0  0  0  0  0  0  0  0  0
    8.3112    7.1186    0.0000 H   0  0  0  0  0  0  0  0  0  0  0  0
    7.4862    7.2039    0.0000 H   0  0  0  0  0  0  0  0  0  0  0  0
    7.8501    4.5395    0.0000 H   0  0  0  0  0  0  0  0  0  0  0  0
    7.4516    3.8492    0.0000 H   0  0  0  0  0  0  0  0  0  0  0  0
   10.4361    2.8451    0.0000 H   0  0  0  0  0  0  0  0  0  0  0  0
    6.7385    6.7714    0.0000 H   0  0  0  0  0  0  0  0  0  0  0  0
    6.4012    6.0136    0.0000 H   0  0  0  0  0  0  0  0  0  0  0  0
   10.3044    7.1552    0.0000 H   0  0  0  0  0  0  0  0  0  0  0  0
   11.3539    4.5858    0.0000 H   0  0  0  0  0  0  0  0  0  0  0  0
    6.0662    4.9062    0.0000 H   0  0  0  0  0  0  0  0  0  0  0  0
    6.1106    4.0305    0.0000 H   0  0  0  0  0  0  0  0  0  0  0  0
    6.9863    4.0748    0.0000 H   0  0  0  0  0  0  0  0  0  0  0  0
   11.0813    2.8728    0.0000 H   0  0  0  0  0  0  0  0  0  0  0  0
   11.8158    2.3939    0.0000 H   0  0  0  0  0  0  0  0  0  0  0  0
   12.2947    3.1285    0.0000 H   0  0  0  0  0  0  0  0  0  0  0  0
   12.6401    4.1855    0.0000 H   0  0  0  0  0  0  0  0  0  0  0  0
   12.6875    5.0610    0.0000 H   0  0  0  0  0  0  0  0  0  0  0  0
   11.8120    5.1085    0.0000 H   0  0  0  0  0  0  0  0  0  0  0  0
   11.7803    6.3229    0.0000 H   0  0  0  0  0  0  0  0  0  0  0  0
    7.7331    2.1469    0.0000 H   0  0  0  0  0  0  0  0  0  0  0  0
    7.1962    0.8369    0.0000 H   0  0  0  0  0  0  0  0  0  0  0  0
    5.7932    0.6469    0.0000 H   0  0  0  0  0  0  0  0  0  0  0  0
    5.4641    3.0769    0.0000 H   0  0  0  0  0  0  0  0  0  0  0  0
    5.4641    0.8369    0.0000 H   0  0  0  0  0  0  0  0  0  0  0  0
    8.5991    1.2669    0.0000 H   0  0  0  0  0  0  0  0  0  0  0  0
    4.9081    3.4938    0.0000 H   0  0  0  0  0  0  0  0  0  0  0  0
    4.0611    3.2669    0.0000 H   0  0  0  0  0  0  0  0  0  0  0  0
    4.2881    2.4200    0.0000 H   0  0  0  0  0  0  0  0  0  0  0  0
    4.0420    1.9938    0.0000 H   0  0  0  0  0  0  0  0  0  0  0  0
    3.1951    1.7669    0.0000 H   0  0  0  0  0  0  0  0  0  0  0  0
    3.4220    0.9199    0.0000 H   0  0  0  0  0  0  0  0  0  0  0  0
    5.6762   -2.1257    0.0000 H   0  0  0  0  0  0  0  0  0  0  0  0
    6.0747   -1.4355    0.0000 H   0  0  0  0  0  0  0  0  0  0  0  0
    4.3860   -1.4605    0.0000 H   0  0  0  0  0  0  0  0  0  0  0  0
    3.9875   -2.1508    0.0000 H   0  0  0  0  0  0  0  0  0  0  0  0
    4.8101   -3.6257    0.0000 H   0  0  0  0  0  0  0  0  0  0  0  0
    5.2087   -2.9355    0.0000 H   0  0  0  0  0  0  0  0  0  0  0  0
    3.5200   -2.9605    0.0000 H   0  0  0  0  0  0  0  0  0  0  0  0
    3.1215   -3.6508    0.0000 H   0  0  0  0  0  0  0  0  0  0  0  0
    3.9441   -5.1257    0.0000 H   0  0  0  0  0  0  0  0  0  0  0  0
    4.3426   -4.4355    0.0000 H   0  0  0  0  0  0  0  0  0  0  0  0
    2.6540   -4.4605    0.0000 H   0  0  0  0  0  0  0  0  0  0  0  0
    2.2554   -5.1508    0.0000 H   0  0  0  0  0  0  0  0  0  0  0  0
    3.0781   -6.6257    0.0000 H   0  0  0  0  0  0  0  0  0  0  0  0
    3.4766   -5.9355    0.0000 H   0  0  0  0  0  0  0  0  0  0  0  0
    1.7880   -5.9605    0.0000 H   0  0  0  0  0  0  0  0  0  0  0  0
    1.3894   -6.6508    0.0000 H   0  0  0  0  0  0  0  0  0  0  0  0
    1.3800   -7.5431    0.0000 H   0  0  0  0  0  0  0  0  0  0  0  0
    2.0000   -8.1631    0.0000 H   0  0  0  0  0  0  0  0  0  0  0  0
    2.6200   -7.5431    0.0000 H   0  0  0  0  0  0  0  0  0  0  0  0
  1 20  1  0  0  0  0
 29  1  1  1  0  0  0
  2 23  1  0  0  0  0
  2 70  1  0  0  0  0
  3 23  2  0  0  0  0
  4 24  2  0  0  0  0
  5 29  1  0  0  0  0
  5 32  1  0  0  0  0
 30  6  1  1  0  0  0
  6 76  1  0  0  0  0
 31  7  1  6  0  0  0
  7 35  1  0  0  0  0
 33  8  1  6  0  0  0
  8 36  1  0  0  0  0
  9 35  2  0  0  0  0
 10 11  1  0  0  0  0
 10 13  1  0  0  0  0
 10 15  1  0  0  0  0
 10 20  1  0  0  0  0
 11 12  1  0  0  0  0
 11 18  1  0  0  0  0
 11 23  1  0  0  0  0
 12 14  1  0  0  0  0
 12 16  1  0  0  0  0
 12 24  1  0  0  0  0
 13 14  1  0  0  0  0
 13 17  1  0  0  0  0
 13 46  1  1  0  0  0
 14 19  1  0  0  0  0
 14 47  1  6  0  0  0
 15 16  1  0  0  0  0
 15 21  1  0  0  0  0
 15 48  1  0  0  0  0
 16 49  1  0  0  0  0
 16 50  1  0  0  0  0
 17 22  1  0  0  0  0
 17 26  1  6  0  0  0
 17 51  1  0  0  0  0
 18 21  2  0  0  0  0
 18 25  1  0  0  0  0
 19 22  1  0  0  0  0
 19 52  1  0  0  0  0
 19 53  1  0  0  0  0
 20 54  1  0  0  0  0
 20 55  1  0  0  0  0
 21 56  1  0  0  0  0
 22 57  1  0  0  0  0
 22 58  1  0  0  0  0
 24 59  1  0  0  0  0
 25 27  1  0  0  0  0
 25 28  1  0  0  0  0
 25 60  1  0  0  0  0
 26 61  1  0  0  0  0
 26 62  1  0  0  0  0
 26 63  1  0  0  0  0
 27 64  1  0  0  0  0
 27 65  1  0  0  0  0
 27 66  1  0  0  0  0
 28 67  1  0  0  0  0
 28 68  1  0  0  0  0
 28 69  1  0  0  0  0
 29 30  1  0  0  0  0
 29 71  1  0  0  0  0
 30 31  1  0  0  0  0
 30 72  1  0  0  0  0
 31 33  1  0  0  0  0
 31 73  1  0  0  0  0
 32 33  1  0  0  0  0
 32 34  1  1  0  0  0
 32 74  1  0  0  0  0
 33 75  1  0  0  0  0
 34 77  1  0  0  0  0
 34 78  1  0  0  0  0
 34 79  1  0  0  0  0
 35 37  1  0  0  0  0
 36 80  1  0  0  0  0
 36 81  1  0  0  0  0
 36 82  1  0  0  0  0
 37 38  1  0  0  0  0
 37 83  1  0  0  0  0
 37 84  1  0  0  0  0
 38 39  1  0  0  0  0
 38 85  1  0  0  0  0
 38 86  1  0  0  0  0
 39 40  1  0  0  0  0
 39 87  1  0  0  0  0
 39 88  1  0  0  0  0
 40 41  1  0  0  0  0
 40 89  1  0  0  0  0
 40 90  1  0  0  0  0
 41 42  1  0  0  0  0
 41 91  1  0  0  0  0
 41 92  1  0  0  0  0
 42 43  1  0  0  0  0
 42 93  1  0  0  0  0
 42 94  1  0  0  0  0
 43 44  1  0  0  0  0
 43 95  1  0  0  0  0
 43 96  1  0  0  0  0
 44 45  1  0  0  0  0
 44 97  1  0  0  0  0
 44 98  1  0  0  0  0
 45 99  1  0  0  0  0
 45100  1  0  0  0  0
 45101  1  0  0  0  0
M  END
> <PUBCHEM_COMPOUND_CID>
510399
> <PUBCHEM_COMPOUND_CANONICALIZED>
1
> <PUBCHEM_CACTVS_COMPLEXITY>
1140
> <PUBCHEM_CACTVS_HBOND_ACCEPTOR>
9
> <PUBCHEM_CACTVS_HBOND_DONOR>
2
> <PUBCHEM_CACTVS_ROTATABLE_BOND>
17
> <PUBCHEM_CACTVS_SUBSKEYS>
AAADcfB8PAAAAAAAAAAAAAAAAAAAAYMGCAA0QIAAAAAYAAAAAAAAGgAACAAADxSwgAMCCAAABgCIAijSiAAAAAAgAAAACAEAAAgREBIAAQAiQAAFwAAPAAPL7PyPgAAAAAAAAACAAAQAACAAAQAACAAAAA==
> <PUBCHEM_IUPAC_OPENEYE_NAME>
(3R,4R,7R)-2-[[(2R,3S,4S,5R,6R)-4-decanoyloxy-3-hydroxy-5-methoxy-6-methyl-tetrahydropyran-2-yl]oxymethyl]-8-formyl-12-isopropyl-4-methyl-tetracyclo[6.4.0.02,10.03,7]dodec-11-ene-1-carboxylic acid
> <PUBCHEM_IUPAC_CAS_NAME>
(3R,4R,7R)-8-formyl-2-[[(2R,3S,4S,5R,6R)-3-hydroxy-5-methoxy-6-methyl-4-(1-oxodecoxy)-2-oxanyl]oxymethyl]-4-methyl-12-propan-2-yl-1-tetracyclo[6.4.0.02,10.03,7]dodec-11-enecarboxylic acid
> <PUBCHEM_IUPAC_NAME_MARKUP>
(3<I>R</I>,4<I>R</I>,7<I>R</I>)-2-[[(2<I>R</I>,3<I>S</I>,4<I>S</I>,5<I>R</I>,6<I>R</I>)-4-decanoyloxy-3-hydroxy-5-methoxy-6-methyloxan-2-yl]oxymethyl]-8-formyl-4-methyl-12-propan-2-yltetracyclo[6.4.0.0<SUP>2,10</SUP>.0<SUP>3,7</SUP>]dodec-11-ene-1-carboxylic acid
> <PUBCHEM_IUPAC_NAME>
(3R,4R,7R)-2-[[(2R,3S,4S,5R,6R)-4-decanoyloxy-3-hydroxy-5-methoxy-6-methyloxan-2-yl]oxymethyl]-8-formyl-4-methyl-12-propan-2-yltetracyclo[6.4.0.02,10.03,7]dodec-11-ene-1-carboxylic acid
> <PUBCHEM_IUPAC_SYSTEMATIC_NAME>
(3R,4R,7R)-2-[[(2R,3S,4S,5R,6R)-4-decanoyloxy-5-methoxy-6-methyl-3-oxidanyl-oxan-2-yl]oxymethyl]-8-methanoyl-4-methyl-12-propan-2-yl-tetracyclo[6.4.0.02,10.03,7]dodec-11-ene-1-carboxylic acid
> <PUBCHEM_IUPAC_TRADITIONAL_NAME>
(3R,4R,7R)-2-[[(2R,3S,4S,5R,6R)-4-capryloxy-3-hydroxy-5-methoxy-6-methyl-tetrahydropyran-2-yl]oxymethyl]-8-formyl-12-isopropyl-4-methyl-tetracyclo[6.4.0.02,10.03,7]dodec-11-ene-1-carboxylic acid
> <PUBCHEM_IUPAC_INCHI>
InChI=1S/C36H56O9/c1-7-8-9-10-11-12-13-14-27(38)45-31-29(39)32(44-23(5)30(31)42-6)43-20-35-24-17-26(21(2)3)36(35,33(40)41)34(18-24,19-37)25-16-15-22(4)28(25)35/h17,19,21-25,28-32,39H,7-16,18,20H2,1-6H3,(H,40,41)/t22-,23-,24?,25-,28-,29+,30-,31+,32-,34?,35?,36?/m1/s1
> <PUBCHEM_IUPAC_INCHIKEY>
PEPZREMZULNTJS-QJLWKSPWSA-N
> <PUBCHEM_XLOGP3_AA>
5.8
> <PUBCHEM_EXACT_MASS>
632.39243336
> <PUBCHEM_MOLECULAR_FORMULA>
C36H56O9
> <PUBCHEM_MOLECULAR_WEIGHT>
632.8
> <PUBCHEM_OPENEYE_CAN_SMILES>
CCCCCCCCCC(=O)OC1C(C(OC(C1OC)C)OCC23C4CC(C2(C(=C4)C(C)C)C(=O)O)(C5C3C(CC5)C)C=O)O
> <PUBCHEM_OPENEYE_ISO_SMILES>
CCCCCCCCCC(=O)O[C@H]1[C@@H]([C@@H](O[C@@H]([C@H]1OC)C)OCC23[C@@H]4[C@@H](CC[C@H]4C5(C2(C(=CC3C5)C(C)C)C(=O)O)C=O)C)O
> <PUBCHEM_CACTVS_TPSA>
129
> <PUBCHEM_MONOISOTOPIC_WEIGHT>
632.39243336
> <PUBCHEM_TOTAL_CHARGE>
0
> <PUBCHEM_HEAVY_ATOM_COUNT>
45
> <PUBCHEM_ATOM_DEF_STEREO_COUNT>
8
> <PUBCHEM_ATOM_UDEF_STEREO_COUNT>
4
> <PUBCHEM_BOND_DEF_STEREO_COUNT>
0
> <PUBCHEM_BOND_UDEF_STEREO_COUNT>
0
> <PUBCHEM_ISOTOPIC_ATOM_COUNT>
0
> <PUBCHEM_COMPONENT_COUNT>
1
> <PUBCHEM_CACTVS_TAUTO_COUNT>
-1
> <PUBCHEM_COORDINATE_TYPE>
1
5
255
> <PUBCHEM_BONDANNOTATIONS>
29  1  5
10  20  3
11  23  3
12  24  3
13  46  5
14  47  6
15  16  3
17  26  6
32  34  5
30  6  5
31  7  6
33  8  6
$$$$
