510395
  -OEChem-10302200282D
 86 90  0     1  0  0  0  0  0999 V2000
    3.0298    6.3506    0.0000 O   0  0  0  0  0  0  0  0  0  0  0  0
    1.1330    4.5905    0.0000 O   0  0  0  0  0  0  0  0  0  0  0  0
    0.4608    6.6596    0.0000 O   0  0  0  0  0  0  0  0  0  0  0  0
    4.3031    4.6950    0.0000 O   0  0  0  0  0  0  0  0  0  0  0  0
   13.6327    0.6166    0.0000 O   0  0  0  0  0  0  0  0  0  0  0  0
   14.1327    3.1554    0.0000 O   0  0  0  0  0  0  0  0  0  0  0  0
    4.3031   10.1817    0.0000 O   0  0  0  0  0  0  0  0  0  0  0  0
   12.4006    3.1554    0.0000 O   0  0  0  0  0  0  0  0  0  0  0  0
    8.0705   12.6554    0.0000 O   0  0  0  0  0  0  0  0  0  0  0  0
    8.9936   14.2432    0.0000 O   0  0  0  0  0  0  0  0  0  0  0  0
   11.5346    9.6554    0.0000 O   0  0  0  0  0  0  0  0  0  0  0  0
    2.2208    7.9384    0.0000 N   0  0  0  0  0  0  0  0  0  0  0  0
    3.0298    8.5262    0.0000 N   0  0  0  0  0  0  0  0  0  0  0  0
    1.7208    9.4772    0.0000 N   0  0  0  0  0  0  0  0  0  0  0  0
    2.9019   11.1998    0.0000 N   0  0  0  0  0  0  0  0  0  0  0  0
   13.2667    4.6554    0.0000 N   0  0  0  0  0  0  0  0  0  0  0  0
   10.6686    8.1554    0.0000 N   0  0  0  0  0  0  0  0  0  0  0  0
    9.8026    9.6554    0.0000 N   0  0  0  0  0  0  0  0  0  0  0  0
   10.3026   15.1943    0.0000 N   0  0  0  0  0  0  0  0  0  0  0  0
    1.7208    5.3995    0.0000 C   0  0  3  0  0  0  0  0  0  0  0  0
    1.4118    6.3506    0.0000 C   0  0  3  0  0  0  0  0  0  0  0  0
    2.7208    5.3995    0.0000 C   0  0  3  0  0  0  0  0  0  0  0  0
    2.2208    6.9384    0.0000 C   0  0  3  0  0  0  0  0  0  0  0  0
    3.3086    4.5905    0.0000 C   0  0  0  0  0  0  0  0  0  0  0  0
    1.4118    8.5262    0.0000 C   0  0  0  0  0  0  0  0  0  0  0  0
    2.7208    9.4772    0.0000 C   0  0  0  0  0  0  0  0  0  0  0  0
   14.1327    2.1554    0.0000 C   0  0  1  0  0  0  0  0  0  0  0  0
   14.9417    1.5677    0.0000 C   0  0  0  0  0  0  0  0  0  0  0  0
   13.3237    1.5677    0.0000 C   0  0  0  0  0  0  0  0  0  0  0  0
   14.6327    0.6166    0.0000 C   0  0  0  0  0  0  0  0  0  0  0  0
    3.3086   10.2862    0.0000 C   0  0  0  0  0  0  0  0  0  0  0  0
   13.2667    3.6554    0.0000 C   0  0  0  0  0  0  0  0  0  0  0  0
   12.4006    5.1554    0.0000 C   0  0  0  0  0  0  0  0  0  0  0  0
   12.4006    6.1554    0.0000 C   0  0  0  0  0  0  0  0  0  0  0  0
   11.5346    6.6554    0.0000 C   0  0  0  0  0  0  0  0  0  0  0  0
   13.2667    6.6554    0.0000 C   0  0  0  0  0  0  0  0  0  0  0  0
   11.5346    7.6554    0.0000 C   0  0  0  0  0  0  0  0  0  0  0  0
   13.2667    7.6554    0.0000 C   0  0  0  0  0  0  0  0  0  0  0  0
   12.4006    8.1554    0.0000 C   0  0  0  0  0  0  0  0  0  0  0  0
    9.8026   10.6554    0.0000 C   0  0  0  0  0  0  0  0  0  0  0  0
   10.6686    9.1554    0.0000 C   0  0  0  0  0  0  0  0  0  0  0  0
    9.8026   12.6554    0.0000 C   0  0  0  0  0  0  0  0  0  0  0  0
    8.9365   12.1554    0.0000 C   0  0  0  0  0  0  0  0  0  0  0  0
    8.9365   11.1554    0.0000 C   0  0  0  0  0  0  0  0  0  0  0  0
   10.6686   11.1554    0.0000 C   0  0  0  0  0  0  0  0  0  0  0  0
   10.6686   12.1554    0.0000 C   0  0  0  0  0  0  0  0  0  0  0  0
    9.8026   13.6554    0.0000 C   0  0  0  0  0  0  0  0  0  0  0  0
   10.6116   14.2432    0.0000 C   0  0  0  0  0  0  0  0  0  0  0  0
    7.2045   12.1554    0.0000 C   0  0  0  0  0  0  0  0  0  0  0  0
    9.3026   15.1943    0.0000 C   0  0  0  0  0  0  0  0  0  0  0  0
    1.1085    5.4965    0.0000 H   0  0  0  0  0  0  0  0  0  0  0  0
    1.3148    6.9629    0.0000 H   0  0  0  0  0  0  0  0  0  0  0  0
    3.3332    5.4965    0.0000 H   0  0  0  0  0  0  0  0  0  0  0  0
    1.6684    7.2198    0.0000 H   0  0  0  0  0  0  0  0  0  0  0  0
    2.7514    4.3187    0.0000 H   0  0  0  0  0  0  0  0  0  0  0  0
    3.4795    3.9945    0.0000 H   0  0  0  0  0  0  0  0  0  0  0  0
    1.3852    4.0241    0.0000 H   0  0  0  0  0  0  0  0  0  0  0  0
    0.0000    6.2447    0.0000 H   0  0  0  0  0  0  0  0  0  0  0  0
    0.8222    8.3346    0.0000 H   0  0  0  0  0  0  0  0  0  0  0  0
    4.6676    4.1934    0.0000 H   0  0  0  0  0  0  0  0  0  0  0  0
   14.6851    2.4369    0.0000 H   0  0  0  0  0  0  0  0  0  0  0  0
   15.5081    1.3155    0.0000 H   0  0  0  0  0  0  0  0  0  0  0  0
   15.2517    2.1046    0.0000 H   0  0  0  0  0  0  0  0  0  0  0  0
   13.0137    2.1046    0.0000 H   0  0  0  0  0  0  0  0  0  0  0  0
   12.7573    1.3155    0.0000 H   0  0  0  0  0  0  0  0  0  0  0  0
   14.5679    0.0000    0.0000 H   0  0  0  0  0  0  0  0  0  0  0  0
   15.2391    0.4877    0.0000 H   0  0  0  0  0  0  0  0  0  0  0  0
    3.2663   11.7014    0.0000 H   0  0  0  0  0  0  0  0  0  0  0  0
    2.2853   11.2646    0.0000 H   0  0  0  0  0  0  0  0  0  0  0  0
   13.8036    4.9654    0.0000 H   0  0  0  0  0  0  0  0  0  0  0  0
   11.7901    5.2631    0.0000 H   0  0  0  0  0  0  0  0  0  0  0  0
   12.1886    4.5728    0.0000 H   0  0  0  0  0  0  0  0  0  0  0  0
   10.9977    6.3454    0.0000 H   0  0  0  0  0  0  0  0  0  0  0  0
   13.8036    6.3454    0.0000 H   0  0  0  0  0  0  0  0  0  0  0  0
   13.8036    7.9654    0.0000 H   0  0  0  0  0  0  0  0  0  0  0  0
   12.4006    8.7754    0.0000 H   0  0  0  0  0  0  0  0  0  0  0  0
   10.1317    7.8454    0.0000 H   0  0  0  0  0  0  0  0  0  0  0  0
    9.2656    9.3454    0.0000 H   0  0  0  0  0  0  0  0  0  0  0  0
    8.3996   10.8454    0.0000 H   0  0  0  0  0  0  0  0  0  0  0  0
   11.2055   10.8454    0.0000 H   0  0  0  0  0  0  0  0  0  0  0  0
   11.2055   12.4654    0.0000 H   0  0  0  0  0  0  0  0  0  0  0  0
   11.2012   14.0516    0.0000 H   0  0  0  0  0  0  0  0  0  0  0  0
    6.8945   12.6924    0.0000 H   0  0  0  0  0  0  0  0  0  0  0  0
    6.6676   11.8454    0.0000 H   0  0  0  0  0  0  0  0  0  0  0  0
    7.5145   11.6185    0.0000 H   0  0  0  0  0  0  0  0  0  0  0  0
    8.9381   15.6959    0.0000 H   0  0  0  0  0  0  0  0  0  0  0  0
  1 22  1  0  0  0  0
  1 23  1  0  0  0  0
  2 20  1  0  0  0  0
  2 57  1  0  0  0  0
  3 21  1  0  0  0  0
  3 58  1  0  0  0  0
  4 24  1  0  0  0  0
  4 60  1  0  0  0  0
  5 29  1  0  0  0  0
  5 30  1  0  0  0  0
 27  6  1  1  0  0  0
  6 32  1  0  0  0  0
  7 31  2  0  0  0  0
  8 32  2  0  0  0  0
  9 43  1  0  0  0  0
  9 49  1  0  0  0  0
 10 47  1  0  0  0  0
 10 50  1  0  0  0  0
 11 41  2  0  0  0  0
 12 13  1  0  0  0  0
 12 23  1  0  0  0  0
 12 25  1  0  0  0  0
 13 26  2  0  0  0  0
 14 25  2  0  0  0  0
 14 26  1  0  0  0  0
 15 31  1  0  0  0  0
 15 68  1  0  0  0  0
 15 69  1  0  0  0  0
 16 32  1  0  0  0  0
 16 33  1  0  0  0  0
 16 70  1  0  0  0  0
 17 37  1  0  0  0  0
 17 41  1  0  0  0  0
 17 77  1  0  0  0  0
 18 40  1  0  0  0  0
 18 41  1  0  0  0  0
 18 78  1  0  0  0  0
 19 48  1  0  0  0  0
 19 50  2  0  0  0  0
 20 21  1  0  0  0  0
 20 22  1  0  0  0  0
 20 51  1  0  0  0  0
 21 23  1  0  0  0  0
 21 52  1  0  0  0  0
 22 24  1  0  0  0  0
 22 53  1  0  0  0  0
 23 54  1  0  0  0  0
 24 55  1  0  0  0  0
 24 56  1  0  0  0  0
 25 59  1  0  0  0  0
 26 31  1  0  0  0  0
 27 28  1  0  0  0  0
 27 29  1  0  0  0  0
 27 61  1  0  0  0  0
 28 30  1  0  0  0  0
 28 62  1  0  0  0  0
 28 63  1  0  0  0  0
 29 64  1  0  0  0  0
 29 65  1  0  0  0  0
 30 66  1  0  0  0  0
 30 67  1  0  0  0  0
 33 34  1  0  0  0  0
 33 71  1  0  0  0  0
 33 72  1  0  0  0  0
 34 35  2  0  0  0  0
 34 36  1  0  0  0  0
 35 37  1  0  0  0  0
 35 73  1  0  0  0  0
 36 38  2  0  0  0  0
 36 74  1  0  0  0  0
 37 39  2  0  0  0  0
 38 39  1  0  0  0  0
 38 75  1  0  0  0  0
 39 76  1  0  0  0  0
 40 44  2  0  0  0  0
 40 45  1  0  0  0  0
 42 43  2  0  0  0  0
 42 46  1  0  0  0  0
 42 47  1  0  0  0  0
 43 44  1  0  0  0  0
 44 79  1  0  0  0  0
 45 46  2  0  0  0  0
 45 80  1  0  0  0  0
 46 81  1  0  0  0  0
 47 48  2  0  0  0  0
 48 82  1  0  0  0  0
 49 83  1  0  0  0  0
 49 84  1  0  0  0  0
 49 85  1  0  0  0  0
 50 86  1  0  0  0  0
M  END
> <PUBCHEM_COMPOUND_CID>
510395
> <PUBCHEM_COMPOUND_CANONICALIZED>
1
> <PUBCHEM_CACTVS_COMPLEXITY>
956
> <PUBCHEM_CACTVS_HBOND_ACCEPTOR>
14
> <PUBCHEM_CACTVS_HBOND_DONOR>
7
> <PUBCHEM_CACTVS_ROTATABLE_BOND>
11
> <PUBCHEM_CACTVS_SUBSKEYS>
AAADcfB7/AAAAAAAAAAAAAAAAAAAAWLEiQAwYAAAAAAAAAAB9AAAHgAYCAAADBzhmwY/3pbIFkCqArd3/ASSiCs/4qAd2IGvbMmPfzbEvbufcWhv/htb6af4+aOeCAAAQgAIAAAQAACEABAAAAAAAAAAAA==
> <PUBCHEM_IUPAC_OPENEYE_NAME>
1-[3,4-dihydroxy-5-(hydroxymethyl)tetrahydrofuran-2-yl]-1,2,4-triazole-3-carboxamide;[(3S)-tetrahydrofuran-3-yl] N-[[3-[(3-methoxy-4-oxazol-5-yl-phenyl)carbamoylamino]phenyl]methyl]carbamate
> <PUBCHEM_IUPAC_CAS_NAME>
1-[3,4-dihydroxy-5-(hydroxymethyl)-2-oxolanyl]-1,2,4-triazole-3-carboxamide;N-[[3-[[[3-methoxy-4-(5-oxazolyl)anilino]-oxomethyl]amino]phenyl]methyl]carbamic acid [(3S)-3-oxolanyl] ester
> <PUBCHEM_IUPAC_NAME_MARKUP>
1-[3,4-dihydroxy-5-(hydroxymethyl)oxolan-2-yl]-1,2,4-triazole-3-carboxamide;[(3<I>S</I>)-oxolan-3-yl] <I>N</I>-[[3-[[3-methoxy-4-(1,3-oxazol-5-yl)phenyl]carbamoylamino]phenyl]methyl]carbamate
> <PUBCHEM_IUPAC_NAME>
1-[3,4-dihydroxy-5-(hydroxymethyl)oxolan-2-yl]-1,2,4-triazole-3-carboxamide;[(3S)-oxolan-3-yl] N-[[3-[[3-methoxy-4-(1,3-oxazol-5-yl)phenyl]carbamoylamino]phenyl]methyl]carbamate
> <PUBCHEM_IUPAC_SYSTEMATIC_NAME>
1-[5-(hydroxymethyl)-3,4-bis(oxidanyl)oxolan-2-yl]-1,2,4-triazole-3-carboxamide;[(3S)-oxolan-3-yl] N-[[3-[[3-methoxy-4-(1,3-oxazol-5-yl)phenyl]carbamoylamino]phenyl]methyl]carbamate
> <PUBCHEM_IUPAC_TRADITIONAL_NAME>
1-(3,4-dihydroxy-5-methylol-tetrahydrofuran-2-yl)-1,2,4-triazole-3-carboxamide;N-[3-[(3-methoxy-4-oxazol-5-yl-phenyl)carbamoylamino]benzyl]carbamic acid [(3S)-tetrahydrofuran-3-yl] ester
> <PUBCHEM_IUPAC_INCHI>
InChI=1S/C23H24N4O6.C8H12N4O5/c1-30-20-10-17(5-6-19(20)21-12-24-14-32-21)27-22(28)26-16-4-2-3-15(9-16)11-25-23(29)33-18-7-8-31-13-18;9-6(16)7-10-2-12(11-7)8-5(15)4(14)3(1-13)17-8/h2-6,9-10,12,14,18H,7-8,11,13H2,1H3,(H,25,29)(H2,26,27,28);2-5,8,13-15H,1H2,(H2,9,16)/t18-;/m0./s1
> <PUBCHEM_IUPAC_INCHIKEY>
ZXCYNDUODCHMKI-FERBBOLQSA-N
> <PUBCHEM_EXACT_MASS>
696.25035399
> <PUBCHEM_MOLECULAR_FORMULA>
C31H36N8O11
> <PUBCHEM_MOLECULAR_WEIGHT>
696.7
> <PUBCHEM_OPENEYE_CAN_SMILES>
COC1=C(C=CC(=C1)NC(=O)NC2=CC=CC(=C2)CNC(=O)OC3CCOC3)C4=CN=CO4.C1=NC(=NN1C2C(C(C(O2)CO)O)O)C(=O)N
> <PUBCHEM_OPENEYE_ISO_SMILES>
COC1=C(C=CC(=C1)NC(=O)NC2=CC=CC(=C2)CNC(=O)O[C@H]3CCOC3)C4=CN=CO4.C1=NC(=NN1C2C(C(C(O2)CO)O)O)C(=O)N
> <PUBCHEM_CACTVS_TPSA>
268
> <PUBCHEM_MONOISOTOPIC_WEIGHT>
696.25035399
> <PUBCHEM_TOTAL_CHARGE>
0
> <PUBCHEM_HEAVY_ATOM_COUNT>
50
> <PUBCHEM_ATOM_DEF_STEREO_COUNT>
1
> <PUBCHEM_ATOM_UDEF_STEREO_COUNT>
4
> <PUBCHEM_BOND_DEF_STEREO_COUNT>
0
> <PUBCHEM_BOND_UDEF_STEREO_COUNT>
0
> <PUBCHEM_ISOTOPIC_ATOM_COUNT>
0
> <PUBCHEM_COMPONENT_COUNT>
2
> <PUBCHEM_CACTVS_TAUTO_COUNT>
-1
> <PUBCHEM_COORDINATE_TYPE>
1
5
255
> <PUBCHEM_BONDANNOTATIONS>
10  47  8
10  50  8
12  13  8
23  12  3
12  25  8
13  26  8
14  25  8
14  26  8
19  48  8
19  50  8
20  2  3
22  24  3
21  3  3
34  35  8
34  36  8
35  37  8
36  38  8
37  39  8
38  39  8
40  44  8
40  45  8
42  43  8
42  46  8
43  44  8
45  46  8
47  48  8
27  6  5
$$$$
