510305
  -OEChem-10302200282D
 76 79  0     1  0  0  0  0  0999 V2000
    5.0634    0.4620    0.0000 S   0  0  0  0  0  0  0  0  0  0  0  0
    6.2822   -2.2753    0.0000 O   0  0  0  0  0  0  0  0  0  0  0  0
    5.8165    2.0770    0.0000 N   0  0  0  0  0  0  0  0  0  0  0  0
    6.6804    0.5184    0.0000 N   0  0  0  0  0  0  0  0  0  0  0  0
    6.4048   -0.4428    0.0000 N   0  0  0  0  0  0  0  0  0  0  0  0
    4.8462   -1.3068    0.0000 N   0  0  0  0  0  0  0  0  0  0  0  0
    9.2496    4.4808    0.0000 C   0  0  0  0  0  0  0  0  0  0  0  0
    7.8507    4.4720    0.0000 C   0  0  3  0  0  0  0  0  0  0  0  0
    8.1095    5.4379    0.0000 C   0  0  3  0  0  0  0  0  0  0  0  0
    7.3729    6.4205    0.0000 C   0  0  0  0  0  0  0  0  0  0  0  0
    6.6296    3.6063    0.0000 C   0  0  1  0  0  0  0  0  0  0  0  0
    6.0762    5.1268    0.0000 C   0  0  0  0  0  0  0  0  0  0  0  0
    5.8006    4.1655    0.0000 C   0  0  0  0  0  0  0  0  0  0  0  0
    9.7496    3.6148    0.0000 C   0  0  0  0  0  0  0  0  0  0  0  0
   10.1156    4.9808    0.0000 C   0  0  0  0  0  0  0  0  0  0  0  0
    6.6646    2.6069    0.0000 C   0  0  0  0  0  0  0  0  0  0  0  0
    5.8514    1.0776    0.0000 C   0  0  0  0  0  0  0  0  0  0  0  0
    5.4054   -0.4777    0.0000 C   0  0  0  0  0  0  0  0  0  0  0  0
    5.2846   -2.2056    0.0000 C   0  0  0  0  0  0  0  0  0  0  0  0
    4.7254   -3.0346    0.0000 C   0  0  0  0  0  0  0  0  0  0  0  0
    5.1638   -3.9334    0.0000 C   0  0  0  0  0  0  0  0  0  0  0  0
    3.7278   -2.9649    0.0000 C   0  0  0  0  0  0  0  0  0  0  0  0
    6.1613   -4.0032    0.0000 C   0  0  0  0  0  0  0  0  0  0  0  0
    2.8988   -2.4057    0.0000 C   0  0  0  0  0  0  0  0  0  0  0  0
    3.6070   -4.6927    0.0000 C   0  0  0  0  0  0  0  0  0  0  0  0
    4.6046   -4.7624    0.0000 C   0  0  0  0  0  0  0  0  0  0  0  0
    3.1686   -3.7939    0.0000 C   0  0  0  0  0  0  0  0  0  0  0  0
    3.0478   -5.5217    0.0000 C   0  0  0  0  0  0  0  0  0  0  0  0
    6.5997   -4.9020    0.0000 C   0  0  0  0  0  0  0  0  0  0  0  0
    6.7205   -3.1741    0.0000 C   0  0  0  0  0  0  0  0  0  0  0  0
    2.0000   -2.8440    0.0000 C   0  0  0  0  0  0  0  0  0  0  0  0
    2.9686   -1.4081    0.0000 C   0  0  0  0  0  0  0  0  0  0  0  0
    3.4862   -6.4205    0.0000 C   0  0  0  0  0  0  0  0  0  0  0  0
    2.0502   -5.4520    0.0000 C   0  0  0  0  0  0  0  0  0  0  0  0
    8.0407    3.8818    0.0000 H   0  0  0  0  0  0  0  0  0  0  0  0
    8.5598    5.8641    0.0000 H   0  0  0  0  0  0  0  0  0  0  0  0
    7.6907    6.9529    0.0000 H   0  0  0  0  0  0  0  0  0  0  0  0
    6.7597    6.5125    0.0000 H   0  0  0  0  0  0  0  0  0  0  0  0
    6.0874    3.3057    0.0000 H   0  0  0  0  0  0  0  0  0  0  0  0
    6.0712    5.7467    0.0000 H   0  0  0  0  0  0  0  0  0  0  0  0
    5.4619    5.2106    0.0000 H   0  0  0  0  0  0  0  0  0  0  0  0
    5.2258    4.3978    0.0000 H   0  0  0  0  0  0  0  0  0  0  0  0
    5.5095    3.6181    0.0000 H   0  0  0  0  0  0  0  0  0  0  0  0
    9.2127    3.3048    0.0000 H   0  0  0  0  0  0  0  0  0  0  0  0
   10.0596    3.0778    0.0000 H   0  0  0  0  0  0  0  0  0  0  0  0
   10.2865    3.9248    0.0000 H   0  0  0  0  0  0  0  0  0  0  0  0
   10.4256    4.4439    0.0000 H   0  0  0  0  0  0  0  0  0  0  0  0
   10.6526    5.2908    0.0000 H   0  0  0  0  0  0  0  0  0  0  0  0
    9.8056    5.5177    0.0000 H   0  0  0  0  0  0  0  0  0  0  0  0
    6.8968    2.0321    0.0000 H   0  0  0  0  0  0  0  0  0  0  0  0
    7.2710    2.7358    0.0000 H   0  0  0  0  0  0  0  0  0  0  0  0
    5.2691    2.3681    0.0000 H   0  0  0  0  0  0  0  0  0  0  0  0
    4.3322   -0.9601    0.0000 H   0  0  0  0  0  0  0  0  0  0  0  0
    5.8895   -3.4459    0.0000 H   0  0  0  0  0  0  0  0  0  0  0  0
    2.3848   -2.0590    0.0000 H   0  0  0  0  0  0  0  0  0  0  0  0
    4.8764   -5.3197    0.0000 H   0  0  0  0  0  0  0  0  0  0  0  0
    2.5502   -3.7506    0.0000 H   0  0  0  0  0  0  0  0  0  0  0  0
    2.7011   -6.0357    0.0000 H   0  0  0  0  0  0  0  0  0  0  0  0
    6.0424   -5.1737    0.0000 H   0  0  0  0  0  0  0  0  0  0  0  0
    6.8715   -5.4592    0.0000 H   0  0  0  0  0  0  0  0  0  0  0  0
    7.1570   -4.6302    0.0000 H   0  0  0  0  0  0  0  0  0  0  0  0
    7.2345   -3.5208    0.0000 H   0  0  0  0  0  0  0  0  0  0  0  0
    7.0672   -2.6601    0.0000 H   0  0  0  0  0  0  0  0  0  0  0  0
    6.2065   -2.8274    0.0000 H   0  0  0  0  0  0  0  0  0  0  0  0
    1.7282   -2.2868    0.0000 H   0  0  0  0  0  0  0  0  0  0  0  0
    1.4428   -3.1158    0.0000 H   0  0  0  0  0  0  0  0  0  0  0  0
    2.2718   -3.4013    0.0000 H   0  0  0  0  0  0  0  0  0  0  0  0
    3.5870   -1.4514    0.0000 H   0  0  0  0  0  0  0  0  0  0  0  0
    3.0118   -0.7896    0.0000 H   0  0  0  0  0  0  0  0  0  0  0  0
    2.3501   -1.3648    0.0000 H   0  0  0  0  0  0  0  0  0  0  0  0
    2.9289   -6.6923    0.0000 H   0  0  0  0  0  0  0  0  0  0  0  0
    3.7580   -6.9778    0.0000 H   0  0  0  0  0  0  0  0  0  0  0  0
    4.0434   -6.1487    0.0000 H   0  0  0  0  0  0  0  0  0  0  0  0
    2.0935   -4.8335    0.0000 H   0  0  0  0  0  0  0  0  0  0  0  0
    1.4318   -5.4087    0.0000 H   0  0  0  0  0  0  0  0  0  0  0  0
    2.0070   -6.0705    0.0000 H   0  0  0  0  0  0  0  0  0  0  0  0
  1 17  1  0  0  0  0
  1 18  1  0  0  0  0
  2 19  2  0  0  0  0
  3 16  1  0  0  0  0
  3 17  1  0  0  0  0
  3 52  1  0  0  0  0
  4  5  1  0  0  0  0
  4 17  2  0  0  0  0
  5 18  2  0  0  0  0
  6 18  1  0  0  0  0
  6 19  1  0  0  0  0
  6 53  1  0  0  0  0
  7  8  1  0  0  0  0
  7  9  1  0  0  0  0
  7 14  1  0  0  0  0
  7 15  1  0  0  0  0
  8 10  1  0  0  0  0
  8 11  1  0  0  0  0
  8 35  1  0  0  0  0
  9 10  1  0  0  0  0
  9 12  1  0  0  0  0
  9 36  1  0  0  0  0
 10 37  1  0  0  0  0
 10 38  1  0  0  0  0
 11 13  1  0  0  0  0
 11 16  1  6  0  0  0
 11 39  1  0  0  0  0
 12 13  1  0  0  0  0
 12 40  1  0  0  0  0
 12 41  1  0  0  0  0
 13 42  1  0  0  0  0
 13 43  1  0  0  0  0
 14 44  1  0  0  0  0
 14 45  1  0  0  0  0
 14 46  1  0  0  0  0
 15 47  1  0  0  0  0
 15 48  1  0  0  0  0
 15 49  1  0  0  0  0
 16 50  1  0  0  0  0
 16 51  1  0  0  0  0
 19 20  1  0  0  0  0
 20 21  2  0  0  0  0
 20 22  1  0  0  0  0
 21 23  1  0  0  0  0
 21 26  1  0  0  0  0
 22 24  1  0  0  0  0
 22 27  2  0  0  0  0
 23 29  1  0  0  0  0
 23 30  1  0  0  0  0
 23 54  1  0  0  0  0
 24 31  1  0  0  0  0
 24 32  1  0  0  0  0
 24 55  1  0  0  0  0
 25 26  2  0  0  0  0
 25 27  1  0  0  0  0
 25 28  1  0  0  0  0
 26 56  1  0  0  0  0
 27 57  1  0  0  0  0
 28 33  1  0  0  0  0
 28 34  1  0  0  0  0
 28 58  1  0  0  0  0
 29 59  1  0  0  0  0
 29 60  1  0  0  0  0
 29 61  1  0  0  0  0
 30 62  1  0  0  0  0
 30 63  1  0  0  0  0
 30 64  1  0  0  0  0
 31 65  1  0  0  0  0
 31 66  1  0  0  0  0
 31 67  1  0  0  0  0
 32 68  1  0  0  0  0
 32 69  1  0  0  0  0
 32 70  1  0  0  0  0
 33 71  1  0  0  0  0
 33 72  1  0  0  0  0
 33 73  1  0  0  0  0
 34 74  1  0  0  0  0
 34 75  1  0  0  0  0
 34 76  1  0  0  0  0
M  END
> <PUBCHEM_COMPOUND_CID>
510305
> <PUBCHEM_COMPOUND_CANONICALIZED>
1
> <PUBCHEM_CACTVS_COMPLEXITY>
693
> <PUBCHEM_CACTVS_HBOND_ACCEPTOR>
5
> <PUBCHEM_CACTVS_HBOND_DONOR>
2
> <PUBCHEM_CACTVS_ROTATABLE_BOND>
8
> <PUBCHEM_CACTVS_SUBSKEYS>
AAADcfB7oABAAAAAAAAAAAAAAABgAWAAAAAwYMAAAAAAAAABwAAAHgQYAAAADwDBmAQzEILAAAiuAiFSMACSAAJkAAkFiIEIBMiIIDKAnRGEIQhwkQIIiQcYiMCPwAACAAAQAACAAAQAACAAAAAAAAAAAA==
> <PUBCHEM_IUPAC_OPENEYE_NAME>
N-[5-[[(2R)-6,6-dimethylnorpinan-2-yl]methylamino]-1,3,4-thiadiazol-2-yl]-2,4,6-triisopropyl-benzamide
> <PUBCHEM_IUPAC_CAS_NAME>
N-[5-[[(2R)-6,6-dimethyl-2-bicyclo[3.1.1]heptanyl]methylamino]-1,3,4-thiadiazol-2-yl]-2,4,6-tri(propan-2-yl)benzamide
> <PUBCHEM_IUPAC_NAME_MARKUP>
<I>N</I>-[5-[[(2<I>R</I>)-6,6-dimethyl-2-bicyclo[3.1.1]heptanyl]methylamino]-1,3,4-thiadiazol-2-yl]-2,4,6-tri(propan-2-yl)benzamide
> <PUBCHEM_IUPAC_NAME>
N-[5-[[(2R)-6,6-dimethyl-2-bicyclo[3.1.1]heptanyl]methylamino]-1,3,4-thiadiazol-2-yl]-2,4,6-tri(propan-2-yl)benzamide
> <PUBCHEM_IUPAC_SYSTEMATIC_NAME>
N-[5-[[(2R)-6,6-dimethyl-2-bicyclo[3.1.1]heptanyl]methylamino]-1,3,4-thiadiazol-2-yl]-2,4,6-tri(propan-2-yl)benzamide
> <PUBCHEM_IUPAC_TRADITIONAL_NAME>
N-[5-[[(2R)-6,6-dimethylnorpinan-2-yl]methylamino]-1,3,4-thiadiazol-2-yl]-2,4,6-triisopropyl-benzamide
> <PUBCHEM_IUPAC_INCHI>
InChI=1S/C28H42N4OS/c1-15(2)19-11-21(16(3)4)24(22(12-19)17(5)6)25(33)30-27-32-31-26(34-27)29-14-18-9-10-20-13-23(18)28(20,7)8/h11-12,15-18,20,23H,9-10,13-14H2,1-8H3,(H,29,31)(H,30,32,33)/t18-,20?,23?/m0/s1
> <PUBCHEM_IUPAC_INCHIKEY>
OMAWJNWJHOTMQU-QRGRWYIGSA-N
> <PUBCHEM_XLOGP3_AA>
8.2
> <PUBCHEM_EXACT_MASS>
482.30793315
> <PUBCHEM_MOLECULAR_FORMULA>
C28H42N4OS
> <PUBCHEM_MOLECULAR_WEIGHT>
482.7
> <PUBCHEM_OPENEYE_CAN_SMILES>
CC(C)C1=CC(=C(C(=C1)C(C)C)C(=O)NC2=NN=C(S2)NCC3CCC4CC3C4(C)C)C(C)C
> <PUBCHEM_OPENEYE_ISO_SMILES>
CC(C)C1=CC(=C(C(=C1)C(C)C)C(=O)NC2=NN=C(S2)NC[C@@H]3CCC4CC3C4(C)C)C(C)C
> <PUBCHEM_CACTVS_TPSA>
95.2
> <PUBCHEM_MONOISOTOPIC_WEIGHT>
482.30793315
> <PUBCHEM_TOTAL_CHARGE>
0
> <PUBCHEM_HEAVY_ATOM_COUNT>
34
> <PUBCHEM_ATOM_DEF_STEREO_COUNT>
1
> <PUBCHEM_ATOM_UDEF_STEREO_COUNT>
2
> <PUBCHEM_BOND_DEF_STEREO_COUNT>
0
> <PUBCHEM_BOND_UDEF_STEREO_COUNT>
0
> <PUBCHEM_ISOTOPIC_ATOM_COUNT>
0
> <PUBCHEM_COMPONENT_COUNT>
1
> <PUBCHEM_CACTVS_TAUTO_COUNT>
-1
> <PUBCHEM_COORDINATE_TYPE>
1
5
255
> <PUBCHEM_BONDANNOTATIONS>
1  17  8
1  18  8
11  16  6
20  21  8
20  22  8
21  26  8
22  27  8
25  26  8
25  27  8
4  17  8
4  5  8
5  18  8
8  10  3
9  12  3
$$$$
