510384
  -OEChem-10302200282D
 49 52  0     1  0  0  0  0  0999 V2000
    6.3817   -1.6016    0.0000 O   0  0  0  0  0  0  0  0  0  0  0  0
    8.1301    2.4330    0.0000 O   0  0  0  0  0  0  0  0  0  0  0  0
   10.7282    0.9330    0.0000 O   0  0  0  0  0  0  0  0  0  0  0  0
    9.8622    2.4330    0.0000 O   0  0  0  0  0  0  0  0  0  0  0  0
    8.1301   -0.5670    0.0000 N   0  0  0  0  0  0  0  0  0  0  0  0
    4.6000   -0.5911    0.0000 N   0  0  3  0  0  0  0  0  0  0  0  0
    2.8718   -1.5978    0.0000 N   0  0  0  0  0  0  0  0  0  0  0  0
    8.1301   -1.5670    0.0000 C   0  0  0  0  0  0  0  0  0  0  0  0
    7.6301   -2.4330    0.0000 C   0  0  0  0  0  0  0  0  0  0  0  0
    8.6301   -2.4330    0.0000 C   0  0  0  0  0  0  0  0  0  0  0  0
    7.2641   -0.0670    0.0000 C   0  0  0  0  0  0  0  0  0  0  0  0
    8.9961   -0.0670    0.0000 C   0  0  0  0  0  0  0  0  0  0  0  0
    6.3701   -0.6016    0.0000 C   0  0  0  0  0  0  0  0  0  0  0  0
    7.2641    0.9330    0.0000 C   0  0  0  0  0  0  0  0  0  0  0  0
    5.4641   -0.0878    0.0000 C   0  0  0  0  0  0  0  0  0  0  0  0
    3.7320   -0.0945    0.0000 C   0  0  0  0  0  0  0  0  0  0  0  0
    2.8680   -0.5978    0.0000 C   0  0  3  0  0  0  0  0  0  0  0  0
    4.6038   -1.5911    0.0000 C   0  0  0  0  0  0  0  0  0  0  0  0
    3.7398   -2.0945    0.0000 C   0  0  0  0  0  0  0  0  0  0  0  0
    8.9961    0.9330    0.0000 C   0  0  0  0  0  0  0  0  0  0  0  0
    8.1301    1.4330    0.0000 C   0  0  0  0  0  0  0  0  0  0  0  0
    6.3701    1.4677    0.0000 C   0  0  0  0  0  0  0  0  0  0  0  0
    5.4641    0.9538    0.0000 C   0  0  0  0  0  0  0  0  0  0  0  0
    2.0000   -0.1012    0.0000 C   0  0  0  0  0  0  0  0  0  0  0  0
    9.8622    1.4330    0.0000 C   0  0  0  0  0  0  0  0  0  0  0  0
    5.5215   -2.1116    0.0000 C   0  0  0  0  0  0  0  0  0  0  0  0
    7.5312   -1.4065    0.0000 H   0  0  0  0  0  0  0  0  0  0  0  0
    7.0475   -2.2210    0.0000 H   0  0  0  0  0  0  0  0  0  0  0  0
    7.5224   -3.0436    0.0000 H   0  0  0  0  0  0  0  0  0  0  0  0
    8.7378   -3.0436    0.0000 H   0  0  0  0  0  0  0  0  0  0  0  0
    9.2127   -2.2210    0.0000 H   0  0  0  0  0  0  0  0  0  0  0  0
    9.5331   -0.3770    0.0000 H   0  0  0  0  0  0  0  0  0  0  0  0
    4.1287    0.3820    0.0000 H   0  0  0  0  0  0  0  0  0  0  0  0
    3.3317    0.3789    0.0000 H   0  0  0  0  0  0  0  0  0  0  0  0
    2.3322   -0.9099    0.0000 H   0  0  0  0  0  0  0  0  0  0  0  0
    4.8181   -2.1729    0.0000 H   0  0  0  0  0  0  0  0  0  0  0  0
    5.2140   -1.4811    0.0000 H   0  0  0  0  0  0  0  0  0  0  0  0
    3.3430   -2.5709    0.0000 H   0  0  0  0  0  0  0  0  0  0  0  0
    4.1401   -2.5679    0.0000 H   0  0  0  0  0  0  0  0  0  0  0  0
    2.3361   -1.9099    0.0000 H   0  0  0  0  0  0  0  0  0  0  0  0
    4.9283    1.2659    0.0000 H   0  0  0  0  0  0  0  0  0  0  0  0
    6.3773    2.0876    0.0000 H   0  0  0  0  0  0  0  0  0  0  0  0
    2.3079    0.4370    0.0000 H   0  0  0  0  0  0  0  0  0  0  0  0
    1.4619    0.2068    0.0000 H   0  0  0  0  0  0  0  0  0  0  0  0
    1.6921   -0.6393    0.0000 H   0  0  0  0  0  0  0  0  0  0  0  0
    5.2053   -1.5782    0.0000 H   0  0  0  0  0  0  0  0  0  0  0  0
    4.9882   -2.4278    0.0000 H   0  0  0  0  0  0  0  0  0  0  0  0
    5.8377   -2.6449    0.0000 H   0  0  0  0  0  0  0  0  0  0  0  0
   11.2651    1.2430    0.0000 H   0  0  0  0  0  0  0  0  0  0  0  0
  1 13  1  0  0  0  0
  1 26  1  0  0  0  0
  2 21  2  0  0  0  0
  3 25  1  0  0  0  0
  3 49  1  0  0  0  0
  4 25  2  0  0  0  0
  5  8  1  0  0  0  0
  5 11  1  0  0  0  0
  5 12  1  0  0  0  0
  6 15  1  0  0  0  0
  6 16  1  0  0  0  0
  6 18  1  0  0  0  0
  7 17  1  0  0  0  0
  7 19  1  0  0  0  0
  7 40  1  0  0  0  0
  8  9  1  0  0  0  0
  8 10  1  0  0  0  0
  8 27  1  0  0  0  0
  9 10  1  0  0  0  0
  9 28  1  0  0  0  0
  9 29  1  0  0  0  0
 10 30  1  0  0  0  0
 10 31  1  0  0  0  0
 11 13  1  0  0  0  0
 11 14  2  0  0  0  0
 12 20  2  0  0  0  0
 12 32  1  0  0  0  0
 13 15  2  0  0  0  0
 14 21  1  0  0  0  0
 14 22  1  0  0  0  0
 15 23  1  0  0  0  0
 16 17  1  0  0  0  0
 16 33  1  0  0  0  0
 16 34  1  0  0  0  0
 17 24  1  0  0  0  0
 17 35  1  0  0  0  0
 18 19  1  0  0  0  0
 18 36  1  0  0  0  0
 18 37  1  0  0  0  0
 19 38  1  0  0  0  0
 19 39  1  0  0  0  0
 20 21  1  0  0  0  0
 20 25  1  0  0  0  0
 22 23  2  0  0  0  0
 22 42  1  0  0  0  0
 23 41  1  0  0  0  0
 24 43  1  0  0  0  0
 24 44  1  0  0  0  0
 24 45  1  0  0  0  0
 26 46  1  0  0  0  0
 26 47  1  0  0  0  0
 26 48  1  0  0  0  0
M  END
> <PUBCHEM_COMPOUND_CID>
510384
> <PUBCHEM_COMPOUND_CANONICALIZED>
1
> <PUBCHEM_CACTVS_COMPLEXITY>
618
> <PUBCHEM_CACTVS_HBOND_ACCEPTOR>
7
> <PUBCHEM_CACTVS_HBOND_DONOR>
2
> <PUBCHEM_CACTVS_ROTATABLE_BOND>
4
> <PUBCHEM_CACTVS_SUBSKEYS>
AAADceB7OAAAAAAAAAAAAAAAGAAAAAAAAAA8QIAAAAAAAACBAAAAHgAQCAAADCzBmAYyzoPABgCIAqTWSACCCAAlIgAIiIENbMgOZj7M9NuVcahk8BHY+cea2bOeCAABAAQCEAAQAAIACAQgAAAAAAAAAA==
> <PUBCHEM_IUPAC_OPENEYE_NAME>
1-cyclopropyl-8-methoxy-7-(3-methylpiperazin-1-yl)-4-oxo-quinoline-3-carboxylic acid
> <PUBCHEM_IUPAC_CAS_NAME>
1-cyclopropyl-8-methoxy-7-(3-methyl-1-piperazinyl)-4-oxo-3-quinolinecarboxylic acid
> <PUBCHEM_IUPAC_NAME_MARKUP>
1-cyclopropyl-8-methoxy-7-(3-methylpiperazin-1-yl)-4-oxoquinoline-3-carboxylic acid
> <PUBCHEM_IUPAC_NAME>
1-cyclopropyl-8-methoxy-7-(3-methylpiperazin-1-yl)-4-oxoquinoline-3-carboxylic acid
> <PUBCHEM_IUPAC_SYSTEMATIC_NAME>
1-cyclopropyl-8-methoxy-7-(3-methylpiperazin-1-yl)-4-oxidanylidene-quinoline-3-carboxylic acid
> <PUBCHEM_IUPAC_TRADITIONAL_NAME>
1-cyclopropyl-4-keto-8-methoxy-7-(3-methylpiperazino)quinoline-3-carboxylic acid
> <PUBCHEM_IUPAC_INCHI>
InChI=1S/C19H23N3O4/c1-11-9-21(8-7-20-11)15-6-5-13-16(18(15)26-2)22(12-3-4-12)10-14(17(13)23)19(24)25/h5-6,10-12,20H,3-4,7-9H2,1-2H3,(H,24,25)
> <PUBCHEM_IUPAC_INCHIKEY>
FMQKPIVQURNJBR-UHFFFAOYSA-N
> <PUBCHEM_XLOGP3_AA>
0.1
> <PUBCHEM_EXACT_MASS>
357.16885622
> <PUBCHEM_MOLECULAR_FORMULA>
C19H23N3O4
> <PUBCHEM_MOLECULAR_WEIGHT>
357.4
> <PUBCHEM_OPENEYE_CAN_SMILES>
CC1CN(CCN1)C2=C(C3=C(C=C2)C(=O)C(=CN3C4CC4)C(=O)O)OC
> <PUBCHEM_OPENEYE_ISO_SMILES>
CC1CN(CCN1)C2=C(C3=C(C=C2)C(=O)C(=CN3C4CC4)C(=O)O)OC
> <PUBCHEM_CACTVS_TPSA>
82.1
> <PUBCHEM_MONOISOTOPIC_WEIGHT>
357.16885622
> <PUBCHEM_TOTAL_CHARGE>
0
> <PUBCHEM_HEAVY_ATOM_COUNT>
26
> <PUBCHEM_ATOM_DEF_STEREO_COUNT>
0
> <PUBCHEM_ATOM_UDEF_STEREO_COUNT>
1
> <PUBCHEM_BOND_DEF_STEREO_COUNT>
0
> <PUBCHEM_BOND_UDEF_STEREO_COUNT>
0
> <PUBCHEM_ISOTOPIC_ATOM_COUNT>
0
> <PUBCHEM_COMPONENT_COUNT>
1
> <PUBCHEM_CACTVS_TAUTO_COUNT>
-1
> <PUBCHEM_COORDINATE_TYPE>
1
5
255
> <PUBCHEM_BONDANNOTATIONS>
11  13  8
11  14  8
12  20  8
13  15  8
14  21  8
14  22  8
15  23  8
17  24  3
20  21  8
22  23  8
5  11  8
5  12  8
$$$$
