510407
  -OEChem-10302200282D
 88 93  0     1  0  0  0  0  0999 V2000
    6.3301    1.7069    0.0000 O   0  0  0  0  0  0  0  0  0  0  0  0
    9.4282    5.0729    0.0000 O   0  0  0  0  0  0  0  0  0  0  0  0
    9.9282    4.2069    0.0000 O   0  0  0  0  0  0  0  0  0  0  0  0
    7.2108    6.2931    0.0000 O   0  0  0  0  0  0  0  0  0  0  0  0
    4.5981    1.7069    0.0000 O   0  0  0  0  0  0  0  0  0  0  0  0
    6.3301   -0.2931    0.0000 O   0  0  0  0  0  0  0  0  0  0  0  0
    4.5981   -1.2931    0.0000 O   0  0  0  0  0  0  0  0  0  0  0  0
    2.8660   -0.2931    0.0000 O   0  0  0  0  0  0  0  0  0  0  0  0
    3.7320   -2.7931    0.0000 O   0  0  0  0  0  0  0  0  0  0  0  0
    2.8660   -1.2931    0.0000 O   0  0  0  0  0  0  0  0  0  0  0  0
    7.1962    3.2069    0.0000 C   0  0  3  0  0  0  0  0  0  0  0  0
    8.0622    3.7069    0.0000 C   0  0  3  0  0  0  0  0  0  0  0  0
    7.8543    4.6850    0.0000 C   0  0  3  0  0  0  0  0  0  0  0  0
    6.4530    3.8760    0.0000 C   0  0  1  0  0  0  0  0  0  0  0  0
    6.8597    4.7896    0.0000 C   0  0  1  0  0  0  0  0  0  0  0  0
    7.4054    2.2351    0.0000 C   0  0  3  0  0  0  0  0  0  0  0  0
    8.3371    3.3305    0.0000 C   0  0  0  0  0  0  0  0  0  0  0  0
    5.4646    3.9825    0.0000 C   0  0  1  0  0  0  0  0  0  0  0  0
    8.7992    3.0398    0.0000 C   0  0  0  0  0  0  0  0  0  0  0  0
    6.1193    5.4528    0.0000 C   0  0  0  0  0  0  0  0  0  0  0  0
    6.3301    2.7069    0.0000 C   0  0  0  0  0  0  0  0  0  0  0  0
    8.3941    2.1320    0.0000 C   0  0  0  0  0  0  0  0  0  0  0  0
    5.2588    4.9550    0.0000 C   0  0  0  0  0  0  0  0  0  0  0  0
    8.9282    4.2069    0.0000 C   0  0  0  0  0  0  0  0  0  0  0  0
    7.9968    5.6748    0.0000 C   0  0  0  0  0  0  0  0  0  0  0  0
    9.7497    2.7291    0.0000 C   0  0  0  0  0  0  0  0  0  0  0  0
    4.7942    3.2405    0.0000 C   0  0  0  0  0  0  0  0  0  0  0  0
    9.9559    1.7506    0.0000 C   0  0  0  0  0  0  0  0  0  0  0  0
   10.4940    3.3970    0.0000 C   0  0  0  0  0  0  0  0  0  0  0  0
    5.4641    1.2069    0.0000 C   0  0  2  0  0  0  0  0  0  0  0  0
    5.4641    0.2069    0.0000 C   0  0  2  0  0  0  0  0  0  0  0  0
    4.5981   -0.2931    0.0000 C   0  0  1  0  0  0  0  0  0  0  0  0
    3.7320    1.2069    0.0000 C   0  0  1  0  0  0  0  0  0  0  0  0
    3.7320    0.2069    0.0000 C   0  0  1  0  0  0  0  0  0  0  0  0
    2.8660    1.7069    0.0000 C   0  0  0  0  0  0  0  0  0  0  0  0
    3.7320   -1.7931    0.0000 C   0  0  0  0  0  0  0  0  0  0  0  0
    2.0000    0.2069    0.0000 C   0  0  0  0  0  0  0  0  0  0  0  0
    2.8660   -3.2931    0.0000 C   0  0  0  0  0  0  0  0  0  0  0  0
    2.8660   -4.2931    0.0000 C   0  0  0  0  0  0  0  0  0  0  0  0
    3.7320   -4.7931    0.0000 C   0  0  0  0  0  0  0  0  0  0  0  0
    2.0000   -4.7931    0.0000 C   0  0  0  0  0  0  0  0  0  0  0  0
    3.7320   -5.7931    0.0000 C   0  0  0  0  0  0  0  0  0  0  0  0
    2.0000   -5.7931    0.0000 C   0  0  0  0  0  0  0  0  0  0  0  0
    2.8660   -6.2931    0.0000 C   0  0  0  0  0  0  0  0  0  0  0  0
    6.1073    3.0995    0.0000 H   0  0  0  0  0  0  0  0  0  0  0  0
    7.2055    5.5661    0.0000 H   0  0  0  0  0  0  0  0  0  0  0  0
    6.9913    1.7736    0.0000 H   0  0  0  0  0  0  0  0  0  0  0  0
    8.7324    2.8529    0.0000 H   0  0  0  0  0  0  0  0  0  0  0  0
    8.8760    3.6369    0.0000 H   0  0  0  0  0  0  0  0  0  0  0  0
    5.6856    3.4032    0.0000 H   0  0  0  0  0  0  0  0  0  0  0  0
    6.5792    5.8686    0.0000 H   0  0  0  0  0  0  0  0  0  0  0  0
    5.7541    5.9539    0.0000 H   0  0  0  0  0  0  0  0  0  0  0  0
    6.1181    3.2895    0.0000 H   0  0  0  0  0  0  0  0  0  0  0  0
    5.7196    2.5992    0.0000 H   0  0  0  0  0  0  0  0  0  0  0  0
    8.7041    1.5951    0.0000 H   0  0  0  0  0  0  0  0  0  0  0  0
    5.0065    5.5214    0.0000 H   0  0  0  0  0  0  0  0  0  0  0  0
    4.6691    4.7636    0.0000 H   0  0  0  0  0  0  0  0  0  0  0  0
    8.5724    5.9052    0.0000 H   0  0  0  0  0  0  0  0  0  0  0  0
    9.6219    3.3358    0.0000 H   0  0  0  0  0  0  0  0  0  0  0  0
    4.3342    3.6562    0.0000 H   0  0  0  0  0  0  0  0  0  0  0  0
    4.3786    2.7805    0.0000 H   0  0  0  0  0  0  0  0  0  0  0  0
    5.2543    2.8248    0.0000 H   0  0  0  0  0  0  0  0  0  0  0  0
    9.3493    1.6228    0.0000 H   0  0  0  0  0  0  0  0  0  0  0  0
   10.0838    1.1440    0.0000 H   0  0  0  0  0  0  0  0  0  0  0  0
   10.5626    1.8785    0.0000 H   0  0  0  0  0  0  0  0  0  0  0  0
   10.9081    2.9355    0.0000 H   0  0  0  0  0  0  0  0  0  0  0  0
   10.9555    3.8110    0.0000 H   0  0  0  0  0  0  0  0  0  0  0  0
   10.0800    3.8584    0.0000 H   0  0  0  0  0  0  0  0  0  0  0  0
   10.0482    5.0729    0.0000 H   0  0  0  0  0  0  0  0  0  0  0  0
    5.4641    1.8269    0.0000 H   0  0  0  0  0  0  0  0  0  0  0  0
    5.4641   -0.4131    0.0000 H   0  0  0  0  0  0  0  0  0  0  0  0
    4.0611   -0.6031    0.0000 H   0  0  0  0  0  0  0  0  0  0  0  0
    3.7320    1.8269    0.0000 H   0  0  0  0  0  0  0  0  0  0  0  0
    3.7320   -0.4131    0.0000 H   0  0  0  0  0  0  0  0  0  0  0  0
    6.8671    0.0169    0.0000 H   0  0  0  0  0  0  0  0  0  0  0  0
    3.1760    2.2438    0.0000 H   0  0  0  0  0  0  0  0  0  0  0  0
    2.3291    2.0169    0.0000 H   0  0  0  0  0  0  0  0  0  0  0  0
    2.5560    1.1700    0.0000 H   0  0  0  0  0  0  0  0  0  0  0  0
    2.3100    0.7438    0.0000 H   0  0  0  0  0  0  0  0  0  0  0  0
    1.4631    0.5169    0.0000 H   0  0  0  0  0  0  0  0  0  0  0  0
    1.6900   -0.3301    0.0000 H   0  0  0  0  0  0  0  0  0  0  0  0
    2.6540   -2.7105    0.0000 H   0  0  0  0  0  0  0  0  0  0  0  0
    2.2554   -3.4008    0.0000 H   0  0  0  0  0  0  0  0  0  0  0  0
    4.2690   -4.4831    0.0000 H   0  0  0  0  0  0  0  0  0  0  0  0
    1.4631   -4.4831    0.0000 H   0  0  0  0  0  0  0  0  0  0  0  0
    4.2690   -6.1031    0.0000 H   0  0  0  0  0  0  0  0  0  0  0  0
    1.4631   -6.1031    0.0000 H   0  0  0  0  0  0  0  0  0  0  0  0
    2.8660   -6.9131    0.0000 H   0  0  0  0  0  0  0  0  0  0  0  0
  1 21  1  0  0  0  0
 30  1  1  1  0  0  0
  2 24  1  0  0  0  0
  2 69  1  0  0  0  0
  3 24  2  0  0  0  0
  4 25  2  0  0  0  0
  5 30  1  0  0  0  0
  5 33  1  0  0  0  0
 31  6  1  1  0  0  0
  6 75  1  0  0  0  0
 32  7  1  6  0  0  0
  7 36  1  0  0  0  0
 34  8  1  6  0  0  0
  8 37  1  0  0  0  0
  9 36  1  0  0  0  0
  9 38  1  0  0  0  0
 10 36  2  0  0  0  0
 11 12  1  0  0  0  0
 11 14  1  0  0  0  0
 11 16  1  0  0  0  0
 11 21  1  0  0  0  0
 12 13  1  0  0  0  0
 12 19  1  0  0  0  0
 12 24  1  0  0  0  0
 13 15  1  0  0  0  0
 13 17  1  0  0  0  0
 13 25  1  0  0  0  0
 14 15  1  0  0  0  0
 14 18  1  0  0  0  0
 14 45  1  1  0  0  0
 15 20  1  0  0  0  0
 15 46  1  6  0  0  0
 16 17  1  0  0  0  0
 16 22  1  0  0  0  0
 16 47  1  0  0  0  0
 17 48  1  0  0  0  0
 17 49  1  0  0  0  0
 18 23  1  0  0  0  0
 18 27  1  6  0  0  0
 18 50  1  0  0  0  0
 19 22  2  0  0  0  0
 19 26  1  0  0  0  0
 20 23  1  0  0  0  0
 20 51  1  0  0  0  0
 20 52  1  0  0  0  0
 21 53  1  0  0  0  0
 21 54  1  0  0  0  0
 22 55  1  0  0  0  0
 23 56  1  0  0  0  0
 23 57  1  0  0  0  0
 25 58  1  0  0  0  0
 26 28  1  0  0  0  0
 26 29  1  0  0  0  0
 26 59  1  0  0  0  0
 27 60  1  0  0  0  0
 27 61  1  0  0  0  0
 27 62  1  0  0  0  0
 28 63  1  0  0  0  0
 28 64  1  0  0  0  0
 28 65  1  0  0  0  0
 29 66  1  0  0  0  0
 29 67  1  0  0  0  0
 29 68  1  0  0  0  0
 30 31  1  0  0  0  0
 30 70  1  0  0  0  0
 31 32  1  0  0  0  0
 31 71  1  0  0  0  0
 32 34  1  0  0  0  0
 32 72  1  0  0  0  0
 33 34  1  0  0  0  0
 33 35  1  1  0  0  0
 33 73  1  0  0  0  0
 34 74  1  0  0  0  0
 35 76  1  0  0  0  0
 35 77  1  0  0  0  0
 35 78  1  0  0  0  0
 37 79  1  0  0  0  0
 37 80  1  0  0  0  0
 37 81  1  0  0  0  0
 38 39  1  0  0  0  0
 38 82  1  0  0  0  0
 38 83  1  0  0  0  0
 39 40  2  0  0  0  0
 39 41  1  0  0  0  0
 40 42  1  0  0  0  0
 40 84  1  0  0  0  0
 41 43  2  0  0  0  0
 41 85  1  0  0  0  0
 42 44  2  0  0  0  0
 42 86  1  0  0  0  0
 43 44  1  0  0  0  0
 43 87  1  0  0  0  0
 44 88  1  0  0  0  0
M  END
> <PUBCHEM_COMPOUND_CID>
510407
> <PUBCHEM_COMPOUND_CANONICALIZED>
1
> <PUBCHEM_CACTVS_COMPLEXITY>
1160
> <PUBCHEM_CACTVS_HBOND_ACCEPTOR>
10
> <PUBCHEM_CACTVS_HBOND_DONOR>
2
> <PUBCHEM_CACTVS_ROTATABLE_BOND>
12
> <PUBCHEM_CACTVS_SUBSKEYS>
AAADcfB8PAAAAAAAAAAAAAAAAAAAAYMGCAA0YIEAAAAYAAABAAAAGgAACAAADxSwmAMyCIAABgCIAijSiAACAAAgAAAIiAEACIgZNjKAMRiicAAlwAEPqAfL7PyPgAAAAAAAAACAAAQAACAAAQAACAAAAA==
> <PUBCHEM_IUPAC_OPENEYE_NAME>
(3R,4R,7R)-2-[[(2R,3S,4S,5R,6R)-4-benzyloxycarbonyloxy-3-hydroxy-5-methoxy-6-methyl-tetrahydropyran-2-yl]oxymethyl]-8-formyl-12-isopropyl-4-methyl-tetracyclo[6.4.0.02,10.03,7]dodec-11-ene-1-carboxylic acid
> <PUBCHEM_IUPAC_CAS_NAME>
(3R,4R,7R)-8-formyl-2-[[(2R,3S,4S,5R,6R)-3-hydroxy-5-methoxy-6-methyl-4-phenylmethoxycarbonyloxy-2-oxanyl]oxymethyl]-4-methyl-12-propan-2-yl-1-tetracyclo[6.4.0.02,10.03,7]dodec-11-enecarboxylic acid
> <PUBCHEM_IUPAC_NAME_MARKUP>
(3<I>R</I>,4<I>R</I>,7<I>R</I>)-8-formyl-2-[[(2<I>R</I>,3<I>S</I>,4<I>S</I>,5<I>R</I>,6<I>R</I>)-3-hydroxy-5-methoxy-6-methyl-4-phenylmethoxycarbonyloxyoxan-2-yl]oxymethyl]-4-methyl-12-propan-2-yltetracyclo[6.4.0.0<SUP>2,10</SUP>.0<SUP>3,7</SUP>]dodec-11-ene-1-carboxylic acid
> <PUBCHEM_IUPAC_NAME>
(3R,4R,7R)-8-formyl-2-[[(2R,3S,4S,5R,6R)-3-hydroxy-5-methoxy-6-methyl-4-phenylmethoxycarbonyloxyoxan-2-yl]oxymethyl]-4-methyl-12-propan-2-yltetracyclo[6.4.0.02,10.03,7]dodec-11-ene-1-carboxylic acid
> <PUBCHEM_IUPAC_SYSTEMATIC_NAME>
(3R,4R,7R)-8-methanoyl-2-[[(2R,3S,4S,5R,6R)-5-methoxy-6-methyl-3-oxidanyl-4-phenylmethoxycarbonyloxy-oxan-2-yl]oxymethyl]-4-methyl-12-propan-2-yl-tetracyclo[6.4.0.02,10.03,7]dodec-11-ene-1-carboxylic acid
> <PUBCHEM_IUPAC_TRADITIONAL_NAME>
(3R,4R,7R)-2-[[(2R,3S,4S,5R,6R)-4-carbobenzoxyoxy-3-hydroxy-5-methoxy-6-methyl-tetrahydropyran-2-yl]oxymethyl]-8-formyl-12-isopropyl-4-methyl-tetracyclo[6.4.0.02,10.03,7]dodec-11-ene-1-carboxylic acid
> <PUBCHEM_IUPAC_INCHI>
InChI=1S/C34H44O10/c1-18(2)24-13-22-14-32(16-35)23-12-11-19(3)25(23)33(22,34(24,32)30(37)38)17-42-29-26(36)28(27(40-5)20(4)43-29)44-31(39)41-15-21-9-7-6-8-10-21/h6-10,13,16,18-20,22-23,25-29,36H,11-12,14-15,17H2,1-5H3,(H,37,38)/t19-,20-,22?,23-,25-,26+,27-,28+,29-,32?,33?,34?/m1/s1
> <PUBCHEM_IUPAC_INCHIKEY>
NDIQKOKVUZCQFQ-RGYNRTSASA-N
> <PUBCHEM_XLOGP3_AA>
3.6
> <PUBCHEM_EXACT_MASS>
612.29344760
> <PUBCHEM_MOLECULAR_FORMULA>
C34H44O10
> <PUBCHEM_MOLECULAR_WEIGHT>
612.7
> <PUBCHEM_OPENEYE_CAN_SMILES>
CC1CCC2C1C3(C4CC2(C3(C(=C4)C(C)C)C(=O)O)C=O)COC5C(C(C(C(O5)C)OC)OC(=O)OCC6=CC=CC=C6)O
> <PUBCHEM_OPENEYE_ISO_SMILES>
C[C@@H]1CC[C@@H]2[C@@H]1C3(C4CC2(C3(C(=C4)C(C)C)C(=O)O)C=O)CO[C@H]5[C@H]([C@@H]([C@@H]([C@H](O5)C)OC)OC(=O)OCC6=CC=CC=C6)O
> <PUBCHEM_CACTVS_TPSA>
138
> <PUBCHEM_MONOISOTOPIC_WEIGHT>
612.29344760
> <PUBCHEM_TOTAL_CHARGE>
0
> <PUBCHEM_HEAVY_ATOM_COUNT>
44
> <PUBCHEM_ATOM_DEF_STEREO_COUNT>
8
> <PUBCHEM_ATOM_UDEF_STEREO_COUNT>
4
> <PUBCHEM_BOND_DEF_STEREO_COUNT>
0
> <PUBCHEM_BOND_UDEF_STEREO_COUNT>
0
> <PUBCHEM_ISOTOPIC_ATOM_COUNT>
0
> <PUBCHEM_COMPONENT_COUNT>
1
> <PUBCHEM_CACTVS_TAUTO_COUNT>
-1
> <PUBCHEM_COORDINATE_TYPE>
1
5
255
> <PUBCHEM_BONDANNOTATIONS>
30  1  5
11  21  3
12  24  3
13  25  3
14  45  5
15  46  6
16  17  3
18  27  6
33  35  5
39  40  8
39  41  8
40  42  8
41  43  8
42  44  8
43  44  8
31  6  5
32  7  6
34  8  6
$$$$
