510487
  -OEChem-10302200282D
 48 50  0     1  0  0  0  0  0999 V2000
    9.3191    0.5053    0.0000 S   0  0  0  0  0  0  0  0  0  0  0  0
    2.0000   -0.2500    0.0000 F   0  0  0  0  0  0  0  0  0  0  0  0
   10.2696    0.1946    0.0000 O   0  0  0  0  0  0  0  0  0  0  0  0
    8.3685    0.8159    0.0000 O   0  0  0  0  0  0  0  0  0  0  0  0
    6.3301    1.2500    0.0000 O   0  0  0  0  0  0  0  0  0  0  0  0
    9.0084   -0.4453    0.0000 N   0  0  0  0  0  0  0  0  0  0  0  0
    9.6297    1.4558    0.0000 N   0  0  0  0  0  0  0  0  0  0  0  0
    9.0084   -2.0547    0.0000 N   0  0  0  0  0  0  0  0  0  0  0  0
   10.5920   -1.2500    0.0000 N   0  0  0  0  0  0  0  0  0  0  0  0
    4.5981    1.2500    0.0000 N   0  0  0  0  0  0  0  0  0  0  0  0
    8.0622   -0.7500    0.0000 C   0  0  0  0  0  0  0  0  0  0  0  0
    5.4641   -0.2500    0.0000 C   0  0  3  0  0  0  0  0  0  0  0  0
    6.3301   -0.7500    0.0000 C   0  0  0  0  0  0  0  0  0  0  0  0
    7.1962   -0.2500    0.0000 C   0  0  0  0  0  0  0  0  0  0  0  0
    8.0622   -1.7500    0.0000 C   0  0  0  0  0  0  0  0  0  0  0  0
    9.5920   -1.2500    0.0000 C   0  0  0  0  0  0  0  0  0  0  0  0
    6.3301   -1.7500    0.0000 C   0  0  0  0  0  0  0  0  0  0  0  0
    4.5981   -0.7500    0.0000 C   0  0  0  0  0  0  0  0  0  0  0  0
    7.1962   -2.2500    0.0000 C   0  0  0  0  0  0  0  0  0  0  0  0
    5.4641    0.7500    0.0000 C   0  0  0  0  0  0  0  0  0  0  0  0
    3.7320   -0.2500    0.0000 C   0  0  0  0  0  0  0  0  0  0  0  0
    4.5981   -1.7500    0.0000 C   0  0  0  0  0  0  0  0  0  0  0  0
   10.6082    1.6620    0.0000 C   0  0  0  0  0  0  0  0  0  0  0  0
    8.9619    2.2001    0.0000 C   0  0  0  0  0  0  0  0  0  0  0  0
    2.8660   -0.7500    0.0000 C   0  0  0  0  0  0  0  0  0  0  0  0
    3.7320   -2.2500    0.0000 C   0  0  0  0  0  0  0  0  0  0  0  0
    2.8660   -1.7500    0.0000 C   0  0  0  0  0  0  0  0  0  0  0  0
    4.5981    2.2500    0.0000 C   0  0  0  0  0  0  0  0  0  0  0  0
    6.0010    0.0600    0.0000 H   0  0  0  0  0  0  0  0  0  0  0  0
    7.1962    0.3700    0.0000 H   0  0  0  0  0  0  0  0  0  0  0  0
    5.7932   -2.0600    0.0000 H   0  0  0  0  0  0  0  0  0  0  0  0
    7.1962   -2.8700    0.0000 H   0  0  0  0  0  0  0  0  0  0  0  0
    3.7320    0.3700    0.0000 H   0  0  0  0  0  0  0  0  0  0  0  0
    5.1350   -2.0600    0.0000 H   0  0  0  0  0  0  0  0  0  0  0  0
   10.7361    1.0553    0.0000 H   0  0  0  0  0  0  0  0  0  0  0  0
   11.2149    1.7898    0.0000 H   0  0  0  0  0  0  0  0  0  0  0  0
   10.4804    2.2687    0.0000 H   0  0  0  0  0  0  0  0  0  0  0  0
    9.4233    2.6141    0.0000 H   0  0  0  0  0  0  0  0  0  0  0  0
    8.5478    2.6615    0.0000 H   0  0  0  0  0  0  0  0  0  0  0  0
    8.5004    1.7860    0.0000 H   0  0  0  0  0  0  0  0  0  0  0  0
   10.9020   -1.7869    0.0000 H   0  0  0  0  0  0  0  0  0  0  0  0
   10.9020   -0.7131    0.0000 H   0  0  0  0  0  0  0  0  0  0  0  0
    4.0611    0.9400    0.0000 H   0  0  0  0  0  0  0  0  0  0  0  0
    3.7320   -2.8700    0.0000 H   0  0  0  0  0  0  0  0  0  0  0  0
    2.3291   -2.0600    0.0000 H   0  0  0  0  0  0  0  0  0  0  0  0
    5.2181    2.2500    0.0000 H   0  0  0  0  0  0  0  0  0  0  0  0
    4.5981    2.8700    0.0000 H   0  0  0  0  0  0  0  0  0  0  0  0
    3.9781    2.2500    0.0000 H   0  0  0  0  0  0  0  0  0  0  0  0
  1  3  2  0  0  0  0
  1  4  2  0  0  0  0
  1  6  1  0  0  0  0
  1  7  1  0  0  0  0
  2 25  1  0  0  0  0
  5 20  2  0  0  0  0
  6 11  1  0  0  0  0
  6 16  1  0  0  0  0
  7 23  1  0  0  0  0
  7 24  1  0  0  0  0
  8 15  1  0  0  0  0
  8 16  2  0  0  0  0
  9 16  1  0  0  0  0
  9 41  1  0  0  0  0
  9 42  1  0  0  0  0
 10 20  1  0  0  0  0
 10 28  1  0  0  0  0
 10 43  1  0  0  0  0
 11 14  1  0  0  0  0
 11 15  2  0  0  0  0
 12 13  1  0  0  0  0
 12 18  1  0  0  0  0
 12 20  1  0  0  0  0
 12 29  1  0  0  0  0
 13 14  2  0  0  0  0
 13 17  1  0  0  0  0
 14 30  1  0  0  0  0
 15 19  1  0  0  0  0
 17 19  2  0  0  0  0
 17 31  1  0  0  0  0
 18 21  2  0  0  0  0
 18 22  1  0  0  0  0
 19 32  1  0  0  0  0
 21 25  1  0  0  0  0
 21 33  1  0  0  0  0
 22 26  2  0  0  0  0
 22 34  1  0  0  0  0
 23 35  1  0  0  0  0
 23 36  1  0  0  0  0
 23 37  1  0  0  0  0
 24 38  1  0  0  0  0
 24 39  1  0  0  0  0
 24 40  1  0  0  0  0
 25 27  2  0  0  0  0
 26 27  1  0  0  0  0
 26 44  1  0  0  0  0
 27 45  1  0  0  0  0
 28 46  1  0  0  0  0
 28 47  1  0  0  0  0
 28 48  1  0  0  0  0
M  END
> <PUBCHEM_COMPOUND_CID>
510487
> <PUBCHEM_COMPOUND_CANONICALIZED>
1
> <PUBCHEM_CACTVS_COMPLEXITY>
671
> <PUBCHEM_CACTVS_HBOND_ACCEPTOR>
7
> <PUBCHEM_CACTVS_HBOND_DONOR>
2
> <PUBCHEM_CACTVS_ROTATABLE_BOND>
5
> <PUBCHEM_CACTVS_SUBSKEYS>
AAADceB7sQBAAAAAAAAAAAAAAAAAAWAAAAAwYAAAAAAAAFgB9AAAHwAQQAAADQiBngwz0LbIEACoAyVydDCCgC0hEqAJmKE4dJiIaLLAnZGUIAhokgJIyCcYicCeiAAAQAAAACAQAACAAAAAQAAAAAAAAA==
> <PUBCHEM_IUPAC_OPENEYE_NAME>
2-[2-amino-3-(dimethylsulfamoyl)benzimidazol-5-yl]-2-(3-fluorophenyl)-N-methyl-acetamide
> <PUBCHEM_IUPAC_CAS_NAME>
2-[2-amino-3-(dimethylsulfamoyl)-5-benzimidazolyl]-2-(3-fluorophenyl)-N-methylacetamide
> <PUBCHEM_IUPAC_NAME_MARKUP>
2-[2-amino-3-(dimethylsulfamoyl)benzimidazol-5-yl]-2-(3-fluorophenyl)-<I>N</I>-methylacetamide
> <PUBCHEM_IUPAC_NAME>
2-[2-amino-3-(dimethylsulfamoyl)benzimidazol-5-yl]-2-(3-fluorophenyl)-N-methylacetamide
> <PUBCHEM_IUPAC_SYSTEMATIC_NAME>
2-[2-azanyl-3-(dimethylsulfamoyl)benzimidazol-5-yl]-2-(3-fluorophenyl)-N-methyl-ethanamide
> <PUBCHEM_IUPAC_TRADITIONAL_NAME>
2-[2-amino-3-(dimethylsulfamoyl)benzimidazol-5-yl]-2-(3-fluorophenyl)-N-methyl-acetamide
> <PUBCHEM_IUPAC_INCHI>
InChI=1S/C18H20FN5O3S/c1-21-17(25)16(11-5-4-6-13(19)9-11)12-7-8-14-15(10-12)24(18(20)22-14)28(26,27)23(2)3/h4-10,16H,1-3H3,(H2,20,22)(H,21,25)
> <PUBCHEM_IUPAC_INCHIKEY>
XMCNDKNSUJBDNE-UHFFFAOYSA-N
> <PUBCHEM_XLOGP3_AA>
2.2
> <PUBCHEM_EXACT_MASS>
405.12708885
> <PUBCHEM_MOLECULAR_FORMULA>
C18H20FN5O3S
> <PUBCHEM_MOLECULAR_WEIGHT>
405.4
> <PUBCHEM_OPENEYE_CAN_SMILES>
CNC(=O)C(C1=CC(=CC=C1)F)C2=CC3=C(C=C2)N=C(N3S(=O)(=O)N(C)C)N
> <PUBCHEM_OPENEYE_ISO_SMILES>
CNC(=O)C(C1=CC(=CC=C1)F)C2=CC3=C(C=C2)N=C(N3S(=O)(=O)N(C)C)N
> <PUBCHEM_CACTVS_TPSA>
119
> <PUBCHEM_MONOISOTOPIC_WEIGHT>
405.12708885
> <PUBCHEM_TOTAL_CHARGE>
0
> <PUBCHEM_HEAVY_ATOM_COUNT>
28
> <PUBCHEM_ATOM_DEF_STEREO_COUNT>
0
> <PUBCHEM_ATOM_UDEF_STEREO_COUNT>
1
> <PUBCHEM_BOND_DEF_STEREO_COUNT>
0
> <PUBCHEM_BOND_UDEF_STEREO_COUNT>
0
> <PUBCHEM_ISOTOPIC_ATOM_COUNT>
0
> <PUBCHEM_COMPONENT_COUNT>
1
> <PUBCHEM_CACTVS_TAUTO_COUNT>
-1
> <PUBCHEM_COORDINATE_TYPE>
1
5
255
> <PUBCHEM_BONDANNOTATIONS>
11  14  8
11  15  8
12  20  3
13  14  8
13  17  8
15  19  8
17  19  8
18  21  8
18  22  8
21  25  8
22  26  8
25  27  8
26  27  8
6  11  8
6  16  8
8  15  8
8  16  8
$$$$
