510409
  -OEChem-10302200282D
 72 76  0     1  0  0  0  0  0999 V2000
    6.3301   -0.6381    0.0000 O   0  0  0  0  0  0  0  0  0  0  0  0
    9.4282    2.7279    0.0000 O   0  0  0  0  0  0  0  0  0  0  0  0
    9.9282    1.8619    0.0000 O   0  0  0  0  0  0  0  0  0  0  0  0
    7.2108    3.9481    0.0000 O   0  0  0  0  0  0  0  0  0  0  0  0
    4.5981   -0.6381    0.0000 O   0  0  0  0  0  0  0  0  0  0  0  0
    6.3301   -2.6381    0.0000 O   0  0  0  0  0  0  0  0  0  0  0  0
    4.5981   -3.6381    0.0000 O   0  0  0  0  0  0  0  0  0  0  0  0
    2.8660   -2.6381    0.0000 O   0  0  0  0  0  0  0  0  0  0  0  0
    7.1962    0.8619    0.0000 C   0  0  3  0  0  0  0  0  0  0  0  0
    8.0622    1.3619    0.0000 C   0  0  3  0  0  0  0  0  0  0  0  0
    7.8543    2.3400    0.0000 C   0  0  3  0  0  0  0  0  0  0  0  0
    6.4530    1.5310    0.0000 C   0  0  1  0  0  0  0  0  0  0  0  0
    6.8597    2.4446    0.0000 C   0  0  1  0  0  0  0  0  0  0  0  0
    7.4054   -0.1099    0.0000 C   0  0  3  0  0  0  0  0  0  0  0  0
    8.3371    0.9855    0.0000 C   0  0  0  0  0  0  0  0  0  0  0  0
    5.4646    1.6375    0.0000 C   0  0  1  0  0  0  0  0  0  0  0  0
    8.7992    0.6948    0.0000 C   0  0  0  0  0  0  0  0  0  0  0  0
    6.1193    3.1078    0.0000 C   0  0  0  0  0  0  0  0  0  0  0  0
    6.3301    0.3619    0.0000 C   0  0  0  0  0  0  0  0  0  0  0  0
    8.3941   -0.2130    0.0000 C   0  0  0  0  0  0  0  0  0  0  0  0
    5.2588    2.6100    0.0000 C   0  0  0  0  0  0  0  0  0  0  0  0
    8.9282    1.8619    0.0000 C   0  0  0  0  0  0  0  0  0  0  0  0
    7.9968    3.3298    0.0000 C   0  0  0  0  0  0  0  0  0  0  0  0
    9.7497    0.3841    0.0000 C   0  0  0  0  0  0  0  0  0  0  0  0
    4.7942    0.8955    0.0000 C   0  0  0  0  0  0  0  0  0  0  0  0
    9.9559   -0.5944    0.0000 C   0  0  0  0  0  0  0  0  0  0  0  0
   10.4940    1.0520    0.0000 C   0  0  0  0  0  0  0  0  0  0  0  0
    5.4641   -1.1381    0.0000 C   0  0  2  0  0  0  0  0  0  0  0  0
    5.4641   -2.1381    0.0000 C   0  0  2  0  0  0  0  0  0  0  0  0
    4.5981   -2.6381    0.0000 C   0  0  1  0  0  0  0  0  0  0  0  0
    3.7320   -1.1381    0.0000 C   0  0  1  0  0  0  0  0  0  0  0  0
    3.7320   -2.1381    0.0000 C   0  0  1  0  0  0  0  0  0  0  0  0
    2.8660   -0.6381    0.0000 C   0  0  0  0  0  0  0  0  0  0  0  0
    2.0000   -2.1381    0.0000 C   0  0  0  0  0  0  0  0  0  0  0  0
    6.1073    0.7545    0.0000 H   0  0  0  0  0  0  0  0  0  0  0  0
    7.2055    3.2211    0.0000 H   0  0  0  0  0  0  0  0  0  0  0  0
    6.9913   -0.5714    0.0000 H   0  0  0  0  0  0  0  0  0  0  0  0
    8.7324    0.5079    0.0000 H   0  0  0  0  0  0  0  0  0  0  0  0
    8.8760    1.2919    0.0000 H   0  0  0  0  0  0  0  0  0  0  0  0
    5.6856    1.0582    0.0000 H   0  0  0  0  0  0  0  0  0  0  0  0
    6.5792    3.5236    0.0000 H   0  0  0  0  0  0  0  0  0  0  0  0
    5.7541    3.6089    0.0000 H   0  0  0  0  0  0  0  0  0  0  0  0
    6.1181    0.9445    0.0000 H   0  0  0  0  0  0  0  0  0  0  0  0
    5.7196    0.2542    0.0000 H   0  0  0  0  0  0  0  0  0  0  0  0
    8.7041   -0.7499    0.0000 H   0  0  0  0  0  0  0  0  0  0  0  0
    5.0065    3.1763    0.0000 H   0  0  0  0  0  0  0  0  0  0  0  0
    4.6691    2.4186    0.0000 H   0  0  0  0  0  0  0  0  0  0  0  0
    8.5724    3.5602    0.0000 H   0  0  0  0  0  0  0  0  0  0  0  0
    9.6219    0.9908    0.0000 H   0  0  0  0  0  0  0  0  0  0  0  0
    4.3342    1.3112    0.0000 H   0  0  0  0  0  0  0  0  0  0  0  0
    4.3786    0.4355    0.0000 H   0  0  0  0  0  0  0  0  0  0  0  0
    5.2543    0.4798    0.0000 H   0  0  0  0  0  0  0  0  0  0  0  0
    9.3493   -0.7222    0.0000 H   0  0  0  0  0  0  0  0  0  0  0  0
   10.0838   -1.2010    0.0000 H   0  0  0  0  0  0  0  0  0  0  0  0
   10.5626   -0.4665    0.0000 H   0  0  0  0  0  0  0  0  0  0  0  0
   10.9081    0.5905    0.0000 H   0  0  0  0  0  0  0  0  0  0  0  0
   10.9555    1.4660    0.0000 H   0  0  0  0  0  0  0  0  0  0  0  0
   10.0800    1.5134    0.0000 H   0  0  0  0  0  0  0  0  0  0  0  0
   10.0482    2.7279    0.0000 H   0  0  0  0  0  0  0  0  0  0  0  0
    6.0010   -1.4481    0.0000 H   0  0  0  0  0  0  0  0  0  0  0  0
    5.4641   -2.7581    0.0000 H   0  0  0  0  0  0  0  0  0  0  0  0
    4.0611   -2.9481    0.0000 H   0  0  0  0  0  0  0  0  0  0  0  0
    3.7320   -0.5181    0.0000 H   0  0  0  0  0  0  0  0  0  0  0  0
    3.7320   -2.7581    0.0000 H   0  0  0  0  0  0  0  0  0  0  0  0
    6.8671   -2.3281    0.0000 H   0  0  0  0  0  0  0  0  0  0  0  0
    3.1760   -0.1012    0.0000 H   0  0  0  0  0  0  0  0  0  0  0  0
    2.3291   -0.3281    0.0000 H   0  0  0  0  0  0  0  0  0  0  0  0
    2.5560   -1.1750    0.0000 H   0  0  0  0  0  0  0  0  0  0  0  0
    4.0611   -3.9481    0.0000 H   0  0  0  0  0  0  0  0  0  0  0  0
    2.3100   -1.6012    0.0000 H   0  0  0  0  0  0  0  0  0  0  0  0
    1.4631   -1.8281    0.0000 H   0  0  0  0  0  0  0  0  0  0  0  0
    1.6900   -2.6750    0.0000 H   0  0  0  0  0  0  0  0  0  0  0  0
  1 19  1  0  0  0  0
 28  1  1  1  0  0  0
  2 22  1  0  0  0  0
  2 59  1  0  0  0  0
  3 22  2  0  0  0  0
  4 23  2  0  0  0  0
  5 28  1  0  0  0  0
  5 31  1  0  0  0  0
 29  6  1  1  0  0  0
  6 65  1  0  0  0  0
 30  7  1  6  0  0  0
  7 69  1  0  0  0  0
 32  8  1  6  0  0  0
  8 34  1  0  0  0  0
  9 10  1  0  0  0  0
  9 12  1  0  0  0  0
  9 14  1  0  0  0  0
  9 19  1  0  0  0  0
 10 11  1  0  0  0  0
 10 17  1  0  0  0  0
 10 22  1  0  0  0  0
 11 13  1  0  0  0  0
 11 15  1  0  0  0  0
 11 23  1  0  0  0  0
 12 13  1  0  0  0  0
 12 16  1  0  0  0  0
 12 35  1  1  0  0  0
 13 18  1  0  0  0  0
 13 36  1  6  0  0  0
 14 15  1  0  0  0  0
 14 20  1  0  0  0  0
 14 37  1  0  0  0  0
 15 38  1  0  0  0  0
 15 39  1  0  0  0  0
 16 21  1  0  0  0  0
 16 25  1  6  0  0  0
 16 40  1  0  0  0  0
 17 20  2  0  0  0  0
 17 24  1  0  0  0  0
 18 21  1  0  0  0  0
 18 41  1  0  0  0  0
 18 42  1  0  0  0  0
 19 43  1  0  0  0  0
 19 44  1  0  0  0  0
 20 45  1  0  0  0  0
 21 46  1  0  0  0  0
 21 47  1  0  0  0  0
 23 48  1  0  0  0  0
 24 26  1  0  0  0  0
 24 27  1  0  0  0  0
 24 49  1  0  0  0  0
 25 50  1  0  0  0  0
 25 51  1  0  0  0  0
 25 52  1  0  0  0  0
 26 53  1  0  0  0  0
 26 54  1  0  0  0  0
 26 55  1  0  0  0  0
 27 56  1  0  0  0  0
 27 57  1  0  0  0  0
 27 58  1  0  0  0  0
 28 29  1  0  0  0  0
 28 60  1  0  0  0  0
 29 30  1  0  0  0  0
 29 61  1  0  0  0  0
 30 32  1  0  0  0  0
 30 62  1  0  0  0  0
 31 32  1  0  0  0  0
 31 33  1  1  0  0  0
 31 63  1  0  0  0  0
 32 64  1  0  0  0  0
 33 66  1  0  0  0  0
 33 67  1  0  0  0  0
 33 68  1  0  0  0  0
 34 70  1  0  0  0  0
 34 71  1  0  0  0  0
 34 72  1  0  0  0  0
M  END
> <PUBCHEM_COMPOUND_CID>
510409
> <PUBCHEM_COMPOUND_CANONICALIZED>
1
> <PUBCHEM_CACTVS_COMPLEXITY>
901
> <PUBCHEM_CACTVS_HBOND_ACCEPTOR>
8
> <PUBCHEM_CACTVS_HBOND_DONOR>
3
> <PUBCHEM_CACTVS_ROTATABLE_BOND>
7
> <PUBCHEM_CACTVS_SUBSKEYS>
AAADcfB4PAAAAAAAAAAAAAAAAAAAAYMGCAA0QIAAAAAYAAAAAAAAGgAACAAADxSwgAMCCAAABgCIAijSiAAAAAAgAAAACAEAAAgREBIAAQAiQAAFwAAPAAPL7PyPgAAAAAAAAACAAAQAACAAAQAACAAAAA==
> <PUBCHEM_IUPAC_OPENEYE_NAME>
(3R,4R,7R)-2-[[(2R,3S,4S,5S,6R)-3,4-dihydroxy-5-methoxy-6-methyl-tetrahydropyran-2-yl]oxymethyl]-8-formyl-12-isopropyl-4-methyl-tetracyclo[6.4.0.02,10.03,7]dodec-11-ene-1-carboxylic acid
> <PUBCHEM_IUPAC_CAS_NAME>
(3R,4R,7R)-2-[[(2R,3S,4S,5S,6R)-3,4-dihydroxy-5-methoxy-6-methyl-2-oxanyl]oxymethyl]-8-formyl-4-methyl-12-propan-2-yl-1-tetracyclo[6.4.0.02,10.03,7]dodec-11-enecarboxylic acid
> <PUBCHEM_IUPAC_NAME_MARKUP>
(3<I>R</I>,4<I>R</I>,7<I>R</I>)-2-[[(2<I>R</I>,3<I>S</I>,4<I>S</I>,5<I>S</I>,6<I>R</I>)-3,4-dihydroxy-5-methoxy-6-methyloxan-2-yl]oxymethyl]-8-formyl-4-methyl-12-propan-2-yltetracyclo[6.4.0.0<SUP>2,10</SUP>.0<SUP>3,7</SUP>]dodec-11-ene-1-carboxylic acid
> <PUBCHEM_IUPAC_NAME>
(3R,4R,7R)-2-[[(2R,3S,4S,5S,6R)-3,4-dihydroxy-5-methoxy-6-methyloxan-2-yl]oxymethyl]-8-formyl-4-methyl-12-propan-2-yltetracyclo[6.4.0.02,10.03,7]dodec-11-ene-1-carboxylic acid
> <PUBCHEM_IUPAC_SYSTEMATIC_NAME>
(3R,4R,7R)-8-methanoyl-2-[[(2R,3S,4S,5S,6R)-5-methoxy-6-methyl-3,4-bis(oxidanyl)oxan-2-yl]oxymethyl]-4-methyl-12-propan-2-yl-tetracyclo[6.4.0.02,10.03,7]dodec-11-ene-1-carboxylic acid
> <PUBCHEM_IUPAC_TRADITIONAL_NAME>
(3R,4R,7R)-2-[[(2R,3S,4S,5S,6R)-3,4-dihydroxy-5-methoxy-6-methyl-tetrahydropyran-2-yl]oxymethyl]-8-formyl-12-isopropyl-4-methyl-tetracyclo[6.4.0.02,10.03,7]dodec-11-ene-1-carboxylic acid
> <PUBCHEM_IUPAC_INCHI>
InChI=1S/C26H38O8/c1-12(2)17-8-15-9-24(10-27)16-7-6-13(3)18(16)25(15,26(17,24)23(30)31)11-33-22-20(29)19(28)21(32-5)14(4)34-22/h8,10,12-16,18-22,28-29H,6-7,9,11H2,1-5H3,(H,30,31)/t13-,14-,15?,16-,18-,19+,20+,21-,22-,24?,25?,26?/m1/s1
> <PUBCHEM_IUPAC_INCHIKEY>
SCWTYALPEMSAAH-ZUCLNHQFSA-N
> <PUBCHEM_XLOGP3_AA>
1.1
> <PUBCHEM_EXACT_MASS>
478.25666817
> <PUBCHEM_MOLECULAR_FORMULA>
C26H38O8
> <PUBCHEM_MOLECULAR_WEIGHT>
478.6
> <PUBCHEM_OPENEYE_CAN_SMILES>
CC1CCC2C1C3(C4CC2(C3(C(=C4)C(C)C)C(=O)O)C=O)COC5C(C(C(C(O5)C)OC)O)O
> <PUBCHEM_OPENEYE_ISO_SMILES>
C[C@@H]1CC[C@@H]2[C@@H]1C3(C4CC2(C3(C(=C4)C(C)C)C(=O)O)C=O)CO[C@H]5[C@H]([C@@H]([C@@H]([C@H](O5)C)OC)O)O
> <PUBCHEM_CACTVS_TPSA>
123
> <PUBCHEM_MONOISOTOPIC_WEIGHT>
478.25666817
> <PUBCHEM_TOTAL_CHARGE>
0
> <PUBCHEM_HEAVY_ATOM_COUNT>
34
> <PUBCHEM_ATOM_DEF_STEREO_COUNT>
8
> <PUBCHEM_ATOM_UDEF_STEREO_COUNT>
4
> <PUBCHEM_BOND_DEF_STEREO_COUNT>
0
> <PUBCHEM_BOND_UDEF_STEREO_COUNT>
0
> <PUBCHEM_ISOTOPIC_ATOM_COUNT>
0
> <PUBCHEM_COMPONENT_COUNT>
1
> <PUBCHEM_CACTVS_TAUTO_COUNT>
-1
> <PUBCHEM_COORDINATE_TYPE>
1
5
255
> <PUBCHEM_BONDANNOTATIONS>
28  1  5
10  22  3
11  23  3
12  35  5
13  36  6
14  15  3
16  25  6
31  33  5
29  6  5
30  7  6
32  8  6
9  19  3
$$$$
