510493
  -OEChem-10302200282D
 43 45  0     1  0  0  0  0  0999 V2000
    3.7320    0.9400    0.0000 F   0  0  0  0  0  0  0  0  0  0  0  0
    2.0000   -0.0600    0.0000 F   0  0  0  0  0  0  0  0  0  0  0  0
    4.5981    1.4400    0.0000 O   0  0  0  0  0  0  0  0  0  0  0  0
    9.0084   -0.2553    0.0000 N   0  0  0  0  0  0  0  0  0  0  0  0
    9.0084   -1.8647    0.0000 N   0  0  0  0  0  0  0  0  0  0  0  0
   10.5920   -1.0600    0.0000 N   0  0  0  0  0  0  0  0  0  0  0  0
    6.3301    1.4400    0.0000 N   0  0  0  0  0  0  0  0  0  0  0  0
    8.0622   -0.5600    0.0000 C   0  0  0  0  0  0  0  0  0  0  0  0
    9.3191    0.6953    0.0000 C   0  0  0  0  0  0  0  0  0  0  0  0
    6.3301   -0.5600    0.0000 C   0  0  0  0  0  0  0  0  0  0  0  0
    5.4641   -0.0600    0.0000 C   0  0  3  0  0  0  0  0  0  0  0  0
    8.0622   -1.5600    0.0000 C   0  0  0  0  0  0  0  0  0  0  0  0
    7.1962   -0.0600    0.0000 C   0  0  0  0  0  0  0  0  0  0  0  0
    9.5920   -1.0600    0.0000 C   0  0  0  0  0  0  0  0  0  0  0  0
    6.3301   -1.5600    0.0000 C   0  0  0  0  0  0  0  0  0  0  0  0
    7.1962   -2.0600    0.0000 C   0  0  0  0  0  0  0  0  0  0  0  0
   10.2976    0.9015    0.0000 C   0  0  0  0  0  0  0  0  0  0  0  0
    8.6512    1.4396    0.0000 C   0  0  0  0  0  0  0  0  0  0  0  0
    4.5981   -0.5600    0.0000 C   0  0  0  0  0  0  0  0  0  0  0  0
    5.4641    0.9400    0.0000 C   0  0  0  0  0  0  0  0  0  0  0  0
    3.7320   -0.0600    0.0000 C   0  0  0  0  0  0  0  0  0  0  0  0
    4.5981   -1.5600    0.0000 C   0  0  0  0  0  0  0  0  0  0  0  0
    2.8660   -0.5600    0.0000 C   0  0  0  0  0  0  0  0  0  0  0  0
    3.7320   -2.0600    0.0000 C   0  0  0  0  0  0  0  0  0  0  0  0
    2.8660   -1.5600    0.0000 C   0  0  0  0  0  0  0  0  0  0  0  0
    9.7331    0.2338    0.0000 H   0  0  0  0  0  0  0  0  0  0  0  0
    6.0010    0.2500    0.0000 H   0  0  0  0  0  0  0  0  0  0  0  0
    7.1962    0.5600    0.0000 H   0  0  0  0  0  0  0  0  0  0  0  0
    5.7932   -1.8700    0.0000 H   0  0  0  0  0  0  0  0  0  0  0  0
    7.1962   -2.6800    0.0000 H   0  0  0  0  0  0  0  0  0  0  0  0
   10.4254    0.2948    0.0000 H   0  0  0  0  0  0  0  0  0  0  0  0
   10.9042    1.0293    0.0000 H   0  0  0  0  0  0  0  0  0  0  0  0
   10.1697    1.5081    0.0000 H   0  0  0  0  0  0  0  0  0  0  0  0
    9.1127    1.8536    0.0000 H   0  0  0  0  0  0  0  0  0  0  0  0
    8.2372    1.9010    0.0000 H   0  0  0  0  0  0  0  0  0  0  0  0
    8.1898    1.0255    0.0000 H   0  0  0  0  0  0  0  0  0  0  0  0
    5.1350   -1.8700    0.0000 H   0  0  0  0  0  0  0  0  0  0  0  0
   10.9020   -1.5969    0.0000 H   0  0  0  0  0  0  0  0  0  0  0  0
   10.9020   -0.5231    0.0000 H   0  0  0  0  0  0  0  0  0  0  0  0
    3.7320   -2.6800    0.0000 H   0  0  0  0  0  0  0  0  0  0  0  0
    6.3301    2.0600    0.0000 H   0  0  0  0  0  0  0  0  0  0  0  0
    6.8671    1.1300    0.0000 H   0  0  0  0  0  0  0  0  0  0  0  0
    2.3291   -1.8700    0.0000 H   0  0  0  0  0  0  0  0  0  0  0  0
  1 21  1  0  0  0  0
  2 23  1  0  0  0  0
  3 20  2  0  0  0  0
  4  8  1  0  0  0  0
  4  9  1  0  0  0  0
  4 14  1  0  0  0  0
  5 12  1  0  0  0  0
  5 14  2  0  0  0  0
  6 14  1  0  0  0  0
  6 38  1  0  0  0  0
  6 39  1  0  0  0  0
  7 20  1  0  0  0  0
  7 41  1  0  0  0  0
  7 42  1  0  0  0  0
  8 12  2  0  0  0  0
  8 13  1  0  0  0  0
  9 17  1  0  0  0  0
  9 18  1  0  0  0  0
  9 26  1  0  0  0  0
 10 11  1  0  0  0  0
 10 13  2  0  0  0  0
 10 15  1  0  0  0  0
 11 19  1  0  0  0  0
 11 20  1  0  0  0  0
 11 27  1  0  0  0  0
 12 16  1  0  0  0  0
 13 28  1  0  0  0  0
 15 16  2  0  0  0  0
 15 29  1  0  0  0  0
 16 30  1  0  0  0  0
 17 31  1  0  0  0  0
 17 32  1  0  0  0  0
 17 33  1  0  0  0  0
 18 34  1  0  0  0  0
 18 35  1  0  0  0  0
 18 36  1  0  0  0  0
 19 21  2  0  0  0  0
 19 22  1  0  0  0  0
 21 23  1  0  0  0  0
 22 24  2  0  0  0  0
 22 37  1  0  0  0  0
 23 25  2  0  0  0  0
 24 25  1  0  0  0  0
 24 40  1  0  0  0  0
 25 43  1  0  0  0  0
M  END
> <PUBCHEM_COMPOUND_CID>
510493
> <PUBCHEM_COMPOUND_CANONICALIZED>
1
> <PUBCHEM_CACTVS_COMPLEXITY>
492
> <PUBCHEM_CACTVS_HBOND_ACCEPTOR>
5
> <PUBCHEM_CACTVS_HBOND_DONOR>
2
> <PUBCHEM_CACTVS_ROTATABLE_BOND>
4
> <PUBCHEM_CACTVS_SUBSKEYS>
AAADceB7oYAAAAAAAAAAAAAAAAAAAWAAAAAwYAAAAAAAAFgB9AAAHwAQAAAADSjBngwz0LdMEACoAyVydACCgC0hEqAJ2CE4dJiIaLLAnZGUIAhokALIyCcYicCeiAAAQAAAACAQAACAAAAAQAAAAAAAAA==
> <PUBCHEM_IUPAC_OPENEYE_NAME>
2-(2-amino-3-isopropyl-benzimidazol-5-yl)-2-(2,3-difluorophenyl)acetamide
> <PUBCHEM_IUPAC_CAS_NAME>
2-(2-amino-3-propan-2-yl-5-benzimidazolyl)-2-(2,3-difluorophenyl)acetamide
> <PUBCHEM_IUPAC_NAME_MARKUP>
2-(2-amino-3-propan-2-ylbenzimidazol-5-yl)-2-(2,3-difluorophenyl)acetamide
> <PUBCHEM_IUPAC_NAME>
2-(2-amino-3-propan-2-ylbenzimidazol-5-yl)-2-(2,3-difluorophenyl)acetamide
> <PUBCHEM_IUPAC_SYSTEMATIC_NAME>
2-(2-azanyl-3-propan-2-yl-benzimidazol-5-yl)-2-[2,3-bis(fluoranyl)phenyl]ethanamide
> <PUBCHEM_IUPAC_TRADITIONAL_NAME>
2-(2-amino-3-isopropyl-benzimidazol-5-yl)-2-(2,3-difluorophenyl)acetamide
> <PUBCHEM_IUPAC_INCHI>
InChI=1S/C18H18F2N4O/c1-9(2)24-14-8-10(6-7-13(14)23-18(24)22)15(17(21)25)11-4-3-5-12(19)16(11)20/h3-9,15H,1-2H3,(H2,21,25)(H2,22,23)
> <PUBCHEM_IUPAC_INCHIKEY>
ATEMDRGVHRVHGG-UHFFFAOYSA-N
> <PUBCHEM_XLOGP3_AA>
2.5
> <PUBCHEM_EXACT_MASS>
344.14486753
> <PUBCHEM_MOLECULAR_FORMULA>
C18H18F2N4O
> <PUBCHEM_MOLECULAR_WEIGHT>
344.4
> <PUBCHEM_OPENEYE_CAN_SMILES>
CC(C)N1C2=C(C=CC(=C2)C(C3=C(C(=CC=C3)F)F)C(=O)N)N=C1N
> <PUBCHEM_OPENEYE_ISO_SMILES>
CC(C)N1C2=C(C=CC(=C2)C(C3=C(C(=CC=C3)F)F)C(=O)N)N=C1N
> <PUBCHEM_CACTVS_TPSA>
86.9
> <PUBCHEM_MONOISOTOPIC_WEIGHT>
344.14486753
> <PUBCHEM_TOTAL_CHARGE>
0
> <PUBCHEM_HEAVY_ATOM_COUNT>
25
> <PUBCHEM_ATOM_DEF_STEREO_COUNT>
0
> <PUBCHEM_ATOM_UDEF_STEREO_COUNT>
1
> <PUBCHEM_BOND_DEF_STEREO_COUNT>
0
> <PUBCHEM_BOND_UDEF_STEREO_COUNT>
0
> <PUBCHEM_ISOTOPIC_ATOM_COUNT>
0
> <PUBCHEM_COMPONENT_COUNT>
1
> <PUBCHEM_CACTVS_TAUTO_COUNT>
-1
> <PUBCHEM_COORDINATE_TYPE>
1
5
255
> <PUBCHEM_BONDANNOTATIONS>
10  13  8
10  15  8
11  20  3
12  16  8
15  16  8
19  21  8
19  22  8
21  23  8
22  24  8
23  25  8
24  25  8
4  14  8
4  8  8
5  12  8
5  14  8
8  12  8
8  13  8
$$$$
