510473
  -OEChem-10302200282D
 49 51  0     1  0  0  0  0  0999 V2000
    9.3191    0.5053    0.0000 S   0  0  0  0  0  0  0  0  0  0  0  0
    5.4641   -2.2500    0.0000 F   0  0  0  0  0  0  0  0  0  0  0  0
    2.0000   -0.2500    0.0000 F   0  0  0  0  0  0  0  0  0  0  0  0
   10.2696    0.1946    0.0000 O   0  0  0  0  0  0  0  0  0  0  0  0
    8.3685    0.8159    0.0000 O   0  0  0  0  0  0  0  0  0  0  0  0
    6.3301    1.2500    0.0000 O   0  0  0  0  0  0  0  0  0  0  0  0
    9.0084   -0.4453    0.0000 N   0  0  0  0  0  0  0  0  0  0  0  0
    9.0084   -2.0547    0.0000 N   0  0  0  0  0  0  0  0  0  0  0  0
   10.5920   -1.2500    0.0000 N   0  0  0  0  0  0  0  0  0  0  0  0
    4.5981    1.2500    0.0000 N   0  0  0  0  0  0  0  0  0  0  0  0
    9.6297    1.4558    0.0000 C   0  0  0  0  0  0  0  0  0  0  0  0
    8.0622   -0.7500    0.0000 C   0  0  0  0  0  0  0  0  0  0  0  0
    6.3301   -0.7500    0.0000 C   0  0  0  0  0  0  0  0  0  0  0  0
    5.4641   -0.2500    0.0000 C   0  0  3  0  0  0  0  0  0  0  0  0
    8.0622   -1.7500    0.0000 C   0  0  0  0  0  0  0  0  0  0  0  0
    7.1962   -0.2500    0.0000 C   0  0  0  0  0  0  0  0  0  0  0  0
    9.5920   -1.2500    0.0000 C   0  0  0  0  0  0  0  0  0  0  0  0
   10.6082    1.6620    0.0000 C   0  0  0  0  0  0  0  0  0  0  0  0
    8.9619    2.2001    0.0000 C   0  0  0  0  0  0  0  0  0  0  0  0
    6.3301   -1.7500    0.0000 C   0  0  0  0  0  0  0  0  0  0  0  0
    7.1962   -2.2500    0.0000 C   0  0  0  0  0  0  0  0  0  0  0  0
    4.5981   -0.7500    0.0000 C   0  0  0  0  0  0  0  0  0  0  0  0
    5.4641    0.7500    0.0000 C   0  0  0  0  0  0  0  0  0  0  0  0
    4.5981   -1.7500    0.0000 C   0  0  0  0  0  0  0  0  0  0  0  0
    3.7320   -0.2500    0.0000 C   0  0  0  0  0  0  0  0  0  0  0  0
    2.8660   -0.7500    0.0000 C   0  0  0  0  0  0  0  0  0  0  0  0
    3.7320   -2.2500    0.0000 C   0  0  0  0  0  0  0  0  0  0  0  0
    2.8660   -1.7500    0.0000 C   0  0  0  0  0  0  0  0  0  0  0  0
    4.5981    2.2500    0.0000 C   0  0  0  0  0  0  0  0  0  0  0  0
   10.0438    0.9943    0.0000 H   0  0  0  0  0  0  0  0  0  0  0  0
    6.0010    0.0600    0.0000 H   0  0  0  0  0  0  0  0  0  0  0  0
    7.1962    0.3700    0.0000 H   0  0  0  0  0  0  0  0  0  0  0  0
   10.7361    1.0553    0.0000 H   0  0  0  0  0  0  0  0  0  0  0  0
   11.2149    1.7898    0.0000 H   0  0  0  0  0  0  0  0  0  0  0  0
   10.4804    2.2687    0.0000 H   0  0  0  0  0  0  0  0  0  0  0  0
    9.4233    2.6141    0.0000 H   0  0  0  0  0  0  0  0  0  0  0  0
    8.5478    2.6615    0.0000 H   0  0  0  0  0  0  0  0  0  0  0  0
    8.5004    1.7860    0.0000 H   0  0  0  0  0  0  0  0  0  0  0  0
    5.7932   -2.0600    0.0000 H   0  0  0  0  0  0  0  0  0  0  0  0
    7.1962   -2.8700    0.0000 H   0  0  0  0  0  0  0  0  0  0  0  0
   10.9020   -1.7869    0.0000 H   0  0  0  0  0  0  0  0  0  0  0  0
   10.9020   -0.7131    0.0000 H   0  0  0  0  0  0  0  0  0  0  0  0
    3.7320    0.3700    0.0000 H   0  0  0  0  0  0  0  0  0  0  0  0
    4.0611    0.9400    0.0000 H   0  0  0  0  0  0  0  0  0  0  0  0
    3.7320   -2.8700    0.0000 H   0  0  0  0  0  0  0  0  0  0  0  0
    2.3291   -2.0600    0.0000 H   0  0  0  0  0  0  0  0  0  0  0  0
    5.2181    2.2500    0.0000 H   0  0  0  0  0  0  0  0  0  0  0  0
    4.5981    2.8700    0.0000 H   0  0  0  0  0  0  0  0  0  0  0  0
    3.9781    2.2500    0.0000 H   0  0  0  0  0  0  0  0  0  0  0  0
  1  4  2  0  0  0  0
  1  5  2  0  0  0  0
  1  7  1  0  0  0  0
  1 11  1  0  0  0  0
  2 24  1  0  0  0  0
  3 26  1  0  0  0  0
  6 23  2  0  0  0  0
  7 12  1  0  0  0  0
  7 17  1  0  0  0  0
  8 15  1  0  0  0  0
  8 17  2  0  0  0  0
  9 17  1  0  0  0  0
  9 41  1  0  0  0  0
  9 42  1  0  0  0  0
 10 23  1  0  0  0  0
 10 29  1  0  0  0  0
 10 44  1  0  0  0  0
 11 18  1  0  0  0  0
 11 19  1  0  0  0  0
 11 30  1  0  0  0  0
 12 15  2  0  0  0  0
 12 16  1  0  0  0  0
 13 14  1  0  0  0  0
 13 16  2  0  0  0  0
 13 20  1  0  0  0  0
 14 22  1  0  0  0  0
 14 23  1  0  0  0  0
 14 31  1  0  0  0  0
 15 21  1  0  0  0  0
 16 32  1  0  0  0  0
 18 33  1  0  0  0  0
 18 34  1  0  0  0  0
 18 35  1  0  0  0  0
 19 36  1  0  0  0  0
 19 37  1  0  0  0  0
 19 38  1  0  0  0  0
 20 21  2  0  0  0  0
 20 39  1  0  0  0  0
 21 40  1  0  0  0  0
 22 24  2  0  0  0  0
 22 25  1  0  0  0  0
 24 27  1  0  0  0  0
 25 26  2  0  0  0  0
 25 43  1  0  0  0  0
 26 28  1  0  0  0  0
 27 28  2  0  0  0  0
 27 45  1  0  0  0  0
 28 46  1  0  0  0  0
 29 47  1  0  0  0  0
 29 48  1  0  0  0  0
 29 49  1  0  0  0  0
M  END
> <PUBCHEM_COMPOUND_CID>
510473
> <PUBCHEM_COMPOUND_CANONICALIZED>
1
> <PUBCHEM_CACTVS_COMPLEXITY>
702
> <PUBCHEM_CACTVS_HBOND_ACCEPTOR>
7
> <PUBCHEM_CACTVS_HBOND_DONOR>
2
> <PUBCHEM_CACTVS_ROTATABLE_BOND>
5
> <PUBCHEM_CACTVS_SUBSKEYS>
AAADceB7sYBAAAAAAAAAAAAAAAAAAWAAAAAwYAAAAAAAAFgB9AAAHwQQQAAADQiF3gyz0LbIEAKoAyVydHDCgC0hEqAJmKE4dJiIaLLAnZGUIAhokgJIyCcYicCeiAAAQAAAACAQAACAAAAAQAAAAAAAAA==
> <PUBCHEM_IUPAC_OPENEYE_NAME>
2-(2-amino-3-isopropylsulfonyl-benzimidazol-5-yl)-2-(2,5-difluorophenyl)-N-methyl-acetamide
> <PUBCHEM_IUPAC_CAS_NAME>
2-(2-amino-3-propan-2-ylsulfonyl-5-benzimidazolyl)-2-(2,5-difluorophenyl)-N-methylacetamide
> <PUBCHEM_IUPAC_NAME_MARKUP>
2-(2-amino-3-propan-2-ylsulfonylbenzimidazol-5-yl)-2-(2,5-difluorophenyl)-<I>N</I>-methylacetamide
> <PUBCHEM_IUPAC_NAME>
2-(2-amino-3-propan-2-ylsulfonylbenzimidazol-5-yl)-2-(2,5-difluorophenyl)-N-methylacetamide
> <PUBCHEM_IUPAC_SYSTEMATIC_NAME>
2-(2-azanyl-3-propan-2-ylsulfonyl-benzimidazol-5-yl)-2-[2,5-bis(fluoranyl)phenyl]-N-methyl-ethanamide
> <PUBCHEM_IUPAC_TRADITIONAL_NAME>
2-(2-amino-3-isopropylsulfonyl-benzimidazol-5-yl)-2-(2,5-difluorophenyl)-N-methyl-acetamide
> <PUBCHEM_IUPAC_INCHI>
InChI=1S/C19H20F2N4O3S/c1-10(2)29(27,28)25-16-8-11(4-7-15(16)24-19(25)22)17(18(26)23-3)13-9-12(20)5-6-14(13)21/h4-10,17H,1-3H3,(H2,22,24)(H,23,26)
> <PUBCHEM_IUPAC_INCHIKEY>
BRTFUESGPPQNCD-UHFFFAOYSA-N
> <PUBCHEM_XLOGP3_AA>
3.2
> <PUBCHEM_EXACT_MASS>
422.12241801
> <PUBCHEM_MOLECULAR_FORMULA>
C19H20F2N4O3S
> <PUBCHEM_MOLECULAR_WEIGHT>
422.5
> <PUBCHEM_OPENEYE_CAN_SMILES>
CC(C)S(=O)(=O)N1C2=C(C=CC(=C2)C(C3=C(C=CC(=C3)F)F)C(=O)NC)N=C1N
> <PUBCHEM_OPENEYE_ISO_SMILES>
CC(C)S(=O)(=O)N1C2=C(C=CC(=C2)C(C3=C(C=CC(=C3)F)F)C(=O)NC)N=C1N
> <PUBCHEM_CACTVS_TPSA>
116
> <PUBCHEM_MONOISOTOPIC_WEIGHT>
422.12241801
> <PUBCHEM_TOTAL_CHARGE>
0
> <PUBCHEM_HEAVY_ATOM_COUNT>
29
> <PUBCHEM_ATOM_DEF_STEREO_COUNT>
0
> <PUBCHEM_ATOM_UDEF_STEREO_COUNT>
1
> <PUBCHEM_BOND_DEF_STEREO_COUNT>
0
> <PUBCHEM_BOND_UDEF_STEREO_COUNT>
0
> <PUBCHEM_ISOTOPIC_ATOM_COUNT>
0
> <PUBCHEM_COMPONENT_COUNT>
1
> <PUBCHEM_CACTVS_TAUTO_COUNT>
-1
> <PUBCHEM_COORDINATE_TYPE>
1
5
255
> <PUBCHEM_BONDANNOTATIONS>
12  15  8
12  16  8
13  16  8
13  20  8
14  23  3
15  21  8
20  21  8
22  24  8
22  25  8
24  27  8
25  26  8
26  28  8
27  28  8
7  12  8
7  17  8
8  15  8
8  17  8
$$$$
