510459
  -OEChem-10302200282D
 44 46  0     1  0  0  0  0  0999 V2000
    7.2641   -3.5000    0.0000 S   0  0  0  0  0  0  0  0  0  0  0  0
    6.3981    1.0000    0.0000 O   0  0  0  0  0  0  0  0  0  0  0  0
    4.6660   -2.0000    0.0000 O   0  0  0  0  0  0  0  0  0  0  0  0
    3.8000    2.5000    0.0000 O   0  0  0  0  0  0  0  0  0  0  0  0
    5.5321   -0.5000    0.0000 N   0  0  0  0  0  0  0  0  0  0  0  0
    4.6660    1.0000    0.0000 C   0  0  3  0  0  0  0  0  0  0  0  0
    3.8000    0.5000    0.0000 C   0  0  0  0  0  0  0  0  0  0  0  0
    5.5321    0.5000    0.0000 C   0  0  0  0  0  0  0  0  0  0  0  0
    3.8000   -0.5000    0.0000 C   0  0  0  0  0  0  0  0  0  0  0  0
    6.3981   -1.0000    0.0000 C   0  0  0  0  0  0  0  0  0  0  0  0
    4.6660   -1.0000    0.0000 C   0  0  0  0  0  0  0  0  0  0  0  0
    6.3981   -2.0000    0.0000 C   0  0  0  0  0  0  0  0  0  0  0  0
    4.6660    2.0000    0.0000 C   0  0  0  0  0  0  0  0  0  0  0  0
    2.9061    1.0347    0.0000 C   0  0  0  0  0  0  0  0  0  0  0  0
    2.9061   -1.0347    0.0000 C   0  0  0  0  0  0  0  0  0  0  0  0
    5.5321    2.5000    0.0000 C   0  0  0  0  0  0  0  0  0  0  0  0
    7.2641   -2.5000    0.0000 C   0  0  0  0  0  0  0  0  0  0  0  0
    2.0000    0.5208    0.0000 C   0  0  0  0  0  0  0  0  0  0  0  0
    2.0000   -0.5208    0.0000 C   0  0  0  0  0  0  0  0  0  0  0  0
    6.3981    2.0000    0.0000 C   0  0  0  0  0  0  0  0  0  0  0  0
    5.5321    3.5000    0.0000 C   0  0  0  0  0  0  0  0  0  0  0  0
    7.2641    2.5000    0.0000 C   0  0  0  0  0  0  0  0  0  0  0  0
    6.3981    4.0000    0.0000 C   0  0  0  0  0  0  0  0  0  0  0  0
    7.2641    3.5000    0.0000 C   0  0  0  0  0  0  0  0  0  0  0  0
    8.1301   -4.0000    0.0000 C   0  0  0  0  0  0  0  0  0  0  0  0
    5.2030    1.3100    0.0000 H   0  0  0  0  0  0  0  0  0  0  0  0
    7.0087   -1.1077    0.0000 H   0  0  0  0  0  0  0  0  0  0  0  0
    6.6101   -0.4174    0.0000 H   0  0  0  0  0  0  0  0  0  0  0  0
    5.7875   -1.8923    0.0000 H   0  0  0  0  0  0  0  0  0  0  0  0
    6.1860   -2.5826    0.0000 H   0  0  0  0  0  0  0  0  0  0  0  0
    2.9132    1.6546    0.0000 H   0  0  0  0  0  0  0  0  0  0  0  0
    2.9132   -1.6546    0.0000 H   0  0  0  0  0  0  0  0  0  0  0  0
    7.8747   -2.6077    0.0000 H   0  0  0  0  0  0  0  0  0  0  0  0
    7.4762   -1.9174    0.0000 H   0  0  0  0  0  0  0  0  0  0  0  0
    1.4643    0.8329    0.0000 H   0  0  0  0  0  0  0  0  0  0  0  0
    1.4643   -0.8329    0.0000 H   0  0  0  0  0  0  0  0  0  0  0  0
    6.3981    1.3800    0.0000 H   0  0  0  0  0  0  0  0  0  0  0  0
    4.9951    3.8100    0.0000 H   0  0  0  0  0  0  0  0  0  0  0  0
    7.8010    2.1900    0.0000 H   0  0  0  0  0  0  0  0  0  0  0  0
    6.3981    4.6200    0.0000 H   0  0  0  0  0  0  0  0  0  0  0  0
    7.8010    3.8100    0.0000 H   0  0  0  0  0  0  0  0  0  0  0  0
    7.8201   -4.5369    0.0000 H   0  0  0  0  0  0  0  0  0  0  0  0
    8.6671   -4.3100    0.0000 H   0  0  0  0  0  0  0  0  0  0  0  0
    8.4401   -3.4631    0.0000 H   0  0  0  0  0  0  0  0  0  0  0  0
  1 17  1  0  0  0  0
  1 25  1  0  0  0  0
  2  8  2  0  0  0  0
  3 11  2  0  0  0  0
  4 13  2  0  0  0  0
  5  8  1  0  0  0  0
  5 10  1  0  0  0  0
  5 11  1  0  0  0  0
  6  7  1  0  0  0  0
  6  8  1  0  0  0  0
  6 13  1  0  0  0  0
  6 26  1  0  0  0  0
  7  9  1  0  0  0  0
  7 14  2  0  0  0  0
  9 11  1  0  0  0  0
  9 15  2  0  0  0  0
 10 12  1  0  0  0  0
 10 27  1  0  0  0  0
 10 28  1  0  0  0  0
 12 17  1  0  0  0  0
 12 29  1  0  0  0  0
 12 30  1  0  0  0  0
 13 16  1  0  0  0  0
 14 18  1  0  0  0  0
 14 31  1  0  0  0  0
 15 19  1  0  0  0  0
 15 32  1  0  0  0  0
 16 20  2  0  0  0  0
 16 21  1  0  0  0  0
 17 33  1  0  0  0  0
 17 34  1  0  0  0  0
 18 19  2  0  0  0  0
 18 35  1  0  0  0  0
 19 36  1  0  0  0  0
 20 22  1  0  0  0  0
 20 37  1  0  0  0  0
 21 23  2  0  0  0  0
 21 38  1  0  0  0  0
 22 24  2  0  0  0  0
 22 39  1  0  0  0  0
 23 24  1  0  0  0  0
 23 40  1  0  0  0  0
 24 41  1  0  0  0  0
 25 42  1  0  0  0  0
 25 43  1  0  0  0  0
 25 44  1  0  0  0  0
M  END
> <PUBCHEM_COMPOUND_CID>
510459
> <PUBCHEM_COMPOUND_CANONICALIZED>
1
> <PUBCHEM_CACTVS_COMPLEXITY>
515
> <PUBCHEM_CACTVS_HBOND_ACCEPTOR>
4
> <PUBCHEM_CACTVS_HBOND_DONOR>
0
> <PUBCHEM_CACTVS_ROTATABLE_BOND>
6
> <PUBCHEM_CACTVS_SUBSKEYS>
AAADceB6MABAAAAAAAAAAAAAAAAAAAAAAAA8YIAAAAAAAACxQAAAHgQAAAAADQTF2ASyAIMAAAiIAqFSEACCAAAkABAIiAEIBMgIIDqolRGEIQhghiCIiYcYi8CugAAAAAAQAAAAAAAAACAAAAAAAAAAAA==
> <PUBCHEM_IUPAC_OPENEYE_NAME>
4-benzoyl-2-(3-methylsulfanylpropyl)-4H-isoquinoline-1,3-dione
> <PUBCHEM_IUPAC_CAS_NAME>
4-benzoyl-2-[3-(methylthio)propyl]-4H-isoquinoline-1,3-dione
> <PUBCHEM_IUPAC_NAME_MARKUP>
4-benzoyl-2-(3-methylsulfanylpropyl)-4<I>H</I>-isoquinoline-1,3-dione
> <PUBCHEM_IUPAC_NAME>
4-benzoyl-2-(3-methylsulfanylpropyl)-4H-isoquinoline-1,3-dione
> <PUBCHEM_IUPAC_SYSTEMATIC_NAME>
2-(3-methylsulfanylpropyl)-4-(phenylcarbonyl)-4H-isoquinoline-1,3-dione
> <PUBCHEM_IUPAC_TRADITIONAL_NAME>
4-benzoyl-2-[3-(methylthio)propyl]-4H-isoquinoline-1,3-quinone
> <PUBCHEM_IUPAC_INCHI>
InChI=1S/C20H19NO3S/c1-25-13-7-12-21-19(23)16-11-6-5-10-15(16)17(20(21)24)18(22)14-8-3-2-4-9-14/h2-6,8-11,17H,7,12-13H2,1H3
> <PUBCHEM_IUPAC_INCHIKEY>
WHEFYIVOUJOHCW-UHFFFAOYSA-N
> <PUBCHEM_XLOGP3_AA>
3.5
> <PUBCHEM_EXACT_MASS>
353.10856464
> <PUBCHEM_MOLECULAR_FORMULA>
C20H19NO3S
> <PUBCHEM_MOLECULAR_WEIGHT>
353.4
> <PUBCHEM_OPENEYE_CAN_SMILES>
CSCCCN1C(=O)C(C2=CC=CC=C2C1=O)C(=O)C3=CC=CC=C3
> <PUBCHEM_OPENEYE_ISO_SMILES>
CSCCCN1C(=O)C(C2=CC=CC=C2C1=O)C(=O)C3=CC=CC=C3
> <PUBCHEM_CACTVS_TPSA>
79.8
> <PUBCHEM_MONOISOTOPIC_WEIGHT>
353.10856464
> <PUBCHEM_TOTAL_CHARGE>
0
> <PUBCHEM_HEAVY_ATOM_COUNT>
25
> <PUBCHEM_ATOM_DEF_STEREO_COUNT>
0
> <PUBCHEM_ATOM_UDEF_STEREO_COUNT>
1
> <PUBCHEM_BOND_DEF_STEREO_COUNT>
0
> <PUBCHEM_BOND_UDEF_STEREO_COUNT>
0
> <PUBCHEM_ISOTOPIC_ATOM_COUNT>
0
> <PUBCHEM_COMPONENT_COUNT>
1
> <PUBCHEM_CACTVS_TAUTO_COUNT>
-1
> <PUBCHEM_COORDINATE_TYPE>
1
5
255
> <PUBCHEM_BONDANNOTATIONS>
14  18  8
15  19  8
16  20  8
16  21  8
18  19  8
20  22  8
21  23  8
22  24  8
23  24  8
6  13  3
7  14  8
7  9  8
9  15  8
$$$$
