510456
  -OEChem-10302200282D
 49 51  0     1  0  0  0  0  0999 V2000
    7.2641   -4.0000    0.0000 S   0  0  0  0  0  0  0  0  0  0  0  0
    6.3981    0.5000    0.0000 O   0  0  0  0  0  0  0  0  0  0  0  0
    4.6660   -2.5000    0.0000 O   0  0  0  0  0  0  0  0  0  0  0  0
    6.3981    1.5000    0.0000 O   0  0  0  0  0  0  0  0  0  0  0  0
    8.2641   -4.0000    0.0000 O   0  0  0  0  0  0  0  0  0  0  0  0
    6.2641   -4.0000    0.0000 O   0  0  0  0  0  0  0  0  0  0  0  0
    5.5321   -1.0000    0.0000 N   0  0  0  0  0  0  0  0  0  0  0  0
    4.6660    0.5000    0.0000 C   0  0  3  0  0  0  0  0  0  0  0  0
    3.8000    0.0000    0.0000 C   0  0  0  0  0  0  0  0  0  0  0  0
    5.5321    0.0000    0.0000 C   0  0  0  0  0  0  0  0  0  0  0  0
    6.3981   -1.5000    0.0000 C   0  0  0  0  0  0  0  0  0  0  0  0
    4.6660    1.5000    0.0000 C   0  0  0  0  0  0  0  0  0  0  0  0
    3.8000   -1.0000    0.0000 C   0  0  0  0  0  0  0  0  0  0  0  0
    6.3981   -2.5000    0.0000 C   0  0  0  0  0  0  0  0  0  0  0  0
    4.6660   -1.5000    0.0000 C   0  0  0  0  0  0  0  0  0  0  0  0
    7.2641   -3.0000    0.0000 C   0  0  0  0  0  0  0  0  0  0  0  0
    2.9061    0.5347    0.0000 C   0  0  0  0  0  0  0  0  0  0  0  0
    2.9061   -1.5347    0.0000 C   0  0  0  0  0  0  0  0  0  0  0  0
    5.5321    2.0000    0.0000 C   0  0  0  0  0  0  0  0  0  0  0  0
    2.0000    0.0208    0.0000 C   0  0  0  0  0  0  0  0  0  0  0  0
    2.0000   -1.0208    0.0000 C   0  0  0  0  0  0  0  0  0  0  0  0
    5.5321    3.0000    0.0000 C   0  0  0  0  0  0  0  0  0  0  0  0
    7.2641   -5.0000    0.0000 C   0  0  0  0  0  0  0  0  0  0  0  0
    4.6660    3.5000    0.0000 C   0  0  0  0  0  0  0  0  0  0  0  0
    6.3981    3.5000    0.0000 C   0  0  0  0  0  0  0  0  0  0  0  0
    4.6660    4.5000    0.0000 C   0  0  0  0  0  0  0  0  0  0  0  0
    6.3981    4.5000    0.0000 C   0  0  0  0  0  0  0  0  0  0  0  0
    5.5321    5.0000    0.0000 C   0  0  0  0  0  0  0  0  0  0  0  0
    5.2030    0.8100    0.0000 H   0  0  0  0  0  0  0  0  0  0  0  0
    7.0087   -1.6077    0.0000 H   0  0  0  0  0  0  0  0  0  0  0  0
    6.6101   -0.9174    0.0000 H   0  0  0  0  0  0  0  0  0  0  0  0
    4.4540    2.0826    0.0000 H   0  0  0  0  0  0  0  0  0  0  0  0
    4.0555    1.3923    0.0000 H   0  0  0  0  0  0  0  0  0  0  0  0
    5.7875   -2.3923    0.0000 H   0  0  0  0  0  0  0  0  0  0  0  0
    6.1860   -3.0826    0.0000 H   0  0  0  0  0  0  0  0  0  0  0  0
    7.8747   -3.1077    0.0000 H   0  0  0  0  0  0  0  0  0  0  0  0
    7.4762   -2.4174    0.0000 H   0  0  0  0  0  0  0  0  0  0  0  0
    2.9132    1.1546    0.0000 H   0  0  0  0  0  0  0  0  0  0  0  0
    2.9132   -2.1546    0.0000 H   0  0  0  0  0  0  0  0  0  0  0  0
    1.4643    0.3329    0.0000 H   0  0  0  0  0  0  0  0  0  0  0  0
    1.4643   -1.3329    0.0000 H   0  0  0  0  0  0  0  0  0  0  0  0
    6.6441   -5.0000    0.0000 H   0  0  0  0  0  0  0  0  0  0  0  0
    7.2641   -5.6200    0.0000 H   0  0  0  0  0  0  0  0  0  0  0  0
    7.8841   -5.0000    0.0000 H   0  0  0  0  0  0  0  0  0  0  0  0
    4.1291    3.1900    0.0000 H   0  0  0  0  0  0  0  0  0  0  0  0
    6.9350    3.1900    0.0000 H   0  0  0  0  0  0  0  0  0  0  0  0
    4.1291    4.8100    0.0000 H   0  0  0  0  0  0  0  0  0  0  0  0
    6.9350    4.8100    0.0000 H   0  0  0  0  0  0  0  0  0  0  0  0
    5.5321    5.6200    0.0000 H   0  0  0  0  0  0  0  0  0  0  0  0
  1  5  2  0  0  0  0
  1  6  2  0  0  0  0
  1 16  1  0  0  0  0
  1 23  1  0  0  0  0
  2 10  2  0  0  0  0
  3 15  2  0  0  0  0
  4 19  2  0  0  0  0
  7 10  1  0  0  0  0
  7 11  1  0  0  0  0
  7 15  1  0  0  0  0
  8  9  1  0  0  0  0
  8 10  1  0  0  0  0
  8 12  1  0  0  0  0
  8 29  1  0  0  0  0
  9 13  1  0  0  0  0
  9 17  2  0  0  0  0
 11 14  1  0  0  0  0
 11 30  1  0  0  0  0
 11 31  1  0  0  0  0
 12 19  1  0  0  0  0
 12 32  1  0  0  0  0
 12 33  1  0  0  0  0
 13 15  1  0  0  0  0
 13 18  2  0  0  0  0
 14 16  1  0  0  0  0
 14 34  1  0  0  0  0
 14 35  1  0  0  0  0
 16 36  1  0  0  0  0
 16 37  1  0  0  0  0
 17 20  1  0  0  0  0
 17 38  1  0  0  0  0
 18 21  1  0  0  0  0
 18 39  1  0  0  0  0
 19 22  1  0  0  0  0
 20 21  2  0  0  0  0
 20 40  1  0  0  0  0
 21 41  1  0  0  0  0
 22 24  2  0  0  0  0
 22 25  1  0  0  0  0
 23 42  1  0  0  0  0
 23 43  1  0  0  0  0
 23 44  1  0  0  0  0
 24 26  1  0  0  0  0
 24 45  1  0  0  0  0
 25 27  2  0  0  0  0
 25 46  1  0  0  0  0
 26 28  2  0  0  0  0
 26 47  1  0  0  0  0
 27 28  1  0  0  0  0
 27 48  1  0  0  0  0
 28 49  1  0  0  0  0
M  END
> <PUBCHEM_COMPOUND_CID>
510456
> <PUBCHEM_COMPOUND_CANONICALIZED>
1
> <PUBCHEM_CACTVS_COMPLEXITY>
705
> <PUBCHEM_CACTVS_HBOND_ACCEPTOR>
5
> <PUBCHEM_CACTVS_HBOND_DONOR>
0
> <PUBCHEM_CACTVS_ROTATABLE_BOND>
7
> <PUBCHEM_CACTVS_SUBSKEYS>
AAADceB6OABAAAAAAAAAAAAAAAAAAAAAAAA8YIAAAAAAAACxQAAAHgQAAAAADQTF2ASyAIMAAAqIAqFSEHDCAAAkABAIiAEIBMgIIDKglRGEIQhghiCIiYcdi8COgAAAAAAQAAAAAAAAACAAAAAAAAAAAA==
> <PUBCHEM_IUPAC_OPENEYE_NAME>
2-(3-methylsulfonylpropyl)-4-phenacyl-4H-isoquinoline-1,3-dione
> <PUBCHEM_IUPAC_CAS_NAME>
2-(3-methylsulfonylpropyl)-4-phenacyl-4H-isoquinoline-1,3-dione
> <PUBCHEM_IUPAC_NAME_MARKUP>
2-(3-methylsulfonylpropyl)-4-phenacyl-4<I>H</I>-isoquinoline-1,3-dione
> <PUBCHEM_IUPAC_NAME>
2-(3-methylsulfonylpropyl)-4-phenacyl-4H-isoquinoline-1,3-dione
> <PUBCHEM_IUPAC_SYSTEMATIC_NAME>
2-(3-methylsulfonylpropyl)-4-phenacyl-4H-isoquinoline-1,3-dione
> <PUBCHEM_IUPAC_TRADITIONAL_NAME>
2-(3-mesylpropyl)-4-phenacyl-4H-isoquinoline-1,3-quinone
> <PUBCHEM_IUPAC_INCHI>
InChI=1S/C21H21NO5S/c1-28(26,27)13-7-12-22-20(24)17-11-6-5-10-16(17)18(21(22)25)14-19(23)15-8-3-2-4-9-15/h2-6,8-11,18H,7,12-14H2,1H3
> <PUBCHEM_IUPAC_INCHIKEY>
VNYZAGJCFWQSQK-UHFFFAOYSA-N
> <PUBCHEM_XLOGP3_AA>
1.9
> <PUBCHEM_EXACT_MASS>
399.11404394
> <PUBCHEM_MOLECULAR_FORMULA>
C21H21NO5S
> <PUBCHEM_MOLECULAR_WEIGHT>
399.5
> <PUBCHEM_OPENEYE_CAN_SMILES>
CS(=O)(=O)CCCN1C(=O)C(C2=CC=CC=C2C1=O)CC(=O)C3=CC=CC=C3
> <PUBCHEM_OPENEYE_ISO_SMILES>
CS(=O)(=O)CCCN1C(=O)C(C2=CC=CC=C2C1=O)CC(=O)C3=CC=CC=C3
> <PUBCHEM_CACTVS_TPSA>
97
> <PUBCHEM_MONOISOTOPIC_WEIGHT>
399.11404394
> <PUBCHEM_TOTAL_CHARGE>
0
> <PUBCHEM_HEAVY_ATOM_COUNT>
28
> <PUBCHEM_ATOM_DEF_STEREO_COUNT>
0
> <PUBCHEM_ATOM_UDEF_STEREO_COUNT>
1
> <PUBCHEM_BOND_DEF_STEREO_COUNT>
0
> <PUBCHEM_BOND_UDEF_STEREO_COUNT>
0
> <PUBCHEM_ISOTOPIC_ATOM_COUNT>
0
> <PUBCHEM_COMPONENT_COUNT>
1
> <PUBCHEM_CACTVS_TAUTO_COUNT>
-1
> <PUBCHEM_COORDINATE_TYPE>
1
5
255
> <PUBCHEM_BONDANNOTATIONS>
13  18  8
17  20  8
18  21  8
20  21  8
22  24  8
22  25  8
24  26  8
25  27  8
26  28  8
27  28  8
8  12  3
9  13  8
9  17  8
$$$$
