510461
  -OEChem-10302200282D
 50 52  0     1  0  0  0  0  0999 V2000
    5.5321   -1.7217    0.0000 O   0  0  0  0  0  0  0  0  0  0  0  0
    6.8334   -4.3635    0.0000 O   0  0  0  0  0  0  0  0  0  0  0  0
    5.6744   -3.0763    0.0000 O   0  0  0  0  0  0  0  0  0  0  0  0
    6.3981    1.7783    0.0000 O   0  0  0  0  0  0  0  0  0  0  0  0
    4.6660   -1.2217    0.0000 O   0  0  0  0  0  0  0  0  0  0  0  0
    3.8000    3.2783    0.0000 O   0  0  0  0  0  0  0  0  0  0  0  0
    7.2641   -1.7217    0.0000 N   0  0  0  0  0  0  0  0  0  0  0  0
    5.5321    0.2783    0.0000 N   0  0  0  0  0  0  0  0  0  0  0  0
    7.3686   -2.7162    0.0000 C   0  0  3  0  0  0  0  0  0  0  0  0
    8.3468   -2.9241    0.0000 C   0  0  0  0  0  0  0  0  0  0  0  0
    8.8468   -2.0581    0.0000 C   0  0  0  0  0  0  0  0  0  0  0  0
    8.1777   -1.3149    0.0000 C   0  0  0  0  0  0  0  0  0  0  0  0
    6.3981   -1.2217    0.0000 C   0  0  0  0  0  0  0  0  0  0  0  0
    6.3981   -0.2217    0.0000 C   0  0  0  0  0  0  0  0  0  0  0  0
    4.6660    1.7783    0.0000 C   0  0  3  0  0  0  0  0  0  0  0  0
    6.6255   -3.3853    0.0000 C   0  0  0  0  0  0  0  0  0  0  0  0
    5.5321    1.2783    0.0000 C   0  0  0  0  0  0  0  0  0  0  0  0
    3.8000    1.2783    0.0000 C   0  0  0  0  0  0  0  0  0  0  0  0
    3.8000    0.2783    0.0000 C   0  0  0  0  0  0  0  0  0  0  0  0
    4.6660   -0.2217    0.0000 C   0  0  0  0  0  0  0  0  0  0  0  0
    4.6660    2.7783    0.0000 C   0  0  0  0  0  0  0  0  0  0  0  0
    5.5321    3.2783    0.0000 C   0  0  0  0  0  0  0  0  0  0  0  0
    2.9061    1.8130    0.0000 C   0  0  0  0  0  0  0  0  0  0  0  0
    2.9061   -0.2563    0.0000 C   0  0  0  0  0  0  0  0  0  0  0  0
    5.5321    4.2783    0.0000 C   0  0  0  0  0  0  0  0  0  0  0  0
    2.0000    1.2992    0.0000 C   0  0  0  0  0  0  0  0  0  0  0  0
    2.0000    0.2575    0.0000 C   0  0  0  0  0  0  0  0  0  0  0  0
    6.3981    4.7783    0.0000 C   0  0  0  0  0  0  0  0  0  0  0  0
    6.7898   -2.4940    0.0000 H   0  0  0  0  0  0  0  0  0  0  0  0
    8.1552   -3.5138    0.0000 H   0  0  0  0  0  0  0  0  0  0  0  0
    8.9132   -3.1763    0.0000 H   0  0  0  0  0  0  0  0  0  0  0  0
    9.3484   -2.4225    0.0000 H   0  0  0  0  0  0  0  0  0  0  0  0
    9.2616   -1.5973    0.0000 H   0  0  0  0  0  0  0  0  0  0  0  0
    8.6792   -0.9505    0.0000 H   0  0  0  0  0  0  0  0  0  0  0  0
    7.8677   -0.7780    0.0000 H   0  0  0  0  0  0  0  0  0  0  0  0
    7.0087   -0.3293    0.0000 H   0  0  0  0  0  0  0  0  0  0  0  0
    6.6101    0.3609    0.0000 H   0  0  0  0  0  0  0  0  0  0  0  0
    5.2030    2.0883    0.0000 H   0  0  0  0  0  0  0  0  0  0  0  0
    5.7441    2.6957    0.0000 H   0  0  0  0  0  0  0  0  0  0  0  0
    6.1426    3.3860    0.0000 H   0  0  0  0  0  0  0  0  0  0  0  0
    2.9132    2.4330    0.0000 H   0  0  0  0  0  0  0  0  0  0  0  0
    2.9132   -0.8763    0.0000 H   0  0  0  0  0  0  0  0  0  0  0  0
    5.3200    4.8609    0.0000 H   0  0  0  0  0  0  0  0  0  0  0  0
    4.9215    4.1707    0.0000 H   0  0  0  0  0  0  0  0  0  0  0  0
    6.3727   -4.7783    0.0000 H   0  0  0  0  0  0  0  0  0  0  0  0
    1.4643    1.6112    0.0000 H   0  0  0  0  0  0  0  0  0  0  0  0
    1.4643   -0.0546    0.0000 H   0  0  0  0  0  0  0  0  0  0  0  0
    6.7081    4.2414    0.0000 H   0  0  0  0  0  0  0  0  0  0  0  0
    6.9350    5.0883    0.0000 H   0  0  0  0  0  0  0  0  0  0  0  0
    6.0881    5.3153    0.0000 H   0  0  0  0  0  0  0  0  0  0  0  0
  1 13  2  0  0  0  0
  2 16  1  0  0  0  0
  2 45  1  0  0  0  0
  3 16  2  0  0  0  0
  4 17  2  0  0  0  0
  5 20  2  0  0  0  0
  6 21  2  0  0  0  0
  7  9  1  0  0  0  0
  7 12  1  0  0  0  0
  7 13  1  0  0  0  0
  8 14  1  0  0  0  0
  8 17  1  0  0  0  0
  8 20  1  0  0  0  0
  9 10  1  0  0  0  0
  9 16  1  0  0  0  0
  9 29  1  0  0  0  0
 10 11  1  0  0  0  0
 10 30  1  0  0  0  0
 10 31  1  0  0  0  0
 11 12  1  0  0  0  0
 11 32  1  0  0  0  0
 11 33  1  0  0  0  0
 12 34  1  0  0  0  0
 12 35  1  0  0  0  0
 13 14  1  0  0  0  0
 14 36  1  0  0  0  0
 14 37  1  0  0  0  0
 15 17  1  0  0  0  0
 15 18  1  0  0  0  0
 15 21  1  0  0  0  0
 15 38  1  0  0  0  0
 18 19  1  0  0  0  0
 18 23  2  0  0  0  0
 19 20  1  0  0  0  0
 19 24  2  0  0  0  0
 21 22  1  0  0  0  0
 22 25  1  0  0  0  0
 22 39  1  0  0  0  0
 22 40  1  0  0  0  0
 23 26  1  0  0  0  0
 23 41  1  0  0  0  0
 24 27  1  0  0  0  0
 24 42  1  0  0  0  0
 25 28  1  0  0  0  0
 25 43  1  0  0  0  0
 25 44  1  0  0  0  0
 26 27  2  0  0  0  0
 26 46  1  0  0  0  0
 27 47  1  0  0  0  0
 28 48  1  0  0  0  0
 28 49  1  0  0  0  0
 28 50  1  0  0  0  0
M  END
> <PUBCHEM_COMPOUND_CID>
510461
> <PUBCHEM_COMPOUND_CANONICALIZED>
1
> <PUBCHEM_CACTVS_COMPLEXITY>
690
> <PUBCHEM_CACTVS_HBOND_ACCEPTOR>
6
> <PUBCHEM_CACTVS_HBOND_DONOR>
1
> <PUBCHEM_CACTVS_ROTATABLE_BOND>
6
> <PUBCHEM_CACTVS_SUBSKEYS>
AAADceB7OAAAAAAAAAAAAAAAAAAAAWAAAAA8QAAAAAAAAACxAAAAHgAACAAADSzBmAQyCIMAAgCIAqHSGACCAAAkAAAIiAGIBMgKYDqIlTGUYQhkhiCYiYeYm8KugAAAAAAQAAAAAAAAACAAAAAAAAAAAA==
> <PUBCHEM_IUPAC_OPENEYE_NAME>
1-[2-(4-butanoyl-1,3-dioxo-4H-isoquinolin-2-yl)acetyl]pyrrolidine-2-carboxylic acid
> <PUBCHEM_IUPAC_CAS_NAME>
1-[2-[1,3-dioxo-4-(1-oxobutyl)-4H-isoquinolin-2-yl]-1-oxoethyl]-2-pyrrolidinecarboxylic acid
> <PUBCHEM_IUPAC_NAME_MARKUP>
1-[2-(4-butanoyl-1,3-dioxo-4<I>H</I>-isoquinolin-2-yl)acetyl]pyrrolidine-2-carboxylic acid
> <PUBCHEM_IUPAC_NAME>
1-[2-(4-butanoyl-1,3-dioxo-4H-isoquinolin-2-yl)acetyl]pyrrolidine-2-carboxylic acid
> <PUBCHEM_IUPAC_SYSTEMATIC_NAME>
1-[2-[4-butanoyl-1,3-bis(oxidanylidene)-4H-isoquinolin-2-yl]ethanoyl]pyrrolidine-2-carboxylic acid
> <PUBCHEM_IUPAC_TRADITIONAL_NAME>
1-[2-(4-butyryl-1,3-diketo-4H-isoquinolin-2-yl)acetyl]proline
> <PUBCHEM_IUPAC_INCHI>
InChI=1S/C20H22N2O6/c1-2-6-15(23)17-12-7-3-4-8-13(12)18(25)22(19(17)26)11-16(24)21-10-5-9-14(21)20(27)28/h3-4,7-8,14,17H,2,5-6,9-11H2,1H3,(H,27,28)
> <PUBCHEM_IUPAC_INCHIKEY>
MAZVSLJGURTXES-UHFFFAOYSA-N
> <PUBCHEM_XLOGP3_AA>
1.3
> <PUBCHEM_EXACT_MASS>
386.14778643
> <PUBCHEM_MOLECULAR_FORMULA>
C20H22N2O6
> <PUBCHEM_MOLECULAR_WEIGHT>
386.4
> <PUBCHEM_OPENEYE_CAN_SMILES>
CCCC(=O)C1C2=CC=CC=C2C(=O)N(C1=O)CC(=O)N3CCCC3C(=O)O
> <PUBCHEM_OPENEYE_ISO_SMILES>
CCCC(=O)C1C2=CC=CC=C2C(=O)N(C1=O)CC(=O)N3CCCC3C(=O)O
> <PUBCHEM_CACTVS_TPSA>
112
> <PUBCHEM_MONOISOTOPIC_WEIGHT>
386.14778643
> <PUBCHEM_TOTAL_CHARGE>
0
> <PUBCHEM_HEAVY_ATOM_COUNT>
28
> <PUBCHEM_ATOM_DEF_STEREO_COUNT>
0
> <PUBCHEM_ATOM_UDEF_STEREO_COUNT>
2
> <PUBCHEM_BOND_DEF_STEREO_COUNT>
0
> <PUBCHEM_BOND_UDEF_STEREO_COUNT>
0
> <PUBCHEM_ISOTOPIC_ATOM_COUNT>
0
> <PUBCHEM_COMPONENT_COUNT>
1
> <PUBCHEM_CACTVS_TAUTO_COUNT>
-1
> <PUBCHEM_COORDINATE_TYPE>
1
5
255
> <PUBCHEM_BONDANNOTATIONS>
15  21  3
18  19  8
18  23  8
19  24  8
23  26  8
24  27  8
26  27  8
9  16  3
$$$$
