510470
  -OEChem-10302200282D
 46 48  0     1  0  0  0  0  0999 V2000
    8.4530    0.5302    0.0000 S   0  0  0  0  0  0  0  0  0  0  0  0
    9.4035    0.2196    0.0000 O   0  0  0  0  0  0  0  0  0  0  0  0
    7.5025    0.8409    0.0000 O   0  0  0  0  0  0  0  0  0  0  0  0
    5.4641    1.2750    0.0000 O   0  0  0  0  0  0  0  0  0  0  0  0
    8.1424   -0.4203    0.0000 N   0  0  0  0  0  0  0  0  0  0  0  0
    8.1424   -2.0298    0.0000 N   0  0  0  0  0  0  0  0  0  0  0  0
    9.7260   -1.2250    0.0000 N   0  0  0  0  0  0  0  0  0  0  0  0
    3.7320    1.2750    0.0000 N   0  0  0  0  0  0  0  0  0  0  0  0
    8.7637    1.4807    0.0000 C   0  0  0  0  0  0  0  0  0  0  0  0
    7.1962   -0.7250    0.0000 C   0  0  0  0  0  0  0  0  0  0  0  0
    5.4641   -0.7250    0.0000 C   0  0  0  0  0  0  0  0  0  0  0  0
    7.1962   -1.7250    0.0000 C   0  0  0  0  0  0  0  0  0  0  0  0
    4.5981   -0.2250    0.0000 C   0  0  3  0  0  0  0  0  0  0  0  0
    6.3301   -0.2250    0.0000 C   0  0  0  0  0  0  0  0  0  0  0  0
    8.7260   -1.2250    0.0000 C   0  0  0  0  0  0  0  0  0  0  0  0
    9.7422    1.6870    0.0000 C   0  0  0  0  0  0  0  0  0  0  0  0
    8.0958    2.2250    0.0000 C   0  0  0  0  0  0  0  0  0  0  0  0
    5.4641   -1.7250    0.0000 C   0  0  0  0  0  0  0  0  0  0  0  0
    6.3301   -2.2250    0.0000 C   0  0  0  0  0  0  0  0  0  0  0  0
    3.7320   -0.7250    0.0000 C   0  0  0  0  0  0  0  0  0  0  0  0
    4.5981    0.7750    0.0000 C   0  0  0  0  0  0  0  0  0  0  0  0
    2.8660   -0.2250    0.0000 C   0  0  0  0  0  0  0  0  0  0  0  0
    3.7320   -1.7250    0.0000 C   0  0  0  0  0  0  0  0  0  0  0  0
    2.0000   -0.7250    0.0000 C   0  0  0  0  0  0  0  0  0  0  0  0
    2.8660   -2.2250    0.0000 C   0  0  0  0  0  0  0  0  0  0  0  0
    2.0000   -1.7250    0.0000 C   0  0  0  0  0  0  0  0  0  0  0  0
    8.9563    2.0701    0.0000 H   0  0  0  0  0  0  0  0  0  0  0  0
    5.1350    0.0850    0.0000 H   0  0  0  0  0  0  0  0  0  0  0  0
    6.3301    0.3950    0.0000 H   0  0  0  0  0  0  0  0  0  0  0  0
    9.8701    1.0803    0.0000 H   0  0  0  0  0  0  0  0  0  0  0  0
   10.3489    1.8148    0.0000 H   0  0  0  0  0  0  0  0  0  0  0  0
    9.6144    2.2936    0.0000 H   0  0  0  0  0  0  0  0  0  0  0  0
    8.5573    2.6391    0.0000 H   0  0  0  0  0  0  0  0  0  0  0  0
    7.6818    2.6865    0.0000 H   0  0  0  0  0  0  0  0  0  0  0  0
    7.6344    1.8110    0.0000 H   0  0  0  0  0  0  0  0  0  0  0  0
    4.9272   -2.0350    0.0000 H   0  0  0  0  0  0  0  0  0  0  0  0
    6.3301   -2.8450    0.0000 H   0  0  0  0  0  0  0  0  0  0  0  0
   10.0360   -1.7620    0.0000 H   0  0  0  0  0  0  0  0  0  0  0  0
   10.0360   -0.6881    0.0000 H   0  0  0  0  0  0  0  0  0  0  0  0
    2.8660    0.3950    0.0000 H   0  0  0  0  0  0  0  0  0  0  0  0
    4.2690   -2.0350    0.0000 H   0  0  0  0  0  0  0  0  0  0  0  0
    1.4631   -0.4150    0.0000 H   0  0  0  0  0  0  0  0  0  0  0  0
    2.8660   -2.8450    0.0000 H   0  0  0  0  0  0  0  0  0  0  0  0
    3.7320    1.8950    0.0000 H   0  0  0  0  0  0  0  0  0  0  0  0
    3.1951    0.9650    0.0000 H   0  0  0  0  0  0  0  0  0  0  0  0
    1.4631   -2.0350    0.0000 H   0  0  0  0  0  0  0  0  0  0  0  0
  1  2  2  0  0  0  0
  1  3  2  0  0  0  0
  1  5  1  0  0  0  0
  1  9  1  0  0  0  0
  4 21  2  0  0  0  0
  5 10  1  0  0  0  0
  5 15  1  0  0  0  0
  6 12  1  0  0  0  0
  6 15  2  0  0  0  0
  7 15  1  0  0  0  0
  7 38  1  0  0  0  0
  7 39  1  0  0  0  0
  8 21  1  0  0  0  0
  8 44  1  0  0  0  0
  8 45  1  0  0  0  0
  9 16  1  0  0  0  0
  9 17  1  0  0  0  0
  9 27  1  0  0  0  0
 10 12  2  0  0  0  0
 10 14  1  0  0  0  0
 11 13  1  0  0  0  0
 11 14  2  0  0  0  0
 11 18  1  0  0  0  0
 12 19  1  0  0  0  0
 13 20  1  0  0  0  0
 13 21  1  0  0  0  0
 13 28  1  0  0  0  0
 14 29  1  0  0  0  0
 16 30  1  0  0  0  0
 16 31  1  0  0  0  0
 16 32  1  0  0  0  0
 17 33  1  0  0  0  0
 17 34  1  0  0  0  0
 17 35  1  0  0  0  0
 18 19  2  0  0  0  0
 18 36  1  0  0  0  0
 19 37  1  0  0  0  0
 20 22  2  0  0  0  0
 20 23  1  0  0  0  0
 22 24  1  0  0  0  0
 22 40  1  0  0  0  0
 23 25  2  0  0  0  0
 23 41  1  0  0  0  0
 24 26  2  0  0  0  0
 24 42  1  0  0  0  0
 25 26  1  0  0  0  0
 25 43  1  0  0  0  0
 26 46  1  0  0  0  0
M  END
> <PUBCHEM_COMPOUND_CID>
510470
> <PUBCHEM_COMPOUND_CANONICALIZED>
1
> <PUBCHEM_CACTVS_COMPLEXITY>
612
> <PUBCHEM_CACTVS_HBOND_ACCEPTOR>
5
> <PUBCHEM_CACTVS_HBOND_DONOR>
2
> <PUBCHEM_CACTVS_ROTATABLE_BOND>
5
> <PUBCHEM_CACTVS_SUBSKEYS>
AAADceB7sABAAAAAAAAAAAAAAAAAAWAAAAAwYAAAAAAAAFgB9AAAHgQQQAAADQiF3gCz0LZIEAKoAyVydHDCgC0hEqAJmCEwdJiIaLLAnZGUIAhokAJIyCcYicCeiAAAQAAAACAQAACAAAAAQAAAAAAAAA==
> <PUBCHEM_IUPAC_OPENEYE_NAME>
2-(2-amino-3-isopropylsulfonyl-benzimidazol-5-yl)-2-phenyl-acetamide
> <PUBCHEM_IUPAC_CAS_NAME>
2-(2-amino-3-propan-2-ylsulfonyl-5-benzimidazolyl)-2-phenylacetamide
> <PUBCHEM_IUPAC_NAME_MARKUP>
2-(2-amino-3-propan-2-ylsulfonylbenzimidazol-5-yl)-2-phenylacetamide
> <PUBCHEM_IUPAC_NAME>
2-(2-amino-3-propan-2-ylsulfonylbenzimidazol-5-yl)-2-phenylacetamide
> <PUBCHEM_IUPAC_SYSTEMATIC_NAME>
2-(2-azanyl-3-propan-2-ylsulfonyl-benzimidazol-5-yl)-2-phenyl-ethanamide
> <PUBCHEM_IUPAC_TRADITIONAL_NAME>
2-(2-amino-3-isopropylsulfonyl-benzimidazol-5-yl)-2-phenyl-acetamide
> <PUBCHEM_IUPAC_INCHI>
InChI=1S/C18H20N4O3S/c1-11(2)26(24,25)22-15-10-13(8-9-14(15)21-18(22)20)16(17(19)23)12-6-4-3-5-7-12/h3-11,16H,1-2H3,(H2,19,23)(H2,20,21)
> <PUBCHEM_IUPAC_INCHIKEY>
NLRIVKKABTVMPG-UHFFFAOYSA-N
> <PUBCHEM_XLOGP3>
2
> <PUBCHEM_EXACT_MASS>
372.12561169
> <PUBCHEM_MOLECULAR_FORMULA>
C18H20N4O3S
> <PUBCHEM_MOLECULAR_WEIGHT>
372.4
> <PUBCHEM_OPENEYE_CAN_SMILES>
CC(C)S(=O)(=O)N1C2=C(C=CC(=C2)C(C3=CC=CC=C3)C(=O)N)N=C1N
> <PUBCHEM_OPENEYE_ISO_SMILES>
CC(C)S(=O)(=O)N1C2=C(C=CC(=C2)C(C3=CC=CC=C3)C(=O)N)N=C1N
> <PUBCHEM_CACTVS_TPSA>
129
> <PUBCHEM_MONOISOTOPIC_WEIGHT>
372.12561169
> <PUBCHEM_TOTAL_CHARGE>
0
> <PUBCHEM_HEAVY_ATOM_COUNT>
26
> <PUBCHEM_ATOM_DEF_STEREO_COUNT>
0
> <PUBCHEM_ATOM_UDEF_STEREO_COUNT>
1
> <PUBCHEM_BOND_DEF_STEREO_COUNT>
0
> <PUBCHEM_BOND_UDEF_STEREO_COUNT>
0
> <PUBCHEM_ISOTOPIC_ATOM_COUNT>
0
> <PUBCHEM_COMPONENT_COUNT>
1
> <PUBCHEM_CACTVS_TAUTO_COUNT>
-1
> <PUBCHEM_COORDINATE_TYPE>
1
5
255
> <PUBCHEM_BONDANNOTATIONS>
10  12  8
10  14  8
11  14  8
11  18  8
12  19  8
13  21  3
18  19  8
20  22  8
20  23  8
22  24  8
23  25  8
24  26  8
25  26  8
5  10  8
5  15  8
6  12  8
6  15  8
$$$$
