510401
  -OEChem-10302200282D
 81 85  0     1  0  0  0  0  0999 V2000
    6.3301    0.7069    0.0000 O   0  0  0  0  0  0  0  0  0  0  0  0
    9.4282    4.0729    0.0000 O   0  0  0  0  0  0  0  0  0  0  0  0
    9.9282    3.2069    0.0000 O   0  0  0  0  0  0  0  0  0  0  0  0
    7.2108    5.2931    0.0000 O   0  0  0  0  0  0  0  0  0  0  0  0
    4.5981    0.7069    0.0000 O   0  0  0  0  0  0  0  0  0  0  0  0
    6.3301   -1.2931    0.0000 O   0  0  0  0  0  0  0  0  0  0  0  0
    4.5981   -2.2931    0.0000 O   0  0  0  0  0  0  0  0  0  0  0  0
    2.8660   -1.2931    0.0000 O   0  0  0  0  0  0  0  0  0  0  0  0
    2.8660   -2.2931    0.0000 O   0  0  0  0  0  0  0  0  0  0  0  0
    2.8660   -4.2931    0.0000 O   0  0  0  0  0  0  0  0  0  0  0  0
    7.1962    2.2069    0.0000 C   0  0  3  0  0  0  0  0  0  0  0  0
    8.0622    2.7069    0.0000 C   0  0  3  0  0  0  0  0  0  0  0  0
    7.8543    3.6850    0.0000 C   0  0  3  0  0  0  0  0  0  0  0  0
    6.4530    2.8760    0.0000 C   0  0  1  0  0  0  0  0  0  0  0  0
    6.8597    3.7896    0.0000 C   0  0  1  0  0  0  0  0  0  0  0  0
    7.4054    1.2351    0.0000 C   0  0  3  0  0  0  0  0  0  0  0  0
    8.3371    2.3305    0.0000 C   0  0  0  0  0  0  0  0  0  0  0  0
    5.4646    2.9825    0.0000 C   0  0  1  0  0  0  0  0  0  0  0  0
    8.7992    2.0398    0.0000 C   0  0  0  0  0  0  0  0  0  0  0  0
    6.1193    4.4528    0.0000 C   0  0  0  0  0  0  0  0  0  0  0  0
    6.3301    1.7069    0.0000 C   0  0  0  0  0  0  0  0  0  0  0  0
    8.3941    1.1320    0.0000 C   0  0  0  0  0  0  0  0  0  0  0  0
    5.2588    3.9550    0.0000 C   0  0  0  0  0  0  0  0  0  0  0  0
    8.9282    3.2069    0.0000 C   0  0  0  0  0  0  0  0  0  0  0  0
    7.9968    4.6748    0.0000 C   0  0  0  0  0  0  0  0  0  0  0  0
    9.7497    1.7291    0.0000 C   0  0  0  0  0  0  0  0  0  0  0  0
    4.7942    2.2405    0.0000 C   0  0  0  0  0  0  0  0  0  0  0  0
    9.9559    0.7506    0.0000 C   0  0  0  0  0  0  0  0  0  0  0  0
   10.4940    2.3970    0.0000 C   0  0  0  0  0  0  0  0  0  0  0  0
    5.4641    0.2069    0.0000 C   0  0  2  0  0  0  0  0  0  0  0  0
    5.4641   -0.7931    0.0000 C   0  0  2  0  0  0  0  0  0  0  0  0
    4.5981   -1.2931    0.0000 C   0  0  1  0  0  0  0  0  0  0  0  0
    3.7320    0.2069    0.0000 C   0  0  1  0  0  0  0  0  0  0  0  0
    3.7320   -0.7931    0.0000 C   0  0  1  0  0  0  0  0  0  0  0  0
    2.8660    0.7069    0.0000 C   0  0  0  0  0  0  0  0  0  0  0  0
    3.7320   -2.7931    0.0000 C   0  0  0  0  0  0  0  0  0  0  0  0
    2.0000   -0.7931    0.0000 C   0  0  0  0  0  0  0  0  0  0  0  0
    3.7320   -3.7931    0.0000 C   0  0  0  0  0  0  0  0  0  0  0  0
    2.8660   -5.2931    0.0000 C   0  0  0  0  0  0  0  0  0  0  0  0
    6.1073    2.0995    0.0000 H   0  0  0  0  0  0  0  0  0  0  0  0
    7.2055    4.5661    0.0000 H   0  0  0  0  0  0  0  0  0  0  0  0
    6.9913    0.7736    0.0000 H   0  0  0  0  0  0  0  0  0  0  0  0
    8.7324    1.8529    0.0000 H   0  0  0  0  0  0  0  0  0  0  0  0
    8.8760    2.6369    0.0000 H   0  0  0  0  0  0  0  0  0  0  0  0
    5.6856    2.4032    0.0000 H   0  0  0  0  0  0  0  0  0  0  0  0
    6.5792    4.8686    0.0000 H   0  0  0  0  0  0  0  0  0  0  0  0
    5.7541    4.9539    0.0000 H   0  0  0  0  0  0  0  0  0  0  0  0
    6.1181    2.2895    0.0000 H   0  0  0  0  0  0  0  0  0  0  0  0
    5.7196    1.5992    0.0000 H   0  0  0  0  0  0  0  0  0  0  0  0
    8.7041    0.5951    0.0000 H   0  0  0  0  0  0  0  0  0  0  0  0
    5.0065    4.5214    0.0000 H   0  0  0  0  0  0  0  0  0  0  0  0
    4.6691    3.7636    0.0000 H   0  0  0  0  0  0  0  0  0  0  0  0
    8.5724    4.9052    0.0000 H   0  0  0  0  0  0  0  0  0  0  0  0
    9.6219    2.3358    0.0000 H   0  0  0  0  0  0  0  0  0  0  0  0
    4.3342    2.6562    0.0000 H   0  0  0  0  0  0  0  0  0  0  0  0
    4.3786    1.7805    0.0000 H   0  0  0  0  0  0  0  0  0  0  0  0
    5.2543    1.8248    0.0000 H   0  0  0  0  0  0  0  0  0  0  0  0
    9.3493    0.6228    0.0000 H   0  0  0  0  0  0  0  0  0  0  0  0
   10.0838    0.1440    0.0000 H   0  0  0  0  0  0  0  0  0  0  0  0
   10.5626    0.8785    0.0000 H   0  0  0  0  0  0  0  0  0  0  0  0
   10.9081    1.9355    0.0000 H   0  0  0  0  0  0  0  0  0  0  0  0
   10.9555    2.8110    0.0000 H   0  0  0  0  0  0  0  0  0  0  0  0
   10.0800    2.8584    0.0000 H   0  0  0  0  0  0  0  0  0  0  0  0
   10.0482    4.0729    0.0000 H   0  0  0  0  0  0  0  0  0  0  0  0
    5.4641    0.8269    0.0000 H   0  0  0  0  0  0  0  0  0  0  0  0
    5.4641   -1.4131    0.0000 H   0  0  0  0  0  0  0  0  0  0  0  0
    4.0611   -1.6031    0.0000 H   0  0  0  0  0  0  0  0  0  0  0  0
    3.7320    0.8269    0.0000 H   0  0  0  0  0  0  0  0  0  0  0  0
    3.7320   -1.4131    0.0000 H   0  0  0  0  0  0  0  0  0  0  0  0
    6.8671   -0.9831    0.0000 H   0  0  0  0  0  0  0  0  0  0  0  0
    3.1760    1.2438    0.0000 H   0  0  0  0  0  0  0  0  0  0  0  0
    2.3291    1.0169    0.0000 H   0  0  0  0  0  0  0  0  0  0  0  0
    2.5560    0.1699    0.0000 H   0  0  0  0  0  0  0  0  0  0  0  0
    2.3100   -0.2562    0.0000 H   0  0  0  0  0  0  0  0  0  0  0  0
    1.4631   -0.4831    0.0000 H   0  0  0  0  0  0  0  0  0  0  0  0
    1.6900   -1.3300    0.0000 H   0  0  0  0  0  0  0  0  0  0  0  0
    3.9441   -4.3757    0.0000 H   0  0  0  0  0  0  0  0  0  0  0  0
    4.3426   -3.6855    0.0000 H   0  0  0  0  0  0  0  0  0  0  0  0
    2.2460   -5.2931    0.0000 H   0  0  0  0  0  0  0  0  0  0  0  0
    2.8660   -5.9131    0.0000 H   0  0  0  0  0  0  0  0  0  0  0  0
    3.4860   -5.2931    0.0000 H   0  0  0  0  0  0  0  0  0  0  0  0
  1 21  1  0  0  0  0
 30  1  1  1  0  0  0
  2 24  1  0  0  0  0
  2 64  1  0  0  0  0
  3 24  2  0  0  0  0
  4 25  2  0  0  0  0
  5 30  1  0  0  0  0
  5 33  1  0  0  0  0
 31  6  1  1  0  0  0
  6 70  1  0  0  0  0
 32  7  1  6  0  0  0
  7 36  1  0  0  0  0
 34  8  1  6  0  0  0
  8 37  1  0  0  0  0
  9 36  2  0  0  0  0
 10 38  1  0  0  0  0
 10 39  1  0  0  0  0
 11 12  1  0  0  0  0
 11 14  1  0  0  0  0
 11 16  1  0  0  0  0
 11 21  1  0  0  0  0
 12 13  1  0  0  0  0
 12 19  1  0  0  0  0
 12 24  1  0  0  0  0
 13 15  1  0  0  0  0
 13 17  1  0  0  0  0
 13 25  1  0  0  0  0
 14 15  1  0  0  0  0
 14 18  1  0  0  0  0
 14 40  1  1  0  0  0
 15 20  1  0  0  0  0
 15 41  1  6  0  0  0
 16 17  1  0  0  0  0
 16 22  1  0  0  0  0
 16 42  1  0  0  0  0
 17 43  1  0  0  0  0
 17 44  1  0  0  0  0
 18 23  1  0  0  0  0
 18 27  1  6  0  0  0
 18 45  1  0  0  0  0
 19 22  2  0  0  0  0
 19 26  1  0  0  0  0
 20 23  1  0  0  0  0
 20 46  1  0  0  0  0
 20 47  1  0  0  0  0
 21 48  1  0  0  0  0
 21 49  1  0  0  0  0
 22 50  1  0  0  0  0
 23 51  1  0  0  0  0
 23 52  1  0  0  0  0
 25 53  1  0  0  0  0
 26 28  1  0  0  0  0
 26 29  1  0  0  0  0
 26 54  1  0  0  0  0
 27 55  1  0  0  0  0
 27 56  1  0  0  0  0
 27 57  1  0  0  0  0
 28 58  1  0  0  0  0
 28 59  1  0  0  0  0
 28 60  1  0  0  0  0
 29 61  1  0  0  0  0
 29 62  1  0  0  0  0
 29 63  1  0  0  0  0
 30 31  1  0  0  0  0
 30 65  1  0  0  0  0
 31 32  1  0  0  0  0
 31 66  1  0  0  0  0
 32 34  1  0  0  0  0
 32 67  1  0  0  0  0
 33 34  1  0  0  0  0
 33 35  1  1  0  0  0
 33 68  1  0  0  0  0
 34 69  1  0  0  0  0
 35 71  1  0  0  0  0
 35 72  1  0  0  0  0
 35 73  1  0  0  0  0
 36 38  1  0  0  0  0
 37 74  1  0  0  0  0
 37 75  1  0  0  0  0
 37 76  1  0  0  0  0
 38 77  1  0  0  0  0
 38 78  1  0  0  0  0
 39 79  1  0  0  0  0
 39 80  1  0  0  0  0
 39 81  1  0  0  0  0
M  END
> <PUBCHEM_COMPOUND_CID>
510401
> <PUBCHEM_COMPOUND_CANONICALIZED>
1
> <PUBCHEM_CACTVS_COMPLEXITY>
1040
> <PUBCHEM_CACTVS_HBOND_ACCEPTOR>
10
> <PUBCHEM_CACTVS_HBOND_DONOR>
2
> <PUBCHEM_CACTVS_ROTATABLE_BOND>
11
> <PUBCHEM_CACTVS_SUBSKEYS>
AAADcfB4PAAAAAAAAAAAAAAAAAAAAYMGCAA0QIAAAAAYAAAAAAAAGgAACAAADxSwgAMCCAAABgCIAijSiAIAAAAgAAAACAFAAAgREBIAAQQiQAAFwAAPAAPL7PyPgAAAAAAAAACAAAQAACAAAQAACAAAAA==
> <PUBCHEM_IUPAC_OPENEYE_NAME>
(3R,4R,7R)-8-formyl-2-[[(2R,3S,4S,5R,6R)-3-hydroxy-5-methoxy-4-(2-methoxyacetyl)oxy-6-methyl-tetrahydropyran-2-yl]oxymethyl]-12-isopropyl-4-methyl-tetracyclo[6.4.0.02,10.03,7]dodec-11-ene-1-carboxylic acid
> <PUBCHEM_IUPAC_CAS_NAME>
(3R,4R,7R)-8-formyl-2-[[(2R,3S,4S,5R,6R)-3-hydroxy-5-methoxy-4-(2-methoxy-1-oxoethoxy)-6-methyl-2-oxanyl]oxymethyl]-4-methyl-12-propan-2-yl-1-tetracyclo[6.4.0.02,10.03,7]dodec-11-enecarboxylic acid
> <PUBCHEM_IUPAC_NAME_MARKUP>
(3<I>R</I>,4<I>R</I>,7<I>R</I>)-8-formyl-2-[[(2<I>R</I>,3<I>S</I>,4<I>S</I>,5<I>R</I>,6<I>R</I>)-3-hydroxy-5-methoxy-4-(2-methoxyacetyl)oxy-6-methyloxan-2-yl]oxymethyl]-4-methyl-12-propan-2-yltetracyclo[6.4.0.0<SUP>2,10</SUP>.0<SUP>3,7</SUP>]dodec-11-ene-1-carboxylic acid
> <PUBCHEM_IUPAC_NAME>
(3R,4R,7R)-8-formyl-2-[[(2R,3S,4S,5R,6R)-3-hydroxy-5-methoxy-4-(2-methoxyacetyl)oxy-6-methyloxan-2-yl]oxymethyl]-4-methyl-12-propan-2-yltetracyclo[6.4.0.02,10.03,7]dodec-11-ene-1-carboxylic acid
> <PUBCHEM_IUPAC_SYSTEMATIC_NAME>
(3R,4R,7R)-8-methanoyl-2-[[(2R,3S,4S,5R,6R)-5-methoxy-4-(2-methoxyethanoyloxy)-6-methyl-3-oxidanyl-oxan-2-yl]oxymethyl]-4-methyl-12-propan-2-yl-tetracyclo[6.4.0.02,10.03,7]dodec-11-ene-1-carboxylic acid
> <PUBCHEM_IUPAC_TRADITIONAL_NAME>
(3R,4R,7R)-8-formyl-2-[[(2R,3S,4S,5R,6R)-3-hydroxy-5-methoxy-4-(2-methoxyacetyl)oxy-6-methyl-tetrahydropyran-2-yl]oxymethyl]-12-isopropyl-4-methyl-tetracyclo[6.4.0.02,10.03,7]dodec-11-ene-1-carboxylic acid
> <PUBCHEM_IUPAC_INCHI>
InChI=1S/C29H42O10/c1-14(2)19-9-17-10-27(12-30)18-8-7-15(3)21(18)28(17,29(19,27)26(33)34)13-37-25-22(32)24(39-20(31)11-35-5)23(36-6)16(4)38-25/h9,12,14-18,21-25,32H,7-8,10-11,13H2,1-6H3,(H,33,34)/t15-,16-,17?,18-,21-,22+,23-,24+,25-,27?,28?,29?/m1/s1
> <PUBCHEM_IUPAC_INCHIKEY>
GANRWHYDGLIPBJ-KAWOZLCISA-N
> <PUBCHEM_XLOGP3_AA>
1.6
> <PUBCHEM_EXACT_MASS>
550.27779753
> <PUBCHEM_MOLECULAR_FORMULA>
C29H42O10
> <PUBCHEM_MOLECULAR_WEIGHT>
550.6
> <PUBCHEM_OPENEYE_CAN_SMILES>
CC1CCC2C1C3(C4CC2(C3(C(=C4)C(C)C)C(=O)O)C=O)COC5C(C(C(C(O5)C)OC)OC(=O)COC)O
> <PUBCHEM_OPENEYE_ISO_SMILES>
C[C@@H]1CC[C@@H]2[C@@H]1C3(C4CC2(C3(C(=C4)C(C)C)C(=O)O)C=O)CO[C@H]5[C@H]([C@@H]([C@@H]([C@H](O5)C)OC)OC(=O)COC)O
> <PUBCHEM_CACTVS_TPSA>
138
> <PUBCHEM_MONOISOTOPIC_WEIGHT>
550.27779753
> <PUBCHEM_TOTAL_CHARGE>
0
> <PUBCHEM_HEAVY_ATOM_COUNT>
39
> <PUBCHEM_ATOM_DEF_STEREO_COUNT>
8
> <PUBCHEM_ATOM_UDEF_STEREO_COUNT>
4
> <PUBCHEM_BOND_DEF_STEREO_COUNT>
0
> <PUBCHEM_BOND_UDEF_STEREO_COUNT>
0
> <PUBCHEM_ISOTOPIC_ATOM_COUNT>
0
> <PUBCHEM_COMPONENT_COUNT>
1
> <PUBCHEM_CACTVS_TAUTO_COUNT>
-1
> <PUBCHEM_COORDINATE_TYPE>
1
5
255
> <PUBCHEM_BONDANNOTATIONS>
30  1  5
11  21  3
12  24  3
13  25  3
14  40  5
15  41  6
16  17  3
18  27  6
33  35  5
31  6  5
32  7  6
34  8  6
$$$$
