510450
  -OEChem-10302200282D
 48 50  0     1  0  0  0  0  0999 V2000
    6.3981   -3.0344    0.0000 Cl  0  0  0  0  0  0  0  0  0  0  0  0
    7.8531    1.4652    0.0000 O   0  0  0  0  0  0  0  0  0  0  0  0
    2.8680   -2.0585    0.0000 O   0  0  0  0  0  0  0  0  0  0  0  0
    8.2103   -0.2296    0.0000 N   0  0  0  0  0  0  0  0  0  0  0  0
   10.1673    0.1828    0.0000 N   0  0  0  0  0  0  0  0  0  0  0  0
    8.7939   -1.0344    0.0000 N   0  0  0  0  0  0  0  0  0  0  0  0
    6.3981   -0.0344    0.0000 N   0  0  0  0  0  0  0  0  0  0  0  0
    9.4995    0.9271    0.0000 C   0  0  1  0  0  0  0  0  0  0  0  0
    9.8102    1.8776    0.0000 C   0  0  2  0  0  0  0  0  0  0  0  0
    8.5210    0.7209    0.0000 C   0  0  2  0  0  0  0  0  0  0  0  0
   10.7887    2.0838    0.0000 C   0  0  0  0  0  0  0  0  0  0  0  0
    9.1423    2.6219    0.0000 C   0  0  0  0  0  0  0  0  0  0  0  0
    7.2641   -0.5344    0.0000 C   0  0  0  0  0  0  0  0  0  0  0  0
    7.2641   -1.5344    0.0000 C   0  0  0  0  0  0  0  0  0  0  0  0
   11.0993    3.0344    0.0000 C   0  0  0  0  0  0  0  0  0  0  0  0
    8.2103   -1.8391    0.0000 C   0  0  0  0  0  0  0  0  0  0  0  0
    6.3981   -2.0344    0.0000 C   0  0  0  0  0  0  0  0  0  0  0  0
    5.5320   -1.5344    0.0000 C   0  0  0  0  0  0  0  0  0  0  0  0
    5.5320   -0.5344    0.0000 C   0  0  0  0  0  0  0  0  0  0  0  0
    8.5210   -2.7896    0.0000 C   0  0  0  0  0  0  0  0  0  0  0  0
    4.6381   -2.0690    0.0000 C   0  0  0  0  0  0  0  0  0  0  0  0
    4.6381    0.0003    0.0000 C   0  0  0  0  0  0  0  0  0  0  0  0
    3.7320   -1.5552    0.0000 C   0  0  0  0  0  0  0  0  0  0  0  0
    3.7320   -0.5135    0.0000 C   0  0  0  0  0  0  0  0  0  0  0  0
    2.0000   -1.5619    0.0000 C   0  0  0  0  0  0  0  0  0  0  0  0
   10.1062    1.0550    0.0000 H   0  0  0  0  0  0  0  0  0  0  0  0
    9.2035    1.7498    0.0000 H   0  0  0  0  0  0  0  0  0  0  0  0
    8.7136    1.3102    0.0000 H   0  0  0  0  0  0  0  0  0  0  0  0
   10.8092    1.4642    0.0000 H   0  0  0  0  0  0  0  0  0  0  0  0
   11.4025    1.9965    0.0000 H   0  0  0  0  0  0  0  0  0  0  0  0
    9.6038    3.0360    0.0000 H   0  0  0  0  0  0  0  0  0  0  0  0
    8.7282    3.0834    0.0000 H   0  0  0  0  0  0  0  0  0  0  0  0
    8.6808    2.2079    0.0000 H   0  0  0  0  0  0  0  0  0  0  0  0
   10.7740    0.3107    0.0000 H   0  0  0  0  0  0  0  0  0  0  0  0
    9.9747   -0.4065    0.0000 H   0  0  0  0  0  0  0  0  0  0  0  0
   11.6886    2.8418    0.0000 H   0  0  0  0  0  0  0  0  0  0  0  0
   11.2919    3.6237    0.0000 H   0  0  0  0  0  0  0  0  0  0  0  0
   10.5100    3.2270    0.0000 H   0  0  0  0  0  0  0  0  0  0  0  0
    8.0458    2.0545    0.0000 H   0  0  0  0  0  0  0  0  0  0  0  0
    7.9317   -2.9822    0.0000 H   0  0  0  0  0  0  0  0  0  0  0  0
    8.7136   -3.3789    0.0000 H   0  0  0  0  0  0  0  0  0  0  0  0
    9.1103   -2.5970    0.0000 H   0  0  0  0  0  0  0  0  0  0  0  0
    4.6453   -2.6890    0.0000 H   0  0  0  0  0  0  0  0  0  0  0  0
    4.6453    0.6203    0.0000 H   0  0  0  0  0  0  0  0  0  0  0  0
    3.1963   -0.2015    0.0000 H   0  0  0  0  0  0  0  0  0  0  0  0
    2.3079   -1.0237    0.0000 H   0  0  0  0  0  0  0  0  0  0  0  0
    1.4619   -1.2539    0.0000 H   0  0  0  0  0  0  0  0  0  0  0  0
    1.6921   -2.1000    0.0000 H   0  0  0  0  0  0  0  0  0  0  0  0
  1 17  1  0  0  0  0
 10  2  1  1  0  0  0
  2 39  1  0  0  0  0
  3 23  1  0  0  0  0
  3 25  1  0  0  0  0
  4  6  1  0  0  0  0
  4 10  1  0  0  0  0
  4 13  1  0  0  0  0
  8  5  1  6  0  0  0
  5 34  1  0  0  0  0
  5 35  1  0  0  0  0
  6 16  2  0  0  0  0
  7 13  2  0  0  0  0
  7 19  1  0  0  0  0
  8  9  1  0  0  0  0
  8 10  1  0  0  0  0
  8 26  1  0  0  0  0
  9 11  1  0  0  0  0
  9 12  1  1  0  0  0
  9 27  1  0  0  0  0
 10 28  1  0  0  0  0
 11 15  1  0  0  0  0
 11 29  1  0  0  0  0
 11 30  1  0  0  0  0
 12 31  1  0  0  0  0
 12 32  1  0  0  0  0
 12 33  1  0  0  0  0
 13 14  1  0  0  0  0
 14 16  1  0  0  0  0
 14 17  2  0  0  0  0
 15 36  1  0  0  0  0
 15 37  1  0  0  0  0
 15 38  1  0  0  0  0
 16 20  1  0  0  0  0
 17 18  1  0  0  0  0
 18 19  2  0  0  0  0
 18 21  1  0  0  0  0
 19 22  1  0  0  0  0
 20 40  1  0  0  0  0
 20 41  1  0  0  0  0
 20 42  1  0  0  0  0
 21 23  2  0  0  0  0
 21 43  1  0  0  0  0
 22 24  2  0  0  0  0
 22 44  1  0  0  0  0
 23 24  1  0  0  0  0
 24 45  1  0  0  0  0
 25 46  1  0  0  0  0
 25 47  1  0  0  0  0
 25 48  1  0  0  0  0
M  END
> <PUBCHEM_COMPOUND_CID>
510450
> <PUBCHEM_COMPOUND_CANONICALIZED>
1
> <PUBCHEM_CACTVS_COMPLEXITY>
457
> <PUBCHEM_CACTVS_HBOND_ACCEPTOR>
5
> <PUBCHEM_CACTVS_HBOND_DONOR>
2
> <PUBCHEM_CACTVS_ROTATABLE_BOND>
5
> <PUBCHEM_CACTVS_SUBSKEYS>
AAADceB7sAAEAAAAAAAAAAAAAAAAAWAAAAA8QAAAAAAAAFix/gAAHgIYCAAADS7hnyYz9v5IFgCiAyZiZACSjCshpqAd2KA+bpiOfuLF+9uU9Chs2BPI6CewwPAOAEABAAACAAAAgAIAAAQAAAAAAAAAAA==
> <PUBCHEM_IUPAC_OPENEYE_NAME>
(1S,2S,3S)-2-amino-1-(4-chloro-6-methoxy-3-methyl-pyrazolo[3,4-b]quinolin-1-yl)-3-methyl-pentan-1-ol
> <PUBCHEM_IUPAC_CAS_NAME>
(1S,2S,3S)-2-amino-1-(4-chloro-6-methoxy-3-methyl-1-pyrazolo[3,4-b]quinolinyl)-3-methyl-1-pentanol
> <PUBCHEM_IUPAC_NAME_MARKUP>
(1<I>S</I>,2<I>S</I>,3<I>S</I>)-2-amino-1-(4-chloro-6-methoxy-3-methylpyrazolo[3,4-b]quinolin-1-yl)-3-methylpentan-1-ol
> <PUBCHEM_IUPAC_NAME>
(1S,2S,3S)-2-amino-1-(4-chloro-6-methoxy-3-methylpyrazolo[3,4-b]quinolin-1-yl)-3-methylpentan-1-ol
> <PUBCHEM_IUPAC_SYSTEMATIC_NAME>
(1S,2S,3S)-2-azanyl-1-(4-chloranyl-6-methoxy-3-methyl-pyrazolo[3,4-b]quinolin-1-yl)-3-methyl-pentan-1-ol
> <PUBCHEM_IUPAC_TRADITIONAL_NAME>
(1S,2S,3S)-2-amino-1-(4-chloro-6-methoxy-3-methyl-pyrazolo[3,4-b]quinolin-1-yl)-3-methyl-pentan-1-ol
> <PUBCHEM_IUPAC_INCHI>
InChI=1S/C18H23ClN4O2/c1-5-9(2)16(20)18(24)23-17-14(10(3)22-23)15(19)12-8-11(25-4)6-7-13(12)21-17/h6-9,16,18,24H,5,20H2,1-4H3/t9-,16-,18-/m0/s1
> <PUBCHEM_IUPAC_INCHIKEY>
GFHBVZSLYMOHEO-QIGVCLAPSA-N
> <PUBCHEM_XLOGP3_AA>
3.4
> <PUBCHEM_EXACT_MASS>
362.1509537
> <PUBCHEM_MOLECULAR_FORMULA>
C18H23ClN4O2
> <PUBCHEM_MOLECULAR_WEIGHT>
362.9
> <PUBCHEM_OPENEYE_CAN_SMILES>
CCC(C)C(C(N1C2=NC3=C(C=C(C=C3)OC)C(=C2C(=N1)C)Cl)O)N
> <PUBCHEM_OPENEYE_ISO_SMILES>
CC[C@H](C)[C@@H]([C@@H](N1C2=NC3=C(C=C(C=C3)OC)C(=C2C(=N1)C)Cl)O)N
> <PUBCHEM_CACTVS_TPSA>
86.2
> <PUBCHEM_MONOISOTOPIC_WEIGHT>
362.1509537
> <PUBCHEM_TOTAL_CHARGE>
0
> <PUBCHEM_HEAVY_ATOM_COUNT>
25
> <PUBCHEM_ATOM_DEF_STEREO_COUNT>
3
> <PUBCHEM_ATOM_UDEF_STEREO_COUNT>
0
> <PUBCHEM_BOND_DEF_STEREO_COUNT>
0
> <PUBCHEM_BOND_UDEF_STEREO_COUNT>
0
> <PUBCHEM_ISOTOPIC_ATOM_COUNT>
0
> <PUBCHEM_COMPONENT_COUNT>
1
> <PUBCHEM_CACTVS_TAUTO_COUNT>
-1
> <PUBCHEM_COORDINATE_TYPE>
1
5
255
> <PUBCHEM_BONDANNOTATIONS>
13  14  8
14  16  8
14  17  8
17  18  8
18  19  8
18  21  8
19  22  8
10  2  5
21  23  8
22  24  8
23  24  8
4  13  8
4  6  8
8  5  6
6  16  8
7  13  8
7  19  8
9  12  5
$$$$
