510460
  -OEChem-10302200282D
 46 48  0     1  0  0  0  0  0999 V2000
    7.2641   -3.2500    0.0000 S   0  0  0  0  0  0  0  0  0  0  0  0
    6.3981    1.2500    0.0000 O   0  0  0  0  0  0  0  0  0  0  0  0
    4.6660   -1.7500    0.0000 O   0  0  0  0  0  0  0  0  0  0  0  0
    3.8000    2.7500    0.0000 O   0  0  0  0  0  0  0  0  0  0  0  0
    8.2641   -3.2500    0.0000 O   0  0  0  0  0  0  0  0  0  0  0  0
    6.2641   -3.2500    0.0000 O   0  0  0  0  0  0  0  0  0  0  0  0
    5.5321   -0.2500    0.0000 N   0  0  0  0  0  0  0  0  0  0  0  0
    4.6660    1.2500    0.0000 C   0  0  3  0  0  0  0  0  0  0  0  0
    6.3981   -0.7500    0.0000 C   0  0  0  0  0  0  0  0  0  0  0  0
    3.8000    0.7500    0.0000 C   0  0  0  0  0  0  0  0  0  0  0  0
    6.3981   -1.7500    0.0000 C   0  0  0  0  0  0  0  0  0  0  0  0
    5.5321    0.7500    0.0000 C   0  0  0  0  0  0  0  0  0  0  0  0
    3.8000   -0.2500    0.0000 C   0  0  0  0  0  0  0  0  0  0  0  0
    4.6660   -0.7500    0.0000 C   0  0  0  0  0  0  0  0  0  0  0  0
    7.2641   -2.2500    0.0000 C   0  0  0  0  0  0  0  0  0  0  0  0
    4.6660    2.2500    0.0000 C   0  0  0  0  0  0  0  0  0  0  0  0
    2.9061    1.2847    0.0000 C   0  0  0  0  0  0  0  0  0  0  0  0
    2.9061   -0.7847    0.0000 C   0  0  0  0  0  0  0  0  0  0  0  0
    5.5321    2.7500    0.0000 C   0  0  0  0  0  0  0  0  0  0  0  0
    2.0000    0.7708    0.0000 C   0  0  0  0  0  0  0  0  0  0  0  0
    2.0000   -0.2708    0.0000 C   0  0  0  0  0  0  0  0  0  0  0  0
    7.2641   -4.2500    0.0000 C   0  0  0  0  0  0  0  0  0  0  0  0
    5.5321    3.7500    0.0000 C   0  0  0  0  0  0  0  0  0  0  0  0
    6.3981    2.2500    0.0000 C   0  0  0  0  0  0  0  0  0  0  0  0
    6.3981    4.2500    0.0000 C   0  0  0  0  0  0  0  0  0  0  0  0
    7.2641    2.7500    0.0000 C   0  0  0  0  0  0  0  0  0  0  0  0
    7.2641    3.7500    0.0000 C   0  0  0  0  0  0  0  0  0  0  0  0
    5.2030    1.5600    0.0000 H   0  0  0  0  0  0  0  0  0  0  0  0
    7.0087   -0.8577    0.0000 H   0  0  0  0  0  0  0  0  0  0  0  0
    6.6101   -0.1674    0.0000 H   0  0  0  0  0  0  0  0  0  0  0  0
    5.7875   -1.6423    0.0000 H   0  0  0  0  0  0  0  0  0  0  0  0
    6.1860   -2.3326    0.0000 H   0  0  0  0  0  0  0  0  0  0  0  0
    7.8747   -2.3577    0.0000 H   0  0  0  0  0  0  0  0  0  0  0  0
    7.4762   -1.6674    0.0000 H   0  0  0  0  0  0  0  0  0  0  0  0
    2.9132    1.9046    0.0000 H   0  0  0  0  0  0  0  0  0  0  0  0
    2.9132   -1.4046    0.0000 H   0  0  0  0  0  0  0  0  0  0  0  0
    1.4643    1.0829    0.0000 H   0  0  0  0  0  0  0  0  0  0  0  0
    1.4643   -0.5829    0.0000 H   0  0  0  0  0  0  0  0  0  0  0  0
    6.6441   -4.2500    0.0000 H   0  0  0  0  0  0  0  0  0  0  0  0
    7.2641   -4.8700    0.0000 H   0  0  0  0  0  0  0  0  0  0  0  0
    7.8841   -4.2500    0.0000 H   0  0  0  0  0  0  0  0  0  0  0  0
    4.9951    4.0600    0.0000 H   0  0  0  0  0  0  0  0  0  0  0  0
    6.3981    1.6300    0.0000 H   0  0  0  0  0  0  0  0  0  0  0  0
    6.3981    4.8700    0.0000 H   0  0  0  0  0  0  0  0  0  0  0  0
    7.8010    2.4400    0.0000 H   0  0  0  0  0  0  0  0  0  0  0  0
    7.8010    4.0600    0.0000 H   0  0  0  0  0  0  0  0  0  0  0  0
  1  5  2  0  0  0  0
  1  6  2  0  0  0  0
  1 15  1  0  0  0  0
  1 22  1  0  0  0  0
  2 12  2  0  0  0  0
  3 14  2  0  0  0  0
  4 16  2  0  0  0  0
  7  9  1  0  0  0  0
  7 12  1  0  0  0  0
  7 14  1  0  0  0  0
  8 10  1  0  0  0  0
  8 12  1  0  0  0  0
  8 16  1  0  0  0  0
  8 28  1  0  0  0  0
  9 11  1  0  0  0  0
  9 29  1  0  0  0  0
  9 30  1  0  0  0  0
 10 13  1  0  0  0  0
 10 17  2  0  0  0  0
 11 15  1  0  0  0  0
 11 31  1  0  0  0  0
 11 32  1  0  0  0  0
 13 14  1  0  0  0  0
 13 18  2  0  0  0  0
 15 33  1  0  0  0  0
 15 34  1  0  0  0  0
 16 19  1  0  0  0  0
 17 20  1  0  0  0  0
 17 35  1  0  0  0  0
 18 21  1  0  0  0  0
 18 36  1  0  0  0  0
 19 23  2  0  0  0  0
 19 24  1  0  0  0  0
 20 21  2  0  0  0  0
 20 37  1  0  0  0  0
 21 38  1  0  0  0  0
 22 39  1  0  0  0  0
 22 40  1  0  0  0  0
 22 41  1  0  0  0  0
 23 25  1  0  0  0  0
 23 42  1  0  0  0  0
 24 26  2  0  0  0  0
 24 43  1  0  0  0  0
 25 27  2  0  0  0  0
 25 44  1  0  0  0  0
 26 27  1  0  0  0  0
 26 45  1  0  0  0  0
 27 46  1  0  0  0  0
M  END
> <PUBCHEM_COMPOUND_CID>
510460
> <PUBCHEM_COMPOUND_CANONICALIZED>
1
> <PUBCHEM_CACTVS_COMPLEXITY>
690
> <PUBCHEM_CACTVS_HBOND_ACCEPTOR>
5
> <PUBCHEM_CACTVS_HBOND_DONOR>
0
> <PUBCHEM_CACTVS_ROTATABLE_BOND>
6
> <PUBCHEM_CACTVS_SUBSKEYS>
AAADceB6OABAAAAAAAAAAAAAAAAAAAAAAAA8YIAAAAAAAACxQAAAHgQAAAAADQTF2ASyAIMAAAqIAqFSEHDCAAAkABAIiAEIBMgIIDqolRGEIQhghiCIiYcYi8CugAAAAAAQAAAAAAAAACAAAAAAAAAAAA==
> <PUBCHEM_IUPAC_OPENEYE_NAME>
4-benzoyl-2-(3-methylsulfonylpropyl)-4H-isoquinoline-1,3-dione
> <PUBCHEM_IUPAC_CAS_NAME>
4-benzoyl-2-(3-methylsulfonylpropyl)-4H-isoquinoline-1,3-dione
> <PUBCHEM_IUPAC_NAME_MARKUP>
4-benzoyl-2-(3-methylsulfonylpropyl)-4<I>H</I>-isoquinoline-1,3-dione
> <PUBCHEM_IUPAC_NAME>
4-benzoyl-2-(3-methylsulfonylpropyl)-4H-isoquinoline-1,3-dione
> <PUBCHEM_IUPAC_SYSTEMATIC_NAME>
2-(3-methylsulfonylpropyl)-4-(phenylcarbonyl)-4H-isoquinoline-1,3-dione
> <PUBCHEM_IUPAC_TRADITIONAL_NAME>
4-benzoyl-2-(3-mesylpropyl)-4H-isoquinoline-1,3-quinone
> <PUBCHEM_IUPAC_INCHI>
InChI=1S/C20H19NO5S/c1-27(25,26)13-7-12-21-19(23)16-11-6-5-10-15(16)17(20(21)24)18(22)14-8-3-2-4-9-14/h2-6,8-11,17H,7,12-13H2,1H3
> <PUBCHEM_IUPAC_INCHIKEY>
NDKMKIHWRIQWGH-UHFFFAOYSA-N
> <PUBCHEM_XLOGP3_AA>
2.2
> <PUBCHEM_EXACT_MASS>
385.09839388
> <PUBCHEM_MOLECULAR_FORMULA>
C20H19NO5S
> <PUBCHEM_MOLECULAR_WEIGHT>
385.4
> <PUBCHEM_OPENEYE_CAN_SMILES>
CS(=O)(=O)CCCN1C(=O)C(C2=CC=CC=C2C1=O)C(=O)C3=CC=CC=C3
> <PUBCHEM_OPENEYE_ISO_SMILES>
CS(=O)(=O)CCCN1C(=O)C(C2=CC=CC=C2C1=O)C(=O)C3=CC=CC=C3
> <PUBCHEM_CACTVS_TPSA>
97
> <PUBCHEM_MONOISOTOPIC_WEIGHT>
385.09839388
> <PUBCHEM_TOTAL_CHARGE>
0
> <PUBCHEM_HEAVY_ATOM_COUNT>
27
> <PUBCHEM_ATOM_DEF_STEREO_COUNT>
0
> <PUBCHEM_ATOM_UDEF_STEREO_COUNT>
1
> <PUBCHEM_BOND_DEF_STEREO_COUNT>
0
> <PUBCHEM_BOND_UDEF_STEREO_COUNT>
0
> <PUBCHEM_ISOTOPIC_ATOM_COUNT>
0
> <PUBCHEM_COMPONENT_COUNT>
1
> <PUBCHEM_CACTVS_TAUTO_COUNT>
-1
> <PUBCHEM_COORDINATE_TYPE>
1
5
255
> <PUBCHEM_BONDANNOTATIONS>
10  13  8
10  17  8
13  18  8
17  20  8
18  21  8
19  23  8
19  24  8
20  21  8
23  25  8
24  26  8
25  27  8
26  27  8
8  16  3
$$$$
