510571
  -OEChem-10302200282D
 46 48  0     1  0  0  0  0  0999 V2000
    9.0002   -3.1217    0.0000 P   0  0  0  0  0  0  0  0  0  0  0  0
    7.1391   -0.6571    0.0000 O   0  0  0  0  0  0  0  0  0  0  0  0
    5.2423   -2.4172    0.0000 O   0  0  0  0  0  0  0  0  0  0  0  0
    8.4124   -2.3126    0.0000 O   0  0  0  0  0  0  0  0  0  0  0  0
    8.0622    0.9307    0.0000 O   0  0  0  0  0  0  0  0  0  0  0  0
    6.3301    3.9307    0.0000 O   0  0  0  0  0  0  0  0  0  0  0  0
    9.5880   -3.9307    0.0000 O   0  0  0  0  0  0  0  0  0  0  0  0
    9.8092   -2.5339    0.0000 O   0  0  0  0  0  0  0  0  0  0  0  0
    8.1912   -3.7094    0.0000 O   0  0  0  0  0  0  0  0  0  0  0  0
    6.3301    0.9307    0.0000 N   0  0  0  0  0  0  0  0  0  0  0  0
    7.1962    2.4307    0.0000 N   0  0  0  0  0  0  0  0  0  0  0  0
    5.8301   -1.6082    0.0000 C   0  0  2  0  0  0  0  0  0  0  0  0
    6.3301   -0.0693    0.0000 C   0  0  1  0  0  0  0  0  0  0  0  0
    6.8301   -1.6082    0.0000 C   0  0  1  0  0  0  0  0  0  0  0  0
    5.5211   -0.6571    0.0000 C   0  0  0  0  0  0  0  0  0  0  0  0
    7.4179   -2.4172    0.0000 C   0  0  0  0  0  0  0  0  0  0  0  0
    5.4641    1.4307    0.0000 C   0  0  0  0  0  0  0  0  0  0  0  0
    7.1962    1.4307    0.0000 C   0  0  0  0  0  0  0  0  0  0  0  0
    5.4641    2.4307    0.0000 C   0  0  0  0  0  0  0  0  0  0  0  0
    4.5981    2.9307    0.0000 C   0  0  0  0  0  0  0  0  0  0  0  0
    6.3301    2.9307    0.0000 C   0  0  0  0  0  0  0  0  0  0  0  0
    3.7320    2.4307    0.0000 C   0  0  0  0  0  0  0  0  0  0  0  0
    3.7320    1.4307    0.0000 C   0  0  0  0  0  0  0  0  0  0  0  0
    2.8660    2.9307    0.0000 C   0  0  0  0  0  0  0  0  0  0  0  0
    2.8660    0.9307    0.0000 C   0  0  0  0  0  0  0  0  0  0  0  0
    2.0000    2.4307    0.0000 C   0  0  0  0  0  0  0  0  0  0  0  0
    2.0000    1.4307    0.0000 C   0  0  0  0  0  0  0  0  0  0  0  0
    6.1116   -2.1606    0.0000 H   0  0  0  0  0  0  0  0  0  0  0  0
    6.8826    0.2122    0.0000 H   0  0  0  0  0  0  0  0  0  0  0  0
    7.4425   -1.5112    0.0000 H   0  0  0  0  0  0  0  0  0  0  0  0
    5.2111   -0.1202    0.0000 H   0  0  0  0  0  0  0  0  0  0  0  0
    4.9547   -0.9093    0.0000 H   0  0  0  0  0  0  0  0  0  0  0  0
    6.8607   -2.6890    0.0000 H   0  0  0  0  0  0  0  0  0  0  0  0
    7.5888   -3.0132    0.0000 H   0  0  0  0  0  0  0  0  0  0  0  0
    4.9272    1.1207    0.0000 H   0  0  0  0  0  0  0  0  0  0  0  0
    5.4945   -2.9836    0.0000 H   0  0  0  0  0  0  0  0  0  0  0  0
    7.7331    2.7407    0.0000 H   0  0  0  0  0  0  0  0  0  0  0  0
    4.9966    3.4056    0.0000 H   0  0  0  0  0  0  0  0  0  0  0  0
    4.1996    3.4056    0.0000 H   0  0  0  0  0  0  0  0  0  0  0  0
    4.2690    1.1207    0.0000 H   0  0  0  0  0  0  0  0  0  0  0  0
    2.8660    3.5507    0.0000 H   0  0  0  0  0  0  0  0  0  0  0  0
   10.2046   -3.8659    0.0000 H   0  0  0  0  0  0  0  0  0  0  0  0
    9.7444   -1.9173    0.0000 H   0  0  0  0  0  0  0  0  0  0  0  0
    2.8660    0.3107    0.0000 H   0  0  0  0  0  0  0  0  0  0  0  0
    1.4631    2.7407    0.0000 H   0  0  0  0  0  0  0  0  0  0  0  0
    1.4631    1.1207    0.0000 H   0  0  0  0  0  0  0  0  0  0  0  0
  1  4  1  0  0  0  0
  1  7  1  0  0  0  0
  1  8  1  0  0  0  0
  1  9  2  0  0  0  0
  2 13  1  0  0  0  0
  2 14  1  0  0  0  0
 12  3  1  1  0  0  0
  3 36  1  0  0  0  0
  4 16  1  0  0  0  0
  5 18  2  0  0  0  0
  6 21  2  0  0  0  0
  7 42  1  0  0  0  0
  8 43  1  0  0  0  0
 13 10  1  6  0  0  0
 10 17  1  0  0  0  0
 10 18  1  0  0  0  0
 11 18  1  0  0  0  0
 11 21  1  0  0  0  0
 11 37  1  0  0  0  0
 12 14  1  0  0  0  0
 12 15  1  0  0  0  0
 12 28  1  0  0  0  0
 13 15  1  0  0  0  0
 13 29  1  0  0  0  0
 14 16  1  6  0  0  0
 14 30  1  0  0  0  0
 15 31  1  0  0  0  0
 15 32  1  0  0  0  0
 16 33  1  0  0  0  0
 16 34  1  0  0  0  0
 17 19  2  0  0  0  0
 17 35  1  0  0  0  0
 19 20  1  0  0  0  0
 19 21  1  0  0  0  0
 20 22  1  0  0  0  0
 20 38  1  0  0  0  0
 20 39  1  0  0  0  0
 22 23  2  0  0  0  0
 22 24  1  0  0  0  0
 23 25  1  0  0  0  0
 23 40  1  0  0  0  0
 24 26  2  0  0  0  0
 24 41  1  0  0  0  0
 25 27  2  0  0  0  0
 25 44  1  0  0  0  0
 26 27  1  0  0  0  0
 26 45  1  0  0  0  0
 27 46  1  0  0  0  0
M  END
> <PUBCHEM_COMPOUND_CID>
510571
> <PUBCHEM_COMPOUND_CANONICALIZED>
1
> <PUBCHEM_CACTVS_COMPLEXITY>
657
> <PUBCHEM_CACTVS_HBOND_ACCEPTOR>
8
> <PUBCHEM_CACTVS_HBOND_DONOR>
4
> <PUBCHEM_CACTVS_ROTATABLE_BOND>
6
> <PUBCHEM_CACTVS_SUBSKEYS>
AAADceB7PAIAAAAAAAAAAAAAAAAAASAAAAAwQAAAAAAAAAABAAAAHgAQCCAADBThmAYxAIPABxCIQiFWUICCAAAgAAAIiAEIAMiJMDKAkRCOYAAvhyILiMe4uIKOAAAAAAAAAAAAAAAAAAAAAAAAAAAAAA==
> <PUBCHEM_IUPAC_OPENEYE_NAME>
[(2R,3S,5R)-5-(5-benzyl-2,4-dioxo-pyrimidin-1-yl)-3-hydroxy-tetrahydrofuran-2-yl]methyl dihydrogen phosphate
> <PUBCHEM_IUPAC_CAS_NAME>
[(2R,3S,5R)-5-[2,4-dioxo-5-(phenylmethyl)-1-pyrimidinyl]-3-hydroxy-2-oxolanyl]methyl dihydrogen phosphate
> <PUBCHEM_IUPAC_NAME_MARKUP>
[(2<I>R</I>,3<I>S</I>,5<I>R</I>)-5-(5-benzyl-2,4-dioxopyrimidin-1-yl)-3-hydroxyoxolan-2-yl]methyl dihydrogen phosphate
> <PUBCHEM_IUPAC_NAME>
[(2R,3S,5R)-5-(5-benzyl-2,4-dioxopyrimidin-1-yl)-3-hydroxyoxolan-2-yl]methyl dihydrogen phosphate
> <PUBCHEM_IUPAC_SYSTEMATIC_NAME>
[(2R,3S,5R)-5-[2,4-bis(oxidanylidene)-5-(phenylmethyl)pyrimidin-1-yl]-3-oxidanyl-oxolan-2-yl]methyl dihydrogen phosphate
> <PUBCHEM_IUPAC_TRADITIONAL_NAME>
[(2R,3S,5R)-5-(5-benzyl-2,4-diketo-pyrimidin-1-yl)-3-hydroxy-tetrahydrofuran-2-yl]methyl dihydrogen phosphate
> <PUBCHEM_IUPAC_INCHI>
InChI=1S/C16H19N2O8P/c19-12-7-14(26-13(12)9-25-27(22,23)24)18-8-11(15(20)17-16(18)21)6-10-4-2-1-3-5-10/h1-5,8,12-14,19H,6-7,9H2,(H,17,20,21)(H2,22,23,24)/t12-,13+,14+/m0/s1
> <PUBCHEM_IUPAC_INCHIKEY>
ZJPWXRDQGVJJPT-BFHYXJOUSA-N
> <PUBCHEM_XLOGP3>
-1.3
> <PUBCHEM_EXACT_MASS>
398.08790257
> <PUBCHEM_MOLECULAR_FORMULA>
C16H19N2O8P
> <PUBCHEM_MOLECULAR_WEIGHT>
398.30
> <PUBCHEM_OPENEYE_CAN_SMILES>
C1C(C(OC1N2C=C(C(=O)NC2=O)CC3=CC=CC=C3)COP(=O)(O)O)O
> <PUBCHEM_OPENEYE_ISO_SMILES>
C1[C@@H]([C@H](O[C@H]1N2C=C(C(=O)NC2=O)CC3=CC=CC=C3)COP(=O)(O)O)O
> <PUBCHEM_CACTVS_TPSA>
146
> <PUBCHEM_MONOISOTOPIC_WEIGHT>
398.08790257
> <PUBCHEM_TOTAL_CHARGE>
0
> <PUBCHEM_HEAVY_ATOM_COUNT>
27
> <PUBCHEM_ATOM_DEF_STEREO_COUNT>
3
> <PUBCHEM_ATOM_UDEF_STEREO_COUNT>
0
> <PUBCHEM_BOND_DEF_STEREO_COUNT>
0
> <PUBCHEM_BOND_UDEF_STEREO_COUNT>
0
> <PUBCHEM_ISOTOPIC_ATOM_COUNT>
0
> <PUBCHEM_COMPONENT_COUNT>
1
> <PUBCHEM_CACTVS_TAUTO_COUNT>
-1
> <PUBCHEM_COORDINATE_TYPE>
1
5
255
> <PUBCHEM_BONDANNOTATIONS>
13  10  6
10  17  8
10  18  8
11  18  8
11  21  8
14  16  6
17  19  8
19  21  8
22  23  8
22  24  8
23  25  8
24  26  8
25  27  8
26  27  8
12  3  5
$$$$
