510551
  -OEChem-10302200282D
 96 98  0     1  0  0  0  0  0999 V2000
    3.2784   -2.6633    0.0000 O   0  0  0  0  0  0  0  0  0  0  0  0
   13.9669   -0.1309    0.0000 O   0  0  0  0  0  0  0  0  0  0  0  0
    4.9726   -2.3032    0.0000 O   0  0  0  0  0  0  0  0  0  0  0  0
   12.8080    1.1562    0.0000 O   0  0  0  0  0  0  0  0  0  0  0  0
    5.9236   -2.6122    0.0000 O   0  0  0  0  0  0  0  0  0  0  0  0
   12.6001    2.1344    0.0000 O   0  0  0  0  0  0  0  0  0  0  0  0
    7.0256   -1.8116    0.0000 O   0  0  0  0  0  0  0  0  0  0  0  0
   10.4897    4.1884    0.0000 O   0  0  0  0  0  0  0  0  0  0  0  0
    5.3884   -4.2595    0.0000 N   0  0  0  0  0  0  0  0  0  0  0  0
   14.2943    2.4945    0.0000 N   0  0  0  0  0  0  0  0  0  0  0  0
    7.3916   -4.8505    0.0000 N   0  0  0  0  0  0  0  0  0  0  0  0
   13.8044    4.5248    0.0000 N   0  0  0  0  0  0  0  0  0  0  0  0
    8.7006   -3.8994    0.0000 N   0  0  0  0  0  0  0  0  0  0  0  0
   12.3263    5.1829    0.0000 N   0  0  0  0  0  0  0  0  0  0  0  0
    8.7576   -1.8116    0.0000 N   0  0  0  0  0  0  0  0  0  0  0  0
   11.3557    2.6884    0.0000 N   0  0  0  0  0  0  0  0  0  0  0  0
    3.6942   -4.6196    0.0000 C   0  0  1  0  0  0  0  0  0  0  0  0
   15.4532    1.2073    0.0000 C   0  0  1  0  0  0  0  0  0  0  0  0
    2.7431   -4.3106    0.0000 C   0  0  0  0  0  0  0  0  0  0  0  0
   15.6611    0.2292    0.0000 C   0  0  0  0  0  0  0  0  0  0  0  0
    4.4374   -3.9505    0.0000 C   0  0  1  0  0  0  0  0  0  0  0  0
   14.5022    1.5163    0.0000 C   0  0  1  0  0  0  0  0  0  0  0  0
    3.9021   -5.5978    0.0000 C   0  0  0  0  0  0  0  0  0  0  0  0
   16.1964    1.8764    0.0000 C   0  0  0  0  0  0  0  0  0  0  0  0
    2.0000   -4.9797    0.0000 C   0  0  0  0  0  0  0  0  0  0  0  0
    2.5352   -3.3325    0.0000 C   0  0  0  0  0  0  0  0  0  0  0  0
   16.6122   -0.0798    0.0000 C   0  0  0  0  0  0  0  0  0  0  0  0
   14.9180   -0.4400    0.0000 C   0  0  0  0  0  0  0  0  0  0  0  0
    4.2294   -2.9724    0.0000 C   0  0  0  0  0  0  0  0  0  0  0  0
   13.7590    0.8472    0.0000 C   0  0  0  0  0  0  0  0  0  0  0  0
    6.1316   -3.5904    0.0000 C   0  0  0  0  0  0  0  0  0  0  0  0
   13.3432    2.8035    0.0000 C   0  0  0  0  0  0  0  0  0  0  0  0
    7.0826   -3.8994    0.0000 C   0  0  0  0  0  0  0  0  0  0  0  0
   13.1353    3.7816    0.0000 C   0  0  0  0  0  0  0  0  0  0  0  0
    7.8916   -3.3116    0.0000 C   0  0  0  0  0  0  0  0  0  0  0  0
   12.2217    4.1884    0.0000 C   0  0  0  0  0  0  0  0  0  0  0  0
    3.0705   -1.6852    0.0000 C   0  0  0  0  0  0  0  0  0  0  0  0
   13.2238   -0.8001    0.0000 C   0  0  0  0  0  0  0  0  0  0  0  0
    7.8916   -2.3116    0.0000 C   0  0  0  0  0  0  0  0  0  0  0  0
   11.3557    3.6884    0.0000 C   0  0  0  0  0  0  0  0  0  0  0  0
    8.3916   -4.8505    0.0000 C   0  0  0  0  0  0  0  0  0  0  0  0
   13.3044    5.3908    0.0000 C   0  0  0  0  0  0  0  0  0  0  0  0
    8.7576   -0.8116    0.0000 C   0  0  0  0  0  0  0  0  0  0  0  0
   10.4897    2.1884    0.0000 C   0  0  0  0  0  0  0  0  0  0  0  0
    9.6237   -0.3116    0.0000 C   0  0  0  0  0  0  0  0  0  0  0  0
   10.4897    1.1884    0.0000 C   0  0  0  0  0  0  0  0  0  0  0  0
    9.6237    0.6884    0.0000 C   0  0  0  0  0  0  0  0  0  0  0  0
   10.4897   -0.8116    0.0000 C   0  0  0  0  0  0  0  0  0  0  0  0
   11.3557    0.6884    0.0000 C   0  0  0  0  0  0  0  0  0  0  0  0
   11.3557   -0.3116    0.0000 C   0  0  0  0  0  0  0  0  0  0  0  0
    4.2839   -4.8112    0.0000 H   0  0  0  0  0  0  0  0  0  0  0  0
   16.0429    1.0157    0.0000 H   0  0  0  0  0  0  0  0  0  0  0  0
    2.8721   -4.9171    0.0000 H   0  0  0  0  0  0  0  0  0  0  0  0
   15.0715    0.4208    0.0000 H   0  0  0  0  0  0  0  0  0  0  0  0
    4.8981   -3.5356    0.0000 H   0  0  0  0  0  0  0  0  0  0  0  0
   13.9125    1.7079    0.0000 H   0  0  0  0  0  0  0  0  0  0  0  0
    3.2957   -5.7267    0.0000 H   0  0  0  0  0  0  0  0  0  0  0  0
    4.0310   -6.2042    0.0000 H   0  0  0  0  0  0  0  0  0  0  0  0
    4.5086   -5.4689    0.0000 H   0  0  0  0  0  0  0  0  0  0  0  0
   16.6112    1.4157    0.0000 H   0  0  0  0  0  0  0  0  0  0  0  0
   16.6571    2.2913    0.0000 H   0  0  0  0  0  0  0  0  0  0  0  0
   15.7815    2.3372    0.0000 H   0  0  0  0  0  0  0  0  0  0  0  0
    1.5851   -4.5190    0.0000 H   0  0  0  0  0  0  0  0  0  0  0  0
    1.5392   -5.3946    0.0000 H   0  0  0  0  0  0  0  0  0  0  0  0
    2.4149   -5.4405    0.0000 H   0  0  0  0  0  0  0  0  0  0  0  0
    3.1417   -3.2036    0.0000 H   0  0  0  0  0  0  0  0  0  0  0  0
    2.4063   -2.7260    0.0000 H   0  0  0  0  0  0  0  0  0  0  0  0
    1.9288   -3.4614    0.0000 H   0  0  0  0  0  0  0  0  0  0  0  0
   16.4206   -0.6695    0.0000 H   0  0  0  0  0  0  0  0  0  0  0  0
   17.2019   -0.2714    0.0000 H   0  0  0  0  0  0  0  0  0  0  0  0
   16.8038    0.5098    0.0000 H   0  0  0  0  0  0  0  0  0  0  0  0
   14.5031    0.0208    0.0000 H   0  0  0  0  0  0  0  0  0  0  0  0
   14.4572   -0.8548    0.0000 H   0  0  0  0  0  0  0  0  0  0  0  0
   15.3329   -0.9007    0.0000 H   0  0  0  0  0  0  0  0  0  0  0  0
    5.5173   -4.8660    0.0000 H   0  0  0  0  0  0  0  0  0  0  0  0
   14.7550    2.9094    0.0000 H   0  0  0  0  0  0  0  0  0  0  0  0
    3.6769   -1.5563    0.0000 H   0  0  0  0  0  0  0  0  0  0  0  0
    2.9416   -1.0787    0.0000 H   0  0  0  0  0  0  0  0  0  0  0  0
    2.4640   -1.8141    0.0000 H   0  0  0  0  0  0  0  0  0  0  0  0
   12.8089   -0.3393    0.0000 H   0  0  0  0  0  0  0  0  0  0  0  0
   12.7630   -1.2149    0.0000 H   0  0  0  0  0  0  0  0  0  0  0  0
   13.6387   -1.2608    0.0000 H   0  0  0  0  0  0  0  0  0  0  0  0
    9.2903   -3.7078    0.0000 H   0  0  0  0  0  0  0  0  0  0  0  0
   11.8655    5.5978    0.0000 H   0  0  0  0  0  0  0  0  0  0  0  0
    8.7560   -5.3520    0.0000 H   0  0  0  0  0  0  0  0  0  0  0  0
   13.5566    5.9572    0.0000 H   0  0  0  0  0  0  0  0  0  0  0  0
    8.5456   -0.2290    0.0000 H   0  0  0  0  0  0  0  0  0  0  0  0
    8.1471   -0.9193    0.0000 H   0  0  0  0  0  0  0  0  0  0  0  0
   10.2776    2.7710    0.0000 H   0  0  0  0  0  0  0  0  0  0  0  0
    9.8791    2.0807    0.0000 H   0  0  0  0  0  0  0  0  0  0  0  0
    9.2946   -2.1216    0.0000 H   0  0  0  0  0  0  0  0  0  0  0  0
   11.8927    2.3784    0.0000 H   0  0  0  0  0  0  0  0  0  0  0  0
    9.0867    0.9984    0.0000 H   0  0  0  0  0  0  0  0  0  0  0  0
   10.4897   -1.4316    0.0000 H   0  0  0  0  0  0  0  0  0  0  0  0
   11.8927    0.9984    0.0000 H   0  0  0  0  0  0  0  0  0  0  0  0
   11.8927   -0.6216    0.0000 H   0  0  0  0  0  0  0  0  0  0  0  0
  1 29  1  0  0  0  0
  1 37  1  0  0  0  0
  2 30  1  0  0  0  0
  2 38  1  0  0  0  0
  3 29  2  0  0  0  0
  4 30  2  0  0  0  0
  5 31  2  0  0  0  0
  6 32  2  0  0  0  0
  7 39  2  0  0  0  0
  8 40  2  0  0  0  0
 21  9  1  1  0  0  0
  9 31  1  0  0  0  0
  9 75  1  0  0  0  0
 22 10  1  1  0  0  0
 10 32  1  0  0  0  0
 10 76  1  0  0  0  0
 11 33  1  0  0  0  0
 11 41  2  0  0  0  0
 12 34  1  0  0  0  0
 12 42  2  0  0  0  0
 13 35  1  0  0  0  0
 13 41  1  0  0  0  0
 13 83  1  0  0  0  0
 14 36  1  0  0  0  0
 14 42  1  0  0  0  0
 14 84  1  0  0  0  0
 15 39  1  0  0  0  0
 15 43  1  0  0  0  0
 15 91  1  0  0  0  0
 16 40  1  0  0  0  0
 16 44  1  0  0  0  0
 16 92  1  0  0  0  0
 17 19  1  0  0  0  0
 17 21  1  0  0  0  0
 17 23  1  1  0  0  0
 17 51  1  0  0  0  0
 18 20  1  0  0  0  0
 18 22  1  0  0  0  0
 18 24  1  1  0  0  0
 18 52  1  0  0  0  0
 19 25  1  0  0  0  0
 19 26  1  0  0  0  0
 19 53  1  0  0  0  0
 20 27  1  0  0  0  0
 20 28  1  0  0  0  0
 20 54  1  0  0  0  0
 21 29  1  0  0  0  0
 21 55  1  0  0  0  0
 22 30  1  0  0  0  0
 22 56  1  0  0  0  0
 23 57  1  0  0  0  0
 23 58  1  0  0  0  0
 23 59  1  0  0  0  0
 24 60  1  0  0  0  0
 24 61  1  0  0  0  0
 24 62  1  0  0  0  0
 25 63  1  0  0  0  0
 25 64  1  0  0  0  0
 25 65  1  0  0  0  0
 26 66  1  0  0  0  0
 26 67  1  0  0  0  0
 26 68  1  0  0  0  0
 27 69  1  0  0  0  0
 27 70  1  0  0  0  0
 27 71  1  0  0  0  0
 28 72  1  0  0  0  0
 28 73  1  0  0  0  0
 28 74  1  0  0  0  0
 31 33  1  0  0  0  0
 32 34  1  0  0  0  0
 33 35  2  0  0  0  0
 34 36  2  0  0  0  0
 35 39  1  0  0  0  0
 36 40  1  0  0  0  0
 37 77  1  0  0  0  0
 37 78  1  0  0  0  0
 37 79  1  0  0  0  0
 38 80  1  0  0  0  0
 38 81  1  0  0  0  0
 38 82  1  0  0  0  0
 41 85  1  0  0  0  0
 42 86  1  0  0  0  0
 43 45  1  0  0  0  0
 43 87  1  0  0  0  0
 43 88  1  0  0  0  0
 44 46  1  0  0  0  0
 44 89  1  0  0  0  0
 44 90  1  0  0  0  0
 45 47  2  0  0  0  0
 45 48  1  0  0  0  0
 46 47  1  0  0  0  0
 46 49  2  0  0  0  0
 47 93  1  0  0  0  0
 48 50  2  0  0  0  0
 48 94  1  0  0  0  0
 49 50  1  0  0  0  0
 49 95  1  0  0  0  0
 50 96  1  0  0  0  0
M  END
> <PUBCHEM_COMPOUND_CID>
510551
> <PUBCHEM_COMPOUND_CANONICALIZED>
1
> <PUBCHEM_CACTVS_COMPLEXITY>
1110
> <PUBCHEM_CACTVS_HBOND_ACCEPTOR>
10
> <PUBCHEM_CACTVS_HBOND_DONOR>
6
> <PUBCHEM_CACTVS_ROTATABLE_BOND>
18
> <PUBCHEM_CACTVS_SUBSKEYS>
AAADcfB//AAAAAAAAAAAAAAAAAAAAWLAAAAwAAAAAAAAAAAB8AAAHgAQAAAADSjBngY3mJbJlACoAyXzfACCgC23EKAJ2YGoVMiKaDrA2TGVIYhslgLYiWedgEAOgAACAAAAAAAAAAQAAAAAAAAAAAAAAA==
> <PUBCHEM_IUPAC_OPENEYE_NAME>
methyl (2S,3S)-2-[[5-[[3-[[[4-[[(1S,2S)-1-methoxycarbonyl-2,3-dimethyl-butyl]carbamoyl]-1H-imidazole-5-carbonyl]amino]methyl]phenyl]methylcarbamoyl]-1H-imidazole-4-carbonyl]amino]-3,4-dimethyl-pentanoate
> <PUBCHEM_IUPAC_CAS_NAME>
(2S,3S)-2-[[[5-[[[3-[[[[4-[[[(2S,3S)-1-methoxy-3,4-dimethyl-1-oxopentan-2-yl]amino]-oxomethyl]-1H-imidazol-5-yl]-oxomethyl]amino]methyl]phenyl]methylamino]-oxomethyl]-1H-imidazol-4-yl]-oxomethyl]amino]-3,4-dimethylpentanoic acid methyl ester
> <PUBCHEM_IUPAC_NAME_MARKUP>
methyl (2<I>S</I>,3<I>S</I>)-2-[[5-[[3-[[[4-[[(2<I>S</I>,3<I>S</I>)-1-methoxy-3,4-dimethyl-1-oxopentan-2-yl]carbamoyl]-1<I>H</I>-imidazole-5-carbonyl]amino]methyl]phenyl]methylcarbamoyl]-1<I>H</I>-imidazole-4-carbonyl]amino]-3,4-dimethylpentanoate
> <PUBCHEM_IUPAC_NAME>
methyl (2S,3S)-2-[[5-[[3-[[[4-[[(2S,3S)-1-methoxy-3,4-dimethyl-1-oxopentan-2-yl]carbamoyl]-1H-imidazole-5-carbonyl]amino]methyl]phenyl]methylcarbamoyl]-1H-imidazole-4-carbonyl]amino]-3,4-dimethylpentanoate
> <PUBCHEM_IUPAC_SYSTEMATIC_NAME>
methyl (2S,3S)-2-[[5-[[3-[[[4-[[(2S,3S)-1-methoxy-3,4-dimethyl-1-oxidanylidene-pentan-2-yl]carbamoyl]-1H-imidazol-5-yl]carbonylamino]methyl]phenyl]methylcarbamoyl]-1H-imidazol-4-yl]carbonylamino]-3,4-dimethyl-pentanoate
> <PUBCHEM_IUPAC_TRADITIONAL_NAME>
(2S,3S)-2-[[5-[[3-[[[4-[[(1S,2S)-1-carbomethoxy-2,3-dimethyl-butyl]carbamoyl]-1H-imidazole-5-carbonyl]amino]methyl]benzyl]carbamoyl]-1H-imidazole-4-carbonyl]amino]-3,4-dimethyl-valeric acid methyl ester
> <PUBCHEM_IUPAC_INCHI>
InChI=1S/C34H46N8O8/c1-17(2)19(5)23(33(47)49-7)41-31(45)27-25(37-15-39-27)29(43)35-13-21-10-9-11-22(12-21)14-36-30(44)26-28(40-16-38-26)32(46)42-24(34(48)50-8)20(6)18(3)4/h9-12,15-20,23-24H,13-14H2,1-8H3,(H,35,43)(H,36,44)(H,37,39)(H,38,40)(H,41,45)(H,42,46)/t19-,20-,23-,24-/m0/s1
> <PUBCHEM_IUPAC_INCHIKEY>
HHRFGOCWFVONAU-TZYAJKAJSA-N
> <PUBCHEM_XLOGP3_AA>
3.8
> <PUBCHEM_EXACT_MASS>
694.34386046
> <PUBCHEM_MOLECULAR_FORMULA>
C34H46N8O8
> <PUBCHEM_MOLECULAR_WEIGHT>
694.8
> <PUBCHEM_OPENEYE_CAN_SMILES>
CC(C)C(C)C(C(=O)OC)NC(=O)C1=C(NC=N1)C(=O)NCC2=CC(=CC=C2)CNC(=O)C3=C(N=CN3)C(=O)NC(C(C)C(C)C)C(=O)OC
> <PUBCHEM_OPENEYE_ISO_SMILES>
C[C@H]([C@@H](C(=O)OC)NC(=O)C1=C(NC=N1)C(=O)NCC2=CC(=CC=C2)CNC(=O)C3=C(N=CN3)C(=O)N[C@@H]([C@@H](C)C(C)C)C(=O)OC)C(C)C
> <PUBCHEM_CACTVS_TPSA>
226
> <PUBCHEM_MONOISOTOPIC_WEIGHT>
694.34386046
> <PUBCHEM_TOTAL_CHARGE>
0
> <PUBCHEM_HEAVY_ATOM_COUNT>
50
> <PUBCHEM_ATOM_DEF_STEREO_COUNT>
4
> <PUBCHEM_ATOM_UDEF_STEREO_COUNT>
0
> <PUBCHEM_BOND_DEF_STEREO_COUNT>
0
> <PUBCHEM_BOND_UDEF_STEREO_COUNT>
0
> <PUBCHEM_ISOTOPIC_ATOM_COUNT>
0
> <PUBCHEM_COMPONENT_COUNT>
1
> <PUBCHEM_CACTVS_TAUTO_COUNT>
-1
> <PUBCHEM_COORDINATE_TYPE>
1
5
255
> <PUBCHEM_BONDANNOTATIONS>
22  10  5
11  33  8
11  41  8
12  34  8
12  42  8
13  35  8
13  41  8
14  36  8
14  42  8
17  23  5
18  24  5
33  35  8
34  36  8
45  47  8
45  48  8
46  47  8
46  49  8
48  50  8
49  50  8
21  9  5
$$$$
