510526
  -OEChem-10302200282D
 61 63  0     1  0  0  0  0  0999 V2000
    5.4641   -0.3341    0.0000 O   0  0  0  0  0  0  0  0  0  0  0  0
    9.2113    1.5176    0.0000 O   0  0  0  0  0  0  0  0  0  0  0  0
    5.4641    0.6659    0.0000 O   0  0  0  0  0  0  0  0  0  0  0  0
    6.5661    1.4666    0.0000 O   0  0  0  0  0  0  0  0  0  0  0  0
    4.5981   -1.8341    0.0000 O   0  0  0  0  0  0  0  0  0  0  0  0
    7.5171    1.1575    0.0000 O   0  0  0  0  0  0  0  0  0  0  0  0
    3.7320    0.6659    0.0000 N   0  0  0  0  0  0  0  0  0  0  0  0
    7.1013    3.1138    0.0000 N   0  0  0  0  0  0  0  0  0  0  0  0
    3.7891    2.7537    0.0000 N   0  0  0  0  0  0  0  0  0  0  0  0
    5.0981    3.7048    0.0000 N   0  0  0  0  0  0  0  0  0  0  0  0
    3.7320   -0.3341    0.0000 C   0  0  1  0  0  0  0  0  0  0  0  0
    8.0524    2.8048    0.0000 C   0  0  1  0  0  0  0  0  0  0  0  0
    2.8660   -0.8341    0.0000 C   0  0  0  0  0  0  0  0  0  0  0  0
    8.7955    3.4740    0.0000 C   0  0  0  0  0  0  0  0  0  0  0  0
    2.8660   -1.8341    0.0000 C   0  0  0  0  0  0  0  0  0  0  0  0
    9.7465    3.1649    0.0000 C   0  0  0  0  0  0  0  0  0  0  0  0
    4.5981    2.1659    0.0000 C   0  0  0  0  0  0  0  0  0  0  0  0
    5.4071    2.7537    0.0000 C   0  0  0  0  0  0  0  0  0  0  0  0
    4.5981    1.1659    0.0000 C   0  0  0  0  0  0  0  0  0  0  0  0
    6.3582    2.4447    0.0000 C   0  0  0  0  0  0  0  0  0  0  0  0
    4.5981   -0.8341    0.0000 C   0  0  0  0  0  0  0  0  0  0  0  0
    8.2603    1.8267    0.0000 C   0  0  0  0  0  0  0  0  0  0  0  0
    2.0000   -2.3341    0.0000 C   0  0  0  0  0  0  0  0  0  0  0  0
    3.7320   -2.3341    0.0000 C   0  0  0  0  0  0  0  0  0  0  0  0
    9.9545    2.1868    0.0000 C   0  0  0  0  0  0  0  0  0  0  0  0
   10.4897    3.8341    0.0000 C   0  0  0  0  0  0  0  0  0  0  0  0
    4.0981    3.7048    0.0000 C   0  0  0  0  0  0  0  0  0  0  0  0
    2.0000   -3.3341    0.0000 C   0  0  0  0  0  0  0  0  0  0  0  0
    3.7320   -3.3341    0.0000 C   0  0  0  0  0  0  0  0  0  0  0  0
   10.9055    1.8778    0.0000 C   0  0  0  0  0  0  0  0  0  0  0  0
   11.4408    3.5250    0.0000 C   0  0  0  0  0  0  0  0  0  0  0  0
    2.8660   -3.8341    0.0000 C   0  0  0  0  0  0  0  0  0  0  0  0
   11.6487    2.5469    0.0000 C   0  0  0  0  0  0  0  0  0  0  0  0
    6.3301   -0.8341    0.0000 C   0  0  0  0  0  0  0  0  0  0  0  0
    9.4192    0.5395    0.0000 C   0  0  0  0  0  0  0  0  0  0  0  0
    4.2690   -0.0241    0.0000 H   0  0  0  0  0  0  0  0  0  0  0  0
    7.9234    3.4113    0.0000 H   0  0  0  0  0  0  0  0  0  0  0  0
    2.6540   -0.2515    0.0000 H   0  0  0  0  0  0  0  0  0  0  0  0
    2.2554   -0.9417    0.0000 H   0  0  0  0  0  0  0  0  0  0  0  0
    9.0866    4.0214    0.0000 H   0  0  0  0  0  0  0  0  0  0  0  0
    8.3069    3.8557    0.0000 H   0  0  0  0  0  0  0  0  0  0  0  0
    3.1951    0.9759    0.0000 H   0  0  0  0  0  0  0  0  0  0  0  0
    6.9724    3.7203    0.0000 H   0  0  0  0  0  0  0  0  0  0  0  0
    1.4631   -2.0241    0.0000 H   0  0  0  0  0  0  0  0  0  0  0  0
    4.2690   -2.0241    0.0000 H   0  0  0  0  0  0  0  0  0  0  0  0
    9.4937    1.7719    0.0000 H   0  0  0  0  0  0  0  0  0  0  0  0
   10.3608    4.4405    0.0000 H   0  0  0  0  0  0  0  0  0  0  0  0
    3.1994    2.5621    0.0000 H   0  0  0  0  0  0  0  0  0  0  0  0
    3.7336    4.2064    0.0000 H   0  0  0  0  0  0  0  0  0  0  0  0
    1.4631   -3.6441    0.0000 H   0  0  0  0  0  0  0  0  0  0  0  0
    4.2690   -3.6441    0.0000 H   0  0  0  0  0  0  0  0  0  0  0  0
   11.0344    1.2713    0.0000 H   0  0  0  0  0  0  0  0  0  0  0  0
   11.9015    3.9399    0.0000 H   0  0  0  0  0  0  0  0  0  0  0  0
    2.8660   -4.4541    0.0000 H   0  0  0  0  0  0  0  0  0  0  0  0
   12.2383    2.3553    0.0000 H   0  0  0  0  0  0  0  0  0  0  0  0
    6.0201   -1.3710    0.0000 H   0  0  0  0  0  0  0  0  0  0  0  0
    6.8671   -1.1441    0.0000 H   0  0  0  0  0  0  0  0  0  0  0  0
    6.6401   -0.2971    0.0000 H   0  0  0  0  0  0  0  0  0  0  0  0
    8.8128    0.4106    0.0000 H   0  0  0  0  0  0  0  0  0  0  0  0
    9.5481   -0.0669    0.0000 H   0  0  0  0  0  0  0  0  0  0  0  0
   10.0257    0.6684    0.0000 H   0  0  0  0  0  0  0  0  0  0  0  0
  1 21  1  0  0  0  0
  1 34  1  0  0  0  0
  2 22  1  0  0  0  0
  2 35  1  0  0  0  0
  3 19  2  0  0  0  0
  4 20  2  0  0  0  0
  5 21  2  0  0  0  0
  6 22  2  0  0  0  0
 11  7  1  6  0  0  0
  7 19  1  0  0  0  0
  7 42  1  0  0  0  0
 12  8  1  1  0  0  0
  8 20  1  0  0  0  0
  8 43  1  0  0  0  0
  9 17  1  0  0  0  0
  9 27  1  0  0  0  0
  9 48  1  0  0  0  0
 10 18  1  0  0  0  0
 10 27  2  0  0  0  0
 11 13  1  0  0  0  0
 11 21  1  0  0  0  0
 11 36  1  0  0  0  0
 12 14  1  0  0  0  0
 12 22  1  0  0  0  0
 12 37  1  0  0  0  0
 13 15  1  0  0  0  0
 13 38  1  0  0  0  0
 13 39  1  0  0  0  0
 14 16  1  0  0  0  0
 14 40  1  0  0  0  0
 14 41  1  0  0  0  0
 15 23  2  0  0  0  0
 15 24  1  0  0  0  0
 16 25  2  0  0  0  0
 16 26  1  0  0  0  0
 17 18  2  0  0  0  0
 17 19  1  0  0  0  0
 18 20  1  0  0  0  0
 23 28  1  0  0  0  0
 23 44  1  0  0  0  0
 24 29  2  0  0  0  0
 24 45  1  0  0  0  0
 25 30  1  0  0  0  0
 25 46  1  0  0  0  0
 26 31  2  0  0  0  0
 26 47  1  0  0  0  0
 27 49  1  0  0  0  0
 28 32  2  0  0  0  0
 28 50  1  0  0  0  0
 29 32  1  0  0  0  0
 29 51  1  0  0  0  0
 30 33  2  0  0  0  0
 30 52  1  0  0  0  0
 31 33  1  0  0  0  0
 31 53  1  0  0  0  0
 32 54  1  0  0  0  0
 33 55  1  0  0  0  0
 34 56  1  0  0  0  0
 34 57  1  0  0  0  0
 34 58  1  0  0  0  0
 35 59  1  0  0  0  0
 35 60  1  0  0  0  0
 35 61  1  0  0  0  0
M  END
> <PUBCHEM_COMPOUND_CID>
510526
> <PUBCHEM_COMPOUND_CANONICALIZED>
1
> <PUBCHEM_CACTVS_COMPLEXITY>
736
> <PUBCHEM_CACTVS_HBOND_ACCEPTOR>
7
> <PUBCHEM_CACTVS_HBOND_DONOR>
3
> <PUBCHEM_CACTVS_ROTATABLE_BOND>
12
> <PUBCHEM_CACTVS_SUBSKEYS>
AAADceB7uAAAAAAAAAAAAAAAAAAAAWAAAAAwYAAAAAAAAAAB0AAAHgAQAAAADCjBngY3mJbJlACoAyXzfACCgC23EKAJ2YGoVMiKaDrA2TGVIYhslgLYiWedyKCOAAAAAAAAAAAAAAAAAAAAAAAAAAAAAA==
> <PUBCHEM_IUPAC_OPENEYE_NAME>
methyl (2S)-2-[[4-[[(1S)-1-benzyl-2-methoxy-2-oxo-ethyl]carbamoyl]-1H-imidazole-5-carbonyl]amino]-3-phenyl-propanoate
> <PUBCHEM_IUPAC_CAS_NAME>
(2S)-2-[[[4-[[[(2S)-1-methoxy-1-oxo-3-phenylpropan-2-yl]amino]-oxomethyl]-1H-imidazol-5-yl]-oxomethyl]amino]-3-phenylpropanoic acid methyl ester
> <PUBCHEM_IUPAC_NAME_MARKUP>
methyl (2<I>S</I>)-2-[[4-[[(2<I>S</I>)-1-methoxy-1-oxo-3-phenylpropan-2-yl]carbamoyl]-1<I>H</I>-imidazole-5-carbonyl]amino]-3-phenylpropanoate
> <PUBCHEM_IUPAC_NAME>
methyl (2S)-2-[[4-[[(2S)-1-methoxy-1-oxo-3-phenylpropan-2-yl]carbamoyl]-1H-imidazole-5-carbonyl]amino]-3-phenylpropanoate
> <PUBCHEM_IUPAC_SYSTEMATIC_NAME>
methyl (2S)-2-[[4-[[(2S)-1-methoxy-1-oxidanylidene-3-phenyl-propan-2-yl]carbamoyl]-1H-imidazol-5-yl]carbonylamino]-3-phenyl-propanoate
> <PUBCHEM_IUPAC_TRADITIONAL_NAME>
(2S)-2-[[4-[[(1S)-1-benzyl-2-keto-2-methoxy-ethyl]carbamoyl]-1H-imidazole-5-carbonyl]amino]-3-phenyl-propionic acid methyl ester
> <PUBCHEM_IUPAC_INCHI>
InChI=1S/C25H26N4O6/c1-34-24(32)18(13-16-9-5-3-6-10-16)28-22(30)20-21(27-15-26-20)23(31)29-19(25(33)35-2)14-17-11-7-4-8-12-17/h3-12,15,18-19H,13-14H2,1-2H3,(H,26,27)(H,28,30)(H,29,31)/t18-,19-/m0/s1
> <PUBCHEM_IUPAC_INCHIKEY>
FYIDASHAZBANMO-OALUTQOASA-N
> <PUBCHEM_XLOGP3_AA>
3.1
> <PUBCHEM_EXACT_MASS>
478.18523456
> <PUBCHEM_MOLECULAR_FORMULA>
C25H26N4O6
> <PUBCHEM_MOLECULAR_WEIGHT>
478.5
> <PUBCHEM_OPENEYE_CAN_SMILES>
COC(=O)C(CC1=CC=CC=C1)NC(=O)C2=C(N=CN2)C(=O)NC(CC3=CC=CC=C3)C(=O)OC
> <PUBCHEM_OPENEYE_ISO_SMILES>
COC(=O)[C@H](CC1=CC=CC=C1)NC(=O)C2=C(N=CN2)C(=O)N[C@@H](CC3=CC=CC=C3)C(=O)OC
> <PUBCHEM_CACTVS_TPSA>
140
> <PUBCHEM_MONOISOTOPIC_WEIGHT>
478.18523456
> <PUBCHEM_TOTAL_CHARGE>
0
> <PUBCHEM_HEAVY_ATOM_COUNT>
35
> <PUBCHEM_ATOM_DEF_STEREO_COUNT>
2
> <PUBCHEM_ATOM_UDEF_STEREO_COUNT>
0
> <PUBCHEM_BOND_DEF_STEREO_COUNT>
0
> <PUBCHEM_BOND_UDEF_STEREO_COUNT>
0
> <PUBCHEM_ISOTOPIC_ATOM_COUNT>
0
> <PUBCHEM_COMPONENT_COUNT>
1
> <PUBCHEM_CACTVS_TAUTO_COUNT>
-1
> <PUBCHEM_COORDINATE_TYPE>
1
5
255
> <PUBCHEM_BONDANNOTATIONS>
10  18  8
10  27  8
15  23  8
15  24  8
16  25  8
16  26  8
17  18  8
23  28  8
24  29  8
25  30  8
26  31  8
28  32  8
29  32  8
30  33  8
31  33  8
11  7  6
12  8  5
9  17  8
9  27  8
$$$$
