510530
  -OEChem-10302200282D
 92 93  0     1  0  0  0  0  0999 V2000
   16.5892    3.7490    0.0000 O   0  0  0  0  0  0  0  0  0  0  0  0
    3.6942   -3.7490    0.0000 O   0  0  0  0  0  0  0  0  0  0  0  0
   12.3068    1.2500    0.0000 O   0  0  0  0  0  0  0  0  0  0  0  0
    7.9766   -1.2500    0.0000 O   0  0  0  0  0  0  0  0  0  0  0  0
   15.4303    5.0362    0.0000 O   0  0  0  0  0  0  0  0  0  0  0  0
    4.8532   -5.0362    0.0000 O   0  0  0  0  0  0  0  0  0  0  0  0
   13.4087    2.0506    0.0000 O   0  0  0  0  0  0  0  0  0  0  0  0
    6.8747   -2.0506    0.0000 O   0  0  0  0  0  0  0  0  0  0  0  0
   10.5747    1.2500    0.0000 N   0  0  0  0  0  0  0  0  0  0  0  0
    9.7087   -1.2500    0.0000 N   0  0  0  0  0  0  0  0  0  0  0  0
   13.9440    3.6979    0.0000 N   0  0  0  0  0  0  0  0  0  0  0  0
    6.3395   -3.6979    0.0000 N   0  0  0  0  0  0  0  0  0  0  0  0
   10.6317    3.3378    0.0000 N   0  0  0  0  0  0  0  0  0  0  0  0
    9.6517   -3.3378    0.0000 N   0  0  0  0  0  0  0  0  0  0  0  0
   11.9408    4.2888    0.0000 N   0  0  0  0  0  0  0  0  0  0  0  0
    8.3427   -4.2888    0.0000 N   0  0  0  0  0  0  0  0  0  0  0  0
   15.1029    2.4107    0.0000 C   0  0  0  0  0  0  0  0  0  0  0  0
    5.1805   -2.4107    0.0000 C   0  0  0  0  0  0  0  0  0  0  0  0
   14.8950    3.3889    0.0000 C   0  0  1  0  0  0  0  0  0  0  0  0
    5.3884   -3.3889    0.0000 C   0  0  1  0  0  0  0  0  0  0  0  0
   10.5747    0.2500    0.0000 C   0  0  0  0  0  0  0  0  0  0  0  0
    9.7087   -0.2500    0.0000 C   0  0  0  0  0  0  0  0  0  0  0  0
    9.7087    1.7500    0.0000 C   0  0  0  0  0  0  0  0  0  0  0  0
   10.5747   -1.7500    0.0000 C   0  0  0  0  0  0  0  0  0  0  0  0
   16.0540    2.1017    0.0000 C   0  0  0  0  0  0  0  0  0  0  0  0
   14.3598    1.7416    0.0000 C   0  0  0  0  0  0  0  0  0  0  0  0
    4.2294   -2.1017    0.0000 C   0  0  0  0  0  0  0  0  0  0  0  0
    5.9236   -1.7416    0.0000 C   0  0  0  0  0  0  0  0  0  0  0  0
   11.4408    1.7500    0.0000 C   0  0  0  0  0  0  0  0  0  0  0  0
    8.8427   -1.7500    0.0000 C   0  0  0  0  0  0  0  0  0  0  0  0
   11.4408    2.7500    0.0000 C   0  0  0  0  0  0  0  0  0  0  0  0
    8.8427   -2.7500    0.0000 C   0  0  0  0  0  0  0  0  0  0  0  0
   15.6382    4.0580    0.0000 C   0  0  0  0  0  0  0  0  0  0  0  0
    4.6453   -4.0580    0.0000 C   0  0  0  0  0  0  0  0  0  0  0  0
   12.2498    3.3378    0.0000 C   0  0  0  0  0  0  0  0  0  0  0  0
    8.0337   -3.3378    0.0000 C   0  0  0  0  0  0  0  0  0  0  0  0
   13.2008    3.0288    0.0000 C   0  0  0  0  0  0  0  0  0  0  0  0
    7.0826   -3.0288    0.0000 C   0  0  0  0  0  0  0  0  0  0  0  0
    8.8427    1.2500    0.0000 C   0  0  0  0  0  0  0  0  0  0  0  0
   11.4408   -1.2500    0.0000 C   0  0  0  0  0  0  0  0  0  0  0  0
   10.9408    4.2888    0.0000 C   0  0  0  0  0  0  0  0  0  0  0  0
    9.3427   -4.2888    0.0000 C   0  0  0  0  0  0  0  0  0  0  0  0
   17.3324    4.4181    0.0000 C   0  0  0  0  0  0  0  0  0  0  0  0
    2.9511   -4.4181    0.0000 C   0  0  0  0  0  0  0  0  0  0  0  0
   18.2834    4.1091    0.0000 C   0  0  0  0  0  0  0  0  0  0  0  0
    2.0000   -4.1091    0.0000 C   0  0  0  0  0  0  0  0  0  0  0  0
   15.2318    1.8043    0.0000 H   0  0  0  0  0  0  0  0  0  0  0  0
    5.0516   -1.8043    0.0000 H   0  0  0  0  0  0  0  0  0  0  0  0
   14.7661    3.9953    0.0000 H   0  0  0  0  0  0  0  0  0  0  0  0
    5.5173   -3.9953    0.0000 H   0  0  0  0  0  0  0  0  0  0  0  0
   10.7868   -0.3326    0.0000 H   0  0  0  0  0  0  0  0  0  0  0  0
   11.1853    0.3577    0.0000 H   0  0  0  0  0  0  0  0  0  0  0  0
    9.4966    0.3326    0.0000 H   0  0  0  0  0  0  0  0  0  0  0  0
    9.0981   -0.3577    0.0000 H   0  0  0  0  0  0  0  0  0  0  0  0
   10.1072    2.2250    0.0000 H   0  0  0  0  0  0  0  0  0  0  0  0
    9.3102    2.2250    0.0000 H   0  0  0  0  0  0  0  0  0  0  0  0
   10.1762   -2.2250    0.0000 H   0  0  0  0  0  0  0  0  0  0  0  0
   10.9733   -2.2250    0.0000 H   0  0  0  0  0  0  0  0  0  0  0  0
   15.8624    1.5121    0.0000 H   0  0  0  0  0  0  0  0  0  0  0  0
   16.6437    1.9101    0.0000 H   0  0  0  0  0  0  0  0  0  0  0  0
   16.2456    2.6914    0.0000 H   0  0  0  0  0  0  0  0  0  0  0  0
   13.9449    2.2024    0.0000 H   0  0  0  0  0  0  0  0  0  0  0  0
   13.8990    1.3267    0.0000 H   0  0  0  0  0  0  0  0  0  0  0  0
   14.7747    1.2808    0.0000 H   0  0  0  0  0  0  0  0  0  0  0  0
    4.4210   -1.5121    0.0000 H   0  0  0  0  0  0  0  0  0  0  0  0
    3.6398   -1.9101    0.0000 H   0  0  0  0  0  0  0  0  0  0  0  0
    4.0378   -2.6914    0.0000 H   0  0  0  0  0  0  0  0  0  0  0  0
    6.3385   -2.2024    0.0000 H   0  0  0  0  0  0  0  0  0  0  0  0
    6.3844   -1.3267    0.0000 H   0  0  0  0  0  0  0  0  0  0  0  0
    5.5088   -1.2808    0.0000 H   0  0  0  0  0  0  0  0  0  0  0  0
   13.8151    4.3044    0.0000 H   0  0  0  0  0  0  0  0  0  0  0  0
    6.4684   -4.3044    0.0000 H   0  0  0  0  0  0  0  0  0  0  0  0
    8.5327    1.7869    0.0000 H   0  0  0  0  0  0  0  0  0  0  0  0
    8.3057    0.9400    0.0000 H   0  0  0  0  0  0  0  0  0  0  0  0
    9.1527    0.7131    0.0000 H   0  0  0  0  0  0  0  0  0  0  0  0
   11.7508   -1.7869    0.0000 H   0  0  0  0  0  0  0  0  0  0  0  0
   11.9777   -0.9400    0.0000 H   0  0  0  0  0  0  0  0  0  0  0  0
   11.1308   -0.7131    0.0000 H   0  0  0  0  0  0  0  0  0  0  0  0
   10.0421    3.1462    0.0000 H   0  0  0  0  0  0  0  0  0  0  0  0
   10.2413   -3.1462    0.0000 H   0  0  0  0  0  0  0  0  0  0  0  0
   10.5763    4.7904    0.0000 H   0  0  0  0  0  0  0  0  0  0  0  0
    9.7071   -4.7904    0.0000 H   0  0  0  0  0  0  0  0  0  0  0  0
   17.6234    4.9656    0.0000 H   0  0  0  0  0  0  0  0  0  0  0  0
   16.8438    4.7998    0.0000 H   0  0  0  0  0  0  0  0  0  0  0  0
    2.6600   -4.9656    0.0000 H   0  0  0  0  0  0  0  0  0  0  0  0
    3.4396   -4.7998    0.0000 H   0  0  0  0  0  0  0  0  0  0  0  0
   18.0918    3.5194    0.0000 H   0  0  0  0  0  0  0  0  0  0  0  0
   18.8731    3.9175    0.0000 H   0  0  0  0  0  0  0  0  0  0  0  0
   18.4750    4.6988    0.0000 H   0  0  0  0  0  0  0  0  0  0  0  0
    2.1916   -3.5194    0.0000 H   0  0  0  0  0  0  0  0  0  0  0  0
    1.4103   -3.9175    0.0000 H   0  0  0  0  0  0  0  0  0  0  0  0
    1.8084   -4.6988    0.0000 H   0  0  0  0  0  0  0  0  0  0  0  0
  1 33  1  0  0  0  0
  1 43  1  0  0  0  0
  2 34  1  0  0  0  0
  2 44  1  0  0  0  0
  3 29  2  0  0  0  0
  4 30  2  0  0  0  0
  5 33  2  0  0  0  0
  6 34  2  0  0  0  0
  7 37  2  0  0  0  0
  8 38  2  0  0  0  0
  9 21  1  0  0  0  0
  9 23  1  0  0  0  0
  9 29  1  0  0  0  0
 10 22  1  0  0  0  0
 10 24  1  0  0  0  0
 10 30  1  0  0  0  0
 19 11  1  6  0  0  0
 11 37  1  0  0  0  0
 11 71  1  0  0  0  0
 20 12  1  6  0  0  0
 12 38  1  0  0  0  0
 12 72  1  0  0  0  0
 13 31  1  0  0  0  0
 13 41  1  0  0  0  0
 13 79  1  0  0  0  0
 14 32  1  0  0  0  0
 14 42  1  0  0  0  0
 14 80  1  0  0  0  0
 15 35  1  0  0  0  0
 15 41  2  0  0  0  0
 16 36  1  0  0  0  0
 16 42  2  0  0  0  0
 17 19  1  0  0  0  0
 17 25  1  0  0  0  0
 17 26  1  0  0  0  0
 17 47  1  0  0  0  0
 18 20  1  0  0  0  0
 18 27  1  0  0  0  0
 18 28  1  0  0  0  0
 18 48  1  0  0  0  0
 19 33  1  0  0  0  0
 19 49  1  0  0  0  0
 20 34  1  0  0  0  0
 20 50  1  0  0  0  0
 21 22  1  0  0  0  0
 21 51  1  0  0  0  0
 21 52  1  0  0  0  0
 22 53  1  0  0  0  0
 22 54  1  0  0  0  0
 23 39  1  0  0  0  0
 23 55  1  0  0  0  0
 23 56  1  0  0  0  0
 24 40  1  0  0  0  0
 24 57  1  0  0  0  0
 24 58  1  0  0  0  0
 25 59  1  0  0  0  0
 25 60  1  0  0  0  0
 25 61  1  0  0  0  0
 26 62  1  0  0  0  0
 26 63  1  0  0  0  0
 26 64  1  0  0  0  0
 27 65  1  0  0  0  0
 27 66  1  0  0  0  0
 27 67  1  0  0  0  0
 28 68  1  0  0  0  0
 28 69  1  0  0  0  0
 28 70  1  0  0  0  0
 29 31  1  0  0  0  0
 30 32  1  0  0  0  0
 31 35  2  0  0  0  0
 32 36  2  0  0  0  0
 35 37  1  0  0  0  0
 36 38  1  0  0  0  0
 39 73  1  0  0  0  0
 39 74  1  0  0  0  0
 39 75  1  0  0  0  0
 40 76  1  0  0  0  0
 40 77  1  0  0  0  0
 40 78  1  0  0  0  0
 41 81  1  0  0  0  0
 42 82  1  0  0  0  0
 43 45  1  0  0  0  0
 43 83  1  0  0  0  0
 43 84  1  0  0  0  0
 44 46  1  0  0  0  0
 44 85  1  0  0  0  0
 44 86  1  0  0  0  0
 45 87  1  0  0  0  0
 45 88  1  0  0  0  0
 45 89  1  0  0  0  0
 46 90  1  0  0  0  0
 46 91  1  0  0  0  0
 46 92  1  0  0  0  0
M  END
> <PUBCHEM_COMPOUND_CID>
510530
> <PUBCHEM_COMPOUND_CANONICALIZED>
1
> <PUBCHEM_CACTVS_COMPLEXITY>
992
> <PUBCHEM_CACTVS_HBOND_ACCEPTOR>
10
> <PUBCHEM_CACTVS_HBOND_DONOR>
4
> <PUBCHEM_CACTVS_ROTATABLE_BOND>
19
> <PUBCHEM_CACTVS_SUBSKEYS>
AAADcfB7/AAAAAAAAAAAAAAAAAAAAWLAAAAAAAAAAAAAAAAB4AAAHgAQAAAADSjhlgYHmBfJlACoAQXxfACAgC2XEKABWYGoVECCSBhAyCAXAYhMFgLQAWAFAAAIAAAAAAAAAAAAAAAAAAAAAAAAAAAAAA==
> <PUBCHEM_IUPAC_OPENEYE_NAME>
ethyl (2S)-2-[[5-[2-[[4-[[(1S)-1-ethoxycarbonyl-2-methyl-propyl]carbamoyl]-1H-imidazole-5-carbonyl]-ethyl-amino]ethyl-ethyl-carbamoyl]-1H-imidazole-4-carbonyl]amino]-3-methyl-butanoate
> <PUBCHEM_IUPAC_CAS_NAME>
(2S)-2-[[[5-[[2-[[[4-[[[(2S)-1-ethoxy-3-methyl-1-oxobutan-2-yl]amino]-oxomethyl]-1H-imidazol-5-yl]-oxomethyl]-ethylamino]ethyl-ethylamino]-oxomethyl]-1H-imidazol-4-yl]-oxomethyl]amino]-3-methylbutanoic acid ethyl ester
> <PUBCHEM_IUPAC_NAME_MARKUP>
ethyl (2<I>S</I>)-2-[[5-[2-[[4-[[(2<I>S</I>)-1-ethoxy-3-methyl-1-oxobutan-2-yl]carbamoyl]-1<I>H</I>-imidazole-5-carbonyl]-ethylamino]ethyl-ethylcarbamoyl]-1<I>H</I>-imidazole-4-carbonyl]amino]-3-methylbutanoate
> <PUBCHEM_IUPAC_NAME>
ethyl (2S)-2-[[5-[2-[[4-[[(2S)-1-ethoxy-3-methyl-1-oxobutan-2-yl]carbamoyl]-1H-imidazole-5-carbonyl]-ethylamino]ethyl-ethylcarbamoyl]-1H-imidazole-4-carbonyl]amino]-3-methylbutanoate
> <PUBCHEM_IUPAC_SYSTEMATIC_NAME>
ethyl (2S)-2-[[5-[2-[[4-[[(2S)-1-ethoxy-3-methyl-1-oxidanylidene-butan-2-yl]carbamoyl]-1H-imidazol-5-yl]carbonyl-ethyl-amino]ethyl-ethyl-carbamoyl]-1H-imidazol-4-yl]carbonylamino]-3-methyl-butanoate
> <PUBCHEM_IUPAC_TRADITIONAL_NAME>
(2S)-2-[[5-[2-[[4-[[(1S)-1-carbethoxy-2-methyl-propyl]carbamoyl]-1H-imidazole-5-carbonyl]-ethyl-amino]ethyl-ethyl-carbamoyl]-1H-imidazole-4-carbonyl]amino]-3-methyl-butyric acid ethyl ester
> <PUBCHEM_IUPAC_INCHI>
InChI=1S/C30H46N8O8/c1-9-37(27(41)23-21(31-15-33-23)25(39)35-19(17(5)6)29(43)45-11-3)13-14-38(10-2)28(42)24-22(32-16-34-24)26(40)36-20(18(7)8)30(44)46-12-4/h15-20H,9-14H2,1-8H3,(H,31,33)(H,32,34)(H,35,39)(H,36,40)/t19-,20-/m0/s1
> <PUBCHEM_IUPAC_INCHIKEY>
LXISSKJUZLUYBM-PMACEKPBSA-N
> <PUBCHEM_XLOGP3_AA>
2.7
> <PUBCHEM_EXACT_MASS>
646.34386046
> <PUBCHEM_MOLECULAR_FORMULA>
C30H46N8O8
> <PUBCHEM_MOLECULAR_WEIGHT>
646.7
> <PUBCHEM_OPENEYE_CAN_SMILES>
CCN(CCN(CC)C(=O)C1=C(N=CN1)C(=O)NC(C(C)C)C(=O)OCC)C(=O)C2=C(N=CN2)C(=O)NC(C(C)C)C(=O)OCC
> <PUBCHEM_OPENEYE_ISO_SMILES>
CCN(CCN(CC)C(=O)C1=C(N=CN1)C(=O)N[C@@H](C(C)C)C(=O)OCC)C(=O)C2=C(N=CN2)C(=O)N[C@@H](C(C)C)C(=O)OCC
> <PUBCHEM_CACTVS_TPSA>
209
> <PUBCHEM_MONOISOTOPIC_WEIGHT>
646.34386046
> <PUBCHEM_TOTAL_CHARGE>
0
> <PUBCHEM_HEAVY_ATOM_COUNT>
46
> <PUBCHEM_ATOM_DEF_STEREO_COUNT>
2
> <PUBCHEM_ATOM_UDEF_STEREO_COUNT>
0
> <PUBCHEM_BOND_DEF_STEREO_COUNT>
0
> <PUBCHEM_BOND_UDEF_STEREO_COUNT>
0
> <PUBCHEM_ISOTOPIC_ATOM_COUNT>
0
> <PUBCHEM_COMPONENT_COUNT>
1
> <PUBCHEM_CACTVS_TAUTO_COUNT>
-1
> <PUBCHEM_COORDINATE_TYPE>
1
5
255
> <PUBCHEM_BONDANNOTATIONS>
19  11  6
20  12  6
13  31  8
13  41  8
14  32  8
14  42  8
15  35  8
15  41  8
16  36  8
16  42  8
31  35  8
32  36  8
$$$$
