510542
  -OEChem-10302200282D
 95 96  0     1  0  0  0  0  0999 V2000
    5.3884   -3.5606    0.0000 O   0  0  0  0  0  0  0  0  0  0  0  0
   17.4404   -0.5208    0.0000 O   0  0  0  0  0  0  0  0  0  0  0  0
    6.5474   -4.8478    0.0000 O   0  0  0  0  0  0  0  0  0  0  0  0
   17.9756    1.1264    0.0000 O   0  0  0  0  0  0  0  0  0  0  0  0
    8.5689   -1.8622    0.0000 O   0  0  0  0  0  0  0  0  0  0  0  0
   14.3793    1.3844    0.0000 O   0  0  0  0  0  0  0  0  0  0  0  0
    9.6708   -1.0616    0.0000 O   0  0  0  0  0  0  0  0  0  0  0  0
   12.2689    3.4384    0.0000 O   0  0  0  0  0  0  0  0  0  0  0  0
    8.0337   -3.5095    0.0000 N   0  0  0  0  0  0  0  0  0  0  0  0
   16.0735    1.7445    0.0000 N   0  0  0  0  0  0  0  0  0  0  0  0
   11.4029   -1.0616    0.0000 N   0  0  0  0  0  0  0  0  0  0  0  0
   13.1350    1.9384    0.0000 N   0  0  0  0  0  0  0  0  0  0  0  0
   11.3459   -3.1494    0.0000 N   0  0  0  0  0  0  0  0  0  0  0  0
   14.1055    4.4329    0.0000 N   0  0  0  0  0  0  0  0  0  0  0  0
   10.0369   -4.1005    0.0000 N   0  0  0  0  0  0  0  0  0  0  0  0
   15.5837    3.7748    0.0000 N   0  0  0  0  0  0  0  0  0  0  0  0
    6.8747   -2.2224    0.0000 C   0  0  0  0  0  0  0  0  0  0  0  0
   15.5383    0.0972    0.0000 C   0  0  0  0  0  0  0  0  0  0  0  0
    7.0826   -3.2005    0.0000 C   0  0  1  0  0  0  0  0  0  0  0  0
   16.2814    0.7663    0.0000 C   0  0  1  0  0  0  0  0  0  0  0  0
    5.9236   -1.9133    0.0000 C   0  0  0  0  0  0  0  0  0  0  0  0
    7.6178   -1.5532    0.0000 C   0  0  0  0  0  0  0  0  0  0  0  0
   15.7462   -0.8809    0.0000 C   0  0  0  0  0  0  0  0  0  0  0  0
   14.5872    0.4062    0.0000 C   0  0  0  0  0  0  0  0  0  0  0  0
    6.3395   -3.8696    0.0000 C   0  0  0  0  0  0  0  0  0  0  0  0
   17.2325    0.4573    0.0000 C   0  0  0  0  0  0  0  0  0  0  0  0
    8.7768   -2.8404    0.0000 C   0  0  0  0  0  0  0  0  0  0  0  0
   15.1224    2.0535    0.0000 C   0  0  0  0  0  0  0  0  0  0  0  0
    4.6453   -4.2297    0.0000 C   0  0  0  0  0  0  0  0  0  0  0  0
   18.3914   -0.8298    0.0000 C   0  0  0  0  0  0  0  0  0  0  0  0
    9.7279   -3.1494    0.0000 C   0  0  0  0  0  0  0  0  0  0  0  0
   14.9145    3.0316    0.0000 C   0  0  0  0  0  0  0  0  0  0  0  0
    3.6942   -3.9207    0.0000 C   0  0  0  0  0  0  0  0  0  0  0  0
   18.5993   -1.8080    0.0000 C   0  0  0  0  0  0  0  0  0  0  0  0
   12.2689    0.4384    0.0000 C   0  0  0  0  0  0  0  0  0  0  0  0
   10.5369   -2.5616    0.0000 C   0  0  0  0  0  0  0  0  0  0  0  0
   14.0010    3.4384    0.0000 C   0  0  0  0  0  0  0  0  0  0  0  0
   11.4029   -0.0616    0.0000 C   0  0  0  0  0  0  0  0  0  0  0  0
   12.2689    1.4384    0.0000 C   0  0  0  0  0  0  0  0  0  0  0  0
    2.9511   -4.5898    0.0000 C   0  0  0  0  0  0  0  0  0  0  0  0
   19.5504   -2.1170    0.0000 C   0  0  0  0  0  0  0  0  0  0  0  0
   10.5369   -1.5616    0.0000 C   0  0  0  0  0  0  0  0  0  0  0  0
   13.1350    2.9384    0.0000 C   0  0  0  0  0  0  0  0  0  0  0  0
    2.0000   -4.2808    0.0000 C   0  0  0  0  0  0  0  0  0  0  0  0
   19.7583   -3.0952    0.0000 C   0  0  0  0  0  0  0  0  0  0  0  0
   11.0369   -4.1005    0.0000 C   0  0  0  0  0  0  0  0  0  0  0  0
   15.0837    4.6408    0.0000 C   0  0  0  0  0  0  0  0  0  0  0  0
    7.4644   -2.4139    0.0000 H   0  0  0  0  0  0  0  0  0  0  0  0
   16.1279   -0.0944    0.0000 H   0  0  0  0  0  0  0  0  0  0  0  0
    7.2115   -3.8069    0.0000 H   0  0  0  0  0  0  0  0  0  0  0  0
   16.7422    1.1812    0.0000 H   0  0  0  0  0  0  0  0  0  0  0  0
    6.1152   -1.3237    0.0000 H   0  0  0  0  0  0  0  0  0  0  0  0
    5.3340   -1.7217    0.0000 H   0  0  0  0  0  0  0  0  0  0  0  0
    5.7320   -2.5030    0.0000 H   0  0  0  0  0  0  0  0  0  0  0  0
    8.0327   -2.0140    0.0000 H   0  0  0  0  0  0  0  0  0  0  0  0
    8.0786   -1.1384    0.0000 H   0  0  0  0  0  0  0  0  0  0  0  0
    7.2030   -1.0925    0.0000 H   0  0  0  0  0  0  0  0  0  0  0  0
   15.1397   -1.0098    0.0000 H   0  0  0  0  0  0  0  0  0  0  0  0
   15.8751   -1.4874    0.0000 H   0  0  0  0  0  0  0  0  0  0  0  0
   16.3526   -0.7520    0.0000 H   0  0  0  0  0  0  0  0  0  0  0  0
   14.7788    0.9959    0.0000 H   0  0  0  0  0  0  0  0  0  0  0  0
   13.9976    0.5978    0.0000 H   0  0  0  0  0  0  0  0  0  0  0  0
   14.3956   -0.1834    0.0000 H   0  0  0  0  0  0  0  0  0  0  0  0
    8.1626   -4.1160    0.0000 H   0  0  0  0  0  0  0  0  0  0  0  0
   16.5342    2.1594    0.0000 H   0  0  0  0  0  0  0  0  0  0  0  0
    4.3542   -4.7772    0.0000 H   0  0  0  0  0  0  0  0  0  0  0  0
    5.1338   -4.6114    0.0000 H   0  0  0  0  0  0  0  0  0  0  0  0
   19.0111   -0.8082    0.0000 H   0  0  0  0  0  0  0  0  0  0  0  0
   18.4777   -0.2159    0.0000 H   0  0  0  0  0  0  0  0  0  0  0  0
    3.9853   -3.3733    0.0000 H   0  0  0  0  0  0  0  0  0  0  0  0
    3.2056   -3.5390    0.0000 H   0  0  0  0  0  0  0  0  0  0  0  0
   17.9797   -1.8296    0.0000 H   0  0  0  0  0  0  0  0  0  0  0  0
   18.5131   -2.4220    0.0000 H   0  0  0  0  0  0  0  0  0  0  0  0
   12.4810   -0.1442    0.0000 H   0  0  0  0  0  0  0  0  0  0  0  0
   12.8795    0.5461    0.0000 H   0  0  0  0  0  0  0  0  0  0  0  0
   11.1909    0.5210    0.0000 H   0  0  0  0  0  0  0  0  0  0  0  0
   10.7923   -0.1693    0.0000 H   0  0  0  0  0  0  0  0  0  0  0  0
   12.0569    2.0210    0.0000 H   0  0  0  0  0  0  0  0  0  0  0  0
   11.6583    1.3307    0.0000 H   0  0  0  0  0  0  0  0  0  0  0  0
    2.6600   -5.1373    0.0000 H   0  0  0  0  0  0  0  0  0  0  0  0
    3.4396   -4.9716    0.0000 H   0  0  0  0  0  0  0  0  0  0  0  0
   20.1700   -2.0954    0.0000 H   0  0  0  0  0  0  0  0  0  0  0  0
   19.6367   -1.5030    0.0000 H   0  0  0  0  0  0  0  0  0  0  0  0
   11.9398   -1.3716    0.0000 H   0  0  0  0  0  0  0  0  0  0  0  0
   13.6719    1.6284    0.0000 H   0  0  0  0  0  0  0  0  0  0  0  0
   11.9356   -2.9578    0.0000 H   0  0  0  0  0  0  0  0  0  0  0  0
   13.6448    4.8478    0.0000 H   0  0  0  0  0  0  0  0  0  0  0  0
    2.1916   -3.6912    0.0000 H   0  0  0  0  0  0  0  0  0  0  0  0
    1.4103   -4.0892    0.0000 H   0  0  0  0  0  0  0  0  0  0  0  0
    1.8084   -4.8705    0.0000 H   0  0  0  0  0  0  0  0  0  0  0  0
   19.1519   -3.2241    0.0000 H   0  0  0  0  0  0  0  0  0  0  0  0
   19.8872   -3.7016    0.0000 H   0  0  0  0  0  0  0  0  0  0  0  0
   20.3648   -2.9662    0.0000 H   0  0  0  0  0  0  0  0  0  0  0  0
   11.4013   -4.6020    0.0000 H   0  0  0  0  0  0  0  0  0  0  0  0
   15.3358    5.2072    0.0000 H   0  0  0  0  0  0  0  0  0  0  0  0
  1 25  1  0  0  0  0
  1 29  1  0  0  0  0
  2 26  1  0  0  0  0
  2 30  1  0  0  0  0
  3 25  2  0  0  0  0
  4 26  2  0  0  0  0
  5 27  2  0  0  0  0
  6 28  2  0  0  0  0
  7 42  2  0  0  0  0
  8 43  2  0  0  0  0
 19  9  1  6  0  0  0
  9 27  1  0  0  0  0
  9 64  1  0  0  0  0
 20 10  1  6  0  0  0
 10 28  1  0  0  0  0
 10 65  1  0  0  0  0
 11 38  1  0  0  0  0
 11 42  1  0  0  0  0
 11 84  1  0  0  0  0
 12 39  1  0  0  0  0
 12 43  1  0  0  0  0
 12 85  1  0  0  0  0
 13 36  1  0  0  0  0
 13 46  1  0  0  0  0
 13 86  1  0  0  0  0
 14 37  1  0  0  0  0
 14 47  1  0  0  0  0
 14 87  1  0  0  0  0
 15 31  1  0  0  0  0
 15 46  2  0  0  0  0
 16 32  1  0  0  0  0
 16 47  2  0  0  0  0
 17 19  1  0  0  0  0
 17 21  1  0  0  0  0
 17 22  1  0  0  0  0
 17 48  1  0  0  0  0
 18 20  1  0  0  0  0
 18 23  1  0  0  0  0
 18 24  1  0  0  0  0
 18 49  1  0  0  0  0
 19 25  1  0  0  0  0
 19 50  1  0  0  0  0
 20 26  1  0  0  0  0
 20 51  1  0  0  0  0
 21 52  1  0  0  0  0
 21 53  1  0  0  0  0
 21 54  1  0  0  0  0
 22 55  1  0  0  0  0
 22 56  1  0  0  0  0
 22 57  1  0  0  0  0
 23 58  1  0  0  0  0
 23 59  1  0  0  0  0
 23 60  1  0  0  0  0
 24 61  1  0  0  0  0
 24 62  1  0  0  0  0
 24 63  1  0  0  0  0
 27 31  1  0  0  0  0
 28 32  1  0  0  0  0
 29 33  1  0  0  0  0
 29 66  1  0  0  0  0
 29 67  1  0  0  0  0
 30 34  1  0  0  0  0
 30 68  1  0  0  0  0
 30 69  1  0  0  0  0
 31 36  2  0  0  0  0
 32 37  2  0  0  0  0
 33 40  1  0  0  0  0
 33 70  1  0  0  0  0
 33 71  1  0  0  0  0
 34 41  1  0  0  0  0
 34 72  1  0  0  0  0
 34 73  1  0  0  0  0
 35 38  1  0  0  0  0
 35 39  1  0  0  0  0
 35 74  1  0  0  0  0
 35 75  1  0  0  0  0
 36 42  1  0  0  0  0
 37 43  1  0  0  0  0
 38 76  1  0  0  0  0
 38 77  1  0  0  0  0
 39 78  1  0  0  0  0
 39 79  1  0  0  0  0
 40 44  1  0  0  0  0
 40 80  1  0  0  0  0
 40 81  1  0  0  0  0
 41 45  1  0  0  0  0
 41 82  1  0  0  0  0
 41 83  1  0  0  0  0
 44 88  1  0  0  0  0
 44 89  1  0  0  0  0
 44 90  1  0  0  0  0
 45 91  1  0  0  0  0
 45 92  1  0  0  0  0
 45 93  1  0  0  0  0
 46 94  1  0  0  0  0
 47 95  1  0  0  0  0
M  END
> <PUBCHEM_COMPOUND_CID>
510542
> <PUBCHEM_COMPOUND_CANONICALIZED>
1
> <PUBCHEM_CACTVS_COMPLEXITY>
979
> <PUBCHEM_CACTVS_HBOND_ACCEPTOR>
10
> <PUBCHEM_CACTVS_HBOND_DONOR>
6
> <PUBCHEM_CACTVS_ROTATABLE_BOND>
22
> <PUBCHEM_CACTVS_SUBSKEYS>
AAADcfB7/AAAAAAAAAAAAAAAAAAAAWLAAAAAAAAAAAAAAAAB4AAAHgAQAAAADSjhlgYHmBbJlACoAQXxfACAgC2XEKABWYGoVECCSBhAyCAXAYhMFgLQAWAFAAAIAAAAAAAAAAAAAAAAAAAAAAAAAAAAAA==
> <PUBCHEM_IUPAC_OPENEYE_NAME>
butyl (2S)-2-[[5-[3-[[4-[[(1S)-1-butoxycarbonyl-2-methyl-propyl]carbamoyl]-1H-imidazole-5-carbonyl]amino]propylcarbamoyl]-1H-imidazole-4-carbonyl]amino]-3-methyl-butanoate
> <PUBCHEM_IUPAC_CAS_NAME>
(2S)-2-[[[5-[[3-[[[4-[[[(2S)-1-butoxy-3-methyl-1-oxobutan-2-yl]amino]-oxomethyl]-1H-imidazol-5-yl]-oxomethyl]amino]propylamino]-oxomethyl]-1H-imidazol-4-yl]-oxomethyl]amino]-3-methylbutanoic acid butyl ester
> <PUBCHEM_IUPAC_NAME_MARKUP>
butyl (2<I>S</I>)-2-[[5-[3-[[4-[[(2<I>S</I>)-1-butoxy-3-methyl-1-oxobutan-2-yl]carbamoyl]-1<I>H</I>-imidazole-5-carbonyl]amino]propylcarbamoyl]-1<I>H</I>-imidazole-4-carbonyl]amino]-3-methylbutanoate
> <PUBCHEM_IUPAC_NAME>
butyl (2S)-2-[[5-[3-[[4-[[(2S)-1-butoxy-3-methyl-1-oxobutan-2-yl]carbamoyl]-1H-imidazole-5-carbonyl]amino]propylcarbamoyl]-1H-imidazole-4-carbonyl]amino]-3-methylbutanoate
> <PUBCHEM_IUPAC_SYSTEMATIC_NAME>
butyl (2S)-2-[[5-[3-[[4-[[(2S)-1-butoxy-3-methyl-1-oxidanylidene-butan-2-yl]carbamoyl]-1H-imidazol-5-yl]carbonylamino]propylcarbamoyl]-1H-imidazol-4-yl]carbonylamino]-3-methyl-butanoate
> <PUBCHEM_IUPAC_TRADITIONAL_NAME>
(2S)-2-[[5-[3-[[4-[[(1S)-1-butoxycarbonyl-2-methyl-propyl]carbamoyl]-1H-imidazole-5-carbonyl]amino]propylcarbamoyl]-1H-imidazole-4-carbonyl]amino]-3-methyl-butyric acid butyl ester
> <PUBCHEM_IUPAC_INCHI>
InChI=1S/C31H48N8O8/c1-7-9-14-46-30(44)20(18(3)4)38-28(42)24-22(34-16-36-24)26(40)32-12-11-13-33-27(41)23-25(37-17-35-23)29(43)39-21(19(5)6)31(45)47-15-10-8-2/h16-21H,7-15H2,1-6H3,(H,32,40)(H,33,41)(H,34,36)(H,35,37)(H,38,42)(H,39,43)/t20-,21-/m0/s1
> <PUBCHEM_IUPAC_INCHIKEY>
NPVMPKQBRGEPDV-SFTDATJTSA-N
> <PUBCHEM_XLOGP3_AA>
3.8
> <PUBCHEM_EXACT_MASS>
660.35951052
> <PUBCHEM_MOLECULAR_FORMULA>
C31H48N8O8
> <PUBCHEM_MOLECULAR_WEIGHT>
660.8
> <PUBCHEM_OPENEYE_CAN_SMILES>
CCCCOC(=O)C(C(C)C)NC(=O)C1=C(NC=N1)C(=O)NCCCNC(=O)C2=C(N=CN2)C(=O)NC(C(C)C)C(=O)OCCCC
> <PUBCHEM_OPENEYE_ISO_SMILES>
CCCCOC(=O)[C@H](C(C)C)NC(=O)C1=C(NC=N1)C(=O)NCCCNC(=O)C2=C(N=CN2)C(=O)N[C@@H](C(C)C)C(=O)OCCCC
> <PUBCHEM_CACTVS_TPSA>
226
> <PUBCHEM_MONOISOTOPIC_WEIGHT>
660.35951052
> <PUBCHEM_TOTAL_CHARGE>
0
> <PUBCHEM_HEAVY_ATOM_COUNT>
47
> <PUBCHEM_ATOM_DEF_STEREO_COUNT>
2
> <PUBCHEM_ATOM_UDEF_STEREO_COUNT>
0
> <PUBCHEM_BOND_DEF_STEREO_COUNT>
0
> <PUBCHEM_BOND_UDEF_STEREO_COUNT>
0
> <PUBCHEM_ISOTOPIC_ATOM_COUNT>
0
> <PUBCHEM_COMPONENT_COUNT>
1
> <PUBCHEM_CACTVS_TAUTO_COUNT>
-1
> <PUBCHEM_COORDINATE_TYPE>
1
5
255
> <PUBCHEM_BONDANNOTATIONS>
20  10  6
13  36  8
13  46  8
14  37  8
14  47  8
15  31  8
15  46  8
16  32  8
16  47  8
31  36  8
32  37  8
19  9  6
$$$$
