510529
  -OEChem-10302200282D
106109  0     1  0  0  0  0  0999 V2000
   14.8478    4.9734    0.0000 O   0  0  0  0  0  0  0  0  0  0  0  0
    3.7320   -4.9734    0.0000 O   0  0  0  0  0  0  0  0  0  0  0  0
   11.1478    1.6728    0.0000 O   0  0  0  0  0  0  0  0  0  0  0  0
    7.4321   -1.6728    0.0000 O   0  0  0  0  0  0  0  0  0  0  0  0
   15.7139    3.4734    0.0000 O   0  0  0  0  0  0  0  0  0  0  0  0
    2.8660   -3.4734    0.0000 O   0  0  0  0  0  0  0  0  0  0  0  0
   12.2498    2.4734    0.0000 O   0  0  0  0  0  0  0  0  0  0  0  0
    6.3301   -2.4734    0.0000 O   0  0  0  0  0  0  0  0  0  0  0  0
   10.6126    0.0255    0.0000 N   0  0  0  0  0  0  0  0  0  0  0  0
    7.9673   -0.0255    0.0000 N   0  0  0  0  0  0  0  0  0  0  0  0
   13.9818    2.4734    0.0000 N   0  0  0  0  0  0  0  0  0  0  0  0
    4.5981   -2.4734    0.0000 N   0  0  0  0  0  0  0  0  0  0  0  0
   12.6158   -0.5654    0.0000 N   0  0  0  0  0  0  0  0  0  0  0  0
    5.9641    0.5654    0.0000 N   0  0  0  0  0  0  0  0  0  0  0  0
   13.9248    0.3857    0.0000 N   0  0  0  0  0  0  0  0  0  0  0  0
    4.6551   -0.3857    0.0000 N   0  0  0  0  0  0  0  0  0  0  0  0
   13.1158    3.9734    0.0000 C   0  0  0  0  0  0  0  0  0  0  0  0
    5.4641   -3.9734    0.0000 C   0  0  0  0  0  0  0  0  0  0  0  0
   13.9818    3.4734    0.0000 C   0  0  1  0  0  0  0  0  0  0  0  0
    4.5981   -3.4734    0.0000 C   0  0  1  0  0  0  0  0  0  0  0  0
    9.6615    0.3346    0.0000 C   0  0  0  0  0  0  0  0  0  0  0  0
    8.9184   -0.3346    0.0000 C   0  0  0  0  0  0  0  0  0  0  0  0
   13.1158    4.9734    0.0000 C   0  0  0  0  0  0  0  0  0  0  0  0
   12.2498    3.4734    0.0000 C   0  0  0  0  0  0  0  0  0  0  0  0
    6.3301   -3.4734    0.0000 C   0  0  0  0  0  0  0  0  0  0  0  0
    5.4641   -4.9734    0.0000 C   0  0  0  0  0  0  0  0  0  0  0  0
   10.8205   -0.9526    0.0000 C   0  0  0  0  0  0  0  0  0  0  0  0
    7.7594    0.9526    0.0000 C   0  0  0  0  0  0  0  0  0  0  0  0
   11.3557    0.6947    0.0000 C   0  0  0  0  0  0  0  0  0  0  0  0
    7.2242   -0.6947    0.0000 C   0  0  0  0  0  0  0  0  0  0  0  0
   12.3068    0.3857    0.0000 C   0  0  0  0  0  0  0  0  0  0  0  0
    6.2731   -0.3857    0.0000 C   0  0  0  0  0  0  0  0  0  0  0  0
   14.8478    3.9734    0.0000 C   0  0  0  0  0  0  0  0  0  0  0  0
    3.7320   -3.9734    0.0000 C   0  0  0  0  0  0  0  0  0  0  0  0
   13.1158    0.9734    0.0000 C   0  0  0  0  0  0  0  0  0  0  0  0
    5.4641   -0.9734    0.0000 C   0  0  0  0  0  0  0  0  0  0  0  0
   13.1158    1.9734    0.0000 C   0  0  0  0  0  0  0  0  0  0  0  0
    5.4641   -1.9734    0.0000 C   0  0  0  0  0  0  0  0  0  0  0  0
   10.0773   -1.6217    0.0000 C   0  0  0  0  0  0  0  0  0  0  0  0
    8.5026    1.6217    0.0000 C   0  0  0  0  0  0  0  0  0  0  0  0
   13.6158   -0.5654    0.0000 C   0  0  0  0  0  0  0  0  0  0  0  0
    4.9641    0.5654    0.0000 C   0  0  0  0  0  0  0  0  0  0  0  0
   15.7139    5.4734    0.0000 C   0  0  0  0  0  0  0  0  0  0  0  0
    2.8660   -5.4734    0.0000 C   0  0  0  0  0  0  0  0  0  0  0  0
   15.7139    6.4734    0.0000 C   0  0  0  0  0  0  0  0  0  0  0  0
    2.8660   -6.4734    0.0000 C   0  0  0  0  0  0  0  0  0  0  0  0
   14.8478    6.9734    0.0000 C   0  0  0  0  0  0  0  0  0  0  0  0
    3.7320   -6.9734    0.0000 C   0  0  0  0  0  0  0  0  0  0  0  0
   16.5799    6.9734    0.0000 C   0  0  0  0  0  0  0  0  0  0  0  0
    2.0000   -6.9734    0.0000 C   0  0  0  0  0  0  0  0  0  0  0  0
   14.8478    7.9734    0.0000 C   0  0  0  0  0  0  0  0  0  0  0  0
    3.7320   -7.9734    0.0000 C   0  0  0  0  0  0  0  0  0  0  0  0
   16.5799    7.9734    0.0000 C   0  0  0  0  0  0  0  0  0  0  0  0
    2.0000   -7.9734    0.0000 C   0  0  0  0  0  0  0  0  0  0  0  0
   15.7139    8.4734    0.0000 C   0  0  0  0  0  0  0  0  0  0  0  0
    2.8660   -8.4734    0.0000 C   0  0  0  0  0  0  0  0  0  0  0  0
   12.5789    4.2834    0.0000 H   0  0  0  0  0  0  0  0  0  0  0  0
    5.4641   -3.3534    0.0000 H   0  0  0  0  0  0  0  0  0  0  0  0
   14.5188    3.1634    0.0000 H   0  0  0  0  0  0  0  0  0  0  0  0
    4.0611   -3.1634    0.0000 H   0  0  0  0  0  0  0  0  0  0  0  0
    9.9526    0.8820    0.0000 H   0  0  0  0  0  0  0  0  0  0  0  0
    9.1730    0.7163    0.0000 H   0  0  0  0  0  0  0  0  0  0  0  0
    8.6273   -0.8820    0.0000 H   0  0  0  0  0  0  0  0  0  0  0  0
    9.4069   -0.7163    0.0000 H   0  0  0  0  0  0  0  0  0  0  0  0
   13.7358    4.9734    0.0000 H   0  0  0  0  0  0  0  0  0  0  0  0
   13.1158    5.5934    0.0000 H   0  0  0  0  0  0  0  0  0  0  0  0
   12.4958    4.9734    0.0000 H   0  0  0  0  0  0  0  0  0  0  0  0
   11.9398    4.0104    0.0000 H   0  0  0  0  0  0  0  0  0  0  0  0
   11.7128    3.1634    0.0000 H   0  0  0  0  0  0  0  0  0  0  0  0
   12.5598    2.9365    0.0000 H   0  0  0  0  0  0  0  0  0  0  0  0
    6.6401   -4.0104    0.0000 H   0  0  0  0  0  0  0  0  0  0  0  0
    6.8671   -3.1634    0.0000 H   0  0  0  0  0  0  0  0  0  0  0  0
    6.0201   -2.9365    0.0000 H   0  0  0  0  0  0  0  0  0  0  0  0
    4.8441   -4.9734    0.0000 H   0  0  0  0  0  0  0  0  0  0  0  0
    5.4641   -5.5934    0.0000 H   0  0  0  0  0  0  0  0  0  0  0  0
    6.0841   -4.9734    0.0000 H   0  0  0  0  0  0  0  0  0  0  0  0
   14.5188    2.1634    0.0000 H   0  0  0  0  0  0  0  0  0  0  0  0
    4.0611   -2.1634    0.0000 H   0  0  0  0  0  0  0  0  0  0  0  0
   11.1490   -1.4784    0.0000 H   0  0  0  0  0  0  0  0  0  0  0  0
   11.3953   -0.7203    0.0000 H   0  0  0  0  0  0  0  0  0  0  0  0
    7.4309    1.4784    0.0000 H   0  0  0  0  0  0  0  0  0  0  0  0
    7.1846    0.7203    0.0000 H   0  0  0  0  0  0  0  0  0  0  0  0
    9.6625   -1.1610    0.0000 H   0  0  0  0  0  0  0  0  0  0  0  0
    9.6166   -2.0366    0.0000 H   0  0  0  0  0  0  0  0  0  0  0  0
   10.4922   -2.0825    0.0000 H   0  0  0  0  0  0  0  0  0  0  0  0
    8.9174    1.1610    0.0000 H   0  0  0  0  0  0  0  0  0  0  0  0
    8.9633    2.0366    0.0000 H   0  0  0  0  0  0  0  0  0  0  0  0
    8.0877    2.0825    0.0000 H   0  0  0  0  0  0  0  0  0  0  0  0
   12.2514   -1.0670    0.0000 H   0  0  0  0  0  0  0  0  0  0  0  0
    6.3285    1.0670    0.0000 H   0  0  0  0  0  0  0  0  0  0  0  0
   13.9802   -1.0670    0.0000 H   0  0  0  0  0  0  0  0  0  0  0  0
    4.5997    1.0670    0.0000 H   0  0  0  0  0  0  0  0  0  0  0  0
   15.9259    4.8908    0.0000 H   0  0  0  0  0  0  0  0  0  0  0  0
   16.3245    5.5811    0.0000 H   0  0  0  0  0  0  0  0  0  0  0  0
    2.6540   -4.8908    0.0000 H   0  0  0  0  0  0  0  0  0  0  0  0
    2.2554   -5.5811    0.0000 H   0  0  0  0  0  0  0  0  0  0  0  0
   14.3109    6.6634    0.0000 H   0  0  0  0  0  0  0  0  0  0  0  0
    4.2690   -6.6634    0.0000 H   0  0  0  0  0  0  0  0  0  0  0  0
   17.1168    6.6634    0.0000 H   0  0  0  0  0  0  0  0  0  0  0  0
    1.4631   -6.6634    0.0000 H   0  0  0  0  0  0  0  0  0  0  0  0
   14.3109    8.2834    0.0000 H   0  0  0  0  0  0  0  0  0  0  0  0
    4.2690   -8.2834    0.0000 H   0  0  0  0  0  0  0  0  0  0  0  0
   17.1168    8.2834    0.0000 H   0  0  0  0  0  0  0  0  0  0  0  0
    1.4631   -8.2834    0.0000 H   0  0  0  0  0  0  0  0  0  0  0  0
   15.7139    9.0934    0.0000 H   0  0  0  0  0  0  0  0  0  0  0  0
    2.8660   -9.0934    0.0000 H   0  0  0  0  0  0  0  0  0  0  0  0
  1 33  1  0  0  0  0
  1 43  1  0  0  0  0
  2 34  1  0  0  0  0
  2 44  1  0  0  0  0
  3 29  2  0  0  0  0
  4 30  2  0  0  0  0
  5 33  2  0  0  0  0
  6 34  2  0  0  0  0
  7 37  2  0  0  0  0
  8 38  2  0  0  0  0
  9 21  1  0  0  0  0
  9 27  1  0  0  0  0
  9 29  1  0  0  0  0
 10 22  1  0  0  0  0
 10 28  1  0  0  0  0
 10 30  1  0  0  0  0
 19 11  1  1  0  0  0
 11 37  1  0  0  0  0
 11 77  1  0  0  0  0
 20 12  1  1  0  0  0
 12 38  1  0  0  0  0
 12 78  1  0  0  0  0
 13 31  1  0  0  0  0
 13 41  1  0  0  0  0
 13 89  1  0  0  0  0
 14 32  1  0  0  0  0
 14 42  1  0  0  0  0
 14 90  1  0  0  0  0
 15 35  1  0  0  0  0
 15 41  2  0  0  0  0
 16 36  1  0  0  0  0
 16 42  2  0  0  0  0
 17 19  1  0  0  0  0
 17 23  1  0  0  0  0
 17 24  1  0  0  0  0
 17 57  1  0  0  0  0
 18 20  1  0  0  0  0
 18 25  1  0  0  0  0
 18 26  1  0  0  0  0
 18 58  1  0  0  0  0
 19 33  1  0  0  0  0
 19 59  1  0  0  0  0
 20 34  1  0  0  0  0
 20 60  1  0  0  0  0
 21 22  1  0  0  0  0
 21 61  1  0  0  0  0
 21 62  1  0  0  0  0
 22 63  1  0  0  0  0
 22 64  1  0  0  0  0
 23 65  1  0  0  0  0
 23 66  1  0  0  0  0
 23 67  1  0  0  0  0
 24 68  1  0  0  0  0
 24 69  1  0  0  0  0
 24 70  1  0  0  0  0
 25 71  1  0  0  0  0
 25 72  1  0  0  0  0
 25 73  1  0  0  0  0
 26 74  1  0  0  0  0
 26 75  1  0  0  0  0
 26 76  1  0  0  0  0
 27 39  1  0  0  0  0
 27 79  1  0  0  0  0
 27 80  1  0  0  0  0
 28 40  1  0  0  0  0
 28 81  1  0  0  0  0
 28 82  1  0  0  0  0
 29 31  1  0  0  0  0
 30 32  1  0  0  0  0
 31 35  2  0  0  0  0
 32 36  2  0  0  0  0
 35 37  1  0  0  0  0
 36 38  1  0  0  0  0
 39 83  1  0  0  0  0
 39 84  1  0  0  0  0
 39 85  1  0  0  0  0
 40 86  1  0  0  0  0
 40 87  1  0  0  0  0
 40 88  1  0  0  0  0
 41 91  1  0  0  0  0
 42 92  1  0  0  0  0
 43 45  1  0  0  0  0
 43 93  1  0  0  0  0
 43 94  1  0  0  0  0
 44 46  1  0  0  0  0
 44 95  1  0  0  0  0
 44 96  1  0  0  0  0
 45 47  2  0  0  0  0
 45 49  1  0  0  0  0
 46 48  2  0  0  0  0
 46 50  1  0  0  0  0
 47 51  1  0  0  0  0
 47 97  1  0  0  0  0
 48 52  1  0  0  0  0
 48 98  1  0  0  0  0
 49 53  2  0  0  0  0
 49 99  1  0  0  0  0
 50 54  2  0  0  0  0
 50100  1  0  0  0  0
 51 55  2  0  0  0  0
 51101  1  0  0  0  0
 52 56  2  0  0  0  0
 52102  1  0  0  0  0
 53 55  1  0  0  0  0
 53103  1  0  0  0  0
 54 56  1  0  0  0  0
 54104  1  0  0  0  0
 55105  1  0  0  0  0
 56106  1  0  0  0  0
M  END
> <PUBCHEM_COMPOUND_CID>
510529
> <PUBCHEM_COMPOUND_CANONICALIZED>
1
> <PUBCHEM_CACTVS_COMPLEXITY>
1220
> <PUBCHEM_CACTVS_HBOND_ACCEPTOR>
10
> <PUBCHEM_CACTVS_HBOND_DONOR>
4
> <PUBCHEM_CACTVS_ROTATABLE_BOND>
21
> <PUBCHEM_CACTVS_SUBSKEYS>
AAADcfB//AAAAAAAAAAAAAAAAAAAAWLAAAAwYAAAAAAAAAAB9AAAHgAQAAAADSjhngY3mJfJlACoAyXzfACCgC23EKAJ2YGoXMiKbjrA+TiXMYhs1gPYqWeFwCAOAAAAAAAAAAAAAAAAAAAAAAAAAAAAAA==
> <PUBCHEM_IUPAC_OPENEYE_NAME>
benzyl (2S)-2-[[5-[2-[[4-[[(1S)-1-benzyloxycarbonyl-2-methyl-propyl]carbamoyl]-1H-imidazole-5-carbonyl]-ethyl-amino]ethyl-ethyl-carbamoyl]-1H-imidazole-4-carbonyl]amino]-3-methyl-butanoate
> <PUBCHEM_IUPAC_CAS_NAME>
(2S)-2-[[[5-[[ethyl-[2-[ethyl-[[4-[[[(2S)-3-methyl-1-oxo-1-phenylmethoxybutan-2-yl]amino]-oxomethyl]-1H-imidazol-5-yl]-oxomethyl]amino]ethyl]amino]-oxomethyl]-1H-imidazol-4-yl]-oxomethyl]amino]-3-methylbutanoic acid (phenylmethyl) ester
> <PUBCHEM_IUPAC_NAME_MARKUP>
benzyl (2<I>S</I>)-2-[[5-[ethyl-[2-[ethyl-[4-[[(2<I>S</I>)-3-methyl-1-oxo-1-phenylmethoxybutan-2-yl]carbamoyl]-1<I>H</I>-imidazole-5-carbonyl]amino]ethyl]carbamoyl]-1<I>H</I>-imidazole-4-carbonyl]amino]-3-methylbutanoate
> <PUBCHEM_IUPAC_NAME>
benzyl (2S)-2-[[5-[ethyl-[2-[ethyl-[4-[[(2S)-3-methyl-1-oxo-1-phenylmethoxybutan-2-yl]carbamoyl]-1H-imidazole-5-carbonyl]amino]ethyl]carbamoyl]-1H-imidazole-4-carbonyl]amino]-3-methylbutanoate
> <PUBCHEM_IUPAC_SYSTEMATIC_NAME>
(phenylmethyl) (2S)-2-[[5-[ethyl-[2-[ethyl-[[4-[[(2S)-3-methyl-1-oxidanylidene-1-phenylmethoxy-butan-2-yl]carbamoyl]-1H-imidazol-5-yl]carbonyl]amino]ethyl]carbamoyl]-1H-imidazol-4-yl]carbonylamino]-3-methyl-butanoate
> <PUBCHEM_IUPAC_TRADITIONAL_NAME>
(2S)-2-[[5-[2-[[4-[[(1S)-1-carbobenzoxy-2-methyl-propyl]carbamoyl]-1H-imidazole-5-carbonyl]-ethyl-amino]ethyl-ethyl-carbamoyl]-1H-imidazole-4-carbonyl]amino]-3-methyl-butyric acid benzyl ester
> <PUBCHEM_IUPAC_INCHI>
InChI=1S/C40H50N8O8/c1-7-47(37(51)33-31(41-23-43-33)35(49)45-29(25(3)4)39(53)55-21-27-15-11-9-12-16-27)19-20-48(8-2)38(52)34-32(42-24-44-34)36(50)46-30(26(5)6)40(54)56-22-28-17-13-10-14-18-28/h9-18,23-26,29-30H,7-8,19-22H2,1-6H3,(H,41,43)(H,42,44)(H,45,49)(H,46,50)/t29-,30-/m0/s1
> <PUBCHEM_IUPAC_INCHIKEY>
XWNGELSMLSFIBW-KYJUHHDHSA-N
> <PUBCHEM_XLOGP3_AA>
5
> <PUBCHEM_EXACT_MASS>
770.37516058
> <PUBCHEM_MOLECULAR_FORMULA>
C40H50N8O8
> <PUBCHEM_MOLECULAR_WEIGHT>
770.9
> <PUBCHEM_OPENEYE_CAN_SMILES>
CCN(CCN(CC)C(=O)C1=C(N=CN1)C(=O)NC(C(C)C)C(=O)OCC2=CC=CC=C2)C(=O)C3=C(N=CN3)C(=O)NC(C(C)C)C(=O)OCC4=CC=CC=C4
> <PUBCHEM_OPENEYE_ISO_SMILES>
CCN(CCN(CC)C(=O)C1=C(N=CN1)C(=O)N[C@@H](C(C)C)C(=O)OCC2=CC=CC=C2)C(=O)C3=C(N=CN3)C(=O)N[C@@H](C(C)C)C(=O)OCC4=CC=CC=C4
> <PUBCHEM_CACTVS_TPSA>
209
> <PUBCHEM_MONOISOTOPIC_WEIGHT>
770.37516058
> <PUBCHEM_TOTAL_CHARGE>
0
> <PUBCHEM_HEAVY_ATOM_COUNT>
56
> <PUBCHEM_ATOM_DEF_STEREO_COUNT>
2
> <PUBCHEM_ATOM_UDEF_STEREO_COUNT>
0
> <PUBCHEM_BOND_DEF_STEREO_COUNT>
0
> <PUBCHEM_BOND_UDEF_STEREO_COUNT>
0
> <PUBCHEM_ISOTOPIC_ATOM_COUNT>
0
> <PUBCHEM_COMPONENT_COUNT>
1
> <PUBCHEM_CACTVS_TAUTO_COUNT>
-1
> <PUBCHEM_COORDINATE_TYPE>
1
5
255
> <PUBCHEM_BONDANNOTATIONS>
19  11  5
20  12  5
13  31  8
13  41  8
14  32  8
14  42  8
15  35  8
15  41  8
16  36  8
16  42  8
31  35  8
32  36  8
45  47  8
45  49  8
46  48  8
46  50  8
47  51  8
48  52  8
49  53  8
50  54  8
51  55  8
52  56  8
53  55  8
54  56  8
$$$$
