510532
  -OEChem-10302200282D
 98 99  0     1  0  0  0  0  0999 V2000
    5.3884   -3.7490    0.0000 O   0  0  0  0  0  0  0  0  0  0  0  0
   18.2834    3.7490    0.0000 O   0  0  0  0  0  0  0  0  0  0  0  0
    6.5474   -5.0362    0.0000 O   0  0  0  0  0  0  0  0  0  0  0  0
   17.1245    5.0362    0.0000 O   0  0  0  0  0  0  0  0  0  0  0  0
    8.5689   -2.0506    0.0000 O   0  0  0  0  0  0  0  0  0  0  0  0
   15.1029    2.0506    0.0000 O   0  0  0  0  0  0  0  0  0  0  0  0
    9.6708   -1.2500    0.0000 O   0  0  0  0  0  0  0  0  0  0  0  0
   14.0010    1.2500    0.0000 O   0  0  0  0  0  0  0  0  0  0  0  0
    8.0337   -3.6979    0.0000 N   0  0  0  0  0  0  0  0  0  0  0  0
   15.6382    3.6979    0.0000 N   0  0  0  0  0  0  0  0  0  0  0  0
   10.0369   -4.2888    0.0000 N   0  0  0  0  0  0  0  0  0  0  0  0
   13.6350    4.2888    0.0000 N   0  0  0  0  0  0  0  0  0  0  0  0
   11.3459   -3.3378    0.0000 N   0  0  0  0  0  0  0  0  0  0  0  0
   12.3259    3.3378    0.0000 N   0  0  0  0  0  0  0  0  0  0  0  0
   11.4029   -1.2500    0.0000 N   0  0  0  0  0  0  0  0  0  0  0  0
   12.2689    1.2500    0.0000 N   0  0  0  0  0  0  0  0  0  0  0  0
    6.8747   -2.4107    0.0000 C   0  0  2  0  0  0  0  0  0  0  0  0
   16.7971    2.4107    0.0000 C   0  0  2  0  0  0  0  0  0  0  0  0
    7.0826   -3.3889    0.0000 C   0  0  1  0  0  0  0  0  0  0  0  0
   16.5892    3.3889    0.0000 C   0  0  1  0  0  0  0  0  0  0  0  0
    5.9236   -2.1017    0.0000 C   0  0  0  0  0  0  0  0  0  0  0  0
   17.7482    2.1017    0.0000 C   0  0  0  0  0  0  0  0  0  0  0  0
    7.6178   -1.7416    0.0000 C   0  0  0  0  0  0  0  0  0  0  0  0
   16.0540    1.7416    0.0000 C   0  0  0  0  0  0  0  0  0  0  0  0
    6.3395   -4.0580    0.0000 C   0  0  0  0  0  0  0  0  0  0  0  0
   17.3324    4.0580    0.0000 C   0  0  0  0  0  0  0  0  0  0  0  0
    5.7157   -1.1236    0.0000 C   0  0  0  0  0  0  0  0  0  0  0  0
   17.9561    1.1236    0.0000 C   0  0  0  0  0  0  0  0  0  0  0  0
    8.7768   -3.0288    0.0000 C   0  0  0  0  0  0  0  0  0  0  0  0
   14.8950    3.0288    0.0000 C   0  0  0  0  0  0  0  0  0  0  0  0
    4.6453   -4.4181    0.0000 C   0  0  0  0  0  0  0  0  0  0  0  0
   19.0266    4.4181    0.0000 C   0  0  0  0  0  0  0  0  0  0  0  0
    9.7279   -3.3378    0.0000 C   0  0  0  0  0  0  0  0  0  0  0  0
   13.9440    3.3378    0.0000 C   0  0  0  0  0  0  0  0  0  0  0  0
    3.6942   -4.1091    0.0000 C   0  0  0  0  0  0  0  0  0  0  0  0
   19.9776    4.1091    0.0000 C   0  0  0  0  0  0  0  0  0  0  0  0
   10.5369   -2.7500    0.0000 C   0  0  0  0  0  0  0  0  0  0  0  0
   13.1350    2.7500    0.0000 C   0  0  0  0  0  0  0  0  0  0  0  0
    2.9511   -4.7782    0.0000 C   0  0  0  0  0  0  0  0  0  0  0  0
   20.7208    4.7782    0.0000 C   0  0  0  0  0  0  0  0  0  0  0  0
   10.5369   -1.7500    0.0000 C   0  0  0  0  0  0  0  0  0  0  0  0
   13.1350    1.7500    0.0000 C   0  0  0  0  0  0  0  0  0  0  0  0
   11.4029   -0.2500    0.0000 C   0  0  0  0  0  0  0  0  0  0  0  0
   12.2689    0.2500    0.0000 C   0  0  0  0  0  0  0  0  0  0  0  0
    2.0000   -4.4692    0.0000 C   0  0  0  0  0  0  0  0  0  0  0  0
   21.6718    4.4692    0.0000 C   0  0  0  0  0  0  0  0  0  0  0  0
   11.0369   -4.2888    0.0000 C   0  0  0  0  0  0  0  0  0  0  0  0
   12.6350    4.2888    0.0000 C   0  0  0  0  0  0  0  0  0  0  0  0
    7.4644   -2.6023    0.0000 H   0  0  0  0  0  0  0  0  0  0  0  0
   16.9260    1.8043    0.0000 H   0  0  0  0  0  0  0  0  0  0  0  0
    7.2115   -3.9953    0.0000 H   0  0  0  0  0  0  0  0  0  0  0  0
   16.1285    2.9740    0.0000 H   0  0  0  0  0  0  0  0  0  0  0  0
    5.3040   -2.1234    0.0000 H   0  0  0  0  0  0  0  0  0  0  0  0
    5.8374   -2.7157    0.0000 H   0  0  0  0  0  0  0  0  0  0  0  0
   18.3678    2.1234    0.0000 H   0  0  0  0  0  0  0  0  0  0  0  0
   17.8345    2.7157    0.0000 H   0  0  0  0  0  0  0  0  0  0  0  0
    8.0327   -2.2024    0.0000 H   0  0  0  0  0  0  0  0  0  0  0  0
    8.0786   -1.3267    0.0000 H   0  0  0  0  0  0  0  0  0  0  0  0
    7.2030   -1.2808    0.0000 H   0  0  0  0  0  0  0  0  0  0  0  0
   15.6391    2.2024    0.0000 H   0  0  0  0  0  0  0  0  0  0  0  0
   15.5932    1.3267    0.0000 H   0  0  0  0  0  0  0  0  0  0  0  0
   16.4689    1.2808    0.0000 H   0  0  0  0  0  0  0  0  0  0  0  0
    8.1626   -4.3044    0.0000 H   0  0  0  0  0  0  0  0  0  0  0  0
   15.5093    4.3044    0.0000 H   0  0  0  0  0  0  0  0  0  0  0  0
    6.3222   -0.9947    0.0000 H   0  0  0  0  0  0  0  0  0  0  0  0
    5.5868   -0.5171    0.0000 H   0  0  0  0  0  0  0  0  0  0  0  0
    5.1093   -1.2525    0.0000 H   0  0  0  0  0  0  0  0  0  0  0  0
   17.3497    0.9947    0.0000 H   0  0  0  0  0  0  0  0  0  0  0  0
   18.0850    0.5171    0.0000 H   0  0  0  0  0  0  0  0  0  0  0  0
   18.5626    1.2525    0.0000 H   0  0  0  0  0  0  0  0  0  0  0  0
    4.3542   -4.9656    0.0000 H   0  0  0  0  0  0  0  0  0  0  0  0
    5.1338   -4.7998    0.0000 H   0  0  0  0  0  0  0  0  0  0  0  0
   19.3176    4.9656    0.0000 H   0  0  0  0  0  0  0  0  0  0  0  0
   18.5380    4.7998    0.0000 H   0  0  0  0  0  0  0  0  0  0  0  0
    3.9853   -3.5617    0.0000 H   0  0  0  0  0  0  0  0  0  0  0  0
    3.2056   -3.7274    0.0000 H   0  0  0  0  0  0  0  0  0  0  0  0
   19.6866    3.5617    0.0000 H   0  0  0  0  0  0  0  0  0  0  0  0
   20.4662    3.7274    0.0000 H   0  0  0  0  0  0  0  0  0  0  0  0
    2.6600   -5.3257    0.0000 H   0  0  0  0  0  0  0  0  0  0  0  0
    3.4396   -5.1600    0.0000 H   0  0  0  0  0  0  0  0  0  0  0  0
   21.0119    5.3257    0.0000 H   0  0  0  0  0  0  0  0  0  0  0  0
   20.2322    5.1600    0.0000 H   0  0  0  0  0  0  0  0  0  0  0  0
   11.9356   -3.1462    0.0000 H   0  0  0  0  0  0  0  0  0  0  0  0
   11.7363    3.1462    0.0000 H   0  0  0  0  0  0  0  0  0  0  0  0
   11.1909    0.3326    0.0000 H   0  0  0  0  0  0  0  0  0  0  0  0
   10.7923   -0.3577    0.0000 H   0  0  0  0  0  0  0  0  0  0  0  0
   12.4810   -0.3326    0.0000 H   0  0  0  0  0  0  0  0  0  0  0  0
   12.8795    0.3577    0.0000 H   0  0  0  0  0  0  0  0  0  0  0  0
    2.1916   -3.8796    0.0000 H   0  0  0  0  0  0  0  0  0  0  0  0
    1.4103   -4.2776    0.0000 H   0  0  0  0  0  0  0  0  0  0  0  0
    1.8084   -5.0589    0.0000 H   0  0  0  0  0  0  0  0  0  0  0  0
   21.4802    3.8796    0.0000 H   0  0  0  0  0  0  0  0  0  0  0  0
   22.2615    4.2776    0.0000 H   0  0  0  0  0  0  0  0  0  0  0  0
   21.8634    5.0589    0.0000 H   0  0  0  0  0  0  0  0  0  0  0  0
   11.4013   -4.7904    0.0000 H   0  0  0  0  0  0  0  0  0  0  0  0
   12.2705    4.7904    0.0000 H   0  0  0  0  0  0  0  0  0  0  0  0
   11.9398   -1.5600    0.0000 H   0  0  0  0  0  0  0  0  0  0  0  0
   11.7320    1.5600    0.0000 H   0  0  0  0  0  0  0  0  0  0  0  0
  1 25  1  0  0  0  0
  1 31  1  0  0  0  0
  2 26  1  0  0  0  0
  2 32  1  0  0  0  0
  3 25  2  0  0  0  0
  4 26  2  0  0  0  0
  5 29  2  0  0  0  0
  6 30  2  0  0  0  0
  7 41  2  0  0  0  0
  8 42  2  0  0  0  0
 19  9  1  6  0  0  0
  9 29  1  0  0  0  0
  9 63  1  0  0  0  0
 20 10  1  6  0  0  0
 10 30  1  0  0  0  0
 10 64  1  0  0  0  0
 11 33  1  0  0  0  0
 11 47  2  0  0  0  0
 12 34  1  0  0  0  0
 12 48  2  0  0  0  0
 13 37  1  0  0  0  0
 13 47  1  0  0  0  0
 13 83  1  0  0  0  0
 14 38  1  0  0  0  0
 14 48  1  0  0  0  0
 14 84  1  0  0  0  0
 15 41  1  0  0  0  0
 15 43  1  0  0  0  0
 15 97  1  0  0  0  0
 16 42  1  0  0  0  0
 16 44  1  0  0  0  0
 16 98  1  0  0  0  0
 17 19  1  0  0  0  0
 17 21  1  0  0  0  0
 17 23  1  6  0  0  0
 17 49  1  0  0  0  0
 18 20  1  0  0  0  0
 18 22  1  0  0  0  0
 18 24  1  6  0  0  0
 18 50  1  0  0  0  0
 19 25  1  0  0  0  0
 19 51  1  0  0  0  0
 20 26  1  0  0  0  0
 20 52  1  0  0  0  0
 21 27  1  0  0  0  0
 21 53  1  0  0  0  0
 21 54  1  0  0  0  0
 22 28  1  0  0  0  0
 22 55  1  0  0  0  0
 22 56  1  0  0  0  0
 23 57  1  0  0  0  0
 23 58  1  0  0  0  0
 23 59  1  0  0  0  0
 24 60  1  0  0  0  0
 24 61  1  0  0  0  0
 24 62  1  0  0  0  0
 27 65  1  0  0  0  0
 27 66  1  0  0  0  0
 27 67  1  0  0  0  0
 28 68  1  0  0  0  0
 28 69  1  0  0  0  0
 28 70  1  0  0  0  0
 29 33  1  0  0  0  0
 30 34  1  0  0  0  0
 31 35  1  0  0  0  0
 31 71  1  0  0  0  0
 31 72  1  0  0  0  0
 32 36  1  0  0  0  0
 32 73  1  0  0  0  0
 32 74  1  0  0  0  0
 33 37  2  0  0  0  0
 34 38  2  0  0  0  0
 35 39  1  0  0  0  0
 35 75  1  0  0  0  0
 35 76  1  0  0  0  0
 36 40  1  0  0  0  0
 36 77  1  0  0  0  0
 36 78  1  0  0  0  0
 37 41  1  0  0  0  0
 38 42  1  0  0  0  0
 39 45  1  0  0  0  0
 39 79  1  0  0  0  0
 39 80  1  0  0  0  0
 40 46  1  0  0  0  0
 40 81  1  0  0  0  0
 40 82  1  0  0  0  0
 43 44  1  0  0  0  0
 43 85  1  0  0  0  0
 43 86  1  0  0  0  0
 44 87  1  0  0  0  0
 44 88  1  0  0  0  0
 45 89  1  0  0  0  0
 45 90  1  0  0  0  0
 45 91  1  0  0  0  0
 46 92  1  0  0  0  0
 46 93  1  0  0  0  0
 46 94  1  0  0  0  0
 47 95  1  0  0  0  0
 48 96  1  0  0  0  0
M  END
> <PUBCHEM_COMPOUND_CID>
510532
> <PUBCHEM_COMPOUND_CANONICALIZED>
1
> <PUBCHEM_CACTVS_COMPLEXITY>
997
> <PUBCHEM_CACTVS_HBOND_ACCEPTOR>
10
> <PUBCHEM_CACTVS_HBOND_DONOR>
6
> <PUBCHEM_CACTVS_ROTATABLE_BOND>
23
> <PUBCHEM_CACTVS_SUBSKEYS>
AAADcfB//AAAAAAAAAAAAAAAAAAAAWLAAAAAAAAAAAAAAAAB4AAAHgAQAAAADSjhlgYHmBbJlACoAQXxfACAgC2XEKABWYGoVECCSBpAyCAXAYhMFgLQAWCNAAAKAAAAAAAAAAAAAAAAAAAAAAAAAAAAAA==
> <PUBCHEM_IUPAC_OPENEYE_NAME>
butyl (2S,3S)-2-[[5-[2-[[4-[[(1S,2S)-1-butoxycarbonyl-2-methyl-butyl]carbamoyl]-1H-imidazole-5-carbonyl]amino]ethylcarbamoyl]-1H-imidazole-4-carbonyl]amino]-3-methyl-pentanoate
> <PUBCHEM_IUPAC_CAS_NAME>
(2S,3S)-2-[[[5-[[2-[[[4-[[[(2S,3S)-1-butoxy-3-methyl-1-oxopentan-2-yl]amino]-oxomethyl]-1H-imidazol-5-yl]-oxomethyl]amino]ethylamino]-oxomethyl]-1H-imidazol-4-yl]-oxomethyl]amino]-3-methylpentanoic acid butyl ester
> <PUBCHEM_IUPAC_NAME_MARKUP>
butyl (2<I>S</I>,3<I>S</I>)-2-[[5-[2-[[4-[[(2<I>S</I>,3<I>S</I>)-1-butoxy-3-methyl-1-oxopentan-2-yl]carbamoyl]-1<I>H</I>-imidazole-5-carbonyl]amino]ethylcarbamoyl]-1<I>H</I>-imidazole-4-carbonyl]amino]-3-methylpentanoate
> <PUBCHEM_IUPAC_NAME>
butyl (2S,3S)-2-[[5-[2-[[4-[[(2S,3S)-1-butoxy-3-methyl-1-oxopentan-2-yl]carbamoyl]-1H-imidazole-5-carbonyl]amino]ethylcarbamoyl]-1H-imidazole-4-carbonyl]amino]-3-methylpentanoate
> <PUBCHEM_IUPAC_SYSTEMATIC_NAME>
butyl (2S,3S)-2-[[5-[2-[[4-[[(2S,3S)-1-butoxy-3-methyl-1-oxidanylidene-pentan-2-yl]carbamoyl]-1H-imidazol-5-yl]carbonylamino]ethylcarbamoyl]-1H-imidazol-4-yl]carbonylamino]-3-methyl-pentanoate
> <PUBCHEM_IUPAC_TRADITIONAL_NAME>
(2S,3S)-2-[[5-[2-[[4-[[(1S,2S)-1-butoxycarbonyl-2-methyl-butyl]carbamoyl]-1H-imidazole-5-carbonyl]amino]ethylcarbamoyl]-1H-imidazole-4-carbonyl]amino]-3-methyl-valeric acid butyl ester
> <PUBCHEM_IUPAC_INCHI>
InChI=1S/C32H50N8O8/c1-7-11-15-47-31(45)21(19(5)9-3)39-29(43)25-23(35-17-37-25)27(41)33-13-14-34-28(42)24-26(38-18-36-24)30(44)40-22(20(6)10-4)32(46)48-16-12-8-2/h17-22H,7-16H2,1-6H3,(H,33,41)(H,34,42)(H,35,37)(H,36,38)(H,39,43)(H,40,44)/t19-,20-,21-,22-/m0/s1
> <PUBCHEM_IUPAC_INCHIKEY>
XPLKHPHPQYWGFO-CMOCDZPBSA-N
> <PUBCHEM_XLOGP3_AA>
4.1
> <PUBCHEM_EXACT_MASS>
674.37516058
> <PUBCHEM_MOLECULAR_FORMULA>
C32H50N8O8
> <PUBCHEM_MOLECULAR_WEIGHT>
674.8
> <PUBCHEM_OPENEYE_CAN_SMILES>
CCCCOC(=O)C(C(C)CC)NC(=O)C1=C(NC=N1)C(=O)NCCNC(=O)C2=C(N=CN2)C(=O)NC(C(C)CC)C(=O)OCCCC
> <PUBCHEM_OPENEYE_ISO_SMILES>
CCCCOC(=O)[C@H]([C@@H](C)CC)NC(=O)C1=C(NC=N1)C(=O)NCCNC(=O)C2=C(N=CN2)C(=O)N[C@@H]([C@@H](C)CC)C(=O)OCCCC
> <PUBCHEM_CACTVS_TPSA>
226
> <PUBCHEM_MONOISOTOPIC_WEIGHT>
674.37516058
> <PUBCHEM_TOTAL_CHARGE>
0
> <PUBCHEM_HEAVY_ATOM_COUNT>
48
> <PUBCHEM_ATOM_DEF_STEREO_COUNT>
4
> <PUBCHEM_ATOM_UDEF_STEREO_COUNT>
0
> <PUBCHEM_BOND_DEF_STEREO_COUNT>
0
> <PUBCHEM_BOND_UDEF_STEREO_COUNT>
0
> <PUBCHEM_ISOTOPIC_ATOM_COUNT>
0
> <PUBCHEM_COMPONENT_COUNT>
1
> <PUBCHEM_CACTVS_TAUTO_COUNT>
-1
> <PUBCHEM_COORDINATE_TYPE>
1
5
255
> <PUBCHEM_BONDANNOTATIONS>
20  10  6
11  33  8
11  47  8
12  34  8
12  48  8
13  37  8
13  47  8
14  38  8
14  48  8
17  23  6
18  24  6
33  37  8
34  38  8
19  9  6
$$$$
