510543
  -OEChem-10302200282D
 97100  0     1  0  0  0  0  0999 V2000
   10.3473    5.5114    0.0000 O   0  0  0  0  0  0  0  0  0  0  0  0
    3.7320   -5.0114    0.0000 O   0  0  0  0  0  0  0  0  0  0  0  0
   12.0794    5.5114    0.0000 O   0  0  0  0  0  0  0  0  0  0  0  0
    2.8660   -3.5114    0.0000 O   0  0  0  0  0  0  0  0  0  0  0  0
   11.2133    2.0114    0.0000 O   0  0  0  0  0  0  0  0  0  0  0  0
    6.3301   -2.5114    0.0000 O   0  0  0  0  0  0  0  0  0  0  0  0
   12.5147   -0.6304    0.0000 O   0  0  0  0  0  0  0  0  0  0  0  0
    7.4321   -1.7108    0.0000 O   0  0  0  0  0  0  0  0  0  0  0  0
   12.0794    3.5114    0.0000 N   0  0  0  0  0  0  0  0  0  0  0  0
    4.5981   -2.5114    0.0000 N   0  0  0  0  0  0  0  0  0  0  0  0
   11.3557    0.6567    0.0000 N   0  0  0  0  0  0  0  0  0  0  0  0
    7.9673   -0.0635    0.0000 N   0  0  0  0  0  0  0  0  0  0  0  0
   14.0281    0.8089    0.0000 N   0  0  0  0  0  0  0  0  0  0  0  0
    5.9641    0.5275    0.0000 N   0  0  0  0  0  0  0  0  0  0  0  0
   13.8589    2.4181    0.0000 N   0  0  0  0  0  0  0  0  0  0  0  0
    4.6551   -0.4236    0.0000 N   0  0  0  0  0  0  0  0  0  0  0  0
   10.3473    3.5114    0.0000 C   0  0  0  0  0  0  0  0  0  0  0  0
    5.4641   -4.0114    0.0000 C   0  0  0  0  0  0  0  0  0  0  0  0
   11.2133    4.0114    0.0000 C   0  0  1  0  0  0  0  0  0  0  0  0
    4.5981   -3.5114    0.0000 C   0  0  1  0  0  0  0  0  0  0  0  0
    9.4813    4.0114    0.0000 C   0  0  0  0  0  0  0  0  0  0  0  0
   10.3473    2.5114    0.0000 C   0  0  0  0  0  0  0  0  0  0  0  0
    6.3301   -3.5114    0.0000 C   0  0  0  0  0  0  0  0  0  0  0  0
    5.4641   -5.0114    0.0000 C   0  0  0  0  0  0  0  0  0  0  0  0
   11.2133    5.0114    0.0000 C   0  0  0  0  0  0  0  0  0  0  0  0
    3.7320   -4.0114    0.0000 C   0  0  0  0  0  0  0  0  0  0  0  0
   12.0794    2.5114    0.0000 C   0  0  0  0  0  0  0  0  0  0  0  0
    5.4641   -2.0114    0.0000 C   0  0  0  0  0  0  0  0  0  0  0  0
   12.9454    2.0114    0.0000 C   0  0  0  0  0  0  0  0  0  0  0  0
    5.4641   -1.0114    0.0000 C   0  0  0  0  0  0  0  0  0  0  0  0
    9.6615    0.2966    0.0000 C   0  0  0  0  0  0  0  0  0  0  0  0
   13.0499    1.0169    0.0000 C   0  0  0  0  0  0  0  0  0  0  0  0
    6.2731   -0.4236    0.0000 C   0  0  0  0  0  0  0  0  0  0  0  0
   10.6126   -0.0124    0.0000 C   0  0  0  0  0  0  0  0  0  0  0  0
    8.9184   -0.3725    0.0000 C   0  0  0  0  0  0  0  0  0  0  0  0
   10.3473    6.5114    0.0000 C   0  0  0  0  0  0  0  0  0  0  0  0
    2.8660   -5.5114    0.0000 C   0  0  0  0  0  0  0  0  0  0  0  0
   12.3068    0.3477    0.0000 C   0  0  0  0  0  0  0  0  0  0  0  0
    7.2242   -0.7326    0.0000 C   0  0  0  0  0  0  0  0  0  0  0  0
    9.4813    7.0114    0.0000 C   0  0  0  0  0  0  0  0  0  0  0  0
    2.8660   -6.5114    0.0000 C   0  0  0  0  0  0  0  0  0  0  0  0
   14.5281    1.6750    0.0000 C   0  0  0  0  0  0  0  0  0  0  0  0
    4.9641    0.5275    0.0000 C   0  0  0  0  0  0  0  0  0  0  0  0
    9.4813    8.0114    0.0000 C   0  0  0  0  0  0  0  0  0  0  0  0
    2.0000   -7.0114    0.0000 C   0  0  0  0  0  0  0  0  0  0  0  0
    8.6153    6.5114    0.0000 C   0  0  0  0  0  0  0  0  0  0  0  0
    3.7320   -7.0114    0.0000 C   0  0  0  0  0  0  0  0  0  0  0  0
    8.6153    8.5114    0.0000 C   0  0  0  0  0  0  0  0  0  0  0  0
    2.0000   -8.0114    0.0000 C   0  0  0  0  0  0  0  0  0  0  0  0
    7.7492    7.0114    0.0000 C   0  0  0  0  0  0  0  0  0  0  0  0
    3.7320   -8.0114    0.0000 C   0  0  0  0  0  0  0  0  0  0  0  0
    7.7492    8.0114    0.0000 C   0  0  0  0  0  0  0  0  0  0  0  0
    2.8660   -8.5114    0.0000 C   0  0  0  0  0  0  0  0  0  0  0  0
   10.3473    4.1314    0.0000 H   0  0  0  0  0  0  0  0  0  0  0  0
    5.4641   -3.3914    0.0000 H   0  0  0  0  0  0  0  0  0  0  0  0
   11.2133    3.3914    0.0000 H   0  0  0  0  0  0  0  0  0  0  0  0
    4.0611   -3.2014    0.0000 H   0  0  0  0  0  0  0  0  0  0  0  0
    9.7913    4.5483    0.0000 H   0  0  0  0  0  0  0  0  0  0  0  0
    8.9444    4.3214    0.0000 H   0  0  0  0  0  0  0  0  0  0  0  0
    9.1713    3.4744    0.0000 H   0  0  0  0  0  0  0  0  0  0  0  0
    9.7273    2.5114    0.0000 H   0  0  0  0  0  0  0  0  0  0  0  0
   10.3473    1.8914    0.0000 H   0  0  0  0  0  0  0  0  0  0  0  0
   10.9673    2.5114    0.0000 H   0  0  0  0  0  0  0  0  0  0  0  0
    6.6401   -4.0483    0.0000 H   0  0  0  0  0  0  0  0  0  0  0  0
    6.8671   -3.2014    0.0000 H   0  0  0  0  0  0  0  0  0  0  0  0
    6.0201   -2.9744    0.0000 H   0  0  0  0  0  0  0  0  0  0  0  0
    4.8441   -5.0114    0.0000 H   0  0  0  0  0  0  0  0  0  0  0  0
    5.4641   -5.6314    0.0000 H   0  0  0  0  0  0  0  0  0  0  0  0
    6.0841   -5.0114    0.0000 H   0  0  0  0  0  0  0  0  0  0  0  0
   12.6163    3.8214    0.0000 H   0  0  0  0  0  0  0  0  0  0  0  0
    4.0611   -2.2014    0.0000 H   0  0  0  0  0  0  0  0  0  0  0  0
    9.9526    0.8441    0.0000 H   0  0  0  0  0  0  0  0  0  0  0  0
    9.1730    0.6783    0.0000 H   0  0  0  0  0  0  0  0  0  0  0  0
   10.3215   -0.5598    0.0000 H   0  0  0  0  0  0  0  0  0  0  0  0
   11.1011   -0.3941    0.0000 H   0  0  0  0  0  0  0  0  0  0  0  0
    8.6273   -0.9199    0.0000 H   0  0  0  0  0  0  0  0  0  0  0  0
    9.4069   -0.7542    0.0000 H   0  0  0  0  0  0  0  0  0  0  0  0
   10.9579    6.4037    0.0000 H   0  0  0  0  0  0  0  0  0  0  0  0
   10.5594    7.0940    0.0000 H   0  0  0  0  0  0  0  0  0  0  0  0
    2.6540   -4.9288    0.0000 H   0  0  0  0  0  0  0  0  0  0  0  0
    2.2554   -5.6190    0.0000 H   0  0  0  0  0  0  0  0  0  0  0  0
   11.2268    1.2632    0.0000 H   0  0  0  0  0  0  0  0  0  0  0  0
    7.8384    0.5430    0.0000 H   0  0  0  0  0  0  0  0  0  0  0  0
   14.2802    0.2425    0.0000 H   0  0  0  0  0  0  0  0  0  0  0  0
    6.3285    1.0290    0.0000 H   0  0  0  0  0  0  0  0  0  0  0  0
   15.1447    1.7398    0.0000 H   0  0  0  0  0  0  0  0  0  0  0  0
    4.5997    1.0290    0.0000 H   0  0  0  0  0  0  0  0  0  0  0  0
   10.0182    8.3214    0.0000 H   0  0  0  0  0  0  0  0  0  0  0  0
    1.4631   -6.7014    0.0000 H   0  0  0  0  0  0  0  0  0  0  0  0
    8.6153    5.8914    0.0000 H   0  0  0  0  0  0  0  0  0  0  0  0
    4.2690   -6.7014    0.0000 H   0  0  0  0  0  0  0  0  0  0  0  0
    8.6153    9.1314    0.0000 H   0  0  0  0  0  0  0  0  0  0  0  0
    1.4631   -8.3214    0.0000 H   0  0  0  0  0  0  0  0  0  0  0  0
    7.2123    6.7014    0.0000 H   0  0  0  0  0  0  0  0  0  0  0  0
    4.2690   -8.3214    0.0000 H   0  0  0  0  0  0  0  0  0  0  0  0
    7.2123    8.3214    0.0000 H   0  0  0  0  0  0  0  0  0  0  0  0
    2.8660   -9.1314    0.0000 H   0  0  0  0  0  0  0  0  0  0  0  0
  1 25  1  0  0  0  0
  1 36  1  0  0  0  0
  2 26  1  0  0  0  0
  2 37  1  0  0  0  0
  3 25  2  0  0  0  0
  4 26  2  0  0  0  0
  5 27  2  0  0  0  0
  6 28  2  0  0  0  0
  7 38  2  0  0  0  0
  8 39  2  0  0  0  0
 19  9  1  1  0  0  0
  9 27  1  0  0  0  0
  9 70  1  0  0  0  0
 20 10  1  1  0  0  0
 10 28  1  0  0  0  0
 10 71  1  0  0  0  0
 11 34  1  0  0  0  0
 11 38  1  0  0  0  0
 11 82  1  0  0  0  0
 12 35  1  0  0  0  0
 12 39  1  0  0  0  0
 12 83  1  0  0  0  0
 13 32  1  0  0  0  0
 13 42  1  0  0  0  0
 13 84  1  0  0  0  0
 14 33  1  0  0  0  0
 14 43  1  0  0  0  0
 14 85  1  0  0  0  0
 15 29  1  0  0  0  0
 15 42  2  0  0  0  0
 16 30  1  0  0  0  0
 16 43  2  0  0  0  0
 17 19  1  0  0  0  0
 17 21  1  0  0  0  0
 17 22  1  0  0  0  0
 17 54  1  0  0  0  0
 18 20  1  0  0  0  0
 18 23  1  0  0  0  0
 18 24  1  0  0  0  0
 18 55  1  0  0  0  0
 19 25  1  0  0  0  0
 19 56  1  0  0  0  0
 20 26  1  0  0  0  0
 20 57  1  0  0  0  0
 21 58  1  0  0  0  0
 21 59  1  0  0  0  0
 21 60  1  0  0  0  0
 22 61  1  0  0  0  0
 22 62  1  0  0  0  0
 22 63  1  0  0  0  0
 23 64  1  0  0  0  0
 23 65  1  0  0  0  0
 23 66  1  0  0  0  0
 24 67  1  0  0  0  0
 24 68  1  0  0  0  0
 24 69  1  0  0  0  0
 27 29  1  0  0  0  0
 28 30  1  0  0  0  0
 29 32  2  0  0  0  0
 30 33  2  0  0  0  0
 31 34  1  0  0  0  0
 31 35  1  0  0  0  0
 31 72  1  0  0  0  0
 31 73  1  0  0  0  0
 32 38  1  0  0  0  0
 33 39  1  0  0  0  0
 34 74  1  0  0  0  0
 34 75  1  0  0  0  0
 35 76  1  0  0  0  0
 35 77  1  0  0  0  0
 36 40  1  0  0  0  0
 36 78  1  0  0  0  0
 36 79  1  0  0  0  0
 37 41  1  0  0  0  0
 37 80  1  0  0  0  0
 37 81  1  0  0  0  0
 40 44  2  0  0  0  0
 40 46  1  0  0  0  0
 41 45  2  0  0  0  0
 41 47  1  0  0  0  0
 42 86  1  0  0  0  0
 43 87  1  0  0  0  0
 44 48  1  0  0  0  0
 44 88  1  0  0  0  0
 45 49  1  0  0  0  0
 45 89  1  0  0  0  0
 46 50  2  0  0  0  0
 46 90  1  0  0  0  0
 47 51  2  0  0  0  0
 47 91  1  0  0  0  0
 48 52  2  0  0  0  0
 48 92  1  0  0  0  0
 49 53  2  0  0  0  0
 49 93  1  0  0  0  0
 50 52  1  0  0  0  0
 50 94  1  0  0  0  0
 51 53  1  0  0  0  0
 51 95  1  0  0  0  0
 52 96  1  0  0  0  0
 53 97  1  0  0  0  0
M  END
> <PUBCHEM_COMPOUND_CID>
510543
> <PUBCHEM_COMPOUND_CANONICALIZED>
1
> <PUBCHEM_CACTVS_COMPLEXITY>
1150
> <PUBCHEM_CACTVS_HBOND_ACCEPTOR>
10
> <PUBCHEM_CACTVS_HBOND_DONOR>
6
> <PUBCHEM_CACTVS_ROTATABLE_BOND>
20
> <PUBCHEM_CACTVS_SUBSKEYS>
AAADcfB//AAAAAAAAAAAAAAAAAAAAWLAAAAwYAAAAAAAAAAB9AAAHgAQAAAADSjhngY3mJbJlACoAyXzfACCgC23EKAJ2YGoXMiKbjrA+TiXMYhs1gPYqWeFwCAOAAAAAAAAAAAAAAAAAAAAAAAAAAAAAA==
> <PUBCHEM_IUPAC_OPENEYE_NAME>
benzyl (2S)-2-[[5-[3-[[4-[[(1S)-1-benzyloxycarbonyl-2-methyl-propyl]carbamoyl]-1H-imidazole-5-carbonyl]amino]propylcarbamoyl]-1H-imidazole-4-carbonyl]amino]-3-methyl-butanoate
> <PUBCHEM_IUPAC_CAS_NAME>
(2S)-3-methyl-2-[[[5-[[3-[[[4-[[[(2S)-3-methyl-1-oxo-1-phenylmethoxybutan-2-yl]amino]-oxomethyl]-1H-imidazol-5-yl]-oxomethyl]amino]propylamino]-oxomethyl]-1H-imidazol-4-yl]-oxomethyl]amino]butanoic acid (phenylmethyl) ester
> <PUBCHEM_IUPAC_NAME_MARKUP>
benzyl (2<I>S</I>)-3-methyl-2-[[5-[3-[[4-[[(2<I>S</I>)-3-methyl-1-oxo-1-phenylmethoxybutan-2-yl]carbamoyl]-1<I>H</I>-imidazole-5-carbonyl]amino]propylcarbamoyl]-1<I>H</I>-imidazole-4-carbonyl]amino]butanoate
> <PUBCHEM_IUPAC_NAME>
benzyl (2S)-3-methyl-2-[[5-[3-[[4-[[(2S)-3-methyl-1-oxo-1-phenylmethoxybutan-2-yl]carbamoyl]-1H-imidazole-5-carbonyl]amino]propylcarbamoyl]-1H-imidazole-4-carbonyl]amino]butanoate
> <PUBCHEM_IUPAC_SYSTEMATIC_NAME>
(phenylmethyl) (2S)-3-methyl-2-[[5-[3-[[4-[[(2S)-3-methyl-1-oxidanylidene-1-phenylmethoxy-butan-2-yl]carbamoyl]-1H-imidazol-5-yl]carbonylamino]propylcarbamoyl]-1H-imidazol-4-yl]carbonylamino]butanoate
> <PUBCHEM_IUPAC_TRADITIONAL_NAME>
(2S)-2-[[5-[3-[[4-[[(1S)-1-carbobenzoxy-2-methyl-propyl]carbamoyl]-1H-imidazole-5-carbonyl]amino]propylcarbamoyl]-1H-imidazole-4-carbonyl]amino]-3-methyl-butyric acid benzyl ester
> <PUBCHEM_IUPAC_INCHI>
InChI=1S/C37H44N8O8/c1-22(2)26(36(50)52-18-24-12-7-5-8-13-24)44-34(48)30-28(40-20-42-30)32(46)38-16-11-17-39-33(47)29-31(43-21-41-29)35(49)45-27(23(3)4)37(51)53-19-25-14-9-6-10-15-25/h5-10,12-15,20-23,26-27H,11,16-19H2,1-4H3,(H,38,46)(H,39,47)(H,40,42)(H,41,43)(H,44,48)(H,45,49)/t26-,27-/m0/s1
> <PUBCHEM_IUPAC_INCHIKEY>
WXJHMBZIOLZEJQ-SVBPBHIXSA-N
> <PUBCHEM_XLOGP3_AA>
4.3
> <PUBCHEM_EXACT_MASS>
728.32821039
> <PUBCHEM_MOLECULAR_FORMULA>
C37H44N8O8
> <PUBCHEM_MOLECULAR_WEIGHT>
728.8
> <PUBCHEM_OPENEYE_CAN_SMILES>
CC(C)C(C(=O)OCC1=CC=CC=C1)NC(=O)C2=C(NC=N2)C(=O)NCCCNC(=O)C3=C(N=CN3)C(=O)NC(C(C)C)C(=O)OCC4=CC=CC=C4
> <PUBCHEM_OPENEYE_ISO_SMILES>
CC(C)[C@@H](C(=O)OCC1=CC=CC=C1)NC(=O)C2=C(NC=N2)C(=O)NCCCNC(=O)C3=C(N=CN3)C(=O)N[C@@H](C(C)C)C(=O)OCC4=CC=CC=C4
> <PUBCHEM_CACTVS_TPSA>
226
> <PUBCHEM_MONOISOTOPIC_WEIGHT>
728.32821039
> <PUBCHEM_TOTAL_CHARGE>
0
> <PUBCHEM_HEAVY_ATOM_COUNT>
53
> <PUBCHEM_ATOM_DEF_STEREO_COUNT>
2
> <PUBCHEM_ATOM_UDEF_STEREO_COUNT>
0
> <PUBCHEM_BOND_DEF_STEREO_COUNT>
0
> <PUBCHEM_BOND_UDEF_STEREO_COUNT>
0
> <PUBCHEM_ISOTOPIC_ATOM_COUNT>
0
> <PUBCHEM_COMPONENT_COUNT>
1
> <PUBCHEM_CACTVS_TAUTO_COUNT>
-1
> <PUBCHEM_COORDINATE_TYPE>
1
5
255
> <PUBCHEM_BONDANNOTATIONS>
20  10  5
13  32  8
13  42  8
14  33  8
14  43  8
15  29  8
15  42  8
16  30  8
16  43  8
29  32  8
30  33  8
40  44  8
40  46  8
41  45  8
41  47  8
44  48  8
45  49  8
46  50  8
47  51  8
48  52  8
49  53  8
50  52  8
51  53  8
19  9  5
$$$$
