510541
  -OEChem-10302200282D
101102  0     1  0  0  0  0  0999 V2000
    5.3884   -3.5606    0.0000 O   0  0  0  0  0  0  0  0  0  0  0  0
   17.4404   -0.5208    0.0000 O   0  0  0  0  0  0  0  0  0  0  0  0
    6.5474   -4.8478    0.0000 O   0  0  0  0  0  0  0  0  0  0  0  0
   17.9756    1.1264    0.0000 O   0  0  0  0  0  0  0  0  0  0  0  0
    8.5689   -1.8622    0.0000 O   0  0  0  0  0  0  0  0  0  0  0  0
   14.3793    1.3844    0.0000 O   0  0  0  0  0  0  0  0  0  0  0  0
    9.6708   -1.0616    0.0000 O   0  0  0  0  0  0  0  0  0  0  0  0
   12.2689    3.4384    0.0000 O   0  0  0  0  0  0  0  0  0  0  0  0
    8.0337   -3.5095    0.0000 N   0  0  0  0  0  0  0  0  0  0  0  0
   16.0735    1.7445    0.0000 N   0  0  0  0  0  0  0  0  0  0  0  0
   11.4029   -1.0616    0.0000 N   0  0  0  0  0  0  0  0  0  0  0  0
   13.1350    1.9384    0.0000 N   0  0  0  0  0  0  0  0  0  0  0  0
   11.3459   -3.1494    0.0000 N   0  0  0  0  0  0  0  0  0  0  0  0
   14.1055    4.4329    0.0000 N   0  0  0  0  0  0  0  0  0  0  0  0
   10.0369   -4.1005    0.0000 N   0  0  0  0  0  0  0  0  0  0  0  0
   15.5837    3.7748    0.0000 N   0  0  0  0  0  0  0  0  0  0  0  0
    5.9236   -1.9133    0.0000 C   0  0  0  0  0  0  0  0  0  0  0  0
   15.7462   -0.8809    0.0000 C   0  0  0  0  0  0  0  0  0  0  0  0
    6.8747   -2.2224    0.0000 C   0  0  0  0  0  0  0  0  0  0  0  0
   15.5383    0.0972    0.0000 C   0  0  0  0  0  0  0  0  0  0  0  0
    7.0826   -3.2005    0.0000 C   0  0  1  0  0  0  0  0  0  0  0  0
   16.2814    0.7663    0.0000 C   0  0  1  0  0  0  0  0  0  0  0  0
    5.7157   -0.9352    0.0000 C   0  0  0  0  0  0  0  0  0  0  0  0
    5.1805   -2.5825    0.0000 C   0  0  0  0  0  0  0  0  0  0  0  0
   15.0030   -1.5501    0.0000 C   0  0  0  0  0  0  0  0  0  0  0  0
   16.6972   -1.1900    0.0000 C   0  0  0  0  0  0  0  0  0  0  0  0
    6.3395   -3.8696    0.0000 C   0  0  0  0  0  0  0  0  0  0  0  0
   17.2325    0.4573    0.0000 C   0  0  0  0  0  0  0  0  0  0  0  0
    8.7768   -2.8404    0.0000 C   0  0  0  0  0  0  0  0  0  0  0  0
   15.1224    2.0535    0.0000 C   0  0  0  0  0  0  0  0  0  0  0  0
    4.6453   -4.2297    0.0000 C   0  0  0  0  0  0  0  0  0  0  0  0
   18.3914   -0.8298    0.0000 C   0  0  0  0  0  0  0  0  0  0  0  0
    9.7279   -3.1494    0.0000 C   0  0  0  0  0  0  0  0  0  0  0  0
   14.9145    3.0316    0.0000 C   0  0  0  0  0  0  0  0  0  0  0  0
    3.6942   -3.9207    0.0000 C   0  0  0  0  0  0  0  0  0  0  0  0
   18.5993   -1.8080    0.0000 C   0  0  0  0  0  0  0  0  0  0  0  0
   10.5369   -2.5616    0.0000 C   0  0  0  0  0  0  0  0  0  0  0  0
   14.0010    3.4384    0.0000 C   0  0  0  0  0  0  0  0  0  0  0  0
    2.9511   -4.5898    0.0000 C   0  0  0  0  0  0  0  0  0  0  0  0
   19.5504   -2.1170    0.0000 C   0  0  0  0  0  0  0  0  0  0  0  0
   12.2689    0.4384    0.0000 C   0  0  0  0  0  0  0  0  0  0  0  0
   11.4029   -0.0616    0.0000 C   0  0  0  0  0  0  0  0  0  0  0  0
   12.2689    1.4384    0.0000 C   0  0  0  0  0  0  0  0  0  0  0  0
   10.5369   -1.5616    0.0000 C   0  0  0  0  0  0  0  0  0  0  0  0
   13.1350    2.9384    0.0000 C   0  0  0  0  0  0  0  0  0  0  0  0
   11.0369   -4.1005    0.0000 C   0  0  0  0  0  0  0  0  0  0  0  0
   15.0837    4.6408    0.0000 C   0  0  0  0  0  0  0  0  0  0  0  0
    2.0000   -4.2808    0.0000 C   0  0  0  0  0  0  0  0  0  0  0  0
   19.7583   -3.0952    0.0000 C   0  0  0  0  0  0  0  0  0  0  0  0
    6.3844   -1.4985    0.0000 H   0  0  0  0  0  0  0  0  0  0  0  0
   15.1565   -0.6893    0.0000 H   0  0  0  0  0  0  0  0  0  0  0  0
    7.4943   -2.2007    0.0000 H   0  0  0  0  0  0  0  0  0  0  0  0
    6.9610   -1.6084    0.0000 H   0  0  0  0  0  0  0  0  0  0  0  0
   15.2097    0.6230    0.0000 H   0  0  0  0  0  0  0  0  0  0  0  0
   14.9634   -0.1350    0.0000 H   0  0  0  0  0  0  0  0  0  0  0  0
    7.2115   -3.8069    0.0000 H   0  0  0  0  0  0  0  0  0  0  0  0
   16.7422    1.1812    0.0000 H   0  0  0  0  0  0  0  0  0  0  0  0
    6.3222   -0.8063    0.0000 H   0  0  0  0  0  0  0  0  0  0  0  0
    5.5868   -0.3287    0.0000 H   0  0  0  0  0  0  0  0  0  0  0  0
    5.1093   -1.0641    0.0000 H   0  0  0  0  0  0  0  0  0  0  0  0
    4.7656   -2.1217    0.0000 H   0  0  0  0  0  0  0  0  0  0  0  0
    4.7197   -2.9973    0.0000 H   0  0  0  0  0  0  0  0  0  0  0  0
    5.5954   -3.0432    0.0000 H   0  0  0  0  0  0  0  0  0  0  0  0
   14.5882   -1.0893    0.0000 H   0  0  0  0  0  0  0  0  0  0  0  0
   14.5423   -1.9649    0.0000 H   0  0  0  0  0  0  0  0  0  0  0  0
   15.4179   -2.0108    0.0000 H   0  0  0  0  0  0  0  0  0  0  0  0
   16.5056   -1.7796    0.0000 H   0  0  0  0  0  0  0  0  0  0  0  0
   17.2869   -1.3816    0.0000 H   0  0  0  0  0  0  0  0  0  0  0  0
   16.8888   -0.6003    0.0000 H   0  0  0  0  0  0  0  0  0  0  0  0
    8.1626   -4.1160    0.0000 H   0  0  0  0  0  0  0  0  0  0  0  0
   16.5342    2.1594    0.0000 H   0  0  0  0  0  0  0  0  0  0  0  0
    4.3542   -4.7772    0.0000 H   0  0  0  0  0  0  0  0  0  0  0  0
    5.1338   -4.6114    0.0000 H   0  0  0  0  0  0  0  0  0  0  0  0
   19.0111   -0.8082    0.0000 H   0  0  0  0  0  0  0  0  0  0  0  0
   18.4777   -0.2159    0.0000 H   0  0  0  0  0  0  0  0  0  0  0  0
    3.9853   -3.3733    0.0000 H   0  0  0  0  0  0  0  0  0  0  0  0
    3.2056   -3.5390    0.0000 H   0  0  0  0  0  0  0  0  0  0  0  0
   17.9797   -1.8296    0.0000 H   0  0  0  0  0  0  0  0  0  0  0  0
   18.5131   -2.4220    0.0000 H   0  0  0  0  0  0  0  0  0  0  0  0
    2.6600   -5.1373    0.0000 H   0  0  0  0  0  0  0  0  0  0  0  0
    3.4396   -4.9716    0.0000 H   0  0  0  0  0  0  0  0  0  0  0  0
   20.1700   -2.0954    0.0000 H   0  0  0  0  0  0  0  0  0  0  0  0
   19.6367   -1.5030    0.0000 H   0  0  0  0  0  0  0  0  0  0  0  0
   12.4810   -0.1442    0.0000 H   0  0  0  0  0  0  0  0  0  0  0  0
   12.8795    0.5461    0.0000 H   0  0  0  0  0  0  0  0  0  0  0  0
   11.1909    0.5210    0.0000 H   0  0  0  0  0  0  0  0  0  0  0  0
   10.7923   -0.1693    0.0000 H   0  0  0  0  0  0  0  0  0  0  0  0
   12.0569    2.0210    0.0000 H   0  0  0  0  0  0  0  0  0  0  0  0
   11.6583    1.3307    0.0000 H   0  0  0  0  0  0  0  0  0  0  0  0
   11.9398   -1.3716    0.0000 H   0  0  0  0  0  0  0  0  0  0  0  0
   13.6719    1.6284    0.0000 H   0  0  0  0  0  0  0  0  0  0  0  0
   11.9356   -2.9578    0.0000 H   0  0  0  0  0  0  0  0  0  0  0  0
   13.6448    4.8478    0.0000 H   0  0  0  0  0  0  0  0  0  0  0  0
   11.4013   -4.6020    0.0000 H   0  0  0  0  0  0  0  0  0  0  0  0
   15.3358    5.2072    0.0000 H   0  0  0  0  0  0  0  0  0  0  0  0
    2.1916   -3.6912    0.0000 H   0  0  0  0  0  0  0  0  0  0  0  0
    1.4103   -4.0892    0.0000 H   0  0  0  0  0  0  0  0  0  0  0  0
    1.8084   -4.8705    0.0000 H   0  0  0  0  0  0  0  0  0  0  0  0
   19.1519   -3.2241    0.0000 H   0  0  0  0  0  0  0  0  0  0  0  0
   19.8872   -3.7016    0.0000 H   0  0  0  0  0  0  0  0  0  0  0  0
   20.3648   -2.9662    0.0000 H   0  0  0  0  0  0  0  0  0  0  0  0
  1 27  1  0  0  0  0
  1 31  1  0  0  0  0
  2 28  1  0  0  0  0
  2 32  1  0  0  0  0
  3 27  2  0  0  0  0
  4 28  2  0  0  0  0
  5 29  2  0  0  0  0
  6 30  2  0  0  0  0
  7 44  2  0  0  0  0
  8 45  2  0  0  0  0
 21  9  1  6  0  0  0
  9 29  1  0  0  0  0
  9 70  1  0  0  0  0
 22 10  1  6  0  0  0
 10 30  1  0  0  0  0
 10 71  1  0  0  0  0
 11 42  1  0  0  0  0
 11 44  1  0  0  0  0
 11 90  1  0  0  0  0
 12 43  1  0  0  0  0
 12 45  1  0  0  0  0
 12 91  1  0  0  0  0
 13 37  1  0  0  0  0
 13 46  1  0  0  0  0
 13 92  1  0  0  0  0
 14 38  1  0  0  0  0
 14 47  1  0  0  0  0
 14 93  1  0  0  0  0
 15 33  1  0  0  0  0
 15 46  2  0  0  0  0
 16 34  1  0  0  0  0
 16 47  2  0  0  0  0
 17 19  1  0  0  0  0
 17 23  1  0  0  0  0
 17 24  1  0  0  0  0
 17 50  1  0  0  0  0
 18 20  1  0  0  0  0
 18 25  1  0  0  0  0
 18 26  1  0  0  0  0
 18 51  1  0  0  0  0
 19 21  1  0  0  0  0
 19 52  1  0  0  0  0
 19 53  1  0  0  0  0
 20 22  1  0  0  0  0
 20 54  1  0  0  0  0
 20 55  1  0  0  0  0
 21 27  1  0  0  0  0
 21 56  1  0  0  0  0
 22 28  1  0  0  0  0
 22 57  1  0  0  0  0
 23 58  1  0  0  0  0
 23 59  1  0  0  0  0
 23 60  1  0  0  0  0
 24 61  1  0  0  0  0
 24 62  1  0  0  0  0
 24 63  1  0  0  0  0
 25 64  1  0  0  0  0
 25 65  1  0  0  0  0
 25 66  1  0  0  0  0
 26 67  1  0  0  0  0
 26 68  1  0  0  0  0
 26 69  1  0  0  0  0
 29 33  1  0  0  0  0
 30 34  1  0  0  0  0
 31 35  1  0  0  0  0
 31 72  1  0  0  0  0
 31 73  1  0  0  0  0
 32 36  1  0  0  0  0
 32 74  1  0  0  0  0
 32 75  1  0  0  0  0
 33 37  2  0  0  0  0
 34 38  2  0  0  0  0
 35 39  1  0  0  0  0
 35 76  1  0  0  0  0
 35 77  1  0  0  0  0
 36 40  1  0  0  0  0
 36 78  1  0  0  0  0
 36 79  1  0  0  0  0
 37 44  1  0  0  0  0
 38 45  1  0  0  0  0
 39 48  1  0  0  0  0
 39 80  1  0  0  0  0
 39 81  1  0  0  0  0
 40 49  1  0  0  0  0
 40 82  1  0  0  0  0
 40 83  1  0  0  0  0
 41 42  1  0  0  0  0
 41 43  1  0  0  0  0
 41 84  1  0  0  0  0
 41 85  1  0  0  0  0
 42 86  1  0  0  0  0
 42 87  1  0  0  0  0
 43 88  1  0  0  0  0
 43 89  1  0  0  0  0
 46 94  1  0  0  0  0
 47 95  1  0  0  0  0
 48 96  1  0  0  0  0
 48 97  1  0  0  0  0
 48 98  1  0  0  0  0
 49 99  1  0  0  0  0
 49100  1  0  0  0  0
 49101  1  0  0  0  0
M  END
> <PUBCHEM_COMPOUND_CID>
510541
> <PUBCHEM_COMPOUND_CANONICALIZED>
1
> <PUBCHEM_CACTVS_COMPLEXITY>
1010
> <PUBCHEM_CACTVS_HBOND_ACCEPTOR>
10
> <PUBCHEM_CACTVS_HBOND_DONOR>
6
> <PUBCHEM_CACTVS_ROTATABLE_BOND>
24
> <PUBCHEM_CACTVS_SUBSKEYS>
AAADcfB//AAAAAAAAAAAAAAAAAAAAWLAAAAAAAAAAAAAAAAB4AAAHgAQAAAADSjhlgYHmBbJlACoAQXxfACAgC2XEKABWYGoVECCSBpAyCAXAYhMFgLQAWCNAAAMAAAAAAAAAAAAAAAAAAAAAAAAAAAAAA==
> <PUBCHEM_IUPAC_OPENEYE_NAME>
butyl (2S)-2-[[5-[3-[[4-[[(1S)-1-butoxycarbonyl-3-methyl-butyl]carbamoyl]-1H-imidazole-5-carbonyl]amino]propylcarbamoyl]-1H-imidazole-4-carbonyl]amino]-4-methyl-pentanoate
> <PUBCHEM_IUPAC_CAS_NAME>
(2S)-2-[[[5-[[3-[[[4-[[[(2S)-1-butoxy-4-methyl-1-oxopentan-2-yl]amino]-oxomethyl]-1H-imidazol-5-yl]-oxomethyl]amino]propylamino]-oxomethyl]-1H-imidazol-4-yl]-oxomethyl]amino]-4-methylpentanoic acid butyl ester
> <PUBCHEM_IUPAC_NAME_MARKUP>
butyl (2<I>S</I>)-2-[[5-[3-[[4-[[(2<I>S</I>)-1-butoxy-4-methyl-1-oxopentan-2-yl]carbamoyl]-1<I>H</I>-imidazole-5-carbonyl]amino]propylcarbamoyl]-1<I>H</I>-imidazole-4-carbonyl]amino]-4-methylpentanoate
> <PUBCHEM_IUPAC_NAME>
butyl (2S)-2-[[5-[3-[[4-[[(2S)-1-butoxy-4-methyl-1-oxopentan-2-yl]carbamoyl]-1H-imidazole-5-carbonyl]amino]propylcarbamoyl]-1H-imidazole-4-carbonyl]amino]-4-methylpentanoate
> <PUBCHEM_IUPAC_SYSTEMATIC_NAME>
butyl (2S)-2-[[5-[3-[[4-[[(2S)-1-butoxy-4-methyl-1-oxidanylidene-pentan-2-yl]carbamoyl]-1H-imidazol-5-yl]carbonylamino]propylcarbamoyl]-1H-imidazol-4-yl]carbonylamino]-4-methyl-pentanoate
> <PUBCHEM_IUPAC_TRADITIONAL_NAME>
(2S)-2-[[5-[3-[[4-[[(1S)-1-butoxycarbonyl-3-methyl-butyl]carbamoyl]-1H-imidazole-5-carbonyl]amino]propylcarbamoyl]-1H-imidazole-4-carbonyl]amino]-4-methyl-valeric acid butyl ester
> <PUBCHEM_IUPAC_INCHI>
InChI=1S/C33H52N8O8/c1-7-9-14-48-32(46)22(16-20(3)4)40-30(44)26-24(36-18-38-26)28(42)34-12-11-13-35-29(43)25-27(39-19-37-25)31(45)41-23(17-21(5)6)33(47)49-15-10-8-2/h18-23H,7-17H2,1-6H3,(H,34,42)(H,35,43)(H,36,38)(H,37,39)(H,40,44)(H,41,45)/t22-,23-/m0/s1
> <PUBCHEM_IUPAC_INCHIKEY>
FHEYTSCYEJIEKI-GOTSBHOMSA-N
> <PUBCHEM_XLOGP3_AA>
4.5
> <PUBCHEM_EXACT_MASS>
688.39081065
> <PUBCHEM_MOLECULAR_FORMULA>
C33H52N8O8
> <PUBCHEM_MOLECULAR_WEIGHT>
688.8
> <PUBCHEM_OPENEYE_CAN_SMILES>
CCCCOC(=O)C(CC(C)C)NC(=O)C1=C(NC=N1)C(=O)NCCCNC(=O)C2=C(N=CN2)C(=O)NC(CC(C)C)C(=O)OCCCC
> <PUBCHEM_OPENEYE_ISO_SMILES>
CCCCOC(=O)[C@H](CC(C)C)NC(=O)C1=C(NC=N1)C(=O)NCCCNC(=O)C2=C(N=CN2)C(=O)N[C@@H](CC(C)C)C(=O)OCCCC
> <PUBCHEM_CACTVS_TPSA>
226
> <PUBCHEM_MONOISOTOPIC_WEIGHT>
688.39081065
> <PUBCHEM_TOTAL_CHARGE>
0
> <PUBCHEM_HEAVY_ATOM_COUNT>
49
> <PUBCHEM_ATOM_DEF_STEREO_COUNT>
2
> <PUBCHEM_ATOM_UDEF_STEREO_COUNT>
0
> <PUBCHEM_BOND_DEF_STEREO_COUNT>
0
> <PUBCHEM_BOND_UDEF_STEREO_COUNT>
0
> <PUBCHEM_ISOTOPIC_ATOM_COUNT>
0
> <PUBCHEM_COMPONENT_COUNT>
1
> <PUBCHEM_CACTVS_TAUTO_COUNT>
-1
> <PUBCHEM_COORDINATE_TYPE>
1
5
255
> <PUBCHEM_BONDANNOTATIONS>
22  10  6
13  37  8
13  46  8
14  38  8
14  47  8
15  33  8
15  46  8
16  34  8
16  47  8
33  37  8
34  38  8
21  9  6
$$$$
