510528
  -OEChem-10302200282D
104105  0     1  0  0  0  0  0999 V2000
    5.3884   -3.7490    0.0000 O   0  0  0  0  0  0  0  0  0  0  0  0
   18.2834    3.7490    0.0000 O   0  0  0  0  0  0  0  0  0  0  0  0
    6.5474   -5.0362    0.0000 O   0  0  0  0  0  0  0  0  0  0  0  0
   17.1245    5.0362    0.0000 O   0  0  0  0  0  0  0  0  0  0  0  0
    9.6708   -1.2500    0.0000 O   0  0  0  0  0  0  0  0  0  0  0  0
   14.0010    1.2500    0.0000 O   0  0  0  0  0  0  0  0  0  0  0  0
    8.5689   -2.0506    0.0000 O   0  0  0  0  0  0  0  0  0  0  0  0
   15.1029    2.0506    0.0000 O   0  0  0  0  0  0  0  0  0  0  0  0
   11.4029   -1.2500    0.0000 N   0  0  0  0  0  0  0  0  0  0  0  0
   12.2689    1.2500    0.0000 N   0  0  0  0  0  0  0  0  0  0  0  0
    8.0337   -3.6979    0.0000 N   0  0  0  0  0  0  0  0  0  0  0  0
   15.6382    3.6979    0.0000 N   0  0  0  0  0  0  0  0  0  0  0  0
   11.3459   -3.3378    0.0000 N   0  0  0  0  0  0  0  0  0  0  0  0
   12.3259    3.3378    0.0000 N   0  0  0  0  0  0  0  0  0  0  0  0
   10.0369   -4.2888    0.0000 N   0  0  0  0  0  0  0  0  0  0  0  0
   13.6350    4.2888    0.0000 N   0  0  0  0  0  0  0  0  0  0  0  0
    6.8747   -2.4107    0.0000 C   0  0  0  0  0  0  0  0  0  0  0  0
   16.7971    2.4107    0.0000 C   0  0  0  0  0  0  0  0  0  0  0  0
    7.0826   -3.3889    0.0000 C   0  0  1  0  0  0  0  0  0  0  0  0
   16.5892    3.3889    0.0000 C   0  0  1  0  0  0  0  0  0  0  0  0
   11.4029   -0.2500    0.0000 C   0  0  0  0  0  0  0  0  0  0  0  0
   12.2689    0.2500    0.0000 C   0  0  0  0  0  0  0  0  0  0  0  0
    5.9236   -2.1017    0.0000 C   0  0  0  0  0  0  0  0  0  0  0  0
    7.6178   -1.7416    0.0000 C   0  0  0  0  0  0  0  0  0  0  0  0
   17.7482    2.1017    0.0000 C   0  0  0  0  0  0  0  0  0  0  0  0
   16.0540    1.7416    0.0000 C   0  0  0  0  0  0  0  0  0  0  0  0
   12.2689   -1.7500    0.0000 C   0  0  0  0  0  0  0  0  0  0  0  0
   11.4029    1.7500    0.0000 C   0  0  0  0  0  0  0  0  0  0  0  0
    6.3395   -4.0580    0.0000 C   0  0  0  0  0  0  0  0  0  0  0  0
   17.3324    4.0580    0.0000 C   0  0  0  0  0  0  0  0  0  0  0  0
   10.5369   -1.7500    0.0000 C   0  0  0  0  0  0  0  0  0  0  0  0
   13.1350    1.7500    0.0000 C   0  0  0  0  0  0  0  0  0  0  0  0
   10.5369   -2.7500    0.0000 C   0  0  0  0  0  0  0  0  0  0  0  0
   13.1350    2.7500    0.0000 C   0  0  0  0  0  0  0  0  0  0  0  0
    8.7768   -3.0288    0.0000 C   0  0  0  0  0  0  0  0  0  0  0  0
   14.8950    3.0288    0.0000 C   0  0  0  0  0  0  0  0  0  0  0  0
    9.7279   -3.3378    0.0000 C   0  0  0  0  0  0  0  0  0  0  0  0
   13.9440    3.3378    0.0000 C   0  0  0  0  0  0  0  0  0  0  0  0
   13.1350   -1.2500    0.0000 C   0  0  0  0  0  0  0  0  0  0  0  0
   10.5369    1.2500    0.0000 C   0  0  0  0  0  0  0  0  0  0  0  0
    4.6453   -4.4181    0.0000 C   0  0  0  0  0  0  0  0  0  0  0  0
   19.0266    4.4181    0.0000 C   0  0  0  0  0  0  0  0  0  0  0  0
    3.6942   -4.1091    0.0000 C   0  0  0  0  0  0  0  0  0  0  0  0
   19.9776    4.1091    0.0000 C   0  0  0  0  0  0  0  0  0  0  0  0
   11.0369   -4.2888    0.0000 C   0  0  0  0  0  0  0  0  0  0  0  0
   12.6350    4.2888    0.0000 C   0  0  0  0  0  0  0  0  0  0  0  0
    2.9511   -4.7782    0.0000 C   0  0  0  0  0  0  0  0  0  0  0  0
   20.7208    4.7782    0.0000 C   0  0  0  0  0  0  0  0  0  0  0  0
    2.0000   -4.4692    0.0000 C   0  0  0  0  0  0  0  0  0  0  0  0
   21.6718    4.4692    0.0000 C   0  0  0  0  0  0  0  0  0  0  0  0
    7.4644   -2.6023    0.0000 H   0  0  0  0  0  0  0  0  0  0  0  0
   17.2579    2.8256    0.0000 H   0  0  0  0  0  0  0  0  0  0  0  0
    7.2115   -3.9953    0.0000 H   0  0  0  0  0  0  0  0  0  0  0  0
   16.1285    2.9740    0.0000 H   0  0  0  0  0  0  0  0  0  0  0  0
   11.1909    0.3326    0.0000 H   0  0  0  0  0  0  0  0  0  0  0  0
   10.7923   -0.3577    0.0000 H   0  0  0  0  0  0  0  0  0  0  0  0
   12.4810   -0.3326    0.0000 H   0  0  0  0  0  0  0  0  0  0  0  0
   12.8795    0.3577    0.0000 H   0  0  0  0  0  0  0  0  0  0  0  0
    6.1152   -1.5121    0.0000 H   0  0  0  0  0  0  0  0  0  0  0  0
    5.3340   -1.9101    0.0000 H   0  0  0  0  0  0  0  0  0  0  0  0
    5.7320   -2.6914    0.0000 H   0  0  0  0  0  0  0  0  0  0  0  0
    8.0327   -2.2024    0.0000 H   0  0  0  0  0  0  0  0  0  0  0  0
    8.0786   -1.3267    0.0000 H   0  0  0  0  0  0  0  0  0  0  0  0
    7.2030   -1.2808    0.0000 H   0  0  0  0  0  0  0  0  0  0  0  0
   17.5566    1.5121    0.0000 H   0  0  0  0  0  0  0  0  0  0  0  0
   18.3379    1.9101    0.0000 H   0  0  0  0  0  0  0  0  0  0  0  0
   17.9398    2.6914    0.0000 H   0  0  0  0  0  0  0  0  0  0  0  0
   15.6391    2.2024    0.0000 H   0  0  0  0  0  0  0  0  0  0  0  0
   15.5932    1.3267    0.0000 H   0  0  0  0  0  0  0  0  0  0  0  0
   16.4689    1.2808    0.0000 H   0  0  0  0  0  0  0  0  0  0  0  0
    8.1626   -4.3044    0.0000 H   0  0  0  0  0  0  0  0  0  0  0  0
   15.5093    4.3044    0.0000 H   0  0  0  0  0  0  0  0  0  0  0  0
   11.8704   -2.2250    0.0000 H   0  0  0  0  0  0  0  0  0  0  0  0
   12.6675   -2.2250    0.0000 H   0  0  0  0  0  0  0  0  0  0  0  0
   11.8014    2.2250    0.0000 H   0  0  0  0  0  0  0  0  0  0  0  0
   11.0044    2.2250    0.0000 H   0  0  0  0  0  0  0  0  0  0  0  0
   13.4450   -1.7869    0.0000 H   0  0  0  0  0  0  0  0  0  0  0  0
   13.6719   -0.9400    0.0000 H   0  0  0  0  0  0  0  0  0  0  0  0
   12.8250   -0.7131    0.0000 H   0  0  0  0  0  0  0  0  0  0  0  0
   10.2269    1.7869    0.0000 H   0  0  0  0  0  0  0  0  0  0  0  0
    9.9999    0.9400    0.0000 H   0  0  0  0  0  0  0  0  0  0  0  0
   10.8469    0.7131    0.0000 H   0  0  0  0  0  0  0  0  0  0  0  0
   11.9356   -3.1462    0.0000 H   0  0  0  0  0  0  0  0  0  0  0  0
   11.7363    3.1462    0.0000 H   0  0  0  0  0  0  0  0  0  0  0  0
    4.3542   -4.9656    0.0000 H   0  0  0  0  0  0  0  0  0  0  0  0
    5.1338   -4.7998    0.0000 H   0  0  0  0  0  0  0  0  0  0  0  0
   19.3176    4.9656    0.0000 H   0  0  0  0  0  0  0  0  0  0  0  0
   18.5380    4.7998    0.0000 H   0  0  0  0  0  0  0  0  0  0  0  0
    3.9853   -3.5617    0.0000 H   0  0  0  0  0  0  0  0  0  0  0  0
    3.2056   -3.7274    0.0000 H   0  0  0  0  0  0  0  0  0  0  0  0
   19.6866    3.5617    0.0000 H   0  0  0  0  0  0  0  0  0  0  0  0
   20.4662    3.7274    0.0000 H   0  0  0  0  0  0  0  0  0  0  0  0
   11.4013   -4.7904    0.0000 H   0  0  0  0  0  0  0  0  0  0  0  0
   12.2705    4.7904    0.0000 H   0  0  0  0  0  0  0  0  0  0  0  0
    2.6600   -5.3257    0.0000 H   0  0  0  0  0  0  0  0  0  0  0  0
    3.4396   -5.1600    0.0000 H   0  0  0  0  0  0  0  0  0  0  0  0
   21.0119    5.3257    0.0000 H   0  0  0  0  0  0  0  0  0  0  0  0
   20.2322    5.1600    0.0000 H   0  0  0  0  0  0  0  0  0  0  0  0
    2.1916   -3.8796    0.0000 H   0  0  0  0  0  0  0  0  0  0  0  0
    1.4103   -4.2776    0.0000 H   0  0  0  0  0  0  0  0  0  0  0  0
    1.8084   -5.0589    0.0000 H   0  0  0  0  0  0  0  0  0  0  0  0
   21.4802    3.8796    0.0000 H   0  0  0  0  0  0  0  0  0  0  0  0
   22.2615    4.2776    0.0000 H   0  0  0  0  0  0  0  0  0  0  0  0
   21.8634    5.0589    0.0000 H   0  0  0  0  0  0  0  0  0  0  0  0
  1 29  1  0  0  0  0
  1 41  1  0  0  0  0
  2 30  1  0  0  0  0
  2 42  1  0  0  0  0
  3 29  2  0  0  0  0
  4 30  2  0  0  0  0
  5 31  2  0  0  0  0
  6 32  2  0  0  0  0
  7 35  2  0  0  0  0
  8 36  2  0  0  0  0
  9 21  1  0  0  0  0
  9 27  1  0  0  0  0
  9 31  1  0  0  0  0
 10 22  1  0  0  0  0
 10 28  1  0  0  0  0
 10 32  1  0  0  0  0
 19 11  1  6  0  0  0
 11 35  1  0  0  0  0
 11 71  1  0  0  0  0
 20 12  1  6  0  0  0
 12 36  1  0  0  0  0
 12 72  1  0  0  0  0
 13 33  1  0  0  0  0
 13 45  1  0  0  0  0
 13 83  1  0  0  0  0
 14 34  1  0  0  0  0
 14 46  1  0  0  0  0
 14 84  1  0  0  0  0
 15 37  1  0  0  0  0
 15 45  2  0  0  0  0
 16 38  1  0  0  0  0
 16 46  2  0  0  0  0
 17 19  1  0  0  0  0
 17 23  1  0  0  0  0
 17 24  1  0  0  0  0
 17 51  1  0  0  0  0
 18 20  1  0  0  0  0
 18 25  1  0  0  0  0
 18 26  1  0  0  0  0
 18 52  1  0  0  0  0
 19 29  1  0  0  0  0
 19 53  1  0  0  0  0
 20 30  1  0  0  0  0
 20 54  1  0  0  0  0
 21 22  1  0  0  0  0
 21 55  1  0  0  0  0
 21 56  1  0  0  0  0
 22 57  1  0  0  0  0
 22 58  1  0  0  0  0
 23 59  1  0  0  0  0
 23 60  1  0  0  0  0
 23 61  1  0  0  0  0
 24 62  1  0  0  0  0
 24 63  1  0  0  0  0
 24 64  1  0  0  0  0
 25 65  1  0  0  0  0
 25 66  1  0  0  0  0
 25 67  1  0  0  0  0
 26 68  1  0  0  0  0
 26 69  1  0  0  0  0
 26 70  1  0  0  0  0
 27 39  1  0  0  0  0
 27 73  1  0  0  0  0
 27 74  1  0  0  0  0
 28 40  1  0  0  0  0
 28 75  1  0  0  0  0
 28 76  1  0  0  0  0
 31 33  1  0  0  0  0
 32 34  1  0  0  0  0
 33 37  2  0  0  0  0
 34 38  2  0  0  0  0
 35 37  1  0  0  0  0
 36 38  1  0  0  0  0
 39 77  1  0  0  0  0
 39 78  1  0  0  0  0
 39 79  1  0  0  0  0
 40 80  1  0  0  0  0
 40 81  1  0  0  0  0
 40 82  1  0  0  0  0
 41 43  1  0  0  0  0
 41 85  1  0  0  0  0
 41 86  1  0  0  0  0
 42 44  1  0  0  0  0
 42 87  1  0  0  0  0
 42 88  1  0  0  0  0
 43 47  1  0  0  0  0
 43 89  1  0  0  0  0
 43 90  1  0  0  0  0
 44 48  1  0  0  0  0
 44 91  1  0  0  0  0
 44 92  1  0  0  0  0
 45 93  1  0  0  0  0
 46 94  1  0  0  0  0
 47 49  1  0  0  0  0
 47 95  1  0  0  0  0
 47 96  1  0  0  0  0
 48 50  1  0  0  0  0
 48 97  1  0  0  0  0
 48 98  1  0  0  0  0
 49 99  1  0  0  0  0
 49100  1  0  0  0  0
 49101  1  0  0  0  0
 50102  1  0  0  0  0
 50103  1  0  0  0  0
 50104  1  0  0  0  0
M  END
> <PUBCHEM_COMPOUND_CID>
510528
> <PUBCHEM_COMPOUND_CANONICALIZED>
1
> <PUBCHEM_CACTVS_COMPLEXITY>
1050
> <PUBCHEM_CACTVS_HBOND_ACCEPTOR>
10
> <PUBCHEM_CACTVS_HBOND_DONOR>
4
> <PUBCHEM_CACTVS_ROTATABLE_BOND>
23
> <PUBCHEM_CACTVS_SUBSKEYS>
AAADcfB//AAAAAAAAAAAAAAAAAAAAWLAAAAAAAAAAAAAAAAB4AAAHgAQAAAADSjhlgYHmBfJlACoAQXxfACAgC2XEKABWYGoVECCSBhAyCAXAYhMFgLQAWAFAAAIAAAAAAAAAAAAAAAAAAAAAAAAAAAAAA==
> <PUBCHEM_IUPAC_OPENEYE_NAME>
butyl (2S)-2-[[5-[2-[[4-[[(1S)-1-butoxycarbonyl-2-methyl-propyl]carbamoyl]-1H-imidazole-5-carbonyl]-ethyl-amino]ethyl-ethyl-carbamoyl]-1H-imidazole-4-carbonyl]amino]-3-methyl-butanoate
> <PUBCHEM_IUPAC_CAS_NAME>
(2S)-2-[[[5-[[2-[[[4-[[[(2S)-1-butoxy-3-methyl-1-oxobutan-2-yl]amino]-oxomethyl]-1H-imidazol-5-yl]-oxomethyl]-ethylamino]ethyl-ethylamino]-oxomethyl]-1H-imidazol-4-yl]-oxomethyl]amino]-3-methylbutanoic acid butyl ester
> <PUBCHEM_IUPAC_NAME_MARKUP>
butyl (2<I>S</I>)-2-[[5-[2-[[4-[[(2<I>S</I>)-1-butoxy-3-methyl-1-oxobutan-2-yl]carbamoyl]-1<I>H</I>-imidazole-5-carbonyl]-ethylamino]ethyl-ethylcarbamoyl]-1<I>H</I>-imidazole-4-carbonyl]amino]-3-methylbutanoate
> <PUBCHEM_IUPAC_NAME>
butyl (2S)-2-[[5-[2-[[4-[[(2S)-1-butoxy-3-methyl-1-oxobutan-2-yl]carbamoyl]-1H-imidazole-5-carbonyl]-ethylamino]ethyl-ethylcarbamoyl]-1H-imidazole-4-carbonyl]amino]-3-methylbutanoate
> <PUBCHEM_IUPAC_SYSTEMATIC_NAME>
butyl (2S)-2-[[5-[2-[[4-[[(2S)-1-butoxy-3-methyl-1-oxidanylidene-butan-2-yl]carbamoyl]-1H-imidazol-5-yl]carbonyl-ethyl-amino]ethyl-ethyl-carbamoyl]-1H-imidazol-4-yl]carbonylamino]-3-methyl-butanoate
> <PUBCHEM_IUPAC_TRADITIONAL_NAME>
(2S)-2-[[5-[2-[[4-[[(1S)-1-butoxycarbonyl-2-methyl-propyl]carbamoyl]-1H-imidazole-5-carbonyl]-ethyl-amino]ethyl-ethyl-carbamoyl]-1H-imidazole-4-carbonyl]amino]-3-methyl-butyric acid butyl ester
> <PUBCHEM_IUPAC_INCHI>
InChI=1S/C34H54N8O8/c1-9-13-17-49-33(47)23(21(5)6)39-29(43)25-27(37-19-35-25)31(45)41(11-3)15-16-42(12-4)32(46)28-26(36-20-38-28)30(44)40-24(22(7)8)34(48)50-18-14-10-2/h19-24H,9-18H2,1-8H3,(H,35,37)(H,36,38)(H,39,43)(H,40,44)/t23-,24-/m0/s1
> <PUBCHEM_IUPAC_INCHIKEY>
WVJHCMIIZHDAKB-ZEQRLZLVSA-N
> <PUBCHEM_XLOGP3_AA>
4.5
> <PUBCHEM_EXACT_MASS>
702.40646071
> <PUBCHEM_MOLECULAR_FORMULA>
C34H54N8O8
> <PUBCHEM_MOLECULAR_WEIGHT>
702.8
> <PUBCHEM_OPENEYE_CAN_SMILES>
CCCCOC(=O)C(C(C)C)NC(=O)C1=C(NC=N1)C(=O)N(CC)CCN(CC)C(=O)C2=C(N=CN2)C(=O)NC(C(C)C)C(=O)OCCCC
> <PUBCHEM_OPENEYE_ISO_SMILES>
CCCCOC(=O)[C@H](C(C)C)NC(=O)C1=C(NC=N1)C(=O)N(CC)CCN(CC)C(=O)C2=C(N=CN2)C(=O)N[C@@H](C(C)C)C(=O)OCCCC
> <PUBCHEM_CACTVS_TPSA>
209
> <PUBCHEM_MONOISOTOPIC_WEIGHT>
702.40646071
> <PUBCHEM_TOTAL_CHARGE>
0
> <PUBCHEM_HEAVY_ATOM_COUNT>
50
> <PUBCHEM_ATOM_DEF_STEREO_COUNT>
2
> <PUBCHEM_ATOM_UDEF_STEREO_COUNT>
0
> <PUBCHEM_BOND_DEF_STEREO_COUNT>
0
> <PUBCHEM_BOND_UDEF_STEREO_COUNT>
0
> <PUBCHEM_ISOTOPIC_ATOM_COUNT>
0
> <PUBCHEM_COMPONENT_COUNT>
1
> <PUBCHEM_CACTVS_TAUTO_COUNT>
-1
> <PUBCHEM_COORDINATE_TYPE>
1
5
255
> <PUBCHEM_BONDANNOTATIONS>
19  11  6
20  12  6
13  33  8
13  45  8
14  34  8
14  46  8
15  37  8
15  45  8
16  38  8
16  46  8
33  37  8
34  38  8
$$$$
