510588
  -OEChem-10302200282D
 33 35  0     1  0  0  0  0  0999 V2000
    4.6783   -2.4607    0.0000 S   0  0  0  0  0  0  0  0  0  0  0  0
    5.4883   -3.0471    0.0000 O   0  0  0  0  0  0  0  0  0  0  0  0
    4.3709   -3.4123    0.0000 O   0  0  0  0  0  0  0  0  0  0  0  0
    5.2619   -1.6560    0.0000 N   0  0  3  0  0  0  0  0  0  0  0  0
    5.9209    2.9508    0.0000 N   0  0  0  0  0  0  0  0  0  0  0  0
    4.6783   -0.8512    0.0000 C   0  0  3  0  0  0  0  0  0  0  0  0
    3.7320   -1.1560    0.0000 C   0  0  0  0  0  0  0  0  0  0  0  0
    3.7320   -2.1560    0.0000 C   0  0  0  0  0  0  0  0  0  0  0  0
    4.9889    0.0993    0.0000 C   0  0  0  0  0  0  0  0  0  0  0  0
    6.2619   -1.6560    0.0000 C   0  0  0  0  0  0  0  0  0  0  0  0
    2.8660   -0.6560    0.0000 C   0  0  0  0  0  0  0  0  0  0  0  0
    2.8660   -2.6560    0.0000 C   0  0  0  0  0  0  0  0  0  0  0  0
    5.9674    0.3055    0.0000 C   0  0  0  0  0  0  0  0  0  0  0  0
    4.3211    0.8436    0.0000 C   0  0  0  0  0  0  0  0  0  0  0  0
    2.0000   -1.1560    0.0000 C   0  0  0  0  0  0  0  0  0  0  0  0
    2.0000   -2.1560    0.0000 C   0  0  0  0  0  0  0  0  0  0  0  0
    6.2781    1.2560    0.0000 C   0  0  0  0  0  0  0  0  0  0  0  0
    4.6318    1.7941    0.0000 C   0  0  0  0  0  0  0  0  0  0  0  0
    5.6103    2.0003    0.0000 C   0  0  0  0  0  0  0  0  0  0  0  0
    5.2908   -0.7551    0.0000 H   0  0  0  0  0  0  0  0  0  0  0  0
    6.2619   -2.2760    0.0000 H   0  0  0  0  0  0  0  0  0  0  0  0
    6.8819   -1.6560    0.0000 H   0  0  0  0  0  0  0  0  0  0  0  0
    6.2619   -1.0360    0.0000 H   0  0  0  0  0  0  0  0  0  0  0  0
    2.8660   -0.0360    0.0000 H   0  0  0  0  0  0  0  0  0  0  0  0
    2.8660   -3.2760    0.0000 H   0  0  0  0  0  0  0  0  0  0  0  0
    6.3815   -0.1560    0.0000 H   0  0  0  0  0  0  0  0  0  0  0  0
    3.7144    0.7157    0.0000 H   0  0  0  0  0  0  0  0  0  0  0  0
    1.4631   -0.8460    0.0000 H   0  0  0  0  0  0  0  0  0  0  0  0
    1.4631   -2.4660    0.0000 H   0  0  0  0  0  0  0  0  0  0  0  0
    6.8848    1.3839    0.0000 H   0  0  0  0  0  0  0  0  0  0  0  0
    4.2177    2.2556    0.0000 H   0  0  0  0  0  0  0  0  0  0  0  0
    6.5276    3.0787    0.0000 H   0  0  0  0  0  0  0  0  0  0  0  0
    5.5069    3.4123    0.0000 H   0  0  0  0  0  0  0  0  0  0  0  0
  1  2  2  0  0  0  0
  1  3  2  0  0  0  0
  1  4  1  0  0  0  0
  1  8  1  0  0  0  0
  4  6  1  0  0  0  0
  4 10  1  0  0  0  0
  5 19  1  0  0  0  0
  5 32  1  0  0  0  0
  5 33  1  0  0  0  0
  6  7  1  0  0  0  0
  6  9  1  0  0  0  0
  6 20  1  0  0  0  0
  7  8  1  0  0  0  0
  7 11  2  0  0  0  0
  8 12  2  0  0  0  0
  9 13  2  0  0  0  0
  9 14  1  0  0  0  0
 10 21  1  0  0  0  0
 10 22  1  0  0  0  0
 10 23  1  0  0  0  0
 11 15  1  0  0  0  0
 11 24  1  0  0  0  0
 12 16  1  0  0  0  0
 12 25  1  0  0  0  0
 13 17  1  0  0  0  0
 13 26  1  0  0  0  0
 14 18  2  0  0  0  0
 14 27  1  0  0  0  0
 15 16  2  0  0  0  0
 15 28  1  0  0  0  0
 16 29  1  0  0  0  0
 17 19  2  0  0  0  0
 17 30  1  0  0  0  0
 18 19  1  0  0  0  0
 18 31  1  0  0  0  0
M  END
> <PUBCHEM_COMPOUND_CID>
510588
> <PUBCHEM_COMPOUND_CANONICALIZED>
1
> <PUBCHEM_CACTVS_COMPLEXITY>
423
> <PUBCHEM_CACTVS_HBOND_ACCEPTOR>
4
> <PUBCHEM_CACTVS_HBOND_DONOR>
1
> <PUBCHEM_CACTVS_ROTATABLE_BOND>
1
> <PUBCHEM_CACTVS_SUBSKEYS>
AAADccBzMABAAAAAAAAAAAAAAAAAAWAAAAAwYAAAAAAAAFgBQAAAHAQQQAAADCjBWAQywYJAAAKAAiRCQHDCABAgAgAIiBgIZIgIICKAkZGEIAhgkAAIyAcQgMAOCAAAAAAEAAAQAAAAAAgAAAAAAAAAAA==
> <PUBCHEM_IUPAC_OPENEYE_NAME>
4-(2-methyl-1,1-dioxo-3H-1,2-benzothiazol-3-yl)aniline
> <PUBCHEM_IUPAC_CAS_NAME>
4-(2-methyl-1,1-dioxo-3H-1,2-benzothiazol-3-yl)aniline
> <PUBCHEM_IUPAC_NAME_MARKUP>
4-(2-methyl-1,1-dioxo-3<I>H</I>-1,2-benzothiazol-3-yl)aniline
> <PUBCHEM_IUPAC_NAME>
4-(2-methyl-1,1-dioxo-3H-1,2-benzothiazol-3-yl)aniline
> <PUBCHEM_IUPAC_SYSTEMATIC_NAME>
4-[2-methyl-1,1-bis(oxidanylidene)-3H-1,2-benzothiazol-3-yl]aniline
> <PUBCHEM_IUPAC_TRADITIONAL_NAME>
[4-(1,1-diketo-2-methyl-3H-1,2-benzothiazol-3-yl)phenyl]amine
> <PUBCHEM_IUPAC_INCHI>
InChI=1S/C14H14N2O2S/c1-16-14(10-6-8-11(15)9-7-10)12-4-2-3-5-13(12)19(16,17)18/h2-9,14H,15H2,1H3
> <PUBCHEM_IUPAC_INCHIKEY>
LQZTZBBRDKQGQE-UHFFFAOYSA-N
> <PUBCHEM_XLOGP3_AA>
1.7
> <PUBCHEM_EXACT_MASS>
274.07759887
> <PUBCHEM_MOLECULAR_FORMULA>
C14H14N2O2S
> <PUBCHEM_MOLECULAR_WEIGHT>
274.34
> <PUBCHEM_OPENEYE_CAN_SMILES>
CN1C(C2=CC=CC=C2S1(=O)=O)C3=CC=C(C=C3)N
> <PUBCHEM_OPENEYE_ISO_SMILES>
CN1C(C2=CC=CC=C2S1(=O)=O)C3=CC=C(C=C3)N
> <PUBCHEM_CACTVS_TPSA>
71.8
> <PUBCHEM_MONOISOTOPIC_WEIGHT>
274.07759887
> <PUBCHEM_TOTAL_CHARGE>
0
> <PUBCHEM_HEAVY_ATOM_COUNT>
19
> <PUBCHEM_ATOM_DEF_STEREO_COUNT>
0
> <PUBCHEM_ATOM_UDEF_STEREO_COUNT>
1
> <PUBCHEM_BOND_DEF_STEREO_COUNT>
0
> <PUBCHEM_BOND_UDEF_STEREO_COUNT>
0
> <PUBCHEM_ISOTOPIC_ATOM_COUNT>
0
> <PUBCHEM_COMPONENT_COUNT>
1
> <PUBCHEM_CACTVS_TAUTO_COUNT>
-1
> <PUBCHEM_COORDINATE_TYPE>
1
5
255
> <PUBCHEM_BONDANNOTATIONS>
11  15  8
12  16  8
13  17  8
14  18  8
15  16  8
17  19  8
18  19  8
6  9  3
7  11  8
7  8  8
8  12  8
9  13  8
9  14  8
$$$$
