510527
  -OEChem-10302200282D
112115  0     1  0  0  0  0  0999 V2000
    3.7320   -2.4734    0.0000 O   0  0  0  0  0  0  0  0  0  0  0  0
   16.5799    4.4734    0.0000 O   0  0  0  0  0  0  0  0  0  0  0  0
    2.8660   -0.9734    0.0000 O   0  0  0  0  0  0  0  0  0  0  0  0
   15.7139    5.9734    0.0000 O   0  0  0  0  0  0  0  0  0  0  0  0
    6.3301    0.0266    0.0000 O   0  0  0  0  0  0  0  0  0  0  0  0
   12.2498    4.9734    0.0000 O   0  0  0  0  0  0  0  0  0  0  0  0
    7.4321    0.8272    0.0000 O   0  0  0  0  0  0  0  0  0  0  0  0
   11.1478    4.1728    0.0000 O   0  0  0  0  0  0  0  0  0  0  0  0
    4.5981    0.0266    0.0000 N   0  0  0  0  0  0  0  0  0  0  0  0
   13.9818    4.9734    0.0000 N   0  0  0  0  0  0  0  0  0  0  0  0
    7.9673    2.4744    0.0000 N   0  0  0  0  0  0  0  0  0  0  0  0
   10.6126    2.5256    0.0000 N   0  0  0  0  0  0  0  0  0  0  0  0
    5.9641    3.0654    0.0000 N   0  0  0  0  0  0  0  0  0  0  0  0
   12.6158    1.9346    0.0000 N   0  0  0  0  0  0  0  0  0  0  0  0
    4.6551    2.1143    0.0000 N   0  0  0  0  0  0  0  0  0  0  0  0
   13.9248    2.8857    0.0000 N   0  0  0  0  0  0  0  0  0  0  0  0
    5.4641   -1.4734    0.0000 C   0  0  0  0  0  0  0  0  0  0  0  0
   14.8478    3.4734    0.0000 C   0  0  0  0  0  0  0  0  0  0  0  0
    5.4641   -2.4734    0.0000 C   0  0  0  0  0  0  0  0  0  0  0  0
   15.7139    2.9734    0.0000 C   0  0  0  0  0  0  0  0  0  0  0  0
    4.5981   -0.9734    0.0000 C   0  0  1  0  0  0  0  0  0  0  0  0
   14.8478    4.4734    0.0000 C   0  0  1  0  0  0  0  0  0  0  0  0
    6.3301   -2.9734    0.0000 C   0  0  0  0  0  0  0  0  0  0  0  0
    4.5981   -2.9734    0.0000 C   0  0  0  0  0  0  0  0  0  0  0  0
   15.7139    1.9734    0.0000 C   0  0  0  0  0  0  0  0  0  0  0  0
   16.5799    3.4734    0.0000 C   0  0  0  0  0  0  0  0  0  0  0  0
    8.9184    2.1654    0.0000 C   0  0  0  0  0  0  0  0  0  0  0  0
    9.6615    2.8346    0.0000 C   0  0  0  0  0  0  0  0  0  0  0  0
    3.7320   -1.4734    0.0000 C   0  0  0  0  0  0  0  0  0  0  0  0
   15.7139    4.9734    0.0000 C   0  0  0  0  0  0  0  0  0  0  0  0
    7.7594    3.4526    0.0000 C   0  0  0  0  0  0  0  0  0  0  0  0
   10.8205    1.5474    0.0000 C   0  0  0  0  0  0  0  0  0  0  0  0
    5.4641    0.5266    0.0000 C   0  0  0  0  0  0  0  0  0  0  0  0
   13.1158    4.4734    0.0000 C   0  0  0  0  0  0  0  0  0  0  0  0
    7.2242    1.8053    0.0000 C   0  0  0  0  0  0  0  0  0  0  0  0
   11.3557    3.1947    0.0000 C   0  0  0  0  0  0  0  0  0  0  0  0
    6.2731    2.1143    0.0000 C   0  0  0  0  0  0  0  0  0  0  0  0
   12.3068    2.8857    0.0000 C   0  0  0  0  0  0  0  0  0  0  0  0
    5.4641    1.5266    0.0000 C   0  0  0  0  0  0  0  0  0  0  0  0
   13.1158    3.4734    0.0000 C   0  0  0  0  0  0  0  0  0  0  0  0
    8.5026    4.1217    0.0000 C   0  0  0  0  0  0  0  0  0  0  0  0
   10.0773    0.8783    0.0000 C   0  0  0  0  0  0  0  0  0  0  0  0
    2.8660   -2.9734    0.0000 C   0  0  0  0  0  0  0  0  0  0  0  0
   17.4459    4.9734    0.0000 C   0  0  0  0  0  0  0  0  0  0  0  0
    4.9641    3.0654    0.0000 C   0  0  0  0  0  0  0  0  0  0  0  0
   13.6158    1.9346    0.0000 C   0  0  0  0  0  0  0  0  0  0  0  0
    2.8660   -3.9734    0.0000 C   0  0  0  0  0  0  0  0  0  0  0  0
   18.3119    4.4734    0.0000 C   0  0  0  0  0  0  0  0  0  0  0  0
    3.7320   -4.4734    0.0000 C   0  0  0  0  0  0  0  0  0  0  0  0
    2.0000   -4.4734    0.0000 C   0  0  0  0  0  0  0  0  0  0  0  0
   18.3119    3.4734    0.0000 C   0  0  0  0  0  0  0  0  0  0  0  0
   19.1780    4.9734    0.0000 C   0  0  0  0  0  0  0  0  0  0  0  0
    3.7320   -5.4734    0.0000 C   0  0  0  0  0  0  0  0  0  0  0  0
    2.0000   -5.4734    0.0000 C   0  0  0  0  0  0  0  0  0  0  0  0
   19.1780    2.9734    0.0000 C   0  0  0  0  0  0  0  0  0  0  0  0
   20.0440    4.4734    0.0000 C   0  0  0  0  0  0  0  0  0  0  0  0
    2.8660   -5.9734    0.0000 C   0  0  0  0  0  0  0  0  0  0  0  0
   20.0440    3.4734    0.0000 C   0  0  0  0  0  0  0  0  0  0  0  0
    6.0747   -1.5811    0.0000 H   0  0  0  0  0  0  0  0  0  0  0  0
    5.6762   -0.8908    0.0000 H   0  0  0  0  0  0  0  0  0  0  0  0
   14.2373    3.5811    0.0000 H   0  0  0  0  0  0  0  0  0  0  0  0
   14.6358    2.8908    0.0000 H   0  0  0  0  0  0  0  0  0  0  0  0
    5.4641   -3.0934    0.0000 H   0  0  0  0  0  0  0  0  0  0  0  0
   16.2508    2.6634    0.0000 H   0  0  0  0  0  0  0  0  0  0  0  0
    5.1350   -0.6634    0.0000 H   0  0  0  0  0  0  0  0  0  0  0  0
   14.3109    4.1634    0.0000 H   0  0  0  0  0  0  0  0  0  0  0  0
    6.0201   -3.5104    0.0000 H   0  0  0  0  0  0  0  0  0  0  0  0
    6.8671   -3.2834    0.0000 H   0  0  0  0  0  0  0  0  0  0  0  0
    6.6401   -2.4365    0.0000 H   0  0  0  0  0  0  0  0  0  0  0  0
    4.2881   -2.4365    0.0000 H   0  0  0  0  0  0  0  0  0  0  0  0
    4.0611   -3.2834    0.0000 H   0  0  0  0  0  0  0  0  0  0  0  0
    4.9081   -3.5104    0.0000 H   0  0  0  0  0  0  0  0  0  0  0  0
   15.0939    1.9734    0.0000 H   0  0  0  0  0  0  0  0  0  0  0  0
   15.7139    1.3534    0.0000 H   0  0  0  0  0  0  0  0  0  0  0  0
   16.3339    1.9734    0.0000 H   0  0  0  0  0  0  0  0  0  0  0  0
   16.8899    2.9365    0.0000 H   0  0  0  0  0  0  0  0  0  0  0  0
   17.1168    3.7834    0.0000 H   0  0  0  0  0  0  0  0  0  0  0  0
   16.2699    4.0104    0.0000 H   0  0  0  0  0  0  0  0  0  0  0  0
    8.6273    1.6180    0.0000 H   0  0  0  0  0  0  0  0  0  0  0  0
    9.4069    1.7837    0.0000 H   0  0  0  0  0  0  0  0  0  0  0  0
    9.9526    3.3820    0.0000 H   0  0  0  0  0  0  0  0  0  0  0  0
    9.1730    3.2163    0.0000 H   0  0  0  0  0  0  0  0  0  0  0  0
    4.0611    0.3366    0.0000 H   0  0  0  0  0  0  0  0  0  0  0  0
   13.9818    5.5934    0.0000 H   0  0  0  0  0  0  0  0  0  0  0  0
    7.4309    3.9784    0.0000 H   0  0  0  0  0  0  0  0  0  0  0  0
    7.1846    3.2203    0.0000 H   0  0  0  0  0  0  0  0  0  0  0  0
   11.1490    1.0216    0.0000 H   0  0  0  0  0  0  0  0  0  0  0  0
   11.3953    1.7797    0.0000 H   0  0  0  0  0  0  0  0  0  0  0  0
    8.9174    3.6610    0.0000 H   0  0  0  0  0  0  0  0  0  0  0  0
    8.9633    4.5366    0.0000 H   0  0  0  0  0  0  0  0  0  0  0  0
    8.0877    4.5825    0.0000 H   0  0  0  0  0  0  0  0  0  0  0  0
    9.6625    1.3390    0.0000 H   0  0  0  0  0  0  0  0  0  0  0  0
    9.6166    0.4634    0.0000 H   0  0  0  0  0  0  0  0  0  0  0  0
   10.4922    0.4175    0.0000 H   0  0  0  0  0  0  0  0  0  0  0  0
    6.3285    3.5670    0.0000 H   0  0  0  0  0  0  0  0  0  0  0  0
   12.2514    1.4330    0.0000 H   0  0  0  0  0  0  0  0  0  0  0  0
    2.6540   -2.3908    0.0000 H   0  0  0  0  0  0  0  0  0  0  0  0
    2.2554   -3.0811    0.0000 H   0  0  0  0  0  0  0  0  0  0  0  0
   17.8445    5.4484    0.0000 H   0  0  0  0  0  0  0  0  0  0  0  0
   17.0474    5.4484    0.0000 H   0  0  0  0  0  0  0  0  0  0  0  0
    4.5997    3.5670    0.0000 H   0  0  0  0  0  0  0  0  0  0  0  0
   13.9802    1.4330    0.0000 H   0  0  0  0  0  0  0  0  0  0  0  0
    4.2690   -4.1634    0.0000 H   0  0  0  0  0  0  0  0  0  0  0  0
    1.4631   -4.1634    0.0000 H   0  0  0  0  0  0  0  0  0  0  0  0
   17.7750    3.1634    0.0000 H   0  0  0  0  0  0  0  0  0  0  0  0
   19.1780    5.5934    0.0000 H   0  0  0  0  0  0  0  0  0  0  0  0
    4.2690   -5.7834    0.0000 H   0  0  0  0  0  0  0  0  0  0  0  0
    1.4631   -5.7834    0.0000 H   0  0  0  0  0  0  0  0  0  0  0  0
   19.1780    2.3534    0.0000 H   0  0  0  0  0  0  0  0  0  0  0  0
   20.5809    4.7834    0.0000 H   0  0  0  0  0  0  0  0  0  0  0  0
    2.8660   -6.5934    0.0000 H   0  0  0  0  0  0  0  0  0  0  0  0
   20.5809    3.1634    0.0000 H   0  0  0  0  0  0  0  0  0  0  0  0
  1 29  1  0  0  0  0
  1 43  1  0  0  0  0
  2 30  1  0  0  0  0
  2 44  1  0  0  0  0
  3 29  2  0  0  0  0
  4 30  2  0  0  0  0
  5 33  2  0  0  0  0
  6 34  2  0  0  0  0
  7 35  2  0  0  0  0
  8 36  2  0  0  0  0
 21  9  1  1  0  0  0
  9 33  1  0  0  0  0
  9 83  1  0  0  0  0
 22 10  1  6  0  0  0
 10 34  1  0  0  0  0
 10 84  1  0  0  0  0
 11 27  1  0  0  0  0
 11 31  1  0  0  0  0
 11 35  1  0  0  0  0
 12 28  1  0  0  0  0
 12 32  1  0  0  0  0
 12 36  1  0  0  0  0
 13 37  1  0  0  0  0
 13 45  1  0  0  0  0
 13 95  1  0  0  0  0
 14 38  1  0  0  0  0
 14 46  1  0  0  0  0
 14 96  1  0  0  0  0
 15 39  1  0  0  0  0
 15 45  2  0  0  0  0
 16 40  1  0  0  0  0
 16 46  2  0  0  0  0
 17 19  1  0  0  0  0
 17 21  1  0  0  0  0
 17 59  1  0  0  0  0
 17 60  1  0  0  0  0
 18 20  1  0  0  0  0
 18 22  1  0  0  0  0
 18 61  1  0  0  0  0
 18 62  1  0  0  0  0
 19 23  1  0  0  0  0
 19 24  1  0  0  0  0
 19 63  1  0  0  0  0
 20 25  1  0  0  0  0
 20 26  1  0  0  0  0
 20 64  1  0  0  0  0
 21 29  1  0  0  0  0
 21 65  1  0  0  0  0
 22 30  1  0  0  0  0
 22 66  1  0  0  0  0
 23 67  1  0  0  0  0
 23 68  1  0  0  0  0
 23 69  1  0  0  0  0
 24 70  1  0  0  0  0
 24 71  1  0  0  0  0
 24 72  1  0  0  0  0
 25 73  1  0  0  0  0
 25 74  1  0  0  0  0
 25 75  1  0  0  0  0
 26 76  1  0  0  0  0
 26 77  1  0  0  0  0
 26 78  1  0  0  0  0
 27 28  1  0  0  0  0
 27 79  1  0  0  0  0
 27 80  1  0  0  0  0
 28 81  1  0  0  0  0
 28 82  1  0  0  0  0
 31 41  1  0  0  0  0
 31 85  1  0  0  0  0
 31 86  1  0  0  0  0
 32 42  1  0  0  0  0
 32 87  1  0  0  0  0
 32 88  1  0  0  0  0
 33 39  1  0  0  0  0
 34 40  1  0  0  0  0
 35 37  1  0  0  0  0
 36 38  1  0  0  0  0
 37 39  2  0  0  0  0
 38 40  2  0  0  0  0
 41 89  1  0  0  0  0
 41 90  1  0  0  0  0
 41 91  1  0  0  0  0
 42 92  1  0  0  0  0
 42 93  1  0  0  0  0
 42 94  1  0  0  0  0
 43 47  1  0  0  0  0
 43 97  1  0  0  0  0
 43 98  1  0  0  0  0
 44 48  1  0  0  0  0
 44 99  1  0  0  0  0
 44100  1  0  0  0  0
 45101  1  0  0  0  0
 46102  1  0  0  0  0
 47 49  2  0  0  0  0
 47 50  1  0  0  0  0
 48 51  2  0  0  0  0
 48 52  1  0  0  0  0
 49 53  1  0  0  0  0
 49103  1  0  0  0  0
 50 54  2  0  0  0  0
 50104  1  0  0  0  0
 51 55  1  0  0  0  0
 51105  1  0  0  0  0
 52 56  2  0  0  0  0
 52106  1  0  0  0  0
 53 57  2  0  0  0  0
 53107  1  0  0  0  0
 54 57  1  0  0  0  0
 54108  1  0  0  0  0
 55 58  2  0  0  0  0
 55109  1  0  0  0  0
 56 58  1  0  0  0  0
 56110  1  0  0  0  0
 57111  1  0  0  0  0
 58112  1  0  0  0  0
M  END
> <PUBCHEM_COMPOUND_CID>
510527
> <PUBCHEM_COMPOUND_CANONICALIZED>
1
> <PUBCHEM_CACTVS_COMPLEXITY>
1250
> <PUBCHEM_CACTVS_HBOND_ACCEPTOR>
10
> <PUBCHEM_CACTVS_HBOND_DONOR>
4
> <PUBCHEM_CACTVS_ROTATABLE_BOND>
23
> <PUBCHEM_CACTVS_SUBSKEYS>
AAADcfB//AAAAAAAAAAAAAAAAAAAAWLAAAAwYAAAAAAAAAAB9AAAHgAQAAAADSjhngY3mJfJlACoAyXzfACCgC23EKAJ2YGoXMiKbjrA+TiXMYhs1gPYqWeNwCAOAAAAAAAAAAAAAAAAAAAAAAAAAAAAAA==
> <PUBCHEM_IUPAC_OPENEYE_NAME>
benzyl (2S)-2-[[5-[2-[[4-[[(1S)-1-benzyloxycarbonyl-3-methyl-butyl]carbamoyl]-1H-imidazole-5-carbonyl]-ethyl-amino]ethyl-ethyl-carbamoyl]-1H-imidazole-4-carbonyl]amino]-4-methyl-pentanoate
> <PUBCHEM_IUPAC_CAS_NAME>
(2S)-2-[[[5-[[ethyl-[2-[ethyl-[[4-[[[(2S)-4-methyl-1-oxo-1-phenylmethoxypentan-2-yl]amino]-oxomethyl]-1H-imidazol-5-yl]-oxomethyl]amino]ethyl]amino]-oxomethyl]-1H-imidazol-4-yl]-oxomethyl]amino]-4-methylpentanoic acid (phenylmethyl) ester
> <PUBCHEM_IUPAC_NAME_MARKUP>
benzyl (2<I>S</I>)-2-[[5-[ethyl-[2-[ethyl-[4-[[(2<I>S</I>)-4-methyl-1-oxo-1-phenylmethoxypentan-2-yl]carbamoyl]-1<I>H</I>-imidazole-5-carbonyl]amino]ethyl]carbamoyl]-1<I>H</I>-imidazole-4-carbonyl]amino]-4-methylpentanoate
> <PUBCHEM_IUPAC_NAME>
benzyl (2S)-2-[[5-[ethyl-[2-[ethyl-[4-[[(2S)-4-methyl-1-oxo-1-phenylmethoxypentan-2-yl]carbamoyl]-1H-imidazole-5-carbonyl]amino]ethyl]carbamoyl]-1H-imidazole-4-carbonyl]amino]-4-methylpentanoate
> <PUBCHEM_IUPAC_SYSTEMATIC_NAME>
(phenylmethyl) (2S)-2-[[5-[ethyl-[2-[ethyl-[[4-[[(2S)-4-methyl-1-oxidanylidene-1-phenylmethoxy-pentan-2-yl]carbamoyl]-1H-imidazol-5-yl]carbonyl]amino]ethyl]carbamoyl]-1H-imidazol-4-yl]carbonylamino]-4-methyl-pentanoate
> <PUBCHEM_IUPAC_TRADITIONAL_NAME>
(2S)-2-[[5-[2-[[4-[[(1S)-1-carbobenzoxy-3-methyl-butyl]carbamoyl]-1H-imidazole-5-carbonyl]-ethyl-amino]ethyl-ethyl-carbamoyl]-1H-imidazole-4-carbonyl]amino]-4-methyl-valeric acid benzyl ester
> <PUBCHEM_IUPAC_INCHI>
InChI=1S/C42H54N8O8/c1-7-49(39(53)35-33(43-25-45-35)37(51)47-31(21-27(3)4)41(55)57-23-29-15-11-9-12-16-29)19-20-50(8-2)40(54)36-34(44-26-46-36)38(52)48-32(22-28(5)6)42(56)58-24-30-17-13-10-14-18-30/h9-18,25-28,31-32H,7-8,19-24H2,1-6H3,(H,43,45)(H,44,46)(H,47,51)(H,48,52)/t31-,32-/m0/s1
> <PUBCHEM_IUPAC_INCHIKEY>
WMOPZIBLFAFMQU-ACHIHNKUSA-N
> <PUBCHEM_XLOGP3_AA>
5.7
> <PUBCHEM_EXACT_MASS>
798.40646071
> <PUBCHEM_MOLECULAR_FORMULA>
C42H54N8O8
> <PUBCHEM_MOLECULAR_WEIGHT>
798.9
> <PUBCHEM_OPENEYE_CAN_SMILES>
CCN(CCN(CC)C(=O)C1=C(N=CN1)C(=O)NC(CC(C)C)C(=O)OCC2=CC=CC=C2)C(=O)C3=C(N=CN3)C(=O)NC(CC(C)C)C(=O)OCC4=CC=CC=C4
> <PUBCHEM_OPENEYE_ISO_SMILES>
CCN(CCN(CC)C(=O)C1=C(N=CN1)C(=O)N[C@@H](CC(C)C)C(=O)OCC2=CC=CC=C2)C(=O)C3=C(N=CN3)C(=O)N[C@@H](CC(C)C)C(=O)OCC4=CC=CC=C4
> <PUBCHEM_CACTVS_TPSA>
209
> <PUBCHEM_MONOISOTOPIC_WEIGHT>
798.40646071
> <PUBCHEM_TOTAL_CHARGE>
0
> <PUBCHEM_HEAVY_ATOM_COUNT>
58
> <PUBCHEM_ATOM_DEF_STEREO_COUNT>
2
> <PUBCHEM_ATOM_UDEF_STEREO_COUNT>
0
> <PUBCHEM_BOND_DEF_STEREO_COUNT>
0
> <PUBCHEM_BOND_UDEF_STEREO_COUNT>
0
> <PUBCHEM_ISOTOPIC_ATOM_COUNT>
0
> <PUBCHEM_COMPONENT_COUNT>
1
> <PUBCHEM_CACTVS_TAUTO_COUNT>
-1
> <PUBCHEM_COORDINATE_TYPE>
1
5
255
> <PUBCHEM_BONDANNOTATIONS>
22  10  6
13  37  8
13  45  8
14  38  8
14  46  8
15  39  8
15  45  8
16  40  8
16  46  8
37  39  8
38  40  8
47  49  8
47  50  8
48  51  8
48  52  8
49  53  8
50  54  8
51  55  8
52  56  8
53  57  8
54  57  8
55  58  8
56  58  8
21  9  5
$$$$
