510552
  -OEChem-10302200282D
108110  0     1  0  0  0  0  0999 V2000
   18.3064    0.2292    0.0000 O   0  0  0  0  0  0  0  0  0  0  0  0
    5.3884   -4.3106    0.0000 O   0  0  0  0  0  0  0  0  0  0  0  0
   18.8416    1.8764    0.0000 O   0  0  0  0  0  0  0  0  0  0  0  0
    6.5474   -5.5978    0.0000 O   0  0  0  0  0  0  0  0  0  0  0  0
   15.2453    2.1344    0.0000 O   0  0  0  0  0  0  0  0  0  0  0  0
    8.5689   -2.6122    0.0000 O   0  0  0  0  0  0  0  0  0  0  0  0
   13.1350    4.1884    0.0000 O   0  0  0  0  0  0  0  0  0  0  0  0
    9.6708   -1.8116    0.0000 O   0  0  0  0  0  0  0  0  0  0  0  0
   16.9395    2.4945    0.0000 N   0  0  0  0  0  0  0  0  0  0  0  0
    8.0337   -4.2595    0.0000 N   0  0  0  0  0  0  0  0  0  0  0  0
   16.4497    4.5248    0.0000 N   0  0  0  0  0  0  0  0  0  0  0  0
   10.0369   -4.8505    0.0000 N   0  0  0  0  0  0  0  0  0  0  0  0
   14.9715    5.1829    0.0000 N   0  0  0  0  0  0  0  0  0  0  0  0
   11.3459   -3.8994    0.0000 N   0  0  0  0  0  0  0  0  0  0  0  0
   14.0010    2.6884    0.0000 N   0  0  0  0  0  0  0  0  0  0  0  0
   11.4029   -1.8116    0.0000 N   0  0  0  0  0  0  0  0  0  0  0  0
   16.4043    0.8472    0.0000 C   0  0  2  0  0  0  0  0  0  0  0  0
    6.8747   -2.9724    0.0000 C   0  0  2  0  0  0  0  0  0  0  0  0
   17.1474    1.5163    0.0000 C   0  0  1  0  0  0  0  0  0  0  0  0
    7.0826   -3.9505    0.0000 C   0  0  1  0  0  0  0  0  0  0  0  0
   16.6122   -0.1309    0.0000 C   0  0  0  0  0  0  0  0  0  0  0  0
    5.9236   -2.6633    0.0000 C   0  0  0  0  0  0  0  0  0  0  0  0
   15.4532    1.1562    0.0000 C   0  0  0  0  0  0  0  0  0  0  0  0
    7.6178   -2.3032    0.0000 C   0  0  0  0  0  0  0  0  0  0  0  0
   18.0985    1.2073    0.0000 C   0  0  0  0  0  0  0  0  0  0  0  0
    6.3395   -4.6196    0.0000 C   0  0  0  0  0  0  0  0  0  0  0  0
   15.8691   -0.8001    0.0000 C   0  0  0  0  0  0  0  0  0  0  0  0
    5.7157   -1.6852    0.0000 C   0  0  0  0  0  0  0  0  0  0  0  0
   15.9885    2.8035    0.0000 C   0  0  0  0  0  0  0  0  0  0  0  0
    8.7768   -3.5904    0.0000 C   0  0  0  0  0  0  0  0  0  0  0  0
   19.2575   -0.0798    0.0000 C   0  0  0  0  0  0  0  0  0  0  0  0
    4.6453   -4.9797    0.0000 C   0  0  0  0  0  0  0  0  0  0  0  0
   15.7806    3.7816    0.0000 C   0  0  0  0  0  0  0  0  0  0  0  0
    9.7279   -3.8994    0.0000 C   0  0  0  0  0  0  0  0  0  0  0  0
   19.4654   -1.0580    0.0000 C   0  0  0  0  0  0  0  0  0  0  0  0
    3.6942   -4.6707    0.0000 C   0  0  0  0  0  0  0  0  0  0  0  0
   14.8670    4.1884    0.0000 C   0  0  0  0  0  0  0  0  0  0  0  0
   10.5369   -3.3116    0.0000 C   0  0  0  0  0  0  0  0  0  0  0  0
   20.4164   -1.3670    0.0000 C   0  0  0  0  0  0  0  0  0  0  0  0
    2.9511   -5.3398    0.0000 C   0  0  0  0  0  0  0  0  0  0  0  0
   14.0010    3.6884    0.0000 C   0  0  0  0  0  0  0  0  0  0  0  0
   10.5369   -2.3116    0.0000 C   0  0  0  0  0  0  0  0  0  0  0  0
   20.6243   -2.3452    0.0000 C   0  0  0  0  0  0  0  0  0  0  0  0
    2.0000   -5.0308    0.0000 C   0  0  0  0  0  0  0  0  0  0  0  0
   15.9497    5.3908    0.0000 C   0  0  0  0  0  0  0  0  0  0  0  0
   11.0369   -4.8505    0.0000 C   0  0  0  0  0  0  0  0  0  0  0  0
   13.1350    2.1884    0.0000 C   0  0  0  0  0  0  0  0  0  0  0  0
   11.4029   -0.8116    0.0000 C   0  0  0  0  0  0  0  0  0  0  0  0
   13.1350    1.1884    0.0000 C   0  0  0  0  0  0  0  0  0  0  0  0
   12.2689   -0.3116    0.0000 C   0  0  0  0  0  0  0  0  0  0  0  0
   12.2689    0.6884    0.0000 C   0  0  0  0  0  0  0  0  0  0  0  0
   14.0010    0.6884    0.0000 C   0  0  0  0  0  0  0  0  0  0  0  0
   13.1350   -0.8116    0.0000 C   0  0  0  0  0  0  0  0  0  0  0  0
   14.0010   -0.3116    0.0000 C   0  0  0  0  0  0  0  0  0  0  0  0
   16.2754    1.4537    0.0000 H   0  0  0  0  0  0  0  0  0  0  0  0
    7.4644   -3.1639    0.0000 H   0  0  0  0  0  0  0  0  0  0  0  0
   17.6082    1.9312    0.0000 H   0  0  0  0  0  0  0  0  0  0  0  0
    7.2115   -4.5569    0.0000 H   0  0  0  0  0  0  0  0  0  0  0  0
   16.9407   -0.6567    0.0000 H   0  0  0  0  0  0  0  0  0  0  0  0
   17.1871    0.1013    0.0000 H   0  0  0  0  0  0  0  0  0  0  0  0
    5.3040   -2.6850    0.0000 H   0  0  0  0  0  0  0  0  0  0  0  0
    5.8374   -3.2773    0.0000 H   0  0  0  0  0  0  0  0  0  0  0  0
   15.6448    1.7459    0.0000 H   0  0  0  0  0  0  0  0  0  0  0  0
   14.8636    1.3478    0.0000 H   0  0  0  0  0  0  0  0  0  0  0  0
   15.2616    0.5666    0.0000 H   0  0  0  0  0  0  0  0  0  0  0  0
    8.0327   -2.7640    0.0000 H   0  0  0  0  0  0  0  0  0  0  0  0
    8.0786   -1.8884    0.0000 H   0  0  0  0  0  0  0  0  0  0  0  0
    7.2030   -1.8425    0.0000 H   0  0  0  0  0  0  0  0  0  0  0  0
   17.4003    2.9094    0.0000 H   0  0  0  0  0  0  0  0  0  0  0  0
    8.1626   -4.8660    0.0000 H   0  0  0  0  0  0  0  0  0  0  0  0
   15.4542   -0.3393    0.0000 H   0  0  0  0  0  0  0  0  0  0  0  0
   15.4083   -1.2149    0.0000 H   0  0  0  0  0  0  0  0  0  0  0  0
   16.2839   -1.2608    0.0000 H   0  0  0  0  0  0  0  0  0  0  0  0
    6.3222   -1.5563    0.0000 H   0  0  0  0  0  0  0  0  0  0  0  0
    5.5868   -1.0787    0.0000 H   0  0  0  0  0  0  0  0  0  0  0  0
    5.1093   -1.8141    0.0000 H   0  0  0  0  0  0  0  0  0  0  0  0
   19.8771   -0.0582    0.0000 H   0  0  0  0  0  0  0  0  0  0  0  0
   19.3437    0.5341    0.0000 H   0  0  0  0  0  0  0  0  0  0  0  0
    4.3542   -5.5272    0.0000 H   0  0  0  0  0  0  0  0  0  0  0  0
    5.1338   -5.3614    0.0000 H   0  0  0  0  0  0  0  0  0  0  0  0
   18.8457   -1.0796    0.0000 H   0  0  0  0  0  0  0  0  0  0  0  0
   19.3791   -1.6720    0.0000 H   0  0  0  0  0  0  0  0  0  0  0  0
    3.9853   -4.1233    0.0000 H   0  0  0  0  0  0  0  0  0  0  0  0
    3.2056   -4.2890    0.0000 H   0  0  0  0  0  0  0  0  0  0  0  0
   21.0360   -1.3454    0.0000 H   0  0  0  0  0  0  0  0  0  0  0  0
   20.5027   -0.7530    0.0000 H   0  0  0  0  0  0  0  0  0  0  0  0
    2.6600   -5.8873    0.0000 H   0  0  0  0  0  0  0  0  0  0  0  0
    3.4396   -5.7216    0.0000 H   0  0  0  0  0  0  0  0  0  0  0  0
   14.5108    5.5978    0.0000 H   0  0  0  0  0  0  0  0  0  0  0  0
   11.9356   -3.7078    0.0000 H   0  0  0  0  0  0  0  0  0  0  0  0
   20.0179   -2.4741    0.0000 H   0  0  0  0  0  0  0  0  0  0  0  0
   20.7532   -2.9516    0.0000 H   0  0  0  0  0  0  0  0  0  0  0  0
   21.2308   -2.2162    0.0000 H   0  0  0  0  0  0  0  0  0  0  0  0
    2.1916   -4.4412    0.0000 H   0  0  0  0  0  0  0  0  0  0  0  0
    1.4103   -4.8392    0.0000 H   0  0  0  0  0  0  0  0  0  0  0  0
    1.8084   -5.6205    0.0000 H   0  0  0  0  0  0  0  0  0  0  0  0
   16.2019    5.9572    0.0000 H   0  0  0  0  0  0  0  0  0  0  0  0
   11.4013   -5.3520    0.0000 H   0  0  0  0  0  0  0  0  0  0  0  0
   12.9229    2.7710    0.0000 H   0  0  0  0  0  0  0  0  0  0  0  0
   12.5244    2.0807    0.0000 H   0  0  0  0  0  0  0  0  0  0  0  0
   11.1909   -0.2290    0.0000 H   0  0  0  0  0  0  0  0  0  0  0  0
   10.7923   -0.9193    0.0000 H   0  0  0  0  0  0  0  0  0  0  0  0
   14.5379    2.3784    0.0000 H   0  0  0  0  0  0  0  0  0  0  0  0
   11.9398   -2.1216    0.0000 H   0  0  0  0  0  0  0  0  0  0  0  0
   11.7320    0.9984    0.0000 H   0  0  0  0  0  0  0  0  0  0  0  0
   14.5379    0.9984    0.0000 H   0  0  0  0  0  0  0  0  0  0  0  0
   13.1350   -1.4316    0.0000 H   0  0  0  0  0  0  0  0  0  0  0  0
   14.5379   -0.6216    0.0000 H   0  0  0  0  0  0  0  0  0  0  0  0
  1 25  1  0  0  0  0
  1 31  1  0  0  0  0
  2 26  1  0  0  0  0
  2 32  1  0  0  0  0
  3 25  2  0  0  0  0
  4 26  2  0  0  0  0
  5 29  2  0  0  0  0
  6 30  2  0  0  0  0
  7 41  2  0  0  0  0
  8 42  2  0  0  0  0
 19  9  1  6  0  0  0
  9 29  1  0  0  0  0
  9 69  1  0  0  0  0
 20 10  1  6  0  0  0
 10 30  1  0  0  0  0
 10 70  1  0  0  0  0
 11 33  1  0  0  0  0
 11 45  2  0  0  0  0
 12 34  1  0  0  0  0
 12 46  2  0  0  0  0
 13 37  1  0  0  0  0
 13 45  1  0  0  0  0
 13 89  1  0  0  0  0
 14 38  1  0  0  0  0
 14 46  1  0  0  0  0
 14 90  1  0  0  0  0
 15 41  1  0  0  0  0
 15 47  1  0  0  0  0
 15103  1  0  0  0  0
 16 42  1  0  0  0  0
 16 48  1  0  0  0  0
 16104  1  0  0  0  0
 17 19  1  0  0  0  0
 17 21  1  0  0  0  0
 17 23  1  6  0  0  0
 17 55  1  0  0  0  0
 18 20  1  0  0  0  0
 18 22  1  0  0  0  0
 18 24  1  6  0  0  0
 18 56  1  0  0  0  0
 19 25  1  0  0  0  0
 19 57  1  0  0  0  0
 20 26  1  0  0  0  0
 20 58  1  0  0  0  0
 21 27  1  0  0  0  0
 21 59  1  0  0  0  0
 21 60  1  0  0  0  0
 22 28  1  0  0  0  0
 22 61  1  0  0  0  0
 22 62  1  0  0  0  0
 23 63  1  0  0  0  0
 23 64  1  0  0  0  0
 23 65  1  0  0  0  0
 24 66  1  0  0  0  0
 24 67  1  0  0  0  0
 24 68  1  0  0  0  0
 27 71  1  0  0  0  0
 27 72  1  0  0  0  0
 27 73  1  0  0  0  0
 28 74  1  0  0  0  0
 28 75  1  0  0  0  0
 28 76  1  0  0  0  0
 29 33  1  0  0  0  0
 30 34  1  0  0  0  0
 31 35  1  0  0  0  0
 31 77  1  0  0  0  0
 31 78  1  0  0  0  0
 32 36  1  0  0  0  0
 32 79  1  0  0  0  0
 32 80  1  0  0  0  0
 33 37  2  0  0  0  0
 34 38  2  0  0  0  0
 35 39  1  0  0  0  0
 35 81  1  0  0  0  0
 35 82  1  0  0  0  0
 36 40  1  0  0  0  0
 36 83  1  0  0  0  0
 36 84  1  0  0  0  0
 37 41  1  0  0  0  0
 38 42  1  0  0  0  0
 39 43  1  0  0  0  0
 39 85  1  0  0  0  0
 39 86  1  0  0  0  0
 40 44  1  0  0  0  0
 40 87  1  0  0  0  0
 40 88  1  0  0  0  0
 43 91  1  0  0  0  0
 43 92  1  0  0  0  0
 43 93  1  0  0  0  0
 44 94  1  0  0  0  0
 44 95  1  0  0  0  0
 44 96  1  0  0  0  0
 45 97  1  0  0  0  0
 46 98  1  0  0  0  0
 47 49  1  0  0  0  0
 47 99  1  0  0  0  0
 47100  1  0  0  0  0
 48 50  1  0  0  0  0
 48101  1  0  0  0  0
 48102  1  0  0  0  0
 49 51  2  0  0  0  0
 49 52  1  0  0  0  0
 50 51  1  0  0  0  0
 50 53  2  0  0  0  0
 51105  1  0  0  0  0
 52 54  2  0  0  0  0
 52106  1  0  0  0  0
 53 54  1  0  0  0  0
 53107  1  0  0  0  0
 54108  1  0  0  0  0
M  END
> <PUBCHEM_COMPOUND_CID>
510552
> <PUBCHEM_COMPOUND_CANONICALIZED>
1
> <PUBCHEM_CACTVS_COMPLEXITY>
1150
> <PUBCHEM_CACTVS_HBOND_ACCEPTOR>
10
> <PUBCHEM_CACTVS_HBOND_DONOR>
6
> <PUBCHEM_CACTVS_ROTATABLE_BOND>
24
> <PUBCHEM_CACTVS_SUBSKEYS>
AAADcfB//AAAAAAAAAAAAAAAAAAAAWLAAAAwAAAAAAAAAAAB8AAAHgAQAAAADSjhngY3mJbJlACoAyXzfACCgC23EKAJ2YGoVMiKaDrA2TGXIYhslgLYiWedgEAOAAACAAAAAAAAAAQAAAAAAAAAAAAAAA==
> <PUBCHEM_IUPAC_OPENEYE_NAME>
butyl (2S,3S)-2-[[5-[[3-[[[4-[[(1S,2S)-1-butoxycarbonyl-2-methyl-butyl]carbamoyl]-1H-imidazole-5-carbonyl]amino]methyl]phenyl]methylcarbamoyl]-1H-imidazole-4-carbonyl]amino]-3-methyl-pentanoate
> <PUBCHEM_IUPAC_CAS_NAME>
(2S,3S)-2-[[[5-[[[3-[[[[4-[[[(2S,3S)-1-butoxy-3-methyl-1-oxopentan-2-yl]amino]-oxomethyl]-1H-imidazol-5-yl]-oxomethyl]amino]methyl]phenyl]methylamino]-oxomethyl]-1H-imidazol-4-yl]-oxomethyl]amino]-3-methylpentanoic acid butyl ester
> <PUBCHEM_IUPAC_NAME_MARKUP>
butyl (2<I>S</I>,3<I>S</I>)-2-[[5-[[3-[[[4-[[(2<I>S</I>,3<I>S</I>)-1-butoxy-3-methyl-1-oxopentan-2-yl]carbamoyl]-1<I>H</I>-imidazole-5-carbonyl]amino]methyl]phenyl]methylcarbamoyl]-1<I>H</I>-imidazole-4-carbonyl]amino]-3-methylpentanoate
> <PUBCHEM_IUPAC_NAME>
butyl (2S,3S)-2-[[5-[[3-[[[4-[[(2S,3S)-1-butoxy-3-methyl-1-oxopentan-2-yl]carbamoyl]-1H-imidazole-5-carbonyl]amino]methyl]phenyl]methylcarbamoyl]-1H-imidazole-4-carbonyl]amino]-3-methylpentanoate
> <PUBCHEM_IUPAC_SYSTEMATIC_NAME>
butyl (2S,3S)-2-[[5-[[3-[[[4-[[(2S,3S)-1-butoxy-3-methyl-1-oxidanylidene-pentan-2-yl]carbamoyl]-1H-imidazol-5-yl]carbonylamino]methyl]phenyl]methylcarbamoyl]-1H-imidazol-4-yl]carbonylamino]-3-methyl-pentanoate
> <PUBCHEM_IUPAC_TRADITIONAL_NAME>
(2S,3S)-2-[[5-[[3-[[[4-[[(1S,2S)-1-butoxycarbonyl-2-methyl-butyl]carbamoyl]-1H-imidazole-5-carbonyl]amino]methyl]benzyl]carbamoyl]-1H-imidazole-4-carbonyl]amino]-3-methyl-valeric acid butyl ester
> <PUBCHEM_IUPAC_INCHI>
InChI=1S/C38H54N8O8/c1-7-11-16-53-37(51)27(23(5)9-3)45-35(49)31-29(41-21-43-31)33(47)39-19-25-14-13-15-26(18-25)20-40-34(48)30-32(44-22-42-30)36(50)46-28(24(6)10-4)38(52)54-17-12-8-2/h13-15,18,21-24,27-28H,7-12,16-17,19-20H2,1-6H3,(H,39,47)(H,40,48)(H,41,43)(H,42,44)(H,45,49)(H,46,50)/t23-,24-,27-,28-/m0/s1
> <PUBCHEM_IUPAC_INCHIKEY>
ZGOUIJDJJMIXQC-LSGCGUROSA-N
> <PUBCHEM_XLOGP3_AA>
5.4
> <PUBCHEM_EXACT_MASS>
750.40646071
> <PUBCHEM_MOLECULAR_FORMULA>
C38H54N8O8
> <PUBCHEM_MOLECULAR_WEIGHT>
750.9
> <PUBCHEM_OPENEYE_CAN_SMILES>
CCCCOC(=O)C(C(C)CC)NC(=O)C1=C(NC=N1)C(=O)NCC2=CC(=CC=C2)CNC(=O)C3=C(N=CN3)C(=O)NC(C(C)CC)C(=O)OCCCC
> <PUBCHEM_OPENEYE_ISO_SMILES>
CCCCOC(=O)[C@H]([C@@H](C)CC)NC(=O)C1=C(NC=N1)C(=O)NCC2=CC(=CC=C2)CNC(=O)C3=C(N=CN3)C(=O)N[C@@H]([C@@H](C)CC)C(=O)OCCCC
> <PUBCHEM_CACTVS_TPSA>
226
> <PUBCHEM_MONOISOTOPIC_WEIGHT>
750.40646071
> <PUBCHEM_TOTAL_CHARGE>
0
> <PUBCHEM_HEAVY_ATOM_COUNT>
54
> <PUBCHEM_ATOM_DEF_STEREO_COUNT>
4
> <PUBCHEM_ATOM_UDEF_STEREO_COUNT>
0
> <PUBCHEM_BOND_DEF_STEREO_COUNT>
0
> <PUBCHEM_BOND_UDEF_STEREO_COUNT>
0
> <PUBCHEM_ISOTOPIC_ATOM_COUNT>
0
> <PUBCHEM_COMPONENT_COUNT>
1
> <PUBCHEM_CACTVS_TAUTO_COUNT>
-1
> <PUBCHEM_COORDINATE_TYPE>
1
5
255
> <PUBCHEM_BONDANNOTATIONS>
20  10  6
11  33  8
11  45  8
12  34  8
12  46  8
13  37  8
13  45  8
14  38  8
14  46  8
17  23  6
18  24  6
33  37  8
34  38  8
49  51  8
49  52  8
50  51  8
50  53  8
52  54  8
53  54  8
19  9  6
$$$$
