510574
  -OEChem-10302200282D
 32 33  0     1  0  0  0  0  0999 V2000
    6.3031   -2.1559    0.0000 I   0  0  0  0  0  0  0  0  0  0  0  0
    5.0298   -0.5003    0.0000 O   0  0  0  0  0  0  0  0  0  0  0  0
    2.4608   -0.1913    0.0000 O   0  0  0  0  0  0  0  0  0  0  0  0
    5.9529    1.0875    0.0000 O   0  0  0  0  0  0  0  0  0  0  0  0
    4.2208    4.0875    0.0000 O   0  0  0  0  0  0  0  0  0  0  0  0
    4.2208    1.0875    0.0000 N   0  0  0  0  0  0  0  0  0  0  0  0
    3.1330   -2.2604    0.0000 N   0  0  0  0  0  0  0  0  0  0  0  0
    5.0868    2.5875    0.0000 N   0  0  0  0  0  0  0  0  0  0  0  0
    3.5398   -3.1739    0.0000 N   0  3  0  0  0  0  0  0  0  0  0  0
    3.9465   -4.0875    0.0000 N   0  5  0  0  0  0  0  0  0  0  0  0
    3.4118   -0.5003    0.0000 C   0  0  2  0  0  0  0  0  0  0  0  0
    3.7208   -1.4514    0.0000 C   0  0  1  0  0  0  0  0  0  0  0  0
    4.2208    0.0875    0.0000 C   0  0  1  0  0  0  0  0  0  0  0  0
    4.7208   -1.4514    0.0000 C   0  0  1  0  0  0  0  0  0  0  0  0
    5.3086   -2.2604    0.0000 C   0  0  0  0  0  0  0  0  0  0  0  0
    3.3548    1.5875    0.0000 C   0  0  0  0  0  0  0  0  0  0  0  0
    5.0868    1.5875    0.0000 C   0  0  0  0  0  0  0  0  0  0  0  0
    3.3548    2.5875    0.0000 C   0  0  0  0  0  0  0  0  0  0  0  0
    4.2208    3.0875    0.0000 C   0  0  0  0  0  0  0  0  0  0  0  0
    2.4888    3.0875    0.0000 C   0  0  0  0  0  0  0  0  0  0  0  0
    2.9734   -0.9387    0.0000 H   0  0  0  0  0  0  0  0  0  0  0  0
    4.0023   -2.0038    0.0000 H   0  0  0  0  0  0  0  0  0  0  0  0
    3.6684    0.3689    0.0000 H   0  0  0  0  0  0  0  0  0  0  0  0
    5.3332   -1.3544    0.0000 H   0  0  0  0  0  0  0  0  0  0  0  0
    4.7514   -2.5322    0.0000 H   0  0  0  0  0  0  0  0  0  0  0  0
    5.4795   -2.8564    0.0000 H   0  0  0  0  0  0  0  0  0  0  0  0
    2.0000   -0.6062    0.0000 H   0  0  0  0  0  0  0  0  0  0  0  0
    2.8179    1.2775    0.0000 H   0  0  0  0  0  0  0  0  0  0  0  0
    5.6238    2.8975    0.0000 H   0  0  0  0  0  0  0  0  0  0  0  0
    2.7988    3.6244    0.0000 H   0  0  0  0  0  0  0  0  0  0  0  0
    1.9518    3.3975    0.0000 H   0  0  0  0  0  0  0  0  0  0  0  0
    2.1788    2.5505    0.0000 H   0  0  0  0  0  0  0  0  0  0  0  0
  1 15  1  0  0  0  0
  2 13  1  0  0  0  0
  2 14  1  0  0  0  0
 11  3  1  1  0  0  0
  3 27  1  0  0  0  0
  4 17  2  0  0  0  0
  5 19  2  0  0  0  0
 13  6  1  6  0  0  0
  6 16  1  0  0  0  0
  6 17  1  0  0  0  0
  7  9  2  0  0  0  0
 12  7  1  1  0  0  0
  8 17  1  0  0  0  0
  8 19  1  0  0  0  0
  8 29  1  0  0  0  0
  9 10  2  0  0  0  0
 11 12  1  0  0  0  0
 11 13  1  0  0  0  0
 11 21  1  0  0  0  0
 12 14  1  0  0  0  0
 12 22  1  0  0  0  0
 13 23  1  0  0  0  0
 14 15  1  6  0  0  0
 14 24  1  0  0  0  0
 15 25  1  0  0  0  0
 15 26  1  0  0  0  0
 16 18  2  0  0  0  0
 16 28  1  0  0  0  0
 18 19  1  0  0  0  0
 18 20  1  0  0  0  0
 20 30  1  0  0  0  0
 20 31  1  0  0  0  0
 20 32  1  0  0  0  0
M  CHG  2   9   1  10  -1
M  END
> <PUBCHEM_COMPOUND_CID>
510574
> <PUBCHEM_COMPOUND_CANONICALIZED>
1
> <PUBCHEM_CACTVS_COMPLEXITY>
518
> <PUBCHEM_CACTVS_HBOND_ACCEPTOR>
6
> <PUBCHEM_CACTVS_HBOND_DONOR>
2
> <PUBCHEM_CACTVS_ROTATABLE_BOND>
3
> <PUBCHEM_CACTVS_SUBSKEYS>
AAADccBzuAAAAgAAAAAAAAAAAAAAASAAAAAgAAAAAAAAAAAAAAAAHgA4CAAADDzjgAYDAAPABgCKAgFWUACAAAAAAAAAAAEIAECDEAIAwQAPQAAPByITAMCwAAAAAAAAAAAAAAAAAAAAAAAAAAAAAAAAAA==
> <PUBCHEM_IUPAC_OPENEYE_NAME>
1-[(2R,3R,4S,5S)-4-azido-3-hydroxy-5-(iodomethyl)tetrahydrofuran-2-yl]-5-methyl-pyrimidine-2,4-dione
> <PUBCHEM_IUPAC_CAS_NAME>
1-[(2R,3R,4S,5S)-4-azido-3-hydroxy-5-(iodomethyl)-2-oxolanyl]-5-methylpyrimidine-2,4-dione
> <PUBCHEM_IUPAC_NAME_MARKUP>
1-[(2<I>R</I>,3<I>R</I>,4<I>S</I>,5<I>S</I>)-4-azido-3-hydroxy-5-(iodomethyl)oxolan-2-yl]-5-methylpyrimidine-2,4-dione
> <PUBCHEM_IUPAC_NAME>
1-[(2R,3R,4S,5S)-4-azido-3-hydroxy-5-(iodomethyl)oxolan-2-yl]-5-methylpyrimidine-2,4-dione
> <PUBCHEM_IUPAC_SYSTEMATIC_NAME>
1-[(2R,3R,4S,5S)-4-azido-5-(iodanylmethyl)-3-oxidanyl-oxolan-2-yl]-5-methyl-pyrimidine-2,4-dione
> <PUBCHEM_IUPAC_TRADITIONAL_NAME>
1-[(2R,3R,4S,5S)-4-azido-3-hydroxy-5-(iodomethyl)tetrahydrofuran-2-yl]-5-methyl-pyrimidine-2,4-quinone
> <PUBCHEM_IUPAC_INCHI>
InChI=1S/C10H12IN5O4/c1-4-3-16(10(19)13-8(4)18)9-7(17)6(14-15-12)5(2-11)20-9/h3,5-7,9,17H,2H2,1H3,(H,13,18,19)/t5-,6-,7-,9-/m1/s1
> <PUBCHEM_IUPAC_INCHIKEY>
BGZQWRRBJIJNFC-JXOAFFINSA-N
> <PUBCHEM_XLOGP3_AA>
0.9
> <PUBCHEM_EXACT_MASS>
392.99340
> <PUBCHEM_MOLECULAR_FORMULA>
C10H12IN5O4
> <PUBCHEM_MOLECULAR_WEIGHT>
393.14
> <PUBCHEM_OPENEYE_CAN_SMILES>
CC1=CN(C(=O)NC1=O)C2C(C(C(O2)CI)N=[N+]=[N-])O
> <PUBCHEM_OPENEYE_ISO_SMILES>
CC1=CN(C(=O)NC1=O)[C@H]2[C@@H]([C@@H]([C@H](O2)CI)N=[N+]=[N-])O
> <PUBCHEM_CACTVS_TPSA>
93.2
> <PUBCHEM_MONOISOTOPIC_WEIGHT>
392.99340
> <PUBCHEM_TOTAL_CHARGE>
0
> <PUBCHEM_HEAVY_ATOM_COUNT>
20
> <PUBCHEM_ATOM_DEF_STEREO_COUNT>
4
> <PUBCHEM_ATOM_UDEF_STEREO_COUNT>
0
> <PUBCHEM_BOND_DEF_STEREO_COUNT>
0
> <PUBCHEM_BOND_UDEF_STEREO_COUNT>
0
> <PUBCHEM_ISOTOPIC_ATOM_COUNT>
0
> <PUBCHEM_COMPONENT_COUNT>
1
> <PUBCHEM_CACTVS_TAUTO_COUNT>
-1
> <PUBCHEM_COORDINATE_TYPE>
1
5
255
> <PUBCHEM_BONDANNOTATIONS>
14  15  6
16  18  8
18  19  8
11  3  5
13  6  6
6  16  8
6  17  8
12  7  5
8  17  8
8  19  8
$$$$
