510550
  -OEChem-10302200282D
 90 92  0     1  0  0  0  0  0999 V2000
   13.9669   -0.1309    0.0000 O   0  0  0  0  0  0  0  0  0  0  0  0
    3.2784   -2.6633    0.0000 O   0  0  0  0  0  0  0  0  0  0  0  0
   12.8080    1.1562    0.0000 O   0  0  0  0  0  0  0  0  0  0  0  0
    4.9726   -2.3032    0.0000 O   0  0  0  0  0  0  0  0  0  0  0  0
   12.6001    2.1344    0.0000 O   0  0  0  0  0  0  0  0  0  0  0  0
    5.9236   -2.6122    0.0000 O   0  0  0  0  0  0  0  0  0  0  0  0
   10.4897    4.1884    0.0000 O   0  0  0  0  0  0  0  0  0  0  0  0
    7.0256   -1.8116    0.0000 O   0  0  0  0  0  0  0  0  0  0  0  0
   14.2943    2.4945    0.0000 N   0  0  0  0  0  0  0  0  0  0  0  0
    5.3884   -4.2595    0.0000 N   0  0  0  0  0  0  0  0  0  0  0  0
   12.3263    5.1829    0.0000 N   0  0  0  0  0  0  0  0  0  0  0  0
    8.7006   -3.8994    0.0000 N   0  0  0  0  0  0  0  0  0  0  0  0
   13.8044    4.5248    0.0000 N   0  0  0  0  0  0  0  0  0  0  0  0
    7.3916   -4.8505    0.0000 N   0  0  0  0  0  0  0  0  0  0  0  0
   11.3557    2.6884    0.0000 N   0  0  0  0  0  0  0  0  0  0  0  0
    8.7576   -1.8116    0.0000 N   0  0  0  0  0  0  0  0  0  0  0  0
   15.4532    1.2073    0.0000 C   0  0  2  0  0  0  0  0  0  0  0  0
    3.6942   -4.6196    0.0000 C   0  0  2  0  0  0  0  0  0  0  0  0
   14.5022    1.5163    0.0000 C   0  0  1  0  0  0  0  0  0  0  0  0
    4.4374   -3.9505    0.0000 C   0  0  1  0  0  0  0  0  0  0  0  0
   15.6611    0.2292    0.0000 C   0  0  0  0  0  0  0  0  0  0  0  0
    2.7431   -4.3106    0.0000 C   0  0  0  0  0  0  0  0  0  0  0  0
   16.1964    1.8764    0.0000 C   0  0  0  0  0  0  0  0  0  0  0  0
    3.9021   -5.5978    0.0000 C   0  0  0  0  0  0  0  0  0  0  0  0
   16.6122   -0.0798    0.0000 C   0  0  0  0  0  0  0  0  0  0  0  0
    2.0000   -4.9797    0.0000 C   0  0  0  0  0  0  0  0  0  0  0  0
   13.7590    0.8472    0.0000 C   0  0  0  0  0  0  0  0  0  0  0  0
    4.2294   -2.9724    0.0000 C   0  0  0  0  0  0  0  0  0  0  0  0
   13.3432    2.8035    0.0000 C   0  0  0  0  0  0  0  0  0  0  0  0
    6.1316   -3.5904    0.0000 C   0  0  0  0  0  0  0  0  0  0  0  0
   13.1353    3.7816    0.0000 C   0  0  0  0  0  0  0  0  0  0  0  0
    7.0826   -3.8994    0.0000 C   0  0  0  0  0  0  0  0  0  0  0  0
   12.2217    4.1884    0.0000 C   0  0  0  0  0  0  0  0  0  0  0  0
    7.8916   -3.3116    0.0000 C   0  0  0  0  0  0  0  0  0  0  0  0
   13.2238   -0.8001    0.0000 C   0  0  0  0  0  0  0  0  0  0  0  0
    3.0705   -1.6852    0.0000 C   0  0  0  0  0  0  0  0  0  0  0  0
   11.3557    3.6884    0.0000 C   0  0  0  0  0  0  0  0  0  0  0  0
    7.8916   -2.3116    0.0000 C   0  0  0  0  0  0  0  0  0  0  0  0
   10.4897    2.1884    0.0000 C   0  0  0  0  0  0  0  0  0  0  0  0
    8.7576   -0.8116    0.0000 C   0  0  0  0  0  0  0  0  0  0  0  0
   10.4897    1.1884    0.0000 C   0  0  0  0  0  0  0  0  0  0  0  0
    9.6237   -0.3116    0.0000 C   0  0  0  0  0  0  0  0  0  0  0  0
   13.3044    5.3908    0.0000 C   0  0  0  0  0  0  0  0  0  0  0  0
    8.3916   -4.8505    0.0000 C   0  0  0  0  0  0  0  0  0  0  0  0
    9.6237    0.6884    0.0000 C   0  0  0  0  0  0  0  0  0  0  0  0
   11.3557    0.6884    0.0000 C   0  0  0  0  0  0  0  0  0  0  0  0
   10.4897   -0.8116    0.0000 C   0  0  0  0  0  0  0  0  0  0  0  0
   11.3557   -0.3116    0.0000 C   0  0  0  0  0  0  0  0  0  0  0  0
   16.0429    1.0157    0.0000 H   0  0  0  0  0  0  0  0  0  0  0  0
    4.2839   -4.8112    0.0000 H   0  0  0  0  0  0  0  0  0  0  0  0
   13.9125    1.7079    0.0000 H   0  0  0  0  0  0  0  0  0  0  0  0
    4.8981   -3.5356    0.0000 H   0  0  0  0  0  0  0  0  0  0  0  0
   15.0415    0.2075    0.0000 H   0  0  0  0  0  0  0  0  0  0  0  0
   15.5749   -0.3848    0.0000 H   0  0  0  0  0  0  0  0  0  0  0  0
    3.0342   -3.7632    0.0000 H   0  0  0  0  0  0  0  0  0  0  0  0
    2.2546   -3.9289    0.0000 H   0  0  0  0  0  0  0  0  0  0  0  0
   16.6112    1.4157    0.0000 H   0  0  0  0  0  0  0  0  0  0  0  0
   16.6571    2.2913    0.0000 H   0  0  0  0  0  0  0  0  0  0  0  0
   15.7815    2.3372    0.0000 H   0  0  0  0  0  0  0  0  0  0  0  0
    3.2957   -5.7267    0.0000 H   0  0  0  0  0  0  0  0  0  0  0  0
    4.0310   -6.2042    0.0000 H   0  0  0  0  0  0  0  0  0  0  0  0
    4.5086   -5.4689    0.0000 H   0  0  0  0  0  0  0  0  0  0  0  0
   14.7550    2.9094    0.0000 H   0  0  0  0  0  0  0  0  0  0  0  0
    5.5173   -4.8660    0.0000 H   0  0  0  0  0  0  0  0  0  0  0  0
   16.4206   -0.6695    0.0000 H   0  0  0  0  0  0  0  0  0  0  0  0
   17.2019   -0.2714    0.0000 H   0  0  0  0  0  0  0  0  0  0  0  0
   16.8038    0.5098    0.0000 H   0  0  0  0  0  0  0  0  0  0  0  0
    1.5851   -4.5190    0.0000 H   0  0  0  0  0  0  0  0  0  0  0  0
    1.5392   -5.3946    0.0000 H   0  0  0  0  0  0  0  0  0  0  0  0
    2.4149   -5.4405    0.0000 H   0  0  0  0  0  0  0  0  0  0  0  0
   12.8089   -0.3393    0.0000 H   0  0  0  0  0  0  0  0  0  0  0  0
   12.7630   -1.2149    0.0000 H   0  0  0  0  0  0  0  0  0  0  0  0
   13.6387   -1.2608    0.0000 H   0  0  0  0  0  0  0  0  0  0  0  0
    3.6769   -1.5563    0.0000 H   0  0  0  0  0  0  0  0  0  0  0  0
    2.9416   -1.0787    0.0000 H   0  0  0  0  0  0  0  0  0  0  0  0
    2.4640   -1.8141    0.0000 H   0  0  0  0  0  0  0  0  0  0  0  0
   11.8655    5.5978    0.0000 H   0  0  0  0  0  0  0  0  0  0  0  0
    9.2903   -3.7078    0.0000 H   0  0  0  0  0  0  0  0  0  0  0  0
   10.2776    2.7710    0.0000 H   0  0  0  0  0  0  0  0  0  0  0  0
    9.8791    2.0807    0.0000 H   0  0  0  0  0  0  0  0  0  0  0  0
    8.5456   -0.2290    0.0000 H   0  0  0  0  0  0  0  0  0  0  0  0
    8.1471   -0.9193    0.0000 H   0  0  0  0  0  0  0  0  0  0  0  0
   11.8927    2.3784    0.0000 H   0  0  0  0  0  0  0  0  0  0  0  0
    9.2946   -2.1216    0.0000 H   0  0  0  0  0  0  0  0  0  0  0  0
   13.5566    5.9572    0.0000 H   0  0  0  0  0  0  0  0  0  0  0  0
    8.7560   -5.3520    0.0000 H   0  0  0  0  0  0  0  0  0  0  0  0
    9.0867    0.9984    0.0000 H   0  0  0  0  0  0  0  0  0  0  0  0
   11.8927    0.9984    0.0000 H   0  0  0  0  0  0  0  0  0  0  0  0
   10.4897   -1.4316    0.0000 H   0  0  0  0  0  0  0  0  0  0  0  0
   11.8927   -0.6216    0.0000 H   0  0  0  0  0  0  0  0  0  0  0  0
  1 27  1  0  0  0  0
  1 35  1  0  0  0  0
  2 28  1  0  0  0  0
  2 36  1  0  0  0  0
  3 27  2  0  0  0  0
  4 28  2  0  0  0  0
  5 29  2  0  0  0  0
  6 30  2  0  0  0  0
  7 37  2  0  0  0  0
  8 38  2  0  0  0  0
 19  9  1  1  0  0  0
  9 29  1  0  0  0  0
  9 63  1  0  0  0  0
 20 10  1  1  0  0  0
 10 30  1  0  0  0  0
 10 64  1  0  0  0  0
 11 33  1  0  0  0  0
 11 43  1  0  0  0  0
 11 77  1  0  0  0  0
 12 34  1  0  0  0  0
 12 44  1  0  0  0  0
 12 78  1  0  0  0  0
 13 31  1  0  0  0  0
 13 43  2  0  0  0  0
 14 32  1  0  0  0  0
 14 44  2  0  0  0  0
 15 37  1  0  0  0  0
 15 39  1  0  0  0  0
 15 83  1  0  0  0  0
 16 38  1  0  0  0  0
 16 40  1  0  0  0  0
 16 84  1  0  0  0  0
 17 19  1  0  0  0  0
 17 21  1  0  0  0  0
 17 23  1  1  0  0  0
 17 49  1  0  0  0  0
 18 20  1  0  0  0  0
 18 22  1  0  0  0  0
 18 24  1  1  0  0  0
 18 50  1  0  0  0  0
 19 27  1  0  0  0  0
 19 51  1  0  0  0  0
 20 28  1  0  0  0  0
 20 52  1  0  0  0  0
 21 25  1  0  0  0  0
 21 53  1  0  0  0  0
 21 54  1  0  0  0  0
 22 26  1  0  0  0  0
 22 55  1  0  0  0  0
 22 56  1  0  0  0  0
 23 57  1  0  0  0  0
 23 58  1  0  0  0  0
 23 59  1  0  0  0  0
 24 60  1  0  0  0  0
 24 61  1  0  0  0  0
 24 62  1  0  0  0  0
 25 65  1  0  0  0  0
 25 66  1  0  0  0  0
 25 67  1  0  0  0  0
 26 68  1  0  0  0  0
 26 69  1  0  0  0  0
 26 70  1  0  0  0  0
 29 31  1  0  0  0  0
 30 32  1  0  0  0  0
 31 33  2  0  0  0  0
 32 34  2  0  0  0  0
 33 37  1  0  0  0  0
 34 38  1  0  0  0  0
 35 71  1  0  0  0  0
 35 72  1  0  0  0  0
 35 73  1  0  0  0  0
 36 74  1  0  0  0  0
 36 75  1  0  0  0  0
 36 76  1  0  0  0  0
 39 41  1  0  0  0  0
 39 79  1  0  0  0  0
 39 80  1  0  0  0  0
 40 42  1  0  0  0  0
 40 81  1  0  0  0  0
 40 82  1  0  0  0  0
 41 45  2  0  0  0  0
 41 46  1  0  0  0  0
 42 45  1  0  0  0  0
 42 47  2  0  0  0  0
 43 85  1  0  0  0  0
 44 86  1  0  0  0  0
 45 87  1  0  0  0  0
 46 48  2  0  0  0  0
 46 88  1  0  0  0  0
 47 48  1  0  0  0  0
 47 89  1  0  0  0  0
 48 90  1  0  0  0  0
M  END
> <PUBCHEM_COMPOUND_CID>
510550
> <PUBCHEM_COMPOUND_CANONICALIZED>
1
> <PUBCHEM_CACTVS_COMPLEXITY>
1060
> <PUBCHEM_CACTVS_HBOND_ACCEPTOR>
10
> <PUBCHEM_CACTVS_HBOND_DONOR>
6
> <PUBCHEM_CACTVS_ROTATABLE_BOND>
18
> <PUBCHEM_CACTVS_SUBSKEYS>
AAADcfB//AAAAAAAAAAAAAAAAAAAAWLAAAAwAAAAAAAAAAAB8AAAHgAQAAAADSjBngY3mJbJlACoAyXzfACCgC23EKAJ2YGoVMiKaDrA2TGVIYhslgLYiWedgEAOAAACAAAAAAAAAAQAAAAAAAAAAAAAAA==
> <PUBCHEM_IUPAC_OPENEYE_NAME>
methyl (2S,3S)-2-[[5-[[3-[[[4-[[(1S,2S)-1-methoxycarbonyl-2-methyl-butyl]carbamoyl]-1H-imidazole-5-carbonyl]amino]methyl]phenyl]methylcarbamoyl]-1H-imidazole-4-carbonyl]amino]-3-methyl-pentanoate
> <PUBCHEM_IUPAC_CAS_NAME>
(2S,3S)-2-[[[5-[[[3-[[[[4-[[[(2S,3S)-1-methoxy-3-methyl-1-oxopentan-2-yl]amino]-oxomethyl]-1H-imidazol-5-yl]-oxomethyl]amino]methyl]phenyl]methylamino]-oxomethyl]-1H-imidazol-4-yl]-oxomethyl]amino]-3-methylpentanoic acid methyl ester
> <PUBCHEM_IUPAC_NAME_MARKUP>
methyl (2<I>S</I>,3<I>S</I>)-2-[[5-[[3-[[[4-[[(2<I>S</I>,3<I>S</I>)-1-methoxy-3-methyl-1-oxopentan-2-yl]carbamoyl]-1<I>H</I>-imidazole-5-carbonyl]amino]methyl]phenyl]methylcarbamoyl]-1<I>H</I>-imidazole-4-carbonyl]amino]-3-methylpentanoate
> <PUBCHEM_IUPAC_NAME>
methyl (2S,3S)-2-[[5-[[3-[[[4-[[(2S,3S)-1-methoxy-3-methyl-1-oxopentan-2-yl]carbamoyl]-1H-imidazole-5-carbonyl]amino]methyl]phenyl]methylcarbamoyl]-1H-imidazole-4-carbonyl]amino]-3-methylpentanoate
> <PUBCHEM_IUPAC_SYSTEMATIC_NAME>
methyl (2S,3S)-2-[[5-[[3-[[[4-[[(2S,3S)-1-methoxy-3-methyl-1-oxidanylidene-pentan-2-yl]carbamoyl]-1H-imidazol-5-yl]carbonylamino]methyl]phenyl]methylcarbamoyl]-1H-imidazol-4-yl]carbonylamino]-3-methyl-pentanoate
> <PUBCHEM_IUPAC_TRADITIONAL_NAME>
(2S,3S)-2-[[5-[[3-[[[4-[[(1S,2S)-1-carbomethoxy-2-methyl-butyl]carbamoyl]-1H-imidazole-5-carbonyl]amino]methyl]benzyl]carbamoyl]-1H-imidazole-4-carbonyl]amino]-3-methyl-valeric acid methyl ester
> <PUBCHEM_IUPAC_INCHI>
InChI=1S/C32H42N8O8/c1-7-17(3)21(31(45)47-5)39-29(43)25-23(35-15-37-25)27(41)33-13-19-10-9-11-20(12-19)14-34-28(42)24-26(38-16-36-24)30(44)40-22(18(4)8-2)32(46)48-6/h9-12,15-18,21-22H,7-8,13-14H2,1-6H3,(H,33,41)(H,34,42)(H,35,37)(H,36,38)(H,39,43)(H,40,44)/t17-,18-,21-,22-/m0/s1
> <PUBCHEM_IUPAC_INCHIKEY>
OOQZGXCNGOXZNB-GPHNJDIKSA-N
> <PUBCHEM_XLOGP3_AA>
2.9
> <PUBCHEM_EXACT_MASS>
666.31256033
> <PUBCHEM_MOLECULAR_FORMULA>
C32H42N8O8
> <PUBCHEM_MOLECULAR_WEIGHT>
666.7
> <PUBCHEM_OPENEYE_CAN_SMILES>
CCC(C)C(C(=O)OC)NC(=O)C1=C(NC=N1)C(=O)NCC2=CC(=CC=C2)CNC(=O)C3=C(N=CN3)C(=O)NC(C(C)CC)C(=O)OC
> <PUBCHEM_OPENEYE_ISO_SMILES>
CC[C@H](C)[C@@H](C(=O)OC)NC(=O)C1=C(NC=N1)C(=O)NCC2=CC(=CC=C2)CNC(=O)C3=C(N=CN3)C(=O)N[C@@H]([C@@H](C)CC)C(=O)OC
> <PUBCHEM_CACTVS_TPSA>
226
> <PUBCHEM_MONOISOTOPIC_WEIGHT>
666.31256033
> <PUBCHEM_TOTAL_CHARGE>
0
> <PUBCHEM_HEAVY_ATOM_COUNT>
48
> <PUBCHEM_ATOM_DEF_STEREO_COUNT>
4
> <PUBCHEM_ATOM_UDEF_STEREO_COUNT>
0
> <PUBCHEM_BOND_DEF_STEREO_COUNT>
0
> <PUBCHEM_BOND_UDEF_STEREO_COUNT>
0
> <PUBCHEM_ISOTOPIC_ATOM_COUNT>
0
> <PUBCHEM_COMPONENT_COUNT>
1
> <PUBCHEM_CACTVS_TAUTO_COUNT>
-1
> <PUBCHEM_COORDINATE_TYPE>
1
5
255
> <PUBCHEM_BONDANNOTATIONS>
20  10  5
11  33  8
11  43  8
12  34  8
12  44  8
13  31  8
13  43  8
14  32  8
14  44  8
17  23  5
18  24  5
31  33  8
32  34  8
41  45  8
41  46  8
42  45  8
42  47  8
46  48  8
47  48  8
19  9  5
$$$$
