510601
  -OEChem-10302200282D
 40 42  0     1  0  0  0  0  0999 V2000
    4.6783   -1.7547    0.0000 S   0  0  0  0  0  0  0  0  0  0  0  0
    4.3709   -2.7063    0.0000 O   0  0  0  0  0  0  0  0  0  0  0  0
    5.4883   -2.3411    0.0000 O   0  0  0  0  0  0  0  0  0  0  0  0
    5.2619   -0.9500    0.0000 N   0  0  3  0  0  0  0  0  0  0  0  0
    6.2619   -0.9500    0.0000 C   0  0  0  0  0  0  0  0  0  0  0  0
    4.6783   -0.1453    0.0000 C   0  0  3  0  0  0  0  0  0  0  0  0
    3.7320   -0.4500    0.0000 C   0  0  0  0  0  0  0  0  0  0  0  0
    3.7320   -1.4500    0.0000 C   0  0  0  0  0  0  0  0  0  0  0  0
    4.9889    0.8053    0.0000 C   0  0  0  0  0  0  0  0  0  0  0  0
    7.2619   -0.9500    0.0000 C   0  0  0  0  0  0  0  0  0  0  0  0
    6.2619   -1.9500    0.0000 C   0  0  0  0  0  0  0  0  0  0  0  0
    6.2619    0.0500    0.0000 C   0  0  0  0  0  0  0  0  0  0  0  0
    2.8660    0.0500    0.0000 C   0  0  0  0  0  0  0  0  0  0  0  0
    2.8660   -1.9500    0.0000 C   0  0  0  0  0  0  0  0  0  0  0  0
    5.9674    1.0115    0.0000 C   0  0  0  0  0  0  0  0  0  0  0  0
    4.3211    1.5496    0.0000 C   0  0  0  0  0  0  0  0  0  0  0  0
    2.0000   -0.4500    0.0000 C   0  0  0  0  0  0  0  0  0  0  0  0
    2.0000   -1.4500    0.0000 C   0  0  0  0  0  0  0  0  0  0  0  0
    6.2781    1.9620    0.0000 C   0  0  0  0  0  0  0  0  0  0  0  0
    4.6318    2.5001    0.0000 C   0  0  0  0  0  0  0  0  0  0  0  0
    5.6103    2.7063    0.0000 C   0  0  0  0  0  0  0  0  0  0  0  0
    5.2908   -0.0491    0.0000 H   0  0  0  0  0  0  0  0  0  0  0  0
    7.2619   -1.5700    0.0000 H   0  0  0  0  0  0  0  0  0  0  0  0
    7.8819   -0.9500    0.0000 H   0  0  0  0  0  0  0  0  0  0  0  0
    7.2619   -0.3300    0.0000 H   0  0  0  0  0  0  0  0  0  0  0  0
    5.6419   -1.9500    0.0000 H   0  0  0  0  0  0  0  0  0  0  0  0
    6.2619   -2.5700    0.0000 H   0  0  0  0  0  0  0  0  0  0  0  0
    6.8819   -1.9500    0.0000 H   0  0  0  0  0  0  0  0  0  0  0  0
    6.8819    0.0500    0.0000 H   0  0  0  0  0  0  0  0  0  0  0  0
    6.2619    0.6700    0.0000 H   0  0  0  0  0  0  0  0  0  0  0  0
    5.6419    0.0500    0.0000 H   0  0  0  0  0  0  0  0  0  0  0  0
    2.8660    0.6700    0.0000 H   0  0  0  0  0  0  0  0  0  0  0  0
    2.8660   -2.5700    0.0000 H   0  0  0  0  0  0  0  0  0  0  0  0
    6.3815    0.5500    0.0000 H   0  0  0  0  0  0  0  0  0  0  0  0
    3.7144    1.4217    0.0000 H   0  0  0  0  0  0  0  0  0  0  0  0
    1.4631   -0.1400    0.0000 H   0  0  0  0  0  0  0  0  0  0  0  0
    1.4631   -1.7600    0.0000 H   0  0  0  0  0  0  0  0  0  0  0  0
    6.8848    2.0899    0.0000 H   0  0  0  0  0  0  0  0  0  0  0  0
    4.2177    2.9616    0.0000 H   0  0  0  0  0  0  0  0  0  0  0  0
    5.8029    3.2956    0.0000 H   0  0  0  0  0  0  0  0  0  0  0  0
  1  2  2  0  0  0  0
  1  3  2  0  0  0  0
  1  4  1  0  0  0  0
  1  8  1  0  0  0  0
  4  5  1  0  0  0  0
  4  6  1  0  0  0  0
  5 10  1  0  0  0  0
  5 11  1  0  0  0  0
  5 12  1  0  0  0  0
  6  7  1  0  0  0  0
  6  9  1  0  0  0  0
  6 22  1  0  0  0  0
  7  8  1  0  0  0  0
  7 13  2  0  0  0  0
  8 14  2  0  0  0  0
  9 15  2  0  0  0  0
  9 16  1  0  0  0  0
 10 23  1  0  0  0  0
 10 24  1  0  0  0  0
 10 25  1  0  0  0  0
 11 26  1  0  0  0  0
 11 27  1  0  0  0  0
 11 28  1  0  0  0  0
 12 29  1  0  0  0  0
 12 30  1  0  0  0  0
 12 31  1  0  0  0  0
 13 17  1  0  0  0  0
 13 32  1  0  0  0  0
 14 18  1  0  0  0  0
 14 33  1  0  0  0  0
 15 19  1  0  0  0  0
 15 34  1  0  0  0  0
 16 20  2  0  0  0  0
 16 35  1  0  0  0  0
 17 18  2  0  0  0  0
 17 36  1  0  0  0  0
 18 37  1  0  0  0  0
 19 21  2  0  0  0  0
 19 38  1  0  0  0  0
 20 21  1  0  0  0  0
 20 39  1  0  0  0  0
 21 40  1  0  0  0  0
M  END
> <PUBCHEM_COMPOUND_CID>
510601
> <PUBCHEM_COMPOUND_CANONICALIZED>
1
> <PUBCHEM_CACTVS_COMPLEXITY>
468
> <PUBCHEM_CACTVS_HBOND_ACCEPTOR>
3
> <PUBCHEM_CACTVS_HBOND_DONOR>
0
> <PUBCHEM_CACTVS_ROTATABLE_BOND>
2
> <PUBCHEM_CACTVS_SUBSKEYS>
AAADceB6MABAAAAAAAAAAAAAAAAAAWAAAAAwYAAAAAAAAFgBQAAAHAQAQAAADKjBWAQyAYIAAAKAAiBCAHDCABAgAAAIiBgIBIgIICKAkRGEIAhggACIiAcQgMAOAAAAAAAEAAAAAAAAAAgAAAAAAAAAAA==
> <PUBCHEM_IUPAC_OPENEYE_NAME>
2-tert-butyl-3-phenyl-3H-1,2-benzothiazole 1,1-dioxide
> <PUBCHEM_IUPAC_CAS_NAME>
2-tert-butyl-3-phenyl-3H-1,2-benzothiazole 1,1-dioxide
> <PUBCHEM_IUPAC_NAME_MARKUP>
2-<I>tert</I>-butyl-3-phenyl-3<I>H</I>-1,2-benzothiazole 1,1-dioxide
> <PUBCHEM_IUPAC_NAME>
2-tert-butyl-3-phenyl-3H-1,2-benzothiazole 1,1-dioxide
> <PUBCHEM_IUPAC_SYSTEMATIC_NAME>
2-tert-butyl-3-phenyl-3H-1,2-benzothiazole 1,1-dioxide
> <PUBCHEM_IUPAC_TRADITIONAL_NAME>
2-tert-butyl-3-phenyl-3H-1,2-benzothiazole 1,1-dioxide
> <PUBCHEM_IUPAC_INCHI>
InChI=1S/C17H19NO2S/c1-17(2,3)18-16(13-9-5-4-6-10-13)14-11-7-8-12-15(14)21(18,19)20/h4-12,16H,1-3H3
> <PUBCHEM_IUPAC_INCHIKEY>
QHLAKMSZACMQQR-UHFFFAOYSA-N
> <PUBCHEM_XLOGP3_AA>
3.3
> <PUBCHEM_EXACT_MASS>
301.11365002
> <PUBCHEM_MOLECULAR_FORMULA>
C17H19NO2S
> <PUBCHEM_MOLECULAR_WEIGHT>
301.4
> <PUBCHEM_OPENEYE_CAN_SMILES>
CC(C)(C)N1C(C2=CC=CC=C2S1(=O)=O)C3=CC=CC=C3
> <PUBCHEM_OPENEYE_ISO_SMILES>
CC(C)(C)N1C(C2=CC=CC=C2S1(=O)=O)C3=CC=CC=C3
> <PUBCHEM_CACTVS_TPSA>
45.8
> <PUBCHEM_MONOISOTOPIC_WEIGHT>
301.11365002
> <PUBCHEM_TOTAL_CHARGE>
0
> <PUBCHEM_HEAVY_ATOM_COUNT>
21
> <PUBCHEM_ATOM_DEF_STEREO_COUNT>
0
> <PUBCHEM_ATOM_UDEF_STEREO_COUNT>
1
> <PUBCHEM_BOND_DEF_STEREO_COUNT>
0
> <PUBCHEM_BOND_UDEF_STEREO_COUNT>
0
> <PUBCHEM_ISOTOPIC_ATOM_COUNT>
0
> <PUBCHEM_COMPONENT_COUNT>
1
> <PUBCHEM_CACTVS_TAUTO_COUNT>
-1
> <PUBCHEM_COORDINATE_TYPE>
1
5
255
> <PUBCHEM_BONDANNOTATIONS>
13  17  8
14  18  8
15  19  8
16  20  8
17  18  8
19  21  8
20  21  8
6  9  3
7  13  8
7  8  8
8  14  8
9  15  8
9  16  8
$$$$
