510612
  -OEChem-10302200282D
 37 39  0     1  0  0  0  0  0999 V2000
    5.5443   -1.4127    0.0000 S   0  0  0  0  0  0  0  0  0  0  0  0
    6.3543   -1.9991    0.0000 O   0  0  0  0  0  0  0  0  0  0  0  0
    5.2369   -2.3643    0.0000 O   0  0  0  0  0  0  0  0  0  0  0  0
    6.1279   -0.6079    0.0000 N   0  0  3  0  0  0  0  0  0  0  0  0
    5.5443    0.1968    0.0000 C   0  0  3  0  0  0  0  0  0  0  0  0
    4.5981   -0.1079    0.0000 C   0  0  0  0  0  0  0  0  0  0  0  0
    4.5981   -1.1079    0.0000 C   0  0  0  0  0  0  0  0  0  0  0  0
    6.3543    0.7832    0.0000 C   0  0  0  0  0  0  0  0  0  0  0  0
    5.2369    1.1484    0.0000 C   0  0  0  0  0  0  0  0  0  0  0  0
    3.7320    0.3921    0.0000 C   0  0  0  0  0  0  0  0  0  0  0  0
    7.1279   -0.6079    0.0000 C   0  0  0  0  0  0  0  0  0  0  0  0
    3.7320   -1.6079    0.0000 C   0  0  0  0  0  0  0  0  0  0  0  0
    2.8660   -0.1079    0.0000 C   0  0  0  0  0  0  0  0  0  0  0  0
    6.2515    1.7779    0.0000 C   0  0  0  0  0  0  0  0  0  0  0  0
    7.2672    0.3749    0.0000 C   0  0  0  0  0  0  0  0  0  0  0  0
    2.8660   -1.1079    0.0000 C   0  0  0  0  0  0  0  0  0  0  0  0
    2.0000    0.3921    0.0000 C   0  0  0  0  0  0  0  0  0  0  0  0
    7.0616    2.3643    0.0000 C   0  0  0  0  0  0  0  0  0  0  0  0
    8.0772    0.9612    0.0000 C   0  0  0  0  0  0  0  0  0  0  0  0
    7.9744    1.9560    0.0000 C   0  0  0  0  0  0  0  0  0  0  0  0
    5.8269    1.3390    0.0000 H   0  0  0  0  0  0  0  0  0  0  0  0
    5.0464    1.7384    0.0000 H   0  0  0  0  0  0  0  0  0  0  0  0
    4.6469    0.9578    0.0000 H   0  0  0  0  0  0  0  0  0  0  0  0
    3.7320    1.0121    0.0000 H   0  0  0  0  0  0  0  0  0  0  0  0
    7.1279   -1.2279    0.0000 H   0  0  0  0  0  0  0  0  0  0  0  0
    7.7479   -0.6079    0.0000 H   0  0  0  0  0  0  0  0  0  0  0  0
    7.1279    0.0121    0.0000 H   0  0  0  0  0  0  0  0  0  0  0  0
    3.7320   -2.2279    0.0000 H   0  0  0  0  0  0  0  0  0  0  0  0
    5.6856    2.0310    0.0000 H   0  0  0  0  0  0  0  0  0  0  0  0
    7.3309   -0.2419    0.0000 H   0  0  0  0  0  0  0  0  0  0  0  0
    2.3291   -1.4179    0.0000 H   0  0  0  0  0  0  0  0  0  0  0  0
    2.3100    0.9290    0.0000 H   0  0  0  0  0  0  0  0  0  0  0  0
    1.4631    0.7021    0.0000 H   0  0  0  0  0  0  0  0  0  0  0  0
    1.6900   -0.1449    0.0000 H   0  0  0  0  0  0  0  0  0  0  0  0
    6.9978    2.9810    0.0000 H   0  0  0  0  0  0  0  0  0  0  0  0
    8.6432    0.7081    0.0000 H   0  0  0  0  0  0  0  0  0  0  0  0
    8.4766    2.3195    0.0000 H   0  0  0  0  0  0  0  0  0  0  0  0
  1  2  2  0  0  0  0
  1  3  2  0  0  0  0
  1  4  1  0  0  0  0
  1  7  1  0  0  0  0
  4  5  1  0  0  0  0
  4 11  1  0  0  0  0
  5  6  1  0  0  0  0
  5  8  1  0  0  0  0
  5  9  1  0  0  0  0
  6  7  2  0  0  0  0
  6 10  1  0  0  0  0
  7 12  1  0  0  0  0
  8 14  2  0  0  0  0
  8 15  1  0  0  0  0
  9 21  1  0  0  0  0
  9 22  1  0  0  0  0
  9 23  1  0  0  0  0
 10 13  2  0  0  0  0
 10 24  1  0  0  0  0
 11 25  1  0  0  0  0
 11 26  1  0  0  0  0
 11 27  1  0  0  0  0
 12 16  2  0  0  0  0
 12 28  1  0  0  0  0
 13 16  1  0  0  0  0
 13 17  1  0  0  0  0
 14 18  1  0  0  0  0
 14 29  1  0  0  0  0
 15 19  2  0  0  0  0
 15 30  1  0  0  0  0
 16 31  1  0  0  0  0
 17 32  1  0  0  0  0
 17 33  1  0  0  0  0
 17 34  1  0  0  0  0
 18 20  2  0  0  0  0
 18 35  1  0  0  0  0
 19 20  1  0  0  0  0
 19 36  1  0  0  0  0
 20 37  1  0  0  0  0
M  END
> <PUBCHEM_COMPOUND_CID>
510612
> <PUBCHEM_COMPOUND_CANONICALIZED>
1
> <PUBCHEM_CACTVS_COMPLEXITY>
463
> <PUBCHEM_CACTVS_HBOND_ACCEPTOR>
3
> <PUBCHEM_CACTVS_HBOND_DONOR>
0
> <PUBCHEM_CACTVS_ROTATABLE_BOND>
1
> <PUBCHEM_CACTVS_SUBSKEYS>
AAADceB6MABAAAAAAAAAAAAAAAAAAWAAAAAwYAAAAAAAAFgBQAAAHAQAQAAADIiBWAQyAYIAAAKAAiBCAHDCABAgAAAIiBgIBIgIICKAkRGEIAhggAAIiAcQgMAOkAACAAAEAAAgAAQAAAgAAAAAAAAAAA==
> <PUBCHEM_IUPAC_OPENEYE_NAME>
2,3,5-trimethyl-3-phenyl-1,2-benzothiazole 1,1-dioxide
> <PUBCHEM_IUPAC_CAS_NAME>
2,3,5-trimethyl-3-phenyl-1,2-benzothiazole 1,1-dioxide
> <PUBCHEM_IUPAC_NAME_MARKUP>
2,3,5-trimethyl-3-phenyl-1,2-benzothiazole 1,1-dioxide
> <PUBCHEM_IUPAC_NAME>
2,3,5-trimethyl-3-phenyl-1,2-benzothiazole 1,1-dioxide
> <PUBCHEM_IUPAC_SYSTEMATIC_NAME>
2,3,5-trimethyl-3-phenyl-1,2-benzothiazole 1,1-dioxide
> <PUBCHEM_IUPAC_TRADITIONAL_NAME>
2,3,5-trimethyl-3-phenyl-1,2-benzothiazole 1,1-dioxide
> <PUBCHEM_IUPAC_INCHI>
InChI=1S/C16H17NO2S/c1-12-9-10-15-14(11-12)16(2,17(3)20(15,18)19)13-7-5-4-6-8-13/h4-11H,1-3H3
> <PUBCHEM_IUPAC_INCHIKEY>
YLHGMRSUHZSNCB-UHFFFAOYSA-N
> <PUBCHEM_XLOGP3_AA>
2.9
> <PUBCHEM_EXACT_MASS>
287.09799996
> <PUBCHEM_MOLECULAR_FORMULA>
C16H17NO2S
> <PUBCHEM_MOLECULAR_WEIGHT>
287.4
> <PUBCHEM_OPENEYE_CAN_SMILES>
CC1=CC2=C(C=C1)S(=O)(=O)N(C2(C)C3=CC=CC=C3)C
> <PUBCHEM_OPENEYE_ISO_SMILES>
CC1=CC2=C(C=C1)S(=O)(=O)N(C2(C)C3=CC=CC=C3)C
> <PUBCHEM_CACTVS_TPSA>
45.8
> <PUBCHEM_MONOISOTOPIC_WEIGHT>
287.09799996
> <PUBCHEM_TOTAL_CHARGE>
0
> <PUBCHEM_HEAVY_ATOM_COUNT>
20
> <PUBCHEM_ATOM_DEF_STEREO_COUNT>
0
> <PUBCHEM_ATOM_UDEF_STEREO_COUNT>
1
> <PUBCHEM_BOND_DEF_STEREO_COUNT>
0
> <PUBCHEM_BOND_UDEF_STEREO_COUNT>
0
> <PUBCHEM_ISOTOPIC_ATOM_COUNT>
0
> <PUBCHEM_COMPONENT_COUNT>
1
> <PUBCHEM_CACTVS_TAUTO_COUNT>
-1
> <PUBCHEM_COORDINATE_TYPE>
1
5
255
> <PUBCHEM_BONDANNOTATIONS>
10  13  8
12  16  8
13  16  8
14  18  8
15  19  8
18  20  8
19  20  8
5  9  3
6  10  8
6  7  8
7  12  8
8  14  8
8  15  8
$$$$
