510607
  -OEChem-10302200282D
 34 36  0     1  0  0  0  0  0999 V2000
    5.5443   -1.7547    0.0000 S   0  0  0  0  0  0  0  0  0  0  0  0
    6.3543   -2.3411    0.0000 O   0  0  0  0  0  0  0  0  0  0  0  0
    5.2369   -2.7063    0.0000 O   0  0  0  0  0  0  0  0  0  0  0  0
    6.1279   -0.9500    0.0000 N   0  0  3  0  0  0  0  0  0  0  0  0
    5.5443   -0.1453    0.0000 C   0  0  3  0  0  0  0  0  0  0  0  0
    4.5981   -0.4500    0.0000 C   0  0  0  0  0  0  0  0  0  0  0  0
    4.5981   -1.4500    0.0000 C   0  0  0  0  0  0  0  0  0  0  0  0
    5.8550    0.8053    0.0000 C   0  0  0  0  0  0  0  0  0  0  0  0
    3.7320    0.0500    0.0000 C   0  0  0  0  0  0  0  0  0  0  0  0
    7.1279   -0.9500    0.0000 C   0  0  0  0  0  0  0  0  0  0  0  0
    3.7320   -1.9500    0.0000 C   0  0  0  0  0  0  0  0  0  0  0  0
    2.8660   -0.4500    0.0000 C   0  0  0  0  0  0  0  0  0  0  0  0
    2.8660   -1.4500    0.0000 C   0  0  0  0  0  0  0  0  0  0  0  0
    5.1871    1.5496    0.0000 C   0  0  0  0  0  0  0  0  0  0  0  0
    6.8335    1.0115    0.0000 C   0  0  0  0  0  0  0  0  0  0  0  0
    2.0000    0.0500    0.0000 C   0  0  0  0  0  0  0  0  0  0  0  0
    5.4978    2.5001    0.0000 C   0  0  0  0  0  0  0  0  0  0  0  0
    7.1441    1.9620    0.0000 C   0  0  0  0  0  0  0  0  0  0  0  0
    6.4763    2.7063    0.0000 C   0  0  0  0  0  0  0  0  0  0  0  0
    6.1568   -0.0491    0.0000 H   0  0  0  0  0  0  0  0  0  0  0  0
    3.7320    0.6700    0.0000 H   0  0  0  0  0  0  0  0  0  0  0  0
    7.1279   -1.5700    0.0000 H   0  0  0  0  0  0  0  0  0  0  0  0
    7.7479   -0.9500    0.0000 H   0  0  0  0  0  0  0  0  0  0  0  0
    7.1279   -0.3300    0.0000 H   0  0  0  0  0  0  0  0  0  0  0  0
    3.7320   -2.5700    0.0000 H   0  0  0  0  0  0  0  0  0  0  0  0
    2.3291   -1.7600    0.0000 H   0  0  0  0  0  0  0  0  0  0  0  0
    4.5804    1.4217    0.0000 H   0  0  0  0  0  0  0  0  0  0  0  0
    7.2475    0.5500    0.0000 H   0  0  0  0  0  0  0  0  0  0  0  0
    2.3100    0.5870    0.0000 H   0  0  0  0  0  0  0  0  0  0  0  0
    1.4631    0.3600    0.0000 H   0  0  0  0  0  0  0  0  0  0  0  0
    1.6900   -0.4869    0.0000 H   0  0  0  0  0  0  0  0  0  0  0  0
    5.0837    2.9616    0.0000 H   0  0  0  0  0  0  0  0  0  0  0  0
    7.7508    2.0899    0.0000 H   0  0  0  0  0  0  0  0  0  0  0  0
    6.6689    3.2956    0.0000 H   0  0  0  0  0  0  0  0  0  0  0  0
  1  2  2  0  0  0  0
  1  3  2  0  0  0  0
  1  4  1  0  0  0  0
  1  7  1  0  0  0  0
  4  5  1  0  0  0  0
  4 10  1  0  0  0  0
  5  6  1  0  0  0  0
  5  8  1  0  0  0  0
  5 20  1  0  0  0  0
  6  7  2  0  0  0  0
  6  9  1  0  0  0  0
  7 11  1  0  0  0  0
  8 14  2  0  0  0  0
  8 15  1  0  0  0  0
  9 12  2  0  0  0  0
  9 21  1  0  0  0  0
 10 22  1  0  0  0  0
 10 23  1  0  0  0  0
 10 24  1  0  0  0  0
 11 13  2  0  0  0  0
 11 25  1  0  0  0  0
 12 13  1  0  0  0  0
 12 16  1  0  0  0  0
 13 26  1  0  0  0  0
 14 17  1  0  0  0  0
 14 27  1  0  0  0  0
 15 18  2  0  0  0  0
 15 28  1  0  0  0  0
 16 29  1  0  0  0  0
 16 30  1  0  0  0  0
 16 31  1  0  0  0  0
 17 19  2  0  0  0  0
 17 32  1  0  0  0  0
 18 19  1  0  0  0  0
 18 33  1  0  0  0  0
 19 34  1  0  0  0  0
M  END
> <PUBCHEM_COMPOUND_CID>
510607
> <PUBCHEM_COMPOUND_CANONICALIZED>
1
> <PUBCHEM_CACTVS_COMPLEXITY>
422
> <PUBCHEM_CACTVS_HBOND_ACCEPTOR>
3
> <PUBCHEM_CACTVS_HBOND_DONOR>
0
> <PUBCHEM_CACTVS_ROTATABLE_BOND>
1
> <PUBCHEM_CACTVS_SUBSKEYS>
AAADccByMABAAAAAAAAAAAAAAAAAAWAAAAAwYAAAAAAAAFgBQAAAHAQAQAAADCjBWAQyAYIAAAKAAiBCAHDCABAgAAAIiBgIBIgIICKAkRGEIAhggAAIiAcQgMAOEAACAAAEAAAgAAQAAAgAAAAAAAAAAA==
> <PUBCHEM_IUPAC_OPENEYE_NAME>
2,5-dimethyl-3-phenyl-3H-1,2-benzothiazole 1,1-dioxide
> <PUBCHEM_IUPAC_CAS_NAME>
2,5-dimethyl-3-phenyl-3H-1,2-benzothiazole 1,1-dioxide
> <PUBCHEM_IUPAC_NAME_MARKUP>
2,5-dimethyl-3-phenyl-3<I>H</I>-1,2-benzothiazole 1,1-dioxide
> <PUBCHEM_IUPAC_NAME>
2,5-dimethyl-3-phenyl-3H-1,2-benzothiazole 1,1-dioxide
> <PUBCHEM_IUPAC_SYSTEMATIC_NAME>
2,5-dimethyl-3-phenyl-3H-1,2-benzothiazole 1,1-dioxide
> <PUBCHEM_IUPAC_TRADITIONAL_NAME>
2,5-dimethyl-3-phenyl-3H-1,2-benzothiazole 1,1-dioxide
> <PUBCHEM_IUPAC_INCHI>
InChI=1S/C15H15NO2S/c1-11-8-9-14-13(10-11)15(16(2)19(14,17)18)12-6-4-3-5-7-12/h3-10,15H,1-2H3
> <PUBCHEM_IUPAC_INCHIKEY>
QTSTWDUUHLHRLT-UHFFFAOYSA-N
> <PUBCHEM_XLOGP3_AA>
2.7
> <PUBCHEM_EXACT_MASS>
273.08234989
> <PUBCHEM_MOLECULAR_FORMULA>
C15H15NO2S
> <PUBCHEM_MOLECULAR_WEIGHT>
273.4
> <PUBCHEM_OPENEYE_CAN_SMILES>
CC1=CC2=C(C=C1)S(=O)(=O)N(C2C3=CC=CC=C3)C
> <PUBCHEM_OPENEYE_ISO_SMILES>
CC1=CC2=C(C=C1)S(=O)(=O)N(C2C3=CC=CC=C3)C
> <PUBCHEM_CACTVS_TPSA>
45.8
> <PUBCHEM_MONOISOTOPIC_WEIGHT>
273.08234989
> <PUBCHEM_TOTAL_CHARGE>
0
> <PUBCHEM_HEAVY_ATOM_COUNT>
19
> <PUBCHEM_ATOM_DEF_STEREO_COUNT>
0
> <PUBCHEM_ATOM_UDEF_STEREO_COUNT>
1
> <PUBCHEM_BOND_DEF_STEREO_COUNT>
0
> <PUBCHEM_BOND_UDEF_STEREO_COUNT>
0
> <PUBCHEM_ISOTOPIC_ATOM_COUNT>
0
> <PUBCHEM_COMPONENT_COUNT>
1
> <PUBCHEM_CACTVS_TAUTO_COUNT>
-1
> <PUBCHEM_COORDINATE_TYPE>
1
5
255
> <PUBCHEM_BONDANNOTATIONS>
11  13  8
12  13  8
14  17  8
15  18  8
17  19  8
18  19  8
5  8  3
6  7  8
6  9  8
7  11  8
8  14  8
8  15  8
9  12  8
$$$$
