510611
  -OEChem-10302200282D
 38 40  0     1  0  0  0  0  0999 V2000
    5.5443   -2.3331    0.0000 S   0  0  0  0  0  0  0  0  0  0  0  0
    6.3543   -2.9195    0.0000 O   0  0  0  0  0  0  0  0  0  0  0  0
    5.2369   -3.2847    0.0000 O   0  0  0  0  0  0  0  0  0  0  0  0
    6.7870    3.0785    0.0000 O   0  0  0  0  0  0  0  0  0  0  0  0
    6.1279   -1.5284    0.0000 N   0  0  3  0  0  0  0  0  0  0  0  0
    5.5443   -0.7236    0.0000 C   0  0  3  0  0  0  0  0  0  0  0  0
    4.5981   -1.0284    0.0000 C   0  0  0  0  0  0  0  0  0  0  0  0
    4.5981   -2.0284    0.0000 C   0  0  0  0  0  0  0  0  0  0  0  0
    5.8550    0.2269    0.0000 C   0  0  0  0  0  0  0  0  0  0  0  0
    3.7320   -0.5284    0.0000 C   0  0  0  0  0  0  0  0  0  0  0  0
    7.1279   -1.5284    0.0000 C   0  0  0  0  0  0  0  0  0  0  0  0
    3.7320   -2.5284    0.0000 C   0  0  0  0  0  0  0  0  0  0  0  0
    2.8660   -1.0284    0.0000 C   0  0  0  0  0  0  0  0  0  0  0  0
    2.8660   -2.0284    0.0000 C   0  0  0  0  0  0  0  0  0  0  0  0
    6.8335    0.4331    0.0000 C   0  0  0  0  0  0  0  0  0  0  0  0
    5.1871    0.9712    0.0000 C   0  0  0  0  0  0  0  0  0  0  0  0
    2.0000   -0.5284    0.0000 C   0  0  0  0  0  0  0  0  0  0  0  0
    7.1441    1.3836    0.0000 C   0  0  0  0  0  0  0  0  0  0  0  0
    5.4978    1.9217    0.0000 C   0  0  0  0  0  0  0  0  0  0  0  0
    6.4763    2.1279    0.0000 C   0  0  0  0  0  0  0  0  0  0  0  0
    7.7654    3.2847    0.0000 C   0  0  0  0  0  0  0  0  0  0  0  0
    6.1568   -0.6274    0.0000 H   0  0  0  0  0  0  0  0  0  0  0  0
    3.7320    0.0916    0.0000 H   0  0  0  0  0  0  0  0  0  0  0  0
    7.1279   -2.1484    0.0000 H   0  0  0  0  0  0  0  0  0  0  0  0
    7.7479   -1.5284    0.0000 H   0  0  0  0  0  0  0  0  0  0  0  0
    7.1279   -0.9084    0.0000 H   0  0  0  0  0  0  0  0  0  0  0  0
    3.7320   -3.1484    0.0000 H   0  0  0  0  0  0  0  0  0  0  0  0
    2.3291   -2.3384    0.0000 H   0  0  0  0  0  0  0  0  0  0  0  0
    7.2475   -0.0284    0.0000 H   0  0  0  0  0  0  0  0  0  0  0  0
    4.5804    0.8433    0.0000 H   0  0  0  0  0  0  0  0  0  0  0  0
    2.3100    0.0086    0.0000 H   0  0  0  0  0  0  0  0  0  0  0  0
    1.4631   -0.2184    0.0000 H   0  0  0  0  0  0  0  0  0  0  0  0
    1.6900   -1.0653    0.0000 H   0  0  0  0  0  0  0  0  0  0  0  0
    7.7508    1.5115    0.0000 H   0  0  0  0  0  0  0  0  0  0  0  0
    5.0837    2.3832    0.0000 H   0  0  0  0  0  0  0  0  0  0  0  0
    7.8933    2.6780    0.0000 H   0  0  0  0  0  0  0  0  0  0  0  0
    8.3721    3.4125    0.0000 H   0  0  0  0  0  0  0  0  0  0  0  0
    7.6376    3.8914    0.0000 H   0  0  0  0  0  0  0  0  0  0  0  0
  1  2  2  0  0  0  0
  1  3  2  0  0  0  0
  1  5  1  0  0  0  0
  1  8  1  0  0  0  0
  4 20  1  0  0  0  0
  4 21  1  0  0  0  0
  5  6  1  0  0  0  0
  5 11  1  0  0  0  0
  6  7  1  0  0  0  0
  6  9  1  0  0  0  0
  6 22  1  0  0  0  0
  7  8  2  0  0  0  0
  7 10  1  0  0  0  0
  8 12  1  0  0  0  0
  9 15  2  0  0  0  0
  9 16  1  0  0  0  0
 10 13  2  0  0  0  0
 10 23  1  0  0  0  0
 11 24  1  0  0  0  0
 11 25  1  0  0  0  0
 11 26  1  0  0  0  0
 12 14  2  0  0  0  0
 12 27  1  0  0  0  0
 13 14  1  0  0  0  0
 13 17  1  0  0  0  0
 14 28  1  0  0  0  0
 15 18  1  0  0  0  0
 15 29  1  0  0  0  0
 16 19  2  0  0  0  0
 16 30  1  0  0  0  0
 17 31  1  0  0  0  0
 17 32  1  0  0  0  0
 17 33  1  0  0  0  0
 18 20  2  0  0  0  0
 18 34  1  0  0  0  0
 19 20  1  0  0  0  0
 19 35  1  0  0  0  0
 21 36  1  0  0  0  0
 21 37  1  0  0  0  0
 21 38  1  0  0  0  0
M  END
> <PUBCHEM_COMPOUND_CID>
510611
> <PUBCHEM_COMPOUND_CANONICALIZED>
1
> <PUBCHEM_CACTVS_COMPLEXITY>
464
> <PUBCHEM_CACTVS_HBOND_ACCEPTOR>
4
> <PUBCHEM_CACTVS_HBOND_DONOR>
0
> <PUBCHEM_CACTVS_ROTATABLE_BOND>
2
> <PUBCHEM_CACTVS_SUBSKEYS>
AAADceB6MABAAAAAAAAAAAAAAAAAAWAAAAAwYAAAAAAAAFgBQAAAHgQAQAAADCzB2AYyB4IABAKAAiBCAHDCCBAgIAAIiBgODIgMJiKEsRuEMChkwBEIqAeQ0OMOMAACAAAEAABgAAQAAAgAAAAAAAAAAA==
> <PUBCHEM_IUPAC_OPENEYE_NAME>
3-(4-methoxyphenyl)-2,5-dimethyl-3H-1,2-benzothiazole 1,1-dioxide
> <PUBCHEM_IUPAC_CAS_NAME>
3-(4-methoxyphenyl)-2,5-dimethyl-3H-1,2-benzothiazole 1,1-dioxide
> <PUBCHEM_IUPAC_NAME_MARKUP>
3-(4-methoxyphenyl)-2,5-dimethyl-3<I>H</I>-1,2-benzothiazole 1,1-dioxide
> <PUBCHEM_IUPAC_NAME>
3-(4-methoxyphenyl)-2,5-dimethyl-3H-1,2-benzothiazole 1,1-dioxide
> <PUBCHEM_IUPAC_SYSTEMATIC_NAME>
3-(4-methoxyphenyl)-2,5-dimethyl-3H-1,2-benzothiazole 1,1-dioxide
> <PUBCHEM_IUPAC_TRADITIONAL_NAME>
3-(4-methoxyphenyl)-2,5-dimethyl-3H-1,2-benzothiazole 1,1-dioxide
> <PUBCHEM_IUPAC_INCHI>
InChI=1S/C16H17NO3S/c1-11-4-9-15-14(10-11)16(17(2)21(15,18)19)12-5-7-13(20-3)8-6-12/h4-10,16H,1-3H3
> <PUBCHEM_IUPAC_INCHIKEY>
HLPWMLZCXFYIEC-UHFFFAOYSA-N
> <PUBCHEM_XLOGP3_AA>
2.7
> <PUBCHEM_EXACT_MASS>
303.09291458
> <PUBCHEM_MOLECULAR_FORMULA>
C16H17NO3S
> <PUBCHEM_MOLECULAR_WEIGHT>
303.4
> <PUBCHEM_OPENEYE_CAN_SMILES>
CC1=CC2=C(C=C1)S(=O)(=O)N(C2C3=CC=C(C=C3)OC)C
> <PUBCHEM_OPENEYE_ISO_SMILES>
CC1=CC2=C(C=C1)S(=O)(=O)N(C2C3=CC=C(C=C3)OC)C
> <PUBCHEM_CACTVS_TPSA>
55
> <PUBCHEM_MONOISOTOPIC_WEIGHT>
303.09291458
> <PUBCHEM_TOTAL_CHARGE>
0
> <PUBCHEM_HEAVY_ATOM_COUNT>
21
> <PUBCHEM_ATOM_DEF_STEREO_COUNT>
0
> <PUBCHEM_ATOM_UDEF_STEREO_COUNT>
1
> <PUBCHEM_BOND_DEF_STEREO_COUNT>
0
> <PUBCHEM_BOND_UDEF_STEREO_COUNT>
0
> <PUBCHEM_ISOTOPIC_ATOM_COUNT>
0
> <PUBCHEM_COMPONENT_COUNT>
1
> <PUBCHEM_CACTVS_TAUTO_COUNT>
-1
> <PUBCHEM_COORDINATE_TYPE>
1
5
255
> <PUBCHEM_BONDANNOTATIONS>
10  13  8
12  14  8
13  14  8
15  18  8
16  19  8
18  20  8
19  20  8
6  9  3
7  10  8
7  8  8
8  12  8
9  15  8
9  16  8
$$$$
