510605
  -OEChem-10302200282D
 35 37  0     1  0  0  0  0  0999 V2000
    4.6783   -1.4127    0.0000 S   0  0  0  0  0  0  0  0  0  0  0  0
    5.4883   -1.9991    0.0000 O   0  0  0  0  0  0  0  0  0  0  0  0
    4.3709   -2.3643    0.0000 O   0  0  0  0  0  0  0  0  0  0  0  0
    8.1240    0.5529    0.0000 O   0  0  0  0  0  0  0  0  0  0  0  0
    5.2619   -0.6079    0.0000 N   0  0  3  0  0  0  0  0  0  0  0  0
    4.6783    0.1968    0.0000 C   0  0  3  0  0  0  0  0  0  0  0  0
    3.7320   -0.1079    0.0000 C   0  0  0  0  0  0  0  0  0  0  0  0
    3.7320   -1.1079    0.0000 C   0  0  0  0  0  0  0  0  0  0  0  0
    5.4883    0.7832    0.0000 C   0  0  0  0  0  0  0  0  0  0  0  0
    4.3709    1.1484    0.0000 C   0  0  0  0  0  0  0  0  0  0  0  0
    6.2619   -0.6079    0.0000 C   0  0  0  0  0  0  0  0  0  0  0  0
    2.8660    0.3921    0.0000 C   0  0  0  0  0  0  0  0  0  0  0  0
    2.8660   -1.6079    0.0000 C   0  0  0  0  0  0  0  0  0  0  0  0
    6.4011    0.3749    0.0000 C   0  0  0  0  0  0  0  0  0  0  0  0
    5.3855    1.7779    0.0000 C   0  0  0  0  0  0  0  0  0  0  0  0
    2.0000   -0.1079    0.0000 C   0  0  0  0  0  0  0  0  0  0  0  0
    2.0000   -1.1079    0.0000 C   0  0  0  0  0  0  0  0  0  0  0  0
    7.2112    0.9612    0.0000 C   0  0  0  0  0  0  0  0  0  0  0  0
    6.1955    2.3643    0.0000 C   0  0  0  0  0  0  0  0  0  0  0  0
    7.1084    1.9560    0.0000 C   0  0  0  0  0  0  0  0  0  0  0  0
    4.9609    1.3390    0.0000 H   0  0  0  0  0  0  0  0  0  0  0  0
    4.1803    1.7384    0.0000 H   0  0  0  0  0  0  0  0  0  0  0  0
    3.7809    0.9578    0.0000 H   0  0  0  0  0  0  0  0  0  0  0  0
    6.2619   -1.2279    0.0000 H   0  0  0  0  0  0  0  0  0  0  0  0
    6.8819   -0.6079    0.0000 H   0  0  0  0  0  0  0  0  0  0  0  0
    6.2619    0.0121    0.0000 H   0  0  0  0  0  0  0  0  0  0  0  0
    2.8660    1.0121    0.0000 H   0  0  0  0  0  0  0  0  0  0  0  0
    2.8660   -2.2279    0.0000 H   0  0  0  0  0  0  0  0  0  0  0  0
    6.4649   -0.2419    0.0000 H   0  0  0  0  0  0  0  0  0  0  0  0
    4.8195    2.0310    0.0000 H   0  0  0  0  0  0  0  0  0  0  0  0
    1.4631    0.2021    0.0000 H   0  0  0  0  0  0  0  0  0  0  0  0
    1.4631   -1.4179    0.0000 H   0  0  0  0  0  0  0  0  0  0  0  0
    6.1318    2.9810    0.0000 H   0  0  0  0  0  0  0  0  0  0  0  0
    7.6106    2.3195    0.0000 H   0  0  0  0  0  0  0  0  0  0  0  0
    8.6262    0.9165    0.0000 H   0  0  0  0  0  0  0  0  0  0  0  0
  1  2  2  0  0  0  0
  1  3  2  0  0  0  0
  1  5  1  0  0  0  0
  1  8  1  0  0  0  0
  4 18  1  0  0  0  0
  4 35  1  0  0  0  0
  5  6  1  0  0  0  0
  5 11  1  0  0  0  0
  6  7  1  0  0  0  0
  6  9  1  0  0  0  0
  6 10  1  0  0  0  0
  7  8  1  0  0  0  0
  7 12  2  0  0  0  0
  8 13  2  0  0  0  0
  9 14  2  0  0  0  0
  9 15  1  0  0  0  0
 10 21  1  0  0  0  0
 10 22  1  0  0  0  0
 10 23  1  0  0  0  0
 11 24  1  0  0  0  0
 11 25  1  0  0  0  0
 11 26  1  0  0  0  0
 12 16  1  0  0  0  0
 12 27  1  0  0  0  0
 13 17  1  0  0  0  0
 13 28  1  0  0  0  0
 14 18  1  0  0  0  0
 14 29  1  0  0  0  0
 15 19  2  0  0  0  0
 15 30  1  0  0  0  0
 16 17  2  0  0  0  0
 16 31  1  0  0  0  0
 17 32  1  0  0  0  0
 18 20  2  0  0  0  0
 19 20  1  0  0  0  0
 19 33  1  0  0  0  0
 20 34  1  0  0  0  0
M  END
> <PUBCHEM_COMPOUND_CID>
510605
> <PUBCHEM_COMPOUND_CANONICALIZED>
1
> <PUBCHEM_CACTVS_COMPLEXITY>
472
> <PUBCHEM_CACTVS_HBOND_ACCEPTOR>
4
> <PUBCHEM_CACTVS_HBOND_DONOR>
1
> <PUBCHEM_CACTVS_ROTATABLE_BOND>
1
> <PUBCHEM_CACTVS_SUBSKEYS>
AAADccByMABAAAAAAAAAAAAAAAAAAWAAAAAwYAAAAAAAAFgBQAAAHgQASAAADIyB2AQyB4IAAgKAAiBCAHDCABAgIAAIiBgODIgIJiKCkROEcAhkwBEImAewwPAOgAABAAAEAAAAAAIAAAgAAAAAAAAAAA==
> <PUBCHEM_IUPAC_OPENEYE_NAME>
3-(2,3-dimethyl-1,1-dioxo-1,2-benzothiazol-3-yl)phenol
> <PUBCHEM_IUPAC_CAS_NAME>
3-(2,3-dimethyl-1,1-dioxo-1,2-benzothiazol-3-yl)phenol
> <PUBCHEM_IUPAC_NAME_MARKUP>
3-(2,3-dimethyl-1,1-dioxo-1,2-benzothiazol-3-yl)phenol
> <PUBCHEM_IUPAC_NAME>
3-(2,3-dimethyl-1,1-dioxo-1,2-benzothiazol-3-yl)phenol
> <PUBCHEM_IUPAC_SYSTEMATIC_NAME>
3-[2,3-dimethyl-1,1-bis(oxidanylidene)-1,2-benzothiazol-3-yl]phenol
> <PUBCHEM_IUPAC_TRADITIONAL_NAME>
3-(1,1-diketo-2,3-dimethyl-1,2-benzothiazol-3-yl)phenol
> <PUBCHEM_IUPAC_INCHI>
InChI=1S/C15H15NO3S/c1-15(11-6-5-7-12(17)10-11)13-8-3-4-9-14(13)20(18,19)16(15)2/h3-10,17H,1-2H3
> <PUBCHEM_IUPAC_INCHIKEY>
ZCZWSAHDPNLIAU-UHFFFAOYSA-N
> <PUBCHEM_XLOGP3_AA>
2.2
> <PUBCHEM_EXACT_MASS>
289.07726451
> <PUBCHEM_MOLECULAR_FORMULA>
C15H15NO3S
> <PUBCHEM_MOLECULAR_WEIGHT>
289.4
> <PUBCHEM_OPENEYE_CAN_SMILES>
CC1(C2=CC=CC=C2S(=O)(=O)N1C)C3=CC(=CC=C3)O
> <PUBCHEM_OPENEYE_ISO_SMILES>
CC1(C2=CC=CC=C2S(=O)(=O)N1C)C3=CC(=CC=C3)O
> <PUBCHEM_CACTVS_TPSA>
66
> <PUBCHEM_MONOISOTOPIC_WEIGHT>
289.07726451
> <PUBCHEM_TOTAL_CHARGE>
0
> <PUBCHEM_HEAVY_ATOM_COUNT>
20
> <PUBCHEM_ATOM_DEF_STEREO_COUNT>
0
> <PUBCHEM_ATOM_UDEF_STEREO_COUNT>
1
> <PUBCHEM_BOND_DEF_STEREO_COUNT>
0
> <PUBCHEM_BOND_UDEF_STEREO_COUNT>
0
> <PUBCHEM_ISOTOPIC_ATOM_COUNT>
0
> <PUBCHEM_COMPONENT_COUNT>
1
> <PUBCHEM_CACTVS_TAUTO_COUNT>
-1
> <PUBCHEM_COORDINATE_TYPE>
1
5
255
> <PUBCHEM_BONDANNOTATIONS>
12  16  8
13  17  8
14  18  8
15  19  8
16  17  8
18  20  8
19  20  8
6  10  3
7  12  8
7  8  8
8  13  8
9  14  8
9  15  8
$$$$
