510606
  -OEChem-10302200282D
 34 36  0     1  0  0  0  0  0999 V2000
    4.6783   -1.2805    0.0000 S   0  0  0  0  0  0  0  0  0  0  0  0
    4.0635    2.2321    0.0000 F   0  0  0  0  0  0  0  0  0  0  0  0
    3.4193    0.9732    0.0000 F   0  0  0  0  0  0  0  0  0  0  0  0
    5.1600    1.8948    0.0000 F   0  0  0  0  0  0  0  0  0  0  0  0
    4.3709   -2.2321    0.0000 O   0  0  0  0  0  0  0  0  0  0  0  0
    5.4883   -1.8669    0.0000 O   0  0  0  0  0  0  0  0  0  0  0  0
    5.2619   -0.4758    0.0000 N   0  0  3  0  0  0  0  0  0  0  0  0
    4.6783    0.3289    0.0000 C   0  0  3  0  0  0  0  0  0  0  0  0
    3.7320    0.0242    0.0000 C   0  0  0  0  0  0  0  0  0  0  0  0
    3.7320   -0.9758    0.0000 C   0  0  0  0  0  0  0  0  0  0  0  0
    5.6400    0.6029    0.0000 C   0  0  0  0  0  0  0  0  0  0  0  0
    4.3709    1.2805    0.0000 C   0  0  0  0  0  0  0  0  0  0  0  0
    6.1279   -0.9758    0.0000 C   0  0  0  0  0  0  0  0  0  0  0  0
    2.8660    0.5242    0.0000 C   0  0  0  0  0  0  0  0  0  0  0  0
    2.8660   -1.4758    0.0000 C   0  0  0  0  0  0  0  0  0  0  0  0
    5.8836    1.5728    0.0000 C   0  0  0  0  0  0  0  0  0  0  0  0
    6.3581   -0.0930    0.0000 C   0  0  0  0  0  0  0  0  0  0  0  0
    2.0000    0.0242    0.0000 C   0  0  0  0  0  0  0  0  0  0  0  0
    2.0000   -0.9758    0.0000 C   0  0  0  0  0  0  0  0  0  0  0  0
    6.8454    1.8468    0.0000 C   0  0  0  0  0  0  0  0  0  0  0  0
    7.3199    0.1810    0.0000 C   0  0  0  0  0  0  0  0  0  0  0  0
    7.5635    1.1509    0.0000 C   0  0  0  0  0  0  0  0  0  0  0  0
    5.8179   -1.5127    0.0000 H   0  0  0  0  0  0  0  0  0  0  0  0
    6.6648   -1.2858    0.0000 H   0  0  0  0  0  0  0  0  0  0  0  0
    6.4379   -0.4389    0.0000 H   0  0  0  0  0  0  0  0  0  0  0  0
    2.8660    1.1442    0.0000 H   0  0  0  0  0  0  0  0  0  0  0  0
    2.8660   -2.0958    0.0000 H   0  0  0  0  0  0  0  0  0  0  0  0
    5.4384    2.0042    0.0000 H   0  0  0  0  0  0  0  0  0  0  0  0
    6.2071   -0.6943    0.0000 H   0  0  0  0  0  0  0  0  0  0  0  0
    1.4631    0.3342    0.0000 H   0  0  0  0  0  0  0  0  0  0  0  0
    1.4631   -1.2858    0.0000 H   0  0  0  0  0  0  0  0  0  0  0  0
    6.9964    2.4481    0.0000 H   0  0  0  0  0  0  0  0  0  0  0  0
    7.7651   -0.2505    0.0000 H   0  0  0  0  0  0  0  0  0  0  0  0
    8.1598    1.3207    0.0000 H   0  0  0  0  0  0  0  0  0  0  0  0
  1  5  2  0  0  0  0
  1  6  2  0  0  0  0
  1  7  1  0  0  0  0
  1 10  1  0  0  0  0
  2 12  1  0  0  0  0
  3 12  1  0  0  0  0
  4 12  1  0  0  0  0
  7  8  1  0  0  0  0
  7 13  1  0  0  0  0
  8  9  1  0  0  0  0
  8 11  1  0  0  0  0
  8 12  1  0  0  0  0
  9 10  1  0  0  0  0
  9 14  2  0  0  0  0
 10 15  2  0  0  0  0
 11 16  2  0  0  0  0
 11 17  1  0  0  0  0
 13 23  1  0  0  0  0
 13 24  1  0  0  0  0
 13 25  1  0  0  0  0
 14 18  1  0  0  0  0
 14 26  1  0  0  0  0
 15 19  1  0  0  0  0
 15 27  1  0  0  0  0
 16 20  1  0  0  0  0
 16 28  1  0  0  0  0
 17 21  2  0  0  0  0
 17 29  1  0  0  0  0
 18 19  2  0  0  0  0
 18 30  1  0  0  0  0
 19 31  1  0  0  0  0
 20 22  2  0  0  0  0
 20 32  1  0  0  0  0
 21 22  1  0  0  0  0
 21 33  1  0  0  0  0
 22 34  1  0  0  0  0
M  END
> <PUBCHEM_COMPOUND_CID>
510606
> <PUBCHEM_COMPOUND_CANONICALIZED>
1
> <PUBCHEM_CACTVS_COMPLEXITY>
522
> <PUBCHEM_CACTVS_HBOND_ACCEPTOR>
6
> <PUBCHEM_CACTVS_HBOND_DONOR>
0
> <PUBCHEM_CACTVS_ROTATABLE_BOND>
1
> <PUBCHEM_CACTVS_SUBSKEYS>
AAADccByMYBAAAAAAAAAAAAAAAAAAWAAAAAwYAAAAAAAAFgBQAAAHQQAQAAADIiBWBQyAYIAAAKAAiBCAHDCABAgAAAIiBgIBIgIICKAkRGEIAhggAAIiAcQgMAOgAAAAAAEAAAAAAAAAAgAAAAAAAAAAA==
> <PUBCHEM_IUPAC_OPENEYE_NAME>
2-methyl-3-phenyl-3-(trifluoromethyl)-1,2-benzothiazole 1,1-dioxide
> <PUBCHEM_IUPAC_CAS_NAME>
2-methyl-3-phenyl-3-(trifluoromethyl)-1,2-benzothiazole 1,1-dioxide
> <PUBCHEM_IUPAC_NAME_MARKUP>
2-methyl-3-phenyl-3-(trifluoromethyl)-1,2-benzothiazole 1,1-dioxide
> <PUBCHEM_IUPAC_NAME>
2-methyl-3-phenyl-3-(trifluoromethyl)-1,2-benzothiazole 1,1-dioxide
> <PUBCHEM_IUPAC_SYSTEMATIC_NAME>
2-methyl-3-phenyl-3-(trifluoromethyl)-1,2-benzothiazole 1,1-dioxide
> <PUBCHEM_IUPAC_TRADITIONAL_NAME>
2-methyl-3-phenyl-3-(trifluoromethyl)-1,2-benzothiazole 1,1-dioxide
> <PUBCHEM_IUPAC_INCHI>
InChI=1S/C15H12F3NO2S/c1-19-14(15(16,17)18,11-7-3-2-4-8-11)12-9-5-6-10-13(12)22(19,20)21/h2-10H,1H3
> <PUBCHEM_IUPAC_INCHIKEY>
KFDLGYIVLWNZBX-UHFFFAOYSA-N
> <PUBCHEM_XLOGP3_AA>
3.3
> <PUBCHEM_EXACT_MASS>
327.05408429
> <PUBCHEM_MOLECULAR_FORMULA>
C15H12F3NO2S
> <PUBCHEM_MOLECULAR_WEIGHT>
327.3
> <PUBCHEM_OPENEYE_CAN_SMILES>
CN1C(C2=CC=CC=C2S1(=O)=O)(C3=CC=CC=C3)C(F)(F)F
> <PUBCHEM_OPENEYE_ISO_SMILES>
CN1C(C2=CC=CC=C2S1(=O)=O)(C3=CC=CC=C3)C(F)(F)F
> <PUBCHEM_CACTVS_TPSA>
45.8
> <PUBCHEM_MONOISOTOPIC_WEIGHT>
327.05408429
> <PUBCHEM_TOTAL_CHARGE>
0
> <PUBCHEM_HEAVY_ATOM_COUNT>
22
> <PUBCHEM_ATOM_DEF_STEREO_COUNT>
0
> <PUBCHEM_ATOM_UDEF_STEREO_COUNT>
1
> <PUBCHEM_BOND_DEF_STEREO_COUNT>
0
> <PUBCHEM_BOND_UDEF_STEREO_COUNT>
0
> <PUBCHEM_ISOTOPIC_ATOM_COUNT>
0
> <PUBCHEM_COMPONENT_COUNT>
1
> <PUBCHEM_CACTVS_TAUTO_COUNT>
-1
> <PUBCHEM_COORDINATE_TYPE>
1
5
255
> <PUBCHEM_BONDANNOTATIONS>
10  15  8
11  16  8
11  17  8
14  18  8
15  19  8
16  20  8
17  21  8
18  19  8
20  22  8
21  22  8
8  12  3
9  10  8
9  14  8
$$$$
