510615
  -OEChem-10302200282D
 37 39  0     1  0  0  0  0  0999 V2000
    2.0000    0.0500    0.0000 Cl  0  0  0  0  0  0  0  0  0  0  0  0
    5.5443   -1.7547    0.0000 S   0  0  0  0  0  0  0  0  0  0  0  0
    6.3543   -2.3411    0.0000 O   0  0  0  0  0  0  0  0  0  0  0  0
    5.2369   -2.7063    0.0000 O   0  0  0  0  0  0  0  0  0  0  0  0
    6.1279   -0.9500    0.0000 N   0  0  3  0  0  0  0  0  0  0  0  0
    5.5443   -0.1453    0.0000 C   0  0  3  0  0  0  0  0  0  0  0  0
    4.5981   -0.4500    0.0000 C   0  0  0  0  0  0  0  0  0  0  0  0
    4.5981   -1.4500    0.0000 C   0  0  0  0  0  0  0  0  0  0  0  0
    7.1279   -0.9500    0.0000 C   0  0  0  0  0  0  0  0  0  0  0  0
    5.8550    0.8053    0.0000 C   0  0  0  0  0  0  0  0  0  0  0  0
    7.6279   -1.8160    0.0000 C   0  0  0  0  0  0  0  0  0  0  0  0
    3.7320    0.0500    0.0000 C   0  0  0  0  0  0  0  0  0  0  0  0
    3.7320   -1.9500    0.0000 C   0  0  0  0  0  0  0  0  0  0  0  0
    5.1871    1.5496    0.0000 C   0  0  0  0  0  0  0  0  0  0  0  0
    6.8335    1.0115    0.0000 C   0  0  0  0  0  0  0  0  0  0  0  0
    2.8660   -0.4500    0.0000 C   0  0  0  0  0  0  0  0  0  0  0  0
    2.8660   -1.4500    0.0000 C   0  0  0  0  0  0  0  0  0  0  0  0
    8.6279   -1.8160    0.0000 C   0  0  0  0  0  0  0  0  0  0  0  0
    5.4978    2.5001    0.0000 C   0  0  0  0  0  0  0  0  0  0  0  0
    7.1441    1.9620    0.0000 C   0  0  0  0  0  0  0  0  0  0  0  0
    6.4763    2.7063    0.0000 C   0  0  0  0  0  0  0  0  0  0  0  0
    6.1568   -0.0491    0.0000 H   0  0  0  0  0  0  0  0  0  0  0  0
    7.7105   -0.7379    0.0000 H   0  0  0  0  0  0  0  0  0  0  0  0
    7.0202   -0.3394    0.0000 H   0  0  0  0  0  0  0  0  0  0  0  0
    7.0453   -2.0281    0.0000 H   0  0  0  0  0  0  0  0  0  0  0  0
    7.7356   -2.4266    0.0000 H   0  0  0  0  0  0  0  0  0  0  0  0
    3.7320    0.6700    0.0000 H   0  0  0  0  0  0  0  0  0  0  0  0
    3.7320   -2.5700    0.0000 H   0  0  0  0  0  0  0  0  0  0  0  0
    4.5804    1.4217    0.0000 H   0  0  0  0  0  0  0  0  0  0  0  0
    7.2475    0.5500    0.0000 H   0  0  0  0  0  0  0  0  0  0  0  0
    2.3291   -1.7600    0.0000 H   0  0  0  0  0  0  0  0  0  0  0  0
    8.6279   -2.4360    0.0000 H   0  0  0  0  0  0  0  0  0  0  0  0
    9.2479   -1.8160    0.0000 H   0  0  0  0  0  0  0  0  0  0  0  0
    8.6279   -1.1960    0.0000 H   0  0  0  0  0  0  0  0  0  0  0  0
    5.0837    2.9616    0.0000 H   0  0  0  0  0  0  0  0  0  0  0  0
    7.7508    2.0899    0.0000 H   0  0  0  0  0  0  0  0  0  0  0  0
    6.6689    3.2956    0.0000 H   0  0  0  0  0  0  0  0  0  0  0  0
  1 16  1  0  0  0  0
  2  3  2  0  0  0  0
  2  4  2  0  0  0  0
  2  5  1  0  0  0  0
  2  8  1  0  0  0  0
  5  6  1  0  0  0  0
  5  9  1  0  0  0  0
  6  7  1  0  0  0  0
  6 10  1  0  0  0  0
  6 22  1  0  0  0  0
  7  8  2  0  0  0  0
  7 12  1  0  0  0  0
  8 13  1  0  0  0  0
  9 11  1  0  0  0  0
  9 23  1  0  0  0  0
  9 24  1  0  0  0  0
 10 14  2  0  0  0  0
 10 15  1  0  0  0  0
 11 18  1  0  0  0  0
 11 25  1  0  0  0  0
 11 26  1  0  0  0  0
 12 16  2  0  0  0  0
 12 27  1  0  0  0  0
 13 17  2  0  0  0  0
 13 28  1  0  0  0  0
 14 19  1  0  0  0  0
 14 29  1  0  0  0  0
 15 20  2  0  0  0  0
 15 30  1  0  0  0  0
 16 17  1  0  0  0  0
 17 31  1  0  0  0  0
 18 32  1  0  0  0  0
 18 33  1  0  0  0  0
 18 34  1  0  0  0  0
 19 21  2  0  0  0  0
 19 35  1  0  0  0  0
 20 21  1  0  0  0  0
 20 36  1  0  0  0  0
 21 37  1  0  0  0  0
M  END
> <PUBCHEM_COMPOUND_CID>
510615
> <PUBCHEM_COMPOUND_CANONICALIZED>
1
> <PUBCHEM_CACTVS_COMPLEXITY>
455
> <PUBCHEM_CACTVS_HBOND_ACCEPTOR>
3
> <PUBCHEM_CACTVS_HBOND_DONOR>
0
> <PUBCHEM_CACTVS_ROTATABLE_BOND>
3
> <PUBCHEM_CACTVS_SUBSKEYS>
AAADceB6MABEAAAAAAAAAAAAAAAAAWAAAAAwYAAAAAAAAFgBQAAAHAYAQAAADCrBWCQyAYIAAAKAAiBCAHDCABAgBQAIiBgIBogIICKBkxGEIAhggACIiAcQgMAOAAIAIAAEAAAABABAAAgAAAAAAAAAAA==
> <PUBCHEM_IUPAC_OPENEYE_NAME>
5-chloro-3-phenyl-2-propyl-3H-1,2-benzothiazole 1,1-dioxide
> <PUBCHEM_IUPAC_CAS_NAME>
5-chloro-3-phenyl-2-propyl-3H-1,2-benzothiazole 1,1-dioxide
> <PUBCHEM_IUPAC_NAME_MARKUP>
5-chloro-3-phenyl-2-propyl-3<I>H</I>-1,2-benzothiazole 1,1-dioxide
> <PUBCHEM_IUPAC_NAME>
5-chloro-3-phenyl-2-propyl-3H-1,2-benzothiazole 1,1-dioxide
> <PUBCHEM_IUPAC_SYSTEMATIC_NAME>
5-chloranyl-3-phenyl-2-propyl-3H-1,2-benzothiazole 1,1-dioxide
> <PUBCHEM_IUPAC_TRADITIONAL_NAME>
5-chloro-3-phenyl-2-propyl-3H-1,2-benzothiazole 1,1-dioxide
> <PUBCHEM_IUPAC_INCHI>
InChI=1S/C16H16ClNO2S/c1-2-10-18-16(12-6-4-3-5-7-12)14-11-13(17)8-9-15(14)21(18,19)20/h3-9,11,16H,2,10H2,1H3
> <PUBCHEM_IUPAC_INCHIKEY>
GUYQZODEOXPBRD-UHFFFAOYSA-N
> <PUBCHEM_XLOGP3_AA>
3.9
> <PUBCHEM_EXACT_MASS>
321.0590276
> <PUBCHEM_MOLECULAR_FORMULA>
C16H16ClNO2S
> <PUBCHEM_MOLECULAR_WEIGHT>
321.8
> <PUBCHEM_OPENEYE_CAN_SMILES>
CCCN1C(C2=C(S1(=O)=O)C=CC(=C2)Cl)C3=CC=CC=C3
> <PUBCHEM_OPENEYE_ISO_SMILES>
CCCN1C(C2=C(S1(=O)=O)C=CC(=C2)Cl)C3=CC=CC=C3
> <PUBCHEM_CACTVS_TPSA>
45.8
> <PUBCHEM_MONOISOTOPIC_WEIGHT>
321.0590276
> <PUBCHEM_TOTAL_CHARGE>
0
> <PUBCHEM_HEAVY_ATOM_COUNT>
21
> <PUBCHEM_ATOM_DEF_STEREO_COUNT>
0
> <PUBCHEM_ATOM_UDEF_STEREO_COUNT>
1
> <PUBCHEM_BOND_DEF_STEREO_COUNT>
0
> <PUBCHEM_BOND_UDEF_STEREO_COUNT>
0
> <PUBCHEM_ISOTOPIC_ATOM_COUNT>
0
> <PUBCHEM_COMPONENT_COUNT>
1
> <PUBCHEM_CACTVS_TAUTO_COUNT>
-1
> <PUBCHEM_COORDINATE_TYPE>
1
5
255
> <PUBCHEM_BONDANNOTATIONS>
10  14  8
10  15  8
12  16  8
13  17  8
14  19  8
15  20  8
16  17  8
19  21  8
20  21  8
6  10  3
7  12  8
7  8  8
8  13  8
$$$$
