510753
  -OEChem-10302200282D
 43 44  0     1  0  0  0  0  0999 V2000
    5.4641   -1.5600    0.0000 O   0  0  0  0  0  0  0  0  0  0  0  0
    2.8660    0.9400    0.0000 O   0  0  0  0  0  0  0  0  0  0  0  0
    2.0000    2.4400    0.0000 O   0  0  0  0  0  0  0  0  0  0  0  0
    2.0000    4.4400    0.0000 O   0  0  0  0  0  0  0  0  0  0  0  0
    3.7320    4.4400    0.0000 O   0  0  0  0  0  0  0  0  0  0  0  0
    2.0000   -2.5600    0.0000 N   0  0  0  0  0  0  0  0  0  0  0  0
    4.5981   -2.0600    0.0000 C   0  0  3  0  0  0  0  0  0  0  0  0
    4.5981   -3.0600    0.0000 C   0  0  0  0  0  0  0  0  0  0  0  0
    3.7320   -3.5600    0.0000 C   0  0  0  0  0  0  0  0  0  0  0  0
    3.7320   -1.5600    0.0000 C   0  0  0  0  0  0  0  0  0  0  0  0
    3.7320   -4.5600    0.0000 C   0  0  0  0  0  0  0  0  0  0  0  0
    5.4641   -3.5600    0.0000 C   0  0  0  0  0  0  0  0  0  0  0  0
    5.4641   -0.5600    0.0000 C   0  0  0  0  0  0  0  0  0  0  0  0
    4.5981   -5.0600    0.0000 C   0  0  0  0  0  0  0  0  0  0  0  0
    5.4641   -4.5600    0.0000 C   0  0  0  0  0  0  0  0  0  0  0  0
    4.5981   -0.0600    0.0000 C   0  0  0  0  0  0  0  0  0  0  0  0
    4.5981    0.9400    0.0000 C   0  0  0  0  0  0  0  0  0  0  0  0
    6.3301   -0.0600    0.0000 C   0  0  0  0  0  0  0  0  0  0  0  0
    2.8660   -5.0600    0.0000 C   0  0  0  0  0  0  0  0  0  0  0  0
    5.4641    1.4400    0.0000 C   0  0  0  0  0  0  0  0  0  0  0  0
    6.3301    0.9400    0.0000 C   0  0  0  0  0  0  0  0  0  0  0  0
    3.7320    1.4400    0.0000 C   0  0  0  0  0  0  0  0  0  0  0  0
    3.7320    2.4400    0.0000 C   0  0  0  0  0  0  0  0  0  0  0  0
    2.8660   -3.0600    0.0000 C   0  0  0  0  0  0  0  0  0  0  0  0
    2.8660    2.9400    0.0000 C   0  0  0  0  0  0  0  0  0  0  0  0
    2.8660    3.9400    0.0000 C   0  0  0  0  0  0  0  0  0  0  0  0
    4.5981   -1.4400    0.0000 H   0  0  0  0  0  0  0  0  0  0  0  0
    4.0420   -1.0231    0.0000 H   0  0  0  0  0  0  0  0  0  0  0  0
    3.1951   -1.2500    0.0000 H   0  0  0  0  0  0  0  0  0  0  0  0
    3.4220   -2.0969    0.0000 H   0  0  0  0  0  0  0  0  0  0  0  0
    6.0010   -3.2500    0.0000 H   0  0  0  0  0  0  0  0  0  0  0  0
    4.5981   -5.6800    0.0000 H   0  0  0  0  0  0  0  0  0  0  0  0
    6.0010   -4.8700    0.0000 H   0  0  0  0  0  0  0  0  0  0  0  0
    4.0611   -0.3700    0.0000 H   0  0  0  0  0  0  0  0  0  0  0  0
    6.8671   -0.3700    0.0000 H   0  0  0  0  0  0  0  0  0  0  0  0
    2.5560   -4.5231    0.0000 H   0  0  0  0  0  0  0  0  0  0  0  0
    2.3291   -5.3700    0.0000 H   0  0  0  0  0  0  0  0  0  0  0  0
    3.1760   -5.5969    0.0000 H   0  0  0  0  0  0  0  0  0  0  0  0
    5.4641    2.0600    0.0000 H   0  0  0  0  0  0  0  0  0  0  0  0
    6.8671    1.2500    0.0000 H   0  0  0  0  0  0  0  0  0  0  0  0
    4.3426    2.3323    0.0000 H   0  0  0  0  0  0  0  0  0  0  0  0
    3.9441    3.0226    0.0000 H   0  0  0  0  0  0  0  0  0  0  0  0
    2.0000    5.0600    0.0000 H   0  0  0  0  0  0  0  0  0  0  0  0
  1  7  1  0  0  0  0
  1 13  1  0  0  0  0
  2 22  2  0  0  0  0
  3 25  2  0  0  0  0
  4 26  1  0  0  0  0
  4 43  1  0  0  0  0
  5 26  2  0  0  0  0
  6 24  3  0  0  0  0
  7  8  1  0  0  0  0
  7 10  1  0  0  0  0
  7 27  1  0  0  0  0
  8  9  1  0  0  0  0
  8 12  2  0  0  0  0
  9 11  2  0  0  0  0
  9 24  1  0  0  0  0
 10 28  1  0  0  0  0
 10 29  1  0  0  0  0
 10 30  1  0  0  0  0
 11 14  1  0  0  0  0
 11 19  1  0  0  0  0
 12 15  1  0  0  0  0
 12 31  1  0  0  0  0
 13 16  1  0  0  0  0
 13 18  2  0  0  0  0
 14 15  2  0  0  0  0
 14 32  1  0  0  0  0
 15 33  1  0  0  0  0
 16 17  2  0  0  0  0
 16 34  1  0  0  0  0
 17 20  1  0  0  0  0
 17 22  1  0  0  0  0
 18 21  1  0  0  0  0
 18 35  1  0  0  0  0
 19 36  1  0  0  0  0
 19 37  1  0  0  0  0
 19 38  1  0  0  0  0
 20 21  2  0  0  0  0
 20 39  1  0  0  0  0
 21 40  1  0  0  0  0
 22 23  1  0  0  0  0
 23 25  1  0  0  0  0
 23 41  1  0  0  0  0
 23 42  1  0  0  0  0
 25 26  1  0  0  0  0
M  END
> <PUBCHEM_COMPOUND_CID>
510753
> <PUBCHEM_COMPOUND_CANONICALIZED>
1
> <PUBCHEM_CACTVS_COMPLEXITY>
592
> <PUBCHEM_CACTVS_HBOND_ACCEPTOR>
6
> <PUBCHEM_CACTVS_HBOND_DONOR>
1
> <PUBCHEM_CACTVS_ROTATABLE_BOND>
7
> <PUBCHEM_CACTVS_SUBSKEYS>
AAADceB6OAAAAAAAAAAAAAAAAAAAAAAAAAAwYAAAAAAAAAABQAAAHgAACAAADBShmAIyDoAABgCYBqDSCAIiCAAkIAAIiAFGCMgMpjKMNRqCeSCkwBEIqY+LyPCOgAADAAAQAAAAAAYAACAAAAAAAAAAAA==
> <PUBCHEM_IUPAC_OPENEYE_NAME>
4-[3-[1-(2-cyano-3-methyl-phenyl)ethoxy]phenyl]-2,4-dioxo-butanoic acid
> <PUBCHEM_IUPAC_CAS_NAME>
4-[3-[1-(2-cyano-3-methylphenyl)ethoxy]phenyl]-2,4-dioxobutanoic acid
> <PUBCHEM_IUPAC_NAME_MARKUP>
4-[3-[1-(2-cyano-3-methylphenyl)ethoxy]phenyl]-2,4-dioxobutanoic acid
> <PUBCHEM_IUPAC_NAME>
4-[3-[1-(2-cyano-3-methylphenyl)ethoxy]phenyl]-2,4-dioxobutanoic acid
> <PUBCHEM_IUPAC_SYSTEMATIC_NAME>
4-[3-[1-(2-cyano-3-methyl-phenyl)ethoxy]phenyl]-2,4-bis(oxidanylidene)butanoic acid
> <PUBCHEM_IUPAC_TRADITIONAL_NAME>
4-[3-[1-(2-cyano-3-methyl-phenyl)ethoxy]phenyl]-2,4-diketo-butyric acid
> <PUBCHEM_IUPAC_INCHI>
InChI=1S/C20H17NO5/c1-12-5-3-8-16(17(12)11-21)13(2)26-15-7-4-6-14(9-15)18(22)10-19(23)20(24)25/h3-9,13H,10H2,1-2H3,(H,24,25)
> <PUBCHEM_IUPAC_INCHIKEY>
NTMMMZNCJWSSPO-UHFFFAOYSA-N
> <PUBCHEM_XLOGP3_AA>
3.1
> <PUBCHEM_EXACT_MASS>
351.11067264
> <PUBCHEM_MOLECULAR_FORMULA>
C20H17NO5
> <PUBCHEM_MOLECULAR_WEIGHT>
351.4
> <PUBCHEM_OPENEYE_CAN_SMILES>
CC1=C(C(=CC=C1)C(C)OC2=CC=CC(=C2)C(=O)CC(=O)C(=O)O)C#N
> <PUBCHEM_OPENEYE_ISO_SMILES>
CC1=C(C(=CC=C1)C(C)OC2=CC=CC(=C2)C(=O)CC(=O)C(=O)O)C#N
> <PUBCHEM_CACTVS_TPSA>
105
> <PUBCHEM_MONOISOTOPIC_WEIGHT>
351.11067264
> <PUBCHEM_TOTAL_CHARGE>
0
> <PUBCHEM_HEAVY_ATOM_COUNT>
26
> <PUBCHEM_ATOM_DEF_STEREO_COUNT>
0
> <PUBCHEM_ATOM_UDEF_STEREO_COUNT>
1
> <PUBCHEM_BOND_DEF_STEREO_COUNT>
0
> <PUBCHEM_BOND_UDEF_STEREO_COUNT>
0
> <PUBCHEM_ISOTOPIC_ATOM_COUNT>
0
> <PUBCHEM_COMPONENT_COUNT>
1
> <PUBCHEM_CACTVS_TAUTO_COUNT>
-1
> <PUBCHEM_COORDINATE_TYPE>
1
5
255
> <PUBCHEM_BONDANNOTATIONS>
11  14  8
12  15  8
13  16  8
13  18  8
14  15  8
16  17  8
17  20  8
18  21  8
20  21  8
7  10  3
8  12  8
8  9  8
9  11  8
$$$$
