510865
  -OEChem-10302200282D
 55 56  0     1  0  0  0  0  0999 V2000
    2.0000    2.0670    0.0000 Cl  0  0  0  0  0  0  0  0  0  0  0  0
    8.2320   -0.7990    0.0000 S   0  0  0  0  0  0  0  0  0  0  0  0
    6.5000    2.9330    0.0000 O   0  0  0  0  0  0  0  0  0  0  0  0
    7.7320   -1.6651    0.0000 O   0  0  0  0  0  0  0  0  0  0  0  0
    8.7320    0.0670    0.0000 O   0  0  0  0  0  0  0  0  0  0  0  0
    8.0000    3.7990    0.0000 O   0  0  0  0  0  0  0  0  0  0  0  0
   10.0000    3.7990    0.0000 O   0  0  0  0  0  0  0  0  0  0  0  0
   10.0000    2.0670    0.0000 O   0  0  0  0  0  0  0  0  0  0  0  0
    7.3660   -0.2990    0.0000 N   0  0  3  0  0  0  0  0  0  0  0  0
    6.5000    1.2010    0.0000 C   0  0  3  0  0  0  0  0  0  0  0  0
    7.3660    0.7010    0.0000 C   0  0  0  0  0  0  0  0  0  0  0  0
    5.6340    0.7010    0.0000 C   0  0  0  0  0  0  0  0  0  0  0  0
    5.6340   -0.2990    0.0000 C   0  0  0  0  0  0  0  0  0  0  0  0
    6.5000   -0.7990    0.0000 C   0  0  0  0  0  0  0  0  0  0  0  0
    6.0000    2.0670    0.0000 C   0  0  0  0  0  0  0  0  0  0  0  0
    7.0000    2.0670    0.0000 C   0  0  0  0  0  0  0  0  0  0  0  0
    5.0000    2.0670    0.0000 C   0  0  0  0  0  0  0  0  0  0  0  0
    9.0981   -1.2990    0.0000 C   0  0  0  0  0  0  0  0  0  0  0  0
    8.0000    2.0670    0.0000 C   0  0  0  0  0  0  0  0  0  0  0  0
    9.0981   -2.2990    0.0000 C   0  0  0  0  0  0  0  0  0  0  0  0
    4.5000    1.2010    0.0000 C   0  0  0  0  0  0  0  0  0  0  0  0
    4.5000    2.9330    0.0000 C   0  0  0  0  0  0  0  0  0  0  0  0
    8.5000    2.9330    0.0000 C   0  0  0  0  0  0  0  0  0  0  0  0
    9.9641   -2.7990    0.0000 C   0  0  0  0  0  0  0  0  0  0  0  0
    3.5000    1.2010    0.0000 C   0  0  0  0  0  0  0  0  0  0  0  0
    3.5000    2.9330    0.0000 C   0  0  0  0  0  0  0  0  0  0  0  0
    3.0000    2.0670    0.0000 C   0  0  0  0  0  0  0  0  0  0  0  0
    9.9641   -3.7990    0.0000 C   0  0  0  0  0  0  0  0  0  0  0  0
    9.5000    2.9330    0.0000 C   0  0  0  0  0  0  0  0  0  0  0  0
    7.9766    0.5933    0.0000 H   0  0  0  0  0  0  0  0  0  0  0  0
    7.5781    1.2836    0.0000 H   0  0  0  0  0  0  0  0  0  0  0  0
    5.4219    1.2836    0.0000 H   0  0  0  0  0  0  0  0  0  0  0  0
    5.0234    0.5933    0.0000 H   0  0  0  0  0  0  0  0  0  0  0  0
    5.0234   -0.1914    0.0000 H   0  0  0  0  0  0  0  0  0  0  0  0
    5.4219   -0.8816    0.0000 H   0  0  0  0  0  0  0  0  0  0  0  0
    6.1015   -1.2740    0.0000 H   0  0  0  0  0  0  0  0  0  0  0  0
    6.8985   -1.2740    0.0000 H   0  0  0  0  0  0  0  0  0  0  0  0
    6.5826    2.2790    0.0000 H   0  0  0  0  0  0  0  0  0  0  0  0
    5.8923    2.6776    0.0000 H   0  0  0  0  0  0  0  0  0  0  0  0
    9.7087   -1.4067    0.0000 H   0  0  0  0  0  0  0  0  0  0  0  0
    9.3101   -0.7164    0.0000 H   0  0  0  0  0  0  0  0  0  0  0  0
    7.8923    1.4564    0.0000 H   0  0  0  0  0  0  0  0  0  0  0  0
    8.5826    1.8549    0.0000 H   0  0  0  0  0  0  0  0  0  0  0  0
    8.4875   -2.1914    0.0000 H   0  0  0  0  0  0  0  0  0  0  0  0
    8.8860   -2.8816    0.0000 H   0  0  0  0  0  0  0  0  0  0  0  0
    4.8100    0.6640    0.0000 H   0  0  0  0  0  0  0  0  0  0  0  0
    4.8100    3.4700    0.0000 H   0  0  0  0  0  0  0  0  0  0  0  0
   10.5747   -2.9067    0.0000 H   0  0  0  0  0  0  0  0  0  0  0  0
   10.1762   -2.2164    0.0000 H   0  0  0  0  0  0  0  0  0  0  0  0
    3.1900    0.6640    0.0000 H   0  0  0  0  0  0  0  0  0  0  0  0
    3.1900    3.4700    0.0000 H   0  0  0  0  0  0  0  0  0  0  0  0
    9.3441   -3.7990    0.0000 H   0  0  0  0  0  0  0  0  0  0  0  0
    9.9641   -4.4190    0.0000 H   0  0  0  0  0  0  0  0  0  0  0  0
   10.5841   -3.7990    0.0000 H   0  0  0  0  0  0  0  0  0  0  0  0
   10.6200    3.7990    0.0000 H   0  0  0  0  0  0  0  0  0  0  0  0
  1 27  1  0  0  0  0
  2  4  2  0  0  0  0
  2  5  2  0  0  0  0
  2  9  1  0  0  0  0
  2 18  1  0  0  0  0
  3 16  2  0  0  0  0
  6 23  2  0  0  0  0
  7 29  1  0  0  0  0
  7 55  1  0  0  0  0
  8 29  2  0  0  0  0
  9 11  1  0  0  0  0
  9 14  1  0  0  0  0
 10 11  1  0  0  0  0
 10 12  1  0  0  0  0
 10 15  1  0  0  0  0
 10 16  1  0  0  0  0
 11 30  1  0  0  0  0
 11 31  1  0  0  0  0
 12 13  1  0  0  0  0
 12 32  1  0  0  0  0
 12 33  1  0  0  0  0
 13 14  1  0  0  0  0
 13 34  1  0  0  0  0
 13 35  1  0  0  0  0
 14 36  1  0  0  0  0
 14 37  1  0  0  0  0
 15 17  1  0  0  0  0
 15 38  1  0  0  0  0
 15 39  1  0  0  0  0
 16 19  1  0  0  0  0
 17 21  2  0  0  0  0
 17 22  1  0  0  0  0
 18 20  1  0  0  0  0
 18 40  1  0  0  0  0
 18 41  1  0  0  0  0
 19 23  1  0  0  0  0
 19 42  1  0  0  0  0
 19 43  1  0  0  0  0
 20 24  1  0  0  0  0
 20 44  1  0  0  0  0
 20 45  1  0  0  0  0
 21 25  1  0  0  0  0
 21 46  1  0  0  0  0
 22 26  2  0  0  0  0
 22 47  1  0  0  0  0
 23 29  1  0  0  0  0
 24 28  1  0  0  0  0
 24 48  1  0  0  0  0
 24 49  1  0  0  0  0
 25 27  2  0  0  0  0
 25 50  1  0  0  0  0
 26 27  1  0  0  0  0
 26 51  1  0  0  0  0
 28 52  1  0  0  0  0
 28 53  1  0  0  0  0
 28 54  1  0  0  0  0
M  END
> <PUBCHEM_COMPOUND_CID>
510865
> <PUBCHEM_COMPOUND_CANONICALIZED>
1
> <PUBCHEM_CACTVS_COMPLEXITY>
711
> <PUBCHEM_CACTVS_HBOND_ACCEPTOR>
7
> <PUBCHEM_CACTVS_HBOND_DONOR>
1
> <PUBCHEM_CACTVS_ROTATABLE_BOND>
10
> <PUBCHEM_CACTVS_SUBSKEYS>
AAADceB6OABEAAAAAAAAAAAAAAAAAAAAAAA8QAAAAAAAAAABAAAAHgYASAAADgbF2CSyCIIAAgKIAqDSCHJCAAAgBQAIiAFIAogIIDqJkxCEYAAkgACIiAebyfCPBAAAAAAAAAAIAAAAAAAAAAAAAAAAAA==
> <PUBCHEM_IUPAC_OPENEYE_NAME>
4-[1-butylsulfonyl-3-[(4-chlorophenyl)methyl]-3-piperidyl]-2,4-dioxo-butanoic acid
> <PUBCHEM_IUPAC_CAS_NAME>
4-[1-butylsulfonyl-3-[(4-chlorophenyl)methyl]-3-piperidinyl]-2,4-dioxobutanoic acid
> <PUBCHEM_IUPAC_NAME_MARKUP>
4-[1-butylsulfonyl-3-[(4-chlorophenyl)methyl]piperidin-3-yl]-2,4-dioxobutanoic acid
> <PUBCHEM_IUPAC_NAME>
4-[1-butylsulfonyl-3-[(4-chlorophenyl)methyl]piperidin-3-yl]-2,4-dioxobutanoic acid
> <PUBCHEM_IUPAC_SYSTEMATIC_NAME>
4-[1-butylsulfonyl-3-[(4-chlorophenyl)methyl]piperidin-3-yl]-2,4-bis(oxidanylidene)butanoic acid
> <PUBCHEM_IUPAC_TRADITIONAL_NAME>
4-[1-butylsulfonyl-3-(4-chlorobenzyl)-3-piperidyl]-2,4-diketo-butyric acid
> <PUBCHEM_IUPAC_INCHI>
InChI=1S/C20H26ClNO6S/c1-2-3-11-29(27,28)22-10-4-9-20(14-22,18(24)12-17(23)19(25)26)13-15-5-7-16(21)8-6-15/h5-8H,2-4,9-14H2,1H3,(H,25,26)
> <PUBCHEM_IUPAC_INCHIKEY>
CFMMNDSPDHMKEK-UHFFFAOYSA-N
> <PUBCHEM_XLOGP3_AA>
2.9
> <PUBCHEM_EXACT_MASS>
443.1169364
> <PUBCHEM_MOLECULAR_FORMULA>
C20H26ClNO6S
> <PUBCHEM_MOLECULAR_WEIGHT>
443.9
> <PUBCHEM_OPENEYE_CAN_SMILES>
CCCCS(=O)(=O)N1CCCC(C1)(CC2=CC=C(C=C2)Cl)C(=O)CC(=O)C(=O)O
> <PUBCHEM_OPENEYE_ISO_SMILES>
CCCCS(=O)(=O)N1CCCC(C1)(CC2=CC=C(C=C2)Cl)C(=O)CC(=O)C(=O)O
> <PUBCHEM_CACTVS_TPSA>
117
> <PUBCHEM_MONOISOTOPIC_WEIGHT>
443.1169364
> <PUBCHEM_TOTAL_CHARGE>
0
> <PUBCHEM_HEAVY_ATOM_COUNT>
29
> <PUBCHEM_ATOM_DEF_STEREO_COUNT>
0
> <PUBCHEM_ATOM_UDEF_STEREO_COUNT>
1
> <PUBCHEM_BOND_DEF_STEREO_COUNT>
0
> <PUBCHEM_BOND_UDEF_STEREO_COUNT>
0
> <PUBCHEM_ISOTOPIC_ATOM_COUNT>
0
> <PUBCHEM_COMPONENT_COUNT>
1
> <PUBCHEM_CACTVS_TAUTO_COUNT>
-1
> <PUBCHEM_COORDINATE_TYPE>
1
5
255
> <PUBCHEM_BONDANNOTATIONS>
10  15  3
17  21  8
17  22  8
21  25  8
22  26  8
25  27  8
26  27  8
$$$$
