510891
  -OEChem-10302200282D
 55 59  0     1  0  0  0  0  0999 V2000
    8.4629   -2.9198    0.0000 O   0  0  0  0  0  0  0  0  0  0  0  0
    5.4327   -2.7857    0.0000 O   0  0  0  0  0  0  0  0  0  0  0  0
    8.2977    2.7312    0.0000 O   0  0  0  0  0  0  0  0  0  0  0  0
    9.6916    1.9265    0.0000 O   0  0  0  0  0  0  0  0  0  0  0  0
    4.5724   -1.2824    0.0000 O   0  0  0  0  0  0  0  0  0  0  0  0
    4.6152    2.7724    0.0000 O   0  0  0  0  0  0  0  0  0  0  0  0
    2.8486   -0.2074    0.0000 O   0  0  0  0  0  0  0  0  0  0  0  0
    2.8718    1.7925    0.0000 O   0  0  0  0  0  0  0  0  0  0  0  0
    8.8776   -1.9710    0.0000 N   0  0  0  0  0  0  0  0  0  0  0  0
    6.3045   -1.2890    0.0000 C   0  0  1  0  0  0  0  0  0  0  0  0
    7.2065   -1.8099    0.0000 C   0  0  3  0  0  0  0  0  0  0  0  0
    6.3125   -0.2474    0.0000 C   0  0  1  0  0  0  0  0  0  0  0  0
    7.2225    0.2594    0.0000 C   0  0  0  0  0  0  0  0  0  0  0  0
    8.1046   -1.2821    0.0000 C   0  0  0  0  0  0  0  0  0  0  0  0
    8.0885   -0.2406    0.0000 C   0  0  0  0  0  0  0  0  0  0  0  0
    7.4322   -2.8204    0.0000 C   0  0  0  0  0  0  0  0  0  0  0  0
    5.4523    0.2625    0.0000 C   0  0  0  0  0  0  0  0  0  0  0  0
    5.4365   -1.7857    0.0000 C   0  0  0  0  0  0  0  0  0  0  0  0
    7.2225    1.2594    0.0000 C   0  0  0  0  0  0  0  0  0  0  0  0
    8.9546    0.2594    0.0000 C   0  0  0  0  0  0  0  0  0  0  0  0
    8.0885    1.7594    0.0000 C   0  0  0  0  0  0  0  0  0  0  0  0
    8.9546    1.2594    0.0000 C   0  0  0  0  0  0  0  0  0  0  0  0
    4.5806   -0.2274    0.0000 C   0  0  0  0  0  0  0  0  0  0  0  0
    5.4639    1.2625    0.0000 C   0  0  0  0  0  0  0  0  0  0  0  0
    4.6037    1.7724    0.0000 C   0  0  0  0  0  0  0  0  0  0  0  0
    3.7204    0.2826    0.0000 C   0  0  0  0  0  0  0  0  0  0  0  0
    3.7319    1.2825    0.0000 C   0  0  0  0  0  0  0  0  0  0  0  0
    9.2864    2.8343    0.0000 C   0  0  0  0  0  0  0  0  0  0  0  0
    4.5647   -3.2824    0.0000 C   0  0  0  0  0  0  0  0  0  0  0  0
    3.7551    3.2824    0.0000 C   0  0  0  0  0  0  0  0  0  0  0  0
    2.8371   -1.2073    0.0000 C   0  0  0  0  0  0  0  0  0  0  0  0
    2.0000    1.3025    0.0000 C   0  0  0  0  0  0  0  0  0  0  0  0
    6.3033   -1.9090    0.0000 H   0  0  0  0  0  0  0  0  0  0  0  0
    6.7068   -2.1769    0.0000 H   0  0  0  0  0  0  0  0  0  0  0  0
    5.7726   -0.5523    0.0000 H   0  0  0  0  0  0  0  0  0  0  0  0
    6.8163   -2.8912    0.0000 H   0  0  0  0  0  0  0  0  0  0  0  0
    7.4379   -3.4404    0.0000 H   0  0  0  0  0  0  0  0  0  0  0  0
    6.6856    1.5694    0.0000 H   0  0  0  0  0  0  0  0  0  0  0  0
    9.4915   -0.0506    0.0000 H   0  0  0  0  0  0  0  0  0  0  0  0
    4.5734   -0.8474    0.0000 H   0  0  0  0  0  0  0  0  0  0  0  0
    6.0043    1.5662    0.0000 H   0  0  0  0  0  0  0  0  0  0  0  0
    9.8760    3.0260    0.0000 H   0  0  0  0  0  0  0  0  0  0  0  0
    9.1577    3.4408    0.0000 H   0  0  0  0  0  0  0  0  0  0  0  0
    4.2568   -2.7442    0.0000 H   0  0  0  0  0  0  0  0  0  0  0  0
    4.0266   -3.5903    0.0000 H   0  0  0  0  0  0  0  0  0  0  0  0
    4.8726   -3.8205    0.0000 H   0  0  0  0  0  0  0  0  0  0  0  0
    4.0712    3.8157    0.0000 H   0  0  0  0  0  0  0  0  0  0  0  0
    3.2218    3.5986    0.0000 H   0  0  0  0  0  0  0  0  0  0  0  0
    3.4389    2.7490    0.0000 H   0  0  0  0  0  0  0  0  0  0  0  0
    2.2171   -1.2002    0.0000 H   0  0  0  0  0  0  0  0  0  0  0  0
    2.8299   -1.8273    0.0000 H   0  0  0  0  0  0  0  0  0  0  0  0
    3.4570   -1.2145    0.0000 H   0  0  0  0  0  0  0  0  0  0  0  0
    1.6962    1.8430    0.0000 H   0  0  0  0  0  0  0  0  0  0  0  0
    1.4595    0.9988    0.0000 H   0  0  0  0  0  0  0  0  0  0  0  0
    2.3038    0.7620    0.0000 H   0  0  0  0  0  0  0  0  0  0  0  0
  1  9  1  0  0  0  0
  1 16  1  0  0  0  0
  2 18  1  0  0  0  0
  2 29  1  0  0  0  0
  3 21  1  0  0  0  0
  3 28  1  0  0  0  0
  4 22  1  0  0  0  0
  4 28  1  0  0  0  0
  5 18  2  0  0  0  0
  6 25  1  0  0  0  0
  6 30  1  0  0  0  0
  7 26  1  0  0  0  0
  7 31  1  0  0  0  0
  8 27  1  0  0  0  0
  8 32  1  0  0  0  0
  9 14  2  0  0  0  0
 10 11  1  0  0  0  0
 10 12  1  0  0  0  0
 10 18  1  6  0  0  0
 10 33  1  0  0  0  0
 11 14  1  0  0  0  0
 11 16  1  0  0  0  0
 11 34  1  0  0  0  0
 12 13  1  0  0  0  0
 12 17  1  6  0  0  0
 12 35  1  0  0  0  0
 13 15  1  0  0  0  0
 13 19  2  0  0  0  0
 14 15  1  0  0  0  0
 15 20  2  0  0  0  0
 16 36  1  0  0  0  0
 16 37  1  0  0  0  0
 17 23  2  0  0  0  0
 17 24  1  0  0  0  0
 19 21  1  0  0  0  0
 19 38  1  0  0  0  0
 20 22  1  0  0  0  0
 20 39  1  0  0  0  0
 21 22  2  0  0  0  0
 23 26  1  0  0  0  0
 23 40  1  0  0  0  0
 24 25  2  0  0  0  0
 24 41  1  0  0  0  0
 25 27  1  0  0  0  0
 26 27  2  0  0  0  0
 28 42  1  0  0  0  0
 28 43  1  0  0  0  0
 29 44  1  0  0  0  0
 29 45  1  0  0  0  0
 29 46  1  0  0  0  0
 30 47  1  0  0  0  0
 30 48  1  0  0  0  0
 30 49  1  0  0  0  0
 31 50  1  0  0  0  0
 31 51  1  0  0  0  0
 31 52  1  0  0  0  0
 32 53  1  0  0  0  0
 32 54  1  0  0  0  0
 32 55  1  0  0  0  0
M  END
> <PUBCHEM_COMPOUND_CID>
510891
> <PUBCHEM_COMPOUND_CANONICALIZED>
1
> <PUBCHEM_CACTVS_COMPLEXITY>
717
> <PUBCHEM_CACTVS_HBOND_ACCEPTOR>
9
> <PUBCHEM_CACTVS_HBOND_DONOR>
0
> <PUBCHEM_CACTVS_ROTATABLE_BOND>
6
> <PUBCHEM_CACTVS_SUBSKEYS>
AAADceB6PAAAAAAAAAAAAAAAAAAAASIAAAAwYMAAAAAAAEjBQAAAHgAEAAAADQyhmAMyDoAQBACoAyDyCAACCAAgIAAAiAE2iJgdJ7KEMRqgMCIlwBUOqAfK6PyOoAABCAAQQADAAAYQACCAAAAAAAAAAA==
> <PUBCHEM_IUPAC_OPENEYE_NAME>
methyl (4R,5R)-5-(3,4,5-trimethoxyphenyl)-3,3a,4,5-tetrahydro-[1,3]benzodioxolo[6,5-g][2,1]benzoxazole-4-carboxylate
> <PUBCHEM_IUPAC_CAS_NAME>
(4R,5R)-5-(3,4,5-trimethoxyphenyl)-3,3a,4,5-tetrahydro-[1,3]benzodioxolo[6,5-g][2,1]benzoxazole-4-carboxylic acid methyl ester
> <PUBCHEM_IUPAC_NAME_MARKUP>
methyl (4<I>R</I>,5<I>R</I>)-5-(3,4,5-trimethoxyphenyl)-3,3<I>a</I>,4,5-tetrahydro-[1,3]benzodioxolo[6,5-g][2,1]benzoxazole-4-carboxylate
> <PUBCHEM_IUPAC_NAME>
methyl (4R,5R)-5-(3,4,5-trimethoxyphenyl)-3,3a,4,5-tetrahydro-[1,3]benzodioxolo[6,5-g][2,1]benzoxazole-4-carboxylate
> <PUBCHEM_IUPAC_SYSTEMATIC_NAME>
methyl (4R,5R)-5-(3,4,5-trimethoxyphenyl)-3,3a,4,5-tetrahydro-[1,3]benzodioxolo[6,5-g][2,1]benzoxazole-4-carboxylate
> <PUBCHEM_IUPAC_TRADITIONAL_NAME>
(4R,5R)-5-(3,4,5-trimethoxyphenyl)-3,3a,4,5-tetrahydro-[1,3]benzodioxolo[6,5-g][2,1]benzoxazole-4-carboxylic acid methyl ester
> <PUBCHEM_IUPAC_INCHI>
InChI=1S/C23H23NO8/c1-26-17-5-11(6-18(27-2)22(17)28-3)19-12-7-15-16(31-10-30-15)8-13(12)21-14(9-32-24-21)20(19)23(25)29-4/h5-8,14,19-20H,9-10H2,1-4H3/t14?,19-,20+/m1/s1
> <PUBCHEM_IUPAC_INCHIKEY>
ADSGJCGMAXYOEA-LCMMRXEZSA-N
> <PUBCHEM_XLOGP3_AA>
2.9
> <PUBCHEM_EXACT_MASS>
441.14236669
> <PUBCHEM_MOLECULAR_FORMULA>
C23H23NO8
> <PUBCHEM_MOLECULAR_WEIGHT>
441.4
> <PUBCHEM_OPENEYE_CAN_SMILES>
COC1=CC(=CC(=C1OC)OC)C2C(C3CON=C3C4=CC5=C(C=C24)OCO5)C(=O)OC
> <PUBCHEM_OPENEYE_ISO_SMILES>
COC1=CC(=CC(=C1OC)OC)[C@H]2[C@H](C3CON=C3C4=CC5=C(C=C24)OCO5)C(=O)OC
> <PUBCHEM_CACTVS_TPSA>
94
> <PUBCHEM_MONOISOTOPIC_WEIGHT>
441.14236669
> <PUBCHEM_TOTAL_CHARGE>
0
> <PUBCHEM_HEAVY_ATOM_COUNT>
32
> <PUBCHEM_ATOM_DEF_STEREO_COUNT>
2
> <PUBCHEM_ATOM_UDEF_STEREO_COUNT>
1
> <PUBCHEM_BOND_DEF_STEREO_COUNT>
0
> <PUBCHEM_BOND_UDEF_STEREO_COUNT>
0
> <PUBCHEM_ISOTOPIC_ATOM_COUNT>
0
> <PUBCHEM_COMPONENT_COUNT>
1
> <PUBCHEM_CACTVS_TAUTO_COUNT>
-1
> <PUBCHEM_COORDINATE_TYPE>
1
5
255
> <PUBCHEM_BONDANNOTATIONS>
10  18  6
11  16  3
12  17  6
13  15  8
13  19  8
15  20  8
17  23  8
17  24  8
19  21  8
20  22  8
21  22  8
23  26  8
24  25  8
25  27  8
26  27  8
$$$$
