510893
  -OEChem-10302200282D
 47 51  0     1  0  0  0  0  0999 V2000
    7.6143   -2.9198    0.0000 O   0  0  0  0  0  0  0  0  0  0  0  0
    4.5840   -2.7857    0.0000 O   0  0  0  0  0  0  0  0  0  0  0  0
    7.4491    2.7312    0.0000 O   0  0  0  0  0  0  0  0  0  0  0  0
    8.8429    1.9265    0.0000 O   0  0  0  0  0  0  0  0  0  0  0  0
    3.7238   -1.2824    0.0000 O   0  0  0  0  0  0  0  0  0  0  0  0
    3.7666    2.7724    0.0000 O   0  0  0  0  0  0  0  0  0  0  0  0
    2.0000   -0.2074    0.0000 O   0  0  0  0  0  0  0  0  0  0  0  0
    2.0231    1.7925    0.0000 O   0  0  0  0  0  0  0  0  0  0  0  0
    8.0290   -1.9710    0.0000 N   0  0  0  0  0  0  0  0  0  0  0  0
    5.4558   -1.2890    0.0000 C   0  0  1  0  0  0  0  0  0  0  0  0
    6.3579   -1.8099    0.0000 C   0  0  1  0  0  0  0  0  0  0  0  0
    5.4639   -0.2474    0.0000 C   0  0  1  0  0  0  0  0  0  0  0  0
    6.3739    0.2594    0.0000 C   0  0  0  0  0  0  0  0  0  0  0  0
    7.2560   -1.2821    0.0000 C   0  0  0  0  0  0  0  0  0  0  0  0
    7.2399   -0.2406    0.0000 C   0  0  0  0  0  0  0  0  0  0  0  0
    6.5836   -2.8204    0.0000 C   0  0  0  0  0  0  0  0  0  0  0  0
    4.6037    0.2625    0.0000 C   0  0  0  0  0  0  0  0  0  0  0  0
    4.5879   -1.7857    0.0000 C   0  0  0  0  0  0  0  0  0  0  0  0
    6.3739    1.2594    0.0000 C   0  0  0  0  0  0  0  0  0  0  0  0
    8.1059    0.2594    0.0000 C   0  0  0  0  0  0  0  0  0  0  0  0
    7.2399    1.7594    0.0000 C   0  0  0  0  0  0  0  0  0  0  0  0
    8.1059    1.2594    0.0000 C   0  0  0  0  0  0  0  0  0  0  0  0
    4.6152    1.2625    0.0000 C   0  0  0  0  0  0  0  0  0  0  0  0
    3.7319   -0.2274    0.0000 C   0  0  0  0  0  0  0  0  0  0  0  0
    3.7551    1.7724    0.0000 C   0  0  0  0  0  0  0  0  0  0  0  0
    2.8718    0.2826    0.0000 C   0  0  0  0  0  0  0  0  0  0  0  0
    8.4378    2.8343    0.0000 C   0  0  0  0  0  0  0  0  0  0  0  0
    2.8833    1.2825    0.0000 C   0  0  0  0  0  0  0  0  0  0  0  0
    3.7161   -3.2824    0.0000 C   0  0  0  0  0  0  0  0  0  0  0  0
    2.9064    3.2824    0.0000 C   0  0  0  0  0  0  0  0  0  0  0  0
    4.9207   -0.9760    0.0000 H   0  0  0  0  0  0  0  0  0  0  0  0
    5.6728   -2.3130    0.0000 H   0  0  0  0  0  0  0  0  0  0  0  0
    4.9240   -0.5523    0.0000 H   0  0  0  0  0  0  0  0  0  0  0  0
    5.9677   -2.8912    0.0000 H   0  0  0  0  0  0  0  0  0  0  0  0
    6.5893   -3.4404    0.0000 H   0  0  0  0  0  0  0  0  0  0  0  0
    5.8369    1.5694    0.0000 H   0  0  0  0  0  0  0  0  0  0  0  0
    8.6429   -0.0506    0.0000 H   0  0  0  0  0  0  0  0  0  0  0  0
    5.1557    1.5662    0.0000 H   0  0  0  0  0  0  0  0  0  0  0  0
    3.7248   -0.8474    0.0000 H   0  0  0  0  0  0  0  0  0  0  0  0
    9.0274    3.0260    0.0000 H   0  0  0  0  0  0  0  0  0  0  0  0
    8.3091    3.4408    0.0000 H   0  0  0  0  0  0  0  0  0  0  0  0
    3.4082   -2.7442    0.0000 H   0  0  0  0  0  0  0  0  0  0  0  0
    3.1780   -3.5903    0.0000 H   0  0  0  0  0  0  0  0  0  0  0  0
    4.0240   -3.8205    0.0000 H   0  0  0  0  0  0  0  0  0  0  0  0
    3.2226    3.8157    0.0000 H   0  0  0  0  0  0  0  0  0  0  0  0
    2.3731    3.5986    0.0000 H   0  0  0  0  0  0  0  0  0  0  0  0
    2.5902    2.7490    0.0000 H   0  0  0  0  0  0  0  0  0  0  0  0
  1  9  1  0  0  0  0
  1 16  1  0  0  0  0
  2 18  1  0  0  0  0
  2 29  1  0  0  0  0
  3 21  1  0  0  0  0
  3 27  1  0  0  0  0
  4 22  1  0  0  0  0
  4 27  1  0  0  0  0
  5 18  2  0  0  0  0
  6 25  1  0  0  0  0
  6 30  1  0  0  0  0
  7 26  2  0  0  0  0
  8 28  2  0  0  0  0
  9 14  2  0  0  0  0
 10 11  1  0  0  0  0
 10 12  1  0  0  0  0
 10 18  1  6  0  0  0
 10 31  1  0  0  0  0
 11 14  1  0  0  0  0
 11 16  1  0  0  0  0
 11 32  1  6  0  0  0
 12 13  1  0  0  0  0
 12 17  1  6  0  0  0
 12 33  1  0  0  0  0
 13 15  1  0  0  0  0
 13 19  2  0  0  0  0
 14 15  1  0  0  0  0
 15 20  2  0  0  0  0
 16 34  1  0  0  0  0
 16 35  1  0  0  0  0
 17 23  1  0  0  0  0
 17 24  2  0  0  0  0
 19 21  1  0  0  0  0
 19 36  1  0  0  0  0
 20 22  1  0  0  0  0
 20 37  1  0  0  0  0
 21 22  2  0  0  0  0
 23 25  2  0  0  0  0
 23 38  1  0  0  0  0
 24 26  1  0  0  0  0
 24 39  1  0  0  0  0
 25 28  1  0  0  0  0
 26 28  1  0  0  0  0
 27 40  1  0  0  0  0
 27 41  1  0  0  0  0
 29 42  1  0  0  0  0
 29 43  1  0  0  0  0
 29 44  1  0  0  0  0
 30 45  1  0  0  0  0
 30 46  1  0  0  0  0
 30 47  1  0  0  0  0
M  END
> <PUBCHEM_COMPOUND_CID>
510893
> <PUBCHEM_COMPOUND_CANONICALIZED>
1
> <PUBCHEM_CACTVS_COMPLEXITY>
889
> <PUBCHEM_CACTVS_HBOND_ACCEPTOR>
9
> <PUBCHEM_CACTVS_HBOND_DONOR>
0
> <PUBCHEM_CACTVS_ROTATABLE_BOND>
4
> <PUBCHEM_CACTVS_SUBSKEYS>
AAADceB6PAAAAAAAAAAAAAAAAAAAASIAAAAwYIAAAAAAAEjBAAAAHgAEAAAADQyhmAMyDoAQBACoA6DyCAICCAAgIAAAiAF2iNgdJraEMR6gMCIk4BEOqYfKyPCOoAABAAAQQADAAAYAACCAAAAAAAAAAA==
> <PUBCHEM_IUPAC_OPENEYE_NAME>
methyl (3aS,4R,5R)-5-(5-methoxy-3,4-dioxo-cyclohexa-1,5-dien-1-yl)-3,3a,4,5-tetrahydro-[1,3]benzodioxolo[6,5-g][2,1]benzoxazole-4-carboxylate
> <PUBCHEM_IUPAC_CAS_NAME>
(3aS,4R,5R)-5-(5-methoxy-3,4-dioxo-1-cyclohexa-1,5-dienyl)-3,3a,4,5-tetrahydro-[1,3]benzodioxolo[6,5-g][2,1]benzoxazole-4-carboxylic acid methyl ester
> <PUBCHEM_IUPAC_NAME_MARKUP>
methyl (3<I>a</I><I>S</I>,4<I>R</I>,5<I>R</I>)-5-(5-methoxy-3,4-dioxocyclohexa-1,5-dien-1-yl)-3,3<I>a</I>,4,5-tetrahydro-[1,3]benzodioxolo[6,5-g][2,1]benzoxazole-4-carboxylate
> <PUBCHEM_IUPAC_NAME>
methyl (3aS,4R,5R)-5-(5-methoxy-3,4-dioxocyclohexa-1,5-dien-1-yl)-3,3a,4,5-tetrahydro-[1,3]benzodioxolo[6,5-g][2,1]benzoxazole-4-carboxylate
> <PUBCHEM_IUPAC_SYSTEMATIC_NAME>
methyl (3aS,4R,5R)-5-[5-methoxy-3,4-bis(oxidanylidene)cyclohexa-1,5-dien-1-yl]-3,3a,4,5-tetrahydro-[1,3]benzodioxolo[6,5-g][2,1]benzoxazole-4-carboxylate
> <PUBCHEM_IUPAC_TRADITIONAL_NAME>
(3aS,4R,5R)-5-(3,4-diketo-5-methoxy-cyclohexa-1,5-dien-1-yl)-3,3a,4,5-tetrahydro-[1,3]benzodioxolo[6,5-g][2,1]benzoxazole-4-carboxylic acid methyl ester
> <PUBCHEM_IUPAC_INCHI>
InChI=1S/C21H17NO8/c1-26-16-4-9(3-13(23)20(16)24)17-10-5-14-15(29-8-28-14)6-11(10)19-12(7-30-22-19)18(17)21(25)27-2/h3-6,12,17-18H,7-8H2,1-2H3/t12-,17+,18-/m0/s1
> <PUBCHEM_IUPAC_INCHIKEY>
IYOYYRUKIMIAOQ-RZAIGCCYSA-N
> <PUBCHEM_XLOGP3_AA>
1.1
> <PUBCHEM_EXACT_MASS>
411.09541650
> <PUBCHEM_MOLECULAR_FORMULA>
C21H17NO8
> <PUBCHEM_MOLECULAR_WEIGHT>
411.4
> <PUBCHEM_OPENEYE_CAN_SMILES>
COC1=CC(=CC(=O)C1=O)C2C(C3CON=C3C4=CC5=C(C=C24)OCO5)C(=O)OC
> <PUBCHEM_OPENEYE_ISO_SMILES>
COC1=CC(=CC(=O)C1=O)[C@H]2[C@H]([C@@H]3CON=C3C4=CC5=C(C=C24)OCO5)C(=O)OC
> <PUBCHEM_CACTVS_TPSA>
110
> <PUBCHEM_MONOISOTOPIC_WEIGHT>
411.09541650
> <PUBCHEM_TOTAL_CHARGE>
0
> <PUBCHEM_HEAVY_ATOM_COUNT>
30
> <PUBCHEM_ATOM_DEF_STEREO_COUNT>
3
> <PUBCHEM_ATOM_UDEF_STEREO_COUNT>
0
> <PUBCHEM_BOND_DEF_STEREO_COUNT>
0
> <PUBCHEM_BOND_UDEF_STEREO_COUNT>
0
> <PUBCHEM_ISOTOPIC_ATOM_COUNT>
0
> <PUBCHEM_COMPONENT_COUNT>
1
> <PUBCHEM_CACTVS_TAUTO_COUNT>
-1
> <PUBCHEM_COORDINATE_TYPE>
1
5
255
> <PUBCHEM_BONDANNOTATIONS>
10  18  6
11  32  6
12  17  6
13  15  8
13  19  8
15  20  8
19  21  8
20  22  8
21  22  8
$$$$
