510957
  -OEChem-10302200282D
134138  0     1  0  0  0  0  0999 V2000
   10.0707   -1.1097    0.0000 O   0  0  0  0  0  0  0  0  0  0  0  0
    2.0000   -2.6896    0.0000 O   0  0  0  0  0  0  0  0  0  0  0  0
   10.9251    0.3969    0.0000 N   0  0  0  0  0  0  0  0  0  0  0  0
    7.3931   -0.6372    0.0000 C   0  0  2  0  0  0  0  0  0  0  0  0
    6.5271   -1.1372    0.0000 C   0  0  1  0  0  0  0  0  0  0  0  0
    7.3931    0.3628    0.0000 C   0  0  3  0  0  0  0  0  0  0  0  0
    5.6610   -0.6372    0.0000 C   0  0  3  0  0  0  0  0  0  0  0  0
    8.2870    0.8974    0.0000 C   0  0  3  0  0  0  0  0  0  0  0  0
    4.7510   -1.1441    0.0000 C   0  0  2  0  0  0  0  0  0  0  0  0
    9.1931    0.3836    0.0000 C   0  0  1  0  0  0  0  0  0  0  0  0
    4.7430   -2.1857    0.0000 C   0  0  3  0  0  0  0  0  0  0  0  0
    8.2870   -1.1719    0.0000 C   0  0  0  0  0  0  0  0  0  0  0  0
    6.5271    0.8628    0.0000 C   0  0  0  0  0  0  0  0  0  0  0  0
    5.6610    0.3628    0.0000 C   0  0  0  0  0  0  0  0  0  0  0  0
    6.5431   -2.1788    0.0000 C   0  0  0  0  0  0  0  0  0  0  0  0
    9.1931   -0.6581    0.0000 C   0  0  0  0  0  0  0  0  0  0  0  0
    5.6451   -2.7065    0.0000 C   0  0  0  0  0  0  0  0  0  0  0  0
    8.4971    1.9113    0.0000 C   0  0  1  0  0  0  0  0  0  0  0  0
    7.7352   -1.5769    0.0000 C   0  0  0  0  0  0  0  0  0  0  0  0
    7.1698   -1.9033    0.0000 C   0  0  0  0  0  0  0  0  0  0  0  0
    9.9554    1.0843    0.0000 C   0  0  0  0  0  0  0  0  0  0  0  0
    3.8242   -0.5800    0.0000 C   0  0  0  0  0  0  0  0  0  0  0  0
    3.8076   -2.7354    0.0000 C   0  0  0  0  0  0  0  0  0  0  0  0
    9.5262    2.0266    0.0000 C   0  0  0  0  0  0  0  0  0  0  0  0
    4.7587   -0.1441    0.0000 C   0  0  0  0  0  0  0  0  0  0  0  0
   10.0629   -0.1097    0.0000 C   0  0  0  0  0  0  0  0  0  0  0  0
    2.8763   -1.1080    0.0000 C   0  0  0  0  0  0  0  0  0  0  0  0
    2.8680   -2.1929    0.0000 C   0  0  0  0  0  0  0  0  0  0  0  0
    7.8236    2.6505    0.0000 C   0  0  0  0  0  0  0  0  0  0  0  0
    3.3109   -3.6034    0.0000 C   0  0  0  0  0  0  0  0  0  0  0  0
    4.3109   -3.5995    0.0000 C   0  0  0  0  0  0  0  0  0  0  0  0
    8.1269    3.6034    0.0000 C   0  0  0  0  0  0  0  0  0  0  0  0
    6.8467    2.4367    0.0000 C   0  0  0  0  0  0  0  0  0  0  0  0
   11.7949   -0.0964    0.0000 C   0  0  0  0  0  0  0  0  0  0  0  0
   12.6571    0.4103    0.0000 C   0  0  0  0  0  0  0  0  0  0  0  0
   13.5269   -0.0830    0.0000 C   0  0  0  0  0  0  0  0  0  0  0  0
   14.3891    0.4236    0.0000 C   0  0  0  0  0  0  0  0  0  0  0  0
   15.2589   -0.0697    0.0000 C   0  0  0  0  0  0  0  0  0  0  0  0
   16.1211    0.4370    0.0000 C   0  0  0  0  0  0  0  0  0  0  0  0
   16.9909   -0.0563    0.0000 C   0  0  0  0  0  0  0  0  0  0  0  0
   17.8531    0.4503    0.0000 C   0  0  0  0  0  0  0  0  0  0  0  0
   18.7229   -0.0430    0.0000 C   0  0  0  0  0  0  0  0  0  0  0  0
   19.5851    0.4637    0.0000 C   0  0  0  0  0  0  0  0  0  0  0  0
   20.4549   -0.0296    0.0000 C   0  0  0  0  0  0  0  0  0  0  0  0
   21.3171    0.4770    0.0000 C   0  0  0  0  0  0  0  0  0  0  0  0
   22.1869   -0.0163    0.0000 C   0  0  0  0  0  0  0  0  0  0  0  0
   23.0491    0.4904    0.0000 C   0  0  0  0  0  0  0  0  0  0  0  0
   23.9189   -0.0029    0.0000 C   0  0  0  0  0  0  0  0  0  0  0  0
   24.7811    0.5037    0.0000 C   0  0  0  0  0  0  0  0  0  0  0  0
   25.6509    0.0104    0.0000 C   0  0  0  0  0  0  0  0  0  0  0  0
   26.5131    0.5171    0.0000 C   0  0  0  0  0  0  0  0  0  0  0  0
    7.3883    0.9827    0.0000 H   0  0  0  0  0  0  0  0  0  0  0  0
    6.1980   -0.3272    0.0000 H   0  0  0  0  0  0  0  0  0  0  0  0
    7.7817    1.2567    0.0000 H   0  0  0  0  0  0  0  0  0  0  0  0
    4.7454   -2.8057    0.0000 H   0  0  0  0  0  0  0  0  0  0  0  0
    7.8824   -1.6417    0.0000 H   0  0  0  0  0  0  0  0  0  0  0  0
    8.6806   -1.6509    0.0000 H   0  0  0  0  0  0  0  0  0  0  0  0
    6.9256    1.3377    0.0000 H   0  0  0  0  0  0  0  0  0  0  0  0
    6.1285    1.3377    0.0000 H   0  0  0  0  0  0  0  0  0  0  0  0
    5.4490    0.9454    0.0000 H   0  0  0  0  0  0  0  0  0  0  0  0
    5.0504    0.2551    0.0000 H   0  0  0  0  0  0  0  0  0  0  0  0
    6.7612   -2.7592    0.0000 H   0  0  0  0  0  0  0  0  0  0  0  0
    7.1523   -2.0632    0.0000 H   0  0  0  0  0  0  0  0  0  0  0  0
    9.4022   -1.2418    0.0000 H   0  0  0  0  0  0  0  0  0  0  0  0
    9.8040   -0.5520    0.0000 H   0  0  0  0  0  0  0  0  0  0  0  0
    5.2478   -3.1825    0.0000 H   0  0  0  0  0  0  0  0  0  0  0  0
    6.0460   -3.1794    0.0000 H   0  0  0  0  0  0  0  0  0  0  0  0
    7.8992    1.7476    0.0000 H   0  0  0  0  0  0  0  0  0  0  0  0
    7.1526   -1.7890    0.0000 H   0  0  0  0  0  0  0  0  0  0  0  0
    7.9473   -2.1595    0.0000 H   0  0  0  0  0  0  0  0  0  0  0  0
    8.3178   -1.3648    0.0000 H   0  0  0  0  0  0  0  0  0  0  0  0
    6.6949   -2.3018    0.0000 H   0  0  0  0  0  0  0  0  0  0  0  0
    7.5684   -2.3782    0.0000 H   0  0  0  0  0  0  0  0  0  0  0  0
    7.6448   -1.5048    0.0000 H   0  0  0  0  0  0  0  0  0  0  0  0
   10.3247    0.5863    0.0000 H   0  0  0  0  0  0  0  0  0  0  0  0
   10.4895    1.3992    0.0000 H   0  0  0  0  0  0  0  0  0  0  0  0
    4.2324   -0.1134    0.0000 H   0  0  0  0  0  0  0  0  0  0  0  0
    3.4343   -0.0980    0.0000 H   0  0  0  0  0  0  0  0  0  0  0  0
   10.1143    2.2229    0.0000 H   0  0  0  0  0  0  0  0  0  0  0  0
    9.3928    2.6321    0.0000 H   0  0  0  0  0  0  0  0  0  0  0  0
    5.3787   -0.1489    0.0000 H   0  0  0  0  0  0  0  0  0  0  0  0
    4.7635    0.4759    0.0000 H   0  0  0  0  0  0  0  0  0  0  0  0
    4.1388   -0.1393    0.0000 H   0  0  0  0  0  0  0  0  0  0  0  0
    2.6718   -0.5227    0.0000 H   0  0  0  0  0  0  0  0  0  0  0  0
    2.2647   -1.2093    0.0000 H   0  0  0  0  0  0  0  0  0  0  0  0
    2.7728   -3.2954    0.0000 H   0  0  0  0  0  0  0  0  0  0  0  0
    3.0030   -4.1415    0.0000 H   0  0  0  0  0  0  0  0  0  0  0  0
    3.8490   -3.9113    0.0000 H   0  0  0  0  0  0  0  0  0  0  0  0
    3.7752   -3.9116    0.0000 H   0  0  0  0  0  0  0  0  0  0  0  0
    4.6230   -4.1352    0.0000 H   0  0  0  0  0  0  0  0  0  0  0  0
    4.8466   -3.2874    0.0000 H   0  0  0  0  0  0  0  0  0  0  0  0
   10.9203    1.0169    0.0000 H   0  0  0  0  0  0  0  0  0  0  0  0
    8.7177    3.4153    0.0000 H   0  0  0  0  0  0  0  0  0  0  0  0
    8.3150    4.1941    0.0000 H   0  0  0  0  0  0  0  0  0  0  0  0
    7.5361    3.7914    0.0000 H   0  0  0  0  0  0  0  0  0  0  0  0
    6.4291    2.8950    0.0000 H   0  0  0  0  0  0  0  0  0  0  0  0
    6.6586    1.8459    0.0000 H   0  0  0  0  0  0  0  0  0  0  0  0
   11.4001   -0.5744    0.0000 H   0  0  0  0  0  0  0  0  0  0  0  0
   12.1971   -0.5682    0.0000 H   0  0  0  0  0  0  0  0  0  0  0  0
   13.0519    0.8883    0.0000 H   0  0  0  0  0  0  0  0  0  0  0  0
   12.2549    0.8821    0.0000 H   0  0  0  0  0  0  0  0  0  0  0  0
   13.1321   -0.5610    0.0000 H   0  0  0  0  0  0  0  0  0  0  0  0
   13.9291   -0.5549    0.0000 H   0  0  0  0  0  0  0  0  0  0  0  0
   14.7839    0.9016    0.0000 H   0  0  0  0  0  0  0  0  0  0  0  0
   13.9869    0.8955    0.0000 H   0  0  0  0  0  0  0  0  0  0  0  0
   14.8641   -0.5477    0.0000 H   0  0  0  0  0  0  0  0  0  0  0  0
   15.6611   -0.5415    0.0000 H   0  0  0  0  0  0  0  0  0  0  0  0
   16.5159    0.9150    0.0000 H   0  0  0  0  0  0  0  0  0  0  0  0
   15.7189    0.9088    0.0000 H   0  0  0  0  0  0  0  0  0  0  0  0
   16.5961   -0.5343    0.0000 H   0  0  0  0  0  0  0  0  0  0  0  0
   17.3931   -0.5282    0.0000 H   0  0  0  0  0  0  0  0  0  0  0  0
   18.2479    0.9283    0.0000 H   0  0  0  0  0  0  0  0  0  0  0  0
   17.4509    0.9222    0.0000 H   0  0  0  0  0  0  0  0  0  0  0  0
   18.3281   -0.5210    0.0000 H   0  0  0  0  0  0  0  0  0  0  0  0
   19.1251   -0.5148    0.0000 H   0  0  0  0  0  0  0  0  0  0  0  0
   19.9799    0.9417    0.0000 H   0  0  0  0  0  0  0  0  0  0  0  0
   19.1829    0.9355    0.0000 H   0  0  0  0  0  0  0  0  0  0  0  0
   20.0601   -0.5076    0.0000 H   0  0  0  0  0  0  0  0  0  0  0  0
   20.8571   -0.5015    0.0000 H   0  0  0  0  0  0  0  0  0  0  0  0
   21.7119    0.9550    0.0000 H   0  0  0  0  0  0  0  0  0  0  0  0
   20.9149    0.9489    0.0000 H   0  0  0  0  0  0  0  0  0  0  0  0
   21.7921   -0.4943    0.0000 H   0  0  0  0  0  0  0  0  0  0  0  0
   22.5891   -0.4881    0.0000 H   0  0  0  0  0  0  0  0  0  0  0  0
   23.4439    0.9684    0.0000 H   0  0  0  0  0  0  0  0  0  0  0  0
   22.6469    0.9623    0.0000 H   0  0  0  0  0  0  0  0  0  0  0  0
   23.5241   -0.4809    0.0000 H   0  0  0  0  0  0  0  0  0  0  0  0
   24.3211   -0.4748    0.0000 H   0  0  0  0  0  0  0  0  0  0  0  0
   25.1759    0.9817    0.0000 H   0  0  0  0  0  0  0  0  0  0  0  0
   24.3789    0.9756    0.0000 H   0  0  0  0  0  0  0  0  0  0  0  0
   25.2561   -0.4676    0.0000 H   0  0  0  0  0  0  0  0  0  0  0  0
   26.0531   -0.4614    0.0000 H   0  0  0  0  0  0  0  0  0  0  0  0
   26.8272   -0.0174    0.0000 H   0  0  0  0  0  0  0  0  0  0  0  0
   27.0476    0.8312    0.0000 H   0  0  0  0  0  0  0  0  0  0  0  0
   26.1990    1.0516    0.0000 H   0  0  0  0  0  0  0  0  0  0  0  0
  1 26  2  0  0  0  0
  2 28  2  0  0  0  0
  3 26  1  0  0  0  0
  3 34  1  0  0  0  0
  3 92  1  0  0  0  0
  4  5  1  0  0  0  0
  4  6  1  0  0  0  0
  4 12  1  0  0  0  0
  4 19  1  1  0  0  0
  5  7  1  0  0  0  0
  5 15  1  0  0  0  0
  5 20  1  1  0  0  0
  6  8  1  0  0  0  0
  6 13  1  0  0  0  0
  6 52  1  0  0  0  0
  7  9  1  0  0  0  0
  7 14  1  0  0  0  0
  7 53  1  0  0  0  0
  8 10  1  0  0  0  0
  8 18  1  0  0  0  0
  8 54  1  0  0  0  0
  9 11  1  0  0  0  0
  9 22  1  0  0  0  0
  9 25  1  1  0  0  0
 10 16  1  0  0  0  0
 10 21  1  0  0  0  0
 10 26  1  1  0  0  0
 11 17  1  0  0  0  0
 11 23  1  0  0  0  0
 11 55  1  0  0  0  0
 12 16  1  0  0  0  0
 12 56  1  0  0  0  0
 12 57  1  0  0  0  0
 13 14  1  0  0  0  0
 13 58  1  0  0  0  0
 13 59  1  0  0  0  0
 14 60  1  0  0  0  0
 14 61  1  0  0  0  0
 15 17  1  0  0  0  0
 15 62  1  0  0  0  0
 15 63  1  0  0  0  0
 16 64  1  0  0  0  0
 16 65  1  0  0  0  0
 17 66  1  0  0  0  0
 17 67  1  0  0  0  0
 18 24  1  0  0  0  0
 18 29  1  0  0  0  0
 18 68  1  0  0  0  0
 19 69  1  0  0  0  0
 19 70  1  0  0  0  0
 19 71  1  0  0  0  0
 20 72  1  0  0  0  0
 20 73  1  0  0  0  0
 20 74  1  0  0  0  0
 21 24  1  0  0  0  0
 21 75  1  0  0  0  0
 21 76  1  0  0  0  0
 22 27  1  0  0  0  0
 22 77  1  0  0  0  0
 22 78  1  0  0  0  0
 23 28  1  0  0  0  0
 23 30  1  0  0  0  0
 23 31  1  0  0  0  0
 24 79  1  0  0  0  0
 24 80  1  0  0  0  0
 25 81  1  0  0  0  0
 25 82  1  0  0  0  0
 25 83  1  0  0  0  0
 27 28  1  0  0  0  0
 27 84  1  0  0  0  0
 27 85  1  0  0  0  0
 29 32  1  0  0  0  0
 29 33  2  0  0  0  0
 30 86  1  0  0  0  0
 30 87  1  0  0  0  0
 30 88  1  0  0  0  0
 31 89  1  0  0  0  0
 31 90  1  0  0  0  0
 31 91  1  0  0  0  0
 32 93  1  0  0  0  0
 32 94  1  0  0  0  0
 32 95  1  0  0  0  0
 33 96  1  0  0  0  0
 33 97  1  0  0  0  0
 34 35  1  0  0  0  0
 34 98  1  0  0  0  0
 34 99  1  0  0  0  0
 35 36  1  0  0  0  0
 35100  1  0  0  0  0
 35101  1  0  0  0  0
 36 37  1  0  0  0  0
 36102  1  0  0  0  0
 36103  1  0  0  0  0
 37 38  1  0  0  0  0
 37104  1  0  0  0  0
 37105  1  0  0  0  0
 38 39  1  0  0  0  0
 38106  1  0  0  0  0
 38107  1  0  0  0  0
 39 40  1  0  0  0  0
 39108  1  0  0  0  0
 39109  1  0  0  0  0
 40 41  1  0  0  0  0
 40110  1  0  0  0  0
 40111  1  0  0  0  0
 41 42  1  0  0  0  0
 41112  1  0  0  0  0
 41113  1  0  0  0  0
 42 43  1  0  0  0  0
 42114  1  0  0  0  0
 42115  1  0  0  0  0
 43 44  1  0  0  0  0
 43116  1  0  0  0  0
 43117  1  0  0  0  0
 44 45  1  0  0  0  0
 44118  1  0  0  0  0
 44119  1  0  0  0  0
 45 46  1  0  0  0  0
 45120  1  0  0  0  0
 45121  1  0  0  0  0
 46 47  1  0  0  0  0
 46122  1  0  0  0  0
 46123  1  0  0  0  0
 47 48  1  0  0  0  0
 47124  1  0  0  0  0
 47125  1  0  0  0  0
 48 49  1  0  0  0  0
 48126  1  0  0  0  0
 48127  1  0  0  0  0
 49 50  1  0  0  0  0
 49128  1  0  0  0  0
 49129  1  0  0  0  0
 50 51  1  0  0  0  0
 50130  1  0  0  0  0
 50131  1  0  0  0  0
 51132  1  0  0  0  0
 51133  1  0  0  0  0
 51134  1  0  0  0  0
M  END
> <PUBCHEM_COMPOUND_CID>
510957
> <PUBCHEM_COMPOUND_CANONICALIZED>
1
> <PUBCHEM_CACTVS_COMPLEXITY>
1190
> <PUBCHEM_CACTVS_HBOND_ACCEPTOR>
2
> <PUBCHEM_CACTVS_HBOND_DONOR>
1
> <PUBCHEM_CACTVS_ROTATABLE_BOND>
19
> <PUBCHEM_CACTVS_SUBSKEYS>
AAADcfB+MAAAAAAAAAAAAAAAAAAAAYAAAAAwYMGAAAAAAGDAAAAAHgAQAAAADwTBgAQCAALAAACIAoFSEAAAAAAgAAAAAIEIAAgAABIAgQAEAAAAlgCAAAEYiMCPgAAAAAAAAACAAAQAACAAAQAACAAAAA==
> <PUBCHEM_IUPAC_OPENEYE_NAME>
(1R,3aS,5aS,5bR,11aR)-1-isopropenyl-5a,5b,8,8,11a-pentamethyl-N-octadecyl-9-oxo-2,3,4,5,6,7,7a,10,11,11b,12,13,13a,13b-tetradecahydro-1H-cyclopenta[a]chrysene-3a-carboxamide
> <PUBCHEM_IUPAC_CAS_NAME>
(1R,3aS,5aS,5bR,11aR)-5a,5b,8,8,11a-pentamethyl-1-(1-methylethenyl)-N-octadecyl-9-oxo-2,3,4,5,6,7,7a,10,11,11b,12,13,13a,13b-tetradecahydro-1H-cyclopenta[a]chrysene-3a-carboxamide
> <PUBCHEM_IUPAC_NAME_MARKUP>
(1<I>R</I>,3<I>a</I><I>S</I>,5<I>a</I><I>S</I>,5<I>b</I><I>R</I>,11<I>a</I><I>R</I>)-5<I>a</I>,5<I>b</I>,8,8,11<I>a</I>-pentamethyl-<I>N</I>-octadecyl-9-oxo-1-prop-1-en-2-yl-2,3,4,5,6,7,7<I>a</I>,10,11,11<I>b</I>,12,13,13<I>a</I>,13<I>b</I>-tetradecahydro-1<I>H</I>-cyclopenta[a]chrysene-3<I>a</I>-carboxamide
> <PUBCHEM_IUPAC_NAME>
(1R,3aS,5aS,5bR,11aR)-5a,5b,8,8,11a-pentamethyl-N-octadecyl-9-oxo-1-prop-1-en-2-yl-2,3,4,5,6,7,7a,10,11,11b,12,13,13a,13b-tetradecahydro-1H-cyclopenta[a]chrysene-3a-carboxamide
> <PUBCHEM_IUPAC_SYSTEMATIC_NAME>
(1R,3aS,5aS,5bR,11aR)-5a,5b,8,8,11a-pentamethyl-N-octadecyl-9-oxidanylidene-1-prop-1-en-2-yl-2,3,4,5,6,7,7a,10,11,11b,12,13,13a,13b-tetradecahydro-1H-cyclopenta[a]chrysene-3a-carboxamide
> <PUBCHEM_IUPAC_TRADITIONAL_NAME>
(1R,3aS,5aS,5bR,11aR)-1-isopropenyl-9-keto-5a,5b,8,8,11a-pentamethyl-N-stearyl-2,3,4,5,6,7,7a,10,11,11b,12,13,13a,13b-tetradecahydro-1H-cyclopenta[a]chrysene-3a-carboxamide
> <PUBCHEM_IUPAC_INCHI>
InChI=1S/C48H83NO2/c1-9-10-11-12-13-14-15-16-17-18-19-20-21-22-23-24-35-49-43(51)48-32-27-37(36(2)3)42(48)38-25-26-40-45(6)30-29-41(50)44(4,5)39(45)28-31-47(40,8)46(38,7)33-34-48/h37-40,42H,2,9-35H2,1,3-8H3,(H,49,51)/t37-,38?,39?,40?,42?,45-,46-,47+,48-/m0/s1
> <PUBCHEM_IUPAC_INCHIKEY>
BGURYWRTPHJYIJ-KCXVLTFOSA-N
> <PUBCHEM_XLOGP3_AA>
16.5
> <PUBCHEM_EXACT_MASS>
705.64238089
> <PUBCHEM_MOLECULAR_FORMULA>
C48H83NO2
> <PUBCHEM_MOLECULAR_WEIGHT>
706.2
> <PUBCHEM_OPENEYE_CAN_SMILES>
CCCCCCCCCCCCCCCCCCNC(=O)C12CCC(C1C3CCC4C5(CCC(=O)C(C5CCC4(C3(CC2)C)C)(C)C)C)C(=C)C
> <PUBCHEM_OPENEYE_ISO_SMILES>
CCCCCCCCCCCCCCCCCCNC(=O)[C@]12CC[C@H](C1C3CCC4[C@]5(CCC(=O)C(C5CC[C@]4([C@]3(CC2)C)C)(C)C)C)C(=C)C
> <PUBCHEM_CACTVS_TPSA>
46.2
> <PUBCHEM_MONOISOTOPIC_WEIGHT>
705.64238089
> <PUBCHEM_TOTAL_CHARGE>
0
> <PUBCHEM_HEAVY_ATOM_COUNT>
51
> <PUBCHEM_ATOM_DEF_STEREO_COUNT>
5
> <PUBCHEM_ATOM_UDEF_STEREO_COUNT>
4
> <PUBCHEM_BOND_DEF_STEREO_COUNT>
0
> <PUBCHEM_BOND_UDEF_STEREO_COUNT>
0
> <PUBCHEM_ISOTOPIC_ATOM_COUNT>
0
> <PUBCHEM_COMPONENT_COUNT>
1
> <PUBCHEM_CACTVS_TAUTO_COUNT>
-1
> <PUBCHEM_COORDINATE_TYPE>
1
5
255
> <PUBCHEM_BONDANNOTATIONS>
10  26  5
11  17  3
4  19  5
5  20  5
6  13  3
7  14  3
8  18  3
9  25  5
$$$$
