510992
  -OEChem-10302200282D
 33 34  0     1  0  0  0  0  0999 V2000
    3.3660    3.1681    0.0000 F   0  0  0  0  0  0  0  0  0  0  0  0
    2.0000    2.8021    0.0000 F   0  0  0  0  0  0  0  0  0  0  0  0
    2.3660    1.4361    0.0000 F   0  0  0  0  0  0  0  0  0  0  0  0
    5.4071   -1.2857    0.0000 O   0  0  0  0  0  0  0  0  0  0  0  0
    2.8380   -0.9766    0.0000 O   0  0  0  0  0  0  0  0  0  0  0  0
    3.5103   -3.0457    0.0000 O   0  0  0  0  0  0  0  0  0  0  0  0
    6.6804   -2.9412    0.0000 O   0  0  0  0  0  0  0  0  0  0  0  0
    6.3301    0.3021    0.0000 O   0  0  0  0  0  0  0  0  0  0  0  0
    4.5981    0.3021    0.0000 N   0  0  0  0  0  0  0  0  0  0  0  0
    5.4641    1.8021    0.0000 N   0  0  0  0  0  0  0  0  0  0  0  0
    4.5981    3.3021    0.0000 N   0  0  0  0  0  0  0  0  0  0  0  0
    3.7891   -1.2857    0.0000 C   0  0  2  0  0  0  0  0  0  0  0  0
    4.0981   -2.2367    0.0000 C   0  0  2  0  0  0  0  0  0  0  0  0
    4.5981   -0.6979    0.0000 C   0  0  1  0  0  0  0  0  0  0  0  0
    5.0981   -2.2367    0.0000 C   0  0  1  0  0  0  0  0  0  0  0  0
    5.6859   -3.0457    0.0000 C   0  0  0  0  0  0  0  0  0  0  0  0
    3.7320    0.8021    0.0000 C   0  0  0  0  0  0  0  0  0  0  0  0
    5.4641    0.8021    0.0000 C   0  0  0  0  0  0  0  0  0  0  0  0
    3.7320    1.8021    0.0000 C   0  0  0  0  0  0  0  0  0  0  0  0
    4.5981    2.3021    0.0000 C   0  0  0  0  0  0  0  0  0  0  0  0
    2.8660    2.3021    0.0000 C   0  0  0  0  0  0  0  0  0  0  0  0
    3.3506   -1.7241    0.0000 H   0  0  0  0  0  0  0  0  0  0  0  0
    4.3796   -2.7891    0.0000 H   0  0  0  0  0  0  0  0  0  0  0  0
    5.1505   -0.4164    0.0000 H   0  0  0  0  0  0  0  0  0  0  0  0
    5.7104   -2.1397    0.0000 H   0  0  0  0  0  0  0  0  0  0  0  0
    5.1286   -3.3175    0.0000 H   0  0  0  0  0  0  0  0  0  0  0  0
    5.8568   -3.6417    0.0000 H   0  0  0  0  0  0  0  0  0  0  0  0
    2.3772   -1.3915    0.0000 H   0  0  0  0  0  0  0  0  0  0  0  0
    3.7625   -3.6121    0.0000 H   0  0  0  0  0  0  0  0  0  0  0  0
    3.1951    0.4921    0.0000 H   0  0  0  0  0  0  0  0  0  0  0  0
    7.0448   -3.4428    0.0000 H   0  0  0  0  0  0  0  0  0  0  0  0
    5.1350    3.6121    0.0000 H   0  0  0  0  0  0  0  0  0  0  0  0
    4.0611    3.6121    0.0000 H   0  0  0  0  0  0  0  0  0  0  0  0
  1 21  1  0  0  0  0
  2 21  1  0  0  0  0
  3 21  1  0  0  0  0
  4 14  1  0  0  0  0
  4 15  1  0  0  0  0
 12  5  1  1  0  0  0
  5 28  1  0  0  0  0
 13  6  1  6  0  0  0
  6 29  1  0  0  0  0
  7 16  1  0  0  0  0
  7 31  1  0  0  0  0
  8 18  2  0  0  0  0
 14  9  1  6  0  0  0
  9 17  1  0  0  0  0
  9 18  1  0  0  0  0
 10 18  1  0  0  0  0
 10 20  2  0  0  0  0
 11 20  1  0  0  0  0
 11 32  1  0  0  0  0
 11 33  1  0  0  0  0
 12 13  1  0  0  0  0
 12 14  1  0  0  0  0
 12 22  1  0  0  0  0
 13 15  1  0  0  0  0
 13 23  1  0  0  0  0
 14 24  1  0  0  0  0
 15 16  1  6  0  0  0
 15 25  1  0  0  0  0
 16 26  1  0  0  0  0
 16 27  1  0  0  0  0
 17 19  2  0  0  0  0
 17 30  1  0  0  0  0
 19 20  1  0  0  0  0
 19 21  1  0  0  0  0
M  END
> <PUBCHEM_COMPOUND_CID>
510992
> <PUBCHEM_COMPOUND_CANONICALIZED>
1
> <PUBCHEM_CACTVS_COMPLEXITY>
507
> <PUBCHEM_CACTVS_HBOND_ACCEPTOR>
8
> <PUBCHEM_CACTVS_HBOND_DONOR>
4
> <PUBCHEM_CACTVS_ROTATABLE_BOND>
2
> <PUBCHEM_CACTVS_SUBSKEYS>
AAADccBzOYAAAAAAAAAAAAAAAAAAASAAAAAgAAAAAAAAAAAAAAAAHwAQCAAADBThgBYBAANABgCoAgJmdACAAAEAAAAAAAAoABCDEAIAgAAOQAAHBgITAADwMAIAAAAAAAAAAAAAAAAAAAAAAAAAAAAAAA==
> <PUBCHEM_IUPAC_OPENEYE_NAME>
4-amino-1-[(2R,3R,4R,5R)-3,4-dihydroxy-5-(hydroxymethyl)tetrahydrofuran-2-yl]-5-(trifluoromethyl)pyrimidin-2-one
> <PUBCHEM_IUPAC_CAS_NAME>
4-amino-1-[(2R,3R,4R,5R)-3,4-dihydroxy-5-(hydroxymethyl)-2-oxolanyl]-5-(trifluoromethyl)-2-pyrimidinone
> <PUBCHEM_IUPAC_NAME_MARKUP>
4-amino-1-[(2<I>R</I>,3<I>R</I>,4<I>R</I>,5<I>R</I>)-3,4-dihydroxy-5-(hydroxymethyl)oxolan-2-yl]-5-(trifluoromethyl)pyrimidin-2-one
> <PUBCHEM_IUPAC_NAME>
4-amino-1-[(2R,3R,4R,5R)-3,4-dihydroxy-5-(hydroxymethyl)oxolan-2-yl]-5-(trifluoromethyl)pyrimidin-2-one
> <PUBCHEM_IUPAC_SYSTEMATIC_NAME>
4-azanyl-1-[(2R,3R,4R,5R)-5-(hydroxymethyl)-3,4-bis(oxidanyl)oxolan-2-yl]-5-(trifluoromethyl)pyrimidin-2-one
> <PUBCHEM_IUPAC_TRADITIONAL_NAME>
4-amino-1-[(2R,3R,4R,5R)-3,4-dihydroxy-5-methylol-tetrahydrofuran-2-yl]-5-(trifluoromethyl)pyrimidin-2-one
> <PUBCHEM_IUPAC_INCHI>
InChI=1S/C10H12F3N3O5/c11-10(12,13)3-1-16(9(20)15-7(3)14)8-6(19)5(18)4(2-17)21-8/h1,4-6,8,17-19H,2H2,(H2,14,15,20)/t4-,5+,6-,8-/m1/s1
> <PUBCHEM_IUPAC_INCHIKEY>
GTPDEYWPIGFRQM-BYPJNBLXSA-N
> <PUBCHEM_XLOGP3>
-1.5
> <PUBCHEM_EXACT_MASS>
311.07290498
> <PUBCHEM_MOLECULAR_FORMULA>
C10H12F3N3O5
> <PUBCHEM_MOLECULAR_WEIGHT>
311.21
> <PUBCHEM_OPENEYE_CAN_SMILES>
C1=C(C(=NC(=O)N1C2C(C(C(O2)CO)O)O)N)C(F)(F)F
> <PUBCHEM_OPENEYE_ISO_SMILES>
C1=C(C(=NC(=O)N1[C@H]2[C@@H]([C@H]([C@H](O2)CO)O)O)N)C(F)(F)F
> <PUBCHEM_CACTVS_TPSA>
129
> <PUBCHEM_MONOISOTOPIC_WEIGHT>
311.07290498
> <PUBCHEM_TOTAL_CHARGE>
0
> <PUBCHEM_HEAVY_ATOM_COUNT>
21
> <PUBCHEM_ATOM_DEF_STEREO_COUNT>
4
> <PUBCHEM_ATOM_UDEF_STEREO_COUNT>
0
> <PUBCHEM_BOND_DEF_STEREO_COUNT>
0
> <PUBCHEM_BOND_UDEF_STEREO_COUNT>
0
> <PUBCHEM_ISOTOPIC_ATOM_COUNT>
0
> <PUBCHEM_COMPONENT_COUNT>
1
> <PUBCHEM_CACTVS_TAUTO_COUNT>
-1
> <PUBCHEM_COORDINATE_TYPE>
1
5
255
> <PUBCHEM_BONDANNOTATIONS>
10  18  8
10  20  8
15  16  6
17  19  8
19  20  8
12  5  5
13  6  6
14  9  6
9  17  8
9  18  8
$$$$
