510900
  -OEChem-10302200282D
 51 56  0     1  0  0  0  0  0999 V2000
    8.5427   -2.9198    0.0000 O   0  0  0  0  0  0  0  0  0  0  0  0
    5.5124   -2.7857    0.0000 O   0  0  0  0  0  0  0  0  0  0  0  0
    8.3775    2.7312    0.0000 O   0  0  0  0  0  0  0  0  0  0  0  0
    9.7713    1.9265    0.0000 O   0  0  0  0  0  0  0  0  0  0  0  0
    4.6522   -1.2824    0.0000 O   0  0  0  0  0  0  0  0  0  0  0  0
    4.6950    2.7724    0.0000 O   0  0  0  0  0  0  0  0  0  0  0  0
    8.9574   -1.9710    0.0000 N   0  0  0  0  0  0  0  0  0  0  0  0
    2.9001   -0.2417    0.0000 N   0  0  0  0  0  0  0  0  0  0  0  0
    2.9240    1.8274    0.0000 N   0  0  0  0  0  0  0  0  0  0  0  0
    6.3842   -1.2890    0.0000 C   0  0  1  0  0  0  0  0  0  0  0  0
    7.2863   -1.8099    0.0000 C   0  0  2  0  0  0  0  0  0  0  0  0
    6.3922   -0.2474    0.0000 C   0  0  1  0  0  0  0  0  0  0  0  0
    7.3022    0.2594    0.0000 C   0  0  0  0  0  0  0  0  0  0  0  0
    8.1843   -1.2821    0.0000 C   0  0  0  0  0  0  0  0  0  0  0  0
    8.1683   -0.2406    0.0000 C   0  0  0  0  0  0  0  0  0  0  0  0
    7.5120   -2.8204    0.0000 C   0  0  0  0  0  0  0  0  0  0  0  0
    5.5321    0.2625    0.0000 C   0  0  0  0  0  0  0  0  0  0  0  0
    5.5163   -1.7857    0.0000 C   0  0  0  0  0  0  0  0  0  0  0  0
    7.3022    1.2594    0.0000 C   0  0  0  0  0  0  0  0  0  0  0  0
    9.0343    0.2594    0.0000 C   0  0  0  0  0  0  0  0  0  0  0  0
    8.1683    1.7594    0.0000 C   0  0  0  0  0  0  0  0  0  0  0  0
    9.0343    1.2594    0.0000 C   0  0  0  0  0  0  0  0  0  0  0  0
    4.6603   -0.2274    0.0000 C   0  0  0  0  0  0  0  0  0  0  0  0
    5.5436    1.2625    0.0000 C   0  0  0  0  0  0  0  0  0  0  0  0
    3.8001    0.2826    0.0000 C   0  0  0  0  0  0  0  0  0  0  0  0
    4.6834    1.7724    0.0000 C   0  0  0  0  0  0  0  0  0  0  0  0
    3.8117    1.2825    0.0000 C   0  0  0  0  0  0  0  0  0  0  0  0
    9.3662    2.8343    0.0000 C   0  0  0  0  0  0  0  0  0  0  0  0
    4.6445   -3.2824    0.0000 C   0  0  0  0  0  0  0  0  0  0  0  0
    2.0000    0.2826    0.0000 C   0  0  0  0  0  0  0  0  0  0  0  0
    2.0120    1.3241    0.0000 C   0  0  0  0  0  0  0  0  0  0  0  0
    3.8348    3.2824    0.0000 C   0  0  0  0  0  0  0  0  0  0  0  0
    5.8491   -0.9760    0.0000 H   0  0  0  0  0  0  0  0  0  0  0  0
    6.6012   -2.3130    0.0000 H   0  0  0  0  0  0  0  0  0  0  0  0
    5.8524   -0.5523    0.0000 H   0  0  0  0  0  0  0  0  0  0  0  0
    6.8961   -2.8912    0.0000 H   0  0  0  0  0  0  0  0  0  0  0  0
    7.5177   -3.4404    0.0000 H   0  0  0  0  0  0  0  0  0  0  0  0
    6.7653    1.5694    0.0000 H   0  0  0  0  0  0  0  0  0  0  0  0
    9.5712   -0.0506    0.0000 H   0  0  0  0  0  0  0  0  0  0  0  0
    4.6532   -0.8474    0.0000 H   0  0  0  0  0  0  0  0  0  0  0  0
    6.0841    1.5662    0.0000 H   0  0  0  0  0  0  0  0  0  0  0  0
    9.9558    3.0260    0.0000 H   0  0  0  0  0  0  0  0  0  0  0  0
    9.2375    3.4408    0.0000 H   0  0  0  0  0  0  0  0  0  0  0  0
    4.3365   -2.7442    0.0000 H   0  0  0  0  0  0  0  0  0  0  0  0
    4.1064   -3.5903    0.0000 H   0  0  0  0  0  0  0  0  0  0  0  0
    4.9524   -3.8205    0.0000 H   0  0  0  0  0  0  0  0  0  0  0  0
    1.4607   -0.0233    0.0000 H   0  0  0  0  0  0  0  0  0  0  0  0
    1.4800    1.6424    0.0000 H   0  0  0  0  0  0  0  0  0  0  0  0
    4.1510    3.8157    0.0000 H   0  0  0  0  0  0  0  0  0  0  0  0
    3.3015    3.5986    0.0000 H   0  0  0  0  0  0  0  0  0  0  0  0
    3.5186    2.7490    0.0000 H   0  0  0  0  0  0  0  0  0  0  0  0
  1  7  1  0  0  0  0
  1 16  1  0  0  0  0
  2 18  1  0  0  0  0
  2 29  1  0  0  0  0
  3 21  1  0  0  0  0
  3 28  1  0  0  0  0
  4 22  1  0  0  0  0
  4 28  1  0  0  0  0
  5 18  2  0  0  0  0
  6 26  1  0  0  0  0
  6 32  1  0  0  0  0
  7 14  2  0  0  0  0
  8 25  2  0  0  0  0
  8 30  1  0  0  0  0
  9 27  2  0  0  0  0
  9 31  1  0  0  0  0
 10 11  1  0  0  0  0
 10 12  1  0  0  0  0
 10 18  1  6  0  0  0
 10 33  1  0  0  0  0
 11 14  1  0  0  0  0
 11 16  1  0  0  0  0
 11 34  1  1  0  0  0
 12 13  1  0  0  0  0
 12 17  1  6  0  0  0
 12 35  1  0  0  0  0
 13 15  1  0  0  0  0
 13 19  2  0  0  0  0
 14 15  1  0  0  0  0
 15 20  2  0  0  0  0
 16 36  1  0  0  0  0
 16 37  1  0  0  0  0
 17 23  2  0  0  0  0
 17 24  1  0  0  0  0
 19 21  1  0  0  0  0
 19 38  1  0  0  0  0
 20 22  1  0  0  0  0
 20 39  1  0  0  0  0
 21 22  2  0  0  0  0
 23 25  1  0  0  0  0
 23 40  1  0  0  0  0
 24 26  2  0  0  0  0
 24 41  1  0  0  0  0
 25 27  1  0  0  0  0
 26 27  1  0  0  0  0
 28 42  1  0  0  0  0
 28 43  1  0  0  0  0
 29 44  1  0  0  0  0
 29 45  1  0  0  0  0
 29 46  1  0  0  0  0
 30 31  2  0  0  0  0
 30 47  1  0  0  0  0
 31 48  1  0  0  0  0
 32 49  1  0  0  0  0
 32 50  1  0  0  0  0
 32 51  1  0  0  0  0
M  END
> <PUBCHEM_COMPOUND_CID>
510900
> <PUBCHEM_COMPOUND_CANONICALIZED>
1
> <PUBCHEM_CACTVS_COMPLEXITY>
764
> <PUBCHEM_CACTVS_HBOND_ACCEPTOR>
9
> <PUBCHEM_CACTVS_HBOND_DONOR>
0
> <PUBCHEM_CACTVS_ROTATABLE_BOND>
4
> <PUBCHEM_CACTVS_SUBSKEYS>
AAADceB7OAAAAAAAAAAAAAAAAAAAASIAAAA8YMEAAAAAAEjx9AAAHgAEAAAADQzhngc+zrIYFACoAzT3TASCiCQxciAI2CE//JgfZvLEsZu1MCpmwBne6Afa2POOqAABQgAQUCDQAAaEACCgQAAAAAAAAA==
> <PUBCHEM_IUPAC_OPENEYE_NAME>
methyl (3aR,4R,5R)-5-(8-methoxyquinoxalin-6-yl)-3,3a,4,5-tetrahydro-[1,3]benzodioxolo[6,5-g][2,1]benzoxazole-4-carboxylate
> <PUBCHEM_IUPAC_CAS_NAME>
(3aR,4R,5R)-5-(8-methoxy-6-quinoxalinyl)-3,3a,4,5-tetrahydro-[1,3]benzodioxolo[6,5-g][2,1]benzoxazole-4-carboxylic acid methyl ester
> <PUBCHEM_IUPAC_NAME_MARKUP>
methyl (3<I>a</I><I>R</I>,4<I>R</I>,5<I>R</I>)-5-(8-methoxyquinoxalin-6-yl)-3,3<I>a</I>,4,5-tetrahydro-[1,3]benzodioxolo[6,5-g][2,1]benzoxazole-4-carboxylate
> <PUBCHEM_IUPAC_NAME>
methyl (3aR,4R,5R)-5-(8-methoxyquinoxalin-6-yl)-3,3a,4,5-tetrahydro-[1,3]benzodioxolo[6,5-g][2,1]benzoxazole-4-carboxylate
> <PUBCHEM_IUPAC_SYSTEMATIC_NAME>
methyl (3aR,4R,5R)-5-(8-methoxyquinoxalin-6-yl)-3,3a,4,5-tetrahydro-[1,3]benzodioxolo[6,5-g][2,1]benzoxazole-4-carboxylate
> <PUBCHEM_IUPAC_TRADITIONAL_NAME>
(3aR,4R,5R)-5-(8-methoxyquinoxalin-6-yl)-3,3a,4,5-tetrahydro-[1,3]benzodioxolo[6,5-g][2,1]benzoxazole-4-carboxylic acid methyl ester
> <PUBCHEM_IUPAC_INCHI>
InChI=1S/C23H19N3O6/c1-28-18-6-11(5-15-22(18)25-4-3-24-15)19-12-7-16-17(31-10-30-16)8-13(12)21-14(9-32-26-21)20(19)23(27)29-2/h3-8,14,19-20H,9-10H2,1-2H3/t14-,19-,20+/m1/s1
> <PUBCHEM_IUPAC_INCHIKEY>
SNBQHWJMLCTIDZ-XMCHAPAWSA-N
> <PUBCHEM_XLOGP3_AA>
2.2
> <PUBCHEM_EXACT_MASS>
433.12738533
> <PUBCHEM_MOLECULAR_FORMULA>
C23H19N3O6
> <PUBCHEM_MOLECULAR_WEIGHT>
433.4
> <PUBCHEM_OPENEYE_CAN_SMILES>
COC1=CC(=CC2=NC=CN=C12)C3C(C4CON=C4C5=CC6=C(C=C35)OCO6)C(=O)OC
> <PUBCHEM_OPENEYE_ISO_SMILES>
COC1=CC(=CC2=NC=CN=C12)[C@H]3[C@H]([C@H]4CON=C4C5=CC6=C(C=C35)OCO6)C(=O)OC
> <PUBCHEM_CACTVS_TPSA>
101
> <PUBCHEM_MONOISOTOPIC_WEIGHT>
433.12738533
> <PUBCHEM_TOTAL_CHARGE>
0
> <PUBCHEM_HEAVY_ATOM_COUNT>
32
> <PUBCHEM_ATOM_DEF_STEREO_COUNT>
3
> <PUBCHEM_ATOM_UDEF_STEREO_COUNT>
0
> <PUBCHEM_BOND_DEF_STEREO_COUNT>
0
> <PUBCHEM_BOND_UDEF_STEREO_COUNT>
0
> <PUBCHEM_ISOTOPIC_ATOM_COUNT>
0
> <PUBCHEM_COMPONENT_COUNT>
1
> <PUBCHEM_CACTVS_TAUTO_COUNT>
-1
> <PUBCHEM_COORDINATE_TYPE>
1
5
255
> <PUBCHEM_BONDANNOTATIONS>
10  18  6
11  34  5
12  17  6
13  15  8
13  19  8
15  20  8
17  23  8
17  24  8
19  21  8
20  22  8
21  22  8
23  25  8
24  26  8
25  27  8
26  27  8
30  31  8
8  25  8
8  30  8
9  27  8
9  31  8
$$$$
