510975
  -OEChem-10302200282D
 50 53  0     1  0  0  0  0  0999 V2000
    8.5951    5.2772    0.0000 S   0  0  0  0  0  0  0  0  0  0  0  0
    9.2655    6.0192    0.0000 F   0  0  0  0  0  0  0  0  0  0  0  0
    5.2686   -1.1439    0.0000 O   0  0  0  0  0  0  0  0  0  0  0  0
    7.6146   -2.2358    0.0000 O   0  0  0  0  0  0  0  0  0  0  0  0
    7.6183   -0.0602    0.0000 O   0  0  0  0  0  0  0  0  0  0  0  0
    6.2208    1.3577    0.0000 O   0  0  0  0  0  0  0  0  0  0  0  0
    4.9356    2.5189    0.0000 O   0  0  0  0  0  0  0  0  0  0  0  0
    7.8531    5.9476    0.0000 O   0  0  0  0  0  0  0  0  0  0  0  0
    9.3371    4.6068    0.0000 O   0  0  0  0  0  0  0  0  0  0  0  0
    5.5443   -2.9045    0.0000 N   0  0  0  0  0  0  0  0  0  0  0  0
    5.5443   -4.5139    0.0000 N   0  0  0  0  0  0  0  0  0  0  0  0
    3.7320   -2.7092    0.0000 N   0  0  0  0  0  0  0  0  0  0  0  0
    2.8660   -4.2092    0.0000 N   0  0  0  0  0  0  0  0  0  0  0  0
    3.7320   -5.7092    0.0000 N   0  0  0  0  0  0  0  0  0  0  0  0
    6.8066   -1.6466    0.0000 C   0  0  2  0  0  0  0  0  0  0  0  0
    6.8083   -0.6466    0.0000 C   0  0  1  0  0  0  0  0  0  0  0  0
    5.8550   -1.9539    0.0000 C   0  0  1  0  0  0  0  0  0  0  0  0
    5.8578   -0.3359    0.0000 C   0  0  1  0  0  0  0  0  0  0  0  0
    5.5504    0.6157    0.0000 C   0  0  0  0  0  0  0  0  0  0  0  0
    4.5981   -3.2092    0.0000 C   0  0  0  0  0  0  0  0  0  0  0  0
    6.1279   -3.7092    0.0000 C   0  0  0  0  0  0  0  0  0  0  0  0
    4.5981   -4.2092    0.0000 C   0  0  0  0  0  0  0  0  0  0  0  0
    3.7320   -4.7092    0.0000 C   0  0  0  0  0  0  0  0  0  0  0  0
    5.9134    2.3093    0.0000 C   0  0  0  0  0  0  0  0  0  0  0  0
    2.8660   -3.2092    0.0000 C   0  0  0  0  0  0  0  0  0  0  0  0
    6.5838    3.0512    0.0000 C   0  0  0  0  0  0  0  0  0  0  0  0
    2.0000   -2.7092    0.0000 C   0  0  0  0  0  0  0  0  0  0  0  0
    6.2765    4.0028    0.0000 C   0  0  0  0  0  0  0  0  0  0  0  0
    7.5616    2.8416    0.0000 C   0  0  0  0  0  0  0  0  0  0  0  0
    6.9469    4.7448    0.0000 C   0  0  0  0  0  0  0  0  0  0  0  0
    8.2320    3.5836    0.0000 C   0  0  0  0  0  0  0  0  0  0  0  0
    7.9247    4.5352    0.0000 C   0  0  0  0  0  0  0  0  0  0  0  0
    6.7085   -2.2588    0.0000 H   0  0  0  0  0  0  0  0  0  0  0  0
    7.3602   -0.9290    0.0000 H   0  0  0  0  0  0  0  0  0  0  0  0
    6.2926   -2.3931    0.0000 H   0  0  0  0  0  0  0  0  0  0  0  0
    5.2456   -0.2379    0.0000 H   0  0  0  0  0  0  0  0  0  0  0  0
    5.1695    1.1049    0.0000 H   0  0  0  0  0  0  0  0  0  0  0  0
    5.0025    0.3256    0.0000 H   0  0  0  0  0  0  0  0  0  0  0  0
    8.1814   -1.9846    0.0000 H   0  0  0  0  0  0  0  0  0  0  0  0
    8.1843   -0.3133    0.0000 H   0  0  0  0  0  0  0  0  0  0  0  0
    6.7479   -3.7092    0.0000 H   0  0  0  0  0  0  0  0  0  0  0  0
    3.1951   -6.0192    0.0000 H   0  0  0  0  0  0  0  0  0  0  0  0
    4.2690   -6.0192    0.0000 H   0  0  0  0  0  0  0  0  0  0  0  0
    2.3100   -2.1722    0.0000 H   0  0  0  0  0  0  0  0  0  0  0  0
    1.4631   -2.3992    0.0000 H   0  0  0  0  0  0  0  0  0  0  0  0
    1.6900   -3.2461    0.0000 H   0  0  0  0  0  0  0  0  0  0  0  0
    5.6702    4.1328    0.0000 H   0  0  0  0  0  0  0  0  0  0  0  0
    7.7522    2.2517    0.0000 H   0  0  0  0  0  0  0  0  0  0  0  0
    6.7563    5.3348    0.0000 H   0  0  0  0  0  0  0  0  0  0  0  0
    8.8383    3.4537    0.0000 H   0  0  0  0  0  0  0  0  0  0  0  0
  1  2  1  0  0  0  0
  1  8  2  0  0  0  0
  1  9  2  0  0  0  0
  1 32  1  0  0  0  0
  3 17  1  0  0  0  0
  3 18  1  0  0  0  0
 15  4  1  1  0  0  0
  4 39  1  0  0  0  0
 16  5  1  1  0  0  0
  5 40  1  0  0  0  0
  6 19  1  0  0  0  0
  6 24  1  0  0  0  0
  7 24  2  0  0  0  0
 17 10  1  6  0  0  0
 10 20  1  0  0  0  0
 10 21  1  0  0  0  0
 11 21  2  0  0  0  0
 11 22  1  0  0  0  0
 12 20  2  0  0  0  0
 12 25  1  0  0  0  0
 13 23  1  0  0  0  0
 13 25  2  0  0  0  0
 14 23  1  0  0  0  0
 14 42  1  0  0  0  0
 14 43  1  0  0  0  0
 15 16  1  0  0  0  0
 15 17  1  0  0  0  0
 15 33  1  0  0  0  0
 16 18  1  0  0  0  0
 16 34  1  0  0  0  0
 17 35  1  0  0  0  0
 18 19  1  6  0  0  0
 18 36  1  0  0  0  0
 19 37  1  0  0  0  0
 19 38  1  0  0  0  0
 20 22  1  0  0  0  0
 21 41  1  0  0  0  0
 22 23  2  0  0  0  0
 24 26  1  0  0  0  0
 25 27  1  0  0  0  0
 26 28  2  0  0  0  0
 26 29  1  0  0  0  0
 27 44  1  0  0  0  0
 27 45  1  0  0  0  0
 27 46  1  0  0  0  0
 28 30  1  0  0  0  0
 28 47  1  0  0  0  0
 29 31  2  0  0  0  0
 29 48  1  0  0  0  0
 30 32  2  0  0  0  0
 30 49  1  0  0  0  0
 31 32  1  0  0  0  0
 31 50  1  0  0  0  0
M  END
> <PUBCHEM_COMPOUND_CID>
510975
> <PUBCHEM_COMPOUND_CANONICALIZED>
1
> <PUBCHEM_CACTVS_COMPLEXITY>
793
> <PUBCHEM_CACTVS_HBOND_ACCEPTOR>
12
> <PUBCHEM_CACTVS_HBOND_DONOR>
3
> <PUBCHEM_CACTVS_ROTATABLE_BOND>
6
> <PUBCHEM_CACTVS_SUBSKEYS>
AAADceB7uQBAAAAAAAAAAAAAAAAAAWJAAAA8QAAAAAAAAFgB/AAAHgQQCAQADBzh3wY3+b9MFgKoAybzbHDCgC01EKAJ2Dk4XNiLfjLA/ViedQgvwAPbqaf4+CqOEAAAAAAAAAAgAAAAAAAAAAAAAAAAAA==
> <PUBCHEM_IUPAC_OPENEYE_NAME>
[(2R,3S,4R,5R)-5-(6-amino-2-methyl-purin-9-yl)-3,4-dihydroxy-tetrahydrofuran-2-yl]methyl 4-fluorosulfonylbenzoate
> <PUBCHEM_IUPAC_CAS_NAME>
4-fluorosulfonylbenzoic acid [(2R,3S,4R,5R)-5-(6-amino-2-methyl-9-purinyl)-3,4-dihydroxy-2-oxolanyl]methyl ester
> <PUBCHEM_IUPAC_NAME_MARKUP>
[(2<I>R</I>,3<I>S</I>,4<I>R</I>,5<I>R</I>)-5-(6-amino-2-methylpurin-9-yl)-3,4-dihydroxyoxolan-2-yl]methyl 4-fluorosulfonylbenzoate
> <PUBCHEM_IUPAC_NAME>
[(2R,3S,4R,5R)-5-(6-amino-2-methylpurin-9-yl)-3,4-dihydroxyoxolan-2-yl]methyl 4-fluorosulfonylbenzoate
> <PUBCHEM_IUPAC_SYSTEMATIC_NAME>
[(2R,3S,4R,5R)-5-(6-azanyl-2-methyl-purin-9-yl)-3,4-bis(oxidanyl)oxolan-2-yl]methyl 4-fluorosulfonylbenzoate
> <PUBCHEM_IUPAC_TRADITIONAL_NAME>
4-fluorosulfonylbenzoic acid [(2R,3S,4R,5R)-5-(6-amino-2-methyl-purin-9-yl)-3,4-dihydroxy-tetrahydrofuran-2-yl]methyl ester
> <PUBCHEM_IUPAC_INCHI>
InChI=1S/C18H18FN5O7S/c1-8-22-15(20)12-16(23-8)24(7-21-12)17-14(26)13(25)11(31-17)6-30-18(27)9-2-4-10(5-3-9)32(19,28)29/h2-5,7,11,13-14,17,25-26H,6H2,1H3,(H2,20,22,23)/t11-,13-,14-,17-/m1/s1
> <PUBCHEM_IUPAC_INCHIKEY>
OOHJEPCTPGRWNA-LSCFUAHRSA-N
> <PUBCHEM_XLOGP3>
0.8
> <PUBCHEM_EXACT_MASS>
467.09109727
> <PUBCHEM_MOLECULAR_FORMULA>
C18H18FN5O7S
> <PUBCHEM_MOLECULAR_WEIGHT>
467.4
> <PUBCHEM_OPENEYE_CAN_SMILES>
CC1=NC(=C2C(=N1)N(C=N2)C3C(C(C(O3)COC(=O)C4=CC=C(C=C4)S(=O)(=O)F)O)O)N
> <PUBCHEM_OPENEYE_ISO_SMILES>
CC1=NC(=C2C(=N1)N(C=N2)[C@H]3[C@@H]([C@@H]([C@H](O3)COC(=O)C4=CC=C(C=C4)S(=O)(=O)F)O)O)N
> <PUBCHEM_CACTVS_TPSA>
188
> <PUBCHEM_MONOISOTOPIC_WEIGHT>
467.09109727
> <PUBCHEM_TOTAL_CHARGE>
0
> <PUBCHEM_HEAVY_ATOM_COUNT>
32
> <PUBCHEM_ATOM_DEF_STEREO_COUNT>
4
> <PUBCHEM_ATOM_UDEF_STEREO_COUNT>
0
> <PUBCHEM_BOND_DEF_STEREO_COUNT>
0
> <PUBCHEM_BOND_UDEF_STEREO_COUNT>
0
> <PUBCHEM_ISOTOPIC_ATOM_COUNT>
0
> <PUBCHEM_COMPONENT_COUNT>
1
> <PUBCHEM_CACTVS_TAUTO_COUNT>
-1
> <PUBCHEM_COORDINATE_TYPE>
1
5
255
> <PUBCHEM_BONDANNOTATIONS>
17  10  6
10  20  8
10  21  8
11  21  8
11  22  8
12  20  8
12  25  8
13  23  8
13  25  8
18  19  6
20  22  8
22  23  8
26  28  8
26  29  8
28  30  8
29  31  8
30  32  8
31  32  8
15  4  5
16  5  5
$$$$
