510962
  -OEChem-10302200282D
 99103  0     1  0  0  0  0  0999 V2000
   12.6802   -2.5896    0.0000 S   0  0  0  0  0  0  0  0  0  0  0  0
   10.0707   -1.1097    0.0000 O   0  0  0  0  0  0  0  0  0  0  0  0
    2.0000   -2.6896    0.0000 O   0  0  0  0  0  0  0  0  0  0  0  0
   13.5269   -0.0830    0.0000 O   0  0  0  0  0  0  0  0  0  0  0  0
   12.6494    1.4102    0.0000 O   0  0  0  0  0  0  0  0  0  0  0  0
   10.9251    0.3969    0.0000 N   0  0  0  0  0  0  0  0  0  0  0  0
    7.3931   -0.6372    0.0000 C   0  0  2  0  0  0  0  0  0  0  0  0
    6.5271   -1.1372    0.0000 C   0  0  1  0  0  0  0  0  0  0  0  0
    7.3931    0.3628    0.0000 C   0  0  3  0  0  0  0  0  0  0  0  0
    5.6610   -0.6372    0.0000 C   0  0  3  0  0  0  0  0  0  0  0  0
    8.2870    0.8974    0.0000 C   0  0  3  0  0  0  0  0  0  0  0  0
    4.7510   -1.1441    0.0000 C   0  0  2  0  0  0  0  0  0  0  0  0
    9.1931    0.3836    0.0000 C   0  0  1  0  0  0  0  0  0  0  0  0
    4.7430   -2.1857    0.0000 C   0  0  3  0  0  0  0  0  0  0  0  0
    8.2870   -1.1719    0.0000 C   0  0  0  0  0  0  0  0  0  0  0  0
    6.5271    0.8628    0.0000 C   0  0  0  0  0  0  0  0  0  0  0  0
    5.6610    0.3628    0.0000 C   0  0  0  0  0  0  0  0  0  0  0  0
    6.5431   -2.1788    0.0000 C   0  0  0  0  0  0  0  0  0  0  0  0
    9.1931   -0.6581    0.0000 C   0  0  0  0  0  0  0  0  0  0  0  0
    5.6451   -2.7065    0.0000 C   0  0  0  0  0  0  0  0  0  0  0  0
    8.4971    1.9113    0.0000 C   0  0  1  0  0  0  0  0  0  0  0  0
    7.7352   -1.5769    0.0000 C   0  0  0  0  0  0  0  0  0  0  0  0
    7.1698   -1.9033    0.0000 C   0  0  0  0  0  0  0  0  0  0  0  0
    9.9554    1.0843    0.0000 C   0  0  0  0  0  0  0  0  0  0  0  0
    3.8242   -0.5800    0.0000 C   0  0  0  0  0  0  0  0  0  0  0  0
    3.8076   -2.7354    0.0000 C   0  0  0  0  0  0  0  0  0  0  0  0
    9.5262    2.0266    0.0000 C   0  0  0  0  0  0  0  0  0  0  0  0
    4.7587   -0.1441    0.0000 C   0  0  0  0  0  0  0  0  0  0  0  0
   10.0629   -0.1097    0.0000 C   0  0  0  0  0  0  0  0  0  0  0  0
    2.8763   -1.1080    0.0000 C   0  0  0  0  0  0  0  0  0  0  0  0
    2.8680   -2.1929    0.0000 C   0  0  0  0  0  0  0  0  0  0  0  0
    7.8236    2.6505    0.0000 C   0  0  0  0  0  0  0  0  0  0  0  0
    3.3109   -3.6034    0.0000 C   0  0  0  0  0  0  0  0  0  0  0  0
    4.3109   -3.5995    0.0000 C   0  0  0  0  0  0  0  0  0  0  0  0
    8.1269    3.6034    0.0000 C   0  0  0  0  0  0  0  0  0  0  0  0
    6.8467    2.4367    0.0000 C   0  0  0  0  0  0  0  0  0  0  0  0
   11.7949   -0.0964    0.0000 C   0  0  1  0  0  0  0  0  0  0  0  0
   11.8027   -1.0964    0.0000 C   0  0  0  0  0  0  0  0  0  0  0  0
   12.6571    0.4103    0.0000 C   0  0  0  0  0  0  0  0  0  0  0  0
   12.6725   -1.5897    0.0000 C   0  0  0  0  0  0  0  0  0  0  0  0
   14.3891    0.4236    0.0000 C   0  0  0  0  0  0  0  0  0  0  0  0
   13.5501   -3.0829    0.0000 C   0  0  0  0  0  0  0  0  0  0  0  0
    7.3883    0.9827    0.0000 H   0  0  0  0  0  0  0  0  0  0  0  0
    6.1980   -0.3272    0.0000 H   0  0  0  0  0  0  0  0  0  0  0  0
    7.7817    1.2567    0.0000 H   0  0  0  0  0  0  0  0  0  0  0  0
    4.7454   -2.8057    0.0000 H   0  0  0  0  0  0  0  0  0  0  0  0
    7.8824   -1.6417    0.0000 H   0  0  0  0  0  0  0  0  0  0  0  0
    8.6806   -1.6509    0.0000 H   0  0  0  0  0  0  0  0  0  0  0  0
    6.9256    1.3377    0.0000 H   0  0  0  0  0  0  0  0  0  0  0  0
    6.1285    1.3377    0.0000 H   0  0  0  0  0  0  0  0  0  0  0  0
    5.4490    0.9454    0.0000 H   0  0  0  0  0  0  0  0  0  0  0  0
    5.0504    0.2551    0.0000 H   0  0  0  0  0  0  0  0  0  0  0  0
    6.7612   -2.7592    0.0000 H   0  0  0  0  0  0  0  0  0  0  0  0
    7.1523   -2.0632    0.0000 H   0  0  0  0  0  0  0  0  0  0  0  0
    9.4022   -1.2418    0.0000 H   0  0  0  0  0  0  0  0  0  0  0  0
    9.8040   -0.5520    0.0000 H   0  0  0  0  0  0  0  0  0  0  0  0
    5.2478   -3.1825    0.0000 H   0  0  0  0  0  0  0  0  0  0  0  0
    6.0460   -3.1794    0.0000 H   0  0  0  0  0  0  0  0  0  0  0  0
    7.8992    1.7476    0.0000 H   0  0  0  0  0  0  0  0  0  0  0  0
    7.1526   -1.7890    0.0000 H   0  0  0  0  0  0  0  0  0  0  0  0
    7.9473   -2.1595    0.0000 H   0  0  0  0  0  0  0  0  0  0  0  0
    8.3178   -1.3648    0.0000 H   0  0  0  0  0  0  0  0  0  0  0  0
    6.6949   -2.3018    0.0000 H   0  0  0  0  0  0  0  0  0  0  0  0
    7.5684   -2.3782    0.0000 H   0  0  0  0  0  0  0  0  0  0  0  0
    7.6448   -1.5048    0.0000 H   0  0  0  0  0  0  0  0  0  0  0  0
   10.3247    0.5863    0.0000 H   0  0  0  0  0  0  0  0  0  0  0  0
   10.4895    1.3992    0.0000 H   0  0  0  0  0  0  0  0  0  0  0  0
    4.2324   -0.1134    0.0000 H   0  0  0  0  0  0  0  0  0  0  0  0
    3.4343   -0.0980    0.0000 H   0  0  0  0  0  0  0  0  0  0  0  0
   10.1143    2.2229    0.0000 H   0  0  0  0  0  0  0  0  0  0  0  0
    9.3928    2.6321    0.0000 H   0  0  0  0  0  0  0  0  0  0  0  0
    5.3787   -0.1489    0.0000 H   0  0  0  0  0  0  0  0  0  0  0  0
    4.7635    0.4759    0.0000 H   0  0  0  0  0  0  0  0  0  0  0  0
    4.1388   -0.1393    0.0000 H   0  0  0  0  0  0  0  0  0  0  0  0
    2.6718   -0.5227    0.0000 H   0  0  0  0  0  0  0  0  0  0  0  0
    2.2647   -1.2093    0.0000 H   0  0  0  0  0  0  0  0  0  0  0  0
    2.7728   -3.2954    0.0000 H   0  0  0  0  0  0  0  0  0  0  0  0
    3.0030   -4.1415    0.0000 H   0  0  0  0  0  0  0  0  0  0  0  0
    3.8490   -3.9113    0.0000 H   0  0  0  0  0  0  0  0  0  0  0  0
    3.7752   -3.9116    0.0000 H   0  0  0  0  0  0  0  0  0  0  0  0
    4.6230   -4.1352    0.0000 H   0  0  0  0  0  0  0  0  0  0  0  0
    4.8466   -3.2874    0.0000 H   0  0  0  0  0  0  0  0  0  0  0  0
   10.9203    1.0169    0.0000 H   0  0  0  0  0  0  0  0  0  0  0  0
    8.7177    3.4153    0.0000 H   0  0  0  0  0  0  0  0  0  0  0  0
    8.3150    4.1941    0.0000 H   0  0  0  0  0  0  0  0  0  0  0  0
    7.5361    3.7914    0.0000 H   0  0  0  0  0  0  0  0  0  0  0  0
    6.4291    2.8950    0.0000 H   0  0  0  0  0  0  0  0  0  0  0  0
    6.6586    1.8459    0.0000 H   0  0  0  0  0  0  0  0  0  0  0  0
   11.7902    0.5236    0.0000 H   0  0  0  0  0  0  0  0  0  0  0  0
   11.1913   -0.9934    0.0000 H   0  0  0  0  0  0  0  0  0  0  0  0
   11.5951   -1.6806    0.0000 H   0  0  0  0  0  0  0  0  0  0  0  0
   13.2839   -1.6926    0.0000 H   0  0  0  0  0  0  0  0  0  0  0  0
   12.8801   -1.0054    0.0000 H   0  0  0  0  0  0  0  0  0  0  0  0
   14.7032   -0.1109    0.0000 H   0  0  0  0  0  0  0  0  0  0  0  0
   14.9236    0.7378    0.0000 H   0  0  0  0  0  0  0  0  0  0  0  0
   14.0750    0.9582    0.0000 H   0  0  0  0  0  0  0  0  0  0  0  0
   13.2442   -3.6222    0.0000 H   0  0  0  0  0  0  0  0  0  0  0  0
   14.0894   -3.3888    0.0000 H   0  0  0  0  0  0  0  0  0  0  0  0
   13.8559   -2.5436    0.0000 H   0  0  0  0  0  0  0  0  0  0  0  0
  1 40  1  0  0  0  0
  1 42  1  0  0  0  0
  2 29  2  0  0  0  0
  3 31  2  0  0  0  0
  4 39  1  0  0  0  0
  4 41  1  0  0  0  0
  5 39  2  0  0  0  0
  6 29  1  0  0  0  0
 37  6  1  6  0  0  0
  6 83  1  0  0  0  0
  7  8  1  0  0  0  0
  7  9  1  0  0  0  0
  7 15  1  0  0  0  0
  7 22  1  1  0  0  0
  8 10  1  0  0  0  0
  8 18  1  0  0  0  0
  8 23  1  1  0  0  0
  9 11  1  0  0  0  0
  9 16  1  0  0  0  0
  9 43  1  0  0  0  0
 10 12  1  0  0  0  0
 10 17  1  0  0  0  0
 10 44  1  0  0  0  0
 11 13  1  0  0  0  0
 11 21  1  0  0  0  0
 11 45  1  0  0  0  0
 12 14  1  0  0  0  0
 12 25  1  0  0  0  0
 12 28  1  1  0  0  0
 13 19  1  0  0  0  0
 13 24  1  0  0  0  0
 13 29  1  1  0  0  0
 14 20  1  0  0  0  0
 14 26  1  0  0  0  0
 14 46  1  0  0  0  0
 15 19  1  0  0  0  0
 15 47  1  0  0  0  0
 15 48  1  0  0  0  0
 16 17  1  0  0  0  0
 16 49  1  0  0  0  0
 16 50  1  0  0  0  0
 17 51  1  0  0  0  0
 17 52  1  0  0  0  0
 18 20  1  0  0  0  0
 18 53  1  0  0  0  0
 18 54  1  0  0  0  0
 19 55  1  0  0  0  0
 19 56  1  0  0  0  0
 20 57  1  0  0  0  0
 20 58  1  0  0  0  0
 21 27  1  0  0  0  0
 21 32  1  0  0  0  0
 21 59  1  0  0  0  0
 22 60  1  0  0  0  0
 22 61  1  0  0  0  0
 22 62  1  0  0  0  0
 23 63  1  0  0  0  0
 23 64  1  0  0  0  0
 23 65  1  0  0  0  0
 24 27  1  0  0  0  0
 24 66  1  0  0  0  0
 24 67  1  0  0  0  0
 25 30  1  0  0  0  0
 25 68  1  0  0  0  0
 25 69  1  0  0  0  0
 26 31  1  0  0  0  0
 26 33  1  0  0  0  0
 26 34  1  0  0  0  0
 27 70  1  0  0  0  0
 27 71  1  0  0  0  0
 28 72  1  0  0  0  0
 28 73  1  0  0  0  0
 28 74  1  0  0  0  0
 30 31  1  0  0  0  0
 30 75  1  0  0  0  0
 30 76  1  0  0  0  0
 32 35  1  0  0  0  0
 32 36  2  0  0  0  0
 33 77  1  0  0  0  0
 33 78  1  0  0  0  0
 33 79  1  0  0  0  0
 34 80  1  0  0  0  0
 34 81  1  0  0  0  0
 34 82  1  0  0  0  0
 35 84  1  0  0  0  0
 35 85  1  0  0  0  0
 35 86  1  0  0  0  0
 36 87  1  0  0  0  0
 36 88  1  0  0  0  0
 37 38  1  0  0  0  0
 37 39  1  0  0  0  0
 37 89  1  0  0  0  0
 38 40  1  0  0  0  0
 38 90  1  0  0  0  0
 38 91  1  0  0  0  0
 40 92  1  0  0  0  0
 40 93  1  0  0  0  0
 41 94  1  0  0  0  0
 41 95  1  0  0  0  0
 41 96  1  0  0  0  0
 42 97  1  0  0  0  0
 42 98  1  0  0  0  0
 42 99  1  0  0  0  0
M  END
> <PUBCHEM_COMPOUND_CID>
510962
> <PUBCHEM_COMPOUND_CANONICALIZED>
1
> <PUBCHEM_CACTVS_COMPLEXITY>
1130
> <PUBCHEM_CACTVS_HBOND_ACCEPTOR>
5
> <PUBCHEM_CACTVS_HBOND_DONOR>
1
> <PUBCHEM_CACTVS_ROTATABLE_BOND>
8
> <PUBCHEM_CACTVS_SUBSKEYS>
AAADcfB+OABAAAAAAAAAAAAAAAAAAYAAAAAwYMGAAAAAAGDAAAAAHgQQAAAADyzFwAaCCALABAiIAoHSGAAAAAAgABAAAIGIAAgCABIggSAFAAAElgCQAAEYiMCPgAAAAAAAAACAAAQAACAAAQAACAAAAA==
> <PUBCHEM_IUPAC_OPENEYE_NAME>
methyl (2S)-2-[[(1R,3aS,5aS,5bR,11aR)-1-isopropenyl-5a,5b,8,8,11a-pentamethyl-9-oxo-2,3,4,5,6,7,7a,10,11,11b,12,13,13a,13b-tetradecahydro-1H-cyclopenta[a]chrysene-3a-carbonyl]amino]-4-methylsulfanyl-butanoate
> <PUBCHEM_IUPAC_CAS_NAME>
(2S)-2-[[[(1R,3aS,5aS,5bR,11aR)-5a,5b,8,8,11a-pentamethyl-1-(1-methylethenyl)-9-oxo-2,3,4,5,6,7,7a,10,11,11b,12,13,13a,13b-tetradecahydro-1H-cyclopenta[a]chrysen-3a-yl]-oxomethyl]amino]-4-(methylthio)butanoic acid methyl ester
> <PUBCHEM_IUPAC_NAME_MARKUP>
methyl (2<I>S</I>)-2-[[(1<I>R</I>,3<I>a</I><I>S</I>,5<I>a</I><I>S</I>,5<I>b</I><I>R</I>,11<I>a</I><I>R</I>)-5<I>a</I>,5<I>b</I>,8,8,11<I>a</I>-pentamethyl-9-oxo-1-prop-1-en-2-yl-2,3,4,5,6,7,7<I>a</I>,10,11,11<I>b</I>,12,13,13<I>a</I>,13<I>b</I>-tetradecahydro-1<I>H</I>-cyclopenta[a]chrysene-3<I>a</I>-carbonyl]amino]-4-methylsulfanylbutanoate
> <PUBCHEM_IUPAC_NAME>
methyl (2S)-2-[[(1R,3aS,5aS,5bR,11aR)-5a,5b,8,8,11a-pentamethyl-9-oxo-1-prop-1-en-2-yl-2,3,4,5,6,7,7a,10,11,11b,12,13,13a,13b-tetradecahydro-1H-cyclopenta[a]chrysene-3a-carbonyl]amino]-4-methylsulfanylbutanoate
> <PUBCHEM_IUPAC_SYSTEMATIC_NAME>
methyl (2S)-2-[[(1R,3aS,5aS,5bR,11aR)-5a,5b,8,8,11a-pentamethyl-9-oxidanylidene-1-prop-1-en-2-yl-2,3,4,5,6,7,7a,10,11,11b,12,13,13a,13b-tetradecahydro-1H-cyclopenta[a]chrysen-3a-yl]carbonylamino]-4-methylsulfanyl-butanoate
> <PUBCHEM_IUPAC_TRADITIONAL_NAME>
(2S)-2-[[(1R,3aS,5aS,5bR,11aR)-1-isopropenyl-9-keto-5a,5b,8,8,11a-pentamethyl-2,3,4,5,6,7,7a,10,11,11b,12,13,13a,13b-tetradecahydro-1H-cyclopenta[a]chrysene-3a-carbonyl]amino]-4-(methylthio)butyric acid methyl ester
> <PUBCHEM_IUPAC_INCHI>
InChI=1S/C36H57NO4S/c1-22(2)23-12-18-36(31(40)37-25(15-21-42-9)30(39)41-8)20-19-34(6)24(29(23)36)10-11-27-33(5)16-14-28(38)32(3,4)26(33)13-17-35(27,34)7/h23-27,29H,1,10-21H2,2-9H3,(H,37,40)/t23-,24?,25-,26?,27?,29?,33-,34-,35+,36-/m0/s1
> <PUBCHEM_IUPAC_INCHIKEY>
LIXPZQPWEDKSAT-IPHVHQCZSA-N
> <PUBCHEM_XLOGP3_AA>
8.6
> <PUBCHEM_EXACT_MASS>
599.40083047
> <PUBCHEM_MOLECULAR_FORMULA>
C36H57NO4S
> <PUBCHEM_MOLECULAR_WEIGHT>
599.9
> <PUBCHEM_OPENEYE_CAN_SMILES>
CC(=C)C1CCC2(C1C3CCC4C5(CCC(=O)C(C5CCC4(C3(CC2)C)C)(C)C)C)C(=O)NC(CCSC)C(=O)OC
> <PUBCHEM_OPENEYE_ISO_SMILES>
CC(=C)[C@@H]1CC[C@]2(C1C3CCC4[C@]5(CCC(=O)C(C5CC[C@]4([C@]3(CC2)C)C)(C)C)C)C(=O)N[C@@H](CCSC)C(=O)OC
> <PUBCHEM_CACTVS_TPSA>
97.8
> <PUBCHEM_MONOISOTOPIC_WEIGHT>
599.40083047
> <PUBCHEM_TOTAL_CHARGE>
0
> <PUBCHEM_HEAVY_ATOM_COUNT>
42
> <PUBCHEM_ATOM_DEF_STEREO_COUNT>
6
> <PUBCHEM_ATOM_UDEF_STEREO_COUNT>
4
> <PUBCHEM_BOND_DEF_STEREO_COUNT>
0
> <PUBCHEM_BOND_UDEF_STEREO_COUNT>
0
> <PUBCHEM_ISOTOPIC_ATOM_COUNT>
0
> <PUBCHEM_COMPONENT_COUNT>
1
> <PUBCHEM_CACTVS_TAUTO_COUNT>
-1
> <PUBCHEM_COORDINATE_TYPE>
1
5
255
> <PUBCHEM_BONDANNOTATIONS>
10  17  3
11  21  3
12  28  5
13  29  5
14  20  3
37  6  6
7  22  5
8  23  5
9  16  3
$$$$
