510971
  -OEChem-10302200282D
 32 33  0     1  0  0  0  0  0999 V2000
    2.0000    2.8294    0.0000 F   0  0  0  0  0  0  0  0  0  0  0  0
    2.9230   -0.7584    0.0000 O   0  0  0  0  0  0  0  0  0  0  0  0
    4.8198   -2.5184    0.0000 O   0  0  0  0  0  0  0  0  0  0  0  0
    5.4921   -0.4493    0.0000 O   0  0  0  0  0  0  0  0  0  0  0  0
    2.3660   -3.2094    0.0000 O   0  0  0  0  0  0  0  0  0  0  0  0
    5.4641    0.8294    0.0000 O   0  0  0  0  0  0  0  0  0  0  0  0
    3.7320    3.8294    0.0000 O   0  0  0  0  0  0  0  0  0  0  0  0
    3.7320    0.8294    0.0000 N   0  0  0  0  0  0  0  0  0  0  0  0
    4.5981    2.3294    0.0000 N   0  0  0  0  0  0  0  0  0  0  0  0
    3.2320   -1.7094    0.0000 C   0  0  1  0  0  0  0  0  0  0  0  0
    4.2320   -1.7094    0.0000 C   0  0  2  0  0  0  0  0  0  0  0  0
    4.5411   -0.7584    0.0000 C   0  0  2  0  0  0  0  0  0  0  0  0
    3.7320   -0.1706    0.0000 C   0  0  1  0  0  0  0  0  0  0  0  0
    3.2320   -2.7094    0.0000 C   0  0  0  0  0  0  0  0  0  0  0  0
    2.2810   -2.0184    0.0000 C   0  0  0  0  0  0  0  0  0  0  0  0
    4.5981    1.3294    0.0000 C   0  0  0  0  0  0  0  0  0  0  0  0
    2.8660    1.3294    0.0000 C   0  0  0  0  0  0  0  0  0  0  0  0
    2.8660    2.3294    0.0000 C   0  0  0  0  0  0  0  0  0  0  0  0
    3.7320    2.8294    0.0000 C   0  0  0  0  0  0  0  0  0  0  0  0
    4.8444   -1.6124    0.0000 H   0  0  0  0  0  0  0  0  0  0  0  0
    4.6381   -0.1460    0.0000 H   0  0  0  0  0  0  0  0  0  0  0  0
    4.2845    0.1109    0.0000 H   0  0  0  0  0  0  0  0  0  0  0  0
    3.4441   -3.2920    0.0000 H   0  0  0  0  0  0  0  0  0  0  0  0
    3.8426   -2.6018    0.0000 H   0  0  0  0  0  0  0  0  0  0  0  0
    2.0894   -1.4288    0.0000 H   0  0  0  0  0  0  0  0  0  0  0  0
    1.6913   -2.2100    0.0000 H   0  0  0  0  0  0  0  0  0  0  0  0
    2.4726   -2.6081    0.0000 H   0  0  0  0  0  0  0  0  0  0  0  0
    5.4364   -2.4536    0.0000 H   0  0  0  0  0  0  0  0  0  0  0  0
    5.9529   -0.8642    0.0000 H   0  0  0  0  0  0  0  0  0  0  0  0
    2.3291    1.0194    0.0000 H   0  0  0  0  0  0  0  0  0  0  0  0
    2.3660   -3.8294    0.0000 H   0  0  0  0  0  0  0  0  0  0  0  0
    5.1350    2.6394    0.0000 H   0  0  0  0  0  0  0  0  0  0  0  0
  1 18  1  0  0  0  0
  2 10  1  0  0  0  0
  2 13  1  0  0  0  0
 11  3  1  6  0  0  0
  3 28  1  0  0  0  0
 12  4  1  6  0  0  0
  4 29  1  0  0  0  0
  5 14  1  0  0  0  0
  5 31  1  0  0  0  0
  6 16  2  0  0  0  0
  7 19  2  0  0  0  0
 13  8  1  1  0  0  0
  8 16  1  0  0  0  0
  8 17  1  0  0  0  0
  9 16  1  0  0  0  0
  9 19  1  0  0  0  0
  9 32  1  0  0  0  0
 10 11  1  0  0  0  0
 10 14  1  0  0  0  0
 10 15  1  6  0  0  0
 11 12  1  0  0  0  0
 11 20  1  0  0  0  0
 12 13  1  0  0  0  0
 12 21  1  0  0  0  0
 13 22  1  0  0  0  0
 14 23  1  0  0  0  0
 14 24  1  0  0  0  0
 15 25  1  0  0  0  0
 15 26  1  0  0  0  0
 15 27  1  0  0  0  0
 17 18  2  0  0  0  0
 17 30  1  0  0  0  0
 18 19  1  0  0  0  0
M  END
> <PUBCHEM_COMPOUND_CID>
510971
> <PUBCHEM_COMPOUND_CANONICALIZED>
1
> <PUBCHEM_CACTVS_COMPLEXITY>
455
> <PUBCHEM_CACTVS_HBOND_ACCEPTOR>
7
> <PUBCHEM_CACTVS_HBOND_DONOR>
4
> <PUBCHEM_CACTVS_ROTATABLE_BOND>
2
> <PUBCHEM_CACTVS_SUBSKEYS>
AAADccBzOQAAAAAAAAAAAAAAAAAAASAAAAAgAAAAAAAAAAAAAAAAHwAQCAAADFThgAYDAAPABgCIAAFWUACAAAAAAAAAAAAIAECDEAIAgAAOQAAPByITAMDwMAIMAAAAAAAAAAAAAAAAAAAAAAAAAAAAAA==
> <PUBCHEM_IUPAC_OPENEYE_NAME>
1-[(2R,3R,4S,5R)-3,4-dihydroxy-5-(hydroxymethyl)-5-methyl-tetrahydrofuran-2-yl]-5-fluoro-pyrimidine-2,4-dione
> <PUBCHEM_IUPAC_CAS_NAME>
1-[(2R,3R,4S,5R)-3,4-dihydroxy-5-(hydroxymethyl)-5-methyl-2-oxolanyl]-5-fluoropyrimidine-2,4-dione
> <PUBCHEM_IUPAC_NAME_MARKUP>
1-[(2<I>R</I>,3<I>R</I>,4<I>S</I>,5<I>R</I>)-3,4-dihydroxy-5-(hydroxymethyl)-5-methyloxolan-2-yl]-5-fluoropyrimidine-2,4-dione
> <PUBCHEM_IUPAC_NAME>
1-[(2R,3R,4S,5R)-3,4-dihydroxy-5-(hydroxymethyl)-5-methyloxolan-2-yl]-5-fluoropyrimidine-2,4-dione
> <PUBCHEM_IUPAC_SYSTEMATIC_NAME>
5-fluoranyl-1-[(2R,3R,4S,5R)-5-(hydroxymethyl)-5-methyl-3,4-bis(oxidanyl)oxolan-2-yl]pyrimidine-2,4-dione
> <PUBCHEM_IUPAC_TRADITIONAL_NAME>
1-[(2R,3R,4S,5R)-3,4-dihydroxy-5-methyl-5-methylol-tetrahydrofuran-2-yl]-5-fluoro-pyrimidine-2,4-quinone
> <PUBCHEM_IUPAC_INCHI>
InChI=1S/C10H13FN2O6/c1-10(3-14)6(16)5(15)8(19-10)13-2-4(11)7(17)12-9(13)18/h2,5-6,8,14-16H,3H2,1H3,(H,12,17,18)/t5-,6+,8-,10-/m1/s1
> <PUBCHEM_IUPAC_INCHIKEY>
MLJJNLSGOFMBET-TWOTXZKJSA-N
> <PUBCHEM_XLOGP3_AA>
-1.8
> <PUBCHEM_EXACT_MASS>
276.07576430
> <PUBCHEM_MOLECULAR_FORMULA>
C10H13FN2O6
> <PUBCHEM_MOLECULAR_WEIGHT>
276.22
> <PUBCHEM_OPENEYE_CAN_SMILES>
CC1(C(C(C(O1)N2C=C(C(=O)NC2=O)F)O)O)CO
> <PUBCHEM_OPENEYE_ISO_SMILES>
C[C@]1([C@H]([C@H]([C@@H](O1)N2C=C(C(=O)NC2=O)F)O)O)CO
> <PUBCHEM_CACTVS_TPSA>
119
> <PUBCHEM_MONOISOTOPIC_WEIGHT>
276.07576430
> <PUBCHEM_TOTAL_CHARGE>
0
> <PUBCHEM_HEAVY_ATOM_COUNT>
19
> <PUBCHEM_ATOM_DEF_STEREO_COUNT>
4
> <PUBCHEM_ATOM_UDEF_STEREO_COUNT>
0
> <PUBCHEM_BOND_DEF_STEREO_COUNT>
0
> <PUBCHEM_BOND_UDEF_STEREO_COUNT>
0
> <PUBCHEM_ISOTOPIC_ATOM_COUNT>
0
> <PUBCHEM_COMPONENT_COUNT>
1
> <PUBCHEM_CACTVS_TAUTO_COUNT>
-1
> <PUBCHEM_COORDINATE_TYPE>
1
5
255
> <PUBCHEM_BONDANNOTATIONS>
10  15  6
17  18  8
18  19  8
11  3  6
12  4  6
13  8  5
8  16  8
8  17  8
9  16  8
9  19  8
$$$$
