510996
  -OEChem-10302200282D
 33 34  0     1  0  0  0  0  0999 V2000
    3.8448    3.0835    0.0000 F   0  0  0  0  0  0  0  0  0  0  0  0
    2.4787    2.7175    0.0000 F   0  0  0  0  0  0  0  0  0  0  0  0
    2.8448    1.3514    0.0000 F   0  0  0  0  0  0  0  0  0  0  0  0
    5.8858   -1.3703    0.0000 O   0  0  0  0  0  0  0  0  0  0  0  0
    7.1591   -3.0259    0.0000 O   0  0  0  0  0  0  0  0  0  0  0  0
    6.8089    0.2175    0.0000 O   0  0  0  0  0  0  0  0  0  0  0  0
    5.0768    0.2175    0.0000 N   0  0  0  0  0  0  0  0  0  0  0  0
    3.9890   -3.1304    0.0000 N   0  0  0  0  0  0  0  0  0  0  0  0
    5.9428    1.7175    0.0000 N   0  0  0  0  0  0  0  0  0  0  0  0
    2.9945   -3.0259    0.0000 N   0  3  0  0  0  0  0  0  0  0  0  0
    5.0768    3.2175    0.0000 N   0  0  0  0  0  0  0  0  0  0  0  0
    2.0000   -2.9213    0.0000 N   0  5  0  0  0  0  0  0  0  0  0  0
    4.5768   -2.3214    0.0000 C   0  0  2  0  0  0  0  0  0  0  0  0
    5.0768   -0.7825    0.0000 C   0  0  2  0  0  0  0  0  0  0  0  0
    4.2678   -1.3703    0.0000 C   0  0  0  0  0  0  0  0  0  0  0  0
    5.5768   -2.3214    0.0000 C   0  0  2  0  0  0  0  0  0  0  0  0
    6.1646   -3.1304    0.0000 C   0  0  0  0  0  0  0  0  0  0  0  0
    4.2108    0.7175    0.0000 C   0  0  0  0  0  0  0  0  0  0  0  0
    5.9428    0.7175    0.0000 C   0  0  0  0  0  0  0  0  0  0  0  0
    4.2108    1.7175    0.0000 C   0  0  0  0  0  0  0  0  0  0  0  0
    5.0768    2.2175    0.0000 C   0  0  0  0  0  0  0  0  0  0  0  0
    3.3448    2.2175    0.0000 C   0  0  0  0  0  0  0  0  0  0  0  0
    3.9645   -2.2244    0.0000 H   0  0  0  0  0  0  0  0  0  0  0  0
    4.5244   -0.5011    0.0000 H   0  0  0  0  0  0  0  0  0  0  0  0
    3.9578   -0.8334    0.0000 H   0  0  0  0  0  0  0  0  0  0  0  0
    3.7014   -1.6225    0.0000 H   0  0  0  0  0  0  0  0  0  0  0  0
    6.1892   -2.2244    0.0000 H   0  0  0  0  0  0  0  0  0  0  0  0
    5.6074   -3.4022    0.0000 H   0  0  0  0  0  0  0  0  0  0  0  0
    6.3355   -3.7264    0.0000 H   0  0  0  0  0  0  0  0  0  0  0  0
    3.6739    0.4075    0.0000 H   0  0  0  0  0  0  0  0  0  0  0  0
    7.5236   -3.5275    0.0000 H   0  0  0  0  0  0  0  0  0  0  0  0
    5.6138    3.5275    0.0000 H   0  0  0  0  0  0  0  0  0  0  0  0
    4.5399    3.5275    0.0000 H   0  0  0  0  0  0  0  0  0  0  0  0
  1 22  1  0  0  0  0
  2 22  1  0  0  0  0
  3 22  1  0  0  0  0
  4 14  1  0  0  0  0
  4 16  1  0  0  0  0
  5 17  1  0  0  0  0
  5 31  1  0  0  0  0
  6 19  2  0  0  0  0
 14  7  1  1  0  0  0
  7 18  1  0  0  0  0
  7 19  1  0  0  0  0
  8 10  2  0  0  0  0
 13  8  1  6  0  0  0
  9 19  1  0  0  0  0
  9 21  2  0  0  0  0
 10 12  2  0  0  0  0
 11 21  1  0  0  0  0
 11 32  1  0  0  0  0
 11 33  1  0  0  0  0
 13 15  1  0  0  0  0
 13 16  1  0  0  0  0
 13 23  1  0  0  0  0
 14 15  1  0  0  0  0
 14 24  1  0  0  0  0
 15 25  1  0  0  0  0
 15 26  1  0  0  0  0
 16 17  1  1  0  0  0
 16 27  1  0  0  0  0
 17 28  1  0  0  0  0
 17 29  1  0  0  0  0
 18 20  2  0  0  0  0
 18 30  1  0  0  0  0
 20 21  1  0  0  0  0
 20 22  1  0  0  0  0
M  CHG  2  10   1  12  -1
M  END
> <PUBCHEM_COMPOUND_CID>
510996
> <PUBCHEM_COMPOUND_CANONICALIZED>
1
> <PUBCHEM_CACTVS_COMPLEXITY>
583
> <PUBCHEM_CACTVS_HBOND_ACCEPTOR>
8
> <PUBCHEM_CACTVS_HBOND_DONOR>
2
> <PUBCHEM_CACTVS_ROTATABLE_BOND>
3
> <PUBCHEM_CACTVS_SUBSKEYS>
AAADccBzsYAAAAAAAAAAAAAAAAAAASAAAAAgAAAAAAAAAAAAAAAAHwAYCAAADDzhgBYBAANABgCqAgJmdACAAAEAAAAAAAAoABCDEAIAwAAPQAAGBgIDAACwMAIAAAAAAAAAAAAAAAAAAAAAAAAAAAAAAA==
> <PUBCHEM_IUPAC_OPENEYE_NAME>
4-amino-1-[(2S,4R,5R)-4-azido-5-(hydroxymethyl)tetrahydrofuran-2-yl]-5-(trifluoromethyl)pyrimidin-2-one
> <PUBCHEM_IUPAC_CAS_NAME>
4-amino-1-[(2S,4R,5R)-4-azido-5-(hydroxymethyl)-2-oxolanyl]-5-(trifluoromethyl)-2-pyrimidinone
> <PUBCHEM_IUPAC_NAME_MARKUP>
4-amino-1-[(2<I>S</I>,4<I>R</I>,5<I>R</I>)-4-azido-5-(hydroxymethyl)oxolan-2-yl]-5-(trifluoromethyl)pyrimidin-2-one
> <PUBCHEM_IUPAC_NAME>
4-amino-1-[(2S,4R,5R)-4-azido-5-(hydroxymethyl)oxolan-2-yl]-5-(trifluoromethyl)pyrimidin-2-one
> <PUBCHEM_IUPAC_SYSTEMATIC_NAME>
4-azanyl-1-[(2S,4R,5R)-4-azido-5-(hydroxymethyl)oxolan-2-yl]-5-(trifluoromethyl)pyrimidin-2-one
> <PUBCHEM_IUPAC_TRADITIONAL_NAME>
4-amino-1-[(2S,4R,5R)-4-azido-5-methylol-tetrahydrofuran-2-yl]-5-(trifluoromethyl)pyrimidin-2-one
> <PUBCHEM_IUPAC_INCHI>
InChI=1S/C10H11F3N6O3/c11-10(12,13)4-2-19(9(21)16-8(4)14)7-1-5(17-18-15)6(3-20)22-7/h2,5-7,20H,1,3H2,(H2,14,16,21)/t5-,6+,7+/m1/s1
> <PUBCHEM_IUPAC_INCHIKEY>
YPWUEGFSOZKUJG-VQVTYTSYSA-N
> <PUBCHEM_XLOGP3>
0.3
> <PUBCHEM_EXACT_MASS>
320.08447272
> <PUBCHEM_MOLECULAR_FORMULA>
C10H11F3N6O3
> <PUBCHEM_MOLECULAR_WEIGHT>
320.23
> <PUBCHEM_OPENEYE_CAN_SMILES>
C1C(C(OC1N2C=C(C(=NC2=O)N)C(F)(F)F)CO)N=[N+]=[N-]
> <PUBCHEM_OPENEYE_ISO_SMILES>
C1[C@H]([C@@H](O[C@@H]1N2C=C(C(=NC2=O)N)C(F)(F)F)CO)N=[N+]=[N-]
> <PUBCHEM_CACTVS_TPSA>
103
> <PUBCHEM_MONOISOTOPIC_WEIGHT>
320.08447272
> <PUBCHEM_TOTAL_CHARGE>
0
> <PUBCHEM_HEAVY_ATOM_COUNT>
22
> <PUBCHEM_ATOM_DEF_STEREO_COUNT>
3
> <PUBCHEM_ATOM_UDEF_STEREO_COUNT>
0
> <PUBCHEM_BOND_DEF_STEREO_COUNT>
0
> <PUBCHEM_BOND_UDEF_STEREO_COUNT>
0
> <PUBCHEM_ISOTOPIC_ATOM_COUNT>
0
> <PUBCHEM_COMPONENT_COUNT>
1
> <PUBCHEM_CACTVS_TAUTO_COUNT>
-1
> <PUBCHEM_COORDINATE_TYPE>
1
5
255
> <PUBCHEM_BONDANNOTATIONS>
16  17  5
18  20  8
20  21  8
14  7  5
7  18  8
7  19  8
13  8  6
9  19  8
9  21  8
$$$$
