510978
  -OEChem-10302200282D
 34 36  0     1  0  0  0  0  0999 V2000
    7.0006    0.8919    0.0000 O   0  0  0  0  0  0  0  0  0  0  0  0
    9.3466   -0.2000    0.0000 O   0  0  0  0  0  0  0  0  0  0  0  0
    9.3504    1.9756    0.0000 O   0  0  0  0  0  0  0  0  0  0  0  0
    7.9528    3.3934    0.0000 O   0  0  0  0  0  0  0  0  0  0  0  0
    7.2764   -0.8687    0.0000 N   0  0  0  0  0  0  0  0  0  0  0  0
    7.2764   -2.4782    0.0000 N   0  0  0  0  0  0  0  0  0  0  0  0
    5.4641   -0.6734    0.0000 N   0  0  0  0  0  0  0  0  0  0  0  0
    4.5981   -2.1734    0.0000 N   0  0  0  0  0  0  0  0  0  0  0  0
    5.4641   -3.6734    0.0000 N   0  0  0  0  0  0  0  0  0  0  0  0
    3.7320   -0.6734    0.0000 N   0  0  0  0  0  0  0  0  0  0  0  0
    2.8660   -1.1734    0.0000 N   0  3  0  0  0  0  0  0  0  0  0  0
    2.0000   -1.6734    0.0000 N   0  5  0  0  0  0  0  0  0  0  0  0
    8.5386    0.3892    0.0000 C   0  0  1  0  0  0  0  0  0  0  0  0
    7.5870    0.0818    0.0000 C   0  0  1  0  0  0  0  0  0  0  0  0
    8.5403    1.3892    0.0000 C   0  0  1  0  0  0  0  0  0  0  0  0
    7.5898    1.6999    0.0000 C   0  0  1  0  0  0  0  0  0  0  0  0
    7.2824    2.6514    0.0000 C   0  0  0  0  0  0  0  0  0  0  0  0
    6.3301   -1.1734    0.0000 C   0  0  0  0  0  0  0  0  0  0  0  0
    7.8600   -1.6734    0.0000 C   0  0  0  0  0  0  0  0  0  0  0  0
    6.3301   -2.1734    0.0000 C   0  0  0  0  0  0  0  0  0  0  0  0
    5.4641   -2.6734    0.0000 C   0  0  0  0  0  0  0  0  0  0  0  0
    4.5981   -1.1734    0.0000 C   0  0  0  0  0  0  0  0  0  0  0  0
    9.0915    0.6697    0.0000 H   0  0  0  0  0  0  0  0  0  0  0  0
    6.9745   -0.0141    0.0000 H   0  0  0  0  0  0  0  0  0  0  0  0
    8.4444    2.0017    0.0000 H   0  0  0  0  0  0  0  0  0  0  0  0
    6.9776    1.7979    0.0000 H   0  0  0  0  0  0  0  0  0  0  0  0
    6.9016    3.1407    0.0000 H   0  0  0  0  0  0  0  0  0  0  0  0
    6.7345    2.3613    0.0000 H   0  0  0  0  0  0  0  0  0  0  0  0
    9.9134    0.0512    0.0000 H   0  0  0  0  0  0  0  0  0  0  0  0
    9.9163    1.7224    0.0000 H   0  0  0  0  0  0  0  0  0  0  0  0
    8.4800   -1.6734    0.0000 H   0  0  0  0  0  0  0  0  0  0  0  0
    7.7623    3.9834    0.0000 H   0  0  0  0  0  0  0  0  0  0  0  0
    4.9272   -3.9834    0.0000 H   0  0  0  0  0  0  0  0  0  0  0  0
    6.0010   -3.9834    0.0000 H   0  0  0  0  0  0  0  0  0  0  0  0
  1 14  1  0  0  0  0
  1 16  1  0  0  0  0
 13  2  1  1  0  0  0
  2 29  1  0  0  0  0
 15  3  1  1  0  0  0
  3 30  1  0  0  0  0
  4 17  1  0  0  0  0
  4 32  1  0  0  0  0
 14  5  1  6  0  0  0
  5 18  1  0  0  0  0
  5 19  1  0  0  0  0
  6 19  2  0  0  0  0
  6 20  1  0  0  0  0
  7 18  2  0  0  0  0
  7 22  1  0  0  0  0
  8 21  1  0  0  0  0
  8 22  2  0  0  0  0
  9 21  1  0  0  0  0
  9 33  1  0  0  0  0
  9 34  1  0  0  0  0
 10 11  2  0  0  0  0
 10 22  1  0  0  0  0
 11 12  2  0  0  0  0
 13 14  1  0  0  0  0
 13 15  1  0  0  0  0
 13 23  1  0  0  0  0
 14 24  1  0  0  0  0
 15 16  1  0  0  0  0
 15 25  1  0  0  0  0
 16 17  1  6  0  0  0
 16 26  1  0  0  0  0
 17 27  1  0  0  0  0
 17 28  1  0  0  0  0
 18 20  1  0  0  0  0
 19 31  1  0  0  0  0
 20 21  2  0  0  0  0
M  CHG  2  11   1  12  -1
M  END
> <PUBCHEM_COMPOUND_CID>
510978
> <PUBCHEM_COMPOUND_CANONICALIZED>
1
> <PUBCHEM_CACTVS_COMPLEXITY>
462
> <PUBCHEM_CACTVS_HBOND_ACCEPTOR>
10
> <PUBCHEM_CACTVS_HBOND_DONOR>
4
> <PUBCHEM_CACTVS_ROTATABLE_BOND>
3
> <PUBCHEM_CACTVS_SUBSKEYS>
AAADccBz+AAAAAAAAAAAAAAAAAAAAWJAAAAsAAAAAAAAAFgB+AAAHgAYCAAACBzhlwYF8L9MFgCiAQZhZACAgC0REKABUCAoVBCDWAJAyEAeRAgPAALTACDwMAIAAAAAAAAAAAAAAAAAAAAAAAAAAAAAAA==
> <PUBCHEM_IUPAC_OPENEYE_NAME>
(2R,3R,4S,5R)-2-(6-amino-2-azido-purin-9-yl)-5-(hydroxymethyl)tetrahydrofuran-3,4-diol
> <PUBCHEM_IUPAC_CAS_NAME>
(2R,3R,4S,5R)-2-(6-amino-2-azido-9-purinyl)-5-(hydroxymethyl)oxolane-3,4-diol
> <PUBCHEM_IUPAC_NAME_MARKUP>
(2<I>R</I>,3<I>R</I>,4<I>S</I>,5<I>R</I>)-2-(6-amino-2-azidopurin-9-yl)-5-(hydroxymethyl)oxolane-3,4-diol
> <PUBCHEM_IUPAC_NAME>
(2R,3R,4S,5R)-2-(6-amino-2-azidopurin-9-yl)-5-(hydroxymethyl)oxolane-3,4-diol
> <PUBCHEM_IUPAC_SYSTEMATIC_NAME>
(2R,3R,4S,5R)-2-(6-azanyl-2-azido-purin-9-yl)-5-(hydroxymethyl)oxolane-3,4-diol
> <PUBCHEM_IUPAC_TRADITIONAL_NAME>
(2R,3R,4S,5R)-2-(6-amino-2-azido-purin-9-yl)-5-methylol-tetrahydrofuran-3,4-diol
> <PUBCHEM_IUPAC_INCHI>
InChI=1S/C10H12N8O4/c11-7-4-8(15-10(14-7)16-17-12)18(2-13-4)9-6(21)5(20)3(1-19)22-9/h2-3,5-6,9,19-21H,1H2,(H2,11,14,15)/t3-,5-,6-,9-/m1/s1
> <PUBCHEM_IUPAC_INCHIKEY>
BSZZPOARGMTJKQ-UUOKFMHZSA-N
> <PUBCHEM_XLOGP3>
0.2
> <PUBCHEM_EXACT_MASS>
308.09815089
> <PUBCHEM_MOLECULAR_FORMULA>
C10H12N8O4
> <PUBCHEM_MOLECULAR_WEIGHT>
308.25
> <PUBCHEM_OPENEYE_CAN_SMILES>
C1=NC2=C(N=C(N=C2N1C3C(C(C(O3)CO)O)O)N=[N+]=[N-])N
> <PUBCHEM_OPENEYE_ISO_SMILES>
C1=NC2=C(N=C(N=C2N1[C@H]3[C@@H]([C@@H]([C@H](O3)CO)O)O)N=[N+]=[N-])N
> <PUBCHEM_CACTVS_TPSA>
154
> <PUBCHEM_MONOISOTOPIC_WEIGHT>
308.09815089
> <PUBCHEM_TOTAL_CHARGE>
0
> <PUBCHEM_HEAVY_ATOM_COUNT>
22
> <PUBCHEM_ATOM_DEF_STEREO_COUNT>
4
> <PUBCHEM_ATOM_UDEF_STEREO_COUNT>
0
> <PUBCHEM_BOND_DEF_STEREO_COUNT>
0
> <PUBCHEM_BOND_UDEF_STEREO_COUNT>
1
> <PUBCHEM_ISOTOPIC_ATOM_COUNT>
0
> <PUBCHEM_COMPONENT_COUNT>
1
> <PUBCHEM_CACTVS_TAUTO_COUNT>
3
> <PUBCHEM_COORDINATE_TYPE>
1
5
255
> <PUBCHEM_BONDANNOTATIONS>
10  11  1
16  17  6
18  20  8
13  2  5
20  21  8
15  3  5
14  5  6
5  18  8
5  19  8
6  19  8
6  20  8
7  18  8
7  22  8
8  21  8
8  22  8
$$$$
