510972
  -OEChem-10302200282D
 33 34  0     1  0  0  0  0  0999 V2000
    2.6420   -0.9134    0.0000 O   0  0  0  0  0  0  0  0  0  0  0  0
    4.5388   -2.6734    0.0000 O   0  0  0  0  0  0  0  0  0  0  0  0
    5.2111   -0.6043    0.0000 O   0  0  0  0  0  0  0  0  0  0  0  0
    2.0850   -3.3644    0.0000 O   0  0  0  0  0  0  0  0  0  0  0  0
    5.1831    0.6744    0.0000 O   0  0  0  0  0  0  0  0  0  0  0  0
    3.4511    0.6744    0.0000 N   0  0  0  0  0  0  0  0  0  0  0  0
    4.3171    2.1744    0.0000 N   0  0  0  0  0  0  0  0  0  0  0  0
    3.4511    3.6744    0.0000 N   0  0  0  0  0  0  0  0  0  0  0  0
    2.9511   -1.8644    0.0000 C   0  0  1  0  0  0  0  0  0  0  0  0
    3.9511   -1.8644    0.0000 C   0  0  2  0  0  0  0  0  0  0  0  0
    4.2601   -0.9134    0.0000 C   0  0  2  0  0  0  0  0  0  0  0  0
    3.4511   -0.3256    0.0000 C   0  0  1  0  0  0  0  0  0  0  0  0
    2.9511   -2.8644    0.0000 C   0  0  0  0  0  0  0  0  0  0  0  0
    2.0000   -2.1734    0.0000 C   0  0  0  0  0  0  0  0  0  0  0  0
    2.5850    1.1744    0.0000 C   0  0  0  0  0  0  0  0  0  0  0  0
    4.3171    1.1744    0.0000 C   0  0  0  0  0  0  0  0  0  0  0  0
    2.5850    2.1744    0.0000 C   0  0  0  0  0  0  0  0  0  0  0  0
    3.4511    2.6744    0.0000 C   0  0  0  0  0  0  0  0  0  0  0  0
    3.6696   -2.4168    0.0000 H   0  0  0  0  0  0  0  0  0  0  0  0
    4.6985   -1.3518    0.0000 H   0  0  0  0  0  0  0  0  0  0  0  0
    2.8986   -0.0441    0.0000 H   0  0  0  0  0  0  0  0  0  0  0  0
    3.1631   -3.4470    0.0000 H   0  0  0  0  0  0  0  0  0  0  0  0
    3.5616   -2.7568    0.0000 H   0  0  0  0  0  0  0  0  0  0  0  0
    1.8084   -1.5838    0.0000 H   0  0  0  0  0  0  0  0  0  0  0  0
    1.4103   -2.3650    0.0000 H   0  0  0  0  0  0  0  0  0  0  0  0
    2.1916   -2.7631    0.0000 H   0  0  0  0  0  0  0  0  0  0  0  0
    5.1554   -2.6086    0.0000 H   0  0  0  0  0  0  0  0  0  0  0  0
    5.6719   -1.0192    0.0000 H   0  0  0  0  0  0  0  0  0  0  0  0
    2.0481    0.8644    0.0000 H   0  0  0  0  0  0  0  0  0  0  0  0
    2.0850   -3.9844    0.0000 H   0  0  0  0  0  0  0  0  0  0  0  0
    2.0481    2.4844    0.0000 H   0  0  0  0  0  0  0  0  0  0  0  0
    2.9141    3.9844    0.0000 H   0  0  0  0  0  0  0  0  0  0  0  0
    3.9880    3.9844    0.0000 H   0  0  0  0  0  0  0  0  0  0  0  0
  1  9  1  0  0  0  0
  1 12  1  0  0  0  0
 10  2  1  6  0  0  0
  2 27  1  0  0  0  0
 11  3  1  6  0  0  0
  3 28  1  0  0  0  0
  4 13  1  0  0  0  0
  4 30  1  0  0  0  0
  5 16  2  0  0  0  0
 12  6  1  1  0  0  0
  6 15  1  0  0  0  0
  6 16  1  0  0  0  0
  7 16  1  0  0  0  0
  7 18  2  0  0  0  0
  8 18  1  0  0  0  0
  8 32  1  0  0  0  0
  8 33  1  0  0  0  0
  9 10  1  0  0  0  0
  9 13  1  0  0  0  0
  9 14  1  6  0  0  0
 10 11  1  0  0  0  0
 10 19  1  0  0  0  0
 11 12  1  0  0  0  0
 11 20  1  0  0  0  0
 12 21  1  0  0  0  0
 13 22  1  0  0  0  0
 13 23  1  0  0  0  0
 14 24  1  0  0  0  0
 14 25  1  0  0  0  0
 14 26  1  0  0  0  0
 15 17  2  0  0  0  0
 15 29  1  0  0  0  0
 17 18  1  0  0  0  0
 17 31  1  0  0  0  0
M  END
> <PUBCHEM_COMPOUND_CID>
510972
> <PUBCHEM_COMPOUND_CANONICALIZED>
1
> <PUBCHEM_CACTVS_COMPLEXITY>
424
> <PUBCHEM_CACTVS_HBOND_ACCEPTOR>
5
> <PUBCHEM_CACTVS_HBOND_DONOR>
4
> <PUBCHEM_CACTVS_ROTATABLE_BOND>
2
> <PUBCHEM_CACTVS_SUBSKEYS>
AAADccBzOAAAAAAAAAAAAAAAAAAAASAAAAAgAAAAAAAAAAAAAAAAHgAQCAAADFThgAYDAANABgCoACJmdACAAAEAAgAIAAAYABCDEAIAgAAOQAAHFgITAADwMAIMAAAAAAAAAAAAAAAAAAAAAAAAAAAAAA==
> <PUBCHEM_IUPAC_OPENEYE_NAME>
4-amino-1-[(2R,3R,4S,5R)-3,4-dihydroxy-5-(hydroxymethyl)-5-methyl-tetrahydrofuran-2-yl]pyrimidin-2-one
> <PUBCHEM_IUPAC_CAS_NAME>
4-amino-1-[(2R,3R,4S,5R)-3,4-dihydroxy-5-(hydroxymethyl)-5-methyl-2-oxolanyl]-2-pyrimidinone
> <PUBCHEM_IUPAC_NAME_MARKUP>
4-amino-1-[(2<I>R</I>,3<I>R</I>,4<I>S</I>,5<I>R</I>)-3,4-dihydroxy-5-(hydroxymethyl)-5-methyloxolan-2-yl]pyrimidin-2-one
> <PUBCHEM_IUPAC_NAME>
4-amino-1-[(2R,3R,4S,5R)-3,4-dihydroxy-5-(hydroxymethyl)-5-methyloxolan-2-yl]pyrimidin-2-one
> <PUBCHEM_IUPAC_SYSTEMATIC_NAME>
4-azanyl-1-[(2R,3R,4S,5R)-5-(hydroxymethyl)-5-methyl-3,4-bis(oxidanyl)oxolan-2-yl]pyrimidin-2-one
> <PUBCHEM_IUPAC_TRADITIONAL_NAME>
4-amino-1-[(2R,3R,4S,5R)-3,4-dihydroxy-5-methyl-5-methylol-tetrahydrofuran-2-yl]pyrimidin-2-one
> <PUBCHEM_IUPAC_INCHI>
InChI=1S/C10H15N3O5/c1-10(4-14)7(16)6(15)8(18-10)13-3-2-5(11)12-9(13)17/h2-3,6-8,14-16H,4H2,1H3,(H2,11,12,17)/t6-,7+,8-,10-/m1/s1
> <PUBCHEM_IUPAC_INCHIKEY>
MUBNRBNWTUDOEJ-IBCQBUCCSA-N
> <PUBCHEM_XLOGP3_AA>
-2.4
> <PUBCHEM_EXACT_MASS>
257.10117059
> <PUBCHEM_MOLECULAR_FORMULA>
C10H15N3O5
> <PUBCHEM_MOLECULAR_WEIGHT>
257.24
> <PUBCHEM_OPENEYE_CAN_SMILES>
CC1(C(C(C(O1)N2C=CC(=NC2=O)N)O)O)CO
> <PUBCHEM_OPENEYE_ISO_SMILES>
C[C@]1([C@H]([C@H]([C@@H](O1)N2C=CC(=NC2=O)N)O)O)CO
> <PUBCHEM_CACTVS_TPSA>
129
> <PUBCHEM_MONOISOTOPIC_WEIGHT>
257.10117059
> <PUBCHEM_TOTAL_CHARGE>
0
> <PUBCHEM_HEAVY_ATOM_COUNT>
18
> <PUBCHEM_ATOM_DEF_STEREO_COUNT>
4
> <PUBCHEM_ATOM_UDEF_STEREO_COUNT>
0
> <PUBCHEM_BOND_DEF_STEREO_COUNT>
0
> <PUBCHEM_BOND_UDEF_STEREO_COUNT>
0
> <PUBCHEM_ISOTOPIC_ATOM_COUNT>
0
> <PUBCHEM_COMPONENT_COUNT>
1
> <PUBCHEM_CACTVS_TAUTO_COUNT>
-1
> <PUBCHEM_COORDINATE_TYPE>
1
5
255
> <PUBCHEM_BONDANNOTATIONS>
15  17  8
17  18  8
10  2  6
11  3  6
12  6  5
6  15  8
6  16  8
7  16  8
7  18  8
9  14  6
$$$$
