510983
  -OEChem-10302200282D
 32 34  0     1  0  0  0  0  0999 V2000
    6.8066    1.1702    0.0000 O   0  0  0  0  0  0  0  0  0  0  0  0
    4.2686    1.6746    0.0000 O   0  0  0  0  0  0  0  0  0  0  0  0
    5.5504    3.4324    0.0000 O   0  0  0  0  0  0  0  0  0  0  0  0
    8.5312    2.3482    0.0000 O   0  0  0  0  0  0  0  0  0  0  0  0
    5.5443   -0.0877    0.0000 N   0  0  0  0  0  0  0  0  0  0  0  0
    5.5443   -1.6972    0.0000 N   0  0  0  0  0  0  0  0  0  0  0  0
    3.7320    0.1075    0.0000 N   0  0  0  0  0  0  0  0  0  0  0  0
    2.8660   -1.3924    0.0000 N   0  0  0  0  0  0  0  0  0  0  0  0
    3.7320   -2.8925    0.0000 N   0  0  0  0  0  0  0  0  0  0  0  0
    2.8660   -3.3924    0.0000 N   0  3  0  0  0  0  0  0  0  0  0  0
    2.0000   -3.8924    0.0000 N   0  5  0  0  0  0  0  0  0  0  0  0
    5.2686    1.6728    0.0000 C   0  0  1  0  0  0  0  0  0  0  0  0
    5.8550    0.8628    0.0000 C   0  0  1  0  0  0  0  0  0  0  0  0
    5.8578    2.4808    0.0000 C   0  0  1  0  0  0  0  0  0  0  0  0
    6.8083    2.1702    0.0000 C   0  0  1  0  0  0  0  0  0  0  0  0
    7.6183    2.7566    0.0000 C   0  0  0  0  0  0  0  0  0  0  0  0
    4.5981   -0.3925    0.0000 C   0  0  0  0  0  0  0  0  0  0  0  0
    6.1279   -0.8925    0.0000 C   0  0  0  0  0  0  0  0  0  0  0  0
    4.5981   -1.3924    0.0000 C   0  0  0  0  0  0  0  0  0  0  0  0
    3.7320   -1.8924    0.0000 C   0  0  0  0  0  0  0  0  0  0  0  0
    2.8660   -0.3925    0.0000 C   0  0  0  0  0  0  0  0  0  0  0  0
    4.9861    1.1209    0.0000 H   0  0  0  0  0  0  0  0  0  0  0  0
    6.2926    0.4236    0.0000 H   0  0  0  0  0  0  0  0  0  0  0  0
    5.2456    2.5789    0.0000 H   0  0  0  0  0  0  0  0  0  0  0  0
    7.3602    1.8877    0.0000 H   0  0  0  0  0  0  0  0  0  0  0  0
    7.9659    3.2700    0.0000 H   0  0  0  0  0  0  0  0  0  0  0  0
    7.1731    3.1880    0.0000 H   0  0  0  0  0  0  0  0  0  0  0  0
    3.9595    2.2120    0.0000 H   0  0  0  0  0  0  0  0  0  0  0  0
    5.9660    3.8924    0.0000 H   0  0  0  0  0  0  0  0  0  0  0  0
    6.7479   -0.8925    0.0000 H   0  0  0  0  0  0  0  0  0  0  0  0
    9.0334    2.7118    0.0000 H   0  0  0  0  0  0  0  0  0  0  0  0
    2.3291   -0.0825    0.0000 H   0  0  0  0  0  0  0  0  0  0  0  0
  1 13  1  0  0  0  0
  1 15  1  0  0  0  0
 12  2  1  6  0  0  0
  2 28  1  0  0  0  0
 14  3  1  6  0  0  0
  3 29  1  0  0  0  0
  4 16  1  0  0  0  0
  4 31  1  0  0  0  0
 13  5  1  1  0  0  0
  5 17  1  0  0  0  0
  5 18  1  0  0  0  0
  6 18  2  0  0  0  0
  6 19  1  0  0  0  0
  7 17  2  0  0  0  0
  7 21  1  0  0  0  0
  8 20  1  0  0  0  0
  8 21  2  0  0  0  0
  9 10  2  0  0  0  0
  9 20  1  0  0  0  0
 10 11  2  0  0  0  0
 12 13  1  0  0  0  0
 12 14  1  0  0  0  0
 12 22  1  0  0  0  0
 13 23  1  0  0  0  0
 14 15  1  0  0  0  0
 14 24  1  0  0  0  0
 15 16  1  1  0  0  0
 15 25  1  0  0  0  0
 16 26  1  0  0  0  0
 16 27  1  0  0  0  0
 17 19  1  0  0  0  0
 18 30  1  0  0  0  0
 19 20  2  0  0  0  0
 21 32  1  0  0  0  0
M  CHG  2  10   1  11  -1
M  END
> <PUBCHEM_COMPOUND_CID>
510983
> <PUBCHEM_COMPOUND_CANONICALIZED>
1
> <PUBCHEM_CACTVS_COMPLEXITY>
434
> <PUBCHEM_CACTVS_HBOND_ACCEPTOR>
9
> <PUBCHEM_CACTVS_HBOND_DONOR>
3
> <PUBCHEM_CACTVS_ROTATABLE_BOND>
3
> <PUBCHEM_CACTVS_SUBSKEYS>
AAADccBzuAAAAAAAAAAAAAAAAAAAAWJAAAAsAAAAAAAAAFgB+AAAHgAICAAACBzhlwYF8L8MFgCiAQZhZACAgC0REKABUCAoVBCDWAJAyEAeRAgPAALTACDwMAIAAAAAAAAAAAAAAAAAAAAAAAAAAAAAAA==
> <PUBCHEM_IUPAC_OPENEYE_NAME>
(2R,3R,4S,5R)-2-(6-azidopurin-9-yl)-5-(hydroxymethyl)tetrahydrofuran-3,4-diol
> <PUBCHEM_IUPAC_CAS_NAME>
(2R,3R,4S,5R)-2-(6-azido-9-purinyl)-5-(hydroxymethyl)oxolane-3,4-diol
> <PUBCHEM_IUPAC_NAME_MARKUP>
(2<I>R</I>,3<I>R</I>,4<I>S</I>,5<I>R</I>)-2-(6-azidopurin-9-yl)-5-(hydroxymethyl)oxolane-3,4-diol
> <PUBCHEM_IUPAC_NAME>
(2R,3R,4S,5R)-2-(6-azidopurin-9-yl)-5-(hydroxymethyl)oxolane-3,4-diol
> <PUBCHEM_IUPAC_SYSTEMATIC_NAME>
(2R,3R,4S,5R)-2-(6-azidopurin-9-yl)-5-(hydroxymethyl)oxolane-3,4-diol
> <PUBCHEM_IUPAC_TRADITIONAL_NAME>
(2R,3R,4S,5R)-2-(6-azidopurin-9-yl)-5-methylol-tetrahydrofuran-3,4-diol
> <PUBCHEM_IUPAC_INCHI>
InChI=1S/C10H11N7O4/c11-16-15-8-5-9(13-2-12-8)17(3-14-5)10-7(20)6(19)4(1-18)21-10/h2-4,6-7,10,18-20H,1H2/t4-,6-,7-,10-/m1/s1
> <PUBCHEM_IUPAC_INCHIKEY>
RPEDALNTACVIFY-KQYNXXCUSA-N
> <PUBCHEM_XLOGP3>
0.6
> <PUBCHEM_EXACT_MASS>
293.08725186
> <PUBCHEM_MOLECULAR_FORMULA>
C10H11N7O4
> <PUBCHEM_MOLECULAR_WEIGHT>
293.24
> <PUBCHEM_OPENEYE_CAN_SMILES>
C1=NC(=C2C(=N1)N(C=N2)C3C(C(C(O3)CO)O)O)N=[N+]=[N-]
> <PUBCHEM_OPENEYE_ISO_SMILES>
C1=NC(=C2C(=N1)N(C=N2)[C@H]3[C@@H]([C@@H]([C@H](O3)CO)O)O)N=[N+]=[N-]
> <PUBCHEM_CACTVS_TPSA>
128
> <PUBCHEM_MONOISOTOPIC_WEIGHT>
293.08725186
> <PUBCHEM_TOTAL_CHARGE>
0
> <PUBCHEM_HEAVY_ATOM_COUNT>
21
> <PUBCHEM_ATOM_DEF_STEREO_COUNT>
4
> <PUBCHEM_ATOM_UDEF_STEREO_COUNT>
0
> <PUBCHEM_BOND_DEF_STEREO_COUNT>
0
> <PUBCHEM_BOND_UDEF_STEREO_COUNT>
1
> <PUBCHEM_ISOTOPIC_ATOM_COUNT>
0
> <PUBCHEM_COMPONENT_COUNT>
1
> <PUBCHEM_CACTVS_TAUTO_COUNT>
-1
> <PUBCHEM_COORDINATE_TYPE>
1
5
255
> <PUBCHEM_BONDANNOTATIONS>
15  16  5
17  19  8
19  20  8
12  2  6
14  3  6
13  5  5
5  17  8
5  18  8
6  18  8
6  19  8
7  17  8
7  21  8
8  20  8
8  21  8
9  10  1
$$$$
