511096
  -OEChem-10302200282D
 65 70  0     1  0  0  0  0  0999 V2000
    3.6982   -0.6509    0.0000 O   0  0  0  0  0  0  0  0  0  0  0  0
    4.1390   -3.7920    0.0000 O   0  0  0  0  0  0  0  0  0  0  0  0
    7.6558   -0.0433    0.0000 O   0  0  0  0  0  0  0  0  0  0  0  0
    8.7577    0.7573    0.0000 O   0  0  0  0  0  0  0  0  0  0  0  0
    7.1206   -1.6906    0.0000 N   0  0  0  0  0  0  0  0  0  0  0  0
    4.6714   -2.1438    0.0000 N   0  0  0  0  0  0  0  0  0  0  0  0
    9.6238   -0.7427    0.0000 N   0  0  0  0  0  0  0  0  0  0  0  0
   10.4898    0.7573    0.0000 N   0  0  0  0  0  0  0  0  0  0  0  0
    6.1484   -1.4831    0.0000 C   0  0  1  0  0  0  0  0  0  0  0  0
    5.6499   -2.3500    0.0000 C   0  0  2  0  0  0  0  0  0  0  0  0
    5.4780   -0.7411    0.0000 C   0  0  1  0  0  0  0  0  0  0  0  0
    6.3182   -3.0858    0.0000 C   0  0  0  0  0  0  0  0  0  0  0  0
    7.2253   -2.6792    0.0000 C   0  0  0  0  0  0  0  0  0  0  0  0
    2.9778   -2.5068    0.0000 C   0  0  0  0  0  0  0  0  0  0  0  0
    4.5651   -1.1494    0.0000 C   0  0  0  0  0  0  0  0  0  0  0  0
    3.9294   -2.8142    0.0000 C   0  0  0  0  0  0  0  0  0  0  0  0
    2.3074   -1.7648    0.0000 C   0  0  0  0  0  0  0  0  0  0  0  0
    2.0000   -2.7164    0.0000 C   0  0  0  0  0  0  0  0  0  0  0  0
    7.8637   -1.0215    0.0000 C   0  0  0  0  0  0  0  0  0  0  0  0
    5.6842    0.2374    0.0000 C   0  0  0  0  0  0  0  0  0  0  0  0
    8.8148   -1.3305    0.0000 C   0  0  2  0  0  0  0  0  0  0  0  0
    9.1238   -2.2816    0.0000 C   0  0  0  0  0  0  0  0  0  0  0  0
   10.1238   -2.2816    0.0000 C   0  0  0  0  0  0  0  0  0  0  0  0
   10.4328   -1.3305    0.0000 C   0  0  0  0  0  0  0  0  0  0  0  0
    9.6238    0.2573    0.0000 C   0  0  0  0  0  0  0  0  0  0  0  0
   10.4898    1.7573    0.0000 C   0  0  0  0  0  0  0  0  0  0  0  0
   11.3558    2.2573    0.0000 C   0  0  0  0  0  0  0  0  0  0  0  0
    9.6238    2.2573    0.0000 C   0  0  0  0  0  0  0  0  0  0  0  0
   11.3558    3.2573    0.0000 C   0  0  0  0  0  0  0  0  0  0  0  0
    9.6238    3.2573    0.0000 C   0  0  0  0  0  0  0  0  0  0  0  0
   12.2498    1.7226    0.0000 C   0  0  0  0  0  0  0  0  0  0  0  0
   10.4898    3.7573    0.0000 C   0  0  0  0  0  0  0  0  0  0  0  0
   12.2498    3.7920    0.0000 C   0  0  0  0  0  0  0  0  0  0  0  0
   13.1558    2.2365    0.0000 C   0  0  0  0  0  0  0  0  0  0  0  0
   13.1558    3.2781    0.0000 C   0  0  0  0  0  0  0  0  0  0  0  0
    6.5730   -0.7468    0.0000 H   0  0  0  0  0  0  0  0  0  0  0  0
    5.2271   -3.0874    0.0000 H   0  0  0  0  0  0  0  0  0  0  0  0
    6.0766   -0.5796    0.0000 H   0  0  0  0  0  0  0  0  0  0  0  0
    5.8180   -3.4521    0.0000 H   0  0  0  0  0  0  0  0  0  0  0  0
    6.6299   -3.6218    0.0000 H   0  0  0  0  0  0  0  0  0  0  0  0
    7.4181   -3.2684    0.0000 H   0  0  0  0  0  0  0  0  0  0  0  0
    7.8316   -2.5494    0.0000 H   0  0  0  0  0  0  0  0  0  0  0  0
    2.9464   -3.1260    0.0000 H   0  0  0  0  0  0  0  0  0  0  0  0
    2.6882   -1.2756    0.0000 H   0  0  0  0  0  0  0  0  0  0  0  0
    1.7594   -1.4747    0.0000 H   0  0  0  0  0  0  0  0  0  0  0  0
    1.3859   -2.6312    0.0000 H   0  0  0  0  0  0  0  0  0  0  0  0
    2.0227   -3.3360    0.0000 H   0  0  0  0  0  0  0  0  0  0  0  0
    6.2908    0.1096    0.0000 H   0  0  0  0  0  0  0  0  0  0  0  0
    5.8120    0.8441    0.0000 H   0  0  0  0  0  0  0  0  0  0  0  0
    5.0775    0.3653    0.0000 H   0  0  0  0  0  0  0  0  0  0  0  0
    8.7178   -0.7181    0.0000 H   0  0  0  0  0  0  0  0  0  0  0  0
    8.5173   -2.4104    0.0000 H   0  0  0  0  0  0  0  0  0  0  0  0
    9.1886   -2.8981    0.0000 H   0  0  0  0  0  0  0  0  0  0  0  0
   10.0590   -2.8981    0.0000 H   0  0  0  0  0  0  0  0  0  0  0  0
   10.7302   -2.4104    0.0000 H   0  0  0  0  0  0  0  0  0  0  0  0
   10.9992   -1.5827    0.0000 H   0  0  0  0  0  0  0  0  0  0  0  0
   10.7428   -0.7936    0.0000 H   0  0  0  0  0  0  0  0  0  0  0  0
   11.0267    0.4473    0.0000 H   0  0  0  0  0  0  0  0  0  0  0  0
    9.0868    1.9473    0.0000 H   0  0  0  0  0  0  0  0  0  0  0  0
    9.0868    3.5673    0.0000 H   0  0  0  0  0  0  0  0  0  0  0  0
   12.2426    1.1027    0.0000 H   0  0  0  0  0  0  0  0  0  0  0  0
   10.4898    4.3773    0.0000 H   0  0  0  0  0  0  0  0  0  0  0  0
   12.2426    4.4119    0.0000 H   0  0  0  0  0  0  0  0  0  0  0  0
   13.6916    1.9244    0.0000 H   0  0  0  0  0  0  0  0  0  0  0  0
   13.6916    3.5902    0.0000 H   0  0  0  0  0  0  0  0  0  0  0  0
  1 15  2  0  0  0  0
  2 16  2  0  0  0  0
  3 19  2  0  0  0  0
  4 25  2  0  0  0  0
  5  9  1  0  0  0  0
  5 13  1  0  0  0  0
  5 19  1  0  0  0  0
  6 10  1  0  0  0  0
  6 15  1  0  0  0  0
  6 16  1  0  0  0  0
  7 21  1  0  0  0  0
  7 24  1  0  0  0  0
  7 25  1  0  0  0  0
  8 25  1  0  0  0  0
  8 26  1  0  0  0  0
  8 58  1  0  0  0  0
  9 10  1  0  0  0  0
  9 11  1  0  0  0  0
  9 36  1  6  0  0  0
 10 12  1  0  0  0  0
 10 37  1  1  0  0  0
 11 15  1  0  0  0  0
 11 20  1  1  0  0  0
 11 38  1  0  0  0  0
 12 13  1  0  0  0  0
 12 39  1  0  0  0  0
 12 40  1  0  0  0  0
 13 41  1  0  0  0  0
 13 42  1  0  0  0  0
 14 16  1  0  0  0  0
 14 17  1  0  0  0  0
 14 18  1  0  0  0  0
 14 43  1  0  0  0  0
 17 18  1  0  0  0  0
 17 44  1  0  0  0  0
 17 45  1  0  0  0  0
 18 46  1  0  0  0  0
 18 47  1  0  0  0  0
 21 19  1  1  0  0  0
 20 48  1  0  0  0  0
 20 49  1  0  0  0  0
 20 50  1  0  0  0  0
 21 22  1  0  0  0  0
 21 51  1  0  0  0  0
 22 23  1  0  0  0  0
 22 52  1  0  0  0  0
 22 53  1  0  0  0  0
 23 24  1  0  0  0  0
 23 54  1  0  0  0  0
 23 55  1  0  0  0  0
 24 56  1  0  0  0  0
 24 57  1  0  0  0  0
 26 27  1  0  0  0  0
 26 28  2  0  0  0  0
 27 29  1  0  0  0  0
 27 31  2  0  0  0  0
 28 30  1  0  0  0  0
 28 59  1  0  0  0  0
 29 32  1  0  0  0  0
 29 33  2  0  0  0  0
 30 32  2  0  0  0  0
 30 60  1  0  0  0  0
 31 34  1  0  0  0  0
 31 61  1  0  0  0  0
 32 62  1  0  0  0  0
 33 35  1  0  0  0  0
 33 63  1  0  0  0  0
 34 35  2  0  0  0  0
 34 64  1  0  0  0  0
 35 65  1  0  0  0  0
M  END
> <PUBCHEM_COMPOUND_CID>
511096
> <PUBCHEM_COMPOUND_CANONICALIZED>
1
> <PUBCHEM_CACTVS_COMPLEXITY>
904
> <PUBCHEM_CACTVS_HBOND_ACCEPTOR>
4
> <PUBCHEM_CACTVS_HBOND_DONOR>
1
> <PUBCHEM_CACTVS_ROTATABLE_BOND>
3
> <PUBCHEM_CACTVS_SUBSKEYS>
AAADceB7uAAAAAAAAAAAAAAAGAAAAWLFgAAwYAAAAAAWAADBUAAAHgAQAAAADSjBmAQzwMPAAACIAiVSUACCAAAhAgAIiAGIZIiIYDrA0bGUIAholiLIyCcciYAOgAAAQAASAAAAAACAACQAAAAAAAAAAA==
> <PUBCHEM_IUPAC_OPENEYE_NAME>
(2S)-2-[(3aS,6S,6aR)-4-(cyclopropanecarbonyl)-6-methyl-5-oxo-3,3a,6,6a-tetrahydro-2H-pyrrolo[3,2-b]pyrrole-1-carbonyl]-N-(1-naphthyl)pyrrolidine-1-carboxamide
> <PUBCHEM_IUPAC_CAS_NAME>
(2S)-2-[[(3aS,6S,6aR)-4-[cyclopropyl(oxo)methyl]-6-methyl-5-oxo-3,3a,6,6a-tetrahydro-2H-pyrrolo[3,2-b]pyrrol-1-yl]-oxomethyl]-N-(1-naphthalenyl)-1-pyrrolidinecarboxamide
> <PUBCHEM_IUPAC_NAME_MARKUP>
(2<I>S</I>)-2-[(3<I>a</I><I>S</I>,6<I>S</I>,6<I>a</I><I>R</I>)-4-(cyclopropanecarbonyl)-6-methyl-5-oxo-3,3<I>a</I>,6,6<I>a</I>-tetrahydro-2<I>H</I>-pyrrolo[3,2-b]pyrrole-1-carbonyl]-<I>N</I>-naphthalen-1-ylpyrrolidine-1-carboxamide
> <PUBCHEM_IUPAC_NAME>
(2S)-2-[(3aS,6S,6aR)-4-(cyclopropanecarbonyl)-6-methyl-5-oxo-3,3a,6,6a-tetrahydro-2H-pyrrolo[3,2-b]pyrrole-1-carbonyl]-N-naphthalen-1-ylpyrrolidine-1-carboxamide
> <PUBCHEM_IUPAC_SYSTEMATIC_NAME>
(2S)-2-[[(3aS,6S,6aR)-4-cyclopropylcarbonyl-6-methyl-5-oxidanylidene-3,3a,6,6a-tetrahydro-2H-pyrrolo[3,2-b]pyrrol-1-yl]carbonyl]-N-naphthalen-1-yl-pyrrolidine-1-carboxamide
> <PUBCHEM_IUPAC_TRADITIONAL_NAME>
(2S)-2-[(3aS,6S,6aR)-4-(cyclopropanecarbonyl)-5-keto-6-methyl-3,3a,6,6a-tetrahydro-2H-pyrrolo[3,2-b]pyrrole-1-carbonyl]-N-(1-naphthyl)pyrrolidine-1-carboxamide
> <PUBCHEM_IUPAC_INCHI>
InChI=1S/C27H30N4O4/c1-16-23-21(31(24(16)32)25(33)18-11-12-18)13-15-30(23)26(34)22-10-5-14-29(22)27(35)28-20-9-4-7-17-6-2-3-8-19(17)20/h2-4,6-9,16,18,21-23H,5,10-15H2,1H3,(H,28,35)/t16-,21-,22-,23+/m0/s1
> <PUBCHEM_IUPAC_INCHIKEY>
CWALSWVAFKKYSV-YMPRXVIZSA-N
> <PUBCHEM_XLOGP3_AA>
2.7
> <PUBCHEM_EXACT_MASS>
474.22670545
> <PUBCHEM_MOLECULAR_FORMULA>
C27H30N4O4
> <PUBCHEM_MOLECULAR_WEIGHT>
474.6
> <PUBCHEM_OPENEYE_CAN_SMILES>
CC1C2C(CCN2C(=O)C3CCCN3C(=O)NC4=CC=CC5=CC=CC=C54)N(C1=O)C(=O)C6CC6
> <PUBCHEM_OPENEYE_ISO_SMILES>
C[C@H]1[C@@H]2[C@H](CCN2C(=O)[C@@H]3CCCN3C(=O)NC4=CC=CC5=CC=CC=C54)N(C1=O)C(=O)C6CC6
> <PUBCHEM_CACTVS_TPSA>
90
> <PUBCHEM_MONOISOTOPIC_WEIGHT>
474.22670545
> <PUBCHEM_TOTAL_CHARGE>
0
> <PUBCHEM_HEAVY_ATOM_COUNT>
35
> <PUBCHEM_ATOM_DEF_STEREO_COUNT>
4
> <PUBCHEM_ATOM_UDEF_STEREO_COUNT>
0
> <PUBCHEM_BOND_DEF_STEREO_COUNT>
0
> <PUBCHEM_BOND_UDEF_STEREO_COUNT>
0
> <PUBCHEM_ISOTOPIC_ATOM_COUNT>
0
> <PUBCHEM_COMPONENT_COUNT>
1
> <PUBCHEM_CACTVS_TAUTO_COUNT>
-1
> <PUBCHEM_COORDINATE_TYPE>
1
5
255
> <PUBCHEM_BONDANNOTATIONS>
10  37  5
11  20  5
21  19  5
26  27  8
26  28  8
27  29  8
27  31  8
28  30  8
29  32  8
29  33  8
30  32  8
31  34  8
33  35  8
34  35  8
9  36  6
$$$$
