511031
  -OEChem-10302200282D
 54 57  0     1  0  0  0  0  0999 V2000
   10.8396    1.3251    0.0000 O   0  0  0  0  0  0  0  0  0  0  0  0
   13.1910    0.2450    0.0000 O   0  0  0  0  0  0  0  0  0  0  0  0
   13.1839    2.4206    0.0000 O   0  0  0  0  0  0  0  0  0  0  0  0
   10.1338    3.2908    0.0000 O   0  0  0  0  0  0  0  0  0  0  0  0
    9.6121    0.8521    0.0000 O   0  0  0  0  0  0  0  0  0  0  0  0
    9.6331   -3.3446    0.0000 O   0  0  0  0  0  0  0  0  0  0  0  0
   11.1241   -0.4340    0.0000 N   0  0  0  0  0  0  0  0  0  0  0  0
   11.1321   -2.0435    0.0000 N   0  0  0  0  0  0  0  0  0  0  0  0
    8.4207   -0.3513    0.0000 N   0  0  0  0  0  0  0  0  0  0  0  0
    8.4297   -2.1532    0.0000 N   0  0  0  0  0  0  0  0  0  0  0  0
    6.9913   -1.2594    0.0000 N   0  0  0  0  0  0  0  0  0  0  0  0
   12.3801    0.8301    0.0000 C   0  0  1  0  0  0  0  0  0  0  0  0
   11.4300    0.5180    0.0000 C   0  0  1  0  0  0  0  0  0  0  0  0
   12.3768    1.8301    0.0000 C   0  0  1  0  0  0  0  0  0  0  0  0
   11.4247    2.1361    0.0000 C   0  0  1  0  0  0  0  0  0  0  0  0
   11.1126    3.0861    0.0000 C   0  0  0  0  0  0  0  0  0  0  0  0
   10.1794   -0.7435    0.0000 C   0  0  0  0  0  0  0  0  0  0  0  0
   11.7117   -1.2358    0.0000 C   0  0  0  0  0  0  0  0  0  0  0  0
   10.1844   -1.7435    0.0000 C   0  0  0  0  0  0  0  0  0  0  0  0
    9.3945   -0.1239    0.0000 C   0  0  0  0  0  0  0  0  0  0  0  0
    9.4057   -2.3708    0.0000 C   0  0  0  0  0  0  0  0  0  0  0  0
    7.9913   -1.2544    0.0000 C   0  0  0  0  0  0  0  0  0  0  0  0
    6.4956   -2.1279    0.0000 C   0  0  0  0  0  0  0  0  0  0  0  0
    5.4956   -2.1329    0.0000 C   0  0  0  0  0  0  0  0  0  0  0  0
    5.0000   -3.0014    0.0000 C   0  0  0  0  0  0  0  0  0  0  0  0
    4.0000   -3.0064    0.0000 C   0  0  0  0  0  0  0  0  0  0  0  0
    3.5043   -3.8749    0.0000 C   0  0  0  0  0  0  0  0  0  0  0  0
    3.4957   -2.1428    0.0000 C   0  0  0  0  0  0  0  0  0  0  0  0
    2.5043   -3.8799    0.0000 C   0  0  0  0  0  0  0  0  0  0  0  0
    2.4957   -2.1478    0.0000 C   0  0  0  0  0  0  0  0  0  0  0  0
    2.0000   -3.0163    0.0000 C   0  0  0  0  0  0  0  0  0  0  0  0
   12.2851    0.2175    0.0000 H   0  0  0  0  0  0  0  0  0  0  0  0
   10.8180    0.4191    0.0000 H   0  0  0  0  0  0  0  0  0  0  0  0
   12.9301    1.5505    0.0000 H   0  0  0  0  0  0  0  0  0  0  0  0
   10.8121    2.2311    0.0000 H   0  0  0  0  0  0  0  0  0  0  0  0
   11.7263    3.1744    0.0000 H   0  0  0  0  0  0  0  0  0  0  0  0
   11.1323    3.7058    0.0000 H   0  0  0  0  0  0  0  0  0  0  0  0
   13.7566    0.4990    0.0000 H   0  0  0  0  0  0  0  0  0  0  0  0
   13.1171    3.0370    0.0000 H   0  0  0  0  0  0  0  0  0  0  0  0
   12.3317   -1.2327    0.0000 H   0  0  0  0  0  0  0  0  0  0  0  0
    9.9403    3.8799    0.0000 H   0  0  0  0  0  0  0  0  0  0  0  0
    8.0317    0.1315    0.0000 H   0  0  0  0  0  0  0  0  0  0  0  0
    6.3910   -2.7390    0.0000 H   0  0  0  0  0  0  0  0  0  0  0  0
    7.0793   -2.3370    0.0000 H   0  0  0  0  0  0  0  0  0  0  0  0
    5.6002   -1.5218    0.0000 H   0  0  0  0  0  0  0  0  0  0  0  0
    4.9120   -1.9237    0.0000 H   0  0  0  0  0  0  0  0  0  0  0  0
    6.6786   -0.7240    0.0000 H   0  0  0  0  0  0  0  0  0  0  0  0
    4.8954   -3.6125    0.0000 H   0  0  0  0  0  0  0  0  0  0  0  0
    5.5836   -3.2105    0.0000 H   0  0  0  0  0  0  0  0  0  0  0  0
    3.8170   -4.4103    0.0000 H   0  0  0  0  0  0  0  0  0  0  0  0
    3.8030   -1.6044    0.0000 H   0  0  0  0  0  0  0  0  0  0  0  0
    2.1970   -4.4183    0.0000 H   0  0  0  0  0  0  0  0  0  0  0  0
    2.1830   -1.6124    0.0000 H   0  0  0  0  0  0  0  0  0  0  0  0
    1.3800   -3.0194    0.0000 H   0  0  0  0  0  0  0  0  0  0  0  0
  1 13  1  0  0  0  0
  1 15  1  0  0  0  0
 12  2  1  1  0  0  0
  2 38  1  0  0  0  0
 14  3  1  1  0  0  0
  3 39  1  0  0  0  0
  4 16  1  0  0  0  0
  4 41  1  0  0  0  0
  5 20  2  0  0  0  0
  6 21  2  0  0  0  0
 13  7  1  6  0  0  0
  7 17  1  0  0  0  0
  7 18  1  0  0  0  0
  8 18  2  0  0  0  0
  8 19  1  0  0  0  0
  9 20  1  0  0  0  0
  9 22  1  0  0  0  0
  9 42  1  0  0  0  0
 10 21  1  0  0  0  0
 10 22  2  0  0  0  0
 11 22  1  0  0  0  0
 11 23  1  0  0  0  0
 11 47  1  0  0  0  0
 12 13  1  0  0  0  0
 12 14  1  0  0  0  0
 12 32  1  0  0  0  0
 13 33  1  0  0  0  0
 14 15  1  0  0  0  0
 14 34  1  0  0  0  0
 15 16  1  6  0  0  0
 15 35  1  0  0  0  0
 16 36  1  0  0  0  0
 16 37  1  0  0  0  0
 17 19  2  0  0  0  0
 17 20  1  0  0  0  0
 18 40  1  0  0  0  0
 19 21  1  0  0  0  0
 23 24  1  0  0  0  0
 23 43  1  0  0  0  0
 23 44  1  0  0  0  0
 24 25  1  0  0  0  0
 24 45  1  0  0  0  0
 24 46  1  0  0  0  0
 25 26  1  0  0  0  0
 25 48  1  0  0  0  0
 25 49  1  0  0  0  0
 26 27  2  0  0  0  0
 26 28  1  0  0  0  0
 27 29  1  0  0  0  0
 27 50  1  0  0  0  0
 28 30  2  0  0  0  0
 28 51  1  0  0  0  0
 29 31  2  0  0  0  0
 29 52  1  0  0  0  0
 30 31  1  0  0  0  0
 30 53  1  0  0  0  0
 31 54  1  0  0  0  0
M  END
> <PUBCHEM_COMPOUND_CID>
511031
> <PUBCHEM_COMPOUND_CANONICALIZED>
1
> <PUBCHEM_CACTVS_COMPLEXITY>
700
> <PUBCHEM_CACTVS_HBOND_ACCEPTOR>
7
> <PUBCHEM_CACTVS_HBOND_DONOR>
5
> <PUBCHEM_CACTVS_ROTATABLE_BOND>
7
> <PUBCHEM_CACTVS_SUBSKEYS>
AAADceB7uAAAAAAAAAAAAAAAAAAAAWJAAAAwAAAABAAAAACBwAAAHgAQCAAADBzhngY1kJfMFgCoAyVzdACCgC03EKAJ2IGoVMiLeDrA2TCeYYhvkQLbiWf1sIIOAAAAAAAAAAAAAAAAAAAAAAAAAAAAAA==
> <PUBCHEM_IUPAC_OPENEYE_NAME>
1-[(2R,3R,4S,5R)-3,4-dihydroxy-5-(hydroxymethyl)tetrahydrofuran-2-yl]-6-(3-phenylpropylamino)-7H-imidazo[4,5-e][1,3]diazepine-4,8-dione
> <PUBCHEM_IUPAC_CAS_NAME>
1-[(2R,3R,4S,5R)-3,4-dihydroxy-5-(hydroxymethyl)-2-oxolanyl]-6-(3-phenylpropylamino)-7H-imidazo[4,5-e][1,3]diazepine-4,8-dione
> <PUBCHEM_IUPAC_NAME_MARKUP>
1-[(2<I>R</I>,3<I>R</I>,4<I>S</I>,5<I>R</I>)-3,4-dihydroxy-5-(hydroxymethyl)oxolan-2-yl]-6-(3-phenylpropylamino)-7<I>H</I>-imidazo[4,5-e][1,3]diazepine-4,8-dione
> <PUBCHEM_IUPAC_NAME>
1-[(2R,3R,4S,5R)-3,4-dihydroxy-5-(hydroxymethyl)oxolan-2-yl]-6-(3-phenylpropylamino)-7H-imidazo[4,5-e][1,3]diazepine-4,8-dione
> <PUBCHEM_IUPAC_SYSTEMATIC_NAME>
1-[(2R,3R,4S,5R)-5-(hydroxymethyl)-3,4-bis(oxidanyl)oxolan-2-yl]-6-(3-phenylpropylamino)-7H-imidazo[4,5-e][1,3]diazepine-4,8-dione
> <PUBCHEM_IUPAC_TRADITIONAL_NAME>
1-[(2R,3R,4S,5R)-3,4-dihydroxy-5-methylol-tetrahydrofuran-2-yl]-6-(3-phenylpropylamino)-7H-imidazo[4,5-e][1,3]diazepine-4,8-quinone
> <PUBCHEM_IUPAC_INCHI>
InChI=1S/C20H23N5O6/c26-9-12-15(27)16(28)19(31-12)25-10-22-13-14(25)18(30)24-20(23-17(13)29)21-8-4-7-11-5-2-1-3-6-11/h1-3,5-6,10,12,15-16,19,26-28H,4,7-9H2,(H2,21,23,24,29,30)/t12-,15-,16-,19-/m1/s1
> <PUBCHEM_IUPAC_INCHIKEY>
OPJJLVPLWAHBJY-BGIGGGFGSA-N
> <PUBCHEM_XLOGP3>
0.7
> <PUBCHEM_EXACT_MASS>
429.16483347
> <PUBCHEM_MOLECULAR_FORMULA>
C20H23N5O6
> <PUBCHEM_MOLECULAR_WEIGHT>
429.4
> <PUBCHEM_OPENEYE_CAN_SMILES>
C1=CC=C(C=C1)CCCNC2=NC(=O)C3=C(C(=O)N2)N(C=N3)C4C(C(C(O4)CO)O)O
> <PUBCHEM_OPENEYE_ISO_SMILES>
C1=CC=C(C=C1)CCCNC2=NC(=O)C3=C(C(=O)N2)N(C=N3)[C@H]4[C@@H]([C@@H]([C@H](O4)CO)O)O
> <PUBCHEM_CACTVS_TPSA>
158
> <PUBCHEM_MONOISOTOPIC_WEIGHT>
429.16483347
> <PUBCHEM_TOTAL_CHARGE>
0
> <PUBCHEM_HEAVY_ATOM_COUNT>
31
> <PUBCHEM_ATOM_DEF_STEREO_COUNT>
4
> <PUBCHEM_ATOM_UDEF_STEREO_COUNT>
0
> <PUBCHEM_BOND_DEF_STEREO_COUNT>
0
> <PUBCHEM_BOND_UDEF_STEREO_COUNT>
0
> <PUBCHEM_ISOTOPIC_ATOM_COUNT>
0
> <PUBCHEM_COMPONENT_COUNT>
1
> <PUBCHEM_CACTVS_TAUTO_COUNT>
-1
> <PUBCHEM_COORDINATE_TYPE>
1
5
255
> <PUBCHEM_BONDANNOTATIONS>
10  21  8
10  22  8
15  16  6
17  19  8
17  20  8
19  21  8
12  2  5
26  27  8
26  28  8
27  29  8
28  30  8
29  31  8
14  3  5
30  31  8
13  7  6
7  17  8
7  18  8
8  18  8
8  19  8
9  20  8
9  22  8
$$$$
