511083
  -OEChem-10302200282D
 68 72  0     1  0  0  0  0  0999 V2000
    7.3345    0.5911    0.0000 S   0  0  0  0  0  0  0  0  0  0  0  0
    2.6504   -3.1501    0.0000 O   0  0  0  0  0  0  0  0  0  0  0  0
    4.5983   -5.6533    0.0000 O   0  0  0  0  0  0  0  0  0  0  0  0
    5.7783   -0.6506    0.0000 O   0  0  0  0  0  0  0  0  0  0  0  0
    8.2014    1.0896    0.0000 O   0  0  0  0  0  0  0  0  0  0  0  0
    6.4676    0.0926    0.0000 O   0  0  0  0  0  0  0  0  0  0  0  0
    7.3405    4.0552    0.0000 O   0  0  0  0  0  0  0  0  0  0  0  0
    6.1355   -2.3454    0.0000 N   0  0  0  0  0  0  0  0  0  0  0  0
    4.2382   -3.9591    0.0000 N   0  0  0  0  0  0  0  0  0  0  0  0
    7.8330   -0.2758    0.0000 N   0  0  3  0  0  0  0  0  0  0  0  0
    5.1893   -2.6501    0.0000 C   0  0  1  0  0  0  0  0  0  0  0  0
    5.1893   -3.6501    0.0000 C   0  0  2  0  0  0  0  0  0  0  0  0
    4.2382   -2.3411    0.0000 C   0  0  1  0  0  0  0  0  0  0  0  0
    6.1355   -3.9548    0.0000 C   0  0  0  0  0  0  0  0  0  0  0  0
    6.7191   -3.1501    0.0000 C   0  0  0  0  0  0  0  0  0  0  0  0
    2.9511   -5.1181    0.0000 C   0  0  0  0  0  0  0  0  0  0  0  0
    3.6504   -3.1501    0.0000 C   0  0  0  0  0  0  0  0  0  0  0  0
    3.9292   -4.9102    0.0000 C   0  0  0  0  0  0  0  0  0  0  0  0
    2.0000   -4.8091    0.0000 C   0  0  0  0  0  0  0  0  0  0  0  0
    2.2079   -5.7872    0.0000 C   0  0  0  0  0  0  0  0  0  0  0  0
    6.4462   -1.3949    0.0000 C   0  0  0  0  0  0  0  0  0  0  0  0
    7.4247   -1.1886    0.0000 C   0  0  2  0  0  0  0  0  0  0  0  0
    3.9292   -1.3900    0.0000 C   0  0  0  0  0  0  0  0  0  0  0  0
    8.1666   -1.8591    0.0000 C   0  0  0  0  0  0  0  0  0  0  0  0
    9.0335   -1.3606    0.0000 C   0  0  0  0  0  0  0  0  0  0  0  0
    8.8273   -0.3821    0.0000 C   0  0  0  0  0  0  0  0  0  0  0  0
    6.8360    1.4580    0.0000 C   0  0  0  0  0  0  0  0  0  0  0  0
    7.3375    2.3231    0.0000 C   0  0  0  0  0  0  0  0  0  0  0  0
    5.8360    1.4597    0.0000 C   0  0  0  0  0  0  0  0  0  0  0  0
    6.8390    3.1900    0.0000 C   0  0  0  0  0  0  0  0  0  0  0  0
    5.3375    2.3266    0.0000 C   0  0  0  0  0  0  0  0  0  0  0  0
    5.8390    3.1918    0.0000 C   0  0  0  0  0  0  0  0  0  0  0  0
    6.8420    4.9221    0.0000 C   0  0  0  0  0  0  0  0  0  0  0  0
    7.3435    5.7872    0.0000 C   0  0  0  0  0  0  0  0  0  0  0  0
    5.8420    4.9238    0.0000 C   0  0  0  0  0  0  0  0  0  0  0  0
    5.1904   -1.8001    0.0000 H   0  0  0  0  0  0  0  0  0  0  0  0
    5.1904   -4.5001    0.0000 H   0  0  0  0  0  0  0  0  0  0  0  0
    3.6258   -2.2441    0.0000 H   0  0  0  0  0  0  0  0  0  0  0  0
    5.8845   -4.5218    0.0000 H   0  0  0  0  0  0  0  0  0  0  0  0
    6.6729   -4.2641    0.0000 H   0  0  0  0  0  0  0  0  0  0  0  0
    7.1800   -3.5648    0.0000 H   0  0  0  0  0  0  0  0  0  0  0  0
    7.1800   -2.7354    0.0000 H   0  0  0  0  0  0  0  0  0  0  0  0
    3.2325   -5.6705    0.0000 H   0  0  0  0  0  0  0  0  0  0  0  0
    2.0863   -4.1951    0.0000 H   0  0  0  0  0  0  0  0  0  0  0  0
    1.3804   -4.8307    0.0000 H   0  0  0  0  0  0  0  0  0  0  0  0
    1.6331   -6.0195    0.0000 H   0  0  0  0  0  0  0  0  0  0  0  0
    2.5365   -6.3130    0.0000 H   0  0  0  0  0  0  0  0  0  0  0  0
    7.0353   -0.7061    0.0000 H   0  0  0  0  0  0  0  0  0  0  0  0
    4.5189   -1.1984    0.0000 H   0  0  0  0  0  0  0  0  0  0  0  0
    3.7376   -0.8004    0.0000 H   0  0  0  0  0  0  0  0  0  0  0  0
    3.3396   -1.5816    0.0000 H   0  0  0  0  0  0  0  0  0  0  0  0
    7.7052   -2.2731    0.0000 H   0  0  0  0  0  0  0  0  0  0  0  0
    8.5302   -2.3613    0.0000 H   0  0  0  0  0  0  0  0  0  0  0  0
    9.2847   -1.9274    0.0000 H   0  0  0  0  0  0  0  0  0  0  0  0
    9.6235   -1.1700    0.0000 H   0  0  0  0  0  0  0  0  0  0  0  0
    9.4440   -0.3183    0.0000 H   0  0  0  0  0  0  0  0  0  0  0  0
    8.8284    0.2379    0.0000 H   0  0  0  0  0  0  0  0  0  0  0  0
    7.9575    2.3221    0.0000 H   0  0  0  0  0  0  0  0  0  0  0  0
    5.5250    0.9233    0.0000 H   0  0  0  0  0  0  0  0  0  0  0  0
    4.7175    2.3277    0.0000 H   0  0  0  0  0  0  0  0  0  0  0  0
    5.5299    3.7292    0.0000 H   0  0  0  0  0  0  0  0  0  0  0  0
    6.5310    4.3857    0.0000 H   0  0  0  0  0  0  0  0  0  0  0  0
    7.8799    5.4763    0.0000 H   0  0  0  0  0  0  0  0  0  0  0  0
    7.6544    6.3236    0.0000 H   0  0  0  0  0  0  0  0  0  0  0  0
    6.8071    6.0982    0.0000 H   0  0  0  0  0  0  0  0  0  0  0  0
    5.8430    5.5438    0.0000 H   0  0  0  0  0  0  0  0  0  0  0  0
    5.2220    4.9249    0.0000 H   0  0  0  0  0  0  0  0  0  0  0  0
    5.8409    4.3038    0.0000 H   0  0  0  0  0  0  0  0  0  0  0  0
  1  5  2  0  0  0  0
  1  6  2  0  0  0  0
  1 10  1  0  0  0  0
  1 27  1  0  0  0  0
  2 17  2  0  0  0  0
  3 18  2  0  0  0  0
  4 21  2  0  0  0  0
  7 30  1  0  0  0  0
  7 33  1  0  0  0  0
  8 11  1  0  0  0  0
  8 15  1  0  0  0  0
  8 21  1  0  0  0  0
  9 12  1  0  0  0  0
  9 17  1  0  0  0  0
  9 18  1  0  0  0  0
 10 22  1  0  0  0  0
 10 26  1  0  0  0  0
 11 12  1  0  0  0  0
 11 13  1  0  0  0  0
 11 36  1  6  0  0  0
 12 14  1  0  0  0  0
 12 37  1  1  0  0  0
 13 17  1  0  0  0  0
 13 23  1  1  0  0  0
 13 38  1  0  0  0  0
 14 15  1  0  0  0  0
 14 39  1  0  0  0  0
 14 40  1  0  0  0  0
 15 41  1  0  0  0  0
 15 42  1  0  0  0  0
 16 18  1  0  0  0  0
 16 19  1  0  0  0  0
 16 20  1  0  0  0  0
 16 43  1  0  0  0  0
 19 20  1  0  0  0  0
 19 44  1  0  0  0  0
 19 45  1  0  0  0  0
 20 46  1  0  0  0  0
 20 47  1  0  0  0  0
 22 21  1  1  0  0  0
 22 24  1  0  0  0  0
 22 48  1  0  0  0  0
 23 49  1  0  0  0  0
 23 50  1  0  0  0  0
 23 51  1  0  0  0  0
 24 25  1  0  0  0  0
 24 52  1  0  0  0  0
 24 53  1  0  0  0  0
 25 26  1  0  0  0  0
 25 54  1  0  0  0  0
 25 55  1  0  0  0  0
 26 56  1  0  0  0  0
 26 57  1  0  0  0  0
 27 28  1  0  0  0  0
 27 29  2  0  0  0  0
 28 30  2  0  0  0  0
 28 58  1  0  0  0  0
 29 31  1  0  0  0  0
 29 59  1  0  0  0  0
 30 32  1  0  0  0  0
 31 32  2  0  0  0  0
 31 60  1  0  0  0  0
 32 61  1  0  0  0  0
 33 34  1  0  0  0  0
 33 35  1  0  0  0  0
 33 62  1  0  0  0  0
 34 63  1  0  0  0  0
 34 64  1  0  0  0  0
 34 65  1  0  0  0  0
 35 66  1  0  0  0  0
 35 67  1  0  0  0  0
 35 68  1  0  0  0  0
M  END
> <PUBCHEM_COMPOUND_CID>
511083
> <PUBCHEM_COMPOUND_CANONICALIZED>
1
> <PUBCHEM_CACTVS_COMPLEXITY>
974
> <PUBCHEM_CACTVS_HBOND_ACCEPTOR>
7
> <PUBCHEM_CACTVS_HBOND_DONOR>
0
> <PUBCHEM_CACTVS_ROTATABLE_BOND>
6
> <PUBCHEM_CACTVS_SUBSKEYS>
AAADcfB7OABAAAAAAAAAAAAAGAAAAWLFgAAwAAAAAAAWAAABAAAAHgQAQAAADTzh0AYyB4MABAKIACFSEHBCCBAgIAAIiBmOCIgMZjqE8TqWOCCkxjGIqAecSQAMAAAABAAAAAAAAAAIAAAAAAAAAAAAAA==
> <PUBCHEM_IUPAC_OPENEYE_NAME>
(3aS,6S,6aR)-4-(cyclopropanecarbonyl)-1-[(2S)-1-(3-isopropoxyphenyl)sulfonylpyrrolidine-2-carbonyl]-6-methyl-3,3a,6,6a-tetrahydro-2H-pyrrolo[3,2-b]pyrrol-5-one
> <PUBCHEM_IUPAC_CAS_NAME>
(3aS,6S,6aR)-4-[cyclopropyl(oxo)methyl]-6-methyl-1-[oxo-[(2S)-1-(3-propan-2-yloxyphenyl)sulfonyl-2-pyrrolidinyl]methyl]-3,3a,6,6a-tetrahydro-2H-pyrrolo[3,2-b]pyrrol-5-one
> <PUBCHEM_IUPAC_NAME_MARKUP>
(3<I>a</I><I>S</I>,6<I>S</I>,6<I>a</I><I>R</I>)-4-(cyclopropanecarbonyl)-6-methyl-1-[(2<I>S</I>)-1-(3-propan-2-yloxyphenyl)sulfonylpyrrolidine-2-carbonyl]-3,3<I>a</I>,6,6<I>a</I>-tetrahydro-2<I>H</I>-pyrrolo[3,2-b]pyrrol-5-one
> <PUBCHEM_IUPAC_NAME>
(3aS,6S,6aR)-4-(cyclopropanecarbonyl)-6-methyl-1-[(2S)-1-(3-propan-2-yloxyphenyl)sulfonylpyrrolidine-2-carbonyl]-3,3a,6,6a-tetrahydro-2H-pyrrolo[3,2-b]pyrrol-5-one
> <PUBCHEM_IUPAC_SYSTEMATIC_NAME>
(3aS,6S,6aR)-4-cyclopropylcarbonyl-6-methyl-1-[(2S)-1-(3-propan-2-yloxyphenyl)sulfonylpyrrolidin-2-yl]carbonyl-3,3a,6,6a-tetrahydro-2H-pyrrolo[3,2-b]pyrrol-5-one
> <PUBCHEM_IUPAC_TRADITIONAL_NAME>
(3aS,6S,6aR)-4-(cyclopropanecarbonyl)-1-[(2S)-1-(3-isopropoxyphenyl)sulfonylprolyl]-6-methyl-3,3a,6,6a-tetrahydro-2H-pyrrolo[3,2-b]pyrrol-5-one
> <PUBCHEM_IUPAC_INCHI>
InChI=1S/C25H33N3O6S/c1-15(2)34-18-6-4-7-19(14-18)35(32,33)27-12-5-8-21(27)25(31)26-13-11-20-22(26)16(3)23(29)28(20)24(30)17-9-10-17/h4,6-7,14-17,20-22H,5,8-13H2,1-3H3/t16-,20-,21-,22+/m0/s1
> <PUBCHEM_IUPAC_INCHIKEY>
NWKZJCQIYOZHJE-IRNNPGBSSA-N
> <PUBCHEM_XLOGP3_AA>
2.2
> <PUBCHEM_EXACT_MASS>
503.20900695
> <PUBCHEM_MOLECULAR_FORMULA>
C25H33N3O6S
> <PUBCHEM_MOLECULAR_WEIGHT>
503.6
> <PUBCHEM_OPENEYE_CAN_SMILES>
CC1C2C(CCN2C(=O)C3CCCN3S(=O)(=O)C4=CC=CC(=C4)OC(C)C)N(C1=O)C(=O)C5CC5
> <PUBCHEM_OPENEYE_ISO_SMILES>
C[C@H]1[C@@H]2[C@H](CCN2C(=O)[C@@H]3CCCN3S(=O)(=O)C4=CC=CC(=C4)OC(C)C)N(C1=O)C(=O)C5CC5
> <PUBCHEM_CACTVS_TPSA>
113
> <PUBCHEM_MONOISOTOPIC_WEIGHT>
503.20900695
> <PUBCHEM_TOTAL_CHARGE>
0
> <PUBCHEM_HEAVY_ATOM_COUNT>
35
> <PUBCHEM_ATOM_DEF_STEREO_COUNT>
4
> <PUBCHEM_ATOM_UDEF_STEREO_COUNT>
0
> <PUBCHEM_BOND_DEF_STEREO_COUNT>
0
> <PUBCHEM_BOND_UDEF_STEREO_COUNT>
0
> <PUBCHEM_ISOTOPIC_ATOM_COUNT>
0
> <PUBCHEM_COMPONENT_COUNT>
1
> <PUBCHEM_CACTVS_TAUTO_COUNT>
-1
> <PUBCHEM_COORDINATE_TYPE>
1
5
255
> <PUBCHEM_BONDANNOTATIONS>
11  36  6
12  37  5
13  23  5
22  21  5
27  28  8
27  29  8
28  30  8
29  31  8
30  32  8
31  32  8
$$$$
