511028
  -OEChem-10302200282D
 45 48  0     1  0  0  0  0  0999 V2000
    7.8396    1.3176    0.0000 O   0  0  0  0  0  0  0  0  0  0  0  0
   10.1910    0.2375    0.0000 O   0  0  0  0  0  0  0  0  0  0  0  0
   10.1839    2.4131    0.0000 O   0  0  0  0  0  0  0  0  0  0  0  0
    7.1338    3.2834    0.0000 O   0  0  0  0  0  0  0  0  0  0  0  0
    6.6122    0.8447    0.0000 O   0  0  0  0  0  0  0  0  0  0  0  0
    6.6331   -3.3521    0.0000 O   0  0  0  0  0  0  0  0  0  0  0  0
    8.1241   -0.4415    0.0000 N   0  0  0  0  0  0  0  0  0  0  0  0
    8.1322   -2.0510    0.0000 N   0  0  0  0  0  0  0  0  0  0  0  0
    5.4207   -0.3587    0.0000 N   0  0  0  0  0  0  0  0  0  0  0  0
    5.4297   -2.1607    0.0000 N   0  0  0  0  0  0  0  0  0  0  0  0
    3.9913   -1.2668    0.0000 N   0  0  0  0  0  0  0  0  0  0  0  0
    9.3801    0.8227    0.0000 C   0  0  1  0  0  0  0  0  0  0  0  0
    8.4301    0.5106    0.0000 C   0  0  1  0  0  0  0  0  0  0  0  0
    9.3768    1.8227    0.0000 C   0  0  1  0  0  0  0  0  0  0  0  0
    8.4248    2.1286    0.0000 C   0  0  1  0  0  0  0  0  0  0  0  0
    8.1127    3.0786    0.0000 C   0  0  0  0  0  0  0  0  0  0  0  0
    7.1794   -0.7510    0.0000 C   0  0  0  0  0  0  0  0  0  0  0  0
    8.7118   -1.2433    0.0000 C   0  0  0  0  0  0  0  0  0  0  0  0
    7.1844   -1.7509    0.0000 C   0  0  0  0  0  0  0  0  0  0  0  0
    6.3945   -0.1314    0.0000 C   0  0  0  0  0  0  0  0  0  0  0  0
    6.4057   -2.3783    0.0000 C   0  0  0  0  0  0  0  0  0  0  0  0
    4.9913   -1.2619    0.0000 C   0  0  0  0  0  0  0  0  0  0  0  0
    3.4957   -2.1354    0.0000 C   0  0  0  0  0  0  0  0  0  0  0  0
    4.0000   -2.9989    0.0000 C   0  0  0  0  0  0  0  0  0  0  0  0
    2.4957   -2.1404    0.0000 C   0  0  0  0  0  0  0  0  0  0  0  0
    3.5043   -3.8674    0.0000 C   0  0  0  0  0  0  0  0  0  0  0  0
    2.0000   -3.0089    0.0000 C   0  0  0  0  0  0  0  0  0  0  0  0
    2.5043   -3.8724    0.0000 C   0  0  0  0  0  0  0  0  0  0  0  0
    9.9316    1.1059    0.0000 H   0  0  0  0  0  0  0  0  0  0  0  0
    8.8699    0.0736    0.0000 H   0  0  0  0  0  0  0  0  0  0  0  0
    9.9302    1.5430    0.0000 H   0  0  0  0  0  0  0  0  0  0  0  0
    7.8121    2.2236    0.0000 H   0  0  0  0  0  0  0  0  0  0  0  0
    8.7264    3.1669    0.0000 H   0  0  0  0  0  0  0  0  0  0  0  0
    8.1323    3.6983    0.0000 H   0  0  0  0  0  0  0  0  0  0  0  0
   10.7566    0.4915    0.0000 H   0  0  0  0  0  0  0  0  0  0  0  0
   10.1171    3.0295    0.0000 H   0  0  0  0  0  0  0  0  0  0  0  0
    9.3317   -1.2402    0.0000 H   0  0  0  0  0  0  0  0  0  0  0  0
    6.9404    3.8724    0.0000 H   0  0  0  0  0  0  0  0  0  0  0  0
    5.0317    0.1241    0.0000 H   0  0  0  0  0  0  0  0  0  0  0  0
    3.6787   -0.7315    0.0000 H   0  0  0  0  0  0  0  0  0  0  0  0
    4.6200   -2.9958    0.0000 H   0  0  0  0  0  0  0  0  0  0  0  0
    2.1830   -1.6050    0.0000 H   0  0  0  0  0  0  0  0  0  0  0  0
    3.8170   -4.4028    0.0000 H   0  0  0  0  0  0  0  0  0  0  0  0
    1.3800   -3.0120    0.0000 H   0  0  0  0  0  0  0  0  0  0  0  0
    2.1970   -4.4108    0.0000 H   0  0  0  0  0  0  0  0  0  0  0  0
  1 13  1  0  0  0  0
  1 15  1  0  0  0  0
 12  2  1  1  0  0  0
  2 35  1  0  0  0  0
 14  3  1  1  0  0  0
  3 36  1  0  0  0  0
  4 16  1  0  0  0  0
  4 38  1  0  0  0  0
  5 20  2  0  0  0  0
  6 21  2  0  0  0  0
 13  7  1  6  0  0  0
  7 17  1  0  0  0  0
  7 18  1  0  0  0  0
  8 18  2  0  0  0  0
  8 19  1  0  0  0  0
  9 20  1  0  0  0  0
  9 22  1  0  0  0  0
  9 39  1  0  0  0  0
 10 21  1  0  0  0  0
 10 22  2  0  0  0  0
 11 22  1  0  0  0  0
 11 23  1  0  0  0  0
 11 40  1  0  0  0  0
 12 13  1  0  0  0  0
 12 14  1  0  0  0  0
 12 29  1  0  0  0  0
 13 30  1  0  0  0  0
 14 15  1  0  0  0  0
 14 31  1  0  0  0  0
 15 16  1  6  0  0  0
 15 32  1  0  0  0  0
 16 33  1  0  0  0  0
 16 34  1  0  0  0  0
 17 19  2  0  0  0  0
 17 20  1  0  0  0  0
 18 37  1  0  0  0  0
 19 21  1  0  0  0  0
 23 24  2  0  0  0  0
 23 25  1  0  0  0  0
 24 26  1  0  0  0  0
 24 41  1  0  0  0  0
 25 27  2  0  0  0  0
 25 42  1  0  0  0  0
 26 28  2  0  0  0  0
 26 43  1  0  0  0  0
 27 28  1  0  0  0  0
 27 44  1  0  0  0  0
 28 45  1  0  0  0  0
M  END
> <PUBCHEM_COMPOUND_CID>
511028
> <PUBCHEM_COMPOUND_CANONICALIZED>
1
> <PUBCHEM_CACTVS_COMPLEXITY>
654
> <PUBCHEM_CACTVS_HBOND_ACCEPTOR>
7
> <PUBCHEM_CACTVS_HBOND_DONOR>
5
> <PUBCHEM_CACTVS_ROTATABLE_BOND>
4
> <PUBCHEM_CACTVS_SUBSKEYS>
AAADceB7uAAAAAAAAAAAAAAAAAAAAWJAAAAwAAAABAAAAACBwAAAHgAQCAAACBzhlgY10JfMFgCoASVzdACCgC03EqAJ2AGodMiLeDrA2bGeYYhvkQLbyWf1MAIAAAAAAAAAAAAAAAAAAAAAAAAAAAAAAA==
> <PUBCHEM_IUPAC_OPENEYE_NAME>
6-anilino-1-[(2R,3R,4S,5R)-3,4-dihydroxy-5-(hydroxymethyl)tetrahydrofuran-2-yl]-7H-imidazo[4,5-e][1,3]diazepine-4,8-dione
> <PUBCHEM_IUPAC_CAS_NAME>
6-anilino-1-[(2R,3R,4S,5R)-3,4-dihydroxy-5-(hydroxymethyl)-2-oxolanyl]-7H-imidazo[4,5-e][1,3]diazepine-4,8-dione
> <PUBCHEM_IUPAC_NAME_MARKUP>
6-anilino-1-[(2<I>R</I>,3<I>R</I>,4<I>S</I>,5<I>R</I>)-3,4-dihydroxy-5-(hydroxymethyl)oxolan-2-yl]-7<I>H</I>-imidazo[4,5-e][1,3]diazepine-4,8-dione
> <PUBCHEM_IUPAC_NAME>
6-anilino-1-[(2R,3R,4S,5R)-3,4-dihydroxy-5-(hydroxymethyl)oxolan-2-yl]-7H-imidazo[4,5-e][1,3]diazepine-4,8-dione
> <PUBCHEM_IUPAC_SYSTEMATIC_NAME>
1-[(2R,3R,4S,5R)-5-(hydroxymethyl)-3,4-bis(oxidanyl)oxolan-2-yl]-6-phenylazanyl-7H-imidazo[4,5-e][1,3]diazepine-4,8-dione
> <PUBCHEM_IUPAC_TRADITIONAL_NAME>
6-anilino-1-[(2R,3R,4S,5R)-3,4-dihydroxy-5-methylol-tetrahydrofuran-2-yl]-7H-imidazo[4,5-e][1,3]diazepine-4,8-quinone
> <PUBCHEM_IUPAC_INCHI>
InChI=1S/C17H17N5O6/c23-6-9-12(24)13(25)16(28-9)22-7-18-10-11(22)15(27)21-17(20-14(10)26)19-8-4-2-1-3-5-8/h1-5,7,9,12-13,16,23-25H,6H2,(H2,19,20,21,26,27)/t9-,12-,13-,16-/m1/s1
> <PUBCHEM_IUPAC_INCHIKEY>
IPILQIXCGGHAFS-RVXWVPLUSA-N
> <PUBCHEM_XLOGP3>
0
> <PUBCHEM_EXACT_MASS>
387.11788328
> <PUBCHEM_MOLECULAR_FORMULA>
C17H17N5O6
> <PUBCHEM_MOLECULAR_WEIGHT>
387.3
> <PUBCHEM_OPENEYE_CAN_SMILES>
C1=CC=C(C=C1)NC2=NC(=O)C3=C(C(=O)N2)N(C=N3)C4C(C(C(O4)CO)O)O
> <PUBCHEM_OPENEYE_ISO_SMILES>
C1=CC=C(C=C1)NC2=NC(=O)C3=C(C(=O)N2)N(C=N3)[C@H]4[C@@H]([C@@H]([C@H](O4)CO)O)O
> <PUBCHEM_CACTVS_TPSA>
158
> <PUBCHEM_MONOISOTOPIC_WEIGHT>
387.11788328
> <PUBCHEM_TOTAL_CHARGE>
0
> <PUBCHEM_HEAVY_ATOM_COUNT>
28
> <PUBCHEM_ATOM_DEF_STEREO_COUNT>
4
> <PUBCHEM_ATOM_UDEF_STEREO_COUNT>
0
> <PUBCHEM_BOND_DEF_STEREO_COUNT>
0
> <PUBCHEM_BOND_UDEF_STEREO_COUNT>
0
> <PUBCHEM_ISOTOPIC_ATOM_COUNT>
0
> <PUBCHEM_COMPONENT_COUNT>
1
> <PUBCHEM_CACTVS_TAUTO_COUNT>
-1
> <PUBCHEM_COORDINATE_TYPE>
1
5
255
> <PUBCHEM_BONDANNOTATIONS>
10  21  8
10  22  8
15  16  6
17  19  8
17  20  8
19  21  8
12  2  5
23  24  8
23  25  8
24  26  8
25  27  8
26  28  8
27  28  8
14  3  5
13  7  6
7  17  8
7  18  8
8  18  8
8  19  8
9  20  8
9  22  8
$$$$
