511018
  -OEChem-10302200282D
 47 49  0     1  0  0  0  0  0999 V2000
    8.8396    1.0575    0.0000 O   0  0  0  0  0  0  0  0  0  0  0  0
   11.1910   -0.0226    0.0000 O   0  0  0  0  0  0  0  0  0  0  0  0
   11.1839    2.1530    0.0000 O   0  0  0  0  0  0  0  0  0  0  0  0
    8.1338    3.0232    0.0000 O   0  0  0  0  0  0  0  0  0  0  0  0
    7.6122    0.5845    0.0000 O   0  0  0  0  0  0  0  0  0  0  0  0
    7.6331   -3.6122    0.0000 O   0  0  0  0  0  0  0  0  0  0  0  0
    9.1241   -0.7016    0.0000 N   0  0  0  0  0  0  0  0  0  0  0  0
    9.1322   -2.3111    0.0000 N   0  0  0  0  0  0  0  0  0  0  0  0
    6.4207   -0.6189    0.0000 N   0  0  0  0  0  0  0  0  0  0  0  0
    6.4297   -2.4208    0.0000 N   0  0  0  0  0  0  0  0  0  0  0  0
    4.9913   -1.5270    0.0000 N   0  0  0  0  0  0  0  0  0  0  0  0
   10.3801    0.5625    0.0000 C   0  0  1  0  0  0  0  0  0  0  0  0
    9.4300    0.2504    0.0000 C   0  0  1  0  0  0  0  0  0  0  0  0
   10.3768    1.5625    0.0000 C   0  0  1  0  0  0  0  0  0  0  0  0
    9.4248    1.8684    0.0000 C   0  0  1  0  0  0  0  0  0  0  0  0
    9.1127    2.8185    0.0000 C   0  0  0  0  0  0  0  0  0  0  0  0
    8.1794   -1.0111    0.0000 C   0  0  0  0  0  0  0  0  0  0  0  0
    9.7117   -1.5034    0.0000 C   0  0  0  0  0  0  0  0  0  0  0  0
    8.1844   -2.0111    0.0000 C   0  0  0  0  0  0  0  0  0  0  0  0
    7.3945   -0.3915    0.0000 C   0  0  0  0  0  0  0  0  0  0  0  0
    7.4057   -2.6385    0.0000 C   0  0  0  0  0  0  0  0  0  0  0  0
    5.9913   -1.5220    0.0000 C   0  0  0  0  0  0  0  0  0  0  0  0
    4.4957   -2.3955    0.0000 C   0  0  0  0  0  0  0  0  0  0  0  0
    3.4957   -2.4005    0.0000 C   0  0  0  0  0  0  0  0  0  0  0  0
    3.0000   -3.2690    0.0000 C   0  0  0  0  0  0  0  0  0  0  0  0
    2.0000   -3.2740    0.0000 C   0  0  0  0  0  0  0  0  0  0  0  0
   10.2851   -0.0501    0.0000 H   0  0  0  0  0  0  0  0  0  0  0  0
    8.8180    0.1514    0.0000 H   0  0  0  0  0  0  0  0  0  0  0  0
   10.9302    1.2829    0.0000 H   0  0  0  0  0  0  0  0  0  0  0  0
    8.8121    1.9634    0.0000 H   0  0  0  0  0  0  0  0  0  0  0  0
    9.7263    2.9068    0.0000 H   0  0  0  0  0  0  0  0  0  0  0  0
    9.1323    3.4382    0.0000 H   0  0  0  0  0  0  0  0  0  0  0  0
   11.7566    0.2314    0.0000 H   0  0  0  0  0  0  0  0  0  0  0  0
   11.1171    2.7693    0.0000 H   0  0  0  0  0  0  0  0  0  0  0  0
   10.3317   -1.5004    0.0000 H   0  0  0  0  0  0  0  0  0  0  0  0
    7.9403    3.6122    0.0000 H   0  0  0  0  0  0  0  0  0  0  0  0
    6.0317   -0.1361    0.0000 H   0  0  0  0  0  0  0  0  0  0  0  0
    4.3910   -3.0066    0.0000 H   0  0  0  0  0  0  0  0  0  0  0  0
    5.0793   -2.6046    0.0000 H   0  0  0  0  0  0  0  0  0  0  0  0
    4.6786   -0.9916    0.0000 H   0  0  0  0  0  0  0  0  0  0  0  0
    3.6003   -1.7894    0.0000 H   0  0  0  0  0  0  0  0  0  0  0  0
    2.9120   -2.1913    0.0000 H   0  0  0  0  0  0  0  0  0  0  0  0
    2.8954   -3.8801    0.0000 H   0  0  0  0  0  0  0  0  0  0  0  0
    3.5836   -3.4781    0.0000 H   0  0  0  0  0  0  0  0  0  0  0  0
    1.9969   -2.6540    0.0000 H   0  0  0  0  0  0  0  0  0  0  0  0
    1.3800   -3.2771    0.0000 H   0  0  0  0  0  0  0  0  0  0  0  0
    2.0031   -3.8940    0.0000 H   0  0  0  0  0  0  0  0  0  0  0  0
  1 13  1  0  0  0  0
  1 15  1  0  0  0  0
 12  2  1  1  0  0  0
  2 33  1  0  0  0  0
 14  3  1  1  0  0  0
  3 34  1  0  0  0  0
  4 16  1  0  0  0  0
  4 36  1  0  0  0  0
  5 20  2  0  0  0  0
  6 21  2  0  0  0  0
 13  7  1  6  0  0  0
  7 17  1  0  0  0  0
  7 18  1  0  0  0  0
  8 18  2  0  0  0  0
  8 19  1  0  0  0  0
  9 20  1  0  0  0  0
  9 22  1  0  0  0  0
  9 37  1  0  0  0  0
 10 21  1  0  0  0  0
 10 22  2  0  0  0  0
 11 22  1  0  0  0  0
 11 23  1  0  0  0  0
 11 40  1  0  0  0  0
 12 13  1  0  0  0  0
 12 14  1  0  0  0  0
 12 27  1  0  0  0  0
 13 28  1  0  0  0  0
 14 15  1  0  0  0  0
 14 29  1  0  0  0  0
 15 16  1  6  0  0  0
 15 30  1  0  0  0  0
 16 31  1  0  0  0  0
 16 32  1  0  0  0  0
 17 19  2  0  0  0  0
 17 20  1  0  0  0  0
 18 35  1  0  0  0  0
 19 21  1  0  0  0  0
 23 24  1  0  0  0  0
 23 38  1  0  0  0  0
 23 39  1  0  0  0  0
 24 25  1  0  0  0  0
 24 41  1  0  0  0  0
 24 42  1  0  0  0  0
 25 26  1  0  0  0  0
 25 43  1  0  0  0  0
 25 44  1  0  0  0  0
 26 45  1  0  0  0  0
 26 46  1  0  0  0  0
 26 47  1  0  0  0  0
M  END
> <PUBCHEM_COMPOUND_CID>
511018
> <PUBCHEM_COMPOUND_CANONICALIZED>
1
> <PUBCHEM_CACTVS_COMPLEXITY>
587
> <PUBCHEM_CACTVS_HBOND_ACCEPTOR>
7
> <PUBCHEM_CACTVS_HBOND_DONOR>
5
> <PUBCHEM_CACTVS_ROTATABLE_BOND>
6
> <PUBCHEM_CACTVS_SUBSKEYS>
AAADceBzuAAAAAAAAAAAAAAAAAAAAWJAAAAAAAAABAAAAACBgAAAHgAQCAAACBzhlgYHkBfMFgCoAQVxdACAgC0XEKABWIGoVECDWBpAyCAeQYhPEQLTAWD1MAIAAAAAAAAAAAAAAAAAAAAAAAAAAAAAAA==
> <PUBCHEM_IUPAC_OPENEYE_NAME>
6-(butylamino)-1-[(2R,3R,4S,5R)-3,4-dihydroxy-5-(hydroxymethyl)tetrahydrofuran-2-yl]-7H-imidazo[4,5-e][1,3]diazepine-4,8-dione
> <PUBCHEM_IUPAC_CAS_NAME>
6-(butylamino)-1-[(2R,3R,4S,5R)-3,4-dihydroxy-5-(hydroxymethyl)-2-oxolanyl]-7H-imidazo[4,5-e][1,3]diazepine-4,8-dione
> <PUBCHEM_IUPAC_NAME_MARKUP>
6-(butylamino)-1-[(2<I>R</I>,3<I>R</I>,4<I>S</I>,5<I>R</I>)-3,4-dihydroxy-5-(hydroxymethyl)oxolan-2-yl]-7<I>H</I>-imidazo[4,5-e][1,3]diazepine-4,8-dione
> <PUBCHEM_IUPAC_NAME>
6-(butylamino)-1-[(2R,3R,4S,5R)-3,4-dihydroxy-5-(hydroxymethyl)oxolan-2-yl]-7H-imidazo[4,5-e][1,3]diazepine-4,8-dione
> <PUBCHEM_IUPAC_SYSTEMATIC_NAME>
6-(butylamino)-1-[(2R,3R,4S,5R)-5-(hydroxymethyl)-3,4-bis(oxidanyl)oxolan-2-yl]-7H-imidazo[4,5-e][1,3]diazepine-4,8-dione
> <PUBCHEM_IUPAC_TRADITIONAL_NAME>
6-(butylamino)-1-[(2R,3R,4S,5R)-3,4-dihydroxy-5-methylol-tetrahydrofuran-2-yl]-7H-imidazo[4,5-e][1,3]diazepine-4,8-quinone
> <PUBCHEM_IUPAC_INCHI>
InChI=1S/C15H21N5O6/c1-2-3-4-16-15-18-12(24)8-9(13(25)19-15)20(6-17-8)14-11(23)10(22)7(5-21)26-14/h6-7,10-11,14,21-23H,2-5H2,1H3,(H2,16,18,19,24,25)/t7-,10-,11-,14-/m1/s1
> <PUBCHEM_IUPAC_INCHIKEY>
MNJITHVXJQFBTI-FRJWGUMJSA-N
> <PUBCHEM_XLOGP3>
-0.4
> <PUBCHEM_EXACT_MASS>
367.14918341
> <PUBCHEM_MOLECULAR_FORMULA>
C15H21N5O6
> <PUBCHEM_MOLECULAR_WEIGHT>
367.36
> <PUBCHEM_OPENEYE_CAN_SMILES>
CCCCNC1=NC(=O)C2=C(C(=O)N1)N(C=N2)C3C(C(C(O3)CO)O)O
> <PUBCHEM_OPENEYE_ISO_SMILES>
CCCCNC1=NC(=O)C2=C(C(=O)N1)N(C=N2)[C@H]3[C@@H]([C@@H]([C@H](O3)CO)O)O
> <PUBCHEM_CACTVS_TPSA>
158
> <PUBCHEM_MONOISOTOPIC_WEIGHT>
367.14918341
> <PUBCHEM_TOTAL_CHARGE>
0
> <PUBCHEM_HEAVY_ATOM_COUNT>
26
> <PUBCHEM_ATOM_DEF_STEREO_COUNT>
4
> <PUBCHEM_ATOM_UDEF_STEREO_COUNT>
0
> <PUBCHEM_BOND_DEF_STEREO_COUNT>
0
> <PUBCHEM_BOND_UDEF_STEREO_COUNT>
0
> <PUBCHEM_ISOTOPIC_ATOM_COUNT>
0
> <PUBCHEM_COMPONENT_COUNT>
1
> <PUBCHEM_CACTVS_TAUTO_COUNT>
-1
> <PUBCHEM_COORDINATE_TYPE>
1
5
255
> <PUBCHEM_BONDANNOTATIONS>
10  21  8
10  22  8
15  16  6
17  19  8
17  20  8
19  21  8
12  2  5
14  3  5
13  7  6
7  17  8
7  18  8
8  18  8
8  19  8
9  20  8
9  22  8
$$$$
