511014
  -OEChem-10302200282D
 38 40  0     1  0  0  0  0  0999 V2000
    6.3440    1.0575    0.0000 O   0  0  0  0  0  0  0  0  0  0  0  0
    8.6954   -0.0226    0.0000 O   0  0  0  0  0  0  0  0  0  0  0  0
    8.6883    2.1530    0.0000 O   0  0  0  0  0  0  0  0  0  0  0  0
    5.6382    3.0232    0.0000 O   0  0  0  0  0  0  0  0  0  0  0  0
    5.1165    0.5845    0.0000 O   0  0  0  0  0  0  0  0  0  0  0  0
    5.1374   -3.6122    0.0000 O   0  0  0  0  0  0  0  0  0  0  0  0
    6.6285   -0.7016    0.0000 N   0  0  0  0  0  0  0  0  0  0  0  0
    6.6365   -2.3111    0.0000 N   0  0  0  0  0  0  0  0  0  0  0  0
    3.9250   -0.6189    0.0000 N   0  0  0  0  0  0  0  0  0  0  0  0
    3.9340   -2.4208    0.0000 N   0  0  0  0  0  0  0  0  0  0  0  0
    2.4957   -1.5270    0.0000 N   0  0  0  0  0  0  0  0  0  0  0  0
    7.8844    0.5625    0.0000 C   0  0  1  0  0  0  0  0  0  0  0  0
    6.9344    0.2504    0.0000 C   0  0  1  0  0  0  0  0  0  0  0  0
    7.8812    1.5625    0.0000 C   0  0  1  0  0  0  0  0  0  0  0  0
    6.9291    1.8684    0.0000 C   0  0  1  0  0  0  0  0  0  0  0  0
    6.6170    2.8185    0.0000 C   0  0  0  0  0  0  0  0  0  0  0  0
    5.6838   -1.0111    0.0000 C   0  0  0  0  0  0  0  0  0  0  0  0
    7.2161   -1.5034    0.0000 C   0  0  0  0  0  0  0  0  0  0  0  0
    5.6888   -2.0111    0.0000 C   0  0  0  0  0  0  0  0  0  0  0  0
    4.8989   -0.3915    0.0000 C   0  0  0  0  0  0  0  0  0  0  0  0
    4.9101   -2.6385    0.0000 C   0  0  0  0  0  0  0  0  0  0  0  0
    3.4957   -1.5220    0.0000 C   0  0  0  0  0  0  0  0  0  0  0  0
    2.0000   -2.3955    0.0000 C   0  0  0  0  0  0  0  0  0  0  0  0
    8.4359    0.8458    0.0000 H   0  0  0  0  0  0  0  0  0  0  0  0
    7.3742   -0.1865    0.0000 H   0  0  0  0  0  0  0  0  0  0  0  0
    7.7822    2.1746    0.0000 H   0  0  0  0  0  0  0  0  0  0  0  0
    6.3164    1.9634    0.0000 H   0  0  0  0  0  0  0  0  0  0  0  0
    7.2307    2.9068    0.0000 H   0  0  0  0  0  0  0  0  0  0  0  0
    6.6366    3.4382    0.0000 H   0  0  0  0  0  0  0  0  0  0  0  0
    9.2609    0.2314    0.0000 H   0  0  0  0  0  0  0  0  0  0  0  0
    8.6215    2.7693    0.0000 H   0  0  0  0  0  0  0  0  0  0  0  0
    7.8361   -1.5004    0.0000 H   0  0  0  0  0  0  0  0  0  0  0  0
    5.4447    3.6122    0.0000 H   0  0  0  0  0  0  0  0  0  0  0  0
    3.5361   -0.1361    0.0000 H   0  0  0  0  0  0  0  0  0  0  0  0
    2.1830   -0.9916    0.0000 H   0  0  0  0  0  0  0  0  0  0  0  0
    1.4615   -2.0882    0.0000 H   0  0  0  0  0  0  0  0  0  0  0  0
    1.6927   -2.9340    0.0000 H   0  0  0  0  0  0  0  0  0  0  0  0
    2.5385   -2.7028    0.0000 H   0  0  0  0  0  0  0  0  0  0  0  0
  1 13  1  0  0  0  0
  1 15  1  0  0  0  0
 12  2  1  1  0  0  0
  2 30  1  0  0  0  0
 14  3  1  1  0  0  0
  3 31  1  0  0  0  0
  4 16  1  0  0  0  0
  4 33  1  0  0  0  0
  5 20  2  0  0  0  0
  6 21  2  0  0  0  0
 13  7  1  6  0  0  0
  7 17  1  0  0  0  0
  7 18  1  0  0  0  0
  8 18  2  0  0  0  0
  8 19  1  0  0  0  0
  9 20  1  0  0  0  0
  9 22  1  0  0  0  0
  9 34  1  0  0  0  0
 10 21  1  0  0  0  0
 10 22  2  0  0  0  0
 11 22  1  0  0  0  0
 11 23  1  0  0  0  0
 11 35  1  0  0  0  0
 12 13  1  0  0  0  0
 12 14  1  0  0  0  0
 12 24  1  0  0  0  0
 13 25  1  0  0  0  0
 14 15  1  0  0  0  0
 14 26  1  0  0  0  0
 15 16  1  6  0  0  0
 15 27  1  0  0  0  0
 16 28  1  0  0  0  0
 16 29  1  0  0  0  0
 17 19  2  0  0  0  0
 17 20  1  0  0  0  0
 18 32  1  0  0  0  0
 19 21  1  0  0  0  0
 23 36  1  0  0  0  0
 23 37  1  0  0  0  0
 23 38  1  0  0  0  0
M  END
> <PUBCHEM_COMPOUND_CID>
511014
> <PUBCHEM_COMPOUND_CANONICALIZED>
1
> <PUBCHEM_CACTVS_COMPLEXITY>
542
> <PUBCHEM_CACTVS_HBOND_ACCEPTOR>
7
> <PUBCHEM_CACTVS_HBOND_DONOR>
5
> <PUBCHEM_CACTVS_ROTATABLE_BOND>
3
> <PUBCHEM_CACTVS_SUBSKEYS>
AAADccBzuAAAAAAAAAAAAAAAAAAAAWJAAAAAAAAABAAAAACBgAAAHgAQCAAACBzhlgYHkBfMFgCoAQVxdACAgC0XEKABWIGoVECDWBpAyCAeQYhPAQLTAWD1MAIAAAAAAAAAAAAAAAAAAAAAAAAAAAAAAA==
> <PUBCHEM_IUPAC_OPENEYE_NAME>
1-[(2R,3R,4S,5R)-3,4-dihydroxy-5-(hydroxymethyl)tetrahydrofuran-2-yl]-6-(methylamino)-7H-imidazo[4,5-e][1,3]diazepine-4,8-dione
> <PUBCHEM_IUPAC_CAS_NAME>
1-[(2R,3R,4S,5R)-3,4-dihydroxy-5-(hydroxymethyl)-2-oxolanyl]-6-(methylamino)-7H-imidazo[4,5-e][1,3]diazepine-4,8-dione
> <PUBCHEM_IUPAC_NAME_MARKUP>
1-[(2<I>R</I>,3<I>R</I>,4<I>S</I>,5<I>R</I>)-3,4-dihydroxy-5-(hydroxymethyl)oxolan-2-yl]-6-(methylamino)-7<I>H</I>-imidazo[4,5-e][1,3]diazepine-4,8-dione
> <PUBCHEM_IUPAC_NAME>
1-[(2R,3R,4S,5R)-3,4-dihydroxy-5-(hydroxymethyl)oxolan-2-yl]-6-(methylamino)-7H-imidazo[4,5-e][1,3]diazepine-4,8-dione
> <PUBCHEM_IUPAC_SYSTEMATIC_NAME>
1-[(2R,3R,4S,5R)-5-(hydroxymethyl)-3,4-bis(oxidanyl)oxolan-2-yl]-6-(methylamino)-7H-imidazo[4,5-e][1,3]diazepine-4,8-dione
> <PUBCHEM_IUPAC_TRADITIONAL_NAME>
1-[(2R,3R,4S,5R)-3,4-dihydroxy-5-methylol-tetrahydrofuran-2-yl]-6-(methylamino)-7H-imidazo[4,5-e][1,3]diazepine-4,8-quinone
> <PUBCHEM_IUPAC_INCHI>
InChI=1S/C12H15N5O6/c1-13-12-15-9(21)5-6(10(22)16-12)17(3-14-5)11-8(20)7(19)4(2-18)23-11/h3-4,7-8,11,18-20H,2H2,1H3,(H2,13,15,16,21,22)/t4-,7-,8-,11-/m1/s1
> <PUBCHEM_IUPAC_INCHIKEY>
IFAGPALHNOZTOH-TZQXKBMNSA-N
> <PUBCHEM_XLOGP3>
-1.6
> <PUBCHEM_EXACT_MASS>
325.10223322
> <PUBCHEM_MOLECULAR_FORMULA>
C12H15N5O6
> <PUBCHEM_MOLECULAR_WEIGHT>
325.28
> <PUBCHEM_OPENEYE_CAN_SMILES>
CNC1=NC(=O)C2=C(C(=O)N1)N(C=N2)C3C(C(C(O3)CO)O)O
> <PUBCHEM_OPENEYE_ISO_SMILES>
CNC1=NC(=O)C2=C(C(=O)N1)N(C=N2)[C@H]3[C@@H]([C@@H]([C@H](O3)CO)O)O
> <PUBCHEM_CACTVS_TPSA>
158
> <PUBCHEM_MONOISOTOPIC_WEIGHT>
325.10223322
> <PUBCHEM_TOTAL_CHARGE>
0
> <PUBCHEM_HEAVY_ATOM_COUNT>
23
> <PUBCHEM_ATOM_DEF_STEREO_COUNT>
4
> <PUBCHEM_ATOM_UDEF_STEREO_COUNT>
0
> <PUBCHEM_BOND_DEF_STEREO_COUNT>
0
> <PUBCHEM_BOND_UDEF_STEREO_COUNT>
0
> <PUBCHEM_ISOTOPIC_ATOM_COUNT>
0
> <PUBCHEM_COMPONENT_COUNT>
1
> <PUBCHEM_CACTVS_TAUTO_COUNT>
-1
> <PUBCHEM_COORDINATE_TYPE>
1
5
255
> <PUBCHEM_BONDANNOTATIONS>
10  21  8
10  22  8
15  16  6
17  19  8
17  20  8
19  21  8
12  2  5
14  3  5
13  7  6
7  17  8
7  18  8
8  18  8
8  19  8
9  20  8
9  22  8
$$$$
