511022
  -OEChem-10302200282D
 59 61  0     1  0  0  0  0  0999 V2000
   11.8310    1.7619    0.0000 O   0  0  0  0  0  0  0  0  0  0  0  0
   14.1823    0.6817    0.0000 O   0  0  0  0  0  0  0  0  0  0  0  0
   14.1753    2.8573    0.0000 O   0  0  0  0  0  0  0  0  0  0  0  0
   11.1252    3.7276    0.0000 O   0  0  0  0  0  0  0  0  0  0  0  0
   10.6035    1.2889    0.0000 O   0  0  0  0  0  0  0  0  0  0  0  0
   10.6244   -2.9079    0.0000 O   0  0  0  0  0  0  0  0  0  0  0  0
   12.1154    0.0027    0.0000 N   0  0  0  0  0  0  0  0  0  0  0  0
   12.1235   -1.6067    0.0000 N   0  0  0  0  0  0  0  0  0  0  0  0
    9.4120    0.0855    0.0000 N   0  0  0  0  0  0  0  0  0  0  0  0
    7.9826   -0.8226    0.0000 N   0  0  0  0  0  0  0  0  0  0  0  0
    9.4210   -1.7164    0.0000 N   0  0  0  0  0  0  0  0  0  0  0  0
   13.3714    1.2669    0.0000 C   0  0  1  0  0  0  0  0  0  0  0  0
   12.4214    0.9548    0.0000 C   0  0  1  0  0  0  0  0  0  0  0  0
   13.3682    2.2669    0.0000 C   0  0  1  0  0  0  0  0  0  0  0  0
   12.4161    2.5728    0.0000 C   0  0  1  0  0  0  0  0  0  0  0  0
   12.1040    3.5228    0.0000 C   0  0  0  0  0  0  0  0  0  0  0  0
   11.1708   -0.3067    0.0000 C   0  0  0  0  0  0  0  0  0  0  0  0
   12.7031   -0.7991    0.0000 C   0  0  0  0  0  0  0  0  0  0  0  0
   11.1757   -1.3067    0.0000 C   0  0  0  0  0  0  0  0  0  0  0  0
   10.3858    0.3129    0.0000 C   0  0  0  0  0  0  0  0  0  0  0  0
    5.9913   -2.5646    0.0000 C   0  0  0  0  0  0  0  0  0  0  0  0
    4.9913   -2.5696    0.0000 C   0  0  0  0  0  0  0  0  0  0  0  0
    6.4870   -1.6961    0.0000 C   0  0  0  0  0  0  0  0  0  0  0  0
    4.4957   -3.4381    0.0000 C   0  0  0  0  0  0  0  0  0  0  0  0
   10.3970   -1.9341    0.0000 C   0  0  0  0  0  0  0  0  0  0  0  0
    7.4870   -1.6911    0.0000 C   0  0  0  0  0  0  0  0  0  0  0  0
    3.4957   -3.4431    0.0000 C   0  0  0  0  0  0  0  0  0  0  0  0
    8.9826   -0.8176    0.0000 C   0  0  0  0  0  0  0  0  0  0  0  0
    3.0000   -4.3116    0.0000 C   0  0  0  0  0  0  0  0  0  0  0  0
    2.0000   -4.3166    0.0000 C   0  0  0  0  0  0  0  0  0  0  0  0
   13.2764    0.6542    0.0000 H   0  0  0  0  0  0  0  0  0  0  0  0
   12.8612    0.5178    0.0000 H   0  0  0  0  0  0  0  0  0  0  0  0
   13.9215    1.9872    0.0000 H   0  0  0  0  0  0  0  0  0  0  0  0
   11.8034    2.6678    0.0000 H   0  0  0  0  0  0  0  0  0  0  0  0
   12.7177    3.6111    0.0000 H   0  0  0  0  0  0  0  0  0  0  0  0
   12.1236    4.1425    0.0000 H   0  0  0  0  0  0  0  0  0  0  0  0
   14.7479    0.9358    0.0000 H   0  0  0  0  0  0  0  0  0  0  0  0
   14.1084    3.4737    0.0000 H   0  0  0  0  0  0  0  0  0  0  0  0
   13.3231   -0.7960    0.0000 H   0  0  0  0  0  0  0  0  0  0  0  0
   10.9317    4.3166    0.0000 H   0  0  0  0  0  0  0  0  0  0  0  0
    5.8867   -3.1757    0.0000 H   0  0  0  0  0  0  0  0  0  0  0  0
    6.5750   -2.7738    0.0000 H   0  0  0  0  0  0  0  0  0  0  0  0
    5.0959   -1.9585    0.0000 H   0  0  0  0  0  0  0  0  0  0  0  0
    4.4077   -2.3605    0.0000 H   0  0  0  0  0  0  0  0  0  0  0  0
    6.5916   -1.0850    0.0000 H   0  0  0  0  0  0  0  0  0  0  0  0
    5.9033   -1.4870    0.0000 H   0  0  0  0  0  0  0  0  0  0  0  0
    4.3910   -4.0492    0.0000 H   0  0  0  0  0  0  0  0  0  0  0  0
    5.0793   -3.6473    0.0000 H   0  0  0  0  0  0  0  0  0  0  0  0
    9.0230    0.5683    0.0000 H   0  0  0  0  0  0  0  0  0  0  0  0
    7.3824   -2.3022    0.0000 H   0  0  0  0  0  0  0  0  0  0  0  0
    8.0706   -1.9003    0.0000 H   0  0  0  0  0  0  0  0  0  0  0  0
    3.6003   -2.8320    0.0000 H   0  0  0  0  0  0  0  0  0  0  0  0
    2.9120   -3.2340    0.0000 H   0  0  0  0  0  0  0  0  0  0  0  0
    7.6700   -0.2872    0.0000 H   0  0  0  0  0  0  0  0  0  0  0  0
    2.8954   -4.9227    0.0000 H   0  0  0  0  0  0  0  0  0  0  0  0
    3.5836   -4.5208    0.0000 H   0  0  0  0  0  0  0  0  0  0  0  0
    1.9969   -3.6966    0.0000 H   0  0  0  0  0  0  0  0  0  0  0  0
    1.3800   -4.3197    0.0000 H   0  0  0  0  0  0  0  0  0  0  0  0
    2.0031   -4.9366    0.0000 H   0  0  0  0  0  0  0  0  0  0  0  0
  1 13  1  0  0  0  0
  1 15  1  0  0  0  0
 12  2  1  1  0  0  0
  2 37  1  0  0  0  0
 14  3  1  1  0  0  0
  3 38  1  0  0  0  0
  4 16  1  0  0  0  0
  4 40  1  0  0  0  0
  5 20  2  0  0  0  0
  6 25  2  0  0  0  0
 13  7  1  6  0  0  0
  7 17  1  0  0  0  0
  7 18  1  0  0  0  0
  8 18  2  0  0  0  0
  8 19  1  0  0  0  0
  9 20  1  0  0  0  0
  9 28  1  0  0  0  0
  9 49  1  0  0  0  0
 10 26  1  0  0  0  0
 10 28  1  0  0  0  0
 10 54  1  0  0  0  0
 11 25  1  0  0  0  0
 11 28  2  0  0  0  0
 12 13  1  0  0  0  0
 12 14  1  0  0  0  0
 12 31  1  0  0  0  0
 13 32  1  0  0  0  0
 14 15  1  0  0  0  0
 14 33  1  0  0  0  0
 15 16  1  6  0  0  0
 15 34  1  0  0  0  0
 16 35  1  0  0  0  0
 16 36  1  0  0  0  0
 17 19  2  0  0  0  0
 17 20  1  0  0  0  0
 18 39  1  0  0  0  0
 19 25  1  0  0  0  0
 21 22  1  0  0  0  0
 21 23  1  0  0  0  0
 21 41  1  0  0  0  0
 21 42  1  0  0  0  0
 22 24  1  0  0  0  0
 22 43  1  0  0  0  0
 22 44  1  0  0  0  0
 23 26  1  0  0  0  0
 23 45  1  0  0  0  0
 23 46  1  0  0  0  0
 24 27  1  0  0  0  0
 24 47  1  0  0  0  0
 24 48  1  0  0  0  0
 26 50  1  0  0  0  0
 26 51  1  0  0  0  0
 27 29  1  0  0  0  0
 27 52  1  0  0  0  0
 27 53  1  0  0  0  0
 29 30  1  0  0  0  0
 29 55  1  0  0  0  0
 29 56  1  0  0  0  0
 30 57  1  0  0  0  0
 30 58  1  0  0  0  0
 30 59  1  0  0  0  0
M  END
> <PUBCHEM_COMPOUND_CID>
511022
> <PUBCHEM_COMPOUND_CANONICALIZED>
1
> <PUBCHEM_CACTVS_COMPLEXITY>
647
> <PUBCHEM_CACTVS_HBOND_ACCEPTOR>
7
> <PUBCHEM_CACTVS_HBOND_DONOR>
5
> <PUBCHEM_CACTVS_ROTATABLE_BOND>
10
> <PUBCHEM_CACTVS_SUBSKEYS>
AAADceB7uAAAAAAAAAAAAAAAAAAAAWJAAAAAAAAABAAAAACBgAAAHgAQCAAACBzhlgYHkBfMFgCoAQVxdACAgC0XEKABWIGoVECDWBpAyCAeQYhPEQLTAWH1sIIAAAAAAAAAAAAAAAAAAAAAAAAAAAAAAA==
> <PUBCHEM_IUPAC_OPENEYE_NAME>
1-[(2R,3R,4S,5R)-3,4-dihydroxy-5-(hydroxymethyl)tetrahydrofuran-2-yl]-6-(octylamino)-7H-imidazo[4,5-e][1,3]diazepine-4,8-dione
> <PUBCHEM_IUPAC_CAS_NAME>
1-[(2R,3R,4S,5R)-3,4-dihydroxy-5-(hydroxymethyl)-2-oxolanyl]-6-(octylamino)-7H-imidazo[4,5-e][1,3]diazepine-4,8-dione
> <PUBCHEM_IUPAC_NAME_MARKUP>
1-[(2<I>R</I>,3<I>R</I>,4<I>S</I>,5<I>R</I>)-3,4-dihydroxy-5-(hydroxymethyl)oxolan-2-yl]-6-(octylamino)-7<I>H</I>-imidazo[4,5-e][1,3]diazepine-4,8-dione
> <PUBCHEM_IUPAC_NAME>
1-[(2R,3R,4S,5R)-3,4-dihydroxy-5-(hydroxymethyl)oxolan-2-yl]-6-(octylamino)-7H-imidazo[4,5-e][1,3]diazepine-4,8-dione
> <PUBCHEM_IUPAC_SYSTEMATIC_NAME>
1-[(2R,3R,4S,5R)-5-(hydroxymethyl)-3,4-bis(oxidanyl)oxolan-2-yl]-6-(octylamino)-7H-imidazo[4,5-e][1,3]diazepine-4,8-dione
> <PUBCHEM_IUPAC_TRADITIONAL_NAME>
1-[(2R,3R,4S,5R)-3,4-dihydroxy-5-methylol-tetrahydrofuran-2-yl]-6-(octylamino)-7H-imidazo[4,5-e][1,3]diazepine-4,8-quinone
> <PUBCHEM_IUPAC_INCHI>
InChI=1S/C19H29N5O6/c1-2-3-4-5-6-7-8-20-19-22-16(28)12-13(17(29)23-19)24(10-21-12)18-15(27)14(26)11(9-25)30-18/h10-11,14-15,18,25-27H,2-9H2,1H3,(H2,20,22,23,28,29)/t11-,14-,15-,18-/m1/s1
> <PUBCHEM_IUPAC_INCHIKEY>
VEUAADCZTOMLQO-XKLVTHTNSA-N
> <PUBCHEM_XLOGP3>
1.8
> <PUBCHEM_EXACT_MASS>
423.21178366
> <PUBCHEM_MOLECULAR_FORMULA>
C19H29N5O6
> <PUBCHEM_MOLECULAR_WEIGHT>
423.5
> <PUBCHEM_OPENEYE_CAN_SMILES>
CCCCCCCCNC1=NC(=O)C2=C(C(=O)N1)N(C=N2)C3C(C(C(O3)CO)O)O
> <PUBCHEM_OPENEYE_ISO_SMILES>
CCCCCCCCNC1=NC(=O)C2=C(C(=O)N1)N(C=N2)[C@H]3[C@@H]([C@@H]([C@H](O3)CO)O)O
> <PUBCHEM_CACTVS_TPSA>
158
> <PUBCHEM_MONOISOTOPIC_WEIGHT>
423.21178366
> <PUBCHEM_TOTAL_CHARGE>
0
> <PUBCHEM_HEAVY_ATOM_COUNT>
30
> <PUBCHEM_ATOM_DEF_STEREO_COUNT>
4
> <PUBCHEM_ATOM_UDEF_STEREO_COUNT>
0
> <PUBCHEM_BOND_DEF_STEREO_COUNT>
0
> <PUBCHEM_BOND_UDEF_STEREO_COUNT>
0
> <PUBCHEM_ISOTOPIC_ATOM_COUNT>
0
> <PUBCHEM_COMPONENT_COUNT>
1
> <PUBCHEM_CACTVS_TAUTO_COUNT>
-1
> <PUBCHEM_COORDINATE_TYPE>
1
5
255
> <PUBCHEM_BONDANNOTATIONS>
11  25  8
11  28  8
15  16  6
17  19  8
17  20  8
19  25  8
12  2  5
14  3  5
13  7  6
7  17  8
7  18  8
8  18  8
8  19  8
9  20  8
9  28  8
$$$$
