511019
  -OEChem-10302200282D
 50 52  0     1  0  0  0  0  0999 V2000
    9.3353    1.3226    0.0000 O   0  0  0  0  0  0  0  0  0  0  0  0
   11.6867    0.2425    0.0000 O   0  0  0  0  0  0  0  0  0  0  0  0
   11.6796    2.4181    0.0000 O   0  0  0  0  0  0  0  0  0  0  0  0
    8.6295    3.2883    0.0000 O   0  0  0  0  0  0  0  0  0  0  0  0
    8.1078    0.8496    0.0000 O   0  0  0  0  0  0  0  0  0  0  0  0
    8.1288   -3.3471    0.0000 O   0  0  0  0  0  0  0  0  0  0  0  0
    9.6198   -0.4365    0.0000 N   0  0  0  0  0  0  0  0  0  0  0  0
    9.6278   -2.0460    0.0000 N   0  0  0  0  0  0  0  0  0  0  0  0
    6.9164   -0.3538    0.0000 N   0  0  0  0  0  0  0  0  0  0  0  0
    5.4870   -1.2619    0.0000 N   0  0  0  0  0  0  0  0  0  0  0  0
    6.9254   -2.1557    0.0000 N   0  0  0  0  0  0  0  0  0  0  0  0
   10.8758    0.8277    0.0000 C   0  0  1  0  0  0  0  0  0  0  0  0
    9.9257    0.5155    0.0000 C   0  0  1  0  0  0  0  0  0  0  0  0
   10.8725    1.8276    0.0000 C   0  0  1  0  0  0  0  0  0  0  0  0
    9.9204    2.1336    0.0000 C   0  0  1  0  0  0  0  0  0  0  0  0
    9.6083    3.0836    0.0000 C   0  0  0  0  0  0  0  0  0  0  0  0
    8.6751   -0.7460    0.0000 C   0  0  0  0  0  0  0  0  0  0  0  0
   10.2074   -1.2383    0.0000 C   0  0  0  0  0  0  0  0  0  0  0  0
    8.6801   -1.7460    0.0000 C   0  0  0  0  0  0  0  0  0  0  0  0
    7.8902   -0.1264    0.0000 C   0  0  0  0  0  0  0  0  0  0  0  0
    7.9014   -2.3733    0.0000 C   0  0  0  0  0  0  0  0  0  0  0  0
    6.4870   -1.2569    0.0000 C   0  0  0  0  0  0  0  0  0  0  0  0
    3.9913   -2.1354    0.0000 C   0  0  0  0  0  0  0  0  0  0  0  0
    4.9913   -2.1304    0.0000 C   0  0  0  0  0  0  0  0  0  0  0  0
    3.4957   -3.0039    0.0000 C   0  0  0  0  0  0  0  0  0  0  0  0
    2.4957   -3.0089    0.0000 C   0  0  0  0  0  0  0  0  0  0  0  0
    2.0000   -3.8774    0.0000 C   0  0  0  0  0  0  0  0  0  0  0  0
   11.4273    1.1109    0.0000 H   0  0  0  0  0  0  0  0  0  0  0  0
   10.3656    0.0786    0.0000 H   0  0  0  0  0  0  0  0  0  0  0  0
   11.4258    1.5480    0.0000 H   0  0  0  0  0  0  0  0  0  0  0  0
    9.3078    2.2286    0.0000 H   0  0  0  0  0  0  0  0  0  0  0  0
   10.2220    3.1719    0.0000 H   0  0  0  0  0  0  0  0  0  0  0  0
    9.6280    3.7033    0.0000 H   0  0  0  0  0  0  0  0  0  0  0  0
   12.2523    0.4965    0.0000 H   0  0  0  0  0  0  0  0  0  0  0  0
   11.6128    3.0344    0.0000 H   0  0  0  0  0  0  0  0  0  0  0  0
   10.8274   -1.2352    0.0000 H   0  0  0  0  0  0  0  0  0  0  0  0
    8.4360    3.8774    0.0000 H   0  0  0  0  0  0  0  0  0  0  0  0
    6.5274    0.1290    0.0000 H   0  0  0  0  0  0  0  0  0  0  0  0
    4.0960   -1.5243    0.0000 H   0  0  0  0  0  0  0  0  0  0  0  0
    3.4077   -1.9262    0.0000 H   0  0  0  0  0  0  0  0  0  0  0  0
    4.8867   -2.7415    0.0000 H   0  0  0  0  0  0  0  0  0  0  0  0
    5.5750   -2.3395    0.0000 H   0  0  0  0  0  0  0  0  0  0  0  0
    3.3910   -3.6150    0.0000 H   0  0  0  0  0  0  0  0  0  0  0  0
    4.0793   -3.2130    0.0000 H   0  0  0  0  0  0  0  0  0  0  0  0
    5.1743   -0.7265    0.0000 H   0  0  0  0  0  0  0  0  0  0  0  0
    2.6003   -2.3978    0.0000 H   0  0  0  0  0  0  0  0  0  0  0  0
    1.9120   -2.7997    0.0000 H   0  0  0  0  0  0  0  0  0  0  0  0
    1.4615   -3.5700    0.0000 H   0  0  0  0  0  0  0  0  0  0  0  0
    1.6927   -4.4158    0.0000 H   0  0  0  0  0  0  0  0  0  0  0  0
    2.5385   -4.1847    0.0000 H   0  0  0  0  0  0  0  0  0  0  0  0
  1 13  1  0  0  0  0
  1 15  1  0  0  0  0
 12  2  1  1  0  0  0
  2 34  1  0  0  0  0
 14  3  1  1  0  0  0
  3 35  1  0  0  0  0
  4 16  1  0  0  0  0
  4 37  1  0  0  0  0
  5 20  2  0  0  0  0
  6 21  2  0  0  0  0
 13  7  1  6  0  0  0
  7 17  1  0  0  0  0
  7 18  1  0  0  0  0
  8 18  2  0  0  0  0
  8 19  1  0  0  0  0
  9 20  1  0  0  0  0
  9 22  1  0  0  0  0
  9 38  1  0  0  0  0
 10 22  1  0  0  0  0
 10 24  1  0  0  0  0
 10 45  1  0  0  0  0
 11 21  1  0  0  0  0
 11 22  2  0  0  0  0
 12 13  1  0  0  0  0
 12 14  1  0  0  0  0
 12 28  1  0  0  0  0
 13 29  1  0  0  0  0
 14 15  1  0  0  0  0
 14 30  1  0  0  0  0
 15 16  1  6  0  0  0
 15 31  1  0  0  0  0
 16 32  1  0  0  0  0
 16 33  1  0  0  0  0
 17 19  2  0  0  0  0
 17 20  1  0  0  0  0
 18 36  1  0  0  0  0
 19 21  1  0  0  0  0
 23 24  1  0  0  0  0
 23 25  1  0  0  0  0
 23 39  1  0  0  0  0
 23 40  1  0  0  0  0
 24 41  1  0  0  0  0
 24 42  1  0  0  0  0
 25 26  1  0  0  0  0
 25 43  1  0  0  0  0
 25 44  1  0  0  0  0
 26 27  1  0  0  0  0
 26 46  1  0  0  0  0
 26 47  1  0  0  0  0
 27 48  1  0  0  0  0
 27 49  1  0  0  0  0
 27 50  1  0  0  0  0
M  END
> <PUBCHEM_COMPOUND_CID>
511019
> <PUBCHEM_COMPOUND_CANONICALIZED>
1
> <PUBCHEM_CACTVS_COMPLEXITY>
602
> <PUBCHEM_CACTVS_HBOND_ACCEPTOR>
7
> <PUBCHEM_CACTVS_HBOND_DONOR>
5
> <PUBCHEM_CACTVS_ROTATABLE_BOND>
7
> <PUBCHEM_CACTVS_SUBSKEYS>
AAADceB7uAAAAAAAAAAAAAAAAAAAAWJAAAAAAAAABAAAAACBgAAAHgAQCAAACBzhlgYHkBfMFgCoAQVxdACAgC0XEKABWIGoVECDWBpAyCAeQYhPEQLTAWD1MAIAAAAAAAAAAAAAAAAAAAAAAAAAAAAAAA==
> <PUBCHEM_IUPAC_OPENEYE_NAME>
1-[(2R,3R,4S,5R)-3,4-dihydroxy-5-(hydroxymethyl)tetrahydrofuran-2-yl]-6-(pentylamino)-7H-imidazo[4,5-e][1,3]diazepine-4,8-dione
> <PUBCHEM_IUPAC_CAS_NAME>
1-[(2R,3R,4S,5R)-3,4-dihydroxy-5-(hydroxymethyl)-2-oxolanyl]-6-(pentylamino)-7H-imidazo[4,5-e][1,3]diazepine-4,8-dione
> <PUBCHEM_IUPAC_NAME_MARKUP>
1-[(2<I>R</I>,3<I>R</I>,4<I>S</I>,5<I>R</I>)-3,4-dihydroxy-5-(hydroxymethyl)oxolan-2-yl]-6-(pentylamino)-7<I>H</I>-imidazo[4,5-e][1,3]diazepine-4,8-dione
> <PUBCHEM_IUPAC_NAME>
1-[(2R,3R,4S,5R)-3,4-dihydroxy-5-(hydroxymethyl)oxolan-2-yl]-6-(pentylamino)-7H-imidazo[4,5-e][1,3]diazepine-4,8-dione
> <PUBCHEM_IUPAC_SYSTEMATIC_NAME>
1-[(2R,3R,4S,5R)-5-(hydroxymethyl)-3,4-bis(oxidanyl)oxolan-2-yl]-6-(pentylamino)-7H-imidazo[4,5-e][1,3]diazepine-4,8-dione
> <PUBCHEM_IUPAC_TRADITIONAL_NAME>
6-(amylamino)-1-[(2R,3R,4S,5R)-3,4-dihydroxy-5-methylol-tetrahydrofuran-2-yl]-7H-imidazo[4,5-e][1,3]diazepine-4,8-quinone
> <PUBCHEM_IUPAC_INCHI>
InChI=1S/C16H23N5O6/c1-2-3-4-5-17-16-19-13(25)9-10(14(26)20-16)21(7-18-9)15-12(24)11(23)8(6-22)27-15/h7-8,11-12,15,22-24H,2-6H2,1H3,(H2,17,19,20,25,26)/t8-,11-,12-,15-/m1/s1
> <PUBCHEM_IUPAC_INCHIKEY>
OCCMUCCPSSFDOA-PMXXHBEXSA-N
> <PUBCHEM_XLOGP3>
0.2
> <PUBCHEM_EXACT_MASS>
381.16483347
> <PUBCHEM_MOLECULAR_FORMULA>
C16H23N5O6
> <PUBCHEM_MOLECULAR_WEIGHT>
381.38
> <PUBCHEM_OPENEYE_CAN_SMILES>
CCCCCNC1=NC(=O)C2=C(C(=O)N1)N(C=N2)C3C(C(C(O3)CO)O)O
> <PUBCHEM_OPENEYE_ISO_SMILES>
CCCCCNC1=NC(=O)C2=C(C(=O)N1)N(C=N2)[C@H]3[C@@H]([C@@H]([C@H](O3)CO)O)O
> <PUBCHEM_CACTVS_TPSA>
158
> <PUBCHEM_MONOISOTOPIC_WEIGHT>
381.16483347
> <PUBCHEM_TOTAL_CHARGE>
0
> <PUBCHEM_HEAVY_ATOM_COUNT>
27
> <PUBCHEM_ATOM_DEF_STEREO_COUNT>
4
> <PUBCHEM_ATOM_UDEF_STEREO_COUNT>
0
> <PUBCHEM_BOND_DEF_STEREO_COUNT>
0
> <PUBCHEM_BOND_UDEF_STEREO_COUNT>
0
> <PUBCHEM_ISOTOPIC_ATOM_COUNT>
0
> <PUBCHEM_COMPONENT_COUNT>
1
> <PUBCHEM_CACTVS_TAUTO_COUNT>
-1
> <PUBCHEM_COORDINATE_TYPE>
1
5
255
> <PUBCHEM_BONDANNOTATIONS>
11  21  8
11  22  8
15  16  6
17  19  8
17  20  8
19  21  8
12  2  5
14  3  5
13  7  6
7  17  8
7  18  8
8  18  8
8  19  8
9  20  8
9  22  8
$$$$
