511024
  -OEChem-10302200282D
 71 73  0     1  0  0  0  0  0999 V2000
   14.8223    2.6354    0.0000 O   0  0  0  0  0  0  0  0  0  0  0  0
   17.1737    1.5552    0.0000 O   0  0  0  0  0  0  0  0  0  0  0  0
   17.1666    3.7308    0.0000 O   0  0  0  0  0  0  0  0  0  0  0  0
   14.1165    4.6011    0.0000 O   0  0  0  0  0  0  0  0  0  0  0  0
   13.5948    2.1624    0.0000 O   0  0  0  0  0  0  0  0  0  0  0  0
   13.6157   -2.0344    0.0000 O   0  0  0  0  0  0  0  0  0  0  0  0
   15.1068    0.8762    0.0000 N   0  0  0  0  0  0  0  0  0  0  0  0
   15.1148   -0.7332    0.0000 N   0  0  0  0  0  0  0  0  0  0  0  0
   12.4033    0.9590    0.0000 N   0  0  0  0  0  0  0  0  0  0  0  0
   10.9740    0.0509    0.0000 N   0  0  0  0  0  0  0  0  0  0  0  0
   12.4123   -0.8429    0.0000 N   0  0  0  0  0  0  0  0  0  0  0  0
   16.3627    2.1404    0.0000 C   0  0  1  0  0  0  0  0  0  0  0  0
   15.4127    1.8283    0.0000 C   0  0  1  0  0  0  0  0  0  0  0  0
   16.3595    3.1404    0.0000 C   0  0  1  0  0  0  0  0  0  0  0  0
   15.4074    3.4463    0.0000 C   0  0  1  0  0  0  0  0  0  0  0  0
   15.0953    4.3964    0.0000 C   0  0  0  0  0  0  0  0  0  0  0  0
   14.1621    0.5668    0.0000 C   0  0  0  0  0  0  0  0  0  0  0  0
   15.6944    0.0744    0.0000 C   0  0  0  0  0  0  0  0  0  0  0  0
   14.1671   -0.4332    0.0000 C   0  0  0  0  0  0  0  0  0  0  0  0
    6.4870   -2.5696    0.0000 C   0  0  0  0  0  0  0  0  0  0  0  0
    7.4870   -2.5646    0.0000 C   0  0  0  0  0  0  0  0  0  0  0  0
   13.3772    1.1864    0.0000 C   0  0  0  0  0  0  0  0  0  0  0  0
    5.9913   -3.4381    0.0000 C   0  0  0  0  0  0  0  0  0  0  0  0
    7.9826   -1.6961    0.0000 C   0  0  0  0  0  0  0  0  0  0  0  0
    8.9826   -1.6911    0.0000 C   0  0  0  0  0  0  0  0  0  0  0  0
    4.9913   -3.4431    0.0000 C   0  0  0  0  0  0  0  0  0  0  0  0
    9.4783   -0.8226    0.0000 C   0  0  0  0  0  0  0  0  0  0  0  0
    4.4957   -4.3116    0.0000 C   0  0  0  0  0  0  0  0  0  0  0  0
   13.3884   -1.0606    0.0000 C   0  0  0  0  0  0  0  0  0  0  0  0
   10.4783   -0.8176    0.0000 C   0  0  0  0  0  0  0  0  0  0  0  0
    3.4957   -4.3166    0.0000 C   0  0  0  0  0  0  0  0  0  0  0  0
   11.9740    0.0559    0.0000 C   0  0  0  0  0  0  0  0  0  0  0  0
    3.0000   -5.1851    0.0000 C   0  0  0  0  0  0  0  0  0  0  0  0
    2.0000   -5.1901    0.0000 C   0  0  0  0  0  0  0  0  0  0  0  0
   16.2677    1.5277    0.0000 H   0  0  0  0  0  0  0  0  0  0  0  0
   15.8525    1.3913    0.0000 H   0  0  0  0  0  0  0  0  0  0  0  0
   16.9128    2.8607    0.0000 H   0  0  0  0  0  0  0  0  0  0  0  0
   14.7947    3.5413    0.0000 H   0  0  0  0  0  0  0  0  0  0  0  0
   15.7090    4.4846    0.0000 H   0  0  0  0  0  0  0  0  0  0  0  0
   15.1149    5.0160    0.0000 H   0  0  0  0  0  0  0  0  0  0  0  0
   17.7392    1.8093    0.0000 H   0  0  0  0  0  0  0  0  0  0  0  0
   17.0998    4.3472    0.0000 H   0  0  0  0  0  0  0  0  0  0  0  0
   16.3144    0.0775    0.0000 H   0  0  0  0  0  0  0  0  0  0  0  0
    6.5916   -1.9585    0.0000 H   0  0  0  0  0  0  0  0  0  0  0  0
    5.9033   -2.3605    0.0000 H   0  0  0  0  0  0  0  0  0  0  0  0
    7.3824   -3.1757    0.0000 H   0  0  0  0  0  0  0  0  0  0  0  0
    8.0706   -2.7738    0.0000 H   0  0  0  0  0  0  0  0  0  0  0  0
    5.8867   -4.0492    0.0000 H   0  0  0  0  0  0  0  0  0  0  0  0
    6.5750   -3.6473    0.0000 H   0  0  0  0  0  0  0  0  0  0  0  0
    8.0873   -1.0850    0.0000 H   0  0  0  0  0  0  0  0  0  0  0  0
    7.3990   -1.4870    0.0000 H   0  0  0  0  0  0  0  0  0  0  0  0
    8.8780   -2.3022    0.0000 H   0  0  0  0  0  0  0  0  0  0  0  0
    9.5663   -1.9003    0.0000 H   0  0  0  0  0  0  0  0  0  0  0  0
    5.0959   -2.8320    0.0000 H   0  0  0  0  0  0  0  0  0  0  0  0
    4.4077   -3.2340    0.0000 H   0  0  0  0  0  0  0  0  0  0  0  0
   13.9230    5.1901    0.0000 H   0  0  0  0  0  0  0  0  0  0  0  0
    9.5829   -0.2115    0.0000 H   0  0  0  0  0  0  0  0  0  0  0  0
    8.8947   -0.6135    0.0000 H   0  0  0  0  0  0  0  0  0  0  0  0
    4.3910   -4.9227    0.0000 H   0  0  0  0  0  0  0  0  0  0  0  0
    5.0793   -4.5208    0.0000 H   0  0  0  0  0  0  0  0  0  0  0  0
   10.3737   -1.4288    0.0000 H   0  0  0  0  0  0  0  0  0  0  0  0
   11.0620   -1.0268    0.0000 H   0  0  0  0  0  0  0  0  0  0  0  0
   12.0144    1.4418    0.0000 H   0  0  0  0  0  0  0  0  0  0  0  0
    3.6003   -3.7055    0.0000 H   0  0  0  0  0  0  0  0  0  0  0  0
    2.9120   -4.1075    0.0000 H   0  0  0  0  0  0  0  0  0  0  0  0
   10.6613    0.5863    0.0000 H   0  0  0  0  0  0  0  0  0  0  0  0
    2.8954   -5.7962    0.0000 H   0  0  0  0  0  0  0  0  0  0  0  0
    3.5836   -5.3943    0.0000 H   0  0  0  0  0  0  0  0  0  0  0  0
    1.9969   -4.5701    0.0000 H   0  0  0  0  0  0  0  0  0  0  0  0
    1.3800   -5.1932    0.0000 H   0  0  0  0  0  0  0  0  0  0  0  0
    2.0031   -5.8101    0.0000 H   0  0  0  0  0  0  0  0  0  0  0  0
  1 13  1  0  0  0  0
  1 15  1  0  0  0  0
 12  2  1  1  0  0  0
  2 41  1  0  0  0  0
 14  3  1  1  0  0  0
  3 42  1  0  0  0  0
  4 16  1  0  0  0  0
  4 56  1  0  0  0  0
  5 22  2  0  0  0  0
  6 29  2  0  0  0  0
 13  7  1  6  0  0  0
  7 17  1  0  0  0  0
  7 18  1  0  0  0  0
  8 18  2  0  0  0  0
  8 19  1  0  0  0  0
  9 22  1  0  0  0  0
  9 32  1  0  0  0  0
  9 63  1  0  0  0  0
 10 30  1  0  0  0  0
 10 32  1  0  0  0  0
 10 66  1  0  0  0  0
 11 29  1  0  0  0  0
 11 32  2  0  0  0  0
 12 13  1  0  0  0  0
 12 14  1  0  0  0  0
 12 35  1  0  0  0  0
 13 36  1  0  0  0  0
 14 15  1  0  0  0  0
 14 37  1  0  0  0  0
 15 16  1  6  0  0  0
 15 38  1  0  0  0  0
 16 39  1  0  0  0  0
 16 40  1  0  0  0  0
 17 19  2  0  0  0  0
 17 22  1  0  0  0  0
 18 43  1  0  0  0  0
 19 29  1  0  0  0  0
 20 21  1  0  0  0  0
 20 23  1  0  0  0  0
 20 44  1  0  0  0  0
 20 45  1  0  0  0  0
 21 24  1  0  0  0  0
 21 46  1  0  0  0  0
 21 47  1  0  0  0  0
 23 26  1  0  0  0  0
 23 48  1  0  0  0  0
 23 49  1  0  0  0  0
 24 25  1  0  0  0  0
 24 50  1  0  0  0  0
 24 51  1  0  0  0  0
 25 27  1  0  0  0  0
 25 52  1  0  0  0  0
 25 53  1  0  0  0  0
 26 28  1  0  0  0  0
 26 54  1  0  0  0  0
 26 55  1  0  0  0  0
 27 30  1  0  0  0  0
 27 57  1  0  0  0  0
 27 58  1  0  0  0  0
 28 31  1  0  0  0  0
 28 59  1  0  0  0  0
 28 60  1  0  0  0  0
 30 61  1  0  0  0  0
 30 62  1  0  0  0  0
 31 33  1  0  0  0  0
 31 64  1  0  0  0  0
 31 65  1  0  0  0  0
 33 34  1  0  0  0  0
 33 67  1  0  0  0  0
 33 68  1  0  0  0  0
 34 69  1  0  0  0  0
 34 70  1  0  0  0  0
 34 71  1  0  0  0  0
M  END
> <PUBCHEM_COMPOUND_CID>
511024
> <PUBCHEM_COMPOUND_CANONICALIZED>
1
> <PUBCHEM_CACTVS_COMPLEXITY>
707
> <PUBCHEM_CACTVS_HBOND_ACCEPTOR>
7
> <PUBCHEM_CACTVS_HBOND_DONOR>
5
> <PUBCHEM_CACTVS_ROTATABLE_BOND>
14
> <PUBCHEM_CACTVS_SUBSKEYS>
AAADcfB7uAAAAAAAAAAAAAAAAAAAAWJAAAAAAAAABAAAAACBgAAAHgAQCAAACBzhlgYHkBfMFgCoAQVxdACAgC0XEKABWIGoVECDWBpAyCAeQYhPEQLTAWH1sIIAAAAAAAAAAAAAAAAAAAAAAAAAAAAAAA==
> <PUBCHEM_IUPAC_OPENEYE_NAME>
1-[(2R,3R,4S,5R)-3,4-dihydroxy-5-(hydroxymethyl)tetrahydrofuran-2-yl]-6-(dodecylamino)-7H-imidazo[4,5-e][1,3]diazepine-4,8-dione
> <PUBCHEM_IUPAC_CAS_NAME>
1-[(2R,3R,4S,5R)-3,4-dihydroxy-5-(hydroxymethyl)-2-oxolanyl]-6-(dodecylamino)-7H-imidazo[4,5-e][1,3]diazepine-4,8-dione
> <PUBCHEM_IUPAC_NAME_MARKUP>
1-[(2<I>R</I>,3<I>R</I>,4<I>S</I>,5<I>R</I>)-3,4-dihydroxy-5-(hydroxymethyl)oxolan-2-yl]-6-(dodecylamino)-7<I>H</I>-imidazo[4,5-e][1,3]diazepine-4,8-dione
> <PUBCHEM_IUPAC_NAME>
1-[(2R,3R,4S,5R)-3,4-dihydroxy-5-(hydroxymethyl)oxolan-2-yl]-6-(dodecylamino)-7H-imidazo[4,5-e][1,3]diazepine-4,8-dione
> <PUBCHEM_IUPAC_SYSTEMATIC_NAME>
6-(dodecylamino)-1-[(2R,3R,4S,5R)-5-(hydroxymethyl)-3,4-bis(oxidanyl)oxolan-2-yl]-7H-imidazo[4,5-e][1,3]diazepine-4,8-dione
> <PUBCHEM_IUPAC_TRADITIONAL_NAME>
1-[(2R,3R,4S,5R)-3,4-dihydroxy-5-methylol-tetrahydrofuran-2-yl]-6-(laurylamino)-7H-imidazo[4,5-e][1,3]diazepine-4,8-quinone
> <PUBCHEM_IUPAC_INCHI>
InChI=1S/C23H37N5O6/c1-2-3-4-5-6-7-8-9-10-11-12-24-23-26-20(32)16-17(21(33)27-23)28(14-25-16)22-19(31)18(30)15(13-29)34-22/h14-15,18-19,22,29-31H,2-13H2,1H3,(H2,24,26,27,32,33)/t15-,18-,19-,22-/m1/s1
> <PUBCHEM_IUPAC_INCHIKEY>
SLWXMEVCUZLTFA-CIVUBGFFSA-N
> <PUBCHEM_XLOGP3>
4
> <PUBCHEM_EXACT_MASS>
479.27438392
> <PUBCHEM_MOLECULAR_FORMULA>
C23H37N5O6
> <PUBCHEM_MOLECULAR_WEIGHT>
479.6
> <PUBCHEM_OPENEYE_CAN_SMILES>
CCCCCCCCCCCCNC1=NC(=O)C2=C(C(=O)N1)N(C=N2)C3C(C(C(O3)CO)O)O
> <PUBCHEM_OPENEYE_ISO_SMILES>
CCCCCCCCCCCCNC1=NC(=O)C2=C(C(=O)N1)N(C=N2)[C@H]3[C@@H]([C@@H]([C@H](O3)CO)O)O
> <PUBCHEM_CACTVS_TPSA>
158
> <PUBCHEM_MONOISOTOPIC_WEIGHT>
479.27438392
> <PUBCHEM_TOTAL_CHARGE>
0
> <PUBCHEM_HEAVY_ATOM_COUNT>
34
> <PUBCHEM_ATOM_DEF_STEREO_COUNT>
4
> <PUBCHEM_ATOM_UDEF_STEREO_COUNT>
0
> <PUBCHEM_BOND_DEF_STEREO_COUNT>
0
> <PUBCHEM_BOND_UDEF_STEREO_COUNT>
0
> <PUBCHEM_ISOTOPIC_ATOM_COUNT>
0
> <PUBCHEM_COMPONENT_COUNT>
1
> <PUBCHEM_CACTVS_TAUTO_COUNT>
-1
> <PUBCHEM_COORDINATE_TYPE>
1
5
255
> <PUBCHEM_BONDANNOTATIONS>
11  29  8
11  32  8
15  16  6
17  19  8
17  22  8
19  29  8
12  2  5
14  3  5
13  7  6
7  17  8
7  18  8
8  18  8
8  19  8
9  22  8
9  32  8
$$$$
