511036
  -OEChem-10302200282D
 99103  0     1  0  0  0  0  0999 V2000
    8.9282    0.5000    0.0000 O   0  0  0  0  0  0  0  0  0  0  0  0
    7.1962    0.5000    0.0000 O   0  0  0  0  0  0  0  0  0  0  0  0
    8.9282    3.5000    0.0000 O   0  0  0  0  0  0  0  0  0  0  0  0
    8.9282   -1.5000    0.0000 O   0  0  0  0  0  0  0  0  0  0  0  0
    7.1962   -2.5000    0.0000 O   0  0  0  0  0  0  0  0  0  0  0  0
    5.4641   -1.5000    0.0000 O   0  0  0  0  0  0  0  0  0  0  0  0
    7.1962    1.5000    0.0000 O   0  0  0  0  0  0  0  0  0  0  0  0
   10.6603    3.5000    0.0000 O   0  0  0  0  0  0  0  0  0  0  0  0
    7.1962    4.5000    0.0000 O   0  0  0  0  0  0  0  0  0  0  0  0
   11.5263    3.0000    0.0000 O   0  0  0  0  0  0  0  0  0  0  0  0
    5.4641    1.5000    0.0000 O   0  0  0  0  0  0  0  0  0  0  0  0
    5.4641    4.5000    0.0000 O   0  0  0  0  0  0  0  0  0  0  0  0
   10.6603    1.5000    0.0000 N   0  0  0  0  0  0  0  0  0  0  0  0
    8.9282    1.5000    0.0000 C   0  0  2  0  0  0  0  0  0  0  0  0
    8.0622   -1.0000    0.0000 C   0  0  1  0  0  0  0  0  0  0  0  0
    8.0622    0.0000    0.0000 C   0  0  2  0  0  0  0  0  0  0  0  0
    8.0622    2.0000    0.0000 C   0  0  1  0  0  0  0  0  0  0  0  0
    9.7942    2.0000    0.0000 C   0  0  2  0  0  0  0  0  0  0  0  0
    7.1962   -1.5000    0.0000 C   0  0  1  0  0  0  0  0  0  0  0  0
    6.3301   -1.0000    0.0000 C   0  0  2  0  0  0  0  0  0  0  0  0
    8.0622    3.0000    0.0000 C   0  0  1  0  0  0  0  0  0  0  0  0
    6.3301    0.0000    0.0000 C   0  0  2  0  0  0  0  0  0  0  0  0
    9.7942    3.0000    0.0000 C   0  0  3  0  0  0  0  0  0  0  0  0
    7.1962    3.5000    0.0000 C   0  0  0  0  0  0  0  0  0  0  0  0
    5.4641    0.5000    0.0000 C   0  0  0  0  0  0  0  0  0  0  0  0
    8.9282   -2.5000    0.0000 C   0  0  0  0  0  0  0  0  0  0  0  0
    6.3301   -3.0000    0.0000 C   0  0  0  0  0  0  0  0  0  0  0  0
    4.5981   -1.0000    0.0000 C   0  0  0  0  0  0  0  0  0  0  0  0
   11.5263    2.0000    0.0000 C   0  0  0  0  0  0  0  0  0  0  0  0
    6.3301    2.0000    0.0000 C   0  0  0  0  0  0  0  0  0  0  0  0
    9.7942   -3.0000    0.0000 C   0  0  0  0  0  0  0  0  0  0  0  0
    6.3301   -4.0000    0.0000 C   0  0  0  0  0  0  0  0  0  0  0  0
    3.7320   -1.5000    0.0000 C   0  0  0  0  0  0  0  0  0  0  0  0
   12.3923    1.5000    0.0000 C   0  0  0  0  0  0  0  0  0  0  0  0
    6.3301    3.0000    0.0000 C   0  0  0  0  0  0  0  0  0  0  0  0
    6.3301    5.0000    0.0000 C   0  0  0  0  0  0  0  0  0  0  0  0
   10.6603   -2.5000    0.0000 C   0  0  0  0  0  0  0  0  0  0  0  0
    9.7942   -4.0000    0.0000 C   0  0  0  0  0  0  0  0  0  0  0  0
    7.1962   -4.5000    0.0000 C   0  0  0  0  0  0  0  0  0  0  0  0
    5.4641   -4.5000    0.0000 C   0  0  0  0  0  0  0  0  0  0  0  0
    3.7320   -2.5000    0.0000 C   0  0  0  0  0  0  0  0  0  0  0  0
    2.8660   -1.0000    0.0000 C   0  0  0  0  0  0  0  0  0  0  0  0
    6.3301    6.0000    0.0000 C   0  0  0  0  0  0  0  0  0  0  0  0
   11.5263   -3.0000    0.0000 C   0  0  0  0  0  0  0  0  0  0  0  0
   10.6603   -4.5000    0.0000 C   0  0  0  0  0  0  0  0  0  0  0  0
    7.1962   -5.5000    0.0000 C   0  0  0  0  0  0  0  0  0  0  0  0
    5.4641   -5.5000    0.0000 C   0  0  0  0  0  0  0  0  0  0  0  0
    2.8660   -3.0000    0.0000 C   0  0  0  0  0  0  0  0  0  0  0  0
    2.0000   -1.5000    0.0000 C   0  0  0  0  0  0  0  0  0  0  0  0
   11.5263   -4.0000    0.0000 C   0  0  0  0  0  0  0  0  0  0  0  0
    6.3301   -6.0000    0.0000 C   0  0  0  0  0  0  0  0  0  0  0  0
    2.0000   -2.5000    0.0000 C   0  0  0  0  0  0  0  0  0  0  0  0
    9.4651    1.1900    0.0000 H   0  0  0  0  0  0  0  0  0  0  0  0
    8.0622   -1.6200    0.0000 H   0  0  0  0  0  0  0  0  0  0  0  0
    8.0622    0.6200    0.0000 H   0  0  0  0  0  0  0  0  0  0  0  0
    7.5252    2.3100    0.0000 H   0  0  0  0  0  0  0  0  0  0  0  0
   10.3312    2.3100    0.0000 H   0  0  0  0  0  0  0  0  0  0  0  0
    6.6592   -1.8100    0.0000 H   0  0  0  0  0  0  0  0  0  0  0  0
    6.3301   -1.6200    0.0000 H   0  0  0  0  0  0  0  0  0  0  0  0
    8.0622    3.6200    0.0000 H   0  0  0  0  0  0  0  0  0  0  0  0
    6.3301    0.6200    0.0000 H   0  0  0  0  0  0  0  0  0  0  0  0
    9.7942    3.6200    0.0000 H   0  0  0  0  0  0  0  0  0  0  0  0
    6.5856    3.6077    0.0000 H   0  0  0  0  0  0  0  0  0  0  0  0
    6.9841    2.9174    0.0000 H   0  0  0  0  0  0  0  0  0  0  0  0
   10.6603    0.8800    0.0000 H   0  0  0  0  0  0  0  0  0  0  0  0
    5.7741    1.0369    0.0000 H   0  0  0  0  0  0  0  0  0  0  0  0
    4.9272    0.8100    0.0000 H   0  0  0  0  0  0  0  0  0  0  0  0
    5.1541   -0.0369    0.0000 H   0  0  0  0  0  0  0  0  0  0  0  0
   10.6603    4.1200    0.0000 H   0  0  0  0  0  0  0  0  0  0  0  0
    8.3176   -2.3923    0.0000 H   0  0  0  0  0  0  0  0  0  0  0  0
    8.7162   -3.0826    0.0000 H   0  0  0  0  0  0  0  0  0  0  0  0
    6.1181   -2.4174    0.0000 H   0  0  0  0  0  0  0  0  0  0  0  0
    5.7196   -3.1077    0.0000 H   0  0  0  0  0  0  0  0  0  0  0  0
    4.9966   -0.5251    0.0000 H   0  0  0  0  0  0  0  0  0  0  0  0
    4.1996   -0.5251    0.0000 H   0  0  0  0  0  0  0  0  0  0  0  0
   12.0823    0.9631    0.0000 H   0  0  0  0  0  0  0  0  0  0  0  0
   12.9292    1.1900    0.0000 H   0  0  0  0  0  0  0  0  0  0  0  0
   12.7023    2.0369    0.0000 H   0  0  0  0  0  0  0  0  0  0  0  0
    6.9501    3.0000    0.0000 H   0  0  0  0  0  0  0  0  0  0  0  0
    6.3301    3.6200    0.0000 H   0  0  0  0  0  0  0  0  0  0  0  0
    5.7101    3.0000    0.0000 H   0  0  0  0  0  0  0  0  0  0  0  0
   10.6603   -1.8800    0.0000 H   0  0  0  0  0  0  0  0  0  0  0  0
    9.2573   -4.3100    0.0000 H   0  0  0  0  0  0  0  0  0  0  0  0
    7.7331   -4.1900    0.0000 H   0  0  0  0  0  0  0  0  0  0  0  0
    4.9272   -4.1900    0.0000 H   0  0  0  0  0  0  0  0  0  0  0  0
    4.2690   -2.8100    0.0000 H   0  0  0  0  0  0  0  0  0  0  0  0
    2.8660   -0.3800    0.0000 H   0  0  0  0  0  0  0  0  0  0  0  0
    6.9501    6.0000    0.0000 H   0  0  0  0  0  0  0  0  0  0  0  0
    6.3301    6.6200    0.0000 H   0  0  0  0  0  0  0  0  0  0  0  0
    5.7101    6.0000    0.0000 H   0  0  0  0  0  0  0  0  0  0  0  0
   12.0632   -2.6900    0.0000 H   0  0  0  0  0  0  0  0  0  0  0  0
   10.6603   -5.1200    0.0000 H   0  0  0  0  0  0  0  0  0  0  0  0
    7.7331   -5.8100    0.0000 H   0  0  0  0  0  0  0  0  0  0  0  0
    4.9272   -5.8100    0.0000 H   0  0  0  0  0  0  0  0  0  0  0  0
    2.8660   -3.6200    0.0000 H   0  0  0  0  0  0  0  0  0  0  0  0
    1.4631   -1.1900    0.0000 H   0  0  0  0  0  0  0  0  0  0  0  0
   12.0632   -4.3100    0.0000 H   0  0  0  0  0  0  0  0  0  0  0  0
    6.3301   -6.6200    0.0000 H   0  0  0  0  0  0  0  0  0  0  0  0
    1.4631   -2.8100    0.0000 H   0  0  0  0  0  0  0  0  0  0  0  0
 14  1  1  6  0  0  0
 16  1  1  1  0  0  0
  2 16  1  0  0  0  0
  2 22  1  0  0  0  0
  3 21  1  0  0  0  0
  3 23  1  0  0  0  0
 15  4  1  6  0  0  0
  4 26  1  0  0  0  0
 19  5  1  6  0  0  0
  5 27  1  0  0  0  0
 20  6  1  1  0  0  0
  6 28  1  0  0  0  0
 17  7  1  6  0  0  0
  7 30  1  0  0  0  0
  8 23  1  0  0  0  0
  8 69  1  0  0  0  0
  9 24  1  0  0  0  0
  9 36  1  0  0  0  0
 10 29  2  0  0  0  0
 11 30  2  0  0  0  0
 12 36  2  0  0  0  0
 18 13  1  6  0  0  0
 13 29  1  0  0  0  0
 13 65  1  0  0  0  0
 14 17  1  0  0  0  0
 14 18  1  0  0  0  0
 14 53  1  0  0  0  0
 15 16  1  0  0  0  0
 15 19  1  0  0  0  0
 15 54  1  0  0  0  0
 16 55  1  0  0  0  0
 17 21  1  0  0  0  0
 17 56  1  0  0  0  0
 18 23  1  0  0  0  0
 18 57  1  0  0  0  0
 19 20  1  0  0  0  0
 19 58  1  0  0  0  0
 20 22  1  0  0  0  0
 20 59  1  0  0  0  0
 21 24  1  1  0  0  0
 21 60  1  0  0  0  0
 22 25  1  6  0  0  0
 22 61  1  0  0  0  0
 23 62  1  0  0  0  0
 24 63  1  0  0  0  0
 24 64  1  0  0  0  0
 25 66  1  0  0  0  0
 25 67  1  0  0  0  0
 25 68  1  0  0  0  0
 26 31  1  0  0  0  0
 26 70  1  0  0  0  0
 26 71  1  0  0  0  0
 27 32  1  0  0  0  0
 27 72  1  0  0  0  0
 27 73  1  0  0  0  0
 28 33  1  0  0  0  0
 28 74  1  0  0  0  0
 28 75  1  0  0  0  0
 29 34  1  0  0  0  0
 30 35  1  0  0  0  0
 31 37  2  0  0  0  0
 31 38  1  0  0  0  0
 32 39  2  0  0  0  0
 32 40  1  0  0  0  0
 33 41  2  0  0  0  0
 33 42  1  0  0  0  0
 34 76  1  0  0  0  0
 34 77  1  0  0  0  0
 34 78  1  0  0  0  0
 35 79  1  0  0  0  0
 35 80  1  0  0  0  0
 35 81  1  0  0  0  0
 36 43  1  0  0  0  0
 37 44  1  0  0  0  0
 37 82  1  0  0  0  0
 38 45  2  0  0  0  0
 38 83  1  0  0  0  0
 39 46  1  0  0  0  0
 39 84  1  0  0  0  0
 40 47  2  0  0  0  0
 40 85  1  0  0  0  0
 41 48  1  0  0  0  0
 41 86  1  0  0  0  0
 42 49  2  0  0  0  0
 42 87  1  0  0  0  0
 43 88  1  0  0  0  0
 43 89  1  0  0  0  0
 43 90  1  0  0  0  0
 44 50  2  0  0  0  0
 44 91  1  0  0  0  0
 45 50  1  0  0  0  0
 45 92  1  0  0  0  0
 46 51  2  0  0  0  0
 46 93  1  0  0  0  0
 47 51  1  0  0  0  0
 47 94  1  0  0  0  0
 48 52  2  0  0  0  0
 48 95  1  0  0  0  0
 49 52  1  0  0  0  0
 49 96  1  0  0  0  0
 50 97  1  0  0  0  0
 51 98  1  0  0  0  0
 52 99  1  0  0  0  0
M  END
> <PUBCHEM_COMPOUND_CID>
511036
> <PUBCHEM_COMPOUND_CANONICALIZED>
1
> <PUBCHEM_CACTVS_COMPLEXITY>
1110
> <PUBCHEM_CACTVS_HBOND_ACCEPTOR>
12
> <PUBCHEM_CACTVS_HBOND_DONOR>
2
> <PUBCHEM_CACTVS_ROTATABLE_BOND>
17
> <PUBCHEM_CACTVS_SUBSKEYS>
AAADcfB+PAAAAAAAAAAAAAAAAAAAAAAAAAA0aMECAAAAAAABUAAAHgAQCAAADDzxmAcyCILABgCIAiHSGAACAAAgAAAIiIAICIgbNiKAsRincAAn1gGeqAfw8C8OAAAAAAAAAAAAAAAAAAAAAAAAAAAAAA==
> <PUBCHEM_IUPAC_OPENEYE_NAME>
[(2R,3S,4S,5R)-5-acetamido-3-acetoxy-6-hydroxy-4-[(2S,3R,4R,5S,6S)-3,4,5-tribenzyloxy-6-methyl-tetrahydropyran-2-yl]oxy-tetrahydropyran-2-yl]methyl acetate
> <PUBCHEM_IUPAC_CAS_NAME>
acetic acid [(2R,3S,4S,5R)-5-acetamido-3-acetyloxy-6-hydroxy-4-[[(2S,3R,4R,5S,6S)-6-methyl-3,4,5-tris(phenylmethoxy)-2-oxanyl]oxy]-2-oxanyl]methyl ester
> <PUBCHEM_IUPAC_NAME_MARKUP>
[(2<I>R</I>,3<I>S</I>,4<I>S</I>,5<I>R</I>)-5-acetamido-3-acetyloxy-6-hydroxy-4-[(2<I>S</I>,3<I>R</I>,4<I>R</I>,5<I>S</I>,6<I>S</I>)-6-methyl-3,4,5-tris(phenylmethoxy)oxan-2-yl]oxyoxan-2-yl]methyl acetate
> <PUBCHEM_IUPAC_NAME>
[(2R,3S,4S,5R)-5-acetamido-3-acetyloxy-6-hydroxy-4-[(2S,3R,4R,5S,6S)-6-methyl-3,4,5-tris(phenylmethoxy)oxan-2-yl]oxyoxan-2-yl]methyl acetate
> <PUBCHEM_IUPAC_SYSTEMATIC_NAME>
[(2R,3S,4S,5R)-5-acetamido-3-acetyloxy-4-[(2S,3R,4R,5S,6S)-6-methyl-3,4,5-tris(phenylmethoxy)oxan-2-yl]oxy-6-oxidanyl-oxan-2-yl]methyl ethanoate
> <PUBCHEM_IUPAC_TRADITIONAL_NAME>
acetic acid [(2R,3S,4S,5R)-5-acetamido-3-acetoxy-6-hydroxy-4-[(2S,3R,4R,5S,6S)-3,4,5-tribenzoxy-6-methyl-tetrahydropyran-2-yl]oxy-tetrahydropyran-2-yl]methyl ester
> <PUBCHEM_IUPAC_INCHI>
InChI=1S/C39H47NO12/c1-24-33(46-20-28-14-8-5-9-15-28)36(47-21-29-16-10-6-11-17-29)37(48-22-30-18-12-7-13-19-30)39(49-24)52-35-32(40-25(2)41)38(44)51-31(23-45-26(3)42)34(35)50-27(4)43/h5-19,24,31-39,44H,20-23H2,1-4H3,(H,40,41)/t24-,31+,32+,33-,34+,35-,36+,37+,38?,39-/m0/s1
> <PUBCHEM_IUPAC_INCHIKEY>
ZDXORUHGMPNOLJ-RQZUOBPMSA-N
> <PUBCHEM_XLOGP3_AA>
3
> <PUBCHEM_EXACT_MASS>
721.30982593
> <PUBCHEM_MOLECULAR_FORMULA>
C39H47NO12
> <PUBCHEM_MOLECULAR_WEIGHT>
721.8
> <PUBCHEM_OPENEYE_CAN_SMILES>
CC1C(C(C(C(O1)OC2C(C(OC(C2OC(=O)C)COC(=O)C)O)NC(=O)C)OCC3=CC=CC=C3)OCC4=CC=CC=C4)OCC5=CC=CC=C5
> <PUBCHEM_OPENEYE_ISO_SMILES>
C[C@H]1[C@@H]([C@H]([C@H]([C@@H](O1)O[C@@H]2[C@@H]([C@H](OC([C@@H]2NC(=O)C)O)COC(=O)C)OC(=O)C)OCC3=CC=CC=C3)OCC4=CC=CC=C4)OCC5=CC=CC=C5
> <PUBCHEM_CACTVS_TPSA>
157
> <PUBCHEM_MONOISOTOPIC_WEIGHT>
721.30982593
> <PUBCHEM_TOTAL_CHARGE>
0
> <PUBCHEM_HEAVY_ATOM_COUNT>
52
> <PUBCHEM_ATOM_DEF_STEREO_COUNT>
9
> <PUBCHEM_ATOM_UDEF_STEREO_COUNT>
1
> <PUBCHEM_BOND_DEF_STEREO_COUNT>
0
> <PUBCHEM_BOND_UDEF_STEREO_COUNT>
0
> <PUBCHEM_ISOTOPIC_ATOM_COUNT>
0
> <PUBCHEM_COMPONENT_COUNT>
1
> <PUBCHEM_CACTVS_TAUTO_COUNT>
-1
> <PUBCHEM_COORDINATE_TYPE>
1
5
255
> <PUBCHEM_BONDANNOTATIONS>
14  1  6
16  1  5
18  13  6
21  24  5
22  25  6
31  37  8
31  38  8
32  39  8
32  40  8
33  41  8
33  42  8
37  44  8
38  45  8
39  46  8
15  4  6
40  47  8
41  48  8
42  49  8
44  50  8
45  50  8
46  51  8
47  51  8
48  52  8
49  52  8
19  5  6
20  6  5
17  7  6
23  8  3
$$$$
