511059
  -OEChem-10302200282D
 87 89  0     1  0  0  0  0  0999 V2000
    6.3749   -0.9400    0.0000 O   0  0  0  0  0  0  0  0  0  0  0  0
    7.1755   -2.0419    0.0000 O   0  0  0  0  0  0  0  0  0  0  0  0
    9.6755   -4.6400    0.0000 O   0  0  0  0  0  0  0  0  0  0  0  0
    3.3894    1.0816    0.0000 O   0  0  0  0  0  0  0  0  0  0  0  0
    8.1755   -5.5060    0.0000 O   0  0  0  0  0  0  0  0  0  0  0  0
    5.6547    2.4484    0.0000 O   0  0  0  0  0  0  0  0  0  0  0  0
    5.6755   -2.9080    0.0000 N   0  0  0  0  0  0  0  0  0  0  0  0
    4.7276   -0.4047    0.0000 N   0  0  0  0  0  0  0  0  0  0  0  0
    8.1755   -3.7740    0.0000 N   0  0  0  0  0  0  0  0  0  0  0  0
    4.0074    2.9837    0.0000 N   0  0  0  0  0  0  0  0  0  0  0  0
    4.1367   -2.4080    0.0000 C   0  0  2  0  0  0  0  0  0  0  0  0
    4.1367   -3.4080    0.0000 C   0  0  2  0  0  0  0  0  0  0  0  0
    5.0877   -2.0989    0.0000 C   0  0  1  0  0  0  0  0  0  0  0  0
    3.1905   -2.1032    0.0000 C   0  0  0  0  0  0  0  0  0  0  0  0
    3.1905   -3.7127    0.0000 C   0  0  0  0  0  0  0  0  0  0  0  0
    5.0877   -3.7170    0.0000 C   0  0  0  0  0  0  0  0  0  0  0  0
    2.6068   -2.9080    0.0000 C   0  0  0  0  0  0  0  0  0  0  0  0
    5.3968   -1.1479    0.0000 C   0  0  0  0  0  0  0  0  0  0  0  0
    6.6755   -2.9080    0.0000 C   0  0  0  0  0  0  0  0  0  0  0  0
    7.1755   -3.7740    0.0000 C   0  0  2  0  0  0  0  0  0  0  0  0
    6.6755   -4.6400    0.0000 C   0  0  0  0  0  0  0  0  0  0  0  0
    5.0366    0.5463    0.0000 C   0  0  3  0  0  0  0  0  0  0  0  0
    7.1755   -5.5060    0.0000 C   0  0  0  0  0  0  0  0  0  0  0  0
    5.6755   -4.6400    0.0000 C   0  0  0  0  0  0  0  0  0  0  0  0
    6.0148    0.7542    0.0000 C   0  0  0  0  0  0  0  0  0  0  0  0
    4.3675    1.2895    0.0000 C   0  0  0  0  0  0  0  0  0  0  0  0
    8.6755   -4.6400    0.0000 C   0  0  0  0  0  0  0  0  0  0  0  0
    6.3238    1.7053    0.0000 C   0  0  0  0  0  0  0  0  0  0  0  0
    4.6765    2.2405    0.0000 C   0  0  0  0  0  0  0  0  0  0  0  0
    7.3020    1.9132    0.0000 C   0  0  0  0  0  0  0  0  0  0  0  0
   10.1755   -5.5060    0.0000 C   0  0  0  0  0  0  0  0  0  0  0  0
    4.3164    3.9347    0.0000 C   0  0  2  0  0  0  0  0  0  0  0  0
   11.1755   -5.5060    0.0000 C   0  0  0  0  0  0  0  0  0  0  0  0
    9.6755   -6.3721    0.0000 C   0  0  0  0  0  0  0  0  0  0  0  0
    3.6473    4.6779    0.0000 C   0  0  0  0  0  0  0  0  0  0  0  0
    5.2946    4.1426    0.0000 C   0  0  0  0  0  0  0  0  0  0  0  0
    3.9563    5.6289    0.0000 C   0  0  0  0  0  0  0  0  0  0  0  0
    2.6691    4.4700    0.0000 C   0  0  0  0  0  0  0  0  0  0  0  0
    3.2872    6.3721    0.0000 C   0  0  0  0  0  0  0  0  0  0  0  0
    2.0000    5.2131    0.0000 C   0  0  0  0  0  0  0  0  0  0  0  0
    2.3090    6.1642    0.0000 C   0  0  0  0  0  0  0  0  0  0  0  0
    4.1356   -1.5580    0.0000 H   0  0  0  0  0  0  0  0  0  0  0  0
    4.1356   -4.2580    0.0000 H   0  0  0  0  0  0  0  0  0  0  0  0
    5.7001   -2.0020    0.0000 H   0  0  0  0  0  0  0  0  0  0  0  0
    3.4415   -1.5363    0.0000 H   0  0  0  0  0  0  0  0  0  0  0  0
    2.6531   -1.7940    0.0000 H   0  0  0  0  0  0  0  0  0  0  0  0
    2.6531   -4.0219    0.0000 H   0  0  0  0  0  0  0  0  0  0  0  0
    3.4415   -4.2796    0.0000 H   0  0  0  0  0  0  0  0  0  0  0  0
    4.8356   -4.2834    0.0000 H   0  0  0  0  0  0  0  0  0  0  0  0
    5.6247   -4.0270    0.0000 H   0  0  0  0  0  0  0  0  0  0  0  0
    2.1460   -2.4932    0.0000 H   0  0  0  0  0  0  0  0  0  0  0  0
    2.1460   -3.3227    0.0000 H   0  0  0  0  0  0  0  0  0  0  0  0
    7.4855   -3.2370    0.0000 H   0  0  0  0  0  0  0  0  0  0  0  0
    4.1212   -0.5336    0.0000 H   0  0  0  0  0  0  0  0  0  0  0  0
    7.2955   -4.6400    0.0000 H   0  0  0  0  0  0  0  0  0  0  0  0
    4.4302    0.4174    0.0000 H   0  0  0  0  0  0  0  0  0  0  0  0
    8.4855   -3.2370    0.0000 H   0  0  0  0  0  0  0  0  0  0  0  0
    6.6386   -5.8160    0.0000 H   0  0  0  0  0  0  0  0  0  0  0  0
    7.4855   -6.0430    0.0000 H   0  0  0  0  0  0  0  0  0  0  0  0
    7.7124   -5.1960    0.0000 H   0  0  0  0  0  0  0  0  0  0  0  0
    5.6755   -4.0200    0.0000 H   0  0  0  0  0  0  0  0  0  0  0  0
    5.0555   -4.6400    0.0000 H   0  0  0  0  0  0  0  0  0  0  0  0
    5.6755   -5.2600    0.0000 H   0  0  0  0  0  0  0  0  0  0  0  0
    6.0364    0.1346    0.0000 H   0  0  0  0  0  0  0  0  0  0  0  0
    6.6288    0.6679    0.0000 H   0  0  0  0  0  0  0  0  0  0  0  0
    6.3022    2.3249    0.0000 H   0  0  0  0  0  0  0  0  0  0  0  0
    5.7098    1.7916    0.0000 H   0  0  0  0  0  0  0  0  0  0  0  0
    7.4308    1.3067    0.0000 H   0  0  0  0  0  0  0  0  0  0  0  0
    7.9084    2.0421    0.0000 H   0  0  0  0  0  0  0  0  0  0  0  0
    7.1730    2.5196    0.0000 H   0  0  0  0  0  0  0  0  0  0  0  0
    3.4009    2.8548    0.0000 H   0  0  0  0  0  0  0  0  0  0  0  0
    9.5555   -5.5060    0.0000 H   0  0  0  0  0  0  0  0  0  0  0  0
    3.7100    3.8058    0.0000 H   0  0  0  0  0  0  0  0  0  0  0  0
   11.1755   -6.1260    0.0000 H   0  0  0  0  0  0  0  0  0  0  0  0
   11.7955   -5.5060    0.0000 H   0  0  0  0  0  0  0  0  0  0  0  0
   11.1755   -4.8860    0.0000 H   0  0  0  0  0  0  0  0  0  0  0  0
    9.1386   -6.0621    0.0000 H   0  0  0  0  0  0  0  0  0  0  0  0
    9.3655   -6.9090    0.0000 H   0  0  0  0  0  0  0  0  0  0  0  0
   10.2125   -6.6821    0.0000 H   0  0  0  0  0  0  0  0  0  0  0  0
    5.4235    3.5362    0.0000 H   0  0  0  0  0  0  0  0  0  0  0  0
    5.9010    4.2715    0.0000 H   0  0  0  0  0  0  0  0  0  0  0  0
    5.1656    4.7491    0.0000 H   0  0  0  0  0  0  0  0  0  0  0  0
    4.5628    5.7578    0.0000 H   0  0  0  0  0  0  0  0  0  0  0  0
    2.4775    3.8803    0.0000 H   0  0  0  0  0  0  0  0  0  0  0  0
    3.4788    6.9617    0.0000 H   0  0  0  0  0  0  0  0  0  0  0  0
    1.3936    5.0842    0.0000 H   0  0  0  0  0  0  0  0  0  0  0  0
    1.8942    6.6249    0.0000 H   0  0  0  0  0  0  0  0  0  0  0  0
  1 18  2  0  0  0  0
  2 19  2  0  0  0  0
  3 27  1  0  0  0  0
  3 31  1  0  0  0  0
  4 26  2  0  0  0  0
  5 27  2  0  0  0  0
  6 29  2  0  0  0  0
  7 13  1  0  0  0  0
  7 16  1  0  0  0  0
  7 19  1  0  0  0  0
  8 18  1  0  0  0  0
  8 22  1  0  0  0  0
  8 54  1  0  0  0  0
 20  9  1  1  0  0  0
  9 27  1  0  0  0  0
  9 57  1  0  0  0  0
 10 29  1  0  0  0  0
 32 10  1  6  0  0  0
 10 71  1  0  0  0  0
 11 12  1  0  0  0  0
 11 13  1  0  0  0  0
 11 14  1  0  0  0  0
 11 42  1  6  0  0  0
 12 15  1  0  0  0  0
 12 16  1  0  0  0  0
 12 43  1  6  0  0  0
 13 18  1  1  0  0  0
 13 44  1  0  0  0  0
 14 17  1  0  0  0  0
 14 45  1  0  0  0  0
 14 46  1  0  0  0  0
 15 17  1  0  0  0  0
 15 47  1  0  0  0  0
 15 48  1  0  0  0  0
 16 49  1  0  0  0  0
 16 50  1  0  0  0  0
 17 51  1  0  0  0  0
 17 52  1  0  0  0  0
 19 20  1  0  0  0  0
 20 21  1  0  0  0  0
 20 53  1  0  0  0  0
 21 23  1  0  0  0  0
 21 24  1  0  0  0  0
 21 55  1  0  0  0  0
 22 25  1  0  0  0  0
 22 26  1  0  0  0  0
 22 56  1  0  0  0  0
 23 58  1  0  0  0  0
 23 59  1  0  0  0  0
 23 60  1  0  0  0  0
 24 61  1  0  0  0  0
 24 62  1  0  0  0  0
 24 63  1  0  0  0  0
 25 28  1  0  0  0  0
 25 64  1  0  0  0  0
 25 65  1  0  0  0  0
 26 29  1  0  0  0  0
 28 30  1  0  0  0  0
 28 66  1  0  0  0  0
 28 67  1  0  0  0  0
 30 68  1  0  0  0  0
 30 69  1  0  0  0  0
 30 70  1  0  0  0  0
 31 33  1  0  0  0  0
 31 34  1  0  0  0  0
 31 72  1  0  0  0  0
 32 35  1  0  0  0  0
 32 36  1  0  0  0  0
 32 73  1  0  0  0  0
 33 74  1  0  0  0  0
 33 75  1  0  0  0  0
 33 76  1  0  0  0  0
 34 77  1  0  0  0  0
 34 78  1  0  0  0  0
 34 79  1  0  0  0  0
 35 37  2  0  0  0  0
 35 38  1  0  0  0  0
 36 80  1  0  0  0  0
 36 81  1  0  0  0  0
 36 82  1  0  0  0  0
 37 39  1  0  0  0  0
 37 83  1  0  0  0  0
 38 40  2  0  0  0  0
 38 84  1  0  0  0  0
 39 41  2  0  0  0  0
 39 85  1  0  0  0  0
 40 41  1  0  0  0  0
 40 86  1  0  0  0  0
 41 87  1  0  0  0  0
M  END
> <PUBCHEM_COMPOUND_CID>
511059
> <PUBCHEM_COMPOUND_CANONICALIZED>
1
> <PUBCHEM_CACTVS_COMPLEXITY>
947
> <PUBCHEM_CACTVS_HBOND_ACCEPTOR>
6
> <PUBCHEM_CACTVS_HBOND_DONOR>
3
> <PUBCHEM_CACTVS_ROTATABLE_BOND>
13
> <PUBCHEM_CACTVS_SUBSKEYS>
AAADcfB7uAAAAAAAAAAAAAAAAAAAAeIAAAAwAAAAAAAWAAABAAAAHgAQAAAADTzhmAYyCIPABACIAqFSGACCAAAgAAAIiIGIBIkIYDqA0TGcIAhglgCIiAcYiYCOgAAAAAAAAAAAAAAAAAAAAAAACAAAAA==
> <PUBCHEM_IUPAC_OPENEYE_NAME>
isopropyl N-[(1S)-1-[(3S,3aR,6aS)-3-[1-[2-oxo-2-[[(1S)-1-phenylethyl]amino]acetyl]butylcarbamoyl]-3,3a,4,5,6,6a-hexahydro-1H-cyclopenta[c]pyrrole-2-carbonyl]-2-methyl-propyl]carbamate
> <PUBCHEM_IUPAC_CAS_NAME>
N-[(2S)-1-[(3S,3aR,6aS)-3-[[[1,2-dioxo-1-[[(1S)-1-phenylethyl]amino]hexan-3-yl]amino]-oxomethyl]-3,3a,4,5,6,6a-hexahydro-1H-cyclopenta[c]pyrrol-2-yl]-3-methyl-1-oxobutan-2-yl]carbamic acid propan-2-yl ester
> <PUBCHEM_IUPAC_NAME_MARKUP>
propan-2-yl <I>N</I>-[(2<I>S</I>)-1-[(3<I>S</I>,3<I>a</I><I>R</I>,6<I>a</I><I>S</I>)-3-[[1,2-dioxo-1-[[(1<I>S</I>)-1-phenylethyl]amino]hexan-3-yl]carbamoyl]-3,3<I>a</I>,4,5,6,6<I>a</I>-hexahydro-1<I>H</I>-cyclopenta[c]pyrrol-2-yl]-3-methyl-1-oxobutan-2-yl]carbamate
> <PUBCHEM_IUPAC_NAME>
propan-2-yl N-[(2S)-1-[(3S,3aR,6aS)-3-[[1,2-dioxo-1-[[(1S)-1-phenylethyl]amino]hexan-3-yl]carbamoyl]-3,3a,4,5,6,6a-hexahydro-1H-cyclopenta[c]pyrrol-2-yl]-3-methyl-1-oxobutan-2-yl]carbamate
> <PUBCHEM_IUPAC_SYSTEMATIC_NAME>
propan-2-yl N-[(2S)-1-[(3S,3aR,6aS)-3-[[1,2-bis(oxidanylidene)-1-[[(1S)-1-phenylethyl]amino]hexan-3-yl]carbamoyl]-3,3a,4,5,6,6a-hexahydro-1H-cyclopenta[c]pyrrol-2-yl]-3-methyl-1-oxidanylidene-butan-2-yl]carbamate
> <PUBCHEM_IUPAC_TRADITIONAL_NAME>
N-[(1S)-1-[(3S,3aR,6aS)-3-[1-[2-keto-2-[[(1S)-1-phenylethyl]amino]acetyl]butylcarbamoyl]-3,3a,4,5,6,6a-hexahydro-1H-cyclopenta[c]pyrrole-2-carbonyl]-2-methyl-propyl]carbamic acid isopropyl ester
> <PUBCHEM_IUPAC_INCHI>
InChI=1S/C31H46N4O6/c1-7-12-24(27(36)29(38)32-20(6)21-13-9-8-10-14-21)33-28(37)26-23-16-11-15-22(23)17-35(26)30(39)25(18(2)3)34-31(40)41-19(4)5/h8-10,13-14,18-20,22-26H,7,11-12,15-17H2,1-6H3,(H,32,38)(H,33,37)(H,34,40)/t20-,22+,23+,24?,25-,26-/m0/s1
> <PUBCHEM_IUPAC_INCHIKEY>
QUWLLYOWZSKAPX-PPPQSDHCSA-N
> <PUBCHEM_XLOGP3_AA>
4.7
> <PUBCHEM_EXACT_MASS>
570.34173520
> <PUBCHEM_MOLECULAR_FORMULA>
C31H46N4O6
> <PUBCHEM_MOLECULAR_WEIGHT>
570.7
> <PUBCHEM_OPENEYE_CAN_SMILES>
CCCC(C(=O)C(=O)NC(C)C1=CC=CC=C1)NC(=O)C2C3CCCC3CN2C(=O)C(C(C)C)NC(=O)OC(C)C
> <PUBCHEM_OPENEYE_ISO_SMILES>
CCCC(C(=O)C(=O)N[C@@H](C)C1=CC=CC=C1)NC(=O)[C@@H]2[C@@H]3CCC[C@@H]3CN2C(=O)[C@H](C(C)C)NC(=O)OC(C)C
> <PUBCHEM_CACTVS_TPSA>
134
> <PUBCHEM_MONOISOTOPIC_WEIGHT>
570.34173520
> <PUBCHEM_TOTAL_CHARGE>
0
> <PUBCHEM_HEAVY_ATOM_COUNT>
41
> <PUBCHEM_ATOM_DEF_STEREO_COUNT>
5
> <PUBCHEM_ATOM_UDEF_STEREO_COUNT>
1
> <PUBCHEM_BOND_DEF_STEREO_COUNT>
0
> <PUBCHEM_BOND_UDEF_STEREO_COUNT>
0
> <PUBCHEM_ISOTOPIC_ATOM_COUNT>
0
> <PUBCHEM_COMPONENT_COUNT>
1
> <PUBCHEM_CACTVS_TAUTO_COUNT>
-1
> <PUBCHEM_COORDINATE_TYPE>
1
5
255
> <PUBCHEM_BONDANNOTATIONS>
32  10  6
11  42  6
12  43  6
13  18  5
22  25  3
35  37  8
35  38  8
37  39  8
38  40  8
39  41  8
40  41  8
20  9  5
$$$$
