511091
  -OEChem-10302200282D
 68 72  0     1  0  0  0  0  0999 V2000
    2.6504   -3.1510    0.0000 O   0  0  0  0  0  0  0  0  0  0  0  0
    4.5983   -5.6542    0.0000 O   0  0  0  0  0  0  0  0  0  0  0  0
    5.7783   -0.6514    0.0000 O   0  0  0  0  0  0  0  0  0  0  0  0
    6.3345    0.5920    0.0000 O   0  0  0  0  0  0  0  0  0  0  0  0
    6.1355   -2.3462    0.0000 N   0  0  0  0  0  0  0  0  0  0  0  0
    4.2382   -3.9600    0.0000 N   0  0  0  0  0  0  0  0  0  0  0  0
    7.8330   -0.2767    0.0000 N   0  0  0  0  0  0  0  0  0  0  0  0
    7.8360    1.4554    0.0000 N   0  0  0  0  0  0  0  0  0  0  0  0
    5.1893   -2.6510    0.0000 C   0  0  1  0  0  0  0  0  0  0  0  0
    5.1893   -3.6510    0.0000 C   0  0  2  0  0  0  0  0  0  0  0  0
    4.2382   -2.3420    0.0000 C   0  0  1  0  0  0  0  0  0  0  0  0
    6.1355   -3.9557    0.0000 C   0  0  0  0  0  0  0  0  0  0  0  0
    6.7191   -3.1510    0.0000 C   0  0  0  0  0  0  0  0  0  0  0  0
    2.9511   -5.1190    0.0000 C   0  0  0  0  0  0  0  0  0  0  0  0
    3.6504   -3.1510    0.0000 C   0  0  0  0  0  0  0  0  0  0  0  0
    3.9292   -4.9110    0.0000 C   0  0  0  0  0  0  0  0  0  0  0  0
    2.0000   -4.8100    0.0000 C   0  0  0  0  0  0  0  0  0  0  0  0
    2.2079   -5.7881    0.0000 C   0  0  0  0  0  0  0  0  0  0  0  0
    6.4462   -1.3957    0.0000 C   0  0  0  0  0  0  0  0  0  0  0  0
    3.9292   -1.3909    0.0000 C   0  0  0  0  0  0  0  0  0  0  0  0
    7.4247   -1.1895    0.0000 C   0  0  2  0  0  0  0  0  0  0  0  0
    8.1666   -1.8599    0.0000 C   0  0  0  0  0  0  0  0  0  0  0  0
    9.0335   -1.3614    0.0000 C   0  0  0  0  0  0  0  0  0  0  0  0
    8.8273   -0.3829    0.0000 C   0  0  0  0  0  0  0  0  0  0  0  0
    7.3345    0.5902    0.0000 C   0  0  0  0  0  0  0  0  0  0  0  0
    7.3375    2.3223    0.0000 C   0  0  0  0  0  0  0  0  0  0  0  0
    7.8390    3.1874    0.0000 C   0  0  0  0  0  0  0  0  0  0  0  0
    6.3375    2.3240    0.0000 C   0  0  0  0  0  0  0  0  0  0  0  0
    6.3405    4.0560    0.0000 C   0  0  0  0  0  0  0  0  0  0  0  0
    7.3405    4.0543    0.0000 C   0  0  0  0  0  0  0  0  0  0  0  0
    5.8390    3.1909    0.0000 C   0  0  0  0  0  0  0  0  0  0  0  0
    5.8420    4.9229    0.0000 C   0  0  0  0  0  0  0  0  0  0  0  0
    6.3435    5.7881    0.0000 C   0  0  0  0  0  0  0  0  0  0  0  0
    4.8420    4.9247    0.0000 C   0  0  0  0  0  0  0  0  0  0  0  0
    5.1904   -1.8010    0.0000 H   0  0  0  0  0  0  0  0  0  0  0  0
    5.1904   -4.5010    0.0000 H   0  0  0  0  0  0  0  0  0  0  0  0
    3.6258   -2.2450    0.0000 H   0  0  0  0  0  0  0  0  0  0  0  0
    5.8845   -4.5226    0.0000 H   0  0  0  0  0  0  0  0  0  0  0  0
    6.6729   -4.2649    0.0000 H   0  0  0  0  0  0  0  0  0  0  0  0
    7.1800   -3.5657    0.0000 H   0  0  0  0  0  0  0  0  0  0  0  0
    7.1800   -2.7362    0.0000 H   0  0  0  0  0  0  0  0  0  0  0  0
    2.9835   -4.4998    0.0000 H   0  0  0  0  0  0  0  0  0  0  0  0
    2.0863   -4.1960    0.0000 H   0  0  0  0  0  0  0  0  0  0  0  0
    1.3804   -4.8316    0.0000 H   0  0  0  0  0  0  0  0  0  0  0  0
    1.6331   -6.0204    0.0000 H   0  0  0  0  0  0  0  0  0  0  0  0
    2.5365   -6.3139    0.0000 H   0  0  0  0  0  0  0  0  0  0  0  0
    4.5189   -1.1993    0.0000 H   0  0  0  0  0  0  0  0  0  0  0  0
    3.7376   -0.8013    0.0000 H   0  0  0  0  0  0  0  0  0  0  0  0
    3.3396   -1.5825    0.0000 H   0  0  0  0  0  0  0  0  0  0  0  0
    7.0353   -0.7070    0.0000 H   0  0  0  0  0  0  0  0  0  0  0  0
    7.7052   -2.2740    0.0000 H   0  0  0  0  0  0  0  0  0  0  0  0
    8.5302   -2.3621    0.0000 H   0  0  0  0  0  0  0  0  0  0  0  0
    9.2847   -1.9283    0.0000 H   0  0  0  0  0  0  0  0  0  0  0  0
    9.6235   -1.1708    0.0000 H   0  0  0  0  0  0  0  0  0  0  0  0
    9.4440   -0.3192    0.0000 H   0  0  0  0  0  0  0  0  0  0  0  0
    8.8284    0.2371    0.0000 H   0  0  0  0  0  0  0  0  0  0  0  0
    8.4560    1.4543    0.0000 H   0  0  0  0  0  0  0  0  0  0  0  0
    8.4590    3.1864    0.0000 H   0  0  0  0  0  0  0  0  0  0  0  0
    6.0266    1.7876    0.0000 H   0  0  0  0  0  0  0  0  0  0  0  0
    7.6514    4.5907    0.0000 H   0  0  0  0  0  0  0  0  0  0  0  0
    5.2190    3.1920    0.0000 H   0  0  0  0  0  0  0  0  0  0  0  0
    5.5310    4.3865    0.0000 H   0  0  0  0  0  0  0  0  0  0  0  0
    6.8799    5.4772    0.0000 H   0  0  0  0  0  0  0  0  0  0  0  0
    6.6544    6.3245    0.0000 H   0  0  0  0  0  0  0  0  0  0  0  0
    5.8071    6.0990    0.0000 H   0  0  0  0  0  0  0  0  0  0  0  0
    4.8430    5.5447    0.0000 H   0  0  0  0  0  0  0  0  0  0  0  0
    4.2220    4.9257    0.0000 H   0  0  0  0  0  0  0  0  0  0  0  0
    4.8409    4.3047    0.0000 H   0  0  0  0  0  0  0  0  0  0  0  0
  1 15  2  0  0  0  0
  2 16  2  0  0  0  0
  3 19  2  0  0  0  0
  4 25  2  0  0  0  0
  5  9  1  0  0  0  0
  5 13  1  0  0  0  0
  5 19  1  0  0  0  0
  6 10  1  0  0  0  0
  6 15  1  0  0  0  0
  6 16  1  0  0  0  0
  7 21  1  0  0  0  0
  7 24  1  0  0  0  0
  7 25  1  0  0  0  0
  8 25  1  0  0  0  0
  8 26  1  0  0  0  0
  8 57  1  0  0  0  0
  9 10  1  0  0  0  0
  9 11  1  0  0  0  0
  9 35  1  6  0  0  0
 10 12  1  0  0  0  0
 10 36  1  1  0  0  0
 11 15  1  0  0  0  0
 11 20  1  1  0  0  0
 11 37  1  0  0  0  0
 12 13  1  0  0  0  0
 12 38  1  0  0  0  0
 12 39  1  0  0  0  0
 13 40  1  0  0  0  0
 13 41  1  0  0  0  0
 14 16  1  0  0  0  0
 14 17  1  0  0  0  0
 14 18  1  0  0  0  0
 14 42  1  0  0  0  0
 17 18  1  0  0  0  0
 17 43  1  0  0  0  0
 17 44  1  0  0  0  0
 18 45  1  0  0  0  0
 18 46  1  0  0  0  0
 21 19  1  1  0  0  0
 20 47  1  0  0  0  0
 20 48  1  0  0  0  0
 20 49  1  0  0  0  0
 21 22  1  0  0  0  0
 21 50  1  0  0  0  0
 22 23  1  0  0  0  0
 22 51  1  0  0  0  0
 22 52  1  0  0  0  0
 23 24  1  0  0  0  0
 23 53  1  0  0  0  0
 23 54  1  0  0  0  0
 24 55  1  0  0  0  0
 24 56  1  0  0  0  0
 26 27  2  0  0  0  0
 26 28  1  0  0  0  0
 27 30  1  0  0  0  0
 27 58  1  0  0  0  0
 28 31  2  0  0  0  0
 28 59  1  0  0  0  0
 29 30  2  0  0  0  0
 29 31  1  0  0  0  0
 29 32  1  0  0  0  0
 30 60  1  0  0  0  0
 31 61  1  0  0  0  0
 32 33  1  0  0  0  0
 32 34  1  0  0  0  0
 32 62  1  0  0  0  0
 33 63  1  0  0  0  0
 33 64  1  0  0  0  0
 33 65  1  0  0  0  0
 34 66  1  0  0  0  0
 34 67  1  0  0  0  0
 34 68  1  0  0  0  0
M  END
> <PUBCHEM_COMPOUND_CID>
511091
> <PUBCHEM_COMPOUND_CANONICALIZED>
1
> <PUBCHEM_CACTVS_COMPLEXITY>
848
> <PUBCHEM_CACTVS_HBOND_ACCEPTOR>
4
> <PUBCHEM_CACTVS_HBOND_DONOR>
1
> <PUBCHEM_CACTVS_ROTATABLE_BOND>
4
> <PUBCHEM_CACTVS_SUBSKEYS>
AAADcfB7uAAAAAAAAAAAAAAAGAAAAWLFgAAwAAAAAAAWAAABAAAAHgAQAAAADSjBmAQzwIPAAACIAiVSUACCAAAhAgAIiAGIZIiIYDrA0bGUIAholiLIyCccicAOiAAAAAAAAAAQAAAAAAAAAAAAAAAAAA==
> <PUBCHEM_IUPAC_OPENEYE_NAME>
(2S)-2-[(3aS,6S,6aR)-4-(cyclopropanecarbonyl)-6-methyl-5-oxo-3,3a,6,6a-tetrahydro-2H-pyrrolo[3,2-b]pyrrole-1-carbonyl]-N-(4-isopropylphenyl)pyrrolidine-1-carboxamide
> <PUBCHEM_IUPAC_CAS_NAME>
(2S)-2-[[(3aS,6S,6aR)-4-[cyclopropyl(oxo)methyl]-6-methyl-5-oxo-3,3a,6,6a-tetrahydro-2H-pyrrolo[3,2-b]pyrrol-1-yl]-oxomethyl]-N-(4-propan-2-ylphenyl)-1-pyrrolidinecarboxamide
> <PUBCHEM_IUPAC_NAME_MARKUP>
(2<I>S</I>)-2-[(3<I>a</I><I>S</I>,6<I>S</I>,6<I>a</I><I>R</I>)-4-(cyclopropanecarbonyl)-6-methyl-5-oxo-3,3<I>a</I>,6,6<I>a</I>-tetrahydro-2<I>H</I>-pyrrolo[3,2-b]pyrrole-1-carbonyl]-<I>N</I>-(4-propan-2-ylphenyl)pyrrolidine-1-carboxamide
> <PUBCHEM_IUPAC_NAME>
(2S)-2-[(3aS,6S,6aR)-4-(cyclopropanecarbonyl)-6-methyl-5-oxo-3,3a,6,6a-tetrahydro-2H-pyrrolo[3,2-b]pyrrole-1-carbonyl]-N-(4-propan-2-ylphenyl)pyrrolidine-1-carboxamide
> <PUBCHEM_IUPAC_SYSTEMATIC_NAME>
(2S)-2-[[(3aS,6S,6aR)-4-cyclopropylcarbonyl-6-methyl-5-oxidanylidene-3,3a,6,6a-tetrahydro-2H-pyrrolo[3,2-b]pyrrol-1-yl]carbonyl]-N-(4-propan-2-ylphenyl)pyrrolidine-1-carboxamide
> <PUBCHEM_IUPAC_TRADITIONAL_NAME>
(2S)-2-[(3aS,6S,6aR)-4-(cyclopropanecarbonyl)-5-keto-6-methyl-3,3a,6,6a-tetrahydro-2H-pyrrolo[3,2-b]pyrrole-1-carbonyl]-N-p-cumenyl-pyrrolidine-1-carboxamide
> <PUBCHEM_IUPAC_INCHI>
InChI=1S/C26H34N4O4/c1-15(2)17-8-10-19(11-9-17)27-26(34)28-13-4-5-21(28)25(33)29-14-12-20-22(29)16(3)23(31)30(20)24(32)18-6-7-18/h8-11,15-16,18,20-22H,4-7,12-14H2,1-3H3,(H,27,34)/t16-,20-,21-,22+/m0/s1
> <PUBCHEM_IUPAC_INCHIKEY>
MALRJMNEGMUHCT-IRNNPGBSSA-N
> <PUBCHEM_XLOGP3_AA>
2.6
> <PUBCHEM_EXACT_MASS>
466.25800558
> <PUBCHEM_MOLECULAR_FORMULA>
C26H34N4O4
> <PUBCHEM_MOLECULAR_WEIGHT>
466.6
> <PUBCHEM_OPENEYE_CAN_SMILES>
CC1C2C(CCN2C(=O)C3CCCN3C(=O)NC4=CC=C(C=C4)C(C)C)N(C1=O)C(=O)C5CC5
> <PUBCHEM_OPENEYE_ISO_SMILES>
C[C@H]1[C@@H]2[C@H](CCN2C(=O)[C@@H]3CCCN3C(=O)NC4=CC=C(C=C4)C(C)C)N(C1=O)C(=O)C5CC5
> <PUBCHEM_CACTVS_TPSA>
90
> <PUBCHEM_MONOISOTOPIC_WEIGHT>
466.25800558
> <PUBCHEM_TOTAL_CHARGE>
0
> <PUBCHEM_HEAVY_ATOM_COUNT>
34
> <PUBCHEM_ATOM_DEF_STEREO_COUNT>
4
> <PUBCHEM_ATOM_UDEF_STEREO_COUNT>
0
> <PUBCHEM_BOND_DEF_STEREO_COUNT>
0
> <PUBCHEM_BOND_UDEF_STEREO_COUNT>
0
> <PUBCHEM_ISOTOPIC_ATOM_COUNT>
0
> <PUBCHEM_COMPONENT_COUNT>
1
> <PUBCHEM_CACTVS_TAUTO_COUNT>
-1
> <PUBCHEM_COORDINATE_TYPE>
1
5
255
> <PUBCHEM_BONDANNOTATIONS>
10  36  5
11  20  5
21  19  5
26  27  8
26  28  8
27  30  8
28  31  8
29  30  8
29  31  8
9  35  6
$$$$
