511077
  -OEChem-10302200282D
 64 69  0     1  0  0  0  0  0999 V2000
    8.3872   -1.8114    0.0000 S   0  0  0  0  0  0  0  0  0  0  0  0
    4.6379    2.8662    0.0000 O   0  0  0  0  0  0  0  0  0  0  0  0
    2.1380    0.9140    0.0000 O   0  0  0  0  0  0  0  0  0  0  0  0
    7.1428   -0.2573    0.0000 O   0  0  0  0  0  0  0  0  0  0  0  0
    7.8872   -0.9453    0.0000 O   0  0  0  0  0  0  0  0  0  0  0  0
    8.8872   -2.6774    0.0000 O   0  0  0  0  0  0  0  0  0  0  0  0
    5.4486   -0.6174    0.0000 N   0  0  0  0  0  0  0  0  0  0  0  0
    3.8316    1.2770    0.0000 N   0  0  0  0  0  0  0  0  0  0  0  0
    7.5212   -2.3114    0.0000 N   0  0  3  0  0  0  0  0  0  0  0  0
    5.1423    0.3282    0.0000 C   0  0  1  0  0  0  0  0  0  0  0  0
    4.1423    0.3265    0.0000 C   0  0  2  0  0  0  0  0  0  0  0  0
    5.4496    1.2798    0.0000 C   0  0  1  0  0  0  0  0  0  0  0  0
    3.8392   -0.6202    0.0000 C   0  0  0  0  0  0  0  0  0  0  0  0
    4.6449   -1.2024    0.0000 C   0  0  0  0  0  0  0  0  0  0  0  0
    2.6704    2.5622    0.0000 C   0  0  0  0  0  0  0  0  0  0  0  0
    4.6396    1.8662    0.0000 C   0  0  0  0  0  0  0  0  0  0  0  0
    2.8800    1.5844    0.0000 C   0  0  0  0  0  0  0  0  0  0  0  0
    2.9778    3.5138    0.0000 C   0  0  0  0  0  0  0  0  0  0  0  0
    2.0000    3.3042    0.0000 C   0  0  0  0  0  0  0  0  0  0  0  0
    6.3997   -0.9265    0.0000 C   0  0  0  0  0  0  0  0  0  0  0  0
    6.6076   -1.9046    0.0000 C   0  0  2  0  0  0  0  0  0  0  0  0
    6.4002    1.5905    0.0000 C   0  0  0  0  0  0  0  0  0  0  0  0
    5.9385   -2.6478    0.0000 C   0  0  0  0  0  0  0  0  0  0  0  0
    6.4385   -3.5138    0.0000 C   0  0  0  0  0  0  0  0  0  0  0  0
    7.4166   -3.3059    0.0000 C   0  0  0  0  0  0  0  0  0  0  0  0
    9.2532   -1.3114    0.0000 C   0  0  0  0  0  0  0  0  0  0  0  0
   10.1192   -1.8114    0.0000 C   0  0  0  0  0  0  0  0  0  0  0  0
    9.2532   -0.3113    0.0000 C   0  0  0  0  0  0  0  0  0  0  0  0
   10.9853   -1.3114    0.0000 C   0  0  0  0  0  0  0  0  0  0  0  0
   10.1192    0.1887    0.0000 C   0  0  0  0  0  0  0  0  0  0  0  0
   10.9853   -0.3113    0.0000 C   0  0  0  0  0  0  0  0  0  0  0  0
   11.8792   -1.8460    0.0000 C   0  0  0  0  0  0  0  0  0  0  0  0
   11.8792    0.2233    0.0000 C   0  0  0  0  0  0  0  0  0  0  0  0
   12.7853   -1.3322    0.0000 C   0  0  0  0  0  0  0  0  0  0  0  0
   12.7853   -0.2905    0.0000 C   0  0  0  0  0  0  0  0  0  0  0  0
    5.9923    0.3286    0.0000 H   0  0  0  0  0  0  0  0  0  0  0  0
    3.2923    0.3239    0.0000 H   0  0  0  0  0  0  0  0  0  0  0  0
    5.8888    0.8422    0.0000 H   0  0  0  0  0  0  0  0  0  0  0  0
    3.2718   -0.3702    0.0000 H   0  0  0  0  0  0  0  0  0  0  0  0
    3.5309   -1.1582    0.0000 H   0  0  0  0  0  0  0  0  0  0  0  0
    4.2310   -1.6640    0.0000 H   0  0  0  0  0  0  0  0  0  0  0  0
    5.0604   -1.6626    0.0000 H   0  0  0  0  0  0  0  0  0  0  0  0
    3.2896    2.5308    0.0000 H   0  0  0  0  0  0  0  0  0  0  0  0
    3.5919    3.4286    0.0000 H   0  0  0  0  0  0  0  0  0  0  0  0
    2.9551    4.1334    0.0000 H   0  0  0  0  0  0  0  0  0  0  0  0
    1.7668    3.8786    0.0000 H   0  0  0  0  0  0  0  0  0  0  0  0
    1.4748    2.9747    0.0000 H   0  0  0  0  0  0  0  0  0  0  0  0
    7.0894   -1.5144    0.0000 H   0  0  0  0  0  0  0  0  0  0  0  0
    6.5928    1.0012    0.0000 H   0  0  0  0  0  0  0  0  0  0  0  0
    6.9895    1.7831    0.0000 H   0  0  0  0  0  0  0  0  0  0  0  0
    6.2076    2.1798    0.0000 H   0  0  0  0  0  0  0  0  0  0  0  0
    5.5236   -2.1870    0.0000 H   0  0  0  0  0  0  0  0  0  0  0  0
    5.4369   -3.0122    0.0000 H   0  0  0  0  0  0  0  0  0  0  0  0
    5.8721   -3.7660    0.0000 H   0  0  0  0  0  0  0  0  0  0  0  0
    6.6301   -4.1034    0.0000 H   0  0  0  0  0  0  0  0  0  0  0  0
    7.4814   -3.9225    0.0000 H   0  0  0  0  0  0  0  0  0  0  0  0
    8.0366   -3.3059    0.0000 H   0  0  0  0  0  0  0  0  0  0  0  0
   10.1192   -2.4314    0.0000 H   0  0  0  0  0  0  0  0  0  0  0  0
    8.7163   -0.0013    0.0000 H   0  0  0  0  0  0  0  0  0  0  0  0
   10.1192    0.8087    0.0000 H   0  0  0  0  0  0  0  0  0  0  0  0
   11.8720   -2.4660    0.0000 H   0  0  0  0  0  0  0  0  0  0  0  0
   11.8720    0.8433    0.0000 H   0  0  0  0  0  0  0  0  0  0  0  0
   13.3210   -1.6442    0.0000 H   0  0  0  0  0  0  0  0  0  0  0  0
   13.3210    0.0215    0.0000 H   0  0  0  0  0  0  0  0  0  0  0  0
  1  5  2  0  0  0  0
  1  6  2  0  0  0  0
  1  9  1  0  0  0  0
  1 26  1  0  0  0  0
  2 16  2  0  0  0  0
  3 17  2  0  0  0  0
  4 20  2  0  0  0  0
  7 10  1  0  0  0  0
  7 14  1  0  0  0  0
  7 20  1  0  0  0  0
  8 11  1  0  0  0  0
  8 16  1  0  0  0  0
  8 17  1  0  0  0  0
  9 21  1  0  0  0  0
  9 25  1  0  0  0  0
 10 11  1  0  0  0  0
 10 12  1  0  0  0  0
 10 36  1  6  0  0  0
 11 13  1  0  0  0  0
 11 37  1  1  0  0  0
 12 16  1  0  0  0  0
 12 22  1  1  0  0  0
 12 38  1  0  0  0  0
 13 14  1  0  0  0  0
 13 39  1  0  0  0  0
 13 40  1  0  0  0  0
 14 41  1  0  0  0  0
 14 42  1  0  0  0  0
 15 17  1  0  0  0  0
 15 18  1  0  0  0  0
 15 19  1  0  0  0  0
 15 43  1  0  0  0  0
 18 19  1  0  0  0  0
 18 44  1  0  0  0  0
 18 45  1  0  0  0  0
 19 46  1  0  0  0  0
 19 47  1  0  0  0  0
 21 20  1  1  0  0  0
 21 23  1  0  0  0  0
 21 48  1  0  0  0  0
 22 49  1  0  0  0  0
 22 50  1  0  0  0  0
 22 51  1  0  0  0  0
 23 24  1  0  0  0  0
 23 52  1  0  0  0  0
 23 53  1  0  0  0  0
 24 25  1  0  0  0  0
 24 54  1  0  0  0  0
 24 55  1  0  0  0  0
 25 56  1  0  0  0  0
 25 57  1  0  0  0  0
 26 27  2  0  0  0  0
 26 28  1  0  0  0  0
 27 29  1  0  0  0  0
 27 58  1  0  0  0  0
 28 30  2  0  0  0  0
 28 59  1  0  0  0  0
 29 31  1  0  0  0  0
 29 32  2  0  0  0  0
 30 31  1  0  0  0  0
 30 60  1  0  0  0  0
 31 33  2  0  0  0  0
 32 34  1  0  0  0  0
 32 61  1  0  0  0  0
 33 35  1  0  0  0  0
 33 62  1  0  0  0  0
 34 35  2  0  0  0  0
 34 63  1  0  0  0  0
 35 64  1  0  0  0  0
M  END
> <PUBCHEM_COMPOUND_CID>
511077
> <PUBCHEM_COMPOUND_CANONICALIZED>
1
> <PUBCHEM_CACTVS_COMPLEXITY>
1000
> <PUBCHEM_CACTVS_HBOND_ACCEPTOR>
6
> <PUBCHEM_CACTVS_HBOND_DONOR>
0
> <PUBCHEM_CACTVS_ROTATABLE_BOND>
4
> <PUBCHEM_CACTVS_SUBSKEYS>
AAADceB7OABAAAAAAAAAAAAAGAAAAWLFgAAwYAAAAAAWAADBUAAAHgQAQAAADSjB2AQyAcMAAAKIAiFSEHBCABAgAAAIiBmIAIgIYDqA0TCUIAAghiCIiAcciYAOkAAAgAAQAAAgAAEAACAAAAAAAAAAAA==
> <PUBCHEM_IUPAC_OPENEYE_NAME>
(3aS,6S,6aR)-4-(cyclopropanecarbonyl)-6-methyl-1-[(2S)-1-(2-naphthylsulfonyl)pyrrolidine-2-carbonyl]-3,3a,6,6a-tetrahydro-2H-pyrrolo[3,2-b]pyrrol-5-one
> <PUBCHEM_IUPAC_CAS_NAME>
(3aS,6S,6aR)-4-[cyclopropyl(oxo)methyl]-6-methyl-1-[[(2S)-1-(2-naphthalenylsulfonyl)-2-pyrrolidinyl]-oxomethyl]-3,3a,6,6a-tetrahydro-2H-pyrrolo[3,2-b]pyrrol-5-one
> <PUBCHEM_IUPAC_NAME_MARKUP>
(3<I>a</I><I>S</I>,6<I>S</I>,6<I>a</I><I>R</I>)-4-(cyclopropanecarbonyl)-6-methyl-1-[(2<I>S</I>)-1-naphthalen-2-ylsulfonylpyrrolidine-2-carbonyl]-3,3<I>a</I>,6,6<I>a</I>-tetrahydro-2<I>H</I>-pyrrolo[3,2-b]pyrrol-5-one
> <PUBCHEM_IUPAC_NAME>
(3aS,6S,6aR)-4-(cyclopropanecarbonyl)-6-methyl-1-[(2S)-1-naphthalen-2-ylsulfonylpyrrolidine-2-carbonyl]-3,3a,6,6a-tetrahydro-2H-pyrrolo[3,2-b]pyrrol-5-one
> <PUBCHEM_IUPAC_SYSTEMATIC_NAME>
(3aS,6S,6aR)-4-cyclopropylcarbonyl-6-methyl-1-[(2S)-1-naphthalen-2-ylsulfonylpyrrolidin-2-yl]carbonyl-3,3a,6,6a-tetrahydro-2H-pyrrolo[3,2-b]pyrrol-5-one
> <PUBCHEM_IUPAC_TRADITIONAL_NAME>
(3aS,6S,6aR)-4-(cyclopropanecarbonyl)-6-methyl-1-[(2S)-1-(2-naphthylsulfonyl)prolyl]-3,3a,6,6a-tetrahydro-2H-pyrrolo[3,2-b]pyrrol-5-one
> <PUBCHEM_IUPAC_INCHI>
InChI=1S/C26H29N3O5S/c1-16-23-21(29(24(16)30)25(31)18-8-9-18)12-14-27(23)26(32)22-7-4-13-28(22)35(33,34)20-11-10-17-5-2-3-6-19(17)15-20/h2-3,5-6,10-11,15-16,18,21-23H,4,7-9,12-14H2,1H3/t16-,21-,22-,23+/m0/s1
> <PUBCHEM_IUPAC_INCHIKEY>
HSRWYGGWAMAASX-YMPRXVIZSA-N
> <PUBCHEM_XLOGP3_AA>
2.6
> <PUBCHEM_EXACT_MASS>
495.18279221
> <PUBCHEM_MOLECULAR_FORMULA>
C26H29N3O5S
> <PUBCHEM_MOLECULAR_WEIGHT>
495.6
> <PUBCHEM_OPENEYE_CAN_SMILES>
CC1C2C(CCN2C(=O)C3CCCN3S(=O)(=O)C4=CC5=CC=CC=C5C=C4)N(C1=O)C(=O)C6CC6
> <PUBCHEM_OPENEYE_ISO_SMILES>
C[C@H]1[C@@H]2[C@H](CCN2C(=O)[C@@H]3CCCN3S(=O)(=O)C4=CC5=CC=CC=C5C=C4)N(C1=O)C(=O)C6CC6
> <PUBCHEM_CACTVS_TPSA>
103
> <PUBCHEM_MONOISOTOPIC_WEIGHT>
495.18279221
> <PUBCHEM_TOTAL_CHARGE>
0
> <PUBCHEM_HEAVY_ATOM_COUNT>
35
> <PUBCHEM_ATOM_DEF_STEREO_COUNT>
4
> <PUBCHEM_ATOM_UDEF_STEREO_COUNT>
0
> <PUBCHEM_BOND_DEF_STEREO_COUNT>
0
> <PUBCHEM_BOND_UDEF_STEREO_COUNT>
0
> <PUBCHEM_ISOTOPIC_ATOM_COUNT>
0
> <PUBCHEM_COMPONENT_COUNT>
1
> <PUBCHEM_CACTVS_TAUTO_COUNT>
-1
> <PUBCHEM_COORDINATE_TYPE>
1
5
255
> <PUBCHEM_BONDANNOTATIONS>
10  36  6
11  37  5
12  22  5
21  20  5
26  27  8
26  28  8
27  29  8
28  30  8
29  31  8
29  32  8
30  31  8
31  33  8
32  34  8
33  35  8
34  35  8
$$$$
