511087
  -OEChem-10302200282D
 66 70  0     1  0  0  0  0  0999 V2000
    2.6504   -2.7158    0.0000 O   0  0  0  0  0  0  0  0  0  0  0  0
    4.5983   -5.2190    0.0000 O   0  0  0  0  0  0  0  0  0  0  0  0
    5.7783   -0.2163    0.0000 O   0  0  0  0  0  0  0  0  0  0  0  0
    6.3345    1.0271    0.0000 O   0  0  0  0  0  0  0  0  0  0  0  0
    6.1355   -1.9111    0.0000 N   0  0  0  0  0  0  0  0  0  0  0  0
    4.2382   -3.5248    0.0000 N   0  0  0  0  0  0  0  0  0  0  0  0
    7.8330    0.1585    0.0000 N   0  0  0  0  0  0  0  0  0  0  0  0
    5.1893   -2.2158    0.0000 C   0  0  1  0  0  0  0  0  0  0  0  0
    5.1893   -3.2158    0.0000 C   0  0  2  0  0  0  0  0  0  0  0  0
    4.2382   -1.9068    0.0000 C   0  0  1  0  0  0  0  0  0  0  0  0
    6.1355   -3.5205    0.0000 C   0  0  0  0  0  0  0  0  0  0  0  0
    6.7191   -2.7158    0.0000 C   0  0  0  0  0  0  0  0  0  0  0  0
    2.9511   -4.6838    0.0000 C   0  0  0  0  0  0  0  0  0  0  0  0
    3.6504   -2.7158    0.0000 C   0  0  0  0  0  0  0  0  0  0  0  0
    3.9292   -4.4759    0.0000 C   0  0  0  0  0  0  0  0  0  0  0  0
    2.0000   -4.3748    0.0000 C   0  0  0  0  0  0  0  0  0  0  0  0
    2.2079   -5.3529    0.0000 C   0  0  0  0  0  0  0  0  0  0  0  0
    6.4462   -0.9606    0.0000 C   0  0  0  0  0  0  0  0  0  0  0  0
    3.9292   -0.9557    0.0000 C   0  0  0  0  0  0  0  0  0  0  0  0
    7.4247   -0.7543    0.0000 C   0  0  2  0  0  0  0  0  0  0  0  0
    8.1666   -1.4248    0.0000 C   0  0  0  0  0  0  0  0  0  0  0  0
    9.0335   -0.9262    0.0000 C   0  0  0  0  0  0  0  0  0  0  0  0
    8.8273    0.0523    0.0000 C   0  0  0  0  0  0  0  0  0  0  0  0
    7.3345    1.0254    0.0000 C   0  0  0  0  0  0  0  0  0  0  0  0
    7.8360    1.8906    0.0000 C   0  0  0  0  0  0  0  0  0  0  0  0
    7.3375    2.7574    0.0000 C   0  0  0  0  0  0  0  0  0  0  0  0
    8.8360    1.8888    0.0000 C   0  0  0  0  0  0  0  0  0  0  0  0
    7.8390    3.6226    0.0000 C   0  0  0  0  0  0  0  0  0  0  0  0
    9.3375    2.7540    0.0000 C   0  0  0  0  0  0  0  0  0  0  0  0
    8.8390    3.6209    0.0000 C   0  0  0  0  0  0  0  0  0  0  0  0
    9.3405    4.4860    0.0000 C   0  0  0  0  0  0  0  0  0  0  0  0
    8.8420    5.3529    0.0000 C   0  0  0  0  0  0  0  0  0  0  0  0
   10.3405    4.4843    0.0000 C   0  0  0  0  0  0  0  0  0  0  0  0
    5.1904   -1.3658    0.0000 H   0  0  0  0  0  0  0  0  0  0  0  0
    5.1904   -4.0658    0.0000 H   0  0  0  0  0  0  0  0  0  0  0  0
    3.6258   -1.8098    0.0000 H   0  0  0  0  0  0  0  0  0  0  0  0
    5.8845   -4.0874    0.0000 H   0  0  0  0  0  0  0  0  0  0  0  0
    6.6729   -3.8298    0.0000 H   0  0  0  0  0  0  0  0  0  0  0  0
    7.1800   -3.1305    0.0000 H   0  0  0  0  0  0  0  0  0  0  0  0
    7.1800   -2.3011    0.0000 H   0  0  0  0  0  0  0  0  0  0  0  0
    2.9835   -4.0646    0.0000 H   0  0  0  0  0  0  0  0  0  0  0  0
    2.0863   -3.7608    0.0000 H   0  0  0  0  0  0  0  0  0  0  0  0
    1.3804   -4.3964    0.0000 H   0  0  0  0  0  0  0  0  0  0  0  0
    1.6331   -5.5852    0.0000 H   0  0  0  0  0  0  0  0  0  0  0  0
    2.5365   -5.8787    0.0000 H   0  0  0  0  0  0  0  0  0  0  0  0
    4.5189   -0.7641    0.0000 H   0  0  0  0  0  0  0  0  0  0  0  0
    3.7376   -0.3661    0.0000 H   0  0  0  0  0  0  0  0  0  0  0  0
    3.3396   -1.1473    0.0000 H   0  0  0  0  0  0  0  0  0  0  0  0
    7.0353   -0.2718    0.0000 H   0  0  0  0  0  0  0  0  0  0  0  0
    7.7052   -1.8388    0.0000 H   0  0  0  0  0  0  0  0  0  0  0  0
    8.5302   -1.9270    0.0000 H   0  0  0  0  0  0  0  0  0  0  0  0
    9.2847   -1.4931    0.0000 H   0  0  0  0  0  0  0  0  0  0  0  0
    9.6235   -0.7357    0.0000 H   0  0  0  0  0  0  0  0  0  0  0  0
    9.4440    0.1160    0.0000 H   0  0  0  0  0  0  0  0  0  0  0  0
    8.8284    0.6723    0.0000 H   0  0  0  0  0  0  0  0  0  0  0  0
    6.7175    2.7585    0.0000 H   0  0  0  0  0  0  0  0  0  0  0  0
    9.1450    1.3514    0.0000 H   0  0  0  0  0  0  0  0  0  0  0  0
    7.5299    4.1601    0.0000 H   0  0  0  0  0  0  0  0  0  0  0  0
    9.9575    2.7529    0.0000 H   0  0  0  0  0  0  0  0  0  0  0  0
    8.7205    4.4871    0.0000 H   0  0  0  0  0  0  0  0  0  0  0  0
    9.3794    5.6620    0.0000 H   0  0  0  0  0  0  0  0  0  0  0  0
    8.5329    5.8904    0.0000 H   0  0  0  0  0  0  0  0  0  0  0  0
    8.3045    5.0438    0.0000 H   0  0  0  0  0  0  0  0  0  0  0  0
   10.3394    3.8643    0.0000 H   0  0  0  0  0  0  0  0  0  0  0  0
   10.9605    4.4832    0.0000 H   0  0  0  0  0  0  0  0  0  0  0  0
   10.3415    5.1043    0.0000 H   0  0  0  0  0  0  0  0  0  0  0  0
  1 14  2  0  0  0  0
  2 15  2  0  0  0  0
  3 18  2  0  0  0  0
  4 24  2  0  0  0  0
  5  8  1  0  0  0  0
  5 12  1  0  0  0  0
  5 18  1  0  0  0  0
  6  9  1  0  0  0  0
  6 14  1  0  0  0  0
  6 15  1  0  0  0  0
  7 20  1  0  0  0  0
  7 23  1  0  0  0  0
  7 24  1  0  0  0  0
  8  9  1  0  0  0  0
  8 10  1  0  0  0  0
  8 34  1  6  0  0  0
  9 11  1  0  0  0  0
  9 35  1  1  0  0  0
 10 14  1  0  0  0  0
 10 19  1  1  0  0  0
 10 36  1  0  0  0  0
 11 12  1  0  0  0  0
 11 37  1  0  0  0  0
 11 38  1  0  0  0  0
 12 39  1  0  0  0  0
 12 40  1  0  0  0  0
 13 15  1  0  0  0  0
 13 16  1  0  0  0  0
 13 17  1  0  0  0  0
 13 41  1  0  0  0  0
 16 17  1  0  0  0  0
 16 42  1  0  0  0  0
 16 43  1  0  0  0  0
 17 44  1  0  0  0  0
 17 45  1  0  0  0  0
 20 18  1  1  0  0  0
 19 46  1  0  0  0  0
 19 47  1  0  0  0  0
 19 48  1  0  0  0  0
 20 21  1  0  0  0  0
 20 49  1  0  0  0  0
 21 22  1  0  0  0  0
 21 50  1  0  0  0  0
 21 51  1  0  0  0  0
 22 23  1  0  0  0  0
 22 52  1  0  0  0  0
 22 53  1  0  0  0  0
 23 54  1  0  0  0  0
 23 55  1  0  0  0  0
 24 25  1  0  0  0  0
 25 26  2  0  0  0  0
 25 27  1  0  0  0  0
 26 28  1  0  0  0  0
 26 56  1  0  0  0  0
 27 29  2  0  0  0  0
 27 57  1  0  0  0  0
 28 30  2  0  0  0  0
 28 58  1  0  0  0  0
 29 30  1  0  0  0  0
 29 59  1  0  0  0  0
 30 31  1  0  0  0  0
 31 32  1  0  0  0  0
 31 33  1  0  0  0  0
 31 60  1  0  0  0  0
 32 61  1  0  0  0  0
 32 62  1  0  0  0  0
 32 63  1  0  0  0  0
 33 64  1  0  0  0  0
 33 65  1  0  0  0  0
 33 66  1  0  0  0  0
M  END
> <PUBCHEM_COMPOUND_CID>
511087
> <PUBCHEM_COMPOUND_CANONICALIZED>
1
> <PUBCHEM_CACTVS_COMPLEXITY>
829
> <PUBCHEM_CACTVS_HBOND_ACCEPTOR>
4
> <PUBCHEM_CACTVS_HBOND_DONOR>
0
> <PUBCHEM_CACTVS_ROTATABLE_BOND>
4
> <PUBCHEM_CACTVS_SUBSKEYS>
AAADcfB7OAAAAAAAAAAAAAAAGAAAAWLFgAAwAAAAAAAWAAABAAAAHgAAAAAADSjBmAQyAIMAAACIAiFSEACCAAAkAAAIiAGIBMgIYDqA1TGUIQhghiCIiYccicCOwAAAAAAAAACAAAAAAAAAAAAAAAAAAA==
> <PUBCHEM_IUPAC_OPENEYE_NAME>
(3aS,6S,6aR)-4-(cyclopropanecarbonyl)-1-[(2S)-1-(4-isopropylbenzoyl)pyrrolidine-2-carbonyl]-6-methyl-3,3a,6,6a-tetrahydro-2H-pyrrolo[3,2-b]pyrrol-5-one
> <PUBCHEM_IUPAC_CAS_NAME>
(3aS,6S,6aR)-4-[cyclopropyl(oxo)methyl]-6-methyl-1-[oxo-[(2S)-1-[oxo-(4-propan-2-ylphenyl)methyl]-2-pyrrolidinyl]methyl]-3,3a,6,6a-tetrahydro-2H-pyrrolo[3,2-b]pyrrol-5-one
> <PUBCHEM_IUPAC_NAME_MARKUP>
(3<I>a</I><I>S</I>,6<I>S</I>,6<I>a</I><I>R</I>)-4-(cyclopropanecarbonyl)-6-methyl-1-[(2<I>S</I>)-1-(4-propan-2-ylbenzoyl)pyrrolidine-2-carbonyl]-3,3<I>a</I>,6,6<I>a</I>-tetrahydro-2<I>H</I>-pyrrolo[3,2-b]pyrrol-5-one
> <PUBCHEM_IUPAC_NAME>
(3aS,6S,6aR)-4-(cyclopropanecarbonyl)-6-methyl-1-[(2S)-1-(4-propan-2-ylbenzoyl)pyrrolidine-2-carbonyl]-3,3a,6,6a-tetrahydro-2H-pyrrolo[3,2-b]pyrrol-5-one
> <PUBCHEM_IUPAC_SYSTEMATIC_NAME>
(3aS,6S,6aR)-4-cyclopropylcarbonyl-6-methyl-1-[(2S)-1-(4-propan-2-ylphenyl)carbonylpyrrolidin-2-yl]carbonyl-3,3a,6,6a-tetrahydro-2H-pyrrolo[3,2-b]pyrrol-5-one
> <PUBCHEM_IUPAC_TRADITIONAL_NAME>
(3aS,6S,6aR)-1-[(2S)-1-cumoylprolyl]-4-(cyclopropanecarbonyl)-6-methyl-3,3a,6,6a-tetrahydro-2H-pyrrolo[3,2-b]pyrrol-5-one
> <PUBCHEM_IUPAC_INCHI>
InChI=1S/C26H33N3O4/c1-15(2)17-6-8-18(9-7-17)24(31)27-13-4-5-21(27)26(33)28-14-12-20-22(28)16(3)23(30)29(20)25(32)19-10-11-19/h6-9,15-16,19-22H,4-5,10-14H2,1-3H3/t16-,20-,21-,22+/m0/s1
> <PUBCHEM_IUPAC_INCHIKEY>
RHAFCBGUNMILGM-IRNNPGBSSA-N
> <PUBCHEM_XLOGP3_AA>
2.8
> <PUBCHEM_EXACT_MASS>
451.24710654
> <PUBCHEM_MOLECULAR_FORMULA>
C26H33N3O4
> <PUBCHEM_MOLECULAR_WEIGHT>
451.6
> <PUBCHEM_OPENEYE_CAN_SMILES>
CC1C2C(CCN2C(=O)C3CCCN3C(=O)C4=CC=C(C=C4)C(C)C)N(C1=O)C(=O)C5CC5
> <PUBCHEM_OPENEYE_ISO_SMILES>
C[C@H]1[C@@H]2[C@H](CCN2C(=O)[C@@H]3CCCN3C(=O)C4=CC=C(C=C4)C(C)C)N(C1=O)C(=O)C5CC5
> <PUBCHEM_CACTVS_TPSA>
78
> <PUBCHEM_MONOISOTOPIC_WEIGHT>
451.24710654
> <PUBCHEM_TOTAL_CHARGE>
0
> <PUBCHEM_HEAVY_ATOM_COUNT>
33
> <PUBCHEM_ATOM_DEF_STEREO_COUNT>
4
> <PUBCHEM_ATOM_UDEF_STEREO_COUNT>
0
> <PUBCHEM_BOND_DEF_STEREO_COUNT>
0
> <PUBCHEM_BOND_UDEF_STEREO_COUNT>
0
> <PUBCHEM_ISOTOPIC_ATOM_COUNT>
0
> <PUBCHEM_COMPONENT_COUNT>
1
> <PUBCHEM_CACTVS_TAUTO_COUNT>
-1
> <PUBCHEM_COORDINATE_TYPE>
1
5
255
> <PUBCHEM_BONDANNOTATIONS>
10  19  5
20  18  5
25  26  8
25  27  8
26  28  8
27  29  8
28  30  8
29  30  8
8  34  6
9  35  5
$$$$
