511020
  -OEChem-10302200282D
 53 55  0     1  0  0  0  0  0999 V2000
   10.3353    1.3251    0.0000 O   0  0  0  0  0  0  0  0  0  0  0  0
   12.6867    0.2450    0.0000 O   0  0  0  0  0  0  0  0  0  0  0  0
   12.6796    2.4206    0.0000 O   0  0  0  0  0  0  0  0  0  0  0  0
    9.6295    3.2908    0.0000 O   0  0  0  0  0  0  0  0  0  0  0  0
    9.1078    0.8521    0.0000 O   0  0  0  0  0  0  0  0  0  0  0  0
    9.1288   -3.3446    0.0000 O   0  0  0  0  0  0  0  0  0  0  0  0
   10.6198   -0.4340    0.0000 N   0  0  0  0  0  0  0  0  0  0  0  0
   10.6278   -2.0435    0.0000 N   0  0  0  0  0  0  0  0  0  0  0  0
    7.9164   -0.3513    0.0000 N   0  0  0  0  0  0  0  0  0  0  0  0
    6.4870   -1.2594    0.0000 N   0  0  0  0  0  0  0  0  0  0  0  0
    7.9254   -2.1532    0.0000 N   0  0  0  0  0  0  0  0  0  0  0  0
   11.8758    0.8301    0.0000 C   0  0  1  0  0  0  0  0  0  0  0  0
   10.9257    0.5180    0.0000 C   0  0  1  0  0  0  0  0  0  0  0  0
   11.8725    1.8301    0.0000 C   0  0  1  0  0  0  0  0  0  0  0  0
   10.9204    2.1361    0.0000 C   0  0  1  0  0  0  0  0  0  0  0  0
   10.6083    3.0861    0.0000 C   0  0  0  0  0  0  0  0  0  0  0  0
    9.6751   -0.7435    0.0000 C   0  0  0  0  0  0  0  0  0  0  0  0
   11.2074   -1.2358    0.0000 C   0  0  0  0  0  0  0  0  0  0  0  0
    9.6801   -1.7435    0.0000 C   0  0  0  0  0  0  0  0  0  0  0  0
    8.8902   -0.1239    0.0000 C   0  0  0  0  0  0  0  0  0  0  0  0
    8.9014   -2.3708    0.0000 C   0  0  0  0  0  0  0  0  0  0  0  0
    4.9913   -2.1329    0.0000 C   0  0  0  0  0  0  0  0  0  0  0  0
    4.4957   -3.0014    0.0000 C   0  0  0  0  0  0  0  0  0  0  0  0
    7.4870   -1.2544    0.0000 C   0  0  0  0  0  0  0  0  0  0  0  0
    5.9913   -2.1279    0.0000 C   0  0  0  0  0  0  0  0  0  0  0  0
    3.4957   -3.0064    0.0000 C   0  0  0  0  0  0  0  0  0  0  0  0
    3.0000   -3.8749    0.0000 C   0  0  0  0  0  0  0  0  0  0  0  0
    2.0000   -3.8799    0.0000 C   0  0  0  0  0  0  0  0  0  0  0  0
   12.4273    1.1134    0.0000 H   0  0  0  0  0  0  0  0  0  0  0  0
   11.3655    0.0811    0.0000 H   0  0  0  0  0  0  0  0  0  0  0  0
   12.4258    1.5505    0.0000 H   0  0  0  0  0  0  0  0  0  0  0  0
   10.3078    2.2311    0.0000 H   0  0  0  0  0  0  0  0  0  0  0  0
   11.2220    3.1744    0.0000 H   0  0  0  0  0  0  0  0  0  0  0  0
   10.6279    3.7058    0.0000 H   0  0  0  0  0  0  0  0  0  0  0  0
   13.2523    0.4990    0.0000 H   0  0  0  0  0  0  0  0  0  0  0  0
   12.6128    3.0370    0.0000 H   0  0  0  0  0  0  0  0  0  0  0  0
   11.8274   -1.2327    0.0000 H   0  0  0  0  0  0  0  0  0  0  0  0
    9.4360    3.8799    0.0000 H   0  0  0  0  0  0  0  0  0  0  0  0
    7.5274    0.1315    0.0000 H   0  0  0  0  0  0  0  0  0  0  0  0
    5.0959   -1.5218    0.0000 H   0  0  0  0  0  0  0  0  0  0  0  0
    4.4077   -1.9237    0.0000 H   0  0  0  0  0  0  0  0  0  0  0  0
    4.3910   -3.6125    0.0000 H   0  0  0  0  0  0  0  0  0  0  0  0
    5.0793   -3.2105    0.0000 H   0  0  0  0  0  0  0  0  0  0  0  0
    5.8867   -2.7390    0.0000 H   0  0  0  0  0  0  0  0  0  0  0  0
    6.5750   -2.3370    0.0000 H   0  0  0  0  0  0  0  0  0  0  0  0
    3.6003   -2.3952    0.0000 H   0  0  0  0  0  0  0  0  0  0  0  0
    2.9120   -2.7972    0.0000 H   0  0  0  0  0  0  0  0  0  0  0  0
    6.1743   -0.7240    0.0000 H   0  0  0  0  0  0  0  0  0  0  0  0
    2.8954   -4.4860    0.0000 H   0  0  0  0  0  0  0  0  0  0  0  0
    3.5836   -4.0840    0.0000 H   0  0  0  0  0  0  0  0  0  0  0  0
    1.9969   -3.2599    0.0000 H   0  0  0  0  0  0  0  0  0  0  0  0
    1.3800   -3.8830    0.0000 H   0  0  0  0  0  0  0  0  0  0  0  0
    2.0031   -4.4998    0.0000 H   0  0  0  0  0  0  0  0  0  0  0  0
  1 13  1  0  0  0  0
  1 15  1  0  0  0  0
 12  2  1  1  0  0  0
  2 35  1  0  0  0  0
 14  3  1  1  0  0  0
  3 36  1  0  0  0  0
  4 16  1  0  0  0  0
  4 38  1  0  0  0  0
  5 20  2  0  0  0  0
  6 21  2  0  0  0  0
 13  7  1  6  0  0  0
  7 17  1  0  0  0  0
  7 18  1  0  0  0  0
  8 18  2  0  0  0  0
  8 19  1  0  0  0  0
  9 20  1  0  0  0  0
  9 24  1  0  0  0  0
  9 39  1  0  0  0  0
 10 24  1  0  0  0  0
 10 25  1  0  0  0  0
 10 48  1  0  0  0  0
 11 21  1  0  0  0  0
 11 24  2  0  0  0  0
 12 13  1  0  0  0  0
 12 14  1  0  0  0  0
 12 29  1  0  0  0  0
 13 30  1  0  0  0  0
 14 15  1  0  0  0  0
 14 31  1  0  0  0  0
 15 16  1  6  0  0  0
 15 32  1  0  0  0  0
 16 33  1  0  0  0  0
 16 34  1  0  0  0  0
 17 19  2  0  0  0  0
 17 20  1  0  0  0  0
 18 37  1  0  0  0  0
 19 21  1  0  0  0  0
 22 23  1  0  0  0  0
 22 25  1  0  0  0  0
 22 40  1  0  0  0  0
 22 41  1  0  0  0  0
 23 26  1  0  0  0  0
 23 42  1  0  0  0  0
 23 43  1  0  0  0  0
 25 44  1  0  0  0  0
 25 45  1  0  0  0  0
 26 27  1  0  0  0  0
 26 46  1  0  0  0  0
 26 47  1  0  0  0  0
 27 28  1  0  0  0  0
 27 49  1  0  0  0  0
 27 50  1  0  0  0  0
 28 51  1  0  0  0  0
 28 52  1  0  0  0  0
 28 53  1  0  0  0  0
M  END
> <PUBCHEM_COMPOUND_CID>
511020
> <PUBCHEM_COMPOUND_CANONICALIZED>
1
> <PUBCHEM_CACTVS_COMPLEXITY>
617
> <PUBCHEM_CACTVS_HBOND_ACCEPTOR>
7
> <PUBCHEM_CACTVS_HBOND_DONOR>
5
> <PUBCHEM_CACTVS_ROTATABLE_BOND>
8
> <PUBCHEM_CACTVS_SUBSKEYS>
AAADceB7uAAAAAAAAAAAAAAAAAAAAWJAAAAAAAAABAAAAACBgAAAHgAQCAAACBzhlgYHkBfMFgCoAQVxdACAgC0XEKABWIGoVECDWBpAyCAeQYhPEQLTAWH1MAIAAAAAAAAAAAAAAAAAAAAAAAAAAAAAAA==
> <PUBCHEM_IUPAC_OPENEYE_NAME>
1-[(2R,3R,4S,5R)-3,4-dihydroxy-5-(hydroxymethyl)tetrahydrofuran-2-yl]-6-(hexylamino)-7H-imidazo[4,5-e][1,3]diazepine-4,8-dione
> <PUBCHEM_IUPAC_CAS_NAME>
1-[(2R,3R,4S,5R)-3,4-dihydroxy-5-(hydroxymethyl)-2-oxolanyl]-6-(hexylamino)-7H-imidazo[4,5-e][1,3]diazepine-4,8-dione
> <PUBCHEM_IUPAC_NAME_MARKUP>
1-[(2<I>R</I>,3<I>R</I>,4<I>S</I>,5<I>R</I>)-3,4-dihydroxy-5-(hydroxymethyl)oxolan-2-yl]-6-(hexylamino)-7<I>H</I>-imidazo[4,5-e][1,3]diazepine-4,8-dione
> <PUBCHEM_IUPAC_NAME>
1-[(2R,3R,4S,5R)-3,4-dihydroxy-5-(hydroxymethyl)oxolan-2-yl]-6-(hexylamino)-7H-imidazo[4,5-e][1,3]diazepine-4,8-dione
> <PUBCHEM_IUPAC_SYSTEMATIC_NAME>
6-(hexylamino)-1-[(2R,3R,4S,5R)-5-(hydroxymethyl)-3,4-bis(oxidanyl)oxolan-2-yl]-7H-imidazo[4,5-e][1,3]diazepine-4,8-dione
> <PUBCHEM_IUPAC_TRADITIONAL_NAME>
1-[(2R,3R,4S,5R)-3,4-dihydroxy-5-methylol-tetrahydrofuran-2-yl]-6-(hexylamino)-7H-imidazo[4,5-e][1,3]diazepine-4,8-quinone
> <PUBCHEM_IUPAC_INCHI>
InChI=1S/C17H25N5O6/c1-2-3-4-5-6-18-17-20-14(26)10-11(15(27)21-17)22(8-19-10)16-13(25)12(24)9(7-23)28-16/h8-9,12-13,16,23-25H,2-7H2,1H3,(H2,18,20,21,26,27)/t9-,12-,13-,16-/m1/s1
> <PUBCHEM_IUPAC_INCHIKEY>
HDUFLGXBVRHKSW-RVXWVPLUSA-N
> <PUBCHEM_XLOGP3>
0.7
> <PUBCHEM_EXACT_MASS>
395.18048353
> <PUBCHEM_MOLECULAR_FORMULA>
C17H25N5O6
> <PUBCHEM_MOLECULAR_WEIGHT>
395.4
> <PUBCHEM_OPENEYE_CAN_SMILES>
CCCCCCNC1=NC(=O)C2=C(C(=O)N1)N(C=N2)C3C(C(C(O3)CO)O)O
> <PUBCHEM_OPENEYE_ISO_SMILES>
CCCCCCNC1=NC(=O)C2=C(C(=O)N1)N(C=N2)[C@H]3[C@@H]([C@@H]([C@H](O3)CO)O)O
> <PUBCHEM_CACTVS_TPSA>
158
> <PUBCHEM_MONOISOTOPIC_WEIGHT>
395.18048353
> <PUBCHEM_TOTAL_CHARGE>
0
> <PUBCHEM_HEAVY_ATOM_COUNT>
28
> <PUBCHEM_ATOM_DEF_STEREO_COUNT>
4
> <PUBCHEM_ATOM_UDEF_STEREO_COUNT>
0
> <PUBCHEM_BOND_DEF_STEREO_COUNT>
0
> <PUBCHEM_BOND_UDEF_STEREO_COUNT>
0
> <PUBCHEM_ISOTOPIC_ATOM_COUNT>
0
> <PUBCHEM_COMPONENT_COUNT>
1
> <PUBCHEM_CACTVS_TAUTO_COUNT>
-1
> <PUBCHEM_COORDINATE_TYPE>
1
5
255
> <PUBCHEM_BONDANNOTATIONS>
11  21  8
11  24  8
15  16  6
17  19  8
17  20  8
19  21  8
12  2  5
14  3  5
13  7  6
7  17  8
7  18  8
8  18  8
8  19  8
9  20  8
9  24  8
$$$$
