511079
  -OEChem-10302200282D
 58 62  0     1  0  0  0  0  0999 V2000
    7.3345    1.8888    0.0000 S   0  0  0  0  0  0  0  0  0  0  0  0
    2.6504   -1.8524    0.0000 O   0  0  0  0  0  0  0  0  0  0  0  0
    4.5983   -4.3556    0.0000 O   0  0  0  0  0  0  0  0  0  0  0  0
    5.7783    0.6472    0.0000 O   0  0  0  0  0  0  0  0  0  0  0  0
    8.2014    2.3873    0.0000 O   0  0  0  0  0  0  0  0  0  0  0  0
    6.4676    1.3903    0.0000 O   0  0  0  0  0  0  0  0  0  0  0  0
    6.1355   -1.0476    0.0000 N   0  0  0  0  0  0  0  0  0  0  0  0
    4.2382   -2.6614    0.0000 N   0  0  0  0  0  0  0  0  0  0  0  0
    7.8330    1.0219    0.0000 N   0  0  3  0  0  0  0  0  0  0  0  0
    5.1893   -1.3524    0.0000 C   0  0  1  0  0  0  0  0  0  0  0  0
    5.1893   -2.3524    0.0000 C   0  0  2  0  0  0  0  0  0  0  0  0
    4.2382   -1.0434    0.0000 C   0  0  1  0  0  0  0  0  0  0  0  0
    6.1355   -2.6571    0.0000 C   0  0  0  0  0  0  0  0  0  0  0  0
    6.7191   -1.8524    0.0000 C   0  0  0  0  0  0  0  0  0  0  0  0
    2.9511   -3.8204    0.0000 C   0  0  0  0  0  0  0  0  0  0  0  0
    3.6504   -1.8524    0.0000 C   0  0  0  0  0  0  0  0  0  0  0  0
    3.9292   -3.6124    0.0000 C   0  0  0  0  0  0  0  0  0  0  0  0
    2.0000   -3.5113    0.0000 C   0  0  0  0  0  0  0  0  0  0  0  0
    2.2079   -4.4895    0.0000 C   0  0  0  0  0  0  0  0  0  0  0  0
    6.4462   -0.0971    0.0000 C   0  0  0  0  0  0  0  0  0  0  0  0
    7.4247    0.1091    0.0000 C   0  0  2  0  0  0  0  0  0  0  0  0
    3.9292   -0.0923    0.0000 C   0  0  0  0  0  0  0  0  0  0  0  0
    8.1666   -0.5613    0.0000 C   0  0  0  0  0  0  0  0  0  0  0  0
    9.0335   -0.0628    0.0000 C   0  0  0  0  0  0  0  0  0  0  0  0
    8.8273    0.9157    0.0000 C   0  0  0  0  0  0  0  0  0  0  0  0
    6.8360    2.7557    0.0000 C   0  0  0  0  0  0  0  0  0  0  0  0
    5.8360    2.7574    0.0000 C   0  0  0  0  0  0  0  0  0  0  0  0
    7.3375    3.6209    0.0000 C   0  0  0  0  0  0  0  0  0  0  0  0
    5.3375    3.6243    0.0000 C   0  0  0  0  0  0  0  0  0  0  0  0
    6.8390    4.4878    0.0000 C   0  0  0  0  0  0  0  0  0  0  0  0
    5.8390    4.4895    0.0000 C   0  0  0  0  0  0  0  0  0  0  0  0
    5.1904   -0.5024    0.0000 H   0  0  0  0  0  0  0  0  0  0  0  0
    5.1904   -3.2024    0.0000 H   0  0  0  0  0  0  0  0  0  0  0  0
    3.6258   -0.9464    0.0000 H   0  0  0  0  0  0  0  0  0  0  0  0
    5.8845   -3.2240    0.0000 H   0  0  0  0  0  0  0  0  0  0  0  0
    6.6729   -2.9663    0.0000 H   0  0  0  0  0  0  0  0  0  0  0  0
    7.1800   -2.2671    0.0000 H   0  0  0  0  0  0  0  0  0  0  0  0
    7.1800   -1.4377    0.0000 H   0  0  0  0  0  0  0  0  0  0  0  0
    2.9835   -3.2012    0.0000 H   0  0  0  0  0  0  0  0  0  0  0  0
    2.0863   -2.8974    0.0000 H   0  0  0  0  0  0  0  0  0  0  0  0
    1.3804   -3.5330    0.0000 H   0  0  0  0  0  0  0  0  0  0  0  0
    1.6331   -4.7218    0.0000 H   0  0  0  0  0  0  0  0  0  0  0  0
    2.5365   -5.0153    0.0000 H   0  0  0  0  0  0  0  0  0  0  0  0
    7.0353    0.5916    0.0000 H   0  0  0  0  0  0  0  0  0  0  0  0
    4.5189    0.0993    0.0000 H   0  0  0  0  0  0  0  0  0  0  0  0
    3.7376    0.4974    0.0000 H   0  0  0  0  0  0  0  0  0  0  0  0
    3.3396   -0.2839    0.0000 H   0  0  0  0  0  0  0  0  0  0  0  0
    7.7052   -0.9754    0.0000 H   0  0  0  0  0  0  0  0  0  0  0  0
    8.5302   -1.0635    0.0000 H   0  0  0  0  0  0  0  0  0  0  0  0
    9.2847   -0.6297    0.0000 H   0  0  0  0  0  0  0  0  0  0  0  0
    9.6235    0.1278    0.0000 H   0  0  0  0  0  0  0  0  0  0  0  0
    9.4440    0.9794    0.0000 H   0  0  0  0  0  0  0  0  0  0  0  0
    8.8284    1.5357    0.0000 H   0  0  0  0  0  0  0  0  0  0  0  0
    5.5250    2.2210    0.0000 H   0  0  0  0  0  0  0  0  0  0  0  0
    7.9575    3.6198    0.0000 H   0  0  0  0  0  0  0  0  0  0  0  0
    4.7175    3.6254    0.0000 H   0  0  0  0  0  0  0  0  0  0  0  0
    7.1499    5.0242    0.0000 H   0  0  0  0  0  0  0  0  0  0  0  0
    5.5299    5.0270    0.0000 H   0  0  0  0  0  0  0  0  0  0  0  0
  1  5  2  0  0  0  0
  1  6  2  0  0  0  0
  1  9  1  0  0  0  0
  1 26  1  0  0  0  0
  2 16  2  0  0  0  0
  3 17  2  0  0  0  0
  4 20  2  0  0  0  0
  7 10  1  0  0  0  0
  7 14  1  0  0  0  0
  7 20  1  0  0  0  0
  8 11  1  0  0  0  0
  8 16  1  0  0  0  0
  8 17  1  0  0  0  0
  9 21  1  0  0  0  0
  9 25  1  0  0  0  0
 10 11  1  0  0  0  0
 10 12  1  0  0  0  0
 10 32  1  6  0  0  0
 11 13  1  0  0  0  0
 11 33  1  1  0  0  0
 12 16  1  0  0  0  0
 12 22  1  1  0  0  0
 12 34  1  0  0  0  0
 13 14  1  0  0  0  0
 13 35  1  0  0  0  0
 13 36  1  0  0  0  0
 14 37  1  0  0  0  0
 14 38  1  0  0  0  0
 15 17  1  0  0  0  0
 15 18  1  0  0  0  0
 15 19  1  0  0  0  0
 15 39  1  0  0  0  0
 18 19  1  0  0  0  0
 18 40  1  0  0  0  0
 18 41  1  0  0  0  0
 19 42  1  0  0  0  0
 19 43  1  0  0  0  0
 21 20  1  1  0  0  0
 21 23  1  0  0  0  0
 21 44  1  0  0  0  0
 22 45  1  0  0  0  0
 22 46  1  0  0  0  0
 22 47  1  0  0  0  0
 23 24  1  0  0  0  0
 23 48  1  0  0  0  0
 23 49  1  0  0  0  0
 24 25  1  0  0  0  0
 24 50  1  0  0  0  0
 24 51  1  0  0  0  0
 25 52  1  0  0  0  0
 25 53  1  0  0  0  0
 26 27  2  0  0  0  0
 26 28  1  0  0  0  0
 27 29  1  0  0  0  0
 27 54  1  0  0  0  0
 28 30  2  0  0  0  0
 28 55  1  0  0  0  0
 29 31  2  0  0  0  0
 29 56  1  0  0  0  0
 30 31  1  0  0  0  0
 30 57  1  0  0  0  0
 31 58  1  0  0  0  0
M  END
> <PUBCHEM_COMPOUND_CID>
511079
> <PUBCHEM_COMPOUND_CANONICALIZED>
1
> <PUBCHEM_CACTVS_COMPLEXITY>
874
> <PUBCHEM_CACTVS_HBOND_ACCEPTOR>
6
> <PUBCHEM_CACTVS_HBOND_DONOR>
0
> <PUBCHEM_CACTVS_ROTATABLE_BOND>
4
> <PUBCHEM_CACTVS_SUBSKEYS>
AAADceB7OABAAAAAAAAAAAAAGAAAAWLFgAAwAAAAAAAWAAABAAAAHgQAQAAADSjB0AQyAYMAAAKIACFSEHBCABAgAAAIiBmIAIgIYDqA0TCUIAAghiCIiAccCQAMAAAAAAAAAAAAAAAAAAAAAAAAAAAAAA==
> <PUBCHEM_IUPAC_OPENEYE_NAME>
(3aS,6S,6aR)-1-[(2S)-1-(benzenesulfonyl)pyrrolidine-2-carbonyl]-4-(cyclopropanecarbonyl)-6-methyl-3,3a,6,6a-tetrahydro-2H-pyrrolo[3,2-b]pyrrol-5-one
> <PUBCHEM_IUPAC_CAS_NAME>
(3aS,6S,6aR)-1-[[(2S)-1-(benzenesulfonyl)-2-pyrrolidinyl]-oxomethyl]-4-[cyclopropyl(oxo)methyl]-6-methyl-3,3a,6,6a-tetrahydro-2H-pyrrolo[3,2-b]pyrrol-5-one
> <PUBCHEM_IUPAC_NAME_MARKUP>
(3<I>a</I><I>S</I>,6<I>S</I>,6<I>a</I><I>R</I>)-1-[(2<I>S</I>)-1-(benzenesulfonyl)pyrrolidine-2-carbonyl]-4-(cyclopropanecarbonyl)-6-methyl-3,3<I>a</I>,6,6<I>a</I>-tetrahydro-2<I>H</I>-pyrrolo[3,2-b]pyrrol-5-one
> <PUBCHEM_IUPAC_NAME>
(3aS,6S,6aR)-1-[(2S)-1-(benzenesulfonyl)pyrrolidine-2-carbonyl]-4-(cyclopropanecarbonyl)-6-methyl-3,3a,6,6a-tetrahydro-2H-pyrrolo[3,2-b]pyrrol-5-one
> <PUBCHEM_IUPAC_SYSTEMATIC_NAME>
(3aS,6S,6aR)-4-cyclopropylcarbonyl-6-methyl-1-[(2S)-1-(phenylsulfonyl)pyrrolidin-2-yl]carbonyl-3,3a,6,6a-tetrahydro-2H-pyrrolo[3,2-b]pyrrol-5-one
> <PUBCHEM_IUPAC_TRADITIONAL_NAME>
(3aS,6S,6aR)-1-[(2S)-1-besylprolyl]-4-(cyclopropanecarbonyl)-6-methyl-3,3a,6,6a-tetrahydro-2H-pyrrolo[3,2-b]pyrrol-5-one
> <PUBCHEM_IUPAC_INCHI>
InChI=1S/C22H27N3O5S/c1-14-19-17(25(20(14)26)21(27)15-9-10-15)11-13-23(19)22(28)18-8-5-12-24(18)31(29,30)16-6-3-2-4-7-16/h2-4,6-7,14-15,17-19H,5,8-13H2,1H3/t14-,17-,18-,19+/m0/s1
> <PUBCHEM_IUPAC_INCHIKEY>
SWVJBPJNKFQAQG-UDTPNQRGSA-N
> <PUBCHEM_XLOGP3_AA>
1.4
> <PUBCHEM_EXACT_MASS>
445.16714214
> <PUBCHEM_MOLECULAR_FORMULA>
C22H27N3O5S
> <PUBCHEM_MOLECULAR_WEIGHT>
445.5
> <PUBCHEM_OPENEYE_CAN_SMILES>
CC1C2C(CCN2C(=O)C3CCCN3S(=O)(=O)C4=CC=CC=C4)N(C1=O)C(=O)C5CC5
> <PUBCHEM_OPENEYE_ISO_SMILES>
C[C@H]1[C@@H]2[C@H](CCN2C(=O)[C@@H]3CCCN3S(=O)(=O)C4=CC=CC=C4)N(C1=O)C(=O)C5CC5
> <PUBCHEM_CACTVS_TPSA>
103
> <PUBCHEM_MONOISOTOPIC_WEIGHT>
445.16714214
> <PUBCHEM_TOTAL_CHARGE>
0
> <PUBCHEM_HEAVY_ATOM_COUNT>
31
> <PUBCHEM_ATOM_DEF_STEREO_COUNT>
4
> <PUBCHEM_ATOM_UDEF_STEREO_COUNT>
0
> <PUBCHEM_BOND_DEF_STEREO_COUNT>
0
> <PUBCHEM_BOND_UDEF_STEREO_COUNT>
0
> <PUBCHEM_ISOTOPIC_ATOM_COUNT>
0
> <PUBCHEM_COMPONENT_COUNT>
1
> <PUBCHEM_CACTVS_TAUTO_COUNT>
-1
> <PUBCHEM_COORDINATE_TYPE>
1
5
255
> <PUBCHEM_BONDANNOTATIONS>
10  32  6
11  33  5
12  22  5
21  20  5
26  27  8
26  28  8
27  29  8
28  30  8
29  31  8
30  31  8
$$$$
