511026
  -OEChem-10302200282D
 83 85  0     1  0  0  0  0  0999 V2000
   17.8136    3.5089    0.0000 O   0  0  0  0  0  0  0  0  0  0  0  0
   20.1650    2.4287    0.0000 O   0  0  0  0  0  0  0  0  0  0  0  0
   20.1579    4.6043    0.0000 O   0  0  0  0  0  0  0  0  0  0  0  0
   17.1078    5.4746    0.0000 O   0  0  0  0  0  0  0  0  0  0  0  0
   16.5861    3.0359    0.0000 O   0  0  0  0  0  0  0  0  0  0  0  0
   16.6071   -1.1609    0.0000 O   0  0  0  0  0  0  0  0  0  0  0  0
   18.0981    1.7497    0.0000 N   0  0  0  0  0  0  0  0  0  0  0  0
   18.1061    0.1403    0.0000 N   0  0  0  0  0  0  0  0  0  0  0  0
   15.3947    1.8325    0.0000 N   0  0  0  0  0  0  0  0  0  0  0  0
   13.9653    0.9244    0.0000 N   0  0  0  0  0  0  0  0  0  0  0  0
   15.4037    0.0306    0.0000 N   0  0  0  0  0  0  0  0  0  0  0  0
   19.3541    3.0139    0.0000 C   0  0  1  0  0  0  0  0  0  0  0  0
   18.4040    2.7018    0.0000 C   0  0  1  0  0  0  0  0  0  0  0  0
   19.3508    4.0139    0.0000 C   0  0  1  0  0  0  0  0  0  0  0  0
   18.3988    4.3198    0.0000 C   0  0  1  0  0  0  0  0  0  0  0  0
   18.0866    5.2698    0.0000 C   0  0  0  0  0  0  0  0  0  0  0  0
   17.1534    1.4403    0.0000 C   0  0  0  0  0  0  0  0  0  0  0  0
   18.6857    0.9479    0.0000 C   0  0  0  0  0  0  0  0  0  0  0  0
   17.1584    0.4403    0.0000 C   0  0  0  0  0  0  0  0  0  0  0  0
    7.9826   -2.5696    0.0000 C   0  0  0  0  0  0  0  0  0  0  0  0
    8.9826   -2.5646    0.0000 C   0  0  0  0  0  0  0  0  0  0  0  0
    7.4870   -3.4381    0.0000 C   0  0  0  0  0  0  0  0  0  0  0  0
    9.4783   -1.6961    0.0000 C   0  0  0  0  0  0  0  0  0  0  0  0
    6.4870   -3.4431    0.0000 C   0  0  0  0  0  0  0  0  0  0  0  0
   10.4783   -1.6911    0.0000 C   0  0  0  0  0  0  0  0  0  0  0  0
   16.3685    2.0598    0.0000 C   0  0  0  0  0  0  0  0  0  0  0  0
    5.9913   -4.3116    0.0000 C   0  0  0  0  0  0  0  0  0  0  0  0
   10.9740   -0.8226    0.0000 C   0  0  0  0  0  0  0  0  0  0  0  0
   11.9740   -0.8176    0.0000 C   0  0  0  0  0  0  0  0  0  0  0  0
    4.9913   -4.3166    0.0000 C   0  0  0  0  0  0  0  0  0  0  0  0
   12.4696    0.0509    0.0000 C   0  0  0  0  0  0  0  0  0  0  0  0
    4.4957   -5.1851    0.0000 C   0  0  0  0  0  0  0  0  0  0  0  0
   16.3797   -0.1871    0.0000 C   0  0  0  0  0  0  0  0  0  0  0  0
   13.4696    0.0559    0.0000 C   0  0  0  0  0  0  0  0  0  0  0  0
    3.4957   -5.1901    0.0000 C   0  0  0  0  0  0  0  0  0  0  0  0
   14.9653    0.9293    0.0000 C   0  0  0  0  0  0  0  0  0  0  0  0
    3.0000   -6.0586    0.0000 C   0  0  0  0  0  0  0  0  0  0  0  0
    2.0000   -6.0636    0.0000 C   0  0  0  0  0  0  0  0  0  0  0  0
   19.9056    3.2972    0.0000 H   0  0  0  0  0  0  0  0  0  0  0  0
   18.8439    2.2648    0.0000 H   0  0  0  0  0  0  0  0  0  0  0  0
   19.9041    3.7342    0.0000 H   0  0  0  0  0  0  0  0  0  0  0  0
   17.7861    4.4148    0.0000 H   0  0  0  0  0  0  0  0  0  0  0  0
   18.7003    5.3581    0.0000 H   0  0  0  0  0  0  0  0  0  0  0  0
   18.1063    5.8895    0.0000 H   0  0  0  0  0  0  0  0  0  0  0  0
   20.7306    2.6828    0.0000 H   0  0  0  0  0  0  0  0  0  0  0  0
   20.0911    5.2207    0.0000 H   0  0  0  0  0  0  0  0  0  0  0  0
   19.3057    0.9510    0.0000 H   0  0  0  0  0  0  0  0  0  0  0  0
    8.0873   -1.9585    0.0000 H   0  0  0  0  0  0  0  0  0  0  0  0
    7.3990   -2.3605    0.0000 H   0  0  0  0  0  0  0  0  0  0  0  0
    8.8780   -3.1757    0.0000 H   0  0  0  0  0  0  0  0  0  0  0  0
    9.5663   -2.7738    0.0000 H   0  0  0  0  0  0  0  0  0  0  0  0
    7.3824   -4.0492    0.0000 H   0  0  0  0  0  0  0  0  0  0  0  0
    8.0706   -3.6473    0.0000 H   0  0  0  0  0  0  0  0  0  0  0  0
    9.5829   -1.0850    0.0000 H   0  0  0  0  0  0  0  0  0  0  0  0
    8.8947   -1.4870    0.0000 H   0  0  0  0  0  0  0  0  0  0  0  0
    6.5916   -2.8320    0.0000 H   0  0  0  0  0  0  0  0  0  0  0  0
    5.9033   -3.2340    0.0000 H   0  0  0  0  0  0  0  0  0  0  0  0
   10.3737   -2.3022    0.0000 H   0  0  0  0  0  0  0  0  0  0  0  0
   11.0620   -1.9003    0.0000 H   0  0  0  0  0  0  0  0  0  0  0  0
    5.8867   -4.9227    0.0000 H   0  0  0  0  0  0  0  0  0  0  0  0
    6.5750   -4.5208    0.0000 H   0  0  0  0  0  0  0  0  0  0  0  0
   11.0786   -0.2115    0.0000 H   0  0  0  0  0  0  0  0  0  0  0  0
   10.3903   -0.6135    0.0000 H   0  0  0  0  0  0  0  0  0  0  0  0
   11.8693   -1.4288    0.0000 H   0  0  0  0  0  0  0  0  0  0  0  0
   12.5576   -1.0268    0.0000 H   0  0  0  0  0  0  0  0  0  0  0  0
    5.0959   -3.7055    0.0000 H   0  0  0  0  0  0  0  0  0  0  0  0
    4.4077   -4.1075    0.0000 H   0  0  0  0  0  0  0  0  0  0  0  0
   16.9143    6.0636    0.0000 H   0  0  0  0  0  0  0  0  0  0  0  0
   12.5743    0.6620    0.0000 H   0  0  0  0  0  0  0  0  0  0  0  0
   11.8860    0.2600    0.0000 H   0  0  0  0  0  0  0  0  0  0  0  0
    4.3910   -5.7962    0.0000 H   0  0  0  0  0  0  0  0  0  0  0  0
    5.0793   -5.3943    0.0000 H   0  0  0  0  0  0  0  0  0  0  0  0
   13.3650   -0.5553    0.0000 H   0  0  0  0  0  0  0  0  0  0  0  0
   14.0533   -0.1533    0.0000 H   0  0  0  0  0  0  0  0  0  0  0  0
   15.0057    2.3153    0.0000 H   0  0  0  0  0  0  0  0  0  0  0  0
    3.6003   -4.5790    0.0000 H   0  0  0  0  0  0  0  0  0  0  0  0
    2.9120   -4.9810    0.0000 H   0  0  0  0  0  0  0  0  0  0  0  0
   13.6526    1.4597    0.0000 H   0  0  0  0  0  0  0  0  0  0  0  0
    2.8954   -6.6697    0.0000 H   0  0  0  0  0  0  0  0  0  0  0  0
    3.5836   -6.2678    0.0000 H   0  0  0  0  0  0  0  0  0  0  0  0
    1.9969   -5.4436    0.0000 H   0  0  0  0  0  0  0  0  0  0  0  0
    1.3800   -6.0667    0.0000 H   0  0  0  0  0  0  0  0  0  0  0  0
    2.0031   -6.6836    0.0000 H   0  0  0  0  0  0  0  0  0  0  0  0
  1 13  1  0  0  0  0
  1 15  1  0  0  0  0
 12  2  1  1  0  0  0
  2 45  1  0  0  0  0
 14  3  1  1  0  0  0
  3 46  1  0  0  0  0
  4 16  1  0  0  0  0
  4 68  1  0  0  0  0
  5 26  2  0  0  0  0
  6 33  2  0  0  0  0
 13  7  1  6  0  0  0
  7 17  1  0  0  0  0
  7 18  1  0  0  0  0
  8 18  2  0  0  0  0
  8 19  1  0  0  0  0
  9 26  1  0  0  0  0
  9 36  1  0  0  0  0
  9 75  1  0  0  0  0
 10 34  1  0  0  0  0
 10 36  1  0  0  0  0
 10 78  1  0  0  0  0
 11 33  1  0  0  0  0
 11 36  2  0  0  0  0
 12 13  1  0  0  0  0
 12 14  1  0  0  0  0
 12 39  1  0  0  0  0
 13 40  1  0  0  0  0
 14 15  1  0  0  0  0
 14 41  1  0  0  0  0
 15 16  1  6  0  0  0
 15 42  1  0  0  0  0
 16 43  1  0  0  0  0
 16 44  1  0  0  0  0
 17 19  2  0  0  0  0
 17 26  1  0  0  0  0
 18 47  1  0  0  0  0
 19 33  1  0  0  0  0
 20 21  1  0  0  0  0
 20 22  1  0  0  0  0
 20 48  1  0  0  0  0
 20 49  1  0  0  0  0
 21 23  1  0  0  0  0
 21 50  1  0  0  0  0
 21 51  1  0  0  0  0
 22 24  1  0  0  0  0
 22 52  1  0  0  0  0
 22 53  1  0  0  0  0
 23 25  1  0  0  0  0
 23 54  1  0  0  0  0
 23 55  1  0  0  0  0
 24 27  1  0  0  0  0
 24 56  1  0  0  0  0
 24 57  1  0  0  0  0
 25 28  1  0  0  0  0
 25 58  1  0  0  0  0
 25 59  1  0  0  0  0
 27 30  1  0  0  0  0
 27 60  1  0  0  0  0
 27 61  1  0  0  0  0
 28 29  1  0  0  0  0
 28 62  1  0  0  0  0
 28 63  1  0  0  0  0
 29 31  1  0  0  0  0
 29 64  1  0  0  0  0
 29 65  1  0  0  0  0
 30 32  1  0  0  0  0
 30 66  1  0  0  0  0
 30 67  1  0  0  0  0
 31 34  1  0  0  0  0
 31 69  1  0  0  0  0
 31 70  1  0  0  0  0
 32 35  1  0  0  0  0
 32 71  1  0  0  0  0
 32 72  1  0  0  0  0
 34 73  1  0  0  0  0
 34 74  1  0  0  0  0
 35 37  1  0  0  0  0
 35 76  1  0  0  0  0
 35 77  1  0  0  0  0
 37 38  1  0  0  0  0
 37 79  1  0  0  0  0
 37 80  1  0  0  0  0
 38 81  1  0  0  0  0
 38 82  1  0  0  0  0
 38 83  1  0  0  0  0
M  END
> <PUBCHEM_COMPOUND_CID>
511026
> <PUBCHEM_COMPOUND_CANONICALIZED>
1
> <PUBCHEM_CACTVS_COMPLEXITY>
768
> <PUBCHEM_CACTVS_HBOND_ACCEPTOR>
7
> <PUBCHEM_CACTVS_HBOND_DONOR>
5
> <PUBCHEM_CACTVS_ROTATABLE_BOND>
18
> <PUBCHEM_CACTVS_SUBSKEYS>
AAADcfB7uAAAAAAAAAAAAAAAAAAAAWJAAAAAAAAABAAAAACBgAAAHgAQCAAACBzhlgYHkBfMFgCoAQVxdACAgC0XEKABWIGoVECDWBpAyCAeQYhPEQLTAWH1sIIAAAAAAAAAAAAAAAAAAAAAAAAAAAAAAA==
> <PUBCHEM_IUPAC_OPENEYE_NAME>
1-[(2R,3R,4S,5R)-3,4-dihydroxy-5-(hydroxymethyl)tetrahydrofuran-2-yl]-6-(hexadecylamino)-7H-imidazo[4,5-e][1,3]diazepine-4,8-dione
> <PUBCHEM_IUPAC_CAS_NAME>
1-[(2R,3R,4S,5R)-3,4-dihydroxy-5-(hydroxymethyl)-2-oxolanyl]-6-(hexadecylamino)-7H-imidazo[4,5-e][1,3]diazepine-4,8-dione
> <PUBCHEM_IUPAC_NAME_MARKUP>
1-[(2<I>R</I>,3<I>R</I>,4<I>S</I>,5<I>R</I>)-3,4-dihydroxy-5-(hydroxymethyl)oxolan-2-yl]-6-(hexadecylamino)-7<I>H</I>-imidazo[4,5-e][1,3]diazepine-4,8-dione
> <PUBCHEM_IUPAC_NAME>
1-[(2R,3R,4S,5R)-3,4-dihydroxy-5-(hydroxymethyl)oxolan-2-yl]-6-(hexadecylamino)-7H-imidazo[4,5-e][1,3]diazepine-4,8-dione
> <PUBCHEM_IUPAC_SYSTEMATIC_NAME>
6-(hexadecylamino)-1-[(2R,3R,4S,5R)-5-(hydroxymethyl)-3,4-bis(oxidanyl)oxolan-2-yl]-7H-imidazo[4,5-e][1,3]diazepine-4,8-dione
> <PUBCHEM_IUPAC_TRADITIONAL_NAME>
6-(cetylamino)-1-[(2R,3R,4S,5R)-3,4-dihydroxy-5-methylol-tetrahydrofuran-2-yl]-7H-imidazo[4,5-e][1,3]diazepine-4,8-quinone
> <PUBCHEM_IUPAC_INCHI>
InChI=1S/C27H45N5O6/c1-2-3-4-5-6-7-8-9-10-11-12-13-14-15-16-28-27-30-24(36)20-21(25(37)31-27)32(18-29-20)26-23(35)22(34)19(17-33)38-26/h18-19,22-23,26,33-35H,2-17H2,1H3,(H2,28,30,31,36,37)/t19-,22-,23-,26-/m1/s1
> <PUBCHEM_IUPAC_INCHIKEY>
REJFWRMELDTHII-VJUOEERUSA-N
> <PUBCHEM_XLOGP3>
6.1
> <PUBCHEM_EXACT_MASS>
535.33698417
> <PUBCHEM_MOLECULAR_FORMULA>
C27H45N5O6
> <PUBCHEM_MOLECULAR_WEIGHT>
535.7
> <PUBCHEM_OPENEYE_CAN_SMILES>
CCCCCCCCCCCCCCCCNC1=NC(=O)C2=C(C(=O)N1)N(C=N2)C3C(C(C(O3)CO)O)O
> <PUBCHEM_OPENEYE_ISO_SMILES>
CCCCCCCCCCCCCCCCNC1=NC(=O)C2=C(C(=O)N1)N(C=N2)[C@H]3[C@@H]([C@@H]([C@H](O3)CO)O)O
> <PUBCHEM_CACTVS_TPSA>
158
> <PUBCHEM_MONOISOTOPIC_WEIGHT>
535.33698417
> <PUBCHEM_TOTAL_CHARGE>
0
> <PUBCHEM_HEAVY_ATOM_COUNT>
38
> <PUBCHEM_ATOM_DEF_STEREO_COUNT>
4
> <PUBCHEM_ATOM_UDEF_STEREO_COUNT>
0
> <PUBCHEM_BOND_DEF_STEREO_COUNT>
0
> <PUBCHEM_BOND_UDEF_STEREO_COUNT>
0
> <PUBCHEM_ISOTOPIC_ATOM_COUNT>
0
> <PUBCHEM_COMPONENT_COUNT>
1
> <PUBCHEM_CACTVS_TAUTO_COUNT>
-1
> <PUBCHEM_COORDINATE_TYPE>
1
5
255
> <PUBCHEM_BONDANNOTATIONS>
11  33  8
11  36  8
15  16  6
17  19  8
17  26  8
19  33  8
12  2  5
14  3  5
13  7  6
7  17  8
7  18  8
8  18  8
8  19  8
9  26  8
9  36  8
$$$$
