511062
  -OEChem-10302200282D
 90 92  0     1  0  0  0  0  0999 V2000
    2.8798   -3.7972    0.0000 F   0  0  0  0  0  0  0  0  0  0  0  0
    6.3749   -0.0740    0.0000 O   0  0  0  0  0  0  0  0  0  0  0  0
    7.1755   -1.1759    0.0000 O   0  0  0  0  0  0  0  0  0  0  0  0
    6.6755   -5.5060    0.0000 O   0  0  0  0  0  0  0  0  0  0  0  0
    3.3894    1.9476    0.0000 O   0  0  0  0  0  0  0  0  0  0  0  0
    8.1755   -4.6400    0.0000 O   0  0  0  0  0  0  0  0  0  0  0  0
    5.6547    3.3144    0.0000 O   0  0  0  0  0  0  0  0  0  0  0  0
    5.6755   -2.0419    0.0000 N   0  0  0  0  0  0  0  0  0  0  0  0
    4.7276    0.4613    0.0000 N   0  0  0  0  0  0  0  0  0  0  0  0
    6.6755   -3.7740    0.0000 N   0  0  0  0  0  0  0  0  0  0  0  0
    4.0074    3.8497    0.0000 N   0  0  0  0  0  0  0  0  0  0  0  0
    4.1367   -1.5419    0.0000 C   0  0  2  0  0  0  0  0  0  0  0  0
    4.1367   -2.5419    0.0000 C   0  0  2  0  0  0  0  0  0  0  0  0
    5.0877   -1.2329    0.0000 C   0  0  1  0  0  0  0  0  0  0  0  0
    3.1905   -1.2372    0.0000 C   0  0  0  0  0  0  0  0  0  0  0  0
    3.1905   -2.8467    0.0000 C   0  0  2  0  0  0  0  0  0  0  0  0
    5.0877   -2.8510    0.0000 C   0  0  0  0  0  0  0  0  0  0  0  0
    2.6068   -2.0419    0.0000 C   0  0  0  0  0  0  0  0  0  0  0  0
    5.3968   -0.2819    0.0000 C   0  0  0  0  0  0  0  0  0  0  0  0
    6.6755   -2.0419    0.0000 C   0  0  0  0  0  0  0  0  0  0  0  0
    7.1755   -2.9080    0.0000 C   0  0  2  0  0  0  0  0  0  0  0  0
    8.1755   -2.9080    0.0000 C   0  0  0  0  0  0  0  0  0  0  0  0
    5.0366    1.4123    0.0000 C   0  0  3  0  0  0  0  0  0  0  0  0
    9.1755   -2.9080    0.0000 C   0  0  0  0  0  0  0  0  0  0  0  0
    8.1755   -3.9080    0.0000 C   0  0  0  0  0  0  0  0  0  0  0  0
    8.1755   -1.9080    0.0000 C   0  0  0  0  0  0  0  0  0  0  0  0
    6.0148    1.6202    0.0000 C   0  0  0  0  0  0  0  0  0  0  0  0
    4.3675    2.1555    0.0000 C   0  0  0  0  0  0  0  0  0  0  0  0
    7.1755   -4.6400    0.0000 C   0  0  0  0  0  0  0  0  0  0  0  0
    6.3238    2.5713    0.0000 C   0  0  0  0  0  0  0  0  0  0  0  0
    4.6765    3.1065    0.0000 C   0  0  0  0  0  0  0  0  0  0  0  0
    7.3020    2.7792    0.0000 C   0  0  0  0  0  0  0  0  0  0  0  0
    7.1755   -6.3721    0.0000 C   0  0  0  0  0  0  0  0  0  0  0  0
    4.3164    4.8007    0.0000 C   0  0  1  0  0  0  0  0  0  0  0  0
    6.6755   -7.2381    0.0000 C   0  0  0  0  0  0  0  0  0  0  0  0
    8.1755   -6.3721    0.0000 C   0  0  0  0  0  0  0  0  0  0  0  0
    5.2946    5.0086    0.0000 C   0  0  0  0  0  0  0  0  0  0  0  0
    3.6473    5.5439    0.0000 C   0  0  0  0  0  0  0  0  0  0  0  0
    2.6691    5.3360    0.0000 C   0  0  0  0  0  0  0  0  0  0  0  0
    3.9563    6.4949    0.0000 C   0  0  0  0  0  0  0  0  0  0  0  0
    2.0000    6.0791    0.0000 C   0  0  0  0  0  0  0  0  0  0  0  0
    3.2872    7.2381    0.0000 C   0  0  0  0  0  0  0  0  0  0  0  0
    2.3090    7.0302    0.0000 C   0  0  0  0  0  0  0  0  0  0  0  0
    4.1356   -0.6919    0.0000 H   0  0  0  0  0  0  0  0  0  0  0  0
    4.1356   -3.3919    0.0000 H   0  0  0  0  0  0  0  0  0  0  0  0
    5.7001   -1.1359    0.0000 H   0  0  0  0  0  0  0  0  0  0  0  0
    3.4415   -0.6703    0.0000 H   0  0  0  0  0  0  0  0  0  0  0  0
    2.6531   -0.9280    0.0000 H   0  0  0  0  0  0  0  0  0  0  0  0
    2.5780   -2.9429    0.0000 H   0  0  0  0  0  0  0  0  0  0  0  0
    4.8356   -3.4174    0.0000 H   0  0  0  0  0  0  0  0  0  0  0  0
    5.6247   -3.1610    0.0000 H   0  0  0  0  0  0  0  0  0  0  0  0
    2.1460   -1.6272    0.0000 H   0  0  0  0  0  0  0  0  0  0  0  0
    2.1460   -2.4567    0.0000 H   0  0  0  0  0  0  0  0  0  0  0  0
    7.4855   -3.4449    0.0000 H   0  0  0  0  0  0  0  0  0  0  0  0
    4.1212    0.3324    0.0000 H   0  0  0  0  0  0  0  0  0  0  0  0
    4.4302    1.2834    0.0000 H   0  0  0  0  0  0  0  0  0  0  0  0
    6.0555   -3.7740    0.0000 H   0  0  0  0  0  0  0  0  0  0  0  0
    9.1755   -3.5280    0.0000 H   0  0  0  0  0  0  0  0  0  0  0  0
    9.7955   -2.9080    0.0000 H   0  0  0  0  0  0  0  0  0  0  0  0
    9.1755   -2.2880    0.0000 H   0  0  0  0  0  0  0  0  0  0  0  0
    7.5555   -3.9080    0.0000 H   0  0  0  0  0  0  0  0  0  0  0  0
    8.1755   -4.5280    0.0000 H   0  0  0  0  0  0  0  0  0  0  0  0
    8.7955   -3.9080    0.0000 H   0  0  0  0  0  0  0  0  0  0  0  0
    8.7955   -1.9080    0.0000 H   0  0  0  0  0  0  0  0  0  0  0  0
    8.1755   -1.2880    0.0000 H   0  0  0  0  0  0  0  0  0  0  0  0
    7.5555   -1.9080    0.0000 H   0  0  0  0  0  0  0  0  0  0  0  0
    6.0364    1.0006    0.0000 H   0  0  0  0  0  0  0  0  0  0  0  0
    6.6288    1.5340    0.0000 H   0  0  0  0  0  0  0  0  0  0  0  0
    6.3022    3.1909    0.0000 H   0  0  0  0  0  0  0  0  0  0  0  0
    5.7098    2.6576    0.0000 H   0  0  0  0  0  0  0  0  0  0  0  0
    7.4308    2.1728    0.0000 H   0  0  0  0  0  0  0  0  0  0  0  0
    7.9084    2.9081    0.0000 H   0  0  0  0  0  0  0  0  0  0  0  0
    7.1730    3.3857    0.0000 H   0  0  0  0  0  0  0  0  0  0  0  0
    6.5555   -6.3721    0.0000 H   0  0  0  0  0  0  0  0  0  0  0  0
    3.4009    3.7208    0.0000 H   0  0  0  0  0  0  0  0  0  0  0  0
    3.7100    4.6718    0.0000 H   0  0  0  0  0  0  0  0  0  0  0  0
    6.1386   -6.9281    0.0000 H   0  0  0  0  0  0  0  0  0  0  0  0
    6.3655   -7.7750    0.0000 H   0  0  0  0  0  0  0  0  0  0  0  0
    7.2124   -7.5481    0.0000 H   0  0  0  0  0  0  0  0  0  0  0  0
    8.1755   -6.9921    0.0000 H   0  0  0  0  0  0  0  0  0  0  0  0
    8.7955   -6.3721    0.0000 H   0  0  0  0  0  0  0  0  0  0  0  0
    8.1755   -5.7521    0.0000 H   0  0  0  0  0  0  0  0  0  0  0  0
    5.4235    4.4022    0.0000 H   0  0  0  0  0  0  0  0  0  0  0  0
    5.9010    5.1376    0.0000 H   0  0  0  0  0  0  0  0  0  0  0  0
    5.1656    5.6151    0.0000 H   0  0  0  0  0  0  0  0  0  0  0  0
    2.4775    4.7463    0.0000 H   0  0  0  0  0  0  0  0  0  0  0  0
    4.5628    6.6238    0.0000 H   0  0  0  0  0  0  0  0  0  0  0  0
    1.3936    5.9502    0.0000 H   0  0  0  0  0  0  0  0  0  0  0  0
    3.4788    7.8277    0.0000 H   0  0  0  0  0  0  0  0  0  0  0  0
    1.8942    7.4909    0.0000 H   0  0  0  0  0  0  0  0  0  0  0  0
 16  1  1  1  0  0  0
  2 19  2  0  0  0  0
  3 20  2  0  0  0  0
  4 29  1  0  0  0  0
  4 33  1  0  0  0  0
  5 28  2  0  0  0  0
  6 29  2  0  0  0  0
  7 31  2  0  0  0  0
  8 14  1  0  0  0  0
  8 17  1  0  0  0  0
  8 20  1  0  0  0  0
  9 19  1  0  0  0  0
  9 23  1  0  0  0  0
  9 55  1  0  0  0  0
 21 10  1  6  0  0  0
 10 29  1  0  0  0  0
 10 57  1  0  0  0  0
 11 31  1  0  0  0  0
 34 11  1  6  0  0  0
 11 75  1  0  0  0  0
 12 13  1  0  0  0  0
 12 14  1  0  0  0  0
 12 15  1  0  0  0  0
 12 44  1  6  0  0  0
 13 16  1  0  0  0  0
 13 17  1  0  0  0  0
 13 45  1  6  0  0  0
 14 19  1  1  0  0  0
 14 46  1  0  0  0  0
 15 18  1  0  0  0  0
 15 47  1  0  0  0  0
 15 48  1  0  0  0  0
 16 18  1  0  0  0  0
 16 49  1  0  0  0  0
 17 50  1  0  0  0  0
 17 51  1  0  0  0  0
 18 52  1  0  0  0  0
 18 53  1  0  0  0  0
 20 21  1  0  0  0  0
 21 22  1  0  0  0  0
 21 54  1  0  0  0  0
 22 24  1  0  0  0  0
 22 25  1  0  0  0  0
 22 26  1  0  0  0  0
 23 27  1  0  0  0  0
 23 28  1  0  0  0  0
 23 56  1  0  0  0  0
 24 58  1  0  0  0  0
 24 59  1  0  0  0  0
 24 60  1  0  0  0  0
 25 61  1  0  0  0  0
 25 62  1  0  0  0  0
 25 63  1  0  0  0  0
 26 64  1  0  0  0  0
 26 65  1  0  0  0  0
 26 66  1  0  0  0  0
 27 30  1  0  0  0  0
 27 67  1  0  0  0  0
 27 68  1  0  0  0  0
 28 31  1  0  0  0  0
 30 32  1  0  0  0  0
 30 69  1  0  0  0  0
 30 70  1  0  0  0  0
 32 71  1  0  0  0  0
 32 72  1  0  0  0  0
 32 73  1  0  0  0  0
 33 35  1  0  0  0  0
 33 36  1  0  0  0  0
 33 74  1  0  0  0  0
 34 37  1  0  0  0  0
 34 38  1  0  0  0  0
 34 76  1  0  0  0  0
 35 77  1  0  0  0  0
 35 78  1  0  0  0  0
 35 79  1  0  0  0  0
 36 80  1  0  0  0  0
 36 81  1  0  0  0  0
 36 82  1  0  0  0  0
 37 83  1  0  0  0  0
 37 84  1  0  0  0  0
 37 85  1  0  0  0  0
 38 39  2  0  0  0  0
 38 40  1  0  0  0  0
 39 41  1  0  0  0  0
 39 86  1  0  0  0  0
 40 42  2  0  0  0  0
 40 87  1  0  0  0  0
 41 43  2  0  0  0  0
 41 88  1  0  0  0  0
 42 43  1  0  0  0  0
 42 89  1  0  0  0  0
 43 90  1  0  0  0  0
M  END
> <PUBCHEM_COMPOUND_CID>
511062
> <PUBCHEM_COMPOUND_CANONICALIZED>
1
> <PUBCHEM_CACTVS_COMPLEXITY>
1020
> <PUBCHEM_CACTVS_HBOND_ACCEPTOR>
7
> <PUBCHEM_CACTVS_HBOND_DONOR>
3
> <PUBCHEM_CACTVS_ROTATABLE_BOND>
13
> <PUBCHEM_CACTVS_SUBSKEYS>
AAADcfB/uQAAAAAAAAAAAAAAAAAAAeIAAAAwAAAAAAAWAAABAAAAHwAQAAAADzzhmAYyCIPABACIAqFSGACCAAAgAAAIiIGIBIkIYDqA0TGcIAhglgCIiAcYiYCPgAAAAAAAAAAAAAAAAAAAAAAACAAAAA==
> <PUBCHEM_IUPAC_OPENEYE_NAME>
isopropyl N-[(1S)-1-[(3S,3aR,6S,6aS)-6-fluoro-3-[1-[2-oxo-2-[[(1S)-1-phenylethyl]amino]acetyl]butylcarbamoyl]-3,3a,4,5,6,6a-hexahydro-1H-cyclopenta[c]pyrrole-2-carbonyl]-2,2-dimethyl-propyl]carbamate
> <PUBCHEM_IUPAC_CAS_NAME>
N-[(2S)-1-[(3S,3aR,6S,6aS)-3-[[[1,2-dioxo-1-[[(1S)-1-phenylethyl]amino]hexan-3-yl]amino]-oxomethyl]-6-fluoro-3,3a,4,5,6,6a-hexahydro-1H-cyclopenta[c]pyrrol-2-yl]-3,3-dimethyl-1-oxobutan-2-yl]carbamic acid propan-2-yl ester
> <PUBCHEM_IUPAC_NAME_MARKUP>
propan-2-yl <I>N</I>-[(2<I>S</I>)-1-[(3<I>S</I>,3<I>a</I><I>R</I>,6<I>S</I>,6<I>a</I><I>S</I>)-3-[[1,2-dioxo-1-[[(1<I>S</I>)-1-phenylethyl]amino]hexan-3-yl]carbamoyl]-6-fluoro-3,3<I>a</I>,4,5,6,6<I>a</I>-hexahydro-1<I>H</I>-cyclopenta[c]pyrrol-2-yl]-3,3-dimethyl-1-oxobutan-2-yl]carbamate
> <PUBCHEM_IUPAC_NAME>
propan-2-yl N-[(2S)-1-[(3S,3aR,6S,6aS)-3-[[1,2-dioxo-1-[[(1S)-1-phenylethyl]amino]hexan-3-yl]carbamoyl]-6-fluoro-3,3a,4,5,6,6a-hexahydro-1H-cyclopenta[c]pyrrol-2-yl]-3,3-dimethyl-1-oxobutan-2-yl]carbamate
> <PUBCHEM_IUPAC_SYSTEMATIC_NAME>
propan-2-yl N-[(2S)-1-[(3S,3aR,6S,6aS)-3-[[1,2-bis(oxidanylidene)-1-[[(1S)-1-phenylethyl]amino]hexan-3-yl]carbamoyl]-6-fluoranyl-3,3a,4,5,6,6a-hexahydro-1H-cyclopenta[c]pyrrol-2-yl]-3,3-dimethyl-1-oxidanylidene-butan-2-yl]carbamate
> <PUBCHEM_IUPAC_TRADITIONAL_NAME>
N-[(1S)-1-[(3S,3aR,6S,6aS)-6-fluoro-3-[1-[2-keto-2-[[(1S)-1-phenylethyl]amino]acetyl]butylcarbamoyl]-3,3a,4,5,6,6a-hexahydro-1H-cyclopenta[c]pyrrole-2-carbonyl]-2,2-dimethyl-propyl]carbamic acid isopropyl ester
> <PUBCHEM_IUPAC_INCHI>
InChI=1S/C32H47FN4O6/c1-8-12-24(26(38)29(40)34-19(4)20-13-10-9-11-14-20)35-28(39)25-21-15-16-23(33)22(21)17-37(25)30(41)27(32(5,6)7)36-31(42)43-18(2)3/h9-11,13-14,18-19,21-25,27H,8,12,15-17H2,1-7H3,(H,34,40)(H,35,39)(H,36,42)/t19-,21+,22+,23-,24?,25-,27+/m0/s1
> <PUBCHEM_IUPAC_INCHIKEY>
WRTRHLPGEXJKFV-PJNXOUIJSA-N
> <PUBCHEM_XLOGP3_AA>
5
> <PUBCHEM_EXACT_MASS>
602.34796339
> <PUBCHEM_MOLECULAR_FORMULA>
C32H47FN4O6
> <PUBCHEM_MOLECULAR_WEIGHT>
602.7
> <PUBCHEM_OPENEYE_CAN_SMILES>
CCCC(C(=O)C(=O)NC(C)C1=CC=CC=C1)NC(=O)C2C3CCC(C3CN2C(=O)C(C(C)(C)C)NC(=O)OC(C)C)F
> <PUBCHEM_OPENEYE_ISO_SMILES>
CCCC(C(=O)C(=O)N[C@@H](C)C1=CC=CC=C1)NC(=O)[C@@H]2[C@@H]3CC[C@@H]([C@@H]3CN2C(=O)[C@H](C(C)(C)C)NC(=O)OC(C)C)F
> <PUBCHEM_CACTVS_TPSA>
134
> <PUBCHEM_MONOISOTOPIC_WEIGHT>
602.34796339
> <PUBCHEM_TOTAL_CHARGE>
0
> <PUBCHEM_HEAVY_ATOM_COUNT>
43
> <PUBCHEM_ATOM_DEF_STEREO_COUNT>
6
> <PUBCHEM_ATOM_UDEF_STEREO_COUNT>
1
> <PUBCHEM_BOND_DEF_STEREO_COUNT>
0
> <PUBCHEM_BOND_UDEF_STEREO_COUNT>
0
> <PUBCHEM_ISOTOPIC_ATOM_COUNT>
0
> <PUBCHEM_COMPONENT_COUNT>
1
> <PUBCHEM_CACTVS_TAUTO_COUNT>
-1
> <PUBCHEM_COORDINATE_TYPE>
1
5
255
> <PUBCHEM_BONDANNOTATIONS>
16  1  5
21  10  6
34  11  6
12  44  6
13  45  6
14  19  5
23  27  3
38  39  8
38  40  8
39  41  8
40  42  8
41  43  8
42  43  8
$$$$
