511143
  -OEChem-10302200282D
 90 93  0     1  0  0  0  0  0999 V2000
   10.8183    1.4724    0.0000 O   0  0  0  0  0  0  0  0  0  0  0  0
   10.1372   -2.7890    0.0000 O   0  0  0  0  0  0  0  0  0  0  0  0
   11.4993   -2.7890    0.0000 O   0  0  0  0  0  0  0  0  0  0  0  0
    6.7469   -1.5619    0.0000 O   0  0  0  0  0  0  0  0  0  0  0  0
   12.5503    1.4724    0.0000 O   0  0  0  0  0  0  0  0  0  0  0  0
   15.0707   -3.2845    0.0000 O   0  0  0  0  0  0  0  0  0  0  0  0
    5.3903   -4.9025    0.0000 O   0  0  0  0  0  0  0  0  0  0  0  0
   10.3183   -1.0665    0.0000 N   0  0  0  0  0  0  0  0  0  0  0  0
    8.1482   -2.5800    0.0000 N   0  0  0  0  0  0  0  0  0  0  0  0
   12.9006   -1.7710    0.0000 N   0  0  0  0  0  0  0  0  0  0  0  0
    5.5714   -3.1799    0.0000 N   0  0  0  0  0  0  0  0  0  0  0  0
    3.5823   -2.9709    0.0000 N   0  0  0  0  0  0  0  0  0  0  0  0
    2.4067   -4.5889    0.0000 N   0  0  0  0  0  0  0  0  0  0  0  0
   11.3183   -1.0665    0.0000 C   0  0  1  0  0  0  0  0  0  0  0  0
   11.6273   -0.1154    0.0000 C   0  0  0  0  0  0  0  0  0  0  0  0
   10.8183    0.4724    0.0000 C   0  0  2  0  0  0  0  0  0  0  0  0
   10.0093   -0.1154    0.0000 C   0  0  0  0  0  0  0  0  0  0  0  0
    9.7305   -1.8755    0.0000 C   0  0  0  0  0  0  0  0  0  0  0  0
    8.7360   -1.7710    0.0000 C   0  0  1  0  0  0  0  0  0  0  0  0
   11.9061   -1.8755    0.0000 C   0  0  0  0  0  0  0  0  0  0  0  0
    8.3292   -0.8574    0.0000 C   0  0  0  0  0  0  0  0  0  0  0  0
    7.3347   -0.7529    0.0000 C   0  0  0  0  0  0  0  0  0  0  0  0
    8.9170   -0.0484    0.0000 C   0  0  0  0  0  0  0  0  0  0  0  0
   13.4884   -2.5800    0.0000 C   0  0  3  0  0  0  0  0  0  0  0  0
    7.1537   -2.4754    0.0000 C   0  0  0  0  0  0  0  0  0  0  0  0
    6.5659   -3.2845    0.0000 C   0  0  1  0  0  0  0  0  0  0  0  0
   11.6843    1.9724    0.0000 C   0  0  0  0  0  0  0  0  0  0  0  0
    6.9726   -4.1980    0.0000 C   0  0  0  0  0  0  0  0  0  0  0  0
   13.0816   -3.4935    0.0000 C   0  0  0  0  0  0  0  0  0  0  0  0
   11.6843    2.9724    0.0000 C   0  0  0  0  0  0  0  0  0  0  0  0
   14.4829   -2.4754    0.0000 C   0  0  0  0  0  0  0  0  0  0  0  0
    6.3848   -5.0070    0.0000 C   0  0  0  0  0  0  0  0  0  0  0  0
    7.9671   -4.3025    0.0000 C   0  0  0  0  0  0  0  0  0  0  0  0
   13.6694   -4.3025    0.0000 C   0  0  0  0  0  0  0  0  0  0  0  0
   12.5503    3.4724    0.0000 C   0  0  0  0  0  0  0  0  0  0  0  0
   10.8183    3.4724    0.0000 C   0  0  0  0  0  0  0  0  0  0  0  0
    4.9836   -3.9890    0.0000 C   0  0  0  0  0  0  0  0  0  0  0  0
   12.5503    4.4724    0.0000 C   0  0  0  0  0  0  0  0  0  0  0  0
   10.8183    4.4724    0.0000 C   0  0  0  0  0  0  0  0  0  0  0  0
   13.4443    2.9377    0.0000 C   0  0  0  0  0  0  0  0  0  0  0  0
   11.6843    4.9724    0.0000 C   0  0  0  0  0  0  0  0  0  0  0  0
   13.4443    5.0070    0.0000 C   0  0  0  0  0  0  0  0  0  0  0  0
    3.9890   -3.8844    0.0000 C   0  0  0  0  0  0  0  0  0  0  0  0
   14.3503    3.4516    0.0000 C   0  0  0  0  0  0  0  0  0  0  0  0
   14.3503    4.4932    0.0000 C   0  0  0  0  0  0  0  0  0  0  0  0
    3.4013   -4.6934    0.0000 C   0  0  0  0  0  0  0  0  0  0  0  0
    2.5878   -2.8664    0.0000 C   0  0  0  0  0  0  0  0  0  0  0  0
    2.0000   -3.6754    0.0000 C   0  0  0  0  0  0  0  0  0  0  0  0
   11.0368   -1.6189    0.0000 H   0  0  0  0  0  0  0  0  0  0  0  0
   12.1937   -0.3676    0.0000 H   0  0  0  0  0  0  0  0  0  0  0  0
   11.9373    0.4215    0.0000 H   0  0  0  0  0  0  0  0  0  0  0  0
   11.3707    0.7538    0.0000 H   0  0  0  0  0  0  0  0  0  0  0  0
    9.6992    0.4215    0.0000 H   0  0  0  0  0  0  0  0  0  0  0  0
    9.4429   -0.3676    0.0000 H   0  0  0  0  0  0  0  0  0  0  0  0
    8.1194   -1.7062    0.0000 H   0  0  0  0  0  0  0  0  0  0  0  0
    8.0770   -0.2910    0.0000 H   0  0  0  0  0  0  0  0  0  0  0  0
    8.4004   -3.1464    0.0000 H   0  0  0  0  0  0  0  0  0  0  0  0
   13.1528   -1.2046    0.0000 H   0  0  0  0  0  0  0  0  0  0  0  0
    7.3995   -0.1363    0.0000 H   0  0  0  0  0  0  0  0  0  0  0  0
    6.7181   -0.6881    0.0000 H   0  0  0  0  0  0  0  0  0  0  0  0
    7.2699   -1.3695    0.0000 H   0  0  0  0  0  0  0  0  0  0  0  0
    9.4186   -0.4128    0.0000 H   0  0  0  0  0  0  0  0  0  0  0  0
    9.2814    0.4532    0.0000 H   0  0  0  0  0  0  0  0  0  0  0  0
    8.4154    0.3160    0.0000 H   0  0  0  0  0  0  0  0  0  0  0  0
   13.7405   -2.0136    0.0000 H   0  0  0  0  0  0  0  0  0  0  0  0
    6.2014   -3.7861    0.0000 H   0  0  0  0  0  0  0  0  0  0  0  0
    7.3370   -3.6964    0.0000 H   0  0  0  0  0  0  0  0  0  0  0  0
   12.5676   -3.1468    0.0000 H   0  0  0  0  0  0  0  0  0  0  0  0
   12.6509   -3.9395    0.0000 H   0  0  0  0  0  0  0  0  0  0  0  0
    5.3192   -2.6135    0.0000 H   0  0  0  0  0  0  0  0  0  0  0  0
   14.7351   -1.9090    0.0000 H   0  0  0  0  0  0  0  0  0  0  0  0
    5.8832   -4.6426    0.0000 H   0  0  0  0  0  0  0  0  0  0  0  0
    6.0204   -5.5086    0.0000 H   0  0  0  0  0  0  0  0  0  0  0  0
    6.8864   -5.3715    0.0000 H   0  0  0  0  0  0  0  0  0  0  0  0
    7.9023   -4.9191    0.0000 H   0  0  0  0  0  0  0  0  0  0  0  0
    8.5837   -4.3674    0.0000 H   0  0  0  0  0  0  0  0  0  0  0  0
    8.0319   -3.6859    0.0000 H   0  0  0  0  0  0  0  0  0  0  0  0
   13.1678   -4.6670    0.0000 H   0  0  0  0  0  0  0  0  0  0  0  0
   14.0338   -4.8041    0.0000 H   0  0  0  0  0  0  0  0  0  0  0  0
   14.1710   -3.9381    0.0000 H   0  0  0  0  0  0  0  0  0  0  0  0
   10.2813    3.1624    0.0000 H   0  0  0  0  0  0  0  0  0  0  0  0
   10.2813    4.7824    0.0000 H   0  0  0  0  0  0  0  0  0  0  0  0
   13.4371    2.3178    0.0000 H   0  0  0  0  0  0  0  0  0  0  0  0
   11.6843    5.5924    0.0000 H   0  0  0  0  0  0  0  0  0  0  0  0
   13.4371    5.6270    0.0000 H   0  0  0  0  0  0  0  0  0  0  0  0
   14.8861    3.1395    0.0000 H   0  0  0  0  0  0  0  0  0  0  0  0
   14.8861    4.8052    0.0000 H   0  0  0  0  0  0  0  0  0  0  0  0
    3.6534   -5.2598    0.0000 H   0  0  0  0  0  0  0  0  0  0  0  0
    2.3356   -2.3000    0.0000 H   0  0  0  0  0  0  0  0  0  0  0  0
    1.3834   -3.6106    0.0000 H   0  0  0  0  0  0  0  0  0  0  0  0
 16  1  1  6  0  0  0
  1 27  1  0  0  0  0
  2 18  2  0  0  0  0
  3 20  2  0  0  0  0
  4 25  2  0  0  0  0
  5 27  2  0  0  0  0
  6 31  2  0  0  0  0
  7 37  2  0  0  0  0
  8 14  1  0  0  0  0
  8 17  1  0  0  0  0
  8 18  1  0  0  0  0
 19  9  1  6  0  0  0
  9 25  1  0  0  0  0
  9 57  1  0  0  0  0
 10 20  1  0  0  0  0
 10 24  1  0  0  0  0
 10 58  1  0  0  0  0
 26 11  1  1  0  0  0
 11 37  1  0  0  0  0
 11 70  1  0  0  0  0
 12 43  2  0  0  0  0
 12 47  1  0  0  0  0
 13 46  2  0  0  0  0
 13 48  1  0  0  0  0
 14 15  1  0  0  0  0
 14 20  1  1  0  0  0
 14 49  1  0  0  0  0
 15 16  1  0  0  0  0
 15 50  1  0  0  0  0
 15 51  1  0  0  0  0
 16 17  1  0  0  0  0
 16 52  1  0  0  0  0
 17 53  1  0  0  0  0
 17 54  1  0  0  0  0
 18 19  1  0  0  0  0
 19 21  1  0  0  0  0
 19 55  1  0  0  0  0
 21 22  1  0  0  0  0
 21 23  1  0  0  0  0
 21 56  1  0  0  0  0
 22 59  1  0  0  0  0
 22 60  1  0  0  0  0
 22 61  1  0  0  0  0
 23 62  1  0  0  0  0
 23 63  1  0  0  0  0
 23 64  1  0  0  0  0
 24 29  1  0  0  0  0
 24 31  1  0  0  0  0
 24 65  1  0  0  0  0
 25 26  1  0  0  0  0
 26 28  1  0  0  0  0
 26 66  1  0  0  0  0
 27 30  1  0  0  0  0
 28 32  1  0  0  0  0
 28 33  1  0  0  0  0
 28 67  1  0  0  0  0
 29 34  1  0  0  0  0
 29 68  1  0  0  0  0
 29 69  1  0  0  0  0
 30 35  1  0  0  0  0
 30 36  2  0  0  0  0
 31 71  1  0  0  0  0
 32 72  1  0  0  0  0
 32 73  1  0  0  0  0
 32 74  1  0  0  0  0
 33 75  1  0  0  0  0
 33 76  1  0  0  0  0
 33 77  1  0  0  0  0
 34 78  1  0  0  0  0
 34 79  1  0  0  0  0
 34 80  1  0  0  0  0
 35 38  1  0  0  0  0
 35 40  2  0  0  0  0
 36 39  1  0  0  0  0
 36 81  1  0  0  0  0
 37 43  1  0  0  0  0
 38 41  1  0  0  0  0
 38 42  2  0  0  0  0
 39 41  2  0  0  0  0
 39 82  1  0  0  0  0
 40 44  1  0  0  0  0
 40 83  1  0  0  0  0
 41 84  1  0  0  0  0
 42 45  1  0  0  0  0
 42 85  1  0  0  0  0
 43 46  1  0  0  0  0
 44 45  2  0  0  0  0
 44 86  1  0  0  0  0
 45 87  1  0  0  0  0
 46 88  1  0  0  0  0
 47 48  2  0  0  0  0
 47 89  1  0  0  0  0
 48 90  1  0  0  0  0
M  END
> <PUBCHEM_COMPOUND_CID>
511143
> <PUBCHEM_COMPOUND_CANONICALIZED>
1
> <PUBCHEM_CACTVS_COMPLEXITY>
1160
> <PUBCHEM_CACTVS_HBOND_ACCEPTOR>
9
> <PUBCHEM_CACTVS_HBOND_DONOR>
3
> <PUBCHEM_CACTVS_ROTATABLE_BOND>
14
> <PUBCHEM_CACTVS_SUBSKEYS>
AAADcfB/uAAAAAAAAAAAAAAAAAAAAWAAAAA8YIAAAAAAAADB1AAAHgAQAAAADTzhngY+iNPIFACoAz333ACCgCQ3EiAI2IG4fMgKZnrA9TiXMYgm1gHYqce6yeCOgAACAAAQAAAAAAQAACAAAAAAAAAAAA==
> <PUBCHEM_IUPAC_OPENEYE_NAME>
[(3R,5S)-5-(1-formylpropylcarbamoyl)-1-[(2R)-3-methyl-2-[[(2R)-3-methyl-2-(pyrazine-2-carbonylamino)butanoyl]amino]butanoyl]pyrrolidin-3-yl] naphthalene-1-carboxylate
> <PUBCHEM_IUPAC_CAS_NAME>
1-naphthalenecarboxylic acid [(3R,5S)-1-[(2R)-3-methyl-2-[[(2R)-3-methyl-1-oxo-2-[[oxo(2-pyrazinyl)methyl]amino]butyl]amino]-1-oxobutyl]-5-[oxo-(1-oxobutan-2-ylamino)methyl]-3-pyrrolidinyl] ester
> <PUBCHEM_IUPAC_NAME_MARKUP>
[(3<I>R</I>,5<I>S</I>)-1-[(2<I>R</I>)-3-methyl-2-[[(2<I>R</I>)-3-methyl-2-(pyrazine-2-carbonylamino)butanoyl]amino]butanoyl]-5-(1-oxobutan-2-ylcarbamoyl)pyrrolidin-3-yl] naphthalene-1-carboxylate
> <PUBCHEM_IUPAC_NAME>
[(3R,5S)-1-[(2R)-3-methyl-2-[[(2R)-3-methyl-2-(pyrazine-2-carbonylamino)butanoyl]amino]butanoyl]-5-(1-oxobutan-2-ylcarbamoyl)pyrrolidin-3-yl] naphthalene-1-carboxylate
> <PUBCHEM_IUPAC_SYSTEMATIC_NAME>
[(3R,5S)-1-[(2R)-3-methyl-2-[[(2R)-3-methyl-2-(pyrazin-2-ylcarbonylamino)butanoyl]amino]butanoyl]-5-(1-oxidanylidenebutan-2-ylcarbamoyl)pyrrolidin-3-yl] naphthalene-1-carboxylate
> <PUBCHEM_IUPAC_TRADITIONAL_NAME>
naphthalene-1-carboxylic acid [(3R,5S)-5-(1-formylpropylcarbamoyl)-1-[(2R)-3-methyl-2-[[(2R)-3-methyl-2-(pyrazinoylamino)butanoyl]amino]butanoyl]pyrrolidin-3-yl] ester
> <PUBCHEM_IUPAC_INCHI>
InChI=1S/C35H42N6O7/c1-6-23(19-42)38-32(44)28-16-24(48-35(47)26-13-9-11-22-10-7-8-12-25(22)26)18-41(28)34(46)30(21(4)5)40-33(45)29(20(2)3)39-31(43)27-17-36-14-15-37-27/h7-15,17,19-21,23-24,28-30H,6,16,18H2,1-5H3,(H,38,44)(H,39,43)(H,40,45)/t23?,24-,28+,29-,30-/m1/s1
> <PUBCHEM_IUPAC_INCHIKEY>
MOAYYWRYMWRVQP-CHYQHZJYSA-N
> <PUBCHEM_XLOGP3_AA>
3.8
> <PUBCHEM_EXACT_MASS>
658.31149770
> <PUBCHEM_MOLECULAR_FORMULA>
C35H42N6O7
> <PUBCHEM_MOLECULAR_WEIGHT>
658.7
> <PUBCHEM_OPENEYE_CAN_SMILES>
CCC(C=O)NC(=O)C1CC(CN1C(=O)C(C(C)C)NC(=O)C(C(C)C)NC(=O)C2=NC=CN=C2)OC(=O)C3=CC=CC4=CC=CC=C43
> <PUBCHEM_OPENEYE_ISO_SMILES>
CCC(C=O)NC(=O)[C@@H]1C[C@H](CN1C(=O)[C@@H](C(C)C)NC(=O)[C@@H](C(C)C)NC(=O)C2=NC=CN=C2)OC(=O)C3=CC=CC4=CC=CC=C43
> <PUBCHEM_CACTVS_TPSA>
177
> <PUBCHEM_MONOISOTOPIC_WEIGHT>
658.31149770
> <PUBCHEM_TOTAL_CHARGE>
0
> <PUBCHEM_HEAVY_ATOM_COUNT>
48
> <PUBCHEM_ATOM_DEF_STEREO_COUNT>
4
> <PUBCHEM_ATOM_UDEF_STEREO_COUNT>
1
> <PUBCHEM_BOND_DEF_STEREO_COUNT>
0
> <PUBCHEM_BOND_UDEF_STEREO_COUNT>
0
> <PUBCHEM_ISOTOPIC_ATOM_COUNT>
0
> <PUBCHEM_COMPONENT_COUNT>
1
> <PUBCHEM_CACTVS_TAUTO_COUNT>
-1
> <PUBCHEM_COORDINATE_TYPE>
1
5
255
> <PUBCHEM_BONDANNOTATIONS>
16  1  6
26  11  5
12  43  8
12  47  8
13  46  8
13  48  8
14  20  5
24  29  3
30  35  8
30  36  8
35  38  8
35  40  8
36  39  8
38  41  8
38  42  8
39  41  8
40  44  8
42  45  8
43  46  8
44  45  8
47  48  8
19  9  6
$$$$
