511193
  -OEChem-10302200282D
 43 44  0     1  0  0  0  0  0999 V2000
    4.1349   -1.9081    0.0000 P   0  0  3  0  0  0  0  0  0  0  0  0
    3.6750    1.5745    0.0000 O   0  0  0  0  0  0  0  0  0  0  0  0
    3.5471   -1.0991    0.0000 O   0  0  0  0  0  0  0  0  0  0  0  0
    3.3258   -2.4959    0.0000 O   0  0  0  0  0  0  0  0  0  0  0  0
    4.9439   -1.3204    0.0000 O   0  0  0  0  0  0  0  0  0  0  0  0
    4.5981    3.1623    0.0000 O   0  0  0  0  0  0  0  0  0  0  0  0
    4.4970   -5.3533    0.0000 O   0  0  0  0  0  0  0  0  0  0  0  0
    2.8660    6.1623    0.0000 O   0  0  0  0  0  0  0  0  0  0  0  0
    5.8982   -4.3352    0.0000 O   0  0  0  0  0  0  0  0  0  0  0  0
    2.8660    3.1623    0.0000 N   0  0  0  0  0  0  0  0  0  0  0  0
    4.7226   -2.7172    0.0000 N   0  0  0  0  0  0  0  0  0  0  0  0
    3.7320    4.6623    0.0000 N   0  0  0  0  0  0  0  0  0  0  0  0
    3.3660    0.6234    0.0000 C   0  0  2  0  0  0  0  0  0  0  0  0
    2.8660    2.1623    0.0000 C   0  0  1  0  0  0  0  0  0  0  0  0
    3.9538   -0.1856    0.0000 C   0  0  0  0  0  0  0  0  0  0  0  0
    2.3660    0.6234    0.0000 C   0  0  0  0  0  0  0  0  0  0  0  0
    2.0570    1.5745    0.0000 C   0  0  0  0  0  0  0  0  0  0  0  0
    4.3159   -3.6307    0.0000 C   0  0  1  0  0  0  0  0  0  0  0  0
    3.7320    3.6623    0.0000 C   0  0  0  0  0  0  0  0  0  0  0  0
    2.0000    3.6623    0.0000 C   0  0  0  0  0  0  0  0  0  0  0  0
    3.3214   -3.7352    0.0000 C   0  0  0  0  0  0  0  0  0  0  0  0
    2.0000    4.6623    0.0000 C   0  0  0  0  0  0  0  0  0  0  0  0
    2.8660    5.1623    0.0000 C   0  0  0  0  0  0  0  0  0  0  0  0
    4.9037   -4.4397    0.0000 C   0  0  0  0  0  0  0  0  0  0  0  0
    5.0847   -6.1623    0.0000 C   0  0  0  0  0  0  0  0  0  0  0  0
    3.9784    0.7204    0.0000 H   0  0  0  0  0  0  0  0  0  0  0  0
    3.4184    2.4438    0.0000 H   0  0  0  0  0  0  0  0  0  0  0  0
    4.4678   -0.5323    0.0000 H   0  0  0  0  0  0  0  0  0  0  0  0
    4.3845    0.2604    0.0000 H   0  0  0  0  0  0  0  0  0  0  0  0
    2.0016    0.1218    0.0000 H   0  0  0  0  0  0  0  0  0  0  0  0
    1.4674    1.7661    0.0000 H   0  0  0  0  0  0  0  0  0  0  0  0
    4.9325   -3.5659    0.0000 H   0  0  0  0  0  0  0  0  0  0  0  0
    1.4631    3.3523    0.0000 H   0  0  0  0  0  0  0  0  0  0  0  0
    5.3392   -2.6524    0.0000 H   0  0  0  0  0  0  0  0  0  0  0  0
    3.2566   -3.1186    0.0000 H   0  0  0  0  0  0  0  0  0  0  0  0
    2.7048   -3.8000    0.0000 H   0  0  0  0  0  0  0  0  0  0  0  0
    3.3862   -4.3518    0.0000 H   0  0  0  0  0  0  0  0  0  0  0  0
    4.2690    4.9723    0.0000 H   0  0  0  0  0  0  0  0  0  0  0  0
    1.4631    4.9723    0.0000 H   0  0  0  0  0  0  0  0  0  0  0  0
    2.7594   -2.2438    0.0000 H   0  0  0  0  0  0  0  0  0  0  0  0
    4.5832   -6.5267    0.0000 H   0  0  0  0  0  0  0  0  0  0  0  0
    5.4492   -6.6639    0.0000 H   0  0  0  0  0  0  0  0  0  0  0  0
    5.5863   -5.7979    0.0000 H   0  0  0  0  0  0  0  0  0  0  0  0
  1  3  1  0  0  0  0
  1  4  1  0  0  0  0
  1  5  2  0  0  0  0
  1 11  1  0  0  0  0
  2 13  1  0  0  0  0
  2 14  1  0  0  0  0
  3 15  1  0  0  0  0
  4 40  1  0  0  0  0
  6 19  2  0  0  0  0
  7 24  1  0  0  0  0
  7 25  1  0  0  0  0
  8 23  2  0  0  0  0
  9 24  2  0  0  0  0
 14 10  1  6  0  0  0
 10 19  1  0  0  0  0
 10 20  1  0  0  0  0
 18 11  1  6  0  0  0
 11 34  1  0  0  0  0
 12 19  1  0  0  0  0
 12 23  1  0  0  0  0
 12 38  1  0  0  0  0
 13 15  1  6  0  0  0
 13 16  1  0  0  0  0
 13 26  1  0  0  0  0
 14 17  1  0  0  0  0
 14 27  1  0  0  0  0
 15 28  1  0  0  0  0
 15 29  1  0  0  0  0
 16 17  2  0  0  0  0
 16 30  1  0  0  0  0
 17 31  1  0  0  0  0
 18 21  1  0  0  0  0
 18 24  1  0  0  0  0
 18 32  1  0  0  0  0
 20 22  2  0  0  0  0
 20 33  1  0  0  0  0
 21 35  1  0  0  0  0
 21 36  1  0  0  0  0
 21 37  1  0  0  0  0
 22 23  1  0  0  0  0
 22 39  1  0  0  0  0
 25 41  1  0  0  0  0
 25 42  1  0  0  0  0
 25 43  1  0  0  0  0
M  END
> <PUBCHEM_COMPOUND_CID>
511193
> <PUBCHEM_COMPOUND_CANONICALIZED>
1
> <PUBCHEM_CACTVS_COMPLEXITY>
664
> <PUBCHEM_CACTVS_HBOND_ACCEPTOR>
9
> <PUBCHEM_CACTVS_HBOND_DONOR>
3
> <PUBCHEM_CACTVS_ROTATABLE_BOND>
8
> <PUBCHEM_CACTVS_SUBSKEYS>
AAADceBzPAIAAAAAAAAAAAAAAAAAAQAAAAAgAAAAAAAAAAAAAAAAHgAQiCAACDzhgAYDCAPABRCIQCHWWICAAAAgAgAICIGIAEiDBAAAIQALEAAIVyIKIMIAAAAAAAAAAAAAAAAAAAAAAAAAAAAAAAAAAA==
> <PUBCHEM_IUPAC_OPENEYE_NAME>
[(2S,5R)-5-(2,4-dioxopyrimidin-1-yl)-2,5-dihydrofuran-2-yl]methoxy-N-[(1S)-2-methoxy-1-methyl-2-oxo-ethyl]phosphonamidic acid
> <PUBCHEM_IUPAC_CAS_NAME>
[(2S,5R)-5-(2,4-dioxo-1-pyrimidinyl)-2,5-dihydrofuran-2-yl]methoxy-N-[(2S)-1-methoxy-1-oxopropan-2-yl]phosphonamidic acid
> <PUBCHEM_IUPAC_NAME_MARKUP>
[(2<I>S</I>,5<I>R</I>)-5-(2,4-dioxopyrimidin-1-yl)-2,5-dihydrofuran-2-yl]methoxy-<I>N</I>-[(2<I>S</I>)-1-methoxy-1-oxopropan-2-yl]phosphonamidic acid
> <PUBCHEM_IUPAC_NAME>
[(2S,5R)-5-(2,4-dioxopyrimidin-1-yl)-2,5-dihydrofuran-2-yl]methoxy-N-[(2S)-1-methoxy-1-oxopropan-2-yl]phosphonamidic acid
> <PUBCHEM_IUPAC_SYSTEMATIC_NAME>
[(2S,5R)-5-[2,4-bis(oxidanylidene)pyrimidin-1-yl]-2,5-dihydrofuran-2-yl]methoxy-N-[(2S)-1-methoxy-1-oxidanylidene-propan-2-yl]phosphonamidic acid
> <PUBCHEM_IUPAC_TRADITIONAL_NAME>
[(2S,5R)-5-(2,4-diketopyrimidin-1-yl)-2,5-dihydrofuran-2-yl]methoxy-N-[(1S)-2-keto-2-methoxy-1-methyl-ethyl]phosphonamidic acid
> <PUBCHEM_IUPAC_INCHI>
InChI=1S/C13H18N3O8P/c1-8(12(18)22-2)15-25(20,21)23-7-9-3-4-11(24-9)16-6-5-10(17)14-13(16)19/h3-6,8-9,11H,7H2,1-2H3,(H,14,17,19)(H2,15,20,21)/t8-,9-,11+/m0/s1
> <PUBCHEM_IUPAC_INCHIKEY>
RCZXTGNOCUTYHA-ATZCPNFKSA-N
> <PUBCHEM_XLOGP3>
-1.6
> <PUBCHEM_EXACT_MASS>
375.08315154
> <PUBCHEM_MOLECULAR_FORMULA>
C13H18N3O8P
> <PUBCHEM_MOLECULAR_WEIGHT>
375.27
> <PUBCHEM_OPENEYE_CAN_SMILES>
CC(C(=O)OC)NP(=O)(O)OCC1C=CC(O1)N2C=CC(=O)NC2=O
> <PUBCHEM_OPENEYE_ISO_SMILES>
C[C@@H](C(=O)OC)NP(=O)(O)OC[C@@H]1C=C[C@@H](O1)N2C=CC(=O)NC2=O
> <PUBCHEM_CACTVS_TPSA>
144
> <PUBCHEM_MONOISOTOPIC_WEIGHT>
375.08315154
> <PUBCHEM_TOTAL_CHARGE>
0
> <PUBCHEM_HEAVY_ATOM_COUNT>
25
> <PUBCHEM_ATOM_DEF_STEREO_COUNT>
3
> <PUBCHEM_ATOM_UDEF_STEREO_COUNT>
0
> <PUBCHEM_BOND_DEF_STEREO_COUNT>
0
> <PUBCHEM_BOND_UDEF_STEREO_COUNT>
0
> <PUBCHEM_ISOTOPIC_ATOM_COUNT>
0
> <PUBCHEM_COMPONENT_COUNT>
1
> <PUBCHEM_CACTVS_TAUTO_COUNT>
-1
> <PUBCHEM_COORDINATE_TYPE>
1
5
255
> <PUBCHEM_BONDANNOTATIONS>
14  10  6
10  19  8
10  20  8
18  11  6
12  19  8
12  23  8
13  15  6
20  22  8
22  23  8
$$$$
