511119
  -OEChem-10302200282D
 75 80  0     1  0  0  0  0  0999 V2000
    6.4103   -3.0730    0.0000 S   0  0  0  0  0  0  0  0  0  0  0  0
    8.2727   -4.0283    0.0000 O   0  0  0  0  0  0  0  0  0  0  0  0
   11.6165   -1.8259    0.0000 O   0  0  0  0  0  0  0  0  0  0  0  0
   12.9709   -1.6812    0.0000 O   0  0  0  0  0  0  0  0  0  0  0  0
    2.8660   -1.2683    0.0000 O   0  0  0  0  0  0  0  0  0  0  0  0
   10.1150   -0.9625    0.0000 N   0  0  0  0  0  0  0  0  0  0  0  0
    7.9939   -2.2682    0.0000 N   0  0  0  0  0  0  0  0  0  0  0  0
   12.6078    0.0124    0.0000 N   0  0  0  0  0  0  0  0  0  0  0  0
    6.4103   -1.4635    0.0000 N   0  0  0  0  0  0  0  0  0  0  0  0
   14.2560   -0.5200    0.0000 N   0  0  0  0  0  0  0  0  0  0  0  0
    9.5328   -1.7682    0.0000 C   0  0  1  0  0  0  0  0  0  0  0  0
    8.5817   -1.4592    0.0000 C   0  0  2  0  0  0  0  0  0  0  0  0
    9.5328   -2.7682    0.0000 C   0  0  1  0  0  0  0  0  0  0  0  0
    8.5843   -0.4652    0.0000 C   0  0  0  0  0  0  0  0  0  0  0  0
    9.5300   -0.1588    0.0000 C   0  0  0  0  0  0  0  0  0  0  0  0
    8.5817   -3.0773    0.0000 C   0  0  0  0  0  0  0  0  0  0  0  0
   11.1150   -0.9608    0.0000 C   0  0  0  0  0  0  0  0  0  0  0  0
   11.6135   -0.0939    0.0000 C   0  0  2  0  0  0  0  0  0  0  0  0
   10.3418   -3.3560    0.0000 C   0  0  0  0  0  0  0  0  0  0  0  0
    6.9939   -2.2682    0.0000 C   0  0  0  0  0  0  0  0  0  0  0  0
   11.2052    0.8190    0.0000 C   0  0  0  0  0  0  0  0  0  0  0  0
   11.9472    1.4894    0.0000 C   0  0  0  0  0  0  0  0  0  0  0  0
   12.8140    0.9909    0.0000 C   0  0  0  0  0  0  0  0  0  0  0  0
   13.2782   -0.7296    0.0000 C   0  0  0  0  0  0  0  0  0  0  0  0
    5.4641   -1.7682    0.0000 C   0  0  0  0  0  0  0  0  0  0  0  0
    5.4641   -2.7682    0.0000 C   0  0  0  0  0  0  0  0  0  0  0  0
    4.5981   -1.2683    0.0000 C   0  0  0  0  0  0  0  0  0  0  0  0
    4.5981   -3.2682    0.0000 C   0  0  0  0  0  0  0  0  0  0  0  0
   14.5634    0.4316    0.0000 C   0  0  0  0  0  0  0  0  0  0  0  0
    3.7320   -1.7682    0.0000 C   0  0  0  0  0  0  0  0  0  0  0  0
    3.7320   -2.7682    0.0000 C   0  0  0  0  0  0  0  0  0  0  0  0
   15.5412    0.6412    0.0000 C   0  0  0  0  0  0  0  0  0  0  0  0
   13.8930    1.1736    0.0000 C   0  0  0  0  0  0  0  0  0  0  0  0
   15.1781    2.3348    0.0000 C   0  0  0  0  0  0  0  0  0  0  0  0
   15.8486    1.5928    0.0000 C   0  0  0  0  0  0  0  0  0  0  0  0
   14.2004    2.1251    0.0000 C   0  0  0  0  0  0  0  0  0  0  0  0
   15.4855    3.2863    0.0000 C   0  0  0  0  0  0  0  0  0  0  0  0
    2.0000   -1.7682    0.0000 C   0  0  0  0  0  0  0  0  0  0  0  0
   16.4633    3.4959    0.0000 C   0  0  0  0  0  0  0  0  0  0  0  0
   14.8151    4.0283    0.0000 C   0  0  0  0  0  0  0  0  0  0  0  0
   10.3415   -2.0299    0.0000 H   0  0  0  0  0  0  0  0  0  0  0  0
    7.7737   -1.1955    0.0000 H   0  0  0  0  0  0  0  0  0  0  0  0
    9.4358   -3.3806    0.0000 H   0  0  0  0  0  0  0  0  0  0  0  0
    8.4563    0.1415    0.0000 H   0  0  0  0  0  0  0  0  0  0  0  0
    7.9676   -0.5287    0.0000 H   0  0  0  0  0  0  0  0  0  0  0  0
   10.0668    0.1514    0.0000 H   0  0  0  0  0  0  0  0  0  0  0  0
    9.2780    0.4077    0.0000 H   0  0  0  0  0  0  0  0  0  0  0  0
   11.9521   -0.6133    0.0000 H   0  0  0  0  0  0  0  0  0  0  0  0
    9.9774   -3.8576    0.0000 H   0  0  0  0  0  0  0  0  0  0  0  0
   10.8434   -3.7205    0.0000 H   0  0  0  0  0  0  0  0  0  0  0  0
   10.7062   -2.8544    0.0000 H   0  0  0  0  0  0  0  0  0  0  0  0
   10.8399    1.3199    0.0000 H   0  0  0  0  0  0  0  0  0  0  0  0
   10.6688    0.5080    0.0000 H   0  0  0  0  0  0  0  0  0  0  0  0
   12.3107    1.9916    0.0000 H   0  0  0  0  0  0  0  0  0  0  0  0
   11.4857    1.9034    0.0000 H   0  0  0  0  0  0  0  0  0  0  0  0
   13.4040    0.8003    0.0000 H   0  0  0  0  0  0  0  0  0  0  0  0
   13.0652    1.5577    0.0000 H   0  0  0  0  0  0  0  0  0  0  0  0
   14.6717   -0.9801    0.0000 H   0  0  0  0  0  0  0  0  0  0  0  0
    4.5981   -0.6482    0.0000 H   0  0  0  0  0  0  0  0  0  0  0  0
    4.5981   -3.8882    0.0000 H   0  0  0  0  0  0  0  0  0  0  0  0
    3.1951   -3.0782    0.0000 H   0  0  0  0  0  0  0  0  0  0  0  0
   15.9568    0.1811    0.0000 H   0  0  0  0  0  0  0  0  0  0  0  0
   13.2868    1.0436    0.0000 H   0  0  0  0  0  0  0  0  0  0  0  0
   16.4548    1.7227    0.0000 H   0  0  0  0  0  0  0  0  0  0  0  0
   13.7847    2.5852    0.0000 H   0  0  0  0  0  0  0  0  0  0  0  0
   15.9012    2.8263    0.0000 H   0  0  0  0  0  0  0  0  0  0  0  0
    1.6900   -1.2313    0.0000 H   0  0  0  0  0  0  0  0  0  0  0  0
    1.4631   -2.0782    0.0000 H   0  0  0  0  0  0  0  0  0  0  0  0
    2.3100   -2.3052    0.0000 H   0  0  0  0  0  0  0  0  0  0  0  0
   16.5933    2.8897    0.0000 H   0  0  0  0  0  0  0  0  0  0  0  0
   17.0695    3.6259    0.0000 H   0  0  0  0  0  0  0  0  0  0  0  0
   16.3333    4.1022    0.0000 H   0  0  0  0  0  0  0  0  0  0  0  0
   15.2751    4.4440    0.0000 H   0  0  0  0  0  0  0  0  0  0  0  0
   14.3994    4.4883    0.0000 H   0  0  0  0  0  0  0  0  0  0  0  0
   14.3551    3.6127    0.0000 H   0  0  0  0  0  0  0  0  0  0  0  0
  1 20  1  0  0  0  0
  1 26  1  0  0  0  0
  2 16  2  0  0  0  0
  3 17  2  0  0  0  0
  4 24  2  0  0  0  0
  5 30  1  0  0  0  0
  5 38  1  0  0  0  0
  6 11  1  0  0  0  0
  6 15  1  0  0  0  0
  6 17  1  0  0  0  0
  7 12  1  0  0  0  0
  7 16  1  0  0  0  0
  7 20  1  0  0  0  0
  8 18  1  0  0  0  0
  8 23  1  0  0  0  0
  8 24  1  0  0  0  0
  9 20  2  0  0  0  0
  9 25  1  0  0  0  0
 10 24  1  0  0  0  0
 10 29  1  0  0  0  0
 10 58  1  0  0  0  0
 11 12  1  0  0  0  0
 11 13  1  0  0  0  0
 11 41  1  1  0  0  0
 12 14  1  0  0  0  0
 12 42  1  6  0  0  0
 13 16  1  0  0  0  0
 13 19  1  6  0  0  0
 13 43  1  0  0  0  0
 14 15  1  0  0  0  0
 14 44  1  0  0  0  0
 14 45  1  0  0  0  0
 15 46  1  0  0  0  0
 15 47  1  0  0  0  0
 18 17  1  6  0  0  0
 18 21  1  0  0  0  0
 18 48  1  0  0  0  0
 19 49  1  0  0  0  0
 19 50  1  0  0  0  0
 19 51  1  0  0  0  0
 21 22  1  0  0  0  0
 21 52  1  0  0  0  0
 21 53  1  0  0  0  0
 22 23  1  0  0  0  0
 22 54  1  0  0  0  0
 22 55  1  0  0  0  0
 23 56  1  0  0  0  0
 23 57  1  0  0  0  0
 25 26  2  0  0  0  0
 25 27  1  0  0  0  0
 26 28  1  0  0  0  0
 27 30  2  0  0  0  0
 27 59  1  0  0  0  0
 28 31  2  0  0  0  0
 28 60  1  0  0  0  0
 29 32  2  0  0  0  0
 29 33  1  0  0  0  0
 30 31  1  0  0  0  0
 31 61  1  0  0  0  0
 32 35  1  0  0  0  0
 32 62  1  0  0  0  0
 33 36  2  0  0  0  0
 33 63  1  0  0  0  0
 34 35  2  0  0  0  0
 34 36  1  0  0  0  0
 34 37  1  0  0  0  0
 35 64  1  0  0  0  0
 36 65  1  0  0  0  0
 37 39  1  0  0  0  0
 37 40  1  0  0  0  0
 37 66  1  0  0  0  0
 38 67  1  0  0  0  0
 38 68  1  0  0  0  0
 38 69  1  0  0  0  0
 39 70  1  0  0  0  0
 39 71  1  0  0  0  0
 39 72  1  0  0  0  0
 40 73  1  0  0  0  0
 40 74  1  0  0  0  0
 40 75  1  0  0  0  0
M  END
> <PUBCHEM_COMPOUND_CID>
511119
> <PUBCHEM_COMPOUND_CANONICALIZED>
1
> <PUBCHEM_CACTVS_COMPLEXITY>
974
> <PUBCHEM_CACTVS_HBOND_ACCEPTOR>
6
> <PUBCHEM_CACTVS_HBOND_DONOR>
1
> <PUBCHEM_CACTVS_ROTATABLE_BOND>
5
> <PUBCHEM_CACTVS_SUBSKEYS>
AAADcfB7uABAAAAAAAAAAAAAAAAAAWLFiwAwYAAAAAAWAFgB9AAAHgQQAAAADSzB3gYz17PIFAisAyVydACD+KlhKjhJmD2+bJiMZrrk+buUMChu1xvI6Cec2cMOiIAAAgAAAQARAAAEAAACAAAAAAAAAA==
> <PUBCHEM_IUPAC_OPENEYE_NAME>
(2S)-2-[(3aS,6S,6aR)-4-(5-methoxy-1,3-benzothiazol-2-yl)-6-methyl-5-oxo-3,3a,6,6a-tetrahydro-2H-pyrrolo[3,2-b]pyrrole-1-carbonyl]-N-(4-isopropylphenyl)pyrrolidine-1-carboxamide
> <PUBCHEM_IUPAC_CAS_NAME>
(2S)-2-[[(3aS,6S,6aR)-4-(5-methoxy-1,3-benzothiazol-2-yl)-6-methyl-5-oxo-3,3a,6,6a-tetrahydro-2H-pyrrolo[3,2-b]pyrrol-1-yl]-oxomethyl]-N-(4-propan-2-ylphenyl)-1-pyrrolidinecarboxamide
> <PUBCHEM_IUPAC_NAME_MARKUP>
(2<I>S</I>)-2-[(3<I>a</I><I>S</I>,6<I>S</I>,6<I>a</I><I>R</I>)-4-(5-methoxy-1,3-benzothiazol-2-yl)-6-methyl-5-oxo-3,3<I>a</I>,6,6<I>a</I>-tetrahydro-2<I>H</I>-pyrrolo[3,2-b]pyrrole-1-carbonyl]-<I>N</I>-(4-propan-2-ylphenyl)pyrrolidine-1-carboxamide
> <PUBCHEM_IUPAC_NAME>
(2S)-2-[(3aS,6S,6aR)-4-(5-methoxy-1,3-benzothiazol-2-yl)-6-methyl-5-oxo-3,3a,6,6a-tetrahydro-2H-pyrrolo[3,2-b]pyrrole-1-carbonyl]-N-(4-propan-2-ylphenyl)pyrrolidine-1-carboxamide
> <PUBCHEM_IUPAC_SYSTEMATIC_NAME>
(2S)-2-[[(3aS,6S,6aR)-4-(5-methoxy-1,3-benzothiazol-2-yl)-6-methyl-5-oxidanylidene-3,3a,6,6a-tetrahydro-2H-pyrrolo[3,2-b]pyrrol-1-yl]carbonyl]-N-(4-propan-2-ylphenyl)pyrrolidine-1-carboxamide
> <PUBCHEM_IUPAC_TRADITIONAL_NAME>
(2S)-2-[(3aS,6S,6aR)-5-keto-4-(5-methoxy-1,3-benzothiazol-2-yl)-6-methyl-3,3a,6,6a-tetrahydro-2H-pyrrolo[3,2-b]pyrrole-1-carbonyl]-N-p-cumenyl-pyrrolidine-1-carboxamide
> <PUBCHEM_IUPAC_INCHI>
InChI=1S/C30H35N5O4S/c1-17(2)19-7-9-20(10-8-19)31-29(38)33-14-5-6-24(33)28(37)34-15-13-23-26(34)18(3)27(36)35(23)30-32-22-16-21(39-4)11-12-25(22)40-30/h7-12,16-18,23-24,26H,5-6,13-15H2,1-4H3,(H,31,38)/t18-,23-,24-,26+/m0/s1
> <PUBCHEM_IUPAC_INCHIKEY>
VOJYJZGUVCOBFD-ZMSGJQCASA-N
> <PUBCHEM_XLOGP3_AA>
4.6
> <PUBCHEM_EXACT_MASS>
561.24097579
> <PUBCHEM_MOLECULAR_FORMULA>
C30H35N5O4S
> <PUBCHEM_MOLECULAR_WEIGHT>
561.7
> <PUBCHEM_OPENEYE_CAN_SMILES>
CC1C2C(CCN2C(=O)C3CCCN3C(=O)NC4=CC=C(C=C4)C(C)C)N(C1=O)C5=NC6=C(S5)C=CC(=C6)OC
> <PUBCHEM_OPENEYE_ISO_SMILES>
C[C@H]1[C@@H]2[C@H](CCN2C(=O)[C@@H]3CCCN3C(=O)NC4=CC=C(C=C4)C(C)C)N(C1=O)C5=NC6=C(S5)C=CC(=C6)OC
> <PUBCHEM_CACTVS_TPSA>
123
> <PUBCHEM_MONOISOTOPIC_WEIGHT>
561.24097579
> <PUBCHEM_TOTAL_CHARGE>
0
> <PUBCHEM_HEAVY_ATOM_COUNT>
40
> <PUBCHEM_ATOM_DEF_STEREO_COUNT>
4
> <PUBCHEM_ATOM_UDEF_STEREO_COUNT>
0
> <PUBCHEM_BOND_DEF_STEREO_COUNT>
0
> <PUBCHEM_BOND_UDEF_STEREO_COUNT>
0
> <PUBCHEM_ISOTOPIC_ATOM_COUNT>
0
> <PUBCHEM_COMPONENT_COUNT>
1
> <PUBCHEM_CACTVS_TAUTO_COUNT>
-1
> <PUBCHEM_COORDINATE_TYPE>
1
5
255
> <PUBCHEM_BONDANNOTATIONS>
1  20  8
1  26  8
11  41  5
12  42  6
13  19  6
18  17  6
25  26  8
25  27  8
26  28  8
27  30  8
28  31  8
29  32  8
29  33  8
30  31  8
32  35  8
33  36  8
34  35  8
34  36  8
9  20  8
9  25  8
$$$$
