511139
  -OEChem-10302200282D
 88 91  0     1  0  0  0  0  0999 V2000
   11.4550   -0.4991    0.0000 O   0  0  0  0  0  0  0  0  0  0  0  0
    7.4240    1.0418    0.0000 O   0  0  0  0  0  0  0  0  0  0  0  0
    8.1050    2.2214    0.0000 O   0  0  0  0  0  0  0  0  0  0  0  0
    6.7916   -2.5078    0.0000 O   0  0  0  0  0  0  0  0  0  0  0  0
    9.4616    5.5620    0.0000 O   0  0  0  0  0  0  0  0  0  0  0  0
    3.2202   -2.0124    0.0000 O   0  0  0  0  0  0  0  0  0  0  0  0
    9.0063    0.3373    0.0000 N   0  0  0  0  0  0  0  0  0  0  0  0
    6.6105   -0.7853    0.0000 N   0  0  0  0  0  0  0  0  0  0  0  0
    9.6873    2.9259    0.0000 N   0  0  0  0  0  0  0  0  0  0  0  0
    4.8025   -2.7169    0.0000 N   0  0  0  0  0  0  0  0  0  0  0  0
    2.4067   -3.8395    0.0000 N   0  0  0  0  0  0  0  0  0  0  0  0
    3.5823   -5.4575    0.0000 N   0  0  0  0  0  0  0  0  0  0  0  0
    9.5063    1.2034    0.0000 C   0  0  1  0  0  0  0  0  0  0  0  0
   10.5890    0.0009    0.0000 C   0  0  2  0  0  0  0  0  0  0  0  0
   10.4844    0.9955    0.0000 C   0  0  0  0  0  0  0  0  0  0  0  0
    9.6754   -0.4058    0.0000 C   0  0  0  0  0  0  0  0  0  0  0  0
    8.0118    0.2328    0.0000 C   0  0  0  0  0  0  0  0  0  0  0  0
    7.6050   -0.6807    0.0000 C   0  0  1  0  0  0  0  0  0  0  0  0
    9.0996    2.1169    0.0000 C   0  0  0  0  0  0  0  0  0  0  0  0
    8.1928   -1.4897    0.0000 C   0  0  0  0  0  0  0  0  0  0  0  0
    7.7861   -2.4033    0.0000 C   0  0  0  0  0  0  0  0  0  0  0  0
    9.1873   -1.3852    0.0000 C   0  0  0  0  0  0  0  0  0  0  0  0
   12.3210    0.0009    0.0000 C   0  0  0  0  0  0  0  0  0  0  0  0
    9.2806    3.8395    0.0000 C   0  0  1  0  0  0  0  0  0  0  0  0
    6.2038   -1.6988    0.0000 C   0  0  0  0  0  0  0  0  0  0  0  0
    5.2092   -1.8033    0.0000 C   0  0  1  0  0  0  0  0  0  0  0  0
    4.6215   -0.9943    0.0000 C   0  0  0  0  0  0  0  0  0  0  0  0
    8.2861    3.9440    0.0000 C   0  0  0  0  0  0  0  0  0  0  0  0
   13.1870   -0.4991    0.0000 C   0  0  0  0  0  0  0  0  0  0  0  0
   12.3210    1.0009    0.0000 C   0  0  0  0  0  0  0  0  0  0  0  0
    9.8684    4.6485    0.0000 C   0  0  0  0  0  0  0  0  0  0  0  0
    3.6270   -1.0988    0.0000 C   0  0  0  0  0  0  0  0  0  0  0  0
    5.0282   -0.0808    0.0000 C   0  0  0  0  0  0  0  0  0  0  0  0
   14.0531    0.0009    0.0000 C   0  0  0  0  0  0  0  0  0  0  0  0
   13.1870    1.5009    0.0000 C   0  0  0  0  0  0  0  0  0  0  0  0
    7.8794    4.8576    0.0000 C   0  0  0  0  0  0  0  0  0  0  0  0
   14.0531    1.0009    0.0000 C   0  0  0  0  0  0  0  0  0  0  0  0
    3.8080   -2.8214    0.0000 C   0  0  0  0  0  0  0  0  0  0  0  0
   14.9470   -0.5337    0.0000 C   0  0  0  0  0  0  0  0  0  0  0  0
   14.9470    1.5356    0.0000 C   0  0  0  0  0  0  0  0  0  0  0  0
   15.8531   -0.0199    0.0000 C   0  0  0  0  0  0  0  0  0  0  0  0
   15.8531    1.0218    0.0000 C   0  0  0  0  0  0  0  0  0  0  0  0
    3.4013   -3.7350    0.0000 C   0  0  0  0  0  0  0  0  0  0  0  0
    3.9890   -4.5440    0.0000 C   0  0  0  0  0  0  0  0  0  0  0  0
    2.0000   -4.7530    0.0000 C   0  0  0  0  0  0  0  0  0  0  0  0
    2.5878   -5.5620    0.0000 C   0  0  0  0  0  0  0  0  0  0  0  0
    8.8871    1.2358    0.0000 H   0  0  0  0  0  0  0  0  0  0  0  0
   11.1089    0.3386    0.0000 H   0  0  0  0  0  0  0  0  0  0  0  0
   11.1044    0.9955    0.0000 H   0  0  0  0  0  0  0  0  0  0  0  0
   10.5492    1.6121    0.0000 H   0  0  0  0  0  0  0  0  0  0  0  0
    9.1738   -0.7702    0.0000 H   0  0  0  0  0  0  0  0  0  0  0  0
    9.9854   -0.9427    0.0000 H   0  0  0  0  0  0  0  0  0  0  0  0
    7.2406   -0.1791    0.0000 H   0  0  0  0  0  0  0  0  0  0  0  0
    8.5572   -1.9913    0.0000 H   0  0  0  0  0  0  0  0  0  0  0  0
    6.2461   -0.2837    0.0000 H   0  0  0  0  0  0  0  0  0  0  0  0
   10.3039    2.8611    0.0000 H   0  0  0  0  0  0  0  0  0  0  0  0
    7.2197   -2.1511    0.0000 H   0  0  0  0  0  0  0  0  0  0  0  0
    7.5339   -2.9697    0.0000 H   0  0  0  0  0  0  0  0  0  0  0  0
    8.3525   -2.6555    0.0000 H   0  0  0  0  0  0  0  0  0  0  0  0
    9.2522   -2.0018    0.0000 H   0  0  0  0  0  0  0  0  0  0  0  0
    9.8040   -1.3204    0.0000 H   0  0  0  0  0  0  0  0  0  0  0  0
    9.1225   -0.7686    0.0000 H   0  0  0  0  0  0  0  0  0  0  0  0
    8.9162    3.3379    0.0000 H   0  0  0  0  0  0  0  0  0  0  0  0
    5.5737   -2.3049    0.0000 H   0  0  0  0  0  0  0  0  0  0  0  0
    5.2381   -0.9295    0.0000 H   0  0  0  0  0  0  0  0  0  0  0  0
    7.6845    3.7940    0.0000 H   0  0  0  0  0  0  0  0  0  0  0  0
    8.3293    3.3255    0.0000 H   0  0  0  0  0  0  0  0  0  0  0  0
   13.1870   -1.1191    0.0000 H   0  0  0  0  0  0  0  0  0  0  0  0
   11.7841    1.3109    0.0000 H   0  0  0  0  0  0  0  0  0  0  0  0
    5.1669   -3.2185    0.0000 H   0  0  0  0  0  0  0  0  0  0  0  0
   10.4850    4.5837    0.0000 H   0  0  0  0  0  0  0  0  0  0  0  0
    3.5621   -0.4822    0.0000 H   0  0  0  0  0  0  0  0  0  0  0  0
    3.0103   -1.1636    0.0000 H   0  0  0  0  0  0  0  0  0  0  0  0
    3.6918   -1.7154    0.0000 H   0  0  0  0  0  0  0  0  0  0  0  0
    5.5946   -0.3329    0.0000 H   0  0  0  0  0  0  0  0  0  0  0  0
    5.2804    0.4856    0.0000 H   0  0  0  0  0  0  0  0  0  0  0  0
    4.4618    0.1714    0.0000 H   0  0  0  0  0  0  0  0  0  0  0  0
   13.1870    2.1209    0.0000 H   0  0  0  0  0  0  0  0  0  0  0  0
    8.4457    5.1097    0.0000 H   0  0  0  0  0  0  0  0  0  0  0  0
    7.6272    5.4239    0.0000 H   0  0  0  0  0  0  0  0  0  0  0  0
    7.3130    4.6054    0.0000 H   0  0  0  0  0  0  0  0  0  0  0  0
   14.9398   -1.1537    0.0000 H   0  0  0  0  0  0  0  0  0  0  0  0
   14.9398    2.1556    0.0000 H   0  0  0  0  0  0  0  0  0  0  0  0
   16.3888   -0.3319    0.0000 H   0  0  0  0  0  0  0  0  0  0  0  0
   16.3888    1.3338    0.0000 H   0  0  0  0  0  0  0  0  0  0  0  0
    4.6056   -4.4792    0.0000 H   0  0  0  0  0  0  0  0  0  0  0  0
    1.3834   -4.8178    0.0000 H   0  0  0  0  0  0  0  0  0  0  0  0
    2.3356   -6.1284    0.0000 H   0  0  0  0  0  0  0  0  0  0  0  0
 14  1  1  1  0  0  0
  1 23  1  0  0  0  0
  2 17  2  0  0  0  0
  3 19  2  0  0  0  0
  4 25  2  0  0  0  0
  5 31  2  0  0  0  0
  6 38  2  0  0  0  0
  7 13  1  0  0  0  0
  7 16  1  0  0  0  0
  7 17  1  0  0  0  0
 18  8  1  1  0  0  0
  8 25  1  0  0  0  0
  8 55  1  0  0  0  0
  9 19  1  0  0  0  0
 24  9  1  1  0  0  0
  9 56  1  0  0  0  0
 26 10  1  6  0  0  0
 10 38  1  0  0  0  0
 10 70  1  0  0  0  0
 11 43  2  0  0  0  0
 11 45  1  0  0  0  0
 12 44  2  0  0  0  0
 12 46  1  0  0  0  0
 13 15  1  0  0  0  0
 13 19  1  6  0  0  0
 13 47  1  0  0  0  0
 14 15  1  0  0  0  0
 14 16  1  0  0  0  0
 14 48  1  0  0  0  0
 15 49  1  0  0  0  0
 15 50  1  0  0  0  0
 16 51  1  0  0  0  0
 16 52  1  0  0  0  0
 17 18  1  0  0  0  0
 18 20  1  0  0  0  0
 18 53  1  0  0  0  0
 20 21  1  0  0  0  0
 20 22  1  0  0  0  0
 20 54  1  0  0  0  0
 21 57  1  0  0  0  0
 21 58  1  0  0  0  0
 21 59  1  0  0  0  0
 22 60  1  0  0  0  0
 22 61  1  0  0  0  0
 22 62  1  0  0  0  0
 23 29  2  0  0  0  0
 23 30  1  0  0  0  0
 24 28  1  0  0  0  0
 24 31  1  0  0  0  0
 24 63  1  0  0  0  0
 25 26  1  0  0  0  0
 26 27  1  0  0  0  0
 26 64  1  0  0  0  0
 27 32  1  0  0  0  0
 27 33  1  0  0  0  0
 27 65  1  0  0  0  0
 28 36  1  0  0  0  0
 28 66  1  0  0  0  0
 28 67  1  0  0  0  0
 29 34  1  0  0  0  0
 29 68  1  0  0  0  0
 30 35  2  0  0  0  0
 30 69  1  0  0  0  0
 31 71  1  0  0  0  0
 32 72  1  0  0  0  0
 32 73  1  0  0  0  0
 32 74  1  0  0  0  0
 33 75  1  0  0  0  0
 33 76  1  0  0  0  0
 33 77  1  0  0  0  0
 34 37  1  0  0  0  0
 34 39  2  0  0  0  0
 35 37  1  0  0  0  0
 35 78  1  0  0  0  0
 36 79  1  0  0  0  0
 36 80  1  0  0  0  0
 36 81  1  0  0  0  0
 37 40  2  0  0  0  0
 38 43  1  0  0  0  0
 39 41  1  0  0  0  0
 39 82  1  0  0  0  0
 40 42  1  0  0  0  0
 40 83  1  0  0  0  0
 41 42  2  0  0  0  0
 41 84  1  0  0  0  0
 42 85  1  0  0  0  0
 43 44  1  0  0  0  0
 44 86  1  0  0  0  0
 45 46  2  0  0  0  0
 45 87  1  0  0  0  0
 46 88  1  0  0  0  0
M  END
> <PUBCHEM_COMPOUND_CID>
511139
> <PUBCHEM_COMPOUND_CANONICALIZED>
1
> <PUBCHEM_CACTVS_COMPLEXITY>
1070
> <PUBCHEM_CACTVS_HBOND_ACCEPTOR>
8
> <PUBCHEM_CACTVS_HBOND_DONOR>
3
> <PUBCHEM_CACTVS_ROTATABLE_BOND>
13
> <PUBCHEM_CACTVS_SUBSKEYS>
AAADcfB/uAAAAAAAAAAAAAAAAAAAAWAAAAA8YIAAAAAAAADB1AAAHgAQAAAADTzhngY+htPIFACoAz131ACCiCQ3MiAI2IG+fMgOZnrE8TqXOKim1hHYqMe6wbAOoAABAAAQAABAAAIAACAAAAAAAAAAAA==
> <PUBCHEM_IUPAC_OPENEYE_NAME>
N-[(1R)-1-[[(1R)-1-[(2S,4R)-2-[[(1S)-1-formylpropyl]carbamoyl]-4-(2-naphthyloxy)pyrrolidine-1-carbonyl]-2-methyl-propyl]carbamoyl]-2-methyl-propyl]pyrazine-2-carboxamide
> <PUBCHEM_IUPAC_CAS_NAME>
N-[(2R)-3-methyl-1-[[(2R)-3-methyl-1-[(2S,4R)-4-(2-naphthalenyloxy)-2-[oxo-[[(2S)-1-oxobutan-2-yl]amino]methyl]-1-pyrrolidinyl]-1-oxobutan-2-yl]amino]-1-oxobutan-2-yl]-2-pyrazinecarboxamide
> <PUBCHEM_IUPAC_NAME_MARKUP>
<I>N</I>-[(2<I>R</I>)-3-methyl-1-[[(2<I>R</I>)-3-methyl-1-[(2<I>S</I>,4<I>R</I>)-4-naphthalen-2-yloxy-2-[[(2<I>S</I>)-1-oxobutan-2-yl]carbamoyl]pyrrolidin-1-yl]-1-oxobutan-2-yl]amino]-1-oxobutan-2-yl]pyrazine-2-carboxamide
> <PUBCHEM_IUPAC_NAME>
N-[(2R)-3-methyl-1-[[(2R)-3-methyl-1-[(2S,4R)-4-naphthalen-2-yloxy-2-[[(2S)-1-oxobutan-2-yl]carbamoyl]pyrrolidin-1-yl]-1-oxobutan-2-yl]amino]-1-oxobutan-2-yl]pyrazine-2-carboxamide
> <PUBCHEM_IUPAC_SYSTEMATIC_NAME>
N-[(2R)-3-methyl-1-[[(2R)-3-methyl-1-[(2S,4R)-4-naphthalen-2-yloxy-2-[[(2S)-1-oxidanylidenebutan-2-yl]carbamoyl]pyrrolidin-1-yl]-1-oxidanylidene-butan-2-yl]amino]-1-oxidanylidene-butan-2-yl]pyrazine-2-carboxamide
> <PUBCHEM_IUPAC_TRADITIONAL_NAME>
N-[(1R)-1-[[(1R)-1-[(2S,4R)-2-[[(1S)-1-formylpropyl]carbamoyl]-4-(2-naphthoxy)pyrrolidine-1-carbonyl]-2-methyl-propyl]carbamoyl]-2-methyl-propyl]pyrazinamide
> <PUBCHEM_IUPAC_INCHI>
InChI=1S/C34H42N6O6/c1-6-24(19-41)37-32(43)28-16-26(46-25-12-11-22-9-7-8-10-23(22)15-25)18-40(28)34(45)30(21(4)5)39-33(44)29(20(2)3)38-31(42)27-17-35-13-14-36-27/h7-15,17,19-21,24,26,28-30H,6,16,18H2,1-5H3,(H,37,43)(H,38,42)(H,39,44)/t24-,26+,28-,29+,30+/m0/s1
> <PUBCHEM_IUPAC_INCHIKEY>
QGLNDRVAKGTPJX-JKDYAUQYSA-N
> <PUBCHEM_XLOGP3_AA>
4
> <PUBCHEM_EXACT_MASS>
630.31658308
> <PUBCHEM_MOLECULAR_FORMULA>
C34H42N6O6
> <PUBCHEM_MOLECULAR_WEIGHT>
630.7
> <PUBCHEM_OPENEYE_CAN_SMILES>
CCC(C=O)NC(=O)C1CC(CN1C(=O)C(C(C)C)NC(=O)C(C(C)C)NC(=O)C2=NC=CN=C2)OC3=CC4=CC=CC=C4C=C3
> <PUBCHEM_OPENEYE_ISO_SMILES>
CC[C@@H](C=O)NC(=O)[C@@H]1C[C@H](CN1C(=O)[C@@H](C(C)C)NC(=O)[C@@H](C(C)C)NC(=O)C2=NC=CN=C2)OC3=CC4=CC=CC=C4C=C3
> <PUBCHEM_CACTVS_TPSA>
160
> <PUBCHEM_MONOISOTOPIC_WEIGHT>
630.31658308
> <PUBCHEM_TOTAL_CHARGE>
0
> <PUBCHEM_HEAVY_ATOM_COUNT>
46
> <PUBCHEM_ATOM_DEF_STEREO_COUNT>
5
> <PUBCHEM_ATOM_UDEF_STEREO_COUNT>
0
> <PUBCHEM_BOND_DEF_STEREO_COUNT>
0
> <PUBCHEM_BOND_UDEF_STEREO_COUNT>
0
> <PUBCHEM_ISOTOPIC_ATOM_COUNT>
0
> <PUBCHEM_COMPONENT_COUNT>
1
> <PUBCHEM_CACTVS_TAUTO_COUNT>
-1
> <PUBCHEM_COORDINATE_TYPE>
1
5
255
> <PUBCHEM_BONDANNOTATIONS>
14  1  5
26  10  6
11  43  8
11  45  8
12  44  8
12  46  8
13  19  6
23  29  8
23  30  8
29  34  8
30  35  8
34  37  8
34  39  8
35  37  8
37  40  8
39  41  8
40  42  8
41  42  8
43  44  8
45  46  8
18  8  5
24  9  5
$$$$
