511101
  -OEChem-10302200282D
 69 74  0     1  0  0  0  0  0999 V2000
    4.3465    6.6558    0.0000 Cl  0  0  0  0  0  0  0  0  0  0  0  0
    2.6504   -4.0187    0.0000 O   0  0  0  0  0  0  0  0  0  0  0  0
    4.5983   -6.5220    0.0000 O   0  0  0  0  0  0  0  0  0  0  0  0
    5.7783   -1.5192    0.0000 O   0  0  0  0  0  0  0  0  0  0  0  0
    6.3345   -0.2758    0.0000 O   0  0  0  0  0  0  0  0  0  0  0  0
    6.1355   -3.2140    0.0000 N   0  0  0  0  0  0  0  0  0  0  0  0
    4.2382   -4.8278    0.0000 N   0  0  0  0  0  0  0  0  0  0  0  0
    7.8330   -1.1444    0.0000 N   0  0  0  0  0  0  0  0  0  0  0  0
    7.8360    0.5876    0.0000 N   0  0  0  0  0  0  0  0  0  0  0  0
    5.1893   -3.5187    0.0000 C   0  0  1  0  0  0  0  0  0  0  0  0
    5.1893   -4.5187    0.0000 C   0  0  2  0  0  0  0  0  0  0  0  0
    4.2382   -3.2097    0.0000 C   0  0  1  0  0  0  0  0  0  0  0  0
    6.1355   -4.8235    0.0000 C   0  0  0  0  0  0  0  0  0  0  0  0
    6.7191   -4.0187    0.0000 C   0  0  0  0  0  0  0  0  0  0  0  0
    2.9511   -5.9867    0.0000 C   0  0  0  0  0  0  0  0  0  0  0  0
    3.6504   -4.0187    0.0000 C   0  0  0  0  0  0  0  0  0  0  0  0
    3.9292   -5.7788    0.0000 C   0  0  0  0  0  0  0  0  0  0  0  0
    2.0000   -5.6777    0.0000 C   0  0  0  0  0  0  0  0  0  0  0  0
    2.2079   -6.6558    0.0000 C   0  0  0  0  0  0  0  0  0  0  0  0
    6.4462   -2.2635    0.0000 C   0  0  0  0  0  0  0  0  0  0  0  0
    3.9292   -2.2587    0.0000 C   0  0  0  0  0  0  0  0  0  0  0  0
    7.4247   -2.0573    0.0000 C   0  0  2  0  0  0  0  0  0  0  0  0
    8.1666   -2.7277    0.0000 C   0  0  0  0  0  0  0  0  0  0  0  0
    9.0335   -2.2292    0.0000 C   0  0  0  0  0  0  0  0  0  0  0  0
    8.8273   -1.2507    0.0000 C   0  0  0  0  0  0  0  0  0  0  0  0
    7.3345   -0.2775    0.0000 C   0  0  0  0  0  0  0  0  0  0  0  0
    7.3375    1.4545    0.0000 C   0  0  0  0  0  0  0  0  0  0  0  0
    7.8390    2.3197    0.0000 C   0  0  0  0  0  0  0  0  0  0  0  0
    6.3375    1.4562    0.0000 C   0  0  0  0  0  0  0  0  0  0  0  0
    7.3405    3.1866    0.0000 C   0  0  0  0  0  0  0  0  0  0  0  0
    5.8390    2.3231    0.0000 C   0  0  0  0  0  0  0  0  0  0  0  0
    6.3405    3.1883    0.0000 C   0  0  0  0  0  0  0  0  0  0  0  0
    5.8420    4.0552    0.0000 C   0  0  0  0  0  0  0  0  0  0  0  0
    4.8420    4.0569    0.0000 C   0  0  0  0  0  0  0  0  0  0  0  0
    6.3435    4.9203    0.0000 C   0  0  0  0  0  0  0  0  0  0  0  0
    4.3435    4.9238    0.0000 C   0  0  0  0  0  0  0  0  0  0  0  0
    5.8450    5.7872    0.0000 C   0  0  0  0  0  0  0  0  0  0  0  0
    4.8450    5.7890    0.0000 C   0  0  0  0  0  0  0  0  0  0  0  0
    5.1904   -2.6687    0.0000 H   0  0  0  0  0  0  0  0  0  0  0  0
    5.1904   -5.3687    0.0000 H   0  0  0  0  0  0  0  0  0  0  0  0
    3.6258   -3.1127    0.0000 H   0  0  0  0  0  0  0  0  0  0  0  0
    5.8845   -5.3904    0.0000 H   0  0  0  0  0  0  0  0  0  0  0  0
    6.6729   -5.1327    0.0000 H   0  0  0  0  0  0  0  0  0  0  0  0
    7.1800   -4.4335    0.0000 H   0  0  0  0  0  0  0  0  0  0  0  0
    7.1800   -3.6040    0.0000 H   0  0  0  0  0  0  0  0  0  0  0  0
    3.2325   -6.5391    0.0000 H   0  0  0  0  0  0  0  0  0  0  0  0
    2.0863   -5.0637    0.0000 H   0  0  0  0  0  0  0  0  0  0  0  0
    1.3804   -5.6993    0.0000 H   0  0  0  0  0  0  0  0  0  0  0  0
    1.6331   -6.8881    0.0000 H   0  0  0  0  0  0  0  0  0  0  0  0
    2.5365   -7.1816    0.0000 H   0  0  0  0  0  0  0  0  0  0  0  0
    4.5189   -2.0671    0.0000 H   0  0  0  0  0  0  0  0  0  0  0  0
    3.7376   -1.6690    0.0000 H   0  0  0  0  0  0  0  0  0  0  0  0
    3.3396   -2.4502    0.0000 H   0  0  0  0  0  0  0  0  0  0  0  0
    7.0353   -1.5748    0.0000 H   0  0  0  0  0  0  0  0  0  0  0  0
    7.7052   -3.1417    0.0000 H   0  0  0  0  0  0  0  0  0  0  0  0
    8.5302   -3.2299    0.0000 H   0  0  0  0  0  0  0  0  0  0  0  0
    9.2847   -2.7960    0.0000 H   0  0  0  0  0  0  0  0  0  0  0  0
    9.6235   -2.0386    0.0000 H   0  0  0  0  0  0  0  0  0  0  0  0
    9.4440   -1.1869    0.0000 H   0  0  0  0  0  0  0  0  0  0  0  0
    8.8284   -0.6307    0.0000 H   0  0  0  0  0  0  0  0  0  0  0  0
    8.4560    0.5866    0.0000 H   0  0  0  0  0  0  0  0  0  0  0  0
    8.4590    2.3186    0.0000 H   0  0  0  0  0  0  0  0  0  0  0  0
    6.0266    0.9198    0.0000 H   0  0  0  0  0  0  0  0  0  0  0  0
    7.6514    3.7230    0.0000 H   0  0  0  0  0  0  0  0  0  0  0  0
    5.2190    2.3242    0.0000 H   0  0  0  0  0  0  0  0  0  0  0  0
    4.5310    3.5205    0.0000 H   0  0  0  0  0  0  0  0  0  0  0  0
    6.9635    4.9193    0.0000 H   0  0  0  0  0  0  0  0  0  0  0  0
    3.7235    4.9249    0.0000 H   0  0  0  0  0  0  0  0  0  0  0  0
    6.1559    6.3236    0.0000 H   0  0  0  0  0  0  0  0  0  0  0  0
  1 38  1  0  0  0  0
  2 16  2  0  0  0  0
  3 17  2  0  0  0  0
  4 20  2  0  0  0  0
  5 26  2  0  0  0  0
  6 10  1  0  0  0  0
  6 14  1  0  0  0  0
  6 20  1  0  0  0  0
  7 11  1  0  0  0  0
  7 16  1  0  0  0  0
  7 17  1  0  0  0  0
  8 22  1  0  0  0  0
  8 25  1  0  0  0  0
  8 26  1  0  0  0  0
  9 26  1  0  0  0  0
  9 27  1  0  0  0  0
  9 61  1  0  0  0  0
 10 11  1  0  0  0  0
 10 12  1  0  0  0  0
 10 39  1  6  0  0  0
 11 13  1  0  0  0  0
 11 40  1  1  0  0  0
 12 16  1  0  0  0  0
 12 21  1  1  0  0  0
 12 41  1  0  0  0  0
 13 14  1  0  0  0  0
 13 42  1  0  0  0  0
 13 43  1  0  0  0  0
 14 44  1  0  0  0  0
 14 45  1  0  0  0  0
 15 17  1  0  0  0  0
 15 18  1  0  0  0  0
 15 19  1  0  0  0  0
 15 46  1  0  0  0  0
 18 19  1  0  0  0  0
 18 47  1  0  0  0  0
 18 48  1  0  0  0  0
 19 49  1  0  0  0  0
 19 50  1  0  0  0  0
 22 20  1  1  0  0  0
 21 51  1  0  0  0  0
 21 52  1  0  0  0  0
 21 53  1  0  0  0  0
 22 23  1  0  0  0  0
 22 54  1  0  0  0  0
 23 24  1  0  0  0  0
 23 55  1  0  0  0  0
 23 56  1  0  0  0  0
 24 25  1  0  0  0  0
 24 57  1  0  0  0  0
 24 58  1  0  0  0  0
 25 59  1  0  0  0  0
 25 60  1  0  0  0  0
 27 28  2  0  0  0  0
 27 29  1  0  0  0  0
 28 30  1  0  0  0  0
 28 62  1  0  0  0  0
 29 31  2  0  0  0  0
 29 63  1  0  0  0  0
 30 32  2  0  0  0  0
 30 64  1  0  0  0  0
 31 32  1  0  0  0  0
 31 65  1  0  0  0  0
 32 33  1  0  0  0  0
 33 34  2  0  0  0  0
 33 35  1  0  0  0  0
 34 36  1  0  0  0  0
 34 66  1  0  0  0  0
 35 37  2  0  0  0  0
 35 67  1  0  0  0  0
 36 38  2  0  0  0  0
 36 68  1  0  0  0  0
 37 38  1  0  0  0  0
 37 69  1  0  0  0  0
M  END
> <PUBCHEM_COMPOUND_CID>
511101
> <PUBCHEM_COMPOUND_CANONICALIZED>
1
> <PUBCHEM_CACTVS_COMPLEXITY>
956
> <PUBCHEM_CACTVS_HBOND_ACCEPTOR>
4
> <PUBCHEM_CACTVS_HBOND_DONOR>
1
> <PUBCHEM_CACTVS_ROTATABLE_BOND>
4
> <PUBCHEM_CACTVS_SUBSKEYS>
AAADceB7uAAEAAAAAAAAAAAAGAAAAWLFgAAwYAAAAAAWAAABQAAAHgIQAAAADSrBmCQzwIPAAACIAiVSUACCAAAhBwAIiAGIZoiIYDrB07GUIAholiLIyCccicAOjAAAAAAAAAAYAAAAAAAAAAAAAAAAAA==
> <PUBCHEM_IUPAC_OPENEYE_NAME>
(2S)-2-[(3aS,6S,6aR)-4-(cyclopropanecarbonyl)-6-methyl-5-oxo-3,3a,6,6a-tetrahydro-2H-pyrrolo[3,2-b]pyrrole-1-carbonyl]-N-[4-(4-chlorophenyl)phenyl]pyrrolidine-1-carboxamide
> <PUBCHEM_IUPAC_CAS_NAME>
(2S)-2-[[(3aS,6S,6aR)-4-[cyclopropyl(oxo)methyl]-6-methyl-5-oxo-3,3a,6,6a-tetrahydro-2H-pyrrolo[3,2-b]pyrrol-1-yl]-oxomethyl]-N-[4-(4-chlorophenyl)phenyl]-1-pyrrolidinecarboxamide
> <PUBCHEM_IUPAC_NAME_MARKUP>
(2<I>S</I>)-2-[(3<I>a</I><I>S</I>,6<I>S</I>,6<I>a</I><I>R</I>)-4-(cyclopropanecarbonyl)-6-methyl-5-oxo-3,3<I>a</I>,6,6<I>a</I>-tetrahydro-2<I>H</I>-pyrrolo[3,2-b]pyrrole-1-carbonyl]-<I>N</I>-[4-(4-chlorophenyl)phenyl]pyrrolidine-1-carboxamide
> <PUBCHEM_IUPAC_NAME>
(2S)-2-[(3aS,6S,6aR)-4-(cyclopropanecarbonyl)-6-methyl-5-oxo-3,3a,6,6a-tetrahydro-2H-pyrrolo[3,2-b]pyrrole-1-carbonyl]-N-[4-(4-chlorophenyl)phenyl]pyrrolidine-1-carboxamide
> <PUBCHEM_IUPAC_SYSTEMATIC_NAME>
(2S)-2-[[(3aS,6S,6aR)-4-cyclopropylcarbonyl-6-methyl-5-oxidanylidene-3,3a,6,6a-tetrahydro-2H-pyrrolo[3,2-b]pyrrol-1-yl]carbonyl]-N-[4-(4-chlorophenyl)phenyl]pyrrolidine-1-carboxamide
> <PUBCHEM_IUPAC_TRADITIONAL_NAME>
(2S)-2-[(3aS,6S,6aR)-4-(cyclopropanecarbonyl)-5-keto-6-methyl-3,3a,6,6a-tetrahydro-2H-pyrrolo[3,2-b]pyrrole-1-carbonyl]-N-[4-(4-chlorophenyl)phenyl]pyrrolidine-1-carboxamide
> <PUBCHEM_IUPAC_INCHI>
InChI=1S/C29H31ClN4O4/c1-17-25-23(34(26(17)35)27(36)20-4-5-20)14-16-33(25)28(37)24-3-2-15-32(24)29(38)31-22-12-8-19(9-13-22)18-6-10-21(30)11-7-18/h6-13,17,20,23-25H,2-5,14-16H2,1H3,(H,31,38)/t17-,23-,24-,25+/m0/s1
> <PUBCHEM_IUPAC_INCHIKEY>
FDZJCEDCYMJMPU-YZEFDVQJSA-N
> <PUBCHEM_XLOGP3_AA>
3.7
> <PUBCHEM_EXACT_MASS>
534.2033832
> <PUBCHEM_MOLECULAR_FORMULA>
C29H31ClN4O4
> <PUBCHEM_MOLECULAR_WEIGHT>
535.0
> <PUBCHEM_OPENEYE_CAN_SMILES>
CC1C2C(CCN2C(=O)C3CCCN3C(=O)NC4=CC=C(C=C4)C5=CC=C(C=C5)Cl)N(C1=O)C(=O)C6CC6
> <PUBCHEM_OPENEYE_ISO_SMILES>
C[C@H]1[C@@H]2[C@H](CCN2C(=O)[C@@H]3CCCN3C(=O)NC4=CC=C(C=C4)C5=CC=C(C=C5)Cl)N(C1=O)C(=O)C6CC6
> <PUBCHEM_CACTVS_TPSA>
90
> <PUBCHEM_MONOISOTOPIC_WEIGHT>
534.2033832
> <PUBCHEM_TOTAL_CHARGE>
0
> <PUBCHEM_HEAVY_ATOM_COUNT>
38
> <PUBCHEM_ATOM_DEF_STEREO_COUNT>
4
> <PUBCHEM_ATOM_UDEF_STEREO_COUNT>
0
> <PUBCHEM_BOND_DEF_STEREO_COUNT>
0
> <PUBCHEM_BOND_UDEF_STEREO_COUNT>
0
> <PUBCHEM_ISOTOPIC_ATOM_COUNT>
0
> <PUBCHEM_COMPONENT_COUNT>
1
> <PUBCHEM_CACTVS_TAUTO_COUNT>
-1
> <PUBCHEM_COORDINATE_TYPE>
1
5
255
> <PUBCHEM_BONDANNOTATIONS>
10  39  6
11  40  5
12  21  5
22  20  5
27  28  8
27  29  8
28  30  8
29  31  8
30  32  8
31  32  8
33  34  8
33  35  8
34  36  8
35  37  8
36  38  8
37  38  8
$$$$
