511152
  -OEChem-10302200282D
 85 87  0     1  0  0  0  0  0999 V2000
    2.0000   -3.7632    0.0000 F   0  0  0  0  0  0  0  0  0  0  0  0
    2.7702   -4.9492    0.0000 F   0  0  0  0  0  0  0  0  0  0  0  0
    3.9563   -4.1790    0.0000 F   0  0  0  0  0  0  0  0  0  0  0  0
    4.9281    2.1041    0.0000 O   0  0  0  0  0  0  0  0  0  0  0  0
    7.2836   -1.5119    0.0000 O   0  0  0  0  0  0  0  0  0  0  0  0
    6.0392   -2.0659    0.0000 O   0  0  0  0  0  0  0  0  0  0  0  0
    9.8816    0.9881    0.0000 O   0  0  0  0  0  0  0  0  0  0  0  0
    4.6724   -4.3312    0.0000 O   0  0  0  0  0  0  0  0  0  0  0  0
   12.4797   -1.5119    0.0000 O   0  0  0  0  0  0  0  0  0  0  0  0
    6.4175   -0.0119    0.0000 N   0  0  0  0  0  0  0  0  0  0  0  0
    9.0156   -0.5119    0.0000 N   0  0  0  0  0  0  0  0  0  0  0  0
    4.3450   -1.7058    0.0000 N   0  0  0  0  0  0  0  0  0  0  0  0
   11.6137   -0.0119    0.0000 N   0  0  0  0  0  0  0  0  0  0  0  0
   14.2118   -0.5119    0.0000 N   0  0  0  0  0  0  0  0  0  0  0  0
   14.2118    1.4881    0.0000 N   0  0  0  0  0  0  0  0  0  0  0  0
    5.5040   -0.4186    0.0000 C   0  0  1  0  0  0  0  0  0  0  0  0
    5.3349    1.1905    0.0000 C   0  0  2  0  0  0  0  0  0  0  0  0
    4.8349    0.3245    0.0000 C   0  0  0  0  0  0  0  0  0  0  0  0
    6.3130    0.9826    0.0000 C   0  0  0  0  0  0  0  0  0  0  0  0
    7.2836   -0.5119    0.0000 C   0  0  0  0  0  0  0  0  0  0  0  0
    8.1496   -0.0119    0.0000 C   0  0  2  0  0  0  0  0  0  0  0  0
    5.2961   -1.3968    0.0000 C   0  0  0  0  0  0  0  0  0  0  0  0
    8.1496    0.9881    0.0000 C   0  0  0  0  0  0  0  0  0  0  0  0
    3.9336    2.2086    0.0000 C   0  0  0  0  0  0  0  0  0  0  0  0
    9.0156    1.4881    0.0000 C   0  0  0  0  0  0  0  0  0  0  0  0
    7.2836    1.4881    0.0000 C   0  0  0  0  0  0  0  0  0  0  0  0
    4.1371   -2.6839    0.0000 C   0  0  3  0  0  0  0  0  0  0  0  0
    9.8816   -0.0119    0.0000 C   0  0  0  0  0  0  0  0  0  0  0  0
   10.7477   -0.5119    0.0000 C   0  0  2  0  0  0  0  0  0  0  0  0
   10.7477   -1.5119    0.0000 C   0  0  0  0  0  0  0  0  0  0  0  0
    3.5269    3.1222    0.0000 C   0  0  0  0  0  0  0  0  0  0  0  0
    3.1861   -2.9930    0.0000 C   0  0  0  0  0  0  0  0  0  0  0  0
    4.8803   -3.3531    0.0000 C   0  0  0  0  0  0  0  0  0  0  0  0
    9.8816   -2.0119    0.0000 C   0  0  0  0  0  0  0  0  0  0  0  0
   11.6137   -2.0119    0.0000 C   0  0  0  0  0  0  0  0  0  0  0  0
    2.9782   -3.9711    0.0000 C   0  0  0  0  0  0  0  0  0  0  0  0
    4.1147    3.9312    0.0000 C   0  0  0  0  0  0  0  0  0  0  0  0
    2.5324    3.2267    0.0000 C   0  0  0  0  0  0  0  0  0  0  0  0
   12.4797   -0.5119    0.0000 C   0  0  0  0  0  0  0  0  0  0  0  0
    3.7079    4.8447    0.0000 C   0  0  0  0  0  0  0  0  0  0  0  0
    2.1256    4.1402    0.0000 C   0  0  0  0  0  0  0  0  0  0  0  0
    2.7134    4.9492    0.0000 C   0  0  0  0  0  0  0  0  0  0  0  0
   13.3457   -0.0119    0.0000 C   0  0  0  0  0  0  0  0  0  0  0  0
   13.3457    0.9881    0.0000 C   0  0  0  0  0  0  0  0  0  0  0  0
   15.0778   -0.0119    0.0000 C   0  0  0  0  0  0  0  0  0  0  0  0
   15.0778    0.9881    0.0000 C   0  0  0  0  0  0  0  0  0  0  0  0
    5.9858   -0.8088    0.0000 H   0  0  0  0  0  0  0  0  0  0  0  0
    5.7250    1.6724    0.0000 H   0  0  0  0  0  0  0  0  0  0  0  0
    4.3333    0.6889    0.0000 H   0  0  0  0  0  0  0  0  0  0  0  0
    4.4200   -0.1362    0.0000 H   0  0  0  0  0  0  0  0  0  0  0  0
    6.9330    0.9826    0.0000 H   0  0  0  0  0  0  0  0  0  0  0  0
    6.3778    1.5992    0.0000 H   0  0  0  0  0  0  0  0  0  0  0  0
    8.1496   -0.6319    0.0000 H   0  0  0  0  0  0  0  0  0  0  0  0
    8.6865    0.6781    0.0000 H   0  0  0  0  0  0  0  0  0  0  0  0
    9.0156   -1.1319    0.0000 H   0  0  0  0  0  0  0  0  0  0  0  0
    3.8843   -1.2909    0.0000 H   0  0  0  0  0  0  0  0  0  0  0  0
    3.3320    2.0586    0.0000 H   0  0  0  0  0  0  0  0  0  0  0  0
    3.9769    1.5901    0.0000 H   0  0  0  0  0  0  0  0  0  0  0  0
    9.3256    0.9512    0.0000 H   0  0  0  0  0  0  0  0  0  0  0  0
    9.5526    1.7981    0.0000 H   0  0  0  0  0  0  0  0  0  0  0  0
    8.7056    2.0250    0.0000 H   0  0  0  0  0  0  0  0  0  0  0  0
    7.5936    2.0250    0.0000 H   0  0  0  0  0  0  0  0  0  0  0  0
    6.7466    1.7981    0.0000 H   0  0  0  0  0  0  0  0  0  0  0  0
    6.9736    0.9512    0.0000 H   0  0  0  0  0  0  0  0  0  0  0  0
    4.7268   -2.4924    0.0000 H   0  0  0  0  0  0  0  0  0  0  0  0
   10.7477    0.1081    0.0000 H   0  0  0  0  0  0  0  0  0  0  0  0
   11.2846   -1.2019    0.0000 H   0  0  0  0  0  0  0  0  0  0  0  0
    3.0998   -2.3790    0.0000 H   0  0  0  0  0  0  0  0  0  0  0  0
    2.5664   -2.9713    0.0000 H   0  0  0  0  0  0  0  0  0  0  0  0
   11.6137    0.6081    0.0000 H   0  0  0  0  0  0  0  0  0  0  0  0
    5.4699   -3.1615    0.0000 H   0  0  0  0  0  0  0  0  0  0  0  0
    9.5716   -1.4750    0.0000 H   0  0  0  0  0  0  0  0  0  0  0  0
    9.3447   -2.3219    0.0000 H   0  0  0  0  0  0  0  0  0  0  0  0
   10.1916   -2.5488    0.0000 H   0  0  0  0  0  0  0  0  0  0  0  0
   11.3037   -2.5488    0.0000 H   0  0  0  0  0  0  0  0  0  0  0  0
   12.1506   -2.3219    0.0000 H   0  0  0  0  0  0  0  0  0  0  0  0
   11.9237   -1.4750    0.0000 H   0  0  0  0  0  0  0  0  0  0  0  0
    4.7313    3.8664    0.0000 H   0  0  0  0  0  0  0  0  0  0  0  0
    2.1679    2.7251    0.0000 H   0  0  0  0  0  0  0  0  0  0  0  0
    4.0724    5.3463    0.0000 H   0  0  0  0  0  0  0  0  0  0  0  0
    1.5090    4.2050    0.0000 H   0  0  0  0  0  0  0  0  0  0  0  0
    2.4612    5.5156    0.0000 H   0  0  0  0  0  0  0  0  0  0  0  0
   12.8088    1.2981    0.0000 H   0  0  0  0  0  0  0  0  0  0  0  0
   15.6147   -0.3219    0.0000 H   0  0  0  0  0  0  0  0  0  0  0  0
   15.6147    1.2981    0.0000 H   0  0  0  0  0  0  0  0  0  0  0  0
  1 36  1  0  0  0  0
  2 36  1  0  0  0  0
  3 36  1  0  0  0  0
 17  4  1  1  0  0  0
  4 24  1  0  0  0  0
  5 20  2  0  0  0  0
  6 22  2  0  0  0  0
  7 28  2  0  0  0  0
  8 33  2  0  0  0  0
  9 39  2  0  0  0  0
 10 16  1  0  0  0  0
 10 19  1  0  0  0  0
 10 20  1  0  0  0  0
 21 11  1  6  0  0  0
 11 28  1  0  0  0  0
 11 55  1  0  0  0  0
 12 22  1  0  0  0  0
 12 27  1  0  0  0  0
 12 56  1  0  0  0  0
 29 13  1  1  0  0  0
 13 39  1  0  0  0  0
 13 70  1  0  0  0  0
 14 43  2  0  0  0  0
 14 45  1  0  0  0  0
 15 44  2  0  0  0  0
 15 46  1  0  0  0  0
 16 18  1  0  0  0  0
 16 22  1  6  0  0  0
 16 47  1  0  0  0  0
 17 18  1  0  0  0  0
 17 19  1  0  0  0  0
 17 48  1  0  0  0  0
 18 49  1  0  0  0  0
 18 50  1  0  0  0  0
 19 51  1  0  0  0  0
 19 52  1  0  0  0  0
 20 21  1  0  0  0  0
 21 23  1  0  0  0  0
 21 53  1  0  0  0  0
 23 25  1  0  0  0  0
 23 26  1  0  0  0  0
 23 54  1  0  0  0  0
 24 31  1  0  0  0  0
 24 57  1  0  0  0  0
 24 58  1  0  0  0  0
 25 59  1  0  0  0  0
 25 60  1  0  0  0  0
 25 61  1  0  0  0  0
 26 62  1  0  0  0  0
 26 63  1  0  0  0  0
 26 64  1  0  0  0  0
 27 32  1  0  0  0  0
 27 33  1  0  0  0  0
 27 65  1  0  0  0  0
 28 29  1  0  0  0  0
 29 30  1  0  0  0  0
 29 66  1  0  0  0  0
 30 34  1  0  0  0  0
 30 35  1  0  0  0  0
 30 67  1  0  0  0  0
 31 37  2  0  0  0  0
 31 38  1  0  0  0  0
 32 36  1  0  0  0  0
 32 68  1  0  0  0  0
 32 69  1  0  0  0  0
 33 71  1  0  0  0  0
 34 72  1  0  0  0  0
 34 73  1  0  0  0  0
 34 74  1  0  0  0  0
 35 75  1  0  0  0  0
 35 76  1  0  0  0  0
 35 77  1  0  0  0  0
 37 40  1  0  0  0  0
 37 78  1  0  0  0  0
 38 41  2  0  0  0  0
 38 79  1  0  0  0  0
 39 43  1  0  0  0  0
 40 42  2  0  0  0  0
 40 80  1  0  0  0  0
 41 42  1  0  0  0  0
 41 81  1  0  0  0  0
 42 82  1  0  0  0  0
 43 44  1  0  0  0  0
 44 83  1  0  0  0  0
 45 46  2  0  0  0  0
 45 84  1  0  0  0  0
 46 85  1  0  0  0  0
M  END
> <PUBCHEM_COMPOUND_CID>
511152
> <PUBCHEM_COMPOUND_CANONICALIZED>
1
> <PUBCHEM_CACTVS_COMPLEXITY>
1050
> <PUBCHEM_CACTVS_HBOND_ACCEPTOR>
11
> <PUBCHEM_CACTVS_HBOND_DONOR>
3
> <PUBCHEM_CACTVS_ROTATABLE_BOND>
14
> <PUBCHEM_CACTVS_SUBSKEYS>
AAADcfB7uYAAAAAAAAAAAAAAAAAAAWAAAAA8QAAAAAAAAAABwAAAHwAQAAAADTzhnhY+gJPIFACoAz131ACCgCQ3EiAI2IG4fMgKZnrA8TiXMIgm1gHYqMe6wSAOAAAAAAAAAAAAAAAAAAAAAAAAAAAAAA==
> <PUBCHEM_IUPAC_OPENEYE_NAME>
N-[(1S)-1-[[(1S)-1-[(2S,4R)-4-benzyloxy-2-[(3,3,3-trifluoro-1-formyl-propyl)carbamoyl]pyrrolidine-1-carbonyl]-2-methyl-propyl]carbamoyl]-2-methyl-propyl]pyrazine-2-carboxamide
> <PUBCHEM_IUPAC_CAS_NAME>
N-[(2S)-3-methyl-1-[[(2S)-3-methyl-1-oxo-1-[(2S,4R)-2-[oxo-[(4,4,4-trifluoro-1-oxobutan-2-yl)amino]methyl]-4-phenylmethoxy-1-pyrrolidinyl]butan-2-yl]amino]-1-oxobutan-2-yl]-2-pyrazinecarboxamide
> <PUBCHEM_IUPAC_NAME_MARKUP>
<I>N</I>-[(2<I>S</I>)-3-methyl-1-[[(2<I>S</I>)-3-methyl-1-oxo-1-[(2<I>S</I>,4<I>R</I>)-4-phenylmethoxy-2-[(4,4,4-trifluoro-1-oxobutan-2-yl)carbamoyl]pyrrolidin-1-yl]butan-2-yl]amino]-1-oxobutan-2-yl]pyrazine-2-carboxamide
> <PUBCHEM_IUPAC_NAME>
N-[(2S)-3-methyl-1-[[(2S)-3-methyl-1-oxo-1-[(2S,4R)-4-phenylmethoxy-2-[(4,4,4-trifluoro-1-oxobutan-2-yl)carbamoyl]pyrrolidin-1-yl]butan-2-yl]amino]-1-oxobutan-2-yl]pyrazine-2-carboxamide
> <PUBCHEM_IUPAC_SYSTEMATIC_NAME>
N-[(2S)-3-methyl-1-[[(2S)-3-methyl-1-oxidanylidene-1-[(2S,4R)-4-phenylmethoxy-2-[[4,4,4-tris(fluoranyl)-1-oxidanylidene-butan-2-yl]carbamoyl]pyrrolidin-1-yl]butan-2-yl]amino]-1-oxidanylidene-butan-2-yl]pyrazine-2-carboxamide
> <PUBCHEM_IUPAC_TRADITIONAL_NAME>
N-[(1S)-1-[[(1S)-1-[(2S,4R)-4-benzoxy-2-[(3,3,3-trifluoro-1-formyl-propyl)carbamoyl]pyrrolidine-1-carbonyl]-2-methyl-propyl]carbamoyl]-2-methyl-propyl]pyrazinamide
> <PUBCHEM_IUPAC_INCHI>
InChI=1S/C31H39F3N6O6/c1-18(2)25(38-27(42)23-14-35-10-11-36-23)29(44)39-26(19(3)4)30(45)40-15-22(46-17-20-8-6-5-7-9-20)12-24(40)28(43)37-21(16-41)13-31(32,33)34/h5-11,14,16,18-19,21-22,24-26H,12-13,15,17H2,1-4H3,(H,37,43)(H,38,42)(H,39,44)/t21?,22-,24+,25+,26+/m1/s1
> <PUBCHEM_IUPAC_INCHIKEY>
MPOYXHXLFKBIAI-BTNFFQCKSA-N
> <PUBCHEM_XLOGP3_AA>
3
> <PUBCHEM_EXACT_MASS>
648.28831747
> <PUBCHEM_MOLECULAR_FORMULA>
C31H39F3N6O6
> <PUBCHEM_MOLECULAR_WEIGHT>
648.7
> <PUBCHEM_OPENEYE_CAN_SMILES>
CC(C)C(C(=O)NC(C(C)C)C(=O)N1CC(CC1C(=O)NC(CC(F)(F)F)C=O)OCC2=CC=CC=C2)NC(=O)C3=NC=CN=C3
> <PUBCHEM_OPENEYE_ISO_SMILES>
CC(C)[C@@H](C(=O)N[C@@H](C(C)C)C(=O)N1C[C@@H](C[C@H]1C(=O)NC(CC(F)(F)F)C=O)OCC2=CC=CC=C2)NC(=O)C3=NC=CN=C3
> <PUBCHEM_CACTVS_TPSA>
160
> <PUBCHEM_MONOISOTOPIC_WEIGHT>
648.28831747
> <PUBCHEM_TOTAL_CHARGE>
0
> <PUBCHEM_HEAVY_ATOM_COUNT>
46
> <PUBCHEM_ATOM_DEF_STEREO_COUNT>
4
> <PUBCHEM_ATOM_UDEF_STEREO_COUNT>
1
> <PUBCHEM_BOND_DEF_STEREO_COUNT>
0
> <PUBCHEM_BOND_UDEF_STEREO_COUNT>
0
> <PUBCHEM_ISOTOPIC_ATOM_COUNT>
0
> <PUBCHEM_COMPONENT_COUNT>
1
> <PUBCHEM_CACTVS_TAUTO_COUNT>
-1
> <PUBCHEM_COORDINATE_TYPE>
1
5
255
> <PUBCHEM_BONDANNOTATIONS>
21  11  6
29  13  5
14  43  8
14  45  8
15  44  8
15  46  8
16  22  6
27  32  3
31  37  8
31  38  8
37  40  8
38  41  8
17  4  5
40  42  8
41  42  8
43  44  8
45  46  8
$$$$
