511154
  -OEChem-10302200282D
 85 87  0     1  0  0  0  0  0999 V2000
    4.8025    1.6679    0.0000 O   0  0  0  0  0  0  0  0  0  0  0  0
    7.1580   -1.9480    0.0000 O   0  0  0  0  0  0  0  0  0  0  0  0
    5.9136   -2.5021    0.0000 O   0  0  0  0  0  0  0  0  0  0  0  0
    9.7560    0.5520    0.0000 O   0  0  0  0  0  0  0  0  0  0  0  0
    2.8525   -4.4073    0.0000 O   0  0  0  0  0  0  0  0  0  0  0  0
   12.3541   -1.9480    0.0000 O   0  0  0  0  0  0  0  0  0  0  0  0
    6.2919   -0.4480    0.0000 N   0  0  0  0  0  0  0  0  0  0  0  0
    4.2194   -2.1419    0.0000 N   0  0  0  0  0  0  0  0  0  0  0  0
    8.8900   -0.9480    0.0000 N   0  0  0  0  0  0  0  0  0  0  0  0
   11.4881   -0.4480    0.0000 N   0  0  0  0  0  0  0  0  0  0  0  0
   14.0862   -0.9480    0.0000 N   0  0  0  0  0  0  0  0  0  0  0  0
   14.0862    1.0520    0.0000 N   0  0  0  0  0  0  0  0  0  0  0  0
    5.3784   -0.8548    0.0000 C   0  0  1  0  0  0  0  0  0  0  0  0
    5.2092    0.7544    0.0000 C   0  0  2  0  0  0  0  0  0  0  0  0
    4.7092   -0.1116    0.0000 C   0  0  0  0  0  0  0  0  0  0  0  0
    6.1874    0.5465    0.0000 C   0  0  0  0  0  0  0  0  0  0  0  0
    7.1580   -0.9480    0.0000 C   0  0  0  0  0  0  0  0  0  0  0  0
    8.0240   -0.4480    0.0000 C   0  0  2  0  0  0  0  0  0  0  0  0
    5.1705   -1.8329    0.0000 C   0  0  0  0  0  0  0  0  0  0  0  0
    8.0240    0.5520    0.0000 C   0  0  0  0  0  0  0  0  0  0  0  0
    4.0115   -3.1201    0.0000 C   0  0  0  0  0  0  0  0  0  0  0  0
    3.8080    1.7725    0.0000 C   0  0  0  0  0  0  0  0  0  0  0  0
    8.8900    1.0520    0.0000 C   0  0  0  0  0  0  0  0  0  0  0  0
    7.1580    1.0520    0.0000 C   0  0  0  0  0  0  0  0  0  0  0  0
    9.7560   -0.4480    0.0000 C   0  0  0  0  0  0  0  0  0  0  0  0
   10.6221   -0.9480    0.0000 C   0  0  2  0  0  0  0  0  0  0  0  0
   10.6221   -1.9480    0.0000 C   0  0  0  0  0  0  0  0  0  0  0  0
    3.0334   -2.9122    0.0000 C   0  0  0  0  0  0  0  0  0  0  0  0
    4.9896   -3.3280    0.0000 C   0  0  0  0  0  0  0  0  0  0  0  0
    3.4013    2.6860    0.0000 C   0  0  0  0  0  0  0  0  0  0  0  0
    3.8036   -4.0982    0.0000 C   0  0  0  0  0  0  0  0  0  0  0  0
    9.7560   -2.4480    0.0000 C   0  0  0  0  0  0  0  0  0  0  0  0
   11.4881   -2.4480    0.0000 C   0  0  0  0  0  0  0  0  0  0  0  0
    2.4067    2.7905    0.0000 C   0  0  0  0  0  0  0  0  0  0  0  0
    3.9890    3.4950    0.0000 C   0  0  0  0  0  0  0  0  0  0  0  0
   12.3541   -0.9480    0.0000 C   0  0  0  0  0  0  0  0  0  0  0  0
    2.0000    3.7041    0.0000 C   0  0  0  0  0  0  0  0  0  0  0  0
    3.5823    4.4086    0.0000 C   0  0  0  0  0  0  0  0  0  0  0  0
    2.5878    4.5131    0.0000 C   0  0  0  0  0  0  0  0  0  0  0  0
   13.2201   -0.4480    0.0000 C   0  0  0  0  0  0  0  0  0  0  0  0
   13.2201    0.5520    0.0000 C   0  0  0  0  0  0  0  0  0  0  0  0
   14.9522   -0.4480    0.0000 C   0  0  0  0  0  0  0  0  0  0  0  0
   14.9522    0.5520    0.0000 C   0  0  0  0  0  0  0  0  0  0  0  0
    5.8602   -1.2450    0.0000 H   0  0  0  0  0  0  0  0  0  0  0  0
    5.5994    1.2362    0.0000 H   0  0  0  0  0  0  0  0  0  0  0  0
    4.2077    0.2528    0.0000 H   0  0  0  0  0  0  0  0  0  0  0  0
    4.2944   -0.5724    0.0000 H   0  0  0  0  0  0  0  0  0  0  0  0
    6.8074    0.5465    0.0000 H   0  0  0  0  0  0  0  0  0  0  0  0
    6.2522    1.1631    0.0000 H   0  0  0  0  0  0  0  0  0  0  0  0
    8.0240   -1.0680    0.0000 H   0  0  0  0  0  0  0  0  0  0  0  0
    7.4870    0.2420    0.0000 H   0  0  0  0  0  0  0  0  0  0  0  0
    3.7587   -1.7271    0.0000 H   0  0  0  0  0  0  0  0  0  0  0  0
    8.8900   -1.5680    0.0000 H   0  0  0  0  0  0  0  0  0  0  0  0
    3.2064    1.6225    0.0000 H   0  0  0  0  0  0  0  0  0  0  0  0
    3.8512    1.1540    0.0000 H   0  0  0  0  0  0  0  0  0  0  0  0
    9.2000    0.5150    0.0000 H   0  0  0  0  0  0  0  0  0  0  0  0
    9.4269    1.3620    0.0000 H   0  0  0  0  0  0  0  0  0  0  0  0
    8.5800    1.5889    0.0000 H   0  0  0  0  0  0  0  0  0  0  0  0
    7.4680    1.5889    0.0000 H   0  0  0  0  0  0  0  0  0  0  0  0
    6.6210    1.3620    0.0000 H   0  0  0  0  0  0  0  0  0  0  0  0
    6.8480    0.5150    0.0000 H   0  0  0  0  0  0  0  0  0  0  0  0
   10.6221   -0.3280    0.0000 H   0  0  0  0  0  0  0  0  0  0  0  0
   11.1590   -1.6380    0.0000 H   0  0  0  0  0  0  0  0  0  0  0  0
    3.1623   -2.3057    0.0000 H   0  0  0  0  0  0  0  0  0  0  0  0
    2.4269   -2.7833    0.0000 H   0  0  0  0  0  0  0  0  0  0  0  0
    2.9045   -3.5186    0.0000 H   0  0  0  0  0  0  0  0  0  0  0  0
    4.8608   -3.9345    0.0000 H   0  0  0  0  0  0  0  0  0  0  0  0
    5.5961   -3.4569    0.0000 H   0  0  0  0  0  0  0  0  0  0  0  0
    5.1186   -2.7216    0.0000 H   0  0  0  0  0  0  0  0  0  0  0  0
    4.2643   -4.5131    0.0000 H   0  0  0  0  0  0  0  0  0  0  0  0
   11.4881    0.1720    0.0000 H   0  0  0  0  0  0  0  0  0  0  0  0
    9.4460   -1.9111    0.0000 H   0  0  0  0  0  0  0  0  0  0  0  0
    9.2191   -2.7580    0.0000 H   0  0  0  0  0  0  0  0  0  0  0  0
   10.0660   -2.9850    0.0000 H   0  0  0  0  0  0  0  0  0  0  0  0
   11.1781   -2.9850    0.0000 H   0  0  0  0  0  0  0  0  0  0  0  0
   12.0250   -2.7580    0.0000 H   0  0  0  0  0  0  0  0  0  0  0  0
   11.7981   -1.9111    0.0000 H   0  0  0  0  0  0  0  0  0  0  0  0
    2.0423    2.2890    0.0000 H   0  0  0  0  0  0  0  0  0  0  0  0
    4.6056    3.4302    0.0000 H   0  0  0  0  0  0  0  0  0  0  0  0
    1.3834    3.7689    0.0000 H   0  0  0  0  0  0  0  0  0  0  0  0
    3.9467    4.9102    0.0000 H   0  0  0  0  0  0  0  0  0  0  0  0
    2.3356    5.0795    0.0000 H   0  0  0  0  0  0  0  0  0  0  0  0
   12.6832    0.8620    0.0000 H   0  0  0  0  0  0  0  0  0  0  0  0
   15.4891   -0.7580    0.0000 H   0  0  0  0  0  0  0  0  0  0  0  0
   15.4891    0.8620    0.0000 H   0  0  0  0  0  0  0  0  0  0  0  0
 14  1  1  1  0  0  0
  1 22  1  0  0  0  0
  2 17  2  0  0  0  0
  3 19  2  0  0  0  0
  4 25  2  0  0  0  0
  5 31  2  0  0  0  0
  6 36  2  0  0  0  0
  7 13  1  0  0  0  0
  7 16  1  0  0  0  0
  7 17  1  0  0  0  0
  8 19  1  0  0  0  0
  8 21  1  0  0  0  0
  8 52  1  0  0  0  0
 18  9  1  6  0  0  0
  9 25  1  0  0  0  0
  9 53  1  0  0  0  0
 26 10  1  1  0  0  0
 10 36  1  0  0  0  0
 10 71  1  0  0  0  0
 11 40  2  0  0  0  0
 11 42  1  0  0  0  0
 12 41  2  0  0  0  0
 12 43  1  0  0  0  0
 13 15  1  0  0  0  0
 13 19  1  6  0  0  0
 13 44  1  0  0  0  0
 14 15  1  0  0  0  0
 14 16  1  0  0  0  0
 14 45  1  0  0  0  0
 15 46  1  0  0  0  0
 15 47  1  0  0  0  0
 16 48  1  0  0  0  0
 16 49  1  0  0  0  0
 17 18  1  0  0  0  0
 18 20  1  0  0  0  0
 18 50  1  0  0  0  0
 20 23  1  0  0  0  0
 20 24  1  0  0  0  0
 20 51  1  0  0  0  0
 21 28  1  0  0  0  0
 21 29  1  0  0  0  0
 21 31  1  0  0  0  0
 22 30  1  0  0  0  0
 22 54  1  0  0  0  0
 22 55  1  0  0  0  0
 23 56  1  0  0  0  0
 23 57  1  0  0  0  0
 23 58  1  0  0  0  0
 24 59  1  0  0  0  0
 24 60  1  0  0  0  0
 24 61  1  0  0  0  0
 25 26  1  0  0  0  0
 26 27  1  0  0  0  0
 26 62  1  0  0  0  0
 27 32  1  0  0  0  0
 27 33  1  0  0  0  0
 27 63  1  0  0  0  0
 28 64  1  0  0  0  0
 28 65  1  0  0  0  0
 28 66  1  0  0  0  0
 29 67  1  0  0  0  0
 29 68  1  0  0  0  0
 29 69  1  0  0  0  0
 30 34  2  0  0  0  0
 30 35  1  0  0  0  0
 31 70  1  0  0  0  0
 32 72  1  0  0  0  0
 32 73  1  0  0  0  0
 32 74  1  0  0  0  0
 33 75  1  0  0  0  0
 33 76  1  0  0  0  0
 33 77  1  0  0  0  0
 34 37  1  0  0  0  0
 34 78  1  0  0  0  0
 35 38  2  0  0  0  0
 35 79  1  0  0  0  0
 36 40  1  0  0  0  0
 37 39  2  0  0  0  0
 37 80  1  0  0  0  0
 38 39  1  0  0  0  0
 38 81  1  0  0  0  0
 39 82  1  0  0  0  0
 40 41  1  0  0  0  0
 41 83  1  0  0  0  0
 42 43  2  0  0  0  0
 42 84  1  0  0  0  0
 43 85  1  0  0  0  0
M  END
> <PUBCHEM_COMPOUND_CID>
511154
> <PUBCHEM_COMPOUND_CANONICALIZED>
1
> <PUBCHEM_CACTVS_COMPLEXITY>
982
> <PUBCHEM_CACTVS_HBOND_ACCEPTOR>
8
> <PUBCHEM_CACTVS_HBOND_DONOR>
3
> <PUBCHEM_CACTVS_ROTATABLE_BOND>
13
> <PUBCHEM_CACTVS_SUBSKEYS>
AAADcfB7uAAAAAAAAAAAAAAAAAAAAWAAAAA8QAAAAAAAAAABwAAAHgAQAAAADbzhngY+gJPIFACoAz131ACCgCQ3EiAI2IG4fMgKZnrA8TiXMIgm1gHYqMe6wSAOAAAAAAAAAAAAAAAAAAAAAAAAAAAAAA==
> <PUBCHEM_IUPAC_OPENEYE_NAME>
N-[(1S)-1-[[(1S)-1-[(2S,4R)-4-benzyloxy-2-[(1,1-dimethyl-2-oxo-ethyl)carbamoyl]pyrrolidine-1-carbonyl]-2-methyl-propyl]carbamoyl]-2-methyl-propyl]pyrazine-2-carboxamide
> <PUBCHEM_IUPAC_CAS_NAME>
N-[(2S)-3-methyl-1-[[(2S)-3-methyl-1-[(2S,4R)-2-[[(2-methyl-1-oxopropan-2-yl)amino]-oxomethyl]-4-phenylmethoxy-1-pyrrolidinyl]-1-oxobutan-2-yl]amino]-1-oxobutan-2-yl]-2-pyrazinecarboxamide
> <PUBCHEM_IUPAC_NAME_MARKUP>
<I>N</I>-[(2<I>S</I>)-3-methyl-1-[[(2<I>S</I>)-3-methyl-1-[(2<I>S</I>,4<I>R</I>)-2-[(2-methyl-1-oxopropan-2-yl)carbamoyl]-4-phenylmethoxypyrrolidin-1-yl]-1-oxobutan-2-yl]amino]-1-oxobutan-2-yl]pyrazine-2-carboxamide
> <PUBCHEM_IUPAC_NAME>
N-[(2S)-3-methyl-1-[[(2S)-3-methyl-1-[(2S,4R)-2-[(2-methyl-1-oxopropan-2-yl)carbamoyl]-4-phenylmethoxypyrrolidin-1-yl]-1-oxobutan-2-yl]amino]-1-oxobutan-2-yl]pyrazine-2-carboxamide
> <PUBCHEM_IUPAC_SYSTEMATIC_NAME>
N-[(2S)-3-methyl-1-[[(2S)-3-methyl-1-[(2S,4R)-2-[(2-methyl-1-oxidanylidene-propan-2-yl)carbamoyl]-4-phenylmethoxy-pyrrolidin-1-yl]-1-oxidanylidene-butan-2-yl]amino]-1-oxidanylidene-butan-2-yl]pyrazine-2-carboxamide
> <PUBCHEM_IUPAC_TRADITIONAL_NAME>
N-[(1S)-1-[[(1S)-1-[(2S,4R)-4-benzoxy-2-[(2-keto-1,1-dimethyl-ethyl)carbamoyl]pyrrolidine-1-carbonyl]-2-methyl-propyl]carbamoyl]-2-methyl-propyl]pyrazinamide
> <PUBCHEM_IUPAC_INCHI>
InChI=1S/C31H42N6O6/c1-19(2)25(34-27(39)23-15-32-12-13-33-23)29(41)35-26(20(3)4)30(42)37-16-22(43-17-21-10-8-7-9-11-21)14-24(37)28(40)36-31(5,6)18-38/h7-13,15,18-20,22,24-26H,14,16-17H2,1-6H3,(H,34,39)(H,35,41)(H,36,40)/t22-,24+,25+,26+/m1/s1
> <PUBCHEM_IUPAC_INCHIKEY>
PQAHICKFKCPSGO-DNZIZEQUSA-N
> <PUBCHEM_XLOGP3_AA>
2
> <PUBCHEM_EXACT_MASS>
594.31658308
> <PUBCHEM_MOLECULAR_FORMULA>
C31H42N6O6
> <PUBCHEM_MOLECULAR_WEIGHT>
594.7
> <PUBCHEM_OPENEYE_CAN_SMILES>
CC(C)C(C(=O)NC(C(C)C)C(=O)N1CC(CC1C(=O)NC(C)(C)C=O)OCC2=CC=CC=C2)NC(=O)C3=NC=CN=C3
> <PUBCHEM_OPENEYE_ISO_SMILES>
CC(C)[C@@H](C(=O)N[C@@H](C(C)C)C(=O)N1C[C@@H](C[C@H]1C(=O)NC(C)(C)C=O)OCC2=CC=CC=C2)NC(=O)C3=NC=CN=C3
> <PUBCHEM_CACTVS_TPSA>
160
> <PUBCHEM_MONOISOTOPIC_WEIGHT>
594.31658308
> <PUBCHEM_TOTAL_CHARGE>
0
> <PUBCHEM_HEAVY_ATOM_COUNT>
43
> <PUBCHEM_ATOM_DEF_STEREO_COUNT>
4
> <PUBCHEM_ATOM_UDEF_STEREO_COUNT>
0
> <PUBCHEM_BOND_DEF_STEREO_COUNT>
0
> <PUBCHEM_BOND_UDEF_STEREO_COUNT>
0
> <PUBCHEM_ISOTOPIC_ATOM_COUNT>
0
> <PUBCHEM_COMPONENT_COUNT>
1
> <PUBCHEM_CACTVS_TAUTO_COUNT>
-1
> <PUBCHEM_COORDINATE_TYPE>
1
5
255
> <PUBCHEM_BONDANNOTATIONS>
14  1  5
26  10  5
11  40  8
11  42  8
12  41  8
12  43  8
13  19  6
30  34  8
30  35  8
34  37  8
35  38  8
37  39  8
38  39  8
40  41  8
42  43  8
18  9  6
$$$$
