511137
  -OEChem-10302200282D
 82 84  0     1  0  0  0  0  0999 V2000
    4.9836    2.6564    0.0000 O   0  0  0  0  0  0  0  0  0  0  0  0
    7.3390   -0.9596    0.0000 O   0  0  0  0  0  0  0  0  0  0  0  0
    6.0947   -1.5136    0.0000 O   0  0  0  0  0  0  0  0  0  0  0  0
    9.9371    1.5404    0.0000 O   0  0  0  0  0  0  0  0  0  0  0  0
    3.0336   -3.4188    0.0000 O   0  0  0  0  0  0  0  0  0  0  0  0
   12.5352   -0.9596    0.0000 O   0  0  0  0  0  0  0  0  0  0  0  0
    6.4730    0.5404    0.0000 N   0  0  0  0  0  0  0  0  0  0  0  0
    9.0710    0.0404    0.0000 N   0  0  0  0  0  0  0  0  0  0  0  0
    4.4005   -1.1535    0.0000 N   0  0  0  0  0  0  0  0  0  0  0  0
   11.6691    0.5404    0.0000 N   0  0  0  0  0  0  0  0  0  0  0  0
   14.2672    0.0404    0.0000 N   0  0  0  0  0  0  0  0  0  0  0  0
   14.2672    2.0404    0.0000 N   0  0  0  0  0  0  0  0  0  0  0  0
    5.5594    0.1336    0.0000 C   0  0  1  0  0  0  0  0  0  0  0  0
    4.8903    0.8768    0.0000 C   0  0  0  0  0  0  0  0  0  0  0  0
    5.3903    1.7428    0.0000 C   0  0  2  0  0  0  0  0  0  0  0  0
    6.3684    1.5349    0.0000 C   0  0  0  0  0  0  0  0  0  0  0  0
    7.3390    0.0404    0.0000 C   0  0  0  0  0  0  0  0  0  0  0  0
    8.2050    0.5404    0.0000 C   0  0  1  0  0  0  0  0  0  0  0  0
    5.3515   -0.8445    0.0000 C   0  0  0  0  0  0  0  0  0  0  0  0
    8.2050    1.5404    0.0000 C   0  0  0  0  0  0  0  0  0  0  0  0
    9.0710    2.0404    0.0000 C   0  0  0  0  0  0  0  0  0  0  0  0
    7.3390    2.0404    0.0000 C   0  0  0  0  0  0  0  0  0  0  0  0
    4.1926   -2.1317    0.0000 C   0  0  3  0  0  0  0  0  0  0  0  0
    9.9371    0.5404    0.0000 C   0  0  0  0  0  0  0  0  0  0  0  0
   10.8031    0.0404    0.0000 C   0  0  1  0  0  0  0  0  0  0  0  0
    3.9890    2.7609    0.0000 C   0  0  0  0  0  0  0  0  0  0  0  0
   10.8031   -0.9596    0.0000 C   0  0  0  0  0  0  0  0  0  0  0  0
    4.9357   -2.8008    0.0000 C   0  0  0  0  0  0  0  0  0  0  0  0
    3.4013    1.9519    0.0000 C   0  0  0  0  0  0  0  0  0  0  0  0
    3.5823    3.6744    0.0000 C   0  0  0  0  0  0  0  0  0  0  0  0
    9.9371   -1.4596    0.0000 C   0  0  0  0  0  0  0  0  0  0  0  0
   11.6691   -1.4596    0.0000 C   0  0  0  0  0  0  0  0  0  0  0  0
    3.2415   -2.4407    0.0000 C   0  0  0  0  0  0  0  0  0  0  0  0
    4.7278   -3.7790    0.0000 C   0  0  0  0  0  0  0  0  0  0  0  0
    2.4067    2.0564    0.0000 C   0  0  0  0  0  0  0  0  0  0  0  0
    2.5878    3.7790    0.0000 C   0  0  0  0  0  0  0  0  0  0  0  0
   12.5352    0.0404    0.0000 C   0  0  0  0  0  0  0  0  0  0  0  0
    2.0000    2.9699    0.0000 C   0  0  0  0  0  0  0  0  0  0  0  0
   13.4012    0.5404    0.0000 C   0  0  0  0  0  0  0  0  0  0  0  0
   13.4012    1.5404    0.0000 C   0  0  0  0  0  0  0  0  0  0  0  0
   15.1332    0.5404    0.0000 C   0  0  0  0  0  0  0  0  0  0  0  0
   15.1332    1.5404    0.0000 C   0  0  0  0  0  0  0  0  0  0  0  0
    6.0413   -0.2565    0.0000 H   0  0  0  0  0  0  0  0  0  0  0  0
    4.3887    1.2412    0.0000 H   0  0  0  0  0  0  0  0  0  0  0  0
    4.4754    0.4160    0.0000 H   0  0  0  0  0  0  0  0  0  0  0  0
    4.7711    1.7752    0.0000 H   0  0  0  0  0  0  0  0  0  0  0  0
    6.9884    1.5349    0.0000 H   0  0  0  0  0  0  0  0  0  0  0  0
    6.4333    2.1515    0.0000 H   0  0  0  0  0  0  0  0  0  0  0  0
    8.2050   -0.0796    0.0000 H   0  0  0  0  0  0  0  0  0  0  0  0
    8.7420    1.2304    0.0000 H   0  0  0  0  0  0  0  0  0  0  0  0
    9.0710   -0.5796    0.0000 H   0  0  0  0  0  0  0  0  0  0  0  0
    3.9397   -0.7387    0.0000 H   0  0  0  0  0  0  0  0  0  0  0  0
    9.3810    1.5034    0.0000 H   0  0  0  0  0  0  0  0  0  0  0  0
    9.6080    2.3504    0.0000 H   0  0  0  0  0  0  0  0  0  0  0  0
    8.7610    2.5773    0.0000 H   0  0  0  0  0  0  0  0  0  0  0  0
    7.6490    2.5773    0.0000 H   0  0  0  0  0  0  0  0  0  0  0  0
    6.8021    2.3504    0.0000 H   0  0  0  0  0  0  0  0  0  0  0  0
    7.0290    1.5034    0.0000 H   0  0  0  0  0  0  0  0  0  0  0  0
    4.7822   -1.9401    0.0000 H   0  0  0  0  0  0  0  0  0  0  0  0
   10.8031    0.6604    0.0000 H   0  0  0  0  0  0  0  0  0  0  0  0
   10.2662   -0.6496    0.0000 H   0  0  0  0  0  0  0  0  0  0  0  0
    5.5106   -3.0331    0.0000 H   0  0  0  0  0  0  0  0  0  0  0  0
    5.2642   -2.2750    0.0000 H   0  0  0  0  0  0  0  0  0  0  0  0
   11.6691    1.1604    0.0000 H   0  0  0  0  0  0  0  0  0  0  0  0
    3.6534    1.3855    0.0000 H   0  0  0  0  0  0  0  0  0  0  0  0
    3.9467    4.1760    0.0000 H   0  0  0  0  0  0  0  0  0  0  0  0
    9.6271   -0.9227    0.0000 H   0  0  0  0  0  0  0  0  0  0  0  0
    9.4001   -1.7696    0.0000 H   0  0  0  0  0  0  0  0  0  0  0  0
   10.2471   -1.9966    0.0000 H   0  0  0  0  0  0  0  0  0  0  0  0
   11.3591   -1.9966    0.0000 H   0  0  0  0  0  0  0  0  0  0  0  0
   12.2061   -1.7696    0.0000 H   0  0  0  0  0  0  0  0  0  0  0  0
   11.9791   -0.9227    0.0000 H   0  0  0  0  0  0  0  0  0  0  0  0
    2.7808   -2.0258    0.0000 H   0  0  0  0  0  0  0  0  0  0  0  0
    4.1213   -3.6500    0.0000 H   0  0  0  0  0  0  0  0  0  0  0  0
    4.5989   -4.3854    0.0000 H   0  0  0  0  0  0  0  0  0  0  0  0
    5.3342   -3.9079    0.0000 H   0  0  0  0  0  0  0  0  0  0  0  0
    2.0423    1.5548    0.0000 H   0  0  0  0  0  0  0  0  0  0  0  0
    2.3356    4.3454    0.0000 H   0  0  0  0  0  0  0  0  0  0  0  0
    1.3834    3.0347    0.0000 H   0  0  0  0  0  0  0  0  0  0  0  0
   12.8642    1.8504    0.0000 H   0  0  0  0  0  0  0  0  0  0  0  0
   15.6702    0.2304    0.0000 H   0  0  0  0  0  0  0  0  0  0  0  0
   15.6702    1.8504    0.0000 H   0  0  0  0  0  0  0  0  0  0  0  0
 15  1  1  1  0  0  0
  1 26  1  0  0  0  0
  2 17  2  0  0  0  0
  3 19  2  0  0  0  0
  4 24  2  0  0  0  0
  5 33  2  0  0  0  0
  6 37  2  0  0  0  0
  7 13  1  0  0  0  0
  7 16  1  0  0  0  0
  7 17  1  0  0  0  0
 18  8  1  1  0  0  0
  8 24  1  0  0  0  0
  8 51  1  0  0  0  0
  9 19  1  0  0  0  0
  9 23  1  0  0  0  0
  9 52  1  0  0  0  0
 25 10  1  6  0  0  0
 10 37  1  0  0  0  0
 10 64  1  0  0  0  0
 11 39  2  0  0  0  0
 11 41  1  0  0  0  0
 12 40  2  0  0  0  0
 12 42  1  0  0  0  0
 13 14  1  0  0  0  0
 13 19  1  6  0  0  0
 13 43  1  0  0  0  0
 14 15  1  0  0  0  0
 14 44  1  0  0  0  0
 14 45  1  0  0  0  0
 15 16  1  0  0  0  0
 15 46  1  0  0  0  0
 16 47  1  0  0  0  0
 16 48  1  0  0  0  0
 17 18  1  0  0  0  0
 18 20  1  0  0  0  0
 18 49  1  0  0  0  0
 20 21  1  0  0  0  0
 20 22  1  0  0  0  0
 20 50  1  0  0  0  0
 21 53  1  0  0  0  0
 21 54  1  0  0  0  0
 21 55  1  0  0  0  0
 22 56  1  0  0  0  0
 22 57  1  0  0  0  0
 22 58  1  0  0  0  0
 23 28  1  0  0  0  0
 23 33  1  0  0  0  0
 23 59  1  0  0  0  0
 24 25  1  0  0  0  0
 25 27  1  0  0  0  0
 25 60  1  0  0  0  0
 26 29  2  0  0  0  0
 26 30  1  0  0  0  0
 27 31  1  0  0  0  0
 27 32  1  0  0  0  0
 27 61  1  0  0  0  0
 28 34  1  0  0  0  0
 28 62  1  0  0  0  0
 28 63  1  0  0  0  0
 29 35  1  0  0  0  0
 29 65  1  0  0  0  0
 30 36  2  0  0  0  0
 30 66  1  0  0  0  0
 31 67  1  0  0  0  0
 31 68  1  0  0  0  0
 31 69  1  0  0  0  0
 32 70  1  0  0  0  0
 32 71  1  0  0  0  0
 32 72  1  0  0  0  0
 33 73  1  0  0  0  0
 34 74  1  0  0  0  0
 34 75  1  0  0  0  0
 34 76  1  0  0  0  0
 35 38  2  0  0  0  0
 35 77  1  0  0  0  0
 36 38  1  0  0  0  0
 36 78  1  0  0  0  0
 37 39  1  0  0  0  0
 38 79  1  0  0  0  0
 39 40  1  0  0  0  0
 40 80  1  0  0  0  0
 41 42  2  0  0  0  0
 41 81  1  0  0  0  0
 42 82  1  0  0  0  0
M  END
> <PUBCHEM_COMPOUND_CID>
511137
> <PUBCHEM_COMPOUND_CANONICALIZED>
1
> <PUBCHEM_CACTVS_COMPLEXITY>
939
> <PUBCHEM_CACTVS_HBOND_ACCEPTOR>
8
> <PUBCHEM_CACTVS_HBOND_DONOR>
3
> <PUBCHEM_CACTVS_ROTATABLE_BOND>
13
> <PUBCHEM_CACTVS_SUBSKEYS>
AAADcfB7uAAAAAAAAAAAAAAAAAAAAWAAAAA8QAAAAAAAAAABwAAAHgAQAAAADTzhlgY+hpPIFACoAT131ACCiCQ3MiAI2IG+fMgOZnrE8TqXOKim1hHYqMe6QQAIAAAAAAAAAAAAAAAAAAAAAAAAAAAAAA==
> <PUBCHEM_IUPAC_OPENEYE_NAME>
N-[(1R)-1-[[(1R)-1-[(2S,4R)-2-(1-formylpropylcarbamoyl)-4-phenoxy-pyrrolidine-1-carbonyl]-2-methyl-propyl]carbamoyl]-2-methyl-propyl]pyrazine-2-carboxamide
> <PUBCHEM_IUPAC_CAS_NAME>
N-[(2R)-3-methyl-1-[[(2R)-3-methyl-1-oxo-1-[(2S,4R)-2-[oxo-(1-oxobutan-2-ylamino)methyl]-4-phenoxy-1-pyrrolidinyl]butan-2-yl]amino]-1-oxobutan-2-yl]-2-pyrazinecarboxamide
> <PUBCHEM_IUPAC_NAME_MARKUP>
<I>N</I>-[(2<I>R</I>)-3-methyl-1-[[(2<I>R</I>)-3-methyl-1-oxo-1-[(2<I>S</I>,4<I>R</I>)-2-(1-oxobutan-2-ylcarbamoyl)-4-phenoxypyrrolidin-1-yl]butan-2-yl]amino]-1-oxobutan-2-yl]pyrazine-2-carboxamide
> <PUBCHEM_IUPAC_NAME>
N-[(2R)-3-methyl-1-[[(2R)-3-methyl-1-oxo-1-[(2S,4R)-2-(1-oxobutan-2-ylcarbamoyl)-4-phenoxypyrrolidin-1-yl]butan-2-yl]amino]-1-oxobutan-2-yl]pyrazine-2-carboxamide
> <PUBCHEM_IUPAC_SYSTEMATIC_NAME>
N-[(2R)-3-methyl-1-[[(2R)-3-methyl-1-oxidanylidene-1-[(2S,4R)-2-(1-oxidanylidenebutan-2-ylcarbamoyl)-4-phenoxy-pyrrolidin-1-yl]butan-2-yl]amino]-1-oxidanylidene-butan-2-yl]pyrazine-2-carboxamide
> <PUBCHEM_IUPAC_TRADITIONAL_NAME>
N-[(1R)-1-[[(1R)-1-[(2S,4R)-2-(1-formylpropylcarbamoyl)-4-phenoxy-pyrrolidine-1-carbonyl]-2-methyl-propyl]carbamoyl]-2-methyl-propyl]pyrazinamide
> <PUBCHEM_IUPAC_INCHI>
InChI=1S/C30H40N6O6/c1-6-20(17-37)33-28(39)24-14-22(42-21-10-8-7-9-11-21)16-36(24)30(41)26(19(4)5)35-29(40)25(18(2)3)34-27(38)23-15-31-12-13-32-23/h7-13,15,17-20,22,24-26H,6,14,16H2,1-5H3,(H,33,39)(H,34,38)(H,35,40)/t20?,22-,24+,25-,26-/m1/s1
> <PUBCHEM_IUPAC_INCHIKEY>
NVAZMCXPFVMSAB-JROICFCCSA-N
> <PUBCHEM_XLOGP3_AA>
2.7
> <PUBCHEM_EXACT_MASS>
580.30093302
> <PUBCHEM_MOLECULAR_FORMULA>
C30H40N6O6
> <PUBCHEM_MOLECULAR_WEIGHT>
580.7
> <PUBCHEM_OPENEYE_CAN_SMILES>
CCC(C=O)NC(=O)C1CC(CN1C(=O)C(C(C)C)NC(=O)C(C(C)C)NC(=O)C2=NC=CN=C2)OC3=CC=CC=C3
> <PUBCHEM_OPENEYE_ISO_SMILES>
CCC(C=O)NC(=O)[C@@H]1C[C@H](CN1C(=O)[C@@H](C(C)C)NC(=O)[C@@H](C(C)C)NC(=O)C2=NC=CN=C2)OC3=CC=CC=C3
> <PUBCHEM_CACTVS_TPSA>
160
> <PUBCHEM_MONOISOTOPIC_WEIGHT>
580.30093302
> <PUBCHEM_TOTAL_CHARGE>
0
> <PUBCHEM_HEAVY_ATOM_COUNT>
42
> <PUBCHEM_ATOM_DEF_STEREO_COUNT>
4
> <PUBCHEM_ATOM_UDEF_STEREO_COUNT>
1
> <PUBCHEM_BOND_DEF_STEREO_COUNT>
0
> <PUBCHEM_BOND_UDEF_STEREO_COUNT>
0
> <PUBCHEM_ISOTOPIC_ATOM_COUNT>
0
> <PUBCHEM_COMPONENT_COUNT>
1
> <PUBCHEM_CACTVS_TAUTO_COUNT>
-1
> <PUBCHEM_COORDINATE_TYPE>
1
5
255
> <PUBCHEM_BONDANNOTATIONS>
15  1  5
25  10  6
11  39  8
11  41  8
12  40  8
12  42  8
13  19  6
23  28  3
26  29  8
26  30  8
29  35  8
30  36  8
35  38  8
36  38  8
39  40  8
41  42  8
18  8  5
$$$$
