511140
  -OEChem-10302200282D
 87 90  0     1  0  0  0  0  0999 V2000
    8.4268    3.6403    0.0000 O   0  0  0  0  0  0  0  0  0  0  0  0
    5.0768    0.9198    0.0000 O   0  0  0  0  0  0  0  0  0  0  0  0
    4.3958    2.0994    0.0000 O   0  0  0  0  0  0  0  0  0  0  0  0
    7.8347   -1.4027    0.0000 O   0  0  0  0  0  0  0  0  0  0  0  0
    2.1810    4.9446    0.0000 O   0  0  0  0  0  0  0  0  0  0  0  0
    5.6200   -4.2479    0.0000 O   0  0  0  0  0  0  0  0  0  0  0  0
    6.4781    1.9379    0.0000 N   0  0  0  0  0  0  0  0  0  0  0  0
    6.2524   -0.6982    0.0000 N   0  0  0  0  0  0  0  0  0  0  0  0
    4.5768    3.8220    0.0000 N   0  0  0  0  0  0  0  0  0  0  0  0
    7.0212   -3.2298    0.0000 N   0  0  0  0  0  0  0  0  0  0  0  0
   10.1868    4.6056    0.0000 N   0  0  0  0  0  0  0  0  0  0  0  0
    8.1968   -4.8479    0.0000 N   0  0  0  0  0  0  0  0  0  0  0  0
    7.3833   -6.6750    0.0000 N   0  0  0  0  0  0  0  0  0  0  0  0
    5.9781    2.8039    0.0000 C   0  0  1  0  0  0  0  0  0  0  0  0
    7.5608    3.1403    0.0000 C   0  0  2  0  0  0  0  0  0  0  0  0
    6.6472    3.5470    0.0000 C   0  0  0  0  0  0  0  0  0  0  0  0
    7.4562    2.1458    0.0000 C   0  0  0  0  0  0  0  0  0  0  0  0
    6.0714    1.0243    0.0000 C   0  0  0  0  0  0  0  0  0  0  0  0
    6.6591    0.2153    0.0000 C   0  0  1  0  0  0  0  0  0  0  0  0
    4.9836    2.9084    0.0000 C   0  0  0  0  0  0  0  0  0  0  0  0
    7.6537    0.3198    0.0000 C   0  0  0  0  0  0  0  0  0  0  0  0
    8.2414   -0.4892    0.0000 C   0  0  0  0  0  0  0  0  0  0  0  0
    8.0604    1.2334    0.0000 C   0  0  0  0  0  0  0  0  0  0  0  0
    8.4268    4.6403    0.0000 C   0  0  0  0  0  0  0  0  0  0  0  0
    3.5823    3.9265    0.0000 C   0  0  3  0  0  0  0  0  0  0  0  0
    6.8402   -1.5073    0.0000 C   0  0  0  0  0  0  0  0  0  0  0  0
    6.4334   -2.4208    0.0000 C   0  0  1  0  0  0  0  0  0  0  0  0
    5.4389   -2.5253    0.0000 C   0  0  0  0  0  0  0  0  0  0  0  0
    2.9945    3.1175    0.0000 C   0  0  0  0  0  0  0  0  0  0  0  0
    9.2928    5.1403    0.0000 C   0  0  0  0  0  0  0  0  0  0  0  0
    7.5608    5.1403    0.0000 C   0  0  0  0  0  0  0  0  0  0  0  0
    3.1756    4.8400    0.0000 C   0  0  0  0  0  0  0  0  0  0  0  0
    5.0322   -3.4389    0.0000 C   0  0  0  0  0  0  0  0  0  0  0  0
    4.8511   -1.7163    0.0000 C   0  0  0  0  0  0  0  0  0  0  0  0
    9.2928    6.1403    0.0000 C   0  0  0  0  0  0  0  0  0  0  0  0
    2.0000    3.2220    0.0000 C   0  0  0  0  0  0  0  0  0  0  0  0
    7.5608    6.1403    0.0000 C   0  0  0  0  0  0  0  0  0  0  0  0
    8.4268    6.6403    0.0000 C   0  0  0  0  0  0  0  0  0  0  0  0
    6.6145   -4.1434    0.0000 C   0  0  0  0  0  0  0  0  0  0  0  0
   10.1868    6.6750    0.0000 C   0  0  0  0  0  0  0  0  0  0  0  0
   11.0928    5.1195    0.0000 C   0  0  0  0  0  0  0  0  0  0  0  0
   11.0928    6.1611    0.0000 C   0  0  0  0  0  0  0  0  0  0  0  0
    7.2023   -4.9524    0.0000 C   0  0  0  0  0  0  0  0  0  0  0  0
    6.7956   -5.8659    0.0000 C   0  0  0  0  0  0  0  0  0  0  0  0
    8.7846   -5.6569    0.0000 C   0  0  0  0  0  0  0  0  0  0  0  0
    8.3778   -6.5704    0.0000 C   0  0  0  0  0  0  0  0  0  0  0  0
    5.6404    2.2839    0.0000 H   0  0  0  0  0  0  0  0  0  0  0  0
    8.0807    2.8026    0.0000 H   0  0  0  0  0  0  0  0  0  0  0  0
    6.9572    4.0840    0.0000 H   0  0  0  0  0  0  0  0  0  0  0  0
    6.1456    3.9115    0.0000 H   0  0  0  0  0  0  0  0  0  0  0  0
    7.5210    1.5292    0.0000 H   0  0  0  0  0  0  0  0  0  0  0  0
    8.0762    2.1458    0.0000 H   0  0  0  0  0  0  0  0  0  0  0  0
    6.0425    0.1505    0.0000 H   0  0  0  0  0  0  0  0  0  0  0  0
    7.4015   -0.2466    0.0000 H   0  0  0  0  0  0  0  0  0  0  0  0
    5.6358   -0.7631    0.0000 H   0  0  0  0  0  0  0  0  0  0  0  0
    4.9413    4.3236    0.0000 H   0  0  0  0  0  0  0  0  0  0  0  0
    7.7398   -0.8536    0.0000 H   0  0  0  0  0  0  0  0  0  0  0  0
    8.6059   -0.9908    0.0000 H   0  0  0  0  0  0  0  0  0  0  0  0
    8.7430   -0.1248    0.0000 H   0  0  0  0  0  0  0  0  0  0  0  0
    8.6268    0.9812    0.0000 H   0  0  0  0  0  0  0  0  0  0  0  0
    8.3126    1.7998    0.0000 H   0  0  0  0  0  0  0  0  0  0  0  0
    7.4940    1.4856    0.0000 H   0  0  0  0  0  0  0  0  0  0  0  0
    3.8345    3.3601    0.0000 H   0  0  0  0  0  0  0  0  0  0  0  0
    7.0500   -2.3560    0.0000 H   0  0  0  0  0  0  0  0  0  0  0  0
    4.8223   -2.5902    0.0000 H   0  0  0  0  0  0  0  0  0  0  0  0
    2.8236    2.5215    0.0000 H   0  0  0  0  0  0  0  0  0  0  0  0
    3.5518    2.8457    0.0000 H   0  0  0  0  0  0  0  0  0  0  0  0
    7.0238    4.8303    0.0000 H   0  0  0  0  0  0  0  0  0  0  0  0
    7.6378   -3.1650    0.0000 H   0  0  0  0  0  0  0  0  0  0  0  0
    3.5400    5.3416    0.0000 H   0  0  0  0  0  0  0  0  0  0  0  0
    4.4658   -3.1867    0.0000 H   0  0  0  0  0  0  0  0  0  0  0  0
    4.7800   -4.0053    0.0000 H   0  0  0  0  0  0  0  0  0  0  0  0
    5.5986   -3.6911    0.0000 H   0  0  0  0  0  0  0  0  0  0  0  0
    5.3527   -1.3519    0.0000 H   0  0  0  0  0  0  0  0  0  0  0  0
    4.4867   -1.2147    0.0000 H   0  0  0  0  0  0  0  0  0  0  0  0
    4.3496   -2.0808    0.0000 H   0  0  0  0  0  0  0  0  0  0  0  0
    2.0648    3.8386    0.0000 H   0  0  0  0  0  0  0  0  0  0  0  0
    1.3834    3.2868    0.0000 H   0  0  0  0  0  0  0  0  0  0  0  0
    1.9352    2.6054    0.0000 H   0  0  0  0  0  0  0  0  0  0  0  0
    7.0238    6.4503    0.0000 H   0  0  0  0  0  0  0  0  0  0  0  0
    8.4268    7.2603    0.0000 H   0  0  0  0  0  0  0  0  0  0  0  0
   10.1796    7.2949    0.0000 H   0  0  0  0  0  0  0  0  0  0  0  0
   11.6286    4.8074    0.0000 H   0  0  0  0  0  0  0  0  0  0  0  0
   11.6286    6.4732    0.0000 H   0  0  0  0  0  0  0  0  0  0  0  0
    6.1789   -5.9307    0.0000 H   0  0  0  0  0  0  0  0  0  0  0  0
    9.4012   -5.5921    0.0000 H   0  0  0  0  0  0  0  0  0  0  0  0
    8.7423   -7.0720    0.0000 H   0  0  0  0  0  0  0  0  0  0  0  0
 15  1  1  1  0  0  0
  1 24  1  0  0  0  0
  2 18  2  0  0  0  0
  3 20  2  0  0  0  0
  4 26  2  0  0  0  0
  5 32  2  0  0  0  0
  6 39  2  0  0  0  0
  7 14  1  0  0  0  0
  7 17  1  0  0  0  0
  7 18  1  0  0  0  0
 19  8  1  1  0  0  0
  8 26  1  0  0  0  0
  8 55  1  0  0  0  0
  9 20  1  0  0  0  0
  9 25  1  0  0  0  0
  9 56  1  0  0  0  0
 27 10  1  6  0  0  0
 10 39  1  0  0  0  0
 10 69  1  0  0  0  0
 11 30  1  0  0  0  0
 11 41  2  0  0  0  0
 12 43  2  0  0  0  0
 12 45  1  0  0  0  0
 13 44  2  0  0  0  0
 13 46  1  0  0  0  0
 14 16  1  0  0  0  0
 14 20  1  6  0  0  0
 14 47  1  0  0  0  0
 15 16  1  0  0  0  0
 15 17  1  0  0  0  0
 15 48  1  0  0  0  0
 16 49  1  0  0  0  0
 16 50  1  0  0  0  0
 17 51  1  0  0  0  0
 17 52  1  0  0  0  0
 18 19  1  0  0  0  0
 19 21  1  0  0  0  0
 19 53  1  0  0  0  0
 21 22  1  0  0  0  0
 21 23  1  0  0  0  0
 21 54  1  0  0  0  0
 22 57  1  0  0  0  0
 22 58  1  0  0  0  0
 22 59  1  0  0  0  0
 23 60  1  0  0  0  0
 23 61  1  0  0  0  0
 23 62  1  0  0  0  0
 24 30  1  0  0  0  0
 24 31  2  0  0  0  0
 25 29  1  0  0  0  0
 25 32  1  0  0  0  0
 25 63  1  0  0  0  0
 26 27  1  0  0  0  0
 27 28  1  0  0  0  0
 27 64  1  0  0  0  0
 28 33  1  0  0  0  0
 28 34  1  0  0  0  0
 28 65  1  0  0  0  0
 29 36  1  0  0  0  0
 29 66  1  0  0  0  0
 29 67  1  0  0  0  0
 30 35  2  0  0  0  0
 31 37  1  0  0  0  0
 31 68  1  0  0  0  0
 32 70  1  0  0  0  0
 33 71  1  0  0  0  0
 33 72  1  0  0  0  0
 33 73  1  0  0  0  0
 34 74  1  0  0  0  0
 34 75  1  0  0  0  0
 34 76  1  0  0  0  0
 35 38  1  0  0  0  0
 35 40  1  0  0  0  0
 36 77  1  0  0  0  0
 36 78  1  0  0  0  0
 36 79  1  0  0  0  0
 37 38  2  0  0  0  0
 37 80  1  0  0  0  0
 38 81  1  0  0  0  0
 39 43  1  0  0  0  0
 40 42  2  0  0  0  0
 40 82  1  0  0  0  0
 41 42  1  0  0  0  0
 41 83  1  0  0  0  0
 42 84  1  0  0  0  0
 43 44  1  0  0  0  0
 44 85  1  0  0  0  0
 45 46  2  0  0  0  0
 45 86  1  0  0  0  0
 46 87  1  0  0  0  0
M  END
> <PUBCHEM_COMPOUND_CID>
511140
> <PUBCHEM_COMPOUND_CANONICALIZED>
1
> <PUBCHEM_CACTVS_COMPLEXITY>
1070
> <PUBCHEM_CACTVS_HBOND_ACCEPTOR>
9
> <PUBCHEM_CACTVS_HBOND_DONOR>
3
> <PUBCHEM_CACTVS_ROTATABLE_BOND>
13
> <PUBCHEM_CACTVS_SUBSKEYS>
AAADcfB/uAAAAAAAAAAAAAAAAAAAAWAAAAA8WIAAAAAAAACx/AAAHgAQAAAADTzhngY+xvPIFACoAz131ASCiCQ3ciAI2KG/fNgOZvrE8buXOKjm1hHY6Me6wbAOAAABAAACEAAAAAIAAAQgAAAAAAAAAA==
> <PUBCHEM_IUPAC_OPENEYE_NAME>
N-[(1R)-1-[[(1R)-1-[(2S,4R)-2-(1-formylpropylcarbamoyl)-4-(8-quinolyloxy)pyrrolidine-1-carbonyl]-2-methyl-propyl]carbamoyl]-2-methyl-propyl]pyrazine-2-carboxamide
> <PUBCHEM_IUPAC_CAS_NAME>
N-[(2R)-3-methyl-1-[[(2R)-3-methyl-1-oxo-1-[(2S,4R)-2-[oxo-(1-oxobutan-2-ylamino)methyl]-4-(8-quinolinyloxy)-1-pyrrolidinyl]butan-2-yl]amino]-1-oxobutan-2-yl]-2-pyrazinecarboxamide
> <PUBCHEM_IUPAC_NAME_MARKUP>
<I>N</I>-[(2<I>R</I>)-3-methyl-1-[[(2<I>R</I>)-3-methyl-1-oxo-1-[(2<I>S</I>,4<I>R</I>)-2-(1-oxobutan-2-ylcarbamoyl)-4-quinolin-8-yloxypyrrolidin-1-yl]butan-2-yl]amino]-1-oxobutan-2-yl]pyrazine-2-carboxamide
> <PUBCHEM_IUPAC_NAME>
N-[(2R)-3-methyl-1-[[(2R)-3-methyl-1-oxo-1-[(2S,4R)-2-(1-oxobutan-2-ylcarbamoyl)-4-quinolin-8-yloxypyrrolidin-1-yl]butan-2-yl]amino]-1-oxobutan-2-yl]pyrazine-2-carboxamide
> <PUBCHEM_IUPAC_SYSTEMATIC_NAME>
N-[(2R)-3-methyl-1-[[(2R)-3-methyl-1-oxidanylidene-1-[(2S,4R)-2-(1-oxidanylidenebutan-2-ylcarbamoyl)-4-quinolin-8-yloxy-pyrrolidin-1-yl]butan-2-yl]amino]-1-oxidanylidene-butan-2-yl]pyrazine-2-carboxamide
> <PUBCHEM_IUPAC_TRADITIONAL_NAME>
N-[(1R)-1-[[(1R)-1-[(2S,4R)-2-(1-formylpropylcarbamoyl)-4-(8-quinolyloxy)pyrrolidine-1-carbonyl]-2-methyl-propyl]carbamoyl]-2-methyl-propyl]pyrazinamide
> <PUBCHEM_IUPAC_INCHI>
InChI=1S/C33H41N7O6/c1-6-22(18-41)37-31(43)25-15-23(46-26-11-7-9-21-10-8-12-36-29(21)26)17-40(25)33(45)28(20(4)5)39-32(44)27(19(2)3)38-30(42)24-16-34-13-14-35-24/h7-14,16,18-20,22-23,25,27-28H,6,15,17H2,1-5H3,(H,37,43)(H,38,42)(H,39,44)/t22?,23-,25+,27-,28-/m1/s1
> <PUBCHEM_IUPAC_INCHIKEY>
DLXFAPVMXCYOAD-ITPAYOHASA-N
> <PUBCHEM_XLOGP3_AA>
3
> <PUBCHEM_EXACT_MASS>
631.31183205
> <PUBCHEM_MOLECULAR_FORMULA>
C33H41N7O6
> <PUBCHEM_MOLECULAR_WEIGHT>
631.7
> <PUBCHEM_OPENEYE_CAN_SMILES>
CCC(C=O)NC(=O)C1CC(CN1C(=O)C(C(C)C)NC(=O)C(C(C)C)NC(=O)C2=NC=CN=C2)OC3=CC=CC4=C3N=CC=C4
> <PUBCHEM_OPENEYE_ISO_SMILES>
CCC(C=O)NC(=O)[C@@H]1C[C@H](CN1C(=O)[C@@H](C(C)C)NC(=O)[C@@H](C(C)C)NC(=O)C2=NC=CN=C2)OC3=CC=CC4=C3N=CC=C4
> <PUBCHEM_CACTVS_TPSA>
173
> <PUBCHEM_MONOISOTOPIC_WEIGHT>
631.31183205
> <PUBCHEM_TOTAL_CHARGE>
0
> <PUBCHEM_HEAVY_ATOM_COUNT>
46
> <PUBCHEM_ATOM_DEF_STEREO_COUNT>
4
> <PUBCHEM_ATOM_UDEF_STEREO_COUNT>
1
> <PUBCHEM_BOND_DEF_STEREO_COUNT>
0
> <PUBCHEM_BOND_UDEF_STEREO_COUNT>
0
> <PUBCHEM_ISOTOPIC_ATOM_COUNT>
0
> <PUBCHEM_COMPONENT_COUNT>
1
> <PUBCHEM_CACTVS_TAUTO_COUNT>
-1
> <PUBCHEM_COORDINATE_TYPE>
1
5
255
> <PUBCHEM_BONDANNOTATIONS>
15  1  5
27  10  6
11  30  8
11  41  8
12  43  8
12  45  8
13  44  8
13  46  8
14  20  6
24  30  8
24  31  8
25  29  3
30  35  8
31  37  8
35  38  8
35  40  8
37  38  8
40  42  8
41  42  8
43  44  8
45  46  8
19  8  5
$$$$
