511196
  -OEChem-10302200282D
 49 50  0     1  0  0  0  0  0999 V2000
    5.0009   -2.3126    0.0000 P   0  0  3  0  0  0  0  0  0  0  0  0
    4.5411    1.1700    0.0000 O   0  0  0  0  0  0  0  0  0  0  0  0
    4.4131   -1.5036    0.0000 O   0  0  0  0  0  0  0  0  0  0  0  0
    4.1919   -2.9004    0.0000 O   0  0  0  0  0  0  0  0  0  0  0  0
    5.8099   -1.7249    0.0000 O   0  0  0  0  0  0  0  0  0  0  0  0
    5.4641    2.7578    0.0000 O   0  0  0  0  0  0  0  0  0  0  0  0
    3.7320    5.7578    0.0000 O   0  0  0  0  0  0  0  0  0  0  0  0
    3.7320    2.7578    0.0000 N   0  0  0  0  0  0  0  0  0  0  0  0
    5.5887   -3.1217    0.0000 N   0  0  0  0  0  0  0  0  0  0  0  0
    4.5981    4.2578    0.0000 N   0  0  0  0  0  0  0  0  0  0  0  0
    4.2320    0.2189    0.0000 C   0  0  2  0  0  0  0  0  0  0  0  0
    3.7320    1.7578    0.0000 C   0  0  1  0  0  0  0  0  0  0  0  0
    4.8198   -0.5901    0.0000 C   0  0  0  0  0  0  0  0  0  0  0  0
    3.2320    0.2189    0.0000 C   0  0  0  0  0  0  0  0  0  0  0  0
    2.9230    1.1700    0.0000 C   0  0  0  0  0  0  0  0  0  0  0  0
    2.8660    3.2578    0.0000 C   0  0  0  0  0  0  0  0  0  0  0  0
    4.5981    3.2578    0.0000 C   0  0  0  0  0  0  0  0  0  0  0  0
    2.8660    4.2578    0.0000 C   0  0  0  0  0  0  0  0  0  0  0  0
    5.1819   -4.0352    0.0000 C   0  0  0  0  0  0  0  0  0  0  0  0
    5.7697   -4.8442    0.0000 C   0  0  0  0  0  0  0  0  0  0  0  0
    3.7320    4.7578    0.0000 C   0  0  0  0  0  0  0  0  0  0  0  0
    2.0000    4.7578    0.0000 C   0  0  0  0  0  0  0  0  0  0  0  0
    3.2783   -2.4937    0.0000 C   0  0  0  0  0  0  0  0  0  0  0  0
    5.3630   -5.7578    0.0000 C   0  0  0  0  0  0  0  0  0  0  0  0
    2.4693   -3.0815    0.0000 C   0  0  0  0  0  0  0  0  0  0  0  0
    4.8444    0.3159    0.0000 H   0  0  0  0  0  0  0  0  0  0  0  0
    4.2845    2.0392    0.0000 H   0  0  0  0  0  0  0  0  0  0  0  0
    5.3338   -0.9368    0.0000 H   0  0  0  0  0  0  0  0  0  0  0  0
    5.2505   -0.1441    0.0000 H   0  0  0  0  0  0  0  0  0  0  0  0
    2.8676   -0.2827    0.0000 H   0  0  0  0  0  0  0  0  0  0  0  0
    2.3334    1.3616    0.0000 H   0  0  0  0  0  0  0  0  0  0  0  0
    2.3291    2.9478    0.0000 H   0  0  0  0  0  0  0  0  0  0  0  0
    6.2053   -3.0569    0.0000 H   0  0  0  0  0  0  0  0  0  0  0  0
    4.6679   -3.6885    0.0000 H   0  0  0  0  0  0  0  0  0  0  0  0
    4.7512   -4.4812    0.0000 H   0  0  0  0  0  0  0  0  0  0  0  0
    5.1350    4.5678    0.0000 H   0  0  0  0  0  0  0  0  0  0  0  0
    6.2837   -5.1909    0.0000 H   0  0  0  0  0  0  0  0  0  0  0  0
    6.2004   -4.3982    0.0000 H   0  0  0  0  0  0  0  0  0  0  0  0
    2.3100    5.2947    0.0000 H   0  0  0  0  0  0  0  0  0  0  0  0
    1.4631    5.0678    0.0000 H   0  0  0  0  0  0  0  0  0  0  0  0
    1.6900    4.2208    0.0000 H   0  0  0  0  0  0  0  0  0  0  0  0
    3.6250   -1.9797    0.0000 H   0  0  0  0  0  0  0  0  0  0  0  0
    2.8323   -2.0630    0.0000 H   0  0  0  0  0  0  0  0  0  0  0  0
    4.7966   -5.5056    0.0000 H   0  0  0  0  0  0  0  0  0  0  0  0
    5.1108   -6.3242    0.0000 H   0  0  0  0  0  0  0  0  0  0  0  0
    5.9294   -6.0100    0.0000 H   0  0  0  0  0  0  0  0  0  0  0  0
    2.1049   -2.5799    0.0000 H   0  0  0  0  0  0  0  0  0  0  0  0
    1.9677   -3.4459    0.0000 H   0  0  0  0  0  0  0  0  0  0  0  0
    2.8337   -3.5831    0.0000 H   0  0  0  0  0  0  0  0  0  0  0  0
  1  3  1  0  0  0  0
  1  4  1  0  0  0  0
  1  5  2  0  0  0  0
  1  9  1  0  0  0  0
  2 11  1  0  0  0  0
  2 12  1  0  0  0  0
  3 13  1  0  0  0  0
  4 23  1  0  0  0  0
  6 17  2  0  0  0  0
  7 21  2  0  0  0  0
 12  8  1  6  0  0  0
  8 16  1  0  0  0  0
  8 17  1  0  0  0  0
  9 19  1  0  0  0  0
  9 33  1  0  0  0  0
 10 17  1  0  0  0  0
 10 21  1  0  0  0  0
 10 36  1  0  0  0  0
 11 13  1  6  0  0  0
 11 14  1  0  0  0  0
 11 26  1  0  0  0  0
 12 15  1  0  0  0  0
 12 27  1  0  0  0  0
 13 28  1  0  0  0  0
 13 29  1  0  0  0  0
 14 15  2  0  0  0  0
 14 30  1  0  0  0  0
 15 31  1  0  0  0  0
 16 18  2  0  0  0  0
 16 32  1  0  0  0  0
 18 21  1  0  0  0  0
 18 22  1  0  0  0  0
 19 20  1  0  0  0  0
 19 34  1  0  0  0  0
 19 35  1  0  0  0  0
 20 24  1  0  0  0  0
 20 37  1  0  0  0  0
 20 38  1  0  0  0  0
 22 39  1  0  0  0  0
 22 40  1  0  0  0  0
 22 41  1  0  0  0  0
 23 25  1  0  0  0  0
 23 42  1  0  0  0  0
 23 43  1  0  0  0  0
 24 44  1  0  0  0  0
 24 45  1  0  0  0  0
 24 46  1  0  0  0  0
 25 47  1  0  0  0  0
 25 48  1  0  0  0  0
 25 49  1  0  0  0  0
M  END
> <PUBCHEM_COMPOUND_CID>
511196
> <PUBCHEM_COMPOUND_CANONICALIZED>
1
> <PUBCHEM_CACTVS_COMPLEXITY>
620
> <PUBCHEM_CACTVS_HBOND_ACCEPTOR>
7
> <PUBCHEM_CACTVS_HBOND_DONOR>
2
> <PUBCHEM_CACTVS_ROTATABLE_BOND>
9
> <PUBCHEM_CACTVS_SUBSKEYS>
AAADceBzOAIAAAAAAAAAAAAAAAAAAQAAAAAgAAAAAAAAAAAAAAAAHgAQgCAADBThgAYDAAPABRCIQiFWUICAAAAgAAAICIEIAEiBBAAAIQAOEAAIVyIKIMIAAAAAAAAAAAAAAAAAAAAAAAAAAAAAAAAAAA==
> <PUBCHEM_IUPAC_OPENEYE_NAME>
1-[(2R,5S)-5-[[ethoxy(propylamino)phosphoryl]oxymethyl]-2,5-dihydrofuran-2-yl]-5-methyl-pyrimidine-2,4-dione
> <PUBCHEM_IUPAC_CAS_NAME>
1-[(2R,5S)-5-[[ethoxy(propylamino)phosphoryl]oxymethyl]-2,5-dihydrofuran-2-yl]-5-methylpyrimidine-2,4-dione
> <PUBCHEM_IUPAC_NAME_MARKUP>
1-[(2<I>R</I>,5<I>S</I>)-5-[[ethoxy(propylamino)phosphoryl]oxymethyl]-2,5-dihydrofuran-2-yl]-5-methylpyrimidine-2,4-dione
> <PUBCHEM_IUPAC_NAME>
1-[(2R,5S)-5-[[ethoxy(propylamino)phosphoryl]oxymethyl]-2,5-dihydrofuran-2-yl]-5-methylpyrimidine-2,4-dione
> <PUBCHEM_IUPAC_SYSTEMATIC_NAME>
1-[(2R,5S)-5-[[ethoxy(propylamino)phosphoryl]oxymethyl]-2,5-dihydrofuran-2-yl]-5-methyl-pyrimidine-2,4-dione
> <PUBCHEM_IUPAC_TRADITIONAL_NAME>
1-[(2R,5S)-5-[[ethoxy(propylamino)phosphoryl]oxymethyl]-2,5-dihydrofuran-2-yl]-5-methyl-pyrimidine-2,4-quinone
> <PUBCHEM_IUPAC_INCHI>
InChI=1S/C15H24N3O6P/c1-4-8-16-25(21,22-5-2)23-10-12-6-7-13(24-12)18-9-11(3)14(19)17-15(18)20/h6-7,9,12-13H,4-5,8,10H2,1-3H3,(H,16,21)(H,17,19,20)/t12-,13+,25?/m0/s1
> <PUBCHEM_IUPAC_INCHIKEY>
WTOAKUPHIUCXMG-HKFILKPHSA-N
> <PUBCHEM_XLOGP3>
0.1
> <PUBCHEM_EXACT_MASS>
373.14027249
> <PUBCHEM_MOLECULAR_FORMULA>
C15H24N3O6P
> <PUBCHEM_MOLECULAR_WEIGHT>
373.34
> <PUBCHEM_OPENEYE_CAN_SMILES>
CCCNP(=O)(OCC)OCC1C=CC(O1)N2C=C(C(=O)NC2=O)C
> <PUBCHEM_OPENEYE_ISO_SMILES>
CCCNP(=O)(OCC)OC[C@@H]1C=C[C@@H](O1)N2C=C(C(=O)NC2=O)C
> <PUBCHEM_CACTVS_TPSA>
106
> <PUBCHEM_MONOISOTOPIC_WEIGHT>
373.14027249
> <PUBCHEM_TOTAL_CHARGE>
0
> <PUBCHEM_HEAVY_ATOM_COUNT>
25
> <PUBCHEM_ATOM_DEF_STEREO_COUNT>
2
> <PUBCHEM_ATOM_UDEF_STEREO_COUNT>
1
> <PUBCHEM_BOND_DEF_STEREO_COUNT>
0
> <PUBCHEM_BOND_UDEF_STEREO_COUNT>
0
> <PUBCHEM_ISOTOPIC_ATOM_COUNT>
0
> <PUBCHEM_COMPONENT_COUNT>
1
> <PUBCHEM_CACTVS_TAUTO_COUNT>
-1
> <PUBCHEM_COORDINATE_TYPE>
1
5
255
> <PUBCHEM_BONDANNOTATIONS>
1  9  3
10  17  8
10  21  8
11  13  6
16  18  8
18  21  8
12  8  6
8  16  8
8  17  8
$$$$
