511121
  -OEChem-10302200282D
 73 78  0     1  0  0  0  0  0999 V2000
    6.4103    2.9530    0.0000 S   0  0  0  0  0  0  0  0  0  0  0  0
    8.2727    3.9084    0.0000 O   0  0  0  0  0  0  0  0  0  0  0  0
   11.6165    1.7060    0.0000 O   0  0  0  0  0  0  0  0  0  0  0  0
   12.9709    1.5612    0.0000 O   0  0  0  0  0  0  0  0  0  0  0  0
    2.0000    2.6483    0.0000 O   0  5  0  0  0  0  0  0  0  0  0  0
    2.8660    4.1483    0.0000 O   0  0  0  0  0  0  0  0  0  0  0  0
   10.1150    0.8425    0.0000 N   0  0  0  0  0  0  0  0  0  0  0  0
    7.9939    2.1483    0.0000 N   0  0  0  0  0  0  0  0  0  0  0  0
   12.6078   -0.1323    0.0000 N   0  0  0  0  0  0  0  0  0  0  0  0
    6.4103    1.3436    0.0000 N   0  0  0  0  0  0  0  0  0  0  0  0
   14.2560    0.4001    0.0000 N   0  0  0  0  0  0  0  0  0  0  0  0
    2.8660    3.1483    0.0000 N   0  3  0  0  0  0  0  0  0  0  0  0
    9.5328    1.6483    0.0000 C   0  0  1  0  0  0  0  0  0  0  0  0
    8.5817    1.3393    0.0000 C   0  0  2  0  0  0  0  0  0  0  0  0
    9.5328    2.6483    0.0000 C   0  0  1  0  0  0  0  0  0  0  0  0
    8.5843    0.3452    0.0000 C   0  0  0  0  0  0  0  0  0  0  0  0
    9.5300    0.0388    0.0000 C   0  0  0  0  0  0  0  0  0  0  0  0
    8.5817    2.9573    0.0000 C   0  0  0  0  0  0  0  0  0  0  0  0
   11.1150    0.8408    0.0000 C   0  0  0  0  0  0  0  0  0  0  0  0
   11.6135   -0.0261    0.0000 C   0  0  2  0  0  0  0  0  0  0  0  0
   10.3418    3.2361    0.0000 C   0  0  0  0  0  0  0  0  0  0  0  0
   11.2052   -0.9389    0.0000 C   0  0  0  0  0  0  0  0  0  0  0  0
    6.9939    2.1483    0.0000 C   0  0  0  0  0  0  0  0  0  0  0  0
   11.9472   -1.6093    0.0000 C   0  0  0  0  0  0  0  0  0  0  0  0
   12.8140   -1.1108    0.0000 C   0  0  0  0  0  0  0  0  0  0  0  0
   13.2782    0.6097    0.0000 C   0  0  0  0  0  0  0  0  0  0  0  0
    5.4641    2.6483    0.0000 C   0  0  0  0  0  0  0  0  0  0  0  0
    5.4641    1.6483    0.0000 C   0  0  0  0  0  0  0  0  0  0  0  0
    4.5981    3.1483    0.0000 C   0  0  0  0  0  0  0  0  0  0  0  0
    4.5981    1.1483    0.0000 C   0  0  0  0  0  0  0  0  0  0  0  0
   14.5634   -0.5515    0.0000 C   0  0  0  0  0  0  0  0  0  0  0  0
    3.7320    2.6483    0.0000 C   0  0  0  0  0  0  0  0  0  0  0  0
    3.7320    1.6483    0.0000 C   0  0  0  0  0  0  0  0  0  0  0  0
   15.5412   -0.7611    0.0000 C   0  0  0  0  0  0  0  0  0  0  0  0
   13.8930   -1.2935    0.0000 C   0  0  0  0  0  0  0  0  0  0  0  0
   15.1781   -2.4547    0.0000 C   0  0  0  0  0  0  0  0  0  0  0  0
   15.8486   -1.7127    0.0000 C   0  0  0  0  0  0  0  0  0  0  0  0
   14.2004   -2.2451    0.0000 C   0  0  0  0  0  0  0  0  0  0  0  0
   15.4855   -3.4063    0.0000 C   0  0  0  0  0  0  0  0  0  0  0  0
   16.4633   -3.6159    0.0000 C   0  0  0  0  0  0  0  0  0  0  0  0
   14.8151   -4.1483    0.0000 C   0  0  0  0  0  0  0  0  0  0  0  0
   10.3415    1.9099    0.0000 H   0  0  0  0  0  0  0  0  0  0  0  0
    7.7737    1.0756    0.0000 H   0  0  0  0  0  0  0  0  0  0  0  0
    9.4358    3.2606    0.0000 H   0  0  0  0  0  0  0  0  0  0  0  0
    7.9676    0.4088    0.0000 H   0  0  0  0  0  0  0  0  0  0  0  0
    8.4563   -0.2614    0.0000 H   0  0  0  0  0  0  0  0  0  0  0  0
    9.2780   -0.5276    0.0000 H   0  0  0  0  0  0  0  0  0  0  0  0
   10.0668   -0.2713    0.0000 H   0  0  0  0  0  0  0  0  0  0  0  0
   11.9521    0.4933    0.0000 H   0  0  0  0  0  0  0  0  0  0  0  0
   10.7062    2.7345    0.0000 H   0  0  0  0  0  0  0  0  0  0  0  0
   10.8434    3.6005    0.0000 H   0  0  0  0  0  0  0  0  0  0  0  0
    9.9774    3.7377    0.0000 H   0  0  0  0  0  0  0  0  0  0  0  0
   10.6688   -0.6280    0.0000 H   0  0  0  0  0  0  0  0  0  0  0  0
   10.8399   -1.4399    0.0000 H   0  0  0  0  0  0  0  0  0  0  0  0
   11.4857   -2.0234    0.0000 H   0  0  0  0  0  0  0  0  0  0  0  0
   12.3107   -2.1115    0.0000 H   0  0  0  0  0  0  0  0  0  0  0  0
   13.0652   -1.6777    0.0000 H   0  0  0  0  0  0  0  0  0  0  0  0
   13.4040   -0.9203    0.0000 H   0  0  0  0  0  0  0  0  0  0  0  0
   14.6717    0.8601    0.0000 H   0  0  0  0  0  0  0  0  0  0  0  0
    4.5981    3.7683    0.0000 H   0  0  0  0  0  0  0  0  0  0  0  0
    4.5981    0.5283    0.0000 H   0  0  0  0  0  0  0  0  0  0  0  0
    3.1951    1.3383    0.0000 H   0  0  0  0  0  0  0  0  0  0  0  0
   15.9568   -0.3011    0.0000 H   0  0  0  0  0  0  0  0  0  0  0  0
   13.2868   -1.1636    0.0000 H   0  0  0  0  0  0  0  0  0  0  0  0
   16.4548   -1.8427    0.0000 H   0  0  0  0  0  0  0  0  0  0  0  0
   13.7847   -2.7051    0.0000 H   0  0  0  0  0  0  0  0  0  0  0  0
   15.9012   -2.9463    0.0000 H   0  0  0  0  0  0  0  0  0  0  0  0
   16.3333   -4.2221    0.0000 H   0  0  0  0  0  0  0  0  0  0  0  0
   17.0695   -3.7459    0.0000 H   0  0  0  0  0  0  0  0  0  0  0  0
   16.5933   -3.0097    0.0000 H   0  0  0  0  0  0  0  0  0  0  0  0
   14.3551   -3.7326    0.0000 H   0  0  0  0  0  0  0  0  0  0  0  0
   14.3994   -4.6083    0.0000 H   0  0  0  0  0  0  0  0  0  0  0  0
   15.2751   -4.5639    0.0000 H   0  0  0  0  0  0  0  0  0  0  0  0
  1 23  1  0  0  0  0
  1 27  1  0  0  0  0
  2 18  2  0  0  0  0
  3 19  2  0  0  0  0
  4 26  2  0  0  0  0
  5 12  1  0  0  0  0
  6 12  2  0  0  0  0
  7 13  1  0  0  0  0
  7 17  1  0  0  0  0
  7 19  1  0  0  0  0
  8 14  1  0  0  0  0
  8 18  1  0  0  0  0
  8 23  1  0  0  0  0
  9 20  1  0  0  0  0
  9 25  1  0  0  0  0
  9 26  1  0  0  0  0
 10 23  2  0  0  0  0
 10 28  1  0  0  0  0
 11 26  1  0  0  0  0
 11 31  1  0  0  0  0
 11 59  1  0  0  0  0
 12 32  1  0  0  0  0
 13 14  1  0  0  0  0
 13 15  1  0  0  0  0
 13 42  1  6  0  0  0
 14 16  1  0  0  0  0
 14 43  1  1  0  0  0
 15 18  1  0  0  0  0
 15 21  1  1  0  0  0
 15 44  1  0  0  0  0
 16 17  1  0  0  0  0
 16 45  1  0  0  0  0
 16 46  1  0  0  0  0
 17 47  1  0  0  0  0
 17 48  1  0  0  0  0
 20 19  1  1  0  0  0
 20 22  1  0  0  0  0
 20 49  1  0  0  0  0
 21 50  1  0  0  0  0
 21 51  1  0  0  0  0
 21 52  1  0  0  0  0
 22 24  1  0  0  0  0
 22 53  1  0  0  0  0
 22 54  1  0  0  0  0
 24 25  1  0  0  0  0
 24 55  1  0  0  0  0
 24 56  1  0  0  0  0
 25 57  1  0  0  0  0
 25 58  1  0  0  0  0
 27 28  2  0  0  0  0
 27 29  1  0  0  0  0
 28 30  1  0  0  0  0
 29 32  2  0  0  0  0
 29 60  1  0  0  0  0
 30 33  2  0  0  0  0
 30 61  1  0  0  0  0
 31 34  2  0  0  0  0
 31 35  1  0  0  0  0
 32 33  1  0  0  0  0
 33 62  1  0  0  0  0
 34 37  1  0  0  0  0
 34 63  1  0  0  0  0
 35 38  2  0  0  0  0
 35 64  1  0  0  0  0
 36 37  2  0  0  0  0
 36 38  1  0  0  0  0
 36 39  1  0  0  0  0
 37 65  1  0  0  0  0
 38 66  1  0  0  0  0
 39 40  1  0  0  0  0
 39 41  1  0  0  0  0
 39 67  1  0  0  0  0
 40 68  1  0  0  0  0
 40 69  1  0  0  0  0
 40 70  1  0  0  0  0
 41 71  1  0  0  0  0
 41 72  1  0  0  0  0
 41 73  1  0  0  0  0
M  CHG  2   5  -1  12   1
M  END
> <PUBCHEM_COMPOUND_CID>
511121
> <PUBCHEM_COMPOUND_CANONICALIZED>
1
> <PUBCHEM_CACTVS_COMPLEXITY>
1050
> <PUBCHEM_CACTVS_HBOND_ACCEPTOR>
7
> <PUBCHEM_CACTVS_HBOND_DONOR>
1
> <PUBCHEM_CACTVS_ROTATABLE_BOND>
4
> <PUBCHEM_CACTVS_SUBSKEYS>
AAADcfB7uABAAAAAAAAAAAAAAAAAAWLFiwAwYAAAAAAWAFgB9AAAHgQUAAAADSjB3gQz0bPYUAitAyVydwCD8KlhCjhpmD24ZJqIYLrg2bGUIAxolwLIyCccicAOiACAACAAAQAQAQAAQAACAAAAAAAAAA==
> <PUBCHEM_IUPAC_OPENEYE_NAME>
(2S)-2-[(3aS,6S,6aR)-6-methyl-4-(6-nitro-1,3-benzothiazol-2-yl)-5-oxo-3,3a,6,6a-tetrahydro-2H-pyrrolo[3,2-b]pyrrole-1-carbonyl]-N-(4-isopropylphenyl)pyrrolidine-1-carboxamide
> <PUBCHEM_IUPAC_CAS_NAME>
(2S)-2-[[(3aS,6S,6aR)-6-methyl-4-(6-nitro-1,3-benzothiazol-2-yl)-5-oxo-3,3a,6,6a-tetrahydro-2H-pyrrolo[3,2-b]pyrrol-1-yl]-oxomethyl]-N-(4-propan-2-ylphenyl)-1-pyrrolidinecarboxamide
> <PUBCHEM_IUPAC_NAME_MARKUP>
(2<I>S</I>)-2-[(3<I>a</I><I>S</I>,6<I>S</I>,6<I>a</I><I>R</I>)-6-methyl-4-(6-nitro-1,3-benzothiazol-2-yl)-5-oxo-3,3<I>a</I>,6,6<I>a</I>-tetrahydro-2<I>H</I>-pyrrolo[3,2-b]pyrrole-1-carbonyl]-<I>N</I>-(4-propan-2-ylphenyl)pyrrolidine-1-carboxamide
> <PUBCHEM_IUPAC_NAME>
(2S)-2-[(3aS,6S,6aR)-6-methyl-4-(6-nitro-1,3-benzothiazol-2-yl)-5-oxo-3,3a,6,6a-tetrahydro-2H-pyrrolo[3,2-b]pyrrole-1-carbonyl]-N-(4-propan-2-ylphenyl)pyrrolidine-1-carboxamide
> <PUBCHEM_IUPAC_SYSTEMATIC_NAME>
(2S)-2-[[(3aS,6S,6aR)-6-methyl-4-(6-nitro-1,3-benzothiazol-2-yl)-5-oxidanylidene-3,3a,6,6a-tetrahydro-2H-pyrrolo[3,2-b]pyrrol-1-yl]carbonyl]-N-(4-propan-2-ylphenyl)pyrrolidine-1-carboxamide
> <PUBCHEM_IUPAC_TRADITIONAL_NAME>
(2S)-2-[(3aS,6S,6aR)-5-keto-6-methyl-4-(6-nitro-1,3-benzothiazol-2-yl)-3,3a,6,6a-tetrahydro-2H-pyrrolo[3,2-b]pyrrole-1-carbonyl]-N-p-cumenyl-pyrrolidine-1-carboxamide
> <PUBCHEM_IUPAC_INCHI>
InChI=1S/C29H32N6O5S/c1-16(2)18-6-8-19(9-7-18)30-28(38)32-13-4-5-23(32)27(37)33-14-12-22-25(33)17(3)26(36)34(22)29-31-21-11-10-20(35(39)40)15-24(21)41-29/h6-11,15-17,22-23,25H,4-5,12-14H2,1-3H3,(H,30,38)/t17-,22-,23-,25+/m0/s1
> <PUBCHEM_IUPAC_INCHIKEY>
GLQOZKCGEADOJJ-XVYJZYCRSA-N
> <PUBCHEM_XLOGP3_AA>
4.5
> <PUBCHEM_EXACT_MASS>
576.21548932
> <PUBCHEM_MOLECULAR_FORMULA>
C29H32N6O5S
> <PUBCHEM_MOLECULAR_WEIGHT>
576.7
> <PUBCHEM_OPENEYE_CAN_SMILES>
CC1C2C(CCN2C(=O)C3CCCN3C(=O)NC4=CC=C(C=C4)C(C)C)N(C1=O)C5=NC6=C(S5)C=C(C=C6)[N+](=O)[O-]
> <PUBCHEM_OPENEYE_ISO_SMILES>
C[C@H]1[C@@H]2[C@H](CCN2C(=O)[C@@H]3CCCN3C(=O)NC4=CC=C(C=C4)C(C)C)N(C1=O)C5=NC6=C(S5)C=C(C=C6)[N+](=O)[O-]
> <PUBCHEM_CACTVS_TPSA>
160
> <PUBCHEM_MONOISOTOPIC_WEIGHT>
576.21548932
> <PUBCHEM_TOTAL_CHARGE>
0
> <PUBCHEM_HEAVY_ATOM_COUNT>
41
> <PUBCHEM_ATOM_DEF_STEREO_COUNT>
4
> <PUBCHEM_ATOM_UDEF_STEREO_COUNT>
0
> <PUBCHEM_BOND_DEF_STEREO_COUNT>
0
> <PUBCHEM_BOND_UDEF_STEREO_COUNT>
0
> <PUBCHEM_ISOTOPIC_ATOM_COUNT>
0
> <PUBCHEM_COMPONENT_COUNT>
1
> <PUBCHEM_CACTVS_TAUTO_COUNT>
-1
> <PUBCHEM_COORDINATE_TYPE>
1
5
255
> <PUBCHEM_BONDANNOTATIONS>
1  23  8
1  27  8
10  23  8
10  28  8
13  42  6
14  43  5
15  21  5
20  19  5
27  28  8
27  29  8
28  30  8
29  32  8
30  33  8
31  34  8
31  35  8
32  33  8
34  37  8
35  38  8
36  37  8
36  38  8
$$$$
