511111
  -OEChem-10302200282D
 71 76  0     1  0  0  0  0  0999 V2000
    4.6783    3.0730    0.0000 S   0  0  0  0  0  0  0  0  0  0  0  0
    6.5406    4.0283    0.0000 O   0  0  0  0  0  0  0  0  0  0  0  0
    9.8844    1.8259    0.0000 O   0  0  0  0  0  0  0  0  0  0  0  0
   11.2388    1.6812    0.0000 O   0  0  0  0  0  0  0  0  0  0  0  0
    8.3829    0.9625    0.0000 N   0  0  0  0  0  0  0  0  0  0  0  0
    6.2619    2.2682    0.0000 N   0  0  0  0  0  0  0  0  0  0  0  0
   10.8758   -0.0124    0.0000 N   0  0  0  0  0  0  0  0  0  0  0  0
    4.6783    1.4635    0.0000 N   0  0  0  0  0  0  0  0  0  0  0  0
   12.5240    0.5200    0.0000 N   0  0  0  0  0  0  0  0  0  0  0  0
    7.8007    1.7682    0.0000 C   0  0  1  0  0  0  0  0  0  0  0  0
    6.8497    1.4592    0.0000 C   0  0  2  0  0  0  0  0  0  0  0  0
    7.8007    2.7682    0.0000 C   0  0  1  0  0  0  0  0  0  0  0  0
    6.8522    0.4652    0.0000 C   0  0  0  0  0  0  0  0  0  0  0  0
    7.7979    0.1588    0.0000 C   0  0  0  0  0  0  0  0  0  0  0  0
    6.8497    3.0773    0.0000 C   0  0  0  0  0  0  0  0  0  0  0  0
    9.3829    0.9608    0.0000 C   0  0  0  0  0  0  0  0  0  0  0  0
    9.8814    0.0939    0.0000 C   0  0  2  0  0  0  0  0  0  0  0  0
    8.6097    3.3560    0.0000 C   0  0  0  0  0  0  0  0  0  0  0  0
    9.4731   -0.8190    0.0000 C   0  0  0  0  0  0  0  0  0  0  0  0
    5.2619    2.2682    0.0000 C   0  0  0  0  0  0  0  0  0  0  0  0
   10.2151   -1.4894    0.0000 C   0  0  0  0  0  0  0  0  0  0  0  0
   11.0820   -0.9909    0.0000 C   0  0  0  0  0  0  0  0  0  0  0  0
   11.5462    0.7296    0.0000 C   0  0  0  0  0  0  0  0  0  0  0  0
    3.7320    2.7682    0.0000 C   0  0  0  0  0  0  0  0  0  0  0  0
    3.7320    1.7682    0.0000 C   0  0  0  0  0  0  0  0  0  0  0  0
    2.8660    3.2682    0.0000 C   0  0  0  0  0  0  0  0  0  0  0  0
    2.8660    1.2683    0.0000 C   0  0  0  0  0  0  0  0  0  0  0  0
   12.8313   -0.4316    0.0000 C   0  0  0  0  0  0  0  0  0  0  0  0
    2.0000    2.7682    0.0000 C   0  0  0  0  0  0  0  0  0  0  0  0
    2.0000    1.7682    0.0000 C   0  0  0  0  0  0  0  0  0  0  0  0
   13.8091   -0.6412    0.0000 C   0  0  0  0  0  0  0  0  0  0  0  0
   12.1609   -1.1736    0.0000 C   0  0  0  0  0  0  0  0  0  0  0  0
   13.4461   -2.3348    0.0000 C   0  0  0  0  0  0  0  0  0  0  0  0
   14.1165   -1.5928    0.0000 C   0  0  0  0  0  0  0  0  0  0  0  0
   12.4683   -2.1251    0.0000 C   0  0  0  0  0  0  0  0  0  0  0  0
   13.7535   -3.2863    0.0000 C   0  0  0  0  0  0  0  0  0  0  0  0
   14.7312   -3.4959    0.0000 C   0  0  0  0  0  0  0  0  0  0  0  0
   13.0830   -4.0283    0.0000 C   0  0  0  0  0  0  0  0  0  0  0  0
    8.6095    2.0299    0.0000 H   0  0  0  0  0  0  0  0  0  0  0  0
    6.0416    1.1955    0.0000 H   0  0  0  0  0  0  0  0  0  0  0  0
    8.3532    2.4868    0.0000 H   0  0  0  0  0  0  0  0  0  0  0  0
    6.2355    0.5287    0.0000 H   0  0  0  0  0  0  0  0  0  0  0  0
    6.7242   -0.1415    0.0000 H   0  0  0  0  0  0  0  0  0  0  0  0
    7.5459   -0.4077    0.0000 H   0  0  0  0  0  0  0  0  0  0  0  0
    8.3348   -0.1514    0.0000 H   0  0  0  0  0  0  0  0  0  0  0  0
   10.2200    0.6133    0.0000 H   0  0  0  0  0  0  0  0  0  0  0  0
    8.9742    2.8544    0.0000 H   0  0  0  0  0  0  0  0  0  0  0  0
    9.1113    3.7205    0.0000 H   0  0  0  0  0  0  0  0  0  0  0  0
    8.2453    3.8576    0.0000 H   0  0  0  0  0  0  0  0  0  0  0  0
    8.9367   -0.5080    0.0000 H   0  0  0  0  0  0  0  0  0  0  0  0
    9.1078   -1.3199    0.0000 H   0  0  0  0  0  0  0  0  0  0  0  0
    9.7536   -1.9034    0.0000 H   0  0  0  0  0  0  0  0  0  0  0  0
   10.5787   -1.9916    0.0000 H   0  0  0  0  0  0  0  0  0  0  0  0
   11.3332   -1.5577    0.0000 H   0  0  0  0  0  0  0  0  0  0  0  0
   11.6720   -0.8003    0.0000 H   0  0  0  0  0  0  0  0  0  0  0  0
   12.9396    0.9801    0.0000 H   0  0  0  0  0  0  0  0  0  0  0  0
    2.8660    3.8882    0.0000 H   0  0  0  0  0  0  0  0  0  0  0  0
    2.8660    0.6482    0.0000 H   0  0  0  0  0  0  0  0  0  0  0  0
    1.4631    3.0782    0.0000 H   0  0  0  0  0  0  0  0  0  0  0  0
    1.4631    1.4582    0.0000 H   0  0  0  0  0  0  0  0  0  0  0  0
   14.2248   -0.1811    0.0000 H   0  0  0  0  0  0  0  0  0  0  0  0
   11.5547   -1.0436    0.0000 H   0  0  0  0  0  0  0  0  0  0  0  0
   14.7227   -1.7227    0.0000 H   0  0  0  0  0  0  0  0  0  0  0  0
   12.0526   -2.5852    0.0000 H   0  0  0  0  0  0  0  0  0  0  0  0
   14.1691   -2.8263    0.0000 H   0  0  0  0  0  0  0  0  0  0  0  0
   14.6013   -4.1022    0.0000 H   0  0  0  0  0  0  0  0  0  0  0  0
   15.3375   -3.6259    0.0000 H   0  0  0  0  0  0  0  0  0  0  0  0
   14.8612   -2.8897    0.0000 H   0  0  0  0  0  0  0  0  0  0  0  0
   12.6230   -3.6127    0.0000 H   0  0  0  0  0  0  0  0  0  0  0  0
   12.6674   -4.4883    0.0000 H   0  0  0  0  0  0  0  0  0  0  0  0
   13.5431   -4.4440    0.0000 H   0  0  0  0  0  0  0  0  0  0  0  0
  1 20  1  0  0  0  0
  1 24  1  0  0  0  0
  2 15  2  0  0  0  0
  3 16  2  0  0  0  0
  4 23  2  0  0  0  0
  5 10  1  0  0  0  0
  5 14  1  0  0  0  0
  5 16  1  0  0  0  0
  6 11  1  0  0  0  0
  6 15  1  0  0  0  0
  6 20  1  0  0  0  0
  7 17  1  0  0  0  0
  7 22  1  0  0  0  0
  7 23  1  0  0  0  0
  8 20  2  0  0  0  0
  8 25  1  0  0  0  0
  9 23  1  0  0  0  0
  9 28  1  0  0  0  0
  9 56  1  0  0  0  0
 10 11  1  0  0  0  0
 10 12  1  0  0  0  0
 10 39  1  6  0  0  0
 11 13  1  0  0  0  0
 11 40  1  1  0  0  0
 12 15  1  0  0  0  0
 12 18  1  1  0  0  0
 12 41  1  0  0  0  0
 13 14  1  0  0  0  0
 13 42  1  0  0  0  0
 13 43  1  0  0  0  0
 14 44  1  0  0  0  0
 14 45  1  0  0  0  0
 17 16  1  1  0  0  0
 17 19  1  0  0  0  0
 17 46  1  0  0  0  0
 18 47  1  0  0  0  0
 18 48  1  0  0  0  0
 18 49  1  0  0  0  0
 19 21  1  0  0  0  0
 19 50  1  0  0  0  0
 19 51  1  0  0  0  0
 21 22  1  0  0  0  0
 21 52  1  0  0  0  0
 21 53  1  0  0  0  0
 22 54  1  0  0  0  0
 22 55  1  0  0  0  0
 24 25  1  0  0  0  0
 24 26  2  0  0  0  0
 25 27  2  0  0  0  0
 26 29  1  0  0  0  0
 26 57  1  0  0  0  0
 27 30  1  0  0  0  0
 27 58  1  0  0  0  0
 28 31  2  0  0  0  0
 28 32  1  0  0  0  0
 29 30  2  0  0  0  0
 29 59  1  0  0  0  0
 30 60  1  0  0  0  0
 31 34  1  0  0  0  0
 31 61  1  0  0  0  0
 32 35  2  0  0  0  0
 32 62  1  0  0  0  0
 33 34  2  0  0  0  0
 33 35  1  0  0  0  0
 33 36  1  0  0  0  0
 34 63  1  0  0  0  0
 35 64  1  0  0  0  0
 36 37  1  0  0  0  0
 36 38  1  0  0  0  0
 36 65  1  0  0  0  0
 37 66  1  0  0  0  0
 37 67  1  0  0  0  0
 37 68  1  0  0  0  0
 38 69  1  0  0  0  0
 38 70  1  0  0  0  0
 38 71  1  0  0  0  0
M  END
> <PUBCHEM_COMPOUND_CID>
511111
> <PUBCHEM_COMPOUND_CANONICALIZED>
1
> <PUBCHEM_CACTVS_COMPLEXITY>
924
> <PUBCHEM_CACTVS_HBOND_ACCEPTOR>
5
> <PUBCHEM_CACTVS_HBOND_DONOR>
1
> <PUBCHEM_CACTVS_ROTATABLE_BOND>
4
> <PUBCHEM_CACTVS_SUBSKEYS>
AAADcfB7sABAAAAAAAAAAAAAAAAAAWLFiwAwYAAAAAAWAFgB9AAAHgQQAAAADSjB3gQz0bPIEAisAyVydACD8KlhCjhJmD24ZJiIYLrg2bGUIAholwLIyCccicAOiAAAAAAAAQAQAAAAAAACAAAAAAAAAA==
> <PUBCHEM_IUPAC_OPENEYE_NAME>
(2S)-2-[(3aS,6S,6aR)-4-(1,3-benzothiazol-2-yl)-6-methyl-5-oxo-3,3a,6,6a-tetrahydro-2H-pyrrolo[3,2-b]pyrrole-1-carbonyl]-N-(4-isopropylphenyl)pyrrolidine-1-carboxamide
> <PUBCHEM_IUPAC_CAS_NAME>
(2S)-2-[[(3aS,6S,6aR)-4-(1,3-benzothiazol-2-yl)-6-methyl-5-oxo-3,3a,6,6a-tetrahydro-2H-pyrrolo[3,2-b]pyrrol-1-yl]-oxomethyl]-N-(4-propan-2-ylphenyl)-1-pyrrolidinecarboxamide
> <PUBCHEM_IUPAC_NAME_MARKUP>
(2<I>S</I>)-2-[(3<I>a</I><I>S</I>,6<I>S</I>,6<I>a</I><I>R</I>)-4-(1,3-benzothiazol-2-yl)-6-methyl-5-oxo-3,3<I>a</I>,6,6<I>a</I>-tetrahydro-2<I>H</I>-pyrrolo[3,2-b]pyrrole-1-carbonyl]-<I>N</I>-(4-propan-2-ylphenyl)pyrrolidine-1-carboxamide
> <PUBCHEM_IUPAC_NAME>
(2S)-2-[(3aS,6S,6aR)-4-(1,3-benzothiazol-2-yl)-6-methyl-5-oxo-3,3a,6,6a-tetrahydro-2H-pyrrolo[3,2-b]pyrrole-1-carbonyl]-N-(4-propan-2-ylphenyl)pyrrolidine-1-carboxamide
> <PUBCHEM_IUPAC_SYSTEMATIC_NAME>
(2S)-2-[[(3aS,6S,6aR)-4-(1,3-benzothiazol-2-yl)-6-methyl-5-oxidanylidene-3,3a,6,6a-tetrahydro-2H-pyrrolo[3,2-b]pyrrol-1-yl]carbonyl]-N-(4-propan-2-ylphenyl)pyrrolidine-1-carboxamide
> <PUBCHEM_IUPAC_TRADITIONAL_NAME>
(2S)-2-[(3aS,6S,6aR)-4-(1,3-benzothiazol-2-yl)-5-keto-6-methyl-3,3a,6,6a-tetrahydro-2H-pyrrolo[3,2-b]pyrrole-1-carbonyl]-N-p-cumenyl-pyrrolidine-1-carboxamide
> <PUBCHEM_IUPAC_INCHI>
InChI=1S/C29H33N5O3S/c1-17(2)19-10-12-20(13-11-19)30-28(37)32-15-6-8-23(32)27(36)33-16-14-22-25(33)18(3)26(35)34(22)29-31-21-7-4-5-9-24(21)38-29/h4-5,7,9-13,17-18,22-23,25H,6,8,14-16H2,1-3H3,(H,30,37)/t18-,22-,23-,25+/m0/s1
> <PUBCHEM_IUPAC_INCHIKEY>
WTZRHKMMAVQPDV-ZDKQOFBKSA-N
> <PUBCHEM_XLOGP3_AA>
4.7
> <PUBCHEM_EXACT_MASS>
531.23041111
> <PUBCHEM_MOLECULAR_FORMULA>
C29H33N5O3S
> <PUBCHEM_MOLECULAR_WEIGHT>
531.7
> <PUBCHEM_OPENEYE_CAN_SMILES>
CC1C2C(CCN2C(=O)C3CCCN3C(=O)NC4=CC=C(C=C4)C(C)C)N(C1=O)C5=NC6=CC=CC=C6S5
> <PUBCHEM_OPENEYE_ISO_SMILES>
C[C@H]1[C@@H]2[C@H](CCN2C(=O)[C@@H]3CCCN3C(=O)NC4=CC=C(C=C4)C(C)C)N(C1=O)C5=NC6=CC=CC=C6S5
> <PUBCHEM_CACTVS_TPSA>
114
> <PUBCHEM_MONOISOTOPIC_WEIGHT>
531.23041111
> <PUBCHEM_TOTAL_CHARGE>
0
> <PUBCHEM_HEAVY_ATOM_COUNT>
38
> <PUBCHEM_ATOM_DEF_STEREO_COUNT>
4
> <PUBCHEM_ATOM_UDEF_STEREO_COUNT>
0
> <PUBCHEM_BOND_DEF_STEREO_COUNT>
0
> <PUBCHEM_BOND_UDEF_STEREO_COUNT>
0
> <PUBCHEM_ISOTOPIC_ATOM_COUNT>
0
> <PUBCHEM_COMPONENT_COUNT>
1
> <PUBCHEM_CACTVS_TAUTO_COUNT>
-1
> <PUBCHEM_COORDINATE_TYPE>
1
5
255
> <PUBCHEM_BONDANNOTATIONS>
1  20  8
1  24  8
10  39  6
11  40  5
12  18  5
17  16  5
24  25  8
24  26  8
25  27  8
26  29  8
27  30  8
28  31  8
28  32  8
29  30  8
31  34  8
32  35  8
33  34  8
33  35  8
8  20  8
8  25  8
$$$$
