511106
  -OEChem-10302200282D
 74 78  0     1  0  0  0  0  0999 V2000
    5.2675   -5.1787    0.0000 O   0  0  0  0  0  0  0  0  0  0  0  0
    3.3196   -2.6754    0.0000 O   0  0  0  0  0  0  0  0  0  0  0  0
    6.4474   -0.1759    0.0000 O   0  0  0  0  0  0  0  0  0  0  0  0
    7.0036    1.0675    0.0000 O   0  0  0  0  0  0  0  0  0  0  0  0
    4.9074   -3.4845    0.0000 N   0  0  0  0  0  0  0  0  0  0  0  0
    6.8046   -1.8707    0.0000 N   0  0  0  0  0  0  0  0  0  0  0  0
    8.5021    0.1989    0.0000 N   0  0  0  0  0  0  0  0  0  0  0  0
    8.5051    1.9309    0.0000 N   0  0  0  0  0  0  0  0  0  0  0  0
    3.6202   -4.6434    0.0000 C   0  0  0  0  0  0  0  0  0  0  0  0
    2.6691   -4.3344    0.0000 C   0  0  1  0  0  0  0  0  0  0  0  0
    2.8770   -5.3126    0.0000 C   0  0  2  0  0  0  0  0  0  0  0  0
    5.8584   -3.1754    0.0000 C   0  0  2  0  0  0  0  0  0  0  0  0
    5.8584   -2.1754    0.0000 C   0  0  1  0  0  0  0  0  0  0  0  0
    4.5983   -4.4355    0.0000 C   0  0  0  0  0  0  0  0  0  0  0  0
    4.9074   -1.8664    0.0000 C   0  0  1  0  0  0  0  0  0  0  0  0
    6.8046   -3.4802    0.0000 C   0  0  0  0  0  0  0  0  0  0  0  0
    7.3882   -2.6754    0.0000 C   0  0  0  0  0  0  0  0  0  0  0  0
    4.3196   -2.6754    0.0000 C   0  0  0  0  0  0  0  0  0  0  0  0
    2.0000   -3.5913    0.0000 C   0  0  0  0  0  0  0  0  0  0  0  0
    2.5680   -6.2636    0.0000 C   0  0  0  0  0  0  0  0  0  0  0  0
    4.5983   -0.9154    0.0000 C   0  0  0  0  0  0  0  0  0  0  0  0
    7.1153   -0.9202    0.0000 C   0  0  0  0  0  0  0  0  0  0  0  0
    8.0938   -0.7140    0.0000 C   0  0  2  0  0  0  0  0  0  0  0  0
    8.8358   -1.3844    0.0000 C   0  0  0  0  0  0  0  0  0  0  0  0
    9.7027   -0.8859    0.0000 C   0  0  0  0  0  0  0  0  0  0  0  0
    9.4964    0.0926    0.0000 C   0  0  0  0  0  0  0  0  0  0  0  0
    8.0036    1.0658    0.0000 C   0  0  0  0  0  0  0  0  0  0  0  0
    8.0066    2.7978    0.0000 C   0  0  0  0  0  0  0  0  0  0  0  0
    8.5081    3.6630    0.0000 C   0  0  0  0  0  0  0  0  0  0  0  0
    7.0066    2.7995    0.0000 C   0  0  0  0  0  0  0  0  0  0  0  0
    8.0096    4.5298    0.0000 C   0  0  0  0  0  0  0  0  0  0  0  0
    6.5081    3.6664    0.0000 C   0  0  0  0  0  0  0  0  0  0  0  0
    7.0096    4.5316    0.0000 C   0  0  0  0  0  0  0  0  0  0  0  0
    6.5111    5.3985    0.0000 C   0  0  0  0  0  0  0  0  0  0  0  0
    7.0126    6.2636    0.0000 C   0  0  0  0  0  0  0  0  0  0  0  0
    5.5111    5.4002    0.0000 C   0  0  0  0  0  0  0  0  0  0  0  0
    3.6526   -4.0243    0.0000 H   0  0  0  0  0  0  0  0  0  0  0  0
    2.1167   -4.6159    0.0000 H   0  0  0  0  0  0  0  0  0  0  0  0
    3.3970   -5.6502    0.0000 H   0  0  0  0  0  0  0  0  0  0  0  0
    5.8595   -4.0254    0.0000 H   0  0  0  0  0  0  0  0  0  0  0  0
    5.8595   -1.3254    0.0000 H   0  0  0  0  0  0  0  0  0  0  0  0
    4.2950   -1.7694    0.0000 H   0  0  0  0  0  0  0  0  0  0  0  0
    6.5536   -4.0471    0.0000 H   0  0  0  0  0  0  0  0  0  0  0  0
    7.3420   -3.7894    0.0000 H   0  0  0  0  0  0  0  0  0  0  0  0
    7.8491   -3.0902    0.0000 H   0  0  0  0  0  0  0  0  0  0  0  0
    7.8491   -2.2607    0.0000 H   0  0  0  0  0  0  0  0  0  0  0  0
    2.4608   -3.1764    0.0000 H   0  0  0  0  0  0  0  0  0  0  0  0
    1.5851   -3.1305    0.0000 H   0  0  0  0  0  0  0  0  0  0  0  0
    1.5392   -4.0061    0.0000 H   0  0  0  0  0  0  0  0  0  0  0  0
    1.9784   -6.0720    0.0000 H   0  0  0  0  0  0  0  0  0  0  0  0
    2.3764   -6.8533    0.0000 H   0  0  0  0  0  0  0  0  0  0  0  0
    3.1577   -6.4552    0.0000 H   0  0  0  0  0  0  0  0  0  0  0  0
    5.1880   -0.7238    0.0000 H   0  0  0  0  0  0  0  0  0  0  0  0
    4.4067   -0.3257    0.0000 H   0  0  0  0  0  0  0  0  0  0  0  0
    4.0087   -1.1070    0.0000 H   0  0  0  0  0  0  0  0  0  0  0  0
    7.7044   -0.2315    0.0000 H   0  0  0  0  0  0  0  0  0  0  0  0
    8.3743   -1.7985    0.0000 H   0  0  0  0  0  0  0  0  0  0  0  0
    9.1993   -1.8866    0.0000 H   0  0  0  0  0  0  0  0  0  0  0  0
    9.9539   -1.4527    0.0000 H   0  0  0  0  0  0  0  0  0  0  0  0
   10.2927   -0.6953    0.0000 H   0  0  0  0  0  0  0  0  0  0  0  0
   10.1132    0.1564    0.0000 H   0  0  0  0  0  0  0  0  0  0  0  0
    9.4975    0.7126    0.0000 H   0  0  0  0  0  0  0  0  0  0  0  0
    9.1251    1.9298    0.0000 H   0  0  0  0  0  0  0  0  0  0  0  0
    9.1281    3.6619    0.0000 H   0  0  0  0  0  0  0  0  0  0  0  0
    6.6957    2.2631    0.0000 H   0  0  0  0  0  0  0  0  0  0  0  0
    8.3205    5.0662    0.0000 H   0  0  0  0  0  0  0  0  0  0  0  0
    5.8881    3.6675    0.0000 H   0  0  0  0  0  0  0  0  0  0  0  0
    6.2002    4.8621    0.0000 H   0  0  0  0  0  0  0  0  0  0  0  0
    7.5490    5.9527    0.0000 H   0  0  0  0  0  0  0  0  0  0  0  0
    7.3235    6.8000    0.0000 H   0  0  0  0  0  0  0  0  0  0  0  0
    6.4762    6.5746    0.0000 H   0  0  0  0  0  0  0  0  0  0  0  0
    5.5122    6.0202    0.0000 H   0  0  0  0  0  0  0  0  0  0  0  0
    4.8911    5.4013    0.0000 H   0  0  0  0  0  0  0  0  0  0  0  0
    5.5100    4.7802    0.0000 H   0  0  0  0  0  0  0  0  0  0  0  0
  1 14  2  0  0  0  0
  2 18  2  0  0  0  0
  3 22  2  0  0  0  0
  4 27  2  0  0  0  0
  5 12  1  0  0  0  0
  5 14  1  0  0  0  0
  5 18  1  0  0  0  0
  6 13  1  0  0  0  0
  6 17  1  0  0  0  0
  6 22  1  0  0  0  0
  7 23  1  0  0  0  0
  7 26  1  0  0  0  0
  7 27  1  0  0  0  0
  8 27  1  0  0  0  0
  8 28  1  0  0  0  0
  8 63  1  0  0  0  0
  9 10  1  0  0  0  0
  9 11  1  0  0  0  0
  9 14  1  0  0  0  0
  9 37  1  0  0  0  0
 10 11  1  0  0  0  0
 10 19  1  1  0  0  0
 10 38  1  0  0  0  0
 11 20  1  1  0  0  0
 11 39  1  0  0  0  0
 12 13  1  0  0  0  0
 12 16  1  0  0  0  0
 12 40  1  1  0  0  0
 13 15  1  0  0  0  0
 13 41  1  6  0  0  0
 15 18  1  0  0  0  0
 15 21  1  1  0  0  0
 15 42  1  0  0  0  0
 16 17  1  0  0  0  0
 16 43  1  0  0  0  0
 16 44  1  0  0  0  0
 17 45  1  0  0  0  0
 17 46  1  0  0  0  0
 19 47  1  0  0  0  0
 19 48  1  0  0  0  0
 19 49  1  0  0  0  0
 20 50  1  0  0  0  0
 20 51  1  0  0  0  0
 20 52  1  0  0  0  0
 21 53  1  0  0  0  0
 21 54  1  0  0  0  0
 21 55  1  0  0  0  0
 23 22  1  1  0  0  0
 23 24  1  0  0  0  0
 23 56  1  0  0  0  0
 24 25  1  0  0  0  0
 24 57  1  0  0  0  0
 24 58  1  0  0  0  0
 25 26  1  0  0  0  0
 25 59  1  0  0  0  0
 25 60  1  0  0  0  0
 26 61  1  0  0  0  0
 26 62  1  0  0  0  0
 28 29  2  0  0  0  0
 28 30  1  0  0  0  0
 29 31  1  0  0  0  0
 29 64  1  0  0  0  0
 30 32  2  0  0  0  0
 30 65  1  0  0  0  0
 31 33  2  0  0  0  0
 31 66  1  0  0  0  0
 32 33  1  0  0  0  0
 32 67  1  0  0  0  0
 33 34  1  0  0  0  0
 34 35  1  0  0  0  0
 34 36  1  0  0  0  0
 34 68  1  0  0  0  0
 35 69  1  0  0  0  0
 35 70  1  0  0  0  0
 35 71  1  0  0  0  0
 36 72  1  0  0  0  0
 36 73  1  0  0  0  0
 36 74  1  0  0  0  0
M  END
> <PUBCHEM_COMPOUND_CID>
511106
> <PUBCHEM_COMPOUND_CANONICALIZED>
1
> <PUBCHEM_CACTVS_COMPLEXITY>
905
> <PUBCHEM_CACTVS_HBOND_ACCEPTOR>
4
> <PUBCHEM_CACTVS_HBOND_DONOR>
1
> <PUBCHEM_CACTVS_ROTATABLE_BOND>
4
> <PUBCHEM_CACTVS_SUBSKEYS>
AAADcfB7uAAAAAAAAAAAAAAAGAAAAWLFgAAwAAAAAAAWAAABAAAAHgAQAAAADSjBmAQzwIPAAACIAiVSUACCAAAhAgAIiAGIZIiIYDrA0bGUIAholiLIyCccicAOiAAAAAAAAAAQAAAAAAAAAAAAAAAAAA==
> <PUBCHEM_IUPAC_OPENEYE_NAME>
(2S)-2-[(3aS,6S,6aR)-4-[(2S,3R)-2,3-dimethylcyclopropanecarbonyl]-6-methyl-5-oxo-3,3a,6,6a-tetrahydro-2H-pyrrolo[3,2-b]pyrrole-1-carbonyl]-N-(4-isopropylphenyl)pyrrolidine-1-carboxamide
> <PUBCHEM_IUPAC_CAS_NAME>
(2S)-2-[[(3aS,6S,6aR)-4-[[(2S,3R)-2,3-dimethylcyclopropyl]-oxomethyl]-6-methyl-5-oxo-3,3a,6,6a-tetrahydro-2H-pyrrolo[3,2-b]pyrrol-1-yl]-oxomethyl]-N-(4-propan-2-ylphenyl)-1-pyrrolidinecarboxamide
> <PUBCHEM_IUPAC_NAME_MARKUP>
(2<I>S</I>)-2-[(3<I>a</I><I>S</I>,6<I>S</I>,6<I>a</I><I>R</I>)-4-[(2<I>S</I>,3<I>R</I>)-2,3-dimethylcyclopropanecarbonyl]-6-methyl-5-oxo-3,3<I>a</I>,6,6<I>a</I>-tetrahydro-2<I>H</I>-pyrrolo[3,2-b]pyrrole-1-carbonyl]-<I>N</I>-(4-propan-2-ylphenyl)pyrrolidine-1-carboxamide
> <PUBCHEM_IUPAC_NAME>
(2S)-2-[(3aS,6S,6aR)-4-[(2S,3R)-2,3-dimethylcyclopropanecarbonyl]-6-methyl-5-oxo-3,3a,6,6a-tetrahydro-2H-pyrrolo[3,2-b]pyrrole-1-carbonyl]-N-(4-propan-2-ylphenyl)pyrrolidine-1-carboxamide
> <PUBCHEM_IUPAC_SYSTEMATIC_NAME>
(2S)-2-[[(3aS,6S,6aR)-4-[(2S,3R)-2,3-dimethylcyclopropyl]carbonyl-6-methyl-5-oxidanylidene-3,3a,6,6a-tetrahydro-2H-pyrrolo[3,2-b]pyrrol-1-yl]carbonyl]-N-(4-propan-2-ylphenyl)pyrrolidine-1-carboxamide
> <PUBCHEM_IUPAC_TRADITIONAL_NAME>
(2S)-2-[(3aS,6S,6aR)-4-[(2S,3R)-2,3-dimethylcyclopropanecarbonyl]-5-keto-6-methyl-3,3a,6,6a-tetrahydro-2H-pyrrolo[3,2-b]pyrrole-1-carbonyl]-N-p-cumenyl-pyrrolidine-1-carboxamide
> <PUBCHEM_IUPAC_INCHI>
InChI=1S/C28H38N4O4/c1-15(2)19-8-10-20(11-9-19)29-28(36)30-13-6-7-22(30)26(34)31-14-12-21-24(31)18(5)25(33)32(21)27(35)23-16(3)17(23)4/h8-11,15-18,21-24H,6-7,12-14H2,1-5H3,(H,29,36)/t16-,17+,18-,21-,22-,23?,24+/m0/s1
> <PUBCHEM_IUPAC_INCHIKEY>
JAKUIQCTPLJMHE-OXFHBNHSSA-N
> <PUBCHEM_XLOGP3_AA>
3.4
> <PUBCHEM_EXACT_MASS>
494.28930571
> <PUBCHEM_MOLECULAR_FORMULA>
C28H38N4O4
> <PUBCHEM_MOLECULAR_WEIGHT>
494.6
> <PUBCHEM_OPENEYE_CAN_SMILES>
CC1C(C1C(=O)N2C3CCN(C3C(C2=O)C)C(=O)C4CCCN4C(=O)NC5=CC=C(C=C5)C(C)C)C
> <PUBCHEM_OPENEYE_ISO_SMILES>
C[C@@H]1[C@@H](C1C(=O)N2[C@H]3CCN([C@@H]3[C@@H](C2=O)C)C(=O)[C@@H]4CCCN4C(=O)NC5=CC=C(C=C5)C(C)C)C
> <PUBCHEM_CACTVS_TPSA>
90
> <PUBCHEM_MONOISOTOPIC_WEIGHT>
494.28930571
> <PUBCHEM_TOTAL_CHARGE>
0
> <PUBCHEM_HEAVY_ATOM_COUNT>
36
> <PUBCHEM_ATOM_DEF_STEREO_COUNT>
6
> <PUBCHEM_ATOM_UDEF_STEREO_COUNT>
0
> <PUBCHEM_BOND_DEF_STEREO_COUNT>
0
> <PUBCHEM_BOND_UDEF_STEREO_COUNT>
0
> <PUBCHEM_ISOTOPIC_ATOM_COUNT>
0
> <PUBCHEM_COMPONENT_COUNT>
1
> <PUBCHEM_CACTVS_TAUTO_COUNT>
-1
> <PUBCHEM_COORDINATE_TYPE>
1
5
255
> <PUBCHEM_BONDANNOTATIONS>
10  19  5
11  20  5
12  40  5
13  41  6
15  21  5
23  22  5
28  29  8
28  30  8
29  31  8
30  32  8
31  33  8
32  33  8
$$$$
