511129
  -OEChem-10302200282D
 80 83  0     1  0  0  0  0  0999 V2000
    5.3479    3.3354    0.0000 O   0  0  0  0  0  0  0  0  0  0  0  0
   10.1266    4.2294    0.0000 O   0  0  0  0  0  0  0  0  0  0  0  0
    7.3479   -0.1287    0.0000 O   0  0  0  0  0  0  0  0  0  0  0  0
    5.3479    1.6033    0.0000 O   0  0  0  0  0  0  0  0  0  0  0  0
    6.8479   -0.9948    0.0000 O   0  0  0  0  0  0  0  0  0  0  0  0
    5.8479   -4.4589    0.0000 O   0  0  0  0  0  0  0  0  0  0  0  0
    2.8090   -4.0928    0.0000 O   0  0  0  0  0  0  0  0  0  0  0  0
   11.3867    2.9693    0.0000 N   0  0  0  0  0  0  0  0  0  0  0  0
    8.8479    0.7373    0.0000 N   0  0  0  0  0  0  0  0  0  0  0  0
    8.3479   -1.8608    0.0000 N   0  0  0  0  0  0  0  0  0  0  0  0
    5.8479   -2.7268    0.0000 N   0  0  0  0  0  0  0  0  0  0  0  0
    3.7601   -4.4018    0.0000 N   0  0  0  0  0  0  0  0  0  0  0  0
    9.8479    2.4693    0.0000 C   0  0  2  0  0  0  0  0  0  0  0  0
    8.8479    2.4693    0.0000 C   0  0  0  0  0  0  0  0  0  0  0  0
    4.3479    3.3354    0.0000 C   0  0  0  0  0  0  0  0  0  0  0  0
   10.4356    1.6603    0.0000 C   0  0  0  0  0  0  0  0  0  0  0  0
    3.9140    2.4344    0.0000 C   0  0  0  0  0  0  0  0  0  0  0  0
    3.9140    4.2363    0.0000 C   0  0  0  0  0  0  0  0  0  0  0  0
    2.9390    2.2119    0.0000 C   0  0  0  0  0  0  0  0  0  0  0  0
    2.9390    4.4589    0.0000 C   0  0  0  0  0  0  0  0  0  0  0  0
    2.1572    2.8354    0.0000 C   0  0  0  0  0  0  0  0  0  0  0  0
    2.1572    3.8354    0.0000 C   0  0  0  0  0  0  0  0  0  0  0  0
    8.3479    1.6033    0.0000 C   0  0  1  0  0  0  0  0  0  0  0  0
   11.3867    1.9693    0.0000 C   0  0  0  0  0  0  0  0  0  0  0  0
   10.4356    3.2784    0.0000 C   0  0  0  0  0  0  0  0  0  0  0  0
    7.3479    1.6033    0.0000 C   0  0  0  0  0  0  0  0  0  0  0  0
    6.8479    2.4693    0.0000 C   0  0  0  0  0  0  0  0  0  0  0  0
    8.3479   -0.1287    0.0000 C   0  0  0  0  0  0  0  0  0  0  0  0
    5.8479    2.4693    0.0000 C   0  0  0  0  0  0  0  0  0  0  0  0
    8.8479   -0.9948    0.0000 C   0  0  2  0  0  0  0  0  0  0  0  0
    9.8479   -0.9948    0.0000 C   0  0  0  0  0  0  0  0  0  0  0  0
    7.3479   -1.8608    0.0000 C   0  0  0  0  0  0  0  0  0  0  0  0
    8.8479   -2.7268    0.0000 C   0  0  0  0  0  0  0  0  0  0  0  0
    6.8479   -2.7268    0.0000 C   0  0  0  0  0  0  0  0  0  0  0  0
    8.3479   -3.5928    0.0000 C   0  0  0  0  0  0  0  0  0  0  0  0
   10.3479   -1.8608    0.0000 C   0  0  0  0  0  0  0  0  0  0  0  0
    7.3479   -3.5928    0.0000 C   0  0  0  0  0  0  0  0  0  0  0  0
   10.8479   -2.7268    0.0000 C   0  0  0  0  0  0  0  0  0  0  0  0
    5.3479   -3.5928    0.0000 C   0  0  0  0  0  0  0  0  0  0  0  0
    4.3479   -3.5928    0.0000 C   0  0  0  0  0  0  0  0  0  0  0  0
    3.7601   -2.7838    0.0000 C   0  0  0  0  0  0  0  0  0  0  0  0
    2.8090   -3.0928    0.0000 C   0  0  0  0  0  0  0  0  0  0  0  0
    2.0000   -2.5051    0.0000 C   0  0  0  0  0  0  0  0  0  0  0  0
    9.5664    1.9169    0.0000 H   0  0  0  0  0  0  0  0  0  0  0  0
    8.9555    3.0799    0.0000 H   0  0  0  0  0  0  0  0  0  0  0  0
    8.2652    2.6814    0.0000 H   0  0  0  0  0  0  0  0  0  0  0  0
    4.6777    2.8104    0.0000 H   0  0  0  0  0  0  0  0  0  0  0  0
    9.8987    1.3503    0.0000 H   0  0  0  0  0  0  0  0  0  0  0  0
   10.6878    1.0939    0.0000 H   0  0  0  0  0  0  0  0  0  0  0  0
    3.9140    1.8144    0.0000 H   0  0  0  0  0  0  0  0  0  0  0  0
    4.5184    2.2964    0.0000 H   0  0  0  0  0  0  0  0  0  0  0  0
    4.5184    4.3743    0.0000 H   0  0  0  0  0  0  0  0  0  0  0  0
    3.9140    4.8563    0.0000 H   0  0  0  0  0  0  0  0  0  0  0  0
    2.4543    1.8253    0.0000 H   0  0  0  0  0  0  0  0  0  0  0  0
    3.2081    1.6533    0.0000 H   0  0  0  0  0  0  0  0  0  0  0  0
    3.2081    5.0175    0.0000 H   0  0  0  0  0  0  0  0  0  0  0  0
    2.4543    4.8454    0.0000 H   0  0  0  0  0  0  0  0  0  0  0  0
    1.5528    2.9733    0.0000 H   0  0  0  0  0  0  0  0  0  0  0  0
    1.8882    2.2768    0.0000 H   0  0  0  0  0  0  0  0  0  0  0  0
    1.8882    4.3940    0.0000 H   0  0  0  0  0  0  0  0  0  0  0  0
    1.5528    3.6974    0.0000 H   0  0  0  0  0  0  0  0  0  0  0  0
    8.0379    1.0664    0.0000 H   0  0  0  0  0  0  0  0  0  0  0  0
   11.5156    1.3629    0.0000 H   0  0  0  0  0  0  0  0  0  0  0  0
   12.0033    2.0342    0.0000 H   0  0  0  0  0  0  0  0  0  0  0  0
   11.8883    3.3338    0.0000 H   0  0  0  0  0  0  0  0  0  0  0  0
    9.4679    0.7373    0.0000 H   0  0  0  0  0  0  0  0  0  0  0  0
    7.0379    1.0664    0.0000 H   0  0  0  0  0  0  0  0  0  0  0  0
    7.1579    3.0063    0.0000 H   0  0  0  0  0  0  0  0  0  0  0  0
    8.2279   -0.9948    0.0000 H   0  0  0  0  0  0  0  0  0  0  0  0
   10.4305   -0.7827    0.0000 H   0  0  0  0  0  0  0  0  0  0  0  0
    9.7402   -0.3842    0.0000 H   0  0  0  0  0  0  0  0  0  0  0  0
    9.4679   -2.7268    0.0000 H   0  0  0  0  0  0  0  0  0  0  0  0
    8.6579   -4.1298    0.0000 H   0  0  0  0  0  0  0  0  0  0  0  0
    7.0379   -4.1298    0.0000 H   0  0  0  0  0  0  0  0  0  0  0  0
    5.5379   -2.1899    0.0000 H   0  0  0  0  0  0  0  0  0  0  0  0
   11.1579   -3.2637    0.0000 H   0  0  0  0  0  0  0  0  0  0  0  0
    3.9517   -2.1942    0.0000 H   0  0  0  0  0  0  0  0  0  0  0  0
    2.3644   -2.0035    0.0000 H   0  0  0  0  0  0  0  0  0  0  0  0
    1.4984   -2.1406    0.0000 H   0  0  0  0  0  0  0  0  0  0  0  0
    1.6356   -3.0066    0.0000 H   0  0  0  0  0  0  0  0  0  0  0  0
  1 15  1  0  0  0  0
  1 29  1  0  0  0  0
  2 25  2  0  0  0  0
  3 28  2  0  0  0  0
  4 29  2  0  0  0  0
  5 32  2  0  0  0  0
  6 39  2  0  0  0  0
  7 12  1  0  0  0  0
  7 42  1  0  0  0  0
  8 24  1  0  0  0  0
  8 25  1  0  0  0  0
  8 65  1  0  0  0  0
 23  9  1  6  0  0  0
  9 28  1  0  0  0  0
  9 66  1  0  0  0  0
 10 30  1  0  0  0  0
 10 32  1  0  0  0  0
 10 33  1  0  0  0  0
 11 34  1  0  0  0  0
 11 39  1  0  0  0  0
 11 75  1  0  0  0  0
 12 40  2  0  0  0  0
 13 14  1  1  0  0  0
 13 16  1  0  0  0  0
 13 25  1  0  0  0  0
 13 44  1  0  0  0  0
 14 23  1  0  0  0  0
 14 45  1  0  0  0  0
 14 46  1  0  0  0  0
 15 17  1  0  0  0  0
 15 18  1  0  0  0  0
 15 47  1  0  0  0  0
 16 24  1  0  0  0  0
 16 48  1  0  0  0  0
 16 49  1  0  0  0  0
 17 19  1  0  0  0  0
 17 50  1  0  0  0  0
 17 51  1  0  0  0  0
 18 20  1  0  0  0  0
 18 52  1  0  0  0  0
 18 53  1  0  0  0  0
 19 21  1  0  0  0  0
 19 54  1  0  0  0  0
 19 55  1  0  0  0  0
 20 22  1  0  0  0  0
 20 56  1  0  0  0  0
 20 57  1  0  0  0  0
 21 22  1  0  0  0  0
 21 58  1  0  0  0  0
 21 59  1  0  0  0  0
 22 60  1  0  0  0  0
 22 61  1  0  0  0  0
 23 26  1  0  0  0  0
 23 62  1  0  0  0  0
 24 63  1  0  0  0  0
 24 64  1  0  0  0  0
 26 27  2  3  0  0  0
 26 67  1  0  0  0  0
 27 29  1  0  0  0  0
 27 68  1  0  0  0  0
 30 28  1  6  0  0  0
 30 31  1  0  0  0  0
 30 69  1  0  0  0  0
 31 36  1  0  0  0  0
 31 70  1  0  0  0  0
 31 71  1  0  0  0  0
 32 34  1  0  0  0  0
 33 35  2  0  0  0  0
 33 72  1  0  0  0  0
 34 37  2  0  0  0  0
 35 37  1  0  0  0  0
 35 73  1  0  0  0  0
 36 38  3  0  0  0  0
 37 74  1  0  0  0  0
 38 76  1  0  0  0  0
 39 40  1  0  0  0  0
 40 41  1  0  0  0  0
 41 42  2  0  0  0  0
 41 77  1  0  0  0  0
 42 43  1  0  0  0  0
 43 78  1  0  0  0  0
 43 79  1  0  0  0  0
 43 80  1  0  0  0  0
M  END
> <PUBCHEM_COMPOUND_CID>
511129
> <PUBCHEM_COMPOUND_CANONICALIZED>
1
> <PUBCHEM_CACTVS_COMPLEXITY>
1210
> <PUBCHEM_CACTVS_HBOND_ACCEPTOR>
8
> <PUBCHEM_CACTVS_HBOND_DONOR>
3
> <PUBCHEM_CACTVS_ROTATABLE_BOND>
12
> <PUBCHEM_CACTVS_SUBSKEYS>
AAADcfB7uAAAAAAAAAAAAAAAAAAAAWLAAAAgAAAABgAAAAABgAAAHgAUAAAADTzhlgYyjJPQBADpGaX2WgiAAAAmIgAoGKG+bFoIZhoApbMWEYhmlhiI6cO/wCAOAAAAAAAAAAAAAAAAAAAAAAAAAAAAAA==
> <PUBCHEM_IUPAC_OPENEYE_NAME>
cycloheptyl (4S)-4-[[(2S)-2-[3-[(5-methylisoxazole-3-carbonyl)amino]-2-oxo-1-pyridyl]pent-4-ynoyl]amino]-5-[(3S)-2-oxopyrrolidin-3-yl]pent-2-enoate
> <PUBCHEM_IUPAC_CAS_NAME>
(4S)-4-[[(2S)-2-[3-[[(5-methyl-3-isoxazolyl)-oxomethyl]amino]-2-oxo-1-pyridinyl]-1-oxopent-4-ynyl]amino]-5-[(3S)-2-oxo-3-pyrrolidinyl]-2-pentenoic acid cycloheptyl ester
> <PUBCHEM_IUPAC_NAME_MARKUP>
cycloheptyl (4<I>S</I>)-4-[[(2<I>S</I>)-2-[3-[(5-methyl-1,2-oxazole-3-carbonyl)amino]-2-oxopyridin-1-yl]pent-4-ynoyl]amino]-5-[(3<I>S</I>)-2-oxopyrrolidin-3-yl]pent-2-enoate
> <PUBCHEM_IUPAC_NAME>
cycloheptyl (4S)-4-[[(2S)-2-[3-[(5-methyl-1,2-oxazole-3-carbonyl)amino]-2-oxopyridin-1-yl]pent-4-ynoyl]amino]-5-[(3S)-2-oxopyrrolidin-3-yl]pent-2-enoate
> <PUBCHEM_IUPAC_SYSTEMATIC_NAME>
cycloheptyl (4S)-4-[[(2S)-2-[3-[(5-methyl-1,2-oxazol-3-yl)carbonylamino]-2-oxidanylidene-pyridin-1-yl]pent-4-ynoyl]amino]-5-[(3S)-2-oxidanylidenepyrrolidin-3-yl]pent-2-enoate
> <PUBCHEM_IUPAC_TRADITIONAL_NAME>
(4S)-4-[[(2S)-2-[2-keto-3-[(5-methylisoxazole-3-carbonyl)amino]-1-pyridyl]pent-4-ynoyl]amino]-5-[(3S)-2-ketopyrrolidin-3-yl]pent-2-enoic acid cycloheptyl ester
> <PUBCHEM_IUPAC_INCHI>
InChI=1S/C31H37N5O7/c1-3-9-26(36-17-8-12-24(31(36)41)34-29(39)25-18-20(2)43-35-25)30(40)33-22(19-21-15-16-32-28(21)38)13-14-27(37)42-23-10-6-4-5-7-11-23/h1,8,12-14,17-18,21-23,26H,4-7,9-11,15-16,19H2,2H3,(H,32,38)(H,33,40)(H,34,39)/t21-,22+,26-/m0/s1
> <PUBCHEM_IUPAC_INCHIKEY>
RYQLEVMCVMDVMJ-VRUMLPLGSA-N
> <PUBCHEM_XLOGP3_AA>
2.9
> <PUBCHEM_EXACT_MASS>
591.26929854
> <PUBCHEM_MOLECULAR_FORMULA>
C31H37N5O7
> <PUBCHEM_MOLECULAR_WEIGHT>
591.7
> <PUBCHEM_OPENEYE_CAN_SMILES>
CC1=CC(=NO1)C(=O)NC2=CC=CN(C2=O)C(CC#C)C(=O)NC(CC3CCNC3=O)C=CC(=O)OC4CCCCCC4
> <PUBCHEM_OPENEYE_ISO_SMILES>
CC1=CC(=NO1)C(=O)NC2=CC=CN(C2=O)[C@@H](CC#C)C(=O)N[C@@H](C[C@@H]3CCNC3=O)C=CC(=O)OC4CCCCCC4
> <PUBCHEM_CACTVS_TPSA>
160
> <PUBCHEM_MONOISOTOPIC_WEIGHT>
591.26929854
> <PUBCHEM_TOTAL_CHARGE>
0
> <PUBCHEM_HEAVY_ATOM_COUNT>
43
> <PUBCHEM_ATOM_DEF_STEREO_COUNT>
3
> <PUBCHEM_ATOM_UDEF_STEREO_COUNT>
0
> <PUBCHEM_BOND_DEF_STEREO_COUNT>
0
> <PUBCHEM_BOND_UDEF_STEREO_COUNT>
1
> <PUBCHEM_ISOTOPIC_ATOM_COUNT>
0
> <PUBCHEM_COMPONENT_COUNT>
1
> <PUBCHEM_CACTVS_TAUTO_COUNT>
-1
> <PUBCHEM_COORDINATE_TYPE>
1
5
255
> <PUBCHEM_BONDANNOTATIONS>
10  32  8
10  33  8
12  40  8
13  14  5
26  27  1
30  28  6
32  34  8
33  35  8
34  37  8
35  37  8
40  41  8
41  42  8
7  12  8
7  42  8
23  9  6
$$$$
