511155
  -OEChem-10302200282D
 86 88  0     1  0  0  0  0  0999 V2000
    4.8025    2.1296    0.0000 O   0  0  0  0  0  0  0  0  0  0  0  0
    7.1580   -1.4863    0.0000 O   0  0  0  0  0  0  0  0  0  0  0  0
    5.9136   -2.0404    0.0000 O   0  0  0  0  0  0  0  0  0  0  0  0
    9.7560    1.0137    0.0000 O   0  0  0  0  0  0  0  0  0  0  0  0
    4.5467   -4.3057    0.0000 O   0  0  0  0  0  0  0  0  0  0  0  0
    2.8525   -3.9456    0.0000 O   0  0  0  0  0  0  0  0  0  0  0  0
   12.3541   -1.4863    0.0000 O   0  0  0  0  0  0  0  0  0  0  0  0
    6.2919    0.0137    0.0000 N   0  0  0  0  0  0  0  0  0  0  0  0
    8.8900   -0.4863    0.0000 N   0  0  0  0  0  0  0  0  0  0  0  0
    4.2194   -1.6802    0.0000 N   0  0  0  0  0  0  0  0  0  0  0  0
   11.4881    0.0137    0.0000 N   0  0  0  0  0  0  0  0  0  0  0  0
   14.0862   -0.4863    0.0000 N   0  0  0  0  0  0  0  0  0  0  0  0
   14.0862    1.5137    0.0000 N   0  0  0  0  0  0  0  0  0  0  0  0
    5.3784   -0.3931    0.0000 C   0  0  1  0  0  0  0  0  0  0  0  0
    5.2092    1.2161    0.0000 C   0  0  2  0  0  0  0  0  0  0  0  0
    4.7092    0.3501    0.0000 C   0  0  0  0  0  0  0  0  0  0  0  0
    6.1874    1.0082    0.0000 C   0  0  0  0  0  0  0  0  0  0  0  0
    7.1580   -0.4863    0.0000 C   0  0  0  0  0  0  0  0  0  0  0  0
    8.0240    0.0137    0.0000 C   0  0  2  0  0  0  0  0  0  0  0  0
    5.1705   -1.3712    0.0000 C   0  0  0  0  0  0  0  0  0  0  0  0
    8.0240    1.0137    0.0000 C   0  0  0  0  0  0  0  0  0  0  0  0
    3.8080    2.2342    0.0000 C   0  0  0  0  0  0  0  0  0  0  0  0
    8.8900    1.5137    0.0000 C   0  0  0  0  0  0  0  0  0  0  0  0
    7.1580    1.5137    0.0000 C   0  0  0  0  0  0  0  0  0  0  0  0
    9.7560    0.0137    0.0000 C   0  0  0  0  0  0  0  0  0  0  0  0
   10.6221   -0.4863    0.0000 C   0  0  2  0  0  0  0  0  0  0  0  0
    4.0115   -2.6584    0.0000 C   0  0  1  0  0  0  0  0  0  0  0  0
   10.6221   -1.4863    0.0000 C   0  0  0  0  0  0  0  0  0  0  0  0
    3.4013    3.1477    0.0000 C   0  0  0  0  0  0  0  0  0  0  0  0
    4.7546   -3.3275    0.0000 C   0  0  0  0  0  0  0  0  0  0  0  0
    9.7560   -1.9863    0.0000 C   0  0  0  0  0  0  0  0  0  0  0  0
   11.4881   -1.9863    0.0000 C   0  0  0  0  0  0  0  0  0  0  0  0
    3.0604   -2.9674    0.0000 C   0  0  0  0  0  0  0  0  0  0  0  0
    3.9890    3.9567    0.0000 C   0  0  0  0  0  0  0  0  0  0  0  0
    2.4067    3.2522    0.0000 C   0  0  0  0  0  0  0  0  0  0  0  0
   12.3541   -0.4863    0.0000 C   0  0  0  0  0  0  0  0  0  0  0  0
    3.5823    4.8703    0.0000 C   0  0  0  0  0  0  0  0  0  0  0  0
    2.0000    4.1658    0.0000 C   0  0  0  0  0  0  0  0  0  0  0  0
    2.5878    4.9748    0.0000 C   0  0  0  0  0  0  0  0  0  0  0  0
   13.2201    0.0137    0.0000 C   0  0  0  0  0  0  0  0  0  0  0  0
    5.2899   -4.9748    0.0000 C   0  0  0  0  0  0  0  0  0  0  0  0
   13.2201    1.0137    0.0000 C   0  0  0  0  0  0  0  0  0  0  0  0
   14.9522    0.0137    0.0000 C   0  0  0  0  0  0  0  0  0  0  0  0
   14.9522    1.0137    0.0000 C   0  0  0  0  0  0  0  0  0  0  0  0
    5.8602   -0.7833    0.0000 H   0  0  0  0  0  0  0  0  0  0  0  0
    5.5994    1.6979    0.0000 H   0  0  0  0  0  0  0  0  0  0  0  0
    4.2077    0.7145    0.0000 H   0  0  0  0  0  0  0  0  0  0  0  0
    4.2944   -0.1107    0.0000 H   0  0  0  0  0  0  0  0  0  0  0  0
    6.8074    1.0082    0.0000 H   0  0  0  0  0  0  0  0  0  0  0  0
    6.2522    1.6248    0.0000 H   0  0  0  0  0  0  0  0  0  0  0  0
    8.0240   -0.6063    0.0000 H   0  0  0  0  0  0  0  0  0  0  0  0
    7.4870    0.7037    0.0000 H   0  0  0  0  0  0  0  0  0  0  0  0
    8.8900   -1.1063    0.0000 H   0  0  0  0  0  0  0  0  0  0  0  0
    3.7587   -1.2654    0.0000 H   0  0  0  0  0  0  0  0  0  0  0  0
    3.2064    2.0842    0.0000 H   0  0  0  0  0  0  0  0  0  0  0  0
    3.8512    1.6157    0.0000 H   0  0  0  0  0  0  0  0  0  0  0  0
    9.2000    0.9767    0.0000 H   0  0  0  0  0  0  0  0  0  0  0  0
    9.4269    1.8237    0.0000 H   0  0  0  0  0  0  0  0  0  0  0  0
    8.5800    2.0506    0.0000 H   0  0  0  0  0  0  0  0  0  0  0  0
    7.4680    2.0506    0.0000 H   0  0  0  0  0  0  0  0  0  0  0  0
    6.6210    1.8237    0.0000 H   0  0  0  0  0  0  0  0  0  0  0  0
    6.8480    0.9767    0.0000 H   0  0  0  0  0  0  0  0  0  0  0  0
   10.6221    0.1337    0.0000 H   0  0  0  0  0  0  0  0  0  0  0  0
    4.6012   -2.4668    0.0000 H   0  0  0  0  0  0  0  0  0  0  0  0
   11.1590   -1.1763    0.0000 H   0  0  0  0  0  0  0  0  0  0  0  0
    5.3295   -3.5598    0.0000 H   0  0  0  0  0  0  0  0  0  0  0  0
    5.0832   -2.8017    0.0000 H   0  0  0  0  0  0  0  0  0  0  0  0
   11.4881    0.6337    0.0000 H   0  0  0  0  0  0  0  0  0  0  0  0
    9.4460   -1.4494    0.0000 H   0  0  0  0  0  0  0  0  0  0  0  0
    9.2191   -2.2963    0.0000 H   0  0  0  0  0  0  0  0  0  0  0  0
   10.0660   -2.5233    0.0000 H   0  0  0  0  0  0  0  0  0  0  0  0
   11.1781   -2.5233    0.0000 H   0  0  0  0  0  0  0  0  0  0  0  0
   12.0250   -2.2963    0.0000 H   0  0  0  0  0  0  0  0  0  0  0  0
   11.7981   -1.4494    0.0000 H   0  0  0  0  0  0  0  0  0  0  0  0
    2.5997   -2.5526    0.0000 H   0  0  0  0  0  0  0  0  0  0  0  0
    4.6056    3.8919    0.0000 H   0  0  0  0  0  0  0  0  0  0  0  0
    2.0423    2.7506    0.0000 H   0  0  0  0  0  0  0  0  0  0  0  0
    3.9467    5.3719    0.0000 H   0  0  0  0  0  0  0  0  0  0  0  0
    1.3834    4.2306    0.0000 H   0  0  0  0  0  0  0  0  0  0  0  0
    2.3356    5.5412    0.0000 H   0  0  0  0  0  0  0  0  0  0  0  0
    4.8750   -5.4356    0.0000 H   0  0  0  0  0  0  0  0  0  0  0  0
    5.7506   -5.3897    0.0000 H   0  0  0  0  0  0  0  0  0  0  0  0
    5.7047   -4.5140    0.0000 H   0  0  0  0  0  0  0  0  0  0  0  0
   12.6832    1.3237    0.0000 H   0  0  0  0  0  0  0  0  0  0  0  0
   15.4891   -0.2963    0.0000 H   0  0  0  0  0  0  0  0  0  0  0  0
   15.4891    1.3237    0.0000 H   0  0  0  0  0  0  0  0  0  0  0  0
 15  1  1  1  0  0  0
  1 22  1  0  0  0  0
  2 18  2  0  0  0  0
  3 20  2  0  0  0  0
  4 25  2  0  0  0  0
  5 30  1  0  0  0  0
  5 41  1  0  0  0  0
  6 33  2  0  0  0  0
  7 36  2  0  0  0  0
  8 14  1  0  0  0  0
  8 17  1  0  0  0  0
  8 18  1  0  0  0  0
 19  9  1  6  0  0  0
  9 25  1  0  0  0  0
  9 53  1  0  0  0  0
 10 20  1  0  0  0  0
 27 10  1  1  0  0  0
 10 54  1  0  0  0  0
 26 11  1  1  0  0  0
 11 36  1  0  0  0  0
 11 68  1  0  0  0  0
 12 40  2  0  0  0  0
 12 43  1  0  0  0  0
 13 42  2  0  0  0  0
 13 44  1  0  0  0  0
 14 16  1  0  0  0  0
 14 20  1  6  0  0  0
 14 45  1  0  0  0  0
 15 16  1  0  0  0  0
 15 17  1  0  0  0  0
 15 46  1  0  0  0  0
 16 47  1  0  0  0  0
 16 48  1  0  0  0  0
 17 49  1  0  0  0  0
 17 50  1  0  0  0  0
 18 19  1  0  0  0  0
 19 21  1  0  0  0  0
 19 51  1  0  0  0  0
 21 23  1  0  0  0  0
 21 24  1  0  0  0  0
 21 52  1  0  0  0  0
 22 29  1  0  0  0  0
 22 55  1  0  0  0  0
 22 56  1  0  0  0  0
 23 57  1  0  0  0  0
 23 58  1  0  0  0  0
 23 59  1  0  0  0  0
 24 60  1  0  0  0  0
 24 61  1  0  0  0  0
 24 62  1  0  0  0  0
 25 26  1  0  0  0  0
 26 28  1  0  0  0  0
 26 63  1  0  0  0  0
 27 30  1  0  0  0  0
 27 33  1  0  0  0  0
 27 64  1  0  0  0  0
 28 31  1  0  0  0  0
 28 32  1  0  0  0  0
 28 65  1  0  0  0  0
 29 34  2  0  0  0  0
 29 35  1  0  0  0  0
 30 66  1  0  0  0  0
 30 67  1  0  0  0  0
 31 69  1  0  0  0  0
 31 70  1  0  0  0  0
 31 71  1  0  0  0  0
 32 72  1  0  0  0  0
 32 73  1  0  0  0  0
 32 74  1  0  0  0  0
 33 75  1  0  0  0  0
 34 37  1  0  0  0  0
 34 76  1  0  0  0  0
 35 38  2  0  0  0  0
 35 77  1  0  0  0  0
 36 40  1  0  0  0  0
 37 39  2  0  0  0  0
 37 78  1  0  0  0  0
 38 39  1  0  0  0  0
 38 79  1  0  0  0  0
 39 80  1  0  0  0  0
 40 42  1  0  0  0  0
 41 81  1  0  0  0  0
 41 82  1  0  0  0  0
 41 83  1  0  0  0  0
 42 84  1  0  0  0  0
 43 44  2  0  0  0  0
 43 85  1  0  0  0  0
 44 86  1  0  0  0  0
M  END
> <PUBCHEM_COMPOUND_CID>
511155
> <PUBCHEM_COMPOUND_CANONICALIZED>
1
> <PUBCHEM_CACTVS_COMPLEXITY>
973
> <PUBCHEM_CACTVS_HBOND_ACCEPTOR>
9
> <PUBCHEM_CACTVS_HBOND_DONOR>
3
> <PUBCHEM_CACTVS_ROTATABLE_BOND>
15
> <PUBCHEM_CACTVS_SUBSKEYS>
AAADcfB7uAAAAAAAAAAAAAAAAAAAAWAAAAA8QAAAAAAAAAABwAAAHgAQAAAADTzhngY+gJPIFACoAz131ACCgCQ3EiAI2IG4fMgKZn7A8TiXMIgm9gHYqMe6wSAOAAAAAAAAAAAAAAAAAAAAAAAAAAAAAA==
> <PUBCHEM_IUPAC_OPENEYE_NAME>
N-[(1S)-1-[[(1S)-1-[(2S,4R)-4-benzyloxy-2-[[(1S)-1-formyl-2-methoxy-ethyl]carbamoyl]pyrrolidine-1-carbonyl]-2-methyl-propyl]carbamoyl]-2-methyl-propyl]pyrazine-2-carboxamide
> <PUBCHEM_IUPAC_CAS_NAME>
N-[(2S)-1-[[(2S)-1-[(2S,4R)-2-[[[(2S)-1-methoxy-3-oxopropan-2-yl]amino]-oxomethyl]-4-phenylmethoxy-1-pyrrolidinyl]-3-methyl-1-oxobutan-2-yl]amino]-3-methyl-1-oxobutan-2-yl]-2-pyrazinecarboxamide
> <PUBCHEM_IUPAC_NAME_MARKUP>
<I>N</I>-[(2<I>S</I>)-1-[[(2<I>S</I>)-1-[(2<I>S</I>,4<I>R</I>)-2-[[(2<I>S</I>)-1-methoxy-3-oxopropan-2-yl]carbamoyl]-4-phenylmethoxypyrrolidin-1-yl]-3-methyl-1-oxobutan-2-yl]amino]-3-methyl-1-oxobutan-2-yl]pyrazine-2-carboxamide
> <PUBCHEM_IUPAC_NAME>
N-[(2S)-1-[[(2S)-1-[(2S,4R)-2-[[(2S)-1-methoxy-3-oxopropan-2-yl]carbamoyl]-4-phenylmethoxypyrrolidin-1-yl]-3-methyl-1-oxobutan-2-yl]amino]-3-methyl-1-oxobutan-2-yl]pyrazine-2-carboxamide
> <PUBCHEM_IUPAC_SYSTEMATIC_NAME>
N-[(2S)-1-[[(2S)-1-[(2S,4R)-2-[[(2S)-1-methoxy-3-oxidanylidene-propan-2-yl]carbamoyl]-4-phenylmethoxy-pyrrolidin-1-yl]-3-methyl-1-oxidanylidene-butan-2-yl]amino]-3-methyl-1-oxidanylidene-butan-2-yl]pyrazine-2-carboxamide
> <PUBCHEM_IUPAC_TRADITIONAL_NAME>
N-[(1S)-1-[[(1S)-1-[(2S,4R)-4-benzoxy-2-[[(1S)-1-formyl-2-methoxy-ethyl]carbamoyl]pyrrolidine-1-carbonyl]-2-methyl-propyl]carbamoyl]-2-methyl-propyl]pyrazinamide
> <PUBCHEM_IUPAC_INCHI>
InChI=1S/C31H42N6O7/c1-19(2)26(35-28(39)24-14-32-11-12-33-24)30(41)36-27(20(3)4)31(42)37-15-23(44-17-21-9-7-6-8-10-21)13-25(37)29(40)34-22(16-38)18-43-5/h6-12,14,16,19-20,22-23,25-27H,13,15,17-18H2,1-5H3,(H,34,40)(H,35,39)(H,36,41)/t22-,23-,25+,26+,27+/m1/s1
> <PUBCHEM_IUPAC_INCHIKEY>
VWLCUGRQLYHDIZ-PBWOLCSJSA-N
> <PUBCHEM_XLOGP3_AA>
1.3
> <PUBCHEM_EXACT_MASS>
610.31149770
> <PUBCHEM_MOLECULAR_FORMULA>
C31H42N6O7
> <PUBCHEM_MOLECULAR_WEIGHT>
610.7
> <PUBCHEM_OPENEYE_CAN_SMILES>
CC(C)C(C(=O)NC(C(C)C)C(=O)N1CC(CC1C(=O)NC(COC)C=O)OCC2=CC=CC=C2)NC(=O)C3=NC=CN=C3
> <PUBCHEM_OPENEYE_ISO_SMILES>
CC(C)[C@@H](C(=O)N[C@@H](C(C)C)C(=O)N1C[C@@H](C[C@H]1C(=O)N[C@@H](COC)C=O)OCC2=CC=CC=C2)NC(=O)C3=NC=CN=C3
> <PUBCHEM_CACTVS_TPSA>
169
> <PUBCHEM_MONOISOTOPIC_WEIGHT>
610.31149770
> <PUBCHEM_TOTAL_CHARGE>
0
> <PUBCHEM_HEAVY_ATOM_COUNT>
44
> <PUBCHEM_ATOM_DEF_STEREO_COUNT>
5
> <PUBCHEM_ATOM_UDEF_STEREO_COUNT>
0
> <PUBCHEM_BOND_DEF_STEREO_COUNT>
0
> <PUBCHEM_BOND_UDEF_STEREO_COUNT>
0
> <PUBCHEM_ISOTOPIC_ATOM_COUNT>
0
> <PUBCHEM_COMPONENT_COUNT>
1
> <PUBCHEM_CACTVS_TAUTO_COUNT>
-1
> <PUBCHEM_COORDINATE_TYPE>
1
5
255
> <PUBCHEM_BONDANNOTATIONS>
15  1  5
27  10  5
26  11  5
12  40  8
12  43  8
13  42  8
13  44  8
14  20  6
29  34  8
29  35  8
34  37  8
35  38  8
37  39  8
38  39  8
40  42  8
43  44  8
19  9  6
$$$$
