511124
  -OEChem-10302200282D
 75 80  0     1  0  0  0  0  0999 V2000
    6.4103    1.5979    0.0000 S   0  0  0  0  0  0  0  0  0  0  0  0
    8.2727    2.5532    0.0000 O   0  0  0  0  0  0  0  0  0  0  0  0
   11.6165    0.3508    0.0000 O   0  0  0  0  0  0  0  0  0  0  0  0
   12.9709    0.2061    0.0000 O   0  0  0  0  0  0  0  0  0  0  0  0
    2.8660    1.7932    0.0000 O   0  0  0  0  0  0  0  0  0  0  0  0
   10.1150   -0.5126    0.0000 N   0  0  0  0  0  0  0  0  0  0  0  0
    7.9939    0.7932    0.0000 N   0  0  0  0  0  0  0  0  0  0  0  0
   12.6078   -1.4874    0.0000 N   0  0  0  0  0  0  0  0  0  0  0  0
    6.4103   -0.0116    0.0000 N   0  0  0  0  0  0  0  0  0  0  0  0
   14.2560   -0.9551    0.0000 N   0  0  0  0  0  0  0  0  0  0  0  0
    9.5328    0.2932    0.0000 C   0  0  1  0  0  0  0  0  0  0  0  0
    8.5817   -0.0159    0.0000 C   0  0  2  0  0  0  0  0  0  0  0  0
    9.5328    1.2932    0.0000 C   0  0  1  0  0  0  0  0  0  0  0  0
    8.5843   -1.0099    0.0000 C   0  0  0  0  0  0  0  0  0  0  0  0
    9.5300   -1.3163    0.0000 C   0  0  0  0  0  0  0  0  0  0  0  0
    8.5817    1.6022    0.0000 C   0  0  0  0  0  0  0  0  0  0  0  0
   11.1150   -0.5143    0.0000 C   0  0  0  0  0  0  0  0  0  0  0  0
   11.6135   -1.3812    0.0000 C   0  0  2  0  0  0  0  0  0  0  0  0
   10.3418    1.8809    0.0000 C   0  0  0  0  0  0  0  0  0  0  0  0
    6.9939    0.7932    0.0000 C   0  0  0  0  0  0  0  0  0  0  0  0
   11.2052   -2.2940    0.0000 C   0  0  0  0  0  0  0  0  0  0  0  0
   11.9472   -2.9645    0.0000 C   0  0  0  0  0  0  0  0  0  0  0  0
   12.8140   -2.4660    0.0000 C   0  0  0  0  0  0  0  0  0  0  0  0
   13.2782   -0.7455    0.0000 C   0  0  0  0  0  0  0  0  0  0  0  0
    5.4641    1.2932    0.0000 C   0  0  0  0  0  0  0  0  0  0  0  0
    5.4641    0.2932    0.0000 C   0  0  0  0  0  0  0  0  0  0  0  0
    4.5981    1.7932    0.0000 C   0  0  0  0  0  0  0  0  0  0  0  0
    4.5981   -0.2068    0.0000 C   0  0  0  0  0  0  0  0  0  0  0  0
   14.9264   -0.2131    0.0000 C   0  0  0  0  0  0  0  0  0  0  0  0
    3.7320    1.2932    0.0000 C   0  0  0  0  0  0  0  0  0  0  0  0
    3.7320    0.2932    0.0000 C   0  0  0  0  0  0  0  0  0  0  0  0
   15.9042   -0.4227    0.0000 C   0  0  0  0  0  0  0  0  0  0  0  0
   14.6191    0.7385    0.0000 C   0  0  0  0  0  0  0  0  0  0  0  0
   16.2673    1.2709    0.0000 C   0  0  0  0  0  0  0  0  0  0  0  0
   16.5746    0.3193    0.0000 C   0  0  0  0  0  0  0  0  0  0  0  0
   15.2895    1.4805    0.0000 C   0  0  0  0  0  0  0  0  0  0  0  0
   16.9377    2.0129    0.0000 C   0  0  0  0  0  0  0  0  0  0  0  0
    2.0000    1.2932    0.0000 C   0  0  0  0  0  0  0  0  0  0  0  0
   17.9155    1.8033    0.0000 C   0  0  0  0  0  0  0  0  0  0  0  0
   16.6303    2.9645    0.0000 C   0  0  0  0  0  0  0  0  0  0  0  0
   10.3415    0.5548    0.0000 H   0  0  0  0  0  0  0  0  0  0  0  0
    7.7737   -0.2796    0.0000 H   0  0  0  0  0  0  0  0  0  0  0  0
    9.4358    1.9055    0.0000 H   0  0  0  0  0  0  0  0  0  0  0  0
    7.9676   -0.9464    0.0000 H   0  0  0  0  0  0  0  0  0  0  0  0
    8.4563   -1.6166    0.0000 H   0  0  0  0  0  0  0  0  0  0  0  0
    9.2780   -1.8828    0.0000 H   0  0  0  0  0  0  0  0  0  0  0  0
   10.0668   -1.6265    0.0000 H   0  0  0  0  0  0  0  0  0  0  0  0
   11.9521   -0.8618    0.0000 H   0  0  0  0  0  0  0  0  0  0  0  0
   10.7062    1.3794    0.0000 H   0  0  0  0  0  0  0  0  0  0  0  0
   10.8434    2.2454    0.0000 H   0  0  0  0  0  0  0  0  0  0  0  0
    9.9774    2.3825    0.0000 H   0  0  0  0  0  0  0  0  0  0  0  0
   10.6688   -1.9831    0.0000 H   0  0  0  0  0  0  0  0  0  0  0  0
   10.8399   -2.7950    0.0000 H   0  0  0  0  0  0  0  0  0  0  0  0
   11.4857   -3.3785    0.0000 H   0  0  0  0  0  0  0  0  0  0  0  0
   12.3107   -3.4667    0.0000 H   0  0  0  0  0  0  0  0  0  0  0  0
   13.0652   -3.0328    0.0000 H   0  0  0  0  0  0  0  0  0  0  0  0
   13.4040   -2.2754    0.0000 H   0  0  0  0  0  0  0  0  0  0  0  0
   14.4466   -1.5451    0.0000 H   0  0  0  0  0  0  0  0  0  0  0  0
    4.5981    2.4132    0.0000 H   0  0  0  0  0  0  0  0  0  0  0  0
    4.5981   -0.8268    0.0000 H   0  0  0  0  0  0  0  0  0  0  0  0
    3.1951   -0.0168    0.0000 H   0  0  0  0  0  0  0  0  0  0  0  0
   16.0948   -1.0127    0.0000 H   0  0  0  0  0  0  0  0  0  0  0  0
   14.0128    0.8685    0.0000 H   0  0  0  0  0  0  0  0  0  0  0  0
   17.1809    0.1893    0.0000 H   0  0  0  0  0  0  0  0  0  0  0  0
   15.0989    2.0705    0.0000 H   0  0  0  0  0  0  0  0  0  0  0  0
   17.1283    1.4229    0.0000 H   0  0  0  0  0  0  0  0  0  0  0  0
    1.6900    1.8301    0.0000 H   0  0  0  0  0  0  0  0  0  0  0  0
    1.4631    0.9832    0.0000 H   0  0  0  0  0  0  0  0  0  0  0  0
    2.3100    0.7562    0.0000 H   0  0  0  0  0  0  0  0  0  0  0  0
   17.7855    1.1970    0.0000 H   0  0  0  0  0  0  0  0  0  0  0  0
   18.5217    1.6733    0.0000 H   0  0  0  0  0  0  0  0  0  0  0  0
   18.0454    2.4095    0.0000 H   0  0  0  0  0  0  0  0  0  0  0  0
   17.2203    3.1550    0.0000 H   0  0  0  0  0  0  0  0  0  0  0  0
   16.4397    3.5544    0.0000 H   0  0  0  0  0  0  0  0  0  0  0  0
   16.0403    2.7739    0.0000 H   0  0  0  0  0  0  0  0  0  0  0  0
  1 20  1  0  0  0  0
  1 25  1  0  0  0  0
  2 16  2  0  0  0  0
  3 17  2  0  0  0  0
  4 24  2  0  0  0  0
  5 30  1  0  0  0  0
  5 38  1  0  0  0  0
  6 11  1  0  0  0  0
  6 15  1  0  0  0  0
  6 17  1  0  0  0  0
  7 12  1  0  0  0  0
  7 16  1  0  0  0  0
  7 20  1  0  0  0  0
  8 18  1  0  0  0  0
  8 23  1  0  0  0  0
  8 24  1  0  0  0  0
  9 20  2  0  0  0  0
  9 26  1  0  0  0  0
 10 24  1  0  0  0  0
 10 29  1  0  0  0  0
 10 58  1  0  0  0  0
 11 12  1  0  0  0  0
 11 13  1  0  0  0  0
 11 41  1  6  0  0  0
 12 14  1  0  0  0  0
 12 42  1  1  0  0  0
 13 16  1  0  0  0  0
 13 19  1  1  0  0  0
 13 43  1  0  0  0  0
 14 15  1  0  0  0  0
 14 44  1  0  0  0  0
 14 45  1  0  0  0  0
 15 46  1  0  0  0  0
 15 47  1  0  0  0  0
 18 17  1  1  0  0  0
 18 21  1  0  0  0  0
 18 48  1  0  0  0  0
 19 49  1  0  0  0  0
 19 50  1  0  0  0  0
 19 51  1  0  0  0  0
 21 22  1  0  0  0  0
 21 52  1  0  0  0  0
 21 53  1  0  0  0  0
 22 23  1  0  0  0  0
 22 54  1  0  0  0  0
 22 55  1  0  0  0  0
 23 56  1  0  0  0  0
 23 57  1  0  0  0  0
 25 26  2  0  0  0  0
 25 27  1  0  0  0  0
 26 28  1  0  0  0  0
 27 30  2  0  0  0  0
 27 59  1  0  0  0  0
 28 31  2  0  0  0  0
 28 60  1  0  0  0  0
 29 32  2  0  0  0  0
 29 33  1  0  0  0  0
 30 31  1  0  0  0  0
 31 61  1  0  0  0  0
 32 35  1  0  0  0  0
 32 62  1  0  0  0  0
 33 36  2  0  0  0  0
 33 63  1  0  0  0  0
 34 35  2  0  0  0  0
 34 36  1  0  0  0  0
 34 37  1  0  0  0  0
 35 64  1  0  0  0  0
 36 65  1  0  0  0  0
 37 39  1  0  0  0  0
 37 40  1  0  0  0  0
 37 66  1  0  0  0  0
 38 67  1  0  0  0  0
 38 68  1  0  0  0  0
 38 69  1  0  0  0  0
 39 70  1  0  0  0  0
 39 71  1  0  0  0  0
 39 72  1  0  0  0  0
 40 73  1  0  0  0  0
 40 74  1  0  0  0  0
 40 75  1  0  0  0  0
M  END
> <PUBCHEM_COMPOUND_CID>
511124
> <PUBCHEM_COMPOUND_CANONICALIZED>
1
> <PUBCHEM_CACTVS_COMPLEXITY>
974
> <PUBCHEM_CACTVS_HBOND_ACCEPTOR>
6
> <PUBCHEM_CACTVS_HBOND_DONOR>
1
> <PUBCHEM_CACTVS_ROTATABLE_BOND>
5
> <PUBCHEM_CACTVS_SUBSKEYS>
AAADcfB7uABAAAAAAAAAAAAAAAAAAWLFiwAwYAAAAAAWAFgB9AAAHgQQAAAADSzB3gYz17PIFAisAyVydACD+KlhKjhJmD2+bJiMZrrk+buUMChs1xPI6Ce8ycAOiEAABAAAAQAQgAAIAAACAAAAAAAAAA==
> <PUBCHEM_IUPAC_OPENEYE_NAME>
(2S)-2-[(3aS,6S,6aR)-4-(6-methoxy-1,3-benzothiazol-2-yl)-6-methyl-5-oxo-3,3a,6,6a-tetrahydro-2H-pyrrolo[3,2-b]pyrrole-1-carbonyl]-N-(4-isopropylphenyl)pyrrolidine-1-carboxamide
> <PUBCHEM_IUPAC_CAS_NAME>
(2S)-2-[[(3aS,6S,6aR)-4-(6-methoxy-1,3-benzothiazol-2-yl)-6-methyl-5-oxo-3,3a,6,6a-tetrahydro-2H-pyrrolo[3,2-b]pyrrol-1-yl]-oxomethyl]-N-(4-propan-2-ylphenyl)-1-pyrrolidinecarboxamide
> <PUBCHEM_IUPAC_NAME_MARKUP>
(2<I>S</I>)-2-[(3<I>a</I><I>S</I>,6<I>S</I>,6<I>a</I><I>R</I>)-4-(6-methoxy-1,3-benzothiazol-2-yl)-6-methyl-5-oxo-3,3<I>a</I>,6,6<I>a</I>-tetrahydro-2<I>H</I>-pyrrolo[3,2-b]pyrrole-1-carbonyl]-<I>N</I>-(4-propan-2-ylphenyl)pyrrolidine-1-carboxamide
> <PUBCHEM_IUPAC_NAME>
(2S)-2-[(3aS,6S,6aR)-4-(6-methoxy-1,3-benzothiazol-2-yl)-6-methyl-5-oxo-3,3a,6,6a-tetrahydro-2H-pyrrolo[3,2-b]pyrrole-1-carbonyl]-N-(4-propan-2-ylphenyl)pyrrolidine-1-carboxamide
> <PUBCHEM_IUPAC_SYSTEMATIC_NAME>
(2S)-2-[[(3aS,6S,6aR)-4-(6-methoxy-1,3-benzothiazol-2-yl)-6-methyl-5-oxidanylidene-3,3a,6,6a-tetrahydro-2H-pyrrolo[3,2-b]pyrrol-1-yl]carbonyl]-N-(4-propan-2-ylphenyl)pyrrolidine-1-carboxamide
> <PUBCHEM_IUPAC_TRADITIONAL_NAME>
(2S)-2-[(3aS,6S,6aR)-5-keto-4-(6-methoxy-1,3-benzothiazol-2-yl)-6-methyl-3,3a,6,6a-tetrahydro-2H-pyrrolo[3,2-b]pyrrole-1-carbonyl]-N-p-cumenyl-pyrrolidine-1-carboxamide
> <PUBCHEM_IUPAC_INCHI>
InChI=1S/C30H35N5O4S/c1-17(2)19-7-9-20(10-8-19)31-29(38)33-14-5-6-24(33)28(37)34-15-13-23-26(34)18(3)27(36)35(23)30-32-22-12-11-21(39-4)16-25(22)40-30/h7-12,16-18,23-24,26H,5-6,13-15H2,1-4H3,(H,31,38)/t18-,23-,24-,26+/m0/s1
> <PUBCHEM_IUPAC_INCHIKEY>
JOSHOVATLVOGOZ-ZMSGJQCASA-N
> <PUBCHEM_XLOGP3_AA>
4.6
> <PUBCHEM_EXACT_MASS>
561.24097579
> <PUBCHEM_MOLECULAR_FORMULA>
C30H35N5O4S
> <PUBCHEM_MOLECULAR_WEIGHT>
561.7
> <PUBCHEM_OPENEYE_CAN_SMILES>
CC1C2C(CCN2C(=O)C3CCCN3C(=O)NC4=CC=C(C=C4)C(C)C)N(C1=O)C5=NC6=C(S5)C=C(C=C6)OC
> <PUBCHEM_OPENEYE_ISO_SMILES>
C[C@H]1[C@@H]2[C@H](CCN2C(=O)[C@@H]3CCCN3C(=O)NC4=CC=C(C=C4)C(C)C)N(C1=O)C5=NC6=C(S5)C=C(C=C6)OC
> <PUBCHEM_CACTVS_TPSA>
123
> <PUBCHEM_MONOISOTOPIC_WEIGHT>
561.24097579
> <PUBCHEM_TOTAL_CHARGE>
0
> <PUBCHEM_HEAVY_ATOM_COUNT>
40
> <PUBCHEM_ATOM_DEF_STEREO_COUNT>
4
> <PUBCHEM_ATOM_UDEF_STEREO_COUNT>
0
> <PUBCHEM_BOND_DEF_STEREO_COUNT>
0
> <PUBCHEM_BOND_UDEF_STEREO_COUNT>
0
> <PUBCHEM_ISOTOPIC_ATOM_COUNT>
0
> <PUBCHEM_COMPONENT_COUNT>
1
> <PUBCHEM_CACTVS_TAUTO_COUNT>
-1
> <PUBCHEM_COORDINATE_TYPE>
1
5
255
> <PUBCHEM_BONDANNOTATIONS>
1  20  8
1  25  8
11  41  6
12  42  5
13  19  5
18  17  5
25  26  8
25  27  8
26  28  8
27  30  8
28  31  8
29  32  8
29  33  8
30  31  8
32  35  8
33  36  8
34  35  8
34  36  8
9  20  8
9  26  8
$$$$
