511244
  -OEChem-10302200282D
 62 63  0     1  0  0  0  0  0999 V2000
    7.7469   -2.0649    0.0000 P   0  0  3  0  0  0  0  0  0  0  0  0
    5.8858    0.3996    0.0000 O   0  0  0  0  0  0  0  0  0  0  0  0
    7.1591   -1.2559    0.0000 O   0  0  0  0  0  0  0  0  0  0  0  0
    8.3347   -2.8739    0.0000 O   0  0  0  0  0  0  0  0  0  0  0  0
    8.5559   -1.4772    0.0000 O   0  0  0  0  0  0  0  0  0  0  0  0
    6.8089    1.9874    0.0000 O   0  0  0  0  0  0  0  0  0  0  0  0
    6.9379   -2.6527    0.0000 O   0  0  0  0  0  0  0  0  0  0  0  0
    5.0768    4.9874    0.0000 O   0  0  0  0  0  0  0  0  0  0  0  0
    5.0768    1.9874    0.0000 N   0  0  0  0  0  0  0  0  0  0  0  0
    3.9890   -1.3604    0.0000 N   0  0  0  0  0  0  0  0  0  0  0  0
    5.9428    3.4874    0.0000 N   0  0  0  0  0  0  0  0  0  0  0  0
    2.9945   -1.2559    0.0000 N   0  3  0  0  0  0  0  0  0  0  0  0
    2.0000   -1.1514    0.0000 N   0  5  0  0  0  0  0  0  0  0  0  0
   11.0875   -0.7083    0.0000 N   0  0  0  0  0  0  0  0  0  0  0  0
    4.5768   -0.5514    0.0000 C   0  0  2  0  0  0  0  0  0  0  0  0
    5.5768   -0.5514    0.0000 C   0  0  1  0  0  0  0  0  0  0  0  0
    4.2678    0.3996    0.0000 C   0  0  0  0  0  0  0  0  0  0  0  0
    5.0768    0.9874    0.0000 C   0  0  1  0  0  0  0  0  0  0  0  0
    6.1646   -1.3604    0.0000 C   0  0  0  0  0  0  0  0  0  0  0  0
    4.2108    2.4874    0.0000 C   0  0  0  0  0  0  0  0  0  0  0  0
    5.9428    2.4874    0.0000 C   0  0  0  0  0  0  0  0  0  0  0  0
    4.2108    3.4874    0.0000 C   0  0  0  0  0  0  0  0  0  0  0  0
    5.0768    3.9874    0.0000 C   0  0  0  0  0  0  0  0  0  0  0  0
    9.9170   -3.5784    0.0000 C   0  0  0  0  0  0  0  0  0  0  0  0
    9.3292   -2.7694    0.0000 C   0  0  0  0  0  0  0  0  0  0  0  0
   10.9115   -3.4739    0.0000 C   0  0  0  0  0  0  0  0  0  0  0  0
    3.3448    3.9874    0.0000 C   0  0  0  0  0  0  0  0  0  0  0  0
   11.4993   -4.2829    0.0000 C   0  0  0  0  0  0  0  0  0  0  0  0
   12.4938   -4.1784    0.0000 C   0  0  0  0  0  0  0  0  0  0  0  0
    8.4514   -0.4826    0.0000 C   0  0  0  0  0  0  0  0  0  0  0  0
   13.0816   -4.9874    0.0000 C   0  0  0  0  0  0  0  0  0  0  0  0
    9.2604    0.1052    0.0000 C   0  0  0  0  0  0  0  0  0  0  0  0
   10.1740   -0.3016    0.0000 C   0  0  0  0  0  0  0  0  0  0  0  0
    3.9645   -0.4544    0.0000 H   0  0  0  0  0  0  0  0  0  0  0  0
    6.1892   -0.4544    0.0000 H   0  0  0  0  0  0  0  0  0  0  0  0
    3.9578    0.9366    0.0000 H   0  0  0  0  0  0  0  0  0  0  0  0
    3.7014    0.1475    0.0000 H   0  0  0  0  0  0  0  0  0  0  0  0
    4.5244    1.2689    0.0000 H   0  0  0  0  0  0  0  0  0  0  0  0
    5.6074   -1.6322    0.0000 H   0  0  0  0  0  0  0  0  0  0  0  0
    6.3355   -1.9564    0.0000 H   0  0  0  0  0  0  0  0  0  0  0  0
    3.6739    2.1774    0.0000 H   0  0  0  0  0  0  0  0  0  0  0  0
    6.4798    3.7974    0.0000 H   0  0  0  0  0  0  0  0  0  0  0  0
    9.3598   -3.8502    0.0000 H   0  0  0  0  0  0  0  0  0  0  0  0
   10.0879   -4.1744    0.0000 H   0  0  0  0  0  0  0  0  0  0  0  0
    9.8865   -2.4976    0.0000 H   0  0  0  0  0  0  0  0  0  0  0  0
    9.1583   -2.1734    0.0000 H   0  0  0  0  0  0  0  0  0  0  0  0
   11.4688   -3.2021    0.0000 H   0  0  0  0  0  0  0  0  0  0  0  0
   10.7406   -2.8779    0.0000 H   0  0  0  0  0  0  0  0  0  0  0  0
    3.6548    4.5244    0.0000 H   0  0  0  0  0  0  0  0  0  0  0  0
    2.8078    4.2974    0.0000 H   0  0  0  0  0  0  0  0  0  0  0  0
    3.0348    3.4505    0.0000 H   0  0  0  0  0  0  0  0  0  0  0  0
   10.9421   -4.5547    0.0000 H   0  0  0  0  0  0  0  0  0  0  0  0
   11.6702   -4.8789    0.0000 H   0  0  0  0  0  0  0  0  0  0  0  0
   13.0511   -3.9066    0.0000 H   0  0  0  0  0  0  0  0  0  0  0  0
   12.3229   -3.5824    0.0000 H   0  0  0  0  0  0  0  0  0  0  0  0
    8.1796    0.0746    0.0000 H   0  0  0  0  0  0  0  0  0  0  0  0
    7.8554   -0.6535    0.0000 H   0  0  0  0  0  0  0  0  0  0  0  0
   12.5800   -5.3518    0.0000 H   0  0  0  0  0  0  0  0  0  0  0  0
   13.4461   -5.4890    0.0000 H   0  0  0  0  0  0  0  0  0  0  0  0
   13.5832   -4.6230    0.0000 H   0  0  0  0  0  0  0  0  0  0  0  0
    9.6071    0.6192    0.0000 H   0  0  0  0  0  0  0  0  0  0  0  0
    8.8144    0.5358    0.0000 H   0  0  0  0  0  0  0  0  0  0  0  0
  1  3  1  0  0  0  0
  1  4  1  0  0  0  0
  1  5  1  0  0  0  0
  1  7  2  0  0  0  0
  2 16  1  0  0  0  0
  2 18  1  0  0  0  0
  3 19  1  0  0  0  0
  4 25  1  0  0  0  0
  5 30  1  0  0  0  0
  6 21  2  0  0  0  0
  8 23  2  0  0  0  0
 18  9  1  6  0  0  0
  9 20  1  0  0  0  0
  9 21  1  0  0  0  0
 10 12  2  0  0  0  0
 15 10  1  1  0  0  0
 11 21  1  0  0  0  0
 11 23  1  0  0  0  0
 11 42  1  0  0  0  0
 12 13  2  0  0  0  0
 14 33  3  0  0  0  0
 15 16  1  0  0  0  0
 15 17  1  0  0  0  0
 15 34  1  0  0  0  0
 16 19  1  6  0  0  0
 16 35  1  0  0  0  0
 17 18  1  0  0  0  0
 17 36  1  0  0  0  0
 17 37  1  0  0  0  0
 18 38  1  0  0  0  0
 19 39  1  0  0  0  0
 19 40  1  0  0  0  0
 20 22  2  0  0  0  0
 20 41  1  0  0  0  0
 22 23  1  0  0  0  0
 22 27  1  0  0  0  0
 24 25  1  0  0  0  0
 24 26  1  0  0  0  0
 24 43  1  0  0  0  0
 24 44  1  0  0  0  0
 25 45  1  0  0  0  0
 25 46  1  0  0  0  0
 26 28  1  0  0  0  0
 26 47  1  0  0  0  0
 26 48  1  0  0  0  0
 27 49  1  0  0  0  0
 27 50  1  0  0  0  0
 27 51  1  0  0  0  0
 28 29  1  0  0  0  0
 28 52  1  0  0  0  0
 28 53  1  0  0  0  0
 29 31  1  0  0  0  0
 29 54  1  0  0  0  0
 29 55  1  0  0  0  0
 30 32  1  0  0  0  0
 30 56  1  0  0  0  0
 30 57  1  0  0  0  0
 31 58  1  0  0  0  0
 31 59  1  0  0  0  0
 31 60  1  0  0  0  0
 32 33  1  0  0  0  0
 32 61  1  0  0  0  0
 32 62  1  0  0  0  0
M  CHG  2  12   1  13  -1
M  END
> <PUBCHEM_COMPOUND_CID>
511244
> <PUBCHEM_COMPOUND_CANONICALIZED>
1
> <PUBCHEM_CACTVS_COMPLEXITY>
881
> <PUBCHEM_CACTVS_HBOND_ACCEPTOR>
10
> <PUBCHEM_CACTVS_HBOND_DONOR>
1
> <PUBCHEM_CACTVS_ROTATABLE_BOND>
14
> <PUBCHEM_CACTVS_SUBSKEYS>
AAADceB7uAIAAAAAAAAAAAAAAAAAASAAAAAgAAAAAAAAAAAAAAAAHgAYACAADDzhgAYDAAPABRCaRgFWUICAAAAAAAAAAAEIAECDgAIAwQAPAAAOByICAMGwcAIAAAAAAAAAAAAAAAAAAAAAAAAAAAAAAA==
> <PUBCHEM_IUPAC_OPENEYE_NAME>
[(2S,3S,5R)-3-azido-5-(5-methyl-2,4-dioxo-pyrimidin-1-yl)tetrahydrofuran-2-yl]methyl 2-cyanoethyl hexyl phosphate
> <PUBCHEM_IUPAC_CAS_NAME>
phosphoric acid [(2S,3S,5R)-3-azido-5-(5-methyl-2,4-dioxo-1-pyrimidinyl)-2-oxolanyl]methyl 2-cyanoethyl hexyl ester
> <PUBCHEM_IUPAC_NAME_MARKUP>
[(2<I>S</I>,3<I>S</I>,5<I>R</I>)-3-azido-5-(5-methyl-2,4-dioxopyrimidin-1-yl)oxolan-2-yl]methyl 2-cyanoethyl hexyl phosphate
> <PUBCHEM_IUPAC_NAME>
[(2S,3S,5R)-3-azido-5-(5-methyl-2,4-dioxopyrimidin-1-yl)oxolan-2-yl]methyl 2-cyanoethyl hexyl phosphate
> <PUBCHEM_IUPAC_SYSTEMATIC_NAME>
[(2S,3S,5R)-3-azido-5-[5-methyl-2,4-bis(oxidanylidene)pyrimidin-1-yl]oxolan-2-yl]methyl 2-cyanoethyl hexyl phosphate
> <PUBCHEM_IUPAC_TRADITIONAL_NAME>
phosphoric acid [(2S,3S,5R)-3-azido-5-(2,4-diketo-5-methyl-pyrimidin-1-yl)tetrahydrofuran-2-yl]methyl 2-cyanoethyl hexyl ester
> <PUBCHEM_IUPAC_INCHI>
InChI=1S/C19H29N6O7P/c1-3-4-5-6-9-29-33(28,30-10-7-8-20)31-13-16-15(23-24-21)11-17(32-16)25-12-14(2)18(26)22-19(25)27/h12,15-17H,3-7,9-11,13H2,1-2H3,(H,22,26,27)/t15-,16+,17+,33?/m0/s1
> <PUBCHEM_IUPAC_INCHIKEY>
GFHRNRPDKSADDV-YZVQADEVSA-N
> <PUBCHEM_XLOGP3>
2.1
> <PUBCHEM_EXACT_MASS>
484.18353428
> <PUBCHEM_MOLECULAR_FORMULA>
C19H29N6O7P
> <PUBCHEM_MOLECULAR_WEIGHT>
484.4
> <PUBCHEM_OPENEYE_CAN_SMILES>
CCCCCCOP(=O)(OCCC#N)OCC1C(CC(O1)N2C=C(C(=O)NC2=O)C)N=[N+]=[N-]
> <PUBCHEM_OPENEYE_ISO_SMILES>
CCCCCCOP(=O)(OCCC#N)OC[C@@H]1[C@H](C[C@@H](O1)N2C=C(C(=O)NC2=O)C)N=[N+]=[N-]
> <PUBCHEM_CACTVS_TPSA>
142
> <PUBCHEM_MONOISOTOPIC_WEIGHT>
484.18353428
> <PUBCHEM_TOTAL_CHARGE>
0
> <PUBCHEM_HEAVY_ATOM_COUNT>
33
> <PUBCHEM_ATOM_DEF_STEREO_COUNT>
3
> <PUBCHEM_ATOM_UDEF_STEREO_COUNT>
1
> <PUBCHEM_BOND_DEF_STEREO_COUNT>
0
> <PUBCHEM_BOND_UDEF_STEREO_COUNT>
0
> <PUBCHEM_ISOTOPIC_ATOM_COUNT>
0
> <PUBCHEM_COMPONENT_COUNT>
1
> <PUBCHEM_CACTVS_TAUTO_COUNT>
-1
> <PUBCHEM_COORDINATE_TYPE>
1
5
255
> <PUBCHEM_BONDANNOTATIONS>
1  4  3
15  10  5
11  21  8
11  23  8
16  19  6
20  22  8
22  23  8
18  9  6
9  20  8
9  21  8
$$$$
