511221
  -OEChem-10302200282D
 53 55  0     1  0  0  0  0  0999 V2000
    5.0009   -1.3991    0.0000 P   0  0  3  0  0  0  0  0  0  0  0  0
    4.5411    2.0835    0.0000 O   0  0  0  0  0  0  0  0  0  0  0  0
    4.4131   -0.5901    0.0000 O   0  0  0  0  0  0  0  0  0  0  0  0
    4.1919   -1.9869    0.0000 O   0  0  0  0  0  0  0  0  0  0  0  0
    5.8099   -0.8113    0.0000 O   0  0  0  0  0  0  0  0  0  0  0  0
    5.4641    3.6713    0.0000 O   0  0  0  0  0  0  0  0  0  0  0  0
    3.7807   -4.1397    0.0000 O   0  0  0  0  0  0  0  0  0  0  0  0
    3.5996   -2.4172    0.0000 O   0  0  0  0  0  0  0  0  0  0  0  0
    3.7320    6.6713    0.0000 O   0  0  0  0  0  0  0  0  0  0  0  0
    3.7320    3.6713    0.0000 N   0  0  0  0  0  0  0  0  0  0  0  0
    5.5887   -2.2081    0.0000 N   0  0  0  0  0  0  0  0  0  0  0  0
    4.5981    5.1713    0.0000 N   0  0  0  0  0  0  0  0  0  0  0  0
    4.2320    1.1325    0.0000 C   0  0  2  0  0  0  0  0  0  0  0  0
    3.7320    2.6713    0.0000 C   0  0  1  0  0  0  0  0  0  0  0  0
    4.8198    0.3235    0.0000 C   0  0  0  0  0  0  0  0  0  0  0  0
    3.2320    1.1325    0.0000 C   0  0  0  0  0  0  0  0  0  0  0  0
    2.9230    2.0835    0.0000 C   0  0  0  0  0  0  0  0  0  0  0  0
    5.1819   -3.1217    0.0000 C   0  0  1  0  0  0  0  0  0  0  0  0
    5.7697   -3.9307    0.0000 C   0  0  0  0  0  0  0  0  0  0  0  0
    2.8660    4.1713    0.0000 C   0  0  0  0  0  0  0  0  0  0  0  0
    4.5981    4.1713    0.0000 C   0  0  0  0  0  0  0  0  0  0  0  0
    2.8660    5.1713    0.0000 C   0  0  0  0  0  0  0  0  0  0  0  0
    5.3630   -4.8442    0.0000 C   0  0  0  0  0  0  0  0  0  0  0  0
    4.1874   -3.2262    0.0000 C   0  0  0  0  0  0  0  0  0  0  0  0
    3.7320    5.6713    0.0000 C   0  0  0  0  0  0  0  0  0  0  0  0
    2.0000    5.6713    0.0000 C   0  0  0  0  0  0  0  0  0  0  0  0
    5.9508   -5.6532    0.0000 C   0  0  0  0  0  0  0  0  0  0  0  0
    4.3685   -4.9488    0.0000 C   0  0  0  0  0  0  0  0  0  0  0  0
    5.5440   -6.5668    0.0000 C   0  0  0  0  0  0  0  0  0  0  0  0
    3.9617   -5.8623    0.0000 C   0  0  0  0  0  0  0  0  0  0  0  0
    4.5495   -6.6713    0.0000 C   0  0  0  0  0  0  0  0  0  0  0  0
    4.8444    1.2295    0.0000 H   0  0  0  0  0  0  0  0  0  0  0  0
    4.2845    2.9528    0.0000 H   0  0  0  0  0  0  0  0  0  0  0  0
    5.3338   -0.0232    0.0000 H   0  0  0  0  0  0  0  0  0  0  0  0
    5.2505    0.7694    0.0000 H   0  0  0  0  0  0  0  0  0  0  0  0
    2.8676    0.6309    0.0000 H   0  0  0  0  0  0  0  0  0  0  0  0
    2.3334    2.2751    0.0000 H   0  0  0  0  0  0  0  0  0  0  0  0
    5.7985   -3.0569    0.0000 H   0  0  0  0  0  0  0  0  0  0  0  0
    6.2837   -4.2774    0.0000 H   0  0  0  0  0  0  0  0  0  0  0  0
    6.2004   -3.4847    0.0000 H   0  0  0  0  0  0  0  0  0  0  0  0
    6.2053   -2.1433    0.0000 H   0  0  0  0  0  0  0  0  0  0  0  0
    2.3291    3.8613    0.0000 H   0  0  0  0  0  0  0  0  0  0  0  0
    5.1350    5.4813    0.0000 H   0  0  0  0  0  0  0  0  0  0  0  0
    6.5674   -5.5884    0.0000 H   0  0  0  0  0  0  0  0  0  0  0  0
    4.0040   -4.4472    0.0000 H   0  0  0  0  0  0  0  0  0  0  0  0
    2.3100    6.2082    0.0000 H   0  0  0  0  0  0  0  0  0  0  0  0
    1.4631    5.9813    0.0000 H   0  0  0  0  0  0  0  0  0  0  0  0
    1.6900    5.1344    0.0000 H   0  0  0  0  0  0  0  0  0  0  0  0
    3.6255   -1.7347    0.0000 H   0  0  0  0  0  0  0  0  0  0  0  0
    5.9085   -7.0684    0.0000 H   0  0  0  0  0  0  0  0  0  0  0  0
    3.3451   -5.9271    0.0000 H   0  0  0  0  0  0  0  0  0  0  0  0
    4.2973   -7.2377    0.0000 H   0  0  0  0  0  0  0  0  0  0  0  0
    3.1641   -4.2046    0.0000 H   0  0  0  0  0  0  0  0  0  0  0  0
  1  3  1  0  0  0  0
  1  4  1  0  0  0  0
  1  5  2  0  0  0  0
  1 11  1  0  0  0  0
  2 13  1  0  0  0  0
  2 14  1  0  0  0  0
  3 15  1  0  0  0  0
  4 49  1  0  0  0  0
  6 21  2  0  0  0  0
  7 24  1  0  0  0  0
  7 53  1  0  0  0  0
  8 24  2  0  0  0  0
  9 25  2  0  0  0  0
 14 10  1  6  0  0  0
 10 20  1  0  0  0  0
 10 21  1  0  0  0  0
 18 11  1  1  0  0  0
 11 41  1  0  0  0  0
 12 21  1  0  0  0  0
 12 25  1  0  0  0  0
 12 43  1  0  0  0  0
 13 15  1  6  0  0  0
 13 16  1  0  0  0  0
 13 32  1  0  0  0  0
 14 17  1  0  0  0  0
 14 33  1  0  0  0  0
 15 34  1  0  0  0  0
 15 35  1  0  0  0  0
 16 17  2  0  0  0  0
 16 36  1  0  0  0  0
 17 37  1  0  0  0  0
 18 19  1  0  0  0  0
 18 24  1  0  0  0  0
 18 38  1  0  0  0  0
 19 23  1  0  0  0  0
 19 39  1  0  0  0  0
 19 40  1  0  0  0  0
 20 22  2  0  0  0  0
 20 42  1  0  0  0  0
 22 25  1  0  0  0  0
 22 26  1  0  0  0  0
 23 27  2  0  0  0  0
 23 28  1  0  0  0  0
 26 46  1  0  0  0  0
 26 47  1  0  0  0  0
 26 48  1  0  0  0  0
 27 29  1  0  0  0  0
 27 44  1  0  0  0  0
 28 30  2  0  0  0  0
 28 45  1  0  0  0  0
 29 31  2  0  0  0  0
 29 50  1  0  0  0  0
 30 31  1  0  0  0  0
 30 51  1  0  0  0  0
 31 52  1  0  0  0  0
M  END
> <PUBCHEM_COMPOUND_CID>
511221
> <PUBCHEM_COMPOUND_CANONICALIZED>
1
> <PUBCHEM_CACTVS_COMPLEXITY>
823
> <PUBCHEM_CACTVS_HBOND_ACCEPTOR>
9
> <PUBCHEM_CACTVS_HBOND_DONOR>
4
> <PUBCHEM_CACTVS_ROTATABLE_BOND>
9
> <PUBCHEM_CACTVS_SUBSKEYS>
AAADceB7PAIAAAAAAAAAAAAAAAAAAQAAAAAwQAAAAAAAAAABAAAAHgAQiCAADDzhmAYzCIPABxCIQiHWWICCAAAgAAAIiIGIAMiLJDKAsRGOcAAs1yIKqMeYyKCOAAAAAAAAAAAAAAAAAAAAAAAAAAAAAA==
> <PUBCHEM_IUPAC_OPENEYE_NAME>
(2S)-2-[[hydroxy-[[(2S,5R)-5-(5-methyl-2,4-dioxo-pyrimidin-1-yl)-2,5-dihydrofuran-2-yl]methoxy]phosphoryl]amino]-3-phenyl-propanoic acid
> <PUBCHEM_IUPAC_CAS_NAME>
(2S)-2-[[hydroxy-[[(2S,5R)-5-(5-methyl-2,4-dioxo-1-pyrimidinyl)-2,5-dihydrofuran-2-yl]methoxy]phosphoryl]amino]-3-phenylpropanoic acid
> <PUBCHEM_IUPAC_NAME_MARKUP>
(2<I>S</I>)-2-[[hydroxy-[[(2<I>S</I>,5<I>R</I>)-5-(5-methyl-2,4-dioxopyrimidin-1-yl)-2,5-dihydrofuran-2-yl]methoxy]phosphoryl]amino]-3-phenylpropanoic acid
> <PUBCHEM_IUPAC_NAME>
(2S)-2-[[hydroxy-[[(2S,5R)-5-(5-methyl-2,4-dioxopyrimidin-1-yl)-2,5-dihydrofuran-2-yl]methoxy]phosphoryl]amino]-3-phenylpropanoic acid
> <PUBCHEM_IUPAC_SYSTEMATIC_NAME>
(2S)-2-[[[(2S,5R)-5-[5-methyl-2,4-bis(oxidanylidene)pyrimidin-1-yl]-2,5-dihydrofuran-2-yl]methoxy-oxidanyl-phosphoryl]amino]-3-phenyl-propanoic acid
> <PUBCHEM_IUPAC_TRADITIONAL_NAME>
(2S)-2-[[[(2S,5R)-5-(2,4-diketo-5-methyl-pyrimidin-1-yl)-2,5-dihydrofuran-2-yl]methoxy-hydroxy-phosphoryl]amino]-3-phenyl-propionic acid
> <PUBCHEM_IUPAC_INCHI>
InChI=1S/C19H22N3O8P/c1-12-10-22(19(26)20-17(12)23)16-8-7-14(30-16)11-29-31(27,28)21-15(18(24)25)9-13-5-3-2-4-6-13/h2-8,10,14-16H,9,11H2,1H3,(H,24,25)(H,20,23,26)(H2,21,27,28)/t14-,15-,16+/m0/s1
> <PUBCHEM_IUPAC_INCHIKEY>
OPWBMLRKLKFBIP-HRCADAONSA-N
> <PUBCHEM_XLOGP3>
-0.1
> <PUBCHEM_EXACT_MASS>
451.11445167
> <PUBCHEM_MOLECULAR_FORMULA>
C19H22N3O8P
> <PUBCHEM_MOLECULAR_WEIGHT>
451.4
> <PUBCHEM_OPENEYE_CAN_SMILES>
CC1=CN(C(=O)NC1=O)C2C=CC(O2)COP(=O)(NC(CC3=CC=CC=C3)C(=O)O)O
> <PUBCHEM_OPENEYE_ISO_SMILES>
CC1=CN(C(=O)NC1=O)[C@H]2C=C[C@H](O2)COP(=O)(N[C@@H](CC3=CC=CC=C3)C(=O)O)O
> <PUBCHEM_CACTVS_TPSA>
155
> <PUBCHEM_MONOISOTOPIC_WEIGHT>
451.11445167
> <PUBCHEM_TOTAL_CHARGE>
0
> <PUBCHEM_HEAVY_ATOM_COUNT>
31
> <PUBCHEM_ATOM_DEF_STEREO_COUNT>
3
> <PUBCHEM_ATOM_UDEF_STEREO_COUNT>
0
> <PUBCHEM_BOND_DEF_STEREO_COUNT>
0
> <PUBCHEM_BOND_UDEF_STEREO_COUNT>
0
> <PUBCHEM_ISOTOPIC_ATOM_COUNT>
0
> <PUBCHEM_COMPONENT_COUNT>
1
> <PUBCHEM_CACTVS_TAUTO_COUNT>
6
> <PUBCHEM_COORDINATE_TYPE>
1
5
255
> <PUBCHEM_BONDANNOTATIONS>
14  10  6
10  20  8
10  21  8
18  11  5
12  21  8
12  25  8
13  15  6
20  22  8
22  25  8
23  27  8
23  28  8
27  29  8
28  30  8
29  31  8
30  31  8
$$$$
