511267
  -OEChem-10302200282D
144146  0     1  0  0  0  0  0999 V2000
   10.3312   -1.4050    0.0000 S   0  0  0  0  0  0  0  0  0  0  0  0
    9.4651   -0.9050    0.0000 S   0  0  0  0  0  0  0  0  0  0  0  0
   12.0632    1.5950    0.0000 O   0  0  0  0  0  0  0  0  0  0  0  0
   12.0632    0.5950    0.0000 O   0  0  0  0  0  0  0  0  0  0  0  0
   12.9292    5.0950    0.0000 O   0  0  0  0  0  0  0  0  0  0  0  0
   12.9292   -2.9050    0.0000 O   0  0  0  0  0  0  0  0  0  0  0  0
   10.3312   -5.4050    0.0000 O   0  0  0  0  0  0  0  0  0  0  0  0
    6.8671   -2.4050    0.0000 O   0  0  0  0  0  0  0  0  0  0  0  0
    4.2690    0.0950    0.0000 O   0  0  0  0  0  0  0  0  0  0  0  0
   12.0632   -8.4050    0.0000 O   0  0  0  0  0  0  0  0  0  0  0  0
   13.7953    1.5950    0.0000 N   0  0  0  0  0  0  0  0  0  0  0  0
   12.0632    3.5950    0.0000 N   0  0  0  0  0  0  0  0  0  0  0  0
   12.9292   -0.9050    0.0000 N   0  0  0  0  0  0  0  0  0  0  0  0
   11.1972   -2.9050    0.0000 N   0  0  0  0  0  0  0  0  0  0  0  0
   11.1972    6.0950    0.0000 N   0  0  0  0  0  0  0  0  0  0  0  0
   14.6613    6.0950    0.0000 N   0  0  0  0  0  0  0  0  0  0  0  0
    6.0010   -0.9050    0.0000 N   0  0  0  0  0  0  0  0  0  0  0  0
    8.5991    6.5950    0.0000 N   0  0  0  0  0  0  0  0  0  0  0  0
    9.4651   -3.9050    0.0000 N   0  0  0  0  0  0  0  0  0  0  0  0
    7.7331    0.0950    0.0000 N   0  0  0  0  0  0  0  0  0  0  0  0
   15.5273    7.5950    0.0000 N   0  0  0  0  0  0  0  0  0  0  0  0
   16.3933    6.0950    0.0000 N   0  0  0  0  0  0  0  0  0  0  0  0
    3.4030   -1.4050    0.0000 N   0  0  0  0  0  0  0  0  0  0  0  0
    3.4030   -4.4050    0.0000 N   0  0  0  0  0  0  0  0  0  0  0  0
    7.7331    8.0950    0.0000 N   0  0  0  0  0  0  0  0  0  0  0  0
    9.4651    8.0950    0.0000 N   0  0  0  0  0  0  0  0  0  0  0  0
    2.5369   -5.9050    0.0000 N   0  0  0  0  0  0  0  0  0  0  0  0
    4.2690   -5.9050    0.0000 N   0  0  0  0  0  0  0  0  0  0  0  0
   12.9292    3.0950    0.0000 C   0  0  1  0  0  0  0  0  0  0  0  0
   13.7953    0.5950    0.0000 C   0  0  1  0  0  0  0  0  0  0  0  0
   13.7953    3.5950    0.0000 C   0  0  0  0  0  0  0  0  0  0  0  0
   14.6613    0.0950    0.0000 C   0  0  0  0  0  0  0  0  0  0  0  0
   12.9292    2.0950    0.0000 C   0  0  0  0  0  0  0  0  0  0  0  0
   13.7953    4.5950    0.0000 C   0  0  0  0  0  0  0  0  0  0  0  0
   12.9292    0.0950    0.0000 C   0  0  0  0  0  0  0  0  0  0  0  0
   15.5273    0.5950    0.0000 C   0  0  0  0  0  0  0  0  0  0  0  0
   11.1972    5.0950    0.0000 C   0  0  2  0  0  0  0  0  0  0  0  0
   12.0632   -1.4050    0.0000 C   0  0  1  0  0  0  0  0  0  0  0  0
   12.0632    4.5950    0.0000 C   0  0  0  0  0  0  0  0  0  0  0  0
   10.3312    4.5950    0.0000 C   0  0  0  0  0  0  0  0  0  0  0  0
   14.6613    5.0950    0.0000 C   0  0  0  0  0  0  0  0  0  0  0  0
    9.4651    5.0950    0.0000 C   0  0  0  0  0  0  0  0  0  0  0  0
   16.3933    0.0950    0.0000 C   0  0  0  0  0  0  0  0  0  0  0  0
   15.5273    1.5950    0.0000 C   0  0  0  0  0  0  0  0  0  0  0  0
   11.1972   -0.9050    0.0000 C   0  0  0  0  0  0  0  0  0  0  0  0
   17.2594    0.5950    0.0000 C   0  0  0  0  0  0  0  0  0  0  0  0
   12.0632   -2.4050    0.0000 C   0  0  0  0  0  0  0  0  0  0  0  0
   17.2594    1.5950    0.0000 C   0  0  0  0  0  0  0  0  0  0  0  0
   11.1972   -3.9050    0.0000 C   0  0  1  0  0  0  0  0  0  0  0  0
   16.3933    2.0950    0.0000 C   0  0  0  0  0  0  0  0  0  0  0  0
    9.4651    6.0950    0.0000 C   0  0  0  0  0  0  0  0  0  0  0  0
   12.0632   -4.4050    0.0000 C   0  0  0  0  0  0  0  0  0  0  0  0
   18.1533    0.0603    0.0000 C   0  0  0  0  0  0  0  0  0  0  0  0
   18.1533    2.1297    0.0000 C   0  0  0  0  0  0  0  0  0  0  0  0
    5.1350   -1.4050    0.0000 C   0  0  1  0  0  0  0  0  0  0  0  0
   12.0632   -5.4050    0.0000 C   0  0  0  0  0  0  0  0  0  0  0  0
    5.1350   -2.4050    0.0000 C   0  0  0  0  0  0  0  0  0  0  0  0
   10.3312   -4.4050    0.0000 C   0  0  0  0  0  0  0  0  0  0  0  0
   19.0594    0.5742    0.0000 C   0  0  0  0  0  0  0  0  0  0  0  0
   19.0594    1.6158    0.0000 C   0  0  0  0  0  0  0  0  0  0  0  0
    7.7331   -0.9050    0.0000 C   0  0  1  0  0  0  0  0  0  0  0  0
    4.2690   -2.9050    0.0000 C   0  0  0  0  0  0  0  0  0  0  0  0
    8.5991   -1.4050    0.0000 C   0  0  0  0  0  0  0  0  0  0  0  0
    6.8671   -1.4050    0.0000 C   0  0  0  0  0  0  0  0  0  0  0  0
   15.5273    6.5950    0.0000 C   0  0  0  0  0  0  0  0  0  0  0  0
   11.1972   -5.9050    0.0000 C   0  0  0  0  0  0  0  0  0  0  0  0
   12.9292   -5.9050    0.0000 C   0  0  0  0  0  0  0  0  0  0  0  0
    4.2690   -3.9050    0.0000 C   0  0  0  0  0  0  0  0  0  0  0  0
    4.2690   -0.9050    0.0000 C   0  0  0  0  0  0  0  0  0  0  0  0
   11.1972   -6.9050    0.0000 C   0  0  0  0  0  0  0  0  0  0  0  0
   12.9292   -6.9050    0.0000 C   0  0  0  0  0  0  0  0  0  0  0  0
    8.5991    7.5950    0.0000 C   0  0  0  0  0  0  0  0  0  0  0  0
   12.0632   -7.4050    0.0000 C   0  0  0  0  0  0  0  0  0  0  0  0
    3.4030   -5.4050    0.0000 C   0  0  0  0  0  0  0  0  0  0  0  0
   12.3923    2.7850    0.0000 H   0  0  0  0  0  0  0  0  0  0  0  0
   14.3322    0.9050    0.0000 H   0  0  0  0  0  0  0  0  0  0  0  0
   14.0073    3.0124    0.0000 H   0  0  0  0  0  0  0  0  0  0  0  0
   14.4058    3.7027    0.0000 H   0  0  0  0  0  0  0  0  0  0  0  0
   14.2628   -0.3799    0.0000 H   0  0  0  0  0  0  0  0  0  0  0  0
   15.0598   -0.3799    0.0000 H   0  0  0  0  0  0  0  0  0  0  0  0
   14.3322    1.9050    0.0000 H   0  0  0  0  0  0  0  0  0  0  0  0
   13.5832    5.1776    0.0000 H   0  0  0  0  0  0  0  0  0  0  0  0
   13.1847    4.4873    0.0000 H   0  0  0  0  0  0  0  0  0  0  0  0
   11.5263    3.2850    0.0000 H   0  0  0  0  0  0  0  0  0  0  0  0
   10.6603    5.4050    0.0000 H   0  0  0  0  0  0  0  0  0  0  0  0
   12.6002   -1.7150    0.0000 H   0  0  0  0  0  0  0  0  0  0  0  0
    9.9326    4.1200    0.0000 H   0  0  0  0  0  0  0  0  0  0  0  0
   10.7297    4.1200    0.0000 H   0  0  0  0  0  0  0  0  0  0  0  0
   13.4662   -1.2150    0.0000 H   0  0  0  0  0  0  0  0  0  0  0  0
   14.8733    4.5124    0.0000 H   0  0  0  0  0  0  0  0  0  0  0  0
   15.2719    5.2027    0.0000 H   0  0  0  0  0  0  0  0  0  0  0  0
    8.8546    5.2027    0.0000 H   0  0  0  0  0  0  0  0  0  0  0  0
    9.2531    4.5124    0.0000 H   0  0  0  0  0  0  0  0  0  0  0  0
   16.3933   -0.5250    0.0000 H   0  0  0  0  0  0  0  0  0  0  0  0
   14.9904    1.9050    0.0000 H   0  0  0  0  0  0  0  0  0  0  0  0
   11.5957   -0.4301    0.0000 H   0  0  0  0  0  0  0  0  0  0  0  0
   10.7987   -0.4301    0.0000 H   0  0  0  0  0  0  0  0  0  0  0  0
   10.6603   -3.5950    0.0000 H   0  0  0  0  0  0  0  0  0  0  0  0
   16.3933    2.7150    0.0000 H   0  0  0  0  0  0  0  0  0  0  0  0
   10.6603   -2.5950    0.0000 H   0  0  0  0  0  0  0  0  0  0  0  0
   10.6603    6.4050    0.0000 H   0  0  0  0  0  0  0  0  0  0  0  0
   11.7341    6.4050    0.0000 H   0  0  0  0  0  0  0  0  0  0  0  0
   10.0757    5.9873    0.0000 H   0  0  0  0  0  0  0  0  0  0  0  0
    9.6772    6.6776    0.0000 H   0  0  0  0  0  0  0  0  0  0  0  0
   12.6738   -4.5127    0.0000 H   0  0  0  0  0  0  0  0  0  0  0  0
   12.2753   -3.8224    0.0000 H   0  0  0  0  0  0  0  0  0  0  0  0
   18.1461   -0.5596    0.0000 H   0  0  0  0  0  0  0  0  0  0  0  0
   18.1461    2.7496    0.0000 H   0  0  0  0  0  0  0  0  0  0  0  0
    5.1350   -0.7850    0.0000 H   0  0  0  0  0  0  0  0  0  0  0  0
    5.3471   -2.9876    0.0000 H   0  0  0  0  0  0  0  0  0  0  0  0
    5.7456   -2.2973    0.0000 H   0  0  0  0  0  0  0  0  0  0  0  0
   19.5951    0.2621    0.0000 H   0  0  0  0  0  0  0  0  0  0  0  0
   19.5951    1.9279    0.0000 H   0  0  0  0  0  0  0  0  0  0  0  0
    8.2700   -0.5950    0.0000 H   0  0  0  0  0  0  0  0  0  0  0  0
    4.0569   -2.3224    0.0000 H   0  0  0  0  0  0  0  0  0  0  0  0
    3.6584   -3.0127    0.0000 H   0  0  0  0  0  0  0  0  0  0  0  0
    8.2006   -1.8800    0.0000 H   0  0  0  0  0  0  0  0  0  0  0  0
    8.9976   -1.8800    0.0000 H   0  0  0  0  0  0  0  0  0  0  0  0
    6.0010   -0.2850    0.0000 H   0  0  0  0  0  0  0  0  0  0  0  0
   10.6603   -5.5950    0.0000 H   0  0  0  0  0  0  0  0  0  0  0  0
   13.4662   -5.5950    0.0000 H   0  0  0  0  0  0  0  0  0  0  0  0
    4.4810   -4.4876    0.0000 H   0  0  0  0  0  0  0  0  0  0  0  0
    4.8796   -3.7973    0.0000 H   0  0  0  0  0  0  0  0  0  0  0  0
    8.9282   -4.2150    0.0000 H   0  0  0  0  0  0  0  0  0  0  0  0
    9.4651   -3.2850    0.0000 H   0  0  0  0  0  0  0  0  0  0  0  0
   10.6603   -7.2150    0.0000 H   0  0  0  0  0  0  0  0  0  0  0  0
   13.4662   -7.2150    0.0000 H   0  0  0  0  0  0  0  0  0  0  0  0
    7.1962    0.4050    0.0000 H   0  0  0  0  0  0  0  0  0  0  0  0
    8.2700    0.4050    0.0000 H   0  0  0  0  0  0  0  0  0  0  0  0
   16.0643    7.9050    0.0000 H   0  0  0  0  0  0  0  0  0  0  0  0
   14.9904    7.9050    0.0000 H   0  0  0  0  0  0  0  0  0  0  0  0
   16.9303    6.4050    0.0000 H   0  0  0  0  0  0  0  0  0  0  0  0
   16.3933    5.4750    0.0000 H   0  0  0  0  0  0  0  0  0  0  0  0
    2.8660   -1.0950    0.0000 H   0  0  0  0  0  0  0  0  0  0  0  0
    3.4030   -2.0250    0.0000 H   0  0  0  0  0  0  0  0  0  0  0  0
    7.7331    8.7150    0.0000 H   0  0  0  0  0  0  0  0  0  0  0  0
    7.1962    7.7850    0.0000 H   0  0  0  0  0  0  0  0  0  0  0  0
    9.4651    8.7150    0.0000 H   0  0  0  0  0  0  0  0  0  0  0  0
   10.0021    7.7850    0.0000 H   0  0  0  0  0  0  0  0  0  0  0  0
   11.5263   -8.7150    0.0000 H   0  0  0  0  0  0  0  0  0  0  0  0
    2.5369   -6.5250    0.0000 H   0  0  0  0  0  0  0  0  0  0  0  0
    2.0000   -5.5950    0.0000 H   0  0  0  0  0  0  0  0  0  0  0  0
    4.2690   -6.5250    0.0000 H   0  0  0  0  0  0  0  0  0  0  0  0
    4.8059   -5.5950    0.0000 H   0  0  0  0  0  0  0  0  0  0  0  0
  1  2  1  0  0  0  0
  1 45  1  0  0  0  0
  2 63  1  0  0  0  0
  3 33  2  0  0  0  0
  4 35  2  0  0  0  0
  5 39  2  0  0  0  0
  6 47  2  0  0  0  0
  7 58  2  0  0  0  0
  8 64  2  0  0  0  0
  9 69  2  0  0  0  0
 10 73  1  0  0  0  0
 10140  1  0  0  0  0
 30 11  1  1  0  0  0
 11 33  1  0  0  0  0
 11 81  1  0  0  0  0
 29 12  1  1  0  0  0
 12 39  1  0  0  0  0
 12 84  1  0  0  0  0
 13 35  1  0  0  0  0
 38 13  1  6  0  0  0
 13 89  1  0  0  0  0
 14 47  1  0  0  0  0
 49 14  1  1  0  0  0
 14100  1  0  0  0  0
 37 15  1  6  0  0  0
 15101  1  0  0  0  0
 15102  1  0  0  0  0
 16 41  1  0  0  0  0
 16 65  2  0  0  0  0
 55 17  1  1  0  0  0
 17 64  1  0  0  0  0
 17119  1  0  0  0  0
 18 51  1  0  0  0  0
 18 72  2  0  0  0  0
 19 58  1  0  0  0  0
 19124  1  0  0  0  0
 19125  1  0  0  0  0
 61 20  1  1  0  0  0
 20128  1  0  0  0  0
 20129  1  0  0  0  0
 21 65  1  0  0  0  0
 21130  1  0  0  0  0
 21131  1  0  0  0  0
 22 65  1  0  0  0  0
 22132  1  0  0  0  0
 22133  1  0  0  0  0
 23 69  1  0  0  0  0
 23134  1  0  0  0  0
 23135  1  0  0  0  0
 24 68  1  0  0  0  0
 24 74  2  0  0  0  0
 25 72  1  0  0  0  0
 25136  1  0  0  0  0
 25137  1  0  0  0  0
 26 72  1  0  0  0  0
 26138  1  0  0  0  0
 26139  1  0  0  0  0
 27 74  1  0  0  0  0
 27141  1  0  0  0  0
 27142  1  0  0  0  0
 28 74  1  0  0  0  0
 28143  1  0  0  0  0
 28144  1  0  0  0  0
 29 31  1  0  0  0  0
 29 33  1  0  0  0  0
 29 75  1  0  0  0  0
 30 32  1  0  0  0  0
 30 35  1  0  0  0  0
 30 76  1  0  0  0  0
 31 34  1  0  0  0  0
 31 77  1  0  0  0  0
 31 78  1  0  0  0  0
 32 36  1  0  0  0  0
 32 79  1  0  0  0  0
 32 80  1  0  0  0  0
 34 41  1  0  0  0  0
 34 82  1  0  0  0  0
 34 83  1  0  0  0  0
 36 43  2  0  0  0  0
 36 44  1  0  0  0  0
 37 39  1  0  0  0  0
 37 40  1  0  0  0  0
 37 85  1  0  0  0  0
 38 45  1  0  0  0  0
 38 47  1  0  0  0  0
 38 86  1  0  0  0  0
 40 42  1  0  0  0  0
 40 87  1  0  0  0  0
 40 88  1  0  0  0  0
 41 90  1  0  0  0  0
 41 91  1  0  0  0  0
 42 51  1  0  0  0  0
 42 92  1  0  0  0  0
 42 93  1  0  0  0  0
 43 46  1  0  0  0  0
 43 94  1  0  0  0  0
 44 50  2  0  0  0  0
 44 95  1  0  0  0  0
 45 96  1  0  0  0  0
 45 97  1  0  0  0  0
 46 48  1  0  0  0  0
 46 53  2  0  0  0  0
 48 50  1  0  0  0  0
 48 54  2  0  0  0  0
 49 52  1  0  0  0  0
 49 58  1  0  0  0  0
 49 98  1  0  0  0  0
 50 99  1  0  0  0  0
 51103  1  0  0  0  0
 51104  1  0  0  0  0
 52 56  1  0  0  0  0
 52105  1  0  0  0  0
 52106  1  0  0  0  0
 53 59  1  0  0  0  0
 53107  1  0  0  0  0
 54 60  1  0  0  0  0
 54108  1  0  0  0  0
 55 57  1  0  0  0  0
 55 69  1  0  0  0  0
 55109  1  0  0  0  0
 56 66  2  0  0  0  0
 56 67  1  0  0  0  0
 57 62  1  0  0  0  0
 57110  1  0  0  0  0
 57111  1  0  0  0  0
 59 60  2  0  0  0  0
 59112  1  0  0  0  0
 60113  1  0  0  0  0
 61 63  1  0  0  0  0
 61 64  1  0  0  0  0
 61114  1  0  0  0  0
 62 68  1  0  0  0  0
 62115  1  0  0  0  0
 62116  1  0  0  0  0
 63117  1  0  0  0  0
 63118  1  0  0  0  0
 66 70  1  0  0  0  0
 66120  1  0  0  0  0
 67 71  2  0  0  0  0
 67121  1  0  0  0  0
 68122  1  0  0  0  0
 68123  1  0  0  0  0
 70 73  2  0  0  0  0
 70126  1  0  0  0  0
 71 73  1  0  0  0  0
 71127  1  0  0  0  0
M  END
> <PUBCHEM_COMPOUND_CID>
511267
> <PUBCHEM_COMPOUND_CANONICALIZED>
1
> <PUBCHEM_CACTVS_COMPLEXITY>
1920
> <PUBCHEM_CACTVS_HBOND_ACCEPTOR>
15
> <PUBCHEM_CACTVS_HBOND_DONOR>
16
> <PUBCHEM_CACTVS_ROTATABLE_BOND>
33
> <PUBCHEM_CACTVS_SUBSKEYS>
AAADcfB//ABgAAAAAAAAAAAAAAAAAAAAAAAwYMAAAAAAAADBVAAAHgQQCAAADCzF2ASxBsLAAgCoAiFSNAACAAEgIAAIiIGOCIgIZjKCkTOUcAAk1hGImAeYyeCO4AACAAAQAADAAAQAACAAAAAAAAAAAA==
> <PUBCHEM_IUPAC_OPENEYE_NAME>
(2S)-2-amino-N-[(1S)-1-[[(1S)-2-[[(1R)-1-[[[(2R)-2-amino-3-[[(1S)-1-carbamoyl-4-guanidino-butyl]amino]-3-oxo-propyl]disulfanyl]methyl]-2-[[(1S)-2-amino-1-[(4-hydroxyphenyl)methyl]-2-oxo-ethyl]amino]-2-oxo-ethyl]amino]-1-(2-naphthylmethyl)-2-oxo-ethyl]carbamoyl]-4-guanidino-butyl]-5-guanidino-pentanamide
> <PUBCHEM_IUPAC_CAS_NAME>
(2S)-2-amino-N-[(2S)-1-[[(2S)-1-[[(2R)-3-[[(2R)-2-amino-3-[[(2S)-1-amino-5-(diaminomethylideneamino)-1-oxopentan-2-yl]amino]-3-oxopropyl]disulfanyl]-1-[[(2S)-1-amino-3-(4-hydroxyphenyl)-1-oxopropan-2-yl]amino]-1-oxopropan-2-yl]amino]-3-(2-naphthalenyl)-1-oxopropan-2-yl]amino]-5-(diaminomethylideneamino)-1-oxopentan-2-yl]-5-(diaminomethylideneamino)pentanamide
> <PUBCHEM_IUPAC_NAME_MARKUP>
(2<I>S</I>)-2-amino-<I>N</I>-[(2<I>S</I>)-1-[[(2<I>S</I>)-1-[[(2<I>R</I>)-3-[[(2<I>R</I>)-2-amino-3-[[(2<I>S</I>)-1-amino-5-(diaminomethylideneamino)-1-oxopentan-2-yl]amino]-3-oxopropyl]disulfanyl]-1-[[(2<I>S</I>)-1-amino-3-(4-hydroxyphenyl)-1-oxopropan-2-yl]amino]-1-oxopropan-2-yl]amino]-3-naphthalen-2-yl-1-oxopropan-2-yl]amino]-5-(diaminomethylideneamino)-1-oxopentan-2-yl]-5-(diaminomethylideneamino)pentanamide
> <PUBCHEM_IUPAC_NAME>
(2S)-2-amino-N-[(2S)-1-[[(2S)-1-[[(2R)-3-[[(2R)-2-amino-3-[[(2S)-1-amino-5-(diaminomethylideneamino)-1-oxopentan-2-yl]amino]-3-oxopropyl]disulfanyl]-1-[[(2S)-1-amino-3-(4-hydroxyphenyl)-1-oxopropan-2-yl]amino]-1-oxopropan-2-yl]amino]-3-naphthalen-2-yl-1-oxopropan-2-yl]amino]-5-(diaminomethylideneamino)-1-oxopentan-2-yl]-5-(diaminomethylideneamino)pentanamide
> <PUBCHEM_IUPAC_SYSTEMATIC_NAME>
(2S)-2-azanyl-N-[(2S)-1-[[(2S)-1-[[(2R)-3-[[(2R)-2-azanyl-3-[[(2S)-1-azanyl-5-[bis(azanyl)methylideneamino]-1-oxidanylidene-pentan-2-yl]amino]-3-oxidanylidene-propyl]disulfanyl]-1-[[(2S)-1-azanyl-3-(4-hydroxyphenyl)-1-oxidanylidene-propan-2-yl]amino]-1-oxidanylidene-propan-2-yl]amino]-3-naphthalen-2-yl-1-oxidanylidene-propan-2-yl]amino]-5-[bis(azanyl)methylideneamino]-1-oxidanylidene-pentan-2-yl]-5-[bis(azanyl)methylideneamino]pentanamide
> <PUBCHEM_IUPAC_TRADITIONAL_NAME>
(2S)-2-amino-N-[(1S)-1-[[(1S)-2-[[(1R)-1-[[[(2R)-2-amino-3-[[(1S)-1-carbamoyl-4-guanidino-butyl]amino]-3-keto-propyl]disulfanyl]methyl]-2-[[(1S)-2-amino-1-(4-hydroxybenzyl)-2-keto-ethyl]amino]-2-keto-ethyl]amino]-2-keto-1-(2-naphthylmethyl)ethyl]carbamoyl]-4-guanidino-butyl]-5-guanidino-valeramide
> <PUBCHEM_IUPAC_INCHI>
InChI=1S/C46H70N18O8S2/c47-30(8-3-17-57-44(51)52)39(68)61-33(10-5-19-59-46(55)56)41(70)63-35(22-26-11-14-27-6-1-2-7-28(27)20-26)42(71)64-36(43(72)62-34(38(50)67)21-25-12-15-29(65)16-13-25)24-74-73-23-31(48)40(69)60-32(37(49)66)9-4-18-58-45(53)54/h1-2,6-7,11-16,20,30-36,65H,3-5,8-10,17-19,21-24,47-48H2,(H2,49,66)(H2,50,67)(H,60,69)(H,61,68)(H,62,72)(H,63,70)(H,64,71)(H4,51,52,57)(H4,53,54,58)(H4,55,56,59)/t30-,31-,32-,33-,34-,35-,36-/m0/s1
> <PUBCHEM_IUPAC_INCHIKEY>
IAPOGUNYYCTRIX-QJCLFNHPSA-N
> <PUBCHEM_XLOGP3_AA>
-3.8
> <PUBCHEM_EXACT_MASS>
1066.50654361
> <PUBCHEM_MOLECULAR_FORMULA>
C46H70N18O8S2
> <PUBCHEM_MOLECULAR_WEIGHT>
1067.3
> <PUBCHEM_OPENEYE_CAN_SMILES>
C1=CC=C2C=C(C=CC2=C1)CC(C(=O)NC(CSSCC(C(=O)NC(CCCN=C(N)N)C(=O)N)N)C(=O)NC(CC3=CC=C(C=C3)O)C(=O)N)NC(=O)C(CCCN=C(N)N)NC(=O)C(CCCN=C(N)N)N
> <PUBCHEM_OPENEYE_ISO_SMILES>
C1=CC=C2C=C(C=CC2=C1)C[C@@H](C(=O)N[C@@H](CSSC[C@@H](C(=O)N[C@@H](CCCN=C(N)N)C(=O)N)N)C(=O)N[C@@H](CC3=CC=C(C=C3)O)C(=O)N)NC(=O)[C@H](CCCN=C(N)N)NC(=O)[C@H](CCCN=C(N)N)N
> <PUBCHEM_CACTVS_TPSA>
548
> <PUBCHEM_MONOISOTOPIC_WEIGHT>
1066.50654361
> <PUBCHEM_TOTAL_CHARGE>
0
> <PUBCHEM_HEAVY_ATOM_COUNT>
74
> <PUBCHEM_ATOM_DEF_STEREO_COUNT>
7
> <PUBCHEM_ATOM_UDEF_STEREO_COUNT>
0
> <PUBCHEM_BOND_DEF_STEREO_COUNT>
0
> <PUBCHEM_BOND_UDEF_STEREO_COUNT>
0
> <PUBCHEM_ISOTOPIC_ATOM_COUNT>
0
> <PUBCHEM_COMPONENT_COUNT>
1
> <PUBCHEM_CACTVS_TAUTO_COUNT>
-1
> <PUBCHEM_COORDINATE_TYPE>
1
5
255
> <PUBCHEM_BONDANNOTATIONS>
30  11  5
29  12  5
38  13  6
49  14  5
37  15  6
55  17  5
61  20  5
36  43  8
36  44  8
43  46  8
44  50  8
46  48  8
46  53  8
48  50  8
48  54  8
53  59  8
54  60  8
56  66  8
56  67  8
59  60  8
66  70  8
67  71  8
70  73  8
71  73  8
$$$$
