511241
  -OEChem-10302200282D
 50 51  0     1  0  0  0  0  0999 V2000
    7.7469   -2.3649    0.0000 P   0  0  3  0  0  0  0  0  0  0  0  0
   10.5048   -4.6874    0.0000 F   0  0  0  0  0  0  0  0  0  0  0  0
   10.7260   -3.2906    0.0000 F   0  0  0  0  0  0  0  0  0  0  0  0
    9.1080   -4.4662    0.0000 F   0  0  0  0  0  0  0  0  0  0  0  0
    5.8858    0.0996    0.0000 O   0  0  0  0  0  0  0  0  0  0  0  0
    7.1591   -1.5559    0.0000 O   0  0  0  0  0  0  0  0  0  0  0  0
    6.8089    1.6874    0.0000 O   0  0  0  0  0  0  0  0  0  0  0  0
    8.5559   -1.7771    0.0000 O   0  0  0  0  0  0  0  0  0  0  0  0
    8.3347   -3.1739    0.0000 O   0  0  0  0  0  0  0  0  0  0  0  0
    6.9379   -2.9527    0.0000 O   0  0  0  0  0  0  0  0  0  0  0  0
    5.0768    4.6874    0.0000 O   0  0  0  0  0  0  0  0  0  0  0  0
    5.0768    1.6874    0.0000 N   0  0  0  0  0  0  0  0  0  0  0  0
    3.9890   -1.6604    0.0000 N   0  0  0  0  0  0  0  0  0  0  0  0
    5.9428    3.1874    0.0000 N   0  0  0  0  0  0  0  0  0  0  0  0
    2.9945   -1.5559    0.0000 N   0  3  0  0  0  0  0  0  0  0  0  0
    2.0000   -1.4514    0.0000 N   0  5  0  0  0  0  0  0  0  0  0  0
   11.0875   -1.0083    0.0000 N   0  0  0  0  0  0  0  0  0  0  0  0
    4.5768   -0.8514    0.0000 C   0  0  2  0  0  0  0  0  0  0  0  0
    5.5768   -0.8514    0.0000 C   0  0  1  0  0  0  0  0  0  0  0  0
    4.2678    0.0996    0.0000 C   0  0  0  0  0  0  0  0  0  0  0  0
    5.0768    0.6874    0.0000 C   0  0  1  0  0  0  0  0  0  0  0  0
    6.1646   -1.6604    0.0000 C   0  0  0  0  0  0  0  0  0  0  0  0
    4.2108    2.1874    0.0000 C   0  0  0  0  0  0  0  0  0  0  0  0
    5.9428    2.1874    0.0000 C   0  0  0  0  0  0  0  0  0  0  0  0
    4.2108    3.1874    0.0000 C   0  0  0  0  0  0  0  0  0  0  0  0
    5.0768    3.6874    0.0000 C   0  0  0  0  0  0  0  0  0  0  0  0
    3.3448    3.6874    0.0000 C   0  0  0  0  0  0  0  0  0  0  0  0
    8.4514   -0.7826    0.0000 C   0  0  0  0  0  0  0  0  0  0  0  0
    9.3292   -3.0694    0.0000 C   0  0  0  0  0  0  0  0  0  0  0  0
    9.2604   -0.1948    0.0000 C   0  0  0  0  0  0  0  0  0  0  0  0
    9.9170   -3.8784    0.0000 C   0  0  0  0  0  0  0  0  0  0  0  0
   10.1740   -0.6016    0.0000 C   0  0  0  0  0  0  0  0  0  0  0  0
    3.9645   -0.7544    0.0000 H   0  0  0  0  0  0  0  0  0  0  0  0
    6.1892   -0.7544    0.0000 H   0  0  0  0  0  0  0  0  0  0  0  0
    3.9578    0.6366    0.0000 H   0  0  0  0  0  0  0  0  0  0  0  0
    3.7014   -0.1525    0.0000 H   0  0  0  0  0  0  0  0  0  0  0  0
    4.5244    0.9689    0.0000 H   0  0  0  0  0  0  0  0  0  0  0  0
    5.6074   -1.9322    0.0000 H   0  0  0  0  0  0  0  0  0  0  0  0
    6.3355   -2.2564    0.0000 H   0  0  0  0  0  0  0  0  0  0  0  0
    3.6739    1.8774    0.0000 H   0  0  0  0  0  0  0  0  0  0  0  0
    6.4798    3.4974    0.0000 H   0  0  0  0  0  0  0  0  0  0  0  0
    3.6548    4.2244    0.0000 H   0  0  0  0  0  0  0  0  0  0  0  0
    2.8078    3.9974    0.0000 H   0  0  0  0  0  0  0  0  0  0  0  0
    3.0348    3.1505    0.0000 H   0  0  0  0  0  0  0  0  0  0  0  0
    8.1796   -0.2254    0.0000 H   0  0  0  0  0  0  0  0  0  0  0  0
    7.8554   -0.9535    0.0000 H   0  0  0  0  0  0  0  0  0  0  0  0
    9.8865   -2.7976    0.0000 H   0  0  0  0  0  0  0  0  0  0  0  0
    9.1583   -2.4734    0.0000 H   0  0  0  0  0  0  0  0  0  0  0  0
    9.6071    0.3192    0.0000 H   0  0  0  0  0  0  0  0  0  0  0  0
    8.8144    0.2359    0.0000 H   0  0  0  0  0  0  0  0  0  0  0  0
  1  6  1  0  0  0  0
  1  8  1  0  0  0  0
  1  9  1  0  0  0  0
  1 10  2  0  0  0  0
  2 31  1  0  0  0  0
  3 31  1  0  0  0  0
  4 31  1  0  0  0  0
  5 19  1  0  0  0  0
  5 21  1  0  0  0  0
  6 22  1  0  0  0  0
  7 24  2  0  0  0  0
  8 28  1  0  0  0  0
  9 29  1  0  0  0  0
 11 26  2  0  0  0  0
 21 12  1  6  0  0  0
 12 23  1  0  0  0  0
 12 24  1  0  0  0  0
 13 15  2  0  0  0  0
 18 13  1  1  0  0  0
 14 24  1  0  0  0  0
 14 26  1  0  0  0  0
 14 41  1  0  0  0  0
 15 16  2  0  0  0  0
 17 32  3  0  0  0  0
 18 19  1  0  0  0  0
 18 20  1  0  0  0  0
 18 33  1  0  0  0  0
 19 22  1  6  0  0  0
 19 34  1  0  0  0  0
 20 21  1  0  0  0  0
 20 35  1  0  0  0  0
 20 36  1  0  0  0  0
 21 37  1  0  0  0  0
 22 38  1  0  0  0  0
 22 39  1  0  0  0  0
 23 25  2  0  0  0  0
 23 40  1  0  0  0  0
 25 26  1  0  0  0  0
 25 27  1  0  0  0  0
 27 42  1  0  0  0  0
 27 43  1  0  0  0  0
 27 44  1  0  0  0  0
 28 30  1  0  0  0  0
 28 45  1  0  0  0  0
 28 46  1  0  0  0  0
 29 31  1  0  0  0  0
 29 47  1  0  0  0  0
 29 48  1  0  0  0  0
 30 32  1  0  0  0  0
 30 49  1  0  0  0  0
 30 50  1  0  0  0  0
M  CHG  2  15   1  16  -1
M  END
> <PUBCHEM_COMPOUND_CID>
511241
> <PUBCHEM_COMPOUND_CANONICALIZED>
1
> <PUBCHEM_CACTVS_COMPLEXITY>
913
> <PUBCHEM_CACTVS_HBOND_ACCEPTOR>
13
> <PUBCHEM_CACTVS_HBOND_DONOR>
1
> <PUBCHEM_CACTVS_ROTATABLE_BOND>
10
> <PUBCHEM_CACTVS_SUBSKEYS>
AAADceBzuYIAAAAAAAAAAAAAAAAAASAAAAAgAAAAAAAAAAAAAAAAHwAYACAADDzhgBYDAAPABRCaRgFWUICAAAAAAAAAAAEIAECDgAIAwQAPAAAOByICAMCwMAIAAAAAAAAAAAAAAAAAAAAAAAAAAAAAAA==
> <PUBCHEM_IUPAC_OPENEYE_NAME>
[(2S,3S,5R)-3-azido-5-(5-methyl-2,4-dioxo-pyrimidin-1-yl)tetrahydrofuran-2-yl]methyl 2-cyanoethyl 2,2,2-trifluoroethyl phosphate
> <PUBCHEM_IUPAC_CAS_NAME>
phosphoric acid [(2S,3S,5R)-3-azido-5-(5-methyl-2,4-dioxo-1-pyrimidinyl)-2-oxolanyl]methyl 2-cyanoethyl 2,2,2-trifluoroethyl ester
> <PUBCHEM_IUPAC_NAME_MARKUP>
[(2<I>S</I>,3<I>S</I>,5<I>R</I>)-3-azido-5-(5-methyl-2,4-dioxopyrimidin-1-yl)oxolan-2-yl]methyl 2-cyanoethyl 2,2,2-trifluoroethyl phosphate
> <PUBCHEM_IUPAC_NAME>
[(2S,3S,5R)-3-azido-5-(5-methyl-2,4-dioxopyrimidin-1-yl)oxolan-2-yl]methyl 2-cyanoethyl 2,2,2-trifluoroethyl phosphate
> <PUBCHEM_IUPAC_SYSTEMATIC_NAME>
[(2S,3S,5R)-3-azido-5-[5-methyl-2,4-bis(oxidanylidene)pyrimidin-1-yl]oxolan-2-yl]methyl 2-cyanoethyl 2,2,2-tris(fluoranyl)ethyl phosphate
> <PUBCHEM_IUPAC_TRADITIONAL_NAME>
phosphoric acid [(2S,3S,5R)-3-azido-5-(2,4-diketo-5-methyl-pyrimidin-1-yl)tetrahydrofuran-2-yl]methyl 2-cyanoethyl 2,2,2-trifluoroethyl ester
> <PUBCHEM_IUPAC_INCHI>
InChI=1S/C15H18F3N6O7P/c1-9-6-24(14(26)21-13(9)25)12-5-10(22-23-20)11(31-12)7-29-32(27,28-4-2-3-19)30-8-15(16,17)18/h6,10-12H,2,4-5,7-8H2,1H3,(H,21,25,26)/t10-,11+,12+,32?/m0/s1
> <PUBCHEM_IUPAC_INCHIKEY>
JPBARNOPGHIOHQ-LJXHMYFWSA-N
> <PUBCHEM_XLOGP3>
0.8
> <PUBCHEM_EXACT_MASS>
482.09266842
> <PUBCHEM_MOLECULAR_FORMULA>
C15H18F3N6O7P
> <PUBCHEM_MOLECULAR_WEIGHT>
482.31
> <PUBCHEM_OPENEYE_CAN_SMILES>
CC1=CN(C(=O)NC1=O)C2CC(C(O2)COP(=O)(OCCC#N)OCC(F)(F)F)N=[N+]=[N-]
> <PUBCHEM_OPENEYE_ISO_SMILES>
CC1=CN(C(=O)NC1=O)[C@H]2C[C@@H]([C@H](O2)COP(=O)(OCCC#N)OCC(F)(F)F)N=[N+]=[N-]
> <PUBCHEM_CACTVS_TPSA>
142
> <PUBCHEM_MONOISOTOPIC_WEIGHT>
482.09266842
> <PUBCHEM_TOTAL_CHARGE>
0
> <PUBCHEM_HEAVY_ATOM_COUNT>
32
> <PUBCHEM_ATOM_DEF_STEREO_COUNT>
3
> <PUBCHEM_ATOM_UDEF_STEREO_COUNT>
1
> <PUBCHEM_BOND_DEF_STEREO_COUNT>
0
> <PUBCHEM_BOND_UDEF_STEREO_COUNT>
0
> <PUBCHEM_ISOTOPIC_ATOM_COUNT>
0
> <PUBCHEM_COMPONENT_COUNT>
1
> <PUBCHEM_CACTVS_TAUTO_COUNT>
-1
> <PUBCHEM_COORDINATE_TYPE>
1
5
255
> <PUBCHEM_BONDANNOTATIONS>
1  8  3
21  12  6
12  23  8
12  24  8
18  13  5
14  24  8
14  26  8
19  22  6
23  25  8
25  26  8
$$$$
