511223
  -OEChem-10302200282D
 52 53  0     1  0  0  0  0  0999 V2000
    5.0009   -2.0619    0.0000 P   0  0  3  0  0  0  0  0  0  0  0  0
    4.5411    1.4208    0.0000 O   0  0  0  0  0  0  0  0  0  0  0  0
    4.4131   -1.2528    0.0000 O   0  0  0  0  0  0  0  0  0  0  0  0
    4.1919   -2.6496    0.0000 O   0  0  0  0  0  0  0  0  0  0  0  0
    5.8099   -1.4741    0.0000 O   0  0  0  0  0  0  0  0  0  0  0  0
    5.3630   -5.5070    0.0000 O   0  0  0  0  0  0  0  0  0  0  0  0
    6.7642   -4.4889    0.0000 O   0  0  0  0  0  0  0  0  0  0  0  0
    5.4641    3.0086    0.0000 O   0  0  0  0  0  0  0  0  0  0  0  0
    3.7320    6.0086    0.0000 O   0  0  0  0  0  0  0  0  0  0  0  0
    5.5887   -2.8709    0.0000 N   0  0  0  0  0  0  0  0  0  0  0  0
    3.7320    3.0086    0.0000 N   0  0  0  0  0  0  0  0  0  0  0  0
    4.5981    4.5086    0.0000 N   0  0  0  0  0  0  0  0  0  0  0  0
    4.1874   -3.8889    0.0000 C   0  0  0  0  0  0  0  0  0  0  0  0
    3.7807   -4.8025    0.0000 C   0  0  0  0  0  0  0  0  0  0  0  0
    5.1819   -3.7844    0.0000 C   0  0  1  0  0  0  0  0  0  0  0  0
    4.2320    0.4697    0.0000 C   0  0  2  0  0  0  0  0  0  0  0  0
    3.7320    2.0086    0.0000 C   0  0  1  0  0  0  0  0  0  0  0  0
    4.8198   -0.3393    0.0000 C   0  0  0  0  0  0  0  0  0  0  0  0
    3.2320    0.4697    0.0000 C   0  0  0  0  0  0  0  0  0  0  0  0
    2.9230    1.4208    0.0000 C   0  0  0  0  0  0  0  0  0  0  0  0
    2.7862   -4.9070    0.0000 C   0  0  0  0  0  0  0  0  0  0  0  0
    4.3685   -5.6115    0.0000 C   0  0  0  0  0  0  0  0  0  0  0  0
    5.7697   -4.5934    0.0000 C   0  0  0  0  0  0  0  0  0  0  0  0
    2.8660    3.5086    0.0000 C   0  0  0  0  0  0  0  0  0  0  0  0
    4.5981    3.5086    0.0000 C   0  0  0  0  0  0  0  0  0  0  0  0
    2.8660    4.5086    0.0000 C   0  0  0  0  0  0  0  0  0  0  0  0
    3.7320    5.0086    0.0000 C   0  0  0  0  0  0  0  0  0  0  0  0
    2.0000    5.0086    0.0000 C   0  0  0  0  0  0  0  0  0  0  0  0
    4.2307   -3.2704    0.0000 H   0  0  0  0  0  0  0  0  0  0  0  0
    3.5858   -3.7390    0.0000 H   0  0  0  0  0  0  0  0  0  0  0  0
    3.5285   -5.3689    0.0000 H   0  0  0  0  0  0  0  0  0  0  0  0
    5.7985   -3.7196    0.0000 H   0  0  0  0  0  0  0  0  0  0  0  0
    4.8444    0.5667    0.0000 H   0  0  0  0  0  0  0  0  0  0  0  0
    4.2845    2.2900    0.0000 H   0  0  0  0  0  0  0  0  0  0  0  0
    5.3338   -0.6860    0.0000 H   0  0  0  0  0  0  0  0  0  0  0  0
    5.2505    0.1067    0.0000 H   0  0  0  0  0  0  0  0  0  0  0  0
    6.2053   -2.8061    0.0000 H   0  0  0  0  0  0  0  0  0  0  0  0
    2.8676   -0.0319    0.0000 H   0  0  0  0  0  0  0  0  0  0  0  0
    2.3334    1.6124    0.0000 H   0  0  0  0  0  0  0  0  0  0  0  0
    2.7214   -4.2904    0.0000 H   0  0  0  0  0  0  0  0  0  0  0  0
    2.1696   -4.9718    0.0000 H   0  0  0  0  0  0  0  0  0  0  0  0
    2.8510   -5.5236    0.0000 H   0  0  0  0  0  0  0  0  0  0  0  0
    3.8669   -5.9759    0.0000 H   0  0  0  0  0  0  0  0  0  0  0  0
    4.7329   -6.1131    0.0000 H   0  0  0  0  0  0  0  0  0  0  0  0
    4.8700   -5.2471    0.0000 H   0  0  0  0  0  0  0  0  0  0  0  0
    2.3291    3.1986    0.0000 H   0  0  0  0  0  0  0  0  0  0  0  0
    5.1350    4.8186    0.0000 H   0  0  0  0  0  0  0  0  0  0  0  0
    3.6255   -2.3975    0.0000 H   0  0  0  0  0  0  0  0  0  0  0  0
    2.3100    5.5455    0.0000 H   0  0  0  0  0  0  0  0  0  0  0  0
    1.4631    5.3186    0.0000 H   0  0  0  0  0  0  0  0  0  0  0  0
    1.6900    4.4716    0.0000 H   0  0  0  0  0  0  0  0  0  0  0  0
    5.7274   -6.0086    0.0000 H   0  0  0  0  0  0  0  0  0  0  0  0
  1  3  1  0  0  0  0
  1  4  1  0  0  0  0
  1  5  2  0  0  0  0
  1 10  1  0  0  0  0
  2 16  1  0  0  0  0
  2 17  1  0  0  0  0
  3 18  1  0  0  0  0
  4 48  1  0  0  0  0
  6 23  1  0  0  0  0
  6 52  1  0  0  0  0
  7 23  2  0  0  0  0
  8 25  2  0  0  0  0
  9 27  2  0  0  0  0
 15 10  1  6  0  0  0
 10 37  1  0  0  0  0
 17 11  1  6  0  0  0
 11 24  1  0  0  0  0
 11 25  1  0  0  0  0
 12 25  1  0  0  0  0
 12 27  1  0  0  0  0
 12 47  1  0  0  0  0
 13 14  1  0  0  0  0
 13 15  1  0  0  0  0
 13 29  1  0  0  0  0
 13 30  1  0  0  0  0
 14 21  1  0  0  0  0
 14 22  1  0  0  0  0
 14 31  1  0  0  0  0
 15 23  1  0  0  0  0
 15 32  1  0  0  0  0
 16 18  1  6  0  0  0
 16 19  1  0  0  0  0
 16 33  1  0  0  0  0
 17 20  1  0  0  0  0
 17 34  1  0  0  0  0
 18 35  1  0  0  0  0
 18 36  1  0  0  0  0
 19 20  2  0  0  0  0
 19 38  1  0  0  0  0
 20 39  1  0  0  0  0
 21 40  1  0  0  0  0
 21 41  1  0  0  0  0
 21 42  1  0  0  0  0
 22 43  1  0  0  0  0
 22 44  1  0  0  0  0
 22 45  1  0  0  0  0
 24 26  2  0  0  0  0
 24 46  1  0  0  0  0
 26 27  1  0  0  0  0
 26 28  1  0  0  0  0
 28 49  1  0  0  0  0
 28 50  1  0  0  0  0
 28 51  1  0  0  0  0
M  END
> <PUBCHEM_COMPOUND_CID>
511223
> <PUBCHEM_COMPOUND_CANONICALIZED>
1
> <PUBCHEM_CACTVS_COMPLEXITY>
750
> <PUBCHEM_CACTVS_HBOND_ACCEPTOR>
9
> <PUBCHEM_CACTVS_HBOND_DONOR>
4
> <PUBCHEM_CACTVS_ROTATABLE_BOND>
9
> <PUBCHEM_CACTVS_SUBSKEYS>
AAADceB7PAIAAAAAAAAAAAAAAAAAAQAAAAAgAAAAAAAAAAAAAAAAHgAQiCAADTzhgAYDCAPABxCIQiHWWICAAAAgAAAICIGIAEiDBBIAoQAOUAAMVyIKIMKIAAAMAAAAAAAAAAAAAAAAAAAAAAAAAAAAAA==
> <PUBCHEM_IUPAC_OPENEYE_NAME>
(2S)-2-[[hydroxy-[[(2S,5R)-5-(5-methyl-2,4-dioxo-pyrimidin-1-yl)-2,5-dihydrofuran-2-yl]methoxy]phosphoryl]amino]-4-methyl-pentanoic acid
> <PUBCHEM_IUPAC_CAS_NAME>
(2S)-2-[[hydroxy-[[(2S,5R)-5-(5-methyl-2,4-dioxo-1-pyrimidinyl)-2,5-dihydrofuran-2-yl]methoxy]phosphoryl]amino]-4-methylpentanoic acid
> <PUBCHEM_IUPAC_NAME_MARKUP>
(2<I>S</I>)-2-[[hydroxy-[[(2<I>S</I>,5<I>R</I>)-5-(5-methyl-2,4-dioxopyrimidin-1-yl)-2,5-dihydrofuran-2-yl]methoxy]phosphoryl]amino]-4-methylpentanoic acid
> <PUBCHEM_IUPAC_NAME>
(2S)-2-[[hydroxy-[[(2S,5R)-5-(5-methyl-2,4-dioxopyrimidin-1-yl)-2,5-dihydrofuran-2-yl]methoxy]phosphoryl]amino]-4-methylpentanoic acid
> <PUBCHEM_IUPAC_SYSTEMATIC_NAME>
(2S)-4-methyl-2-[[[(2S,5R)-5-[5-methyl-2,4-bis(oxidanylidene)pyrimidin-1-yl]-2,5-dihydrofuran-2-yl]methoxy-oxidanyl-phosphoryl]amino]pentanoic acid
> <PUBCHEM_IUPAC_TRADITIONAL_NAME>
(2S)-2-[[[(2S,5R)-5-(2,4-diketo-5-methyl-pyrimidin-1-yl)-2,5-dihydrofuran-2-yl]methoxy-hydroxy-phosphoryl]amino]-4-methyl-valeric acid
> <PUBCHEM_IUPAC_INCHI>
InChI=1S/C16H24N3O8P/c1-9(2)6-12(15(21)22)18-28(24,25)26-8-11-4-5-13(27-11)19-7-10(3)14(20)17-16(19)23/h4-5,7,9,11-13H,6,8H2,1-3H3,(H,21,22)(H,17,20,23)(H2,18,24,25)/t11-,12-,13+/m0/s1
> <PUBCHEM_IUPAC_INCHIKEY>
MIXQWFQBBDDHTB-RWMBFGLXSA-N
> <PUBCHEM_XLOGP3>
-0.3
> <PUBCHEM_EXACT_MASS>
417.13010173
> <PUBCHEM_MOLECULAR_FORMULA>
C16H24N3O8P
> <PUBCHEM_MOLECULAR_WEIGHT>
417.35
> <PUBCHEM_OPENEYE_CAN_SMILES>
CC1=CN(C(=O)NC1=O)C2C=CC(O2)COP(=O)(NC(CC(C)C)C(=O)O)O
> <PUBCHEM_OPENEYE_ISO_SMILES>
CC1=CN(C(=O)NC1=O)[C@H]2C=C[C@H](O2)COP(=O)(N[C@@H](CC(C)C)C(=O)O)O
> <PUBCHEM_CACTVS_TPSA>
155
> <PUBCHEM_MONOISOTOPIC_WEIGHT>
417.13010173
> <PUBCHEM_TOTAL_CHARGE>
0
> <PUBCHEM_HEAVY_ATOM_COUNT>
28
> <PUBCHEM_ATOM_DEF_STEREO_COUNT>
3
> <PUBCHEM_ATOM_UDEF_STEREO_COUNT>
0
> <PUBCHEM_BOND_DEF_STEREO_COUNT>
0
> <PUBCHEM_BOND_UDEF_STEREO_COUNT>
0
> <PUBCHEM_ISOTOPIC_ATOM_COUNT>
0
> <PUBCHEM_COMPONENT_COUNT>
1
> <PUBCHEM_CACTVS_TAUTO_COUNT>
-1
> <PUBCHEM_COORDINATE_TYPE>
1
5
255
> <PUBCHEM_BONDANNOTATIONS>
15  10  6
17  11  6
11  24  8
11  25  8
12  25  8
12  27  8
16  18  6
24  26  8
26  27  8
$$$$
