511215
  -OEChem-10302200282D
 43 44  0     1  0  0  0  0  0999 V2000
    5.0009   -2.0619    0.0000 P   0  0  3  0  0  0  0  0  0  0  0  0
    4.5411    1.4208    0.0000 O   0  0  0  0  0  0  0  0  0  0  0  0
    4.4131   -1.2528    0.0000 O   0  0  0  0  0  0  0  0  0  0  0  0
    4.1919   -2.6496    0.0000 O   0  0  0  0  0  0  0  0  0  0  0  0
    5.4641    3.0086    0.0000 O   0  0  0  0  0  0  0  0  0  0  0  0
    5.8099   -1.4741    0.0000 O   0  0  0  0  0  0  0  0  0  0  0  0
    3.7320    6.0086    0.0000 O   0  0  0  0  0  0  0  0  0  0  0  0
    5.3630   -5.5070    0.0000 O   0  0  0  0  0  0  0  0  0  0  0  0
    6.7642   -4.4889    0.0000 O   0  0  0  0  0  0  0  0  0  0  0  0
    3.7320    3.0086    0.0000 N   0  0  0  0  0  0  0  0  0  0  0  0
    5.5887   -2.8709    0.0000 N   0  0  0  0  0  0  0  0  0  0  0  0
    4.5981    4.5086    0.0000 N   0  0  0  0  0  0  0  0  0  0  0  0
    4.2320    0.4697    0.0000 C   0  0  1  0  0  0  0  0  0  0  0  0
    3.7320    2.0086    0.0000 C   0  0  1  0  0  0  0  0  0  0  0  0
    3.2320    0.4697    0.0000 C   0  0  0  0  0  0  0  0  0  0  0  0
    4.8198   -0.3393    0.0000 C   0  0  0  0  0  0  0  0  0  0  0  0
    2.9230    1.4208    0.0000 C   0  0  0  0  0  0  0  0  0  0  0  0
    2.8660    3.5086    0.0000 C   0  0  0  0  0  0  0  0  0  0  0  0
    4.5981    3.5086    0.0000 C   0  0  0  0  0  0  0  0  0  0  0  0
    2.8660    4.5086    0.0000 C   0  0  0  0  0  0  0  0  0  0  0  0
    5.1819   -3.7844    0.0000 C   0  0  2  0  0  0  0  0  0  0  0  0
    3.7320    5.0086    0.0000 C   0  0  0  0  0  0  0  0  0  0  0  0
    2.0000    5.0086    0.0000 C   0  0  0  0  0  0  0  0  0  0  0  0
    4.1874   -3.8889    0.0000 C   0  0  0  0  0  0  0  0  0  0  0  0
    5.7697   -4.5934    0.0000 C   0  0  0  0  0  0  0  0  0  0  0  0
    4.8444    0.5667    0.0000 H   0  0  0  0  0  0  0  0  0  0  0  0
    4.2845    2.2900    0.0000 H   0  0  0  0  0  0  0  0  0  0  0  0
    5.3338   -0.6860    0.0000 H   0  0  0  0  0  0  0  0  0  0  0  0
    5.2505    0.1067    0.0000 H   0  0  0  0  0  0  0  0  0  0  0  0
    2.8676   -0.0319    0.0000 H   0  0  0  0  0  0  0  0  0  0  0  0
    2.3334    1.6124    0.0000 H   0  0  0  0  0  0  0  0  0  0  0  0
    2.3291    3.1986    0.0000 H   0  0  0  0  0  0  0  0  0  0  0  0
    5.7985   -3.7196    0.0000 H   0  0  0  0  0  0  0  0  0  0  0  0
    6.2053   -2.8061    0.0000 H   0  0  0  0  0  0  0  0  0  0  0  0
    5.1350    4.8186    0.0000 H   0  0  0  0  0  0  0  0  0  0  0  0
    4.1226   -3.2723    0.0000 H   0  0  0  0  0  0  0  0  0  0  0  0
    3.5708   -3.9538    0.0000 H   0  0  0  0  0  0  0  0  0  0  0  0
    4.2522   -4.5056    0.0000 H   0  0  0  0  0  0  0  0  0  0  0  0
    2.3100    5.5455    0.0000 H   0  0  0  0  0  0  0  0  0  0  0  0
    1.4631    5.3186    0.0000 H   0  0  0  0  0  0  0  0  0  0  0  0
    1.6900    4.4716    0.0000 H   0  0  0  0  0  0  0  0  0  0  0  0
    3.6255   -2.3975    0.0000 H   0  0  0  0  0  0  0  0  0  0  0  0
    5.7274   -6.0086    0.0000 H   0  0  0  0  0  0  0  0  0  0  0  0
  1  3  1  0  0  0  0
  1  4  1  0  0  0  0
  1  6  2  0  0  0  0
  1 11  1  0  0  0  0
  2 13  1  0  0  0  0
  2 14  1  0  0  0  0
  3 16  1  0  0  0  0
  4 42  1  0  0  0  0
  5 19  2  0  0  0  0
  7 22  2  0  0  0  0
  8 25  1  0  0  0  0
  8 43  1  0  0  0  0
  9 25  2  0  0  0  0
 14 10  1  6  0  0  0
 10 18  1  0  0  0  0
 10 19  1  0  0  0  0
 21 11  1  1  0  0  0
 11 34  1  0  0  0  0
 12 19  1  0  0  0  0
 12 22  1  0  0  0  0
 12 35  1  0  0  0  0
 13 15  1  0  0  0  0
 13 16  1  6  0  0  0
 13 26  1  0  0  0  0
 14 17  1  0  0  0  0
 14 27  1  0  0  0  0
 15 17  2  0  0  0  0
 15 30  1  0  0  0  0
 16 28  1  0  0  0  0
 16 29  1  0  0  0  0
 17 31  1  0  0  0  0
 18 20  2  0  0  0  0
 18 32  1  0  0  0  0
 20 22  1  0  0  0  0
 20 23  1  0  0  0  0
 21 24  1  0  0  0  0
 21 25  1  0  0  0  0
 21 33  1  0  0  0  0
 23 39  1  0  0  0  0
 23 40  1  0  0  0  0
 23 41  1  0  0  0  0
 24 36  1  0  0  0  0
 24 37  1  0  0  0  0
 24 38  1  0  0  0  0
M  END
> <PUBCHEM_COMPOUND_CID>
511215
> <PUBCHEM_COMPOUND_CANONICALIZED>
1
> <PUBCHEM_CACTVS_COMPLEXITY>
691
> <PUBCHEM_CACTVS_HBOND_ACCEPTOR>
9
> <PUBCHEM_CACTVS_HBOND_DONOR>
4
> <PUBCHEM_CACTVS_ROTATABLE_BOND>
7
> <PUBCHEM_CACTVS_SUBSKEYS>
AAADceBzPAIAAAAAAAAAAAAAAAAAAQAAAAAgAAAAAAAAAAAAAAAAHgAQiCAADDzhgAYDCAPABxCIQiHWWICAAAAgAAAICIGIAEiDBAAAIQAOUAAIVyIKIMIAAAAAAAAAAAAAAAAAAAAAAAAAAAAAAAAAAA==
> <PUBCHEM_IUPAC_OPENEYE_NAME>
(2R)-2-[[hydroxy-[[(2S,5R)-5-(5-methyl-2,4-dioxo-pyrimidin-1-yl)-2,5-dihydrofuran-2-yl]methoxy]phosphoryl]amino]propanoic acid
> <PUBCHEM_IUPAC_CAS_NAME>
(2R)-2-[[hydroxy-[[(2S,5R)-5-(5-methyl-2,4-dioxo-1-pyrimidinyl)-2,5-dihydrofuran-2-yl]methoxy]phosphoryl]amino]propanoic acid
> <PUBCHEM_IUPAC_NAME_MARKUP>
(2<I>R</I>)-2-[[hydroxy-[[(2<I>S</I>,5<I>R</I>)-5-(5-methyl-2,4-dioxopyrimidin-1-yl)-2,5-dihydrofuran-2-yl]methoxy]phosphoryl]amino]propanoic acid
> <PUBCHEM_IUPAC_NAME>
(2R)-2-[[hydroxy-[[(2S,5R)-5-(5-methyl-2,4-dioxopyrimidin-1-yl)-2,5-dihydrofuran-2-yl]methoxy]phosphoryl]amino]propanoic acid
> <PUBCHEM_IUPAC_SYSTEMATIC_NAME>
(2R)-2-[[[(2S,5R)-5-[5-methyl-2,4-bis(oxidanylidene)pyrimidin-1-yl]-2,5-dihydrofuran-2-yl]methoxy-oxidanyl-phosphoryl]amino]propanoic acid
> <PUBCHEM_IUPAC_TRADITIONAL_NAME>
(2R)-2-[[[(2S,5R)-5-(2,4-diketo-5-methyl-pyrimidin-1-yl)-2,5-dihydrofuran-2-yl]methoxy-hydroxy-phosphoryl]amino]propionic acid
> <PUBCHEM_IUPAC_INCHI>
InChI=1S/C13H18N3O8P/c1-7-5-16(13(20)14-11(7)17)10-4-3-9(24-10)6-23-25(21,22)15-8(2)12(18)19/h3-5,8-10H,6H2,1-2H3,(H,18,19)(H,14,17,20)(H2,15,21,22)/t8-,9+,10-/m1/s1
> <PUBCHEM_IUPAC_INCHIKEY>
LEWGXEFLCSVQEP-KXUCPTDWSA-N
> <PUBCHEM_XLOGP3>
-1.7
> <PUBCHEM_EXACT_MASS>
375.08315154
> <PUBCHEM_MOLECULAR_FORMULA>
C13H18N3O8P
> <PUBCHEM_MOLECULAR_WEIGHT>
375.27
> <PUBCHEM_OPENEYE_CAN_SMILES>
CC1=CN(C(=O)NC1=O)C2C=CC(O2)COP(=O)(NC(C)C(=O)O)O
> <PUBCHEM_OPENEYE_ISO_SMILES>
CC1=CN(C(=O)NC1=O)[C@H]2C=C[C@H](O2)COP(=O)(N[C@H](C)C(=O)O)O
> <PUBCHEM_CACTVS_TPSA>
155
> <PUBCHEM_MONOISOTOPIC_WEIGHT>
375.08315154
> <PUBCHEM_TOTAL_CHARGE>
0
> <PUBCHEM_HEAVY_ATOM_COUNT>
25
> <PUBCHEM_ATOM_DEF_STEREO_COUNT>
3
> <PUBCHEM_ATOM_UDEF_STEREO_COUNT>
0
> <PUBCHEM_BOND_DEF_STEREO_COUNT>
0
> <PUBCHEM_BOND_UDEF_STEREO_COUNT>
0
> <PUBCHEM_ISOTOPIC_ATOM_COUNT>
0
> <PUBCHEM_COMPONENT_COUNT>
1
> <PUBCHEM_CACTVS_TAUTO_COUNT>
-1
> <PUBCHEM_COORDINATE_TYPE>
1
5
255
> <PUBCHEM_BONDANNOTATIONS>
14  10  6
10  18  8
10  19  8
21  11  5
12  19  8
12  22  8
13  16  6
18  20  8
20  22  8
$$$$
