511275
  -OEChem-10302200282D
 39 40  0     1  0  0  0  0  0999 V2000
    2.3660    0.0639    0.0000 S   0  0  0  0  0  0  0  0  0  0  0  0
    3.6750    1.0150    0.0000 O   0  0  0  0  0  0  0  0  0  0  0  0
    3.5471   -1.6586    0.0000 O   0  0  0  0  0  0  0  0  0  0  0  0
    4.5981    2.6028    0.0000 O   0  0  0  0  0  0  0  0  0  0  0  0
    5.1294   -2.3631    0.0000 O   0  0  0  0  0  0  0  0  0  0  0  0
    2.8660    2.6028    0.0000 N   0  0  0  0  0  0  0  0  0  0  0  0
    3.7320    4.1028    0.0000 N   0  0  0  0  0  0  0  0  0  0  0  0
    3.7281   -3.3812    0.0000 N   0  0  0  0  0  0  0  0  0  0  0  0
    2.8660    5.6028    0.0000 N   0  0  0  0  0  0  0  0  0  0  0  0
    2.8660    1.6028    0.0000 C   0  0  2  0  0  0  0  0  0  0  0  0
    3.3660    0.0639    0.0000 C   0  0  1  0  0  0  0  0  0  0  0  0
    2.0570    1.0150    0.0000 C   0  0  0  0  0  0  0  0  0  0  0  0
    3.9538   -0.7451    0.0000 C   0  0  0  0  0  0  0  0  0  0  0  0
    2.0000    3.1028    0.0000 C   0  0  0  0  0  0  0  0  0  0  0  0
    3.7320    3.1028    0.0000 C   0  0  0  0  0  0  0  0  0  0  0  0
    2.0000    4.1028    0.0000 C   0  0  0  0  0  0  0  0  0  0  0  0
    2.8660    4.6028    0.0000 C   0  0  0  0  0  0  0  0  0  0  0  0
    4.3159   -4.1902    0.0000 C   0  0  0  0  0  0  0  0  0  0  0  0
    4.1349   -2.4676    0.0000 C   0  0  0  0  0  0  0  0  0  0  0  0
    3.9092   -5.1038    0.0000 C   0  0  0  0  0  0  0  0  0  0  0  0
    4.4970   -5.9128    0.0000 C   0  0  0  0  0  0  0  0  0  0  0  0
    3.4184    1.8842    0.0000 H   0  0  0  0  0  0  0  0  0  0  0  0
    3.9784    0.1609    0.0000 H   0  0  0  0  0  0  0  0  0  0  0  0
    1.7470    1.5519    0.0000 H   0  0  0  0  0  0  0  0  0  0  0  0
    1.4906    0.7628    0.0000 H   0  0  0  0  0  0  0  0  0  0  0  0
    4.4678   -1.0918    0.0000 H   0  0  0  0  0  0  0  0  0  0  0  0
    4.3845   -0.2991    0.0000 H   0  0  0  0  0  0  0  0  0  0  0  0
    1.4631    2.7928    0.0000 H   0  0  0  0  0  0  0  0  0  0  0  0
    1.4631    4.4128    0.0000 H   0  0  0  0  0  0  0  0  0  0  0  0
    4.8299   -4.5369    0.0000 H   0  0  0  0  0  0  0  0  0  0  0  0
    4.7466   -3.7442    0.0000 H   0  0  0  0  0  0  0  0  0  0  0  0
    3.3952   -4.7571    0.0000 H   0  0  0  0  0  0  0  0  0  0  0  0
    3.4785   -5.5498    0.0000 H   0  0  0  0  0  0  0  0  0  0  0  0
    3.1115   -3.4460    0.0000 H   0  0  0  0  0  0  0  0  0  0  0  0
    3.9954   -6.2772    0.0000 H   0  0  0  0  0  0  0  0  0  0  0  0
    4.8614   -6.4144    0.0000 H   0  0  0  0  0  0  0  0  0  0  0  0
    4.9986   -5.5484    0.0000 H   0  0  0  0  0  0  0  0  0  0  0  0
    2.3291    5.9128    0.0000 H   0  0  0  0  0  0  0  0  0  0  0  0
    3.4030    5.9128    0.0000 H   0  0  0  0  0  0  0  0  0  0  0  0
  1 11  1  0  0  0  0
  1 12  1  0  0  0  0
  2 10  1  0  0  0  0
  2 11  1  0  0  0  0
  3 13  1  0  0  0  0
  3 19  1  0  0  0  0
  4 15  2  0  0  0  0
  5 19  2  0  0  0  0
 10  6  1  1  0  0  0
  6 14  1  0  0  0  0
  6 15  1  0  0  0  0
  7 15  1  0  0  0  0
  7 17  2  0  0  0  0
  8 18  1  0  0  0  0
  8 19  1  0  0  0  0
  8 34  1  0  0  0  0
  9 17  1  0  0  0  0
  9 38  1  0  0  0  0
  9 39  1  0  0  0  0
 10 12  1  0  0  0  0
 10 22  1  0  0  0  0
 11 13  1  1  0  0  0
 11 23  1  0  0  0  0
 12 24  1  0  0  0  0
 12 25  1  0  0  0  0
 13 26  1  0  0  0  0
 13 27  1  0  0  0  0
 14 16  2  0  0  0  0
 14 28  1  0  0  0  0
 16 17  1  0  0  0  0
 16 29  1  0  0  0  0
 18 20  1  0  0  0  0
 18 30  1  0  0  0  0
 18 31  1  0  0  0  0
 20 21  1  0  0  0  0
 20 32  1  0  0  0  0
 20 33  1  0  0  0  0
 21 35  1  0  0  0  0
 21 36  1  0  0  0  0
 21 37  1  0  0  0  0
M  END
> <PUBCHEM_COMPOUND_CID>
511275
> <PUBCHEM_COMPOUND_CANONICALIZED>
1
> <PUBCHEM_CACTVS_COMPLEXITY>
468
> <PUBCHEM_CACTVS_HBOND_ACCEPTOR>
5
> <PUBCHEM_CACTVS_HBOND_DONOR>
2
> <PUBCHEM_CACTVS_ROTATABLE_BOND>
6
> <PUBCHEM_CACTVS_SUBSKEYS>
AAADceBzuABAAAAAAAAAAAAAAAAAASAAAAAgAAAAAAAAAAAAAAAAHgQQAAAACADlwAaDCAPABAioACJmfACAAAEAAhAIAIAYABGBAAAAAAAOAAAAFgIiAAAAAAAAAAAAAAAAAAAAAAAAAAAAAAAAAAAAAA==
> <PUBCHEM_IUPAC_OPENEYE_NAME>
[(2R,5S)-5-(4-amino-2-oxo-pyrimidin-1-yl)-1,3-oxathiolan-2-yl]methyl N-propylcarbamate
> <PUBCHEM_IUPAC_CAS_NAME>
N-propylcarbamic acid [(2R,5S)-5-(4-amino-2-oxo-1-pyrimidinyl)-1,3-oxathiolan-2-yl]methyl ester
> <PUBCHEM_IUPAC_NAME_MARKUP>
[(2<I>R</I>,5<I>S</I>)-5-(4-amino-2-oxopyrimidin-1-yl)-1,3-oxathiolan-2-yl]methyl <I>N</I>-propylcarbamate
> <PUBCHEM_IUPAC_NAME>
[(2R,5S)-5-(4-amino-2-oxopyrimidin-1-yl)-1,3-oxathiolan-2-yl]methyl N-propylcarbamate
> <PUBCHEM_IUPAC_SYSTEMATIC_NAME>
[(2R,5S)-5-(4-azanyl-2-oxidanylidene-pyrimidin-1-yl)-1,3-oxathiolan-2-yl]methyl N-propylcarbamate
> <PUBCHEM_IUPAC_TRADITIONAL_NAME>
N-propylcarbamic acid [(2R,5S)-5-(4-amino-2-keto-pyrimidin-1-yl)-1,3-oxathiolan-2-yl]methyl ester
> <PUBCHEM_IUPAC_INCHI>
InChI=1S/C12H18N4O4S/c1-2-4-14-12(18)19-6-10-20-9(7-21-10)16-5-3-8(13)15-11(16)17/h3,5,9-10H,2,4,6-7H2,1H3,(H,14,18)(H2,13,15,17)/t9-,10+/m0/s1
> <PUBCHEM_IUPAC_INCHIKEY>
ACRBRUNSDAQVLW-VHSXEESVSA-N
> <PUBCHEM_XLOGP3>
0.4
> <PUBCHEM_EXACT_MASS>
314.10487624
> <PUBCHEM_MOLECULAR_FORMULA>
C12H18N4O4S
> <PUBCHEM_MOLECULAR_WEIGHT>
314.36
> <PUBCHEM_OPENEYE_CAN_SMILES>
CCCNC(=O)OCC1OC(CS1)N2C=CC(=NC2=O)N
> <PUBCHEM_OPENEYE_ISO_SMILES>
CCCNC(=O)OC[C@@H]1O[C@@H](CS1)N2C=CC(=NC2=O)N
> <PUBCHEM_CACTVS_TPSA>
132
> <PUBCHEM_MONOISOTOPIC_WEIGHT>
314.10487624
> <PUBCHEM_TOTAL_CHARGE>
0
> <PUBCHEM_HEAVY_ATOM_COUNT>
21
> <PUBCHEM_ATOM_DEF_STEREO_COUNT>
2
> <PUBCHEM_ATOM_UDEF_STEREO_COUNT>
0
> <PUBCHEM_BOND_DEF_STEREO_COUNT>
0
> <PUBCHEM_BOND_UDEF_STEREO_COUNT>
0
> <PUBCHEM_ISOTOPIC_ATOM_COUNT>
0
> <PUBCHEM_COMPONENT_COUNT>
1
> <PUBCHEM_CACTVS_TAUTO_COUNT>
-1
> <PUBCHEM_COORDINATE_TYPE>
1
5
255
> <PUBCHEM_BONDANNOTATIONS>
11  13  5
14  16  8
16  17  8
10  6  5
6  14  8
6  15  8
7  15  8
7  17  8
$$$$
