511231
  -OEChem-10302200282D
 46 47  0     1  0  0  0  0  0999 V2000
    5.0009   -1.2006    0.0000 P   0  0  3  0  0  0  0  0  0  0  0  0
    4.5411    2.2821    0.0000 O   0  0  0  0  0  0  0  0  0  0  0  0
    4.4131   -0.3916    0.0000 O   0  0  0  0  0  0  0  0  0  0  0  0
    4.1919   -1.7884    0.0000 O   0  0  0  0  0  0  0  0  0  0  0  0
    5.8099   -0.6128    0.0000 O   0  0  0  0  0  0  0  0  0  0  0  0
    5.4641    3.8698    0.0000 O   0  0  0  0  0  0  0  0  0  0  0  0
    3.7320    6.8698    0.0000 O   0  0  0  0  0  0  0  0  0  0  0  0
    5.5440   -6.3683    0.0000 O   0  0  0  0  0  0  0  0  0  0  0  0
    6.9453   -5.3502    0.0000 O   0  0  0  0  0  0  0  0  0  0  0  0
    3.7320    3.8698    0.0000 N   0  0  0  0  0  0  0  0  0  0  0  0
    5.5887   -2.0096    0.0000 N   0  0  0  0  0  0  0  0  0  0  0  0
    4.5981    5.3698    0.0000 N   0  0  0  0  0  0  0  0  0  0  0  0
    4.2320    1.3310    0.0000 C   0  0  2  0  0  0  0  0  0  0  0  0
    3.7320    2.8698    0.0000 C   0  0  1  0  0  0  0  0  0  0  0  0
    4.8198    0.5220    0.0000 C   0  0  0  0  0  0  0  0  0  0  0  0
    3.2320    1.3310    0.0000 C   0  0  0  0  0  0  0  0  0  0  0  0
    2.9230    2.2821    0.0000 C   0  0  0  0  0  0  0  0  0  0  0  0
    2.8660    4.3698    0.0000 C   0  0  0  0  0  0  0  0  0  0  0  0
    4.5981    4.3698    0.0000 C   0  0  0  0  0  0  0  0  0  0  0  0
    5.1819   -2.9231    0.0000 C   0  0  0  0  0  0  0  0  0  0  0  0
    2.8660    5.3698    0.0000 C   0  0  0  0  0  0  0  0  0  0  0  0
    5.7697   -3.7322    0.0000 C   0  0  0  0  0  0  0  0  0  0  0  0
    3.7320    5.8698    0.0000 C   0  0  0  0  0  0  0  0  0  0  0  0
    5.3630   -4.6457    0.0000 C   0  0  0  0  0  0  0  0  0  0  0  0
    2.0000    5.8698    0.0000 C   0  0  0  0  0  0  0  0  0  0  0  0
    5.9508   -5.4547    0.0000 C   0  0  0  0  0  0  0  0  0  0  0  0
    4.8444    1.4280    0.0000 H   0  0  0  0  0  0  0  0  0  0  0  0
    4.2845    3.1513    0.0000 H   0  0  0  0  0  0  0  0  0  0  0  0
    5.3338    0.1753    0.0000 H   0  0  0  0  0  0  0  0  0  0  0  0
    5.2505    0.9680    0.0000 H   0  0  0  0  0  0  0  0  0  0  0  0
    2.8676    0.8294    0.0000 H   0  0  0  0  0  0  0  0  0  0  0  0
    2.3334    2.4736    0.0000 H   0  0  0  0  0  0  0  0  0  0  0  0
    2.3291    4.0598    0.0000 H   0  0  0  0  0  0  0  0  0  0  0  0
    4.6679   -2.5764    0.0000 H   0  0  0  0  0  0  0  0  0  0  0  0
    4.7512   -3.3691    0.0000 H   0  0  0  0  0  0  0  0  0  0  0  0
    6.2837   -4.0788    0.0000 H   0  0  0  0  0  0  0  0  0  0  0  0
    6.2004   -3.2862    0.0000 H   0  0  0  0  0  0  0  0  0  0  0  0
    6.2053   -1.9448    0.0000 H   0  0  0  0  0  0  0  0  0  0  0  0
    5.1350    5.6798    0.0000 H   0  0  0  0  0  0  0  0  0  0  0  0
    4.8490   -4.2990    0.0000 H   0  0  0  0  0  0  0  0  0  0  0  0
    4.9323   -5.0917    0.0000 H   0  0  0  0  0  0  0  0  0  0  0  0
    2.3100    6.4068    0.0000 H   0  0  0  0  0  0  0  0  0  0  0  0
    1.4631    6.1798    0.0000 H   0  0  0  0  0  0  0  0  0  0  0  0
    1.6900    5.3329    0.0000 H   0  0  0  0  0  0  0  0  0  0  0  0
    3.6255   -1.5362    0.0000 H   0  0  0  0  0  0  0  0  0  0  0  0
    5.9085   -6.8698    0.0000 H   0  0  0  0  0  0  0  0  0  0  0  0
  1  3  1  0  0  0  0
  1  4  1  0  0  0  0
  1  5  2  0  0  0  0
  1 11  1  0  0  0  0
  2 13  1  0  0  0  0
  2 14  1  0  0  0  0
  3 15  1  0  0  0  0
  4 45  1  0  0  0  0
  6 19  2  0  0  0  0
  7 23  2  0  0  0  0
  8 26  1  0  0  0  0
  8 46  1  0  0  0  0
  9 26  2  0  0  0  0
 14 10  1  6  0  0  0
 10 18  1  0  0  0  0
 10 19  1  0  0  0  0
 11 20  1  0  0  0  0
 11 38  1  0  0  0  0
 12 19  1  0  0  0  0
 12 23  1  0  0  0  0
 12 39  1  0  0  0  0
 13 15  1  6  0  0  0
 13 16  1  0  0  0  0
 13 27  1  0  0  0  0
 14 17  1  0  0  0  0
 14 28  1  0  0  0  0
 15 29  1  0  0  0  0
 15 30  1  0  0  0  0
 16 17  2  0  0  0  0
 16 31  1  0  0  0  0
 17 32  1  0  0  0  0
 18 21  2  0  0  0  0
 18 33  1  0  0  0  0
 20 22  1  0  0  0  0
 20 34  1  0  0  0  0
 20 35  1  0  0  0  0
 21 23  1  0  0  0  0
 21 25  1  0  0  0  0
 22 24  1  0  0  0  0
 22 36  1  0  0  0  0
 22 37  1  0  0  0  0
 24 26  1  0  0  0  0
 24 40  1  0  0  0  0
 24 41  1  0  0  0  0
 25 42  1  0  0  0  0
 25 43  1  0  0  0  0
 25 44  1  0  0  0  0
M  END
> <PUBCHEM_COMPOUND_CID>
511231
> <PUBCHEM_COMPOUND_CANONICALIZED>
1
> <PUBCHEM_CACTVS_COMPLEXITY>
692
> <PUBCHEM_CACTVS_HBOND_ACCEPTOR>
9
> <PUBCHEM_CACTVS_HBOND_DONOR>
4
> <PUBCHEM_CACTVS_ROTATABLE_BOND>
9
> <PUBCHEM_CACTVS_SUBSKEYS>
AAADceBzPAIAAAAAAAAAAAAAAAAAAQAAAAAgAAAAAAAAAAAAAAAAHgAQiCAADBThgAYDCAPABxCIQiHWWICAAAAgAAAICIEIAEiBBBAAoQAOUAAMVyIKIMIkAAAAAAAAAAAAAAAAAAAAAAAAAAAAAAAAAA==
> <PUBCHEM_IUPAC_OPENEYE_NAME>
4-[[hydroxy-[[(2S,5R)-5-(5-methyl-2,4-dioxo-pyrimidin-1-yl)-2,5-dihydrofuran-2-yl]methoxy]phosphoryl]amino]butanoic acid
> <PUBCHEM_IUPAC_CAS_NAME>
4-[[hydroxy-[[(2S,5R)-5-(5-methyl-2,4-dioxo-1-pyrimidinyl)-2,5-dihydrofuran-2-yl]methoxy]phosphoryl]amino]butanoic acid
> <PUBCHEM_IUPAC_NAME_MARKUP>
4-[[hydroxy-[[(2<I>S</I>,5<I>R</I>)-5-(5-methyl-2,4-dioxopyrimidin-1-yl)-2,5-dihydrofuran-2-yl]methoxy]phosphoryl]amino]butanoic acid
> <PUBCHEM_IUPAC_NAME>
4-[[hydroxy-[[(2S,5R)-5-(5-methyl-2,4-dioxopyrimidin-1-yl)-2,5-dihydrofuran-2-yl]methoxy]phosphoryl]amino]butanoic acid
> <PUBCHEM_IUPAC_SYSTEMATIC_NAME>
4-[[[(2S,5R)-5-[5-methyl-2,4-bis(oxidanylidene)pyrimidin-1-yl]-2,5-dihydrofuran-2-yl]methoxy-oxidanyl-phosphoryl]amino]butanoic acid
> <PUBCHEM_IUPAC_TRADITIONAL_NAME>
4-[[[(2S,5R)-5-(2,4-diketo-5-methyl-pyrimidin-1-yl)-2,5-dihydrofuran-2-yl]methoxy-hydroxy-phosphoryl]amino]butyric acid
> <PUBCHEM_IUPAC_INCHI>
InChI=1S/C14H20N3O8P/c1-9-7-17(14(21)16-13(9)20)11-5-4-10(25-11)8-24-26(22,23)15-6-2-3-12(18)19/h4-5,7,10-11H,2-3,6,8H2,1H3,(H,18,19)(H2,15,22,23)(H,16,20,21)/t10-,11+/m0/s1
> <PUBCHEM_IUPAC_INCHIKEY>
DYLWDELUTPEZCU-WDEREUQCSA-N
> <PUBCHEM_XLOGP3>
-1.8
> <PUBCHEM_EXACT_MASS>
389.09880160
> <PUBCHEM_MOLECULAR_FORMULA>
C14H20N3O8P
> <PUBCHEM_MOLECULAR_WEIGHT>
389.30
> <PUBCHEM_OPENEYE_CAN_SMILES>
CC1=CN(C(=O)NC1=O)C2C=CC(O2)COP(=O)(NCCCC(=O)O)O
> <PUBCHEM_OPENEYE_ISO_SMILES>
CC1=CN(C(=O)NC1=O)[C@H]2C=C[C@H](O2)COP(=O)(NCCCC(=O)O)O
> <PUBCHEM_CACTVS_TPSA>
155
> <PUBCHEM_MONOISOTOPIC_WEIGHT>
389.09880160
> <PUBCHEM_TOTAL_CHARGE>
0
> <PUBCHEM_HEAVY_ATOM_COUNT>
26
> <PUBCHEM_ATOM_DEF_STEREO_COUNT>
2
> <PUBCHEM_ATOM_UDEF_STEREO_COUNT>
0
> <PUBCHEM_BOND_DEF_STEREO_COUNT>
0
> <PUBCHEM_BOND_UDEF_STEREO_COUNT>
0
> <PUBCHEM_ISOTOPIC_ATOM_COUNT>
0
> <PUBCHEM_COMPONENT_COUNT>
1
> <PUBCHEM_CACTVS_TAUTO_COUNT>
-1
> <PUBCHEM_COORDINATE_TYPE>
1
5
255
> <PUBCHEM_BONDANNOTATIONS>
14  10  6
10  18  8
10  19  8
12  19  8
12  23  8
13  15  6
18  21  8
21  23  8
$$$$
