511233
  -OEChem-10302200282D
 60 62  0     1  0  0  0  0  0999 V2000
   10.5921   -3.6138    0.0000 Cl  0  0  0  0  0  0  0  0  0  0  0  0
   12.0011   -0.4492    0.0000 Cl  0  0  0  0  0  0  0  0  0  0  0  0
    7.7469   -1.3991    0.0000 P   0  0  3  0  0  0  0  0  0  0  0  0
    5.8858    1.0655    0.0000 O   0  0  0  0  0  0  0  0  0  0  0  0
    7.1591   -0.5901    0.0000 O   0  0  0  0  0  0  0  0  0  0  0  0
    8.5559   -0.8113    0.0000 O   0  0  0  0  0  0  0  0  0  0  0  0
    6.8089    2.6532    0.0000 O   0  0  0  0  0  0  0  0  0  0  0  0
    6.9379   -1.9869    0.0000 O   0  0  0  0  0  0  0  0  0  0  0  0
    5.0768    5.6532    0.0000 O   0  0  0  0  0  0  0  0  0  0  0  0
    8.1090   -4.8442    0.0000 O   0  0  0  0  0  0  0  0  0  0  0  0
    9.5103   -3.8262    0.0000 O   0  0  0  0  0  0  0  0  0  0  0  0
    5.0768    2.6532    0.0000 N   0  0  0  0  0  0  0  0  0  0  0  0
    3.9890   -0.6946    0.0000 N   0  0  0  0  0  0  0  0  0  0  0  0
    5.9428    4.1532    0.0000 N   0  0  0  0  0  0  0  0  0  0  0  0
    8.3347   -2.2081    0.0000 N   0  0  0  0  0  0  0  0  0  0  0  0
    2.9945   -0.5901    0.0000 N   0  3  0  0  0  0  0  0  0  0  0  0
    2.0000   -0.4856    0.0000 N   0  5  0  0  0  0  0  0  0  0  0  0
    4.5768    0.1144    0.0000 C   0  0  2  0  0  0  0  0  0  0  0  0
    5.5768    0.1144    0.0000 C   0  0  1  0  0  0  0  0  0  0  0  0
    4.2678    1.0655    0.0000 C   0  0  0  0  0  0  0  0  0  0  0  0
    5.0768    1.6532    0.0000 C   0  0  1  0  0  0  0  0  0  0  0  0
    6.1646   -0.6946    0.0000 C   0  0  0  0  0  0  0  0  0  0  0  0
    4.2108    3.1532    0.0000 C   0  0  0  0  0  0  0  0  0  0  0  0
    5.9428    3.1532    0.0000 C   0  0  0  0  0  0  0  0  0  0  0  0
    4.2108    4.1532    0.0000 C   0  0  0  0  0  0  0  0  0  0  0  0
    5.0768    4.6532    0.0000 C   0  0  0  0  0  0  0  0  0  0  0  0
    3.3448    4.6532    0.0000 C   0  0  0  0  0  0  0  0  0  0  0  0
    7.9280   -3.1217    0.0000 C   0  0  1  0  0  0  0  0  0  0  0  0
    6.9334   -3.2262    0.0000 C   0  0  0  0  0  0  0  0  0  0  0  0
    9.4695   -1.2180    0.0000 C   0  0  0  0  0  0  0  0  0  0  0  0
    8.5158   -3.9307    0.0000 C   0  0  0  0  0  0  0  0  0  0  0  0
   10.2785   -0.6303    0.0000 C   0  0  0  0  0  0  0  0  0  0  0  0
    9.5740   -2.2126    0.0000 C   0  0  0  0  0  0  0  0  0  0  0  0
   10.4876   -2.6193    0.0000 C   0  0  0  0  0  0  0  0  0  0  0  0
   11.1920   -1.0370    0.0000 C   0  0  0  0  0  0  0  0  0  0  0  0
   11.2966   -2.0315    0.0000 C   0  0  0  0  0  0  0  0  0  0  0  0
    8.6968   -5.6532    0.0000 C   0  0  0  0  0  0  0  0  0  0  0  0
    3.9645    0.2114    0.0000 H   0  0  0  0  0  0  0  0  0  0  0  0
    6.1892    0.2114    0.0000 H   0  0  0  0  0  0  0  0  0  0  0  0
    3.9578    1.6024    0.0000 H   0  0  0  0  0  0  0  0  0  0  0  0
    3.7014    0.8133    0.0000 H   0  0  0  0  0  0  0  0  0  0  0  0
    4.5244    1.9347    0.0000 H   0  0  0  0  0  0  0  0  0  0  0  0
    5.6074   -0.9664    0.0000 H   0  0  0  0  0  0  0  0  0  0  0  0
    6.3355   -1.2906    0.0000 H   0  0  0  0  0  0  0  0  0  0  0  0
    3.6739    2.8432    0.0000 H   0  0  0  0  0  0  0  0  0  0  0  0
    6.4798    4.4632    0.0000 H   0  0  0  0  0  0  0  0  0  0  0  0
    8.9513   -2.1433    0.0000 H   0  0  0  0  0  0  0  0  0  0  0  0
    8.5446   -3.0569    0.0000 H   0  0  0  0  0  0  0  0  0  0  0  0
    3.6548    5.1902    0.0000 H   0  0  0  0  0  0  0  0  0  0  0  0
    2.8078    4.9632    0.0000 H   0  0  0  0  0  0  0  0  0  0  0  0
    3.0348    4.1163    0.0000 H   0  0  0  0  0  0  0  0  0  0  0  0
    6.8686   -2.6096    0.0000 H   0  0  0  0  0  0  0  0  0  0  0  0
    6.3168   -3.2910    0.0000 H   0  0  0  0  0  0  0  0  0  0  0  0
    6.9983   -3.8428    0.0000 H   0  0  0  0  0  0  0  0  0  0  0  0
   10.2137   -0.0137    0.0000 H   0  0  0  0  0  0  0  0  0  0  0  0
    9.0724   -2.5770    0.0000 H   0  0  0  0  0  0  0  0  0  0  0  0
   11.8630   -2.2837    0.0000 H   0  0  0  0  0  0  0  0  0  0  0  0
    8.1952   -6.0177    0.0000 H   0  0  0  0  0  0  0  0  0  0  0  0
    9.0612   -6.1548    0.0000 H   0  0  0  0  0  0  0  0  0  0  0  0
    9.1984   -5.2888    0.0000 H   0  0  0  0  0  0  0  0  0  0  0  0
  1 34  1  0  0  0  0
  2 35  1  0  0  0  0
  3  5  1  0  0  0  0
  3  6  1  0  0  0  0
  3  8  2  0  0  0  0
  3 15  1  0  0  0  0
  4 19  1  0  0  0  0
  4 21  1  0  0  0  0
  5 22  1  0  0  0  0
  6 30  1  0  0  0  0
  7 24  2  0  0  0  0
  9 26  2  0  0  0  0
 10 31  1  0  0  0  0
 10 37  1  0  0  0  0
 11 31  2  0  0  0  0
 21 12  1  6  0  0  0
 12 23  1  0  0  0  0
 12 24  1  0  0  0  0
 13 16  2  0  0  0  0
 18 13  1  1  0  0  0
 14 24  1  0  0  0  0
 14 26  1  0  0  0  0
 14 46  1  0  0  0  0
 28 15  1  6  0  0  0
 15 47  1  0  0  0  0
 16 17  2  0  0  0  0
 18 19  1  0  0  0  0
 18 20  1  0  0  0  0
 18 38  1  0  0  0  0
 19 22  1  6  0  0  0
 19 39  1  0  0  0  0
 20 21  1  0  0  0  0
 20 40  1  0  0  0  0
 20 41  1  0  0  0  0
 21 42  1  0  0  0  0
 22 43  1  0  0  0  0
 22 44  1  0  0  0  0
 23 25  2  0  0  0  0
 23 45  1  0  0  0  0
 25 26  1  0  0  0  0
 25 27  1  0  0  0  0
 27 49  1  0  0  0  0
 27 50  1  0  0  0  0
 27 51  1  0  0  0  0
 28 29  1  0  0  0  0
 28 31  1  0  0  0  0
 28 48  1  0  0  0  0
 29 52  1  0  0  0  0
 29 53  1  0  0  0  0
 29 54  1  0  0  0  0
 30 32  2  0  0  0  0
 30 33  1  0  0  0  0
 32 35  1  0  0  0  0
 32 55  1  0  0  0  0
 33 34  2  0  0  0  0
 33 56  1  0  0  0  0
 34 36  1  0  0  0  0
 35 36  2  0  0  0  0
 36 57  1  0  0  0  0
 37 58  1  0  0  0  0
 37 59  1  0  0  0  0
 37 60  1  0  0  0  0
M  CHG  2  16   1  17  -1
M  END
> <PUBCHEM_COMPOUND_CID>
511233
> <PUBCHEM_COMPOUND_CANONICALIZED>
1
> <PUBCHEM_CACTVS_COMPLEXITY>
1020
> <PUBCHEM_CACTVS_HBOND_ACCEPTOR>
11
> <PUBCHEM_CACTVS_HBOND_DONOR>
2
> <PUBCHEM_CACTVS_ROTATABLE_BOND>
11
> <PUBCHEM_CACTVS_SUBSKEYS>
AAADceB7vAIGAAAAAAAAAAAAAAAAASAAAAAwQAAAAAAAAAABAAAAHgIYgCAADD7hkCYzDoPABRCKQiHWWICCAAAgJQAAiIGOCsiLJiKB0xKPMAAu1zMKiMewcAIAAAAAAQCAAAAAAAACAQAAAAAAAAAAAA==
> <PUBCHEM_IUPAC_OPENEYE_NAME>
methyl (2S)-2-[[[(2S,3S,5R)-3-azido-5-(5-methyl-2,4-dioxo-pyrimidin-1-yl)tetrahydrofuran-2-yl]methoxy-(3,5-dichlorophenoxy)phosphoryl]amino]propanoate
> <PUBCHEM_IUPAC_CAS_NAME>
(2S)-2-[[[(2S,3S,5R)-3-azido-5-(5-methyl-2,4-dioxo-1-pyrimidinyl)-2-oxolanyl]methoxy-(3,5-dichlorophenoxy)phosphoryl]amino]propanoic acid methyl ester
> <PUBCHEM_IUPAC_NAME_MARKUP>
methyl (2<I>S</I>)-2-[[[(2<I>S</I>,3<I>S</I>,5<I>R</I>)-3-azido-5-(5-methyl-2,4-dioxopyrimidin-1-yl)oxolan-2-yl]methoxy-(3,5-dichlorophenoxy)phosphoryl]amino]propanoate
> <PUBCHEM_IUPAC_NAME>
methyl (2S)-2-[[[(2S,3S,5R)-3-azido-5-(5-methyl-2,4-dioxopyrimidin-1-yl)oxolan-2-yl]methoxy-(3,5-dichlorophenoxy)phosphoryl]amino]propanoate
> <PUBCHEM_IUPAC_SYSTEMATIC_NAME>
methyl (2S)-2-[[[(2S,3S,5R)-3-azido-5-[5-methyl-2,4-bis(oxidanylidene)pyrimidin-1-yl]oxolan-2-yl]methoxy-[3,5-bis(chloranyl)phenoxy]phosphoryl]amino]propanoate
> <PUBCHEM_IUPAC_TRADITIONAL_NAME>
(2S)-2-[[[(2S,3S,5R)-3-azido-5-(2,4-diketo-5-methyl-pyrimidin-1-yl)tetrahydrofuran-2-yl]methoxy-(3,5-dichlorophenoxy)phosphoryl]amino]propionic acid methyl ester
> <PUBCHEM_IUPAC_INCHI>
InChI=1S/C20H23Cl2N6O8P/c1-10-8-28(20(31)24-18(10)29)17-7-15(25-27-23)16(35-17)9-34-37(32,26-11(2)19(30)33-3)36-14-5-12(21)4-13(22)6-14/h4-6,8,11,15-17H,7,9H2,1-3H3,(H,26,32)(H,24,29,31)/t11-,15-,16+,17+,37?/m0/s1
> <PUBCHEM_IUPAC_INCHIKEY>
FCHJIQURAUPEFC-UFWAGODXSA-N
> <PUBCHEM_XLOGP3>
3.1
> <PUBCHEM_EXACT_MASS>
576.0692041
> <PUBCHEM_MOLECULAR_FORMULA>
C20H23Cl2N6O8P
> <PUBCHEM_MOLECULAR_WEIGHT>
577.3
> <PUBCHEM_OPENEYE_CAN_SMILES>
CC1=CN(C(=O)NC1=O)C2CC(C(O2)COP(=O)(NC(C)C(=O)OC)OC3=CC(=CC(=C3)Cl)Cl)N=[N+]=[N-]
> <PUBCHEM_OPENEYE_ISO_SMILES>
CC1=CN(C(=O)NC1=O)[C@H]2C[C@@H]([C@H](O2)COP(=O)(N[C@@H](C)C(=O)OC)OC3=CC(=CC(=C3)Cl)Cl)N=[N+]=[N-]
> <PUBCHEM_CACTVS_TPSA>
147
> <PUBCHEM_MONOISOTOPIC_WEIGHT>
576.0692041
> <PUBCHEM_TOTAL_CHARGE>
0
> <PUBCHEM_HEAVY_ATOM_COUNT>
37
> <PUBCHEM_ATOM_DEF_STEREO_COUNT>
4
> <PUBCHEM_ATOM_UDEF_STEREO_COUNT>
1
> <PUBCHEM_BOND_DEF_STEREO_COUNT>
0
> <PUBCHEM_BOND_UDEF_STEREO_COUNT>
0
> <PUBCHEM_ISOTOPIC_ATOM_COUNT>
0
> <PUBCHEM_COMPONENT_COUNT>
1
> <PUBCHEM_CACTVS_TAUTO_COUNT>
-1
> <PUBCHEM_COORDINATE_TYPE>
1
5
255
> <PUBCHEM_BONDANNOTATIONS>
21  12  6
12  23  8
12  24  8
18  13  5
14  24  8
14  26  8
28  15  6
19  22  6
23  25  8
25  26  8
3  15  3
30  32  8
30  33  8
32  35  8
33  34  8
34  36  8
35  36  8
$$$$
