511209
  -OEChem-10302200282D
 53 56  0     1  0  0  0  0  0999 V2000
    5.5496   -2.2604    0.0000 P   0  0  0  0  0  0  0  0  0  0  0  0
    5.0898    1.2222    0.0000 O   0  0  0  0  0  0  0  0  0  0  0  0
    4.9619   -1.4514    0.0000 O   0  0  0  0  0  0  0  0  0  0  0  0
    6.1374   -3.0694    0.0000 O   0  0  0  0  0  0  0  0  0  0  0  0
    4.7406   -2.8482    0.0000 O   0  0  0  0  0  0  0  0  0  0  0  0
    6.0129    2.8100    0.0000 O   0  0  0  0  0  0  0  0  0  0  0  0
    6.3587   -1.6726    0.0000 O   0  0  0  0  0  0  0  0  0  0  0  0
    4.2808    5.8100    0.0000 O   0  0  0  0  0  0  0  0  0  0  0  0
    4.2808    2.8100    0.0000 N   0  0  0  0  0  0  0  0  0  0  0  0
    5.1468    4.3100    0.0000 N   0  0  0  0  0  0  0  0  0  0  0  0
    4.2808    1.8100    0.0000 C   0  0  1  0  0  0  0  0  0  0  0  0
    4.7808    0.2712    0.0000 C   0  0  1  0  0  0  0  0  0  0  0  0
    3.4718    1.2222    0.0000 C   0  0  0  0  0  0  0  0  0  0  0  0
    3.7808    0.2712    0.0000 C   0  0  0  0  0  0  0  0  0  0  0  0
    5.3686   -0.5378    0.0000 C   0  0  0  0  0  0  0  0  0  0  0  0
    3.4148    3.3100    0.0000 C   0  0  0  0  0  0  0  0  0  0  0  0
    5.1468    3.3100    0.0000 C   0  0  0  0  0  0  0  0  0  0  0  0
    3.4148    4.3100    0.0000 C   0  0  0  0  0  0  0  0  0  0  0  0
    4.2808    4.8100    0.0000 C   0  0  0  0  0  0  0  0  0  0  0  0
    2.5488    4.8100    0.0000 C   0  0  0  0  0  0  0  0  0  0  0  0
    5.7307   -3.9830    0.0000 C   0  0  0  0  0  0  0  0  0  0  0  0
    3.8271   -2.4414    0.0000 C   0  0  0  0  0  0  0  0  0  0  0  0
    6.3185   -4.7920    0.0000 C   0  0  0  0  0  0  0  0  0  0  0  0
    3.0181   -3.0292    0.0000 C   0  0  0  0  0  0  0  0  0  0  0  0
    4.7362   -4.0875    0.0000 C   0  0  0  0  0  0  0  0  0  0  0  0
    3.7226   -1.4469    0.0000 C   0  0  0  0  0  0  0  0  0  0  0  0
    5.9117   -5.7055    0.0000 C   0  0  0  0  0  0  0  0  0  0  0  0
    2.1045   -2.6225    0.0000 C   0  0  0  0  0  0  0  0  0  0  0  0
    4.3294   -5.0010    0.0000 C   0  0  0  0  0  0  0  0  0  0  0  0
    2.8090   -1.0402    0.0000 C   0  0  0  0  0  0  0  0  0  0  0  0
    4.9172   -5.8100    0.0000 C   0  0  0  0  0  0  0  0  0  0  0  0
    2.0000   -1.6280    0.0000 C   0  0  0  0  0  0  0  0  0  0  0  0
    3.7284    2.0915    0.0000 H   0  0  0  0  0  0  0  0  0  0  0  0
    5.3932    0.3682    0.0000 H   0  0  0  0  0  0  0  0  0  0  0  0
    2.8822    1.4138    0.0000 H   0  0  0  0  0  0  0  0  0  0  0  0
    3.4164   -0.2304    0.0000 H   0  0  0  0  0  0  0  0  0  0  0  0
    5.8826   -0.8845    0.0000 H   0  0  0  0  0  0  0  0  0  0  0  0
    5.7993   -0.0918    0.0000 H   0  0  0  0  0  0  0  0  0  0  0  0
    2.8779    3.0000    0.0000 H   0  0  0  0  0  0  0  0  0  0  0  0
    5.6838    4.6200    0.0000 H   0  0  0  0  0  0  0  0  0  0  0  0
    2.8588    5.3470    0.0000 H   0  0  0  0  0  0  0  0  0  0  0  0
    2.0118    5.1200    0.0000 H   0  0  0  0  0  0  0  0  0  0  0  0
    2.2388    4.2731    0.0000 H   0  0  0  0  0  0  0  0  0  0  0  0
    6.9351   -4.7272    0.0000 H   0  0  0  0  0  0  0  0  0  0  0  0
    3.0829   -3.6458    0.0000 H   0  0  0  0  0  0  0  0  0  0  0  0
    4.3717   -3.5859    0.0000 H   0  0  0  0  0  0  0  0  0  0  0  0
    4.2242   -1.0825    0.0000 H   0  0  0  0  0  0  0  0  0  0  0  0
    6.2762   -6.2071    0.0000 H   0  0  0  0  0  0  0  0  0  0  0  0
    1.6029   -2.9869    0.0000 H   0  0  0  0  0  0  0  0  0  0  0  0
    3.7128   -5.0658    0.0000 H   0  0  0  0  0  0  0  0  0  0  0  0
    2.7442   -0.4236    0.0000 H   0  0  0  0  0  0  0  0  0  0  0  0
    4.6650   -6.3764    0.0000 H   0  0  0  0  0  0  0  0  0  0  0  0
    1.4336   -1.3758    0.0000 H   0  0  0  0  0  0  0  0  0  0  0  0
  1  3  1  0  0  0  0
  1  4  1  0  0  0  0
  1  5  1  0  0  0  0
  1  7  2  0  0  0  0
  2 11  1  0  0  0  0
  2 12  1  0  0  0  0
  3 15  1  0  0  0  0
  4 21  1  0  0  0  0
  5 22  1  0  0  0  0
  6 17  2  0  0  0  0
  8 19  2  0  0  0  0
 11  9  1  6  0  0  0
  9 16  1  0  0  0  0
  9 17  1  0  0  0  0
 10 17  1  0  0  0  0
 10 19  1  0  0  0  0
 10 40  1  0  0  0  0
 11 13  1  0  0  0  0
 11 33  1  0  0  0  0
 12 14  1  0  0  0  0
 12 15  1  6  0  0  0
 12 34  1  0  0  0  0
 13 14  2  0  0  0  0
 13 35  1  0  0  0  0
 14 36  1  0  0  0  0
 15 37  1  0  0  0  0
 15 38  1  0  0  0  0
 16 18  2  0  0  0  0
 16 39  1  0  0  0  0
 18 19  1  0  0  0  0
 18 20  1  0  0  0  0
 20 41  1  0  0  0  0
 20 42  1  0  0  0  0
 20 43  1  0  0  0  0
 21 23  2  0  0  0  0
 21 25  1  0  0  0  0
 22 24  2  0  0  0  0
 22 26  1  0  0  0  0
 23 27  1  0  0  0  0
 23 44  1  0  0  0  0
 24 28  1  0  0  0  0
 24 45  1  0  0  0  0
 25 29  2  0  0  0  0
 25 46  1  0  0  0  0
 26 30  2  0  0  0  0
 26 47  1  0  0  0  0
 27 31  2  0  0  0  0
 27 48  1  0  0  0  0
 28 32  2  0  0  0  0
 28 49  1  0  0  0  0
 29 31  1  0  0  0  0
 29 50  1  0  0  0  0
 30 32  1  0  0  0  0
 30 51  1  0  0  0  0
 31 52  1  0  0  0  0
 32 53  1  0  0  0  0
M  END
> <PUBCHEM_COMPOUND_CID>
511209
> <PUBCHEM_COMPOUND_CANONICALIZED>
1
> <PUBCHEM_CACTVS_COMPLEXITY>
778
> <PUBCHEM_CACTVS_HBOND_ACCEPTOR>
7
> <PUBCHEM_CACTVS_HBOND_DONOR>
1
> <PUBCHEM_CACTVS_ROTATABLE_BOND>
8
> <PUBCHEM_CACTVS_SUBSKEYS>
AAADceB7OAIAAAAAAAAAAAAAAAAAAQAAAAAwYIAAAAAAAAABQAAAHgAQACAADBThkAYzBoPABRCIQiFWUICCAAAgIAAIiAEOCMiJJiKAMRKOMAAsxzMKqMeAQAAAAAAAAAAAAAAAAAAAAAAAAAAAAAAAAA==
> <PUBCHEM_IUPAC_OPENEYE_NAME>
[(2S,5R)-5-(5-methyl-2,4-dioxo-pyrimidin-1-yl)-2,5-dihydrofuran-2-yl]methyl diphenyl phosphate
> <PUBCHEM_IUPAC_CAS_NAME>
phosphoric acid [(2S,5R)-5-(5-methyl-2,4-dioxo-1-pyrimidinyl)-2,5-dihydrofuran-2-yl]methyl diphenyl ester
> <PUBCHEM_IUPAC_NAME_MARKUP>
[(2<I>S</I>,5<I>R</I>)-5-(5-methyl-2,4-dioxopyrimidin-1-yl)-2,5-dihydrofuran-2-yl]methyl diphenyl phosphate
> <PUBCHEM_IUPAC_NAME>
[(2S,5R)-5-(5-methyl-2,4-dioxopyrimidin-1-yl)-2,5-dihydrofuran-2-yl]methyl diphenyl phosphate
> <PUBCHEM_IUPAC_SYSTEMATIC_NAME>
[(2S,5R)-5-[5-methyl-2,4-bis(oxidanylidene)pyrimidin-1-yl]-2,5-dihydrofuran-2-yl]methyl diphenyl phosphate
> <PUBCHEM_IUPAC_TRADITIONAL_NAME>
phosphoric acid [(2S,5R)-5-(2,4-diketo-5-methyl-pyrimidin-1-yl)-2,5-dihydrofuran-2-yl]methyl diphenyl ester
> <PUBCHEM_IUPAC_INCHI>
InChI=1S/C22H21N2O7P/c1-16-14-24(22(26)23-21(16)25)20-13-12-19(29-20)15-28-32(27,30-17-8-4-2-5-9-17)31-18-10-6-3-7-11-18/h2-14,19-20H,15H2,1H3,(H,23,25,26)/t19-,20+/m0/s1
> <PUBCHEM_IUPAC_INCHIKEY>
SKOPMBCWHJQPPT-VQTJNVASSA-N
> <PUBCHEM_XLOGP3>
2.8
> <PUBCHEM_EXACT_MASS>
456.10863801
> <PUBCHEM_MOLECULAR_FORMULA>
C22H21N2O7P
> <PUBCHEM_MOLECULAR_WEIGHT>
456.4
> <PUBCHEM_OPENEYE_CAN_SMILES>
CC1=CN(C(=O)NC1=O)C2C=CC(O2)COP(=O)(OC3=CC=CC=C3)OC4=CC=CC=C4
> <PUBCHEM_OPENEYE_ISO_SMILES>
CC1=CN(C(=O)NC1=O)[C@H]2C=C[C@H](O2)COP(=O)(OC3=CC=CC=C3)OC4=CC=CC=C4
> <PUBCHEM_CACTVS_TPSA>
103
> <PUBCHEM_MONOISOTOPIC_WEIGHT>
456.10863801
> <PUBCHEM_TOTAL_CHARGE>
0
> <PUBCHEM_HEAVY_ATOM_COUNT>
32
> <PUBCHEM_ATOM_DEF_STEREO_COUNT>
2
> <PUBCHEM_ATOM_UDEF_STEREO_COUNT>
0
> <PUBCHEM_BOND_DEF_STEREO_COUNT>
0
> <PUBCHEM_BOND_UDEF_STEREO_COUNT>
0
> <PUBCHEM_ISOTOPIC_ATOM_COUNT>
0
> <PUBCHEM_COMPONENT_COUNT>
1
> <PUBCHEM_CACTVS_TAUTO_COUNT>
-1
> <PUBCHEM_COORDINATE_TYPE>
1
5
255
> <PUBCHEM_BONDANNOTATIONS>
10  17  8
10  19  8
12  15  6
16  18  8
18  19  8
21  23  8
21  25  8
22  24  8
22  26  8
23  27  8
24  28  8
25  29  8
26  30  8
27  31  8
28  32  8
29  31  8
30  32  8
11  9  6
9  16  8
9  17  8
$$$$
