511299
  -OEChem-10302200282D
 69 72  0     1  0  0  0  0  0999 V2000
    4.5981    5.9641    0.0000 Br  0  0  0  0  0  0  0  0  0  0  0  0
    5.4641   -4.4641    0.0000 O   0  0  0  0  0  0  0  0  0  0  0  0
    5.0981   -0.0981    0.0000 N   0  0  0  0  0  0  0  0  0  0  0  0
    4.5981   -2.9641    0.0000 N   0  0  0  0  0  0  0  0  0  0  0  0
    4.5981   -0.9641    0.0000 C   0  0  0  0  0  0  0  0  0  0  0  0
    6.0981    1.6340    0.0000 C   0  0  0  0  0  0  0  0  0  0  0  0
    3.7320   -1.4641    0.0000 C   0  0  0  0  0  0  0  0  0  0  0  0
    5.4641   -1.4641    0.0000 C   0  0  0  0  0  0  0  0  0  0  0  0
    4.5981    0.7679    0.0000 C   0  0  0  0  0  0  0  0  0  0  0  0
    6.0981   -0.0981    0.0000 C   0  0  0  0  0  0  0  0  0  0  0  0
    5.0981    1.6340    0.0000 C   0  0  0  0  0  0  0  0  0  0  0  0
    6.5981    0.7679    0.0000 C   0  0  0  0  0  0  0  0  0  0  0  0
    3.7320   -2.4641    0.0000 C   0  0  0  0  0  0  0  0  0  0  0  0
    5.4641   -2.4641    0.0000 C   0  0  0  0  0  0  0  0  0  0  0  0
    4.0981   -0.0981    0.0000 C   0  0  0  0  0  0  0  0  0  0  0  0
    6.5981    2.5000    0.0000 C   0  0  3  0  0  0  0  0  0  0  0  0
    7.5981    2.5000    0.0000 C   0  0  0  0  0  0  0  0  0  0  0  0
    6.0981    3.3660    0.0000 C   0  0  0  0  0  0  0  0  0  0  0  0
    4.5981   -3.9641    0.0000 C   0  0  0  0  0  0  0  0  0  0  0  0
    5.0981    3.3660    0.0000 C   0  0  0  0  0  0  0  0  0  0  0  0
    6.5981    4.2320    0.0000 C   0  0  0  0  0  0  0  0  0  0  0  0
    3.7320   -4.4641    0.0000 C   0  0  0  0  0  0  0  0  0  0  0  0
    4.5981    4.2320    0.0000 C   0  0  0  0  0  0  0  0  0  0  0  0
    6.0981    5.0981    0.0000 C   0  0  0  0  0  0  0  0  0  0  0  0
    3.7320   -5.4641    0.0000 C   0  0  0  0  0  0  0  0  0  0  0  0
    2.8660   -3.9641    0.0000 C   0  0  0  0  0  0  0  0  0  0  0  0
    5.0981    5.0981    0.0000 C   0  0  0  0  0  0  0  0  0  0  0  0
    2.8660   -5.9641    0.0000 C   0  0  0  0  0  0  0  0  0  0  0  0
    2.0000   -4.4641    0.0000 C   0  0  0  0  0  0  0  0  0  0  0  0
    4.5981   -5.9641    0.0000 C   0  0  0  0  0  0  0  0  0  0  0  0
    2.8660   -2.9641    0.0000 C   0  0  0  0  0  0  0  0  0  0  0  0
    2.0000   -5.4641    0.0000 C   0  0  0  0  0  0  0  0  0  0  0  0
    6.7181    1.6340    0.0000 H   0  0  0  0  0  0  0  0  0  0  0  0
    3.5200   -0.8815    0.0000 H   0  0  0  0  0  0  0  0  0  0  0  0
    3.1215   -1.5718    0.0000 H   0  0  0  0  0  0  0  0  0  0  0  0
    6.0747   -1.5718    0.0000 H   0  0  0  0  0  0  0  0  0  0  0  0
    5.6762   -0.8815    0.0000 H   0  0  0  0  0  0  0  0  0  0  0  0
    4.1231    1.1665    0.0000 H   0  0  0  0  0  0  0  0  0  0  0  0
    4.1231    0.3694    0.0000 H   0  0  0  0  0  0  0  0  0  0  0  0
    5.9904   -0.7087    0.0000 H   0  0  0  0  0  0  0  0  0  0  0  0
    6.6807   -0.3101    0.0000 H   0  0  0  0  0  0  0  0  0  0  0  0
    5.2057    2.2446    0.0000 H   0  0  0  0  0  0  0  0  0  0  0  0
    4.5155    1.8460    0.0000 H   0  0  0  0  0  0  0  0  0  0  0  0
    7.0730    0.3694    0.0000 H   0  0  0  0  0  0  0  0  0  0  0  0
    7.0730    1.1665    0.0000 H   0  0  0  0  0  0  0  0  0  0  0  0
    3.1215   -2.3564    0.0000 H   0  0  0  0  0  0  0  0  0  0  0  0
    3.5200   -3.0467    0.0000 H   0  0  0  0  0  0  0  0  0  0  0  0
    5.6762   -3.0467    0.0000 H   0  0  0  0  0  0  0  0  0  0  0  0
    6.0747   -2.3564    0.0000 H   0  0  0  0  0  0  0  0  0  0  0  0
    4.6350    0.2119    0.0000 H   0  0  0  0  0  0  0  0  0  0  0  0
    3.7881    0.4389    0.0000 H   0  0  0  0  0  0  0  0  0  0  0  0
    3.5611   -0.4081    0.0000 H   0  0  0  0  0  0  0  0  0  0  0  0
    6.9081    3.0369    0.0000 H   0  0  0  0  0  0  0  0  0  0  0  0
    7.5981    1.8800    0.0000 H   0  0  0  0  0  0  0  0  0  0  0  0
    8.2181    2.5000    0.0000 H   0  0  0  0  0  0  0  0  0  0  0  0
    7.5981    3.1200    0.0000 H   0  0  0  0  0  0  0  0  0  0  0  0
    4.7881    2.8291    0.0000 H   0  0  0  0  0  0  0  0  0  0  0  0
    7.2181    4.2320    0.0000 H   0  0  0  0  0  0  0  0  0  0  0  0
    3.9781    4.2320    0.0000 H   0  0  0  0  0  0  0  0  0  0  0  0
    6.4081    5.6350    0.0000 H   0  0  0  0  0  0  0  0  0  0  0  0
    2.8660   -6.5841    0.0000 H   0  0  0  0  0  0  0  0  0  0  0  0
    1.4631   -4.1541    0.0000 H   0  0  0  0  0  0  0  0  0  0  0  0
    4.2881   -6.5010    0.0000 H   0  0  0  0  0  0  0  0  0  0  0  0
    5.1350   -6.2741    0.0000 H   0  0  0  0  0  0  0  0  0  0  0  0
    4.9081   -5.4272    0.0000 H   0  0  0  0  0  0  0  0  0  0  0  0
    3.4860   -2.9641    0.0000 H   0  0  0  0  0  0  0  0  0  0  0  0
    2.8660   -2.3441    0.0000 H   0  0  0  0  0  0  0  0  0  0  0  0
    2.2460   -2.9641    0.0000 H   0  0  0  0  0  0  0  0  0  0  0  0
    1.4631   -5.7741    0.0000 H   0  0  0  0  0  0  0  0  0  0  0  0
  1 27  1  0  0  0  0
  2 19  2  0  0  0  0
  3  5  1  0  0  0  0
  3  9  1  0  0  0  0
  3 10  1  0  0  0  0
  4 13  1  0  0  0  0
  4 14  1  0  0  0  0
  4 19  1  0  0  0  0
  5  7  1  0  0  0  0
  5  8  1  0  0  0  0
  5 15  1  0  0  0  0
  6 11  1  0  0  0  0
  6 12  1  0  0  0  0
  6 16  1  0  0  0  0
  6 33  1  0  0  0  0
  7 13  1  0  0  0  0
  7 34  1  0  0  0  0
  7 35  1  0  0  0  0
  8 14  1  0  0  0  0
  8 36  1  0  0  0  0
  8 37  1  0  0  0  0
  9 11  1  0  0  0  0
  9 38  1  0  0  0  0
  9 39  1  0  0  0  0
 10 12  1  0  0  0  0
 10 40  1  0  0  0  0
 10 41  1  0  0  0  0
 11 42  1  0  0  0  0
 11 43  1  0  0  0  0
 12 44  1  0  0  0  0
 12 45  1  0  0  0  0
 13 46  1  0  0  0  0
 13 47  1  0  0  0  0
 14 48  1  0  0  0  0
 14 49  1  0  0  0  0
 15 50  1  0  0  0  0
 15 51  1  0  0  0  0
 15 52  1  0  0  0  0
 16 17  1  0  0  0  0
 16 18  1  0  0  0  0
 16 53  1  0  0  0  0
 17 54  1  0  0  0  0
 17 55  1  0  0  0  0
 17 56  1  0  0  0  0
 18 20  2  0  0  0  0
 18 21  1  0  0  0  0
 19 22  1  0  0  0  0
 20 23  1  0  0  0  0
 20 57  1  0  0  0  0
 21 24  2  0  0  0  0
 21 58  1  0  0  0  0
 22 25  2  0  0  0  0
 22 26  1  0  0  0  0
 23 27  2  0  0  0  0
 23 59  1  0  0  0  0
 24 27  1  0  0  0  0
 24 60  1  0  0  0  0
 25 28  1  0  0  0  0
 25 30  1  0  0  0  0
 26 29  2  0  0  0  0
 26 31  1  0  0  0  0
 28 32  2  0  0  0  0
 28 61  1  0  0  0  0
 29 32  1  0  0  0  0
 29 62  1  0  0  0  0
 30 63  1  0  0  0  0
 30 64  1  0  0  0  0
 30 65  1  0  0  0  0
 31 66  1  0  0  0  0
 31 67  1  0  0  0  0
 31 68  1  0  0  0  0
 32 69  1  0  0  0  0
M  END
> <PUBCHEM_COMPOUND_CID>
511299
> <PUBCHEM_COMPOUND_CANONICALIZED>
1
> <PUBCHEM_CACTVS_COMPLEXITY>
605
> <PUBCHEM_CACTVS_HBOND_ACCEPTOR>
2
> <PUBCHEM_CACTVS_HBOND_DONOR>
0
> <PUBCHEM_CACTVS_ROTATABLE_BOND>
4
> <PUBCHEM_CACTVS_SUBSKEYS>
AAADcfB7IAAAEAAAAAAAAAAAAAAAAAAAAAA8eIEAAAAAAAABQAAAHgBAAAABrYjBmAQyAIMAAACIAiFSEACCAAAkAAQIiAEIBOgIIDKA1RGEIQhghgCIixcYiMCOggACAAAQAAAEAAQAACAAAAAAAAAAAA==
> <PUBCHEM_IUPAC_OPENEYE_NAME>
[4-[4-[1-(4-bromophenyl)ethyl]-1-piperidyl]-4-methyl-1-piperidyl]-(2,6-dimethylphenyl)methanone
> <PUBCHEM_IUPAC_CAS_NAME>
[4-[4-[1-(4-bromophenyl)ethyl]-1-piperidinyl]-4-methyl-1-piperidinyl]-(2,6-dimethylphenyl)methanone
> <PUBCHEM_IUPAC_NAME_MARKUP>
[4-[4-[1-(4-bromophenyl)ethyl]piperidin-1-yl]-4-methylpiperidin-1-yl]-(2,6-dimethylphenyl)methanone
> <PUBCHEM_IUPAC_NAME>
[4-[4-[1-(4-bromophenyl)ethyl]piperidin-1-yl]-4-methylpiperidin-1-yl]-(2,6-dimethylphenyl)methanone
> <PUBCHEM_IUPAC_SYSTEMATIC_NAME>
[4-[4-[1-(4-bromophenyl)ethyl]piperidin-1-yl]-4-methyl-piperidin-1-yl]-(2,6-dimethylphenyl)methanone
> <PUBCHEM_IUPAC_TRADITIONAL_NAME>
[4-[4-[1-(4-bromophenyl)ethyl]piperidino]-4-methyl-piperidino]-(2,6-dimethylphenyl)methanone
> <PUBCHEM_IUPAC_INCHI>
InChI=1S/C28H37BrN2O/c1-20-6-5-7-21(2)26(20)27(32)30-18-14-28(4,15-19-30)31-16-12-24(13-17-31)22(3)23-8-10-25(29)11-9-23/h5-11,22,24H,12-19H2,1-4H3
> <PUBCHEM_IUPAC_INCHIKEY>
UHYXGTUWXYIOFH-UHFFFAOYSA-N
> <PUBCHEM_XLOGP3_AA>
6.6
> <PUBCHEM_EXACT_MASS>
496.20893
> <PUBCHEM_MOLECULAR_FORMULA>
C28H37BrN2O
> <PUBCHEM_MOLECULAR_WEIGHT>
497.5
> <PUBCHEM_OPENEYE_CAN_SMILES>
CC1=C(C(=CC=C1)C)C(=O)N2CCC(CC2)(C)N3CCC(CC3)C(C)C4=CC=C(C=C4)Br
> <PUBCHEM_OPENEYE_ISO_SMILES>
CC1=C(C(=CC=C1)C)C(=O)N2CCC(CC2)(C)N3CCC(CC3)C(C)C4=CC=C(C=C4)Br
> <PUBCHEM_CACTVS_TPSA>
23.6
> <PUBCHEM_MONOISOTOPIC_WEIGHT>
496.20893
> <PUBCHEM_TOTAL_CHARGE>
0
> <PUBCHEM_HEAVY_ATOM_COUNT>
32
> <PUBCHEM_ATOM_DEF_STEREO_COUNT>
0
> <PUBCHEM_ATOM_UDEF_STEREO_COUNT>
1
> <PUBCHEM_BOND_DEF_STEREO_COUNT>
0
> <PUBCHEM_BOND_UDEF_STEREO_COUNT>
0
> <PUBCHEM_ISOTOPIC_ATOM_COUNT>
0
> <PUBCHEM_COMPONENT_COUNT>
1
> <PUBCHEM_CACTVS_TAUTO_COUNT>
-1
> <PUBCHEM_COORDINATE_TYPE>
1
5
255
> <PUBCHEM_BONDANNOTATIONS>
16  17  3
18  20  8
18  21  8
20  23  8
21  24  8
22  25  8
22  26  8
23  27  8
24  27  8
25  28  8
26  29  8
28  32  8
29  32  8
$$$$
