511236
  -OEChem-10302200282D
 53 54  0     1  0  0  0  0  0999 V2000
    7.7469   -2.3126    0.0000 P   0  0  3  0  0  0  0  0  0  0  0  0
    5.8858    0.1519    0.0000 O   0  0  0  0  0  0  0  0  0  0  0  0
    7.1591   -1.5036    0.0000 O   0  0  0  0  0  0  0  0  0  0  0  0
    8.5559   -1.7249    0.0000 O   0  0  0  0  0  0  0  0  0  0  0  0
    6.8089    1.7397    0.0000 O   0  0  0  0  0  0  0  0  0  0  0  0
    6.9379   -2.9004    0.0000 O   0  0  0  0  0  0  0  0  0  0  0  0
    5.0768    4.7397    0.0000 O   0  0  0  0  0  0  0  0  0  0  0  0
   10.9115   -3.7216    0.0000 O   0  0  0  0  0  0  0  0  0  0  0  0
    9.5103   -4.7397    0.0000 O   0  0  0  0  0  0  0  0  0  0  0  0
    5.0768    1.7397    0.0000 N   0  0  0  0  0  0  0  0  0  0  0  0
    3.9890   -1.6082    0.0000 N   0  0  0  0  0  0  0  0  0  0  0  0
    5.9428    3.2397    0.0000 N   0  0  0  0  0  0  0  0  0  0  0  0
    8.3347   -3.1217    0.0000 N   0  0  0  0  0  0  0  0  0  0  0  0
    2.9945   -1.5036    0.0000 N   0  3  0  0  0  0  0  0  0  0  0  0
    2.0000   -1.3991    0.0000 N   0  5  0  0  0  0  0  0  0  0  0  0
    4.5768   -0.7991    0.0000 C   0  0  2  0  0  0  0  0  0  0  0  0
    5.5768   -0.7991    0.0000 C   0  0  1  0  0  0  0  0  0  0  0  0
    4.2678    0.1519    0.0000 C   0  0  0  0  0  0  0  0  0  0  0  0
    5.0768    0.7397    0.0000 C   0  0  1  0  0  0  0  0  0  0  0  0
    6.1646   -1.6082    0.0000 C   0  0  0  0  0  0  0  0  0  0  0  0
    4.2108    2.2397    0.0000 C   0  0  0  0  0  0  0  0  0  0  0  0
    5.9428    2.2397    0.0000 C   0  0  0  0  0  0  0  0  0  0  0  0
    4.2108    3.2397    0.0000 C   0  0  0  0  0  0  0  0  0  0  0  0
    5.0768    3.7397    0.0000 C   0  0  0  0  0  0  0  0  0  0  0  0
    9.3292   -3.0171    0.0000 C   0  0  1  0  0  0  0  0  0  0  0  0
    3.3448    3.7397    0.0000 C   0  0  0  0  0  0  0  0  0  0  0  0
    9.7360   -2.1036    0.0000 C   0  0  0  0  0  0  0  0  0  0  0  0
    9.9170   -3.8262    0.0000 C   0  0  0  0  0  0  0  0  0  0  0  0
    8.4514   -0.7303    0.0000 C   0  0  0  0  0  0  0  0  0  0  0  0
   11.4993   -4.5306    0.0000 C   0  0  0  0  0  0  0  0  0  0  0  0
    3.9645   -0.7022    0.0000 H   0  0  0  0  0  0  0  0  0  0  0  0
    6.1892   -0.7022    0.0000 H   0  0  0  0  0  0  0  0  0  0  0  0
    3.9578    0.6888    0.0000 H   0  0  0  0  0  0  0  0  0  0  0  0
    3.7014   -0.1003    0.0000 H   0  0  0  0  0  0  0  0  0  0  0  0
    4.5244    1.0212    0.0000 H   0  0  0  0  0  0  0  0  0  0  0  0
    5.6074   -1.8800    0.0000 H   0  0  0  0  0  0  0  0  0  0  0  0
    6.3355   -2.2041    0.0000 H   0  0  0  0  0  0  0  0  0  0  0  0
    3.6739    1.9297    0.0000 H   0  0  0  0  0  0  0  0  0  0  0  0
    6.4798    3.5497    0.0000 H   0  0  0  0  0  0  0  0  0  0  0  0
    8.0825   -3.6881    0.0000 H   0  0  0  0  0  0  0  0  0  0  0  0
    9.0770   -3.5835    0.0000 H   0  0  0  0  0  0  0  0  0  0  0  0
    3.6548    4.2766    0.0000 H   0  0  0  0  0  0  0  0  0  0  0  0
    2.8078    4.0497    0.0000 H   0  0  0  0  0  0  0  0  0  0  0  0
    3.0348    3.2028    0.0000 H   0  0  0  0  0  0  0  0  0  0  0  0
   10.3024   -2.3558    0.0000 H   0  0  0  0  0  0  0  0  0  0  0  0
    9.9881   -1.5372    0.0000 H   0  0  0  0  0  0  0  0  0  0  0  0
    9.1696   -1.8514    0.0000 H   0  0  0  0  0  0  0  0  0  0  0  0
    9.0680   -0.6655    0.0000 H   0  0  0  0  0  0  0  0  0  0  0  0
    8.3866   -0.1137    0.0000 H   0  0  0  0  0  0  0  0  0  0  0  0
    7.8348   -0.7951    0.0000 H   0  0  0  0  0  0  0  0  0  0  0  0
   10.9977   -4.8951    0.0000 H   0  0  0  0  0  0  0  0  0  0  0  0
   11.8637   -5.0322    0.0000 H   0  0  0  0  0  0  0  0  0  0  0  0
   12.0009   -4.1662    0.0000 H   0  0  0  0  0  0  0  0  0  0  0  0
  1  3  1  0  0  0  0
  1  4  1  0  0  0  0
  1  6  2  0  0  0  0
  1 13  1  0  0  0  0
  2 17  1  0  0  0  0
  2 19  1  0  0  0  0
  3 20  1  0  0  0  0
  4 29  1  0  0  0  0
  5 22  2  0  0  0  0
  7 24  2  0  0  0  0
  8 28  1  0  0  0  0
  8 30  1  0  0  0  0
  9 28  2  0  0  0  0
 19 10  1  6  0  0  0
 10 21  1  0  0  0  0
 10 22  1  0  0  0  0
 11 14  2  0  0  0  0
 16 11  1  1  0  0  0
 12 22  1  0  0  0  0
 12 24  1  0  0  0  0
 12 39  1  0  0  0  0
 25 13  1  1  0  0  0
 13 40  1  0  0  0  0
 14 15  2  0  0  0  0
 16 17  1  0  0  0  0
 16 18  1  0  0  0  0
 16 31  1  0  0  0  0
 17 20  1  6  0  0  0
 17 32  1  0  0  0  0
 18 19  1  0  0  0  0
 18 33  1  0  0  0  0
 18 34  1  0  0  0  0
 19 35  1  0  0  0  0
 20 36  1  0  0  0  0
 20 37  1  0  0  0  0
 21 23  2  0  0  0  0
 21 38  1  0  0  0  0
 23 24  1  0  0  0  0
 23 26  1  0  0  0  0
 25 27  1  0  0  0  0
 25 28  1  0  0  0  0
 25 41  1  0  0  0  0
 26 42  1  0  0  0  0
 26 43  1  0  0  0  0
 26 44  1  0  0  0  0
 27 45  1  0  0  0  0
 27 46  1  0  0  0  0
 27 47  1  0  0  0  0
 29 48  1  0  0  0  0
 29 49  1  0  0  0  0
 29 50  1  0  0  0  0
 30 51  1  0  0  0  0
 30 52  1  0  0  0  0
 30 53  1  0  0  0  0
M  CHG  2  14   1  15  -1
M  END
> <PUBCHEM_COMPOUND_CID>
511236
> <PUBCHEM_COMPOUND_CANONICALIZED>
1
> <PUBCHEM_CACTVS_COMPLEXITY>
828
> <PUBCHEM_CACTVS_HBOND_ACCEPTOR>
11
> <PUBCHEM_CACTVS_HBOND_DONOR>
2
> <PUBCHEM_CACTVS_ROTATABLE_BOND>
10
> <PUBCHEM_CACTVS_SUBSKEYS>
AAADceBzvAIAAAAAAAAAAAAAAAAAASAAAAAgAAAAAAAAAAAAAAAAHgAYgCAADDzhgAYDCAPABRCKQgHWWICAAAAAAAAAAIGIAECDAAIAwQAPAAAOFyICAMCwMAIAAAAAAAAAAAAAAAAAAAAAAAAAAAAAAA==
> <PUBCHEM_IUPAC_OPENEYE_NAME>
methyl (2S)-2-[[[(2S,3S,5R)-3-azido-5-(5-methyl-2,4-dioxo-pyrimidin-1-yl)tetrahydrofuran-2-yl]methoxy-methoxy-phosphoryl]amino]propanoate
> <PUBCHEM_IUPAC_CAS_NAME>
(2S)-2-[[[(2S,3S,5R)-3-azido-5-(5-methyl-2,4-dioxo-1-pyrimidinyl)-2-oxolanyl]methoxy-methoxyphosphoryl]amino]propanoic acid methyl ester
> <PUBCHEM_IUPAC_NAME_MARKUP>
methyl (2<I>S</I>)-2-[[[(2<I>S</I>,3<I>S</I>,5<I>R</I>)-3-azido-5-(5-methyl-2,4-dioxopyrimidin-1-yl)oxolan-2-yl]methoxy-methoxyphosphoryl]amino]propanoate
> <PUBCHEM_IUPAC_NAME>
methyl (2S)-2-[[[(2S,3S,5R)-3-azido-5-(5-methyl-2,4-dioxopyrimidin-1-yl)oxolan-2-yl]methoxy-methoxyphosphoryl]amino]propanoate
> <PUBCHEM_IUPAC_SYSTEMATIC_NAME>
methyl (2S)-2-[[[(2S,3S,5R)-3-azido-5-[5-methyl-2,4-bis(oxidanylidene)pyrimidin-1-yl]oxolan-2-yl]methoxy-methoxy-phosphoryl]amino]propanoate
> <PUBCHEM_IUPAC_TRADITIONAL_NAME>
(2S)-2-[[[(2S,3S,5R)-3-azido-5-(2,4-diketo-5-methyl-pyrimidin-1-yl)tetrahydrofuran-2-yl]methoxy-methoxy-phosphoryl]amino]propionic acid methyl ester
> <PUBCHEM_IUPAC_INCHI>
InChI=1S/C15H23N6O8P/c1-8-6-21(15(24)17-13(8)22)12-5-10(18-20-16)11(29-12)7-28-30(25,27-4)19-9(2)14(23)26-3/h6,9-12H,5,7H2,1-4H3,(H,19,25)(H,17,22,24)/t9-,10-,11+,12+,30?/m0/s1
> <PUBCHEM_IUPAC_INCHIKEY>
SKMBZJMXDUZXJY-IFFQHHALSA-N
> <PUBCHEM_XLOGP3>
0.1
> <PUBCHEM_EXACT_MASS>
446.13149871
> <PUBCHEM_MOLECULAR_FORMULA>
C15H23N6O8P
> <PUBCHEM_MOLECULAR_WEIGHT>
446.35
> <PUBCHEM_OPENEYE_CAN_SMILES>
CC1=CN(C(=O)NC1=O)C2CC(C(O2)COP(=O)(NC(C)C(=O)OC)OC)N=[N+]=[N-]
> <PUBCHEM_OPENEYE_ISO_SMILES>
CC1=CN(C(=O)NC1=O)[C@H]2C[C@@H]([C@H](O2)COP(=O)(N[C@@H](C)C(=O)OC)OC)N=[N+]=[N-]
> <PUBCHEM_CACTVS_TPSA>
147
> <PUBCHEM_MONOISOTOPIC_WEIGHT>
446.13149871
> <PUBCHEM_TOTAL_CHARGE>
0
> <PUBCHEM_HEAVY_ATOM_COUNT>
30
> <PUBCHEM_ATOM_DEF_STEREO_COUNT>
4
> <PUBCHEM_ATOM_UDEF_STEREO_COUNT>
1
> <PUBCHEM_BOND_DEF_STEREO_COUNT>
0
> <PUBCHEM_BOND_UDEF_STEREO_COUNT>
0
> <PUBCHEM_ISOTOPIC_ATOM_COUNT>
0
> <PUBCHEM_COMPONENT_COUNT>
1
> <PUBCHEM_CACTVS_TAUTO_COUNT>
-1
> <PUBCHEM_COORDINATE_TYPE>
1
5
255
> <PUBCHEM_BONDANNOTATIONS>
1  13  3
19  10  6
10  21  8
10  22  8
16  11  5
12  22  8
12  24  8
25  13  5
17  20  6
21  23  8
23  24  8
$$$$
