511225
  -OEChem-10302200282D
 57 60  0     1  0  0  0  0  0999 V2000
    5.5496   -2.4158    0.0000 P   0  0  3  0  0  0  0  0  0  0  0  0
    4.9619   -1.6068    0.0000 O   0  0  0  0  0  0  0  0  0  0  0  0
    4.7406   -3.0036    0.0000 O   0  0  0  0  0  0  0  0  0  0  0  0
    5.0898    1.0668    0.0000 O   0  0  0  0  0  0  0  0  0  0  0  0
    6.3587   -1.8280    0.0000 O   0  0  0  0  0  0  0  0  0  0  0  0
    4.6694   -5.4630    0.0000 O   0  0  0  0  0  0  0  0  0  0  0  0
    4.1342   -3.8158    0.0000 O   0  0  0  0  0  0  0  0  0  0  0  0
    6.0129    2.6546    0.0000 O   0  0  0  0  0  0  0  0  0  0  0  0
    4.2808    5.6546    0.0000 O   0  0  0  0  0  0  0  0  0  0  0  0
    6.1374   -3.2248    0.0000 N   0  0  3  0  0  0  0  0  0  0  0  0
    4.2808    2.6546    0.0000 N   0  0  0  0  0  0  0  0  0  0  0  0
    5.1468    4.1546    0.0000 N   0  0  0  0  0  0  0  0  0  0  0  0
    5.8284   -4.1759    0.0000 C   0  0  1  0  0  0  0  0  0  0  0  0
    6.6374   -4.7637    0.0000 C   0  0  0  0  0  0  0  0  0  0  0  0
    7.1374   -3.2248    0.0000 C   0  0  0  0  0  0  0  0  0  0  0  0
    7.4465   -4.1759    0.0000 C   0  0  0  0  0  0  0  0  0  0  0  0
    4.8774   -4.4849    0.0000 C   0  0  0  0  0  0  0  0  0  0  0  0
    4.7808    0.1158    0.0000 C   0  0  2  0  0  0  0  0  0  0  0  0
    5.3686   -0.6932    0.0000 C   0  0  0  0  0  0  0  0  0  0  0  0
    4.2808    1.6546    0.0000 C   0  0  1  0  0  0  0  0  0  0  0  0
    3.7808    0.1158    0.0000 C   0  0  0  0  0  0  0  0  0  0  0  0
    3.4718    1.0668    0.0000 C   0  0  0  0  0  0  0  0  0  0  0  0
    3.8271   -2.5968    0.0000 C   0  0  0  0  0  0  0  0  0  0  0  0
    3.4148    3.1546    0.0000 C   0  0  0  0  0  0  0  0  0  0  0  0
    5.1468    3.1546    0.0000 C   0  0  0  0  0  0  0  0  0  0  0  0
    3.7226   -1.6023    0.0000 C   0  0  0  0  0  0  0  0  0  0  0  0
    3.0181   -3.1846    0.0000 C   0  0  0  0  0  0  0  0  0  0  0  0
    3.4148    4.1546    0.0000 C   0  0  0  0  0  0  0  0  0  0  0  0
    4.2808    4.6546    0.0000 C   0  0  0  0  0  0  0  0  0  0  0  0
    2.8090   -1.1956    0.0000 C   0  0  0  0  0  0  0  0  0  0  0  0
    2.1045   -2.7779    0.0000 C   0  0  0  0  0  0  0  0  0  0  0  0
    2.5488    4.6546    0.0000 C   0  0  0  0  0  0  0  0  0  0  0  0
    2.0000   -1.7834    0.0000 C   0  0  0  0  0  0  0  0  0  0  0  0
    5.3900   -3.7375    0.0000 H   0  0  0  0  0  0  0  0  0  0  0  0
    6.2226   -5.2244    0.0000 H   0  0  0  0  0  0  0  0  0  0  0  0
    7.0523   -5.2244    0.0000 H   0  0  0  0  0  0  0  0  0  0  0  0
    7.7439   -3.0959    0.0000 H   0  0  0  0  0  0  0  0  0  0  0  0
    7.0726   -2.6082    0.0000 H   0  0  0  0  0  0  0  0  0  0  0  0
    7.7565   -4.7128    0.0000 H   0  0  0  0  0  0  0  0  0  0  0  0
    8.0128   -3.9237    0.0000 H   0  0  0  0  0  0  0  0  0  0  0  0
    5.3932    0.2128    0.0000 H   0  0  0  0  0  0  0  0  0  0  0  0
    5.8826   -1.0399    0.0000 H   0  0  0  0  0  0  0  0  0  0  0  0
    5.7993   -0.2472    0.0000 H   0  0  0  0  0  0  0  0  0  0  0  0
    3.7284    1.9361    0.0000 H   0  0  0  0  0  0  0  0  0  0  0  0
    3.4164   -0.3858    0.0000 H   0  0  0  0  0  0  0  0  0  0  0  0
    2.8822    1.2584    0.0000 H   0  0  0  0  0  0  0  0  0  0  0  0
    4.0798   -5.6546    0.0000 H   0  0  0  0  0  0  0  0  0  0  0  0
    2.8779    2.8446    0.0000 H   0  0  0  0  0  0  0  0  0  0  0  0
    4.2242   -1.2379    0.0000 H   0  0  0  0  0  0  0  0  0  0  0  0
    3.0829   -3.8012    0.0000 H   0  0  0  0  0  0  0  0  0  0  0  0
    5.6838    4.4646    0.0000 H   0  0  0  0  0  0  0  0  0  0  0  0
    2.7442   -0.5790    0.0000 H   0  0  0  0  0  0  0  0  0  0  0  0
    1.6029   -3.1423    0.0000 H   0  0  0  0  0  0  0  0  0  0  0  0
    2.8588    5.1916    0.0000 H   0  0  0  0  0  0  0  0  0  0  0  0
    2.0118    4.9646    0.0000 H   0  0  0  0  0  0  0  0  0  0  0  0
    2.2388    4.1177    0.0000 H   0  0  0  0  0  0  0  0  0  0  0  0
    1.4336   -1.5312    0.0000 H   0  0  0  0  0  0  0  0  0  0  0  0
  1  2  1  0  0  0  0
  1  3  1  0  0  0  0
  1  5  2  0  0  0  0
  1 10  1  0  0  0  0
  2 19  1  0  0  0  0
  3 23  1  0  0  0  0
  4 18  1  0  0  0  0
  4 20  1  0  0  0  0
  6 17  1  0  0  0  0
  6 47  1  0  0  0  0
  7 17  2  0  0  0  0
  8 25  2  0  0  0  0
  9 29  2  0  0  0  0
 10 13  1  0  0  0  0
 10 15  1  0  0  0  0
 20 11  1  6  0  0  0
 11 24  1  0  0  0  0
 11 25  1  0  0  0  0
 12 25  1  0  0  0  0
 12 29  1  0  0  0  0
 12 51  1  0  0  0  0
 13 14  1  0  0  0  0
 13 17  1  1  0  0  0
 13 34  1  0  0  0  0
 14 16  1  0  0  0  0
 14 35  1  0  0  0  0
 14 36  1  0  0  0  0
 15 16  1  0  0  0  0
 15 37  1  0  0  0  0
 15 38  1  0  0  0  0
 16 39  1  0  0  0  0
 16 40  1  0  0  0  0
 18 19  1  6  0  0  0
 18 21  1  0  0  0  0
 18 41  1  0  0  0  0
 19 42  1  0  0  0  0
 19 43  1  0  0  0  0
 20 22  1  0  0  0  0
 20 44  1  0  0  0  0
 21 22  2  0  0  0  0
 21 45  1  0  0  0  0
 22 46  1  0  0  0  0
 23 26  2  0  0  0  0
 23 27  1  0  0  0  0
 24 28  2  0  0  0  0
 24 48  1  0  0  0  0
 26 30  1  0  0  0  0
 26 49  1  0  0  0  0
 27 31  2  0  0  0  0
 27 50  1  0  0  0  0
 28 29  1  0  0  0  0
 28 32  1  0  0  0  0
 30 33  2  0  0  0  0
 30 52  1  0  0  0  0
 31 33  1  0  0  0  0
 31 53  1  0  0  0  0
 32 54  1  0  0  0  0
 32 55  1  0  0  0  0
 32 56  1  0  0  0  0
 33 57  1  0  0  0  0
M  END
> <PUBCHEM_COMPOUND_CID>
511225
> <PUBCHEM_COMPOUND_CANONICALIZED>
1
> <PUBCHEM_CACTVS_COMPLEXITY>
900
> <PUBCHEM_CACTVS_HBOND_ACCEPTOR>
9
> <PUBCHEM_CACTVS_HBOND_DONOR>
2
> <PUBCHEM_CACTVS_ROTATABLE_BOND>
8
> <PUBCHEM_CACTVS_SUBSKEYS>
AAADceB7PAIAAAAAAAAAAAAAAAAAAWIAAAAwQAAAAAAAAAABAAAAHgAQiCAADDzhkAYzDoPABxCIQiHWWICCAAAgIAAIiAGOCMiLJjKAsTKOcAAsxzOaqMeYUQAAAAAAAAAAAAAAAAAAAAAAAAAAAAAAAA==
> <PUBCHEM_IUPAC_OPENEYE_NAME>
(2S)-1-[[(2S,5R)-5-(5-methyl-2,4-dioxo-pyrimidin-1-yl)-2,5-dihydrofuran-2-yl]methoxy-phenoxy-phosphoryl]pyrrolidine-2-carboxylic acid
> <PUBCHEM_IUPAC_CAS_NAME>
(2S)-1-[[(2S,5R)-5-(5-methyl-2,4-dioxo-1-pyrimidinyl)-2,5-dihydrofuran-2-yl]methoxy-phenoxyphosphoryl]-2-pyrrolidinecarboxylic acid
> <PUBCHEM_IUPAC_NAME_MARKUP>
(2<I>S</I>)-1-[[(2<I>S</I>,5<I>R</I>)-5-(5-methyl-2,4-dioxopyrimidin-1-yl)-2,5-dihydrofuran-2-yl]methoxy-phenoxyphosphoryl]pyrrolidine-2-carboxylic acid
> <PUBCHEM_IUPAC_NAME>
(2S)-1-[[(2S,5R)-5-(5-methyl-2,4-dioxopyrimidin-1-yl)-2,5-dihydrofuran-2-yl]methoxy-phenoxyphosphoryl]pyrrolidine-2-carboxylic acid
> <PUBCHEM_IUPAC_SYSTEMATIC_NAME>
(2S)-1-[[(2S,5R)-5-[5-methyl-2,4-bis(oxidanylidene)pyrimidin-1-yl]-2,5-dihydrofuran-2-yl]methoxy-phenoxy-phosphoryl]pyrrolidine-2-carboxylic acid
> <PUBCHEM_IUPAC_TRADITIONAL_NAME>
(2S)-1-[[(2S,5R)-5-(2,4-diketo-5-methyl-pyrimidin-1-yl)-2,5-dihydrofuran-2-yl]methoxy-phenoxy-phosphoryl]proline
> <PUBCHEM_IUPAC_INCHI>
InChI=1S/C21H24N3O8P/c1-14-12-23(21(28)22-19(14)25)18-10-9-16(31-18)13-30-33(29,32-15-6-3-2-4-7-15)24-11-5-8-17(24)20(26)27/h2-4,6-7,9-10,12,16-18H,5,8,11,13H2,1H3,(H,26,27)(H,22,25,28)/t16-,17-,18+,33?/m0/s1
> <PUBCHEM_IUPAC_INCHIKEY>
QRKPZXUYBIHGDX-RATYACGJSA-N
> <PUBCHEM_XLOGP3_AA>
1.2
> <PUBCHEM_EXACT_MASS>
477.13010173
> <PUBCHEM_MOLECULAR_FORMULA>
C21H24N3O8P
> <PUBCHEM_MOLECULAR_WEIGHT>
477.4
> <PUBCHEM_OPENEYE_CAN_SMILES>
CC1=CN(C(=O)NC1=O)C2C=CC(O2)COP(=O)(N3CCCC3C(=O)O)OC4=CC=CC=C4
> <PUBCHEM_OPENEYE_ISO_SMILES>
CC1=CN(C(=O)NC1=O)[C@H]2C=C[C@H](O2)COP(=O)(N3CCC[C@H]3C(=O)O)OC4=CC=CC=C4
> <PUBCHEM_CACTVS_TPSA>
135
> <PUBCHEM_MONOISOTOPIC_WEIGHT>
477.13010173
> <PUBCHEM_TOTAL_CHARGE>
0
> <PUBCHEM_HEAVY_ATOM_COUNT>
33
> <PUBCHEM_ATOM_DEF_STEREO_COUNT>
3
> <PUBCHEM_ATOM_UDEF_STEREO_COUNT>
1
> <PUBCHEM_BOND_DEF_STEREO_COUNT>
0
> <PUBCHEM_BOND_UDEF_STEREO_COUNT>
0
> <PUBCHEM_ISOTOPIC_ATOM_COUNT>
0
> <PUBCHEM_COMPONENT_COUNT>
1
> <PUBCHEM_CACTVS_TAUTO_COUNT>
3
> <PUBCHEM_COORDINATE_TYPE>
1
5
255
> <PUBCHEM_BONDANNOTATIONS>
1  2  3
20  11  6
11  24  8
11  25  8
12  25  8
12  29  8
13  17  5
18  19  6
23  26  8
23  27  8
24  28  8
26  30  8
27  31  8
28  29  8
30  33  8
31  33  8
$$$$
