511207
  -OEChem-10302200282D
 43 45  0     1  0  0  0  0  0999 V2000
    5.0009   -2.2604    0.0000 P   0  0  3  0  0  0  0  0  0  0  0  0
    4.5411    1.2222    0.0000 O   0  0  0  0  0  0  0  0  0  0  0  0
    4.4131   -1.4514    0.0000 O   0  0  0  0  0  0  0  0  0  0  0  0
    5.4641    2.8100    0.0000 O   0  0  0  0  0  0  0  0  0  0  0  0
    5.5887   -3.0694    0.0000 O   0  0  0  0  0  0  0  0  0  0  0  0
    4.1919   -2.8482    0.0000 O   0  0  0  0  0  0  0  0  0  0  0  0
    3.7320    5.8100    0.0000 O   0  0  0  0  0  0  0  0  0  0  0  0
    5.8099   -1.6726    0.0000 O   0  0  0  0  0  0  0  0  0  0  0  0
    3.7320    2.8100    0.0000 N   0  0  0  0  0  0  0  0  0  0  0  0
    4.5981    4.3100    0.0000 N   0  0  0  0  0  0  0  0  0  0  0  0
    3.7320    1.8100    0.0000 C   0  0  1  0  0  0  0  0  0  0  0  0
    4.2320    0.2712    0.0000 C   0  0  1  0  0  0  0  0  0  0  0  0
    2.9230    1.2222    0.0000 C   0  0  0  0  0  0  0  0  0  0  0  0
    3.2320    0.2712    0.0000 C   0  0  0  0  0  0  0  0  0  0  0  0
    4.8198   -0.5378    0.0000 C   0  0  0  0  0  0  0  0  0  0  0  0
    2.8660    3.3100    0.0000 C   0  0  0  0  0  0  0  0  0  0  0  0
    4.5981    3.3100    0.0000 C   0  0  0  0  0  0  0  0  0  0  0  0
    2.8660    4.3100    0.0000 C   0  0  0  0  0  0  0  0  0  0  0  0
    3.7320    4.8100    0.0000 C   0  0  0  0  0  0  0  0  0  0  0  0
    2.0000    4.8100    0.0000 C   0  0  0  0  0  0  0  0  0  0  0  0
    5.1819   -3.9830    0.0000 C   0  0  0  0  0  0  0  0  0  0  0  0
    5.7697   -4.7920    0.0000 C   0  0  0  0  0  0  0  0  0  0  0  0
    4.1874   -4.0875    0.0000 C   0  0  0  0  0  0  0  0  0  0  0  0
    5.3630   -5.7055    0.0000 C   0  0  0  0  0  0  0  0  0  0  0  0
    3.7807   -5.0010    0.0000 C   0  0  0  0  0  0  0  0  0  0  0  0
    4.3685   -5.8100    0.0000 C   0  0  0  0  0  0  0  0  0  0  0  0
    4.2845    2.0915    0.0000 H   0  0  0  0  0  0  0  0  0  0  0  0
    4.8444    0.3682    0.0000 H   0  0  0  0  0  0  0  0  0  0  0  0
    2.3334    1.4138    0.0000 H   0  0  0  0  0  0  0  0  0  0  0  0
    2.8676   -0.2304    0.0000 H   0  0  0  0  0  0  0  0  0  0  0  0
    5.3338   -0.8845    0.0000 H   0  0  0  0  0  0  0  0  0  0  0  0
    5.2505   -0.0918    0.0000 H   0  0  0  0  0  0  0  0  0  0  0  0
    2.3291    3.0000    0.0000 H   0  0  0  0  0  0  0  0  0  0  0  0
    5.1350    4.6200    0.0000 H   0  0  0  0  0  0  0  0  0  0  0  0
    2.3100    5.3470    0.0000 H   0  0  0  0  0  0  0  0  0  0  0  0
    1.4631    5.1200    0.0000 H   0  0  0  0  0  0  0  0  0  0  0  0
    1.6900    4.2731    0.0000 H   0  0  0  0  0  0  0  0  0  0  0  0
    3.6255   -2.5960    0.0000 H   0  0  0  0  0  0  0  0  0  0  0  0
    6.3863   -4.7272    0.0000 H   0  0  0  0  0  0  0  0  0  0  0  0
    3.8230   -3.5859    0.0000 H   0  0  0  0  0  0  0  0  0  0  0  0
    5.7274   -6.2071    0.0000 H   0  0  0  0  0  0  0  0  0  0  0  0
    3.1641   -5.0658    0.0000 H   0  0  0  0  0  0  0  0  0  0  0  0
    4.1163   -6.3764    0.0000 H   0  0  0  0  0  0  0  0  0  0  0  0
  1  3  1  0  0  0  0
  1  5  1  0  0  0  0
  1  6  1  0  0  0  0
  1  8  2  0  0  0  0
  2 11  1  0  0  0  0
  2 12  1  0  0  0  0
  3 15  1  0  0  0  0
  4 17  2  0  0  0  0
  5 21  1  0  0  0  0
  6 38  1  0  0  0  0
  7 19  2  0  0  0  0
 11  9  1  6  0  0  0
  9 16  1  0  0  0  0
  9 17  1  0  0  0  0
 10 17  1  0  0  0  0
 10 19  1  0  0  0  0
 10 34  1  0  0  0  0
 11 13  1  0  0  0  0
 11 27  1  0  0  0  0
 12 14  1  0  0  0  0
 12 15  1  6  0  0  0
 12 28  1  0  0  0  0
 13 14  2  0  0  0  0
 13 29  1  0  0  0  0
 14 30  1  0  0  0  0
 15 31  1  0  0  0  0
 15 32  1  0  0  0  0
 16 18  2  0  0  0  0
 16 33  1  0  0  0  0
 18 19  1  0  0  0  0
 18 20  1  0  0  0  0
 20 35  1  0  0  0  0
 20 36  1  0  0  0  0
 20 37  1  0  0  0  0
 21 22  2  0  0  0  0
 21 23  1  0  0  0  0
 22 24  1  0  0  0  0
 22 39  1  0  0  0  0
 23 25  2  0  0  0  0
 23 40  1  0  0  0  0
 24 26  2  0  0  0  0
 24 41  1  0  0  0  0
 25 26  1  0  0  0  0
 25 42  1  0  0  0  0
 26 43  1  0  0  0  0
M  END
> <PUBCHEM_COMPOUND_CID>
511207
> <PUBCHEM_COMPOUND_CANONICALIZED>
1
> <PUBCHEM_CACTVS_COMPLEXITY>
672
> <PUBCHEM_CACTVS_HBOND_ACCEPTOR>
7
> <PUBCHEM_CACTVS_HBOND_DONOR>
2
> <PUBCHEM_CACTVS_ROTATABLE_BOND>
6
> <PUBCHEM_CACTVS_SUBSKEYS>
AAADceB7OAIAAAAAAAAAAAAAAAAAAQAAAAAwQAAAAAAAAAABAAAAHgAQCCAADBThkAYzBoPABRCIQiFWUICCAAAgIAAIiAEOCMiJJiKAMRKOMAAsxzMKqMeAQAAAAAAAAAAAAAAAAAAAAAAAAAAAAAAAAA==
> <PUBCHEM_IUPAC_OPENEYE_NAME>
[(2S,5R)-5-(5-methyl-2,4-dioxo-pyrimidin-1-yl)-2,5-dihydrofuran-2-yl]methyl phenyl hydrogen phosphate
> <PUBCHEM_IUPAC_CAS_NAME>
[(2S,5R)-5-(5-methyl-2,4-dioxo-1-pyrimidinyl)-2,5-dihydrofuran-2-yl]methyl phenyl hydrogen phosphate
> <PUBCHEM_IUPAC_NAME_MARKUP>
[(2<I>S</I>,5<I>R</I>)-5-(5-methyl-2,4-dioxopyrimidin-1-yl)-2,5-dihydrofuran-2-yl]methyl phenyl hydrogen phosphate
> <PUBCHEM_IUPAC_NAME>
[(2S,5R)-5-(5-methyl-2,4-dioxopyrimidin-1-yl)-2,5-dihydrofuran-2-yl]methyl phenyl hydrogen phosphate
> <PUBCHEM_IUPAC_SYSTEMATIC_NAME>
[(2S,5R)-5-[5-methyl-2,4-bis(oxidanylidene)pyrimidin-1-yl]-2,5-dihydrofuran-2-yl]methyl phenyl hydrogen phosphate
> <PUBCHEM_IUPAC_TRADITIONAL_NAME>
[(2S,5R)-5-(2,4-diketo-5-methyl-pyrimidin-1-yl)-2,5-dihydrofuran-2-yl]methyl phenyl hydrogen phosphate
> <PUBCHEM_IUPAC_INCHI>
InChI=1S/C16H17N2O7P/c1-11-9-18(16(20)17-15(11)19)14-8-7-13(24-14)10-23-26(21,22)25-12-5-3-2-4-6-12/h2-9,13-14H,10H2,1H3,(H,21,22)(H,17,19,20)/t13-,14+/m0/s1
> <PUBCHEM_IUPAC_INCHIKEY>
XSACFYGYAQUDLE-UONOGXRCSA-N
> <PUBCHEM_XLOGP3>
0.4
> <PUBCHEM_EXACT_MASS>
380.07733788
> <PUBCHEM_MOLECULAR_FORMULA>
C16H17N2O7P
> <PUBCHEM_MOLECULAR_WEIGHT>
380.29
> <PUBCHEM_OPENEYE_CAN_SMILES>
CC1=CN(C(=O)NC1=O)C2C=CC(O2)COP(=O)(O)OC3=CC=CC=C3
> <PUBCHEM_OPENEYE_ISO_SMILES>
CC1=CN(C(=O)NC1=O)[C@H]2C=C[C@H](O2)COP(=O)(O)OC3=CC=CC=C3
> <PUBCHEM_CACTVS_TPSA>
114
> <PUBCHEM_MONOISOTOPIC_WEIGHT>
380.07733788
> <PUBCHEM_TOTAL_CHARGE>
0
> <PUBCHEM_HEAVY_ATOM_COUNT>
26
> <PUBCHEM_ATOM_DEF_STEREO_COUNT>
2
> <PUBCHEM_ATOM_UDEF_STEREO_COUNT>
0
> <PUBCHEM_BOND_DEF_STEREO_COUNT>
0
> <PUBCHEM_BOND_UDEF_STEREO_COUNT>
0
> <PUBCHEM_ISOTOPIC_ATOM_COUNT>
0
> <PUBCHEM_COMPONENT_COUNT>
1
> <PUBCHEM_CACTVS_TAUTO_COUNT>
-1
> <PUBCHEM_COORDINATE_TYPE>
1
5
255
> <PUBCHEM_BONDANNOTATIONS>
10  17  8
10  19  8
12  15  6
16  18  8
18  19  8
21  22  8
21  23  8
22  24  8
23  25  8
24  26  8
25  26  8
11  9  6
9  16  8
9  17  8
$$$$
