511243
  -OEChem-10302200282D
 43 44  0     1  0  0  0  0  0999 V2000
    7.7469   -2.3649    0.0000 P   0  0  3  0  0  0  0  0  0  0  0  0
   10.5048   -4.6874    0.0000 F   0  0  0  0  0  0  0  0  0  0  0  0
   10.7260   -3.2906    0.0000 F   0  0  0  0  0  0  0  0  0  0  0  0
    9.1080   -4.4662    0.0000 F   0  0  0  0  0  0  0  0  0  0  0  0
    5.8858    0.0996    0.0000 O   0  0  0  0  0  0  0  0  0  0  0  0
    7.1591   -1.5559    0.0000 O   0  0  0  0  0  0  0  0  0  0  0  0
    6.8089    1.6874    0.0000 O   0  0  0  0  0  0  0  0  0  0  0  0
    8.3347   -3.1739    0.0000 O   0  0  0  0  0  0  0  0  0  0  0  0
    8.5559   -1.7771    0.0000 O   0  0  0  0  0  0  0  0  0  0  0  0
    6.9379   -2.9527    0.0000 O   0  0  0  0  0  0  0  0  0  0  0  0
    5.0768    4.6874    0.0000 O   0  0  0  0  0  0  0  0  0  0  0  0
    5.0768    1.6874    0.0000 N   0  0  0  0  0  0  0  0  0  0  0  0
    3.9890   -1.6604    0.0000 N   0  0  0  0  0  0  0  0  0  0  0  0
    5.9428    3.1874    0.0000 N   0  0  0  0  0  0  0  0  0  0  0  0
    2.9945   -1.5559    0.0000 N   0  3  0  0  0  0  0  0  0  0  0  0
    2.0000   -1.4514    0.0000 N   0  5  0  0  0  0  0  0  0  0  0  0
    4.5768   -0.8514    0.0000 C   0  0  2  0  0  0  0  0  0  0  0  0
    5.5768   -0.8514    0.0000 C   0  0  1  0  0  0  0  0  0  0  0  0
    4.2678    0.0996    0.0000 C   0  0  0  0  0  0  0  0  0  0  0  0
    5.0768    0.6874    0.0000 C   0  0  1  0  0  0  0  0  0  0  0  0
    6.1646   -1.6604    0.0000 C   0  0  0  0  0  0  0  0  0  0  0  0
    4.2108    2.1874    0.0000 C   0  0  0  0  0  0  0  0  0  0  0  0
    5.9428    2.1874    0.0000 C   0  0  0  0  0  0  0  0  0  0  0  0
    4.2108    3.1874    0.0000 C   0  0  0  0  0  0  0  0  0  0  0  0
    5.0768    3.6874    0.0000 C   0  0  0  0  0  0  0  0  0  0  0  0
    3.3448    3.6874    0.0000 C   0  0  0  0  0  0  0  0  0  0  0  0
    9.3292   -3.0694    0.0000 C   0  0  0  0  0  0  0  0  0  0  0  0
    9.9170   -3.8784    0.0000 C   0  0  0  0  0  0  0  0  0  0  0  0
    3.9645   -0.7544    0.0000 H   0  0  0  0  0  0  0  0  0  0  0  0
    6.1892   -0.7544    0.0000 H   0  0  0  0  0  0  0  0  0  0  0  0
    3.9578    0.6366    0.0000 H   0  0  0  0  0  0  0  0  0  0  0  0
    3.7014   -0.1525    0.0000 H   0  0  0  0  0  0  0  0  0  0  0  0
    4.5244    0.9689    0.0000 H   0  0  0  0  0  0  0  0  0  0  0  0
    5.6074   -1.9322    0.0000 H   0  0  0  0  0  0  0  0  0  0  0  0
    6.3355   -2.2564    0.0000 H   0  0  0  0  0  0  0  0  0  0  0  0
    3.6739    1.8774    0.0000 H   0  0  0  0  0  0  0  0  0  0  0  0
    6.4798    3.4974    0.0000 H   0  0  0  0  0  0  0  0  0  0  0  0
    3.6548    4.2244    0.0000 H   0  0  0  0  0  0  0  0  0  0  0  0
    2.8078    3.9974    0.0000 H   0  0  0  0  0  0  0  0  0  0  0  0
    3.0348    3.1505    0.0000 H   0  0  0  0  0  0  0  0  0  0  0  0
    8.4911   -1.1605    0.0000 H   0  0  0  0  0  0  0  0  0  0  0  0
    9.8865   -2.7976    0.0000 H   0  0  0  0  0  0  0  0  0  0  0  0
    9.1583   -2.4734    0.0000 H   0  0  0  0  0  0  0  0  0  0  0  0
  1  6  1  0  0  0  0
  1  8  1  0  0  0  0
  1  9  1  0  0  0  0
  1 10  2  0  0  0  0
  2 28  1  0  0  0  0
  3 28  1  0  0  0  0
  4 28  1  0  0  0  0
  5 18  1  0  0  0  0
  5 20  1  0  0  0  0
  6 21  1  0  0  0  0
  7 23  2  0  0  0  0
  8 27  1  0  0  0  0
  9 41  1  0  0  0  0
 11 25  2  0  0  0  0
 20 12  1  6  0  0  0
 12 22  1  0  0  0  0
 12 23  1  0  0  0  0
 13 15  2  0  0  0  0
 17 13  1  1  0  0  0
 14 23  1  0  0  0  0
 14 25  1  0  0  0  0
 14 37  1  0  0  0  0
 15 16  2  0  0  0  0
 17 18  1  0  0  0  0
 17 19  1  0  0  0  0
 17 29  1  0  0  0  0
 18 21  1  6  0  0  0
 18 30  1  0  0  0  0
 19 20  1  0  0  0  0
 19 31  1  0  0  0  0
 19 32  1  0  0  0  0
 20 33  1  0  0  0  0
 21 34  1  0  0  0  0
 21 35  1  0  0  0  0
 22 24  2  0  0  0  0
 22 36  1  0  0  0  0
 24 25  1  0  0  0  0
 24 26  1  0  0  0  0
 26 38  1  0  0  0  0
 26 39  1  0  0  0  0
 26 40  1  0  0  0  0
 27 28  1  0  0  0  0
 27 42  1  0  0  0  0
 27 43  1  0  0  0  0
M  CHG  2  15   1  16  -1
M  END
> <PUBCHEM_COMPOUND_CID>
511243
> <PUBCHEM_COMPOUND_CANONICALIZED>
1
> <PUBCHEM_CACTVS_COMPLEXITY>
769
> <PUBCHEM_CACTVS_HBOND_ACCEPTOR>
12
> <PUBCHEM_CACTVS_HBOND_DONOR>
2
> <PUBCHEM_CACTVS_ROTATABLE_BOND>
7
> <PUBCHEM_CACTVS_SUBSKEYS>
AAADccBzuYIAAAAAAAAAAAAAAAAAASAAAAAgAAAAAAAAAAAAAAAAHwAYCCAADDzhgBYDAAPABRCKQgFWUICAAAAAAAAAAAEIAECDAAIAwQAPAAAOByICAMCwMAIAAAAAAAAAAAAAAAAAAAAAAAAAAAAAAA==
> <PUBCHEM_IUPAC_OPENEYE_NAME>
[(2S,3S,5R)-3-azido-5-(5-methyl-2,4-dioxo-pyrimidin-1-yl)tetrahydrofuran-2-yl]methyl 2,2,2-trifluoroethyl hydrogen phosphate
> <PUBCHEM_IUPAC_CAS_NAME>
[(2S,3S,5R)-3-azido-5-(5-methyl-2,4-dioxo-1-pyrimidinyl)-2-oxolanyl]methyl 2,2,2-trifluoroethyl hydrogen phosphate
> <PUBCHEM_IUPAC_NAME_MARKUP>
[(2<I>S</I>,3<I>S</I>,5<I>R</I>)-3-azido-5-(5-methyl-2,4-dioxopyrimidin-1-yl)oxolan-2-yl]methyl 2,2,2-trifluoroethyl hydrogen phosphate
> <PUBCHEM_IUPAC_NAME>
[(2S,3S,5R)-3-azido-5-(5-methyl-2,4-dioxopyrimidin-1-yl)oxolan-2-yl]methyl 2,2,2-trifluoroethyl hydrogen phosphate
> <PUBCHEM_IUPAC_SYSTEMATIC_NAME>
[(2S,3S,5R)-3-azido-5-[5-methyl-2,4-bis(oxidanylidene)pyrimidin-1-yl]oxolan-2-yl]methyl 2,2,2-tris(fluoranyl)ethyl hydrogen phosphate
> <PUBCHEM_IUPAC_TRADITIONAL_NAME>
[(2S,3S,5R)-3-azido-5-(2,4-diketo-5-methyl-pyrimidin-1-yl)tetrahydrofuran-2-yl]methyl 2,2,2-trifluoroethyl hydrogen phosphate
> <PUBCHEM_IUPAC_INCHI>
InChI=1S/C12H15F3N5O7P/c1-6-3-20(11(22)17-10(6)21)9-2-7(18-19-16)8(27-9)4-25-28(23,24)26-5-12(13,14)15/h3,7-9H,2,4-5H2,1H3,(H,23,24)(H,17,21,22)/t7-,8+,9+/m0/s1
> <PUBCHEM_IUPAC_INCHIKEY>
MHGRVVNRJGJMFH-DJLDLDEBSA-N
> <PUBCHEM_XLOGP3>
0.6
> <PUBCHEM_EXACT_MASS>
429.06611932
> <PUBCHEM_MOLECULAR_FORMULA>
C12H15F3N5O7P
> <PUBCHEM_MOLECULAR_WEIGHT>
429.25
> <PUBCHEM_OPENEYE_CAN_SMILES>
CC1=CN(C(=O)NC1=O)C2CC(C(O2)COP(=O)(O)OCC(F)(F)F)N=[N+]=[N-]
> <PUBCHEM_OPENEYE_ISO_SMILES>
CC1=CN(C(=O)NC1=O)[C@H]2C[C@@H]([C@H](O2)COP(=O)(O)OCC(F)(F)F)N=[N+]=[N-]
> <PUBCHEM_CACTVS_TPSA>
129
> <PUBCHEM_MONOISOTOPIC_WEIGHT>
429.06611932
> <PUBCHEM_TOTAL_CHARGE>
0
> <PUBCHEM_HEAVY_ATOM_COUNT>
28
> <PUBCHEM_ATOM_DEF_STEREO_COUNT>
3
> <PUBCHEM_ATOM_UDEF_STEREO_COUNT>
0
> <PUBCHEM_BOND_DEF_STEREO_COUNT>
0
> <PUBCHEM_BOND_UDEF_STEREO_COUNT>
0
> <PUBCHEM_ISOTOPIC_ATOM_COUNT>
0
> <PUBCHEM_COMPONENT_COUNT>
1
> <PUBCHEM_CACTVS_TAUTO_COUNT>
-1
> <PUBCHEM_COORDINATE_TYPE>
1
5
255
> <PUBCHEM_BONDANNOTATIONS>
20  12  6
12  22  8
12  23  8
17  13  5
14  23  8
14  25  8
18  21  6
22  24  8
24  25  8
$$$$
