511226
  -OEChem-10302200282D
 63 65  0     1  0  0  0  0  0999 V2000
    5.0009   -2.2495    0.0000 P   0  0  3  0  0  0  0  0  0  0  0  0
    4.5411    1.2331    0.0000 O   0  0  0  0  0  0  0  0  0  0  0  0
    4.4131   -1.4405    0.0000 O   0  0  0  0  0  0  0  0  0  0  0  0
    4.1919   -2.8373    0.0000 O   0  0  0  0  0  0  0  0  0  0  0  0
    5.8099   -1.6618    0.0000 O   0  0  0  0  0  0  0  0  0  0  0  0
    8.1655   -3.6585    0.0000 O   0  0  0  0  0  0  0  0  0  0  0  0
    5.4641    2.8209    0.0000 O   0  0  0  0  0  0  0  0  0  0  0  0
    6.7642   -4.6766    0.0000 O   0  0  0  0  0  0  0  0  0  0  0  0
    3.7320    5.8209    0.0000 O   0  0  0  0  0  0  0  0  0  0  0  0
    7.8034   -0.2134    0.0000 O   0  0  0  0  0  0  0  0  0  0  0  0
    3.7320    2.8209    0.0000 N   0  0  0  0  0  0  0  0  0  0  0  0
    5.5887   -3.0586    0.0000 N   0  0  0  0  0  0  0  0  0  0  0  0
    4.5981    4.3209    0.0000 N   0  0  0  0  0  0  0  0  0  0  0  0
    9.3857   -0.9179    0.0000 N   0  0  0  0  0  0  0  0  0  0  0  0
    4.2320    0.2820    0.0000 C   0  0  2  0  0  0  0  0  0  0  0  0
    3.7320    1.8209    0.0000 C   0  0  1  0  0  0  0  0  0  0  0  0
    4.8198   -0.5270    0.0000 C   0  0  0  0  0  0  0  0  0  0  0  0
    3.2320    0.2820    0.0000 C   0  0  0  0  0  0  0  0  0  0  0  0
    2.9230    1.2331    0.0000 C   0  0  0  0  0  0  0  0  0  0  0  0
    6.5832   -2.9540    0.0000 C   0  0  1  0  0  0  0  0  0  0  0  0
    6.9899   -2.0405    0.0000 C   0  0  0  0  0  0  0  0  0  0  0  0
    2.8660    3.3209    0.0000 C   0  0  0  0  0  0  0  0  0  0  0  0
    7.9844   -1.9360    0.0000 C   0  0  0  0  0  0  0  0  0  0  0  0
    4.5981    3.3209    0.0000 C   0  0  0  0  0  0  0  0  0  0  0  0
    7.1710   -3.7630    0.0000 C   0  0  0  0  0  0  0  0  0  0  0  0
    2.8660    4.3209    0.0000 C   0  0  0  0  0  0  0  0  0  0  0  0
    3.7320    4.8209    0.0000 C   0  0  0  0  0  0  0  0  0  0  0  0
    8.3912   -1.0224    0.0000 C   0  0  0  0  0  0  0  0  0  0  0  0
    2.0000    4.8209    0.0000 C   0  0  0  0  0  0  0  0  0  0  0  0
    4.2964   -3.8318    0.0000 C   0  0  0  0  0  0  0  0  0  0  0  0
    5.2099   -4.2386    0.0000 C   0  0  0  0  0  0  0  0  0  0  0  0
    3.4874   -4.4196    0.0000 C   0  0  0  0  0  0  0  0  0  0  0  0
    8.7533   -4.4675    0.0000 C   0  0  0  0  0  0  0  0  0  0  0  0
    5.3145   -5.2331    0.0000 C   0  0  0  0  0  0  0  0  0  0  0  0
    3.5919   -5.4142    0.0000 C   0  0  0  0  0  0  0  0  0  0  0  0
    4.5054   -5.8209    0.0000 C   0  0  0  0  0  0  0  0  0  0  0  0
    4.8444    0.3790    0.0000 H   0  0  0  0  0  0  0  0  0  0  0  0
    4.2845    2.1024    0.0000 H   0  0  0  0  0  0  0  0  0  0  0  0
    5.3338   -0.8737    0.0000 H   0  0  0  0  0  0  0  0  0  0  0  0
    5.2505   -0.0810    0.0000 H   0  0  0  0  0  0  0  0  0  0  0  0
    2.8676   -0.2195    0.0000 H   0  0  0  0  0  0  0  0  0  0  0  0
    2.3334    1.4247    0.0000 H   0  0  0  0  0  0  0  0  0  0  0  0
    6.3310   -3.5204    0.0000 H   0  0  0  0  0  0  0  0  0  0  0  0
    7.0332   -1.4220    0.0000 H   0  0  0  0  0  0  0  0  0  0  0  0
    6.3883   -1.8905    0.0000 H   0  0  0  0  0  0  0  0  0  0  0  0
    5.3365   -3.6250    0.0000 H   0  0  0  0  0  0  0  0  0  0  0  0
    2.3291    3.0109    0.0000 H   0  0  0  0  0  0  0  0  0  0  0  0
    7.9412   -2.5544    0.0000 H   0  0  0  0  0  0  0  0  0  0  0  0
    8.5860   -2.0859    0.0000 H   0  0  0  0  0  0  0  0  0  0  0  0
    5.1350    4.6309    0.0000 H   0  0  0  0  0  0  0  0  0  0  0  0
    2.3100    5.3578    0.0000 H   0  0  0  0  0  0  0  0  0  0  0  0
    1.4631    5.1309    0.0000 H   0  0  0  0  0  0  0  0  0  0  0  0
    1.6900    4.2840    0.0000 H   0  0  0  0  0  0  0  0  0  0  0  0
    5.7115   -3.8742    0.0000 H   0  0  0  0  0  0  0  0  0  0  0  0
    2.9210   -4.1674    0.0000 H   0  0  0  0  0  0  0  0  0  0  0  0
    9.6379   -0.3515    0.0000 H   0  0  0  0  0  0  0  0  0  0  0  0
    9.7501   -1.4195    0.0000 H   0  0  0  0  0  0  0  0  0  0  0  0
    8.2517   -4.8320    0.0000 H   0  0  0  0  0  0  0  0  0  0  0  0
    9.1177   -4.9691    0.0000 H   0  0  0  0  0  0  0  0  0  0  0  0
    9.2549   -4.1031    0.0000 H   0  0  0  0  0  0  0  0  0  0  0  0
    5.8809   -5.4853    0.0000 H   0  0  0  0  0  0  0  0  0  0  0  0
    3.0903   -5.7786    0.0000 H   0  0  0  0  0  0  0  0  0  0  0  0
    4.5703   -6.4375    0.0000 H   0  0  0  0  0  0  0  0  0  0  0  0
  1  3  1  0  0  0  0
  1  4  1  0  0  0  0
  1  5  2  0  0  0  0
  1 12  1  0  0  0  0
  2 15  1  0  0  0  0
  2 16  1  0  0  0  0
  3 17  1  0  0  0  0
  4 30  1  0  0  0  0
  6 25  1  0  0  0  0
  6 33  1  0  0  0  0
  7 24  2  0  0  0  0
  8 25  2  0  0  0  0
  9 27  2  0  0  0  0
 10 28  2  0  0  0  0
 16 11  1  6  0  0  0
 11 22  1  0  0  0  0
 11 24  1  0  0  0  0
 20 12  1  1  0  0  0
 12 46  1  0  0  0  0
 13 24  1  0  0  0  0
 13 27  1  0  0  0  0
 13 50  1  0  0  0  0
 14 28  1  0  0  0  0
 14 56  1  0  0  0  0
 14 57  1  0  0  0  0
 15 17  1  6  0  0  0
 15 18  1  0  0  0  0
 15 37  1  0  0  0  0
 16 19  1  0  0  0  0
 16 38  1  0  0  0  0
 17 39  1  0  0  0  0
 17 40  1  0  0  0  0
 18 19  2  0  0  0  0
 18 41  1  0  0  0  0
 19 42  1  0  0  0  0
 20 21  1  0  0  0  0
 20 25  1  0  0  0  0
 20 43  1  0  0  0  0
 21 23  1  0  0  0  0
 21 44  1  0  0  0  0
 21 45  1  0  0  0  0
 22 26  2  0  0  0  0
 22 47  1  0  0  0  0
 23 28  1  0  0  0  0
 23 48  1  0  0  0  0
 23 49  1  0  0  0  0
 26 27  1  0  0  0  0
 26 29  1  0  0  0  0
 29 51  1  0  0  0  0
 29 52  1  0  0  0  0
 29 53  1  0  0  0  0
 30 31  2  0  0  0  0
 30 32  1  0  0  0  0
 31 34  1  0  0  0  0
 31 54  1  0  0  0  0
 32 35  2  0  0  0  0
 32 55  1  0  0  0  0
 33 58  1  0  0  0  0
 33 59  1  0  0  0  0
 33 60  1  0  0  0  0
 34 36  2  0  0  0  0
 34 61  1  0  0  0  0
 35 36  1  0  0  0  0
 35 62  1  0  0  0  0
 36 63  1  0  0  0  0
M  END
> <PUBCHEM_COMPOUND_CID>
511226
> <PUBCHEM_COMPOUND_CANONICALIZED>
1
> <PUBCHEM_CACTVS_COMPLEXITY>
963
> <PUBCHEM_CACTVS_HBOND_ACCEPTOR>
10
> <PUBCHEM_CACTVS_HBOND_DONOR>
3
> <PUBCHEM_CACTVS_ROTATABLE_BOND>
13
> <PUBCHEM_CACTVS_SUBSKEYS>
AAADceB7vAIAAAAAAAAAAAAAAAAAAQAAAAAwQAAAAAAAAAABAAAAHgAQgCAADDzhkAYzDoPABRCIQiHWWICCAAAgIAAIiIGOCMiLJjKAsRKPMAAs1zMKqMecVwAAAAAAAAAAAAAAAAAAAAAAAAAAAAAAAA==
> <PUBCHEM_IUPAC_OPENEYE_NAME>
methyl (2S)-5-amino-2-[[[(2S,5R)-5-(5-methyl-2,4-dioxo-pyrimidin-1-yl)-2,5-dihydrofuran-2-yl]methoxy-phenoxy-phosphoryl]amino]-5-oxo-pentanoate
> <PUBCHEM_IUPAC_CAS_NAME>
(2S)-5-amino-2-[[[(2S,5R)-5-(5-methyl-2,4-dioxo-1-pyrimidinyl)-2,5-dihydrofuran-2-yl]methoxy-phenoxyphosphoryl]amino]-5-oxopentanoic acid methyl ester
> <PUBCHEM_IUPAC_NAME_MARKUP>
methyl (2<I>S</I>)-5-amino-2-[[[(2<I>S</I>,5<I>R</I>)-5-(5-methyl-2,4-dioxopyrimidin-1-yl)-2,5-dihydrofuran-2-yl]methoxy-phenoxyphosphoryl]amino]-5-oxopentanoate
> <PUBCHEM_IUPAC_NAME>
methyl (2S)-5-amino-2-[[[(2S,5R)-5-(5-methyl-2,4-dioxopyrimidin-1-yl)-2,5-dihydrofuran-2-yl]methoxy-phenoxyphosphoryl]amino]-5-oxopentanoate
> <PUBCHEM_IUPAC_SYSTEMATIC_NAME>
methyl (2S)-5-azanyl-2-[[[(2S,5R)-5-[5-methyl-2,4-bis(oxidanylidene)pyrimidin-1-yl]-2,5-dihydrofuran-2-yl]methoxy-phenoxy-phosphoryl]amino]-5-oxidanylidene-pentanoate
> <PUBCHEM_IUPAC_TRADITIONAL_NAME>
(2S)-5-amino-2-[[[(2S,5R)-5-(2,4-diketo-5-methyl-pyrimidin-1-yl)-2,5-dihydrofuran-2-yl]methoxy-phenoxy-phosphoryl]amino]-5-keto-valeric acid methyl ester
> <PUBCHEM_IUPAC_INCHI>
InChI=1S/C22H27N4O9P/c1-14-12-26(22(30)24-20(14)28)19-11-8-16(34-19)13-33-36(31,35-15-6-4-3-5-7-15)25-17(21(29)32-2)9-10-18(23)27/h3-8,11-12,16-17,19H,9-10,13H2,1-2H3,(H2,23,27)(H,25,31)(H,24,28,30)/t16-,17-,19+,36?/m0/s1
> <PUBCHEM_IUPAC_INCHIKEY>
WMYXMVDHTWZAKM-FOFVGFJWSA-N
> <PUBCHEM_XLOGP3_AA>
-0.2
> <PUBCHEM_EXACT_MASS>
522.15156545
> <PUBCHEM_MOLECULAR_FORMULA>
C22H27N4O9P
> <PUBCHEM_MOLECULAR_WEIGHT>
522.4
> <PUBCHEM_OPENEYE_CAN_SMILES>
CC1=CN(C(=O)NC1=O)C2C=CC(O2)COP(=O)(NC(CCC(=O)N)C(=O)OC)OC3=CC=CC=C3
> <PUBCHEM_OPENEYE_ISO_SMILES>
CC1=CN(C(=O)NC1=O)[C@H]2C=C[C@H](O2)COP(=O)(N[C@@H](CCC(=O)N)C(=O)OC)OC3=CC=CC=C3
> <PUBCHEM_CACTVS_TPSA>
176
> <PUBCHEM_MONOISOTOPIC_WEIGHT>
522.15156545
> <PUBCHEM_TOTAL_CHARGE>
0
> <PUBCHEM_HEAVY_ATOM_COUNT>
36
> <PUBCHEM_ATOM_DEF_STEREO_COUNT>
3
> <PUBCHEM_ATOM_UDEF_STEREO_COUNT>
1
> <PUBCHEM_BOND_DEF_STEREO_COUNT>
0
> <PUBCHEM_BOND_UDEF_STEREO_COUNT>
0
> <PUBCHEM_ISOTOPIC_ATOM_COUNT>
0
> <PUBCHEM_COMPONENT_COUNT>
1
> <PUBCHEM_CACTVS_TAUTO_COUNT>
-1
> <PUBCHEM_COORDINATE_TYPE>
1
5
255
> <PUBCHEM_BONDANNOTATIONS>
1  12  3
16  11  6
11  22  8
11  24  8
20  12  5
13  24  8
13  27  8
15  17  6
22  26  8
26  27  8
30  31  8
30  32  8
31  34  8
32  35  8
34  36  8
35  36  8
$$$$
