511373
  -OEChem-10302200282D
 49 51  0     1  0  0  0  0  0999 V2000
    8.9282   -0.5000    0.0000 Br  0  0  0  0  0  0  0  0  0  0  0  0
    2.0000   -1.5000    0.0000 Cl  0  0  0  0  0  0  0  0  0  0  0  0
    3.7320   -4.5000    0.0000 Cl  0  0  0  0  0  0  0  0  0  0  0  0
    3.7320    2.5000    0.0000 O   0  0  0  0  0  0  0  0  0  0  0  0
    2.8660    1.0000    0.0000 O   0  0  0  0  0  0  0  0  0  0  0  0
    4.5981    0.0000    0.0000 N   0  0  3  0  0  0  0  0  0  0  0  0
    4.5981    1.0000    0.0000 C   0  0  1  0  0  0  0  0  0  0  0  0
    5.4641    1.5000    0.0000 C   0  0  0  0  0  0  0  0  0  0  0  0
    3.7320   -0.5000    0.0000 C   0  0  0  0  0  0  0  0  0  0  0  0
    5.4641   -0.5000    0.0000 C   0  0  0  0  0  0  0  0  0  0  0  0
    5.4641    2.5000    0.0000 C   0  0  0  0  0  0  0  0  0  0  0  0
    3.7320   -1.5000    0.0000 C   0  0  0  0  0  0  0  0  0  0  0  0
    6.3301    0.0000    0.0000 C   0  0  0  0  0  0  0  0  0  0  0  0
    3.7320    1.5000    0.0000 C   0  0  0  0  0  0  0  0  0  0  0  0
    6.3301    3.0000    0.0000 C   0  0  0  0  0  0  0  0  0  0  0  0
    4.5981    3.0000    0.0000 C   0  0  0  0  0  0  0  0  0  0  0  0
    2.8660   -2.0000    0.0000 C   0  0  0  0  0  0  0  0  0  0  0  0
    4.5981   -2.0000    0.0000 C   0  0  0  0  0  0  0  0  0  0  0  0
    7.1962   -0.5000    0.0000 C   0  0  0  0  0  0  0  0  0  0  0  0
    6.3301    1.0000    0.0000 C   0  0  0  0  0  0  0  0  0  0  0  0
    6.3301    4.0000    0.0000 C   0  0  0  0  0  0  0  0  0  0  0  0
    4.5981    4.0000    0.0000 C   0  0  0  0  0  0  0  0  0  0  0  0
    2.8660   -3.0000    0.0000 C   0  0  0  0  0  0  0  0  0  0  0  0
    4.5981   -3.0000    0.0000 C   0  0  0  0  0  0  0  0  0  0  0  0
    8.0622   -0.0000    0.0000 C   0  0  0  0  0  0  0  0  0  0  0  0
    7.1962    1.5000    0.0000 C   0  0  0  0  0  0  0  0  0  0  0  0
    5.4641    4.5000    0.0000 C   0  0  0  0  0  0  0  0  0  0  0  0
    3.7320   -3.5000    0.0000 C   0  0  0  0  0  0  0  0  0  0  0  0
    8.0622    1.0000    0.0000 C   0  0  0  0  0  0  0  0  0  0  0  0
    5.1350    0.6900    0.0000 H   0  0  0  0  0  0  0  0  0  0  0  0
    5.6762    0.9174    0.0000 H   0  0  0  0  0  0  0  0  0  0  0  0
    6.0747    1.6077    0.0000 H   0  0  0  0  0  0  0  0  0  0  0  0
    3.5200    0.0826    0.0000 H   0  0  0  0  0  0  0  0  0  0  0  0
    3.1215   -0.6077    0.0000 H   0  0  0  0  0  0  0  0  0  0  0  0
    5.0656   -0.9749    0.0000 H   0  0  0  0  0  0  0  0  0  0  0  0
    5.8626   -0.9749    0.0000 H   0  0  0  0  0  0  0  0  0  0  0  0
    6.8671    2.6900    0.0000 H   0  0  0  0  0  0  0  0  0  0  0  0
    4.0611    2.6900    0.0000 H   0  0  0  0  0  0  0  0  0  0  0  0
    5.1350   -1.6900    0.0000 H   0  0  0  0  0  0  0  0  0  0  0  0
    7.1962   -1.1200    0.0000 H   0  0  0  0  0  0  0  0  0  0  0  0
    5.7932    1.3100    0.0000 H   0  0  0  0  0  0  0  0  0  0  0  0
    6.8671    4.3100    0.0000 H   0  0  0  0  0  0  0  0  0  0  0  0
    4.0611    4.3100    0.0000 H   0  0  0  0  0  0  0  0  0  0  0  0
    2.3291   -3.3100    0.0000 H   0  0  0  0  0  0  0  0  0  0  0  0
    5.1350   -3.3100    0.0000 H   0  0  0  0  0  0  0  0  0  0  0  0
    7.1962    2.1200    0.0000 H   0  0  0  0  0  0  0  0  0  0  0  0
    3.1951    2.8100    0.0000 H   0  0  0  0  0  0  0  0  0  0  0  0
    5.4641    5.1200    0.0000 H   0  0  0  0  0  0  0  0  0  0  0  0
    8.5991    1.3100    0.0000 H   0  0  0  0  0  0  0  0  0  0  0  0
  1 25  1  0  0  0  0
  2 17  1  0  0  0  0
  3 28  1  0  0  0  0
  4 14  1  0  0  0  0
  4 47  1  0  0  0  0
  5 14  2  0  0  0  0
  7  6  1  6  0  0  0
  6  9  1  0  0  0  0
  6 10  1  0  0  0  0
  7  8  1  0  0  0  0
  7 14  1  0  0  0  0
  7 30  1  0  0  0  0
  8 11  1  0  0  0  0
  8 31  1  0  0  0  0
  8 32  1  0  0  0  0
  9 12  1  0  0  0  0
  9 33  1  0  0  0  0
  9 34  1  0  0  0  0
 10 13  1  0  0  0  0
 10 35  1  0  0  0  0
 10 36  1  0  0  0  0
 11 15  2  0  0  0  0
 11 16  1  0  0  0  0
 12 17  2  0  0  0  0
 12 18  1  0  0  0  0
 13 19  2  0  0  0  0
 13 20  1  0  0  0  0
 15 21  1  0  0  0  0
 15 37  1  0  0  0  0
 16 22  2  0  0  0  0
 16 38  1  0  0  0  0
 17 23  1  0  0  0  0
 18 24  2  0  0  0  0
 18 39  1  0  0  0  0
 19 25  1  0  0  0  0
 19 40  1  0  0  0  0
 20 26  2  0  0  0  0
 20 41  1  0  0  0  0
 21 27  2  0  0  0  0
 21 42  1  0  0  0  0
 22 27  1  0  0  0  0
 22 43  1  0  0  0  0
 23 28  2  0  0  0  0
 23 44  1  0  0  0  0
 24 28  1  0  0  0  0
 24 45  1  0  0  0  0
 25 29  2  0  0  0  0
 26 29  1  0  0  0  0
 26 46  1  0  0  0  0
 27 48  1  0  0  0  0
 29 49  1  0  0  0  0
M  END
> <PUBCHEM_COMPOUND_CID>
511373
> <PUBCHEM_COMPOUND_CANONICALIZED>
1
> <PUBCHEM_CACTVS_COMPLEXITY>
517
> <PUBCHEM_CACTVS_HBOND_ACCEPTOR>
3
> <PUBCHEM_CACTVS_HBOND_DONOR>
1
> <PUBCHEM_CACTVS_ROTATABLE_BOND>
8
> <PUBCHEM_CACTVS_SUBSKEYS>
AAADceB6MAAGEAAAAAAAAAAAAAAAAAAAAAAwYMAAAAAAAAABUAAAHgJACAABrCrBmCQwCIMAAgCIAiDSCACCAAAgBQQIiAGIBqgKIDKBkzGEYAhkgACYiheYyKCOBAAAEACBAAAIAAAgAQIAAAAAAAAAAA==
> <PUBCHEM_IUPAC_OPENEYE_NAME>
(2S)-2-[(3-bromophenyl)methyl-[(2,4-dichlorophenyl)methyl]amino]-3-phenyl-propanoic acid
> <PUBCHEM_IUPAC_CAS_NAME>
(2S)-2-[(3-bromophenyl)methyl-[(2,4-dichlorophenyl)methyl]amino]-3-phenylpropanoic acid
> <PUBCHEM_IUPAC_NAME_MARKUP>
(2<I>S</I>)-2-[(3-bromophenyl)methyl-[(2,4-dichlorophenyl)methyl]amino]-3-phenylpropanoic acid
> <PUBCHEM_IUPAC_NAME>
(2S)-2-[(3-bromophenyl)methyl-[(2,4-dichlorophenyl)methyl]amino]-3-phenylpropanoic acid
> <PUBCHEM_IUPAC_SYSTEMATIC_NAME>
(2S)-2-[(3-bromophenyl)methyl-[(2,4-dichlorophenyl)methyl]amino]-3-phenyl-propanoic acid
> <PUBCHEM_IUPAC_TRADITIONAL_NAME>
(2S)-2-[(3-bromobenzyl)-(2,4-dichlorobenzyl)amino]-3-phenyl-propionic acid
> <PUBCHEM_IUPAC_INCHI>
InChI=1S/C23H20BrCl2NO2/c24-19-8-4-7-17(11-19)14-27(15-18-9-10-20(25)13-21(18)26)22(23(28)29)12-16-5-2-1-3-6-16/h1-11,13,22H,12,14-15H2,(H,28,29)/t22-/m0/s1
> <PUBCHEM_IUPAC_INCHIKEY>
LLJKKBFAUZGPRS-QFIPXVFZSA-N
> <PUBCHEM_XLOGP3_AA>
4.5
> <PUBCHEM_EXACT_MASS>
491.00545
> <PUBCHEM_MOLECULAR_FORMULA>
C23H20BrCl2NO2
> <PUBCHEM_MOLECULAR_WEIGHT>
493.2
> <PUBCHEM_OPENEYE_CAN_SMILES>
C1=CC=C(C=C1)CC(C(=O)O)N(CC2=CC(=CC=C2)Br)CC3=C(C=C(C=C3)Cl)Cl
> <PUBCHEM_OPENEYE_ISO_SMILES>
C1=CC=C(C=C1)C[C@@H](C(=O)O)N(CC2=CC(=CC=C2)Br)CC3=C(C=C(C=C3)Cl)Cl
> <PUBCHEM_CACTVS_TPSA>
40.5
> <PUBCHEM_MONOISOTOPIC_WEIGHT>
491.00545
> <PUBCHEM_TOTAL_CHARGE>
0
> <PUBCHEM_HEAVY_ATOM_COUNT>
29
> <PUBCHEM_ATOM_DEF_STEREO_COUNT>
1
> <PUBCHEM_ATOM_UDEF_STEREO_COUNT>
0
> <PUBCHEM_BOND_DEF_STEREO_COUNT>
0
> <PUBCHEM_BOND_UDEF_STEREO_COUNT>
0
> <PUBCHEM_ISOTOPIC_ATOM_COUNT>
0
> <PUBCHEM_COMPONENT_COUNT>
1
> <PUBCHEM_CACTVS_TAUTO_COUNT>
-1
> <PUBCHEM_COORDINATE_TYPE>
1
5
255
> <PUBCHEM_BONDANNOTATIONS>
11  15  8
11  16  8
12  17  8
12  18  8
13  19  8
13  20  8
15  21  8
16  22  8
17  23  8
18  24  8
19  25  8
20  26  8
21  27  8
22  27  8
23  28  8
24  28  8
25  29  8
26  29  8
7  6  6
$$$$
