511340
  -OEChem-10302200282D
100107  0     1  0  0  0  0  0999 V2000
    5.7961    1.0954    0.0000 O   0  0  0  0  0  0  0  0  0  0  0  0
    9.0843    2.2462    0.0000 O   0  0  0  0  0  0  0  0  0  0  0  0
    6.6699   -0.1276    0.0000 O   0  0  0  0  0  0  0  0  0  0  0  0
    8.4516    0.8829    0.0000 O   0  0  0  0  0  0  0  0  0  0  0  0
    4.6769    2.5656    0.0000 O   0  0  0  0  0  0  0  0  0  0  0  0
    9.8111    3.9450    0.0000 O   0  0  0  0  0  0  0  0  0  0  0  0
    5.7981   -1.6242    0.0000 O   0  0  0  0  0  0  0  0  0  0  0  0
    6.7196    0.9029    0.0000 O   0  0  0  0  0  0  0  0  0  0  0  0
    8.4400   -2.1864    0.0000 O   0  0  0  0  0  0  0  0  0  0  0  0
   10.1839    0.8898    0.0000 O   0  0  0  0  0  0  0  0  0  0  0  0
   11.9320   -2.1517    0.0000 O   0  0  0  0  0  0  0  0  0  0  0  0
   11.0781    2.4175    0.0000 O   0  0  0  0  0  0  0  0  0  0  0  0
    2.9322   -0.0704    0.0000 C   0  0  0  0  0  0  0  0  0  0  0  0
    6.6575    4.1623    0.0000 C   0  0  0  0  0  0  0  0  0  0  0  0
    4.0737    0.3824    0.0000 C   0  0  3  0  0  0  0  0  0  0  0  0
    7.6145    3.3927    0.0000 C   0  0  3  0  0  0  0  0  0  0  0  0
    4.9378   -0.1209    0.0000 C   0  0  3  0  0  0  0  0  0  0  0  0
    7.6030    2.3928    0.0000 C   0  0  3  0  0  0  0  0  0  0  0  0
    4.1522   -1.6842    0.0000 C   0  0  0  0  0  0  0  0  0  0  0  0
    5.8555    2.3050    0.0000 C   0  0  0  0  0  0  0  0  0  0  0  0
    5.1487   -1.6009    0.0000 C   0  0  0  0  0  0  0  0  0  0  0  0
    6.4196    1.4793    0.0000 C   0  0  0  0  0  0  0  0  0  0  0  0
    4.9320    1.5987    0.0000 C   0  0  0  0  0  0  0  0  0  0  0  0
    9.0959    3.2462    0.0000 C   0  0  0  0  0  0  0  0  0  0  0  0
    2.0000    0.2916    0.0000 C   0  0  0  0  0  0  0  0  0  0  0  0
    2.2999   -0.8451    0.0000 C   0  0  0  0  0  0  0  0  0  0  0  0
    6.5125    5.1517    0.0000 C   0  0  0  0  0  0  0  0  0  0  0  0
    5.6717    4.3302    0.0000 C   0  0  0  0  0  0  0  0  0  0  0  0
    3.2096    0.8858    0.0000 C   0  0  0  0  0  0  0  0  0  0  0  0
    7.6261    4.3926    0.0000 C   0  0  0  0  0  0  0  0  0  0  0  0
    5.8019   -0.6242    0.0000 C   0  0  0  0  0  0  0  0  0  0  0  0
    7.5914    1.3928    0.0000 C   0  0  0  0  0  0  0  0  0  0  0  0
    7.5340   -0.6309    0.0000 C   0  0  2  0  0  0  0  0  0  0  0  0
    8.4400   -0.1171    0.0000 C   0  0  1  0  0  0  0  0  0  0  0  0
    7.5340   -1.6726    0.0000 C   0  0  0  0  0  0  0  0  0  0  0  0
    9.3340   -0.6517    0.0000 C   0  0  0  0  0  0  0  0  0  0  0  0
    9.3340   -1.6517    0.0000 C   0  0  0  0  0  0  0  0  0  0  0  0
    7.0373   -2.5405    0.0000 C   0  0  0  0  0  0  0  0  0  0  0  0
    6.5340   -1.6764    0.0000 C   0  0  0  0  0  0  0  0  0  0  0  0
   10.2000   -0.1517    0.0000 C   0  0  0  0  0  0  0  0  0  0  0  0
   10.2000   -2.1517    0.0000 C   0  0  0  0  0  0  0  0  0  0  0  0
   11.0660   -0.6517    0.0000 C   0  0  0  0  0  0  0  0  0  0  0  0
   11.0660   -1.6517    0.0000 C   0  0  0  0  0  0  0  0  0  0  0  0
   11.9760   -0.1449    0.0000 C   0  0  0  0  0  0  0  0  0  0  0  0
   11.0820    1.4175    0.0000 C   0  0  0  0  0  0  0  0  0  0  0  0
   11.9840    0.8967    0.0000 C   0  0  0  0  0  0  0  0  0  0  0  0
   12.8520    1.3934    0.0000 C   0  0  0  0  0  0  0  0  0  0  0  0
   11.9320   -3.1517    0.0000 C   0  0  0  0  0  0  0  0  0  0  0  0
   12.7981   -3.6517    0.0000 C   0  0  0  0  0  0  0  0  0  0  0  0
   12.7981   -4.6517    0.0000 C   0  0  0  0  0  0  0  0  0  0  0  0
   13.6641   -3.1517    0.0000 C   0  0  0  0  0  0  0  0  0  0  0  0
   13.6641   -5.1517    0.0000 C   0  0  0  0  0  0  0  0  0  0  0  0
   14.5301   -3.6517    0.0000 C   0  0  0  0  0  0  0  0  0  0  0  0
   14.5301   -4.6517    0.0000 C   0  0  0  0  0  0  0  0  0  0  0  0
    3.5330   -1.7171    0.0000 H   0  0  0  0  0  0  0  0  0  0  0  0
    4.1944   -2.3028    0.0000 H   0  0  0  0  0  0  0  0  0  0  0  0
    5.5215    2.8273    0.0000 H   0  0  0  0  0  0  0  0  0  0  0  0
    5.3384    1.9631    0.0000 H   0  0  0  0  0  0  0  0  0  0  0  0
    5.2123   -2.2176    0.0000 H   0  0  0  0  0  0  0  0  0  0  0  0
    5.7641   -1.5253    0.0000 H   0  0  0  0  0  0  0  0  0  0  0  0
    5.9145    1.1197    0.0000 H   0  0  0  0  0  0  0  0  0  0  0  0
    6.7889    0.9812    0.0000 H   0  0  0  0  0  0  0  0  0  0  0  0
    2.2244    0.8695    0.0000 H   0  0  0  0  0  0  0  0  0  0  0  0
    1.4220    0.5160    0.0000 H   0  0  0  0  0  0  0  0  0  0  0  0
    1.7756   -0.2864    0.0000 H   0  0  0  0  0  0  0  0  0  0  0  0
    1.8196   -0.4531    0.0000 H   0  0  0  0  0  0  0  0  0  0  0  0
    1.9078   -1.3254    0.0000 H   0  0  0  0  0  0  0  0  0  0  0  0
    2.7802   -1.2371    0.0000 H   0  0  0  0  0  0  0  0  0  0  0  0
    7.1260    5.2416    0.0000 H   0  0  0  0  0  0  0  0  0  0  0  0
    6.4226    5.7652    0.0000 H   0  0  0  0  0  0  0  0  0  0  0  0
    5.8991    5.0618    0.0000 H   0  0  0  0  0  0  0  0  0  0  0  0
    5.7758    4.9414    0.0000 H   0  0  0  0  0  0  0  0  0  0  0  0
    5.0605    4.4342    0.0000 H   0  0  0  0  0  0  0  0  0  0  0  0
    5.5676    3.7190    0.0000 H   0  0  0  0  0  0  0  0  0  0  0  0
    3.5217    1.4215    0.0000 H   0  0  0  0  0  0  0  0  0  0  0  0
    2.6739    1.1978    0.0000 H   0  0  0  0  0  0  0  0  0  0  0  0
    2.8976    0.3500    0.0000 H   0  0  0  0  0  0  0  0  0  0  0  0
    8.2460    4.3855    0.0000 H   0  0  0  0  0  0  0  0  0  0  0  0
    7.6332    5.0126    0.0000 H   0  0  0  0  0  0  0  0  0  0  0  0
    7.0061    4.3998    0.0000 H   0  0  0  0  0  0  0  0  0  0  0  0
    6.9964   -0.9399    0.0000 H   0  0  0  0  0  0  0  0  0  0  0  0
    8.9811    0.1857    0.0000 H   0  0  0  0  0  0  0  0  0  0  0  0
    6.4992   -2.2326    0.0000 H   0  0  0  0  0  0  0  0  0  0  0  0
    6.7294   -3.0786    0.0000 H   0  0  0  0  0  0  0  0  0  0  0  0
    7.5754   -2.8484    0.0000 H   0  0  0  0  0  0  0  0  0  0  0  0
    6.5316   -1.0564    0.0000 H   0  0  0  0  0  0  0  0  0  0  0  0
    5.9140   -1.6788    0.0000 H   0  0  0  0  0  0  0  0  0  0  0  0
    6.5364   -2.2964    0.0000 H   0  0  0  0  0  0  0  0  0  0  0  0
   10.2000   -2.7717    0.0000 H   0  0  0  0  0  0  0  0  0  0  0  0
   12.5093   -0.4611    0.0000 H   0  0  0  0  0  0  0  0  0  0  0  0
   13.1599    0.8552    0.0000 H   0  0  0  0  0  0  0  0  0  0  0  0
   13.3901    1.7013    0.0000 H   0  0  0  0  0  0  0  0  0  0  0  0
   12.5441    1.9315    0.0000 H   0  0  0  0  0  0  0  0  0  0  0  0
   11.3215   -3.0441    0.0000 H   0  0  0  0  0  0  0  0  0  0  0  0
   11.7200   -3.7344    0.0000 H   0  0  0  0  0  0  0  0  0  0  0  0
   12.2611   -4.9617    0.0000 H   0  0  0  0  0  0  0  0  0  0  0  0
   13.6641   -2.5317    0.0000 H   0  0  0  0  0  0  0  0  0  0  0  0
   13.6641   -5.7717    0.0000 H   0  0  0  0  0  0  0  0  0  0  0  0
   15.0670   -3.3417    0.0000 H   0  0  0  0  0  0  0  0  0  0  0  0
   15.0670   -4.9617    0.0000 H   0  0  0  0  0  0  0  0  0  0  0  0
  1 17  1  0  0  0  0
  1 23  1  0  0  0  0
  2 18  1  0  0  0  0
  2 24  1  0  0  0  0
  3 31  1  0  0  0  0
 33  3  1  6  0  0  0
  4 32  1  0  0  0  0
 34  4  1  6  0  0  0
  5 23  2  0  0  0  0
  6 24  2  0  0  0  0
  7 31  2  0  0  0  0
  8 32  2  0  0  0  0
  9 35  1  0  0  0  0
  9 37  1  0  0  0  0
 10 40  1  0  0  0  0
 10 45  1  0  0  0  0
 11 43  1  0  0  0  0
 11 48  1  0  0  0  0
 12 45  2  0  0  0  0
 13 15  1  0  0  0  0
 13 17  1  0  0  0  0
 13 25  1  0  0  0  0
 13 26  1  0  0  0  0
 14 16  1  0  0  0  0
 14 18  1  0  0  0  0
 14 27  1  0  0  0  0
 14 28  1  0  0  0  0
 15 19  1  0  0  0  0
 15 23  1  0  0  0  0
 15 29  1  0  0  0  0
 16 20  1  0  0  0  0
 16 24  1  0  0  0  0
 16 30  1  0  0  0  0
 17 21  1  0  0  0  0
 17 31  1  0  0  0  0
 18 22  1  0  0  0  0
 18 32  1  0  0  0  0
 19 21  1  0  0  0  0
 19 55  1  0  0  0  0
 19 56  1  0  0  0  0
 20 22  1  0  0  0  0
 20 57  1  0  0  0  0
 20 58  1  0  0  0  0
 21 59  1  0  0  0  0
 21 60  1  0  0  0  0
 22 61  1  0  0  0  0
 22 62  1  0  0  0  0
 25 63  1  0  0  0  0
 25 64  1  0  0  0  0
 25 65  1  0  0  0  0
 26 66  1  0  0  0  0
 26 67  1  0  0  0  0
 26 68  1  0  0  0  0
 27 69  1  0  0  0  0
 27 70  1  0  0  0  0
 27 71  1  0  0  0  0
 28 72  1  0  0  0  0
 28 73  1  0  0  0  0
 28 74  1  0  0  0  0
 29 75  1  0  0  0  0
 29 76  1  0  0  0  0
 29 77  1  0  0  0  0
 30 78  1  0  0  0  0
 30 79  1  0  0  0  0
 30 80  1  0  0  0  0
 33 34  1  0  0  0  0
 33 35  1  0  0  0  0
 33 81  1  0  0  0  0
 34 36  1  0  0  0  0
 34 82  1  0  0  0  0
 35 38  1  0  0  0  0
 35 39  1  0  0  0  0
 36 37  1  0  0  0  0
 36 40  2  0  0  0  0
 37 41  2  0  0  0  0
 38 83  1  0  0  0  0
 38 84  1  0  0  0  0
 38 85  1  0  0  0  0
 39 86  1  0  0  0  0
 39 87  1  0  0  0  0
 39 88  1  0  0  0  0
 40 42  1  0  0  0  0
 41 43  1  0  0  0  0
 41 89  1  0  0  0  0
 42 43  2  0  0  0  0
 42 44  1  0  0  0  0
 44 46  2  0  0  0  0
 44 90  1  0  0  0  0
 45 46  1  0  0  0  0
 46 47  1  0  0  0  0
 47 91  1  0  0  0  0
 47 92  1  0  0  0  0
 47 93  1  0  0  0  0
 48 49  1  0  0  0  0
 48 94  1  0  0  0  0
 48 95  1  0  0  0  0
 49 50  2  0  0  0  0
 49 51  1  0  0  0  0
 50 52  1  0  0  0  0
 50 96  1  0  0  0  0
 51 53  2  0  0  0  0
 51 97  1  0  0  0  0
 52 54  2  0  0  0  0
 52 98  1  0  0  0  0
 53 54  1  0  0  0  0
 53 99  1  0  0  0  0
 54100  1  0  0  0  0
M  END
> <PUBCHEM_COMPOUND_CID>
511340
> <PUBCHEM_COMPOUND_CANONICALIZED>
1
> <PUBCHEM_CACTVS_COMPLEXITY>
1690
> <PUBCHEM_CACTVS_HBOND_ACCEPTOR>
12
> <PUBCHEM_CACTVS_HBOND_DONOR>
0
> <PUBCHEM_CACTVS_ROTATABLE_BOND>
9
> <PUBCHEM_CACTVS_SUBSKEYS>
AAADcfB8PAAAAAAAAAAAAAAAAAAAAaNECAA0aJECAAAAAACRQAAAGgAAAAAADlSgmAIyDoAABACIAiDSCAICCAAgIAAIiAFGCMgNJzKEMR6COiClwBUKqYfK7vzPoAACCAAIAABAAAQQABAAAYAADAAAAA==
> <PUBCHEM_IUPAC_OPENEYE_NAME>
[(9R,10R)-5-benzyloxy-3,8,8-trimethyl-2-oxo-9-(4,7,7-trimethyl-3-oxo-2-oxabicyclo[2.2.1]heptane-1-carbonyl)oxy-9,10-dihydropyrano[2,3-h]chromen-10-yl] 4,7,7-trimethyl-3-oxo-2-oxabicyclo[2.2.1]heptane-1-carboxylate
> <PUBCHEM_IUPAC_CAS_NAME>
4,7,7-trimethyl-3-oxo-2-oxabicyclo[2.2.1]heptane-1-carboxylic acid [(9R,10R)-3,8,8-trimethyl-2-oxo-9-[oxo-(4,7,7-trimethyl-3-oxo-2-oxabicyclo[2.2.1]heptan-1-yl)methoxy]-5-phenylmethoxy-9,10-dihydropyrano[2,3-h][1]benzopyran-10-yl] ester
> <PUBCHEM_IUPAC_NAME_MARKUP>
[(9<I>R</I>,10<I>R</I>)-3,8,8-trimethyl-2-oxo-5-phenylmethoxy-9-(4,7,7-trimethyl-3-oxo-2-oxabicyclo[2.2.1]heptane-1-carbonyl)oxy-9,10-dihydropyrano[2,3-h]chromen-10-yl] 4,7,7-trimethyl-3-oxo-2-oxabicyclo[2.2.1]heptane-1-carboxylate
> <PUBCHEM_IUPAC_NAME>
[(9R,10R)-3,8,8-trimethyl-2-oxo-5-phenylmethoxy-9-(4,7,7-trimethyl-3-oxo-2-oxabicyclo[2.2.1]heptane-1-carbonyl)oxy-9,10-dihydropyrano[2,3-h]chromen-10-yl] 4,7,7-trimethyl-3-oxo-2-oxabicyclo[2.2.1]heptane-1-carboxylate
> <PUBCHEM_IUPAC_SYSTEMATIC_NAME>
[(9R,10R)-3,8,8-trimethyl-2-oxidanylidene-5-phenylmethoxy-9-[(4,7,7-trimethyl-3-oxidanylidene-2-oxabicyclo[2.2.1]heptan-1-yl)carbonyloxy]-9,10-dihydropyrano[2,3-h]chromen-10-yl] 4,7,7-trimethyl-3-oxidanylidene-2-oxabicyclo[2.2.1]heptane-1-carboxylate
> <PUBCHEM_IUPAC_TRADITIONAL_NAME>
3-keto-4,7,7-trimethyl-2-oxabicyclo[2.2.1]heptane-1-carboxylic acid [(9R,10R)-5-benzoxy-2-keto-9-(3-keto-4,7,7-trimethyl-2-oxabicyclo[2.2.1]heptane-1-carbonyl)oxy-3,8,8-trimethyl-9,10-dihydropyrano[2,3-h]chromen-10-yl] ester
> <PUBCHEM_IUPAC_INCHI>
InChI=1S/C42H46O12/c1-22-19-24-25(48-21-23-13-11-10-12-14-23)20-26-27(28(24)49-31(22)43)29(50-34(46)41-17-15-39(8,32(44)53-41)37(41,4)5)30(36(2,3)52-26)51-35(47)42-18-16-40(9,33(45)54-42)38(42,6)7/h10-14,19-20,29-30H,15-18,21H2,1-9H3/t29-,30-,39?,40?,41?,42?/m1/s1
> <PUBCHEM_IUPAC_INCHIKEY>
LHIZISNLZRRCSV-QPGRHKTNSA-N
> <PUBCHEM_XLOGP3_AA>
6.9
> <PUBCHEM_EXACT_MASS>
742.29892690
> <PUBCHEM_MOLECULAR_FORMULA>
C42H46O12
> <PUBCHEM_MOLECULAR_WEIGHT>
742.8
> <PUBCHEM_OPENEYE_CAN_SMILES>
CC1=CC2=C(C=C3C(=C2OC1=O)C(C(C(O3)(C)C)OC(=O)C45CCC(C4(C)C)(C(=O)O5)C)OC(=O)C67CCC(C6(C)C)(C(=O)O7)C)OCC8=CC=CC=C8
> <PUBCHEM_OPENEYE_ISO_SMILES>
CC1=CC2=C(C=C3C(=C2OC1=O)[C@H]([C@H](C(O3)(C)C)OC(=O)C45CCC(C4(C)C)(C(=O)O5)C)OC(=O)C67CCC(C6(C)C)(C(=O)O7)C)OCC8=CC=CC=C8
> <PUBCHEM_CACTVS_TPSA>
150
> <PUBCHEM_MONOISOTOPIC_WEIGHT>
742.29892690
> <PUBCHEM_TOTAL_CHARGE>
0
> <PUBCHEM_HEAVY_ATOM_COUNT>
54
> <PUBCHEM_ATOM_DEF_STEREO_COUNT>
2
> <PUBCHEM_ATOM_UDEF_STEREO_COUNT>
4
> <PUBCHEM_BOND_DEF_STEREO_COUNT>
0
> <PUBCHEM_BOND_UDEF_STEREO_COUNT>
0
> <PUBCHEM_ISOTOPIC_ATOM_COUNT>
0
> <PUBCHEM_COMPONENT_COUNT>
1
> <PUBCHEM_CACTVS_TAUTO_COUNT>
-1
> <PUBCHEM_COORDINATE_TYPE>
1
5
255
> <PUBCHEM_BONDANNOTATIONS>
10  40  8
10  45  8
15  29  3
16  30  3
17  31  3
18  32  3
33  3  6
36  37  8
36  40  8
37  41  8
34  4  6
40  42  8
41  43  8
42  43  8
42  44  8
44  46  8
45  46  8
49  50  8
49  51  8
50  52  8
51  53  8
52  54  8
53  54  8
$$$$
