511339
  -OEChem-10302200282D
 82 86  0     1  0  0  0  0  0999 V2000
    2.1810   -3.8674    0.0000 Cl  0  0  0  0  0  0  0  0  0  0  0  0
    8.4793    2.1555    0.0000 O   0  0  0  0  0  0  0  0  0  0  0  0
    3.7634   -3.1629    0.0000 O   0  0  0  0  0  0  0  0  0  0  0  0
    9.3454    0.6555    0.0000 O   0  0  0  0  0  0  0  0  0  0  0  0
   10.2114    7.1555    0.0000 O   0  5  0  0  0  0  0  0  0  0  0  0
    8.4793    7.1555    0.0000 O   0  0  0  0  0  0  0  0  0  0  0  0
    7.6133   -2.3445    0.0000 N   0  0  0  0  0  0  0  0  0  0  0  0
    5.1646   -4.1809    0.0000 N   0  0  0  0  0  0  0  0  0  0  0  0
    9.3454    6.6555    0.0000 N   0  3  0  0  0  0  0  0  0  0  0  0
    6.7473   -3.8445    0.0000 C   0  0  3  0  0  0  0  0  0  0  0  0
    6.6428   -4.8391    0.0000 C   0  0  3  0  0  0  0  0  0  0  0  0
    7.6133   -3.3445    0.0000 C   0  0  0  0  0  0  0  0  0  0  0  0
    7.6133   -0.3445    0.0000 C   0  0  0  0  0  0  0  0  0  0  0  0
    5.8338   -3.4378    0.0000 C   0  0  0  0  0  0  0  0  0  0  0  0
    5.6646   -5.0470    0.0000 C   0  0  0  0  0  0  0  0  0  0  0  0
    6.7473   -0.8445    0.0000 C   0  0  0  0  0  0  0  0  0  0  0  0
    8.4793   -0.8445    0.0000 C   0  0  0  0  0  0  0  0  0  0  0  0
    6.7473   -1.8445    0.0000 C   0  0  0  0  0  0  0  0  0  0  0  0
    8.4793   -1.8445    0.0000 C   0  0  0  0  0  0  0  0  0  0  0  0
    7.6133    0.6555    0.0000 C   0  0  3  0  0  0  0  0  0  0  0  0
    7.3859   -5.5082    0.0000 C   0  0  0  0  0  0  0  0  0  0  0  0
    6.7473    1.1555    0.0000 C   0  0  0  0  0  0  0  0  0  0  0  0
    4.1701   -4.0764    0.0000 C   0  0  0  0  0  0  0  0  0  0  0  0
    8.4793    1.1555    0.0000 C   0  0  0  0  0  0  0  0  0  0  0  0
    8.3370   -5.1992    0.0000 C   0  0  0  0  0  0  0  0  0  0  0  0
    7.1780   -6.4863    0.0000 C   0  0  0  0  0  0  0  0  0  0  0  0
    3.5823   -4.8854    0.0000 C   0  0  0  0  0  0  0  0  0  0  0  0
    6.7473    2.1555    0.0000 C   0  0  0  0  0  0  0  0  0  0  0  0
    9.0801   -5.8683    0.0000 C   0  0  0  0  0  0  0  0  0  0  0  0
    7.9211   -7.1555    0.0000 C   0  0  0  0  0  0  0  0  0  0  0  0
    8.8722   -6.8464    0.0000 C   0  0  0  0  0  0  0  0  0  0  0  0
    2.5878   -4.7809    0.0000 C   0  0  0  0  0  0  0  0  0  0  0  0
    3.9890   -5.7990    0.0000 C   0  0  0  0  0  0  0  0  0  0  0  0
    9.3454    2.6555    0.0000 C   0  0  0  0  0  0  0  0  0  0  0  0
    5.8813    2.6555    0.0000 C   0  0  0  0  0  0  0  0  0  0  0  0
    2.0000   -5.5899    0.0000 C   0  0  0  0  0  0  0  0  0  0  0  0
    3.4013   -6.6080    0.0000 C   0  0  0  0  0  0  0  0  0  0  0  0
    2.4067   -6.5035    0.0000 C   0  0  0  0  0  0  0  0  0  0  0  0
    9.3454    3.6555    0.0000 C   0  0  0  0  0  0  0  0  0  0  0  0
    8.4793    4.1555    0.0000 C   0  0  0  0  0  0  0  0  0  0  0  0
   10.2114    4.1555    0.0000 C   0  0  0  0  0  0  0  0  0  0  0  0
    8.4793    5.1555    0.0000 C   0  0  0  0  0  0  0  0  0  0  0  0
   10.2114    5.1555    0.0000 C   0  0  0  0  0  0  0  0  0  0  0  0
    9.3454    5.6555    0.0000 C   0  0  0  0  0  0  0  0  0  0  0  0
    7.2673   -4.1822    0.0000 H   0  0  0  0  0  0  0  0  0  0  0  0
    7.2216   -4.6169    0.0000 H   0  0  0  0  0  0  0  0  0  0  0  0
    7.8254   -3.9271    0.0000 H   0  0  0  0  0  0  0  0  0  0  0  0
    8.2239   -3.2369    0.0000 H   0  0  0  0  0  0  0  0  0  0  0  0
    7.0764   -0.0345    0.0000 H   0  0  0  0  0  0  0  0  0  0  0  0
    6.1437   -2.9009    0.0000 H   0  0  0  0  0  0  0  0  0  0  0  0
    5.3322   -3.0734    0.0000 H   0  0  0  0  0  0  0  0  0  0  0  0
    5.0982   -5.2992    0.0000 H   0  0  0  0  0  0  0  0  0  0  0  0
    5.8562   -5.6366    0.0000 H   0  0  0  0  0  0  0  0  0  0  0  0
    6.5352   -0.2619    0.0000 H   0  0  0  0  0  0  0  0  0  0  0  0
    6.1367   -0.9522    0.0000 H   0  0  0  0  0  0  0  0  0  0  0  0
    9.0899   -0.9522    0.0000 H   0  0  0  0  0  0  0  0  0  0  0  0
    8.6914   -0.2619    0.0000 H   0  0  0  0  0  0  0  0  0  0  0  0
    6.1367   -1.7369    0.0000 H   0  0  0  0  0  0  0  0  0  0  0  0
    6.5352   -2.4271    0.0000 H   0  0  0  0  0  0  0  0  0  0  0  0
    8.6914   -2.4271    0.0000 H   0  0  0  0  0  0  0  0  0  0  0  0
    9.0899   -1.7369    0.0000 H   0  0  0  0  0  0  0  0  0  0  0  0
    7.6133    1.2755    0.0000 H   0  0  0  0  0  0  0  0  0  0  0  0
    6.1367    1.2631    0.0000 H   0  0  0  0  0  0  0  0  0  0  0  0
    6.5352    0.5729    0.0000 H   0  0  0  0  0  0  0  0  0  0  0  0
    8.4659   -4.5927    0.0000 H   0  0  0  0  0  0  0  0  0  0  0  0
    6.5883   -6.6779    0.0000 H   0  0  0  0  0  0  0  0  0  0  0  0
    7.2842    2.4655    0.0000 H   0  0  0  0  0  0  0  0  0  0  0  0
    9.6698   -5.6767    0.0000 H   0  0  0  0  0  0  0  0  0  0  0  0
    7.7922   -7.7619    0.0000 H   0  0  0  0  0  0  0  0  0  0  0  0
    9.3330   -7.2613    0.0000 H   0  0  0  0  0  0  0  0  0  0  0  0
    4.6056   -5.8638    0.0000 H   0  0  0  0  0  0  0  0  0  0  0  0
    9.5574    2.0729    0.0000 H   0  0  0  0  0  0  0  0  0  0  0  0
    9.9560    2.7631    0.0000 H   0  0  0  0  0  0  0  0  0  0  0  0
    5.8813    3.2755    0.0000 H   0  0  0  0  0  0  0  0  0  0  0  0
    5.3443    2.3455    0.0000 H   0  0  0  0  0  0  0  0  0  0  0  0
    1.3834   -5.5251    0.0000 H   0  0  0  0  0  0  0  0  0  0  0  0
    3.6534   -7.1744    0.0000 H   0  0  0  0  0  0  0  0  0  0  0  0
    2.0423   -7.0051    0.0000 H   0  0  0  0  0  0  0  0  0  0  0  0
    7.9424    3.8455    0.0000 H   0  0  0  0  0  0  0  0  0  0  0  0
   10.7483    3.8455    0.0000 H   0  0  0  0  0  0  0  0  0  0  0  0
    7.9424    5.4655    0.0000 H   0  0  0  0  0  0  0  0  0  0  0  0
   10.7483    5.4655    0.0000 H   0  0  0  0  0  0  0  0  0  0  0  0
  1 32  1  0  0  0  0
  2 24  1  0  0  0  0
  2 34  1  0  0  0  0
  3 23  2  0  0  0  0
  4 24  2  0  0  0  0
  5  9  1  0  0  0  0
  6  9  2  0  0  0  0
  7 12  1  0  0  0  0
  7 18  1  0  0  0  0
  7 19  1  0  0  0  0
  8 14  1  0  0  0  0
  8 15  1  0  0  0  0
  8 23  1  0  0  0  0
  9 44  1  0  0  0  0
 10 11  1  0  0  0  0
 10 12  1  0  0  0  0
 10 14  1  0  0  0  0
 10 45  1  0  0  0  0
 11 15  1  0  0  0  0
 11 21  1  0  0  0  0
 11 46  1  0  0  0  0
 12 47  1  0  0  0  0
 12 48  1  0  0  0  0
 13 16  1  0  0  0  0
 13 17  1  0  0  0  0
 13 20  1  0  0  0  0
 13 49  1  0  0  0  0
 14 50  1  0  0  0  0
 14 51  1  0  0  0  0
 15 52  1  0  0  0  0
 15 53  1  0  0  0  0
 16 18  1  0  0  0  0
 16 54  1  0  0  0  0
 16 55  1  0  0  0  0
 17 19  1  0  0  0  0
 17 56  1  0  0  0  0
 17 57  1  0  0  0  0
 18 58  1  0  0  0  0
 18 59  1  0  0  0  0
 19 60  1  0  0  0  0
 19 61  1  0  0  0  0
 20 22  1  0  0  0  0
 20 24  1  0  0  0  0
 20 62  1  0  0  0  0
 21 25  2  0  0  0  0
 21 26  1  0  0  0  0
 22 28  1  0  0  0  0
 22 63  1  0  0  0  0
 22 64  1  0  0  0  0
 23 27  1  0  0  0  0
 25 29  1  0  0  0  0
 25 65  1  0  0  0  0
 26 30  2  0  0  0  0
 26 66  1  0  0  0  0
 27 32  1  0  0  0  0
 27 33  2  0  0  0  0
 28 35  2  0  0  0  0
 28 67  1  0  0  0  0
 29 31  2  0  0  0  0
 29 68  1  0  0  0  0
 30 31  1  0  0  0  0
 30 69  1  0  0  0  0
 31 70  1  0  0  0  0
 32 36  2  0  0  0  0
 33 37  1  0  0  0  0
 33 71  1  0  0  0  0
 34 39  1  0  0  0  0
 34 72  1  0  0  0  0
 34 73  1  0  0  0  0
 35 74  1  0  0  0  0
 35 75  1  0  0  0  0
 36 38  1  0  0  0  0
 36 76  1  0  0  0  0
 37 38  2  0  0  0  0
 37 77  1  0  0  0  0
 38 78  1  0  0  0  0
 39 40  2  0  0  0  0
 39 41  1  0  0  0  0
 40 42  1  0  0  0  0
 40 79  1  0  0  0  0
 41 43  2  0  0  0  0
 41 80  1  0  0  0  0
 42 44  2  0  0  0  0
 42 81  1  0  0  0  0
 43 44  1  0  0  0  0
 43 82  1  0  0  0  0
M  CHG  2   5  -1   9   1
M  END
> <PUBCHEM_COMPOUND_CID>
511339
> <PUBCHEM_COMPOUND_CANONICALIZED>
1
> <PUBCHEM_CACTVS_COMPLEXITY>
968
> <PUBCHEM_CACTVS_HBOND_ACCEPTOR>
6
> <PUBCHEM_CACTVS_HBOND_DONOR>
0
> <PUBCHEM_CACTVS_ROTATABLE_BOND>
11
> <PUBCHEM_CACTVS_SUBSKEYS>
AAADcfB/OAAEAAAAAAAAAAAAAAAAAWAAAAA8YMEAAAAAAAABUAAAHgIEAAAADQrhmCYwyIMQRACJAiXSWwCCAAAkBwAoiAEIbsoIJjKB95mGMQhkxgGI7YeY2eOOiAAAAAABAAAQAAAAAAIAAAAAAAAAAA==
> <PUBCHEM_IUPAC_OPENEYE_NAME>
(4-nitrophenyl)methyl 2-[1-[[1-(2-chlorobenzoyl)-4-phenyl-pyrrolidin-3-yl]methyl]-4-piperidyl]pent-4-enoate
> <PUBCHEM_IUPAC_CAS_NAME>
2-[1-[[1-[(2-chlorophenyl)-oxomethyl]-4-phenyl-3-pyrrolidinyl]methyl]-4-piperidinyl]-4-pentenoic acid (4-nitrophenyl)methyl ester
> <PUBCHEM_IUPAC_NAME_MARKUP>
(4-nitrophenyl)methyl 2-[1-[[1-(2-chlorobenzoyl)-4-phenylpyrrolidin-3-yl]methyl]piperidin-4-yl]pent-4-enoate
> <PUBCHEM_IUPAC_NAME>
(4-nitrophenyl)methyl 2-[1-[[1-(2-chlorobenzoyl)-4-phenylpyrrolidin-3-yl]methyl]piperidin-4-yl]pent-4-enoate
> <PUBCHEM_IUPAC_SYSTEMATIC_NAME>
(4-nitrophenyl)methyl 2-[1-[[1-(2-chlorophenyl)carbonyl-4-phenyl-pyrrolidin-3-yl]methyl]piperidin-4-yl]pent-4-enoate
> <PUBCHEM_IUPAC_TRADITIONAL_NAME>
2-[1-[[1-(2-chlorobenzoyl)-4-phenyl-pyrrolidin-3-yl]methyl]-4-piperidyl]pent-4-enoic acid (4-nitrobenzyl) ester
> <PUBCHEM_IUPAC_INCHI>
InChI=1S/C35H38ClN3O5/c1-2-8-30(35(41)44-24-25-13-15-29(16-14-25)39(42)43)27-17-19-37(20-18-27)21-28-22-38(23-32(28)26-9-4-3-5-10-26)34(40)31-11-6-7-12-33(31)36/h2-7,9-16,27-28,30,32H,1,8,17-24H2
> <PUBCHEM_IUPAC_INCHIKEY>
KJNSOAMLUATNQT-UHFFFAOYSA-N
> <PUBCHEM_XLOGP3_AA>
6.9
> <PUBCHEM_EXACT_MASS>
615.2499990
> <PUBCHEM_MOLECULAR_FORMULA>
C35H38ClN3O5
> <PUBCHEM_MOLECULAR_WEIGHT>
616.1
> <PUBCHEM_OPENEYE_CAN_SMILES>
C=CCC(C1CCN(CC1)CC2CN(CC2C3=CC=CC=C3)C(=O)C4=CC=CC=C4Cl)C(=O)OCC5=CC=C(C=C5)[N+](=O)[O-]
> <PUBCHEM_OPENEYE_ISO_SMILES>
C=CCC(C1CCN(CC1)CC2CN(CC2C3=CC=CC=C3)C(=O)C4=CC=CC=C4Cl)C(=O)OCC5=CC=C(C=C5)[N+](=O)[O-]
> <PUBCHEM_CACTVS_TPSA>
95.7
> <PUBCHEM_MONOISOTOPIC_WEIGHT>
615.2499990
> <PUBCHEM_TOTAL_CHARGE>
0
> <PUBCHEM_HEAVY_ATOM_COUNT>
44
> <PUBCHEM_ATOM_DEF_STEREO_COUNT>
0
> <PUBCHEM_ATOM_UDEF_STEREO_COUNT>
3
> <PUBCHEM_BOND_DEF_STEREO_COUNT>
0
> <PUBCHEM_BOND_UDEF_STEREO_COUNT>
0
> <PUBCHEM_ISOTOPIC_ATOM_COUNT>
0
> <PUBCHEM_COMPONENT_COUNT>
1
> <PUBCHEM_CACTVS_TAUTO_COUNT>
-1
> <PUBCHEM_COORDINATE_TYPE>
1
5
255
> <PUBCHEM_BONDANNOTATIONS>
10  12  3
11  21  3
20  22  3
21  25  8
21  26  8
25  29  8
26  30  8
27  32  8
27  33  8
29  31  8
30  31  8
32  36  8
33  37  8
36  38  8
37  38  8
39  40  8
39  41  8
40  42  8
41  43  8
42  44  8
43  44  8
$$$$
