511383
  -OEChem-10302200282D
 48 50  0     1  0  0  0  0  0999 V2000
    5.4759    1.6616    0.0000 P   0  0  3  0  0  0  0  0  0  0  0  0
    5.8305    3.3570    0.0000 P   0  0  3  0  0  0  0  0  0  0  0  0
    6.1851    5.0524    0.0000 P   0  0  0  0  0  0  0  0  0  0  0  0
    4.8483   -1.7947    0.0000 O   0  0  0  0  0  0  0  0  0  0  0  0
    7.1997   -2.8748    0.0000 O   0  0  0  0  0  0  0  0  0  0  0  0
    7.1926   -0.6993    0.0000 O   0  0  0  0  0  0  0  0  0  0  0  0
    5.7881    0.7116    0.0000 O   0  0  0  0  0  0  0  0  0  0  0  0
    5.1638    2.6117    0.0000 O   0  0  0  0  0  0  0  0  0  0  0  0
    3.6208   -2.2677    0.0000 O   0  0  0  0  0  0  0  0  0  0  0  0
    6.4260    1.9737    0.0000 O   0  0  0  0  0  0  0  0  0  0  0  0
    4.5259    1.3495    0.0000 O   0  0  0  0  0  0  0  0  0  0  0  0
    3.6418   -6.4645    0.0000 O   0  0  0  0  0  0  0  0  0  0  0  0
    6.4972    4.1023    0.0000 O   0  0  0  0  0  0  0  0  0  0  0  0
    5.0852    4.0237    0.0000 O   0  0  0  0  0  0  0  0  0  0  0  0
    6.5759    2.6903    0.0000 O   0  0  0  0  0  0  0  0  0  0  0  0
    5.8730    6.0024    0.0000 O   0  0  0  0  0  0  0  0  0  0  0  0
    7.1352    5.3645    0.0000 O   0  0  0  0  0  0  0  0  0  0  0  0
    5.2351    4.7402    0.0000 O   0  0  0  0  0  0  0  0  0  0  0  0
    5.1328   -3.5539    0.0000 N   0  0  0  0  0  0  0  0  0  0  0  0
    5.1408   -5.1633    0.0000 N   0  0  0  0  0  0  0  0  0  0  0  0
    2.4294   -3.4711    0.0000 N   0  0  0  0  0  0  0  0  0  0  0  0
    2.4384   -5.2730    0.0000 N   0  0  0  0  0  0  0  0  0  0  0  0
    6.3888   -2.2897    0.0000 C   0  0  1  0  0  0  0  0  0  0  0  0
    6.3855   -1.2897    0.0000 C   0  0  2  0  0  0  0  0  0  0  0  0
    5.4387   -2.6018    0.0000 C   0  0  2  0  0  0  0  0  0  0  0  0
    5.4335   -0.9838    0.0000 C   0  0  1  0  0  0  0  0  0  0  0  0
    5.1213   -0.0337    0.0000 C   0  0  0  0  0  0  0  0  0  0  0  0
    4.1881   -3.8633    0.0000 C   0  0  0  0  0  0  0  0  0  0  0  0
    5.7204   -4.3557    0.0000 C   0  0  0  0  0  0  0  0  0  0  0  0
    4.1931   -4.8633    0.0000 C   0  0  0  0  0  0  0  0  0  0  0  0
    3.4032   -3.2437    0.0000 C   0  0  0  0  0  0  0  0  0  0  0  0
    3.4144   -5.4907    0.0000 C   0  0  0  0  0  0  0  0  0  0  0  0
    2.0000   -4.3742    0.0000 C   0  0  0  0  0  0  0  0  0  0  0  0
    6.9403   -2.0064    0.0000 H   0  0  0  0  0  0  0  0  0  0  0  0
    6.2865   -0.6777    0.0000 H   0  0  0  0  0  0  0  0  0  0  0  0
    5.8786   -3.0388    0.0000 H   0  0  0  0  0  0  0  0  0  0  0  0
    4.8208   -0.8888    0.0000 H   0  0  0  0  0  0  0  0  0  0  0  0
    4.7380    0.4536    0.0000 H   0  0  0  0  0  0  0  0  0  0  0  0
    4.5749   -0.3266    0.0000 H   0  0  0  0  0  0  0  0  0  0  0  0
    7.7653   -2.6208    0.0000 H   0  0  0  0  0  0  0  0  0  0  0  0
    7.7598   -0.9496    0.0000 H   0  0  0  0  0  0  0  0  0  0  0  0
    6.3404   -4.3526    0.0000 H   0  0  0  0  0  0  0  0  0  0  0  0
    2.0404   -2.9883    0.0000 H   0  0  0  0  0  0  0  0  0  0  0  0
    1.3800   -4.3773    0.0000 H   0  0  0  0  0  0  0  0  0  0  0  0
    6.8881    1.5604    0.0000 H   0  0  0  0  0  0  0  0  0  0  0  0
    4.4962    3.8302    0.0000 H   0  0  0  0  0  0  0  0  0  0  0  0
    6.2864    6.4645    0.0000 H   0  0  0  0  0  0  0  0  0  0  0  0
    7.5973    4.9511    0.0000 H   0  0  0  0  0  0  0  0  0  0  0  0
  1  7  1  0  0  0  0
  1  8  1  0  0  0  0
  1 10  1  0  0  0  0
  1 11  2  0  0  0  0
  2  8  1  0  0  0  0
  2 13  1  0  0  0  0
  2 14  1  0  0  0  0
  2 15  2  0  0  0  0
  3 13  1  0  0  0  0
  3 16  1  0  0  0  0
  3 17  1  0  0  0  0
  3 18  2  0  0  0  0
  4 25  1  0  0  0  0
  4 26  1  0  0  0  0
 23  5  1  6  0  0  0
  5 40  1  0  0  0  0
 24  6  1  6  0  0  0
  6 41  1  0  0  0  0
  7 27  1  0  0  0  0
  9 31  2  0  0  0  0
 10 45  1  0  0  0  0
 12 32  2  0  0  0  0
 14 46  1  0  0  0  0
 16 47  1  0  0  0  0
 17 48  1  0  0  0  0
 25 19  1  1  0  0  0
 19 28  1  0  0  0  0
 19 29  1  0  0  0  0
 20 29  2  0  0  0  0
 20 30  1  0  0  0  0
 21 31  1  0  0  0  0
 21 33  1  0  0  0  0
 21 43  1  0  0  0  0
 22 32  1  0  0  0  0
 22 33  2  0  0  0  0
 23 24  1  0  0  0  0
 23 25  1  0  0  0  0
 23 34  1  0  0  0  0
 24 26  1  0  0  0  0
 24 35  1  0  0  0  0
 25 36  1  0  0  0  0
 26 27  1  6  0  0  0
 26 37  1  0  0  0  0
 27 38  1  0  0  0  0
 27 39  1  0  0  0  0
 28 30  2  0  0  0  0
 28 31  1  0  0  0  0
 29 42  1  0  0  0  0
 30 32  1  0  0  0  0
 33 44  1  0  0  0  0
M  END
> <PUBCHEM_COMPOUND_CID>
511383
> <PUBCHEM_COMPOUND_CANONICALIZED>
1
> <PUBCHEM_CACTVS_COMPLEXITY>
971
> <PUBCHEM_CACTVS_HBOND_ACCEPTOR>
16
> <PUBCHEM_CACTVS_HBOND_DONOR>
7
> <PUBCHEM_CACTVS_ROTATABLE_BOND>
8
> <PUBCHEM_CACTVS_SUBSKEYS>
AAADccBzvAMAAAAAAAAAAAAAAAAAAWJAAAAAAAAABAAAAACBgAAAHgAQCCAACBzhlgYFkBfMFxCoQQVxdICAgC0XEKABWIGoVECDWBpAyCAeQYhPAgLTAWD1MAIAAAAAAAAAAAAAAAAAAAAAAAAAAAAAAA==
> <PUBCHEM_IUPAC_OPENEYE_NAME>
[[(2R,3R,4S,5S)-5-(4,8-dioxo-7H-imidazo[4,5-e][1,3]diazepin-1-yl)-3,4-dihydroxy-tetrahydrofuran-2-yl]methoxy-hydroxy-phosphoryl] phosphono hydrogen phosphate
> <PUBCHEM_IUPAC_CAS_NAME>
[[(2R,3R,4S,5S)-5-(4,8-dioxo-7H-imidazo[4,5-e][1,3]diazepin-1-yl)-3,4-dihydroxy-2-oxolanyl]methoxy-hydroxyphosphoryl] phosphono hydrogen phosphate
> <PUBCHEM_IUPAC_NAME_MARKUP>
[[(2<I>R</I>,3<I>R</I>,4<I>S</I>,5<I>S</I>)-5-(4,8-dioxo-7<I>H</I>-imidazo[4,5-e][1,3]diazepin-1-yl)-3,4-dihydroxyoxolan-2-yl]methoxy-hydroxyphosphoryl] phosphono hydrogen phosphate
> <PUBCHEM_IUPAC_NAME>
[[(2R,3R,4S,5S)-5-(4,8-dioxo-7H-imidazo[4,5-e][1,3]diazepin-1-yl)-3,4-dihydroxyoxolan-2-yl]methoxy-hydroxyphosphoryl] phosphono hydrogen phosphate
> <PUBCHEM_IUPAC_SYSTEMATIC_NAME>
[[(2R,3R,4S,5S)-5-[4,8-bis(oxidanylidene)-7H-imidazo[4,5-e][1,3]diazepin-1-yl]-3,4-bis(oxidanyl)oxolan-2-yl]methoxy-oxidanyl-phosphoryl] phosphono hydrogen phosphate
> <PUBCHEM_IUPAC_TRADITIONAL_NAME>
[[(2R,3R,4S,5S)-5-(4,8-diketo-7H-imidazo[4,5-e][1,3]diazepin-1-yl)-3,4-dihydroxy-tetrahydrofuran-2-yl]methoxy-hydroxy-phosphoryl] phosphono hydrogen phosphate
> <PUBCHEM_IUPAC_INCHI>
InChI=1S/C11H15N4O15P3/c16-7-4(1-27-32(23,24)30-33(25,26)29-31(20,21)22)28-11(8(7)17)15-3-14-5-6(15)10(19)13-2-12-9(5)18/h2-4,7-8,11,16-17H,1H2,(H,23,24)(H,25,26)(H2,20,21,22)(H,12,13,18,19)/t4-,7+,8+,11+/m1/s1
> <PUBCHEM_IUPAC_INCHIKEY>
XVVARMCVIJTMAK-VKOHJDEHSA-N
> <PUBCHEM_XLOGP3>
-6.1
> <PUBCHEM_EXACT_MASS>
535.97467678
> <PUBCHEM_MOLECULAR_FORMULA>
C11H15N4O15P3
> <PUBCHEM_MOLECULAR_WEIGHT>
536.18
> <PUBCHEM_OPENEYE_CAN_SMILES>
C1=NC(=O)C2=C(C(=O)N1)N(C=N2)C3C(C(C(O3)COP(=O)(O)OP(=O)(O)OP(=O)(O)O)O)O
> <PUBCHEM_OPENEYE_ISO_SMILES>
C1=NC(=O)C2=C(C(=O)N1)N(C=N2)[C@@H]3[C@H]([C@H]([C@H](O3)COP(=O)(O)OP(=O)(O)OP(=O)(O)O)O)O
> <PUBCHEM_CACTVS_TPSA>
286
> <PUBCHEM_MONOISOTOPIC_WEIGHT>
535.97467678
> <PUBCHEM_TOTAL_CHARGE>
0
> <PUBCHEM_HEAVY_ATOM_COUNT>
33
> <PUBCHEM_ATOM_DEF_STEREO_COUNT>
4
> <PUBCHEM_ATOM_UDEF_STEREO_COUNT>
0
> <PUBCHEM_BOND_DEF_STEREO_COUNT>
0
> <PUBCHEM_BOND_UDEF_STEREO_COUNT>
0
> <PUBCHEM_ISOTOPIC_ATOM_COUNT>
0
> <PUBCHEM_COMPONENT_COUNT>
1
> <PUBCHEM_CACTVS_TAUTO_COUNT>
-1
> <PUBCHEM_COORDINATE_TYPE>
1
5
255
> <PUBCHEM_BONDANNOTATIONS>
25  19  5
19  28  8
19  29  8
20  29  8
20  30  8
21  31  8
21  33  8
22  32  8
22  33  8
26  27  6
28  30  8
28  31  8
30  32  8
23  5  6
24  6  6
$$$$
