511389
  -OEChem-10302200282D
 13 12  0     1  0  0  0  0  0999 V2000
    3.7690    0.6645    0.0000 Cl  0  0  0  0  0  0  0  0  0  0  0  0
    5.1350    0.2985    0.0000 P   0  0  0  0  0  0  0  0  0  0  0  0
    4.7690   -1.0675    0.0000 F   0  0  0  0  0  0  0  0  0  0  0  0
    6.0010    0.7985    0.0000 O   0  0  0  0  0  0  0  0  0  0  0  0
    4.6350    1.1645    0.0000 O   0  0  0  0  0  0  0  0  0  0  0  0
    5.6350   -0.5675    0.0000 O   0  0  0  0  0  0  0  0  0  0  0  0
    2.5369   -0.2015    0.0000 O   0  0  0  0  0  0  0  0  0  0  0  0
    3.4030   -1.7015    0.0000 O   0  0  0  0  0  0  0  0  0  0  0  0
    4.2690   -0.2015    0.0000 C   0  0  3  0  0  0  0  0  0  0  0  0
    3.4030   -0.7015    0.0000 C   0  0  0  0  0  0  0  0  0  0  0  0
    6.5380    0.4885    0.0000 H   0  0  0  0  0  0  0  0  0  0  0  0
    4.9450    1.7015    0.0000 H   0  0  0  0  0  0  0  0  0  0  0  0
    2.0000   -0.5115    0.0000 H   0  0  0  0  0  0  0  0  0  0  0  0
  1  9  1  0  0  0  0
  2  4  1  0  0  0  0
  2  5  1  0  0  0  0
  2  6  2  0  0  0  0
  2  9  1  0  0  0  0
  3  9  1  0  0  0  0
  4 11  1  0  0  0  0
  5 12  1  0  0  0  0
  7 10  1  0  0  0  0
  7 13  1  0  0  0  0
  8 10  2  0  0  0  0
  9 10  1  0  0  0  0
M  END
> <PUBCHEM_COMPOUND_CID>
511389
> <PUBCHEM_COMPOUND_CANONICALIZED>
1
> <PUBCHEM_CACTVS_COMPLEXITY>
200
> <PUBCHEM_CACTVS_HBOND_ACCEPTOR>
6
> <PUBCHEM_CACTVS_HBOND_DONOR>
3
> <PUBCHEM_CACTVS_ROTATABLE_BOND>
2
> <PUBCHEM_CACTVS_SUBSKEYS>
AAADcQBAOQIEAAAAAAAAAAAAAAAAAAAAAAAAAAAAAAAAAAAAAAAACwoACCAAAAIAgAAACAAAAhAIQACQCIAAAAAAAAAAAAAAAQBAAAAAAAAAAAAAAAAAAAAAAAAAAAAAAAAAAAAAAAAAAAAAAAAAAAAAAA==
> <PUBCHEM_IUPAC_OPENEYE_NAME>
2-chloro-2-fluoro-2-phosphono-acetic acid
> <PUBCHEM_IUPAC_CAS_NAME>
2-chloro-2-fluoro-2-phosphonoacetic acid
> <PUBCHEM_IUPAC_NAME_MARKUP>
2-chloro-2-fluoro-2-phosphonoacetic acid
> <PUBCHEM_IUPAC_NAME>
2-chloro-2-fluoro-2-phosphonoacetic acid
> <PUBCHEM_IUPAC_SYSTEMATIC_NAME>
2-chloranyl-2-fluoranyl-2-phosphono-ethanoic acid
> <PUBCHEM_IUPAC_TRADITIONAL_NAME>
2-chloro-2-fluoro-2-phosphono-acetic acid
> <PUBCHEM_IUPAC_INCHI>
InChI=1S/C2H3ClFO5P/c3-2(4,1(5)6)10(7,8)9/h(H,5,6)(H2,7,8,9)
> <PUBCHEM_IUPAC_INCHIKEY>
IURAIKLUSRDZIU-UHFFFAOYSA-N
> <PUBCHEM_XLOGP3_AA>
-1
> <PUBCHEM_EXACT_MASS>
191.9390660
> <PUBCHEM_MOLECULAR_FORMULA>
C2H3ClFO5P
> <PUBCHEM_MOLECULAR_WEIGHT>
192.47
> <PUBCHEM_OPENEYE_CAN_SMILES>
C(=O)(C(F)(P(=O)(O)O)Cl)O
> <PUBCHEM_OPENEYE_ISO_SMILES>
C(=O)(C(F)(P(=O)(O)O)Cl)O
> <PUBCHEM_CACTVS_TPSA>
94.8
> <PUBCHEM_MONOISOTOPIC_WEIGHT>
191.9390660
> <PUBCHEM_TOTAL_CHARGE>
0
> <PUBCHEM_HEAVY_ATOM_COUNT>
10
> <PUBCHEM_ATOM_DEF_STEREO_COUNT>
0
> <PUBCHEM_ATOM_UDEF_STEREO_COUNT>
1
> <PUBCHEM_BOND_DEF_STEREO_COUNT>
0
> <PUBCHEM_BOND_UDEF_STEREO_COUNT>
0
> <PUBCHEM_ISOTOPIC_ATOM_COUNT>
0
> <PUBCHEM_COMPONENT_COUNT>
1
> <PUBCHEM_CACTVS_TAUTO_COUNT>
-1
> <PUBCHEM_COORDINATE_TYPE>
1
5
255
> <PUBCHEM_BONDANNOTATIONS>
9  3  3
$$$$
