511472
  -OEChem-10302200282D
 57 59  0     1  0  0  0  0  0999 V2000
    7.1602    2.2525    0.0000 N   0  0  3  0  0  0  0  0  0  0  0  0
    5.3602    2.2317    0.0000 N   0  0  0  0  0  0  0  0  0  0  0  0
    6.2778    0.7179    0.0000 N   0  0  0  0  0  0  0  0  0  0  0  0
    7.1602    3.2525    0.0000 C   0  0  3  0  0  0  0  0  0  0  0  0
    6.2662    1.7178    0.0000 C   0  0  3  0  0  0  0  0  0  0  0  0
    6.2662    3.7872    0.0000 C   0  0  0  0  0  0  0  0  0  0  0  0
    8.0262    1.7525    0.0000 C   0  0  0  0  0  0  0  0  0  0  0  0
    8.0262    3.7525    0.0000 C   0  0  0  0  0  0  0  0  0  0  0  0
    5.3602    3.2733    0.0000 C   0  0  0  0  0  0  0  0  0  0  0  0
    8.8922    2.2525    0.0000 C   0  0  0  0  0  0  0  0  0  0  0  0
    8.8922    3.2525    0.0000 C   0  0  0  0  0  0  0  0  0  0  0  0
    8.0102    4.7940    0.0000 C   0  0  0  0  0  0  0  0  0  0  0  0
    5.4176    0.2079    0.0000 C   0  0  0  0  0  0  0  0  0  0  0  0
    9.8022    3.7593    0.0000 C   0  0  0  0  0  0  0  0  0  0  0  0
    5.4292   -0.7920    0.0000 C   0  0  0  0  0  0  0  0  0  0  0  0
    8.9082    5.3218    0.0000 C   0  0  0  0  0  0  0  0  0  0  0  0
    9.8103    4.8009    0.0000 C   0  0  0  0  0  0  0  0  0  0  0  0
    4.5690   -1.3020    0.0000 C   0  0  0  0  0  0  0  0  0  0  0  0
    4.5806   -2.3019    0.0000 C   0  0  0  0  0  0  0  0  0  0  0  0
    3.7204   -2.8119    0.0000 C   0  0  0  0  0  0  0  0  0  0  0  0
    3.7319   -3.8118    0.0000 C   0  0  0  0  0  0  0  0  0  0  0  0
    2.8718   -4.3218    0.0000 C   0  0  0  0  0  0  0  0  0  0  0  0
    2.8833   -5.3218    0.0000 C   0  0  0  0  0  0  0  0  0  0  0  0
    2.0000   -3.8319    0.0000 C   0  0  0  0  0  0  0  0  0  0  0  0
    7.1650    3.8725    0.0000 H   0  0  0  0  0  0  0  0  0  0  0  0
    6.8073    1.4151    0.0000 H   0  0  0  0  0  0  0  0  0  0  0  0
    6.6708    4.2569    0.0000 H   0  0  0  0  0  0  0  0  0  0  0  0
    5.8726    4.2662    0.0000 H   0  0  0  0  0  0  0  0  0  0  0  0
    7.6277    1.2776    0.0000 H   0  0  0  0  0  0  0  0  0  0  0  0
    8.4247    1.2776    0.0000 H   0  0  0  0  0  0  0  0  0  0  0  0
    5.1511    3.8570    0.0000 H   0  0  0  0  0  0  0  0  0  0  0  0
    4.7493    3.1672    0.0000 H   0  0  0  0  0  0  0  0  0  0  0  0
    9.1043    1.6699    0.0000 H   0  0  0  0  0  0  0  0  0  0  0  0
    9.5028    2.3602    0.0000 H   0  0  0  0  0  0  0  0  0  0  0  0
    4.8244    1.9196    0.0000 H   0  0  0  0  0  0  0  0  0  0  0  0
    6.8183    0.4141    0.0000 H   0  0  0  0  0  0  0  0  0  0  0  0
    7.4697    5.0978    0.0000 H   0  0  0  0  0  0  0  0  0  0  0  0
    5.1988    0.7880    0.0000 H   0  0  0  0  0  0  0  0  0  0  0  0
    4.8083    0.0932    0.0000 H   0  0  0  0  0  0  0  0  0  0  0  0
   10.3355    3.4432    0.0000 H   0  0  0  0  0  0  0  0  0  0  0  0
    5.6480   -1.3721    0.0000 H   0  0  0  0  0  0  0  0  0  0  0  0
    6.0385   -0.6773    0.0000 H   0  0  0  0  0  0  0  0  0  0  0  0
    8.9058    5.9418    0.0000 H   0  0  0  0  0  0  0  0  0  0  0  0
   10.3484    5.1089    0.0000 H   0  0  0  0  0  0  0  0  0  0  0  0
    4.3502   -0.7219    0.0000 H   0  0  0  0  0  0  0  0  0  0  0  0
    3.9597   -1.4167    0.0000 H   0  0  0  0  0  0  0  0  0  0  0  0
    4.7993   -2.8820    0.0000 H   0  0  0  0  0  0  0  0  0  0  0  0
    5.1898   -2.1872    0.0000 H   0  0  0  0  0  0  0  0  0  0  0  0
    3.5016   -2.2318    0.0000 H   0  0  0  0  0  0  0  0  0  0  0  0
    3.1111   -2.9266    0.0000 H   0  0  0  0  0  0  0  0  0  0  0  0
    4.2724   -4.1156    0.0000 H   0  0  0  0  0  0  0  0  0  0  0  0
    2.2634   -5.3289    0.0000 H   0  0  0  0  0  0  0  0  0  0  0  0
    2.8905   -5.9417    0.0000 H   0  0  0  0  0  0  0  0  0  0  0  0
    3.5033   -5.3146    0.0000 H   0  0  0  0  0  0  0  0  0  0  0  0
    2.3038   -3.2914    0.0000 H   0  0  0  0  0  0  0  0  0  0  0  0
    1.4595   -3.5281    0.0000 H   0  0  0  0  0  0  0  0  0  0  0  0
    1.6962   -4.3724    0.0000 H   0  0  0  0  0  0  0  0  0  0  0  0
  1  4  1  0  0  0  0
  1  5  1  0  0  0  0
  1  7  1  0  0  0  0
  2  5  1  0  0  0  0
  2  9  1  0  0  0  0
  2 35  1  0  0  0  0
  3  5  1  0  0  0  0
  3 13  1  0  0  0  0
  3 36  1  0  0  0  0
  4  6  1  0  0  0  0
  4  8  1  0  0  0  0
  4 25  1  0  0  0  0
  5 26  1  0  0  0  0
  6  9  1  0  0  0  0
  6 27  1  0  0  0  0
  6 28  1  0  0  0  0
  7 10  1  0  0  0  0
  7 29  1  0  0  0  0
  7 30  1  0  0  0  0
  8 11  1  0  0  0  0
  8 12  2  0  0  0  0
  9 31  1  0  0  0  0
  9 32  1  0  0  0  0
 10 11  1  0  0  0  0
 10 33  1  0  0  0  0
 10 34  1  0  0  0  0
 11 14  2  0  0  0  0
 12 16  1  0  0  0  0
 12 37  1  0  0  0  0
 13 15  1  0  0  0  0
 13 38  1  0  0  0  0
 13 39  1  0  0  0  0
 14 17  1  0  0  0  0
 14 40  1  0  0  0  0
 15 18  1  0  0  0  0
 15 41  1  0  0  0  0
 15 42  1  0  0  0  0
 16 17  2  0  0  0  0
 16 43  1  0  0  0  0
 17 44  1  0  0  0  0
 18 19  1  0  0  0  0
 18 45  1  0  0  0  0
 18 46  1  0  0  0  0
 19 20  1  0  0  0  0
 19 47  1  0  0  0  0
 19 48  1  0  0  0  0
 20 21  1  0  0  0  0
 20 49  1  0  0  0  0
 20 50  1  0  0  0  0
 21 22  2  0  0  0  0
 21 51  1  0  0  0  0
 22 23  1  0  0  0  0
 22 24  1  0  0  0  0
 23 52  1  0  0  0  0
 23 53  1  0  0  0  0
 23 54  1  0  0  0  0
 24 55  1  0  0  0  0
 24 56  1  0  0  0  0
 24 57  1  0  0  0  0
M  END
> <PUBCHEM_COMPOUND_CID>
511472
> <PUBCHEM_COMPOUND_CANONICALIZED>
1
> <PUBCHEM_CACTVS_COMPLEXITY>
402
> <PUBCHEM_CACTVS_HBOND_ACCEPTOR>
3
> <PUBCHEM_CACTVS_HBOND_DONOR>
2
> <PUBCHEM_CACTVS_ROTATABLE_BOND>
7
> <PUBCHEM_CACTVS_SUBSKEYS>
AAADcfB7AAAAAAAAAAAAAAAAAAAAAAAAAAA8WIAAAAAAAACxAAAAHAAQAAAADCjBGAQzAIPAAACAAiBCAACCAAAgAAAIiIAIBIiIICKA0RGEIAhokAKIiAcQgIAOgAAAAAAQAAAAAAAAACAAAAAAAAAAAA==
> <PUBCHEM_IUPAC_OPENEYE_NAME>
N-(7-methyloct-6-enyl)-2,3,4,6,7,11b-hexahydro-1H-pyrimido[6,1-a]isoquinolin-4-amine
> <PUBCHEM_IUPAC_CAS_NAME>
N-(7-methyloct-6-enyl)-2,3,4,6,7,11b-hexahydro-1H-pyrimido[6,1-a]isoquinolin-4-amine
> <PUBCHEM_IUPAC_NAME_MARKUP>
<I>N</I>-(7-methyloct-6-enyl)-2,3,4,6,7,11<I>b</I>-hexahydro-1<I>H</I>-pyrimido[6,1-a]isoquinolin-4-amine
> <PUBCHEM_IUPAC_NAME>
N-(7-methyloct-6-enyl)-2,3,4,6,7,11b-hexahydro-1H-pyrimido[6,1-a]isoquinolin-4-amine
> <PUBCHEM_IUPAC_SYSTEMATIC_NAME>
N-(7-methyloct-6-enyl)-2,3,4,6,7,11b-hexahydro-1H-pyrimido[6,1-a]isoquinolin-4-amine
> <PUBCHEM_IUPAC_TRADITIONAL_NAME>
2,3,4,6,7,11b-hexahydro-1H-pyrimid[6,1-a]isoquinolin-4-yl(7-methyloct-6-enyl)amine
> <PUBCHEM_IUPAC_INCHI>
InChI=1S/C21H33N3/c1-17(2)9-5-3-4-8-14-22-21-23-15-12-20-19-11-7-6-10-18(19)13-16-24(20)21/h6-7,9-11,20-23H,3-5,8,12-16H2,1-2H3
> <PUBCHEM_IUPAC_INCHIKEY>
VEHNKACXEGEISA-UHFFFAOYSA-N
> <PUBCHEM_XLOGP3_AA>
4.6
> <PUBCHEM_EXACT_MASS>
327.267448065
> <PUBCHEM_MOLECULAR_FORMULA>
C21H33N3
> <PUBCHEM_MOLECULAR_WEIGHT>
327.5
> <PUBCHEM_OPENEYE_CAN_SMILES>
CC(=CCCCCCNC1NCCC2N1CCC3=CC=CC=C23)C
> <PUBCHEM_OPENEYE_ISO_SMILES>
CC(=CCCCCCNC1NCCC2N1CCC3=CC=CC=C23)C
> <PUBCHEM_CACTVS_TPSA>
27.3
> <PUBCHEM_MONOISOTOPIC_WEIGHT>
327.267448065
> <PUBCHEM_TOTAL_CHARGE>
0
> <PUBCHEM_HEAVY_ATOM_COUNT>
24
> <PUBCHEM_ATOM_DEF_STEREO_COUNT>
0
> <PUBCHEM_ATOM_UDEF_STEREO_COUNT>
2
> <PUBCHEM_BOND_DEF_STEREO_COUNT>
0
> <PUBCHEM_BOND_UDEF_STEREO_COUNT>
0
> <PUBCHEM_ISOTOPIC_ATOM_COUNT>
0
> <PUBCHEM_COMPONENT_COUNT>
1
> <PUBCHEM_CACTVS_TAUTO_COUNT>
-1
> <PUBCHEM_COORDINATE_TYPE>
1
5
255
> <PUBCHEM_BONDANNOTATIONS>
11  14  8
12  16  8
14  17  8
16  17  8
5  3  3
4  6  3
8  11  8
8  12  8
$$$$
