511401
  -OEChem-10302200282D
 52 54  0     1  0  0  0  0  0999 V2000
    7.0468    0.4806    0.0000 O   0  0  0  0  0  0  0  0  0  0  0  0
    5.3147    1.4806    0.0000 O   0  0  0  0  0  0  0  0  0  0  0  0
    9.6448   -3.0194    0.0000 O   0  5  0  0  0  0  0  0  0  0  0  0
    7.9128   -3.0194    0.0000 O   0  0  0  0  0  0  0  0  0  0  0  0
    3.5827    0.4806    0.0000 N   0  0  3  0  0  0  0  0  0  0  0  0
    8.7788    1.4806    0.0000 N   0  0  0  0  0  0  0  0  0  0  0  0
    8.7788   -2.5194    0.0000 N   0  3  0  0  0  0  0  0  0  0  0  0
    3.4782    1.4751    0.0000 C   0  0  3  0  0  0  0  0  0  0  0  0
    2.5000    1.6830    0.0000 C   0  0  0  0  0  0  0  0  0  0  0  0
    2.6691    0.0738    0.0000 C   0  0  0  0  0  0  0  0  0  0  0  0
    2.0000    0.8170    0.0000 C   0  0  0  0  0  0  0  0  0  0  0  0
    4.4487   -0.0194    0.0000 C   0  0  0  0  0  0  0  0  0  0  0  0
    4.2213    2.1442    0.0000 C   0  0  0  0  0  0  0  0  0  0  0  0
    5.3147    0.4806    0.0000 C   0  0  3  0  0  0  0  0  0  0  0  0
    9.5878    2.0684    0.0000 C   0  0  0  0  0  0  0  0  0  0  0  0
    7.9698    2.0684    0.0000 C   0  0  0  0  0  0  0  0  0  0  0  0
    9.2788    3.0194    0.0000 C   0  0  0  0  0  0  0  0  0  0  0  0
    8.2788    3.0194    0.0000 C   0  0  0  0  0  0  0  0  0  0  0  0
    6.1808   -0.0194    0.0000 C   0  0  0  0  0  0  0  0  0  0  0  0
    8.7788    0.4806    0.0000 C   0  0  0  0  0  0  0  0  0  0  0  0
    7.9128   -0.0194    0.0000 C   0  0  0  0  0  0  0  0  0  0  0  0
    9.6448   -0.0194    0.0000 C   0  0  0  0  0  0  0  0  0  0  0  0
    7.9128   -1.0194    0.0000 C   0  0  0  0  0  0  0  0  0  0  0  0
    9.6448   -1.0194    0.0000 C   0  0  0  0  0  0  0  0  0  0  0  0
    8.7788   -1.5194    0.0000 C   0  0  0  0  0  0  0  0  0  0  0  0
    4.0570    1.2529    0.0000 H   0  0  0  0  0  0  0  0  0  0  0  0
    2.6916    2.2727    0.0000 H   0  0  0  0  0  0  0  0  0  0  0  0
    1.9336    1.9352    0.0000 H   0  0  0  0  0  0  0  0  0  0  0  0
    2.1675   -0.2906    0.0000 H   0  0  0  0  0  0  0  0  0  0  0  0
    2.9791   -0.4631    0.0000 H   0  0  0  0  0  0  0  0  0  0  0  0
    1.4984    1.1814    0.0000 H   0  0  0  0  0  0  0  0  0  0  0  0
    1.5851    0.3562    0.0000 H   0  0  0  0  0  0  0  0  0  0  0  0
    4.0502   -0.4944    0.0000 H   0  0  0  0  0  0  0  0  0  0  0  0
    4.8472   -0.4944    0.0000 H   0  0  0  0  0  0  0  0  0  0  0  0
    4.6362    1.6835    0.0000 H   0  0  0  0  0  0  0  0  0  0  0  0
    4.6820    2.5591    0.0000 H   0  0  0  0  0  0  0  0  0  0  0  0
    3.8064    2.6050    0.0000 H   0  0  0  0  0  0  0  0  0  0  0  0
    5.8517    0.7906    0.0000 H   0  0  0  0  0  0  0  0  0  0  0  0
    9.8978    1.5314    0.0000 H   0  0  0  0  0  0  0  0  0  0  0  0
   10.1542    2.3205    0.0000 H   0  0  0  0  0  0  0  0  0  0  0  0
    7.4034    2.3205    0.0000 H   0  0  0  0  0  0  0  0  0  0  0  0
    7.6598    1.5314    0.0000 H   0  0  0  0  0  0  0  0  0  0  0  0
    9.8853    3.1483    0.0000 H   0  0  0  0  0  0  0  0  0  0  0  0
    9.2140    3.6360    0.0000 H   0  0  0  0  0  0  0  0  0  0  0  0
    8.3436    3.6360    0.0000 H   0  0  0  0  0  0  0  0  0  0  0  0
    7.6724    3.1483    0.0000 H   0  0  0  0  0  0  0  0  0  0  0  0
    5.7822   -0.4944    0.0000 H   0  0  0  0  0  0  0  0  0  0  0  0
    6.5793   -0.4944    0.0000 H   0  0  0  0  0  0  0  0  0  0  0  0
    5.8517    1.7906    0.0000 H   0  0  0  0  0  0  0  0  0  0  0  0
   10.1818    0.2906    0.0000 H   0  0  0  0  0  0  0  0  0  0  0  0
    7.3759   -1.3294    0.0000 H   0  0  0  0  0  0  0  0  0  0  0  0
   10.1818   -1.3294    0.0000 H   0  0  0  0  0  0  0  0  0  0  0  0
  1 19  1  0  0  0  0
  1 21  1  0  0  0  0
  2 14  1  0  0  0  0
  2 49  1  0  0  0  0
  3  7  1  0  0  0  0
  4  7  2  0  0  0  0
  5  8  1  0  0  0  0
  5 10  1  0  0  0  0
  5 12  1  0  0  0  0
  6 15  1  0  0  0  0
  6 16  1  0  0  0  0
  6 20  1  0  0  0  0
  7 25  1  0  0  0  0
  8  9  1  0  0  0  0
  8 13  1  0  0  0  0
  8 26  1  0  0  0  0
  9 11  1  0  0  0  0
  9 27  1  0  0  0  0
  9 28  1  0  0  0  0
 10 11  1  0  0  0  0
 10 29  1  0  0  0  0
 10 30  1  0  0  0  0
 11 31  1  0  0  0  0
 11 32  1  0  0  0  0
 12 14  1  0  0  0  0
 12 33  1  0  0  0  0
 12 34  1  0  0  0  0
 13 35  1  0  0  0  0
 13 36  1  0  0  0  0
 13 37  1  0  0  0  0
 14 19  1  0  0  0  0
 14 38  1  0  0  0  0
 15 17  1  0  0  0  0
 15 39  1  0  0  0  0
 15 40  1  0  0  0  0
 16 18  1  0  0  0  0
 16 41  1  0  0  0  0
 16 42  1  0  0  0  0
 17 18  1  0  0  0  0
 17 43  1  0  0  0  0
 17 44  1  0  0  0  0
 18 45  1  0  0  0  0
 18 46  1  0  0  0  0
 19 47  1  0  0  0  0
 19 48  1  0  0  0  0
 20 21  2  0  0  0  0
 20 22  1  0  0  0  0
 21 23  1  0  0  0  0
 22 24  2  0  0  0  0
 22 50  1  0  0  0  0
 23 25  2  0  0  0  0
 23 51  1  0  0  0  0
 24 25  1  0  0  0  0
 24 52  1  0  0  0  0
M  CHG  2   3  -1   7   1
M  END
> <PUBCHEM_COMPOUND_CID>
511401
> <PUBCHEM_COMPOUND_CANONICALIZED>
1
> <PUBCHEM_CACTVS_COMPLEXITY>
439
> <PUBCHEM_CACTVS_HBOND_ACCEPTOR>
6
> <PUBCHEM_CACTVS_HBOND_DONOR>
1
> <PUBCHEM_CACTVS_ROTATABLE_BOND>
6
> <PUBCHEM_CACTVS_SUBSKEYS>
AAADceB7OAAAAAAAAAAAAAAAAAAAAWLAAAAwAAAAAAAAAAABAAAAHgAECAAACDzhkAYyxoMQRgCBACRCQwCCCAAhIgAoiAAPbIoPNiLEsZuHOCjmwBnb6AeQUAEAAACAAgAAEAAAAQAEAAAgAAAAAAAAAA==
> <PUBCHEM_IUPAC_OPENEYE_NAME>
1-(2-methylpyrrolidin-1-yl)-3-(5-nitro-2-pyrrolidin-1-yl-phenoxy)propan-2-ol
> <PUBCHEM_IUPAC_CAS_NAME>
1-(2-methyl-1-pyrrolidinyl)-3-[5-nitro-2-(1-pyrrolidinyl)phenoxy]-2-propanol
> <PUBCHEM_IUPAC_NAME_MARKUP>
1-(2-methylpyrrolidin-1-yl)-3-(5-nitro-2-pyrrolidin-1-ylphenoxy)propan-2-ol
> <PUBCHEM_IUPAC_NAME>
1-(2-methylpyrrolidin-1-yl)-3-(5-nitro-2-pyrrolidin-1-ylphenoxy)propan-2-ol
> <PUBCHEM_IUPAC_SYSTEMATIC_NAME>
1-(2-methylpyrrolidin-1-yl)-3-(5-nitro-2-pyrrolidin-1-yl-phenoxy)propan-2-ol
> <PUBCHEM_IUPAC_TRADITIONAL_NAME>
1-(2-methylpyrrolidino)-3-(5-nitro-2-pyrrolidino-phenoxy)propan-2-ol
> <PUBCHEM_IUPAC_INCHI>
InChI=1S/C18H27N3O4/c1-14-5-4-10-20(14)12-16(22)13-25-18-11-15(21(23)24)6-7-17(18)19-8-2-3-9-19/h6-7,11,14,16,22H,2-5,8-10,12-13H2,1H3
> <PUBCHEM_IUPAC_INCHIKEY>
MZYPAOKPPIVABB-UHFFFAOYSA-N
> <PUBCHEM_XLOGP3_AA>
2.7
> <PUBCHEM_EXACT_MASS>
349.20015635
> <PUBCHEM_MOLECULAR_FORMULA>
C18H27N3O4
> <PUBCHEM_MOLECULAR_WEIGHT>
349.4
> <PUBCHEM_OPENEYE_CAN_SMILES>
CC1CCCN1CC(COC2=C(C=CC(=C2)[N+](=O)[O-])N3CCCC3)O
> <PUBCHEM_OPENEYE_ISO_SMILES>
CC1CCCN1CC(COC2=C(C=CC(=C2)[N+](=O)[O-])N3CCCC3)O
> <PUBCHEM_CACTVS_TPSA>
81.8
> <PUBCHEM_MONOISOTOPIC_WEIGHT>
349.20015635
> <PUBCHEM_TOTAL_CHARGE>
0
> <PUBCHEM_HEAVY_ATOM_COUNT>
25
> <PUBCHEM_ATOM_DEF_STEREO_COUNT>
0
> <PUBCHEM_ATOM_UDEF_STEREO_COUNT>
2
> <PUBCHEM_BOND_DEF_STEREO_COUNT>
0
> <PUBCHEM_BOND_UDEF_STEREO_COUNT>
0
> <PUBCHEM_ISOTOPIC_ATOM_COUNT>
0
> <PUBCHEM_COMPONENT_COUNT>
1
> <PUBCHEM_CACTVS_TAUTO_COUNT>
-1
> <PUBCHEM_COORDINATE_TYPE>
1
5
255
> <PUBCHEM_BONDANNOTATIONS>
14  2  3
20  21  8
20  22  8
21  23  8
22  24  8
23  25  8
24  25  8
8  13  3
$$$$
