511415
  -OEChem-10302200282D
 52 53  0     1  0  0  0  0  0999 V2000
    7.9282   -2.2694    0.0000 F   0  0  0  0  0  0  0  0  0  0  0  0
    8.9282   -3.2694    0.0000 F   0  0  0  0  0  0  0  0  0  0  0  0
    9.9282   -2.2694    0.0000 F   0  0  0  0  0  0  0  0  0  0  0  0
    7.1962    0.7306    0.0000 O   0  0  0  0  0  0  0  0  0  0  0  0
    5.4641    1.7306    0.0000 O   0  0  0  0  0  0  0  0  0  0  0  0
    8.9282    1.7306    0.0000 N   0  0  0  0  0  0  0  0  0  0  0  0
    3.7320    0.7306    0.0000 N   0  0  0  0  0  0  0  0  0  0  0  0
    9.7372    2.3184    0.0000 C   0  0  0  0  0  0  0  0  0  0  0  0
    8.1192    2.3184    0.0000 C   0  0  0  0  0  0  0  0  0  0  0  0
    9.4282    3.2694    0.0000 C   0  0  0  0  0  0  0  0  0  0  0  0
    8.4282    3.2694    0.0000 C   0  0  0  0  0  0  0  0  0  0  0  0
    8.9282    0.7306    0.0000 C   0  0  0  0  0  0  0  0  0  0  0  0
    8.0622    0.2306    0.0000 C   0  0  0  0  0  0  0  0  0  0  0  0
    5.4641    0.7306    0.0000 C   0  0  3  0  0  0  0  0  0  0  0  0
    4.5981    0.2306    0.0000 C   0  0  0  0  0  0  0  0  0  0  0  0
    9.7942    0.2306    0.0000 C   0  0  0  0  0  0  0  0  0  0  0  0
    6.3301    0.2306    0.0000 C   0  0  0  0  0  0  0  0  0  0  0  0
    8.0622   -0.7694    0.0000 C   0  0  0  0  0  0  0  0  0  0  0  0
    8.9282   -1.2694    0.0000 C   0  0  0  0  0  0  0  0  0  0  0  0
    9.7942   -0.7694    0.0000 C   0  0  0  0  0  0  0  0  0  0  0  0
    2.8660    0.2306    0.0000 C   0  0  0  0  0  0  0  0  0  0  0  0
    3.7320    1.7306    0.0000 C   0  0  0  0  0  0  0  0  0  0  0  0
    2.0000    0.7306    0.0000 C   0  0  0  0  0  0  0  0  0  0  0  0
    2.8660    2.2306    0.0000 C   0  0  0  0  0  0  0  0  0  0  0  0
    8.9282   -2.2694    0.0000 C   0  0  0  0  0  0  0  0  0  0  0  0
   10.0472    1.7814    0.0000 H   0  0  0  0  0  0  0  0  0  0  0  0
   10.3036    2.5705    0.0000 H   0  0  0  0  0  0  0  0  0  0  0  0
    7.5528    2.5705    0.0000 H   0  0  0  0  0  0  0  0  0  0  0  0
    7.8092    1.7814    0.0000 H   0  0  0  0  0  0  0  0  0  0  0  0
   10.0347    3.3983    0.0000 H   0  0  0  0  0  0  0  0  0  0  0  0
    9.3634    3.8860    0.0000 H   0  0  0  0  0  0  0  0  0  0  0  0
    8.4930    3.8860    0.0000 H   0  0  0  0  0  0  0  0  0  0  0  0
    7.8218    3.3983    0.0000 H   0  0  0  0  0  0  0  0  0  0  0  0
    6.0010    1.0406    0.0000 H   0  0  0  0  0  0  0  0  0  0  0  0
    4.1996   -0.2444    0.0000 H   0  0  0  0  0  0  0  0  0  0  0  0
    4.9966   -0.2444    0.0000 H   0  0  0  0  0  0  0  0  0  0  0  0
   10.3312    0.5406    0.0000 H   0  0  0  0  0  0  0  0  0  0  0  0
    5.9316   -0.2444    0.0000 H   0  0  0  0  0  0  0  0  0  0  0  0
    6.7287   -0.2444    0.0000 H   0  0  0  0  0  0  0  0  0  0  0  0
    7.5252   -1.0794    0.0000 H   0  0  0  0  0  0  0  0  0  0  0  0
    2.4675   -0.2444    0.0000 H   0  0  0  0  0  0  0  0  0  0  0  0
    3.2646   -0.2444    0.0000 H   0  0  0  0  0  0  0  0  0  0  0  0
    4.3426    1.6229    0.0000 H   0  0  0  0  0  0  0  0  0  0  0  0
    3.9441    2.3132    0.0000 H   0  0  0  0  0  0  0  0  0  0  0  0
   10.3312   -1.0794    0.0000 H   0  0  0  0  0  0  0  0  0  0  0  0
    2.3100    1.2675    0.0000 H   0  0  0  0  0  0  0  0  0  0  0  0
    1.4631    1.0406    0.0000 H   0  0  0  0  0  0  0  0  0  0  0  0
    1.6900    0.1936    0.0000 H   0  0  0  0  0  0  0  0  0  0  0  0
    3.1760    2.7675    0.0000 H   0  0  0  0  0  0  0  0  0  0  0  0
    2.3291    2.5406    0.0000 H   0  0  0  0  0  0  0  0  0  0  0  0
    2.5560    1.6936    0.0000 H   0  0  0  0  0  0  0  0  0  0  0  0
    4.9272    2.0406    0.0000 H   0  0  0  0  0  0  0  0  0  0  0  0
  1 25  1  0  0  0  0
  2 25  1  0  0  0  0
  3 25  1  0  0  0  0
  4 13  1  0  0  0  0
  4 17  1  0  0  0  0
  5 14  1  0  0  0  0
  5 52  1  0  0  0  0
  6  8  1  0  0  0  0
  6  9  1  0  0  0  0
  6 12  1  0  0  0  0
  7 15  1  0  0  0  0
  7 21  1  0  0  0  0
  7 22  1  0  0  0  0
  8 10  1  0  0  0  0
  8 26  1  0  0  0  0
  8 27  1  0  0  0  0
  9 11  1  0  0  0  0
  9 28  1  0  0  0  0
  9 29  1  0  0  0  0
 10 11  1  0  0  0  0
 10 30  1  0  0  0  0
 10 31  1  0  0  0  0
 11 32  1  0  0  0  0
 11 33  1  0  0  0  0
 12 13  2  0  0  0  0
 12 16  1  0  0  0  0
 13 18  1  0  0  0  0
 14 15  1  0  0  0  0
 14 17  1  0  0  0  0
 14 34  1  0  0  0  0
 15 35  1  0  0  0  0
 15 36  1  0  0  0  0
 16 20  2  0  0  0  0
 16 37  1  0  0  0  0
 17 38  1  0  0  0  0
 17 39  1  0  0  0  0
 18 19  2  0  0  0  0
 18 40  1  0  0  0  0
 19 20  1  0  0  0  0
 19 25  1  0  0  0  0
 20 45  1  0  0  0  0
 21 23  1  0  0  0  0
 21 41  1  0  0  0  0
 21 42  1  0  0  0  0
 22 24  1  0  0  0  0
 22 43  1  0  0  0  0
 22 44  1  0  0  0  0
 23 46  1  0  0  0  0
 23 47  1  0  0  0  0
 23 48  1  0  0  0  0
 24 49  1  0  0  0  0
 24 50  1  0  0  0  0
 24 51  1  0  0  0  0
M  END
> <PUBCHEM_COMPOUND_CID>
511415
> <PUBCHEM_COMPOUND_CANONICALIZED>
1
> <PUBCHEM_CACTVS_COMPLEXITY>
385
> <PUBCHEM_CACTVS_HBOND_ACCEPTOR>
7
> <PUBCHEM_CACTVS_HBOND_DONOR>
1
> <PUBCHEM_CACTVS_ROTATABLE_BOND>
8
> <PUBCHEM_CACTVS_SUBSKEYS>
AAADceB7MYAAAAAAAAAAAAAAAAAAAWAAAAAwAAAAAAAAAAABAAAAHwAACAAADBzhmBYyxoMABgCAAiRCQACCCAAhIgAIiAAPbIgPNiLEsZuHOCjmwBHb6AeQwBAOCAABAAAAEAAQAAIAAAAgAAAAAAAAAA==
> <PUBCHEM_IUPAC_OPENEYE_NAME>
1-(diethylamino)-3-[2-pyrrolidin-1-yl-5-(trifluoromethyl)phenoxy]propan-2-ol
> <PUBCHEM_IUPAC_CAS_NAME>
1-(diethylamino)-3-[2-(1-pyrrolidinyl)-5-(trifluoromethyl)phenoxy]-2-propanol
> <PUBCHEM_IUPAC_NAME_MARKUP>
1-(diethylamino)-3-[2-pyrrolidin-1-yl-5-(trifluoromethyl)phenoxy]propan-2-ol
> <PUBCHEM_IUPAC_NAME>
1-(diethylamino)-3-[2-pyrrolidin-1-yl-5-(trifluoromethyl)phenoxy]propan-2-ol
> <PUBCHEM_IUPAC_SYSTEMATIC_NAME>
1-(diethylamino)-3-[2-pyrrolidin-1-yl-5-(trifluoromethyl)phenoxy]propan-2-ol
> <PUBCHEM_IUPAC_TRADITIONAL_NAME>
1-(diethylamino)-3-[2-pyrrolidino-5-(trifluoromethyl)phenoxy]propan-2-ol
> <PUBCHEM_IUPAC_INCHI>
InChI=1S/C18H27F3N2O2/c1-3-22(4-2)12-15(24)13-25-17-11-14(18(19,20)21)7-8-16(17)23-9-5-6-10-23/h7-8,11,15,24H,3-6,9-10,12-13H2,1-2H3
> <PUBCHEM_IUPAC_INCHIKEY>
BKXSJQCIFJIQHY-UHFFFAOYSA-N
> <PUBCHEM_XLOGP3_AA>
3.5
> <PUBCHEM_EXACT_MASS>
360.20246259
> <PUBCHEM_MOLECULAR_FORMULA>
C18H27F3N2O2
> <PUBCHEM_MOLECULAR_WEIGHT>
360.4
> <PUBCHEM_OPENEYE_CAN_SMILES>
CCN(CC)CC(COC1=C(C=CC(=C1)C(F)(F)F)N2CCCC2)O
> <PUBCHEM_OPENEYE_ISO_SMILES>
CCN(CC)CC(COC1=C(C=CC(=C1)C(F)(F)F)N2CCCC2)O
> <PUBCHEM_CACTVS_TPSA>
35.9
> <PUBCHEM_MONOISOTOPIC_WEIGHT>
360.20246259
> <PUBCHEM_TOTAL_CHARGE>
0
> <PUBCHEM_HEAVY_ATOM_COUNT>
25
> <PUBCHEM_ATOM_DEF_STEREO_COUNT>
0
> <PUBCHEM_ATOM_UDEF_STEREO_COUNT>
1
> <PUBCHEM_BOND_DEF_STEREO_COUNT>
0
> <PUBCHEM_BOND_UDEF_STEREO_COUNT>
0
> <PUBCHEM_ISOTOPIC_ATOM_COUNT>
0
> <PUBCHEM_COMPONENT_COUNT>
1
> <PUBCHEM_CACTVS_TAUTO_COUNT>
-1
> <PUBCHEM_COORDINATE_TYPE>
1
5
255
> <PUBCHEM_BONDANNOTATIONS>
12  13  8
12  16  8
13  18  8
16  20  8
18  19  8
19  20  8
14  5  3
$$$$
