511429
  -OEChem-10302200282D
 39 40  0     1  0  0  0  0  0999 V2000
    6.0010    0.4806    0.0000 O   0  0  0  0  0  0  0  0  0  0  0  0
    4.2690    1.4806    0.0000 O   0  0  0  0  0  0  0  0  0  0  0  0
    8.5991   -3.0194    0.0000 O   0  5  0  0  0  0  0  0  0  0  0  0
    6.8671   -3.0194    0.0000 O   0  0  0  0  0  0  0  0  0  0  0  0
    7.7331    1.4806    0.0000 N   0  0  0  0  0  0  0  0  0  0  0  0
    7.7331   -2.5194    0.0000 N   0  3  0  0  0  0  0  0  0  0  0  0
    2.5369    0.4806    0.0000 N   0  0  0  0  0  0  0  0  0  0  0  0
    8.2331    3.0194    0.0000 C   0  0  0  0  0  0  0  0  0  0  0  0
    7.2331    3.0194    0.0000 C   0  0  0  0  0  0  0  0  0  0  0  0
    8.5421    2.0684    0.0000 C   0  0  0  0  0  0  0  0  0  0  0  0
    6.9241    2.0684    0.0000 C   0  0  0  0  0  0  0  0  0  0  0  0
    7.7331    0.4806    0.0000 C   0  0  0  0  0  0  0  0  0  0  0  0
    6.8671   -0.0194    0.0000 C   0  0  0  0  0  0  0  0  0  0  0  0
    8.5991   -0.0194    0.0000 C   0  0  0  0  0  0  0  0  0  0  0  0
    6.8671   -1.0194    0.0000 C   0  0  0  0  0  0  0  0  0  0  0  0
    5.1350   -0.0194    0.0000 C   0  0  0  0  0  0  0  0  0  0  0  0
    8.5991   -1.0194    0.0000 C   0  0  0  0  0  0  0  0  0  0  0  0
    7.7331   -1.5194    0.0000 C   0  0  0  0  0  0  0  0  0  0  0  0
    4.2690    0.4806    0.0000 C   0  0  3  0  0  0  0  0  0  0  0  0
    3.4030   -0.0194    0.0000 C   0  0  0  0  0  0  0  0  0  0  0  0
    8.8521    1.5314    0.0000 H   0  0  0  0  0  0  0  0  0  0  0  0
    9.1085    2.3205    0.0000 H   0  0  0  0  0  0  0  0  0  0  0  0
    6.3577    2.3205    0.0000 H   0  0  0  0  0  0  0  0  0  0  0  0
    6.6141    1.5314    0.0000 H   0  0  0  0  0  0  0  0  0  0  0  0
    8.8395    3.1483    0.0000 H   0  0  0  0  0  0  0  0  0  0  0  0
    8.1683    3.6360    0.0000 H   0  0  0  0  0  0  0  0  0  0  0  0
    7.2979    3.6360    0.0000 H   0  0  0  0  0  0  0  0  0  0  0  0
    6.6266    3.1483    0.0000 H   0  0  0  0  0  0  0  0  0  0  0  0
    9.1360    0.2906    0.0000 H   0  0  0  0  0  0  0  0  0  0  0  0
    6.3301   -1.3294    0.0000 H   0  0  0  0  0  0  0  0  0  0  0  0
    4.7365   -0.4944    0.0000 H   0  0  0  0  0  0  0  0  0  0  0  0
    5.5335   -0.4944    0.0000 H   0  0  0  0  0  0  0  0  0  0  0  0
    9.1360   -1.3294    0.0000 H   0  0  0  0  0  0  0  0  0  0  0  0
    4.8059    0.7906    0.0000 H   0  0  0  0  0  0  0  0  0  0  0  0
    3.0044   -0.4944    0.0000 H   0  0  0  0  0  0  0  0  0  0  0  0
    3.8015   -0.4944    0.0000 H   0  0  0  0  0  0  0  0  0  0  0  0
    3.7320    1.7906    0.0000 H   0  0  0  0  0  0  0  0  0  0  0  0
    2.0000    0.1706    0.0000 H   0  0  0  0  0  0  0  0  0  0  0  0
    2.5369    1.1006    0.0000 H   0  0  0  0  0  0  0  0  0  0  0  0
  1 13  1  0  0  0  0
  1 16  1  0  0  0  0
  2 19  1  0  0  0  0
  2 37  1  0  0  0  0
  3  6  1  0  0  0  0
  4  6  2  0  0  0  0
  5 10  1  0  0  0  0
  5 11  1  0  0  0  0
  5 12  1  0  0  0  0
  6 18  1  0  0  0  0
  7 20  1  0  0  0  0
  7 38  1  0  0  0  0
  7 39  1  0  0  0  0
  8  9  1  0  0  0  0
  8 10  1  0  0  0  0
  8 25  1  0  0  0  0
  8 26  1  0  0  0  0
  9 11  1  0  0  0  0
  9 27  1  0  0  0  0
  9 28  1  0  0  0  0
 10 21  1  0  0  0  0
 10 22  1  0  0  0  0
 11 23  1  0  0  0  0
 11 24  1  0  0  0  0
 12 13  2  0  0  0  0
 12 14  1  0  0  0  0
 13 15  1  0  0  0  0
 14 17  2  0  0  0  0
 14 29  1  0  0  0  0
 15 18  2  0  0  0  0
 15 30  1  0  0  0  0
 16 19  1  0  0  0  0
 16 31  1  0  0  0  0
 16 32  1  0  0  0  0
 17 18  1  0  0  0  0
 17 33  1  0  0  0  0
 19 20  1  0  0  0  0
 19 34  1  0  0  0  0
 20 35  1  0  0  0  0
 20 36  1  0  0  0  0
M  CHG  2   3  -1   6   1
M  END
> <PUBCHEM_COMPOUND_CID>
511429
> <PUBCHEM_COMPOUND_CANONICALIZED>
1
> <PUBCHEM_CACTVS_COMPLEXITY>
317
> <PUBCHEM_CACTVS_HBOND_ACCEPTOR>
6
> <PUBCHEM_CACTVS_HBOND_DONOR>
2
> <PUBCHEM_CACTVS_ROTATABLE_BOND>
5
> <PUBCHEM_CACTVS_SUBSKEYS>
AAADceBzOAAAAAAAAAAAAAAAAAAAAWAAAAAwAAAAAAAAAAABAAAAHgAUCAAACBzhkAYwxoNQRgCBACRCQwCCCAAhIgAoiIAPbIoPNiLEsZuHOCjm0Bnb6AeQUAEAAACAAgAAEAAAAQAEAAAgAAAAAAAAAA==
> <PUBCHEM_IUPAC_OPENEYE_NAME>
1-amino-3-(5-nitro-2-pyrrolidin-1-yl-phenoxy)propan-2-ol
> <PUBCHEM_IUPAC_CAS_NAME>
1-amino-3-[5-nitro-2-(1-pyrrolidinyl)phenoxy]-2-propanol
> <PUBCHEM_IUPAC_NAME_MARKUP>
1-amino-3-(5-nitro-2-pyrrolidin-1-ylphenoxy)propan-2-ol
> <PUBCHEM_IUPAC_NAME>
1-amino-3-(5-nitro-2-pyrrolidin-1-ylphenoxy)propan-2-ol
> <PUBCHEM_IUPAC_SYSTEMATIC_NAME>
1-azanyl-3-(5-nitro-2-pyrrolidin-1-yl-phenoxy)propan-2-ol
> <PUBCHEM_IUPAC_TRADITIONAL_NAME>
1-amino-3-(5-nitro-2-pyrrolidino-phenoxy)propan-2-ol
> <PUBCHEM_IUPAC_INCHI>
InChI=1S/C13H19N3O4/c14-8-11(17)9-20-13-7-10(16(18)19)3-4-12(13)15-5-1-2-6-15/h3-4,7,11,17H,1-2,5-6,8-9,14H2
> <PUBCHEM_IUPAC_INCHIKEY>
RSMHHTBLSSNRQV-UHFFFAOYSA-N
> <PUBCHEM_XLOGP3_AA>
0.8
> <PUBCHEM_EXACT_MASS>
281.13755610
> <PUBCHEM_MOLECULAR_FORMULA>
C13H19N3O4
> <PUBCHEM_MOLECULAR_WEIGHT>
281.31
> <PUBCHEM_OPENEYE_CAN_SMILES>
C1CCN(C1)C2=C(C=C(C=C2)[N+](=O)[O-])OCC(CN)O
> <PUBCHEM_OPENEYE_ISO_SMILES>
C1CCN(C1)C2=C(C=C(C=C2)[N+](=O)[O-])OCC(CN)O
> <PUBCHEM_CACTVS_TPSA>
105
> <PUBCHEM_MONOISOTOPIC_WEIGHT>
281.13755610
> <PUBCHEM_TOTAL_CHARGE>
0
> <PUBCHEM_HEAVY_ATOM_COUNT>
20
> <PUBCHEM_ATOM_DEF_STEREO_COUNT>
0
> <PUBCHEM_ATOM_UDEF_STEREO_COUNT>
1
> <PUBCHEM_BOND_DEF_STEREO_COUNT>
0
> <PUBCHEM_BOND_UDEF_STEREO_COUNT>
0
> <PUBCHEM_ISOTOPIC_ATOM_COUNT>
0
> <PUBCHEM_COMPONENT_COUNT>
1
> <PUBCHEM_CACTVS_TAUTO_COUNT>
-1
> <PUBCHEM_COORDINATE_TYPE>
1
5
255
> <PUBCHEM_BONDANNOTATIONS>
12  13  8
12  14  8
13  15  8
14  17  8
15  18  8
17  18  8
19  2  3
$$$$
