511425
  -OEChem-10302200282D
 58 59  0     1  0  0  0  0  0999 V2000
    9.7942   -2.5864    0.0000 S   0  0  0  0  0  0  0  0  0  0  0  0
    7.1962    0.9136    0.0000 O   0  0  0  0  0  0  0  0  0  0  0  0
    5.4641    1.9136    0.0000 O   0  0  0  0  0  0  0  0  0  0  0  0
    9.2942   -3.4524    0.0000 O   0  0  0  0  0  0  0  0  0  0  0  0
   10.2942   -1.7204    0.0000 O   0  0  0  0  0  0  0  0  0  0  0  0
    8.9282    1.9136    0.0000 N   0  0  0  0  0  0  0  0  0  0  0  0
    3.7320    0.9136    0.0000 N   0  0  0  0  0  0  0  0  0  0  0  0
    9.7372    2.5014    0.0000 C   0  0  0  0  0  0  0  0  0  0  0  0
    8.1192    2.5014    0.0000 C   0  0  0  0  0  0  0  0  0  0  0  0
    9.4282    3.4524    0.0000 C   0  0  0  0  0  0  0  0  0  0  0  0
    8.4282    3.4524    0.0000 C   0  0  0  0  0  0  0  0  0  0  0  0
    8.9282    0.9136    0.0000 C   0  0  0  0  0  0  0  0  0  0  0  0
    8.0622    0.4136    0.0000 C   0  0  0  0  0  0  0  0  0  0  0  0
    9.7942    0.4136    0.0000 C   0  0  0  0  0  0  0  0  0  0  0  0
    5.4641    0.9136    0.0000 C   0  0  3  0  0  0  0  0  0  0  0  0
    8.9282   -1.0864    0.0000 C   0  0  0  0  0  0  0  0  0  0  0  0
    4.5981    0.4136    0.0000 C   0  0  0  0  0  0  0  0  0  0  0  0
    8.0622   -0.5864    0.0000 C   0  0  0  0  0  0  0  0  0  0  0  0
    6.3301    0.4136    0.0000 C   0  0  0  0  0  0  0  0  0  0  0  0
    9.7942   -0.5864    0.0000 C   0  0  0  0  0  0  0  0  0  0  0  0
    8.9282   -2.0864    0.0000 C   0  0  0  0  0  0  0  0  0  0  0  0
    2.8660    0.4136    0.0000 C   0  0  0  0  0  0  0  0  0  0  0  0
    3.7320    1.9136    0.0000 C   0  0  0  0  0  0  0  0  0  0  0  0
    2.0000    0.9136    0.0000 C   0  0  0  0  0  0  0  0  0  0  0  0
    2.8660    2.4136    0.0000 C   0  0  0  0  0  0  0  0  0  0  0  0
   10.6603   -3.0864    0.0000 C   0  0  0  0  0  0  0  0  0  0  0  0
   10.0472    1.9644    0.0000 H   0  0  0  0  0  0  0  0  0  0  0  0
   10.3036    2.7536    0.0000 H   0  0  0  0  0  0  0  0  0  0  0  0
    7.5528    2.7536    0.0000 H   0  0  0  0  0  0  0  0  0  0  0  0
    7.8092    1.9644    0.0000 H   0  0  0  0  0  0  0  0  0  0  0  0
   10.0347    3.5813    0.0000 H   0  0  0  0  0  0  0  0  0  0  0  0
    9.3634    4.0690    0.0000 H   0  0  0  0  0  0  0  0  0  0  0  0
    8.4930    4.0690    0.0000 H   0  0  0  0  0  0  0  0  0  0  0  0
    7.8218    3.5813    0.0000 H   0  0  0  0  0  0  0  0  0  0  0  0
   10.3312    0.7236    0.0000 H   0  0  0  0  0  0  0  0  0  0  0  0
    6.0010    1.2236    0.0000 H   0  0  0  0  0  0  0  0  0  0  0  0
    4.1996   -0.0614    0.0000 H   0  0  0  0  0  0  0  0  0  0  0  0
    4.9966   -0.0614    0.0000 H   0  0  0  0  0  0  0  0  0  0  0  0
    7.5252   -0.8964    0.0000 H   0  0  0  0  0  0  0  0  0  0  0  0
    5.9316   -0.0614    0.0000 H   0  0  0  0  0  0  0  0  0  0  0  0
    6.7287   -0.0614    0.0000 H   0  0  0  0  0  0  0  0  0  0  0  0
   10.3312   -0.8964    0.0000 H   0  0  0  0  0  0  0  0  0  0  0  0
    8.3176   -1.9788    0.0000 H   0  0  0  0  0  0  0  0  0  0  0  0
    8.7162   -2.6690    0.0000 H   0  0  0  0  0  0  0  0  0  0  0  0
    2.4675   -0.0614    0.0000 H   0  0  0  0  0  0  0  0  0  0  0  0
    3.2646   -0.0614    0.0000 H   0  0  0  0  0  0  0  0  0  0  0  0
    4.3426    1.8059    0.0000 H   0  0  0  0  0  0  0  0  0  0  0  0
    3.9441    2.4962    0.0000 H   0  0  0  0  0  0  0  0  0  0  0  0
    4.9272    2.2236    0.0000 H   0  0  0  0  0  0  0  0  0  0  0  0
    2.3100    1.4505    0.0000 H   0  0  0  0  0  0  0  0  0  0  0  0
    1.4631    1.2236    0.0000 H   0  0  0  0  0  0  0  0  0  0  0  0
    1.6900    0.3767    0.0000 H   0  0  0  0  0  0  0  0  0  0  0  0
    3.1760    2.9505    0.0000 H   0  0  0  0  0  0  0  0  0  0  0  0
    2.3291    2.7236    0.0000 H   0  0  0  0  0  0  0  0  0  0  0  0
    2.5560    1.8767    0.0000 H   0  0  0  0  0  0  0  0  0  0  0  0
   10.3503   -3.6233    0.0000 H   0  0  0  0  0  0  0  0  0  0  0  0
   11.1972   -3.3964    0.0000 H   0  0  0  0  0  0  0  0  0  0  0  0
   10.9703   -2.5495    0.0000 H   0  0  0  0  0  0  0  0  0  0  0  0
  1  4  2  0  0  0  0
  1  5  2  0  0  0  0
  1 21  1  0  0  0  0
  1 26  1  0  0  0  0
  2 13  1  0  0  0  0
  2 19  1  0  0  0  0
  3 15  1  0  0  0  0
  3 49  1  0  0  0  0
  6  8  1  0  0  0  0
  6  9  1  0  0  0  0
  6 12  1  0  0  0  0
  7 17  1  0  0  0  0
  7 22  1  0  0  0  0
  7 23  1  0  0  0  0
  8 10  1  0  0  0  0
  8 27  1  0  0  0  0
  8 28  1  0  0  0  0
  9 11  1  0  0  0  0
  9 29  1  0  0  0  0
  9 30  1  0  0  0  0
 10 11  1  0  0  0  0
 10 31  1  0  0  0  0
 10 32  1  0  0  0  0
 11 33  1  0  0  0  0
 11 34  1  0  0  0  0
 12 13  2  0  0  0  0
 12 14  1  0  0  0  0
 13 18  1  0  0  0  0
 14 20  2  0  0  0  0
 14 35  1  0  0  0  0
 15 17  1  0  0  0  0
 15 19  1  0  0  0  0
 15 36  1  0  0  0  0
 16 18  2  0  0  0  0
 16 20  1  0  0  0  0
 16 21  1  0  0  0  0
 17 37  1  0  0  0  0
 17 38  1  0  0  0  0
 18 39  1  0  0  0  0
 19 40  1  0  0  0  0
 19 41  1  0  0  0  0
 20 42  1  0  0  0  0
 21 43  1  0  0  0  0
 21 44  1  0  0  0  0
 22 24  1  0  0  0  0
 22 45  1  0  0  0  0
 22 46  1  0  0  0  0
 23 25  1  0  0  0  0
 23 47  1  0  0  0  0
 23 48  1  0  0  0  0
 24 50  1  0  0  0  0
 24 51  1  0  0  0  0
 24 52  1  0  0  0  0
 25 53  1  0  0  0  0
 25 54  1  0  0  0  0
 25 55  1  0  0  0  0
 26 56  1  0  0  0  0
 26 57  1  0  0  0  0
 26 58  1  0  0  0  0
M  END
> <PUBCHEM_COMPOUND_CID>
511425
> <PUBCHEM_COMPOUND_CANONICALIZED>
1
> <PUBCHEM_CACTVS_COMPLEXITY>
498
> <PUBCHEM_CACTVS_HBOND_ACCEPTOR>
6
> <PUBCHEM_CACTVS_HBOND_DONOR>
1
> <PUBCHEM_CACTVS_ROTATABLE_BOND>
10
> <PUBCHEM_CACTVS_SUBSKEYS>
AAADcfB7OABAAAAAAAAAAAAAAAAAAWAAAAAwAAAAAAAAAAABAAAAHgQACAAADBzl2AayxoMABgqAAiRCQHDCCAAhIhAIiAAPbIgPNiLksZuHOCjmwBHb6AeQwBAOCAABAAAAEAAQAAIAAAAgAAAAAAAAAA==
> <PUBCHEM_IUPAC_OPENEYE_NAME>
1-(diethylamino)-3-[5-(methylsulfonylmethyl)-2-pyrrolidin-1-yl-phenoxy]propan-2-ol
> <PUBCHEM_IUPAC_CAS_NAME>
1-(diethylamino)-3-[5-(methylsulfonylmethyl)-2-(1-pyrrolidinyl)phenoxy]-2-propanol
> <PUBCHEM_IUPAC_NAME_MARKUP>
1-(diethylamino)-3-[5-(methylsulfonylmethyl)-2-pyrrolidin-1-ylphenoxy]propan-2-ol
> <PUBCHEM_IUPAC_NAME>
1-(diethylamino)-3-[5-(methylsulfonylmethyl)-2-pyrrolidin-1-ylphenoxy]propan-2-ol
> <PUBCHEM_IUPAC_SYSTEMATIC_NAME>
1-(diethylamino)-3-[5-(methylsulfonylmethyl)-2-pyrrolidin-1-yl-phenoxy]propan-2-ol
> <PUBCHEM_IUPAC_TRADITIONAL_NAME>
1-(diethylamino)-3-[5-(mesylmethyl)-2-pyrrolidino-phenoxy]propan-2-ol
> <PUBCHEM_IUPAC_INCHI>
InChI=1S/C19H32N2O4S/c1-4-20(5-2)13-17(22)14-25-19-12-16(15-26(3,23)24)8-9-18(19)21-10-6-7-11-21/h8-9,12,17,22H,4-7,10-11,13-15H2,1-3H3
> <PUBCHEM_IUPAC_INCHIKEY>
MQLQCWUSQHKDSI-UHFFFAOYSA-N
> <PUBCHEM_XLOGP3_AA>
1.8
> <PUBCHEM_EXACT_MASS>
384.20827868
> <PUBCHEM_MOLECULAR_FORMULA>
C19H32N2O4S
> <PUBCHEM_MOLECULAR_WEIGHT>
384.5
> <PUBCHEM_OPENEYE_CAN_SMILES>
CCN(CC)CC(COC1=C(C=CC(=C1)CS(=O)(=O)C)N2CCCC2)O
> <PUBCHEM_OPENEYE_ISO_SMILES>
CCN(CC)CC(COC1=C(C=CC(=C1)CS(=O)(=O)C)N2CCCC2)O
> <PUBCHEM_CACTVS_TPSA>
78.5
> <PUBCHEM_MONOISOTOPIC_WEIGHT>
384.20827868
> <PUBCHEM_TOTAL_CHARGE>
0
> <PUBCHEM_HEAVY_ATOM_COUNT>
26
> <PUBCHEM_ATOM_DEF_STEREO_COUNT>
0
> <PUBCHEM_ATOM_UDEF_STEREO_COUNT>
1
> <PUBCHEM_BOND_DEF_STEREO_COUNT>
0
> <PUBCHEM_BOND_UDEF_STEREO_COUNT>
0
> <PUBCHEM_ISOTOPIC_ATOM_COUNT>
0
> <PUBCHEM_COMPONENT_COUNT>
1
> <PUBCHEM_CACTVS_TAUTO_COUNT>
-1
> <PUBCHEM_COORDINATE_TYPE>
1
5
255
> <PUBCHEM_BONDANNOTATIONS>
12  13  8
12  14  8
13  18  8
14  20  8
16  18  8
16  20  8
15  3  3
$$$$
