511469
  -OEChem-10302200282D
 60 62  0     1  0  0  0  0  0999 V2000
    9.8065    4.8097    0.0000 O   0  0  0  0  0  0  0  0  0  0  0  0
    6.2884    1.7646    0.0000 N   0  0  3  0  0  0  0  0  0  0  0  0
    4.4884    1.7438    0.0000 N   0  0  0  0  0  0  0  0  0  0  0  0
    5.4060    0.2300    0.0000 N   0  0  0  0  0  0  0  0  0  0  0  0
    6.2884    2.7646    0.0000 C   0  0  3  0  0  0  0  0  0  0  0  0
    5.3945    1.2299    0.0000 C   0  0  3  0  0  0  0  0  0  0  0  0
    5.3945    3.2992    0.0000 C   0  0  0  0  0  0  0  0  0  0  0  0
    7.1545    1.2646    0.0000 C   0  0  0  0  0  0  0  0  0  0  0  0
    7.1545    3.2646    0.0000 C   0  0  0  0  0  0  0  0  0  0  0  0
    4.4884    2.7854    0.0000 C   0  0  0  0  0  0  0  0  0  0  0  0
    8.0205    1.7646    0.0000 C   0  0  0  0  0  0  0  0  0  0  0  0
    8.0205    2.7646    0.0000 C   0  0  0  0  0  0  0  0  0  0  0  0
    7.1384    4.3061    0.0000 C   0  0  0  0  0  0  0  0  0  0  0  0
    4.5459   -0.2800    0.0000 C   0  0  0  0  0  0  0  0  0  0  0  0
    8.9305    3.2714    0.0000 C   0  0  0  0  0  0  0  0  0  0  0  0
    4.5574   -1.2799    0.0000 C   0  0  0  0  0  0  0  0  0  0  0  0
    8.0364    4.8338    0.0000 C   0  0  0  0  0  0  0  0  0  0  0  0
    8.9385    4.3130    0.0000 C   0  0  0  0  0  0  0  0  0  0  0  0
    3.6972   -1.7899    0.0000 C   0  0  0  0  0  0  0  0  0  0  0  0
    3.7088   -2.7898    0.0000 C   0  0  0  0  0  0  0  0  0  0  0  0
    2.8486   -3.2998    0.0000 C   0  0  0  0  0  0  0  0  0  0  0  0
    2.8602   -4.2998    0.0000 C   0  0  0  0  0  0  0  0  0  0  0  0
    2.0000   -4.8097    0.0000 C   0  0  0  0  0  0  0  0  0  0  0  0
    9.8103    5.8097    0.0000 C   0  0  0  0  0  0  0  0  0  0  0  0
    2.0116   -5.8097    0.0000 C   0  0  0  0  0  0  0  0  0  0  0  0
    6.2932    3.3846    0.0000 H   0  0  0  0  0  0  0  0  0  0  0  0
    5.9356    0.9272    0.0000 H   0  0  0  0  0  0  0  0  0  0  0  0
    5.7991    3.7690    0.0000 H   0  0  0  0  0  0  0  0  0  0  0  0
    5.0009    3.7783    0.0000 H   0  0  0  0  0  0  0  0  0  0  0  0
    6.7559    0.7896    0.0000 H   0  0  0  0  0  0  0  0  0  0  0  0
    7.5530    0.7896    0.0000 H   0  0  0  0  0  0  0  0  0  0  0  0
    4.2794    3.3691    0.0000 H   0  0  0  0  0  0  0  0  0  0  0  0
    3.8776    2.6793    0.0000 H   0  0  0  0  0  0  0  0  0  0  0  0
    8.2325    1.1820    0.0000 H   0  0  0  0  0  0  0  0  0  0  0  0
    8.6311    1.8722    0.0000 H   0  0  0  0  0  0  0  0  0  0  0  0
    3.9527    1.4317    0.0000 H   0  0  0  0  0  0  0  0  0  0  0  0
    5.9465   -0.0738    0.0000 H   0  0  0  0  0  0  0  0  0  0  0  0
    6.5979    4.6098    0.0000 H   0  0  0  0  0  0  0  0  0  0  0  0
    4.3271    0.3001    0.0000 H   0  0  0  0  0  0  0  0  0  0  0  0
    3.9366   -0.3947    0.0000 H   0  0  0  0  0  0  0  0  0  0  0  0
    9.4638    2.9552    0.0000 H   0  0  0  0  0  0  0  0  0  0  0  0
    4.7762   -1.8600    0.0000 H   0  0  0  0  0  0  0  0  0  0  0  0
    5.1667   -1.1652    0.0000 H   0  0  0  0  0  0  0  0  0  0  0  0
    8.0340    5.4538    0.0000 H   0  0  0  0  0  0  0  0  0  0  0  0
    3.4785   -1.2098    0.0000 H   0  0  0  0  0  0  0  0  0  0  0  0
    3.0880   -1.9046    0.0000 H   0  0  0  0  0  0  0  0  0  0  0  0
    3.9276   -3.3700    0.0000 H   0  0  0  0  0  0  0  0  0  0  0  0
    4.3181   -2.6751    0.0000 H   0  0  0  0  0  0  0  0  0  0  0  0
    2.6298   -2.7197    0.0000 H   0  0  0  0  0  0  0  0  0  0  0  0
    2.2393   -3.4145    0.0000 H   0  0  0  0  0  0  0  0  0  0  0  0
    3.0790   -4.8799    0.0000 H   0  0  0  0  0  0  0  0  0  0  0  0
    3.4695   -4.1850    0.0000 H   0  0  0  0  0  0  0  0  0  0  0  0
    1.7812   -4.2296    0.0000 H   0  0  0  0  0  0  0  0  0  0  0  0
    1.3907   -4.9245    0.0000 H   0  0  0  0  0  0  0  0  0  0  0  0
   10.4303    5.8073    0.0000 H   0  0  0  0  0  0  0  0  0  0  0  0
    9.8127    6.4297    0.0000 H   0  0  0  0  0  0  0  0  0  0  0  0
    9.1903    5.8121    0.0000 H   0  0  0  0  0  0  0  0  0  0  0  0
    1.3916   -5.8168    0.0000 H   0  0  0  0  0  0  0  0  0  0  0  0
    2.0187   -6.4296    0.0000 H   0  0  0  0  0  0  0  0  0  0  0  0
    2.6315   -5.8025    0.0000 H   0  0  0  0  0  0  0  0  0  0  0  0
  1 18  1  0  0  0  0
  1 24  1  0  0  0  0
  2  5  1  0  0  0  0
  2  6  1  0  0  0  0
  2  8  1  0  0  0  0
  3  6  1  0  0  0  0
  3 10  1  0  0  0  0
  3 36  1  0  0  0  0
  4  6  1  0  0  0  0
  4 14  1  0  0  0  0
  4 37  1  0  0  0  0
  5  7  1  0  0  0  0
  5  9  1  0  0  0  0
  5 26  1  0  0  0  0
  6 27  1  0  0  0  0
  7 10  1  0  0  0  0
  7 28  1  0  0  0  0
  7 29  1  0  0  0  0
  8 11  1  0  0  0  0
  8 30  1  0  0  0  0
  8 31  1  0  0  0  0
  9 12  2  0  0  0  0
  9 13  1  0  0  0  0
 10 32  1  0  0  0  0
 10 33  1  0  0  0  0
 11 12  1  0  0  0  0
 11 34  1  0  0  0  0
 11 35  1  0  0  0  0
 12 15  1  0  0  0  0
 13 17  2  0  0  0  0
 13 38  1  0  0  0  0
 14 16  1  0  0  0  0
 14 39  1  0  0  0  0
 14 40  1  0  0  0  0
 15 18  2  0  0  0  0
 15 41  1  0  0  0  0
 16 19  1  0  0  0  0
 16 42  1  0  0  0  0
 16 43  1  0  0  0  0
 17 18  1  0  0  0  0
 17 44  1  0  0  0  0
 19 20  1  0  0  0  0
 19 45  1  0  0  0  0
 19 46  1  0  0  0  0
 20 21  1  0  0  0  0
 20 47  1  0  0  0  0
 20 48  1  0  0  0  0
 21 22  1  0  0  0  0
 21 49  1  0  0  0  0
 21 50  1  0  0  0  0
 22 23  1  0  0  0  0
 22 51  1  0  0  0  0
 22 52  1  0  0  0  0
 23 25  1  0  0  0  0
 23 53  1  0  0  0  0
 23 54  1  0  0  0  0
 24 55  1  0  0  0  0
 24 56  1  0  0  0  0
 24 57  1  0  0  0  0
 25 58  1  0  0  0  0
 25 59  1  0  0  0  0
 25 60  1  0  0  0  0
M  END
> <PUBCHEM_COMPOUND_CID>
511469
> <PUBCHEM_COMPOUND_CANONICALIZED>
1
> <PUBCHEM_CACTVS_COMPLEXITY>
378
> <PUBCHEM_CACTVS_HBOND_ACCEPTOR>
4
> <PUBCHEM_CACTVS_HBOND_DONOR>
2
> <PUBCHEM_CACTVS_ROTATABLE_BOND>
9
> <PUBCHEM_CACTVS_SUBSKEYS>
AAADcfB7IAAAAAAAAAAAAAAAAAAAAAAAAAA8WIAAAAAAAACxAAAAHgAQAAAADCzBmAYzBoPABACAAiBCAACCCAAgIAAIiIAODIiMJiKE8RuEMChs0BOIqAeQ0LMOoAABAAAQAABAAAIAACAAAAAAAAAAAA==
> <PUBCHEM_IUPAC_OPENEYE_NAME>
9-methoxy-N-octyl-2,3,4,6,7,11b-hexahydro-1H-pyrimido[6,1-a]isoquinolin-4-amine
> <PUBCHEM_IUPAC_CAS_NAME>
9-methoxy-N-octyl-2,3,4,6,7,11b-hexahydro-1H-pyrimido[6,1-a]isoquinolin-4-amine
> <PUBCHEM_IUPAC_NAME_MARKUP>
9-methoxy-<I>N</I>-octyl-2,3,4,6,7,11<I>b</I>-hexahydro-1<I>H</I>-pyrimido[6,1-a]isoquinolin-4-amine
> <PUBCHEM_IUPAC_NAME>
9-methoxy-N-octyl-2,3,4,6,7,11b-hexahydro-1H-pyrimido[6,1-a]isoquinolin-4-amine
> <PUBCHEM_IUPAC_SYSTEMATIC_NAME>
9-methoxy-N-octyl-2,3,4,6,7,11b-hexahydro-1H-pyrimido[6,1-a]isoquinolin-4-amine
> <PUBCHEM_IUPAC_TRADITIONAL_NAME>
(9-methoxy-2,3,4,6,7,11b-hexahydro-1H-pyrimid[6,1-a]isoquinolin-4-yl)-octyl-amine
> <PUBCHEM_IUPAC_INCHI>
InChI=1S/C21H35N3O/c1-3-4-5-6-7-8-13-22-21-23-14-11-20-19-10-9-18(25-2)16-17(19)12-15-24(20)21/h9-10,16,20-23H,3-8,11-15H2,1-2H3
> <PUBCHEM_IUPAC_INCHIKEY>
GNBITXSYSJJRBO-UHFFFAOYSA-N
> <PUBCHEM_XLOGP3_AA>
4.7
> <PUBCHEM_EXACT_MASS>
345.278012748
> <PUBCHEM_MOLECULAR_FORMULA>
C21H35N3O
> <PUBCHEM_MOLECULAR_WEIGHT>
345.5
> <PUBCHEM_OPENEYE_CAN_SMILES>
CCCCCCCCNC1NCCC2N1CCC3=C2C=CC(=C3)OC
> <PUBCHEM_OPENEYE_ISO_SMILES>
CCCCCCCCNC1NCCC2N1CCC3=C2C=CC(=C3)OC
> <PUBCHEM_CACTVS_TPSA>
36.5
> <PUBCHEM_MONOISOTOPIC_WEIGHT>
345.278012748
> <PUBCHEM_TOTAL_CHARGE>
0
> <PUBCHEM_HEAVY_ATOM_COUNT>
25
> <PUBCHEM_ATOM_DEF_STEREO_COUNT>
0
> <PUBCHEM_ATOM_UDEF_STEREO_COUNT>
2
> <PUBCHEM_BOND_DEF_STEREO_COUNT>
0
> <PUBCHEM_BOND_UDEF_STEREO_COUNT>
0
> <PUBCHEM_ISOTOPIC_ATOM_COUNT>
0
> <PUBCHEM_COMPONENT_COUNT>
1
> <PUBCHEM_CACTVS_TAUTO_COUNT>
-1
> <PUBCHEM_COORDINATE_TYPE>
1
5
255
> <PUBCHEM_BONDANNOTATIONS>
12  15  8
13  17  8
15  18  8
17  18  8
6  4  3
5  7  3
9  12  8
9  13  8
$$$$
