511454
  -OEChem-10302200282D
 31 33  0     1  0  0  0  0  0999 V2000
    4.1084   -1.1809    0.0000 N   0  0  0  0  0  0  0  0  0  0  0  0
    3.5053    1.3224    0.0000 C   0  0  3  0  0  0  0  0  0  0  0  0
    4.0445   -0.1830    0.0000 C   0  0  3  0  0  0  0  0  0  0  0  0
    4.0670    0.8954    0.0000 C   0  0  3  0  0  0  0  0  0  0  0  0
    2.4493   -0.1605    0.0000 C   0  0  3  0  0  0  0  0  0  0  0  0
    3.0494   -0.7514    0.0000 C   0  0  0  0  0  0  0  0  0  0  0  0
    2.9885    0.5360    0.0000 C   0  0  0  0  0  0  0  0  0  0  0  0
    2.7864    1.5246    0.0000 C   0  0  0  0  0  0  0  0  0  0  0  0
    2.0000    0.8056    0.0000 C   0  0  0  0  0  0  0  0  0  0  0  0
    5.1158   -0.6248    0.0000 C   0  0  0  0  0  0  0  0  0  0  0  0
    4.9882    0.7382    0.0000 C   0  0  0  0  0  0  0  0  0  0  0  0
    5.5723    0.0642    0.0000 C   0  0  0  0  0  0  0  0  0  0  0  0
    3.7817    1.8774    0.0000 H   0  0  0  0  0  0  0  0  0  0  0  0
    4.1143    0.2772    0.0000 H   0  0  0  0  0  0  0  0  0  0  0  0
    1.9426   -0.5178    0.0000 H   0  0  0  0  0  0  0  0  0  0  0  0
    2.5759   -1.1517    0.0000 H   0  0  0  0  0  0  0  0  0  0  0  0
    3.4047   -1.2595    0.0000 H   0  0  0  0  0  0  0  0  0  0  0  0
    2.9917    1.1560    0.0000 H   0  0  0  0  0  0  0  0  0  0  0  0
    3.3472    0.0302    0.0000 H   0  0  0  0  0  0  0  0  0  0  0  0
    3.0613    2.0803    0.0000 H   0  0  0  0  0  0  0  0  0  0  0  0
    2.2908    1.8972    0.0000 H   0  0  0  0  0  0  0  0  0  0  0  0
    1.6303    1.3033    0.0000 H   0  0  0  0  0  0  0  0  0  0  0  0
    1.4673    0.4883    0.0000 H   0  0  0  0  0  0  0  0  0  0  0  0
    4.8428   -1.1815    0.0000 H   0  0  0  0  0  0  0  0  0  0  0  0
    5.6537   -0.9332    0.0000 H   0  0  0  0  0  0  0  0  0  0  0  0
    5.5544    0.9909    0.0000 H   0  0  0  0  0  0  0  0  0  0  0  0
    4.9107    1.3534    0.0000 H   0  0  0  0  0  0  0  0  0  0  0  0
    6.0561   -0.3236    0.0000 H   0  0  0  0  0  0  0  0  0  0  0  0
    6.0022    0.5109    0.0000 H   0  0  0  0  0  0  0  0  0  0  0  0
    4.6640   -1.4560    0.0000 H   0  0  0  0  0  0  0  0  0  0  0  0
    3.5923   -1.5246    0.0000 H   0  0  0  0  0  0  0  0  0  0  0  0
  1  3  1  0  0  0  0
  1 30  1  0  0  0  0
  1 31  1  0  0  0  0
  2  3  1  0  0  0  0
  2  4  1  0  0  0  0
  2  8  1  0  0  0  0
  2 13  1  0  0  0  0
  3  6  1  0  0  0  0
  3 10  1  0  0  0  0
  4  7  1  0  0  0  0
  4 11  1  0  0  0  0
  4 14  1  0  0  0  0
  5  6  1  0  0  0  0
  5  7  1  0  0  0  0
  5  9  1  0  0  0  0
  5 15  1  0  0  0  0
  6 16  1  0  0  0  0
  6 17  1  0  0  0  0
  7 18  1  0  0  0  0
  7 19  1  0  0  0  0
  8  9  1  0  0  0  0
  8 20  1  0  0  0  0
  8 21  1  0  0  0  0
  9 22  1  0  0  0  0
  9 23  1  0  0  0  0
 10 12  1  0  0  0  0
 10 24  1  0  0  0  0
 10 25  1  0  0  0  0
 11 12  1  0  0  0  0
 11 26  1  0  0  0  0
 11 27  1  0  0  0  0
 12 28  1  0  0  0  0
 12 29  1  0  0  0  0
M  END
> <PUBCHEM_COMPOUND_CID>
511454
> <PUBCHEM_COMPOUND_CANONICALIZED>
1
> <PUBCHEM_CACTVS_COMPLEXITY>
201
> <PUBCHEM_CACTVS_HBOND_ACCEPTOR>
1
> <PUBCHEM_CACTVS_HBOND_DONOR>
1
> <PUBCHEM_CACTVS_ROTATABLE_BOND>
0
> <PUBCHEM_CACTVS_SUBSKEYS>
AAADceByAAAAAAAAAAAAAAAAAAAAAAAAAAAwYMAAAAAYAAAAAAAAHAAQAAAADYiBAAAAAABAAAAAAAAAAAAAAAAAAAAAAAAAAAAAAAIAgAAAAAAAEAAAAAEQgMAOgAAAAAAAAACAAASAACQAAAAAAAAAAA==
> <PUBCHEM_IUPAC_OPENEYE_NAME>
tricyclo[5.3.1.03,8]undecan-3-amine
> <PUBCHEM_IUPAC_CAS_NAME>
3-tricyclo[5.3.1.03,8]undecanamine
> <PUBCHEM_IUPAC_NAME_MARKUP>
tricyclo[5.3.1.0<SUP>3,8</SUP>]undecan-3-amine
> <PUBCHEM_IUPAC_NAME>
tricyclo[5.3.1.03,8]undecan-3-amine
> <PUBCHEM_IUPAC_SYSTEMATIC_NAME>
tricyclo[5.3.1.03,8]undecan-3-amine
> <PUBCHEM_IUPAC_TRADITIONAL_NAME>
3-tricyclo[5.3.1.03,8]undecanylamine
> <PUBCHEM_IUPAC_INCHI>
InChI=1S/C11H19N/c12-11-5-1-2-9-6-8(7-11)3-4-10(9)11/h8-10H,1-7,12H2
> <PUBCHEM_IUPAC_INCHIKEY>
HBQIEQAURBDCQB-UHFFFAOYSA-N
> <PUBCHEM_XLOGP3_AA>
2.3
> <PUBCHEM_EXACT_MASS>
165.151749610
> <PUBCHEM_MOLECULAR_FORMULA>
C11H19N
> <PUBCHEM_MOLECULAR_WEIGHT>
165.27
> <PUBCHEM_OPENEYE_CAN_SMILES>
C1CC2CC3CCC2C(C1)(C3)N
> <PUBCHEM_OPENEYE_ISO_SMILES>
C1CC2CC3CCC2C(C1)(C3)N
> <PUBCHEM_CACTVS_TPSA>
26
> <PUBCHEM_MONOISOTOPIC_WEIGHT>
165.151749610
> <PUBCHEM_TOTAL_CHARGE>
0
> <PUBCHEM_HEAVY_ATOM_COUNT>
12
> <PUBCHEM_ATOM_DEF_STEREO_COUNT>
0
> <PUBCHEM_ATOM_UDEF_STEREO_COUNT>
4
> <PUBCHEM_BOND_DEF_STEREO_COUNT>
0
> <PUBCHEM_BOND_UDEF_STEREO_COUNT>
0
> <PUBCHEM_ISOTOPIC_ATOM_COUNT>
0
> <PUBCHEM_COMPONENT_COUNT>
1
> <PUBCHEM_CACTVS_TAUTO_COUNT>
1
> <PUBCHEM_COORDINATE_TYPE>
1
5
255
> <PUBCHEM_BONDANNOTATIONS>
3  1  3
2  8  3
4  11  3
5  9  3
$$$$
