511428
  -OEChem-10302200282D
 66 67  0     1  0  0  0  0  0999 V2000
    7.1962    1.6636    0.0000 O   0  0  0  0  0  0  0  0  0  0  0  0
    5.4641    2.6636    0.0000 O   0  0  0  0  0  0  0  0  0  0  0  0
    9.7942   -2.8364    0.0000 O   0  0  0  0  0  0  0  0  0  0  0  0
   10.6603   -1.3364    0.0000 O   0  0  0  0  0  0  0  0  0  0  0  0
    8.9282    2.6636    0.0000 N   0  0  0  0  0  0  0  0  0  0  0  0
    3.7320    1.6636    0.0000 N   0  0  0  0  0  0  0  0  0  0  0  0
    8.9282   -1.3364    0.0000 N   0  0  0  0  0  0  0  0  0  0  0  0
    9.4282    4.2024    0.0000 C   0  0  0  0  0  0  0  0  0  0  0  0
    8.4282    4.2024    0.0000 C   0  0  0  0  0  0  0  0  0  0  0  0
    9.7372    3.2514    0.0000 C   0  0  0  0  0  0  0  0  0  0  0  0
    8.1192    3.2514    0.0000 C   0  0  0  0  0  0  0  0  0  0  0  0
    8.9282    1.6636    0.0000 C   0  0  0  0  0  0  0  0  0  0  0  0
    8.0622    1.1636    0.0000 C   0  0  0  0  0  0  0  0  0  0  0  0
    9.7942    1.1636    0.0000 C   0  0  0  0  0  0  0  0  0  0  0  0
    5.4641    1.6636    0.0000 C   0  0  3  0  0  0  0  0  0  0  0  0
    4.5981    1.1636    0.0000 C   0  0  0  0  0  0  0  0  0  0  0  0
    6.3301    1.1636    0.0000 C   0  0  0  0  0  0  0  0  0  0  0  0
    8.0622    0.1636    0.0000 C   0  0  0  0  0  0  0  0  0  0  0  0
    9.7942    0.1636    0.0000 C   0  0  0  0  0  0  0  0  0  0  0  0
    8.9282   -0.3364    0.0000 C   0  0  0  0  0  0  0  0  0  0  0  0
    2.8660    1.1636    0.0000 C   0  0  0  0  0  0  0  0  0  0  0  0
    3.7320    2.6636    0.0000 C   0  0  0  0  0  0  0  0  0  0  0  0
   10.6603   -3.3364    0.0000 C   0  0  0  0  0  0  0  0  0  0  0  0
    2.0000    1.6636    0.0000 C   0  0  0  0  0  0  0  0  0  0  0  0
    2.8660    3.1636    0.0000 C   0  0  0  0  0  0  0  0  0  0  0  0
    9.7942   -1.8364    0.0000 C   0  0  0  0  0  0  0  0  0  0  0  0
   11.5263   -3.8364    0.0000 C   0  0  0  0  0  0  0  0  0  0  0  0
   10.1603   -4.2024    0.0000 C   0  0  0  0  0  0  0  0  0  0  0  0
   11.1603   -2.4704    0.0000 C   0  0  0  0  0  0  0  0  0  0  0  0
   10.0347    4.3313    0.0000 H   0  0  0  0  0  0  0  0  0  0  0  0
    9.3634    4.8190    0.0000 H   0  0  0  0  0  0  0  0  0  0  0  0
    8.4930    4.8190    0.0000 H   0  0  0  0  0  0  0  0  0  0  0  0
    7.8218    4.3313    0.0000 H   0  0  0  0  0  0  0  0  0  0  0  0
   10.0472    2.7144    0.0000 H   0  0  0  0  0  0  0  0  0  0  0  0
   10.3036    3.5036    0.0000 H   0  0  0  0  0  0  0  0  0  0  0  0
    7.5528    3.5036    0.0000 H   0  0  0  0  0  0  0  0  0  0  0  0
    7.8092    2.7144    0.0000 H   0  0  0  0  0  0  0  0  0  0  0  0
   10.3312    1.4736    0.0000 H   0  0  0  0  0  0  0  0  0  0  0  0
    6.0010    1.9736    0.0000 H   0  0  0  0  0  0  0  0  0  0  0  0
    4.1996    0.6886    0.0000 H   0  0  0  0  0  0  0  0  0  0  0  0
    4.9966    0.6886    0.0000 H   0  0  0  0  0  0  0  0  0  0  0  0
    5.9316    0.6886    0.0000 H   0  0  0  0  0  0  0  0  0  0  0  0
    6.7287    0.6886    0.0000 H   0  0  0  0  0  0  0  0  0  0  0  0
    7.5252   -0.1464    0.0000 H   0  0  0  0  0  0  0  0  0  0  0  0
   10.3312   -0.1464    0.0000 H   0  0  0  0  0  0  0  0  0  0  0  0
    2.4675    0.6886    0.0000 H   0  0  0  0  0  0  0  0  0  0  0  0
    3.2646    0.6886    0.0000 H   0  0  0  0  0  0  0  0  0  0  0  0
    4.3426    2.5559    0.0000 H   0  0  0  0  0  0  0  0  0  0  0  0
    3.9441    3.2462    0.0000 H   0  0  0  0  0  0  0  0  0  0  0  0
    8.3913   -1.6464    0.0000 H   0  0  0  0  0  0  0  0  0  0  0  0
    4.9272    2.9736    0.0000 H   0  0  0  0  0  0  0  0  0  0  0  0
    2.3100    2.2005    0.0000 H   0  0  0  0  0  0  0  0  0  0  0  0
    1.4631    1.9736    0.0000 H   0  0  0  0  0  0  0  0  0  0  0  0
    1.6900    1.1267    0.0000 H   0  0  0  0  0  0  0  0  0  0  0  0
    3.1760    3.7005    0.0000 H   0  0  0  0  0  0  0  0  0  0  0  0
    2.3291    3.4736    0.0000 H   0  0  0  0  0  0  0  0  0  0  0  0
    2.5560    2.6267    0.0000 H   0  0  0  0  0  0  0  0  0  0  0  0
   11.2163   -4.3733    0.0000 H   0  0  0  0  0  0  0  0  0  0  0  0
   12.0632   -4.1464    0.0000 H   0  0  0  0  0  0  0  0  0  0  0  0
   11.8363   -3.2995    0.0000 H   0  0  0  0  0  0  0  0  0  0  0  0
    9.6233   -3.8924    0.0000 H   0  0  0  0  0  0  0  0  0  0  0  0
    9.8503   -4.7394    0.0000 H   0  0  0  0  0  0  0  0  0  0  0  0
   10.6972   -4.5124    0.0000 H   0  0  0  0  0  0  0  0  0  0  0  0
   11.6972   -2.7804    0.0000 H   0  0  0  0  0  0  0  0  0  0  0  0
   11.4703   -1.9334    0.0000 H   0  0  0  0  0  0  0  0  0  0  0  0
   10.6233   -2.1604    0.0000 H   0  0  0  0  0  0  0  0  0  0  0  0
  1 13  1  0  0  0  0
  1 17  1  0  0  0  0
  2 15  1  0  0  0  0
  2 51  1  0  0  0  0
  3 23  1  0  0  0  0
  3 26  1  0  0  0  0
  4 26  2  0  0  0  0
  5 10  1  0  0  0  0
  5 11  1  0  0  0  0
  5 12  1  0  0  0  0
  6 16  1  0  0  0  0
  6 21  1  0  0  0  0
  6 22  1  0  0  0  0
  7 20  1  0  0  0  0
  7 26  1  0  0  0  0
  7 50  1  0  0  0  0
  8  9  1  0  0  0  0
  8 10  1  0  0  0  0
  8 30  1  0  0  0  0
  8 31  1  0  0  0  0
  9 11  1  0  0  0  0
  9 32  1  0  0  0  0
  9 33  1  0  0  0  0
 10 34  1  0  0  0  0
 10 35  1  0  0  0  0
 11 36  1  0  0  0  0
 11 37  1  0  0  0  0
 12 13  2  0  0  0  0
 12 14  1  0  0  0  0
 13 18  1  0  0  0  0
 14 19  2  0  0  0  0
 14 38  1  0  0  0  0
 15 16  1  0  0  0  0
 15 17  1  0  0  0  0
 15 39  1  0  0  0  0
 16 40  1  0  0  0  0
 16 41  1  0  0  0  0
 17 42  1  0  0  0  0
 17 43  1  0  0  0  0
 18 20  2  0  0  0  0
 18 44  1  0  0  0  0
 19 20  1  0  0  0  0
 19 45  1  0  0  0  0
 21 24  1  0  0  0  0
 21 46  1  0  0  0  0
 21 47  1  0  0  0  0
 22 25  1  0  0  0  0
 22 48  1  0  0  0  0
 22 49  1  0  0  0  0
 23 27  1  0  0  0  0
 23 28  1  0  0  0  0
 23 29  1  0  0  0  0
 24 52  1  0  0  0  0
 24 53  1  0  0  0  0
 24 54  1  0  0  0  0
 25 55  1  0  0  0  0
 25 56  1  0  0  0  0
 25 57  1  0  0  0  0
 27 58  1  0  0  0  0
 27 59  1  0  0  0  0
 27 60  1  0  0  0  0
 28 61  1  0  0  0  0
 28 62  1  0  0  0  0
 28 63  1  0  0  0  0
 29 64  1  0  0  0  0
 29 65  1  0  0  0  0
 29 66  1  0  0  0  0
M  END
> <PUBCHEM_COMPOUND_CID>
511428
> <PUBCHEM_COMPOUND_CANONICALIZED>
1
> <PUBCHEM_CACTVS_COMPLEXITY>
487
> <PUBCHEM_CACTVS_HBOND_ACCEPTOR>
6
> <PUBCHEM_CACTVS_HBOND_DONOR>
2
> <PUBCHEM_CACTVS_ROTATABLE_BOND>
11
> <PUBCHEM_CACTVS_SUBSKEYS>
AAADcfB7OAAAAAAAAAAAAAAAAAAAAWAAAAAwAAAAAAAAAAABAAAAHgAQCAAADFzhkAYyzoPABgCIACRCWACCCAAhIgAIiAAPbIkPNiLEsZuPOCjm1Bnb6AeQUAMAAACAAgAAEAAAAQAEAAAgAAAAAAAAAA==
> <PUBCHEM_IUPAC_OPENEYE_NAME>
tert-butyl N-[3-[3-(diethylamino)-2-hydroxy-propoxy]-4-pyrrolidin-1-yl-phenyl]carbamate
> <PUBCHEM_IUPAC_CAS_NAME>
N-[3-[3-(diethylamino)-2-hydroxypropoxy]-4-(1-pyrrolidinyl)phenyl]carbamic acid tert-butyl ester
> <PUBCHEM_IUPAC_NAME_MARKUP>
<I>tert</I>-butyl <I>N</I>-[3-[3-(diethylamino)-2-hydroxypropoxy]-4-pyrrolidin-1-ylphenyl]carbamate
> <PUBCHEM_IUPAC_NAME>
tert-butyl N-[3-[3-(diethylamino)-2-hydroxypropoxy]-4-pyrrolidin-1-ylphenyl]carbamate
> <PUBCHEM_IUPAC_SYSTEMATIC_NAME>
tert-butyl N-[3-[3-(diethylamino)-2-oxidanyl-propoxy]-4-pyrrolidin-1-yl-phenyl]carbamate
> <PUBCHEM_IUPAC_TRADITIONAL_NAME>
N-[3-[3-(diethylamino)-2-hydroxy-propoxy]-4-pyrrolidino-phenyl]carbamic acid tert-butyl ester
> <PUBCHEM_IUPAC_INCHI>
InChI=1S/C22H37N3O4/c1-6-24(7-2)15-18(26)16-28-20-14-17(23-21(27)29-22(3,4)5)10-11-19(20)25-12-8-9-13-25/h10-11,14,18,26H,6-9,12-13,15-16H2,1-5H3,(H,23,27)
> <PUBCHEM_IUPAC_INCHIKEY>
SZADPGLVMQEZMY-UHFFFAOYSA-N
> <PUBCHEM_XLOGP3_AA>
3.2
> <PUBCHEM_EXACT_MASS>
407.27840667
> <PUBCHEM_MOLECULAR_FORMULA>
C22H37N3O4
> <PUBCHEM_MOLECULAR_WEIGHT>
407.5
> <PUBCHEM_OPENEYE_CAN_SMILES>
CCN(CC)CC(COC1=C(C=CC(=C1)NC(=O)OC(C)(C)C)N2CCCC2)O
> <PUBCHEM_OPENEYE_ISO_SMILES>
CCN(CC)CC(COC1=C(C=CC(=C1)NC(=O)OC(C)(C)C)N2CCCC2)O
> <PUBCHEM_CACTVS_TPSA>
74.3
> <PUBCHEM_MONOISOTOPIC_WEIGHT>
407.27840667
> <PUBCHEM_TOTAL_CHARGE>
0
> <PUBCHEM_HEAVY_ATOM_COUNT>
29
> <PUBCHEM_ATOM_DEF_STEREO_COUNT>
0
> <PUBCHEM_ATOM_UDEF_STEREO_COUNT>
1
> <PUBCHEM_BOND_DEF_STEREO_COUNT>
0
> <PUBCHEM_BOND_UDEF_STEREO_COUNT>
0
> <PUBCHEM_ISOTOPIC_ATOM_COUNT>
0
> <PUBCHEM_COMPONENT_COUNT>
1
> <PUBCHEM_CACTVS_TAUTO_COUNT>
-1
> <PUBCHEM_COORDINATE_TYPE>
1
5
255
> <PUBCHEM_BONDANNOTATIONS>
12  13  8
12  14  8
13  18  8
14  19  8
18  20  8
19  20  8
15  2  3
$$$$
