511593
  -OEChem-10302200282D
 36 38  0     1  0  0  0  0  0999 V2000
    2.0000   -0.5194    0.0000 Cl  0  0  0  0  0  0  0  0  0  0  0  0
    3.7320   -3.5194    0.0000 Cl  0  0  0  0  0  0  0  0  0  0  0  0
    5.4641    0.4806    0.0000 N   0  0  0  0  0  0  0  0  0  0  0  0
    3.7891    2.5684    0.0000 N   0  0  0  0  0  0  0  0  0  0  0  0
    6.5468   -0.7219    0.0000 N   0  0  0  0  0  0  0  0  0  0  0  0
    4.5981    0.9806    0.0000 C   0  0  3  0  0  0  0  0  0  0  0  0
    3.7320    0.4806    0.0000 C   0  0  0  0  0  0  0  0  0  0  0  0
    4.5981    1.9806    0.0000 C   0  0  0  0  0  0  0  0  0  0  0  0
    3.7320   -0.5194    0.0000 C   0  0  0  0  0  0  0  0  0  0  0  0
    5.4071    2.5684    0.0000 C   0  0  0  0  0  0  0  0  0  0  0  0
    4.0981    3.5194    0.0000 C   0  0  0  0  0  0  0  0  0  0  0  0
    6.3776    0.8873    0.0000 C   0  0  0  0  0  0  0  0  0  0  0  0
    5.0981    3.5194    0.0000 C   0  0  0  0  0  0  0  0  0  0  0  0
    5.5686   -0.5139    0.0000 C   0  0  0  0  0  0  0  0  0  0  0  0
    2.8380    2.2594    0.0000 C   0  0  0  0  0  0  0  0  0  0  0  0
    2.8660   -1.0194    0.0000 C   0  0  0  0  0  0  0  0  0  0  0  0
    4.5981   -1.0194    0.0000 C   0  0  0  0  0  0  0  0  0  0  0  0
    7.0468    0.1442    0.0000 C   0  0  0  0  0  0  0  0  0  0  0  0
    2.8660   -2.0194    0.0000 C   0  0  0  0  0  0  0  0  0  0  0  0
    4.5981   -2.0194    0.0000 C   0  0  0  0  0  0  0  0  0  0  0  0
    3.7320   -2.5194    0.0000 C   0  0  0  0  0  0  0  0  0  0  0  0
    4.5981    0.3606    0.0000 H   0  0  0  0  0  0  0  0  0  0  0  0
    3.5200    1.0632    0.0000 H   0  0  0  0  0  0  0  0  0  0  0  0
    3.1215    0.3729    0.0000 H   0  0  0  0  0  0  0  0  0  0  0  0
    5.9967    2.3768    0.0000 H   0  0  0  0  0  0  0  0  0  0  0  0
    3.7336    4.0210    0.0000 H   0  0  0  0  0  0  0  0  0  0  0  0
    6.5066    1.4938    0.0000 H   0  0  0  0  0  0  0  0  0  0  0  0
    5.4625    4.0210    0.0000 H   0  0  0  0  0  0  0  0  0  0  0  0
    5.1079   -0.9288    0.0000 H   0  0  0  0  0  0  0  0  0  0  0  0
    2.6464    2.8490    0.0000 H   0  0  0  0  0  0  0  0  0  0  0  0
    2.2484    2.0678    0.0000 H   0  0  0  0  0  0  0  0  0  0  0  0
    3.0296    1.6697    0.0000 H   0  0  0  0  0  0  0  0  0  0  0  0
    5.1350   -0.7094    0.0000 H   0  0  0  0  0  0  0  0  0  0  0  0
    7.6634    0.2090    0.0000 H   0  0  0  0  0  0  0  0  0  0  0  0
    2.3291   -2.3294    0.0000 H   0  0  0  0  0  0  0  0  0  0  0  0
    5.1350   -2.3294    0.0000 H   0  0  0  0  0  0  0  0  0  0  0  0
  1 16  1  0  0  0  0
  2 21  1  0  0  0  0
  3  6  1  0  0  0  0
  3 12  1  0  0  0  0
  3 14  1  0  0  0  0
  4  8  1  0  0  0  0
  4 11  1  0  0  0  0
  4 15  1  0  0  0  0
  5 14  2  0  0  0  0
  5 18  1  0  0  0  0
  6  7  1  0  0  0  0
  6  8  1  0  0  0  0
  6 22  1  0  0  0  0
  7  9  1  0  0  0  0
  7 23  1  0  0  0  0
  7 24  1  0  0  0  0
  8 10  2  0  0  0  0
  9 16  2  0  0  0  0
  9 17  1  0  0  0  0
 10 13  1  0  0  0  0
 10 25  1  0  0  0  0
 11 13  2  0  0  0  0
 11 26  1  0  0  0  0
 12 18  2  0  0  0  0
 12 27  1  0  0  0  0
 13 28  1  0  0  0  0
 14 29  1  0  0  0  0
 15 30  1  0  0  0  0
 15 31  1  0  0  0  0
 15 32  1  0  0  0  0
 16 19  1  0  0  0  0
 17 20  2  0  0  0  0
 17 33  1  0  0  0  0
 18 34  1  0  0  0  0
 19 21  2  0  0  0  0
 19 35  1  0  0  0  0
 20 21  1  0  0  0  0
 20 36  1  0  0  0  0
M  END
> <PUBCHEM_COMPOUND_CID>
511593
> <PUBCHEM_COMPOUND_CANONICALIZED>
1
> <PUBCHEM_CACTVS_COMPLEXITY>
342
> <PUBCHEM_CACTVS_HBOND_ACCEPTOR>
1
> <PUBCHEM_CACTVS_HBOND_DONOR>
0
> <PUBCHEM_CACTVS_ROTATABLE_BOND>
4
> <PUBCHEM_CACTVS_SUBSKEYS>
AAADccB7AAAGAAAAAAAAAAAAAAAAAWLAAAAwAAAAAAAAAAAB8AAAHAIAAAAADCrBHiQ/kJcMEACgAzRnZACCgC0xF6AJ2CA4dpiIaOLBm5GUIAhogALIyCcQgMAOBAAAAACBAAAIAAAAAQIAAAAAAAAAAA==
> <PUBCHEM_IUPAC_OPENEYE_NAME>
1-[2-(2,4-dichlorophenyl)-1-(1-methylpyrrol-2-yl)ethyl]imidazole
> <PUBCHEM_IUPAC_CAS_NAME>
1-[2-(2,4-dichlorophenyl)-1-(1-methyl-2-pyrrolyl)ethyl]imidazole
> <PUBCHEM_IUPAC_NAME_MARKUP>
1-[2-(2,4-dichlorophenyl)-1-(1-methylpyrrol-2-yl)ethyl]imidazole
> <PUBCHEM_IUPAC_NAME>
1-[2-(2,4-dichlorophenyl)-1-(1-methylpyrrol-2-yl)ethyl]imidazole
> <PUBCHEM_IUPAC_SYSTEMATIC_NAME>
1-[2-(2,4-dichlorophenyl)-1-(1-methylpyrrol-2-yl)ethyl]imidazole
> <PUBCHEM_IUPAC_TRADITIONAL_NAME>
1-[2-(2,4-dichlorophenyl)-1-(1-methylpyrrol-2-yl)ethyl]imidazole
> <PUBCHEM_IUPAC_INCHI>
InChI=1S/C16H15Cl2N3/c1-20-7-2-3-15(20)16(21-8-6-19-11-21)9-12-4-5-13(17)10-14(12)18/h2-8,10-11,16H,9H2,1H3
> <PUBCHEM_IUPAC_INCHIKEY>
VENCLCMTTDPWQV-UHFFFAOYSA-N
> <PUBCHEM_XLOGP3_AA>
3.6
> <PUBCHEM_EXACT_MASS>
319.0643029
> <PUBCHEM_MOLECULAR_FORMULA>
C16H15Cl2N3
> <PUBCHEM_MOLECULAR_WEIGHT>
320.2
> <PUBCHEM_OPENEYE_CAN_SMILES>
CN1C=CC=C1C(CC2=C(C=C(C=C2)Cl)Cl)N3C=CN=C3
> <PUBCHEM_OPENEYE_ISO_SMILES>
CN1C=CC=C1C(CC2=C(C=C(C=C2)Cl)Cl)N3C=CN=C3
> <PUBCHEM_CACTVS_TPSA>
22.8
> <PUBCHEM_MONOISOTOPIC_WEIGHT>
319.0643029
> <PUBCHEM_TOTAL_CHARGE>
0
> <PUBCHEM_HEAVY_ATOM_COUNT>
21
> <PUBCHEM_ATOM_DEF_STEREO_COUNT>
0
> <PUBCHEM_ATOM_UDEF_STEREO_COUNT>
1
> <PUBCHEM_BOND_DEF_STEREO_COUNT>
0
> <PUBCHEM_BOND_UDEF_STEREO_COUNT>
0
> <PUBCHEM_ISOTOPIC_ATOM_COUNT>
0
> <PUBCHEM_COMPONENT_COUNT>
1
> <PUBCHEM_CACTVS_TAUTO_COUNT>
-1
> <PUBCHEM_COORDINATE_TYPE>
1
5
255
> <PUBCHEM_BONDANNOTATIONS>
10  13  8
11  13  8
12  18  8
16  19  8
17  20  8
19  21  8
20  21  8
3  12  8
3  14  8
4  11  8
4  8  8
5  14  8
5  18  8
6  7  3
8  10  8
9  16  8
9  17  8
$$$$
