511536
  -OEChem-10302200282D
 88 93  0     1  0  0  0  0  0999 V2000
    5.3147    1.6664    0.0000 Br  0  0  0  0  0  0  0  0  0  0  0  0
   10.5840    1.4072    0.0000 S   0  0  0  0  0  0  0  0  0  0  0  0
    7.3372    2.6685    0.0000 O   0  0  0  0  0  0  0  0  0  0  0  0
   11.6692   -0.0857    0.0000 O   0  0  0  0  0  0  0  0  0  0  0  0
   10.1021    4.5373    0.0000 O   0  0  0  0  0  0  0  0  0  0  0  0
    5.3147   -0.3349    0.0000 O   0  0  0  0  0  0  0  0  0  0  0  0
    9.6742   -0.2364    0.0000 N   0  0  3  0  0  0  0  0  0  0  0  0
    8.6980    1.7908    0.0000 C   0  0  3  0  0  0  0  0  0  0  0  0
    8.1828    2.7130    0.0000 C   0  0  1  0  0  0  0  0  0  0  0  0
    9.6742    1.5680    0.0000 C   0  0  0  0  0  0  0  0  0  0  0  0
    9.7235    1.9165    0.0000 C   0  0  1  0  0  0  0  0  0  0  0  0
    7.9151    1.1664    0.0000 C   0  0  0  0  0  0  0  0  0  0  0  0
   10.1087    0.6658    0.0000 C   0  0  1  0  0  0  0  0  0  0  0  0
    9.8037   -1.9636    0.0000 C   0  0  0  0  0  0  0  0  0  0  0  0
    8.6426    3.6025    0.0000 C   0  0  0  0  0  0  0  0  0  0  0  0
   10.2376   -1.0626    0.0000 C   0  0  0  0  0  0  0  0  0  0  0  0
   10.1833    2.8060    0.0000 C   0  0  0  0  0  0  0  0  0  0  0  0
    7.9151    0.1651    0.0000 C   0  0  0  0  0  0  0  0  0  0  0  0
    8.6980   -0.4592    0.0000 C   0  0  0  0  0  0  0  0  0  0  0  0
    7.0480    1.6671    0.0000 C   0  0  0  0  0  0  0  0  0  0  0  0
    8.9774   -2.5269    0.0000 C   0  0  0  0  0  0  0  0  0  0  0  0
    9.8784   -2.9608    0.0000 C   0  0  0  0  0  0  0  0  0  0  0  0
    9.6429    3.6490    0.0000 C   0  0  0  0  0  0  0  0  0  0  0  0
   11.1059    0.7405    0.0000 C   0  0  0  0  0  0  0  0  0  0  0  0
    7.0480   -0.3356    0.0000 C   0  0  0  0  0  0  0  0  0  0  0  0
    6.1808    1.1664    0.0000 C   0  0  0  0  0  0  0  0  0  0  0  0
    6.1808    0.1651    0.0000 C   0  0  0  0  0  0  0  0  0  0  0  0
   11.4554    1.8978    0.0000 C   0  0  0  0  0  0  0  0  0  0  0  0
   12.3160    1.3884    0.0000 C   0  0  0  0  0  0  0  0  0  0  0  0
    3.5827   -3.3349    0.0000 C   0  0  0  0  0  0  0  0  0  0  0  0
   13.1874    1.8790    0.0000 C   0  0  0  0  0  0  0  0  0  0  0  0
    5.3147   -1.3349    0.0000 C   0  0  0  0  0  0  0  0  0  0  0  0
    4.4487   -2.8349    0.0000 C   0  0  0  0  0  0  0  0  0  0  0  0
    4.4487   -1.8349    0.0000 C   0  0  0  0  0  0  0  0  0  0  0  0
    2.6691   -2.9282    0.0000 C   0  0  0  0  0  0  0  0  0  0  0  0
    3.4782   -4.3294    0.0000 C   0  0  0  0  0  0  0  0  0  0  0  0
    2.0000   -3.6713    0.0000 C   0  0  0  0  0  0  0  0  0  0  0  0
    2.5000   -4.5373    0.0000 C   0  0  0  0  0  0  0  0  0  0  0  0
   14.0479    1.3697    0.0000 C   0  0  0  0  0  0  0  0  0  0  0  0
   13.1982    2.8790    0.0000 C   0  0  0  0  0  0  0  0  0  0  0  0
    7.7219    3.4271    0.0000 H   0  0  0  0  0  0  0  0  0  0  0  0
   10.2787    1.7059    0.0000 H   0  0  0  0  0  0  0  0  0  0  0  0
    9.6742    2.1880    0.0000 H   0  0  0  0  0  0  0  0  0  0  0  0
    9.5965    1.3096    0.0000 H   0  0  0  0  0  0  0  0  0  0  0  0
   10.4580    0.1535    0.0000 H   0  0  0  0  0  0  0  0  0  0  0  0
    9.3338   -1.5592    0.0000 H   0  0  0  0  0  0  0  0  0  0  0  0
    8.7218    4.2174    0.0000 H   0  0  0  0  0  0  0  0  0  0  0  0
    8.0508    3.7872    0.0000 H   0  0  0  0  0  0  0  0  0  0  0  0
   10.7410   -1.4246    0.0000 H   0  0  0  0  0  0  0  0  0  0  0  0
   10.6814   -0.6297    0.0000 H   0  0  0  0  0  0  0  0  0  0  0  0
   10.6763    2.4300    0.0000 H   0  0  0  0  0  0  0  0  0  0  0  0
   10.6392    3.2262    0.0000 H   0  0  0  0  0  0  0  0  0  0  0  0
    8.2133   -0.8458    0.0000 H   0  0  0  0  0  0  0  0  0  0  0  0
    8.9670   -1.0178    0.0000 H   0  0  0  0  0  0  0  0  0  0  0  0
    8.5445   -2.0831    0.0000 H   0  0  0  0  0  0  0  0  0  0  0  0
    8.6155   -3.0303    0.0000 H   0  0  0  0  0  0  0  0  0  0  0  0
    9.7105   -3.5576    0.0000 H   0  0  0  0  0  0  0  0  0  0  0  0
   10.4953   -3.0225    0.0000 H   0  0  0  0  0  0  0  0  0  0  0  0
   11.6710    0.9955    0.0000 H   0  0  0  0  0  0  0  0  0  0  0  0
   10.9529    1.3413    0.0000 H   0  0  0  0  0  0  0  0  0  0  0  0
    7.0480   -0.9556    0.0000 H   0  0  0  0  0  0  0  0  0  0  0  0
   11.8591    2.3684    0.0000 H   0  0  0  0  0  0  0  0  0  0  0  0
   11.0621    2.3770    0.0000 H   0  0  0  0  0  0  0  0  0  0  0  0
   12.2875   -0.0394    0.0000 H   0  0  0  0  0  0  0  0  0  0  0  0
   11.9124    0.9178    0.0000 H   0  0  0  0  0  0  0  0  0  0  0  0
   12.7094    0.9092    0.0000 H   0  0  0  0  0  0  0  0  0  0  0  0
    4.1026   -3.6726    0.0000 H   0  0  0  0  0  0  0  0  0  0  0  0
   13.7276    2.1832    0.0000 H   0  0  0  0  0  0  0  0  0  0  0  0
    5.5268   -1.9175    0.0000 H   0  0  0  0  0  0  0  0  0  0  0  0
    5.9253   -1.2272    0.0000 H   0  0  0  0  0  0  0  0  0  0  0  0
    4.6608   -3.4175    0.0000 H   0  0  0  0  0  0  0  0  0  0  0  0
    5.0593   -2.7272    0.0000 H   0  0  0  0  0  0  0  0  0  0  0  0
    2.9791   -2.3912    0.0000 H   0  0  0  0  0  0  0  0  0  0  0  0
    2.1675   -2.5637    0.0000 H   0  0  0  0  0  0  0  0  0  0  0  0
    3.5430   -4.9460    0.0000 H   0  0  0  0  0  0  0  0  0  0  0  0
    4.0982   -4.3294    0.0000 H   0  0  0  0  0  0  0  0  0  0  0  0
    4.2366   -1.2523    0.0000 H   0  0  0  0  0  0  0  0  0  0  0  0
    3.8381   -1.9426    0.0000 H   0  0  0  0  0  0  0  0  0  0  0  0
    1.5851   -3.2105    0.0000 H   0  0  0  0  0  0  0  0  0  0  0  0
    1.4984   -4.0357    0.0000 H   0  0  0  0  0  0  0  0  0  0  0  0
    1.9336   -4.7895    0.0000 H   0  0  0  0  0  0  0  0  0  0  0  0
    2.6916   -5.1270    0.0000 H   0  0  0  0  0  0  0  0  0  0  0  0
   13.7322    0.8361    0.0000 H   0  0  0  0  0  0  0  0  0  0  0  0
   14.5815    1.0539    0.0000 H   0  0  0  0  0  0  0  0  0  0  0  0
   14.3637    1.9032    0.0000 H   0  0  0  0  0  0  0  0  0  0  0  0
   13.8182    2.8723    0.0000 H   0  0  0  0  0  0  0  0  0  0  0  0
   13.2049    3.4989    0.0000 H   0  0  0  0  0  0  0  0  0  0  0  0
   12.5782    2.8857    0.0000 H   0  0  0  0  0  0  0  0  0  0  0  0
  1 26  1  0  0  0  0
 11  2  1  1  0  0  0
  2 28  1  0  0  0  0
  3  9  1  0  0  0  0
  3 20  1  0  0  0  0
  4 24  1  0  0  0  0
  4 64  1  0  0  0  0
  5 23  2  0  0  0  0
  6 27  1  0  0  0  0
  6 32  1  0  0  0  0
  7 13  1  0  0  0  0
  7 16  1  0  0  0  0
  7 19  1  0  0  0  0
  8  9  1  0  0  0  0
  8 10  1  0  0  0  0
  8 11  1  0  0  0  0
  8 12  1  0  0  0  0
  9 15  1  0  0  0  0
  9 41  1  1  0  0  0
 10 13  1  0  0  0  0
 10 42  1  0  0  0  0
 10 43  1  0  0  0  0
 11 17  1  0  0  0  0
 11 44  1  0  0  0  0
 12 18  1  0  0  0  0
 12 20  2  0  0  0  0
 13 24  1  1  0  0  0
 13 45  1  0  0  0  0
 14 16  1  0  0  0  0
 14 21  1  0  0  0  0
 14 22  1  0  0  0  0
 14 46  1  0  0  0  0
 15 23  1  0  0  0  0
 15 47  1  0  0  0  0
 15 48  1  0  0  0  0
 16 49  1  0  0  0  0
 16 50  1  0  0  0  0
 17 23  1  0  0  0  0
 17 51  1  0  0  0  0
 17 52  1  0  0  0  0
 18 19  1  0  0  0  0
 18 25  2  0  0  0  0
 19 53  1  0  0  0  0
 19 54  1  0  0  0  0
 20 26  1  0  0  0  0
 21 22  1  0  0  0  0
 21 55  1  0  0  0  0
 21 56  1  0  0  0  0
 22 57  1  0  0  0  0
 22 58  1  0  0  0  0
 24 59  1  0  0  0  0
 24 60  1  0  0  0  0
 25 27  1  0  0  0  0
 25 61  1  0  0  0  0
 26 27  2  0  0  0  0
 28 29  1  0  0  0  0
 28 62  1  0  0  0  0
 28 63  1  0  0  0  0
 29 31  1  0  0  0  0
 29 65  1  0  0  0  0
 29 66  1  0  0  0  0
 30 33  1  0  0  0  0
 30 35  1  0  0  0  0
 30 36  1  0  0  0  0
 30 67  1  0  0  0  0
 31 39  1  0  0  0  0
 31 40  1  0  0  0  0
 31 68  1  0  0  0  0
 32 34  1  0  0  0  0
 32 69  1  0  0  0  0
 32 70  1  0  0  0  0
 33 34  1  0  0  0  0
 33 71  1  0  0  0  0
 33 72  1  0  0  0  0
 34 77  1  0  0  0  0
 34 78  1  0  0  0  0
 35 37  1  0  0  0  0
 35 73  1  0  0  0  0
 35 74  1  0  0  0  0
 36 38  1  0  0  0  0
 36 75  1  0  0  0  0
 36 76  1  0  0  0  0
 37 38  1  0  0  0  0
 37 79  1  0  0  0  0
 37 80  1  0  0  0  0
 38 81  1  0  0  0  0
 38 82  1  0  0  0  0
 39 83  1  0  0  0  0
 39 84  1  0  0  0  0
 39 85  1  0  0  0  0
 40 86  1  0  0  0  0
 40 87  1  0  0  0  0
 40 88  1  0  0  0  0
M  END
> <PUBCHEM_COMPOUND_CID>
511536
> <PUBCHEM_COMPOUND_CANONICALIZED>
1
> <PUBCHEM_CACTVS_COMPLEXITY>
865
> <PUBCHEM_CACTVS_HBOND_ACCEPTOR>
6
> <PUBCHEM_CACTVS_HBOND_DONOR>
1
> <PUBCHEM_CACTVS_ROTATABLE_BOND>
12
> <PUBCHEM_CACTVS_SUBSKEYS>
AAADcfB+OABAEAAAAAAAAAAAGAAAAaIAAAAwYAAABYAAAEixAAAAHgRACAABrzzl2AayBoMABgiIAqBSAACCCAAgIBQAiAEODKgONzaksRuGeCjl4BW4qhe4/P/PogABGAAYBABEAAI4ADgIAAAAAAAAAA==
> <PUBCHEM_IUPAC_OPENEYE_NAME>
(3S,12R,16R)-9-bromo-8-(3-cyclopentylpropoxy)-4-(cyclopropylmethyl)-3-(hydroxymethyl)-16-isopentylsulfanyl-11-oxa-4-azatetracyclo[8.6.1.01,12.06,17]heptadeca-6,8,10(17)-trien-14-one
> <PUBCHEM_IUPAC_CAS_NAME>
(3S,12R,16R)-9-bromo-8-(3-cyclopentylpropoxy)-4-(cyclopropylmethyl)-3-(hydroxymethyl)-16-(3-methylbutylthio)-11-oxa-4-azatetracyclo[8.6.1.01,12.06,17]heptadeca-6,8,10(17)-trien-14-one
> <PUBCHEM_IUPAC_NAME_MARKUP>
(3<I>S</I>,12<I>R</I>,16<I>R</I>)-9-bromo-8-(3-cyclopentylpropoxy)-4-(cyclopropylmethyl)-3-(hydroxymethyl)-16-(3-methylbutylsulfanyl)-11-oxa-4-azatetracyclo[8.6.1.0<SUP>1,12</SUP>.0<SUP>6,17</SUP>]heptadeca-6,8,10(17)-trien-14-one
> <PUBCHEM_IUPAC_NAME>
(3S,12R,16R)-9-bromo-8-(3-cyclopentylpropoxy)-4-(cyclopropylmethyl)-3-(hydroxymethyl)-16-(3-methylbutylsulfanyl)-11-oxa-4-azatetracyclo[8.6.1.01,12.06,17]heptadeca-6,8,10(17)-trien-14-one
> <PUBCHEM_IUPAC_SYSTEMATIC_NAME>
(3S,12R,16R)-9-bromanyl-8-(3-cyclopentylpropoxy)-4-(cyclopropylmethyl)-3-(hydroxymethyl)-16-(3-methylbutylsulfanyl)-11-oxa-4-azatetracyclo[8.6.1.01,12.06,17]heptadeca-6,8,10(17)-trien-14-one
> <PUBCHEM_IUPAC_TRADITIONAL_NAME>
(3S,12R,16R)-9-bromo-8-(3-cyclopentylpropoxy)-4-(cyclopropylmethyl)-16-(isoamylthio)-3-methylol-11-oxa-4-azatetracyclo[8.6.1.01,12.06,17]heptadeca-6,8,10(17)-trien-14-one
> <PUBCHEM_IUPAC_INCHI>
InChI=1S/C33H48BrNO4S/c1-21(2)11-13-40-29-16-26(37)15-28-33(29)17-25(20-36)35(18-23-9-10-23)19-24-14-27(31(34)32(39-28)30(24)33)38-12-5-8-22-6-3-4-7-22/h14,21-23,25,28-29,36H,3-13,15-20H2,1-2H3/t25-,28+,29+,33?/m0/s1
> <PUBCHEM_IUPAC_INCHIKEY>
FENZLMKKQZMBGM-GIWFTUMESA-N
> <PUBCHEM_XLOGP3_AA>
7.3
> <PUBCHEM_EXACT_MASS>
633.24874
> <PUBCHEM_MOLECULAR_FORMULA>
C33H48BrNO4S
> <PUBCHEM_MOLECULAR_WEIGHT>
634.7
> <PUBCHEM_OPENEYE_CAN_SMILES>
CC(C)CCSC1CC(=O)CC2C13CC(N(CC4=CC(=C(C(=C34)O2)Br)OCCCC5CCCC5)CC6CC6)CO
> <PUBCHEM_OPENEYE_ISO_SMILES>
CC(C)CCS[C@@H]1CC(=O)C[C@@H]2C13C[C@H](N(CC4=CC(=C(C(=C34)O2)Br)OCCCC5CCCC5)CC6CC6)CO
> <PUBCHEM_CACTVS_TPSA>
84.3
> <PUBCHEM_MONOISOTOPIC_WEIGHT>
633.24874
> <PUBCHEM_TOTAL_CHARGE>
0
> <PUBCHEM_HEAVY_ATOM_COUNT>
40
> <PUBCHEM_ATOM_DEF_STEREO_COUNT>
3
> <PUBCHEM_ATOM_UDEF_STEREO_COUNT>
1
> <PUBCHEM_BOND_DEF_STEREO_COUNT>
0
> <PUBCHEM_BOND_UDEF_STEREO_COUNT>
0
> <PUBCHEM_ISOTOPIC_ATOM_COUNT>
0
> <PUBCHEM_COMPONENT_COUNT>
1
> <PUBCHEM_CACTVS_TAUTO_COUNT>
-1
> <PUBCHEM_COORDINATE_TYPE>
1
5
255
> <PUBCHEM_BONDANNOTATIONS>
12  18  8
12  20  8
13  24  5
18  25  8
11  2  5
20  26  8
25  27  8
26  27  8
8  10  3
9  41  5
$$$$
