511585
  -OEChem-10302200282D
 32 34  0     1  0  0  0  0  0999 V2000
    2.0000   -0.9239    0.0000 Cl  0  0  0  0  0  0  0  0  0  0  0  0
    5.6859    3.9239    0.0000 Cl  0  0  0  0  0  0  0  0  0  0  0  0
    3.7320   -3.9239    0.0000 Cl  0  0  0  0  0  0  0  0  0  0  0  0
    5.4071    2.1639    0.0000 S   0  0  0  0  0  0  0  0  0  0  0  0
    5.4641    0.0761    0.0000 N   0  0  0  0  0  0  0  0  0  0  0  0
    6.5468   -1.1264    0.0000 N   0  0  0  0  0  0  0  0  0  0  0  0
    4.5981    0.5761    0.0000 C   0  0  3  0  0  0  0  0  0  0  0  0
    3.7320    0.0761    0.0000 C   0  0  0  0  0  0  0  0  0  0  0  0
    4.5981    1.5761    0.0000 C   0  0  0  0  0  0  0  0  0  0  0  0
    3.7320   -0.9239    0.0000 C   0  0  0  0  0  0  0  0  0  0  0  0
    6.3776    0.4828    0.0000 C   0  0  0  0  0  0  0  0  0  0  0  0
    3.7891    2.1639    0.0000 C   0  0  0  0  0  0  0  0  0  0  0  0
    5.5686   -0.9185    0.0000 C   0  0  0  0  0  0  0  0  0  0  0  0
    2.8660   -1.4239    0.0000 C   0  0  0  0  0  0  0  0  0  0  0  0
    4.5981   -1.4239    0.0000 C   0  0  0  0  0  0  0  0  0  0  0  0
    4.0981    3.1149    0.0000 C   0  0  0  0  0  0  0  0  0  0  0  0
    7.0468   -0.2603    0.0000 C   0  0  0  0  0  0  0  0  0  0  0  0
    5.0981    3.1149    0.0000 C   0  0  0  0  0  0  0  0  0  0  0  0
    2.8660   -2.4239    0.0000 C   0  0  0  0  0  0  0  0  0  0  0  0
    4.5981   -2.4239    0.0000 C   0  0  0  0  0  0  0  0  0  0  0  0
    3.7320   -2.9239    0.0000 C   0  0  0  0  0  0  0  0  0  0  0  0
    4.5981   -0.0439    0.0000 H   0  0  0  0  0  0  0  0  0  0  0  0
    3.5200    0.6587    0.0000 H   0  0  0  0  0  0  0  0  0  0  0  0
    3.1215   -0.0316    0.0000 H   0  0  0  0  0  0  0  0  0  0  0  0
    6.5066    1.0893    0.0000 H   0  0  0  0  0  0  0  0  0  0  0  0
    3.1994    1.9723    0.0000 H   0  0  0  0  0  0  0  0  0  0  0  0
    5.1079   -1.3333    0.0000 H   0  0  0  0  0  0  0  0  0  0  0  0
    5.1350   -1.1139    0.0000 H   0  0  0  0  0  0  0  0  0  0  0  0
    3.7336    3.6165    0.0000 H   0  0  0  0  0  0  0  0  0  0  0  0
    7.6634   -0.1955    0.0000 H   0  0  0  0  0  0  0  0  0  0  0  0
    2.3291   -2.7339    0.0000 H   0  0  0  0  0  0  0  0  0  0  0  0
    5.1350   -2.7339    0.0000 H   0  0  0  0  0  0  0  0  0  0  0  0
  1 14  1  0  0  0  0
  2 18  1  0  0  0  0
  3 21  1  0  0  0  0
  4  9  1  0  0  0  0
  4 18  1  0  0  0  0
  5  7  1  0  0  0  0
  5 11  1  0  0  0  0
  5 13  1  0  0  0  0
  6 13  2  0  0  0  0
  6 17  1  0  0  0  0
  7  8  1  0  0  0  0
  7  9  1  0  0  0  0
  7 22  1  0  0  0  0
  8 10  1  0  0  0  0
  8 23  1  0  0  0  0
  8 24  1  0  0  0  0
  9 12  2  0  0  0  0
 10 14  2  0  0  0  0
 10 15  1  0  0  0  0
 11 17  2  0  0  0  0
 11 25  1  0  0  0  0
 12 16  1  0  0  0  0
 12 26  1  0  0  0  0
 13 27  1  0  0  0  0
 14 19  1  0  0  0  0
 15 20  2  0  0  0  0
 15 28  1  0  0  0  0
 16 18  2  0  0  0  0
 16 29  1  0  0  0  0
 17 30  1  0  0  0  0
 19 21  2  0  0  0  0
 19 31  1  0  0  0  0
 20 21  1  0  0  0  0
 20 32  1  0  0  0  0
M  END
> <PUBCHEM_COMPOUND_CID>
511585
> <PUBCHEM_COMPOUND_CANONICALIZED>
1
> <PUBCHEM_CACTVS_COMPLEXITY>
347
> <PUBCHEM_CACTVS_HBOND_ACCEPTOR>
2
> <PUBCHEM_CACTVS_HBOND_DONOR>
0
> <PUBCHEM_CACTVS_ROTATABLE_BOND>
4
> <PUBCHEM_CACTVS_SUBSKEYS>
AAADccBzAABGAAAAAAAAAAAAAAAAAWJAAAAwAAAAAAAAAAAB8AAAHAYAAAAADCrBWiQ9kZcMEAikAjBnZACDgK0xH7BJyBgYNoiIaCKhmxGUIAhogAKoiCcQgMAOBAAAAACBAAAIAAAAAQIAAAAAAAAAAA==
> <PUBCHEM_IUPAC_OPENEYE_NAME>
1-[1-(5-chloro-2-thienyl)-2-(2,4-dichlorophenyl)ethyl]imidazole
> <PUBCHEM_IUPAC_CAS_NAME>
1-[1-(5-chloro-2-thiophenyl)-2-(2,4-dichlorophenyl)ethyl]imidazole
> <PUBCHEM_IUPAC_NAME_MARKUP>
1-[1-(5-chlorothiophen-2-yl)-2-(2,4-dichlorophenyl)ethyl]imidazole
> <PUBCHEM_IUPAC_NAME>
1-[1-(5-chlorothiophen-2-yl)-2-(2,4-dichlorophenyl)ethyl]imidazole
> <PUBCHEM_IUPAC_SYSTEMATIC_NAME>
1-[1-(5-chloranylthiophen-2-yl)-2-(2,4-dichlorophenyl)ethyl]imidazole
> <PUBCHEM_IUPAC_TRADITIONAL_NAME>
1-[1-(5-chloro-2-thienyl)-2-(2,4-dichlorophenyl)ethyl]imidazole
> <PUBCHEM_IUPAC_INCHI>
InChI=1S/C15H11Cl3N2S/c16-11-2-1-10(12(17)8-11)7-13(20-6-5-19-9-20)14-3-4-15(18)21-14/h1-6,8-9,13H,7H2
> <PUBCHEM_IUPAC_INCHIKEY>
LKGFWBTVYPLWOH-UHFFFAOYSA-N
> <PUBCHEM_XLOGP3_AA>
5.5
> <PUBCHEM_EXACT_MASS>
355.970853
> <PUBCHEM_MOLECULAR_FORMULA>
C15H11Cl3N2S
> <PUBCHEM_MOLECULAR_WEIGHT>
357.7
> <PUBCHEM_OPENEYE_CAN_SMILES>
C1=CC(=C(C=C1Cl)Cl)CC(C2=CC=C(S2)Cl)N3C=CN=C3
> <PUBCHEM_OPENEYE_ISO_SMILES>
C1=CC(=C(C=C1Cl)Cl)CC(C2=CC=C(S2)Cl)N3C=CN=C3
> <PUBCHEM_CACTVS_TPSA>
46.1
> <PUBCHEM_MONOISOTOPIC_WEIGHT>
355.970853
> <PUBCHEM_TOTAL_CHARGE>
0
> <PUBCHEM_HEAVY_ATOM_COUNT>
21
> <PUBCHEM_ATOM_DEF_STEREO_COUNT>
0
> <PUBCHEM_ATOM_UDEF_STEREO_COUNT>
1
> <PUBCHEM_BOND_DEF_STEREO_COUNT>
0
> <PUBCHEM_BOND_UDEF_STEREO_COUNT>
0
> <PUBCHEM_ISOTOPIC_ATOM_COUNT>
0
> <PUBCHEM_COMPONENT_COUNT>
1
> <PUBCHEM_CACTVS_TAUTO_COUNT>
-1
> <PUBCHEM_COORDINATE_TYPE>
1
5
255
> <PUBCHEM_BONDANNOTATIONS>
10  14  8
10  15  8
11  17  8
12  16  8
14  19  8
15  20  8
16  18  8
19  21  8
20  21  8
4  18  8
4  9  8
5  11  8
5  13  8
6  13  8
6  17  8
7  8  3
9  12  8
$$$$
