511597
  -OEChem-10302200282D
 36 38  0     1  0  0  0  0  0999 V2000
    2.0000   -0.9239    0.0000 Cl  0  0  0  0  0  0  0  0  0  0  0  0
    3.7320   -3.9239    0.0000 Cl  0  0  0  0  0  0  0  0  0  0  0  0
    5.4641    0.0761    0.0000 N   0  0  0  0  0  0  0  0  0  0  0  0
    5.0981    3.1149    0.0000 N   0  0  0  0  0  0  0  0  0  0  0  0
    6.5468   -1.1264    0.0000 N   0  0  0  0  0  0  0  0  0  0  0  0
    4.5981    0.5761    0.0000 C   0  0  3  0  0  0  0  0  0  0  0  0
    3.7320    0.0761    0.0000 C   0  0  0  0  0  0  0  0  0  0  0  0
    4.5981    1.5761    0.0000 C   0  0  0  0  0  0  0  0  0  0  0  0
    3.7320   -0.9239    0.0000 C   0  0  0  0  0  0  0  0  0  0  0  0
    5.4071    2.1639    0.0000 C   0  0  0  0  0  0  0  0  0  0  0  0
    3.7891    2.1639    0.0000 C   0  0  0  0  0  0  0  0  0  0  0  0
    4.0981    3.1149    0.0000 C   0  0  0  0  0  0  0  0  0  0  0  0
    6.3776    0.4828    0.0000 C   0  0  0  0  0  0  0  0  0  0  0  0
    5.5686   -0.9185    0.0000 C   0  0  0  0  0  0  0  0  0  0  0  0
    2.8660   -1.4239    0.0000 C   0  0  0  0  0  0  0  0  0  0  0  0
    4.5981   -1.4239    0.0000 C   0  0  0  0  0  0  0  0  0  0  0  0
    5.6859    3.9239    0.0000 C   0  0  0  0  0  0  0  0  0  0  0  0
    7.0468   -0.2603    0.0000 C   0  0  0  0  0  0  0  0  0  0  0  0
    2.8660   -2.4239    0.0000 C   0  0  0  0  0  0  0  0  0  0  0  0
    4.5981   -2.4239    0.0000 C   0  0  0  0  0  0  0  0  0  0  0  0
    3.7320   -2.9239    0.0000 C   0  0  0  0  0  0  0  0  0  0  0  0
    4.5981   -0.0439    0.0000 H   0  0  0  0  0  0  0  0  0  0  0  0
    3.5200    0.6587    0.0000 H   0  0  0  0  0  0  0  0  0  0  0  0
    3.1215   -0.0316    0.0000 H   0  0  0  0  0  0  0  0  0  0  0  0
    5.9967    1.9723    0.0000 H   0  0  0  0  0  0  0  0  0  0  0  0
    3.1994    1.9723    0.0000 H   0  0  0  0  0  0  0  0  0  0  0  0
    3.7336    3.6165    0.0000 H   0  0  0  0  0  0  0  0  0  0  0  0
    6.5066    1.0893    0.0000 H   0  0  0  0  0  0  0  0  0  0  0  0
    5.1079   -1.3333    0.0000 H   0  0  0  0  0  0  0  0  0  0  0  0
    5.1350   -1.1139    0.0000 H   0  0  0  0  0  0  0  0  0  0  0  0
    6.1874    3.5595    0.0000 H   0  0  0  0  0  0  0  0  0  0  0  0
    6.0503    4.4255    0.0000 H   0  0  0  0  0  0  0  0  0  0  0  0
    5.1843    4.2884    0.0000 H   0  0  0  0  0  0  0  0  0  0  0  0
    7.6634   -0.1955    0.0000 H   0  0  0  0  0  0  0  0  0  0  0  0
    2.3291   -2.7339    0.0000 H   0  0  0  0  0  0  0  0  0  0  0  0
    5.1350   -2.7339    0.0000 H   0  0  0  0  0  0  0  0  0  0  0  0
  1 15  1  0  0  0  0
  2 21  1  0  0  0  0
  3  6  1  0  0  0  0
  3 13  1  0  0  0  0
  3 14  1  0  0  0  0
  4 10  1  0  0  0  0
  4 12  1  0  0  0  0
  4 17  1  0  0  0  0
  5 14  2  0  0  0  0
  5 18  1  0  0  0  0
  6  7  1  0  0  0  0
  6  8  1  0  0  0  0
  6 22  1  0  0  0  0
  7  9  1  0  0  0  0
  7 23  1  0  0  0  0
  7 24  1  0  0  0  0
  8 10  2  0  0  0  0
  8 11  1  0  0  0  0
  9 15  2  0  0  0  0
  9 16  1  0  0  0  0
 10 25  1  0  0  0  0
 11 12  2  0  0  0  0
 11 26  1  0  0  0  0
 12 27  1  0  0  0  0
 13 18  2  0  0  0  0
 13 28  1  0  0  0  0
 14 29  1  0  0  0  0
 15 19  1  0  0  0  0
 16 20  2  0  0  0  0
 16 30  1  0  0  0  0
 17 31  1  0  0  0  0
 17 32  1  0  0  0  0
 17 33  1  0  0  0  0
 18 34  1  0  0  0  0
 19 21  2  0  0  0  0
 19 35  1  0  0  0  0
 20 21  1  0  0  0  0
 20 36  1  0  0  0  0
M  END
> <PUBCHEM_COMPOUND_CID>
511597
> <PUBCHEM_COMPOUND_CANONICALIZED>
1
> <PUBCHEM_CACTVS_COMPLEXITY>
342
> <PUBCHEM_CACTVS_HBOND_ACCEPTOR>
1
> <PUBCHEM_CACTVS_HBOND_DONOR>
0
> <PUBCHEM_CACTVS_ROTATABLE_BOND>
4
> <PUBCHEM_CACTVS_SUBSKEYS>
AAADccB7AAAGAAAAAAAAAAAAAAAAAWLAAAAwAAAAAAAAAAAB8AAAHAIAAAAADCrBGiQ/kJcMEACgAjBnZACCgC0xF6AJ2CA4dpiIaOLB25GUIAhogALIyCcQgMAOBAAAAACBAAAIAAAAAQIAAAAAAAAAAA==
> <PUBCHEM_IUPAC_OPENEYE_NAME>
1-[2-(2,4-dichlorophenyl)-1-(1-methylpyrrol-3-yl)ethyl]imidazole
> <PUBCHEM_IUPAC_CAS_NAME>
1-[2-(2,4-dichlorophenyl)-1-(1-methyl-3-pyrrolyl)ethyl]imidazole
> <PUBCHEM_IUPAC_NAME_MARKUP>
1-[2-(2,4-dichlorophenyl)-1-(1-methylpyrrol-3-yl)ethyl]imidazole
> <PUBCHEM_IUPAC_NAME>
1-[2-(2,4-dichlorophenyl)-1-(1-methylpyrrol-3-yl)ethyl]imidazole
> <PUBCHEM_IUPAC_SYSTEMATIC_NAME>
1-[2-(2,4-dichlorophenyl)-1-(1-methylpyrrol-3-yl)ethyl]imidazole
> <PUBCHEM_IUPAC_TRADITIONAL_NAME>
1-[2-(2,4-dichlorophenyl)-1-(1-methylpyrrol-3-yl)ethyl]imidazole
> <PUBCHEM_IUPAC_INCHI>
InChI=1S/C16H15Cl2N3/c1-20-6-4-13(10-20)16(21-7-5-19-11-21)8-12-2-3-14(17)9-15(12)18/h2-7,9-11,16H,8H2,1H3
> <PUBCHEM_IUPAC_INCHIKEY>
PXXSPAHFWYRMCM-UHFFFAOYSA-N
> <PUBCHEM_XLOGP3_AA>
3.6
> <PUBCHEM_EXACT_MASS>
319.0643029
> <PUBCHEM_MOLECULAR_FORMULA>
C16H15Cl2N3
> <PUBCHEM_MOLECULAR_WEIGHT>
320.2
> <PUBCHEM_OPENEYE_CAN_SMILES>
CN1C=CC(=C1)C(CC2=C(C=C(C=C2)Cl)Cl)N3C=CN=C3
> <PUBCHEM_OPENEYE_ISO_SMILES>
CN1C=CC(=C1)C(CC2=C(C=C(C=C2)Cl)Cl)N3C=CN=C3
> <PUBCHEM_CACTVS_TPSA>
22.8
> <PUBCHEM_MONOISOTOPIC_WEIGHT>
319.0643029
> <PUBCHEM_TOTAL_CHARGE>
0
> <PUBCHEM_HEAVY_ATOM_COUNT>
21
> <PUBCHEM_ATOM_DEF_STEREO_COUNT>
0
> <PUBCHEM_ATOM_UDEF_STEREO_COUNT>
1
> <PUBCHEM_BOND_DEF_STEREO_COUNT>
0
> <PUBCHEM_BOND_UDEF_STEREO_COUNT>
0
> <PUBCHEM_ISOTOPIC_ATOM_COUNT>
0
> <PUBCHEM_COMPONENT_COUNT>
1
> <PUBCHEM_CACTVS_TAUTO_COUNT>
-1
> <PUBCHEM_COORDINATE_TYPE>
1
5
255
> <PUBCHEM_BONDANNOTATIONS>
11  12  8
13  18  8
15  19  8
16  20  8
19  21  8
20  21  8
3  13  8
3  14  8
4  10  8
4  12  8
5  14  8
5  18  8
6  7  3
8  10  8
8  11  8
9  15  8
9  16  8
$$$$
