511579
  -OEChem-10302200282D
134139  0     1  0  0  0  0  0999 V2000
    8.2417    4.8817    0.0000 O   0  0  0  0  0  0  0  0  0  0  0  0
    8.4227    3.1592    0.0000 O   0  0  0  0  0  0  0  0  0  0  0  0
    8.0160    2.2456    0.0000 O   0  0  0  0  0  0  0  0  0  0  0  0
    4.6660   -0.4749    0.0000 O   0  0  0  0  0  0  0  0  0  0  0  0
    8.6970    1.0660    0.0000 O   0  0  0  0  0  0  0  0  0  0  0  0
    9.3295   -2.4836    0.0000 O   0  0  0  0  0  0  0  0  0  0  0  0
   12.9008   -1.9882    0.0000 O   0  0  0  0  0  0  0  0  0  0  0  0
   14.2574    1.3524    0.0000 O   0  0  0  0  0  0  0  0  0  0  0  0
   13.4440    3.1795    0.0000 O   0  0  0  0  0  0  0  0  0  0  0  0
   11.8617    2.4750    0.0000 O   0  0  0  0  0  0  0  0  0  0  0  0
   17.4667   -1.5973    0.0000 O   0  0  0  0  0  0  0  0  0  0  0  0
   17.6477    0.1253    0.0000 O   0  0  0  0  0  0  0  0  0  0  0  0
   14.8452    2.1614    0.0000 O   0  0  0  0  0  0  0  0  0  0  0  0
    6.4337    2.9501    0.0000 N   0  0  0  0  0  0  0  0  0  0  0  0
    7.1147    0.3615    0.0000 N   0  0  0  0  0  0  0  0  0  0  0  0
    9.5105   -0.7611    0.0000 N   0  0  0  0  0  0  0  0  0  0  0  0
   11.4996   -0.9701    0.0000 N   0  0  0  0  0  0  0  0  0  0  0  0
    4.6660   -3.4749    0.0000 N   0  0  0  0  0  0  0  0  0  0  0  0
   14.0764   -0.3702    0.0000 N   0  0  0  0  0  0  0  0  0  0  0  0
   16.2465    1.1433    0.0000 N   0  0  0  0  0  0  0  0  0  0  0  0
    6.8404    3.8637    0.0000 C   0  0  1  0  0  0  0  0  0  0  0  0
    5.9269    4.2704    0.0000 C   0  0  3  0  0  0  0  0  0  0  0  0
    6.7359    4.8582    0.0000 C   0  0  0  0  0  0  0  0  0  0  0  0
    7.8350    3.9682    0.0000 C   0  0  0  0  0  0  0  0  0  0  0  0
    4.9324    4.1659    0.0000 C   0  0  0  0  0  0  0  0  0  0  0  0
    6.6147    1.2276    0.0000 C   0  0  3  0  0  0  0  0  0  0  0  0
    7.0215    2.1411    0.0000 C   0  0  0  0  0  0  0  0  0  0  0  0
    5.6366    1.0196    0.0000 C   0  0  0  0  0  0  0  0  0  0  0  0
    5.5321    0.0251    0.0000 C   0  0  2  0  0  0  0  0  0  0  0  0
    6.4456   -0.3816    0.0000 C   0  0  0  0  0  0  0  0  0  0  0  0
    8.1093    0.2570    0.0000 C   0  0  0  0  0  0  0  0  0  0  0  0
    4.3446    4.9749    0.0000 C   0  0  0  0  0  0  0  0  0  0  0  0
    8.5160   -0.6565    0.0000 C   0  0  2  0  0  0  0  0  0  0  0  0
    7.9282   -1.4656    0.0000 C   0  0  0  0  0  0  0  0  0  0  0  0
   11.3185   -2.6927    0.0000 C   0  0  0  0  0  0  0  0  0  0  0  0
   10.9118   -1.7792    0.0000 C   0  0  1  0  0  0  0  0  0  0  0  0
   12.3130   -2.7972    0.0000 C   0  0  0  0  0  0  0  0  0  0  0  0
   10.7307   -3.5017    0.0000 C   0  0  0  0  0  0  0  0  0  0  0  0
   12.7198   -3.7108    0.0000 C   0  0  0  0  0  0  0  0  0  0  0  0
   11.1375   -4.4153    0.0000 C   0  0  0  0  0  0  0  0  0  0  0  0
    9.9172   -1.6746    0.0000 C   0  0  0  0  0  0  0  0  0  0  0  0
   12.1320   -4.5198    0.0000 C   0  0  0  0  0  0  0  0  0  0  0  0
    8.7372   -2.0534    0.0000 C   0  0  0  0  0  0  0  0  0  0  0  0
    7.1192   -0.8778    0.0000 C   0  0  0  0  0  0  0  0  0  0  0  0
    7.3404   -2.2746    0.0000 C   0  0  0  0  0  0  0  0  0  0  0  0
    4.6660   -1.4749    0.0000 C   0  0  0  0  0  0  0  0  0  0  0  0
    3.8000   -1.9749    0.0000 C   0  0  0  0  0  0  0  0  0  0  0  0
   12.4941   -1.0747    0.0000 C   0  0  0  0  0  0  0  0  0  0  0  0
    5.5321   -1.9749    0.0000 C   0  0  0  0  0  0  0  0  0  0  0  0
   13.0819   -0.2656    0.0000 C   0  0  1  0  0  0  0  0  0  0  0  0
    3.8000   -2.9749    0.0000 C   0  0  0  0  0  0  0  0  0  0  0  0
    5.5321   -2.9749    0.0000 C   0  0  0  0  0  0  0  0  0  0  0  0
    2.9061   -1.4402    0.0000 C   0  0  0  0  0  0  0  0  0  0  0  0
   12.6751    0.6479    0.0000 C   0  0  0  0  0  0  0  0  0  0  0  0
    2.9061   -3.5095    0.0000 C   0  0  0  0  0  0  0  0  0  0  0  0
    6.3981   -3.4749    0.0000 C   0  0  0  0  0  0  0  0  0  0  0  0
    2.0000   -1.9541    0.0000 C   0  0  0  0  0  0  0  0  0  0  0  0
   13.2629    1.4569    0.0000 C   0  0  0  0  0  0  0  0  0  0  0  0
    2.0000   -2.9957    0.0000 C   0  0  0  0  0  0  0  0  0  0  0  0
   14.6642    0.4388    0.0000 C   0  0  0  0  0  0  0  0  0  0  0  0
   15.6587    0.3343    0.0000 C   0  0  2  0  0  0  0  0  0  0  0  0
    7.2641   -2.9749    0.0000 C   0  0  0  0  0  0  0  0  0  0  0  0
    6.3981   -4.4749    0.0000 C   0  0  0  0  0  0  0  0  0  0  0  0
   12.8562    2.3705    0.0000 C   0  0  0  0  0  0  0  0  0  0  0  0
   16.0654   -0.5792    0.0000 C   0  0  0  0  0  0  0  0  0  0  0  0
    8.1301   -3.4749    0.0000 C   0  0  0  0  0  0  0  0  0  0  0  0
    7.2641   -4.9749    0.0000 C   0  0  0  0  0  0  0  0  0  0  0  0
    8.1301   -4.4749    0.0000 C   0  0  0  0  0  0  0  0  0  0  0  0
   17.0600   -0.6838    0.0000 C   0  0  0  0  0  0  0  0  0  0  0  0
   15.8397    2.0569    0.0000 C   0  0  0  0  0  0  0  0  0  0  0  0
   16.4275    2.8659    0.0000 C   0  0  0  0  0  0  0  0  0  0  0  0
    5.8299    3.6580    0.0000 H   0  0  0  0  0  0  0  0  0  0  0  0
    7.3319    5.0291    0.0000 H   0  0  0  0  0  0  0  0  0  0  0  0
    6.4641    5.4154    0.0000 H   0  0  0  0  0  0  0  0  0  0  0  0
    5.8171    2.8853    0.0000 H   0  0  0  0  0  0  0  0  0  0  0  0
    4.6802    3.5995    0.0000 H   0  0  0  0  0  0  0  0  0  0  0  0
    7.2339    1.2600    0.0000 H   0  0  0  0  0  0  0  0  0  0  0  0
    5.5718    1.6362    0.0000 H   0  0  0  0  0  0  0  0  0  0  0  0
    5.0166    1.0196    0.0000 H   0  0  0  0  0  0  0  0  0  0  0  0
    5.5645   -0.5940    0.0000 H   0  0  0  0  0  0  0  0  0  0  0  0
    6.1356   -0.9186    0.0000 H   0  0  0  0  0  0  0  0  0  0  0  0
    6.9472   -0.7460    0.0000 H   0  0  0  0  0  0  0  0  0  0  0  0
    8.7682   -1.2230    0.0000 H   0  0  0  0  0  0  0  0  0  0  0  0
    4.5968    5.5413    0.0000 H   0  0  0  0  0  0  0  0  0  0  0  0
    3.7280    4.9101    0.0000 H   0  0  0  0  0  0  0  0  0  0  0  0
    8.8583    4.9465    0.0000 H   0  0  0  0  0  0  0  0  0  0  0  0
   10.7019   -2.6279    0.0000 H   0  0  0  0  0  0  0  0  0  0  0  0
   10.6596   -1.2128    0.0000 H   0  0  0  0  0  0  0  0  0  0  0  0
   12.9146   -2.6472    0.0000 H   0  0  0  0  0  0  0  0  0  0  0  0
   12.2698   -2.1787    0.0000 H   0  0  0  0  0  0  0  0  0  0  0  0
   10.3000   -3.0557    0.0000 H   0  0  0  0  0  0  0  0  0  0  0  0
   10.2167   -3.8484    0.0000 H   0  0  0  0  0  0  0  0  0  0  0  0
    9.8749   -0.2595    0.0000 H   0  0  0  0  0  0  0  0  0  0  0  0
   13.1505   -4.1568    0.0000 H   0  0  0  0  0  0  0  0  0  0  0  0
   13.2338   -3.3641    0.0000 H   0  0  0  0  0  0  0  0  0  0  0  0
   10.5359   -4.5652    0.0000 H   0  0  0  0  0  0  0  0  0  0  0  0
   11.1807   -5.0338    0.0000 H   0  0  0  0  0  0  0  0  0  0  0  0
   11.9611   -5.1158    0.0000 H   0  0  0  0  0  0  0  0  0  0  0  0
   12.6892   -4.7916    0.0000 H   0  0  0  0  0  0  0  0  0  0  0  0
    8.3728   -2.5549    0.0000 H   0  0  0  0  0  0  0  0  0  0  0  0
    9.2388   -2.4178    0.0000 H   0  0  0  0  0  0  0  0  0  0  0  0
    9.1016   -1.5518    0.0000 H   0  0  0  0  0  0  0  0  0  0  0  0
    7.4836   -0.3762    0.0000 H   0  0  0  0  0  0  0  0  0  0  0  0
    6.6176   -0.5134    0.0000 H   0  0  0  0  0  0  0  0  0  0  0  0
    6.7548   -1.3794    0.0000 H   0  0  0  0  0  0  0  0  0  0  0  0
    6.8388   -1.9102    0.0000 H   0  0  0  0  0  0  0  0  0  0  0  0
    6.9760   -2.7762    0.0000 H   0  0  0  0  0  0  0  0  0  0  0  0
    7.8420   -2.6390    0.0000 H   0  0  0  0  0  0  0  0  0  0  0  0
   11.2474   -0.4037    0.0000 H   0  0  0  0  0  0  0  0  0  0  0  0
    6.0690   -1.6649    0.0000 H   0  0  0  0  0  0  0  0  0  0  0  0
   13.3340   -0.8320    0.0000 H   0  0  0  0  0  0  0  0  0  0  0  0
    2.9132   -0.8203    0.0000 H   0  0  0  0  0  0  0  0  0  0  0  0
   12.2444    1.0939    0.0000 H   0  0  0  0  0  0  0  0  0  0  0  0
   12.1611    0.3012    0.0000 H   0  0  0  0  0  0  0  0  0  0  0  0
   14.3286   -0.9366    0.0000 H   0  0  0  0  0  0  0  0  0  0  0  0
    2.9132   -4.1295    0.0000 H   0  0  0  0  0  0  0  0  0  0  0  0
    1.4643   -1.6420    0.0000 H   0  0  0  0  0  0  0  0  0  0  0  0
   13.6936    1.0109    0.0000 H   0  0  0  0  0  0  0  0  0  0  0  0
   13.7769    1.8036    0.0000 H   0  0  0  0  0  0  0  0  0  0  0  0
    1.4643   -3.3078    0.0000 H   0  0  0  0  0  0  0  0  0  0  0  0
   16.2753    0.2695    0.0000 H   0  0  0  0  0  0  0  0  0  0  0  0
    7.2641   -2.3549    0.0000 H   0  0  0  0  0  0  0  0  0  0  0  0
    5.8612   -4.7849    0.0000 H   0  0  0  0  0  0  0  0  0  0  0  0
   15.4639   -0.7292    0.0000 H   0  0  0  0  0  0  0  0  0  0  0  0
   16.1087   -1.1977    0.0000 H   0  0  0  0  0  0  0  0  0  0  0  0
    8.6671   -3.1649    0.0000 H   0  0  0  0  0  0  0  0  0  0  0  0
    7.2641   -5.5949    0.0000 H   0  0  0  0  0  0  0  0  0  0  0  0
   16.8631    1.0785    0.0000 H   0  0  0  0  0  0  0  0  0  0  0  0
    8.6671   -4.7849    0.0000 H   0  0  0  0  0  0  0  0  0  0  0  0
   13.1918    3.7459    0.0000 H   0  0  0  0  0  0  0  0  0  0  0  0
   16.9291    2.5015    0.0000 H   0  0  0  0  0  0  0  0  0  0  0  0
   16.7920    3.3675    0.0000 H   0  0  0  0  0  0  0  0  0  0  0  0
   15.9259    3.2303    0.0000 H   0  0  0  0  0  0  0  0  0  0  0  0
   18.0833   -1.6621    0.0000 H   0  0  0  0  0  0  0  0  0  0  0  0
  1 24  1  0  0  0  0
  1 86  1  0  0  0  0
  2 24  2  0  0  0  0
  3 27  2  0  0  0  0
 29  4  1  6  0  0  0
  4 46  1  0  0  0  0
  5 31  2  0  0  0  0
  6 41  2  0  0  0  0
  7 48  2  0  0  0  0
  8 60  2  0  0  0  0
  9 64  1  0  0  0  0
  9130  1  0  0  0  0
 10 64  2  0  0  0  0
 11 69  1  0  0  0  0
 11134  1  0  0  0  0
 12 69  2  0  0  0  0
 13 70  2  0  0  0  0
 21 14  1  1  0  0  0
 14 27  1  0  0  0  0
 14 75  1  0  0  0  0
 15 26  1  0  0  0  0
 15 30  1  0  0  0  0
 15 31  1  0  0  0  0
 33 16  1  1  0  0  0
 16 41  1  0  0  0  0
 16 93  1  0  0  0  0
 36 17  1  1  0  0  0
 17 48  1  0  0  0  0
 17109  1  0  0  0  0
 18 51  1  0  0  0  0
 18 52  2  0  0  0  0
 50 19  1  1  0  0  0
 19 60  1  0  0  0  0
 19115  1  0  0  0  0
 61 20  1  1  0  0  0
 20 70  1  0  0  0  0
 20128  1  0  0  0  0
 21 22  1  0  0  0  0
 21 23  1  0  0  0  0
 21 24  1  0  0  0  0
 22 23  1  0  0  0  0
 22 25  1  0  0  0  0
 22 72  1  0  0  0  0
 23 73  1  0  0  0  0
 23 74  1  0  0  0  0
 25 32  2  0  0  0  0
 25 76  1  0  0  0  0
 26 27  1  0  0  0  0
 26 28  1  0  0  0  0
 26 77  1  0  0  0  0
 28 29  1  0  0  0  0
 28 78  1  0  0  0  0
 28 79  1  0  0  0  0
 29 30  1  0  0  0  0
 29 80  1  0  0  0  0
 30 81  1  0  0  0  0
 30 82  1  0  0  0  0
 31 33  1  0  0  0  0
 32 84  1  0  0  0  0
 32 85  1  0  0  0  0
 33 34  1  0  0  0  0
 33 83  1  0  0  0  0
 34 43  1  0  0  0  0
 34 44  1  0  0  0  0
 34 45  1  0  0  0  0
 35 36  1  0  0  0  0
 35 37  1  0  0  0  0
 35 38  1  0  0  0  0
 35 87  1  0  0  0  0
 36 41  1  0  0  0  0
 36 88  1  0  0  0  0
 37 39  1  0  0  0  0
 37 89  1  0  0  0  0
 37 90  1  0  0  0  0
 38 40  1  0  0  0  0
 38 91  1  0  0  0  0
 38 92  1  0  0  0  0
 39 42  1  0  0  0  0
 39 94  1  0  0  0  0
 39 95  1  0  0  0  0
 40 42  1  0  0  0  0
 40 96  1  0  0  0  0
 40 97  1  0  0  0  0
 42 98  1  0  0  0  0
 42 99  1  0  0  0  0
 43100  1  0  0  0  0
 43101  1  0  0  0  0
 43102  1  0  0  0  0
 44103  1  0  0  0  0
 44104  1  0  0  0  0
 44105  1  0  0  0  0
 45106  1  0  0  0  0
 45107  1  0  0  0  0
 45108  1  0  0  0  0
 46 47  1  0  0  0  0
 46 49  2  0  0  0  0
 47 51  1  0  0  0  0
 47 53  2  0  0  0  0
 48 50  1  0  0  0  0
 49 52  1  0  0  0  0
 49110  1  0  0  0  0
 50 54  1  0  0  0  0
 50111  1  0  0  0  0
 51 55  2  0  0  0  0
 52 56  1  0  0  0  0
 53 57  1  0  0  0  0
 53112  1  0  0  0  0
 54 58  1  0  0  0  0
 54113  1  0  0  0  0
 54114  1  0  0  0  0
 55 59  1  0  0  0  0
 55116  1  0  0  0  0
 56 62  2  0  0  0  0
 56 63  1  0  0  0  0
 57 59  2  0  0  0  0
 57117  1  0  0  0  0
 58 64  1  0  0  0  0
 58118  1  0  0  0  0
 58119  1  0  0  0  0
 59120  1  0  0  0  0
 60 61  1  0  0  0  0
 61 65  1  0  0  0  0
 61121  1  0  0  0  0
 62 66  1  0  0  0  0
 62122  1  0  0  0  0
 63 67  2  0  0  0  0
 63123  1  0  0  0  0
 65 69  1  0  0  0  0
 65124  1  0  0  0  0
 65125  1  0  0  0  0
 66 68  2  0  0  0  0
 66126  1  0  0  0  0
 67 68  1  0  0  0  0
 67127  1  0  0  0  0
 68129  1  0  0  0  0
 70 71  1  0  0  0  0
 71131  1  0  0  0  0
 71132  1  0  0  0  0
 71133  1  0  0  0  0
M  END
> <PUBCHEM_COMPOUND_CID>
511579
> <PUBCHEM_COMPOUND_CANONICALIZED>
1
> <PUBCHEM_CACTVS_COMPLEXITY>
2000
> <PUBCHEM_CACTVS_HBOND_ACCEPTOR>
14
> <PUBCHEM_CACTVS_HBOND_DONOR>
8
> <PUBCHEM_CACTVS_ROTATABLE_BOND>
22
> <PUBCHEM_CACTVS_SUBSKEYS>
AAADcfB/vAAAAAAAAAAAAAAAGAAAAWAAAAA8YMEAAAAAAACx9AAAHgAQCAAAD7zhngYyzvPIFgCoAyXyXACCiCAhIiAImKG+bJgOZvrEsbuXeCjm1hnY6Ae/3+KPAAAAAAACAAAAAAAAAAQAAAAAAAAAAA==
> <PUBCHEM_IUPAC_OPENEYE_NAME>
(1R)-1-[[(4R)-1-[(2S)-2-[[(2S)-2-[[(2R)-2-[[(2S)-2-acetamido-3-carboxy-propanoyl]amino]-4-carboxy-butanoyl]amino]-2-cyclohexyl-acetyl]amino]-3,3-dimethyl-butanoyl]-4-[(2-phenyl-4-quinolyl)oxy]pyrrolidine-2-carbonyl]amino]-2-vinyl-cyclopropanecarboxylic acid
> <PUBCHEM_IUPAC_CAS_NAME>
(1R)-1-[[[(4R)-1-[(2S)-2-[[(2S)-2-[[(2R)-2-[[(2S)-2-acetamido-3-carboxy-1-oxopropyl]amino]-4-carboxy-1-oxobutyl]amino]-2-cyclohexyl-1-oxoethyl]amino]-3,3-dimethyl-1-oxobutyl]-4-[(2-phenyl-4-quinolinyl)oxy]-2-pyrrolidinyl]-oxomethyl]amino]-2-ethenyl-1-cyclopropanecarboxylic acid
> <PUBCHEM_IUPAC_NAME_MARKUP>
(1<I>R</I>)-1-[[(4<I>R</I>)-1-[(2<I>S</I>)-2-[[(2<I>S</I>)-2-[[(2<I>R</I>)-2-[[(2<I>S</I>)-2-acetamido-3-carboxypropanoyl]amino]-4-carboxybutanoyl]amino]-2-cyclohexylacetyl]amino]-3,3-dimethylbutanoyl]-4-(2-phenylquinolin-4-yl)oxypyrrolidine-2-carbonyl]amino]-2-ethenylcyclopropane-1-carboxylic acid
> <PUBCHEM_IUPAC_NAME>
(1R)-1-[[(4R)-1-[(2S)-2-[[(2S)-2-[[(2R)-2-[[(2S)-2-acetamido-3-carboxypropanoyl]amino]-4-carboxybutanoyl]amino]-2-cyclohexylacetyl]amino]-3,3-dimethylbutanoyl]-4-(2-phenylquinolin-4-yl)oxypyrrolidine-2-carbonyl]amino]-2-ethenylcyclopropane-1-carboxylic acid
> <PUBCHEM_IUPAC_SYSTEMATIC_NAME>
(1R)-1-[[(4R)-1-[(2S)-2-[[(2S)-2-[[(2R)-2-[[(2S)-2-acetamido-4-oxidanyl-4-oxidanylidene-butanoyl]amino]-5-oxidanyl-5-oxidanylidene-pentanoyl]amino]-2-cyclohexyl-ethanoyl]amino]-3,3-dimethyl-butanoyl]-4-(2-phenylquinolin-4-yl)oxy-pyrrolidin-2-yl]carbonylamino]-2-ethenyl-cyclopropane-1-carboxylic acid
> <PUBCHEM_IUPAC_TRADITIONAL_NAME>
(1R)-1-[[(4R)-1-[(2S)-2-[[(2S)-2-[[(2R)-2-[[(2S)-2-acetamido-3-carboxy-propanoyl]amino]-4-carboxy-butanoyl]amino]-2-cyclohexyl-acetyl]amino]-3,3-dimethyl-butanoyl]-4-[(2-phenyl-4-quinolyl)oxy]prolyl]amino]-2-vinyl-cyclopropanecarboxylic acid
> <PUBCHEM_IUPAC_INCHI>
InChI=1S/C51H63N7O13/c1-6-31-26-51(31,49(69)70)57-46(66)38-23-32(71-39-24-36(29-15-9-7-10-16-29)53-34-20-14-13-19-33(34)39)27-58(38)48(68)43(50(3,4)5)56-47(67)42(30-17-11-8-12-18-30)55-44(64)35(21-22-40(60)61)54-45(65)37(25-41(62)63)52-28(2)59/h6-7,9-10,13-16,19-20,24,30-32,35,37-38,42-43H,1,8,11-12,17-18,21-23,25-27H2,2-5H3,(H,52,59)(H,54,65)(H,55,64)(H,56,67)(H,57,66)(H,60,61)(H,62,63)(H,69,70)/t31?,32-,35-,37+,38?,42+,43-,51-/m1/s1
> <PUBCHEM_IUPAC_INCHIKEY>
WDEUAQIKTRWOOO-PELJCUGRSA-N
> <PUBCHEM_XLOGP3_AA>
4.3
> <PUBCHEM_EXACT_MASS>
981.44838509
> <PUBCHEM_MOLECULAR_FORMULA>
C51H63N7O13
> <PUBCHEM_MOLECULAR_WEIGHT>
982.1
> <PUBCHEM_OPENEYE_CAN_SMILES>
CC(=O)NC(CC(=O)O)C(=O)NC(CCC(=O)O)C(=O)NC(C1CCCCC1)C(=O)NC(C(=O)N2CC(CC2C(=O)NC3(CC3C=C)C(=O)O)OC4=CC(=NC5=CC=CC=C54)C6=CC=CC=C6)C(C)(C)C
> <PUBCHEM_OPENEYE_ISO_SMILES>
CC(=O)N[C@@H](CC(=O)O)C(=O)N[C@H](CCC(=O)O)C(=O)N[C@@H](C1CCCCC1)C(=O)N[C@H](C(=O)N2C[C@@H](CC2C(=O)N[C@@]3(CC3C=C)C(=O)O)OC4=CC(=NC5=CC=CC=C54)C6=CC=CC=C6)C(C)(C)C
> <PUBCHEM_CACTVS_TPSA>
300
> <PUBCHEM_MONOISOTOPIC_WEIGHT>
981.44838509
> <PUBCHEM_TOTAL_CHARGE>
0
> <PUBCHEM_HEAVY_ATOM_COUNT>
71
> <PUBCHEM_ATOM_DEF_STEREO_COUNT>
6
> <PUBCHEM_ATOM_UDEF_STEREO_COUNT>
2
> <PUBCHEM_BOND_DEF_STEREO_COUNT>
0
> <PUBCHEM_BOND_UDEF_STEREO_COUNT>
0
> <PUBCHEM_ISOTOPIC_ATOM_COUNT>
0
> <PUBCHEM_COMPONENT_COUNT>
1
> <PUBCHEM_CACTVS_TAUTO_COUNT>
-1
> <PUBCHEM_COORDINATE_TYPE>
1
5
255
> <PUBCHEM_BONDANNOTATIONS>
21  14  5
33  16  5
36  17  5
18  51  8
18  52  8
50  19  5
61  20  5
22  25  3
26  27  3
29  4  6
46  47  8
46  49  8
47  51  8
47  53  8
49  52  8
51  55  8
53  57  8
55  59  8
56  62  8
56  63  8
57  59  8
62  66  8
63  67  8
66  68  8
67  68  8
$$$$
