511675
  -OEChem-10302200282D
 58 60  0     1  0  0  0  0  0999 V2000
    4.6870    0.9495    0.0000 O   0  0  0  0  0  0  0  0  0  0  0  0
    4.1111    3.4723    0.0000 O   0  0  0  0  0  0  0  0  0  0  0  0
    2.6166    0.6746    0.0000 O   0  0  0  0  0  0  0  0  0  0  0  0
    9.1448   -0.4485    0.0000 O   0  0  0  0  0  0  0  0  0  0  0  0
    5.6005   -0.6437    0.0000 O   0  0  0  0  0  0  0  0  0  0  0  0
   12.2284   -0.5097    0.0000 O   0  0  0  0  0  0  0  0  0  0  0  0
    6.4666    0.8563    0.0000 N   0  0  0  0  0  0  0  0  0  0  0  0
    7.3326   -0.6437    0.0000 N   0  0  0  0  0  0  0  0  0  0  0  0
    4.5179    2.5587    0.0000 C   0  0  1  0  0  0  0  0  0  0  0  0
    5.6005    1.3563    0.0000 C   0  0  1  0  0  0  0  0  0  0  0  0
    5.4960    2.3508    0.0000 C   0  0  0  0  0  0  0  0  0  0  0  0
    4.0179    1.6927    0.0000 C   0  0  1  0  0  0  0  0  0  0  0  0
    3.0233    1.5882    0.0000 C   0  0  0  0  0  0  0  0  0  0  0  0
    7.3326    1.3563    0.0000 C   0  0  0  0  0  0  0  0  0  0  0  0
    6.4666   -0.1437    0.0000 C   0  0  0  0  0  0  0  0  0  0  0  0
    8.1986    0.8563    0.0000 C   0  0  0  0  0  0  0  0  0  0  0  0
    8.1986   -0.1437    0.0000 C   0  0  0  0  0  0  0  0  0  0  0  0
    9.1448    1.1610    0.0000 C   0  0  0  0  0  0  0  0  0  0  0  0
    9.7284    0.3563    0.0000 C   0  0  0  0  0  0  0  0  0  0  0  0
   14.2284   -2.2418    0.0000 C   0  0  0  0  0  0  0  0  0  0  0  0
   15.2284   -2.2418    0.0000 C   0  0  0  0  0  0  0  0  0  0  0  0
   10.7284    0.3563    0.0000 C   0  0  0  0  0  0  0  0  0  0  0  0
   13.7284   -1.3758    0.0000 C   0  0  0  0  0  0  0  0  0  0  0  0
   15.7284   -3.1078    0.0000 C   0  0  0  0  0  0  0  0  0  0  0  0
   12.7284   -1.3758    0.0000 C   0  0  0  0  0  0  0  0  0  0  0  0
   11.2284   -0.5097    0.0000 C   0  0  0  0  0  0  0  0  0  0  0  0
   16.7284   -3.1078    0.0000 C   0  0  0  0  0  0  0  0  0  0  0  0
   17.2284   -3.9738    0.0000 C   0  0  0  0  0  0  0  0  0  0  0  0
    4.9080    3.0405    0.0000 H   0  0  0  0  0  0  0  0  0  0  0  0
    6.1205    1.6940    0.0000 H   0  0  0  0  0  0  0  0  0  0  0  0
    6.1160    2.3508    0.0000 H   0  0  0  0  0  0  0  0  0  0  0  0
    5.5608    2.9674    0.0000 H   0  0  0  0  0  0  0  0  0  0  0  0
    3.7957    1.1139    0.0000 H   0  0  0  0  0  0  0  0  0  0  0  0
    3.0666    2.2066    0.0000 H   0  0  0  0  0  0  0  0  0  0  0  0
    2.4218    1.7382    0.0000 H   0  0  0  0  0  0  0  0  0  0  0  0
    7.3326    1.9763    0.0000 H   0  0  0  0  0  0  0  0  0  0  0  0
    4.4756    3.9738    0.0000 H   0  0  0  0  0  0  0  0  0  0  0  0
    9.3374    1.7503    0.0000 H   0  0  0  0  0  0  0  0  0  0  0  0
    2.0000    0.6098    0.0000 H   0  0  0  0  0  0  0  0  0  0  0  0
   13.6458   -2.4538    0.0000 H   0  0  0  0  0  0  0  0  0  0  0  0
   14.3361   -2.8524    0.0000 H   0  0  0  0  0  0  0  0  0  0  0  0
   15.8111   -2.0297    0.0000 H   0  0  0  0  0  0  0  0  0  0  0  0
   15.1208   -1.6312    0.0000 H   0  0  0  0  0  0  0  0  0  0  0  0
   14.3111   -1.1637    0.0000 H   0  0  0  0  0  0  0  0  0  0  0  0
   13.6208   -0.7652    0.0000 H   0  0  0  0  0  0  0  0  0  0  0  0
   11.3111    0.5683    0.0000 H   0  0  0  0  0  0  0  0  0  0  0  0
   10.6208    0.9669    0.0000 H   0  0  0  0  0  0  0  0  0  0  0  0
   15.1458   -3.3199    0.0000 H   0  0  0  0  0  0  0  0  0  0  0  0
   15.8361   -3.7184    0.0000 H   0  0  0  0  0  0  0  0  0  0  0  0
   12.1458   -1.5878    0.0000 H   0  0  0  0  0  0  0  0  0  0  0  0
   12.8361   -1.9864    0.0000 H   0  0  0  0  0  0  0  0  0  0  0  0
   10.6458   -0.7218    0.0000 H   0  0  0  0  0  0  0  0  0  0  0  0
   11.3361   -1.1203    0.0000 H   0  0  0  0  0  0  0  0  0  0  0  0
   17.3111   -2.8958    0.0000 H   0  0  0  0  0  0  0  0  0  0  0  0
   16.6208   -2.4972    0.0000 H   0  0  0  0  0  0  0  0  0  0  0  0
   16.6915   -4.2838    0.0000 H   0  0  0  0  0  0  0  0  0  0  0  0
   17.5384   -4.5108    0.0000 H   0  0  0  0  0  0  0  0  0  0  0  0
   17.7654   -3.6638    0.0000 H   0  0  0  0  0  0  0  0  0  0  0  0
  1 10  1  0  0  0  0
  1 12  1  0  0  0  0
  9  2  1  1  0  0  0
  2 37  1  0  0  0  0
  3 13  1  0  0  0  0
  3 39  1  0  0  0  0
  4 17  1  0  0  0  0
  4 19  1  0  0  0  0
  5 15  2  0  0  0  0
  6 25  1  0  0  0  0
  6 26  1  0  0  0  0
 10  7  1  6  0  0  0
  7 14  1  0  0  0  0
  7 15  1  0  0  0  0
  8 15  1  0  0  0  0
  8 17  2  0  0  0  0
  9 11  1  0  0  0  0
  9 12  1  0  0  0  0
  9 29  1  0  0  0  0
 10 11  1  0  0  0  0
 10 30  1  0  0  0  0
 11 31  1  0  0  0  0
 11 32  1  0  0  0  0
 12 13  1  6  0  0  0
 12 33  1  0  0  0  0
 13 34  1  0  0  0  0
 13 35  1  0  0  0  0
 14 16  2  0  0  0  0
 14 36  1  0  0  0  0
 16 17  1  0  0  0  0
 16 18  1  0  0  0  0
 18 19  2  0  0  0  0
 18 38  1  0  0  0  0
 19 22  1  0  0  0  0
 20 21  1  0  0  0  0
 20 23  1  0  0  0  0
 20 40  1  0  0  0  0
 20 41  1  0  0  0  0
 21 24  1  0  0  0  0
 21 42  1  0  0  0  0
 21 43  1  0  0  0  0
 22 26  1  0  0  0  0
 22 46  1  0  0  0  0
 22 47  1  0  0  0  0
 23 25  1  0  0  0  0
 23 44  1  0  0  0  0
 23 45  1  0  0  0  0
 24 27  1  0  0  0  0
 24 48  1  0  0  0  0
 24 49  1  0  0  0  0
 25 50  1  0  0  0  0
 25 51  1  0  0  0  0
 26 52  1  0  0  0  0
 26 53  1  0  0  0  0
 27 28  1  0  0  0  0
 27 54  1  0  0  0  0
 27 55  1  0  0  0  0
 28 56  1  0  0  0  0
 28 57  1  0  0  0  0
 28 58  1  0  0  0  0
M  END
> <PUBCHEM_COMPOUND_CID>
511675
> <PUBCHEM_COMPOUND_CANONICALIZED>
1
> <PUBCHEM_CACTVS_COMPLEXITY>
645
> <PUBCHEM_CACTVS_HBOND_ACCEPTOR>
6
> <PUBCHEM_CACTVS_HBOND_DONOR>
2
> <PUBCHEM_CACTVS_ROTATABLE_BOND>
11
> <PUBCHEM_CACTVS_SUBSKEYS>
AAADceB7OAAAAAAAAAAAAAAAAAAAASIAAAAgAAAAAAAAAEAAAAAAHgAACAAADBThgAYDAAMABgCoAiBmVAAACAAgIAAACAAoABiJFAIAoQAOQAAHRgILoAOw8CIAAAAAAAAAAAAAAAAAAAAAAAAAAAAAAA==
> <PUBCHEM_IUPAC_OPENEYE_NAME>
6-(2-heptoxyethyl)-3-[(2R,4S,5R)-4-hydroxy-5-(hydroxymethyl)tetrahydrofuran-2-yl]furo[2,3-d]pyrimidin-2-one
> <PUBCHEM_IUPAC_CAS_NAME>
6-(2-heptoxyethyl)-3-[(2R,4S,5R)-4-hydroxy-5-(hydroxymethyl)-2-oxolanyl]-2-furo[2,3-d]pyrimidinone
> <PUBCHEM_IUPAC_NAME_MARKUP>
6-(2-heptoxyethyl)-3-[(2<I>R</I>,4<I>S</I>,5<I>R</I>)-4-hydroxy-5-(hydroxymethyl)oxolan-2-yl]furo[2,3-d]pyrimidin-2-one
> <PUBCHEM_IUPAC_NAME>
6-(2-heptoxyethyl)-3-[(2R,4S,5R)-4-hydroxy-5-(hydroxymethyl)oxolan-2-yl]furo[2,3-d]pyrimidin-2-one
> <PUBCHEM_IUPAC_SYSTEMATIC_NAME>
6-(2-heptoxyethyl)-3-[(2R,4S,5R)-5-(hydroxymethyl)-4-oxidanyl-oxolan-2-yl]furo[2,3-d]pyrimidin-2-one
> <PUBCHEM_IUPAC_TRADITIONAL_NAME>
6-(2-heptoxyethyl)-3-[(2R,4S,5R)-4-hydroxy-5-methylol-tetrahydrofuran-2-yl]furo[2,3-d]pyrimidin-2-one
> <PUBCHEM_IUPAC_INCHI>
InChI=1S/C20H30N2O6/c1-2-3-4-5-6-8-26-9-7-15-10-14-12-22(20(25)21-19(14)27-15)18-11-16(24)17(13-23)28-18/h10,12,16-18,23-24H,2-9,11,13H2,1H3/t16-,17+,18+/m0/s1
> <PUBCHEM_IUPAC_INCHIKEY>
XPMAZBMRSFBUEU-RCCFBDPRSA-N
> <PUBCHEM_XLOGP3_AA>
2.5
> <PUBCHEM_EXACT_MASS>
394.21038668
> <PUBCHEM_MOLECULAR_FORMULA>
C20H30N2O6
> <PUBCHEM_MOLECULAR_WEIGHT>
394.5
> <PUBCHEM_OPENEYE_CAN_SMILES>
CCCCCCCOCCC1=CC2=CN(C(=O)N=C2O1)C3CC(C(O3)CO)O
> <PUBCHEM_OPENEYE_ISO_SMILES>
CCCCCCCOCCC1=CC2=CN(C(=O)N=C2O1)[C@H]3C[C@@H]([C@H](O3)CO)O
> <PUBCHEM_CACTVS_TPSA>
101
> <PUBCHEM_MONOISOTOPIC_WEIGHT>
394.21038668
> <PUBCHEM_TOTAL_CHARGE>
0
> <PUBCHEM_HEAVY_ATOM_COUNT>
28
> <PUBCHEM_ATOM_DEF_STEREO_COUNT>
3
> <PUBCHEM_ATOM_UDEF_STEREO_COUNT>
0
> <PUBCHEM_BOND_DEF_STEREO_COUNT>
0
> <PUBCHEM_BOND_UDEF_STEREO_COUNT>
0
> <PUBCHEM_ISOTOPIC_ATOM_COUNT>
0
> <PUBCHEM_COMPONENT_COUNT>
1
> <PUBCHEM_CACTVS_TAUTO_COUNT>
-1
> <PUBCHEM_COORDINATE_TYPE>
1
5
255
> <PUBCHEM_BONDANNOTATIONS>
12  13  6
14  16  8
16  17  8
16  18  8
18  19  8
9  2  5
4  17  8
4  19  8
10  7  6
7  14  8
7  15  8
8  15  8
8  17  8
$$$$
