511659
  -OEChem-10302200282D
 82 87  0     1  0  0  0  0  0999 V2000
    6.3251   -0.2974    0.0000 O   0  0  0  0  0  0  0  0  0  0  0  0
    7.2071   -2.8389    0.0000 O   0  0  0  0  0  0  0  0  0  0  0  0
    8.9773   -1.8421    0.0000 O   0  0  0  0  0  0  0  0  0  0  0  0
    7.2192    1.2303    0.0000 O   0  0  0  0  0  0  0  0  0  0  0  0
    8.9931    0.2062    0.0000 O   0  0  0  0  0  0  0  0  0  0  0  0
    5.2163   -2.8048    0.0000 O   0  0  0  0  0  0  0  0  0  0  0  0
    6.1868   -4.5192    0.0000 O   0  0  0  0  0  0  0  0  0  0  0  0
    6.2163   -2.8048    0.0000 O   0  0  0  0  0  0  0  0  0  0  0  0
    6.7131   -7.1731    0.0000 O   0  0  0  0  0  0  0  0  0  0  0  0
    5.7194   -7.1731    0.0000 O   0  0  0  0  0  0  0  0  0  0  0  0
    5.4756    4.2236    0.0000 O   0  0  0  0  0  0  0  0  0  0  0  0
    3.7552    1.2170    0.0000 O   0  0  0  0  0  0  0  0  0  0  0  0
    9.7855   -5.4150    0.0000 O   0  0  0  0  0  0  0  0  0  0  0  0
    8.7614   -7.1889    0.0000 O   0  0  0  0  0  0  0  0  0  0  0  0
    3.6712   -7.1889    0.0000 O   0  0  0  0  0  0  0  0  0  0  0  0
    2.6470   -5.4150    0.0000 O   0  0  0  0  0  0  0  0  0  0  0  0
    2.8834    2.7136    0.0000 O   0  0  0  0  0  0  0  0  0  0  0  0
    7.2071   -1.8389    0.0000 C   0  0  3  0  0  0  0  0  0  0  0  0
    8.1171   -1.3321    0.0000 C   0  0  3  0  0  0  0  0  0  0  0  0
    6.3411   -1.3389    0.0000 C   0  0  3  0  0  0  0  0  0  0  0  0
    8.1252   -0.2905    0.0000 C   0  0  3  0  0  0  0  0  0  0  0  0
    7.2231    0.2303    0.0000 C   0  0  3  0  0  0  0  0  0  0  0  0
    5.4751   -1.8389    0.0000 C   0  0  0  0  0  0  0  0  0  0  0  0
    6.7163   -3.6709    0.0000 C   0  0  0  0  0  0  0  0  0  0  0  0
    6.3513    1.7270    0.0000 C   0  0  0  0  0  0  0  0  0  0  0  0
    7.2163   -4.5369    0.0000 C   0  0  0  0  0  0  0  0  0  0  0  0
    5.7163   -3.6709    0.0000 C   0  0  0  0  0  0  0  0  0  0  0  0
    6.7163   -5.4029    0.0000 C   0  0  0  0  0  0  0  0  0  0  0  0
    5.7163   -5.4029    0.0000 C   0  0  0  0  0  0  0  0  0  0  0  0
    5.2163   -4.5369    0.0000 C   0  0  0  0  0  0  0  0  0  0  0  0
    5.4872    1.2237    0.0000 C   0  0  0  0  0  0  0  0  0  0  0  0
    6.3474    2.7270    0.0000 C   0  0  0  0  0  0  0  0  0  0  0  0
    8.2578   -4.5208    0.0000 C   0  0  0  0  0  0  0  0  0  0  0  0
    7.2231   -6.3129    0.0000 C   0  0  0  0  0  0  0  0  0  0  0  0
    5.2094   -6.3129    0.0000 C   0  0  0  0  0  0  0  0  0  0  0  0
    5.4795    3.2236    0.0000 C   0  0  0  0  0  0  0  0  0  0  0  0
    4.6193    1.7203    0.0000 C   0  0  0  0  0  0  0  0  0  0  0  0
    4.1748   -4.5208    0.0000 C   0  0  0  0  0  0  0  0  0  0  0  0
    4.6154    2.7203    0.0000 C   0  0  0  0  0  0  0  0  0  0  0  0
    8.7855   -5.4189    0.0000 C   0  0  0  0  0  0  0  0  0  0  0  0
    8.2647   -6.3210    0.0000 C   0  0  0  0  0  0  0  0  0  0  0  0
    4.1678   -6.3210    0.0000 C   0  0  0  0  0  0  0  0  0  0  0  0
    3.6470   -5.4189    0.0000 C   0  0  0  0  0  0  0  0  0  0  0  0
    3.7475    3.2170    0.0000 C   0  0  0  0  0  0  0  0  0  0  0  0
    3.7436    4.2170    0.0000 C   0  0  0  0  0  0  0  0  0  0  0  0
    2.8757    4.7136    0.0000 C   0  0  0  0  0  0  0  0  0  0  0  0
    2.8718    5.7136    0.0000 C   0  0  0  0  0  0  0  0  0  0  0  0
    2.0038    6.2103    0.0000 C   0  0  0  0  0  0  0  0  0  0  0  0
    3.7359    6.2169    0.0000 C   0  0  0  0  0  0  0  0  0  0  0  0
    2.0000    7.2103    0.0000 C   0  0  0  0  0  0  0  0  0  0  0  0
    3.7320    7.2169    0.0000 C   0  0  0  0  0  0  0  0  0  0  0  0
    2.8641    7.7136    0.0000 C   0  0  0  0  0  0  0  0  0  0  0  0
    7.7417   -2.1530    0.0000 H   0  0  0  0  0  0  0  0  0  0  0  0
    8.1088   -1.9520    0.0000 H   0  0  0  0  0  0  0  0  0  0  0  0
    5.8018   -1.0331    0.0000 H   0  0  0  0  0  0  0  0  0  0  0  0
    8.6603   -0.6036    0.0000 H   0  0  0  0  0  0  0  0  0  0  0  0
    7.7594    0.5414    0.0000 H   0  0  0  0  0  0  0  0  0  0  0  0
    5.3146   -1.2401    0.0000 H   0  0  0  0  0  0  0  0  0  0  0  0
    4.8551   -1.8389    0.0000 H   0  0  0  0  0  0  0  0  0  0  0  0
    9.5178   -1.5383    0.0000 H   0  0  0  0  0  0  0  0  0  0  0  0
    8.9955    0.8262    0.0000 H   0  0  0  0  0  0  0  0  0  0  0  0
    5.4896    0.6037    0.0000 H   0  0  0  0  0  0  0  0  0  0  0  0
    6.8832    3.0390    0.0000 H   0  0  0  0  0  0  0  0  0  0  0  0
    8.5616   -3.9804    0.0000 H   0  0  0  0  0  0  0  0  0  0  0  0
    3.8710   -3.9804    0.0000 H   0  0  0  0  0  0  0  0  0  0  0  0
    4.3546    4.1116    0.0000 H   0  0  0  0  0  0  0  0  0  0  0  0
    3.9534    4.8004    0.0000 H   0  0  0  0  0  0  0  0  0  0  0  0
    7.0169   -7.7136    0.0000 H   0  0  0  0  0  0  0  0  0  0  0  0
    2.2647    4.8189    0.0000 H   0  0  0  0  0  0  0  0  0  0  0  0
    2.6658    4.1302    0.0000 H   0  0  0  0  0  0  0  0  0  0  0  0
    5.4156   -7.7136    0.0000 H   0  0  0  0  0  0  0  0  0  0  0  0
    6.0114    4.5357    0.0000 H   0  0  0  0  0  0  0  0  0  0  0  0
    3.7576    0.5970    0.0000 H   0  0  0  0  0  0  0  0  0  0  0  0
   10.0935   -4.8769    0.0000 H   0  0  0  0  0  0  0  0  0  0  0  0
    9.3814   -7.1913    0.0000 H   0  0  0  0  0  0  0  0  0  0  0  0
    3.0512   -7.1913    0.0000 H   0  0  0  0  0  0  0  0  0  0  0  0
    2.3391   -4.8769    0.0000 H   0  0  0  0  0  0  0  0  0  0  0  0
    1.4681    5.8982    0.0000 H   0  0  0  0  0  0  0  0  0  0  0  0
    4.2740    5.9090    0.0000 H   0  0  0  0  0  0  0  0  0  0  0  0
    1.4619    7.5182    0.0000 H   0  0  0  0  0  0  0  0  0  0  0  0
    4.2678    7.5290    0.0000 H   0  0  0  0  0  0  0  0  0  0  0  0
    2.8617    8.3336    0.0000 H   0  0  0  0  0  0  0  0  0  0  0  0
  1 20  1  0  0  0  0
  1 22  1  0  0  0  0
  2 18  1  0  0  0  0
  2 24  1  0  0  0  0
  3 19  1  0  0  0  0
  3 60  1  0  0  0  0
  4 22  1  0  0  0  0
  4 25  1  0  0  0  0
  5 21  1  0  0  0  0
  5 61  1  0  0  0  0
  6 23  1  0  0  0  0
  6 27  1  0  0  0  0
  7 24  2  0  0  0  0
  8 27  2  0  0  0  0
  9 34  1  0  0  0  0
  9 68  1  0  0  0  0
 10 35  1  0  0  0  0
 10 71  1  0  0  0  0
 11 36  1  0  0  0  0
 11 72  1  0  0  0  0
 12 37  1  0  0  0  0
 12 73  1  0  0  0  0
 13 40  1  0  0  0  0
 13 74  1  0  0  0  0
 14 41  1  0  0  0  0
 14 75  1  0  0  0  0
 15 42  1  0  0  0  0
 15 76  1  0  0  0  0
 16 43  1  0  0  0  0
 16 77  1  0  0  0  0
 17 44  2  0  0  0  0
 18 19  1  0  0  0  0
 18 20  1  0  0  0  0
 18 53  1  0  0  0  0
 19 21  1  0  0  0  0
 19 54  1  0  0  0  0
 20 23  1  0  0  0  0
 20 55  1  0  0  0  0
 21 22  1  0  0  0  0
 21 56  1  0  0  0  0
 22 57  1  0  0  0  0
 23 58  1  0  0  0  0
 23 59  1  0  0  0  0
 24 26  1  0  0  0  0
 25 31  2  0  0  0  0
 25 32  1  0  0  0  0
 26 28  1  0  0  0  0
 26 33  2  0  0  0  0
 27 30  1  0  0  0  0
 28 29  1  0  0  0  0
 28 34  2  0  0  0  0
 29 30  1  0  0  0  0
 29 35  2  0  0  0  0
 30 38  2  0  0  0  0
 31 37  1  0  0  0  0
 31 62  1  0  0  0  0
 32 36  2  0  0  0  0
 32 63  1  0  0  0  0
 33 40  1  0  0  0  0
 33 64  1  0  0  0  0
 34 41  1  0  0  0  0
 35 42  1  0  0  0  0
 36 39  1  0  0  0  0
 37 39  2  0  0  0  0
 38 43  1  0  0  0  0
 38 65  1  0  0  0  0
 39 44  1  0  0  0  0
 40 41  2  0  0  0  0
 42 43  2  0  0  0  0
 44 45  1  0  0  0  0
 45 46  1  0  0  0  0
 45 66  1  0  0  0  0
 45 67  1  0  0  0  0
 46 47  1  0  0  0  0
 46 69  1  0  0  0  0
 46 70  1  0  0  0  0
 47 48  2  0  0  0  0
 47 49  1  0  0  0  0
 48 50  1  0  0  0  0
 48 78  1  0  0  0  0
 49 51  2  0  0  0  0
 49 79  1  0  0  0  0
 50 52  2  0  0  0  0
 50 80  1  0  0  0  0
 51 52  1  0  0  0  0
 51 81  1  0  0  0  0
 52 82  1  0  0  0  0
M  END
> <PUBCHEM_COMPOUND_CID>
511659
> <PUBCHEM_COMPOUND_CANONICALIZED>
1
> <PUBCHEM_CACTVS_COMPLEXITY>
1250
> <PUBCHEM_CACTVS_HBOND_ACCEPTOR>
17
> <PUBCHEM_CACTVS_HBOND_DONOR>
10
> <PUBCHEM_CACTVS_ROTATABLE_BOND>
6
> <PUBCHEM_CACTVS_SUBSKEYS>
AAADceB8PgAAAAAAAAAAAAAAAAAAAAAAAAA0YMGCAAAAAAABVAAAGgAACAAADBSwmAMwDoAABgCIAqDSCAACCAAkIAAIiAEGiMgdNzaGNRqieWGl4BUPuYfK7PzOoAABCAAYQABAAAIQADCAAAAAAAAAAA==
> <PUBCHEM_IUPAC_OPENEYE_NAME>
13-[3,5-dihydroxy-4-(3-phenylpropanoyl)phenoxy]-3,4,5,11,12,21,22,23-octahydroxy-9,14,17-trioxatetracyclo[17.4.0.02,7.010,15]tricosa-1(23),2,4,6,19,21-hexaene-8,18-dione
> <PUBCHEM_IUPAC_CAS_NAME>
13-[3,5-dihydroxy-4-(1-oxo-3-phenylpropyl)phenoxy]-3,4,5,11,12,21,22,23-octahydroxy-9,14,17-trioxatetracyclo[17.4.0.02,7.010,15]tricosa-1(23),2,4,6,19,21-hexaene-8,18-dione
> <PUBCHEM_IUPAC_NAME_MARKUP>
13-[3,5-dihydroxy-4-(3-phenylpropanoyl)phenoxy]-3,4,5,11,12,21,22,23-octahydroxy-9,14,17-trioxatetracyclo[17.4.0.0<SUP>2,7</SUP>.0<SUP>10,15</SUP>]tricosa-1(23),2,4,6,19,21-hexaene-8,18-dione
> <PUBCHEM_IUPAC_NAME>
13-[3,5-dihydroxy-4-(3-phenylpropanoyl)phenoxy]-3,4,5,11,12,21,22,23-octahydroxy-9,14,17-trioxatetracyclo[17.4.0.02,7.010,15]tricosa-1(23),2,4,6,19,21-hexaene-8,18-dione
> <PUBCHEM_IUPAC_SYSTEMATIC_NAME>
13-[3,5-bis(oxidanyl)-4-(3-phenylpropanoyl)phenoxy]-3,4,5,11,12,21,22,23-octakis(oxidanyl)-9,14,17-trioxatetracyclo[17.4.0.02,7.010,15]tricosa-1(23),2,4,6,19,21-hexaene-8,18-dione
> <PUBCHEM_IUPAC_TRADITIONAL_NAME>
13-(4-hydrocinnamoyl-3,5-dihydroxy-phenoxy)-3,4,5,11,12,21,22,23-octahydroxy-9,14,17-trioxatetracyclo[17.4.0.02,7.010,15]tricosa-1(23),2,4,6,19,21-hexaene-8,18-quinone
> <PUBCHEM_IUPAC_INCHI>
InChI=1S/C35H30O17/c36-17(7-6-13-4-2-1-3-5-13)25-18(37)8-14(9-19(25)38)50-35-31(46)30(45)32-22(51-35)12-49-33(47)15-10-20(39)26(41)28(43)23(15)24-16(34(48)52-32)11-21(40)27(42)29(24)44/h1-5,8-11,22,30-32,35,37-46H,6-7,12H2
> <PUBCHEM_IUPAC_INCHIKEY>
UJNCWORGHSATHA-UHFFFAOYSA-N
> <PUBCHEM_XLOGP3_AA>
2.7
> <PUBCHEM_EXACT_MASS>
722.14829948
> <PUBCHEM_MOLECULAR_FORMULA>
C35H30O17
> <PUBCHEM_MOLECULAR_WEIGHT>
722.6
> <PUBCHEM_OPENEYE_CAN_SMILES>
C1C2C(C(C(C(O2)OC3=CC(=C(C(=C3)O)C(=O)CCC4=CC=CC=C4)O)O)O)OC(=O)C5=CC(=C(C(=C5C6=C(C(=C(C=C6C(=O)O1)O)O)O)O)O)O
> <PUBCHEM_OPENEYE_ISO_SMILES>
C1C2C(C(C(C(O2)OC3=CC(=C(C(=C3)O)C(=O)CCC4=CC=CC=C4)O)O)O)OC(=O)C5=CC(=C(C(=C5C6=C(C(=C(C=C6C(=O)O1)O)O)O)O)O)O
> <PUBCHEM_CACTVS_TPSA>
290
> <PUBCHEM_MONOISOTOPIC_WEIGHT>
722.14829948
> <PUBCHEM_TOTAL_CHARGE>
0
> <PUBCHEM_HEAVY_ATOM_COUNT>
52
> <PUBCHEM_ATOM_DEF_STEREO_COUNT>
0
> <PUBCHEM_ATOM_UDEF_STEREO_COUNT>
5
> <PUBCHEM_BOND_DEF_STEREO_COUNT>
0
> <PUBCHEM_BOND_UDEF_STEREO_COUNT>
0
> <PUBCHEM_ISOTOPIC_ATOM_COUNT>
0
> <PUBCHEM_COMPONENT_COUNT>
1
> <PUBCHEM_CACTVS_TAUTO_COUNT>
-1
> <PUBCHEM_COORDINATE_TYPE>
1
5
255
> <PUBCHEM_BONDANNOTATIONS>
18  2  3
20  23  3
25  31  8
25  32  8
26  28  8
26  33  8
28  34  8
29  30  8
29  35  8
19  3  3
30  38  8
31  37  8
32  36  8
33  40  8
34  41  8
35  42  8
36  39  8
37  39  8
38  43  8
22  4  3
40  41  8
42  43  8
47  48  8
47  49  8
48  50  8
49  51  8
21  5  3
50  52  8
51  52  8
$$$$
