511761
  -OEChem-10302200282D
 33 35  0     1  0  0  0  0  0999 V2000
    4.6844    3.4124    0.0000 F   0  0  0  0  0  0  0  0  0  0  0  0
    5.9405    1.1502    0.0000 O   0  0  0  0  0  0  0  0  0  0  0  0
    7.6651    2.3282    0.0000 O   0  0  0  0  0  0  0  0  0  0  0  0
    4.6783   -0.1077    0.0000 N   0  0  0  0  0  0  0  0  0  0  0  0
    4.6783   -1.7172    0.0000 N   0  0  0  0  0  0  0  0  0  0  0  0
    2.8660    0.0876    0.0000 N   0  0  0  0  0  0  0  0  0  0  0  0
    2.0000   -1.4124    0.0000 N   0  0  0  0  0  0  0  0  0  0  0  0
    2.8660   -2.9124    0.0000 N   0  0  0  0  0  0  0  0  0  0  0  0
    4.9889    0.8428    0.0000 C   0  0  1  0  0  0  0  0  0  0  0  0
    4.4026    1.6528    0.0000 C   0  0  0  0  0  0  0  0  0  0  0  0
    4.9917    2.4609    0.0000 C   0  0  3  0  0  0  0  0  0  0  0  0
    5.9422    2.1502    0.0000 C   0  0  1  0  0  0  0  0  0  0  0  0
    6.7523    2.7366    0.0000 C   0  0  0  0  0  0  0  0  0  0  0  0
    3.7320   -0.4124    0.0000 C   0  0  0  0  0  0  0  0  0  0  0  0
    5.2619   -0.9124    0.0000 C   0  0  0  0  0  0  0  0  0  0  0  0
    3.7320   -1.4124    0.0000 C   0  0  0  0  0  0  0  0  0  0  0  0
    2.8660   -1.9124    0.0000 C   0  0  0  0  0  0  0  0  0  0  0  0
    2.0000   -0.4124    0.0000 C   0  0  0  0  0  0  0  0  0  0  0  0
    2.0000   -3.4124    0.0000 C   0  0  0  0  0  0  0  0  0  0  0  0
    5.4266    0.4037    0.0000 H   0  0  0  0  0  0  0  0  0  0  0  0
    3.9425    2.0685    0.0000 H   0  0  0  0  0  0  0  0  0  0  0  0
    3.9411    1.2388    0.0000 H   0  0  0  0  0  0  0  0  0  0  0  0
    5.4309    2.8985    0.0000 H   0  0  0  0  0  0  0  0  0  0  0  0
    6.4942    1.8678    0.0000 H   0  0  0  0  0  0  0  0  0  0  0  0
    7.0999    3.2500    0.0000 H   0  0  0  0  0  0  0  0  0  0  0  0
    6.3070    3.1680    0.0000 H   0  0  0  0  0  0  0  0  0  0  0  0
    5.8819   -0.9124    0.0000 H   0  0  0  0  0  0  0  0  0  0  0  0
    8.1674    2.6918    0.0000 H   0  0  0  0  0  0  0  0  0  0  0  0
    1.4631   -0.1024    0.0000 H   0  0  0  0  0  0  0  0  0  0  0  0
    3.4030   -3.2224    0.0000 H   0  0  0  0  0  0  0  0  0  0  0  0
    1.6900   -2.8755    0.0000 H   0  0  0  0  0  0  0  0  0  0  0  0
    1.4631   -3.7224    0.0000 H   0  0  0  0  0  0  0  0  0  0  0  0
    2.3100   -3.9494    0.0000 H   0  0  0  0  0  0  0  0  0  0  0  0
  1 11  1  0  0  0  0
  2  9  1  0  0  0  0
  2 12  1  0  0  0  0
  3 13  1  0  0  0  0
  3 28  1  0  0  0  0
  9  4  1  1  0  0  0
  4 14  1  0  0  0  0
  4 15  1  0  0  0  0
  5 15  2  0  0  0  0
  5 16  1  0  0  0  0
  6 14  2  0  0  0  0
  6 18  1  0  0  0  0
  7 17  1  0  0  0  0
  7 18  2  0  0  0  0
  8 17  1  0  0  0  0
  8 19  1  0  0  0  0
  8 30  1  0  0  0  0
  9 10  1  0  0  0  0
  9 20  1  0  0  0  0
 10 11  1  0  0  0  0
 10 21  1  0  0  0  0
 10 22  1  0  0  0  0
 11 12  1  0  0  0  0
 11 23  1  0  0  0  0
 12 13  1  1  0  0  0
 12 24  1  0  0  0  0
 13 25  1  0  0  0  0
 13 26  1  0  0  0  0
 14 16  1  0  0  0  0
 15 27  1  0  0  0  0
 16 17  2  0  0  0  0
 18 29  1  0  0  0  0
 19 31  1  0  0  0  0
 19 32  1  0  0  0  0
 19 33  1  0  0  0  0
M  END
> <PUBCHEM_COMPOUND_CID>
511761
> <PUBCHEM_COMPOUND_CANONICALIZED>
1
> <PUBCHEM_CACTVS_COMPLEXITY>
324
> <PUBCHEM_CACTVS_HBOND_ACCEPTOR>
7
> <PUBCHEM_CACTVS_HBOND_DONOR>
2
> <PUBCHEM_CACTVS_ROTATABLE_BOND>
3
> <PUBCHEM_CACTVS_SUBSKEYS>
AAADccBzsQAAAAAAAAAAAAAAAAAAAWJAAAAsAAAAAAAAAFgB+AAAHwAQCAAACBzhlwYH8L/MFgCgAQZhZACAgC0REKABUKAoVBCBWAJAyEAeRAgMAALDACCwMAIAAAAAAAAAAAAAAAAAAAAAAAAAAAAAAA==
> <PUBCHEM_IUPAC_OPENEYE_NAME>
[(2R,5R)-3-fluoro-5-[6-(methylamino)purin-9-yl]tetrahydrofuran-2-yl]methanol
> <PUBCHEM_IUPAC_CAS_NAME>
[(2R,5R)-3-fluoro-5-[6-(methylamino)-9-purinyl]-2-oxolanyl]methanol
> <PUBCHEM_IUPAC_NAME_MARKUP>
[(2<I>R</I>,5<I>R</I>)-3-fluoro-5-[6-(methylamino)purin-9-yl]oxolan-2-yl]methanol
> <PUBCHEM_IUPAC_NAME>
[(2R,5R)-3-fluoro-5-[6-(methylamino)purin-9-yl]oxolan-2-yl]methanol
> <PUBCHEM_IUPAC_SYSTEMATIC_NAME>
[(2R,5R)-3-fluoranyl-5-[6-(methylamino)purin-9-yl]oxolan-2-yl]methanol
> <PUBCHEM_IUPAC_TRADITIONAL_NAME>
[(2R,5R)-3-fluoro-5-[6-(methylamino)purin-9-yl]tetrahydrofuran-2-yl]methanol
> <PUBCHEM_IUPAC_INCHI>
InChI=1S/C11H14FN5O2/c1-13-10-9-11(15-4-14-10)17(5-16-9)8-2-6(12)7(3-18)19-8/h4-8,18H,2-3H2,1H3,(H,13,14,15)/t6?,7-,8-/m1/s1
> <PUBCHEM_IUPAC_INCHIKEY>
BDZVFPDFNFDGNG-SPDVFEMOSA-N
> <PUBCHEM_XLOGP3>
0.3
> <PUBCHEM_EXACT_MASS>
267.11315287
> <PUBCHEM_MOLECULAR_FORMULA>
C11H14FN5O2
> <PUBCHEM_MOLECULAR_WEIGHT>
267.26
> <PUBCHEM_OPENEYE_CAN_SMILES>
CNC1=C2C(=NC=N1)N(C=N2)C3CC(C(O3)CO)F
> <PUBCHEM_OPENEYE_ISO_SMILES>
CNC1=C2C(=NC=N1)N(C=N2)[C@H]3CC([C@H](O3)CO)F
> <PUBCHEM_CACTVS_TPSA>
85.1
> <PUBCHEM_MONOISOTOPIC_WEIGHT>
267.11315287
> <PUBCHEM_TOTAL_CHARGE>
0
> <PUBCHEM_HEAVY_ATOM_COUNT>
19
> <PUBCHEM_ATOM_DEF_STEREO_COUNT>
2
> <PUBCHEM_ATOM_UDEF_STEREO_COUNT>
1
> <PUBCHEM_BOND_DEF_STEREO_COUNT>
0
> <PUBCHEM_BOND_UDEF_STEREO_COUNT>
0
> <PUBCHEM_ISOTOPIC_ATOM_COUNT>
0
> <PUBCHEM_COMPONENT_COUNT>
1
> <PUBCHEM_CACTVS_TAUTO_COUNT>
-1
> <PUBCHEM_COORDINATE_TYPE>
1
5
255
> <PUBCHEM_BONDANNOTATIONS>
11  1  3
12  13  5
14  16  8
16  17  8
4  14  8
4  15  8
9  4  5
5  15  8
5  16  8
6  14  8
6  18  8
7  17  8
7  18  8
$$$$
