511781
  -OEChem-10302200282D
 48 50  0     1  0  0  0  0  0999 V2000
    8.0378    0.8299    0.0000 O   0  0  0  0  0  0  0  0  0  0  0  0
    9.7698    2.8299    0.0000 O   0  0  0  0  0  0  0  0  0  0  0  0
    6.2894    3.8645    0.0000 O   0  0  0  0  0  0  0  0  0  0  0  0
    7.1611   -0.6946    0.0000 O   0  0  0  0  0  0  0  0  0  0  0  0
    2.0000   -3.7545    0.0000 O   0  0  0  0  0  0  0  0  0  0  0  0
    8.9038    1.3299    0.0000 C   0  0  0  0  0  0  0  0  0  0  0  0
    8.9038    2.3299    0.0000 C   0  0  3  0  0  0  0  0  0  0  0  0
    8.0378    2.8299    0.0000 C   0  0  0  0  0  0  0  0  0  0  0  0
    7.1717    2.3299    0.0000 C   0  0  0  0  0  0  0  0  0  0  0  0
    7.1717    1.3299    0.0000 C   0  0  0  0  0  0  0  0  0  0  0  0
    9.9038    1.3299    0.0000 C   0  0  0  0  0  0  0  0  0  0  0  0
    9.4038    0.4639    0.0000 C   0  0  0  0  0  0  0  0  0  0  0  0
    6.2778    2.8646    0.0000 C   0  0  0  0  0  0  0  0  0  0  0  0
    6.2778    0.7952    0.0000 C   0  0  0  0  0  0  0  0  0  0  0  0
    5.3717    2.3507    0.0000 C   0  0  0  0  0  0  0  0  0  0  0  0
    5.3717    1.3091    0.0000 C   0  0  0  0  0  0  0  0  0  0  0  0
    6.2894   -0.2047    0.0000 C   0  0  0  0  0  0  0  0  0  0  0  0
    5.4292   -0.7147    0.0000 C   0  0  0  0  0  0  0  0  0  0  0  0
    5.4292    4.3745    0.0000 C   0  0  0  0  0  0  0  0  0  0  0  0
    5.4407   -1.7146    0.0000 C   0  0  0  0  0  0  0  0  0  0  0  0
    4.5806   -2.2246    0.0000 C   0  0  0  0  0  0  0  0  0  0  0  0
    4.5921   -3.2245    0.0000 C   0  0  0  0  0  0  0  0  0  0  0  0
    3.7088   -1.7346    0.0000 C   0  0  0  0  0  0  0  0  0  0  0  0
    3.7319   -3.7345    0.0000 C   0  0  0  0  0  0  0  0  0  0  0  0
    2.8486   -2.2446    0.0000 C   0  0  0  0  0  0  0  0  0  0  0  0
    2.8602   -3.2445    0.0000 C   0  0  0  0  0  0  0  0  0  0  0  0
    8.9038    2.9499    0.0000 H   0  0  0  0  0  0  0  0  0  0  0  0
    8.4363    3.3048    0.0000 H   0  0  0  0  0  0  0  0  0  0  0  0
    7.6392    3.3048    0.0000 H   0  0  0  0  0  0  0  0  0  0  0  0
    9.9038    0.7099    0.0000 H   0  0  0  0  0  0  0  0  0  0  0  0
   10.5238    1.3299    0.0000 H   0  0  0  0  0  0  0  0  0  0  0  0
    9.9038    1.9499    0.0000 H   0  0  0  0  0  0  0  0  0  0  0  0
    8.8669    0.1539    0.0000 H   0  0  0  0  0  0  0  0  0  0  0  0
    9.7138   -0.0731    0.0000 H   0  0  0  0  0  0  0  0  0  0  0  0
    9.9407    0.7739    0.0000 H   0  0  0  0  0  0  0  0  0  0  0  0
    9.7698    3.4499    0.0000 H   0  0  0  0  0  0  0  0  0  0  0  0
    4.8360    2.6628    0.0000 H   0  0  0  0  0  0  0  0  0  0  0  0
    4.8360    0.9970    0.0000 H   0  0  0  0  0  0  0  0  0  0  0  0
    4.8887   -0.4109    0.0000 H   0  0  0  0  0  0  0  0  0  0  0  0
    5.7454    4.9078    0.0000 H   0  0  0  0  0  0  0  0  0  0  0  0
    4.8959    4.6907    0.0000 H   0  0  0  0  0  0  0  0  0  0  0  0
    5.1130    3.8412    0.0000 H   0  0  0  0  0  0  0  0  0  0  0  0
    5.9812   -2.0184    0.0000 H   0  0  0  0  0  0  0  0  0  0  0  0
    5.1326   -3.5283    0.0000 H   0  0  0  0  0  0  0  0  0  0  0  0
    3.7016   -1.1147    0.0000 H   0  0  0  0  0  0  0  0  0  0  0  0
    3.7391   -4.3544    0.0000 H   0  0  0  0  0  0  0  0  0  0  0  0
    2.3081   -1.9408    0.0000 H   0  0  0  0  0  0  0  0  0  0  0  0
    2.0072   -4.3745    0.0000 H   0  0  0  0  0  0  0  0  0  0  0  0
  1  6  1  0  0  0  0
  1 10  1  0  0  0  0
  2  7  1  0  0  0  0
  2 36  1  0  0  0  0
  3 13  1  0  0  0  0
  3 19  1  0  0  0  0
  4 17  2  0  0  0  0
  5 26  1  0  0  0  0
  5 48  1  0  0  0  0
  6  7  1  0  0  0  0
  6 11  1  0  0  0  0
  6 12  1  0  0  0  0
  7  8  1  0  0  0  0
  7 27  1  0  0  0  0
  8  9  1  0  0  0  0
  8 28  1  0  0  0  0
  8 29  1  0  0  0  0
  9 10  1  0  0  0  0
  9 13  2  0  0  0  0
 10 14  2  0  0  0  0
 11 30  1  0  0  0  0
 11 31  1  0  0  0  0
 11 32  1  0  0  0  0
 12 33  1  0  0  0  0
 12 34  1  0  0  0  0
 12 35  1  0  0  0  0
 13 15  1  0  0  0  0
 14 16  1  0  0  0  0
 14 17  1  0  0  0  0
 15 16  2  0  0  0  0
 15 37  1  0  0  0  0
 16 38  1  0  0  0  0
 17 18  1  0  0  0  0
 18 20  2  3  0  0  0
 18 39  1  0  0  0  0
 19 40  1  0  0  0  0
 19 41  1  0  0  0  0
 19 42  1  0  0  0  0
 20 21  1  0  0  0  0
 20 43  1  0  0  0  0
 21 22  2  0  0  0  0
 21 23  1  0  0  0  0
 22 24  1  0  0  0  0
 22 44  1  0  0  0  0
 23 25  2  0  0  0  0
 23 45  1  0  0  0  0
 24 26  2  0  0  0  0
 24 46  1  0  0  0  0
 25 26  1  0  0  0  0
 25 47  1  0  0  0  0
M  END
> <PUBCHEM_COMPOUND_CID>
511781
> <PUBCHEM_COMPOUND_CANONICALIZED>
1
> <PUBCHEM_CACTVS_COMPLEXITY>
521
> <PUBCHEM_CACTVS_HBOND_ACCEPTOR>
5
> <PUBCHEM_CACTVS_HBOND_DONOR>
2
> <PUBCHEM_CACTVS_ROTATABLE_BOND>
4
> <PUBCHEM_CACTVS_SUBSKEYS>
AAADceB4OAAAAAAAAAAAAAAAAAAAAAAAAAA0YIAAAAAAAACRQAAAGgAACAAADFSgmAIyBoAABgCIAqBSAAACCAAkIAAIiAEGCMgNNzaGNRqCeWCl4BULuYfI7PzOIAACCAAIAABAAAQQABAAAAAAAAAAAA==
> <PUBCHEM_IUPAC_OPENEYE_NAME>
1-(3-hydroxy-5-methoxy-2,2-dimethyl-chroman-8-yl)-3-(4-hydroxyphenyl)prop-2-en-1-one
> <PUBCHEM_IUPAC_CAS_NAME>
1-(3-hydroxy-5-methoxy-2,2-dimethyl-3,4-dihydro-2H-1-benzopyran-8-yl)-3-(4-hydroxyphenyl)-2-propen-1-one
> <PUBCHEM_IUPAC_NAME_MARKUP>
1-(3-hydroxy-5-methoxy-2,2-dimethyl-3,4-dihydrochromen-8-yl)-3-(4-hydroxyphenyl)prop-2-en-1-one
> <PUBCHEM_IUPAC_NAME>
1-(3-hydroxy-5-methoxy-2,2-dimethyl-3,4-dihydrochromen-8-yl)-3-(4-hydroxyphenyl)prop-2-en-1-one
> <PUBCHEM_IUPAC_SYSTEMATIC_NAME>
3-(4-hydroxyphenyl)-1-(5-methoxy-2,2-dimethyl-3-oxidanyl-3,4-dihydrochromen-8-yl)prop-2-en-1-one
> <PUBCHEM_IUPAC_TRADITIONAL_NAME>
1-(3-hydroxy-5-methoxy-2,2-dimethyl-chroman-8-yl)-3-(4-hydroxyphenyl)prop-2-en-1-one
> <PUBCHEM_IUPAC_INCHI>
InChI=1S/C21H22O5/c1-21(2)19(24)12-16-18(25-3)11-9-15(20(16)26-21)17(23)10-6-13-4-7-14(22)8-5-13/h4-11,19,22,24H,12H2,1-3H3
> <PUBCHEM_IUPAC_INCHIKEY>
BLZMHRPUJFCGIJ-UHFFFAOYSA-N
> <PUBCHEM_XLOGP3_AA>
3.3
> <PUBCHEM_EXACT_MASS>
354.14672380
> <PUBCHEM_MOLECULAR_FORMULA>
C21H22O5
> <PUBCHEM_MOLECULAR_WEIGHT>
354.4
> <PUBCHEM_OPENEYE_CAN_SMILES>
CC1(C(CC2=C(C=CC(=C2O1)C(=O)C=CC3=CC=C(C=C3)O)OC)O)C
> <PUBCHEM_OPENEYE_ISO_SMILES>
CC1(C(CC2=C(C=CC(=C2O1)C(=O)C=CC3=CC=C(C=C3)O)OC)O)C
> <PUBCHEM_CACTVS_TPSA>
76
> <PUBCHEM_MONOISOTOPIC_WEIGHT>
354.14672380
> <PUBCHEM_TOTAL_CHARGE>
0
> <PUBCHEM_HEAVY_ATOM_COUNT>
26
> <PUBCHEM_ATOM_DEF_STEREO_COUNT>
0
> <PUBCHEM_ATOM_UDEF_STEREO_COUNT>
1
> <PUBCHEM_BOND_DEF_STEREO_COUNT>
0
> <PUBCHEM_BOND_UDEF_STEREO_COUNT>
1
> <PUBCHEM_ISOTOPIC_ATOM_COUNT>
0
> <PUBCHEM_COMPONENT_COUNT>
1
> <PUBCHEM_CACTVS_TAUTO_COUNT>
-1
> <PUBCHEM_COORDINATE_TYPE>
1
5
255
> <PUBCHEM_BONDANNOTATIONS>
10  14  8
13  15  8
14  16  8
15  16  8
18  20  1
7  2  3
21  22  8
21  23  8
22  24  8
23  25  8
24  26  8
25  26  8
9  10  8
9  13  8
$$$$
