511784
  -OEChem-10302200282D
 45 47  0     1  0  0  0  0  0999 V2000
    7.2342   -2.1249    0.0000 O   0  0  0  0  0  0  0  0  0  0  0  0
    5.4641   -0.0661    0.0000 O   0  0  0  0  0  0  0  0  0  0  0  0
    7.2458    0.9443    0.0000 O   0  0  0  0  0  0  0  0  0  0  0  0
    8.9781    0.9513    0.0000 O   0  0  0  0  0  0  0  0  0  0  0  0
    4.5923   -1.5628    0.0000 O   0  0  0  0  0  0  0  0  0  0  0  0
    9.8723    2.4790    0.0000 O   0  0  0  0  0  0  0  0  0  0  0  0
    6.3282   -1.6111    0.0000 C   0  0  0  0  0  0  0  0  0  0  0  0
    6.3282   -0.5694    0.0000 C   0  0  3  0  0  0  0  0  0  0  0  0
    7.2342   -0.0556    0.0000 C   0  0  3  0  0  0  0  0  0  0  0  0
    8.1282   -0.5902    0.0000 C   0  0  0  0  0  0  0  0  0  0  0  0
    8.1282   -1.5902    0.0000 C   0  0  0  0  0  0  0  0  0  0  0  0
    5.8315   -2.4790    0.0000 C   0  0  0  0  0  0  0  0  0  0  0  0
    5.3282   -1.6149    0.0000 C   0  0  0  0  0  0  0  0  0  0  0  0
    8.9942   -0.0902    0.0000 C   0  0  0  0  0  0  0  0  0  0  0  0
    8.9942   -2.0902    0.0000 C   0  0  0  0  0  0  0  0  0  0  0  0
    9.8602   -0.5902    0.0000 C   0  0  0  0  0  0  0  0  0  0  0  0
    9.8602   -1.5902    0.0000 C   0  0  0  0  0  0  0  0  0  0  0  0
    4.5961   -0.5628    0.0000 C   0  0  0  0  0  0  0  0  0  0  0  0
   10.7702   -0.0834    0.0000 C   0  0  0  0  0  0  0  0  0  0  0  0
    9.8762    1.4790    0.0000 C   0  0  0  0  0  0  0  0  0  0  0  0
   10.7783    0.9582    0.0000 C   0  0  0  0  0  0  0  0  0  0  0  0
    3.7320   -0.0594    0.0000 C   0  0  0  0  0  0  0  0  0  0  0  0
    2.8641   -0.5561    0.0000 C   0  0  0  0  0  0  0  0  0  0  0  0
    2.0000   -0.0527    0.0000 C   0  0  0  0  0  0  0  0  0  0  0  0
    2.8602   -1.5561    0.0000 C   0  0  0  0  0  0  0  0  0  0  0  0
    5.7906   -0.8784    0.0000 H   0  0  0  0  0  0  0  0  0  0  0  0
    6.7003    0.2596    0.0000 H   0  0  0  0  0  0  0  0  0  0  0  0
    5.2934   -2.1711    0.0000 H   0  0  0  0  0  0  0  0  0  0  0  0
    5.5236   -3.0171    0.0000 H   0  0  0  0  0  0  0  0  0  0  0  0
    6.3696   -2.7869    0.0000 H   0  0  0  0  0  0  0  0  0  0  0  0
    5.3258   -0.9949    0.0000 H   0  0  0  0  0  0  0  0  0  0  0  0
    4.7082   -1.6173    0.0000 H   0  0  0  0  0  0  0  0  0  0  0  0
    5.3306   -2.2349    0.0000 H   0  0  0  0  0  0  0  0  0  0  0  0
    8.9942   -2.7102    0.0000 H   0  0  0  0  0  0  0  0  0  0  0  0
    6.7125    1.2605    0.0000 H   0  0  0  0  0  0  0  0  0  0  0  0
   10.3972   -1.9002    0.0000 H   0  0  0  0  0  0  0  0  0  0  0  0
   11.3035   -0.3996    0.0000 H   0  0  0  0  0  0  0  0  0  0  0  0
   11.3164    1.2661    0.0000 H   0  0  0  0  0  0  0  0  0  0  0  0
    3.7344    0.5606    0.0000 H   0  0  0  0  0  0  0  0  0  0  0  0
    2.3121    0.4830    0.0000 H   0  0  0  0  0  0  0  0  0  0  0  0
    1.4643    0.2593    0.0000 H   0  0  0  0  0  0  0  0  0  0  0  0
    1.6879   -0.5885    0.0000 H   0  0  0  0  0  0  0  0  0  0  0  0
    2.2402   -1.5537    0.0000 H   0  0  0  0  0  0  0  0  0  0  0  0
    2.8578   -2.1761    0.0000 H   0  0  0  0  0  0  0  0  0  0  0  0
    3.4802   -1.5585    0.0000 H   0  0  0  0  0  0  0  0  0  0  0  0
  1  7  1  0  0  0  0
  1 11  1  0  0  0  0
  2  8  1  0  0  0  0
  2 18  1  0  0  0  0
  3  9  1  0  0  0  0
  3 35  1  0  0  0  0
  4 14  1  0  0  0  0
  4 20  1  0  0  0  0
  5 18  2  0  0  0  0
  6 20  2  0  0  0  0
  7  8  1  0  0  0  0
  7 12  1  0  0  0  0
  7 13  1  0  0  0  0
  8  9  1  0  0  0  0
  8 26  1  0  0  0  0
  9 10  1  0  0  0  0
  9 27  1  0  0  0  0
 10 11  2  0  0  0  0
 10 14  1  0  0  0  0
 11 15  1  0  0  0  0
 12 28  1  0  0  0  0
 12 29  1  0  0  0  0
 12 30  1  0  0  0  0
 13 31  1  0  0  0  0
 13 32  1  0  0  0  0
 13 33  1  0  0  0  0
 14 16  2  0  0  0  0
 15 17  2  0  0  0  0
 15 34  1  0  0  0  0
 16 17  1  0  0  0  0
 16 19  1  0  0  0  0
 17 36  1  0  0  0  0
 18 22  1  0  0  0  0
 19 21  2  0  0  0  0
 19 37  1  0  0  0  0
 20 21  1  0  0  0  0
 21 38  1  0  0  0  0
 22 23  2  0  0  0  0
 22 39  1  0  0  0  0
 23 24  1  0  0  0  0
 23 25  1  0  0  0  0
 24 40  1  0  0  0  0
 24 41  1  0  0  0  0
 24 42  1  0  0  0  0
 25 43  1  0  0  0  0
 25 44  1  0  0  0  0
 25 45  1  0  0  0  0
M  END
> <PUBCHEM_COMPOUND_CID>
511784
> <PUBCHEM_COMPOUND_CANONICALIZED>
1
> <PUBCHEM_CACTVS_COMPLEXITY>
615
> <PUBCHEM_CACTVS_HBOND_ACCEPTOR>
6
> <PUBCHEM_CACTVS_HBOND_DONOR>
1
> <PUBCHEM_CACTVS_ROTATABLE_BOND>
3
> <PUBCHEM_CACTVS_SUBSKEYS>
AAADceB4OAAAAAAAAAAAAAAAAAAAAAAAAAA0QIAAAAAAAACRAAAAGgAACAAADFSgmAIyDoAABgCIAiDSCAACCAAgIAAIiAAGCMgNNyKEMRqCeiClwBULuYfA4PwOIAACCAAIAABAAAQQABAAAAAAAAAAAA==
> <PUBCHEM_IUPAC_OPENEYE_NAME>
(10-hydroxy-8,8-dimethyl-2-oxo-9,10-dihydropyrano[2,3-f]chromen-9-yl) 3-methylbut-2-enoate
> <PUBCHEM_IUPAC_CAS_NAME>
3-methyl-2-butenoic acid (10-hydroxy-8,8-dimethyl-2-oxo-9,10-dihydropyrano[2,3-f][1]benzopyran-9-yl) ester
> <PUBCHEM_IUPAC_NAME_MARKUP>
(10-hydroxy-8,8-dimethyl-2-oxo-9,10-dihydropyrano[2,3-f]chromen-9-yl) 3-methylbut-2-enoate
> <PUBCHEM_IUPAC_NAME>
(10-hydroxy-8,8-dimethyl-2-oxo-9,10-dihydropyrano[2,3-f]chromen-9-yl) 3-methylbut-2-enoate
> <PUBCHEM_IUPAC_SYSTEMATIC_NAME>
(8,8-dimethyl-10-oxidanyl-2-oxidanylidene-9,10-dihydropyrano[2,3-f]chromen-9-yl) 3-methylbut-2-enoate
> <PUBCHEM_IUPAC_TRADITIONAL_NAME>
3-methylbut-2-enoic acid (10-hydroxy-2-keto-8,8-dimethyl-9,10-dihydropyrano[2,3-f]chromen-9-yl) ester
> <PUBCHEM_IUPAC_INCHI>
InChI=1S/C19H20O6/c1-10(2)9-14(21)24-18-16(22)15-12(25-19(18,3)4)7-5-11-6-8-13(20)23-17(11)15/h5-9,16,18,22H,1-4H3
> <PUBCHEM_IUPAC_INCHIKEY>
CLVZIESVQOWZKS-UHFFFAOYSA-N
> <PUBCHEM_XLOGP3_AA>
2.8
> <PUBCHEM_EXACT_MASS>
344.12598835
> <PUBCHEM_MOLECULAR_FORMULA>
C19H20O6
> <PUBCHEM_MOLECULAR_WEIGHT>
344.4
> <PUBCHEM_OPENEYE_CAN_SMILES>
CC(=CC(=O)OC1C(C2=C(C=CC3=C2OC(=O)C=C3)OC1(C)C)O)C
> <PUBCHEM_OPENEYE_ISO_SMILES>
CC(=CC(=O)OC1C(C2=C(C=CC3=C2OC(=O)C=C3)OC1(C)C)O)C
> <PUBCHEM_CACTVS_TPSA>
82.1
> <PUBCHEM_MONOISOTOPIC_WEIGHT>
344.12598835
> <PUBCHEM_TOTAL_CHARGE>
0
> <PUBCHEM_HEAVY_ATOM_COUNT>
25
> <PUBCHEM_ATOM_DEF_STEREO_COUNT>
0
> <PUBCHEM_ATOM_UDEF_STEREO_COUNT>
2
> <PUBCHEM_BOND_DEF_STEREO_COUNT>
0
> <PUBCHEM_BOND_UDEF_STEREO_COUNT>
0
> <PUBCHEM_ISOTOPIC_ATOM_COUNT>
0
> <PUBCHEM_COMPONENT_COUNT>
1
> <PUBCHEM_CACTVS_TAUTO_COUNT>
-1
> <PUBCHEM_COORDINATE_TYPE>
1
5
255
> <PUBCHEM_BONDANNOTATIONS>
10  11  8
10  14  8
11  15  8
14  16  8
15  17  8
16  17  8
16  19  8
19  21  8
8  2  3
20  21  8
9  3  3
4  14  8
4  20  8
$$$$
