511782
  -OEChem-10302200282D
 45 47  0     1  0  0  0  0  0999 V2000
    4.3083   -2.8675    0.0000 O   0  0  0  0  0  0  0  0  0  0  0  0
    4.3198    0.2018    0.0000 O   0  0  0  0  0  0  0  0  0  0  0  0
    2.5381   -0.8087    0.0000 O   0  0  0  0  0  0  0  0  0  0  0  0
    6.0522    0.2087    0.0000 O   0  0  0  0  0  0  0  0  0  0  0  0
    2.5879    0.2218    0.0000 O   0  0  0  0  0  0  0  0  0  0  0  0
    6.9464    1.7364    0.0000 O   0  0  0  0  0  0  0  0  0  0  0  0
    3.4022   -2.3536    0.0000 C   0  0  0  0  0  0  0  0  0  0  0  0
    3.4022   -1.3120    0.0000 C   0  0  3  0  0  0  0  0  0  0  0  0
    4.3083   -0.7982    0.0000 C   0  0  3  0  0  0  0  0  0  0  0  0
    5.2022   -1.3328    0.0000 C   0  0  0  0  0  0  0  0  0  0  0  0
    5.2022   -2.3328    0.0000 C   0  0  0  0  0  0  0  0  0  0  0  0
    2.9056   -3.2216    0.0000 C   0  0  0  0  0  0  0  0  0  0  0  0
    2.4022   -2.3575    0.0000 C   0  0  0  0  0  0  0  0  0  0  0  0
    6.0682   -0.8328    0.0000 C   0  0  0  0  0  0  0  0  0  0  0  0
    6.0682   -2.8328    0.0000 C   0  0  0  0  0  0  0  0  0  0  0  0
    6.9343   -1.3328    0.0000 C   0  0  0  0  0  0  0  0  0  0  0  0
    6.9343   -2.3328    0.0000 C   0  0  0  0  0  0  0  0  0  0  0  0
    3.4597    0.7117    0.0000 C   0  0  0  0  0  0  0  0  0  0  0  0
    7.8443   -0.8260    0.0000 C   0  0  0  0  0  0  0  0  0  0  0  0
    6.9502    0.7364    0.0000 C   0  0  0  0  0  0  0  0  0  0  0  0
    7.8523    0.2156    0.0000 C   0  0  0  0  0  0  0  0  0  0  0  0
    3.4712    1.7117    0.0000 C   0  0  0  0  0  0  0  0  0  0  0  0
    4.3430    2.2016    0.0000 C   0  0  0  0  0  0  0  0  0  0  0  0
    2.6110    2.2217    0.0000 C   0  0  0  0  0  0  0  0  0  0  0  0
    2.6226    3.2216    0.0000 C   0  0  0  0  0  0  0  0  0  0  0  0
    2.8647   -1.6210    0.0000 H   0  0  0  0  0  0  0  0  0  0  0  0
    3.7744   -0.4830    0.0000 H   0  0  0  0  0  0  0  0  0  0  0  0
    2.3674   -2.9137    0.0000 H   0  0  0  0  0  0  0  0  0  0  0  0
    2.5976   -3.7597    0.0000 H   0  0  0  0  0  0  0  0  0  0  0  0
    3.4437   -3.5295    0.0000 H   0  0  0  0  0  0  0  0  0  0  0  0
    2.3998   -1.7375    0.0000 H   0  0  0  0  0  0  0  0  0  0  0  0
    1.7822   -2.3599    0.0000 H   0  0  0  0  0  0  0  0  0  0  0  0
    2.4046   -2.9775    0.0000 H   0  0  0  0  0  0  0  0  0  0  0  0
    6.0682   -3.4528    0.0000 H   0  0  0  0  0  0  0  0  0  0  0  0
    2.0000   -1.1166    0.0000 H   0  0  0  0  0  0  0  0  0  0  0  0
    7.4712   -2.6428    0.0000 H   0  0  0  0  0  0  0  0  0  0  0  0
    8.3776   -1.1422    0.0000 H   0  0  0  0  0  0  0  0  0  0  0  0
    8.3904    0.5235    0.0000 H   0  0  0  0  0  0  0  0  0  0  0  0
    4.6468    1.6612    0.0000 H   0  0  0  0  0  0  0  0  0  0  0  0
    4.8835    2.5054    0.0000 H   0  0  0  0  0  0  0  0  0  0  0  0
    4.0392    2.7421    0.0000 H   0  0  0  0  0  0  0  0  0  0  0  0
    2.0706    1.9179    0.0000 H   0  0  0  0  0  0  0  0  0  0  0  0
    3.2426    3.2144    0.0000 H   0  0  0  0  0  0  0  0  0  0  0  0
    2.6298    3.8416    0.0000 H   0  0  0  0  0  0  0  0  0  0  0  0
    2.0026    3.2288    0.0000 H   0  0  0  0  0  0  0  0  0  0  0  0
  1  7  1  0  0  0  0
  1 11  1  0  0  0  0
  2  9  1  0  0  0  0
  2 18  1  0  0  0  0
  3  8  1  0  0  0  0
  3 35  1  0  0  0  0
  4 14  1  0  0  0  0
  4 20  1  0  0  0  0
  5 18  2  0  0  0  0
  6 20  2  0  0  0  0
  7  8  1  0  0  0  0
  7 12  1  0  0  0  0
  7 13  1  0  0  0  0
  8  9  1  0  0  0  0
  8 26  1  0  0  0  0
  9 10  1  0  0  0  0
  9 27  1  0  0  0  0
 10 11  2  0  0  0  0
 10 14  1  0  0  0  0
 11 15  1  0  0  0  0
 12 28  1  0  0  0  0
 12 29  1  0  0  0  0
 12 30  1  0  0  0  0
 13 31  1  0  0  0  0
 13 32  1  0  0  0  0
 13 33  1  0  0  0  0
 14 16  2  0  0  0  0
 15 17  2  0  0  0  0
 15 34  1  0  0  0  0
 16 17  1  0  0  0  0
 16 19  1  0  0  0  0
 17 36  1  0  0  0  0
 18 22  1  0  0  0  0
 19 21  2  0  0  0  0
 19 37  1  0  0  0  0
 20 21  1  0  0  0  0
 21 38  1  0  0  0  0
 22 23  1  0  0  0  0
 22 24  2  3  0  0  0
 23 39  1  0  0  0  0
 23 40  1  0  0  0  0
 23 41  1  0  0  0  0
 24 25  1  0  0  0  0
 24 42  1  0  0  0  0
 25 43  1  0  0  0  0
 25 44  1  0  0  0  0
 25 45  1  0  0  0  0
M  END
> <PUBCHEM_COMPOUND_CID>
511782
> <PUBCHEM_COMPOUND_CANONICALIZED>
1
> <PUBCHEM_CACTVS_COMPLEXITY>
619
> <PUBCHEM_CACTVS_HBOND_ACCEPTOR>
6
> <PUBCHEM_CACTVS_HBOND_DONOR>
1
> <PUBCHEM_CACTVS_ROTATABLE_BOND>
3
> <PUBCHEM_CACTVS_SUBSKEYS>
AAADceB4OAAAAAAAAAAAAAAAAAAAAAAAAAA0QIAAAAAAAACRAAAAGgAACAAADFSgmAIyDoAABgCIAiDSCAACCAAgIAAIiAEGCMgNNyKEMRqCeiClwBULqYfA4PwOIAACCAAIAABAAAQQABAAAAAAAAAAAA==
> <PUBCHEM_IUPAC_OPENEYE_NAME>
(9-hydroxy-8,8-dimethyl-2-oxo-9,10-dihydropyrano[2,3-f]chromen-10-yl) 2-methylbut-2-enoate
> <PUBCHEM_IUPAC_CAS_NAME>
2-methyl-2-butenoic acid (9-hydroxy-8,8-dimethyl-2-oxo-9,10-dihydropyrano[2,3-f][1]benzopyran-10-yl) ester
> <PUBCHEM_IUPAC_NAME_MARKUP>
(9-hydroxy-8,8-dimethyl-2-oxo-9,10-dihydropyrano[2,3-f]chromen-10-yl) 2-methylbut-2-enoate
> <PUBCHEM_IUPAC_NAME>
(9-hydroxy-8,8-dimethyl-2-oxo-9,10-dihydropyrano[2,3-f]chromen-10-yl) 2-methylbut-2-enoate
> <PUBCHEM_IUPAC_SYSTEMATIC_NAME>
(8,8-dimethyl-9-oxidanyl-2-oxidanylidene-9,10-dihydropyrano[2,3-f]chromen-10-yl) 2-methylbut-2-enoate
> <PUBCHEM_IUPAC_TRADITIONAL_NAME>
2-methylbut-2-enoic acid (9-hydroxy-2-keto-8,8-dimethyl-9,10-dihydropyrano[2,3-f]chromen-10-yl) ester
> <PUBCHEM_IUPAC_INCHI>
InChI=1S/C19H20O6/c1-5-10(2)18(22)24-16-14-12(25-19(3,4)17(16)21)8-6-11-7-9-13(20)23-15(11)14/h5-9,16-17,21H,1-4H3
> <PUBCHEM_IUPAC_INCHIKEY>
QPLSCFLMIOADPA-UHFFFAOYSA-N
> <PUBCHEM_XLOGP3_AA>
2.6
> <PUBCHEM_EXACT_MASS>
344.12598835
> <PUBCHEM_MOLECULAR_FORMULA>
C19H20O6
> <PUBCHEM_MOLECULAR_WEIGHT>
344.4
> <PUBCHEM_OPENEYE_CAN_SMILES>
CC=C(C)C(=O)OC1C(C(OC2=C1C3=C(C=C2)C=CC(=O)O3)(C)C)O
> <PUBCHEM_OPENEYE_ISO_SMILES>
CC=C(C)C(=O)OC1C(C(OC2=C1C3=C(C=C2)C=CC(=O)O3)(C)C)O
> <PUBCHEM_CACTVS_TPSA>
82.1
> <PUBCHEM_MONOISOTOPIC_WEIGHT>
344.12598835
> <PUBCHEM_TOTAL_CHARGE>
0
> <PUBCHEM_HEAVY_ATOM_COUNT>
25
> <PUBCHEM_ATOM_DEF_STEREO_COUNT>
0
> <PUBCHEM_ATOM_UDEF_STEREO_COUNT>
2
> <PUBCHEM_BOND_DEF_STEREO_COUNT>
0
> <PUBCHEM_BOND_UDEF_STEREO_COUNT>
1
> <PUBCHEM_ISOTOPIC_ATOM_COUNT>
0
> <PUBCHEM_COMPONENT_COUNT>
1
> <PUBCHEM_CACTVS_TAUTO_COUNT>
-1
> <PUBCHEM_COORDINATE_TYPE>
1
5
255
> <PUBCHEM_BONDANNOTATIONS>
10  11  8
10  14  8
11  15  8
14  16  8
15  17  8
16  17  8
16  19  8
19  21  8
9  2  3
20  21  8
22  24  1
8  3  3
4  14  8
4  20  8
$$$$
