511717
  -OEChem-10302200282D
 41 41  0     1  0  0  0  0  0999 V2000
    6.0010    5.9438    0.0000 Hg  0  3  0  0  0  0  0  0  0  0  0  0
    4.0010    3.6394    0.0000 S   0  5  0  0  0  0  0  0  0  0  0  0
    8.5421    2.3561    0.0000 O   0  0  0  0  0  0  0  0  0  0  0  0
    6.6453    0.5960    0.0000 O   0  0  0  0  0  0  0  0  0  0  0  0
    9.8154    0.7005    0.0000 O   0  0  0  0  0  0  0  0  0  0  0  0
    9.4651    3.9438    0.0000 O   0  0  0  0  0  0  0  0  0  0  0  0
    7.7331    6.9438    0.0000 O   0  0  0  0  0  0  0  0  0  0  0  0
    2.2690    2.6394    0.0000 O   0  0  0  0  0  0  0  0  0  0  0  0
    0.5369    3.6394    0.0000 O   0  0  0  0  0  0  0  0  0  0  0  0
    7.7331    3.9438    0.0000 N   0  0  0  0  0  0  0  0  0  0  0  0
    8.5991    5.4438    0.0000 N   0  0  0  0  0  0  0  0  0  0  0  0
    7.2331    1.4050    0.0000 C   0  0  1  0  0  0  0  0  0  0  0  0
    6.9241    2.3561    0.0000 C   0  0  0  0  0  0  0  0  0  0  0  0
    8.2331    1.4050    0.0000 C   0  0  1  0  0  0  0  0  0  0  0  0
    7.7331    2.9438    0.0000 C   0  0  1  0  0  0  0  0  0  0  0  0
    8.8209    0.5960    0.0000 C   0  0  0  0  0  0  0  0  0  0  0  0
    8.5991    4.4438    0.0000 C   0  0  0  0  0  0  0  0  0  0  0  0
    6.8671    4.4438    0.0000 C   0  0  0  0  0  0  0  0  0  0  0  0
    6.8671    5.4438    0.0000 C   0  0  0  0  0  0  0  0  0  0  0  0
    7.7331    5.9438    0.0000 C   0  0  0  0  0  0  0  0  0  0  0  0
    2.2690    3.6394    0.0000 C   0  0  3  0  0  0  0  0  0  0  0  0
    1.4030    4.1394    0.0000 C   0  0  0  0  0  0  0  0  0  0  0  0
    3.1350    4.1394    0.0000 C   0  0  0  0  0  0  0  0  0  0  0  0
    7.5146    0.8526    0.0000 H   0  0  0  0  0  0  0  0  0  0  0  0
    6.6141    2.8930    0.0000 H   0  0  0  0  0  0  0  0  0  0  0  0
    6.3577    2.1039    0.0000 H   0  0  0  0  0  0  0  0  0  0  0  0
    8.8455    1.5020    0.0000 H   0  0  0  0  0  0  0  0  0  0  0  0
    8.2855    3.2253    0.0000 H   0  0  0  0  0  0  0  0  0  0  0  0
    8.2636    0.3242    0.0000 H   0  0  0  0  0  0  0  0  0  0  0  0
    8.9918    0.0000    0.0000 H   0  0  0  0  0  0  0  0  0  0  0  0
    6.0287    0.6608    0.0000 H   0  0  0  0  0  0  0  0  0  0  0  0
    6.3301    4.1338    0.0000 H   0  0  0  0  0  0  0  0  0  0  0  0
   10.1798    0.1989    0.0000 H   0  0  0  0  0  0  0  0  0  0  0  0
    9.1360    5.7538    0.0000 H   0  0  0  0  0  0  0  0  0  0  0  0
    1.7320    3.3294    0.0000 H   0  0  0  0  0  0  0  0  0  0  0  0
    1.8015    4.6144    0.0000 H   0  0  0  0  0  0  0  0  0  0  0  0
    1.0044    4.6144    0.0000 H   0  0  0  0  0  0  0  0  0  0  0  0
    3.5335    4.6144    0.0000 H   0  0  0  0  0  0  0  0  0  0  0  0
    2.7365    4.6144    0.0000 H   0  0  0  0  0  0  0  0  0  0  0  0
    1.7320    2.3294    0.0000 H   0  0  0  0  0  0  0  0  0  0  0  0
    0.0000    3.9494    0.0000 H   0  0  0  0  0  0  0  0  0  0  0  0
  1 19  1  0  0  0  0
  2 23  1  0  0  0  0
  3 14  1  0  0  0  0
  3 15  1  0  0  0  0
 12  4  1  1  0  0  0
  4 31  1  0  0  0  0
  5 16  1  0  0  0  0
  5 33  1  0  0  0  0
  6 17  2  0  0  0  0
  7 20  2  0  0  0  0
  8 21  1  0  0  0  0
  8 40  1  0  0  0  0
  9 22  1  0  0  0  0
  9 41  1  0  0  0  0
 15 10  1  6  0  0  0
 10 17  1  0  0  0  0
 10 18  1  0  0  0  0
 11 17  1  0  0  0  0
 11 20  1  0  0  0  0
 11 34  1  0  0  0  0
 12 13  1  0  0  0  0
 12 14  1  0  0  0  0
 12 24  1  0  0  0  0
 13 15  1  0  0  0  0
 13 25  1  0  0  0  0
 13 26  1  0  0  0  0
 14 16  1  6  0  0  0
 14 27  1  0  0  0  0
 15 28  1  0  0  0  0
 16 29  1  0  0  0  0
 16 30  1  0  0  0  0
 18 19  2  0  0  0  0
 18 32  1  0  0  0  0
 19 20  1  0  0  0  0
 21 22  1  0  0  0  0
 21 23  1  0  0  0  0
 21 35  1  0  0  0  0
 22 36  1  0  0  0  0
 22 37  1  0  0  0  0
 23 38  1  0  0  0  0
 23 39  1  0  0  0  0
M  CHG  2   1   1   2  -1
M  END
> <PUBCHEM_COMPOUND_CID>
511717
> <PUBCHEM_COMPOUND_CANONICALIZED>
1
> <PUBCHEM_CACTVS_COMPLEXITY>
418
> <PUBCHEM_CACTVS_HBOND_ACCEPTOR>
8
> <PUBCHEM_CACTVS_HBOND_DONOR>
5
> <PUBCHEM_CACTVS_ROTATABLE_BOND>
4
> <PUBCHEM_CACTVS_SUBSKEYS>
AAADceBzOABAAAAAAAAAAQAAAAAAASAAAAAgAAAAAAAAAAAAAAAAHgQQCAAACBTlwAaBAAPABgCIAAFWUACAAAAAAAAAAAAIAECBEAIAgAAOQAAPByIDAMCwMAIAAAAAAAAAAAAAAAAAAAAAAAAAAAAAAA==
> <PUBCHEM_IUPAC_OPENEYE_NAME>
2,3-dihydroxypropane-1-thiolate;[1-[(2R,4S,5R)-4-hydroxy-5-(hydroxymethyl)tetrahydrofuran-2-yl]-2,4-dioxo-pyrimidin-5-yl]mercury(1+)
> <PUBCHEM_IUPAC_CAS_NAME>
2,3-dihydroxy-1-propanethiolate;[1-[(2R,4S,5R)-4-hydroxy-5-(hydroxymethyl)-2-oxolanyl]-2,4-dioxo-5-pyrimidinyl]mercury(1+)
> <PUBCHEM_IUPAC_NAME_MARKUP>
2,3-dihydroxypropane-1-thiolate;[1-[(2<I>R</I>,4<I>S</I>,5<I>R</I>)-4-hydroxy-5-(hydroxymethyl)oxolan-2-yl]-2,4-dioxopyrimidin-5-yl]mercury(1+)
> <PUBCHEM_IUPAC_NAME>
2,3-dihydroxypropane-1-thiolate;[1-[(2R,4S,5R)-4-hydroxy-5-(hydroxymethyl)oxolan-2-yl]-2,4-dioxopyrimidin-5-yl]mercury(1+)
> <PUBCHEM_IUPAC_SYSTEMATIC_NAME>
2,3-bis(oxidanyl)propane-1-thiolate;[1-[(2R,4S,5R)-5-(hydroxymethyl)-4-oxidanyl-oxolan-2-yl]-2,4-bis(oxidanylidene)pyrimidin-5-yl]mercury(1+)
> <PUBCHEM_IUPAC_TRADITIONAL_NAME>
2,3-dihydroxypropane-1-thiolate;[1-[(2R,4S,5R)-4-hydroxy-5-methylol-tetrahydrofuran-2-yl]-2,4-diketo-pyrimidin-5-yl]mercury(1+)
> <PUBCHEM_IUPAC_INCHI>
InChI=1S/C9H11N2O5.C3H8O2S.Hg/c12-4-6-5(13)3-8(16-6)11-2-1-7(14)10-9(11)15;4-1-3(5)2-6;/h2,5-6,8,12-13H,3-4H2,(H,10,14,15);3-6H,1-2H2;/q;;+1/p-1/t5-,6+,8+;;/m0../s1
> <PUBCHEM_IUPAC_INCHIKEY>
CQLCURIGQDSPTM-CDNBRZBRSA-M
> <PUBCHEM_EXACT_MASS>
536.054116
> <PUBCHEM_MOLECULAR_FORMULA>
C12H18HgN2O7S
> <PUBCHEM_MOLECULAR_WEIGHT>
534.94
> <PUBCHEM_OPENEYE_CAN_SMILES>
C1C(C(OC1N2C=C(C(=O)NC2=O)[Hg+])CO)O.C(C(C[S-])O)O
> <PUBCHEM_OPENEYE_ISO_SMILES>
C1[C@@H]([C@H](O[C@H]1N2C=C(C(=O)NC2=O)[Hg+])CO)O.C(C(C[S-])O)O
> <PUBCHEM_CACTVS_TPSA>
141
> <PUBCHEM_MONOISOTOPIC_WEIGHT>
536.054116
> <PUBCHEM_TOTAL_CHARGE>
0
> <PUBCHEM_HEAVY_ATOM_COUNT>
23
> <PUBCHEM_ATOM_DEF_STEREO_COUNT>
3
> <PUBCHEM_ATOM_UDEF_STEREO_COUNT>
1
> <PUBCHEM_BOND_DEF_STEREO_COUNT>
0
> <PUBCHEM_BOND_UDEF_STEREO_COUNT>
0
> <PUBCHEM_ISOTOPIC_ATOM_COUNT>
0
> <PUBCHEM_COMPONENT_COUNT>
2
> <PUBCHEM_CACTVS_TAUTO_COUNT>
-1
> <PUBCHEM_COORDINATE_TYPE>
1
5
255
> <PUBCHEM_BONDANNOTATIONS>
15  10  6
10  17  8
10  18  8
11  17  8
11  20  8
14  16  6
18  19  8
19  20  8
12  4  5
21  8  3
$$$$
