511793
  -OEChem-10302200282D
 31 32  0     1  0  0  0  0  0999 V2000
    3.6750   -0.7063    0.0000 O   0  0  0  0  0  0  0  0  0  0  0  0
    3.5471   -3.3799    0.0000 O   0  0  0  0  0  0  0  0  0  0  0  0
    4.5981    2.8815    0.0000 O   0  0  0  0  0  0  0  0  0  0  0  0
    2.8660    3.8815    0.0000 O   0  0  0  0  0  0  0  0  0  0  0  0
    2.8660    0.8815    0.0000 N   0  0  0  0  0  0  0  0  0  0  0  0
    2.8660   -0.1185    0.0000 C   0  0  2  0  0  0  0  0  0  0  0  0
    2.0570   -0.7063    0.0000 C   0  0  0  0  0  0  0  0  0  0  0  0
    2.3660   -1.6573    0.0000 C   0  0  0  0  0  0  0  0  0  0  0  0
    3.3660   -1.6573    0.0000 C   0  0  1  0  0  0  0  0  0  0  0  0
    3.9538   -2.4664    0.0000 C   0  0  0  0  0  0  0  0  0  0  0  0
    3.7320    1.3815    0.0000 C   0  0  0  0  0  0  0  0  0  0  0  0
    2.0000    1.3815    0.0000 C   0  0  0  0  0  0  0  0  0  0  0  0
    3.7320    2.3815    0.0000 C   0  0  0  0  0  0  0  0  0  0  0  0
    4.5981    0.8815    0.0000 C   0  0  0  0  0  0  0  0  0  0  0  0
    2.0000    2.3815    0.0000 C   0  0  0  0  0  0  0  0  0  0  0  0
    2.8660    2.8815    0.0000 C   0  0  0  0  0  0  0  0  0  0  0  0
    3.4184    0.1630    0.0000 H   0  0  0  0  0  0  0  0  0  0  0  0
    1.7470   -0.1694    0.0000 H   0  0  0  0  0  0  0  0  0  0  0  0
    1.4906   -0.9585    0.0000 H   0  0  0  0  0  0  0  0  0  0  0  0
    1.7596   -1.7862    0.0000 H   0  0  0  0  0  0  0  0  0  0  0  0
    2.4308   -2.2740    0.0000 H   0  0  0  0  0  0  0  0  0  0  0  0
    3.9784   -1.5603    0.0000 H   0  0  0  0  0  0  0  0  0  0  0  0
    4.4678   -2.8131    0.0000 H   0  0  0  0  0  0  0  0  0  0  0  0
    4.3845   -2.0204    0.0000 H   0  0  0  0  0  0  0  0  0  0  0  0
    1.4631    1.0715    0.0000 H   0  0  0  0  0  0  0  0  0  0  0  0
    4.2881    0.3446    0.0000 H   0  0  0  0  0  0  0  0  0  0  0  0
    5.1350    0.5715    0.0000 H   0  0  0  0  0  0  0  0  0  0  0  0
    4.9081    1.4184    0.0000 H   0  0  0  0  0  0  0  0  0  0  0  0
    1.4631    2.6915    0.0000 H   0  0  0  0  0  0  0  0  0  0  0  0
    3.9115   -3.8815    0.0000 H   0  0  0  0  0  0  0  0  0  0  0  0
    4.5981    3.5015    0.0000 H   0  0  0  0  0  0  0  0  0  0  0  0
  1  6  1  0  0  0  0
  1  9  1  0  0  0  0
  2 10  1  0  0  0  0
  2 30  1  0  0  0  0
  3 13  1  0  0  0  0
  3 31  1  0  0  0  0
  4 16  2  0  0  0  0
  6  5  1  1  0  0  0
  5 11  1  0  0  0  0
  5 12  1  0  0  0  0
  6  7  1  0  0  0  0
  6 17  1  0  0  0  0
  7  8  1  0  0  0  0
  7 18  1  0  0  0  0
  7 19  1  0  0  0  0
  8  9  1  0  0  0  0
  8 20  1  0  0  0  0
  8 21  1  0  0  0  0
  9 10  1  6  0  0  0
  9 22  1  0  0  0  0
 10 23  1  0  0  0  0
 10 24  1  0  0  0  0
 11 13  2  0  0  0  0
 11 14  1  0  0  0  0
 12 15  2  0  0  0  0
 12 25  1  0  0  0  0
 13 16  1  0  0  0  0
 14 26  1  0  0  0  0
 14 27  1  0  0  0  0
 14 28  1  0  0  0  0
 15 16  1  0  0  0  0
 15 29  1  0  0  0  0
M  END
> <PUBCHEM_COMPOUND_CID>
511793
> <PUBCHEM_COMPOUND_CANONICALIZED>
1
> <PUBCHEM_CACTVS_COMPLEXITY>
361
> <PUBCHEM_CACTVS_HBOND_ACCEPTOR>
5
> <PUBCHEM_CACTVS_HBOND_DONOR>
2
> <PUBCHEM_CACTVS_ROTATABLE_BOND>
2
> <PUBCHEM_CACTVS_SUBSKEYS>
AAADccByOAAAAAAAAAAAAAAAAAAAASAAAAAgAAAAAAAAAAAAAAAAHgAACAAACBzhgAYCAAMABgCIAKRWQAIAAAAgIgAICABIAEgBEAIAgAAOQAAEQACLAcKwMAIAAAAAAAAAAAAAAAAAAAAAAAAAAAAAAA==
> <PUBCHEM_IUPAC_OPENEYE_NAME>
3-hydroxy-1-[(2S,5S)-5-(hydroxymethyl)tetrahydrofuran-2-yl]-2-methyl-pyridin-4-one
> <PUBCHEM_IUPAC_CAS_NAME>
3-hydroxy-1-[(2S,5S)-5-(hydroxymethyl)-2-oxolanyl]-2-methyl-4-pyridinone
> <PUBCHEM_IUPAC_NAME_MARKUP>
3-hydroxy-1-[(2<I>S</I>,5<I>S</I>)-5-(hydroxymethyl)oxolan-2-yl]-2-methylpyridin-4-one
> <PUBCHEM_IUPAC_NAME>
3-hydroxy-1-[(2S,5S)-5-(hydroxymethyl)oxolan-2-yl]-2-methylpyridin-4-one
> <PUBCHEM_IUPAC_SYSTEMATIC_NAME>
1-[(2S,5S)-5-(hydroxymethyl)oxolan-2-yl]-2-methyl-3-oxidanyl-pyridin-4-one
> <PUBCHEM_IUPAC_TRADITIONAL_NAME>
3-hydroxy-2-methyl-1-[(2S,5S)-5-methyloltetrahydrofuran-2-yl]-4-pyridone
> <PUBCHEM_IUPAC_INCHI>
InChI=1S/C11H15NO4/c1-7-11(15)9(14)4-5-12(7)10-3-2-8(6-13)16-10/h4-5,8,10,13,15H,2-3,6H2,1H3/t8-,10-/m0/s1
> <PUBCHEM_IUPAC_INCHIKEY>
ZNUBBTAJPLKMBM-WPRPVWTQSA-N
> <PUBCHEM_XLOGP3_AA>
0.4
> <PUBCHEM_EXACT_MASS>
225.10010796
> <PUBCHEM_MOLECULAR_FORMULA>
C11H15NO4
> <PUBCHEM_MOLECULAR_WEIGHT>
225.24
> <PUBCHEM_OPENEYE_CAN_SMILES>
CC1=C(C(=O)C=CN1C2CCC(O2)CO)O
> <PUBCHEM_OPENEYE_ISO_SMILES>
CC1=C(C(=O)C=CN1[C@@H]2CC[C@H](O2)CO)O
> <PUBCHEM_CACTVS_TPSA>
70
> <PUBCHEM_MONOISOTOPIC_WEIGHT>
225.10010796
> <PUBCHEM_TOTAL_CHARGE>
0
> <PUBCHEM_HEAVY_ATOM_COUNT>
16
> <PUBCHEM_ATOM_DEF_STEREO_COUNT>
2
> <PUBCHEM_ATOM_UDEF_STEREO_COUNT>
0
> <PUBCHEM_BOND_DEF_STEREO_COUNT>
0
> <PUBCHEM_BOND_UDEF_STEREO_COUNT>
0
> <PUBCHEM_ISOTOPIC_ATOM_COUNT>
0
> <PUBCHEM_COMPONENT_COUNT>
1
> <PUBCHEM_CACTVS_TAUTO_COUNT>
-1
> <PUBCHEM_COORDINATE_TYPE>
1
5
255
> <PUBCHEM_BONDANNOTATIONS>
11  13  8
12  15  8
13  16  8
15  16  8
5  11  8
5  12  8
6  5  5
9  10  6
$$$$
