511718
  -OEChem-10302200282D
 60 63  0     1  0  0  0  0  0999 V2000
    1.2712    5.9438    0.0000 Hg  0  3  0  0  0  0  0  0  0  0  0  0
    2.2690    8.9427    0.0000 S   0  5  0  0  0  0  0  0  0  0  0  0
    3.8055   13.5079    0.0000 O   0  0  0  0  0  0  0  0  0  0  0  0
    3.8123    2.3561    0.0000 O   0  0  0  0  0  0  0  0  0  0  0  0
    6.1515   12.4161    0.0000 O   0  0  0  0  0  0  0  0  0  0  0  0
    6.1552   14.5917    0.0000 O   0  0  0  0  0  0  0  0  0  0  0  0
    1.9155    0.5960    0.0000 O   0  0  0  0  0  0  0  0  0  0  0  0
    4.7577   16.0095    0.0000 O   0  0  0  0  0  0  0  0  0  0  0  0
    5.0856    0.7005    0.0000 O   0  0  0  0  0  0  0  0  0  0  0  0
    4.7353    3.9438    0.0000 O   0  0  0  0  0  0  0  0  0  0  0  0
    3.0033    6.9438    0.0000 O   0  0  0  0  0  0  0  0  0  0  0  0
    4.0812   11.7474    0.0000 N   0  0  0  0  0  0  0  0  0  0  0  0
    3.0033    3.9438    0.0000 N   0  0  0  0  0  0  0  0  0  0  0  0
    4.0812   10.1379    0.0000 N   0  0  0  0  0  0  0  0  0  0  0  0
    2.2690   11.9427    0.0000 N   0  0  0  0  0  0  0  0  0  0  0  0
    3.8693    5.4438    0.0000 N   0  0  0  0  0  0  0  0  0  0  0  0
    1.4030   10.4427    0.0000 N   0  0  0  0  0  0  0  0  0  0  0  0
    0.5369   11.9427    0.0000 N   0  0  0  0  0  0  0  0  0  0  0  0
    5.3435   13.0053    0.0000 C   0  0  2  0  0  0  0  0  0  0  0  0
    5.3452   14.0053    0.0000 C   0  0  1  0  0  0  0  0  0  0  0  0
    4.3919   12.6979    0.0000 C   0  0  1  0  0  0  0  0  0  0  0  0
    4.3947   14.3159    0.0000 C   0  0  1  0  0  0  0  0  0  0  0  0
    2.5033    1.4050    0.0000 C   0  0  1  0  0  0  0  0  0  0  0  0
    2.1942    2.3561    0.0000 C   0  0  0  0  0  0  0  0  0  0  0  0
    3.5033    1.4050    0.0000 C   0  0  1  0  0  0  0  0  0  0  0  0
    3.0033    2.9438    0.0000 C   0  0  1  0  0  0  0  0  0  0  0  0
    4.0873   15.2675    0.0000 C   0  0  0  0  0  0  0  0  0  0  0  0
    4.0910    0.5960    0.0000 C   0  0  0  0  0  0  0  0  0  0  0  0
    3.1350   11.4427    0.0000 C   0  0  0  0  0  0  0  0  0  0  0  0
    4.6648   10.9427    0.0000 C   0  0  0  0  0  0  0  0  0  0  0  0
    3.1350   10.4427    0.0000 C   0  0  0  0  0  0  0  0  0  0  0  0
    3.8693    4.4438    0.0000 C   0  0  0  0  0  0  0  0  0  0  0  0
    2.1372    4.4438    0.0000 C   0  0  0  0  0  0  0  0  0  0  0  0
    2.2690    9.9427    0.0000 C   0  0  0  0  0  0  0  0  0  0  0  0
    2.1372    5.4438    0.0000 C   0  0  0  0  0  0  0  0  0  0  0  0
    3.0033    5.9438    0.0000 C   0  0  0  0  0  0  0  0  0  0  0  0
    1.4030   11.4427    0.0000 C   0  0  0  0  0  0  0  0  0  0  0  0
    5.2454   12.3931    0.0000 H   0  0  0  0  0  0  0  0  0  0  0  0
    5.8972   13.7228    0.0000 H   0  0  0  0  0  0  0  0  0  0  0  0
    3.7794   12.6020    0.0000 H   0  0  0  0  0  0  0  0  0  0  0  0
    3.7825   14.4140    0.0000 H   0  0  0  0  0  0  0  0  0  0  0  0
    2.7847    0.8526    0.0000 H   0  0  0  0  0  0  0  0  0  0  0  0
    1.8842    2.8930    0.0000 H   0  0  0  0  0  0  0  0  0  0  0  0
    1.6278    2.1039    0.0000 H   0  0  0  0  0  0  0  0  0  0  0  0
    4.1156    1.5020    0.0000 H   0  0  0  0  0  0  0  0  0  0  0  0
    3.5557    3.2253    0.0000 H   0  0  0  0  0  0  0  0  0  0  0  0
    3.7065   15.7568    0.0000 H   0  0  0  0  0  0  0  0  0  0  0  0
    3.5394   14.9774    0.0000 H   0  0  0  0  0  0  0  0  0  0  0  0
    3.5338    0.3242    0.0000 H   0  0  0  0  0  0  0  0  0  0  0  0
    4.2619    0.0000    0.0000 H   0  0  0  0  0  0  0  0  0  0  0  0
    6.7183   12.6673    0.0000 H   0  0  0  0  0  0  0  0  0  0  0  0
    6.7212   14.3385    0.0000 H   0  0  0  0  0  0  0  0  0  0  0  0
    5.2848   10.9427    0.0000 H   0  0  0  0  0  0  0  0  0  0  0  0
    1.2989    0.6608    0.0000 H   0  0  0  0  0  0  0  0  0  0  0  0
    1.6003    4.1338    0.0000 H   0  0  0  0  0  0  0  0  0  0  0  0
    4.5672   16.5995    0.0000 H   0  0  0  0  0  0  0  0  0  0  0  0
    5.4500    0.1989    0.0000 H   0  0  0  0  0  0  0  0  0  0  0  0
    4.4062    5.7538    0.0000 H   0  0  0  0  0  0  0  0  0  0  0  0
    0.0000   11.6327    0.0000 H   0  0  0  0  0  0  0  0  0  0  0  0
    0.5369   12.5627    0.0000 H   0  0  0  0  0  0  0  0  0  0  0  0
  1 35  1  0  0  0  0
  2 34  1  0  0  0  0
  3 21  1  0  0  0  0
  3 22  1  0  0  0  0
  4 25  1  0  0  0  0
  4 26  1  0  0  0  0
 19  5  1  1  0  0  0
  5 51  1  0  0  0  0
 20  6  1  1  0  0  0
  6 52  1  0  0  0  0
 23  7  1  1  0  0  0
  7 54  1  0  0  0  0
  8 27  1  0  0  0  0
  8 56  1  0  0  0  0
  9 28  1  0  0  0  0
  9 57  1  0  0  0  0
 10 32  2  0  0  0  0
 11 36  2  0  0  0  0
 21 12  1  6  0  0  0
 12 29  1  0  0  0  0
 12 30  1  0  0  0  0
 26 13  1  6  0  0  0
 13 32  1  0  0  0  0
 13 33  1  0  0  0  0
 14 30  2  0  0  0  0
 14 31  1  0  0  0  0
 15 29  1  0  0  0  0
 15 37  2  0  0  0  0
 16 32  1  0  0  0  0
 16 36  1  0  0  0  0
 16 58  1  0  0  0  0
 17 34  2  0  0  0  0
 17 37  1  0  0  0  0
 18 37  1  0  0  0  0
 18 59  1  0  0  0  0
 18 60  1  0  0  0  0
 19 20  1  0  0  0  0
 19 21  1  0  0  0  0
 19 38  1  0  0  0  0
 20 22  1  0  0  0  0
 20 39  1  0  0  0  0
 21 40  1  0  0  0  0
 22 27  1  6  0  0  0
 22 41  1  0  0  0  0
 23 24  1  0  0  0  0
 23 25  1  0  0  0  0
 23 42  1  0  0  0  0
 24 26  1  0  0  0  0
 24 43  1  0  0  0  0
 24 44  1  0  0  0  0
 25 28  1  6  0  0  0
 25 45  1  0  0  0  0
 26 46  1  0  0  0  0
 27 47  1  0  0  0  0
 27 48  1  0  0  0  0
 28 49  1  0  0  0  0
 28 50  1  0  0  0  0
 29 31  2  0  0  0  0
 30 53  1  0  0  0  0
 31 34  1  0  0  0  0
 33 35  2  0  0  0  0
 33 55  1  0  0  0  0
 35 36  1  0  0  0  0
M  CHG  2   1   1   2  -1
M  END
> <PUBCHEM_COMPOUND_CID>
511718
> <PUBCHEM_COMPOUND_CANONICALIZED>
1
> <PUBCHEM_CACTVS_COMPLEXITY>
752
> <PUBCHEM_CACTVS_HBOND_ACCEPTOR>
14
> <PUBCHEM_CACTVS_HBOND_DONOR>
7
> <PUBCHEM_CACTVS_ROTATABLE_BOND>
4
> <PUBCHEM_CACTVS_SUBSKEYS>
AAADceB7vABAAAAAAAAAAQAAAAAAAWJEgAAsQAAAAAAAAFgB+AAAHgQQCAAACBzh1wYF8b/MFgCoAQd3dACA0C0REKABUDQoVFCDWAJAyEAeRAwPByLTAODwMAIAAAAAAAAAAAAAAAAAAAAAAAAAAAAAAA==
> <PUBCHEM_IUPAC_OPENEYE_NAME>
2-amino-9-[(2R,3R,4S,5R)-3,4-dihydroxy-5-(hydroxymethyl)tetrahydrofuran-2-yl]purine-6-thiolate;[1-[(2R,4S,5R)-4-hydroxy-5-(hydroxymethyl)tetrahydrofuran-2-yl]-2,4-dioxo-pyrimidin-5-yl]mercury(1+)
> <PUBCHEM_IUPAC_CAS_NAME>
2-amino-9-[(2R,3R,4S,5R)-3,4-dihydroxy-5-(hydroxymethyl)-2-oxolanyl]-6-purinethiolate;[1-[(2R,4S,5R)-4-hydroxy-5-(hydroxymethyl)-2-oxolanyl]-2,4-dioxo-5-pyrimidinyl]mercury(1+)
> <PUBCHEM_IUPAC_NAME_MARKUP>
2-amino-9-[(2<I>R</I>,3<I>R</I>,4<I>S</I>,5<I>R</I>)-3,4-dihydroxy-5-(hydroxymethyl)oxolan-2-yl]purine-6-thiolate;[1-[(2<I>R</I>,4<I>S</I>,5<I>R</I>)-4-hydroxy-5-(hydroxymethyl)oxolan-2-yl]-2,4-dioxopyrimidin-5-yl]mercury(1+)
> <PUBCHEM_IUPAC_NAME>
2-amino-9-[(2R,3R,4S,5R)-3,4-dihydroxy-5-(hydroxymethyl)oxolan-2-yl]purine-6-thiolate;[1-[(2R,4S,5R)-4-hydroxy-5-(hydroxymethyl)oxolan-2-yl]-2,4-dioxopyrimidin-5-yl]mercury(1+)
> <PUBCHEM_IUPAC_SYSTEMATIC_NAME>
2-azanyl-9-[(2R,3R,4S,5R)-5-(hydroxymethyl)-3,4-bis(oxidanyl)oxolan-2-yl]purine-6-thiolate;[1-[(2R,4S,5R)-5-(hydroxymethyl)-4-oxidanyl-oxolan-2-yl]-2,4-bis(oxidanylidene)pyrimidin-5-yl]mercury(1+)
> <PUBCHEM_IUPAC_TRADITIONAL_NAME>
2-amino-9-[(2R,3R,4S,5R)-3,4-dihydroxy-5-methylol-tetrahydrofuran-2-yl]purine-6-thiolate;[1-[(2R,4S,5R)-4-hydroxy-5-methylol-tetrahydrofuran-2-yl]-2,4-diketo-pyrimidin-5-yl]mercury(1+)
> <PUBCHEM_IUPAC_INCHI>
InChI=1S/C10H13N5O4S.C9H11N2O5.Hg/c11-10-13-7-4(8(20)14-10)12-2-15(7)9-6(18)5(17)3(1-16)19-9;12-4-6-5(13)3-8(16-6)11-2-1-7(14)10-9(11)15;/h2-3,5-6,9,16-18H,1H2,(H3,11,13,14,20);2,5-6,8,12-13H,3-4H2,(H,10,14,15);/q;;+1/p-1/t3-,5-,6-,9-;5-,6+,8+;/m10./s1
> <PUBCHEM_IUPAC_INCHIKEY>
JPSIFJZDUKYRPR-BQLDPUMKSA-M
> <PUBCHEM_EXACT_MASS>
727.098440
> <PUBCHEM_MOLECULAR_FORMULA>
C19H23HgN7O9S
> <PUBCHEM_MOLECULAR_WEIGHT>
726.1
> <PUBCHEM_OPENEYE_CAN_SMILES>
C1C(C(OC1N2C=C(C(=O)NC2=O)[Hg+])CO)O.C1=NC2=C(N1C3C(C(C(O3)CO)O)O)N=C(N=C2[S-])N
> <PUBCHEM_OPENEYE_ISO_SMILES>
C1[C@@H]([C@H](O[C@H]1N2C=C(C(=O)NC2=O)[Hg+])CO)O.C1=NC2=C(N1[C@H]3[C@@H]([C@@H]([C@H](O3)CO)O)O)N=C(N=C2[S-])N
> <PUBCHEM_CACTVS_TPSA>
240
> <PUBCHEM_MONOISOTOPIC_WEIGHT>
727.098440
> <PUBCHEM_TOTAL_CHARGE>
0
> <PUBCHEM_HEAVY_ATOM_COUNT>
37
> <PUBCHEM_ATOM_DEF_STEREO_COUNT>
7
> <PUBCHEM_ATOM_UDEF_STEREO_COUNT>
0
> <PUBCHEM_BOND_DEF_STEREO_COUNT>
0
> <PUBCHEM_BOND_UDEF_STEREO_COUNT>
0
> <PUBCHEM_ISOTOPIC_ATOM_COUNT>
0
> <PUBCHEM_COMPONENT_COUNT>
2
> <PUBCHEM_CACTVS_TAUTO_COUNT>
-1
> <PUBCHEM_COORDINATE_TYPE>
1
5
255
> <PUBCHEM_BONDANNOTATIONS>
21  12  6
12  29  8
12  30  8
26  13  6
13  32  8
13  33  8
14  30  8
14  31  8
15  29  8
15  37  8
16  32  8
16  36  8
17  34  8
17  37  8
22  27  6
25  28  6
29  31  8
31  34  8
33  35  8
35  36  8
19  5  5
20  6  5
23  7  5
$$$$
