511896
  -OEChem-10302200282D
 35 36  0     1  0  0  0  0  0999 V2000
    5.4641    0.1550    0.0000 O   0  0  0  0  0  0  0  0  0  0  0  0
    3.7320   -1.8450    0.0000 O   0  0  0  0  0  0  0  0  0  0  0  0
    5.4641   -2.8450    0.0000 O   0  0  0  0  0  0  0  0  0  0  0  0
    7.1962    0.1550    0.0000 O   0  0  0  0  0  0  0  0  0  0  0  0
    7.1962   -1.8450    0.0000 O   0  0  0  0  0  0  0  0  0  0  0  0
    3.7320    1.1550    0.0000 N   0  0  0  0  0  0  0  0  0  0  0  0
    2.8660    1.6550    0.0000 N   0  3  0  0  0  0  0  0  0  0  0  0
    2.0000    2.1550    0.0000 N   0  5  0  0  0  0  0  0  0  0  0  0
    4.5981   -1.3450    0.0000 C   0  0  1  0  0  0  0  0  0  0  0  0
    5.4641   -1.8450    0.0000 C   0  0  1  0  0  0  0  0  0  0  0  0
    4.5981   -0.3450    0.0000 C   0  0  1  0  0  0  0  0  0  0  0  0
    6.3301   -1.3450    0.0000 C   0  0  2  0  0  0  0  0  0  0  0  0
    6.3301   -0.3450    0.0000 C   0  0  1  0  0  0  0  0  0  0  0  0
    3.7320    0.1550    0.0000 C   0  0  0  0  0  0  0  0  0  0  0  0
    7.1962    1.1550    0.0000 C   0  0  0  0  0  0  0  0  0  0  0  0
    8.0622    1.6550    0.0000 C   0  0  0  0  0  0  0  0  0  0  0  0
    6.3301    1.6550    0.0000 C   0  0  0  0  0  0  0  0  0  0  0  0
    8.0622    2.6550    0.0000 C   0  0  0  0  0  0  0  0  0  0  0  0
    6.3301    2.6550    0.0000 C   0  0  0  0  0  0  0  0  0  0  0  0
    7.1962    3.1550    0.0000 C   0  0  0  0  0  0  0  0  0  0  0  0
    4.5981   -1.9650    0.0000 H   0  0  0  0  0  0  0  0  0  0  0  0
    4.9272   -2.1550    0.0000 H   0  0  0  0  0  0  0  0  0  0  0  0
    4.5981    0.2750    0.0000 H   0  0  0  0  0  0  0  0  0  0  0  0
    6.3301   -1.9650    0.0000 H   0  0  0  0  0  0  0  0  0  0  0  0
    6.3301    0.2750    0.0000 H   0  0  0  0  0  0  0  0  0  0  0  0
    3.1215    0.2627    0.0000 H   0  0  0  0  0  0  0  0  0  0  0  0
    3.5200   -0.4276    0.0000 H   0  0  0  0  0  0  0  0  0  0  0  0
    3.1951   -1.5350    0.0000 H   0  0  0  0  0  0  0  0  0  0  0  0
    4.9272   -3.1550    0.0000 H   0  0  0  0  0  0  0  0  0  0  0  0
    7.7331   -1.5350    0.0000 H   0  0  0  0  0  0  0  0  0  0  0  0
    8.5991    1.3450    0.0000 H   0  0  0  0  0  0  0  0  0  0  0  0
    5.7932    1.3450    0.0000 H   0  0  0  0  0  0  0  0  0  0  0  0
    8.5991    2.9650    0.0000 H   0  0  0  0  0  0  0  0  0  0  0  0
    5.7932    2.9650    0.0000 H   0  0  0  0  0  0  0  0  0  0  0  0
    7.1962    3.7750    0.0000 H   0  0  0  0  0  0  0  0  0  0  0  0
  1 11  1  0  0  0  0
  1 13  1  0  0  0  0
  9  2  1  6  0  0  0
  2 28  1  0  0  0  0
 10  3  1  1  0  0  0
  3 29  1  0  0  0  0
 13  4  1  1  0  0  0
  4 15  1  0  0  0  0
 12  5  1  6  0  0  0
  5 30  1  0  0  0  0
  6  7  2  0  0  0  0
  6 14  1  0  0  0  0
  7  8  2  0  0  0  0
  9 10  1  0  0  0  0
  9 11  1  0  0  0  0
  9 21  1  0  0  0  0
 10 12  1  0  0  0  0
 10 22  1  0  0  0  0
 11 14  1  1  0  0  0
 11 23  1  0  0  0  0
 12 13  1  0  0  0  0
 12 24  1  0  0  0  0
 13 25  1  0  0  0  0
 14 26  1  0  0  0  0
 14 27  1  0  0  0  0
 15 16  2  0  0  0  0
 15 17  1  0  0  0  0
 16 18  1  0  0  0  0
 16 31  1  0  0  0  0
 17 19  2  0  0  0  0
 17 32  1  0  0  0  0
 18 20  2  0  0  0  0
 18 33  1  0  0  0  0
 19 20  1  0  0  0  0
 19 34  1  0  0  0  0
 20 35  1  0  0  0  0
M  CHG  2   7   1   8  -1
M  END
> <PUBCHEM_COMPOUND_CID>
511896
> <PUBCHEM_COMPOUND_CANONICALIZED>
1
> <PUBCHEM_CACTVS_COMPLEXITY>
357
> <PUBCHEM_CACTVS_HBOND_ACCEPTOR>
7
> <PUBCHEM_CACTVS_HBOND_DONOR>
3
> <PUBCHEM_CACTVS_ROTATABLE_BOND>
4
> <PUBCHEM_CACTVS_SUBSKEYS>
AAADccBzOAAAAAAAAAAAAAAAAAAAAAAAAAA0QAAAAAAAAAABAAAAHgAICAAACBTxkAcwDoAABgCCACBCAAACCAAgIAAIiAAGCIgfNiKEsRqjeCCnwBEPqAfwcAwAAAAAAAAAAAAAAAAAAAAAAAAAAAAAAA==
> <PUBCHEM_IUPAC_OPENEYE_NAME>
(2R,3S,4S,5R,6S)-2-(azidomethyl)-6-phenoxy-tetrahydropyran-3,4,5-triol
> <PUBCHEM_IUPAC_CAS_NAME>
(2R,3S,4S,5R,6S)-2-(azidomethyl)-6-phenoxyoxane-3,4,5-triol
> <PUBCHEM_IUPAC_NAME_MARKUP>
(2<I>R</I>,3<I>S</I>,4<I>S</I>,5<I>R</I>,6<I>S</I>)-2-(azidomethyl)-6-phenoxyoxane-3,4,5-triol
> <PUBCHEM_IUPAC_NAME>
(2R,3S,4S,5R,6S)-2-(azidomethyl)-6-phenoxyoxane-3,4,5-triol
> <PUBCHEM_IUPAC_SYSTEMATIC_NAME>
(2R,3S,4S,5R,6S)-2-(azidomethyl)-6-phenoxy-oxane-3,4,5-triol
> <PUBCHEM_IUPAC_TRADITIONAL_NAME>
(2R,3S,4S,5R,6S)-2-(azidomethyl)-6-phenoxy-tetrahydropyran-3,4,5-triol
> <PUBCHEM_IUPAC_INCHI>
InChI=1S/C12H15N3O5/c13-15-14-6-8-9(16)10(17)11(18)12(20-8)19-7-4-2-1-3-5-7/h1-5,8-12,16-18H,6H2/t8-,9-,10+,11-,12-/m1/s1
> <PUBCHEM_IUPAC_INCHIKEY>
ALQOBJRJINPRMC-RMPHRYRLSA-N
> <PUBCHEM_XLOGP3>
0.1
> <PUBCHEM_EXACT_MASS>
281.10117059
> <PUBCHEM_MOLECULAR_FORMULA>
C12H15N3O5
> <PUBCHEM_MOLECULAR_WEIGHT>
281.26
> <PUBCHEM_OPENEYE_CAN_SMILES>
C1=CC=C(C=C1)OC2C(C(C(C(O2)CN=[N+]=[N-])O)O)O
> <PUBCHEM_OPENEYE_ISO_SMILES>
C1=CC=C(C=C1)O[C@H]2[C@@H]([C@H]([C@@H]([C@H](O2)CN=[N+]=[N-])O)O)O
> <PUBCHEM_CACTVS_TPSA>
93.5
> <PUBCHEM_MONOISOTOPIC_WEIGHT>
281.10117059
> <PUBCHEM_TOTAL_CHARGE>
0
> <PUBCHEM_HEAVY_ATOM_COUNT>
20
> <PUBCHEM_ATOM_DEF_STEREO_COUNT>
5
> <PUBCHEM_ATOM_UDEF_STEREO_COUNT>
0
> <PUBCHEM_BOND_DEF_STEREO_COUNT>
0
> <PUBCHEM_BOND_UDEF_STEREO_COUNT>
0
> <PUBCHEM_ISOTOPIC_ATOM_COUNT>
0
> <PUBCHEM_COMPONENT_COUNT>
1
> <PUBCHEM_CACTVS_TAUTO_COUNT>
-1
> <PUBCHEM_COORDINATE_TYPE>
1
5
255
> <PUBCHEM_BONDANNOTATIONS>
11  14  5
15  16  8
15  17  8
16  18  8
17  19  8
18  20  8
19  20  8
9  2  6
10  3  5
13  4  5
12  5  6
$$$$
