511898
  -OEChem-10302200282D
 40 41  0     1  0  0  0  0  0999 V2000
    5.4641   -0.1550    0.0000 O   0  0  0  0  0  0  0  0  0  0  0  0
    3.7320   -2.1550    0.0000 O   0  0  0  0  0  0  0  0  0  0  0  0
    5.4641   -3.1550    0.0000 O   0  0  0  0  0  0  0  0  0  0  0  0
    7.1962   -0.1550    0.0000 O   0  0  0  0  0  0  0  0  0  0  0  0
    7.1962   -2.1550    0.0000 O   0  0  0  0  0  0  0  0  0  0  0  0
    3.7320    0.8450    0.0000 O   0  0  0  0  0  0  0  0  0  0  0  0
    2.0000    2.8450    0.0000 O   0  0  0  0  0  0  0  0  0  0  0  0
    3.7320    2.8450    0.0000 O   0  0  0  0  0  0  0  0  0  0  0  0
    4.5981   -1.6550    0.0000 C   0  0  1  0  0  0  0  0  0  0  0  0
    5.4641   -2.1550    0.0000 C   0  0  1  0  0  0  0  0  0  0  0  0
    4.5981   -0.6550    0.0000 C   0  0  1  0  0  0  0  0  0  0  0  0
    6.3301   -1.6550    0.0000 C   0  0  2  0  0  0  0  0  0  0  0  0
    6.3301   -0.6550    0.0000 C   0  0  1  0  0  0  0  0  0  0  0  0
    3.7320   -0.1550    0.0000 C   0  0  0  0  0  0  0  0  0  0  0  0
    7.1962    0.8450    0.0000 C   0  0  0  0  0  0  0  0  0  0  0  0
    2.8660    1.3450    0.0000 C   0  0  0  0  0  0  0  0  0  0  0  0
    6.3301    1.3450    0.0000 C   0  0  0  0  0  0  0  0  0  0  0  0
    8.0622    1.3450    0.0000 C   0  0  0  0  0  0  0  0  0  0  0  0
    6.3301    2.3450    0.0000 C   0  0  0  0  0  0  0  0  0  0  0  0
    8.0622    2.3450    0.0000 C   0  0  0  0  0  0  0  0  0  0  0  0
    2.8660    2.3450    0.0000 C   0  0  0  0  0  0  0  0  0  0  0  0
    7.1962    2.8450    0.0000 C   0  0  0  0  0  0  0  0  0  0  0  0
    4.5981   -2.2750    0.0000 H   0  0  0  0  0  0  0  0  0  0  0  0
    4.9272   -2.4650    0.0000 H   0  0  0  0  0  0  0  0  0  0  0  0
    4.5981   -0.0350    0.0000 H   0  0  0  0  0  0  0  0  0  0  0  0
    6.3301   -2.2750    0.0000 H   0  0  0  0  0  0  0  0  0  0  0  0
    6.3301   -0.0350    0.0000 H   0  0  0  0  0  0  0  0  0  0  0  0
    3.1215   -0.0473    0.0000 H   0  0  0  0  0  0  0  0  0  0  0  0
    3.5200   -0.7376    0.0000 H   0  0  0  0  0  0  0  0  0  0  0  0
    3.1951   -1.8450    0.0000 H   0  0  0  0  0  0  0  0  0  0  0  0
    4.9272   -3.4650    0.0000 H   0  0  0  0  0  0  0  0  0  0  0  0
    7.7331   -1.8450    0.0000 H   0  0  0  0  0  0  0  0  0  0  0  0
    2.2554    1.4527    0.0000 H   0  0  0  0  0  0  0  0  0  0  0  0
    2.6540    0.7624    0.0000 H   0  0  0  0  0  0  0  0  0  0  0  0
    5.7932    1.0350    0.0000 H   0  0  0  0  0  0  0  0  0  0  0  0
    8.5991    1.0350    0.0000 H   0  0  0  0  0  0  0  0  0  0  0  0
    5.7932    2.6550    0.0000 H   0  0  0  0  0  0  0  0  0  0  0  0
    8.5991    2.6550    0.0000 H   0  0  0  0  0  0  0  0  0  0  0  0
    7.1962    3.4650    0.0000 H   0  0  0  0  0  0  0  0  0  0  0  0
    2.0000    3.4650    0.0000 H   0  0  0  0  0  0  0  0  0  0  0  0
  1 11  1  0  0  0  0
  1 13  1  0  0  0  0
  9  2  1  6  0  0  0
  2 30  1  0  0  0  0
 10  3  1  1  0  0  0
  3 31  1  0  0  0  0
 13  4  1  1  0  0  0
  4 15  1  0  0  0  0
 12  5  1  6  0  0  0
  5 32  1  0  0  0  0
  6 14  1  0  0  0  0
  6 16  1  0  0  0  0
  7 21  1  0  0  0  0
  7 40  1  0  0  0  0
  8 21  2  0  0  0  0
  9 10  1  0  0  0  0
  9 11  1  0  0  0  0
  9 23  1  0  0  0  0
 10 12  1  0  0  0  0
 10 24  1  0  0  0  0
 11 14  1  1  0  0  0
 11 25  1  0  0  0  0
 12 13  1  0  0  0  0
 12 26  1  0  0  0  0
 13 27  1  0  0  0  0
 14 28  1  0  0  0  0
 14 29  1  0  0  0  0
 15 17  2  0  0  0  0
 15 18  1  0  0  0  0
 16 21  1  0  0  0  0
 16 33  1  0  0  0  0
 16 34  1  0  0  0  0
 17 19  1  0  0  0  0
 17 35  1  0  0  0  0
 18 20  2  0  0  0  0
 18 36  1  0  0  0  0
 19 22  2  0  0  0  0
 19 37  1  0  0  0  0
 20 22  1  0  0  0  0
 20 38  1  0  0  0  0
 22 39  1  0  0  0  0
M  END
> <PUBCHEM_COMPOUND_CID>
511898
> <PUBCHEM_COMPOUND_CANONICALIZED>
1
> <PUBCHEM_CACTVS_COMPLEXITY>
357
> <PUBCHEM_CACTVS_HBOND_ACCEPTOR>
8
> <PUBCHEM_CACTVS_HBOND_DONOR>
4
> <PUBCHEM_CACTVS_ROTATABLE_BOND>
6
> <PUBCHEM_CACTVS_SUBSKEYS>
AAADceBwPAAAAAAAAAAAAAAAAAAAAAAAAAA0QAAAAAAAAAABAAAAGgAACAAACBSwkAMwDoAABgCIACDSCAICCAAgIAAIiABGCIgdNiKEMR6ieCClwBEPqAfAYAwAAAAAAAAAAAAAAAAAAAAAAAAAAAAAAA==
> <PUBCHEM_IUPAC_OPENEYE_NAME>
2-[[(2R,3S,4S,5R,6S)-3,4,5-trihydroxy-6-phenoxy-tetrahydropyran-2-yl]methoxy]acetic acid
> <PUBCHEM_IUPAC_CAS_NAME>
2-[[(2R,3S,4S,5R,6S)-3,4,5-trihydroxy-6-phenoxy-2-oxanyl]methoxy]acetic acid
> <PUBCHEM_IUPAC_NAME_MARKUP>
2-[[(2<I>R</I>,3<I>S</I>,4<I>S</I>,5<I>R</I>,6<I>S</I>)-3,4,5-trihydroxy-6-phenoxyoxan-2-yl]methoxy]acetic acid
> <PUBCHEM_IUPAC_NAME>
2-[[(2R,3S,4S,5R,6S)-3,4,5-trihydroxy-6-phenoxyoxan-2-yl]methoxy]acetic acid
> <PUBCHEM_IUPAC_SYSTEMATIC_NAME>
2-[[(2R,3S,4S,5R,6S)-3,4,5-tris(oxidanyl)-6-phenoxy-oxan-2-yl]methoxy]ethanoic acid
> <PUBCHEM_IUPAC_TRADITIONAL_NAME>
2-[[(2R,3S,4S,5R,6S)-3,4,5-trihydroxy-6-phenoxy-tetrahydropyran-2-yl]methoxy]acetic acid
> <PUBCHEM_IUPAC_INCHI>
InChI=1S/C14H18O8/c15-10(16)7-20-6-9-11(17)12(18)13(19)14(22-9)21-8-4-2-1-3-5-8/h1-5,9,11-14,17-19H,6-7H2,(H,15,16)/t9-,11-,12+,13-,14-/m1/s1
> <PUBCHEM_IUPAC_INCHIKEY>
UWHIFGZPGWUPJB-RGCYKPLRSA-N
> <PUBCHEM_XLOGP3>
-1.3
> <PUBCHEM_EXACT_MASS>
314.10016753
> <PUBCHEM_MOLECULAR_FORMULA>
C14H18O8
> <PUBCHEM_MOLECULAR_WEIGHT>
314.29
> <PUBCHEM_OPENEYE_CAN_SMILES>
C1=CC=C(C=C1)OC2C(C(C(C(O2)COCC(=O)O)O)O)O
> <PUBCHEM_OPENEYE_ISO_SMILES>
C1=CC=C(C=C1)O[C@H]2[C@@H]([C@H]([C@@H]([C@H](O2)COCC(=O)O)O)O)O
> <PUBCHEM_CACTVS_TPSA>
126
> <PUBCHEM_MONOISOTOPIC_WEIGHT>
314.10016753
> <PUBCHEM_TOTAL_CHARGE>
0
> <PUBCHEM_HEAVY_ATOM_COUNT>
22
> <PUBCHEM_ATOM_DEF_STEREO_COUNT>
5
> <PUBCHEM_ATOM_UDEF_STEREO_COUNT>
0
> <PUBCHEM_BOND_DEF_STEREO_COUNT>
0
> <PUBCHEM_BOND_UDEF_STEREO_COUNT>
0
> <PUBCHEM_ISOTOPIC_ATOM_COUNT>
0
> <PUBCHEM_COMPONENT_COUNT>
1
> <PUBCHEM_CACTVS_TAUTO_COUNT>
-1
> <PUBCHEM_COORDINATE_TYPE>
1
5
255
> <PUBCHEM_BONDANNOTATIONS>
11  14  5
15  17  8
15  18  8
17  19  8
18  20  8
19  22  8
9  2  6
20  22  8
10  3  5
13  4  5
12  5  6
$$$$
