511867
  -OEChem-10302200282D
141141  0     1  0  0  0  0  0999 V2000
    4.2690   -4.8450    0.0000 O   0  0  0  0  0  0  0  0  0  0  0  0
    6.0010   -4.8450    0.0000 O   0  0  0  0  0  0  0  0  0  0  0  0
    4.2690   -7.8450    0.0000 O   0  0  0  0  0  0  0  0  0  0  0  0
    2.5369   -6.8450    0.0000 O   0  0  0  0  0  0  0  0  0  0  0  0
    6.0010   -6.8450    0.0000 O   0  0  0  0  0  0  0  0  0  0  0  0
    2.5369   -3.8450    0.0000 O   0  0  0  0  0  0  0  0  0  0  0  0
    6.8671   -2.3450    0.0000 O   0  0  0  0  0  0  0  0  0  0  0  0
    8.5991   -3.3450    0.0000 O   0  0  0  0  0  0  0  0  0  0  0  0
    8.5991   -2.3450    0.0000 O   0  0  0  0  0  0  0  0  0  0  0  0
    9.4651   -4.8450    0.0000 O   0  0  0  0  0  0  0  0  0  0  0  0
    4.2690   -6.8450    0.0000 C   0  0  1  0  0  0  0  0  0  0  0  0
    3.4030   -6.3450    0.0000 C   0  0  1  0  0  0  0  0  0  0  0  0
    5.1350   -6.3450    0.0000 C   0  0  2  0  0  0  0  0  0  0  0  0
    3.4030   -5.3450    0.0000 C   0  0  1  0  0  0  0  0  0  0  0  0
    5.1350   -5.3450    0.0000 C   0  0  1  0  0  0  0  0  0  0  0  0
    2.5369   -4.8450    0.0000 C   0  0  0  0  0  0  0  0  0  0  0  0
    6.0010   -3.8450    0.0000 C   0  0  0  0  0  0  0  0  0  0  0  0
    6.8671   -3.3450    0.0000 C   0  0  3  0  0  0  0  0  0  0  0  0
   18.1254   -3.8450    0.0000 C   0  0  0  0  0  0  0  0  0  0  0  0
   18.9914   -3.3450    0.0000 C   0  0  0  0  0  0  0  0  0  0  0  0
   17.2594   -3.3450    0.0000 C   0  0  0  0  0  0  0  0  0  0  0  0
   19.8574   -3.8450    0.0000 C   0  0  0  0  0  0  0  0  0  0  0  0
   16.3933   -3.8450    0.0000 C   0  0  0  0  0  0  0  0  0  0  0  0
   20.7235   -3.3450    0.0000 C   0  0  0  0  0  0  0  0  0  0  0  0
   15.5273   -3.3450    0.0000 C   0  0  0  0  0  0  0  0  0  0  0  0
   21.5895   -3.8450    0.0000 C   0  0  0  0  0  0  0  0  0  0  0  0
   14.6613   -3.8450    0.0000 C   0  0  0  0  0  0  0  0  0  0  0  0
   22.4555   -3.3450    0.0000 C   0  0  0  0  0  0  0  0  0  0  0  0
   13.7953   -3.3450    0.0000 C   0  0  0  0  0  0  0  0  0  0  0  0
   23.3215   -3.8450    0.0000 C   0  0  0  0  0  0  0  0  0  0  0  0
   12.9292   -3.8450    0.0000 C   0  0  0  0  0  0  0  0  0  0  0  0
    7.7331   -3.8450    0.0000 C   0  0  0  0  0  0  0  0  0  0  0  0
   24.1876   -3.3450    0.0000 C   0  0  0  0  0  0  0  0  0  0  0  0
   12.0632   -3.3450    0.0000 C   0  0  0  0  0  0  0  0  0  0  0  0
    9.4651    2.1550    0.0000 C   0  0  0  0  0  0  0  0  0  0  0  0
   10.3312    2.6550    0.0000 C   0  0  0  0  0  0  0  0  0  0  0  0
    9.4651    1.1550    0.0000 C   0  0  0  0  0  0  0  0  0  0  0  0
   10.3312    3.6550    0.0000 C   0  0  0  0  0  0  0  0  0  0  0  0
    8.5991    0.6550    0.0000 C   0  0  0  0  0  0  0  0  0  0  0  0
   25.0536   -3.8450    0.0000 C   0  0  0  0  0  0  0  0  0  0  0  0
   11.1972    4.1550    0.0000 C   0  0  0  0  0  0  0  0  0  0  0  0
   11.1972   -3.8450    0.0000 C   0  0  0  0  0  0  0  0  0  0  0  0
    8.5991   -0.3450    0.0000 C   0  0  0  0  0  0  0  0  0  0  0  0
   11.1972    5.1550    0.0000 C   0  0  0  0  0  0  0  0  0  0  0  0
    7.7331   -0.8450    0.0000 C   0  0  0  0  0  0  0  0  0  0  0  0
   10.3312   -3.3450    0.0000 C   0  0  0  0  0  0  0  0  0  0  0  0
   25.9196   -3.3450    0.0000 C   0  0  0  0  0  0  0  0  0  0  0  0
   12.0632    5.6550    0.0000 C   0  0  0  0  0  0  0  0  0  0  0  0
    7.7331   -1.8450    0.0000 C   0  0  0  0  0  0  0  0  0  0  0  0
   12.0632    6.6550    0.0000 C   0  0  0  0  0  0  0  0  0  0  0  0
    9.4651   -3.8450    0.0000 C   0  0  0  0  0  0  0  0  0  0  0  0
   26.7856   -3.8450    0.0000 C   0  0  0  0  0  0  0  0  0  0  0  0
   12.9292    7.1550    0.0000 C   0  0  0  0  0  0  0  0  0  0  0  0
   27.6517   -3.3450    0.0000 C   0  0  0  0  0  0  0  0  0  0  0  0
   12.9292    8.1550    0.0000 C   0  0  0  0  0  0  0  0  0  0  0  0
    3.7320   -7.1550    0.0000 H   0  0  0  0  0  0  0  0  0  0  0  0
    3.4030   -6.9650    0.0000 H   0  0  0  0  0  0  0  0  0  0  0  0
    5.1350   -6.9650    0.0000 H   0  0  0  0  0  0  0  0  0  0  0  0
    3.4030   -4.7250    0.0000 H   0  0  0  0  0  0  0  0  0  0  0  0
    5.1350   -4.7250    0.0000 H   0  0  0  0  0  0  0  0  0  0  0  0
    1.9264   -4.7373    0.0000 H   0  0  0  0  0  0  0  0  0  0  0  0
    2.3249   -5.4276    0.0000 H   0  0  0  0  0  0  0  0  0  0  0  0
    3.7320   -8.1550    0.0000 H   0  0  0  0  0  0  0  0  0  0  0  0
    2.0000   -6.5350    0.0000 H   0  0  0  0  0  0  0  0  0  0  0  0
    5.7890   -3.2624    0.0000 H   0  0  0  0  0  0  0  0  0  0  0  0
    5.3905   -3.9527    0.0000 H   0  0  0  0  0  0  0  0  0  0  0  0
    6.5380   -6.5350    0.0000 H   0  0  0  0  0  0  0  0  0  0  0  0
    7.4040   -3.0350    0.0000 H   0  0  0  0  0  0  0  0  0  0  0  0
   17.7269   -4.3200    0.0000 H   0  0  0  0  0  0  0  0  0  0  0  0
   18.5239   -4.3200    0.0000 H   0  0  0  0  0  0  0  0  0  0  0  0
   19.3899   -2.8700    0.0000 H   0  0  0  0  0  0  0  0  0  0  0  0
   18.5929   -2.8700    0.0000 H   0  0  0  0  0  0  0  0  0  0  0  0
   17.6579   -2.8700    0.0000 H   0  0  0  0  0  0  0  0  0  0  0  0
   16.8608   -2.8700    0.0000 H   0  0  0  0  0  0  0  0  0  0  0  0
   19.4589   -4.3200    0.0000 H   0  0  0  0  0  0  0  0  0  0  0  0
   20.2560   -4.3200    0.0000 H   0  0  0  0  0  0  0  0  0  0  0  0
   15.9948   -4.3200    0.0000 H   0  0  0  0  0  0  0  0  0  0  0  0
   16.7919   -4.3200    0.0000 H   0  0  0  0  0  0  0  0  0  0  0  0
   21.1220   -2.8700    0.0000 H   0  0  0  0  0  0  0  0  0  0  0  0
   20.3249   -2.8700    0.0000 H   0  0  0  0  0  0  0  0  0  0  0  0
   15.9258   -2.8700    0.0000 H   0  0  0  0  0  0  0  0  0  0  0  0
   15.1288   -2.8700    0.0000 H   0  0  0  0  0  0  0  0  0  0  0  0
   21.1910   -4.3200    0.0000 H   0  0  0  0  0  0  0  0  0  0  0  0
   21.9880   -4.3200    0.0000 H   0  0  0  0  0  0  0  0  0  0  0  0
   14.2628   -4.3200    0.0000 H   0  0  0  0  0  0  0  0  0  0  0  0
   15.0598   -4.3200    0.0000 H   0  0  0  0  0  0  0  0  0  0  0  0
   22.8540   -2.8700    0.0000 H   0  0  0  0  0  0  0  0  0  0  0  0
   22.0570   -2.8700    0.0000 H   0  0  0  0  0  0  0  0  0  0  0  0
   14.1938   -2.8700    0.0000 H   0  0  0  0  0  0  0  0  0  0  0  0
   13.3967   -2.8700    0.0000 H   0  0  0  0  0  0  0  0  0  0  0  0
   22.9230   -4.3200    0.0000 H   0  0  0  0  0  0  0  0  0  0  0  0
   23.7201   -4.3200    0.0000 H   0  0  0  0  0  0  0  0  0  0  0  0
   12.5307   -4.3200    0.0000 H   0  0  0  0  0  0  0  0  0  0  0  0
   13.3278   -4.3200    0.0000 H   0  0  0  0  0  0  0  0  0  0  0  0
    2.0000   -3.5350    0.0000 H   0  0  0  0  0  0  0  0  0  0  0  0
    7.3346   -4.3200    0.0000 H   0  0  0  0  0  0  0  0  0  0  0  0
    8.1316   -4.3200    0.0000 H   0  0  0  0  0  0  0  0  0  0  0  0
   24.5861   -2.8700    0.0000 H   0  0  0  0  0  0  0  0  0  0  0  0
   23.7890   -2.8700    0.0000 H   0  0  0  0  0  0  0  0  0  0  0  0
   12.4617   -2.8700    0.0000 H   0  0  0  0  0  0  0  0  0  0  0  0
   11.6647   -2.8700    0.0000 H   0  0  0  0  0  0  0  0  0  0  0  0
    9.2531    2.7376    0.0000 H   0  0  0  0  0  0  0  0  0  0  0  0
    8.8546    2.0473    0.0000 H   0  0  0  0  0  0  0  0  0  0  0  0
   10.5432    2.0724    0.0000 H   0  0  0  0  0  0  0  0  0  0  0  0
   10.9417    2.7627    0.0000 H   0  0  0  0  0  0  0  0  0  0  0  0
    9.6772    0.5724    0.0000 H   0  0  0  0  0  0  0  0  0  0  0  0
   10.0757    1.2627    0.0000 H   0  0  0  0  0  0  0  0  0  0  0  0
   10.1191    4.2376    0.0000 H   0  0  0  0  0  0  0  0  0  0  0  0
    9.7206    3.5473    0.0000 H   0  0  0  0  0  0  0  0  0  0  0  0
    8.3871    1.2376    0.0000 H   0  0  0  0  0  0  0  0  0  0  0  0
    7.9885    0.5473    0.0000 H   0  0  0  0  0  0  0  0  0  0  0  0
   11.4092    3.5724    0.0000 H   0  0  0  0  0  0  0  0  0  0  0  0
   11.8078    4.2627    0.0000 H   0  0  0  0  0  0  0  0  0  0  0  0
   24.6551   -4.3200    0.0000 H   0  0  0  0  0  0  0  0  0  0  0  0
   25.4521   -4.3200    0.0000 H   0  0  0  0  0  0  0  0  0  0  0  0
   10.7987   -4.3200    0.0000 H   0  0  0  0  0  0  0  0  0  0  0  0
   11.5957   -4.3200    0.0000 H   0  0  0  0  0  0  0  0  0  0  0  0
    8.8112   -0.9276    0.0000 H   0  0  0  0  0  0  0  0  0  0  0  0
    9.2097   -0.2373    0.0000 H   0  0  0  0  0  0  0  0  0  0  0  0
   10.9851    5.7376    0.0000 H   0  0  0  0  0  0  0  0  0  0  0  0
   10.5866    5.0473    0.0000 H   0  0  0  0  0  0  0  0  0  0  0  0
    7.5210   -0.2624    0.0000 H   0  0  0  0  0  0  0  0  0  0  0  0
    7.1225   -0.9527    0.0000 H   0  0  0  0  0  0  0  0  0  0  0  0
   10.7297   -2.8700    0.0000 H   0  0  0  0  0  0  0  0  0  0  0  0
    9.9326   -2.8700    0.0000 H   0  0  0  0  0  0  0  0  0  0  0  0
   26.3182   -2.8700    0.0000 H   0  0  0  0  0  0  0  0  0  0  0  0
   25.5211   -2.8700    0.0000 H   0  0  0  0  0  0  0  0  0  0  0  0
   12.2753    5.0724    0.0000 H   0  0  0  0  0  0  0  0  0  0  0  0
   12.6738    5.7627    0.0000 H   0  0  0  0  0  0  0  0  0  0  0  0
   11.8512    7.2376    0.0000 H   0  0  0  0  0  0  0  0  0  0  0  0
   11.4526    6.5473    0.0000 H   0  0  0  0  0  0  0  0  0  0  0  0
   26.3871   -4.3200    0.0000 H   0  0  0  0  0  0  0  0  0  0  0  0
   27.1842   -4.3200    0.0000 H   0  0  0  0  0  0  0  0  0  0  0  0
   13.1413    6.5724    0.0000 H   0  0  0  0  0  0  0  0  0  0  0  0
   13.5398    7.2627    0.0000 H   0  0  0  0  0  0  0  0  0  0  0  0
   27.9617   -3.8819    0.0000 H   0  0  0  0  0  0  0  0  0  0  0  0
   28.1886   -3.0350    0.0000 H   0  0  0  0  0  0  0  0  0  0  0  0
   27.3417   -2.8081    0.0000 H   0  0  0  0  0  0  0  0  0  0  0  0
   13.5492    8.1550    0.0000 H   0  0  0  0  0  0  0  0  0  0  0  0
   12.9292    8.7750    0.0000 H   0  0  0  0  0  0  0  0  0  0  0  0
   12.3092    8.1550    0.0000 H   0  0  0  0  0  0  0  0  0  0  0  0
  1 14  1  0  0  0  0
  1 15  1  0  0  0  0
 15  2  1  1  0  0  0
  2 17  1  0  0  0  0
 11  3  1  1  0  0  0
  3 63  1  0  0  0  0
 12  4  1  6  0  0  0
  4 64  1  0  0  0  0
 13  5  1  6  0  0  0
  5 67  1  0  0  0  0
  6 16  1  0  0  0  0
  6 95  1  0  0  0  0
  7 18  1  0  0  0  0
  7 49  1  0  0  0  0
  8 32  1  0  0  0  0
  8 51  1  0  0  0  0
  9 49  2  0  0  0  0
 10 51  2  0  0  0  0
 11 12  1  0  0  0  0
 11 13  1  0  0  0  0
 11 56  1  0  0  0  0
 12 14  1  0  0  0  0
 12 57  1  0  0  0  0
 13 15  1  0  0  0  0
 13 58  1  0  0  0  0
 14 16  1  1  0  0  0
 14 59  1  0  0  0  0
 15 60  1  0  0  0  0
 16 61  1  0  0  0  0
 16 62  1  0  0  0  0
 17 18  1  0  0  0  0
 17 65  1  0  0  0  0
 17 66  1  0  0  0  0
 18 32  1  0  0  0  0
 18 68  1  0  0  0  0
 19 20  1  0  0  0  0
 19 21  1  0  0  0  0
 19 69  1  0  0  0  0
 19 70  1  0  0  0  0
 20 22  1  0  0  0  0
 20 71  1  0  0  0  0
 20 72  1  0  0  0  0
 21 23  1  0  0  0  0
 21 73  1  0  0  0  0
 21 74  1  0  0  0  0
 22 24  1  0  0  0  0
 22 75  1  0  0  0  0
 22 76  1  0  0  0  0
 23 25  1  0  0  0  0
 23 77  1  0  0  0  0
 23 78  1  0  0  0  0
 24 26  1  0  0  0  0
 24 79  1  0  0  0  0
 24 80  1  0  0  0  0
 25 27  1  0  0  0  0
 25 81  1  0  0  0  0
 25 82  1  0  0  0  0
 26 28  1  0  0  0  0
 26 83  1  0  0  0  0
 26 84  1  0  0  0  0
 27 29  1  0  0  0  0
 27 85  1  0  0  0  0
 27 86  1  0  0  0  0
 28 30  1  0  0  0  0
 28 87  1  0  0  0  0
 28 88  1  0  0  0  0
 29 31  1  0  0  0  0
 29 89  1  0  0  0  0
 29 90  1  0  0  0  0
 30 33  1  0  0  0  0
 30 91  1  0  0  0  0
 30 92  1  0  0  0  0
 31 34  1  0  0  0  0
 31 93  1  0  0  0  0
 31 94  1  0  0  0  0
 32 96  1  0  0  0  0
 32 97  1  0  0  0  0
 33 40  1  0  0  0  0
 33 98  1  0  0  0  0
 33 99  1  0  0  0  0
 34 42  1  0  0  0  0
 34100  1  0  0  0  0
 34101  1  0  0  0  0
 35 36  1  0  0  0  0
 35 37  1  0  0  0  0
 35102  1  0  0  0  0
 35103  1  0  0  0  0
 36 38  1  0  0  0  0
 36104  1  0  0  0  0
 36105  1  0  0  0  0
 37 39  1  0  0  0  0
 37106  1  0  0  0  0
 37107  1  0  0  0  0
 38 41  1  0  0  0  0
 38108  1  0  0  0  0
 38109  1  0  0  0  0
 39 43  1  0  0  0  0
 39110  1  0  0  0  0
 39111  1  0  0  0  0
 40 47  1  0  0  0  0
 40114  1  0  0  0  0
 40115  1  0  0  0  0
 41 44  1  0  0  0  0
 41112  1  0  0  0  0
 41113  1  0  0  0  0
 42 46  1  0  0  0  0
 42116  1  0  0  0  0
 42117  1  0  0  0  0
 43 45  1  0  0  0  0
 43118  1  0  0  0  0
 43119  1  0  0  0  0
 44 48  1  0  0  0  0
 44120  1  0  0  0  0
 44121  1  0  0  0  0
 45 49  1  0  0  0  0
 45122  1  0  0  0  0
 45123  1  0  0  0  0
 46 51  1  0  0  0  0
 46124  1  0  0  0  0
 46125  1  0  0  0  0
 47 52  1  0  0  0  0
 47126  1  0  0  0  0
 47127  1  0  0  0  0
 48 50  1  0  0  0  0
 48128  1  0  0  0  0
 48129  1  0  0  0  0
 50 53  1  0  0  0  0
 50130  1  0  0  0  0
 50131  1  0  0  0  0
 52 54  1  0  0  0  0
 52132  1  0  0  0  0
 52133  1  0  0  0  0
 53 55  1  0  0  0  0
 53134  1  0  0  0  0
 53135  1  0  0  0  0
 54136  1  0  0  0  0
 54137  1  0  0  0  0
 54138  1  0  0  0  0
 55139  1  0  0  0  0
 55140  1  0  0  0  0
 55141  1  0  0  0  0
M  END
> <PUBCHEM_COMPOUND_CID>
511867
> <PUBCHEM_COMPOUND_CANONICALIZED>
1
> <PUBCHEM_CACTVS_COMPLEXITY>
873
> <PUBCHEM_CACTVS_HBOND_ACCEPTOR>
10
> <PUBCHEM_CACTVS_HBOND_DONOR>
4
> <PUBCHEM_CACTVS_ROTATABLE_BOND>
41
> <PUBCHEM_CACTVS_SUBSKEYS>
AAADcfB8PAAAAAAAAAAAAAAAAAAAAAAAAAAkAAAAAAAAAAAAAAAAGgAACAAACBSwgAMCCAAABgAIAACQCAAAAAAAAAAAAAEAAAAREBIAAAAiQAAFAAAHAAHI6KyAAAAAAAAAAAAAAAAAAAAAAAAAAAAAAA==
> <PUBCHEM_IUPAC_OPENEYE_NAME>
[2-tetradecanoyloxy-3-[(2R,3R,4S,5S,6R)-3,4,5-trihydroxy-6-(hydroxymethyl)tetrahydropyran-2-yl]oxy-propyl] docosanoate
> <PUBCHEM_IUPAC_CAS_NAME>
docosanoic acid [2-(1-oxotetradecoxy)-3-[[(2R,3R,4S,5S,6R)-3,4,5-trihydroxy-6-(hydroxymethyl)-2-oxanyl]oxy]propyl] ester
> <PUBCHEM_IUPAC_NAME_MARKUP>
[2-tetradecanoyloxy-3-[(2<I>R</I>,3<I>R</I>,4<I>S</I>,5<I>S</I>,6<I>R</I>)-3,4,5-trihydroxy-6-(hydroxymethyl)oxan-2-yl]oxypropyl] docosanoate
> <PUBCHEM_IUPAC_NAME>
[2-tetradecanoyloxy-3-[(2R,3R,4S,5S,6R)-3,4,5-trihydroxy-6-(hydroxymethyl)oxan-2-yl]oxypropyl] docosanoate
> <PUBCHEM_IUPAC_SYSTEMATIC_NAME>
[3-[(2R,3R,4S,5S,6R)-6-(hydroxymethyl)-3,4,5-tris(oxidanyl)oxan-2-yl]oxy-2-tetradecanoyloxy-propyl] docosanoate
> <PUBCHEM_IUPAC_TRADITIONAL_NAME>
behenic acid [2-tetradecanoyloxy-3-[(2R,3R,4S,5S,6R)-3,4,5-trihydroxy-6-methylol-tetrahydropyran-2-yl]oxy-propyl] ester
> <PUBCHEM_IUPAC_INCHI>
InChI=1S/C45H86O10/c1-3-5-7-9-11-13-15-16-17-18-19-20-21-22-24-25-27-29-31-33-40(47)52-36-38(37-53-45-44(51)43(50)42(49)39(35-46)55-45)54-41(48)34-32-30-28-26-23-14-12-10-8-6-4-2/h38-39,42-46,49-51H,3-37H2,1-2H3/t38?,39-,42-,43+,44-,45-/m1/s1
> <PUBCHEM_IUPAC_INCHIKEY>
PXKHSWDXQADGDL-BOFZLWKYSA-N
> <PUBCHEM_XLOGP3_AA>
14.6
> <PUBCHEM_EXACT_MASS>
786.62209894
> <PUBCHEM_MOLECULAR_FORMULA>
C45H86O10
> <PUBCHEM_MOLECULAR_WEIGHT>
787.2
> <PUBCHEM_OPENEYE_CAN_SMILES>
CCCCCCCCCCCCCCCCCCCCCC(=O)OCC(COC1C(C(C(C(O1)CO)O)O)O)OC(=O)CCCCCCCCCCCCC
> <PUBCHEM_OPENEYE_ISO_SMILES>
CCCCCCCCCCCCCCCCCCCCCC(=O)OCC(CO[C@H]1[C@@H]([C@H]([C@@H]([C@H](O1)CO)O)O)O)OC(=O)CCCCCCCCCCCCC
> <PUBCHEM_CACTVS_TPSA>
152
> <PUBCHEM_MONOISOTOPIC_WEIGHT>
786.62209894
> <PUBCHEM_TOTAL_CHARGE>
0
> <PUBCHEM_HEAVY_ATOM_COUNT>
55
> <PUBCHEM_ATOM_DEF_STEREO_COUNT>
5
> <PUBCHEM_ATOM_UDEF_STEREO_COUNT>
1
> <PUBCHEM_BOND_DEF_STEREO_COUNT>
0
> <PUBCHEM_BOND_UDEF_STEREO_COUNT>
0
> <PUBCHEM_ISOTOPIC_ATOM_COUNT>
0
> <PUBCHEM_COMPONENT_COUNT>
1
> <PUBCHEM_CACTVS_TAUTO_COUNT>
-1
> <PUBCHEM_COORDINATE_TYPE>
1
5
255
> <PUBCHEM_BONDANNOTATIONS>
14  16  5
18  17  3
15  2  5
11  3  5
12  4  6
13  5  6
$$$$
