511848
  -OEChem-10302200282D
 38 39  0     1  0  0  0  0  0999 V2000
    4.6783   -0.1149    0.0000 Se  0  0  0  0  0  0  0  0  0  0  0  0
    8.2619    0.6899    0.0000 O   0  0  0  0  0  0  0  0  0  0  0  0
    6.2619   -1.0422    0.0000 O   0  0  0  0  0  0  0  0  0  0  0  0
    7.7619   -1.9082    0.0000 O   0  0  0  0  0  0  0  0  0  0  0  0
    9.7619   -0.1761    0.0000 O   0  0  0  0  0  0  0  0  0  0  0  0
   10.7619   -1.9082    0.0000 O   0  0  0  0  0  0  0  0  0  0  0  0
    4.9889    2.4451    0.0000 O   0  0  0  0  0  0  0  0  0  0  0  0
    5.2619    0.6899    0.0000 N   0  0  0  0  0  0  0  0  0  0  0  0
    7.7619   -0.1761    0.0000 C   0  0  3  0  0  0  0  0  0  0  0  0
    6.7619   -0.1761    0.0000 C   0  0  3  0  0  0  0  0  0  0  0  0
    8.2619   -1.0422    0.0000 C   0  0  3  0  0  0  0  0  0  0  0  0
    6.2619    0.6899    0.0000 C   0  0  0  0  0  0  0  0  0  0  0  0
    9.2619   -1.0422    0.0000 C   0  0  3  0  0  0  0  0  0  0  0  0
    9.7619   -1.9082    0.0000 C   0  0  0  0  0  0  0  0  0  0  0  0
    4.6783    1.4946    0.0000 C   0  0  0  0  0  0  0  0  0  0  0  0
    3.7320    1.1899    0.0000 C   0  0  0  0  0  0  0  0  0  0  0  0
    3.7320    0.1899    0.0000 C   0  0  0  0  0  0  0  0  0  0  0  0
    2.8660    1.6899    0.0000 C   0  0  0  0  0  0  0  0  0  0  0  0
    2.8660   -0.3101    0.0000 C   0  0  0  0  0  0  0  0  0  0  0  0
    2.0000    1.1899    0.0000 C   0  0  0  0  0  0  0  0  0  0  0  0
    2.0000    0.1899    0.0000 C   0  0  0  0  0  0  0  0  0  0  0  0
    7.4519    0.3608    0.0000 H   0  0  0  0  0  0  0  0  0  0  0  0
    7.0719   -0.7131    0.0000 H   0  0  0  0  0  0  0  0  0  0  0  0
    8.5719   -1.5791    0.0000 H   0  0  0  0  0  0  0  0  0  0  0  0
    6.8445    0.9019    0.0000 H   0  0  0  0  0  0  0  0  0  0  0  0
    6.1542    1.3005    0.0000 H   0  0  0  0  0  0  0  0  0  0  0  0
    9.8819   -1.0422    0.0000 H   0  0  0  0  0  0  0  0  0  0  0  0
    9.1793   -2.1202    0.0000 H   0  0  0  0  0  0  0  0  0  0  0  0
    9.8695   -2.5188    0.0000 H   0  0  0  0  0  0  0  0  0  0  0  0
    8.8819    0.6899    0.0000 H   0  0  0  0  0  0  0  0  0  0  0  0
    6.5719   -1.5791    0.0000 H   0  0  0  0  0  0  0  0  0  0  0  0
    8.0719   -2.4451    0.0000 H   0  0  0  0  0  0  0  0  0  0  0  0
   10.3819   -0.1761    0.0000 H   0  0  0  0  0  0  0  0  0  0  0  0
    2.8660    2.3099    0.0000 H   0  0  0  0  0  0  0  0  0  0  0  0
    2.8660   -0.9301    0.0000 H   0  0  0  0  0  0  0  0  0  0  0  0
   11.0719   -2.4451    0.0000 H   0  0  0  0  0  0  0  0  0  0  0  0
    1.4631    1.4999    0.0000 H   0  0  0  0  0  0  0  0  0  0  0  0
    1.4631   -0.1201    0.0000 H   0  0  0  0  0  0  0  0  0  0  0  0
  1  8  1  0  0  0  0
  1 17  1  0  0  0  0
  2  9  1  0  0  0  0
  2 30  1  0  0  0  0
  3 10  1  0  0  0  0
  3 31  1  0  0  0  0
  4 11  1  0  0  0  0
  4 32  1  0  0  0  0
  5 13  1  0  0  0  0
  5 33  1  0  0  0  0
  6 14  1  0  0  0  0
  6 36  1  0  0  0  0
  7 15  2  0  0  0  0
  8 12  1  0  0  0  0
  8 15  1  0  0  0  0
  9 10  1  0  0  0  0
  9 11  1  0  0  0  0
  9 22  1  0  0  0  0
 10 12  1  0  0  0  0
 10 23  1  0  0  0  0
 11 13  1  0  0  0  0
 11 24  1  0  0  0  0
 12 25  1  0  0  0  0
 12 26  1  0  0  0  0
 13 14  1  0  0  0  0
 13 27  1  0  0  0  0
 14 28  1  0  0  0  0
 14 29  1  0  0  0  0
 15 16  1  0  0  0  0
 16 17  1  0  0  0  0
 16 18  2  0  0  0  0
 17 19  2  0  0  0  0
 18 20  1  0  0  0  0
 18 34  1  0  0  0  0
 19 21  1  0  0  0  0
 19 35  1  0  0  0  0
 20 21  2  0  0  0  0
 20 37  1  0  0  0  0
 21 38  1  0  0  0  0
M  END
> <PUBCHEM_COMPOUND_CID>
511848
> <PUBCHEM_COMPOUND_CANONICALIZED>
1
> <PUBCHEM_CACTVS_COMPLEXITY>
371
> <PUBCHEM_CACTVS_HBOND_ACCEPTOR>
6
> <PUBCHEM_CACTVS_HBOND_DONOR>
5
> <PUBCHEM_CACTVS_ROTATABLE_BOND>
6
> <PUBCHEM_CACTVS_SUBSKEYS>
AAADceByOAAAAAAAIAAAAAAAAAAAAWAAAAAwAAAAAAAAAFgBAAAAHgCACAAADBThmAYwAIIAAgCIAiFSEACCAAAkAAAIiAEIBMgLMDKAlRGEYQhnhgCZiYf4+AaOAAAAAAAAAAAAAAAAAAAAAAAAAAAAAA==
> <PUBCHEM_IUPAC_OPENEYE_NAME>
2-(2,3,4,5,6-pentahydroxyhexyl)-1,2-benzoselenazol-3-one
> <PUBCHEM_IUPAC_CAS_NAME>
2-(2,3,4,5,6-pentahydroxyhexyl)-1,2-benzoselenazol-3-one
> <PUBCHEM_IUPAC_NAME_MARKUP>
2-(2,3,4,5,6-pentahydroxyhexyl)-1,2-benzoselenazol-3-one
> <PUBCHEM_IUPAC_NAME>
2-(2,3,4,5,6-pentahydroxyhexyl)-1,2-benzoselenazol-3-one
> <PUBCHEM_IUPAC_SYSTEMATIC_NAME>
2-[2,3,4,5,6-pentakis(oxidanyl)hexyl]-1,2-benzoselenazol-3-one
> <PUBCHEM_IUPAC_TRADITIONAL_NAME>
2-(2,3,4,5,6-pentahydroxyhexyl)-1,2-benzoselenazol-3-one
> <PUBCHEM_IUPAC_INCHI>
InChI=1S/C13H17NO6Se/c15-6-9(17)12(19)11(18)8(16)5-14-13(20)7-3-1-2-4-10(7)21-14/h1-4,8-9,11-12,15-19H,5-6H2
> <PUBCHEM_IUPAC_INCHIKEY>
CLENRTMCDROLTF-UHFFFAOYSA-N
> <PUBCHEM_EXACT_MASS>
363.02211
> <PUBCHEM_MOLECULAR_FORMULA>
C13H17NO6Se
> <PUBCHEM_MOLECULAR_WEIGHT>
362.25
> <PUBCHEM_OPENEYE_CAN_SMILES>
C1=CC=C2C(=C1)C(=O)N([Se]2)CC(C(C(C(CO)O)O)O)O
> <PUBCHEM_OPENEYE_ISO_SMILES>
C1=CC=C2C(=C1)C(=O)N([Se]2)CC(C(C(C(CO)O)O)O)O
> <PUBCHEM_CACTVS_TPSA>
122
> <PUBCHEM_MONOISOTOPIC_WEIGHT>
363.02211
> <PUBCHEM_TOTAL_CHARGE>
0
> <PUBCHEM_HEAVY_ATOM_COUNT>
21
> <PUBCHEM_ATOM_DEF_STEREO_COUNT>
0
> <PUBCHEM_ATOM_UDEF_STEREO_COUNT>
4
> <PUBCHEM_BOND_DEF_STEREO_COUNT>
0
> <PUBCHEM_BOND_UDEF_STEREO_COUNT>
0
> <PUBCHEM_ISOTOPIC_ATOM_COUNT>
0
> <PUBCHEM_COMPONENT_COUNT>
1
> <PUBCHEM_CACTVS_TAUTO_COUNT>
-1
> <PUBCHEM_COORDINATE_TYPE>
1
5
255
> <PUBCHEM_BONDANNOTATIONS>
1  17  8
1  8  8
15  16  8
16  17  8
16  18  8
17  19  8
18  20  8
19  21  8
9  2  3
20  21  8
10  3  3
11  4  3
13  5  3
8  15  8
$$$$
