511872
  -OEChem-10302200282D
105105  0     1  0  0  0  0  0999 V2000
    4.2690   -4.0950    0.0000 O   0  0  0  0  0  0  0  0  0  0  0  0
    6.0010   -4.0950    0.0000 O   0  0  0  0  0  0  0  0  0  0  0  0
    4.2690   -7.0950    0.0000 O   0  0  0  0  0  0  0  0  0  0  0  0
    2.5369   -6.0950    0.0000 O   0  0  0  0  0  0  0  0  0  0  0  0
    6.0010   -6.0950    0.0000 O   0  0  0  0  0  0  0  0  0  0  0  0
    2.5369   -3.0950    0.0000 O   0  0  0  0  0  0  0  0  0  0  0  0
    6.8671   -1.5950    0.0000 O   0  0  0  0  0  0  0  0  0  0  0  0
    8.5991   -2.5950    0.0000 O   0  0  0  0  0  0  0  0  0  0  0  0
    8.5991   -1.5950    0.0000 O   0  0  0  0  0  0  0  0  0  0  0  0
    9.4651   -4.0950    0.0000 O   0  0  0  0  0  0  0  0  0  0  0  0
    4.2690   -6.0950    0.0000 C   0  0  1  0  0  0  0  0  0  0  0  0
    3.4030   -5.5950    0.0000 C   0  0  2  0  0  0  0  0  0  0  0  0
    5.1350   -5.5950    0.0000 C   0  0  2  0  0  0  0  0  0  0  0  0
    3.4030   -4.5950    0.0000 C   0  0  1  0  0  0  0  0  0  0  0  0
    5.1350   -4.5950    0.0000 C   0  0  1  0  0  0  0  0  0  0  0  0
    2.5369   -4.0950    0.0000 C   0  0  0  0  0  0  0  0  0  0  0  0
    6.0010   -3.0950    0.0000 C   0  0  0  0  0  0  0  0  0  0  0  0
    6.8671   -2.5950    0.0000 C   0  0  3  0  0  0  0  0  0  0  0  0
    7.7331   -3.0950    0.0000 C   0  0  0  0  0  0  0  0  0  0  0  0
    9.4651    2.9050    0.0000 C   0  0  0  0  0  0  0  0  0  0  0  0
    9.4651    1.9050    0.0000 C   0  0  0  0  0  0  0  0  0  0  0  0
   10.3312    3.4050    0.0000 C   0  0  0  0  0  0  0  0  0  0  0  0
    8.5991    1.4050    0.0000 C   0  0  0  0  0  0  0  0  0  0  0  0
   13.7953   -2.5950    0.0000 C   0  0  0  0  0  0  0  0  0  0  0  0
   14.6613   -3.0950    0.0000 C   0  0  0  0  0  0  0  0  0  0  0  0
   12.9292   -3.0950    0.0000 C   0  0  0  0  0  0  0  0  0  0  0  0
   10.3312    4.4050    0.0000 C   0  0  0  0  0  0  0  0  0  0  0  0
    8.5991    0.4050    0.0000 C   0  0  0  0  0  0  0  0  0  0  0  0
   15.5273   -2.5950    0.0000 C   0  0  0  0  0  0  0  0  0  0  0  0
   12.0632   -2.5950    0.0000 C   0  0  0  0  0  0  0  0  0  0  0  0
   11.1972    4.9050    0.0000 C   0  0  0  0  0  0  0  0  0  0  0  0
    7.7331   -0.0950    0.0000 C   0  0  0  0  0  0  0  0  0  0  0  0
   11.1972   -3.0950    0.0000 C   0  0  0  0  0  0  0  0  0  0  0  0
   16.3933   -3.0950    0.0000 C   0  0  0  0  0  0  0  0  0  0  0  0
    7.7331   -1.0950    0.0000 C   0  0  0  0  0  0  0  0  0  0  0  0
   10.3312   -2.5950    0.0000 C   0  0  0  0  0  0  0  0  0  0  0  0
   11.1972    5.9050    0.0000 C   0  0  0  0  0  0  0  0  0  0  0  0
   17.2594   -2.5950    0.0000 C   0  0  0  0  0  0  0  0  0  0  0  0
    9.4651   -3.0950    0.0000 C   0  0  0  0  0  0  0  0  0  0  0  0
   12.0632    6.4050    0.0000 C   0  0  0  0  0  0  0  0  0  0  0  0
   18.1254   -3.0950    0.0000 C   0  0  0  0  0  0  0  0  0  0  0  0
   12.0632    7.4050    0.0000 C   0  0  0  0  0  0  0  0  0  0  0  0
   18.9914   -2.5950    0.0000 C   0  0  0  0  0  0  0  0  0  0  0  0
    3.7320   -6.4050    0.0000 H   0  0  0  0  0  0  0  0  0  0  0  0
    3.4030   -6.2150    0.0000 H   0  0  0  0  0  0  0  0  0  0  0  0
    5.1350   -6.2150    0.0000 H   0  0  0  0  0  0  0  0  0  0  0  0
    3.4030   -3.9750    0.0000 H   0  0  0  0  0  0  0  0  0  0  0  0
    5.1350   -3.9750    0.0000 H   0  0  0  0  0  0  0  0  0  0  0  0
    1.9264   -3.9873    0.0000 H   0  0  0  0  0  0  0  0  0  0  0  0
    2.3249   -4.6776    0.0000 H   0  0  0  0  0  0  0  0  0  0  0  0
    3.7320   -7.4050    0.0000 H   0  0  0  0  0  0  0  0  0  0  0  0
    2.0000   -5.7850    0.0000 H   0  0  0  0  0  0  0  0  0  0  0  0
    5.7890   -2.5124    0.0000 H   0  0  0  0  0  0  0  0  0  0  0  0
    5.3905   -3.2027    0.0000 H   0  0  0  0  0  0  0  0  0  0  0  0
    6.5380   -5.7850    0.0000 H   0  0  0  0  0  0  0  0  0  0  0  0
    7.4040   -2.2850    0.0000 H   0  0  0  0  0  0  0  0  0  0  0  0
    2.0000   -2.7850    0.0000 H   0  0  0  0  0  0  0  0  0  0  0  0
    7.3346   -3.5700    0.0000 H   0  0  0  0  0  0  0  0  0  0  0  0
    8.1316   -3.5700    0.0000 H   0  0  0  0  0  0  0  0  0  0  0  0
    9.2531    3.4876    0.0000 H   0  0  0  0  0  0  0  0  0  0  0  0
    8.8546    2.7973    0.0000 H   0  0  0  0  0  0  0  0  0  0  0  0
    9.6772    1.3224    0.0000 H   0  0  0  0  0  0  0  0  0  0  0  0
   10.0757    2.0127    0.0000 H   0  0  0  0  0  0  0  0  0  0  0  0
   10.5432    2.8224    0.0000 H   0  0  0  0  0  0  0  0  0  0  0  0
   10.9417    3.5127    0.0000 H   0  0  0  0  0  0  0  0  0  0  0  0
    8.3871    1.9876    0.0000 H   0  0  0  0  0  0  0  0  0  0  0  0
    7.9885    1.2973    0.0000 H   0  0  0  0  0  0  0  0  0  0  0  0
   14.1938   -2.1200    0.0000 H   0  0  0  0  0  0  0  0  0  0  0  0
   13.3967   -2.1200    0.0000 H   0  0  0  0  0  0  0  0  0  0  0  0
   14.2628   -3.5700    0.0000 H   0  0  0  0  0  0  0  0  0  0  0  0
   15.0598   -3.5700    0.0000 H   0  0  0  0  0  0  0  0  0  0  0  0
   12.5307   -3.5700    0.0000 H   0  0  0  0  0  0  0  0  0  0  0  0
   13.3278   -3.5700    0.0000 H   0  0  0  0  0  0  0  0  0  0  0  0
   10.1191    4.9876    0.0000 H   0  0  0  0  0  0  0  0  0  0  0  0
    9.7206    4.2973    0.0000 H   0  0  0  0  0  0  0  0  0  0  0  0
    8.8112   -0.1776    0.0000 H   0  0  0  0  0  0  0  0  0  0  0  0
    9.2097    0.5127    0.0000 H   0  0  0  0  0  0  0  0  0  0  0  0
   15.9258   -2.1200    0.0000 H   0  0  0  0  0  0  0  0  0  0  0  0
   15.1288   -2.1200    0.0000 H   0  0  0  0  0  0  0  0  0  0  0  0
   12.4617   -2.1200    0.0000 H   0  0  0  0  0  0  0  0  0  0  0  0
   11.6647   -2.1200    0.0000 H   0  0  0  0  0  0  0  0  0  0  0  0
   11.4092    4.3224    0.0000 H   0  0  0  0  0  0  0  0  0  0  0  0
   11.8078    5.0127    0.0000 H   0  0  0  0  0  0  0  0  0  0  0  0
    7.5210    0.4876    0.0000 H   0  0  0  0  0  0  0  0  0  0  0  0
    7.1225   -0.2027    0.0000 H   0  0  0  0  0  0  0  0  0  0  0  0
   10.7987   -3.5700    0.0000 H   0  0  0  0  0  0  0  0  0  0  0  0
   11.5957   -3.5700    0.0000 H   0  0  0  0  0  0  0  0  0  0  0  0
   15.9948   -3.5700    0.0000 H   0  0  0  0  0  0  0  0  0  0  0  0
   16.7919   -3.5700    0.0000 H   0  0  0  0  0  0  0  0  0  0  0  0
   10.9851    6.4876    0.0000 H   0  0  0  0  0  0  0  0  0  0  0  0
   10.5866    5.7973    0.0000 H   0  0  0  0  0  0  0  0  0  0  0  0
   10.7297   -2.1200    0.0000 H   0  0  0  0  0  0  0  0  0  0  0  0
    9.9326   -2.1200    0.0000 H   0  0  0  0  0  0  0  0  0  0  0  0
   17.6579   -2.1200    0.0000 H   0  0  0  0  0  0  0  0  0  0  0  0
   16.8608   -2.1200    0.0000 H   0  0  0  0  0  0  0  0  0  0  0  0
   12.2753    5.8224    0.0000 H   0  0  0  0  0  0  0  0  0  0  0  0
   12.6738    6.5127    0.0000 H   0  0  0  0  0  0  0  0  0  0  0  0
   17.7269   -3.5700    0.0000 H   0  0  0  0  0  0  0  0  0  0  0  0
   18.5239   -3.5700    0.0000 H   0  0  0  0  0  0  0  0  0  0  0  0
   12.6832    7.4050    0.0000 H   0  0  0  0  0  0  0  0  0  0  0  0
   12.0632    8.0250    0.0000 H   0  0  0  0  0  0  0  0  0  0  0  0
   11.4432    7.4050    0.0000 H   0  0  0  0  0  0  0  0  0  0  0  0
   19.3014   -3.1319    0.0000 H   0  0  0  0  0  0  0  0  0  0  0  0
   19.5284   -2.2850    0.0000 H   0  0  0  0  0  0  0  0  0  0  0  0
   18.6814   -2.0581    0.0000 H   0  0  0  0  0  0  0  0  0  0  0  0
  1 14  1  0  0  0  0
  1 15  1  0  0  0  0
 15  2  1  1  0  0  0
  2 17  1  0  0  0  0
 11  3  1  1  0  0  0
  3 51  1  0  0  0  0
 12  4  1  1  0  0  0
  4 52  1  0  0  0  0
 13  5  1  6  0  0  0
  5 55  1  0  0  0  0
  6 16  1  0  0  0  0
  6 57  1  0  0  0  0
  7 18  1  0  0  0  0
  7 35  1  0  0  0  0
  8 19  1  0  0  0  0
  8 39  1  0  0  0  0
  9 35  2  0  0  0  0
 10 39  2  0  0  0  0
 11 12  1  0  0  0  0
 11 13  1  0  0  0  0
 11 44  1  0  0  0  0
 12 14  1  0  0  0  0
 12 45  1  0  0  0  0
 13 15  1  0  0  0  0
 13 46  1  0  0  0  0
 14 16  1  1  0  0  0
 14 47  1  0  0  0  0
 15 48  1  0  0  0  0
 16 49  1  0  0  0  0
 16 50  1  0  0  0  0
 17 18  1  0  0  0  0
 17 53  1  0  0  0  0
 17 54  1  0  0  0  0
 18 19  1  0  0  0  0
 18 56  1  0  0  0  0
 19 58  1  0  0  0  0
 19 59  1  0  0  0  0
 20 21  1  0  0  0  0
 20 22  1  0  0  0  0
 20 60  1  0  0  0  0
 20 61  1  0  0  0  0
 21 23  1  0  0  0  0
 21 62  1  0  0  0  0
 21 63  1  0  0  0  0
 22 27  1  0  0  0  0
 22 64  1  0  0  0  0
 22 65  1  0  0  0  0
 23 28  1  0  0  0  0
 23 66  1  0  0  0  0
 23 67  1  0  0  0  0
 24 25  1  0  0  0  0
 24 26  1  0  0  0  0
 24 68  1  0  0  0  0
 24 69  1  0  0  0  0
 25 29  1  0  0  0  0
 25 70  1  0  0  0  0
 25 71  1  0  0  0  0
 26 30  1  0  0  0  0
 26 72  1  0  0  0  0
 26 73  1  0  0  0  0
 27 31  1  0  0  0  0
 27 74  1  0  0  0  0
 27 75  1  0  0  0  0
 28 32  1  0  0  0  0
 28 76  1  0  0  0  0
 28 77  1  0  0  0  0
 29 34  1  0  0  0  0
 29 78  1  0  0  0  0
 29 79  1  0  0  0  0
 30 33  1  0  0  0  0
 30 80  1  0  0  0  0
 30 81  1  0  0  0  0
 31 37  1  0  0  0  0
 31 82  1  0  0  0  0
 31 83  1  0  0  0  0
 32 35  1  0  0  0  0
 32 84  1  0  0  0  0
 32 85  1  0  0  0  0
 33 36  1  0  0  0  0
 33 86  1  0  0  0  0
 33 87  1  0  0  0  0
 34 38  1  0  0  0  0
 34 88  1  0  0  0  0
 34 89  1  0  0  0  0
 36 39  1  0  0  0  0
 36 92  1  0  0  0  0
 36 93  1  0  0  0  0
 37 40  1  0  0  0  0
 37 90  1  0  0  0  0
 37 91  1  0  0  0  0
 38 41  1  0  0  0  0
 38 94  1  0  0  0  0
 38 95  1  0  0  0  0
 40 42  1  0  0  0  0
 40 96  1  0  0  0  0
 40 97  1  0  0  0  0
 41 43  1  0  0  0  0
 41 98  1  0  0  0  0
 41 99  1  0  0  0  0
 42100  1  0  0  0  0
 42101  1  0  0  0  0
 42102  1  0  0  0  0
 43103  1  0  0  0  0
 43104  1  0  0  0  0
 43105  1  0  0  0  0
M  END
> <PUBCHEM_COMPOUND_CID>
511872
> <PUBCHEM_COMPOUND_CANONICALIZED>
1
> <PUBCHEM_CACTVS_COMPLEXITY>
691
> <PUBCHEM_CACTVS_HBOND_ACCEPTOR>
10
> <PUBCHEM_CACTVS_HBOND_DONOR>
4
> <PUBCHEM_CACTVS_ROTATABLE_BOND>
29
> <PUBCHEM_CACTVS_SUBSKEYS>
AAADcfB8PAAAAAAAAAAAAAAAAAAAAAAAAAAkAAAAAAAAAAAAAAAAGgAACAAACBSwgAMCCAAABgAIAACQCAAAAAAAAAAAAAEAAAAREBIAAAAiQAAFAAAHAAHI6KyAAAAAAAAAAAAAAAAAAAAAAAAAAAAAAA==
> <PUBCHEM_IUPAC_OPENEYE_NAME>
[2-dodecanoyloxy-3-[(2R,3R,4S,5R,6R)-3,4,5-trihydroxy-6-(hydroxymethyl)tetrahydropyran-2-yl]oxy-propyl] dodecanoate
> <PUBCHEM_IUPAC_CAS_NAME>
dodecanoic acid [2-(1-oxododecoxy)-3-[[(2R,3R,4S,5R,6R)-3,4,5-trihydroxy-6-(hydroxymethyl)-2-oxanyl]oxy]propyl] ester
> <PUBCHEM_IUPAC_NAME_MARKUP>
[2-dodecanoyloxy-3-[(2<I>R</I>,3<I>R</I>,4<I>S</I>,5<I>R</I>,6<I>R</I>)-3,4,5-trihydroxy-6-(hydroxymethyl)oxan-2-yl]oxypropyl] dodecanoate
> <PUBCHEM_IUPAC_NAME>
[2-dodecanoyloxy-3-[(2R,3R,4S,5R,6R)-3,4,5-trihydroxy-6-(hydroxymethyl)oxan-2-yl]oxypropyl] dodecanoate
> <PUBCHEM_IUPAC_SYSTEMATIC_NAME>
[2-dodecanoyloxy-3-[(2R,3R,4S,5R,6R)-6-(hydroxymethyl)-3,4,5-tris(oxidanyl)oxan-2-yl]oxy-propyl] dodecanoate
> <PUBCHEM_IUPAC_TRADITIONAL_NAME>
lauric acid [2-lauroyloxy-3-[(2R,3R,4S,5R,6R)-3,4,5-trihydroxy-6-methylol-tetrahydropyran-2-yl]oxy-propyl] ester
> <PUBCHEM_IUPAC_INCHI>
InChI=1S/C33H62O10/c1-3-5-7-9-11-13-15-17-19-21-28(35)40-24-26(25-41-33-32(39)31(38)30(37)27(23-34)43-33)42-29(36)22-20-18-16-14-12-10-8-6-4-2/h26-27,30-34,37-39H,3-25H2,1-2H3/t26?,27-,30+,31+,32-,33-/m1/s1
> <PUBCHEM_IUPAC_INCHIKEY>
BIOJTMVLNXQLNJ-MMRIJZGKSA-N
> <PUBCHEM_XLOGP3_AA>
8.1
> <PUBCHEM_EXACT_MASS>
618.43429817
> <PUBCHEM_MOLECULAR_FORMULA>
C33H62O10
> <PUBCHEM_MOLECULAR_WEIGHT>
618.8
> <PUBCHEM_OPENEYE_CAN_SMILES>
CCCCCCCCCCCC(=O)OCC(COC1C(C(C(C(O1)CO)O)O)O)OC(=O)CCCCCCCCCCC
> <PUBCHEM_OPENEYE_ISO_SMILES>
CCCCCCCCCCCC(=O)OCC(CO[C@H]1[C@@H]([C@H]([C@H]([C@H](O1)CO)O)O)O)OC(=O)CCCCCCCCCCC
> <PUBCHEM_CACTVS_TPSA>
152
> <PUBCHEM_MONOISOTOPIC_WEIGHT>
618.43429817
> <PUBCHEM_TOTAL_CHARGE>
0
> <PUBCHEM_HEAVY_ATOM_COUNT>
43
> <PUBCHEM_ATOM_DEF_STEREO_COUNT>
5
> <PUBCHEM_ATOM_UDEF_STEREO_COUNT>
1
> <PUBCHEM_BOND_DEF_STEREO_COUNT>
0
> <PUBCHEM_BOND_UDEF_STEREO_COUNT>
0
> <PUBCHEM_ISOTOPIC_ATOM_COUNT>
0
> <PUBCHEM_COMPONENT_COUNT>
1
> <PUBCHEM_CACTVS_TAUTO_COUNT>
-1
> <PUBCHEM_COORDINATE_TYPE>
1
5
255
> <PUBCHEM_BONDANNOTATIONS>
14  16  5
18  17  3
15  2  5
11  3  5
12  4  5
13  5  6
$$$$
