511885
  -OEChem-10302200282D
 35 37  0     1  0  0  0  0  0999 V2000
    4.4026    1.1580    0.0000 O   0  0  0  0  0  0  0  0  0  0  0  0
    6.7485    0.0662    0.0000 O   0  0  0  0  0  0  0  0  0  0  0  0
    6.7523    2.2418    0.0000 O   0  0  0  0  0  0  0  0  0  0  0  0
    3.7066    3.1272    0.0000 O   0  0  0  0  0  0  0  0  0  0  0  0
    5.2619   -1.4072    0.0000 N   0  0  0  0  0  0  0  0  0  0  0  0
    4.6783   -2.2120    0.0000 N   0  0  0  0  0  0  0  0  0  0  0  0
    2.8660   -0.4072    0.0000 N   0  0  0  0  0  0  0  0  0  0  0  0
    2.0000   -1.9072    0.0000 N   0  0  0  0  0  0  0  0  0  0  0  0
    2.8660   -3.4072    0.0000 N   0  0  0  0  0  0  0  0  0  0  0  0
    4.9889    0.3480    0.0000 C   0  0  2  0  0  0  0  0  0  0  0  0
    5.9405    0.6554    0.0000 C   0  0  1  0  0  0  0  0  0  0  0  0
    5.9422    1.6554    0.0000 C   0  0  1  0  0  0  0  0  0  0  0  0
    4.9917    1.9660    0.0000 C   0  0  1  0  0  0  0  0  0  0  0  0
    4.6783   -0.6025    0.0000 C   0  0  0  0  0  0  0  0  0  0  0  0
    4.6844    2.9176    0.0000 C   0  0  0  0  0  0  0  0  0  0  0  0
    3.7320   -0.9072    0.0000 C   0  0  0  0  0  0  0  0  0  0  0  0
    3.7320   -1.9072    0.0000 C   0  0  0  0  0  0  0  0  0  0  0  0
    6.2619   -1.4072    0.0000 C   0  0  0  0  0  0  0  0  0  0  0  0
    2.8660   -2.4072    0.0000 C   0  0  0  0  0  0  0  0  0  0  0  0
    2.0000   -0.9072    0.0000 C   0  0  0  0  0  0  0  0  0  0  0  0
    4.1492    0.2165    0.0000 H   0  0  0  0  0  0  0  0  0  0  0  0
    6.4934    0.9359    0.0000 H   0  0  0  0  0  0  0  0  0  0  0  0
    5.8463    2.2679    0.0000 H   0  0  0  0  0  0  0  0  0  0  0  0
    4.3795    2.0641    0.0000 H   0  0  0  0  0  0  0  0  0  0  0  0
    5.2985    3.0029    0.0000 H   0  0  0  0  0  0  0  0  0  0  0  0
    4.7071    3.5372    0.0000 H   0  0  0  0  0  0  0  0  0  0  0  0
    7.3154    0.3174    0.0000 H   0  0  0  0  0  0  0  0  0  0  0  0
    6.6886    2.8585    0.0000 H   0  0  0  0  0  0  0  0  0  0  0  0
    6.2619   -2.0272    0.0000 H   0  0  0  0  0  0  0  0  0  0  0  0
    6.8819   -1.4072    0.0000 H   0  0  0  0  0  0  0  0  0  0  0  0
    6.2619   -0.7872    0.0000 H   0  0  0  0  0  0  0  0  0  0  0  0
    3.5160    3.7172    0.0000 H   0  0  0  0  0  0  0  0  0  0  0  0
    1.4631   -0.5972    0.0000 H   0  0  0  0  0  0  0  0  0  0  0  0
    2.3291   -3.7172    0.0000 H   0  0  0  0  0  0  0  0  0  0  0  0
    3.4030   -3.7172    0.0000 H   0  0  0  0  0  0  0  0  0  0  0  0
  1 10  1  0  0  0  0
  1 13  1  0  0  0  0
 11  2  1  1  0  0  0
  2 27  1  0  0  0  0
 12  3  1  1  0  0  0
  3 28  1  0  0  0  0
  4 15  1  0  0  0  0
  4 32  1  0  0  0  0
  5  6  1  0  0  0  0
  5 14  1  0  0  0  0
  5 18  1  0  0  0  0
  6 17  2  0  0  0  0
  7 16  1  0  0  0  0
  7 20  2  0  0  0  0
  8 19  2  0  0  0  0
  8 20  1  0  0  0  0
  9 19  1  0  0  0  0
  9 34  1  0  0  0  0
  9 35  1  0  0  0  0
 10 11  1  0  0  0  0
 10 14  1  0  0  0  0
 10 21  1  1  0  0  0
 11 12  1  0  0  0  0
 11 22  1  0  0  0  0
 12 13  1  0  0  0  0
 12 23  1  0  0  0  0
 13 15  1  6  0  0  0
 13 24  1  0  0  0  0
 14 16  2  0  0  0  0
 15 25  1  0  0  0  0
 15 26  1  0  0  0  0
 16 17  1  0  0  0  0
 17 19  1  0  0  0  0
 18 29  1  0  0  0  0
 18 30  1  0  0  0  0
 18 31  1  0  0  0  0
 20 33  1  0  0  0  0
M  END
> <PUBCHEM_COMPOUND_CID>
511885
> <PUBCHEM_COMPOUND_CANONICALIZED>
1
> <PUBCHEM_CACTVS_COMPLEXITY>
362
> <PUBCHEM_CACTVS_HBOND_ACCEPTOR>
8
> <PUBCHEM_CACTVS_HBOND_DONOR>
4
> <PUBCHEM_CACTVS_ROTATABLE_BOND>
2
> <PUBCHEM_CACTVS_SUBSKEYS>
AAADccBzuAAAAAAAAAAAAAAAAAAAAWJAAAAsAAAAAAAAAFgB+AAAHgAYCAAACByhlgYH8LZIFgCiAQZhZASShC0xkKAR2CA4XJiLfiLA+NmX1AhvyANb6Cfw8KcAAAAAAAAAAAAAAAAAAAAAAAAAAAAAAA==
> <PUBCHEM_IUPAC_OPENEYE_NAME>
(2S,3R,4S,5R)-2-(7-amino-2-methyl-pyrazolo[4,3-d]pyrimidin-3-yl)-5-(hydroxymethyl)tetrahydrofuran-3,4-diol
> <PUBCHEM_IUPAC_CAS_NAME>
(2S,3R,4S,5R)-2-(7-amino-2-methyl-3-pyrazolo[4,3-d]pyrimidinyl)-5-(hydroxymethyl)oxolane-3,4-diol
> <PUBCHEM_IUPAC_NAME_MARKUP>
(2<I>S</I>,3<I>R</I>,4<I>S</I>,5<I>R</I>)-2-(7-amino-2-methylpyrazolo[4,3-d]pyrimidin-3-yl)-5-(hydroxymethyl)oxolane-3,4-diol
> <PUBCHEM_IUPAC_NAME>
(2S,3R,4S,5R)-2-(7-amino-2-methylpyrazolo[4,3-d]pyrimidin-3-yl)-5-(hydroxymethyl)oxolane-3,4-diol
> <PUBCHEM_IUPAC_SYSTEMATIC_NAME>
(2S,3R,4S,5R)-2-(7-azanyl-2-methyl-pyrazolo[4,3-d]pyrimidin-3-yl)-5-(hydroxymethyl)oxolane-3,4-diol
> <PUBCHEM_IUPAC_TRADITIONAL_NAME>
(2S,3R,4S,5R)-2-(7-amino-2-methyl-pyrazolo[4,3-d]pyrimidin-3-yl)-5-methylol-tetrahydrofuran-3,4-diol
> <PUBCHEM_IUPAC_INCHI>
InChI=1S/C11H15N5O4/c1-16-7(5-6(15-16)11(12)14-3-13-5)10-9(19)8(18)4(2-17)20-10/h3-4,8-10,17-19H,2H2,1H3,(H2,12,13,14)/t4-,8-,9-,10+/m1/s1
> <PUBCHEM_IUPAC_INCHIKEY>
XWDQONRNNQNSJX-LFAOKBQASA-N
> <PUBCHEM_XLOGP3_AA>
-2.2
> <PUBCHEM_EXACT_MASS>
281.11240398
> <PUBCHEM_MOLECULAR_FORMULA>
C11H15N5O4
> <PUBCHEM_MOLECULAR_WEIGHT>
281.27
> <PUBCHEM_OPENEYE_CAN_SMILES>
CN1C(=C2C(=N1)C(=NC=N2)N)C3C(C(C(O3)CO)O)O
> <PUBCHEM_OPENEYE_ISO_SMILES>
CN1C(=C2C(=N1)C(=NC=N2)N)[C@H]3[C@@H]([C@@H]([C@H](O3)CO)O)O
> <PUBCHEM_CACTVS_TPSA>
140
> <PUBCHEM_MONOISOTOPIC_WEIGHT>
281.11240398
> <PUBCHEM_TOTAL_CHARGE>
0
> <PUBCHEM_HEAVY_ATOM_COUNT>
20
> <PUBCHEM_ATOM_DEF_STEREO_COUNT>
4
> <PUBCHEM_ATOM_UDEF_STEREO_COUNT>
0
> <PUBCHEM_BOND_DEF_STEREO_COUNT>
0
> <PUBCHEM_BOND_UDEF_STEREO_COUNT>
0
> <PUBCHEM_ISOTOPIC_ATOM_COUNT>
0
> <PUBCHEM_COMPONENT_COUNT>
1
> <PUBCHEM_CACTVS_TAUTO_COUNT>
3
> <PUBCHEM_COORDINATE_TYPE>
1
5
255
> <PUBCHEM_BONDANNOTATIONS>
10  21  5
13  15  6
14  16  8
16  17  8
17  19  8
11  2  5
12  3  5
5  14  8
5  6  8
6  17  8
7  16  8
7  20  8
8  19  8
8  20  8
$$$$
