511814
  -OEChem-10302200282D
 65 69  0     1  0  0  0  0  0999 V2000
    6.2072    1.0187    0.0000 N   0  0  3  0  0  0  0  0  0  0  0  0
    3.7127    0.1370    0.0000 N   0  0  0  0  0  0  0  0  0  0  0  0
    7.1082   -0.4152    0.0000 C   0  0  0  0  0  0  0  0  0  0  0  0
    7.9444   -1.8635    0.0000 C   0  0  0  0  0  0  0  0  0  0  0  0
    6.2720   -1.8635    0.0000 C   0  0  0  0  0  0  0  0  0  0  0  0
    6.4171   -2.2986    0.0000 C   0  0  0  0  0  0  0  0  0  0  0  0
    7.9444   -0.8980    0.0000 C   0  0  0  0  0  0  0  0  0  0  0  0
    6.2720   -0.8980    0.0000 C   0  0  0  0  0  0  0  0  0  0  0  0
    6.4171   -1.2533    0.0000 C   0  0  0  0  0  0  0  0  0  0  0  0
    7.1082   -2.1663    0.0000 C   0  0  0  0  0  0  0  0  0  0  0  0
    7.3228   -2.7754    0.0000 C   0  0  0  0  0  0  0  0  0  0  0  0
    5.4352   -2.3463    0.0000 C   0  0  0  0  0  0  0  0  0  0  0  0
    7.1082    0.5848    0.0000 C   0  0  3  0  0  0  0  0  0  0  0  0
    8.0092    1.0187    0.0000 C   0  0  0  0  0  0  0  0  0  0  0  0
    8.2317    1.9936    0.0000 C   0  0  0  0  0  0  0  0  0  0  0  0
    5.9847    1.9936    0.0000 C   0  0  0  0  0  0  0  0  0  0  0  0
    5.4254    0.3952    0.0000 C   0  0  0  0  0  0  0  0  0  0  0  0
    7.6082    2.7754    0.0000 C   0  0  0  0  0  0  0  0  0  0  0  0
    6.6082    2.7754    0.0000 C   0  0  0  0  0  0  0  0  0  0  0  0
    4.4945    0.7605    0.0000 C   0  0  0  0  0  0  0  0  0  0  0  0
    2.7818    0.5024    0.0000 C   0  0  0  0  0  0  0  0  0  0  0  0
    3.8618   -0.8518    0.0000 C   0  0  0  0  0  0  0  0  0  0  0  0
    2.0000   -0.1211    0.0000 C   0  0  0  0  0  0  0  0  0  0  0  0
    3.0799   -1.4753    0.0000 C   0  0  0  0  0  0  0  0  0  0  0  0
    2.1490   -1.1100    0.0000 C   0  0  0  0  0  0  0  0  0  0  0  0
    8.5368   -2.0463    0.0000 H   0  0  0  0  0  0  0  0  0  0  0  0
    6.7796   -1.5075    0.0000 H   0  0  0  0  0  0  0  0  0  0  0  0
    6.2830   -2.9040    0.0000 H   0  0  0  0  0  0  0  0  0  0  0  0
    8.5550   -1.0057    0.0000 H   0  0  0  0  0  0  0  0  0  0  0  0
    8.1564   -0.3154    0.0000 H   0  0  0  0  0  0  0  0  0  0  0  0
    6.0600   -0.3154    0.0000 H   0  0  0  0  0  0  0  0  0  0  0  0
    5.6614   -1.0056    0.0000 H   0  0  0  0  0  0  0  0  0  0  0  0
    6.0735   -0.7373    0.0000 H   0  0  0  0  0  0  0  0  0  0  0  0
    5.8237   -1.4328    0.0000 H   0  0  0  0  0  0  0  0  0  0  0  0
    6.7382   -2.6638    0.0000 H   0  0  0  0  0  0  0  0  0  0  0  0
    7.4782   -2.6638    0.0000 H   0  0  0  0  0  0  0  0  0  0  0  0
    7.0134   -3.3127    0.0000 H   0  0  0  0  0  0  0  0  0  0  0  0
    7.8479   -3.1050    0.0000 H   0  0  0  0  0  0  0  0  0  0  0  0
    4.9540   -1.9554    0.0000 H   0  0  0  0  0  0  0  0  0  0  0  0
    5.2420   -2.9354    0.0000 H   0  0  0  0  0  0  0  0  0  0  0  0
    7.6332    0.2549    0.0000 H   0  0  0  0  0  0  0  0  0  0  0  0
    8.1471    0.4142    0.0000 H   0  0  0  0  0  0  0  0  0  0  0  0
    8.6292    1.0187    0.0000 H   0  0  0  0  0  0  0  0  0  0  0  0
    8.7903    1.7246    0.0000 H   0  0  0  0  0  0  0  0  0  0  0  0
    8.6183    2.4783    0.0000 H   0  0  0  0  0  0  0  0  0  0  0  0
    5.5982    2.4783    0.0000 H   0  0  0  0  0  0  0  0  0  0  0  0
    5.4261    1.7246    0.0000 H   0  0  0  0  0  0  0  0  0  0  0  0
    5.1021   -0.1339    0.0000 H   0  0  0  0  0  0  0  0  0  0  0  0
    5.8903   -0.0151    0.0000 H   0  0  0  0  0  0  0  0  0  0  0  0
    8.1668    3.0444    0.0000 H   0  0  0  0  0  0  0  0  0  0  0  0
    7.4702    3.3799    0.0000 H   0  0  0  0  0  0  0  0  0  0  0  0
    6.7462    3.3799    0.0000 H   0  0  0  0  0  0  0  0  0  0  0  0
    6.0496    3.0444    0.0000 H   0  0  0  0  0  0  0  0  0  0  0  0
    4.8178    1.2896    0.0000 H   0  0  0  0  0  0  0  0  0  0  0  0
    4.0297    1.1708    0.0000 H   0  0  0  0  0  0  0  0  0  0  0  0
    3.1051    1.0314    0.0000 H   0  0  0  0  0  0  0  0  0  0  0  0
    2.3170    0.9126    0.0000 H   0  0  0  0  0  0  0  0  0  0  0  0
    4.1583   -1.3963    0.0000 H   0  0  0  0  0  0  0  0  0  0  0  0
    4.4495   -0.6543    0.0000 H   0  0  0  0  0  0  0  0  0  0  0  0
    1.7035    0.4234    0.0000 H   0  0  0  0  0  0  0  0  0  0  0  0
    1.4123   -0.3186    0.0000 H   0  0  0  0  0  0  0  0  0  0  0  0
    2.7566   -2.0043    0.0000 H   0  0  0  0  0  0  0  0  0  0  0  0
    3.5448   -1.8856    0.0000 H   0  0  0  0  0  0  0  0  0  0  0  0
    1.5292   -1.0945    0.0000 H   0  0  0  0  0  0  0  0  0  0  0  0
    2.0262   -1.7177    0.0000 H   0  0  0  0  0  0  0  0  0  0  0  0
  1 13  1  0  0  0  0
  1 16  1  0  0  0  0
  1 17  1  0  0  0  0
  2 20  1  0  0  0  0
  2 21  1  0  0  0  0
  2 22  1  0  0  0  0
  3  7  1  0  0  0  0
  3  8  1  0  0  0  0
  3  9  1  0  0  0  0
  3 13  1  0  0  0  0
  4  7  1  0  0  0  0
  4 10  1  0  0  0  0
  4 11  1  0  0  0  0
  4 26  1  0  0  0  0
  5  8  1  0  0  0  0
  5 10  1  0  0  0  0
  5 12  1  0  0  0  0
  5 27  1  0  0  0  0
  6  9  1  0  0  0  0
  6 11  1  0  0  0  0
  6 12  1  0  0  0  0
  6 28  1  0  0  0  0
  7 29  1  0  0  0  0
  7 30  1  0  0  0  0
  8 31  1  0  0  0  0
  8 32  1  0  0  0  0
  9 33  1  0  0  0  0
  9 34  1  0  0  0  0
 10 35  1  0  0  0  0
 10 36  1  0  0  0  0
 11 37  1  0  0  0  0
 11 38  1  0  0  0  0
 12 39  1  0  0  0  0
 12 40  1  0  0  0  0
 13 14  1  0  0  0  0
 13 41  1  0  0  0  0
 14 15  1  0  0  0  0
 14 42  1  0  0  0  0
 14 43  1  0  0  0  0
 15 18  1  0  0  0  0
 15 44  1  0  0  0  0
 15 45  1  0  0  0  0
 16 19  1  0  0  0  0
 16 46  1  0  0  0  0
 16 47  1  0  0  0  0
 17 20  1  0  0  0  0
 17 48  1  0  0  0  0
 17 49  1  0  0  0  0
 18 19  1  0  0  0  0
 18 50  1  0  0  0  0
 18 51  1  0  0  0  0
 19 52  1  0  0  0  0
 19 53  1  0  0  0  0
 20 54  1  0  0  0  0
 20 55  1  0  0  0  0
 21 23  1  0  0  0  0
 21 56  1  0  0  0  0
 21 57  1  0  0  0  0
 22 24  1  0  0  0  0
 22 58  1  0  0  0  0
 22 59  1  0  0  0  0
 23 25  1  0  0  0  0
 23 60  1  0  0  0  0
 23 61  1  0  0  0  0
 24 25  1  0  0  0  0
 24 62  1  0  0  0  0
 24 63  1  0  0  0  0
 25 64  1  0  0  0  0
 25 65  1  0  0  0  0
M  END
> <PUBCHEM_COMPOUND_CID>
511814
> <PUBCHEM_COMPOUND_CANONICALIZED>
1
> <PUBCHEM_CACTVS_COMPLEXITY>
412
> <PUBCHEM_CACTVS_HBOND_ACCEPTOR>
2
> <PUBCHEM_CACTVS_HBOND_DONOR>
0
> <PUBCHEM_CACTVS_ROTATABLE_BOND>
4
> <PUBCHEM_CACTVS_SUBSKEYS>
AAADcfB7AAAAAAAAAAAAAAAAAAAAAAAAAAA8YMGCBYAAAAAAAAAAHAAAAAAADyjBAAQAAAMAAAAAAAAAAAAAAAAAAAAAAAAIAAAAQAIAgAAUAAAAAACAAAEQgMAPAAAAAAAAAAAAAAQAAAAAAAAAAAAAAA==
> <PUBCHEM_IUPAC_OPENEYE_NAME>
2-(1-adamantyl)-1-[2-(1-piperidyl)ethyl]azepane
> <PUBCHEM_IUPAC_CAS_NAME>
2-(1-adamantyl)-1-[2-(1-piperidinyl)ethyl]azepane
> <PUBCHEM_IUPAC_NAME_MARKUP>
2-(1-adamantyl)-1-(2-piperidin-1-ylethyl)azepane
> <PUBCHEM_IUPAC_NAME>
2-(1-adamantyl)-1-(2-piperidin-1-ylethyl)azepane
> <PUBCHEM_IUPAC_SYSTEMATIC_NAME>
2-(1-adamantyl)-1-(2-piperidin-1-ylethyl)azepane
> <PUBCHEM_IUPAC_TRADITIONAL_NAME>
2-(1-adamantyl)-1-(2-piperidinoethyl)azepane
> <PUBCHEM_IUPAC_INCHI>
InChI=1S/C23H40N2/c1-3-7-22(23-16-19-13-20(17-23)15-21(14-19)18-23)25(10-6-1)12-11-24-8-4-2-5-9-24/h19-22H,1-18H2
> <PUBCHEM_IUPAC_INCHIKEY>
NQOVXTKKTUCSFK-UHFFFAOYSA-N
> <PUBCHEM_XLOGP3_AA>
5.3
> <PUBCHEM_EXACT_MASS>
344.319149284
> <PUBCHEM_MOLECULAR_FORMULA>
C23H40N2
> <PUBCHEM_MOLECULAR_WEIGHT>
344.6
> <PUBCHEM_OPENEYE_CAN_SMILES>
C1CCC(N(CC1)CCN2CCCCC2)C34CC5CC(C3)CC(C5)C4
> <PUBCHEM_OPENEYE_ISO_SMILES>
C1CCC(N(CC1)CCN2CCCCC2)C34CC5CC(C3)CC(C5)C4
> <PUBCHEM_CACTVS_TPSA>
6.5
> <PUBCHEM_MONOISOTOPIC_WEIGHT>
344.319149284
> <PUBCHEM_TOTAL_CHARGE>
0
> <PUBCHEM_HEAVY_ATOM_COUNT>
25
> <PUBCHEM_ATOM_DEF_STEREO_COUNT>
0
> <PUBCHEM_ATOM_UDEF_STEREO_COUNT>
1
> <PUBCHEM_BOND_DEF_STEREO_COUNT>
0
> <PUBCHEM_BOND_UDEF_STEREO_COUNT>
0
> <PUBCHEM_ISOTOPIC_ATOM_COUNT>
0
> <PUBCHEM_COMPONENT_COUNT>
1
> <PUBCHEM_CACTVS_TAUTO_COUNT>
-1
> <PUBCHEM_COORDINATE_TYPE>
1
5
255
> <PUBCHEM_BONDANNOTATIONS>
13  3  3
$$$$
