511911
  -OEChem-10302200282D
 33 34  0     1  0  0  0  0  0999 V2000
    5.1350   -3.0000    0.0000 Cl  0  0  0  0  0  0  0  0  0  0  0  0
    5.1350   -0.0000    0.0000 O   0  0  0  0  0  0  0  0  0  0  0  0
    6.8671    0.0000    0.0000 O   0  0  0  0  0  0  0  0  0  0  0  0
    3.4030   -2.0000    0.0000 O   0  0  0  0  0  0  0  0  0  0  0  0
    6.8671   -2.0000    0.0000 O   0  0  0  0  0  0  0  0  0  0  0  0
    2.5369   -0.5000    0.0000 O   0  0  0  0  0  0  0  0  0  0  0  0
    4.2690   -1.5000    0.0000 C   0  0  1  0  0  0  0  0  0  0  0  0
    5.1350   -2.0000    0.0000 C   0  0  2  0  0  0  0  0  0  0  0  0
    4.2690   -0.5000    0.0000 C   0  0  1  0  0  0  0  0  0  0  0  0
    6.0010   -1.5000    0.0000 C   0  0  2  0  0  0  0  0  0  0  0  0
    6.0010   -0.5000    0.0000 C   0  0  1  0  0  0  0  0  0  0  0  0
    3.4030    0.0000    0.0000 C   0  0  0  0  0  0  0  0  0  0  0  0
    6.8671    1.0000    0.0000 C   0  0  0  0  0  0  0  0  0  0  0  0
    7.7331    1.5000    0.0000 C   0  0  0  0  0  0  0  0  0  0  0  0
    6.0010    1.5000    0.0000 C   0  0  0  0  0  0  0  0  0  0  0  0
    7.7331    2.5000    0.0000 C   0  0  0  0  0  0  0  0  0  0  0  0
    6.0010    2.5000    0.0000 C   0  0  0  0  0  0  0  0  0  0  0  0
    6.8671    3.0000    0.0000 C   0  0  0  0  0  0  0  0  0  0  0  0
    4.2690   -2.1200    0.0000 H   0  0  0  0  0  0  0  0  0  0  0  0
    5.6720   -2.3100    0.0000 H   0  0  0  0  0  0  0  0  0  0  0  0
    4.2690    0.1200    0.0000 H   0  0  0  0  0  0  0  0  0  0  0  0
    6.5380   -1.1900    0.0000 H   0  0  0  0  0  0  0  0  0  0  0  0
    6.0010    0.1200    0.0000 H   0  0  0  0  0  0  0  0  0  0  0  0
    3.8015    0.4749    0.0000 H   0  0  0  0  0  0  0  0  0  0  0  0
    3.0044    0.4749    0.0000 H   0  0  0  0  0  0  0  0  0  0  0  0
    3.4030   -2.6200    0.0000 H   0  0  0  0  0  0  0  0  0  0  0  0
    6.8671   -2.6200    0.0000 H   0  0  0  0  0  0  0  0  0  0  0  0
    2.0000   -0.1900    0.0000 H   0  0  0  0  0  0  0  0  0  0  0  0
    8.2700    1.1900    0.0000 H   0  0  0  0  0  0  0  0  0  0  0  0
    5.4641    1.1900    0.0000 H   0  0  0  0  0  0  0  0  0  0  0  0
    8.2700    2.8100    0.0000 H   0  0  0  0  0  0  0  0  0  0  0  0
    5.4641    2.8100    0.0000 H   0  0  0  0  0  0  0  0  0  0  0  0
    6.8671    3.6200    0.0000 H   0  0  0  0  0  0  0  0  0  0  0  0
  8  1  1  6  0  0  0
  2  9  1  0  0  0  0
  2 11  1  0  0  0  0
 11  3  1  1  0  0  0
  3 13  1  0  0  0  0
  7  4  1  6  0  0  0
  4 26  1  0  0  0  0
 10  5  1  6  0  0  0
  5 27  1  0  0  0  0
  6 12  1  0  0  0  0
  6 28  1  0  0  0  0
  7  8  1  0  0  0  0
  7  9  1  0  0  0  0
  7 19  1  0  0  0  0
  8 10  1  0  0  0  0
  8 20  1  0  0  0  0
  9 12  1  1  0  0  0
  9 21  1  0  0  0  0
 10 11  1  0  0  0  0
 10 22  1  0  0  0  0
 11 23  1  0  0  0  0
 12 24  1  0  0  0  0
 12 25  1  0  0  0  0
 13 14  2  0  0  0  0
 13 15  1  0  0  0  0
 14 16  1  0  0  0  0
 14 29  1  0  0  0  0
 15 17  2  0  0  0  0
 15 30  1  0  0  0  0
 16 18  2  0  0  0  0
 16 31  1  0  0  0  0
 17 18  1  0  0  0  0
 17 32  1  0  0  0  0
 18 33  1  0  0  0  0
M  END
> <PUBCHEM_COMPOUND_CID>
511911
> <PUBCHEM_COMPOUND_CANONICALIZED>
1
> <PUBCHEM_CACTVS_COMPLEXITY>
259
> <PUBCHEM_CACTVS_HBOND_ACCEPTOR>
5
> <PUBCHEM_CACTVS_HBOND_DONOR>
3
> <PUBCHEM_CACTVS_ROTATABLE_BOND>
3
> <PUBCHEM_CACTVS_SUBSKEYS>
AAADccBwOAAEAAAAAAAAAAAAAAAAAAAAAAA0QAAAAAAAAAABAAAAGgIACAAACBewkEMwDoAABgCAACBCAAACCAAgIAAIiAAGC4gdNiKFMRqieCClwBEPqAfAYAwAAAAAAAAAAAAAAAAAAAAAAAAAAAAAAA==
> <PUBCHEM_IUPAC_OPENEYE_NAME>
(2R,3R,4R,5S,6S)-4-chloro-2-(hydroxymethyl)-6-phenoxy-tetrahydropyran-3,5-diol
> <PUBCHEM_IUPAC_CAS_NAME>
(2R,3R,4R,5S,6S)-4-chloro-2-(hydroxymethyl)-6-phenoxyoxane-3,5-diol
> <PUBCHEM_IUPAC_NAME_MARKUP>
(2<I>R</I>,3<I>R</I>,4<I>R</I>,5<I>S</I>,6<I>S</I>)-4-chloro-2-(hydroxymethyl)-6-phenoxyoxane-3,5-diol
> <PUBCHEM_IUPAC_NAME>
(2R,3R,4R,5S,6S)-4-chloro-2-(hydroxymethyl)-6-phenoxyoxane-3,5-diol
> <PUBCHEM_IUPAC_SYSTEMATIC_NAME>
(2R,3R,4R,5S,6S)-4-chloranyl-2-(hydroxymethyl)-6-phenoxy-oxane-3,5-diol
> <PUBCHEM_IUPAC_TRADITIONAL_NAME>
(2R,3R,4R,5S,6S)-4-chloro-2-methylol-6-phenoxy-tetrahydropyran-3,5-diol
> <PUBCHEM_IUPAC_INCHI>
InChI=1S/C12H15ClO5/c13-9-10(15)8(6-14)18-12(11(9)16)17-7-4-2-1-3-5-7/h1-5,8-12,14-16H,6H2/t8-,9-,10-,11-,12-/m1/s1
> <PUBCHEM_IUPAC_INCHIKEY>
FXURIPIANHTUDM-LZQZFOIKSA-N
> <PUBCHEM_XLOGP3>
0.4
> <PUBCHEM_EXACT_MASS>
274.0608013
> <PUBCHEM_MOLECULAR_FORMULA>
C12H15ClO5
> <PUBCHEM_MOLECULAR_WEIGHT>
274.70
> <PUBCHEM_OPENEYE_CAN_SMILES>
C1=CC=C(C=C1)OC2C(C(C(C(O2)CO)O)Cl)O
> <PUBCHEM_OPENEYE_ISO_SMILES>
C1=CC=C(C=C1)O[C@H]2[C@@H]([C@@H]([C@@H]([C@H](O2)CO)O)Cl)O
> <PUBCHEM_CACTVS_TPSA>
79.2
> <PUBCHEM_MONOISOTOPIC_WEIGHT>
274.0608013
> <PUBCHEM_TOTAL_CHARGE>
0
> <PUBCHEM_HEAVY_ATOM_COUNT>
18
> <PUBCHEM_ATOM_DEF_STEREO_COUNT>
5
> <PUBCHEM_ATOM_UDEF_STEREO_COUNT>
0
> <PUBCHEM_BOND_DEF_STEREO_COUNT>
0
> <PUBCHEM_BOND_UDEF_STEREO_COUNT>
0
> <PUBCHEM_ISOTOPIC_ATOM_COUNT>
0
> <PUBCHEM_COMPONENT_COUNT>
1
> <PUBCHEM_CACTVS_TAUTO_COUNT>
-1
> <PUBCHEM_COORDINATE_TYPE>
1
5
255
> <PUBCHEM_BONDANNOTATIONS>
8  1  6
13  14  8
13  15  8
14  16  8
15  17  8
16  18  8
17  18  8
11  3  5
7  4  6
10  5  6
9  12  5
$$$$
